G6.5Ocore-PETIM in water
193349
    1aaa     O1    1   1.755   0.748   6.324 -0.6827 -0.5183  0.3412
    1aaa     C1    2   1.702   0.614   6.316 -0.1507 -0.0037 -0.4608
    1aaa     H1    3   1.606   0.616   6.263  0.9332 -2.8993 -2.8342
    1aaa     H2    4   1.689   0.577   6.418  3.1697  1.1797  0.5175
    1aaa     C2    5   1.689   0.846   6.399  0.5389 -0.6330 -0.2741
    1aaa     H3    6   1.695   0.818   6.505  0.1599 -2.0472 -0.6057
    1aaa     H4    7   1.582   0.840   6.378  0.1595 -4.1945  1.8638
    1aaa     C3    8   1.794   0.522   6.236 -0.2835 -0.0503 -0.4295
    1aaa     H5    9   1.766   0.415   6.237  0.8625 -0.3641  0.3523
    1aaa     H6   10   1.895   0.527   6.279 -1.3539  1.9816  2.0588
    1aaa     C4   11   1.739   0.985   6.374 -0.3635  0.0111 -0.0716
    1aaa     H7   12   1.743   0.994   6.265 -2.5076  0.1927 -0.1860
    1aaa     H8   13   1.842   0.991   6.412 -0.2744 -5.0070  1.2854
    1aaa     C5   14   1.802   0.569   6.090 -0.2929 -0.5634 -0.2045
    1aaa     H9   15   1.708   0.541   6.041 -0.9039  1.5191 -0.3403
    1aaa    H10   16   1.805   0.678   6.080  2.9734 -0.6311 -1.0507
    1aaa     C6   17   1.645   1.094   6.420 -0.1072  0.4732 -0.3760
    1aaa    H11   18   1.631   1.096   6.529  1.7727 -0.2886 -0.0842
    1aaa    H12   19   1.545   1.072   6.381 -0.1038  3.2778 -2.2054
    1aaa     N1   20   1.923   0.526   6.007  0.4936  0.3948 -0.0788
    1aaa     N2   21   1.685   1.231   6.383  0.3219  0.1627  0.4814
    1aaa     C7   22   1.563   1.316   6.399 -0.2087  0.6231 -0.5914
    1aaa    H13   23   1.584   1.408   6.343 -0.4014  0.4898 -0.8833
    1aaa    H14   24   1.483   1.260   6.351  2.2210 -2.6378 -1.1685
    1aaa     C8   25   1.812   1.287   6.427 -0.5428 -0.4107  0.2225
    1aaa    H15   26   1.821   1.295   6.536  1.8250  0.0143  0.0550
    1aaa    H16   27   1.897   1.221   6.406  1.2162  1.9109 -0.5074
    1aaa     C9   28   1.970   0.380   6.024 -0.4221  0.0848  0.0419
    1aaa    H17   29   2.070   0.373   5.980 -0.2268 -1.8655  0.6849
    1aaa    H18   30   1.988   0.355   6.130  3.2478  2.3506  0.1345
    1aaa    C10   31   1.924   0.568   5.863  1.4699 -0.4619 -0.1642
    1aaa    H19   32   2.025   0.556   5.822  1.7354 -0.3979  0.4634
    1aaa    H20   33   1.857   0.510   5.798 -0.8965  0.9412  0.9150
    1aaa    C11   34   1.521   1.361   6.547 -0.2708 -0.0256  0.1389
    1aaa    H21   35   1.529   1.274   6.612 -0.6070 -0.6925 -0.6859
    1aaa    H22   36   1.596   1.426   6.593 -0.2174 -0.4979  0.7205
    1aaa    C12   37   1.840   1.434   6.367  0.4340  0.2180 -0.1094
    1aaa    H23   38   1.811   1.427   6.261  0.1735 -2.2709  0.0616
    1aaa    H24   39   1.772   1.505   6.416 -1.4873  1.0742 -3.6803
    1aaa    C13   40   1.888   0.270   5.961  0.3667 -0.6282  0.2038
    1aaa    H25   41   1.784   0.283   5.993  0.7549  1.7901  0.7004
    1aaa    H26   42   1.895   0.288   5.853 -1.5322 -0.6432  0.0370
    1aaa    C14   43   1.887   0.726   5.842  0.2127  0.4388  0.1791
    1aaa    H27   44   1.782   0.739   5.872  0.0089  0.9574 -0.7251
    1aaa    H28   45   1.952   0.780   5.912  1.5540 -1.4937  0.5171
    1aaa    C15   46   1.903   0.776   5.700  0.2741  0.2733 -0.2223
    1aaa    H29   47   2.008   0.761   5.673  0.5277  0.3582  0.6998
    1aaa    H30   48   1.830   0.738   5.627 -0.4540  0.5905  0.3271
    1aaa    C16   49   1.948   0.129   5.985 -0.3097 -0.4475  0.7687
    1aaa    H31   50   2.043   0.109   5.934  0.3564  1.9516  0.9555
    1aaa    H32   51   1.980   0.123   6.090  1.9749  1.0266  0.2313
    1aaa    C17   52   1.982   1.493   6.383  0.2199  0.3514  0.0331
    1aaa    H33   53   2.025   1.499   6.282 -1.0712 -4.7518 -1.1236
    1aaa    H34   54   1.986   1.596   6.421  2.0031  0.2695  0.1509
    1aaa    C18   55   1.376   1.408   6.558  0.0745 -0.5029  0.3194
    1aaa    H35   56   1.315   1.317   6.556  3.2601 -2.8230 -1.6936
    1aaa    H36   57   1.360   1.453   6.656  0.4217  0.4818 -0.0694
    2bbb     N1   58   2.156   1.241   5.487 -0.5837  0.0271  0.3209
    2bbb     C1   59   2.271   1.162   5.426 -0.3200 -0.1583  0.0339
    2bbb     H1   60   2.243   1.139   5.323 -0.4813 -0.6569  0.1856
    2bbb     H2   61   2.290   1.070   5.482 -0.1346 -0.7170 -0.9323
    2bbb     C2   62   2.184   1.309   5.616  0.1888  0.0820  0.0615
    2bbb     H3   63   2.285   1.350   5.612  0.4697 -0.5762 -3.3223
    2bbb     H4   64   2.172   1.237   5.697 -0.8694  2.5687  2.2389
    2bbb     C3   65   2.031   1.161   5.488 -0.0153  0.2283 -0.0406
    2bbb     H5   66   1.995   1.149   5.385  1.2977  0.3313 -0.5297
    2bbb     H6   67   1.955   1.227   5.532  1.4189  2.5045 -0.7736
    2bbb     C4   68   2.018   1.026   5.568  0.4677  0.2196  0.6095
    2bbb     H7   69   2.070   1.037   5.664  0.0651  1.2556  0.7242
    2bbb     H8   70   2.070   0.938   5.527 -0.6877  0.4297 -1.4260
    2bbb     C5   71   2.403   1.242   5.413 -0.2610  0.9251 -0.1534
    2bbb     H9   72   2.467   1.176   5.354 -0.5360  1.1861 -0.7566
    2bbb    H10   73   2.450   1.255   5.511  0.7792 -1.5541 -0.2597
    2bbb     C6   74   2.085   1.423   5.637 -0.2116  0.1255  0.7423
    2bbb    H11   75   1.985   1.384   5.656 -0.0521 -0.6084  0.1215
    2bbb    H12   76   2.067   1.484   5.547  1.2371 -0.8246 -0.2390
    2bbb     C7   77   1.873   0.988   5.593 -0.0636  0.2876  0.2334
    2bbb    H13   78   1.827   0.937   5.508  2.5081 -1.8748 -0.0063
    2bbb    H14   79   1.819   1.083   5.605  0.4646  0.6425 -0.1407
    2bbb     C8   80   2.130   1.510   5.756  0.4082  0.1710  0.2631
    2bbb    H15   81   2.233   1.545   5.739  1.0765 -2.6778 -2.5122
    2bbb    H16   82   2.132   1.449   5.847  0.1422  0.1880  0.2807
    2bbb     C9   83   2.396   1.377   5.335 -0.5175  0.6431  0.1644
    2bbb    H17   84   2.499   1.410   5.313 -1.2596  1.3947 -2.5930
    2bbb    H18   85   2.344   1.457   5.388  0.4738  0.5708  1.2917
    2bbb     O1   86   1.872   0.913   5.711  0.1314 -0.1871 -0.0566
    3bbb     N1   87   1.706  -0.114   5.574  0.1776 -0.0311  0.6933
    3bbb     C1   88   1.570  -0.067   5.612  0.5533 -0.1749  0.0175
    3bbb     H1   89   1.570  -0.014   5.708 -1.4032 -0.1573  0.0382
    3bbb     H2   90   1.494  -0.144   5.627  0.1291  0.7765  3.4059
    3bbb     C2   91   1.694  -0.184   5.443  0.5116  0.2900  0.5304
    3bbb     H3   92   1.649  -0.126   5.361 -0.4083 -0.1862  0.6894
    3bbb     H4   93   1.639  -0.278   5.453  1.5961 -0.5186 -0.7715
    3bbb     C3   94   1.765  -0.208   5.675  0.2976  0.2425 -0.3402
    3bbb     H5   95   1.866  -0.244   5.651  0.1754  1.3301 -2.7518
    3bbb     H6   96   1.694  -0.291   5.687 -0.4617  0.9337  0.0359
    3bbb     C4   97   1.778  -0.147   5.814  0.7464 -0.1456 -0.2126
    3bbb     H7   98   1.819  -0.215   5.889 -1.2637 -1.3918 -0.1696
    3bbb     H8   99   1.676  -0.142   5.854 -0.0282 -2.0258 -1.7684
    3bbb     C5  100   1.508   0.041   5.521  0.3103 -0.0339 -0.6032
    3bbb     H9  101   1.477  -0.015   5.432  0.9589 -0.1598 -0.7569
    3bbb    H10  102   1.590   0.109   5.494  1.3922 -0.6213  0.9964
    3bbb     C6  103   1.835  -0.225   5.393  1.0047  0.1167  0.1852
    3bbb    H11  104   1.859  -0.316   5.449  0.8488 -0.3802 -0.5313
    3bbb    H12  105   1.914  -0.152   5.412 -0.8400  3.2621 -2.8541
    3bbb     C7  106   1.854  -0.012   5.809  0.4993  0.2605  0.2218
    3bbb    H13  107   1.802   0.050   5.735  0.2071  0.6201  0.7280
    3bbb    H14  108   1.956  -0.024   5.771  0.1855 -0.3589 -0.4615
    3bbb     C8  109   1.838  -0.246   5.237  0.5396  0.5965  0.2114
    3bbb    H15  110   1.767  -0.320   5.197 -0.0562  0.9146  0.6541
    3bbb    H16  111   1.931  -0.291   5.200 -0.8253 -1.3996 -0.9666
    3bbb     C9  112   1.381   0.114   5.585 -0.1467 -0.0077 -0.0855
    3bbb    H17  113   1.319   0.172   5.514  2.6421  4.5718  0.7835
    3bbb    H18  114   1.410   0.186   5.662  1.2946 -0.4461 -0.1944
    3bbb     O1  115   1.856   0.030   5.947  0.4309 -0.2504  0.1145
    4bbb     N1  116   2.422   1.180   6.440 -0.0938 -0.6961  0.1790
    4bbb     C1  117   2.485   1.132   6.318 -0.3918 -0.7836 -0.2240
    4bbb     H1  118   2.408   1.145   6.241 -0.2596 -2.5437 -0.7115
    4bbb     H2  119   2.515   1.028   6.335  1.7594 -0.1570  0.1153
    4bbb     C2  120   2.356   1.074   6.514 -0.0662  0.5533  0.0015
    4bbb     H3  121   2.339   1.115   6.614 -0.6400 -0.4380  0.3224
    4bbb     H4  122   2.430   0.995   6.532 -0.1949 -0.1674 -2.3533
    4bbb     C3  123   2.329   1.297   6.408 -0.6446 -0.0767  0.9928
    4bbb     H5  124   2.244   1.276   6.342  1.2581  0.8083 -1.9292
    4bbb     H6  125   2.394   1.372   6.361  2.4655 -4.0329 -1.6664
    4bbb     C4  126   2.273   1.355   6.535  0.5243 -0.2647 -0.0039
    4bbb     H7  127   2.360   1.401   6.585  0.5673  0.6335 -0.8831
    4bbb     H8  128   2.223   1.278   6.595  1.9308 -0.8048  0.5282
    4bbb     C5  129   2.609   1.210   6.270  0.4795 -0.2698 -0.2272
    4bbb     H9  130   2.580   1.315   6.261 -2.6550 -1.1679 -2.3078
    4bbb    H10  131   2.652   1.172   6.176  1.1643  1.0002 -0.4471
    4bbb     C6  132   2.223   1.009   6.462 -0.0783  0.0380 -0.3325
    4bbb    H11  133   2.254   0.951   6.374 -1.4166  1.3119 -1.7060
    4bbb    H12  134   2.161   1.095   6.433 -1.1492  0.2532  2.3116
    4bbb     C7  135   2.172   1.462   6.520  0.1545 -0.5396  0.8815
    4bbb    H13  136   2.212   1.539   6.454 -0.6456 -0.2615  0.7065
    4bbb    H14  137   2.148   1.500   6.620  1.2607  0.6897  0.6981
    4bbb     C8  138   2.153   0.913   6.559  0.2097  0.5089  0.6243
    4bbb    H15  139   2.217   0.825   6.575  1.2033  0.2716 -3.4897
    4bbb    H16  140   2.067   0.870   6.506  0.4963  3.0479 -2.1960
    4bbb     C9  141   2.718   1.181   6.371 -0.1056  0.5467  0.0133
    4bbb    H17  142   2.736   1.073   6.370 -3.4543 -0.1275  0.3670
    4bbb    H18  143   2.694   1.198   6.476 -0.9937  0.2302 -0.1237
    4bbb     O1  144   2.052   1.408   6.464 -0.8595 -0.7271  0.0666
    5bbb     N1  145   0.854   1.442   6.440  0.1551  0.3891 -0.5094
    5bbb     C1  146   0.822   1.426   6.585  0.3065  0.5741 -0.5632
    5bbb     H1  147   0.909   1.409   6.649  0.0116  1.0566 -0.0272
    5bbb     H2  148   0.758   1.338   6.597  1.1041 -0.2696 -2.1476
    5bbb     C2  149   0.737   1.474   6.359 -0.4501 -0.5672  0.4838
    5bbb     H3  150   0.699   1.575   6.380 -1.0906 -1.0521  1.7959
    5bbb     H4  151   0.648   1.414   6.382 -0.9652 -0.1965 -0.4911
    5bbb     C3  152   0.969   1.536   6.422  0.0674 -0.3650  0.1086
    5bbb     H5  153   0.960   1.622   6.490 -2.3901  0.1070 -0.7150
    5bbb     H6  154   0.971   1.577   6.320 -2.3261  0.4576  0.3254
    5bbb     C4  155   1.105   1.461   6.448 -0.0948  0.2741 -0.0266
    5bbb     H7  156   1.129   1.388   6.371  2.5863 -0.7965  1.6967
    5bbb     H8  157   1.102   1.401   6.540 -0.8146  3.2777  2.1012
    5bbb     C5  158   0.742   1.546   6.642  0.2932  0.2532 -0.2003
    5bbb     H9  159   0.653   1.559   6.579  0.3593 -0.6031 -0.4842
    5bbb    H10  160   0.800   1.639   6.640 -2.0733  1.8059 -0.2660
    5bbb     C6  161   0.756   1.437   6.211  0.4366 -1.1408 -0.8103
    5bbb    H11  162   0.782   1.330   6.206 -0.9203 -1.4262 -2.4691
    5bbb    H12  163   0.827   1.507   6.166 -1.3505  1.4855  0.2579
    5bbb     C7  164   1.224   1.563   6.457  0.2637 -0.0491  0.3793
    5bbb    H13  165   1.215   1.620   6.550  0.6721  2.4568 -1.0191
    5bbb    H14  166   1.215   1.629   6.370 -3.0803 -0.5078  0.2458
    5bbb     C8  167   0.619   1.457   6.138  0.7383 -0.1426 -0.4424
    5bbb    H15  168   0.581   1.551   6.178 -0.0010  0.3595 -2.2276
    5bbb    H16  169   0.541   1.387   6.172  0.4969  1.0382  1.5710
    5bbb     C9  170   0.679   1.530   6.788 -0.5068 -0.3537  0.4135
    5bbb    H17  171   0.649   1.425   6.795 -1.0778 -0.3250 -1.1364
    5bbb    H18  172   0.595   1.601   6.795  0.6927  1.3288 -1.0816
    5bbb     O1  173   1.351   1.503   6.456 -0.0262  0.4669  0.4632
    6bbb     N1  174   2.081   1.939   6.084 -0.1879  0.6364 -0.0376
    6bbb     C1  175   2.085   2.069   6.016 -0.1010 -0.3004  0.3901
    6bbb     H1  176   2.009   2.140   6.053 -0.9693 -0.2864 -1.3508
    6bbb     H2  177   2.058   2.050   5.912  0.3745 -1.5709  0.4815
    6bbb     C2  178   2.119   1.938   6.220  1.1176  0.1617 -1.0272
    6bbb     H3  179   2.028   1.959   6.277  1.0641  2.7970 -1.9475
    6bbb     H4  180   2.184   2.024   6.241  1.3303 -0.1245 -0.5010
    6bbb     C3  181   1.958   1.859   6.055  0.5052 -0.4664 -0.5426
    6bbb     H5  182   1.875   1.930   6.063  0.9272 -0.1439  1.5407
    6bbb     H6  183   1.942   1.784   6.133 -2.9462 -2.0247 -2.5098
    6bbb     C4  184   1.940   1.791   5.919 -0.1782  0.0975 -0.2320
    6bbb     H7  185   1.955   1.873   5.847 -0.9528  1.4867  1.1424
    6bbb     H8  186   1.838   1.756   5.898  0.1043 -0.2344 -1.1209
    6bbb     C5  187   2.219   2.151   6.012 -0.8061  0.2185 -0.1832
    6bbb     H9  188   2.262   2.156   6.112 -0.0284 -0.2557 -0.4793
    6bbb    H10  189   2.201   2.253   5.975 -0.8126 -0.5312 -2.4182
    6bbb     C6  190   2.165   1.799   6.271 -0.2492  0.2490 -0.3997
    6bbb    H11  191   2.108   1.716   6.227  0.6733 -0.8875  0.4759
    6bbb    H12  192   2.150   1.791   6.379 -1.5491  0.6564 -0.5390
    6bbb     C7  193   2.045   1.679   5.903 -0.1172 -0.2875 -0.3957
    6bbb    H13  194   2.039   1.606   5.985  0.3449  0.1571  0.0447
    6bbb    H14  195   2.142   1.729   5.916 -0.9363  0.5806  4.9274
    6bbb     C8  196   2.311   1.778   6.226 -0.8568  0.3498 -0.3287
    6bbb    H15  197   2.375   1.855   6.270  1.7445 -1.0266 -1.4688
    6bbb    H16  198   2.315   1.809   6.121 -1.7241  0.8329 -0.2293
    6bbb     C9  199   2.325   2.090   5.927  0.3509 -0.1742 -0.0243
    6bbb    H17  200   2.297   2.102   5.822 -0.1983 -1.3567 -0.0279
    6bbb    H18  201   2.340   1.983   5.941  3.0444  0.3040  1.4512
    6bbb     O1  202   2.032   1.616   5.775  0.0365 -0.4341  0.5837
    7bbb     N1  203   2.296   1.230   4.780  0.4352  0.9257 -0.1375
    7bbb     C1  204   2.248   1.330   4.678 -1.1172  0.0435  0.3132
    7bbb     H1  205   2.338   1.384   4.645 -1.3376 -0.6552 -1.5250
    7bbb     H2  206   2.187   1.406   4.730 -0.1591  0.4905  0.8202
    7bbb     C2  207   2.363   1.110   4.725 -0.5480  0.5866 -0.1599
    7bbb     H3  208   2.437   1.143   4.651  0.5327 -1.7518 -0.2279
    7bbb     H4  209   2.299   1.041   4.669 -2.2236  3.4341 -2.0061
    7bbb     C3  210   2.361   1.298   4.900 -0.5202  0.8234  0.1755
    7bbb     H5  211   2.452   1.348   4.866  0.6588  0.0418  2.0095
    7bbb     H6  212   2.393   1.232   4.982  1.1457  0.3831 -0.7950
    7bbb     C4  213   2.287   1.411   4.975  0.4885 -0.2133  0.3453
    7bbb     H7  214   2.182   1.391   4.997  0.0719 -0.0609 -1.4080
    7bbb     H8  215   2.286   1.499   4.910 -0.0785  0.0686  0.7238
    7bbb     C5  216   2.168   1.273   4.560  0.5350  0.3906 -0.1929
    7bbb     H9  217   2.076   1.222   4.592  1.1754 -1.2174 -0.7965
    7bbb    H10  218   2.236   1.209   4.502  0.2244 -0.1578  0.0412
    7bbb     C6  219   2.445   1.021   4.825  0.9489  0.1844  0.5848
    7bbb    H11  220   2.377   1.005   4.910  1.0216 -0.3349  0.5453
    7bbb    H12  221   2.527   1.083   4.863 -2.0922  3.5242  2.3106
    7bbb     C7  222   2.353   1.456   5.105 -0.3003 -0.4698 -0.0543
    7bbb    H13  223   2.311   1.548   5.149 -0.4101 -1.0439  1.0950
    7bbb    H14  224   2.459   1.478   5.086 -0.6556  2.1135  0.5317
    7bbb     C8  225   2.502   0.898   4.758 -0.9679  0.6190 -0.4190
    7bbb    H15  226   2.433   0.813   4.756  0.9698 -1.0108 -1.4992
    7bbb    H16  227   2.589   0.858   4.813 -1.8095 -4.1185 -2.0666
    7bbb     C9  228   2.114   1.382   4.461 -0.8517  0.1724 -0.1670
    7bbb    H17  229   2.005   1.392   4.465 -1.0446 -1.2629 -1.2472
    7bbb    H18  230   2.149   1.353   4.362  4.7558 -0.4832  1.6438
    7bbb     O1  231   2.348   1.350   5.204 -0.4168  0.5147  0.0389
    8bbb     N1  232   1.849   0.077   4.761  0.2305  0.2631 -0.2223
    8bbb     C1  233   1.826   0.068   4.615 -0.3337  0.7704 -0.1082
    8bbb     H1  234   1.912   0.093   4.552  1.0948  2.6594  2.3910
    8bbb     H2  235   1.745   0.140   4.598 -0.3065  0.6679 -0.6785
    8bbb     C2  236   1.906   0.211   4.791 -0.1276  0.3985  0.4211
    8bbb     H3  237   1.910   0.229   4.899  0.2647 -0.1068  0.4937
    8bbb     H4  238   1.835   0.285   4.752 -0.4663 -0.8342 -1.4340
    8bbb     C3  239   1.731   0.047   4.848  0.1379  0.2171 -0.1149
    8bbb     H5  240   1.681  -0.043   4.810 -1.8954  1.0724  0.4172
    8bbb     H6  241   1.664   0.132   4.836  1.4457  1.0709 -1.7541
    8bbb     C4  242   1.773   0.030   4.992  0.1750  0.1319  0.4974
    8bbb     H7  243   1.684   0.055   5.051 -2.4902 -0.0213 -3.0864
    8bbb     H8  244   1.848   0.103   5.022  0.0663 -0.1263  1.4150
    8bbb     C5  245   1.766  -0.069   4.570  0.0844  0.2054 -0.5727
    8bbb     H9  246   1.747  -0.051   4.463  0.8045  2.3554 -0.3897
    8bbb    H10  247   1.672  -0.095   4.620  0.5254 -2.1214 -0.8227
    8bbb     C6  248   2.040   0.239   4.724 -0.4650 -0.1164  0.0657
    8bbb    H11  249   2.040   0.237   4.614  0.6927 -1.6526  0.0566
    8bbb    H12  250   2.113   0.161   4.748 -1.0148 -0.3050  1.1926
    8bbb     C7  251   1.814  -0.113   5.036  0.0214 -0.6281  0.7117
    8bbb    H13  252   1.914  -0.138   4.998 -0.1868 -0.6437  0.1549
    8bbb    H14  253   1.736  -0.181   4.998 -1.0367  0.4735  0.8407
    8bbb     C8  254   2.094   0.376   4.767  0.3348 -0.0421  0.0458
    8bbb    H15  255   2.092   0.391   4.875  1.9079  0.3157  0.0437
    8bbb    H16  256   2.031   0.454   4.724 -0.2843 -0.2417  0.5755
    8bbb     C9  257   1.866  -0.192   4.578  0.4036  0.2158  0.0719
    8bbb    H17  258   1.911  -0.187   4.677  2.0489  0.6327 -0.6668
    8bbb    H18  259   1.954  -0.183   4.513  0.5457  0.3818  0.2873
    8bbb     O1  260   1.813  -0.113   5.176 -0.1794  0.1284  0.1410
    9bbb     N1  261   1.174  -0.089   5.987  0.2306  0.4299  0.1520
    9bbb     C1  262   1.052  -0.104   6.072 -0.0516 -0.0222  0.9300
    9bbb     H1  263   1.041  -0.204   6.115 -0.6951 -0.5024 -0.3161
    9bbb     H2  264   0.967  -0.084   6.005  0.0930 -0.5878  0.5778
    9bbb     C2  265   1.291  -0.139   6.058 -0.0141  0.0931 -0.6155
    9bbb     H3  266   1.292  -0.248   6.067 -1.5798  0.2507  3.6297
    9bbb     H4  267   1.291  -0.103   6.161  0.3433  0.2405 -0.6659
    9bbb     C3  268   1.162  -0.156   5.856  0.2170  0.3051 -0.3640
    9bbb     H5  269   1.115  -0.254   5.869 -2.0140  1.5611  1.7465
    9bbb     H6  270   1.259  -0.192   5.819 -0.3846 -1.3767 -0.3991
    9bbb     C4  271   1.104  -0.069   5.743 -0.0156  1.1239 -0.0094
    9bbb     H7  272   1.000  -0.041   5.767 -0.2616  0.4841 -0.3196
    9bbb     H8  273   1.086  -0.141   5.663 -0.3190 -0.1942  1.2096
    9bbb     C5  274   1.045   0.007   6.180 -0.3369  0.4641  0.7047
    9bbb     H9  275   1.049   0.110   6.144 -0.6792  0.5389  0.8769
    9bbb    H10  276   1.137  -0.007   6.237  1.0104  1.2447 -1.1603
    9bbb     C6  277   1.431  -0.105   5.999 -0.2757  0.0059 -0.3047
    9bbb    H11  278   1.438  -0.145   5.897  1.6915  1.8505 -0.9730
    9bbb    H12  279   1.502  -0.155   6.066 -0.1283  2.6854  1.7009
    9bbb     C7  280   1.188   0.048   5.705 -0.5779 -0.5517 -0.0264
    9bbb    H13  281   1.202   0.107   5.796  0.7297 -1.3860  0.3418
    9bbb    H14  282   1.129   0.108   5.635  0.2056 -0.4185 -0.5841
    9bbb     C8  283   1.453   0.048   5.995 -0.1148  0.0779  0.1083
    9bbb    H15  284   1.388   0.096   5.921  0.9768 -0.0961 -0.9859
    9bbb    H16  285   1.553   0.062   5.953 -0.2962  0.0175 -0.3457
    9bbb     C9  286   0.924  -0.009   6.271 -0.5140  0.5717  1.4260
    9bbb    H17  287   0.908   0.083   6.328  0.6922 -0.0784  2.9121
    9bbb    H18  288   0.953  -0.090   6.340  2.2464  0.2025 -0.0035
    9bbb     O1  289   1.300   0.010   5.631 -0.1048  0.2347 -0.4299
   10bbb     N1  290   1.729   1.114   6.936 -0.1220 -0.6446 -0.2715
   10bbb     C1  291   1.626   1.216   6.974 -0.1264 -0.7431 -0.6648
   10bbb     H1  292   1.550   1.166   7.035 -0.5998 -0.2865 -0.8655
   10bbb     H2  293   1.572   1.257   6.887 -0.4286  2.5218  0.9093
   10bbb     C2  294   1.686   0.969   6.943 -0.2726 -0.0753 -0.0159
   10bbb     H3  295   1.627   0.961   7.034  0.0245 -2.1967  0.0293
   10bbb     H4  296   1.780   0.914   6.953  0.3273  0.5351 -1.8122
   10bbb     C3  297   1.808   1.149   6.824 -0.4238  0.4733  0.3003
   10bbb     H5  298   1.810   1.259   6.828 -2.4493  0.5101  3.3426
   10bbb     H6  299   1.766   1.123   6.726  2.0197 -0.2412 -0.6414
   10bbb     C4  300   1.952   1.084   6.812 -0.5670  0.3922  0.0027
   10bbb     H7  301   1.955   0.989   6.866 -0.0555  0.5748  0.3039
   10bbb     H8  302   2.021   1.156   6.858 -0.2041 -0.7736  1.3414
   10bbb     C5  303   1.682   1.337   7.058  0.3110 -0.2988  0.4998
   10bbb     H9  304   1.597   1.402   7.080  0.8107  0.2503  0.8555
   10bbb    H10  305   1.736   1.408   6.994 -1.7621 -0.3963 -1.4699
   10bbb     C6  306   1.594   0.920   6.828  0.4095 -0.3541  0.4080
   10bbb    H11  307   1.638   0.947   6.731  1.5967 -1.9029  0.4541
   10bbb    H12  308   1.493   0.963   6.826  0.2853 -0.6826 -0.5619
   10bbb     C7  309   1.997   1.059   6.659 -0.1969  0.1917 -0.2924
   10bbb    H13  310   2.021   1.155   6.613  1.0968 -0.4282 -0.9637
   10bbb    H14  311   1.922   0.996   6.609  0.2111 -1.1898  0.7849
   10bbb     C8  312   1.594   0.769   6.815  0.8938 -0.7259 -0.1172
   10bbb    H15  313   1.699   0.738   6.811  1.2672  0.3065  0.9664
   10bbb    H16  314   1.544   0.741   6.722  2.1863  1.3501 -1.5082
   10bbb     C9  315   1.754   1.301   7.194  0.2684 -0.3158 -0.1692
   10bbb    H17  316   1.847   1.246   7.176  1.1126  0.7950  0.6376
   10bbb    H18  317   1.691   1.240   7.259  0.0406 -0.1559 -0.2376
   10bbb     O1  318   2.119   0.990   6.676 -0.3560  0.8324 -0.0035
   11bbb     N1  319   2.947   1.118   5.945  0.1459 -0.6620  0.3637
   11bbb     C1  320   3.015   1.107   5.817 -0.0317  0.2417 -1.0323
   11bbb     H1  321   2.959   1.163   5.741  1.3605  2.4002 -0.5686
   11bbb     H2  322   3.019   1.000   5.795  1.5314 -0.2961  1.4374
   11bbb     C2  323   2.804   1.091   5.932  0.2904  0.3296  0.3031
   11bbb     H3  324   2.758   1.065   6.028 -0.8730 -0.3440 -0.4105
   11bbb     H4  325   2.781   1.011   5.860 -2.1430  0.5870  0.7109
   11bbb     C3  326   3.022   1.054   6.062 -0.9173  0.3380  0.2657
   11bbb     H5  327   3.125   1.090   6.073 -1.0853  0.1228  3.1207
   11bbb     H6  328   3.020   0.946   6.041 -0.8959  0.4048 -0.0989
   11bbb     C4  329   2.960   1.086   6.194 -0.1166  0.0423  0.4257
   11bbb     H7  330   3.037   1.059   6.268  0.6104 -0.4032 -0.4682
   11bbb     H8  331   2.876   1.019   6.214  1.4438 -2.2872 -0.4069
   11bbb     C5  332   3.165   1.157   5.812 -0.4130  0.0829  0.7208
   11bbb     H9  333   3.217   1.128   5.721 -0.9261 -1.1098  0.7893
   11bbb    H10  334   3.223   1.106   5.890 -0.9804  1.4437  2.0959
   11bbb     C6  335   2.737   1.214   5.878 -0.6513  0.1954 -0.5549
   11bbb    H11  336   2.751   1.228   5.770 -0.3622 -0.2279 -0.5753
   11bbb    H12  337   2.787   1.299   5.926  0.2737 -0.0311 -1.0937
   11bbb     C7  338   2.922   1.232   6.218 -0.0092 -0.6493 -0.3537
   11bbb    H13  339   2.864   1.282   6.139  0.7211  1.6998  0.5025
   11bbb    H14  340   3.000   1.309   6.219 -1.7401  1.2106 -0.7369
   11bbb     C8  341   2.589   1.215   5.894  0.3812 -0.4591  0.7512
   11bbb    H15  342   2.552   1.299   5.834  1.5080 -1.8787 -2.0958
   11bbb    H16  343   2.555   1.235   5.997 -2.7952 -0.3575 -0.2012
   11bbb     C9  344   3.174   1.309   5.828  0.2626  0.1495 -0.8744
   11bbb    H17  345   3.136   1.333   5.929  1.1831 -0.4064 -0.3874
   11bbb    H18  346   3.106   1.356   5.756 -0.3362  0.0303 -0.3959
   11bbb     O1  347   2.847   1.244   6.345 -0.0959 -0.4552  0.3060
   12bbb     N1  348   0.309   1.142   5.987  0.0578 -0.7987 -0.3581
   12bbb     C1  349   0.270   1.090   5.858 -0.2475  0.8752  0.4361
   12bbb     H1  350   0.318   0.992   5.852  1.9644  1.8101  1.5910
   12bbb     H2  351   0.312   1.155   5.781 -1.0919  2.2785  1.0928
   12bbb     C2  352   0.278   1.049   6.104  1.0068 -0.1721  0.1798
   12bbb     H3  353   0.170   1.036   6.109  0.9532 -0.2754 -0.9730
   12bbb     H4  354   0.312   1.104   6.193  1.9528 -0.9039  0.2963
   12bbb     C3  355   0.452   1.184   5.986  0.7327 -0.2953 -0.0680
   12bbb     H5  356   0.518   1.103   5.955  1.3323  0.0562  0.2559
   12bbb     H6  357   0.475   1.205   6.092 -0.8860 -0.9670  0.4447
   12bbb     C4  358   0.483   1.315   5.903 -0.0850  0.5069  0.3596
   12bbb     H7  359   0.408   1.394   5.919 -0.7250  0.1477 -0.6740
   12bbb     H8  360   0.477   1.273   5.801  3.8131 -1.9957  0.9675
   12bbb     C5  361   0.117   1.075   5.847  0.5345  0.1513 -0.4479
   12bbb     H9  362   0.079   1.016   5.932  2.4063 -1.3337 -0.5844
   12bbb    H10  363   0.094   1.018   5.757  0.8030  0.3660 -0.6553
   12bbb     C6  364   0.351   0.912   6.111 -0.7628 -0.0105 -0.3758
   12bbb    H11  365   0.458   0.927   6.095 -0.6910  0.5774  0.5715
   12bbb    H12  366   0.323   0.848   6.026 -0.5553 -0.7757  0.1194
   12bbb     C7  367   0.631   1.348   5.928 -0.6051  0.4144  0.0679
   12bbb    H13  368   0.687   1.361   5.835  2.6337  1.1260  1.9853
   12bbb    H14  369   0.685   1.276   5.991  1.3732  1.6340 -0.1686
   12bbb     C8  370   0.321   0.835   6.243  0.2298 -0.2181 -0.1151
   12bbb    H15  371   0.213   0.821   6.258 -0.0099  2.0852  0.7973
   12bbb    H16  372   0.358   0.900   6.323  2.3720 -1.0927 -0.3241
   12bbb     C9  373   0.036   1.203   5.853  0.3590 -0.5739 -0.0322
   12bbb    H17  374   0.062   1.259   5.943  3.3265 -2.9470  0.7736
   12bbb    H18  375  -0.070   1.178   5.867  0.8926 -1.8533  2.2317
   12bbb     O1  376   0.632   1.468   5.998 -0.4822 -0.0660 -0.2394
   13bbb     N1  377   0.910   1.721   7.302  0.1978  0.3291  0.0369
   13bbb     C1  378   0.904   1.865   7.348  0.8179  0.2885  0.0642
   13bbb     H1  379   0.947   1.924   7.267 -0.2838  0.7456 -0.2112
   13bbb     H2  380   0.951   1.872   7.447 -0.8198  0.9177  0.8531
   13bbb     C2  381   1.049   1.685   7.270 -0.8938 -0.7735 -0.1656
   13bbb     H3  382   1.107   1.752   7.336  1.0893 -3.2341  0.7689
   13bbb     H4  383   1.086   1.694   7.168 -0.6462 -0.5978 -0.0611
   13bbb     C3  384   0.830   1.687   7.179  0.6393  0.6884  0.6510
   13bbb     H5  385   0.862   1.755   7.099  0.8959 -1.7624 -1.4319
   13bbb     H6  386   0.725   1.712   7.199  0.6196  0.7512  0.4619
   13bbb     C4  387   0.836   1.544   7.132  0.0291 -0.0207  0.4439
   13bbb     H7  388   0.805   1.474   7.210  0.2198 -3.0489 -2.0097
   13bbb     H8  389   0.938   1.526   7.096 -0.5165  0.1580 -1.3104
   13bbb     C5  390   0.752   1.915   7.359 -0.3643  0.6265  0.7352
   13bbb     H9  391   0.688   1.845   7.415 -2.1683  1.0577 -0.6953
   13bbb    H10  392   0.715   1.913   7.256 -1.8628 -1.0046  1.2674
   13bbb     C6  393   1.085   1.547   7.336 -0.3369  0.0381  0.2974
   13bbb    H11  394   1.030   1.461   7.294 -0.4175 -1.1237  2.6249
   13bbb    H12  395   1.046   1.546   7.439 -0.0741 -0.5313  0.3958
   13bbb     C7  396   0.743   1.508   7.017  0.1236  0.3050  0.2385
   13bbb    H13  397   0.636   1.521   7.039 -0.4865  0.0863 -2.3736
   13bbb    H14  398   0.753   1.400   7.006 -0.0361  0.1841  1.2038
   13bbb     C8  399   1.234   1.519   7.326  0.1957  0.1127 -0.5253
   13bbb    H15  400   1.280   1.537   7.424 -0.5692 -2.9191  0.5057
   13bbb    H16  401   1.275   1.577   7.243 -0.8104  1.1810 -0.3134
   13bbb     C9  402   0.739   2.061   7.406 -0.8775 -0.9371  0.3742
   13bbb    H17  403   0.641   2.101   7.380  0.1247  3.1569  2.0000
   13bbb    H18  404   0.810   2.124   7.351  1.5480 -3.3010  0.5554
   13bbb     O1  405   0.777   1.567   6.887 -0.5056 -0.4241 -0.5154
   14bbb     N1  406   2.725   1.647   6.036 -0.3161 -1.0114 -0.7802
   14bbb     C1  407   2.684   1.792   6.025  0.1801 -0.4672 -0.0360
   14bbb     H1  408   2.583   1.816   6.060 -0.4641  0.5633 -2.4183
   14bbb     H2  409   2.704   1.827   5.923 -0.5803  0.1305  0.0091
   14bbb     C2  410   2.865   1.618   6.003  0.2059  0.6796  0.6638
   14bbb     H3  411   2.901   1.522   6.041 -1.8929 -0.0258  0.9876
   14bbb     H4  412   2.930   1.694   6.047 -1.1765  3.2336 -1.4000
   14bbb     C3  413   2.630   1.554   5.994  0.1342 -0.4302 -0.1060
   14bbb     H5  414   2.673   1.466   6.042 -1.2425 -1.4891 -0.7341
   14bbb     H6  415   2.628   1.544   5.885  0.6613 -0.6891 -0.0945
   14bbb     C4  416   2.489   1.575   6.050 -0.4132 -0.4720 -0.0026
   14bbb     H7  417   2.433   1.485   6.024  0.0789 -0.2321 -2.1084
   14bbb     H8  418   2.441   1.659   5.998  0.1686  0.1882  0.5034
   14bbb     C5  419   2.767   1.894   6.106 -0.0808  0.8961 -0.3009
   14bbb     H9  420   2.720   1.990   6.084  0.4654  0.8710 -1.6211
   14bbb    H10  421   2.866   1.896   6.060 -0.3508 -2.5427 -1.3491
   14bbb     C6  422   2.902   1.619   5.851  0.4685  0.0646  0.2908
   14bbb    H11  423   2.836   1.686   5.794 -0.9753 -0.3089  1.4491
   14bbb    H12  424   2.884   1.515   5.822  2.3937  0.2285 -1.6895
   14bbb     C7  425   2.480   1.604   6.206  0.0854  0.3515  0.5664
   14bbb    H13  426   2.539   1.692   6.236 -1.1764  2.0193 -1.5550
   14bbb    H14  427   2.510   1.516   6.264 -1.9320 -0.3822  0.5459
   14bbb     C8  428   3.050   1.663   5.830  0.2627 -0.0519  0.5964
   14bbb    H15  429   3.118   1.600   5.889 -0.8326 -0.9632  0.9318
   14bbb    H16  430   3.074   1.764   5.865 -1.1997  0.6377 -0.3082
   14bbb     C9  431   2.781   1.858   6.254 -0.4625 -0.3454 -0.1609
   14bbb    H17  432   2.829   1.760   6.261 -1.8468 -0.9971  0.7769
   14bbb    H18  433   2.682   1.851   6.301  0.5511  2.0188  2.5855
   14bbb     O1  434   2.351   1.636   6.246  0.1354  0.2466 -0.4694
   15bbb     N1  435   2.469   2.373   5.577 -0.4289  0.4346 -0.1064
   15bbb     C1  436   2.400   2.503   5.583  0.3324 -0.2469 -0.2119
   15bbb     H1  437   2.361   2.517   5.481  2.7735  1.4729 -1.0072
   15bbb     H2  438   2.468   2.585   5.609 -1.7407  1.2551  0.6941
   15bbb     C2  439   2.573   2.356   5.471  0.1119  0.2316 -0.0259
   15bbb     H3  440   2.577   2.252   5.435  0.3509  0.3268 -0.2798
   15bbb     H4  441   2.668   2.380   5.519 -0.6077  1.9272  0.6036
   15bbb     C3  442   2.510   2.339   5.716 -0.2865  0.4253 -0.3829
   15bbb     H5  443   2.445   2.372   5.798  1.7749  2.3874  0.5694
   15bbb     H6  444   2.604   2.394   5.724 -0.7602  1.3155 -0.8449
   15bbb     C4  445   2.543   2.191   5.733 -0.0610  0.0542  0.6137
   15bbb     H7  446   2.632   2.164   5.674  0.9886  1.3861  1.5082
   15bbb     H8  447   2.470   2.124   5.686  0.5507 -0.4122  0.3116
   15bbb     C5  448   2.267   2.521   5.669 -0.3766  0.5992 -0.1813
   15bbb     H9  449   2.218   2.612   5.633  0.2012  0.3337 -1.7348
   15bbb    H10  450   2.289   2.553   5.772 -1.8618  1.9573 -0.2483
   15bbb     C6  451   2.563   2.435   5.345  0.3292 -0.3228  0.1108
   15bbb    H11  452   2.578   2.542   5.362 -1.9411 -0.1077  1.0758
   15bbb    H12  453   2.464   2.430   5.298  0.4612 -1.0812 -0.1057
   15bbb     C7  454   2.566   2.150   5.883 -0.5969  0.8242  1.2715
   15bbb    H13  455   2.643   2.220   5.919  0.3174  1.3600 -1.5472
   15bbb    H14  456   2.602   2.047   5.898 -0.5392  0.1501 -2.5868
   15bbb     C8  457   2.665   2.396   5.238  0.0134  0.3299 -0.0861
   15bbb    H15  458   2.682   2.287   5.236 -2.1551 -0.1362  1.8799
   15bbb    H16  459   2.762   2.440   5.264 -0.1565 -0.0630  1.2684
   15bbb     C9  460   2.164   2.399   5.664 -0.6274 -0.1915  0.4897
   15bbb    H17  461   2.227   2.317   5.701  0.7336  0.8595  0.5461
   15bbb    H18  462   2.140   2.375   5.560 -1.1253  0.6419  0.4026
   15bbb     O1  463   2.443   2.169   5.962 -0.6038  0.4789 -0.2064
   16bbb     N1  464   2.576   0.471   4.431 -0.6979 -0.2880 -0.8072
   16bbb     C1  465   2.668   0.372   4.370  0.3069  0.1936 -0.4303
   16bbb     H1  466   2.699   0.398   4.268  0.0051 -0.7751 -0.7803
   16bbb     H2  467   2.617   0.277   4.350  0.9023  0.2531 -2.5588
   16bbb     C2  468   2.455   0.488   4.351  0.5925  0.9770  0.2125
   16bbb     H3  469   2.479   0.480   4.245  2.5971 -0.3029  0.7172
   16bbb     H4  470   2.405   0.584   4.370  2.0341  1.3504  2.5603
   16bbb     C3  471   2.647   0.591   4.480  0.8736 -0.3611 -0.6985
   16bbb     H5  472   2.712   0.630   4.401  1.9859 -0.6296  0.0586
   16bbb     H6  473   2.703   0.560   4.570 -0.1060 -1.5985 -0.4917
   16bbb     C4  474   2.551   0.701   4.545 -0.4452  0.3235 -0.8218
   16bbb     H7  475   2.519   0.654   4.639  1.5799  1.1409  0.3402
   16bbb     H8  476   2.467   0.729   4.481 -0.6369  0.2653 -0.5966
   16bbb     C5  477   2.791   0.331   4.452  0.2240 -0.1271  0.0563
   16bbb     H9  478   2.771   0.349   4.558  0.0584 -0.6370  0.1127
   16bbb    H10  479   2.881   0.387   4.423  0.3892  0.3103  1.3536
   16bbb     C6  480   2.343   0.377   4.381  0.7491  0.1372 -0.3719
   16bbb    H11  481   2.328   0.369   4.489 -0.3075  0.1619 -0.5029
   16bbb    H12  482   2.380   0.278   4.353 -1.8545 -1.6046  1.8008
   16bbb     C7  483   2.631   0.831   4.572 -0.1426  0.3265 -0.2677
   16bbb    H13  484   2.672   0.871   4.479  1.8807 -1.5305 -0.2634
   16bbb    H14  485   2.716   0.796   4.631  0.5334  0.3309 -1.2239
   16bbb     C8  486   2.210   0.417   4.315 -0.1069  0.2649  0.7126
   16bbb    H15  487   2.242   0.452   4.216  0.1955 -0.2202  0.6293
   16bbb    H16  488   2.154   0.496   4.366 -1.1546  0.1835 -0.2781
   16bbb     C9  489   2.824   0.183   4.427 -0.2631  0.1681  0.0013
   16bbb    H17  490   2.833   0.164   4.319 -2.1586  3.7503 -0.9665
   16bbb    H18  491   2.744   0.118   4.465 -0.8446  0.6667 -0.3524
   16bbb     O1  492   2.558   0.929   4.635  0.1178  0.1234  0.0390
   17bbb     N1  493   2.317   1.873   4.659  0.0394 -0.2700  0.3716
   17bbb     C1  494   2.455   1.829   4.633  0.5846 -0.3030  0.1918
   17bbb     H1  495   2.530   1.893   4.682 -0.3667  2.7398 -1.9971
   17bbb     H2  496   2.482   1.831   4.527  1.5636  3.0740  0.3664
   17bbb     C2  497   2.291   2.018   4.634 -0.4136  0.1265 -0.0900
   17bbb     H3  498   2.259   2.034   4.530 -0.2708 -0.1468 -0.1782
   17bbb     H4  499   2.383   2.076   4.641 -0.2098 -0.3169  1.1127
   17bbb     C3  500   2.207   1.782   4.613 -0.0208 -0.0375  0.3216
   17bbb     H5  501   2.107   1.817   4.641 -0.2879  0.2245 -0.8817
   17bbb     H6  502   2.212   1.687   4.667  0.7011 -0.9156 -1.2088
   17bbb     C4  503   2.215   1.750   4.461  0.0643  0.6602 -0.1603
   17bbb     H7  504   2.322   1.733   4.441  0.0935 -0.8125  1.0698
   17bbb     H8  505   2.172   1.834   4.405 -0.5963  1.2627  1.2051
   17bbb     C5  506   2.486   1.679   4.673 -0.4512 -0.1399 -0.5023
   17bbb     H9  507   2.424   1.608   4.616 -0.7141 -0.5120  0.2281
   17bbb    H10  508   2.456   1.655   4.776 -0.3742 -0.3819 -0.5357
   17bbb     C6  509   2.194   2.084   4.731 -0.1111  0.4485 -0.4782
   17bbb    H11  510   2.225   2.184   4.763  0.4221 -0.6029  2.7208
   17bbb    H12  511   2.195   2.040   4.832 -1.2221  4.0850  1.2697
   17bbb     C7  512   2.134   1.618   4.423 -0.5609 -0.4320  0.4760
   17bbb    H13  513   2.161   1.598   4.319  0.0362 -0.0404  0.5507
   17bbb    H14  514   2.025   1.627   4.428 -0.6184 -0.9126  0.1786
   17bbb     C8  515   2.041   2.096   4.696 -0.3589  0.5179  0.0034
   17bbb    H15  516   2.025   1.991   4.669  0.5605 -0.0193  1.4475
   17bbb    H16  517   2.027   2.157   4.606 -2.4763  1.5528  0.9710
   17bbb     C9  518   2.637   1.644   4.653 -0.5107 -0.1337  0.1406
   17bbb    H17  519   2.653   1.537   4.670  1.1891  0.0306 -0.3003
   17bbb    H18  520   2.698   1.695   4.729 -2.2691  0.2523  1.3625
   17bbb     O1  521   2.183   1.501   4.495  0.0509 -0.2588  0.6016
   18bbb     N1  522   2.568   0.222   4.857  0.6711 -0.1977  0.1018
   18bbb     C1  523   2.708   0.265   4.825 -0.4689  0.5414  0.2363
   18bbb     H1  524   2.711   0.357   4.764  0.0479 -0.5883 -1.5165
   18bbb     H2  525   2.759   0.193   4.760 -0.3747  2.2225 -1.6620
   18bbb     C2  526   2.559   0.097   4.932  0.2217 -0.0586 -0.0583
   18bbb     H3  527   2.455   0.062   4.942  0.3376 -0.7455 -1.0424
   18bbb     H4  528   2.603   0.107   5.032  0.3075 -2.6250  0.2476
   18bbb     C3  529   2.469   0.319   4.902  0.4174  0.6525 -0.3243
   18bbb     H5  530   2.487   0.352   5.005 -0.8620 -0.3460  0.2457
   18bbb     H6  531   2.376   0.262   4.897  0.5215  0.4415  0.1401
   18bbb     C4  532   2.454   0.441   4.811 -0.6755 -0.3753 -0.0237
   18bbb     H7  533   2.489   0.414   4.711  0.0015  1.8712 -0.4477
   18bbb     H8  534   2.510   0.524   4.853  0.8790 -2.5665  2.4960
   18bbb     C5  535   2.797   0.295   4.951 -0.2938 -0.0199  0.3922
   18bbb     H9  536   2.824   0.210   5.015  0.3478 -0.5880 -0.6066
   18bbb    H10  537   2.729   0.355   5.014  0.4019 -0.6612  1.8013
   18bbb     C6  538   2.640  -0.019   4.866 -0.2631  0.6346 -0.3976
   18bbb    H11  539   2.626  -0.110   4.926 -0.1602  1.2148  0.5319
   18bbb    H12  540   2.743   0.016   4.876  0.0310 -0.2316 -0.3298
   18bbb     C7  541   2.312   0.488   4.794  0.5995  0.0413  0.7795
   18bbb    H13  542   2.319   0.580   4.735 -0.2218 -0.8784 -0.8122
   18bbb    H14  543   2.273   0.502   4.896 -1.5464  0.1672 -0.0063
   18bbb     C8  544   2.609  -0.055   4.719 -0.1991 -0.4793 -0.2749
   18bbb    H15  545   2.664   0.019   4.660 -0.0448 -0.5600 -0.2334
   18bbb    H16  546   2.502  -0.040   4.700 -0.0771 -0.8750 -1.3609
   18bbb     C9  547   2.927   0.372   4.913  0.5974  0.5182  1.3218
   18bbb    H17  548   3.005   0.295   4.923  0.4570  0.1759 -0.0197
   18bbb    H18  549   2.957   0.447   4.988  1.4816  1.7214 -0.1806
   18bbb     O1  550   2.234   0.380   4.738  0.4841  0.5042  0.2394
   19bbb     N1  551   1.751  -0.587   4.236 -0.2811  0.0847  0.7051
   19bbb     C1  552   1.601  -0.605   4.233  0.4829  0.0331 -0.1833
   19bbb     H1  553   1.565  -0.622   4.335  2.1307  0.1135  0.4578
   19bbb     H2  554   1.570  -0.695   4.179 -2.4861  0.0785  1.2644
   19bbb     C2  555   1.816  -0.719   4.232 -0.0975 -0.3835  0.0861
   19bbb     H3  556   1.764  -0.779   4.157  1.6384  0.4246 -1.8913
   19bbb     H4  557   1.807  -0.766   4.330 -0.7811  1.5871  1.0234
   19bbb     C3  558   1.800  -0.489   4.334 -0.0587 -0.0694  0.2329
   19bbb     H5  559   1.732  -0.402   4.330 -1.1532 -0.9192 -0.1294
   19bbb     H6  560   1.899  -0.470   4.293  0.0339 -1.9456 -0.5068
   19bbb     C4  561   1.799  -0.535   4.483  0.1202  0.7193 -0.1127
   19bbb     H7  562   1.837  -0.637   4.495  0.7977  1.1107  1.2883
   19bbb     H8  563   1.691  -0.549   4.501  0.0088 -2.2135 -2.3217
   19bbb     C5  564   1.516  -0.492   4.172  0.0856 -1.0113  0.5518
   19bbb     H9  565   1.497  -0.413   4.246  0.0406 -1.4213  0.9790
   19bbb    H10  566   1.415  -0.528   4.153 -1.2819  2.4441  0.5548
   19bbb     C6  567   1.964  -0.714   4.187  0.8770 -0.0871  0.6785
   19bbb    H11  568   2.024  -0.654   4.257  0.7381  0.0813  0.6551
   19bbb    H12  569   1.972  -0.655   4.095  2.0097  0.9768  1.4234
   19bbb     C7  570   1.871  -0.435   4.572  0.3819 -1.0176  0.0874
   19bbb    H13  571   1.971  -0.416   4.530 -1.0362  0.2529 -2.9814
   19bbb    H14  572   1.869  -0.457   4.679  0.4981  0.5474  0.4426
   19bbb     C8  573   2.018  -0.855   4.174  0.8595  0.2824 -0.1207
   19bbb    H15  574   2.127  -0.853   4.157  0.7331  0.1027 -0.9902
   19bbb    H16  575   1.967  -0.898   4.087  0.4741 -2.6470  1.4348
   19bbb     C9  576   1.581  -0.431   4.045 -0.2859  0.2922  0.8358
   19bbb    H17  577   1.592  -0.512   3.972  0.6252  0.2295  1.0307
   19bbb    H18  578   1.684  -0.399   4.064  0.3156 -1.9585  1.7234
   19bbb     O1  579   1.789  -0.308   4.568 -1.0741  0.3042 -0.1940
   20bbb     N1  580   1.325   0.460   6.417  0.0485  0.2612 -0.1979
   20bbb     C1  581   1.296   0.373   6.544 -0.1519  0.5496  0.9706
   20bbb     H1  582   1.266   0.270   6.520  0.7633  0.7548 -1.3030
   20bbb     H2  583   1.206   0.405   6.597 -3.4260 -3.0871 -1.7527
   20bbb     C2  584   1.341   0.604   6.451  0.1018 -0.1873 -0.6772
   20bbb     H3  585   1.347   0.659   6.356 -0.1032 -0.2971 -0.7549
   20bbb     H4  586   1.426   0.615   6.519  1.2808 -4.3490 -1.2361
   20bbb     C3  587   1.428   0.405   6.329  0.0319 -0.2038  0.5703
   20bbb     H5  588   1.526   0.387   6.374 -0.1696  0.9104  1.5210
   20bbb     H6  589   1.441   0.475   6.246  0.0828 -0.5820  0.2527
   20bbb     C4  590   1.385   0.270   6.269  0.2222  0.6401  0.4236
   20bbb     H7  591   1.278   0.266   6.250  0.5475  0.2883 -1.4985
   20bbb     H8  592   1.417   0.203   6.350  1.3426  2.3141  1.4440
   20bbb     C5  593   1.413   0.357   6.643 -0.4495 -0.1696  0.5844
   20bbb     H9  594   1.371   0.359   6.744  1.6677  0.8762  1.4961
   20bbb    H10  595   1.471   0.448   6.660  1.1233 -1.3055  1.4945
   20bbb     C6  596   1.222   0.660   6.535 -0.5891 -0.0475 -0.3687
   20bbb    H11  597   1.233   0.617   6.635  2.8637 -0.2839 -0.7029
   20bbb    H12  598   1.128   0.626   6.492 -0.0707 -1.3651 -0.5190
   20bbb     C7  599   1.459   0.241   6.135 -0.5238  0.6853 -0.3040
   20bbb    H13  600   1.560   0.282   6.131  0.9152 -2.5969 -0.3197
   20bbb    H14  601   1.401   0.285   6.053  1.1718  0.8069 -1.4797
   20bbb     C8  602   1.235   0.812   6.533 -0.7863  0.0013  0.1868
   20bbb    H15  603   1.250   0.847   6.430 -3.2149  2.4179  0.5327
   20bbb    H16  604   1.323   0.837   6.594 -1.5230  1.2324  0.8031
   20bbb     C9  605   1.504   0.231   6.620 -0.0561  0.0801 -0.3875
   20bbb    H17  606   1.552   0.231   6.521 -2.1277  0.8518 -1.4498
   20bbb    H18  607   1.448   0.137   6.621  1.1210 -0.6471 -0.6939
   20bbb     O1  608   1.461   0.099   6.124 -0.2574 -0.4149 -0.1846
   21bbb     N1  609   0.579  -0.358   6.133 -0.1416  0.3023  0.0819
   21bbb     C1  610   0.638  -0.471   6.050 -0.4578 -0.2529 -0.3613
   21bbb     H1  611   0.597  -0.475   5.948  1.2597 -1.8162 -1.0612
   21bbb     H2  612   0.610  -0.569   6.092  2.8889 -0.9627  0.5452
   21bbb     C2  613   0.444  -0.383   6.184 -0.1509 -0.0658  0.4166
   21bbb     H3  614   0.418  -0.313   6.265  1.0712  0.3795  0.4441
   21bbb     H4  615   0.443  -0.482   6.230 -0.1767  0.2752  1.1759
   21bbb     C3  616   0.607  -0.229   6.060  0.2010 -0.3775  0.6344
   21bbb     H5  617   0.541  -0.215   5.973  0.6580  2.3621  0.6388
   21bbb     H6  618   0.714  -0.225   6.035  0.8446  0.0668  3.1186
   21bbb     C4  619   0.582  -0.114   6.159  0.1981  0.3728  0.0753
   21bbb     H7  620   0.486  -0.114   6.213 -0.2903  0.2652 -0.7693
   21bbb     H8  621   0.571  -0.024   6.097  2.4822  0.1669 -0.7073
   21bbb     C5  622   0.795  -0.472   6.037 -0.1721 -0.6993 -0.2748
   21bbb     H9  623   0.846  -0.465   6.134  1.4181  0.4780 -1.1324
   21bbb    H10  624   0.829  -0.385   5.978 -1.4740 -0.4069 -0.6347
   21bbb     C6  625   0.339  -0.376   6.071 -0.2856 -0.0546 -0.4749
   21bbb    H11  626   0.385  -0.422   5.983  0.7683 -0.1420  0.1065
   21bbb    H12  627   0.324  -0.272   6.039  0.0942 -0.5176 -2.2368
   21bbb     C7  628   0.692  -0.090   6.265  0.1555 -0.4158  0.0138
   21bbb    H13  629   0.729  -0.181   6.313  2.1177  0.3201  0.0068
   21bbb    H14  630   0.656  -0.011   6.333  2.4716  2.1894 -1.5558
   21bbb     C8  631   0.214  -0.461   6.103 -0.4746  0.7302  0.8818
   21bbb    H15  632   0.255  -0.559   6.130  1.4357  1.2327 -0.0804
   21bbb    H16  633   0.159  -0.470   6.009  1.9494  3.0205 -0.8665
   21bbb     C9  634   0.829  -0.600   5.967  0.0292 -0.5656 -0.1117
   21bbb    H17  635   0.767  -0.614   5.878 -0.1464  1.8540 -0.4389
   21bbb    H18  636   0.814  -0.680   6.041 -1.1876 -0.1509  0.1127
   21bbb     O1  637   0.804  -0.044   6.194 -0.4960  0.4779 -0.1506
   22bbb     N1  638   1.832   0.600   7.205  0.2228  0.3544 -0.0744
   22bbb     C1  639   1.836   0.477   7.290  0.0442 -0.1284 -0.6691
   22bbb     H1  640   1.942   0.472   7.316  1.4277  1.4131 -4.9880
   22bbb     H2  641   1.805   0.388   7.234  1.4536 -0.2563 -1.2716
   22bbb     C2  642   1.956   0.624   7.121 -0.9128 -0.3631 -0.3769
   22bbb     H3  643   1.951   0.717   7.064  1.9885  0.8740  1.1745
   22bbb     H4  644   1.965   0.539   7.052 -0.5964 -2.3175  1.9503
   22bbb     C3  645   1.705   0.628   7.135 -0.1736  0.2140  0.1104
   22bbb     H5  646   1.708   0.732   7.099  1.7712 -0.4556 -1.9442
   22bbb     H6  647   1.622   0.624   7.206 -0.1029  1.6887  0.3034
   22bbb     C4  648   1.668   0.531   7.015  0.1944 -0.5521  0.7504
   22bbb     H7  649   1.661   0.425   7.039 -1.8061 -0.4531  0.7919
   22bbb     H8  650   1.744   0.542   6.937 -0.3365  1.5169  0.4494
   22bbb     C5  651   1.741   0.499   7.414 -0.1776  0.4438 -0.1051
   22bbb     H9  652   1.645   0.545   7.386 -0.2627  0.1888 -0.2413
   22bbb    H10  653   1.787   0.575   7.477 -1.0333  0.8898 -0.0106
   22bbb     C6  654   2.089   0.636   7.200 -0.1346  0.9789 -0.5732
   22bbb    H11  655   2.115   0.544   7.254 -0.7174  0.4783 -1.1377
   22bbb    H12  656   2.085   0.711   7.281  1.5068  2.2738 -1.6309
   22bbb     C7  657   1.529   0.572   6.956 -0.0121  0.0921 -0.5487
   22bbb    H13  658   1.453   0.534   7.026 -0.7570  0.1482 -1.3117
   22bbb    H14  659   1.518   0.520   6.859  1.4931  0.5060 -0.9630
   22bbb     C8  660   2.197   0.690   7.112  0.0395 -0.4478  0.4820
   22bbb    H15  661   2.186   0.794   7.080 -0.9037 -0.2722  1.3298
   22bbb    H16  662   2.192   0.634   7.018 -3.0084  0.5310 -0.0437
   22bbb     C9  663   1.720   0.369   7.505 -0.1627 -0.7550  0.0799
   22bbb    H17  664   1.806   0.340   7.567  0.4962 -2.8355 -1.6575
   22bbb    H18  665   1.707   0.284   7.437  1.3392 -1.6496  0.8637
   22bbb     O1  666   1.521   0.711   6.932 -0.3798 -0.3698  0.2759
   23bbb     N1  667   1.984   1.443   7.661  0.4692  0.0573 -0.2391
   23bbb     C1  668   1.898   1.538   7.740  0.0764  0.0496 -0.5850
   23bbb     H1  669   1.849   1.487   7.824 -2.6128  0.2762 -1.9300
   23bbb     H2  670   1.819   1.570   7.672  1.2426 -0.1649 -2.0925
   23bbb     C2  671   2.104   1.408   7.740 -0.2168  0.2434  1.7035
   23bbb     H3  672   2.165   1.496   7.766 -0.5381  1.2628 -0.7501
   23bbb     H4  673   2.168   1.342   7.678  2.3627  2.1139  2.2011
   23bbb     C3  674   2.023   1.495   7.527  0.1405  0.5030 -0.4464
   23bbb     H5  675   2.085   1.418   7.481  1.3853  0.1208  1.7104
   23bbb     H6  676   2.084   1.585   7.540  2.5197 -0.6969 -2.5094
   23bbb     C4  677   1.903   1.530   7.437 -0.0979  0.0882  0.5431
   23bbb     H7  678   1.952   1.574   7.350  1.2635  0.5494  1.4979
   23bbb     H8  679   1.833   1.605   7.475 -1.2681 -0.3799 -0.6219
   23bbb     C5  680   1.957   1.673   7.786  0.2486  0.5410  0.4548
   23bbb     H9  681   1.888   1.755   7.760 -0.9765 -0.4200  0.5963
   23bbb    H10  682   2.045   1.691   7.722 -0.2094  1.1845 -0.0153
   23bbb     C6  683   2.083   1.325   7.867 -0.1031 -0.6192  0.2243
   23bbb    H11  684   2.023   1.236   7.840 -1.1052  0.1941 -0.3010
   23bbb    H12  685   2.016   1.379   7.935  0.1838 -2.2001  1.8214
   23bbb     C7  686   1.831   1.399   7.393 -0.9259 -0.8730  0.2557
   23bbb    H13  687   1.747   1.370   7.458 -2.3324 -0.7032 -1.4380
   23bbb    H14  688   1.902   1.315   7.391  1.0541  0.7610 -0.8393
   23bbb     C8  689   2.223   1.291   7.925 -0.3557 -0.4881  0.2759
   23bbb    H15  690   2.262   1.207   7.866  0.9130 -0.6763  1.3209
   23bbb    H16  691   2.200   1.257   8.026  0.1857 -0.7623  0.3106
   23bbb     C9  692   1.996   1.678   7.939  0.3574  0.1732 -0.0402
   23bbb    H17  693   2.087   1.619   7.955  0.0127 -0.4619 -0.3672
   23bbb    H18  694   1.906   1.637   7.986  0.1109 -0.0540 -0.7052
   23bbb     O1  695   1.777   1.420   7.268 -0.0175  0.4115 -0.1358
   24bbb     N1  696   2.426   0.706   5.772 -0.0887 -0.4863 -0.1220
   24bbb     C1  697   2.559   0.705   5.715  0.1571  0.2583 -0.4585
   24bbb     H1  698   2.591   0.604   5.684  2.3720  1.2809 -1.8033
   24bbb     H2  699   2.635   0.734   5.788 -0.1566 -1.5698  0.6569
   24bbb     C2  700   2.315   0.675   5.679  1.5730 -0.2925 -0.8919
   24bbb     H3  701   2.278   0.758   5.619 -0.7988 -1.3001 -0.9621
   24bbb     H4  702   2.231   0.647   5.745  0.9991  0.1009 -1.4463
   24bbb     C3  703   2.398   0.821   5.867  0.5958 -0.3795  0.0813
   24bbb     H5  704   2.489   0.847   5.922  0.9417  3.7542 -2.0967
   24bbb     H6  705   2.323   0.793   5.943 -0.5331  0.6789 -0.5954
   24bbb     C4  706   2.341   0.947   5.797  0.1849  0.4241  0.0494
   24bbb     H7  707   2.232   0.936   5.800  0.3010 -0.7320  0.3931
   24bbb     H8  708   2.369   0.958   5.692  0.8294 -2.0190 -0.1003
   24bbb     C5  709   2.579   0.792   5.588 -0.3190  0.0503  0.6704
   24bbb     H9  710   2.569   0.898   5.615  0.8562  0.3046  0.1487
   24bbb    H10  711   2.501   0.776   5.511  0.9274  0.8618 -0.8287
   24bbb     C6  712   2.343   0.540   5.595  0.0646  0.3733  0.2870
   24bbb    H11  713   2.369   0.458   5.663  0.1427  0.3161  0.1871
   24bbb    H12  714   2.426   0.556   5.526 -0.1558 -0.0726 -0.0824
   24bbb     C7  715   2.395   1.075   5.865 -0.4792 -0.6416 -0.3547
   24bbb    H13  716   2.390   1.062   5.974  0.8435 -0.0449 -0.1927
   24bbb    H14  717   2.336   1.164   5.843  1.2387  0.4983 -0.5673
   24bbb     C8  718   2.208   0.495   5.530 -0.4944 -0.1079  0.1286
   24bbb    H15  719   2.130   0.472   5.604 -0.1596 -0.2593  0.4337
   24bbb    H16  720   2.228   0.405   5.471 -1.6062 -0.0924 -0.3124
   24bbb     C9  721   2.714   0.762   5.524 -1.0629 -1.1181 -0.8452
   24bbb    H17  722   2.790   0.797   5.595 -1.1821 -0.9876 -0.7840
   24bbb    H18  723   2.725   0.818   5.430 -0.6660  0.4939  0.1332
   24bbb     O1  724   2.531   1.100   5.840  0.0351 -0.3620 -0.1845
   25bbb     N1  725   3.297   1.465   6.257  0.4102  0.5070  0.2309
   25bbb     C1  726   3.222   1.414   6.373 -1.3342 -0.8015 -0.8478
   25bbb     H1  727   3.114   1.421   6.356 -1.8261 -1.5314  1.6038
   25bbb     H2  728   3.248   1.469   6.464  0.0453 -0.2695 -1.5246
   25bbb     C2  729   3.298   1.612   6.263 -0.4047  0.0891  0.1034
   25bbb     H3  730   3.358   1.653   6.180  1.7090 -1.4202  0.8151
   25bbb     H4  731   3.345   1.649   6.355  2.9010  3.5356 -2.6242
   25bbb     C3  732   3.271   1.403   6.129  0.3883  0.2846  0.4405
   25bbb     H5  733   3.171   1.429   6.092 -0.5904 -0.8037  2.1789
   25bbb     H6  734   3.267   1.294   6.141  0.1384 -0.0732 -2.2906
   25bbb     C4  735   3.381   1.443   6.030  0.2105  0.7546 -0.2807
   25bbb     H7  736   3.481   1.447   6.075  0.4944 -0.8901 -0.7282
   25bbb     H8  737   3.362   1.543   5.989  1.6764  0.9307 -0.5826
   25bbb     C5  738   3.265   1.266   6.410  0.7773 -0.4740  0.3188
   25bbb     H9  739   3.375   1.268   6.411  0.7800  1.4523  0.9216
   25bbb    H10  740   3.229   1.199   6.332  0.8185  2.5664 -2.5390
   25bbb     C6  741   3.159   1.682   6.232  0.2138  0.2649 -0.3695
   25bbb    H11  742   3.091   1.669   6.317  2.1847  0.4856  1.3169
   25bbb    H12  743   3.108   1.631   6.149  3.1541 -1.1571 -1.4291
   25bbb     C7  744   3.402   1.337   5.922 -0.4345  0.5155 -0.6896
   25bbb    H13  745   3.384   1.238   5.966 -2.2783  1.3637  0.5934
   25bbb    H14  746   3.503   1.358   5.883 -1.0233  0.1608 -2.5298
   25bbb     C8  747   3.169   1.836   6.203 -0.7722  0.2939  0.1261
   25bbb    H15  748   3.218   1.881   6.291 -0.8252  0.9207 -0.1618
   25bbb    H16  749   3.074   1.891   6.196 -1.1931 -0.6327 -2.0446
   25bbb     C9  750   3.217   1.222   6.549  0.0718 -0.0246 -0.5413
   25bbb    H17  751   3.219   1.113   6.557  4.1680 -0.0035  1.2578
   25bbb    H18  752   3.109   1.242   6.558  0.0105 -0.5451 -0.0653
   25bbb     O1  753   3.313   1.361   5.815 -0.6233 -0.0162 -0.1839
   26bbb     N1  754   0.538   0.332   6.407  0.5229 -0.4094  0.0911
   26bbb     C1  755   0.459   0.208   6.355 -0.3385  0.0934  0.2982
   26bbb     H1  756   0.508   0.132   6.417  1.5496  1.2168  0.2614
   26bbb     H2  757   0.486   0.185   6.251 -0.5666  1.9685 -0.2030
   26bbb     C2  758   0.685   0.313   6.402 -0.4408 -0.3242 -0.1308
   26bbb     H3  759   0.726   0.319   6.300  0.3643 -1.6198  0.0895
   26bbb     H4  760   0.707   0.209   6.430  0.0742  0.1303  1.2213
   26bbb     C3  761   0.488   0.458   6.354  0.2842 -0.0036  0.3457
   26bbb     H5  762   0.545   0.545   6.388 -0.0687  1.0632 -1.6495
   26bbb     H6  763   0.382   0.471   6.379 -0.3973  0.2815 -2.3404
   26bbb     C4  764   0.482   0.483   6.200 -0.1158  0.4836  0.6920
   26bbb     H7  765   0.448   0.400   6.138  0.4079 -0.2749  1.3883
   26bbb     H8  766   0.584   0.501   6.163  0.5362 -2.8677  0.5931
   26bbb     C5  767   0.303   0.209   6.369  0.6312  0.3751  0.2701
   26bbb     H9  768   0.266   0.297   6.316  0.5851  0.2658  0.1196
   26bbb    H10  769   0.282   0.219   6.477  1.7171 -0.3255  0.5654
   26bbb     C6  770   0.765   0.416   6.493 -0.8106 -0.6129  0.1109
   26bbb    H11  771   0.724   0.418   6.595  0.3254  0.1268  0.5774
   26bbb    H12  772   0.756   0.520   6.457  1.2535 -0.6294 -0.5800
   26bbb     C7  773   0.378   0.604   6.165  0.0447  0.3504 -0.0815
   26bbb    H13  774   0.276   0.564   6.178  0.2070 -0.3192 -0.7457
   26bbb    H14  775   0.406   0.637   6.064  0.1545 -0.1420 -0.2146
   26bbb     C8  776   0.913   0.380   6.518 -0.0304 -0.0604  0.4024
   26bbb    H15  777   0.972   0.460   6.564 -2.6936  2.2055  0.1663
   26bbb    H16  778   0.954   0.347   6.421  1.9813  1.6798  0.5700
   26bbb     C9  779   0.240   0.078   6.316 -0.5611  0.0844 -0.5114
   26bbb    H17  780   0.139   0.062   6.355 -0.7835 -1.4798 -1.6055
   26bbb    H18  781   0.302  -0.002   6.358  3.0117  2.1088 -1.4958
   26bbb     O1  782   0.395   0.713   6.262 -0.0818 -0.1553 -0.2542
   27bbb     N1  783   0.278   1.660   5.727  0.3697 -0.1377  0.0622
   27bbb     C1  784   0.341   1.645   5.592  0.4818  0.2692  0.0269
   27bbb     H1  785   0.394   1.735   5.559  0.6880  0.6066  1.2276
   27bbb     H2  786   0.265   1.634   5.514  0.6759  1.2714 -0.3184
   27bbb     C2  787   0.381   1.694   5.827 -0.0316 -0.5157  0.1417
   27bbb     H3  788   0.452   1.770   5.791 -1.8820  1.2165 -0.0166
   27bbb     H4  789   0.442   1.607   5.853  0.4597  0.2049  1.4356
   27bbb     C3  790   0.206   1.540   5.771 -0.3321 -0.0818  0.3125
   27bbb     H5  791   0.184   1.542   5.878 -4.0700 -2.8004 -0.2256
   27bbb     H6  792   0.261   1.446   5.761 -1.2337 -0.7488  1.4294
   27bbb     C4  793   0.086   1.514   5.674  0.1519 -0.3076 -0.7840
   27bbb     H7  794   0.119   1.498   5.571  2.0128  1.6583 -0.5467
   27bbb     H8  795   0.017   1.599   5.675  0.8451  0.2740  0.7890
   27bbb     C5  796   0.434   1.523   5.577  0.2088  0.5857 -0.0996
   27bbb     H9  797   0.381   1.427   5.577  0.7139  0.2765  1.3529
   27bbb    H10  798   0.514   1.510   5.650  1.2847  2.2306 -0.9272
   27bbb     C6  799   0.327   1.754   5.957 -0.1243  0.2771  0.4622
   27bbb    H11  800   0.219   1.734   5.968 -0.1963 -0.4852 -1.2692
   27bbb    H12  801   0.324   1.863   5.951 -1.3686  0.3660  1.9812
   27bbb     C7  802  -0.007   1.392   5.720  1.1054 -0.4670 -0.4834
   27bbb    H13  803  -0.079   1.376   5.639  1.3992  2.6797 -1.5117
   27bbb    H14  804  -0.059   1.416   5.813  0.6601 -2.2935 -0.2205
   27bbb     C8  805   0.396   1.706   6.086 -0.6315  0.1217 -0.3395
   27bbb    H15  806   0.505   1.709   6.077 -0.7584  1.8471 -1.6954
   27bbb    H16  807   0.382   1.598   6.104 -2.4398  0.5296  1.0054
   27bbb     C9  808   0.511   1.528   5.438 -0.1765 -0.4180 -0.6175
   27bbb    H17  809   0.431   1.525   5.363 -0.9123  2.4763 -0.0722
   27bbb    H18  810   0.566   1.433   5.439 -1.8766 -1.4827  1.1333
   27bbb     O1  811   0.070   1.275   5.735  0.7132 -0.0153 -0.1912
   28bbb     N1  812   1.387   1.088   7.528 -1.0096  0.2164  0.5327
   28bbb     C1  813   1.311   1.030   7.639 -0.0473  0.3232  0.5852
   28bbb     H1  814   1.260   0.942   7.600  0.6622 -0.2954  1.0263
   28bbb     H2  815   1.248   1.107   7.686  3.1118  3.0280  0.7941
   28bbb     C2  816   1.477   1.201   7.559  0.2527  0.3336 -0.4553
   28bbb     H3  817   1.537   1.219   7.469  2.1587 -2.5646  0.1084
   28bbb     H4  818   1.542   1.162   7.638 -0.9932 -1.0123 -0.0552
   28bbb     C3  819   1.289   1.104   7.413 -0.5180 -0.8798 -1.0305
   28bbb     H5  820   1.204   1.169   7.439  0.4520  1.3748 -3.0238
   28bbb     H6  821   1.240   1.008   7.397  1.5383 -2.0290 -0.8180
   28bbb     C4  822   1.348   1.157   7.285 -0.4061  0.0075  0.4872
   28bbb     H7  823   1.279   1.122   7.207  0.0359  1.2449 -0.4863
   28bbb     H8  824   1.445   1.111   7.263 -0.4925  0.0041  0.1056
   28bbb     C5  825   1.396   0.972   7.756  0.8821  0.2609 -0.4329
   28bbb     H9  826   1.339   0.910   7.828  0.2274  2.0483  0.6471
   28bbb    H10  827   1.410   1.059   7.821 -1.2165  0.5662 -0.2974
   28bbb     C6  828   1.399   1.327   7.628  0.2172 -0.6343  0.2264
   28bbb    H11  829   1.368   1.292   7.727  2.3693 -1.6167  0.6045
   28bbb    H12  830   1.306   1.352   7.575  1.1706  1.8440 -0.4328
   28bbb     C7  831   1.361   1.310   7.268  0.4912 -0.0971 -0.5027
   28bbb    H13  832   1.389   1.338   7.166  2.6329  1.6126  0.4887
   28bbb    H14  833   1.434   1.355   7.335 -1.3800  0.4374  1.2864
   28bbb     C8  834   1.491   1.453   7.621 -0.3313  0.3048 -0.2539
   28bbb    H15  835   1.535   1.469   7.522 -1.7821  1.7675 -0.6846
   28bbb    H16  836   1.579   1.424   7.681 -0.5399 -1.8919 -0.9117
   28bbb     C9  837   1.526   0.912   7.726  0.1985  0.0540  0.3458
   28bbb    H17  838   1.579   0.951   7.638 -0.0495  0.8934  0.5626
   28bbb    H18  839   1.505   0.808   7.700  0.3802  0.2877 -0.7617
   28bbb     O1  840   1.230   1.375   7.299 -0.2821  0.2651  0.3974
   29bbb     N1  841   0.624   2.433   7.806 -0.3852 -0.6646 -0.3685
   29bbb     C1  842   0.530   2.375   7.900  0.1230  0.6223  0.4596
   29bbb     H1  843   0.496   2.277   7.866 -2.2247  1.8309 -0.9949
   29bbb     H2  844   0.445   2.445   7.900 -0.4323 -0.0400  0.2716
   29bbb     C2  845   0.644   2.575   7.837  0.4799  0.1611  0.2029
   29bbb     H3  846   0.732   2.613   7.784 -0.2242  2.2524  0.4140
   29bbb     H4  847   0.666   2.607   7.939 -1.0277 -0.3724  0.7318
   29bbb     C3  848   0.758   2.360   7.808  0.8489  0.5314  0.9048
   29bbb     H5  849   0.813   2.361   7.903  1.3750  0.2274  0.6060
   29bbb     H6  850   0.822   2.420   7.742  0.2904 -0.1740 -0.3005
   29bbb     C4  851   0.749   2.213   7.754  0.3128  0.4880  0.2024
   29bbb     H7  852   0.671   2.153   7.803  2.0288 -1.9467  0.1369
   29bbb     H8  853   0.843   2.163   7.781  0.0367  0.9217  2.1696
   29bbb     C5  854   0.572   2.360   8.050 -0.2989 -0.8609  0.4085
   29bbb     H9  855   0.619   2.451   8.089  4.7284 -2.1395 -1.8868
   29bbb    H10  856   0.665   2.303   8.057  0.8417  0.8244 -0.4139
   29bbb     C6  857   0.536   2.662   7.774 -0.6533 -0.4346 -0.5197
   29bbb    H11  858   0.452   2.646   7.842 -0.9268  0.8524 -0.5262
   29bbb    H12  859   0.500   2.625   7.677 -2.0139  0.6023 -0.4383
   29bbb     C7  860   0.722   2.206   7.601 -0.3249 -0.1173  0.2520
   29bbb    H13  861   0.793   2.273   7.550 -0.8334  1.7345  1.8564
   29bbb    H14  862   0.617   2.224   7.577 -0.3286 -0.7895 -0.2523
   29bbb     C8  863   0.550   2.817   7.780  1.1011  0.6404  0.4413
   29bbb    H15  864   0.573   2.858   7.879 -0.7090  2.6162  0.1300
   29bbb    H16  865   0.450   2.854   7.752  0.6063 -0.4564  0.6903
   29bbb     C9  866   0.467   2.308   8.148  0.8126  0.0980 -1.4880
   29bbb    H17  867   0.383   2.378   8.151  1.0726  0.4023  1.4753
   29bbb    H18  868   0.508   2.312   8.249  1.6774 -0.0220 -1.8222
   29bbb     O1  869   0.746   2.078   7.549 -0.1912  0.3704 -0.7259
   30bbb     N1  870   3.560   1.799   5.773 -0.0059  0.2912 -0.0858
   30bbb     C1  871   3.612   1.667   5.811 -0.0141 -0.6995 -0.9623
   30bbb     H1  872   3.660   1.617   5.727  1.2809 -1.1703  0.0247
   30bbb     H2  873   3.535   1.594   5.841 -0.9930  0.3411 -0.8709
   30bbb     C2  874   3.664   1.899   5.730  0.8878  0.3447 -0.4336
   30bbb     H3  875   3.736   1.905   5.811 -1.2322  0.7337  1.5269
   30bbb     H4  876   3.615   1.996   5.713 -1.4400 -0.5493  0.6965
   30bbb     C3  877   3.450   1.785   5.680  0.0828 -0.0576  0.3072
   30bbb     H5  878   3.487   1.720   5.600  0.9173  0.9065 -0.1148
   30bbb     H6  879   3.418   1.880   5.636 -1.7408  0.3734  2.4022
   30bbb     C4  880   3.322   1.724   5.744 -0.0304 -0.3713  0.2720
   30bbb     H7  881   3.310   1.770   5.843  2.9675 -0.0396  0.5973
   30bbb     H8  882   3.345   1.617   5.754 -0.3969 -0.5466 -0.6592
   30bbb     C5  883   3.714   1.662   5.923  0.2882 -0.4055 -0.5869
   30bbb     H9  884   3.665   1.711   6.008 -1.8670 -2.0883 -0.7554
   30bbb    H10  885   3.808   1.709   5.892 -0.6362  0.8152 -1.6554
   30bbb     C6  886   3.737   1.851   5.600 -0.2700 -0.2229  0.8303
   30bbb    H11  887   3.678   1.814   5.515  2.5286  1.4739 -2.0539
   30bbb    H12  888   3.803   1.768   5.625  0.6412  0.2219 -0.0555
   30bbb     C7  889   3.199   1.744   5.657  0.4115  0.0211  0.5046
   30bbb    H13  890   3.224   1.722   5.553  0.5992  0.4206  0.4661
   30bbb    H14  891   3.180   1.852   5.661  1.1121  0.1311  3.8384
   30bbb     C8  892   3.831   1.960   5.532  0.1561  0.4261 -0.6323
   30bbb    H15  893   3.861   1.938   5.429 -0.8662  2.5470 -1.4467
   30bbb    H16  894   3.928   1.956   5.584 -0.8016  1.1883  1.3189
   30bbb     C9  895   3.753   1.514   5.960  0.0641  0.3900  0.3198
   30bbb    H17  896   3.667   1.457   5.996 -1.1667  2.0739  0.1768
   30bbb    H18  897   3.826   1.517   6.042 -0.6574 -3.1611  1.2443
   30bbb     O1  898   3.084   1.659   5.695 -0.8749  0.2173 -0.1966
   31bbb     N1  899   3.178   2.197   6.500 -0.3604  0.3144 -0.2709
   31bbb     C1  900   3.216   2.179   6.643  0.3041 -0.0905 -0.8501
   31bbb     H1  901   3.311   2.128   6.659  0.1525 -0.0659  0.2698
   31bbb     H2  902   3.150   2.110   6.698 -2.1653  0.4745 -2.8920
   31bbb     C2  903   3.272   2.271   6.415  0.1944  0.2231 -0.0230
   31bbb     H3  904   3.352   2.202   6.385  2.1101  2.9542 -1.6154
   31bbb     H4  905   3.324   2.351   6.469 -0.3546 -0.2804  1.3115
   31bbb     C3  906   3.106   2.081   6.446 -0.2244 -0.8662 -0.4949
   31bbb     H5  907   3.181   2.002   6.443  0.9886  0.2495 -0.5148
   31bbb     H6  908   3.071   2.109   6.346 -0.2960  1.0032  0.0104
   31bbb     C4  909   2.971   2.033   6.517 -0.8466 -0.3561 -0.4515
   31bbb     H7  910   2.885   2.102   6.514  0.5385  1.6102  1.7489
   31bbb     H8  911   2.984   2.020   6.625  0.2061  3.4690  0.0167
   31bbb     C5  912   3.225   2.318   6.722  0.1733  0.4973  0.1021
   31bbb     H9  913   3.302   2.383   6.681 -1.0499  0.7987 -1.8391
   31bbb    H10  914   3.258   2.303   6.826  0.2173  2.9245  0.5031
   31bbb     C6  915   3.208   2.335   6.294 -0.3668  0.8702  0.1700
   31bbb    H11  916   3.127   2.398   6.334  0.0966  1.2144  0.5614
   31bbb    H12  917   3.165   2.255   6.230  3.8416 -0.1763 -1.6760
   31bbb     C7  918   2.911   1.908   6.452  0.2257 -0.6404  0.3066
   31bbb    H13  919   2.823   1.862   6.499  0.0839 -3.4392 -2.3966
   31bbb    H14  920   2.981   1.824   6.457  1.3868  0.2761 -0.0730
   31bbb     C8  921   3.293   2.423   6.203 -0.0274 -0.7154 -0.4984
   31bbb    H15  922   3.223   2.482   6.144 -1.8068 -2.9785 -0.7889
   31bbb    H16  923   3.351   2.371   6.126  0.6161  0.8348 -1.1095
   31bbb     C9  924   3.096   2.392   6.726 -0.0709 -0.0250 -0.3234
   31bbb    H17  925   3.052   2.403   6.626 -1.8318 -0.5556  0.3376
   31bbb    H18  926   3.111   2.491   6.772 -0.3611  0.1257 -0.5468
   31bbb     O1  927   2.873   1.951   6.316 -0.0669  0.0190  0.5472
   32bbb     N1  928   2.732   2.515   4.631  0.3890 -0.3393 -0.7818
   32bbb     C1  929   2.843   2.502   4.529  0.1711  0.5328 -0.6177
   32bbb     H1  930   2.840   2.592   4.467  3.7221  0.3478 -1.2609
   32bbb     H2  931   2.809   2.425   4.458  0.1249  1.0237 -1.1360
   32bbb     C2  932   2.632   2.626   4.615 -0.6385  0.0101 -0.3748
   32bbb     H3  933   2.534   2.609   4.661 -0.2116  0.1540  0.6243
   32bbb     H4  934   2.613   2.630   4.507  2.0585  2.0969 -0.8908
   32bbb     C3  935   2.776   2.488   4.771 -0.1235  0.4319  0.3581
   32bbb     H5  936   2.850   2.563   4.804  0.3610  0.5206 -0.8860
   32bbb     H6  937   2.819   2.388   4.776  2.1357  1.3666  1.2485
   32bbb     C4  938   2.656   2.489   4.872 -0.5245 -0.4520 -0.2862
   32bbb     H7  939   2.573   2.423   4.846 -2.3787  1.2337  1.0361
   32bbb     H8  940   2.610   2.588   4.882 -1.6824 -0.9942 -0.0614
   32bbb     C5  941   2.989   2.481   4.577 -0.5520  0.0794 -0.0035
   32bbb     H9  942   2.987   2.407   4.658 -3.0309 -0.9021 -0.8877
   32bbb    H10  943   3.025   2.577   4.618  0.8316 -0.0140 -0.9350
   32bbb     C6  944   2.690   2.766   4.651 -0.5662  0.2996 -0.3870
   32bbb    H11  945   2.782   2.779   4.594 -1.0561  0.5111 -1.1528
   32bbb    H12  946   2.709   2.773   4.758 -2.2398 -0.4006 -0.0073
   32bbb     C7  947   2.721   2.439   5.009  0.9503 -0.2575 -0.1209
   32bbb    H13  948   2.804   2.505   5.038  0.8575 -0.5510  0.8557
   32bbb    H14  949   2.761   2.338   4.993  1.4740 -0.0231 -0.3075
   32bbb     C8  950   2.576   2.865   4.617 -0.9078 -0.2964 -0.5251
   32bbb    H15  951   2.553   2.852   4.511  0.1788  1.1308 -0.9736
   32bbb    H16  952   2.609   2.969   4.633 -1.0798 -0.0203 -1.8878
   32bbb     C9  953   3.092   2.423   4.475  0.0290 -1.2229  0.0658
   32bbb    H17  954   3.191   2.406   4.521  0.1048 -0.1205  0.3556
   32bbb    H18  955   3.107   2.499   4.398  0.5333 -0.9036  0.4666
   32bbb     O1  956   2.623   2.453   5.117  0.2776 -0.3854 -0.1629
   33bbb     N1  957   1.682   2.268   6.049  0.1425 -0.0921  0.5529
   33bbb     C1  958   1.618   2.399   6.070  0.4559 -0.4267 -0.2514
   33bbb     H1  959   1.697   2.475   6.068 -0.6782  0.7751 -1.7272
   33bbb     H2  960   1.580   2.399   6.172  0.8126 -1.3838 -0.1043
   33bbb     C2  961   1.604   2.151   6.079  0.3851  0.2887 -0.1120
   33bbb     H3  962   1.676   2.069   6.092 -0.1067  0.0765  1.5466
   33bbb     H4  963   1.552   2.117   5.989  2.1043 -0.1863 -0.9664
   33bbb     C3  964   1.760   2.250   5.922 -0.3906  0.4472  0.3307
   33bbb     H5  965   1.697   2.258   5.833 -1.6800  1.2110  1.2818
   33bbb     H6  966   1.801   2.148   5.919 -0.9022  0.1714  1.9438
   33bbb     C4  967   1.876   2.354   5.907 -0.5167 -0.5949 -0.1575
   33bbb     H7  968   1.940   2.338   5.995  2.2918 -0.1759 -1.9819
   33bbb     H8  969   1.839   2.457   5.911  0.9410 -0.0760  0.5076
   33bbb     C5  970   1.513   2.459   5.974 -0.3117  0.4056  0.5880
   33bbb     H9  971   1.423   2.400   5.958 -0.9589  1.8781 -1.7955
   33bbb    H10  972   1.570   2.476   5.882 -0.0300  0.8176  0.8313
   33bbb     C6  973   1.516   2.159   6.203 -0.4312  0.6688 -0.3612
   33bbb    H11  974   1.451   2.245   6.187 -1.7844  0.0562  1.5510
   33bbb    H12  975   1.584   2.181   6.286 -1.4291  0.0950  0.6281
   33bbb     C7  976   1.953   2.334   5.772 -0.5970  0.4551  0.0384
   33bbb    H13  977   1.879   2.328   5.691  1.0087  1.1728 -1.5649
   33bbb    H14  978   2.001   2.236   5.784  0.9120  1.3136  1.4780
   33bbb     C8  979   1.431   2.030   6.239 -0.6787  0.2574  0.0485
   33bbb    H15  980   1.505   1.949   6.253  0.7826  1.8631  2.3512
   33bbb    H16  981   1.386   1.997   6.145  1.1485 -1.4778 -0.2998
   33bbb     C9  982   1.478   2.604   6.013 -0.0466  0.4971  0.0107
   33bbb    H17  983   1.427   2.591   6.110 -1.5539 -1.1482 -0.9371
   33bbb    H18  984   1.402   2.651   5.948  2.0896  1.3811 -1.9836
   33bbb     O1  985   2.053   2.435   5.748 -0.5048 -0.3971 -0.8275
   34bbb     N1  986   1.752   0.022   4.183 -0.0649 -0.1381  0.5179
   34bbb     C1  987   1.619   0.024   4.114 -0.4313 -0.0529 -0.5898
   34bbb     H1  988   1.635  -0.004   4.009 -0.4891  3.0962 -1.5329
   34bbb     H2  989   1.589   0.129   4.104  1.3082  0.3946 -1.5077
   34bbb     C2  990   1.836  -0.102   4.176  0.2272  0.2002 -0.4330
   34bbb     H3  991   1.774  -0.184   4.213  0.2161  0.6253  0.5136
   34bbb     H4  992   1.918  -0.104   4.249 -0.8063 -2.6303  0.7819
   34bbb     C3  993   1.838   0.144   4.140 -0.2818 -0.0713  0.1122
   34bbb     H5  994   1.774   0.234   4.149  2.7811  2.6359 -2.5456
   34bbb     H6  995   1.869   0.133   4.036 -1.8155  1.7602 -0.5939
   34bbb     C4  996   1.965   0.162   4.224 -0.2342  0.0801  0.0863
   34bbb     H7  997   2.042   0.086   4.209 -1.1070 -1.4673  2.7526
   34bbb     H8  998   1.934   0.157   4.329  0.8940 -0.0488  0.4226
   34bbb     C5  999   1.514  -0.062   4.186 -0.0331  0.3491 -0.8585
   34bbb     H9 1000   1.564  -0.153   4.222  0.8458  1.7156  1.6016
   34bbb    H10 1001   1.428  -0.096   4.127 -0.4916  0.5226 -0.3018
   34bbb     C6 1002   1.908  -0.147   4.044 -0.2010  0.0722 -0.7858
   34bbb    H11 1003   1.997  -0.083   4.034  0.5561 -0.3700  2.2232
   34bbb    H12 1004   1.847  -0.138   3.953  0.7244 -1.5696 -1.6091
   34bbb     C7 1005   2.036   0.298   4.203 -0.5819 -0.0912  0.0797
   34bbb    H13 1006   1.967   0.378   4.233 -0.6317 -0.4085  0.8429
   34bbb    H14 1007   2.087   0.297   4.106 -1.3912  2.6124 -0.4455
   34bbb     C8 1008   1.964  -0.294   4.055 -0.3002 -0.1657  0.6140
   34bbb    H15 1009   1.891  -0.367   4.094 -3.0521  1.6342 -0.8575
   34bbb    H16 1010   2.053  -0.294   4.119 -0.3093 -0.0790  0.6259
   34bbb     C9 1011   1.462  -0.003   4.316 -0.1231  0.1047 -0.3806
   34bbb    H17 1012   1.400   0.084   4.292  0.4154  0.2865 -1.1427
   34bbb    H18 1013   1.540   0.038   4.381  0.3724 -3.2523  1.3962
   34bbb     O1 1014   2.136   0.290   4.303 -0.1019 -0.4441  0.8225
   35bbb     N1 1015   3.219  -0.038   4.788 -0.5947  0.3089 -0.1762
   35bbb     C1 1016   3.177  -0.039   4.934 -0.2384 -0.3140  0.3745
   35bbb     H1 1017   3.079  -0.089   4.943 -1.9225  2.6852 -0.0011
   35bbb     H2 1018   3.178   0.061   4.979  0.6729 -0.8659  1.6103
   35bbb     C2 1019   3.363  -0.013   4.754  0.5070  0.3497 -0.2913
   35bbb     H3 1020   3.380  -0.024   4.646  1.4358 -1.0970 -0.0250
   35bbb     H4 1021   3.431  -0.073   4.815  1.1828  0.1331 -1.2262
   35bbb     C3 1022   3.121   0.043   4.708 -0.5275 -0.1093  0.1869
   35bbb     H5 1023   3.117   0.147   4.744  1.5066 -0.4325  1.4922
   35bbb     H6 1024   3.022   0.001   4.731 -1.3447  0.6132 -1.7793
   35bbb     C4 1025   3.142   0.025   4.559 -0.3537 -0.0327  0.2798
   35bbb     H7 1026   3.192  -0.069   4.533  0.0309  0.1166  0.4857
   35bbb     H8 1027   3.203   0.107   4.519 -1.1094 -0.2378 -1.3830
   35bbb     C5 1028   3.273  -0.121   5.030 -0.2902  0.2357 -0.3743
   35bbb     H9 1029   3.370  -0.071   5.023 -1.5022  2.7960  0.0096
   35bbb    H10 1030   3.279  -0.222   4.988  1.4645  0.2993 -0.3266
   35bbb     C6 1031   3.400   0.130   4.790  0.3715  0.4458  0.5615
   35bbb    H11 1032   3.404   0.142   4.899  2.7245  0.2256  0.5520
   35bbb    H12 1033   3.329   0.201   4.745 -2.5239 -3.8303 -2.4292
   35bbb     C7 1034   3.012   0.039   4.478  0.0340 -0.6721  0.0606
   35bbb    H13 1035   2.946  -0.045   4.504 -0.3339 -0.2589  0.4860
   35bbb    H14 1036   3.026   0.040   4.369 -1.4853  0.3660 -0.1551
   35bbb     C8 1037   3.537   0.157   4.731  0.8226  0.0670  0.4877
   35bbb    H15 1038   3.538   0.267   4.727 -1.8179  0.1056 -1.1870
   35bbb    H16 1039   3.532   0.120   4.628 -1.9650  0.2562  0.4857
   35bbb     C9 1040   3.234  -0.116   5.184  0.2436 -0.3150  0.1470
   35bbb    H17 1041   3.127  -0.095   5.197  0.4999 -0.5812  3.6592
   35bbb    H18 1042   3.270  -0.023   5.231 -2.6751  0.3913  1.2027
   35bbb     O1 1043   2.942   0.162   4.504  0.3560  0.8238 -0.3121
   36bbb     N1 1044   1.674   1.934   5.064  0.4821 -0.0680  0.1702
   36bbb     C1 1045   1.675   1.787   5.082  0.0453  0.2188 -0.0708
   36bbb     H1 1046   1.777   1.757   5.108 -0.0088  0.9312  1.0169
   36bbb     H2 1047   1.649   1.741   4.985 -1.6730  2.0156 -0.5322
   36bbb     C2 1048   1.699   2.022   5.183 -0.0145  0.3660  0.0152
   36bbb     H3 1049   1.611   2.011   5.248 -1.6646  2.7483 -1.6512
   36bbb     H4 1050   1.692   2.128   5.159 -2.4070  0.3742  0.4868
   36bbb     C3 1051   1.758   1.979   4.948 -0.0704  0.1996  0.2469
   36bbb     H5 1052   1.749   1.907   4.866  1.7780  1.1682 -0.8707
   36bbb     H6 1053   1.867   1.979   4.965 -0.1683  3.4857  1.4701
   36bbb     C4 1054   1.726   2.118   4.886  0.1415  0.5318  0.7513
   36bbb     H7 1055   1.758   2.203   4.947  0.4059  0.3131  0.9199
   36bbb     H8 1056   1.620   2.121   4.858  1.1699 -1.4416 -4.6038
   36bbb     C5 1057   1.590   1.740   5.203 -0.3342 -0.2122 -0.4203
   36bbb     H9 1058   1.488   1.778   5.195 -0.3939 -0.1008  0.6675
   36bbb    H10 1059   1.635   1.772   5.298 -4.2768 -0.6300  1.7743
   36bbb     C6 1060   1.831   2.005   5.253  0.4967  0.4510  0.7125
   36bbb    H11 1061   1.915   2.028   5.186  0.5432 -1.0553  0.2221
   36bbb    H12 1062   1.840   1.901   5.287 -2.1177  0.4283  1.5938
   36bbb     C7 1063   1.821   2.136   4.758  0.0789 -0.5931  0.3708
   36bbb    H13 1064   1.805   2.233   4.709  2.2234  0.4432  1.5652
   36bbb    H14 1065   1.803   2.056   4.685  0.1182 -2.6039  2.4603
   36bbb     C8 1066   1.843   2.094   5.377 -0.2671  0.3281  0.0738
   36bbb    H15 1067   1.850   2.199   5.347 -0.1523  0.0947 -0.7373
   36bbb    H16 1068   1.946   2.078   5.411  0.2135  0.1861 -1.3927
   36bbb     C9 1069   1.596   1.593   5.219  0.1000  0.0095  0.0450
   36bbb    H17 1070   1.697   1.572   5.254  0.2433 -0.8072 -0.8268
   36bbb    H18 1071   1.582   1.537   5.126  3.3715 -1.1638  0.1409
   36bbb     O1 1072   1.954   2.139   4.797  0.0826  0.1420 -0.6946
   37bbb     N1 1073   2.719   1.724   4.107 -0.0177  0.7685  0.1119
   37bbb     C1 1074   2.593   1.798   4.146 -0.3448  0.2148 -0.1159
   37bbb     H1 1075   2.575   1.883   4.079  2.8087  1.3907  0.3959
   37bbb     H2 1076   2.608   1.837   4.247 -1.4083 -0.1105  0.1835
   37bbb     C2 1077   2.818   1.812   4.046  0.5412  0.0327  0.1554
   37bbb     H3 1078   2.856   1.885   4.119  1.0705  1.1901 -1.2277
   37bbb     H4 1079   2.769   1.871   3.968 -0.5598  1.3073  1.7238
   37bbb     C3 1080   2.764   1.644   4.222 -0.4853  0.3505 -0.2875
   37bbb     H5 1081   2.821   1.552   4.203 -1.9911 -0.8880  0.9857
   37bbb     H6 1082   2.674   1.604   4.269 -0.9210 -0.2370 -1.5687
   37bbb     C4 1083   2.831   1.724   4.336 -0.1233 -0.3096  0.0628
   37bbb     H7 1084   2.776   1.818   4.351  1.1920  0.8592 -2.0072
   37bbb     H8 1085   2.939   1.743   4.325  0.1052 -0.4448  1.7056
   37bbb     C5 1086   2.466   1.697   4.145  0.3992 -0.3412  0.1692
   37bbb     H9 1087   2.386   1.740   4.207  0.4239 -0.0789  0.0195
   37bbb    H10 1088   2.490   1.599   4.187  0.7577  0.5483  2.1424
   37bbb     C6 1089   2.934   1.740   3.972  0.3985 -0.1402 -0.1404
   37bbb    H11 1090   3.004   1.706   4.048  1.6886  2.0578 -0.2497
   37bbb    H12 1091   2.980   1.807   3.899  0.5283 -1.8004 -1.6575
   37bbb     C7 1092   2.810   1.668   4.478  0.6686  0.2347 -0.2077
   37bbb    H13 1093   2.868   1.721   4.554  2.2031 -2.0619  0.3227
   37bbb    H14 1094   2.838   1.562   4.485 -0.9702 -0.1275  2.7499
   37bbb     C8 1095   2.895   1.613   3.901 -0.8725  0.6643  0.0968
   37bbb    H15 1096   2.806   1.636   3.841 -0.3777  0.6798 -0.6502
   37bbb    H16 1097   2.865   1.540   3.977 -1.6885 -0.9413 -1.6704
   37bbb     C9 1098   2.419   1.675   3.999  0.0148 -0.3455 -0.3151
   37bbb    H17 1099   2.500   1.624   3.944 -0.2733 -0.2290 -0.8619
   37bbb    H18 1100   2.393   1.771   3.951 -0.2041 -0.8784 -1.2828
   37bbb     O1 1101   2.670   1.678   4.517 -0.3333 -0.0900  0.2263
   38bbb     N1 1102   3.052  -0.350   4.549  0.7626 -0.4085 -0.1968
   38bbb     C1 1103   3.099  -0.341   4.694  0.6828 -0.7322  1.2355
   38bbb     H1 1104   3.031  -0.282   4.756 -1.1507 -1.0334 -0.3951
   38bbb     H2 1105   3.198  -0.292   4.689  0.1168  0.3239 -0.5003
   38bbb     C2 1106   3.147  -0.377   4.445  0.9732 -0.2607 -0.1539
   38bbb     H3 1107   3.159  -0.486   4.438  0.7198 -0.3065  0.0875
   38bbb     H4 1108   3.233  -0.324   4.487 -1.1493  1.7080  2.0656
   38bbb     C3 1109   2.910  -0.397   4.523  0.4480 -0.1256  0.0394
   38bbb     H5 1110   2.897  -0.506   4.521  0.0988 -0.1531  1.8034
   38bbb     H6 1111   2.867  -0.352   4.432 -0.9848 -0.2794  0.6059
   38bbb     C4 1112   2.805  -0.366   4.635  0.0659 -0.5556 -0.8187
   38bbb     H7 1113   2.841  -0.380   4.738 -0.2124 -1.7478 -0.8623
   38bbb     H8 1114   2.715  -0.429   4.622 -0.6121  0.1241  0.3791
   38bbb     C5 1115   3.123  -0.482   4.752  0.2993 -0.1072 -0.4208
   38bbb     H9 1116   3.190  -0.550   4.698  0.4195 -1.0449  0.8475
   38bbb    H10 1117   3.027  -0.534   4.743  0.6266 -1.1058  1.3289
   38bbb     C6 1118   3.122  -0.324   4.302  0.5344 -0.3531  0.4364
   38bbb    H11 1119   3.117  -0.214   4.305  4.5535 -0.0016 -0.4663
   38bbb    H12 1120   3.031  -0.372   4.264  0.5723 -0.9229  1.0505
   38bbb     C7 1121   2.762  -0.215   4.616 -0.2170 -0.1472 -0.1147
   38bbb    H13 1122   2.757  -0.187   4.510 -0.2386 -1.1352 -0.3795
   38bbb    H14 1123   2.839  -0.144   4.649 -1.1358  0.5719  0.5476
   38bbb     C8 1124   3.239  -0.376   4.208 -0.0484 -0.0231 -0.0594
   38bbb    H15 1125   3.259  -0.483   4.219  0.6705  0.1243  0.1083
   38bbb    H16 1126   3.329  -0.320   4.235  1.1350 -2.0660  0.4206
   38bbb     C9 1127   3.168  -0.476   4.903  0.5393  0.1525  0.1161
   38bbb    H17 1128   3.095  -0.406   4.946  1.2944  2.7059 -2.4161
   38bbb    H18 1129   3.265  -0.424   4.911  0.2037  1.3340 -2.3811
   38bbb     O1 1130   2.638  -0.196   4.689  0.1847 -0.2528  0.2919
   39bbb     N1 1131   3.100   0.816   4.534 -0.5324  0.1999 -0.4674
   39bbb     C1 1132   3.080   0.926   4.635  0.0025  0.6692 -0.6715
   39bbb     H1 1133   2.975   0.918   4.667  0.8032 -0.9555  1.8385
   39bbb     H2 1134   3.097   1.022   4.585 -0.9209  0.7247 -0.8977
   39bbb     C2 1135   3.015   0.833   4.413 -0.1239 -0.3289 -0.3003
   39bbb     H3 1136   3.008   0.939   4.385 -1.2221 -0.6924 -1.4960
   39bbb     H4 1137   2.910   0.803   4.430 -0.5859  0.4142 -1.7103
   39bbb     C3 1138   3.124   0.677   4.584 -0.3368  0.3591 -0.4432
   39bbb     H5 1139   3.204   0.678   4.659  2.4389  2.8382 -3.1687
   39bbb     H6 1140   3.152   0.616   4.498  1.3860 -0.5792  0.7274
   39bbb     C4 1141   2.999   0.615   4.651  0.2839  0.9847 -0.1894
   39bbb     H7 1142   2.917   0.613   4.578  0.4197  0.4464 -0.3310
   39bbb     H8 1143   2.974   0.689   4.728  0.2113  0.5350  0.2249
   39bbb     C5 1144   3.172   0.925   4.763 -0.2910  0.4391  0.2183
   39bbb     H9 1145   3.155   0.828   4.810  0.4565 -1.2105 -2.6499
   39bbb    H10 1146   3.149   1.015   4.821 -0.8718  0.7497 -0.4702
   39bbb     C6 1147   3.068   0.763   4.280 -0.1974  0.3418  0.1124
   39bbb    H11 1148   3.177   0.778   4.272 -0.5276  1.9805 -2.3825
   39bbb    H12 1149   3.034   0.815   4.190 -1.1555 -2.5058 -1.3160
   39bbb     C7 1150   3.047   0.482   4.728 -0.3978  0.1444  0.3788
   39bbb    H13 1151   3.120   0.499   4.809 -1.0657 -0.9759  1.2412
   39bbb    H14 1152   3.087   0.398   4.670  0.9002 -0.6982  2.3641
   39bbb     C8 1153   3.017   0.614   4.252 -0.2334 -0.2315 -0.0215
   39bbb    H15 1154   2.912   0.598   4.280 -0.1681 -2.2510 -0.7806
   39bbb    H16 1155   3.070   0.542   4.315 -1.4306 -0.4840  0.7297
   39bbb     C9 1156   3.322   0.934   4.735  0.2174 -0.3371  0.1357
   39bbb    H17 1157   3.344   1.029   4.685 -1.1499  0.5859  1.2269
   39bbb    H18 1158   3.363   0.851   4.675  1.3305  0.1402  0.2128
   39bbb     O1 1159   2.924   0.436   4.785 -0.3044  0.0801 -0.2661
   40bbb     N1 1160   2.024  -1.281   4.544 -0.3295 -0.0550  0.3129
   40bbb     C1 1161   2.093  -1.281   4.678 -0.1178  0.4185 -0.3152
   40bbb     H1 1162   2.067  -1.185   4.725 -3.3111  0.6328 -2.2383
   40bbb     H2 1163   2.201  -1.295   4.664 -0.1939 -1.6588  0.8354
   40bbb     C2 1164   1.874  -1.298   4.556 -0.6986 -0.6430  0.0345
   40bbb     H3 1165   1.820  -1.229   4.622  1.5658  0.4712  0.8320
   40bbb     H4 1166   1.848  -1.389   4.611 -0.6755 -2.4563 -2.7668
   40bbb     C3 1167   2.076  -1.172   4.463 -0.2710 -0.6992 -0.5394
   40bbb     H5 1168   2.043  -1.180   4.358 -0.0237 -2.2584 -0.5146
   40bbb     H6 1169   2.186  -1.171   4.461 -0.1831  2.7963 -0.3234
   40bbb     C4 1170   2.040  -1.027   4.503 -0.1004  0.3647 -0.9751
   40bbb     H7 1171   2.101  -1.000   4.591 -0.1106 -2.7275  0.1008
   40bbb     H8 1172   1.935  -1.018   4.534  0.0632 -0.4393 -0.1389
   40bbb     C5 1173   2.070  -1.396   4.770  0.2195  0.7203 -0.4559
   40bbb     H9 1174   2.104  -1.495   4.737 -1.2818 -0.0655  0.2513
   40bbb    H10 1175   1.963  -1.414   4.786  0.0849  0.3032 -1.6971
   40bbb     C6 1176   1.801  -1.310   4.422  0.5752  0.2965  0.3186
   40bbb    H11 1177   1.828  -1.400   4.365 -0.2423  0.5121 -0.4539
   40bbb    H12 1178   1.822  -1.231   4.348  0.6336  0.7924  0.8597
   40bbb     C7 1179   2.076  -0.917   4.400 -0.6874 -0.1657 -0.2260
   40bbb    H13 1180   2.183  -0.922   4.377 -0.2292 -4.4847  1.8108
   40bbb    H14 1181   2.048  -0.822   4.447  0.9225 -0.2783  1.0282
   40bbb     C8 1182   1.646  -1.315   4.435 -0.1488  1.0395  0.1779
   40bbb    H15 1183   1.625  -1.347   4.538  1.2969 -0.6588  0.0111
   40bbb    H16 1184   1.603  -1.395   4.374  0.5537  0.0300  0.9625
   40bbb     C9 1185   2.139  -1.357   4.911 -0.5939  0.4290  0.3203
   40bbb    H17 1186   2.090  -1.273   4.962  0.3975  1.7088 -0.7716
   40bbb    H18 1187   2.243  -1.325   4.897 -0.6176  1.1927  1.7029
   40bbb     O1 1188   1.989  -0.940   4.287  0.2064 -0.0493  0.2450
   41bbb     N1 1189   1.352   0.020   3.680 -0.6515 -0.6466 -0.1969
   41bbb     C1 1190   1.394   0.092   3.560  0.5804  0.2714  0.5979
   41bbb     H1 1191   1.448   0.023   3.494  3.2258  1.1949  1.6732
   41bbb     H2 1192   1.465   0.174   3.577  0.2668  0.3635  1.4989
   41bbb     C2 1193   1.291   0.108   3.782 -0.7785 -0.0603 -0.0926
   41bbb     H3 1194   1.265   0.046   3.869  1.0032 -0.3506  0.2666
   41bbb     H4 1195   1.205   0.167   3.749 -1.3504 -0.4183  0.7139
   41bbb     C3 1196   1.470  -0.064   3.727  0.3218  0.5047  1.0275
   41bbb     H5 1197   1.542   0.011   3.761  0.3514  1.6833 -1.4699
   41bbb     H6 1198   1.515  -0.115   3.642  1.7400  0.9437  1.4862
   41bbb     C4 1199   1.429  -0.166   3.830  0.0548  0.0518 -0.2448
   41bbb     H7 1200   1.358  -0.237   3.787  3.0358 -2.2153 -1.7471
   41bbb     H8 1201   1.387  -0.113   3.916  1.3392  1.5368 -0.4877
   41bbb     C5 1202   1.267   0.142   3.487 -0.6574  0.0428  0.1672
   41bbb     H9 1203   1.232   0.230   3.543  0.8253  0.9361 -0.2708
   41bbb    H10 1204   1.188   0.066   3.499 -0.7536 -0.2312 -1.8394
   41bbb     C6 1205   1.389   0.216   3.834 -0.2655 -0.2952  0.0364
   41bbb    H11 1206   1.431   0.280   3.755  0.8861 -0.3613  0.5724
   41bbb    H12 1207   1.478   0.162   3.869 -0.7850 -1.4301 -0.3360
   41bbb     C7 1208   1.547  -0.246   3.884  0.0095  0.5979  0.0609
   41bbb    H13 1209   1.627  -0.179   3.917  1.9166 -0.2931 -2.4551
   41bbb    H14 1210   1.579  -0.315   3.805 -1.5421 -1.9986  1.5419
   41bbb     C8 1211   1.327   0.297   3.958  0.2600  0.2003 -0.0724
   41bbb    H15 1212   1.311   0.223   4.037  1.5758 -2.5481 -2.1830
   41bbb    H16 1213   1.228   0.340   3.939  0.9051  1.5032 -0.6277
   41bbb     C9 1214   1.292   0.162   3.335 -0.6050  0.1747 -0.6370
   41bbb    H17 1215   1.201   0.187   3.279 -0.3413  0.1552 -1.0714
   41bbb    H18 1216   1.335   0.071   3.291 -2.8039 -0.5693 -1.3770
   41bbb     O1 1217   1.497  -0.323   3.993 -0.1021  0.7280 -1.0596
   42bbb     N1 1218   1.055   1.126   6.939  0.8045  0.5573 -0.1344
   42bbb     C1 1219   1.073   1.260   6.989  0.0925  0.2333 -0.3759
   42bbb     H1 1220   1.098   1.261   7.096 -1.4480 -3.8556  0.1997
   42bbb     H2 1221   0.981   1.317   6.974  0.0987  0.1607 -0.6966
   42bbb     C2 1222   1.015   1.017   7.033 -0.6529  0.2847  0.4018
   42bbb     H3 1223   1.081   1.028   7.121  0.1721  4.1358 -0.5228
   42bbb     H4 1224   1.030   0.916   6.994 -0.4352  0.5496 -0.2103
   42bbb     C3 1225   0.968   1.128   6.823 -0.0138  0.4960  0.3014
   42bbb     H5 1226   0.990   1.219   6.766 -0.2318  0.4510  0.1438
   42bbb     H6 1227   0.863   1.141   6.853  1.0229  1.0196  4.3248
   42bbb     C4 1228   0.990   1.012   6.729 -0.0612  0.2962 -0.0182
   42bbb     H7 1229   0.929   1.035   6.641  1.9396  0.3900 -1.4448
   42bbb     H8 1230   0.948   0.918   6.767  2.0265 -1.8012 -2.5200
   42bbb     C5 1231   1.188   1.336   6.910  0.0948  0.4139  0.0700
   42bbb     H9 1232   1.182   1.320   6.801 -0.6517  6.3468 -1.1330
   42bbb    H10 1233   1.285   1.306   6.950  0.7566  1.6988 -0.4983
   42bbb     C6 1234   0.872   1.022   7.079 -0.5588  0.4164  0.1980
   42bbb    H11 1235   0.819   0.973   6.997  2.4231 -2.2262 -0.3356
   42bbb    H12 1236   0.850   1.129   7.091 -0.2904  0.1964  3.9088
   42bbb     C7 1237   1.127   0.980   6.674  0.6664  1.0198  0.5128
   42bbb    H13 1238   1.201   0.957   6.752 -0.0159 -0.0837  0.8672
   42bbb    H14 1239   1.165   1.055   6.604  3.0451 -0.5382  0.0007
   42bbb     C8 1240   0.864   0.960   7.223  0.1861 -0.0388  0.1738
   42bbb    H15 1241   0.940   0.881   7.224  0.2437 -0.0237 -1.3259
   42bbb    H16 1242   0.766   0.916   7.245 -0.2387  0.3616 -0.8457
   42bbb     C9 1243   1.182   1.491   6.918 -0.1198  0.0822  0.1024
   42bbb    H17 1244   1.177   1.521   7.024  0.3391 -0.1518  0.1932
   42bbb    H18 1245   1.096   1.527   6.861  0.6894  0.4030 -0.9492
   42bbb     O1 1246   1.114   0.853   6.595  0.7076 -0.3299  0.3574
   43bbb     N1 1247   1.908   0.060   7.052 -0.1140 -0.2341  0.1079
   43bbb     C1 1248   1.991   0.185   7.055  0.1686 -0.3287  0.3643
   43bbb     H1 1249   2.003   0.228   7.155 -1.7747 -0.7151  0.8062
   43bbb     H2 1250   1.936   0.271   7.015  1.9792  0.9143  0.4489
   43bbb     C2 1251   1.958  -0.056   7.128 -0.4251  0.3065 -0.3853
   43bbb     H3 1252   2.059  -0.083   7.096  0.5065 -1.5293  3.4252
   43bbb     H4 1253   1.894  -0.145   7.122 -0.6514  0.3485  0.9156
   43bbb     C3 1254   1.846   0.028   6.922  0.8038 -0.1223 -0.4276
   43bbb     H5 1255   1.780  -0.059   6.931 -0.9276  1.2368  0.5560
   43bbb     H6 1256   1.915  -0.014   6.847  0.6425  0.3675 -0.8485
   43bbb     C4 1257   1.769   0.148   6.875  0.1241  0.4066  0.1526
   43bbb     H7 1258   1.835   0.225   6.834 -0.0880  0.8873  0.7067
   43bbb     H8 1259   1.719   0.196   6.960  0.7249 -0.5303  1.0654
   43bbb     C5 1260   2.119   0.178   6.980 -0.6443  0.2198  0.5212
   43bbb     H9 1261   2.105   0.148   6.876 -0.4537 -1.5687  0.9814
   43bbb    H10 1262   2.170   0.087   7.013 -0.7024 -0.1273 -0.3364
   43bbb     C6 1263   1.985  -0.031   7.273  0.9765  0.1880 -0.1627
   43bbb    H11 1264   2.068   0.041   7.275  0.6359  0.6398 -1.1503
   43bbb    H12 1265   2.011  -0.128   7.316 -0.7889 -1.1828 -1.9818
   43bbb     C7 1266   1.668   0.113   6.766 -0.2336 -0.2759 -0.3783
   43bbb    H13 1267   1.606   0.038   6.817  2.3893 -1.0794  1.8530
   43bbb    H14 1268   1.708   0.059   6.679 -0.8246  1.2320 -1.6470
   43bbb     C8 1269   1.856   0.024   7.346  0.0209  0.7779 -0.4176
   43bbb    H15 1270   1.766  -0.036   7.328 -0.1957  0.3493  1.8292
   43bbb    H16 1271   1.835   0.122   7.302  1.1882  0.8150 -0.9149
   43bbb     C9 1272   2.212   0.307   6.993  0.1643  0.7544  0.2670
   43bbb    H17 1273   2.251   0.303   7.096 -0.7161  2.9986  0.7536
   43bbb    H18 1274   2.159   0.401   6.975 -1.3167  0.0984  0.9614
   43bbb     O1 1275   1.600   0.235   6.730 -0.4433  0.0999 -0.0525
   44bbb     N1 1276  -0.231  -0.185   6.343  0.0926  0.2067  0.0758
   44bbb     C1 1277  -0.248  -0.212   6.485 -0.8511  0.1911  0.0490
   44bbb     H1 1278  -0.241  -0.319   6.509 -1.8416 -0.0647 -0.7417
   44bbb     H2 1279  -0.344  -0.172   6.522 -0.2717  0.4600  1.3319
   44bbb     C2 1280  -0.236  -0.038   6.306 -0.3341 -0.2827  0.3526
   44bbb     H3 1281  -0.144   0.011   6.337 -0.4277  0.0495  0.1116
   44bbb     H4 1282  -0.319   0.004   6.365  0.3463 -1.7538  2.4681
   44bbb     C3 1283  -0.110  -0.261   6.279 -0.1049 -0.3413 -0.3642
   44bbb     H5 1284  -0.016  -0.206   6.293  0.6291 -1.8733  0.9766
   44bbb     H6 1285  -0.125  -0.258   6.170  1.0033  0.4164 -0.5112
   44bbb     C4 1286  -0.096  -0.412   6.319 -0.1010 -0.2301  0.2193
   44bbb     H7 1287  -0.193  -0.463   6.311 -1.5294  2.1006  1.5090
   44bbb     H8 1288  -0.058  -0.427   6.421 -0.8028 -0.6418  0.4232
   44bbb     C5 1289  -0.138  -0.145   6.574  0.3512  0.3459  0.7972
   44bbb     H9 1290  -0.150  -0.036   6.571 -1.1950  0.1941 -0.7889
   44bbb    H10 1291  -0.042  -0.173   6.530 -1.4340 -1.2552 -2.5188
   44bbb     C6 1292  -0.249  -0.014   6.154 -0.0254 -0.2325 -0.3873
   44bbb    H11 1293  -0.349  -0.052   6.130  0.2357 -1.1162 -0.0969
   44bbb    H12 1294  -0.185  -0.089   6.105  0.8587  0.2865 -0.0500
   44bbb     C7 1295  -0.006  -0.467   6.208 -0.2502 -0.4228 -0.1947
   44bbb    H13 1296  -0.060  -0.461   6.113  0.6898  1.1198 -0.6723
   44bbb    H14 1297   0.005  -0.573   6.231 -0.3597 -0.4708 -0.3696
   44bbb     C8 1298  -0.231   0.136   6.101 -0.7125  0.0146 -0.4632
   44bbb    H15 1299  -0.267   0.207   6.175 -1.8427 -1.7170  0.7134
   44bbb    H16 1300  -0.288   0.144   6.008 -0.2239 -0.0585 -0.7778
   44bbb     C9 1301  -0.137  -0.204   6.718 -1.1442 -0.0687  0.3784
   44bbb    H17 1302  -0.125  -0.312   6.706  0.1220 -0.0141  0.9527
   44bbb    H18 1303  -0.228  -0.178   6.773 -0.3428  0.0628  1.7041
   44bbb     O1 1304   0.132  -0.411   6.211 -0.2231  0.2057  0.3139
   45bbb     N1 1305   1.361  -0.548   5.750  0.5958  0.3599 -0.2364
   45bbb     C1 1306   1.470  -0.592   5.839 -0.4171 -0.6695 -0.6164
   45bbb     H1 1307   1.565  -0.612   5.788 -0.0187  0.7240 -0.4681
   45bbb     H2 1308   1.441  -0.685   5.890 -0.4266  0.0619  0.7447
   45bbb     C2 1309   1.395  -0.436   5.656  0.2267 -0.0218 -0.0865
   45bbb     H3 1310   1.471  -0.369   5.698 -0.1775  1.3439 -1.4477
   45bbb     H4 1311   1.310  -0.367   5.643 -0.4838 -1.1694 -1.9597
   45bbb     C3 1312   1.223  -0.539   5.801 -0.4728  0.4163  0.0948
   45bbb     H5 1313   1.162  -0.507   5.715  1.1274 -1.2437 -1.7560
   45bbb     H6 1314   1.215  -0.475   5.889 -0.0760  0.3094  0.2086
   45bbb     C4 1315   1.176  -0.682   5.848 -0.4696  0.9069 -0.1044
   45bbb     H7 1316   1.225  -0.727   5.935  1.6008  1.3787 -0.9721
   45bbb     H8 1317   1.209  -0.752   5.770 -0.1068  0.8583  0.0917
   45bbb     C5 1318   1.498  -0.491   5.955 -0.0674  0.2870  0.5372
   45bbb     H9 1319   1.439  -0.532   6.037 -1.8442  1.2878 -0.1832
   45bbb    H10 1320   1.445  -0.396   5.941  0.0092  0.0373 -1.9306
   45bbb     C6 1321   1.427  -0.488   5.515  0.3655 -0.7069 -0.7534
   45bbb    H11 1322   1.427  -0.400   5.448  0.2184  1.0398  1.4219
   45bbb    H12 1323   1.352  -0.560   5.479  1.0446 -0.9215 -1.7786
   45bbb     C7 1324   1.022  -0.706   5.857 -0.3938  1.0235  0.0996
   45bbb    H13 1325   1.010  -0.800   5.911  0.7043  0.4662 -0.5783
   45bbb    H14 1326   0.974  -0.726   5.760  0.5599  3.3169 -0.9207
   45bbb     C8 1327   1.567  -0.559   5.513  0.2877 -0.3495 -0.4063
   45bbb    H15 1328   1.553  -0.653   5.568  0.2946 -0.1397 -0.0381
   45bbb    H16 1329   1.635  -0.495   5.571 -0.8974  1.1832 -0.6460
   45bbb     C9 1330   1.649  -0.482   5.986  0.3028  0.3826  0.3871
   45bbb    H17 1331   1.701  -0.454   5.893 -0.2696 -1.9085 -0.6996
   45bbb    H18 1332   1.677  -0.581   6.024 -0.6819 -0.5128 -1.0917
   45bbb     O1 1333   0.962  -0.593   5.925  0.5517 -0.3609 -0.2349
   46bbb     N1 1334   2.751   0.655   7.321  0.6530 -0.2484  0.0371
   46bbb     C1 1335   2.789   0.514   7.326  0.3537  0.1021  0.2253
   46bbb     H1 1336   2.897   0.501   7.315  0.6733 -0.5810  3.2211
   46bbb     H2 1337   2.734   0.465   7.245  1.5653  1.0439 -1.2268
   46bbb     C2 1338   2.799   0.740   7.432 -0.5616  0.4118 -0.1995
   46bbb     H3 1339   2.744   0.709   7.522  0.6708 -0.5758  0.2464
   46bbb     H4 1340   2.779   0.847   7.423  1.8615  1.0658  1.0630
   46bbb     C3 1341   2.614   0.700   7.284 -0.2199  0.1980  0.7945
   46bbb     H5 1342   2.621   0.808   7.267 -2.3456  0.4011  0.9634
   46bbb     H6 1343   2.542   0.658   7.355  0.0451 -2.1695 -0.2579
   46bbb     C4 1344   2.574   0.648   7.149  0.0538  0.0316 -0.2461
   46bbb     H7 1345   2.557   0.541   7.166  1.8471 -0.1523  0.6064
   46bbb     H8 1346   2.656   0.661   7.078 -0.5883  0.1314 -0.9782
   46bbb     C5 1347   2.741   0.446   7.454 -0.2478 -0.1874 -0.9459
   46bbb     H9 1348   2.633   0.463   7.458 -0.1472  0.2769  0.2635
   46bbb    H10 1349   2.790   0.494   7.540  2.1020 -0.6795 -1.9234
   46bbb     C6 1350   2.959   0.726   7.459  0.3680 -0.2599 -0.2335
   46bbb    H11 1351   3.001   0.779   7.372  0.6555  0.0557  0.0982
   46bbb    H12 1352   2.992   0.621   7.457  1.3838  0.0576 -1.1748
   46bbb     C7 1353   2.441   0.710   7.100 -0.0974  0.3249 -0.0281
   46bbb    H13 1354   2.411   0.677   6.999 -1.6743 -2.2171  1.1889
   46bbb    H14 1355   2.461   0.818   7.098  1.5607  0.0486 -0.5952
   46bbb     C8 1356   3.013   0.808   7.576  0.6839 -0.3508 -0.4953
   46bbb    H15 1357   3.025   0.915   7.552  1.5436 -0.6939 -1.6418
   46bbb    H16 1358   3.118   0.782   7.596  1.7785  3.5384 -0.2514
   46bbb     C9 1359   2.777   0.294   7.454 -1.5563 -0.1052 -0.4655
   46bbb    H17 1360   2.884   0.296   7.431 -1.3098 -0.0075  0.6034
   46bbb    H18 1361   2.737   0.243   7.366 -0.1342 -1.6627 -0.2713
   46bbb     O1 1362   2.329   0.671   7.178  0.1248  0.4432  0.3392
   47bbb     N1 1363   1.267   0.430   7.886 -0.2117 -0.2336  0.1223
   47bbb     C1 1364   1.147   0.411   7.789  0.2651  0.0357  0.6492
   47bbb     H1 1365   1.154   0.307   7.756 -0.7295  0.9779 -2.8938
   47bbb     H2 1366   1.166   0.470   7.699 -2.2885 -1.3382 -0.8687
   47bbb     C2 1367   1.251   0.529   8.000 -0.3769  0.8467 -0.1128
   47bbb     H3 1368   1.144   0.538   8.024 -0.7786 -2.3525 -0.2988
   47bbb     H4 1369   1.283   0.630   7.971 -0.6762  1.1688  0.6205
   47bbb     C3 1370   1.405   0.389   7.837  0.0265 -0.2011 -0.0881
   47bbb     H5 1371   1.405   0.312   7.759  0.3933 -2.6729  2.1909
   47bbb     H6 1372   1.458   0.339   7.919 -1.5542  2.0645  2.4882
   47bbb     C4 1373   1.484   0.506   7.770  0.4013  1.1435 -1.1138
   47bbb     H7 1374   1.500   0.590   7.838  1.4001  0.7782 -0.8832
   47bbb     H8 1375   1.423   0.541   7.685  1.2813 -1.0371 -2.7281
   47bbb     C5 1376   1.002   0.439   7.835  0.1217 -0.5265 -0.0009
   47bbb     H9 1377   0.937   0.442   7.747 -0.1655 -3.6944  0.0071
   47bbb    H10 1378   1.004   0.542   7.874  1.0621 -1.3591  2.3563
   47bbb     C6 1379   1.311   0.489   8.139 -0.4519  0.0190 -0.0068
   47bbb    H11 1380   1.302   0.380   8.149 -0.7810  0.0909  0.4815
   47bbb    H12 1381   1.249   0.537   8.215 -0.9228  1.5236 -1.2998
   47bbb     C7 1382   1.621   0.453   7.712  0.7583  0.0232 -0.5292
   47bbb    H13 1383   1.672   0.383   7.779 -1.2032  0.1387  1.1823
   47bbb    H14 1384   1.688   0.538   7.694 -0.3131  0.7573 -1.1961
   47bbb     C8 1385   1.460   0.532   8.162  0.2802  0.1369  0.4108
   47bbb    H15 1386   1.516   0.505   8.073  0.7050  1.0413  0.3889
   47bbb    H16 1387   1.495   0.470   8.245 -2.3734  1.2274  2.5085
   47bbb     C9 1388   0.946   0.360   7.953  0.0088  0.6197  0.3994
   47bbb    H17 1389   0.837   0.369   7.963 -0.0347 -1.1778  2.2288
   47bbb    H18 1390   0.991   0.385   8.050  0.4574  0.6261  0.1917
   47bbb     O1 1391   1.598   0.388   7.590  0.0433  0.2394  0.6848
   48bbb     N1 1392   2.460   1.803   7.903 -0.0204 -0.5430  0.0745
   48bbb     C1 1393   2.511   1.894   8.017  0.5958 -0.0731  0.2144
   48bbb     H1 1394   2.547   1.830   8.098 -0.4953  0.6305  1.2914
   48bbb     H2 1395   2.424   1.947   8.059 -0.1565 -1.7793  0.8717
   48bbb     C2 1396   2.408   1.876   7.783  0.4343  0.1257  0.2377
   48bbb     H3 1397   2.377   1.799   7.712 -0.4667 -1.6006  2.3923
   48bbb     H4 1398   2.484   1.943   7.740 -0.4184  1.0583  0.1407
   48bbb     C3 1399   2.362   1.700   7.943  0.5176 -0.1928  0.0898
   48bbb     H5 1400   2.315   1.656   7.854 -1.2575  1.6781  0.0323
   48bbb     H6 1401   2.278   1.751   7.991 -1.1690  0.1076 -2.9559
   48bbb     C4 1402   2.422   1.586   8.032  0.4488  0.6429  0.3911
   48bbb     H7 1403   2.443   1.635   8.128 -1.7669  2.1654  0.1863
   48bbb     H8 1404   2.511   1.537   7.992  0.5729 -0.2289  1.6893
   48bbb     C5 1405   2.619   1.991   7.987 -0.5927  0.8732 -0.2218
   48bbb     H9 1406   2.692   1.956   7.913  1.8697  0.7334  2.1142
   48bbb    H10 1407   2.679   1.989   8.079 -1.4255 -1.3210  0.3347
   48bbb     C6 1408   2.283   1.957   7.825 -0.1237 -0.6910 -0.0383
   48bbb    H11 1409   2.300   2.030   7.905 -0.4264  3.2366 -3.2642
   48bbb    H12 1410   2.197   1.893   7.850 -1.6228  0.9265 -0.8740
   48bbb     C7 1411   2.317   1.471   8.057 -0.4192 -0.3078  0.7401
   48bbb    H13 1412   2.218   1.503   8.089 -0.0546 -0.2275  1.8114
   48bbb    H14 1413   2.366   1.414   8.136  2.8634  2.0923  0.6773
   48bbb     C8 1414   2.231   2.036   7.698  0.1545  0.3911 -0.0423
   48bbb    H15 1415   2.137   2.088   7.721  0.5344  1.0252  0.1026
   48bbb    H16 1416   2.236   1.976   7.607  1.9400  1.1559 -0.4905
   48bbb     C9 1417   2.570   2.130   7.943  0.4182 -0.3377  0.2049
   48bbb    H17 1418   2.498   2.168   8.017 -1.2787  1.4800 -2.2349
   48bbb    H18 1419   2.507   2.111   7.856 -1.1864  2.8421  0.5324
   48bbb     O1 1420   2.308   1.400   7.928  0.1141  0.0700 -0.0778
   49bbb     N1 1421   2.029   2.222   8.110  0.5115 -0.3632  0.5649
   49bbb     C1 1422   1.990   2.257   8.248 -0.0374 -0.2127  0.4904
   49bbb     H1 1423   2.003   2.365   8.259  2.6603 -0.5510  1.3818
   49bbb     H2 1424   2.059   2.211   8.320  3.4227 -0.2328 -2.5422
   49bbb     C2 1425   1.973   2.325   8.008  0.3144  0.3724 -0.2398
   49bbb     H3 1426   2.002   2.424   8.046  0.3568  0.1175  0.4039
   49bbb     H4 1427   1.866   2.301   8.007  0.1026  1.2427  0.6590
   49bbb     C3 1428   2.014   2.081   8.060 -0.0780  0.3138 -0.2315
   49bbb     H5 1429   2.074   2.066   7.969  1.3700 -1.5884  0.9656
   49bbb     H6 1430   1.909   2.073   8.030  0.2037  0.5024 -1.2975
   49bbb     C4 1431   2.063   1.966   8.155 -0.0567  0.3756 -0.8838
   49bbb     H7 1432   2.059   1.995   8.261 -0.5812  1.4235 -1.1758
   49bbb     H8 1433   2.170   1.950   8.135  0.4334  0.7400  1.2349
   49bbb     C5 1434   1.848   2.221   8.285  0.4154  0.5108  0.1466
   49bbb     H9 1435   1.843   2.111   8.287  0.1112  0.5314  1.7001
   49bbb    H10 1436   1.775   2.236   8.206  0.2028 -1.9984 -0.2328
   49bbb     C6 1437   2.025   2.314   7.864  0.2737  0.6237 -0.0028
   49bbb    H11 1438   2.002   2.216   7.818 -0.0766  1.4077 -1.5711
   49bbb    H12 1439   2.134   2.329   7.872  0.3084  0.9117 -0.8609
   49bbb     C7 1440   2.001   1.827   8.126 -0.2697 -0.5657  0.0357
   49bbb    H13 1441   1.902   1.803   8.168 -0.3145 -0.0257  0.2422
   49bbb    H14 1442   2.070   1.757   8.176  0.6885 -0.2942 -0.8805
   49bbb     C8 1443   1.972   2.426   7.772 -0.2410 -0.3735  0.4560
   49bbb    H15 1444   1.997   2.390   7.672 -0.2508  0.4828  0.1419
   49bbb    H16 1445   2.027   2.519   7.792 -0.5306 -0.3117  0.9986
   49bbb     C9 1446   1.800   2.279   8.423  0.6239  0.0230  0.0285
   49bbb    H17 1447   1.886   2.264   8.490 -0.2611 -4.2117  0.5077
   49bbb    H18 1448   1.710   2.236   8.468  0.5796  0.0230 -0.0595
   49bbb     O1 1449   2.017   1.812   7.980  0.8378 -0.5518  0.5780
   50bbb     N1 1450   2.058   0.795   5.064  0.0335 -0.4580 -0.1822
   50bbb     C1 1451   2.082   0.767   4.921 -0.6102 -0.1935 -0.4190
   50bbb     H1 1452   2.014   0.690   4.883 -0.2831 -1.7020  1.8830
   50bbb     H2 1453   2.183   0.727   4.904 -0.1242  1.0334 -0.5110
   50bbb     C2 1454   2.153   0.892   5.121  0.3098 -0.1402  0.6412
   50bbb     H3 1455   2.122   0.926   5.220  0.4158  3.0624 -0.2948
   50bbb     H4 1456   2.153   0.984   5.061  1.3774  0.3664  1.3915
   50bbb     C3 1457   2.050   0.668   5.148  0.1856 -0.0072  0.2157
   50bbb     H5 1458   2.148   0.618   5.156 -0.0954 -0.4337  1.1287
   50bbb     H6 1459   1.984   0.594   5.102  2.0547 -0.6638 -1.5508
   50bbb     C4 1460   1.992   0.687   5.292  0.7609  0.0780  0.1316
   50bbb     H7 1461   1.882   0.687   5.292  0.7132  0.9353  2.2877
   50bbb     H8 1462   2.019   0.785   5.334  0.7121 -0.2742  1.0166
   50bbb     C5 1463   2.064   0.891   4.825  0.6833  0.2205 -0.4893
   50bbb     H9 1464   2.128   0.975   4.855 -1.5812  1.5140  1.0388
   50bbb    H10 1465   1.960   0.924   4.837  1.0655  1.1851  0.2237
   50bbb     C6 1466   2.296   0.851   5.136 -0.3010  0.2416  0.4347
   50bbb    H11 1467   2.320   0.816   5.035 -0.9164 -0.2579  0.4555
   50bbb    H12 1468   2.302   0.758   5.193 -0.0237 -0.2858 -0.4347
   50bbb     C7 1469   2.030   0.566   5.384  0.5652  0.1275  0.2229
   50bbb    H13 1470   2.030   0.472   5.327  3.3108 -0.0263  0.3695
   50bbb    H14 1471   1.961   0.559   5.469  0.4351  0.8765  0.1881
   50bbb     C8 1472   2.387   0.956   5.188 -0.1391  0.5840  0.1666
   50bbb    H15 1473   2.371   0.950   5.297 -0.4752  1.7932  0.1970
   50bbb    H16 1474   2.363   1.051   5.138  2.3394  0.9561 -0.4558
   50bbb     C9 1475   2.069   0.847   4.677 -0.0310 -0.5995 -0.0580
   50bbb    H17 1476   2.169   0.810   4.652  0.6895  1.4321 -0.4405
   50bbb    H18 1477   2.056   0.934   4.611  0.0527 -0.7423 -0.2621
   50bbb     O1 1478   2.158   0.595   5.437 -0.1038  0.3727 -0.1347
   51bbb     N1 1479   3.038   0.259   5.388  0.0317  0.4885  0.3622
   51bbb     C1 1480   2.955   0.136   5.413  0.0026  0.0558 -0.0798
   51bbb     H1 1481   2.863   0.163   5.467  0.5046 -0.8111  1.2578
   51bbb     H2 1482   3.012   0.068   5.477  0.1173 -0.4610 -0.7272
   51bbb     C2 1483   3.174   0.231   5.322 -0.1250 -0.5469 -0.7740
   51bbb     H3 1484   3.159   0.196   5.219  1.4143 -1.7497 -0.6365
   51bbb     H4 1485   3.215   0.143   5.374  0.1928  0.3539  0.5286
   51bbb     C3 1486   2.984   0.385   5.344 -0.0727 -0.3277  0.7284
   51bbb     H5 1487   2.951   0.376   5.239 -0.6310 -2.2329  1.0198
   51bbb     H6 1488   3.052   0.470   5.342 -0.5773  0.0790 -0.6912
   51bbb     C4 1489   2.854   0.431   5.427 -0.4448  0.0772 -0.1065
   51bbb     H7 1490   2.869   0.412   5.534 -3.4344  1.4994  0.6796
   51bbb     H8 1491   2.763   0.377   5.397 -0.3250 -0.8239  1.1114
   51bbb     C5 1492   2.900   0.076   5.285 -0.2202 -0.0808 -0.0947
   51bbb     H9 1493   2.972   0.060   5.204 -0.8557  0.6357 -0.8178
   51bbb    H10 1494   2.822   0.142   5.244 -1.7948 -2.0182 -0.3996
   51bbb     C6 1495   3.277   0.342   5.307 -0.2642  0.4029  1.1146
   51bbb    H11 1496   3.265   0.394   5.404 -1.0322 -0.3113  1.4110
   51bbb    H12 1497   3.244   0.410   5.228  1.3768  0.0246  0.0371
   51bbb     C7 1498   2.833   0.583   5.423 -0.2036  0.1596  0.3395
   51bbb    H13 1499   2.803   0.608   5.321  2.1523 -1.1952 -0.7658
   51bbb    H14 1500   2.927   0.630   5.454  1.3369 -2.6770  0.3615
   51bbb     C8 1501   3.428   0.306   5.289  0.9278 -0.2151 -0.3310
   51bbb    H15 1502   3.481   0.374   5.356  0.9345 -0.1167 -0.4366
   51bbb    H16 1503   3.462   0.328   5.187 -1.2632  0.2018 -1.0363
   51bbb     C9 1504   2.840  -0.067   5.294  0.4336 -0.4876 -0.1072
   51bbb    H17 1505   2.742  -0.073   5.343 -0.9097  2.7804 -2.0872
   51bbb    H18 1506   2.908  -0.126   5.357  1.1881  2.4529  2.0461
   51bbb     O1 1507   2.731   0.621   5.507 -0.0812 -0.1812  0.2369
   52bbb     N1 1508   3.086   2.206   5.830 -0.3415 -0.0018 -0.0684
   52bbb     C1 1509   3.115   2.316   5.734 -0.3001  0.5459  0.3237
   52bbb     H1 1510   3.140   2.407   5.789 -1.6092  1.2977 -0.2718
   52bbb     H2 1511   3.026   2.340   5.673 -0.8953 -1.5945  0.2369
   52bbb     C2 1512   2.950   2.219   5.896 -0.3498 -0.5656 -0.2694
   52bbb     H3 1513   2.925   2.131   5.957  0.0420  0.1104  0.8932
   52bbb     H4 1514   2.868   2.214   5.823 -0.8743  1.0637  0.1723
   52bbb     C3 1515   3.192   2.175   5.925  0.1307  0.2536  0.3965
   52bbb     H5 1516   3.196   2.258   5.998 -1.0671  0.5933  0.0883
   52bbb     H6 1517   3.284   2.158   5.868 -0.0739  0.5915 -0.0332
   52bbb     C4 1518   3.159   2.043   5.998 -0.0211 -0.1698 -0.2149
   52bbb     H7 1519   3.103   1.965   5.946  0.8502 -3.8931  3.8901
   52bbb     H8 1520   3.089   2.071   6.077 -0.0226  1.9145 -0.8754
   52bbb     C5 1521   3.230   2.277   5.634 -0.4920 -0.0159 -0.5759
   52bbb     H9 1522   3.186   2.189   5.587 -0.1025  1.1029 -3.1894
   52bbb    H10 1523   3.316   2.249   5.696 -0.7026  0.5265 -0.0226
   52bbb     C6 1524   2.934   2.349   5.973 -0.6605  0.2100  0.2837
   52bbb    H11 1525   2.856   2.399   5.914 -2.2428 -1.7763  0.5510
   52bbb    H12 1526   3.021   2.415   5.979 -0.6010  0.1661 -0.0611
   52bbb     C7 1527   3.284   1.981   6.058 -0.9205 -0.4654  0.2441
   52bbb    H13 1528   3.315   2.032   6.151 -1.0288 -1.4332  0.8294
   52bbb    H14 1529   3.364   1.992   5.984 -1.3988  0.0090 -0.2134
   52bbb     C8 1530   2.872   2.331   6.117 -0.2029 -0.6527 -0.5990
   52bbb    H15 1531   2.857   2.429   6.164  0.2099 -0.7391 -0.2844
   52bbb    H16 1532   2.947   2.279   6.178 -0.8195 -0.4997  0.3191
   52bbb     C9 1533   3.271   2.378   5.529  0.1474  0.1815  0.4381
   52bbb    H17 1534   3.312   2.459   5.592 -0.5732 -0.8056  2.2710
   52bbb    H18 1535   3.185   2.415   5.472 -0.4784  0.9992  1.8512
   52bbb     O1 1536   3.252   1.849   6.090 -0.1299  0.5486 -0.4026
   53bbb     N1 1537   3.553   1.452   6.953 -0.8255 -0.7917  0.1448
   53bbb     C1 1538   3.662   1.438   6.857  0.1217  0.2239 -0.1932
   53bbb     H1 1539   3.656   1.498   6.766 -0.7232  0.2407 -0.1378
   53bbb     H2 1540   3.671   1.333   6.825  1.6691  0.0916  0.5699
   53bbb     C2 1541   3.555   1.582   7.031  0.1801 -0.0582 -0.5690
   53bbb     H3 1542   3.530   1.670   6.971 -0.0861  0.9343  0.9286
   53bbb     H4 1543   3.653   1.597   7.077 -0.3148  0.3014  0.3983
   53bbb     C3 1544   3.427   1.426   6.888  0.7868  0.1741  0.2575
   53bbb     H5 1545   3.410   1.481   6.795 -1.5757  0.0423  0.5583
   53bbb     H6 1546   3.346   1.465   6.951  0.1137  0.2912 -0.6692
   53bbb     C4 1547   3.409   1.278   6.866 -0.0476  0.0083  0.5078
   53bbb     H7 1548   3.396   1.235   6.966  1.7729  0.1921  0.8732
   53bbb     H8 1549   3.499   1.225   6.832 -0.0750  0.2751  0.0016
   53bbb     C5 1550   3.803   1.469   6.919  0.1145 -0.3568 -0.1499
   53bbb     H9 1551   3.808   1.440   7.024 -1.1202  0.3606  0.1267
   53bbb    H10 1552   3.822   1.576   6.934 -0.5933 -0.1936 -0.3734
   53bbb     C6 1553   3.456   1.594   7.153 -0.1238 -0.8032  0.1148
   53bbb    H11 1554   3.351   1.593   7.120 -0.1265  1.1494 -0.0805
   53bbb    H12 1555   3.468   1.694   7.196  1.1604 -0.7095 -0.4175
   53bbb     C7 1556   3.285   1.237   6.785 -0.2842  0.2191 -0.0028
   53bbb    H13 1557   3.190   1.267   6.831  0.2828  0.9864  0.6984
   53bbb    H14 1558   3.303   1.129   6.783  0.2726  0.1917  2.5596
   53bbb     C8 1559   3.481   1.478   7.255 -0.5376 -0.1776  0.1712
   53bbb    H15 1560   3.584   1.484   7.291 -0.2302 -0.6800 -0.6171
   53bbb    H16 1561   3.479   1.383   7.201  0.5036  0.0227 -0.2398
   53bbb     C9 1562   3.913   1.396   6.836 -0.1110 -0.2921  0.0421
   53bbb    H17 1563   3.914   1.288   6.855  1.9159 -0.5956 -1.3998
   53bbb    H18 1564   4.008   1.429   6.880  0.8354 -1.6286 -0.9104
   53bbb     O1 1565   3.296   1.284   6.647 -0.1174 -0.4685 -0.0394
   54bbb     N1 1566   0.839  -0.113   6.757  0.7411  0.0656  0.2201
   54bbb     C1 1567   0.910  -0.237   6.808 -0.5139  0.1995 -0.3920
   54bbb     H1 1568   0.938  -0.298   6.722 -0.1190  0.3312 -0.3581
   54bbb     H2 1569   0.845  -0.287   6.881 -0.2569  0.1393 -0.2056
   54bbb     C2 1570   0.700  -0.145   6.712  0.9285  0.4467 -0.1378
   54bbb     H3 1571   0.668  -0.215   6.790  1.8832 -0.6219 -0.6902
   54bbb     H4 1572   0.701  -0.193   6.613 -0.2151 -0.0655  0.0765
   54bbb     C3 1573   0.912  -0.030   6.664  0.5803 -0.2689  0.2541
   54bbb     H5 1574   0.835   0.025   6.608 -0.2213 -2.9823 -1.4727
   54bbb     H6 1575   0.969  -0.086   6.590 -1.5538 -0.7641 -1.1067
   54bbb     C4 1576   0.986   0.073   6.744 -0.4977  0.1087  0.4939
   54bbb     H7 1577   1.081   0.042   6.788 -1.7658 -0.3876  3.0917
   54bbb     H8 1578   0.926   0.119   6.824 -0.1199 -0.6602  1.2379
   54bbb     C5 1579   1.042  -0.206   6.879 -0.0935 -0.1162  1.0425
   54bbb     H9 1580   1.022  -0.118   6.942  3.2908  1.7805 -0.2910
   54bbb    H10 1581   1.107  -0.163   6.803  0.5272  1.6006  2.4717
   54bbb     C6 1582   0.607  -0.024   6.717 -0.3939 -0.1393 -0.0920
   54bbb    H11 1583   0.628   0.050   6.638 -0.3233 -0.3428 -0.2650
   54bbb    H12 1584   0.646   0.026   6.806  1.1568  1.4233 -1.5766
   54bbb     C7 1585   1.029   0.189   6.644  0.3773  0.2949  0.7443
   54bbb    H13 1586   1.071   0.146   6.552 -1.3168  0.7287 -0.2784
   54bbb    H14 1587   1.095   0.262   6.692 -0.0613  0.7005  0.7407
   54bbb     C8 1588   0.455  -0.056   6.719 -0.1433  0.0166 -0.2208
   54bbb    H15 1589   0.402   0.040   6.725  0.5724  0.4993 -1.3433
   54bbb    H16 1590   0.433  -0.115   6.809 -1.6298  1.1979  0.2293
   54bbb     C9 1591   1.119  -0.321   6.946  0.0577  0.1582 -0.7200
   54bbb    H17 1592   1.069  -0.373   7.030  1.2984  1.2440  0.7465
   54bbb    H18 1593   1.210  -0.279   6.990  0.4337 -0.6002 -0.7562
   54bbb     O1 1594   0.913   0.260   6.606  0.6837  0.2838  0.2215
   55bbb     N1 1595   0.035  -0.160   5.773  0.1276 -0.3462  0.4370
   55bbb     C1 1596   0.160  -0.180   5.693  0.0937  0.1198 -0.4604
   55bbb     H1 1597   0.211  -0.263   5.743 -1.0736  0.2962  1.0991
   55bbb     H2 1598   0.204  -0.080   5.702 -2.1764  1.0529  1.2563
   55bbb     C2 1599  -0.076  -0.070   5.726  0.2408 -0.4099  0.3916
   55bbb     H3 1600  -0.052  -0.038   5.624 -0.9306  0.8601  0.4871
   55bbb     H4 1601  -0.062   0.023   5.782 -1.0583  0.7106 -1.0699
   55bbb     C3 1602   0.056  -0.149   5.920  0.4284  0.2873 -0.4746
   55bbb     H5 1603   0.112  -0.239   5.949  0.5868 -0.1885 -2.1256
   55bbb     H6 1604  -0.041  -0.144   5.970 -0.5680 -0.7007 -2.2268
   55bbb     C4 1605   0.143  -0.026   5.971  0.1144  0.2951  0.2024
   55bbb     H7 1606   0.094   0.062   5.928 -3.5565 -1.0221  1.3451
   55bbb     H8 1607   0.247  -0.036   5.937 -0.6050 -1.7631 -1.6456
   55bbb     C5 1608   0.124  -0.222   5.556 -0.3165  0.2280  0.1534
   55bbb     H9 1609   0.075  -0.143   5.497 -1.2672 -1.5239 -1.5634
   55bbb    H10 1610   0.068  -0.317   5.560  0.4033 -0.2487 -0.7050
   55bbb     C6 1611  -0.223  -0.129   5.736 -0.6156 -0.3777  0.0259
   55bbb    H11 1612  -0.302  -0.054   5.727 -0.3056 -0.0969 -0.3654
   55bbb    H12 1613  -0.228  -0.170   5.838 -0.3630  0.2657  0.3025
   55bbb     C7 1614   0.138  -0.027   6.118 -0.5564  0.0442 -0.0959
   55bbb    H13 1615   0.149  -0.128   6.157 -2.7005 -0.1999  0.0266
   55bbb    H14 1616   0.035   0.003   6.144 -0.4346  0.8585 -0.4934
   55bbb     C8 1617  -0.238  -0.242   5.626 -0.6140 -0.0466  0.2608
   55bbb    H15 1618  -0.343  -0.275   5.630 -0.1081 -1.6379  3.3693
   55bbb    H16 1619  -0.179  -0.325   5.665 -0.7520 -0.2076  0.1265
   55bbb     C9 1620   0.254  -0.242   5.472  0.1624  0.5696  0.8133
   55bbb    H17 1621   0.318  -0.311   5.528  0.6819 -0.1930 -0.6613
   55bbb    H18 1622   0.306  -0.145   5.470 -0.8721  1.2571  3.1256
   55bbb     O1 1623   0.247   0.058   6.168  0.6554  0.9754 -0.3540
   56bbb     N1 1624   0.459   1.934   6.662  0.6620 -0.4785 -0.2924
   56bbb     C1 1625   0.317   1.929   6.709 -0.3436  0.6412 -0.7228
   56bbb     H1 1626   0.313   1.914   6.817  1.5046 -1.5183 -0.8781
   56bbb     H2 1627   0.268   1.834   6.684 -2.3968  1.5089 -0.1686
   56bbb     C2 1628   0.557   1.912   6.770  0.2071 -0.7576 -0.4476
   56bbb     H3 1629   0.652   1.882   6.723  0.9098 -0.1073  0.5305
   56bbb     H4 1630   0.511   1.830   6.826 -0.9356  0.7656  0.9211
   56bbb     C3 1631   0.486   1.842   6.549 -0.1580 -1.1696  0.7086
   56bbb     H5 1632   0.472   1.737   6.580 -0.6748 -1.7027 -1.2121
   56bbb     H6 1633   0.591   1.855   6.519 -0.2116  0.4455  1.1644
   56bbb     C4 1634   0.396   1.867   6.423  0.8374 -0.4504  0.4172
   56bbb     H7 1635   0.396   1.969   6.384 -0.6468 -0.2612  0.8707
   56bbb     H8 1636   0.292   1.846   6.450  0.7110 -1.2016 -0.5566
   56bbb     C5 1637   0.223   2.038   6.666  0.3426  0.1387  0.3106
   56bbb     H9 1638   0.175   2.003   6.574 -0.9367 -3.3094  2.1324
   56bbb    H10 1639   0.277   2.131   6.644 -1.7843  1.7687  1.5537
   56bbb     C6 1640   0.583   2.037   6.857  0.6277 -0.8801  0.2104
   56bbb    H11 1641   0.492   2.098   6.865  0.5531 -1.0161  0.4161
   56bbb    H12 1642   0.643   2.113   6.807 -0.0860 -0.4795 -0.0490
   56bbb     C7 1643   0.440   1.767   6.315 -0.9278  0.2213 -0.3624
   56bbb    H13 1644   0.426   1.666   6.353 -0.2825 -0.1248 -1.0239
   56bbb    H14 1645   0.544   1.787   6.286 -1.0399  1.2182 -0.1151
   56bbb     C8 1646   0.625   2.023   7.004  0.8901  0.9618  0.5470
   56bbb    H15 1647   0.705   1.949   7.014 -0.6141 -0.8067  0.1600
   56bbb    H16 1648   0.541   1.993   7.068  0.0703  2.1979  0.0772
   56bbb     C9 1649   0.102   2.067   6.760  0.3076 -0.2563  0.1053
   56bbb    H17 1650   0.057   1.967   6.773 -0.9702  0.1066 -1.2496
   56bbb    H18 1651   0.034   2.136   6.709 -0.2167  0.6579  1.9649
   56bbb     O1 1652   0.349   1.772   6.202  0.4859 -0.1377 -0.2387
   57bbb     N1 1653   0.603   2.017   5.192 -0.0190 -0.3667  0.2919
   57bbb     C1 1654   0.476   2.094   5.171  0.3229  0.5054 -0.5649
   57bbb     H1 1655   0.406   2.019   5.133  0.8150 -0.0926 -0.2901
   57bbb     H2 1656   0.501   2.163   5.089 -0.7373  1.1414 -0.3769
   57bbb     C2 1657   0.733   2.088   5.220  0.5933  0.5224 -0.0703
   57bbb     H3 1658   0.800   2.008   5.254 -2.2501 -1.1388  2.0871
   57bbb     H4 1659   0.717   2.152   5.308  0.7506 -2.1422  2.0380
   57bbb     C3 1660   0.587   1.900   5.279 -0.7374  0.2183  0.1780
   57bbb     H5 1661   0.484   1.863   5.268 -0.6939  0.4387 -1.2534
   57bbb     H6 1662   0.613   1.933   5.380 -0.3311  0.5911 -0.0420
   57bbb     C4 1663   0.694   1.796   5.258  0.5743  0.3558  0.5513
   57bbb     H7 1664   0.776   1.821   5.325  0.0806  2.4483  0.4310
   57bbb     H8 1665   0.737   1.805   5.157  1.0283 -2.3579  0.4178
   57bbb     C5 1666   0.417   2.149   5.306  0.3975 -0.7066 -0.4059
   57bbb     H9 1667   0.459   2.248   5.331 -1.7215  0.3944 -1.0109
   57bbb    H10 1668   0.428   2.083   5.392 -1.2551  0.7986  1.0441
   57bbb     C6 1669   0.779   2.161   5.089 -0.5428  0.3089 -0.1510
   57bbb    H11 1670   0.701   2.224   5.044 -0.5245  1.3374  1.2152
   57bbb    H12 1671   0.801   2.087   5.010  2.6018  0.6806  0.2448
   57bbb     C7 1672   0.631   1.658   5.278 -0.0179 -0.5234  0.2559
   57bbb    H13 1673   0.688   1.572   5.240 -1.6717 -2.2048  1.3782
   57bbb    H14 1674   0.545   1.654   5.211  0.7524  1.3392 -0.9296
   57bbb     C8 1675   0.903   2.240   5.115  0.9891 -0.6510 -0.7095
   57bbb    H15 1676   0.942   2.265   5.015 -2.4194  2.0064 -1.5549
   57bbb    H16 1677   0.979   2.174   5.159 -0.0958 -1.9947 -0.7895
   57bbb     C9 1678   0.263   2.173   5.290 -0.0350  0.0170 -0.5638
   57bbb    H17 1679   0.248   2.242   5.206 -0.3455 -0.3594 -0.8270
   57bbb    H18 1680   0.226   2.209   5.386 -0.2365 -2.1491  0.2318
   57bbb     O1 1681   0.596   1.639   5.418  0.0367 -0.2208 -0.3666
   58bbb     N1 1682   1.640   1.934   7.825 -0.6429  0.2666 -0.0497
   58bbb     C1 1683   1.726   2.049   7.800  0.1991 -0.6106  0.2534
   58bbb     H1 1684   1.828   2.050   7.840 -0.3150  2.0476  1.7306
   58bbb     H2 1685   1.688   2.135   7.857 -2.6124 -1.2208 -0.5421
   58bbb     C2 1686   1.646   1.882   7.966 -0.1544  0.4513  0.3040
   58bbb     H3 1687   1.751   1.892   7.996 -0.6093  1.0561  1.7576
   58bbb     H4 1688   1.636   1.774   7.947  0.4984  0.3729  0.3970
   58bbb     C3 1689   1.503   1.927   7.762  0.0836  0.2777  0.5476
   58bbb     H5 1690   1.504   1.947   7.654 -1.0255 -2.3208 -0.0463
   58bbb     H6 1691   1.437   2.000   7.809  0.6359 -0.0270  1.8487
   58bbb     C4 1692   1.439   1.789   7.772  0.4091 -0.1838  0.1529
   58bbb     H7 1693   1.336   1.798   7.734  0.5874 -3.3963 -1.5267
   58bbb     H8 1694   1.433   1.751   7.874 -2.1666  1.9088  0.8770
   58bbb     C5 1695   1.725   2.102   7.652  0.4377  0.5758 -0.8053
   58bbb     H9 1696   1.789   2.191   7.649  1.1279  0.2094  1.4783
   58bbb    H10 1697   1.622   2.131   7.626 -0.3875 -0.5302  1.0012
   58bbb     C6 1698   1.557   1.955   8.064  0.0012  0.1264  0.5986
   58bbb    H11 1699   1.463   1.989   8.018 -0.6068  0.7496  2.1938
   58bbb    H12 1700   1.604   2.040   8.114 -0.9462 -0.4861  2.6497
   58bbb     C7 1701   1.506   1.686   7.684 -0.2121  0.5440  0.0649
   58bbb    H13 1702   1.606   1.660   7.721 -0.5084 -1.3726 -0.3998
   58bbb    H14 1703   1.518   1.723   7.581  0.9916 -0.1003 -0.0466
   58bbb     C8 1704   1.512   1.857   8.173 -0.2163 -0.2519 -0.5153
   58bbb    H15 1705   1.459   1.774   8.125 -2.2544  0.2174  0.7755
   58bbb    H16 1706   1.440   1.909   8.237  0.4134 -0.0588  0.0410
   58bbb     C9 1707   1.786   1.986   7.568 -0.8173  0.2956 -0.3318
   58bbb    H17 1708   1.732   1.891   7.577 -2.0610  0.8794 -1.2427
   58bbb    H18 1709   1.891   1.985   7.600 -0.3055  1.6476 -1.8553
   58bbb     O1 1710   1.423   1.568   7.681 -0.3538  0.0085 -0.5156
   59bbb     N1 1711   1.999   0.727   7.883 -0.0562  0.6741  0.5072
   59bbb     C1 1712   2.124   0.683   7.817  0.3705  0.4021  0.0534
   59bbb     H1 1713   2.165   0.587   7.853 -0.3429  0.3076  0.6502
   59bbb     H2 1714   2.204   0.757   7.824  0.0001  0.8105 -0.0387
   59bbb     C2 1715   1.962   0.655   8.007  0.7247 -0.9392  0.1229
   59bbb     H3 1716   1.888   0.705   8.071  0.7298 -2.3964  1.3340
   59bbb     H4 1717   2.047   0.639   8.074 -0.8809  1.5107  3.0462
   59bbb     C3 1718   1.992   0.873   7.894  0.1394 -0.6623  0.0932
   59bbb     H5 1719   2.026   0.909   7.796 -1.3727 -1.2586 -0.6728
   59bbb     H6 1720   2.060   0.908   7.973 -0.0695 -0.4416  0.1754
   59bbb     C4 1721   1.849   0.920   7.924  0.0789 -0.4495 -0.4462
   59bbb     H7 1722   1.847   1.027   7.946 -0.1137 -0.3328 -0.9917
   59bbb     H8 1723   1.808   0.873   8.014  1.0908  0.8772  0.7579
   59bbb     C5 1724   2.093   0.654   7.662  0.0203 -0.4242 -0.5814
   59bbb     H9 1725   2.032   0.737   7.626  1.5756  1.2010  0.3731
   59bbb    H10 1726   2.023   0.570   7.658 -0.0676 -0.4926  1.3111
   59bbb     C6 1727   1.904   0.518   7.968 -0.7435 -0.2068 -0.2181
   59bbb    H11 1728   1.980   0.460   7.914 -1.1010 -0.2918 -0.6350
   59bbb    H12 1729   1.816   0.524   7.904 -0.3744  0.6317 -0.6640
   59bbb     C7 1730   1.754   0.885   7.807  0.5199  0.3338 -0.3695
   59bbb    H13 1731   1.765   0.777   7.788 -0.6110 -0.3282  2.2591
   59bbb    H14 1732   1.792   0.934   7.717  1.8939 -1.3847 -0.7763
   59bbb     C8 1733   1.863   0.431   8.089  0.2012 -0.0261  0.6959
   59bbb    H15 1734   1.792   0.485   8.155 -1.5961 -1.2462 -0.1592
   59bbb    H16 1735   1.952   0.403   8.146  0.1539 -2.2368 -0.2220
   59bbb     C9 1736   2.217   0.641   7.573 -0.1992 -0.4941  0.5808
   59bbb    H17 1737   2.298   0.661   7.643  0.6624  0.4605 -0.6335
   59bbb    H18 1738   2.226   0.708   7.486  0.4266 -0.2745  0.8156
   59bbb     O1 1739   1.618   0.929   7.838 -0.1554  0.6230 -0.8520
   60bbb     N1 1740   0.704   3.341   7.818  0.0140 -0.0206  0.4573
   60bbb     C1 1741   0.774   3.453   7.758  0.5645 -1.0709 -0.5854
   60bbb     H1 1742   0.697   3.503   7.697 -2.1895 -3.0579  1.0155
   60bbb     H2 1743   0.854   3.416   7.693  1.0201  0.4534 -0.9304
   60bbb     C2 1744   0.581   3.367   7.902 -0.1233 -0.0839 -0.3211
   60bbb     H3 1745   0.610   3.386   8.006  1.1445 -1.8451 -0.3083
   60bbb     H4 1746   0.520   3.276   7.905  2.2979 -1.7983 -0.4397
   60bbb     C3 1747   0.673   3.242   7.707  0.1722 -0.4639  0.0611
   60bbb     H5 1748   0.749   3.256   7.629 -0.5465 -0.5935 -0.6793
   60bbb     H6 1749   0.573   3.265   7.667 -0.2225 -0.1631  1.1845
   60bbb     C4 1750   0.680   3.101   7.767 -0.5322  0.0255  0.8514
   60bbb     H7 1751   0.599   3.081   7.838 -0.2037  0.5870  1.3952
   60bbb     H8 1752   0.776   3.088   7.817 -0.1967 -0.6524  0.0549
   60bbb     C5 1753   0.825   3.553   7.869  0.3517  0.3684  0.4193
   60bbb     H9 1754   0.883   3.497   7.943 -0.3390  1.4689  1.8572
   60bbb    H10 1755   0.743   3.601   7.923  1.3508  0.0255  2.3598
   60bbb     C6 1756   0.485   3.484   7.865 -0.1645  0.4296 -0.0505
   60bbb    H11 1757   0.537   3.580   7.855  1.9195 -0.2285  2.9796
   60bbb    H12 1758   0.429   3.489   7.959 -0.6509 -1.1663 -0.2285
   60bbb     C7 1759   0.657   3.001   7.650  0.2943  0.1244 -0.2497
   60bbb    H13 1760   0.736   3.007   7.573  0.3463 -2.6351 -0.5103
   60bbb    H14 1761   0.558   3.021   7.608  0.1225 -1.2847 -0.5607
   60bbb     C8 1762   0.400   3.461   7.738  0.6946  0.5570  0.5191
   60bbb    H15 1763   0.467   3.447   7.653 -1.0147 -1.0429 -0.6326
   60bbb    H16 1764   0.351   3.555   7.710  2.3060  0.9005 -1.3473
   60bbb     C9 1765   0.914   3.668   7.810  0.1015 -0.0882  0.1625
   60bbb    H17 1766   0.943   3.737   7.891 -0.5324  0.1720  0.1808
   60bbb    H18 1767   0.845   3.725   7.747 -1.0978 -0.5282  1.0217
   60bbb     O1 1768   0.656   2.857   7.694 -0.5515 -0.0561 -0.0310
   61bbb     N1 1769   0.196   1.754   8.227  0.1480  0.3387 -0.5884
   61bbb     C1 1770   0.081   1.684   8.302 -0.2207  0.0043 -0.0064
   61bbb     H1 1771   0.111   1.578   8.303 -0.3919 -0.0809  3.0502
   61bbb     H2 1772  -0.010   1.683   8.241 -0.6424 -1.8085  0.6073
   61bbb     C2 1773   0.215   1.699   8.086 -0.3608  0.2796 -0.0119
   61bbb     H3 1774   0.284   1.749   8.017  1.0043  3.0013  3.0163
   61bbb     H4 1775   0.119   1.720   8.039 -1.7550 -3.3900  0.8758
   61bbb     C3 1776   0.186   1.902   8.229 -0.3488 -1.1622  0.4089
   61bbb     H5 1777   0.200   1.943   8.330  1.2397 -1.1615  0.2036
   61bbb     H6 1778   0.089   1.941   8.196  0.7215  2.1798  0.8021
   61bbb     C4 1779   0.291   1.974   8.147 -0.2360  0.5278 -0.3394
   61bbb     H7 1780   0.276   1.962   8.039  0.9407 -0.7434 -0.3971
   61bbb     H8 1781   0.385   1.920   8.166 -0.1189  0.8476  0.0183
   61bbb     C5 1782   0.057   1.732   8.445  0.4707 -0.8441 -0.0339
   61bbb     H9 1783   0.005   1.828   8.457  0.2507 -1.1037  1.1995
   61bbb    H10 1784   0.159   1.749   8.481  0.8259 -1.2110 -0.8580
   61bbb     C6 1785   0.214   1.544   8.072  0.7593 -0.3957  0.7048
   61bbb    H11 1786   0.110   1.513   8.082  0.8622 -2.0255 -2.2057
   61bbb    H12 1787   0.263   1.491   8.154  0.1150 -1.3997  0.4512
   61bbb     C7 1788   0.312   2.120   8.196  0.4289  0.1892 -0.7767
   61bbb    H13 1789   0.354   2.124   8.297 -1.0897 -0.3976 -0.0919
   61bbb    H14 1790   0.215   2.171   8.200  1.6028  2.5128 -0.0410
   61bbb     C8 1791   0.274   1.491   7.942 -1.0565 -0.1470  0.1092
   61bbb    H15 1792   0.299   1.385   7.955 -0.3146 -0.0212 -0.2267
   61bbb    H16 1793   0.370   1.544   7.935 -1.3707  0.4084 -0.0118
   61bbb     C9 1794  -0.024   1.629   8.530 -0.1453  0.5469  0.4682
   61bbb    H17 1795  -0.123   1.618   8.483 -0.4263  2.0664  0.6562
   61bbb    H18 1796  -0.044   1.675   8.627 -2.3449  4.0446 -1.4300
   61bbb     O1 1797   0.404   2.187   8.101  0.3193  0.2534 -0.1073
   62bbb     N1 1798   3.709   2.441   5.747 -0.2159  0.6580  0.1057
   62bbb     C1 1799   3.594   2.541   5.767 -0.1677  0.8295 -0.1717
   62bbb     H1 1800   3.590   2.595   5.862 -2.7529  1.1749 -0.3980
   62bbb     H2 1801   3.497   2.490   5.764 -0.9867  2.3392 -0.1517
   62bbb     C2 1802   3.732   2.368   5.876 -0.2923  0.4593  0.5205
   62bbb     H3 1803   3.743   2.435   5.962 -3.5717 -0.8895  2.1674
   62bbb     H4 1804   3.826   2.312   5.864 -1.5589 -1.7502  0.2186
   62bbb     C3 1805   3.709   2.355   5.624 -0.2775  0.3337  0.1843
   62bbb     H5 1806   3.662   2.411   5.542 -1.4937 -1.2291 -0.2446
   62bbb     H6 1807   3.653   2.262   5.643  0.9805 -0.1525  1.7108
   62bbb     C4 1808   3.851   2.315   5.587  0.2202 -0.3432 -0.7880
   62bbb     H7 1809   3.912   2.288   5.675  0.2150  0.0782 -0.6525
   62bbb     H8 1810   3.908   2.401   5.550  1.6424 -1.4294 -1.2188
   62bbb     C5 1811   3.588   2.644   5.653  0.9349  0.1056  0.3671
   62bbb     H9 1812   3.543   2.579   5.576  0.1131 -0.3202  1.1908
   62bbb    H10 1813   3.685   2.673   5.611  0.2630 -0.1798 -1.5134
   62bbb     C6 1814   3.614   2.275   5.922 -0.0589 -0.6393 -0.1057
   62bbb    H11 1815   3.602   2.188   5.856  4.5465 -1.4108 -0.2177
   62bbb    H12 1816   3.522   2.332   5.903 -0.0437 -0.8551 -0.8568
   62bbb     C7 1817   3.848   2.197   5.497  0.4105  0.1912 -0.1543
   62bbb    H13 1818   3.950   2.167   5.470  0.4277 -0.7340  0.9146
   62bbb    H14 1819   3.797   2.228   5.404  0.8442 -0.2078 -0.5290
   62bbb     C8 1820   3.627   2.234   6.075  0.9195 -0.2488 -0.1259
   62bbb    H15 1821   3.530   2.212   6.121  0.4634  1.9281  0.0568
   62bbb    H16 1822   3.671   2.318   6.129 -1.1220  1.1944 -0.6170
   62bbb     C9 1823   3.491   2.764   5.668 -0.0856 -0.2309 -0.1280
   62bbb    H17 1824   3.545   2.825   5.741  1.1691 -1.0989 -0.3023
   62bbb    H18 1825   3.397   2.730   5.714 -0.9548  0.5923 -1.2234
   62bbb     O1 1826   3.782   2.085   5.558  0.2307  0.7710  0.0866
   63bbb     N1 1827   3.778   1.049   5.835  0.7177 -0.5835  0.0724
   63bbb     C1 1828   3.645   0.997   5.802 -0.1753  0.9716 -0.8058
   63bbb     H1 1829   3.642   0.950   5.703 -1.3781  2.4865 -1.5386
   63bbb     H2 1830   3.564   1.071   5.801 -1.3056 -0.2211 -1.7853
   63bbb     C2 1831   3.882   0.959   5.890 -0.1071  0.3374 -0.3941
   63bbb     H3 1832   3.860   0.921   5.990 -0.1776  1.0504 -0.1349
   63bbb     H4 1833   3.976   1.016   5.891 -1.5527  2.8649  0.4203
   63bbb     C3 1834   3.813   1.143   5.731  0.0161  0.0266  0.2882
   63bbb     H5 1835   3.726   1.204   5.704 -0.3097 -0.9510 -0.9707
   63bbb     H6 1836   3.853   1.091   5.643  1.3386 -0.9787  1.4429
   63bbb     C4 1837   3.923   1.245   5.762  0.4354  0.3143  0.7664
   63bbb     H7 1838   3.945   1.304   5.673 -0.0234  1.4356  1.3736
   63bbb     H8 1839   4.016   1.187   5.772  1.6075  1.1662 -3.2561
   63bbb     C5 1840   3.592   0.899   5.915 -0.0738  0.1294  0.7111
   63bbb     H9 1841   3.598   0.941   6.016 -0.7671  0.1872  0.7342
   63bbb    H10 1842   3.653   0.807   5.912 -1.2366 -0.6393 -0.2605
   63bbb     C6 1843   3.922   0.842   5.801 -0.2324  0.5937  0.5565
   63bbb    H11 1844   3.996   0.879   5.730  0.1312 -0.2862  0.4583
   63bbb    H12 1845   3.842   0.808   5.734 -0.2448 -0.9743  1.3244
   63bbb     C7 1846   3.901   1.341   5.882 -0.0225  0.1957 -0.3108
   63bbb    H13 1847   3.991   1.395   5.915  0.4175 -0.9337  0.4015
   63bbb    H14 1848   3.866   1.281   5.967  0.2274  1.0790  0.4383
   63bbb     C8 1849   3.986   0.718   5.873  0.2448  0.3805  0.5557
   63bbb    H15 1850   3.904   0.646   5.886  1.4908 -0.7951  2.2236
   63bbb    H16 1851   4.016   0.735   5.977 -1.5708  0.6597  1.0733
   63bbb     C9 1852   3.445   0.853   5.896 -0.2603  0.3113  0.0991
   63bbb    H17 1853   3.388   0.946   5.908 -0.0222  0.3498  0.9930
   63bbb    H18 1854   3.412   0.781   5.972 -0.7240  0.2899 -0.1223
   63bbb     O1 1855   3.801   1.443   5.848  0.0027 -0.2115 -0.0519
   64bbb     N1 1856   3.533   2.628   6.681  0.4990 -0.1719  0.0069
   64bbb     C1 1857   3.678   2.642   6.641  0.4050 -0.0154 -0.4688
   64bbb     H1 1858   3.733   2.674   6.730  0.0514 -0.0461 -0.2335
   64bbb     H2 1859   3.679   2.721   6.566 -0.4529  0.5241  0.0655
   64bbb     C2 1860   3.517   2.553   6.816 -0.4900  0.2721  0.7759
   64bbb     H3 1861   3.408   2.547   6.832 -0.8717  1.6658 -0.9809
   64bbb     H4 1862   3.564   2.607   6.900  0.7607 -0.7964  0.7811
   64bbb     C3 1863   3.446   2.580   6.569 -0.7754  0.5986  0.2734
   64bbb     H5 1864   3.345   2.569   6.611 -0.7012  0.0260  0.3066
   64bbb     H6 1865   3.477   2.478   6.544 -1.4060  0.5452 -0.3328
   64bbb     C4 1866   3.443   2.671   6.456  0.2825 -0.0004 -0.0219
   64bbb     H7 1867   3.541   2.673   6.408 -0.9008 -2.0307 -2.8289
   64bbb     H8 1868   3.417   2.769   6.499 -0.4893 -0.1679 -0.0783
   64bbb     C5 1869   3.745   2.513   6.575  0.5300 -0.1786  0.0543
   64bbb     H9 1870   3.685   2.500   6.484 -1.5868  1.1226  1.1949
   64bbb    H10 1871   3.732   2.416   6.625  0.5463  0.4513  1.3278
   64bbb     C6 1872   3.567   2.411   6.829 -0.2431  0.4745 -0.2668
   64bbb    H11 1873   3.676   2.415   6.818 -0.2511  0.7810 -0.2604
   64bbb    H12 1874   3.536   2.338   6.753  0.1940 -1.5687  1.4215
   64bbb     C7 1875   3.336   2.633   6.352  0.0212  0.6353 -0.5048
   64bbb    H13 1876   3.339   2.708   6.273  0.8111  1.0992 -0.0582
   64bbb    H14 1877   3.245   2.625   6.413  0.5733 -1.4021  0.1473
   64bbb     C8 1878   3.532   2.352   6.972  0.1919 -0.0443 -0.0531
   64bbb    H15 1879   3.425   2.360   6.997 -0.3733 -1.7952 -1.6768
   64bbb    H16 1880   3.588   2.413   7.043 -1.5044  0.0054  1.3155
   64bbb     C9 1881   3.894   2.530   6.543  0.1041 -0.6135  0.3184
   64bbb    H17 1882   3.946   2.565   6.632  0.2886 -1.9875  0.7740
   64bbb    H18 1883   3.894   2.617   6.476  0.7398 -0.6926  0.2043
   64bbb     O1 1884   3.382   2.508   6.286  0.6943 -0.2159 -0.0227
   65bbb     N1 1885   2.646   2.037   6.825 -0.9959 -0.4744  0.2059
   65bbb     C1 1886   2.647   1.985   6.963 -0.5880  0.4261 -0.4599
   65bbb     H1 1887   2.546   1.950   6.990  0.0815 -1.1234  0.1410
   65bbb     H2 1888   2.659   2.065   7.037  1.2841 -0.3709  0.1538
   65bbb     C2 1889   2.610   1.953   6.708 -0.2534 -0.2177 -0.5681
   65bbb     H3 1890   2.697   1.887   6.697  0.6227  0.5021  1.6667
   65bbb     H4 1891   2.594   2.016   6.619 -0.4221  2.0827  1.0184
   65bbb     C3 1892   2.764   2.117   6.796  0.3181 -0.5503  0.2249
   65bbb     H5 1893   2.760   2.141   6.689 -1.6478 -2.8803 -0.3364
   65bbb     H6 1894   2.853   2.053   6.799 -0.5116 -2.0377 -2.6793
   65bbb     C4 1895   2.781   2.240   6.885 -0.2192 -0.3266 -0.2562
   65bbb     H7 1896   2.816   2.210   6.984  1.3579 -0.4357 -0.8144
   65bbb     H8 1897   2.683   2.286   6.901  0.1659  0.3100  0.3337
   65bbb     C5 1898   2.753   1.884   7.013 -0.4751 -0.0720 -0.2254
   65bbb     H9 1899   2.757   1.801   6.942 -3.6802 -0.6739  0.1496
   65bbb    H10 1900   2.708   1.833   7.099  1.3214 -0.0225  0.8014
   65bbb     C6 1901   2.475   1.870   6.727 -0.2585 -0.2850  0.0598
   65bbb    H11 1902   2.386   1.934   6.726  0.0585  0.1939  1.1571
   65bbb    H12 1903   2.460   1.821   6.824 -3.5121 -1.2601 -0.8111
   65bbb     C7 1904   2.870   2.350   6.812  0.2725  0.5870 -0.2419
   65bbb    H13 1905   2.861   2.449   6.859  2.4744  1.4389 -1.4682
   65bbb    H14 1906   2.828   2.369   6.712  0.2487 -0.9406 -0.5459
   65bbb     C8 1907   2.455   1.768   6.616  0.3125 -0.6714 -0.6937
   65bbb    H15 1908   2.454   1.817   6.518  1.3220  0.3114 -0.2400
   65bbb    H16 1909   2.366   1.706   6.636 -0.8145  0.6598 -1.4058
   65bbb     C9 1910   2.895   1.935   7.050  0.3236 -0.4787 -0.1343
   65bbb    H17 1911   2.882   2.012   7.127  1.3949  0.8486 -1.2082
   65bbb    H18 1912   2.939   1.969   6.955 -1.7604 -2.2397 -1.8194
   65bbb     O1 1913   3.004   2.298   6.792  0.5366 -0.0193 -0.1368
   66bbb     N1 1914   2.213   2.679   5.021 -0.4131  0.2824 -0.6279
   66bbb     C1 1915   2.086   2.686   4.946  0.2403  0.4051 -0.5181
   66bbb     H1 1916   2.090   2.615   4.863  1.1876 -0.9031  0.5905
   66bbb     H2 1917   2.068   2.786   4.904  0.4949  0.3591 -0.7409
   66bbb     C2 1918   2.247   2.547   5.081  0.2052  0.1211  0.4818
   66bbb     H3 1919   2.178   2.512   5.160  0.7652 -2.9382 -0.2374
   66bbb     H4 1920   2.347   2.552   5.125  0.6622  2.4951 -0.6725
   66bbb     C3 1921   2.326   2.722   4.939  0.1189  0.0488 -0.1927
   66bbb     H5 1922   2.315   2.685   4.836  0.0032 -0.3377 -0.0418
   66bbb     H6 1923   2.417   2.685   4.988 -0.1208  0.8153  0.8702
   66bbb     C4 1924   2.327   2.877   4.909  0.4529  0.8929  0.3333
   66bbb     H7 1925   2.332   2.934   5.002  0.7242  1.4559 -0.0163
   66bbb     H8 1926   2.235   2.902   4.854  0.0523 -2.5408 -0.8138
   66bbb     C5 1927   1.958   2.654   5.029 -0.3847  0.2396 -0.8075
   66bbb     H9 1928   1.967   2.701   5.127  2.0518 -2.0693  0.2086
   66bbb    H10 1929   1.969   2.545   5.039  2.0802  0.3274 -1.9211
   66bbb     C6 1930   2.255   2.423   4.985  0.8609  0.5762 -0.6447
   66bbb    H11 1931   2.319   2.448   4.899  1.5658  1.1796  0.0452
   66bbb    H12 1932   2.157   2.400   4.942 -0.6110  1.4414  1.9969
   66bbb     C7 1933   2.446   2.921   4.815  0.0806 -0.8339 -0.1188
   66bbb    H13 1934   2.537   2.904   4.874 -0.6966 -1.8396  0.8362
   66bbb    H14 1935   2.440   3.027   4.790  0.4931 -1.0168 -1.0346
   66bbb     C8 1936   2.317   2.299   5.050 -0.0825  0.0813  0.0601
   66bbb    H15 1937   2.422   2.308   5.079 -0.0237 -1.7580  0.5570
   66bbb    H16 1938   2.315   2.227   4.966 -0.2333 -0.6331  0.6652
   66bbb     C9 1939   1.834   2.693   4.951  0.5739 -0.2181 -0.6790
   66bbb    H17 1940   1.836   2.652   4.850 -0.9063 -1.1196 -0.3634
   66bbb    H18 1941   1.814   2.801   4.947 -2.8891 -0.6349  1.6285
   66bbb     O1 1942   2.458   2.843   4.692  0.0214 -0.8606  0.6286
   67bbb     N1 1943   3.260   1.973   4.202 -0.1679 -0.4463  0.7795
   67bbb     C1 1944   3.282   1.863   4.304 -0.7733 -0.1345 -0.8180
   67bbb     H1 1945   3.248   1.760   4.290 -0.6193 -0.5863  1.6662
   67bbb     H2 1946   3.236   1.899   4.397  2.6130 -1.0881  1.4225
   67bbb     C2 1947   3.340   1.960   4.070  0.1131  0.6529 -0.2209
   67bbb     H3 1948   3.444   1.949   4.103  0.5055 -0.4246 -1.6948
   67bbb     H4 1949   3.322   2.054   4.017  0.6446  1.2534  0.6453
   67bbb     C3 1950   3.126   2.028   4.176 -0.5472  1.2200 -0.0889
   67bbb     H5 1951   3.057   1.950   4.140 -3.2315  3.4041 -0.0245
   67bbb     H6 1952   3.133   2.103   4.096 -1.6648  2.9335  1.3329
   67bbb     C4 1953   3.059   2.097   4.294 -0.2822 -0.5041  0.4110
   67bbb     H7 1954   3.056   2.031   4.381  0.3698 -1.4800 -0.2979
   67bbb     H8 1955   2.958   2.124   4.260 -0.2865 -2.9574 -1.8426
   67bbb     C5 1956   3.431   1.839   4.342 -0.2851  0.1620 -0.1248
   67bbb     H9 1957   3.483   1.934   4.358  0.0908  0.2175 -1.5843
   67bbb    H10 1958   3.483   1.791   4.257  0.2173 -0.8786  0.7396
   67bbb     C6 1959   3.289   1.833   3.978 -0.9207  0.0760  0.0131
   67bbb    H11 1960   3.195   1.845   3.922 -1.0110 -1.7427 -0.2839
   67bbb    H12 1961   3.273   1.740   4.035 -0.9223 -0.1107 -0.2932
   67bbb     C7 1962   3.139   2.228   4.338 -0.3391 -0.2776 -0.0946
   67bbb    H13 1963   3.182   2.295   4.263 -0.2636  1.8284  1.7482
   67bbb    H14 1964   3.214   2.198   4.412 -1.0400 -1.8551  0.0239
   67bbb     C8 1965   3.395   1.804   3.871  0.0264 -0.8257  0.0777
   67bbb    H15 1966   3.420   1.900   3.824  1.8590 -1.6532 -0.7257
   67bbb    H16 1967   3.350   1.735   3.798  0.2691  0.2434 -1.1096
   67bbb     C9 1968   3.450   1.753   4.467 -0.6317  0.5329 -0.1221
   67bbb    H17 1969   3.418   1.652   4.441  1.3383 -0.4523  1.0533
   67bbb    H18 1970   3.378   1.788   4.543 -0.3730  2.6386 -0.7823
   67bbb     O1 1971   3.039   2.311   4.407  0.0230 -0.0739 -0.3366
   68bbb     N1 1972   0.960   1.924   6.605 -0.0370  0.4087 -0.0590
   68bbb     C1 1973   0.950   2.018   6.717  0.3892  0.0137 -0.4622
   68bbb     H1 1974   0.844   2.042   6.731  0.9556  1.1125  2.6065
   68bbb     H2 1975   0.999   2.111   6.685 -0.2881  0.9837  1.2350
   68bbb     C2 1976   0.883   1.973   6.484  0.7610  0.5500 -0.3536
   68bbb     H3 1977   0.911   2.077   6.460  0.8904  0.3031 -1.3174
   68bbb     H4 1978   0.779   1.978   6.518  0.4820 -1.1700 -0.8567
   68bbb     C3 1979   1.099   1.879   6.565  0.4498 -0.8139  0.6817
   68bbb     H5 1980   1.096   1.802   6.487  0.1173 -1.0089  0.8856
   68bbb     H6 1981   1.152   1.830   6.648  1.9348  1.3785  1.1122
   68bbb     C4 1982   1.193   1.988   6.529  0.8213 -0.3392 -0.3151
   68bbb     H7 1983   1.253   2.024   6.613 -0.4151 -0.0534  0.4657
   68bbb     H8 1984   1.136   2.077   6.500 -0.2952 -1.0656 -0.3910
   68bbb     C5 1985   1.011   1.968   6.858  0.5161  0.9587 -0.4772
   68bbb     H9 1986   1.117   1.947   6.841  0.1521 -1.3056 -0.3351
   68bbb    H10 1987   0.957   1.878   6.890 -0.1780  1.2783 -0.7418
   68bbb     C6 1988   0.876   1.902   6.349  0.4044 -0.2111 -0.2790
   68bbb    H11 1989   0.840   1.802   6.376  0.2719  0.1989  1.1736
   68bbb    H12 1990   0.978   1.897   6.309 -0.0359  0.3106 -1.4953
   68bbb     C7 1991   1.286   1.946   6.412  0.2946  0.4674 -0.2968
   68bbb    H13 1992   1.233   1.885   6.339 -0.3094 -0.8515  1.1849
   68bbb    H14 1993   1.366   1.881   6.450  1.3309  1.9126  0.0793
   68bbb     C8 1994   0.775   1.959   6.243 -0.5610 -0.2030 -0.2581
   68bbb    H15 1995   0.688   1.995   6.298 -0.9124 -0.8626 -0.3763
   68bbb    H16 1996   0.748   1.877   6.175 -1.1993  1.4092 -2.0333
   68bbb     C9 1997   0.993   2.073   6.964 -0.2443  0.0668 -0.5052
   68bbb    H17 1998   1.002   2.029   7.064 -0.6256 -0.8571 -0.8572
   68bbb    H18 1999   0.885   2.086   6.948 -0.6264 -3.1871 -1.4312
   68bbb     O1 2000   1.346   2.056   6.350 -0.0425  0.1164  0.0179
   69bbb     N1 2001   1.995   2.842   6.073 -0.2987  0.5364 -0.7482
   69bbb     C1 2002   2.104   2.751   6.125  0.0195 -0.4108 -0.3603
   69bbb     H1 2003   2.057   2.680   6.195 -1.4273  0.6144 -0.2401
   69bbb     H2 2004   2.177   2.817   6.174 -2.2340  3.0929 -1.2967
   69bbb     C2 2005   1.934   2.925   6.177 -0.0597  1.0529  0.0080
   69bbb     H3 2006   1.877   2.884   6.261  0.0986  0.1572 -0.3142
   69bbb     H4 2007   1.857   2.990   6.131  0.0561  2.8541  2.1671
   69bbb     C3 2008   1.890   2.761   6.010 -0.5732  0.3562  0.1558
   69bbb     H5 2009   1.844   2.694   6.084 -0.2838  0.2865  0.2710
   69bbb     H6 2010   1.919   2.689   5.933 -1.0123  1.6994 -1.3299
   69bbb     C4 2011   1.772   2.833   5.931 -0.2031  0.4116 -0.7851
   69bbb     H7 2012   1.799   2.880   5.835 -0.2054  0.0061 -0.9871
   69bbb     H8 2013   1.734   2.904   6.005  0.2986  0.6356 -0.7384
   69bbb     C5 2014   2.178   2.665   6.020  0.2781  0.8640  0.3755
   69bbb     H9 2015   2.200   2.724   5.931  0.0090 -0.3372 -0.5213
   69bbb    H10 2016   2.103   2.595   5.981 -0.1226  1.6220 -0.2448
   69bbb     C6 2017   2.029   3.025   6.243 -0.2680  0.2209 -0.2766
   69bbb    H11 2018   2.112   3.055   6.178  0.6911 -0.4681  0.6005
   69bbb    H12 2019   2.095   2.975   6.315 -0.0319  0.4249 -0.3534
   69bbb     C7 2020   1.650   2.737   5.896 -0.3568 -0.0749  0.0475
   69bbb    H13 2021   1.672   2.648   5.837  2.1100 -0.1564  0.9366
   69bbb    H14 2022   1.579   2.794   5.835  0.6055  1.3898  0.2439
   69bbb     C8 2023   1.966   3.156   6.304  0.2779 -0.1986 -0.8155
   69bbb    H15 2024   1.942   3.237   6.234  0.4540  1.1061  0.5646
   69bbb    H16 2025   2.032   3.203   6.378 -0.9631  1.0715 -0.4591
   69bbb     C9 2026   2.297   2.575   6.066 -0.2166 -0.2617  0.0300
   69bbb    H17 2027   2.313   2.489   6.000  0.4924 -1.9303  2.2392
   69bbb    H18 2028   2.276   2.524   6.161 -2.1095  2.0233  0.9437
   69bbb     O1 2029   1.591   2.687   6.018 -0.0857 -0.8924 -0.1436
   70bbb     N1 2030   1.854  -0.693   3.674 -0.3592  0.4859  0.1708
   70bbb     C1 2031   1.951  -0.785   3.737 -0.6004  0.0779 -1.1344
   70bbb     H1 2032   1.915  -0.886   3.759  0.1570 -0.0994 -0.6561
   70bbb     H2 2033   1.960  -0.744   3.839 -1.1843 -1.8015 -0.2868
   70bbb     C2 2034   1.717  -0.676   3.744  0.6922  0.1288  0.1629
   70bbb     H3 2035   1.657  -0.606   3.685  0.3674 -0.5418 -0.3221
   70bbb     H4 2036   1.728  -0.617   3.835  1.2548  2.5834 -1.4167
   70bbb     C3 2037   1.908  -0.556   3.633 -0.9990 -0.6049  0.3856
   70bbb     H5 2038   1.829  -0.490   3.595 -0.9535 -0.6125  0.2767
   70bbb     H6 2039   1.957  -0.572   3.537 -1.0592 -0.7015  0.3705
   70bbb     C4 2040   1.993  -0.473   3.730  0.0209  0.0565  0.0181
   70bbb     H7 2041   2.039  -0.387   3.680 -1.5403  2.5747  2.5836
   70bbb     H8 2042   2.071  -0.530   3.781  1.0255  0.8503 -0.6059
   70bbb     C5 2043   2.089  -0.792   3.663 -0.0995 -0.2994  0.3295
   70bbb     H9 2044   2.143  -0.696   3.666  0.1383 -0.3473 -1.4527
   70bbb    H10 2045   2.068  -0.808   3.556  1.2685  1.3396 -0.2424
   70bbb     C6 2046   1.628  -0.802   3.754 -0.7081 -0.2795  0.2224
   70bbb    H11 2047   1.629  -0.851   3.656 -0.1284  0.9385 -0.4076
   70bbb    H12 2048   1.526  -0.766   3.772 -1.8764 -2.8341 -0.7417
   70bbb     C7 2049   1.916  -0.402   3.845  0.2215 -0.2824  0.2037
   70bbb    H13 2050   1.876  -0.484   3.907 -2.0981  0.8757  0.3201
   70bbb    H14 2051   1.828  -0.350   3.807 -0.6513 -0.6880  1.5607
   70bbb     C8 2052   1.675  -0.896   3.871  0.0971 -0.6878 -0.0897
   70bbb    H15 2053   1.720  -0.837   3.951  0.3276 -1.4695  0.3743
   70bbb    H16 2054   1.751  -0.963   3.831  0.7071  0.0258 -0.1334
   70bbb     C9 2055   2.183  -0.903   3.723  0.6622 -0.5183 -0.0364
   70bbb    H17 2056   2.185  -0.894   3.832 -0.0875 -3.1359  0.2705
   70bbb    H18 2057   2.286  -0.896   3.687 -0.3678  2.0138 -2.9630
   70bbb     O1 2058   2.009  -0.322   3.923  0.1958 -0.4511  0.0833
   71bbb     N1 2059   0.986  -0.172   4.694  0.1762  0.4485  0.6688
   71bbb     C1 2060   0.878  -0.149   4.595  0.4162 -1.0329  0.1428
   71bbb     H1 2061   0.785  -0.195   4.629  1.0294 -2.1784  0.3086
   71bbb     H2 2062   0.918  -0.189   4.500  0.9200 -1.0737  0.3662
   71bbb     C2 2063   0.991  -0.315   4.732  0.6944 -0.1861 -0.6533
   71bbb     H3 2064   1.017  -0.380   4.647  0.6979  1.7416 -2.1946
   71bbb     H4 2065   0.896  -0.354   4.770  1.0617 -0.6129 -0.1550
   71bbb     C3 2066   1.112  -0.104   4.661 -0.4203 -0.7262  0.2704
   71bbb     H5 2067   1.178  -0.118   4.747 -0.3894  1.8700  0.7534
   71bbb     H6 2068   1.099   0.005   4.654  0.3918 -0.7169 -1.4412
   71bbb     C4 2069   1.184  -0.138   4.526  0.0206  0.2251  0.1412
   71bbb     H7 2070   1.109  -0.140   4.446  0.5103 -0.7902 -0.3082
   71bbb     H8 2071   1.232  -0.236   4.536 -1.3857 -0.5219 -0.1622
   71bbb     C5 2072   0.858   0.008   4.565  0.3494 -0.0247 -0.1601
   71bbb     H9 2073   0.937   0.029   4.493  0.6197  2.3783  0.7502
   71bbb    H10 2074   0.878   0.072   4.652 -0.1794  2.7048 -1.9187
   71bbb     C6 2075   1.090  -0.343   4.849 -0.0531 -1.2749 -0.5468
   71bbb    H11 2076   1.106  -0.246   4.896  0.4172 -1.4158 -0.4199
   71bbb    H12 2077   1.182  -0.391   4.812 -0.1308 -2.0660  0.2444
   71bbb     C7 2078   1.294  -0.042   4.487 -0.0463  0.2140 -0.2722
   71bbb    H13 2079   1.353  -0.026   4.579  0.5479 -0.5761 -0.4946
   71bbb    H14 2080   1.241   0.049   4.459  0.1667  0.5615  0.4390
   71bbb     C8 2081   1.029  -0.437   4.956 -0.2991 -0.0581 -0.4660
   71bbb    H15 2082   0.978  -0.524   4.915  1.5282 -0.2049 -2.6672
   71bbb    H16 2083   0.959  -0.370   5.008  0.5073  0.1936  0.3210
   71bbb     C9 2084   0.715   0.032   4.498  0.0415  0.6571 -0.6114
   71bbb    H17 2085   0.641  -0.016   4.564  0.0202  1.1612 -0.2589
   71bbb    H18 2086   0.717  -0.027   4.406 -0.6472 -1.0995  0.4550
   71bbb     O1 2087   1.369  -0.097   4.373 -0.0728 -0.0835  0.1724
   72bbb     N1 2088   3.937   0.165   5.198  0.0292 -0.2219 -0.9585
   72bbb     C1 2089   3.949   0.244   5.322  0.2919  0.2938  0.4577
   72bbb     H1 2090   3.847   0.268   5.354 -0.3387 -1.3766 -0.1535
   72bbb     H2 2091   3.997   0.340   5.301 -1.9035  1.9774  2.5412
   72bbb     C2 2092   4.057   0.091   5.145 -0.3465 -0.0243 -0.0888
   72bbb     H3 2093   4.032   0.029   5.058  1.8851  0.0813 -0.8610
   72bbb     H4 2094   4.090   0.018   5.219 -0.2719 -0.1537 -0.2477
   72bbb     C3 2095   3.853   0.237   5.092 -0.0781  0.2215 -0.4775
   72bbb     H5 2096   3.904   0.321   5.044  2.6685 -1.2891 -0.4238
   72bbb     H6 2097   3.763   0.274   5.143  0.3536 -0.4353  0.8126
   72bbb     C4 2098   3.801   0.137   4.992  0.3573  1.2478  0.7670
   72bbb     H7 2099   3.790   0.032   5.023  1.5959  1.6012  2.5866
   72bbb     H8 2100   3.875   0.131   4.912 -1.0180 -0.9766 -0.4460
   72bbb     C5 2101   4.021   0.170   5.443  0.6796 -0.2491  0.5277
   72bbb     H9 2102   4.129   0.190   5.440  0.4238  1.3055  0.6245
   72bbb    H10 2103   4.011   0.064   5.418  1.4306  0.0639 -1.2592
   72bbb     C6 2104   4.182   0.176   5.115  0.1653  0.5448 -0.2147
   72bbb    H11 2105   4.252   0.096   5.085  0.1328  0.2961  0.3575
   72bbb    H12 2106   4.223   0.220   5.206  2.0524 -0.3647 -0.5616
   72bbb     C7 2107   3.679   0.188   4.922  0.1102  0.8450 -0.3132
   72bbb    H13 2108   3.692   0.288   4.879 -0.1823 -0.3700 -3.5462
   72bbb    H14 2109   3.591   0.189   4.988  1.4871 -0.2188  1.6102
   72bbb     C8 2110   4.189   0.290   5.017  0.9905  0.5001  0.2055
   72bbb    H15 2111   4.094   0.345   5.020  1.0918  0.6315  1.7078
   72bbb    H16 2112   4.205   0.239   4.921  0.7310 -1.1830  1.0196
   72bbb     C9 2113   3.959   0.200   5.580 -0.2001  0.2235 -0.2162
   72bbb    H17 2114   3.856   0.161   5.580  0.5787 -2.0204  0.0075
   72bbb    H18 2115   3.960   0.308   5.595 -1.7579  0.3902 -1.0277
   72bbb     O1 2116   3.641   0.100   4.810 -0.1145  0.0290 -0.3166
   73bbb     N1 2117   3.149  -0.265   5.672  0.2790 -0.0616 -0.1427
   73bbb     C1 2118   3.027  -0.277   5.757 -0.1733  0.5745  0.6455
   73bbb     H1 2119   3.013  -0.184   5.815  0.7083  0.7587  0.5771
   73bbb     H2 2120   3.045  -0.355   5.832  1.6154  1.4871  1.2391
   73bbb     C2 2121   3.265  -0.199   5.736  0.4308  0.1209  0.2685
   73bbb     H3 2122   3.343  -0.179   5.662  1.3356 -0.3278  1.0910
   73bbb     H4 2123   3.315  -0.273   5.800 -2.2101 -1.4260  0.7214
   73bbb     C3 2124   3.180  -0.378   5.586  0.4516 -0.3104  0.1655
   73bbb     H5 2125   3.085  -0.414   5.544  1.2248 -0.8496 -1.1817
   73bbb     H6 2126   3.226  -0.457   5.646 -0.0278 -0.9098 -0.2407
   73bbb     C4 2127   3.269  -0.353   5.468 -0.5380 -0.6641  0.2546
   73bbb     H7 2128   3.274  -0.439   5.400  0.2881 -0.6041  0.2376
   73bbb     H8 2129   3.367  -0.340   5.516  0.0502 -0.1504 -1.0564
   73bbb     C5 2130   2.894  -0.305   5.675 -0.3573 -0.4092 -0.1159
   73bbb     H9 2131   2.899  -0.413   5.654  1.4568 -0.5724  1.0024
   73bbb    H10 2132   2.891  -0.249   5.581  2.7019 -0.1440 -0.1501
   73bbb     C6 2133   3.237  -0.075   5.817  0.3505  0.2237  0.2938
   73bbb    H11 2134   3.324  -0.043   5.877  0.2732 -1.0298  1.1145
   73bbb    H12 2135   3.169  -0.084   5.902 -0.1794 -2.0749 -0.3262
   73bbb     C7 2136   3.227  -0.233   5.390 -0.6446 -0.2678 -0.4019
   73bbb    H13 2137   3.269  -0.147   5.442  0.5326 -0.8228 -0.4171
   73bbb    H14 2138   3.117  -0.231   5.390 -0.6599 -0.8161  0.0738
   73bbb     C8 2139   3.197   0.043   5.728  0.1154 -0.7527 -0.5478
   73bbb    H15 2140   3.118   0.020   5.656 -1.1516 -2.7820  1.3819
   73bbb    H16 2141   3.278   0.068   5.658  1.3037  1.0131  1.3274
   73bbb     C9 2142   2.776  -0.269   5.769  0.2241 -0.6102 -0.2348
   73bbb    H17 2143   2.765  -0.345   5.848  0.2955 -0.7250 -0.3359
   73bbb    H18 2144   2.681  -0.271   5.714  0.5416  0.3744 -0.8353
   73bbb     O1 2145   3.273  -0.232   5.255  0.0540 -0.3145  0.4711
   74bbb     N1 2146   1.365   1.924   5.644  0.9162 -0.4571  0.3048
   74bbb     C1 2147   1.371   1.813   5.734 -0.0290 -0.6259 -0.6163
   74bbb     H1 2148   1.291   1.827   5.808  0.5670 -1.4674  0.2045
   74bbb     H2 2149   1.461   1.807   5.796  0.5219  2.1674 -0.9984
   74bbb     C2 2150   1.236   1.925   5.560 -0.6029 -0.0867 -0.4737
   74bbb     H3 2151   1.149   1.924   5.627  2.1544  0.1102  3.4059
   74bbb     H4 2152   1.244   1.835   5.498 -0.7482  0.5795 -1.4768
   74bbb     C3 2153   1.486   1.933   5.562  0.2853  0.7258  0.5278
   74bbb     H5 2154   1.483   2.009   5.483  0.9684  0.9427  0.7069
   74bbb     H6 2155   1.483   1.833   5.516 -0.1414  0.7667  0.4664
   74bbb     C4 2156   1.617   1.946   5.640 -0.2515 -0.1924  0.2034
   74bbb     H7 2157   1.623   1.856   5.703 -3.0931 -0.6737 -0.0593
   74bbb     H8 2158   1.625   2.030   5.710  0.3442 -0.3125  0.2793
   74bbb     C5 2159   1.349   1.671   5.677  0.6005  0.3676 -0.3138
   74bbb     H9 2160   1.418   1.639   5.598  0.8898  0.9159 -0.2884
   74bbb    H10 2161   1.246   1.662   5.642  0.3630 -1.4919  0.6998
   74bbb     C6 2162   1.225   2.039   5.462  0.1606 -0.3721 -0.2976
   74bbb    H11 2163   1.318   2.049   5.405  0.5941  0.2889  0.4940
   74bbb    H12 2164   1.219   2.135   5.515 -3.0248 -0.2710 -0.6584
   74bbb     C7 2165   1.747   1.950   5.549  0.0001  0.1302  0.5508
   74bbb    H13 2166   1.734   1.867   5.479  0.6570  0.4867  0.0004
   74bbb    H14 2167   1.835   1.942   5.613 -0.7218  1.5020  1.7875
   74bbb     C8 2168   1.102   2.026   5.369 -0.8547  0.1063  0.9063
   74bbb    H15 2169   1.127   2.078   5.276 -1.2509 -2.4819 -0.7459
   74bbb    H16 2170   1.006   2.060   5.410 -0.9916  1.8131 -0.6981
   74bbb     C9 2171   1.366   1.564   5.791 -0.5307 -0.5316  0.3920
   74bbb    H17 2172   1.363   1.464   5.744  0.6637 -0.6419  0.5124
   74bbb    H18 2173   1.290   1.576   5.869 -0.3750  1.5501  0.2795
   74bbb     O1 2174   1.738   2.070   5.472 -0.7259 -0.1311  0.8746
   75bbb     N1 2175   1.295   1.189   5.230 -0.8320  0.2093  0.1124
   75bbb     C1 2176   1.299   1.040   5.212 -0.5128 -0.8690  0.0418
   75bbb     H1 2177   1.375   0.994   5.277  0.0199 -1.5223 -1.0169
   75bbb     H2 2178   1.330   1.010   5.111  0.3854 -0.8069  0.2848
   75bbb     C2 2179   1.196   1.258   5.139  0.0990 -0.8598  0.6769
   75bbb     H3 2180   1.229   1.363   5.148  1.0738 -1.1679  0.8158
   75bbb     H4 2181   1.095   1.247   5.180  0.1804  1.0312  1.5311
   75bbb     C3 2182   1.291   1.234   5.374 -0.2485 -1.0244 -0.2053
   75bbb     H5 2183   1.341   1.166   5.444 -0.7839  0.1314  1.3385
   75bbb     H6 2184   1.189   1.226   5.414 -0.6501  2.1945 -0.3484
   75bbb     C4 2185   1.344   1.379   5.409  0.3580  0.3935  0.2211
   75bbb     H7 2186   1.354   1.383   5.518 -0.4177  0.2659  0.2960
   75bbb     H8 2187   1.264   1.447   5.378 -0.8569  0.3815  3.0255
   75bbb     C5 2188   1.171   0.965   5.246  0.4847  0.7615 -0.4683
   75bbb     H9 2189   1.167   0.865   5.200  0.5828  0.6585 -0.2507
   75bbb    H10 2190   1.086   1.029   5.218 -0.9773 -0.4053  1.0937
   75bbb     C6 2191   1.193   1.222   4.992  0.6394  0.4812  0.6662
   75bbb    H11 2192   1.113   1.279   4.943  0.0598 -0.6347  0.2640
   75bbb    H12 2193   1.162   1.117   4.989  0.3762  0.5774 -0.4480
   75bbb     C7 2194   1.474   1.412   5.336 -0.0212  0.3528  0.1328
   75bbb    H13 2195   1.495   1.361   5.241  1.4483 -1.3123  1.2894
   75bbb    H14 2196   1.562   1.395   5.399 -0.6087  2.1545  1.5354
   75bbb     C8 2197   1.334   1.240   4.923 -0.2659  0.5036  0.5903
   75bbb    H15 2198   1.408   1.173   4.969 -0.6529 -0.1464  0.2931
   75bbb    H16 2199   1.367   1.344   4.935  0.8612  0.0191  1.9473
   75bbb     C9 2200   1.160   0.935   5.397 -0.4532 -0.1069  0.1644
   75bbb    H17 2201   1.152   1.025   5.459 -0.3966 -1.3755  2.1059
   75bbb    H18 2202   1.257   0.891   5.426  0.1811  0.8833 -0.4043
   75bbb     O1 2203   1.488   1.556   5.308  0.9220  0.4009  0.6006
   76bbb     N1 2204   3.266   1.315   3.788  0.4337 -0.2900 -0.0072
   76bbb     C1 2205   3.359   1.337   3.907  0.0980  0.2470  0.5718
   76bbb     H1 2206   3.454   1.376   3.870  0.1632 -1.4733 -1.2065
   76bbb     H2 2207   3.387   1.241   3.952 -2.5937 -0.5751  0.6683
   76bbb     C2 2208   3.295   1.197   3.699  0.0362 -0.2804 -0.5992
   76bbb     H3 2209   3.387   1.226   3.645  1.3277 -1.6739  0.7630
   76bbb     H4 2210   3.215   1.188   3.625 -2.4551 -0.6219  1.9804
   76bbb     C3 2211   3.244   1.443   3.719 -0.5434 -0.1234 -0.2620
   76bbb     H5 2212   3.310   1.462   3.633  0.2136 -1.0760  0.0846
   76bbb     H6 2213   3.248   1.524   3.792 -2.2135  0.7470 -1.0874
   76bbb     C4 2214   3.103   1.447   3.655  0.3185  0.1677 -0.1619
   76bbb     H7 2215   3.083   1.363   3.587  0.2507  2.2234 -2.8643
   76bbb     H8 2216   3.105   1.534   3.589  0.7147  1.8275  1.9310
   76bbb     C5 2217   3.309   1.416   4.035  0.1892  0.7537 -0.0467
   76bbb     H9 2218   3.309   1.522   4.007 -0.6251  0.9017  0.4790
   76bbb    H10 2219   3.375   1.407   4.122 -0.5751 -1.1234  0.3801
   76bbb     C6 2220   3.314   1.056   3.768  0.8953 -0.0436  0.4538
   76bbb    H11 2221   3.402   1.059   3.833 -0.6359  1.6061  2.5960
   76bbb    H12 2222   3.328   0.982   3.688  0.4882  1.4786 -1.0803
   76bbb     C7 2223   2.994   1.456   3.751 -0.2279 -1.0461 -0.4008
   76bbb    H13 2224   3.025   1.383   3.827  1.4310 -0.8148 -0.8205
   76bbb    H14 2225   2.891   1.440   3.716 -1.7553  0.7602  2.7680
   76bbb     C8 2226   3.203   1.025   3.873  0.5212 -0.3381 -0.2435
   76bbb    H15 2227   3.112   1.001   3.817  1.1479 -2.0909 -0.5783
   76bbb    H16 2228   3.170   1.113   3.928 -1.9557 -1.2638 -0.1276
   76bbb     C9 2229   3.163   1.384   4.071  0.9092 -0.2797  0.2878
   76bbb    H17 2230   3.104   1.324   4.001  0.6916 -0.9271  1.0183
   76bbb    H18 2231   3.107   1.479   4.070  1.0152 -0.1988  1.2198
   76bbb     O1 2232   3.011   1.582   3.819  0.7443  0.6001 -0.0410
   77bbb     N1 2233   2.062   1.220   4.037 -0.6678  1.1349 -0.4459
   77bbb     C1 2234   2.082   1.111   4.139 -0.1987  0.8538 -0.0879
   77bbb     H1 2235   2.052   1.137   4.241 -0.8838 -1.9868  0.5092
   77bbb     H2 2236   2.189   1.088   4.146 -0.3944  0.3961  2.1671
   77bbb     C2 2237   1.926   1.270   4.038  0.8075 -0.5374  0.6436
   77bbb     H3 2238   1.859   1.183   4.046 -1.1147  0.8206  0.2247
   77bbb     H4 2239   1.903   1.320   3.944  0.5214 -1.3938  0.2476
   77bbb     C3 2240   2.166   1.329   4.045 -0.0659  0.2197 -0.1462
   77bbb     H5 2241   2.265   1.284   4.053  0.8885  2.1385 -0.6374
   77bbb     H6 2242   2.143   1.377   4.141 -0.0485 -1.8636  0.9356
   77bbb     C4 2243   2.153   1.431   3.920  0.2141 -0.6342 -0.0150
   77bbb     H7 2244   2.067   1.498   3.923 -1.1217 -2.1190 -2.1351
   77bbb     H8 2245   2.132   1.370   3.831  0.4911 -0.0150 -0.5139
   77bbb     C5 2246   2.006   0.977   4.099  0.5151 -0.6163  0.2646
   77bbb     H9 2247   2.051   0.959   4.001 -0.6397  1.3873 -0.6984
   77bbb    H10 2248   1.898   0.982   4.084  0.8825  1.9109 -2.3089
   77bbb     C6 2249   1.882   1.368   4.150  0.6158 -0.1104 -0.0732
   77bbb    H11 2250   1.931   1.464   4.134  0.6408 -0.4956 -2.7088
   77bbb    H12 2251   1.917   1.326   4.245 -1.6715 -0.9375  0.4710
   77bbb     C7 2252   2.284   1.501   3.888 -0.1788  0.3145 -0.8476
   77bbb    H13 2253   2.277   1.573   3.806  1.6486  0.6319 -0.7757
   77bbb    H14 2254   2.375   1.444   3.867 -0.5804 -0.3167 -0.9088
   77bbb     C8 2255   1.731   1.382   4.162  0.2342  0.1260 -0.4919
   77bbb    H15 2256   1.688   1.292   4.207  0.3360  0.8071  1.0372
   77bbb    H16 2257   1.686   1.377   4.063 -3.3508  0.6428  0.9530
   77bbb     C9 2258   2.039   0.871   4.203  0.5444 -0.7773  0.6572
   77bbb    H17 2259   2.025   0.919   4.301 -1.6045  1.5847 -0.6734
   77bbb    H18 2260   2.145   0.844   4.192  0.6487  0.1549 -1.0250
   77bbb     O1 2261   2.307   1.592   3.999  0.5040 -0.1006 -0.2503
   78bbb     N1 2262   3.414  -0.378   3.613 -0.1602 -0.1225  0.0139
   78bbb     C1 2263   3.467  -0.245   3.581 -0.5431 -0.1449  0.2261
   78bbb     H1 2264   3.554  -0.227   3.646  0.8060 -2.9177 -0.6573
   78bbb     H2 2265   3.392  -0.165   3.583 -0.7777 -0.2015 -2.3324
   78bbb     C2 2266   3.282  -0.394   3.545 -0.1097 -0.6224  0.3125
   78bbb     H3 2267   3.306  -0.385   3.438 -0.0297 -2.5457  0.1295
   78bbb     H4 2268   3.209  -0.321   3.583  3.1326  2.4456  1.2265
   78bbb     C3 2269   3.416  -0.401   3.760 -0.1167 -0.5295  0.4914
   78bbb     H5 2270   3.517  -0.408   3.802  0.6961 -0.0601 -1.3125
   78bbb     H6 2271   3.389  -0.507   3.774 -0.3917 -0.9384 -2.5525
   78bbb     C4 2272   3.326  -0.316   3.851 -0.1847 -0.4825 -0.1823
   78bbb     H7 2273   3.224  -0.325   3.813  0.4159 -2.2388 -1.5624
   78bbb     H8 2274   3.348  -0.209   3.839 -0.9582 -0.4050 -0.9972
   78bbb     C5 2275   3.523  -0.235   3.439 -0.6447 -0.0613 -0.3627
   78bbb     H9 2276   3.433  -0.241   3.376 -1.1544  1.8296  0.1383
   78bbb    H10 2277   3.582  -0.322   3.406  0.6212  0.7609 -0.3432
   78bbb     C6 2278   3.213  -0.536   3.544 -0.0888  0.1147  0.4154
   78bbb    H11 2279   3.288  -0.611   3.517  0.4095  0.6755  0.2214
   78bbb    H12 2280   3.146  -0.549   3.458 -0.2853  0.1424  0.5635
   78bbb     C7 2281   3.344  -0.348   3.999  0.2029  0.1868  0.3829
   78bbb    H13 2282   3.433  -0.293   4.031  1.1683 -1.6066  0.8989
   78bbb    H14 2283   3.379  -0.452   4.001 -0.1096  0.0231 -1.5320
   78bbb     C8 2284   3.140  -0.581   3.673  0.0835  0.1153 -0.0317
   78bbb    H15 2285   3.202  -0.549   3.758 -0.4319  1.2006 -0.0595
   78bbb    H16 2286   3.139  -0.689   3.653  0.3226  0.3446 -1.3329
   78bbb     C9 2287   3.597  -0.100   3.418 -0.4017  0.3454 -0.1999
   78bbb    H17 2288   3.524  -0.018   3.413  0.1855  0.8321 -0.9915
   78bbb    H18 2289   3.641  -0.103   3.318  0.1961 -0.5160  0.0751
   78bbb     O1 2290   3.222  -0.334   4.071  0.6461  0.3258  0.2038
   79bbb     N1 2291   3.337  -0.894   5.345 -0.3884 -0.0155  0.1074
   79bbb     C1 2292   3.405  -0.875   5.475 -0.3254 -0.8139  0.0984
   79bbb     H1 2293   3.330  -0.825   5.537  2.0093 -0.3837  2.7700
   79bbb     H2 2294   3.497  -0.815   5.469 -0.2868 -0.9775 -1.1226
   79bbb     C2 2295   3.222  -0.989   5.345 -0.0409  0.0747  0.7140
   79bbb     H3 2296   3.262  -1.090   5.361  0.1247  0.2770  1.6486
   79bbb     H4 2297   3.186  -0.979   5.242  0.0732  2.6173  0.8600
   79bbb     C3 2298   3.311  -0.763   5.282  0.1532 -0.5358 -0.3639
   79bbb     H5 2299   3.400  -0.700   5.296 -1.8873  2.1943  1.5580
   79bbb     H6 2300   3.246  -0.704   5.348  0.6856  1.2744 -1.3639
   79bbb     C4 2301   3.256  -0.748   5.141  0.7482 -0.6381 -0.8986
   79bbb     H7 2302   3.159  -0.798   5.134  0.5915 -0.2852 -1.3828
   79bbb     H8 2303   3.322  -0.799   5.069  0.3576  1.0371 -2.5425
   79bbb     C5 2304   3.453  -1.001   5.552 -0.1226  0.3686  0.4765
   79bbb     H9 2305   3.373  -1.057   5.602 -0.4257 -1.8179 -2.2456
   79bbb    H10 2306   3.511  -0.959   5.635  1.0155  0.4261 -0.3211
   79bbb     C6 2307   3.114  -0.958   5.450  0.4763 -0.1764  0.0010
   79bbb    H11 2308   3.076  -0.855   5.440 -0.2374 -0.3482  0.7693
   79bbb    H12 2309   3.157  -0.969   5.550 -0.2895 -1.0045  0.2448
   79bbb     C7 2310   3.236  -0.603   5.100  0.0604 -0.1929  0.2816
   79bbb    H13 2311   3.335  -0.556   5.103 -0.1349  0.2013  2.6156
   79bbb    H14 2312   3.165  -0.552   5.167 -0.4748 -0.5115 -0.0367
   79bbb     C8 2313   2.993  -1.046   5.440  0.0880  0.0431  0.9020
   79bbb    H15 2314   3.010  -1.141   5.491 -5.0629 -0.6694  1.8589
   79bbb    H16 2315   2.964  -1.072   5.337  0.3788 -1.6953  1.2169
   79bbb     C9 2316   3.539  -1.093   5.458 -0.4745  0.4652 -0.6741
   79bbb    H17 2317   3.630  -1.041   5.426  0.0249 -0.0625 -0.1301
   79bbb    H18 2318   3.470  -1.111   5.375 -3.9207  1.3245  1.7690
   79bbb     O1 2319   3.181  -0.607   4.964  0.2347 -0.0485 -0.4481
   80bbb     N1 2320   3.151   0.157   4.120  0.0401  0.2424  0.1699
   80bbb     C1 2321   3.057   0.041   4.087  0.6295  0.0701 -0.4431
   80bbb     H1 2322   2.958   0.071   4.122  0.9789 -1.5908  2.2890
   80bbb     H2 2323   3.083  -0.042   4.154  0.0059 -0.2803 -0.6290
   80bbb     C2 2324   3.302   0.132   4.116  0.6216 -0.0217  0.2595
   80bbb     H3 2325   3.360   0.224   4.126 -1.0709  1.1900 -0.5999
   80bbb     H4 2326   3.338   0.099   4.018  2.4775  0.4583  0.7381
   80bbb     C3 2327   3.122   0.290   4.061 -1.0558 -0.0393  0.4905
   80bbb     H5 2328   3.127   0.294   3.952 -0.4904  0.7051  0.5360
   80bbb     H6 2329   3.202   0.358   4.095 -0.9629  0.1465 -0.1017
   80bbb     C4 2330   2.987   0.343   4.092 -0.3141 -0.1333 -0.1264
   80bbb     H7 2331   2.961   0.315   4.195  2.2293 -1.3536  0.2730
   80bbb     H8 2332   2.924   0.284   4.024  0.7375 -0.8704 -0.4952
   80bbb     C5 2333   3.043  -0.011   3.943  0.4496  0.2556 -0.2116
   80bbb     H9 2334   3.146  -0.032   3.911  1.2025  2.1749  0.8194
   80bbb    H10 2335   3.014   0.073   3.879  2.6591  0.3163 -1.2301
   80bbb     C6 2336   3.358   0.015   4.207 -0.3940  0.7800 -0.0840
   80bbb    H11 2337   3.319  -0.075   4.158  1.4029 -1.1693  1.7970
   80bbb    H12 2338   3.317   0.023   4.309  1.7032  1.9249  0.7411
   80bbb     C7 2339   2.946   0.491   4.059  0.7617 -0.0568  1.0067
   80bbb    H13 2340   2.845   0.502   4.102  1.0181 -0.8579  1.8314
   80bbb    H14 2341   2.950   0.490   3.949  3.0148  1.2924  1.0225
   80bbb     C8 2342   3.517   0.018   4.205 -0.0764  0.4076 -0.5525
   80bbb    H15 2343   3.543   0.050   4.103  0.1343  0.0008 -0.6299
   80bbb    H16 2344   3.548  -0.087   4.199 -1.1210  0.1351 -1.6059
   80bbb     C9 2345   2.951  -0.136   3.931 -0.2912  0.2983  1.2503
   80bbb    H17 2346   2.988  -0.214   3.999 -0.1783 -0.4054  0.3949
   80bbb    H18 2347   2.961  -0.170   3.827  1.9974  1.0026  1.1712
   80bbb     O1 2348   3.039   0.586   4.114  0.3319  0.1486 -0.3469
   81bbb     N1 2349   3.762   1.096   4.908  0.0890  0.1302 -0.8361
   81bbb     C1 2350   3.873   1.089   4.804  0.2261  0.0736  0.1359
   81bbb     H1 2351   3.894   1.184   4.754 -0.4641 -0.9237 -2.1960
   81bbb     H2 2352   3.846   1.014   4.729  0.7476 -1.8767  1.8071
   81bbb     C2 2353   3.789   1.198   5.008 -0.2699  0.4028 -0.2624
   81bbb     H3 2354   3.846   1.281   4.964 -0.2342  0.5295  0.0180
   81bbb     H4 2355   3.841   1.150   5.093 -1.2864 -0.6427 -0.2019
   81bbb     C3 2356   3.732   0.963   4.974 -0.0230 -0.2194  0.2578
   81bbb     H5 2357   3.767   0.949   5.077 -2.5146 -0.5557  1.1159
   81bbb     H6 2358   3.766   0.872   4.923 -1.0705 -0.9962  0.9265
   81bbb     C4 2359   3.584   0.937   4.990 -0.3167  0.0404 -0.3692
   81bbb     H7 2360   3.537   1.005   5.063 -1.5587 -0.7597 -0.4006
   81bbb     H8 2361   3.563   0.838   5.032 -0.4275 -0.1209 -0.8017
   81bbb     C5 2362   4.002   1.032   4.857 -0.8242 -0.4095  0.6503
   81bbb     H9 2363   3.993   0.939   4.915  1.8914 -0.1255  1.7031
   81bbb    H10 2364   4.037   1.105   4.931  1.8025 -2.4215  1.5399
   81bbb     C6 2365   3.663   1.266   5.072  0.0295  0.3896  0.0024
   81bbb    H11 2366   3.696   1.351   5.132  1.3737 -0.2258  0.1656
   81bbb    H12 2367   3.625   1.199   5.150  1.5342  0.6727  1.0038
   81bbb     C7 2368   3.521   0.939   4.851  0.0507 -0.3466 -0.8048
   81bbb    H13 2369   3.556   0.851   4.795 -1.0512 -2.2698  1.3734
   81bbb    H14 2370   3.550   1.029   4.794  0.6198 -0.0130 -0.0018
   81bbb     C8 2371   3.553   1.306   4.973 -0.2302  0.3313  0.2254
   81bbb    H15 2372   3.546   1.223   4.902 -0.2849 -0.1254  0.7517
   81bbb    H16 2373   3.595   1.385   4.911  0.4533  1.1299  1.6490
   81bbb     C9 2374   4.109   1.015   4.742 -0.3865  0.7204  0.3007
   81bbb    H17 2375   4.086   1.070   4.650  1.2070 -0.1352 -0.6473
   81bbb    H18 2376   4.118   0.907   4.724  1.2629  0.6147  1.5278
   81bbb     O1 2377   3.381   0.933   4.862 -0.3146 -0.2927 -0.4565
   82bbb     N1 2378   1.270  -0.939   4.547  0.7735 -0.9735 -0.1314
   82bbb     C1 2379   1.286  -0.795   4.541 -0.6142  0.4058  0.7190
   82bbb     H1 2380   1.372  -0.756   4.485 -0.3684  0.9542  1.4571
   82bbb     H2 2381   1.290  -0.755   4.644  1.4199  1.1999  0.3892
   82bbb     C2 2382   1.156  -0.999   4.623 -0.2769 -0.3998  0.1432
   82bbb     H3 2383   1.138  -1.099   4.581  1.0596  0.0344 -1.5752
   82bbb     H4 2384   1.072  -0.932   4.601 -0.2623 -0.5138 -0.2806
   82bbb     C3 2385   1.390  -1.026   4.534  0.0845  0.1874 -0.4040
   82bbb     H5 2386   1.353  -1.127   4.513 -1.7429  0.7847 -0.2725
   82bbb     H6 2387   1.424  -1.035   4.638 -0.6021 -1.4860 -0.2931
   82bbb     C4 2388   1.515  -0.973   4.451 -0.2575  0.5604 -0.1635
   82bbb     H7 2389   1.551  -0.888   4.509  0.9053 -0.0144 -0.0222
   82bbb     H8 2390   1.485  -0.942   4.350 -0.5724  0.0145 -0.2449
   82bbb     C5 2391   1.170  -0.718   4.466 -0.0096 -0.1181  0.1047
   82bbb     H9 2392   1.080  -0.728   4.527 -1.7742 -0.3839 -2.3854
   82bbb    H10 2393   1.142  -0.774   4.375 -1.7272 -1.4915  1.4122
   82bbb     C6 2394   1.179  -1.011   4.773  0.6706 -1.0962  0.6477
   82bbb    H11 2395   1.215  -0.915   4.811  0.4071 -0.7035 -0.0796
   82bbb    H12 2396   1.256  -1.089   4.772  1.8624  0.0257 -1.6397
   82bbb     C7 2397   1.622  -1.079   4.455 -0.4423  0.1984 -0.6605
   82bbb    H13 2398   1.631  -1.109   4.561  0.5229  1.5764 -0.3238
   82bbb    H14 2399   1.717  -1.033   4.427 -0.1946  0.1679  0.0913
   82bbb     C8 2400   1.053  -1.054   4.847  0.4967  0.5252 -0.4476
   82bbb    H15 2401   1.079  -1.073   4.952  1.3418  1.9750 -0.3634
   82bbb    H16 2402   1.018  -1.151   4.811 -0.2915  0.2004  1.1094
   82bbb     C9 2403   1.202  -0.569   4.439  0.4848 -0.3774  0.4241
   82bbb    H17 2404   1.309  -0.548   4.442  0.3927  0.1929 -0.1378
   82bbb    H18 2405   1.137  -0.521   4.513 -0.1745  0.5092 -0.7008
   82bbb     O1 2406   1.594  -1.196   4.384  0.2188 -0.1094 -0.1706
   83bbb     N1 2407   2.184  -1.462   5.413  0.4750  0.1269  0.4353
   83bbb     C1 2408   2.264  -1.444   5.538  0.6925 -0.0765  0.5921
   83bbb     H1 2409   2.367  -1.453   5.502  0.0062  0.4451 -1.6752
   83bbb     H2 2410   2.236  -1.524   5.607  1.7261  1.3285  2.7404
   83bbb     C2 2411   2.035  -1.447   5.437  0.5400  0.2009 -0.0975
   83bbb     H3 2412   1.995  -1.445   5.335  1.4466  0.3317 -0.4601
   83bbb     H4 2413   2.013  -1.350   5.482  0.1343  0.5307 -0.9816
   83bbb     C3 2414   2.223  -1.587   5.341  1.0323 -0.2881 -0.2681
   83bbb     H5 2415   2.176  -1.674   5.389 -0.9457  0.0090 -1.5456
   83bbb     H6 2416   2.331  -1.597   5.325  1.0268 -0.3282 -0.2812
   83bbb     C4 2417   2.162  -1.598   5.198 -0.5396 -0.3389 -0.1155
   83bbb     H7 2418   2.054  -1.605   5.210 -0.3077 -0.8365  1.9824
   83bbb     H8 2419   2.189  -1.696   5.155  2.5915 -0.0281  0.8606
   83bbb     C5 2420   2.235  -1.312   5.622  0.0693  0.3184  1.0714
   83bbb     H9 2421   2.127  -1.298   5.641 -0.2097  3.0184 -1.7857
   83bbb    H10 2422   2.258  -1.234   5.549 -2.4836 -0.4176 -0.6751
   83bbb     C6 2423   1.973  -1.564   5.527 -0.3505 -0.4686 -0.0813
   83bbb    H11 2424   1.999  -1.555   5.633  1.0532  1.2661 -0.5398
   83bbb    H12 2425   2.005  -1.661   5.488 -0.1906 -0.2894 -0.4008
   83bbb     C7 2426   2.202  -1.473   5.107 -0.2605 -0.1047  0.4411
   83bbb    H13 2427   2.310  -1.470   5.094 -0.2319  3.4005  0.4197
   83bbb    H14 2428   2.178  -1.377   5.156  0.1361  0.1547  0.1267
   83bbb     C8 2429   1.816  -1.560   5.514 -0.7556 -0.3221  0.0134
   83bbb    H15 2430   1.779  -1.461   5.544  2.2709  0.9976 -0.2396
   83bbb    H16 2431   1.771  -1.639   5.575 -1.8037 -0.5256 -0.9947
   83bbb     C9 2432   2.324  -1.307   5.748  0.1800  0.2893 -0.0600
   83bbb    H17 2433   2.427  -1.336   5.724  0.0505 -0.4881  0.2950
   83bbb    H18 2434   2.284  -1.384   5.816 -0.0221 -0.0613 -0.5738
   83bbb     O1 2435   2.135  -1.480   4.983  0.1843 -0.1299  0.4563
   84bbb     N1 2436   1.379   0.822   4.224  0.3783  0.0851  0.1738
   84bbb     C1 2437   1.253   0.891   4.262 -0.0843  0.2011  0.1222
   84bbb     H1 2438   1.173   0.865   4.192  0.8836 -0.2233 -0.8639
   84bbb     H2 2439   1.279   0.995   4.239  0.8361  0.0298  0.3175
   84bbb     C2 2440   1.506   0.860   4.285 -0.0727 -0.9037 -0.2166
   84bbb     H3 2441   1.583   0.793   4.247 -0.8199 -0.9885 -1.6581
   84bbb     H4 2442   1.499   0.850   4.394 -1.1309  0.4408 -0.1241
   84bbb     C3 2443   1.350   0.675   4.226 -0.6596  0.4871  0.4329
   84bbb     H5 2444   1.252   0.663   4.178 -0.6632 -0.7162  0.7108
   84bbb     H6 2445   1.339   0.640   4.330  2.1848 -2.0799  0.0099
   84bbb     C4 2446   1.448   0.591   4.145  0.3028  0.0014 -0.5648
   84bbb     H7 2447   1.543   0.590   4.199 -0.9794 -0.0767  1.8098
   84bbb     H8 2448   1.466   0.629   4.043  1.8198 -0.5468 -0.5317
   84bbb     C5 2449   1.218   0.880   4.420  0.4284  0.0611  0.5954
   84bbb     H9 2450   1.296   0.927   4.482  1.2899  2.6304 -2.1262
   84bbb    H10 2451   1.222   0.773   4.442 -0.8822 -0.0026  0.5965
   84bbb     C6 2452   1.551   1.008   4.263 -0.4920 -0.5579  0.0719
   84bbb    H11 2453   1.477   1.080   4.299  0.3113  0.6332 -0.5853
   84bbb    H12 2454   1.556   1.031   4.156 -0.4698  0.6093  0.3170
   84bbb     C7 2455   1.382   0.452   4.136  0.1785  0.0958  0.1218
   84bbb    H13 2456   1.275   0.455   4.159  0.3459  0.9239  0.8691
   84bbb    H14 2457   1.413   0.379   4.212 -0.5684 -0.2183  0.1312
   84bbb     C8 2458   1.687   1.041   4.338 -0.9665  0.2255 -0.1853
   84bbb    H15 2459   1.728   1.134   4.297 -0.1477 -0.9510 -2.1921
   84bbb    H16 2460   1.756   0.960   4.312 -1.0161  0.4705 -1.1143
   84bbb     C9 2461   1.070   0.934   4.449 -0.2188  0.0593  0.0616
   84bbb    H17 2462   0.998   0.867   4.402 -1.6545  0.0095  2.2086
   84bbb    H18 2463   1.057   1.036   4.409 -1.8026 -0.5301 -1.0056
   84bbb     O1 2464   1.415   0.398   4.004  0.1536  0.0507 -0.1417
   85bbb     N1 2465   1.784   0.467   3.104  0.0175  0.4814 -0.0663
   85bbb     C1 2466   1.914   0.425   3.042  0.0229 -0.0820  0.7349
   85bbb     H1 2467   1.968   0.509   2.998  0.3640  0.5802  2.3484
   85bbb     H2 2468   1.890   0.356   2.960 -0.4793 -1.2247  1.8043
   85bbb     C2 2469   1.752   0.598   3.053 -0.2682 -0.7536  0.4236
   85bbb     H3 2470   1.646   0.619   3.071  0.2495 -0.7709  4.0643
   85bbb     H4 2471   1.772   0.616   2.946  1.4809  2.5867  1.1801
   85bbb     C3 2472   1.679   0.361   3.092 -0.2149 -0.2354  1.0072
   85bbb     H5 2473   1.721   0.266   3.126  0.5708  0.7075  2.8004
   85bbb     H6 2474   1.641   0.353   2.989  0.6138 -0.9079  0.7501
   85bbb     C4 2475   1.557   0.392   3.187 -0.0728  0.0586 -0.4232
   85bbb     H7 2476   1.505   0.482   3.151  0.6016 -0.2556 -2.3045
   85bbb     H8 2477   1.593   0.428   3.285  0.6325  2.6216 -1.5381
   85bbb     C5 2478   2.006   0.354   3.142 -0.3767  0.5805 -0.3709
   85bbb     H9 2479   2.073   0.293   3.079  0.0633 -2.2432  2.5527
   85bbb    H10 2480   1.940   0.287   3.198  0.2323 -2.0084 -2.5223
   85bbb     C6 2481   1.823   0.710   3.136  0.2278  0.3530  0.0923
   85bbb    H11 2482   1.785   0.807   3.103 -2.5580 -0.4110  0.8180
   85bbb    H12 2483   1.931   0.712   3.112  1.0125 -2.3817  2.6919
   85bbb     C7 2484   1.468   0.270   3.204  0.1405  0.3554  0.4306
   85bbb    H13 2485   1.538   0.188   3.225  0.8602  0.8694  0.0945
   85bbb    H14 2486   1.425   0.235   3.110  0.7769 -1.5033  0.7862
   85bbb     C8 2487   1.812   0.691   3.291 -0.8596 -0.8102  1.2274
   85bbb    H15 2488   1.854   0.594   3.322  1.1900 -0.7512 -0.9916
   85bbb    H16 2489   1.707   0.685   3.322 -0.9192  0.2546  1.2790
   85bbb     C9 2490   2.097   0.450   3.225  0.0642 -0.2508 -0.6594
   85bbb    H17 2491   2.032   0.529   3.263  2.1240  0.3883  1.8294
   85bbb    H18 2492   2.172   0.489   3.155  0.5775 -0.3309 -0.1589
   85bbb     O1 2493   1.376   0.277   3.311 -0.3983  0.5972  0.3331
   86bbb     N1 2494   0.821   1.074   7.675  0.8666 -0.0399  0.0489
   86bbb     C1 2495   0.909   1.019   7.776 -0.3224 -0.6621  0.3731
   86bbb     H1 2496   0.962   1.102   7.826 -0.1062 -0.9536  0.6355
   86bbb     H2 2497   0.978   0.960   7.715 -0.7865 -1.0539  0.2308
   86bbb     C2 2498   0.685   1.127   7.724 -0.0063  0.2388 -0.0229
   86bbb     H3 2499   0.637   1.037   7.764 -1.3848  0.6781 -0.6514
   86bbb     H4 2500   0.613   1.152   7.645 -0.4483 -0.3051  0.2011
   86bbb     C3 2501   0.894   1.178   7.584  0.4523 -0.0831 -0.5088
   86bbb     H5 2502   0.988   1.134   7.550 -0.6214 -3.5389  0.5748
   86bbb     H6 2503   0.935   1.256   7.649 -1.4571 -0.0459  0.7177
   86bbb     C4 2504   0.823   1.238   7.464  0.1345 -0.0201  0.0902
   86bbb     H7 2505   0.896   1.304   7.416 -0.7893  0.5857 -0.5100
   86bbb     H8 2506   0.735   1.299   7.486  0.0981  0.2631 -0.7859
   86bbb     C5 2507   0.850   0.936   7.894 -0.2048 -0.0078  0.0855
   86bbb     H9 2508   0.790   0.855   7.850  0.3804 -0.1469 -0.4705
   86bbb    H10 2509   0.778   0.988   7.958  0.0558 -0.5120  0.8098
   86bbb     C6 2510   0.696   1.244   7.828  0.2273 -0.1223  0.1183
   86bbb    H11 2511   0.726   1.334   7.774 -0.0210 -0.2483 -0.2265
   86bbb    H12 2512   0.763   1.210   7.908  0.6617 -1.8844 -0.9361
   86bbb     C7 2513   0.773   1.123   7.372  0.5231  0.0507  0.2075
   86bbb    H13 2514   0.708   1.170   7.298 -0.1503 -1.3602 -0.1438
   86bbb    H14 2515   0.710   1.051   7.428  1.2250 -1.0506 -0.3821
   86bbb     C8 2516   0.566   1.270   7.911  0.1622 -0.0493 -0.0174
   86bbb    H15 2517   0.509   1.177   7.923 -0.5509  0.2108 -1.1899
   86bbb    H16 2518   0.499   1.339   7.858  1.3553  1.3242  0.1967
   86bbb     C9 2519   0.970   0.878   7.970 -0.2829 -0.3028 -0.7110
   86bbb    H17 2520   1.051   0.951   7.958  0.0077 -0.8100 -1.9142
   86bbb    H18 2521   1.008   0.786   7.924  3.2789  0.0659  1.1022
   86bbb     O1 2522   0.889   1.065   7.315  0.1138 -0.3520 -0.4440
   87bbb     N1 2523   1.661   1.736   6.949  0.0603  0.1047 -0.1415
   87bbb     C1 2524   1.591   1.791   7.071  0.0317  0.3386  0.3377
   87bbb     H1 2525   1.501   1.841   7.034 -0.0044 -0.0775 -0.1390
   87bbb     H2 2526   1.637   1.886   7.101 -0.3508  1.1516 -1.4820
   87bbb     C2 2527   1.804   1.706   6.990  0.9510 -0.2233  0.1419
   87bbb     H3 2528   1.796   1.622   7.060  0.6496  1.3308  2.0725
   87bbb     H4 2529   1.840   1.783   7.060  0.7098 -0.5200  0.5917
   87bbb     C3 2530   1.590   1.637   6.865 -0.0511 -0.1925 -0.6726
   87bbb     H5 2531   1.552   1.553   6.925 -0.8020 -0.1976 -1.1435
   87bbb     H6 2532   1.655   1.591   6.790  1.2214  0.6259 -0.1000
   87bbb     C4 2533   1.467   1.706   6.795  0.5115  0.1721  0.9881
   87bbb     H7 2534   1.469   1.670   6.692  2.3199 -0.8252  1.3291
   87bbb     H8 2535   1.481   1.814   6.781 -1.0552  0.0898 -2.1143
   87bbb     C5 2536   1.545   1.689   7.178  0.7171 -0.2495 -0.1786
   87bbb     H9 2537   1.619   1.613   7.208  0.1229  0.1646  2.5994
   87bbb    H10 2538   1.468   1.628   7.128  1.9843 -0.1413 -2.3545
   87bbb     C6 2539   1.897   1.691   6.875 -0.5272 -0.0678  0.3782
   87bbb    H11 2540   1.887   1.778   6.810  1.7169  1.1803  1.5639
   87bbb    H12 2541   1.871   1.598   6.823 -0.0818 -0.4768  0.8765
   87bbb     C7 2542   1.330   1.684   6.862 -0.1535  1.2015  0.2820
   87bbb    H13 2543   1.258   1.737   6.799  0.7676 -0.0222 -1.9384
   87bbb    H14 2544   1.338   1.729   6.962  0.9651 -2.1536  1.8603
   87bbb     C8 2545   2.049   1.686   6.915  0.0324 -0.3921  0.1557
   87bbb    H15 2546   2.066   1.787   6.953  0.7624  0.5975 -2.5374
   87bbb    H16 2547   2.115   1.678   6.827  0.4922 -0.8258  0.5279
   87bbb     C9 2548   1.487   1.758   7.307  0.0981  0.2880  0.3342
   87bbb    H17 2549   1.559   1.818   7.364  0.7570  1.3287 -1.5249
   87bbb    H18 2550   1.449   1.683   7.378 -0.4211  0.2451  0.0101
   87bbb     O1 2551   1.304   1.536   6.863  0.4247  0.4282 -0.6730
   88bbb     N1 2552   2.201   0.203   7.751  0.5249  0.1056 -0.2182
   88bbb     C1 2553   2.274   0.328   7.785 -0.6655 -0.4886 -0.0336
   88bbb     H1 2554   2.247   0.363   7.885 -0.8356  3.4536 -1.3194
   88bbb     H2 2555   2.244   0.404   7.713 -0.9744  0.1631  0.7719
   88bbb     C2 2556   2.225   0.079   7.835  0.2133 -0.2345  0.0572
   88bbb     H3 2557   2.330   0.049   7.827  0.1065 -0.5679 -0.1175
   88bbb     H4 2558   2.172   0.001   7.780 -0.3950  0.7251 -0.7601
   88bbb     C3 2559   2.053   0.234   7.742  0.0404 -0.3166  0.6485
   88bbb     H5 2560   2.036   0.311   7.666 -1.1956 -0.5105  0.7140
   88bbb     H6 2561   2.026   0.282   7.837  1.2178  0.6305  0.5315
   88bbb     C4 2562   1.953   0.130   7.691  0.3102  0.4291  0.3900
   88bbb     H7 2563   1.849   0.162   7.707  0.3687  0.0619  1.5525
   88bbb     H8 2564   1.957   0.035   7.745 -2.1374 -0.2010 -0.3890
   88bbb     C5 2565   2.434   0.312   7.769 -0.5392  0.3610 -0.4215
   88bbb     H9 2566   2.455   0.281   7.666  1.0445  0.0587 -0.0351
   88bbb    H10 2567   2.484   0.237   7.832  2.4713  0.9992 -1.8589
   88bbb     C6 2568   2.186   0.081   7.985 -0.7498 -0.5149 -0.5958
   88bbb    H11 2569   2.102   0.148   8.005 -1.1568 -1.2891  0.3838
   88bbb    H12 2570   2.270   0.122   8.042 -0.5199 -1.3333 -0.3227
   88bbb     C7 2571   1.986   0.101   7.541 -0.3505 -0.0597 -0.3068
   88bbb    H13 2572   2.081   0.048   7.547 -0.7883 -0.6950  1.7612
   88bbb    H14 2573   2.015   0.192   7.486  0.8071  0.4398  1.0936
   88bbb     C8 2574   2.146  -0.059   8.037 -0.0326  0.0784  0.0308
   88bbb    H15 2575   2.215  -0.138   8.005 -0.6288 -0.6648  0.5513
   88bbb    H16 2576   2.055  -0.083   7.981  0.8021 -0.6231 -1.0601
   88bbb     C9 2577   2.508   0.443   7.805 -0.1669  0.1276  0.0502
   88bbb    H17 2578   2.486   0.516   7.726 -0.7123  1.9308  1.7681
   88bbb    H18 2579   2.615   0.422   7.809 -0.1241 -0.2631 -2.1797
   88bbb     O1 2580   1.866   0.035   7.491 -0.2505 -0.2101  0.2130
   89bbb     N1 2581   2.763   0.445   6.731 -0.4863  0.7287 -0.0056
   89bbb     C1 2582   2.881   0.523   6.772 -0.0532 -0.0363 -0.0306
   89bbb     H1 2583   2.852   0.627   6.788 -0.8978 -0.3411  0.4647
   89bbb     H2 2584   2.955   0.517   6.691 -1.0834  0.8434 -1.0822
   89bbb     C2 2585   2.731   0.466   6.587  0.5632  0.0635 -0.1441
   89bbb     H3 2586   2.715   0.572   6.560 -1.0963 -0.1516 -0.1294
   89bbb     H4 2587   2.640   0.411   6.559  0.7282 -0.6942  0.7816
   89bbb     C3 2588   2.639   0.477   6.813 -0.0558 -0.3674 -0.2333
   89bbb     H5 2589   2.600   0.575   6.783  1.7327  0.5156  0.1527
   89bbb     H6 2590   2.667   0.492   6.918  0.0580  0.6027 -0.3872
   89bbb     C4 2591   2.531   0.369   6.804 -0.9617  0.7612  0.6436
   89bbb     H7 2592   2.582   0.272   6.803 -1.5746  0.4084  1.6138
   89bbb     H8 2593   2.469   0.381   6.714 -0.6933  0.6200  0.4407
   89bbb     C5 2594   2.934   0.472   6.906  0.4128  0.9674 -0.8832
   89bbb     H9 2595   2.939   0.363   6.907 -0.6762  0.9012 -0.9470
   89bbb    H10 2596   2.864   0.514   6.980 -0.8536 -0.6461 -1.1029
   89bbb     C6 2597   2.837   0.401   6.496 -0.5162 -0.2602 -0.0610
   89bbb    H11 2598   2.873   0.304   6.533 -1.4184 -0.8347 -0.6465
   89bbb    H12 2599   2.921   0.470   6.483 -2.4175  1.6824 -3.2832
   89bbb     C7 2600   2.436   0.362   6.923 -0.8247 -0.3020  0.2594
   89bbb    H13 2601   2.396   0.461   6.949 -0.7678 -0.2149  0.0205
   89bbb    H14 2602   2.481   0.333   7.018 -3.3464  1.3007  2.0586
   89bbb     C8 2603   2.780   0.379   6.357 -0.0760 -0.2631 -0.0244
   89bbb    H15 2604   2.774   0.472   6.300  0.5923 -0.2999 -0.1636
   89bbb    H16 2605   2.677   0.343   6.366 -0.0561 -0.2207  0.4197
   89bbb     C9 2606   3.078   0.521   6.935 -0.7748 -0.2630  0.2336
   89bbb    H17 2607   3.099   0.621   6.895  3.0868 -0.4329  1.4032
   89bbb    H18 2608   3.147   0.460   6.875 -2.0978 -2.3802  0.7307
   89bbb     O1 2609   2.315   0.293   6.897  0.3768  0.1788  0.3845
   90bbb     N1 2610  -0.100   0.418   6.424  0.1664 -0.6267 -0.1605
   90bbb     C1 2611  -0.157   0.559   6.434  0.4429  0.1224  0.5602
   90bbb     H1 2612  -0.174   0.585   6.539  1.6714 -1.8960  1.3264
   90bbb     H2 2613  -0.245   0.571   6.370  0.5915 -0.3913  0.2543
   90bbb     C2 2614  -0.018   0.399   6.545  0.1653 -0.9199 -0.0905
   90bbb     H3 2615  -0.068   0.453   6.626  1.8073 -1.2748  1.2027
   90bbb     H4 2616   0.077   0.450   6.524 -0.6302  0.3120 -0.9131
   90bbb     C3 2617  -0.034   0.370   6.296  0.1404  0.1425 -0.3790
   90bbb     H5 2618  -0.010   0.265   6.316  2.6797  0.8384  0.5591
   90bbb     H6 2619   0.065   0.417   6.293 -0.4067  1.5860  1.6191
   90bbb     C4 2620  -0.110   0.397   6.165  0.3073 -0.0751 -0.8439
   90bbb     H7 2621  -0.104   0.501   6.132  0.7194  0.7668  1.6923
   90bbb     H8 2622  -0.217   0.398   6.188  0.5430 -0.9493  0.3915
   90bbb     C5 2623  -0.054   0.667   6.384  0.1859 -0.2311 -0.0412
   90bbb     H9 2624  -0.023   0.634   6.284 -0.5442 -0.6097 -0.1447
   90bbb    H10 2625   0.035   0.676   6.449  0.1456  1.3794 -0.1646
   90bbb     C6 2626  -0.017   0.255   6.585  0.4893 -0.6504  0.2338
   90bbb    H11 2627  -0.000   0.190   6.498 -0.9547  1.5020 -1.7540
   90bbb    H12 2628  -0.118   0.229   6.620 -0.5022  1.1758 -1.0936
   90bbb     C7 2629  -0.067   0.309   6.046 -0.2218 -0.5048 -0.2168
   90bbb    H13 2630   0.040   0.325   6.033 -0.6013  2.1381 -0.5984
   90bbb    H14 2631  -0.120   0.334   5.953 -1.6012  1.3779  0.9925
   90bbb     C8 2632   0.084   0.234   6.696  0.1694  0.1558  0.5961
   90bbb    H15 2633   0.177   0.286   6.670 -0.7914  1.6514 -0.0022
   90bbb    H16 2634   0.108   0.128   6.709  1.2671  0.4892  1.3611
   90bbb     C9 2635  -0.112   0.808   6.380 -0.1720 -0.2146 -0.3025
   90bbb    H17 2636  -0.157   0.830   6.478 -1.3894 -0.8251 -0.7166
   90bbb    H18 2637  -0.189   0.812   6.303  0.8158  1.3374 -1.2593
   90bbb     O1 2638  -0.095   0.169   6.079 -0.3166  0.6188 -0.0122
   91bbb     N1 2639   0.229  -0.073   7.195  0.5206 -0.1262  0.3627
   91bbb     C1 2640   0.249  -0.094   7.345  0.0898 -0.3553 -0.4620
   91bbb     H1 2641   0.307  -0.185   7.364  1.1074  0.5157  0.8247
   91bbb     H2 2642   0.159  -0.111   7.405 -0.8108  0.0376 -1.6657
   91bbb     C2 2643   0.359  -0.059   7.124 -0.7788  0.4038  0.1909
   91bbb     H3 2644   0.418   0.015   7.179  0.0182 -0.9172  1.1849
   91bbb     H4 2645   0.346  -0.023   7.022  1.4783 -2.0447 -1.0953
   91bbb     C3 2646   0.126  -0.163   7.146  0.5276 -0.4185  0.4647
   91bbb     H5 2647   0.035  -0.150   7.205 -1.0057 -1.0671 -1.6301
   91bbb     H6 2648   0.156  -0.267   7.167  2.9945 -0.0493 -0.7996
   91bbb     C4 2649   0.107  -0.130   6.999  0.2481  0.1533 -0.0144
   91bbb     H7 2650   0.195  -0.166   6.944  1.7201  2.9790  0.3261
   91bbb     H8 2651   0.104  -0.021   6.991 -0.3949  0.1477  0.1220
   91bbb     C5 2652   0.334   0.011   7.421  0.0199  0.3306 -0.6024
   91bbb     H9 2653   0.442  -0.009   7.417 -0.1016 -0.1695 -1.6895
   91bbb    H10 2654   0.326  -0.021   7.525  0.6587 -3.8863 -1.6835
   91bbb     C6 2655   0.434  -0.197   7.122  0.3409  0.4894  1.1634
   91bbb    H11 2656   0.375  -0.262   7.057  2.0331  1.1701 -1.2029
   91bbb    H12 2657   0.449  -0.233   7.224 -1.1985 -0.7122  1.0037
   91bbb     C7 2658  -0.025  -0.185   6.936  0.0807  0.0543  0.8157
   91bbb    H13 2659  -0.108  -0.152   6.999  2.3024  0.6726  3.6673
   91bbb    H14 2660  -0.030  -0.295   6.935 -1.1015  0.1039  0.1270
   91bbb     C8 2661   0.577  -0.183   7.066 -0.2165  0.9203 -0.5987
   91bbb    H15 2662   0.614  -0.102   7.130 -1.6358  1.1326 -0.0127
   91bbb    H16 2663   0.575  -0.142   6.964  1.1814  0.3756 -0.8704
   91bbb     C9 2664   0.289   0.162   7.396 -0.2233 -0.0710 -0.0565
   91bbb    H17 2665   0.198   0.185   7.453 -1.0074 -0.7961 -0.9900
   91bbb    H18 2666   0.258   0.166   7.291 -1.0081 -0.1658  0.1666
   91bbb     O1 2667  -0.033  -0.141   6.793  0.1968  0.2483 -0.5089
   92bbb     N1 2668   1.986  -0.734   5.104  0.2756  0.2747 -0.1489
   92bbb     C1 2669   2.052  -0.596   5.110  0.3267 -0.3465  0.0488
   92bbb     H1 2670   1.973  -0.521   5.105  1.7103  1.1469 -0.4887
   92bbb     H2 2671   2.124  -0.572   5.030  1.1990  0.9367  1.1577
   92bbb     C2 2672   1.913  -0.755   4.975 -0.0068  0.5365 -1.1334
   92bbb     H3 2673   1.832  -0.682   4.963  0.0764  0.8114 -0.1521
   92bbb     H4 2674   1.871  -0.855   4.965  2.1270 -0.5632  0.0730
   92bbb     C3 2675   1.897  -0.761   5.218  0.2405  0.1919 -0.5798
   92bbb     H5 2676   1.958  -0.781   5.307  0.9620 -0.8826 -1.2860
   92bbb     H6 2677   1.845  -0.858   5.211  0.7418 -0.0311 -1.3738
   92bbb     C4 2678   1.782  -0.659   5.244 -0.3087 -0.3763 -0.0605
   92bbb     H7 2679   1.695  -0.682   5.181 -0.4090  0.4463 -0.2375
   92bbb     H8 2680   1.813  -0.557   5.215  2.6618 -1.2954 -0.5021
   92bbb     C5 2681   2.126  -0.565   5.242  0.3515 -0.0584 -1.0611
   92bbb     H9 2682   2.204  -0.641   5.257 -0.1291 -0.3489  0.0823
   92bbb    H10 2683   2.060  -0.585   5.327  1.4041  0.6181 -0.0680
   92bbb     C6 2684   2.002  -0.738   4.851  0.2400  0.2015  0.4928
   92bbb    H11 2685   2.025  -0.631   4.841 -0.6860  0.3808  0.1703
   92bbb    H12 2686   1.939  -0.749   4.762  0.1837 -2.5873  0.8022
   92bbb     C7 2687   1.735  -0.647   5.390  0.0467  0.2058 -0.0254
   92bbb    H13 2688   1.812  -0.593   5.446 -0.6996  0.1859  1.0514
   92bbb    H14 2689   1.721  -0.747   5.434  0.9812 -0.2940 -0.8308
   92bbb     C8 2690   2.122  -0.838   4.850 -0.4015 -0.5742 -0.5017
   92bbb    H15 2691   2.085  -0.940   4.867 -2.1564 -0.5523 -3.5601
   92bbb    H16 2692   2.176  -0.820   4.944 -0.1322 -1.9739 -0.3707
   92bbb     C9 2693   2.192  -0.429   5.249  0.2245 -0.5322 -0.2659
   92bbb    H17 2694   2.116  -0.352   5.232 -0.0482 -0.8680 -0.5821
   92bbb    H18 2695   2.262  -0.424   5.165 -1.6710  0.9327 -1.8476
   92bbb     O1 2696   1.609  -0.591   5.385  0.0068 -0.3866 -0.1859
   93bbb     N1 2697   1.770  -0.276   6.424  0.8460 -0.2876  0.3862
   93bbb     C1 2698   1.875  -0.256   6.524  0.5032  0.6393  0.3292
   93bbb     H1 2699   1.955  -0.327   6.498 -1.0166 -1.2403  0.5927
   93bbb     H2 2700   1.844  -0.278   6.627  1.3632  0.9062  0.6592
   93bbb     C2 2701   1.640  -0.227   6.478  0.0518 -0.0683 -0.1734
   93bbb     H3 2702   1.656  -0.148   6.552 -4.1468  1.0804 -0.2226
   93bbb     H4 2703   1.598  -0.312   6.534  1.1956  0.0996  0.9952
   93bbb     C3 2704   1.757  -0.414   6.383  0.6955 -0.1045 -0.4118
   93bbb     H5 2705   1.651  -0.443   6.376  1.2141 -3.6229  2.7544
   93bbb     H6 2706   1.784  -0.484   6.464  1.0491 -0.3471 -0.7363
   93bbb     C4 2707   1.840  -0.438   6.253  0.8278  0.4539  0.1257
   93bbb     H7 2708   1.836  -0.543   6.220  0.6616 -0.2568  2.2425
   93bbb     H8 2709   1.945  -0.420   6.280  0.3683  0.5120  1.9424
   93bbb     C5 2710   1.940  -0.118   6.521 -0.3656  0.0012 -0.5659
   93bbb     H9 2711   2.020  -0.109   6.595 -3.1591  1.2580  2.5375
   93bbb    H10 2712   1.865  -0.048   6.559 -0.7133 -0.8273  0.3206
   93bbb     C6 2713   1.532  -0.181   6.375 -0.0157 -0.4045 -0.4303
   93bbb    H11 2714   1.509  -0.258   6.301 -0.5831 -0.8035  0.1530
   93bbb    H12 2715   1.582  -0.104   6.314  1.5180  0.7314  2.1189
   93bbb     C7 2716   1.797  -0.349   6.131  0.8304 -0.1571 -0.0027
   93bbb    H13 2717   1.863  -0.375   6.047  0.5092  2.6185 -1.2315
   93bbb    H14 2718   1.816  -0.244   6.156 -0.6398 -0.2996  2.0146
   93bbb     C8 2719   1.401  -0.126   6.440 -0.2488  0.0516 -0.0895
   93bbb    H15 2720   1.345  -0.085   6.355 -0.9744  1.5321  1.0515
   93bbb    H16 2721   1.425  -0.033   6.493  1.1951  0.0014 -0.5932
   93bbb     C9 2722   1.992  -0.087   6.379 -0.0455 -0.3997  0.3930
   93bbb    H17 2723   1.901  -0.077   6.319  0.6325 -2.6149 -1.1032
   93bbb    H18 2724   2.048  -0.171   6.338  1.0175  0.9110 -0.9424
   93bbb     O1 2725   1.660  -0.374   6.087  0.4044  0.4963 -0.2424
   94bbb     N1 2726   2.987   0.508   8.038 -0.2014  0.4007 -0.0157
   94bbb     C1 2727   2.996   0.628   8.124  0.1603  0.8215 -0.1126
   94bbb     H1 2728   3.008   0.714   8.057  1.0148 -0.6457 -1.9208
   94bbb     H2 2729   3.087   0.623   8.186  0.2044  1.1300 -0.1505
   94bbb     C2 2730   3.005   0.379   8.109  0.0830  0.0378 -0.6835
   94bbb     H3 2731   2.913   0.350   8.162  0.2851 -1.2407 -0.9981
   94bbb     H4 2732   3.083   0.399   8.184 -1.6066  1.2110  0.8531
   94bbb     C3 2733   2.865   0.502   7.951 -0.0195  0.3828 -0.1638
   94bbb     H5 2734   2.774   0.490   8.011  1.0414 -1.2829  1.1876
   94bbb     H6 2735   2.871   0.410   7.891 -1.4504  0.8422 -1.0577
   94bbb     C4 2736   2.847   0.625   7.859  0.8733  0.4333  0.0198
   94bbb     H7 2737   2.823   0.722   7.903  0.5505  0.3803 -0.0381
   94bbb     H8 2738   2.765   0.605   7.790  0.8339 -1.5620  0.5829
   94bbb     C5 2739   2.880   0.654   8.221 -0.0656  0.1026 -0.5340
   94bbb     H9 2740   2.877   0.567   8.288  1.8562  0.7066  0.4000
   94bbb    H10 2741   2.792   0.670   8.157 -1.3012  1.5895  1.4328
   94bbb     C6 2742   3.057   0.254   8.028 -0.0986 -0.3076 -0.2001
   94bbb    H11 2743   3.154   0.271   7.980 -0.2253  1.4400  0.1045
   94bbb    H12 2744   2.981   0.237   7.951 -0.4459  1.1129 -0.1940
   94bbb     C7 2745   2.964   0.653   7.762 -0.3049 -0.1456 -0.4801
   94bbb    H13 2746   2.971   0.572   7.689 -0.9136  0.7861 -1.6186
   94bbb    H14 2747   3.058   0.657   7.818 -1.4624  1.0548  1.5103
   94bbb     C8 2748   3.065   0.125   8.118 -0.8419 -0.1791  0.6556
   94bbb    H15 2749   2.964   0.111   8.157 -1.1420 -1.3863 -0.4669
   94bbb    H16 2750   3.126   0.158   8.203 -1.5414  0.0307  1.0811
   94bbb     C9 2751   2.908   0.787   8.309  0.0217  0.0291 -0.0168
   94bbb    H17 2752   2.932   0.868   8.240  1.9283  0.2647  0.8751
   94bbb    H18 2753   3.000   0.754   8.359  0.4277 -1.0536 -1.4220
   94bbb     O1 2754   2.940   0.787   7.698 -0.1351 -0.0955  0.1578
   95bbb     N1 2755   2.711  -0.174   7.864 -0.1266  0.0748 -0.2071
   95bbb     C1 2756   2.733  -0.321   7.856 -0.1672  0.8348 -0.0608
   95bbb     H1 2757   2.714  -0.362   7.956  1.3360  0.3818  0.0642
   95bbb     H2 2758   2.836  -0.345   7.828  0.4697  2.2974  0.9503
   95bbb     C2 2759   2.576  -0.149   7.919 -0.1354 -0.3206  0.1898
   95bbb     H3 2760   2.500  -0.174   7.843  2.6951 -1.0733 -2.6059
   95bbb     H4 2761   2.555  -0.043   7.935 -0.2365 -0.1689 -0.8384
   95bbb     C3 2762   2.748  -0.109   7.739  0.7605  0.1743  0.3650
   95bbb     H5 2763   2.681  -0.151   7.663 -2.3318  1.9373  1.9225
   95bbb     H6 2764   2.851  -0.125   7.703  0.5192  2.8411 -1.8878
   95bbb     C4 2765   2.738   0.046   7.736 -1.1519 -0.1310  0.2397
   95bbb     H7 2766   2.802   0.093   7.811  1.4793 -0.2571 -1.7760
   95bbb     H8 2767   2.634   0.081   7.736 -0.5777  1.7697 -1.4291
   95bbb     C5 2768   2.639  -0.399   7.757 -0.6274  0.5686 -0.4031
   95bbb     H9 2769   2.659  -0.365   7.655 -0.9266  0.1929 -0.5894
   95bbb    H10 2770   2.532  -0.382   7.777 -0.5400  2.6464 -1.4632
   95bbb     C6 2771   2.526  -0.221   8.045 -0.2421  0.7671 -0.7020
   95bbb    H11 2772   2.508  -0.328   8.031 -2.5202  1.1001 -0.5533
   95bbb    H12 2773   2.426  -0.183   8.064 -0.6410 -1.0820  1.2384
   95bbb     C7 2774   2.795   0.102   7.603 -0.0347  0.0367  0.2262
   95bbb    H13 2775   2.754   0.055   7.513 -0.4091 -0.4750  0.6598
   95bbb    H14 2776   2.905   0.095   7.601  0.1712  2.3760  1.1952
   95bbb     C8 2777   2.619  -0.212   8.167  0.1680  0.1865 -0.3238
   95bbb    H15 2778   2.662  -0.111   8.172  0.7577 -0.0825  0.3547
   95bbb    H16 2779   2.714  -0.266   8.159  0.0111 -0.3990  1.3604
   95bbb     C9 2780   2.671  -0.554   7.778  0.6159  0.7747  0.1193
   95bbb    H17 2781   2.667  -0.577   7.885  0.3673 -2.0923 -0.4344
   95bbb    H18 2782   2.777  -0.571   7.753  1.1268  3.0539  0.4362
   95bbb     O1 2783   2.752   0.241   7.582  0.3164 -0.5628 -0.2208
   96bbb     N1 2784   1.403   1.073   8.233 -0.2243  0.1229 -0.2188
   96bbb     C1 2785   1.504   1.180   8.254  0.0691  0.7047 -0.0483
   96bbb     H1 2786   1.547   1.202   8.156  0.1901 -0.6174 -0.3162
   96bbb     H2 2787   1.595   1.142   8.302  0.1671 -0.0492 -0.8121
   96bbb     C2 2788   1.269   1.122   8.203 -0.8580 -0.2735 -0.2108
   96bbb     H3 2789   1.236   1.174   8.294  1.3838 -0.2859  0.6870
   96bbb     H4 2790   1.198   1.039   8.196 -0.5807 -0.5544  0.2544
   96bbb     C3 2791   1.447   0.962   8.143 -0.2541 -0.5100 -0.3653
   96bbb     H5 2792   1.476   1.000   8.044  2.6986 -0.7113  0.3121
   96bbb     H6 2793   1.359   0.898   8.131 -1.4875  1.1035 -0.3240
   96bbb     C4 2794   1.574   0.886   8.196  0.2140 -0.2374  0.1809
   96bbb     H7 2795   1.569   0.892   8.305 -0.4043 -1.3143  0.2294
   96bbb     H8 2796   1.671   0.930   8.170  0.9126 -1.3683  0.7794
   96bbb     C5 2797   1.465   1.306   8.337  0.1278  0.5486  0.7249
   96bbb     H9 2798   1.385   1.358   8.282  1.5868  1.0542 -1.0004
   96bbb    H10 2799   1.550   1.373   8.326 -1.3440  2.0751 -2.9309
   96bbb     C6 2800   1.260   1.201   8.075  0.2963  0.2762 -0.3867
   96bbb    H11 2801   1.278   1.138   7.987 -0.9530 -0.4723 -0.1346
   96bbb    H12 2802   1.338   1.277   8.065  0.3545  0.1511 -0.8924
   96bbb     C7 2803   1.582   0.741   8.144 -0.7344  0.0402 -0.8824
   96bbb    H13 2804   1.662   0.690   8.199 -1.4313  1.3490  1.4971
   96bbb    H14 2805   1.597   0.743   8.035  1.5547 -2.3056 -0.6979
   96bbb     C8 2806   1.121   1.265   8.056 -0.2009 -0.0129 -0.1670
   96bbb    H15 2807   1.076   1.309   8.145 -0.6424 -1.1115  0.1678
   96bbb    H16 2808   1.047   1.190   8.025 -2.6123  0.8586  3.0330
   96bbb     C9 2809   1.414   1.267   8.480  0.7071  0.0648 -0.3682
   96bbb    H17 2810   1.499   1.212   8.522  2.0747  1.7503 -0.7973
   96bbb    H18 2811   1.319   1.213   8.470  0.1173  0.7438  1.3092
   96bbb     O1 2812   1.465   0.674   8.178 -0.1322  0.7525  0.2911
   97bbb     N1 2813   0.567   0.004   8.101  0.7658  0.2391  0.4482
   97bbb     C1 2814   0.496   0.110   8.176  0.3554  0.0913  0.2155
   97bbb     H1 2815   0.504   0.202   8.116  2.7764 -1.7532 -2.5549
   97bbb     H2 2816   0.534   0.121   8.278 -0.2163  1.7822  0.2774
   97bbb     C2 2817   0.509  -0.014   7.961  0.1315 -0.0487  0.2812
   97bbb     H3 2818   0.520   0.080   7.905  0.5733 -0.1540  0.1872
   97bbb     H4 2819   0.401  -0.032   7.972  0.1177 -0.0954  0.0679
   97bbb     C3 2820   0.711   0.015   8.116  0.2317  0.2374 -0.3476
   97bbb     H5 2821   0.766  -0.074   8.081  1.5932  0.4078  1.2390
   97bbb     H6 2822   0.743   0.021   8.221 -0.7498 -1.0622  0.0597
   97bbb     C4 2823   0.777   0.133   8.029 -0.2741  0.4896 -0.2303
   97bbb     H7 2824   0.751   0.227   8.078  0.1705  0.7982 -0.5772
   97bbb     H8 2825   0.734   0.142   7.929 -1.1902  1.6960  0.2527
   97bbb     C5 2826   0.345   0.080   8.191  0.3116  0.5180 -0.1569
   97bbb     H9 2827   0.332  -0.029   8.186  1.6619  0.3535 -0.6214
   97bbb    H10 2828   0.281   0.128   8.116 -1.5452  0.6180  1.4309
   97bbb     C6 2829   0.574  -0.134   7.883  0.0755  0.0396 -0.7130
   97bbb    H11 2830   0.568  -0.221   7.949  2.2334  1.8908  2.1535
   97bbb    H12 2831   0.679  -0.102   7.888  0.6166 -1.7524  0.1900
   97bbb     C7 2832   0.931   0.126   8.023  0.3277  0.2693 -0.9065
   97bbb    H13 2833   0.960   0.027   7.985 -0.7710 -0.5393  0.2586
   97bbb    H14 2834   0.981   0.148   8.118 -0.7610  0.9909 -0.4705
   97bbb     C8 2835   0.531  -0.148   7.732 -0.7831  0.6850  0.5081
   97bbb    H15 2836   0.426  -0.180   7.731 -0.3626 -0.8648  1.7501
   97bbb    H16 2837   0.591  -0.231   7.692  1.5325  2.0968  0.8673
   97bbb     C9 2838   0.295   0.144   8.331  0.2925  0.2332 -0.3662
   97bbb    H17 2839   0.333   0.090   8.419  0.9646  0.4853 -0.4942
   97bbb    H18 2840   0.189   0.118   8.344  1.1014 -2.4421  2.2142
   97bbb     O1 2841   0.971   0.219   7.924 -0.1672  0.7492  0.1792
   98bbb     N1 2842   2.602   2.309   7.408  0.1689  0.3457  0.2489
   98bbb     C1 2843   2.677   2.223   7.319 -0.0521  0.5406 -0.1060
   98bbb     H1 2844   2.735   2.280   7.245 -0.3908 -1.0408 -1.6406
   98bbb     H2 2845   2.609   2.162   7.258  0.4373 -0.6617  0.5357
   98bbb     C2 2846   2.686   2.411   7.485  0.6520  0.5542  0.0741
   98bbb     H3 2847   2.733   2.362   7.571 -2.0676 -1.7604  0.4067
   98bbb     H4 2848   2.616   2.480   7.535 -1.7453 -1.7461  0.1496
   98bbb     C3 2849   2.506   2.235   7.490 -0.0492  0.5305 -0.0742
   98bbb     H5 2850   2.556   2.181   7.571 -0.1928 -0.0212 -0.3531
   98bbb     H6 2851   2.456   2.151   7.441 -0.5498  0.4734  0.5229
   98bbb     C4 2852   2.394   2.331   7.550 -0.0249  0.1553  0.4570
   98bbb     H7 2853   2.366   2.411   7.480 -0.2286 -1.4172 -1.3547
   98bbb     H8 2854   2.447   2.376   7.634 -2.3055 -0.5144  2.3434
   98bbb     C5 2855   2.785   2.130   7.377 -1.1615 -0.1653 -0.5286
   98bbb     H9 2856   2.836   2.192   7.451 -3.1923  1.1327 -0.1477
   98bbb    H10 2857   2.854   2.124   7.292  0.7218 -3.7768  1.0393
   98bbb     C6 2858   2.789   2.501   7.403  0.0511 -0.3454  0.3624
   98bbb    H11 2859   2.867   2.434   7.367  1.2465  1.7957 -1.3290
   98bbb    H12 2860   2.828   2.581   7.468 -0.9925  0.8345 -0.4064
   98bbb     C7 2861   2.267   2.254   7.602 -0.0957 -0.3034 -0.4014
   98bbb    H13 2862   2.195   2.226   7.526 -0.2310  0.8066 -0.7024
   98bbb    H14 2863   2.213   2.315   7.675 -1.9212 -0.4631 -1.5780
   98bbb     C8 2864   2.720   2.570   7.287 -0.0782 -0.1967 -0.0111
   98bbb    H15 2865   2.666   2.656   7.327  2.0896  0.9970  0.5405
   98bbb    H16 2866   2.651   2.497   7.244 -2.0779  1.7353 -0.2224
   98bbb     C9 2867   2.741   1.994   7.442  0.3443 -0.7111 -0.8120
   98bbb    H17 2868   2.692   1.924   7.373 -2.0883 -0.6825  0.7494
   98bbb    H18 2869   2.667   2.025   7.517  2.9040 -1.3864  2.1957
   98bbb     O1 2870   2.321   2.142   7.673  0.0123  0.3627  0.0776
   99bbb     N1 2871   2.798   2.716   7.829  0.1408  0.2415  0.0172
   99bbb     C1 2872   2.936   2.672   7.783 -0.0839  0.0492 -0.2751
   99bbb     H1 2873   2.922   2.613   7.691 -1.9069 -0.7809  0.4933
   99bbb     H2 2874   2.972   2.593   7.850  1.3648  0.1606 -0.8695
   99bbb     C2 2875   2.755   2.844   7.762  0.0200 -0.2091  0.3891
   99bbb     H3 2876   2.745   2.825   7.654 -0.9949  0.0990  0.4132
   99bbb     H4 2877   2.821   2.929   7.784 -0.6032  0.3821  0.0463
   99bbb     C3 2878   2.697   2.607   7.815 -0.4526 -0.0126 -0.4276
   99bbb     H5 2879   2.685   2.594   7.707  1.4589  1.2275 -0.8407
   99bbb     H6 2880   2.601   2.643   7.855  0.1069  0.6090  0.4026
   99bbb     C4 2881   2.731   2.471   7.889 -0.8432  0.2796  0.2864
   99bbb     H7 2882   2.779   2.495   7.985  1.6030 -1.8081 -0.3017
   99bbb     H8 2883   2.812   2.426   7.830  1.0559  0.0579  2.8796
   99bbb     C5 2884   3.048   2.777   7.751 -0.5835  0.0792 -0.0727
   99bbb     H9 2885   3.020   2.849   7.673  0.1616  0.9960  0.4926
   99bbb    H10 2886   3.133   2.717   7.716 -1.6334  0.0174 -2.8179
   99bbb     C6 2887   2.621   2.907   7.797 -0.7643  0.5989 -0.8737
   99bbb    H11 2888   2.542   2.845   7.753  0.0365 -2.2659  1.3859
   99bbb    H12 2889   2.613   3.001   7.741  0.8890  0.6307 -1.1121
   99bbb     C7 2890   2.615   2.363   7.904  0.5383 -0.1048  0.2129
   99bbb    H13 2891   2.555   2.367   7.812  0.5196  2.1568  0.2669
   99bbb    H14 2892   2.552   2.399   7.986  1.9620  2.8968  0.1167
   99bbb     C8 2893   2.608   2.928   7.956 -0.2122  0.3441  0.3181
   99bbb    H15 2894   2.683   2.862   8.003  0.8664  0.0303 -1.7263
   99bbb    H16 2895   2.509   2.898   7.990  0.2310 -1.4909  0.0924
   99bbb     C9 2896   3.092   2.848   7.881  0.2646  0.4108  0.2055
   99bbb    H17 2897   2.996   2.887   7.917 -0.8299 -2.7746  1.0325
   99bbb    H18 2898   3.168   2.925   7.863  1.3783 -0.9975 -1.4203
   99bbb     O1 2899   2.673   2.231   7.923  0.4707 -0.1199 -0.3526
  100bbb     N1 2900   1.399   2.500   7.710  0.5819 -0.6827  0.6136
  100bbb     C1 2901   1.309   2.435   7.606 -0.0342 -0.3891  0.3223
  100bbb     H1 2902   1.341   2.332   7.592  2.3711  0.5202 -1.6039
  100bbb     H2 2903   1.335   2.486   7.512  2.4601 -1.3642  0.4121
  100bbb     C2 2904   1.362   2.475   7.850 -0.5495 -1.0035  0.4163
  100bbb     H3 2905   1.263   2.519   7.872 -0.5286 -0.8175  0.1461
  100bbb     H4 2906   1.429   2.521   7.923  0.4003 -3.8116  1.4075
  100bbb     C3 2907   1.540   2.490   7.682  0.0877 -0.4457 -0.6609
  100bbb     H5 2908   1.551   2.524   7.578 -3.1752  1.6449 -0.4556
  100bbb     H6 2909   1.571   2.385   7.688 -1.5987 -0.8979  0.8141
  100bbb     C4 2910   1.630   2.583   7.768 -0.4698  0.2170  0.0612
  100bbb     H7 2911   1.627   2.551   7.873 -1.1829 -1.2513 -0.3868
  100bbb     H8 2912   1.593   2.686   7.773 -0.7534  0.0758  1.1325
  100bbb     C5 2913   1.159   2.458   7.624  0.4323  0.0508 -0.3635
  100bbb     H9 2914   1.131   2.410   7.718 -1.2051  1.7145  0.0667
  100bbb    H10 2915   1.105   2.410   7.541 -0.0894  0.9122 -0.5395
  100bbb     C6 2916   1.354   2.327   7.890 -0.8604  0.0641 -0.4440
  100bbb    H11 2917   1.443   2.276   7.850 -1.0229  1.0263 -2.1051
  100bbb    H12 2918   1.272   2.278   7.837  0.3822 -3.3734  0.5046
  100bbb     C7 2919   1.779   2.559   7.728  0.8799  0.0419  0.4906
  100bbb    H13 2920   1.842   2.646   7.752  2.1156 -0.3608 -1.0832
  100bbb    H14 2921   1.781   2.537   7.620 -0.5550 -0.9394  0.6367
  100bbb     C8 2922   1.344   2.309   8.044  0.2035  0.1336  0.2243
  100bbb    H15 2923   1.435   2.361   8.077  0.1586  2.7405 -3.1824
  100bbb    H16 2924   1.344   2.202   8.068  2.5221 -0.1762 -0.8236
  100bbb     C9 2925   1.122   2.607   7.647 -0.0542 -0.5319 -0.3832
  100bbb    H17 2926   1.171   2.657   7.562 -0.0320 -0.1861 -0.1672
  100bbb    H18 2927   1.162   2.655   7.737  0.0838  0.3404 -0.8946
  100bbb     O1 2928   1.833   2.442   7.789  0.4903 -0.4638  0.2308
  101bbb     N1 2929   1.509   2.773   8.200  0.3368 -0.5281 -0.2531
  101bbb     C1 2930   1.409   2.798   8.094  0.4822  0.0920  0.3459
  101bbb     H1 2931   1.307   2.779   8.131 -0.0946 -0.3864 -1.4080
  101bbb     H2 2932   1.431   2.718   8.022 -1.0992 -1.0702  1.0951
  101bbb     C2 2933   1.493   2.863   8.321 -0.3060 -0.0645 -0.2707
  101bbb     H3 2934   1.513   2.966   8.290 -1.3933  0.6674  1.3591
  101bbb     H4 2935   1.574   2.842   8.392  0.1173 -1.1489 -1.0429
  101bbb     C3 2936   1.521   2.635   8.243  0.4106 -0.1325  0.5321
  101bbb     H5 2937   1.536   2.576   8.152 -1.4062  1.1334 -0.6672
  101bbb     H6 2938   1.421   2.611   8.281  0.2831  0.2647  0.4604
  101bbb     C4 2939   1.635   2.596   8.344  1.0538  0.2146 -0.0497
  101bbb     H7 2940   1.604   2.630   8.444 -0.0811 -1.1870  0.1048
  101bbb     H8 2941   1.728   2.653   8.328  1.2871 -0.1140  0.1149
  101bbb     C5 2942   1.403   2.935   8.028  0.8607  0.0984 -0.6008
  101bbb     H9 2943   1.493   2.952   7.966  0.6681  0.4523 -0.7882
  101bbb    H10 2944   1.403   3.007   8.111  0.0339 -0.2552 -0.2906
  101bbb     C6 2945   1.354   2.857   8.392  0.1483  0.0500 -0.8044
  101bbb    H11 2946   1.337   2.757   8.432 -0.3236  1.1161  1.9304
  101bbb    H12 2947   1.272   2.877   8.322  0.0121 -1.3957 -1.0784
  101bbb     C7 2948   1.649   2.441   8.346 -0.0138 -0.3817 -0.2932
  101bbb    H13 2949   1.660   2.403   8.244 -3.1688 -0.5193 -0.6970
  101bbb    H14 2950   1.561   2.405   8.400  0.5676 -0.2582  0.7632
  101bbb     C8 2951   1.340   2.957   8.507 -0.1549  0.5439 -0.6877
  101bbb    H15 2952   1.332   3.060   8.470 -0.4817  0.4080 -1.0099
  101bbb    H16 2953   1.427   2.947   8.572  0.0106 -0.4828 -1.0529
  101bbb     C9 2954   1.278   2.954   7.947  0.4213 -0.2085  0.5981
  101bbb    H17 2955   1.196   2.909   8.004 -0.3971 -0.6297 -0.8494
  101bbb    H18 2956   1.277   2.900   7.852  0.2481 -0.2455  0.6210
  101bbb     O1 2957   1.768   2.423   8.415 -0.2379  0.4902 -0.2872
  102bbb     N1 2958   2.799   1.205   4.988 -0.1063  0.1279  0.4738
  102bbb     C1 2959   2.832   1.339   5.039  0.0768  0.9073  0.2290
  102bbb     H1 2960   2.836   1.415   4.960  3.2776  1.5702  0.9104
  102bbb     H2 2961   2.925   1.333   5.096  0.4252  0.5222 -0.3756
  102bbb     C2 2962   2.835   1.178   4.847  0.6692 -0.8091 -0.3415
  102bbb     H3 2963   2.817   1.076   4.812  1.1282 -1.3588  0.9510
  102bbb     H4 2964   2.943   1.191   4.833  1.0450  1.6244  3.3125
  102bbb     C3 2965   2.838   1.098   5.079 -0.2583  0.3711 -0.4114
  102bbb     H5 2966   2.837   1.136   5.182 -1.1009 -0.2989 -0.1573
  102bbb     H6 2967   2.943   1.070   5.065  0.0915  0.2033  2.0392
  102bbb     C4 2968   2.739   0.981   5.094 -0.5761  0.2732  0.0015
  102bbb     H7 2969   2.786   0.897   5.148 -0.2532 -1.8990 -3.3907
  102bbb     H8 2970   2.699   0.930   5.006 -1.4821 -0.2685  0.7026
  102bbb     C5 2971   2.730   1.394   5.146  0.1504 -0.1118 -0.0154
  102bbb     H9 2972   2.716   1.334   5.237 -1.1842  2.1725  1.3667
  102bbb    H10 2973   2.636   1.383   5.089 -0.3477 -0.5251  0.8705
  102bbb     C6 2974   2.750   1.256   4.742 -0.0078 -0.0068  0.0427
  102bbb    H11 2975   2.793   1.357   4.742 -1.2056  0.5745  2.1353
  102bbb    H12 2976   2.650   1.253   4.786  0.5356 -0.3147  1.3181
  102bbb     C7 2977   2.617   1.033   5.172  0.7490  0.1567 -0.0752
  102bbb    H13 2978   2.579   1.118   5.115 -1.6807 -0.7474  0.0689
  102bbb    H14 2979   2.637   1.067   5.274  1.2850  0.6850 -0.3497
  102bbb     C8 2980   2.771   1.198   4.597 -0.2884 -0.3981  0.4294
  102bbb    H15 2981   2.702   1.113   4.590  0.1378 -0.7618  0.5898
  102bbb    H16 2982   2.871   1.153   4.589 -0.6011 -1.4030  1.8404
  102bbb     C9 2983   2.752   1.535   5.182 -0.0561  0.0339 -0.7154
  102bbb    H17 2984   2.666   1.586   5.227 -0.4201 -1.0116 -0.1885
  102bbb    H18 2985   2.779   1.590   5.092 -0.8370  1.3907 -0.1573
  102bbb     O1 2986   2.526   0.921   5.155 -0.3968  0.1866  0.1444
  103bbb     N1 2987   1.609   0.485   4.621  0.8885 -0.6961 -0.1943
  103bbb     C1 2988   1.512   0.599   4.645  0.0696 -0.3044 -0.3016
  103bbb     H1 2989   1.408   0.571   4.666 -0.1286  2.3742  3.2931
  103bbb     H2 2990   1.512   0.675   4.566 -1.3279  0.0118 -0.0206
  103bbb     C2 2991   1.564   0.394   4.516  0.3880  1.1182 -0.0383
  103bbb     H3 2992   1.629   0.306   4.508  0.4993  1.0444  1.4446
  103bbb     H4 2993   1.563   0.444   4.418 -0.2310 -0.7597 -1.0615
  103bbb     C3 2994   1.754   0.518   4.610 -0.0112 -0.1812  0.1386
  103bbb     H5 2995   1.810   0.428   4.582 -0.3447 -0.4737  0.3984
  103bbb     H6 2996   1.785   0.546   4.711 -0.5532 -0.0306  0.2670
  103bbb     C4 2997   1.797   0.637   4.523  0.2589 -0.0637  0.4760
  103bbb     H7 2998   1.742   0.729   4.548 -1.5029 -1.2088  1.0691
  103bbb     H8 2999   1.777   0.618   4.417 -0.7446 -0.5898  0.7475
  103bbb     C5 3000   1.554   0.675   4.772 -0.2020 -0.4143  0.3086
  103bbb     H9 3001   1.487   0.760   4.792  1.5374  0.8876  0.7619
  103bbb    H10 3002   1.655   0.713   4.755 -0.2088 -0.9206 -0.9566
  103bbb     C6 3003   1.421   0.333   4.534  0.3472  0.2278  0.2387
  103bbb    H11 3004   1.410   0.247   4.468  0.2677  1.0624 -0.8695
  103bbb    H12 3005   1.350   0.409   4.500  0.8416 -0.5803 -2.9063
  103bbb     C7 3006   1.946   0.674   4.537 -0.4263  0.1693 -0.7718
  103bbb    H13 3007   1.961   0.732   4.446 -2.1890 -1.2001 -1.9949
  103bbb    H14 3008   2.011   0.585   4.539 -0.4105  0.1731 -1.1337
  103bbb     C8 3009   1.396   0.292   4.683 -0.8636 -0.4612  0.2046
  103bbb    H15 3010   1.406   0.382   4.744  1.9980 -1.7887  1.8616
  103bbb    H16 3011   1.485   0.238   4.716  0.2348  0.1564 -1.6227
  103bbb     C9 3012   1.562   0.584   4.898 -0.0648 -0.7675 -0.2844
  103bbb    H17 3013   1.654   0.524   4.898  0.8053  0.4266  2.0723
  103bbb    H18 3014   1.480   0.511   4.899  0.8897 -1.8741  0.7925
  103bbb     O1 3015   1.960   0.753   4.656  0.2151  0.0947  0.2495
  104bbb     N1 3016   3.743  -0.228   5.380 -0.1098 -0.5793 -0.1186
  104bbb     C1 3017   3.811  -0.320   5.293 -0.7518 -0.6757  0.0064
  104bbb     H1 3018   3.777  -0.317   5.189 -0.6916  0.5669  0.0031
  104bbb     H2 3019   3.802  -0.416   5.345 -0.3059 -0.0622  1.2755
  104bbb     C2 3020   3.788  -0.226   5.527 -0.2197 -0.3092 -0.2682
  104bbb     H3 3021   3.724  -0.162   5.588 -0.6895  0.2174 -1.2824
  104bbb     H4 3022   3.890  -0.186   5.532 -0.0262 -0.8604  0.4072
  104bbb     C3 3023   3.732  -0.086   5.330 -0.1920  1.2227 -0.1435
  104bbb     H5 3024   3.714  -0.096   5.222 -1.4965  0.1088  0.1459
  104bbb     H6 3025   3.830  -0.037   5.334 -0.4852  1.7453  1.0136
  104bbb     C4 3026   3.612  -0.014   5.389  0.5872 -0.3760 -0.5793
  104bbb     H7 3027   3.609  -0.015   5.498  1.5249 -0.6828 -0.5468
  104bbb     H8 3028   3.523  -0.072   5.361  1.3354 -1.7637 -0.1304
  104bbb     C5 3029   3.961  -0.293   5.287 -0.2204 -0.0506  0.4740
  104bbb     H9 3030   4.006  -0.294   5.387  1.7949  1.6329 -0.3555
  104bbb    H10 3031   3.965  -0.195   5.238 -0.7515  0.3182  1.1470
  104bbb     C6 3032   3.786  -0.361   5.601 -0.1940  0.1336 -0.3809
  104bbb    H11 3033   3.822  -0.345   5.703  0.2570  1.3146 -0.7115
  104bbb    H12 3034   3.845  -0.434   5.544 -3.1026 -2.8389  0.0917
  104bbb     C7 3035   3.591   0.129   5.334 -0.0413 -0.1583 -0.5652
  104bbb    H13 3036   3.623   0.132   5.229  2.6343  0.5758  0.1837
  104bbb    H14 3037   3.653   0.203   5.387 -2.3460  2.2366 -0.9896
  104bbb     C8 3038   3.643  -0.414   5.615  0.9354 -0.4245 -0.3347
  104bbb    H15 3039   3.593  -0.450   5.525 -2.3891 -1.3248  1.6647
  104bbb    H16 3040   3.588  -0.326   5.652  0.9271  0.2552 -1.8884
  104bbb     C9 3041   4.035  -0.402   5.199  0.0219  0.1986 -0.4589
  104bbb    H17 3042   4.029  -0.492   5.261 -0.5778  2.3089  2.8135
  104bbb    H18 3043   4.136  -0.359   5.192  0.4561 -0.3784  1.5382
  104bbb     O1 3044   3.453   0.172   5.339  0.0487  0.5482 -0.4584
  105bbb     N1 3045   2.649  -0.488   5.035  0.8658 -0.0819  0.2889
  105bbb     C1 3046   2.569  -0.462   4.913 -0.0049 -0.6058 -0.0992
  105bbb     H1 3047   2.551  -0.545   4.844  0.8958 -0.7465 -0.1772
  105bbb     H2 3048   2.597  -0.369   4.863 -3.6011  0.6708 -0.0528
  105bbb     C2 3049   2.619  -0.614   5.109  0.3892  0.2573  0.0264
  105bbb     H3 3050   2.513  -0.608   5.133  0.3776 -0.2318  0.1152
  105bbb     H4 3051   2.682  -0.615   5.199  0.3326 -0.9657  0.0762
  105bbb     C3 3052   2.796  -0.472   5.008  0.6078  0.3035 -0.4258
  105bbb     H5 3053   2.835  -0.523   4.919 -0.0996  2.0172 -1.7640
  105bbb     H6 3054   2.848  -0.513   5.095  0.5327 -0.7102 -0.8382
  105bbb     C4 3055   2.832  -0.320   5.016  0.7243  0.1838  0.3491
  105bbb     H7 3056   2.775  -0.266   4.939 -0.5622 -0.3369  0.9095
  105bbb     H8 3057   2.941  -0.307   5.009  0.6655 -0.0513 -1.6029
  105bbb     C5 3058   2.426  -0.421   4.956 -0.1761  0.6146  0.2168
  105bbb     H9 3059   2.437  -0.361   5.047 -1.3100  1.0629  0.0860
  105bbb    H10 3060   2.367  -0.509   4.986  1.0040  0.2623  1.6423
  105bbb     C6 3061   2.636  -0.742   5.027  0.2174  0.0956 -0.7735
  105bbb    H11 3062   2.712  -0.721   4.950  1.3567  1.8701  0.7605
  105bbb    H12 3063   2.554  -0.761   4.957 -0.3255  1.3206 -0.4842
  105bbb     C7 3064   2.797  -0.256   5.151 -0.4318  0.2681 -0.6081
  105bbb    H13 3065   2.815  -0.316   5.241 -1.2122  0.7856 -0.0908
  105bbb    H14 3066   2.688  -0.249   5.150 -0.3329  2.2794 -1.4685
  105bbb     C8 3067   2.662  -0.866   5.119 -0.8674 -0.1619  0.7521
  105bbb    H15 3068   2.592  -0.863   5.202 -0.7683 -0.4121  0.8435
  105bbb    H16 3069   2.760  -0.856   5.167  0.4176  0.4002 -1.7672
  105bbb     C9 3070   2.342  -0.348   4.844  0.1779  0.1372  0.0449
  105bbb    H17 3071   2.332  -0.411   4.755 -1.1854 -0.0290  0.2896
  105bbb    H18 3072   2.390  -0.261   4.798 -1.9951  0.5540 -1.6135
  105bbb     O1 3073   2.844  -0.122   5.163  0.1005 -0.6853 -0.0248
  106bbb     N1 3074   2.450   2.360   6.517  0.0659 -0.1851 -0.0463
  106bbb     C1 3075   2.321   2.379   6.448 -0.7041  0.0171 -0.0288
  106bbb     H1 3076   2.358   2.426   6.356  1.5483 -0.7653  0.4316
  106bbb     H2 3077   2.251   2.450   6.495  2.9420  3.1734  1.1300
  106bbb     C2 3078   2.435   2.317   6.659  0.0192  0.0651  0.2765
  106bbb     H3 3079   2.488   2.222   6.676 -0.3699 -0.1142  0.5184
  106bbb     H4 3080   2.331   2.296   6.689  0.0424  3.2252  3.2437
  106bbb     C3 3081   2.551   2.280   6.447  0.5792  0.7438 -0.3843
  106bbb     H5 3082   2.513   2.178   6.431  0.9954  0.4956  0.2037
  106bbb     H6 3083   2.635   2.267   6.516  0.1017 -1.0807 -0.0992
  106bbb     C4 3084   2.607   2.332   6.311 -0.1077 -0.0327  0.2457
  106bbb     H7 3085   2.677   2.412   6.340 -0.4499  0.5882 -0.6207
  106bbb     H8 3086   2.538   2.373   6.236  4.6085  1.0829 -4.0181
  106bbb     C5 3087   2.251   2.248   6.412 -0.0588 -0.3385  0.1892
  106bbb     H9 3088   2.253   2.180   6.498  2.1198  1.5050  1.6918
  106bbb    H10 3089   2.314   2.208   6.332  1.4122  1.1133  0.5851
  106bbb     C6 3090   2.488   2.419   6.767 -0.4253  0.6341  0.1401
  106bbb    H11 3091   2.596   2.432   6.756 -0.6319  1.8510 -0.5809
  106bbb    H12 3092   2.488   2.375   6.868  2.0572  0.1143 -0.0134
  106bbb     C7 3093   2.699   2.215   6.251 -0.6884 -0.0438 -0.4302
  106bbb    H13 3094   2.631   2.129   6.246 -0.9224  0.1651 -0.9102
  106bbb    H14 3095   2.779   2.193   6.323 -1.5372  1.4204  1.0404
  106bbb     C8 3096   2.411   2.558   6.765 -0.1016  0.3699 -0.6195
  106bbb    H15 3097   2.321   2.548   6.827  1.0053 -1.1546  0.8174
  106bbb    H16 3098   2.386   2.581   6.661 -2.2402 -1.5616 -0.6030
  106bbb     C9 3099   2.108   2.267   6.347  0.1447 -0.3510 -0.4789
  106bbb    H17 3100   2.086   2.187   6.275 -1.6410 -0.1174 -0.2517
  106bbb    H18 3101   2.109   2.359   6.288  1.8137 -1.2462 -1.9575
  106bbb     O1 3102   2.756   2.253   6.120  0.1216  0.0927 -0.0170
  107bbb     N1 3103   3.547   2.343   4.975  0.1424  0.4485  0.1101
  107bbb     C1 3104   3.499   2.202   4.940 -0.6182 -0.0782 -0.2636
  107bbb     H1 3105   3.394   2.186   4.965 -0.9204 -1.5992 -2.2396
  107bbb     H2 3106   3.558   2.132   5.001 -0.0716  0.8703  0.3148
  107bbb     C2 3107   3.691   2.362   4.985  0.3462  0.3114 -0.5041
  107bbb     H3 3108   3.743   2.315   4.901 -1.1493  0.1041 -1.3380
  107bbb     H4 3109   3.733   2.301   5.066 -0.6583 -0.4130 -0.5250
  107bbb     C3 3110   3.464   2.410   5.078  0.5038  0.6034  0.0078
  107bbb     H5 3111   3.358   2.393   5.052  0.7073 -0.5830 -0.1069
  107bbb     H6 3112   3.483   2.515   5.103 -1.4686  0.3660  3.1114
  107bbb     C4 3113   3.479   2.341   5.213  0.3743  0.2986 -0.0388
  107bbb     H7 3114   3.585   2.344   5.242  0.3111 -0.0813  0.2372
  107bbb     H8 3115   3.466   2.232   5.208 -0.0259  0.2950  0.9183
  107bbb     C5 3116   3.513   2.174   4.790  0.3198  0.0819 -0.1463
  107bbb     H9 3117   3.619   2.160   4.765  0.3241 -2.8675  1.1422
  107bbb    H10 3118   3.478   2.267   4.744  0.5727  0.3971  0.2950
  107bbb     C6 3119   3.738   2.506   5.009  0.3487 -0.5660  0.0577
  107bbb    H11 3120   3.691   2.548   5.099  2.3765 -1.4362  1.6153
  107bbb    H12 3121   3.706   2.568   4.925 -0.0429 -2.4168 -1.2215
  107bbb     C7 3122   3.381   2.395   5.320  0.0761  0.0139 -0.4836
  107bbb    H13 3123   3.281   2.412   5.280 -0.2203  0.9204  0.5960
  107bbb    H14 3124   3.422   2.495   5.339  2.7971 -0.7798 -1.6572
  107bbb     C8 3125   3.890   2.527   5.025 -0.3817  0.6181 -0.4846
  107bbb    H15 3126   3.907   2.631   4.994 -1.1308  0.5711 -1.0844
  107bbb    H16 3127   3.936   2.471   4.944  0.3113  2.0390 -1.1043
  107bbb     C9 3128   3.433   2.050   4.731 -0.0645 -0.3117 -0.0542
  107bbb    H17 3129   3.470   1.961   4.783  3.9571  1.9287  1.3999
  107bbb    H18 3130   3.457   2.054   4.624 -0.3463 -0.2871 -0.1173
  107bbb     O1 3131   3.370   2.327   5.439 -0.0100  0.0829 -0.4684
  108bbb     N1 3132   3.384   1.479   7.799 -0.5343  0.1907 -0.3088
  108bbb     C1 3133   3.360   1.609   7.879 -0.1858 -0.3224  0.1648
  108bbb     H1 3134   3.319   1.583   7.977 -1.4079  1.7695  0.2686
  108bbb     H2 3135   3.279   1.673   7.842  0.6014  0.4027 -0.3153
  108bbb     C2 3136   3.460   1.379   7.877 -0.7763  0.0691 -0.5835
  108bbb     H3 3137   3.404   1.367   7.970  1.2640 -2.0855  0.4645
  108bbb     H4 3138   3.555   1.425   7.907 -1.4698  1.2541 -0.1353
  108bbb     C3 3139   3.425   1.496   7.664 -0.2923  0.1643 -0.7317
  108bbb     H5 3140   3.439   1.394   7.625 -0.2874 -0.8435  1.7008
  108bbb     H6 3141   3.525   1.541   7.668 -0.5940  0.7557  0.7746
  108bbb     C4 3142   3.337   1.586   7.578  0.0909 -0.1515 -0.0158
  108bbb     H7 3143   3.326   1.686   7.621 -2.4876 -0.2062 -0.4235
  108bbb     H8 3144   3.238   1.540   7.578 -1.1794  2.3879  1.3114
  108bbb     C5 3145   3.487   1.692   7.903 -0.1653 -0.2395 -0.0115
  108bbb     H9 3146   3.542   1.717   7.812  3.0786 -2.0715  1.2869
  108bbb    H10 3147   3.562   1.654   7.974  0.1247 -0.1672 -0.2785
  108bbb     C6 3148   3.483   1.240   7.805  0.4145 -0.1174 -0.3788
  108bbb    H11 3149   3.536   1.172   7.872 -0.9847  1.3719  2.4621
  108bbb    H12 3150   3.537   1.243   7.709  0.5553 -1.9160 -0.3886
  108bbb     C7 3151   3.394   1.604   7.437  0.3862 -0.2540 -0.5876
  108bbb    H13 3152   3.495   1.644   7.450  0.5175 -0.7933  0.1449
  108bbb    H14 3153   3.334   1.671   7.374 -2.2973 -0.3622  1.6434
  108bbb     C8 3154   3.348   1.175   7.774  0.1924 -0.2644 -0.4364
  108bbb    H15 3155   3.288   1.255   7.728  0.5292 -1.7669 -3.8272
  108bbb    H16 3156   3.308   1.138   7.869  3.2307  0.8687  1.4365
  108bbb     C9 3157   3.444   1.829   7.958 -0.2501 -0.2523  0.1475
  108bbb    H17 3158   3.386   1.797   8.046  0.3292 -2.6066 -0.2413
  108bbb    H18 3159   3.371   1.872   7.889  0.0078 -1.1374 -0.6951
  108bbb     O1 3160   3.388   1.477   7.362 -0.1765 -0.5081  0.4099
  109bbb     N1 3161   4.125   1.449   6.327 -0.4521  0.9590  0.3169
  109bbb     C1 3162   4.005   1.376   6.266 -0.0779 -0.2794  0.0815
  109bbb     H1 3163   4.042   1.339   6.170  0.5652 -0.0236  0.2254
  109bbb     H2 3164   3.923   1.439   6.228  1.2349 -0.9749 -4.4229
  109bbb     C2 3165   4.181   1.562   6.247  0.5174 -0.6327 -0.0616
  109bbb     H3 3166   4.276   1.593   6.291  0.5996 -0.8404 -0.0937
  109bbb     H4 3167   4.117   1.651   6.241  2.1934  0.6134 -0.2376
  109bbb     C3 3168   4.110   1.471   6.477  0.3199 -0.0756 -0.3703
  109bbb     H5 3169   4.204   1.514   6.514  1.3299 -0.3626 -2.4522
  109bbb     H6 3170   4.088   1.378   6.531 -1.3598 -0.1318 -1.0830
  109bbb     C4 3171   3.990   1.565   6.510 -0.1774 -0.3859 -0.5712
  109bbb     H7 3172   3.898   1.540   6.457 -0.1839  1.1064 -1.3423
  109bbb     H8 3173   4.020   1.666   6.478  0.4191 -1.0755 -2.3206
  109bbb     C5 3174   3.954   1.257   6.336 -0.1194  0.2027 -0.0066
  109bbb     H9 3175   3.922   1.287   6.436  0.5645  0.1859  0.2174
  109bbb    H10 3176   4.037   1.187   6.349 -0.7247 -0.6358 -0.5226
  109bbb     C6 3177   4.227   1.524   6.107  0.5553 -0.1082 -0.6080
  109bbb    H11 3178   4.145   1.479   6.051  1.0362 -2.1516  0.2435
  109bbb    H12 3179   4.313   1.457   6.115  1.1746  0.7703  0.4211
  109bbb     C7 3180   3.961   1.556   6.665  0.3172  0.0410  0.7695
  109bbb    H13 3181   3.885   1.628   6.697 -2.1249 -1.7010 -0.6640
  109bbb    H14 3182   4.058   1.578   6.711  0.5139 -0.3488  0.5510
  109bbb     C8 3183   4.275   1.650   6.028  0.1007 -1.0179  0.2626
  109bbb    H15 3184   4.356   1.705   6.079  1.1980 -1.3941 -1.0231
  109bbb    H16 3185   4.189   1.718   6.031 -0.2036 -1.0060 -3.7785
  109bbb     C9 3186   3.837   1.186   6.253  0.1997 -1.2875  0.4179
  109bbb    H17 3187   3.879   1.149   6.158  0.0873 -1.3965  0.4112
  109bbb    H18 3188   3.764   1.262   6.223 -0.2934 -0.6466  3.0326
  109bbb     O1 3189   3.917   1.422   6.697  1.0820 -0.3277 -0.0433
  110bbb     N1 3190   0.198  -0.550   6.724  0.0549  0.5740 -0.3619
  110bbb     C1 3191   0.164  -0.523   6.868 -0.3285  0.0464  0.8654
  110bbb     H1 3192   0.058  -0.529   6.894  0.1311 -1.3882  2.6179
  110bbb     H2 3193   0.218  -0.432   6.895  0.2435 -0.7040  2.3923
  110bbb     C2 3194   0.098  -0.651   6.671  0.0855 -0.8048 -0.2963
  110bbb     H3 3195  -0.002  -0.606   6.669 -0.1660 -1.1122  2.1309
  110bbb     H4 3196   0.097  -0.743   6.730  1.0816 -0.5813  0.0962
  110bbb     C3 3197   0.200  -0.424   6.642  0.7204  0.0285  0.3949
  110bbb     H5 3198   0.100  -0.382   6.656  0.2032 -1.1169  0.3082
  110bbb     H6 3199   0.216  -0.449   6.537 -0.0805  1.7603 -0.1631
  110bbb     C4 3200   0.308  -0.320   6.690 -0.8299 -0.4276  0.1121
  110bbb     H7 3201   0.405  -0.360   6.658  0.2609  0.9995  1.4975
  110bbb     H8 3202   0.322  -0.290   6.794  0.9102  0.1371 -0.2463
  110bbb     C5 3203   0.244  -0.625   6.952  0.3987  0.0111  0.0611
  110bbb     H9 3204   0.353  -0.615   6.940  0.2815  0.3910 -0.7327
  110bbb    H10 3205   0.204  -0.725   6.931  2.6336 -0.9072 -0.1044
  110bbb     C6 3206   0.136  -0.708   6.531  0.6114  0.3161  0.4025
  110bbb    H11 3207   0.117  -0.633   6.453 -1.4199 -1.0564 -0.4884
  110bbb    H12 3208   0.074  -0.796   6.512  0.7915  0.2834 -0.0523
  110bbb     C7 3209   0.289  -0.188   6.608  0.1748  0.1608 -0.1266
  110bbb    H13 3210   0.209  -0.133   6.660  1.3706  2.3930 -0.5056
  110bbb    H14 3211   0.261  -0.216   6.506 -1.8910 -1.5153  0.8013
  110bbb     C8 3212   0.287  -0.741   6.516 -0.4698 -0.5621  0.7925
  110bbb    H15 3213   0.329  -0.769   6.613  0.6711  2.0253  1.1274
  110bbb    H16 3214   0.342  -0.650   6.491  1.6077 -1.9368  0.1023
  110bbb     C9 3215   0.230  -0.603   7.102  0.5373 -0.4069 -0.2304
  110bbb    H17 3216   0.171  -0.688   7.137  0.3350 -0.0686  0.2606
  110bbb    H18 3217   0.161  -0.518   7.114  1.8789  0.5025  1.3705
  110bbb     O1 3218   0.420  -0.121   6.600 -0.2086 -0.1909 -0.9491
  111bbb     N1 3219   1.522  -0.731   6.749  0.0158 -0.0090  0.5929
  111bbb     C1 3220   1.667  -0.746   6.783 -0.6292  0.2020 -0.0038
  111bbb     H1 3221   1.719  -0.830   6.736 -2.5532 -1.5300  0.8138
  111bbb     H2 3222   1.685  -0.763   6.890  0.2635 -0.2825 -0.2192
  111bbb     C2 3223   1.453  -0.852   6.696 -0.1526 -0.1862 -0.1353
  111bbb     H3 3224   1.346  -0.826   6.699 -0.0220  0.5844 -1.3193
  111bbb     H4 3225   1.463  -0.934   6.768 -1.2942 -1.6863 -1.6190
  111bbb     C3 3226   1.450  -0.649   6.846 -1.1219  0.3126 -0.7400
  111bbb     H5 3227   1.514  -0.568   6.882 -1.8771  0.6734 -0.1964
  111bbb     H6 3228   1.412  -0.708   6.930  0.9805 -0.1265 -0.0273
  111bbb     C4 3229   1.333  -0.569   6.790 -0.4172  0.5734  1.0407
  111bbb     H7 3230   1.289  -0.626   6.707  0.7824  0.4777  0.4419
  111bbb     H8 3231   1.379  -0.482   6.741 -2.7651  0.4748 -1.5582
  111bbb     C5 3232   1.747  -0.615   6.751  0.4588  0.9474  0.1983
  111bbb     H9 3233   1.691  -0.531   6.793  0.6512  1.3107 -0.2709
  111bbb    H10 3234   1.759  -0.601   6.643  1.1722 -0.0984  0.1198
  111bbb     C6 3235   1.521  -0.902   6.562  0.2439  0.1136  0.3143
  111bbb    H11 3236   1.464  -0.990   6.528  0.1142  0.6268 -0.8378
  111bbb    H12 3237   1.622  -0.944   6.571  0.5006  0.4167 -1.0204
  111bbb     C7 3238   1.235  -0.521   6.899  0.5558 -0.0897 -1.2656
  111bbb    H13 3239   1.303  -0.482   6.975 -0.5557 -0.5146 -0.0110
  111bbb    H14 3240   1.167  -0.598   6.938  0.1316  1.0194  0.2445
  111bbb     C8 3241   1.515  -0.798   6.449  0.2967  0.0275 -0.0042
  111bbb    H15 3242   1.564  -0.708   6.487  2.3475 -1.3123  0.6662
  111bbb    H16 3243   1.410  -0.769   6.431  0.2871  0.1432  0.2334
  111bbb     C9 3244   1.886  -0.614   6.815  1.4327 -0.1035 -0.1248
  111bbb    H17 3245   1.883  -0.652   6.918  0.0058  1.5080  0.4837
  111bbb    H18 3246   1.918  -0.509   6.817  1.0818  0.0085 -0.1137
  111bbb     O1 3247   1.153  -0.416   6.844  0.0565 -0.2540  0.5522
  112bbb     N1 3248  -0.163  -0.002   5.121 -0.5034  0.1221 -0.2818
  112bbb     C1 3249  -0.243   0.124   5.098 -0.2390 -0.5046 -0.2869
  112bbb     H1 3250  -0.345   0.095   5.070  0.0442 -2.0063  0.1391
  112bbb     H2 3251  -0.204   0.188   5.017 -2.7320 -0.2782 -1.4260
  112bbb     C2 3252  -0.138  -0.072   4.989  0.1749 -0.7259  0.0841
  112bbb     H3 3253  -0.237  -0.100   4.951  0.7308 -1.1676 -1.1137
  112bbb     H4 3254  -0.082  -0.166   4.995  1.3997 -0.1161 -1.1489
  112bbb     C3 3255  -0.216  -0.082   5.232 -0.4937  0.6080  0.4561
  112bbb     H5 3256  -0.314  -0.118   5.200  1.2892 -2.3619 -2.2950
  112bbb     H6 3257  -0.224  -0.021   5.323 -0.4260 -2.1989  2.4696
  112bbb     C4 3258  -0.140  -0.212   5.262 -0.0773  0.0596 -0.6634
  112bbb     H7 3259  -0.032  -0.194   5.270  0.4228 -2.4415 -0.8395
  112bbb     H8 3260  -0.153  -0.280   5.177 -0.7150 -0.8592  0.1562
  112bbb     C5 3261  -0.273   0.221   5.226  0.1782  0.0951 -0.4418
  112bbb     H9 3262  -0.320   0.160   5.304 -0.4736  1.3473  0.1726
  112bbb    H10 3263  -0.342   0.293   5.183 -0.6691  0.1278  0.9036
  112bbb     C6 3264  -0.059   0.013   4.883  0.0522 -0.2343 -0.1459
  112bbb    H11 3265  -0.098   0.115   4.871 -0.0566 -0.2553  0.0267
  112bbb    H12 3266  -0.064  -0.033   4.784  0.6910 -0.5500 -0.0392
  112bbb     C7 3267  -0.186  -0.284   5.389  0.3088  0.3703  0.0921
  112bbb    H13 3268  -0.131  -0.376   5.411 -0.4106 -0.1552 -0.2631
  112bbb    H14 3269  -0.292  -0.313   5.380 -0.2001  0.9561  3.0025
  112bbb     C8 3270   0.093   0.014   4.905 -0.6101 -0.0930 -0.2893
  112bbb    H15 3271   0.123  -0.080   4.953  0.3620 -0.4146 -1.4696
  112bbb    H16 3272   0.128   0.089   4.978  1.2464 -0.7003 -0.4833
  112bbb     C9 3273  -0.137   0.285   5.269  0.0097 -0.4729 -0.6933
  112bbb    H17 3274  -0.115   0.365   5.198  0.7055  0.9424  1.0280
  112bbb    H18 3275  -0.064   0.203   5.268  0.3110 -0.3834  2.5050
  112bbb     O1 3276  -0.190  -0.195   5.499  0.5255 -0.4303 -0.0915
  113bbb     N1 3277   0.528  -0.259   5.024 -0.5558  1.0036 -0.7787
  113bbb     C1 3278   0.553  -0.353   4.912 -0.7259 -0.5833  1.3469
  113bbb     H1 3279   0.659  -0.378   4.911 -0.6060 -0.0603  0.3379
  113bbb     H2 3280   0.533  -0.310   4.813  1.5072  0.4089  1.2804
  113bbb     C2 3281   0.644  -0.172   5.061 -0.1081  0.4931 -0.1004
  113bbb     H3 3282   0.729  -0.241   5.063 -1.1936 -0.9402 -1.1358
  113bbb     H4 3283   0.628  -0.128   5.160 -0.4347 -0.5657  0.3335
  113bbb     C3 3284   0.400  -0.195   5.019  0.5330 -0.7423  0.6599
  113bbb     H5 3285   0.334  -0.263   4.966  0.2901 -1.7603  2.1937
  113bbb     H6 3286   0.406  -0.099   4.966  1.7617 -0.3650  1.4412
  113bbb     C4 3287   0.326  -0.179   5.154 -0.1900 -0.5734  0.0169
  113bbb     H7 3288   0.232  -0.133   5.122  0.2804  0.2161 -0.2423
  113bbb     H8 3289   0.371  -0.093   5.204 -0.1244 -0.7097  0.1920
  113bbb     C5 3290   0.487  -0.489   4.933  0.5459  0.1357  0.1972
  113bbb     H9 3291   0.518  -0.550   4.847 -0.4506 -0.3319  0.1610
  113bbb    H10 3292   0.378  -0.483   4.925  0.3813 -1.8633  0.3122
  113bbb     C6 3293   0.683  -0.065   4.961 -0.6348  0.2216  0.8936
  113bbb    H11 3294   0.612   0.016   4.942 -0.9200 -0.2582 -0.1761
  113bbb    H12 3295   0.691  -0.119   4.865  2.6564  1.2941  0.4631
  113bbb     C7 3296   0.310  -0.307   5.245  0.6293  0.4416 -0.1482
  113bbb    H13 3297   0.406  -0.336   5.288  0.0179  0.8276  1.5645
  113bbb    H14 3298   0.276  -0.387   5.179  0.1347  1.1706 -0.8080
  113bbb     C8 3299   0.827  -0.007   4.985 -0.0871  0.5949  0.0528
  113bbb    H15 3300   0.855   0.063   4.905  1.6283 -1.0340 -0.8619
  113bbb    H16 3301   0.900  -0.088   4.970 -0.2939  0.1024  1.5891
  113bbb     C9 3302   0.528  -0.562   5.065 -0.0835  0.3699  0.0432
  113bbb    H17 3303   0.497  -0.500   5.150  1.1482  1.9709 -0.6185
  113bbb    H18 3304   0.638  -0.557   5.073  0.0267  2.3046 -1.7691
  113bbb     O1 3305   0.203  -0.284   5.345 -0.2837 -0.1575 -0.1481
  114bbb     N1 3306   0.386   2.428   7.235  0.0758 -0.3147  0.1391
  114bbb     C1 3307   0.402   2.406   7.382 -0.6199 -0.1087  0.2124
  114bbb     H1 3308   0.440   2.498   7.428 -0.0026 -1.0195  1.5987
  114bbb     H2 3309   0.471   2.324   7.404 -0.5043 -0.1288 -0.2230
  114bbb     C2 3310   0.269   2.524   7.204 -0.5259  0.6074 -0.4106
  114bbb     H3 3311   0.282   2.618   7.260 -1.2224 -0.3468  1.4128
  114bbb     H4 3312   0.185   2.468   7.246 -0.0326  1.1326  1.3431
  114bbb     C3 3313   0.515   2.462   7.165  0.2270  0.5769  0.4006
  114bbb     H5 3314   0.560   2.547   7.217 -2.0306  1.5343  0.8885
  114bbb     H6 3315   0.490   2.492   7.063 -0.2630 -0.4760  0.1955
  114bbb     C4 3316   0.616   2.346   7.161  0.0854 -0.3239  0.1316
  114bbb     H7 3317   0.637   2.303   7.260 -0.4035  0.8542  0.7694
  114bbb     H8 3318   0.709   2.386   7.121  0.0766 -1.8714 -1.5782
  114bbb     C5 3319   0.281   2.374   7.472  0.7182  0.1200  0.6228
  114bbb     H9 3320   0.235   2.287   7.424  1.8507  0.5397 -1.3394
  114bbb    H10 3321   0.210   2.457   7.488 -2.1829 -2.3690  1.6508
  114bbb     C6 3322   0.250   2.564   7.057 -0.0859 -0.5318 -0.3247
  114bbb    H11 3323   0.325   2.639   7.031 -0.5863 -0.5961 -2.0454
  114bbb    H12 3324   0.158   2.624   7.063  0.6755  0.8338 -1.6583
  114bbb     C7 3325   0.559   2.245   7.065  0.8136 -0.2401 -0.0866
  114bbb    H13 3326   0.525   2.296   6.975  1.8256  1.6603  0.5566
  114bbb    H14 3327   0.477   2.190   7.113 -0.4555 -0.1804 -2.0839
  114bbb     C8 3328   0.242   2.453   6.953 -0.1003 -0.7969  0.1646
  114bbb    H15 3329   0.155   2.388   6.968  0.0229 -1.0761 -0.2988
  114bbb    H16 3330   0.332   2.392   6.968  0.4960 -0.7984 -2.6998
  114bbb     C9 3331   0.325   2.334   7.615 -0.4899 -0.6422  0.5363
  114bbb    H17 3332   0.322   2.423   7.678 -0.6970 -0.2872  0.0296
  114bbb    H18 3333   0.429   2.300   7.617 -0.1739  0.3318  1.1405
  114bbb     O1 3334   0.666   2.154   7.048 -0.0400  0.3581 -0.1837
  115bbb     N1 3335   0.178   1.912   7.269  0.2629  0.8010  0.1586
  115bbb     C1 3336   0.043   1.936   7.326  0.0644 -0.6007 -0.2015
  115bbb     H1 3337  -0.011   1.981   7.242  0.5787 -0.9900 -0.7508
  115bbb     H2 3338   0.060   2.005   7.410  0.9279 -0.3848 -0.5357
  115bbb     C2 3339   0.258   1.810   7.352 -0.1405 -0.4862  0.6498
  115bbb     H3 3340   0.204   1.718   7.377 -0.1049 -0.9212 -0.8019
  115bbb     H4 3341   0.277   1.860   7.448 -2.0991  1.3360  0.1704
  115bbb     C3 3342   0.249   2.034   7.233  0.3084  0.6238 -0.0989
  115bbb     H5 3343   0.335   1.988   7.183  0.9979 -0.3263  1.8617
  115bbb     H6 3344   0.282   2.101   7.313 -2.3490  1.7868  0.1210
  115bbb     C4 3345   0.178   2.123   7.133 -0.3036  0.1279  0.0489
  115bbb     H7 3346   0.247   2.203   7.104 -1.0485  0.7773  0.0238
  115bbb     H8 3347   0.099   2.186   7.175  0.4349  0.9021  0.3029
  115bbb     C5 3348  -0.036   1.816   7.385 -0.1617 -0.0410  0.0031
  115bbb     H9 3349   0.017   1.770   7.469  2.2257  0.2943 -1.2348
  115bbb    H10 3350  -0.036   1.742   7.304 -0.6765  0.9086 -0.8918
  115bbb     C6 3351   0.400   1.772   7.296  0.1508 -0.3365  0.4229
  115bbb    H11 3352   0.454   1.698   7.356  2.6041 -0.9577 -2.3461
  115bbb    H12 3353   0.466   1.859   7.311 -0.0264  0.2236 -1.7519
  115bbb     C7 3354   0.133   2.046   7.001 -0.4464  0.0661  0.1437
  115bbb    H13 3355   0.027   2.025   7.017 -0.3398 -0.0883  0.6762
  115bbb    H14 3356   0.196   1.956   6.994 -0.0350  0.3236  0.4607
  115bbb     C8 3357   0.410   1.716   7.156 -0.1567 -0.2474 -0.1440
  115bbb    H15 3358   0.513   1.686   7.133 -0.3595 -1.3471  0.3076
  115bbb    H16 3359   0.371   1.782   7.078 -0.6597 -0.3862 -0.0159
  115bbb     C9 3360  -0.180   1.849   7.427 -0.4870  0.3802  0.1615
  115bbb    H17 3361  -0.240   1.875   7.339  1.4810 -0.1985 -1.4434
  115bbb    H18 3362  -0.184   1.935   7.495  2.4788  1.1056 -0.4135
  115bbb     O1 3363   0.152   2.136   6.886  0.3960 -0.1065 -0.2658
  116bbb     N1 3364   0.978   2.451   5.598  0.5598 -0.0763  0.0112
  116bbb     C1 3365   1.040   2.583   5.613  0.1498 -0.0840 -0.2073
  116bbb     H1 3366   0.998   2.653   5.540  0.2754 -1.1132 -1.2935
  116bbb     H2 3367   1.149   2.578   5.604  0.3938 -0.2668  2.1027
  116bbb     C2 3368   1.029   2.356   5.700  0.7691  0.6064 -0.0953
  116bbb     H3 3369   0.994   2.399   5.794 -1.0243  0.4693 -0.6582
  116bbb     H4 3370   1.138   2.355   5.707  0.7447  1.6941  0.7584
  116bbb     C3 3371   1.006   2.400   5.459 -0.1661 -0.0507 -0.1897
  116bbb     H5 3372   0.945   2.313   5.433 -0.5584 -0.5115  2.0970
  116bbb     H6 3373   1.110   2.367   5.452  0.4444  1.8949 -1.2201
  116bbb     C4 3374   0.976   2.510   5.347 -0.7123  0.0403  0.1239
  116bbb     H7 3375   1.051   2.590   5.352 -1.1961  0.8227 -2.9726
  116bbb     H8 3376   0.873   2.545   5.365 -0.6975  0.0490  0.1936
  116bbb     C5 3377   1.020   2.656   5.753  0.1742 -0.1153 -0.5581
  116bbb     H9 3378   1.062   2.599   5.837 -1.0820  0.2238  0.3349
  116bbb    H10 3379   0.912   2.659   5.776  0.4375 -1.0162  0.9568
  116bbb     C6 3380   0.958   2.213   5.692 -0.3553 -0.4674  0.2156
  116bbb    H11 3381   0.984   2.162   5.785  0.1935  1.0081  0.9034
  116bbb    H12 3382   1.009   2.158   5.613 -0.2818 -2.3157  1.4955
  116bbb     C7 3383   0.991   2.441   5.212 -0.4279  0.5997 -0.1298
  116bbb    H13 3384   1.083   2.382   5.214 -0.4307  0.5965  1.6030
  116bbb    H14 3385   0.992   2.510   5.127  1.8607 -1.0197 -1.5201
  116bbb     C8 3386   0.814   2.205   5.658  0.1633  0.1792 -0.1612
  116bbb    H15 3387   0.806   2.230   5.551  1.4313  1.8111  0.0897
  116bbb    H16 3388   0.759   2.280   5.716 -1.7908 -1.8838  0.7790
  116bbb     C9 3389   1.075   2.799   5.747  0.7653 -0.1598  0.3431
  116bbb    H17 3390   1.033   2.847   5.658  0.1236 -1.9494 -0.3592
  116bbb    H18 3391   1.182   2.794   5.724  0.4815 -0.6879 -0.9214
  116bbb     O1 3392   0.878   2.356   5.199  0.2481  0.6672 -0.3535
  117bbb     N1 3393   0.157   1.626   5.175  0.5123 -0.4837  0.1481
  117bbb     C1 3394   0.255   1.552   5.092  0.6682 -0.5272 -0.3641
  117bbb     H1 3395   0.210   1.467   5.040  0.5046 -0.4758 -0.3085
  117bbb     H2 3396   0.329   1.513   5.163 -0.2591 -1.3233  0.1741
  117bbb     C2 3397   0.092   1.531   5.265 -0.1266  0.3150  0.3625
  117bbb     H3 3398   0.004   1.585   5.304 -1.2901 -1.2885  0.0502
  117bbb     H4 3399   0.160   1.521   5.351 -1.2419 -0.9716  1.1338
  117bbb     C3 3400   0.193   1.765   5.217 -0.3813  0.0403 -0.1270
  117bbb     H5 3401   0.186   1.839   5.136 -0.1691  1.2348  0.9205
  117bbb     H6 3402   0.300   1.774   5.237  0.2719  0.6734 -3.3784
  117bbb     C4 3403   0.115   1.829   5.333  0.8739  0.3841  0.0832
  117bbb     H7 3404   0.120   1.766   5.423  1.2810 -0.0989 -0.2708
  117bbb     H8 3405   0.012   1.857   5.312  0.1205 -1.3018  1.2669
  117bbb     C5 3406   0.326   1.640   4.979  0.5030 -0.1476 -0.3801
  117bbb     H9 3407   0.362   1.732   5.027 -1.4378  1.4746 -1.8522
  117bbb    H10 3408   0.247   1.679   4.913 -1.2212 -1.4748  0.8077
  117bbb     C6 3409   0.037   1.394   5.207  0.0128 -0.6474  0.1259
  117bbb    H11 3410   0.103   1.338   5.139 -1.2006 -0.1180 -1.5399
  117bbb    H12 3411  -0.052   1.416   5.147 -0.2003  1.2413  1.0596
  117bbb     C7 3412   0.186   1.957   5.374  0.8244  0.4098 -0.9017
  117bbb    H13 3413   0.283   1.934   5.420 -0.7278 -0.2549  2.2925
  117bbb    H14 3414   0.124   2.009   5.448 -0.7174  0.3503 -2.1070
  117bbb     C8 3415  -0.009   1.289   5.315 -0.3237 -0.1469 -0.0397
  117bbb    H15 3416  -0.099   1.235   5.285  0.8650 -1.1662 -2.0048
  117bbb    H16 3417  -0.043   1.349   5.400  0.7002  0.4303 -0.0192
  117bbb     C9 3418   0.452   1.577   4.911  0.6983 -0.0129 -0.3642
  117bbb    H17 3419   0.508   1.540   4.998 -0.4863  0.6582  0.7263
  117bbb    H18 3420   0.495   1.661   4.854 -1.4885  1.1834 -0.3694
  117bbb     O1 3421   0.191   2.042   5.260 -0.8591  0.0579 -0.3725
  118bbb     N1 3422   1.920   1.733   8.572 -0.2463  0.4730  0.1145
  118bbb     C1 3423   2.013   1.844   8.600 -0.2926  0.0442  0.1317
  118bbb     H1 3424   2.095   1.835   8.528 -0.1754 -0.2871  0.3000
  118bbb     H2 3425   2.063   1.824   8.696  0.8647  2.6725  0.1318
  118bbb     C2 3426   1.992   1.602   8.564 -0.2765  1.4446 -0.2826
  118bbb     H3 3427   2.092   1.615   8.610 -0.2973  4.1273 -0.8312
  118bbb     H4 3428   2.007   1.583   8.457  2.2102  2.5626 -0.1960
  118bbb     C3 3429   1.825   1.757   8.461  0.6380 -0.4040 -0.6236
  118bbb     H5 3430   1.876   1.786   8.368  1.1579 -1.4012 -0.6598
  118bbb     H6 3431   1.768   1.845   8.492  0.3050 -0.6491 -0.5407
  118bbb     C4 3432   1.721   1.649   8.436  0.4127  0.4739  0.5369
  118bbb     H7 3433   1.693   1.602   8.531  3.1651 -0.4731  0.9830
  118bbb     H8 3434   1.770   1.562   8.391  0.7750  0.1412  1.5436
  118bbb     C5 3435   1.958   1.991   8.606  0.0596  0.0081  0.1381
  118bbb     H9 3436   1.893   1.980   8.694 -0.8418  0.9208 -0.3914
  118bbb    H10 3437   1.902   2.028   8.520 -0.5906 -0.0743  0.5149
  118bbb     C6 3438   1.933   1.477   8.628  0.0983 -0.1867  0.1062
  118bbb    H11 3439   1.823   1.474   8.626  0.0079  2.0020 -0.1290
  118bbb    H12 3440   1.965   1.470   8.732 -1.1223 -1.1744  0.4436
  118bbb     C7 3441   1.597   1.697   8.349 -0.0501  0.0276 -1.0591
  118bbb    H13 3442   1.527   1.742   8.420  0.8503  1.3064 -0.9382
  118bbb    H14 3443   1.539   1.613   8.310 -0.8396 -0.6002  1.3249
  118bbb     C8 3444   2.000   1.357   8.562 -0.2367  0.1098 -0.6572
  118bbb    H15 3445   2.108   1.373   8.551 -0.0047 -0.4665  0.5600
  118bbb    H16 3446   1.970   1.335   8.459  0.0255 -2.2684 -0.2825
  118bbb     C9 3447   2.075   2.088   8.631  0.1119 -1.1580 -0.3011
  118bbb    H17 3448   2.118   2.062   8.729 -1.9514  2.8744  1.9182
  118bbb    H18 3449   2.043   2.192   8.640 -2.4257 -1.6731 -2.2706
  118bbb     O1 3450   1.625   1.808   8.253  0.3208  0.4153  0.2243
  119bbb     N1 3451   2.219   1.879   7.215 -0.5162 -0.0398 -0.6598
  119bbb     C1 3452   2.265   2.013   7.175 -0.2101  0.0050 -0.4924
  119bbb     H1 3453   2.372   1.998   7.156 -0.1585  0.1587 -0.3126
  119bbb     H2 3454   2.247   2.090   7.250 -0.5481 -0.1659 -0.3945
  119bbb     C2 3455   2.307   1.822   7.330 -0.0494 -0.3680  0.5332
  119bbb     H3 3456   2.280   1.887   7.413 -0.7971 -0.2272  0.1871
  119bbb     H4 3457   2.408   1.846   7.294 -1.6083  4.7277 -1.3505
  119bbb     C3 3458   2.076   1.858   7.234  0.0392 -0.7229 -0.0639
  119bbb     H5 3459   2.045   1.752   7.236 -2.6229 -0.1095 -2.2624
  119bbb     H6 3460   2.021   1.887   7.143  1.4904 -0.9518 -1.0474
  119bbb     C4 3461   2.018   1.937   7.347  0.0347  0.1227  0.7830
  119bbb     H7 3462   2.050   2.040   7.327  0.1300  0.2019  1.3519
  119bbb     H8 3463   2.051   1.912   7.448 -1.7461  1.6723  1.7977
  119bbb     C5 3464   2.212   2.066   7.038 -0.2617  0.6496 -0.3147
  119bbb     H9 3465   2.106   2.092   7.046 -0.4821 -0.1927 -0.4887
  119bbb    H10 3466   2.225   1.982   6.969 -0.0432  1.8244 -1.7515
  119bbb     C6 3467   2.292   1.666   7.355  0.5148 -0.3481  0.3206
  119bbb    H11 3468   2.344   1.614   7.274  1.8328 -1.0910  1.5844
  119bbb    H12 3469   2.185   1.645   7.345 -0.3692  3.5311 -0.3657
  119bbb     C7 3470   1.860   1.938   7.338 -1.2428 -0.1268  0.2584
  119bbb    H13 3471   1.830   1.836   7.362 -0.3258 -0.4613  0.0148
  119bbb    H14 3472   1.822   1.959   7.237 -2.8112  1.6790  1.1474
  119bbb     C8 3473   2.343   1.614   7.488 -0.2458 -0.0419 -0.2078
  119bbb    H15 3474   2.308   1.511   7.500 -2.5045  0.8219  1.1867
  119bbb    H16 3475   2.295   1.665   7.572 -1.5612  0.1613 -1.0608
  119bbb     C9 3476   2.292   2.185   6.968  0.4500  0.1083 -0.2615
  119bbb    H17 3477   2.253   2.197   6.867  0.2602  1.0661 -0.0773
  119bbb    H18 3478   2.399   2.162   6.967  0.5195  0.2280  1.3878
  119bbb     O1 3479   1.792   2.030   7.430 -0.0683  0.4568  0.0841
  120bbb     N1 3480   1.617  -0.069   7.934  0.1034  0.5688 -0.1103
  120bbb     C1 3481   1.584  -0.164   8.042 -0.2422 -0.7444 -0.0145
  120bbb     H1 3482   1.524  -0.105   8.113  0.7273  0.2354  0.0226
  120bbb     H2 3483   1.680  -0.192   8.087 -0.8459 -1.5097  0.8328
  120bbb     C2 3484   1.505  -0.024   7.848  0.6984  0.2031  0.2378
  120bbb     H3 3485   1.449   0.056   7.898  1.8529  0.5654  0.9838
  120bbb     H4 3486   1.443  -0.111   7.822  1.9986 -0.9050  0.7681
  120bbb     C3 3487   1.696   0.041   7.985 -0.4369  0.3724 -0.1599
  120bbb     H5 3488   1.738   0.089   7.896  1.8695 -1.4518 -0.1460
  120bbb     H6 3489   1.777   0.002   8.048 -0.7036 -0.9018 -0.5710
  120bbb     C4 3490   1.627   0.139   8.084  0.5918 -0.2296 -0.1613
  120bbb     H7 3491   1.588   0.087   8.172 -0.0473 -2.9290 -1.8785
  120bbb     H8 3492   1.538   0.185   8.039  0.6361  1.3667  1.3084
  120bbb     C5 3493   1.497  -0.287   8.013 -0.2165  0.0349  0.3423
  120bbb     H9 3494   1.395  -0.252   7.989 -0.4808 -1.0306 -0.1361
  120bbb    H10 3495   1.494  -0.350   8.103  0.8285  0.6983  0.8666
  120bbb     C6 3496   1.562   0.024   7.712 -0.9862  0.4253 -0.0086
  120bbb    H11 3497   1.637  -0.050   7.681 -0.8650 -0.7159  2.6971
  120bbb    H12 3498   1.613   0.120   7.727 -0.8877  0.1055  1.8422
  120bbb     C7 3499   1.718   0.245   8.141 -0.6043  0.2880  0.2212
  120bbb    H13 3500   1.789   0.195   8.208  0.1855 -1.2608 -1.6616
  120bbb    H14 3501   1.660   0.317   8.200  1.1466  2.4978 -0.6160
  120bbb     C8 3502   1.473   0.042   7.592  0.0935 -0.3795  0.5461
  120bbb    H15 3503   1.544   0.082   7.518 -0.6708  1.2738  0.6504
  120bbb    H16 3504   1.399   0.122   7.604 -0.4895 -0.9527  0.8060
  120bbb     C9 3505   1.538  -0.366   7.887 -0.1398 -0.0582 -0.0855
  120bbb    H17 3506   1.647  -0.375   7.892  0.1401  0.6154 -3.0607
  120bbb    H18 3507   1.522  -0.301   7.800 -0.1628 -0.1219 -0.1292
  120bbb     O1 3508   1.796   0.312   8.042  0.0601 -0.3249  0.0131
  121bbb     N1 3509   2.416   0.120   7.261 -0.3776 -0.1346  0.2063
  121bbb     C1 3510   2.535   0.068   7.189  0.2993  0.3826  0.8614
  121bbb     H1 3511   2.618   0.055   7.259  0.0959  0.2266  1.0748
  121bbb     H2 3512   2.564   0.143   7.114  0.9484 -1.3298 -0.6770
  121bbb     C2 3513   2.369   0.016   7.353 -0.2299 -0.1400  0.1574
  121bbb     H3 3514   2.345  -0.066   7.285  1.2756 -0.3962 -0.0942
  121bbb     H4 3515   2.284   0.050   7.414  0.2850  1.1309  0.1884
  121bbb     C3 3516   2.441   0.249   7.319  0.1619 -0.2531 -0.4515
  121bbb     H5 3517   2.478   0.313   7.238  0.1469 -0.7326 -0.8435
  121bbb     H6 3518   2.520   0.234   7.394 -0.9677 -0.3976  0.7462
  121bbb     C4 3519   2.319   0.316   7.395  0.3740  0.3887  0.4053
  121bbb     H7 3520   2.282   0.256   7.479 -2.3508  1.8344  0.3605
  121bbb     H8 3521   2.228   0.328   7.335 -0.1970  3.0202  1.6515
  121bbb     C5 3522   2.522  -0.072   7.113  0.2863 -0.3995 -0.4637
  121bbb     H9 3523   2.425  -0.080   7.062  1.5347  0.4097 -3.1903
  121bbb    H10 3524   2.539  -0.151   7.187 -1.0163  0.2004  0.5147
  121bbb     C6 3525   2.469  -0.034   7.459 -0.3749 -0.1241  0.3461
  121bbb    H11 3526   2.492   0.058   7.514 -0.2438  0.2568 -0.3363
  121bbb    H12 3527   2.559  -0.080   7.415 -1.1642 -0.7510 -0.6661
  121bbb     C7 3528   2.336   0.460   7.454 -0.4735 -0.1401  0.0163
  121bbb    H13 3529   2.360   0.531   7.374  0.9235  0.1181  0.6343
  121bbb    H14 3530   2.422   0.465   7.523  0.6177 -1.6925 -1.1785
  121bbb     C8 3531   2.393  -0.135   7.546  0.0752 -0.7401  0.1368
  121bbb    H15 3532   2.295  -0.093   7.570 -1.0105 -2.3503 -1.2265
  121bbb    H16 3533   2.447  -0.157   7.639  0.7770 -2.8823 -0.7171
  121bbb     C9 3534   2.629  -0.093   7.002  0.0514  0.7222  0.6748
  121bbb    H17 3535   2.730  -0.076   7.042  1.3693 -3.3156 -0.5227
  121bbb    H18 3536   2.606  -0.015   6.928 -2.6071  1.1409  1.8210
  121bbb     O1 3537   2.215   0.510   7.518  0.1164 -0.3309 -0.4259
  122bbb     N1 3538   0.172   2.952   7.590  0.5130  0.5036  0.3174
  122bbb     C1 3539   0.247   2.830   7.540  0.6899  0.6647 -0.2726
  122bbb     H1 3540   0.172   2.757   7.506  1.8547 -0.7643  0.0761
  122bbb     H2 3541   0.292   2.762   7.614 -0.8853 -2.8990 -2.3221
  122bbb     C2 3542   0.073   2.925   7.697 -0.7348  0.7824  0.2409
  122bbb     H3 3543   0.006   2.846   7.660  1.0672 -0.4483 -0.4951
  122bbb     H4 3544   0.018   3.017   7.720 -0.0207  1.9409 -2.4187
  122bbb     C3 3545   0.251   3.065   7.631  0.2289  0.2083 -0.9009
  122bbb     H5 3546   0.313   3.090   7.544  0.1031 -1.3754 -1.4819
  122bbb     H6 3547   0.310   3.047   7.722 -2.7658  1.4792  1.4737
  122bbb     C4 3548   0.164   3.193   7.650 -0.2153  0.5223  0.5398
  122bbb     H7 3549   0.107   3.195   7.743 -0.7330  1.6300  0.2150
  122bbb     H8 3550   0.098   3.202   7.563  0.4460 -0.6864 -0.1282
  122bbb     C5 3551   0.344   2.850   7.415  0.0790  0.2314 -0.0130
  122bbb     H9 3552   0.394   2.756   7.389  0.4290  0.7518 -1.2957
  122bbb    H10 3553   0.430   2.911   7.444  0.1017 -0.3907  1.2827
  122bbb     C6 3554   0.133   2.851   7.823  0.8583 -1.1453  0.2235
  122bbb    H11 3555   0.225   2.906   7.847  0.3105  0.0370 -0.2562
  122bbb    H12 3556   0.157   2.751   7.785 -2.2145 -1.7441 -0.3966
  122bbb     C7 3557   0.249   3.321   7.640 -0.1378 -0.7662 -0.5174
  122bbb    H13 3558   0.171   3.397   7.628 -1.1686 -2.0924 -2.9560
  122bbb    H14 3559   0.310   3.313   7.550  0.4915 -1.3474 -0.0483
  122bbb     C8 3560   0.031   2.851   7.946 -0.3676  0.2528 -0.4762
  122bbb    H15 3561  -0.059   2.792   7.925  1.3430 -2.6927 -0.0617
  122bbb    H16 3562   0.006   2.957   7.962  1.6501  0.4828  1.6778
  122bbb     C9 3563   0.269   2.922   7.301  0.1335  0.0283  0.5658
  122bbb    H17 3564   0.226   3.016   7.337  1.0459  0.4855  0.4995
  122bbb    H18 3565   0.183   2.860   7.274  0.3941 -0.0981  0.0022
  122bbb     O1 3566   0.319   3.344   7.760  0.8849 -0.0175 -0.0006
  123bbb     N1 3567   1.493   3.464   7.757  0.1382  0.4161  0.4824
  123bbb     C1 3568   1.607   3.402   7.833  0.1051  0.0570  0.3415
  123bbb     H1 3569   1.617   3.455   7.929 -0.1811 -3.6545  2.6434
  123bbb     H2 3570   1.699   3.418   7.775 -0.2714  1.4943  0.0916
  123bbb     C2 3571   1.524   3.563   7.648  0.5522  0.1544 -0.1545
  123bbb     H3 3572   1.571   3.649   7.697 -0.9464 -0.1446  1.9423
  123bbb     H4 3573   1.434   3.600   7.596 -0.3005 -0.1208  1.0655
  123bbb     C3 3574   1.359   3.472   7.822 -0.3912  0.0335  0.3260
  123bbb     H5 3575   1.360   3.517   7.922 -0.3177 -1.1425  0.8742
  123bbb     H6 3576   1.330   3.372   7.855 -0.5500 -0.0202  0.0251
  123bbb     C4 3577   1.244   3.532   7.733  0.1066  0.1864  0.0977
  123bbb     H7 3578   1.234   3.488   7.633 -0.6122 -2.5640  1.2762
  123bbb     H8 3579   1.265   3.639   7.718  1.1701 -0.0113  0.0893
  123bbb     C5 3580   1.589   3.247   7.860 -0.3984 -0.3584 -0.5303
  123bbb     H9 3581   1.562   3.202   7.764 -0.1424 -0.5644 -0.5066
  123bbb    H10 3582   1.515   3.240   7.940  0.2822  1.6571  0.3441
  123bbb     C6 3583   1.619   3.511   7.544  0.0054  0.0804  0.2355
  123bbb    H11 3584   1.722   3.522   7.580 -0.2234  2.9169  0.2525
  123bbb    H12 3585   1.614   3.579   7.459  0.7508 -3.1010 -2.5738
  123bbb     C7 3586   1.112   3.533   7.812  0.3254  0.2675  0.0548
  123bbb    H13 3587   1.115   3.582   7.910  1.3471  2.6807 -1.1179
  123bbb    H14 3588   1.083   3.429   7.831  0.0762  0.4094  0.4757
  123bbb     C8 3589   1.577   3.365   7.495  0.8510  0.5512  1.0456
  123bbb    H15 3590   1.486   3.378   7.436  0.3294 -1.2260  1.4163
  123bbb    H16 3591   1.553   3.290   7.571  2.0512 -2.2763 -1.2028
  123bbb     C9 3592   1.725   3.175   7.895  0.2610 -0.4068 -0.0296
  123bbb    H17 3593   1.779   3.235   7.970 -0.3356 -0.6843  0.6418
  123bbb    H18 3594   1.790   3.172   7.807  0.8491  0.0490  0.3791
  123bbb     O1 3595   1.017   3.606   7.738 -0.5764  0.3100  1.0583
  124bbb     N1 3596   0.150   1.303   7.457  0.4136 -0.2003 -0.0770
  124bbb     C1 3597   0.006   1.267   7.495 -0.2200 -0.3541  0.4039
  124bbb     H1 3598  -0.067   1.289   7.416 -0.4913 -0.6662  0.5669
  124bbb     H2 3599  -0.032   1.320   7.583 -0.8122  0.8845 -0.5728
  124bbb     C2 3600   0.209   1.218   7.351 -0.5197  0.6725  0.0367
  124bbb     H3 3601   0.238   1.280   7.265 -0.8689 -0.3450 -0.8332
  124bbb     H4 3602   0.148   1.129   7.329 -0.6435  0.1082  2.3989
  124bbb     C3 3603   0.173   1.446   7.458 -0.3141  0.0678 -0.0525
  124bbb     H5 3604   0.111   1.493   7.381 -1.8931 -0.6007  0.7789
  124bbb     H6 3605   0.278   1.467   7.431 -0.5303 -0.3499 -1.2662
  124bbb     C4 3606   0.153   1.515   7.587 -0.7481 -0.4971  0.1999
  124bbb     H7 3607   0.047   1.537   7.601 -0.5459  1.3447 -0.8050
  124bbb     H8 3608   0.193   1.617   7.587 -0.5897 -0.4817  3.1931
  124bbb     C5 3609  -0.002   1.121   7.524  0.3713  0.1094 -0.4760
  124bbb     H9 3610   0.091   1.090   7.574  0.0530  1.9509  1.4149
  124bbb    H10 3611  -0.013   1.074   7.425 -0.8352  2.1544 -1.3862
  124bbb     C6 3612   0.331   1.144   7.417  0.1153  0.2154 -0.1705
  124bbb    H11 3613   0.300   1.077   7.498  0.2931  1.1558  0.6980
  124bbb    H12 3614   0.392   1.218   7.471 -0.7043  0.5492  0.3270
  124bbb     C7 3615   0.226   1.455   7.711 -0.5316  0.0429  0.6988
  124bbb    H13 3616   0.335   1.459   7.696 -0.3551 -2.6821  0.7831
  124bbb    H14 3617   0.207   1.347   7.709 -1.3877  0.0463 -4.0382
  124bbb     C8 3618   0.420   1.075   7.312 -0.1878  0.4723  1.0300
  124bbb    H15 3619   0.358   0.991   7.280 -0.2172  0.8768 -0.0173
  124bbb    H16 3620   0.511   1.034   7.359  0.2771 -0.6621 -0.7848
  124bbb     C9 3621  -0.129   1.069   7.596  0.3604  0.4619  0.3886
  124bbb    H17 3622  -0.143   0.964   7.566 -0.6189  0.8895 -0.7375
  124bbb    H18 3623  -0.214   1.132   7.567 -0.5549 -1.7068 -2.0956
  124bbb     O1 3624   0.192   1.523   7.832  0.1028 -0.2092 -0.0901
  125bbb     N1 3625   0.111   1.052   8.746  0.3046 -0.2070 -0.5198
  125bbb     C1 3626   0.038   0.959   8.843  0.4073 -0.2777  0.0014
  125bbb     H1 3627   0.002   1.015   8.930  1.3600  0.1467  0.1387
  125bbb     H2 3628   0.111   0.889   8.885 -1.2904 -4.1096 -2.8751
  125bbb     C2 3629   0.192   0.988   8.637 -0.3987 -0.5790  0.4334
  125bbb     H3 3630   0.253   1.068   8.593 -0.7296  0.4830  1.8253
  125bbb     H4 3631   0.131   0.950   8.555 -1.1584 -0.6520  1.0192
  125bbb     C3 3632   0.018   1.163   8.702 -0.1507  0.4491 -0.3270
  125bbb     H5 3633  -0.023   1.211   8.791 -0.8994 -0.4440 -0.1668
  125bbb     H6 3634  -0.072   1.124   8.651  0.1763 -0.6925 -0.0616
  125bbb     C4 3635   0.082   1.278   8.622  0.6953 -0.0958 -0.0899
  125bbb     H7 3636   0.098   1.246   8.518  1.2870  1.9055 -0.6436
  125bbb     H8 3637   0.183   1.293   8.662  0.4554 -0.2171  0.5759
  125bbb     C5 3638  -0.083   0.875   8.793  0.5150  0.3568  0.6660
  125bbb     H9 3639  -0.040   0.811   8.715 -0.9366  0.9475 -0.6571
  125bbb    H10 3640  -0.159   0.940   8.748  0.9635  0.0920 -0.5160
  125bbb     C6 3641   0.285   0.879   8.681  0.2815  0.3133 -0.0378
  125bbb    H11 3642   0.335   0.836   8.594  1.3435  1.6451 -0.1170
  125bbb    H12 3643   0.212   0.810   8.726 -1.5742  0.2171 -2.9394
  125bbb     C7 3644  -0.003   1.408   8.633 -0.0827 -0.3751  0.2668
  125bbb    H13 3645  -0.006   1.453   8.733  0.0857  1.2152 -0.4113
  125bbb    H14 3646  -0.106   1.386   8.601  0.2064 -0.2148 -0.8242
  125bbb     C8 3647   0.395   0.937   8.782  0.0572 -0.0214 -0.2891
  125bbb    H15 3648   0.344   0.956   8.878 -1.3697 -0.9505 -0.8174
  125bbb    H16 3649   0.427   1.037   8.752 -1.6149  0.8156  0.5988
  125bbb     C9 3650  -0.145   0.788   8.906  0.0517 -0.2846  0.1343
  125bbb    H17 3651  -0.229   0.732   8.864 -0.6863  2.3759 -2.2865
  125bbb    H18 3652  -0.200   0.846   8.981 -1.4914 -1.1859 -0.2526
  125bbb     O1 3653   0.053   1.508   8.551 -0.2237  0.3728 -0.1792
  126ccc     C1 3654   3.676   1.980   6.092 -0.1556  0.0249 -0.3722
  126ccc     H1 3655   3.581   1.972   6.037  0.1435  0.6356 -1.0078
  126ccc     H2 3656   3.753   1.926   6.035 -0.3713  2.2372 -3.0065
  126ccc     C2 3657   3.671   1.923   6.237  0.0138 -0.0079  0.1703
  126ccc     H3 3658   3.770   1.923   6.284 -0.8350  0.5495  2.0530
  126ccc     H4 3659   3.642   1.817   6.238  0.7498 -0.2550 -1.3483
  126ccc     C3 3660   3.574   1.996   6.338 -0.8541 -0.4470  1.2778
  126ccc     H5 3661   3.472   1.980   6.301 -0.8539  1.2383  0.4498
  126ccc     H6 3662   3.575   2.104   6.321  0.0938 -0.5041  0.9150
  126ccc     N1 3663   3.596   1.952   6.475  0.4395  0.0085  0.1309
  126ccc     C4 3664   3.476   1.882   6.530 -0.3252 -0.6383  0.2758
  126ccc     H7 3665   3.411   1.831   6.457 -1.6680 -1.8523  2.2083
  126ccc     H8 3666   3.410   1.954   6.581  1.4294  1.8713 -0.8064
  126ccc     C5 3667   3.513   1.777   6.636  0.1197  0.4022  0.0764
  126ccc     H9 3668   3.597   1.811   6.698  0.1762 -0.2804  0.3792
  126ccc    H10 3669   3.427   1.765   6.703  0.8486 -1.4071  0.7405
  126ccc     C6 3670   3.553   1.641   6.569 -0.2508  0.2387 -0.3944
  126ccc     O1 3671   3.476   1.548   6.558 -0.1375  0.5363 -0.4667
  126ccc     O2 3672   3.659   1.658   6.485  0.6762  0.3226 -0.5607
  126ccc    H11 3673   3.690   1.746   6.512  0.7670  0.1156  0.0088
  126ccc     C7 3674   3.639   2.058   6.565 -0.2961  0.5571 -0.4491
  126ccc    H12 3675   3.573   2.140   6.536 -3.5560 -2.4045 -2.2202
  126ccc    H13 3676   3.604   2.050   6.669 -2.2219  4.1477 -0.6892
  126ccc     C8 3677   3.791   2.080   6.561 -0.1459 -0.2683  0.7067
  126ccc    H14 3678   3.818   2.133   6.469  1.8806 -1.8785  0.2787
  126ccc    H15 3679   3.817   2.149   6.642 -0.5641  0.7171  0.0076
  126ccc     C9 3680   3.879   1.959   6.573 -0.5874  0.1278 -0.1464
  126ccc     O3 3681   3.832   1.850   6.595  0.3156 -0.3171  0.4871
  126ccc     O4 3682   4.011   1.982   6.574  0.3573 -0.5098 -0.4594
  126ccc    H16 3683   4.014   2.079   6.575  0.1745 -0.5074 -0.0351
  126ccc     O5 3684   3.717   2.120   6.102 -0.8381  0.0979  0.0054
  127ccc     C1 3685   3.355   2.917   5.513 -0.2188  0.4207 -0.3904
  127ccc     H1 3686   3.328   2.980   5.599  0.2401 -0.9502  0.7860
  127ccc     H2 3687   3.377   2.989   5.433 -1.2616  1.3581  0.1275
  127ccc     C2 3688   3.246   2.811   5.481 -0.1687 -0.0554 -0.5261
  127ccc     H3 3689   3.232   2.738   5.561 -2.6258 -0.2926 -1.1153
  127ccc     H4 3690   3.277   2.750   5.395 -0.5854 -2.3058  0.8365
  127ccc     C3 3691   3.108   2.876   5.450  0.2352  0.5382 -0.4887
  127ccc     H5 3692   3.139   2.954   5.380  0.5523 -0.3383 -1.3584
  127ccc     H6 3693   3.056   2.908   5.541  0.1669  1.2911 -0.7873
  127ccc     N1 3694   3.021   2.783   5.378  0.0512  0.4766  0.0779
  127ccc     C4 3695   2.965   2.676   5.463  0.2980  0.3857 -0.5805
  127ccc     H7 3696   3.044   2.629   5.523 -0.2359 -0.8237 -0.7932
  127ccc     H8 3697   2.939   2.584   5.411  2.8442 -1.2001  0.7165
  127ccc     C5 3698   2.840   2.724   5.552 -0.6688 -0.6444 -0.0662
  127ccc     H9 3699   2.862   2.808   5.620  1.6531 -0.8180 -0.5347
  127ccc    H10 3700   2.758   2.773   5.498 -0.5231  2.2936  2.1001
  127ccc     C6 3701   2.789   2.605   5.643 -0.2437  0.3448  0.4359
  127ccc     O1 3702   2.841   2.496   5.646  0.2005 -0.0545 -0.3548
  127ccc     O2 3703   2.678   2.629   5.714 -0.1231 -0.0298 -0.1631
  127ccc    H11 3704   2.656   2.723   5.700 -0.6964  0.2593  2.2127
  127ccc     C7 3705   2.941   2.848   5.268 -0.1684 -0.2575 -0.7625
  127ccc    H12 3706   2.889   2.937   5.305  3.2780  1.4518  0.4174
  127ccc    H13 3707   3.011   2.889   5.193  0.1897  0.3499 -0.1041
  127ccc     C8 3708   2.844   2.750   5.197  0.1118 -0.9935  0.1305
  127ccc    H14 3709   2.894   2.653   5.190  1.2092 -0.4691  0.4992
  127ccc    H15 3710   2.756   2.727   5.258  1.0650 -1.0764  1.5173
  127ccc     C9 3711   2.798   2.809   5.063 -0.1688  0.8259  0.5245
  127ccc     O3 3712   2.686   2.857   5.058  0.2579 -0.7140 -0.0863
  127ccc     O4 3713   2.891   2.839   4.968 -0.7710  0.0167  0.4844
  127ccc    H16 3714   2.972   2.795   4.997 -0.6593 -0.2792 -0.2711
  127ccc     O5 3715   3.473   2.824   5.545  0.2862 -0.3688 -0.4450
  128ccc     C1 3716   4.104   0.522   5.774 -0.2192  0.4424 -0.1010
  128ccc     H1 3717   4.118   0.473   5.872 -2.5529  1.6466  0.9092
  128ccc     H2 3718   4.010   0.476   5.740  0.7149 -1.0167 -0.8198
  128ccc     C2 3719   4.237   0.498   5.694  0.1192 -0.8779  0.1610
  128ccc     H3 3720   4.253   0.393   5.666 -1.6508 -1.0741 -0.1978
  128ccc     H4 3721   4.325   0.526   5.754  0.5127  1.5091 -1.4055
  128ccc     C3 3722   4.244   0.588   5.558  0.1099 -0.2035 -0.5943
  128ccc     H5 3723   4.205   0.686   5.586  2.7495  0.3465  1.5027
  128ccc     H6 3724   4.183   0.544   5.477  1.1908 -1.2923 -0.8486
  128ccc     N1 3725   4.387   0.608   5.517  0.1744 -0.5219 -0.8242
  128ccc     C4 3726   4.470   0.493   5.480 -0.9884 -0.3084 -0.5642
  128ccc     H7 3727   4.466   0.418   5.560  0.7271  1.6507  1.5049
  128ccc     H8 3728   4.578   0.515   5.478 -0.9211 -0.5395  0.0786
  128ccc     C5 3729   4.418   0.440   5.333 -0.2906  0.7036 -0.0565
  128ccc     H9 3730   4.312   0.413   5.344 -0.2953  0.6340 -0.2757
  128ccc    H10 3731   4.418   0.517   5.256  0.1266  0.9135  0.1493
  128ccc     C6 3732   4.507   0.326   5.294 -0.3831 -0.0732 -0.3238
  128ccc     O1 3733   4.593   0.281   5.361  0.6088 -0.3673  0.0618
  128ccc     O2 3734   4.480   0.270   5.180  0.3487  0.4211  0.0025
  128ccc    H11 3735   4.403   0.320   5.149 -0.1141  0.3871  1.0624
  128ccc     C7 3736   4.473   0.716   5.575  0.2287  0.0965 -0.0190
  128ccc    H12 3737   4.509   0.669   5.667  0.0846 -1.1739 -0.5936
  128ccc    H13 3738   4.556   0.739   5.507  0.0135 -0.4251 -0.4677
  128ccc     C8 3739   4.400   0.843   5.617 -0.1564  0.5229  0.1206
  128ccc    H14 3740   4.358   0.894   5.530  2.6265  0.1593 -1.5744
  128ccc    H15 3741   4.323   0.820   5.692 -0.6546  1.7579 -0.0003
  128ccc     C9 3742   4.485   0.945   5.694  0.6468 -0.0056  0.4243
  128ccc     O3 3743   4.601   0.928   5.712 -0.1837 -0.3091  0.2187
  128ccc     O4 3744   4.420   1.034   5.764  0.3791 -0.1757 -0.2905
  128ccc    H16 3745   4.326   1.024   5.738  0.9684 -0.6913 -2.3997
  128ccc     O5 3746   4.092   0.667   5.793  0.0794 -0.6991  0.4971
  129ccc     C1 3747   3.293   0.736   5.756 -0.2210  0.5122 -0.4441
  129ccc     H1 3748   3.285   0.637   5.802 -0.3746  0.6988 -0.0668
  129ccc     H2 3749   3.211   0.793   5.801 -2.8470 -3.4275  0.2506
  129ccc     C2 3750   3.260   0.730   5.603  0.0784 -0.0428  0.4753
  129ccc     H3 3751   3.165   0.677   5.586  0.5517 -0.9260  0.4942
  129ccc     H4 3752   3.337   0.670   5.553 -0.7574 -0.5491 -0.2405
  129ccc     C3 3753   3.254   0.869   5.540 -0.2420 -0.5411  0.5307
  129ccc     H5 3754   3.311   0.948   5.589 -1.2177  1.4633 -1.4104
  129ccc     H6 3755   3.153   0.903   5.563 -0.1163  1.0230 -1.0428
  129ccc     N1 3756   3.285   0.874   5.391  0.3641 -0.1855  0.7642
  129ccc     C4 3757   3.421   0.854   5.346 -0.3002  0.5929 -0.1254
  129ccc     H7 3758   3.424   0.837   5.238 -1.2090  0.0366 -0.0724
  129ccc     H8 3759   3.454   0.764   5.400 -0.8256 -0.0540 -0.8682
  129ccc     C5 3760   3.504   0.977   5.388 -0.4172  0.2695 -0.1470
  129ccc     H9 3761   3.453   1.064   5.345 -0.7003 -0.0606 -0.4889
  129ccc    H10 3762   3.509   0.992   5.496  1.3046 -0.7080 -0.0560
  129ccc     C6 3763   3.651   0.974   5.343 -0.6114  0.1032 -0.7701
  129ccc     O1 3764   3.701   0.877   5.293 -0.0235 -0.2040  0.1707
  129ccc     O2 3765   3.722   1.083   5.359 -0.3836 -0.4423 -0.4196
  129ccc    H11 3766   3.663   1.151   5.396  2.4921  2.0156  0.0346
  129ccc     C7 3767   3.196   0.788   5.308  0.0150 -0.9181  0.0941
  129ccc    H12 3768   3.230   0.685   5.322  0.7946 -0.7318 -0.3778
  129ccc    H13 3769   3.095   0.805   5.347  0.3131  0.6635  0.2422
  129ccc     C8 3770   3.175   0.833   5.158 -0.4170 -0.1604 -0.4453
  129ccc    H14 3771   3.122   0.929   5.164 -0.5172 -0.2514  0.1140
  129ccc    H15 3772   3.272   0.848   5.107 -0.5043 -0.8267 -0.8205
  129ccc     C9 3773   3.088   0.733   5.087 -0.1476 -0.7135 -0.0932
  129ccc     O3 3774   2.975   0.753   5.048 -0.4359 -0.2826 -0.1370
  129ccc     O4 3775   3.144   0.608   5.093 -0.8247  0.2418 -0.3285
  129ccc    H16 3776   3.240   0.620   5.101 -0.5517 -1.2820 -1.0538
  129ccc     O5 3777   3.426   0.802   5.768 -0.0586 -0.0803 -0.8862
  130ccc     C1 3778   3.517   2.148   7.103  1.0765 -0.1326  1.3692
  130ccc     H1 3779   3.573   2.061   7.136  1.7904 -0.8756 -1.5030
  130ccc     H2 3780   3.500   2.217   7.186  1.4802  2.1689 -0.3523
  130ccc     C2 3781   3.383   2.092   7.045  0.3473  0.3699 -0.4167
  130ccc     H3 3782   3.407   2.000   6.992  0.3211  0.3870 -0.4582
  130ccc     H4 3783   3.341   2.155   6.966 -2.0876 -0.0811  0.4160
  130ccc     C3 3784   3.280   2.050   7.160 -0.6673  0.3936  0.1361
  130ccc     H5 3785   3.351   1.996   7.224  1.0940  1.4206 -0.8528
  130ccc     H6 3786   3.202   1.983   7.122  0.4672  0.2524 -2.1070
  130ccc     N1 3787   3.230   2.174   7.227  0.1880  0.0757  0.2714
  130ccc     C4 3788   3.128   2.259   7.151 -0.6513  0.0797 -0.0584
  130ccc     H7 3789   3.029   2.214   7.135 -1.8015  2.0594  1.0980
  130ccc     H8 3790   3.163   2.275   7.048 -3.2726 -2.6820 -1.5257
  130ccc     C5 3791   3.102   2.405   7.196  0.1738  0.2916  0.4995
  130ccc     H9 3792   3.019   2.457   7.146 -0.3114 -0.1376  0.8422
  130ccc    H10 3793   3.078   2.387   7.302 -1.7179  1.9976  0.4181
  130ccc     C6 3794   3.226   2.481   7.177  0.0160 -0.7955 -0.0285
  130ccc     O1 3795   3.223   2.575   7.103 -0.8845  0.1801 -0.4068
  130ccc     O2 3796   3.329   2.464   7.262  0.2996  0.1778 -0.1262
  130ccc    H11 3797   3.312   2.379   7.307 -2.3194  0.9979  0.6040
  130ccc     C7 3798   3.194   2.134   7.361  0.0638 -0.7397 -0.6084
  130ccc    H12 3799   3.124   2.205   7.408 -2.0187 -2.4953 -0.9247
  130ccc    H13 3800   3.138   2.040   7.359 -0.0109 -0.6921 -0.7395
  130ccc     C8 3801   3.309   2.123   7.461 -0.8289  0.4939  0.0100
  130ccc    H14 3802   3.399   2.111   7.399 -1.3901 -1.1824 -0.5143
  130ccc    H15 3803   3.332   2.223   7.501 -1.3934  1.1050 -1.1241
  130ccc     C9 3804   3.299   2.010   7.559  0.1737 -0.1854 -0.6497
  130ccc     O3 3805   3.198   1.980   7.614  0.6626  0.1079 -0.4006
  130ccc     O4 3806   3.417   1.945   7.591  0.1751 -0.1032  0.4627
  130ccc    H16 3807   3.489   1.977   7.534 -0.4379 -1.8006 -1.3873
  130ccc     O5 3808   3.578   2.217   6.993  0.3951  0.3496 -0.2429
  131ccc     C1 3809   3.909   2.365   6.353 -0.0625  0.6624 -0.2199
  131ccc     H1 3810   3.816   2.309   6.343 -0.5282  1.3007  0.4433
  131ccc     H2 3811   3.901   2.450   6.284 -1.6293  1.8099  1.2798
  131ccc     C2 3812   4.025   2.282   6.306 -0.0543 -0.4498 -0.2313
  131ccc     H3 3813   4.003   2.182   6.345 -0.9695  0.0567  0.5692
  131ccc     H4 3814   4.111   2.341   6.341 -0.3388  0.5777 -1.1970
  131ccc     C3 3815   4.040   2.274   6.155  0.7018 -0.2625 -0.4314
  131ccc     H5 3816   4.047   2.380   6.127 -0.0958 -0.5614 -1.8698
  131ccc     H6 3817   3.945   2.235   6.116  0.9231 -1.3539  0.0690
  131ccc     N1 3818   4.148   2.186   6.095 -0.0635 -0.0466 -0.3247
  131ccc     C4 3819   4.126   2.175   5.946 -0.5530 -0.9028 -0.1855
  131ccc     H7 3820   4.212   2.130   5.896  1.3091  0.9613  1.1484
  131ccc     H8 3821   4.113   2.274   5.900 -0.0311 -0.0182  1.4842
  131ccc     C5 3822   4.008   2.092   5.897 -0.1210  0.0973 -0.2137
  131ccc     H9 3823   3.915   2.117   5.949 -1.3410 -1.3929 -1.5721
  131ccc    H10 3824   4.000   2.113   5.790  0.5436  2.9107  0.2202
  131ccc     C6 3825   4.018   1.939   5.927  0.0491  0.4585 -0.5578
  131ccc     O1 3826   3.981   1.852   5.849  0.8191 -0.4310 -0.4799
  131ccc     O2 3827   4.057   1.910   6.051  0.6592 -0.1260 -0.0323
  131ccc    H11 3828   4.095   1.994   6.082  0.4451 -0.7169  1.9528
  131ccc     C7 3829   4.283   2.236   6.132 -0.0563 -0.5724 -0.5032
  131ccc    H12 3830   4.313   2.328   6.080 -1.5276 -0.3582 -1.0211
  131ccc    H13 3831   4.285   2.252   6.241 -2.1051 -1.6421 -0.2506
  131ccc     C8 3832   4.392   2.127   6.106 -0.0209  0.1651  0.3625
  131ccc    H14 3833   4.380   2.037   6.167  3.5160  0.8491  2.2898
  131ccc    H15 3834   4.388   2.093   6.001  0.7156 -0.8071  0.6344
  131ccc     C9 3835   4.528   2.191   6.140  0.4834  0.4034  0.2610
  131ccc     O3 3836   4.545   2.265   6.237  0.2363  0.4848 -0.1162
  131ccc     O4 3837   4.637   2.147   6.071  0.7632 -0.2467 -0.4817
  131ccc    H16 3838   4.714   2.191   6.112 -0.6003  0.6754  1.2156
  131ccc     O5 3839   3.950   2.406   6.492 -0.0263 -0.1125 -0.1726
  132ccc     C1 3840   2.604   1.601   6.503  0.5911  0.5630  0.3983
  132ccc     H1 3841   2.531   1.521   6.485  0.4661  0.2069  2.2692
  132ccc     H2 3842   2.627   1.667   6.419  1.2949  0.3346  0.4053
  132ccc     C2 3843   2.742   1.543   6.554  0.7866  0.8990  0.1484
  132ccc     H3 3844   2.814   1.626   6.555 -0.1955  1.8299  2.5673
  132ccc     H4 3845   2.769   1.476   6.472 -2.0750  0.6091 -0.6600
  132ccc     C3 3846   2.757   1.458   6.681  0.2004  0.1551 -0.3434
  132ccc     H5 3847   2.689   1.372   6.683  0.5988 -0.1786 -0.7871
  132ccc     H6 3848   2.724   1.526   6.760  0.8006 -0.1146  0.1493
  132ccc     N1 3849   2.895   1.405   6.710  0.1742  0.3058  0.7767
  132ccc     C4 3850   2.897   1.336   6.840 -0.6584  0.7760  0.6044
  132ccc     H7 3851   2.866   1.397   6.925  1.0495  1.0345  1.0841
  132ccc     H8 3852   3.001   1.308   6.860 -1.2032  0.0661  2.6866
  132ccc     C5 3853   2.819   1.207   6.848  0.0619  0.8016  0.4570
  132ccc     H9 3854   2.843   1.154   6.941 -0.5818 -0.3851 -0.0338
  132ccc    H10 3855   2.711   1.219   6.858  0.2484  2.1087  1.0825
  132ccc     C6 3856   2.853   1.096   6.744 -0.1907 -0.4598  0.4323
  132ccc     O1 3857   2.961   1.095   6.681 -0.3225 -0.0160  0.3477
  132ccc     O2 3858   2.763   0.999   6.747  0.8000  0.1180  0.1039
  132ccc    H11 3859   2.712   1.029   6.824  1.3288  2.4858 -0.3987
  132ccc     C7 3860   3.011   1.496   6.683  0.0996  0.4633  0.1449
  132ccc    H12 3861   3.103   1.443   6.710 -0.2740 -0.3655 -0.1597
  132ccc    H13 3862   3.010   1.532   6.580 -1.0827  1.2009  0.3880
  132ccc     C8 3863   3.000   1.631   6.763 -0.6292 -0.2566  0.4374
  132ccc    H14 3864   2.912   1.692   6.738 -1.0779 -0.9526  0.2977
  132ccc    H15 3865   2.988   1.602   6.868 -0.4595  0.2433  0.5975
  132ccc     C9 3866   3.127   1.713   6.754  0.2008  0.2455  0.1136
  132ccc     O3 3867   3.189   1.709   6.650 -0.4312 -0.5085 -0.3010
  132ccc     O4 3868   3.133   1.812   6.846 -0.0281  0.1646 -0.1027
  132ccc    H16 3869   3.060   1.797   6.909  0.4880 -0.7575  0.3009
  132ccc     O5 3870   2.571   1.681   6.622 -0.5008  0.4183  0.2494
  133ccc     C1 3871   2.971   1.774   7.228  0.6611  0.1225 -0.7016
  133ccc     H1 3872   2.993   1.859   7.295  0.4070  2.6667 -3.6094
  133ccc     H2 3873   2.874   1.735   7.258  1.3492 -0.2461  1.1771
  133ccc     C2 3874   3.077   1.667   7.238 -0.2108  0.6545 -1.1803
  133ccc     H3 3875   3.103   1.665   7.344 -2.5964  2.1983 -0.4871
  133ccc     H4 3876   3.159   1.691   7.169 -0.8946  1.4255 -1.7696
  133ccc     C3 3877   3.035   1.525   7.198 -0.2506 -0.8570  0.4304
  133ccc     H5 3878   3.122   1.458   7.193 -1.1078 -2.1071  1.5818
  133ccc     H6 3879   3.002   1.533   7.094  0.9788 -2.0747 -0.0846
  133ccc     N1 3880   2.925   1.455   7.273  0.2471  0.8835  0.1138
  133ccc     C4 3881   2.822   1.367   7.197 -0.3301 -0.3674  0.1561
  133ccc     H7 3882   2.765   1.290   7.250 -0.4497 -1.1830 -1.1184
  133ccc     H8 3883   2.878   1.311   7.121 -0.3790 -0.3967  0.1417
  133ccc     C5 3884   2.730   1.460   7.125  0.0469 -0.4254  0.3012
  133ccc     H9 3885   2.780   1.552   7.091 -0.5677  0.5516  1.9236
  133ccc    H10 3886   2.686   1.406   7.040  0.3891 -0.7267  0.3165
  133ccc     C6 3887   2.617   1.501   7.219  0.1725  0.2491  1.2194
  133ccc     O1 3888   2.515   1.432   7.242  0.0847 -0.1919  0.2038
  133ccc     O2 3889   2.617   1.628   7.260  0.2419 -0.2649  0.0858
  133ccc    H11 3890   2.554   1.620   7.333  0.3751  0.8312  0.3355
  133ccc     C7 3891   2.983   1.385   7.391  0.4730 -0.4129  0.0489
  133ccc    H12 3892   3.024   1.289   7.358  2.7766 -0.3104  2.3116
  133ccc    H13 3893   3.073   1.438   7.423  0.9510 -1.5618  0.6617
  133ccc     C8 3894   2.881   1.371   7.510  0.7779  0.9515  0.5350
  133ccc    H14 3895   2.850   1.471   7.541 -0.8971  0.5029  0.4287
  133ccc    H15 3896   2.787   1.323   7.480  0.4614  0.2723  2.4700
  133ccc     C9 3897   2.951   1.297   7.622  0.6601 -0.1559  0.1496
  133ccc     O3 3898   3.010   1.358   7.705 -0.0196  0.4455  0.7989
  133ccc     O4 3899   2.955   1.164   7.620  0.0265 -0.5192 -0.6606
  133ccc    H16 3900   2.899   1.138   7.544 -1.9685  0.5072  0.3690
  133ccc     O5 3901   2.975   1.820   7.091 -0.2955  0.2331  0.1716
  134ccc     C1 3902   2.302   2.133   5.222  0.0591 -0.1459 -0.2040
  134ccc     H1 3903   2.242   2.053   5.176 -3.5948  3.0918 -1.6500
  134ccc     H2 3904   2.409   2.126   5.200 -0.5462  0.0987 -3.8283
  134ccc     C2 3905   2.272   2.126   5.371  0.3788 -0.0688 -0.5423
  134ccc     H3 3906   2.162   2.124   5.375  0.3987 -0.6185 -0.1927
  134ccc     H4 3907   2.320   2.212   5.418  0.3476 -0.2071 -0.2573
  134ccc     C3 3908   2.339   1.995   5.435 -0.2412  0.7199 -0.2711
  134ccc     H5 3909   2.308   1.996   5.540 -2.6250 -0.9614 -0.8645
  134ccc     H6 3910   2.445   2.023   5.435 -0.2948  1.0136  1.5939
  134ccc     N1 3911   2.301   1.863   5.381  1.1630 -0.0710  0.1393
  134ccc     C4 3912   2.155   1.834   5.405 -0.6239 -0.7374  0.5154
  134ccc     H7 3913   2.084   1.905   5.360 -1.2138 -0.5981  1.6154
  134ccc     H8 3914   2.139   1.839   5.514 -2.8373 -0.6181  0.2212
  134ccc     C5 3915   2.108   1.696   5.352 -0.4606  0.4972  0.2431
  134ccc     H9 3916   2.170   1.618   5.397 -0.4895  1.1203  1.4090
  134ccc    H10 3917   2.008   1.666   5.384  0.1910 -1.0190  0.9400
  134ccc     C6 3918   2.115   1.686   5.199  0.3111 -0.1673  0.0589
  134ccc     O1 3919   2.139   1.777   5.124  0.7303 -0.1067 -0.6853
  134ccc     O2 3920   2.053   1.570   5.150  0.1872 -0.5637  0.2841
  134ccc    H11 3921   2.011   1.522   5.223 -0.1276 -1.9773 -0.7772
  134ccc     C7 3922   2.399   1.759   5.417 -0.3608  0.1126  0.4155
  134ccc    H12 3923   2.384   1.669   5.355 -1.2384  1.7140 -1.8510
  134ccc    H13 3924   2.491   1.802   5.376 -1.0485  0.6077 -0.6638
  134ccc     C8 3925   2.415   1.739   5.570 -0.6345  0.0224 -0.3674
  134ccc    H14 3926   2.416   1.831   5.630  2.0371  0.4355 -0.9106
  134ccc    H15 3927   2.336   1.676   5.611  0.5270 -0.0659  1.9035
  134ccc     C9 3928   2.533   1.646   5.600  0.3094  0.1681  0.0561
  134ccc     O3 3929   2.518   1.525   5.633 -0.6770  0.0166  0.2731
  134ccc     O4 3930   2.647   1.688   5.550  0.0356 -0.4583 -0.2115
  134ccc    H16 3931   2.650   1.785   5.554 -1.8074 -0.3353 -0.9388
  134ccc     O5 3932   2.253   2.256   5.165  0.1778  0.4123 -0.2170
  135ccc     C1 3933   1.587   2.673   4.991 -0.2541 -0.1984 -0.1887
  135ccc     H1 3934   1.588   2.781   5.010 -0.0530 -0.2380  0.0199
  135ccc     H2 3935   1.546   2.653   4.891 -1.1373  1.3942 -0.1729
  135ccc     C2 3936   1.497   2.605   5.100  0.2940 -0.2140  0.6380
  135ccc     H3 3937   1.405   2.664   5.102  1.0804  1.0463  2.2932
  135ccc     H4 3938   1.550   2.623   5.194 -1.1769  1.5650  1.1721
  135ccc     C3 3939   1.469   2.463   5.060  0.1424  0.1703  0.0669
  135ccc     H5 3940   1.564   2.408   5.060  0.4356  0.5509 -2.2752
  135ccc     H6 3941   1.439   2.458   4.954 -0.6163 -1.0074  0.3120
  135ccc     N1 3942   1.372   2.385   5.150 -0.0173  0.1629 -0.0617
  135ccc     C4 3943   1.341   2.251   5.103 -0.0660  0.5113 -0.0884
  135ccc     H7 3944   1.275   2.201   5.176 -1.5268  0.5578 -1.3203
  135ccc     H8 3945   1.439   2.202   5.091  0.2257  1.1616 -0.3662
  135ccc     C5 3946   1.272   2.235   4.970 -0.0337  0.1891  0.5640
  135ccc     H9 3947   1.185   2.301   4.960 -0.3439 -0.2282  0.4838
  135ccc    H10 3948   1.341   2.258   4.888 -0.3885  1.2302  0.5458
  135ccc     C6 3949   1.231   2.089   4.934 -0.0202  0.3343  0.2736
  135ccc     O1 3950   1.283   1.985   4.981  0.5428  0.0613  0.2994
  135ccc     O2 3951   1.129   2.086   4.840 -0.2177 -0.1154  0.2809
  135ccc    H11 3952   1.133   2.177   4.806 -1.1073 -0.5804 -1.1437
  135ccc     C7 3953   1.410   2.386   5.302  0.6140  0.2311  0.1279
  135ccc    H12 3954   1.416   2.491   5.332  3.7370  0.6249 -1.4142
  135ccc    H13 3955   1.323   2.351   5.359  1.8988  0.5197  2.3830
  135ccc     C8 3956   1.529   2.294   5.346 -0.1525 -0.4792  0.4279
  135ccc    H14 3957   1.493   2.191   5.352 -0.5479 -0.2932  1.6991
  135ccc    H15 3958   1.609   2.300   5.272 -0.5986  1.2753  0.0407
  135ccc     C9 3959   1.592   2.332   5.478  0.2964  0.1836 -0.9087
  135ccc     O3 3960   1.532   2.321   5.586  0.2432 -0.4246 -0.9274
  135ccc     O4 3961   1.703   2.409   5.470  0.0841  0.1936  0.2108
  135ccc    H16 3962   1.710   2.407   5.373  0.6969  0.8283  0.2365
  135ccc     O5 3963   1.723   2.632   5.021  1.1045 -0.3403  0.6225
  136ccc     C1 3964   3.629   1.709   3.881 -0.6357  0.4115  0.1215
  136ccc     H1 3965   3.609   1.629   3.809 -0.3389 -1.1074  1.6735
  136ccc     H2 3966   3.673   1.795   3.829 -0.3831  0.8650  1.0634
  136ccc     C2 3967   3.728   1.655   3.985 -0.0217  0.2077 -0.3657
  136ccc     H3 3968   3.739   1.719   4.073 -1.9685  0.5372 -0.3050
  136ccc     H4 3969   3.830   1.650   3.946 -0.7847 -2.0576 -2.3362
  136ccc     C3 3970   3.684   1.507   4.018  0.5141  0.6420  0.1818
  136ccc     H5 3971   3.689   1.430   3.940  1.8028  0.2970  0.5848
  136ccc     H6 3972   3.584   1.514   4.064  0.1964  3.1257 -0.7026
  136ccc     N1 3973   3.777   1.454   4.118  0.0620 -0.2203  0.1629
  136ccc     C4 3974   3.754   1.508   4.258  0.1314 -0.2538  0.4050
  136ccc     H7 3975   3.684   1.458   4.326  1.6723  0.6928  2.8231
  136ccc     H8 3976   3.714   1.610   4.247 -0.7300 -0.7999 -2.1617
  136ccc     C5 3977   3.890   1.519   4.324  0.1272 -0.0193 -0.3294
  136ccc     H9 3978   3.872   1.580   4.413 -1.5003  0.1272 -0.7264
  136ccc    H10 3979   3.933   1.426   4.363  0.3672  0.7390  1.2771
  136ccc     C6 3980   3.996   1.594   4.246 -0.6750  0.4552 -0.8584
  136ccc     O1 3981   4.100   1.546   4.198  0.9329  0.2980  0.0304
  136ccc     O2 3982   3.988   1.727   4.265 -0.0612 -0.0184  0.8136
  136ccc    H11 3983   3.900   1.746   4.301  0.5730  2.2473  1.3117
  136ccc     C7 3984   3.795   1.308   4.113 -0.0233  0.0905 -0.1103
  136ccc    H12 3985   3.819   1.272   4.012 -0.2830 -1.1116  0.2337
  136ccc    H13 3986   3.876   1.290   4.184  1.3224 -1.4621 -1.9419
  136ccc     C8 3987   3.665   1.225   4.152 -0.3052 -0.6148  1.0571
  136ccc    H14 3988   3.640   1.235   4.258 -3.6641 -4.2935  0.8177
  136ccc    H15 3989   3.577   1.254   4.094  0.5929 -0.1031 -0.0921
  136ccc     C9 3990   3.697   1.076   4.133  0.5028 -0.8853  0.1988
  136ccc     O3 3991   3.809   1.027   4.142  0.1283  0.7165 -0.0889
  136ccc     O4 3992   3.591   1.000   4.171 -0.6697 -0.0599  0.0624
  136ccc    H16 3993   3.508   1.049   4.183 -0.5845 -0.1588  1.1574
  136ccc     O5 3994   3.506   1.754   3.945  0.2059 -0.2761 -0.3989
  137ccc     C1 3995   3.597   1.713   4.658 -0.0229  0.4973 -0.1658
  137ccc     H1 3996   3.536   1.770   4.729 -0.8483 -0.3037 -0.2211
  137ccc     H2 3997   3.565   1.608   4.663  1.1315  0.1740  1.3972
  137ccc     C2 3998   3.745   1.708   4.692 -0.6899 -0.3555 -0.2205
  137ccc     H3 3999   3.782   1.812   4.691 -0.8758 -0.2841 -1.3006
  137ccc     H4 4000   3.804   1.652   4.618 -1.1203  0.7234 -1.4370
  137ccc     C3 4001   3.756   1.652   4.838 -0.4469 -0.3367 -0.0100
  137ccc     H5 4002   3.732   1.545   4.830  0.5319 -0.4466 -2.0708
  137ccc     H6 4003   3.680   1.703   4.898  0.0787  0.4727 -0.0205
  137ccc     N1 4004   3.901   1.656   4.899  0.3091  0.1142  0.0914
  137ccc     C4 4005   3.944   1.790   4.937  0.1644  0.4372 -0.3036
  137ccc     H7 4006   3.938   1.852   4.847 -0.3076 -0.1239 -0.6677
  137ccc     H8 4007   4.051   1.791   4.962  0.1627 -2.0426  0.0597
  137ccc     C5 4008   3.865   1.852   5.059  0.4673 -0.3158 -0.0025
  137ccc     H9 4009   3.760   1.856   5.028  1.1274  3.1959 -2.4468
  137ccc    H10 4010   3.890   1.802   5.153 -1.2306 -0.1168  0.5865
  137ccc     C6 4011   3.906   1.999   5.079  0.7262 -0.4787 -0.2789
  137ccc     O1 4012   4.018   2.039   5.061  0.6897 -0.4318  0.0070
  137ccc     O2 4013   3.824   2.059   5.165  0.4897 -0.2081 -0.7416
  137ccc    H11 4014   3.747   1.999   5.169 -0.2764  0.7921  0.2678
  137ccc     C7 4015   3.913   1.554   4.995 -0.1618  0.3071 -0.1931
  137ccc    H12 4016   3.899   1.597   5.095  0.8909  2.0421 -0.7436
  137ccc    H13 4017   3.831   1.483   4.983 -0.3495  0.2727  1.1321
  137ccc     C8 4018   4.047   1.485   4.994 -0.0061 -0.2328  0.6898
  137ccc    H14 4019   4.068   1.455   4.891 -0.7220  0.8464  0.2094
  137ccc    H15 4020   4.123   1.560   5.021  0.6483 -0.4929 -0.3822
  137ccc     C9 4021   4.064   1.371   5.095  0.3857 -0.5029  0.2577
  137ccc     O3 4022   3.983   1.349   5.181 -0.0298  0.3010  0.2925
  137ccc     O4 4023   4.159   1.278   5.069  0.0147 -0.2060 -0.2924
  137ccc    H16 4024   4.211   1.320   4.999 -0.7033 -0.3940 -0.9501
  137ccc     O5 4025   3.584   1.763   4.522  0.3455  0.6254 -0.1795
  138ccc     C1 4026   0.785   2.092   6.031 -0.3245  0.0051 -0.0810
  138ccc     H1 4027   0.847   2.169   5.984  1.5346  0.6796  3.1600
  138ccc     H2 4028   0.788   1.998   5.974 -0.0963 -1.2264  1.8531
  138ccc     C2 4029   0.642   2.138   6.047 -0.1376 -0.2854 -0.2023
  138ccc     H3 4030   0.656   2.239   6.005 -0.2620 -0.7135 -1.3063
  138ccc     H4 4031   0.617   2.158   6.152  0.1956  1.3397 -0.4015
  138ccc     C3 4032   0.532   2.059   5.975 -0.0420  0.2359  0.4257
  138ccc     H5 4033   0.503   1.969   6.031 -0.5066  0.5022  0.6214
  138ccc     H6 4034   0.565   2.016   5.880  2.6293  1.1928  0.8387
  138ccc     N1 4035   0.408   2.134   5.957  0.3041  0.3221  0.1838
  138ccc     C4 4036   0.323   2.129   6.080 -0.5432 -0.0990 -0.6945
  138ccc     H7 4037   0.350   2.210   6.148 -0.2178 -1.4557  0.8562
  138ccc     H8 4038   0.341   2.039   6.140  1.3436  0.9858  0.4661
  138ccc     C5 4039   0.172   2.145   6.046 -0.5568  1.1421 -0.7221
  138ccc     H9 4040   0.159   2.253   6.032  0.7436  1.2726 -1.1016
  138ccc    H10 4041   0.149   2.081   5.960 -1.2669 -0.1237  0.3724
  138ccc     C6 4042   0.081   2.092   6.159 -0.5265 -0.3170 -0.0304
  138ccc     O1 4043   0.116   2.043   6.268  0.2633 -0.1126 -0.4960
  138ccc     O2 4044  -0.044   2.080   6.115 -0.5120  0.0698 -0.6637
  138ccc    H11 4045  -0.039   2.109   6.022 -0.4695  0.2540 -0.6065
  138ccc     C7 4046   0.402   2.254   5.866 -0.8284  0.0604  0.5261
  138ccc    H12 4047   0.306   2.306   5.864  0.5429  2.7799  0.4833
  138ccc    H13 4048   0.483   2.321   5.900 -0.3216  0.3908 -1.2479
  138ccc     C8 4049   0.429   2.208   5.719 -0.1851 -0.3773 -0.4787
  138ccc    H14 4050   0.377   2.281   5.656  1.2998  0.5459 -0.6680
  138ccc    H15 4051   0.533   2.211   5.686 -0.7040  1.2786 -2.0893
  138ccc     C9 4052   0.362   2.073   5.688 -0.6297 -0.2598 -0.1173
  138ccc     O3 4053   0.415   1.985   5.623 -0.0619 -0.2708 -0.2540
  138ccc     O4 4054   0.228   2.072   5.705  0.3290 -0.2323  0.3210
  138ccc    H16 4055   0.192   2.156   5.741  0.0407  0.1522 -0.8307
  138ccc     O5 4056   0.838   2.062   6.167 -0.5629  0.0005 -0.6245
  139ccc     C1 4057   1.011   2.302   6.885 -0.0228  0.3988 -0.1907
  139ccc     H1 4058   0.929   2.271   6.819 -0.0997  1.0351 -0.4076
  139ccc     H2 4059   0.971   2.363   6.967  0.3668  0.1876  0.1610
  139ccc     C2 4060   1.101   2.402   6.820 -0.6387  0.2213  0.2826
  139ccc     H3 4061   1.200   2.403   6.866 -1.3367  1.5276  1.8560
  139ccc     H4 4062   1.062   2.504   6.826 -0.2705  0.3707  0.1609
  139ccc     C3 4063   1.114   2.371   6.668 -0.2144 -0.0456  0.3946
  139ccc     H5 4064   1.016   2.354   6.620 -0.1100 -3.3850  1.1462
  139ccc     H6 4065   1.156   2.270   6.658 -1.3280 -0.6322  1.4559
  139ccc     N1 4066   1.200   2.464   6.587  0.1701  0.2489 -0.6561
  139ccc     C4 4067   1.310   2.535   6.657 -0.1129  0.0580 -0.8278
  139ccc     H7 4068   1.277   2.581   6.751  0.5021 -1.2655  0.0741
  139ccc     H8 4069   1.362   2.603   6.588  0.1978  1.4349  0.7046
  139ccc     C5 4070   1.426   2.435   6.703 -0.3761 -0.8450  0.4541
  139ccc     H9 4071   1.496   2.501   6.756 -0.5056  1.3566 -1.9598
  139ccc    H10 4072   1.407   2.360   6.781 -1.5679  0.7307  1.7256
  139ccc     C6 4073   1.508   2.373   6.592 -0.3339  0.4421  0.1243
  139ccc     O1 4074   1.529   2.417   6.483 -0.3756 -0.1705 -0.1956
  139ccc     O2 4075   1.561   2.246   6.621  0.0270 -0.4982  0.2616
  139ccc    H11 4076   1.530   2.244   6.713 -1.7918  0.3326 -0.2753
  139ccc     C7 4077   1.223   2.427   6.450  0.0172 -0.9430  0.3943
  139ccc    H12 4078   1.296   2.495   6.405  1.4044 -0.3967  3.2760
  139ccc    H13 4079   1.259   2.323   6.445  0.8743 -0.6730  0.9101
  139ccc     C8 4080   1.096   2.426   6.361 -0.2973 -0.5094  1.1635
  139ccc    H14 4081   1.021   2.354   6.397 -1.0107  0.0411  0.8044
  139ccc    H15 4082   1.044   2.522   6.354  0.4677 -0.1955 -1.4072
  139ccc     C9 4083   1.125   2.374   6.216 -0.4862 -0.6636  0.3133
  139ccc     O3 4084   1.107   2.441   6.122 -0.0434 -0.2262  0.1324
  139ccc     O4 4085   1.179   2.249   6.213 -0.1963 -0.1572  0.0203
  139ccc    H16 4086   1.215   2.230   6.302 -0.6522 -0.1324  0.2112
  139ccc     O5 4087   1.083   2.186   6.934  0.1037  0.0337 -0.1982
  140ccc     C1 4088   1.830   3.219   6.507  0.4608 -0.0362  0.1394
  140ccc     H1 4089   1.924   3.231   6.563 -0.9771  1.7234  2.3135
  140ccc     H2 4090   1.790   3.318   6.486 -0.4565  0.0229  1.9921
  140ccc     C2 4091   1.733   3.135   6.597 -0.5009  0.1629 -0.6526
  140ccc     H3 4092   1.733   3.178   6.698  1.2885 -4.4140  1.5768
  140ccc     H4 4093   1.764   3.030   6.604 -3.0164 -0.5731  0.5735
  140ccc     C3 4094   1.590   3.139   6.552 -0.2008  0.0231 -0.1526
  140ccc     H5 4095   1.583   3.109   6.446  1.0294 -2.8919  0.4695
  140ccc     H6 4096   1.559   3.244   6.555 -1.0891 -0.2565  1.1006
  140ccc     N1 4097   1.503   3.055   6.637 -0.2503 -0.0105 -0.1519
  140ccc     C4 4098   1.353   3.065   6.613  0.1912 -0.0846  0.8186
  140ccc     H7 4099   1.310   2.988   6.678  1.7372 -3.0323 -1.4297
  140ccc     H8 4100   1.326   3.023   6.515 -0.1084 -1.0478  1.3019
  140ccc     C5 4101   1.284   3.203   6.649  0.2541 -0.0164  0.1189
  140ccc     H9 4102   1.329   3.283   6.589  1.0071  0.6049  1.4483
  140ccc    H10 4103   1.178   3.190   6.623 -0.7879  0.7477  3.5224
  140ccc     C6 4104   1.297   3.248   6.796  0.0348 -0.0589  0.2538
  140ccc     O1 4105   1.307   3.184   6.902 -0.2342  0.2165  0.2837
  140ccc     O2 4106   1.259   3.377   6.807  0.0752 -0.3720  0.6761
  140ccc    H11 4107   1.236   3.402   6.716 -1.3929 -0.4672  0.9862
  140ccc     C7 4108   1.541   2.919   6.681 -0.0127 -0.0942 -0.1218
  140ccc    H12 4109   1.479   2.844   6.629 -1.1910  0.1081  0.9197
  140ccc    H13 4110   1.645   2.892   6.662  0.4123  0.3707  1.4045
  140ccc     C8 4111   1.514   2.922   6.835  0.3731  0.3949  0.2185
  140ccc    H14 4112   1.557   3.007   6.889  0.9261 -0.4668  1.1760
  140ccc    H15 4113   1.408   2.915   6.860 -0.1224  0.7787 -1.6031
  140ccc     C9 4114   1.585   2.804   6.897 -0.1656  0.2732  0.2063
  140ccc     O3 4115   1.618   2.706   6.832 -0.3607  0.0987  0.0789
  140ccc     O4 4116   1.600   2.809   7.032  0.2718 -0.1816 -0.1748
  140ccc    H16 4117   1.553   2.891   7.057  0.2924  0.3724 -1.8359
  140ccc     O5 4118   1.851   3.128   6.389  0.2087  0.2276  0.6651
  141ccc     C1 4119   2.490   2.709   5.964  0.0362 -0.2823 -0.6021
  141ccc     H1 4120   2.546   2.631   5.910 -0.6188  0.4816 -2.4846
  141ccc     H2 4121   2.416   2.748   5.893 -0.0818  2.4455  0.8882
  141ccc     C2 4122   2.572   2.830   6.006  0.2078 -1.4478 -0.1400
  141ccc     H3 4123   2.501   2.910   6.032  0.8299 -0.1760 -2.0656
  141ccc     H4 4124   2.617   2.880   5.919  0.8031 -0.3499  0.7692
  141ccc     C3 4125   2.677   2.791   6.107 -0.2351 -0.7350  0.3442
  141ccc     H5 4126   2.713   2.691   6.081  0.2019 -0.0826 -1.7532
  141ccc     H6 4127   2.640   2.791   6.211  1.1970 -0.0849  0.8809
  141ccc     N1 4128   2.795   2.881   6.117 -0.4534  0.3587 -0.2504
  141ccc     C4 4129   2.779   3.029   6.108 -0.2170 -0.7063 -0.4799
  141ccc     H7 4130   2.751   3.052   6.004  1.1990  1.2211 -0.4843
  141ccc     H8 4131   2.875   3.075   6.132  0.0084 -1.3929 -0.0385
  141ccc     C5 4132   2.675   3.080   6.213  0.1002 -0.3270  0.3176
  141ccc     H9 4133   2.646   3.183   6.188  2.2149  0.2549  0.0272
  141ccc    H10 4134   2.575   3.037   6.202 -0.4583  1.2390 -1.2513
  141ccc     C6 4135   2.723   3.079   6.355  0.3386  0.2051  0.2978
  141ccc     O1 4136   2.789   3.169   6.405 -0.5581 -0.6075 -0.1789
  141ccc     O2 4137   2.733   2.959   6.410  0.3704  0.0014  0.1457
  141ccc    H11 4138   2.721   2.904   6.331  1.3413 -0.9465  0.6417
  141ccc     C7 4139   2.927   2.831   6.074  0.6229 -0.5117  0.0434
  141ccc    H12 4140   3.006   2.895   6.116 -0.2867  0.1398  0.8274
  141ccc    H13 4141   2.939   2.738   6.130 -2.2906 -0.2678  1.2942
  141ccc     C8 4142   2.949   2.820   5.914  0.2710  0.6433 -0.0508
  141ccc    H14 4143   2.875   2.758   5.862  0.5828 -0.1949  0.4788
  141ccc    H15 4144   2.937   2.918   5.866 -2.6885 -0.5068 -2.0045
  141ccc     C9 4145   3.081   2.752   5.879 -0.5185  0.3833  0.0841
  141ccc     O3 4146   3.105   2.636   5.909  0.0238  0.1670 -0.4162
  141ccc     O4 4147   3.183   2.838   5.862 -0.2323 -0.6258 -0.7954
  141ccc    H16 4148   3.147   2.926   5.840  0.2247  0.0572  1.0389
  141ccc     O5 4149   2.417   2.664   6.082 -0.5204 -0.2088 -0.4598
  142ccc     C1 4150   1.560  -1.056   4.037  0.3837  0.1758  0.1480
  142ccc     H1 4151   1.593  -0.999   4.124 -0.7161  0.7383  0.2098
  142ccc     H2 4152   1.458  -1.083   4.066 -0.0001  1.3793 -0.0388
  142ccc     C2 4153   1.646  -1.182   4.016 -0.1036 -0.9515 -0.1419
  142ccc     H3 4154   1.640  -1.247   4.104 -1.5956 -0.3879  0.1973
  142ccc     H4 4155   1.750  -1.148   4.008 -0.1268 -0.8706 -0.0993
  142ccc     C3 4156   1.616  -1.268   3.898  0.0056 -0.1488  0.6929
  142ccc     H5 4157   1.630  -1.196   3.816 -0.5255 -0.4654  0.3183
  142ccc     H6 4158   1.508  -1.290   3.897 -0.4119  1.6834 -0.3234
  142ccc     N1 4159   1.701  -1.385   3.884  0.2929 -0.0053 -0.8971
  142ccc     C4 4160   1.701  -1.498   3.984  0.0445  0.3973 -0.2276
  142ccc     H7 4161   1.602  -1.546   3.985 -0.6602  1.7882  0.2988
  142ccc     H8 4162   1.710  -1.451   4.083 -0.3824  0.7834 -0.3671
  142ccc     C5 4163   1.815  -1.602   3.976  0.5117 -0.4548  0.1794
  142ccc     H9 4164   1.791  -1.676   3.898 -1.9129  0.2257  0.1945
  142ccc    H10 4165   1.909  -1.549   3.961  0.9029 -0.9363  0.8361
  142ccc     C6 4166   1.822  -1.682   4.104  0.2193  0.0562 -0.2811
  142ccc     O1 4167   1.870  -1.643   4.211  0.4874 -0.3626  0.7165
  142ccc     O2 4168   1.736  -1.777   4.112 -0.0492 -0.1340 -0.3345
  142ccc    H11 4169   1.697  -1.803   4.027 -2.2453  3.2134 -0.5369
  142ccc     C7 4170   1.703  -1.447   3.747  0.0081 -0.2330 -0.4290
  142ccc    H12 4171   1.777  -1.528   3.739  0.2601 -0.1435  0.7924
  142ccc    H13 4172   1.606  -1.495   3.730 -0.5457  1.3113 -1.8019
  142ccc     C8 4173   1.734  -1.347   3.632 -0.8149  0.2202  0.2992
  142ccc    H14 4174   1.654  -1.274   3.617 -2.4415 -1.7055 -1.0140
  142ccc    H15 4175   1.821  -1.286   3.658  0.3572 -1.1661 -0.2253
  142ccc     C9 4176   1.767  -1.422   3.501 -0.1269  0.4285  0.7918
  142ccc     O3 4177   1.719  -1.532   3.470 -0.8688  0.1470 -0.1402
  142ccc     O4 4178   1.819  -1.353   3.401  0.2337  0.5868  0.3958
  142ccc    H16 4179   1.814  -1.262   3.435  2.7201  1.5654 -1.4822
  142ccc     O5 4180   1.557  -0.973   3.918  0.3307  0.0954 -0.3259
  143ccc     C1 4181   2.161  -1.147   3.765  0.7540  0.2855  0.7933
  143ccc     H1 4182   2.137  -1.233   3.701  0.9575  0.3301  0.6551
  143ccc     H2 4183   2.266  -1.149   3.797  0.0077 -1.9821  3.4702
  143ccc     C2 4184   2.068  -1.131   3.884 -0.5789 -0.8606 -0.4117
  143ccc     H3 4185   1.972  -1.089   3.853  1.4417  5.2604  0.1776
  143ccc     H4 4186   2.101  -1.040   3.936  0.8853 -0.4349 -1.9889
  143ccc     C3 4187   2.062  -1.256   3.974 -0.4385  0.0609 -0.6816
  143ccc     H5 4188   2.023  -1.331   3.905  0.1315  0.1509 -1.1046
  143ccc     H6 4189   1.989  -1.239   4.055  1.4502 -1.0399  1.3693
  143ccc     N1 4190   2.199  -1.285   4.037 -0.3705 -0.3250  0.4701
  143ccc     C4 4191   2.215  -1.413   4.109 -0.3732  0.2040 -0.1770
  143ccc     H7 4192   2.321  -1.433   4.128 -0.5523 -1.1262 -0.4546
  143ccc     H8 4193   2.172  -1.502   4.062 -3.1774  1.3413  0.0024
  143ccc     C5 4194   2.151  -1.408   4.255  0.2832 -0.7051  0.4307
  143ccc     H9 4195   2.195  -1.323   4.307  0.7029  0.1286 -1.2060
  143ccc    H10 4196   2.043  -1.394   4.241  0.3209  0.6988  1.3722
  143ccc     C6 4197   2.171  -1.535   4.343 -0.0855  0.2061  0.2894
  143ccc     O1 4198   2.220  -1.632   4.293  0.2649 -0.0664  0.0530
  143ccc     O2 4199   2.146  -1.528   4.475 -0.3497  0.6730  0.0799
  143ccc    H11 4200   2.101  -1.443   4.489 -0.8473  0.7590 -1.6744
  143ccc     C7 4201   2.259  -1.162   4.102 -0.4607  0.9393 -0.3692
  143ccc    H12 4202   2.260  -1.081   4.028 -0.4409  0.4902 -0.8717
  143ccc    H13 4203   2.199  -1.138   4.190 -0.3241 -0.1957  0.0506
  143ccc     C8 4204   2.413  -1.186   4.139 -0.1000  0.2983  0.3111
  143ccc    H14 4205   2.434  -1.271   4.206 -0.0500 -0.1700 -0.2891
  143ccc    H15 4206   2.469  -1.215   4.049 -2.4425 -0.1168 -1.0915
  143ccc     C9 4207   2.470  -1.058   4.207  0.2523  0.3184  0.6858
  143ccc     O3 4208   2.402  -0.973   4.260 -0.5682  0.0423 -0.0934
  143ccc     O4 4209   2.600  -1.077   4.244  0.1560  0.5535  0.8351
  143ccc    H16 4210   2.635  -1.150   4.190 -0.3383  0.1018  1.1149
  143ccc     O5 4211   2.132  -1.033   3.682 -0.2209  0.0809  0.1076
  144ccc     C1 4212   1.091  -0.584   5.155  0.4835 -0.6889  0.5903
  144ccc     H1 4213   1.038  -0.548   5.244 -2.5995 -3.0634 -0.0994
  144ccc     H2 4214   1.027  -0.666   5.122 -0.3501 -0.1384  0.8055
  144ccc     C2 4215   1.229  -0.641   5.197 -0.3176 -0.4854  0.0974
  144ccc     H3 4216   1.215  -0.688   5.296  0.1651 -0.5148  0.1512
  144ccc     H4 4217   1.300  -0.560   5.218  0.1107 -1.2493  1.7970
  144ccc     C3 4218   1.287  -0.738   5.094  0.3425  0.4623 -0.9357
  144ccc     H5 4219   1.285  -0.695   4.994 -0.5353  0.3351 -0.9787
  144ccc     H6 4220   1.217  -0.821   5.076 -0.4060  1.2491 -1.7261
  144ccc     N1 4221   1.413  -0.794   5.138 -0.4578  0.1580  1.0321
  144ccc     C4 4222   1.420  -0.870   5.264  0.8255  0.1528 -0.6756
  144ccc     H7 4223   1.408  -0.804   5.351  0.9487  1.3981 -1.5785
  144ccc     H8 4224   1.521  -0.914   5.267  0.7029 -0.9783 -5.6035
  144ccc     C5 4225   1.325  -0.992   5.261 -0.2923  0.0897  0.2193
  144ccc     H9 4226   1.223  -0.967   5.293  0.4075  4.6058 -0.3935
  144ccc    H10 4227   1.320  -1.029   5.157  0.4766 -2.2645  0.9588
  144ccc     C6 4228   1.363  -1.111   5.350  0.2918  0.4006  0.0938
  144ccc     O1 4229   1.428  -1.100   5.454  0.1202  0.1612  0.5788
  144ccc     O2 4230   1.276  -1.213   5.347  0.0268 -0.6009  0.2078
  144ccc    H11 4231   1.213  -1.187   5.278 -0.8234  0.5889  1.3819
  144ccc     C7 4232   1.491  -0.862   5.024  0.4876  0.8876 -0.6145
  144ccc    H12 4233   1.578  -0.900   5.078  0.7371  2.9291  0.5163
  144ccc    H13 4234   1.422  -0.936   4.981 -0.0457  0.0150  1.5993
  144ccc     C8 4235   1.524  -0.768   4.912 -0.7324  0.1747  0.0913
  144ccc    H14 4236   1.429  -0.736   4.869 -1.1842 -1.3405 -0.0994
  144ccc    H15 4237   1.572  -0.678   4.954 -1.2031 -0.0033  1.0509
  144ccc     C9 4238   1.617  -0.824   4.806  0.0083 -0.2737  0.0694
  144ccc     O3 4239   1.693  -0.916   4.819  0.5971 -0.0758  0.6573
  144ccc     O4 4240   1.623  -0.743   4.696 -0.4311  0.0230  0.1579
  144ccc    H16 4241   1.551  -0.677   4.693 -0.0728  0.4027 -0.3625
  144ccc     O5 4242   1.126  -0.480   5.050 -0.0234 -0.3185  0.3062
  145ccc     C1 4243   0.565   0.207   4.424 -0.7457  0.4545 -0.1150
  145ccc     H1 4244   0.537   0.139   4.343  1.4311  0.6835 -1.1508
  145ccc     H2 4245   0.488   0.198   4.500  0.0655 -0.6387  0.6083
  145ccc     C2 4246   0.569   0.343   4.356 -0.3440 -0.4006 -0.0396
  145ccc     H3 4247   0.491   0.353   4.279  1.1572 -0.2017 -1.5757
  145ccc     H4 4248   0.666   0.354   4.306  0.3869  3.3816  1.8970
  145ccc     C3 4249   0.559   0.466   4.451  0.1827 -0.8677  0.3276
  145ccc     H5 4250   0.616   0.437   4.540 -1.4703 -1.8499  1.1268
  145ccc     H6 4251   0.455   0.474   4.485 -0.6928 -2.4709 -1.7394
  145ccc     N1 4252   0.608   0.594   4.394  0.4471 -0.6173  0.1192
  145ccc     C4 4253   0.730   0.597   4.311 -0.2030 -0.2546  0.0363
  145ccc     H7 4254   0.733   0.691   4.254 -0.5552 -1.1138 -1.4502
  145ccc     H8 4255   0.726   0.528   4.226 -0.6859 -0.4243  0.1941
  145ccc     C5 4256   0.865   0.558   4.385 -0.4347 -0.0582  0.2891
  145ccc     H9 4257   0.867   0.629   4.469 -2.7238 -0.7789  1.0368
  145ccc    H10 4258   0.859   0.459   4.431  0.2091 -0.2388 -0.0088
  145ccc     C6 4259   0.991   0.585   4.304 -0.3190 -0.3007  0.0366
  145ccc     O1 4260   0.994   0.660   4.210 -0.0786  0.2028  0.2994
  145ccc     O2 4261   1.097   0.540   4.370  0.4485 -0.0591 -0.3928
  145ccc    H11 4262   1.062   0.471   4.429 -3.4130  2.4732  0.6774
  145ccc     C7 4263   0.565   0.715   4.469  0.4738 -0.4093  0.2889
  145ccc    H12 4264   0.455   0.713   4.465  0.5095 -0.2799 -0.9206
  145ccc    H13 4265   0.606   0.709   4.571  0.9355 -2.0466  0.0422
  145ccc     C8 4266   0.603   0.848   4.398  0.1628  0.2863  0.0429
  145ccc    H14 4267   0.708   0.880   4.406  0.6635 -0.2984 -2.9682
  145ccc    H15 4268   0.587   0.836   4.290 -1.5565  2.9805 -0.0759
  145ccc     C9 4269   0.514   0.960   4.439 -0.0982  0.2580 -0.0070
  145ccc     O3 4270   0.493   0.988   4.558  0.3067 -0.6944  0.1497
  145ccc     O4 4271   0.444   1.014   4.338  0.0646 -0.5277 -0.2717
  145ccc    H16 4272   0.487   0.973   4.261 -0.7366 -1.6837 -0.1232
  145ccc     O5 4273   0.699   0.168   4.471 -0.3745 -0.1411 -0.2321
  146ccc     C1 4274   4.298   0.489   4.942  0.1901  0.3616 -0.3995
  146ccc     H1 4275   4.402   0.520   4.953  1.1526 -2.3496 -1.0377
  146ccc     H2 4276   4.297   0.448   4.841  0.6433  1.4656 -0.8646
  146ccc     C2 4277   4.203   0.602   4.982  0.0232  0.5898  0.0366
  146ccc     H3 4278   4.109   0.556   4.947  0.5396 -1.8959  1.6587
  146ccc     H4 4279   4.227   0.676   4.904 -0.5188 -0.5266 -1.2404
  146ccc     C3 4280   4.207   0.651   5.126 -0.1733 -0.1095 -0.0113
  146ccc     H5 4281   4.310   0.682   5.149  0.7192 -3.7156  1.5432
  146ccc     H6 4282   4.188   0.567   5.195 -0.9106 -0.8008 -1.0307
  146ccc     N1 4283   4.107   0.761   5.151 -0.2687  0.5276 -0.0008
  146ccc     C4 4284   3.965   0.711   5.123  0.1280  0.1442 -0.7900
  146ccc     H7 4285   3.957   0.655   5.029  1.8863 -2.2295  0.3805
  146ccc     H8 4286   3.891   0.792   5.119 -1.8723 -1.2893  2.7827
  146ccc     C5 4287   3.905   0.624   5.234  0.8624 -0.3515 -0.4512
  146ccc     H9 4288   3.963   0.531   5.232  0.6093 -0.5062 -1.3279
  146ccc    H10 4289   3.919   0.673   5.331  0.0751 -0.0389 -0.4912
  146ccc     C6 4290   3.758   0.583   5.206 -0.4917 -0.3341 -0.1476
  146ccc     O1 4291   3.713   0.568   5.095 -0.3688  0.2422  0.1049
  146ccc     O2 4292   3.678   0.577   5.314  0.3387  0.5031  0.2038
  146ccc    H11 4293   3.740   0.580   5.389 -0.4629 -0.2450  0.9305
  146ccc     C7 4294   4.128   0.837   5.274 -0.1640 -0.4394 -0.0409
  146ccc    H12 4295   4.119   0.779   5.366  3.2206 -1.0525  0.0210
  146ccc    H13 4296   4.234   0.861   5.263  0.3425 -1.8558  1.3741
  146ccc     C8 4297   4.043   0.962   5.283 -0.3213  0.0404  0.4628
  146ccc    H14 4298   4.076   1.032   5.205  2.8420  0.5358  2.0966
  146ccc    H15 4299   3.936   0.942   5.277  0.0950 -2.4254  0.2928
  146ccc     C9 4300   4.057   1.031   5.421  0.1994 -0.7006 -0.6240
  146ccc     O3 4301   4.085   0.983   5.530 -0.2787  0.2675  0.6261
  146ccc     O4 4302   4.047   1.168   5.412 -0.2230 -0.0803 -0.4034
  146ccc    H16 4303   4.017   1.186   5.322 -0.5527 -0.3338 -0.3476
  146ccc     O5 4304   4.288   0.381   5.040  0.4312 -0.0405  0.2639
  147ccc     C1 4305   3.991   0.143   5.825  0.3694 -0.3860 -0.3641
  147ccc     H1 4306   3.986   0.249   5.852 -2.2794 -0.7993  1.1936
  147ccc     H2 4307   3.893   0.100   5.848  0.7213 -0.4571  1.1514
  147ccc     C2 4308   4.096   0.086   5.921  0.0468  0.1438 -0.2067
  147ccc     H3 4309   4.113  -0.023   5.917  3.3057  0.5468  0.3254
  147ccc     H4 4310   4.058   0.083   6.024  2.0802 -0.0391  0.5738
  147ccc     C3 4311   4.235   0.148   5.904  0.1357  0.6502  0.6919
  147ccc     H5 4312   4.253   0.132   5.797  0.7609 -3.1779  1.2303
  147ccc     H6 4313   4.307   0.080   5.952 -1.5157 -2.4597 -0.9387
  147ccc     N1 4314   4.257   0.283   5.953  0.2865 -0.1589 -0.0139
  147ccc     C4 4315   4.406   0.319   5.946 -0.1872  0.5977 -0.0709
  147ccc     H7 4316   4.439   0.295   5.845  0.3614 -0.8625  0.4287
  147ccc     H8 4317   4.459   0.246   6.008 -0.3493 -0.2812 -0.9439
  147ccc     C5 4318   4.446   0.464   5.997  0.1408  0.3149  0.7523
  147ccc     H9 4319   4.357   0.524   5.972  0.1816 -0.6432 -2.0711
  147ccc    H10 4320   4.459   0.459   6.106  0.0359  0.4189  0.7696
  147ccc     C6 4321   4.569   0.521   5.938  0.2120  0.0061  0.0198
  147ccc     O1 4322   4.645   0.475   5.855  0.1052 -0.1414 -0.4951
  147ccc     O2 4323   4.559   0.657   5.937  0.4459 -0.2185  0.3695
  147ccc    H11 4324   4.495   0.684   6.005  0.8746  0.5308  0.4897
  147ccc     C7 4325   4.203   0.305   6.095 -0.2509  0.5157  0.4082
  147ccc    H12 4326   4.233   0.405   6.130 -1.5495  0.6946  1.0507
  147ccc    H13 4327   4.094   0.307   6.089 -0.2851 -0.9068 -4.9329
  147ccc     C8 4328   4.257   0.203   6.201  0.7579  0.4373 -0.7721
  147ccc    H14 4329   4.243   0.097   6.176 -0.4694  0.6680 -1.1044
  147ccc    H15 4330   4.366   0.213   6.200  0.5503  3.9935 -0.4156
  147ccc     C9 4331   4.198   0.234   6.339  0.1830 -0.2555 -0.0719
  147ccc     O3 4332   4.216   0.335   6.402 -0.7460  0.1743 -0.3302
  147ccc     O4 4333   4.142   0.125   6.401  1.1880 -0.2252  0.4872
  147ccc    H16 4334   4.137   0.057   6.331  0.8966 -0.4760  0.7479
  147ccc     O5 4335   4.030   0.124   5.687 -0.4140  0.2322 -0.0054
  148ccc     C1 4336   3.161   0.296   5.746  0.3878 -0.0393 -0.2143
  148ccc     H1 4337   3.082   0.299   5.670 -0.7855  1.9236  1.0130
  148ccc     H2 4338   3.122   0.363   5.823 -0.1593 -0.4398 -0.1357
  148ccc     C2 4339   3.300   0.334   5.692 -0.0166 -0.3299 -0.2080
  148ccc     H3 4340   3.301   0.434   5.646 -0.2044 -0.9377 -1.5917
  148ccc     H4 4341   3.333   0.262   5.616  4.5858  0.7014  0.4929
  148ccc     C3 4342   3.405   0.336   5.809 -0.9029 -0.2477 -0.0793
  148ccc     H5 4343   3.386   0.247   5.870 -0.2844 -0.4231 -0.1368
  148ccc     H6 4344   3.387   0.428   5.866 -0.4235  0.4965 -1.0886
  148ccc     N1 4345   3.543   0.321   5.758 -0.2921  0.2272  0.2019
  148ccc     C4 4346   3.636   0.401   5.827  0.1056 -0.7878 -0.1834
  148ccc     H7 4347   3.739   0.365   5.815  0.6460  0.0969  1.4883
  148ccc     H8 4348   3.620   0.400   5.935 -1.4980 -1.3880 -0.4114
  148ccc     C5 4349   3.622   0.549   5.789 -0.3884  0.3116  0.1993
  148ccc     H9 4350   3.519   0.572   5.820 -0.9668 -1.7104 -0.0744
  148ccc    H10 4351   3.700   0.611   5.835 -0.7135  2.1616 -1.6306
  148ccc     C6 4352   3.652   0.578   5.651 -0.1779  0.1080 -1.2851
  148ccc     O1 4353   3.746   0.523   5.594  0.3120 -0.4251 -0.3961
  148ccc     O2 4354   3.600   0.681   5.596  0.2076 -0.3028  0.0236
  148ccc    H11 4355   3.541   0.722   5.662  0.7382  3.6238 -1.6928
  148ccc     C7 4356   3.579   0.180   5.751  0.1571 -0.1818  0.4280
  148ccc    H12 4357   3.501   0.121   5.701  2.4227 -3.2959  0.2776
  148ccc    H13 4358   3.671   0.180   5.691  0.7492 -1.0369  1.3034
  148ccc     C8 4359   3.610   0.108   5.888 -0.2847 -0.4191 -0.5332
  148ccc    H14 4360   3.710   0.140   5.921 -0.4756 -1.1739  0.8616
  148ccc    H15 4361   3.540   0.141   5.967  0.0717 -0.6826 -0.1051
  148ccc     C9 4362   3.612  -0.049   5.879 -0.5721  0.5251  0.6453
  148ccc     O3 4363   3.570  -0.116   5.785 -0.5015 -0.4144 -0.5511
  148ccc     O4 4364   3.673  -0.112   5.981 -0.2379 -0.1742  0.6698
  148ccc    H16 4365   3.701  -0.037   6.036 -0.7526  2.3954 -2.2884
  148ccc     O5 4366   3.161   0.167   5.807 -0.2109  1.0089 -0.2527
  149ccc     C1 4367   2.805  -0.033   5.715 -0.6264  0.6914 -0.5226
  149ccc     H1 4368   2.903  -0.048   5.666 -0.8317 -1.6993 -0.3548
  149ccc     H2 4369   2.723  -0.037   5.643 -0.9390  0.3019 -0.1455
  149ccc     C2 4370   2.819   0.105   5.779  0.2657  0.5237  0.2545
  149ccc     H3 4371   2.858   0.171   5.700 -0.3829  0.3621 -0.2054
  149ccc     H4 4372   2.898   0.104   5.855  1.4499  1.5397 -0.9217
  149ccc     C3 4373   2.689   0.161   5.832  0.1337  0.4057  0.0396
  149ccc     H5 4374   2.641   0.085   5.895 -0.3540 -1.0950 -2.0276
  149ccc     H6 4375   2.631   0.177   5.741 -1.1203 -2.1254  0.3276
  149ccc     N1 4376   2.723   0.284   5.904  0.5280 -0.0227  0.0252
  149ccc     C4 4377   2.774   0.394   5.820  0.4241  0.0401  0.2116
  149ccc     H7 4378   2.703   0.434   5.746  2.9141  1.7260 -1.4307
  149ccc     H8 4379   2.864   0.363   5.767 -0.0130 -1.0440  0.0926
  149ccc     C5 4380   2.829   0.524   5.883 -0.1075 -0.6112  0.3709
  149ccc     H9 4381   2.742   0.588   5.902  0.9422  1.0028 -0.0961
  149ccc    H10 4382   2.870   0.501   5.982  1.3937 -1.0421 -0.3240
  149ccc     C6 4383   2.944   0.596   5.808  0.4022 -0.1859  1.2518
  149ccc     O1 4384   3.021   0.548   5.727 -0.0429  0.5512 -0.9548
  149ccc     O2 4385   2.962   0.722   5.841  0.3544 -0.1997  0.5828
  149ccc    H11 4386   2.895   0.736   5.910  0.8723 -0.3059  1.1093
  149ccc     C7 4387   2.622   0.332   6.001  0.5535 -0.0237  0.2444
  149ccc    H12 4388   2.593   0.247   6.064 -0.6012 -1.6109 -2.2417
  149ccc    H13 4389   2.669   0.414   6.056  0.6468  0.6240 -0.7700
  149ccc     C8 4390   2.500   0.395   5.933  0.1000  0.1833 -0.1702
  149ccc    H14 4391   2.532   0.495   5.900  1.2828 -0.4736 -1.1236
  149ccc    H15 4392   2.459   0.338   5.849 -1.6313 -1.8087  1.8916
  149ccc     C9 4393   2.374   0.413   6.018  0.0970  0.4422 -0.5775
  149ccc     O3 4394   2.331   0.324   6.081  0.2995  0.2988 -0.2229
  149ccc     O4 4395   2.313   0.527   5.991  0.2364 -1.2194 -0.0842
  149ccc    H16 4396   2.375   0.572   5.931 -1.7389  2.5460  0.3632
  149ccc     O5 4397   2.787  -0.136   5.823 -0.2477 -0.1172  0.4575
  150ccc     C1 4398   1.155   1.822   5.234  0.6066  0.8744  0.0160
  150ccc     H1 4399   1.140   1.883   5.144  1.0386  0.0622 -0.6142
  150ccc     H2 4400   1.262   1.811   5.258  0.1805  0.6001  1.9390
  150ccc     C2 4401   1.086   1.683   5.221  0.7341  0.0423 -0.3376
  150ccc     H3 4402   0.982   1.715   5.222  1.8022  3.9599  0.8251
  150ccc     H4 4403   1.121   1.621   5.305  2.0056  0.1602 -0.7562
  150ccc     C3 4404   1.123   1.602   5.095  0.0017 -0.5331  0.8381
  150ccc     H5 4405   1.050   1.521   5.087  0.2921 -0.6511 -1.0099
  150ccc     H6 4406   1.226   1.567   5.109  1.2315  1.4952 -2.1557
  150ccc     N1 4407   1.111   1.689   4.969  0.7133 -0.1488  0.2750
  150ccc     C4 4408   0.976   1.744   4.944  0.3175  0.4383  0.6114
  150ccc     H7 4409   0.977   1.820   4.865 -4.0793 -0.2985 -0.4630
  150ccc     H8 4410   0.938   1.800   5.031  0.7988  0.5765  0.7318
  150ccc     C5 4411   0.868   1.638   4.905  0.4098  0.6120  1.2989
  150ccc     H9 4412   0.841   1.580   4.995 -1.9862  0.2832  0.4282
  150ccc    H10 4413   0.772   1.677   4.870  0.4516 -0.4460 -0.0818
  150ccc     C6 4414   0.903   1.538   4.792  0.1278 -0.1755 -0.2150
  150ccc     O1 4415   0.882   1.422   4.791  0.6434  0.1090  0.8604
  150ccc     O2 4416   0.936   1.597   4.675 -0.1337  0.5011 -0.1549
  150ccc    H11 4417   0.916   1.692   4.680 -1.0475  0.2583  3.1858
  150ccc     C7 4418   1.191   1.651   4.847 -0.1665  0.1417  0.5851
  150ccc    H12 4419   1.179   1.551   4.804 -0.4545  0.3790  0.1119
  150ccc    H13 4420   1.166   1.723   4.769 -1.7075 -0.3844  0.5414
  150ccc     C8 4421   1.338   1.659   4.897 -0.2286  0.5666  0.2612
  150ccc    H14 4422   1.351   1.732   4.978  1.1913 -2.5437  3.0319
  150ccc    H15 4423   1.358   1.559   4.938  1.1338 -0.6268 -2.9859
  150ccc     C9 4424   1.439   1.675   4.781  0.4113 -0.4888  0.4560
  150ccc     O3 4425   1.482   1.577   4.717 -0.7707 -0.1321 -0.3209
  150ccc     O4 4426   1.486   1.795   4.765  0.4674  0.2446  0.1417
  150ccc    H16 4427   1.438   1.856   4.825  1.2207  1.0203 -0.0319
  150ccc     O5 4428   1.078   1.891   5.332  0.1607  0.3302 -0.6408
  151ccc     C1 4429   1.619   1.514   5.788  0.0024  0.2216  0.2481
  151ccc     H1 4430   1.601   1.518   5.679  0.3473  1.6221  0.2198
  151ccc     H2 4431   1.710   1.569   5.813 -0.6888  0.9705  1.1468
  151ccc     C2 4432   1.634   1.373   5.834 -0.1136  0.1566  0.3141
  151ccc     H3 4433   1.730   1.346   5.787  0.8134  1.2542  1.4995
  151ccc     H4 4434   1.550   1.311   5.800 -0.8523  1.1079  0.3869
  151ccc     C3 4435   1.658   1.360   5.988  0.0238 -0.2255  0.2759
  151ccc     H5 4436   1.561   1.362   6.040 -0.6400  0.4490 -0.9334
  151ccc     H6 4437   1.713   1.441   6.037  2.4643 -0.0011 -2.5657
  151ccc     N1 4438   1.727   1.237   6.025 -0.3403  0.2637 -0.1077
  151ccc     C4 4439   1.657   1.107   6.003 -0.2815  0.5713  0.4445
  151ccc     H7 4440   1.722   1.033   6.051 -1.2258 -0.6546 -0.0988
  151ccc     H8 4441   1.643   1.084   5.897  3.7128  0.1200 -0.1272
  151ccc     C5 4442   1.535   1.089   6.084 -0.3673  0.0053 -0.3105
  151ccc     H9 4443   1.544   1.128   6.186  0.1104  3.0930 -1.4412
  151ccc    H10 4444   1.456   1.154   6.045  1.4121  2.7403  0.4070
  151ccc     C6 4445   1.491   0.941   6.080 -0.2753 -0.6310 -0.2619
  151ccc     O1 4446   1.553   0.852   6.026 -0.4528 -0.1931 -0.8233
  151ccc     O2 4447   1.405   0.908   6.172 -0.7538 -0.1569 -0.9972
  151ccc    H11 4448   1.373   0.992   6.207 -3.0181 -1.1068 -0.6251
  151ccc     C7 4449   1.870   1.232   5.992 -0.2903 -0.1689  0.0908
  151ccc    H12 4450   1.890   1.225   5.885 -0.3832 -0.9416  0.1210
  151ccc    H13 4451   1.915   1.328   6.021 -1.1999  1.2389 -2.7844
  151ccc     C8 4452   1.955   1.123   6.059  0.5420  0.1998  0.2094
  151ccc    H14 4453   1.924   1.119   6.164 -1.1747 -0.2752 -0.2743
  151ccc    H15 4454   1.934   1.021   6.024  0.7696 -0.1272  0.9899
  151ccc     C9 4455   2.106   1.141   6.059  0.1258 -0.3102 -0.2623
  151ccc     O3 4456   2.164   1.240   6.017 -0.0858 -0.2088  0.1960
  151ccc     O4 4457   2.171   1.031   6.109  0.0836  0.3657 -0.4855
  151ccc    H16 4458   2.106   0.974   6.153  0.6294  1.1722  1.4667
  151ccc     O5 4459   1.499   1.575   5.851  0.6711  0.0384  0.3261
  152ccc     C1 4460   1.266   1.291   4.687 -0.1178  0.5607 -1.1512
  152ccc     H1 4461   1.166   1.326   4.714 -0.2271 -0.5887  0.0811
  152ccc     H2 4462   1.334   1.376   4.696 -0.6117  0.8156  0.4888
  152ccc     C2 4463   1.266   1.221   4.552 -0.2110 -0.1161 -0.8100
  152ccc     H3 4464   1.194   1.139   4.550  0.4370 -0.7094 -0.4410
  152ccc     H4 4465   1.363   1.175   4.529  0.0554  0.8041 -1.6128
  152ccc     C3 4466   1.239   1.313   4.426  0.0173 -0.5045 -0.5218
  152ccc     H5 4467   1.249   1.243   4.343  3.1452 -0.2521 -0.4766
  152ccc     H6 4468   1.322   1.384   4.417 -0.3809 -0.2589 -2.6110
  152ccc     N1 4469   1.116   1.395   4.423  0.6622  0.1841 -0.1421
  152ccc     C4 4470   1.120   1.504   4.322  0.3254  0.8674 -0.4218
  152ccc     H7 4471   1.016   1.536   4.306  0.3188 -0.2052 -2.8793
  152ccc     H8 4472   1.163   1.475   4.226  0.2887  0.7852 -0.4137
  152ccc     C5 4473   1.199   1.628   4.383  0.7575 -0.5635  0.9020
  152ccc     H9 4474   1.141   1.664   4.469 -1.6015  0.3927 -0.9589
  152ccc    H10 4475   1.297   1.603   4.425  0.9349 -3.6935 -1.0800
  152ccc     C6 4476   1.211   1.742   4.282  0.0093  0.6344  0.0022
  152ccc     O1 4477   1.179   1.856   4.309 -0.2027  0.1978  0.5825
  152ccc     O2 4478   1.291   1.720   4.180 -0.1491  0.4235  0.2642
  152ccc    H11 4479   1.307   1.627   4.204 -0.7260  0.8180  2.4016
  152ccc     C7 4480   0.987   1.318   4.426 -0.2029  0.5460  1.0510
  152ccc    H12 4481   0.992   1.245   4.508 -1.7245 -0.2615  0.4635
  152ccc    H13 4482   0.908   1.387   4.459 -0.6799  0.4820  0.0903
  152ccc     C8 4483   0.953   1.241   4.293  0.0139 -0.6709 -0.3550
  152ccc    H14 4484   0.936   1.310   4.210 -1.9160  1.3243  1.5679
  152ccc    H15 4485   1.038   1.177   4.263  0.1970  0.2053 -1.8075
  152ccc     C9 4486   0.828   1.158   4.307 -0.0422  0.4437 -0.2602
  152ccc     O3 4487   0.728   1.195   4.362  0.6509  0.3879 -0.1010
  152ccc     O4 4488   0.828   1.054   4.228  0.2893  0.3320 -0.2511
  152ccc    H16 4489   0.910   1.063   4.176 -0.1368 -0.8485 -1.1682
  152ccc     O5 4490   1.335   1.206   4.786  0.2624 -0.0162  0.7285
  153ccc     C1 4491   1.026   0.796   5.546  0.2323 -0.5165  0.1876
  153ccc     H1 4492   1.108   0.747   5.602  0.2589  0.5799  1.1427
  153ccc     H2 4493   1.010   0.882   5.611 -1.8493 -0.2247 -0.6536
  153ccc     C2 4494   0.910   0.696   5.544 -0.5237  0.3151 -0.5294
  153ccc     H3 4495   0.826   0.733   5.484 -0.9690  0.9975  0.4851
  153ccc     H4 4496   0.864   0.675   5.641  1.7927  0.5390  0.6676
  153ccc     C3 4497   0.949   0.566   5.467 -0.6738 -0.1817  0.0846
  153ccc     H5 4498   0.963   0.614   5.370 -1.1172 -0.0378  0.0886
  153ccc     H6 4499   0.864   0.496   5.466 -0.7316 -0.2313  2.5632
  153ccc     N1 4500   1.058   0.493   5.528  0.5135 -0.8302 -0.0180
  153ccc     C4 4501   1.130   0.414   5.430  0.0091 -0.4970  0.2768
  153ccc     H7 4502   1.071   0.325   5.406 -0.3250 -0.4788  0.9817
  153ccc     H8 4503   1.221   0.378   5.480 -0.5729  0.6197  2.2630
  153ccc     C5 4504   1.181   0.489   5.305  0.7310  0.3622 -0.3860
  153ccc     H9 4505   1.103   0.522   5.236  1.3784  1.3467 -0.6737
  153ccc    H10 4506   1.215   0.589   5.334 -0.0740  0.9605 -1.4160
  153ccc     C6 4507   1.273   0.398   5.225  0.2902  0.3227 -0.2466
  153ccc     O1 4508   1.346   0.321   5.275 -0.3846 -0.5662 -0.0296
  153ccc     O2 4509   1.285   0.421   5.097  0.1616 -0.0952 -0.7781
  153ccc    H11 4510   1.212   0.482   5.076  1.0182  1.4092  0.3830
  153ccc     C7 4511   1.028   0.438   5.663 -0.0502 -0.3309  0.0589
  153ccc    H12 4512   0.961   0.505   5.718 -1.1542 -0.9576 -0.4665
  153ccc    H13 4513   0.982   0.338   5.662  1.7586 -1.2864  2.5614
  153ccc     C8 4514   1.148   0.441   5.756 -0.7853  0.1899  0.1007
  153ccc    H14 4515   1.241   0.407   5.710 -0.4990 -0.5475  1.1791
  153ccc    H15 4516   1.165   0.548   5.770 -0.0298  0.0724  0.0956
  153ccc     C9 4517   1.125   0.382   5.892 -0.2142 -0.7142  0.4390
  153ccc     O3 4518   1.035   0.310   5.923 -0.3426  0.2268  0.2774
  153ccc     O4 4519   1.184   0.460   5.988 -0.2039 -0.0445 -0.5259
  153ccc    H16 4520   1.241   0.517   5.933  0.4609 -1.2141 -1.0816
  153ccc     O5 4521   1.051   0.844   5.415 -0.4546 -0.6857 -0.4702
  154ccc     C1 4522   3.277   0.794   3.922  0.0132  0.2926 -0.5636
  154ccc     H1 4523   3.194   0.722   3.927 -0.4258  0.8147 -0.0722
  154ccc     H2 4524   3.321   0.803   3.822  1.6425 -1.1621 -0.0315
  154ccc     C2 4525   3.378   0.747   4.023  0.1091 -0.7038 -0.0408
  154ccc     H3 4526   3.349   0.778   4.124 -0.5591 -1.3338 -0.0357
  154ccc     H4 4527   3.470   0.806   4.009 -1.2638  1.0921 -2.0506
  154ccc     C3 4528   3.398   0.597   4.007 -0.5797  0.3091 -0.0759
  154ccc     H5 4529   3.412   0.588   3.898  0.0535  1.8277 -0.1413
  154ccc     H6 4530   3.308   0.549   4.047 -1.3597  1.6097 -0.2031
  154ccc     N1 4531   3.513   0.543   4.084 -0.0062 -0.0585 -0.0529
  154ccc     C4 4532   3.542   0.403   4.035  0.4674 -0.0642  0.6442
  154ccc     H7 4533   3.456   0.352   3.990  1.2988 -0.5320 -0.4680
  154ccc     H8 4534   3.573   0.337   4.116 -0.8745 -0.4356  0.8816
  154ccc     C5 4535   3.649   0.404   3.924 -0.4410  0.1622  0.0834
  154ccc     H9 4536   3.610   0.470   3.845 -1.8379 -0.1481  0.4850
  154ccc    H10 4537   3.747   0.438   3.959 -0.4502 -0.7833  1.0901
  154ccc     C6 4538   3.673   0.274   3.855 -0.2576 -0.0372 -0.3550
  154ccc     O1 4539   3.608   0.172   3.882 -0.4407 -0.2830  0.1466
  154ccc     O2 4540   3.733   0.286   3.730 -0.3956  0.0749  0.5077
  154ccc    H11 4541   3.773   0.375   3.730  1.5656 -0.5387 -4.1113
  154ccc     C7 4542   3.515   0.554   4.232 -0.5033  0.5787  0.2209
  154ccc    H12 4543   3.609   0.525   4.282 -1.8605 -1.3916  1.7678
  154ccc    H13 4544   3.511   0.658   4.266  2.7796  1.0449 -0.4934
  154ccc     C8 4545   3.409   0.470   4.303  0.6878  0.1451 -0.0511
  154ccc    H14 4546   3.315   0.507   4.262  1.2571 -0.2721 -1.8408
  154ccc    H15 4547   3.410   0.361   4.290 -0.2881 -0.0280  1.1629
  154ccc     C9 4548   3.434   0.493   4.454  0.0753 -0.4490 -0.3988
  154ccc     O3 4549   3.506   0.576   4.504  0.0778 -0.3036 -0.1246
  154ccc     O4 4550   3.356   0.416   4.530 -0.1739 -0.2783  0.1981
  154ccc    H16 4551   3.302   0.375   4.460  0.5180 -1.9952  0.6429
  154ccc     O5 4552   3.242   0.926   3.972  0.2794  0.2423 -0.8171
  155ccc     C1 4553   3.045   1.333   4.270  0.3144 -0.3659 -0.0089
  155ccc     H1 4554   3.023   1.441   4.268  0.6500 -0.3059 -1.5168
  155ccc     H2 4555   2.966   1.274   4.225 -0.5694  0.4712  0.4010
  155ccc     C2 4556   3.065   1.284   4.419  0.0352  0.2075 -0.2012
  155ccc     H3 4557   3.059   1.176   4.402 -0.2311  0.4439 -1.8468
  155ccc     H4 4558   2.974   1.310   4.475 -0.1632 -1.5299  0.3231
  155ccc     C3 4559   3.199   1.338   4.471 -0.3831 -0.8373 -0.6856
  155ccc     H5 4560   3.197   1.446   4.452 -0.8031 -0.5820  0.6986
  155ccc     H6 4561   3.270   1.290   4.403  0.0533  0.7154 -1.3541
  155ccc     N1 4562   3.245   1.309   4.605 -0.5886 -0.1637  0.2882
  155ccc     C4 4563   3.387   1.351   4.621 -0.0661 -0.9525 -1.0809
  155ccc     H7 4564   3.420   1.363   4.725  1.7727  1.6426 -1.8464
  155ccc     H8 4565   3.391   1.456   4.591 -0.5416 -0.9836 -1.2547
  155ccc     C5 4566   3.492   1.262   4.541  0.2145 -0.1608 -0.7636
  155ccc     H9 4567   3.466   1.156   4.554 -1.3276  0.1711 -0.8760
  155ccc    H10 4568   3.470   1.273   4.434 -2.0770 -1.6103 -0.5062
  155ccc     C6 4569   3.639   1.289   4.558 -0.2803  0.3712  0.1245
  155ccc     O1 4570   3.681   1.405   4.583  0.4785  0.4004 -0.0102
  155ccc     O2 4571   3.724   1.184   4.534  0.3165  0.4725 -0.0404
  155ccc    H11 4572   3.667   1.105   4.532  1.4981 -0.4829  1.5214
  155ccc     C7 4573   3.162   1.372   4.704  0.7197  0.7137 -0.0213
  155ccc    H12 4574   3.074   1.307   4.707  2.4404 -1.8463 -1.6348
  155ccc    H13 4575   3.217   1.370   4.799  2.0713  0.5183 -0.7826
  155ccc     C8 4576   3.116   1.521   4.686  0.1415  0.6035 -0.0096
  155ccc    H14 4577   3.199   1.586   4.654  1.1515 -1.1361 -1.0674
  155ccc    H15 4578   3.043   1.525   4.604  2.7946  0.7834 -2.5608
  155ccc     C9 4579   3.044   1.573   4.814 -0.4706 -0.9473  0.4515
  155ccc     O3 4580   2.930   1.605   4.816  0.2760  0.5080  0.0766
  155ccc     O4 4581   3.131   1.612   4.905  0.1483  0.2445 -0.2261
  155ccc    H16 4582   3.218   1.587   4.869 -0.3074 -0.6980 -0.7123
  155ccc     O5 4583   3.165   1.320   4.199  0.2202  0.5627  0.0155
  156ccc     C1 4584   1.665   1.501   4.377  0.2375 -0.6283 -0.2701
  156ccc     H1 4585   1.582   1.431   4.393  0.4642 -0.7103  0.6305
  156ccc     H2 4586   1.753   1.469   4.435  1.2400  1.8633 -0.3163
  156ccc     C2 4587   1.623   1.646   4.422 -0.3633  0.3857  0.9831
  156ccc     H3 4588   1.578   1.662   4.521 -0.9330  3.7325  0.3162
  156ccc     H4 4589   1.537   1.680   4.364 -0.3580  1.4468  1.5678
  156ccc     C3 4590   1.745   1.741   4.395 -0.4159  0.1885 -0.1467
  156ccc     H5 4591   1.800   1.704   4.308  0.2159 -1.2025  0.8129
  156ccc     H6 4592   1.813   1.737   4.480  1.1452 -0.4421 -1.3760
  156ccc     N1 4593   1.705   1.885   4.382 -0.4318  0.6493 -0.2797
  156ccc     C4 4594   1.607   1.929   4.491 -0.2797  0.1207 -0.2904
  156ccc     H7 4595   1.651   1.931   4.592 -1.5881 -0.2508  0.3129
  156ccc     H8 4596   1.529   1.854   4.509 -0.9969  0.8095 -0.4900
  156ccc     C5 4597   1.525   2.057   4.455 -0.0340  0.4848 -0.5437
  156ccc     H9 4598   1.585   2.144   4.429  2.3204 -0.8931  0.0174
  156ccc    H10 4599   1.479   2.038   4.357 -0.8516  0.3342 -0.1429
  156ccc     C6 4600   1.420   2.099   4.554  0.0108 -0.3621 -0.5430
  156ccc     O1 4601   1.414   2.054   4.669  0.2830 -0.0864 -0.6165
  156ccc     O2 4602   1.359   2.210   4.515 -0.2052  0.1881  0.4465
  156ccc    H11 4603   1.377   2.212   4.419  0.1962  0.8983  0.5336
  156ccc     C7 4604   1.821   1.977   4.377  0.4021  0.2778  0.2615
  156ccc    H12 4605   1.778   2.077   4.365  0.4892  0.4465  1.2755
  156ccc    H13 4606   1.873   1.984   4.473 -2.1828  2.8372  1.6470
  156ccc     C8 4607   1.923   1.958   4.259 -0.1555 -0.2943 -0.1367
  156ccc    H14 4608   1.958   1.855   4.249 -2.6990 -1.1411 -0.9865
  156ccc    H15 4609   1.862   1.982   4.172 -1.1983 -1.4835  0.2387
  156ccc     C9 4610   2.040   2.058   4.268  0.1079 -0.2486 -0.4363
  156ccc     O3 4611   2.038   2.159   4.334 -0.1650  0.3515 -0.1044
  156ccc     O4 4612   2.139   2.039   4.182 -0.2900  0.3981 -0.4307
  156ccc    H16 4613   2.112   1.957   4.138 -1.7324  0.8686 -0.4834
  156ccc     O5 4614   1.696   1.509   4.232  0.3077 -0.0112 -0.2424
  157ccc     C1 4615   1.936   0.663   4.074 -0.0925 -0.3537 -0.6184
  157ccc     H1 4616   1.956   0.713   3.978  0.8521  0.7234  0.1186
  157ccc     H2 4617   2.021   0.594   4.080 -0.1443 -0.3967 -0.3803
  157ccc     C2 4618   1.803   0.583   4.084  0.3733 -0.0243  0.1485
  157ccc     H3 4619   1.723   0.657   4.078 -0.4994 -0.7899  1.5919
  157ccc     H4 4620   1.789   0.556   4.189  0.4677  0.6020  0.3261
  157ccc     C3 4621   1.786   0.475   3.980 -1.0194 -0.2657 -0.6126
  157ccc     H5 4622   1.695   0.427   4.020 -1.5558  2.2215  1.4146
  157ccc     H6 4623   1.864   0.400   3.996  0.5506  1.7583  1.9670
  157ccc     N1 4624   1.793   0.515   3.830 -0.0023  0.0839 -0.1233
  157ccc     C4 4625   1.680   0.597   3.788 -0.5623  0.1471 -0.1500
  157ccc     H7 4626   1.696   0.677   3.861  2.1808 -0.6526  0.2614
  157ccc     H8 4627   1.582   0.550   3.797 -0.7883  0.7559  0.7047
  157ccc     C5 4628   1.708   0.663   3.643 -0.3296 -0.8621 -0.2989
  157ccc     H9 4629   1.814   0.690   3.645 -0.6662  0.5077  0.1316
  157ccc    H10 4630   1.681   0.592   3.564  0.1914 -0.4260 -0.8796
  157ccc     C6 4631   1.618   0.788   3.624 -0.9572  0.0028 -0.1047
  157ccc     O1 4632   1.528   0.816   3.696 -0.4024 -0.5990  0.0196
  157ccc     O2 4633   1.646   0.862   3.514  0.4773 -0.1769  0.0730
  157ccc    H11 4634   1.720   0.812   3.475 -1.0415 -2.0626 -0.5094
  157ccc     C7 4635   1.828   0.393   3.746 -0.6501  0.3490 -0.4392
  157ccc    H12 4636   1.851   0.425   3.643 -0.8011 -3.9314 -1.9841
  157ccc    H13 4637   1.929   0.361   3.777 -0.7034 -0.3898 -1.0145
  157ccc     C8 4638   1.728   0.277   3.751  0.6536 -0.6780  0.6231
  157ccc    H14 4639   1.695   0.246   3.851 -0.7096 -2.1474 -0.2343
  157ccc    H15 4640   1.641   0.314   3.696  1.4791  2.7533  1.4349
  157ccc     C9 4641   1.775   0.148   3.685  0.6367  0.4772 -0.6975
  157ccc     O3 4642   1.796   0.042   3.745 -0.2657 -0.1776  0.1218
  157ccc     O4 4643   1.781   0.153   3.551 -0.1552 -0.6255 -0.5902
  157ccc    H16 4644   1.784   0.247   3.528  1.3389 -0.0637  1.5606
  157ccc     O5 4645   1.940   0.758   4.185 -0.0620 -0.0367  0.0722
  158ccc     C1 4646   2.960  -0.472   3.792 -0.1355 -0.1298 -0.2843
  158ccc     H1 4647   3.043  -0.434   3.854 -0.2145  0.5717 -0.6114
  158ccc     H2 4648   2.887  -0.393   3.774  0.3001  0.3008 -0.1774
  158ccc     C2 4649   2.889  -0.595   3.863 -0.0381  0.0228 -0.1544
  158ccc     H3 4650   2.961  -0.675   3.881 -0.6502 -0.4764  0.1324
  158ccc     H4 4651   2.822  -0.644   3.791 -1.0179  0.4153  0.4606
  158ccc     C3 4652   2.809  -0.556   3.990 -0.6292  0.5274 -0.5175
  158ccc     H5 4653   2.721  -0.498   3.958 -1.3604  0.3616  1.0930
  158ccc     H6 4654   2.865  -0.491   4.058 -1.8814  1.5553 -0.4371
  158ccc     N1 4655   2.761  -0.663   4.080  0.2302  0.2464 -0.1979
  158ccc     C4 4656   2.657  -0.757   4.023  0.5023 -0.2822 -0.6074
  158ccc     H7 4657   2.634  -0.829   4.103 -0.3462  1.2413  0.5818
  158ccc     H8 4658   2.699  -0.805   3.934 -0.6780 -0.6662 -0.9753
  158ccc     C5 4659   2.525  -0.681   3.995 -0.0447  0.1763  0.5710
  158ccc     H9 4660   2.490  -0.627   4.084 -0.2282 -0.3727  0.8356
  158ccc    H10 4661   2.528  -0.608   3.913 -0.5564 -0.4080  0.0184
  158ccc     C6 4662   2.408  -0.782   3.967 -0.0673 -0.1033  0.4031
  158ccc     O1 4663   2.425  -0.901   3.961 -0.2557 -0.2184  0.2974
  158ccc     O2 4664   2.291  -0.729   3.972  0.6362 -1.0546  0.2657
  158ccc    H11 4665   2.321  -0.637   3.975  0.3493 -0.6780 -3.3933
  158ccc     C7 4666   2.866  -0.757   4.125  0.0462 -0.5461  0.0777
  158ccc    H12 4667   2.821  -0.837   4.185 -0.0887  1.3140  2.5924
  158ccc    H13 4668   2.910  -0.809   4.038  1.9854 -0.0663  0.7229
  158ccc     C8 4669   2.977  -0.687   4.217  0.1838 -0.0723  0.4259
  158ccc    H14 4670   3.037  -0.621   4.153  0.9439 -0.9803  0.1700
  158ccc    H15 4671   2.940  -0.623   4.298  1.5965  1.4133 -0.0449
  158ccc     C9 4672   3.075  -0.784   4.274  1.3072 -0.3625 -0.5499
  158ccc     O3 4673   3.138  -0.862   4.206  0.6427 -0.0136 -0.1917
  158ccc     O4 4674   3.089  -0.778   4.409 -0.3288 -0.2747  0.5456
  158ccc    H16 4675   3.163  -0.841   4.415 -0.0760 -0.0351 -0.0245
  158ccc     O5 4676   3.015  -0.519   3.667  0.4600  0.1706  0.4349
  159ccc     C1 4677   3.827  -0.152   3.534  0.0647 -0.2824 -0.0734
  159ccc     H1 4678   3.791  -0.256   3.530  1.1078 -0.7539  1.5627
  159ccc     H2 4679   3.900  -0.151   3.453  0.4230 -3.5996  0.0631
  159ccc     C2 4680   3.887  -0.136   3.680  0.2282 -0.1672  0.8145
  159ccc     H3 4681   3.891  -0.028   3.697 -1.2549  0.2753 -1.2608
  159ccc     H4 4682   3.988  -0.178   3.676 -0.2848 -1.3532 -1.1019
  159ccc     C3 4683   3.800  -0.193   3.792 -0.4218 -0.2892  0.6577
  159ccc     H5 4684   3.797  -0.301   3.770 -2.0280 -0.2319  0.5158
  159ccc     H6 4685   3.698  -0.154   3.787 -0.5157 -0.5404  0.6016
  159ccc     N1 4686   3.864  -0.176   3.928  0.1707 -0.1007  0.3847
  159ccc     C4 4687   3.798  -0.249   4.034 -0.5180  0.2046 -0.0768
  159ccc     H7 4688   3.696  -0.214   4.055 -0.0598  0.7037  1.4978
  159ccc     H8 4689   3.847  -0.239   4.132  1.2227  0.7689 -0.9906
  159ccc     C5 4690   3.786  -0.398   3.995 -0.3264 -0.5053  0.1232
  159ccc     H9 4691   3.714  -0.408   3.913 -0.7743 -1.9668  0.6703
  159ccc    H10 4692   3.888  -0.420   3.961  0.7887  4.8095 -0.9014
  159ccc     C6 4693   3.733  -0.480   4.106 -0.2064 -0.5152 -0.0427
  159ccc     O1 4694   3.651  -0.439   4.186  0.1609 -0.2477  0.1207
  159ccc     O2 4695   3.784  -0.605   4.117 -0.8121 -0.0178 -0.1634
  159ccc    H11 4696   3.844  -0.622   4.042 -0.0687 -0.1904  0.4440
  159ccc     C7 4697   3.883  -0.030   3.959 -0.2505 -0.6063 -0.0582
  159ccc    H12 4698   3.942   0.027   3.886  0.7334 -1.6197 -0.0744
  159ccc    H13 4699   3.784   0.014   3.976 -0.4502 -0.6030 -1.1673
  159ccc     C8 4700   3.976  -0.006   4.083 -0.6175 -0.3892  0.1325
  159ccc    H14 4701   3.934  -0.051   4.174  0.4330 -2.0973 -0.1741
  159ccc    H15 4702   4.068  -0.062   4.062 -1.4883 -0.9285 -2.6787
  159ccc     C9 4703   4.008   0.143   4.112 -0.3992 -0.1060  0.2655
  159ccc     O3 4704   3.927   0.232   4.081 -0.1562 -0.4054  0.6324
  159ccc     O4 4705   4.103   0.167   4.207  0.2106  0.1229 -0.1945
  159ccc    H16 4706   4.139   0.077   4.216 -0.8046 -0.2753  0.0272
  159ccc     O5 4707   3.701  -0.070   3.517 -1.0720  0.3412 -0.7473
  160ccc     C1 4708   2.772  -1.099   5.539 -0.6940 -0.1784 -0.9091
  160ccc     H1 4709   2.832  -1.168   5.600  1.5178  2.1789 -0.2522
  160ccc     H2 4710   2.696  -1.060   5.608 -1.4753 -2.1498 -0.5945
  160ccc     C2 4711   2.713  -1.166   5.422  0.6048 -0.1420  0.5323
  160ccc     H3 4712   2.769  -1.251   5.382 -1.2527 -0.9561 -0.4987
  160ccc     H4 4713   2.710  -1.095   5.339  0.6085  0.5301  1.1020
  160ccc     C3 4714   2.573  -1.223   5.469 -0.0819 -0.1185 -0.0533
  160ccc     H5 4715   2.514  -1.133   5.489  0.3059  0.5598 -1.8238
  160ccc     H6 4716   2.574  -1.270   5.568 -1.7629  3.2738  1.7477
  160ccc     N1 4717   2.518  -1.303   5.365  0.7783  0.0724 -0.0481
  160ccc     C4 4718   2.469  -1.247   5.241  0.2017  0.3289  0.0281
  160ccc     H7 4719   2.407  -1.322   5.189  2.0566 -0.2008 -1.5271
  160ccc     H8 4720   2.554  -1.232   5.174  0.4991  0.6289  0.4664
  160ccc     C5 4721   2.391  -1.112   5.252  0.9549 -0.0880  0.6986
  160ccc     H9 4722   2.329  -1.128   5.341 -0.5496  0.7400 -0.1489
  160ccc    H10 4723   2.450  -1.023   5.279 -0.9877  1.8213 -0.9428
  160ccc     C6 4724   2.291  -1.095   5.138  0.6130 -0.1877  0.0932
  160ccc     O1 4725   2.170  -1.126   5.142  0.0117  0.4443 -0.8215
  160ccc     O2 4726   2.337  -1.039   5.031 -0.3002 -1.0776 -0.2679
  160ccc    H11 4727   2.429  -1.016   5.052 -0.0134 -0.4354 -2.0797
  160ccc     C7 4728   2.592  -1.425   5.336 -0.3568  0.5039  0.2985
  160ccc    H12 4729   2.529  -1.494   5.280  0.0446  1.5159 -1.4796
  160ccc    H13 4730   2.667  -1.401   5.259 -0.8276 -0.0812 -0.3541
  160ccc     C8 4731   2.651  -1.516   5.449 -0.3978  0.5607  0.2128
  160ccc    H14 4732   2.735  -1.455   5.485 -0.3566  0.7245 -0.1519
  160ccc    H15 4733   2.589  -1.523   5.539 -0.7618  1.1812  0.0200
  160ccc     C9 4734   2.705  -1.658   5.409  0.2361 -0.9671 -0.1769
  160ccc     O3 4735   2.803  -1.679   5.336  0.3357 -0.1280  0.4344
  160ccc     O4 4736   2.633  -1.755   5.456 -0.1728  0.3504  0.1453
  160ccc    H16 4737   2.579  -1.715   5.527  1.4791 -0.4372  1.9157
  160ccc     O5 4738   2.873  -0.993   5.506 -0.3462  0.1125  0.3024
  161ccc     C1 4739   3.614  -1.342   5.460 -0.4705 -1.0198 -0.8259
  161ccc     H1 4740   3.706  -1.330   5.401  1.1803  0.4426  1.8708
  161ccc     H2 4741   3.644  -1.413   5.538  0.8291 -0.0241 -0.3770
  161ccc     C2 4742   3.495  -1.392   5.375  0.3666  0.4535  0.2180
  161ccc     H3 4743   3.533  -1.482   5.324  3.4893  0.5644  2.0801
  161ccc     H4 4744   3.472  -1.319   5.296  0.1922 -1.0382 -1.1668
  161ccc     C3 4745   3.368  -1.428   5.448 -0.1960 -0.4538  0.0548
  161ccc     H5 4746   3.338  -1.342   5.508  1.5940  1.2558 -1.3616
  161ccc     H6 4747   3.380  -1.503   5.527 -1.3098 -0.2729  0.4052
  161ccc     N1 4748   3.266  -1.479   5.352  0.2601 -0.5773 -0.6815
  161ccc     C4 4749   3.190  -1.600   5.407 -0.3934  0.0465 -0.0802
  161ccc     H7 4750   3.274  -1.661   5.443 -0.2764 -0.3724 -1.0251
  161ccc     H8 4751   3.146  -1.666   5.330  1.6503 -1.1674 -0.2831
  161ccc     C5 4752   3.091  -1.573   5.515  0.1557 -0.3528  0.0322
  161ccc     H9 4753   3.127  -1.505   5.593 -0.6813 -2.0411  1.9855
  161ccc    H10 4754   3.007  -1.516   5.474  0.0813  0.1375  0.8450
  161ccc     C6 4755   3.042  -1.699   5.589  0.1771 -1.0257 -0.0179
  161ccc     O1 4756   3.065  -1.813   5.563 -0.3586 -0.2486 -0.0502
  161ccc     O2 4757   2.962  -1.669   5.695  0.0287 -0.4427  0.1199
  161ccc    H11 4758   2.947  -1.573   5.685  2.1430 -0.1552 -0.6799
  161ccc     C7 4759   3.185  -1.377   5.288 -0.2797  0.3749  0.1530
  161ccc    H12 4760   3.123  -1.325   5.362  1.2915  0.5267  1.4105
  161ccc    H13 4761   3.254  -1.308   5.239  0.0829 -0.3763 -0.4143
  161ccc     C8 4762   3.093  -1.441   5.176 -0.7116 -0.6656 -0.1833
  161ccc    H14 4763   3.146  -1.478   5.087  1.2346  0.8294  0.2905
  161ccc    H15 4764   3.032  -1.524   5.215 -0.1258 -1.4258 -0.8444
  161ccc     C9 4765   3.010  -1.332   5.107 -0.0958  0.1225 -0.4209
  161ccc     O3 4766   3.000  -1.217   5.142 -0.1790  0.7727  0.3817
  161ccc     O4 4767   2.923  -1.385   5.024  0.9105 -0.2807  0.5367
  161ccc    H16 4768   2.922  -1.482   5.032 -0.5222 -0.3118  0.1949
  161ccc     O5 4769   3.580  -1.216   5.532 -0.7020  0.3615  0.2262
  162ccc     C1 4770   3.691   0.154   4.304 -0.8457 -0.0266  1.1050
  162ccc     H1 4771   3.772   0.083   4.287  0.4024  1.7348 -0.7812
  162ccc     H2 4772   3.703   0.225   4.221 -2.9347 -0.3137  0.4983
  162ccc     C2 4773   3.727   0.224   4.434  0.2621 -0.0978  0.1250
  162ccc     H3 4774   3.739   0.140   4.503  0.2119 -0.6779 -0.5598
  162ccc     H4 4775   3.647   0.296   4.454 -0.4051 -0.2110 -1.9226
  162ccc     C3 4776   3.866   0.286   4.427  0.1157  0.5761  0.3590
  162ccc     H5 4777   3.863   0.377   4.366  0.7505  0.4962  0.2029
  162ccc     H6 4778   3.933   0.232   4.360 -1.6040  0.2276 -1.1424
  162ccc     N1 4779   3.923   0.327   4.560 -0.1876 -0.1285 -0.2828
  162ccc     C4 4780   3.968   0.213   4.642 -0.8217  0.7812 -0.4113
  162ccc     H7 4781   3.892   0.146   4.682 -0.7561  0.8169 -0.2254
  162ccc     H8 4782   4.020   0.257   4.728 -1.4643  1.1337 -0.1942
  162ccc     C5 4783   4.059   0.114   4.561 -0.1976 -0.1784 -0.5609
  162ccc     H9 4784   4.001   0.072   4.478 -1.4129  1.5058 -0.6248
  162ccc    H10 4785   4.144   0.159   4.510 -1.0677  1.7906 -0.3817
  162ccc     C6 4786   4.104  -0.003   4.652 -0.0220  0.5602  0.6116
  162ccc     O1 4787   4.064  -0.031   4.765  0.4378  0.0223  0.1062
  162ccc     O2 4788   4.184  -0.090   4.592 -0.9203 -0.0432  0.4686
  162ccc    H11 4789   4.198  -0.043   4.508  2.2766  1.3642  1.6068
  162ccc     C7 4790   3.830   0.427   4.628  0.4088 -0.3726 -0.8929
  162ccc    H12 4791   3.726   0.392   4.622 -0.0042  0.0403  2.1460
  162ccc    H13 4792   3.854   0.431   4.735 -1.3569 -2.1699 -0.3642
  162ccc     C8 4793   3.833   0.569   4.574 -0.4139  0.4345  0.4412
  162ccc    H14 4794   3.820   0.579   4.466 -1.3260 -0.0089  0.5020
  162ccc    H15 4795   3.745   0.607   4.628  0.9639  1.1381  2.2985
  162ccc     C9 4796   3.954   0.657   4.616 -0.0453 -0.0997 -0.4582
  162ccc     O3 4797   4.018   0.648   4.718 -0.8147  0.2347 -0.2262
  162ccc     O4 4798   3.979   0.759   4.538  0.3464  0.3291 -0.0673
  162ccc    H16 4799   3.911   0.763   4.470  1.7408  1.6167 -1.4586
  162ccc     O5 4800   3.560   0.096   4.321 -0.4575 -0.2027  0.0193
  163ccc     C1 4801   2.713  -0.197   3.998  0.2569  0.2690 -1.0194
  163ccc     H1 4802   2.681  -0.230   3.899  1.6174 -0.8307 -1.1288
  163ccc     H2 4803   2.748  -0.274   4.068  0.0942 -0.6166 -1.8950
  163ccc     C2 4804   2.589  -0.123   4.050 -0.0746  0.2805  0.0070
  163ccc     H3 4805   2.505  -0.190   4.070  0.2706  0.2067  1.2431
  163ccc     H4 4806   2.553  -0.062   3.966  2.1724  0.2222 -1.0811
  163ccc     C3 4807   2.612  -0.037   4.182 -0.1941 -0.6262  0.6587
  163ccc     H5 4808   2.713   0.006   4.177 -0.0389 -1.1070 -0.4225
  163ccc     H6 4809   2.622  -0.105   4.268 -0.9865 -2.3669 -0.5774
  163ccc     N1 4810   2.505   0.068   4.193 -0.3472  0.5326 -0.2646
  163ccc     C4 4811   2.500   0.175   4.101 -1.2016  0.6980  0.5326
  163ccc     H7 4812   2.446   0.259   4.146  0.1697  2.8097 -1.5002
  163ccc     H8 4813   2.437   0.136   4.020  1.4969 -1.2433 -0.7822
  163ccc     C5 4814   2.638   0.218   4.042  0.5587  0.2789  0.4744
  163ccc     H9 4815   2.709   0.254   4.118 -1.0623  1.5060  1.4998
  163ccc    H10 4816   2.690   0.137   3.990  2.3095  2.3473 -1.2018
  163ccc     C6 4817   2.623   0.340   3.956  0.0029  1.0522  0.1994
  163ccc     O1 4818   2.564   0.441   3.991 -0.0403  0.7673  0.2105
  163ccc     O2 4819   2.706   0.342   3.857  0.5265 -0.8120  0.0661
  163ccc    H11 4820   2.737   0.250   3.858  0.9884 -0.7574  3.5534
  163ccc     C7 4821   2.379   0.016   4.231  0.5529 -0.5230 -0.1982
  163ccc    H12 4822   2.308   0.100   4.227 -0.9569 -1.7938 -1.6412
  163ccc    H13 4823   2.343  -0.053   4.154  2.0459 -0.4153 -1.0288
  163ccc     C8 4824   2.384  -0.048   4.374  0.1712 -0.9021  0.5704
  163ccc    H14 4825   2.446  -0.138   4.374  3.5469  1.1063 -2.5155
  163ccc    H15 4826   2.447   0.024   4.428 -1.3331  0.5981  0.4026
  163ccc     C9 4827   2.250  -0.066   4.442  0.0810  0.2032  0.5928
  163ccc     O3 4828   2.152  -0.110   4.384  0.2308  0.0899 -0.3623
  163ccc     O4 4829   2.241  -0.020   4.569  0.0624 -0.2031  0.0195
  163ccc    H16 4830   2.318   0.031   4.599  0.6811 -1.9289  1.5275
  163ccc     O5 4831   2.820  -0.099   3.977 -0.2669  0.3067  0.4736
  164ccc     C1 4832   3.351   1.229   5.089 -0.6993 -0.0894 -1.0142
  164ccc     H1 4833   3.348   1.138   5.027  1.4588 -0.1107 -1.1588
  164ccc     H2 4834   3.397   1.201   5.185 -1.6071  2.9944  0.4253
  164ccc     C2 4835   3.202   1.267   5.111  0.4068 -0.4144 -0.2397
  164ccc     H3 4836   3.149   1.171   5.114  1.0482 -0.7511  1.5229
  164ccc     H4 4837   3.158   1.315   5.022  0.4457  0.3166  0.1359
  164ccc     C3 4838   3.167   1.362   5.226  0.0115 -0.2870 -0.0283
  164ccc     H5 4839   3.067   1.405   5.216  0.4847  0.8970  0.1743
  164ccc     H6 4840   3.233   1.449   5.219  0.4179 -0.4092  1.9134
  164ccc     N1 4841   3.184   1.283   5.353  0.1175 -0.0126 -0.3621
  164ccc     C4 4842   3.203   1.372   5.476 -0.4146 -0.5586 -0.7038
  164ccc     H7 4843   3.183   1.312   5.566  0.9441  0.1590  0.0964
  164ccc     H8 4844   3.133   1.456   5.469  1.1905  0.7394 -1.7830
  164ccc     C5 4845   3.352   1.430   5.489  0.1322  0.1343  0.2628
  164ccc     H9 4846   3.370   1.514   5.422  2.3234  1.4904  2.3955
  164ccc    H10 4847   3.359   1.485   5.583 -1.6436 -3.9740  3.0788
  164ccc     C6 4848   3.458   1.325   5.497  0.3518 -0.3390  0.3442
  164ccc     O1 4849   3.519   1.291   5.399 -0.2097  0.0115  0.3639
  164ccc     O2 4850   3.476   1.261   5.616  0.3692 -0.1637  0.4450
  164ccc    H11 4851   3.390   1.277   5.659 -0.5912  2.7799 -2.2502
  164ccc     C7 4852   3.089   1.175   5.377  0.1119  0.3589 -0.0945
  164ccc    H12 4853   3.080   1.103   5.294  1.9023 -1.7847  1.4418
  164ccc    H13 4854   3.125   1.105   5.452 -2.5292 -0.2611  0.7205
  164ccc     C8 4855   2.951   1.220   5.424 -0.1987  0.0087  0.4252
  164ccc    H14 4856   2.954   1.278   5.517 -0.0810 -0.0499  0.4574
  164ccc    H15 4857   2.908   1.286   5.349  1.3253  1.4087  0.7380
  164ccc     C9 4858   2.849   1.112   5.450 -0.2413 -0.6181 -0.2010
  164ccc     O3 4859   2.858   0.995   5.407  0.0325 -0.5992  0.1294
  164ccc     O4 4860   2.741   1.158   5.517  0.1861  0.1942 -0.6742
  164ccc    H16 4861   2.742   1.256   5.513  0.9063  0.2657  0.5365
  164ccc     O5 4862   3.422   1.334   5.031  0.1240 -0.3383 -0.7010
  165ccc     C1 4863   4.308   0.984   4.893  0.4954  0.0694  0.4574
  165ccc     H1 4864   4.249   0.976   4.985 -0.9492 -0.3216 -0.4617
  165ccc     H2 4865   4.329   0.887   4.846 -0.1105 -0.1039  0.5314
  165ccc     C2 4866   4.448   1.043   4.916  0.4392 -0.0319 -0.0669
  165ccc     H3 4867   4.443   1.145   4.955 -2.6852  0.3737 -1.2383
  165ccc     H4 4868   4.480   1.063   4.814 -1.6801  3.2320 -0.2454
  165ccc     C3 4869   4.550   0.956   4.992  0.3471  0.9600 -0.1356
  165ccc     H5 4870   4.646   1.009   4.994  0.1951  1.2593 -0.4294
  165ccc     H6 4871   4.561   0.873   4.921  3.0726 -1.5156  2.9132
  165ccc     N1 4872   4.509   0.900   5.116  0.4965  0.1270 -0.1913
  165ccc     C4 4873   4.459   0.992   5.224 -0.2542  0.1768  0.1686
  165ccc     H7 4874   4.443   0.923   5.308  0.2732 -0.9501 -0.6426
  165ccc     H8 4875   4.369   1.038   5.181 -0.0475 -0.1288 -0.6099
  165ccc     C5 4876   4.558   1.104   5.252 -0.0716 -0.0440  0.0665
  165ccc     H9 4877   4.658   1.060   5.256 -0.4108 -0.8592 -0.2274
  165ccc    H10 4878   4.549   1.183   5.176  0.1860 -0.8871 -0.8572
  165ccc     C6 4879   4.523   1.169   5.386 -0.6162  0.4854  0.4770
  165ccc     O1 4880   4.422   1.155   5.450 -0.4241  0.3453  0.5465
  165ccc     O2 4881   4.623   1.241   5.439 -0.2756  0.1037 -0.3721
  165ccc    H11 4882   4.688   1.237   5.366 -1.0401 -0.2887 -1.0558
  165ccc     C7 4883   4.619   0.808   5.164 -0.0320 -0.2382  0.3124
  165ccc    H12 4884   4.703   0.872   5.194 -0.3274  0.1078  0.4027
  165ccc    H13 4885   4.586   0.768   5.261  0.2253  1.9886  1.4045
  165ccc     C8 4886   4.679   0.699   5.071  0.0815 -0.1990 -0.2049
  165ccc    H14 4887   4.601   0.644   5.017  0.2592 -1.0705  0.4017
  165ccc    H15 4888   4.745   0.739   4.993 -0.8546 -1.1335 -1.5152
  165ccc     C9 4889   4.764   0.598   5.147  0.0592 -0.2554 -0.7476
  165ccc     O3 4890   4.827   0.639   5.246  0.2076 -0.0274 -0.5056
  165ccc     O4 4891   4.735   0.471   5.122 -0.2852 -0.7880 -0.2485
  165ccc    H16 4892   4.683   0.481   5.040  1.8257  2.2169 -1.4025
  165ccc     O5 4893   4.233   1.066   4.800  0.6272 -0.6064 -0.1899
  166ccc     C1 4894   0.922  -0.832   4.898 -0.1576  0.4407 -0.2844
  166ccc     H1 4895   0.887  -0.870   4.995 -0.6724  0.8702 -0.2992
  166ccc     H2 4896   1.009  -0.766   4.911  3.0292 -3.0522 -1.8976
  166ccc     C2 4897   0.801  -0.761   4.831 -0.4723  0.1419  0.3722
  166ccc     H3 4898   0.776  -0.669   4.885  0.8963  1.4499 -1.1242
  166ccc     H4 4899   0.710  -0.823   4.831  0.3753 -1.1849 -1.4310
  166ccc     C3 4900   0.825  -0.719   4.686  0.8898 -0.1590 -0.5739
  166ccc     H5 4901   0.849  -0.798   4.612 -0.6499 -0.4035 -0.8459
  166ccc     H6 4902   0.913  -0.653   4.683  0.1876  0.7547 -1.5777
  166ccc     N1 4903   0.707  -0.652   4.630  0.4981 -0.2856 -0.3635
  166ccc     C4 4904   0.736  -0.582   4.496  0.3369 -0.1032 -0.3370
  166ccc     H7 4905   0.729  -0.654   4.414 -0.0185  1.3114 -1.5839
  166ccc     H8 4906   0.841  -0.550   4.492  0.4684 -0.6672 -2.5026
  166ccc     C5 4907   0.636  -0.462   4.473 -0.1863 -0.6680 -0.4068
  166ccc     H9 4908   0.536  -0.495   4.442 -0.6711  1.9793 -1.9986
  166ccc    H10 4909   0.622  -0.406   4.566  2.2895  1.5777 -1.2732
  166ccc     C6 4910   0.695  -0.370   4.360 -0.2033 -0.4401  0.0146
  166ccc     O1 4911   0.802  -0.383   4.311 -0.0865 -0.1737 -0.2471
  166ccc     O2 4912   0.617  -0.264   4.337 -1.0318  0.1200  0.2762
  166ccc    H11 4913   0.546  -0.273   4.402 -1.8708 -2.1102 -0.8218
  166ccc     C7 4914   0.574  -0.726   4.633  0.2824 -0.4874  0.7464
  166ccc    H12 4915   0.536  -0.741   4.735  0.5318 -1.3762  0.7179
  166ccc    H13 4916   0.494  -0.663   4.592  0.7339 -0.4857 -0.1686
  166ccc     C8 4917   0.574  -0.856   4.548 -0.0208  0.4032 -0.3732
  166ccc    H14 4918   0.589  -0.846   4.440 -1.2995 -0.0554 -0.6071
  166ccc    H15 4919   0.655  -0.919   4.588 -1.1178 -1.3550 -0.8236
  166ccc     C9 4920   0.448  -0.938   4.573  0.0702  0.4431 -0.1728
  166ccc     O3 4921   0.431  -1.013   4.668  0.3841 -0.0516 -0.3958
  166ccc     O4 4922   0.363  -0.924   4.471  0.8350  0.0101 -0.2750
  166ccc    H16 4923   0.406  -0.847   4.431  3.5548 -0.8050  0.8501
  166ccc     O5 4924   0.953  -0.948   4.814 -0.0155  0.4038  0.2718
  167ccc     C1 4925   1.175  -0.391   4.270  0.5319 -0.6999 -0.3935
  167ccc     H1 4926   1.121  -0.323   4.338  4.2670  0.4143  1.7509
  167ccc     H2 4927   1.275  -0.351   4.290 -0.9090  2.5188  1.0564
  167ccc     C2 4928   1.134  -0.379   4.124  0.2406  0.7818  0.3132
  167ccc     H3 4929   1.035  -0.425   4.115  1.3959 -2.1988  1.4449
  167ccc     H4 4930   1.202  -0.445   4.068 -1.1646 -2.0977  1.7477
  167ccc     C3 4931   1.141  -0.242   4.068 -0.3834  0.5995 -0.6833
  167ccc     H5 4932   1.133  -0.252   3.960  0.7691  2.1131 -0.9400
  167ccc     H6 4933   1.233  -0.189   4.098 -0.1034  0.0704 -0.6054
  167ccc     N1 4934   1.036  -0.155   4.118 -0.4026 -0.2725  0.4496
  167ccc     C4 4935   1.071  -0.012   4.120  0.5754 -0.4423 -0.2624
  167ccc     H7 4936   1.065   0.023   4.016  2.2477  1.3592  0.1875
  167ccc     H8 4937   1.173  -0.005   4.157  0.7296 -2.4929 -0.1844
  167ccc     C5 4938   0.978   0.074   4.206  0.0547 -0.6387 -0.0390
  167ccc     H9 4939   0.908   0.127   4.141 -1.3824 -0.3301  1.6463
  167ccc    H10 4940   0.917   0.015   4.276  0.6044 -0.9674  0.1727
  167ccc     C6 4941   1.039   0.184   4.302 -0.3667 -0.6595 -0.2093
  167ccc     O1 4942   1.158   0.216   4.304  0.0615 -0.3614  0.0864
  167ccc     O2 4943   0.952   0.245   4.384  0.3531  0.5817 -0.0468
  167ccc    H11 4944   0.865   0.203   4.377 -0.5261  2.4413 -1.2256
  167ccc     C7 4945   0.897  -0.182   4.070 -0.4896 -0.4769  1.0310
  167ccc    H12 4946   0.885  -0.291   4.078  0.4893 -0.6850 -0.0179
  167ccc    H13 4947   0.831  -0.133   4.142 -2.9578  1.3808 -2.2218
  167ccc     C8 4948   0.863  -0.132   3.928 -0.2822 -0.0508  0.4044
  167ccc    H14 4949   0.897  -0.029   3.910 -0.7912 -0.1482 -1.3362
  167ccc    H15 4950   0.919  -0.198   3.860  0.6542  0.7862  0.3358
  167ccc     C9 4951   0.718  -0.143   3.889  0.5396 -0.0995 -0.3150
  167ccc     O3 4952   0.629  -0.215   3.937 -0.4231 -0.1777 -0.3718
  167ccc     O4 4953   0.688  -0.070   3.778 -0.2316 -0.1563 -0.0523
  167ccc    H16 4954   0.772  -0.027   3.754 -0.0728 -0.3227  0.1963
  167ccc     O5 4955   1.173  -0.534   4.301  0.0774  0.3217  0.2811
  168ccc     C1 4956   1.639  -1.535   5.329  0.6330  0.2923 -0.2635
  168ccc     H1 4957   1.577  -1.611   5.377  0.5206  0.3397 -0.3337
  168ccc     H2 4958   1.606  -1.434   5.354 -1.9514 -0.2619 -1.1755
  168ccc     C2 4959   1.635  -1.559   5.174 -0.0227  0.1154 -0.1370
  168ccc     H3 4960   1.529  -1.573   5.147 -0.3786  0.7115  0.8821
  168ccc     H4 4961   1.687  -1.654   5.157 -0.9945 -0.3661 -0.5027
  168ccc     C3 4962   1.713  -1.454   5.093 -0.2653 -0.4403  0.7986
  168ccc     H5 4963   1.742  -1.485   4.992  2.6382  1.4186  0.9329
  168ccc     H6 4964   1.809  -1.439   5.145  1.4439  2.3152 -2.6677
  168ccc     N1 4965   1.651  -1.319   5.080 -0.4093  0.5530  0.0306
  168ccc     C4 4966   1.738  -1.210   5.021  0.2299  0.0614 -0.0835
  168ccc     H7 4967   1.671  -1.124   5.005  0.4474 -0.0428 -1.6977
  168ccc     H8 4968   1.775  -1.254   4.928 -1.0815 -1.6045  0.1249
  168ccc     C5 4969   1.857  -1.190   5.120  0.1183 -0.4043 -0.4568
  168ccc     H9 4970   1.929  -1.272   5.125  1.5536  0.8487  0.5062
  168ccc    H10 4971   1.896  -1.094   5.085 -2.5376  1.0733  0.3402
  168ccc     C6 4972   1.822  -1.151   5.267  0.3974 -0.0886 -0.1093
  168ccc     O1 4973   1.711  -1.117   5.308 -0.2091 -0.1140  0.4738
  168ccc     O2 4974   1.923  -1.167   5.358 -0.0389 -0.1234  0.8423
  168ccc    H11 4975   1.994  -1.191   5.296 -1.6989 -0.2951 -1.1198
  168ccc     C7 4976   1.517  -1.321   5.032 -0.5183  0.1374  0.2585
  168ccc    H12 4977   1.455  -1.385   5.097 -0.9322 -1.4874 -1.6437
  168ccc    H13 4978   1.467  -1.223   5.033 -0.7938  0.0405  2.4171
  168ccc     C8 4979   1.507  -1.365   4.886  0.1436 -0.1696  0.0681
  168ccc    H14 4980   1.553  -1.295   4.814  0.7485 -0.3434  0.2760
  168ccc    H15 4981   1.568  -1.454   4.868  0.5686  0.2928 -0.8633
  168ccc     C9 4982   1.361  -1.390   4.842 -0.4088  0.2804  0.1497
  168ccc     O3 4983   1.271  -1.338   4.898  0.0193  0.0201  0.1511
  168ccc     O4 4984   1.343  -1.500   4.766  0.3281  0.1498  0.2660
  168ccc    H16 4985   1.434  -1.524   4.738  0.3797  2.2740 -1.6533
  168ccc     O5 4986   1.774  -1.563   5.373 -0.0266  0.1182  0.4393
  169ccc     C1 4987   2.356  -1.059   5.754 -0.2241 -0.2223 -0.7022
  169ccc     H1 4988   2.463  -1.064   5.730  0.4114  2.9478  0.8530
  169ccc     H2 4989   2.306  -1.038   5.659  0.2831 -0.5725 -1.0510
  169ccc     C2 4990   2.347  -0.951   5.863  0.4689  0.2997  0.7558
  169ccc     H3 4991   2.401  -0.981   5.953 -0.6947  1.4537  1.8774
  169ccc     H4 4992   2.241  -0.934   5.886  0.7172  1.3263  1.1814
  169ccc     C3 4993   2.424  -0.821   5.821  0.0794 -0.1479 -0.0343
  169ccc     H5 4994   2.531  -0.846   5.817  0.3391  0.9281 -0.2290
  169ccc     H6 4995   2.417  -0.745   5.899  0.5290 -0.7504  0.6008
  169ccc     N1 4996   2.383  -0.765   5.690 -0.3943 -0.0864  0.2568
  169ccc     C4 4997   2.492  -0.682   5.619 -0.2243 -0.0876 -0.2151
  169ccc     H7 4998   2.524  -0.606   5.691 -3.6540 -0.9267  2.4581
  169ccc     H8 4999   2.444  -0.627   5.537 -2.0967 -0.3580  0.6476
  169ccc     C5 5000   2.616  -0.755   5.560 -0.4037  0.9208 -0.0896
  169ccc     H9 5001   2.671  -0.808   5.638  0.1816 -1.0461 -1.7343
  169ccc    H10 5002   2.582  -0.837   5.495  0.9432  0.8506 -0.7330
  169ccc     C6 5003   2.714  -0.672   5.475  0.5715  0.0408 -0.1236
  169ccc     O1 5004   2.705  -0.553   5.471 -0.9716 -0.1123 -0.4329
  169ccc     O2 5005   2.819  -0.738   5.421  0.0648 -0.4970  0.3561
  169ccc    H11 5006   2.803  -0.830   5.450 -0.6804 -0.2330  0.7861
  169ccc     C7 5007   2.258  -0.689   5.707 -0.4229 -0.2436  1.0399
  169ccc    H12 5008   2.188  -0.736   5.778  0.8630 -1.5291  1.5123
  169ccc    H13 5009   2.288  -0.593   5.750  1.3208 -0.4225  0.2758
  169ccc     C8 5010   2.176  -0.662   5.580 -0.4471 -0.1078 -0.3745
  169ccc    H14 5011   2.242  -0.613   5.508  0.6333  0.3392  0.8798
  169ccc    H15 5012   2.134  -0.754   5.536  0.6992 -0.1573 -1.4176
  169ccc     C9 5013   2.056  -0.566   5.598 -0.4266  0.5085  0.3428
  169ccc     O3 5014   1.957  -0.601   5.660 -0.5047  0.2278  0.2271
  169ccc     O4 5015   2.065  -0.444   5.535 -0.5584 -0.2991 -0.1125
  169ccc    H16 5016   2.137  -0.445   5.470 -2.0365 -0.1475 -1.8391
  169ccc     O5 5017   2.306  -1.182   5.811  0.6157 -0.5771  0.0997
  170ccc     C1 5018   1.754   1.074   4.576  0.5371  0.1047 -0.3328
  170ccc     H1 5019   1.765   0.980   4.631 -0.4435 -0.1994 -0.6417
  170ccc     H2 5020   1.851   1.104   4.533  0.9386  1.7781  1.6015
  170ccc     C2 5021   1.722   1.202   4.664  0.0164  0.6814 -0.8354
  170ccc     H3 5022   1.613   1.192   4.674  0.0047  0.2522 -1.3621
  170ccc     H4 5023   1.744   1.292   4.607 -0.9881  0.9773 -0.7843
  170ccc     C3 5024   1.794   1.196   4.804  0.3692 -0.7716 -0.7594
  170ccc     H5 5025   1.902   1.209   4.789  0.4982  1.1679  1.3212
  170ccc     H6 5026   1.776   1.094   4.839  0.6350 -1.2227 -1.8995
  170ccc     N1 5027   1.741   1.301   4.896 -0.3233 -0.6096 -0.0978
  170ccc     C4 5028   1.787   1.287   5.039  0.4526 -0.1809 -0.3833
  170ccc     H7 5029   1.764   1.375   5.100 -1.7410 -1.9016  1.4605
  170ccc     H8 5030   1.895   1.270   5.044  0.1314 -2.4581 -0.1789
  170ccc     C5 5031   1.702   1.179   5.110  0.1561  0.8917  0.0655
  170ccc     H9 5032   1.599   1.217   5.116  0.4536  1.6059  0.8356
  170ccc    H10 5033   1.694   1.089   5.049  0.5682 -0.2982  1.6883
  170ccc     C6 5034   1.752   1.143   5.245 -0.2863  0.0311  0.5350
  170ccc     O1 5035   1.765   1.215   5.341  0.4535 -0.4104 -0.1731
  170ccc     O2 5036   1.791   1.013   5.247 -0.0851 -0.5323 -0.4211
  170ccc    H11 5037   1.794   0.982   5.155 -2.6505  0.0828 -0.7910
  170ccc     C7 5038   1.759   1.445   4.856 -0.1587 -0.5563 -0.5598
  170ccc    H12 5039   1.701   1.470   4.766  1.1624 -0.4227 -1.3978
  170ccc    H13 5040   1.717   1.507   4.936 -0.1658 -0.1778 -0.8561
  170ccc     C8 5041   1.910   1.484   4.843 -0.9146 -0.1891  0.1149
  170ccc    H14 5042   1.965   1.458   4.934 -0.1696  1.0559  0.0370
  170ccc    H15 5043   1.955   1.422   4.764 -0.6473  0.7784 -0.4963
  170ccc     C9 5044   1.929   1.626   4.803 -0.5582  0.2408  0.3463
  170ccc     O3 5045   1.889   1.668   4.693  0.3645 -0.1516  0.2659
  170ccc     O4 5046   2.018   1.693   4.881  0.4731  0.2850 -0.0386
  170ccc    H16 5047   2.028   1.640   4.962 -0.5432 -0.2803 -0.2628
  170ccc     O5 5048   1.648   1.067   4.477 -0.4060 -0.1793  0.3837
  171ccc     C1 5049   0.917   0.969   4.642 -0.1950 -0.0300  0.0473
  171ccc     H1 5050   0.892   1.075   4.630  0.7173  0.6047  2.9810
  171ccc     H2 5051   0.839   0.901   4.604 -0.7815 -0.1055  1.3353
  171ccc     C2 5052   0.916   0.952   4.798 -0.1784  0.3948 -0.9342
  171ccc     H3 5053   1.004   1.007   4.833  1.8644 -2.8997 -0.5260
  171ccc     H4 5054   0.932   0.845   4.813  0.5649  0.7577  1.1733
  171ccc     C3 5055   0.797   1.002   4.880  0.2228  0.2818  0.2450
  171ccc     H5 5056   0.703   0.972   4.832 -2.4529  1.8910  3.9222
  171ccc     H6 5057   0.802   1.112   4.877  0.7646  0.2545 -0.0081
  171ccc     N1 5058   0.790   0.953   5.021 -0.0065 -0.2729  0.1912
  171ccc     C4 5059   0.687   1.037   5.089 -0.2530 -0.0851  0.7751
  171ccc     H7 5060   0.667   1.000   5.190  0.9233 -0.3172  0.9294
  171ccc     H8 5061   0.593   1.045   5.033 -0.2385  3.2663  1.0044
  171ccc     C5 5062   0.725   1.188   5.103  0.6881  0.1579 -0.1827
  171ccc     H9 5063   0.820   1.196   5.158  0.7106  1.0906 -0.3349
  171ccc    H10 5064   0.734   1.240   5.007 -0.3982  0.0924 -0.3317
  171ccc     C6 5065   0.632   1.267   5.199  0.7013  0.4825 -0.3011
  171ccc     O1 5066   0.530   1.332   5.170 -0.1989  0.2191 -0.1714
  171ccc     O2 5067   0.668   1.245   5.327 -0.1546  0.5040 -0.0493
  171ccc    H11 5068   0.730   1.170   5.330  1.8258  2.0823  0.2281
  171ccc     C7 5069   0.759   0.808   5.026  0.3719 -0.0661 -0.1214
  171ccc    H12 5070   0.650   0.796   5.020  0.1115  2.2799 -1.5370
  171ccc    H13 5071   0.795   0.751   4.940 -0.3995 -0.4498 -0.1963
  171ccc     C8 5072   0.820   0.756   5.157  0.1387 -0.2727  0.0979
  171ccc    H14 5073   0.923   0.776   5.188 -0.3658 -0.8655  2.3149
  171ccc    H15 5074   0.756   0.803   5.233 -1.1664  1.2273 -1.7957
  171ccc     C9 5075   0.793   0.616   5.184  0.5224 -0.6144 -1.1427
  171ccc     O3 5076   0.713   0.576   5.267 -0.4035  0.0856 -0.1766
  171ccc     O4 5077   0.880   0.529   5.134 -0.6977 -0.6673  0.1045
  171ccc    H16 5078   0.940   0.587   5.084 -1.2774 -0.4890 -0.3970
  171ccc     O5 5079   1.052   0.937   4.597 -0.2041 -0.0473 -0.5700
  172ccc     C1 5080   2.011   0.841   3.340  0.0456  0.4372 -0.7777
  172ccc     H1 5081   2.065   0.747   3.324 -0.2628  0.4244 -1.7952
  172ccc     H2 5082   2.012   0.905   3.251  0.1926  0.3592 -0.8317
  172ccc     C2 5083   2.057   0.905   3.472 -0.4023  0.3710  0.1828
  172ccc     H3 5084   2.162   0.919   3.441 -0.6002  0.2410 -0.5737
  172ccc     H4 5085   2.049   0.841   3.561  2.3384 -0.4589 -0.0782
  172ccc     C3 5086   1.980   1.035   3.498  0.1668  0.0322 -0.1698
  172ccc     H5 5087   1.873   1.012   3.501  0.0625  0.2417 -1.5910
  172ccc     H6 5088   1.994   1.109   3.418 -1.0985  0.9085  0.3755
  172ccc     N1 5089   2.005   1.096   3.632 -0.3878  0.4701  0.3808
  172ccc     C4 5090   2.144   1.101   3.670  0.1820 -0.0003  1.3377
  172ccc     H7 5091   2.187   0.999   3.674  1.1129  0.3512  0.7393
  172ccc     H8 5092   2.144   1.142   3.772 -1.2357 -0.0289  1.3605
  172ccc     C5 5093   2.233   1.187   3.573  0.0257  0.2176 -0.2017
  172ccc     H9 5094   2.228   1.149   3.471  3.1140 -0.1960 -0.3078
  172ccc    H10 5095   2.183   1.284   3.580  0.4653  0.3760  0.9855
  172ccc     C6 5096   2.379   1.207   3.620  0.7566  0.2651  0.2488
  172ccc     O1 5097   2.463   1.116   3.627  0.1762 -0.5111 -0.6396
  172ccc     O2 5098   2.414   1.336   3.609 -0.6051 -0.1891  0.0623
  172ccc    H11 5099   2.345   1.382   3.558  0.9853  3.0681  0.6171
  172ccc     C7 5100   1.925   1.040   3.746 -0.2586  0.3143  0.4885
  172ccc    H12 5101   1.921   0.931   3.752 -1.7609  0.3545  0.7274
  172ccc    H13 5102   1.962   1.059   3.848 -0.2292  0.4040  0.4612
  172ccc     C8 5103   1.777   1.088   3.742 -0.3864  0.4450  0.3775
  172ccc    H14 5104   1.774   1.198   3.737 -0.6549  0.4457  0.5046
  172ccc    H15 5105   1.729   1.047   3.652 -0.1490  3.1394 -1.1116
  172ccc     C9 5106   1.698   1.046   3.859  0.5972  0.2623 -0.9940
  172ccc     O3 5107   1.710   0.941   3.923 -0.5539 -0.6734  0.0961
  172ccc     O4 5108   1.580   1.106   3.851 -0.4021 -0.2295  0.1364
  172ccc    H16 5109   1.587   1.157   3.768  1.8034 -0.2132  0.2788
  172ccc     O5 5110   1.866   0.805   3.361 -0.2519  0.0451  0.4423
  173ccc     C1 5111   2.250   0.445   3.409 -0.6863 -0.0893  0.4381
  173ccc     H1 5112   2.347   0.447   3.359  0.4067 -0.9714  2.4347
  173ccc     H2 5113   2.235   0.553   3.421  3.4371  0.5232  1.6832
  173ccc     C2 5114   2.282   0.369   3.541 -0.0599 -0.6734  0.4941
  173ccc     H3 5115   2.375   0.416   3.575 -0.4819  0.8816 -0.4136
  173ccc     H4 5116   2.304   0.263   3.518  1.7993 -0.3660  0.7182
  173ccc     C3 5117   2.164   0.369   3.645 -0.2049 -0.0908  0.2129
  173ccc     H5 5118   2.094   0.296   3.603 -0.0195 -0.1841  0.0633
  173ccc     H6 5119   2.114   0.466   3.640 -0.2773 -0.1794 -1.1268
  173ccc     N1 5120   2.210   0.324   3.778  0.1245  0.4528 -0.2117
  173ccc     C4 5121   2.256   0.188   3.788 -0.2960  0.0274 -0.2295
  173ccc     H7 5122   2.306   0.169   3.884  0.7756  1.7994 -0.3831
  173ccc     H8 5123   2.322   0.162   3.704  0.8694  1.2629  0.2614
  173ccc     C5 5124   2.130   0.094   3.780  0.1704  0.1117 -0.3166
  173ccc     H9 5125   2.054   0.124   3.854  3.2185  1.2006  2.6210
  173ccc    H10 5126   2.074   0.104   3.686  0.7253  1.6339 -0.5250
  173ccc     C6 5127   2.172  -0.042   3.820  0.6711  0.0138  0.3283
  173ccc     O1 5128   2.258  -0.064   3.905 -0.0511  0.2550 -0.0045
  173ccc     O2 5129   2.138  -0.136   3.727 -0.2170 -0.6161 -0.3843
  173ccc    H11 5130   2.088  -0.100   3.652  1.0140  0.2004 -0.8383
  173ccc     C7 5131   2.300   0.423   3.839  0.0515  0.8566 -0.3342
  173ccc    H12 5132   2.329   0.391   3.940 -1.3436  0.8966  0.1111
  173ccc    H13 5133   2.385   0.430   3.770 -1.4459  2.4518 -2.1552
  173ccc     C8 5134   2.224   0.558   3.858 -0.2220  0.5682  0.1837
  173ccc    H14 5135   2.204   0.605   3.761 -1.4627 -0.1186  0.0860
  173ccc    H15 5136   2.128   0.537   3.907  0.6750 -1.7585  1.0767
  173ccc     C9 5137   2.301   0.658   3.947 -1.4079  0.8558  0.3261
  173ccc     O3 5138   2.287   0.668   4.066  0.0038  0.3653 -0.0490
  173ccc     O4 5139   2.408   0.725   3.884  0.1310 -0.1897  0.7411
  173ccc    H16 5140   2.382   0.719   3.790  0.3098 -0.9110  0.7315
  173ccc     O5 5141   2.145   0.375   3.342  0.4783 -0.4673  0.3733
  174ccc     C1 5142   0.633   1.452   8.073  0.0425  0.2370 -0.2434
  174ccc     H1 5143   0.722   1.474   8.013 -0.0189 -1.1748 -0.8929
  174ccc     H2 5144   0.554   1.524   8.049  0.0224  0.7458  1.2375
  174ccc     C2 5145   0.660   1.456   8.231  0.5019  0.4625  0.5609
  174ccc     H3 5146   0.740   1.386   8.256  0.2644  0.7575  2.2353
  174ccc     H4 5147   0.572   1.421   8.286  0.0237 -3.5652 -2.3066
  174ccc     C3 5148   0.690   1.597   8.283 -0.1921  0.6070  0.3319
  174ccc     H5 5149   0.695   1.596   8.393  0.8533 -2.9580  0.3701
  174ccc     H6 5150   0.609   1.667   8.259  1.4183  1.6294 -2.5510
  174ccc     N1 5151   0.811   1.651   8.220 -0.0701 -0.4455  0.0789
  174ccc     C4 5152   0.935   1.587   8.261  0.2306  0.4075 -0.0389
  174ccc     H7 5153   1.015   1.605   8.188  0.5658 -1.5578 -0.2184
  174ccc     H8 5154   0.917   1.480   8.243 -1.6295  1.1488 -3.6716
  174ccc     C5 5155   0.987   1.615   8.403 -0.1196  0.1167  0.2865
  174ccc     H9 5156   0.999   1.723   8.415 -0.5298  0.2290 -0.2424
  174ccc    H10 5157   0.908   1.584   8.472 -1.5467 -0.2709 -1.4234
  174ccc     C6 5158   1.120   1.558   8.426 -0.0221  0.7708 -0.2984
  174ccc     O1 5159   1.217   1.612   8.385  0.1656 -0.0805  0.0882
  174ccc     O2 5160   1.120   1.432   8.478 -0.3842  0.1631 -0.0691
  174ccc    H11 5161   1.214   1.409   8.483 -0.3553 -0.0220 -1.1043
  174ccc     C7 5162   0.822   1.797   8.238 -0.1255  0.0240  0.3227
  174ccc    H12 5163   0.805   1.819   8.344  0.2531 -0.6874  0.5411
  174ccc    H13 5164   0.925   1.826   8.214 -0.2984  0.1175 -0.3358
  174ccc     C8 5165   0.727   1.879   8.153  0.6150  0.0153 -1.2099
  174ccc    H14 5166   0.708   1.832   8.055 -1.9482 -2.0525  0.1675
  174ccc    H15 5167   0.632   1.880   8.208  1.1026 -0.2797 -0.3376
  174ccc     C9 5168   0.784   2.019   8.137  0.4893 -0.0386 -0.2026
  174ccc     O3 5169   0.837   2.058   8.035  0.2428  0.3752 -0.2485
  174ccc     O4 5170   0.743   2.103   8.239  0.3860 -0.0390  0.1775
  174ccc    H16 5171   0.695   2.049   8.303  2.1374 -5.0523 -2.2007
  174ccc     O5 5172   0.592   1.317   8.047 -0.4637 -0.3734  0.5394
  175ccc     C1 5173   1.026   0.761   8.183 -0.1453  0.1391  0.7539
  175ccc     H1 5174   1.002   0.661   8.146 -0.0543  0.8702 -1.4856
  175ccc     H2 5175   1.133   0.784   8.170 -0.4374  1.7585  0.9164
  175ccc     C2 5176   0.984   0.787   8.329 -0.3933  0.6101 -1.0574
  175ccc     H3 5177   1.023   0.887   8.353 -0.1530  0.0893  0.8523
  175ccc     H4 5178   1.041   0.726   8.400 -1.4488  1.8823  0.9697
  175ccc     C3 5179   0.836   0.780   8.370 -0.5602  0.4771 -0.0714
  175ccc     H5 5180   0.781   0.857   8.313 -1.3831  0.7058  0.9997
  175ccc     H6 5181   0.823   0.804   8.476 -1.0347  1.1685 -0.2701
  175ccc     N1 5182   0.771   0.657   8.322 -0.1680  0.2884 -0.4165
  175ccc     C4 5183   0.628   0.673   8.298 -0.2398  0.2274 -0.4165
  175ccc     H7 5184   0.581   0.732   8.377  1.4319  2.9212 -1.3123
  175ccc     H8 5185   0.583   0.573   8.306  0.0630  0.1321  0.2118
  175ccc     C5 5186   0.589   0.713   8.162  1.0293  0.3673 -0.7606
  175ccc     H9 5187   0.482   0.734   8.147  0.5898 -1.0595  0.2700
  175ccc    H10 5188   0.628   0.811   8.132  1.7699  0.0547 -0.8223
  175ccc     C6 5189   0.624   0.626   8.052 -0.9629 -0.2998 -0.1059
  175ccc     O1 5190   0.557   0.537   8.010 -0.3403  0.2666  0.1266
  175ccc     O2 5191   0.756   0.623   8.024  0.3214 -0.4058  0.2059
  175ccc    H11 5192   0.800   0.695   8.071 -2.7649  1.5364  0.4241
  175ccc     C7 5193   0.808   0.535   8.406  0.4248  0.0907 -0.0961
  175ccc    H12 5194   0.909   0.548   8.446  0.7583 -0.3214 -0.7878
  175ccc    H13 5195   0.743   0.518   8.492 -0.1086  2.4696  0.0370
  175ccc     C8 5196   0.811   0.410   8.318 -0.4372  0.0492  0.0947
  175ccc    H14 5197   0.712   0.383   8.278 -1.0286  0.2366  1.3715
  175ccc    H15 5198   0.880   0.417   8.234  0.5147  0.0965  0.8683
  175ccc     C9 5199   0.873   0.291   8.396  0.1797 -0.2285  0.1550
  175ccc     O3 5200   0.993   0.278   8.395  0.0902  0.6917 -0.0019
  175ccc     O4 5201   0.789   0.187   8.417 -0.1470 -0.3150  0.3076
  175ccc    H16 5202   0.700   0.224   8.422  0.2822  0.5948  2.4124
  175ccc     O5 5203   0.940   0.847   8.108  0.1793 -0.3729 -0.0925
  176ccc     C1 5204   2.075   1.443   6.982  0.1364  0.4652  0.4426
  176ccc     H1 5205   1.982   1.387   6.969  0.5798  0.0984 -1.3775
  176ccc     H2 5206   2.133   1.427   6.890  1.7455  0.8909  1.3292
  176ccc     C2 5207   2.137   1.374   7.101 -0.1897  0.5610  0.2223
  176ccc     H3 5208   2.088   1.418   7.188 -1.7112 -0.9561  0.1918
  176ccc     H4 5209   2.239   1.414   7.093 -0.2311  0.3006 -2.7448
  176ccc     C3 5210   2.118   1.219   7.114 -0.6164  0.0456 -0.7064
  176ccc     H5 5211   2.172   1.156   7.041 -1.9856 -1.4001 -0.5326
  176ccc     H6 5212   2.016   1.187   7.093 -0.4234 -1.6824  0.7676
  176ccc     N1 5213   2.142   1.169   7.250  0.0208 -0.4311  0.3893
  176ccc     C4 5214   2.282   1.185   7.299  0.7314 -0.0159 -0.1282
  176ccc     H7 5215   2.286   1.156   7.404  0.8228  4.8951  1.4433
  176ccc     H8 5216   2.329   1.282   7.283  0.9620  0.0733  1.0378
  176ccc     C5 5217   2.373   1.095   7.209  0.2405  0.0505 -0.8547
  176ccc     H9 5218   2.349   0.989   7.221 -1.6261  0.3983 -1.1361
  176ccc    H10 5219   2.356   1.124   7.104 -0.4577  0.5248 -0.6149
  176ccc     C6 5220   2.521   1.122   7.244  0.2754 -0.0381 -0.0753
  176ccc     O1 5221   2.567   1.160   7.353 -0.0809 -0.9596 -0.0313
  176ccc     O2 5222   2.607   1.081   7.149  0.4603  0.0734 -0.0175
  176ccc    H11 5223   2.558   1.048   7.072  1.5952 -0.1938 -0.6485
  176ccc     C7 5224   2.075   1.039   7.267 -0.7025 -0.0468 -0.0623
  176ccc    H12 5225   1.966   1.042   7.255 -0.9166 -2.4303  0.6380
  176ccc    H13 5226   2.094   0.957   7.197  1.1742 -0.4531  0.8725
  176ccc     C8 5227   2.095   0.979   7.406  0.1179  0.1702 -0.0476
  176ccc    H14 5228   2.048   0.880   7.417  0.2581  0.1667  0.5484
  176ccc    H15 5229   2.195   0.952   7.441  0.7775  1.6024 -0.7320
  176ccc     C9 5230   2.031   1.054   7.517  0.2702 -0.3610 -1.1170
  176ccc     O3 5231   2.097   1.096   7.612 -0.5692  0.7437  0.1951
  176ccc     O4 5232   1.900   1.032   7.535  0.6011 -0.1338  0.3323
  176ccc    H16 5233   1.870   0.970   7.466 -0.1266  0.3781  0.1793
  176ccc     O5 5234   2.072   1.583   7.013  0.4311 -0.0466 -0.2745
  177ccc     C1 5235   1.321   1.944   7.356  0.2192  0.5644 -0.0101
  177ccc     H1 5236   1.231   1.988   7.312 -0.6344 -0.1793  0.9600
  177ccc     H2 5237   1.283   1.904   7.450  0.7465  2.0341  0.8620
  177ccc     C2 5238   1.417   2.063   7.385  0.4284  0.2500  0.0359
  177ccc     H3 5239   1.511   2.028   7.430  1.3868  0.1844 -1.9191
  177ccc     H4 5240   1.360   2.132   7.449 -0.2663 -2.3027  2.3759
  177ccc     C3 5241   1.453   2.128   7.256  0.7287 -0.3857  0.1986
  177ccc     H5 5242   1.369   2.121   7.186  1.5945 -0.1097 -0.9081
  177ccc     H6 5243   1.529   2.069   7.203 -0.7937 -0.5730 -1.9314
  177ccc     N1 5244   1.476   2.275   7.275  0.2168  0.0247 -0.5330
  177ccc     C4 5245   1.600   2.311   7.343 -0.6193  0.1023  0.3360
  177ccc     H7 5246   1.625   2.241   7.424  1.0942  0.0832 -0.1565
  177ccc     H8 5247   1.588   2.410   7.389  2.4999  0.5573  0.4246
  177ccc     C5 5248   1.720   2.317   7.254  0.0378  0.0370 -0.2082
  177ccc     H9 5249   1.715   2.215   7.213  1.5776 -0.5913  1.0703
  177ccc    H10 5250   1.708   2.397   7.180 -0.1343 -0.2814 -0.5270
  177ccc     C6 5251   1.859   2.333   7.324  0.7424 -0.3012  0.2614
  177ccc     O1 5252   1.875   2.370   7.434  0.4377  0.4570 -0.1310
  177ccc     O2 5253   1.962   2.295   7.248 -0.8888  0.2682  0.0174
  177ccc    H11 5254   1.925   2.259   7.166  2.9826 -2.7952 -0.7045
  177ccc     C7 5255   1.445   2.345   7.145 -0.1806  0.7268 -1.3250
  177ccc    H12 5256   1.525   2.345   7.071 -0.5249 -1.0164 -1.7476
  177ccc    H13 5257   1.359   2.293   7.100 -0.2700 -0.2943 -0.0478
  177ccc     C8 5258   1.406   2.488   7.176  0.7105  0.4313 -0.6837
  177ccc    H14 5259   1.476   2.539   7.244  1.9018 -1.4345 -0.4374
  177ccc    H15 5260   1.395   2.540   7.080 -2.4775 -0.4809 -0.9471
  177ccc     C9 5261   1.270   2.501   7.245 -0.2371 -0.2818 -0.5235
  177ccc     O3 5262   1.179   2.425   7.241  0.3702 -0.3997 -0.5455
  177ccc     O4 5263   1.268   2.617   7.308  0.3274  0.4259  0.6910
  177ccc    H16 5264   1.344   2.670   7.275  0.6240 -0.6871 -0.4709
  177ccc     O5 5265   1.371   1.839   7.268  0.1049 -0.0445 -0.2909
  178ccc     C1 5266   2.028   0.017   8.236 -0.1941 -0.2085 -0.1164
  178ccc     H1 5267   2.046   0.123   8.215  0.1888  0.0463  1.3491
  178ccc     H2 5268   1.928  -0.012   8.201 -0.2022  0.7998 -0.9694
  178ccc     C2 5269   2.033   0.003   8.391  0.1273 -0.5997 -1.0429
  178ccc     H3 5270   2.140  -0.013   8.408  0.2222  1.2088  0.3499
  178ccc     H4 5271   1.975  -0.089   8.404 -1.6940  0.5391 -0.7380
  178ccc     C3 5272   1.984   0.132   8.469  0.2786 -0.5200  0.0715
  178ccc     H5 5273   1.881   0.159   8.441  0.2059  0.9720  1.5834
  178ccc     H6 5274   2.042   0.219   8.436  0.9176 -1.0375 -0.1947
  178ccc     N1 5275   1.978   0.118   8.615 -0.3212  0.2759 -0.5148
  178ccc     C4 5276   1.893   0.229   8.671 -0.0364  0.3865 -0.3246
  178ccc     H7 5277   1.793   0.244   8.627 -0.0834  1.5230  0.1290
  178ccc     H8 5278   1.946   0.321   8.646  0.7448 -0.0439 -0.2711
  178ccc     C5 5279   1.876   0.213   8.822 -0.6599 -0.2862 -0.0388
  178ccc     H9 5280   1.842   0.111   8.840 -3.4578  0.4268 -0.8551
  178ccc    H10 5281   1.975   0.227   8.868 -0.4974  0.3998 -0.5733
  178ccc     C6 5282   1.785   0.325   8.868  0.2571  0.2605  0.6247
  178ccc     O1 5283   1.785   0.433   8.815 -0.1743 -0.2003 -0.3920
  178ccc     O2 5284   1.701   0.294   8.966  0.0200  0.6781 -0.4685
  178ccc    H11 5285   1.729   0.206   8.995 -1.9785 -1.0865 -3.3847
  178ccc     C7 5286   2.102   0.084   8.689  0.6834  0.2610  0.1526
  178ccc    H12 5287   2.078   0.065   8.794  0.9133 -0.5372  0.0626
  178ccc    H13 5288   2.142  -0.009   8.648  1.4134  0.6226  0.0122
  178ccc     C8 5289   2.209   0.198   8.696 -0.4100 -0.2365  0.5490
  178ccc    H14 5290   2.172   0.301   8.705 -0.1709  0.0923 -1.6781
  178ccc    H15 5291   2.282   0.192   8.777 -0.0835  0.5490  0.3264
  178ccc     C9 5292   2.314   0.202   8.578  0.4187  0.0909 -0.3895
  178ccc     O3 5293   2.317   0.130   8.485  0.9704  0.8744  0.1998
  178ccc     O4 5294   2.420   0.278   8.607 -1.2377  0.4086 -0.7498
  178ccc    H16 5295   2.392   0.326   8.687  0.7320  1.7354 -0.7813
  178ccc     O5 5296   2.132  -0.070   8.180 -0.1763 -0.8193 -0.7576
  179ccc     C1 5297   2.477   0.642   7.952  0.2172  0.2480  0.6163
  179ccc     H1 5298   2.582   0.669   7.932  1.1726 -2.8247  0.8868
  179ccc     H2 5299   2.421   0.697   7.876  0.3546 -0.0031  0.3273
  179ccc     C2 5300   2.438   0.680   8.091  0.1490  0.3165 -0.3930
  179ccc     H3 5301   2.434   0.788   8.107 -0.9159 -0.0507  2.4975
  179ccc     H4 5302   2.523   0.658   8.157  0.0006  0.9393  0.0116
  179ccc     C3 5303   2.312   0.606   8.147  0.1487 -0.6070 -0.3466
  179ccc     H5 5304   2.280   0.534   8.071  0.4734  1.7713 -2.9162
  179ccc     H6 5305   2.233   0.681   8.148  0.5597 -0.1387 -1.3532
  179ccc     N1 5306   2.345   0.547   8.285  0.1579 -0.2747  0.6791
  179ccc     C4 5307   2.445   0.435   8.281 -0.6606  0.1555 -0.2577
  179ccc     H7 5308   2.463   0.395   8.381 -0.3420 -0.4990 -0.5714
  179ccc     H8 5309   2.544   0.473   8.252  0.0789  1.2853  3.3005
  179ccc     C5 5310   2.409   0.310   8.189  0.6636  0.1365 -0.1035
  179ccc     H9 5311   2.321   0.264   8.236 -0.4190  0.2076 -1.9809
  179ccc    H10 5312   2.363   0.325   8.091 -1.0845 -2.2820  0.2483
  179ccc     C6 5313   2.530   0.219   8.170 -0.4189  0.4825 -0.8985
  179ccc     O1 5314   2.578   0.159   8.266 -0.1060 -0.5471  0.3399
  179ccc     O2 5315   2.592   0.223   8.047 -0.0323  0.7059 -0.1701
  179ccc    H11 5316   2.552   0.303   8.009 -2.3039 -0.6054 -0.7887
  179ccc     C7 5317   2.221   0.531   8.364 -0.5796  0.4646 -0.1438
  179ccc    H12 5318   2.137   0.499   8.300 -0.3541 -1.1953  0.3552
  179ccc    H13 5319   2.243   0.459   8.443  1.0439  1.1688  0.0847
  179ccc     C8 5320   2.180   0.660   8.431  0.2400  0.3205 -0.5636
  179ccc    H14 5321   2.256   0.688   8.504 -0.9089  1.9986  0.0538
  179ccc    H15 5322   2.180   0.740   8.356  0.2173 -0.2984 -1.2334
  179ccc     C9 5323   2.043   0.641   8.503 -0.7797 -0.1466 -0.6030
  179ccc     O3 5324   1.954   0.563   8.469  0.1007  0.0268  0.4175
  179ccc     O4 5325   2.027   0.735   8.600  0.3752  0.8216 -0.1156
  179ccc    H16 5326   2.119   0.766   8.603  0.1548  1.5503 -0.5359
  179ccc     O5 5327   2.458   0.495   7.929  0.3481 -0.5598 -0.4864
  180ccc     C1 5328   2.969   0.316   6.222  0.3254  0.2030  0.2775
  180ccc     H1 5329   2.950   0.420   6.195 -0.0734  0.0558 -0.0266
  180ccc     H2 5330   3.055   0.318   6.290  0.6994 -0.4660 -0.1555
  180ccc     C2 5331   3.005   0.241   6.092 -0.8653 -0.6853  0.3220
  180ccc     H3 5332   3.094   0.285   6.047  0.0876 -0.9965  1.8350
  180ccc     H4 5333   2.920   0.251   6.023 -0.0413 -1.5112 -0.8504
  180ccc     C3 5334   3.024   0.089   6.120  0.1854  0.8139  0.4567
  180ccc     H5 5335   3.041   0.032   6.028 -3.6682  0.3939 -0.1931
  180ccc     H6 5336   2.927   0.049   6.152  0.0343 -0.3173 -1.2874
  180ccc     N1 5337   3.129   0.063   6.227  0.1025  0.3578  0.0715
  180ccc     C4 5338   3.263   0.077   6.159  0.4983  0.3759 -0.1210
  180ccc     H7 5339   3.274   0.165   6.095 -0.1777  1.0778  0.7076
  180ccc     H8 5340   3.282  -0.009   6.094  1.3516  1.6457 -1.6319
  180ccc     C5 5341   3.377   0.102   6.259 -0.3118 -0.0701 -0.1226
  180ccc     H9 5342   3.401   0.023   6.331  0.0777  1.8171  1.9095
  180ccc    H10 5343   3.467   0.105   6.196  0.2648  1.0976  0.7366
  180ccc     C6 5344   3.346   0.235   6.335  0.1343  0.4143  0.9946
  180ccc     O1 5345   3.329   0.334   6.265 -0.1303  0.0076 -0.3314
  180ccc     O2 5346   3.397   0.253   6.457  0.3475  0.2782 -0.1966
  180ccc    H11 5347   3.434   0.171   6.494  2.3093 -0.2066 -2.9116
  180ccc     C7 5348   3.111  -0.065   6.294  0.8335 -0.0244 -0.6778
  180ccc    H12 5349   3.089  -0.146   6.223 -1.0701 -0.4768  0.3373
  180ccc    H13 5350   3.203  -0.095   6.345  0.1909  0.4304  0.8192
  180ccc     C8 5351   3.005  -0.055   6.407  0.1436  0.8955  0.0504
  180ccc    H14 5352   3.015   0.040   6.460 -1.2102  0.9075  0.3103
  180ccc    H15 5353   2.908  -0.049   6.357  0.2851 -0.1278 -0.3617
  180ccc     C9 5354   3.003  -0.173   6.504  0.0874 -0.6881 -0.6515
  180ccc     O3 5355   3.067  -0.269   6.485 -0.1638  0.5624 -0.5721
  180ccc     O4 5356   2.907  -0.166   6.604 -0.3724 -0.1472 -0.0770
  180ccc    H16 5357   2.864  -0.081   6.587  0.6073  0.8581  2.0768
  180ccc     O5 5358   2.850   0.275   6.285 -0.1860 -0.8060 -0.4919
  181ccc     C1 5359   3.256   0.552   7.119  0.1084 -0.2899 -0.0856
  181ccc     H1 5360   3.330   0.491   7.067  0.0590 -1.4947  1.1999
  181ccc     H2 5361   3.275   0.659   7.101 -1.5455 -0.3090 -2.3890
  181ccc     C2 5362   3.263   0.522   7.267 -0.0607 -0.6970  0.2673
  181ccc     H3 5363   3.239   0.416   7.284  0.2419 -0.4338  2.5718
  181ccc     H4 5364   3.189   0.589   7.312  1.9827  0.8586  1.4879
  181ccc     C3 5365   3.402   0.553   7.331  0.1699  0.4497 -0.9474
  181ccc     H5 5366   3.430   0.657   7.316  0.6293  0.5624  0.5445
  181ccc     H6 5367   3.480   0.488   7.289 -1.8863 -1.2421 -2.3815
  181ccc     N1 5368   3.396   0.530   7.481 -0.0082  0.0134  0.4638
  181ccc     C4 5369   3.493   0.626   7.544  0.0850  0.1108 -0.4131
  181ccc     H7 5370   3.481   0.628   7.653 -0.4584  1.4067 -0.4835
  181ccc     H8 5371   3.482   0.729   7.508 -0.5663  0.6784  1.3184
  181ccc     C5 5372   3.649   0.587   7.516  1.0079 -0.6205  0.8603
  181ccc     H9 5373   3.681   0.502   7.576  2.0847 -0.3175  0.7333
  181ccc    H10 5374   3.676   0.568   7.412  2.3499  0.1352  1.0499
  181ccc     C6 5375   3.744   0.690   7.577  0.0795  0.1806 -0.7182
  181ccc     O1 5376   3.714   0.757   7.671 -0.2735 -0.1454 -0.1743
  181ccc     O2 5377   3.859   0.711   7.508 -0.5292 -0.0774 -0.2503
  181ccc    H11 5378   3.856   0.654   7.429  0.5661 -0.8786  0.2640
  181ccc     C7 5379   3.414   0.387   7.518  0.5426 -0.2121 -0.1938
  181ccc    H12 5380   3.358   0.322   7.449 -1.8477  0.8766  0.5827
  181ccc    H13 5381   3.518   0.354   7.515  0.2204 -1.2140 -2.0190
  181ccc     C8 5382   3.352   0.364   7.657 -0.4514 -0.0189  0.1987
  181ccc    H14 5383   3.400   0.287   7.718 -0.9624  0.6225  1.4692
  181ccc    H15 5384   3.365   0.458   7.712 -0.4687 -0.5575  1.1469
  181ccc     C9 5385   3.202   0.349   7.651 -0.0082  0.1044 -0.7460
  181ccc     O3 5386   3.124   0.404   7.575  0.1828 -0.2097 -0.3255
  181ccc     O4 5387   3.154   0.243   7.720  0.4792  0.0321  0.0295
  181ccc    H16 5388   3.225   0.200   7.772  0.0964  0.7178  1.1388
  181ccc     O5 5389   3.120   0.514   7.078  0.5414 -0.0423 -0.3883
  182ccc     C1 5390   0.126   0.300   6.918  0.0411  0.1298 -0.2717
  182ccc     H1 5391   0.070   0.251   6.999 -2.6447  1.3673 -1.2739
  182ccc     H2 5392   0.222   0.249   6.905  0.2188  0.0398  1.1929
  182ccc     C2 5393   0.159   0.452   6.952  0.9437  0.4210 -0.5426
  182ccc     H3 5394   0.193   0.498   6.859  0.8610  0.5771 -0.4969
  182ccc     H4 5395   0.240   0.450   7.026  0.2825  0.1532  0.1889
  182ccc     C3 5396   0.039   0.535   7.004 -0.2795  0.1716 -0.0450
  182ccc     H5 5397  -0.019   0.479   7.077 -1.6735  2.0762  0.3994
  182ccc     H6 5398  -0.038   0.539   6.926 -0.8474  1.2255  0.5457
  182ccc     N1 5399   0.076   0.671   7.049 -0.4216  0.2776  0.4719
  182ccc     C4 5400   0.152   0.674   7.172 -0.1492 -0.9654  0.8244
  182ccc     H7 5401   0.226   0.754   7.173 -0.0108 -1.0731 -0.0653
  182ccc     H8 5402   0.208   0.581   7.192 -0.6210 -1.2670  0.7617
  182ccc     C5 5403   0.050   0.699   7.289 -0.0776 -0.3947  0.1976
  182ccc     H9 5404   0.011   0.801   7.284 -0.1328 -0.4702 -1.1148
  182ccc    H10 5405  -0.039   0.636   7.277 -1.2292  1.5949 -3.0430
  182ccc     C6 5406   0.099   0.690   7.436  0.2210 -0.1043  0.3858
  182ccc     O1 5407   0.128   0.789   7.500 -0.7755 -0.1611  0.4054
  182ccc     O2 5408   0.100   0.576   7.501 -0.4889  0.5483 -0.3423
  182ccc    H11 5409   0.076   0.503   7.442 -1.8661 -0.0604  0.8847
  182ccc     C7 5410   0.120   0.769   6.950 -0.3145  0.3085 -0.0893
  182ccc    H12 5411   0.137   0.865   7.001  0.9733  1.3059 -2.2491
  182ccc    H13 5412   0.215   0.746   6.900 -0.1309  3.4779 -1.4180
  182ccc     C8 5413   0.019   0.798   6.835 -0.2355  0.3645 -0.5181
  182ccc    H14 5414   0.056   0.867   6.759  0.3861  2.0039  1.2079
  182ccc    H15 5415  -0.007   0.705   6.782  1.3336 -1.1248  1.1507
  182ccc     C9 5416  -0.112   0.872   6.879  0.2536  0.2291 -0.3654
  182ccc     O3 5417  -0.145   0.984   6.852 -0.3802  0.3757  0.1030
  182ccc     O4 5418  -0.189   0.787   6.950  0.3556  0.4131  0.1471
  182ccc    H16 5419  -0.125   0.719   6.979 -1.0284 -0.6265  0.8996
  182ccc     O5 5420   0.032   0.299   6.811 -0.2822  0.0086 -0.1449
  183ccc     C1 5421   0.062   0.963   6.456  0.0670 -0.2756  0.4410
  183ccc     H1 5422   0.066   0.887   6.535 -0.8933  0.8881  1.6501
  183ccc     H2 5423   0.164   0.980   6.418 -0.5907  0.8827 -0.9074
  183ccc     C2 5424  -0.005   1.085   6.511 -0.3527 -0.4876 -0.0560
  183ccc     H3 5425   0.073   1.126   6.577  0.0021 -0.2769 -0.5990
  183ccc     H4 5426  -0.093   1.053   6.568 -0.4001 -4.0208 -1.8256
  183ccc     C3 5427  -0.053   1.186   6.402  0.1367 -0.3613 -0.1367
  183ccc     H5 5428  -0.107   1.140   6.319 -0.3186 -0.8632  0.4314
  183ccc     H6 5429   0.036   1.216   6.346  0.9967 -0.1877  1.2837
  183ccc     N1 5430  -0.116   1.314   6.453 -0.6533  0.6804 -0.1978
  183ccc     C4 5431  -0.039   1.406   6.539 -0.2847  0.2667 -0.1926
  183ccc     H7 5432  -0.025   1.361   6.638  1.8467  0.4282 -0.3685
  183ccc     H8 5433  -0.091   1.501   6.555  1.7351  1.1425  1.7188
  183ccc     C5 5434   0.091   1.447   6.479  0.2992  0.2730 -0.0316
  183ccc     H9 5435   0.167   1.369   6.490  0.5015  0.5115  0.2809
  183ccc    H10 5436   0.075   1.481   6.376  1.0488 -0.4164 -0.3818
  183ccc     C6 5437   0.146   1.564   6.566 -0.6075  0.0014 -0.2265
  183ccc     O1 5438   0.095   1.613   6.662 -0.7289  0.0668  0.4357
  183ccc     O2 5439   0.279   1.575   6.557 -0.8105 -0.2973  0.3331
  183ccc    H11 5440   0.310   1.527   6.477 -0.5006  0.1277  0.1976
  183ccc     C7 5441  -0.251   1.287   6.503 -0.5132  0.5101 -0.3410
  183ccc    H12 5442  -0.248   1.215   6.585 -0.7568  1.4229  0.4837
  183ccc    H13 5443  -0.291   1.378   6.548 -0.4411 -0.0365  0.8483
  183ccc     C8 5444  -0.356   1.242   6.396 -0.2622  0.0795 -0.8560
  183ccc    H14 5445  -0.337   1.141   6.357 -1.3822 -0.3387 -0.3592
  183ccc    H15 5446  -0.459   1.251   6.432  0.6909  1.4501  1.7984
  183ccc     C9 5447  -0.370   1.329   6.278 -0.0004  0.5763  0.1084
  183ccc     O3 5448  -0.324   1.441   6.270 -0.3957  0.0186 -0.3986
  183ccc     O4 5449  -0.465   1.294   6.197 -0.4617 -0.2843  0.4254
  183ccc    H16 5450  -0.489   1.205   6.227  0.7766 -0.7078  0.2079
  183ccc     O5 5451  -0.010   0.903   6.353 -0.7241  0.1770  0.1702
  184ccc     C1 5452   0.605  -0.417   6.980 -0.5733 -0.8702  0.3248
  184ccc     H1 5453   0.496  -0.420   6.974 -0.5480  0.2793 -2.0915
  184ccc     H2 5454   0.641  -0.382   6.882 -0.2684  1.5275  1.2184
  184ccc     C2 5455   0.684  -0.546   7.001 -0.2694  0.2061  0.1958
  184ccc     H3 5456   0.635  -0.628   6.947  1.1595 -2.3923  2.5619
  184ccc     H4 5457   0.662  -0.566   7.107 -2.4110  0.1142 -0.2265
  184ccc     C3 5458   0.840  -0.553   6.981  0.7156  0.8406 -0.6959
  184ccc     H5 5459   0.885  -0.480   7.049 -1.2442 -1.4162  3.3362
  184ccc     H6 5460   0.863  -0.528   6.876 -1.7391  1.9855 -1.0425
  184ccc     N1 5461   0.884  -0.691   7.009 -0.0505  0.7205 -1.1504
  184ccc     C4 5462   0.900  -0.723   7.153 -0.3864 -0.1703  0.6078
  184ccc     H7 5463   0.929  -0.828   7.167 -0.2419 -0.2753 -0.4082
  184ccc     H8 5464   0.810  -0.710   7.216 -1.8730 -0.4153 -1.3646
  184ccc     C5 5465   1.024  -0.647   7.204 -0.7563 -0.0394 -0.6601
  184ccc     H9 5466   1.117  -0.680   7.154  0.2716 -1.3530  1.9540
  184ccc    H10 5467   1.005  -0.539   7.199 -1.0656 -0.0607  0.0864
  184ccc     C6 5468   1.045  -0.655   7.353  0.7689 -0.1330  0.4567
  184ccc     O1 5469   0.969  -0.710   7.431 -0.0548 -0.5878 -0.0045
  184ccc     O2 5470   1.153  -0.594   7.400 -0.4767 -0.6064  0.6898
  184ccc    H11 5471   1.213  -0.580   7.325 -1.3629  1.0613  0.2538
  184ccc     C7 5472   0.830  -0.809   6.934  0.1975 -0.0306 -0.0690
  184ccc    H12 5473   0.888  -0.895   6.970  1.4083 -0.4873 -2.8968
  184ccc    H13 5474   0.724  -0.831   6.952 -0.2726 -0.9480 -3.2733
  184ccc     C8 5475   0.856  -0.797   6.782 -0.0993  0.1861 -0.2620
  184ccc    H14 5476   0.815  -0.700   6.752 -1.6596 -0.2791  0.2660
  184ccc    H15 5477   0.963  -0.788   6.759 -0.2095  1.2750 -0.3803
  184ccc     C9 5478   0.796  -0.910   6.695 -0.3422 -0.4035 -0.3515
  184ccc     O3 5479   0.696  -0.892   6.627  0.0153  0.2293  0.5547
  184ccc     O4 5480   0.851  -1.029   6.704  0.0669 -0.6617 -0.3967
  184ccc    H16 5481   0.936  -1.013   6.750  0.2331  0.9576 -1.1824
  184ccc     O5 5482   0.637  -0.312   7.079 -0.6365 -0.5363 -1.3055
  185ccc     C1 5483   0.389   0.391   7.431  1.0612 -0.4183  0.1797
  185ccc     H1 5484   0.381   0.432   7.329 -4.8250  0.0561  0.4541
  185ccc     H2 5485   0.293   0.422   7.476  0.7130  1.8028 -1.8841
  185ccc     C2 5486   0.514   0.445   7.506 -0.5536 -0.1956  0.6611
  185ccc     H3 5487   0.611   0.405   7.475 -0.8452  0.6032 -1.4510
  185ccc     H4 5488   0.505   0.412   7.610 -0.5570 -1.1709  0.3657
  185ccc     C3 5489   0.531   0.597   7.503 -0.2330 -0.4812  0.3570
  185ccc     H5 5490   0.433   0.646   7.503  0.4709  1.0201 -0.4839
  185ccc     H6 5491   0.591   0.624   7.415  0.1175 -2.9039 -0.2431
  185ccc     N1 5492   0.593   0.639   7.631 -0.0972 -0.4594 -0.3249
  185ccc     C4 5493   0.544   0.771   7.677 -0.4034  0.1231 -0.1951
  185ccc     H7 5494   0.525   0.834   7.589 -1.4375  0.2046  0.0663
  185ccc     H8 5495   0.616   0.817   7.745  0.1810 -1.5507  0.3731
  185ccc     C5 5496   0.402   0.749   7.744 -0.0637 -0.3265 -0.0393
  185ccc     H9 5497   0.335   0.781   7.663  1.1099  0.2791 -0.8029
  185ccc    H10 5498   0.389   0.644   7.772  0.2605 -0.7198 -1.2807
  185ccc     C6 5499   0.375   0.842   7.866 -0.3034  0.3378  0.2531
  185ccc     O1 5500   0.451   0.929   7.898 -0.5331 -0.2709 -0.8181
  185ccc     O2 5501   0.266   0.808   7.939 -0.5120  0.0465 -0.3746
  185ccc    H11 5502   0.228   0.742   7.879  2.0047 -0.1973 -1.8606
  185ccc     C7 5503   0.751   0.627   7.624 -0.0854 -0.0896 -0.0137
  185ccc    H12 5504   0.792   0.642   7.724  0.3258 -0.1055 -0.1807
  185ccc    H13 5505   0.767   0.524   7.591  0.2562  0.5346 -1.9309
  185ccc     C8 5506   0.808   0.732   7.526 -0.2134 -0.5511 -0.4680
  185ccc    H14 5507   0.787   0.717   7.419  2.5464  1.2757 -1.3827
  185ccc    H15 5508   0.770   0.833   7.548  0.7168  0.1087 -1.7881
  185ccc     C9 5509   0.958   0.748   7.544 -0.2744 -0.1141  0.2269
  185ccc     O3 5510   1.030   0.690   7.623  0.3780 -0.2389  0.0279
  185ccc     O4 5511   1.021   0.837   7.459 -0.1754  0.1104 -0.2179
  185ccc    H16 5512   0.945   0.865   7.405  0.3813  1.2006 -0.4487
  185ccc     O5 5513   0.405   0.249   7.429 -0.1272 -0.1956 -0.1639
  186ccc     C1 5514   2.336  -0.922   4.735  0.5739 -0.5096 -0.4662
  186ccc     H1 5515   2.386  -0.903   4.831  1.2663  4.3914 -1.5485
  186ccc     H2 5516   2.306  -1.026   4.716  0.3249 -0.6999  0.8653
  186ccc     C2 5517   2.414  -0.877   4.616  0.1229 -0.2067 -0.2333
  186ccc     H3 5518   2.349  -0.870   4.528  1.1094 -1.7718 -1.1520
  186ccc     H4 5519   2.484  -0.960   4.599 -0.8210 -0.9883 -0.3817
  186ccc     C3 5520   2.500  -0.746   4.643  0.1739  1.0637 -0.1572
  186ccc     H5 5521   2.572  -0.746   4.726  0.5333 -0.6156 -0.4323
  186ccc     H6 5522   2.427  -0.671   4.675  1.5913  2.5643 -0.3242
  186ccc     N1 5523   2.576  -0.705   4.520 -0.2113  1.1773 -0.1348
  186ccc     C4 5524   2.492  -0.645   4.414  0.0064  0.1403 -0.0454
  186ccc     H7 5525   2.412  -0.714   4.385  0.0764 -0.4774  1.1922
  186ccc     H8 5526   2.551  -0.634   4.322 -1.0820 -0.2982 -0.8257
  186ccc     C5 5527   2.433  -0.501   4.450 -0.4108 -0.3970 -0.1020
  186ccc     H9 5528   2.368  -0.499   4.538 -1.8833 -3.3275 -1.0030
  186ccc    H10 5529   2.516  -0.434   4.475 -1.9983  1.1444  1.4107
  186ccc     C6 5530   2.365  -0.441   4.326 -0.0566 -0.1397 -0.1714
  186ccc     O1 5531   2.420  -0.363   4.246  0.5059 -0.1643 -0.5287
  186ccc     O2 5532   2.231  -0.450   4.324  0.4757  0.1411  0.2470
  186ccc    H11 5533   2.211  -0.499   4.406 -1.0253  0.0006 -0.1787
  186ccc     C7 5534   2.676  -0.794   4.466  0.2333  0.1579  0.6211
  186ccc    H12 5535   2.620  -0.883   4.436  1.4984 -1.1000  1.8888
  186ccc    H13 5536   2.722  -0.758   4.373  2.5462 -3.5198  0.1435
  186ccc     C8 5537   2.790  -0.823   4.556 -0.1648  0.1878 -0.4607
  186ccc    H14 5538   2.864  -0.742   4.552 -1.1199  1.3731  2.7515
  186ccc    H15 5539   2.754  -0.838   4.659  1.5184  0.7127  0.2431
  186ccc     C9 5540   2.852  -0.959   4.523  0.5039 -0.4070  0.0118
  186ccc     O3 5541   2.844  -1.008   4.414 -0.4738  0.2563 -0.1211
  186ccc     O4 5542   2.937  -0.991   4.612 -0.7100  0.2170  0.0617
  186ccc    H16 5543   2.939  -0.920   4.679 -1.0142  0.3044 -0.0224
  186ccc     O5 5544   2.219  -0.833   4.740 -0.0120  0.1713  0.2287
  187ccc     C1 5545   2.336  -0.278   5.373  0.0420 -0.1387  0.2699
  187ccc     H1 5546   2.376  -0.263   5.272  3.5710  1.0602  1.6924
  187ccc     H2 5547   2.269  -0.192   5.389 -0.6090 -0.8379  1.4399
  187ccc     C2 5548   2.442  -0.289   5.485  0.3136  0.0671 -0.0379
  187ccc     H3 5549   2.495  -0.194   5.502  0.5239 -0.3074  1.5007
  187ccc     H4 5550   2.514  -0.364   5.452 -0.2214 -1.4256  2.0233
  187ccc     C3 5551   2.387  -0.318   5.626 -0.0996  0.6144 -0.1502
  187ccc     H5 5552   2.472  -0.344   5.690  1.2149 -0.3342 -2.1811
  187ccc     H6 5553   2.321  -0.405   5.618 -1.1332  1.3473  0.1127
  187ccc     N1 5554   2.308  -0.212   5.700 -0.0353  0.0796  0.1241
  187ccc     C4 5555   2.225  -0.276   5.800 -0.0905  0.4078 -1.1222
  187ccc     H7 5556   2.165  -0.357   5.757  0.9188 -0.9908  0.0240
  187ccc     H8 5557   2.148  -0.218   5.853  0.2243  0.1452 -0.3621
  187ccc     C5 5558   2.300  -0.345   5.917 -0.0379 -0.4552 -0.2424
  187ccc     H9 5559   2.372  -0.421   5.882 -0.8244 -0.8475 -1.0488
  187ccc    H10 5560   2.347  -0.273   5.985 -0.6184 -0.8817  0.6243
  187ccc     C6 5561   2.194  -0.419   5.993 -0.4019 -0.2431 -0.1958
  187ccc     O1 5562   2.151  -0.523   5.956 -0.2787  0.2341  0.0636
  187ccc     O2 5563   2.133  -0.356   6.094  0.4286 -0.0217 -0.4091
  187ccc    H11 5564   2.154  -0.262   6.094  1.4307 -0.2389 -0.5890
  187ccc     C7 5565   2.389  -0.097   5.746 -0.7411  0.1512 -0.7999
  187ccc    H12 5566   2.458  -0.135   5.822 -0.3944 -1.0712 -1.7013
  187ccc    H13 5567   2.454  -0.071   5.661  0.5379 -1.6799 -0.4233
  187ccc     C8 5568   2.318   0.025   5.800 -0.0014 -0.6649  0.1501
  187ccc    H14 5569   2.252  -0.012   5.880  0.6304 -2.8941 -0.3059
  187ccc    H15 5570   2.397   0.092   5.836  0.2985 -0.4522 -0.8895
  187ccc     C9 5571   2.228   0.091   5.692 -0.0640  0.0854 -0.2627
  187ccc     O3 5572   2.160   0.188   5.721  0.0466 -0.0691  0.1703
  187ccc     O4 5573   2.188   0.014   5.586  0.3245  0.1683  0.5775
  187ccc    H16 5574   2.243  -0.065   5.593  1.0069  0.3906 -1.5841
  187ccc     O5 5575   2.262  -0.402   5.370  0.1577  0.4756 -0.6207
  188ccc     C1 5576   1.271  -0.359   6.467 -0.1071  0.9115 -0.4142
  188ccc     H1 5577   1.354  -0.425   6.437 -2.0448 -1.4939 -0.7415
  188ccc     H2 5578   1.221  -0.416   6.546 -0.6302  0.0162 -1.3745
  188ccc     C2 5579   1.171  -0.336   6.361 -0.0896 -0.2896 -0.2045
  188ccc     H3 5580   1.229  -0.283   6.284  1.8031  1.7345  2.4486
  188ccc     H4 5581   1.083  -0.280   6.395  0.0980  0.1610 -0.4499
  188ccc     C3 5582   1.119  -0.466   6.289 -0.0898  0.1310  0.2252
  188ccc     H5 5583   1.209  -0.515   6.249 -0.3945 -0.1859 -0.0810
  188ccc     H6 5584   1.052  -0.439   6.206 -0.0967  0.8202  0.4466
  188ccc     N1 5585   1.059  -0.558   6.386 -0.0254 -0.2520 -0.5520
  188ccc     C4 5586   0.952  -0.510   6.483 -0.0150 -0.0603  0.3820
  188ccc     H7 5587   0.989  -0.422   6.537  0.1154  0.6564 -0.8343
  188ccc     H8 5588   0.938  -0.591   6.556  0.0309 -2.1003 -1.7406
  188ccc     C5 5589   0.819  -0.476   6.404 -0.2266  0.2765 -0.2525
  188ccc     H9 5590   0.832  -0.387   6.342 -0.6171  0.2553 -0.3663
  188ccc    H10 5591   0.775  -0.562   6.352 -0.2125 -2.3767  3.7017
  188ccc     C6 5592   0.708  -0.435   6.502 -0.7364 -0.3555 -1.1160
  188ccc     O1 5593   0.709  -0.468   6.619  0.4604 -0.3426 -0.6576
  188ccc     O2 5594   0.591  -0.425   6.439 -0.3066 -0.1594 -0.4192
  188ccc    H11 5595   0.609  -0.399   6.346 -1.1420 -1.5744 -1.0037
  188ccc     C7 5596   1.027  -0.689   6.333  0.4011  0.5631 -0.1075
  188ccc    H12 5597   0.963  -0.739   6.407  1.7821  1.3149  1.6699
  188ccc    H13 5598   0.963  -0.683   6.244 -1.2005 -0.6441  0.9181
  188ccc     C8 5599   1.140  -0.788   6.296 -0.2835  0.1404  0.0265
  188ccc    H14 5600   1.133  -0.838   6.198  0.2930 -0.7026  0.4024
  188ccc    H15 5601   1.239  -0.740   6.300 -0.4127  0.8504 -2.7534
  188ccc     C9 5602   1.150  -0.894   6.405 -0.1050 -0.2972  0.2036
  188ccc     O3 5603   1.087  -0.891   6.511 -0.5458 -0.2609  0.7081
  188ccc     O4 5604   1.237  -0.987   6.378  0.1066 -0.0208  0.2277
  188ccc    H16 5605   1.253  -0.971   6.284 -1.8575  0.5073 -0.0703
  188ccc     O5 5606   1.317  -0.224   6.516  0.1799 -0.3292 -0.0109
  189ccc     C1 5607   2.166   0.087   6.460  0.3923 -0.5891 -0.0061
  189ccc     H1 5608   2.140   0.077   6.566 -0.8863  2.6899  0.0903
  189ccc     H2 5609   2.265   0.048   6.432  0.8938  0.2106  0.6194
  189ccc     C2 5610   2.184   0.234   6.425  0.3623  0.2638  0.1048
  189ccc     H3 5611   2.092   0.291   6.436 -0.3111 -0.6736 -0.5348
  189ccc     H4 5612   2.219   0.247   6.321  0.1582 -0.3466 -0.0404
  189ccc     C3 5613   2.285   0.296   6.523  0.2976  0.0372 -0.8524
  189ccc     H5 5614   2.388   0.260   6.512  0.6976  0.8631  0.0185
  189ccc     H6 5615   2.251   0.270   6.624  1.5332  4.2555  0.8524
  189ccc     N1 5616   2.318   0.439   6.524  0.0321  0.1670 -0.2729
  189ccc     C4 5617   2.386   0.479   6.403  0.3492 -0.0184 -0.1064
  189ccc     H7 5618   2.310   0.496   6.326  0.2673 -0.0198 -0.0254
  189ccc     H8 5619   2.459   0.403   6.373  1.1406  1.7622 -3.1163
  189ccc     C5 5620   2.457   0.615   6.414  0.4055  0.8862  0.5014
  189ccc     H9 5621   2.381   0.693   6.403 -0.6006  0.1009  1.5710
  189ccc    H10 5622   2.497   0.617   6.516 -1.2367 -0.4803  1.2318
  189ccc     C6 5623   2.567   0.635   6.308  0.1746 -0.0963  0.0418
  189ccc     O1 5624   2.572   0.573   6.204 -0.1005  0.7776  0.3253
  189ccc     O2 5625   2.616   0.761   6.304  0.2395 -0.0097 -0.1510
  189ccc    H11 5626   2.610   0.791   6.396  0.1815  0.6179 -0.3547
  189ccc     C7 5627   2.200   0.533   6.543 -0.0122 -0.4383 -0.0672
  189ccc    H12 5628   2.224   0.638   6.565 -1.1149 -0.6735  2.6252
  189ccc    H13 5629   2.133   0.534   6.456 -0.9961  1.5907  0.6544
  189ccc     C8 5630   2.115   0.500   6.670  0.1885  0.2739  1.0495
  189ccc    H14 5631   2.059   0.406   6.667 -1.5063  1.2719 -0.3569
  189ccc    H15 5632   2.194   0.485   6.744  1.1886 -0.5061 -0.1459
  189ccc     C9 5633   2.049   0.625   6.722 -0.1778 -0.4589 -0.0817
  189ccc     O3 5634   2.103   0.698   6.808  0.0504  0.5096 -0.4204
  189ccc     O4 5635   1.927   0.641   6.655  0.1187  0.1799 -0.1704
  189ccc    H16 5636   1.909   0.568   6.594 -0.1480 -1.1259  1.3859
  189ccc     O5 5637   2.064   0.035   6.370  0.0305 -0.2247  0.1110
  190ccc     C1 5638   3.039  -0.077   7.965  0.3467  0.5972 -0.2959
  190ccc     H1 5639   2.948  -0.103   8.021  1.4682 -1.3165  0.7250
  190ccc     H2 5640   2.999  -0.035   7.871  2.0312  1.6797 -0.5697
  190ccc     C2 5641   3.113  -0.209   7.922 -0.3619 -0.2791 -0.4236
  190ccc     H3 5642   3.031  -0.281   7.907 -0.0999 -0.5547 -0.5356
  190ccc     H4 5643   3.174  -0.242   8.007 -0.6331 -0.2511 -0.2141
  190ccc     C3 5644   3.209  -0.193   7.803  0.0989 -0.2037  0.0420
  190ccc     H5 5645   3.269  -0.284   7.797 -0.2434 -0.6322  2.1773
  190ccc     H6 5646   3.281  -0.112   7.821 -0.3639  0.0963  0.5832
  190ccc     N1 5647   3.140  -0.167   7.674  0.2592  0.8411  0.2040
  190ccc     C4 5648   3.214  -0.090   7.573  0.1740 -0.5827  0.1207
  190ccc     H7 5649   3.308  -0.144   7.551 -0.1498 -1.0249 -0.1910
  190ccc     H8 5650   3.240   0.003   7.625  3.0794 -1.8173  1.1045
  190ccc     C5 5651   3.149  -0.051   7.439  0.1725 -0.3742 -0.7297
  190ccc     H9 5652   3.151  -0.137   7.370 -1.1886 -1.4321  0.4871
  190ccc    H10 5653   3.042  -0.033   7.458  0.0688 -3.1080  1.7838
  190ccc     C6 5654   3.225   0.060   7.369 -0.9186  0.6539 -0.3487
  190ccc     O1 5655   3.167   0.155   7.330 -0.3139  0.1602  0.0493
  190ccc     O2 5656   3.359   0.043   7.344  0.4655 -0.2021  0.2707
  190ccc    H11 5657   3.370  -0.053   7.353 -2.1008 -0.5846  0.0661
  190ccc     C7 5658   3.068  -0.284   7.619 -0.6990 -0.0021  0.2665
  190ccc    H12 5659   2.995  -0.327   7.689 -0.3833 -1.2367 -0.1288
  190ccc    H13 5660   3.008  -0.260   7.530  0.3737 -0.6688 -0.6669
  190ccc     C8 5661   3.164  -0.390   7.573  0.4999 -0.0984 -0.3453
  190ccc    H14 5662   3.241  -0.346   7.508  1.5452  1.8345  2.0554
  190ccc    H15 5663   3.222  -0.434   7.655  0.6375 -1.1047 -0.9664
  190ccc     C9 5664   3.095  -0.502   7.496 -0.4202 -0.2766 -0.2184
  190ccc     O3 5665   3.102  -0.526   7.376  0.3623  0.5477  0.4946
  190ccc     O4 5666   3.041  -0.590   7.575  0.3432 -0.5750  0.5019
  190ccc    H16 5667   3.078  -0.562   7.661 -0.4302  0.2454  0.5808
  190ccc     O5 5668   3.124   0.015   8.042 -0.0350  0.1028 -0.1598
  191ccc     C1 5669   2.673   0.886   8.337 -0.4648 -0.0034 -0.6829
  191ccc     H1 5670   2.694   0.991   8.315  0.4384 -0.5757 -2.8451
  191ccc     H2 5671   2.655   0.851   8.235 -1.7888 -0.0496 -0.4472
  191ccc     C2 5672   2.547   0.854   8.425 -0.1920 -0.6019 -0.4873
  191ccc     H3 5673   2.568   0.896   8.525 -1.6275 -0.4372 -0.2176
  191ccc     H4 5674   2.548   0.748   8.453 -0.9193 -0.1188  1.6227
  191ccc     C3 5675   2.423   0.918   8.369  0.1587 -0.2517 -0.4692
  191ccc     H5 5676   2.346   0.913   8.447 -1.1711  1.4620 -1.5710
  191ccc     H6 5677   2.394   0.858   8.282  3.7316  0.7440 -2.5248
  191ccc     N1 5678   2.435   1.064   8.326 -0.5469  0.2562 -0.8179
  191ccc     C4 5679   2.485   1.165   8.416  0.3758 -0.1255  0.4353
  191ccc     H7 5680   2.557   1.117   8.484 -0.4298 -1.8799  0.0769
  191ccc     H8 5681   2.407   1.196   8.487 -0.2537 -1.1829  0.2224
  191ccc     C5 5682   2.567   1.287   8.354 -0.3398 -0.6478  0.9995
  191ccc     H9 5683   2.655   1.249   8.300 -0.0062  0.5854  0.6321
  191ccc    H10 5684   2.504   1.340   8.282  1.0624  0.3776  0.4864
  191ccc     C6 5685   2.608   1.389   8.464  0.5261 -0.4808  0.1915
  191ccc     O1 5686   2.576   1.377   8.578  0.5133  0.5611  0.1936
  191ccc     O2 5687   2.685   1.497   8.432  0.6815  0.6088  0.1480
  191ccc    H11 5688   2.684   1.515   8.336 -0.3358 -0.0273  0.0220
  191ccc     C7 5689   2.323   1.109   8.239  0.1318  0.1225  0.5506
  191ccc    H12 5690   2.348   1.203   8.187  3.4756 -1.3009 -0.6713
  191ccc    H13 5691   2.302   1.042   8.155 -1.0021  3.1618 -1.8059
  191ccc     C8 5692   2.192   1.110   8.330 -0.0731 -0.7070 -0.4128
  191ccc    H14 5693   2.182   1.022   8.395 -0.2402  0.3747  1.0540
  191ccc    H15 5694   2.208   1.193   8.399 -2.5256 -1.1874  0.8749
  191ccc     C9 5695   2.053   1.121   8.258 -0.6536 -0.1101 -1.3721
  191ccc     O3 5696   1.986   1.026   8.224  0.3426 -0.5207 -0.4639
  191ccc     O4 5697   2.028   1.246   8.222  0.1969 -0.0052  0.0043
  191ccc    H16 5698   1.934   1.244   8.197  0.7905 -1.6734 -2.4470
  191ccc     O5 5699   2.789   0.819   8.397  0.2142  0.6095 -0.0900
  192ccc     C1 5700   2.455  -0.159   8.346 -0.0229 -0.5211  0.2205
  192ccc     H1 5701   2.512  -0.075   8.387  1.6402 -1.2236 -0.5628
  192ccc     H2 5702   2.385  -0.122   8.269 -1.1485  0.7426  1.7889
  192ccc     C2 5703   2.373  -0.219   8.459  0.0217 -0.6252 -0.6708
  192ccc     H3 5704   2.316  -0.138   8.506  0.2399  0.8340 -2.7670
  192ccc     H4 5705   2.457  -0.256   8.519  0.2266  0.3488 -0.3339
  192ccc     C3 5706   2.276  -0.330   8.404  0.0749  0.3259 -0.0143
  192ccc     H5 5707   2.339  -0.401   8.349 -0.1305 -2.7483  3.3101
  192ccc     H6 5708   2.189  -0.301   8.343 -0.8775 -1.0789  0.6030
  192ccc     N1 5709   2.221  -0.416   8.510  0.0949  0.7539 -0.6899
  192ccc     C4 5710   2.264  -0.557   8.505  0.1283 -0.4404 -0.1809
  192ccc     H7 5711   2.248  -0.613   8.598  2.1422 -0.4501  0.1958
  192ccc     H8 5712   2.372  -0.547   8.491  0.2739  1.1478  1.5734
  192ccc     C5 5713   2.206  -0.648   8.389  0.2136  0.0129  0.1102
  192ccc     H9 5714   2.247  -0.608   8.295  3.7283  2.0288  2.3028
  192ccc    H10 5715   2.254  -0.745   8.402  2.4563  1.0601  0.1128
  192ccc     C6 5716   2.052  -0.652   8.392 -0.6140  0.3407 -0.0920
  192ccc     O1 5717   1.989  -0.753   8.357  0.4916  0.8619 -0.5967
  192ccc     O2 5718   2.000  -0.532   8.368  0.6173 -0.0754 -0.4239
  192ccc    H11 5719   2.077  -0.473   8.375  0.6342 -0.0233 -1.0114
  192ccc     C7 5720   2.190  -0.368   8.643 -0.6273 -0.3909 -0.1205
  192ccc    H12 5721   2.249  -0.422   8.718  2.7171 -0.1586 -2.3723
  192ccc    H13 5722   2.219  -0.264   8.662  1.3767 -0.8854 -0.3284
  192ccc     C8 5723   2.038  -0.368   8.665 -0.0151  0.4664 -0.4350
  192ccc    H14 5724   1.989  -0.305   8.590 -1.4801  0.1536  0.2149
  192ccc    H15 5725   1.987  -0.465   8.653  1.2827 -0.2784 -0.0967
  192ccc     C9 5726   1.992  -0.304   8.801  0.1982 -0.6746  0.1825
  192ccc     O3 5727   1.940  -0.195   8.805 -0.1346 -0.3168  0.3035
  192ccc     O4 5728   2.007  -0.379   8.907  0.5613 -0.4028 -0.5926
  192ccc    H16 5729   2.067  -0.447   8.872  0.8985  0.3673 -1.5535
  192ccc     O5 5730   2.555  -0.253   8.294 -0.6988  0.1057  0.0712
  193ccc     C1 5731   2.561  -0.641   7.559 -0.1307  0.5792 -0.6921
  193ccc     H1 5732   2.490  -0.718   7.529  0.0744 -0.3338  1.0680
  193ccc     H2 5733   2.526  -0.540   7.532 -3.4918 -0.1344  0.5450
  193ccc     C2 5734   2.703  -0.678   7.508  0.0293 -0.7035  0.0400
  193ccc     H3 5735   2.718  -0.781   7.544  1.4390 -1.3936 -2.2792
  193ccc     H4 5736   2.776  -0.615   7.560 -0.0494 -1.2537  0.8363
  193ccc     C3 5737   2.711  -0.676   7.353 -0.0953 -0.3652  0.1138
  193ccc     H5 5738   2.667  -0.772   7.323 -0.3399  0.2829 -1.6807
  193ccc     H6 5739   2.811  -0.686   7.310 -1.1518 -0.6052 -2.4516
  193ccc     N1 5740   2.631  -0.562   7.295 -0.1512  0.2661 -0.5982
  193ccc     C4 5741   2.600  -0.586   7.157 -0.5300 -0.1162  0.2472
  193ccc     H7 5742   2.687  -0.617   7.099  1.1367  2.0946  1.4140
  193ccc     H8 5743   2.553  -0.496   7.113  1.7632  0.1362 -1.8551
  193ccc     C5 5744   2.507  -0.713   7.140  0.4282 -0.6490  0.0583
  193ccc     H9 5745   2.572  -0.801   7.151 -0.5334 -1.8575 -2.9835
  193ccc    H10 5746   2.428  -0.716   7.216 -0.6594 -2.7672 -1.0641
  193ccc     C6 5747   2.434  -0.713   7.006  0.5017 -0.0539 -0.1846
  193ccc     O1 5748   2.453  -0.631   6.916 -0.1376  0.2884  0.0376
  193ccc     O2 5749   2.326  -0.802   7.001  0.4301 -0.2364 -0.0099
  193ccc    H11 5750   2.309  -0.846   7.086 -0.1666  1.8211  1.0018
  193ccc     C7 5751   2.682  -0.422   7.325  0.2132 -0.0062  0.5995
  193ccc    H12 5752   2.604  -0.349   7.303  0.3091 -0.9738 -3.6935
  193ccc    H13 5753   2.703  -0.404   7.431 -0.1175  0.4927  0.5824
  193ccc     C8 5754   2.803  -0.371   7.250  0.0341 -0.1969  0.6675
  193ccc    H14 5755   2.892  -0.433   7.238  0.2456  0.2184  0.0288
  193ccc    H15 5756   2.766  -0.347   7.150  0.4031  2.8715  1.1500
  193ccc     C9 5757   2.849  -0.237   7.293  0.7656 -0.4808  0.4663
  193ccc     O3 5758   2.817  -0.180   7.393  0.0058  0.9353  0.2757
  193ccc     O4 5759   2.925  -0.180   7.201  0.6445 -0.3018  0.3798
  193ccc    H16 5760   2.933  -0.254   7.139 -2.9909  0.0594 -0.7207
  193ccc     O5 5761   2.571  -0.636   7.702 -0.0360  0.7859 -0.1765
  194ccc     C1 5762   1.020   1.416   7.894  0.6972 -0.2480 -0.1879
  194ccc     H1 5763   0.967   1.329   7.853 -1.0887  0.0390  1.3840
  194ccc     H2 5764   0.956   1.474   7.961 -0.2249 -0.8697 -0.5168
  194ccc     C2 5765   1.048   1.511   7.774 -0.1540 -0.5051 -0.0381
  194ccc     H3 5766   1.075   1.438   7.696 -1.1345 -1.7470  0.7670
  194ccc     H4 5767   1.141   1.568   7.789  0.2851 -1.7241  2.3312
  194ccc     C3 5768   0.927   1.591   7.724  0.0567 -1.0562  1.0321
  194ccc     H5 5769   0.837   1.530   7.711 -1.6201  1.3183  0.9524
  194ccc     H6 5770   0.956   1.622   7.623  0.9993 -1.6961  1.0898
  194ccc     N1 5771   0.897   1.707   7.805 -0.8814  0.5257  0.2180
  194ccc     C4 5772   1.001   1.798   7.852  0.2103 -0.9798  0.2043
  194ccc     H7 5773   1.083   1.746   7.902 -0.0885 -1.0092  0.6617
  194ccc     H8 5774   0.969   1.867   7.932  0.4661 -0.7061  0.0746
  194ccc     C5 5775   1.064   1.881   7.737  0.5798 -0.6011  0.0040
  194ccc     H9 5776   1.113   1.826   7.655  1.5190 -3.2348  2.1461
  194ccc    H10 5777   0.978   1.928   7.688 -0.1483 -1.8612  0.0191
  194ccc     C6 5778   1.153   1.988   7.792 -0.0234  0.1408 -0.4273
  194ccc     O1 5779   1.219   1.976   7.897  0.4978 -0.3283  0.1842
  194ccc     O2 5780   1.184   2.080   7.697  0.6675 -0.3434 -0.0996
  194ccc    H11 5781   1.112   2.074   7.632  1.3526  0.6641 -1.0027
  194ccc     C7 5782   0.772   1.773   7.771  0.2929 -0.3702 -0.4095
  194ccc    H12 5783   0.763   1.864   7.831  0.5616 -0.5255 -0.1290
  194ccc    H13 5784   0.766   1.801   7.665  1.9418  0.8479 -0.2340
  194ccc     C8 5785   0.647   1.690   7.802  0.0367  0.2608  0.6387
  194ccc    H14 5786   0.646   1.588   7.763 -1.2268  0.8173 -0.8693
  194ccc    H15 5787   0.632   1.683   7.911 -0.8982 -0.1299  0.4922
  194ccc     C9 5788   0.524   1.756   7.742 -0.2257  0.2775 -0.1974
  194ccc     O3 5789   0.458   1.821   7.820  0.0230 -0.8609  0.4391
  194ccc     O4 5790   0.532   1.787   7.612 -0.2517 -0.1926 -0.5792
  194ccc    H16 5791   0.582   1.710   7.580  0.7840 -1.6138  3.7929
  194ccc     O5 5792   1.139   1.365   7.955  0.0702 -0.1152  0.1799
  195ccc     C1 5793   1.408   1.391   8.699 -0.2755 -0.0623 -0.1245
  195ccc     H1 5794   1.393   1.293   8.746 -0.1735 -0.5263 -1.0237
  195ccc     H2 5795   1.517   1.396   8.711  0.1981 -1.4165 -2.8214
  195ccc     C2 5796   1.328   1.493   8.771  0.0414  0.9704  0.3228
  195ccc     H3 5797   1.223   1.463   8.758  0.4309  0.4564 -2.1934
  195ccc     H4 5798   1.348   1.588   8.720  0.9884 -0.4214 -2.0675
  195ccc     C3 5799   1.366   1.501   8.922  0.3868 -0.0792  0.0217
  195ccc     H5 5800   1.470   1.534   8.925  0.8977 -1.6131  0.1142
  195ccc     H6 5801   1.373   1.400   8.967 -1.0226 -0.0655  0.3198
  195ccc     N1 5802   1.269   1.577   9.010 -0.1397 -0.2162 -0.3880
  195ccc     C4 5803   1.128   1.552   8.990 -0.3808  0.1157 -0.0835
  195ccc     H7 5804   1.103   1.591   8.891  0.6431 -0.1474 -0.4580
  195ccc     H8 5805   1.077   1.611   9.068  0.0988  0.2127  0.1627
  195ccc     C5 5806   1.091   1.406   8.993  0.4966 -0.2770 -0.3765
  195ccc     H9 5807   0.988   1.400   8.955 -0.3594  2.8021  1.1748
  195ccc    H10 5808   1.147   1.355   8.914 -0.5150  2.0576 -2.7553
  195ccc     C6 5809   1.099   1.333   9.125  0.8647  0.4780 -0.2261
  195ccc     O1 5810   1.145   1.385   9.225  0.4418  0.0990 -0.6564
  195ccc     O2 5811   1.037   1.215   9.136 -0.0473 -0.1805 -0.0244
  195ccc    H11 5812   1.005   1.189   9.048 -1.3576 -1.0590  0.6915
  195ccc     C7 5813   1.310   1.713   9.017  0.0578 -0.5291  0.9237
  195ccc    H12 5814   1.323   1.743   8.912  0.2103 -2.8988  0.2126
  195ccc    H13 5815   1.224   1.775   9.044 -0.9799  0.3552 -3.6036
  195ccc     C8 5816   1.434   1.747   9.106 -0.1695 -1.2550  0.1127
  195ccc    H14 5817   1.429   1.699   9.204 -0.6068  0.0097  0.7383
  195ccc    H15 5818   1.530   1.724   9.058  0.2158 -0.6323  0.5805
  195ccc     C9 5819   1.454   1.894   9.140 -0.7454  0.1317 -0.7164
  195ccc     O3 5820   1.443   1.941   9.250  0.4290 -0.5490  0.1182
  195ccc     O4 5821   1.496   1.970   9.038  0.2583  0.0739  0.3011
  195ccc    H16 5822   1.497   1.911   8.961 -3.2638 -0.3247  0.4048
  195ccc     O5 5823   1.390   1.394   8.550  0.4632 -0.1105  0.6946
  196ccc     C1 5824   0.685   0.018   7.648  0.8102 -0.2923  0.3001
  196ccc     H1 5825   0.712   0.071   7.740  0.7178 -1.4310  0.9984
  196ccc     H2 5826   0.758  -0.063   7.634 -0.4656 -1.7300  1.6387
  196ccc     C2 5827   0.694   0.122   7.532  0.1307 -0.3342  0.2704
  196ccc     H3 5828   0.776   0.189   7.561 -0.8555 -0.3386  3.4690
  196ccc     H4 5829   0.602   0.182   7.524 -0.7233 -1.7819 -1.8420
  196ccc     C3 5830   0.728   0.065   7.391 -1.0905 -0.4798 -0.3505
  196ccc     H5 5831   0.650  -0.006   7.359 -1.9226 -0.5247  1.6272
  196ccc     H6 5832   0.815   0.004   7.417 -0.8327 -0.1066 -0.3355
  196ccc     N1 5833   0.767   0.166   7.283 -0.5235 -0.2302 -0.3887
  196ccc     C4 5834   0.652   0.211   7.199 -0.6618 -0.2338  0.7045
  196ccc     H7 5835   0.625   0.307   7.245 -1.4997 -0.3218  0.4091
  196ccc     H8 5836   0.566   0.145   7.213 -0.3579 -0.5349  1.1955
  196ccc     C5 5837   0.680   0.241   7.047 -0.8891 -0.4370 -0.4715
  196ccc     H9 5838   0.746   0.328   7.046 -0.5714 -0.6798 -0.8154
  196ccc    H10 5839   0.723   0.162   6.985 -2.1557 -1.5951  0.0551
  196ccc     C6 5840   0.561   0.285   6.958 -0.3565 -0.1566  0.1268
  196ccc     O1 5841   0.449   0.249   6.991  0.1529 -0.3088 -0.1676
  196ccc     O2 5842   0.584   0.355   6.852 -0.1031 -0.4101  0.5089
  196ccc    H11 5843   0.680   0.371   6.839 -0.1540 -1.4777 -1.5822
  196ccc     C7 5844   0.871   0.269   7.312  0.2523  0.5437 -0.4292
  196ccc    H12 5845   0.899   0.324   7.221  1.3907 -0.6318 -0.8292
  196ccc    H13 5846   0.820   0.343   7.375  0.0036 -0.1564  0.2053
  196ccc     C8 5847   0.995   0.219   7.389  0.4311  0.1474  0.2273
  196ccc    H14 5848   0.974   0.186   7.492  0.8825 -1.0723 -0.0523
  196ccc    H15 5849   1.050   0.140   7.335  0.6930  0.3061  0.2576
  196ccc     C9 5850   1.094   0.327   7.429 -0.6555  0.5081 -0.6640
  196ccc     O3 5851   1.086   0.435   7.382 -0.2668  0.1671  0.0533
  196ccc     O4 5852   1.210   0.279   7.478  0.5896 -0.2961  0.4485
  196ccc    H16 5853   1.190   0.184   7.488  0.5321 -0.4582 -1.0171
  196ccc     O5 5854   0.549  -0.029   7.656  0.6036  0.0818 -0.7350
  197ccc     C1 5855   0.222   0.374   8.264  0.3222  0.3963  0.3145
  197ccc     H1 5856   0.219   0.331   8.163  1.2779 -0.0200  0.4544
  197ccc     H2 5857   0.126   0.371   8.317  0.5871 -0.4866  0.7600
  197ccc     C2 5858   0.275   0.517   8.255 -0.6359  0.3734 -0.2179
  197ccc     H3 5859   0.216   0.577   8.185  0.4150  2.3283  0.4900
  197ccc     H4 5860   0.376   0.515   8.212 -1.3968  0.9498 -2.1624
  197ccc     C3 5861   0.269   0.588   8.391 -0.1701  0.8343  0.8542
  197ccc     H5 5862   0.323   0.682   8.371  0.0867  0.2185 -1.6958
  197ccc     H6 5863   0.340   0.544   8.462  0.4664 -0.4458 -0.5286
  197ccc     N1 5864   0.147   0.615   8.458  0.3686 -0.4690  0.6319
  197ccc     C4 5865   0.057   0.702   8.391 -0.1731 -0.3306  0.6038
  197ccc     H7 5866   0.118   0.765   8.325 -1.4823 -0.3043 -0.6348
  197ccc     H8 5867   0.003   0.759   8.467  2.0757  1.1410  1.2026
  197ccc     C5 5868  -0.050   0.626   8.295 -0.4298  1.0904 -0.0683
  197ccc     H9 5869  -0.011   0.534   8.249 -1.3498  0.6680 -0.0182
  197ccc    H10 5870  -0.135   0.588   8.353  0.0539  0.8017  0.4573
  197ccc     C6 5871  -0.107   0.714   8.184 -0.5897  0.1356 -0.7503
  197ccc     O1 5872  -0.128   0.831   8.197  0.4661  0.2883  0.7280
  197ccc     O2 5873  -0.119   0.647   8.067 -0.4032 -0.2444  0.3675
  197ccc    H11 5874  -0.119   0.555   8.097 -0.1279 -0.0933  0.8307
  197ccc     C7 5875   0.084   0.501   8.524 -0.5075 -0.7039 -0.3904
  197ccc    H12 5876   0.026   0.441   8.453 -0.2890  1.7767 -2.8090
  197ccc    H13 5877   0.157   0.428   8.562 -1.5351 -1.4260  0.2719
  197ccc     C8 5878  -0.004   0.545   8.644  0.1896 -0.1003 -0.6898
  197ccc    H14 5879   0.054   0.614   8.706 -0.4469  0.1731 -0.3822
  197ccc    H15 5880  -0.095   0.600   8.616 -0.5131 -1.7538 -1.8045
  197ccc     C9 5881  -0.048   0.430   8.727  0.1736  1.1025  0.3821
  197ccc     O3 5882  -0.039   0.311   8.701  0.1014  0.0778 -0.5765
  197ccc     O4 5883  -0.104   0.467   8.835 -0.3022 -0.0224  0.1002
  197ccc    H16 5884  -0.083   0.561   8.846  0.0972 -0.0927 -0.0454
  197ccc     O5 5885   0.315   0.287   8.334  0.0809  0.3884 -0.0498
  198ccc     C1 5886   2.783   2.687   7.079  0.3518 -0.8738 -0.0649
  198ccc     H1 5887   2.703   2.631   7.029 -2.1038  2.4668 -0.2279
  198ccc     H2 5888   2.737   2.786   7.093  0.4611 -0.8251 -0.0412
  198ccc     C2 5889   2.915   2.707   6.995 -0.0701 -0.4997 -0.4634
  198ccc     H3 5890   2.960   2.609   6.976  0.6408 -0.1180 -0.7550
  198ccc     H4 5891   2.987   2.758   7.059  1.3467 -0.1922 -2.2031
  198ccc     C3 5892   2.902   2.785   6.859 -0.0130  0.3430 -0.2755
  198ccc     H5 5893   2.867   2.885   6.889 -0.2464 -0.3877  2.0937
  198ccc     H6 5894   2.815   2.749   6.803 -1.5332  0.2666  1.9980
  198ccc     N1 5895   3.029   2.786   6.782  0.0353  0.4608 -0.0942
  198ccc     C4 5896   3.138   2.863   6.849 -0.1699 -0.3679 -0.5900
  198ccc     H7 5897   3.171   2.812   6.940  0.5648 -1.5907 -1.5107
  198ccc     H8 5898   3.097   2.957   6.887 -1.3856 -0.6332 -1.1864
  198ccc     C5 5899   3.272   2.872   6.774 -0.3539  0.4546  1.3105
  198ccc     H9 5900   3.304   2.771   6.745 -1.0605  0.5681  0.0296
  198ccc    H10 5901   3.264   2.925   6.678  0.3874  0.6456  1.3462
  198ccc     C6 5902   3.390   2.918   6.855 -0.8768  0.1151 -0.1919
  198ccc     O1 5903   3.384   3.017   6.923  0.4514  0.0197 -0.2652
  198ccc     O2 5904   3.510   2.876   6.812 -0.2886  0.0077 -0.2387
  198ccc    H11 5905   3.490   2.796   6.761  3.8038 -0.4171 -1.5546
  198ccc     C7 5906   3.011   2.806   6.635 -0.2072  0.2399  0.3314
  198ccc    H12 5907   2.976   2.909   6.625 -0.2601  0.4604  2.3076
  198ccc    H13 5908   3.113   2.791   6.599  0.6083  0.4915  2.3887
  198ccc     C8 5909   2.912   2.710   6.574  0.1810 -0.0046 -0.0082
  198ccc    H14 5910   2.924   2.612   6.621 -2.3613 -0.3979 -0.0201
  198ccc    H15 5911   2.815   2.759   6.593  0.6056  0.2100  1.8159
  198ccc     C9 5912   2.931   2.684   6.424  0.0769 -0.4048  0.4557
  198ccc     O3 5913   3.037   2.714   6.371 -0.5945  0.0227 -0.2747
  198ccc     O4 5914   2.815   2.656   6.355  0.4620  0.4111  0.4491
  198ccc    H16 5915   2.742   2.655   6.419  0.4819  0.6201  0.4746
  198ccc     O5 5916   2.825   2.618   7.197 -0.3327 -0.4731 -0.3438
  199ccc     C1 5917   2.819   1.814   7.577 -0.1641  0.3255  0.4329
  199ccc     H1 5918   2.762   1.850   7.663 -0.0927  0.5161  0.4009
  199ccc     H2 5919   2.758   1.742   7.520  0.1373 -0.2447  0.8167
  199ccc     C2 5920   2.951   1.760   7.622 -1.0073  0.4618  0.4308
  199ccc     H3 5921   3.012   1.848   7.644 -1.0345  0.4320  0.6265
  199ccc     H4 5922   2.999   1.703   7.541 -0.2561  1.0851  0.4278
  199ccc     C3 5923   2.942   1.676   7.744 -0.3672 -0.1541 -0.1777
  199ccc     H5 5924   3.038   1.624   7.753  0.6832  1.8802  1.1867
  199ccc     H6 5925   2.861   1.602   7.732 -0.4853  0.0211 -0.4671
  199ccc     N1 5926   2.905   1.767   7.861  0.0542  0.4358 -0.4183
  199ccc     C4 5927   2.823   1.700   7.965 -0.0377  0.1768 -0.0440
  199ccc     H7 5928   2.730   1.668   7.917  1.0749 -1.4629 -1.2283
  199ccc     H8 5929   2.795   1.774   8.041 -0.1402  0.8028 -0.6821
  199ccc     C5 5930   2.898   1.578   8.022 -0.5693 -0.3337  0.1924
  199ccc     H9 5931   2.924   1.508   7.942 -1.7457  2.1940 -2.6039
  199ccc    H10 5932   2.997   1.613   8.054 -0.9703 -0.7144  1.9453
  199ccc     C6 5933   2.825   1.514   8.141 -0.2487  0.2149  0.0234
  199ccc     O1 5934   2.711   1.537   8.165  0.1198 -0.3226  0.6066
  199ccc     O2 5935   2.867   1.392   8.172  0.5138 -0.9522 -0.0037
  199ccc    H11 5936   2.950   1.377   8.124  0.2798 -0.0086 -0.7412
  199ccc     C7 5937   3.019   1.847   7.914  0.4645  0.7451  0.2229
  199ccc    H12 5938   3.094   1.782   7.961  1.1312  0.0716 -1.6778
  199ccc    H13 5939   3.063   1.901   7.829 -1.0817  2.5693  0.5056
  199ccc     C8 5940   2.970   1.954   8.020  0.1490 -0.0693  0.3472
  199ccc    H14 5941   2.895   2.019   7.973 -1.1976 -2.1529 -0.5525
  199ccc    H15 5942   2.918   1.914   8.108 -0.1294 -2.9366 -1.0120
  199ccc     C9 5943   3.096   2.026   8.066 -0.6613  0.1673 -0.6402
  199ccc     O3 5944   3.195   2.032   7.996 -0.2774  0.9088  0.6206
  199ccc     O4 5945   3.081   2.093   8.178  0.4968 -0.6160  0.0688
  199ccc    H16 5946   2.984   2.098   8.181  0.4982 -0.4457 -0.1932
  199ccc     O5 5947   2.853   1.930   7.501  0.3115  0.0270 -0.1087
  200ccc     C1 5948   2.576   3.185   7.950  1.2969  0.1025  0.1157
  200ccc     H1 5949   2.624   3.273   7.995  2.1387  0.7414 -1.9119
  200ccc     H2 5950   2.592   3.207   7.844 -0.0179  2.3510  0.3327
  200ccc     C2 5951   2.422   3.183   7.993  0.0359  0.0998 -0.1316
  200ccc     H3 5952   2.420   3.179   8.102  0.1776 -2.8147 -0.1456
  200ccc     H4 5953   2.379   3.085   7.968  0.0430 -0.6106  2.4062
  200ccc     C3 5954   2.352   3.306   7.932 -0.5366  0.3034  0.1981
  200ccc     H5 5955   2.383   3.335   7.831  0.9076 -0.7073  0.3201
  200ccc     H6 5956   2.377   3.395   7.992  1.1170  2.1224 -2.9341
  200ccc     N1 5957   2.200   3.295   7.934  0.3129 -0.4166 -0.0232
  200ccc     C4 5958   2.143   3.424   7.884  0.1307  0.0801 -0.2550
  200ccc     H7 5959   2.140   3.429   7.774  1.0070  1.8566 -0.2456
  200ccc     H8 5960   2.207   3.509   7.913  0.3587  0.1724 -0.9977
  200ccc     C5 5961   1.998   3.448   7.923 -0.2003 -0.0878  0.4643
  200ccc     H9 5962   1.953   3.533   7.870 -0.1008 -1.0533 -1.2740
  200ccc    H10 5963   1.931   3.364   7.898  0.0285 -0.3650  0.7879
  200ccc     C6 5964   1.975   3.474   8.072 -0.0699 -0.2135  0.0001
  200ccc     O1 5965   1.925   3.395   8.149 -0.0348  0.0917  0.2668
  200ccc     O2 5966   1.985   3.604   8.105 -0.1223  0.1990  0.6386
  200ccc    H11 5967   2.041   3.645   8.038 -0.1045  0.6083  0.9033
  200ccc     C7 5968   2.141   3.174   7.863 -0.1383  0.0783  0.0682
  200ccc    H12 5969   2.171   3.087   7.922  0.0320 -0.2222 -0.4519
  200ccc    H13 5970   2.031   3.181   7.860 -0.1238  0.1677 -2.0028
  200ccc     C8 5971   2.186   3.166   7.713 -0.2121  0.3389  0.8181
  200ccc    H14 5972   2.141   3.245   7.651  0.3034  0.1108  0.1429
  200ccc    H15 5973   2.295   3.174   7.704 -0.3767  2.5630  0.3213
  200ccc     C9 5974   2.139   3.035   7.655  0.2122  0.2023  0.2310
  200ccc     O3 5975   2.205   2.935   7.669 -0.3733 -0.5223 -0.4783
  200ccc     O4 5976   2.007   3.033   7.637  0.5697  0.0532 -0.7396
  200ccc    H16 5977   1.967   3.121   7.635 -1.5392 -0.8444 -0.5430
  200ccc     O5 5978   2.640   3.065   7.997  0.8472 -0.4011 -1.3561
  201ccc     C1 5979   3.308   2.755   7.963  0.7708 -0.0044 -0.6797
  201ccc     H1 5980   3.336   2.751   7.857  0.1302 -0.9000 -0.8263
  201ccc     H2 5981   3.348   2.846   8.009  0.2795 -0.1185 -0.0198
  201ccc     C2 5982   3.356   2.631   8.044  0.7348 -0.5690  0.3025
  201ccc     H3 5983   3.325   2.644   8.149  1.9006 -0.1040  0.6022
  201ccc     H4 5984   3.464   2.647   8.053  0.8965 -1.5468  0.1708
  201ccc     C3 5985   3.316   2.492   7.995  0.2091  0.9108  0.1879
  201ccc     H5 5986   3.209   2.499   7.972  0.3543 -0.7782 -1.1346
  201ccc     H6 5987   3.317   2.424   8.081  1.2119  0.6370 -0.0388
  201ccc     N1 5988   3.376   2.457   7.863  0.6247  0.5254  0.1471
  201ccc     C4 5989   3.341   2.318   7.817  0.4547  0.0235  0.0026
  201ccc     H7 5990   3.355   2.253   7.904 -2.7961  0.1592  0.7627
  201ccc     H8 5991   3.398   2.282   7.731  0.5466  0.0150  0.0664
  201ccc     C5 5992   3.189   2.299   7.790 -0.2584  0.1266  0.0355
  201ccc     H9 5993   3.168   2.196   7.756  0.4009  0.0861 -0.2796
  201ccc    H10 5994   3.121   2.316   7.874  0.1571  0.7317  0.2540
  201ccc     C6 5995   3.133   2.385   7.678 -0.0361 -0.2616 -0.3154
  201ccc     O1 5996   3.203   2.457   7.605  0.0858  0.4947 -0.0512
  201ccc     O2 5997   3.008   2.357   7.638  0.3307  0.2995  0.2311
  201ccc    H11 5998   2.974   2.276   7.679 -0.9888  0.3590 -0.6777
  201ccc     C7 5999   3.525   2.478   7.844  0.7103 -0.0704  0.8545
  201ccc    H12 6000   3.574   2.561   7.896  0.9031  0.7054 -0.5239
  201ccc    H13 6001   3.585   2.393   7.876  0.3792 -0.2819  0.9224
  201ccc     C8 6002   3.578   2.493   7.695 -0.2040  0.3428 -0.5382
  201ccc    H14 6003   3.543   2.401   7.645  0.1701 -1.4904  2.3136
  201ccc    H15 6004   3.527   2.573   7.640 -0.3321 -1.7954 -3.8616
  201ccc     C9 6005   3.733   2.501   7.679 -0.3388  0.6395 -0.4347
  201ccc     O3 6006   3.807   2.448   7.761 -0.6624 -0.2071  0.5739
  201ccc     O4 6007   3.771   2.531   7.547 -0.0957  0.5854  0.3290
  201ccc    H16 6008   3.868   2.520   7.554 -0.1704 -0.4935 -0.1717
  201ccc     O5 6009   3.157   2.757   7.976 -0.4775  0.5894 -0.4579
  202ccc     C1 6010   1.086   2.327   8.054  0.3050  0.3098  0.1602
  202ccc     H1 6011   1.052   2.374   7.961  0.1381  2.2650  1.1674
  202ccc     H2 6012   1.089   2.219   8.034 -1.2668 -0.0245  1.5288
  202ccc     C2 6013   0.979   2.345   8.164  0.0769  0.5905  0.3097
  202ccc     H3 6014   1.020   2.315   8.262  0.6005 -0.6909 -0.2878
  202ccc     H4 6015   0.908   2.265   8.139  1.7414 -0.7479 -0.3531
  202ccc     C3 6016   0.904   2.476   8.157 -0.0694 -0.3488 -0.3252
  202ccc     H5 6017   0.819   2.470   8.226  0.3906  0.2085  0.3050
  202ccc     H6 6018   0.868   2.479   8.054 -1.8512 -2.4114  0.1638
  202ccc     N1 6019   0.996   2.588   8.188 -0.0987 -0.0116 -0.1961
  202ccc     C4 6020   0.953   2.722   8.142  0.8924  0.3969  0.1958
  202ccc     H7 6021   1.017   2.799   8.187  0.2920  0.7891  0.3915
  202ccc     H8 6022   0.846   2.740   8.158  0.3533 -1.9031 -0.3550
  202ccc     C5 6023   0.972   2.729   7.990  0.0242  0.0983  0.9529
  202ccc     H9 6024   1.076   2.704   7.962 -0.2317 -0.3894  0.4156
  202ccc    H10 6025   0.909   2.659   7.933  2.0263  0.2117 -1.5999
  202ccc     C6 6026   0.935   2.861   7.922 -0.5190  0.2112 -0.0839
  202ccc     O1 6027   0.883   2.950   7.979  0.2252 -0.1702  0.2795
  202ccc     O2 6028   0.940   2.855   7.787 -0.6111 -0.1210  0.3219
  202ccc    H11 6029   0.965   2.765   7.760  1.7295  0.9902 -1.5675
  202ccc     C7 6030   1.054   2.587   8.325  0.3245 -0.0164 -0.1248
  202ccc    H12 6031   1.096   2.489   8.352 -1.3008 -0.4867  0.8414
  202ccc    H13 6032   1.138   2.656   8.345 -0.4356  0.0814  3.2907
  202ccc     C8 6033   0.941   2.612   8.427  0.3180  0.6481  0.0095
  202ccc    H14 6034   0.908   2.716   8.418 -0.4739  0.5473  1.4433
  202ccc    H15 6035   0.853   2.547   8.430 -1.0248  2.4169  2.5333
  202ccc     C9 6036   0.988   2.598   8.577  0.3038  0.4683  0.3178
  202ccc     O3 6037   1.110   2.604   8.597  0.9923  0.1070 -0.1301
  202ccc     O4 6038   0.894   2.570   8.667  0.1188  0.0006 -0.1166
  202ccc    H16 6039   0.805   2.594   8.636  0.0088 -0.4347 -0.1378
  202ccc     O5 6040   1.224   2.369   8.095  0.1801 -0.7621 -0.2127
  203ccc     C1 6041   0.899   2.578   7.534 -0.9755  0.0615 -0.4901
  203ccc     H1 6042   0.925   2.478   7.495  1.5506  0.0696  0.9286
  203ccc     H2 6043   0.798   2.567   7.574 -1.1204  1.2408 -0.5046
  203ccc     C2 6044   0.923   2.689   7.438  0.9302  0.0829  0.3552
  203ccc     H3 6045   1.021   2.672   7.394  0.0360 -2.0564 -0.9729
  203ccc     H4 6046   0.914   2.787   7.486 -1.0944  0.0764  0.0859
  203ccc     C3 6047   0.811   2.686   7.325 -0.0119  0.3050  0.1433
  203ccc     H5 6048   0.714   2.701   7.373 -0.1269  1.2640 -0.3679
  203ccc     H6 6049   0.804   2.591   7.271  1.2450  0.1786  0.1714
  203ccc     N1 6050   0.842   2.787   7.223 -0.0446  0.1964 -0.0003
  203ccc     C4 6051   0.977   2.757   7.157  0.3844 -0.3547  1.0658
  203ccc     H7 6052   0.991   2.650   7.137  3.3993  0.4421 -1.8794
  203ccc     H8 6053   1.061   2.777   7.225  0.9668 -1.6925  0.7793
  203ccc     C5 6054   1.001   2.836   7.022 -0.2802  0.0270 -0.4406
  203ccc     H9 6055   0.920   2.828   6.948  0.0268 -0.1455 -0.7602
  203ccc    H10 6056   1.025   2.940   7.048  0.0064  0.3749 -1.9843
  203ccc     C6 6057   1.123   2.785   6.946  0.1353 -0.8272  0.0547
  203ccc     O1 6058   1.212   2.715   6.992 -0.0310  0.3111  0.2197
  203ccc     O2 6059   1.135   2.850   6.835  0.1392  0.4578  0.1803
  203ccc    H11 6060   1.053   2.901   6.820 -0.0782 -0.4248 -2.0176
  203ccc     C7 6061   0.814   2.930   7.250  0.1234  0.5974 -0.8867
  203ccc    H12 6062   0.857   2.962   7.346  1.1239  0.2097 -1.1906
  203ccc    H13 6063   0.839   2.995   7.165 -3.0309  1.1052 -1.5486
  203ccc     C8 6064   0.663   2.957   7.273  0.5946 -0.2976  0.3819
  203ccc    H14 6065   0.621   2.920   7.178  0.4445 -0.1762  0.4006
  203ccc    H15 6066   0.609   2.902   7.351 -4.2264 -1.2362 -3.1144
  203ccc     C9 6067   0.625   3.102   7.291 -0.3059 -0.5630  0.0247
  203ccc     O3 6068   0.700   3.193   7.318 -0.0605  0.3468 -0.1921
  203ccc     O4 6069   0.495   3.126   7.294  0.5535 -0.4137 -0.3091
  203ccc    H16 6070   0.446   3.042   7.284  0.6086 -0.7973  1.9600
  203ccc     O5 6071   0.977   2.612   7.651  0.2362  0.4629 -0.0527
  204ccc     C1 6072   1.148   3.020   8.652 -0.3140 -1.1755 -0.1892
  204ccc     H1 6073   1.083   2.954   8.712 -1.0257 -2.2359 -2.0460
  204ccc     H2 6074   1.228   3.068   8.710 -1.2587 -0.1052  0.2485
  204ccc     C2 6075   1.054   3.116   8.570  0.0177  0.4389 -0.0754
  204ccc     H3 6076   1.112   3.194   8.520 -1.5473  1.7871  0.1287
  204ccc     H4 6077   0.989   3.173   8.638  0.6206  0.0486  0.8419
  204ccc     C3 6078   0.963   3.031   8.477  0.1816 -0.4116  0.1928
  204ccc     H5 6079   0.897   2.963   8.533 -0.6119 -2.1195 -2.6287
  204ccc     H6 6080   1.025   2.963   8.419 -1.7268 -0.7111 -1.6117
  204ccc     N1 6081   0.880   3.111   8.390  0.2135  0.5533  0.3555
  204ccc     C4 6082   0.795   3.027   8.307  0.5119 -0.6455  0.1474
  204ccc     H7 6083   0.757   2.940   8.363  0.3043 -1.9519 -1.9307
  204ccc     H8 6084   0.848   2.990   8.219  0.4582  2.3907 -1.3003
  204ccc     C5 6085   0.667   3.102   8.250  0.7575  0.1283  0.3258
  204ccc     H9 6086   0.624   3.162   8.331  0.5952  1.1778 -0.5116
  204ccc    H10 6087   0.696   3.172   8.170  0.3018 -2.0922 -1.8965
  204ccc     C6 6088   0.560   3.005   8.196  0.1571  0.6133 -0.5637
  204ccc     O1 6089   0.577   2.892   8.154 -0.2482  0.2689 -0.2194
  204ccc     O2 6090   0.435   3.050   8.209 -0.0496 -0.2224 -0.6899
  204ccc    H11 6091   0.439   3.126   8.270  0.7534 -0.7491 -0.0730
  204ccc     C7 6092   0.960   3.218   8.317 -0.4865  0.2606  0.0997
  204ccc    H12 6093   0.897   3.267   8.241  0.6193 -1.4209 -1.9952
  204ccc    H13 6094   0.995   3.294   8.387 -0.0693  0.8379 -0.7079
  204ccc     C8 6095   1.077   3.164   8.236  0.1821 -0.4617  1.2448
  204ccc    H14 6096   1.139   3.093   8.291  1.9519  0.0081 -0.0553
  204ccc    H15 6097   1.042   3.114   8.145  1.5340  0.1582  0.3452
  204ccc     C9 6098   1.172   3.275   8.196 -0.9087 -0.1780  0.1250
  204ccc     O3 6099   1.286   3.292   8.235 -0.3875  0.0950 -0.2012
  204ccc     O4 6100   1.121   3.364   8.102  0.1752 -0.0477  0.1810
  204ccc    H16 6101   1.033   3.330   8.078  0.4608 -0.7473  0.0995
  204ccc     O5 6102   1.215   2.922   8.562  0.2554  0.0103 -0.2095
  205ccc     C1 6103   1.155   3.133   7.832 -0.0717 -0.1218 -0.5099
  205ccc     H1 6104   1.068   3.068   7.850  1.6074 -3.0137 -2.0328
  205ccc     H2 6105   1.129   3.237   7.854  1.0386  0.1505 -0.4267
  205ccc     C2 6106   1.224   3.122   7.691 -0.2212 -0.0511  0.2126
  205ccc     H3 6107   1.253   3.017   7.688 -2.4017 -0.7421  1.1445
  205ccc     H4 6108   1.308   3.191   7.677 -1.5075  1.1904 -1.8355
  205ccc     C3 6109   1.118   3.140   7.577  0.7792  0.3753  0.1738
  205ccc     H5 6110   1.040   3.204   7.619  1.9205  2.2213 -0.4020
  205ccc     H6 6111   1.063   3.047   7.559  2.5510 -0.5814 -0.5237
  205ccc     N1 6112   1.169   3.193   7.452 -0.1032 -0.5874  0.2637
  205ccc     C4 6113   1.285   3.125   7.389  0.7931  0.0829  0.1384
  205ccc     H7 6114   1.367   3.107   7.460 -0.4555 -0.3893  1.5317
  205ccc     H8 6115   1.322   3.198   7.316 -3.2300  0.9156 -1.3538
  205ccc     C5 6116   1.258   2.991   7.316  0.8727 -0.4297  0.9296
  205ccc     H9 6117   1.228   2.928   7.401  0.5678  0.2068  1.3074
  205ccc    H10 6118   1.171   3.003   7.251  0.0595  2.3982  2.3506
  205ccc     C6 6119   1.391   2.942   7.256  0.5956  0.1576 -0.3490
  205ccc     O1 6120   1.431   2.970   7.145 -0.5001 -0.1662 -0.0503
  205ccc     O2 6121   1.460   2.872   7.341  0.4860 -0.3351  0.1972
  205ccc    H11 6122   1.409   2.873   7.424 -0.6039 -0.3731 -0.4614
  205ccc     C7 6123   1.058   3.229   7.361 -0.1803 -0.0547  0.4971
  205ccc    H12 6124   0.996   3.139   7.348  3.2691 -2.2815 -2.0334
  205ccc    H13 6125   1.002   3.309   7.413  1.4956  0.3389  1.7957
  205ccc     C8 6126   1.088   3.280   7.221 -0.2105 -0.6150  0.2532
  205ccc    H14 6127   1.137   3.378   7.221 -1.3244 -0.0206 -1.2221
  205ccc    H15 6128   1.146   3.209   7.161 -3.0094 -0.3378 -3.0428
  205ccc     C9 6129   0.966   3.311   7.141  0.0037  1.6692 -0.3428
  205ccc     O3 6130   0.924   3.231   7.055 -0.0100 -0.1593 -0.0076
  205ccc     O4 6131   0.884   3.406   7.178 -0.4453  0.0455  0.6049
  205ccc    H16 6132   0.930   3.438   7.258  2.1446 -1.5938 -0.0876
  205ccc     O5 6133   1.254   3.096   7.928 -0.5789 -0.2084  0.1341
  206ccc     C1 6134   2.674   1.295   4.384  0.8242 -0.0807  0.6591
  206ccc     H1 6135   2.682   1.384   4.320 -0.8287 -1.1236 -1.1329
  206ccc     H2 6136   2.726   1.216   4.327  0.1402  0.0351 -0.1504
  206ccc     C2 6137   2.524   1.266   4.405 -0.0864 -0.3322 -0.0539
  206ccc     H3 6138   2.469   1.351   4.449  1.4062  1.0855 -0.8488
  206ccc     H4 6139   2.509   1.185   4.479  0.4779  0.0987  0.5420
  206ccc     C3 6140   2.467   1.232   4.271 -0.1683  0.1083 -0.6319
  206ccc     H5 6141   2.488   1.318   4.206 -0.3290  1.0502  0.5232
  206ccc     H6 6142   2.357   1.226   4.269 -0.1146 -2.4306  0.2354
  206ccc     N1 6143   2.529   1.116   4.199 -0.6053 -0.1661  0.0375
  206ccc     C4 6144   2.560   1.136   4.055  0.0589  0.4617 -0.7060
  206ccc     H7 6145   2.465   1.172   4.014 -0.7823 -0.7940  0.0694
  206ccc     H8 6146   2.580   1.045   3.996  0.1640  1.6824 -2.6523
  206ccc     C5 6147   2.672   1.234   4.024 -0.7230 -0.8169  0.6442
  206ccc     H9 6148   2.699   1.307   4.101 -2.7001  1.1324 -0.4077
  206ccc    H10 6149   2.763   1.173   4.036 -0.1159 -0.0766 -0.0669
  206ccc     C6 6150   2.663   1.306   3.891 -0.1226  0.5688 -0.4932
  206ccc     O1 6151   2.636   1.426   3.882 -0.3080 -0.1631 -0.2212
  206ccc     O2 6152   2.705   1.245   3.779  0.7758  0.4911 -0.2469
  206ccc    H11 6153   2.716   1.153   3.807 -1.0469  0.1593 -0.5040
  206ccc     C7 6154   2.479   0.987   4.251 -1.0037  0.0202  0.9468
  206ccc    H12 6155   2.498   0.983   4.359 -1.4339 -0.2122  1.0185
  206ccc    H13 6156   2.372   0.978   4.227 -1.1418  2.2516  0.4846
  206ccc     C8 6157   2.547   0.855   4.186  0.4556 -0.1199 -0.1022
  206ccc    H14 6158   2.510   0.769   4.244 -2.0869  0.4790 -0.7263
  206ccc    H15 6159   2.506   0.834   4.086  0.9917 -0.9507 -0.1623
  206ccc     C9 6160   2.694   0.846   4.186 -0.4737 -0.9924  0.5299
  206ccc     O3 6161   2.772   0.922   4.245  0.0349  0.4877  0.3068
  206ccc     O4 6162   2.738   0.733   4.137 -0.1326 -0.1765  0.0643
  206ccc    H16 6163   2.833   0.747   4.120 -0.0249  0.3418  1.0441
  206ccc     O5 6164   2.744   1.309   4.505  0.1876 -0.7354 -1.3528
  207ccc     C1 6165   2.906   1.669   5.332  0.0522  0.6895 -0.0213
  207ccc     H1 6166   2.816   1.729   5.353 -1.0890  0.0465 -2.6576
  207ccc     H2 6167   2.957   1.647   5.426  1.0507 -0.2871 -0.7675
  207ccc     C2 6168   3.003   1.736   5.233  0.1111  0.0644 -0.5686
  207ccc     H3 6169   2.943   1.761   5.145  0.5851 -1.6214 -1.4045
  207ccc     H4 6170   3.083   1.665   5.211 -0.0350 -0.0195 -0.8286
  207ccc     C3 6171   3.049   1.871   5.298 -0.0566 -0.0427 -0.2802
  207ccc     H5 6172   3.116   1.845   5.381 -1.0113 -2.1461 -0.1102
  207ccc     H6 6173   2.957   1.915   5.339 -2.3166 -1.2785 -3.5610
  207ccc     N1 6174   3.114   1.965   5.196 -0.2870 -0.2453 -0.7796
  207ccc     C4 6175   3.123   2.105   5.243 -0.4634  0.4317  0.3988
  207ccc     H7 6176   3.218   2.130   5.292 -0.6078  2.5239 -0.2967
  207ccc     H8 6177   3.038   2.136   5.305 -1.2161 -1.0134  0.1571
  207ccc     C5 6178   3.106   2.205   5.131 -0.8939  0.3111 -0.0611
  207ccc     H9 6179   3.197   2.219   5.072 -0.5151 -1.3087  0.0965
  207ccc    H10 6180   3.041   2.159   5.057 -1.4250  1.6679 -0.4715
  207ccc     C6 6181   3.052   2.343   5.176 -0.0367  0.1335  0.0345
  207ccc     O1 6182   3.010   2.362   5.287  0.3229 -0.0759 -0.4821
  207ccc     O2 6183   3.058   2.424   5.071 -0.2567  0.4209  0.2683
  207ccc    H11 6184   3.093   2.368   4.999 -1.0351  0.8719 -0.4723
  207ccc     C7 6185   3.225   1.920   5.111 -0.0914  0.6195  0.2858
  207ccc    H12 6186   3.180   1.851   5.039 -0.3188  1.5802 -0.5111
  207ccc    H13 6187   3.266   2.005   5.054 -2.4341  1.3180 -0.4411
  207ccc     C8 6188   3.340   1.852   5.195 -0.5192  0.0129  0.0860
  207ccc    H14 6189   3.346   1.899   5.294 -0.8616  0.7966 -0.2611
  207ccc    H15 6190   3.309   1.748   5.212 -2.7219  0.8552  1.6710
  207ccc     C9 6191   3.480   1.859   5.129  0.4654  0.4222  0.1328
  207ccc     O3 6192   3.488   1.817   5.017 -0.2095 -0.0255  0.5819
  207ccc     O4 6193   3.566   1.938   5.197  0.0423  0.2499  0.5191
  207ccc    H16 6194   3.539   1.965   5.287  0.0901 -0.0786  0.6341
  207ccc     O5 6195   2.857   1.539   5.281 -0.3583 -0.0924 -0.3055
  208ccc     C1 6196   1.216   0.240   4.835  0.1990 -0.2598  0.1966
  208ccc     H1 6197   1.243   0.343   4.859  2.5562 -0.7837  0.0049
  208ccc     H2 6198   1.107   0.227   4.829  0.3106 -0.4693 -1.9819
  208ccc     C2 6199   1.278   0.140   4.936 -0.2847 -0.4725  0.7755
  208ccc     H3 6200   1.350   0.192   5.001  0.6781 -0.6748 -0.1090
  208ccc     H4 6201   1.337   0.073   4.873 -2.2360 -0.6722 -0.9582
  208ccc     C3 6202   1.183   0.058   5.023  0.1311  0.2546  0.7383
  208ccc     H5 6203   1.115  -0.002   4.960 -0.1121 -0.6137  1.8061
  208ccc     H6 6204   1.110   0.117   5.080 -1.8992 -2.4344  1.1367
  208ccc     N1 6205   1.251  -0.054   5.098 -0.1064  0.2538 -0.3553
  208ccc     C4 6206   1.274  -0.023   5.247 -0.5100 -0.0706  0.2491
  208ccc     H7 6207   1.314   0.079   5.254 -0.4514  0.0888 -1.8053
  208ccc     H8 6208   1.340  -0.097   5.295  1.4687  0.4467 -1.5182
  208ccc     C5 6209   1.137  -0.037   5.318  0.4284  0.1134  0.2469
  208ccc     H9 6210   1.140   0.004   5.419 -2.6803  2.0287 -0.3019
  208ccc    H10 6211   1.070   0.026   5.258  2.6310  0.2207 -2.2768
  208ccc     C6 6212   1.066  -0.176   5.318 -0.4736  0.3165  0.3106
  208ccc     O1 6213   1.113  -0.273   5.377 -0.2491 -0.0435  0.3400
  208ccc     O2 6214   0.943  -0.177   5.263 -0.0987  0.1201 -0.3942
  208ccc    H11 6215   0.932  -0.091   5.218 -3.3939  0.5035  0.8571
  208ccc     C7 6216   1.351  -0.143   5.030  0.1998  0.4863  0.4274
  208ccc    H12 6217   1.315  -0.171   4.931 -0.6627  0.7455  0.6533
  208ccc    H13 6218   1.441  -0.085   5.006 -0.4125  0.5971 -1.8222
  208ccc     C8 6219   1.390  -0.268   5.114  0.1408  0.3991 -0.0695
  208ccc    H14 6220   1.453  -0.238   5.199  0.3562  2.9058 -1.0152
  208ccc    H15 6221   1.302  -0.312   5.162  0.7390 -1.1196 -0.3138
  208ccc     C9 6222   1.468  -0.369   5.037 -0.2755  0.5511  0.2655
  208ccc     O3 6223   1.587  -0.382   5.043 -0.3032  0.1287 -0.6681
  208ccc     O4 6224   1.391  -0.452   4.957 -0.1970 -0.6376 -0.1200
  208ccc    H16 6225   1.300  -0.435   4.986  0.2283  2.1266 -0.1432
  208ccc     O5 6226   1.272   0.222   4.701  0.1331 -0.2012 -0.2488
  209ccc     C1 6227   1.574   0.593   5.148 -0.1919 -0.0290  0.4889
  209ccc     H1 6228   1.503   0.510   5.147  1.0930 -1.1971 -1.6602
  209ccc     H2 6229   1.682   0.572   5.158 -0.1407  1.1666  3.2412
  209ccc     C2 6230   1.542   0.688   5.265  0.2457 -0.1246  0.0321
  209ccc     H3 6231   1.438   0.714   5.240  0.0112  0.8725  1.8957
  209ccc     H4 6232   1.603   0.778   5.252  1.8471 -1.4121 -1.8097
  209ccc     C3 6233   1.564   0.624   5.406  0.2071  0.6398 -0.2737
  209ccc     H5 6234   1.672   0.628   5.423  0.3105 -3.6643  1.0573
  209ccc     H6 6235   1.521   0.524   5.399  5.5366 -2.0251 -0.1582
  209ccc     N1 6236   1.486   0.695   5.510  0.1499  0.2981 -0.2325
  209ccc     C4 6237   1.455   0.606   5.624 -0.3097  0.2122  0.4221
  209ccc     H7 6238   1.425   0.509   5.582 -1.3636  0.9858 -0.6774
  209ccc     H8 6239   1.364   0.637   5.677 -1.4580  1.0770 -1.8980
  209ccc     C5 6240   1.575   0.572   5.717 -0.2131  0.0584  0.5961
  209ccc     H9 6241   1.667   0.546   5.664 -1.3791  1.2619 -2.2310
  209ccc    H10 6242   1.603   0.669   5.761 -1.4271  0.8336 -0.2654
  209ccc     C6 6243   1.541   0.467   5.828  0.5072 -0.9930 -0.5753
  209ccc     O1 6244   1.459   0.481   5.921  0.1970  0.0856 -0.0842
  209ccc     O2 6245   1.578   0.350   5.783 -0.3439  0.4448  0.3256
  209ccc    H11 6246   1.634   0.366   5.705  0.0886 -1.0372  0.2881
  209ccc     C7 6247   1.529   0.831   5.541  0.5870  0.1936 -0.4386
  209ccc    H12 6248   1.629   0.834   5.586 -0.2381  3.1133  1.5014
  209ccc    H13 6249   1.529   0.891   5.449 -1.0637  1.2482  0.2042
  209ccc     C8 6250   1.440   0.915   5.639  0.2745  0.0228  0.5446
  209ccc    H14 6251   1.335   0.898   5.615 -0.1166 -0.9575  2.7468
  209ccc    H15 6252   1.452   0.878   5.741  0.1542  0.7152  0.8100
  209ccc     C9 6253   1.473   1.061   5.637 -0.2785  0.8225  0.4372
  209ccc     O3 6254   1.559   1.113   5.570 -0.3237 -0.4456  0.3739
  209ccc     O4 6255   1.389   1.133   5.710 -0.2359 -0.3073  0.1703
  209ccc    H16 6256   1.320   1.076   5.748 -1.3845  0.8639 -0.0894
  209ccc     O5 6257   1.559   0.659   5.018 -0.0997 -0.5688 -0.0233
  210ccc     C1 6258   3.501  -0.573   5.726  0.7471 -0.0896  0.2337
  210ccc     H1 6259   3.437  -0.499   5.776  2.5120  1.6005  0.1136
  210ccc     H2 6260   3.457  -0.602   5.629  1.5476 -1.1231  0.1612
  210ccc     C2 6261   3.493  -0.694   5.822  0.0369 -0.0975 -0.3177
  210ccc     H3 6262   3.552  -0.672   5.912  0.5122  0.4119 -0.7509
  210ccc     H4 6263   3.548  -0.781   5.785 -1.6738 -1.8910  1.1178
  210ccc     C3 6264   3.345  -0.735   5.854  0.5885  0.1052  0.0078
  210ccc     H5 6265   3.348  -0.825   5.916 -1.8053 -1.2706 -1.6950
  210ccc     H6 6266   3.308  -0.775   5.758 -0.0727  2.0456 -0.5967
  210ccc     N1 6267   3.256  -0.627   5.903  0.0864  0.4082 -0.2960
  210ccc     C4 6268   3.115  -0.669   5.924 -0.3657 -0.0585  0.0372
  210ccc     H7 6269   3.060  -0.584   5.966  0.6339 -0.3186  2.0388
  210ccc     H8 6270   3.094  -0.750   5.995  0.7145  0.0305  0.4783
  210ccc     C5 6271   3.038  -0.703   5.793  0.1029 -0.0828 -0.3123
  210ccc     H9 6272   3.067  -0.625   5.721 -0.0745  0.6811  0.4250
  210ccc    H10 6273   3.057  -0.802   5.752 -1.0657 -1.0832  1.4422
  210ccc     C6 6274   2.887  -0.698   5.825 -0.2018  0.0539 -0.0948
  210ccc     O1 6275   2.830  -0.593   5.837 -0.0852  0.0498 -0.2480
  210ccc     O2 6276   2.829  -0.812   5.865  0.4063 -0.4429 -0.8124
  210ccc    H11 6277   2.888  -0.882   5.832  0.5282 -0.7505  0.0444
  210ccc     C7 6278   3.314  -0.568   6.021  0.3726 -0.1312  0.0645
  210ccc    H12 6279   3.325  -0.640   6.103  2.8793  0.0942  0.0093
  210ccc    H13 6280   3.415  -0.529   6.007 -0.6073  2.6774  0.3318
  210ccc     C8 6281   3.239  -0.435   6.069 -0.9977  0.1199 -0.4190
  210ccc    H14 6282   3.216  -0.365   5.989  0.2468  0.8045 -0.2048
  210ccc    H15 6283   3.142  -0.450   6.119 -0.1239 -1.0560  1.0571
  210ccc     C9 6284   3.329  -0.363   6.169  0.1810  0.3286  0.4515
  210ccc     O3 6285   3.387  -0.263   6.145 -0.7526 -0.6985  0.5485
  210ccc     O4 6286   3.324  -0.416   6.287  0.1973 -0.6434 -0.2969
  210ccc    H16 6287   3.281  -0.503   6.286  1.5907 -1.3662 -0.1750
  210ccc     O5 6288   3.638  -0.527   5.706 -0.1694 -0.3158 -0.0136
  211ccc     C1 6289   3.960  -0.319   4.982  0.4178 -0.0943 -0.5404
  211ccc     H1 6290   3.924  -0.224   5.023 -1.4528 -1.2951  0.7420
  211ccc     H2 6291   4.057  -0.317   4.930  0.2002 -0.5278 -0.9713
  211ccc     C2 6292   3.864  -0.369   4.873 -0.7487 -0.6188  0.4125
  211ccc     H3 6293   3.761  -0.363   4.910 -0.7663 -2.1878  0.6675
  211ccc     H4 6294   3.887  -0.475   4.858  2.7486 -0.1610  1.7236
  211ccc     C3 6295   3.882  -0.284   4.745  0.3851  0.2121  0.7413
  211ccc     H5 6296   3.989  -0.273   4.724  0.0658  1.5920 -0.3259
  211ccc     H6 6297   3.855  -0.179   4.761 -0.7218  0.1785 -0.6422
  211ccc     N1 6298   3.823  -0.350   4.622 -0.0124 -0.5570 -0.1007
  211ccc     C4 6299   3.902  -0.467   4.573  0.1617 -0.2460  0.3672
  211ccc     H7 6300   3.860  -0.560   4.613 -2.3767  1.4044  1.8058
  211ccc     H8 6301   4.002  -0.463   4.616 -0.1454 -0.1004  1.0820
  211ccc     C5 6302   3.923  -0.474   4.419  0.0329  0.3988 -1.0757
  211ccc     H9 6303   3.983  -0.563   4.393 -1.7495 -1.5809  1.1503
  211ccc    H10 6304   3.823  -0.490   4.378  0.0068  0.8762 -1.2065
  211ccc     C6 6305   3.978  -0.362   4.336 -0.7963 -0.4304  0.2639
  211ccc     O1 6306   4.044  -0.394   4.237  0.1232  0.0030  0.1284
  211ccc     O2 6307   3.945  -0.234   4.378 -0.1189  0.1774 -0.6270
  211ccc    H11 6308   3.894  -0.254   4.458  1.1744 -0.2282  0.1345
  211ccc     C7 6309   3.682  -0.366   4.619 -0.6721  0.0526  0.0830
  211ccc    H12 6310   3.654  -0.402   4.519 -2.4607 -0.7574  0.8376
  211ccc    H13 6311   3.647  -0.439   4.693 -0.8547  3.2047  3.3691
  211ccc     C8 6312   3.596  -0.242   4.647  0.9633  0.6591 -0.2576
  211ccc    H14 6313   3.492  -0.273   4.664  1.9015 -1.2910  2.5917
  211ccc    H15 6314   3.617  -0.194   4.743 -1.2280  3.8919 -1.2137
  211ccc     C9 6315   3.613  -0.139   4.539  0.2071  0.0159 -0.2503
  211ccc     O3 6316   3.717  -0.096   4.506  0.2313 -0.1774 -0.2249
  211ccc     O4 6317   3.507  -0.125   4.465  0.2666  0.2672 -0.1002
  211ccc    H16 6318   3.540  -0.063   4.399  2.9558 -0.2330  0.6601
  211ccc     O5 6319   3.972  -0.428   5.073 -0.1485  0.0928  0.3165
  212ccc     C1 6320   2.752  -1.017   4.951 -0.2003 -0.2863  0.3582
  212ccc     H1 6321   2.745  -0.954   4.861 -0.1138 -0.1939  0.4163
  212ccc     H2 6322   2.848  -1.007   5.003 -0.6399  0.1208  1.1077
  212ccc     C2 6323   2.734  -1.163   4.910  0.5771 -0.6693 -0.0842
  212ccc     H3 6324   2.737  -1.229   4.998  0.1003 -0.8979 -0.2328
  212ccc     H4 6325   2.822  -1.190   4.852 -0.0799 -1.5730 -0.6867
  212ccc     C3 6326   2.607  -1.195   4.824  0.5094 -1.1519 -0.4042
  212ccc     H5 6327   2.594  -1.112   4.754  0.0244 -0.4002  0.5610
  212ccc     H6 6328   2.520  -1.185   4.890  0.7008  1.0115 -0.4146
  212ccc     N1 6329   2.593  -1.329   4.757  0.6931  0.3687 -0.7802
  212ccc     C4 6330   2.684  -1.345   4.643  0.7002  0.1007  0.3232
  212ccc     H7 6331   2.677  -1.452   4.616  1.1795  0.2896 -0.6101
  212ccc     H8 6332   2.786  -1.321   4.674  1.0715 -0.6434 -0.2703
  212ccc     C5 6333   2.640  -1.276   4.513  0.7069  0.1655 -0.0081
  212ccc     H9 6334   2.644  -1.167   4.509 -1.2389  0.2843  0.5860
  212ccc    H10 6335   2.708  -1.324   4.441  0.5566  0.8107 -0.5863
  212ccc     C6 6336   2.498  -1.315   4.479  0.0984  0.1292  0.0661
  212ccc     O1 6337   2.406  -1.239   4.501 -0.3472 -0.2545  0.6026
  212ccc     O2 6338   2.478  -1.434   4.414 -0.0846 -0.2971  0.2399
  212ccc    H11 6339   2.570  -1.468   4.410  0.2240  0.5734 -0.2067
  212ccc     C7 6340   2.593  -1.437   4.863  0.0811 -0.0814  0.6661
  212ccc    H12 6341   2.697  -1.455   4.892  0.3946 -0.9941 -0.8757
  212ccc    H13 6342   2.541  -1.409   4.955 -0.5680 -0.5288  0.4419
  212ccc     C8 6343   2.535  -1.575   4.810 -0.8209 -0.0150 -0.1444
  212ccc    H14 6344   2.433  -1.562   4.770 -0.9490 -2.1527 -0.6791
  212ccc    H15 6345   2.604  -1.610   4.732  1.9179 -0.5343  2.3373
  212ccc     C9 6346   2.525  -1.677   4.927  0.6121 -0.3487 -0.2725
  212ccc     O3 6347   2.489  -1.648   5.042 -0.3335  0.5313 -0.5294
  212ccc     O4 6348   2.618  -1.774   4.917  0.0523 -0.0633  0.6307
  212ccc    H16 6349   2.657  -1.766   4.829  1.0627  0.6393  1.1167
  212ccc     O5 6350   2.651  -0.991   5.050  0.2879  0.1195 -0.4919
  213ccc     C1 6351   2.150  -0.189   4.843 -0.2011  0.5497  0.3349
  213ccc     H1 6352   2.171  -0.190   4.735  1.6093 -1.6394  0.6194
  213ccc     H2 6353   2.042  -0.206   4.852 -0.5656  1.1689 -2.1070
  213ccc     C2 6354   2.191  -0.065   4.916  0.3069 -0.0425 -0.2441
  213ccc     H3 6355   2.114   0.009   4.893 -1.8208 -1.6046  1.4384
  213ccc     H4 6356   2.290  -0.031   4.881  0.4442 -0.4694 -0.2816
  213ccc     C3 6357   2.209  -0.076   5.062  0.2247  0.2885 -0.5867
  213ccc     H5 6358   2.294  -0.144   5.077  0.4929  0.5113 -1.0794
  213ccc     H6 6359   2.124  -0.115   5.117 -0.3220  3.2258  0.8782
  213ccc     N1 6360   2.247   0.062   5.110  0.1245 -0.3482  0.0011
  213ccc     C4 6361   2.323   0.047   5.238  0.0099  0.2506  0.4284
  213ccc     H7 6362   2.405  -0.021   5.211  0.8759  1.0984  0.8765
  213ccc     H8 6363   2.264   0.006   5.321 -1.3710 -0.6177 -0.9384
  213ccc     C5 6364   2.397   0.179   5.278  0.1369  0.6309  0.1940
  213ccc     H9 6365   2.469   0.207   5.200  1.0419 -2.1171 -0.0761
  213ccc    H10 6366   2.329   0.265   5.286  0.8112  1.2947 -0.9909
  213ccc     C6 6367   2.482   0.161   5.401 -0.0581  0.0164  0.0392
  213ccc     O1 6368   2.507   0.054   5.455  0.1236  0.3553 -0.2195
  213ccc     O2 6369   2.535   0.269   5.451  0.1781 -0.1504  0.0141
  213ccc    H11 6370   2.524   0.335   5.381 -2.1802  0.9706  1.3118
  213ccc     C7 6371   2.145   0.166   5.108 -0.2483  1.0939  0.0955
  213ccc    H12 6372   2.200   0.261   5.108  1.8141 -0.0429  0.6993
  213ccc    H13 6373   2.091   0.168   5.012 -0.4619  2.0973  0.2171
  213ccc     C8 6374   2.042   0.160   5.228 -0.0731 -0.1780  0.1157
  213ccc    H14 6375   1.994   0.061   5.219 -0.9129  0.3920 -2.9227
  213ccc    H15 6376   2.084   0.185   5.326 -0.9521 -1.1706  0.7751
  213ccc     C9 6377   1.921   0.257   5.208  0.1554  0.8532  0.3510
  213ccc     O3 6378   1.919   0.347   5.127  0.7144  0.3839  0.2961
  213ccc     O4 6379   1.834   0.261   5.316  0.7148 -0.5199 -0.2486
  213ccc    H16 6380   1.855   0.181   5.366 -0.6434 -0.5844  0.2688
  213ccc     O5 6381   2.213  -0.306   4.903  0.1544  0.3672  0.0017
  214ccc     C1 6382   2.440   2.784   6.832 -0.5644  0.0410 -0.4087
  214ccc     H1 6383   2.387   2.816   6.741 -0.2854  0.8981 -0.2775
  214ccc     H2 6384   2.367   2.793   6.913  0.0957  2.0010  0.0166
  214ccc     C2 6385   2.566   2.876   6.854 -0.0769  0.4215  0.2562
  214ccc     H3 6386   2.616   2.874   6.757 -1.0015  0.6355 -0.2274
  214ccc     H4 6387   2.625   2.822   6.929 -0.9262  0.3717  0.9025
  214ccc     C3 6388   2.528   3.017   6.908  0.0554  0.2686  0.1148
  214ccc     H5 6389   2.601   3.033   6.988  0.0211  0.0915  0.1829
  214ccc     H6 6390   2.434   3.016   6.965  0.3897 -1.0833  0.6919
  214ccc     N1 6391   2.531   3.128   6.815  0.2673 -0.0821 -0.2993
  214ccc     C4 6392   2.662   3.159   6.762 -1.1459  0.2724 -0.1877
  214ccc     H7 6393   2.659   3.256   6.711  0.7264 -0.2131 -1.3272
  214ccc     H8 6394   2.690   3.085   6.686  1.9048 -1.0315  2.0012
  214ccc     C5 6395   2.784   3.167   6.864  0.5185 -0.4494 -0.2695
  214ccc     H9 6396   2.747   3.232   6.945 -1.7180 -1.2286 -0.5952
  214ccc    H10 6397   2.809   3.068   6.904  1.5388 -0.6856 -1.4367
  214ccc     C6 6398   2.907   3.233   6.801  0.4395 -0.0619 -0.0546
  214ccc     O1 6399   2.974   3.168   6.723  0.4984  0.2539  0.7215
  214ccc     O2 6400   2.910   3.372   6.804 -0.3246  0.1528  0.5456
  214ccc    H11 6401   2.839   3.401   6.864 -0.5565  0.3892  0.1607
  214ccc     C7 6402   2.421   3.142   6.709  0.6580  0.1881 -0.0529
  214ccc    H12 6403   2.444   3.234   6.653  1.5377 -0.7301 -1.2714
  214ccc    H13 6404   2.423   3.058   6.638 -0.3412 -0.8624  1.1220
  214ccc     C8 6405   2.277   3.163   6.773  0.7419  1.0692  0.3025
  214ccc    H14 6406   2.206   3.176   6.690 -3.1028 -2.6775  2.5818
  214ccc    H15 6407   2.241   3.066   6.812  0.8606  1.0210  0.2926
  214ccc     C9 6408   2.257   3.272   6.875 -0.6236 -0.9083 -0.1030
  214ccc     O3 6409   2.149   3.324   6.896 -0.3435 -0.8674 -0.3141
  214ccc     O4 6410   2.364   3.305   6.942 -0.4444 -0.6011 -0.1745
  214ccc    H16 6411   2.440   3.258   6.903  2.8541  3.7681  0.2080
  214ccc     O5 6412   2.502   2.652   6.814  0.4272  0.0984 -0.6881
  215ccc     C1 6413   1.868   2.270   6.414  0.0848 -0.2055 -0.5597
  215ccc     H1 6414   1.838   2.210   6.327 -0.1052 -2.0462  0.7277
  215ccc     H2 6415   1.812   2.223   6.496  2.7931 -1.0896  0.9119
  215ccc     C2 6416   1.821   2.415   6.377 -0.3709  0.2020  0.7330
  215ccc     H3 6417   1.713   2.420   6.356  0.0028  2.0342 -1.0989
  215ccc     H4 6418   1.878   2.439   6.287  2.5289 -1.2473  2.0450
  215ccc     C3 6419   1.852   2.527   6.484 -0.2244  0.7903  0.0833
  215ccc     H5 6420   1.959   2.520   6.506 -0.5225  0.1703  1.4391
  215ccc     H6 6421   1.799   2.492   6.573 -1.0514  0.6238 -0.4590
  215ccc     N1 6422   1.812   2.666   6.443 -0.5963 -0.3944  0.3272
  215ccc     C4 6423   1.668   2.686   6.427 -0.5540  0.7469  0.0300
  215ccc     H7 6424   1.622   2.684   6.527  2.1110  1.0376  1.3502
  215ccc     H8 6425   1.632   2.602   6.365  0.3050 -0.9654  1.7441
  215ccc     C5 6426   1.630   2.815   6.352 -0.0852  0.0544 -0.2089
  215ccc     H9 6427   1.683   2.898   6.401 -1.5108  0.4211  0.7580
  215ccc    H10 6428   1.670   2.808   6.250  1.2707  0.9621  0.2183
  215ccc     C6 6429   1.475   2.840   6.351 -0.3704  0.4383 -0.0951
  215ccc     O1 6430   1.388   2.760   6.391  0.0834 -0.0577 -0.0383
  215ccc     O2 6431   1.438   2.954   6.294  0.0586  0.2457 -0.0098
  215ccc    H11 6432   1.514   2.986   6.243 -0.8131  3.3422  0.4182
  215ccc     C7 6433   1.880   2.770   6.524 -0.0898 -0.1905 -0.4313
  215ccc    H12 6434   1.843   2.868   6.491 -1.2557 -1.5479 -3.4651
  215ccc    H13 6435   1.848   2.759   6.629  0.9928  0.6671  0.0107
  215ccc     C8 6436   2.033   2.769   6.507  0.2178 -0.5636 -0.1298
  215ccc    H14 6437   2.078   2.686   6.564 -0.3391 -1.3062 -0.7465
  215ccc    H15 6438   2.051   2.753   6.399 -1.8642 -0.1838 -0.5729
  215ccc     C9 6439   2.095   2.898   6.569  0.0475 -0.9706  0.1367
  215ccc     O3 6440   2.036   2.991   6.625 -0.1896 -0.1698  0.6207
  215ccc     O4 6441   2.224   2.903   6.544  0.0429 -0.3429 -0.5712
  215ccc    H16 6442   2.256   2.831   6.488  0.2182 -2.8336  2.4160
  215ccc     O5 6443   2.011   2.269   6.450  0.7273  0.1398  0.3786
  216ccc     C1 6444   3.967   2.366   5.205  0.8808 -0.5029 -0.3480
  216ccc     H1 6445   3.880   2.327   5.259  1.3342  0.3333  1.0327
  216ccc     H2 6446   3.974   2.303   5.115 -0.7937 -1.7032  0.3034
  216ccc     C2 6447   4.096   2.360   5.292  0.1120 -0.7230 -0.1777
  216ccc     H3 6448   4.062   2.385   5.393 -2.8235 -4.9164  0.1473
  216ccc     H4 6449   4.157   2.445   5.258 -0.6597 -0.6838 -1.5373
  216ccc     C3 6450   4.174   2.225   5.286 -0.0059  0.9226  0.5661
  216ccc     H5 6451   4.193   2.200   5.181 -1.6649  0.7641  0.2722
  216ccc     H6 6452   4.103   2.146   5.316 -0.8745  1.7954  0.8675
  216ccc     N1 6453   4.309   2.212   5.353  0.3408  0.5153  0.0760
  216ccc     C4 6454   4.376   2.076   5.329 -0.2682 -0.0614  0.2262
  216ccc     H7 6455   4.375   2.056   5.221 -0.7333 -1.6287  0.4984
  216ccc     H8 6456   4.326   1.988   5.371  1.6438 -0.8645  0.9403
  216ccc     C5 6457   4.522   2.079   5.373 -0.1221 -0.2658 -0.3999
  216ccc     H9 6458   4.573   2.149   5.305  0.1859 -0.0175  0.0863
  216ccc    H10 6459   4.531   2.123   5.473 -2.9351  1.4749 -0.8019
  216ccc     C6 6460   4.593   1.941   5.374 -0.3698  0.3791 -0.6512
  216ccc     O1 6461   4.558   1.841   5.319  0.0781  0.3668 -0.2688
  216ccc     O2 6462   4.708   1.949   5.452  0.4671  0.1057 -0.0322
  216ccc    H11 6463   4.746   1.859   5.444  0.6520  0.3608 -3.1293
  216ccc     C7 6464   4.323   2.289   5.483 -0.6278 -0.5948  0.2549
  216ccc    H12 6465   4.426   2.313   5.511 -0.6802 -0.5090  0.3738
  216ccc    H13 6466   4.275   2.388   5.479 -0.6988 -0.6599 -0.7819
  216ccc     C8 6467   4.250   2.226   5.603  0.0649  0.6088  0.1255
  216ccc    H14 6468   4.261   2.287   5.693  0.1894 -0.4808  0.8545
  216ccc    H15 6469   4.141   2.227   5.588  0.0892  2.6849 -0.3468
  216ccc     C9 6470   4.290   2.089   5.645  0.1499  0.4135  0.2329
  216ccc     O3 6471   4.228   1.990   5.612  0.0732  0.0812 -0.3934
  216ccc     O4 6472   4.404   2.068   5.710  0.3054 -0.3837 -0.2732
  216ccc    H16 6473   4.425   2.157   5.744  0.0940 -1.5094  3.2507
  216ccc     O5 6474   3.950   2.497   5.158  0.3331 -0.3234 -0.2429
  217ccc     C1 6475   3.194   1.994   4.700 -0.6190  0.4793  0.1108
  217ccc     H1 6476   3.198   1.984   4.591  0.8665  2.2780 -0.0346
  217ccc     H2 6477   3.202   1.896   4.751 -1.1911  1.0266  1.3108
  217ccc     C2 6478   3.049   2.053   4.723 -0.9081  0.1233 -0.6163
  217ccc     H3 6479   3.033   2.132   4.648 -0.9603 -1.5303 -2.4284
  217ccc     H4 6480   3.050   2.095   4.825 -3.2041 -1.3245  0.0793
  217ccc     C3 6481   2.936   1.948   4.713 -0.1883  0.3300 -0.1731
  217ccc     H5 6482   2.973   1.863   4.772  0.5632 -0.0004 -1.0962
  217ccc     H6 6483   2.932   1.909   4.611 -0.0479 -0.8309  0.2500
  217ccc     N1 6484   2.806   1.992   4.760  0.2428 -0.5234  0.0647
  217ccc     C4 6485   2.797   2.008   4.911 -0.0386  0.0155  0.1476
  217ccc     H7 6486   2.845   2.099   4.950 -1.2509 -0.6058  3.4308
  217ccc     H8 6487   2.857   1.927   4.953 -1.8338 -2.0788 -1.0746
  217ccc     C5 6488   2.657   1.999   4.967  0.4854  0.4373  0.5640
  217ccc     H9 6489   2.584   2.073   4.933 -2.2589 -2.0099  0.7136
  217ccc    H10 6490   2.611   1.905   4.933  0.2026  0.6008  0.4867
  217ccc     C6 6491   2.662   1.993   5.117  0.1376 -0.1484 -0.1329
  217ccc     O1 6492   2.734   2.056   5.190 -0.1964 -0.0991 -0.3645
  217ccc     O2 6493   2.578   1.905   5.168 -0.6457 -0.1164 -0.3656
  217ccc    H11 6494   2.527   1.864   5.095  1.4609 -1.8002 -0.9896
  217ccc     C7 6495   2.725   2.090   4.678 -0.0323  0.2945 -0.0153
  217ccc    H12 6496   2.622   2.096   4.715  0.8985  1.9450  2.6392
  217ccc    H13 6497   2.769   2.191   4.680  1.9872 -0.5349  0.2635
  217ccc     C8 6498   2.723   2.042   4.530  0.0722  0.1461 -0.5852
  217ccc    H14 6499   2.825   2.035   4.490  0.7758 -0.5330  1.2559
  217ccc    H15 6500   2.684   1.940   4.530  1.4598 -0.4016 -0.4185
  217ccc     C9 6501   2.642   2.121   4.422 -0.6052 -0.3905 -0.6630
  217ccc     O3 6502   2.556   2.199   4.459  0.2291  0.1916  0.1632
  217ccc     O4 6503   2.689   2.109   4.298 -0.0013 -0.4158  0.0919
  217ccc    H16 6504   2.650   2.180   4.244 -1.4391 -1.1375  0.1207
  217ccc     O5 6505   3.292   2.084   4.756 -0.0025  0.5742  0.3350
  218ccc     C1 6506   3.342   1.122   7.531  0.4037  0.4229  0.4129
  218ccc     H1 6507   3.236   1.147   7.521  0.4263  0.6106  0.6123
  218ccc     H2 6508   3.403   1.204   7.492 -1.6831  1.2203 -1.3528
  218ccc     C2 6509   3.377   1.001   7.444 -0.6113  0.3416  0.2384
  218ccc     H3 6510   3.309   0.919   7.467  0.6891 -0.0994  3.0191
  218ccc     H4 6511   3.476   0.966   7.475  0.1912  0.3179 -2.1483
  218ccc     C3 6512   3.359   1.038   7.290  0.2689  0.0324 -0.2300
  218ccc     H5 6513   3.403   1.135   7.262  0.4156  0.6429  1.9050
  218ccc     H6 6514   3.251   1.055   7.283  0.0635 -0.4090  1.2987
  218ccc     N1 6515   3.404   0.935   7.196 -0.1183 -0.1028 -0.6369
  218ccc     C4 6516   3.334   0.947   7.063 -0.1207 -1.1227 -0.6971
  218ccc     H7 6517   3.369   0.865   7.000  1.3881 -1.2694  0.2882
  218ccc     H8 6518   3.355   1.041   7.010 -0.7104 -1.0104 -0.7388
  218ccc     C5 6519   3.179   0.925   7.076  0.6692 -0.5840 -0.4620
  218ccc     H9 6520   3.141   0.861   6.996  0.0752  0.0422 -0.6888
  218ccc    H10 6521   3.162   0.875   7.172  1.0510  2.3019  1.2433
  218ccc     C6 6522   3.094   1.044   7.086 -0.1384  1.1832 -0.1860
  218ccc     O1 6523   3.138   1.151   7.086 -0.5079 -0.4888 -0.8104
  218ccc     O2 6524   2.967   1.024   7.112 -0.2249 -0.0522  0.0087
  218ccc    H11 6525   2.955   0.929   7.132 -1.3111 -0.1935 -1.1640
  218ccc     C7 6526   3.547   0.914   7.194 -0.2688 -0.9130 -1.0458
  218ccc    H12 6527   3.598   1.007   7.166 -0.3336 -0.2741  0.8124
  218ccc    H13 6528   3.591   0.887   7.290  1.1996 -0.6891 -1.6275
  218ccc     C8 6529   3.595   0.793   7.108 -0.6554 -0.4043  0.6881
  218ccc    H14 6530   3.529   0.707   7.122 -1.2107 -0.4402 -1.6791
  218ccc    H15 6531   3.587   0.813   7.000  1.1262  1.1724  0.7962
  218ccc     C9 6532   3.744   0.747   7.130  0.0080 -0.2787  0.7786
  218ccc     O3 6533   3.804   0.789   7.220 -0.0863  0.1033 -0.6914
  218ccc     O4 6534   3.766   0.619   7.098 -0.0176 -0.2942  0.1989
  218ccc    H16 6535   3.701   0.602   7.027  2.4446 -3.4013 -1.6304
  218ccc     O5 6536   3.367   1.077   7.672 -0.0203 -0.0230 -0.3045
  219ccc     C1 6537   3.616   1.988   7.862  0.4421  0.1253 -0.0551
  219ccc     H1 6538   3.611   1.935   7.766 -1.3568  0.6878 -0.3033
  219ccc     H2 6539   3.561   2.079   7.835 -0.7220 -0.2334  0.9998
  219ccc     C2 6540   3.757   2.039   7.897  0.3837  0.3997  0.4935
  219ccc     H3 6541   3.803   1.984   7.979  0.6647 -1.7169 -1.0032
  219ccc     H4 6542   3.735   2.140   7.934  0.5970  0.4957  0.3621
  219ccc     C3 6543   3.843   2.068   7.769  0.1843 -0.1631  0.2071
  219ccc     H5 6544   3.948   2.089   7.793  0.4265  0.8885 -1.5989
  219ccc     H6 6545   3.800   2.158   7.725  1.3183  0.7118  0.8309
  219ccc     N1 6546   3.854   1.952   7.685 -0.3284  0.2031  0.3354
  219ccc     C4 6547   3.873   1.816   7.744 -0.3667 -0.3709 -0.0599
  219ccc     H7 6548   3.809   1.804   7.832 -0.4058  0.6352  0.0632
  219ccc     H8 6549   3.976   1.796   7.776 -0.2438 -0.1180 -0.2965
  219ccc     C5 6550   3.840   1.692   7.648 -0.4693  0.5401 -0.1110
  219ccc     H9 6551   3.761   1.712   7.576  0.0191 -0.4827 -0.9563
  219ccc    H10 6552   3.927   1.662   7.589 -0.3364  0.2942  0.2066
  219ccc     C6 6553   3.812   1.557   7.718  1.0167  0.2507  0.5562
  219ccc     O1 6554   3.787   1.539   7.832 -0.2355  0.3858  0.3195
  219ccc     O2 6555   3.801   1.451   7.635 -0.3132 -0.5540 -0.7253
  219ccc    H11 6556   3.795   1.480   7.542  0.0845 -1.2877 -0.9880
  219ccc     C7 6557   3.907   1.965   7.545 -0.4507 -0.1912  0.4006
  219ccc    H12 6558   4.015   1.983   7.542 -0.2174 -1.5685 -0.3146
  219ccc    H13 6559   3.886   1.876   7.486  0.7224 -0.4183  0.2988
  219ccc     C8 6560   3.841   2.087   7.468  0.4227 -1.0714 -0.3592
  219ccc    H14 6561   3.870   2.186   7.506  2.4884 -1.0508 -1.8440
  219ccc    H15 6562   3.877   2.080   7.365  1.4686 -1.2254  0.0021
  219ccc     C9 6563   3.689   2.084   7.457 -0.0805 -0.1966  0.1053
  219ccc     O3 6564   3.619   2.172   7.504  0.1597  0.2614 -0.5290
  219ccc     O4 6565   3.624   1.970   7.417  0.0672 -0.3491 -0.7073
  219ccc    H16 6566   3.687   1.914   7.368  0.9327 -1.8749  1.9201
  219ccc     O5 6567   3.556   1.925   7.984 -0.1444  0.7030  0.1327
  220ccc     C1 6568   4.356   1.709   5.813  0.1906  0.2195  0.0840
  220ccc     H1 6569   4.301   1.802   5.826 -0.9048 -0.4735  0.5390
  220ccc     H2 6570   4.461   1.731   5.834  0.9810 -0.8567 -2.3033
  220ccc     C2 6571   4.340   1.668   5.664  0.2724  0.3990  0.3118
  220ccc     H3 6572   4.411   1.586   5.646  1.3817  1.6092 -0.9730
  220ccc     H4 6573   4.382   1.751   5.607  2.8756 -1.5677 -0.8177
  220ccc     C3 6574   4.199   1.633   5.616  0.0373 -0.0953 -0.0504
  220ccc     H5 6575   4.134   1.707   5.664 -0.5508 -2.0729  2.3671
  220ccc     H6 6576   4.158   1.539   5.657  0.3335 -0.2077 -0.0104
  220ccc     N1 6577   4.183   1.640   5.471  0.5059  0.3248 -0.0090
  220ccc     C4 6578   4.034   1.649   5.437 -0.7944  0.2702 -0.0282
  220ccc     H7 6579   4.022   1.655   5.329  1.7140 -0.3296 -0.4182
  220ccc     H8 6580   3.992   1.745   5.468 -0.1968  0.5877 -0.1849
  220ccc     C5 6581   3.946   1.531   5.493 -0.0720 -0.2352 -0.1417
  220ccc     H9 6582   3.994   1.435   5.473 -0.4091 -0.7936  1.6009
  220ccc    H10 6583   3.944   1.541   5.602 -1.5776  1.3294 -0.2728
  220ccc     C6 6584   3.807   1.535   5.437  1.7022  0.2398 -1.1885
  220ccc     O1 6585   3.765   1.595   5.344  0.0972  0.0018  0.2181
  220ccc     O2 6586   3.715   1.495   5.527 -0.2881  0.3661 -0.0648
  220ccc    H11 6587   3.768   1.470   5.604  1.3887  2.5892 -0.3700
  220ccc     C7 6588   4.262   1.543   5.387 -0.8867 -0.4637 -0.0620
  220ccc    H12 6589   4.354   1.515   5.439 -0.7672 -3.0345 -1.4444
  220ccc    H13 6590   4.220   1.442   5.378 -1.7615 -0.1357  0.2818
  220ccc     C8 6591   4.304   1.618   5.261  0.0861  0.2590 -0.5169
  220ccc    H14 6592   4.214   1.626   5.199 -1.1713  1.3698  1.3695
  220ccc    H15 6593   4.335   1.719   5.290  1.1878 -0.3053  0.3306
  220ccc     C9 6594   4.424   1.546   5.197 -1.2088 -1.0820 -0.3901
  220ccc     O3 6595   4.441   1.424   5.194 -0.0052 -0.0916 -0.5283
  220ccc     O4 6596   4.513   1.625   5.130 -0.1297  0.3592 -0.0693
  220ccc    H16 6597   4.498   1.715   5.162  2.0697  0.8478 -0.2570
  220ccc     O5 6598   4.299   1.609   5.896 -0.8004 -0.3632 -0.2897
  221ccc     C1 6599   3.667   1.004   6.279 -0.3593  0.0073 -0.1281
  221ccc     H1 6600   3.582   1.073   6.271 -1.2730 -1.0496  0.2387
  221ccc     H2 6601   3.688   0.946   6.188 -1.1574 -1.1595  0.4143
  221ccc     C2 6602   3.657   0.893   6.376  0.2063 -0.4515 -0.2096
  221ccc     H3 6603   3.668   0.939   6.475  0.6832 -0.8265 -0.0874
  221ccc     H4 6604   3.747   0.832   6.362  2.8844  3.3284 -0.7947
  221ccc     C3 6605   3.521   0.817   6.368  0.5237 -0.0560  0.5486
  221ccc     H5 6606   3.431   0.878   6.383  0.3653  0.3318 -1.5946
  221ccc     H6 6607   3.523   0.739   6.445 -0.7839  0.4858  1.1710
  221ccc     N1 6608   3.495   0.745   6.240  0.3420  0.4317 -0.8834
  221ccc     C4 6609   3.366   0.667   6.237  0.5507  0.1876  0.4082
  221ccc     H7 6610   3.372   0.573   6.294  0.7735 -2.6715 -3.8870
  221ccc     H8 6611   3.352   0.641   6.131  2.3796  1.2783 -0.1347
  221ccc     C5 6612   3.236   0.748   6.273  0.0645  0.1008  0.0162
  221ccc     H9 6613   3.232   0.763   6.382 -1.5274 -1.4716  0.2112
  221ccc    H10 6614   3.253   0.840   6.215  1.0661 -0.8798 -1.2972
  221ccc     C6 6615   3.107   0.676   6.228  0.0931  0.2146 -0.2073
  221ccc     O1 6616   3.108   0.588   6.146  0.2014 -0.2727  0.3391
  221ccc     O2 6617   2.991   0.734   6.265  0.2129  0.0576  0.4480
  221ccc    H11 6618   3.019   0.801   6.330  2.1560 -0.8224  0.5894
  221ccc     C7 6619   3.609   0.669   6.178  0.0480  0.7432  0.4831
  221ccc    H12 6620   3.574   0.626   6.083  0.7727 -2.1137  1.4177
  221ccc    H13 6621   3.689   0.736   6.145  0.5237 -0.4843 -0.9927
  221ccc     C8 6622   3.666   0.552   6.268  0.7079 -0.6776  0.3750
  221ccc    H14 6623   3.731   0.588   6.348  0.9588 -1.5980  0.5982
  221ccc    H15 6624   3.581   0.498   6.311  1.1120 -0.8680  0.9378
  221ccc     C9 6625   3.753   0.455   6.199 -0.3344  1.5788  0.0073
  221ccc     O3 6626   3.812   0.467   6.093  0.2437 -0.2616 -0.3276
  221ccc     O4 6627   3.774   0.334   6.263  0.1057  0.4552  0.1032
  221ccc    H16 6628   3.727   0.342   6.348  1.0300  0.0712  0.6694
  221ccc     O5 6629   3.785   1.078   6.327  0.1254 -0.1733  0.1170
  222ccc     C1 6630   0.430  -0.894   6.379 -0.1338  0.3625 -0.8357
  222ccc     H1 6631   0.479  -0.923   6.473 -0.6265 -0.2124 -0.7455
  222ccc     H2 6632   0.403  -0.982   6.320 -1.9519  0.7988 -0.7254
  222ccc     C2 6633   0.523  -0.797   6.305 -0.2499 -0.1492  0.1695
  222ccc     H3 6634   0.523  -0.710   6.371  0.1305  0.3806 -0.5141
  222ccc     H4 6635   0.471  -0.757   6.217 -1.8895  1.1876  1.6800
  222ccc     C3 6636   0.668  -0.845   6.278  0.2769 -0.0942  0.1937
  222ccc     H5 6637   0.713  -0.847   6.378 -2.7275  1.5321  1.7261
  222ccc     H6 6638   0.719  -0.765   6.223 -1.0298  0.6225 -0.0150
  222ccc     N1 6639   0.665  -0.967   6.196  0.4764 -1.0211  0.4374
  222ccc     C4 6640   0.621  -0.944   6.049  0.6139 -0.2149  0.3058
  222ccc     H7 6641   0.696  -0.899   5.983 -0.0995  0.0154 -0.3676
  222ccc     H8 6642   0.533  -0.878   6.040 -0.0239 -1.1832 -0.8718
  222ccc     C5 6643   0.565  -1.083   5.988  0.2408 -0.0096  0.0737
  222ccc     H9 6644   0.645  -1.157   5.975  0.6573  0.3935  0.3329
  222ccc    H10 6645   0.497  -1.130   6.060  1.2827  0.7922  1.6231
  222ccc     C6 6646   0.496  -1.058   5.858  0.3622 -0.9466 -0.2677
  222ccc     O1 6647   0.371  -1.042   5.849 -0.0426  0.4170  0.5067
  222ccc     O2 6648   0.561  -1.077   5.740  0.7635 -0.0653 -0.0503
  222ccc    H11 6649   0.487  -1.063   5.679  1.9595  0.2553 -1.4655
  222ccc     C7 6650   0.788  -1.049   6.208  0.1955  0.3324 -0.1452
  222ccc    H12 6651   0.778  -1.129   6.134  0.5770  1.5153 -1.5045
  222ccc    H13 6652   0.880  -0.993   6.187  1.1548 -0.6444  1.2244
  222ccc     C8 6653   0.804  -1.120   6.340 -0.1186  0.1267 -0.0367
  222ccc    H14 6654   0.810  -1.040   6.415  0.9899  1.5803 -1.6212
  222ccc    H15 6655   0.715  -1.184   6.349  0.8209 -1.5685 -1.9931
  222ccc     C9 6656   0.920  -1.208   6.350  0.7119  0.7579  0.1501
  222ccc     O3 6657   0.985  -1.244   6.257  0.2354 -0.0366 -0.0148
  222ccc     O4 6658   0.949  -1.230   6.479 -0.4133 -0.6634  0.6283
  222ccc    H16 6659   0.877  -1.178   6.518  0.6170  1.0933  0.2746
  222ccc     O5 6660   0.301  -0.840   6.415  0.2595  0.8371  0.7066
  223ccc     C1 6661   0.352  -0.535   7.306  0.0911  0.2068  0.2710
  223ccc     H1 6662   0.314  -0.433   7.306  0.0764  0.2023 -0.0763
  223ccc     H2 6663   0.291  -0.596   7.373  1.9835 -0.3888  1.5280
  223ccc     C2 6664   0.494  -0.545   7.370 -0.0321  0.4574  0.4363
  223ccc     H3 6665   0.570  -0.509   7.300  0.9026 -1.2383  0.5157
  223ccc     H4 6666   0.504  -0.653   7.387 -1.3642  0.3674  0.7937
  223ccc     C3 6667   0.526  -0.469   7.494 -0.5149 -0.1418  0.3711
  223ccc     H5 6668   0.445  -0.494   7.564 -0.7559  1.7689  0.8521
  223ccc     H6 6669   0.512  -0.364   7.463 -0.4693  0.6281  2.7694
  223ccc     N1 6670   0.660  -0.500   7.558 -0.1083  0.4593 -0.0023
  223ccc     C4 6671   0.778  -0.460   7.476 -0.2820  0.0635  0.1837
  223ccc     H7 6672   0.788  -0.532   7.394 -1.2656  0.4571 -0.2977
  223ccc     H8 6673   0.863  -0.455   7.544 -0.5556 -0.0475  0.5382
  223ccc     C5 6674   0.769  -0.315   7.411 -0.0628 -0.1043  1.1564
  223ccc     H9 6675   0.685  -0.308   7.340  1.4754  3.3355 -0.5323
  223ccc    H10 6676   0.760  -0.245   7.495  0.4947  0.7266  0.5426
  223ccc     C6 6677   0.898  -0.274   7.346  0.0458 -0.5926 -1.2857
  223ccc     O1 6678   0.999  -0.265   7.408  0.0870  0.2412 -0.1277
  223ccc     O2 6679   0.895  -0.271   7.213 -0.3859  0.3541  0.6548
  223ccc    H11 6680   0.803  -0.277   7.182  0.2677 -0.3278 -1.3726
  223ccc     C7 6681   0.669  -0.617   7.641 -0.0259  0.1886 -0.1148
  223ccc    H12 6682   0.650  -0.714   7.594 -2.1369  0.3780  0.2321
  223ccc    H13 6683   0.772  -0.614   7.677  0.2311 -0.0651 -0.8044
  223ccc     C8 6684   0.581  -0.619   7.770  0.6622  0.5138 -0.2070
  223ccc    H14 6685   0.611  -0.533   7.832 -0.7864  2.2203 -1.7544
  223ccc    H15 6686   0.473  -0.608   7.758  0.4262  1.5049  2.1678
  223ccc     C9 6687   0.604  -0.742   7.857 -0.1804  0.9360  0.2879
  223ccc     O3 6688   0.679  -0.835   7.836  0.6966  0.5090  0.0528
  223ccc     O4 6689   0.553  -0.727   7.980  0.3231  0.7252  0.0327
  223ccc    H16 6690   0.509  -0.641   7.970 -0.7876  0.0798 -0.7702
  223ccc     O5 6691   0.361  -0.581   7.162 -0.0885  0.2853  0.0843
  224ccc     C1 6692   1.565  -0.810   6.199  0.4254  0.0623 -0.1029
  224ccc     H1 6693   1.464  -0.791   6.162  0.0109  1.8435  1.8148
  224ccc     H2 6694   1.618  -0.715   6.187 -0.5094  0.6128  0.0592
  224ccc     C2 6695   1.639  -0.915   6.110  0.3436 -1.2444  0.2606
  224ccc     H3 6696   1.607  -1.019   6.129  1.3147 -2.0110 -1.9703
  224ccc     H4 6697   1.743  -0.906   6.141  0.0605 -0.1033  0.9003
  224ccc     C3 6698   1.631  -0.887   5.961  0.4236  0.1184  0.0417
  224ccc     H5 6699   1.663  -0.783   5.945 -0.6963  0.3139 -1.1141
  224ccc     H6 6700   1.526  -0.900   5.933  1.3268 -2.2259 -2.8291
  224ccc     N1 6701   1.710  -0.977   5.876 -0.0871  0.3636  0.1811
  224ccc     C4 6702   1.688  -1.123   5.898 -0.5773 -0.2094  0.2900
  224ccc     H7 6703   1.695  -1.149   6.004  2.2636 -0.0683  0.2077
  224ccc     H8 6704   1.778  -1.170   5.857 -0.4740  2.4125 -2.8951
  224ccc     C5 6705   1.558  -1.176   5.832 -0.3000  0.0050 -1.0911
  224ccc     H9 6706   1.470  -1.137   5.886  0.1488 -0.6831  0.1751
  224ccc    H10 6707   1.557  -1.136   5.730  2.1848  1.3831 -0.6596
  224ccc     C6 6708   1.560  -1.326   5.817  0.1479 -0.3961 -0.4027
  224ccc     O1 6709   1.641  -1.396   5.870 -1.2330 -0.5494 -0.1295
  224ccc     O2 6710   1.449  -1.375   5.765 -0.2785  0.3161  0.0651
  224ccc    H11 6711   1.397  -1.298   5.736 -0.5055 -0.0215 -0.4280
  224ccc     C7 6712   1.718  -0.924   5.734  1.3037  0.3702 -0.0305
  224ccc    H12 6713   1.616  -0.927   5.694 -0.1753  0.1327  3.4134
  224ccc    H13 6714   1.741  -0.817   5.730  1.4907  0.3000 -2.3793
  224ccc     C8 6715   1.809  -0.998   5.631 -0.1272 -0.8688  0.1392
  224ccc    H14 6716   1.783  -1.104   5.620  0.9781 -1.1611  0.2926
  224ccc    H15 6717   1.796  -0.961   5.529  0.0763 -2.3496 -0.4439
  224ccc     C9 6718   1.960  -0.983   5.667  0.4948  0.5566 -0.0895
  224ccc     O3 6719   2.006  -0.943   5.773  0.0194 -0.0430 -0.3367
  224ccc     O4 6720   2.042  -1.041   5.574  0.1411 -0.3399  0.0650
  224ccc    H16 6721   1.982  -1.068   5.503 -0.6839  1.0738  0.1922
  224ccc     O5 6722   1.562  -0.872   6.334  0.1408 -0.0308  0.6459
  225ccc     C1 6723   2.109  -0.692   6.762 -0.3569  0.2689  0.0724
  225ccc     H1 6724   2.134  -0.608   6.829 -1.2639 -0.0402  0.8241
  225ccc     H2 6725   2.136  -0.781   6.820 -1.9277 -0.6189 -0.5157
  225ccc     C2 6726   2.185  -0.678   6.625  0.2402  0.6072 -0.4147
  225ccc     H3 6727   2.172  -0.774   6.574 -0.9739 -0.2103  1.3247
  225ccc     H4 6728   2.293  -0.663   6.632  0.6460 -2.0315 -0.0636
  225ccc     C3 6729   2.138  -0.556   6.537 -0.2875 -0.0110 -0.3058
  225ccc     H5 6730   2.144  -0.476   6.612  0.4448 -0.0164 -0.3495
  225ccc     H6 6731   2.037  -0.575   6.498 -0.9251  0.8868  0.8375
  225ccc     N1 6732   2.244  -0.535   6.432  0.5400 -0.4316 -0.2980
  225ccc     C4 6733   2.275  -0.394   6.404 -0.1469  0.3847 -0.2963
  225ccc     H7 6734   2.187  -0.330   6.393 -0.4073  0.0251 -0.2954
  225ccc     H8 6735   2.316  -0.388   6.302 -0.3004 -1.8281 -0.5386
  225ccc     C5 6736   2.371  -0.337   6.510 -0.8479 -0.1867  0.3452
  225ccc     H9 6737   2.320  -0.329   6.607 -0.0420  1.3690  0.6740
  225ccc    H10 6738   2.461  -0.398   6.520  1.4055  2.8725  0.4881
  225ccc     C6 6739   2.416  -0.193   6.478 -0.5245 -0.3540 -0.3101
  225ccc     O1 6740   2.463  -0.170   6.367  0.0714 -0.1225  0.1499
  225ccc     O2 6741   2.409  -0.102   6.579  0.1339  0.1876 -0.0160
  225ccc    H11 6742   2.393  -0.152   6.661 -1.3823  0.1076 -0.3318
  225ccc     C7 6743   2.207  -0.627   6.319 -0.3800  0.5464  0.1790
  225ccc    H12 6744   2.156  -0.718   6.354 -0.0403 -0.1039 -0.9950
  225ccc    H13 6745   2.139  -0.571   6.253  0.3889  2.4840  0.9699
  225ccc     C8 6746   2.330  -0.670   6.238 -0.0542  0.3513 -0.1318
  225ccc    H14 6747   2.298  -0.735   6.156  0.9490 -0.4093  0.0540
  225ccc    H15 6748   2.368  -0.585   6.181  0.1536 -0.6714 -1.5478
  225ccc     C9 6749   2.438  -0.740   6.312 -0.5576  0.3002 -0.2471
  225ccc     O3 6750   2.413  -0.826   6.395 -0.2819 -0.0656 -0.1900
  225ccc     O4 6751   2.563  -0.731   6.264  0.1900  0.4657 -0.2308
  225ccc    H16 6752   2.547  -0.659   6.201 -2.8288 -0.1435 -0.3209
  225ccc     O5 6753   1.969  -0.698   6.737 -0.5307  0.0560  0.3442
  226ccc     C1 6754   0.173   0.170   4.708  0.2506  0.1272  0.0834
  226ccc     H1 6755   0.223   0.169   4.611 -0.7968  2.0187 -0.5184
  226ccc     H2 6756   0.071   0.205   4.688  0.7055  0.6776 -1.3683
  226ccc     C2 6757   0.247   0.257   4.805  0.9845 -0.3585 -0.2482
  226ccc     H3 6758   0.191   0.295   4.891  1.2024  2.4501 -1.2501
  226ccc     H4 6759   0.283   0.349   4.758  1.4868 -1.2172 -1.6251
  226ccc     C3 6760   0.379   0.181   4.854  0.1631  0.5057 -0.7426
  226ccc     H5 6761   0.426   0.141   4.764  2.8369  1.7665 -0.0370
  226ccc     H6 6762   0.354   0.093   4.915  2.2978  0.0262 -0.4879
  226ccc     N1 6763   0.487   0.258   4.922  0.3595 -0.4462  0.2712
  226ccc     C4 6764   0.575   0.329   4.822 -0.4184 -0.0774 -0.3248
  226ccc     H7 6765   0.508   0.380   4.751 -2.3702 -1.3279  0.5125
  226ccc     H8 6766   0.627   0.253   4.764 -1.4630 -0.8719 -0.2554
  226ccc     C5 6767   0.674   0.429   4.891  0.3025  0.3005 -0.7491
  226ccc     H9 6768   0.621   0.517   4.929 -0.4888 -0.5691  0.2067
  226ccc    H10 6769   0.721   0.388   4.981  0.0148  2.6646  0.5429
  226ccc     C6 6770   0.784   0.460   4.793  0.1991  0.3829  0.8855
  226ccc     O1 6771   0.885   0.392   4.796 -0.0061 -0.5275 -0.3766
  226ccc     O2 6772   0.772   0.579   4.726  0.1497  0.1810 -0.0148
  226ccc    H11 6773   0.687   0.612   4.759 -0.2697 -1.7251  0.9322
  226ccc     C7 6774   0.446   0.324   5.043  0.5361  0.0897 -0.3756
  226ccc    H12 6775   0.531   0.373   5.092 -1.5090  0.1125  3.5094
  226ccc    H13 6776   0.371   0.401   5.020 -0.2028 -0.1393  1.1296
  226ccc     C8 6777   0.377   0.228   5.149  0.0532  0.2656 -0.2682
  226ccc    H14 6778   0.289   0.181   5.103 -0.7397  0.7682  0.7251
  226ccc    H15 6779   0.447   0.144   5.163 -0.7690 -0.3474  0.2583
  226ccc     C9 6780   0.341   0.292   5.276  0.7146  0.2112 -0.0090
  226ccc     O3 6781   0.399   0.388   5.317  0.0368 -0.1989 -0.1394
  226ccc     O4 6782   0.277   0.212   5.358  0.1585 -0.1025  0.0717
  226ccc    H16 6783   0.219   0.160   5.300  1.1343  1.4547 -2.4175
  226ccc     O5 6784   0.162   0.034   4.774 -0.4760  0.4806 -0.0548
  227ccc     C1 6785  -0.167   0.248   5.519  0.8186  0.1737  0.1300
  227ccc     H1 6786  -0.274   0.245   5.539  0.4496  0.2910 -1.6505
  227ccc     H2 6787  -0.125   0.148   5.499  1.5534  0.7213 -1.2257
  227ccc     C2 6788  -0.103   0.314   5.643 -0.5558 -0.2235  0.7369
  227ccc     H3 6789  -0.150   0.261   5.727  2.8994 -1.8296  1.8105
  227ccc     H4 6790  -0.122   0.422   5.639  2.5684  0.3757 -0.3526
  227ccc     C3 6791   0.050   0.284   5.651  0.3697  0.5994 -0.0277
  227ccc     H5 6792   0.093   0.325   5.559 -1.9555 -1.4978 -2.2209
  227ccc     H6 6793   0.073   0.177   5.661 -1.0305  0.3310  0.5725
  227ccc     N1 6794   0.115   0.334   5.770  0.4258 -0.7906  0.3255
  227ccc     C4 6795   0.260   0.281   5.776  1.5975 -0.4000 -0.2441
  227ccc     H7 6796   0.323   0.337   5.705  1.5626 -0.9971 -0.7494
  227ccc     H8 6797   0.262   0.177   5.743  0.0080 -0.0882 -1.4388
  227ccc     C5 6798   0.328   0.300   5.914  0.4704 -0.2500  0.3274
  227ccc     H9 6799   0.355   0.405   5.932 -0.2063 -0.2589  1.4824
  227ccc    H10 6800   0.260   0.280   5.998 -1.8957  1.7136 -0.9962
  227ccc     C6 6801   0.461   0.233   5.927 -0.5204  0.2671 -0.3745
  227ccc     O1 6802   0.480   0.120   5.889  0.3088  0.7167 -0.1734
  227ccc     O2 6803   0.567   0.314   5.941  0.4865  0.4039  0.4683
  227ccc    H11 6804   0.639   0.248   5.943 -1.1374 -1.4408  0.4641
  227ccc     C7 6805   0.103   0.483   5.801 -0.0412 -0.0625 -0.1671
  227ccc    H12 6806  -0.003   0.510   5.809 -0.9338 -3.2345  0.0649
  227ccc    H13 6807   0.165   0.495   5.890  0.6814 -1.3339 -0.4732
  227ccc     C8 6808   0.166   0.568   5.687 -0.0438 -0.2325  0.0865
  227ccc    H14 6809   0.272   0.541   5.686  0.4952  1.4457  2.6066
  227ccc    H15 6810   0.131   0.545   5.586  2.1195 -0.6382 -0.6169
  227ccc     C9 6811   0.167   0.717   5.704  0.1311 -0.4003 -0.2636
  227ccc     O3 6812   0.256   0.776   5.756  0.1486 -0.0139  0.0183
  227ccc     O4 6813   0.046   0.765   5.698  0.2751  0.3160  0.0553
  227ccc    H16 6814  -0.002   0.697   5.648 -0.1250  1.4325 -1.1485
  227ccc     O5 6815  -0.131   0.340   5.405  0.2530  0.2685  0.1914
  228ccc     C1 6816   0.789   0.170   5.155  0.1696 -1.0906 -0.3076
  228ccc     H1 6817   0.833   0.258   5.105 -0.4841 -1.2154 -1.1245
  228ccc     H2 6818   0.688   0.167   5.112  1.0312  0.4077 -2.6687
  228ccc     C2 6819   0.798   0.187   5.301 -0.2012  0.2144 -0.6320
  228ccc     H3 6820   0.758   0.284   5.334 -3.0896 -0.3173 -2.2522
  228ccc     H4 6821   0.905   0.185   5.323 -0.3379 -1.0709 -0.0189
  228ccc     C3 6822   0.707   0.086   5.378 -0.5841 -0.6931  0.2997
  228ccc     H5 6823   0.744  -0.014   5.350 -1.3078 -0.4954 -1.5183
  228ccc     H6 6824   0.601   0.098   5.352 -0.2087 -2.1442 -2.1940
  228ccc     N1 6825   0.733   0.091   5.524  0.2742  0.2042 -0.3420
  228ccc     C4 6826   0.725   0.227   5.576  0.1552 -0.4089  0.0705
  228ccc     H7 6827   0.808   0.292   5.546 -1.9755  2.3936 -0.1523
  228ccc     H8 6828   0.721   0.230   5.685 -0.8972  0.4376  0.0263
  228ccc     C5 6829   0.591   0.296   5.545 -0.5688  0.2798 -0.3107
  228ccc     H9 6830   0.580   0.297   5.435 -1.2030  0.5898 -0.2509
  228ccc    H10 6831   0.506   0.236   5.578 -0.6909  0.3360 -0.5151
  228ccc     C6 6832   0.594   0.442   5.590  0.0428 -0.2147 -0.1448
  228ccc     O1 6833   0.631   0.481   5.701  0.4883  0.6929  0.0985
  228ccc     O2 6834   0.528   0.535   5.516 -0.1163 -0.0376  0.3709
  228ccc    H11 6835   0.497   0.494   5.433 -1.8238  1.9684 -0.0849
  228ccc     C7 6836   0.660  -0.015   5.602 -0.2634  0.1390  0.3349
  228ccc    H12 6837   0.673   0.012   5.707  2.0624  1.5425 -0.2412
  228ccc    H13 6838   0.551  -0.005   5.596 -0.1085  0.8878 -2.8360
  228ccc     C8 6839   0.719  -0.155   5.580 -0.2008  0.2034  0.1774
  228ccc    H14 6840   0.714  -0.176   5.472  0.1309  0.8597  0.0302
  228ccc    H15 6841   0.823  -0.164   5.613 -0.1030 -0.0949 -0.2032
  228ccc     C9 6842   0.636  -0.253   5.661 -0.6981 -0.0438 -0.6609
  228ccc     O3 6843   0.554  -0.222   5.743  0.9494  0.4531  0.0851
  228ccc     O4 6844   0.696  -0.370   5.682  0.1509  0.2129  0.8672
  228ccc    H16 6845   0.772  -0.366   5.620  1.4262  2.0681  2.4257
  228ccc     O5 6846   0.859   0.052   5.111  0.6986  0.4971 -0.4698
  229ccc     C1 6847   0.434  -0.764   5.192 -0.5554  0.5465  0.7221
  229ccc     H1 6848   0.352  -0.704   5.232  0.7739  1.9614  1.4524
  229ccc     H2 6849   0.418  -0.872   5.185  2.4130  0.0531  0.0588
  229ccc     C2 6850   0.541  -0.736   5.301 -0.6969  0.3210 -0.0790
  229ccc     H3 6851   0.555  -0.627   5.305 -2.4868  0.5538  0.8855
  229ccc     H4 6852   0.635  -0.785   5.271 -1.0283  0.7691 -2.0033
  229ccc     C3 6853   0.502  -0.777   5.448  0.0901 -0.3373 -0.1034
  229ccc     H5 6854   0.515  -0.885   5.461  0.0920 -0.4120 -0.7028
  229ccc     H6 6855   0.394  -0.764   5.460 -0.2705 -3.3733  0.6523
  229ccc     N1 6856   0.571  -0.703   5.553 -0.3097  0.6338 -1.1815
  229ccc     C4 6857   0.520  -0.724   5.690  0.1497 -0.3497 -0.5648
  229ccc     H7 6858   0.577  -0.650   5.748 -1.3061 -0.3808  0.9822
  229ccc     H8 6859   0.537  -0.827   5.723 -3.0433 -1.1407 -1.0155
  229ccc     C5 6860   0.367  -0.714   5.710 -0.2135 -0.4886 -0.1415
  229ccc     H9 6861   0.340  -0.613   5.674  1.1000 -0.4710 -1.1286
  229ccc    H10 6862   0.308  -0.787   5.653 -0.8762 -0.5042  0.5425
  229ccc     C6 6863   0.317  -0.736   5.853 -0.1398 -0.3715  1.0584
  229ccc     O1 6864   0.389  -0.712   5.947 -0.2530 -0.1757  0.1298
  229ccc     O2 6865   0.187  -0.755   5.865 -0.2561  0.8946  0.1634
  229ccc    H11 6866   0.163  -0.784   5.775  0.6278  1.6181 -0.3249
  229ccc     C7 6867   0.719  -0.694   5.543 -0.1366 -0.4415 -0.2250
  229ccc    H12 6868   0.747  -0.648   5.447  0.9298  1.4089  0.9336
  229ccc    H13 6869   0.762  -0.633   5.623  0.1621 -2.3510  1.1342
  229ccc     C8 6870   0.795  -0.830   5.559  0.5060  0.0987 -0.7798
  229ccc    H14 6871   0.776  -0.866   5.661 -1.7299 -0.4105 -1.3249
  229ccc    H15 6872   0.750  -0.918   5.512 -0.1732 -0.7807  1.3797
  229ccc     C9 6873   0.937  -0.827   5.513  0.6614 -0.0148  0.3834
  229ccc     O3 6874   0.982  -0.747   5.431  0.7676 -0.5335  0.0774
  229ccc     O4 6875   1.010  -0.932   5.564  0.2995 -1.2787  0.1449
  229ccc    H16 6876   0.953  -0.987   5.620 -1.1000  0.7833  0.8690
  229ccc     O5 6877   0.477  -0.706   5.059 -0.2877 -0.0939  0.1666
  230ccc     C1 6878   0.264   2.418   6.714 -0.5366  1.2510 -0.5787
  230ccc     H1 6879   0.334   2.340   6.745 -2.3820 -0.0329  0.5528
  230ccc     H2 6880   0.171   2.361   6.701  0.3795 -0.1469 -1.2044
  230ccc     C2 6881   0.289   2.487   6.576 -0.1356  0.5620 -0.0192
  230ccc     H3 6882   0.380   2.547   6.577  0.0019  0.3482  0.3171
  230ccc     H4 6883   0.204   2.555   6.561 -0.7030 -0.1965 -0.3692
  230ccc     C3 6884   0.285   2.388   6.455  0.4104 -0.2684 -0.0469
  230ccc     H5 6885   0.202   2.319   6.477  2.1724 -1.8231  2.0871
  230ccc     H6 6886   0.369   2.319   6.444 -1.4651 -2.8121  0.7250
  230ccc     N1 6887   0.277   2.456   6.316 -0.1500 -0.1507 -0.2280
  230ccc     C4 6888   0.143   2.505   6.273  0.6385  0.4380  0.4207
  230ccc     H7 6889   0.153   2.519   6.165 -0.0387 -1.1610  0.1187
  230ccc     H8 6890   0.124   2.602   6.319 -0.7071 -0.5753  2.1301
  230ccc     C5 6891   0.025   2.409   6.310  0.9586 -0.0381 -0.3084
  230ccc     H9 6892   0.062   2.306   6.307  0.4708 -0.3145  1.8261
  230ccc    H10 6893   0.011   2.433   6.416  3.3918  0.0370  0.0650
  230ccc     C6 6894  -0.100   2.432   6.220  0.4148 -0.4322  0.0657
  230ccc     O1 6895  -0.106   2.408   6.107  0.2957  0.1639 -0.1228
  230ccc     O2 6896  -0.181   2.518   6.278  0.4315  0.2860 -0.0532
  230ccc    H11 6897  -0.132   2.551   6.355 -0.7819  1.8599  0.0745
  230ccc     C7 6898   0.394   2.537   6.274  0.0279 -0.3084 -0.2216
  230ccc    H12 6899   0.390   2.544   6.165  0.9608  2.1797 -0.1528
  230ccc    H13 6900   0.384   2.642   6.305 -0.2290 -0.0392 -1.2060
  230ccc     C8 6901   0.528   2.480   6.316 -0.2791 -0.4153 -0.0766
  230ccc    H14 6902   0.538   2.485   6.425  1.5029 -0.6900 -0.1941
  230ccc    H15 6903   0.550   2.376   6.286 -1.4727 -1.3574  2.0496
  230ccc     C9 6904   0.636   2.575   6.266  0.4308 -0.3719 -0.0048
  230ccc     O3 6905   0.613   2.682   6.208 -0.3861 -0.6525  0.4068
  230ccc     O4 6906   0.755   2.525   6.267  0.1836  0.4525 -0.8653
  230ccc    H16 6907   0.748   2.448   6.326  1.0204  2.7711  2.6294
  230ccc     O5 6908   0.254   2.512   6.822  0.0232 -0.1450  0.0857
  231ccc     C1 6909   0.285   2.104   7.698 -0.2006  0.6179  0.1665
  231ccc     H1 6910   0.290   2.054   7.600  0.1046  1.3221 -0.1852
  231ccc     H2 6911   0.385   2.098   7.743  0.4784 -4.1076 -1.3797
  231ccc     C2 6912   0.180   2.030   7.787  0.1647 -0.1436 -0.2088
  231ccc     H3 6913   0.177   2.084   7.883 -2.5193 -0.8250  0.1815
  231ccc     H4 6914   0.220   1.928   7.788  1.0212  0.1858 -0.4571
  231ccc     C3 6915   0.036   2.028   7.730  0.9842 -0.2397  0.3426
  231ccc     H5 6916   0.032   1.974   7.634 -0.7633 -0.2715  0.4014
  231ccc     H6 6917   0.020   2.134   7.704  1.1878  0.1107  1.5614
  231ccc     N1 6918  -0.067   1.977   7.823 -0.9514  0.2515  0.1377
  231ccc     C4 6919  -0.097   1.832   7.805 -0.0267 -0.3780  0.2777
  231ccc     H7 6920  -0.006   1.777   7.777 -0.2651 -1.9996  2.4535
  231ccc     H8 6921  -0.160   1.827   7.715  1.6585 -1.8101 -0.9037
  231ccc     C5 6922  -0.155   1.773   7.936 -0.3098 -0.1590  0.1621
  231ccc     H9 6923  -0.089   1.788   8.022  0.6472  2.3750 -0.8913
  231ccc    H10 6924  -0.242   1.835   7.958  0.9723  1.3562  1.1632
  231ccc     C6 6925  -0.199   1.633   7.928  0.5316  1.3483 -0.5876
  231ccc     O1 6926  -0.162   1.553   7.845  0.1603 -0.1611  0.0017
  231ccc     O2 6927  -0.266   1.588   8.043 -0.4129 -0.4939  0.2284
  231ccc    H11 6928  -0.286   1.671   8.090  0.6177 -0.3541  0.4552
  231ccc     C7 6929  -0.186   2.061   7.812  0.1618  0.2798 -0.2688
  231ccc    H12 6930  -0.202   2.099   7.710 -1.2474  0.6312  0.0610
  231ccc    H13 6931  -0.277   2.014   7.851  0.2229  0.9700  0.7422
  231ccc     C8 6932  -0.161   2.192   7.889 -0.4836  0.7994 -0.8188
  231ccc    H14 6933  -0.079   2.247   7.842 -0.2377  0.0265 -1.3037
  231ccc    H15 6934  -0.253   2.252   7.883 -1.5197 -0.8063 -2.1305
  231ccc     C9 6935  -0.146   2.191   8.044  0.8603 -0.5246 -0.2325
  231ccc     O3 6936  -0.236   2.149   8.117 -0.1333  0.0670  0.0772
  231ccc     O4 6937  -0.034   2.226   8.101 -0.0850  0.1043 -0.7603
  231ccc    H16 6938   0.017   2.258   8.025  0.2416  0.8020 -0.2585
  231ccc     O5 6939   0.236   2.241   7.684  0.0994 -0.0507  0.0062
  232ccc     C1 6940   0.317   1.528   7.032  0.8208 -0.7278  0.3804
  232ccc     H1 6941   0.397   1.556   6.962  1.6938 -4.1634 -0.2051
  232ccc     H2 6942   0.310   1.420   7.049 -0.8648 -0.9722 -1.4775
  232ccc     C2 6943   0.179   1.576   6.997  0.2920  0.6661  0.1862
  232ccc     H3 6944   0.148   1.520   6.908  1.5974 -2.0820  1.3319
  232ccc     H4 6945   0.181   1.685   6.982  2.4466  0.6850  0.3436
  232ccc     C3 6946   0.071   1.531   7.101 -0.3261 -0.3613 -0.7602
  232ccc     H5 6947   0.082   1.594   7.191  0.3975 -1.4052 -0.0990
  232ccc     H6 6948   0.095   1.428   7.128  1.1585 -0.2048 -1.3935
  232ccc     N1 6949  -0.066   1.545   7.047  0.3350 -0.0165 -0.2795
  232ccc     C4 6950  -0.112   1.447   6.952 -0.6562 -0.3457  0.8345
  232ccc     H7 6951  -0.060   1.451   6.856 -2.3127  2.5253 -0.0449
  232ccc     H8 6952  -0.212   1.477   6.922 -0.5440 -0.8419 -0.0617
  232ccc     C5 6953  -0.110   1.296   7.000 -0.1515 -0.1388  0.0388
  232ccc     H9 6954  -0.142   1.286   7.105 -0.0104 -0.3695  0.0600
  232ccc    H10 6955  -0.191   1.241   6.951 -0.7644  0.3890  0.4326
  232ccc     C6 6956   0.031   1.222   6.976 -0.9017 -0.4183 -0.1832
  232ccc     O1 6957   0.087   1.224   6.870 -0.1156 -0.1063  0.2184
  232ccc     O2 6958   0.058   1.121   7.065  0.3692 -0.3225  0.0980
  232ccc    H11 6959   0.002   1.136   7.143 -0.1056  1.8349 -0.5783
  232ccc     C7 6960  -0.092   1.685   7.012 -0.8729  0.1651 -0.0636
  232ccc    H12 6961  -0.052   1.755   7.086  0.9605  0.9326 -1.6728
  232ccc    H13 6962  -0.038   1.716   6.921 -1.0700  1.2019  0.1525
  232ccc     C8 6963  -0.235   1.718   6.986  0.4699 -0.3011 -0.0414
  232ccc    H14 6964  -0.279   1.677   6.895 -2.8368  0.3750  1.1036
  232ccc    H15 6965  -0.293   1.671   7.067 -1.1057  3.2918  1.1146
  232ccc     C9 6966  -0.261   1.869   6.993 -0.2168  0.5453 -0.6825
  232ccc     O3 6967  -0.269   1.939   7.091 -0.2079  0.6292 -0.2895
  232ccc     O4 6968  -0.288   1.928   6.873  0.1334  0.0414  0.5731
  232ccc    H16 6969  -0.266   1.860   6.807  0.6800  1.6364 -0.9347
  232ccc     O5 6970   0.343   1.590   7.160  0.3656 -0.2399 -0.6439
  233ccc     C1 6971  -0.280   1.626   7.402 -0.4014 -0.4637 -0.1578
  233ccc     H1 6972  -0.373   1.659   7.354 -0.0679 -0.9778 -1.2048
  233ccc     H2 6973  -0.202   1.604   7.327 -1.1191  1.2745 -1.4699
  233ccc     C2 6974  -0.303   1.504   7.502  0.2898 -0.2311 -0.0541
  233ccc     H3 6975  -0.382   1.526   7.574  2.1692  0.0663  2.0394
  233ccc     H4 6976  -0.210   1.479   7.557  0.1946  0.7583  0.5764
  233ccc     C3 6977  -0.351   1.376   7.418 -1.0315 -0.4142 -0.2730
  233ccc     H5 6978  -0.360   1.294   7.490  2.7305  0.8713  1.9712
  233ccc     H6 6979  -0.265   1.358   7.352 -0.2417  0.9378  0.3263
  233ccc     N1 6980  -0.485   1.393   7.349 -0.4310 -0.7446  0.3170
  233ccc     C4 6981  -0.600   1.388   7.448  0.3498 -0.3085  0.2310
  233ccc     H7 6982  -0.577   1.400   7.554 -2.1505  0.8398  0.7300
  233ccc     H8 6983  -0.648   1.290   7.442  0.4872 -0.4123  0.8144
  233ccc     C5 6984  -0.710   1.492   7.431 -0.0460  0.3008 -0.2865
  233ccc     H9 6985  -0.781   1.461   7.354 -0.3104  0.1333  0.0191
  233ccc    H10 6986  -0.768   1.497   7.525  1.1370  0.4477  0.4579
  233ccc     C6 6987  -0.655   1.637   7.403 -0.3137  0.0012 -0.6204
  233ccc     O1 6988  -0.617   1.711   7.491  0.1573 -0.1145  0.4286
  233ccc     O2 6989  -0.651   1.674   7.276  0.0089 -0.1487  0.3176
  233ccc    H11 6990  -0.617   1.765   7.278  0.0895 -0.1315 -1.0773
  233ccc     C7 6991  -0.515   1.328   7.219 -0.1666  0.5308 -0.1628
  233ccc    H12 6992  -0.502   1.220   7.205  1.9833  0.8446 -1.0177
  233ccc    H13 6993  -0.624   1.341   7.211 -0.0949  1.2862  0.0230
  233ccc     C8 6994  -0.445   1.399   7.103  0.3452 -0.2631 -0.1711
  233ccc    H14 6995  -0.472   1.505   7.093 -2.1518 -0.7082  1.0947
  233ccc    H15 6996  -0.336   1.399   7.118  0.1557 -0.5561  1.3101
  233ccc     C9 6997  -0.482   1.344   6.964 -0.0763  0.5942 -0.3915
  233ccc     O3 6998  -0.530   1.230   6.949  0.0450 -0.1566  0.0148
  233ccc     O4 6999  -0.446   1.414   6.858 -0.1818 -0.5450  0.6410
  233ccc    H16 7000  -0.491   1.370   6.784 -1.7970 -0.8153  1.7177
  233ccc     O5 7001  -0.231   1.730   7.487  0.3780  0.5154  0.2953
  234ccc     C1 7002   0.826   1.957   5.627  0.5402 -0.0057 -0.0964
  234ccc     H1 7003   0.844   1.979   5.521  2.4871 -0.0500  0.1815
  234ccc     H2 7004   0.924   1.935   5.672 -0.7044 -2.1834  1.7687
  234ccc     C2 7005   0.728   1.834   5.647 -0.1080 -0.1384  0.3760
  234ccc     H3 7006   0.726   1.788   5.548 -3.2633  1.5967 -0.4994
  234ccc     H4 7007   0.634   1.880   5.679  0.2759  1.4237 -0.6345
  234ccc     C3 7008   0.774   1.735   5.757  0.2498 -0.0301  0.0413
  234ccc     H5 7009   0.704   1.651   5.751 -0.5266  0.2880  3.0209
  234ccc     H6 7010   0.771   1.780   5.857  2.3255 -0.9494  0.5593
  234ccc     N1 7011   0.912   1.678   5.727 -0.4978  0.1937 -0.0870
  234ccc     C4 7012   0.937   1.606   5.598 -0.4778  0.3136  0.1878
  234ccc     H7 7013   1.044   1.586   5.592 -0.0459  1.6756  2.3252
  234ccc     H8 7014   0.910   1.668   5.511  0.9359  1.3998  0.4814
  234ccc     C5 7015   0.864   1.470   5.587  0.1240 -0.2049 -0.4550
  234ccc     H9 7016   0.877   1.432   5.689 -0.1898 -0.1936 -0.4098
  234ccc    H10 7017   0.758   1.491   5.566  0.8205  0.7307 -3.4513
  234ccc     C6 7018   0.931   1.363   5.500  0.0751  0.5021  0.2270
  234ccc     O1 7019   0.942   1.378   5.384 -0.4675 -0.6119  0.5002
  234ccc     O2 7020   1.000   1.272   5.570  0.3228 -0.4003 -0.1300
  234ccc    H11 7021   0.979   1.293   5.662  1.0924  0.2763 -0.0999
  234ccc     C7 7022   0.971   1.617   5.849  0.0189  0.4009 -0.4474
  234ccc    H12 7023   0.908   1.541   5.897  0.1825 -1.1091 -2.4844
  234ccc    H13 7024   1.073   1.580   5.833  2.0767  4.9021  0.6830
  234ccc     C8 7025   0.997   1.735   5.948 -0.1281 -0.3339  0.4704
  234ccc    H14 7026   1.031   1.827   5.899 -0.5717 -0.3723  0.0861
  234ccc    H15 7027   0.912   1.764   6.011 -1.5377 -2.7639 -0.1922
  234ccc     C9 7028   1.096   1.694   6.064  0.6177  0.0163 -0.1169
  234ccc     O3 7029   1.135   1.577   6.079  0.3482 -0.5703  0.2473
  234ccc     O4 7030   1.189   1.784   6.088  0.3443  0.4622  0.4866
  234ccc    H16 7031   1.151   1.863   6.046 -2.2561 -1.0177 -0.1787
  234ccc     O5 7032   0.766   2.067   5.697 -0.0429 -0.5455  0.5113
  235ccc     C1 7033   1.142   2.853   5.980 -0.0284  0.6361  0.0659
  235ccc     H1 7034   1.164   2.748   6.001  0.0773  0.5411 -0.5251
  235ccc     H2 7035   1.235   2.896   5.942  0.3868 -0.3056 -0.0121
  235ccc     C2 7036   1.112   2.929   6.113 -0.8840 -0.6535  0.4122
  235ccc     H3 7037   1.081   3.033   6.099 -0.9984 -0.7072  0.2684
  235ccc     H4 7038   1.205   2.931   6.171 -0.3974  1.8153 -0.3490
  235ccc     C3 7039   1.006   2.861   6.190 -0.1691 -0.5402 -0.8327
  235ccc     H5 7040   1.037   2.760   6.219 -0.0491 -0.4676 -0.7047
  235ccc     H6 7041   0.916   2.849   6.129 -0.6280 -4.9973  0.3978
  235ccc     N1 7042   0.961   2.926   6.314 -0.0449 -0.9062 -0.1149
  235ccc     C4 7043   0.899   3.062   6.292 -0.2134 -0.1460  0.0178
  235ccc     H7 7044   0.973   3.134   6.255 -0.8089  0.6202  0.3023
  235ccc     H8 7045   0.860   3.112   6.381  0.9820  1.4819 -0.3415
  235ccc     C5 7046   0.784   3.061   6.194  0.0459 -0.0833  0.0789
  235ccc     H9 7047   0.824   3.059   6.092 -1.7253  0.6762 -0.6791
  235ccc    H10 7048   0.717   2.976   6.210 -1.1980  0.8545 -0.0060
  235ccc     C6 7049   0.715   3.196   6.197 -0.4137  0.9202  0.3335
  235ccc     O1 7050   0.755   3.298   6.251  0.0458 -0.0783 -0.6740
  235ccc     O2 7051   0.619   3.216   6.102  0.3348  0.3708  0.5321
  235ccc    H11 7052   0.598   3.126   6.072 -0.0622  0.1659  1.4039
  235ccc     C7 7053   1.068   2.924   6.419 -0.2251  0.0263 -0.5599
  235ccc    H12 7054   1.162   2.966   6.381 -0.7534  1.1604 -0.6465
  235ccc    H13 7055   1.031   2.987   6.501  0.4794  2.7619 -2.2404
  235ccc     C8 7056   1.091   2.785   6.480 -0.2336  0.8259 -0.0294
  235ccc    H14 7057   1.110   2.714   6.399  1.1055  1.5642 -0.3823
  235ccc    H15 7058   1.171   2.782   6.555 -0.3436 -2.5758  0.1051
  235ccc     C9 7059   0.968   2.730   6.555  0.0529  0.2856  0.0743
  235ccc     O3 7060   0.964   2.705   6.676  0.4195 -0.4478  0.1341
  235ccc     O4 7061   0.849   2.744   6.491  0.6287  0.4438  0.2974
  235ccc    H16 7062   0.868   2.774   6.401  0.9120 -1.7615 -0.4266
  235ccc     O5 7063   1.046   2.870   5.873 -0.9610  0.2582  0.0443
  236ccc     C1 7064   0.230   1.259   5.385 -0.3770 -0.3225  0.4437
  236ccc     H1 7065   0.267   1.339   5.320 -0.8272  1.4610  2.2644
  236ccc     H2 7066   0.219   1.297   5.488  2.1120 -1.1564  1.0832
  236ccc     C2 7067   0.338   1.145   5.388  0.6073  0.3418  0.1086
  236ccc     H3 7068   0.424   1.193   5.436  1.0013  0.9892 -1.1916
  236ccc     H4 7069   0.368   1.124   5.284 -0.6699 -1.0422 -0.0170
  236ccc     C3 7070   0.300   1.010   5.462 -0.0673  0.6687 -0.3547
  236ccc     H5 7071   0.203   0.976   5.425 -0.1053  0.8370 -0.4134
  236ccc     H6 7072   0.280   1.039   5.566  1.4788  0.4662  0.0259
  236ccc     N1 7073   0.409   0.901   5.454 -0.1953  0.3105 -0.7835
  236ccc     C4 7074   0.542   0.943   5.513 -0.8157 -0.1618  0.2219
  236ccc     H7 7075   0.606   0.988   5.436 -0.0529 -3.9212 -1.5454
  236ccc     H8 7076   0.607   0.857   5.532 -0.4290 -0.0447 -0.5178
  236ccc     C5 7077   0.553   1.015   5.648 -0.0576 -0.0686  0.7688
  236ccc     H9 7078   0.515   1.118   5.648 -1.7128 -0.6401 -0.3780
  236ccc    H10 7079   0.501   0.968   5.733  1.8151  0.7332  2.4306
  236ccc     C6 7080   0.702   1.024   5.694  0.5797 -0.3002  0.4196
  236ccc     O1 7081   0.769   1.124   5.683 -0.2265 -0.0046 -0.2546
  236ccc     O2 7082   0.741   0.922   5.771  0.3951  0.1911  0.7523
  236ccc    H11 7083   0.659   0.871   5.778  0.9265 -0.8727 -0.3759
  236ccc     C7 7084   0.412   0.825   5.331  0.6763  0.1433 -0.0704
  236ccc    H12 7085   0.429   0.883   5.240 -1.8519 -0.9531 -1.3480
  236ccc    H13 7086   0.493   0.751   5.341 -1.1498 -1.8357  1.2267
  236ccc     C8 7087   0.287   0.735   5.304  0.2707 -0.1385 -0.2538
  236ccc    H14 7088   0.272   0.676   5.395  1.0971 -0.3823 -0.2708
  236ccc    H15 7089   0.197   0.798   5.295 -0.3035 -0.7343  1.0207
  236ccc     C9 7090   0.303   0.645   5.181  0.2985 -0.0839 -0.4478
  236ccc     O3 7091   0.392   0.660   5.107  0.2974 -0.2764  0.3011
  236ccc     O4 7092   0.194   0.575   5.142 -0.7133 -0.1007 -0.4159
  236ccc    H16 7093   0.140   0.580   5.223  2.4279  1.3638  1.7818
  236ccc     O5 7094   0.106   1.204   5.339 -0.0189 -0.0605 -0.2534
  237ccc     C1 7095   0.504   1.361   4.812  0.2652  0.4034  0.3884
  237ccc     H1 7096   0.581   1.394   4.741 -0.0122  2.7342  1.0884
  237ccc     H2 7097   0.557   1.348   4.907  0.4375  1.1864  0.4059
  237ccc     C2 7098   0.436   1.238   4.752 -0.3623 -0.6940  0.3060
  237ccc     H3 7099   0.506   1.159   4.724 -0.2320 -0.8935  1.1634
  237ccc     H4 7100   0.384   1.270   4.661  1.8124  0.2273 -0.6900
  237ccc     C3 7101   0.338   1.184   4.855  0.0496 -0.4163 -0.5764
  237ccc     H5 7102   0.258   1.259   4.855 -0.6460 -1.1536 -0.8121
  237ccc     H6 7103   0.386   1.193   4.954  0.3220  2.8538 -0.8916
  237ccc     N1 7104   0.277   1.059   4.835 -0.4549  0.3016  0.8007
  237ccc     C4 7105   0.369   0.948   4.850  0.2905  0.1747  0.2636
  237ccc     H7 7106   0.401   0.938   4.954  1.7495  2.0997  0.0719
  237ccc     H8 7107   0.459   0.977   4.794  0.9527 -0.5658  0.9209
  237ccc     C5 7108   0.308   0.814   4.802 -0.2766 -0.2050  0.3122
  237ccc     H9 7109   0.235   0.776   4.875 -1.8926  0.9512 -0.6253
  237ccc    H10 7110   0.273   0.823   4.699  0.9944  1.2997 -0.0158
  237ccc     C6 7111   0.417   0.707   4.791  0.6467 -0.1449 -0.4721
  237ccc     O1 7112   0.534   0.728   4.817 -0.2483  0.3022  0.3763
  237ccc     O2 7113   0.374   0.587   4.744 -0.1269  1.2453 -0.1450
  237ccc    H11 7114   0.278   0.596   4.731 -0.7056 -0.9309  1.8170
  237ccc     C7 7115   0.147   1.032   4.906 -0.9867  0.8253 -0.5250
  237ccc    H12 7116   0.072   1.108   4.881 -1.2641  1.4410  1.9420
  237ccc    H13 7117   0.106   0.941   4.860 -0.6482 -0.4716  1.6023
  237ccc     C8 7118   0.165   1.023   5.062 -0.5441  0.5988  0.3209
  237ccc    H14 7119   0.248   0.954   5.082 -0.1668  0.9771  0.0559
  237ccc    H15 7120   0.177   1.123   5.106 -1.7087  0.0242  2.0886
  237ccc     C9 7121   0.046   0.955   5.121 -0.1564 -0.0414  0.7923
  237ccc     O3 7122   0.020   0.833   5.101  0.2379 -0.5715  0.2512
  237ccc     O4 7123  -0.030   1.035   5.195  0.0868 -0.0481 -0.1290
  237ccc    H16 7124   0.022   1.118   5.198  0.3506 -0.2039 -0.3708
  237ccc     O5 7125   0.406   1.470   4.821 -0.5219 -1.0657 -0.3724
  238ccc     C1 7126   1.860   1.153   8.591  0.1253  0.3748 -0.0324
  238ccc     H1 7127   1.772   1.214   8.568  0.8917  1.4788 -0.1444
  238ccc     H2 7128   1.880   1.104   8.495  0.4732  0.9522 -0.2610
  238ccc     C2 7129   1.829   1.043   8.692 -0.5885  0.7865 -1.0571
  238ccc     H3 7130   1.817   1.088   8.791 -1.2942 -1.1904 -0.1870
  238ccc     H4 7131   1.911   0.970   8.695 -1.5095 -0.2623 -0.7839
  238ccc     C3 7132   1.711   0.962   8.644 -0.0886 -0.2154 -0.2963
  238ccc     H5 7133   1.747   0.910   8.554  0.7234  0.9801 -0.6817
  238ccc     H6 7134   1.631   1.028   8.609  0.0347 -1.2966 -2.8167
  238ccc     N1 7135   1.661   0.868   8.747  0.0209 -0.0993  0.0627
  238ccc     C4 7136   1.594   0.742   8.711 -0.6429  0.1967 -0.2930
  238ccc     H7 7137   1.489   0.755   8.679 -1.3596 -4.3973 -0.4508
  238ccc     H8 7138   1.590   0.681   8.802 -0.2360  0.8008  0.1335
  238ccc     C5 7139   1.663   0.665   8.595  0.5878 -0.0492 -0.4421
  238ccc     H9 7140   1.672   0.722   8.502  2.1891  1.9956  0.8902
  238ccc    H10 7141   1.763   0.652   8.639  0.5713  0.8684 -0.1281
  238ccc     C6 7142   1.607   0.523   8.562 -0.0642  0.1295 -0.2367
  238ccc     O1 7143   1.494   0.481   8.573 -0.2809 -0.2689 -0.1915
  238ccc     O2 7144   1.701   0.430   8.527  0.1891  0.0686  0.6958
  238ccc    H11 7145   1.789   0.468   8.545  1.7926 -1.0285 -3.4902
  238ccc     C7 7146   1.606   0.920   8.870 -0.2799  0.2557  1.0088
  238ccc    H12 7147   1.594   0.845   8.950  2.6808 -1.0912  0.3487
  238ccc    H13 7148   1.679   0.992   8.909 -1.1338  1.4379  0.4927
  238ccc     C8 7149   1.474   0.994   8.842  0.2767 -0.0744 -0.6108
  238ccc    H14 7150   1.485   1.070   8.764 -1.0753  0.9176  0.1330
  238ccc    H15 7151   1.403   0.920   8.802 -0.5128 -0.6920  1.7740
  238ccc     C9 7152   1.414   1.058   8.965 -0.1273 -0.1842 -0.0940
  238ccc     O3 7153   1.471   1.067   9.075 -0.2598 -0.2103  0.6330
  238ccc     O4 7154   1.289   1.104   8.954 -0.2322  0.0744  0.2802
  238ccc    H16 7155   1.278   1.102   8.857  0.3493  0.2171  0.2094
  238ccc     O5 7156   1.976   1.234   8.633 -0.1562 -0.0118 -0.2514
  239ccc     C1 7157   2.285   2.160   8.513 -0.0396  0.5204 -0.4705
  239ccc     H1 7158   2.338   2.142   8.420  0.0635  3.0913 -0.9908
  239ccc     H2 7159   2.232   2.256   8.515  1.2296  1.3148 -2.5008
  239ccc     C2 7160   2.390   2.145   8.628  0.5742 -0.1743  0.4020
  239ccc     H3 7161   2.352   2.213   8.705 -2.9219 -0.0431 -1.2325
  239ccc     H4 7162   2.480   2.193   8.587 -0.6341  1.0866 -0.8719
  239ccc     C3 7163   2.406   1.998   8.670 -0.1035 -0.0671  0.4465
  239ccc     H5 7164   2.304   1.963   8.694 -0.5908  1.7316  1.1228
  239ccc     H6 7165   2.468   1.991   8.761  1.1725 -2.1402 -0.5115
  239ccc     N1 7166   2.485   1.914   8.570  0.1352  0.3930 -0.1908
  239ccc     C4 7167   2.484   1.770   8.611 -0.2020  0.1595 -0.0852
  239ccc     H7 7168   2.528   1.745   8.709  1.2558  0.0611 -0.7419
  239ccc     H8 7169   2.554   1.719   8.545 -0.0678 -0.7141  0.7045
  239ccc     C5 7170   2.352   1.700   8.579 -0.7093  0.2453 -0.5120
  239ccc     H9 7171   2.350   1.602   8.629 -1.8490  0.9453  0.8864
  239ccc    H10 7172   2.268   1.756   8.622 -1.2172  0.3131 -1.5608
  239ccc     C6 7173   2.327   1.671   8.436  0.1714 -0.8340  0.5619
  239ccc     O1 7174   2.292   1.564   8.390 -0.3524  0.2424 -0.1050
  239ccc     O2 7175   2.376   1.768   8.355 -0.2615  0.4797  0.2211
  239ccc    H11 7176   2.419   1.829   8.418 -1.7996  1.6160  0.2197
  239ccc     C7 7177   2.629   1.954   8.556 -0.2266 -0.4043 -0.3282
  239ccc    H12 7178   2.627   2.063   8.558 -1.9091 -0.4065  2.2114
  239ccc    H13 7179   2.685   1.916   8.642  1.1148  0.0561 -0.9713
  239ccc     C8 7180   2.687   1.909   8.412 -0.0974 -0.9608 -0.0333
  239ccc    H14 7181   2.634   1.829   8.360  2.6005 -1.8334 -1.5964
  239ccc    H15 7182   2.662   1.996   8.349  1.2063  0.2621  1.0456
  239ccc     C9 7183   2.839   1.881   8.399  0.3974  0.4503  0.0060
  239ccc     O3 7184   2.878   1.785   8.338  0.0298  0.2977 -0.1305
  239ccc     O4 7185   2.913   1.992   8.394  0.2697  0.7239  0.1744
  239ccc    H16 7186   2.864   2.066   8.435  1.9323  1.8532  0.2230
  239ccc     O5 7187   2.175   2.069   8.529  0.6599 -0.0193 -0.1887
  240ccc     C1 7188   2.550   1.585   7.638 -0.5974  0.4944  0.9883
  240ccc     H1 7189   2.652   1.623   7.647 -1.1305  1.8531  1.5731
  240ccc     H2 7190   2.503   1.619   7.731  1.8596 -0.2825  2.6046
  240ccc     C2 7191   2.552   1.426   7.643 -1.0204  0.2207 -0.4551
  240ccc     H3 7192   2.606   1.395   7.553 -0.6526 -0.6631  0.0571
  240ccc     H4 7193   2.448   1.394   7.629 -1.0586  0.3964 -0.5840
  240ccc     C3 7194   2.613   1.371   7.770 -0.1819  0.0889  0.0018
  240ccc     H5 7195   2.539   1.369   7.850 -2.4037 -3.1169 -1.9081
  240ccc     H6 7196   2.693   1.436   7.806 -1.5621  0.8898  1.7671
  240ccc     N1 7197   2.663   1.233   7.764  0.0157 -0.2397  0.2377
  240ccc     C4 7198   2.748   1.185   7.871 -0.0537  0.5062 -0.0823
  240ccc     H7 7199   2.831   1.258   7.867  2.0643 -1.6704  1.1558
  240ccc     H8 7200   2.799   1.093   7.839 -2.2810 -0.5215 -0.8634
  240ccc     C5 7201   2.676   1.160   8.007  0.0474 -0.2195  0.3044
  240ccc     H9 7202   2.743   1.172   8.093 -0.1708  1.1857  0.2974
  240ccc    H10 7203   2.598   1.235   8.029 -0.8345 -0.7879 -0.7958
  240ccc     C6 7204   2.614   1.022   7.998 -0.2914 -0.1796  0.4058
  240ccc     O1 7205   2.502   0.995   7.966  0.1815  0.1759 -0.3731
  240ccc     O2 7206   2.704   0.928   8.012  0.0426  0.7452 -0.3103
  240ccc    H11 7207   2.796   0.962   8.010  1.4986 -2.8070 -0.4964
  240ccc     C7 7208   2.565   1.138   7.708 -0.0973  0.2466  0.2682
  240ccc    H12 7209   2.479   1.124   7.775  0.0628 -1.4270  0.1726
  240ccc    H13 7210   2.513   1.183   7.623 -1.6848  0.4155  1.3012
  240ccc     C8 7211   2.626   0.999   7.665 -0.1848 -0.6195 -0.6672
  240ccc    H14 7212   2.707   1.016   7.594 -0.1193 -0.0672 -0.4688
  240ccc    H15 7213   2.671   0.957   7.756 -0.7170  1.1712  0.4899
  240ccc     C9 7214   2.510   0.918   7.602 -0.5255  0.4553  0.3948
  240ccc     O3 7215   2.495   0.907   7.482 -0.4318  0.4472 -0.4040
  240ccc     O4 7216   2.433   0.866   7.697  1.0179 -0.0629  0.8543
  240ccc    H16 7217   2.471   0.903   7.778  0.2105  2.0745  0.3266
  240ccc     O5 7218   2.485   1.633   7.511  0.3243 -0.0420 -0.5771
  241ccc     C1 7219   2.369   2.345   7.152 -0.5392  0.5000  1.5416
  241ccc     H1 7220   2.344   2.297   7.247  0.7914 -0.5242  1.4020
  241ccc     H2 7221   2.471   2.309   7.134 -0.6103  0.0558  2.0051
  241ccc     C2 7222   2.375   2.493   7.184  0.3150 -0.0849  0.0429
  241ccc     H3 7223   2.400   2.548   7.092 -5.0297  2.6233 -0.1589
  241ccc     H4 7224   2.453   2.517   7.257  1.4408 -0.0344 -1.1353
  241ccc     C3 7225   2.245   2.553   7.233  0.6594 -1.2406 -0.1049
  241ccc     H5 7226   2.199   2.481   7.302  0.1030 -0.2750  0.5607
  241ccc     H6 7227   2.177   2.565   7.148 -0.4714  0.7507  1.0004
  241ccc     N1 7228   2.255   2.687   7.309  0.1363  0.4633 -0.2563
  241ccc     C4 7229   2.127   2.754   7.343 -0.5127  0.1704  0.0002
  241ccc     H7 7230   2.103   2.821   7.259 -0.6368  1.4174  0.9932
  241ccc     H8 7231   2.138   2.818   7.432 -0.3639 -0.6435  0.5761
  241ccc     C5 7232   2.013   2.652   7.387 -0.3474  0.4814  0.4526
  241ccc     H9 7233   1.973   2.589   7.307  3.3180  0.3568 -1.5127
  241ccc    H10 7234   2.048   2.580   7.461  1.5889 -1.3869 -2.0635
  241ccc     C6 7235   1.887   2.726   7.439 -0.1422  0.6236 -0.3483
  241ccc     O1 7236   1.888   2.802   7.532  0.0661  0.4884 -0.0093
  241ccc     O2 7237   1.779   2.702   7.365 -0.5349 -0.0088 -0.1660
  241ccc    H11 7238   1.810   2.660   7.283 -0.4722 -1.8405  0.7547
  241ccc     C7 7239   2.349   2.785   7.255 -0.8488 -0.6019 -0.5363
  241ccc    H12 7240   2.442   2.742   7.216 -1.1009 -0.6042 -1.1535
  241ccc    H13 7241   2.312   2.813   7.155 -1.6977  2.4427  0.5259
  241ccc     C8 7242   2.382   2.907   7.341  0.0159 -0.6006 -0.7073
  241ccc    H14 7243   2.433   2.981   7.278 -1.2285  1.7118  0.8296
  241ccc    H15 7244   2.297   2.965   7.380  0.6914  0.3581 -0.6145
  241ccc     C9 7245   2.478   2.876   7.450 -0.1371  0.8160 -0.3025
  241ccc     O3 7246   2.557   2.950   7.502  0.3895 -0.0620  0.8776
  241ccc     O4 7247   2.443   2.761   7.512 -0.0914 -0.7434  0.5983
  241ccc    H16 7248   2.374   2.728   7.452  0.4881 -1.3941  0.2561
  241ccc     O5 7249   2.275   2.305   7.050 -0.8883  0.5302  0.3906
  242ccc     C1 7250   1.478  -0.176   7.481  0.0519 -0.7355  0.3299
  242ccc     H1 7251   1.551  -0.131   7.413  1.1748 -0.7508  1.4915
  242ccc     H2 7252   1.522  -0.242   7.557  0.6724 -0.3732  0.2852
  242ccc     C2 7253   1.384  -0.272   7.404  0.4473  0.1776 -0.0423
  242ccc     H3 7254   1.310  -0.312   7.474 -0.7654 -0.4843 -1.6133
  242ccc     H4 7255   1.441  -0.364   7.387 -1.6935 -1.2016 -0.1545
  242ccc     C3 7256   1.304  -0.215   7.288 -0.4718 -0.5093  0.1650
  242ccc     H5 7257   1.233  -0.146   7.336  0.6243 -0.6102  2.0142
  242ccc     H6 7258   1.232  -0.288   7.249 -1.1786 -0.7004  1.7525
  242ccc     N1 7259   1.392  -0.157   7.188  0.2992  0.5238 -0.1241
  242ccc     C4 7260   1.322  -0.057   7.100 -0.4762  0.4864  0.4105
  242ccc     H7 7261   1.213  -0.074   7.107 -0.0973 -1.8211  1.8169
  242ccc     H8 7262   1.341  -0.076   6.994 -0.9904  0.0180  0.3972
  242ccc     C5 7263   1.360   0.088   7.140 -0.2367 -0.5680  0.4966
  242ccc     H9 7264   1.354   0.106   7.248 -1.6445  1.1699  0.1898
  242ccc    H10 7265   1.462   0.104   7.103  0.0326 -0.5910  1.2226
  242ccc     C6 7266   1.275   0.193   7.073  0.1503  0.5290 -0.2838
  242ccc     O1 7267   1.182   0.174   6.993 -0.1834 -0.4139  0.2107
  242ccc     O2 7268   1.308   0.319   7.102  0.0697  0.4467  0.4187
  242ccc    H11 7269   1.379   0.311   7.168  0.8132 -0.4388 -0.4477
  242ccc     C7 7270   1.469  -0.258   7.106 -0.3612  0.0685  0.0221
  242ccc    H12 7271   1.494  -0.346   7.165  1.5263  0.4152 -0.1838
  242ccc    H13 7272   1.416  -0.295   7.018  0.4896 -0.2259 -0.3821
  242ccc     C8 7273   1.593  -0.193   7.046  0.4776 -0.1148 -0.4176
  242ccc    H14 7274   1.568  -0.101   6.991  1.0368 -0.0078 -0.4986
  242ccc    H15 7275   1.652  -0.169   7.136 -1.1209  0.1762  0.5921
  242ccc     C9 7276   1.669  -0.298   6.975 -0.1749 -0.7195  0.1835
  242ccc     O3 7277   1.766  -0.355   7.020  0.5521  0.0049 -0.4518
  242ccc     O4 7278   1.636  -0.314   6.847 -0.4576  0.3945 -0.1044
  242ccc    H16 7279   1.554  -0.261   6.845 -0.7688 -0.0283  1.0493
  242ccc     O5 7280   1.395  -0.077   7.551 -0.4873  0.8068  0.5723
  243ccc     C1 7281   1.330  -0.506   7.875 -0.0152 -0.3513 -0.0585
  243ccc     H1 7282   1.300  -0.610   7.888 -0.1379 -0.2383  0.6417
  243ccc     H2 7283   1.275  -0.454   7.955  1.2536  2.7149 -1.0229
  243ccc     C2 7284   1.288  -0.446   7.733  0.6114  0.6364  0.4621
  243ccc     H3 7285   1.336  -0.504   7.653 -0.1919 -0.7425  0.9329
  243ccc     H4 7286   1.327  -0.344   7.728  0.9577  0.5195  0.8039
  243ccc     C3 7287   1.132  -0.459   7.711  0.1392 -0.5558  0.4024
  243ccc     H5 7288   1.106  -0.565   7.716 -1.9927 -0.0894  0.1558
  243ccc     H6 7289   1.108  -0.442   7.606  0.9949 -3.3564 -0.3204
  243ccc     N1 7290   1.062  -0.370   7.806 -0.1051  0.4073  0.1205
  243ccc     C4 7291   1.026  -0.237   7.761 -0.3388 -1.1528  0.4384
  243ccc     H7 7292   0.980  -0.185   7.846 -3.4652 -2.6881 -0.1589
  243ccc     H8 7293   0.954  -0.245   7.679  1.8555 -1.1726 -1.5825
  243ccc     C5 7294   1.144  -0.152   7.706 -0.1638 -0.6263 -0.5147
  243ccc     H9 7295   1.208  -0.120   7.789  0.7281  0.4713 -1.5823
  243ccc    H10 7296   1.201  -0.205   7.628  0.2221 -0.6435 -0.2239
  243ccc     C6 7297   1.091  -0.024   7.642 -0.1974 -0.1606 -0.1453
  243ccc     O1 7298   0.988   0.031   7.676  0.5049  0.5147  0.1333
  243ccc     O2 7299   1.170   0.040   7.556 -0.7323 -0.2126  0.2941
  243ccc    H11 7300   1.256  -0.006   7.547  0.1134  1.3499  0.0138
  243ccc     C7 7301   0.938  -0.432   7.871 -0.9984 -0.2530 -0.7623
  243ccc    H12 7302   0.850  -0.429   7.805 -2.0699  0.2284  0.6302
  243ccc    H13 7303   0.953  -0.538   7.894 -0.6244  0.2607  1.5595
  243ccc     C8 7304   0.889  -0.362   8.004  0.1523  0.3998 -0.8014
  243ccc    H14 7305   0.843  -0.263   7.997 -0.2730  0.3633  0.8715
  243ccc    H15 7306   0.818  -0.435   8.045 -1.0258  1.4749 -0.8578
  243ccc     C9 7307   1.012  -0.346   8.096 -0.2664  0.0839  0.2182
  243ccc     O3 7308   1.087  -0.248   8.095  0.4891 -0.1060 -0.8025
  243ccc     O4 7309   1.042  -0.464   8.150  0.0807  0.1141  0.3393
  243ccc    H16 7310   0.958  -0.512   8.148  0.4252 -0.4865 -0.1905
  243ccc     O5 7311   1.479  -0.499   7.888  0.0139  0.4274 -0.1042
  244ccc     C1 7312   2.295  -0.366   7.524 -0.0297 -0.2722  0.1004
  244ccc     H1 7313   2.346  -0.425   7.602  1.1153 -0.5473 -0.8413
  244ccc     H2 7314   2.199  -0.332   7.566 -1.0862 -2.6198 -0.2870
  244ccc     C2 7315   2.257  -0.467   7.415 -0.2419  0.7287 -0.3931
  244ccc     H3 7316   2.198  -0.550   7.454  0.7575 -0.6641 -1.7158
  244ccc     H4 7317   2.349  -0.516   7.379 -2.2147 -2.6505 -1.2044
  244ccc     C3 7318   2.193  -0.400   7.294 -0.7267 -0.2143  0.3347
  244ccc     H5 7319   2.252  -0.311   7.269 -0.7448 -0.6184 -1.2354
  244ccc     H6 7320   2.093  -0.374   7.330 -0.1282 -0.9115  2.6580
  244ccc     N1 7321   2.166  -0.480   7.168 -1.1713 -0.0996  0.2168
  244ccc     C4 7322   2.077  -0.604   7.180  0.1142 -0.6203  0.5421
  244ccc     H7 7323   2.124  -0.671   7.253  0.4321  1.9911  2.8924
  244ccc     H8 7324   2.066  -0.650   7.081 -0.1235  2.4168 -0.9325
  244ccc     C5 7325   1.937  -0.573   7.233  0.6483 -0.1495 -0.7864
  244ccc     H9 7326   1.941  -0.561   7.342  1.0525 -1.1915 -0.6747
  244ccc    H10 7327   1.899  -0.479   7.191 -3.2944 -1.4790 -0.5528
  244ccc     C6 7328   1.831  -0.679   7.196 -1.0082  0.4538 -0.7385
  244ccc     O1 7329   1.862  -0.784   7.147 -0.4589  0.4224  0.0571
  244ccc     O2 7330   1.707  -0.653   7.227 -0.3053  0.5218  0.7207
  244ccc    H11 7331   1.702  -0.561   7.258 -0.0618  0.6469  0.3949
  244ccc     C7 7332   2.135  -0.391   7.052  0.1353  0.5583  0.4701
  244ccc    H12 7333   2.100  -0.450   6.967 -1.1926  0.6706  0.9051
  244ccc    H13 7334   2.050  -0.327   7.077 -0.1125  0.6011 -0.4487
  244ccc     C8 7335   2.259  -0.319   7.002 -0.1123 -0.2829  0.4563
  244ccc    H14 7336   2.297  -0.256   7.084  0.0363  0.2903 -0.0488
  244ccc    H15 7337   2.342  -0.384   6.976 -0.6961 -0.4464 -1.0781
  244ccc     C9 7338   2.247  -0.240   6.869 -0.2890 -0.7442 -0.5761
  244ccc     O3 7339   2.154  -0.227   6.802  0.2436  0.1484  0.7222
  244ccc     O4 7340   2.369  -0.186   6.833 -0.0379  0.1369 -0.2578
  244ccc    H16 7341   2.426  -0.201   6.910  0.0454  0.2758 -0.2925
  244ccc     O5 7342   2.384  -0.256   7.469  0.4425 -0.4046 -0.3371
  245ccc     C1 7343   2.699  -0.267   6.839 -0.0442 -0.0534 -0.0763
  245ccc     H1 7344   2.723  -0.178   6.780 -3.2716  0.3682 -0.9391
  245ccc     H2 7345   2.795  -0.299   6.881  1.1720  1.4182 -1.6126
  245ccc     C2 7346   2.636  -0.380   6.760  0.2841  0.3801  0.2396
  245ccc     H3 7347   2.531  -0.365   6.731  0.2524  0.1461  0.2338
  245ccc     H4 7348   2.635  -0.462   6.833  0.4593  0.0654 -0.1071
  245ccc     C3 7349   2.723  -0.419   6.634 -0.8869  0.4682  0.0912
  245ccc     H5 7350   2.822  -0.444   6.674 -0.7736 -2.4035 -1.7443
  245ccc     H6 7351   2.737  -0.325   6.580  1.5487  0.7395  1.0908
  245ccc     N1 7352   2.682  -0.542   6.554 -0.3717  0.0891  0.2108
  245ccc     C4 7353   2.640  -0.655   6.631  0.6256 -0.3230 -0.1927
  245ccc     H7 7354   2.604  -0.731   6.560  0.3852  1.5690 -2.1771
  245ccc     H8 7355   2.544  -0.629   6.677 -0.3524 -0.6843 -1.9586
  245ccc     C5 7356   2.740  -0.713   6.730  0.1948  0.6710  0.0502
  245ccc     H9 7357   2.842  -0.720   6.689 -0.3912 -0.3548 -1.3247
  245ccc    H10 7358   2.758  -0.645   6.813  0.6903 -0.5016  0.9390
  245ccc     C6 7359   2.702  -0.846   6.794  0.9789  0.5100  0.4052
  245ccc     O1 7360   2.590  -0.890   6.804 -0.0397 -0.0235 -0.1616
  245ccc     O2 7361   2.802  -0.894   6.871  0.1811  0.4518 -0.3062
  245ccc    H11 7362   2.875  -0.830   6.876  1.0148 -0.5727  1.1603
  245ccc     C7 7363   2.779  -0.576   6.452 -0.0615  0.2557  0.3438
  245ccc    H12 7364   2.881  -0.572   6.492  0.2668  0.1802 -0.4628
  245ccc    H13 7365   2.773  -0.679   6.413  0.3018  0.6687 -0.8473
  245ccc     C8 7366   2.775  -0.470   6.346  0.2344  0.0353  0.0253
  245ccc    H14 7367   2.674  -0.451   6.310  0.0739 -0.4069  0.2367
  245ccc    H15 7368   2.812  -0.373   6.383 -2.7198  0.9017  0.9739
  245ccc     C9 7369   2.867  -0.513   6.229  0.0494 -0.2896  0.1143
  245ccc     O3 7370   2.921  -0.621   6.216  0.1469 -0.1381 -0.0743
  245ccc     O4 7371   2.856  -0.425   6.125 -0.0249  0.7505  0.1725
  245ccc    H16 7372   2.828  -0.338   6.158 -3.7148  0.4348 -1.6527
  245ccc     O5 7373   2.618  -0.227   6.953  0.2531 -0.2624  0.1216
  246ccc     C1 7374   0.221   2.849   8.123 -0.0321 -0.2751  0.5209
  246ccc     H1 7375   0.293   2.889   8.050  0.6839 -0.8121  0.9214
  246ccc     H2 7376   0.188   2.920   8.201 -1.5598 -0.6358  0.2409
  246ccc     C2 7377   0.293   2.725   8.186  0.3629 -0.4068 -0.4297
  246ccc     H3 7378   0.388   2.756   8.231  1.5169 -0.3041 -2.8064
  246ccc     H4 7379   0.302   2.657   8.101  0.8278  0.3353 -0.9855
  246ccc     C3 7380   0.206   2.657   8.299  0.1674  0.6332 -0.1938
  246ccc     H5 7381   0.108   2.645   8.252  0.6185  2.2152 -1.6496
  246ccc     H6 7382   0.192   2.725   8.384  1.0375  0.5411  0.0280
  246ccc     N1 7383   0.259   2.531   8.355 -0.4878  0.7114 -0.1226
  246ccc     C4 7384   0.393   2.538   8.410 -0.1889 -0.0376  0.7944
  246ccc     H7 7385   0.458   2.564   8.325 -0.2451 -0.1968  0.7026
  246ccc     H8 7386   0.414   2.433   8.434 -0.9800 -0.0851  1.3105
  246ccc     C5 7387   0.406   2.629   8.532 -0.3416  0.2600 -0.1901
  246ccc     H9 7388   0.380   2.736   8.529 -0.7769  0.2580  1.9776
  246ccc    H10 7389   0.333   2.601   8.610 -3.0521  2.3718 -1.7717
  246ccc     C6 7390   0.545   2.625   8.594 -0.3601 -0.4969 -0.0169
  246ccc     O1 7391   0.645   2.683   8.548  0.1599  0.3253 -0.4118
  246ccc     O2 7392   0.559   2.555   8.710  0.4125 -0.4015 -0.2602
  246ccc    H11 7393   0.468   2.524   8.727  1.3236 -1.6381  3.1901
  246ccc     C7 7394   0.160   2.456   8.435 -0.4294 -0.0848  0.1896
  246ccc    H12 7395   0.213   2.368   8.474  1.2855  1.0840  0.6552
  246ccc    H13 7396   0.137   2.515   8.525  0.2999  2.3245 -1.1063
  246ccc     C8 7397   0.039   2.406   8.356 -0.0329 -0.1823  0.0189
  246ccc    H14 7398  -0.022   2.481   8.304 -0.3032  0.7317  1.5857
  246ccc    H15 7399   0.078   2.344   8.275  0.2881  1.1299 -0.8544
  246ccc     C9 7400  -0.049   2.315   8.431  0.1325 -0.4361 -0.5934
  246ccc     O3 7401  -0.018   2.198   8.442  0.4759  0.0221  0.1931
  246ccc     O4 7402  -0.179   2.355   8.445  0.2330 -0.0462 -0.2591
  246ccc    H16 7403  -0.165   2.451   8.451  1.2739 -0.2588  1.2308
  246ccc     O5 7404   0.103   2.791   8.057  0.1118  0.1238  0.4681
  247ccc     C1 7405   0.276   2.963   7.061 -0.2279  0.2653  0.0881
  247ccc     H1 7406   0.209   2.880   7.036  1.1830 -0.3143 -2.0379
  247ccc     H2 7407   0.221   3.056   7.082 -0.0016  0.3129  0.4851
  247ccc     C2 7408   0.372   2.987   6.942  0.5220  0.1683  0.5343
  247ccc     H3 7409   0.441   3.067   6.971 -1.3902  2.3077 -0.5234
  247ccc     H4 7410   0.318   3.039   6.862 -0.0742  3.0210  2.6584
  247ccc     C3 7411   0.444   2.861   6.900 -0.7081 -0.1076 -0.3983
  247ccc     H5 7412   0.373   2.783   6.867  0.4838 -1.4399  0.0717
  247ccc     H6 7413   0.493   2.828   6.993  0.0765 -0.9099 -1.0807
  247ccc     N1 7414   0.546   2.873   6.793 -0.1845 -0.2250 -0.3706
  247ccc     C4 7415   0.582   2.741   6.726  0.3642 -0.0253  0.0846
  247ccc     H7 7416   0.652   2.757   6.643  1.1032 -2.3518  0.1887
  247ccc     H8 7417   0.492   2.693   6.686  2.3640 -0.6107 -4.3531
  247ccc     C5 7418   0.635   2.633   6.823 -0.3121 -0.6113  0.7601
  247ccc     H9 7419   0.730   2.647   6.876 -1.4841 -1.7490  3.3455
  247ccc    H10 7420   0.570   2.609   6.908  0.1149  1.2930  1.6804
  247ccc     C6 7421   0.663   2.504   6.739  0.6098  0.0590  0.0414
  247ccc     O1 7422   0.592   2.403   6.741  0.4280  0.1628  0.2239
  247ccc     O2 7423   0.792   2.492   6.693  0.8818 -0.1305  0.0303
  247ccc    H11 7424   0.830   2.581   6.702 -1.1628  1.1053 -2.3913
  247ccc     C7 7425   0.665   2.964   6.814  0.2090  0.0462  0.5437
  247ccc    H12 7426   0.624   3.061   6.844 -0.5545 -0.0965 -0.0042
  247ccc    H13 7427   0.727   2.929   6.897  1.4176  0.5766 -0.1122
  247ccc     C8 7428   0.749   2.988   6.685  0.6267 -0.6374  0.1779
  247ccc    H14 7429   0.800   2.895   6.657  1.5114 -0.4375  1.0694
  247ccc    H15 7430   0.684   3.030   6.607  0.7514 -0.3162  0.2449
  247ccc     C9 7431   0.861   3.093   6.700  0.5180  0.4200  0.1101
  247ccc     O3 7432   0.964   3.062   6.753 -0.0486  0.0929  0.6067
  247ccc     O4 7433   0.840   3.206   6.638  0.0832 -0.1062  0.3258
  247ccc    H16 7434   0.744   3.209   6.626 -0.2810 -3.3013  1.3608
  247ccc     O5 7435   0.352   2.919   7.182  0.2911 -0.0470  0.3108
  248ccc     C1 7436   1.648   3.168   7.371  0.9136 -0.3521 -0.2116
  248ccc     H1 7437   1.629   3.098   7.453 -2.8347 -1.0932 -1.5391
  248ccc     H2 7438   1.561   3.168   7.305  1.3390 -0.0895 -0.7809
  248ccc     C2 7439   1.769   3.109   7.308  0.4013 -0.2848  0.3730
  248ccc     H3 7440   1.749   3.003   7.284 -1.2350  0.4511 -1.8550
  248ccc     H4 7441   1.845   3.110   7.387  2.3913 -0.6642 -1.4379
  248ccc     C3 7442   1.806   3.187   7.178 -0.0845  0.5421  0.1051
  248ccc     H5 7443   1.810   3.296   7.192  0.7871  0.3606  1.4426
  248ccc     H6 7444   1.735   3.171   7.096  0.2086 -1.9963  0.2568
  248ccc     N1 7445   1.937   3.138   7.122 -0.0821  0.5736  0.1342
  248ccc     C4 7446   1.914   2.999   7.071  0.6636  0.6333  0.5039
  248ccc     H7 7447   1.810   2.990   7.038  0.3073  1.5348  1.3341
  248ccc     H8 7448   1.925   2.921   7.148 -1.3826 -2.3022 -1.9398
  248ccc     C5 7449   2.014   2.952   6.962  0.1702 -0.0673 -0.3236
  248ccc     H9 7450   2.005   2.999   6.863  0.6176 -2.2498 -1.4787
  248ccc    H10 7451   2.113   2.972   7.003 -0.0660 -0.6115  0.5248
  248ccc     C6 7452   2.004   2.806   6.922 -0.1014 -0.4901  0.4119
  248ccc     O1 7453   1.904   2.756   6.874 -0.6594 -0.1257 -0.1808
  248ccc     O2 7454   2.105   2.734   6.960 -0.5790 -0.0222 -0.1153
  248ccc    H11 7455   2.072   2.643   6.945  0.4253  0.0028 -3.2769
  248ccc     C7 7456   2.056   3.166   7.208  0.1270  0.3515 -0.4881
  248ccc    H12 7457   2.043   3.100   7.295  1.4243  1.6701  0.7533
  248ccc    H13 7458   2.144   3.132   7.152  0.6518 -0.2062  0.6521
  248ccc     C8 7459   2.079   3.313   7.251 -0.7848  0.5526  0.2559
  248ccc    H14 7460   2.070   3.375   7.161 -3.5143  1.6455  1.1740
  248ccc    H15 7461   2.001   3.341   7.323  0.2833  1.3334  1.1529
  248ccc     C9 7462   2.219   3.327   7.304  0.0377 -0.1422 -0.4130
  248ccc     O3 7463   2.292   3.235   7.328 -0.2662 -0.3745  0.4263
  248ccc     O4 7464   2.243   3.456   7.349  0.0714  0.3997 -0.0117
  248ccc    H16 7465   2.160   3.498   7.321  0.3636 -0.3646 -2.1690
  248ccc     O5 7466   1.678   3.301   7.418  0.4012  0.3555  0.0883
  249ccc     C1 7467   1.835   2.962   7.951 -0.2309  0.2345  0.6725
  249ccc     H1 7468   1.876   2.936   7.852  3.4004  1.5583  1.6562
  249ccc     H2 7469   1.918   3.018   7.996 -0.8765  2.2957 -0.5390
  249ccc     C2 7470   1.805   2.834   8.027 -0.0532 -0.4871 -0.7810
  249ccc     H3 7471   1.708   2.791   8.001 -1.2761  0.2263  2.2096
  249ccc     H4 7472   1.786   2.855   8.133  1.1123 -0.5403 -0.5538
  249ccc     C3 7473   1.913   2.725   8.023 -0.2987 -0.1073  0.6799
  249ccc     H5 7474   1.940   2.727   7.916  0.8823  1.0689  0.9714
  249ccc     H6 7475   1.876   2.623   8.034 -2.0749  0.1334 -2.0412
  249ccc     N1 7476   2.033   2.768   8.104 -0.5072 -0.3921  0.5597
  249ccc     C4 7477   2.023   2.762   8.253  0.1539 -0.5616 -0.1532
  249ccc     H7 7478   2.032   2.657   8.285  2.0147  0.3072  2.6245
  249ccc     H8 7479   1.923   2.798   8.279  0.9854  2.3970 -0.6992
  249ccc     C5 7480   2.119   2.846   8.337  0.0855  0.6138 -0.4363
  249ccc     H9 7481   2.102   2.842   8.445  1.1943 -0.2814 -0.2775
  249ccc    H10 7482   2.218   2.799   8.331  0.1051  0.8263 -2.7258
  249ccc     C6 7483   2.121   2.989   8.289 -0.4994 -0.0162  0.1305
  249ccc     O1 7484   2.029   3.056   8.246  0.1020  0.5724 -0.8121
  249ccc     O2 7485   2.239   3.052   8.280  0.0130  0.4266 -0.3376
  249ccc    H11 7486   2.310   2.999   8.320  0.0442 -0.2503 -1.2517
  249ccc     C7 7487   2.153   2.698   8.062 -0.4674  0.0795 -0.2088
  249ccc    H12 7488   2.224   2.728   8.140 -3.3038  2.5186  1.6580
  249ccc    H13 7489   2.142   2.589   8.076  1.5160  0.0516  1.8215
  249ccc     C8 7490   2.206   2.733   7.916  0.3410  0.9298  0.2885
  249ccc    H14 7491   2.125   2.765   7.849 -1.1081  0.0856  1.5774
  249ccc    H15 7492   2.285   2.808   7.927  1.9114 -0.1684 -2.4384
  249ccc     C9 7493   2.273   2.617   7.841 -0.0597  0.0847 -0.3109
  249ccc     O3 7494   2.313   2.519   7.897 -0.2227  0.1414  0.0965
  249ccc     O4 7495   2.251   2.629   7.703 -0.0422 -0.6989  0.3981
  249ccc    H16 7496   2.244   2.725   7.695  1.1276 -0.6960 -1.1729
  249ccc     O5 7497   1.712   3.038   7.939  0.1285  0.5569  0.7539
  250ccc     C1 7498   0.508   1.122   7.082  0.6527  0.1782  1.7131
  250ccc     H1 7499   0.535   1.211   7.023 -0.7170 -0.1791  0.4890
  250ccc     H2 7500   0.590   1.051   7.096  1.2463  0.6428  0.7423
  250ccc     C2 7501   0.382   1.068   7.008 -0.2951 -0.1348 -0.3989
  250ccc     H3 7502   0.310   1.150   6.993 -0.4983 -0.4509 -1.2074
  250ccc     H4 7503   0.337   0.993   7.075 -0.4777  0.6873  0.4084
  250ccc     C3 7504   0.418   0.989   6.873 -0.0856 -0.1053  0.2921
  250ccc     H5 7505   0.428   1.059   6.789  0.7592 -1.4544 -0.7695
  250ccc     H6 7506   0.328   0.939   6.838 -0.6888  1.1911 -0.0489
  250ccc     N1 7507   0.530   0.894   6.885 -0.3466 -0.3747  0.5302
  250ccc     C4 7508   0.590   0.855   6.750 -0.0623 -0.2701  0.3279
  250ccc     H7 7509   0.689   0.813   6.767  1.4676  1.6966 -2.7818
  250ccc     H8 7510   0.596   0.946   6.688 -0.4154 -0.4063  0.0864
  250ccc     C5 7511   0.515   0.749   6.668  0.6150  0.8181 -0.0583
  250ccc     H9 7512   0.570   0.728   6.575  0.1467 -0.5867 -0.0376
  250ccc    H10 7513   0.508   0.651   6.715  1.3348 -0.6921 -2.8696
  250ccc     C6 7514   0.379   0.790   6.617  0.2575 -0.1861  0.0709
  250ccc     O1 7515   0.352   0.904   6.581 -0.7328 -0.2127  0.5208
  250ccc     O2 7516   0.285   0.689   6.607  0.4973  0.4458  0.1049
  250ccc    H11 7517   0.325   0.606   6.640 -0.5124  0.0951  0.4657
  250ccc     C7 7518   0.510   0.777   6.983  0.2153  0.1897  0.4096
  250ccc    H12 7519   0.490   0.819   7.082 -1.5242 -0.7304  0.4854
  250ccc    H13 7520   0.419   0.717   6.967 -0.3143  1.2586 -0.7817
  250ccc     C8 7521   0.635   0.697   7.013  0.2956 -0.3788  0.2087
  250ccc    H14 7522   0.665   0.639   6.924  2.7200  1.9949 -0.6572
  250ccc    H15 7523   0.718   0.764   7.036  0.1207 -0.0034 -0.2329
  250ccc     C9 7524   0.603   0.604   7.132  0.2284  0.6779 -0.1548
  250ccc     O3 7525   0.500   0.540   7.145 -0.2230  0.1647  0.4786
  250ccc     O4 7526   0.717   0.574   7.190 -0.4081 -0.1990 -0.0314
  250ccc    H16 7527   0.795   0.618   7.153 -0.9723  1.3492  0.5690
  250ccc     O5 7528   0.458   1.167   7.211 -0.3011  0.0024 -0.3471
  251ccc     C1 7529  -0.019   0.976   7.816 -0.1272 -0.1886  0.7476
  251ccc     H1 7530  -0.051   0.873   7.796 -0.8567  0.3135 -0.8202
  251ccc     H2 7531   0.082   0.977   7.773  0.1503 -1.1209  1.3571
  251ccc     C2 7532  -0.005   1.010   7.969  0.4352  0.2451 -0.4961
  251ccc     H3 7533   0.052   0.927   8.013  3.6087  1.7635 -1.3983
  251ccc     H4 7534  -0.107   1.023   8.008 -0.6169 -1.8927 -2.2761
  251ccc     C3 7535   0.076   1.139   7.991  0.0406 -0.2863 -0.4203
  251ccc     H5 7536   0.023   1.223   7.943 -0.8634  0.0163  1.0428
  251ccc     H6 7537   0.169   1.127   7.934  0.8627 -3.4437  1.3462
  251ccc     N1 7538   0.100   1.168   8.137  0.2508  0.2268  0.0937
  251ccc     C4 7539  -0.021   1.201   8.215  0.3424  0.2441 -0.3451
  251ccc     H7 7540  -0.000   1.221   8.320  1.4844  1.5399 -0.7817
  251ccc     H8 7541  -0.079   1.109   8.206  3.1639 -1.6063 -0.9068
  251ccc     C5 7542  -0.105   1.326   8.176 -0.1959  0.0178 -0.7876
  251ccc     H9 7543  -0.042   1.411   8.205 -0.2189 -0.6031  1.2253
  251ccc    H10 7544  -0.127   1.342   8.069 -1.4705 -0.6448 -0.6491
  251ccc     C6 7545  -0.231   1.325   8.260 -0.2810  0.0096  0.2689
  251ccc     O1 7546  -0.250   1.263   8.363 -0.3490  0.2438  0.4141
  251ccc     O2 7547  -0.332   1.353   8.179  0.6055  0.0955 -0.2497
  251ccc    H11 7548  -0.291   1.395   8.102  0.3966 -0.1149 -0.4738
  251ccc     C7 7549   0.201   1.084   8.208  0.3368  0.3375 -0.2443
  251ccc    H12 7550   0.183   1.076   8.316 -0.9589 -0.9343 -0.5237
  251ccc    H13 7551   0.195   0.980   8.172  0.4429 -0.0370  0.7842
  251ccc     C8 7552   0.353   1.127   8.176  0.8794 -0.3189  0.1944
  251ccc    H14 7553   0.374   1.104   8.070  2.3934 -0.4373  0.5020
  251ccc    H15 7554   0.366   1.235   8.191 -1.1639  0.3058 -1.8354
  251ccc     C9 7555   0.464   1.067   8.260 -0.0437  0.0691  0.0735
  251ccc     O3 7556   0.456   0.994   8.353 -0.0805 -0.2870 -0.0600
  251ccc     O4 7557   0.589   1.099   8.210 -0.2337  0.5630 -0.1806
  251ccc    H16 7558   0.586   1.171   8.144 -0.4440  0.9464  0.2388
  251ccc     O5 7559  -0.111   1.078   7.746  0.4392 -0.8713  0.9810
  252ccc     C1 7560   0.607   0.889   8.891 -0.0299 -0.4473 -1.0171
  252ccc     H1 7561   0.633   0.992   8.864 -2.7560 -0.0664 -2.4735
  252ccc     H2 7562   0.568   0.898   8.993 -0.4233  0.2193 -1.2250
  252ccc     C2 7563   0.713   0.778   8.902  0.2497 -0.5215  0.9433
  252ccc     H3 7564   0.678   0.697   8.966  0.2243 -0.5405  0.9054
  252ccc     H4 7565   0.792   0.831   8.956 -0.0602  2.3091 -1.1743
  252ccc     C3 7566   0.763   0.720   8.769  0.0832  0.3022 -0.5425
  252ccc     H5 7567   0.814   0.798   8.711  1.9377 -0.0647  0.5317
  252ccc     H6 7568   0.679   0.685   8.707  0.7714 -0.5221 -1.0236
  252ccc     N1 7569   0.861   0.611   8.790 -0.3374 -0.1848  0.4516
  252ccc     C4 7570   0.987   0.634   8.866  0.5132  0.3489 -0.0055
  252ccc     H7 7571   1.046   0.542   8.856 -1.4227 -1.1296  1.3715
  252ccc     H8 7572   0.968   0.637   8.974 -1.8445 -0.7899 -0.3356
  252ccc     C5 7573   1.065   0.757   8.813 -0.7811 -0.3475  0.0385
  252ccc     H9 7574   1.076   0.768   8.704  0.9651 -0.5791  0.1561
  252ccc    H10 7575   1.028   0.850   8.856  1.9674  0.1387  1.5849
  252ccc     C6 7576   1.210   0.744   8.867 -0.1518  0.9078 -0.5516
  252ccc     O1 7577   1.292   0.660   8.827  0.2714 -0.4360 -0.5697
  252ccc     O2 7578   1.223   0.793   8.991 -0.8110  0.3744 -0.2049
  252ccc    H11 7579   1.134   0.829   9.008 -0.4805  0.8767  0.5264
  252ccc     C7 7580   0.792   0.483   8.818  0.0816  0.3928 -0.1823
  252ccc    H12 7581   0.777   0.474   8.927  3.7728  3.1612  0.7587
  252ccc    H13 7582   0.694   0.493   8.770 -0.2023 -2.6162 -0.4402
  252ccc     C8 7583   0.864   0.368   8.745 -0.4017 -0.0368 -0.1510
  252ccc    H14 7584   0.872   0.400   8.641 -0.6981  0.6210  0.0210
  252ccc    H15 7585   0.963   0.345   8.785 -0.5233  0.9905  0.8052
  252ccc     C9 7586   0.786   0.234   8.750 -0.4513  0.1155 -0.2760
  252ccc     O3 7587   0.683   0.214   8.812  0.2163  0.5186 -0.1517
  252ccc     O4 7588   0.867   0.128   8.727  0.3792 -0.3107 -0.5301
  252ccc    H16 7589   0.957   0.165   8.719  0.7727 -1.4559 -1.8603
  252ccc     O5 7590   0.506   0.840   8.802 -0.3792 -0.2248 -0.4289
  253ccc     C1 7591  -0.049   0.665   9.095 -0.2196  0.5159  0.2499
  253ccc     H1 7592  -0.030   0.745   9.167  2.5390 -0.7282  1.0490
  253ccc     H2 7593  -0.140   0.609   9.118  0.1190 -0.2976 -0.3314
  253ccc     C2 7594   0.066   0.565   9.117  0.8598  0.5614 -0.1288
  253ccc     H3 7595   0.071   0.482   9.047 -0.9831  0.1681  0.1297
  253ccc     H4 7596   0.049   0.515   9.213  1.0225  1.3891  0.3392
  253ccc     C3 7597   0.204   0.625   9.130 -0.2785  0.1415  0.3663
  253ccc     H5 7598   0.207   0.691   9.218 -0.9550  1.3518 -0.4977
  253ccc     H6 7599   0.224   0.693   9.047  0.9831 -0.5621  0.0713
  253ccc     N1 7600   0.316   0.523   9.129  0.3377 -0.0811 -0.5085
  253ccc     C4 7601   0.338   0.447   9.005  0.0587  0.3249 -0.1125
  253ccc     H7 7602   0.260   0.372   8.983  0.2106 -0.0486  0.5979
  253ccc     H8 7603   0.435   0.396   9.011 -1.5069 -2.9114  0.0504
  253ccc     C5 7604   0.343   0.537   8.879 -0.0320  0.6328 -0.5804
  253ccc     H9 7605   0.239   0.567   8.862 -1.0577 -1.7405  0.8865
  253ccc    H10 7606   0.394   0.631   8.903 -1.5073  1.3479 -0.1632
  253ccc     C6 7607   0.400   0.465   8.758  0.7322  0.7164 -0.0200
  253ccc     O1 7608   0.374   0.351   8.721 -0.3483  0.4230 -0.5478
  253ccc     O2 7609   0.468   0.548   8.687 -0.1462  0.0040  0.4777
  253ccc    H11 7610   0.463   0.635   8.728 -3.3540 -0.1352  0.5976
  253ccc     C7 7611   0.314   0.449   9.257  0.1292 -0.6057 -0.5302
  253ccc    H12 7612   0.232   0.377   9.267  0.0324 -0.4320 -0.0650
  253ccc    H13 7613   0.410   0.395   9.261  0.5253  0.0719 -0.7219
  253ccc     C8 7614   0.314   0.534   9.387 -0.2608  0.1813  0.2167
  253ccc    H14 7615   0.387   0.616   9.386  0.3388 -0.3336  0.6732
  253ccc    H15 7616   0.220   0.579   9.420  0.4768  2.5711 -0.7366
  253ccc     C9 7617   0.343   0.450   9.512 -0.1673 -0.0860 -0.1455
  253ccc     O3 7618   0.348   0.325   9.511  0.3672  0.1227 -0.1225
  253ccc     O4 7619   0.393   0.523   9.617 -0.4046 -0.1943 -0.3817
  253ccc    H16 7620   0.416   0.456   9.683 -0.4403 -0.5451 -0.7252
  253ccc     O5 7621  -0.032   0.708   8.955  0.3667 -0.2418  0.0962
  254SOL     OW 7622   8.429  11.577   2.327 -0.4280  0.4261 -0.0847
  254SOL    HW1 7623   8.516  11.603   2.296 -0.0126  0.7408  1.2580
  254SOL    HW2 7624   8.373  11.651   2.308 -0.3173  0.3777 -0.6108
  255SOL     OW 7625   8.939  12.056   0.410 -0.4235  0.0493  0.2151
  255SOL    HW1 7626   8.878  12.128   0.395  0.9533  1.2198  0.0263
  255SOL    HW2 7627   8.943  12.010   0.326 -1.0095 -0.0248  0.2215
  256SOL     OW 7628   2.341  11.186   9.757  0.2740  0.0715 -1.0009
  256SOL    HW1 7629   2.412  11.145   9.709  1.8786  2.4848 -0.8602
  256SOL    HW2 7630   2.261  11.151   9.716  1.5452 -0.6684 -2.9980
  257SOL     OW 7631   7.709   8.067   3.198 -0.1595  0.5775 -0.6008
  257SOL    HW1 7632   7.686   8.151   3.240 -0.9992  0.3781 -0.6404
  257SOL    HW2 7633   7.764   8.023   3.262 -2.2219 -0.1450  0.7839
  258SOL     OW 7634   8.281   4.982   7.208 -0.8079 -0.2869  0.1589
  258SOL    HW1 7635   8.360   5.036   7.215 -0.0077 -1.1329 -1.7170
  258SOL    HW2 7636   8.275   4.960   7.115 -3.2111 -0.3586  0.2855
  259SOL     OW 7637   1.915   6.923   2.399  0.0576 -0.3136 -0.0467
  259SOL    HW1 7638   1.953   6.883   2.477 -2.3661 -0.6225  1.0705
  259SOL    HW2 7639   1.966   6.887   2.326  1.7753 -0.7424  1.3085
  260SOL     OW 7640   7.600   6.227  12.074 -0.1338 -0.0100  0.6049
  260SOL    HW1 7641   7.651   6.156  12.112  0.5473  0.4098  0.5019
  260SOL    HW2 7642   7.533   6.247  12.140 -0.1008 -0.5012  0.7872
  261SOL     OW 7643   2.446   6.166  10.492  0.1608 -0.1110  0.1807
  261SOL    HW1 7644   2.518   6.227  10.505 -1.4889  1.9275  0.1624
  261SOL    HW2 7645   2.400   6.165  10.575 -1.8457  1.4688 -0.8276
  262SOL     OW 7646  10.727   7.473   6.191  0.3128  0.0426  0.1185
  262SOL    HW1 7647  10.723   7.569   6.187  1.5505  0.1493  0.8379
  262SOL    HW2 7648  10.821   7.454   6.195  0.0996 -1.2384 -0.7163
  263SOL     OW 7649  11.817   2.846  11.777  0.4501  0.2733  0.1508
  263SOL    HW1 7650  11.856   2.785  11.841  0.5503  1.2630  1.0570
  263SOL    HW2 7651  11.731   2.809  11.758  0.2905  0.1221  1.1027
  264SOL     OW 7652   1.004   2.052   4.580 -0.3082  0.0019 -0.1370
  264SOL    HW1 7653   1.075   2.028   4.639  0.9050  0.0171 -1.5271
  264SOL    HW2 7654   0.929   2.002   4.611  0.0518  0.6447  1.9057
  265SOL     OW 7655   0.244   3.911   4.084  0.0417 -0.4759 -0.6553
  265SOL    HW1 7656   0.309   3.902   4.154 -0.5082 -0.1642 -0.0994
  265SOL    HW2 7657   0.191   3.831   4.090  0.1742 -0.5887 -0.9178
  266SOL     OW 7658   1.509  10.516   3.529  0.2102  0.3874  0.3200
  266SOL    HW1 7659   1.480  10.595   3.483  1.8011  0.7499 -0.1146
  266SOL    HW2 7660   1.581  10.546   3.583 -0.6511 -0.3482  1.9337
  267SOL     OW 7661   8.651   5.649   5.786  0.2379  0.2914 -0.0138
  267SOL    HW1 7662   8.656   5.732   5.834  0.1522 -0.0515  0.5986
  267SOL    HW2 7663   8.715   5.658   5.716 -0.2607  1.1438 -0.3707
  268SOL     OW 7664   2.126   7.626   4.030  0.2872  0.0543 -0.2610
  268SOL    HW1 7665   2.213   7.667   4.031  0.8378 -1.0768 -0.0405
  268SOL    HW2 7666   2.141   7.539   3.994 -0.9355  0.1811 -1.1262
  269SOL     OW 7667   4.384   3.060   4.998  0.2643 -0.0675  0.1716
  269SOL    HW1 7668   4.327   3.045   5.074 -0.4479  0.2741 -0.2835
  269SOL    HW2 7669   4.355   3.145   4.963  3.1970  1.7901  1.8237
  270SOL     OW 7670   0.765   7.811   0.386  0.2556  0.1146 -0.0438
  270SOL    HW1 7671   0.724   7.730   0.355  0.5617 -0.2933  0.5801
  270SOL    HW2 7672   0.790   7.792   0.477 -2.1603  1.8396  1.0769
  271SOL     OW 7673   8.467  12.211  11.387 -0.0661  0.2889  0.1444
  271SOL    HW1 7674   8.475  12.155  11.309 -2.0635  1.7561 -1.2253
  271SOL    HW2 7675   8.428  12.154  11.453 -1.3776 -0.2093 -0.9887
  272SOL     OW 7676  10.085   3.738   3.340  0.2594  0.2176  0.1340
  272SOL    HW1 7677  10.009   3.775   3.295  0.5771 -0.1756 -0.7638
  272SOL    HW2 7678  10.052   3.711   3.425 -0.8067 -0.6688 -0.5318
  273SOL     OW 7679   9.997   1.409   8.772  0.4440  0.8421 -0.0398
  273SOL    HW1 7680   9.922   1.384   8.719  0.0997  0.5712  0.5569
  273SOL    HW2 7681   9.961   1.471   8.836  0.6274  0.3689  0.5367
  274SOL     OW 7682   4.070  10.391   2.615 -0.1718 -0.5895 -0.0233
  274SOL    HW1 7683   4.065  10.458   2.547 -0.3168 -0.9938 -0.4121
  274SOL    HW2 7684   4.069  10.440   2.697 -3.0544 -0.1900 -0.2020
  275SOL     OW 7685   2.421   2.196   3.475 -0.4221 -0.0285 -0.6708
  275SOL    HW1 7686   2.402   2.238   3.559 -0.9712 -0.9020 -0.3473
  275SOL    HW2 7687   2.516   2.204   3.465 -0.1402 -1.1598  0.7298
  276SOL     OW 7688   1.283   4.511  11.395  0.5180 -0.2257 -0.8695
  276SOL    HW1 7689   1.241   4.442  11.344  1.0990 -0.4720 -1.0147
  276SOL    HW2 7690   1.216   4.538  11.458  0.7706 -1.9636  0.2157
  277SOL     OW 7691   4.383   2.775   8.368  0.0755  0.1642  0.4123
  277SOL    HW1 7692   4.465   2.817   8.342  0.1393  0.0695  0.4595
  277SOL    HW2 7693   4.388   2.688   8.330  0.7335 -0.4279  1.7576
  278SOL     OW 7694   6.746   6.856   9.743  0.0760 -0.2874 -0.0486
  278SOL    HW1 7695   6.731   6.869   9.650 -0.5734 -0.2727  0.0547
  278SOL    HW2 7696   6.841   6.845   9.751 -0.0900 -2.8976 -1.0189
  279SOL     OW 7697   7.981  11.791   1.563  0.0219  0.0582 -0.2412
  279SOL    HW1 7698   8.029  11.850   1.620 -0.9657  2.7161 -1.9585
  279SOL    HW2 7699   7.896  11.780   1.605  0.8557 -1.8407  1.0633
  280SOL     OW 7700   1.835   6.137   1.341  0.0173 -0.3604 -0.1726
  280SOL    HW1 7701   1.747   6.155   1.375 -0.7350 -3.1454 -0.3344
  280SOL    HW2 7702   1.885   6.106   1.416  0.0731 -1.1141 -0.5031
  281SOL     OW 7703  10.668   7.504  11.435 -0.2523 -0.4528  0.0618
  281SOL    HW1 7704  10.741   7.556  11.402 -0.5610 -0.7125 -1.0994
  281SOL    HW2 7705  10.708   7.426  11.474  0.1353 -0.0694  0.4302
  282SOL     OW 7706   9.925   9.742   4.594  0.1267 -0.0082  0.0490
  282SOL    HW1 7707   9.860   9.671   4.594 -0.2627  0.2443  2.6873
  282SOL    HW2 7708  10.008   9.699   4.614  0.2791  0.0468 -0.4351
  283SOL     OW 7709   8.717   8.814   1.061  0.3696  0.1216  0.4443
  283SOL    HW1 7710   8.767   8.809   0.979 -0.6974 -1.3986 -0.1615
  283SOL    HW2 7711   8.653   8.883   1.045 -0.0905 -0.4338 -0.1741
  284SOL     OW 7712   5.208   8.114  10.066 -0.3362 -0.0982 -0.6000
  284SOL    HW1 7713   5.234   8.064   9.989 -1.5118  0.2177 -1.2160
  284SOL    HW2 7714   5.114   8.130  10.055 -0.6461 -0.4910  1.1525
  285SOL     OW 7715   6.338  11.759  10.121  0.3749  0.1675  0.5493
  285SOL    HW1 7716   6.360  11.850  10.102 -2.0774  0.1584 -3.4605
  285SOL    HW2 7717   6.396  11.708  10.065 -1.7824 -0.3589 -1.3257
  286SOL     OW 7718   6.531   6.551  10.461 -0.2977  0.2202 -0.1054
  286SOL    HW1 7719   6.558   6.585  10.376  1.0440 -0.7302 -0.0924
  286SOL    HW2 7720   6.500   6.627  10.509 -4.4657  0.4041 -2.5733
  287SOL     OW 7721   3.750   1.676   8.983 -0.3891  0.1546  0.0295
  287SOL    HW1 7722   3.685   1.740   9.011 -0.6465  0.0071 -0.2293
  287SOL    HW2 7723   3.726   1.596   9.029 -1.8226 -0.5522 -1.8733
  288SOL     OW 7724   4.464   5.610   1.057 -0.1519 -0.0299  0.2681
  288SOL    HW1 7725   4.403   5.607   0.983 -0.3922 -0.8982  0.4874
  288SOL    HW2 7726   4.456   5.524   1.097 -1.3350  0.9555  2.3389
  289SOL     OW 7727   6.568   7.011   8.391 -0.1189 -0.2185  0.8532
  289SOL    HW1 7728   6.485   7.039   8.430  0.4898  2.0878  0.5928
  289SOL    HW2 7729   6.573   6.918   8.412 -2.9709 -0.5509  0.4743
  290SOL     OW 7730   8.181   1.109   3.308 -0.4119  0.2565 -0.1531
  290SOL    HW1 7731   8.110   1.071   3.361 -2.3716  3.3059 -0.3302
  290SOL    HW2 7732   8.147   1.107   3.218  1.1922 -1.1801 -0.7847
  291SOL     OW 7733  11.096   7.825   8.182  0.0895  0.1339 -0.1563
  291SOL    HW1 7734  11.182   7.846   8.146 -0.1998  1.0567 -0.3399
  291SOL    HW2 7735  11.037   7.830   8.107 -0.8990  4.3122  0.6800
  292SOL     OW 7736   8.543   5.763   2.281  0.2270 -0.2325  0.0114
  292SOL    HW1 7737   8.611   5.808   2.231  1.1454 -0.5860  0.9072
  292SOL    HW2 7738   8.586   5.683   2.314 -0.6011 -0.4351  0.6377
  293SOL     OW 7739   8.360  10.832   5.069 -0.3180 -0.4031 -0.0785
  293SOL    HW1 7740   8.376  10.784   4.988  1.0339 -1.5826  0.8223
  293SOL    HW2 7741   8.435  10.808   5.125 -0.8291  0.9689  1.2311
  294SOL     OW 7742   8.911   6.644   4.168  0.4034  0.7096 -0.7703
  294SOL    HW1 7743   8.963   6.569   4.138  0.3394  0.3110  0.0811
  294SOL    HW2 7744   8.966   6.686   4.234 -0.5554 -0.0279  0.5266
  295SOL     OW 7745   6.535   3.046   1.787  0.0266 -0.4173 -0.1321
  295SOL    HW1 7746   6.568   2.957   1.802  1.0787  0.0703  0.6514
  295SOL    HW2 7747   6.502   3.044   1.698  0.9814 -1.3345 -0.5004
  296SOL     OW 7748   3.194   2.290   9.621  0.4852 -0.2934  0.1783
  296SOL    HW1 7749   3.284   2.319   9.630  0.9117 -1.4176 -0.2894
  296SOL    HW2 7750   3.200   2.195   9.614 -0.9212 -0.6104  2.4750
  297SOL     OW 7751   5.041   4.632   6.652  0.1369  0.3544 -0.1571
  297SOL    HW1 7752   5.024   4.646   6.745 -1.0961 -1.7475 -0.0131
  297SOL    HW2 7753   5.131   4.661   6.640 -0.5321  3.3974  1.0253
  298SOL     OW 7754   1.340   1.109   9.508  0.4548  0.5291  0.1301
  298SOL    HW1 7755   1.328   1.050   9.582  2.3387 -0.8890 -0.6429
  298SOL    HW2 7756   1.303   1.062   9.433 -0.1356  1.3455 -0.1113
  299SOL     OW 7757   0.934   7.609   3.905 -0.0877 -0.5412 -0.2989
  299SOL    HW1 7758   0.879   7.686   3.893  2.5637  1.2903 -2.0921
  299SOL    HW2 7759   0.974   7.621   3.991 -2.4375 -1.9474  1.0659
  300SOL     OW 7760   2.231   8.418   1.197 -0.2218 -0.3037  0.0149
  300SOL    HW1 7761   2.205   8.408   1.106  0.2379  1.0842 -0.2904
  300SOL    HW2 7762   2.222   8.511   1.215  0.6331 -0.4074  1.1001
  301SOL     OW 7763   7.606   2.638   0.054  0.7108  0.0618 -0.2624
  301SOL    HW1 7764   7.560   2.593  -0.016 -0.1221 -0.7103  0.7476
  301SOL    HW2 7765   7.663   2.572   0.092 -0.8129 -0.3294  1.4951
  302SOL     OW 7766   7.782   0.717   5.556 -0.7928 -0.2006  0.2484
  302SOL    HW1 7767   7.753   0.735   5.645 -1.2295  1.2739 -0.1710
  302SOL    HW2 7768   7.736   0.781   5.502  1.5058  0.7680 -0.7053
  303SOL     OW 7769   2.987   8.258  10.807  0.8810 -0.1312  0.1776
  303SOL    HW1 7770   3.015   8.316  10.737  0.7049 -0.9769 -0.6054
  303SOL    HW2 7771   2.909   8.300  10.843  0.6162  0.0063 -0.5399
  304SOL     OW 7772   6.177   4.464   2.403  0.0920  0.1658  0.0769
  304SOL    HW1 7773   6.251   4.408   2.381  0.7808  0.2490  2.0075
  304SOL    HW2 7774   6.112   4.405   2.442  0.4737  0.5460  1.3311
  305SOL     OW 7775   0.779   1.750   9.665 -0.1237  1.1488  0.2957
  305SOL    HW1 7776   0.685   1.751   9.649 -0.0966  1.7006  0.1749
  305SOL    HW2 7777   0.787   1.723   9.757 -0.3361 -0.4370 -0.1080
  306SOL     OW 7778   7.175   6.647  11.742 -0.5271  0.0692  0.1921
  306SOL    HW1 7779   7.160   6.553  11.734  0.2012  0.0432 -1.1752
  306SOL    HW2 7780   7.087   6.685  11.746 -0.8378 -0.6177  0.0171
  307SOL     OW 7781   5.477   4.921   3.005  0.3275  0.1676 -0.4382
  307SOL    HW1 7782   5.500   4.833   3.036  0.6183  0.3260 -0.1928
  307SOL    HW2 7783   5.384   4.917   2.986  0.7039 -0.7429 -2.2828
  308SOL     OW 7784   0.747   7.732   6.035 -0.4397 -0.5951 -0.3206
  308SOL    HW1 7785   0.658   7.708   6.011 -0.0891 -2.0204 -0.3393
  308SOL    HW2 7786   0.753   7.714   6.129  0.0504 -1.3342 -0.4801
  309SOL     OW 7787   1.834  10.566   7.471 -0.1924 -0.1404 -0.4792
  309SOL    HW1 7788   1.896  10.496   7.449  1.1131  0.9029 -0.2769
  309SOL    HW2 7789   1.874  10.645   7.434 -0.6226  0.8158  1.0159
  310SOL     OW 7790   0.490   9.532   1.284 -0.0395 -0.0081  0.3152
  310SOL    HW1 7791   0.540   9.614   1.285 -0.7162  0.4562 -1.0382
  310SOL    HW2 7792   0.546   9.469   1.328  1.5329  0.6022 -0.7300
  311SOL     OW 7793   2.803   9.156   5.373 -0.2303 -0.1000  0.0916
  311SOL    HW1 7794   2.778   9.066   5.351  1.1333 -0.4032 -0.3232
  311SOL    HW2 7795   2.821   9.197   5.289 -0.4202  0.4373  0.3079
  312SOL     OW 7796   9.088   5.891   4.920  0.1564  0.1737 -0.3967
  312SOL    HW1 7797   9.124   5.848   4.999  1.6319 -1.4724 -1.8667
  312SOL    HW2 7798   9.134   5.974   4.915  1.3262 -0.4461 -0.3893
  313SOL     OW 7799   1.911   8.254  12.350  0.2525 -0.0561  0.3347
  313SOL    HW1 7800   1.842   8.250  12.285  1.2752 -0.6435 -0.7560
  313SOL    HW2 7801   1.866   8.264  12.433 -1.0726  1.8979 -0.5494
  314SOL     OW 7802  10.287   8.405   9.882 -0.1344  0.0319  0.3580
  314SOL    HW1 7803  10.297   8.448   9.797  1.7646 -1.4121 -0.2432
  314SOL    HW2 7804  10.193   8.388   9.891 -0.2538 -0.9045 -2.0661
  315SOL     OW 7805   0.225  10.300  12.171  0.0218  0.0039 -0.2573
  315SOL    HW1 7806   0.242  10.394  12.165 -0.5293  0.1665  0.5806
  315SOL    HW2 7807   0.270  10.263  12.095  0.4899  0.9067 -0.4382
  316SOL     OW 7808   4.810   4.039   0.934 -0.2553  0.2475  0.3786
  316SOL    HW1 7809   4.729   4.026   0.886  0.5504  0.6268 -1.1598
  316SOL    HW2 7810   4.861   4.099   0.879  1.2506 -0.3624  1.0494
  317SOL     OW 7811   7.039   4.070   1.626 -0.0316  1.0972 -0.2437
  317SOL    HW1 7812   7.119   4.104   1.666 -1.5347  1.7141  2.5272
  317SOL    HW2 7813   7.059   3.979   1.605  1.5582  1.3965 -0.1557
  318SOL     OW 7814  10.025  10.238   6.390  0.6022  0.3975  0.1188
  318SOL    HW1 7815  10.113  10.201   6.382 -0.3050 -1.6052 -1.7239
  318SOL    HW2 7816   9.999  10.257   6.300 -0.8041  1.0938  0.6438
  319SOL     OW 7817   7.065   3.115   6.026 -0.2636  0.1376  0.2102
  319SOL    HW1 7818   7.087   3.207   6.011  0.1358  0.6107  3.0677
  319SOL    HW2 7819   6.970   3.114   6.037 -0.3132  0.1211 -0.1923
  320SOL     OW 7820  10.538   5.423   5.525 -0.0779  0.0302 -0.3146
  320SOL    HW1 7821  10.450   5.449   5.552 -0.0038  0.0068 -0.0474
  320SOL    HW2 7822  10.580   5.506   5.501 -0.4611 -0.0546 -1.3142
  321SOL     OW 7823  12.356   7.412   9.785  0.1154 -0.1109 -0.5727
  321SOL    HW1 7824  12.432   7.460   9.753  0.8928 -0.4727  0.6442
  321SOL    HW2 7825  12.390   7.327   9.812 -0.7781 -0.4022 -0.3094
  322SOL     OW 7826  11.444   4.472   4.012  0.4547 -0.9534  0.1183
  322SOL    HW1 7827  11.394   4.548   3.982  0.0716 -0.9271  0.7963
  322SOL    HW2 7828  11.445   4.412   3.937  0.1512 -0.5793 -0.1844
  323SOL     OW 7829   9.303   5.227   4.142 -0.0923  0.2813  0.1901
  323SOL    HW1 7830   9.232   5.162   4.142 -0.8913  1.0616  2.1957
  323SOL    HW2 7831   9.371   5.188   4.088 -1.9260 -0.6232 -1.5911
  324SOL     OW 7832   3.683   8.434  10.884 -0.4823 -0.3790  0.1428
  324SOL    HW1 7833   3.769   8.465  10.910 -0.8967  2.0019 -1.0365
  324SOL    HW2 7834   3.638   8.417  10.966 -0.0307  1.8431  0.9300
  325SOL     OW 7835   8.163   8.766   2.409 -0.2155 -0.4134 -0.5711
  325SOL    HW1 7836   8.132   8.798   2.494  2.1890  0.4442  0.0411
  325SOL    HW2 7837   8.122   8.824   2.345  0.7948  1.3220  0.2740
  326SOL     OW 7838   3.739   0.465  11.118 -0.3820 -0.1224 -0.1799
  326SOL    HW1 7839   3.768   0.405  11.187 -3.0045 -1.7603 -0.3540
  326SOL    HW2 7840   3.678   0.525  11.162 -0.0975  0.4830 -0.5940
  327SOL     OW 7841   8.886   4.531   3.437 -0.5164 -0.1455 -0.2639
  327SOL    HW1 7842   8.830   4.519   3.360 -1.1297 -1.8879  0.4125
  327SOL    HW2 7843   8.973   4.550   3.401 -1.2939  1.6641 -1.3339
  328SOL     OW 7844   4.879   2.486   6.296 -0.0592  0.6300  0.4539
  328SOL    HW1 7845   4.970   2.484   6.267 -0.2536 -0.5903 -0.1452
  328SOL    HW2 7846   4.884   2.492   6.391  0.6295  1.4397  0.3761
  329SOL     OW 7847   6.960   5.005   0.721 -0.0357  0.5380  0.4924
  329SOL    HW1 7848   6.957   4.953   0.641  0.9953  0.1908  0.6705
  329SOL    HW2 7849   7.047   4.990   0.757  0.1705  2.1160  0.7290
  330SOL     OW 7850  12.276  10.390   8.482 -0.7672 -0.3447  0.2212
  330SOL    HW1 7851  12.232  10.307   8.501  1.1082 -1.5180 -0.3517
  330SOL    HW2 7852  12.348  10.394   8.544 -0.0084  0.1825 -0.6712
  331SOL     OW 7853  12.434   7.009   5.650 -0.3553  0.1807 -0.2767
  331SOL    HW1 7854  12.421   7.061   5.570 -0.5158 -1.3871 -1.3026
  331SOL    HW2 7855  12.384   7.056   5.717 -0.9409  1.0530 -1.2960
  332SOL     OW 7856   6.318  10.341   8.678 -0.2008 -0.2700 -0.0544
  332SOL    HW1 7857   6.235  10.380   8.703 -0.1780 -0.9301  1.1479
  332SOL    HW2 7858   6.384  10.405   8.704 -0.1527 -1.0649  2.0362
  333SOL     OW 7859   7.020   6.023   9.926 -0.0911 -0.1957 -0.0650
  333SOL    HW1 7860   6.971   5.990  10.001 -1.4657  0.2355 -0.7251
  333SOL    HW2 7861   7.099   5.969   9.922 -0.4361 -0.8183  1.1345
  334SOL     OW 7862  11.267   9.054   1.210  0.1437  0.1570 -0.1440
  334SOL    HW1 7863  11.322   9.006   1.148  0.7684 -0.7381  1.0510
  334SOL    HW2 7864  11.180   9.016   1.199  0.2537 -0.0067 -0.4660
  335SOL     OW 7865   6.678   7.819   5.007  0.5349 -0.7181 -0.0727
  335SOL    HW1 7866   6.671   7.898   4.953 -0.7592 -2.1755 -2.2064
  335SOL    HW2 7867   6.760   7.777   4.978 -0.0582 -1.4013 -0.7978
  336SOL     OW 7868   5.819   2.024   4.925  0.4026  0.4748 -0.0649
  336SOL    HW1 7869   5.827   2.067   5.010  0.8471  1.2826 -0.5029
  336SOL    HW2 7870   5.817   2.096   4.862  2.2766 -0.1532 -0.9079
  337SOL     OW 7871   2.434   8.582   8.803  0.3842  0.3397 -0.2439
  337SOL    HW1 7872   2.520   8.566   8.762  1.3571  0.5821  1.5878
  337SOL    HW2 7873   2.406   8.666   8.768  0.3105 -0.2942 -1.7782
  338SOL     OW 7874  11.831   2.020   9.128 -0.9941 -0.1396  0.0100
  338SOL    HW1 7875  11.777   2.001   9.052  0.1863 -1.7593 -0.4876
  338SOL    HW2 7876  11.771   2.017   9.202 -1.9404  0.2414 -0.7282
  339SOL     OW 7877   8.444   0.566   8.343 -0.2729  0.9034 -0.0530
  339SOL    HW1 7878   8.394   0.588   8.422  1.2807  2.4019  0.5792
  339SOL    HW2 7879   8.496   0.489   8.368  0.0426  1.2330  0.3288
  340SOL     OW 7880   4.518   3.830   8.227  0.2275  0.4136  0.1230
  340SOL    HW1 7881   4.549   3.852   8.139 -1.8097  0.8883 -0.5176
  340SOL    HW2 7882   4.596   3.794   8.271  1.7827  1.9222 -1.2250
  341SOL     OW 7883   7.183   3.208   0.585  0.4976 -0.2277 -0.1733
  341SOL    HW1 7884   7.143   3.124   0.565 -0.3684  0.1631 -0.1429
  341SOL    HW2 7885   7.185   3.211   0.681  0.6063 -0.2556 -0.1754
  342SOL     OW 7886   7.095   1.659   4.654 -0.1254  0.4818 -0.4562
  342SOL    HW1 7887   7.019   1.712   4.630  0.0083  1.0603  0.3353
  342SOL    HW2 7888   7.161   1.680   4.589 -0.1302  1.1768 -0.2437
  343SOL     OW 7889   0.651  12.093   3.344  0.0352 -0.7223  0.3024
  343SOL    HW1 7890   0.623  12.170   3.393  0.4674 -1.3355  1.5527
  343SOL    HW2 7891   0.747  12.098   3.344  0.0364 -0.4578 -0.9513
  344SOL     OW 7892   5.674   3.944   2.166  0.3420 -0.4787 -0.1734
  344SOL    HW1 7893   5.612   3.891   2.116  1.1629 -1.6693  0.0344
  344SOL    HW2 7894   5.619   4.009   2.211 -0.9122 -2.1659  0.8696
  345SOL     OW 7895   7.166   2.360  10.084  0.2560 -0.3750  0.0915
  345SOL    HW1 7896   7.076   2.392  10.077  0.3910 -0.2643 -1.4087
  345SOL    HW2 7897   7.157   2.265  10.092 -0.0024 -0.3082  0.6959
  346SOL     OW 7898  12.170  11.724   2.593  0.7135  0.1930  0.0972
  346SOL    HW1 7899  12.108  11.652   2.603  2.0181 -0.9532  0.1394
  346SOL    HW2 7900  12.216  11.707   2.511 -1.3052  2.8754 -1.7740
  347SOL     OW 7901   2.370   6.727   1.504 -0.4990  0.0079 -0.0549
  347SOL    HW1 7902   2.357   6.820   1.526  0.3214 -0.3993  2.4953
  347SOL    HW2 7903   2.281   6.692   1.497 -0.8994  0.2799  2.5989
  348SOL     OW 7904   1.576   7.269   2.753  0.8395  0.3513  0.0015
  348SOL    HW1 7905   1.654   7.218   2.732  0.4075 -1.2551  1.9910
  348SOL    HW2 7906   1.504   7.207   2.739  0.1649  0.9272  0.8895
  349SOL     OW 7907  10.331   0.746   9.928 -0.1531 -0.1859 -0.0386
  349SOL    HW1 7908  10.331   0.664   9.977  0.3935  0.3374  0.8617
  349SOL    HW2 7909  10.422   0.760   9.905  0.2037  1.5198  2.1703
  350SOL     OW 7910   4.358   5.087   6.376 -0.6776 -0.0928 -0.0912
  350SOL    HW1 7911   4.399   5.172   6.389  0.5956 -0.5655 -0.7348
  350SOL    HW2 7912   4.429   5.024   6.389 -2.1381 -1.2735  2.9865
  351SOL     OW 7913   9.368   7.404   3.562  0.4125  0.2229 -0.5639
  351SOL    HW1 7914   9.289   7.456   3.545  0.7876  0.1136 -2.9258
  351SOL    HW2 7915   9.335   7.316   3.579 -0.0023 -0.3387 -3.6898
  352SOL     OW 7916   1.587   9.475   0.399  0.5054  1.0085  0.1484
  352SOL    HW1 7917   1.647   9.488   0.325 -0.4460  1.5294 -0.5653
  352SOL    HW2 7918   1.507   9.520   0.372 -0.1801  0.3924  1.1055
  353SOL     OW 7919   6.300   2.940   8.985  0.4085  0.0734 -0.7896
  353SOL    HW1 7920   6.389   2.952   8.951  0.1630 -0.4237 -1.6502
  353SOL    HW2 7921   6.287   2.845   8.984 -0.1880  0.1525 -0.8502
  354SOL     OW 7922   3.133   5.046  10.704  0.2841  0.5511 -0.2233
  354SOL    HW1 7923   3.174   5.071  10.621  0.4391 -1.2746 -0.7523
  354SOL    HW2 7924   3.193   5.079  10.771 -0.4527  3.1434 -0.7158
  355SOL     OW 7925  12.070   6.627   1.783 -0.1835  0.0233 -0.1101
  355SOL    HW1 7926  12.024   6.687   1.725  0.4873 -1.2586 -2.0830
  355SOL    HW2 7927  12.146   6.598   1.732  1.0691 -0.3407  1.8473
  356SOL     OW 7928   9.959  10.991   2.722  0.3453 -0.0771  0.3466
  356SOL    HW1 7929   9.981  10.901   2.698  0.5365 -0.1716  0.8793
  356SOL    HW2 7930  10.038  11.025   2.763 -0.1419 -0.0850  1.3282
  357SOL     OW 7931   7.749  10.476  12.307  0.2601  0.2398  0.1372
  357SOL    HW1 7932   7.708  10.423  12.375  0.9180  0.4469  0.6973
  357SOL    HW2 7933   7.693  10.464  12.230  0.0039 -0.6845  0.4668
  358SOL     OW 7934   1.380   8.980   5.889 -0.4186  0.1904  0.6480
  358SOL    HW1 7935   1.356   8.888   5.901  0.2908 -0.4166 -1.9902
  358SOL    HW2 7936   1.474   8.982   5.907 -0.6328  0.6948  1.8507
  359SOL     OW 7937   4.768   8.159   3.603  0.0925 -0.2113 -0.0450
  359SOL    HW1 7938   4.719   8.108   3.667  1.7448  0.2972  1.7055
  359SOL    HW2 7939   4.707   8.225   3.572 -1.5416 -2.0678 -1.0189
  360SOL     OW 7940   2.837  12.447   1.001  0.1665  0.4424 -0.1548
  360SOL    HW1 7941   2.846  12.391   0.923 -0.5367 -1.4065  1.0272
  360SOL    HW2 7942   2.856  12.535   0.969  0.1133 -0.2824 -2.3687
  361SOL     OW 7943   1.115   4.336   1.329  0.3269  0.2815  0.1920
  361SOL    HW1 7944   1.089   4.265   1.270  0.5636  1.9892 -2.1019
  361SOL    HW2 7945   1.131   4.293   1.413 -0.5916 -2.1905 -0.8140
  362SOL     OW 7946   5.039   6.283  11.850 -0.0651 -0.2188 -1.1761
  362SOL    HW1 7947   5.014   6.240  11.768  1.8657 -0.1514 -1.8552
  362SOL    HW2 7948   5.027   6.216  11.917  2.4644 -1.7886 -2.1458
  363SOL     OW 7949   2.514   1.014   6.906  0.4303 -0.6493  0.0402
  363SOL    HW1 7950   2.463   0.946   6.860 -1.7839 -0.0996  1.5334
  363SOL    HW2 7951   2.477   1.096   6.874  1.6844 -0.1563 -0.1937
  364SOL     OW 7952   0.200  11.035   9.650  0.5381  0.0087 -0.3118
  364SOL    HW1 7953   0.286  11.075   9.640  1.4860 -2.1123 -1.2535
  364SOL    HW2 7954   0.208  10.950   9.607 -1.5305 -0.9431  1.0350
  365SOL     OW 7955  11.979   9.353   1.934  0.1414 -0.2762 -0.1204
  365SOL    HW1 7956  11.929   9.310   1.865 -0.2256 -1.6367  0.9532
  365SOL    HW2 7957  11.955   9.446   1.927 -3.3285 -0.9416  0.9385
  366SOL     OW 7958  10.337   7.231  10.560  0.1216  0.2401  0.2991
  366SOL    HW1 7959  10.432   7.242  10.557  0.1011  0.2783 -1.0107
  366SOL    HW2 7960  10.324   7.136  10.554  0.0673  0.3148 -1.0743
  367SOL     OW 7961   7.803   9.844   8.369  0.0899 -0.0466 -0.2136
  367SOL    HW1 7962   7.810   9.772   8.432  1.9664 -0.1101 -0.4245
  367SOL    HW2 7963   7.792   9.922   8.424  1.7135 -0.0989  0.2594
  368SOL     OW 7964   1.552   9.322   8.367 -0.2163  0.1717  0.2444
  368SOL    HW1 7965   1.547   9.230   8.340 -0.8664  0.3302 -0.2012
  368SOL    HW2 7966   1.561   9.319   8.462 -1.0827 -0.3477  0.3211
  369SOL     OW 7967  11.002   8.371   8.501 -0.2474  0.0932 -0.3121
  369SOL    HW1 7968  10.981   8.406   8.415  0.0413 -1.0352 -0.8562
  369SOL    HW2 7969  10.921   8.382   8.551 -0.4100  0.7789 -0.7034
  370SOL     OW 7970   5.157   6.199   2.651 -0.1956  0.0540  0.3120
  370SOL    HW1 7971   5.104   6.265   2.695  1.1862  1.1748  0.3978
  370SOL    HW2 7972   5.097   6.155   2.591 -1.0498  1.8267 -0.2013
  371SOL     OW 7973   5.923   2.462  11.054  0.1196  0.0888  0.0601
  371SOL    HW1 7974   5.872   2.543  11.059 -1.5144 -0.8451 -0.6878
  371SOL    HW2 7975   5.888   2.407  11.124  2.9129  0.8588  2.2220
  372SOL     OW 7976   9.407   3.874   1.656  0.4976  0.4370 -0.0397
  372SOL    HW1 7977   9.448   3.961   1.651  3.3527 -0.6134  1.9574
  372SOL    HW2 7978   9.476   3.814   1.628 -0.9072 -1.2802  0.0518
  373SOL     OW 7979   8.681   8.633   7.347 -0.2590  0.2816  0.1479
  373SOL    HW1 7980   8.704   8.700   7.283 -1.1547  1.0179  0.5766
  373SOL    HW2 7981   8.586   8.631   7.347 -0.2493 -0.5721  0.5758
  374SOL     OW 7982  10.721   7.106   9.830  0.8216 -0.3922 -0.1659
  374SOL    HW1 7983  10.672   7.183   9.799  1.8530 -0.2432 -1.5372
  374SOL    HW2 7984  10.660   7.033   9.821  0.0149  0.1663  0.6062
  375SOL     OW 7985  11.110   8.592  11.529 -0.6877 -0.0045 -0.2803
  375SOL    HW1 7986  11.072   8.644  11.458  0.1364  1.5682  0.3962
  375SOL    HW2 7987  11.038   8.534  11.556 -1.7641  1.0228 -0.8240
  376SOL     OW 7988   2.746  10.080   5.319 -0.9421  0.5336  0.5183
  376SOL    HW1 7989   2.839  10.061   5.308 -0.8821  0.9994  0.1987
  376SOL    HW2 7990   2.720  10.123   5.237 -1.0762  1.8203  1.2025
  377SOL     OW 7991   7.843   1.698   3.101  0.8018 -0.3637  0.1728
  377SOL    HW1 7992   7.831   1.752   3.023  1.4817 -1.3139 -0.6157
  377SOL    HW2 7993   7.782   1.734   3.165 -2.8233 -2.0297 -2.0542
  378SOL     OW 7994   8.441   6.254   0.713  0.9856  0.6481 -0.0843
  378SOL    HW1 7995   8.420   6.279   0.803  0.7722  0.2514 -0.0234
  378SOL    HW2 7996   8.419   6.161   0.708  0.8462  0.7081 -0.5911
  379SOL     OW 7997   1.093   5.125  12.033 -0.0301 -0.5513 -0.1146
  379SOL    HW1 7998   1.050   5.101  12.115  0.2035 -0.2236  0.1038
  379SOL    HW2 7999   1.046   5.075  11.966 -2.5137  1.6962 -0.2532
  380SOL     OW 8000   3.129  10.939   6.476  0.1732 -0.7627 -0.2961
  380SOL    HW1 8001   3.131  10.908   6.566  0.1161 -1.4932 -0.5401
  380SOL    HW2 8002   3.156  11.030   6.482  2.4242 -1.4027  0.2093
  381SOL     OW 8003   4.755   8.334   2.143 -0.1795  0.0126  0.0524
  381SOL    HW1 8004   4.796   8.347   2.058  0.2412 -3.1544 -0.3397
  381SOL    HW2 8005   4.664   8.314   2.124  0.2410 -2.2186  0.1427
  382SOL     OW 8006  11.846  11.672  10.287  0.2711  0.1890  0.1219
  382SOL    HW1 8007  11.860  11.722  10.367  1.6769  0.9821 -0.5898
  382SOL    HW2 8008  11.931  11.674  10.242 -0.5171 -0.1368 -1.4491
  383SOL     OW 8009   0.616   0.010  10.387  0.2789  0.1568  0.3381
  383SOL    HW1 8010   0.709  -0.002  10.367  0.4322 -1.7923  1.9867
  383SOL    HW2 8011   0.572  -0.061  10.341 -0.6527  1.8431 -1.5621
  384SOL     OW 8012   5.366   8.459   4.060  0.4024  0.0716  0.4978
  384SOL    HW1 8013   5.429   8.530   4.072 -0.1277  0.3121  2.1564
  384SOL    HW2 8014   5.322   8.480   3.977  0.0674  1.8591  1.0775
  385SOL     OW 8015  11.278   7.471   8.544  0.2173  0.0149  0.3592
  385SOL    HW1 8016  11.301   7.378   8.545 -0.5161 -0.1724  0.3670
  385SOL    HW2 8017  11.216   7.480   8.472 -0.5292  0.2915  1.0244
  386SOL     OW 8018   1.654   5.109  12.271  0.1093 -0.8169  0.0986
  386SOL    HW1 8019   1.571   5.064  12.288 -0.8000  0.8873  0.3507
  386SOL    HW2 8020   1.643   5.196  12.309  1.9010 -0.4326 -0.1667
  387SOL     OW 8021   5.149   3.407   2.158  0.1343 -0.6400  0.3811
  387SOL    HW1 8022   5.202   3.335   2.193  0.9564 -0.5261 -0.5663
  387SOL    HW2 8023   5.100   3.368   2.087  0.7068 -0.2436 -0.2428
  388SOL     OW 8024   0.917  12.039   8.737  0.3913 -0.0805 -0.3239
  388SOL    HW1 8025   0.909  12.134   8.730  1.4767  0.0601  0.1400
  388SOL    HW2 8026   1.011  12.021   8.723  0.6686 -0.8270  2.0384
  389SOL     OW 8027  10.420   7.273   8.421 -0.1814  0.2590 -0.1644
  389SOL    HW1 8028  10.403   7.212   8.493 -1.4741  1.5670  0.7029
  389SOL    HW2 8029  10.460   7.349   8.463 -2.7233  1.8721 -0.3941
  390SOL     OW 8030  11.540   4.838   6.532 -0.0464  0.3284 -0.1173
  390SOL    HW1 8031  11.582   4.758   6.566 -2.9016 -1.1291  0.2645
  390SOL    HW2 8032  11.532   4.895   6.608 -2.1352 -0.9936  0.7485
  391SOL     OW 8033   9.402   1.314   6.840 -0.0504  0.2345 -0.0491
  391SOL    HW1 8034   9.321   1.290   6.884 -0.3151 -0.2126 -0.7637
  391SOL    HW2 8035   9.463   1.333   6.911 -0.6093 -0.0015  0.5013
  392SOL     OW 8036   8.285  11.810   8.645  0.2821 -0.1286  0.5945
  392SOL    HW1 8037   8.274  11.874   8.575 -0.2570  0.3672  1.1299
  392SOL    HW2 8038   8.203  11.762   8.648  1.4198 -2.4194 -1.3051
  393SOL     OW 8039   6.257   3.928   8.473 -0.8618  0.5191  0.2343
  393SOL    HW1 8040   6.318   3.972   8.413 -1.5140  2.1036  0.6677
  393SOL    HW2 8041   6.228   3.850   8.426  2.0134 -0.7083  0.2839
  394SOL     OW 8042  10.018   5.552   5.118 -0.3873 -0.2122  0.7103
  394SOL    HW1 8043  10.101   5.506   5.133  2.1945  2.9989 -2.0898
  394SOL    HW2 8044  10.000   5.596   5.201  0.8540 -0.7542  1.2966
  395SOL     OW 8045   0.717   3.369   2.947 -0.4249 -0.7110  0.1830
  395SOL    HW1 8046   0.770   3.307   2.997  0.5008  0.2267  0.3947
  395SOL    HW2 8047   0.692   3.436   3.010  1.0366  0.6629 -0.6529
  396SOL     OW 8048   9.056   1.526   7.668  0.3656  0.3475 -0.0751
  396SOL    HW1 8049   9.033   1.436   7.688  0.6458  0.1322 -0.6889
  396SOL    HW2 8050   8.999   1.579   7.724  0.3235 -0.2082  0.4159
  397SOL     OW 8051   9.705   2.785   3.821 -0.2521 -0.0470  0.3799
  397SOL    HW1 8052   9.798   2.804   3.813  0.8992 -4.3859  1.2116
  397SOL    HW2 8053   9.690   2.780   3.915 -1.3969  0.6792  0.2546
  398SOL     OW 8054   3.240   9.494   4.944  0.2145  0.3788  0.3219
  398SOL    HW1 8055   3.300   9.433   4.988 -0.3760 -1.2909 -1.0990
  398SOL    HW2 8056   3.181   9.438   4.895 -0.8885  2.1041 -0.3808
  399SOL     OW 8057   0.547   2.999   5.961 -0.6127 -0.8015  0.5382
  399SOL    HW1 8058   0.488   3.057   5.913 -0.6544 -1.4729 -0.2439
  399SOL    HW2 8059   0.494   2.922   5.981 -0.6849 -0.4065  1.9646
  400SOL     OW 8060   8.947   0.819  12.246 -0.2555  0.6815  0.6621
  400SOL    HW1 8061   8.855   0.827  12.271  0.5071  0.7839  3.9514
  400SOL    HW2 8062   8.991   0.890  12.294  1.5845  0.5449 -0.7066
  401SOL     OW 8063   8.787  11.966   9.251 -0.1186 -0.5110 -0.1465
  401SOL    HW1 8064   8.720  11.915   9.297 -1.4907  1.8584  0.6519
  401SOL    HW2 8065   8.749  12.053   9.242  3.1902  1.2699  1.1776
  402SOL     OW 8066   0.553   9.160   2.259  0.3333 -0.3847  0.0763
  402SOL    HW1 8067   0.513   9.220   2.195 -0.0181 -0.6617  0.0331
  402SOL    HW2 8068   0.609   9.103   2.206 -2.2064 -2.5823 -0.4766
  403SOL     OW 8069   8.238   0.327   2.919 -0.5050  0.1942  0.0639
  403SOL    HW1 8070   8.164   0.309   2.861  0.2692 -1.9772 -0.3695
  403SOL    HW2 8071   8.312   0.341   2.860  0.2014 -1.6141  0.4514
  404SOL     OW 8072  11.079  11.168  12.189 -0.1261  0.4227  0.0005
  404SOL    HW1 8073  10.996  11.155  12.143 -0.8508 -0.0769  1.3966
  404SOL    HW2 8074  11.067  11.248  12.239  0.4776  0.7068 -0.3032
  405SOL     OW 8075  10.020   2.121   1.720  0.0915  0.6372  0.6501
  405SOL    HW1 8076   9.989   2.166   1.641  0.8814  1.7930  0.9643
  405SOL    HW2 8077   9.960   2.048   1.732 -0.4444  0.8461 -0.6398
  406SOL     OW 8078   0.502  10.532   1.783  0.0721 -0.0235 -0.1328
  406SOL    HW1 8079   0.582  10.484   1.801  0.0997  0.3309  0.7406
  406SOL    HW2 8080   0.514  10.568   1.695  1.1223  0.5177  0.2104
  407SOL     OW 8081   4.276   6.819  11.591  0.2444 -0.2231  0.2261
  407SOL    HW1 8082   4.350   6.819  11.652 -1.1459 -0.2893  1.9665
  407SOL    HW2 8083   4.312   6.857  11.511  1.5284  2.1928  1.8307
  408SOL     OW 8084   6.276   3.443   1.281  0.1947 -0.2630  0.6872
  408SOL    HW1 8085   6.214   3.422   1.210  1.4458 -0.7049 -0.3210
  408SOL    HW2 8086   6.237   3.403   1.359 -1.4549  0.6382  0.3710
  409SOL     OW 8087   6.144   3.549   6.614  0.3883  0.4036  0.6595
  409SOL    HW1 8088   6.056   3.566   6.647  0.3421  1.6407 -0.0360
  409SOL    HW2 8089   6.168   3.629   6.567  0.9075 -0.8113 -1.2867
  410SOL     OW 8090  11.372   1.272   8.690 -0.8258  0.3141 -0.3145
  410SOL    HW1 8091  11.334   1.264   8.777 -0.6606 -1.9253 -0.3740
  410SOL    HW2 8092  11.409   1.185   8.672  0.8081  1.2591 -1.8623
  411SOL     OW 8093   9.041   9.241   6.307  0.1081 -0.2202 -0.0479
  411SOL    HW1 8094   9.043   9.173   6.240  2.0582  0.7363 -1.0543
  411SOL    HW2 8095   9.127   9.236   6.350  1.0639  2.6170 -1.3304
  412SOL     OW 8096   8.124   0.698   6.560  0.1798  0.5187 -0.3954
  412SOL    HW1 8097   8.191   0.758   6.528  0.1472 -0.0139 -1.5245
  412SOL    HW2 8098   8.056   0.700   6.492 -0.0589 -0.3764 -0.1957
  413SOL     OW 8099  11.677   5.488   0.688  0.1802 -0.4591 -0.2368
  413SOL    HW1 8100  11.617   5.558   0.661  0.9082 -0.4561 -2.0332
  413SOL    HW2 8101  11.702   5.446   0.606  1.1036 -1.7300  0.6593
  414SOL     OW 8102   6.525   0.627  12.409 -0.7163  0.0774 -0.2727
  414SOL    HW1 8103   6.574   0.639  12.328  1.2921  0.6394  0.9518
  414SOL    HW2 8104   6.485   0.713  12.426 -0.2266  0.2789 -0.1205
  415SOL     OW 8105   6.366   6.682  11.349 -0.1597 -0.1826  0.2788
  415SOL    HW1 8106   6.407   6.702  11.265  0.7643  1.4267  1.0748
  415SOL    HW2 8107   6.431   6.629  11.395 -1.2478 -2.3753 -0.5025
  416SOL     OW 8108   5.517   1.413   6.684  0.2293 -0.5315  0.0588
  416SOL    HW1 8109   5.558   1.471   6.747 -2.0953  0.2140  0.9990
  416SOL    HW2 8110   5.443   1.375   6.731 -1.4815 -0.1106 -2.1067
  417SOL     OW 8111  11.196  10.523   2.851 -0.3435 -0.4744  0.6848
  417SOL    HW1 8112  11.150  10.500   2.770 -1.5795 -0.7621  1.4391
  417SOL    HW2 8113  11.270  10.577   2.823 -2.4958  2.1290 -0.4441
  418SOL     OW 8114   8.038   9.661   9.306 -0.3731 -0.2973 -0.0378
  418SOL    HW1 8115   8.071   9.622   9.225  0.1334  1.2591 -0.6044
  418SOL    HW2 8116   8.039   9.755   9.290 -3.5385 -0.0557  0.5311
  419SOL     OW 8117   9.380   4.892   8.376  0.1502  0.1071 -0.5215
  419SOL    HW1 8118   9.353   4.976   8.340  1.1840  0.8139  0.2930
  419SOL    HW2 8119   9.298   4.850   8.403 -0.3811  0.8026 -1.0231
  420SOL     OW 8120   3.923   2.704   3.269  0.1019 -0.2374 -0.4397
  420SOL    HW1 8121   3.962   2.791   3.276  1.2754 -0.7109 -0.8351
  420SOL    HW2 8122   3.933   2.666   3.356  0.1435 -0.2024 -0.4294
  421SOL     OW 8123  11.691  10.920   3.314  0.4110  0.0914 -0.2471
  421SOL    HW1 8124  11.705  11.014   3.306 -0.2501  0.2327  0.1613
  421SOL    HW2 8125  11.778  10.882   3.308  0.5561  0.6090 -1.9978
  422SOL     OW 8126   8.270   7.961   5.140  0.5140  0.5271  0.7479
  422SOL    HW1 8127   8.334   7.895   5.166  1.9412  1.9873  1.0297
  422SOL    HW2 8128   8.189   7.911   5.129  1.8622 -1.5491 -0.5896
  423SOL     OW 8129   0.386   1.705   0.626  0.1235 -0.3333  0.1336
  423SOL    HW1 8130   0.341   1.623   0.648 -0.1235 -0.0756  0.6093
  423SOL    HW2 8131   0.320   1.773   0.641  1.1300  0.2193  2.4851
  424SOL     OW 8132   7.301   4.491   4.588 -0.1357 -0.3677  0.1168
  424SOL    HW1 8133   7.366   4.551   4.626 -0.0095 -0.9295  0.8010
  424SOL    HW2 8134   7.347   4.408   4.581 -0.5377 -0.5691 -0.1471
  425SOL     OW 8135   6.116   2.894   4.765  0.1971 -0.0281 -0.3520
  425SOL    HW1 8136   6.095   2.978   4.724 -3.0296 -0.9436 -0.9041
  425SOL    HW2 8137   6.098   2.907   4.858 -0.4370 -0.1435 -0.4580
  426SOL     OW 8138  10.169   5.832   3.702 -0.0060 -0.3180  0.3468
  426SOL    HW1 8139  10.166   5.914   3.751 -0.2882 -0.7192  1.0198
  426SOL    HW2 8140  10.255   5.795   3.724 -0.6792 -1.1648  1.6778
  427SOL     OW 8141   1.651   4.668  12.375  0.1047  0.1076  0.1749
  427SOL    HW1 8142   1.718   4.730  12.347  1.4209 -1.5050 -0.4047
  427SOL    HW2 8143   1.689   4.623  12.450 -1.5725  1.2074  1.7682
  428SOL     OW 8144  12.045  11.349  11.886  0.1381 -0.2288  0.2349
  428SOL    HW1 8145  12.136  11.365  11.864  0.5243 -0.9373  1.2525
  428SOL    HW2 8146  12.046  11.322  11.978 -1.2474  1.1837  0.7155
  429SOL     OW 8147   5.432   4.820   4.232 -0.3690  0.0529 -0.3616
  429SOL    HW1 8148   5.493   4.817   4.158  0.6314 -1.3471  0.4690
  429SOL    HW2 8149   5.358   4.765   4.205 -0.4963  0.4028 -0.7276
  430SOL     OW 8150   1.134   3.269   1.783  0.2124 -0.6355 -0.1127
  430SOL    HW1 8151   1.143   3.294   1.875  0.3366  0.2159 -0.3483
  430SOL    HW2 8152   1.194   3.196   1.773  1.6018  0.4287  0.0546
  431SOL     OW 8153   0.466   0.319   3.108  0.3945  0.4547  0.3050
  431SOL    HW1 8154   0.491   0.375   3.034 -0.0212 -1.2411 -1.1871
  431SOL    HW2 8155   0.531   0.249   3.109 -0.0450  0.0452  1.0906
  432SOL     OW 8156   6.049   5.547   5.051 -0.3483  0.0753  0.6272
  432SOL    HW1 8157   6.116   5.572   5.114  0.7166 -0.2457 -0.3614
  432SOL    HW2 8158   6.008   5.630   5.026  2.6510  0.9327 -2.0580
  433SOL     OW 8159   3.825  10.179   4.638 -0.4149  0.3906  0.1838
  433SOL    HW1 8160   3.754  10.160   4.699 -1.3509  2.1196 -0.2909
  433SOL    HW2 8161   3.900  10.128   4.670 -1.2010  0.3769  2.0816
  434SOL     OW 8162  10.781   4.891   0.215  0.1876  0.2848 -0.0908
  434SOL    HW1 8163  10.827   4.885   0.299  0.4062 -0.7044 -0.2752
  434SOL    HW2 8164  10.838   4.847   0.153 -0.5031  0.0165 -0.5450
  435SOL     OW 8165   3.095   4.119   4.566 -0.0780 -0.5241  0.0451
  435SOL    HW1 8166   3.133   4.166   4.640  0.0819 -1.0884  0.3338
  435SOL    HW2 8167   3.037   4.054   4.607  1.1347 -1.8285 -0.2379
  436SOL     OW 8168  11.380   5.875   2.030 -0.0538 -0.0639 -0.0483
  436SOL    HW1 8169  11.293   5.881   2.068 -0.1160  3.4326 -0.4413
  436SOL    HW2 8170  11.439   5.871   2.105 -0.4391  1.0936  0.3408
  437SOL     OW 8171  12.297  10.438   3.385  0.0965 -0.1915 -0.6167
  437SOL    HW1 8172  12.379  10.448   3.433 -0.5403  1.1797  0.2740
  437SOL    HW2 8173  12.321  10.450   3.293  0.9067  0.0819 -0.3750
  438SOL     OW 8174   9.577  11.179   2.654 -0.5254 -0.0962  0.3363
  438SOL    HW1 8175   9.482  11.180   2.645 -0.4664  0.6217 -0.2923
  438SOL    HW2 8176   9.595  11.249   2.716 -0.3542  0.3002 -0.1556
  439SOL     OW 8177   6.959   0.279   7.322 -0.7182  0.2110 -0.7516
  439SOL    HW1 8178   7.034   0.275   7.263 -1.4055  1.4691 -1.7689
  439SOL    HW2 8179   6.995   0.261   7.409  0.3692 -1.3616 -1.4943
  440SOL     OW 8180  10.359   9.010   4.817  0.4735  0.1092 -0.3184
  440SOL    HW1 8181  10.315   8.934   4.855  0.6576  0.3148  0.3158
  440SOL    HW2 8182  10.369   8.988   4.724  2.8869 -1.7744  0.3043
  441SOL     OW 8183  12.304   9.126  11.609  0.1334 -0.5876  0.2871
  441SOL    HW1 8184  12.371   9.100  11.546  1.4231  2.0521  0.4546
  441SOL    HW2 8185  12.221   9.111  11.563  0.9562 -0.8646 -1.1563
  442SOL     OW 8186  11.328   7.846   2.351 -0.2095 -0.1725  0.3145
  442SOL    HW1 8187  11.407   7.900   2.361 -1.0629  1.0708  0.5499
  442SOL    HW2 8188  11.300   7.828   2.440 -0.5916 -0.0076  0.2272
  443SOL     OW 8189   7.896  10.397   6.208  0.3729  0.1307 -0.5811
  443SOL    HW1 8190   7.981  10.407   6.165  0.2240 -1.7154 -1.3840
  443SOL    HW2 8191   7.913  10.336   6.280  0.0237  1.0061  0.2744
  444SOL     OW 8192   8.170   4.116   2.259  0.5029 -0.0503 -0.5300
  444SOL    HW1 8193   8.202   4.036   2.301 -0.9100 -0.5608 -0.3922
  444SOL    HW2 8194   8.110   4.086   2.191 -0.8300  0.9091  0.1811
  445SOL     OW 8195   8.933   9.907   8.895 -0.2457  0.3235 -0.5072
  445SOL    HW1 8196   8.990   9.905   8.818  1.6343  0.1923  0.8372
  445SOL    HW2 8197   8.908   9.816   8.910  0.2988  0.2031 -0.3191
  446SOL     OW 8198   2.542   1.923  10.687  0.0890  0.0805 -0.1804
  446SOL    HW1 8199   2.612   1.957  10.743  0.4015  0.2833 -0.6913
  446SOL    HW2 8200   2.531   1.989  10.619 -0.2386 -0.2003 -0.4011
  447SOL     OW 8201   6.882  12.349  10.944 -0.3665 -0.0868  0.7154
  447SOL    HW1 8202   6.838  12.342  10.859  0.9968  0.2418 -0.0534
  447SOL    HW2 8203   6.812  12.338  11.009 -1.6279  0.8304 -0.4375
  448SOL     OW 8204   0.380   1.112   1.458  0.0023  0.1272  0.2719
  448SOL    HW1 8205   0.310   1.126   1.521 -0.2968  0.9501 -0.2315
  448SOL    HW2 8206   0.444   1.058   1.504  0.0028  1.1013  1.4495
  449SOL     OW 8207   4.209   5.624   2.203  0.0019 -0.6113  0.3298
  449SOL    HW1 8208   4.202   5.703   2.256 -2.1619  1.5037 -2.6914
  449SOL    HW2 8209   4.285   5.640   2.146 -0.5155 -0.5914 -0.3727
  450SOL     OW 8210   0.186   0.379   2.319  0.0241 -0.8522  0.4255
  450SOL    HW1 8211   0.095   0.404   2.338  0.3977  1.0000  0.0307
  450SOL    HW2 8212   0.233   0.395   2.402  0.7086  2.3038 -0.4386
  451SOL     OW 8213  11.642   3.542   7.500 -0.1320  0.7080  0.1827
  451SOL    HW1 8214  11.581   3.612   7.477  0.3124  0.5732 -1.5251
  451SOL    HW2 8215  11.587   3.473   7.536 -0.6022  1.8358  1.7468
  452SOL     OW 8216  12.210   6.810   8.481 -0.1826  0.0826  0.3397
  452SOL    HW1 8217  12.171   6.864   8.550 -1.7255 -0.8033  0.2247
  452SOL    HW2 8218  12.291   6.776   8.520 -0.8669 -0.1497  1.6344
  453SOL     OW 8219  12.054  11.831   4.172 -0.2041  0.7882 -0.3486
  453SOL    HW1 8220  12.144  11.846   4.201  0.0050  1.3456 -1.2536
  453SOL    HW2 8221  12.063  11.782   4.090 -0.7427  0.3911 -0.1766
  454SOL     OW 8222  10.957   6.425   2.291  0.5123  0.4981 -0.3360
  454SOL    HW1 8223  10.992   6.496   2.345  0.7352 -0.2378  0.5208
  454SOL    HW2 8224  10.866   6.416   2.320  0.6982 -0.0491  0.0794
  455SOL     OW 8225   6.148   6.509  11.283  0.2221  0.3243 -0.2382
  455SOL    HW1 8226   6.212   6.567  11.324 -0.1030  0.1402  0.5272
  455SOL    HW2 8227   6.167   6.515  11.189  1.0308  0.6646 -0.0563
  456SOL     OW 8228   6.957   8.502   1.373 -0.2118 -0.0705  0.0581
  456SOL    HW1 8229   6.949   8.445   1.449 -0.9483 -0.5814 -0.3936
  456SOL    HW2 8230   7.049   8.532   1.375  0.0657 -0.9233  0.5314
  457SOL     OW 8231   2.533   1.548   1.788  0.0117 -0.0251  0.6665
  457SOL    HW1 8232   2.489   1.463   1.797 -0.8009  0.4312  1.0279
  457SOL    HW2 8233   2.619   1.535   1.829 -0.6569 -0.2517  2.0105
  458SOL     OW 8234  11.419   1.024   0.450  0.2347 -0.2165 -0.0281
  458SOL    HW1 8235  11.406   1.030   0.545 -0.0770 -0.4940 -0.0514
  458SOL    HW2 8236  11.356   1.085   0.413  0.6298  0.1898 -0.0445
  459SOL     OW 8237   3.486  12.079   1.721  0.1397 -0.4084  0.2047
  459SOL    HW1 8238   3.472  12.146   1.788 -0.1708  0.6119 -0.8487
  459SOL    HW2 8239   3.412  12.089   1.661  1.2252 -0.2198 -1.1670
  460SOL     OW 8240   1.489   0.629   0.328  0.3673  0.2523  0.2417
  460SOL    HW1 8241   1.543   0.636   0.406 -2.6394  0.1846  2.4864
  460SOL    HW2 8242   1.424   0.699   0.336 -2.0825 -1.7965 -0.3889
  461SOL     OW 8243   2.866   6.446   4.694 -0.5879  0.1512 -0.2751
  461SOL    HW1 8244   2.879   6.382   4.765  1.5657  0.8782  0.0662
  461SOL    HW2 8245   2.865   6.393   4.615  0.3145 -0.4074  0.0697
  462SOL     OW 8246   2.682   5.590   1.251 -0.1806 -0.2210 -0.2933
  462SOL    HW1 8247   2.638   5.632   1.325  0.3141 -1.0372  0.4978
  462SOL    HW2 8248   2.612   5.572   1.188 -0.2987  2.4367 -1.0278
  463SOL     OW 8249   1.815  11.447   9.979 -0.2662  0.1217 -0.4711
  463SOL    HW1 8250   1.858  11.521  10.021 -1.6882  0.3673  0.6755
  463SOL    HW2 8251   1.883  11.404   9.928  0.6322  2.1040 -1.0240
  464SOL     OW 8252   5.958   8.796   7.969 -0.2401  0.1369 -0.0449
  464SOL    HW1 8253   5.999   8.846   7.898 -0.6717 -1.8442 -1.8255
  464SOL    HW2 8254   6.017   8.722   7.983 -1.0601 -0.4485  0.4037
  465SOL     OW 8255  11.199   8.042  10.454 -0.3724 -0.1628 -0.1888
  465SOL    HW1 8256  11.185   7.951  10.430  1.2649 -0.2612 -0.8730
  465SOL    HW2 8257  11.294   8.051  10.462 -0.4699  1.5839 -0.5430
  466SOL     OW 8258  10.090   6.300   7.432  0.2805 -0.9055 -0.0299
  466SOL    HW1 8259  10.179   6.264   7.430  0.5544 -0.2166 -0.7487
  466SOL    HW2 8260  10.103   6.394   7.447 -0.2788 -0.6620 -1.0112
  467SOL     OW 8261  11.720  12.175   1.241  0.2846  0.3661 -0.5413
  467SOL    HW1 8262  11.668  12.171   1.321  1.1990 -0.1725  0.0389
  467SOL    HW2 8263  11.700  12.262   1.205  0.3358  0.8822  0.6054
  468SOL     OW 8264   5.975   0.308  11.871 -0.0551 -0.2046  0.0752
  468SOL    HW1 8265   5.992   0.270  11.957 -0.0326  0.7841  0.5251
  468SOL    HW2 8266   5.883   0.334  11.874 -0.9727 -2.9297 -1.3217
  469SOL     OW 8267   8.219   3.333   8.581 -0.1726  0.2805 -0.0747
  469SOL    HW1 8268   8.219   3.427   8.565 -0.3329  0.1733 -0.7023
  469SOL    HW2 8269   8.312   3.312   8.596  0.0584  0.2872 -1.4287
  470SOL     OW 8270  10.907   6.699   0.526  0.7187  0.4311  0.0923
  470SOL    HW1 8271  10.912   6.606   0.548  2.0786  0.0785 -1.4985
  470SOL    HW2 8272  10.921   6.701   0.431  1.0673  2.2839  0.1602
  471SOL     OW 8273   9.765  10.575   2.135  0.2054 -0.7049 -0.1745
  471SOL    HW1 8274   9.767  10.649   2.075 -1.5433 -1.4533 -1.2320
  471SOL    HW2 8275   9.850  10.533   2.125  1.7829  1.8526  1.4464
  472SOL     OW 8276   4.013   7.299  11.966  0.2535  0.0847 -0.3136
  472SOL    HW1 8277   4.052   7.367  11.911  0.4299 -0.5341 -0.9623
  472SOL    HW2 8278   3.996   7.227  11.907 -2.9230  0.6863 -0.3126
  473SOL     OW 8279   4.195   9.172   3.104 -0.2330  0.1495 -0.0966
  473SOL    HW1 8280   4.150   9.242   3.152  0.6457 -0.4295  1.6446
  473SOL    HW2 8281   4.277   9.160   3.152  0.1277 -1.3174 -1.0396
  474SOL     OW 8282  11.552   7.001   7.281  0.2072  0.2382 -0.0900
  474SOL    HW1 8283  11.574   6.914   7.247 -2.9330 -1.2758  1.4043
  474SOL    HW2 8284  11.565   6.994   7.375  1.0104  1.8173 -0.0461
  475SOL     OW 8285  10.401  10.903   5.886 -0.0442  0.3795 -0.0787
  475SOL    HW1 8286  10.411  10.980   5.942  0.6258  1.6920 -1.9078
  475SOL    HW2 8287  10.314  10.869   5.908  0.0202  1.0915  1.4208
  476SOL     OW 8288   2.388  10.390   5.526  0.6913  1.0705  0.6987
  476SOL    HW1 8289   2.463  10.335   5.503  0.9789  1.1465  1.4324
  476SOL    HW2 8290   2.407  10.421   5.615 -0.6926  0.2256  1.3341
  477SOL     OW 8291   5.854   8.704   6.858 -0.1437  0.2004  0.0809
  477SOL    HW1 8292   5.901   8.761   6.918 -0.3256 -0.5225  0.9227
  477SOL    HW2 8293   5.922   8.669   6.800  0.0579  0.7556 -0.0263
  478SOL     OW 8294   6.906   1.590   7.849  0.5682 -0.4639 -0.0817
  478SOL    HW1 8295   6.922   1.595   7.943  1.9052 -1.7120 -0.2066
  478SOL    HW2 8296   6.974   1.644   7.809 -0.6747  0.9862 -0.3226
  479SOL     OW 8297  10.221   8.402   4.818 -0.5726 -0.2626 -0.2405
  479SOL    HW1 8298  10.296   8.412   4.759 -0.3815  0.4681  0.1051
  479SOL    HW2 8299  10.256   8.426   4.904 -0.8310 -1.3869  0.1886
  480SOL     OW 8300   7.266   5.822   8.381  0.2869  0.0707 -0.1942
  480SOL    HW1 8301   7.256   5.734   8.417  1.2403  0.2845  0.6491
  480SOL    HW2 8302   7.195   5.831   8.318 -0.1416 -1.1064  0.1041
  481SOL     OW 8303   5.951   3.225   2.562 -0.4925 -0.0457 -0.2000
  481SOL    HW1 8304   5.939   3.145   2.613 -0.5596 -0.9152 -1.5380
  481SOL    HW2 8305   5.868   3.272   2.573 -2.1307 -2.0753 -2.5967
  482SOL     OW 8306   8.305  10.600   2.311 -0.2405 -0.2265  0.0111
  482SOL    HW1 8307   8.315  10.562   2.398 -0.9679  0.0722  0.2345
  482SOL    HW2 8308   8.314  10.527   2.250  2.0995 -0.1829  0.2088
  483SOL     OW 8309   0.481   6.897   8.589  0.0726 -0.2354  0.2161
  483SOL    HW1 8310   0.468   6.907   8.683  1.2559 -1.2094  0.5136
  483SOL    HW2 8311   0.500   6.986   8.558 -0.9810  0.2034  0.7600
  484SOL     OW 8312   2.935   6.529   4.999  0.0473 -0.0938  0.5770
  484SOL    HW1 8313   3.024   6.552   4.973 -0.1901 -0.6198 -0.7481
  484SOL    HW2 8314   2.918   6.445   4.957 -1.2679  0.2584  0.3513
  485SOL     OW 8315  12.169   8.243   1.947  0.0682 -0.2058 -0.1188
  485SOL    HW1 8316  12.260   8.213   1.938 -0.4599 -1.5501 -1.1969
  485SOL    HW2 8317  12.177   8.329   1.988  2.0171  0.9458 -2.6448
  486SOL     OW 8318   4.122   8.488  10.301 -0.1302 -0.1525  0.0548
  486SOL    HW1 8319   4.136   8.514  10.392 -0.8477  1.3681 -0.2415
  486SOL    HW2 8320   4.210   8.468  10.268  0.0915 -1.2554  1.1953
  487SOL     OW 8321   6.868   0.175   8.610  0.0276 -0.0315 -0.3794
  487SOL    HW1 8322   6.848   0.119   8.685 -1.3912  0.3852 -0.4282
  487SOL    HW2 8323   6.916   0.249   8.648  0.0279 -0.2151 -0.0131
  488SOL     OW 8324   2.889   2.677   9.568  0.2167  0.1283  1.1792
  488SOL    HW1 8325   2.957   2.723   9.519  1.2096 -0.6632  1.7546
  488SOL    HW2 8326   2.937   2.629   9.635 -0.7203 -1.9244  0.4773
  489SOL     OW 8327   3.810   9.959  11.942 -0.8147  0.1599  0.1960
  489SOL    HW1 8328   3.779  10.049  11.936  0.0890  0.5198  0.7423
  489SOL    HW2 8329   3.901   9.963  11.911 -0.7185 -0.5333  0.3779
  490SOL     OW 8330  12.007   8.954   8.542 -0.1720 -0.3360  0.7021
  490SOL    HW1 8331  12.015   8.859   8.539  0.6916 -0.2544  0.1149
  490SOL    HW2 8332  11.914   8.971   8.527 -0.6120 -1.1245  2.2611
  491SOL     OW 8333   3.841   3.340   4.786 -0.8095  0.4632  0.2203
  491SOL    HW1 8334   3.861   3.419   4.836  0.5471  0.0811  0.3143
  491SOL    HW2 8335   3.768   3.300   4.832  0.6119 -0.0587  2.1388
  492SOL     OW 8336   3.079   7.004   4.384  0.0668  0.3713 -0.3084
  492SOL    HW1 8337   3.072   7.062   4.307  2.4878  1.2222  0.0396
  492SOL    HW2 8338   3.172   7.004   4.405 -0.4882 -0.1225  2.4404
  493SOL     OW 8339   3.732   4.547   4.037 -0.2139  0.2041 -0.7052
  493SOL    HW1 8340   3.727   4.452   4.027 -2.0445  0.1922 -0.0268
  493SOL    HW2 8341   3.799   4.561   4.104 -2.2101 -0.8488  1.6479
  494SOL     OW 8342   9.761  12.136   8.438  0.0289 -0.2576 -0.4535
  494SOL    HW1 8343   9.739  12.044   8.423  0.0574 -0.2993 -0.2297
  494SOL    HW2 8344   9.839  12.151   8.385  0.5219 -0.5835  0.1776
  495SOL     OW 8345   1.540   8.297  10.030  0.5481 -0.2985  0.0355
  495SOL    HW1 8346   1.561   8.389  10.049 -1.2766 -0.2309  2.1680
  495SOL    HW2 8347   1.445   8.297  10.016  0.0977 -2.1373  2.4850
  496SOL     OW 8348  11.784   2.441   4.077 -0.1551 -0.1276 -0.1090
  496SOL    HW1 8349  11.851   2.448   4.009 -1.0890  2.5272 -0.8697
  496SOL    HW2 8350  11.797   2.519   4.131 -2.5722  0.4325 -0.2438
  497SOL     OW 8351   7.672   1.288   0.093  0.2593  0.0297 -0.5634
  497SOL    HW1 8352   7.763   1.317   0.094  0.4936 -0.6738 -0.8452
  497SOL    HW2 8353   7.641   1.302   0.182  0.9672 -0.7113 -0.1917
  498SOL     OW 8354  11.114   9.228   4.831  0.5424 -0.0417  0.0817
  498SOL    HW1 8355  11.116   9.146   4.879 -0.8809 -0.2014 -0.0850
  498SOL    HW2 8356  11.172   9.287   4.880 -0.7679 -0.2290  1.9394
  499SOL     OW 8357   5.962   0.264   5.117  0.1786 -0.0792  0.5803
  499SOL    HW1 8358   5.873   0.284   5.146  0.3822  2.3177 -0.1689
  499SOL    HW2 8359   5.950   0.213   5.037 -0.5197 -0.3334  0.8404
  500SOL     OW 8360   3.134   2.846   3.576  0.3939  0.1140 -0.5656
  500SOL    HW1 8361   3.144   2.850   3.671 -0.3131 -0.7692 -0.4359
  500SOL    HW2 8362   3.222   2.827   3.543  0.2058 -2.4127  0.1499
  501SOL     OW 8363   1.630   9.892   3.666  0.4209  0.5720 -0.5047
  501SOL    HW1 8364   1.652   9.810   3.711 -0.4976  0.9657  0.7086
  501SOL    HW2 8365   1.713   9.919   3.625  0.6810 -1.0693 -1.1547
  502SOL     OW 8366  10.930  12.453  12.458 -0.0707  0.3537  0.0163
  502SOL    HW1 8367  10.900  12.485  12.373 -0.8483  0.5955  0.3791
  502SOL    HW2 8368  10.949  12.360  12.443  1.0093  0.6701 -0.7268
  503SOL     OW 8369   4.846   5.310   1.526  0.4469  0.1756  0.1343
  503SOL    HW1 8370   4.786   5.317   1.600 -0.2766 -0.2150 -0.3973
  503SOL    HW2 8371   4.900   5.389   1.531 -0.0265  0.4741  0.6962
  504SOL     OW 8372   4.691   6.209   8.499  0.3918 -0.4510  0.7271
  504SOL    HW1 8373   4.647   6.251   8.426  0.8088 -1.5446 -0.1838
  504SOL    HW2 8374   4.638   6.131   8.517  1.7798 -1.6412 -0.2094
  505SOL     OW 8375   7.149   7.515   8.387  0.0071  0.2583 -0.7998
  505SOL    HW1 8376   7.094   7.437   8.383 -0.3680  0.4049  0.9477
  505SOL    HW2 8377   7.236   7.483   8.410  0.1062  0.2607 -1.1619
  506SOL     OW 8378   5.460   1.021  11.586 -0.4421  0.5022  0.3440
  506SOL    HW1 8379   5.379   1.060  11.619  0.5494  1.8008  1.3466
  506SOL    HW2 8380   5.458   0.931  11.621 -1.6893  0.3334 -0.1082
  507SOL     OW 8381   2.965   9.720   5.736 -0.6916 -0.9296 -0.0210
  507SOL    HW1 8382   2.972   9.791   5.671  0.5876 -0.0526  1.0287
  507SOL    HW2 8383   3.044   9.668   5.724 -1.6320 -2.2393 -0.7929
  508SOL     OW 8384   5.812   5.834   6.212  0.0972 -0.3026 -0.5319
  508SOL    HW1 8385   5.756   5.825   6.135 -0.2953 -0.1487 -0.2639
  508SOL    HW2 8386   5.794   5.756   6.264 -0.7239  0.3018  0.1077
  509SOL     OW 8387   1.932   9.012   3.102  0.1926 -0.7858 -0.3451
  509SOL    HW1 8388   1.910   8.921   3.084  1.2567 -0.6999 -2.4196
  509SOL    HW2 8389   1.976   9.010   3.187 -0.5118 -2.0772  0.0118
  510SOL     OW 8390   9.821  11.821  10.083  0.2175 -0.1249  0.2613
  510SOL    HW1 8391   9.795  11.835   9.992 -0.3604 -0.2276  0.4023
  510SOL    HW2 8392   9.741  11.791  10.126  0.2842  0.6619  0.9736
  511SOL     OW 8393   7.038  12.116   1.184 -0.2097 -0.1903 -0.5191
  511SOL    HW1 8394   7.069  12.195   1.228 -1.0775  1.2716 -2.3697
  511SOL    HW2 8395   7.100  12.103   1.113  0.6461 -1.9757  0.4960
  512SOL     OW 8396   3.942   5.899  11.561  0.1395 -0.3774  0.2166
  512SOL    HW1 8397   3.861   5.920  11.513 -0.1441  0.9150  1.2066
  512SOL    HW2 8398   3.973   5.984  11.592 -0.2152 -1.2150  3.1438
  513SOL     OW 8399   8.895   9.261  11.831  0.1146 -0.0761 -0.1967
  513SOL    HW1 8400   8.825   9.319  11.862 -0.1622 -1.6951  2.6305
  513SOL    HW2 8401   8.974   9.315  11.835 -0.6288  1.1645 -1.3766
  514SOL     OW 8402  11.885   3.869   7.449  0.5320 -0.2572 -0.9066
  514SOL    HW1 8403  11.819   3.856   7.381  0.1838  1.0864 -0.8426
  514SOL    HW2 8404  11.927   3.951   7.427 -0.5738  0.9744  1.2581
  515SOL     OW 8405   9.806   6.634   2.214  0.1574  0.4240  0.8617
  515SOL    HW1 8406   9.877   6.669   2.268  0.7943  1.8611 -0.8092
  515SOL    HW2 8407   9.728   6.679   2.245 -0.0192 -0.8459  2.4185
  516SOL     OW 8408   9.466   4.656   7.472 -0.3816 -0.2099 -0.3466
  516SOL    HW1 8409   9.541   4.629   7.419  0.2023 -0.3343  0.5207
  516SOL    HW2 8410   9.401   4.588   7.456  0.4053 -1.1754  0.3721
  517SOL     OW 8411   7.632   9.063   3.804 -0.1644 -0.4345 -0.1063
  517SOL    HW1 8412   7.553   9.113   3.786  0.7499  1.1879  0.1578
  517SOL    HW2 8413   7.685   9.073   3.725  1.1536  1.3214  0.9289
  518SOL     OW 8414  11.893   5.547   0.136  0.2211  0.5529  0.1509
  518SOL    HW1 8415  11.897   5.454   0.157 -0.7211  0.0650 -1.6618
  518SOL    HW2 8416  11.807   5.576   0.169  0.3573  0.6995  0.3815
  519SOL     OW 8417   4.075   1.120   1.655  0.3937  0.0488  0.4172
  519SOL    HW1 8418   4.164   1.097   1.626  0.6488 -0.4064  1.5098
  519SOL    HW2 8419   4.072   1.215   1.649  0.9121  0.0577  0.2555
  520SOL     OW 8420   8.835   5.091   4.787  0.5388 -0.4623  0.1265
  520SOL    HW1 8421   8.821   5.062   4.877 -0.0714  1.3592  0.6529
  520SOL    HW2 8422   8.928   5.112   4.782  0.3479  0.5597  0.6951
  521SOL     OW 8423   1.027   8.539  12.413 -0.3103  0.3954 -0.3032
  521SOL    HW1 8424   0.967   8.542  12.487  0.3378 -0.2334  0.2578
  521SOL    HW2 8425   1.051   8.447  12.405 -0.1632  0.4970 -1.1287
  522SOL     OW 8426   1.741   2.988  10.397 -0.3643  0.1498  0.0321
  522SOL    HW1 8427   1.718   3.044  10.323 -2.1510 -0.2267  0.2477
  522SOL    HW2 8428   1.665   2.995  10.455  0.8835  0.2380  1.7212
  523SOL     OW 8429  12.462   2.603   1.262  0.3768  0.1818 -0.6371
  523SOL    HW1 8430  12.451   2.660   1.339  0.5410  1.3120 -1.4285
  523SOL    HW2 8431  12.528   2.540   1.289  0.9135  0.9608 -0.0600
  524SOL     OW 8432   0.746  10.555   6.131 -0.4535 -0.0592  0.1711
  524SOL    HW1 8433   0.749  10.599   6.216 -1.5969 -0.4988  0.4568
  524SOL    HW2 8434   0.738  10.626   6.067  1.0072  0.3113  0.3620
  525SOL     OW 8435   5.972   5.615  10.820  0.2906 -0.2392  0.1253
  525SOL    HW1 8436   6.000   5.534  10.864 -0.2052 -1.1440 -1.1526
  525SOL    HW2 8437   5.891   5.591  10.776 -0.0379  1.0694 -0.0029
  526SOL     OW 8438   0.010   5.910   7.639 -0.4158 -0.5427  0.0641
  526SOL    HW1 8439  -0.036   5.839   7.685 -2.2330  1.1208  0.9531
  526SOL    HW2 8440  -0.024   5.906   7.550 -2.5686  0.7511  0.7389
  527SOL     OW 8441   8.987   4.409   3.843 -0.5245  0.5301  0.1905
  527SOL    HW1 8442   9.010   4.360   3.764 -0.3472 -0.9409  1.1249
  527SOL    HW2 8443   8.951   4.491   3.810 -0.8812 -0.2354 -1.4328
  528SOL     OW 8444   5.003   9.237   0.387  0.7710 -0.0806  0.4582
  528SOL    HW1 8445   5.059   9.309   0.413 -0.0280  0.5846  0.3872
  528SOL    HW2 8446   4.953   9.216   0.466 -1.4231  1.7245 -0.3208
  529SOL     OW 8447   0.348  11.825  11.418  0.0777  0.6639  0.5452
  529SOL    HW1 8448   0.270  11.770  11.420  0.7000 -0.3725 -1.3794
  529SOL    HW2 8449   0.370  11.832  11.325  0.7764  3.1336  0.8228
  530SOL     OW 8450  11.230   7.755  10.456  0.2349 -0.0009 -0.1054
  530SOL    HW1 8451  11.173   7.758  10.533  0.0821 -0.0150 -0.2172
  530SOL    HW2 8452  11.298   7.692  10.479  0.6533  0.6084  0.3368
  531SOL     OW 8453   8.817   4.879   8.298  0.1029 -0.4860  0.8406
  531SOL    HW1 8454   8.881   4.907   8.364  0.0461 -1.2732  1.2428
  531SOL    HW2 8455   8.732   4.895   8.338  0.0644 -0.5868  0.8004
  532SOL     OW 8456   8.572  11.286   4.982  0.1848 -0.1549 -0.5338
  532SOL    HW1 8457   8.530  11.214   4.935  0.2443 -0.7492  0.3067
  532SOL    HW2 8458   8.501  11.330   5.028  0.3136 -0.4619 -0.0296
  533SOL     OW 8459   7.331   9.494   4.321  0.4768  0.1685  0.0891
  533SOL    HW1 8460   7.402   9.557   4.311 -0.1215  0.7129 -0.9842
  533SOL    HW2 8461   7.355   9.441   4.397  1.8186  0.6033 -0.0176
  534SOL     OW 8462   3.321  12.170   2.101 -0.3741 -0.3143  0.3001
  534SOL    HW1 8463   3.331  12.079   2.129 -1.3494  0.0422  1.9502
  534SOL    HW2 8464   3.407  12.195   2.067  1.2429 -0.5867  3.7833
  535SOL     OW 8465  12.431   1.841   8.839  0.1880 -0.2163  0.5971
  535SOL    HW1 8466  12.384   1.768   8.879  0.0080  0.4801  1.7143
  535SOL    HW2 8467  12.364   1.888   8.789  0.6104 -1.6556 -1.4557
  536SOL     OW 8468   6.897  11.167   5.297 -0.1276 -0.4530  0.5983
  536SOL    HW1 8469   6.861  11.081   5.274  0.9351 -1.2261  1.7090
  536SOL    HW2 8470   6.859  11.187   5.382  0.7405 -0.5027  1.0078
  537SOL     OW 8471   4.015  10.377   1.949 -0.2565  0.0145  0.3250
  537SOL    HW1 8472   4.089  10.328   1.985 -0.3243  0.3554  0.9449
  537SOL    HW2 8473   4.053  10.459   1.919  0.0267 -0.7921 -1.6235
  538SOL     OW 8474  11.760   0.815   2.928  0.1479  0.3488 -0.1855
  538SOL    HW1 8475  11.854   0.820   2.910  0.2248 -0.9513 -0.2262
  538SOL    HW2 8476  11.720   0.799   2.843  0.1315 -1.5190  0.1226
  539SOL     OW 8477   2.337   1.890  10.849 -0.4632  0.5437 -0.1999
  539SOL    HW1 8478   2.250   1.878  10.812  0.1523 -0.5187 -1.4058
  539SOL    HW2 8479   2.395   1.899  10.773  0.5872  0.3506  0.5452
  540SOL     OW 8480   9.518   3.441  10.853 -0.6921  0.8575  0.2686
  540SOL    HW1 8481   9.600   3.433  10.804 -1.4411 -0.7982 -0.8458
  540SOL    HW2 8482   9.534   3.393  10.934 -0.6736  0.1397 -0.1477
  541SOL     OW 8483   4.231  10.659   4.892  0.4055 -0.5355  0.3268
  541SOL    HW1 8484   4.279  10.664   4.975 -0.6087  1.6071  0.8677
  541SOL    HW2 8485   4.154  10.606   4.913  0.8288 -1.1412  0.3729
  542SOL     OW 8486   1.639   6.424   7.853 -0.1108  0.0740 -0.0493
  542SOL    HW1 8487   1.561   6.383   7.890  1.0770 -2.5250 -0.2702
  542SOL    HW2 8488   1.667   6.365   7.784  2.0631  0.9461  0.0272
  543SOL     OW 8489   0.173   6.737   4.073 -0.4080  0.0293  0.3943
  543SOL    HW1 8490   0.267   6.748   4.084 -0.5324  1.0410  0.5703
  543SOL    HW2 8491   0.164   6.690   3.990  0.2463  0.0611  0.2999
  544SOL     OW 8492  10.398  11.892   0.965 -0.2174 -0.5356 -0.2182
  544SOL    HW1 8493  10.348  11.968   0.934  1.3879  1.6804  2.2669
  544SOL    HW2 8494  10.419  11.843   0.885  1.3032  3.2729 -2.4230
  545SOL     OW 8495  11.055   7.831   4.521 -0.4143  0.2734 -0.0326
  545SOL    HW1 8496  11.150   7.815   4.519 -0.1687  1.5517  0.3374
  545SOL    HW2 8497  11.047   7.921   4.553 -1.8106 -0.2866  1.2871
  546SOL     OW 8498   1.302   3.943   9.618  0.2596  0.4571 -0.4322
  546SOL    HW1 8499   1.350   3.912   9.696 -1.0403  1.0868  0.6610
  546SOL    HW2 8500   1.301   3.868   9.559 -1.3894 -1.1075  1.4634
  547SOL     OW 8501   6.885  10.363   9.082 -0.4113  0.0475 -0.0065
  547SOL    HW1 8502   6.818  10.430   9.095  1.8374  2.3143  0.6499
  547SOL    HW2 8503   6.914  10.374   8.992 -0.1382 -0.1860  0.0511
  548SOL     OW 8504   6.828   8.338   9.935  0.3212 -0.6280  0.2067
  548SOL    HW1 8505   6.813   8.391  10.013  0.0763 -0.1778 -0.1365
  548SOL    HW2 8506   6.923   8.328   9.929  0.5415  1.4485 -0.7894
  549SOL     OW 8507  11.787   6.323   6.399  0.6058  0.3679 -0.4848
  549SOL    HW1 8508  11.720   6.391   6.403  0.2347 -0.0332  0.2018
  549SOL    HW2 8509  11.744   6.248   6.358  0.9459  0.4637 -1.0252
  550SOL     OW 8510   4.878   5.285   0.880  0.2050 -0.0691  0.5426
  550SOL    HW1 8511   4.799   5.286   0.825 -0.6094  0.9541  1.6737
  550SOL    HW2 8512   4.854   5.233   0.956  0.3509  0.8813  1.2533
  551SOL     OW 8513   1.729  10.140  10.169 -0.1941  0.1684 -0.3103
  551SOL    HW1 8514   1.762  10.064  10.121  1.6672  1.5483 -1.3909
  551SOL    HW2 8515   1.802  10.166  10.225 -1.1183  0.6415  0.6947
  552SOL     OW 8516   6.450   0.008   8.833  0.1939  0.4848  0.3414
  552SOL    HW1 8517   6.446   0.103   8.822 -1.2207  0.4682  0.6197
  552SOL    HW2 8518   6.523  -0.019   8.777  0.2797  1.6686 -0.1486
  553SOL     OW 8519   5.725  10.178  11.938  0.3900 -0.0318  0.1420
  553SOL    HW1 8520   5.716  10.273  11.925  0.2526 -0.2349 -1.4828
  553SOL    HW2 8521   5.816  10.166  11.965  0.4029  0.5641  0.3924
  554SOL     OW 8522   4.576   8.807   2.482 -0.1409  0.3739 -0.5618
  554SOL    HW1 8523   4.655   8.852   2.513  0.4532 -0.9389 -0.1043
  554SOL    HW2 8524   4.606   8.752   2.410 -0.1094 -1.9328  1.1085
  555SOL     OW 8525   7.341   3.651   4.803  0.3953 -0.1969 -0.1510
  555SOL    HW1 8526   7.387   3.653   4.719 -1.4377 -0.9398 -1.2541
  555SOL    HW2 8527   7.276   3.721   4.796  1.4625  1.0198  1.4699
  556SOL     OW 8528   6.262   6.056   6.988 -0.1374  0.4117  0.1744
  556SOL    HW1 8529   6.261   5.964   7.014 -0.0128 -0.1763 -1.7919
  556SOL    HW2 8530   6.183   6.068   6.936 -0.0357  1.3639  0.2078
  557SOL     OW 8531  12.414   7.142   4.861  0.3497 -0.1243  0.2455
  557SOL    HW1 8532  12.397   7.071   4.923 -0.8370  0.6878  0.8683
  557SOL    HW2 8533  12.453   7.098   4.785  2.4028 -1.0830  1.7401
  558SOL     OW 8534   6.302   4.092   6.932  0.0097  0.8138  0.1344
  558SOL    HW1 8535   6.318   4.186   6.924  1.4130  0.6262  0.4529
  558SOL    HW2 8536   6.388   4.054   6.947 -0.4922 -0.5761 -0.3389
  559SOL     OW 8537   3.008  11.042   2.108  0.0590  0.5223  0.4082
  559SOL    HW1 8538   3.066  11.064   2.180 -1.7178  1.4841  1.6090
  559SOL    HW2 8539   3.010  11.119   2.051 -0.0697  0.5793  0.4800
  560SOL     OW 8540  11.807  10.209   7.277 -0.1172 -0.2332  0.1212
  560SOL    HW1 8541  11.869  10.251   7.217 -0.0964 -3.5009 -2.4339
  560SOL    HW2 8542  11.863  10.167   7.343  0.0105  1.0290  0.8578
  561SOL     OW 8543   4.695  11.018   6.299  0.1454 -0.3725 -0.1206
  561SOL    HW1 8544   4.763  11.019   6.232  1.3144  1.7154  1.0121
  561SOL    HW2 8545   4.664  10.928   6.299  0.1067 -0.4990 -3.4082
  562SOL     OW 8546   6.023   3.235   3.050  0.2639  0.1531  0.0517
  562SOL    HW1 8547   5.988   3.169   3.110  0.3636  0.4470  0.4313
  562SOL    HW2 8548   6.117   3.218   3.047  0.4822  1.0775  1.1438
  563SOL     OW 8549   2.357   8.240   0.127 -0.6309 -0.2181 -0.0557
  563SOL    HW1 8550   2.295   8.175   0.158  0.6922 -1.2932  0.4526
  563SOL    HW2 8551   2.390   8.283   0.206  1.7927 -2.0747  0.0620
  564SOL     OW 8552   9.213   4.110   6.148  0.1526  0.3607 -0.0860
  564SOL    HW1 8553   9.232   4.017   6.158 -0.3894  0.1397 -0.9369
  564SOL    HW2 8554   9.293   4.154   6.174 -0.3043 -0.2226  2.5489
  565SOL     OW 8555   6.875   7.073   2.650 -0.1175  0.3894  0.4111
  565SOL    HW1 8556   6.864   7.019   2.571 -0.4547 -0.1124  0.7969
  565SOL    HW2 8557   6.804   7.046   2.707  0.1988  0.6701  0.9382
  566SOL     OW 8558  11.673   3.745   0.016 -0.0184 -0.6332 -0.1463
  566SOL    HW1 8559  11.600   3.721   0.073 -0.5675  1.8236  0.3212
  566SOL    HW2 8560  11.720   3.813   0.065 -0.2095  1.2282 -2.3769
  567SOL     OW 8561   7.400  10.099  10.954  0.4359  0.1766  0.1138
  567SOL    HW1 8562   7.441  10.137  11.031  0.7199  2.1993 -0.9527
  567SOL    HW2 8563   7.306  10.113  10.967  0.5406  1.4322 -0.3063
  568SOL     OW 8564   7.265   0.476   6.226 -0.0549  1.0207 -0.1834
  568SOL    HW1 8565   7.339   0.490   6.166  0.7098  0.0290  0.4981
  568SOL    HW2 8566   7.222   0.397   6.193  1.0217 -0.1840  1.1542
  569SOL     OW 8567   0.282  10.874  11.209 -0.2747  0.2819 -0.2927
  569SOL    HW1 8568   0.218  10.940  11.234  0.2714  0.4928  0.5752
  569SOL    HW2 8569   0.315  10.838  11.292  2.4722  1.8666 -0.5734
  570SOL     OW 8570   5.682   6.223   3.478  0.4410  0.4145 -0.5856
  570SOL    HW1 8571   5.709   6.146   3.429 -2.1299 -0.1021 -1.3192
  570SOL    HW2 8572   5.764   6.267   3.500  1.8393 -0.9861 -2.6404
  571SOL     OW 8573   5.125   3.579   1.453  0.0305  0.1133  0.4048
  571SOL    HW1 8574   5.191   3.638   1.416  0.1024  0.5595  1.2159
  571SOL    HW2 8575   5.131   3.593   1.548 -0.4296 -0.6994  0.5600
  572SOL     OW 8576  12.028   4.580   1.897  0.1836  0.3797 -0.8530
  572SOL    HW1 8577  12.068   4.542   1.819  2.6094 -1.6302  1.1782
  572SOL    HW2 8578  12.102   4.600   1.955 -1.4903  1.8202  0.9263
  573SOL     OW 8579  11.269  11.209   5.507 -0.2417 -0.2298 -0.2958
  573SOL    HW1 8580  11.186  11.163   5.515  0.3169 -0.9502  2.4848
  573SOL    HW2 8581  11.260  11.285   5.565  1.5441 -1.2754  1.5114
  574SOL     OW 8582   5.349   1.225  11.108 -0.7051 -0.7531 -0.3255
  574SOL    HW1 8583   5.266   1.189  11.138 -0.5112  0.1901  1.4622
  574SOL    HW2 8584   5.325   1.302  11.057 -0.9529 -1.1803 -0.8717
  575SOL     OW 8585   4.941  10.539  10.891  0.0308  0.3422  0.0821
  575SOL    HW1 8586   4.956  10.560  10.984  1.3731  0.0075 -0.0437
  575SOL    HW2 8587   5.010  10.586  10.845 -0.2483 -0.0117 -0.7021
  576SOL     OW 8588   1.466   7.482   9.950  0.1334  0.8105  0.2030
  576SOL    HW1 8589   1.494   7.482   9.858 -1.6281 -3.0539 -0.5270
  576SOL    HW2 8590   1.548   7.481   9.999  1.1820  0.0813 -1.4548
  577SOL     OW 8591  10.348  10.973   5.435 -0.0137  0.4502 -0.1575
  577SOL    HW1 8592  10.269  10.919   5.437  0.4076 -0.1855  1.2813
  577SOL    HW2 8593  10.359  10.997   5.343 -1.6565  0.2412 -0.4398
  578SOL     OW 8594   5.154   8.229   0.834 -0.4720 -0.0748  0.1220
  578SOL    HW1 8595   5.203   8.256   0.756 -0.9997  0.5767  0.0055
  578SOL    HW2 8596   5.073   8.191   0.800  0.4957 -2.4628  0.2514
  579SOL     OW 8597   7.851   8.352  10.771  0.0588  0.2880  0.0913
  579SOL    HW1 8598   7.756   8.353  10.774  0.0008 -1.7806  0.1607
  579SOL    HW2 8599   7.873   8.389  10.685 -0.8174  0.4415 -0.0711
  580SOL     OW 8600   1.842   8.120   3.461  0.1922  0.0049  0.2019
  580SOL    HW1 8601   1.801   8.033   3.457 -2.5198  1.1800  0.7132
  580SOL    HW2 8602   1.917   8.107   3.520 -1.2947 -1.6030  1.9024
  581SOL     OW 8603   7.043   0.314  10.294 -0.1687  0.1292 -0.0314
  581SOL    HW1 8604   6.957   0.303  10.252  0.6239  1.9050 -2.3339
  581SOL    HW2 8605   7.091   0.372  10.235  2.6253 -0.7550  1.2040
  582SOL     OW 8606   5.797   5.625   2.029 -0.1793  0.1044  0.3054
  582SOL    HW1 8607   5.822   5.710   2.067 -1.0122  0.0963  0.8936
  582SOL    HW2 8608   5.769   5.573   2.104 -2.2479  0.2132 -0.3297
  583SOL     OW 8609   2.224   2.138   1.388 -0.2668  0.4787 -0.0617
  583SOL    HW1 8610   2.187   2.074   1.328 -1.8244  0.1100  1.2207
  583SOL    HW2 8611   2.152   2.196   1.411  0.1248  0.3274  1.7750
  584SOL     OW 8612   5.415   8.509   7.878 -0.5967  0.0799  0.3008
  584SOL    HW1 8613   5.342   8.469   7.925  0.4811 -1.6863  0.5335
  584SOL    HW2 8614   5.410   8.602   7.902 -0.3688 -0.6295  3.6604
  585SOL     OW 8615   7.790   1.972   6.628  0.3949  0.0586 -0.1416
  585SOL    HW1 8616   7.779   2.063   6.601  0.5083 -0.0743 -0.6558
  585SOL    HW2 8617   7.812   1.926   6.547  2.7368 -0.0305  0.4739
  586SOL     OW 8618   6.410   7.109   2.014  0.0601  1.0160  0.2695
  586SOL    HW1 8619   6.330   7.149   2.047 -0.4095 -0.2588  0.7513
  586SOL    HW2 8620   6.480   7.150   2.064 -0.2979  1.9573  0.0300
  587SOL     OW 8621  11.341   8.447   3.531  0.4485  0.0404 -0.8071
  587SOL    HW1 8622  11.373   8.446   3.621  0.4353 -0.3608 -0.8032
  587SOL    HW2 8623  11.336   8.539   3.507  0.0756  0.1598 -0.2624
  588SOL     OW 8624   2.462   7.191   3.770  0.5648  0.0695 -0.0157
  588SOL    HW1 8625   2.435   7.137   3.844  0.5852  0.1559  0.0546
  588SOL    HW2 8626   2.553   7.212   3.787  0.5517  0.1415 -0.0336
  589SOL     OW 8627   0.800  10.891   3.108  0.1196  0.1691 -0.2637
  589SOL    HW1 8628   0.788  10.938   3.025 -0.8251 -0.6870 -0.6471
  589SOL    HW2 8629   0.894  10.879   3.116  0.2995  1.3031 -0.6180
  590SOL     OW 8630  12.272   6.414   6.141 -0.3114  0.5159 -0.5176
  590SOL    HW1 8631  12.213   6.354   6.186 -0.0618  0.1840 -0.6255
  590SOL    HW2 8632  12.292   6.370   6.058 -1.7995  1.6907 -1.5701
  591SOL     OW 8633   7.421   5.511  11.054  0.2689  0.0045 -0.0659
  591SOL    HW1 8634   7.377   5.426  11.055 -0.3992  0.3377 -0.2457
  591SOL    HW2 8635   7.367   5.566  11.112  0.6541  0.3219 -0.0090
  592SOL     OW 8636  11.481   0.961   4.808  0.0497  0.5573  0.2392
  592SOL    HW1 8637  11.509   0.931   4.722  1.5901 -2.9483  1.7796
  592SOL    HW2 8638  11.390   0.932   4.816  0.2238 -0.0172  0.1443
  593SOL     OW 8639   6.650   0.997   8.829 -0.0998  0.0125 -0.0866
  593SOL    HW1 8640   6.564   0.972   8.796  0.5101 -1.3288 -0.7535
  593SOL    HW2 8641   6.709   0.930   8.794  1.6623  2.3435 -1.9163
  594SOL     OW 8642   3.251   2.485   0.540 -0.2266  0.0240  0.6121
  594SOL    HW1 8643   3.295   2.511   0.459 -1.1447  1.5218  0.5630
  594SOL    HW2 8644   3.241   2.390   0.533  1.6904 -0.1706 -0.0090
  595SOL     OW 8645  12.178   6.880   9.644 -0.4373 -0.1841  0.1889
  595SOL    HW1 8646  12.271   6.861   9.633 -0.3426  0.2456  0.2046
  595SOL    HW2 8647  12.177   6.956   9.704 -0.8873 -1.9048  2.5013
  596SOL     OW 8648   0.253   4.328   2.138 -0.0943 -0.0856 -0.0189
  596SOL    HW1 8649   0.278   4.419   2.151  0.4585 -0.3734  0.9888
  596SOL    HW2 8650   0.331   4.277   2.159 -0.0053 -0.7458 -1.7931
  597SOL     OW 8651   6.517   4.961   2.558 -0.0120  0.3675 -0.1205
  597SOL    HW1 8652   6.539   4.889   2.499  0.1023  0.0893  0.2573
  597SOL    HW2 8653   6.528   4.924   2.645 -1.0951  0.4932  0.0833
  598SOL     OW 8654   2.859   1.410   0.006  0.0908 -0.3834 -0.6720
  598SOL    HW1 8655   2.858   1.454  -0.079 -0.5562 -0.8219 -0.8965
  598SOL    HW2 8656   2.887   1.321  -0.013  2.7363  0.2115 -0.0500
  599SOL     OW 8657   3.403   2.939   0.685  0.3989 -0.6811 -0.5952
  599SOL    HW1 8658   3.453   2.918   0.606  0.3113 -0.2124 -0.7745
  599SOL    HW2 8659   3.411   2.860   0.739  2.0365 -0.3178 -0.2534
  600SOL     OW 8660   4.422   2.822   5.522  0.1885 -0.0886  0.0631
  600SOL    HW1 8661   4.377   2.779   5.449 -1.5824  0.9472  0.4760
  600SOL    HW2 8662   4.500   2.860   5.482 -0.5279  0.1001 -1.2305
  601SOL     OW 8663   4.170   3.528   7.752  0.0759 -0.1712  0.2708
  601SOL    HW1 8664   4.210   3.535   7.839  0.1285 -1.1261  0.3274
  601SOL    HW2 8665   4.244   3.524   7.692  0.0485 -0.5175  0.2611
  602SOL     OW 8666   3.728   6.848   1.121 -0.7801  0.0887 -0.6434
  602SOL    HW1 8667   3.640   6.886   1.128 -1.0529 -0.3097 -1.6520
  602SOL    HW2 8668   3.747   6.849   1.027 -0.3906 -1.3256 -0.6033
  603SOL     OW 8669   6.534  11.700   8.977  0.3754  0.4047  0.4238
  603SOL    HW1 8670   6.468  11.768   8.964  0.6364  0.4361 -0.9743
  603SOL    HW2 8671   6.591  11.707   8.900  0.8339 -0.9121  0.6113
  604SOL     OW 8672   8.850   7.232  11.450  0.4418 -0.3766 -0.7296
  604SOL    HW1 8673   8.794   7.301  11.483  0.6251  0.1042 -1.4107
  604SOL    HW2 8674   8.790   7.169  11.410  0.1205 -1.4185  1.2084
  605SOL     OW 8675   4.439   0.753   3.123  0.4545 -0.0696 -0.0233
  605SOL    HW1 8676   4.445   0.842   3.158  0.5310 -0.7296  1.7161
  605SOL    HW2 8677   4.439   0.697   3.200 -0.9565 -1.5325 -1.0317
  606SOL     OW 8678   4.351  11.944   5.794 -0.2323 -0.3248 -0.0107
  606SOL    HW1 8679   4.404  11.875   5.757  0.8863  0.8330 -0.6366
  606SOL    HW2 8680   4.392  11.964   5.878 -0.6825 -0.5699  0.2695
  607SOL     OW 8681  10.357   4.730   2.901  0.7073 -0.0709  0.4712
  607SOL    HW1 8682  10.332   4.819   2.879  2.1196  0.8743  2.3699
  607SOL    HW2 8683  10.435   4.713   2.847  0.2048 -0.3242 -0.1831
  608SOL     OW 8684   6.047   1.002   8.691 -0.1134 -0.9546  0.3597
  608SOL    HW1 8685   5.962   0.969   8.720 -1.8444  2.2300 -0.5810
  608SOL    HW2 8686   6.055   0.972   8.601 -0.9026 -0.2416  0.0352
  609SOL     OW 8687   2.137  10.018   6.330 -0.2105  0.8607 -0.0030
  609SOL    HW1 8688   2.048   9.988   6.351  0.2787 -1.3126 -0.8136
  609SOL    HW2 8689   2.159  10.077   6.402 -0.4651 -2.4382  3.0814
  610SOL     OW 8690   1.593   5.117   2.527  0.2537  0.4481 -0.3148
  610SOL    HW1 8691   1.524   5.140   2.590 -1.7026  0.2292 -2.2562
  610SOL    HW2 8692   1.668   5.169   2.554 -1.5501  2.9632  0.2333
  611SOL     OW 8693   5.896   8.080  10.837 -0.1261 -0.4833 -0.1660
  611SOL    HW1 8694   5.910   8.140  10.911  0.2874  0.7316 -1.2067
  611SOL    HW2 8695   5.823   8.118  10.789 -0.0502 -0.9912 -0.6889
  612SOL     OW 8696   0.711  11.171   6.617  0.4534 -0.4743 -0.1679
  612SOL    HW1 8697   0.671  11.086   6.637  0.0660 -0.0656  0.8614
  612SOL    HW2 8698   0.697  11.223   6.696 -0.0170  0.8137 -1.0611
  613SOL     OW 8699  11.846   8.152  11.039  0.3460 -0.2171 -0.2735
  613SOL    HW1 8700  11.769   8.210  11.035  0.7847  0.5416  1.3222
  613SOL    HW2 8701  11.843   8.116  11.128  0.5461 -2.0418 -0.9775
  614SOL     OW 8702   4.614  11.314   8.233  0.0144 -0.0619  0.1904
  614SOL    HW1 8703   4.689  11.359   8.194  0.6166 -0.7666  0.5213
  614SOL    HW2 8704   4.648  11.277   8.315 -1.0013  0.6247  0.9431
  615SOL     OW 8705   0.197  10.887   6.350 -0.1302 -0.2419 -0.1847
  615SOL    HW1 8706   0.123  10.840   6.388  1.2172 -1.4167  1.0897
  615SOL    HW2 8707   0.202  10.855   6.260 -2.3398  1.3444 -0.9794
  616SOL     OW 8708   9.537   5.791   0.082 -0.3376  0.5009 -1.0395
  616SOL    HW1 8709   9.446   5.796   0.056 -0.7783 -1.4882 -0.0694
  616SOL    HW2 8710   9.582   5.752   0.007 -1.0488 -2.2279 -0.1781
  617SOL     OW 8711  10.371  11.436  11.084 -0.1737 -0.0041  0.4867
  617SOL    HW1 8712  10.312  11.512  11.088 -1.2306 -0.6877 -0.9594
  617SOL    HW2 8713  10.332  11.373  11.144  0.0495  0.1616  0.8092
  618SOL     OW 8714   6.306   9.823   2.885  0.1760  0.3907  0.1111
  618SOL    HW1 8715   6.307   9.788   2.796 -2.0039  1.1283 -0.2668
  618SOL    HW2 8716   6.219   9.861   2.895  0.1005 -0.2687  2.8184
  619SOL     OW 8717  10.872   3.537   2.999 -0.4298  0.2864 -0.1100
  619SOL    HW1 8718  10.820   3.457   3.005  0.3713 -0.1509  1.2772
  619SOL    HW2 8719  10.953   3.511   2.955 -0.8254  0.7028 -1.1253
  620SOL     OW 8720  11.200   0.816   1.701  0.1726 -0.3941  0.6275
  620SOL    HW1 8721  11.214   0.892   1.758  0.0857 -1.1515  1.6933
  620SOL    HW2 8722  11.148   0.756   1.755 -1.9552 -0.1840 -1.0528
  621SOL     OW 8723   8.415   7.783   9.143  0.1910  0.0117 -0.4129
  621SOL    HW1 8724   8.400   7.789   9.237  1.0549  0.3494 -0.2882
  621SOL    HW2 8725   8.378   7.698   9.119 -1.2990  0.5177 -0.0332
  622SOL     OW 8726  11.254   9.163   7.572 -0.2308  0.2110  0.0886
  622SOL    HW1 8727  11.219   9.090   7.522 -1.6412  0.6905  0.3183
  622SOL    HW2 8728  11.214   9.155   7.659 -0.4427  1.2598  0.1059
  623SOL     OW 8729   5.805   7.106  12.187  0.2352 -0.0198 -0.1010
  623SOL    HW1 8730   5.787   7.176  12.250  0.3585 -0.2368  0.1781
  623SOL    HW2 8731   5.800   7.025  12.238  0.8493 -0.1639 -0.2555
  624SOL     OW 8732   6.517   1.025   3.141  0.2569 -0.9050  0.6305
  624SOL    HW1 8733   6.443   1.035   3.201 -0.2488 -0.2517 -0.0857
  624SOL    HW2 8734   6.486   0.963   3.075  0.1394 -0.2359  0.0383
  625SOL     OW 8735   2.486   7.541   2.920 -0.0087  0.1801  0.2364
  625SOL    HW1 8736   2.393   7.536   2.942 -0.6310  0.1284 -2.1200
  625SOL    HW2 8737   2.495   7.484   2.844  2.1951 -0.6630  1.0603
  626SOL     OW 8738   0.798   7.594   3.064 -0.3142  0.1076  0.2025
  626SOL    HW1 8739   0.802   7.661   2.995 -0.7158  0.8679  0.9046
  626SOL    HW2 8740   0.814   7.642   3.145 -0.4636 -0.6792  0.7062
  627SOL     OW 8741   3.892   0.098   2.159 -0.2232  0.2222 -0.2867
  627SOL    HW1 8742   3.980   0.064   2.142  0.2621  0.5063  1.5237
  627SOL    HW2 8743   3.896   0.189   2.130 -0.4511 -0.1968 -1.7474
  628SOL     OW 8744   8.285   8.977   0.278  0.0146 -0.2673 -0.5400
  628SOL    HW1 8745   8.222   9.030   0.327 -0.0803 -1.1138  0.2747
  628SOL    HW2 8746   8.370   8.999   0.316 -0.1148 -1.3188  0.3892
  629SOL     OW 8747   4.963   4.356  12.354 -0.2819 -0.0287  0.2414
  629SOL    HW1 8748   4.912   4.435  12.372  0.0120 -0.0128  1.0687
  629SOL    HW2 8749   4.899   4.285  12.354 -0.5880  0.2312 -0.7736
  630SOL     OW 8750   8.413   5.964   2.691 -0.2094 -0.9701 -0.5257
  630SOL    HW1 8751   8.422   5.968   2.596 -0.7753 -2.1024 -0.6404
  630SOL    HW2 8752   8.342   5.902   2.706  1.3392 -2.5490  0.6980
  631SOL     OW 8753  10.281   8.410   2.080 -0.2393 -0.1702 -0.4367
  631SOL    HW1 8754  10.316   8.365   2.156 -0.3321 -0.9071 -0.8249
  631SOL    HW2 8755  10.290   8.503   2.101  1.8866 -0.3284 -0.5033
  632SOL     OW 8756   8.450   9.470   1.647  0.3476 -0.3917 -0.0864
  632SOL    HW1 8757   8.403   9.422   1.715  1.0902 -1.2924 -0.1949
  632SOL    HW2 8758   8.389   9.540   1.621 -1.4440 -2.1903 -1.0450
  633SOL     OW 8759   7.537  11.638   1.920 -0.2884  0.2699 -0.4801
  633SOL    HW1 8760   7.602  11.635   1.991 -0.5094 -0.7636 -0.3114
  633SOL    HW2 8761   7.453  11.648   1.964 -0.2999  1.0880 -0.6749
  634SOL     OW 8762   8.345   5.224   2.592  0.4452 -0.1712  0.0538
  634SOL    HW1 8763   8.422   5.176   2.560  0.8020 -0.0854  0.7649
  634SOL    HW2 8764   8.331   5.190   2.680 -0.5166 -0.3945 -0.1753
  635SOL     OW 8765   4.611   9.322   1.286 -0.2723 -0.1985 -0.2811
  635SOL    HW1 8766   4.586   9.350   1.374 -0.6104  1.3765 -0.8494
  635SOL    HW2 8767   4.579   9.392   1.228  0.6213 -0.8217 -1.5760
  636SOL     OW 8768   9.831   1.199   5.683  0.0238  0.0721 -0.0936
  636SOL    HW1 8769   9.746   1.237   5.705  0.1295  0.3364 -0.1448
  636SOL    HW2 8770   9.821   1.106   5.702 -0.1071  0.1880  0.4224
  637SOL     OW 8771   7.105   8.437   9.883  0.1734  0.1143 -0.4767
  637SOL    HW1 8772   7.175   8.436   9.948  0.2406  0.2411 -0.5442
  637SOL    HW2 8773   7.141   8.389   9.808 -0.6077 -1.7225  0.2798
  638SOL     OW 8774   3.235   3.512   0.740 -0.7079 -0.2097 -0.6612
  638SOL    HW1 8775   3.242   3.582   0.805  2.0761  0.8947 -1.9510
  638SOL    HW2 8776   3.288   3.544   0.666 -2.1342 -2.2508 -2.6747
  639SOL     OW 8777   1.771   4.233   2.560 -0.5230 -0.1380  0.2361
  639SOL    HW1 8778   1.738   4.316   2.595  1.0572  1.7768 -2.4307
  639SOL    HW2 8779   1.831   4.200   2.627  0.1166  1.7666  0.6450
  640SOL     OW 8780  11.549   2.145   8.703  0.1122  0.6664 -0.6766
  640SOL    HW1 8781  11.484   2.183   8.763  0.4019  1.1647 -0.6753
  640SOL    HW2 8782  11.506   2.148   8.617  0.2736  1.3558 -0.7398
  641SOL     OW 8783  10.510   3.098   5.029  0.0553  0.0426 -0.4575
  641SOL    HW1 8784  10.524   3.152   4.951  0.3669  1.5450  0.5907
  641SOL    HW2 8785  10.505   3.009   4.996 -1.9991  0.7970 -2.4642
  642SOL     OW 8786   2.412   4.110  11.383  0.5459  0.3475 -0.1000
  642SOL    HW1 8787   2.451   4.055  11.452  1.3717 -0.5337 -1.2353
  642SOL    HW2 8788   2.457   4.194  11.392  1.3216 -0.0485 -0.1325
  643SOL     OW 8789   4.907   9.629   0.418  0.1097 -0.1434 -0.1936
  643SOL    HW1 8790   5.002   9.630   0.411  0.1672 -0.4337  0.5119
  643SOL    HW2 8791   4.881   9.722   0.414  0.5346  0.0472  1.0442
  644SOL     OW 8792   0.729   2.164   0.808 -0.0199 -0.0690 -0.4857
  644SOL    HW1 8793   0.658   2.132   0.753  0.8551 -1.1776 -1.0229
  644SOL    HW2 8794   0.686   2.194   0.888 -1.1374 -0.0825 -1.0582
  645SOL     OW 8795   5.188   6.778   6.535 -0.0468  0.5755 -0.0056
  645SOL    HW1 8796   5.129   6.717   6.578 -0.9242  1.0200 -0.5631
  645SOL    HW2 8797   5.264   6.725   6.509 -0.7426 -0.2530 -0.3742
  646SOL     OW 8798   6.456   8.210   9.683 -1.1966 -0.0743 -0.0848
  646SOL    HW1 8799   6.424   8.219   9.594  0.1819 -0.1729 -0.6207
  646SOL    HW2 8800   6.542   8.253   9.682 -2.3699  2.6231  1.9583
  647SOL     OW 8801   8.481  11.323   5.283 -0.1252 -0.0835  0.1932
  647SOL    HW1 8802   8.397  11.319   5.329 -2.1804 -1.9343 -3.3058
  647SOL    HW2 8803   8.465  11.382   5.209  1.3133 -1.2567 -1.1238
  648SOL     OW 8804   5.408   1.503   5.656 -0.0923  0.0038  0.1592
  648SOL    HW1 8805   5.490   1.548   5.675 -0.0368 -0.8145  2.0056
  648SOL    HW2 8806   5.358   1.509   5.738 -1.2135 -0.9172 -0.4333
  649SOL     OW 8807   8.874   9.083   9.729 -0.1191  0.5339 -0.0086
  649SOL    HW1 8808   8.823   9.055   9.805 -0.9423  0.6701 -0.4950
  649SOL    HW2 8809   8.812   9.131   9.675  0.8160  1.7125 -0.0747
  650SOL     OW 8810   9.364   4.419   1.491  0.2026 -0.0094 -0.0521
  650SOL    HW1 8811   9.353   4.501   1.539  1.5790 -0.6495  1.4405
  650SOL    HW2 8812   9.325   4.353   1.548 -0.1792 -0.5186 -0.8876
  651SOL     OW 8813  12.155   8.815   3.333 -0.2958 -0.4587 -0.0398
  651SOL    HW1 8814  12.077   8.833   3.385  0.3989  1.1993  0.5011
  651SOL    HW2 8815  12.211   8.764   3.391  0.7367  1.9034  1.1820
  652SOL     OW 8816   4.381   7.939   5.245  0.6780  0.6771 -0.6261
  652SOL    HW1 8817   4.346   8.028   5.241 -1.2260 -0.0126 -0.4965
  652SOL    HW2 8818   4.450   7.942   5.312 -1.5082  1.4166  1.7539
  653SOL     OW 8819  11.318   2.573   1.113 -0.8175 -0.0433  0.1907
  653SOL    HW1 8820  11.261   2.525   1.172 -0.1088  1.0325  1.8435
  653SOL    HW2 8821  11.290   2.664   1.122  0.1352  0.2998 -0.1288
  654SOL     OW 8822   8.964   9.891   2.517 -0.2579 -0.0986 -0.4438
  654SOL    HW1 8823   8.882   9.894   2.568 -0.6485 -0.6013 -1.0287
  654SOL    HW2 8824   8.944   9.834   2.443  0.3968  0.3961 -1.0104
  655SOL     OW 8825   8.782   4.142   7.647  0.0481  0.3875 -0.8626
  655SOL    HW1 8826   8.776   4.229   7.687 -1.7581  0.5456 -1.3614
  655SOL    HW2 8827   8.791   4.159   7.554 -1.0028  0.0685 -1.0366
  656SOL     OW 8828  10.751   2.219   0.897  0.6910  0.1571  0.4911
  656SOL    HW1 8829  10.679   2.279   0.876  0.2680 -0.6025 -0.2879
  656SOL    HW2 8830  10.723   2.135   0.861  1.8252 -0.2322  0.4950
  657SOL     OW 8831   2.618   5.171   9.432 -0.0174 -0.9909 -0.5158
  657SOL    HW1 8832   2.704   5.134   9.412  0.0229 -1.3326  0.2427
  657SOL    HW2 8833   2.582   5.196   9.347  1.0306 -0.3919 -0.8051
  658SOL     OW 8834   9.301   6.982   0.824  0.1899  0.1180  0.6440
  658SOL    HW1 8835   9.206   6.975   0.823  0.2357 -1.0167  1.4214
  658SOL    HW2 8836   9.319   7.073   0.804 -1.0871  0.4832  1.0675
  659SOL     OW 8837  10.160   3.901   8.231 -0.1210  0.1793  0.6638
  659SOL    HW1 8838  10.088   3.878   8.172 -1.0732  0.0228  1.8643
  659SOL    HW2 8839  10.229   3.932   8.172 -1.9066  2.3877 -0.4157
  660SOL     OW 8840   1.825   7.640  11.683 -0.5047  0.4967  0.0913
  660SOL    HW1 8841   1.733   7.614  11.691 -0.2112 -0.2459  1.1203
  660SOL    HW2 8842   1.871   7.586  11.746  0.6949  0.6648 -0.6145
  661SOL     OW 8843   7.760   6.538  10.325 -0.3072  0.3605 -0.2305
  661SOL    HW1 8844   7.791   6.610  10.381  1.1676 -0.8395  0.5603
  661SOL    HW2 8845   7.788   6.562  10.237  2.3559 -0.3150  0.3476
  662SOL     OW 8846   9.353   1.251   0.630 -0.4734  0.3883  0.3409
  662SOL    HW1 8847   9.301   1.201   0.567  0.7557 -0.8499  0.2685
  662SOL    HW2 8848   9.426   1.286   0.578  0.0414  0.1297  0.8751
  663SOL     OW 8849   3.190   8.872   6.675 -0.0534  0.3279  0.6103
  663SOL    HW1 8850   3.148   8.934   6.616  0.7317  2.1930  1.9025
  663SOL    HW2 8851   3.271   8.846   6.629 -1.0564 -0.9050 -0.5441
  664SOL     OW 8852   2.600   0.185   0.919  0.1662 -0.5087 -0.3638
  664SOL    HW1 8853   2.627   0.230   0.839 -1.8899  1.7852  0.1286
  664SOL    HW2 8854   2.509   0.159   0.902 -0.1452 -0.3941  1.0403
  665SOL     OW 8855  12.358  11.690  10.706  0.1708 -0.4670 -0.1587
  665SOL    HW1 8856  12.367  11.781  10.736  0.0322 -0.1101 -1.1406
  665SOL    HW2 8857  12.271  11.663  10.735  0.5416 -0.5779  0.8704
  666SOL     OW 8858   5.929   8.767   1.530  1.2139  0.1880 -0.8724
  666SOL    HW1 8859   5.851   8.750   1.476  0.2456  2.4231 -0.3176
  666SOL    HW2 8860   5.894   8.789   1.616  2.5773 -0.2895 -0.1710
  667SOL     OW 8861   3.731   3.753  10.252 -0.0903 -0.3881  0.0059
  667SOL    HW1 8862   3.728   3.660  10.228  0.1266 -0.7685  1.4102
  667SOL    HW2 8863   3.702   3.756  10.343  1.5639  0.7083  0.5427
  668SOL     OW 8864   7.321   3.032   4.870 -0.3706  0.4320 -0.0400
  668SOL    HW1 8865   7.265   3.064   4.799 -0.1962  0.8490  0.0063
  668SOL    HW2 8866   7.408   3.028   4.831 -0.1036  1.5507  0.3980
  669SOL     OW 8867   2.390   3.440   3.076  0.3186 -0.0412  0.2209
  669SOL    HW1 8868   2.376   3.433   3.171 -1.1042 -1.0046 -0.0211
  669SOL    HW2 8869   2.395   3.350   3.046 -0.2490  0.2386 -0.7479
  670SOL     OW 8870  10.224   2.400   2.116  0.6582  0.3986  0.0009
  670SOL    HW1 8871  10.203   2.319   2.070  3.0254  0.0787 -0.6408
  670SOL    HW2 8872  10.215   2.469   2.050  0.6867  0.3912 -0.0105
  671SOL     OW 8873   4.949  11.521  10.505 -0.2258  0.1371  0.0931
  671SOL    HW1 8874   4.898  11.496  10.582 -0.7034  1.7596  0.3438
  671SOL    HW2 8875   5.039  11.496  10.527 -0.6365 -1.1482  0.3773
  672SOL     OW 8876   7.814   6.704   6.288 -0.2773  0.3608 -0.2237
  672SOL    HW1 8877   7.898   6.721   6.331  0.4360 -0.1992 -1.3396
  672SOL    HW2 8878   7.795   6.612   6.309 -1.0023  0.7040  0.6555
  673SOL     OW 8879   1.751   9.888   4.291  0.5169  0.4368 -0.8729
  673SOL    HW1 8880   1.655   9.890   4.296  0.5584  1.9213 -0.0379
  673SOL    HW2 8881   1.780   9.891   4.382  1.3564  0.6668 -1.1432
  674SOL     OW 8882  11.223   4.334   3.252 -0.4703 -0.4269 -0.0922
  674SOL    HW1 8883  11.213   4.415   3.302 -0.7641 -0.8976  0.6309
  674SOL    HW2 8884  11.314   4.336   3.221  0.2574 -0.8872  1.8602
  675SOL     OW 8885  10.480  12.073   5.606 -0.3670 -0.3027  0.5170
  675SOL    HW1 8886  10.525  12.041   5.685 -0.8311  2.2780  1.9338
  675SOL    HW2 8887  10.550  12.084   5.542  0.0810 -2.0821  0.6591
  676SOL     OW 8888   0.045   1.865   5.713 -0.3323  0.2439  0.5262
  676SOL    HW1 8889   0.109   1.936   5.714 -0.3955  0.2967  0.8232
  676SOL    HW2 8890   0.098   1.785   5.712 -0.2583  0.2980 -0.3852
  677SOL     OW 8891   1.240   0.219  10.167  0.1135  0.2369 -1.0917
  677SOL    HW1 8892   1.295   0.162  10.221  1.5929  1.6378 -1.0120
  677SOL    HW2 8893   1.301   0.259  10.104 -1.0493  0.8981 -1.8466
  678SOL     OW 8894   4.609   2.578   0.224  0.0226  0.0220 -0.3797
  678SOL    HW1 8895   4.652   2.535   0.151  0.0163 -0.4154 -0.1308
  678SOL    HW2 8896   4.554   2.510   0.263 -2.1647  0.9535 -1.6502
  679SOL     OW 8897  11.608   3.062   1.522  0.1297 -0.0274 -0.3459
  679SOL    HW1 8898  11.682   3.053   1.461  0.4107 -2.1974  0.2553
  679SOL    HW2 8899  11.640   3.024   1.604 -1.6688 -1.1226 -0.1035
  680SOL     OW 8900   6.899   9.527  10.588 -0.4386  0.1746  0.2852
  680SOL    HW1 8901   6.912   9.456  10.525 -0.2697 -0.0989  0.6240
  680SOL    HW2 8902   6.988   9.555  10.612 -0.4770 -0.3685  1.1193
  681SOL     OW 8903  11.402   5.529  12.445  0.4608 -0.0629  0.0740
  681SOL    HW1 8904  11.354   5.450  12.420  0.0548 -0.1438  1.0596
  681SOL    HW2 8905  11.396   5.585  12.368 -1.0312 -0.1725  0.0695
  682SOL     OW 8906   8.808   4.384  10.866 -0.4174 -0.6310 -0.0333
  682SOL    HW1 8907   8.858   4.466  10.870 -1.0244 -0.3024  1.0076
  682SOL    HW2 8908   8.873   4.318  10.840 -0.0608  0.2735 -1.6112
  683SOL     OW 8909   3.418   1.870   1.835 -0.8681 -0.6285 -0.3036
  683SOL    HW1 8910   3.426   1.778   1.860  1.0876 -0.1496  1.0212
  683SOL    HW2 8911   3.483   1.881   1.765 -2.8479 -0.7798 -2.2807
  684SOL     OW 8912   1.068   9.665   8.358 -0.5800 -0.7106  0.1110
  684SOL    HW1 8913   1.024   9.608   8.296 -0.1928 -0.7317 -0.1500
  684SOL    HW2 8914   1.134   9.609   8.399 -0.9209 -0.7288  0.6340
  685SOL     OW 8915   2.886   3.995   4.735 -0.1838  0.5190 -0.0219
  685SOL    HW1 8916   2.809   4.009   4.679 -2.1433 -3.3095  1.3872
  685SOL    HW2 8917   2.879   4.063   4.802 -0.3837  2.2876 -1.7474
  686SOL     OW 8918   5.611   5.544   7.832 -0.3081  0.4606 -0.2742
  686SOL    HW1 8919   5.585   5.585   7.749 -2.9004  0.5883  0.4897
  686SOL    HW2 8920   5.544   5.573   7.894  0.2623 -1.4458  1.3211
  687SOL     OW 8921   4.380   8.511  10.211  0.1436 -0.9317 -0.0314
  687SOL    HW1 8922   4.413   8.562  10.285 -0.7131 -1.2328  0.5698
  687SOL    HW2 8923   4.366   8.575  10.142 -1.0689 -0.3057  0.7628
  688SOL     OW 8924   2.343   2.682  11.312  0.4544 -0.3235  0.2725
  688SOL    HW1 8925   2.261   2.719  11.281  1.3898  0.4323 -1.4413
  688SOL    HW2 8926   2.404   2.756  11.310  1.2471 -0.9142  1.3256
  689SOL     OW 8927   0.343   8.774   8.860  0.0614  0.2025  0.1629
  689SOL    HW1 8928   0.432   8.772   8.896 -0.3086 -0.3591  1.0772
  689SOL    HW2 8929   0.309   8.860   8.886  0.4221  0.5262 -0.4193
  690SOL     OW 8930   7.558   9.700   1.604 -0.5801  0.1278 -0.1468
  690SOL    HW1 8931   7.554   9.780   1.552 -1.3033  1.0389  1.2523
  690SOL    HW2 8932   7.651   9.688   1.624 -0.2681 -0.3372 -1.7482
  691SOL     OW 8933   5.023   3.053   1.606  0.0926 -0.1626  0.2388
  691SOL    HW1 8934   5.100   2.998   1.597  0.0934 -0.0357 -0.6386
  691SOL    HW2 8935   4.970   3.010   1.672  0.9498 -0.2048  0.9194
  692SOL     OW 8936   3.924   5.569   9.092 -0.9686  0.2320  0.6625
  692SOL    HW1 8937   3.890   5.481   9.107 -0.4394  0.2396  2.1147
  692SOL    HW2 8938   3.850   5.619   9.060 -0.9237 -1.0848 -1.7288
  693SOL     OW 8939   4.715   4.956   5.632  0.0174 -1.0410 -0.1829
  693SOL    HW1 8940   4.758   5.039   5.653 -2.3117 -0.1268  1.3830
  693SOL    HW2 8941   4.686   4.966   5.542 -2.4931  1.0635  0.7009
  694SOL     OW 8942   2.779   4.624   2.326  0.0822  0.3836  0.4922
  694SOL    HW1 8943   2.688   4.618   2.295  0.1182 -0.9663  0.5898
  694SOL    HW2 8944   2.824   4.674   2.257 -0.6470  0.7122  0.2451
  695SOL     OW 8945   5.400   4.173   5.026  0.0569  0.0132  0.5352
  695SOL    HW1 8946   5.442   4.245   4.979  0.1242 -0.7315 -0.5699
  695SOL    HW2 8947   5.310   4.171   4.991  0.4607 -1.3166 -0.4738
  696SOL     OW 8948   6.464   9.894   8.634  0.1755 -0.3018 -0.3571
  696SOL    HW1 8949   6.414   9.957   8.686  1.9805  0.6847  0.2938
  696SOL    HW2 8950   6.417   9.811   8.644 -2.0965  0.8496 -1.0038
  697SOL     OW 8951   6.809   8.815   3.381  0.2893 -0.1356  0.2153
  697SOL    HW1 8952   6.736   8.758   3.357  0.8449 -0.1462 -1.6438
  697SOL    HW2 8953   6.872   8.758   3.425 -0.2186 -0.4213  0.5721
  698SOL     OW 8954   9.007   4.275  11.374 -0.3090  0.5357  0.1112
  698SOL    HW1 8955   8.943   4.298  11.441 -0.8350 -2.3334  0.7005
  698SOL    HW2 8956   8.956   4.237  11.302  0.4699  1.3814 -0.9441
  699SOL     OW 8957   8.311   6.701   3.049  0.0039  0.3284 -0.1515
  699SOL    HW1 8958   8.375   6.711   2.978 -1.3424  1.1586 -1.2952
  699SOL    HW2 8959   8.365   6.684   3.127  1.6117  1.0206 -1.0561
  700SOL     OW 8960   1.843   7.085   9.159 -0.0567 -0.1710 -0.2098
  700SOL    HW1 8961   1.795   7.029   9.098 -1.7013  2.6924 -1.7749
  700SOL    HW2 8962   1.851   7.032   9.238 -0.8367 -2.8370 -1.7667
  701SOL     OW 8963  10.909   4.626   4.530  0.1006 -0.3954  0.7846
  701SOL    HW1 8964  10.884   4.709   4.572  0.3509 -0.4100  0.9649
  701SOL    HW2 8965  10.908   4.644   4.437  0.6878 -0.0358  0.8433
  702SOL     OW 8966  11.074   6.862   8.046  0.5716 -0.0283  0.0482
  702SOL    HW1 8967  11.169   6.865   8.029  0.8462 -1.8977  1.0300
  702SOL    HW2 8968  11.065   6.892   8.136  0.2203  0.1900 -0.0591
  703SOL     OW 8969  10.124   0.046   0.657  0.0772 -0.1160  0.7862
  703SOL    HW1 8970  10.037   0.017   0.628  0.7290  0.5211 -2.0854
  703SOL    HW2 8971  10.163  -0.032   0.696 -1.3839 -0.6749  1.2188
  704SOL     OW 8972   7.171   0.455  10.107 -0.0262 -0.1755  0.3020
  704SOL    HW1 8973   7.145   0.537  10.148  3.3931  0.3191  1.8033
  704SOL    HW2 8974   7.167   0.472  10.013 -2.0408  0.7178  0.4903
  705SOL     OW 8975   3.943   2.349   6.758 -0.1828 -0.2179 -0.8986
  705SOL    HW1 8976   4.021   2.387   6.798 -1.2087 -0.7273  1.8184
  705SOL    HW2 8977   3.945   2.380   6.667  1.8825  1.7204 -0.2867
  706SOL     OW 8978   6.520   3.075   8.929 -0.4264 -0.8451  0.1183
  706SOL    HW1 8979   6.555   3.156   8.966  0.6027 -0.3676 -1.7590
  706SOL    HW2 8980   6.596   3.018   8.917 -1.2652 -2.6024  2.4249
  707SOL     OW 8981   3.226  10.204   9.407 -0.1638 -0.3108  0.4780
  707SOL    HW1 8982   3.259  10.242   9.326 -0.6522  1.8834  1.2304
  707SOL    HW2 8983   3.213  10.111   9.387  1.0185 -0.0988 -1.5102
  708SOL     OW 8984   6.544  10.037   8.999  0.3150  0.5793  0.0099
  708SOL    HW1 8985   6.631  10.008   8.971  0.4419  1.4466 -0.5279
  708SOL    HW2 8986   6.561  10.113   9.055  0.0253 -0.7505  2.0047
  709SOL     OW 8987  11.668  12.248   5.918 -0.2222 -0.0463  0.1580
  709SOL    HW1 8988  11.646  12.297   5.997  2.2651  0.4350  0.6480
  709SOL    HW2 8989  11.745  12.197   5.943 -0.2268 -0.9703 -1.5671
  710SOL     OW 8990   1.960   7.656   8.865 -0.1177  0.0892 -0.0046
  710SOL    HW1 8991   1.900   7.608   8.923 -1.1116  1.5693  0.2192
  710SOL    HW2 8992   2.015   7.707   8.925  2.0575 -1.8763 -0.1354
  711SOL     OW 8993   5.789   5.185   6.159 -0.7237  0.2744 -0.0536
  711SOL    HW1 8994   5.705   5.226   6.136 -1.9160 -0.4555  2.5852
  711SOL    HW2 8995   5.852   5.257   6.156 -1.4319  0.8721 -1.9515
  712SOL     OW 8996   5.449   4.836   6.291  0.3437  0.0924 -0.1828
  712SOL    HW1 8997   5.530   4.869   6.330 -1.1481  1.1849  2.2631
  712SOL    HW2 8998   5.439   4.748   6.327  0.2591  0.1174 -0.1432
  713SOL     OW 8999   0.750   7.984   6.743 -0.0439 -0.3689  0.6959
  713SOL    HW1 9000   0.840   7.988   6.777 -0.1711  2.5288  0.9618
  713SOL    HW2 9001   0.754   8.034   6.661 -1.0872 -1.7604 -0.2388
  714SOL     OW 9002   8.332   3.328   5.934  0.9167 -0.2171  0.3287
  714SOL    HW1 9003   8.255   3.361   5.980 -0.1242 -0.5946 -1.0462
  714SOL    HW2 9004   8.372   3.266   5.994 -0.7148 -1.1257  0.5550
  715SOL     OW 9005   6.554   9.495   4.133 -0.2310 -0.3645  0.3343
  715SOL    HW1 9006   6.613   9.440   4.184 -0.2198 -0.4741  0.2016
  715SOL    HW2 9007   6.473   9.496   4.183 -0.0026  0.0784  0.7016
  716SOL     OW 9008   2.719   7.276   3.901  0.2362  0.6819  0.2716
  716SOL    HW1 9009   2.792   7.336   3.886  1.5417 -1.2072 -1.6205
  716SOL    HW2 9010   2.756   7.189   3.884 -2.5822 -0.3289 -1.4599
  717SOL     OW 9011   9.313   1.207   7.111  0.0529 -0.3351  0.4965
  717SOL    HW1 9012   9.322   1.263   7.188 -0.7362  1.2272 -0.4933
  717SOL    HW2 9013   9.254   1.137   7.138 -0.3033  0.2588  1.2874
  718SOL     OW 9014   6.917   3.012   2.846 -0.3483 -0.1690 -0.4517
  718SOL    HW1 9015   6.916   3.088   2.904 -0.5041  1.6629 -2.7049
  718SOL    HW2 9016   6.996   3.023   2.793  0.0247 -2.0155 -0.3384
  719SOL     OW 9017   4.076   5.594   1.330 -0.4686 -0.1045 -0.0556
  719SOL    HW1 9018   4.065   5.567   1.421  0.2322 -0.5244 -0.0880
  719SOL    HW2 9019   3.987   5.596   1.295 -0.6445 -1.3290  0.2556
  720SOL     OW 9020  11.054   8.109   4.562  0.3257  0.0485 -0.3386
  720SOL    HW1 9021  10.973   8.139   4.521  0.3561  1.8579  0.8085
  720SOL    HW2 9022  11.083   8.183   4.615  1.8340 -1.1600  0.6157
  721SOL     OW 9023   1.313  10.448  11.948  0.2956  0.0980  0.9484
  721SOL    HW1 9024   1.401  10.485  11.958  0.1810  0.3167  1.1596
  721SOL    HW2 9025   1.254  10.523  11.960  0.1013  0.0762  0.1581
  722SOL     OW 9026   1.660   3.708   8.863 -0.1876 -0.0036 -0.1132
  722SOL    HW1 9027   1.607   3.784   8.840  0.8240  1.4625  2.0657
  722SOL    HW2 9028   1.678   3.719   8.956  1.9155 -1.7119 -0.2478
  723SOL     OW 9029   7.919   8.548   3.343  0.3480 -0.2957  0.6880
  723SOL    HW1 9030   7.876   8.556   3.428  0.5475 -0.3207  0.7916
  723SOL    HW2 9031   7.922   8.638   3.309  1.0853 -0.1501  1.1116
  724SOL     OW 9032   2.024   7.484  12.073 -0.6548  0.2296 -0.1536
  724SOL    HW1 9033   2.103   7.466  12.125 -1.0524  0.7440  0.6541
  724SOL    HW2 9034   1.953   7.446  12.125 -0.8943 -0.7033 -1.1343
  725SOL     OW 9035   0.396   9.959   2.841  0.3848 -0.3592 -0.0077
  725SOL    HW1 9036   0.471   9.978   2.784  1.3336 -1.3638  0.8589
  725SOL    HW2 9037   0.434   9.947   2.928 -0.9590  0.4750  0.7347
  726SOL     OW 9038   8.917   4.477   1.642  0.2283  0.2481 -0.7208
  726SOL    HW1 9039   8.932   4.407   1.706  0.9456 -0.7841 -1.9678
  726SOL    HW2 9040   8.874   4.546   1.692 -0.8125 -1.2066  0.4892
  727SOL     OW 9041   6.624  11.201  10.248  0.4673 -0.2358  0.3431
  727SOL    HW1 9042   6.607  11.175  10.157  2.5195  0.7450 -0.3882
  727SOL    HW2 9043   6.552  11.259  10.270  0.5007  0.3741 -1.0518
  728SOL     OW 9044  11.226   0.625   0.333  0.1904 -0.4716 -0.1830
  728SOL    HW1 9045  11.146   0.658   0.292  1.0031  0.5800 -0.9898
  728SOL    HW2 9046  11.244   0.543   0.287  0.1564 -0.1599 -0.7699
  729SOL     OW 9047   3.195   5.353   7.724  0.5609  0.2034  0.4603
  729SOL    HW1 9048   3.286   5.347   7.696  0.5194  1.6042 -0.0590
  729SOL    HW2 9049   3.144   5.336   7.645  0.3334 -1.4311  0.9291
  730SOL     OW 9050   8.669   5.461   4.383  0.2602 -0.1863  0.0924
  730SOL    HW1 9051   8.603   5.510   4.334  0.7500  0.8278  0.4027
  730SOL    HW2 9052   8.627   5.378   4.404 -0.2977 -0.2574 -1.1942
  731SOL     OW 9053   0.092   3.546   2.335  0.4617  0.2290  0.2073
  731SOL    HW1 9054  -0.004   3.539   2.330  0.3257  1.8036 -0.0924
  731SOL    HW2 9055   0.120   3.549   2.243  0.7641  0.1150  0.2962
  732SOL     OW 9056   4.527   5.953   8.974  0.1156  0.1438 -0.3805
  732SOL    HW1 9057   4.528   5.868   9.018 -0.6092  0.4447  0.2451
  732SOL    HW2 9058   4.589   5.944   8.902  0.5161 -0.7098  0.0619
  733SOL     OW 9059   0.626   5.205   3.234  0.1014  0.2690 -0.3182
  733SOL    HW1 9060   0.543   5.248   3.210 -0.1795 -0.1350 -0.0918
  733SOL    HW2 9061   0.672   5.193   3.151  0.3449  1.3244 -0.3464
  734SOL     OW 9062   2.866   2.867  12.081  0.2050  0.2132  0.0535
  734SOL    HW1 9063   2.798   2.803  12.057 -0.5440  1.3759 -1.0950
  734SOL    HW2 9064   2.855   2.879  12.175 -0.0107 -0.9266  0.1893
  735SOL     OW 9065   7.789  10.022   6.830 -0.4879  0.5151  0.3400
  735SOL    HW1 9066   7.746   9.939   6.845  0.1889  0.1365  0.2292
  735SOL    HW2 9067   7.852  10.031   6.903  0.6074  0.1361 -0.5275
  736SOL     OW 9068  11.076   7.651   9.530  0.2096 -0.5937  0.4583
  736SOL    HW1 9069  11.052   7.590   9.460  0.3225 -0.1695  0.0388
  736SOL    HW2 9070  11.057   7.605   9.611 -2.3615 -0.1448  0.1716
  737SOL     OW 9071   8.379   8.632   8.977  0.3414 -0.5023  0.3700
  737SOL    HW1 9072   8.366   8.581   8.896  0.3809 -2.8926  1.7618
  737SOL    HW2 9073   8.437   8.577   9.030  1.2638  1.5561  1.5826
  738SOL     OW 9074  11.035   2.291   6.700  0.2685 -0.1418 -0.0373
  738SOL    HW1 9075  10.944   2.302   6.727  0.0697 -0.1765 -0.6759
  738SOL    HW2 9076  11.085   2.295   6.782 -0.2603  0.3769  0.2682
  739SOL     OW 9077   8.612   1.624   5.672  0.1000 -0.6186 -0.1455
  739SOL    HW1 9078   8.556   1.664   5.605 -1.7543  1.2918  2.3734
  739SOL    HW2 9079   8.683   1.687   5.683 -0.3443 -0.2441  0.6190
  740SOL     OW 9080   3.354   7.861   3.412 -0.6514  0.4428 -0.1316
  740SOL    HW1 9081   3.317   7.773   3.403 -1.1008  0.7278 -1.2289
  740SOL    HW2 9082   3.305   7.901   3.484 -0.8239 -0.0140  0.0048
  741SOL     OW 9083   7.090  10.421   4.495  0.2982  0.2144 -0.5473
  741SOL    HW1 9084   7.021  10.372   4.450  0.2607  0.9038 -1.2593
  741SOL    HW2 9085   7.139  10.464   4.424 -0.6771  2.5539  0.0962
  742SOL     OW 9086   1.885   5.091   2.235  0.2133  0.5110  0.1648
  742SOL    HW1 9087   1.887   5.014   2.178  1.1356  1.5135 -1.2288
  742SOL    HW2 9088   1.946   5.070   2.306 -0.7022 -0.6236  0.6581
  743SOL     OW 9089   0.609   4.213   9.201  0.3109  0.0341 -0.5747
  743SOL    HW1 9090   0.535   4.203   9.142 -0.3135 -1.3621  0.3819
  743SOL    HW2 9091   0.577   4.182   9.286  1.6881  0.3383  0.0919
  744SOL     OW 9092   6.801   0.316   5.021  0.6050  0.5851 -1.0606
  744SOL    HW1 9093   6.816   0.373   5.096 -3.2675  0.7754 -0.2251
  744SOL    HW2 9094   6.787   0.376   4.948  0.2406  0.5754 -1.0009
  745SOL     OW 9095   4.132   5.450   8.638  0.6328  0.5253 -0.1246
  745SOL    HW1 9096   4.078   5.377   8.668 -0.4037  1.6424  0.8411
  745SOL    HW2 9097   4.192   5.468   8.711  0.8455  0.6709 -0.3323
  746SOL     OW 9098   9.056   8.221   8.043 -0.5862 -0.4903  0.0067
  746SOL    HW1 9099   9.004   8.157   7.994  0.6456 -1.5764  0.0671
  746SOL    HW2 9100   9.048   8.192   8.134  0.5589 -1.0049 -0.0441
  747SOL     OW 9101   9.993   6.031   8.544 -0.6990 -0.2573 -0.1235
  747SOL    HW1 9102  10.038   6.002   8.465  1.4145  0.5842  0.6681
  747SOL    HW2 9103  10.044   6.107   8.573 -1.0935 -0.8255  2.2897
  748SOL     OW 9104   0.210  11.951   7.757 -0.3370 -0.7295 -0.1910
  748SOL    HW1 9105   0.270  11.886   7.720 -0.4074 -0.8637 -0.0724
  748SOL    HW2 9106   0.227  11.948   7.851 -0.0155 -0.2424 -0.2302
  749SOL     OW 9107   0.838  10.625   1.232  0.0566 -0.2967 -0.2780
  749SOL    HW1 9108   0.793  10.554   1.186 -0.5572 -1.2804  1.7390
  749SOL    HW2 9109   0.789  10.704   1.207 -1.3590 -1.0439  0.0279
  750SOL     OW 9110   8.117  11.996  10.274 -0.0099  0.2206 -0.9146
  750SOL    HW1 9111   8.084  12.032  10.192  0.7581  3.1742 -0.0433
  750SOL    HW2 9112   8.209  12.021  10.276  0.6609 -2.0013 -0.2170
  751SOL     OW 9113   6.055   7.850   6.517 -0.0315 -1.1879  0.8990
  751SOL    HW1 9114   6.082   7.762   6.488 -0.8517 -0.6688 -1.6402
  751SOL    HW2 9115   5.962   7.854   6.498 -0.0877  0.1107  1.3881
  752SOL     OW 9116   1.441   5.840   4.924 -0.5599  0.1592  0.0860
  752SOL    HW1 9117   1.444   5.849   4.829  3.2276  0.0654  0.0384
  752SOL    HW2 9118   1.391   5.916   4.954 -0.3143  1.1713 -1.9149
  753SOL     OW 9119   4.776   0.412  11.327  0.4859 -0.4304 -0.1752
  753SOL    HW1 9120   4.868   0.386  11.333  0.4425 -0.6885 -0.5890
  753SOL    HW2 9121   4.776   0.487  11.269  0.4879 -0.1344  0.2021
  754SOL     OW 9122   4.066   9.116   8.882 -0.0080  0.2139  0.1378
  754SOL    HW1 9123   4.102   9.122   8.971  1.3531  2.0658 -0.4722
  754SOL    HW2 9124   4.035   9.205   8.863 -0.1122 -0.1140 -1.3054
  755SOL     OW 9125   0.267  10.654   6.864  0.3426 -0.0768 -0.1486
  755SOL    HW1 9126   0.302  10.708   6.793  0.2499  1.0854  0.6604
  755SOL    HW2 9127   0.304  10.567   6.849  0.8320  0.3079 -1.2466
  756SOL     OW 9128   2.852   4.429   5.540  0.0427  0.3383  0.0048
  756SOL    HW1 9129   2.763   4.449   5.510  1.1676  1.7139 -2.7700
  756SOL    HW2 9130   2.849   4.337   5.566 -2.2625  0.4753  0.4392
  757SOL     OW 9131   1.083   7.267  10.186  0.4926  0.1530  0.8333
  757SOL    HW1 9132   1.055   7.199  10.124 -1.5607  0.4324  1.3920
  757SOL    HW2 9133   1.143   7.322  10.136  1.0212 -1.1953 -0.0765
  758SOL     OW 9134   4.263   8.984   5.880  0.1220  0.0106 -0.5680
  758SOL    HW1 9135   4.341   9.025   5.843  0.8225 -1.2362 -0.5399
  758SOL    HW2 9136   4.245   9.034   5.960 -0.2757  1.5163 -1.5504
  759SOL     OW 9137   2.773   3.748   9.015 -0.2417  0.1302  0.8339
  759SOL    HW1 9138   2.688   3.714   8.990  0.8174 -2.6454  0.6708
  759SOL    HW2 9139   2.780   3.729   9.109  0.1980  0.3564  0.8514
  760SOL     OW 9140   1.423   7.731   0.063  0.4092 -0.6650  0.7822
  760SOL    HW1 9141   1.381   7.721   0.149 -1.0945  1.9038  0.4145
  760SOL    HW2 9142   1.404   7.820   0.037  0.7972 -1.3825 -2.2912
  761SOL     OW 9143  10.482   3.789   7.497 -0.0694  0.0550  0.3169
  761SOL    HW1 9144  10.462   3.775   7.405  0.1800  2.1260 -0.0924
  761SOL    HW2 9145  10.555   3.729   7.515 -0.8113 -1.1400 -0.5062
  762SOL     OW 9146   3.527   0.584   3.212 -0.0661 -0.2206 -0.7279
  762SOL    HW1 9147   3.582   0.594   3.290 -1.2024 -0.6065  0.1530
  762SOL    HW2 9148   3.588   0.591   3.139  1.0397  0.1157  0.1887
  763SOL     OW 9149  10.149  10.967  10.313 -0.4475 -0.4124 -0.0019
  763SOL    HW1 9150  10.193  10.895  10.268 -1.9972 -2.1505  1.1214
  763SOL    HW2 9151  10.138  11.034  10.245  3.6204  0.1219 -0.3927
  764SOL     OW 9152   9.638   4.798  10.798  0.0765 -0.2509  1.1628
  764SOL    HW1 9153   9.643   4.703  10.786  0.4646 -0.1687  0.6170
  764SOL    HW2 9154   9.648   4.833  10.710 -0.4587  0.2872  1.3126
  765SOL     OW 9155   7.359   3.845   4.089  1.7256 -0.1096 -0.1127
  765SOL    HW1 9156   7.294   3.776   4.095  3.8940 -2.2264  0.4353
  765SOL    HW2 9157   7.332   3.909   4.155  0.4185 -1.0663  0.3252
  766SOL     OW 9158   3.762   6.051   8.822  0.2921  0.1014  0.3851
  766SOL    HW1 9159   3.757   5.955   8.827 -0.5884  0.1851  1.3890
  766SOL    HW2 9160   3.725   6.082   8.905  0.1849  1.3204 -0.0905
  767SOL     OW 9161   7.613   3.905   2.015  0.2713  0.4985  0.4176
  767SOL    HW1 9162   7.572   3.853   1.946 -0.0482  1.8733 -0.4756
  767SOL    HW2 9163   7.548   3.973   2.035  1.2356  1.4059  0.5325
  768SOL     OW 9164  12.468   5.209   8.198 -0.4404 -0.4406  0.3180
  768SOL    HW1 9165  12.399   5.147   8.179 -0.3259 -0.2367 -0.8455
  768SOL    HW2 9166  12.431   5.294   8.174  0.4349 -0.4066 -1.0470
  769SOL     OW 9167   7.899   6.181   3.530 -0.2032 -0.6713 -0.5571
  769SOL    HW1 9168   7.928   6.116   3.593  0.6150  1.0265  0.8871
  769SOL    HW2 9169   7.959   6.171   3.456  2.1113  0.6369  1.0486
  770SOL     OW 9170  10.311   2.263   3.624  0.1129 -0.1026  0.9045
  770SOL    HW1 9171  10.404   2.281   3.617  0.3117 -0.3358  2.4879
  770SOL    HW2 9172  10.296   2.187   3.567  0.5306  0.9441 -0.6669
  771SOL     OW 9173   8.381  12.393   5.336  0.1405 -0.9160  0.0051
  771SOL    HW1 9174   8.464  12.348   5.317  0.1208 -2.4168  2.9312
  771SOL    HW2 9175   8.406  12.465   5.394 -0.4678 -0.4326 -0.3220
  772SOL     OW 9176   2.189   4.232   7.012  0.8213 -0.4215  0.2179
  772SOL    HW1 9177   2.258   4.250   7.075  1.1710 -0.4382 -0.1582
  772SOL    HW2 9178   2.108   4.254   7.058  1.1657  1.1421  0.1385
  773SOL     OW 9179  10.442  10.226   6.509 -0.2937 -0.1171 -0.5710
  773SOL    HW1 9180  10.532  10.194   6.503 -0.4112 -0.5413 -0.1211
  773SOL    HW2 9181  10.398  10.188   6.432 -0.4037 -0.9715 -0.1031
  774SOL     OW 9182   1.633   2.121   9.928 -0.3477 -0.8096  0.1480
  774SOL    HW1 9183   1.609   2.133   9.836 -0.3362  0.0382  0.2443
  774SOL    HW2 9184   1.664   2.207   9.956 -1.8064 -0.6312  1.3711
  775SOL     OW 9185  10.723   9.154  10.337  0.0175 -0.6294 -0.6181
  775SOL    HW1 9186  10.682   9.140  10.252 -0.3720 -0.2085 -0.5035
  775SOL    HW2 9187  10.787   9.223  10.322 -1.8809  1.3523 -0.0365
  776SOL     OW 9188   8.322   9.092  12.030  0.6078  0.6381 -0.3737
  776SOL    HW1 9189   8.316   9.133  12.116  2.3266  0.4549 -0.1371
  776SOL    HW2 9190   8.329   8.999  12.048 -0.1413  0.4932 -0.7794
  777SOL     OW 9191   4.249   3.449   8.948 -0.2252  0.3319  0.1067
  777SOL    HW1 9192   4.287   3.536   8.934 -1.4268  1.0937  1.2963
  777SOL    HW2 9193   4.155   3.462   8.936 -0.2368 -1.5844 -3.1540
  778SOL     OW 9194   9.893   6.302   5.972  0.6049 -0.2101 -0.1473
  778SOL    HW1 9195   9.813   6.349   5.946  0.0597 -1.3347 -0.5579
  778SOL    HW2 9196   9.948   6.370   6.012 -0.3427  0.6879 -0.3077
  779SOL     OW 9197  11.103   5.988   3.772  0.8016  0.3184  0.4911
  779SOL    HW1 9198  11.019   5.947   3.793  0.5297  1.0052  0.7554
  779SOL    HW2 9199  11.162   5.958   3.841  1.0120 -0.8713 -0.1795
  780SOL     OW 9200   3.001   9.126  11.229 -0.6098 -0.3070  0.4303
  780SOL    HW1 9201   3.025   9.123  11.321  0.6107 -0.6888  0.1205
  780SOL    HW2 9202   3.078   9.092  11.183 -1.8245 -1.7652 -0.6224
  781SOL     OW 9203   7.201   7.844   7.636 -0.2733  0.4411  0.3825
  781SOL    HW1 9204   7.214   7.751   7.617  1.0787  0.3892  1.4501
  781SOL    HW2 9205   7.234   7.855   7.725 -0.1845  2.0001  0.1794
  782SOL     OW 9206   1.902   2.679   1.398  0.8583  0.9563  0.1918
  782SOL    HW1 9207   1.820   2.689   1.351  0.1104  0.6494  1.3953
  782SOL    HW2 9208   1.963   2.738   1.354 -0.4599  2.4860  0.3315
  783SOL     OW 9209   3.859   7.881   4.191 -0.2659  0.3408 -0.5230
  783SOL    HW1 9210   3.888   7.947   4.128 -3.0542 -0.0203 -2.3485
  783SOL    HW2 9211   3.765   7.895   4.199 -0.3748 -1.0877  1.9315
  784SOL     OW 9212  10.442   3.913   4.058  0.5163 -0.4484  0.3822
  784SOL    HW1 9213  10.398   3.846   4.006  1.5454 -1.6038  0.9581
  784SOL    HW2 9214  10.417   3.996   4.016 -2.0882 -1.0228  0.6097
  785SOL     OW 9215   9.172   2.756  10.814 -0.0396 -0.1861 -0.3249
  785SOL    HW1 9216   9.245   2.700  10.838 -0.3374 -1.0168 -1.2821
  785SOL    HW2 9217   9.185   2.836  10.865  0.8455 -0.7986  0.4423
  786SOL     OW 9218  12.157   8.293   1.326  0.0364 -0.4584  0.0756
  786SOL    HW1 9219  12.071   8.297   1.369  0.3945 -1.8423  0.9701
  786SOL    HW2 9220  12.138   8.264   1.237 -0.4684 -0.2203  0.1007
  787SOL     OW 9221   8.579   6.354   0.447 -0.1568 -0.5437  0.2089
  787SOL    HW1 9222   8.551   6.263   0.454  1.3208 -0.9692  0.9675
  787SOL    HW2 9223   8.634   6.357   0.370 -1.1082 -0.0137 -0.4750
  788SOL     OW 9224   4.759   6.599   0.085  0.2426 -0.0672  0.3692
  788SOL    HW1 9225   4.848   6.563   0.093 -0.2353 -1.2592  0.5979
  788SOL    HW2 9226   4.704   6.522   0.067 -1.0440  0.3393  2.2634
  789SOL     OW 9227   5.993   8.621  11.379  0.1503  0.5513 -0.8064
  789SOL    HW1 9228   5.982   8.526  11.378  0.9902  0.4469 -1.1304
  789SOL    HW2 9229   6.082   8.635  11.346  0.1504  1.4340 -0.4551
  790SOL     OW 9230   4.600   9.076   0.609  0.2854 -0.6412  0.0296
  790SOL    HW1 9231   4.512   9.063   0.573 -1.1423  2.1590  2.0428
  790SOL    HW2 9232   4.603   9.170   0.630  3.2851 -0.8971  1.2333
  791SOL     OW 9233   3.081   9.940   9.350  0.6066 -0.0876 -0.3588
  791SOL    HW1 9234   2.997   9.979   9.326  0.9669  1.6124  0.9034
  791SOL    HW2 9235   3.076   9.928   9.445  1.5972 -0.4353 -0.3322
  792SOL     OW 9236   2.733   1.347   0.231 -0.1853 -0.2480  0.2903
  792SOL    HW1 9237   2.692   1.277   0.179 -0.0559  0.2223 -0.4535
  792SOL    HW2 9238   2.807   1.376   0.178 -0.7136  1.0103  0.2070
  793SOL     OW 9239   2.452   3.166  11.943 -0.3180  0.1706  0.0281
  793SOL    HW1 9240   2.491   3.155  12.030  2.6492  1.7507 -0.9588
  793SOL    HW2 9241   2.439   3.076  11.912  1.3347 -0.4580  1.0107
  794SOL     OW 9242   1.156   8.830   4.106  0.3581 -0.6162 -0.1376
  794SOL    HW1 9243   1.142   8.831   4.200 -0.0478 -0.4900 -0.1998
  794SOL    HW2 9244   1.079   8.873   4.069  0.5059 -0.6800 -0.5282
  795SOL     OW 9245   1.404   9.098   4.619  0.1036 -0.3238  0.5182
  795SOL    HW1 9246   1.312   9.086   4.642  0.3873 -2.1206  0.8770
  795SOL    HW2 9247   1.402   9.144   4.535 -1.0276  2.3276  1.8918
  796SOL     OW 9248  11.937   1.919   0.426 -0.4212  0.4149 -0.0016
  796SOL    HW1 9249  11.967   1.831   0.445 -0.0434  0.3372 -0.9089
  796SOL    HW2 9250  11.842   1.910   0.417 -0.4662  0.2367  0.5707
  797SOL     OW 9251   2.049   7.403   3.124 -0.3936  0.0551 -0.2150
  797SOL    HW1 9252   2.062   7.384   3.217 -0.5882  0.3281 -0.1287
  797SOL    HW2 9253   1.954   7.406   3.114 -0.4141  2.4861  0.1141
  798SOL     OW 9254  10.611   3.722   3.556  0.3819  0.5458 -0.0526
  798SOL    HW1 9255  10.628   3.634   3.587  0.7288  0.9362  0.8977
  798SOL    HW2 9256  10.691   3.747   3.509  0.3889  0.4518 -0.0889
  799SOL     OW 9257  10.713   1.697   8.989  0.2730 -0.1621  0.0732
  799SOL    HW1 9258  10.631   1.683   9.035 -0.8331  1.4577 -1.2880
  799SOL    HW2 9259  10.731   1.791   8.998  0.7805 -0.0676 -1.4957
  800SOL     OW 9260   2.225   1.932  12.426 -0.4549 -0.0606 -0.1010
  800SOL    HW1 9261   2.270   1.999  12.477 -0.9098 -0.6101  1.0763
  800SOL    HW2 9262   2.280   1.854  12.437 -0.7016 -0.2503 -0.2224
  801SOL     OW 9263   2.281   0.544   9.565 -0.5993  0.2262  0.1915
  801SOL    HW1 9264   2.296   0.634   9.595  1.3966 -0.6941  2.2576
  801SOL    HW2 9265   2.358   0.524   9.512 -1.5181  0.0046 -1.1197
  802SOL     OW 9266   7.712  12.122   5.536  0.0075 -0.6297  0.1637
  802SOL    HW1 9267   7.770  12.148   5.465  0.7133  0.3493  1.0580
  802SOL    HW2 9268   7.624  12.125   5.498 -0.0034  3.1432  0.1161
  803SOL     OW 9269   6.018   7.458   5.460 -0.2765  0.7015 -0.1618
  803SOL    HW1 9270   6.001   7.550   5.440 -1.9020  0.3679 -0.4320
  803SOL    HW2 9271   6.009   7.413   5.376  0.0619  0.2265  0.0505
  804SOL     OW 9272   3.981  10.555   6.365  1.0390 -0.2235 -0.7182
  804SOL    HW1 9273   3.974  10.467   6.400  1.1403  0.1561  0.2704
  804SOL    HW2 9274   4.032  10.544   6.284  1.0245 -1.0634 -0.6239
  805SOL     OW 9275   3.838   4.231  12.115  0.2707  0.2147 -0.0326
  805SOL    HW1 9276   3.820   4.236  12.021 -0.0392 -0.0448  0.0101
  805SOL    HW2 9277   3.925   4.192  12.121  0.2992  0.2505 -0.2123
  806SOL     OW 9278   6.158  11.604   2.152  0.2551 -0.7903 -0.5491
  806SOL    HW1 9279   6.127  11.680   2.200  0.2114 -1.6046  0.7555
  806SOL    HW2 9280   6.248  11.626   2.127  1.4677 -1.5465  2.7239
  807SOL     OW 9281   5.798  12.299   6.939  0.2275 -0.3096 -0.4146
  807SOL    HW1 9282   5.795  12.255   7.024 -0.0153  0.1821 -0.1605
  807SOL    HW2 9283   5.707  12.319   6.919  0.3127 -0.1406 -0.6426
  808SOL     OW 9284   3.287   4.050   7.919 -0.2341  0.5581 -0.6875
  808SOL    HW1 9285   3.210   4.038   7.974 -0.9412  0.4697 -1.6579
  808SOL    HW2 9286   3.289   4.145   7.902  0.0699  0.6059 -0.3885
  809SOL     OW 9287   8.182   5.093   3.845 -0.0286  0.3604 -0.2904
  809SOL    HW1 9288   8.110   5.039   3.876  0.8624 -0.2677  0.7581
  809SOL    HW2 9289   8.178   5.172   3.899  0.2157  0.2144 -0.0574
  810SOL     OW 9290   5.196  11.408   7.158  0.0771 -0.2698  0.2618
  810SOL    HW1 9291   5.150  11.406   7.242 -0.7913 -0.6803 -0.2049
  810SOL    HW2 9292   5.227  11.318   7.146 -3.2462 -1.3410 -1.6520
  811SOL     OW 9293   0.786   8.216   1.763 -0.3624  0.0948 -0.1135
  811SOL    HW1 9294   0.833   8.291   1.726  0.1645  0.4421  1.2088
  811SOL    HW2 9295   0.694   8.238   1.753 -0.2217  1.5153  1.3648
  812SOL     OW 9296   3.956   9.159   2.527  0.1215 -0.3305  0.0031
  812SOL    HW1 9297   3.931   9.249   2.546 -1.9674 -0.7309 -0.6440
  812SOL    HW2 9298   3.982   9.160   2.435 -0.2651 -0.4533 -0.1089
  813SOL     OW 9299   1.774   2.800   5.285 -0.2137 -0.2198  0.4691
  813SOL    HW1 9300   1.742   2.858   5.215 -0.2740 -0.9233 -0.0985
  813SOL    HW2 9301   1.822   2.732   5.239 -0.4654 -0.8320  1.0963
  814SOL     OW 9302   3.350   8.177   2.645 -0.2003 -0.2253 -0.5567
  814SOL    HW1 9303   3.336   8.269   2.666 -1.6769 -0.4567 -0.3772
  814SOL    HW2 9304   3.445   8.166   2.645 -0.0256  0.7324  1.8970
  815SOL     OW 9305   1.827   1.898  11.706  0.1671 -0.9348  0.4884
  815SOL    HW1 9306   1.862   1.857  11.785  0.6811  0.8418  1.2379
  815SOL    HW2 9307   1.753   1.951  11.736  1.1362  0.7619  0.0446
  816SOL     OW 9308   7.566   6.964   4.978  0.5687  0.1713 -0.7247
  816SOL    HW1 9309   7.609   7.042   5.012  3.6564 -1.9321  0.7137
  816SOL    HW2 9310   7.621   6.936   4.905 -0.1513 -0.9465 -0.8697
  817SOL     OW 9311   7.638   4.326   1.945  0.4692 -0.1106  0.8478
  817SOL    HW1 9312   7.693   4.267   1.996  2.7968  0.0938 -1.1880
  817SOL    HW2 9313   7.700   4.372   1.888 -1.7390  0.8715 -0.9230
  818SOL     OW 9314   1.049  11.402  11.036 -0.5980 -0.0679 -0.1962
  818SOL    HW1 9315   0.987  11.419  10.965  0.5886  0.9584 -1.0096
  818SOL    HW2 9316   1.000  11.345  11.096 -2.0637  0.0879 -1.1816
  819SOL     OW 9317   1.796   9.611  12.188  0.3415 -0.0362  0.0451
  819SOL    HW1 9318   1.726   9.551  12.215  0.4726 -0.4661 -0.5359
  819SOL    HW2 9319   1.840   9.636  12.269  0.3073 -0.7681  0.2972
  820SOL     OW 9320   3.433   0.356   6.760  0.9154 -0.1300  0.1048
  820SOL    HW1 9321   3.375   0.287   6.794  1.6752 -2.0163 -2.2196
  820SOL    HW2 9322   3.520   0.334   6.793  0.6373  2.2723  2.9402
  821SOL     OW 9323   6.924   3.075   3.768 -0.4581 -0.3913  0.2842
  821SOL    HW1 9324   6.849   3.018   3.751  0.4338 -1.5387  0.0386
  821SOL    HW2 9325   6.889   3.164   3.761 -1.5829 -0.8875 -0.8479
  822SOL     OW 9326   3.125   6.858   2.174  0.0003  0.0836 -0.1109
  822SOL    HW1 9327   3.089   6.944   2.154 -0.1160  0.3063  0.9723
  822SOL    HW2 9328   3.097   6.841   2.264  0.1010 -1.0471 -0.2715
  823SOL     OW 9329  11.750   0.724   1.456  0.2785 -0.2983  0.1264
  823SOL    HW1 9330  11.665   0.682   1.472  0.0536  0.0919 -0.0356
  823SOL    HW2 9331  11.728   0.811   1.422  0.7421 -0.1132  0.2908
  824SOL     OW 9332   6.199   0.806   3.740 -0.3751 -0.2351 -0.2161
  824SOL    HW1 9333   6.130   0.742   3.754 -0.1660  0.0027  2.4868
  824SOL    HW2 9334   6.153   0.890   3.732 -0.5317 -0.4381 -1.8219
  825SOL     OW 9335   4.967   9.388   3.936  0.5082  0.1705  0.2889
  825SOL    HW1 9336   5.017   9.470   3.944  0.9806 -0.0451 -0.3270
  825SOL    HW2 9337   4.987   9.340   4.016 -0.2021  0.8785  0.9065
  826SOL     OW 9338   5.272   5.327   9.710 -0.2361  0.0078  0.1067
  826SOL    HW1 9339   5.232   5.329   9.796 -1.0106 -1.2945 -0.1935
  826SOL    HW2 9340   5.224   5.393   9.659 -2.5100 -1.9332 -0.4218
  827SOL     OW 9341   3.207   3.998  11.185 -0.8533  0.5647 -0.8058
  827SOL    HW1 9342   3.228   4.000  11.092 -3.1105 -0.0339 -1.3963
  827SOL    HW2 9343   3.129   4.053  11.192 -1.0923  0.0691  0.6190
  828SOL     OW 9344   4.575   4.688   1.702 -0.2255 -0.6500 -0.2001
  828SOL    HW1 9345   4.589   4.704   1.795  1.7496 -1.6293 -0.2717
  828SOL    HW2 9346   4.504   4.748   1.678  0.1628  0.6446  1.6265
  829SOL     OW 9347   5.977   6.984   0.841  0.3166 -0.3865  0.0820
  829SOL    HW1 9348   6.062   6.966   0.881 -0.4655 -2.9460  0.7362
  829SOL    HW2 9349   5.977   6.934   0.760  0.7826  2.5342 -1.8702
  830SOL     OW 9350   9.617   2.187   4.557 -0.3173  0.0802  0.1387
  830SOL    HW1 9351   9.622   2.091   4.564  1.5507 -0.0543 -1.8537
  830SOL    HW2 9352   9.705   2.217   4.582 -0.3826  1.1144 -0.8012
  831SOL     OW 9353  10.770   0.942   6.352 -0.5163  0.5863 -0.1808
  831SOL    HW1 9354  10.695   0.925   6.409  0.4172 -0.0917  0.8663
  831SOL    HW2 9355  10.737   1.006   6.289 -1.6454  1.2124  0.9868
  832SOL     OW 9356   9.837   8.070   0.579 -0.0204  0.1803 -0.3776
  832SOL    HW1 9357   9.901   8.071   0.650 -0.0770  0.1970 -0.3258
  832SOL    HW2 9358   9.883   8.032   0.505 -0.2379 -0.7682 -0.0523
  833SOL     OW 9359   0.475  10.232  10.932  0.0557  0.4091 -0.1666
  833SOL    HW1 9360   0.516  10.246  10.847  1.5402 -0.4991  0.3650
  833SOL    HW2 9361   0.518  10.294  10.990  1.3586 -1.1251  0.5806
  834SOL     OW 9362  10.532   4.512   7.272 -0.4806  0.0243 -0.8229
  834SOL    HW1 9363  10.472   4.576   7.311 -0.7620 -0.8018  0.1679
  834SOL    HW2 9364  10.478   4.463   7.210 -1.5063 -2.0973  1.5325
  835SOL     OW 9365  10.372   6.731   2.524 -0.5892 -0.1045 -0.0065
  835SOL    HW1 9366  10.373   6.785   2.603  1.5348 -0.7425  0.4811
  835SOL    HW2 9367  10.286   6.689   2.524 -1.0686  0.8184  1.3211
  836SOL     OW 9368   4.284  11.451   1.457 -0.0717 -0.2106  0.1691
  836SOL    HW1 9369   4.259  11.505   1.532 -0.9971 -0.3580 -0.0203
  836SOL    HW2 9370   4.229  11.373   1.465  2.4259 -1.9890  1.4119
  837SOL     OW 9371  12.017   8.516  12.480  0.0614 -0.7404 -0.1503
  837SOL    HW1 9372  12.047   8.431  12.512 -1.8313 -1.1664  0.6714
  837SOL    HW2 9373  12.058   8.579  12.539  0.5367 -1.1747 -0.0102
  838SOL     OW 9374  11.860   6.731   5.454 -0.0751 -0.6793  0.8471
  838SOL    HW1 9375  11.817   6.703   5.374 -1.2533 -1.1167  1.6009
  838SOL    HW2 9376  11.908   6.654   5.484  1.6170 -0.0792 -0.1977
  839SOL     OW 9377   1.998   3.873   5.194 -0.2469 -0.2788 -0.5978
  839SOL    HW1 9378   2.066   3.932   5.227 -1.0942  0.9882 -1.0434
  839SOL    HW2 9379   1.990   3.806   5.262 -0.3578  1.0017  0.7060
  840SOL     OW 9380   6.499   2.341   4.492 -0.4632  0.5843 -0.1614
  840SOL    HW1 9381   6.415   2.375   4.521 -0.1734  0.3415  0.9960
  840SOL    HW2 9382   6.557   2.418   4.491 -0.7678  0.8271 -1.3325
  841SOL     OW 9383  11.622   1.739   8.909  0.1856 -0.1832 -0.1428
  841SOL    HW1 9384  11.633   1.677   8.837  2.1552  1.3860 -1.3327
  841SOL    HW2 9385  11.571   1.692   8.974 -0.5348 -2.1503 -2.0038
  842SOL     OW 9386   9.406   8.059  10.244  0.1215  0.2364  0.1359
  842SOL    HW1 9387   9.360   7.976  10.251 -0.0044  0.1732 -1.1966
  842SOL    HW2 9388   9.341   8.126  10.266 -0.2965  0.0844 -0.6294
  843SOL     OW 9389   3.470   7.454   3.829  0.3580 -0.1706 -0.8757
  843SOL    HW1 9390   3.376   7.434   3.825 -0.0064  1.2350 -0.0812
  843SOL    HW2 9391   3.486   7.505   3.749 -0.2961  2.2547  0.4337
  844SOL     OW 9392   7.695   5.558   3.816 -0.5008  0.0835 -0.6806
  844SOL    HW1 9393   7.662   5.526   3.732 -1.6978  1.9905 -0.9847
  844SOL    HW2 9394   7.664   5.648   3.822  1.5139  0.7554  0.7884
  845SOL     OW 9395   9.741  11.761   3.413  0.1871  0.0267 -0.1406
  845SOL    HW1 9396   9.782  11.769   3.327 -1.0872 -0.8471 -0.8695
  845SOL    HW2 9397   9.670  11.825   3.413  0.1772  0.0241  0.2606
  846SOL     OW 9398   9.357   1.405   3.472 -0.2920  0.4778 -0.3118
  846SOL    HW1 9399   9.285   1.440   3.524 -0.0004 -1.1854  1.3446
  846SOL    HW2 9400   9.433   1.410   3.530  0.3754 -0.0912 -1.1076
  847SOL     OW 9401   7.787   0.011   4.950 -0.0953  0.3032  0.2407
  847SOL    HW1 9402   7.748   0.022   5.036 -0.5518  1.5298 -0.1159
  847SOL    HW2 9403   7.781   0.097   4.908  1.4475  0.1126 -0.4683
  848SOL     OW 9404   0.467   5.575  11.057 -0.0108 -0.1984  0.1608
  848SOL    HW1 9405   0.433   5.635  10.990 -1.6155 -1.0376  0.1592
  848SOL    HW2 9406   0.539   5.623  11.098 -0.3704  1.1859 -0.7367
  849SOL     OW 9407   5.948   0.873   1.384 -0.4139 -0.5562 -0.3751
  849SOL    HW1 9408   5.964   0.790   1.429  1.3343  0.2358  0.5674
  849SOL    HW2 9409   6.017   0.879   1.318  0.9530  1.1202  1.0833
  850SOL     OW 9410   1.830   9.911   4.566 -0.4214 -0.8206  0.2042
  850SOL    HW1 9411   1.835  10.006   4.556 -1.0077 -0.5697  1.8575
  850SOL    HW2 9412   1.808   9.898   4.658  0.4784 -2.6015  0.2165
  851SOL     OW 9413   0.776   6.681   8.945 -0.0515 -0.3031  0.1587
  851SOL    HW1 9414   0.681   6.685   8.952 -0.1369  0.0813 -1.0536
  851SOL    HW2 9415   0.798   6.590   8.962 -0.6925 -0.5169 -0.1561
  852SOL     OW 9416   7.536   0.604   3.549  0.4231 -0.6344  0.2660
  852SOL    HW1 9417   7.468   0.593   3.482  0.0892 -2.8410  0.9050
  852SOL    HW2 9418   7.578   0.519   3.555  0.3330 -0.5769  2.9653
  853SOL     OW 9419   5.928   9.019   0.016 -0.0106  0.0126 -0.2866
  853SOL    HW1 9420   6.018   8.991   0.003 -0.2609 -1.1683  0.3825
  853SOL    HW2 9421   5.915   9.018   0.111 -0.4368  1.1423 -0.3219
  854SOL     OW 9422  10.121   4.881  11.239  0.0215  0.0867  0.3930
  854SOL    HW1 9423  10.187   4.897  11.172 -0.3643  0.4037  0.0861
  854SOL    HW2 9424  10.062   4.817  11.200  0.7334 -1.0083  1.0669
  855SOL     OW 9425   2.689   2.930  11.325 -0.9931  0.0574  0.1692
  855SOL    HW1 9426   2.742   2.989  11.379  1.4755 -0.3425 -1.6634
  855SOL    HW2 9427   2.704   2.843  11.362 -0.0791 -0.0948 -0.5349
  856SOL     OW 9428   7.094  10.364   6.452 -0.0835 -0.3542 -0.3372
  856SOL    HW1 9429   7.180  10.383   6.489  0.4706 -0.3902 -1.5405
  856SOL    HW2 9430   7.059  10.449   6.427 -0.9573 -0.2069  1.2555
  857SOL     OW 9431   3.050   4.496   2.282  0.5177  0.4423  0.1460
  857SOL    HW1 9432   3.112   4.541   2.339  1.6957  1.6289 -1.9535
  857SOL    HW2 9433   3.102   4.428   2.239  0.0818  0.6634 -0.7522
  858SOL     OW 9434  10.687   5.848   0.755 -0.1276  0.1962 -0.9173
  858SOL    HW1 9435  10.694   5.942   0.743 -0.5379  0.2613 -0.6774
  858SOL    HW2 9436  10.654   5.837   0.844 -0.2895 -0.1645 -1.0170
  859SOL     OW 9437   6.421   9.774  10.071  0.2615 -0.8470 -0.5101
  859SOL    HW1 9438   6.471   9.693  10.080  1.0239 -0.6330 -2.3737
  859SOL    HW2 9439   6.482   9.835  10.029 -1.0937 -0.0872 -1.4261
  860SOL     OW 9440   9.269   3.886   1.925  0.2673 -0.3298 -0.1167
  860SOL    HW1 9441   9.336   3.895   1.857 -0.0113  1.4722 -0.1963
  860SOL    HW2 9442   9.214   3.964   1.915  1.0614  0.8048  3.0803
  861SOL     OW 9443   4.607   2.511   2.414 -0.2921 -0.1651 -0.6114
  861SOL    HW1 9444   4.673   2.558   2.464  1.0618 -1.8659 -0.7129
  861SOL    HW2 9445   4.656   2.465   2.346 -1.6705 -0.8440 -1.1931
  862SOL     OW 9446  12.080   6.504   1.210 -0.1482  0.1500  0.1974
  862SOL    HW1 9447  12.137   6.577   1.237  1.2559 -1.3034  1.3561
  862SOL    HW2 9448  12.100   6.492   1.117 -0.9969  1.7341 -0.2206
  863SOL     OW 9449   3.587   9.334   8.820  0.3204 -0.1365  0.1496
  863SOL    HW1 9450   3.639   9.373   8.890  0.6666 -0.6582  0.1908
  863SOL    HW2 9451   3.650   9.316   8.750 -0.1189  0.9081 -0.5285
  864SOL     OW 9452   5.702   4.601   2.130 -0.3949 -0.5045 -0.2447
  864SOL    HW1 9453   5.633   4.545   2.165 -1.3458 -0.0133 -1.2641
  864SOL    HW2 9454   5.663   4.689   2.127  0.7017  0.0198  0.3128
  865SOL     OW 9455   3.475   8.605   1.967 -0.3008 -0.3751 -0.4465
  865SOL    HW1 9456   3.430   8.528   2.001 -0.3157  0.1997  0.8853
  865SOL    HW2 9457   3.520   8.574   1.888 -1.8411 -1.3016 -1.0118
  866SOL     OW 9458   5.802   5.239   8.731  0.2097  0.3182  0.0969
  866SOL    HW1 9459   5.784   5.300   8.802  1.7532 -0.1845  0.9537
  866SOL    HW2 9460   5.791   5.152   8.770 -3.6689 -0.1437 -1.5106
  867SOL     OW 9461   0.179  12.138   3.336  0.2229  0.4509  0.3058
  867SOL    HW1 9462   0.214  12.132   3.247 -1.1387  0.6934 -0.2781
  867SOL    HW2 9463   0.228  12.073   3.386  0.3634 -0.3464 -0.8397
  868SOL     OW 9464   3.852   9.192  11.340 -0.0556 -0.7390  0.2397
  868SOL    HW1 9465   3.940   9.230  11.335  0.5592 -1.8732  1.4941
  868SOL    HW2 9466   3.838   9.152  11.254  0.4213 -0.0871 -0.1523
  869SOL     OW 9467   1.434   9.183  11.639 -0.3272  0.3738  0.5957
  869SOL    HW1 9468   1.511   9.128  11.622 -0.5912  0.5409 -1.4267
  869SOL    HW2 9469   1.371   9.125  11.681 -1.0845 -1.3765 -2.6029
  870SOL     OW 9470  11.229   4.860  12.446 -0.2057 -0.1896  0.1316
  870SOL    HW1 9471  11.187   4.784  12.487 -0.0185 -1.4848 -1.9120
  870SOL    HW2 9472  11.170   4.885  12.376  0.5426  0.4826 -0.2793
  871SOL     OW 9473  10.993   1.756  12.056  0.5516 -0.3165  0.0802
  871SOL    HW1 9474  10.902   1.747  12.083  0.5369 -1.3403 -0.2541
  871SOL    HW2 9475  11.040   1.779  12.136  0.2239 -1.3510  0.5901
  872SOL     OW 9476   6.725   0.591   7.609 -0.1268 -0.3380  0.1308
  872SOL    HW1 9477   6.768   0.649   7.546 -0.9023 -0.8973 -0.9361
  872SOL    HW2 9478   6.787   0.520   7.623 -0.8606 -1.4445 -1.8470
  873SOL     OW 9479   6.698   8.093   7.453 -0.3549  0.2021  0.1238
  873SOL    HW1 9480   6.710   8.112   7.360  0.8459  0.3290  0.2828
  873SOL    HW2 9481   6.710   7.998   7.460 -0.5972  0.1713  0.1316
  874SOL     OW 9482  10.769   2.866   2.540  0.2428  0.4490 -0.3918
  874SOL    HW1 9483  10.752   2.945   2.488  2.6408  0.4166 -1.3834
  874SOL    HW2 9484  10.724   2.796   2.493 -1.0696  1.0441 -0.0602
  875SOL     OW 9485   3.159   7.302   9.684 -0.4635  0.3695 -0.3703
  875SOL    HW1 9486   3.114   7.234   9.633 -1.0989  0.5886 -0.1094
  875SOL    HW2 9487   3.221   7.254   9.738 -2.5167 -0.3053  1.5742
  876SOL     OW 9488   3.515   4.680   2.105  0.4663 -0.5354 -0.4206
  876SOL    HW1 9489   3.593   4.726   2.135 -0.2604  1.0895 -0.9244
  876SOL    HW2 9490   3.549   4.609   2.050  1.5819  0.1845 -0.6983
  877SOL     OW 9491   6.486  11.439   2.229  0.3795  0.3362  0.1256
  877SOL    HW1 9492   6.520  11.450   2.317  1.2670 -0.7671 -0.0582
  877SOL    HW2 9493   6.456  11.348   2.226  1.9952 -0.2021 -1.2327
  878SOL     OW 9494   7.882   1.304   6.800 -0.0930  0.0811 -0.6808
  878SOL    HW1 9495   7.945   1.279   6.868 -1.3728  1.3432  1.0409
  878SOL    HW2 9496   7.881   1.229   6.740 -0.4336 -2.0235  1.8025
  879SOL     OW 9497   6.622   3.262  10.295  0.0833 -0.3762 -0.0762
  879SOL    HW1 9498   6.557   3.194  10.279 -0.2029  0.5134 -3.1673
  879SOL    HW2 9499   6.705   3.215  10.299 -0.3481 -1.1316  0.2748
  880SOL     OW 9500   3.553   8.266   7.256  0.3332 -0.1643 -1.1742
  880SOL    HW1 9501   3.464   8.282   7.225  0.6253  0.4948 -1.6804
  880SOL    HW2 9502   3.545   8.263   7.352 -0.0938  0.7156 -1.1789
  881SOL     OW 9503  10.888   0.558   2.182 -0.1626  0.0965  0.2488
  881SOL    HW1 9504  10.835   0.599   2.250  0.6285  0.1315  0.8566
  881SOL    HW2 9505  10.824   0.520   2.122 -0.8919  1.3473  0.2032
  882SOL     OW 9506   2.805   7.664   8.129  0.3565  0.5907 -0.0790
  882SOL    HW1 9507   2.873   7.608   8.168  0.8206  1.2189  0.0327
  882SOL    HW2 9508   2.837   7.753   8.142 -1.1520  0.9948  1.2716
  883SOL     OW 9509   3.253   4.748   2.032  0.1495 -0.1124  0.0380
  883SOL    HW1 9510   3.223   4.696   2.106  0.2989  0.6574  0.6556
  883SOL    HW2 9511   3.349   4.744   2.037  0.1744 -1.1342 -0.8986
  884SOL     OW 9512   7.743   2.050   9.040 -0.5673 -0.0608 -1.0234
  884SOL    HW1 9513   7.701   2.132   9.066 -1.2498 -0.4091 -0.9867
  884SOL    HW2 9514   7.832   2.075   9.016 -0.3035  0.4693  0.3979
  885SOL     OW 9515   4.781   0.835  10.159 -0.1382  0.4688  0.0557
  885SOL    HW1 9516   4.692   0.825  10.125 -0.6829  1.9065  0.9952
  885SOL    HW2 9517   4.797   0.929  10.156  1.5806  0.1884 -0.6047
  886SOL     OW 9518  12.294   0.997   7.172 -0.4924 -0.0527 -0.0336
  886SOL    HW1 9519  12.248   0.945   7.237 -1.3900  0.2790 -0.3799
  886SOL    HW2 9520  12.241   0.987   7.092 -0.5347  1.1583 -0.1730
  887SOL     OW 9521   2.436   3.690   1.210 -0.0680  0.2970  0.0943
  887SOL    HW1 9522   2.522   3.677   1.250 -0.2776 -0.5080  0.3051
  887SOL    HW2 9523   2.416   3.606   1.170 -0.7035  0.5240 -0.0682
  888SOL     OW 9524   0.251   5.760   8.051 -0.4990  0.0703  0.4740
  888SOL    HW1 9525   0.229   5.824   8.118  2.7460  1.9076  0.0242
  888SOL    HW2 9526   0.235   5.806   7.968  0.9879  0.0226  0.1303
  889SOL     OW 9527   8.325   3.919   2.030  0.2920  0.6533  0.3882
  889SOL    HW1 9528   8.243   3.894   2.073  1.2583 -3.8512  0.1204
  889SOL    HW2 9529   8.391   3.912   2.099  0.9866 -0.2860 -0.3376
  890SOL     OW 9530   4.141   0.524   2.767  0.0466 -0.2244  0.6700
  890SOL    HW1 9531   4.216   0.551   2.713 -0.1646  0.1870  0.5812
  890SOL    HW2 9532   4.121   0.601   2.821 -0.0270 -0.4858  1.0145
  891SOL     OW 9533   2.484   7.661   7.059 -0.0118 -0.4303 -0.5938
  891SOL    HW1 9534   2.572   7.689   7.033  0.3229 -1.7588 -0.9314
  891SOL    HW2 9535   2.479   7.681   7.152  0.9181 -1.0144 -0.4148
  892SOL     OW 9536   0.602   2.641   0.745  0.3828  0.2574 -0.0403
  892SOL    HW1 9537   0.588   2.732   0.770  0.8859 -0.1392  1.8703
  892SOL    HW2 9538   0.520   2.615   0.702  0.8004  1.9997 -2.0157
  893SOL     OW 9539   2.211   3.335   8.330 -0.5969  0.3018 -0.2403
  893SOL    HW1 9540   2.225   3.253   8.282  0.2025  1.2853 -1.7814
  893SOL    HW2 9541   2.297   3.376   8.334 -0.8894  0.8558  0.9471
  894SOL     OW 9542  11.777  11.081   5.494 -0.0913  0.0303 -0.3114
  894SOL    HW1 9543  11.688  11.113   5.503  0.1003  1.1682 -1.9496
  894SOL    HW2 9544  11.821  11.110   5.574 -0.2338  3.0096 -1.1863
  895SOL     OW 9545   0.416   9.836   3.268  0.2252 -0.1857  0.6973
  895SOL    HW1 9546   0.392   9.841   3.360 -0.5945 -1.1597  0.5435
  895SOL    HW2 9547   0.491   9.777   3.265  0.2261 -0.1863  0.7352
  896SOL     OW 9548   8.492  10.719   2.730 -0.5863  0.0235  0.2769
  896SOL    HW1 9549   8.437  10.641   2.718  0.6388 -0.9786  1.0201
  896SOL    HW2 9550   8.536  10.730   2.646  2.0156 -2.3230  1.1962
  897SOL     OW 9551   9.111  10.239   0.035  0.4162 -0.2504  0.0708
  897SOL    HW1 9552   9.104  10.165   0.096  0.3059 -0.5106 -0.2529
  897SOL    HW2 9553   9.095  10.316   0.089 -1.6936 -0.5923  0.0265
  898SOL     OW 9554   1.266  11.131   9.869 -0.0685 -0.0551  1.0290
  898SOL    HW1 9555   1.359  11.142   9.852 -0.2208  0.7101  0.6307
  898SOL    HW2 9556   1.262  11.067   9.940  0.7390 -0.4058  0.7670
  899SOL     OW 9557   3.953   5.977   9.662 -0.6802  0.3110 -0.4766
  899SOL    HW1 9558   3.927   6.006   9.574  1.1259  0.2693 -1.0582
  899SOL    HW2 9559   4.045   6.000   9.669  0.3242 -3.1458 -0.1349
  900SOL     OW 9560   7.684   2.564   1.242  0.1422  0.3372 -0.3157
  900SOL    HW1 9561   7.728   2.492   1.286 -1.4379  1.3121  3.2227
  900SOL    HW2 9562   7.636   2.523   1.169  2.4371 -1.4681 -0.9109
  901SOL     OW 9563  10.822   5.188   8.677 -0.0098 -0.3635  0.2825
  901SOL    HW1 9564  10.760   5.250   8.637  0.3067 -0.7176 -0.7816
  901SOL    HW2 9565  10.798   5.187   8.769 -1.5198 -0.3879 -0.0850
  902SOL     OW 9566   6.017   7.249   5.283  0.3323  0.4641 -0.0540
  902SOL    HW1 9567   5.958   7.214   5.216  1.2643  0.7435 -1.0460
  902SOL    HW2 9568   6.033   7.175   5.341  2.1003 -0.7847 -2.0004
  903SOL     OW 9569   6.458   3.518  10.273  0.4639 -0.0441 -0.4133
  903SOL    HW1 9570   6.452   3.573  10.352 -0.5992 -1.2160  0.3564
  903SOL    HW2 9571   6.511   3.443  10.301  1.3343  0.2255 -1.2659
  904SOL     OW 9572   4.218   8.216   6.465  0.3784 -0.1976 -0.5349
  904SOL    HW1 9573   4.217   8.121   6.471  2.0283 -0.2514 -0.7087
  904SOL    HW2 9574   4.284   8.235   6.398  0.1497  1.0710 -0.4203
  905SOL     OW 9575   4.092   8.785   8.856 -0.2407 -0.4899  0.1258
  905SOL    HW1 9576   4.090   8.691   8.841  0.6873 -0.3397 -1.0145
  905SOL    HW2 9577   4.185   8.808   8.859 -0.4447  0.3282  0.8956
  906SOL     OW 9578   3.905   8.129  10.507  0.1313  0.0560  0.7783
  906SOL    HW1 9579   3.897   8.203  10.567 -0.5437  0.4836  0.1755
  906SOL    HW2 9580   3.941   8.166  10.427  0.9292 -0.4962  0.8672
  907SOL     OW 9581   4.717  11.476   1.999 -0.5191 -0.7374 -0.6323
  907SOL    HW1 9582   4.792  11.535   1.991 -1.3510  0.4056 -0.1574
  907SOL    HW2 9583   4.643  11.533   2.022 -1.6193 -1.7898 -1.4413
  908SOL     OW 9584   3.178   8.697   1.976  0.0363 -0.1098  0.0539
  908SOL    HW1 9585   3.154   8.640   2.049 -1.2298  0.4184  0.0808
  908SOL    HW2 9586   3.268   8.725   1.996  0.4421 -1.5426  0.3644
  909SOL     OW 9587   0.871  10.588   0.133  0.7663 -0.0396 -0.0977
  909SOL    HW1 9588   0.843  10.661   0.079 -1.0568  0.5511  1.5234
  909SOL    HW2 9589   0.830  10.604   0.218  1.4099 -2.2609  0.7034
  910SOL     OW 9590  12.044   8.141   0.901  0.6026 -0.0990  0.1229
  910SOL    HW1 9591  12.041   8.236   0.913  0.9473  0.1292 -1.3242
  910SOL    HW2 9592  12.012   8.104   0.983  0.2915  1.2749  0.6323
  911SOL     OW 9593   6.419   4.691   0.192  0.4039 -0.7060  1.2597
  911SOL    HW1 9594   6.462   4.606   0.187  3.3211  0.6721  1.0876
  911SOL    HW2 9595   6.488   4.752   0.217 -1.4321  1.7518  0.7461
  912SOL     OW 9596   8.058   8.806   1.322  0.1902  0.1311  0.5561
  912SOL    HW1 9597   8.048   8.717   1.356 -0.2049  0.5003  1.4132
  912SOL    HW2 9598   8.019   8.863   1.388 -0.9151  0.8478 -0.6624
  913SOL     OW 9599   5.065   2.328   6.875  0.6216  0.3314  0.4648
  913SOL    HW1 9600   5.143   2.382   6.887  1.1798 -0.6608  1.3673
  913SOL    HW2 9601   5.006   2.355   6.946  1.5636 -1.3805  1.9407
  914SOL     OW 9602  12.302  10.347   9.232  0.0943 -0.3675 -0.1324
  914SOL    HW1 9603  12.386  10.380   9.263  0.2215 -0.3796 -0.4646
  914SOL    HW2 9604  12.260  10.311   9.311  0.1960  0.0654  0.1184
  915SOL     OW 9605   1.994   9.759   0.217  0.4450  0.2592 -0.5220
  915SOL    HW1 9606   2.026   9.742   0.305  1.6492 -0.8088 -1.1341
  915SOL    HW2 9607   1.901   9.735   0.220  0.6747 -0.5630  0.2442
  916SOL     OW 9608  12.031   6.902   0.307  0.1295  0.0891  0.1259
  916SOL    HW1 9609  11.977   6.859   0.374  1.7466 -1.2548  0.6431
  916SOL    HW2 9610  12.102   6.942   0.357  0.4862  0.4449 -0.6641
  917SOL     OW 9611   9.121  10.549   5.529  0.1187 -0.3828 -0.0533
  917SOL    HW1 9612   9.153  10.590   5.609  0.2093  0.5813 -0.5759
  917SOL    HW2 9613   9.132  10.455   5.545  2.2402 -0.1388  0.1914
  918SOL     OW 9614   1.536   7.488   6.801 -0.2228 -0.0165 -0.5197
  918SOL    HW1 9615   1.527   7.527   6.714  1.8988  0.0460 -0.7643
  918SOL    HW2 9616   1.610   7.533   6.840 -0.8543 -0.3712  1.1748
  919SOL     OW 9617   6.177   6.127   2.724 -0.4792 -0.5412 -0.6138
  919SOL    HW1 9618   6.150   6.219   2.720  0.5949  0.0169  2.3941
  919SOL    HW2 9619   6.118   6.087   2.788  0.9546 -1.1447  0.3864
  920SOL     OW 9620   0.183   1.592   1.744  0.4621  0.1759 -0.0050
  920SOL    HW1 9621   0.227   1.595   1.829  0.4754  1.0261 -0.0379
  920SOL    HW2 9622   0.231   1.525   1.694  1.3459  0.6717  0.1652
  921SOL     OW 9623   9.613   9.940  12.202 -0.4207 -0.3698  0.0809
  921SOL    HW1 9624   9.612   9.995  12.280  0.1734 -0.4029  0.1140
  921SOL    HW2 9625   9.611  10.001  12.129  0.3132 -0.3027  0.1170
  922SOL     OW 9626   8.977   1.984   0.897  0.1220 -0.2649 -0.0565
  922SOL    HW1 9627   9.019   1.910   0.942  0.9802  1.0146  1.3183
  922SOL    HW2 9628   9.038   2.007   0.827 -1.0222 -1.9947 -1.7289
  923SOL     OW 9629   2.947   3.750   7.075 -0.0736 -0.0239  0.3257
  923SOL    HW1 9630   2.903   3.809   7.014 -0.9483 -0.0576  0.8983
  923SOL    HW2 9631   3.009   3.806   7.122 -0.2187  0.2440  0.2002
  924SOL     OW 9632   7.476   3.803   0.584 -0.0175 -0.0489  0.1538
  924SOL    HW1 9633   7.510   3.718   0.611 -0.5591 -0.4129 -0.2967
  924SOL    HW2 9634   7.381   3.792   0.582 -0.0125 -0.4042 -2.9815
  925SOL     OW 9635  11.186   9.466  10.688 -0.7263 -0.2611  0.0811
  925SOL    HW1 9636  11.166   9.516  10.609 -0.8033  0.8806  0.7895
  925SOL    HW2 9637  11.175   9.529  10.760 -1.8697 -1.5756  1.1139
  926SOL     OW 9638  10.909   7.939   8.384  0.6240 -0.1812  0.1316
  926SOL    HW1 9639  10.979   7.900   8.331  0.2897 -0.6061  0.0035
  926SOL    HW2 9640  10.885   8.019   8.337  1.1457  0.0630  0.2703
  927SOL     OW 9641   2.072  10.810   5.987 -0.5326 -0.3092  0.2467
  927SOL    HW1 9642   2.017  10.883   6.017  1.1446  1.4606 -0.7050
  927SOL    HW2 9643   2.011  10.738   5.973 -2.2681  0.8627  1.3493
  928SOL     OW 9644   4.105   3.446   7.174  0.2543 -0.4577 -0.2779
  928SOL    HW1 9645   4.030   3.475   7.121  1.3861  0.5631 -1.3845
  928SOL    HW2 9646   4.180   3.493   7.137  1.2129 -0.2382  1.8039
  929SOL     OW 9647  10.484   2.989   7.007 -0.1146  0.1727  0.0730
  929SOL    HW1 9648  10.549   2.949   7.065 -0.7034 -1.5384 -0.3790
  929SOL    HW2 9649  10.435   3.049   7.063  1.4906  1.1221  0.5350
  930SOL     OW 9650   7.759   6.219   8.778  0.2811 -0.1893  0.8104
  930SOL    HW1 9651   7.708   6.154   8.728  0.2008  0.8188 -0.4837
  930SOL    HW2 9652   7.702   6.245   8.850 -0.4191 -0.2149  0.2728
  931SOL     OW 9653   5.446  10.540   8.318  0.2653 -0.2262  0.6657
  931SOL    HW1 9654   5.503  10.617   8.307 -0.2810  0.0465 -0.4352
  931SOL    HW2 9655   5.476  10.479   8.250 -0.1975 -0.4177  0.6308
  932SOL     OW 9656   2.752  11.346   0.656 -0.7291 -0.1985  0.0595
  932SOL    HW1 9657   2.667  11.327   0.617 -0.9506 -0.3845  0.6236
  932SOL    HW2 9658   2.808  11.273   0.630 -0.3936  0.5078 -1.3144
  933SOL     OW 9659   6.772   1.023  11.623  0.0512 -0.0806 -0.4201
  933SOL    HW1 9660   6.729   1.094  11.670  1.3320 -0.5448  1.5738
  933SOL    HW2 9661   6.856   1.060  11.596  0.0170 -0.3353 -0.8943
  934SOL     OW 9662   1.892   5.750   5.713 -0.2912 -0.2442  0.4780
  934SOL    HW1 9663   1.837   5.826   5.729 -0.6242 -0.6302  1.2172
  934SOL    HW2 9664   1.980   5.786   5.698 -0.8759  0.4545 -1.6778
  935SOL     OW 9665  12.023   9.576   9.612 -0.2731 -0.2466 -0.4520
  935SOL    HW1 9666  12.020   9.659   9.660  2.7820  1.0822 -2.3075
  935SOL    HW2 9667  12.081   9.520   9.664 -0.1554 -0.2593 -0.5983
  936SOL     OW 9668   7.509  10.381   5.635 -0.1554  0.1428 -0.1524
  936SOL    HW1 9669   7.460  10.341   5.563  0.0176  2.0783 -1.3961
  936SOL    HW2 9670   7.450  10.447   5.672  0.7080  0.9921 -0.2525
  937SOL     OW 9671   1.968   9.807   7.806  0.0676  0.6016  0.1422
  937SOL    HW1 9672   1.982   9.732   7.863 -0.4462  1.4677  1.4426
  937SOL    HW2 9673   1.878   9.796   7.774 -0.8772  1.8106  2.1803
  938SOL     OW 9674   4.701   4.431   1.634  0.4434  0.6414 -0.2644
  938SOL    HW1 9675   4.711   4.525   1.618  1.5188  0.5561 -0.1897
  938SOL    HW2 9676   4.623   4.423   1.688 -0.2404  1.3983 -1.1059
  939SOL     OW 9677   6.531   2.826   9.713  0.6111  0.2418 -0.3653
  939SOL    HW1 9678   6.593   2.818   9.641  1.1136 -0.3139  0.1165
  939SOL    HW2 9679   6.447   2.843   9.670  0.9722  0.3215 -1.0590
  940SOL     OW 9680   5.430   0.114   0.327 -0.4439 -0.1662  0.4124
  940SOL    HW1 9681   5.372   0.057   0.378  0.2795 -0.9393  0.3976
  940SOL    HW2 9682   5.515   0.070   0.329 -0.1737  0.2682 -0.6706
  941SOL     OW 9683   5.139   9.341   9.095 -0.3110  0.1245  0.2545
  941SOL    HW1 9684   5.185   9.332   9.011  1.3693  0.8597  1.0306
  941SOL    HW2 9685   5.055   9.381   9.073  1.0542  2.5875 -0.9119
  942SOL     OW 9686   8.255  10.752  11.014  0.3246 -0.3532  0.7360
  942SOL    HW1 9687   8.167  10.737  11.046 -1.4052  0.5649 -2.9728
  942SOL    HW2 9688   8.300  10.668  11.026 -2.1023 -1.8681 -0.0959
  943SOL     OW 9689   4.582   7.761   6.788 -0.7633 -0.4246 -0.2172
  943SOL    HW1 9690   4.499   7.723   6.759  0.0468 -1.4874 -1.2141
  943SOL    HW2 9691   4.648   7.723   6.731  0.3955  0.6539  0.3402
  944SOL     OW 9692   5.508   6.706   7.908  0.4853  0.6724  0.5469
  944SOL    HW1 9693   5.523   6.713   8.002 -0.0557 -1.0559  0.8009
  944SOL    HW2 9694   5.533   6.791   7.873 -1.0636  2.0128  2.4873
  945SOL     OW 9695   7.184   0.470  10.974  0.1511  0.2631  0.1024
  945SOL    HW1 9696   7.112   0.505  10.922 -1.8416  1.7478  3.4564
  945SOL    HW2 9697   7.167   0.376  10.979 -0.8543  0.4164 -0.2259
  946SOL     OW 9698   7.399   5.395   3.937  0.2961  0.0743  0.4621
  946SOL    HW1 9699   7.491   5.374   3.950  0.8854  2.1543  0.1410
  946SOL    HW2 9700   7.375   5.352   3.856  0.3334 -2.2241  1.5926
  947SOL     OW 9701  12.380   5.544   9.920  0.4366  0.2441  0.5786
  947SOL    HW1 9702  12.442   5.543   9.993  0.4468  0.5089  0.5738
  947SOL    HW2 9703  12.418   5.485   9.855  0.7311  0.4766  0.5383
  948SOL     OW 9704  12.435   9.310   3.973 -0.2484 -0.1771  0.6350
  948SOL    HW1 9705  12.397   9.297   3.886 -0.1954  1.1216  0.4074
  948SOL    HW2 9706  12.527   9.283   3.963 -0.3240 -0.3452  0.3769
  949SOL     OW 9707   1.077   4.831  12.257  0.4793  0.3601  0.0646
  949SOL    HW1 9708   0.990   4.805  12.289  0.0355  1.0145 -0.5518
  949SOL    HW2 9709   1.108   4.894  12.322 -1.2024  3.0953 -1.5371
  950SOL     OW 9710   0.809   9.343   9.199  0.3606  0.2243 -0.5736
  950SOL    HW1 9711   0.847   9.261   9.168  0.5837  0.2158 -0.2877
  950SOL    HW2 9712   0.879   9.408   9.187  0.2063  0.3593 -0.7413
  951SOL     OW 9713  11.402   4.869   4.648  0.3393  0.2221 -0.1302
  951SOL    HW1 9714  11.372   4.841   4.562 -1.9704 -0.0645  0.6804
  951SOL    HW2 9715  11.356   4.811   4.709 -1.0464  2.7360  1.4121
  952SOL     OW 9716   1.285   6.764   2.044  0.5466  0.4359  0.3284
  952SOL    HW1 9717   1.237   6.767   2.126 -0.8466  0.6480 -0.4591
  952SOL    HW2 9718   1.284   6.672   2.019 -1.8410  0.7409 -0.9867
  953SOL     OW 9719   4.487   3.647   7.025  0.5709 -0.5317  0.1796
  953SOL    HW1 9720   4.554   3.710   6.999  0.2713 -0.8162 -1.4311
  953SOL    HW2 9721   4.412   3.701   7.050  0.3024 -0.1971 -1.2176
  954SOL     OW 9722   5.642   3.632   1.336 -0.1297  0.3387 -0.1801
  954SOL    HW1 9723   5.674   3.648   1.425 -1.0141 -1.3982  0.4872
  954SOL    HW2 9724   5.688   3.554   1.306 -1.0265 -0.0390 -0.6149
  955SOL     OW 9725   1.412   4.324  11.565  0.7853  0.3276  0.2986
  955SOL    HW1 9726   1.408   4.411  11.606  0.1804  0.2838  0.3401
  955SOL    HW2 9727   1.389   4.339  11.474  0.8810  0.2426  0.2605
  956SOL     OW 9728   8.353   1.925   7.972  0.0087 -0.9643  0.3590
  956SOL    HW1 9729   8.260   1.948   7.977  0.1452 -0.6159  1.9284
  956SOL    HW2 9730   8.359   1.841   8.019  0.3457 -1.4920 -0.6038
  957SOL     OW 9731   4.995   1.771   8.071 -0.6451 -0.5907 -0.1579
  957SOL    HW1 9732   4.985   1.858   8.110 -1.6192 -0.8540  0.2129
  957SOL    HW2 9733   4.905   1.743   8.052 -0.2505 -0.8390 -1.8026
  958SOL     OW 9734   5.367  11.873   9.928  0.2072  0.3948 -0.5076
  958SOL    HW1 9735   5.374  11.779   9.942  0.7536  0.5882  0.6092
  958SOL    HW2 9736   5.439  11.894   9.868 -0.4792 -0.0201 -1.5124
  959SOL     OW 9737   4.999   7.921  10.639  0.3090  0.6969  0.3004
  959SOL    HW1 9738   5.024   7.964  10.721  1.6334  1.9958 -0.7429
  959SOL    HW2 9739   5.079   7.877  10.610 -0.8665 -2.2532  1.0958
  960SOL     OW 9740   2.155  10.802  12.348 -0.3543 -0.7833  0.0171
  960SOL    HW1 9741   2.230  10.839  12.396 -0.0587 -0.3881 -0.7349
  960SOL    HW2 9742   2.079  10.827  12.400 -0.2684  1.7502 -0.9382
  961SOL     OW 9743   8.814   4.329   0.768 -0.6349 -0.7972 -0.4316
  961SOL    HW1 9744   8.900   4.319   0.727 -0.4050 -0.1675 -0.1133
  961SOL    HW2 9745   8.759   4.263   0.724  0.0797 -1.4194 -0.4235
  962SOL     OW 9746   0.961   0.464   2.553  0.0203  0.2514 -0.0379
  962SOL    HW1 9747   0.952   0.499   2.464 -0.4440 -1.0813 -0.5309
  962SOL    HW2 9748   1.052   0.433   2.558 -0.1747 -0.3850 -0.3263
  963SOL     OW 9749   2.345  10.597   1.230  0.0300 -0.3222  0.7799
  963SOL    HW1 9750   2.335  10.502   1.229  0.4497 -0.3746  1.2575
  963SOL    HW2 9751   2.368  10.618   1.320  0.8097  0.1422  0.4895
  964SOL     OW 9752   6.911   2.811   1.405  0.6786  0.2463 -0.2474
  964SOL    HW1 9753   6.981   2.851   1.353 -0.7182  1.2293 -1.4604
  964SOL    HW2 9754   6.902   2.869   1.481  1.7277 -0.3720  0.3815
  965SOL     OW 9755  11.891   1.447   1.297  0.0803 -0.0787 -0.7798
  965SOL    HW1 9756  11.977   1.485   1.317 -1.1540  3.7352 -1.7160
  965SOL    HW2 9757  11.854   1.424   1.382  0.3075  2.6574  0.1640
  966SOL     OW 9758  12.217   1.669   2.467  0.1421  0.4758  0.5117
  966SOL    HW1 9759  12.249   1.640   2.552  1.0285  0.2679  0.1173
  966SOL    HW2 9760  12.134   1.622   2.455  0.2606  0.1260  1.0423
  967SOL     OW 9761   7.500   9.744  10.442  0.0407 -0.1367 -0.3748
  967SOL    HW1 9762   7.567   9.781  10.500 -0.0718 -0.5799  0.0462
  967SOL    HW2 9763   7.513   9.649  10.447 -0.3540 -0.2062 -0.6125
  968SOL     OW 9764   3.608   6.132   7.084 -0.3405 -0.1566  0.6555
  968SOL    HW1 9765   3.537   6.116   7.146 -1.4491  0.9787 -0.2698
  968SOL    HW2 9766   3.573   6.102   7.000  1.1885 -1.8212  0.5272
  969SOL     OW 9767   8.290   7.877   1.249 -0.4437 -0.7191  0.0227
  969SOL    HW1 9768   8.235   7.935   1.197  0.0357  0.5001  0.8309
  969SOL    HW2 9769   8.269   7.899   1.340  2.1993  0.6516  0.3809
  970SOL     OW 9770   1.547   3.484   6.037 -0.4145  0.5264  0.2925
  970SOL    HW1 9771   1.632   3.488   5.994 -0.5516  0.6568  0.0258
  970SOL    HW2 9772   1.507   3.403   6.003 -1.3959  1.6981 -1.5200
  971SOL     OW 9773   2.411   2.919   3.767 -0.2588 -0.1131  0.4446
  971SOL    HW1 9774   2.379   2.834   3.736 -1.1467  0.3113  0.1734
  971SOL    HW2 9775   2.464   2.898   3.843 -0.7540 -0.8877  0.5881
  972SOL     OW 9776  10.402   1.236   0.508 -0.0002  0.1404  0.5684
  972SOL    HW1 9777  10.458   1.246   0.431 -0.0411  0.6127  0.6000
  972SOL    HW2 9778  10.432   1.154   0.548 -0.4755 -0.5115 -0.3610
  973SOL     OW 9779   3.903   7.675   0.780  0.3716  0.0496  0.3412
  973SOL    HW1 9780   3.953   7.719   0.712  2.0629 -0.6275  1.0808
  973SOL    HW2 9781   3.890   7.742   0.847  1.7706 -0.1591  0.8675
  974SOL     OW 9782   2.176  10.810   1.452 -0.5982 -0.1519 -0.2573
  974SOL    HW1 9783   2.167  10.774   1.540  0.7526 -0.4228 -0.2073
  974SOL    HW2 9784   2.153  10.902   1.460  1.2379  0.2718  0.7941
  975SOL     OW 9785  11.330   3.919   8.931  0.1154  0.0725  0.4587
  975SOL    HW1 9786  11.400   3.944   8.991  2.3371 -2.0258 -1.0532
  975SOL    HW2 9787  11.326   3.991   8.868  0.6257  0.4212  0.8131
  976SOL     OW 9788   9.478   0.660   8.023 -0.2153  0.2101 -0.2096
  976SOL    HW1 9789   9.451   0.698   8.107  1.7094  0.8980  0.1484
  976SOL    HW2 9790   9.446   0.570   8.026 -0.3519  0.2769  1.1925
  977SOL     OW 9791  12.221  11.641   0.590 -0.0747  0.4739  0.5300
  977SOL    HW1 9792  12.149  11.583   0.566  1.1620 -0.5047 -0.9522
  977SOL    HW2 9793  12.179  11.727   0.601 -1.1064  0.6338 -3.3327
  978SOL     OW 9794  11.901  10.034   0.236  0.2072  0.6092 -0.5172
  978SOL    HW1 9795  11.873   9.982   0.160  1.1578 -3.8471  1.8272
  978SOL    HW2 9796  11.993  10.011   0.248  0.4088  2.1114  1.3290
  979SOL     OW 9797   0.986   8.449  10.661  0.0939  0.1058  0.2518
  979SOL    HW1 9798   1.036   8.462  10.742  1.8665  0.1445 -0.7937
  979SOL    HW2 9799   0.953   8.536  10.640 -2.5371 -0.3035  2.1829
  980SOL     OW 9800   4.885  10.839   2.157  0.0901  0.4871  0.3261
  980SOL    HW1 9801   4.926  10.753   2.150  0.8191  0.8383  0.2110
  980SOL    HW2 9802   4.894  10.877   2.070  0.6593  1.0750  0.6413
  981SOL     OW 9803   3.796   1.254  11.219 -0.1419 -0.1388  0.4395
  981SOL    HW1 9804   3.778   1.283  11.309  0.0921 -1.0052  0.7691
  981SOL    HW2 9805   3.804   1.335  11.169  0.2753  0.3659  1.3059
  982SOL     OW 9806   9.436  11.502   5.210  0.1312  0.1130  0.0359
  982SOL    HW1 9807   9.479  11.567   5.266  1.3021 -1.4082  0.9858
  982SOL    HW2 9808   9.342  11.518   5.224  0.3836  0.2586  1.9344
  983SOL     OW 9809   5.059   5.993   1.617  0.3276 -0.3471 -0.0344
  983SOL    HW1 9810   5.072   6.057   1.546 -1.5656 -1.4233 -1.4528
  983SOL    HW2 9811   5.117   6.023   1.687  1.1263  1.6653 -1.4501
  984SOL     OW 9812  10.466   0.521   5.827 -0.1563 -0.7255  0.6744
  984SOL    HW1 9813  10.475   0.535   5.921  1.1190 -0.9560  0.6063
  984SOL    HW2 9814  10.555   0.525   5.794 -0.7290  1.0682 -0.7989
  985SOL     OW 9815   7.702   7.002   7.082  0.2632 -0.4096 -0.0903
  985SOL    HW1 9816   7.672   6.955   7.161  0.7597  1.0948  1.0305
  985SOL    HW2 9817   7.652   6.962   7.011 -2.4684  0.2085  1.3501
  986SOL     OW 9818  11.011   7.314   9.109 -0.0362  0.0903  0.8335
  986SOL    HW1 9819  10.941   7.261   9.070  0.1584 -0.4871  1.2577
  986SOL    HW2 9820  11.055   7.353   9.034 -0.6236  0.2197  0.5450
  987SOL     OW 9821   4.891   2.167   8.051  0.4678  0.4692  0.4419
  987SOL    HW1 9822   4.974   2.124   8.072  0.5235 -0.2534 -1.1311
  987SOL    HW2 9823   4.839   2.099   8.008  0.5647  1.9271 -2.1553
  988SOL     OW 9824   7.858   3.059   8.495  0.1895 -0.4751 -0.3497
  988SOL    HW1 9825   7.864   3.018   8.409  0.8227 -0.1357 -0.4783
  988SOL    HW2 9826   7.945   3.097   8.510 -0.0617 -0.0949  0.2178
  989SOL     OW 9827   4.803  12.300   2.116 -0.2112 -0.3578  0.3493
  989SOL    HW1 9828   4.747  12.347   2.179  1.1995  1.1018  0.5715
  989SOL    HW2 9829   4.798  12.353   2.037  0.7927 -0.2573  0.3506
  990SOL     OW 9830   5.260  11.303   4.197 -0.0741  0.5772  0.4211
  990SOL    HW1 9831   5.235  11.325   4.107  0.1887 -1.6260 -0.2681
  990SOL    HW2 9832   5.354  11.320   4.201 -0.2809  1.6981  0.6281
  991SOL     OW 9833   6.848   5.698   5.449  0.0601 -0.7920 -0.4344
  991SOL    HW1 9834   6.923   5.721   5.393  1.2645 -3.9669 -0.3039
  991SOL    HW2 9835   6.888   5.669   5.532 -1.6065  1.9010  1.4717
  992SOL     OW 9836  10.862   1.014   2.206 -0.1063  0.4294 -0.0479
  992SOL    HW1 9837  10.768   1.022   2.191 -0.3158 -2.0699 -0.5180
  992SOL    HW2 9838  10.870   0.994   2.299  0.1047  1.9829  0.2934
  993SOL     OW 9839   6.120   8.507   7.509  0.3480  0.6430  0.6143
  993SOL    HW1 9840   6.091   8.437   7.568  0.0841  0.7707  0.6344
  993SOL    HW2 9841   6.168   8.567   7.566  0.0498  0.7917  0.7085
  994SOL     OW 9842  11.283   9.193   8.223 -0.3271 -0.1922  0.1817
  994SOL    HW1 9843  11.223   9.260   8.189  0.9218  0.5692 -0.5841
  994SOL    HW2 9844  11.308   9.226   8.309 -1.2793 -0.7070  0.6751
  995SOL     OW 9845  10.121   8.551   8.638  0.2445  0.4066  0.0419
  995SOL    HW1 9846  10.068   8.496   8.581  0.8240 -0.3956  0.2476
  995SOL    HW2 9847  10.203   8.564   8.589  0.0647  1.2026 -0.0584
  996SOL     OW 9848   8.856   5.431   1.844 -0.1396 -0.1237  0.3186
  996SOL    HW1 9849   8.826   5.342   1.863 -2.2405  0.0633 -1.7014
  996SOL    HW2 9850   8.907   5.422   1.763  2.1057  0.1632  1.6264
  997SOL     OW 9851   0.487   5.920   2.611  0.5997  0.0738  0.4621
  997SOL    HW1 9852   0.415   5.940   2.552  0.0429  2.0268  1.7322
  997SOL    HW2 9853   0.445   5.897   2.694  1.4132 -0.4326  0.7483
  998SOL     OW 9854   7.375   8.398  11.884 -0.3432 -0.2015 -0.4878
  998SOL    HW1 9855   7.407   8.313  11.915 -2.1854  0.2364  3.1384
  998SOL    HW2 9856   7.297   8.376  11.832 -0.1694 -0.7676 -0.5191
  999SOL     OW 9857   4.426   4.228   3.551  0.0534 -0.4496 -0.5331
  999SOL    HW1 9858   4.491   4.163   3.522  0.1911 -0.3185 -0.5161
  999SOL    HW2 9859   4.342   4.189   3.527  0.0772 -1.0946  0.3712
 1000SOL     OW 9860   5.116   5.581   2.568  0.2463  0.2883 -0.1025
 1000SOL    HW1 9861   5.146   5.551   2.654  1.0458  2.5959  0.5155
 1000SOL    HW2 9862   5.026   5.612   2.584  0.6608  1.4424  0.1505
 1001SOL     OW 9863   6.035  11.108   7.855 -0.2404  0.6407 -0.6305
 1001SOL    HW1 9864   6.090  11.135   7.781  0.1573 -1.1449 -1.0271
 1001SOL    HW2 9865   6.080  11.143   7.932  0.1320  1.2704 -1.1193
 1002SOL     OW 9866   8.941   8.721   2.333  0.2375  0.2635  0.1942
 1002SOL    HW1 9867   8.855   8.687   2.306 -0.3851  1.4446  0.6288
 1002SOL    HW2 9868   8.990   8.730   2.251 -0.8942  1.8021 -0.3591
 1003SOL     OW 9869   6.081   0.994  10.204  0.1532 -0.2390 -0.3643
 1003SOL    HW1 9870   6.131   1.074  10.219 -0.9181  0.3015  0.4636
 1003SOL    HW2 9871   6.032   0.980  10.286  0.4789 -1.8628 -0.4093
 1004SOL     OW 9872   0.561   8.226   8.012 -0.0592 -0.2599  0.7260
 1004SOL    HW1 9873   0.539   8.135   7.995  0.8788 -0.2123 -0.9082
 1004SOL    HW2 9874   0.554   8.269   7.927  1.7719  0.7055  1.0233
 1005SOL     OW 9875   1.427   3.088  11.838 -0.1171  0.1082 -0.2671
 1005SOL    HW1 9876   1.396   3.178  11.848 -1.7663 -0.5654  1.4173
 1005SOL    HW2 9877   1.379   3.055  11.762 -0.1493  0.3894 -0.3707
 1006SOL     OW 9878   0.421   6.354   2.750  0.7495 -0.0766 -0.1750
 1006SOL    HW1 9879   0.442   6.392   2.665 -0.2705 -0.4369 -0.5948
 1006SOL    HW2 9880   0.334   6.315   2.739  0.5176  0.0396  1.0833
 1007SOL     OW 9881  11.367   5.752  11.245 -0.3024  0.4051  0.5557
 1007SOL    HW1 9882  11.426   5.749  11.169  1.0931  1.3118  1.5639
 1007SOL    HW2 9883  11.290   5.703  11.217  0.7783 -0.5276 -0.9366
 1008SOL     OW 9884   9.519   8.729   7.284  0.6856  0.7847  0.1437
 1008SOL    HW1 9885   9.592   8.787   7.269  0.2567  1.3739  0.2991
 1008SOL    HW2 9886   9.495   8.696   7.197  0.2922  1.6246 -0.0698
 1009SOL     OW 9887   9.153   0.245   1.895 -0.1247  0.0116 -0.0520
 1009SOL    HW1 9888   9.211   0.181   1.936 -0.8084  0.9335  2.5700
 1009SOL    HW2 9889   9.073   0.197   1.878 -1.0386  0.2616  2.9285
 1010SOL     OW 9890   4.054   0.860   9.596 -0.2933 -0.0367 -0.2369
 1010SOL    HW1 9891   4.006   0.799   9.539 -2.3425 -0.5650  1.8769
 1010SOL    HW2 9892   4.034   0.946   9.560 -2.8487 -0.2467  0.4808
 1011SOL     OW 9893   5.213   6.106   4.153  0.3449 -0.1571  0.5716
 1011SOL    HW1 9894   5.230   6.159   4.231 -2.5530  0.1871  1.0965
 1011SOL    HW2 9895   5.163   6.164   4.095  2.3830 -0.4213 -1.6018
 1012SOL     OW 9896   2.649   8.557   6.834 -0.5376 -0.4150  0.2782
 1012SOL    HW1 9897   2.596   8.595   6.904  0.0873  0.5691  0.2369
 1012SOL    HW2 9898   2.719   8.509   6.880  0.3146  0.8587  0.3582
 1013SOL     OW 9899   2.146  12.116   1.482 -0.2865 -0.0401  0.0898
 1013SOL    HW1 9900   2.240  12.104   1.498 -0.8514 -2.8155  2.1195
 1013SOL    HW2 9901   2.133  12.211   1.486  2.5019  0.4773 -1.0288
 1014SOL     OW 9902   7.952   7.614  10.638 -0.0487  0.0526 -0.3100
 1014SOL    HW1 9903   7.995   7.535  10.603 -0.4630  0.1150 -0.9927
 1014SOL    HW2 9904   7.923   7.661  10.560 -0.7879  0.3268  0.1173
 1015SOL     OW 9905   7.583  12.037   2.698 -0.0312  0.0606  0.3483
 1015SOL    HW1 9906   7.490  12.048   2.718 -0.3285 -0.5927 -0.6333
 1015SOL    HW2 9907   7.600  11.944   2.709  0.6924  0.2758  1.2193
 1016SOL     OW 9908   0.866  12.371  12.140  0.0720  0.2761 -0.1385
 1016SOL    HW1 9909   0.796  12.427  12.109  0.8859 -0.0792 -2.8929
 1016SOL    HW2 9910   0.846  12.355  12.232 -2.6543  1.3172 -0.4765
 1017SOL     OW 9911   4.664  11.308  10.905  0.2956 -0.7446  0.0188
 1017SOL    HW1 9912   4.571  11.325  10.889  0.4707 -0.4522 -0.7404
 1017SOL    HW2 9913   4.679  11.337  10.995  0.3480  2.2761 -0.8632
 1018SOL     OW 9914   3.102   7.533   0.874  0.3841 -0.1996  0.9167
 1018SOL    HW1 9915   3.086   7.558   0.964  1.0107  0.0172  0.9748
 1018SOL    HW2 9916   3.183   7.578   0.850  0.2554 -0.2942  0.2642
 1019SOL     OW 9917   8.480   5.702   6.137  0.3403  0.7485  0.5835
 1019SOL    HW1 9918   8.440   5.616   6.126 -1.6797  1.7446 -0.3609
 1019SOL    HW2 9919   8.443   5.737   6.218  0.5581  1.0451  0.5590
 1020SOL     OW 9920   2.967   9.969  12.179 -0.1813 -0.2060 -0.0787
 1020SOL    HW1 9921   3.047  10.016  12.203 -1.5191  1.3653  1.5735
 1020SOL    HW2 9922   2.974   9.885  12.225  1.3028 -0.8731 -1.4219
 1021SOL     OW 9923  11.911   3.251  12.307  0.4841 -1.0761  0.2333
 1021SOL    HW1 9924  11.978   3.182  12.309  0.2375 -1.3090  0.5546
 1021SOL    HW2 9925  11.961   3.332  12.305  0.7900 -1.2735 -0.9854
 1022SOL     OW 9926   1.059   5.773   5.882  0.1434 -0.7727 -0.0126
 1022SOL    HW1 9927   1.062   5.852   5.828 -0.4748 -0.4608  0.3938
 1022SOL    HW2 9928   1.151   5.751   5.897  0.3195 -0.6008 -0.8053
 1023SOL     OW 9929   6.081   6.314   0.141 -0.3124  0.0637  0.6861
 1023SOL    HW1 9930   6.013   6.378   0.162 -1.6188 -0.3708 -1.7797
 1023SOL    HW2 9931   6.058   6.237   0.193 -0.0867  0.7990  1.9086
 1024SOL     OW 9932   1.695   7.122   1.955  0.4675  0.5406 -0.1637
 1024SOL    HW1 9933   1.653   7.041   1.986  0.6175  0.6128  0.2384
 1024SOL    HW2 9934   1.785   7.116   1.988  1.0790 -0.0720 -1.8536
 1025SOL     OW 9935   8.659   7.440   3.041  0.6371  0.0380  0.0827
 1025SOL    HW1 9936   8.572   7.402   3.054  0.4756  0.0254 -0.9644
 1025SOL    HW2 9937   8.669   7.504   3.112  0.8238 -1.7699  1.7822
 1026SOL     OW 9938  10.158   5.204   6.169  0.5350  0.4155 -0.1825
 1026SOL    HW1 9939  10.102   5.128   6.182 -1.5153  1.7895 -0.4365
 1026SOL    HW2 9940  10.211   5.182   6.092  1.8472 -1.7132  1.2346
 1027SOL     OW 9941  12.333  11.379   6.054 -0.0985 -0.0232 -0.6614
 1027SOL    HW1 9942  12.242  11.357   6.040  0.1388 -0.8812 -0.8799
 1027SOL    HW2 9943  12.332  11.472   6.077 -0.9401  0.1878 -1.5071
 1028SOL     OW 9944  11.827   8.773   4.151 -0.2968  0.7272  0.1178
 1028SOL    HW1 9945  11.871   8.858   4.158  2.5751 -0.7126  1.4411
 1028SOL    HW2 9946  11.841   8.746   4.061 -1.6420  1.7759 -0.4514
 1029SOL     OW 9947   7.472   0.975   5.961  0.3373  0.0697 -0.1677
 1029SOL    HW1 9948   7.403   1.003   5.902 -0.3685  1.4712  1.2295
 1029SOL    HW2 9949   7.500   1.056   6.005 -0.1957 -1.0573  2.4197
 1030SOL     OW 9950  11.717   0.408   3.066  0.1239  0.1720  0.1715
 1030SOL    HW1 9951  11.659   0.469   3.020 -1.5984 -0.4635  1.3885
 1030SOL    HW2 9952  11.800   0.455   3.073 -0.5287  1.5483 -0.7218
 1031SOL     OW 9953   2.590   6.301   7.422  0.0128  0.5459  0.6287
 1031SOL    HW1 9954   2.525   6.291   7.352  0.2176  1.0364  0.3648
 1031SOL    HW2 9955   2.539   6.304   7.503 -0.2596  0.4799  0.4593
 1032SOL     OW 9956   2.132   9.093   6.013 -0.8146  0.0402  0.0692
 1032SOL    HW1 9957   2.141   9.173   6.065 -0.4324  0.5206 -0.7131
 1032SOL    HW2 9958   2.218   9.080   5.974 -1.4016  0.4335 -1.4733
 1033SOL     OW 9959   1.640   4.745   9.814  0.1965 -0.6842 -0.4921
 1033SOL    HW1 9960   1.605   4.773   9.899  3.7375  0.3354  0.8158
 1033SOL    HW2 9961   1.610   4.811   9.753 -0.0788  0.1927  0.5548
 1034SOL     OW 9962   9.183   3.504   1.749 -0.8982 -0.2675  0.2781
 1034SOL    HW1 9963   9.271   3.486   1.780 -0.8051  0.2272  0.3036
 1034SOL    HW2 9964   9.185   3.596   1.721 -1.5742 -0.0499  0.9014
 1035SOL     OW 9965   3.953  11.465   1.410 -0.1750 -0.4448  0.1287
 1035SOL    HW1 9966   3.872  11.441   1.455 -0.6693  2.7189  1.1410
 1035SOL    HW2 9967   3.945  11.423   1.324 -2.2358 -1.3395  0.6851
 1036SOL     OW 9968   4.322   7.128   5.667 -0.0928  0.0359  0.1196
 1036SOL    HW1 9969   4.417   7.114   5.665 -0.2422 -1.3433 -2.9263
 1036SOL    HW2 9970   4.312   7.221   5.646  0.5714  0.0934  0.0175
 1037SOL     OW 9971   5.966   6.779   3.067  0.2366 -0.5985  0.1458
 1037SOL    HW1 9972   5.974   6.867   3.104 -0.0637 -1.1807  1.6393
 1037SOL    HW2 9973   6.037   6.774   3.003 -0.8846  1.3683 -1.3526
 1038SOL     OW 9974   3.593   9.455   0.781 -0.1205 -0.2578  0.3367
 1038SOL    HW1 9975   3.676   9.486   0.745 -1.0930  0.9295 -1.0259
 1038SOL    HW2 9976   3.603   9.360   0.788  1.3276 -0.1296  0.1794
 1039SOL     OW 9977   5.126   8.676   0.128 -0.1097 -0.1214 -0.1920
 1039SOL    HW1 9978   5.060   8.744   0.143  0.1967 -0.1055  1.2033
 1039SOL    HW2 9979   5.193   8.719   0.075 -0.6569  0.1908 -0.6479
 1040SOL     OW 9980   9.401   5.691   5.584 -0.3299 -0.0011  0.6180
 1040SOL    HW1 9981   9.384   5.599   5.568 -2.7571 -0.1866  3.4404
 1040SOL    HW2 9982   9.492   5.694   5.614 -0.1879 -1.4745  0.3971
 1041SOL     OW 9983   6.435   2.364   7.051  0.7458 -0.3286 -0.1007
 1041SOL    HW1 9984   6.353   2.335   7.011  0.4011 -2.2149  1.7665
 1041SOL    HW2 9985   6.437   2.458   7.038 -1.2620 -0.3727 -0.9876
 1042SOL     OW 9986   3.253   1.145   1.510  0.0621  0.1448 -0.1623
 1042SOL    HW1 9987   3.322   1.211   1.507 -0.8685  1.1773  0.2058
 1042SOL    HW2 9988   3.220   1.149   1.600 -0.7790  0.0027 -0.4546
 1043SOL     OW 9989   4.857  11.007   5.314 -0.0333  0.8305  0.5167
 1043SOL    HW1 9990   4.937  11.059   5.309 -0.4368  1.5523  1.2495
 1043SOL    HW2 9991   4.801  11.055   5.376 -1.3380  0.7806 -0.5569
 1044SOL     OW 9992   6.184   4.672   2.577 -0.2180 -0.1257 -0.2182
 1044SOL    HW1 9993   6.122   4.673   2.651  1.3559  2.5983  1.2068
 1044SOL    HW2 9994   6.149   4.605   2.518 -2.2527 -1.5611  2.3820
 1045SOL     OW 9995   1.907   2.113  12.404 -0.1195  0.8619  0.2067
 1045SOL    HW1 9996   1.955   2.127  12.486  0.7399  0.9250 -0.2992
 1045SOL    HW2 9997   1.840   2.182  12.404  0.9931  1.9805  0.0431
 1046SOL     OW 9998   5.449  10.543   6.033 -0.0225  0.3991  0.1547
 1046SOL    HW1 9999   5.459  10.586   5.948  0.8115  1.2485  0.6671
 1046SOL    HW210000   5.397  10.605   6.085 -1.5131 -0.6223 -0.0841
 1047SOL     OW10001   4.621   1.283   8.244 -0.1450 -0.6907 -0.7380
 1047SOL    HW110002   4.575   1.275   8.327 -0.7424  0.6350 -0.9264
 1047SOL    HW210003   4.691   1.218   8.249  0.2978 -0.1227  1.1143
 1048SOL     OW10004   3.166   2.239   8.731 -0.4531  0.1461  0.1011
 1048SOL    HW110005   3.151   2.193   8.649  0.5850 -1.4990  0.7656
 1048SOL    HW210006   3.134   2.178   8.798  1.3001  0.1837  1.0375
 1049SOL     OW10007   0.901  11.065   4.243  0.2568  0.3616  0.2400
 1049SOL    HW110008   0.864  10.978   4.261 -0.0235  0.2445 -0.8285
 1049SOL    HW210009   0.830  11.111   4.198  0.9650  0.5770 -0.6776
 1050SOL     OW10010  10.554   3.621   4.323  0.3612 -0.6024 -0.1973
 1050SOL    HW110011  10.569   3.635   4.229 -1.0432 -1.8713 -0.6604
 1050SOL    HW210012  10.478   3.676   4.343 -0.4597 -1.6817 -0.2554
 1051SOL     OW10013  11.759  10.086  11.547  0.4352 -0.3689 -0.0867
 1051SOL    HW110014  11.664  10.078  11.556  0.6810 -4.3229  0.9450
 1051SOL    HW210015  11.784  10.156  11.607 -1.6713 -0.6172  1.1657
 1052SOL     OW10016   3.117   9.031   4.180  0.2593 -0.8981 -0.0328
 1052SOL    HW110017   3.076   8.969   4.119  0.2929 -0.1547 -0.8410
 1052SOL    HW210018   3.194   9.062   4.132  1.7313 -2.1541  1.3933
 1053SOL     OW10019   5.294   0.749   1.251  0.9026  0.2742  0.2373
 1053SOL    HW110020   5.225   0.687   1.227  0.8295  0.2923  0.3992
 1053SOL    HW210021   5.356   0.698   1.303  0.3797  0.5362  1.1551
 1054SOL     OW10022   3.690   9.590   8.037  0.0500  0.5861  0.1473
 1054SOL    HW110023   3.785   9.584   8.028  0.0059  1.3967 -1.1526
 1054SOL    HW210024   3.660   9.623   7.952 -1.3789  0.5157  0.5963
 1055SOL     OW10025  11.528   7.958   0.466  0.4512  0.3198  0.0095
 1055SOL    HW110026  11.514   7.976   0.373  0.7359  1.2164  0.1306
 1055SOL    HW210027  11.612   7.913   0.469  1.4359  2.0522 -0.0209
 1056SOL     OW10028   7.937   8.965   1.125  0.1173 -0.3960 -0.4616
 1056SOL    HW110029   7.984   8.910   1.188  0.7070  1.5568  0.9105
 1056SOL    HW210030   7.848   8.930   1.126  0.1145 -0.4755  1.4915
 1057SOL     OW10031   7.757   2.819   1.560  0.0784  0.4446  0.4821
 1057SOL    HW110032   7.677   2.784   1.599 -1.0105  1.9006 -0.3393
 1057SOL    HW210033   7.826   2.757   1.586 -1.1587 -0.4148  1.8746
 1058SOL     OW10034   2.573  10.861   4.133 -0.1947 -0.1193  0.0420
 1058SOL    HW110035   2.561  10.768   4.154 -0.6382  0.3642  2.1470
 1058SOL    HW210036   2.557  10.906   4.215 -0.8831  1.9188 -1.1561
 1059SOL     OW10037   9.716  10.766   7.449 -0.1387  0.1345 -0.0616
 1059SOL    HW110038   9.729  10.806   7.535 -0.7925 -0.6174  0.4000
 1059SOL    HW210039   9.736  10.673   7.463 -2.4550 -0.4409 -0.1321
 1060SOL     OW10040   0.460   7.184   2.832 -0.4217 -0.2635 -0.5513
 1060SOL    HW110041   0.502   7.212   2.751  1.1930 -1.5072 -0.1878
 1060SOL    HW210042   0.420   7.100   2.809  1.6430 -1.5649  0.3472
 1061SOL     OW10043   8.163   1.680   2.440 -0.5123  0.3346 -0.2728
 1061SOL    HW110044   8.125   1.680   2.528  0.5311 -0.1109  0.1855
 1061SOL    HW210045   8.249   1.721   2.450  0.5224 -1.5990 -0.6647
 1062SOL     OW10046  11.085   1.465  10.740 -0.0334  0.4455 -0.4608
 1062SOL    HW110047  11.117   1.450  10.829 -1.3272 -0.3379 -0.1096
 1062SOL    HW210048  11.156   1.514  10.697  0.6817  0.6798  0.9340
 1063SOL     OW10049   9.709   1.913  12.153  0.1287  0.4358  0.3452
 1063SOL    HW110050   9.614   1.925  12.148  0.1293  0.4707  0.4277
 1063SOL    HW210051   9.726   1.832  12.105 -0.1306 -0.5147  1.7973
 1064SOL     OW10052  11.856   0.144   5.334 -0.3626 -0.0365  0.0022
 1064SOL    HW110053  11.836   0.061   5.378 -3.0099  0.1193 -0.7638
 1064SOL    HW210054  11.881   0.119   5.245  3.0473 -0.2035  0.8534
 1065SOL     OW10055   4.370   4.567   5.382 -0.0839  0.5910  0.3349
 1065SOL    HW110056   4.464   4.577   5.393 -0.0929  0.2697  0.7365
 1065SOL    HW210057   4.337   4.656   5.369 -0.0475  1.0482  2.8143
 1066SOL     OW10058   4.975   9.924  10.291 -0.9249  0.6776  0.0186
 1066SOL    HW110059   5.039   9.989  10.261  0.0629 -0.3083 -0.1199
 1066SOL    HW210060   4.965   9.940  10.384 -2.1511  2.2247 -0.3552
 1067SOL     OW10061   0.013  10.956   9.283  0.1232 -0.3035  0.2092
 1067SOL    HW110062   0.037  11.013   9.211  0.6728  0.3742  0.9125
 1067SOL    HW210063  -0.042  10.888   9.243  0.9888 -0.3402 -0.9555
 1068SOL     OW10064   5.219   8.295   3.762 -0.7526 -0.1651  0.0714
 1068SOL    HW110065   5.207   8.375   3.813 -3.0357 -0.3831 -0.0339
 1068SOL    HW210066   5.137   8.285   3.713 -0.3529 -2.3371 -0.2381
 1069SOL     OW10067   8.959   6.079   0.078  0.2527  0.4036 -0.0792
 1069SOL    HW110068   8.968   6.051  -0.013  0.6669  1.3836 -0.3525
 1069SOL    HW210069   9.049   6.097   0.106 -0.0259  1.7571 -0.0210
 1070SOL     OW10070   4.019   3.163   4.741 -0.6718 -0.0048 -0.4592
 1070SOL    HW110071   4.085   3.202   4.799 -2.8703  0.7323  1.7349
 1070SOL    HW210072   3.943   3.221   4.750 -2.0136 -1.4408 -1.9773
 1071SOL     OW10073   0.323  11.668   1.540 -0.2464 -0.5181 -0.3343
 1071SOL    HW110074   0.326  11.731   1.612  1.0828 -0.2200 -0.6166
 1071SOL    HW210075   0.231  11.643   1.534 -0.8037  1.2969 -0.1165
 1072SOL     OW10076   0.892   7.446   7.587  0.3868  0.4171 -0.1567
 1072SOL    HW110077   0.880   7.479   7.498  0.1081  0.7254 -0.0033
 1072SOL    HW210078   0.943   7.365   7.575  0.0602  0.2766 -0.6203
 1073SOL     OW10079   4.600   9.367   4.573  0.7847 -0.0132 -0.5678
 1073SOL    HW110080   4.548   9.310   4.629  0.8643  1.3193  0.9337
 1073SOL    HW210081   4.653   9.308   4.520 -0.1855 -1.3321 -0.1052
 1074SOL     OW10082   7.484   4.431   7.284  0.3128 -0.4265  0.6856
 1074SOL    HW110083   7.417   4.500   7.283  1.6048  0.9003 -0.7245
 1074SOL    HW210084   7.498   4.410   7.191  1.1185 -1.4229  1.0156
 1075SOL     OW10085   3.038   5.431   2.437  0.7525  0.0258 -0.3926
 1075SOL    HW110086   3.005   5.347   2.408  2.0073 -0.3643 -0.7470
 1075SOL    HW210087   2.992   5.495   2.383 -0.2741 -0.4079 -0.0578
 1076SOL     OW10088  11.581   1.264   9.689 -0.4688  0.4725  0.0196
 1076SOL    HW110089  11.646   1.227   9.748  0.3629  0.7282 -0.7104
 1076SOL    HW210090  11.510   1.200   9.687 -0.2123  0.1570  0.7783
 1077SOL     OW10091   7.042   0.411   7.591  0.2848 -0.4576 -0.1225
 1077SOL    HW110092   7.058   0.502   7.566 -3.1778  0.2095 -0.4631
 1077SOL    HW210093   7.102   0.395   7.664  1.3723  1.9085 -0.4124
 1078SOL     OW10094   6.855  11.753   4.830  0.1465 -0.4542  0.0775
 1078SOL    HW110095   6.882  11.757   4.738  0.5176  1.2985  0.2268
 1078SOL    HW210096   6.773  11.703   4.829 -1.3544  1.8203 -1.6217
 1079SOL     OW10097  10.389   4.733   7.358 -0.2284 -0.1789 -0.6762
 1079SOL    HW110098  10.475   4.765   7.332 -0.2766 -1.4218 -2.5414
 1079SOL    HW210099  10.335   4.741   7.280 -1.5047 -0.4779  0.1340
 1080SOL     OW10100   4.561   9.298  11.061 -0.4438  0.5605  0.0418
 1080SOL    HW110101   4.564   9.306  10.966 -1.4972  1.2858  0.0612
 1080SOL    HW210102   4.579   9.386  11.094  0.3671  0.2253  0.5375
 1081SOL     OW10103  10.426  10.093   4.466  0.2011  0.3862 -0.0195
 1081SOL    HW110104  10.454  10.066   4.378 -0.1888  1.0498 -0.3630
 1081SOL    HW210105  10.506  10.089   4.519  0.1750 -1.3195 -0.0588
 1082SOL     OW10106  11.840   9.344   7.646 -0.3542 -0.4396 -0.1510
 1082SOL    HW110107  11.878   9.299   7.570 -1.5700  0.1859 -1.1608
 1082SOL    HW210108  11.789   9.415   7.609 -0.6201  0.1624  1.2986
 1083SOL     OW10109   7.155   5.890  11.429 -0.2999  0.6727 -0.0829
 1083SOL    HW110110   7.235   5.907  11.479 -0.2331  2.2775 -0.6808
 1083SOL    HW210111   7.127   5.976  11.399 -2.4695  0.1969  0.4129
 1084SOL     OW10112  10.928  11.775   0.742  0.5290 -0.8183  0.0051
 1084SOL    HW110113  10.974  11.694   0.763 -0.4753 -1.3997  0.0512
 1084SOL    HW210114  10.862  11.783   0.812 -0.1011 -0.5513 -0.6100
 1085SOL     OW10115   6.710   4.794   8.000  0.1500 -0.5466 -0.2253
 1085SOL    HW110116   6.621   4.829   7.998  0.3017 -0.1461  0.1535
 1085SOL    HW210117   6.729   4.774   7.908 -0.3968 -0.8085 -0.2876
 1086SOL     OW10118  10.073  11.485  10.712  0.2176 -0.0857 -0.1817
 1086SOL    HW110119  10.122  11.455  10.636  0.9402  2.0375 -0.6230
 1086SOL    HW210120  10.134  11.542  10.759 -0.8855  0.3011  0.8493
 1087SOL     OW10121   6.797  10.192  11.455  0.1636  0.5884 -0.5726
 1087SOL    HW110122   6.873  10.142  11.482  0.3257  0.6817 -0.8530
 1087SOL    HW210123   6.786  10.172  11.362 -0.3035  0.3818 -0.4757
 1088SOL     OW10124   1.819  10.343   0.802  0.1656 -0.4475  0.4254
 1088SOL    HW110125   1.865  10.289   0.738 -0.3101 -0.6837  0.2836
 1088SOL    HW210126   1.791  10.282   0.870 -1.9027 -0.7101 -0.5761
 1089SOL     OW10127   0.821   7.169   4.284  0.0739 -0.1020  0.5062
 1089SOL    HW110128   0.832   7.183   4.378  2.5011  0.2741  0.2370
 1089SOL    HW210129   0.854   7.080   4.269 -1.9569 -0.8527  0.2158
 1090SOL     OW10130  12.417  10.696   5.695  0.1604  0.0915  0.5445
 1090SOL    HW110131  12.426  10.680   5.601 -1.6193 -1.2601  0.5570
 1090SOL    HW210132  12.496  10.657   5.733  0.0934 -0.8796 -0.2660
 1091SOL     OW10133   9.690   8.215  12.388  0.4799 -0.3921 -0.5739
 1091SOL    HW110134   9.614   8.261  12.353  0.7724  0.0678 -0.6088
 1091SOL    HW210135   9.738   8.186  12.311  1.2495  0.8273 -0.5750
 1092SOL     OW10136   8.052   7.810   5.138  0.7868 -0.5774  0.0790
 1092SOL    HW110137   7.967   7.793   5.096  0.6985  0.0562 -0.0023
 1092SOL    HW210138   8.034   7.800   5.232  0.2619  1.0023  0.1745
 1093SOL     OW10139  10.126   9.142   6.536 -0.2324 -0.1460 -0.1408
 1093SOL    HW110140  10.187   9.094   6.480  1.1457  1.6382 -0.2549
 1093SOL    HW210141  10.051   9.083   6.545  0.4110 -1.3752 -2.0907
 1094SOL     OW10142   1.757   8.819  11.949  0.7069  0.5547  0.3710
 1094SOL    HW110143   1.818   8.891  11.965  0.4507  0.6767  0.8115
 1094SOL    HW210144   1.788   8.749  12.006  0.1457  0.7858  0.9721
 1095SOL     OW10145   2.227   4.615   9.603  0.5151  0.1122  0.2211
 1095SOL    HW110146   2.140   4.581   9.623  0.0916  1.5577  0.9983
 1095SOL    HW210147   2.280   4.537   9.585 -0.6366 -0.8736  0.9434
 1096SOL     OW10148   7.448  10.780  12.258 -0.3739  0.1978 -0.3471
 1096SOL    HW110149   7.465  10.756  12.349  0.9947  0.4187 -0.5117
 1096SOL    HW210150   7.467  10.874  12.254  2.8720 -0.3420 -1.4761
 1097SOL     OW10151   9.604   5.441   5.722 -0.3307 -0.3778 -0.3793
 1097SOL    HW110152   9.531   5.485   5.767  0.4056 -0.5794  1.0540
 1097SOL    HW210153   9.564   5.407   5.642 -1.6175  0.2818 -0.0596
 1098SOL     OW10154   8.361  10.329   1.191  0.2301  0.0776 -0.3784
 1098SOL    HW110155   8.422  10.399   1.168  0.0685  0.0200 -0.9916
 1098SOL    HW210156   8.365  10.324   1.287  1.0445  0.1935 -0.4058
 1099SOL     OW10157   6.245  12.271   7.281 -0.2230 -0.0542  0.3269
 1099SOL    HW110158   6.188  12.270   7.358 -0.7715 -0.1399 -0.0766
 1099SOL    HW210159   6.192  12.311   7.212  0.8608  1.7138  0.4479
 1100SOL     OW10160   5.978   2.261   4.728  0.2395  0.3920 -0.3664
 1100SOL    HW110161   5.908   2.324   4.741 -1.2651 -1.3642  0.5307
 1100SOL    HW210162   5.990   2.257   4.633 -1.4006  0.2360 -0.6022
 1101SOL     OW10163   6.728   7.584   5.416  0.0567  0.0642 -0.1108
 1101SOL    HW110164   6.702   7.526   5.487 -1.9287 -0.1902 -0.9791
 1101SOL    HW210165   6.747   7.525   5.342  1.5662  0.3547 -0.0011
 1102SOL     OW10166   6.539   9.651   0.523  0.2215  0.2501  0.3489
 1102SOL    HW110167   6.476   9.605   0.468  1.4311 -0.1679 -0.7446
 1102SOL    HW210168   6.537   9.605   0.607  0.1602 -0.7220 -0.1688
 1103SOL     OW10169   2.255  10.668   6.205  0.0499 -0.2905 -0.4954
 1103SOL    HW110170   2.218  10.682   6.118  0.0457 -0.0804 -0.4617
 1103SOL    HW210171   2.300  10.750   6.225 -0.3906 -0.1438 -0.0811
 1104SOL     OW10172   8.481   6.017   2.955 -0.3426  0.3082  0.0488
 1104SOL    HW110173   8.474   6.019   2.859 -1.4378 -0.0971  0.1104
 1104SOL    HW210174   8.534   6.094   2.977  1.1148 -0.3488 -0.9705
 1105SOL     OW10175   1.350   8.610   9.790 -0.0123 -0.5295  0.8708
 1105SOL    HW110176   1.384   8.542   9.731  1.7684 -0.5944  1.9019
 1105SOL    HW210177   1.423   8.671   9.802 -1.1666  0.9043  0.9793
 1106SOL     OW10178   5.520   4.695   2.519  0.4933  0.0414 -0.4369
 1106SOL    HW110179   5.564   4.625   2.568  0.4463  0.9302  0.9534
 1106SOL    HW210180   5.429   4.666   2.512  0.8019 -0.7616 -1.3105
 1107SOL     OW10181  11.927  10.825   2.609 -0.5916  0.3186  0.2545
 1107SOL    HW110182  11.838  10.859   2.600 -0.5257  0.4177 -0.0464
 1107SOL    HW210183  11.917  10.730   2.615 -0.6947  0.3037 -0.1320
 1108SOL     OW10184   1.996   6.631   3.976 -0.1337 -0.7920 -0.3172
 1108SOL    HW110185   2.052   6.680   3.916 -2.2108  1.4476 -0.5549
 1108SOL    HW210186   2.051   6.614   4.052  1.1751  0.3781 -0.9687
 1109SOL     OW10187   9.514   5.779  11.881 -0.1673 -0.2628  0.0298
 1109SOL    HW110188   9.554   5.828  11.953 -1.2857  0.1370  0.3990
 1109SOL    HW210189   9.508   5.690  11.913  0.4749 -0.3402 -0.0542
 1110SOL     OW10190   3.241   7.843   3.807 -0.1760  0.1539  0.2193
 1110SOL    HW110191   3.197   7.779   3.862 -0.5066 -0.1542 -0.3916
 1110SOL    HW210192   3.260   7.916   3.865 -0.7963 -0.0343  0.6678
 1111SOL     OW10193   2.637   5.191   1.113  0.6689  0.2045 -0.0164
 1111SOL    HW110194   2.627   5.155   1.025 -1.1026 -0.4675  0.4385
 1111SOL    HW210195   2.673   5.120   1.165 -0.0176  0.0151  0.2076
 1112SOL     OW10196   0.713   7.429   5.440  0.5322 -0.2752 -0.0191
 1112SOL    HW110197   0.735   7.496   5.505 -0.7112 -0.8401  1.0428
 1112SOL    HW210198   0.624   7.402   5.463  0.0812 -0.5498 -1.9479
 1113SOL     OW10199   4.637   2.685   6.029 -0.0468  0.2088  0.3043
 1113SOL    HW110200   4.594   2.770   6.017 -0.4284  0.2226  1.6366
 1113SOL    HW210201   4.703   2.682   5.960 -2.0149  0.2757 -1.6903
 1114SOL     OW10202   9.865   5.990  12.046  0.6301 -0.4638 -0.2422
 1114SOL    HW110203   9.790   6.029  12.092 -0.3028 -1.6043 -0.7384
 1114SOL    HW210204   9.935   5.989  12.111  0.5105  1.4341 -0.0316
 1115SOL     OW10205   5.756   7.846   7.070  0.5093 -0.3687 -0.1994
 1115SOL    HW110206   5.692   7.910   7.100  0.7259 -0.8762  1.4642
 1115SOL    HW210207   5.705   7.770   7.045  0.1335  0.7654 -3.4014
 1116SOL     OW10208   3.511  11.331  10.181 -0.4516  0.4045  0.7374
 1116SOL    HW110209   3.490  11.238  10.186  0.7907  0.0676  0.1027
 1116SOL    HW210210   3.488  11.356  10.091 -0.6550  0.6800  0.8646
 1117SOL     OW10211   0.689  10.653   2.776 -0.4080  0.7948 -0.5151
 1117SOL    HW110212   0.761  10.683   2.722 -0.8795  2.7489 -0.1301
 1117SOL    HW210213   0.731  10.613   2.853  0.2424  0.3004 -1.1201
 1118SOL     OW10214  11.547   3.832   9.965  0.1830 -1.0190 -0.2617
 1118SOL    HW110215  11.512   3.889  10.033  0.7361 -0.3148 -0.5489
 1118SOL    HW210216  11.487   3.843   9.891  0.9692  0.1860 -0.7532
 1119SOL     OW10217   8.931   5.325   0.288  0.2787  0.0547 -0.2546
 1119SOL    HW110218   8.836   5.325   0.304 -0.2568  0.0045 -2.9867
 1119SOL    HW210219   8.961   5.409   0.324 -1.1002  0.8054 -0.7618
 1120SOL     OW10220   2.422  11.520   0.398  0.2610 -0.1913 -0.1743
 1120SOL    HW110221   2.430  11.615   0.398  0.2382 -0.1877  0.0063
 1120SOL    HW210222   2.511  11.488   0.383  0.1440 -0.1380 -1.0416
 1121SOL     OW10223   6.716  10.490   0.959  0.4580 -0.3790 -0.1030
 1121SOL    HW110224   6.650  10.539   0.909 -0.1988 -0.3327  0.7896
 1121SOL    HW210225   6.717  10.403   0.918  0.0846 -0.2738 -0.3403
 1122SOL     OW10226   2.576   2.344   0.052  0.2388 -0.7748  0.1511
 1122SOL    HW110227   2.581   2.415  -0.013  1.3168  0.2472  1.3062
 1122SOL    HW210228   2.570   2.389   0.136  0.3232 -2.0641  0.8631
 1123SOL     OW10229   0.878   5.937   7.409 -0.1729  0.0520 -0.1411
 1123SOL    HW110230   0.880   5.942   7.313 -0.3651 -2.1796 -0.3158
 1123SOL    HW210231   0.949   5.878   7.431 -0.4548  0.1480  1.0701
 1124SOL     OW10232   9.323   9.910   1.985 -0.4389  0.6762 -0.8190
 1124SOL    HW110233   9.275   9.935   1.907 -0.9034  0.8357 -0.4887
 1124SOL    HW210234   9.387   9.980   1.998 -0.6805  0.8925 -0.7867
 1125SOL     OW10235   4.006   6.668   5.160 -0.3326 -0.3256  0.4092
 1125SOL    HW110236   3.984   6.692   5.070  1.4892 -1.3600 -0.3532
 1125SOL    HW210237   3.954   6.589   5.176 -0.3055 -0.4145  0.0811
 1126SOL     OW10238   3.149  10.885  11.697  0.0821  0.1130 -0.3328
 1126SOL    HW110239   3.158  10.979  11.678 -1.9660  0.9005  2.1280
 1126SOL    HW210240   3.186  10.875  11.784 -1.7285 -0.9074  0.3579
 1127SOL     OW10241   6.202   0.375   6.834 -0.3822 -0.9218  0.8746
 1127SOL    HW110242   6.182   0.292   6.792 -0.8658 -0.4885  0.2292
 1127SOL    HW210243   6.139   0.437   6.797  1.7237  0.3607 -0.7714
 1128SOL     OW10244   9.895   0.266   5.799 -0.3298  0.1933  0.0295
 1128SOL    HW110245   9.951   0.206   5.848  0.3084  0.3911 -0.4537
 1128SOL    HW210246   9.955   0.317   5.744 -0.9242  0.8082 -0.0675
 1129SOL     OW10247   7.914  10.005   5.179 -0.3448  0.1241 -0.0516
 1129SOL    HW110248   7.915   9.999   5.083  0.7988  2.9615 -0.3251
 1129SOL    HW210249   7.984   9.947   5.207  2.4441  2.5433 -1.3883
 1130SOL     OW10250   4.400   9.424   3.478 -0.0160 -0.3283  0.7151
 1130SOL    HW110251   4.370   9.515   3.485  0.0974 -0.2113 -0.2796
 1130SOL    HW210252   4.488   9.425   3.517 -0.2209 -0.1245  1.1853
 1131SOL     OW10253   6.817  12.015   2.395  0.1150 -0.0504  0.0397
 1131SOL    HW110254   6.892  11.956   2.392 -0.8103 -1.2964  0.4854
 1131SOL    HW210255   6.811  12.050   2.307  1.6935  0.7164  0.1987
 1132SOL     OW10256   7.993   0.259   2.792 -0.0854 -0.4395  0.6438
 1132SOL    HW110257   8.029   0.175   2.821 -1.8244 -0.7422  2.1353
 1132SOL    HW210258   7.972   0.246   2.700 -0.9797 -1.9157  1.0215
 1133SOL     OW10259  10.252   2.322  10.998 -0.1795  0.4655  0.6724
 1133SOL    HW110260  10.166   2.287  11.019 -0.6915  0.6161 -1.0086
 1133SOL    HW210261  10.236   2.389  10.931  1.2010  0.7603  0.5916
 1134SOL     OW10262   9.251   3.907  10.171  0.3972 -0.3784  0.3822
 1134SOL    HW110263   9.213   3.969  10.233 -1.3396 -0.4738 -0.5239
 1134SOL    HW210264   9.345   3.920  10.178  0.0874  2.9748 -0.4140
 1135SOL     OW10265   3.459   8.545   3.956 -0.6360  0.2131 -0.4159
 1135SOL    HW110266   3.440   8.453   3.937 -1.2177 -0.0631  1.3063
 1135SOL    HW210267   3.553   8.554   3.937  0.0426 -1.4330  1.6864
 1136SOL     OW10268   7.422   3.903   9.383  0.0529 -0.1795 -0.4007
 1136SOL    HW110269   7.402   3.995   9.365 -0.8638 -0.0959  0.9258
 1136SOL    HW210270   7.340   3.867   9.416  0.0712 -1.7958 -1.9779
 1137SOL     OW10271   8.289   6.610   1.777  0.0802 -0.2021 -0.0573
 1137SOL    HW110272   8.366   6.653   1.813 -0.3326 -0.1603  0.8074
 1137SOL    HW210273   8.260   6.550   1.847 -0.8873  0.0700 -0.2134
 1138SOL     OW10274   9.925   2.747   2.963 -0.1046  0.0500  0.2879
 1138SOL    HW110275   9.905   2.822   3.020  0.2966 -1.3941  2.4332
 1138SOL    HW210276   9.939   2.674   3.023  0.9703 -1.4456 -1.6636
 1139SOL     OW10277   0.747   6.329   8.446  0.0108 -0.0119 -0.0571
 1139SOL    HW110278   0.813   6.357   8.383 -0.2141 -0.5721 -0.5453
 1139SOL    HW210279   0.743   6.401   8.510 -0.8570  1.3104 -1.5131
 1140SOL     OW10280   7.059  11.903   2.372 -0.2198  0.4095  0.7717
 1140SOL    HW110281   7.149  11.923   2.401 -0.3980 -0.0239  1.6571
 1140SOL    HW210282   7.067  11.890   2.278  0.9929 -1.4173  1.0755
 1141SOL     OW10283   0.513   9.316  10.970 -0.1710  0.0787  0.8508
 1141SOL    HW110284   0.588   9.316  11.029  1.7417 -0.6468 -1.3975
 1141SOL    HW210285   0.491   9.224  10.958  1.0567  0.0135 -1.3433
 1142SOL     OW10286   7.171   0.657   4.688  0.7054 -0.6166 -0.4084
 1142SOL    HW110287   7.138   0.629   4.773 -0.9422 -2.9773 -1.7070
 1142SOL    HW210288   7.263   0.633   4.688  0.8448 -0.1429  0.8435
 1143SOL     OW10289  11.117   1.074  11.208  0.1572  0.9048  0.6032
 1143SOL    HW110290  11.205   1.095  11.178  0.3312 -0.9335 -0.3925
 1143SOL    HW210291  11.084   1.013  11.141 -1.2525  0.3101  1.7911
 1144SOL     OW10292   8.662   1.810   2.597 -0.3936 -0.0159 -0.1353
 1144SOL    HW110293   8.732   1.861   2.639  0.0542 -1.6599  1.2426
 1144SOL    HW210294   8.708   1.739   2.552 -1.1373 -0.8293  0.3632
 1145SOL     OW10295   7.573   3.524   9.053  0.1290 -0.1753  0.2399
 1145SOL    HW110296   7.581   3.566   9.139 -0.5630  0.1122  0.1708
 1145SOL    HW210297   7.546   3.435   9.073 -0.8031  0.1093  0.3041
 1146SOL     OW10298   9.146   3.744   1.640  0.3351 -0.1813 -0.2536
 1146SOL    HW110299   9.218   3.806   1.632  0.5794 -0.2410  1.2259
 1146SOL    HW210300   9.067   3.798   1.630  0.5380 -0.1149 -1.8501
 1147SOL     OW10301  11.802   8.013   2.087  0.0650  0.4479  0.3064
 1147SOL    HW110302  11.883   8.049   2.124  0.4998  0.3551 -0.5253
 1147SOL    HW210303  11.830   7.933   2.042 -0.7100 -0.3128  1.1450
 1148SOL     OW10304   1.694   9.712   7.760  0.3240  0.3682 -0.3992
 1148SOL    HW110305   1.746   9.679   7.687 -1.0633  0.8469 -1.6660
 1148SOL    HW210306   1.643   9.784   7.723  0.7910  1.7365  1.4810
 1149SOL     OW10307   4.656   5.650   3.429  0.1817  0.1672  0.2255
 1149SOL    HW110308   4.563   5.635   3.412  0.3715 -0.7584 -0.0469
 1149SOL    HW210309   4.701   5.585   3.374  0.9274 -0.4875  1.5641
 1150SOL     OW10310  12.291   0.334   3.339 -0.2861  0.1287  0.0584
 1150SOL    HW110311  12.220   0.394   3.362 -1.4405 -1.1705  0.0224
 1150SOL    HW210312  12.361   0.391   3.308 -1.5127  1.4280 -0.4377
 1151SOL     OW10313  12.264   4.425  10.992  0.0101 -0.1494  0.0173
 1151SOL    HW110314  12.184   4.465  10.958  0.5294  0.7212 -0.1996
 1151SOL    HW210315  12.304   4.383  10.916  0.7485  1.0959 -0.3177
 1152SOL     OW10316   1.124   0.443  11.691  0.4130  0.1620 -0.4669
 1152SOL    HW110317   1.060   0.449  11.619  2.6098  2.2034 -2.4078
 1152SOL    HW210318   1.082   0.489  11.763 -0.2754  1.6809 -1.7669
 1153SOL     OW10319   7.998   5.946   6.341  0.1550  0.4144 -0.0194
 1153SOL    HW110320   8.074   5.893   6.366 -0.7155 -0.7622  0.2053
 1153SOL    HW210321   7.931   5.882   6.318 -0.9921  1.4240  0.4380
 1154SOL     OW10322   3.775   4.400   5.878  0.2555 -0.6949 -0.1815
 1154SOL    HW110323   3.736   4.386   5.964  0.2496 -0.1568 -0.0914
 1154SOL    HW210324   3.702   4.397   5.817 -0.1203  1.3432  0.0891
 1155SOL     OW10325   4.934   8.125   9.951  0.0285  0.1460 -0.2353
 1155SOL    HW110326   4.840   8.141   9.958 -0.1398 -1.0452  0.5867
 1155SOL    HW210327   4.958   8.160   9.865 -0.6191  2.8780  0.6164
 1156SOL     OW10328   5.648   0.280   2.016  0.1275 -0.0704  0.0393
 1156SOL    HW110329   5.619   0.237   2.097  2.0981  1.1846  1.5192
 1156SOL    HW210330   5.583   0.348   2.000 -0.5405 -0.6400  0.2791
 1157SOL     OW10331  11.164   2.122   8.026  0.0188 -0.3579 -0.4255
 1157SOL    HW110332  11.232   2.112   8.093 -0.8510 -0.4723  0.4680
 1157SOL    HW210333  11.200   2.079   7.949  1.7220  1.1607 -0.5565
 1158SOL     OW10334   7.582   2.647   5.464  0.2736 -0.3064 -0.4701
 1158SOL    HW110335   7.513   2.605   5.516  0.4154 -0.1452 -0.1479
 1158SOL    HW210336   7.610   2.721   5.517  1.4914 -1.0275 -0.0720
 1159SOL     OW10337   3.548   4.847   3.687  0.6804 -0.1984 -0.1004
 1159SOL    HW110338   3.630   4.838   3.639  0.3753 -0.5328 -0.5599
 1159SOL    HW210339   3.554   4.782   3.757  1.3911  0.7104  0.7137
 1160SOL     OW10340   6.278   9.144   9.372 -0.5814  0.1877  0.1639
 1160SOL    HW110341   6.256   9.057   9.337  0.2259 -0.5406  1.3926
 1160SOL    HW210342   6.372   9.152   9.358 -0.6231  0.8061  0.2080
 1161SOL     OW10343   7.355  10.472   3.081 -0.7412  0.3423  0.0646
 1161SOL    HW110344   7.427  10.426   3.037 -1.0017  0.7632 -0.8308
 1161SOL    HW210345   7.276  10.431   3.046 -0.9628  1.0909 -0.3363
 1162SOL     OW10346   0.964   8.345   6.338  0.0451  0.4828 -0.0004
 1162SOL    HW110347   0.954   8.273   6.276 -0.2536 -0.6151  1.2881
 1162SOL    HW210348   0.890   8.403   6.320  0.5273  0.7229 -1.3318
 1163SOL     OW10349   7.663   6.511   2.090  0.5770  0.3900 -0.3969
 1163SOL    HW110350   7.705   6.549   2.013 -1.0448 -1.4413 -2.3159
 1163SOL    HW210351   7.718   6.436   2.113 -0.1957 -0.5093 -1.3532
 1164SOL     OW10352   7.082   3.733   0.798 -0.5292  0.6821 -0.9174
 1164SOL    HW110353   7.004   3.750   0.853  0.4100  2.6597 -0.0696
 1164SOL    HW210354   7.072   3.643   0.769 -3.1707  0.8856 -0.8806
 1165SOL     OW10355   6.890   6.676   2.478 -0.2642  0.3241  0.0283
 1165SOL    HW110356   6.940   6.637   2.406  0.7809 -1.0520  1.4260
 1165SOL    HW210357   6.883   6.606   2.543 -0.1161  1.8674  1.7858
 1166SOL     OW10358   9.605   6.815   8.303 -0.0201  0.0673  0.1540
 1166SOL    HW110359   9.542   6.751   8.270  0.4318  0.0616 -0.7075
 1166SOL    HW210360   9.570   6.840   8.389 -0.3510 -1.1107  0.3813
 1167SOL     OW10361   1.578   7.206  11.369 -0.0118 -0.2771  0.3741
 1167SOL    HW110362   1.498   7.225  11.320  1.4892 -0.1403 -2.1817
 1167SOL    HW210363   1.573   7.112  11.387  0.3532 -0.8299 -2.0338
 1168SOL     OW10364   8.560  12.339  10.047 -0.1585  0.1653 -0.4815
 1168SOL    HW110365   8.496  12.358  10.116 -0.1469  2.1905 -0.9729
 1168SOL    HW210366   8.621  12.412  10.050  1.6835 -1.2762 -0.6242
 1169SOL     OW10367  11.420   2.112   1.867  0.5685 -0.0481  0.8116
 1169SOL    HW110368  11.394   2.113   1.959 -3.1923 -0.3626 -0.0962
 1169SOL    HW210369  11.359   2.052   1.825  1.7598  0.5667 -2.0214
 1170SOL     OW10370   9.768   0.704   2.743 -0.3440  0.2759  0.4051
 1170SOL    HW110371   9.777   0.636   2.676  0.5144 -1.2810  2.0136
 1170SOL    HW210372   9.841   0.687   2.804 -0.9444  1.7721  1.5994
 1171SOL     OW10373   4.333   4.766   9.912 -0.2487  0.3300  0.3241
 1171SOL    HW110374   4.250   4.740   9.873 -0.0770  0.1457  0.0826
 1171SOL    HW210375   4.365   4.836   9.856 -0.3012  0.4853  0.4884
 1172SOL     OW10376   0.434   7.451   5.337  0.1199  0.6857  0.6237
 1172SOL    HW110377   0.441   7.356   5.325  2.0871  0.8998 -0.2732
 1172SOL    HW210378   0.458   7.488   5.252 -1.7676  2.0115  0.5968
 1173SOL     OW10379  11.793  10.177   9.737  0.8485  0.1155 -0.1606
 1173SOL    HW110380  11.813  10.260   9.781 -0.5266  0.3497  0.0627
 1173SOL    HW210381  11.779  10.201   9.645  0.2706  0.1629 -0.0618
 1174SOL     OW10382  12.280   6.915   5.027 -0.0339  0.5697  0.6165
 1174SOL    HW110383  12.198   6.909   5.077 -0.5788 -0.7339 -0.3771
 1174SOL    HW210384  12.267   6.858   4.952  1.4886  1.0012 -0.0197
 1175SOL     OW10385   6.876   7.142  11.353 -0.3400  0.2891 -0.5517
 1175SOL    HW110386   6.896   7.224  11.308 -0.2308  0.4978 -0.1349
 1175SOL    HW210387   6.961   7.104  11.373 -0.3863 -0.7556 -2.1876
 1176SOL     OW10388   5.369   6.216   2.835  0.0524  0.9906 -0.6849
 1176SOL    HW110389   5.442   6.256   2.789  1.5935  0.2828  0.9958
 1176SOL    HW210390   5.308   6.191   2.766  2.7102 -1.0459 -2.5301
 1177SOL     OW10391   6.017   1.346   1.800 -0.2926  0.1891  0.1415
 1177SOL    HW110392   6.112   1.344   1.813 -0.2604 -0.5257 -0.1253
 1177SOL    HW210393   5.992   1.253   1.799 -1.1623  0.3934  1.3908
 1178SOL     OW10394   6.526   2.207   9.122 -0.1600  0.3114 -0.3279
 1178SOL    HW110395   6.453   2.208   9.184  0.7291  0.2930  0.7519
 1178SOL    HW210396   6.522   2.121   9.082 -1.1561  0.5658 -0.8173
 1179SOL     OW10397  10.806   3.777  11.553  0.6455  0.1174  0.1012
 1179SOL    HW110398  10.772   3.717  11.620  2.0695  0.0444  0.7980
 1179SOL    HW210399  10.729   3.823  11.520 -0.1729 -0.3556  1.3012
 1180SOL     OW10400   9.434  11.705   1.930  0.4537  0.1432  0.3924
 1180SOL    HW110401   9.351  11.659   1.921 -0.8527  1.9464  2.2772
 1180SOL    HW210402   9.486  11.649   1.988  0.2763 -0.6151 -0.1645
 1181SOL     OW10403   1.361  11.721   3.970 -0.4142  0.3719 -0.2324
 1181SOL    HW110404   1.431  11.661   3.943 -0.0998  0.5579  0.1598
 1181SOL    HW210405   1.292  11.663   4.003 -0.2638  0.2091 -0.1994
 1182SOL     OW10406  11.425   3.707   2.666  0.4859 -0.5308  0.0972
 1182SOL    HW110407  11.428   3.663   2.581  1.8805 -1.8403  0.7560
 1182SOL    HW210408  11.456   3.640   2.728  0.2798  0.6344  1.5186
 1183SOL     OW10409  11.308   1.168   5.009  0.2596  0.0170 -0.1423
 1183SOL    HW110410  11.243   1.105   4.978 -0.8883  0.7061  0.7514
 1183SOL    HW210411  11.321   1.227   4.935 -0.1216 -0.1407 -0.3413
 1184SOL     OW10412   4.957   2.565   3.378  0.3189  0.1170 -0.0334
 1184SOL    HW110413   4.956   2.542   3.286  2.0926  2.0856 -0.6261
 1184SOL    HW210414   5.049   2.558   3.404  0.0180  0.6978  1.2698
 1185SOL     OW10415   7.354   3.927   7.820  0.0158  0.8895 -0.1564
 1185SOL    HW110416   7.260   3.944   7.821 -0.1390  0.0190  0.0804
 1185SOL    HW210417   7.386   3.967   7.901  0.0329  2.1076 -0.7271
 1186SOL     OW10418  10.220   0.894   3.446 -0.7013  0.2015 -0.9941
 1186SOL    HW110419  10.140   0.863   3.404 -2.0823  0.0732  1.5790
 1186SOL    HW210420  10.224   0.987   3.424 -1.3218  0.1159 -1.4870
 1187SOL     OW10421   0.994   5.194   5.521 -0.6540 -0.4453 -0.4442
 1187SOL    HW110422   0.953   5.109   5.504 -0.6972 -0.2573 -1.3266
 1187SOL    HW210423   1.049   5.210   5.445  0.5507 -0.3710  0.4017
 1188SOL     OW10424   5.744   4.573   9.110 -0.0943 -1.0073 -0.1955
 1188SOL    HW110425   5.810   4.611   9.168  1.3230 -1.9458 -1.1116
 1188SOL    HW210426   5.713   4.496   9.156 -1.2044 -0.0967  0.6124
 1189SOL     OW10427   2.616   4.214   5.919  0.2367  0.0977  0.6638
 1189SOL    HW110428   2.701   4.180   5.947 -0.5327 -2.0393  0.5954
 1189SOL    HW210429   2.580   4.256   5.997  0.1229 -1.6464  1.6110
 1190SOL     OW10430   7.117   3.979   9.058  0.6059  0.2020  0.2432
 1190SOL    HW110431   7.092   3.994   9.149 -0.3672 -0.2237  0.0571
 1190SOL    HW210432   7.209   3.953   9.063  0.8592  1.1534  1.0082
 1191SOL     OW10433   1.808   7.950  11.727  0.1269 -0.5915  0.2218
 1191SOL    HW110434   1.854   7.868  11.744 -1.0413 -1.0519  1.3990
 1191SOL    HW210435   1.733   7.924  11.673  0.9874  0.0874 -1.3711
 1192SOL     OW10436   6.414   5.753   2.603 -0.0503 -0.1126  0.4684
 1192SOL    HW110437   6.507   5.772   2.595 -0.0301  0.6760  2.0248
 1192SOL    HW210438   6.403   5.666   2.566  1.4412 -0.5008  0.8760
 1193SOL     OW10439  11.770  12.325   0.057 -0.1738  0.1453 -0.3926
 1193SOL    HW110440  11.859  12.356   0.074  0.4302 -1.8366  0.3839
 1193SOL    HW210441  11.761  12.330  -0.038  0.5407  0.9085 -0.4384
 1194SOL     OW10442   6.645  12.309   8.959 -0.3186 -0.7522 -0.3716
 1194SOL    HW110443   6.653  12.225   8.914  0.7451  0.0305 -1.7538
 1194SOL    HW210444   6.557  12.340   8.936 -0.2685 -0.9509 -0.8522
 1195SOL     OW10445  11.726   9.583   9.066 -0.2888  0.0065 -0.1338
 1195SOL    HW110446  11.805   9.633   9.046  0.4747 -1.3425 -0.5919
 1195SOL    HW210447  11.746   9.539   9.149 -1.2702  1.0788  0.6974
 1196SOL     OW10448   6.968   3.560   2.708  0.8143 -0.2086  0.1210
 1196SOL    HW110449   7.002   3.628   2.766  0.1994 -0.0671  0.3244
 1196SOL    HW210450   6.915   3.607   2.644  1.3375 -0.3846 -0.4528
 1197SOL     OW10451   7.036   3.745   5.745  0.1409 -0.9747  0.1511
 1197SOL    HW110452   6.972   3.711   5.683  0.8133 -0.2229 -0.9750
 1197SOL    HW210453   7.119   3.746   5.697  0.9086 -1.4051  1.4037
 1198SOL     OW10454   5.139   1.613  11.317  0.2095  0.5556 -0.4113
 1198SOL    HW110455   5.080   1.588  11.246  0.4772 -0.5248 -0.2598
 1198SOL    HW210456   5.085   1.609  11.396  0.5332 -0.6791 -0.2392
 1199SOL     OW10457   4.595   7.327   4.824 -0.1878  0.5913  0.1450
 1199SOL    HW110458   4.612   7.237   4.797 -3.3641  0.4614 -1.9940
 1199SOL    HW210459   4.582   7.375   4.742 -0.9531  2.4433  1.2778
 1200SOL     OW10460   4.278   1.995   3.846  0.1390 -0.1645 -0.0505
 1200SOL    HW110461   4.202   2.035   3.887 -1.0246 -1.0050 -1.3093
 1200SOL    HW210462   4.263   1.901   3.852  0.5419 -0.3310 -1.2408
 1201SOL     OW10463   5.735   1.377   4.690  0.1199 -0.6703  0.1746
 1201SOL    HW110464   5.690   1.460   4.680  2.0253  0.5288  0.9715
 1201SOL    HW210465   5.705   1.324   4.616 -3.2122 -0.3446  1.1324
 1202SOL     OW10466   6.797   3.647  11.922  0.3622 -0.0577 -0.4241
 1202SOL    HW110467   6.782   3.605  11.837  0.0955 -0.2254 -0.2954
 1202SOL    HW210468   6.776   3.579  11.986 -0.2347  0.3198 -0.2107
 1203SOL     OW10469   0.822  12.369   2.399 -0.8973  0.2875 -0.4106
 1203SOL    HW110470   0.815  12.353   2.305  1.2927 -0.4797 -0.5008
 1203SOL    HW210471   0.869  12.292   2.433  0.6172  1.7196  0.8936
 1204SOL     OW10472   3.804   0.828   4.351  0.0393  0.3114 -0.3455
 1204SOL    HW110473   3.815   0.800   4.260  3.4198 -2.2125  0.6357
 1204SOL    HW210474   3.857   0.907   4.359 -0.2236  0.5087 -0.5459
 1205SOL     OW10475   1.561   8.308   8.845 -0.2817  0.0069 -0.0760
 1205SOL    HW110476   1.586   8.242   8.780  3.9812  0.0774  1.1861
 1205SOL    HW210477   1.588   8.270   8.929 -3.2599  0.9839  1.4496
 1206SOL     OW10478   1.566  10.318  11.982 -0.1815 -0.2086  0.4442
 1206SOL    HW110479   1.475  10.341  11.998 -0.0452 -0.3009  1.3885
 1206SOL    HW210480   1.615  10.366  12.049  0.3626 -1.0567  0.6672
 1207SOL     OW10481   7.408  10.922   8.826 -0.4565  0.2161  0.3429
 1207SOL    HW110482   7.391  10.846   8.883 -0.2886 -0.3515 -0.3535
 1207SOL    HW210483   7.362  10.902   8.745  0.7698  0.1966 -0.3658
 1208SOL     OW10484   3.775   1.328  10.093 -0.6257 -0.1221 -0.5585
 1208SOL    HW110485   3.740   1.382  10.164  1.7545  0.9248 -0.1020
 1208SOL    HW210486   3.767   1.382  10.015  1.0280  0.6371 -0.2376
 1209SOL     OW10487  11.146   3.414   7.861  0.5287 -0.3983  0.4195
 1209SOL    HW110488  11.126   3.338   7.916 -0.3690  1.1622  2.3795
 1209SOL    HW210489  11.073   3.474   7.875  1.6733  1.2326 -0.2962
 1210SOL     OW10490   9.628   2.895   7.620 -0.3222 -0.3785 -0.4873
 1210SOL    HW110491   9.669   2.915   7.703  0.1583 -0.1813 -0.7673
 1210SOL    HW210492   9.698   2.903   7.555 -0.9659  0.7505 -1.0786
 1211SOL     OW10493   7.497   3.785  11.302 -0.3217  0.1585  0.0207
 1211SOL    HW110494   7.496   3.826  11.389 -0.4163  1.7494 -0.6870
 1211SOL    HW210495   7.418   3.731  11.300  1.0672 -2.1376  1.8730
 1212SOL     OW10496   2.014  10.981   0.369 -0.1161 -0.2435  0.9551
 1212SOL    HW110497   1.977  11.060   0.407 -0.2578 -0.1735  0.6753
 1212SOL    HW210498   2.000  10.991   0.275  3.5286  1.3313  0.4494
 1213SOL     OW10499   5.490   1.893   8.078 -0.0269 -0.0543  0.3359
 1213SOL    HW110500   5.429   1.828   8.043 -0.1301 -0.4461  1.2242
 1213SOL    HW210501   5.553   1.907   8.007  0.4712 -1.7238  0.3839
 1214SOL     OW10502  11.749   6.805   4.986  0.3303 -0.0217  0.2635
 1214SOL    HW110503  11.771   6.736   4.925 -0.4095  0.3896 -0.4807
 1214SOL    HW210504  11.830   6.857   4.993  1.3001 -1.6217  1.7935
 1215SOL     OW10505   2.390   1.422  10.360  0.2833  0.0389 -0.9764
 1215SOL    HW110506   2.483   1.421  10.336 -0.0613  0.7304 -2.4697
 1215SOL    HW210507   2.389   1.444  10.453  1.6992 -2.3708 -0.3211
 1216SOL     OW10508   2.661   2.357   0.990  0.4867 -0.7152  0.5084
 1216SOL    HW110509   2.725   2.381   1.056  1.8885 -1.9134 -0.3553
 1216SOL    HW210510   2.662   2.261   0.989  0.4632 -0.7345 -1.1942
 1217SOL     OW10511   3.336   6.341   7.432  0.0828 -0.2503 -0.3299
 1217SOL    HW110512   3.318   6.371   7.521 -1.8913 -0.7086 -0.5161
 1217SOL    HW210513   3.332   6.420   7.378 -0.3695 -0.1893 -0.2109
 1218SOL     OW10514  11.457  11.058   8.910 -0.4403  1.1265 -0.3192
 1218SOL    HW110515  11.546  11.024   8.909 -0.4584  1.0419  0.4372
 1218SOL    HW210516  11.456  11.123   8.980 -1.7017 -0.9753  1.7688
 1219SOL     OW10517  10.705   3.475   3.645  0.4893  0.3083 -0.0025
 1219SOL    HW110518  10.790   3.450   3.682  1.2806 -0.3281 -2.1309
 1219SOL    HW210519  10.688   3.411   3.577 -0.0764  2.3415 -1.8980
 1220SOL     OW10520   2.900  10.804   5.035  0.0390  0.2748 -0.4026
 1220SOL    HW110521   2.821  10.779   4.986 -0.8104  0.3577  0.8728
 1220SOL    HW210522   2.956  10.727   5.032 -1.0890 -0.6223  0.6059
 1221SOL     OW10523  10.613  10.814   9.764  0.0198 -0.1541  0.3868
 1221SOL    HW110524  10.706  10.795   9.749 -0.0924 -1.8573  1.6765
 1221SOL    HW210525  10.614  10.899   9.810  1.0455 -0.7910  1.6147
 1222SOL     OW10526   8.504   9.235   4.562  0.1333 -0.1634 -0.4967
 1222SOL    HW110527   8.514   9.221   4.468 -1.3627  0.0980 -0.7235
 1222SOL    HW210528   8.460   9.156   4.593 -1.3623  0.6726 -0.4225
 1223SOL     OW10529   6.555   2.153   1.928  0.2747  0.8523  0.0847
 1223SOL    HW110530   6.511   2.122   1.848  0.5364 -1.4378  0.7505
 1223SOL    HW210531   6.483   2.184   1.983 -0.3625 -0.8599  0.3057
 1224SOL     OW10532   3.340   6.206   6.713 -0.6106 -0.0350 -0.5203
 1224SOL    HW110533   3.338   6.265   6.789  0.3820  0.7564 -1.0785
 1224SOL    HW210534   3.353   6.264   6.638 -0.0406 -0.9233 -1.1338
 1225SOL     OW10535   6.122   5.593   0.148 -0.1560  0.4643 -0.5809
 1225SOL    HW110536   6.185   5.662   0.125  0.3296  0.7821  1.4954
 1225SOL    HW210537   6.160   5.551   0.225 -0.6973 -1.8425 -1.4842
 1226SOL     OW10538   0.590   1.973  11.404  0.3893  0.5127 -0.7062
 1226SOL    HW110539   0.559   2.050  11.356 -0.9099  1.4083  1.4601
 1226SOL    HW210540   0.577   1.995  11.496  1.0618 -1.8728  0.0215
 1227SOL     OW10541   5.512   9.473   4.794  0.4928 -0.4165 -0.7029
 1227SOL    HW110542   5.553   9.547   4.838  0.7645 -0.9861  0.0056
 1227SOL    HW210543   5.515   9.496   4.701  0.0852  0.6998 -0.4516
 1228SOL     OW10544   4.553   0.353   3.083 -0.9810 -0.1248  0.3451
 1228SOL    HW110545   4.481   0.319   3.029  0.1982 -1.1703 -0.6079
 1228SOL    HW210546   4.561   0.291   3.155 -0.1093 -0.8219 -0.3342
 1229SOL     OW10547   0.568   5.674  10.079 -0.5068 -0.5247  0.2862
 1229SOL    HW110548   0.491   5.649  10.028 -0.2037 -0.2238 -0.3307
 1229SOL    HW210549   0.635   5.693  10.013 -0.6984  1.8917  0.7069
 1230SOL     OW10550   7.796   4.892  11.396  0.4744  0.0065  0.4715
 1230SOL    HW110551   7.754   4.807  11.406 -0.3779  0.2923 -0.5351
 1230SOL    HW210552   7.741   4.953  11.445  1.5641 -0.1409  1.9307
 1231SOL     OW10553   6.645   9.807  12.402 -0.9583  0.7975 -0.3405
 1231SOL    HW110554   6.687   9.888  12.371 -1.2732  0.2825 -2.2423
 1231SOL    HW210555   6.597   9.774  12.326  0.3249 -1.9406 -0.1009
 1232SOL     OW10556   7.711   0.643   2.759 -0.0383 -0.3461 -0.6492
 1232SOL    HW110557   7.645   0.575   2.762  1.5356 -1.9796 -1.1128
 1232SOL    HW210558   7.744   0.649   2.848  2.1741 -2.7255 -1.2020
 1233SOL     OW10559   5.150   3.677   7.629  0.1934 -0.2991  0.7762
 1233SOL    HW110560   5.064   3.658   7.593  0.5078  0.7847 -0.6182
 1233SOL    HW210561   5.143   3.766   7.665  0.4883 -0.5542  1.4928
 1234SOL     OW10562   5.500  11.442   6.624  0.2533 -0.0287  0.0316
 1234SOL    HW110563   5.484  11.532   6.653  0.5488 -0.1251  0.5082
 1234SOL    HW210564   5.446  11.388   6.682 -0.0297 -0.1528 -0.3428
 1235SOL     OW10565   0.768   1.441   8.657 -0.5838  0.0791  0.2155
 1235SOL    HW110566   0.723   1.432   8.742 -2.9256  2.5492 -0.6105
 1235SOL    HW210567   0.700   1.422   8.592  0.6019  0.2525 -1.1242
 1236SOL     OW10568  10.565   4.772   6.762  0.6975  0.2800  0.3717
 1236SOL    HW110569  10.652   4.749   6.796  1.2946 -3.1776 -2.9362
 1236SOL    HW210570  10.583   4.832   6.690  0.0724  1.3402  1.0663
 1237SOL     OW10571   6.121   1.349   7.803 -0.0257  0.4786  0.1678
 1237SOL    HW110572   6.160   1.431   7.772  0.7194 -0.2191 -0.8012
 1237SOL    HW210573   6.126   1.354   7.899  0.1938  1.4700  0.1109
 1238SOL     OW10574  11.309   5.873   4.680  0.7656 -0.0228 -0.0436
 1238SOL    HW110575  11.346   5.909   4.600 -0.0339  1.3776  0.1958
 1238SOL    HW210576  11.236   5.818   4.650 -0.5608  1.7668 -0.2398
 1239SOL     OW10577   7.965  10.637   5.932  0.2489 -0.0621  0.7056
 1239SOL    HW110578   7.871  10.635   5.950 -0.0745  0.2001 -0.7917
 1239SOL    HW210579   7.982  10.726   5.902  1.3304  0.4136  2.5483
 1240SOL     OW10580   3.808   6.817  11.419  0.0553 -0.0443 -0.6766
 1240SOL    HW110581   3.769   6.895  11.458 -0.0429 -0.0988 -0.6636
 1240SOL    HW210582   3.742   6.749  11.432  0.2020 -0.1649 -0.5561
 1241SOL     OW10583  12.345   8.914   9.983 -0.0526 -0.5431 -0.7718
 1241SOL    HW110584  12.288   8.839   9.998  1.2802 -1.7781 -1.6186
 1241SOL    HW210585  12.329   8.972  10.057 -1.3425 -1.5143 -0.2589
 1242SOL     OW10586   9.994   5.363   0.760 -0.0446  0.5241  0.3200
 1242SOL    HW110587  10.037   5.337   0.679 -0.2209  0.3798  0.2711
 1242SOL    HW210588   9.904   5.381   0.734 -0.5513 -1.1667  0.7654
 1243SOL     OW10589   7.305   9.289   2.996  0.5014  0.1019  0.2433
 1243SOL    HW110590   7.277   9.373   2.962  0.0446 -0.7397 -1.5657
 1243SOL    HW210591   7.237   9.228   2.969  0.2581 -0.7164  2.4515
 1244SOL     OW10592   2.879   1.791   8.822 -0.3814  0.1003  0.4722
 1244SOL    HW110593   2.857   1.750   8.906 -0.9484  0.0082  0.2832
 1244SOL    HW210594   2.842   1.732   8.756  0.3273  0.0145  0.1461
 1245SOL     OW10595   0.856   4.725   0.484  0.2533 -0.3307  0.6439
 1245SOL    HW110596   0.881   4.817   0.476  0.0516 -0.3642 -0.5798
 1245SOL    HW210597   0.938   4.677   0.480  0.2732 -0.2589  0.1247
 1246SOL     OW10598   0.022   4.506   2.640 -0.0327 -0.0776  0.1641
 1246SOL    HW110599   0.042   4.489   2.732  0.0345  0.7519  0.3121
 1246SOL    HW210600  -0.026   4.428   2.611  0.1675 -0.4566  0.8294
 1247SOL     OW10601   3.957   3.436   7.411  0.0435  0.1481 -0.0191
 1247SOL    HW110602   3.907   3.368   7.367 -0.4119  2.0419 -2.6439
 1247SOL    HW210603   4.028   3.457   7.350  0.7311  1.3559  1.1470
 1248SOL     OW10604   4.673   8.715   0.669  0.2686 -0.0897  0.2857
 1248SOL    HW110605   4.648   8.717   0.577 -0.1925 -0.0137  0.4109
 1248SOL    HW210606   4.768   8.707   0.668  0.3241  0.5704 -0.2035
 1249SOL     OW10607   2.028   8.091   5.219 -0.3036 -0.1381  0.6925
 1249SOL    HW110608   1.958   8.058   5.274 -0.7955  1.2908  0.9481
 1249SOL    HW210609   1.984   8.145   5.154  0.1591 -2.3895 -1.6755
 1250SOL     OW10610  10.446   4.240   6.815 -0.6366  0.0407 -1.4169
 1250SOL    HW110611  10.437   4.188   6.736 -0.6875 -2.5868  0.1977
 1250SOL    HW210612  10.516   4.198   6.864 -0.4878  1.6859 -0.1030
 1251SOL     OW10613   1.080   4.846   9.361 -0.1280  0.2744 -0.1704
 1251SOL    HW110614   1.152   4.783   9.362  0.4166  0.8367 -1.4954
 1251SOL    HW210615   1.004   4.796   9.392  0.6205 -0.5738  0.3768
 1252SOL     OW10616   2.901   9.307   2.204  0.1170 -0.3131  0.6383
 1252SOL    HW110617   2.908   9.313   2.300  0.0418  2.2818  0.5493
 1252SOL    HW210618   2.987   9.332   2.172 -0.3832  0.6609  0.0205
 1253SOL     OW10619   2.205  10.983  11.305  0.0582 -0.3304  0.3705
 1253SOL    HW110620   2.256  10.936  11.371  0.2830  0.7169  0.9595
 1253SOL    HW210621   2.258  10.978  11.226  0.5046 -0.3001  0.6627
 1254SOL     OW10622   3.620   2.144   2.542  0.1554 -0.3067  0.1604
 1254SOL    HW110623   3.587   2.070   2.594 -0.1782 -0.9124 -0.8666
 1254SOL    HW210624   3.674   2.102   2.475 -1.1095  0.2478 -1.2557
 1255SOL     OW10625   6.764   1.134  12.164  0.1370  0.0895  0.1371
 1255SOL    HW110626   6.810   1.206  12.121  1.7582 -0.8265  0.2651
 1255SOL    HW210627   6.735   1.078  12.093  2.4111 -1.1817  0.1168
 1256SOL     OW10628   8.585   1.498  11.366 -0.1282  0.3963  0.1170
 1256SOL    HW110629   8.515   1.558  11.339 -0.0636  0.0494 -0.8445
 1256SOL    HW210630   8.666   1.544  11.342 -0.0389  0.5468  0.7001
 1257SOL     OW10631   6.744  10.198   6.765 -0.6413 -0.0462  0.5064
 1257SOL    HW110632   6.725  10.280   6.811  0.9989  0.6738 -0.0164
 1257SOL    HW210633   6.822  10.164   6.809  0.6966  0.4277 -1.3782
 1258SOL     OW10634   9.562  12.261   2.515  0.7411 -0.1040  0.3789
 1258SOL    HW110635   9.484  12.312   2.494  1.0867 -0.7008 -2.8916
 1258SOL    HW210636   9.528  12.173   2.533  0.5714 -0.2246 -0.4630
 1259SOL     OW10637  10.925   7.854   3.013  0.1786 -0.6919 -0.1276
 1259SOL    HW110638  10.935   7.931   2.957 -2.0980 -1.0875 -1.2196
 1259SOL    HW210639  10.927   7.889   3.102 -0.2000  0.5788 -0.5866
 1260SOL     OW10640   2.423  12.119   3.180 -0.1179 -0.6204  0.8643
 1260SOL    HW110641   2.377  12.185   3.129  0.9205  0.3267  1.1063
 1260SOL    HW210642   2.428  12.156   3.268 -0.6709 -1.6190  1.3382
 1261SOL     OW10643   7.944   9.160   0.867 -0.6571 -0.2892  0.2904
 1261SOL    HW110644   7.934   9.079   0.917  1.4940 -0.5647  0.4021
 1261SOL    HW210645   7.999   9.134   0.792 -2.8367  0.3510 -1.6505
 1262SOL     OW10646   9.845   0.388   2.002  0.5492  0.4182 -0.3394
 1262SOL    HW110647   9.937   0.413   2.004  0.7612 -0.3946  0.4799
 1262SOL    HW210648   9.798   0.469   2.020  1.0439  1.0658 -1.7989
 1263SOL     OW10649   1.289   8.242   2.085 -0.1101  0.2201  0.4295
 1263SOL    HW110650   1.345   8.279   2.016  0.3815  0.4615  0.9466
 1263SOL    HW210651   1.208   8.220   2.041  0.0213  0.8219 -0.1324
 1264SOL     OW10652   0.320   9.972   1.517 -0.1188 -0.0602 -0.4777
 1264SOL    HW110653   0.338  10.045   1.458 -0.5052 -0.3920 -1.0184
 1264SOL    HW210654   0.344  10.005   1.603 -0.3607  0.7364 -0.7020
 1265SOL     OW10655  10.358   5.645   2.596  0.5098 -0.8360 -0.4761
 1265SOL    HW110656  10.447   5.644   2.561  0.7033 -0.9268  0.0074
 1265SOL    HW210657  10.305   5.685   2.527  1.3213  1.4739  0.1343
 1266SOL     OW10658   7.397   9.966   6.649  0.1244 -0.0294 -0.1758
 1266SOL    HW110659   7.413  10.044   6.703 -0.8684 -0.2714  0.5010
 1266SOL    HW210660   7.309   9.938   6.673 -1.3452  1.1685 -3.5763
 1267SOL     OW10661   0.406   5.919   2.912  0.0154 -0.1394 -0.3844
 1267SOL    HW110662   0.327   5.957   2.950 -0.0982  0.2837 -1.0260
 1267SOL    HW210663   0.461   5.995   2.892  0.7039 -0.4423  0.2944
 1268SOL     OW10664  10.402   3.440   4.968  0.2773 -0.5033  0.1865
 1268SOL    HW110665  10.319   3.479   4.994  0.4498  0.1009 -0.1447
 1268SOL    HW210666  10.378   3.369   4.907 -0.0227 -0.7475  0.5875
 1269SOL     OW10667   6.361   4.340   6.858 -0.1475  0.1093 -0.0906
 1269SOL    HW110668   6.424   4.408   6.834  0.6485 -0.4776  0.3062
 1269SOL    HW210669   6.281   4.389   6.880  1.2374  1.2460  3.1272
 1270SOL     OW10670   7.186   6.857   3.032 -0.0637 -0.2322 -0.6595
 1270SOL    HW110671   7.114   6.898   3.081  0.1758 -1.5477  0.8715
 1270SOL    HW210672   7.150   6.844   2.944 -0.7038  1.6906 -0.7357
 1271SOL     OW10673   9.665  12.348   1.844  0.5115 -0.1715 -0.3071
 1271SOL    HW110674   9.746  12.322   1.889  0.6630 -0.9013 -0.9783
 1271SOL    HW210675   9.662  12.443   1.855  1.0097 -0.2316  0.4650
 1272SOL     OW10676  11.303   4.329   6.146 -0.5985  0.6797  0.6337
 1272SOL    HW110677  11.345   4.361   6.066  1.3777 -0.8999  0.9434
 1272SOL    HW210678  11.227   4.279   6.115 -1.4491  2.3433 -0.0480
 1273SOL     OW10679   8.745  11.372   2.442  0.0643 -0.2028 -0.1862
 1273SOL    HW110680   8.827  11.375   2.392 -0.3096  0.4574 -0.7866
 1273SOL    HW210681   8.732  11.280   2.463  0.6469 -0.3857 -0.6157
 1274SOL     OW10682  12.008   5.852   3.396  0.2989 -0.2123  0.4934
 1274SOL    HW110683  11.913   5.853   3.409  0.3187  0.5485  0.6361
 1274SOL    HW210684  12.044   5.876   3.482  0.6568 -1.4252  0.6944
 1275SOL     OW10685   9.053   4.945  12.122  0.3331 -0.7437  0.2125
 1275SOL    HW110686   9.038   5.031  12.083  0.2316 -0.8508  0.0139
 1275SOL    HW210687   9.137   4.954  12.168  1.4585 -1.1535 -1.6322
 1276SOL     OW10688   8.175   1.942   0.629  0.5303  0.2553  0.0023
 1276SOL    HW110689   8.099   1.920   0.683  0.7624  0.7306  0.5338
 1276SOL    HW210690   8.250   1.929   0.687  0.6005  4.6969  1.2264
 1277SOL     OW10691   8.791   8.813   5.888 -0.7909  0.5353  0.3247
 1277SOL    HW110692   8.819   8.729   5.923  0.4206  0.2199 -1.2800
 1277SOL    HW210693   8.787   8.799   5.793  0.1734  2.4906 -0.0542
 1278SOL     OW10694   8.452   2.169   3.958 -0.1709 -0.0616  0.0130
 1278SOL    HW110695   8.474   2.261   3.976  0.1568 -0.3673  1.2352
 1278SOL    HW210696   8.368   2.174   3.912  0.0062  0.8687 -0.2392
 1279SOL     OW10697   3.672   9.731   6.938 -0.1655 -0.7323  0.7396
 1279SOL    HW110698   3.727   9.803   6.969  2.4440 -1.9082 -0.7481
 1279SOL    HW210699   3.629   9.765   6.859 -0.1929 -0.3129  0.9384
 1280SOL     OW10700   8.749   8.551   2.268  0.1340 -0.9977 -0.1761
 1280SOL    HW110701   8.661   8.578   2.241  0.9320 -0.9309 -3.0281
 1280SOL    HW210702   8.733   8.481   2.331 -2.0470 -1.8607 -1.5252
 1281SOL     OW10703   8.501   6.468  11.348 -0.1503 -0.0506 -0.2599
 1281SOL    HW110704   8.461   6.426  11.424 -0.6622  2.9471  1.2647
 1281SOL    HW210705   8.558   6.401  11.311 -1.7128 -2.3895  1.3135
 1282SOL     OW10706  11.289   4.307   5.830  0.2075  0.1009 -0.1133
 1282SOL    HW110707  11.224   4.313   5.760 -0.8805  0.1465  0.8570
 1282SOL    HW210708  11.271   4.223   5.872 -0.1223  0.6838  0.9796
 1283SOL     OW10709   0.438   4.616  11.599  0.2430 -0.3444  0.2149
 1283SOL    HW110710   0.390   4.667  11.534 -0.1193 -2.2027 -1.0842
 1283SOL    HW210711   0.379   4.543  11.620  1.3359 -1.1103  0.7579
 1284SOL     OW10712  10.288   0.561  12.215 -0.0396  0.3156 -0.1116
 1284SOL    HW110713  10.213   0.515  12.176 -0.7561  0.8127  0.6496
 1284SOL    HW210714  10.360   0.499  12.207 -0.6601 -0.3889 -0.3874
 1285SOL     OW10715   2.523   5.775  10.847 -0.1801 -0.0938 -0.3549
 1285SOL    HW110716   2.528   5.866  10.816 -2.1853  0.0013 -0.5159
 1285SOL    HW210717   2.608   5.759  10.889  0.5929  1.5075 -1.2372
 1286SOL     OW10718   6.336   0.847   5.550 -0.0538 -0.3285 -0.6007
 1286SOL    HW110719   6.314   0.861   5.643 -0.4329 -0.2617 -0.6988
 1286SOL    HW210720   6.277   0.905   5.503  1.0824  0.6691 -0.8306
 1287SOL     OW10721   3.314   6.303   1.839 -0.0045  0.1517  0.3649
 1287SOL    HW110722   3.307   6.255   1.757  1.1382 -0.4779  0.6221
 1287SOL    HW210723   3.399   6.348   1.834 -0.3307  0.8433  0.8162
 1288SOL     OW10724   3.301  10.943   8.551 -0.4365  0.3001  0.6969
 1288SOL    HW110725   3.323  11.030   8.584  0.7356  0.2130  0.2018
 1288SOL    HW210726   3.217  10.954   8.506  0.1888  1.3897 -0.2290
 1289SOL     OW10727   9.992  12.101  11.277  0.6053 -0.1047  0.3352
 1289SOL    HW110728   9.972  12.029  11.337  0.7183 -0.4566 -0.0455
 1289SOL    HW210729   9.955  12.074  11.194  3.0760 -1.0495 -0.5449
 1290SOL     OW10730   2.003  12.135   3.261  0.0838 -0.0537 -0.5528
 1290SOL    HW110731   1.940  12.063   3.264  0.0239  0.0142  0.3030
 1290SOL    HW210732   1.986  12.179   3.178  0.6036 -1.4404 -1.4246
 1291SOL     OW10733   1.626   3.604   2.271 -0.4916 -0.2915  0.0614
 1291SOL    HW110734   1.701   3.571   2.321 -1.0868 -0.6882  0.6976
 1291SOL    HW210735   1.627   3.552   2.190  1.6901  1.7252 -1.3350
 1292SOL     OW10736  11.484   6.963   4.901 -0.0065  0.0435 -0.1343
 1292SOL    HW110737  11.472   6.870   4.923  1.5563  0.2291  1.7931
 1292SOL    HW210738  11.569   6.966   4.857  0.4160  0.6719  0.7101
 1293SOL     OW10739   4.752   3.758   4.669  0.1424  0.4542  0.1275
 1293SOL    HW110740   4.809   3.776   4.594  0.8218 -0.6799  0.3499
 1293SOL    HW210741   4.672   3.722   4.630  0.7558 -0.7829 -0.0438
 1294SOL     OW10742   5.147   0.783  11.211 -0.2352  0.3225 -0.3766
 1294SOL    HW110743   5.137   0.688  11.200  1.2597  0.2610 -1.7391
 1294SOL    HW210744   5.163   0.795  11.304 -0.6559 -0.7484 -0.1527
 1295SOL     OW10745   0.025  11.910   3.905 -0.1652 -0.2085 -0.1230
 1295SOL    HW110746  -0.038  11.929   3.835  1.3604  2.7693 -0.8001
 1295SOL    HW210747   0.096  11.864   3.861  1.2518  2.5222 -0.8590
 1296SOL     OW10748   4.477   2.246  11.434 -0.2422 -0.0772  0.0518
 1296SOL    HW110749   4.513   2.284  11.513 -0.2884  0.4072 -0.1539
 1296SOL    HW210750   4.383   2.239  11.451 -0.3365  0.5749 -0.1730
 1297SOL     OW10751   4.426  10.599   3.880  0.1946 -0.2087  0.4119
 1297SOL    HW110752   4.351  10.583   3.822  0.9966 -1.2736 -0.3638
 1297SOL    HW210753   4.388  10.643   3.956 -1.0003  0.5051 -0.5705
 1298SOL     OW10754   0.873   8.550   9.681 -0.2210  0.3885  0.1036
 1298SOL    HW110755   0.927   8.586   9.751 -0.1067  0.0919  0.1677
 1298SOL    HW210756   0.785   8.585   9.698  0.2296  2.1445 -0.8890
 1299SOL     OW10757  10.474   4.760   6.045  0.2205 -0.2187 -0.0140
 1299SOL    HW110758  10.558   4.781   6.004 -0.0891  0.1980 -0.4497
 1299SOL    HW210759  10.478   4.666   6.063  0.0476 -0.6167 -1.7965
 1300SOL     OW10760   7.389   7.599   1.611  0.5141 -0.6958 -0.0722
 1300SOL    HW110761   7.308   7.599   1.559  0.3912  0.1193  0.0956
 1300SOL    HW210762   7.360   7.612   1.701  0.7758 -1.3512  0.1099
 1301SOL     OW10763  10.649   0.094  10.677  0.7934  0.4455  0.3620
 1301SOL    HW110764  10.601   0.122  10.755  1.7266  1.3204  0.6451
 1301SOL    HW210765  10.671   0.175  10.632  1.6355  0.0428  0.0205
 1302SOL     OW10766   6.003   8.630   1.049 -0.5142 -0.0569  0.3078
 1302SOL    HW110767   6.086   8.582   1.052 -1.5483 -1.9068  0.7616
 1302SOL    HW210768   5.936   8.563   1.062 -2.0187  1.6470  1.8682
 1303SOL     OW10769  10.337   5.190  11.081 -0.3319 -0.0020 -0.3439
 1303SOL    HW110770  10.306   5.249  11.013  0.7991 -1.0105 -1.7904
 1303SOL    HW210771  10.428   5.171  11.057 -0.6265 -2.2358  0.1015
 1304SOL     OW10772   7.226   3.089   6.974  0.2398 -0.2218  0.1382
 1304SOL    HW110773   7.266   3.073   6.888 -1.3016 -0.4046 -0.5831
 1304SOL    HW210774   7.201   3.181   6.972  1.9250  0.2892  1.1731
 1305SOL     OW10775  10.229   6.166   1.228  0.0115  0.0574 -0.6726
 1305SOL    HW110776  10.283   6.219   1.286  1.5605  0.5608 -2.4777
 1305SOL    HW210777  10.140   6.176   1.262  0.5346  2.2444  0.1976
 1306SOL     OW10778   7.157   4.946  11.722 -0.3663  0.2607  0.2537
 1306SOL    HW110779   7.088   4.958  11.788 -0.0813  1.1838  0.4030
 1306SOL    HW210780   7.110   4.931  11.641 -0.7611  0.9767  0.3374
 1307SOL     OW10781   3.385  11.736  11.332  0.4783  0.3809  0.1798
 1307SOL    HW110782   3.317  11.691  11.383 -2.3440  1.3814 -2.4197
 1307SOL    HW210783   3.457  11.673  11.328 -1.4843 -2.0349  0.5270
 1308SOL     OW10784   1.969   5.417  11.622  0.3270 -0.3752 -0.1302
 1308SOL    HW110785   1.946   5.412  11.529  0.7534  0.4524 -0.2897
 1308SOL    HW210786   1.887   5.396  11.667  0.2409 -1.2809 -0.6806
 1309SOL     OW10787  11.679   4.508   2.323 -0.0681 -0.4722 -0.3523
 1309SOL    HW110788  11.745   4.522   2.256  0.3203 -1.2811 -0.1564
 1309SOL    HW210789  11.637   4.593   2.335  0.9729  0.0647 -0.4528
 1310SOL     OW10790   5.379   2.177   5.511 -0.2686 -0.0377  0.8681
 1310SOL    HW110791   5.420   2.261   5.530 -1.0608  0.3596  0.8775
 1310SOL    HW210792   5.369   2.136   5.597  1.5106 -0.8287  0.7315
 1311SOL     OW10793   8.417   1.141   2.105 -0.1807 -0.8123 -0.5003
 1311SOL    HW110794   8.399   1.081   2.177 -0.4431  0.7624  0.8129
 1311SOL    HW210795   8.512   1.135   2.091  0.2697  0.4731  1.5471
 1312SOL     OW10796   5.542   1.273   2.757  0.0120 -0.0153  0.0967
 1312SOL    HW110797   5.586   1.264   2.842 -0.2391 -0.3064  0.1965
 1312SOL    HW210798   5.477   1.203   2.756  1.8406 -1.8451 -1.4934
 1313SOL     OW10799  11.092   2.341   2.361 -0.2563 -0.3733 -0.2454
 1313SOL    HW110800  11.172   2.386   2.334 -0.0184 -1.1163 -0.7926
 1313SOL    HW210801  11.025   2.410   2.364 -0.0412 -0.0889 -1.6733
 1314SOL     OW10802   4.150   9.550   4.916 -0.3556  0.5905  0.3912
 1314SOL    HW110803   4.129   9.542   4.823 -1.6385  1.2354  0.5996
 1314SOL    HW210804   4.230   9.497   4.928  1.0441  2.1703 -1.4638
 1315SOL     OW10805   5.565   9.143  10.522  0.5464  0.5514 -0.3390
 1315SOL    HW110806   5.514   9.204  10.468 -1.6155  0.8704  1.8598
 1315SOL    HW210807   5.508   9.067  10.532  1.2520  0.1516  0.7458
 1316SOL     OW10808   2.227   3.075   2.583 -0.0966 -0.2712  0.2260
 1316SOL    HW110809   2.225   3.167   2.557  2.7056  0.3379  1.7190
 1316SOL    HW210810   2.157   3.067   2.648 -0.6276  0.6984 -0.2022
 1317SOL     OW10811  11.225  11.351   7.929  0.7575  0.2140  0.0199
 1317SOL    HW110812  11.160  11.350   7.858  1.2016 -0.0402 -0.3854
 1317SOL    HW210813  11.253  11.442   7.935  1.0674  0.1494 -0.4479
 1318SOL     OW10814   0.806   7.323   8.982 -0.3065  0.4739  0.0291
 1318SOL    HW110815   0.886   7.375   8.991  0.1299 -0.1110 -0.4403
 1318SOL    HW210816   0.779   7.305   9.073  0.8804 -0.5027  0.2121
 1319SOL     OW10817  11.239  11.237   1.832  0.3403 -0.0776  0.4704
 1319SOL    HW110818  11.229  11.241   1.927  0.1027 -0.1053  0.4452
 1319SOL    HW210819  11.203  11.152   1.806 -0.6460  0.4091  0.2219
 1320SOL     OW10820   3.093   1.004   0.624  0.4958  0.0894  0.1223
 1320SOL    HW110821   3.046   1.037   0.700 -1.4794 -0.2802 -0.8640
 1320SOL    HW210822   3.034   1.020   0.551  1.5957 -1.1097 -1.0860
 1321SOL     OW10823  11.608  10.047   6.835 -0.6126 -0.0137  0.5373
 1321SOL    HW110824  11.597   9.957   6.805  1.3591 -0.5641  1.3069
 1321SOL    HW210825  11.547  10.055   6.908 -0.9567 -0.6599  0.3293
 1322SOL     OW10826   5.176  11.385   2.407 -0.0400 -0.8743  0.2022
 1322SOL    HW110827   5.135  11.433   2.479  0.1916  1.0135 -0.8482
 1322SOL    HW210828   5.113  11.393   2.335  0.5783 -1.0519 -0.3625
 1323SOL     OW10829   7.328   6.305   4.762  0.2800  0.0976  0.3043
 1323SOL    HW110830   7.342   6.317   4.856 -2.2920  1.6696  0.5971
 1323SOL    HW210831   7.252   6.246   4.757  1.1588 -0.9767 -0.8549
 1324SOL     OW10832  10.111   6.278   1.798 -0.2376 -0.4718  0.0811
 1324SOL    HW110833  10.198   6.301   1.765 -0.9217 -0.9314 -2.2130
 1324SOL    HW210834  10.122   6.191   1.836  0.4460 -0.2095  0.4993
 1325SOL     OW10835   6.965   1.039   8.151 -0.1589  0.1125  0.0520
 1325SOL    HW110836   6.881   0.999   8.175 -0.3650  0.8219  0.5332
 1325SOL    HW210837   7.022   1.022   8.226  0.7412 -2.0444 -1.0468
 1326SOL     OW10838   3.865   3.183   0.141  0.6753 -0.1880 -0.3025
 1326SOL    HW110839   3.784   3.179   0.092 -0.3392  2.0340  1.0481
 1326SOL    HW210840   3.923   3.239   0.089  0.5590 -0.0019 -0.2309
 1327SOL     OW10841  12.108  11.154  10.848 -0.3757  0.2252 -0.3677
 1327SOL    HW110842  12.174  11.163  10.779  1.0165 -1.3099  0.7155
 1327SOL    HW210843  12.131  11.221  10.912 -0.2748  0.1199 -0.2946
 1328SOL     OW10844   3.375   3.135   4.616  0.3415  0.1401  0.2078
 1328SOL    HW110845   3.441   3.202   4.598  1.1710 -0.3366  1.3598
 1328SOL    HW210846   3.356   3.144   4.709 -0.3088 -0.5497  0.1541
 1329SOL     OW10847   8.176   6.442   6.260 -0.2253 -0.3685  0.2580
 1329SOL    HW110848   8.160   6.370   6.199 -1.5120  0.5591 -0.5432
 1329SOL    HW210849   8.124   6.420   6.338 -0.6479 -0.2852  0.0000
 1330SOL     OW10850   6.996   5.673   9.611  0.3974 -0.4795  0.0870
 1330SOL    HW110851   6.922   5.733   9.617  0.1297 -0.5282 -2.0324
 1330SOL    HW210852   6.989   5.634   9.524  1.1574 -2.8328  1.0038
 1331SOL     OW10853   9.008   0.859   8.599 -0.3059  0.1688  0.0767
 1331SOL    HW110854   9.055   0.813   8.669 -1.2138  0.4710  0.9015
 1331SOL    HW210855   8.967   0.933   8.642 -0.4902  0.6359 -0.8765
 1332SOL     OW10856   6.047  10.447   9.054  0.2191  0.0573 -0.0521
 1332SOL    HW110857   5.976  10.418   8.997 -0.9834  0.2341  1.3008
 1332SOL    HW210858   6.014  10.527   9.096  2.1055  1.4757 -1.0729
 1333SOL     OW10859   9.094   4.086   9.409  0.2856  0.3902  0.0443
 1333SOL    HW110860   9.060   4.065   9.496 -2.1493  0.4212 -0.8196
 1333SOL    HW210861   9.143   4.168   9.421  0.0375  0.3631  1.3745
 1334SOL     OW10862   9.777   9.144   8.956  0.0316  0.2572  0.3731
 1334SOL    HW110863   9.850   9.084   8.971 -0.9318 -1.1313 -0.2614
 1334SOL    HW210864   9.803   9.196   8.880 -0.7547 -2.2005 -1.7048
 1335SOL     OW10865   5.641   4.645   9.735  0.5191  0.5904 -0.4362
 1335SOL    HW110866   5.676   4.719   9.783  0.7352 -0.5126  1.1650
 1335SOL    HW210867   5.564   4.679   9.691 -0.0709  1.4952  1.2362
 1336SOL     OW10868   4.905   8.980   0.618 -0.1089 -0.2179 -0.2873
 1336SOL    HW110869   4.813   8.978   0.591 -1.0767  0.9856  2.4920
 1336SOL    HW210870   4.936   8.891   0.607 -1.9708 -0.9053 -0.2358
 1337SOL     OW10871   4.848   2.575   9.847  0.0607  0.3021  0.1234
 1337SOL    HW110872   4.817   2.528   9.770 -0.2891 -1.9422  1.5408
 1337SOL    HW210873   4.815   2.664   9.836 -1.9866 -0.5472 -1.1707
 1338SOL     OW10874  12.346   1.336  11.846  0.0882 -0.1202 -0.3799
 1338SOL    HW110875  12.356   1.430  11.861  3.0806 -0.1192 -1.5837
 1338SOL    HW210876  12.335   1.299  11.933 -0.5339  1.2610  0.1668
 1339SOL     OW10877   9.361   8.202   7.639  0.0786 -0.0476 -0.4673
 1339SOL    HW110878   9.347   8.117   7.681  0.2358 -0.4462 -1.2034
 1339SOL    HW210879   9.273   8.235   7.622  0.0034  0.4226  0.7597
 1340SOL     OW10880   7.790   5.485   6.483  0.2913  0.3115  0.1996
 1340SOL    HW110881   7.811   5.455   6.395  0.6259  0.0724  0.3581
 1340SOL    HW210882   7.728   5.421   6.517  1.8410 -0.8688  0.9443
 1341SOL     OW10883  12.115   7.573   7.107  0.4767  0.5771  0.1925
 1341SOL    HW110884  12.156   7.659   7.098 -0.0316  0.8675  0.6201
 1341SOL    HW210885  12.035   7.589   7.157 -0.4931  0.1299 -1.1529
 1342SOL     OW10886   8.402   8.386  10.974 -0.3670  0.2465 -0.3803
 1342SOL    HW110887   8.460   8.458  10.949 -1.6974  1.0428 -1.2592
 1342SOL    HW210888   8.441   8.309  10.932  0.3021  0.6858 -0.5879
 1343SOL     OW10889   6.449   2.900   0.198 -0.6527 -0.2281 -0.1068
 1343SOL    HW110890   6.485   2.932   0.280  2.3113 -0.9438 -1.0073
 1343SOL    HW210891   6.402   2.820   0.222  0.6911 -0.7683  0.8654
 1344SOL     OW10892  11.189  11.265   2.116  0.6128 -0.6417  0.1526
 1344SOL    HW110893  11.132  11.250   2.191  0.3131  0.4849  0.1662
 1344SOL    HW210894  11.152  11.342   2.072  1.5224 -0.5110 -0.4175
 1345SOL     OW10895   8.559   7.038  10.477 -0.2516  0.3135 -0.0084
 1345SOL    HW110896   8.596   7.040  10.565 -0.5733 -0.8074  0.1674
 1345SOL    HW210897   8.613   6.974  10.430 -0.0876  0.8974 -0.6301
 1346SOL     OW10898   0.282   5.271  12.151  0.6098 -0.4632 -0.0919
 1346SOL    HW110899   0.258   5.178  12.147  2.4383 -1.0775  1.7330
 1346SOL    HW210900   0.200   5.317  12.166 -0.3689 -1.7277 -1.3312
 1347SOL     OW10901   9.737   9.171   3.890 -0.0238  0.2113 -0.1955
 1347SOL    HW110902   9.696   9.129   3.815  1.2531 -2.4816  0.4882
 1347SOL    HW210903   9.669   9.169   3.958 -0.4796  0.7366 -0.6178
 1348SOL     OW10904   3.803   7.332  11.581 -0.5146  0.5422  0.5921
 1348SOL    HW110905   3.876   7.352  11.640  0.3602  1.9021 -0.8652
 1348SOL    HW210906   3.734   7.394  11.606  0.1253  1.6315 -0.2296
 1349SOL     OW10907   5.867   8.405   4.779  0.0602 -0.0554 -0.3742
 1349SOL    HW110908   5.813   8.469   4.731 -1.5691  0.4256  1.9141
 1349SOL    HW210909   5.904   8.349   4.711 -0.3294  1.9083 -2.3085
 1350SOL     OW10910   2.601   4.706   4.973 -0.1439 -0.1472  0.0890
 1350SOL    HW110911   2.620   4.613   4.980 -1.9950 -0.9117 -3.0414
 1350SOL    HW210912   2.506   4.711   4.964  0.0162  1.8852 -1.2316
 1351SOL     OW10913   8.373  11.322   6.221 -0.2369 -0.1118  0.4051
 1351SOL    HW110914   8.376  11.297   6.313  2.3206  1.8061  0.9745
 1351SOL    HW210915   8.360  11.417   6.222  0.4579  0.0402 -1.1477
 1352SOL     OW10916  11.812   5.108   8.474 -0.0254  0.1497  0.3499
 1352SOL    HW110917  11.862   5.158   8.409  0.8327 -1.5362 -0.3765
 1352SOL    HW210918  11.731   5.157   8.486 -0.3864  0.3500 -2.3128
 1353SOL     OW10919   9.428   5.344   2.974  0.0795 -0.3341  0.0240
 1353SOL    HW110920   9.410   5.267   2.919 -0.5647 -0.6618  0.6693
 1353SOL    HW210921   9.378   5.327   3.054  0.9810  0.1428  0.6997
 1354SOL     OW10922   3.460  12.044  10.205  0.3482  0.5275  0.2254
 1354SOL    HW110923   3.368  12.030  10.185  0.0257 -2.2931  2.9454
 1354SOL    HW210924   3.459  12.099  10.283  1.0242  1.1491 -0.1958
 1355SOL     OW10925   4.413   3.839   2.607  0.8030  0.3493 -0.5420
 1355SOL    HW110926   4.409   3.843   2.703  0.7742  1.9895 -0.5904
 1355SOL    HW210927   4.322   3.831   2.580  0.7290  0.8470 -0.4534
 1356SOL     OW10928   6.679   0.502   9.726 -0.4821 -0.4015 -0.2069
 1356SOL    HW110929   6.691   0.410   9.749  0.5935 -1.2359 -3.5255
 1356SOL    HW210930   6.591   0.523   9.755 -1.7686 -3.3269 -1.5760
 1357SOL     OW10931   5.572   8.146   0.807 -0.1994 -0.3376 -0.4875
 1357SOL    HW110932   5.596   8.117   0.719 -1.3354 -0.4474 -0.7820
 1357SOL    HW210933   5.645   8.118   0.862  0.3290 -0.6575 -1.3243
 1358SOL     OW10934   4.724   1.718   3.009  0.2678  0.1243 -0.1674
 1358SOL    HW110935   4.800   1.696   3.063  0.6578 -0.0571 -0.7829
 1358SOL    HW210936   4.667   1.769   3.067  0.6664 -0.0924  0.4206
 1359SOL     OW10937   7.854  11.919   3.421  0.3937  0.2674 -0.5714
 1359SOL    HW110938   7.913  11.845   3.437  1.1632  0.5734 -1.8481
 1359SOL    HW210939   7.837  11.956   3.508  0.0869 -1.3201  0.0722
 1360SOL     OW10940   0.014  10.929   1.700 -0.8749  0.0019 -0.6387
 1360SOL    HW110941   0.096  10.927   1.650  0.6921  1.0260  1.6859
 1360SOL    HW210942   0.029  10.996   1.767 -3.2725 -0.4811  0.4871
 1361SOL     OW10943   6.937   3.494   0.481 -0.3562 -0.0966  0.0216
 1361SOL    HW110944   6.995   3.421   0.463  0.1774  0.4155 -0.3709
 1361SOL    HW210945   6.884   3.503   0.402  0.3857  0.6715 -0.4094
 1362SOL     OW10946  11.008   2.615  10.849 -0.3604  0.0518  0.4650
 1362SOL    HW110947  10.932   2.581  10.896 -1.3147  1.5214  0.0639
 1362SOL    HW210948  11.052   2.671  10.912  0.4488 -0.8300  0.7099
 1363SOL     OW10949   3.540   4.098   0.465  0.4602 -0.1532  0.2834
 1363SOL    HW110950   3.587   4.024   0.502  0.5959 -0.2783 -0.1287
 1363SOL    HW210951   3.607   4.166   0.456  0.6450 -0.4430 -0.6162
 1364SOL     OW10952   8.826   3.243   9.184  0.1797 -0.1317 -0.0379
 1364SOL    HW110953   8.850   3.197   9.104 -0.9090  1.8731 -1.6000
 1364SOL    HW210954   8.731   3.252   9.179  0.3809  3.0654 -0.3532
 1365SOL     OW10955   4.129  12.095   2.780  0.0553  0.3146  0.0683
 1365SOL    HW110956   4.068  12.040   2.830 -1.3809  0.0019 -1.8792
 1365SOL    HW210957   4.120  12.182   2.818  1.0314 -0.3931  2.0501
 1366SOL     OW10958   3.353   3.156  11.720 -0.2735  0.9162 -0.1181
 1366SOL    HW110959   3.287   3.218  11.750 -0.0752  0.7865  0.6012
 1366SOL    HW210960   3.433   3.208  11.710 -0.4318  1.0381 -0.8215
 1367SOL     OW10961   0.963   6.974   1.281  0.3939 -0.1103  0.5890
 1367SOL    HW110962   0.963   6.935   1.194 -0.1340 -0.1736  0.6168
 1367SOL    HW210963   1.034   6.930   1.327  0.1733 -0.6330  0.4381
 1368SOL     OW10964   6.112  12.476   8.073 -0.3765 -0.0194 -0.1689
 1368SOL    HW110965   6.116  12.556   8.020 -0.3777 -0.2484 -0.5116
 1368SOL    HW210966   6.187  12.482   8.131 -0.0111 -0.0785 -0.6314
 1369SOL     OW10967   4.294   9.934   4.542  0.1251 -0.4876  0.6290
 1369SOL    HW110968   4.272   9.987   4.465 -0.3503 -1.7060 -0.0936
 1369SOL    HW210969   4.352   9.866   4.508  0.3281 -0.7372  1.4543
 1370SOL     OW10970   0.539   8.804  12.073  0.0426  0.0340 -0.3711
 1370SOL    HW110971   0.577   8.761  11.997  2.5701 -0.1030  0.8587
 1370SOL    HW210972   0.446   8.782  12.069 -0.0440  0.4749 -3.6514
 1371SOL     OW10973  12.102   2.960   1.216  0.0071 -0.4901  0.6690
 1371SOL    HW110974  12.042   2.990   1.148 -0.0531  0.4322  1.1071
 1371SOL    HW210975  12.166   2.905   1.170  4.2054  5.3267 -1.7192
 1372SOL     OW10976   3.625   5.383  12.190 -0.3213 -0.2564  0.5644
 1372SOL    HW110977   3.569   5.444  12.238  0.7138  0.9892  0.2721
 1372SOL    HW210978   3.609   5.403  12.098  0.3015 -0.1298  0.4726
 1373SOL     OW10979   7.832   1.276   9.021  0.0348  0.1511  0.2972
 1373SOL    HW110980   7.885   1.235   8.952  0.7097  0.1346  0.8146
 1373SOL    HW210981   7.784   1.203   9.061  0.4292  0.0077  0.5182
 1374SOL     OW10982   1.145   8.558  12.086 -0.3800 -0.7513 -0.0150
 1374SOL    HW110983   1.186   8.614  12.152 -1.4553 -1.0398  0.9035
 1374SOL    HW210984   1.209   8.489  12.070  0.7753  0.4422 -0.8325
 1375SOL     OW10985  12.142   1.776   8.198  0.4215  0.1076 -0.1272
 1375SOL    HW110986  12.053   1.809   8.212 -0.0898 -1.3671  0.2946
 1375SOL    HW210987  12.197   1.830   8.253 -0.5063 -0.3113  1.2564
 1376SOL     OW10988   4.577   9.560   0.125 -0.5564 -0.1715 -0.3207
 1376SOL    HW110989   4.590   9.638   0.071  0.3617 -0.7976 -1.0388
 1376SOL    HW210990   4.538   9.496   0.066 -3.8450  0.5149  0.9150
 1377SOL     OW10991   5.351   0.955  12.308  0.4820 -0.0942  0.0409
 1377SOL    HW110992   5.289   1.009  12.258  1.0891  0.1925 -0.4101
 1377SOL    HW210993   5.399   1.018  12.362  0.1578 -0.3532  0.6301
 1378SOL     OW10994   5.029   2.464   0.600  0.0171 -0.2357  0.4628
 1378SOL    HW110995   5.051   2.450   0.508 -1.7834 -2.3306  0.2714
 1378SOL    HW210996   4.934   2.481   0.600 -0.1704 -1.0711  1.9660
 1379SOL     OW10997   1.922   3.899   9.075  0.6093  0.6353  0.0826
 1379SOL    HW110998   1.915   3.952   9.154 -0.0027  0.9299 -0.1661
 1379SOL    HW210999   1.960   3.958   9.010  2.7260 -0.0792  0.5876
 1380SOL     OW11000   2.988   4.742   9.014  0.1979 -0.7587 -0.8135
 1380SOL    HW111001   3.055   4.706   9.071  0.1935  0.1839 -0.1779
 1380SOL    HW211002   2.938   4.667   8.984  1.1480 -1.4134 -0.7980
 1381SOL     OW11003   5.374  11.491   0.781 -0.7676 -0.1317 -0.6849
 1381SOL    HW111004   5.309  11.448   0.836 -1.2463  0.0188 -1.1214
 1381SOL    HW211005   5.458  11.461   0.815 -1.0372  0.2608  0.3689
 1382SOL     OW11006   1.104   1.296  10.882  0.0047  0.0344  0.0881
 1382SOL    HW111007   1.129   1.357  10.952 -0.5478 -0.3218  0.6032
 1382SOL    HW211008   1.059   1.350  10.817  0.5588  0.3737 -0.0207
 1383SOL     OW11009   6.007   8.854   7.031  0.2107 -0.4868 -0.5362
 1383SOL    HW111010   5.991   8.921   7.097  1.4507 -1.0703  0.4109
 1383SOL    HW211011   6.071   8.796   7.071 -0.3204 -1.8666 -1.5856
 1384SOL     OW11012  11.071   5.833   6.078 -0.7788  0.1016 -1.0749
 1384SOL    HW111013  11.085   5.844   6.172 -0.0610  1.9182 -1.3499
 1384SOL    HW211014  10.976   5.823   6.069 -0.9422  0.7044 -0.1980
 1385SOL     OW11015   5.416  10.982   4.281 -0.5417 -0.5687 -0.0090
 1385SOL    HW111016   5.329  11.021   4.285  0.5234  1.9460  0.3925
 1385SOL    HW211017   5.428  10.939   4.366 -1.5446 -1.4048 -0.2695
 1386SOL     OW11018   7.237  12.267   5.385 -0.0037 -0.0944  0.0473
 1386SOL    HW111019   7.185  12.204   5.337  0.1045 -0.2981  0.1954
 1386SOL    HW211020   7.183  12.346   5.389 -0.2103 -0.2356  0.0139
 1387SOL     OW11021   2.381   1.818   4.988  0.2994 -0.2977  0.1389
 1387SOL    HW111022   2.303   1.835   5.041  0.3384 -2.0246  0.8341
 1387SOL    HW211023   2.355   1.842   4.899 -0.9821 -0.6827  0.3844
 1388SOL     OW11024   7.966  10.912   3.543  0.0016 -0.0004 -0.1367
 1388SOL    HW111025   7.874  10.890   3.529 -0.0879  0.5095 -0.3453
 1388SOL    HW211026   7.986  10.976   3.476  0.5441 -0.1947 -0.1607
 1389SOL     OW11027   7.430  11.899   6.929  0.3822 -0.2290  0.2336
 1389SOL    HW111028   7.499  11.866   6.872 -0.9761 -1.8941 -0.5645
 1389SOL    HW211029   7.352  11.903   6.873 -0.5361 -0.0325  1.4781
 1390SOL     OW11030  10.998   4.602   8.524  0.5639 -0.7835 -0.0595
 1390SOL    HW111031  11.043   4.650   8.594 -0.1364 -0.1142 -0.0642
 1390SOL    HW211032  11.046   4.626   8.444  0.4313 -0.3589 -0.0150
 1391SOL     OW11033   0.422   4.035  12.156 -0.2033  0.2542 -0.6871
 1391SOL    HW111034   0.463   3.983  12.087  1.8793  0.8802  0.0130
 1391SOL    HW211035   0.336   4.058  12.121 -0.2611 -1.6634 -1.9623
 1392SOL     OW11036  11.599   7.154   5.245  0.2958  0.3519 -0.5765
 1392SOL    HW111037  11.584   7.142   5.151  0.5202  1.2997 -0.7416
 1392SOL    HW211038  11.565   7.241   5.264  1.3993  0.6778 -0.0299
 1393SOL     OW11039   7.192   6.357   6.226 -0.6000 -0.4480  0.2864
 1393SOL    HW111040   7.276   6.404   6.231 -0.4280 -0.7733  0.4949
 1393SOL    HW211041   7.126   6.425   6.239 -0.4395  0.0859 -1.4615
 1394SOL     OW11042  10.092   2.488  10.570 -0.1838  0.1841  0.1336
 1394SOL    HW111043  10.012   2.531  10.599 -1.1731 -1.3851 -0.1262
 1394SOL    HW211044  10.162   2.530  10.620 -1.2019  1.3095  0.6677
 1395SOL     OW11045   5.861  10.002   1.590  0.0431 -0.0741  0.0102
 1395SOL    HW111046   5.842  10.083   1.542  0.0255 -0.7614 -1.1894
 1395SOL    HW211047   5.940   9.968   1.548 -0.5992 -1.2603 -0.2809
 1396SOL     OW11048   0.479  12.430   2.208 -0.2797 -0.4012  0.7012
 1396SOL    HW111049   0.556  12.475   2.173 -1.6825  1.9314  0.3956
 1396SOL    HW211050   0.449  12.375   2.136  0.0398  0.1132  0.1613
 1397SOL     OW11051   7.248   8.152   7.545  0.5929 -1.0965  0.4789
 1397SOL    HW111052   7.189   8.085   7.579  0.2190 -1.7836 -1.3914
 1397SOL    HW211053   7.315   8.104   7.498  0.1289 -0.2004 -1.1861
 1398SOL     OW11054   9.719   9.126   6.236  0.0446  0.2128 -0.3909
 1398SOL    HW111055   9.672   9.096   6.158 -2.0888  2.9840 -0.2934
 1398SOL    HW211056   9.714   9.221   6.232  3.8175  0.6277  0.8510
 1399SOL     OW11057   9.105   7.355   6.320  0.2132 -0.9711  0.1028
 1399SOL    HW111058   9.111   7.419   6.391  0.0151 -1.0786  0.2192
 1399SOL    HW211059   9.013   7.330   6.319 -0.0894  0.0580 -1.1046
 1400SOL     OW11060   6.999   4.623  11.783 -0.6054  0.0751 -0.0978
 1400SOL    HW111061   7.001   4.654  11.873  1.5339 -1.7557  0.5807
 1400SOL    HW211062   6.931   4.556  11.781  1.3098 -2.0523  1.0618
 1401SOL     OW11063   4.117   7.177   1.675  0.3324 -0.5472 -0.6778
 1401SOL    HW111064   4.135   7.215   1.588  0.4108  0.7218 -0.1269
 1401SOL    HW211065   4.201   7.139   1.701  0.4183 -0.5846 -0.9932
 1402SOL     OW11066   7.728   9.655   6.650 -0.6106 -0.3307 -0.0202
 1402SOL    HW111067   7.633   9.638   6.644 -0.2282 -2.2756 -2.1736
 1402SOL    HW211068   7.745   9.721   6.583 -0.3763 -0.3982 -0.0283
 1403SOL     OW11069   6.772  11.677   7.635 -0.2151  0.7107  0.2531
 1403SOL    HW111070   6.708  11.742   7.605 -0.4387  0.1893 -0.4324
 1403SOL    HW211071   6.783  11.619   7.560  1.1426  0.8468  0.3239
 1404SOL     OW11072   3.005  10.929  11.424 -0.2727  0.2271 -0.2173
 1404SOL    HW111073   3.055  11.003  11.460  0.3464  1.1720 -2.7970
 1404SOL    HW211074   3.047  10.852  11.461 -0.7498  1.0989  2.3266
 1405SOL     OW11075   7.785   7.505   3.361 -0.1392  0.1433  0.3282
 1405SOL    HW111076   7.807   7.598   3.354  1.9148 -0.3228 -0.0839
 1405SOL    HW211077   7.770   7.477   3.271  1.8369 -0.4512  0.1367
 1406SOL     OW11078   7.856   2.684   2.591  0.0696 -0.4396 -0.2594
 1406SOL    HW111079   7.824   2.775   2.590 -1.5637 -0.7368  3.9562
 1406SOL    HW211080   7.949   2.692   2.610  0.2980  0.3191 -1.5507
 1407SOL     OW11081   7.572   7.987  10.705  0.1746  0.3173 -0.0026
 1407SOL    HW111082   7.503   7.984  10.639  0.8828  1.4670 -0.8364
 1407SOL    HW211083   7.605   7.898  10.710 -0.9203 -0.0999 -0.0825
 1408SOL     OW11084  12.273   3.532  11.374 -0.0863  0.5467 -0.5985
 1408SOL    HW111085  12.329   3.607  11.395  1.4710 -0.6311 -0.3269
 1408SOL    HW211086  12.256   3.540  11.280 -0.2106  1.4008 -0.5096
 1409SOL     OW11087   5.157   0.007   5.642 -0.4832  0.1118  0.3730
 1409SOL    HW111088   5.139   0.043   5.556  0.0588  0.1065  0.2517
 1409SOL    HW211089   5.097  -0.067   5.651  0.7327 -1.0762 -0.7749
 1410SOL     OW11090   6.104   9.689   4.257  0.4196  0.1104 -0.3081
 1410SOL    HW111091   6.089   9.613   4.201  4.1750 -1.3661  0.3904
 1410SOL    HW211092   6.177   9.735   4.216 -0.5002  2.3045  0.3597
 1411SOL     OW11093   4.804  10.452   6.862  0.0160  0.5878  0.1452
 1411SOL    HW111094   4.714  10.484   6.863  0.0488  0.6746  0.5874
 1411SOL    HW211095   4.802  10.376   6.920  0.0426  0.0661 -0.5220
 1412SOL     OW11096   2.644   1.800   0.396 -0.6487 -0.1787  0.0655
 1412SOL    HW111097   2.604   1.829   0.313  0.3834  0.5573 -0.1885
 1412SOL    HW211098   2.737   1.818   0.385 -0.5295  0.1116  1.4859
 1413SOL     OW11099   6.222   2.084   5.172 -0.1324 -0.1666  0.0262
 1413SOL    HW111100   6.245   2.010   5.229  0.5054  0.2307  0.2818
 1413SOL    HW211101   6.261   2.062   5.088 -1.0634 -0.7471 -0.2802
 1414SOL     OW11102   8.274   1.089   4.853 -0.5221  0.9665 -1.3408
 1414SOL    HW111103   8.249   1.091   4.760 -2.8754 -2.0855 -0.9455
 1414SOL    HW211104   8.334   1.015   4.859  0.1600  1.5748 -0.4958
 1415SOL     OW11105   9.423   9.419   8.859 -0.4906 -0.7035 -0.5754
 1415SOL    HW111106   9.331   9.441   8.845 -0.1217  2.4662  0.9884
 1415SOL    HW211107   9.471   9.492   8.819  1.2311 -1.2667  0.3692
 1416SOL     OW11108   6.999   9.491   3.865 -0.2289  0.0709 -0.5322
 1416SOL    HW111109   7.067   9.515   3.802 -1.3082  1.0199 -1.3673
 1416SOL    HW211110   6.934   9.443   3.814 -0.4232 -0.4238  0.1619
 1417SOL     OW11111   2.081   9.930   6.617  0.1757 -0.4642 -0.5886
 1417SOL    HW111112   1.987   9.928   6.604  0.2955 -2.3088 -1.5211
 1417SOL    HW211113   2.104  10.023   6.612 -1.4091 -0.0955 -1.7396
 1418SOL     OW11114   2.567   8.895  11.031  0.0455 -0.3850  0.1549
 1418SOL    HW111115   2.475   8.917  11.015  0.4364  0.1235 -1.6553
 1418SOL    HW211116   2.587   8.939  11.113 -1.1328  0.1191  0.2059
 1419SOL     OW11117   3.319   9.840   2.643 -0.5412 -0.6252 -0.1744
 1419SOL    HW111118   3.341   9.747   2.636 -2.0207 -1.0126 -0.0934
 1419SOL    HW211119   3.228   9.840   2.672 -1.2277  0.8349 -2.1150
 1420SOL     OW11120   2.187   9.687   6.248  0.0419 -0.1415  0.0986
 1420SOL    HW111121   2.255   9.733   6.298 -0.0150  0.9113 -0.7734
 1420SOL    HW211122   2.174   9.741   6.170 -0.9895 -0.9396 -0.2927
 1421SOL     OW11123   6.854   1.008   1.781  0.2903 -0.1858 -0.4437
 1421SOL    HW111124   6.855   1.002   1.686  2.2164  1.2065 -0.5662
 1421SOL    HW211125   6.926   0.952   1.810 -0.7577 -1.2121  0.2815
 1422SOL     OW11126   9.015   0.148  11.553 -0.1474 -0.0557 -0.0894
 1422SOL    HW111127   9.038   0.070  11.504  1.8618  0.1833  0.3930
 1422SOL    HW211128   8.970   0.115  11.631 -0.7692 -0.6045 -0.6705
 1423SOL     OW11129   0.975   9.649  10.247 -0.3973 -0.4857 -0.1127
 1423SOL    HW111130   0.915   9.574  10.245 -1.9075  0.6304  0.6667
 1423SOL    HW211131   0.918   9.724  10.231  0.4403  0.8069  2.4646
 1424SOL     OW11132   3.637   3.853   6.794 -0.7598  0.2318  0.6469
 1424SOL    HW111133   3.639   3.941   6.834 -0.4532 -0.1181  1.4372
 1424SOL    HW211134   3.718   3.849   6.743 -1.3893  0.8604 -0.4256
 1425SOL     OW11135  10.873   1.802   5.905 -0.2156 -0.4531  0.0366
 1425SOL    HW111136  10.817   1.850   5.967  0.0944  1.8138 -1.3171
 1425SOL    HW211137  10.960   1.806   5.943 -0.4722 -1.5569  0.7901
 1426SOL     OW11138   5.168   1.970   9.376  0.0664  0.3504 -0.4142
 1426SOL    HW111139   5.253   1.933   9.399 -0.2417 -0.5071 -0.6265
 1426SOL    HW211140   5.147   1.932   9.291 -1.7044 -1.5506  0.7624
 1427SOL     OW11141   0.304   0.230   3.301 -0.3334  0.3353 -0.0352
 1427SOL    HW111142   0.224   0.186   3.271 -1.4868  2.3498 -0.0505
 1427SOL    HW211143   0.334   0.280   3.225  0.7390 -0.0645  0.1024
 1428SOL     OW11144   0.730   6.351  11.253 -0.4759  0.2441 -0.1689
 1428SOL    HW111145   0.694   6.262  11.254 -1.1556  0.5005 -1.1671
 1428SOL    HW211146   0.669   6.402  11.307 -0.0635  0.1087  0.4378
 1429SOL     OW11147   4.768   2.156   3.447 -0.5692  0.4494 -0.4858
 1429SOL    HW111148   4.712   2.081   3.469  1.0465 -0.8049 -0.5062
 1429SOL    HW211149   4.803   2.184   3.532 -0.4501  0.5869 -0.5809
 1430SOL     OW11150  10.017   3.293   9.796 -0.1370  0.5116 -0.1675
 1430SOL    HW111151  10.008   3.358   9.866 -0.1480  0.2810  0.0478
 1430SOL    HW211152   9.931   3.291   9.754 -0.4121 -0.0235  0.4110
 1431SOL     OW11153   5.906   5.385  10.121  0.1153 -0.0900  0.2197
 1431SOL    HW111154   5.942   5.474  10.124 -1.0394  0.3669  0.9843
 1431SOL    HW211155   5.982   5.328  10.135  1.2184  0.6499 -2.2523
 1432SOL     OW11156  12.107   6.449   4.135 -0.6125 -0.0251 -0.0756
 1432SOL    HW111157  12.191   6.474   4.173  0.0785 -1.5722 -0.4960
 1432SOL    HW211158  12.101   6.501   4.055  0.2540 -0.3467 -0.3670
 1433SOL     OW11159  11.640  12.103   2.926  0.0166  0.1384 -0.2616
 1433SOL    HW111160  11.694  12.123   2.849  0.6692 -0.0761  0.1335
 1433SOL    HW211161  11.562  12.157   2.915  0.3836  0.5791 -0.7627
 1434SOL     OW11162   8.751  12.353   7.029 -0.3424 -0.0353  0.2128
 1434SOL    HW111163   8.742  12.269   7.074  1.9197 -1.0993 -1.1102
 1434SOL    HW211164   8.789  12.412   7.094 -0.4890 -0.4901  0.7160
 1435SOL     OW11165  11.261   0.404   3.951 -0.4690  0.0342  0.1528
 1435SOL    HW111166  11.347   0.419   3.912  1.3263  0.3943  3.8217
 1435SOL    HW211167  11.230   0.492   3.975 -1.9839 -0.0797 -1.1831
 1436SOL     OW11168   0.363   2.144   4.302 -0.1245  0.3008  0.2253
 1436SOL    HW111169   0.328   2.084   4.236 -0.6602  1.2698 -0.3893
 1436SOL    HW211170   0.303   2.218   4.301 -0.7501 -0.1013  2.5406
 1437SOL     OW11171   1.766   8.718   5.317 -0.2415  0.0508  0.2220
 1437SOL    HW111172   1.718   8.649   5.270 -1.7590  0.7990  0.6123
 1437SOL    HW211173   1.801   8.774   5.248 -2.2526  1.0093 -0.0811
 1438SOL     OW11174   4.613   8.417   7.424 -0.3272  0.5201  0.2267
 1438SOL    HW111175   4.522   8.432   7.396 -1.0179 -2.6422  0.4206
 1438SOL    HW211176   4.658   8.389   7.344 -0.3365 -0.8341  0.6630
 1439SOL     OW11177   4.441   7.085   1.444  0.2677  0.3608  0.0253
 1439SOL    HW111178   4.436   7.014   1.508 -0.9385  1.0781  0.7422
 1439SOL    HW211179   4.527   7.124   1.458  0.4939 -0.2533  0.3700
 1440SOL     OW11180   9.691  10.709  11.650 -0.0638 -0.3898  0.5418
 1440SOL    HW111181   9.668  10.616  11.650 -1.1532 -0.1359  0.3071
 1440SOL    HW211182   9.736  10.723  11.733  0.9682 -1.3204  0.1605
 1441SOL     OW11183   3.648  12.425   9.211  0.1123 -0.1112  0.3369
 1441SOL    HW111184   3.711  12.394   9.277  1.4305 -0.4718 -1.0364
 1441SOL    HW211185   3.699  12.484   9.155 -1.4122  1.5367  0.6018
 1442SOL     OW11186   4.431   7.691   5.107 -0.4739  0.0482 -0.4047
 1442SOL    HW111187   4.378   7.769   5.122 -2.4507 -1.5010  1.1982
 1442SOL    HW211188   4.423   7.674   5.013 -1.3272  0.8695 -0.4946
 1443SOL     OW11189   8.151   9.982   1.930 -0.3621 -0.0755  0.8085
 1443SOL    HW111190   8.113  10.070   1.922 -1.7073 -0.7371 -0.9900
 1443SOL    HW211191   8.221   9.980   1.865 -3.3445 -1.6477 -2.7566
 1444SOL     OW11192  10.036   1.695  12.080  0.0273 -0.2801 -0.4786
 1444SOL    HW111193  10.001   1.608  12.058 -1.0838 -0.4431  1.6672
 1444SOL    HW211194   9.986   1.755  12.025  0.4841 -0.9420 -1.6522
 1445SOL     OW11195   4.659   5.898   3.312  0.0914 -0.0723 -0.2645
 1445SOL    HW111196   4.696   5.860   3.232  0.9855  0.3976 -0.0831
 1445SOL    HW211197   4.649   5.823   3.371  1.4745 -0.1170 -0.0522
 1446SOL     OW11198   4.605   3.884   6.971  0.2495 -0.3000  0.0731
 1446SOL    HW111199   4.681   3.898   6.915  0.4500 -0.0953  0.3933
 1446SOL    HW211200   4.630   3.921   7.056 -0.1244 -0.4268  0.2428
 1447SOL     OW11201   4.146   5.751  12.008  0.2125 -0.1063 -0.4032
 1447SOL    HW111202   4.169   5.658  12.010 -1.6396 -0.6073 -0.6797
 1447SOL    HW211203   4.184   5.787  12.088 -0.4943 -1.4726  0.5764
 1448SOL     OW11204   4.537   4.435   1.141  0.7433 -0.3803 -0.3442
 1448SOL    HW111205   4.571   4.417   1.228 -0.7166  0.5231  0.4561
 1448SOL    HW211206   4.493   4.354   1.115  3.8994 -1.8228 -1.6969
 1449SOL     OW11207   3.111   9.438   3.847  0.1794  0.1314 -0.2164
 1449SOL    HW111208   3.106   9.512   3.786  0.0213 -0.0933 -0.4734
 1449SOL    HW211209   3.039   9.453   3.908  0.1400  0.1797 -0.2749
 1450SOL     OW11210   6.293  12.104   0.221 -0.0070 -0.5685  0.0777
 1450SOL    HW111211   6.330  12.017   0.204 -2.2861 -1.4005 -0.9446
 1450SOL    HW211212   6.208  12.103   0.178  0.4422  2.6785 -1.1586
 1451SOL     OW11213   8.765   2.191   8.979 -0.4275 -0.0051 -0.3855
 1451SOL    HW111214   8.806   2.259   9.033 -1.7480  0.1432  0.4812
 1451SOL    HW211215   8.823   2.115   8.988  0.9103  0.8956 -1.1292
 1452SOL     OW11216   3.297   8.918   0.825  0.3609 -0.0412 -0.0073
 1452SOL    HW111217   3.339   8.952   0.904  0.3289 -0.3207  0.1346
 1452SOL    HW211218   3.357   8.850   0.794 -1.3766 -2.6577  1.9432
 1453SOL     OW11219  11.113   0.653   1.119 -0.1325  0.4487 -0.2029
 1453SOL    HW111220  11.102   0.660   1.213 -0.3856  1.7789 -0.3121
 1453SOL    HW211221  11.026   0.671   1.083 -0.2433 -0.9108 -0.6780
 1454SOL     OW11222  12.401   9.811   5.806  0.2209 -0.0814 -0.6478
 1454SOL    HW111223  12.486   9.850   5.824 -0.0071  1.2025 -2.1703
 1454SOL    HW211224  12.364   9.794   5.893  0.7040  2.2915  0.0884
 1455SOL     OW11225  10.741   4.141   2.860  0.0203 -0.3825  0.2187
 1455SOL    HW111226  10.728   4.178   2.947 -0.5614 -1.0502  0.4243
 1455SOL    HW211227  10.768   4.050   2.876  1.4441 -0.0840 -0.2732
 1456SOL     OW11228  11.510   8.338   6.427  0.2736 -0.3232  0.6291
 1456SOL    HW111229  11.471   8.304   6.346 -1.9688  1.0002  1.0775
 1456SOL    HW211230  11.484   8.275   6.494  1.5391 -1.0431  0.4762
 1457SOL     OW11231   3.949  10.041   4.849 -0.1263 -0.7316  0.2427
 1457SOL    HW111232   3.910  10.003   4.928  0.8589 -1.1627  0.5244
 1457SOL    HW211233   3.955   9.967   4.788  0.2331 -0.6555  0.1895
 1458SOL     OW11234  11.704   5.704   4.916  0.0731  0.2876  0.0565
 1458SOL    HW111235  11.772   5.768   4.936 -0.8556  1.3516 -0.1108
 1458SOL    HW211236  11.683   5.664   5.000 -0.7882  1.6838  0.5350
 1459SOL     OW11237   9.258   7.956   5.544 -0.1070 -0.2354 -0.1335
 1459SOL    HW111238   9.309   7.919   5.472  0.5261  1.3214 -0.5286
 1459SOL    HW211239   9.251   8.049   5.522 -1.8976 -0.1477  0.6520
 1460SOL     OW11240   3.799   7.282   0.939  0.5407 -0.4720 -0.0380
 1460SOL    HW111241   3.760   7.226   0.871 -2.8919 -0.4529  1.6691
 1460SOL    HW211242   3.821   7.221   1.010 -0.2141 -0.0629  0.5687
 1461SOL     OW11243   6.712   6.288  10.388  0.0989 -0.1745  0.4380
 1461SOL    HW111244   6.771   6.362  10.374 -1.2719  1.0160  0.7490
 1461SOL    HW211245   6.628   6.328  10.411 -1.1078 -1.7874 -0.9155
 1462SOL     OW11246   6.365  12.225  11.078 -0.4247 -0.0208 -0.0078
 1462SOL    HW111247   6.284  12.178  11.057 -0.0857 -0.9730  0.7427
 1462SOL    HW211248   6.411  12.167  11.139  0.6581  0.6681 -0.1484
 1463SOL     OW11249  11.472   0.984   9.659  0.0577 -0.1739 -0.0485
 1463SOL    HW111250  11.398   0.924   9.668  2.5481 -3.6096 -0.4839
 1463SOL    HW211251  11.522   0.973   9.740  1.3921  0.0952 -0.8039
 1464SOL     OW11252   1.260   4.741   5.659 -0.0156  0.2909  0.2516
 1464SOL    HW111253   1.171   4.709   5.652 -0.0327  0.5794 -1.0639
 1464SOL    HW211254   1.310   4.689   5.596  0.8870 -0.3016  1.4241
 1465SOL     OW11255   0.527   0.936   9.438  0.7342 -0.2684 -0.1052
 1465SOL    HW111256   0.572   0.885   9.371  0.5886 -0.2576 -0.2123
 1465SOL    HW211257   0.440   0.953   9.401 -0.4164 -2.6903  1.2339
 1466SOL     OW11258  11.045   1.736   9.932  0.4452  0.1937  0.5971
 1466SOL    HW111259  10.969   1.791   9.914  0.8317  0.3325 -0.7408
 1466SOL    HW211260  11.026   1.653   9.889  2.1627  1.1274 -2.2459
 1467SOL     OW11261  10.099  10.756   4.791  0.4934 -0.2563 -0.0736
 1467SOL    HW111262  10.194  10.767   4.782  0.7554 -2.7600 -1.0851
 1467SOL    HW211263  10.088  10.667   4.824 -1.5465 -0.2576 -0.6197
 1468SOL     OW11264   3.540   4.424   6.887 -0.0579 -0.3900  0.4986
 1468SOL    HW111265   3.619   4.461   6.849 -0.8728  1.1532  0.2348
 1468SOL    HW211266   3.546   4.441   6.980 -0.4931  0.5715  0.3609
 1469SOL     OW11267   5.712   0.918   7.858  0.4408  0.7585 -0.2971
 1469SOL    HW111268   5.795   0.872   7.864  0.7077  1.2828  0.1499
 1469SOL    HW211269   5.732   1.008   7.884 -0.2864  0.8639 -0.0621
 1470SOL     OW11270   6.995   5.454   3.562  0.2401 -0.0671  0.1726
 1470SOL    HW111271   6.954   5.467   3.476 -1.8936 -0.5261  1.0558
 1470SOL    HW211272   7.051   5.531   3.573 -0.5452  0.7172 -1.0186
 1471SOL     OW11273   4.949   5.339   5.359 -0.1734  0.3520  0.1927
 1471SOL    HW111274   4.974   5.399   5.289  1.0927  0.0623  0.3744
 1471SOL    HW211275   5.025   5.281   5.369 -0.6927 -0.1745  1.1974
 1472SOL     OW11276   5.168  10.490   8.278  0.1722  0.1422  0.7486
 1472SOL    HW111277   5.254  10.447   8.275 -0.1330 -0.5031  1.1712
 1472SOL    HW211278   5.145  10.504   8.186  0.5892  0.0422  0.6281
 1473SOL     OW11279   4.582   5.959   0.718 -0.8295  0.2840 -0.3336
 1473SOL    HW111280   4.598   5.880   0.666  0.8521  0.0270  0.4793
 1473SOL    HW211281   4.613   6.030   0.663 -0.6609  0.1936 -0.3566
 1474SOL     OW11282   7.616   0.187   6.051 -0.2933 -0.2223  0.0861
 1474SOL    HW111283   7.609   0.225   6.139  2.3829  0.8010 -0.0480
 1474SOL    HW211284   7.672   0.110   6.063  1.1347  0.6231 -0.8515
 1475SOL     OW11285   8.007   8.412   1.869 -1.2594 -0.1831 -0.0148
 1475SOL    HW111286   8.005   8.327   1.913 -0.8695  0.0737  0.5073
 1475SOL    HW211287   7.924   8.453   1.892 -0.4160  0.5974  1.7985
 1476SOL     OW11288   2.038   6.964   4.137  0.3506 -0.2803 -0.2244
 1476SOL    HW111289   2.059   6.878   4.174  0.0570 -0.0371  0.5144
 1476SOL    HW211290   2.074   7.027   4.199 -2.7323  0.1792  1.3348
 1477SOL     OW11291   0.115   7.586   5.282  0.1528 -0.5005  0.1835
 1477SOL    HW111292   0.190   7.527   5.290 -0.5515 -1.6516 -1.1842
 1477SOL    HW211293   0.050   7.536   5.233 -0.1806  1.6799 -1.7911
 1478SOL     OW11294   7.146   9.307   5.505  0.2694 -0.0129 -0.7935
 1478SOL    HW111295   7.101   9.234   5.547  0.8119 -0.2742 -0.6711
 1478SOL    HW211296   7.237   9.280   5.499  0.4087  0.5032 -1.0771
 1479SOL     OW11297   8.734  11.403   5.397 -0.2323 -0.5666 -0.1908
 1479SOL    HW111298   8.800  11.336   5.407  0.3044  0.1529  1.3024
 1479SOL    HW211299   8.660  11.358   5.356  0.8116 -1.5963 -0.9941
 1480SOL     OW11300   3.232   4.671   8.123 -0.0319 -0.2911 -0.0357
 1480SOL    HW111301   3.179   4.659   8.201 -0.2688  0.2767 -0.1047
 1480SOL    HW211302   3.179   4.727   8.066  0.3550 -0.2722 -0.3857
 1481SOL     OW11303   1.087   8.586   9.866 -0.2676  1.0772 -0.1731
 1481SOL    HW111304   1.180   8.607   9.858 -0.4889  1.8901 -0.8453
 1481SOL    HW211305   1.082   8.491   9.853  0.4281  1.0773 -0.4845
 1482SOL     OW11306  10.993   9.855  10.227  0.2091  0.4307 -0.2559
 1482SOL    HW111307  10.943   9.926  10.267 -2.3552 -1.6446  0.5176
 1482SOL    HW211308  11.038   9.812  10.301  0.5530  0.3551 -0.5043
 1483SOL     OW11309   8.602  10.860   0.865  0.0533  0.1953 -0.4289
 1483SOL    HW111310   8.569  10.946   0.891  1.0130  0.4433  0.0101
 1483SOL    HW211311   8.615  10.866   0.771  1.8373  1.1651 -0.1649
 1484SOL     OW11312   3.723  10.845   7.872 -0.6934 -0.0657 -0.3223
 1484SOL    HW111313   3.742  10.760   7.831 -1.5311  0.3377 -1.6142
 1484SOL    HW211314   3.792  10.856   7.937  0.5920 -0.8680 -1.4779
 1485SOL     OW11315  11.447   2.212   1.517 -0.4830 -0.2558  0.2392
 1485SOL    HW111316  11.432   2.255   1.433 -2.6492  0.2890  0.8204
 1485SOL    HW211317  11.541   2.200   1.522 -0.2702  0.0007 -2.1073
 1486SOL     OW11318   1.130   9.760   9.743 -0.4980  0.4295 -0.0451
 1486SOL    HW111319   1.157   9.723   9.827  1.3528 -0.5281 -0.9964
 1486SOL    HW211320   1.118   9.853   9.761 -0.7753  0.1325  1.4116
 1487SOL     OW11321   2.565   0.498   3.150  0.1694  0.0022 -0.3172
 1487SOL    HW111322   2.573   0.427   3.214  1.5998 -0.0080 -0.4770
 1487SOL    HW211323   2.655   0.523   3.131 -0.2915  1.1150 -1.1062
 1488SOL     OW11324   3.849   5.690  11.994 -0.1647  0.0354 -0.2276
 1488SOL    HW111325   3.929   5.735  12.020 -0.9916  1.0713  0.6200
 1488SOL    HW211326   3.878   5.621  11.934  1.4213 -0.0546  0.6007
 1489SOL     OW11327   3.039   9.480  11.782 -0.1495 -0.3477  0.3803
 1489SOL    HW111328   2.985   9.455  11.706  0.8750 -1.1515 -0.1237
 1489SOL    HW211329   3.033   9.575  11.786  1.2898 -0.0821 -1.9354
 1490SOL     OW11330   4.452   6.934   0.813  0.1298  0.5136  0.1672
 1490SOL    HW111331   4.410   6.971   0.735 -1.5708 -1.4206  0.0714
 1490SOL    HW211332   4.486   7.010   0.860 -0.2792  1.8775 -1.6151
 1491SOL     OW11333   3.894   6.910   0.828 -0.7670  0.2402  0.1859
 1491SOL    HW111334   3.925   6.998   0.809  1.5117 -0.2092  1.4465
 1491SOL    HW211335   3.910   6.861   0.747 -2.2775  1.0008 -0.6030
 1492SOL     OW11336   2.955   3.630   0.604 -0.3020 -0.1070 -0.1419
 1492SOL    HW111337   2.896   3.684   0.656  0.3861  1.0213 -0.5098
 1492SOL    HW211338   3.043   3.656   0.630  0.0572 -1.1194 -0.2642
 1493SOL     OW11339   4.349   0.246  10.881 -0.0892  0.4939  0.4449
 1493SOL    HW111340   4.307   0.331  10.868 -2.3211 -0.2888  1.9280
 1493SOL    HW211341   4.304   0.208  10.957  0.8724 -1.9893 -0.1190
 1494SOL     OW11342   4.326   1.915   0.514  0.2007 -0.0109 -0.5035
 1494SOL    HW111343   4.381   1.911   0.436 -0.4499 -2.1271 -0.9249
 1494SOL    HW211344   4.383   1.890   0.586 -0.0470 -1.6830 -0.8628
 1495SOL     OW11345   5.434   1.562   8.507  0.2933  0.1903  0.4558
 1495SOL    HW111346   5.494   1.487   8.500  0.4587  0.3543  0.0909
 1495SOL    HW211347   5.433   1.583   8.600 -0.4583 -0.8373  0.7038
 1496SOL     OW11348   0.576  12.391   9.972 -0.0391 -0.1676 -0.4256
 1496SOL    HW111349   0.667  12.363   9.982  0.0134 -0.4116 -1.4587
 1496SOL    HW211350   0.571  12.474  10.019  1.0778  0.5361 -1.4828
 1497SOL     OW11351   9.257   9.824   0.726  0.1073 -0.0422  0.0882
 1497SOL    HW111352   9.261   9.731   0.750  1.2259  0.1571  0.7247
 1497SOL    HW211353   9.331   9.838   0.668  0.0550  0.4991  0.1419
 1498SOL     OW11354   7.010  11.827  10.742  0.3458 -0.1757 -0.2532
 1498SOL    HW111355   7.094  11.803  10.781  0.3648  1.2293  0.6461
 1498SOL    HW211356   6.970  11.886  10.806 -0.8377  0.0499 -1.1695
 1499SOL     OW11357   8.321   0.548   2.194 -0.0147  0.7403  0.3610
 1499SOL    HW111358   8.256   0.618   2.196  1.0653  1.7513  1.4800
 1499SOL    HW211359   8.405   0.593   2.198  0.7091 -0.6218  0.9888
 1500SOL     OW11360   1.196   6.084   9.884  0.2553 -0.4404  0.0452
 1500SOL    HW111361   1.184   6.151   9.952  1.1618 -0.7005  0.4836
 1500SOL    HW211362   1.110   6.044   9.875 -0.2671  0.6788 -0.1189
 1501SOL     OW11363   0.288   4.608   2.185 -0.2972  0.5911 -0.2909
 1501SOL    HW111364   0.359   4.628   2.246  0.1340  2.4099 -1.3138
 1501SOL    HW211365   0.208   4.628   2.233  0.0741  3.5663 -0.7385
 1502SOL     OW11366  10.060   4.385   8.162 -0.0989 -0.2794  0.0356
 1502SOL    HW111367  10.148   4.403   8.128  0.2757 -0.5019  0.8621
 1502SOL    HW211368  10.059   4.290   8.175  0.2155 -0.0769  1.8049
 1503SOL     OW11369   7.708   2.268   2.168 -0.4479  0.0179  0.4347
 1503SOL    HW111370   7.747   2.354   2.155 -0.7413  0.4379  2.0819
 1503SOL    HW211371   7.774   2.219   2.218 -0.4448 -0.5730 -0.1478
 1504SOL     OW11372   6.375   5.756   3.168 -0.6037 -0.3722  0.2716
 1504SOL    HW111373   6.291   5.724   3.135 -0.1028 -0.9861 -0.4375
 1504SOL    HW211374   6.440   5.721   3.106  0.0372  1.3844 -0.0966
 1505SOL     OW11375   1.914  10.974  11.290  0.5154 -0.2320 -0.1348
 1505SOL    HW111376   1.998  11.016  11.308  0.9693 -1.3740  0.5401
 1505SOL    HW211377   1.923  10.885  11.326 -1.3994 -0.0045  1.0858
 1506SOL     OW11378   0.188  11.304   0.223 -0.3360  0.3456 -0.3158
 1506SOL    HW111379   0.270  11.268   0.257 -0.8896 -0.7519 -0.1000
 1506SOL    HW211380   0.216  11.372   0.161  0.7408 -0.1492 -0.4017
 1507SOL     OW11381   6.902   0.380  11.602  0.0204  0.1433 -0.6643
 1507SOL    HW111382   6.990   0.392  11.638  0.2180  0.0148 -1.0923
 1507SOL    HW211383   6.916   0.372  11.507 -0.3162 -1.2105 -0.6141
 1508SOL     OW11384   9.838   5.489   4.629 -0.1609 -0.5281  0.1511
 1508SOL    HW111385   9.856   5.556   4.563  1.1635 -1.6544 -0.6722
 1508SOL    HW211386   9.856   5.533   4.713 -0.6996  0.5544 -0.2799
 1509SOL     OW11387  11.674   9.642   8.539  0.3782 -0.3009  0.1176
 1509SOL    HW111388  11.680   9.588   8.460 -0.4651  0.5270 -0.5405
 1509SOL    HW211389  11.724   9.721   8.518  1.2043 -0.5962  0.8970
 1510SOL     OW11390  12.074   1.896   9.123 -0.5210 -0.3301 -0.0749
 1510SOL    HW111391  12.071   1.826   9.189 -0.5666  1.2032  1.6360
 1510SOL    HW211392  11.983   1.925   9.116 -0.8631 -1.7238 -2.3083
 1511SOL     OW11393   0.831   2.460   1.205 -0.1737 -0.3492  0.1802
 1511SOL    HW111394   0.907   2.453   1.262  0.2526 -1.5483 -0.4897
 1511SOL    HW211395   0.865   2.442   1.117 -0.9522  0.6438 -0.3461
 1512SOL     OW11396   1.148   2.009   0.981  0.0606 -0.4246  0.2504
 1512SOL    HW111397   1.162   1.915   0.992  1.3326 -0.2025  0.6766
 1512SOL    HW211398   1.236   2.048   0.987 -0.4296  0.7787 -0.0249
 1513SOL     OW11399   0.321   0.103  12.322 -0.2979 -0.0086  0.0111
 1513SOL    HW111400   0.351   0.020  12.361  1.1638  0.3028 -0.3684
 1513SOL    HW211401   0.335   0.168  12.391  1.0086  0.3155 -0.5139
 1514SOL     OW11402   9.005  11.465  10.493  0.2056  0.4303 -0.0910
 1514SOL    HW111403   9.002  11.373  10.464  0.0952  0.5139 -0.3421
 1514SOL    HW211404   8.931  11.507  10.450  1.2320  1.0249 -1.3344
 1515SOL     OW11405  11.444   0.731   2.304  0.3046 -0.7072  0.6559
 1515SOL    HW111406  11.418   0.780   2.226  0.6950 -0.8855  0.4032
 1515SOL    HW211407  11.498   0.792   2.354 -2.3869  0.4706  2.3544
 1516SOL     OW11408   4.990   4.753   0.378 -0.1355 -0.4207 -0.0257
 1516SOL    HW111409   5.015   4.815   0.446  2.2863 -0.6364 -0.6159
 1516SOL    HW211410   4.995   4.804   0.297 -0.9184 -0.6823 -0.2395
 1517SOL     OW11411   0.213   3.714  11.187  0.0461 -0.5842 -0.3292
 1517SOL    HW111412   0.204   3.618  11.185 -2.0931 -0.4583  0.6979
 1517SOL    HW211413   0.196   3.738  11.278  0.8716  0.7763 -0.5080
 1518SOL     OW11414   9.807  11.915   1.346 -1.0614 -0.6202  0.5428
 1518SOL    HW111415   9.832  12.006   1.364  0.3867 -1.0231  0.6491
 1518SOL    HW211416   9.721  11.922   1.304 -0.1838  0.9121 -1.1386
 1519SOL     OW11417   2.503  12.355   3.383  0.0936 -0.2980 -0.2487
 1519SOL    HW111418   2.483  12.445   3.359 -1.1048 -0.7389 -1.0247
 1519SOL    HW211419   2.474  12.348   3.474 -0.0052  0.0527 -0.2523
 1520SOL     OW11420   9.628   1.138   9.458  0.2391  0.2116 -0.1012
 1520SOL    HW111421   9.623   1.069   9.393  1.4889  1.5541 -1.6930
 1520SOL    HW211422   9.538   1.150   9.488  0.1322 -2.8325  1.0874
 1521SOL     OW11423   0.360  11.763   8.939 -0.3038  0.1354 -0.4194
 1521SOL    HW111424   0.331  11.834   8.881  0.8336  0.9257 -0.0650
 1521SOL    HW211425   0.437  11.726   8.895 -1.4982 -1.6219 -1.1260
 1522SOL     OW11426   5.959   2.882   9.721 -0.2614  0.3789  0.0177
 1522SOL    HW111427   6.024   2.951   9.710  0.4272 -0.2633 -0.0078
 1522SOL    HW211428   5.898   2.894   9.648 -0.6161  1.4491  0.4683
 1523SOL     OW11429  12.194   4.112  11.057  0.5016 -0.9828 -0.2360
 1523SOL    HW111430  12.268   4.156  11.099 -0.1745 -0.0310 -0.0151
 1523SOL    HW211431  12.147   4.182  11.011 -1.2119 -1.2534  0.9983
 1524SOL     OW11432   6.359  12.187   4.697  0.0410 -0.1633 -0.1817
 1524SOL    HW111433   6.443  12.230   4.678 -0.5704  1.1195 -0.1121
 1524SOL    HW211434   6.373  12.144   4.781  0.6291  0.0610 -0.1562
 1525SOL     OW11435  11.371   1.611   1.341  0.4434 -0.1066 -0.0780
 1525SOL    HW111436  11.368   1.696   1.297  1.2898 -0.4477 -0.8047
 1525SOL    HW211437  11.342   1.549   1.274 -1.9943 -0.2255  0.9672
 1526SOL     OW11438   9.536   0.071   7.157 -0.3043 -0.2947  0.2181
 1526SOL    HW111439   9.527   0.167   7.154  0.1970 -0.2369  0.4897
 1526SOL    HW211440   9.472   0.043   7.222 -1.0991 -0.2356 -0.5154
 1527SOL     OW11441  10.292   3.551  12.318 -0.3544 -0.5480  0.1721
 1527SOL    HW111442  10.263   3.590  12.400  0.6725 -0.4183  0.4834
 1527SOL    HW211443  10.387   3.546  12.326 -0.1692  0.1305 -1.2982
 1528SOL     OW11444   4.271  12.377   7.681  0.2904 -1.3633  0.9923
 1528SOL    HW111445   4.276  12.293   7.727  0.7597  0.2486  4.2078
 1528SOL    HW211446   4.225  12.435   7.742 -0.5157  0.6211 -1.3302
 1529SOL     OW11447   1.233   9.374   6.136 -0.3374 -0.4586  0.7318
 1529SOL    HW111448   1.208   9.284   6.116  0.1758 -0.4867  0.2057
 1529SOL    HW211449   1.307   9.366   6.196 -1.0793 -0.3769  1.6754
 1530SOL     OW11450   2.298  11.069   0.830 -0.1360 -0.3170 -0.6719
 1530SOL    HW111451   2.260  11.020   0.902  0.9618 -1.5136 -0.8645
 1530SOL    HW211452   2.230  11.131   0.804 -1.3666 -1.3649 -0.0633
 1531SOL     OW11453   7.325   5.533  11.435 -0.1013  0.1952  0.3356
 1531SOL    HW111454   7.390   5.473  11.398  0.4351  0.6852  0.4786
 1531SOL    HW211455   7.373   5.614  11.451 -0.9032  0.8021 -0.2188
 1532SOL     OW11456   8.532   3.797   2.201 -0.0965  0.0727 -0.4739
 1532SOL    HW111457   8.490   3.840   2.275 -0.4076 -0.8486 -0.0995
 1532SOL    HW211458   8.624   3.788   2.226 -0.5335 -1.8866  0.6256
 1533SOL     OW11459   0.360  10.956   6.921  0.3058  0.1627  0.1683
 1533SOL    HW111460   0.440  10.923   6.961 -0.2071 -0.2760  0.8499
 1533SOL    HW211461   0.304  10.879   6.912  0.8707 -0.0452 -2.6148
 1534SOL     OW11462   9.715   0.883   1.417  0.1561  0.3886  0.0026
 1534SOL    HW111463   9.796   0.897   1.369  1.0032  0.1030  1.3131
 1534SOL    HW211464   9.720   0.793   1.448 -1.1127  0.0542 -0.6905
 1535SOL     OW11465   0.813   8.987   2.652 -0.6500 -0.2851  0.0085
 1535SOL    HW111466   0.820   9.083   2.646  0.6488 -0.3672  0.0081
 1535SOL    HW211467   0.725   8.972   2.686 -1.6105  0.8450 -1.8134
 1536SOL     OW11468   3.433   9.811   9.617 -0.1556 -0.0169  0.0772
 1536SOL    HW111469   3.503   9.746   9.620 -0.3234 -0.1773  1.1193
 1536SOL    HW211470   3.429   9.839   9.526  0.2842 -1.0741 -0.2786
 1537SOL     OW11471  10.330  11.149   4.144 -0.4675  0.0175 -0.2947
 1537SOL    HW111472  10.337  11.062   4.183  0.0529 -0.0646 -0.5691
 1537SOL    HW211473  10.415  11.164   4.103  0.0062  1.2684  1.0428
 1538SOL     OW11474   2.374   6.979   0.709  0.0204  0.1979  0.2982
 1538SOL    HW111475   2.304   6.936   0.757  0.7023  0.0738  1.1985
 1538SOL    HW211476   2.360   6.954   0.618 -0.9407 -0.0408  0.5087
 1539SOL     OW11477   6.077   8.680  10.036 -0.0334 -0.5411  0.4920
 1539SOL    HW111478   6.057   8.666   9.944  1.8153 -0.4373  0.0351
 1539SOL    HW211479   6.097   8.593  10.071 -0.0562 -0.4989  0.6129
 1540SOL     OW11480  12.183   7.941   2.910  0.2435 -0.5357 -0.5150
 1540SOL    HW111481  12.197   7.846   2.909 -1.6689 -0.8729  0.6181
 1540SOL    HW211482  12.105   7.954   2.855 -0.9407  0.0640  1.2254
 1541SOL     OW11483   7.209  11.965   4.037  0.3895  0.1677 -0.4993
 1541SOL    HW111484   7.232  12.019   4.112  2.2714 -1.6370  0.3035
 1541SOL    HW211485   7.125  12.000   4.007 -0.7262  0.5854  2.7905
 1542SOL     OW11486  10.843   5.686   8.194  0.1999 -0.7582  0.4045
 1542SOL    HW111487  10.902   5.613   8.173  0.1549 -0.8754  0.6860
 1542SOL    HW211488  10.902   5.756   8.223  0.2068 -0.8440  0.5958
 1543SOL     OW11489   1.532  11.684   1.089 -0.1058 -0.2765  0.3348
 1543SOL    HW111490   1.548  11.752   1.154  1.6409 -0.4464  0.1378
 1543SOL    HW211491   1.466  11.721   1.031  0.4646  1.0722  0.5062
 1544SOL     OW11492   8.281   1.590   7.511 -0.1011  0.0402 -0.1109
 1544SOL    HW111493   8.351   1.624   7.567 -0.8764 -1.3474  1.7599
 1544SOL    HW211494   8.237   1.668   7.478 -0.3250  0.9062  2.1205
 1545SOL     OW11495   1.714   7.100   6.485  0.1225  0.1570  0.2584
 1545SOL    HW111496   1.785   7.050   6.445 -0.4745 -0.2453 -0.3166
 1545SOL    HW211497   1.750   7.189   6.495  0.7254 -0.0570  0.0407
 1546SOL     OW11498  10.359  10.644   8.750 -0.2767 -0.0007 -0.5737
 1546SOL    HW111499  10.367  10.597   8.667  0.6125 -1.4438  0.2738
 1546SOL    HW211500  10.442  10.629   8.795 -1.3528 -0.7951  1.3053
 1547SOL     OW11501   1.604  11.965   7.622 -0.5400 -0.0888 -0.3695
 1547SOL    HW111502   1.559  11.881   7.631 -0.3946 -0.1119  0.1575
 1547SOL    HW211503   1.589  12.010   7.705 -0.7871  0.4948 -0.7213
 1548SOL     OW11504   2.821   5.962  10.706  0.2658  0.4068  0.2716
 1548SOL    HW111505   2.749   6.007  10.662 -0.5195 -1.2528 -0.2100
 1548SOL    HW211506   2.840   6.017  10.782 -1.5897  0.8416  0.4761
 1549SOL     OW11507   8.156   7.287   4.553 -0.1281 -0.3842 -0.2341
 1549SOL    HW111508   8.183   7.309   4.642 -0.4603  0.6674 -0.3839
 1549SOL    HW211509   8.165   7.369   4.504 -0.0584 -0.9224 -1.1403
 1550SOL     OW11510   5.807   3.145   3.943  0.1821 -0.1681  0.3048
 1550SOL    HW111511   5.755   3.220   3.914  0.1896  0.1660  1.1384
 1550SOL    HW211512   5.894   3.181   3.959  0.7596 -0.7633 -1.2890
 1551SOL     OW11513   2.862   8.440  11.564 -0.6912 -0.4190  0.3463
 1551SOL    HW111514   2.943   8.481  11.535 -1.3588  1.0920  0.5702
 1551SOL    HW211515   2.871   8.434  11.659 -1.0455  0.2245  0.4251
 1552SOL     OW11516   4.003   6.060  10.434  0.2295  0.4004  0.5109
 1552SOL    HW111517   4.049   6.144  10.424  0.4399  0.3062  0.6883
 1552SOL    HW211518   4.042   6.021  10.512 -0.0922  0.2811  0.6123
 1553SOL     OW11519   6.569   8.635   9.145  0.3720 -0.0138  0.4500
 1553SOL    HW111520   6.624   8.710   9.123  0.9919 -0.9007 -1.1744
 1553SOL    HW211521   6.627   8.559   9.136 -0.8884 -0.9077 -0.5623
 1554SOL     OW11522   3.595   6.185   8.354  0.4726 -0.0430  0.4998
 1554SOL    HW111523   3.677   6.176   8.404 -1.0393 -0.8174  3.0280
 1554SOL    HW211524   3.582   6.100   8.314  0.9775  0.1364 -0.0569
 1555SOL     OW11525   0.206   6.903  11.194 -0.2254  0.2763 -0.4077
 1555SOL    HW111526   0.227   6.948  11.112 -0.8991 -0.2997 -0.9116
 1555SOL    HW211527   0.127   6.852  11.174  0.0833 -0.5348  0.3655
 1556SOL     OW11528   9.640  11.256   7.400 -0.6009  0.0349 -0.2162
 1556SOL    HW111529   9.549  11.285   7.407 -0.5176  0.6848 -1.5152
 1556SOL    HW211530   9.685  11.302   7.471 -1.0124  0.8847 -0.4957
 1557SOL     OW11531   6.478  10.133  10.189  0.8218 -0.6737 -0.0299
 1557SOL    HW111532   6.484  10.048  10.232  3.0678 -0.1129  0.8965
 1557SOL    HW211533   6.560  10.141  10.140 -0.9559 -0.6403 -3.3456
 1558SOL     OW11534   2.834   8.629   9.662  0.4333  0.8279 -0.6366
 1558SOL    HW111535   2.923   8.610   9.631  0.2228  0.5028 -1.0526
 1558SOL    HW211536   2.783   8.642   9.582 -0.0251  0.4026 -0.4248
 1559SOL     OW11537   4.585   6.402   9.629  0.2039 -0.2472 -0.5397
 1559SOL    HW111538   4.617   6.408   9.719  0.8322  0.1087 -0.7835
 1559SOL    HW211539   4.520   6.331   9.631 -0.0665  0.0146  0.2714
 1560SOL     OW11540  12.352   9.478   2.683  0.4552  0.3720  0.0575
 1560SOL    HW111541  12.427   9.506   2.631  0.1288  0.8763 -0.1418
 1560SOL    HW211542  12.392   9.433   2.758  1.0515  2.2344  0.9230
 1561SOL     OW11543   8.635   6.812  10.762 -0.4065  0.2161 -0.2439
 1561SOL    HW111544   8.623   6.905  10.781 -1.3461  0.4320 -1.7568
 1561SOL    HW211545   8.728   6.805  10.739 -0.1303  0.6009  0.6789
 1562SOL     OW11546   7.196  11.364   2.365  0.0664 -0.1118 -0.0732
 1562SOL    HW111547   7.195  11.276   2.327 -0.5012  0.3037 -1.0810
 1562SOL    HW211548   7.167  11.352   2.455  2.3291 -1.2589  0.5756
 1563SOL     OW11549   5.403   7.973   6.193  0.2738  0.5831 -0.7185
 1563SOL    HW111550   5.457   7.941   6.121  0.5999  2.3089 -1.2819
 1563SOL    HW211551   5.327   8.013   6.150 -1.7297 -2.0672  0.0584
 1564SOL     OW11552   8.042   7.038   7.510 -0.6582 -0.2652  0.3189
 1564SOL    HW111553   8.077   7.110   7.562 -1.3446 -0.9862  1.8159
 1564SOL    HW211554   8.119   7.002   7.466 -0.4646  2.1801 -1.5815
 1565SOL     OW11555   9.699   2.822  11.031  0.0681  0.3239 -0.4569
 1565SOL    HW111556   9.604   2.816  11.044 -0.1369  0.3641 -1.7832
 1565SOL    HW211557   9.709   2.873  10.950  1.2290  0.5056 -0.2119
 1566SOL     OW11558   7.074  10.974   7.879 -0.1633  0.5410  0.0773
 1566SOL    HW111559   7.127  11.002   7.954  0.4300 -0.6895  0.1467
 1566SOL    HW211560   6.984  10.979   7.910 -0.0086  1.3139  0.4289
 1567SOL     OW11561   6.837   1.986   2.861 -0.2018 -0.1922 -0.2960
 1567SOL    HW111562   6.792   1.999   2.777  0.6880  1.2886 -0.5733
 1567SOL    HW211563   6.773   1.940   2.915 -1.3852  0.2668 -1.2522
 1568SOL     OW11564   2.141   3.874   4.559  0.2661 -0.4044 -0.1421
 1568SOL    HW111565   2.066   3.879   4.619  0.9019  1.2332  0.5640
 1568SOL    HW211566   2.171   3.964   4.551  0.9429 -0.7624 -2.0168
 1569SOL     OW11567   0.036  11.575   0.815  0.0321 -0.1646  0.1210
 1569SOL    HW111568   0.104  11.517   0.781  0.3014  0.8052 -1.0950
 1569SOL    HW211569  -0.042  11.520   0.822 -0.3071 -0.2663 -3.0733
 1570SOL     OW11570   9.247   0.417   8.259 -0.2273 -0.0698  0.2494
 1570SOL    HW111571   9.336   0.451   8.246 -0.6489  1.6818  1.5403
 1570SOL    HW211572   9.190   0.494   8.250 -1.4673 -0.8716  0.9051
 1571SOL     OW11573   7.094   8.519  11.366 -0.2157  0.1648 -0.2394
 1571SOL    HW111574   7.013   8.555  11.331  0.1010  0.4369 -0.6988
 1571SOL    HW211575   7.107   8.438  11.318 -1.5347 -1.2047  1.5912
 1572SOL     OW11576   4.400   7.600   6.156 -0.1954  0.0079 -0.1438
 1572SOL    HW111577   4.340   7.540   6.111  0.0731 -1.7677  1.7296
 1572SOL    HW211578   4.487   7.575   6.126  0.0201 -1.4574  1.5316
 1573SOL     OW11579  12.181   9.617   6.449  0.2249  0.0180  0.0920
 1573SOL    HW111580  12.256   9.660   6.491 -0.0218 -1.1145  1.7554
 1573SOL    HW211581  12.115   9.686   6.441  1.1508  0.8369 -0.6903
 1574SOL     OW11582  10.494   7.852   2.441 -0.5220 -0.0758  0.4839
 1574SOL    HW111583  10.515   7.831   2.350 -1.4174  0.3289  0.1679
 1574SOL    HW211584  10.406   7.892   2.436 -0.7452 -0.4207  1.5675
 1575SOL     OW11585   0.588  10.232   5.283  0.0595 -0.2605 -0.4229
 1575SOL    HW111586   0.560  10.321   5.266 -0.5125 -0.4887 -0.7136
 1575SOL    HW211587   0.518  10.177   5.246  1.0068 -0.8586 -1.3995
 1576SOL     OW11588   5.913   2.037  11.897  0.4315 -0.4848 -0.2600
 1576SOL    HW111589   5.846   2.098  11.867  0.2225 -0.2106  0.7310
 1576SOL    HW211590   5.994   2.069  11.855  0.0573 -0.4534 -0.9696
 1577SOL     OW11591   9.877   7.204   5.904 -0.1202  0.4118 -0.1086
 1577SOL    HW111592   9.927   7.253   5.969  0.7453 -2.3376  1.4598
 1577SOL    HW211593   9.786   7.231   5.918 -0.0803 -0.6757  2.9030
 1578SOL     OW11594  11.525   6.473  10.751  0.4795 -0.1051 -0.3301
 1578SOL    HW111595  11.507   6.564  10.775  0.9726 -0.7083  2.7853
 1578SOL    HW211596  11.620   6.466  10.751  0.5030 -1.3032  2.9925
 1579SOL     OW11597   3.860   3.324  11.733 -0.2135  0.3487 -0.8967
 1579SOL    HW111598   3.942   3.284  11.762 -0.8511 -0.7803 -0.6199
 1579SOL    HW211599   3.888   3.395  11.675  0.9648  0.1532 -0.5996
 1580SOL     OW11600   2.528   4.995   3.932 -0.1559  0.0792  0.1846
 1580SOL    HW111601   2.528   4.900   3.921 -0.4418  0.0821  0.1448
 1580SOL    HW211602   2.592   5.027   3.869 -0.4628 -0.0460 -0.1944
 1581SOL     OW11603   2.406   3.333   4.229 -0.0775  0.1027  0.0258
 1581SOL    HW111604   2.347   3.300   4.161  1.4250  0.7296 -1.6401
 1581SOL    HW211605   2.387   3.278   4.305 -1.6895 -0.7376 -0.9283
 1582SOL     OW11606   0.230  12.296   9.527 -0.2943  0.0645 -0.4893
 1582SOL    HW111607   0.308  12.350   9.537  0.5014 -1.1337 -0.1345
 1582SOL    HW211608   0.219  12.288   9.432  0.6351 -0.6196 -0.5523
 1583SOL     OW11609   7.654   9.716   6.361 -0.0855 -0.2369 -0.2069
 1583SOL    HW111610   7.647   9.718   6.265  1.3399 -1.4254 -0.3934
 1583SOL    HW211611   7.639   9.624   6.383  0.1726 -0.0834  0.6363
 1584SOL     OW11612   4.193   2.718   8.912  0.0463  0.3706  0.3278
 1584SOL    HW111613   4.245   2.638   8.910  0.7839  0.8141  0.9616
 1584SOL    HW211614   4.103   2.689   8.896  0.3706 -0.5180  0.0669
 1585SOL     OW11615   9.700   4.372   2.799 -0.0659  0.0759  0.0584
 1585SOL    HW111616   9.689   4.344   2.890  0.4327 -1.6697 -0.3900
 1585SOL    HW211617   9.782   4.421   2.798  0.8989 -1.4637  0.2455
 1586SOL     OW11618   0.160  11.517   7.958  0.1300 -0.0358 -0.3990
 1586SOL    HW111619   0.123  11.439   7.999 -0.8154 -0.1347 -1.3906
 1586SOL    HW211620   0.245  11.487   7.923 -1.3007 -1.3968 -3.0288
 1587SOL     OW11621   9.160  10.089   7.816 -0.5484  0.0387 -0.9493
 1587SOL    HW111622   9.234  10.057   7.866  0.1527 -0.6294 -2.3377
 1587SOL    HW211623   9.197  10.157   7.759 -1.8369  2.7958  1.2771
 1588SOL     OW11624   9.380   1.838   7.383 -0.2217 -0.1398  1.0216
 1588SOL    HW111625   9.403   1.872   7.297  1.5472  0.5321  1.6886
 1588SOL    HW211626   9.418   1.901   7.444 -0.5431 -1.1299  2.2965
 1589SOL     OW11627   9.433   1.799   0.678 -0.7030 -0.7432 -0.1520
 1589SOL    HW111628   9.430   1.849   0.596  2.8945  3.5912  1.9345
 1589SOL    HW211629   9.343   1.803   0.711 -1.4012  1.0146 -1.9962
 1590SOL     OW11630  10.921   3.540   6.418 -0.0578 -0.4685 -0.0358
 1590SOL    HW111631  10.883   3.609   6.363 -2.5412 -1.6255  0.0872
 1590SOL    HW211632  10.977   3.490   6.359  0.6938  0.8130 -0.4507
 1591SOL     OW11633   8.073   8.596   4.820  0.0995 -0.6408 -0.0506
 1591SOL    HW111634   8.147   8.569   4.873  0.1701  0.6692  0.5703
 1591SOL    HW211635   8.112   8.640   4.745 -0.0054  1.1066  0.8596
 1592SOL     OW11636   5.467   5.456   5.327 -0.1247  0.5162 -0.1817
 1592SOL    HW111637   5.563   5.460   5.325 -0.1420  1.1274 -1.8740
 1592SOL    HW211638   5.447   5.396   5.399  1.5847 -1.0299 -0.9033
 1593SOL     OW11639   6.423   7.626   4.097  0.2571 -0.1086  0.2185
 1593SOL    HW111640   6.330   7.611   4.117  0.2494  0.1250  0.3539
 1593SOL    HW211641   6.469   7.557   4.144  0.1106 -0.5542 -0.2802
 1594SOL     OW11642   4.223   3.121   8.507  0.3910 -0.0579  0.2360
 1594SOL    HW111643   4.164   3.190   8.476  2.1512  0.5037 -2.1000
 1594SOL    HW211644   4.225   3.133   8.602 -0.6292  2.0527  0.0520
 1595SOL     OW11645   4.296   6.355   5.838  0.2719  0.0684  0.0888
 1595SOL    HW111646   4.272   6.337   5.929 -0.7791  1.8011  0.1892
 1595SOL    HW211647   4.315   6.448   5.836 -0.0908  0.1365 -1.5501
 1596SOL     OW11648   5.139  11.401   5.212  0.1756  0.1833 -0.8553
 1596SOL    HW111649   5.112  11.309   5.220  1.7591 -0.3296 -1.0061
 1596SOL    HW211650   5.186  11.419   5.292  0.1457  0.7757 -0.9695
 1597SOL     OW11651   1.788  11.953   8.181 -0.2075  0.5915  0.2143
 1597SOL    HW111652   1.843  12.007   8.125 -1.4845  2.1687  0.4102
 1597SOL    HW211653   1.843  11.934   8.258  0.4141  1.2457 -0.0595
 1598SOL     OW11654   6.792   5.934   0.028  0.0694 -0.4196 -0.3567
 1598SOL    HW111655   6.853   5.949   0.100 -0.0204  0.3645 -0.4303
 1598SOL    HW211656   6.847   5.932  -0.050  0.0430 -0.0153 -0.3904
 1599SOL     OW11657   3.922   0.659   9.398  0.9983  0.3641 -0.2902
 1599SOL    HW111658   3.834   0.621   9.405  1.7866 -1.3339  1.0179
 1599SOL    HW211659   3.958   0.623   9.317  0.6508  0.7361 -0.6146
 1600SOL     OW11660  10.980   3.633   6.660 -0.2034 -0.0633 -0.1948
 1600SOL    HW111661  10.976   3.562   6.724  0.0045  0.6477  0.6136
 1600SOL    HW211662  10.941   3.595   6.581 -2.6499 -0.2224  1.0027
 1601SOL     OW11663   2.722   1.848   1.900  0.4136 -0.0111 -0.3975
 1601SOL    HW111664   2.731   1.761   1.940  1.1245 -0.0064 -0.5476
 1601SOL    HW211665   2.808   1.868   1.865 -0.0391  0.2652 -1.3903
 1602SOL     OW11666   0.872   3.557  10.215 -0.1153  0.1295  0.1706
 1602SOL    HW111667   0.813   3.497  10.260 -1.0801  0.2177 -0.9579
 1602SOL    HW211668   0.852   3.547  10.122  1.3184  0.5108 -0.2104
 1603SOL     OW11669   3.758   5.994   8.181  0.5548  0.6306  0.0956
 1603SOL    HW111670   3.757   5.907   8.222 -0.4228  0.3411 -0.4981
 1603SOL    HW211671   3.707   5.982   8.100  1.4793  1.4577 -0.6203
 1604SOL     OW11672  10.553   6.883  10.297 -0.5975 -0.1894  0.2945
 1604SOL    HW111673  10.619   6.865  10.230 -0.0118  0.1842  0.7621
 1604SOL    HW211674  10.503   6.957  10.261  0.2031  0.5148  0.5927
 1605SOL     OW11675   3.209   3.069   7.164  0.5016  0.2394  0.6147
 1605SOL    HW111676   3.266   2.992   7.163  0.3526  0.1353 -0.3589
 1605SOL    HW211677   3.269   3.143   7.169  0.7282  0.1252 -0.2917
 1606SOL     OW11678   1.431   0.818   9.738  0.0367 -0.1791  0.2211
 1606SOL    HW111679   1.432   0.801   9.832  0.3208  0.9479  0.4309
 1606SOL    HW211680   1.446   0.733   9.698  1.6244 -0.3954  1.2308
 1607SOL     OW11681  10.245   5.532  10.059 -0.6308  0.2934  0.0904
 1607SOL    HW111682  10.247   5.510  10.152 -0.3414 -0.0426  0.0059
 1607SOL    HW211683  10.151   5.537  10.038 -0.8125 -2.8663 -0.3478
 1608SOL     OW11684  10.280   5.774  10.375  0.3687  0.3780 -0.3214
 1608SOL    HW111685  10.361   5.793  10.423  0.8096 -0.3957 -0.7313
 1608SOL    HW211686  10.254   5.687  10.406  0.2040  0.2293 -0.8734
 1609SOL     OW11687   3.196   2.123   1.143 -0.5426  0.1202 -0.3556
 1609SOL    HW111688   3.201   2.028   1.133 -1.7056 -0.0839  0.7933
 1609SOL    HW211689   3.205   2.156   1.053 -0.6226 -1.0831 -0.8319
 1610SOL     OW11690   5.815   5.793   2.984  0.3365  0.2070 -0.3622
 1610SOL    HW111691   5.738   5.845   2.961  0.9278  1.2474 -0.0548
 1610SOL    HW211692   5.813   5.787   3.079  0.2305 -0.4206 -0.3989
 1611SOL     OW11693  11.175   5.709   5.250  0.1472 -0.3788  0.2903
 1611SOL    HW111694  11.238   5.669   5.190 -0.0343 -1.9676  1.1029
 1611SOL    HW211695  11.226   5.771   5.300  1.0490 -1.4850  0.7862
 1612SOL     OW11696   6.010   4.079   1.924  0.3839  0.2867 -0.0780
 1612SOL    HW111697   6.099   4.067   1.957  0.3437  0.6291  0.1667
 1612SOL    HW211698   6.005   4.025   1.845 -0.1819 -2.3735  1.6411
 1613SOL     OW11699  11.005  10.794   4.802  0.1828 -0.3789  0.4544
 1613SOL    HW111700  10.939  10.763   4.740 -0.9678  1.9330  0.4385
 1613SOL    HW211701  11.089  10.774   4.759 -0.5707  0.5640 -1.5816
 1614SOL     OW11702   3.157   2.857   2.871 -0.0479 -0.1231 -0.2880
 1614SOL    HW111703   3.241   2.900   2.851  0.4286  0.3813  2.3300
 1614SOL    HW211704   3.121   2.832   2.786  1.9224  1.2408 -1.6055
 1615SOL     OW11705   2.773  10.234   7.057 -0.0459 -0.1205  0.4163
 1615SOL    HW111706   2.761  10.162   6.995 -0.2928  1.4038 -1.3979
 1615SOL    HW211707   2.799  10.309   7.003 -0.7675  1.4229  2.0918
 1616SOL     OW11708   7.515   8.999   7.941 -0.1068 -0.3225 -0.5846
 1616SOL    HW111709   7.427   8.973   7.915 -0.1865 -0.3198 -0.3221
 1616SOL    HW211710   7.504   9.035   8.030  0.1021 -0.0006 -0.6863
 1617SOL     OW11711  12.310   3.159   0.630  0.2435  0.4661 -0.3320
 1617SOL    HW111712  12.243   3.195   0.689  0.4492 -0.7932  0.7212
 1617SOL    HW211713  12.341   3.235   0.580 -2.2721  1.0384 -1.1928
 1618SOL     OW11714  11.440  12.233   1.969 -0.1891  0.9822  0.2596
 1618SOL    HW111715  11.413  12.166   2.031 -0.1380  0.7047 -0.0167
 1618SOL    HW211716  11.515  12.276   2.011  1.1274 -0.5198 -0.4578
 1619SOL     OW11717   7.649   8.261   9.679  0.2206  0.4213 -0.5694
 1619SOL    HW111718   7.724   8.202   9.682  2.0698  2.6561  1.5025
 1619SOL    HW211719   7.586   8.222   9.739 -0.4961 -1.6132 -2.5149
 1620SOL     OW11720  12.129   4.606   0.788  0.1629 -0.3190 -0.0181
 1620SOL    HW111721  12.071   4.682   0.782 -1.3902 -1.4543  0.1318
 1620SOL    HW211722  12.077   4.533   0.753  1.2113 -1.5247  0.8545
 1621SOL     OW11723   9.849   3.465   7.979 -0.1974 -0.0008  0.0951
 1621SOL    HW111724   9.861   3.379   8.020  2.0182  0.0459 -0.3436
 1621SOL    HW211725   9.810   3.446   7.894 -0.0478 -0.5289  0.1415
 1622SOL     OW11726   6.942  10.510  11.503  0.3459 -0.2583 -0.5948
 1622SOL    HW111727   7.002  10.445  11.467 -1.1073 -2.3480  0.5308
 1622SOL    HW211728   6.970  10.522  11.594  0.4469  0.5360 -0.7218
 1623SOL     OW11729  10.996  11.031   8.744  0.2466 -0.1470  0.9523
 1623SOL    HW111730  11.034  11.047   8.831  1.5045  0.6604  0.2849
 1623SOL    HW211731  11.071  11.035   8.685 -0.6149 -0.5763 -0.1968
 1624SOL     OW11732  12.381  10.892   8.837 -0.2940 -0.9627  0.5848
 1624SOL    HW111733  12.314  10.862   8.777  0.3355  0.1983 -0.7479
 1624SOL    HW211734  12.455  10.832   8.822 -1.0180 -2.3298  2.1527
 1625SOL     OW11735   9.267   5.426   4.904  0.1526  0.5722  0.3141
 1625SOL    HW111736   9.301   5.427   4.814 -0.2375  1.0069  0.1716
 1625SOL    HW211737   9.275   5.334   4.931  0.2273  0.4300 -0.1800
 1626SOL     OW11738   0.435   2.770   6.039 -0.2768 -0.2149 -0.3639
 1626SOL    HW111739   0.513   2.722   6.065  0.5895  1.1599 -0.3016
 1626SOL    HW211740   0.421   2.745   5.947  1.6338  1.2282 -1.1188
 1627SOL     OW11741   1.154   5.648   0.445 -0.0465 -0.3591  0.1776
 1627SOL    HW111742   1.202   5.694   0.514  0.1382  0.1870 -0.3137
 1627SOL    HW211743   1.071   5.695   0.438  0.5563  0.5746 -1.0454
 1628SOL     OW11744  11.377   3.933   3.498  0.1365 -0.5710  0.7440
 1628SOL    HW111745  11.472   3.918   3.496  0.2804 -0.0322  2.4777
 1628SOL    HW211746  11.357   3.947   3.590 -1.6368 -0.6192  0.3854
 1629SOL     OW11747  10.209   9.364   1.073  0.1719  0.1561  0.1880
 1629SOL    HW111748  10.145   9.390   1.140  0.0501 -0.7317  0.4271
 1629SOL    HW211749  10.182   9.276   1.048  0.0541  0.5700 -1.2337
 1630SOL     OW11750  10.249  10.094  11.886  0.0781 -0.4489 -0.7016
 1630SOL    HW111751  10.329  10.045  11.870  0.8538  1.0891 -1.8138
 1630SOL    HW211752  10.182  10.051  11.833  0.1895 -1.6174  0.0781
 1631SOL     OW11753   2.447   0.856  10.417 -0.5171  0.5791 -0.1580
 1631SOL    HW111754   2.427   0.941  10.379  0.8502 -0.1309 -2.6440
 1631SOL    HW211755   2.454   0.873  10.511 -0.9500  3.0489 -0.5036
 1632SOL     OW11756   3.092   4.344   9.561 -0.3378  0.4484  0.2140
 1632SOL    HW111757   3.173   4.384   9.529 -0.2709 -0.3788 -0.7087
 1632SOL    HW211758   3.022   4.389   9.514 -0.2817 -0.2821 -0.5796
 1633SOL     OW11759   9.420   3.735   0.652 -0.0642  0.3911  0.1882
 1633SOL    HW111760   9.356   3.793   0.694 -1.8256 -1.3614  0.0926
 1633SOL    HW211761   9.501   3.750   0.700 -0.7864  1.9729  0.9981
 1634SOL     OW11762  12.067  11.385   6.286  0.1202 -0.0364 -0.1433
 1634SOL    HW111763  12.058  11.388   6.190  0.7994  0.8293 -0.1878
 1634SOL    HW211764  12.019  11.306   6.311  1.0749 -1.0554 -1.3469
 1635SOL     OW11765   0.859  12.145  12.003 -0.2141 -0.2042 -0.2388
 1635SOL    HW111766   0.900  12.080  12.060  0.6882  0.2193 -0.3756
 1635SOL    HW211767   0.863  12.227  12.053  0.2682  0.0992 -0.7519
 1636SOL     OW11768  10.281   1.391   2.610  0.0045  0.3869  0.3811
 1636SOL    HW111769  10.271   1.477   2.570  1.1664 -0.2770 -1.4338
 1636SOL    HW211770  10.263   1.329   2.539  1.3807 -0.8388  1.0454
 1637SOL     OW11771   6.747   3.674  12.405 -0.4591 -0.0872  0.4798
 1637SOL    HW111772   6.833   3.708  12.377  0.0426 -0.6952  1.2477
 1637SOL    HW211773   6.700   3.751  12.437 -0.9983  0.6179 -1.8122
 1638SOL     OW11774   2.027   3.306   1.118 -0.2216 -0.2621  0.0423
 1638SOL    HW111775   1.975   3.377   1.082  0.6365  0.1534 -0.3909
 1638SOL    HW211776   2.056   3.337   1.204  0.3944  0.0428 -0.2676
 1639SOL     OW11777   0.457   0.351   2.064 -0.4444  1.0623 -0.1861
 1639SOL    HW111778   0.406   0.289   2.115  2.7272 -2.7986 -1.1607
 1639SOL    HW211779   0.400   0.376   1.991 -1.8257 -0.8937  0.1597
 1640SOL     OW11780   3.856  11.502   2.003  0.2646  0.1809 -0.7799
 1640SOL    HW111781   3.862  11.578   1.946  0.5282 -0.1229 -1.1647
 1640SOL    HW211782   3.878  11.535   2.091 -0.6874  0.7658 -0.7462
 1641SOL     OW11783   6.970   9.220   3.631  0.8577  0.0813  0.4361
 1641SOL    HW111784   6.992   9.311   3.611  2.3740 -0.1329  0.9331
 1641SOL    HW211785   6.983   9.173   3.549 -1.1590  0.4784 -0.1496
 1642SOL     OW11786   4.795   0.775  10.956  0.2761 -0.0582  0.1287
 1642SOL    HW111787   4.872   0.722  10.935  0.8438  0.3288  1.1791
 1642SOL    HW211788   4.805   0.854  10.904  1.1772  0.4728  1.0741
 1643SOL     OW11789   2.056   7.575  11.366 -0.1154 -0.4686 -0.0261
 1643SOL    HW111790   1.997   7.516  11.319  0.1190 -0.3145 -0.5225
 1643SOL    HW211791   2.132   7.521  11.389  0.8724  0.0098 -1.9669
 1644SOL     OW11792   8.056   1.889  11.183  0.6248  0.4917  0.5597
 1644SOL    HW111793   7.988   1.950  11.153 -0.4762 -0.5505  0.8362
 1644SOL    HW211794   8.010   1.805  11.191  2.4825 -0.8393 -1.6218
 1645SOL     OW11795   4.017   9.668   5.758 -0.3306  0.6533 -0.3243
 1645SOL    HW111796   3.973   9.584   5.744 -1.6648  1.2244  0.2845
 1645SOL    HW211797   4.003   9.716   5.676 -0.9840  0.8779 -0.0914
 1646SOL     OW11798  11.956  10.883   3.358  0.1724  0.1160  0.5822
 1646SOL    HW111799  11.954  10.887   3.453 -0.7428  0.3851  0.5608
 1646SOL    HW211800  12.017  10.812   3.338 -1.9956 -2.1659  1.4515
 1647SOL     OW11801   1.629   2.066   2.354 -0.0379 -0.0299 -0.5136
 1647SOL    HW111802   1.602   2.149   2.394  1.1621  1.5840 -2.8217
 1647SOL    HW211803   1.724   2.072   2.348  0.0384 -1.4162 -1.1076
 1648SOL     OW11804   4.847   1.777  10.103 -0.0468  0.1763  0.2285
 1648SOL    HW111805   4.774   1.838  10.104  0.7771  1.2089  1.5654
 1648SOL    HW211806   4.828   1.717  10.031 -1.6165  1.1126 -0.1761
 1649SOL     OW11807   3.178   4.591   3.531  0.2767  0.4849  0.1394
 1649SOL    HW111808   3.201   4.501   3.555 -0.7184 -0.4800 -2.2134
 1649SOL    HW211809   3.194   4.642   3.610  1.4210 -1.6570  1.3728
 1650SOL     OW11810  11.842   4.411  11.733  0.3300  0.1309 -0.4810
 1650SOL    HW111811  11.838   4.335  11.675  3.7894 -0.0387 -0.7250
 1650SOL    HW211812  11.905   4.386  11.801  0.6497  2.3269  0.1166
 1651SOL     OW11813   7.280   8.412  10.114 -0.1020 -0.7709 -0.3532
 1651SOL    HW111814   7.280   8.448  10.203 -2.5886 -1.0226 -0.1847
 1651SOL    HW211815   7.354   8.351  10.114 -0.0505 -0.7877  1.5608
 1652SOL     OW11816   0.849  10.794   4.262 -0.0276  0.9465  0.2910
 1652SOL    HW111817   0.839  10.743   4.342  0.4049 -2.0023 -1.3800
 1652SOL    HW211818   0.762  10.797   4.224  0.0130  1.1898  0.2120
 1653SOL     OW11819  10.708   5.135   4.472  0.0131 -0.0526  0.1072
 1653SOL    HW111820  10.618   5.104   4.466  0.0446 -0.1215 -0.0301
 1653SOL    HW211821  10.712   5.209   4.411  0.3693 -0.8218 -0.8234
 1654SOL     OW11822   5.505   1.416   1.177 -0.7910 -0.0066 -0.7485
 1654SOL    HW111823   5.459   1.499   1.194  1.1287  1.2082 -1.1585
 1654SOL    HW211824   5.492   1.401   1.084 -0.6940  0.1289 -0.7848
 1655SOL     OW11825   3.989   5.884   6.724 -0.1905 -0.4780 -0.2846
 1655SOL    HW111826   3.904   5.859   6.687 -0.6342 -1.0574  1.0852
 1655SOL    HW211827   3.968   5.938   6.800  0.7373  1.9909 -1.6534
 1656SOL     OW11828   2.260  12.338   0.967  0.1706 -0.5746  0.4940
 1656SOL    HW111829   2.244  12.244   0.956 -0.4777 -0.2397 -2.0448
 1656SOL    HW211830   2.333  12.357   0.908 -0.1545  0.6170  0.4522
 1657SOL     OW11831   6.920   2.787   5.622 -0.0499  0.5002 -0.0186
 1657SOL    HW111832   6.990   2.726   5.643  0.8360  1.4151 -0.2031
 1657SOL    HW211833   6.867   2.792   5.701 -0.4903 -0.9433 -0.2002
 1658SOL     OW11834  11.705   6.998   1.415  0.0812 -0.3617 -0.0490
 1658SOL    HW111835  11.685   7.051   1.492  2.0252 -0.7419  0.7711
 1658SOL    HW211836  11.657   7.041   1.344 -0.6316  0.8301  1.1012
 1659SOL     OW11837  10.119   2.246   4.321 -0.0747 -0.8060  0.3833
 1659SOL    HW111838  10.198   2.214   4.277 -0.2762  0.2330 -0.8152
 1659SOL    HW211839  10.052   2.243   4.253 -0.1692  1.7981  0.2807
 1660SOL     OW11840   7.262  10.090   5.919 -0.3658  0.0051  0.2792
 1660SOL    HW111841   7.315  10.137   5.983 -0.8225  0.4264  0.3591
 1660SOL    HW211842   7.178  10.075   5.963  0.4371 -2.7460  1.0114
 1661SOL     OW11843  11.973   0.530   3.094 -0.1831 -0.7047 -0.5156
 1661SOL    HW111844  12.027   0.588   3.147 -0.8081 -1.3985  0.9461
 1661SOL    HW211845  12.028   0.507   3.019  0.3513  1.1290 -0.7322
 1662SOL     OW11846   5.629   5.171   4.868  0.0953  0.4237  0.5410
 1662SOL    HW111847   5.655   5.134   4.952 -0.7669 -1.0575  0.1851
 1662SOL    HW211848   5.557   5.229   4.889 -0.6028 -0.5012  0.7592
 1663SOL     OW11849   7.724   5.888  11.976 -0.5456 -0.0762  0.0192
 1663SOL    HW111850   7.661   5.946  11.933 -0.7936 -1.3932 -1.4916
 1663SOL    HW211851   7.810   5.925  11.955 -0.7296  0.5491  0.3290
 1664SOL     OW11852   5.879   8.557   5.404  0.4563  0.0185 -0.3764
 1664SOL    HW111853   5.784   8.545   5.403  0.5014 -0.8253  1.6821
 1664SOL    HW211854   5.914   8.472   5.380  0.6616 -1.0083  3.0570
 1665SOL     OW11855   6.666   2.673   9.498  0.0837  0.1464 -0.0842
 1665SOL    HW111856   6.609   2.639   9.429 -0.3830 -0.6519  0.6634
 1665SOL    HW211857   6.693   2.595   9.546 -2.1904  0.8426  2.6110
 1666SOL     OW11858  11.025   1.174   3.493 -0.1113 -0.4019  0.0343
 1666SOL    HW111859  11.025   1.086   3.456  1.9714 -0.4938  0.1193
 1666SOL    HW211860  11.055   1.162   3.583  0.0331  0.3824  0.0992
 1667SOL     OW11861  12.228   3.807  10.443 -0.9572  0.2535 -0.6558
 1667SOL    HW111862  12.197   3.810  10.353 -1.1644 -1.8527 -0.6912
 1667SOL    HW211863  12.149   3.815  10.497 -0.7504  2.4430 -0.5972
 1668SOL     OW11864  11.329   5.069   1.473  0.0943 -0.1611  0.2572
 1668SOL    HW111865  11.235   5.050   1.472  0.0802 -0.1039 -1.4398
 1668SOL    HW211866  11.370   4.985   1.494 -0.2740 -0.6116 -0.7555
 1669SOL     OW11867   5.334   4.576   5.059  0.4731  0.0368  0.3672
 1669SOL    HW111868   5.387   4.627   5.120  0.3149  0.0429  0.5024
 1669SOL    HW211869   5.395   4.512   5.022  0.3927 -0.5311  1.1728
 1670SOL     OW11870   8.086  12.198   7.335 -0.5315  0.3806  0.5422
 1670SOL    HW111871   8.017  12.147   7.294 -0.1112  1.9297 -2.2917
 1670SOL    HW211872   8.151  12.133   7.362 -0.9169 -0.7596 -1.1339
 1671SOL     OW11873   8.830  11.678  10.892  0.0784  0.0279  0.2404
 1671SOL    HW111874   8.867  11.598  10.930  1.1494 -0.2679 -1.3419
 1671SOL    HW211875   8.886  11.749  10.923 -1.2033  0.2935  2.1075
 1672SOL     OW11876  11.667   0.961   8.183  0.3998  0.2087 -0.0497
 1672SOL    HW111877  11.572   0.968   8.177  0.4103 -0.7538 -2.7079
 1672SOL    HW211878  11.699   0.994   8.099  2.2600 -1.3846 -0.0399
 1673SOL     OW11879   5.079   7.227   2.721  0.2622 -0.2141 -0.7158
 1673SOL    HW111880   5.130   7.153   2.755  1.0204  1.2827  1.6136
 1673SOL    HW211881   4.989   7.210   2.750  0.5484  0.0434  0.3713
 1674SOL     OW11882   2.669  10.244   9.131  1.0312  0.7647 -0.1588
 1674SOL    HW111883   2.763  10.240   9.146  1.1539 -1.3207 -1.1546
 1674SOL    HW211884   2.644  10.154   9.108 -1.4460  0.9440  1.3797
 1675SOL     OW11885  10.367   6.882   9.656 -0.2699 -0.1916  0.3685
 1675SOL    HW111886  10.462   6.885   9.668 -0.5853  0.3968  3.4465
 1675SOL    HW211887  10.333   6.948   9.716 -2.6782 -0.7974 -0.2371
 1676SOL     OW11888   4.304   7.305   1.176  0.1536 -0.0414 -0.4187
 1676SOL    HW111889   4.389   7.273   1.145  0.0957  0.2651 -0.9109
 1676SOL    HW211890   4.299   7.396   1.144 -1.3631 -0.7682 -2.5081
 1677SOL     OW11891   5.947   4.412  11.028  0.8387  0.0878  0.8070
 1677SOL    HW111892   5.907   4.417  10.941  0.1266 -1.2000  1.0440
 1677SOL    HW211893   5.919   4.492  11.072 -0.5879 -0.2689  0.5873
 1678SOL     OW11894   3.093  11.057   8.792 -0.3922 -0.4676 -0.5526
 1678SOL    HW111895   3.068  10.965   8.782  2.3141 -1.3023 -0.3720
 1678SOL    HW211896   3.034  11.104   8.733 -1.6718 -2.3218 -0.8434
 1679SOL     OW11897   9.447  10.378  10.232  0.4232  0.1230 -0.0760
 1679SOL    HW111898   9.520  10.376  10.294 -0.3376  1.0849  0.8894
 1679SOL    HW211899   9.383  10.317  10.268  1.2234 -1.6767 -1.5845
 1680SOL     OW11900   8.020  12.158   0.825 -0.8152  0.1855  0.4543
 1680SOL    HW111901   8.095  12.194   0.778 -0.6256 -0.1704  0.4836
 1680SOL    HW211902   7.945  12.177   0.769 -1.0575  2.5774  1.4462
 1681SOL     OW11903   6.318   2.080  12.337 -0.1605  0.4128 -0.6745
 1681SOL    HW111904   6.283   2.101  12.251 -1.2367 -0.8586 -0.5773
 1681SOL    HW211905   6.300   2.157  12.390 -0.8892  0.6043 -1.1881
 1682SOL     OW11906  11.442   7.921   7.901 -0.6923 -0.7745  0.0417
 1682SOL    HW111907  11.373   7.950   7.961 -0.3440  0.2201 -0.0262
 1682SOL    HW211908  11.508   7.881   7.958  0.5023  1.7826  0.6110
 1683SOL     OW11909   4.715   3.758   8.480  0.3814 -0.7319 -0.2476
 1683SOL    HW111910   4.747   3.779   8.568  1.2056 -0.4629 -0.6063
 1683SOL    HW211911   4.700   3.663   8.482  0.3625 -0.7237  0.1862
 1684SOL     OW11912   5.718   7.890   9.943  0.9157 -0.0724 -0.0918
 1684SOL    HW111913   5.713   7.910  10.037  1.7518 -3.0465  0.6707
 1684SOL    HW211914   5.694   7.798   9.937  0.5698  0.1260 -2.8931
 1685SOL     OW11915   9.805   8.922   7.273 -0.8155  0.0851  0.5350
 1685SOL    HW111916   9.730   8.941   7.329 -0.5073 -1.8849  1.7181
 1685SOL    HW211917   9.870   8.884   7.332  0.3389 -0.1076 -0.8106
 1686SOL     OW11918   2.591   1.291   2.363  0.8912  0.1201 -0.0309
 1686SOL    HW111919   2.685   1.299   2.378  0.8669  2.2660 -0.7518
 1686SOL    HW211920   2.552   1.303   2.450  1.2613 -2.8648  0.6836
 1687SOL     OW11921   9.299   5.614  11.592  0.3841  0.6081 -0.1596
 1687SOL    HW111922   9.315   5.533  11.544  0.4288  1.4147 -1.5499
 1687SOL    HW211923   9.319   5.592  11.683 -0.7806 -1.2809 -0.2955
 1688SOL     OW11924  11.258   2.422   8.875  0.1285 -0.3236  0.7717
 1688SOL    HW111925  11.272   2.414   8.780  2.1715 -1.0221  1.0903
 1688SOL    HW211926  11.337   2.465   8.907 -0.4451 -0.2919  2.1896
 1689SOL     OW11927   8.834   4.823   9.305  0.7126 -0.4212  0.2376
 1689SOL    HW111928   8.877   4.898   9.265  1.0273  0.1195  1.5401
 1689SOL    HW211929   8.767   4.861   9.361  2.4860 -0.8992  2.8607
 1690SOL     OW11930   0.208   3.067  11.940 -0.1057  0.4664  0.1172
 1690SOL    HW111931   0.283   3.088  11.995 -2.0312  2.3617  2.2484
 1690SOL    HW211932   0.230   2.983  11.899  3.0973  0.9369  0.6421
 1691SOL     OW11933   9.724   5.767   2.676 -0.2572  0.0310  0.3996
 1691SOL    HW111934   9.697   5.847   2.720 -0.7188 -0.6527  1.3953
 1691SOL    HW211935   9.642   5.721   2.656 -0.0698  0.3730 -1.3092
 1692SOL     OW11936   0.281   5.284   9.796 -0.4624  0.3291  0.1427
 1692SOL    HW111937   0.366   5.250   9.823 -0.7687 -0.2518  0.3726
 1692SOL    HW211938   0.217   5.223   9.832 -1.0554  1.4526  1.0528
 1693SOL     OW11939   5.142  11.732   4.591  0.1374  0.2950  0.1708
 1693SOL    HW111940   5.080  11.660   4.605 -0.5780 -0.3168 -4.6110
 1693SOL    HW211941   5.228  11.689   4.590  0.3130  0.4588  2.3665
 1694SOL     OW11942  11.401  10.504   2.362 -0.1750  0.1396 -0.1997
 1694SOL    HW111943  11.447  10.464   2.289  0.8925 -0.1028  0.5963
 1694SOL    HW211944  11.345  10.571   2.321 -0.1602 -0.5016 -1.2959
 1695SOL     OW11945   1.060   9.554   1.329  0.1543 -0.1672 -0.4222
 1695SOL    HW111946   1.078   9.464   1.302 -0.4725 -0.1580 -0.8946
 1695SOL    HW211947   1.145   9.597   1.328  0.7128 -1.1353  1.3004
 1696SOL     OW11948   0.598   1.890   2.288  0.4518 -0.8291  0.0428
 1696SOL    HW111949   0.575   1.982   2.277  0.6793 -0.8271 -0.4416
 1696SOL    HW211950   0.654   1.888   2.365 -0.7837 -0.7745  0.9703
 1697SOL     OW11951  11.872   0.097   5.047  0.3148  0.4426  0.0011
 1697SOL    HW111952  11.820   0.026   5.084 -0.7332  1.0597 -0.2457
 1697SOL    HW211953  11.932   0.053   4.985 -1.0686 -0.1361 -0.9769
 1698SOL     OW11954   1.393  11.172   6.371 -0.0505 -0.9725  0.0931
 1698SOL    HW111955   1.327  11.227   6.330  1.6509 -0.9714 -2.9558
 1698SOL    HW211956   1.465  11.232   6.391  0.2202 -1.4321  0.5298
 1699SOL     OW11957   3.408   3.973   5.411  0.0435  0.2403 -0.2209
 1699SOL    HW111958   3.314   3.965   5.392 -0.2408  2.3398  0.0752
 1699SOL    HW211959   3.451   3.950   5.328 -0.8910  2.3413 -1.3593
 1700SOL     OW11960   5.127   6.772   3.684 -0.6260  0.1763 -0.1966
 1700SOL    HW111961   5.169   6.696   3.645  1.0951  0.1913  1.5105
 1700SOL    HW211962   5.041   6.740   3.712  0.1290 -1.2232  0.6418
 1701SOL     OW11963   8.393  10.119  11.835 -0.3605 -0.3600  0.8044
 1701SOL    HW111964   8.487  10.126  11.847 -0.4334 -0.4147  1.4318
 1701SOL    HW211965   8.365  10.207  11.810  0.2176 -0.8933 -2.2120
 1702SOL     OW11966   0.366  11.804   4.346 -0.4775 -0.1624 -0.5139
 1702SOL    HW111967   0.411  11.832   4.266  0.7786  2.7321  1.0722
 1702SOL    HW211968   0.298  11.870   4.360 -1.4470 -1.2763  0.2352
 1703SOL     OW11969   2.545   3.812   5.099 -0.0042  0.3679  0.0473
 1703SOL    HW111970   2.500   3.731   5.127 -2.3110  0.7486 -2.1802
 1703SOL    HW211971   2.636   3.785   5.085 -0.5426 -1.6694  0.1005
 1704SOL     OW11972  12.006   0.815   4.588 -0.3587  0.8704 -0.1725
 1704SOL    HW111973  11.955   0.783   4.663  0.8899 -0.6582  0.0704
 1704SOL    HW211974  12.033   0.903   4.615 -0.4744  0.5974  0.8967
 1705SOL     OW11975   5.230  10.881   3.801 -0.0285  0.2273 -0.1450
 1705SOL    HW111976   5.145  10.838   3.792 -0.6508  1.2894  0.4520
 1705SOL    HW211977   5.292  10.820   3.761 -1.1132 -0.3999 -0.9298
 1706SOL     OW11978   1.423   7.934  11.245  0.4725  0.2070 -0.5040
 1706SOL    HW111979   1.511   7.903  11.267 -0.0620 -0.1629  1.2711
 1706SOL    HW211980   1.367   7.901  11.315 -0.8094  1.8708 -0.6676
 1707SOL     OW11981   9.808   3.722   8.448  0.8264 -0.5507  0.0365
 1707SOL    HW111982   9.797   3.668   8.370  0.3131 -3.1817  1.7677
 1707SOL    HW211983   9.767   3.806   8.426 -1.5273 -2.0233 -1.7119
 1708SOL     OW11984   1.747   7.767   5.950 -0.1140 -0.3572 -0.5274
 1708SOL    HW111985   1.721   7.840   6.006 -3.2726 -1.2064 -0.7115
 1708SOL    HW211986   1.768   7.696   6.011 -1.3565 -0.5950 -0.3513
 1709SOL     OW11987   3.286   0.016  10.596  0.8021  0.2224 -0.3432
 1709SOL    HW111988   3.327   0.004  10.681  1.5956  0.1399 -0.7280
 1709SOL    HW211989   3.275   0.110  10.587 -2.2836  0.1375  1.2169
 1710SOL     OW11990   8.619  12.450   5.697  0.3524 -0.0747  0.2410
 1710SOL    HW111991   8.613  12.365   5.653  1.5787  0.5775 -1.2833
 1710SOL    HW211992   8.553  12.503   5.653 -0.1140 -0.0992  0.9004
 1711SOL     OW11993   6.818   0.885   7.066 -0.0986 -0.3694  0.5806
 1711SOL    HW111994   6.834   0.929   7.149  0.8316  0.2769  0.0798
 1711SOL    HW211995   6.742   0.829   7.082 -0.7878  0.7789  1.4727
 1712SOL     OW11996   2.733   6.216   9.590  0.5693  0.1221  0.4463
 1712SOL    HW111997   2.680   6.272   9.647 -0.9351  0.7440 -1.4685
 1712SOL    HW211998   2.705   6.238   9.502  2.1663 -1.4713 -0.5199
 1713SOL     OW11999   9.230   9.855   7.351  0.5733 -0.6064  0.3984
 1713SOL    HW112000   9.210   9.911   7.277  0.5224  0.4910  1.2173
 1713SOL    HW212001   9.197   9.769   7.326 -0.0546 -0.1009 -0.5578
 1714SOL     OW12002   3.582  12.089   9.287  0.0406  0.3437 -0.0443
 1714SOL    HW112003   3.502  12.038   9.273  1.3836 -1.8585 -0.3051
 1714SOL    HW212004   3.557  12.180   9.271 -2.4812 -0.2246  0.3257
 1715SOL     OW12005  10.944  10.154   1.762 -0.7846  0.1021 -0.2101
 1715SOL    HW112006  10.951  10.169   1.856 -2.7648 -1.2181  0.2220
 1715SOL    HW212007  10.905  10.234   1.728 -2.9955 -0.5301  0.6450
 1716SOL     OW12008  12.334   7.337   8.922  0.0759 -0.2822 -0.4238
 1716SOL    HW112009  12.347   7.269   8.856 -0.8232 -0.6395 -0.2380
 1716SOL    HW212010  12.416   7.386   8.922  0.9594 -1.7202 -0.1407
 1717SOL     OW12011   6.554   6.868   3.657 -0.0096  0.3606 -0.2123
 1717SOL    HW112012   6.579   6.928   3.586 -1.0403  1.7241  0.5249
 1717SOL    HW212013   6.580   6.913   3.737  2.4715 -1.8034  0.3190
 1718SOL     OW12014   5.582  11.075   5.545 -0.0291  0.5371  0.1864
 1718SOL    HW112015   5.501  11.110   5.581  0.1818  0.6736  0.5344
 1718SOL    HW212016   5.580  11.099   5.452 -0.9324 -0.4630 -0.0795
 1719SOL     OW12017   6.964   1.661   7.319 -0.1884 -0.4691  0.4789
 1719SOL    HW112018   6.907   1.595   7.357 -0.4774  0.0170  0.9000
 1719SOL    HW212019   6.924   1.744   7.343  0.2213 -0.1359  0.0334
 1720SOL     OW12020   7.553  11.140   1.415  0.0314  0.6677 -0.0519
 1720SOL    HW112021   7.500  11.219   1.421  0.0928  1.2154 -4.1013
 1720SOL    HW212022   7.496  11.074   1.376  1.0485 -0.1090 -0.2990
 1721SOL     OW12023   3.246   8.406   4.893 -0.2138 -0.0140  0.6318
 1721SOL    HW112024   3.199   8.467   4.949 -0.5289  0.9473 -0.6434
 1721SOL    HW212025   3.235   8.321   4.936  1.0425  0.9019  2.9634
 1722SOL     OW12026   7.665   1.283   6.483  0.0570 -0.5991  0.2866
 1722SOL    HW112027   7.738   1.249   6.432  1.1729 -1.0292  2.0779
 1722SOL    HW212028   7.604   1.210   6.493 -0.3476 -0.4083 -0.6962
 1723SOL     OW12029  12.103   1.361   5.906  0.0421 -0.0371 -0.2462
 1723SOL    HW112030  12.101   1.378   6.001 -3.1076 -0.2349 -0.1798
 1723SOL    HW212031  12.114   1.266   5.899  0.4386 -0.0059 -0.1259
 1724SOL     OW12032   4.792  11.241   3.437  0.1417 -0.3644  0.5027
 1724SOL    HW112033   4.779  11.241   3.342  1.5931 -0.0063  0.2834
 1724SOL    HW212034   4.767  11.330   3.464 -2.8151 -1.2099  0.8880
 1725SOL     OW12035   8.372   8.613   0.179  0.8532 -0.2321 -0.2838
 1725SOL    HW112036   8.419   8.682   0.133  0.4220  1.6375  1.8817
 1725SOL    HW212037   8.285   8.648   0.194 -0.3884 -2.4979 -1.6949
 1726SOL     OW12038  11.924   0.715   6.316  0.9142  0.2008 -0.1614
 1726SOL    HW112039  11.852   0.743   6.260  0.1068 -1.6093 -0.1107
 1726SOL    HW212040  12.003   0.727   6.262  0.4513  1.0810 -0.6519
 1727SOL     OW12041   8.996   8.023   9.753  0.2489  0.1566 -0.0295
 1727SOL    HW112042   9.045   8.092   9.798  0.3837  0.1817 -0.2114
 1727SOL    HW212043   9.002   8.047   9.660  0.1231  0.0108 -0.0743
 1728SOL     OW12044   6.621   5.677  11.435 -0.3218  0.1253 -0.4036
 1728SOL    HW112045   6.614   5.582  11.425 -0.2952 -0.0287  0.9268
 1728SOL    HW212046   6.650   5.690  11.525 -0.0148  1.3929 -0.6670
 1729SOL     OW12047   2.622   2.100   9.573  0.5921  0.2980 -0.0410
 1729SOL    HW112048   2.576   2.136   9.498  1.6460  2.0528  0.1111
 1729SOL    HW212049   2.614   2.167   9.641  0.1885 -0.9838  1.2248
 1730SOL     OW12050  12.013   7.896   1.412  0.6187  0.3888  0.6723
 1730SOL    HW112051  12.052   7.857   1.334  2.0274  1.1490  0.9720
 1730SOL    HW212052  11.986   7.822   1.465 -0.2204 -0.1419 -0.4502
 1731SOL     OW12053   0.250   2.164  10.402 -0.3102  0.3061  0.2273
 1731SOL    HW112054   0.235   2.120  10.485  2.8748 -1.6751 -0.1054
 1731SOL    HW212055   0.326   2.220  10.417 -1.5130  2.2762 -0.6122
 1732SOL     OW12056   5.207  12.308   1.177  0.0263  0.4072 -0.1891
 1732SOL    HW112057   5.263  12.239   1.211 -0.0532  0.1665 -0.5371
 1732SOL    HW212058   5.257  12.346   1.105  0.2678  1.0302  0.3056
 1733SOL     OW12059   3.007  10.278   3.762 -0.1008 -0.4826  0.1177
 1733SOL    HW112060   2.914  10.297   3.750 -0.1892 -0.5848  0.6098
 1733SOL    HW212061   3.050  10.363   3.755 -0.1443 -0.5375 -0.8915
 1734SOL     OW12062   6.573  11.158   5.362  0.3577 -0.2095  0.1902
 1734SOL    HW112063   6.561  11.194   5.450 -1.4574 -1.8185  0.6571
 1734SOL    HW212064   6.554  11.065   5.371 -1.4768 -0.1745 -2.1707
 1735SOL     OW12065   9.021   4.707   9.476  0.0703 -0.6700 -0.2825
 1735SOL    HW112066   8.951   4.721   9.412  1.0961  0.0208 -1.3063
 1735SOL    HW212067   9.102   4.717   9.425  0.9948  1.9963  1.5215
 1736SOL     OW12068  11.042   0.626   1.847  0.2264  0.1050 -0.0940
 1736SOL    HW112069  11.080   0.538   1.838  0.5267  0.3808 -1.7410
 1736SOL    HW212070  10.949   0.610   1.861 -0.0287 -0.4868 -2.1502
 1737SOL     OW12071   0.217  11.107   4.534 -0.2484 -0.2121  0.1044
 1737SOL    HW112072   0.267  11.116   4.615  0.3770 -2.1842 -0.0217
 1737SOL    HW212073   0.127  11.093   4.563 -0.5455  1.9359  0.3595
 1738SOL     OW12074   0.624  11.218   7.518 -0.1786  0.0632 -0.0877
 1738SOL    HW112075   0.559  11.173   7.572 -1.6917  0.9341 -1.1234
 1738SOL    HW212076   0.615  11.310   7.542 -0.0202  0.3072 -0.9566
 1739SOL     OW12077   5.146   7.976   8.098 -0.2723  0.2169 -0.3236
 1739SOL    HW112078   5.227   8.006   8.138 -0.5144 -1.0398  1.1724
 1739SOL    HW212079   5.166   7.888   8.066 -0.8565  0.1548 -0.5378
 1740SOL     OW12080   6.949   6.105  10.479  0.6795  0.1687 -0.0497
 1740SOL    HW112081   6.888   6.151  10.537  1.3692  0.1402  0.7286
 1740SOL    HW212082   6.979   6.172  10.418 -1.5665 -0.2457 -1.7019
 1741SOL     OW12083  11.735   7.033   4.757  0.7437  0.0649 -0.0437
 1741SOL    HW112084  11.767   7.026   4.667  1.4644 -0.8769  0.2652
 1741SOL    HW212085  11.806   6.997   4.810  0.3624  0.6841  0.9138
 1742SOL     OW12086   8.127   3.253   5.219 -0.3051 -0.3104 -0.3227
 1742SOL    HW112087   8.096   3.233   5.308 -1.6087 -2.5421 -1.2019
 1742SOL    HW212088   8.214   3.214   5.215 -0.2247 -0.1684 -0.0181
 1743SOL     OW12089   0.101  11.009   8.427  0.5793  0.1248  0.3357
 1743SOL    HW112090   0.112  11.070   8.500  0.0603 -0.6251  1.0600
 1743SOL    HW212091   0.034  10.947   8.457  0.4361 -0.2657 -0.7355
 1744SOL     OW12092   5.877   3.209   6.966  0.1913  0.4925  0.1457
 1744SOL    HW112093   5.893   3.286   7.021 -2.8488  1.0372  0.4657
 1744SOL    HW212094   5.924   3.228   6.885 -0.6804  2.9008  0.1139
 1745SOL     OW12095   5.915   1.772   4.986  0.3155  0.2033 -0.1124
 1745SOL    HW112096   5.902   1.721   4.906  1.9337  0.9215 -0.8795
 1745SOL    HW212097   5.893   1.862   4.961  0.4188  0.3663  0.3622
 1746SOL     OW12098   9.060   2.744   8.575  0.3453 -0.2577  0.5634
 1746SOL    HW112099   8.986   2.752   8.635  0.1168  0.6643  0.1806
 1746SOL    HW212100   9.048   2.658   8.534 -0.8064  0.0743  0.1542
 1747SOL     OW12101   0.147   0.826  11.577  0.4283 -0.6189  0.7577
 1747SOL    HW112102   0.199   0.810  11.498  0.9148  0.2315  0.8974
 1747SOL    HW212103   0.174   0.913  11.606 -2.1979  0.5559 -0.0170
 1748SOL     OW12104   9.793   0.219   5.549 -0.8289  0.0273  0.0839
 1748SOL    HW112105   9.722   0.282   5.555 -0.7068  0.1891 -0.1727
 1748SOL    HW212106   9.840   0.229   5.632  0.1372  1.4185 -0.5806
 1749SOL     OW12107   3.592  10.959  10.688 -0.4764 -0.1669  0.5528
 1749SOL    HW112108   3.534  10.913  10.749 -1.3570 -2.0521 -1.5138
 1749SOL    HW212109   3.568  10.923  10.602  3.3326 -0.6024 -0.5117
 1750SOL     OW12110   3.407   3.804  10.212  0.0452 -0.6896 -0.2568
 1750SOL    HW112111   3.467   3.799  10.138 -0.0138 -1.2436 -0.2773
 1750SOL    HW212112   3.435   3.732  10.270 -0.3886 -0.7439 -0.1102
 1751SOL     OW12113  10.918   9.778   9.743 -0.0731 -0.0054 -0.2140
 1751SOL    HW112114  11.004   9.762   9.704 -0.9364 -2.3586 -1.3154
 1751SOL    HW212115  10.928   9.752   9.835  0.5110  0.2178 -0.2106
 1752SOL     OW12116   2.725   7.281   9.411  0.7757  0.4873 -0.3173
 1752SOL    HW112117   2.735   7.312   9.501 -1.3283  0.4005 -0.0076
 1752SOL    HW212118   2.696   7.190   9.420 -0.1119  0.6848 -1.0605
 1753SOL     OW12119   9.824  11.671   9.129  0.0831 -0.4275 -0.5021
 1753SOL    HW112120   9.820  11.584   9.169  1.0920 -0.2929 -0.0760
 1753SOL    HW212121   9.890  11.718   9.179 -0.9657  0.8541 -0.2430
 1754SOL     OW12122   8.028   1.729   8.192  0.3522 -0.4131  0.4753
 1754SOL    HW112123   8.062   1.760   8.276  0.2520 -1.0754  0.7707
 1754SOL    HW212124   8.074   1.646   8.177  2.1406  0.7895 -1.2760
 1755SOL     OW12125   4.410   6.536   3.092 -0.4341  0.2909 -0.0248
 1755SOL    HW112126   4.348   6.467   3.070  1.1620 -0.3791 -2.9775
 1755SOL    HW212127   4.478   6.492   3.143 -0.5001  0.1758 -0.0368
 1756SOL     OW12128   1.729   3.426   5.651  0.1004  0.4588  0.8667
 1756SOL    HW112129   1.679   3.345   5.645  0.6738  0.2060 -3.1087
 1756SOL    HW212130   1.816   3.400   5.679  0.1090 -0.2378  0.2132
 1757SOL     OW12131  11.791   1.270  12.236  0.0592  0.4967 -0.2839
 1757SOL    HW112132  11.725   1.338  12.220 -1.0607  0.0283  1.9981
 1757SOL    HW212133  11.870   1.319  12.261 -0.3269  1.0002 -0.0387
 1758SOL     OW12134   9.737  10.819  12.019 -0.4661 -0.1767 -0.0009
 1758SOL    HW112135   9.672  10.749  12.018 -1.6574  0.8664 -1.5622
 1758SOL    HW212136   9.702  10.884  11.959  0.8702  1.5218  0.9674
 1759SOL     OW12137   2.848   6.887   4.393 -0.0528  0.1785  0.0280
 1759SOL    HW112138   2.875   6.799   4.364 -0.4398 -0.2015  0.7853
 1759SOL    HW212139   2.930   6.929   4.419 -0.0448 -0.7104  1.6169
 1760SOL     OW12140  10.880  10.116  10.196 -0.0588 -0.3078  0.2800
 1760SOL    HW112141  10.799  10.120  10.145 -0.0582  0.1248  0.3161
 1760SOL    HW212142  10.950  10.131  10.133  0.0778 -1.7779  0.0374
 1761SOL     OW12143   6.345   4.769  12.444 -0.0245 -0.5628 -0.5648
 1761SOL    HW112144   6.361   4.694  12.387 -0.5781 -1.0136 -0.1380
 1761SOL    HW212145   6.381   4.742  12.529 -0.6523 -0.5364 -0.2901
 1762SOL     OW12146   7.763   4.709   5.558 -0.2143 -0.0629 -0.6609
 1762SOL    HW112147   7.698   4.640   5.573 -0.6499  0.4566 -0.1399
 1762SOL    HW212148   7.817   4.709   5.637 -1.6543  1.7440  0.3745
 1763SOL     OW12149  10.410   3.286   4.524  0.0553 -0.1221  0.6213
 1763SOL    HW112150  10.386   3.373   4.555  2.0420 -0.0074  2.0174
 1763SOL    HW212151  10.397   3.229   4.600 -1.3524 -1.1297 -0.3118
 1764SOL     OW12152  12.194   0.914   5.608  0.4137 -0.2634  0.4009
 1764SOL    HW112153  12.147   0.890   5.528 -0.5422  2.1760  0.1345
 1764SOL    HW212154  12.263   0.974   5.579  1.1103 -0.6360  1.2391
 1765SOL     OW12155   9.719   0.425   7.811  0.1634  0.0310 -0.0523
 1765SOL    HW112156   9.708   0.376   7.729 -1.8962  0.2351  0.0366
 1765SOL    HW212157   9.742   0.513   7.783  1.3453 -0.3470 -0.3166
 1766SOL     OW12158   0.320  10.785   0.631  0.1721 -0.0125 -0.7754
 1766SOL    HW112159   0.308  10.839   0.553 -1.9130 -0.4130 -0.7852
 1766SOL    HW212160   0.313  10.695   0.599 -0.4668 -0.1840 -0.1837
 1767SOL     OW12161  12.176   8.981  11.138  0.5085  0.1004 -0.3315
 1767SOL    HW112162  12.130   8.901  11.161 -1.1661  1.5426  1.8082
 1767SOL    HW212163  12.251   8.984  11.197  0.0338  0.5211  0.2695
 1768SOL     OW12164   4.414   7.790  11.458  0.0287 -0.4151 -0.0825
 1768SOL    HW112165   4.324   7.821  11.443  0.2373  0.7006  0.9431
 1768SOL    HW212166   4.454   7.793  11.371 -0.4737  0.5417 -0.2966
 1769SOL     OW12167   5.051   5.393  10.177  0.1396  0.1708  0.2688
 1769SOL    HW112168   5.078   5.460  10.240  0.6443  0.8558 -0.6349
 1769SOL    HW212169   4.963   5.419  10.150  0.0384  0.0434  0.4788
 1770SOL     OW12170   5.916  11.961   1.058 -0.0295 -0.0136  0.4478
 1770SOL    HW112171   5.895  11.913   0.978 -0.7981  0.8259  0.1324
 1770SOL    HW212172   5.861  11.921   1.126  0.9430 -1.0157  0.6640
 1771SOL     OW12173   0.606   5.373   1.803  0.1149  0.2237  0.3251
 1771SOL    HW112174   0.607   5.469   1.805 -0.0120  0.2743  3.2462
 1771SOL    HW212175   0.546   5.349   1.873  0.7444 -1.9984  0.1586
 1772SOL     OW12176  12.150   1.202   1.113 -0.6005 -0.2975  0.3254
 1772SOL    HW112177  12.180   1.202   1.204  0.0989  2.6536  0.1878
 1772SOL    HW212178  12.055   1.211   1.118 -0.5552 -0.0652  0.7595
 1773SOL     OW12179   7.591  11.939   8.163  0.0589  0.4571 -0.3152
 1773SOL    HW112180   7.607  11.918   8.255  1.8632  0.0524 -0.6725
 1773SOL    HW212181   7.646  11.876   8.115 -1.5571  0.0352 -1.7113
 1774SOL     OW12182   4.168   6.414   1.376  0.0698  0.0717  0.2372
 1774SOL    HW112183   4.078   6.445   1.375 -0.1958 -0.6698  0.3445
 1774SOL    HW212184   4.199   6.426   1.286 -0.9777 -2.0275 -0.4543
 1775SOL     OW12185   0.585   1.536  10.361 -0.0884 -0.2979 -0.1073
 1775SOL    HW112186   0.668   1.568  10.325 -0.2328  1.5018  1.0317
 1775SOL    HW212187   0.518   1.582  10.311 -0.3522 -0.2937  0.2445
 1776SOL     OW12188   4.339  10.464   5.476 -0.5996 -0.0435 -0.1714
 1776SOL    HW112189   4.266  10.466   5.537 -1.1342  1.3761 -0.8105
 1776SOL    HW212190   4.330  10.380   5.431 -1.5154 -0.1310  0.1527
 1777SOL     OW12191  11.607   7.802   7.527  0.2609 -0.3971  0.0596
 1777SOL    HW112192  11.605   7.898   7.524  0.9584 -0.3889 -0.4212
 1777SOL    HW212193  11.640   7.782   7.614  1.3809 -0.1644 -0.2966
 1778SOL     OW12194   8.586   8.364   3.091  0.0909  0.9930 -0.4310
 1778SOL    HW112195   8.564   8.365   2.998 -0.9554  1.9559 -0.1849
 1778SOL    HW212196   8.681   8.372   3.093  0.1639  0.5614 -1.4189
 1779SOL     OW12197   3.857  10.969   4.071 -0.2176 -0.0831 -0.5982
 1779SOL    HW112198   3.949  10.997   4.064  0.2109 -1.5817 -1.3268
 1779SOL    HW212199   3.856  10.913   4.149 -0.8792  1.1245  0.3146
 1780SOL     OW12200   9.965   5.594  10.059  0.4151  0.1002 -0.7572
 1780SOL    HW112201   9.956   5.594   9.964  0.2670 -1.4565 -0.7698
 1780SOL    HW212202   9.879   5.569  10.091  1.3712 -3.0905 -0.4002
 1781SOL     OW12203  10.244   4.453  11.975  0.8395 -0.6955  0.3717
 1781SOL    HW112204  10.260   4.529  12.032  0.9690 -1.6075  1.6005
 1781SOL    HW212205  10.317   4.394  11.994  0.6623 -1.1971 -0.4617
 1782SOL     OW12206   2.838   5.593   3.612 -0.5051 -0.1012  0.0176
 1782SOL    HW112207   2.809   5.565   3.526  1.9744 -1.3312 -0.5319
 1782SOL    HW212208   2.768   5.650   3.645 -3.5663 -2.9899 -0.9398
 1783SOL     OW12209   8.042   8.179   9.188  0.2095  0.1881 -0.3784
 1783SOL    HW112210   8.116   8.128   9.153  0.5112 -0.0784  0.6199
 1783SOL    HW212211   7.964   8.129   9.162  0.5370 -1.5242  1.6274
 1784SOL     OW12212   4.323   5.854   8.573  0.1582  0.4557  0.9796
 1784SOL    HW112213   4.339   5.807   8.655  0.1562  0.9469  1.2650
 1784SOL    HW212214   4.256   5.918   8.595  1.5301  1.9088  1.0965
 1785SOL     OW12215   6.928  10.833   2.613 -0.0343  0.7127 -0.0597
 1785SOL    HW112216   7.013  10.802   2.644  1.3529 -0.6041 -4.5319
 1785SOL    HW212217   6.865  10.772   2.653  1.4648 -0.5303  0.5445
 1786SOL     OW12218  12.350  10.780   3.203 -0.2433 -0.3536  0.2524
 1786SOL    HW112219  12.438  10.757   3.233 -0.3819 -1.0370  0.1494
 1786SOL    HW212220  12.300  10.794   3.283  0.3515  1.6651  0.3271
 1787SOL     OW12221   6.361   0.726  12.174 -0.2028  0.5134 -0.2492
 1787SOL    HW112222   6.416   0.728  12.096 -0.1105  0.6737 -0.1794
 1787SOL    HW212223   6.414   0.679  12.239 -1.2720 -1.9976 -1.0466
 1788SOL     OW12224   7.021   4.464  10.512 -0.4667  0.0385 -0.3755
 1788SOL    HW112225   7.098   4.417  10.482 -0.0797  2.0406 -2.8661
 1788SOL    HW212226   6.948   4.426  10.463 -0.5066  0.4478 -0.6416
 1789SOL     OW12227   3.756   7.890   3.779  0.0324  0.1498  0.8706
 1789SOL    HW112228   3.814   7.900   3.704 -0.3451  1.5752  0.7362
 1789SOL    HW212229   3.674   7.932   3.751 -1.5205 -2.7530  0.6273
 1790SOL     OW12230   9.432   6.276   0.813 -0.2845 -0.1705 -0.3265
 1790SOL    HW112231   9.381   6.331   0.872 -0.4080 -0.9846  0.3462
 1790SOL    HW212232   9.366   6.228   0.762 -0.1862 -0.4252 -0.2159
 1791SOL     OW12233  11.177   1.493  12.306 -0.0167 -0.1911  0.1145
 1791SOL    HW112234  11.172   1.406  12.347  3.3295 -0.8122 -0.4756
 1791SOL    HW212235  11.130   1.483  12.223 -0.4237 -1.1621  0.4435
 1792SOL     OW12236  12.241   2.306   3.356 -0.2055  0.1177 -0.0658
 1792SOL    HW112237  12.217   2.394   3.328  0.3600  0.4913  0.5679
 1792SOL    HW212238  12.337   2.307   3.358 -0.1884 -0.6023 -0.3242
 1793SOL     OW12239   9.843   8.005  10.248 -0.5970  0.2453  0.1977
 1793SOL    HW112240   9.763   8.014  10.299  0.2254  2.3856  1.2582
 1793SOL    HW212241   9.816   8.020  10.157 -1.5311 -0.0053  0.4233
 1794SOL     OW12242   0.567  10.787   8.929 -0.7969  0.5009  0.0645
 1794SOL    HW112243   0.561  10.762   8.837  0.1982  0.2827  0.0397
 1794SOL    HW212244   0.572  10.703   8.976  1.1397  0.5799  0.0985
 1795SOL     OW12245  11.275   5.959   4.029  0.4329  0.4224  0.0989
 1795SOL    HW112246  11.351   5.902   4.035  1.0162  1.1925  0.2327
 1795SOL    HW212247  11.208   5.917   4.083  1.1153  0.2708  0.8377
 1796SOL     OW12248   2.721   6.992   0.532 -0.3227  0.0128 -0.3775
 1796SOL    HW112249   2.647   7.053   0.531 -0.1636  0.2088 -0.3603
 1796SOL    HW212250   2.695   6.923   0.593 -1.4852 -1.1796 -2.1382
 1797SOL     OW12251   0.710   8.538   2.503 -0.6715 -0.3569  0.3115
 1797SOL    HW112252   0.651   8.605   2.538 -1.2850 -0.6742 -0.0921
 1797SOL    HW212253   0.780   8.587   2.460  0.1642  0.0477  2.0463
 1798SOL     OW12254   0.316  11.930   1.360 -0.7529  0.4510 -0.7202
 1798SOL    HW112255   0.266  11.917   1.279 -1.7162  1.2316 -0.2778
 1798SOL    HW212256   0.330  11.841   1.394  1.6285 -0.0972 -2.8300
 1799SOL     OW12257   9.695   0.325   0.427 -0.4402  0.0944 -0.1199
 1799SOL    HW112258   9.708   0.334   0.522 -0.8230 -2.0169  0.1725
 1799SOL    HW212259   9.610   0.367   0.411 -2.0558 -2.4703  1.0981
 1800SOL     OW12260   6.058   0.354   8.159 -0.1592 -0.0558 -0.2681
 1800SOL    HW112261   6.114   0.392   8.091  1.6407 -0.9694  0.6075
 1800SOL    HW212262   5.972   0.346   8.118  0.7005  0.0262 -2.2193
 1801SOL     OW12263   5.080  12.121   4.513  0.1046 -0.1163  0.3041
 1801SOL    HW112264   5.133  12.074   4.449 -0.9706 -2.5794  1.1303
 1801SOL    HW212265   5.095  12.076   4.595 -0.4439  1.4603  1.3098
 1802SOL     OW12266   6.816   4.574   2.594  0.0916 -0.7196 -0.6523
 1802SOL    HW112267   6.740   4.517   2.601 -0.7885  0.5637  1.5136
 1802SOL    HW212268   6.807   4.634   2.668  1.7261  1.2815 -1.9673
 1803SOL     OW12269   2.197   5.811   4.885 -0.4222 -0.3752  0.5782
 1803SOL    HW112270   2.145   5.764   4.951 -2.3109 -0.0966 -0.6513
 1803SOL    HW212271   2.207   5.748   4.814 -0.4449  0.1109  0.1444
 1804SOL     OW12272   2.568   7.057   9.186 -0.9616 -0.3017 -0.6977
 1804SOL    HW112273   2.593   6.967   9.207  2.7022  0.7262 -0.0985
 1804SOL    HW212274   2.607   7.074   9.101  0.0215  1.2438  0.0147
 1805SOL     OW12275  12.444   9.362   2.896  0.4826 -0.2802 -0.4768
 1805SOL    HW112276  12.389   9.304   2.947 -1.0317  0.0144 -1.7100
 1805SOL    HW212277  12.456   9.439   2.952 -1.0953  0.0159 -0.5032
 1806SOL     OW12278   3.174   0.474   0.943  0.2007  0.0240  0.7634
 1806SOL    HW112279   3.155   0.511   0.857 -0.3217  2.0992  1.7042
 1806SOL    HW212280   3.250   0.418   0.929  0.3596  0.6252 -0.9767
 1807SOL     OW12281  10.777   0.183   7.676 -0.1365  0.4426 -0.4426
 1807SOL    HW112282  10.740   0.142   7.598  2.1097  0.7659 -1.7775
 1807SOL    HW212283  10.710   0.245   7.705 -0.8031  0.7504 -2.4872
 1808SOL     OW12284   2.149   9.116   6.484  0.4044  0.0360 -0.2176
 1808SOL    HW112285   2.235   9.153   6.504  0.4975 -0.7567  0.9097
 1808SOL    HW212286   2.094   9.143   6.557 -0.8976  2.3133 -1.9220
 1809SOL     OW12287  11.847  11.080  11.095 -0.3290 -0.0569 -0.0730
 1809SOL    HW112288  11.819  11.121  11.176 -0.8991 -0.9725  0.2047
 1809SOL    HW212289  11.810  11.135  11.026  0.7300  1.1267  0.2508
 1810SOL     OW12290   8.028   0.811  10.841  0.0625  0.2704  0.1213
 1810SOL    HW112291   8.066   0.881  10.789 -0.2341  0.2744 -0.0928
 1810SOL    HW212292   7.983   0.755  10.777 -0.2382  0.2328  0.3632
 1811SOL     OW12293  12.400   4.298   9.138  0.1532 -0.2059  0.6222
 1811SOL    HW112294  12.374   4.208   9.120 -1.8107  0.0596  1.7705
 1811SOL    HW212295  12.400   4.304   9.234 -1.8167  1.5038  0.5939
 1812SOL     OW12296  11.570   6.470   2.598 -0.2340  0.5525  0.2381
 1812SOL    HW112297  11.498   6.451   2.658 -1.4244  0.1441 -1.2658
 1812SOL    HW212298  11.529   6.474   2.511  1.0003  3.6660 -0.3229
 1813SOL     OW12299   5.234   9.597   8.920  0.2238  0.4887  0.4684
 1813SOL    HW112300   5.142   9.615   8.941 -0.3873  0.6688 -2.0327
 1813SOL    HW212301   5.232   9.514   8.872  0.9502  1.7634 -1.9406
 1814SOL     OW12302   9.244   4.460   4.837  0.1972 -0.4193 -0.2279
 1814SOL    HW112303   9.260   4.534   4.778  0.1043 -0.2869 -0.0878
 1814SOL    HW212304   9.261   4.382   4.783 -2.1803 -0.3715 -1.1444
 1815SOL     OW12305   3.493   4.241  11.878  0.4521  0.7117 -0.1149
 1815SOL    HW112306   3.451   4.296  11.812 -1.9287  0.6441  1.2311
 1815SOL    HW212307   3.464   4.152  11.856  2.4138  0.2124 -0.9149
 1816SOL     OW12308   5.460   9.367   1.578 -0.2626 -0.6483  0.2877
 1816SOL    HW112309   5.408   9.382   1.657  0.7872 -0.4622  0.9604
 1816SOL    HW212310   5.401   9.319   1.519 -0.7662 -1.6085  1.5391
 1817SOL     OW12311   8.751   6.988   6.863 -0.5576  0.2490  0.2866
 1817SOL    HW112312   8.678   6.972   6.923  0.6996 -0.7956  1.6252
 1817SOL    HW212313   8.812   7.041   6.914 -0.0610  0.5137 -0.5666
 1818SOL     OW12314   6.631   8.304   5.221 -0.1163 -0.1618  0.5321
 1818SOL    HW112315   6.594   8.216   5.217  1.1194 -0.7248  1.0383
 1818SOL    HW212316   6.561   8.358   5.258 -0.7905 -0.9671  0.4593
 1819SOL     OW12317   3.813   5.204   1.929  0.0025  0.4520 -0.3244
 1819SOL    HW112318   3.752   5.211   1.856 -0.0803 -0.0928 -0.3132
 1819SOL    HW212319   3.892   5.249   1.899 -0.1944  0.6384 -0.5662
 1820SOL     OW12320   2.175   1.212   0.261  0.2456 -0.3438 -0.2276
 1820SOL    HW112321   2.110   1.148   0.234  1.4317 -1.5053 -0.4688
 1820SOL    HW212322   2.154   1.291   0.211 -1.9559 -0.1212  0.9647
 1821SOL     OW12323   6.445   8.713   2.542  0.7338 -0.0922  0.1275
 1821SOL    HW112324   6.370   8.752   2.498  0.4339 -1.7631 -0.8877
 1821SOL    HW212325   6.518   8.728   2.482  0.6648 -0.8565 -0.1519
 1822SOL     OW12326   2.322  12.259  11.959  0.0039  0.0127 -0.2030
 1822SOL    HW112327   2.322  12.348  11.995 -2.0482  0.4684 -1.1493
 1822SOL    HW212328   2.341  12.271  11.866 -0.8843 -0.4331 -0.4591
 1823SOL     OW12329   8.827   9.346   4.631 -0.1198  0.0929  0.0656
 1823SOL    HW112330   8.752   9.359   4.688 -0.4086  1.1032 -0.5325
 1823SOL    HW212331   8.890   9.412   4.659 -0.1595  0.4197 -0.6072
 1824SOL     OW12332   6.974   7.906   6.561  0.2533 -0.3910 -0.3204
 1824SOL    HW112333   6.971   7.962   6.483  0.6440  1.1642  0.7238
 1824SOL    HW212334   7.065   7.879   6.568  0.0133 -1.4092 -0.9725
 1825SOL     OW12335   1.706   8.253   5.819 -0.3295 -0.5333 -0.1123
 1825SOL    HW112336   1.634   8.207   5.776  0.3404 -1.5137 -0.2192
 1825SOL    HW212337   1.785   8.220   5.776  0.2097  0.2582  0.2407
 1826SOL     OW12338   6.050  10.791   5.958  0.2550 -0.0519  0.4028
 1826SOL    HW112339   5.969  10.839   5.941 -1.0296 -2.5047 -0.9396
 1826SOL    HW212340   6.115  10.835   5.903 -1.2361 -0.6693 -2.0224
 1827SOL     OW12341   4.007  11.836   3.306 -0.0465 -0.1264  0.4940
 1827SOL    HW112342   4.100  11.855   3.294 -0.6257  1.8946 -1.5194
 1827SOL    HW212343   3.963  11.920   3.294 -2.2279 -1.2532 -0.0601
 1828SOL     OW12344   7.502   2.335   5.982 -0.3112  0.3753 -0.1131
 1828SOL    HW112345   7.424   2.318   6.035 -0.1975  0.6229  0.1388
 1828SOL    HW212346   7.505   2.263   5.919 -1.3071  0.8951 -0.7828
 1829SOL     OW12347   7.065  11.551   8.237  0.6429  0.0719 -0.3191
 1829SOL    HW112348   7.006  11.607   8.187 -0.0330 -0.1648  0.1854
 1829SOL    HW212349   7.007  11.504   8.297  1.3650 -0.0890  0.2654
 1830SOL     OW12350   0.151   3.282  12.461 -0.6425 -0.2697 -0.6285
 1830SOL    HW112351   0.144   3.186  12.456  0.3330 -0.3904  0.0643
 1830SOL    HW212352   0.120   3.312  12.376 -0.3488 -1.2448 -1.1032
 1831SOL     OW12353   3.660   8.399   9.673 -0.6565  0.2720 -0.5179
 1831SOL    HW112354   3.615   8.381   9.756 -0.0081  0.6885 -0.0715
 1831SOL    HW212355   3.671   8.494   9.671  0.2275  0.1735 -0.6110
 1832SOL     OW12356  11.195   8.327   1.230  0.2685 -0.0916 -0.7586
 1832SOL    HW112357  11.244   8.313   1.311  0.4619  1.1954 -0.6378
 1832SOL    HW212358  11.138   8.250   1.223  1.7085 -1.2359 -0.4887
 1833SOL     OW12359   2.548   4.442   6.077  0.3690  0.4281 -0.3161
 1833SOL    HW112360   2.630   4.429   6.124  0.3604  1.2393 -0.0660
 1833SOL    HW212361   2.571   4.499   6.004  0.0239  0.6927 -0.2233
 1834SOL     OW12362   5.932   4.854   7.792 -0.6315  0.5338 -0.4011
 1834SOL    HW112363   5.978   4.884   7.714 -0.2774 -1.3454 -0.9649
 1834SOL    HW212364   5.851   4.814   7.758 -0.5807 -0.0964  0.1974
 1835SOL     OW12365   6.517   0.236  10.449  0.2411 -0.5011 -0.4693
 1835SOL    HW112366   6.448   0.171  10.463 -0.7149  0.3163 -1.2400
 1835SOL    HW212367   6.484   0.292  10.379  1.9000 -0.3794 -1.2211
 1836SOL     OW12368   8.412   8.472   8.731 -0.1607  0.2225 -0.1447
 1836SOL    HW112369   8.324   8.438   8.714 -0.2348  0.6849 -0.7232
 1836SOL    HW212370   8.421   8.546   8.671  0.0792  1.0984  0.9439
 1837SOL     OW12371   9.537   3.686  10.386 -0.0729 -0.6292  0.2147
 1837SOL    HW112372   9.620   3.689  10.434  0.2642 -1.3885 -0.3080
 1837SOL    HW212373   9.489   3.764  10.415  0.0386 -1.1625  1.9465
 1838SOL     OW12374   0.629   4.417   6.662 -0.4285 -0.2985  0.2690
 1838SOL    HW112375   0.569   4.408   6.735  0.0177 -0.5355  0.6143
 1838SOL    HW212376   0.614   4.339   6.608 -1.4241  0.3396 -0.4040
 1839SOL     OW12377  10.223  12.249  11.135  0.1389  0.6529 -1.1597
 1839SOL    HW112378  10.163  12.310  11.093 -0.8872 -0.1695 -0.9502
 1839SOL    HW212379  10.167  12.198  11.194  1.3283  0.9541  0.2801
 1840SOL     OW12380  11.315   9.415   9.028  0.0732  0.1930  0.0813
 1840SOL    HW112381  11.382   9.421   9.097  0.2757  3.8267 -0.2522
 1840SOL    HW212382  11.244   9.471   9.059 -0.5077  0.6549 -1.9497
 1841SOL     OW12383   8.655   3.304  11.129  0.1735 -0.0637  0.3496
 1841SOL    HW112384   8.595   3.365  11.172 -2.8610 -3.2355  1.1082
 1841SOL    HW212385   8.617   3.218  11.146  5.1995 -2.4863  1.0774
 1842SOL     OW12386  10.600   8.829  12.369  0.3360 -0.3351 -0.3639
 1842SOL    HW112387  10.655   8.761  12.408 -0.4145 -1.1135 -0.6373
 1842SOL    HW212388  10.644   8.852  12.288  1.4121  0.6319  0.4560
 1843SOL     OW12389   5.632   8.045   5.846 -0.0708  0.6650  0.0785
 1843SOL    HW112390   5.620   8.106   5.920 -0.2103  0.6660  0.0550
 1843SOL    HW212391   5.594   7.963   5.877 -0.5583  0.7904 -0.1622
 1844SOL     OW12392   3.662   0.551   8.299  0.1082  0.1486 -1.2753
 1844SOL    HW112393   3.657   0.478   8.361 -1.0740  1.4414  0.2546
 1844SOL    HW212394   3.612   0.521   8.223 -0.2513 -0.6915 -0.7277
 1845SOL     OW12395  10.459  12.352   4.868  0.5776  0.1264 -0.9158
 1845SOL    HW112396  10.526  12.412   4.901  0.4193 -0.7036  1.0373
 1845SOL    HW212397  10.403  12.334   4.944 -0.2220 -1.3629 -1.8117
 1846SOL     OW12398  10.000  10.488   9.135 -0.3697  0.0335  0.2689
 1846SOL    HW112399  10.033  10.442   9.211  0.9096  1.9855  0.9785
 1846SOL    HW212400   9.907  10.500   9.152 -0.4920 -1.2532  0.5706
 1847SOL     OW12401   4.361  11.214   6.809  0.1321  0.4031 -0.0948
 1847SOL    HW112402   4.379  11.281   6.875 -0.9276  0.0753  0.5484
 1847SOL    HW212403   4.280  11.173   6.839  0.9861 -1.4553 -0.2444
 1848SOL     OW12404   7.838  10.264   9.383  0.6424 -0.1266 -0.2274
 1848SOL    HW112405   7.836  10.220   9.468 -0.3561  0.7564  0.2335
 1848SOL    HW212406   7.751  10.246   9.346  1.8404 -2.4837 -2.1416
 1849SOL     OW12407   6.691   2.443   9.673  0.1291 -0.0394 -0.2087
 1849SOL    HW112408   6.603   2.409   9.658  0.3656 -0.2181 -1.2430
 1849SOL    HW212409   6.721   2.399   9.753 -0.6053 -0.1963 -0.0195
 1850SOL     OW12410   6.064   0.534  11.747 -0.6117 -0.0023 -0.2008
 1850SOL    HW112411   6.135   0.507  11.688 -0.9277  0.6295 -0.8830
 1850SOL    HW212412   6.032   0.452  11.785  0.1796 -0.3354 -0.2358
 1851SOL     OW12413   6.578   2.121   8.513 -0.6505  0.6783  0.2940
 1851SOL    HW112414   6.582   2.033   8.475  1.2771  0.9097 -0.1315
 1851SOL    HW212415   6.543   2.107   8.601  1.7215 -0.8669  1.0889
 1852SOL     OW12416   1.700   9.911   3.322 -0.0341 -0.2243  0.3466
 1852SOL    HW112417   1.714   9.817   3.307 -0.5766 -0.5222  1.5289
 1852SOL    HW212418   1.770   9.937   3.381  1.0233  0.5050 -1.1591
 1853SOL     OW12419   2.717   3.857   3.879  0.0052 -0.1169  0.4301
 1853SOL    HW112420   2.756   3.770   3.886  1.0133  0.4412  2.3958
 1853SOL    HW212421   2.779   3.906   3.826  0.5608 -0.0165  1.1568
 1854SOL     OW12422   7.728  11.835   5.993 -0.0306 -0.3364  0.1328
 1854SOL    HW112423   7.776  11.899   6.046 -3.6645  4.3364 -1.5099
 1854SOL    HW212424   7.647  11.820   6.041 -1.1178 -0.1725 -1.5670
 1855SOL     OW12425   9.881  11.042   3.005 -0.1832 -0.2550  0.1684
 1855SOL    HW112426   9.922  11.015   3.087 -0.8349  1.7037  1.2126
 1855SOL    HW212427   9.949  11.027   2.938  0.2217 -2.2482  0.9488
 1856SOL     OW12428  11.078   9.605  11.560 -0.2846  0.3439 -0.0012
 1856SOL    HW112429  11.128   9.681  11.588  1.0538 -0.1094 -1.0092
 1856SOL    HW212430  10.991   9.639  11.540  0.5944  1.8569 -1.5432
 1857SOL     OW12431   1.145   5.172   9.981  0.2631  0.1212 -0.5940
 1857SOL    HW112432   1.062   5.141  10.015  1.1353 -2.5499 -0.6189
 1857SOL    HW212433   1.183   5.224  10.052 -1.0408  0.6921 -0.2904
 1858SOL     OW12434   8.660   0.751  10.097  0.8240 -0.5705 -0.0865
 1858SOL    HW112435   8.721   0.819  10.126 -0.9406  0.5076  1.4133
 1858SOL    HW212436   8.639   0.702  10.177  1.0343 -2.0265 -0.8986
 1859SOL     OW12437   9.165  11.764   0.576  0.3786  0.0569  0.2153
 1859SOL    HW112438   9.231  11.746   0.509 -0.2706 -0.5057 -0.3081
 1859SOL    HW212439   9.165  11.686   0.631  2.3488  1.3482  2.1754
 1860SOL     OW12440   0.098   5.581   2.072  0.2180  0.0726  0.3617
 1860SOL    HW112441   0.168   5.544   2.018 -0.0230  0.5023 -0.2536
 1860SOL    HW212442   0.092   5.522   2.147 -0.0456 -1.0463 -0.5104
 1861SOL     OW12443   7.986   2.362   2.670 -0.5955  0.6021 -0.0626
 1861SOL    HW112444   7.951   2.445   2.701 -1.2679 -0.4427  2.2419
 1861SOL    HW212445   7.934   2.340   2.593 -1.3450  1.6500  0.1320
 1862SOL     OW12446   6.081  11.708  10.197  0.2273 -0.3057  0.1976
 1862SOL    HW112447   6.098  11.731  10.288 -0.5081  0.3951  0.1705
 1862SOL    HW212448   6.153  11.747  10.148 -0.3567  0.9441  0.2927
 1863SOL     OW12449   0.752   6.328   4.255  0.7032  0.5125 -0.0685
 1863SOL    HW112450   0.781   6.415   4.228  3.1387  0.4824  2.0340
 1863SOL    HW212451   0.793   6.268   4.193 -0.2359  0.7545 -0.9638
 1864SOL     OW12452  11.670   8.520   0.475  0.2029 -0.3159 -0.3929
 1864SOL    HW112453  11.749   8.466   0.478  0.5288  0.1391 -0.6574
 1864SOL    HW212454  11.685   8.581   0.403  0.8050  1.5930  1.2597
 1865SOL     OW12455   5.851   2.797   4.147 -0.2985 -0.0536  0.1430
 1865SOL    HW112456   5.808   2.875   4.182  1.0601  1.0172 -0.4952
 1865SOL    HW212457   5.914   2.772   4.215  1.4349  1.2729 -0.8833
 1866SOL     OW12458   7.392   0.388   3.193  0.1540 -0.0451 -0.1783
 1866SOL    HW112459   7.360   0.457   3.252 -1.8233  2.7151 -3.9880
 1866SOL    HW212460   7.478   0.419   3.165  0.9452 -1.1852  0.8767
 1867SOL     OW12461   0.649   0.945   0.158  0.2705 -0.4258 -0.4619
 1867SOL    HW112462   0.592   1.002   0.107 -0.0828 -1.5392 -1.3507
 1867SOL    HW212463   0.666   0.993   0.238 -0.0570  0.9010 -1.1641
 1868SOL     OW12464   7.352  11.976  10.915  0.5744  0.1386  0.1093
 1868SOL    HW112465   7.344  11.986  11.010  1.4728  0.4469  0.1661
 1868SOL    HW212466   7.447  11.969  10.900  0.4710  0.6271 -0.8155
 1869SOL     OW12467   0.531   7.588   7.801  0.3078  0.5695  0.9213
 1869SOL    HW112468   0.605   7.531   7.822 -0.5873 -0.8960  0.2761
 1869SOL    HW212469   0.521   7.580   7.706 -1.0209  0.2795  1.0682
 1870SOL     OW12470   2.101   4.534   4.443 -0.6327  0.2855  0.3953
 1870SOL    HW112471   2.053   4.497   4.517  0.0073 -0.3110  0.5133
 1870SOL    HW212472   2.193   4.520   4.463 -0.4047  1.1129  0.0029
 1871SOL     OW12473   8.268   6.016   8.713  0.0503 -0.4715  0.0339
 1871SOL    HW112474   8.338   6.060   8.761 -0.1545  1.4846 -1.3519
 1871SOL    HW212475   8.191   6.024   8.770  0.0644  0.8335 -0.1133
 1872SOL     OW12476   0.872   2.037   3.905 -0.6188  0.1095 -0.0094
 1872SOL    HW112477   0.928   2.083   3.843 -1.7538 -0.3142 -1.4031
 1872SOL    HW212478   0.851   1.954   3.862  0.0598 -1.0608  1.7486
 1873SOL     OW12479   8.890   3.117   4.917 -0.0312  0.4119  0.0191
 1873SOL    HW112480   8.964   3.133   4.857  0.5344  0.3279  0.6826
 1873SOL    HW212481   8.841   3.199   4.916 -0.0307  0.4122 -0.5559
 1874SOL     OW12482   9.770  10.573   1.656 -0.1190  0.2515 -0.1566
 1874SOL    HW112483   9.679  10.545   1.667  0.7358 -2.5573  0.6723
 1874SOL    HW212484   9.822  10.497   1.684  2.4817  0.6317 -3.3108
 1875SOL     OW12485  10.692   9.531   6.121  0.6898  0.1977  0.5976
 1875SOL    HW112486  10.720   9.623   6.116 -2.3967  1.2799  1.1155
 1875SOL    HW212487  10.677   9.516   6.214  1.0221 -0.7901  0.4966
 1876SOL     OW12488  11.396   1.558   7.825  0.1493  0.1475 -0.0254
 1876SOL    HW112489  11.334   1.622   7.789 -1.5899 -1.1434  0.5012
 1876SOL    HW212490  11.429   1.511   7.749 -1.7041 -0.9972 -0.1843
 1877SOL     OW12491   0.623   3.303   1.920 -0.3743 -0.7633 -0.2559
 1877SOL    HW112492   0.565   3.249   1.975 -1.2604  1.1539  0.8039
 1877SOL    HW212493   0.564   3.357   1.869  0.4869 -1.2979 -1.8821
 1878SOL     OW12494   4.919   4.454   4.225 -0.0495 -0.1833 -0.5225
 1878SOL    HW112495   4.989   4.409   4.178 -1.1820 -1.9306 -0.6545
 1878SOL    HW212496   4.846   4.392   4.223 -2.0823  2.1198 -1.6311
 1879SOL     OW12497   9.226  10.943  10.266 -0.6072  0.4584 -0.6168
 1879SOL    HW112498   9.149  10.936  10.322 -1.7410  0.1815 -2.1750
 1879SOL    HW212499   9.281  10.869  10.292 -1.5802 -0.2587 -0.5487
 1880SOL     OW12500   9.678   2.750   6.714  0.5372 -0.6395 -0.0749
 1880SOL    HW112501   9.748   2.703   6.668 -0.4646 -0.9387 -1.3498
 1880SOL    HW212502   9.597   2.708   6.685 -0.2305  0.1907  0.7782
 1881SOL     OW12503   7.814   4.161   7.316 -0.2633 -0.2870  0.0324
 1881SOL    HW112504   7.736   4.199   7.356 -0.6272 -0.6222 -0.3515
 1881SOL    HW212505   7.800   4.170   7.222  0.1416 -0.3926 -0.0400
 1882SOL     OW12506  11.851  11.864   1.964  0.0003 -0.1109  0.0403
 1882SOL    HW112507  11.892  11.926   2.024 -1.9466  1.4321 -0.1276
 1882SOL    HW212508  11.759  11.864   1.989 -0.5763 -0.6249 -1.9213
 1883SOL     OW12509   4.145   6.359   2.025  0.3434  0.1263 -0.4069
 1883SOL    HW112510   4.118   6.298   2.094  0.4052 -1.1914 -1.5107
 1883SOL    HW212511   4.066   6.371   1.972 -0.5921  3.4589  1.4509
 1884SOL     OW12512   1.483   5.804   3.037 -0.0769  0.2713 -0.8272
 1884SOL    HW112513   1.418   5.806   2.966  0.3636  1.5448 -1.2292
 1884SOL    HW212514   1.475   5.717   3.074 -1.5943  0.1915 -1.2640
 1885SOL     OW12515   3.514   7.027   1.018 -0.0795 -0.5918 -0.0193
 1885SOL    HW112516   3.470   7.028   1.102 -0.8131 -1.2568 -0.3934
 1885SOL    HW212517   3.509   7.118   0.988 -1.7656 -0.7665 -0.3442
 1886SOL     OW12518   4.637   2.403   6.948 -0.5796 -0.3903 -0.0854
 1886SOL    HW112519   4.543   2.388   6.958 -0.6106 -0.1790 -0.0584
 1886SOL    HW212520   4.645   2.451   6.866 -0.5233 -0.1418  0.0642
 1887SOL     OW12521   0.025   7.331   1.025  0.0376  0.0599 -0.4772
 1887SOL    HW112522   0.073   7.261   1.069  0.4544  0.3748 -0.4149
 1887SOL    HW212523  -0.015   7.382   1.095  2.0957  1.5668 -0.2994
 1888SOL     OW12524  12.121  10.343  10.214  0.3762 -0.1545  0.6970
 1888SOL    HW112525  12.098  10.288  10.289  0.4661 -0.2572  0.6493
 1888SOL    HW212526  12.082  10.299  10.139  1.9489 -1.1286  0.4049
 1889SOL     OW12527  11.196   6.568   1.360  0.1600 -0.4916  0.2423
 1889SOL    HW112528  11.164   6.594   1.274 -1.1961 -0.3027  0.7790
 1889SOL    HW212529  11.275   6.517   1.341  0.7246  0.7929 -1.0141
 1890SOL     OW12530  10.205  11.793   0.274 -0.1190 -0.4589 -0.2917
 1890SOL    HW112531  10.296  11.816   0.258  0.0754 -0.4076  0.7893
 1890SOL    HW212532  10.165  11.874   0.306 -0.4882 -0.5360 -0.5583
 1891SOL     OW12533   7.646   8.236  12.062 -0.1928 -0.5006 -0.5279
 1891SOL    HW112534   7.580   8.256  12.129 -0.0589 -0.8412 -0.2927
 1891SOL    HW212535   7.596   8.202  11.988 -0.4222  0.6746 -0.9257
 1892SOL     OW12536   7.168   8.880   3.337  0.3460  0.6958  0.2486
 1892SOL    HW112537   7.143   8.816   3.271 -0.8173  0.5347  0.8139
 1892SOL    HW212538   7.222   8.944   3.290  1.0983 -0.4067 -0.4271
 1893SOL     OW12539   8.655   2.469   8.876  0.1637 -0.2436  0.3917
 1893SOL    HW112540   8.602   2.542   8.908  0.7167  1.0281 -1.4192
 1893SOL    HW212541   8.734   2.472   8.930  1.5283  2.5022 -1.4927
 1894SOL     OW12542   1.084  11.344   9.842 -0.2920  0.1465  0.2591
 1894SOL    HW112543   1.047  11.316   9.758  0.6551  0.1257 -0.1556
 1894SOL    HW212544   1.138  11.271   9.871  0.6781  0.7864  0.0934
 1895SOL     OW12545   6.862  11.067  11.366 -0.7298 -0.5032  0.3961
 1895SOL    HW112546   6.860  11.161  11.381 -1.3889 -0.2517 -1.1131
 1895SOL    HW212547   6.945  11.051  11.322 -1.9887 -0.0860 -2.3167
 1896SOL     OW12548  11.538   2.151   2.199  0.0522 -0.0530 -0.0596
 1896SOL    HW112549  11.450   2.141   2.164 -0.3924  0.6142  0.8073
 1896SOL    HW212550  11.556   2.245   2.193  1.4304 -0.3836 -1.8515
 1897SOL     OW12551  11.986   0.516  10.822  0.3426  0.4072  0.4136
 1897SOL    HW112552  11.924   0.444  10.805  0.9480 -0.3239  1.1868
 1897SOL    HW212553  11.936   0.595  10.803 -0.9438 -0.1469  1.2916
 1898SOL     OW12554  10.823   3.514  10.073 -0.5702  0.0374  0.1532
 1898SOL    HW112555  10.871   3.432  10.060  1.0264  1.1364 -1.4303
 1898SOL    HW212556  10.891   3.581  10.080 -1.7987  1.6055 -1.7033
 1899SOL     OW12557   0.322   0.972   3.615 -0.8467  0.1211  0.3344
 1899SOL    HW112558   0.328   1.031   3.540  1.1003 -1.2599 -0.6716
 1899SOL    HW212559   0.236   0.931   3.607 -1.3364  1.1993 -0.1538
 1900SOL     OW12560   3.125   3.100   5.867  0.0033  0.7122 -0.0143
 1900SOL    HW112561   3.137   3.171   5.930  1.4288 -0.1413  0.7214
 1900SOL    HW212562   3.163   3.134   5.785  2.0536  0.2978  0.7172
 1901SOL     OW12563   6.029   3.315   3.578  0.4048 -0.4988 -0.3676
 1901SOL    HW112564   6.081   3.260   3.636  1.3705  1.0363  0.2937
 1901SOL    HW212565   6.064   3.297   3.490  1.5207 -0.1004 -0.0244
 1902SOL     OW12566   5.182   1.987   5.771 -0.0244  0.0404  0.2449
 1902SOL    HW112567   5.273   2.015   5.768  0.1419 -0.4645  0.3539
 1902SOL    HW212568   5.156   1.982   5.679 -0.2156  1.0148  0.2356
 1903SOL     OW12569   8.432   7.871   3.745  0.2661 -0.3130  0.0673
 1903SOL    HW112570   8.379   7.807   3.698  0.8658 -0.2746 -0.6804
 1903SOL    HW212571   8.367   7.930   3.785 -0.2914  0.1323 -1.3823
 1904SOL     OW12572   5.242   0.295   3.425 -0.3492 -0.4227 -0.0914
 1904SOL    HW112573   5.199   0.297   3.339 -1.7912  1.7509  0.5855
 1904SOL    HW212574   5.169   0.286   3.487  0.6423 -1.6051  0.9432
 1905SOL     OW12575   2.207   2.878   9.445  0.3794  0.7173  0.3238
 1905SOL    HW112576   2.209   2.816   9.372 -0.0916  0.7169  0.3067
 1905SOL    HW212577   2.244   2.829   9.519 -0.8389  0.0857  0.5499
 1906SOL     OW12578   1.253  10.027   8.535  0.3675  0.1234  0.9641
 1906SOL    HW112579   1.279   9.972   8.461 -0.4757  0.4900  0.3664
 1906SOL    HW212580   1.306  10.106   8.526  0.1384  0.2451  0.6239
 1907SOL     OW12581   0.099   2.084   1.476 -0.3477 -0.0475 -0.6677
 1907SOL    HW112582   0.092   1.994   1.507 -1.4287  0.3020  0.1579
 1907SOL    HW212583   0.131   2.076   1.386  0.6728 -1.1893 -0.2199
 1908SOL     OW12584   2.451   8.807   5.797  0.6307 -0.0048  0.0877
 1908SOL    HW112585   2.542   8.816   5.828  0.3661  0.2857  0.7988
 1908SOL    HW212586   2.431   8.714   5.807  0.8267 -0.0598 -0.0167
 1909SOL     OW12587   4.108   2.781  10.397  0.3111  0.1314  0.3444
 1909SOL    HW112588   4.180   2.822  10.445 -1.0297  2.9070  0.2137
 1909SOL    HW212589   4.128   2.799  10.305 -1.3523  2.6632  0.3707
 1910SOL     OW12590   9.894   1.808  10.389 -0.5702 -0.2012  0.4470
 1910SOL    HW112591   9.980   1.783  10.422 -0.3635  2.6428  2.4369
 1910SOL    HW212592   9.908   1.823  10.295  0.9944 -0.1932  0.6598
 1911SOL     OW12593   6.787   6.159   3.036 -0.4261  0.1780 -0.5843
 1911SOL    HW112594   6.804   6.070   3.006 -1.0620 -0.0702 -0.2358
 1911SOL    HW212595   6.873   6.195   3.057 -0.2290 -0.6821  0.1695
 1912SOL     OW12596   6.932  10.856   6.562 -0.4490  0.0064  0.7316
 1912SOL    HW112597   6.967  10.928   6.613 -0.9492 -0.2622  1.4635
 1912SOL    HW212598   6.891  10.898   6.486  0.3889  0.3937  0.4754
 1913SOL     OW12599   2.200  12.013   3.406 -0.4872  0.3863 -0.0206
 1913SOL    HW112600   2.128  12.054   3.359 -0.3262  1.0432  0.3033
 1913SOL    HW212601   2.208  11.926   3.366 -1.2625  0.4154 -0.2551
 1914SOL     OW12602  10.310   0.037   6.087  0.1232 -0.1028 -0.3616
 1914SOL    HW112603  10.319  -0.040   6.031 -0.0650  0.2570 -0.8935
 1914SOL    HW212604  10.251   0.009   6.157 -0.3377 -0.3021 -0.8209
 1915SOL     OW12605   1.094   3.456   5.739 -0.3702  0.2807  0.1318
 1915SOL    HW112606   1.065   3.545   5.718 -1.1981 -0.1197 -0.4924
 1915SOL    HW212607   1.091   3.452   5.835  1.5565  1.5167  0.2826
 1916SOL     OW12608   4.820   3.586  12.296 -0.2887  0.6784 -0.4410
 1916SOL    HW112609   4.782   3.597  12.383 -1.8402  1.1313 -1.1229
 1916SOL    HW212610   4.878   3.662  12.285  0.9394 -0.0657  0.6572
 1917SOL     OW12611   1.445   9.908  10.240 -0.6273 -0.0599  0.0751
 1917SOL    HW112612   1.498   9.974  10.284 -1.1978  0.8296 -0.5370
 1917SOL    HW212613   1.355   9.927  10.269 -1.0548  0.7177 -1.6213
 1918SOL     OW12614   4.944   4.874  12.326 -0.3739 -0.0800  0.0974
 1918SOL    HW112615   4.949   4.885  12.231 -0.1223  0.0701  0.1248
 1918SOL    HW212616   5.033   4.895  12.357 -0.9637  1.9444  0.5733
 1919SOL     OW12617   8.764   8.371   7.429  0.1684  0.5803 -0.5309
 1919SOL    HW112618   8.672   8.344   7.435  0.3176 -0.0624 -1.0428
 1919SOL    HW212619   8.761   8.466   7.421 -0.3418  0.8934  2.2650
 1920SOL     OW12620   0.633  11.047   5.470  0.0011  0.3293  0.4926
 1920SOL    HW112621   0.548  11.054   5.515  1.3816  0.1076  3.3790
 1920SOL    HW212622   0.612  11.057   5.378 -3.2405 -0.3404  1.0325
 1921SOL     OW12623   8.889   9.347   2.158 -0.1897 -0.2961  0.0072
 1921SOL    HW112624   8.824   9.342   2.228 -1.6361  0.3310 -1.2335
 1921SOL    HW212625   8.956   9.282   2.182 -0.5008  0.0713  2.0660
 1922SOL     OW12626   1.145   6.192   6.126  0.2465  0.0156 -0.1599
 1922SOL    HW112627   1.090   6.195   6.205 -0.8221 -0.0455 -0.8827
 1922SOL    HW212628   1.105   6.255   6.066  2.2635  1.6068  0.0727
 1923SOL     OW12629   1.598   0.656  12.209  0.0709  0.2718 -0.0563
 1923SOL    HW112630   1.534   0.603  12.256  1.3925  0.3720  1.9526
 1923SOL    HW212631   1.658   0.592  12.170 -1.2648  0.1695 -2.0984
 1924SOL     OW12632  12.119   7.174  10.304  0.7634 -0.1156  0.2939
 1924SOL    HW112633  12.202   7.192  10.347  2.4598 -2.0965 -1.8712
 1924SOL    HW212634  12.110   7.079  10.307  0.1315 -0.1944 -2.1163
 1925SOL     OW12635   1.467   6.275   5.750 -0.5184  0.3017  0.5894
 1925SOL    HW112636   1.469   6.211   5.821  2.7029  0.9019  1.1819
 1925SOL    HW212637   1.421   6.350   5.788  0.5787  0.3688  1.8655
 1926SOL     OW12638   6.365   6.343  11.075 -0.1451  0.5436  0.0906
 1926SOL    HW112639   6.281   6.298  11.071  0.3328 -0.3291 -0.5214
 1926SOL    HW212640   6.345   6.433  11.050 -0.8904  0.3335 -0.0936
 1927SOL     OW12641   9.194   7.701  10.221 -0.9120  0.3283 -0.5242
 1927SOL    HW112642   9.137   7.640  10.174 -1.2039  0.1356  0.0714
 1927SOL    HW212643   9.276   7.701  10.171 -0.4117 -1.5916  0.2054
 1928SOL     OW12644   4.495  10.705  12.318 -0.0728 -0.6471  0.5259
 1928SOL    HW112645   4.444  10.776  12.279  0.3430 -0.3405  0.5247
 1928SOL    HW212646   4.488  10.720  12.413  1.0666  0.1706  0.5006
 1929SOL     OW12647   3.552   2.588  11.863 -0.2165  0.0741  0.2410
 1929SOL    HW112648   3.486   2.530  11.826 -2.5619  2.7034  0.0265
 1929SOL    HW212649   3.557   2.563  11.955  0.3717 -1.7287 -0.2228
 1930SOL     OW12650   2.998   0.797   0.943 -0.4283  0.3150 -0.6098
 1930SOL    HW112651   3.046   0.864   0.991 -0.8825  0.2134 -0.0002
 1930SOL    HW212652   3.048   0.785   0.862  1.7199 -1.2011  0.8229
 1931SOL     OW12653   4.834   3.321   6.718  0.4668 -0.3251 -0.7235
 1931SOL    HW112654   4.925   3.329   6.690  0.5849  0.4128 -0.1654
 1931SOL    HW212655   4.787   3.296   6.638  1.1524 -0.7512 -1.0091
 1932SOL     OW12656   2.920   2.117   0.391 -0.3787 -0.6652  0.2821
 1932SOL    HW112657   2.918   2.208   0.361  0.9815 -0.8026 -0.2958
 1932SOL    HW212658   2.897   2.065   0.314  0.6125 -0.8871  0.1179
 1933SOL     OW12659   2.903  10.289   9.374  0.1783  0.4331  0.5819
 1933SOL    HW112660   2.949  10.364   9.336  2.1490  0.2493  2.3917
 1933SOL    HW212661   2.840  10.329   9.435 -0.8784  0.6448 -0.6143
 1934SOL     OW12662   6.669  11.640   3.687  0.3250 -0.0117 -0.1005
 1934SOL    HW112663   6.736  11.637   3.756 -0.4237 -0.7817  0.6278
 1934SOL    HW212664   6.604  11.701   3.720  0.5976  0.6354 -0.7478
 1935SOL     OW12665   4.544   2.944  12.329 -0.0483  0.0422 -0.6968
 1935SOL    HW112666   4.590   2.878  12.382 -0.2078 -0.2781 -0.9593
 1935SOL    HW212667   4.474   2.975  12.386 -0.9396 -1.1363 -1.1247
 1936SOL     OW12668   2.620   3.402   2.891  0.3820 -0.5353  0.0372
 1936SOL    HW112669   2.653   3.469   2.831 -0.0972  0.0619  0.4241
 1936SOL    HW212670   2.528   3.427   2.906  1.2076  1.1478  3.3766
 1937SOL     OW12671  11.845   7.497   6.433 -0.1302 -0.2181 -0.2755
 1937SOL    HW112672  11.865   7.588   6.455  0.3523 -0.3291 -0.2297
 1937SOL    HW212673  11.790   7.503   6.355 -0.5251  0.1258  0.0253
 1938SOL     OW12674   5.929  11.051   8.816 -0.0196  0.2614  0.4154
 1938SOL    HW112675   5.907  11.143   8.810  0.7983  0.5378  1.3557
 1938SOL    HW212676   6.008  11.048   8.872  0.6956 -0.8849 -0.5918
 1939SOL     OW12677   9.256   1.391  11.856 -0.2292  0.1443 -0.6113
 1939SOL    HW112678   9.290   1.451  11.789 -1.3456  1.3716 -0.1150
 1939SOL    HW212679   9.324   1.389  11.923  0.1657  0.2168 -1.0024
 1940SOL     OW12680   5.745   7.081   5.466  0.0522 -0.4970 -0.4044
 1940SOL    HW112681   5.722   7.065   5.374 -0.9411 -2.2933  0.1110
 1940SOL    HW212682   5.669   7.049   5.515  0.5330  0.5187  1.0540
 1941SOL     OW12683   2.755   1.966  10.873 -0.1809 -0.4250 -0.5456
 1941SOL    HW112684   2.801   2.041  10.909 -0.2476 -0.0297 -1.2680
 1941SOL    HW212685   2.809   1.890  10.896  0.3601 -0.0600 -0.6051
 1942SOL     OW12686   5.427   0.923   9.140 -0.0189 -0.8466  0.1350
 1942SOL    HW112687   5.333   0.902   9.144 -0.2033 -0.8380 -2.5411
 1942SOL    HW212688   5.465   0.878   9.215 -1.9452 -2.1296  0.4112
 1943SOL     OW12689   1.221  11.796   1.145 -0.3855  0.5156 -0.1056
 1943SOL    HW112690   1.172  11.749   1.213  0.1543 -0.1732 -0.1898
 1943SOL    HW212691   1.252  11.875   1.189  0.4482 -0.1991  0.6241
 1944SOL     OW12692   9.824   8.268   3.233  0.2928 -0.1086  0.4451
 1944SOL    HW112693   9.786   8.195   3.282 -0.3974 -0.1041 -0.0746
 1944SOL    HW212694   9.749   8.316   3.199  0.7520 -0.4844 -1.1804
 1945SOL     OW12695   0.090   7.125   7.036 -0.0974  0.2502 -0.3376
 1945SOL    HW112696   0.063   7.165   7.119  1.3088 -0.2516  0.3983
 1945SOL    HW212697   0.060   7.186   6.969  0.4326  1.6475  0.6589
 1946SOL     OW12698   8.161   8.815   5.560 -0.1128 -0.0652 -0.0554
 1946SOL    HW112699   8.186   8.723   5.550 -1.3783 -0.3222 -1.1786
 1946SOL    HW212700   8.126   8.839   5.475 -1.2858  0.9798  0.6911
 1947SOL     OW12701   9.529   4.966   2.561  0.1114 -0.0517 -0.1573
 1947SOL    HW112702   9.586   4.894   2.588  0.8960  0.8213  0.5438
 1947SOL    HW212703   9.561   4.991   2.475  0.0598 -0.3034 -0.2510
 1948SOL     OW12704  10.991   8.505  12.039 -0.5992 -0.1467  0.3810
 1948SOL    HW112705  10.901   8.489  12.068 -0.7212 -1.7050 -0.7110
 1948SOL    HW212706  10.986   8.580  11.981 -1.3951 -0.8317 -0.4636
 1949SOL     OW12707   1.211   8.413   6.279 -0.7884 -0.1897  0.3920
 1949SOL    HW112708   1.117   8.394   6.282 -0.5702 -1.4577 -0.0999
 1949SOL    HW212709   1.235   8.400   6.187  0.3584 -2.6003  0.9514
 1950SOL     OW12710   2.635   3.501   0.347  0.0533  0.3932 -0.5035
 1950SOL    HW112711   2.709   3.551   0.313  0.5489 -0.0613 -0.0876
 1950SOL    HW212712   2.651   3.495   0.441 -0.8321  0.8276 -0.3114
 1951SOL     OW12713   3.236   6.983  10.687  0.2308  0.2290 -0.5382
 1951SOL    HW112714   3.273   7.072  10.688  1.8967 -0.4154  0.3980
 1951SOL    HW212715   3.146   6.994  10.717  0.2219  1.6692 -1.0222
 1952SOL     OW12716  10.843   7.640   3.639  0.1123 -0.3008 -0.3704
 1952SOL    HW112717  10.823   7.730   3.664  1.0967  0.1048 -0.9732
 1952SOL    HW212718  10.762   7.592   3.655  0.4664  0.0226  2.9317
 1953SOL     OW12719  11.653   9.203   2.595  0.3887 -0.4466 -0.3236
 1953SOL    HW112720  11.605   9.141   2.540 -0.0896 -0.2355 -0.1535
 1953SOL    HW212721  11.612   9.287   2.578  1.1470 -0.1387 -0.6808
 1954SOL     OW12722  12.445   4.497   9.916  0.0667  0.1938  0.1032
 1954SOL    HW112723  12.481   4.571   9.964  1.8880 -1.5675  1.6067
 1954SOL    HW212724  12.399   4.446   9.982  0.4285 -0.9548 -0.5130
 1955SOL     OW12725   9.344   7.444   8.720 -0.4929 -0.4402 -0.0770
 1955SOL    HW112726   9.322   7.355   8.692  0.2858 -1.5235  2.4816
 1955SOL    HW212727   9.417   7.432   8.781 -0.1977  1.9983  0.1294
 1956SOL     OW12728   0.703   8.758   2.963 -0.6149 -0.4588  0.7353
 1956SOL    HW112729   0.661   8.806   2.891  1.5480  1.2316  0.4919
 1956SOL    HW212730   0.690   8.666   2.942  1.2890 -0.1105 -2.7871
 1957SOL     OW12731   1.100   4.993   7.141 -0.4727  0.7210  0.0468
 1957SOL    HW112732   1.020   5.004   7.193 -0.6543 -1.7207  0.4050
 1957SOL    HW212733   1.168   4.973   7.205 -0.4804 -1.2842 -0.5047
 1958SOL     OW12734  11.872   0.779   8.353  0.7264  0.4358 -0.3013
 1958SOL    HW112735  11.777   0.775   8.365  0.8096  1.8043  0.9642
 1958SOL    HW212736  11.887   0.735   8.269 -0.8768 -0.9496  0.0883
 1959SOL     OW12737   5.740  11.547   8.106  0.0099 -0.1076  0.0644
 1959SOL    HW112738   5.651  11.535   8.140  0.1102  0.4907  0.5453
 1959SOL    HW212739   5.735  11.515   8.016 -0.7729  0.1925 -0.0059
 1960SOL     OW12740  11.947   7.325   1.953  0.1419 -0.1549 -0.2609
 1960SOL    HW112741  11.904   7.302   2.035  1.8588 -1.4699  0.3243
 1960SOL    HW212742  12.024   7.268   1.949  2.2157  2.5033 -0.9477
 1961SOL     OW12743  12.054   5.899  10.713 -0.1985 -0.4023 -0.0999
 1961SOL    HW112744  11.996   5.925  10.784 -0.2383  0.1632 -0.3377
 1961SOL    HW212745  12.089   5.981  10.678 -0.1863 -0.6711 -0.7408
 1962SOL     OW12746   8.325   8.174  10.035 -0.7062 -0.4060 -0.0192
 1962SOL    HW112747   8.267   8.180  10.111 -0.0654  0.8246  0.4119
 1962SOL    HW212748   8.413   8.190  10.070 -0.5532  1.8385 -1.1842
 1963SOL     OW12749   6.567   5.284  10.994 -0.1966 -0.0406  0.0029
 1963SOL    HW112750   6.499   5.244  11.048 -1.1908  0.2415 -1.0050
 1963SOL    HW212751   6.519   5.328  10.923  1.0109  0.5598 -0.4728
 1964SOL     OW12752  11.359  11.132  10.994 -0.3865 -0.1316 -0.1670
 1964SOL    HW112753  11.270  11.155  11.018  0.3964  1.1283  1.7131
 1964SOL    HW212754  11.380  11.056  11.050 -0.2698 -0.4366 -0.6169
 1965SOL     OW12755   6.846   0.734   2.237  0.4524 -0.2133 -0.0925
 1965SOL    HW112756   6.822   0.767   2.324  3.4495  1.1576  0.3517
 1965SOL    HW212757   6.852   0.812   2.183  0.0841 -0.9071 -1.1594
 1966SOL     OW12758   6.518   4.223   4.807 -0.2908 -0.1800  0.2341
 1966SOL    HW112759   6.597   4.183   4.844  0.2619 -1.0378 -1.7188
 1966SOL    HW212760   6.464   4.246   4.882  1.1885 -0.9192  1.5616
 1967SOL     OW12761  10.175  11.166  11.885  0.0716 -0.0014 -0.0113
 1967SOL    HW112762  10.146  11.176  11.976  0.7435 -0.7475  0.3072
 1967SOL    HW212763  10.271  11.172  11.890  0.0361  2.2223 -0.9978
 1968SOL     OW12764  10.110  12.229   7.851  0.1463 -0.5859 -0.4922
 1968SOL    HW112765  10.025  12.206   7.814 -0.5675 -0.7926  1.1599
 1968SOL    HW212766  10.088  12.288   7.924  1.6028  1.3783 -1.5671
 1969SOL     OW12767  10.892   9.825   8.331 -0.0658  0.4619 -0.6819
 1969SOL    HW112768  10.807   9.809   8.373  0.1416 -0.4454 -0.6009
 1969SOL    HW212769  10.954   9.772   8.380  0.1195 -0.9609 -2.3528
 1970SOL     OW12770   4.300   9.188  11.736  0.0838  0.4547 -0.0808
 1970SOL    HW112771   4.374   9.177  11.796 -0.6830  0.4433  0.8840
 1970SOL    HW212772   4.238   9.241  11.785 -1.6235 -1.6032  0.1172
 1971SOL     OW12773   0.011   8.156   9.632 -0.5949  0.0147 -0.3443
 1971SOL    HW112774   0.067   8.223   9.672 -0.0100 -0.7773  0.1860
 1971SOL    HW212775  -0.062   8.146   9.694  0.1327 -0.9611  0.3878
 1972SOL     OW12776   4.443   8.849   0.770  0.1663  0.4841 -0.2730
 1972SOL    HW112777   4.464   8.926   0.718 -0.0845  3.3139  3.4133
 1972SOL    HW212778   4.520   8.793   0.763  1.1611  1.9458 -1.5521
 1973SOL     OW12779  10.572   4.014   7.666 -0.2467 -0.6372  0.5363
 1973SOL    HW112780  10.661   3.985   7.688 -1.3279 -3.4611  1.6326
 1973SOL    HW212781  10.539   3.946   7.606 -1.9964 -0.1968  0.9632
 1974SOL     OW12782   2.957   7.740   2.687  0.5911  0.1115  0.4133
 1974SOL    HW112783   2.871   7.781   2.690 -0.2431 -1.1460 -2.5505
 1974SOL    HW212784   3.017   7.807   2.722 -1.1767  2.3404 -0.5818
 1975SOL     OW12785   5.372  12.037   4.827 -0.4147 -0.4611  0.4346
 1975SOL    HW112786   5.395  12.120   4.785  3.4079 -1.5417  0.0884
 1975SOL    HW212787   5.296  12.006   4.777  0.2289  1.1792 -1.7213
 1976SOL     OW12788   8.610  11.470  10.463  0.0154  0.1569  0.5161
 1976SOL    HW112789   8.535  11.527  10.480  1.8161  3.0239 -0.4987
 1976SOL    HW212790   8.661  11.473  10.543 -0.4510 -1.0935  0.8917
 1977SOL     OW12791   6.620   8.148   7.053 -0.4606 -0.1009 -0.3764
 1977SOL    HW112792   6.556   8.181   6.990 -0.2788 -1.2500 -1.2113
 1977SOL    HW212793   6.645   8.062   7.018  0.4610 -0.2933  0.6988
 1978SOL     OW12794   8.386  10.570  10.469 -0.3837  0.0840  0.2648
 1978SOL    HW112795   8.327  10.519  10.522  2.1901 -2.6598  0.7578
 1978SOL    HW212796   8.398  10.652  10.518 -1.7498 -0.3583  1.3963
 1979SOL     OW12797   5.751  11.545   2.164 -0.5447 -0.4083  0.3824
 1979SOL    HW112798   5.818  11.603   2.199 -1.8608  1.0015  0.6427
 1979SOL    HW212799   5.704  11.512   2.240 -1.3215  0.0761  0.1239
 1980SOL     OW12800   4.005   5.713   2.958 -0.1477  0.3053  0.5933
 1980SOL    HW112801   4.065   5.786   2.974 -0.9521  1.0076  0.4768
 1980SOL    HW212802   3.923   5.739   2.999 -1.3252  0.7743 -1.8883
 1981SOL     OW12803   8.327   8.105   8.761 -0.2818  0.5139 -0.6817
 1981SOL    HW112804   8.303   8.065   8.844 -0.4290  0.1156 -0.9093
 1981SOL    HW212805   8.286   8.191   8.762  1.9184  1.6227  0.7962
 1982SOL     OW12806   3.019   7.617   5.509  0.4479 -0.5730 -0.1595
 1982SOL    HW112807   3.103   7.604   5.553 -0.3158 -1.0991  1.1855
 1982SOL    HW212808   2.993   7.530   5.480  1.3937 -0.1314 -2.6354
 1983SOL     OW12809   6.360   2.466   0.891  0.3949  0.5349  0.8212
 1983SOL    HW112810   6.383   2.511   0.973 -0.3748  1.1915  0.6901
 1983SOL    HW212811   6.336   2.378   0.917 -0.0539  0.8053  1.3345
 1984SOL     OW12812   0.472   0.038   2.825 -0.1375  0.4772  0.1595
 1984SOL    HW112813   0.479  -0.013   2.906 -0.4176 -1.3289 -0.9085
 1984SOL    HW212814   0.536  -0.002   2.766  0.9181  2.5185 -0.1742
 1985SOL     OW12815   6.781   6.510  12.086  1.0106 -0.0482  0.1541
 1985SOL    HW112816   6.787   6.537  11.994  0.8924  0.3598  0.2637
 1985SOL    HW212817   6.702   6.554  12.118  0.5810 -0.8655  0.2239
 1986SOL     OW12818   9.788   2.343   2.297  0.7833  0.4828 -0.2912
 1986SOL    HW112819   9.775   2.277   2.229  0.8344  0.3726 -0.1940
 1986SOL    HW212820   9.770   2.298   2.379 -0.0773  0.8284 -0.2749
 1987SOL     OW12821   9.307   6.044   3.178  0.2188  0.1029 -0.2953
 1987SOL    HW112822   9.241   5.998   3.127  0.9085 -1.5053  0.1763
 1987SOL    HW212823   9.379   5.981   3.185  1.1772  1.2415  0.4789
 1988SOL     OW12824   7.951   3.546   1.141  0.1511  0.6353 -0.0304
 1988SOL    HW112825   7.989   3.475   1.192  0.3012  0.6544 -0.1156
 1988SOL    HW212826   7.906   3.501   1.069  0.9161  0.6591 -0.5338
 1989SOL     OW12827  12.018  11.618   9.242  0.2975  0.6501  0.2793
 1989SOL    HW112828  11.931  11.617   9.281  0.1734 -0.5372 -0.0116
 1989SOL    HW212829  12.076  11.587   9.312  0.3489  0.4403  0.1428
 1990SOL     OW12830  10.418  11.864   8.774  0.5480  0.0765  0.7971
 1990SOL    HW112831  10.341  11.920   8.771  0.8892  0.5111  0.0924
 1990SOL    HW212832  10.404  11.801   8.704  0.2068 -0.6884  1.5290
 1991SOL     OW12833  12.211   6.257  12.097  0.7353 -0.2166  0.3548
 1991SOL    HW112834  12.174   6.172  12.124 -2.7261  0.5619 -1.3404
 1991SOL    HW212835  12.233   6.300  12.180  1.1350 -2.1613  1.3198
 1992SOL     OW12836   9.568   7.444   3.724  0.4862 -0.2995 -0.3337
 1992SOL    HW112837   9.640   7.481   3.674 -0.8159  1.5715 -0.9526
 1992SOL    HW212838   9.517   7.395   3.660 -0.1469  0.5252 -0.4899
 1993SOL     OW12839   8.256   6.166   3.627  0.1002 -0.6567  0.7478
 1993SOL    HW112840   8.337   6.117   3.613 -0.1037 -0.9383  0.5501
 1993SOL    HW212841   8.218   6.175   3.540  0.4842  0.4675  0.6773
 1994SOL     OW12842   1.885   0.625   1.187  0.3383 -0.2140 -0.0281
 1994SOL    HW112843   1.905   0.701   1.240 -1.5023 -0.0677  0.5447
 1994SOL    HW212844   1.966   0.575   1.184  1.2644  1.1953  0.5223
 1995SOL     OW12845   9.055  10.437   3.024 -0.2208 -0.0530 -0.4329
 1995SOL    HW112846   9.062  10.531   3.006 -2.1688  0.1843 -0.2065
 1995SOL    HW212847   9.033  10.433   3.117  1.2760 -0.8451 -0.0761
 1996SOL     OW12848  10.488   7.700   9.808 -0.1240  0.1252  0.5030
 1996SOL    HW112849  10.475   7.790   9.779 -0.5518  0.5470  1.9150
 1996SOL    HW212850  10.400   7.662   9.806 -0.1964  0.2316  1.4392
 1997SOL     OW12851   6.530   2.291  11.666  0.0486 -0.5175  0.4531
 1997SOL    HW112852   6.582   2.213  11.645 -1.4753 -1.5016  0.0984
 1997SOL    HW212853   6.488   2.270  11.750 -0.6839 -0.2655  0.1595
 1998SOL     OW12854   3.411   2.937   9.211  0.5162  0.1613 -0.0083
 1998SOL    HW112855   3.389   2.958   9.302 -0.1925 -0.1051 -0.1112
 1998SOL    HW212856   3.411   3.022   9.167 -0.1267  0.1925  0.0404
 1999SOL     OW12857   3.676   2.334  11.151 -0.6472  0.0175  0.3465
 1999SOL    HW112858   3.748   2.390  11.121 -0.0376 -1.4079 -0.9570
 1999SOL    HW212859   3.652   2.370  11.236  0.5956  1.4464  0.1385
 2000SOL     OW12860   8.189   4.468  11.601 -0.7545  0.0630 -0.0473
 2000SOL    HW112861   8.240   4.542  11.636 -1.1986 -0.6782  2.3837
 2000SOL    HW212862   8.184   4.485  11.507  1.9781  1.3775 -0.0682
 2001SOL     OW12863  10.159   9.155  11.909 -0.1610  0.4692  0.2866
 2001SOL    HW112864  10.216   9.084  11.940 -1.8096 -0.9273  0.2687
 2001SOL    HW212865  10.112   9.184  11.986 -0.2292  0.8684  0.1005
 2002SOL     OW12866   5.259   1.414   1.948  0.4125 -1.2046 -0.2807
 2002SOL    HW112867   5.261   1.350   2.019  0.0831 -1.4605 -0.4963
 2002SOL    HW212868   5.260   1.499   1.992  2.4345 -1.3147 -0.0217
 2003SOL     OW12869   3.335   4.124   0.847 -0.1011 -0.2625 -0.4713
 2003SOL    HW112870   3.248   4.110   0.809 -0.4963  0.4278  0.1478
 2003SOL    HW212871   3.322   4.112   0.941  0.3265  0.4778 -0.3078
 2004SOL     OW12872   3.334   1.874   0.721  0.6345  0.0577  0.3245
 2004SOL    HW112873   3.406   1.896   0.662  1.1660 -1.2464  0.4475
 2004SOL    HW212874   3.376   1.824   0.792 -0.0989  0.9663  1.4288
 2005SOL     OW12875   6.921   8.947   4.020 -0.3586  0.6013  0.1341
 2005SOL    HW112876   6.974   8.882   4.066  0.6195 -0.2756 -2.0678
 2005SOL    HW212877   6.871   8.895   3.956 -2.5773  1.6167  0.9428
 2006SOL     OW12878   0.155   3.297  10.477  0.3636 -0.3697  0.8432
 2006SOL    HW112879   0.191   3.213  10.506  1.8884 -0.1027 -0.1276
 2006SOL    HW212880   0.088   3.273  10.413 -0.5940 -0.8604  1.9817
 2007SOL     OW12881  10.945  10.530   9.005 -0.3834  0.0822 -0.1333
 2007SOL    HW112882  10.971  10.518   8.913 -1.5517  0.5410 -0.5492
 2007SOL    HW212883  11.018  10.577   9.044  0.2000 -0.2512 -0.7928
 2008SOL     OW12884  12.433   2.546  10.408 -0.2347 -0.3794  0.2981
 2008SOL    HW112885  12.368   2.506  10.466 -0.0211 -1.4634 -0.1781
 2008SOL    HW212886  12.382   2.597  10.346 -0.5235  0.0669  0.8965
 2009SOL     OW12887   3.255   8.158   6.688  0.2828 -0.5245  0.1094
 2009SOL    HW112888   3.242   8.195   6.601  0.2105  2.0778  1.1304
 2009SOL    HW212889   3.168   8.153   6.726  0.5867  2.1418  1.3748
 2010SOL     OW12890  10.155   8.511  10.327  0.4164  0.0872  0.0516
 2010SOL    HW112891  10.214   8.564  10.275  4.0389 -2.4603  1.1046
 2010SOL    HW212892  10.105   8.460  10.263 -1.3654  2.8026 -0.8859
 2011SOL     OW12893  11.811   7.243   1.588 -0.2140 -0.4964 -0.1290
 2011SOL    HW112894  11.847   7.246   1.499  0.3166 -1.3047  0.0456
 2011SOL    HW212895  11.855   7.315   1.634 -1.7985  1.0810 -0.9615
 2012SOL     OW12896  11.966   3.248  11.435 -0.3596  0.0605 -0.0738
 2012SOL    HW112897  12.016   3.174  11.469  1.3306 -0.0655 -2.6055
 2012SOL    HW212898  11.988   3.320  11.494  0.2053 -0.7685  0.7619
 2013SOL     OW12899   9.088   2.094   2.213  0.0117 -0.3106 -0.1373
 2013SOL    HW112900   9.164   2.102   2.271 -0.4702  0.9281  0.3650
 2013SOL    HW212901   9.111   2.145   2.135  0.5709 -1.7975 -0.9715
 2014SOL     OW12902   3.735   7.678   8.013 -0.2336  0.1589  0.2697
 2014SOL    HW112903   3.809   7.647   7.961 -0.7506  0.0974 -0.4464
 2014SOL    HW212904   3.775   7.734   8.080  0.4244  0.4948 -0.3843
 2015SOL     OW12905   9.705   4.366   6.042  0.0885  0.1568 -0.3785
 2015SOL    HW112906   9.730   4.274   6.039  1.2931  0.3580  1.4568
 2015SOL    HW212907   9.642   4.372   6.114 -1.0846  0.5749 -1.4005
 2016SOL     OW12908   8.644   2.150   9.385  0.3729  0.5654 -0.7527
 2016SOL    HW112909   8.671   2.241   9.402  1.4407  0.3502 -1.2251
 2016SOL    HW212910   8.720   2.098   9.409 -0.6432 -0.3341  0.6849
 2017SOL     OW12911   1.021   2.722  10.097  0.0431  0.1187  0.2284
 2017SOL    HW112912   1.088   2.787  10.121  0.5412 -0.1410 -0.4245
 2017SOL    HW212913   1.047   2.693  10.009  1.0592 -2.5171  1.3044
 2018SOL     OW12914   1.650   4.846   2.791 -0.2221  0.0594  0.2764
 2018SOL    HW112915   1.573   4.798   2.822  0.1301 -0.5217  0.2736
 2018SOL    HW212916   1.622   4.885   2.708  0.0563 -1.7932 -0.7479
 2019SOL     OW12917  10.955   5.134  10.195  0.3768 -0.2756  0.5721
 2019SOL    HW112918  10.946   5.214  10.247  0.6725 -0.2194  0.5388
 2019SOL    HW212919  10.867   5.096  10.193  0.5632 -0.8606  2.0673
 2020SOL     OW12920  11.782  10.679   6.777  0.0156  0.0176  0.4363
 2020SOL    HW112921  11.824  10.592   6.778 -0.6979 -0.3882  2.7788
 2020SOL    HW212922  11.689  10.661   6.787 -0.2348  1.0435  0.0706
 2021SOL     OW12923   3.458  10.688   8.842  0.2761  0.5942  0.0453
 2021SOL    HW112924   3.490  10.755   8.902  0.1072  1.5235 -0.8689
 2021SOL    HW212925   3.365  10.708   8.831  0.0267 -0.3113  0.4152
 2022SOL     OW12926   9.607   8.659   3.000 -0.0446 -0.2059  0.3985
 2022SOL    HW112927   9.598   8.564   2.996 -0.6719 -0.1063 -1.0950
 2022SOL    HW212928   9.640   8.676   3.088 -2.4115 -1.6004  1.6462
 2023SOL     OW12929   8.832  10.545   3.496 -0.2315 -0.0961 -0.2225
 2023SOL    HW112930   8.863  10.499   3.418  1.4119  0.7273 -0.0910
 2023SOL    HW212931   8.827  10.636   3.470 -0.6477  0.0480  0.3472
 2024SOL     OW12932   5.112   3.004   9.887 -0.0989 -0.4174 -0.3314
 2024SOL    HW112933   5.031   3.003   9.937  1.0882 -1.6498  1.7114
 2024SOL    HW212934   5.122   2.915   9.854  0.6096 -0.3968 -0.2067
 2025SOL     OW12935   4.856   7.087   5.365  0.1212  0.1004 -0.1025
 2025SOL    HW112936   4.806   7.021   5.412 -0.9319  0.1622 -1.0729
 2025SOL    HW212937   4.946   7.057   5.369 -0.1722 -0.7227  0.5668
 2026SOL     OW12938  12.269  11.136   0.618  0.1478 -0.1018  0.4291
 2026SOL    HW112939  12.229  11.187   0.689  1.8255  0.3842  1.0628
 2026SOL    HW212940  12.361  11.160   0.620  0.7793 -2.2917 -0.0279
 2027SOL     OW12941   6.893  10.241   4.424 -0.2876 -0.3682 -0.0820
 2027SOL    HW112942   6.798  10.249   4.417 -0.1532  0.1340 -1.9723
 2027SOL    HW212943   6.907  10.155   4.461 -1.4873  0.1028  1.5675
 2028SOL     OW12944   0.543   2.078   4.522 -0.1665  0.1255 -0.3597
 2028SOL    HW112945   0.546   1.989   4.487 -1.5931 -0.9195  1.8955
 2028SOL    HW212946   0.465   2.117   4.483 -1.4889 -0.8681  1.1715
 2029SOL     OW12947   9.288  10.362   7.063  0.2019 -0.6837 -0.0384
 2029SOL    HW112948   9.252  10.425   7.126  1.5974  0.6013 -0.4677
 2029SOL    HW212949   9.213  10.336   7.010 -0.3885  0.7858  0.0350
 2030SOL     OW12950   0.831   5.726  11.871 -0.5936  0.0423  0.2294
 2030SOL    HW112951   0.842   5.633  11.890 -1.4413 -0.6478 -2.2923
 2030SOL    HW212952   0.737   5.737  11.860 -0.4320  1.0381 -0.2461
 2031SOL     OW12953   3.291  12.385   8.512 -0.0004  0.1916 -0.0733
 2031SOL    HW112954   3.201  12.413   8.526 -0.6326 -1.3635 -0.8536
 2031SOL    HW212955   3.307  12.318   8.579 -0.1168 -0.9870 -1.2027
 2032SOL     OW12956   4.282  10.608   5.172  0.0783  0.8602  0.2202
 2032SOL    HW112957   4.297  10.664   5.248  0.7745  1.0148 -0.0250
 2032SOL    HW212958   4.227  10.537   5.206  1.4711  0.2006  1.2035
 2033SOL     OW12959   7.887   6.937   2.979 -0.2334 -0.2356 -0.0927
 2033SOL    HW112960   7.952   6.867   2.972 -0.4346 -0.3567 -0.8376
 2033SOL    HW212961   7.934   7.017   2.956 -0.9076 -0.6347 -3.4723
 2034SOL     OW12962   2.088   9.359  12.195  0.5455  0.6552  0.7969
 2034SOL    HW112963   2.143   9.293  12.236  0.4351  0.8542  1.2761
 2034SOL    HW212964   2.012   9.366  12.253  0.0810  0.4720  0.2084
 2035SOL     OW12965   3.526   6.560   0.191 -0.3334 -0.2327  0.3528
 2035SOL    HW112966   3.547   6.514   0.110  2.4329  3.3341 -1.2228
 2035SOL    HW212967   3.436   6.591   0.178 -0.0503  0.0106 -1.2558
 2036SOL     OW12968  11.193   7.667   5.350  0.1827 -0.4660 -0.5148
 2036SOL    HW112969  11.158   7.753   5.370 -1.5856 -1.4657  0.9157
 2036SOL    HW212970  11.197   7.665   5.254  1.9856  1.8067 -0.5627
 2037SOL     OW12971   3.506   7.429   2.047 -0.1554  0.7608 -0.0250
 2037SOL    HW112972   3.585   7.461   2.004  0.9083 -0.7638  0.7155
 2037SOL    HW212973   3.489   7.493   2.116  0.9150  0.6921  0.3175
 2038SOL     OW12974   8.649   6.679   1.020 -0.0649 -0.0239 -0.0359
 2038SOL    HW112975   8.595   6.700   0.944 -0.8100 -1.4966  0.0655
 2038SOL    HW212976   8.692   6.597   0.997 -1.0342 -1.0029  1.4846
 2039SOL     OW12977   3.512  10.732   2.556 -0.8742  0.5867  0.2195
 2039SOL    HW112978   3.522  10.638   2.569  0.9181  0.7361  0.1318
 2039SOL    HW212979   3.531  10.746   2.463  0.4842  1.2048  0.5691
 2040SOL     OW12980   9.948   5.671   8.731  0.1833  0.3188  0.2491
 2040SOL    HW112981   9.970   5.594   8.784 -0.2528 -0.6202 -0.8957
 2040SOL    HW212982   9.966   5.644   8.641 -0.9385  1.2115 -0.2669
 2041SOL     OW12983   8.036   6.548  11.384 -0.3741 -0.9387 -0.1459
 2041SOL    HW112984   8.118   6.585  11.351  0.3285 -1.6674  0.7258
 2041SOL    HW212985   8.062   6.493  11.457 -1.6287 -1.3767  0.0025
 2042SOL     OW12986  10.647   2.399   8.247 -0.6218 -0.4541 -0.3061
 2042SOL    HW112987  10.647   2.326   8.308  1.2025  0.0263  0.3505
 2042SOL    HW212988  10.600   2.367   8.170  0.9264 -2.6908 -0.4303
 2043SOL     OW12989   6.850   8.823  10.783  0.4411  0.0551  0.0300
 2043SOL    HW112990   6.934   8.808  10.826  0.3107  0.1707  0.3291
 2043SOL    HW212991   6.814   8.735  10.770  0.6820 -0.0048 -0.2570
 2044SOL     OW12992   4.627   6.439   3.227  0.2274  0.0580  0.3830
 2044SOL    HW112993   4.625   6.408   3.317  0.1676  0.4209  0.5083
 2044SOL    HW212994   4.699   6.501   3.224  0.7644 -0.5690 -0.0266
 2045SOL     OW12995  11.098   2.139   2.808 -0.5412  0.5023 -0.1134
 2045SOL    HW112996  11.124   2.203   2.874  0.4046  2.0593 -1.9223
 2045SOL    HW212997  11.108   2.184   2.725 -1.1058 -1.5991 -1.3947
 2046SOL     OW12998   9.261   3.316   9.015 -0.3711 -0.3144 -0.7456
 2046SOL    HW112999   9.350   3.287   9.035  0.2265  1.7069 -0.2345
 2046SOL    HW213000   9.266   3.349   8.925 -0.2651  0.8690 -0.3348
 2047SOL     OW13001   0.609  10.553  11.521 -0.0257  0.1706 -0.0324
 2047SOL    HW113002   0.527  10.527  11.478  0.1027  1.5946 -1.2342
 2047SOL    HW213003   0.614  10.498  11.599 -2.8568  0.9983  0.8485
 2048SOL     OW13004   5.986  11.091   1.304 -0.3752 -0.3149 -0.2404
 2048SOL    HW113005   6.053  11.117   1.240  0.5701  1.3029  1.3068
 2048SOL    HW213006   6.010  11.002   1.329  1.6977  0.4773  0.8151
 2049SOL     OW13007   5.173   0.182   8.497 -0.6064  0.0144 -1.0079
 2049SOL    HW113008   5.131   0.236   8.430 -0.0502  0.1240 -1.2683
 2049SOL    HW213009   5.106   0.118   8.521 -0.3537 -0.9536 -2.7191
 2050SOL     OW13010   6.117   3.665   7.870  0.4910  0.3258  0.3116
 2050SOL    HW113011   6.028   3.698   7.855  0.6683  0.9384  0.5930
 2050SOL    HW213012   6.133   3.606   7.796 -0.2976 -0.1041  0.4737
 2051SOL     OW13013  12.225   3.887   9.292  0.9060 -0.7360  0.2523
 2051SOL    HW113014  12.228   3.901   9.387  2.2622 -0.0264  0.1334
 2051SOL    HW213015  12.222   3.792   9.282  0.7201 -0.8206  1.0092
 2052SOL     OW13016  11.761   8.122   9.898  0.1001  0.5512  0.1632
 2052SOL    HW113017  11.743   8.132   9.991  1.1097 -1.9458  0.7029
 2052SOL    HW213018  11.681   8.082   9.862  1.0260 -2.1174  0.8076
 2053SOL     OW13019   0.260   3.744   5.111  0.0350 -0.2982  0.4225
 2053SOL    HW113020   0.346   3.723   5.148 -0.7503  0.8729  3.1488
 2053SOL    HW213021   0.199   3.689   5.159 -0.8188 -1.2798 -1.6272
 2054SOL     OW13022   8.174   5.682  11.332 -0.3648  0.3922  0.2048
 2054SOL    HW113023   8.196   5.617  11.265 -0.6366 -1.7187  2.0302
 2054SOL    HW213024   8.236   5.664  11.403 -2.8522 -0.4958  2.2927
 2055SOL     OW13025   2.877   5.806   9.663 -0.0730 -0.1226 -0.2880
 2055SOL    HW113026   2.810   5.873   9.645 -0.4282 -0.8750 -1.9066
 2055SOL    HW213027   2.842   5.756   9.737  0.2867  1.5515  1.0909
 2056SOL     OW13028   0.014   6.441   1.259  0.6177  0.0697 -0.0288
 2056SOL    HW113029   0.107   6.461   1.272  0.8853  0.8126 -2.5014
 2056SOL    HW213030   0.003   6.439   1.163 -1.7987 -0.5933  0.1946
 2057SOL     OW13031   5.714   4.709   2.824 -0.0487  0.4588  0.2480
 2057SOL    HW113032   5.717   4.743   2.913  0.6545 -1.2235  0.9078
 2057SOL    HW213033   5.677   4.621   2.833 -0.9466  0.6543 -1.2595
 2058SOL     OW13034   2.872   0.047   1.440 -0.1473  0.3815  0.4540
 2058SOL    HW113035   2.923   0.122   1.408  0.8551 -0.5886 -0.2825
 2058SOL    HW213036   2.790   0.051   1.391 -0.7754  1.8594  1.5250
 2059SOL     OW13037   7.647   2.708   2.163  0.3880  0.2448  0.2238
 2059SOL    HW113038   7.552   2.711   2.168  0.2456 -1.0960 -0.9951
 2059SOL    HW213039   7.676   2.792   2.200 -1.4350  2.8686 -3.6134
 2060SOL     OW13040   9.258   6.377   4.574  0.4164 -0.2359 -0.1767
 2060SOL    HW113041   9.334   6.321   4.558  0.3751 -0.5991  0.7899
 2060SOL    HW213042   9.186   6.315   4.590  0.1810  0.0901  0.0332
 2061SOL     OW13043  11.025   2.104  12.460  0.5326 -0.3210  0.3369
 2061SOL    HW113044  10.940   2.065  12.479  0.5963 -1.2660 -1.1904
 2061SOL    HW213045  11.005   2.195  12.439  0.3093  0.4009  3.2638
 2062SOL     OW13046   6.451   6.882   3.940 -0.1953 -0.0678  0.1015
 2062SOL    HW113047   6.424   6.957   3.992 -0.4119 -0.3806  0.4504
 2062SOL    HW213048   6.372   6.854   3.894 -0.2723 -0.4681  0.4680
 2063SOL     OW13049   9.614   0.299  12.390 -0.2014 -0.0615 -0.4441
 2063SOL    HW113050   9.582   0.260  12.309  0.8225  1.2373 -1.5267
 2063SOL    HW213051   9.601   0.231  12.456 -0.8090 -1.2633 -1.7408
 2064SOL     OW13052   1.058   6.239   3.515  0.1994  0.1405 -0.3683
 2064SOL    HW113053   1.041   6.160   3.566 -2.0689  0.2876 -0.7807
 2064SOL    HW213054   1.145   6.226   3.479  0.5960 -1.3615  0.9970
 2065SOL     OW13055   3.747   5.485   1.710  0.6002 -0.3975 -0.2598
 2065SOL    HW113056   3.700   5.567   1.693  0.6255 -0.2995  0.1403
 2065SOL    HW213057   3.820   5.511   1.766  1.0666 -0.5686 -0.7858
 2066SOL     OW13058   2.940   5.478   3.833  0.2014 -0.1196 -0.0291
 2066SOL    HW113059   3.018   5.432   3.805  0.3514 -0.4272  0.8647
 2066SOL    HW213060   2.896   5.504   3.752  0.2758 -1.5473 -0.5462
 2067SOL     OW13061  12.308   1.407   0.382 -0.3568  0.6104 -0.3923
 2067SOL    HW113062  12.259   1.372   0.456  0.0821  1.9196  0.5579
 2067SOL    HW213063  12.317   1.500   0.401 -0.2360  0.9826 -2.1087
 2068SOL     OW13064   2.856   5.975   3.874  0.1146 -0.4092  0.5603
 2068SOL    HW113065   2.901   5.900   3.914 -0.2120 -0.8504  0.1130
 2068SOL    HW213066   2.924   6.019   3.823  0.5117  0.0972  1.4789
 2069SOL     OW13067   8.406  12.211   6.418 -0.0808 -0.4535 -0.1553
 2069SOL    HW113068   8.314  12.215   6.444  0.0942 -0.7399  0.5275
 2069SOL    HW213069   8.429  12.301   6.396 -0.5622 -0.4064 -0.4547
 2070SOL     OW13070   3.882  11.378   0.293 -0.2553  0.3770  0.5418
 2070SOL    HW113071   3.964  11.427   0.296 -0.4326  0.6440  2.8804
 2070SOL    HW213072   3.909  11.286   0.296  0.0046  0.3029 -1.9172
 2071SOL     OW13073  10.732   4.157   2.100  0.3538 -0.1378  0.3586
 2071SOL    HW113074  10.815   4.173   2.056 -0.1149 -1.3707 -1.0906
 2071SOL    HW213075  10.756   4.114   2.182  1.1510 -1.8506 -0.7042
 2072SOL     OW13076  11.220   8.678   5.622  0.7081  0.1946  0.1580
 2072SOL    HW113077  11.154   8.622   5.663 -0.8585  2.2292  0.5604
 2072SOL    HW213078  11.302   8.632   5.637 -0.2958 -1.1387  1.9954
 2073SOL     OW13079   2.381  12.129  11.103  0.5478 -0.2069  0.1291
 2073SOL    HW113080   2.429  12.199  11.058 -0.7632  0.0573 -0.8861
 2073SOL    HW213081   2.386  12.054  11.044 -0.1711 -0.2174  0.0830
 2074SOL     OW13082   0.965   5.551   4.800  0.4075 -0.4302  0.4138
 2074SOL    HW113083   0.891   5.535   4.741  1.6061  0.6233 -1.4625
 2074SOL    HW213084   1.024   5.478   4.783 -0.1739 -1.3096  1.9640
 2075SOL     OW13085   2.058   4.567   2.278  0.3118  0.2779 -0.1202
 2075SOL    HW113086   1.977   4.555   2.229  0.9804  0.4706 -1.3237
 2075SOL    HW213087   2.061   4.494   2.339 -1.7813  1.4082  1.4426
 2076SOL     OW13088   5.167   5.006   1.044  0.1921 -0.5683  0.8170
 2076SOL    HW113089   5.078   4.974   1.026  0.3581 -0.6426  0.1051
 2076SOL    HW213090   5.224   4.943   0.999  0.6250 -0.7460  1.5958
 2077SOL     OW13091   1.487   6.166  11.440 -0.3676  0.3598  0.4843
 2077SOL    HW113092   1.478   6.212  11.356  0.1823  3.4956  2.0174
 2077SOL    HW213093   1.564   6.110  11.428 -0.4618  0.5389 -1.1721
 2078SOL     OW13094   3.024   9.246   7.263  0.2206 -0.8337  0.3433
 2078SOL    HW113095   3.029   9.290   7.178 -1.4291  0.4647  0.8540
 2078SOL    HW213096   2.938   9.271   7.297 -0.0528 -3.0583  1.4735
 2079SOL     OW13097   0.671   6.754   1.857  0.2527  0.4489 -0.4470
 2079SOL    HW113098   0.761   6.726   1.843  0.9406  2.2607  0.0732
 2079SOL    HW213099   0.637   6.695   1.925  1.1730  0.0173 -0.3566
 2080SOL     OW13100   7.243   6.647   5.104 -0.6849 -0.2459  0.5369
 2080SOL    HW113101   7.282   6.674   5.021 -0.5131 -0.8567  0.4135
 2080SOL    HW213102   7.258   6.721   5.163  2.2492 -1.0990  1.0198
 2081SOL     OW13103   3.802   9.520   4.907 -0.2379 -0.0874  0.1815
 2081SOL    HW113104   3.839   9.587   4.850  0.1484 -0.9143 -0.5694
 2081SOL    HW213105   3.797   9.561   4.993  1.1896  0.4872  0.0077
 2082SOL     OW13106   8.087   2.901   8.011 -0.3013  0.0845 -0.7846
 2082SOL    HW113107   8.076   2.836   8.081  1.4866  1.1988  0.6177
 2082SOL    HW213108   8.094   2.985   8.056  1.1805  0.8224 -2.2551
 2083SOL     OW13109   2.846   5.970   2.956  0.8337 -0.3459  0.2214
 2083SOL    HW113110   2.926   6.001   2.998  0.1638  0.5588  0.8742
 2083SOL    HW213111   2.859   5.987   2.863  1.4738 -0.3553  0.3104
 2084SOL     OW13112   3.545   9.260   9.197  0.0289 -0.3301 -0.4222
 2084SOL    HW113113   3.590   9.227   9.275  0.5851  2.9915  0.8056
 2084SOL    HW213114   3.607   9.244   9.126  0.8319 -0.6386  0.3274
 2085SOL     OW13115   7.613   4.343   2.305 -0.0897 -0.3221 -0.0088
 2085SOL    HW113116   7.567   4.320   2.386 -2.1151  0.4396 -0.8927
 2085SOL    HW213117   7.586   4.277   2.242  0.4493 -0.1594 -0.4234
 2086SOL     OW13118   9.994   1.465   6.219  0.0306 -0.4439 -0.2977
 2086SOL    HW113119   9.982   1.412   6.140  0.2917 -0.0869 -0.5836
 2086SOL    HW213120  10.056   1.415   6.272  0.6851 -0.1924 -0.7984
 2087SOL     OW13121   7.084   7.250   0.682  0.1984  0.1959 -0.1564
 2087SOL    HW113122   7.078   7.290   0.769 -0.9428  1.8468 -0.9479
 2087SOL    HW213123   7.068   7.322   0.621  2.3180 -0.6368 -1.8151
 2088SOL     OW13124  10.979   2.010   8.207  0.0064 -0.0079  0.6602
 2088SOL    HW113125  11.025   2.056   8.137 -1.6609  2.9873  1.3809
 2088SOL    HW213126  10.907   1.965   8.163  0.1426  0.1940  0.2222
 2089SOL     OW13127   2.797   3.995  10.670 -0.0010  0.4347  0.2423
 2089SOL    HW113128   2.829   3.997  10.580 -2.0365  0.1651 -0.5436
 2089SOL    HW213129   2.702   4.005  10.662 -0.0621  3.2209  2.5084
 2090SOL     OW13130  12.277   0.402   1.240  0.0502 -0.1342 -0.3479
 2090SOL    HW113131  12.315   0.485   1.209  0.3228 -0.7135 -1.6666
 2090SOL    HW213132  12.347   0.338   1.227  0.0461 -0.4841  1.2118
 2091SOL     OW13133   0.011   3.264   5.405 -0.7396  0.8701 -0.0409
 2091SOL    HW113134   0.036   3.217   5.326 -1.3044  0.2112  0.1585
 2091SOL    HW213135   0.084   3.324   5.422 -1.5529  2.6685 -2.3189
 2092SOL     OW13136   8.377  11.287   2.401  0.6202 -0.9302 -0.0965
 2092SOL    HW113137   8.326  11.285   2.320 -2.6104  1.0079  1.6760
 2092SOL    HW213138   8.423  11.370   2.398 -0.6868 -0.1504  0.6318
 2093SOL     OW13139   0.025   2.064   3.237  0.4427  0.1517  0.3116
 2093SOL    HW113140   0.052   2.155   3.232  2.0297 -0.3361 -1.1920
 2093SOL    HW213141   0.021   2.045   3.330  2.1788  1.2093  0.6619
 2094SOL     OW13142   7.560   2.177  11.173  0.6927  0.3933  0.0084
 2094SOL    HW113143   7.481   2.217  11.208 -0.8008 -1.2922 -1.2192
 2094SOL    HW213144   7.607   2.145  11.250  0.8525  2.4783  0.8436
 2095SOL     OW13145   1.398   3.069   9.225  0.6292 -0.1968 -0.3157
 2095SOL    HW113146   1.425   3.064   9.134 -2.7961  1.0024 -1.5521
 2095SOL    HW213147   1.381   3.163   9.241 -1.4113 -0.6483  0.6171
 2096SOL     OW13148   7.802   8.863   3.582  0.5502  0.3190 -0.1976
 2096SOL    HW113149   7.842   8.928   3.523  0.7323 -0.1913 -0.6412
 2096SOL    HW213150   7.876   8.829   3.632  0.5565 -0.0457 -0.4535
 2097SOL     OW13151   7.507  11.071  12.179 -0.4550 -0.0508 -0.2368
 2097SOL    HW113152   7.550  11.140  12.229  0.2162 -1.5075  1.3080
 2097SOL    HW213153   7.432  11.113  12.139  0.6931  1.8699 -0.4653
 2098SOL     OW13154   6.066   7.148  12.141 -0.2800 -0.6347  0.2813
 2098SOL    HW113155   6.083   7.055  12.127  1.7869 -1.0274  4.1752
 2098SOL    HW213156   5.971   7.155  12.144 -0.4908 -2.4234 -0.9077
 2099SOL     OW13157   7.595  11.125   3.338  0.3066 -0.1418  0.3390
 2099SOL    HW113158   7.508  11.114   3.301  0.6475  0.3639 -0.6354
 2099SOL    HW213159   7.623  11.212   3.309  0.1680  0.7699  2.6628
 2100SOL     OW13160   9.123  10.808   1.273  0.3225 -0.0333  0.0946
 2100SOL    HW113161   9.162  10.862   1.342 -0.0763 -0.0095  0.3014
 2100SOL    HW213162   9.065  10.748   1.320  0.6308 -0.5298 -0.1482
 2101SOL     OW13163   4.436   8.092   7.398 -0.2687  0.4262 -0.3464
 2101SOL    HW113164   4.497   8.019   7.383 -0.3729  0.2930 -0.1397
 2101SOL    HW213165   4.424   8.131   7.312  1.3934  1.4982 -0.1393
 2102SOL     OW13166  12.345   0.509   1.505 -0.1239 -0.1878 -0.3397
 2102SOL    HW113167  12.323   0.597   1.477 -0.3201  0.2015  0.9688
 2102SOL    HW213168  12.280   0.453   1.464 -1.4798  0.5568  0.6987
 2103SOL     OW13169   5.581  10.174   4.375 -0.1429  0.6945  0.1199
 2103SOL    HW113170   5.547  10.177   4.464  1.8233 -0.7937  1.0067
 2103SOL    HW213171   5.644  10.102   4.376  1.1746  1.7139 -2.0379
 2104SOL     OW13172   2.721   1.288  10.521 -0.1956  0.0401 -0.2178
 2104SOL    HW113173   2.790   1.223  10.529  0.3865  0.6317 -0.3075
 2104SOL    HW213174   2.765   1.366  10.487 -0.6337  0.8865  1.0869
 2105SOL     OW13175   9.878   3.492   5.931 -0.1824  0.3796  0.3819
 2105SOL    HW113176   9.786   3.467   5.927 -0.1170 -0.0664  1.4808
 2105SOL    HW213177   9.913   3.470   5.844 -0.2768 -2.7624  1.0457
 2106SOL     OW13178   9.732   8.680   2.143  0.2690  0.0751  0.4235
 2106SOL    HW113179   9.761   8.647   2.229  0.2288 -0.5675  0.1962
 2106SOL    HW213180   9.809   8.725   2.108  0.6222 -0.5700  0.3506
 2107SOL     OW13181   4.453   5.650  11.815  0.2812 -0.0533  0.0186
 2107SOL    HW113182   4.401   5.608  11.884  1.3870 -1.8154 -0.1746
 2107SOL    HW213183   4.538   5.666  11.855  0.7295 -0.5099 -0.7261
 2108SOL     OW13184   2.231  11.759  12.074  0.3339  0.2473  0.3449
 2108SOL    HW113185   2.232  11.750  11.979  0.7059 -1.4905  0.4677
 2108SOL    HW213186   2.148  11.718  12.100  0.7645 -0.3483  0.8209
 2109SOL     OW13187  11.930   8.741   2.989 -0.1595  0.1011 -0.2287
 2109SOL    HW113188  11.876   8.818   2.973 -0.8995 -0.5461 -0.8991
 2109SOL    HW213189  11.870   8.677   3.028 -0.2571 -1.1173 -2.2265
 2110SOL     OW13190  10.896   3.037  10.399  0.1025  0.0284 -0.2658
 2110SOL    HW113191  10.913   2.990  10.480 -0.3446  1.6618  0.8273
 2110SOL    HW213192  10.983   3.063  10.367  0.2863 -0.7334 -0.3997
 2111SOL     OW13193   9.697   0.267   5.199  0.2961 -0.5118 -0.1646
 2111SOL    HW113194   9.670   0.341   5.254  1.0083  0.5326 -1.1762
 2111SOL    HW213195   9.620   0.211   5.196  0.5649 -1.2557  2.8437
 2112SOL     OW13196   9.682   3.519   2.414 -0.0080 -0.5466 -0.4628
 2112SOL    HW113197   9.601   3.471   2.434 -0.0926 -0.4701 -0.6212
 2112SOL    HW213198   9.679   3.531   2.319 -0.3364  0.4018 -0.3447
 2113SOL     OW13199   6.271   5.505  10.008 -0.2736  0.4976  0.4602
 2113SOL    HW113200   6.242   5.420  10.042  0.5553  0.3181  0.7629
 2113SOL    HW213201   6.360   5.515  10.043  0.2948  0.6917 -0.9846
 2114SOL     OW13202   9.291   4.688   2.553 -0.0944  0.3557  0.4920
 2114SOL    HW113203   9.370   4.651   2.594  0.3844  0.5254 -0.2641
 2114SOL    HW213204   9.300   4.668   2.460 -0.6263  0.9421  0.3082
 2115SOL     OW13205   5.900   6.702   1.000 -0.1368 -0.3963  0.4454
 2115SOL    HW113206   5.939   6.690   1.087  0.3302 -0.0117  0.2945
 2115SOL    HW213207   5.975   6.714   0.942 -0.4739  0.0023  0.0930
 2116SOL     OW13208   3.836   7.159   0.016 -0.8636  0.1614 -1.0840
 2116SOL    HW113209   3.827   7.091   0.083 -0.8014  0.8809 -0.3257
 2116SOL    HW213210   3.746   7.176  -0.014 -0.9315  0.0841 -0.9224
 2117SOL     OW13211   0.736  10.237   4.816 -0.8367 -0.3323 -0.0837
 2117SOL    HW113212   0.767  10.172   4.879 -1.2517  0.7842  1.3484
 2117SOL    HW213213   0.780  10.214   4.734 -0.9033 -2.3269  0.3853
 2118SOL     OW13214   2.645   8.772  10.189 -0.1577  0.1561  0.1958
 2118SOL    HW113215   2.691   8.823  10.122  0.5918 -2.6333 -1.5911
 2118SOL    HW213216   2.552   8.787  10.171  0.0375  1.4893  0.2419
 2119SOL     OW13217   2.794  11.808  12.041 -0.7852 -0.8557  0.5537
 2119SOL    HW113218   2.835  11.868  12.104  0.6029 -0.6799 -0.4577
 2119SOL    HW213219   2.832  11.723  12.061  0.7911 -0.5557 -0.8970
 2120SOL     OW13220  11.949   2.317   0.712  0.3468 -0.0645 -0.0201
 2120SOL    HW113221  11.883   2.365   0.761  0.2340 -1.6357  1.4321
 2120SOL    HW213222  11.905   2.294   0.630 -1.4090 -2.1141  1.3891
 2121SOL     OW13223   7.300  10.346   1.193  0.1846  0.0535  0.7507
 2121SOL    HW113224   7.252  10.305   1.265  0.8202  0.5319  1.4473
 2121SOL    HW213225   7.392  10.325   1.209  0.1909 -1.9291 -1.2453
 2122SOL     OW13226   8.956   4.389   9.451 -0.0807  0.3142  0.0374
 2122SOL    HW113227   8.909   4.339   9.518  0.4892 -1.5161 -0.8397
 2122SOL    HW213228   8.892   4.451   9.417 -1.0609 -0.3016  0.7078
 2123SOL     OW13229   8.911   8.560   1.717  0.2391  0.5308  0.1718
 2123SOL    HW113230   9.002   8.539   1.737  0.6319  2.5193  0.7098
 2123SOL    HW213231   8.905   8.654   1.732 -1.5490  0.6862 -1.2931
 2124SOL     OW13232  11.969  10.514   2.870  0.0216  0.3633  0.1541
 2124SOL    HW113233  12.053  10.518   2.825 -0.4505  3.6793 -0.6414
 2124SOL    HW213234  11.993  10.511   2.963  1.0043 -0.1095 -0.0962
 2125SOL     OW13235   4.461   3.384   3.706  0.0392 -0.0473  0.1862
 2125SOL    HW113236   4.524   3.320   3.738  0.3772 -0.4393 -1.1749
 2125SOL    HW213237   4.515   3.450   3.661 -0.4838 -0.2443 -0.7617
 2126SOL     OW13238   2.192   3.771   3.956  0.5674  0.4031 -0.0358
 2126SOL    HW113239   2.276   3.751   3.997 -0.8794 -1.8903  2.1152
 2126SOL    HW213240   2.153   3.838   4.011  0.6258  0.9101 -0.5940
 2127SOL     OW13241   5.969   6.530  11.522  0.2077  0.2506  0.0522
 2127SOL    HW113242   5.999   6.620  11.532  0.2638  0.1452  0.8731
 2127SOL    HW213243   6.012   6.499  11.442  1.1411  0.5674  0.4244
 2128SOL     OW13244  11.820   2.671   8.165  0.2222  0.0450  0.3785
 2128SOL    HW113245  11.796   2.587   8.127  0.1194  0.0220  0.4917
 2128SOL    HW213246  11.915   2.668   8.175  0.3273  0.2886 -0.4464
 2129SOL     OW13247   5.475   6.938  11.904 -0.2789  0.1442  0.2934
 2129SOL    HW113248   5.550   6.889  11.935 -0.1820 -1.5075 -2.2290
 2129SOL    HW213249   5.496   6.960  11.813 -3.1119 -1.1040 -0.7816
 2130SOL     OW13250  11.230   1.629   2.416  0.6125  0.3504  0.2224
 2130SOL    HW113251  11.312   1.677   2.419  0.9001  0.1750 -2.4415
 2130SOL    HW213252  11.186   1.661   2.337 -1.9534  0.4792  1.5781
 2131SOL     OW13253   7.781   9.187   4.833  0.5448  0.0680 -0.5669
 2131SOL    HW113254   7.743   9.249   4.896  0.2764 -0.2766 -0.3891
 2131SOL    HW213255   7.799   9.108   4.884  0.5015 -0.1462 -0.8819
 2132SOL     OW13256   4.072  10.043  11.850  0.7065  0.2681  0.1409
 2132SOL    HW113257   4.136  10.113  11.849  0.9126  0.1073 -2.2221
 2132SOL    HW213258   4.037  10.039  11.761 -1.6783 -0.4950  1.0060
 2133SOL     OW13259  11.298   8.301   1.475 -0.8242 -0.2508 -0.2789
 2133SOL    HW113260  11.370   8.246   1.503 -1.2124 -0.6449 -0.0404
 2133SOL    HW213261  11.239   8.305   1.550 -2.2917 -2.0107 -1.2435
 2134SOL     OW13262  11.659   9.502   7.851 -0.0335 -0.0370 -0.2732
 2134SOL    HW113263  11.733   9.455   7.813 -0.1473 -2.5916  2.3208
 2134SOL    HW213264  11.694   9.587   7.876  2.5426 -1.6442  2.1458
 2135SOL     OW13265   3.383   7.174   6.832  0.3973  0.9401  0.1070
 2135SOL    HW113266   3.429   7.148   6.911  1.0104  2.8716  0.4428
 2135SOL    HW213267   3.298   7.132   6.838 -0.3281  2.5827  2.8294
 2136SOL     OW13268   7.274   4.322   2.255  0.4746  0.1779  1.0993
 2136SOL    HW113269   7.227   4.307   2.337  0.3170  1.4073  1.2618
 2136SOL    HW213270   7.331   4.246   2.245 -1.4559 -1.3414  0.9359
 2137SOL     OW13271   8.434   6.289   6.715  0.2189 -0.0004 -0.3905
 2137SOL    HW113272   8.369   6.321   6.777  1.1835  0.9543  0.1477
 2137SOL    HW213273   8.515   6.335   6.738  1.0083 -0.9008 -1.2691
 2138SOL     OW13274  10.962  11.301   7.134  0.1471 -0.5028 -0.6362
 2138SOL    HW113275  10.884  11.267   7.092  0.2102  0.0632 -1.2465
 2138SOL    HW213276  11.030  11.236   7.116  0.3590  0.0803 -2.1132
 2139SOL     OW13277   2.222  10.173   1.548  0.2634 -0.0518 -0.1245
 2139SOL    HW113278   2.131  10.163   1.519  0.3620  0.3429 -0.5844
 2139SOL    HW213279   2.273  10.119   1.487  0.0546 -3.0817  2.1501
 2140SOL     OW13280   8.926   0.212   9.588  0.1504 -0.1578  0.0504
 2140SOL    HW113281   8.855   0.275   9.600  1.0911  0.9170  0.1411
 2140SOL    HW213282   9.001   0.252   9.631  0.7880 -1.3496  0.0968
 2141SOL     OW13283  10.569   6.669   2.326  0.1783 -0.0890 -0.0840
 2141SOL    HW113284  10.535   6.688   2.238  0.9225 -0.5173 -0.4784
 2141SOL    HW213285  10.508   6.712   2.385 -0.2931  0.2759 -0.8166
 2142SOL     OW13286   8.024  11.724   8.605  0.3538  0.3268 -0.2270
 2142SOL    HW113287   7.957  11.678   8.655  0.3064  0.3628 -0.2582
 2142SOL    HW213288   7.975  11.782   8.547  0.3398 -0.8969 -1.4819
 2143SOL     OW13289  10.888   7.401  10.052 -0.5508  0.1110 -0.5714
 2143SOL    HW113290  10.842   7.477  10.087 -1.6891 -1.6457  2.0399
 2143SOL    HW213291  10.820   7.335  10.039  0.6072 -1.0140 -1.1817
 2144SOL     OW13292   2.757   8.083  10.981  0.2995 -0.1623  0.0738
 2144SOL    HW113293   2.765   8.165  10.932 -0.3315 -0.9010 -1.3081
 2144SOL    HW213294   2.663   8.069  10.989  0.3904 -0.2343  1.2322
 2145SOL     OW13295  11.720   1.969   0.802  0.2440 -0.2104  0.0923
 2145SOL    HW113296  11.652   2.013   0.750 -1.8946 -1.0690  1.9857
 2145SOL    HW213297  11.734   1.886   0.757  1.5569  0.7777 -1.4107
 2146SOL     OW13298  11.643  10.757  11.576  0.6731  0.0630 -0.1687
 2146SOL    HW113299  11.715  10.749  11.638  0.8513 -1.1842 -0.5097
 2146SOL    HW213300  11.677  10.814  11.507  1.1664 -0.1409 -0.0931
 2147SOL     OW13301  10.450   9.338   3.905  0.0545 -0.0886  0.0069
 2147SOL    HW113302  10.453   9.433   3.899  1.7745 -0.1723 -1.2856
 2147SOL    HW213303  10.381   9.311   3.845  1.5044  0.2524 -1.8986
 2148SOL     OW13304   3.615  11.735   6.314  0.4954  0.5718  0.4970
 2148SOL    HW113305   3.550  11.710   6.380  0.4787  1.9787  1.0556
 2148SOL    HW213306   3.591  11.685   6.236  0.5961 -1.2392  1.5757
 2149SOL     OW13307  10.497   5.481   2.951 -1.3164  0.1920 -0.3238
 2149SOL    HW113308  10.507   5.515   2.862  0.2017 -0.9012 -0.6171
 2149SOL    HW213309  10.584   5.491   2.991 -1.2655 -1.6953  0.1299
 2150SOL     OW13310   4.715   2.097  10.649 -0.0030  0.2648  0.4459
 2150SOL    HW113311   4.683   2.013  10.618 -0.3435  0.1495  1.0918
 2150SOL    HW213312   4.787   2.074  10.709 -1.6321  0.2760  2.5238
 2151SOL     OW13313  11.927   0.765  12.472  0.0083  0.0411 -0.5505
 2151SOL    HW113314  11.865   0.785  12.542  1.3412  2.6879 -0.0280
 2151SOL    HW213315  11.927   0.843  12.417  0.2317 -1.3371 -2.6277
 2152SOL     OW13316   6.771   9.012   8.852  0.0214 -0.6057 -0.2910
 2152SOL    HW113317   6.817   9.005   8.768  0.2856 -0.7411 -0.1392
 2152SOL    HW213318   6.828   9.068   8.905 -0.6713  0.3769 -0.5510
 2153SOL     OW13319   7.150  10.302   2.970  0.2789 -0.0682 -0.1679
 2153SOL    HW113320   7.074  10.252   2.941 -0.4056 -0.5405  2.2517
 2153SOL    HW213321   7.211  10.237   3.003  1.4671  0.3758 -1.3535
 2154SOL     OW13322  11.658  12.088   3.664 -1.0622  1.0744 -0.3842
 2154SOL    HW113323  11.709  12.153   3.713 -1.7021  1.0520  0.3450
 2154SOL    HW213324  11.603  12.046   3.731  0.6376 -1.5119 -0.4958
 2155SOL     OW13325  11.310   9.196   1.904  0.6865 -0.2986 -0.1994
 2155SOL    HW113326  11.264   9.188   1.988 -0.0377 -0.0975 -0.5695
 2155SOL    HW213327  11.319   9.105   1.873 -2.0201 -0.2161 -1.4655
 2156SOL     OW13328   7.380  11.222   2.777  0.1484 -0.4261  0.1603
 2156SOL    HW113329   7.447  11.205   2.843 -0.7158 -1.4216  0.8082
 2156SOL    HW213330   7.425  11.208   2.694  1.0607  0.1427  0.5390
 2157SOL     OW13331   7.393  11.022   8.068  0.1279 -0.0046  0.2613
 2157SOL    HW113332   7.306  11.046   8.101 -0.8310 -1.2984 -1.2146
 2157SOL    HW213333   7.388  11.036   7.974  1.3440 -0.6207  0.0887
 2158SOL     OW13334  12.300   1.851   3.700  0.5363  0.5678 -0.1958
 2158SOL    HW113335  12.249   1.876   3.777  1.2105 -1.3594  0.9560
 2158SOL    HW213336  12.237   1.805   3.644 -0.2197  2.8922 -1.3894
 2159SOL     OW13337   3.044   8.434   7.540 -0.5536 -0.4163  0.6285
 2159SOL    HW113338   3.138   8.434   7.522 -0.5630 -0.4359  0.5782
 2159SOL    HW213339   3.007   8.374   7.475 -0.8188  1.0064 -0.5986
 2160SOL     OW13340   4.764   8.340  11.134 -0.2922  0.6344 -0.4383
 2160SOL    HW113341   4.751   8.304  11.222 -1.4389 -0.5906 -1.0637
 2160SOL    HW213342   4.805   8.425  11.148 -2.1523  1.3262  1.3877
 2161SOL     OW13343   0.509   0.011  11.490  0.2188 -0.0721  0.7053
 2161SOL    HW113344   0.552   0.065  11.424 -1.0888 -2.3247 -2.2105
 2161SOL    HW213345   0.582  -0.031  11.537  1.3700 -1.1366 -1.7917
 2162SOL     OW13346   9.377   2.332   2.873  0.1028  0.0159  0.3717
 2162SOL    HW113347   9.376   2.369   2.962  2.5284  1.6634 -0.1723
 2162SOL    HW213348   9.340   2.245   2.883  0.0367  0.2521  2.9635
 2163SOL     OW13349   2.514   1.764   9.492  0.7144  0.3393  0.2473
 2163SOL    HW113350   2.450   1.834   9.480  0.6996  0.2769 -0.0493
 2163SOL    HW213351   2.487   1.720   9.572  0.6891  0.6360  0.4044
 2164SOL     OW13352   0.474   6.558   0.519 -0.7670  0.8067  0.5614
 2164SOL    HW113353   0.408   6.491   0.535  0.0197  0.1868  1.2892
 2164SOL    HW213354   0.512   6.534   0.434 -0.4390  0.2826  0.8513
 2165SOL     OW13355   5.610   1.094   0.518 -0.5171  0.3471 -0.4471
 2165SOL    HW113356   5.670   1.091   0.592  1.0539  0.2690 -1.6863
 2165SOL    HW213357   5.583   1.003   0.504 -0.7080  0.3445 -0.0632
 2166SOL     OW13358   9.027   9.035   5.674  0.5630  0.3773  0.4440
 2166SOL    HW113359   9.001   9.095   5.603 -0.2965 -1.5128 -0.9127
 2166SOL    HW213360   9.110   8.998   5.644  0.7353  0.3586  0.9437
 2167SOL     OW13361   0.259   8.392   7.047  0.4302 -0.4685 -0.0876
 2167SOL    HW113362   0.340   8.440   7.030  0.0477  0.7003  1.1828
 2167SOL    HW213363   0.284   8.300   7.045  1.3410 -0.2264 -1.8545
 2168SOL     OW13364   4.692   1.698   5.751 -0.1940  0.1165 -0.1966
 2168SOL    HW113365   4.748   1.724   5.678 -0.9062  2.1219 -0.1096
 2168SOL    HW213366   4.674   1.780   5.797 -0.9764 -0.8884  1.3658
 2169SOL     OW13367   3.925  10.340   7.211 -0.5387 -0.0023  0.1244
 2169SOL    HW113368   3.883  10.394   7.278 -0.9435  0.1017 -0.2078
 2169SOL    HW213369   3.872  10.354   7.132 -0.5348 -0.7311 -0.0165
 2170SOL     OW13370  11.477   5.877   4.891  0.3181  0.1037 -0.0827
 2170SOL    HW113371  11.563   5.840   4.876  0.2777  0.1046 -0.3223
 2170SOL    HW213372  11.435   5.876   4.805  0.0470  0.0223  0.0474
 2171SOL     OW13373   3.194   6.969  11.051  0.0004 -0.3534 -0.5799
 2171SOL    HW113374   3.141   6.977  10.971 -0.0227  1.6603 -0.4329
 2171SOL    HW213375   3.245   7.050  11.054 -2.1401  1.1436  2.8917
 2172SOL     OW13376  11.516   9.447   2.536 -0.1491  0.3750 -0.1107
 2172SOL    HW113377  11.543   9.462   2.445  0.7719  0.4657  0.1640
 2172SOL    HW213378  11.425   9.476   2.539 -0.1081  0.6308 -0.9373
 2173SOL     OW13379   8.475   1.608  11.895 -0.2021  0.2284  0.1601
 2173SOL    HW113380   8.451   1.624  11.804  0.0372  0.8503  0.2040
 2173SOL    HW213381   8.506   1.518  11.897  0.3586  0.4102 -0.4860
 2174SOL     OW13382  12.373   9.855   9.182  0.1522  0.1598  0.3390
 2174SOL    HW113383  12.288   9.899   9.176  0.0272  0.4935  3.1221
 2174SOL    HW213384  12.419   9.883   9.104 -1.8035  1.0788 -0.5760
 2175SOL     OW13385  11.853   2.087   9.681 -0.2498 -0.5520 -0.3697
 2175SOL    HW113386  11.883   2.080   9.772  1.5379  1.7295 -0.7054
 2175SOL    HW213387  11.916   2.035   9.631 -0.6074 -0.9232 -0.4437
 2176SOL     OW13388   7.966  10.411   2.203 -0.0698 -0.0229  0.0751
 2176SOL    HW113389   7.989  10.502   2.223 -0.7273 -0.3121  2.4835
 2176SOL    HW213390   7.873  10.405   2.223 -0.5273 -0.7482 -2.0918
 2177SOL     OW13391  10.282   1.905   5.852  0.3660 -0.3855 -0.3830
 2177SOL    HW113392  10.314   1.841   5.788 -0.8175 -0.2284 -1.1645
 2177SOL    HW213393  10.301   1.990   5.812 -1.5467 -0.2922 -1.1614
 2178SOL     OW13394   7.646   7.287   9.262  0.3619 -0.0009  0.2137
 2178SOL    HW113395   7.591   7.254   9.191  2.0435  0.8320 -1.5729
 2178SOL    HW213396   7.668   7.210   9.313 -1.7304 -0.4680  0.4981
 2179SOL     OW13397  12.455   4.512   7.536  0.0839  0.0079  0.1979
 2179SOL    HW113398  12.489   4.486   7.450 -0.2033  1.7634 -0.4954
 2179SOL    HW213399  12.361   4.524   7.521  0.0469  0.4032  0.7352
 2180SOL     OW13400   3.908   3.283   4.028 -0.4954  0.4711 -0.1253
 2180SOL    HW113401   3.912   3.245   4.116 -0.0035 -2.1893 -1.1969
 2180SOL    HW213402   3.989   3.334   4.020 -0.2471  0.2331  0.7631
 2181SOL     OW13403   2.056   9.805   3.550 -0.0619 -0.9547 -0.1278
 2181SOL    HW113404   2.089   9.863   3.482  0.1011  0.2467  0.9219
 2181SOL    HW213405   2.042   9.721   3.506 -0.9932  0.0582 -1.8564
 2182SOL     OW13406   2.883  10.589   7.176  0.8217  0.3635  0.9473
 2182SOL    HW113407   2.810  10.532   7.201  0.9677 -1.0952 -1.6202
 2182SOL    HW213408   2.869  10.669   7.227 -2.6389  0.2152  0.5176
 2183SOL     OW13409   9.634   5.217   8.137  0.6581 -0.0116 -0.5907
 2183SOL    HW113410   9.715   5.213   8.189  0.1566  0.2667  0.2318
 2183SOL    HW213411   9.627   5.130   8.097  1.9201  0.2953 -1.5573
 2184SOL     OW13412   6.283   5.959   5.243  0.7739  0.0277 -0.0139
 2184SOL    HW113413   6.304   5.927   5.156  1.5179  0.3525  0.0341
 2184SOL    HW213414   6.225   6.034   5.228  0.8396  0.0351 -0.2264
 2185SOL     OW13415   4.812   2.727   5.817 -0.1010 -0.0073  0.1238
 2185SOL    HW113416   4.816   2.758   5.726  0.5157 -0.1836  0.0856
 2185SOL    HW213417   4.847   2.637   5.813  2.3848  0.8331  0.9010
 2186SOL     OW13418   1.442   4.769   0.326  0.2712  0.6270  0.5164
 2186SOL    HW113419   1.362   4.738   0.369 -0.6920 -0.7140 -1.9831
 2186SOL    HW213420   1.452   4.859   0.356 -2.0659  0.7642  1.1087
 2187SOL     OW13421   9.373  11.343   3.516 -0.5826 -0.4506  0.1518
 2187SOL    HW113422   9.442  11.370   3.455  1.3369 -1.1973  1.8872
 2187SOL    HW213423   9.394  11.387   3.598 -3.6330  1.2711  0.1708
 2188SOL     OW13424   2.355   3.881   8.228 -0.0271  0.1354 -0.1403
 2188SOL    HW113425   2.327   3.903   8.139  1.1842 -1.6097 -1.0276
 2188SOL    HW213426   2.367   3.786   8.226  1.7830  0.2801  1.3443
 2189SOL     OW13427   9.277  11.377   5.498 -0.7054  0.2886  0.3920
 2189SOL    HW113428   9.309  11.297   5.539 -1.6818 -0.3282  0.0016
 2189SOL    HW213429   9.350  11.438   5.503 -0.1168 -0.4612  1.1545
 2190SOL     OW13430   5.352   5.864  11.227  0.2754 -0.5410 -0.3693
 2190SOL    HW113431   5.422   5.887  11.166 -0.3092  1.3355 -0.4161
 2190SOL    HW213432   5.294   5.807  11.176  0.7699 -0.5375 -0.9495
 2191SOL     OW13433   0.890   2.835   1.671 -0.1708 -0.3946 -0.7782
 2191SOL    HW113434   0.819   2.898   1.658 -1.2662 -1.4393 -0.1381
 2191SOL    HW213435   0.867   2.761   1.614 -0.8545 -1.7038  1.0745
 2192SOL     OW13436  12.066  11.985  10.226 -0.1964  0.1812  0.3640
 2192SOL    HW113437  12.145  12.030  10.196 -1.9827  2.8048 -0.8075
 2192SOL    HW213438  12.004  12.056  10.244 -3.7011 -1.6641 -2.9121
 2193SOL     OW13439   7.700  10.297   0.043 -1.0110  0.0792 -0.0351
 2193SOL    HW113440   7.768  10.335   0.098 -2.7731  1.6962  1.1512
 2193SOL    HW213441   7.636  10.262   0.105 -2.6652  1.2391 -1.0036
 2194SOL     OW13442   1.804  10.423   9.760 -0.5158 -0.3060  0.1001
 2194SOL    HW113443   1.784  10.516   9.771  0.0730 -0.3513  1.7749
 2194SOL    HW213444   1.723  10.385   9.725 -1.2673  0.5685  0.8605
 2195SOL     OW13445  11.428   4.351   7.008  0.1178  0.1674  0.2224
 2195SOL    HW113446  11.433   4.258   6.990  0.8642  0.1450  0.4999
 2195SOL    HW213447  11.464   4.393   6.930 -1.8526  0.3196 -0.6600
 2196SOL     OW13448   1.789   7.230   3.577 -0.1185  0.0097 -0.3252
 2196SOL    HW113449   1.842   7.261   3.650 -0.7875 -0.3244  0.3077
 2196SOL    HW213450   1.787   7.304   3.516  0.2455  0.3717  0.0988
 2197SOL     OW13451   3.068   1.213  11.931 -0.4084  0.6927  0.0385
 2197SOL    HW113452   3.046   1.201  12.024 -1.3594 -1.0675 -0.3706
 2197SOL    HW213453   3.071   1.124  11.896  0.5820  1.2967 -1.4991
 2198SOL     OW13454   5.751   5.228   4.636  0.2415 -0.0765  1.0527
 2198SOL    HW113455   5.699   5.217   4.716 -1.1277  0.8358  0.3302
 2198SOL    HW213456   5.738   5.146   4.588 -0.3279  0.0400  0.9989
 2199SOL     OW13457   1.113   5.666  10.591  0.3538 -0.5118 -0.3863
 2199SOL    HW113458   1.044   5.647  10.527 -0.4381 -0.1804  0.3515
 2199SOL    HW213459   1.166   5.733  10.549 -0.6395  0.3016 -0.3859
 2200SOL     OW13460   6.123   0.937   0.304 -0.7827 -0.5134 -0.7496
 2200SOL    HW113461   6.118   1.032   0.294 -1.3447 -0.4764 -0.1712
 2200SOL    HW213462   6.047   0.903   0.256 -1.0921 -0.6086 -0.1973
 2201SOL     OW13463  10.975  11.302   4.508 -0.3960  0.3681  0.1841
 2201SOL    HW113464  10.961  11.386   4.552  0.6110  0.9028 -0.4997
 2201SOL    HW213465  11.011  11.245   4.576 -0.0479  0.8112  0.3701
 2202SOL     OW13466   2.181  11.349   7.821 -0.4195 -0.0587 -0.3671
 2202SOL    HW113467   2.171  11.275   7.762 -0.7551 -0.3196  0.0070
 2202SOL    HW213468   2.099  11.350   7.872 -0.1791  0.2214  0.0212
 2203SOL     OW13469   6.418   8.754   0.740  1.1862  0.4135 -0.3750
 2203SOL    HW113470   6.460   8.840   0.734 -2.0247  2.0125 -3.4866
 2203SOL    HW213471   6.409   8.725   0.650 -1.2126 -1.3884  0.3368
 2204SOL     OW13472   2.826  11.568  10.386 -0.1786 -0.0023 -0.1341
 2204SOL    HW113473   2.760  11.537  10.448  0.9398 -0.3399  0.9334
 2204SOL    HW213474   2.840  11.494  10.327 -0.2647 -0.1716  0.0564
 2205SOL     OW13475   5.788   8.344   1.868  0.1827  0.2815  1.0029
 2205SOL    HW113476   5.738   8.332   1.949 -0.9455  0.1896  0.3194
 2205SOL    HW213477   5.825   8.432   1.875  0.9393 -0.0992  2.0456
 2206SOL     OW13478   6.753   9.194  11.184 -0.7417 -0.2092  0.2871
 2206SOL    HW113479   6.734   9.162  11.272 -0.3003  0.6093  0.6903
 2206SOL    HW213480   6.706   9.134  11.126 -0.0053 -1.5140  1.0155
 2207SOL     OW13481   4.826  10.958   8.153 -0.0998  0.3152  0.0454
 2207SOL    HW113482   4.903  11.005   8.121  0.7796 -0.9668  0.1810
 2207SOL    HW213483   4.847  10.939   8.245  0.0430 -1.2553 -0.2986
 2208SOL     OW13484   1.640  10.401   9.170 -0.3276  0.3827  0.4306
 2208SOL    HW113485   1.631  10.457   9.094 -1.5654  0.0070  0.2848
 2208SOL    HW213486   1.551  10.375   9.192  0.0367  0.2089  1.8038
 2209SOL     OW13487   3.469   9.966   7.196 -0.2633 -0.3252  0.4110
 2209SOL    HW113488   3.529   9.965   7.271 -0.7466  0.2334  0.8159
 2209SOL    HW213489   3.478   9.880   7.157  0.5218 -0.3820  0.6949
 2210SOL     OW13490   8.051   9.539  10.722 -0.2137  0.2632 -0.2346
 2210SOL    HW113491   8.111   9.520  10.649  1.7631  2.0890  0.8114
 2210SOL    HW213492   8.055   9.461  10.778  0.2162 -0.1187 -0.7901
 2211SOL     OW13493   2.852   0.425  12.382  0.1837  0.0717 -1.0579
 2211SOL    HW113494   2.783   0.490  12.376  1.7074  1.6899 -2.1853
 2211SOL    HW213495   2.905   0.438  12.304  1.9182 -0.9193 -0.1354
 2212SOL     OW13496  10.871   9.109   5.075  0.2272  0.4460  0.3023
 2212SOL    HW113497  10.883   9.018   5.100 -0.1012  0.5312  0.7733
 2212SOL    HW213498  10.790   9.109   5.023 -0.1171  0.5652  0.8324
 2213SOL     OW13499   3.167   4.421   1.030 -0.0224  0.0594  0.2232
 2213SOL    HW113500   3.122   4.442   0.949  0.9594 -0.1424 -0.3933
 2213SOL    HW213501   3.115   4.462   1.099 -0.3303  1.0582 -0.5954
 2214SOL     OW13502  10.814   9.508   6.943  0.2944 -0.0898 -0.7684
 2214SOL    HW113503  10.842   9.454   7.017  0.0506 -1.0216 -1.3464
 2214SOL    HW213504  10.871   9.585   6.946  0.9023 -0.5619 -0.1628
 2215SOL     OW13505   5.176   3.179   9.423 -0.1300 -0.3571 -0.4730
 2215SOL    HW113506   5.147   3.213   9.508  0.1563 -0.3307 -0.3859
 2215SOL    HW213507   5.253   3.126   9.443  0.0032 -0.2629 -0.7303
 2216SOL     OW13508   6.530   7.390   9.786 -0.0063 -0.0834  0.3181
 2216SOL    HW113509   6.607   7.404   9.842  0.8153 -0.5572 -0.6661
 2216SOL    HW213510   6.512   7.297   9.793  1.9976 -0.8033 -2.5135
 2217SOL     OW13511   6.078   6.528   8.819  0.0895 -0.0323 -0.4235
 2217SOL    HW113512   6.006   6.495   8.873  0.6999  0.6133  0.8194
 2217SOL    HW213513   6.149   6.464   8.831  1.1631  1.4532  1.7352
 2218SOL     OW13514  11.047   9.924   8.633 -0.5712  0.1015 -0.0815
 2218SOL    HW113515  10.957   9.893   8.626  0.0699 -2.2725  0.9777
 2218SOL    HW213516  11.072   9.904   8.724  1.3629 -0.4334 -0.6720
 2219SOL     OW13517   4.134   1.341   2.535  0.9135  0.3840 -0.3302
 2219SOL    HW113518   4.041   1.318   2.532  0.1703  2.9955  0.1618
 2219SOL    HW213519   4.167   1.319   2.448  0.6089 -3.1608  0.3076
 2220SOL     OW13520  10.083   1.602   8.215  0.0787 -0.1418  0.0481
 2220SOL    HW113521  10.057   1.511   8.231 -1.0755  0.2928  0.8239
 2220SOL    HW213522  10.018   1.635   8.154 -0.0679  0.4240  0.5030
 2221SOL     OW13523   8.511   4.557   5.094  0.1186  0.1752  0.1888
 2221SOL    HW113524   8.449   4.623   5.125  0.7693  0.9053 -0.0394
 2221SOL    HW213525   8.559   4.601   5.024 -1.1550 -1.3450 -1.7603
 2222SOL     OW13526   1.010  10.722   6.404  0.1284  0.2191  0.2899
 2222SOL    HW113527   1.028  10.814   6.384  0.8211 -0.1789 -1.0428
 2222SOL    HW213528   1.060  10.673   6.338 -0.4554 -1.1084  0.7997
 2223SOL     OW13529   6.996   5.460   2.211 -0.3941  0.1215  0.1092
 2223SOL    HW113530   6.971   5.380   2.258 -1.6033  0.5962  0.3209
 2223SOL    HW213531   7.056   5.430   2.142 -1.4088 -1.0913 -0.2917
 2224SOL     OW13532   2.343   6.472   6.335  0.2435  0.1562 -0.6672
 2224SOL    HW113533   2.279   6.408   6.365  0.5882  0.2139  0.2306
 2224SOL    HW213534   2.348   6.460   6.240 -1.0674  0.1321 -0.7453
 2225SOL     OW13535   0.131   7.803  12.307 -0.0682  0.9535 -0.7296
 2225SOL    HW113536   0.213   7.852  12.313  1.3255 -1.3451  0.7797
 2225SOL    HW213537   0.146   7.740  12.237 -0.9996  1.2027 -1.1738
 2226SOL     OW13538   5.218  12.236   5.014 -0.4563 -0.0403  0.3839
 2226SOL    HW113539   5.213  12.211   4.922 -0.1162  3.4510 -0.7138
 2226SOL    HW213540   5.291  12.184   5.048 -2.1871 -3.3571 -0.4605
 2227SOL     OW13541  10.299   1.322   7.759 -0.5667 -0.6502 -0.4892
 2227SOL    HW113542  10.267   1.236   7.788  0.1981 -0.9737 -0.5641
 2227SOL    HW213543  10.373   1.341   7.817 -1.5755  0.6064  0.4242
 2228SOL     OW13544   9.717   7.849   6.467 -0.0757 -0.2129  0.2227
 2228SOL    HW113545   9.791   7.799   6.432  0.1407  0.7409 -0.7665
 2228SOL    HW213546   9.643   7.821   6.413  0.5358  2.3596 -2.2503
 2229SOL     OW13547   3.851   9.417   2.505  0.4658 -0.2219 -0.0998
 2229SOL    HW113548   3.825   9.478   2.574 -0.1802  1.6602 -1.9043
 2229SOL    HW213549   3.930   9.456   2.467  1.5325 -1.8711  0.3260
 2230SOL     OW13550   8.158   1.975   6.492  0.5470 -0.4340  0.0486
 2230SOL    HW113551   8.226   1.978   6.425 -0.1727  0.9634 -0.6652
 2230SOL    HW213552   8.090   1.919   6.454 -0.2180  1.0167 -0.7734
 2231SOL     OW13553   4.175   8.495   1.063  0.2842  0.9397 -0.0944
 2231SOL    HW113554   4.231   8.548   1.007  0.0933  1.1679 -0.0695
 2231SOL    HW213555   4.154   8.418   1.009  0.3194  1.0318 -0.2392
 2232SOL     OW13556   3.703   9.110   8.980 -0.5052 -0.2812  0.2029
 2232SOL    HW113557   3.622   9.064   9.004  0.1874 -2.2240 -0.9094
 2232SOL    HW213558   3.679   9.164   8.905 -1.1350  0.5334  0.9664
 2233SOL     OW13559   6.633   9.343   7.715 -0.3425 -0.1962 -0.0033
 2233SOL    HW113560   6.540   9.355   7.697 -0.1920 -0.9567 -1.5458
 2233SOL    HW213561   6.636   9.306   7.803 -1.4227  0.6900  0.4339
 2234SOL     OW13562  10.390   6.890   8.154  0.4455  0.3778  0.5780
 2234SOL    HW113563  10.437   6.958   8.106  0.6672  0.0630  0.3488
 2234SOL    HW213564  10.343   6.841   8.087  0.7922 -0.0941  0.6706
 2235SOL     OW13565   6.241   1.253   4.604 -0.4601  0.9622 -0.0091
 2235SOL    HW113566   6.249   1.342   4.636  1.1681  1.0961 -0.7006
 2235SOL    HW213567   6.329   1.217   4.609 -0.4989  0.3505 -2.4153
 2236SOL     OW13568  11.981   8.078  11.994 -0.2819 -0.1211 -0.3262
 2236SOL    HW113569  11.912   8.145  11.993 -1.2875 -1.0749 -2.2357
 2236SOL    HW213570  11.960   8.023  12.069 -0.3732  0.7643  0.3212
 2237SOL     OW13571  10.358   6.831   3.035 -0.0272 -0.3096  0.5617
 2237SOL    HW113572  10.294   6.765   3.060 -1.4598  1.2050  1.1042
 2237SOL    HW213573  10.431   6.819   3.096  0.1239 -1.9126  0.0903
 2238SOL     OW13574   8.480   9.968  12.261 -0.2943  0.1575  0.2956
 2238SOL    HW113575   8.565  10.012  12.258  1.1680 -2.4643 -2.2780
 2238SOL    HW213576   8.419  10.033  12.226  1.0843  1.3268 -0.0549
 2239SOL     OW13577  10.547   1.319   5.274  0.5437  0.3361 -0.5016
 2239SOL    HW113578  10.572   1.389   5.214  0.4311  0.3808 -0.4956
 2239SOL    HW213579  10.472   1.353   5.321 -0.5668 -0.4054 -1.6550
 2240SOL     OW13580   2.588   5.078   9.971  0.0177 -0.4583 -0.2779
 2240SOL    HW113581   2.617   5.051   9.884  1.0964 -0.4221  0.0612
 2240SOL    HW213582   2.561   5.169   9.960  1.7918  0.1093 -0.2335
 2241SOL     OW13583   0.588   1.141   9.628 -0.3060 -0.1276  0.3058
 2241SOL    HW113584   0.573   1.069   9.567  1.8441 -0.6068  0.2524
 2241SOL    HW213585   0.531   1.123   9.702 -0.7697 -1.1668 -0.2909
 2242SOL     OW13586   5.393   4.577   6.398  0.3868  0.0499  0.3544
 2242SOL    HW113587   5.379   4.506   6.336  0.8415 -0.3972  0.7557
 2242SOL    HW213588   5.488   4.579   6.411  0.2392 -0.3584  1.6124
 2243SOL     OW13589   2.667  11.758  11.025 -0.2741  0.3868 -0.0215
 2243SOL    HW113590   2.656  11.684  10.965 -0.0924  0.3780 -0.0446
 2243SOL    HW213591   2.759  11.753  11.052 -0.2175  0.7022 -0.1495
 2244SOL     OW13592   6.630   5.161   1.956  0.0883  0.0290 -0.4886
 2244SOL    HW113593   6.583   5.089   1.913  0.5156  0.1434 -1.1648
 2244SOL    HW213594   6.576   5.238   1.940  0.2187  0.0613 -0.7760
 2245SOL     OW13595   9.176   5.621   5.977 -0.1302  0.0879  0.3272
 2245SOL    HW113596   9.261   5.657   5.951  0.0725 -0.1497  0.6630
 2245SOL    HW213597   9.186   5.597   6.069 -0.7173  0.5267  0.5189
 2246SOL     OW13598   7.820   3.463   9.885  0.6399  0.2639  0.0371
 2246SOL    HW113599   7.813   3.555   9.858  0.6384 -0.0651 -1.1444
 2246SOL    HW213600   7.856   3.418   9.808  1.4883 -0.5795  0.9046
 2247SOL     OW13601   0.672   3.513   2.348 -0.0049  0.2003 -0.0647
 2247SOL    HW113602   0.622   3.592   2.329  0.1532  0.7050  1.4647
 2247SOL    HW213603   0.762   3.542   2.355 -0.0005  0.0054  0.9661
 2248SOL     OW13604   9.071   6.435   3.151  0.1454 -0.6698  0.0754
 2248SOL    HW113605   9.023   6.455   3.231 -2.4694 -1.7187 -1.1160
 2248SOL    HW213606   9.152   6.394   3.181 -1.1544 -1.8592  2.2139
 2249SOL     OW13607   1.482   7.808   6.288  0.3545 -0.3476 -0.4356
 2249SOL    HW113608   1.475   7.713   6.274  0.2193 -0.3583 -0.3004
 2249SOL    HW213609   1.475   7.845   6.200 -1.8119 -0.3420 -0.3204
 2250SOL     OW13610   7.868   6.205   3.875 -0.0505 -0.5281  0.0319
 2250SOL    HW113611   7.879   6.300   3.881  1.3818 -0.6302 -0.5838
 2250SOL    HW213612   7.784   6.188   3.918 -1.1157  1.1894 -1.2042
 2251SOL     OW13613   3.218   3.135   9.779  0.6459 -0.2151  0.1798
 2251SOL    HW113614   3.213   3.230   9.763  1.8717 -0.1239  0.2068
 2251SOL    HW213615   3.146   3.117   9.838  0.5825  0.7651  0.4261
 2252SOL     OW13616   3.414   7.973   1.470  0.4264 -0.5502 -0.3478
 2252SOL    HW113617   3.416   8.000   1.562  0.9195  0.0388 -0.5214
 2252SOL    HW213618   3.347   7.904   1.466 -0.7864  0.5585  0.1412
 2253SOL     OW13619   5.474   1.977   9.196  0.7063  0.0554 -0.1534
 2253SOL    HW113620   5.414   2.007   9.128  1.6105  1.3931 -0.4080
 2253SOL    HW213621   5.515   1.898   9.161  0.3215  0.0892 -0.6741
 2254SOL     OW13622   0.903   0.710   2.397 -0.0193  0.6381  0.1297
 2254SOL    HW113623   0.972   0.748   2.451  0.5954  1.3683 -1.1212
 2254SOL    HW213624   0.834   0.686   2.459 -0.4176  3.7287  1.0708
 2255SOL     OW13625   7.117   3.149   8.617  0.4983  0.5138  0.4103
 2255SOL    HW113626   7.129   3.182   8.706 -1.2984  3.7317 -0.3779
 2255SOL    HW213627   7.033   3.104   8.618 -0.6968  2.5812 -0.0294
 2256SOL     OW13628   1.078   7.799   5.880 -0.1061  0.4213  0.0968
 2256SOL    HW113629   1.080   7.703   5.876  2.1614  0.2934  2.0768
 2256SOL    HW213630   0.992   7.820   5.915 -1.4523 -0.6980 -2.2619
 2257SOL     OW13631   8.674  10.954   8.639 -0.3972 -0.3856  0.1103
 2257SOL    HW113632   8.623  10.994   8.709 -0.1874 -0.0987  0.0983
 2257SOL    HW213633   8.611  10.899   8.592 -1.0971  1.2488 -0.9344
 2258SOL     OW13634   7.369   7.928   8.882  0.3745 -0.0017  0.2119
 2258SOL    HW113635   7.459   7.940   8.910  0.3684 -0.4030  0.4174
 2258SOL    HW213636   7.324   8.007   8.911  0.6723  0.2344  0.0400
 2259SOL     OW13637   6.094   9.914   2.555  0.3617  0.3227  0.1492
 2259SOL    HW113638   6.010   9.950   2.527  0.4955  1.0647  0.6428
 2259SOL    HW213639   6.072   9.844   2.617  0.1008  0.1594 -0.1300
 2260SOL     OW13640  10.015   1.831   1.992 -0.2063 -0.1991 -0.0603
 2260SOL    HW113641  10.040   1.817   1.900  0.3779  2.4635 -0.3853
 2260SOL    HW213642  10.092   1.805   2.042  0.5889  1.1014 -0.5658
 2261SOL     OW13643  11.702  12.358   0.873  0.0023 -0.1936  0.6953
 2261SOL    HW113644  11.754  12.427   0.833 -1.8385  0.7543 -0.1741
 2261SOL    HW213645  11.687  12.387   0.963 -0.0699  0.1511  0.5731
 2262SOL     OW13646   3.718   5.425  11.137  0.1228 -0.2131  0.0276
 2262SOL    HW113647   3.798   5.475  11.126 -1.9193  3.3236 -0.3506
 2262SOL    HW213648   3.681   5.457  11.219 -1.2776 -1.1817 -0.1862
 2263SOL     OW13649   3.870   7.087   1.126 -0.0706 -0.3763  0.8619
 2263SOL    HW113650   3.920   7.085   1.208  0.2800 -0.0165  0.6575
 2263SOL    HW213651   3.818   7.006   1.128  0.3664 -0.6539  1.1717
 2264SOL     OW13652   0.658   2.847  10.663 -0.4268  0.0588 -0.3279
 2264SOL    HW113653   0.617   2.768  10.628  1.4069 -1.2877  0.4424
 2264SOL    HW213654   0.749   2.823  10.679 -0.3359  1.6110  2.0958
 2265SOL     OW13655   7.970  10.738   2.878  0.2537  0.1152 -0.2552
 2265SOL    HW113656   8.038  10.709   2.938  0.0056  1.2911  0.6341
 2265SOL    HW213657   8.015  10.747   2.794  0.4474 -2.2046 -0.4633
 2266SOL     OW13658   1.754   0.332   5.589 -0.1952  0.1687 -0.1669
 2266SOL    HW113659   1.749   0.328   5.494 -1.1994 -0.1419 -0.1222
 2266SOL    HW213660   1.813   0.262   5.614  1.2160  1.1598 -0.6210
 2267SOL     OW13661   3.862  12.343  12.473  0.4242 -0.1003 -0.2379
 2267SOL    HW113662   3.846  12.430  12.508  2.0565  0.4222 -0.7089
 2267SOL    HW213663   3.956  12.341  12.454  0.6221 -2.2704  0.6093
 2268SOL     OW13664   8.364   3.005   8.717 -0.6854  0.1042 -0.3354
 2268SOL    HW113665   8.306   2.931   8.699 -0.1592 -0.0438 -1.5550
 2268SOL    HW213666   8.394   2.992   8.807 -1.7834 -0.3350 -0.0299
 2269SOL     OW13667   4.257   2.647   1.318 -0.3698 -0.3545  0.3573
 2269SOL    HW113668   4.191   2.647   1.249  1.3763 -0.1158 -1.4138
 2269SOL    HW213669   4.292   2.736   1.318 -0.5958 -0.2538  1.8302
 2270SOL     OW13670   9.032  10.753  10.599  0.1343 -0.3867  0.6599
 2270SOL    HW113671   9.113  10.753  10.548 -0.5222  0.6156 -0.4439
 2270SOL    HW213672   9.043  10.824  10.661 -0.7002  1.2271 -0.9334
 2271SOL     OW13673   7.241   5.585   3.698 -0.2440 -0.2288  0.3461
 2271SOL    HW113674   7.282   5.507   3.661 -0.3833 -0.5206  0.8039
 2271SOL    HW213675   7.220   5.561   3.788  1.2279  0.8954  1.0126
 2272SOL     OW13676   4.272   9.499   3.913  0.0704 -0.2469 -0.5903
 2272SOL    HW113677   4.276   9.404   3.925 -0.9122 -0.0430  1.8399
 2272SOL    HW213678   4.282   9.535   4.001  1.1822  1.9689 -1.5328
 2273SOL     OW13679   7.321   8.637   9.671 -0.0186 -0.3076 -0.4485
 2273SOL    HW113680   7.251   8.584   9.634 -0.5327 -0.6418  0.9476
 2273SOL    HW213681   7.278   8.717   9.700  0.0814 -0.6633  0.7434
 2274SOL     OW13682   9.917  10.233   2.960  0.4178  0.1600 -0.2688
 2274SOL    HW113683   9.945  10.209   2.872  1.3262  0.3524 -0.0540
 2274SOL    HW213684   9.822  10.237   2.956  0.3811 -1.0318 -0.9218
 2275SOL     OW13685   6.025  11.752   9.397 -0.0291 -0.7953 -0.1882
 2275SOL    HW113686   6.084  11.796   9.459  0.6849 -0.6835 -0.9377
 2275SOL    HW213687   5.973  11.693   9.452 -0.1126  0.0402  0.6588
 2276SOL     OW13688   0.224  11.712   4.968 -0.0234 -0.0232 -0.4975
 2276SOL    HW113689   0.197  11.753   4.885 -0.6570 -2.5396 -1.6236
 2276SOL    HW213690   0.315  11.739   4.980 -0.1505  0.9962 -1.5952
 2277SOL     OW13691   5.721   6.157  12.078  0.3503  0.1743 -0.1918
 2277SOL    HW113692   5.711   6.251  12.063  3.6870  0.8888  1.3246
 2277SOL    HW213693   5.698   6.144  12.170  0.2899 -0.4484 -0.2874
 2278SOL     OW13694  11.462   8.537  10.341 -0.2290 -0.0180 -0.1401
 2278SOL    HW113695  11.418   8.603  10.396 -0.2909 -0.1765  0.0010
 2278SOL    HW213696  11.393   8.475  10.320 -0.0220 -0.3829  0.2565
 2279SOL     OW13697   1.608   6.236   3.829  0.7114  0.0891 -0.1845
 2279SOL    HW113698   1.603   6.234   3.734  2.0284 -0.0305 -0.2742
 2279SOL    HW213699   1.579   6.325   3.853  2.7037  0.9880 -0.9012
 2280SOL     OW13700   5.443   7.415   8.298  0.0970 -0.2759  0.4789
 2280SOL    HW113701   5.483   7.487   8.249  1.4987  0.8712  3.0993
 2280SOL    HW213702   5.356   7.405   8.258  0.2738  2.1191 -0.7105
 2281SOL     OW13703  10.335   6.562   4.419  0.2213 -0.4946  0.6679
 2281SOL    HW113704  10.322   6.557   4.325 -0.5624 -0.3005  0.7622
 2281SOL    HW213705  10.426   6.536   4.432  1.1319  1.8157 -0.3903
 2282SOL     OW13706   4.697   9.175  10.733  0.0023  0.5553  0.5357
 2282SOL    HW113707   4.652   9.259  10.746 -1.3283 -0.3697  2.2202
 2282SOL    HW213708   4.781   9.186  10.777  0.2315  1.3040 -0.0668
 2283SOL     OW13709   4.217  11.744   2.698  0.1464  0.3718  0.1628
 2283SOL    HW113710   4.301  11.699   2.712 -0.0090 -0.1767 -0.5580
 2283SOL    HW213711   4.241  11.825   2.653  0.2676  0.0753 -0.3129
 2284SOL     OW13712   6.360   7.057   5.450  0.0736  0.3355  0.3363
 2284SOL    HW113713   6.384   7.128   5.390  0.1547 -1.0551 -1.3574
 2284SOL    HW213714   6.265   7.050   5.441  0.0478  0.3129  0.6159
 2285SOL     OW13715   4.959   7.501  10.097  0.2436  0.2700  0.0489
 2285SOL    HW113716   4.918   7.420  10.126 -0.3617  0.6602  0.2960
 2285SOL    HW213717   4.904   7.570  10.133  0.3941  0.7842 -0.6822
 2286SOL     OW13718   6.614   1.473   6.661 -0.1482  0.0206  0.4505
 2286SOL    HW113719   6.691   1.415   6.663 -0.6957 -0.8040 -1.0469
 2286SOL    HW213720   6.635   1.539   6.595 -0.8010 -0.3236 -0.1048
 2287SOL     OW13721   4.257   0.379   6.725  0.1822 -0.3819 -0.1499
 2287SOL    HW113722   4.193   0.387   6.796  0.2633 -0.9452 -0.0030
 2287SOL    HW213723   4.238   0.294   6.686 -0.6369  0.4288 -1.5955
 2288SOL     OW13724   6.074   8.338   5.334 -0.3604 -0.0173 -0.2423
 2288SOL    HW113725   6.150   8.385   5.301  1.0707 -1.6444  0.5244
 2288SOL    HW213726   6.080   8.346   5.429 -0.7844 -0.6813 -0.1490
 2289SOL     OW13727  10.057   4.528   2.174  0.2207  0.1677 -0.2827
 2289SOL    HW113728  10.065   4.443   2.217 -1.7004  0.8108  1.4931
 2289SOL    HW213729  10.143   4.543   2.136  1.3853 -1.4368  1.5043
 2290SOL     OW13730   8.603  10.016   2.479  0.6247  0.2710  0.2289
 2290SOL    HW113731   8.521  10.023   2.431  1.2708 -1.0404 -1.1817
 2290SOL    HW213732   8.668  10.059   2.423  1.4050 -1.3389 -0.1849
 2291SOL     OW13733   5.097  10.871  11.442 -0.7038 -0.6361 -0.5240
 2291SOL    HW113734   5.066  10.944  11.389 -1.7623 -0.9683 -0.3886
 2291SOL    HW213735   5.018  10.836  11.483 -0.1987 -1.7750 -0.4780
 2292SOL     OW13736   3.031   3.456   2.423 -0.4854  0.2039 -0.5953
 2292SOL    HW113737   2.975   3.470   2.500 -0.0545  2.7407 -0.6783
 2292SOL    HW213738   3.102   3.519   2.433 -0.0364  0.1060 -2.7409
 2293SOL     OW13739   5.227   7.576  10.060  0.3350  0.5399 -0.2968
 2293SOL    HW113740   5.249   7.491  10.022  1.0832  0.3557  0.5140
 2293SOL    HW213741   5.133   7.570  10.080  0.4492 -0.2301  0.0646
 2294SOL     OW13742   3.884  10.956   0.617  0.1251 -0.1309 -0.4662
 2294SOL    HW113743   3.967  10.949   0.571  0.7488 -1.0242  0.7367
 2294SOL    HW213744   3.819  10.967   0.548  1.2508  0.8368 -1.4163
 2295SOL     OW13745   3.547   8.014   9.426 -0.0980  0.8698  0.8782
 2295SOL    HW113746   3.586   8.026   9.340  0.3131  0.9530  1.0742
 2295SOL    HW213747   3.525   8.102   9.456  0.6160  0.9252  1.2522
 2296SOL     OW13748   6.404   0.689   9.644  1.0146 -0.0702 -0.5885
 2296SOL    HW113749   6.345   0.671   9.718  2.5145 -0.7031  0.5042
 2296SOL    HW213750   6.345   0.708   9.571 -0.5280  1.4780  0.9510
 2297SOL     OW13751   3.350   8.462   7.514  0.3925 -0.1948 -0.1046
 2297SOL    HW113752   3.314   8.484   7.600  0.6770 -2.9031  0.7959
 2297SOL    HW213753   3.397   8.541   7.487 -0.6330  1.1157  1.6856
 2298SOL     OW13754   7.762   4.422   9.091  0.7950  0.1890 -0.3228
 2298SOL    HW113755   7.673   4.435   9.124  1.1221  1.2760  0.2014
 2298SOL    HW213756   7.758   4.341   9.041 -0.5475  0.3591 -0.5243
 2299SOL     OW13757   3.576   7.602   0.925  0.2306  0.8769 -0.4675
 2299SOL    HW113758   3.611   7.691   0.936 -0.5173  1.0321  0.7975
 2299SOL    HW213759   3.618   7.570   0.845  1.6516  1.8120 -0.1350
 2300SOL     OW13760   1.694  11.470   2.244  0.1649 -0.0301 -0.0682
 2300SOL    HW113761   1.691  11.420   2.163 -1.6049  2.3374 -1.6117
 2300SOL    HW213762   1.743  11.549   2.222  0.4093  0.2721  1.4398
 2301SOL     OW13763   4.711   5.031   2.372  0.0979  0.0223  0.4648
 2301SOL    HW113764   4.669   4.986   2.445  1.0943 -0.2862  0.8682
 2301SOL    HW213765   4.685   4.981   2.295  1.4969 -1.5547  0.9349
 2302SOL     OW13766   7.628   0.146   9.256 -0.4883  0.0611  0.5002
 2302SOL    HW113767   7.692   0.189   9.313 -1.8215  2.0322  0.6435
 2302SOL    HW213768   7.675   0.128   9.175  0.3934  0.9344  0.7990
 2303SOL     OW13769   2.745   4.288   4.690  0.5185 -0.2315 -0.3093
 2303SOL    HW113770   2.833   4.324   4.679 -0.2082  2.7765  2.2801
 2303SOL    HW213771   2.695   4.323   4.616  0.7878  0.7522 -0.0376
 2304SOL     OW13772   7.010   0.042   5.782  0.2335  0.1736  0.0677
 2304SOL    HW113773   7.054   0.103   5.841 -0.9458 -0.1490  1.3176
 2304SOL    HW213774   7.004   0.089   5.699  0.4337  1.2945  0.6703
 2305SOL     OW13775   9.960   1.488   7.620  0.0992  0.1143  0.0923
 2305SOL    HW113776   9.986   1.530   7.538 -2.5426  1.2630 -0.2740
 2305SOL    HW213777  10.023   1.521   7.684  2.2620 -0.8629 -1.4290
 2306SOL     OW13778   1.930   7.887   4.297 -0.2035 -0.2580 -0.5499
 2306SOL    HW113779   1.876   7.872   4.219 -0.8532  1.5909 -0.4940
 2306SOL    HW213780   1.869   7.915   4.364  0.6700  0.7324 -0.1424
 2307SOL     OW13781   6.502   8.168   7.780  0.1750  0.0458 -0.0520
 2307SOL    HW113782   6.596   8.173   7.762  0.5164  1.4283  1.8820
 2307SOL    HW213783   6.465   8.125   7.702  2.7406 -3.3021  0.3537
 2308SOL     OW13784   9.463  10.952   4.140  0.5830  0.0340  0.2230
 2308SOL    HW113785   9.386  11.006   4.162  0.7099 -0.1210  1.0779
 2308SOL    HW213786   9.431  10.862   4.147  0.5605 -0.0260 -0.5162
 2309SOL     OW13787  10.982   6.128  10.083 -0.0339  0.3753 -0.3344
 2309SOL    HW113788  11.031   6.069  10.141 -0.8577  2.3837  2.6790
 2309SOL    HW213789  10.890   6.108  10.102 -0.5681 -1.7480 -4.2045
 2310SOL     OW13790  11.704   9.364   3.599  0.0851  0.1457  0.4012
 2310SOL    HW113791  11.653   9.443   3.581 -0.0553  0.7851  3.1975
 2310SOL    HW213792  11.758   9.352   3.520 -0.0039  2.9217 -0.1779
 2311SOL     OW13793   6.350  10.293   3.212 -0.5307 -0.1145  0.2390
 2311SOL    HW113794   6.313  10.217   3.256 -0.7074  0.2229  0.6763
 2311SOL    HW213795   6.275  10.339   3.174 -0.3709 -0.4544 -0.5034
 2312SOL     OW13796   6.752   6.411   5.145  0.3935 -0.0979 -0.3464
 2312SOL    HW113797   6.748   6.475   5.074 -0.9756 -1.6229 -1.7473
 2312SOL    HW213798   6.678   6.352   5.128  1.2123 -1.6719  1.2223
 2313SOL     OW13799   0.295   9.560  10.481 -0.3245  0.1028 -0.5873
 2313SOL    HW113800   0.279   9.465  10.477 -1.7576  0.2677  0.3604
 2313SOL    HW213801   0.209   9.599  10.462  0.7768  1.3187 -3.7695
 2314SOL     OW13802   7.272   0.734   2.021 -0.1300 -0.4446 -0.3581
 2314SOL    HW113803   7.321   0.655   2.047  0.1152 -0.3799 -0.6203
 2314SOL    HW213804   7.284   0.795   2.094 -1.5926 -1.1949  0.5563
 2315SOL     OW13805  11.116   5.144   7.970 -0.3320 -0.3809 -0.1564
 2315SOL    HW113806  11.185   5.186   7.919 -0.1873  0.5157  0.7499
 2315SOL    HW213807  11.037   5.158   7.919  0.2422 -2.1504 -1.6265
 2316SOL     OW13808   0.847  10.804  12.433 -0.0480  0.0426  0.2902
 2316SOL    HW113809   0.884  10.809  12.345  0.2817 -2.2122  0.2318
 2316SOL    HW213810   0.903  10.860  12.487  0.3607  0.6317 -0.7287
 2317SOL     OW13811   3.780   3.727   3.608 -0.4635 -0.4076  0.4433
 2317SOL    HW113812   3.846   3.766   3.666  0.5441  0.4536 -1.2292
 2317SOL    HW213813   3.704   3.785   3.616  0.7323  1.5604 -1.3773
 2318SOL     OW13814   1.578  10.277  11.501 -0.0624 -0.2635 -0.1944
 2318SOL    HW113815   1.571  10.342  11.431 -0.3896  0.0027  0.0838
 2318SOL    HW213816   1.640  10.316  11.563  1.6335 -1.2731 -1.1743
 2319SOL     OW13817   6.118   7.453   4.923  0.5383 -0.2177 -0.2115
 2319SOL    HW113818   6.119   7.547   4.935  1.2112 -0.4137  1.5447
 2319SOL    HW213819   6.026   7.429   4.926  0.0576  0.6586 -3.7546
 2320SOL     OW13820  10.410  11.923   8.380  0.3015 -0.1991  0.4507
 2320SOL    HW113821  10.451  11.987   8.321  0.8306 -0.0457  0.9804
 2320SOL    HW213822  10.328  11.901   8.336  0.7279 -0.1657 -0.4044
 2321SOL     OW13823   5.455   4.901   6.693 -0.8465  0.1543 -0.1923
 2321SOL    HW113824   5.465   4.973   6.755  0.2544 -0.1365 -0.0014
 2321SOL    HW213825   5.543   4.862   6.688 -0.6363  0.7719 -2.6620
 2322SOL     OW13826   9.755   3.743   4.208  0.1742  0.4472 -0.1437
 2322SOL    HW113827   9.837   3.739   4.257 -0.9189 -1.1201  1.7383
 2322SOL    HW213828   9.747   3.656   4.168 -0.7905  0.3989  0.1300
 2323SOL     OW13829   1.184   7.392   4.881 -0.0356 -1.0182 -0.1880
 2323SOL    HW113830   1.200   7.469   4.935 -1.4201 -0.6489 -0.2629
 2323SOL    HW213831   1.117   7.343   4.928  2.1471 -3.2460  0.8779
 2324SOL     OW13832   9.532   9.958   5.506 -0.1248 -0.4219  0.3612
 2324SOL    HW113833   9.490  10.017   5.568  1.0449  0.6732  0.1560
 2324SOL    HW213834   9.591   9.904   5.559  0.9844  0.6135  0.2302
 2325SOL     OW13835   4.685   7.911  11.625  0.5698  0.2927  0.1526
 2325SOL    HW113836   4.599   7.942  11.595 -0.9747 -1.9398  1.8362
 2325SOL    HW213837   4.671   7.887  11.717  3.4034  1.0837  0.8889
 2326SOL     OW13838   9.357   9.136   4.302 -0.3833 -0.3500 -0.0705
 2326SOL    HW113839   9.449   9.134   4.327 -0.7451  0.0480  1.3642
 2326SOL    HW213840   9.350   9.211   4.243  0.1212 -0.0746  0.2097
 2327SOL     OW13841   7.059  11.888  11.162 -0.0775 -0.2664  0.3284
 2327SOL    HW113842   7.037  11.869  11.071 -1.2799  1.8206  0.1099
 2327SOL    HW213843   7.155  11.883  11.165  0.2656  2.4341 -1.8534
 2328SOL     OW13844   7.673   0.660   8.632 -0.1726  0.0142 -0.8179
 2328SOL    HW113845   7.697   0.698   8.716  1.2072 -0.6252 -0.8934
 2328SOL    HW213846   7.726   0.708   8.568 -0.9504  0.2604 -1.2971
 2329SOL     OW13847   6.997   2.314   9.604 -0.6470 -0.1230  0.1542
 2329SOL    HW113848   6.970   2.389   9.658 -0.5891  0.6379 -0.8433
 2329SOL    HW213849   6.962   2.334   9.517  1.5444 -0.0083 -0.7444
 2330SOL     OW13850  12.025   0.327   7.579  0.7041 -0.1828 -0.1846
 2330SOL    HW113851  12.091   0.333   7.510  0.0710  2.2588 -0.6528
 2330SOL    HW213852  12.036   0.407   7.630 -1.4129 -0.0757  0.1953
 2331SOL     OW13853   6.342   3.783   8.766  0.2917 -0.0687  0.2118
 2331SOL    HW113854   6.381   3.798   8.680 -2.0421  2.1550 -0.5829
 2331SOL    HW213855   6.383   3.848   8.823  0.3203 -0.1267  0.2577
 2332SOL     OW13856  11.216   5.357   7.131 -0.0909 -0.1556 -0.2852
 2332SOL    HW113857  11.127   5.333   7.106  0.2451 -0.6654 -1.0108
 2332SOL    HW213858  11.246   5.415   7.061 -0.0915  0.5705  0.3053
 2333SOL     OW13859   2.391   9.710   6.960 -0.0516  0.1932 -0.7329
 2333SOL    HW113860   2.359   9.764   6.887  1.6216  0.1456 -1.5489
 2333SOL    HW213861   2.485   9.706   6.947  0.4014  0.7866  1.8908
 2334SOL     OW13862  12.473  10.721   0.991  0.2351  0.1533 -0.2878
 2334SOL    HW113863  12.435  10.757   0.910  2.3416  1.8613 -0.5929
 2334SOL    HW213864  12.402  10.726   1.055 -1.0241  0.1848 -1.6306
 2335SOL     OW13865  11.275   7.747   7.692 -0.4843 -0.2021 -0.5723
 2335SOL    HW113866  11.270   7.808   7.618 -1.3054 -0.0289 -0.3871
 2335SOL    HW213867  11.341   7.784   7.749  0.1891 -0.3585 -1.2348
 2336SOL     OW13868   8.675  12.412   7.598 -0.3566  0.5548  0.2277
 2336SOL    HW113869   8.725  12.484   7.560  1.2897 -0.3099  0.6535
 2336SOL    HW213870   8.672  12.432   7.692 -1.2486  0.8314  0.1530
 2337SOL     OW13871   5.291   1.490   7.864 -0.1627 -0.4506 -0.1646
 2337SOL    HW113872   5.221   1.438   7.823 -1.2710  0.7151  0.1751
 2337SOL    HW213873   5.324   1.435   7.934 -1.1354 -0.8119  0.0272
 2338SOL     OW13874   0.658   2.154   9.737  0.6833 -0.3930  0.0996
 2338SOL    HW113875   0.577   2.197   9.765  1.2180 -1.1984  3.2039
 2338SOL    HW213876   0.628   2.078   9.687 -0.5581 -0.9810  1.6515
 2339SOL     OW13877   5.867   1.195   6.273 -0.4013 -0.1580  0.1507
 2339SOL    HW113878   5.796   1.259   6.261 -0.0621  0.3516  0.7936
 2339SOL    HW213879   5.946   1.241   6.244 -0.1117 -0.1649  0.9087
 2340SOL     OW13880   2.581   3.543   9.373 -0.1384  0.2886 -0.5869
 2340SOL    HW113881   2.642   3.470   9.388  0.9952  1.6115  1.8884
 2340SOL    HW213882   2.521   3.511   9.306  1.8168 -1.9795 -1.3887
 2341SOL     OW13883  12.451   6.429  10.166 -0.3142 -0.0976 -0.1182
 2341SOL    HW113884  12.533   6.380  10.164 -0.1279  0.1261 -3.4554
 2341SOL    HW213885  12.469   6.508  10.115 -2.9010 -0.7282 -2.2502
 2342SOL     OW13886   8.809   1.253  11.571  0.3936  0.0660  0.2086
 2342SOL    HW113887   8.881   1.306  11.535  0.7982  0.4620  1.5660
 2342SOL    HW213888   8.741   1.317  11.592  0.1332 -0.1708  0.0920
 2343SOL     OW13889   8.221   7.322  10.085  0.3861 -0.0261  0.3128
 2343SOL    HW113890   8.200   7.258  10.016 -0.5888  0.5252  0.0765
 2343SOL    HW213891   8.299   7.287  10.127  0.6890 -0.6511 -0.7309
 2344SOL     OW13892   0.013   7.974   3.373 -0.6630  0.1778  0.1116
 2344SOL    HW113893   0.050   7.964   3.286 -1.3041 -0.8325 -0.0573
 2344SOL    HW213894   0.053   8.054   3.407  1.5240 -0.7540 -0.1124
 2345SOL     OW13895  11.746  12.453   6.909 -0.1221 -0.4706  0.6866
 2345SOL    HW113896  11.724  12.505   6.832 -0.8672 -1.5315  0.1542
 2345SOL    HW213897  11.676  12.472   6.971  1.8387  2.4534  2.2342
 2346SOL     OW13898  11.789   0.061   3.743 -0.1364  0.5403 -0.3419
 2346SOL    HW113899  11.715   0.101   3.697  1.5086  1.6298 -2.1666
 2346SOL    HW213900  11.793   0.107   3.827 -0.5707  1.5816 -0.8742
 2347SOL     OW13901   1.348   3.896   7.564 -0.1094 -0.0754  0.1379
 2347SOL    HW113902   1.267   3.846   7.551  0.8191 -1.7291  0.4385
 2347SOL    HW213903   1.413   3.850   7.510  0.7866  0.8199  0.4317
 2348SOL     OW13904   5.760  12.239   1.616 -0.3649  0.0507  0.4092
 2348SOL    HW113905   5.747  12.329   1.586  1.8459  0.0847 -0.6912
 2348SOL    HW213906   5.790  12.193   1.537  2.2148 -0.7134  1.7156
 2349SOL     OW13907   1.021   9.911  11.694  0.0453 -0.5685 -0.4263
 2349SOL    HW113908   1.052   9.823  11.716 -1.1009 -0.7608  0.5585
 2349SOL    HW213909   0.995   9.949  11.778 -0.0057  0.5083 -0.9062
 2350SOL     OW13910  11.472   5.895   7.625 -1.1442  0.1090 -0.4163
 2350SOL    HW113911  11.395   5.841   7.640  0.1025 -1.3306  1.1532
 2350SOL    HW213912  11.533   5.838   7.578 -0.6265  0.8784 -0.7112
 2351SOL     OW13913   1.664   4.626   0.300  0.1321 -0.0178 -0.1165
 2351SOL    HW113914   1.685   4.696   0.238  2.2529  1.0162  1.6600
 2351SOL    HW213915   1.574   4.645   0.328 -0.7590 -0.3421 -2.5550
 2352SOL     OW13916   9.869  11.804   3.189 -0.9146 -0.6880  0.0881
 2352SOL    HW113917   9.961  11.830   3.193 -0.7294 -1.4202  1.1237
 2352SOL    HW213918   9.861  11.753   3.108 -0.2888 -1.0169  0.2307
 2353SOL     OW13919   1.849   6.144   9.837 -0.2788 -0.3435 -0.4584
 2353SOL    HW113920   1.841   6.189   9.920  2.5078 -2.8676  1.4032
 2353SOL    HW213921   1.923   6.187   9.793 -0.2442 -0.4988 -0.5549
 2354SOL     OW13922  10.937   8.964   3.042 -0.0465 -0.3211  0.7313
 2354SOL    HW113923  10.900   9.038   3.090  2.0897  0.7355  0.8501
 2354SOL    HW213924  10.927   8.988   2.950 -1.2683 -0.9089  0.6812
 2355SOL     OW13925  12.442   7.812   5.188  0.3547  0.3888 -0.1825
 2355SOL    HW113926  12.421   7.783   5.100  0.7665  0.3912 -0.2832
 2355SOL    HW213927  12.484   7.736   5.229  2.0747  1.0074 -0.6680
 2356SOL     OW13928   7.359  11.924  10.261  0.2633 -0.0529 -0.0385
 2356SOL    HW113929   7.345  12.012  10.227 -0.0826  0.3704  1.1526
 2356SOL    HW213930   7.290  11.912  10.326  0.6554 -0.9911  0.2292
 2357SOL     OW13931   1.935   5.136   3.548  0.4272  0.2653 -0.2496
 2357SOL    HW113932   2.016   5.086   3.548  0.4720  0.3339 -0.5691
 2357SOL    HW213933   1.951   5.209   3.488 -0.0675 -0.0531 -0.7828
 2358SOL     OW13934  10.677   0.586   6.403 -0.3998  0.6360  0.1625
 2358SOL    HW113935  10.711   0.590   6.492  1.3465  1.2428 -0.4964
 2358SOL    HW213936  10.755   0.576   6.348 -1.5626 -2.8768 -1.1468
 2359SOL     OW13937   4.731   8.495  11.411  0.4600  0.3517 -0.1914
 2359SOL    HW113938   4.667   8.435  11.449 -0.1443  0.9786 -0.2059
 2359SOL    HW213939   4.751   8.556  11.482 -1.0755  1.8595 -0.9770
 2360SOL     OW13940   5.975   3.650   5.250 -0.5318  0.0040  0.2395
 2360SOL    HW113941   6.005   3.677   5.337  0.4041 -2.0472  0.6135
 2360SOL    HW213942   6.055   3.627   5.203 -1.2178 -2.1540  0.0251
 2361SOL     OW13943   5.005   4.778   7.261 -0.0319 -0.3767  0.0567
 2361SOL    HW113944   5.054   4.804   7.339 -0.0114 -0.3960  0.0503
 2361SOL    HW213945   4.968   4.693   7.283  1.1089 -1.0289 -0.4593
 2362SOL     OW13946   6.000   0.593  10.353 -0.1163  0.5839 -0.1777
 2362SOL    HW113947   6.006   0.513  10.406 -0.3002 -0.6633 -1.9454
 2362SOL    HW213948   5.954   0.655  10.409 -1.2275 -0.9998  0.7647
 2363SOL     OW13949   7.137   1.253   4.100  0.7090 -0.0057  0.0946
 2363SOL    HW113950   7.043   1.245   4.084  1.1262 -2.3189 -1.6895
 2363SOL    HW213951   7.146   1.258   4.195 -1.2522  1.6223  0.2549
 2364SOL     OW13952   1.756  11.074  10.248  0.0084 -0.0001  0.0269
 2364SOL    HW113953   1.698  10.998  10.238 -0.9085  0.4588  1.6178
 2364SOL    HW213954   1.731  11.132  10.176 -0.2561 -0.5912 -0.3711
 2365SOL     OW13955  10.437  11.196  10.920  0.1890  0.8679  0.2973
 2365SOL    HW113956  10.529  11.197  10.894  0.1960  2.2611  0.2567
 2365SOL    HW213957  10.418  11.287  10.943 -0.4631  0.1584  2.8805
 2366SOL     OW13958   5.026   1.230   7.996  0.4774  0.0062 -0.1880
 2366SOL    HW113959   4.949   1.243   7.942  0.4037 -1.3572 -0.4624
 2366SOL    HW213960   5.015   1.289   8.070 -1.3368 -0.8617  0.2957
 2367SOL     OW13961   8.700   3.117   0.157 -0.2524 -0.8037 -0.1454
 2367SOL    HW113962   8.673   3.048   0.096  0.6544 -0.2498 -1.2264
 2367SOL    HW213963   8.722   3.071   0.238 -1.9649 -1.5133 -0.0581
 2368SOL     OW13964  12.273  11.167  12.450  0.1091  0.1585  0.3460
 2368SOL    HW113965  12.223  11.114  12.388 -1.3969  0.2414  1.4489
 2368SOL    HW213966  12.220  11.246  12.463  1.1370  0.8366  0.5942
 2369SOL     OW13967   2.549   0.783  11.327 -0.6061  0.2232 -0.0826
 2369SOL    HW113968   2.604   0.723  11.377 -1.2689 -0.7868 -0.5568
 2369SOL    HW213969   2.501   0.833  11.393  2.0094  2.2853  0.4207
 2370SOL     OW13970  10.867   4.893  12.343 -0.6591  0.2342  0.3051
 2370SOL    HW113971  10.930   4.900  12.272 -1.0789  1.7583  0.0305
 2370SOL    HW213972  10.914   4.849  12.414  0.5337  0.8605 -0.0748
 2371SOL     OW13973   4.651   3.991   4.416  0.0141 -0.2174 -0.3596
 2371SOL    HW113974   4.690   4.013   4.332 -1.4573 -0.3717 -1.1139
 2371SOL    HW213975   4.587   4.061   4.431  0.5754  0.0610  0.8724
 2372SOL     OW13976   0.522   1.088   3.361  0.5285  0.1272 -0.2101
 2372SOL    HW113977   0.608   1.082   3.402  0.5480 -0.3729 -0.3180
 2372SOL    HW213978   0.487   1.171   3.392  0.6750 -0.0911  0.5688
 2373SOL     OW13979   4.333   5.753   4.099 -0.2125 -0.6492  0.0399
 2373SOL    HW113980   4.313   5.674   4.148  1.0242 -0.8466  0.2631
 2373SOL    HW213981   4.256   5.768   4.045 -1.6201 -0.4405  1.9897
 2374SOL     OW13982   6.660   1.935   4.845  0.5038  0.0405  0.0556
 2374SOL    HW113983   6.622   2.003   4.789 -0.9616 -0.4626  0.4003
 2374SOL    HW213984   6.644   1.854   4.797  1.3236 -0.1720  0.1284
 2375SOL     OW13985   3.199   4.829  11.698 -0.0040 -0.0650  0.4975
 2375SOL    HW113986   3.131   4.874  11.649  0.1944 -0.2880  0.0101
 2375SOL    HW213987   3.231   4.762  11.638 -0.7130 -1.2720  1.4038
 2376SOL     OW13988   9.127   2.196   6.479 -0.4232 -0.2264  0.2275
 2376SOL    HW113989   9.222   2.189   6.466 -0.0212  1.4991  1.8071
 2376SOL    HW213990   9.093   2.228   6.396  0.4980 -0.0469 -0.0919
 2377SOL     OW13991   1.175   3.473   6.538 -0.6410  0.0015  0.0708
 2377SOL    HW113992   1.199   3.439   6.452 -1.3311 -0.4911  0.0697
 2377SOL    HW213993   1.114   3.545   6.519 -0.1404  0.4465  0.1219
 2378SOL     OW13994   8.943   4.938   8.682 -0.2604  0.2830 -0.4582
 2378SOL    HW113995   8.955   4.890   8.764  1.2917  0.0199 -0.8065
 2378SOL    HW213996   8.903   5.021   8.709  1.4760  0.7791  0.7730
 2379SOL     OW13997  11.928   4.834   9.329  0.0658 -0.1677  0.3444
 2379SOL    HW113998  11.853   4.796   9.375  0.0961 -1.1182 -0.3552
 2379SOL    HW213999  12.004   4.807   9.380  0.0730 -0.9143 -0.0431
 2380SOL     OW14000   4.131   4.355   9.360  0.0234  0.0499 -0.2183
 2380SOL    HW114001   4.118   4.396   9.274  2.4058  1.4143 -0.0231
 2380SOL    HW214002   4.205   4.295   9.346  0.2432  0.0697  0.7863
 2381SOL     OW14003   2.128   6.935   7.082 -0.0981  0.3890  0.4953
 2381SOL    HW114004   2.138   6.840   7.089 -0.3821  0.3909  1.0444
 2381SOL    HW214005   2.158   6.956   6.994 -0.1172 -0.2236  0.3344
 2382SOL     OW14006  11.804   8.843   6.703 -0.4113 -0.5294 -1.0910
 2382SOL    HW114007  11.712   8.865   6.686 -0.4211  0.3329 -0.0596
 2382SOL    HW214008  11.842   8.925   6.737  0.4355 -1.1948 -0.3935
 2383SOL     OW14009   2.373  11.802  10.618  0.2067 -0.4537  0.4451
 2383SOL    HW114010   2.333  11.887  10.638  2.8429  0.6209  1.6780
 2383SOL    HW214011   2.383  11.802  10.523 -0.0225  0.5599  0.4055
 2384SOL     OW14012   2.740   8.622   0.061 -0.3243  0.0877 -0.2065
 2384SOL    HW114013   2.681   8.653   0.129  0.0692  0.1924  0.0916
 2384SOL    HW214014   2.819   8.676   0.071 -0.3965  0.3443 -0.9704
 2385SOL     OW14015  11.786   6.412  10.862 -0.2207 -0.0983 -0.3684
 2385SOL    HW114016  11.879   6.387  10.861  0.5876  2.5849  0.1064
 2385SOL    HW214017  11.768   6.429  10.955 -0.9272  0.2712 -0.5746
 2386SOL     OW14018   4.105   3.302   4.469 -0.4272 -0.1111 -0.0645
 2386SOL    HW114019   4.112   3.255   4.553 -1.8618 -0.3206 -0.0275
 2386SOL    HW214020   4.191   3.293   4.429 -0.0227 -0.9088  0.9300
 2387SOL     OW14021   9.208   1.611   4.624  0.0921 -0.0976  0.1902
 2387SOL    HW114022   9.132   1.579   4.576  1.8923 -4.2889 -0.2812
 2387SOL    HW214023   9.220   1.701   4.593 -2.6666 -0.4037 -2.1832
 2388SOL     OW14024   8.762   1.227   5.268 -0.0438  0.4890  0.1380
 2388SOL    HW114025   8.786   1.317   5.288  0.0985  0.2622  1.0480
 2388SOL    HW214026   8.825   1.199   5.202  0.7947  0.6233  0.8630
 2389SOL     OW14027   9.977   8.410   6.755  0.2837 -0.2331  0.4119
 2389SOL    HW114028   9.882   8.405   6.763  0.3675  0.5831  2.3761
 2389SOL    HW214029  10.010   8.377   6.838  1.6085  2.3440  1.0103
 2390SOL     OW14030   6.646   5.718  11.724  0.3420 -0.3739  0.4082
 2390SOL    HW114031   6.652   5.630  11.761  1.1047 -1.9571 -3.0853
 2390SOL    HW214032   6.553   5.729  11.702  0.7304 -2.0633 -2.6382
 2391SOL     OW14033   5.721   5.680   7.171 -0.2630  0.6516 -0.5598
 2391SOL    HW114034   5.678   5.625   7.236  3.4634 -1.9126  0.0753
 2391SOL    HW214035   5.661   5.753   7.157 -3.3107 -1.0565  2.2675
 2392SOL     OW14036   6.045  10.436   9.832  0.3359 -0.2379  0.0532
 2392SOL    HW114037   6.028  10.355   9.881  2.2199 -0.2754  0.7125
 2392SOL    HW214038   6.023  10.414   9.741  1.1990 -1.6275  0.1537
 2393SOL     OW14039   6.850   1.105   1.477 -0.2935 -0.5810  0.3569
 2393SOL    HW114040   6.815   1.051   1.406  0.4716  0.0180 -0.4929
 2393SOL    HW214041   6.945   1.101   1.465 -0.1890  0.1117  0.9199
 2394SOL     OW14042   8.032   6.096   8.532  0.8481 -0.0942  0.3582
 2394SOL    HW114043   8.101   6.140   8.482  1.3353 -0.9199  0.2968
 2394SOL    HW214044   8.079   6.048   8.600  0.3343 -0.6495  0.3246
 2395SOL     OW14045   9.159   9.150  10.281  0.5613  0.2735  0.1310
 2395SOL    HW114046   9.173   9.208  10.206  0.7825  0.1065  0.0446
 2395SOL    HW214047   9.133   9.066  10.243  1.0343  0.0789  0.2213
 2396SOL     OW14048   8.327  10.212   6.259 -0.1588 -0.2799 -0.1278
 2396SOL    HW114049   8.391  10.270   6.218 -0.2703  0.7618  1.1171
 2396SOL    HW214050   8.376  10.133   6.280  0.5699  0.2561  0.2219
 2397SOL     OW14051   5.435   4.497   2.143  0.6654 -0.2109  0.2061
 2397SOL    HW114052   5.407   4.583   2.175  0.9329  0.6240 -1.6465
 2397SOL    HW214053   5.409   4.436   2.212  0.7258  1.3770  1.7145
 2398SOL     OW14054  11.913   0.006   5.687  0.2076 -0.1102 -0.4815
 2398SOL    HW114055  11.958  -0.022   5.607  0.1757  0.1283 -0.5843
 2398SOL    HW214056  11.835  -0.049   5.691  1.4408 -1.8901  0.7250
 2399SOL     OW14057   8.036  11.477  10.916 -0.6554 -0.1419  0.1860
 2399SOL    HW114058   8.113  11.426  10.938 -0.3042  0.8288  1.3517
 2399SOL    HW214059   8.055  11.515  10.830  0.1137 -0.0103  0.4108
 2400SOL     OW14060   6.749  11.419   1.353  0.3103  0.3681 -0.0985
 2400SOL    HW114061   6.797  11.488   1.399  0.3538  0.0529  0.3429
 2400SOL    HW214062   6.799  11.339   1.372 -1.2634 -0.2526  1.7632
 2401SOL     OW14063   3.628   7.130   9.116  0.1622  0.2822  0.1979
 2401SOL    HW114064   3.580   7.151   9.035  1.5030 -0.9197 -0.9533
 2401SOL    HW214065   3.626   7.034   9.120  0.7660  0.3052  1.1982
 2402SOL     OW14066   4.241   0.599   9.700  0.1899  0.5358  0.3565
 2402SOL    HW114067   4.224   0.565   9.612  3.4755 -1.1336  0.2071
 2402SOL    HW214068   4.157   0.634   9.729 -1.7472 -1.5184 -2.2858
 2403SOL     OW14069   6.544  12.409   6.264 -0.2957 -0.3496 -0.2739
 2403SOL    HW114070   6.518  12.317   6.264  1.3030 -0.8682  1.1947
 2403SOL    HW214071   6.499  12.447   6.339 -0.4155 -0.0914 -0.4735
 2404SOL     OW14072   6.275  11.674   3.116 -0.4356 -0.1940 -0.8443
 2404SOL    HW114073   6.309  11.731   3.185  0.1381 -0.2441 -1.0804
 2404SOL    HW214074   6.247  11.734   3.047 -0.6251 -0.1631 -0.7416
 2405SOL     OW14075   2.465   9.184  11.602 -0.2635 -0.2756 -0.6274
 2405SOL    HW114076   2.422   9.099  11.599 -0.3536 -0.2159 -1.5241
 2405SOL    HW214077   2.461   9.215  11.511 -0.5167  0.8173 -0.2546
 2406SOL     OW14078   3.178   4.523  12.372  0.0907  0.0272 -0.0968
 2406SOL    HW114079   3.230   4.480  12.304  0.9608 -0.7123  1.0018
 2406SOL    HW214080   3.235   4.593  12.404  0.1575 -0.3639  0.6561
 2407SOL     OW14081   5.203   5.314   1.577  0.1620 -0.3503  0.1620
 2407SOL    HW114082   5.292   5.280   1.576 -0.6188 -2.6341 -1.7712
 2407SOL    HW214083   5.211   5.402   1.615  3.4705  0.2286 -1.5039
 2408SOL     OW14084   5.798   8.041   1.535 -0.3413  0.4562 -0.6732
 2408SOL    HW114085   5.748   7.973   1.581  0.5471 -0.9191 -1.6617
 2408SOL    HW214086   5.848   7.993   1.469  0.8741  2.0004 -0.9246
 2409SOL     OW14087   4.268   7.206   9.800 -0.0637  0.5446  0.4043
 2409SOL    HW114088   4.309   7.220   9.715  1.3403 -1.6976  0.6172
 2409SOL    HW214089   4.235   7.116   9.796  1.1904 -0.1040  2.6173
 2410SOL     OW14090  10.869   8.241   7.242 -0.0951  0.3276  0.2978
 2410SOL    HW114091  10.825   8.195   7.313 -0.4020  0.3668  0.1318
 2410SOL    HW214092  10.957   8.202   7.239  0.2885  1.0491  1.3889
 2411SOL     OW14093   5.413   5.332   8.033 -0.2624 -0.1697  0.4184
 2411SOL    HW114094   5.467   5.283   7.970 -1.2723 -1.1588  0.2749
 2411SOL    HW214095   5.327   5.337   7.991 -1.3935 -2.1586  2.2915
 2412SOL     OW14096  11.400   3.692  10.589 -0.0093  0.4543  0.1273
 2412SOL    HW114097  11.485   3.710  10.629 -0.3192 -1.0179  1.5241
 2412SOL    HW214098  11.416   3.616  10.532 -0.1053  1.0557 -0.7290
 2413SOL     OW14099   5.768   8.696   2.057 -0.1553 -0.0214  0.3856
 2413SOL    HW114100   5.827   8.688   2.132  0.5815 -0.0475 -0.1870
 2413SOL    HW214101   5.682   8.706   2.096  0.3996  1.6445  1.2812
 2414SOL     OW14102   1.063   0.308   0.004  0.0139  0.1046 -0.3198
 2414SOL    HW114103   1.049   0.214  -0.007  3.0669 -0.7985  2.2313
 2414SOL    HW214104   1.083   0.339  -0.084  0.7936 -2.0104 -0.9577
 2415SOL     OW14105  11.020  10.301   9.133 -0.6760 -0.6088  0.7604
 2415SOL    HW114106  10.976  10.370   9.083 -0.5189 -0.7674  0.3971
 2415SOL    HW214107  11.048  10.344   9.214 -0.3505 -0.1757  0.4252
 2416SOL     OW14108   3.435   4.801   8.235 -0.1297 -0.6067 -0.2766
 2416SOL    HW114109   3.354   4.769   8.196 -0.1199 -1.8188  0.6428
 2416SOL    HW214110   3.405   4.862   8.303 -0.1836  0.5218 -1.2828
 2417SOL     OW14111   8.824  11.953   4.518  0.4040 -0.3114 -0.0658
 2417SOL    HW114112   8.900  12.005   4.492  0.4580  0.3121  1.2182
 2417SOL    HW214113   8.859  11.888   4.579  0.0473 -0.6523 -0.2191
 2418SOL     OW14114   0.800  11.919   2.496  0.0749 -0.0791 -0.1957
 2418SOL    HW114115   0.728  11.894   2.554  0.0914 -1.0228 -0.5509
 2418SOL    HW214116   0.873  11.863   2.523  0.1255 -0.4282 -1.0160
 2419SOL     OW14117   9.602   9.337   3.640  0.7118 -0.4656  0.1155
 2419SOL    HW114118   9.582   9.283   3.564  1.0396 -2.2673  1.2618
 2419SOL    HW214119   9.538   9.310   3.706  0.4260  1.0784  0.5189
 2420SOL     OW14120   9.485   7.145   9.642  0.4428 -0.2468 -0.8998
 2420SOL    HW114121   9.503   7.238   9.629 -1.6058  0.5916  1.4552
 2420SOL    HW214122   9.409   7.127   9.587  0.3171 -0.3022 -0.7098
 2421SOL     OW14123   0.633   7.272   5.904 -0.3322  0.1040 -0.4759
 2421SOL    HW114124   0.679   7.343   5.949  1.0069 -0.5450 -0.7455
 2421SOL    HW214125   0.548   7.265   5.948 -0.1094  1.2494  0.1591
 2422SOL     OW14126   3.214   1.125   9.694 -0.0837  0.1815  0.1600
 2422SOL    HW114127   3.214   1.183   9.617 -1.4929  1.4912  1.0787
 2422SOL    HW214128   3.291   1.151   9.744 -0.1812  0.6183  0.0911
 2423SOL     OW14129   5.825   3.365  12.103  0.1233  0.2891  0.0745
 2423SOL    HW114130   5.785   3.290  12.147  1.9630  1.4221  4.1358
 2423SOL    HW214131   5.782   3.441  12.141  2.0694  1.3762  0.2496
 2424SOL     OW14132   7.743   7.162   9.508  0.3433  0.4488 -0.6166
 2424SOL    HW114133   7.815   7.129   9.562  1.8924  0.8383 -2.3455
 2424SOL    HW214134   7.708   7.237   9.556  0.3709 -0.3803  0.7447
 2425SOL     OW14135   7.958   0.131   7.421  0.2461  0.4716  0.0657
 2425SOL    HW114136   7.969   0.225   7.436 -2.2187  1.1259 -1.6286
 2425SOL    HW214137   7.909   0.101   7.498  1.1784  0.4980  0.6906
 2426SOL     OW14138   8.805   7.232   4.847  0.1798  0.4388  0.3374
 2426SOL    HW114139   8.846   7.298   4.792  0.2743  0.0914 -0.0088
 2426SOL    HW214140   8.740   7.190   4.791 -1.8667  2.0887  1.3230
 2427SOL     OW14141   4.275   1.246   9.926 -0.2784 -0.8590  0.2265
 2427SOL    HW114142   4.241   1.272   9.840 -1.0399 -1.3012  0.3846
 2427SOL    HW214143   4.197   1.226   9.978  0.1897 -0.9839  0.9034
 2428SOL     OW14144  11.877   2.267  10.756  0.4767 -0.5826 -0.5155
 2428SOL    HW114145  11.923   2.269  10.672 -1.8617  3.3530 -1.9560
 2428SOL    HW214146  11.831   2.351  10.760 -3.2626 -2.4829  2.5826
 2429SOL     OW14147  11.311   7.906  11.260 -0.0010 -0.0026  0.0100
 2429SOL    HW114148  11.310   7.986  11.311 -0.8995 -0.0897  0.1522
 2429SOL    HW214149  11.276   7.932  11.174  1.2886  0.0991 -0.4981
 2430SOL     OW14150   0.301   7.641   7.466 -0.6081  0.1983 -0.1396
 2430SOL    HW114151   0.359   7.570   7.495 -0.7065  0.0719 -0.2560
 2430SOL    HW214152   0.234   7.598   7.413 -2.8514 -0.1863  2.7575
 2431SOL     OW14153   0.361   4.687   8.142 -0.6535  0.0308  0.3312
 2431SOL    HW114154   0.446   4.646   8.130 -0.5538  0.5162 -0.8217
 2431SOL    HW214155   0.351   4.697   8.237 -0.1577 -1.5180  0.5649
 2432SOL     OW14156   7.255   6.806   7.581  0.3896 -0.0377  0.3936
 2432SOL    HW114157   7.163   6.781   7.592  0.2633 -0.5747 -1.5248
 2432SOL    HW214158   7.304   6.732   7.616  0.0237 -1.3719 -1.7009
 2433SOL     OW14159   5.231   8.858   1.580 -0.0322 -0.1351  0.2938
 2433SOL    HW114160   5.263   8.768   1.590 -0.8312 -0.8489 -2.7482
 2433SOL    HW214161   5.139   8.853   1.605  0.0205 -0.0396  0.5146
 2434SOL     OW14162   3.769   9.428   1.722  0.4096  0.2471  0.5207
 2434SOL    HW114163   3.690   9.480   1.714  2.3832  3.3948 -0.3010
 2434SOL    HW214164   3.787   9.397   1.633  0.5661  0.2889  0.5378
 2435SOL     OW14165   0.708   8.147   3.608  0.4542  0.6647 -0.4265
 2435SOL    HW114166   0.713   8.145   3.704 -0.3267 -2.0386 -0.3742
 2435SOL    HW214167   0.625   8.105   3.587  2.0879 -1.9044 -2.3111
 2436SOL     OW14168   4.684   1.483  10.255 -0.3678  0.1211  0.2367
 2436SOL    HW114169   4.622   1.436  10.311  0.6620  1.0281  2.2525
 2436SOL    HW214170   4.675   1.575  10.280  2.2901  0.2167  1.2344
 2437SOL     OW14171   7.076   6.048  11.843  0.3933  0.2310  0.5184
 2437SOL    HW114172   7.146   6.078  11.785  1.1327 -1.1473  0.6597
 2437SOL    HW214173   7.114   6.055  11.931 -0.1294  0.7194  0.7135
 2438SOL     OW14174   7.858   9.190   3.651  0.2818  0.0900  0.3578
 2438SOL    HW114175   7.923   9.257   3.671  0.0973  0.2390  0.4585
 2438SOL    HW214176   7.903   9.129   3.592  0.9147 -0.4912  1.4222
 2439SOL     OW14177  10.333   5.104  10.043 -0.2517 -0.1899 -0.5390
 2439SOL    HW114178  10.360   5.016  10.070 -1.2824 -1.0053 -1.9910
 2439SOL    HW214179  10.385   5.121   9.964 -0.7070  0.1118 -0.7790
 2440SOL     OW14180   4.059   8.493   3.965  0.6341 -0.1098 -0.0816
 2440SOL    HW114181   4.066   8.398   3.975  0.2044 -0.4110 -2.1479
 2440SOL    HW214182   4.002   8.521   4.037 -1.0784 -1.7603 -0.6980
 2441SOL     OW14183   8.418   1.582  11.620  0.1171  0.8197  1.0602
 2441SOL    HW114184   8.474   1.637  11.565 -1.1171  0.8215 -0.2390
 2441SOL    HW214185   8.450   1.493  11.605  0.0120  0.8556  0.6127
 2442SOL     OW14186   8.975   1.862   0.334 -0.1770  0.4051  0.2330
 2442SOL    HW114187   8.906   1.928   0.337  0.8758  1.5423  0.0696
 2442SOL    HW214188   9.002   1.851   0.425  0.8694  1.5482  0.0817
 2443SOL     OW14189   5.955   1.261  10.656 -0.0418 -1.1517 -0.1158
 2443SOL    HW114190   6.021   1.265  10.725 -0.7271  0.9291  0.4905
 2443SOL    HW214191   5.970   1.339  10.603  0.3556 -2.6007 -2.3021
 2444SOL     OW14192  12.340   8.300   7.834  0.6953  0.5993  0.0492
 2444SOL    HW114193  12.317   8.245   7.760 -1.2865 -1.4161  2.0268
 2444SOL    HW214194  12.259   8.346   7.857  0.8420  0.0380  1.8489
 2445SOL     OW14195  12.449  12.219   1.741 -0.5355 -0.0097  0.0612
 2445SOL    HW114196  12.465  12.289   1.805  0.1210 -0.8154  0.8201
 2445SOL    HW214197  12.535  12.204   1.701 -0.6237 -0.5408  0.0709
 2446SOL     OW14198   8.943   3.428  10.339  0.2505 -0.5548  0.2159
 2446SOL    HW114199   9.004   3.489  10.381 -0.4991 -0.4995  1.2757
 2446SOL    HW214200   8.859   3.447  10.381 -0.2676 -1.3896 -0.4226
 2447SOL     OW14201   0.149   1.879   4.174  0.2947  0.1492 -0.3307
 2447SOL    HW114202   0.239   1.881   4.142 -0.1640 -1.8931 -1.9455
 2447SOL    HW214203   0.150   1.814   4.245  0.1153  0.2745 -0.2121
 2448SOL     OW14204   6.988   5.219  10.208  0.4586 -0.0875 -0.3690
 2448SOL    HW114205   7.061   5.213  10.270 -1.0085 -1.2616  1.3415
 2448SOL    HW214206   7.009   5.153  10.141  1.6463  0.5938 -0.6853
 2449SOL     OW14207   5.066   2.075   9.815 -0.2836  0.1392 -0.2060
 2449SOL    HW114208   5.019   1.991   9.809 -0.9877  0.5315 -0.3553
 2449SOL    HW214209   5.142   2.064   9.759 -0.1443 -0.5453  0.1025
 2450SOL     OW14210   7.665   1.455   5.618 -0.5943  0.2103  0.0300
 2450SOL    HW114211   7.613   1.501   5.684 -0.7404 -0.2782  0.2597
 2450SOL    HW214212   7.646   1.501   5.536 -1.7204 -0.2165  0.0301
 2451SOL     OW14213   5.852  11.271  11.001  0.1935 -0.1949 -0.0009
 2451SOL    HW114214   5.916  11.276  10.930  0.4937  0.6107  0.3219
 2451SOL    HW214215   5.775  11.317  10.967  0.6625  1.0176  0.5261
 2452SOL     OW14216   7.923   3.401   9.644  0.1255 -0.3073  0.5925
 2452SOL    HW114217   8.012   3.422   9.672  0.5472 -0.6339 -0.4606
 2452SOL    HW214218   7.887   3.484   9.613  0.1701 -0.2358  0.7332
 2453SOL     OW14219   3.847   7.323  11.019  0.3448 -0.2108 -0.0628
 2453SOL    HW114220   3.909   7.394  11.005  1.4863 -1.0662  0.5359
 2453SOL    HW214221   3.874   7.283  11.102  0.5160 -2.1305 -0.9800
 2454SOL     OW14222   3.625   0.665   2.844  0.5436 -0.0622 -0.3017
 2454SOL    HW114223   3.577   0.583   2.846  0.7700 -0.3145 -2.5408
 2454SOL    HW214224   3.695   0.654   2.909  0.2468 -1.4098 -0.1824
 2455SOL     OW14225   5.519   9.004   7.760 -0.3170 -0.1314  0.3109
 2455SOL    HW114226   5.518   8.911   7.739 -0.6294  0.0946 -0.7522
 2455SOL    HW214227   5.612   9.029   7.754 -0.1729 -0.4673  1.0729
 2456SOL     OW14228   5.322   9.538   9.216 -0.0653 -0.1686 -0.0992
 2456SOL    HW114229   5.315   9.574   9.127  0.0724  0.0694 -0.0160
 2456SOL    HW214230   5.298   9.446   9.207  3.1314 -1.0676 -1.0311
 2457SOL     OW14231   3.633   3.928   2.308  0.4502 -0.9601  0.1034
 2457SOL    HW114232   3.622   3.924   2.213  1.2688 -0.5795 -0.0177
 2457SOL    HW214233   3.698   3.997   2.321 -1.7495  1.0878  1.1119
 2458SOL     OW14234   6.273   5.300   5.288  0.0576 -0.6787  0.3885
 2458SOL    HW114235   6.273   5.321   5.381 -1.9737  0.9788  0.0959
 2458SOL    HW214236   6.182   5.276   5.269  0.6929 -2.2346 -0.9539
 2459SOL     OW14237   8.148   8.333  12.439 -0.2349 -0.4016  0.1307
 2459SOL    HW114238   8.145   8.375  12.353 -0.0783 -0.1613  0.2407
 2459SOL    HW214239   8.236   8.296  12.444 -0.6171 -1.3962 -0.2683
 2460SOL     OW14240   0.299   1.384   3.711 -0.1455  0.3989  0.0547
 2460SOL    HW114241   0.391   1.377   3.738 -0.5406  1.3618  1.7886
 2460SOL    HW214242   0.255   1.315   3.761 -0.4664  0.2684 -0.4012
 2461SOL     OW14243   4.117   9.827  11.006 -0.4180  0.0860  0.1380
 2461SOL    HW114244   4.078   9.780  11.080 -0.0604  0.3728  0.5156
 2461SOL    HW214245   4.209   9.838  11.030 -0.3090  0.2241 -0.3286
 2462SOL     OW14246   1.598   9.494   4.432 -0.0437  0.1633  0.5925
 2462SOL    HW114247   1.589   9.585   4.460 -3.1022  0.1575  0.0440
 2462SOL    HW214248   1.529   9.483   4.366 -0.0026 -2.6363  0.9091
 2463SOL     OW14249   1.347   4.650   0.578 -0.0312  0.2836 -0.2109
 2463SOL    HW114250   1.287   4.693   0.638 -0.6416  0.6665 -1.0834
 2463SOL    HW214251   1.421   4.624   0.633  1.2129  3.9626  0.1219
 2464SOL     OW14252   7.828   9.523   3.204  0.0044  0.2742  0.1944
 2464SOL    HW114253   7.837   9.616   3.181 -2.7687  1.0221  1.6324
 2464SOL    HW214254   7.809   9.523   3.297 -1.6286 -1.5804 -0.0747
 2465SOL     OW14255   2.074   9.631  11.800 -0.2218  0.5146 -0.1639
 2465SOL    HW114256   2.086   9.646  11.894 -1.5179  1.1582 -0.0864
 2465SOL    HW214257   2.005   9.565  11.795 -0.1636  0.4890 -0.6733
 2466SOL     OW14258   3.326   7.249   6.555  0.1970  0.0604 -0.4510
 2466SOL    HW114259   3.413   7.263   6.517 -0.1843  0.5474 -1.1535
 2466SOL    HW214260   3.344   7.219   6.645  1.0819  0.9921 -0.3011
 2467SOL     OW14261   5.907   8.129   4.328 -0.3679  0.2967 -0.1460
 2467SOL    HW114262   5.816   8.101   4.317  0.0346 -0.9339 -0.4740
 2467SOL    HW214263   5.917   8.140   4.423 -0.9128  0.6645 -0.1231
 2468SOL     OW14264   6.675   3.468  10.760 -0.3450 -0.4384  0.4514
 2468SOL    HW114265   6.602   3.493  10.703  0.6572  0.0459 -0.6516
 2468SOL    HW214266   6.640   3.396  10.813 -1.5158 -0.4466 -0.2915
 2469SOL     OW14267   3.632  11.863   5.097 -0.2205 -0.0362 -0.0837
 2469SOL    HW114268   3.611  11.871   5.004 -0.7374 -0.9730 -0.0654
 2469SOL    HW214269   3.588  11.937   5.138  0.9983  1.0813 -0.7119
 2470SOL     OW14270  10.289   2.047   2.223  0.6402  0.0090  0.0643
 2470SOL    HW114271  10.243   2.052   2.306 -1.2047 -2.2551 -0.7345
 2470SOL    HW214272  10.225   2.075   2.158  2.0493  1.7433 -0.6795
 2471SOL     OW14273   7.853   3.689   3.600  0.7048 -0.6908 -0.8761
 2471SOL    HW114274   7.820   3.653   3.682  0.3170 -0.3658 -0.8833
 2471SOL    HW214275   7.779   3.680   3.539 -0.0334  1.6070 -0.4415
 2472SOL     OW14276   7.747   1.429   9.890 -0.2644  0.3211 -0.3530
 2472SOL    HW114277   7.674   1.375   9.921 -0.9340  2.2750  1.7459
 2472SOL    HW214278   7.825   1.376   9.906 -1.0281 -0.8994 -0.5070
 2473SOL     OW14279   6.349   5.910   2.143 -0.7908  0.3524 -0.0049
 2473SOL    HW114280   6.391   5.856   2.210 -0.7707 -0.3556 -0.5720
 2473SOL    HW214281   6.389   5.996   2.152  1.3262 -0.4585 -0.9658
 2474SOL     OW14282   7.980   5.157  10.080 -0.1858  0.9558  0.4901
 2474SOL    HW114283   8.038   5.201  10.017  1.6689  0.3150  1.6743
 2474SOL    HW214284   8.002   5.064  10.071 -1.1274  0.6910  0.8825
 2475SOL     OW14285  11.296   8.800   7.437  0.2050  0.3473  0.4368
 2475SOL    HW114286  11.248   8.754   7.369  0.0886 -0.7563  1.2353
 2475SOL    HW214287  11.320   8.884   7.397 -0.2222 -0.0978 -0.8036
 2476SOL     OW14288   2.403   4.759  12.258 -0.3124 -0.4323  0.2053
 2476SOL    HW114289   2.357   4.702  12.196 -0.9203  1.6176 -1.3312
 2476SOL    HW214290   2.491   4.723  12.262  0.4025  0.4454 -3.5091
 2477SOL     OW14291  12.412   7.942   3.729 -0.0548 -0.2363 -0.5044
 2477SOL    HW114292  12.337   7.886   3.745  1.3993 -1.9800  0.6014
 2477SOL    HW214293  12.463   7.896   3.662  1.1062 -0.2170  0.3249
 2478SOL     OW14294   6.161   4.691   6.824  0.2691 -0.0322 -0.1216
 2478SOL    HW114295   6.192   4.768   6.871 -0.4988  0.3526 -0.2257
 2478SOL    HW214296   6.133   4.724   6.739 -2.0756 -0.0209  0.5778
 2479SOL     OW14297   0.431   5.061   4.841 -0.0842  0.1825  0.8216
 2479SOL    HW114298   0.367   4.996   4.871  2.0861 -1.8075  1.3934
 2479SOL    HW214299   0.452   5.112   4.919 -0.1204  0.0724  0.9039
 2480SOL     OW14300   0.563  12.009   3.053 -0.1417  0.5364  0.2068
 2480SOL    HW114301   0.642  12.006   3.106 -0.0716  2.3871  0.2831
 2480SOL    HW214302   0.519  12.091   3.079 -1.1206  0.4877 -1.1411
 2481SOL     OW14303  10.114   0.519  10.190  0.0122 -0.1720 -0.7934
 2481SOL    HW114304  10.126   0.578  10.116  0.5361  0.3639 -0.2943
 2481SOL    HW214305  10.019   0.514  10.202 -0.0302  1.1436 -0.4088
 2482SOL     OW14306   0.760   3.753   2.895  0.3675  0.0921  0.4935
 2482SOL    HW114307   0.686   3.704   2.931  0.2784  0.2422  0.5120
 2482SOL    HW214308   0.785   3.814   2.964 -2.3405  3.2603 -1.0469
 2483SOL     OW14309  10.081   7.861   3.710  0.0320  0.3825 -0.2852
 2483SOL    HW114310  10.072   7.910   3.792  1.0592 -1.7789  1.2139
 2483SOL    HW214311  10.116   7.925   3.648  1.6016  1.5455  1.6436
 2484SOL     OW14312   4.621   3.012   8.391  0.1197  0.2461  0.0722
 2484SOL    HW114313   4.667   3.040   8.312 -1.1422  0.7999 -0.4871
 2484SOL    HW214314   4.666   2.931   8.417  0.9396  0.3793 -0.8483
 2485SOL     OW14315   6.195   1.176   4.202 -0.0418  0.0798  0.2531
 2485SOL    HW114316   6.144   1.128   4.138  0.3579  0.8232 -0.6495
 2485SOL    HW214317   6.187   1.268   4.175  0.6181  0.3384  0.9113
 2486SOL     OW14318   3.785  11.398   7.185  0.0181 -0.0073  0.1747
 2486SOL    HW114319   3.869  11.375   7.144 -0.3610  0.2373 -0.7707
 2486SOL    HW214320   3.807  11.413   7.277  0.5898 -2.2741  0.4532
 2487SOL     OW14321   1.375  11.349   3.718 -0.4926 -0.3951 -0.0028
 2487SOL    HW114322   1.442  11.360   3.651 -1.7053 -0.7582 -1.3340
 2487SOL    HW214323   1.407  11.399   3.793  0.1302  1.4752 -1.4241
 2488SOL     OW14324   5.167   5.490   2.114  0.6051 -0.3899 -1.1034
 2488SOL    HW114325   5.181   5.411   2.062  0.7547 -1.5354  0.6253
 2488SOL    HW214326   5.205   5.470   2.200 -1.3958  0.6919  0.1067
 2489SOL     OW14327   3.889   1.337   8.776  0.1837  0.1106  0.2845
 2489SOL    HW114328   3.813   1.281   8.757  0.1076 -0.2714  1.5749
 2489SOL    HW214329   3.896   1.334   8.872  0.6025  1.7701  0.3276
 2490SOL     OW14330   1.955  10.538   3.263 -0.3133  0.2294  0.3782
 2490SOL    HW114331   1.974  10.452   3.224  1.3627  0.1742  1.2317
 2490SOL    HW214332   1.862  10.551   3.247 -0.8166 -2.1461  0.9464
 2491SOL     OW14333  10.567  10.844   8.212  0.0728 -0.2646 -0.0829
 2491SOL    HW114334  10.639  10.840   8.275  0.2135 -0.5331 -0.2618
 2491SOL    HW214335  10.488  10.840   8.267  0.1945 -1.0067  0.0485
 2492SOL     OW14336   7.720   6.959   3.760  0.0510  0.0651 -0.5544
 2492SOL    HW114337   7.768   7.039   3.741 -0.9294  0.9178  0.4727
 2492SOL    HW214338   7.640   6.988   3.804  0.0954 -1.5195  0.6683
 2493SOL     OW14339   8.179  11.475  11.683 -0.0152  0.2233  0.1487
 2493SOL    HW114340   8.130  11.435  11.755  1.6889 -0.8709  0.7539
 2493SOL    HW214341   8.243  11.531  11.727  0.9352 -0.3258 -0.5172
 2494SOL     OW14342   9.303   5.244   9.257  0.5790  0.2759  0.1793
 2494SOL    HW114343   9.300   5.254   9.162  1.3669 -0.2482  0.0835
 2494SOL    HW214344   9.260   5.322   9.291 -0.0020  0.3171 -0.6096
 2495SOL     OW14345   5.668   4.908   1.224 -0.5221  0.1592 -0.1869
 2495SOL    HW114346   5.677   4.818   1.193  0.5667  0.4222 -0.6739
 2495SOL    HW214347   5.575   4.928   1.213 -0.7607 -0.8651 -0.1575
 2496SOL     OW14348   0.698   8.689  12.319  0.5227  0.3806 -0.1466
 2496SOL    HW114349   0.665   8.779  12.329 -1.3051 -0.2557 -0.1746
 2496SOL    HW214350   0.670   8.664  12.231 -0.0036 -0.6143  0.2950
 2497SOL     OW14351   1.682  12.099   0.565  0.0587 -0.0784 -0.0333
 2497SOL    HW114352   1.606  12.147   0.600 -0.3962 -0.3438 -0.6390
 2497SOL    HW214353   1.750  12.166   0.556 -0.7217  0.5963 -1.3318
 2498SOL     OW14354   8.399   2.287   8.708  0.1498 -0.0800  0.3523
 2498SOL    HW114355   8.311   2.250   8.719  0.1940  0.3875  3.0188
 2498SOL    HW214356   8.419   2.325   8.794  2.6185  0.5927 -0.4565
 2499SOL     OW14357   3.846   6.225   6.368  0.2256  0.2367  0.1837
 2499SOL    HW114358   3.869   6.280   6.293 -1.0235  1.5097  0.6952
 2499SOL    HW214359   3.926   6.221   6.420  0.2870  1.7842  0.2532
 2500SOL     OW14360   0.672   8.142   8.348  0.5615 -0.1807  0.4991
 2500SOL    HW114361   0.635   8.227   8.373 -1.5161 -1.0160  0.3965
 2500SOL    HW214362   0.757   8.164   8.310 -0.5214  2.0087 -0.8848
 2501SOL     OW14363   1.334   7.055   6.338 -0.3699 -0.0870  0.4631
 2501SOL    HW114364   1.295   7.120   6.396  0.9922  1.5010 -0.2944
 2501SOL    HW214365   1.279   7.057   6.260  0.0039  0.6463  0.2028
 2502SOL     OW14366   7.006   9.663   4.496 -0.2988 -0.3269  0.2861
 2502SOL    HW114367   7.018   9.579   4.452 -0.6303  0.1871 -0.8079
 2502SOL    HW214368   6.915   9.662   4.527 -0.4335 -0.2158 -0.0945
 2503SOL     OW14369   4.913   9.423   6.933  0.4060 -0.7233  0.2878
 2503SOL    HW114370   4.874   9.506   6.907  1.1541  0.1980  1.9540
 2503SOL    HW214371   4.993   9.417   6.880  0.2745 -0.4559  0.0562
 2504SOL     OW14372   5.526  11.483   8.242 -0.3447  0.4080 -0.2123
 2504SOL    HW114373   5.470  11.406   8.234 -0.0676  0.0963  0.6726
 2504SOL    HW214374   5.465  11.554   8.263 -0.3027 -0.3649  3.2228
 2505SOL     OW14375   6.679   5.933   2.239 -0.0305  0.0532  0.2283
 2505SOL    HW114376   6.734   5.975   2.305 -0.9077 -0.0046  1.0212
 2505SOL    HW214377   6.615   6.000   2.215 -0.4656 -0.3208  0.3380
 2506SOL     OW14378   5.792  11.480   5.829 -0.3829  0.2534 -0.3059
 2506SOL    HW114379   5.788  11.487   5.924 -1.4581 -0.5832 -0.2717
 2506SOL    HW214380   5.708  11.514   5.799 -0.1328  0.3215 -0.9485
 2507SOL     OW14381  11.021   5.634  10.679  0.1520  0.0868 -0.5624
 2507SOL    HW114382  11.066   5.670  10.602  1.0674 -1.0098 -0.5516
 2507SOL    HW214383  10.939   5.600  10.644  0.0272  0.6693 -0.8529
 2508SOL     OW14384   0.213  12.135  11.901  0.6006  0.5135  0.0131
 2508SOL    HW114385   0.227  12.131  11.806 -0.8773  1.1072 -0.2534
 2508SOL    HW214386   0.220  12.227  11.922 -0.8004  0.6119  0.1648
 2509SOL     OW14387   3.934  10.916   8.373  0.7214 -0.3186  0.3211
 2509SOL    HW114388   3.984  10.867   8.438  2.6996 -1.5366 -1.9408
 2509SOL    HW214389   3.960  11.007   8.386  0.7842 -0.4769  1.4219
 2510SOL     OW14390  10.076   8.200   1.171 -0.3419  0.2265  0.1665
 2510SOL    HW114391  10.022   8.181   1.247  0.6589  0.4993  0.9620
 2510SOL    HW214392  10.039   8.145   1.101 -1.2292 -0.0677  0.8506
 2511SOL     OW14393   0.576   2.011   2.629  0.2891 -0.2257  0.0207
 2511SOL    HW114394   0.660   1.967   2.638  0.1293 -0.4292  0.5530
 2511SOL    HW214395   0.519   1.968   2.692 -0.0463  0.3234  0.1023
 2512SOL     OW14396   2.802   4.708   8.741 -0.0384 -0.3527 -0.1213
 2512SOL    HW114397   2.861   4.782   8.727 -1.4072  0.9627  0.7222
 2512SOL    HW214398   2.749   4.704   8.661 -2.4117  1.9954  1.1802
 2513SOL     OW14399   6.010   7.266  11.199  0.3819 -0.2409  0.7296
 2513SOL    HW114400   6.009   7.341  11.141 -0.5732  1.2678  2.5824
 2513SOL    HW214401   6.102   7.248  11.214  0.6366  0.9522  0.6917
 2514SOL     OW14402   5.076   7.066   8.575  0.2554  0.4380 -0.0781
 2514SOL    HW114403   5.127   7.034   8.649  2.0501  0.4940 -1.2424
 2514SOL    HW214404   5.140   7.084   8.506 -1.1466  2.1859 -1.0366
 2515SOL     OW14405   2.874   6.332   7.434  0.6548 -0.0145 -0.0584
 2515SOL    HW114406   2.783   6.357   7.422  0.1019 -0.8421  1.9001
 2515SOL    HW214407   2.873   6.236   7.433  1.7122 -0.0384 -1.2201
 2516SOL     OW14408   4.449   0.960   1.662 -0.4822 -0.2865 -0.2778
 2516SOL    HW114409   4.449   1.004   1.577  1.6857 -0.9403 -0.6890
 2516SOL    HW214410   4.486   1.024   1.723 -0.2930 -0.4493 -0.2196
 2517SOL     OW14411   6.332   8.554   1.741  0.2851 -0.2430 -0.9817
 2517SOL    HW114412   6.418   8.527   1.710 -0.1308 -2.2433 -0.5114
 2517SOL    HW214413   6.281   8.569   1.662  0.0592 -2.5621 -1.3373
 2518SOL     OW14414  10.383   9.457   3.633  0.1260  0.6268 -0.6415
 2518SOL    HW114415  10.363   9.505   3.552  2.1395  0.9205 -1.0216
 2518SOL    HW214416  10.303   9.409   3.653 -0.7964  1.4421 -2.1846
 2519SOL     OW14417   5.905   1.012  11.816  0.1639  0.1891  0.1098
 2519SOL    HW114418   5.823   1.038  11.774  0.5606  0.8477 -0.2589
 2519SOL    HW214419   5.908   0.917  11.804 -0.4389  0.1828 -0.0560
 2520SOL     OW14420   5.160   4.321   7.794  0.3779  0.4315  0.3656
 2520SOL    HW114421   5.227   4.300   7.859 -0.7265  1.0803  1.7660
 2520SOL    HW214422   5.202   4.383   7.734  1.6454 -0.7589 -0.0167
 2521SOL     OW14423   9.085   3.750   0.531 -0.3655 -0.6371 -0.1829
 2521SOL    HW114424   9.051   3.751   0.442 -2.8644  0.8772  0.6904
 2521SOL    HW214425   9.093   3.842   0.555  1.4634 -0.9868  0.8029
 2522SOL     OW14426   5.004   2.317   1.957 -0.5497 -0.3132  0.0637
 2522SOL    HW114427   5.014   2.409   1.979 -1.6389 -0.0647 -0.4338
 2522SOL    HW214428   5.067   2.303   1.886 -1.0672  0.2938 -0.5216
 2523SOL     OW14429  10.964   8.143   0.292  0.4175 -0.3616 -0.2573
 2523SOL    HW114430  11.041   8.187   0.329  0.2002  0.2128 -0.4742
 2523SOL    HW214431  10.985   8.050   0.297  0.4341 -0.3152  1.2712
 2524SOL     OW14432   9.586   0.892   6.030 -0.0180  0.2755 -0.3111
 2524SOL    HW114433   9.496   0.868   6.054 -0.5630  0.7763 -1.7575
 2524SOL    HW214434   9.593   0.984   6.052  0.6253 -0.0820  1.0999
 2525SOL     OW14435   8.376   2.162   9.466  0.1813 -0.1692 -0.1563
 2525SOL    HW114436   8.335   2.100   9.407 -1.1903  1.7731 -1.3465
 2525SOL    HW214437   8.469   2.159   9.444 -0.0306 -0.9514 -0.9820
 2526SOL     OW14438  11.525   7.489  10.687 -1.0539  0.5074  0.4928
 2526SOL    HW114439  11.615   7.522  10.686 -1.2140  0.9610 -0.6770
 2526SOL    HW214440  11.472   7.564  10.712 -1.0578  0.0439  1.9523
 2527SOL     OW14441   3.152   2.872   1.657 -0.2352 -0.3755 -0.6308
 2527SOL    HW114442   3.189   2.862   1.745  1.2935  0.5867 -1.1152
 2527SOL    HW214443   3.059   2.852   1.667  0.3041 -2.5421  0.7506
 2528SOL     OW14444   3.460   9.555   4.233  0.4029 -0.7173 -0.3438
 2528SOL    HW114445   3.450   9.574   4.326 -0.1583  1.4310 -0.7939
 2528SOL    HW214446   3.381   9.506   4.209 -0.4343  0.4874 -0.0985
 2529SOL     OW14447   5.404   9.766   2.254  0.3770  0.4220  0.5030
 2529SOL    HW114448   5.420   9.710   2.330  0.3750 -1.3510 -0.7502
 2529SOL    HW214449   5.334   9.722   2.206 -0.4378  2.1349  0.0584
 2530SOL     OW14450   6.144   2.788   6.322  0.4276 -0.3729  0.3232
 2530SOL    HW114451   6.229   2.786   6.365  0.6714 -0.8352 -0.1567
 2530SOL    HW214452   6.085   2.740   6.381 -0.0900  1.9497  1.7972
 2531SOL     OW14453   5.059   3.148   8.935 -0.4196  0.0197  0.1611
 2531SOL    HW114454   5.035   3.160   8.843  1.5304 -0.3316 -0.4434
 2531SOL    HW214455   4.995   3.087   8.969 -1.2782  0.2956 -0.9126
 2532SOL     OW14456   1.253  10.296   9.456  0.0992 -0.3136 -0.2664
 2532SOL    HW114457   1.159  10.282   9.464  0.0406  0.8593  1.8369
 2532SOL    HW214458   1.288  10.210   9.430 -1.4134 -1.1479  0.3400
 2533SOL     OW14459   2.745   9.112  11.580 -0.1005 -0.1849  0.2775
 2533SOL    HW114460   2.801   9.048  11.624 -1.5522 -1.8672 -0.1873
 2533SOL    HW214461   2.667   9.117  11.636 -0.1802  0.8944  0.0876
 2534SOL     OW14462   9.873   3.990  10.343 -0.0590  0.0470  0.2506
 2534SOL    HW114463   9.835   3.926  10.404 -0.6751  0.4728  0.3219
 2534SOL    HW214464   9.904   4.061  10.400 -3.9736  2.2465 -0.0379
 2535SOL     OW14465   1.950  11.123   1.371 -0.3256 -0.7204 -0.0137
 2535SOL    HW114466   1.988  11.096   1.454  0.3495  0.4669  0.0833
 2535SOL    HW214467   2.025  11.139   1.313 -0.7494 -0.6430 -0.5587
 2536SOL     OW14468   6.800   7.022   2.251 -0.4714 -0.0314 -0.7237
 2536SOL    HW114469   6.765   6.940   2.216 -1.8925 -0.2873  1.1266
 2536SOL    HW214470   6.875   6.996   2.304  1.6713  0.3551 -3.3697
 2537SOL     OW14471   2.892   9.911  11.084 -0.8458 -0.4310  0.1741
 2537SOL    HW114472   2.909   9.940  10.994 -1.8696  1.4137  0.5163
 2537SOL    HW214473   2.922   9.821  11.086 -0.8086 -0.5327 -2.0384
 2538SOL     OW14474   3.237   6.979   2.910 -0.4987 -1.0742  0.7755
 2538SOL    HW114475   3.206   7.064   2.880  1.7186 -0.7253 -0.7178
 2538SOL    HW214476   3.222   6.920   2.836  0.3854 -1.3610  0.8102
 2539SOL     OW14477   9.225   1.921   6.321 -0.2733 -0.1371  0.4305
 2539SOL    HW114478   9.208   1.987   6.254 -0.3606 -0.1405  0.4502
 2539SOL    HW214479   9.140   1.901   6.358 -0.3032 -0.5513  0.1532
 2540SOL     OW14480  10.675   9.801   8.030 -0.0638 -0.5181  0.0662
 2540SOL    HW114481  10.659   9.720   7.983 -0.6668 -1.0878  1.2271
 2540SOL    HW214482  10.757   9.835   7.993  0.2114 -1.6719 -0.4003
 2541SOL     OW14483   5.897   0.136   4.859 -0.1536 -0.0947 -0.2715
 2541SOL    HW114484   5.851   0.158   4.779 -1.3260 -2.1162 -0.2383
 2541SOL    HW214485   5.833   0.087   4.911  1.0671 -0.2220  1.1965
 2542SOL     OW14486   6.074  11.493   1.921  0.4311  0.3380 -0.2793
 2542SOL    HW114487   6.136  11.422   1.910  2.3840  2.0508 -0.9482
 2542SOL    HW214488   6.108  11.544   1.994 -0.8308  0.6953  0.0902
 2543SOL     OW14489   8.115   4.908   2.911  0.5394  0.2838 -0.3583
 2543SOL    HW114490   8.035   4.959   2.908  0.9091  0.8430 -1.4095
 2543SOL    HW214491   8.086   4.817   2.904  0.0242  0.5203 -1.5126
 2544SOL     OW14492   6.098  12.367   0.900 -0.5118 -0.0895 -0.7057
 2544SOL    HW114493   6.113  12.293   0.959  0.1561  0.6084  0.0167
 2544SOL    HW214494   6.053  12.432   0.953 -0.4254  0.3216 -1.1250
 2545SOL     OW14495   5.964  11.342   9.509 -0.0710  0.1954  0.5548
 2545SOL    HW114496   6.058  11.325   9.521  0.2768  1.8925  0.4820
 2545SOL    HW214497   5.943  11.297   9.427  0.0017 -2.4879  1.9051
 2546SOL     OW14498   0.781   3.270   2.163 -0.3330  0.1872  0.1901
 2546SOL    HW114499   0.705   3.246   2.110 -0.5766 -0.9141  1.0100
 2546SOL    HW214500   0.748   3.336   2.224 -0.7017 -0.4935  0.7293
 2547SOL     OW14501  12.278   1.925  10.186 -0.4083 -0.0820 -0.1532
 2547SOL    HW114502  12.261   2.009  10.228  0.7429  0.9807 -1.6874
 2547SOL    HW214503  12.193   1.880  10.187 -1.0525  1.0876  0.6791
 2548SOL     OW14504   2.694   8.407   3.617 -0.6579 -0.4265  0.1858
 2548SOL    HW114505   2.787   8.388   3.627 -0.4340 -0.4852 -1.6271
 2548SOL    HW214506   2.651   8.322   3.619 -0.4406 -0.5733 -0.8924
 2549SOL     OW14507   3.891   6.000   3.937  1.0806 -0.0350  0.2429
 2549SOL    HW114508   3.833   5.974   3.865  1.2722  0.4698 -0.0935
 2549SOL    HW214509   3.839   5.982   4.016  0.0284  1.4370 -0.0816
 2550SOL     OW14510   8.171  11.712   6.585 -0.1780 -0.0959 -1.2951
 2550SOL    HW114511   8.173  11.772   6.511  0.8924 -0.4002 -1.5315
 2550SOL    HW214512   8.260  11.680   6.593 -0.7290 -1.7270 -1.2345
 2551SOL     OW14513  12.407  11.895   2.163 -0.1839  0.2974  0.2037
 2551SOL    HW114514  12.429  11.952   2.090  0.7032  0.6967  0.7736
 2551SOL    HW214515  12.311  11.888   2.160 -0.3675  2.2530  0.4535
 2552SOL     OW14516   5.571  10.171   5.307 -0.1884 -0.4160 -0.1730
 2552SOL    HW114517   5.495  10.157   5.363  0.1290  0.9753  0.6373
 2552SOL    HW214518   5.535  10.201   5.224 -0.5323  0.4631  0.2820
 2553SOL     OW14519  10.179   3.753  11.152  0.0201  0.1811  0.0570
 2553SOL    HW114520  10.254   3.694  11.147 -0.6122 -0.6669  0.3274
 2553SOL    HW214521  10.113   3.704  11.202 -0.6907  0.9252 -0.1310
 2554SOL     OW14522   7.252   8.573   0.518  0.2872 -0.1941 -0.1791
 2554SOL    HW114523   7.242   8.596   0.425 -0.8793 -1.1808 -0.3228
 2554SOL    HW214524   7.277   8.481   0.517  1.4744  0.0892  0.4864
 2555SOL     OW14525   7.482   5.217   5.883 -0.1881 -0.6534 -0.5052
 2555SOL    HW114526   7.560   5.165   5.904 -0.1217 -0.8198 -1.1706
 2555SOL    HW214527   7.504   5.262   5.802 -0.4682 -0.0340 -0.2469
 2556SOL     OW14528   3.928   1.045   4.441  0.0316  0.2421  0.3488
 2556SOL    HW114529   3.850   1.046   4.498 -0.5440  0.3786 -0.4214
 2556SOL    HW214530   3.948   1.137   4.426  0.5730  0.2095  0.8430
 2557SOL     OW14531   3.746   7.376   3.809 -0.0400 -0.0032  0.8590
 2557SOL    HW114532   3.656   7.383   3.841 -0.2639 -1.7385  0.7479
 2557SOL    HW214533   3.773   7.466   3.791 -2.0079  0.5092  0.2151
 2558SOL     OW14534   5.446   5.217  11.406 -0.5312  0.2903  0.6572
 2558SOL    HW114535   5.401   5.177  11.331  1.6064 -0.2959 -0.4073
 2558SOL    HW214536   5.376   5.259  11.457 -2.3297 -1.1776 -0.4723
 2559SOL     OW14537   3.901  10.561   5.957 -0.1254 -0.3929  0.0195
 2559SOL    HW114538   3.819  10.512   5.964 -0.2322 -0.2101  0.0681
 2559SOL    HW214539   3.888  10.618   5.881  0.2200 -0.8541 -0.3931
 2560SOL     OW14540   2.655   6.290   8.356  0.4777  0.7181  0.1643
 2560SOL    HW114541   2.645   6.375   8.313  0.4081  0.8196  0.3789
 2560SOL    HW214542   2.713   6.307   8.430 -0.9517  0.9660  1.2783
 2561SOL     OW14543   5.988   9.384   1.908  0.8089 -0.7241  0.1814
 2561SOL    HW114544   5.968   9.477   1.897  0.5899 -0.6603  1.0565
 2561SOL    HW214545   6.057   9.382   1.974 -0.4721 -1.2809  1.5511
 2562SOL     OW14546   9.288   8.690   4.610  0.0304  0.5011  0.3307
 2562SOL    HW114547   9.201   8.709   4.573 -1.0122 -0.0435  2.3673
 2562SOL    HW214548   9.338   8.770   4.595 -0.8203  0.8490 -0.8406
 2563SOL     OW14549   8.355   6.896   4.624 -0.3203  0.3155  0.2101
 2563SOL    HW114550   8.335   6.842   4.701 -0.8461 -2.3420 -1.6773
 2563SOL    HW214551   8.449   6.883   4.610 -0.6673 -1.2266 -0.9612
 2564SOL     OW14552   5.360   0.904   6.904  0.3101 -0.1278  0.3865
 2564SOL    HW114553   5.422   0.964   6.946  0.0212  0.0268  0.5986
 2564SOL    HW214554   5.413   0.830   6.876  0.6815  0.2509  0.0746
 2565SOL     OW14555   7.268  11.451   0.225  0.4591  0.4408 -0.3667
 2565SOL    HW114556   7.299  11.523   0.280  2.0989 -0.7827  0.3988
 2565SOL    HW214557   7.348  11.407   0.197 -0.5102 -1.2588 -0.5765
 2566SOL     OW14558  10.370   0.191   7.455  0.1793  0.4200 -0.1798
 2566SOL    HW114559  10.327   0.216   7.373  0.6040  1.0121 -0.2276
 2566SOL    HW214560  10.349   0.262   7.516  0.4911  0.3517  0.0073
 2567SOL     OW14561  12.304   0.130   1.869  0.4579 -0.3141  0.3439
 2567SOL    HW114562  12.353   0.180   1.803 -1.6688  2.1008  0.4008
 2567SOL    HW214563  12.244   0.075   1.818  0.0422  0.2280  0.2342
 2568SOL     OW14564   3.623   7.936   0.183  0.1241 -0.1173 -0.4110
 2568SOL    HW114565   3.684   7.985   0.238 -0.6658  0.8643 -0.3725
 2568SOL    HW214566   3.646   7.844   0.197  1.8888  0.2401 -0.7724
 2569SOL     OW14567   1.159   6.110   8.863  0.0031 -0.2421 -0.6063
 2569SOL    HW114568   1.146   6.053   8.939  0.8250  0.4728  0.0936
 2569SOL    HW214569   1.085   6.091   8.806 -0.4315 -1.0615  0.2030
 2570SOL     OW14570  10.114  12.141   3.958  0.5479  0.1730  0.0224
 2570SOL    HW114571  10.090  12.074   3.894  2.4154 -0.9438  0.3944
 2570SOL    HW214572  10.055  12.127   4.031 -1.0651  0.9239 -1.0896
 2571SOL     OW14573  11.027   8.731  11.890  0.7738  0.0246  0.0889
 2571SOL    HW114574  11.081   8.764  11.818  1.5880 -0.4765  0.4523
 2571SOL    HW214575  11.009   8.808  11.945  0.7224  0.2774 -0.2781
 2572SOL     OW14576   5.169   6.717  11.228 -0.4772 -0.1530  0.5118
 2572SOL    HW114577   5.150   6.655  11.158 -0.1470  0.9230 -0.5635
 2572SOL    HW214578   5.193   6.662  11.303  0.7285 -1.3182 -0.6723
 2573SOL     OW14579   7.432   3.696   6.621  0.1498  0.0019 -0.1591
 2573SOL    HW114580   7.428   3.613   6.669 -1.7094 -0.4256 -0.9260
 2573SOL    HW214581   7.446   3.669   6.530 -1.9380  0.3717 -0.6387
 2574SOL     OW14582   2.068   6.140   6.539 -0.1122 -0.2435 -0.2521
 2574SOL    HW114583   2.142   6.173   6.488 -1.1586 -0.0073 -1.6625
 2574SOL    HW214584   2.009   6.214   6.546 -0.4996 -0.6008  0.3635
 2575SOL     OW14585   2.178  12.412  11.136  0.0595  0.2596  0.3699
 2575SOL    HW114586   2.223  12.376  11.213  1.3473 -0.2100 -0.5773
 2575SOL    HW214587   2.230  12.488  11.111 -0.2240  0.2752 -0.1740
 2576SOL     OW14588   8.712   0.143  11.681  0.1750 -0.4587 -0.1518
 2576SOL    HW114589   8.728   0.147  11.586 -2.8461 -1.2017 -0.7873
 2576SOL    HW214590   8.697   0.234  11.706 -1.1911 -0.4574 -0.8760
 2577SOL     OW14591   5.348   6.556   5.142 -0.1803  0.8042  0.4926
 2577SOL    HW114592   5.367   6.568   5.235 -1.6784 -1.0052  1.0951
 2577SOL    HW214593   5.431   6.527   5.104  0.6573  2.3324  1.0512
 2578SOL     OW14594   6.492   1.432   3.226 -0.1914  0.0268  0.0502
 2578SOL    HW114595   6.532   1.392   3.303  0.8224  1.9612  0.6087
 2578SOL    HW214596   6.398   1.419   3.237  0.0693 -1.7653  0.3886
 2579SOL     OW14597   8.156  11.121   0.359  0.5241 -0.0420 -0.3795
 2579SOL    HW114598   8.136  11.048   0.299  0.4446 -0.2953 -0.0495
 2579SOL    HW214599   8.235  11.092   0.405  0.8606  0.3603 -0.6967
 2580SOL     OW14600   3.252   4.956  12.197  0.0757 -0.4173 -0.4193
 2580SOL    HW114601   3.308   4.881  12.218  1.1538  0.5554  0.2476
 2580SOL    HW214602   3.308   5.014  12.145 -0.4615  0.3420 -0.1689
 2581SOL     OW14603   2.663   6.869  10.170  0.3419  0.2775 -0.0731
 2581SOL    HW114604   2.646   6.776  10.159  0.5534  0.3746 -1.3694
 2581SOL    HW214605   2.630   6.890  10.257  1.7951 -1.3465  0.9302
 2582SOL     OW14606   2.947   3.292  10.270  0.4060 -0.6733  0.1133
 2582SOL    HW114607   3.013   3.299  10.339 -0.3154  0.3057  0.7267
 2582SOL    HW214608   2.951   3.376  10.224 -1.6530  0.1776  1.3343
 2583SOL     OW14609   5.260   5.894   4.504 -0.0276 -0.3501 -0.5656
 2583SOL    HW114610   5.200   5.888   4.578  1.5758 -3.4126  0.6899
 2583SOL    HW214611   5.213   5.853   4.432 -0.4358 -0.2958 -0.3330
 2584SOL     OW14612   9.046   6.894   6.113 -0.2403  0.3316 -0.0317
 2584SOL    HW114613   8.982   6.901   6.184 -1.3663 -0.9105 -0.8856
 2584SOL    HW214614   9.000   6.924   6.035  0.1184 -0.8391 -0.7129
 2585SOL     OW14615   5.807  12.135   6.057  0.0155 -0.3788 -0.4809
 2585SOL    HW114616   5.851  12.056   6.025  2.8631  1.3402 -1.2220
 2585SOL    HW214617   5.867  12.171   6.122 -0.2270  2.1002 -1.5121
 2586SOL     OW14618   2.693  11.855   3.129  0.1495 -0.1801  0.1833
 2586SOL    HW114619   2.786  11.832   3.125  0.3110  0.2733  1.1406
 2586SOL    HW214620   2.662  11.814   3.210 -0.6672 -0.9336 -0.4847
 2587SOL     OW14621   4.358   7.910  11.703 -0.4108  0.4529  0.2216
 2587SOL    HW114622   4.379   7.848  11.633  0.8343  0.0421  0.9265
 2587SOL    HW214623   4.268   7.936  11.685 -1.0826 -1.7873  0.0603
 2588SOL     OW14624   6.609   5.736   6.890 -0.2495 -0.3881  0.1423
 2588SOL    HW114625   6.546   5.674   6.853  1.5087 -1.6350 -0.9607
 2588SOL    HW214626   6.634   5.696   6.973  1.0346 -1.3367 -0.6616
 2589SOL     OW14627   7.096   2.000   9.875 -0.3002 -0.7434 -0.1018
 2589SOL    HW114628   7.156   2.021   9.946 -0.2345 -0.1690 -0.3212
 2589SOL    HW214629   7.152   1.997   9.797 -0.2268 -2.2122 -0.0184
 2590SOL     OW14630  11.989   1.166   5.339  0.3482 -0.2238 -0.0187
 2590SOL    HW114631  11.955   1.180   5.427 -0.4846 -0.7863 -0.2457
 2590SOL    HW214632  12.011   1.073   5.336 -1.3968 -0.6437 -0.9931
 2591SOL     OW14633  11.528  11.251   7.992 -0.1773  0.1360 -0.1727
 2591SOL    HW114634  11.458  11.186   8.002  0.6690 -0.6087  1.3813
 2591SOL    HW214635  11.484  11.330   7.964 -1.9315  0.1601  2.2724
 2592SOL     OW14636   0.116   5.198   7.503 -0.0999  0.2581 -0.5045
 2592SOL    HW114637   0.174   5.239   7.439 -0.0823  0.4475 -0.3680
 2592SOL    HW214638   0.033   5.188   7.457 -0.3389  1.1731 -0.2931
 2593SOL     OW14639  10.279   4.535   4.251  0.1354  0.4358  0.0702
 2593SOL    HW114640  10.362   4.582   4.247  0.5774 -0.4025 -1.1898
 2593SOL    HW214641  10.251   4.542   4.343  1.7631  0.4284  0.5838
 2594SOL     OW14642   7.694   8.513   0.681  0.1824 -0.2285  0.1423
 2594SOL    HW114643   7.776   8.557   0.658 -0.2781  0.5801 -0.0169
 2594SOL    HW214644   7.632   8.585   0.693 -0.1933 -0.7658  1.5159
 2595SOL     OW14645   9.135   2.827   5.017 -0.4300  0.6473 -0.1809
 2595SOL    HW114646   9.113   2.917   4.994 -1.9474  0.6784  1.2325
 2595SOL    HW214647   9.214   2.808   4.965 -1.0245  2.2016 -1.7676
 2596SOL     OW14648   3.086   5.591   1.595  0.7169 -0.1953  0.5177
 2596SOL    HW114649   3.052   5.638   1.671  3.1084  2.0630  0.3488
 2596SOL    HW214650   3.040   5.630   1.521  2.0250  1.3721  0.4627
 2597SOL     OW14651   1.739   7.142   6.875 -0.5177 -0.0196  0.1016
 2597SOL    HW114652   1.801   7.096   6.819  0.3134  0.9309  0.2161
 2597SOL    HW214653   1.780   7.226   6.892 -1.8757  0.6597  0.1361
 2598SOL     OW14654   6.323   7.470  12.269 -0.0956 -0.1312  0.1713
 2598SOL    HW114655   6.346   7.540  12.330  0.1173 -0.3587  0.3571
 2598SOL    HW214656   6.228   7.480  12.256 -0.4963 -1.1192  1.9028
 2599SOL     OW14657  10.998   6.660  11.820  0.4231  0.4526 -0.3395
 2599SOL    HW114658  10.909   6.688  11.838  0.5522 -0.3128  1.8078
 2599SOL    HW214659  10.991   6.565  11.806  0.8416  0.4606 -0.6172
 2600SOL     OW14660   4.566   5.837   0.263  0.7451 -0.4971 -0.6238
 2600SOL    HW114661   4.476   5.815   0.288 -0.4504  2.7440 -1.5581
 2600SOL    HW214662   4.562   5.849   0.168  1.4212  2.2624 -0.3816
 2601SOL     OW14663   7.855   2.856   7.288  0.1882 -0.1323 -0.0070
 2601SOL    HW114664   7.761   2.848   7.274  0.2233  0.8631 -0.9323
 2601SOL    HW214665   7.863   2.893   7.376 -0.3668  1.2603 -0.5140
 2602SOL     OW14666   6.575  10.536   7.644  0.3081 -0.6022 -0.4694
 2602SOL    HW114667   6.607  10.598   7.710 -1.2649 -0.5556  0.3194
 2602SOL    HW214668   6.595  10.450   7.680 -1.0580 -0.5914  0.4152
 2603SOL     OW14669  12.061   7.886  11.770 -0.4575 -0.5001 -0.5509
 2603SOL    HW114670  12.122   7.942  11.723 -0.0929 -0.4846 -0.0707
 2603SOL    HW214671  12.015   7.946  11.830 -0.7272 -0.5616 -0.6917
 2604SOL     OW14672  12.380   2.577  11.527 -0.1432 -0.4490  0.1537
 2604SOL    HW114673  12.450   2.518  11.500  0.1208  0.4531 -1.2026
 2604SOL    HW214674  12.417   2.664  11.517 -0.9397 -0.0028  0.9527
 2605SOL     OW14675   2.834   1.153   2.909 -0.1151  0.3435  0.3062
 2605SOL    HW114676   2.926   1.178   2.900  0.1963 -1.1197 -1.0220
 2605SOL    HW214677   2.792   1.184   2.829 -1.2900  2.7722  1.7334
 2606SOL     OW14678   7.883   8.100   7.696  0.7038  0.4768 -0.4069
 2606SOL    HW114679   7.816   8.036   7.719  2.1943 -0.7827  0.5720
 2606SOL    HW214680   7.918   8.070   7.612 -0.3157  1.4788 -1.2306
 2607SOL     OW14681  11.554   7.779   8.158 -0.0857 -0.9262  0.3021
 2607SOL    HW114682  11.581   7.785   8.250 -0.0633 -0.4122  0.2650
 2607SOL    HW214683  11.480   7.719   8.159  1.1203 -2.4820  0.3823
 2608SOL     OW14684  12.084   7.108   5.716  0.1297 -0.8319 -0.4600
 2608SOL    HW114685  12.053   7.017   5.722 -0.7705 -0.4844  0.7938
 2608SOL    HW214686  12.138   7.120   5.794 -1.8802  0.4101  0.8578
 2609SOL     OW14687   3.073   7.610   8.302  0.7598  0.1249 -0.4795
 2609SOL    HW114688   3.006   7.555   8.343  2.0489 -0.2603  1.2163
 2609SOL    HW214689   3.062   7.695   8.344  2.0753 -0.2651  0.7246
 2610SOL     OW14690   9.948   9.078  10.797  0.2622 -0.1956  0.0770
 2610SOL    HW114691   9.896   8.997  10.798  0.6192 -0.4185  0.5908
 2610SOL    HW214692  10.038   9.049  10.810  0.6487  0.1137 -1.6106
 2611SOL     OW14693   2.508   5.176   9.183  0.6560  0.0145  0.9679
 2611SOL    HW114694   2.435   5.232   9.158  1.0858 -0.8917 -2.8167
 2611SOL    HW214695   2.467   5.096   9.216 -0.0569 -0.1119 -0.1964
 2612SOL     OW14696  11.543   2.792  10.234  0.3573  0.1277  0.0659
 2612SOL    HW114697  11.594   2.728  10.284  0.7313  0.3041 -0.0846
 2612SOL    HW214698  11.546   2.760  10.144 -1.4685 -0.9467  0.3271
 2613SOL     OW14699   8.220   3.941   7.681  0.2397 -0.5601 -0.1426
 2613SOL    HW114700   8.312   3.925   7.700 -0.0438 -1.2702  0.6453
 2613SOL    HW214701   8.219   3.965   7.588  0.9933 -2.4773 -0.6846
 2614SOL     OW14702   7.727   9.423   9.834 -0.7462  0.5044 -0.2002
 2614SOL    HW114703   7.672   9.408   9.911  0.1679  0.2339  0.4035
 2614SOL    HW214704   7.760   9.512   9.844 -0.7271  0.5161 -0.3500
 2615SOL     OW14705   5.616  11.736   5.271 -0.5623 -0.8964  0.3784
 2615SOL    HW114706   5.611  11.781   5.355 -1.8082 -1.3937  0.6030
 2615SOL    HW214707   5.635  11.805   5.208  0.0400 -0.4638  1.0248
 2616SOL     OW14708  10.806   9.034   5.805  0.1201 -0.5476  0.1188
 2616SOL    HW114709  10.867   9.036   5.732 -0.0543  1.6398 -0.0292
 2616SOL    HW214710  10.859   9.005   5.880  0.8407 -0.5894 -0.3964
 2617SOL     OW14711   0.147  10.466   0.987  0.1352 -0.3658 -0.1962
 2617SOL    HW114712   0.104  10.550   1.003 -2.6118 -1.8821  1.1724
 2617SOL    HW214713   0.162  10.464   0.892 -0.5732  1.2608 -0.3728
 2618SOL     OW14714   4.416   5.281   7.588  0.0974 -0.1791 -0.3797
 2618SOL    HW114715   4.346   5.218   7.576 -0.6747  0.7216 -0.7403
 2618SOL    HW214716   4.400   5.348   7.522  0.9369  0.3583 -0.0615
 2619SOL     OW14717   8.423   5.101   6.100  0.1399  0.0107 -0.4802
 2619SOL    HW114718   8.438   5.062   6.014  0.9162  1.9142 -1.2619
 2619SOL    HW214719   8.504   5.146   6.121 -1.0178  2.1267 -0.1957
 2620SOL     OW14720  10.032   5.382   2.389  0.1745 -0.4156  0.0757
 2620SOL    HW114721  10.116   5.371   2.434  0.2202 -2.5462 -0.4168
 2620SOL    HW214722   9.966   5.370   2.457  0.2662 -1.0876  0.0533
 2621SOL     OW14723   3.835  10.720   7.023  0.4683  0.3308  0.1899
 2621SOL    HW114724   3.898  10.649   7.029  0.8206  0.6695  0.6061
 2621SOL    HW214725   3.756  10.687   7.067  0.1242 -0.3296 -0.8962
 2622SOL     OW14726  10.221   4.898  12.049 -0.2838  0.3508 -0.5735
 2622SOL    HW114727  10.162   4.960  12.093  0.3301 -0.2914  1.2599
 2622SOL    HW214728  10.298   4.950  12.026  0.5508  0.2033  1.6289
 2623SOL     OW14729   1.547   8.588   0.303 -0.0738  0.3491 -0.3109
 2623SOL    HW114730   1.583   8.562   0.387  0.7425  1.2687 -0.3546
 2623SOL    HW214731   1.464   8.632   0.325 -1.1255 -1.5810 -0.1962
 2624SOL     OW14732   6.229   3.476  12.479  0.1053  0.1097  0.5873
 2624SOL    HW114733   6.184   3.421  12.415 -0.5760  0.0022  1.1462
 2624SOL    HW214734   6.322   3.452  12.470  0.0627  0.3085 -0.5481
 2625SOL     OW14735   6.309   2.905   3.581 -0.2818 -0.1069  0.0948
 2625SOL    HW114736   6.353   2.823   3.601  1.5986  0.8417  0.0761
 2625SOL    HW214737   6.219   2.893   3.612 -0.3462 -2.5035 -0.8238
 2626SOL     OW14738  10.164   7.470   7.640 -0.3940 -0.0145  0.3189
 2626SOL    HW114739  10.091   7.454   7.700  0.1156  0.0872  0.9714
 2626SOL    HW214740  10.238   7.426   7.680 -0.6548 -2.4826 -1.6942
 2627SOL     OW14741   2.575   4.048  12.280 -0.3853 -0.3208  0.0111
 2627SOL    HW114742   2.546   4.048  12.189  1.2863  0.6507 -0.5573
 2627SOL    HW214743   2.551   3.961  12.313  0.0531 -1.1270 -1.6975
 2628SOL     OW14744   1.380   9.406   5.340 -0.0230  0.3364 -0.0906
 2628SOL    HW114745   1.365   9.478   5.402  1.2911 -0.4199  1.1643
 2628SOL    HW214746   1.419   9.337   5.392 -1.8476 -1.5968 -1.1334
 2629SOL     OW14747   7.461   3.799   1.293  0.3132  0.2817 -0.3886
 2629SOL    HW114748   7.378   3.837   1.263  0.3599  1.3732  0.7659
 2629SOL    HW214749   7.528   3.847   1.245  0.3634  1.6158  0.9265
 2630SOL     OW14750   7.401   3.918  10.945 -0.2427 -0.1133  0.1968
 2630SOL    HW114751   7.373   3.957  10.862  1.5823 -0.5499 -0.6827
 2630SOL    HW214752   7.416   3.993  11.003 -0.7598  0.2476 -0.1351
 2631SOL     OW14753   5.948   9.513  10.522 -0.2564  0.1569 -0.5341
 2631SOL    HW114754   5.877   9.559  10.567 -0.5821  0.2491 -1.1347
 2631SOL    HW214755   5.910   9.486  10.438  1.4302  3.3290 -2.4980
 2632SOL     OW14756   8.804  11.583  10.345  0.4650 -0.4099 -0.6146
 2632SOL    HW114757   8.768  11.664  10.310  0.6638 -0.3669 -0.7246
 2632SOL    HW214758   8.732  11.543  10.392  0.5508  0.1854  0.0541
 2633SOL     OW14759   9.149   4.248   9.746 -0.0118 -0.2095 -0.0012
 2633SOL    HW114760   9.214   4.197   9.795 -1.6222 -2.1348  0.2558
 2633SOL    HW214761   9.111   4.307   9.812 -0.8941 -1.5135  0.7067
 2634SOL     OW14762   2.829  12.380   8.929 -0.7101 -0.1866 -0.3716
 2634SOL    HW114763   2.807  12.335   8.847  1.0234  1.9537 -2.1563
 2634SOL    HW214764   2.799  12.470   8.915 -2.1361 -0.1714  2.2066
 2635SOL     OW14765   5.907   4.551   8.187 -0.5605  0.1591 -0.3654
 2635SOL    HW114766   5.956   4.579   8.264 -2.6408  0.0501  1.0890
 2635SOL    HW214767   5.838   4.616   8.178 -0.7234 -0.1742 -1.7925
 2636SOL     OW14768   8.140   8.339   8.768  0.5558  0.8943 -0.0820
 2636SOL    HW114769   8.101   8.373   8.849 -1.2596  0.8523 -0.8785
 2636SOL    HW214770   8.101   8.393   8.699  1.4133  0.3675 -0.9991
 2637SOL     OW14771   1.128   1.280   2.600 -0.0879 -0.5721  0.1129
 2637SOL    HW114772   1.115   1.296   2.506 -4.0858 -1.0158  0.3791
 2637SOL    HW214773   1.180   1.354   2.630 -0.9497  1.0548 -2.0643
 2638SOL     OW14774  10.074   2.587   7.982  0.6652  0.3667 -0.2332
 2638SOL    HW114775   9.990   2.565   8.023  1.0676 -1.1717 -0.1978
 2638SOL    HW214776  10.139   2.545   8.038  1.2197 -2.3260 -2.7317
 2639SOL     OW14777   3.325   9.408   8.393  0.0694  0.4534  0.5373
 2639SOL    HW114778   3.392   9.418   8.326  0.8350  1.6272  1.4466
 2639SOL    HW214779   3.247   9.449   8.356  0.4914  1.1175  0.3811
 2640SOL     OW14780  12.288   1.776   2.211  0.2480 -0.1342 -0.1807
 2640SOL    HW114781  12.211   1.734   2.173  0.0766  0.9875 -1.1434
 2640SOL    HW214782  12.267   1.786   2.303 -1.0730  0.7920 -0.5603
 2641SOL     OW14783  10.308  11.067   0.015 -0.0360  0.2937  0.4674
 2641SOL    HW114784  10.292  10.974   0.031  0.2314  0.2163  0.2837
 2641SOL    HW214785  10.352  11.098   0.094 -1.4345  0.5997  1.1572
 2642SOL     OW14786   1.885   5.732  12.307 -0.5664  0.3451 -0.3404
 2642SOL    HW114787   1.926   5.756  12.224  1.3964 -2.1143 -0.2165
 2642SOL    HW214788   1.947   5.762  12.374 -0.5043 -0.5353  0.0214
 2643SOL     OW14789   5.399   5.908   0.631 -0.4282  0.3888 -0.1681
 2643SOL    HW114790   5.353   5.986   0.601 -1.0926  1.2536  2.7377
 2643SOL    HW214791   5.461   5.940   0.696  0.9019 -1.3052 -0.5255
 2644SOL     OW14792   3.019   2.207   3.012  0.0428  0.5755 -0.4441
 2644SOL    HW114793   3.067   2.287   2.993 -0.3763  0.5512 -1.6752
 2644SOL    HW214794   2.992   2.174   2.927  1.6570 -1.7898 -0.1626
 2645SOL     OW14795   6.310   3.130   2.768  0.4386  0.1583 -0.4736
 2645SOL    HW114796   6.261   3.208   2.740 -0.4274 -0.9431 -2.1219
 2645SOL    HW214797   6.326   3.145   2.862 -0.5294  1.8724 -0.5401
 2646SOL     OW14798  10.194   1.207   2.402 -0.0108 -0.6914  0.0076
 2646SOL    HW114799  10.251   1.201   2.325  0.1725  2.0698 -0.1744
 2646SOL    HW214800  10.107   1.189   2.368  0.1297  0.0390 -0.7904
 2647SOL     OW14801   8.776   8.132   0.899 -0.1542  0.5270  0.1314
 2647SOL    HW114802   8.773   8.220   0.862 -0.6152  0.6931  0.5685
 2647SOL    HW214803   8.805   8.077   0.826 -1.4122  0.7922 -0.5948
 2648SOL     OW14804   9.255   8.815   3.727  0.9475  0.0826  1.1657
 2648SOL    HW114805   9.322   8.789   3.791  0.1082  1.9372  2.8949
 2648SOL    HW214806   9.177   8.768   3.753  0.9885 -0.3300  0.5509
 2649SOL     OW14807   5.904   3.212  11.368  0.0819  0.1602 -0.0567
 2649SOL    HW114808   5.992   3.248  11.378 -0.1447  1.4754 -2.2105
 2649SOL    HW214809   5.918   3.120  11.345  0.9661  0.5778 -1.3000
 2650SOL     OW14810   9.231   2.140   8.177  0.5679 -0.0653 -0.1127
 2650SOL    HW114811   9.143   2.152   8.142  0.2832 -2.7680 -0.5401
 2650SOL    HW214812   9.217   2.114   8.268  0.4745 -4.5045 -1.1444
 2651SOL     OW14813   9.580   1.588   9.591 -0.1984 -0.4933 -0.0652
 2651SOL    HW114814   9.527   1.534   9.651  0.3986  1.5059  2.4215
 2651SOL    HW214815   9.633   1.524   9.542 -2.3404 -2.3357 -0.1323
 2652SOL     OW14816  11.759   4.919   8.102 -0.5957 -0.0305 -0.0010
 2652SOL    HW114817  11.808   4.897   8.181 -0.0692 -0.7086 -0.5012
 2652SOL    HW214818  11.826   4.934   8.035 -1.0535 -0.8808 -0.6736
 2653SOL     OW14819   3.049  10.438   9.171  0.2861  0.1517 -0.1380
 2653SOL    HW114820   3.038  10.434   9.076 -0.1666 -1.6177 -0.0324
 2653SOL    HW214821   3.141  10.414   9.186  0.1736 -0.2486 -0.0874
 2654SOL     OW14822   4.108  12.002  10.902 -0.2721 -0.7783  0.1276
 2654SOL    HW114823   4.073  12.038  10.820  1.0427  0.0060 -0.1249
 2654SOL    HW214824   4.060  12.049  10.970 -1.0295 -1.0808 -0.1836
 2655SOL     OW14825   7.058   7.487   4.059  0.0858 -0.7807  0.0388
 2655SOL    HW114826   7.129   7.423   4.063  1.5899  0.8629  1.0690
 2655SOL    HW214827   7.102   7.571   4.044 -1.6922  0.2102  0.1135
 2656SOL     OW14828  12.137  11.847   7.307  0.0135 -0.2608  0.3044
 2656SOL    HW114829  12.084  11.833   7.228  1.3203 -0.5364 -0.5424
 2656SOL    HW214830  12.217  11.797   7.291 -0.5002 -2.0255  2.6674
 2657SOL     OW14831   4.644   7.616   0.829 -0.1761 -0.1120  0.2140
 2657SOL    HW114832   4.676   7.581   0.913  0.3011  0.8156  0.4279
 2657SOL    HW214833   4.724   7.632   0.778 -0.4658 -0.7823 -0.4848
 2658SOL     OW14834   5.898   5.098   9.118  0.4996  0.5725  0.0086
 2658SOL    HW114835   5.918   5.044   9.194 -1.7013  0.7025  0.7475
 2658SOL    HW214836   5.981   5.139   9.095  1.7710 -1.4965  0.7035
 2659SOL     OW14837   7.846   4.506   2.232  0.4967  0.1576 -0.1357
 2659SOL    HW114838   7.765   4.468   2.265  1.6970 -3.7384 -1.0804
 2659SOL    HW214839   7.914   4.471   2.290  1.8615 -0.4081 -1.9787
 2660SOL     OW14840   5.624   7.612   4.219  0.0323 -0.3040  1.3889
 2660SOL    HW114841   5.677   7.569   4.153  0.4577  1.6379  0.3705
 2660SOL    HW214842   5.618   7.549   4.291  0.8929 -1.8544  0.1589
 2661SOL     OW14843   5.665   8.447  12.216 -0.3499  0.2691  0.3591
 2661SOL    HW114844   5.758   8.468  12.208  0.0451 -0.4734  2.3259
 2661SOL    HW214845   5.660   8.353  12.197 -0.1487 -0.3801  3.0412
 2662SOL     OW14846   5.382   0.178   8.686 -0.9069  0.1976  0.2473
 2662SOL    HW114847   5.360   0.270   8.701  0.0934  0.5537 -0.3311
 2662SOL    HW214848   5.334   0.154   8.607 -0.9232  0.3225  0.2197
 2663SOL     OW14849   0.525   7.523   9.429 -0.0890  0.2237 -0.3451
 2663SOL    HW114850   0.588   7.593   9.410 -1.3522  1.0430 -1.7553
 2663SOL    HW214851   0.461   7.564   9.487 -0.9314  0.3326 -1.3212
 2664SOL     OW14852   5.081   3.119   0.200 -0.0624  0.1121 -0.3906
 2664SOL    HW114853   5.039   3.084   0.279  2.0335 -0.2377  0.6643
 2664SOL    HW214854   5.104   3.042   0.148 -0.2709  0.2619 -0.7051
 2665SOL     OW14855   5.888   3.039   8.524 -0.0401  0.0100 -0.5173
 2665SOL    HW114856   5.882   3.133   8.540  1.6728 -0.1648  1.7333
 2665SOL    HW214857   5.966   3.011   8.572  0.3158 -2.3541 -2.2876
 2666SOL     OW14858   9.354   4.846   8.831 -0.0477  0.2929  0.0300
 2666SOL    HW114859   9.278   4.788   8.844 -3.0820  3.3411 -2.2558
 2666SOL    HW214860   9.427   4.786   8.813 -2.4032 -2.8446  0.0960
 2667SOL     OW14861  10.563   3.620   9.367 -0.2621 -0.6514  0.2094
 2667SOL    HW114862  10.615   3.693   9.402  0.0313  1.7503 -4.4961
 2667SOL    HW214863  10.472   3.647   9.381 -0.1512  0.1202 -0.4786
 2668SOL     OW14864   2.061   9.674   0.465 -0.5933 -0.6146 -0.2993
 2668SOL    HW114865   2.116   9.675   0.544 -1.0086 -2.0398  0.0460
 2668SOL    HW214866   2.080   9.589   0.424 -0.8604 -0.1575 -1.3903
 2669SOL     OW14867   0.522   8.686  10.668 -0.3129 -0.2779  0.1423
 2669SOL    HW114868   0.585   8.716  10.602 -0.3143 -1.4601 -0.4235
 2669SOL    HW214869   0.573   8.629  10.725 -1.0292 -1.9827 -0.8564
 2670SOL     OW14870   7.479   0.525   9.934 -0.1807  0.1126 -0.1978
 2670SOL    HW114871   7.533   0.525  10.013 -0.8561 -2.0523  0.3273
 2670SOL    HW214872   7.517   0.456   9.879 -0.7932  0.3826 -0.9793
 2671SOL     OW14873   6.118   5.491   6.832  0.8680 -0.7664 -0.1225
 2671SOL    HW114874   6.036   5.510   6.877  0.6412  0.5544 -1.0156
 2671SOL    HW214875   6.096   5.497   6.739  2.2837  1.3510 -0.3981
 2672SOL     OW14876   0.938   0.510   9.224 -0.6849  0.0272 -0.2357
 2672SOL    HW114877   1.029   0.531   9.247 -0.2419  1.4247 -2.8447
 2672SOL    HW214878   0.940   0.418   9.198  0.1222  0.1768 -0.7510
 2673SOL     OW14879   0.510   7.701   3.964 -0.0402 -0.6777  0.4394
 2673SOL    HW114880   0.536   7.783   4.008 -0.0517 -0.6645  0.4210
 2673SOL    HW214881   0.507   7.724   3.871 -1.8008 -0.2223  0.5720
 2674SOL     OW14882   1.906   1.468  12.059 -0.1989 -0.0349 -0.7147
 2674SOL    HW114883   1.937   1.388  12.017  0.0093  0.7022 -2.0045
 2674SOL    HW214884   1.813   1.451  12.076  0.3924 -1.5174  1.4259
 2675SOL     OW14885  11.194   9.153   9.797  0.1059  0.4270  0.5806
 2675SOL    HW114886  11.194   9.223   9.862  0.4432  0.0368  1.0032
 2675SOL    HW214887  11.282   9.116   9.801  0.4617  1.0401 -0.8023
 2676SOL     OW14888   2.803  11.189   9.565  0.0751 -0.4041  0.2072
 2676SOL    HW114889   2.802  11.207   9.472 -2.4904  0.5705  0.3425
 2676SOL    HW214890   2.781  11.096   9.572  1.8930 -0.8954 -0.1543
 2677SOL     OW14891   8.787   4.042   3.046  0.2500 -0.5427 -0.2425
 2677SOL    HW114892   8.827   3.971   3.096 -0.0404 -0.1468  0.5574
 2677SOL    HW214893   8.753   4.102   3.111  0.6286  0.4279 -0.9139
 2678SOL     OW14894   4.921   7.577   3.330  0.0026 -0.3061  0.5199
 2678SOL    HW114895   4.990   7.624   3.377 -0.8965  2.5871 -0.8671
 2678SOL    HW214896   4.858   7.644   3.305 -1.7042 -2.3582 -1.1184
 2679SOL     OW14897   0.810   8.861   8.952 -0.1212  0.3399 -0.4484
 2679SOL    HW114898   0.902   8.882   8.936  0.5224 -0.4013  1.8355
 2679SOL    HW214899   0.807   8.765   8.955 -1.0351  0.3505 -0.8535
 2680SOL     OW14900   8.972   2.576   4.968 -0.7440 -0.4694  0.4626
 2680SOL    HW114901   9.003   2.662   4.997 -3.7896  1.4459 -1.3396
 2680SOL    HW214902   8.909   2.550   5.035 -0.9022 -0.5583  0.2807
 2681SOL     OW14903  12.194   6.507  10.248 -0.2208  0.1182  0.3706
 2681SOL    HW114904  12.138   6.455  10.191  0.6826 -2.0779  1.3582
 2681SOL    HW214905  12.283   6.487  10.219  0.1593  1.2670  0.6935
 2682SOL     OW14906   5.317   7.317   7.936 -0.2655 -0.0228  0.0243
 2682SOL    HW114907   5.384   7.255   7.966 -1.1417 -1.1309 -0.2092
 2682SOL    HW214908   5.366   7.387   7.893  0.8541  0.2845  1.7106
 2683SOL     OW14909  11.426  12.451   0.874  0.4108  0.1243 -0.4286
 2683SOL    HW114910  11.514  12.430   0.844  1.0059 -0.4082  1.5115
 2683SOL    HW214911  11.431  12.542   0.903  0.6959 -0.2844  0.8595
 2684SOL     OW14912   5.919   4.331   2.278  0.3446  0.1815 -0.6069
 2684SOL    HW114913   5.886   4.288   2.200  1.0020  0.5374 -1.0873
 2684SOL    HW214914   5.930   4.423   2.253 -1.2248  0.7074  0.4637
 2685SOL     OW14915   0.596  11.580   7.369 -0.6031 -0.4592  0.2507
 2685SOL    HW114916   0.545  11.597   7.289 -0.2037 -0.9405 -0.1104
 2685SOL    HW214917   0.678  11.543   7.338 -0.9184 -1.8009  0.9313
 2686SOL     OW14918   0.228   2.032   0.167  0.1279 -0.7069  0.8755
 2686SOL    HW114919   0.247   1.979   0.089 -0.1942 -0.2351  0.4681
 2686SOL    HW214920   0.133   2.030   0.175  0.1264 -0.3503  0.9653
 2687SOL     OW14921  12.179   8.910   0.412 -0.1187 -0.3453 -0.5436
 2687SOL    HW114922  12.188   8.893   0.318 -0.0219 -1.7462 -0.3002
 2687SOL    HW214923  12.229   8.991   0.427  1.1579 -0.9419 -1.4416
 2688SOL     OW14924  11.188   4.494  10.634  0.6557 -0.2538  0.2131
 2688SOL    HW114925  11.164   4.443  10.557 -2.5438  1.2678  0.0596
 2688SOL    HW214926  11.242   4.435  10.686  2.7172 -1.4499 -2.9527
 2689SOL     OW14927   0.805  10.010   6.145  0.2236  0.8676 -0.1122
 2689SOL    HW114928   0.720  10.040   6.113  0.9838  1.0832 -2.0300
 2689SOL    HW214929   0.787   9.923   6.181 -0.9185  1.2052  0.2010
 2690SOL     OW14930   6.896  12.408  11.488  0.4092 -0.5556  0.0744
 2690SOL    HW114931   6.832  12.453  11.544  0.0731 -0.0048 -0.7255
 2690SOL    HW214932   6.935  12.342  11.544 -0.7793 -0.8170  0.6331
 2691SOL     OW14933   1.861   4.911   7.006 -0.4356  0.2742  0.3448
 2691SOL    HW114934   1.775   4.873   6.986 -1.0622  1.1157  1.3392
 2691SOL    HW214935   1.913   4.837   7.037 -1.2300 -0.0220  1.0085
 2692SOL     OW14936   4.172   9.079   9.138 -0.1227  0.2432 -0.1310
 2692SOL    HW114937   4.177   9.148   9.204  1.4500 -1.7343  1.9974
 2692SOL    HW214938   4.093   9.030   9.160  0.6754 -0.7268  0.6935
 2693SOL     OW14939   7.551   2.585   8.717  0.6601  0.6288  0.5645
 2693SOL    HW114940   7.485   2.652   8.732  1.3978  1.2780  1.0095
 2693SOL    HW214941   7.614   2.626   8.658  2.1079  1.0380  2.3098
 2694SOL     OW14942   9.652   4.211   9.270  0.0980 -0.1503  0.4284
 2694SOL    HW114943   9.651   4.197   9.175 -0.5056 -2.0231  0.6780
 2694SOL    HW214944   9.667   4.305   9.279  0.4494  0.0349 -1.5112
 2695SOL     OW14945   2.994   2.644  11.377 -0.1104 -0.0264 -0.3500
 2695SOL    HW114946   3.048   2.565  11.381 -0.9524 -0.8192 -2.8891
 2695SOL    HW214947   2.911   2.615  11.340 -1.1610  1.7311  0.4937
 2696SOL     OW14948   6.296   7.837   7.770  0.3911  0.1143  0.2503
 2696SOL    HW114949   6.306   7.748   7.735  2.2604  0.4238 -0.0695
 2696SOL    HW214950   6.298   7.825   7.865 -3.5778 -0.5940  0.4319
 2697SOL     OW14951   5.069   3.807  10.571  0.2574 -0.0881  0.8597
 2697SOL    HW114952   4.987   3.827  10.615 -0.3170  0.9921 -0.5996
 2697SOL    HW214953   5.054   3.723  10.529 -0.0167 -0.0130  0.8059
 2698SOL     OW14954   0.646   2.350   3.900  0.4787  0.1793  0.2206
 2698SOL    HW114955   0.709   2.349   3.828  0.9742  0.7265  0.6422
 2698SOL    HW214956   0.630   2.258   3.919  0.6570  0.0331 -0.3144
 2699SOL     OW14957   7.752   0.099   9.027  0.3721 -0.0856 -0.0516
 2699SOL    HW114958   7.780   0.159   8.958 -0.2616 -0.2233 -0.4482
 2699SOL    HW214959   7.733   0.017   8.981  2.1931 -0.9330  0.6142
 2700SOL     OW14960   7.451   1.163  10.849 -0.1562  0.1550 -0.1041
 2700SOL    HW114961   7.409   1.189  10.930 -1.6908 -3.0821  0.3047
 2700SOL    HW214962   7.382   1.166  10.783  0.2379 -0.3432 -0.5559
 2701SOL     OW14963   0.823   6.338   1.315 -0.0147  0.0224  0.0629
 2701SOL    HW114964   0.733   6.371   1.320 -1.1419 -2.8443  1.2351
 2701SOL    HW214965   0.845   6.345   1.222 -1.2419  1.2480 -0.1792
 2702SOL     OW14966  11.709   5.717   4.246  0.4412  0.5351  0.1452
 2702SOL    HW114967  11.693   5.634   4.201  1.4672  0.7969 -0.7559
 2702SOL    HW214968  11.645   5.778   4.209  0.1321  0.3154  0.3165
 2703SOL     OW14969   9.647   4.917  11.928  0.3409  0.1606  0.3359
 2703SOL    HW114970   9.578   4.913  11.862 -0.4406 -0.8217  1.1726
 2703SOL    HW214971   9.725   4.945  11.880 -0.6108  1.2261 -0.6428
 2704SOL     OW14972   2.536   5.874   5.102  0.1027  0.2182 -0.1824
 2704SOL    HW114973   2.475   5.816   5.147 -0.6679 -0.1687 -1.6436
 2704SOL    HW214974   2.598   5.902   5.169  1.0943 -3.0432  0.3915
 2705SOL     OW14975   7.450   6.010   4.777  0.1897  0.4764 -0.2209
 2705SOL    HW114976   7.407   6.076   4.832  0.2292 -1.8623  2.9168
 2705SOL    HW214977   7.426   6.034   4.687 -3.7757  2.0019  1.0209
 2706SOL     OW14978   6.408   5.458  11.941 -0.2367  0.5232  0.3008
 2706SOL    HW114979   6.355   5.497  12.010 -0.7141 -1.4847  1.1196
 2706SOL    HW214980   6.492   5.503  11.947 -1.3868  2.8897 -0.2092
 2707SOL     OW14981   6.890   8.713   8.703  0.3261  0.0413 -0.4510
 2707SOL    HW114982   6.980   8.692   8.725  0.0296  0.9095  1.8955
 2707SOL    HW214983   6.878   8.803   8.733 -1.8648 -0.7257  1.2846
 2708SOL     OW14984   0.735   9.345   6.155 -0.0789  0.2131 -0.5823
 2708SOL    HW114985   0.796   9.289   6.108 -1.5166 -1.1538 -0.9239
 2708SOL    HW214986   0.681   9.384   6.086  0.7453  1.8658 -0.3271
 2709SOL     OW14987   5.650  12.031   8.604 -0.1602  0.6312 -0.4953
 2709SOL    HW114988   5.688  12.119   8.606  0.8144  0.2121  0.6919
 2709SOL    HW214989   5.596  12.026   8.683 -0.0364  0.1013 -0.4396
 2710SOL     OW14990   1.647   1.349   9.933  0.3426 -0.1794  0.0387
 2710SOL    HW114991   1.580   1.357   9.865  0.2445  1.1331  0.2804
 2710SOL    HW214992   1.601   1.365  10.015  1.1842  2.2469  0.1039
 2711SOL     OW14993  11.163   7.678   6.413 -0.5408  0.2337 -0.7424
 2711SOL    HW114994  11.209   7.745   6.363 -0.2375 -0.2195 -1.0751
 2711SOL    HW214995  11.189   7.695   6.504  1.7088 -1.0642 -1.0614
 2712SOL     OW14996   4.613   2.161  11.925  0.3989 -0.6916 -0.0507
 2712SOL    HW114997   4.565   2.216  11.986  0.3192  0.0765 -0.7984
 2712SOL    HW214998   4.674   2.111  11.981  2.9958  2.6474  0.4249
 2713SOL     OW14999  11.699   7.039   5.679  0.3117 -0.2086  0.0277
 2713SOL    HW115000  11.770   7.045   5.615  0.1501 -2.9255 -0.5436
 2713SOL    HW215001  11.629   6.991   5.633 -0.3844 -0.9414  1.7497
 2714SOL     OW15002   3.515   4.285  11.390  0.5843 -0.2127 -0.2820
 2714SOL    HW115003   3.585   4.329  11.340 -0.2092 -0.5920 -1.7894
 2714SOL    HW215004   3.558   4.210  11.430  1.1352 -0.2238 -0.8733
 2715SOL     OW15005   0.278   6.720   9.860 -0.0812 -0.0417 -0.5011
 2715SOL    HW115006   0.208   6.757   9.806 -0.0482 -0.1851 -0.6447
 2715SOL    HW215007   0.349   6.702   9.798  0.7713  1.7333 -0.1088
 2716SOL     OW15008   7.236   4.589   4.268  0.0050 -0.7457  0.4329
 2716SOL    HW115009   7.226   4.633   4.184  0.3437 -1.2391  0.1300
 2716SOL    HW215010   7.207   4.653   4.333 -2.9001 -1.2865 -0.2216
 2717SOL     OW15011  10.880   3.327   5.807 -0.3275  0.0458  0.2355
 2717SOL    HW115012  10.892   3.277   5.887  0.1456 -0.5156 -0.1808
 2717SOL    HW215013  10.968   3.339   5.772 -0.4273  1.1956  0.3384
 2718SOL     OW15014  10.847   1.692   8.687 -0.4115 -0.2912 -0.2552
 2718SOL    HW115015  10.887   1.610   8.659  0.8416  0.4205 -0.6373
 2718SOL    HW215016  10.845   1.686   8.783 -0.2539 -0.7298 -0.2777
 2719SOL     OW15017   1.802   4.174   0.237  0.5976  0.0280 -0.5437
 2719SOL    HW115018   1.781   4.258   0.279  2.0351  0.4012 -0.5321
 2719SOL    HW215019   1.843   4.199   0.154  0.1121 -0.6919 -1.0135
 2720SOL     OW15020   5.232   1.639   3.825 -0.1085  0.3810  0.1900
 2720SOL    HW115021   5.232   1.572   3.894 -1.2305  0.8020  0.6217
 2720SOL    HW215022   5.238   1.589   3.744 -0.2052 -0.2046  0.5372
 2721SOL     OW15023   9.630   2.557  11.571  0.2685 -0.1083 -0.1126
 2721SOL    HW115024   9.597   2.562  11.661  0.8466 -1.9332  0.2335
 2721SOL    HW215025   9.603   2.640  11.531 -0.4580  0.5110  1.5785
 2722SOL     OW15026   1.937   6.617  11.824 -0.4775 -0.5190  0.3636
 2722SOL    HW115027   2.023   6.645  11.793  0.6482 -3.1836  0.8597
 2722SOL    HW215028   1.904   6.559  11.755 -1.4706 -0.2829  0.6200
 2723SOL     OW15029   6.041  12.276   7.450 -0.3168 -0.0915  0.2161
 2723SOL    HW115030   5.954  12.280   7.411 -0.8039  1.1408  1.3671
 2723SOL    HW215031   6.040  12.341   7.520  0.7449 -1.6982  1.8369
 2724SOL     OW15032  11.389   8.397   4.723 -0.1917 -0.6807 -0.2819
 2724SOL    HW115033  11.467   8.344   4.704 -0.1214  0.1151 -2.5358
 2724SOL    HW215034  11.423   8.480   4.755 -0.1130 -0.5026 -0.8153
 2725SOL     OW15035   3.743   6.333   9.524  0.0577 -0.9449 -0.3743
 2725SOL    HW115036   3.719   6.422   9.548  0.8483 -0.8316  0.0142
 2725SOL    HW215037   3.838   6.328   9.537  0.1017 -1.6905 -0.8787
 2726SOL     OW15038   2.433  10.313   3.091  0.3179 -0.0855 -0.5538
 2726SOL    HW115039   2.444  10.288   2.999 -0.9790 -1.8446 -0.2652
 2726SOL    HW215040   2.372  10.386   3.089  1.1313  0.6011 -1.1413
 2727SOL     OW15041   4.386   1.608   6.970  0.1338 -0.2850 -0.0629
 2727SOL    HW115042   4.316   1.645   6.915 -0.9376 -0.8922  0.8536
 2727SOL    HW215043   4.453   1.580   6.908 -0.0674  1.0440 -0.9208
 2728SOL     OW15044  12.212   0.147  11.852 -0.0714  0.3629 -0.0083
 2728SOL    HW115045  12.298   0.141  11.893 -0.6280 -2.7508  0.9963
 2728SOL    HW215046  12.150   0.140  11.924 -1.1518  0.5560 -0.8936
 2729SOL     OW15047   5.510   9.662   5.452  0.5589  0.4788  0.2667
 2729SOL    HW115048   5.442   9.724   5.427  1.7635  1.4985 -0.6210
 2729SOL    HW215049   5.550   9.699   5.531 -1.0245 -1.0288  1.8740
 2730SOL     OW15050   0.350   5.539   5.914 -0.7214  0.6863 -0.0381
 2730SOL    HW115051   0.344   5.490   5.995 -1.0560 -0.4808 -0.7497
 2730SOL    HW215052   0.442   5.567   5.909 -0.2977 -0.6296 -0.0336
 2731SOL     OW15053  11.656   5.218   0.791  0.3954 -0.0138 -0.5950
 2731SOL    HW115054  11.671   5.310   0.772  0.0112  0.6551  1.9591
 2731SOL    HW215055  11.567   5.215   0.827  0.8243 -1.1757  0.4353
 2732SOL     OW15056  10.982  12.212  11.874 -0.0405 -0.4956 -0.2289
 2732SOL    HW115057  10.908  12.152  11.863  0.9438 -1.6478 -0.8614
 2732SOL    HW215058  11.047  12.161  11.922  1.4389 -0.5183 -2.1335
 2733SOL     OW15059   1.429   4.072   3.099  0.5625  0.1441 -0.1047
 2733SOL    HW115060   1.465   4.059   3.187  1.6652  1.6148 -0.2957
 2733SOL    HW215061   1.506   4.080   3.042 -0.0838  1.2290 -0.8778
 2734SOL     OW15062   3.926   8.314   3.703 -0.2580 -0.2655 -0.2097
 2734SOL    HW115063   3.947   8.408   3.702 -0.7702 -0.1424 -1.2364
 2734SOL    HW215064   3.999   8.273   3.749 -0.2133  0.6797  0.5854
 2735SOL     OW15065   3.103  10.023   0.064 -0.1655 -0.0636 -0.2251
 2735SOL    HW115066   3.020  10.052   0.102  0.1620 -0.6517  0.9931
 2735SOL    HW215067   3.146  10.104   0.036  0.2314  0.5928  2.0814
 2736SOL     OW15068   2.028   6.055   2.219  0.8277 -0.4450 -0.4840
 2736SOL    HW115069   2.062   5.973   2.184  1.0732 -0.4290 -0.2757
 2736SOL    HW215070   1.957   6.078   2.158  0.4801 -1.0204 -0.3118
 2737SOL     OW15071   5.971   6.430   7.318 -0.3657  0.4973 -0.2782
 2737SOL    HW115072   5.926   6.507   7.352  0.0625  1.1422 -1.1227
 2737SOL    HW215073   5.908   6.360   7.326 -0.5697  0.8102  1.0232
 2738SOL     OW15074   4.521   3.572   6.734  0.1918  0.3783 -0.0877
 2738SOL    HW115075   4.535   3.660   6.769  2.3783 -0.1898  0.5810
 2738SOL    HW215076   4.506   3.517   6.811  2.4368 -0.4183 -0.1334
 2739SOL     OW15077   4.070   3.600   5.975  0.2367 -0.0622  0.3915
 2739SOL    HW115078   4.145   3.572   6.028 -0.8767  0.4062  2.2613
 2739SOL    HW215079   4.094   3.688   5.944  1.3173 -0.7319 -0.7982
 2740SOL     OW15080   4.884   9.969   8.166 -0.3686 -0.2213  0.5337
 2740SOL    HW115081   4.890   9.877   8.192 -0.3945 -0.1785  0.6857
 2740SOL    HW215082   4.889   9.967   8.070  1.9823 -0.2012  0.6036
 2741SOL     OW15083  10.158   1.415   5.904  0.0470 -0.0178  0.1613
 2741SOL    HW115084  10.118   1.380   5.824  2.5322 -1.4731 -0.5580
 2741SOL    HW215085  10.101   1.383   5.974 -0.7839 -0.8794 -0.8561
 2742SOL     OW15086   8.055   0.281  10.555 -0.0554 -0.3735 -0.0746
 2742SOL    HW115087   8.092   0.305  10.640  1.6317  2.4991 -1.4711
 2742SOL    HW215088   8.024   0.364  10.518 -1.4848 -1.6654 -1.9632
 2743SOL     OW15089   8.222   0.489   6.829  0.0714  0.2006  0.0799
 2743SOL    HW115090   8.129   0.511   6.836 -0.0256 -0.6644  2.2286
 2743SOL    HW215091   8.223   0.399   6.798  0.0750 -0.4356  1.8014
 2744SOL     OW15092   5.005   7.657   7.538 -0.1733 -0.3480  0.3376
 2744SOL    HW115093   4.975   7.569   7.516  1.6326 -1.0484  0.5171
 2744SOL    HW215094   5.035   7.694   7.455 -0.8277  0.0729  0.2804
 2745SOL     OW15095   4.520   1.850   2.684  0.1872 -0.7202 -0.3902
 2745SOL    HW115096   4.452   1.822   2.745  0.3432  1.1590  0.7414
 2745SOL    HW215097   4.482   1.925   2.639  0.6695 -1.1124 -1.4639
 2746SOL     OW15098   6.971   2.844   4.439 -0.7862 -0.7804  0.5483
 2746SOL    HW115099   6.897   2.784   4.436 -0.9571 -0.5480 -0.5087
 2746SOL    HW215100   7.008   2.840   4.351  2.2752 -3.1077  1.7623
 2747SOL     OW15101   2.562   2.782   9.440 -0.1322 -0.3786 -0.3381
 2747SOL    HW115102   2.547   2.707   9.383  1.0259 -0.9080  0.0298
 2747SOL    HW215103   2.643   2.762   9.486  0.1660  1.0663 -0.1727
 2748SOL     OW15104  11.494   2.868   7.479  0.2012  0.3243 -0.2228
 2748SOL    HW115105  11.459   2.901   7.562 -1.7251  0.2254 -0.9355
 2748SOL    HW215106  11.478   2.939   7.417  1.7632  0.4546 -0.5050
 2749SOL     OW15107   5.949   9.319  11.070  0.4079  0.0122 -0.0877
 2749SOL    HW115108   5.881   9.252  11.061  1.7095 -1.1668 -1.7446
 2749SOL    HW215109   5.951   9.363  10.985  1.4005  0.3305  0.0881
 2750SOL     OW15110  10.289   1.831   8.480  0.7124 -0.2885 -0.1157
 2750SOL    HW115111  10.248   1.761   8.532  1.1977 -0.7615 -0.3606
 2750SOL    HW215112  10.221   1.857   8.418  0.3826 -0.2435  0.2567
 2751SOL     OW15113  11.115   3.412   3.521  0.2234  0.4429  0.4306
 2751SOL    HW115114  11.043   3.390   3.462 -0.0529 -1.6022  1.4279
 2751SOL    HW215115  11.078   3.403   3.609  1.9706 -2.0461  1.0222
 2752SOL     OW15116   9.868  11.762   7.992 -0.8815  0.0236 -0.1087
 2752SOL    HW115117   9.836  11.829   8.053 -2.7657  0.1358 -1.1388
 2752SOL    HW215118   9.827  11.681   8.022 -0.4515 -0.2454 -0.2370
 2753SOL     OW15119   9.685   2.627  10.020  0.2536 -0.2520 -0.5309
 2753SOL    HW115120   9.602   2.614   9.974  0.0262 -0.9403  0.0463
 2753SOL    HW215121   9.666   2.696  10.084 -0.0939 -0.8866  0.0763
 2754SOL     OW15122   0.056   7.365   7.900  0.3510  0.1693 -0.5485
 2754SOL    HW115123   0.148   7.387   7.909  0.4785  0.4419 -2.1609
 2754SOL    HW215124   0.034   7.389   7.810 -0.9057 -1.2758 -0.6759
 2755SOL     OW15125   3.210   8.433  11.999 -0.1584  0.4784 -0.0106
 2755SOL    HW115126   3.152   8.497  11.958 -1.0097 -1.1827 -1.5181
 2755SOL    HW215127   3.285   8.425  11.940 -0.5570 -0.6449 -0.3951
 2756SOL     OW15128   5.128   3.484   8.853  0.2793 -0.2416  0.1851
 2756SOL    HW115129   5.217   3.518   8.838  0.5635 -0.5292  1.1895
 2756SOL    HW215130   5.095   3.533   8.928 -1.1189  1.1403 -1.2583
 2757SOL     OW15131   7.335  10.644  12.052 -0.6452  0.2290  0.4228
 2757SOL    HW115132   7.386  10.686  12.121  1.8431 -2.1270  0.1551
 2757SOL    HW215133   7.245  10.676  12.066  0.0347  1.0491  3.7267
 2758SOL     OW15134  12.014  12.482   9.203  0.2089 -0.0760  0.4161
 2758SOL    HW115135  12.052  12.446   9.283  0.7160 -0.0898  0.1769
 2758SOL    HW215136  11.928  12.515   9.229 -0.2801 -1.4495  0.6520
 2759SOL     OW15137   3.052   9.643   2.158  0.5899  0.2655 -0.0458
 2759SOL    HW115138   3.080   9.552   2.151  0.6552  0.3202 -0.5107
 2759SOL    HW215139   3.065   9.665   2.250 -0.5681 -0.5718  0.3527
 2760SOL     OW15140   5.286  11.302   4.620  0.2533  0.3561  0.0299
 2760SOL    HW115141   5.378  11.308   4.595  0.2197  2.1947  0.2060
 2760SOL    HW215142   5.286  11.313   4.715 -0.1526  0.3299  0.0347
 2761SOL     OW15143   7.478   0.934  12.345 -0.1765  0.4050 -0.4410
 2761SOL    HW115144   7.525   0.946  12.427 -1.8263  0.9468  0.4742
 2761SOL    HW215145   7.488   1.017  12.298  1.1025 -0.0416 -1.0078
 2762SOL     OW15146   6.359   3.919  12.325  0.2886  0.6601 -0.1022
 2762SOL    HW115147   6.320   3.842  12.283  0.5898  0.4057  0.0808
 2762SOL    HW215148   6.295   3.947  12.390 -0.4783  1.4478 -1.1566
 2763SOL     OW15149   9.984  10.230  12.476  0.6669 -0.0162 -0.3302
 2763SOL    HW115150   9.987  10.321  12.506  1.5688 -0.0756 -0.1991
 2763SOL    HW215151  10.070  10.194  12.500  0.4092 -0.8344 -0.5927
 2764SOL     OW15152   0.499   0.325  11.120 -0.7248  0.4781  0.7250
 2764SOL    HW115153   0.435   0.394  11.138  3.0135  4.2510  1.0592
 2764SOL    HW215154   0.462   0.277  11.046 -2.4417  4.7528 -1.5557
 2765SOL     OW15155   1.770  11.570  10.667  0.5896 -0.3911 -0.3049
 2765SOL    HW115156   1.737  11.646  10.620 -0.1708 -0.0314  0.8025
 2765SOL    HW215157   1.728  11.495  10.623  1.0819 -0.1753 -1.1751
 2766SOL     OW15158  10.786   6.595   7.758  0.1638 -0.2279  0.1815
 2766SOL    HW115159  10.856   6.580   7.822  0.4091 -0.3226 -0.1063
 2766SOL    HW215160  10.762   6.687   7.770 -0.0333 -0.3376  0.6491
 2767SOL     OW15161   0.636   0.422  10.283 -0.0141 -0.6234  0.0061
 2767SOL    HW115162   0.570   0.358  10.311 -0.9438 -0.3536 -1.4711
 2767SOL    HW215163   0.614   0.502  10.331 -1.4244 -0.2435 -1.2076
 2768SOL     OW15164  11.378   3.119   1.428 -0.3839  0.2087  0.2391
 2768SOL    HW115165  11.394   3.135   1.334  0.6048 -1.5757  0.0602
 2768SOL    HW215166  11.466   3.116   1.466 -0.7468 -0.0685  1.0540
 2769SOL     OW15167   0.682   6.332   2.263  0.2055 -0.0065 -0.1797
 2769SOL    HW115168   0.773   6.307   2.245  0.2516 -0.6245  0.7954
 2769SOL    HW215169   0.638   6.249   2.279 -0.5451  0.2925 -0.6861
 2770SOL     OW15170   4.878  12.296   2.810 -0.0174 -0.1387  0.4005
 2770SOL    HW115171   4.890  12.236   2.883  1.9157  0.0451  0.2870
 2770SOL    HW215172   4.802  12.349   2.835  0.3657 -0.3282  2.1035
 2771SOL     OW15173   6.130  10.751   5.052  0.4265  0.6459 -0.3184
 2771SOL    HW115174   6.155  10.667   5.014 -0.2119  0.1642  0.2975
 2771SOL    HW215175   6.135  10.737   5.147  0.3736  1.3236 -0.2078
 2772SOL     OW15176   9.733   3.774   1.493 -0.7279  0.0834 -0.1349
 2772SOL    HW115177   9.663   3.835   1.472 -0.1467  1.3422  1.3996
 2772SOL    HW215178   9.731   3.766   1.589  0.4613 -0.7844 -0.1432
 2773SOL     OW15179   8.216   3.507   9.250  0.0872 -0.2155  0.1180
 2773SOL    HW115180   8.186   3.583   9.300 -0.0114 -0.1898  0.0181
 2773SOL    HW215181   8.179   3.432   9.297 -0.3834 -0.1713 -0.1766
 2774SOL     OW15182   7.984   3.090   5.410  0.2198 -0.2498  0.1028
 2774SOL    HW115183   8.068   3.047   5.394  1.8560  1.9693  1.8899
 2774SOL    HW215184   8.004   3.155   5.477 -2.7053  1.1796 -0.2674
 2775SOL     OW15185   0.363   4.040   7.595 -0.6309  0.0938  0.2253
 2775SOL    HW115186   0.410   3.963   7.564  0.9215  0.4382  1.5649
 2775SOL    HW215187   0.271   4.018   7.586 -0.2312 -1.2994 -0.8492
 2776SOL     OW15188   0.230  11.534   8.580  0.1407 -0.5763  0.1761
 2776SOL    HW115189   0.307  11.513   8.527 -0.0231  0.5312 -0.5283
 2776SOL    HW215190   0.184  11.602   8.531  0.9413  1.8426  2.5304
 2777SOL     OW15191   4.156   4.548   7.560 -0.4614  0.1097  0.4463
 2777SOL    HW115192   4.244   4.585   7.545 -1.2579  1.6282 -0.8702
 2777SOL    HW215193   4.160   4.461   7.521  0.7611 -0.2804  1.3720
 2778SOL     OW15194   7.521   4.072   4.378  0.0289 -0.0335 -0.0023
 2778SOL    HW115195   7.566   3.995   4.411  1.5675 -0.5848 -3.0433
 2778SOL    HW215196   7.590   4.127   4.342 -1.0362  2.8364  1.9455
 2779SOL     OW15197  12.196   4.681   2.074 -0.4632 -0.5193 -0.0875
 2779SOL    HW115198  12.159   4.762   2.109 -0.5834 -0.8610  0.5691
 2779SOL    HW215199  12.291   4.694   2.081 -0.4851 -0.5667  0.3185
 2780SOL     OW15200   7.690   9.331   2.693  0.0727 -0.3799  0.6905
 2780SOL    HW115201   7.783   9.311   2.692  0.4446  1.2128  0.4691
 2780SOL    HW215202   7.685   9.425   2.676 -1.6332 -0.5927 -0.2474
 2781SOL     OW15203   8.139   9.331   6.861  0.0052 -0.3806  0.2649
 2781SOL    HW115204   8.221   9.288   6.835  1.6584  2.5401  0.1575
 2781SOL    HW215205   8.161   9.424   6.864 -3.9368  0.8641 -2.0972
 2782SOL     OW15206   7.160   0.803  11.701  0.2750  0.1253 -0.5759
 2782SOL    HW115207   7.131   0.828  11.613  0.2122  1.0909 -0.2917
 2782SOL    HW215208   7.255   0.813  11.699  0.3231 -0.3456 -0.6824
 2783SOL     OW15209  12.226   4.840  12.171 -0.5791 -0.3900  1.0459
 2783SOL    HW115210  12.137   4.806  12.159 -0.2873 -1.1916  1.0803
 2783SOL    HW215211  12.268   4.777  12.230 -0.3513  0.6129  1.9816
 2784SOL     OW15212   5.736  11.157   5.756 -0.4697 -0.2301 -0.1617
 2784SOL    HW115213   5.716  11.239   5.802 -0.5392 -0.4896  0.2686
 2784SOL    HW215214   5.679  11.159   5.679 -0.2688  0.2602 -0.3070
 2785SOL     OW15215   2.811  10.694   0.693 -0.6114 -0.0609 -0.3378
 2785SOL    HW115216   2.717  10.693   0.714 -0.4480  0.4088  0.4738
 2785SOL    HW215217   2.851  10.741   0.767  0.5622 -2.3911  0.6079
 2786SOL     OW15218  12.204   0.545  10.988 -0.2310  0.4365 -0.2985
 2786SOL    HW115219  12.204   0.640  10.983  2.0123  0.4364 -1.0467
 2786SOL    HW215220  12.121   0.519  10.948 -1.8330  2.0775  1.7035
 2787SOL     OW15221   9.470   7.560   5.944  0.1834  0.3997  0.0213
 2787SOL    HW115222   9.469   7.631   6.008  2.0805  0.8764 -0.4102
 2787SOL    HW215223   9.432   7.486   5.990 -0.0235  1.1833  1.1441
 2788SOL     OW15224   1.626   4.780   8.851  0.3610  0.6912 -0.3142
 2788SOL    HW115225   1.683   4.727   8.795 -0.3520  0.1098 -0.4967
 2788SOL    HW215226   1.661   4.768   8.939 -1.2226 -2.0901  0.0401
 2789SOL     OW15227  10.220   4.251   7.392 -0.2010 -0.1235  0.2767
 2789SOL    HW115228  10.268   4.303   7.457 -0.2047  0.1343  0.0728
 2789SOL    HW215229  10.252   4.162   7.406  0.2173  0.0197  0.2535
 2790SOL     OW15230   7.275   2.777  10.051 -0.0541 -0.4186  0.2219
 2790SOL    HW115231   7.344   2.711  10.049  0.2860 -0.0725  0.3157
 2790SOL    HW215232   7.303   2.843   9.988 -1.5790 -1.5001 -1.6897
 2791SOL     OW15233   5.380   1.957   1.865 -0.0136  0.4902  0.0294
 2791SOL    HW115234   5.325   1.985   1.938 -0.5714  0.0993 -0.2366
 2791SOL    HW215235   5.466   1.997   1.883 -0.3782  1.1104  0.4400
 2792SOL     OW15236   0.136  12.229   4.743  0.2396  0.4148 -0.2881
 2792SOL    HW115237   0.061  12.236   4.685 -0.3592 -0.0542  0.4030
 2792SOL    HW215238   0.170  12.318   4.749 -1.1275  0.9268  0.4938
 2793SOL     OW15239   6.364   4.657  11.924  0.1521  0.9300 -0.3539
 2793SOL    HW115240   6.421   4.602  11.978  1.4259 -0.1815 -2.6733
 2793SOL    HW215241   6.315   4.711  11.987  2.1924  0.3884  1.8315
 2794SOL     OW15242  10.272   3.578  12.052 -0.4822 -0.3234 -0.0653
 2794SOL    HW115243  10.264   3.672  12.037 -0.0141 -0.2789 -0.0495
 2794SOL    HW215244  10.298   3.571  12.144 -2.3885 -0.5521  0.4914
 2795SOL     OW15245   4.966   3.515   0.581  0.4824 -0.1774  0.1441
 2795SOL    HW115246   4.984   3.492   0.673  0.1811  1.5086  0.6582
 2795SOL    HW215247   5.033   3.467   0.531  0.3692 -1.4828  1.1764
 2796SOL     OW15248   4.549   6.854   8.217 -0.7205 -0.0320 -0.0086
 2796SOL    HW115249   4.464   6.842   8.259  0.1556  1.3583  2.3266
 2796SOL    HW215250   4.543   6.941   8.177 -1.4262 -1.2017 -2.7038
 2797SOL     OW15251  12.037   5.256   7.519 -0.1224  0.2823 -0.1474
 2797SOL    HW115252  12.081   5.331   7.479 -1.1209  0.4222 -1.0215
 2797SOL    HW215253  12.106   5.188   7.522  0.7602  1.1820  0.5824
 2798SOL     OW15254   6.390   6.625   0.032 -0.3442 -0.2698  0.3628
 2798SOL    HW115255   6.414   6.678   0.108 -1.6190 -1.9124  1.9918
 2798SOL    HW215256   6.322   6.676  -0.013  1.6274  1.5141 -0.7537
 2799SOL     OW15257   3.342  10.620   5.777 -0.0104 -0.1248  0.2488
 2799SOL    HW115258   3.373  10.663   5.856  1.5513 -0.4591 -0.1541
 2799SOL    HW215259   3.280  10.682   5.739  0.3480  0.6885  0.9546
 2800SOL     OW15260   5.896   1.167  11.003 -0.1884  0.4237  1.1630
 2800SOL    HW115261   5.969   1.152  11.063 -0.5472  1.3523  1.8592
 2800SOL    HW215262   5.847   1.239  11.043 -0.7456  0.6955  0.0270
 2801SOL     OW15263   3.470   8.050   3.715 -0.1105  0.1765  0.2418
 2801SOL    HW115264   3.477   8.090   3.628 -4.5285 -0.9537 -0.8811
 2801SOL    HW215265   3.437   8.120   3.771  2.1733  0.7373  1.0145
 2802SOL     OW15266   1.201   0.918  10.724  0.5552  0.0811  0.3452
 2802SOL    HW115267   1.188   0.851  10.792 -0.0693  1.2275  1.3938
 2802SOL    HW215268   1.122   0.971  10.728  1.3468  1.3142  0.0462
 2803SOL     OW15269   8.959   0.656   6.811  0.5742 -0.0227  0.1975
 2803SOL    HW115270   8.918   0.614   6.735 -0.3878 -0.2812  0.8381
 2803SOL    HW215271   8.970   0.748   6.784  1.7228 -0.4271 -0.8245
 2804SOL     OW15272   7.633   7.636   4.636 -0.3762  0.5615 -0.6238
 2804SOL    HW115273   7.689   7.590   4.573  0.1644 -0.7219  0.7182
 2804SOL    HW215274   7.584   7.566   4.679 -0.2872  1.3248  0.7726
 2805SOL     OW15275   1.028  10.792   0.630  0.4190  0.3534 -0.1003
 2805SOL    HW115276   1.044  10.765   0.540  0.1918 -1.1525  0.2821
 2805SOL    HW215277   0.968  10.866   0.623 -1.7150 -1.3537 -1.1385
 2806SOL     OW15278   7.018   7.990   7.889 -0.4190  0.0718  0.9911
 2806SOL    HW115279   7.053   7.901   7.880  0.3055  0.2639  1.7675
 2806SOL    HW215280   7.042   8.016   7.978 -2.3646  0.3148  1.4769
 2807SOL     OW15281   8.429   9.094  10.010 -0.2325  0.2070  0.2779
 2807SOL    HW115282   8.336   9.090   9.986 -0.4181  1.7360  0.6055
 2807SOL    HW215283   8.455   9.184   9.990  1.5209 -0.5093 -0.9493
 2808SOL     OW15284   1.541   4.108   8.172  0.2229 -0.6539 -0.0121
 2808SOL    HW115285   1.449   4.135   8.170  0.1760 -0.8401 -0.5692
 2808SOL    HW215286   1.551   4.061   8.254  0.4435  1.5527  1.2947
 2809SOL     OW15287   5.024   3.637   4.695 -0.7619  0.1117  0.6950
 2809SOL    HW115288   4.950   3.697   4.692 -0.2664  0.7045 -0.8526
 2809SOL    HW215289   5.007   3.574   4.625  0.8476  1.1312 -0.7045
 2810SOL     OW15290   5.211  11.975   2.922 -0.2589 -0.0285  0.8478
 2810SOL    HW115291   5.137  11.917   2.940 -0.2828 -0.3273 -0.1789
 2810SOL    HW215292   5.272  11.921   2.873 -0.0237  0.6486  0.3875
 2811SOL     OW15293   4.494   7.019   0.260 -0.4479 -0.6367 -0.0113
 2811SOL    HW115294   4.498   6.971   0.178  1.2490 -0.0655 -0.3008
 2811SOL    HW215295   4.571   7.076   0.259 -0.8790  0.0460  1.5698
 2812SOL     OW15296   8.714   2.612  11.921  0.1445 -0.2955  0.0617
 2812SOL    HW115297   8.750   2.692  11.961 -0.7835  0.0915  0.1469
 2812SOL    HW215298   8.619   2.623  11.928 -0.0298 -2.3478  1.9319
 2813SOL     OW15299   3.412  10.124   2.550  0.1214 -0.2562  0.8311
 2813SOL    HW115300   3.393  10.033   2.575 -1.3983 -0.2859 -0.2875
 2813SOL    HW215301   3.343  10.146   2.488  1.1008  1.3279  0.2618
 2814SOL     OW15302  10.011   7.364   9.322 -0.3217 -0.1547  0.1938
 2814SOL    HW115303  10.044   7.323   9.242 -0.8379 -0.4978  0.1556
 2814SOL    HW215304  10.054   7.449   9.325 -1.4401  0.4901 -1.2425
 2815SOL     OW15305   5.368   3.863   8.553 -0.7532 -0.1429 -0.1972
 2815SOL    HW115306   5.357   3.951   8.518 -2.6841 -0.6960 -1.1386
 2815SOL    HW215307   5.406   3.876   8.640  0.0441  1.5213 -0.7393
 2816SOL     OW15308  10.849   9.043  11.081  0.4937 -0.0952 -0.4964
 2816SOL    HW115309  10.754   9.034  11.093  0.6275 -2.0115 -0.5934
 2816SOL    HW215310  10.864   9.022  10.989  1.1815 -1.8525 -0.0344
 2817SOL     OW15311   3.297   5.013  10.132  0.3056 -0.0657 -0.6068
 2817SOL    HW115312   3.343   5.095  10.146  0.1279 -0.3910  2.8953
 2817SOL    HW215313   3.204   5.038  10.127  0.1456 -0.0103  1.5066
 2818SOL     OW15314   7.232   5.944   8.639  0.6295  0.0486  0.9217
 2818SOL    HW115315   7.268   5.915   8.556 -1.7113  0.8126 -0.4766
 2818SOL    HW215316   7.153   5.890   8.651 -0.4517  1.6299  1.3205
 2819SOL     OW15317   6.142   7.903   5.468 -0.1555 -0.3702 -0.4103
 2819SOL    HW115318   6.143   7.979   5.527 -1.5070 -0.2501 -0.5135
 2819SOL    HW215319   6.233   7.876   5.463  0.1264  0.2266  0.9551
 2820SOL     OW15320   3.430  11.507   0.888 -0.2129  0.2255  0.3722
 2820SOL    HW115321   3.522  11.484   0.870 -0.4591 -0.5587  0.0689
 2820SOL    HW215322   3.379  11.446   0.834 -0.9218  0.2500  1.0010
 2821SOL     OW15323   1.820   3.153   4.307  0.0605 -0.5178 -1.2918
 2821SOL    HW115324   1.781   3.193   4.384 -0.5840  1.0617 -2.3666
 2821SOL    HW215325   1.750   3.102   4.267  0.2750 -1.0033 -1.0503
 2822SOL     OW15326  11.501   0.319   1.601 -0.1933  0.0873  0.9059
 2822SOL    HW115327  11.434   0.256   1.629  0.2961 -0.5000  0.7546
 2822SOL    HW215328  11.453   0.402   1.593 -0.7199 -0.1191  1.7122
 2823SOL     OW15329   7.273   7.873  12.371 -0.1875 -0.2991 -0.3833
 2823SOL    HW115330   7.236   7.875  12.459  1.4152 -3.5370  0.5314
 2823SOL    HW215331   7.210   7.820  12.321 -0.1852 -0.0237 -0.6753
 2824SOL     OW15332   9.394  12.263   2.106  0.6392 -0.1000  0.5369
 2824SOL    HW115333   9.349  12.196   2.157  1.1690  0.5093  1.8789
 2824SOL    HW215334   9.487  12.252   2.128  0.6705  1.5706  1.4686
 2825SOL     OW15335   6.126   5.663   3.098 -0.3174 -0.4595 -0.3682
 2825SOL    HW115336   6.072   5.585   3.084  1.0574 -2.0505  2.3886
 2825SOL    HW215337   6.145   5.695   3.010 -1.5410 -2.7923 -1.5704
 2826SOL     OW15338   8.663  10.446   4.049 -0.1722  0.1924 -0.6962
 2826SOL    HW115339   8.681  10.374   3.988  4.1504  0.8566 -0.5381
 2826SOL    HW215340   8.629  10.404   4.127  1.6059 -1.6821 -0.8427
 2827SOL     OW15341  10.098   9.497   2.875  0.6770 -0.6853  0.0718
 2827SOL    HW115342  10.085   9.532   2.787 -0.0281 -1.2977 -0.0807
 2827SOL    HW215343  10.132   9.409   2.861 -0.2256 -1.0957  0.3852
 2828SOL     OW15344   0.486   9.447   1.882 -0.3152  0.3822 -0.1775
 2828SOL    HW115345   0.496   9.370   1.827  0.4211 -0.3923  0.9835
 2828SOL    HW215346   0.444   9.414   1.962  0.4879  1.0523  0.5509
 2829SOL     OW15347   1.295   3.355   9.832 -0.0512 -0.3354  0.6586
 2829SOL    HW115348   1.331   3.267   9.844  0.4538 -0.3577 -0.8064
 2829SOL    HW215349   1.321   3.380   9.743 -0.5603  1.1253  0.8870
 2830SOL     OW15350   3.444   6.330   4.331  0.1763  0.4648 -0.2385
 2830SOL    HW115351   3.452   6.237   4.312  0.6475  0.4304  0.0964
 2830SOL    HW215352   3.426   6.371   4.247 -0.2521  0.0475 -0.3520
 2831SOL     OW15353   1.050   7.065   4.864 -0.4990 -0.6447  0.3474
 2831SOL    HW115354   1.011   7.139   4.911 -1.0440  0.0368 -1.0974
 2831SOL    HW215355   1.143   7.070   4.884 -0.7325 -0.4607  1.4449
 2832SOL     OW15356  10.301  11.549   6.958  0.2575 -0.0665 -0.4050
 2832SOL    HW115357  10.216  11.507   6.948  0.7300 -1.7692  1.8466
 2832SOL    HW215358  10.353  11.517   6.884  0.2888 -2.7962  0.6887
 2833SOL     OW15359   9.024   4.032   0.451 -0.0291  0.8719 -0.2000
 2833SOL    HW115360   9.068   4.114   0.429  0.3022  0.7432 -0.0359
 2833SOL    HW215361   8.971   4.011   0.375 -0.9536  1.7938  0.1697
 2834SOL     OW15362   1.332   7.299   5.628  0.4951 -0.0603 -0.4718
 2834SOL    HW115363   1.317   7.340   5.713 -1.8486  0.6956 -1.1651
 2834SOL    HW215364   1.395   7.229   5.646  0.1869  0.1649  1.8420
 2835SOL     OW15365   1.926   8.404  11.107  0.8721 -0.5169 -0.2067
 2835SOL    HW115366   1.998   8.355  11.068  0.4793 -0.9407 -0.4083
 2835SOL    HW215367   1.870   8.428  11.033 -0.1506 -1.7699  0.1162
 2836SOL     OW15368  10.509  10.185   5.032  0.0966  0.5207 -0.0915
 2836SOL    HW115369  10.524  10.118   4.964 -0.7500 -0.1792  0.3814
 2836SOL    HW215370  10.435  10.151   5.082  0.0882  1.5043  0.5852
 2837SOL     OW15371   8.068   5.416   0.883  0.2194 -0.0696 -0.1977
 2837SOL    HW115372   8.093   5.336   0.836  0.1286  1.1418 -2.4622
 2837SOL    HW215373   7.985   5.394   0.925  0.6271 -1.4085 -0.0458
 2838SOL     OW15374   3.324   4.031   7.060 -0.2075  0.5918 -0.2724
 2838SOL    HW115375   3.366   3.968   7.002 -0.2464 -0.5251  0.8844
 2838SOL    HW215376   3.239   4.048   7.018 -0.7594 -1.1488  0.0444
 2839SOL     OW15377   2.533   5.090  10.924  0.1237  0.9352  1.0908
 2839SOL    HW115378   2.534   5.185  10.913  1.3693  0.7680 -0.7082
 2839SOL    HW215379   2.564   5.056  10.840 -2.9272 -1.1919  0.6638
 2840SOL     OW15380  11.141   9.468  12.129  0.8245  0.5101  0.1369
 2840SOL    HW115381  11.190   9.439  12.207  1.6231  1.3494 -0.0318
 2840SOL    HW215382  11.057   9.498  12.163  1.9743  2.9907  1.0334
 2841SOL     OW15383   0.371   6.818  12.226  0.4393 -0.1673  0.5462
 2841SOL    HW115384   0.297   6.767  12.260  1.5694 -3.2500 -1.1515
 2841SOL    HW215385   0.388   6.781  12.139  3.1218  1.3411  0.2969
 2842SOL     OW15386   5.247   1.754   6.432  0.0312  0.3372  0.1037
 2842SOL    HW115387   5.236   1.783   6.523 -3.5901  1.2928 -0.5134
 2842SOL    HW215388   5.238   1.659   6.436 -0.4541  0.4047  0.6817
 2843SOL     OW15389   5.633   8.244   9.356 -0.0825  0.0131 -0.1652
 2843SOL    HW115390   5.558   8.220   9.302 -2.8790  2.1370  2.3827
 2843SOL    HW215391   5.704   8.261   9.293 -1.2724 -3.1849 -2.6357
 2844SOL     OW15392   9.486   0.301   4.030  0.3405 -0.2732  0.1766
 2844SOL    HW115393   9.510   0.261   3.947  1.3273 -0.8887  0.7396
 2844SOL    HW215394   9.501   0.395   4.017 -0.8278 -0.1947 -0.7601
 2845SOL     OW15395   8.730   0.912   9.194  0.0965 -1.3914  0.1139
 2845SOL    HW115396   8.638   0.921   9.219  0.0321 -0.5472 -0.3676
 2845SOL    HW215397   8.733   0.832   9.141 -0.6211 -0.7384 -0.9547
 2846SOL     OW15398   6.029   9.931  12.379  0.4656  0.0717  0.0498
 2846SOL    HW115399   6.025   9.839  12.351 -1.1499  0.8643 -2.7306
 2846SOL    HW215400   5.941   9.964  12.363  0.7057  1.8915  2.0542
 2847SOL     OW15401   6.139   9.883   3.798  0.0313  0.0308 -0.0285
 2847SOL    HW115402   6.046   9.882   3.818 -0.0433 -0.1075 -0.3689
 2847SOL    HW215403   6.155   9.800   3.754  0.4306 -0.1969  0.5283
 2848SOL     OW15404   0.401   2.227  12.144  0.1164 -0.6575 -0.5891
 2848SOL    HW115405   0.451   2.145  12.138 -0.8096 -1.2725 -0.2570
 2848SOL    HW215406   0.311   2.198  12.159 -0.3557  0.4140 -1.2549
 2849SOL     OW15407  10.631  10.227   9.937  0.0505 -0.5288 -0.8679
 2849SOL    HW115408  10.679  10.310   9.940  1.4389 -1.3302  0.1460
 2849SOL    HW215409  10.676  10.175   9.871  0.0323 -0.9626 -0.5444
 2850SOL     OW15410   2.897   6.953   5.073 -0.7168 -0.4779 -0.0675
 2850SOL    HW115411   2.929   7.038   5.042 -0.5335  0.2926  2.0291
 2850SOL    HW215412   2.866   6.908   4.994 -2.3293  2.1656 -1.0810
 2851SOL     OW15413   2.175   0.557  11.417 -0.8680  0.2572  0.3913
 2851SOL    HW115414   2.226   0.520  11.346 -0.5372  0.4231  0.5386
 2851SOL    HW215415   2.121   0.485  11.449 -0.9592  0.1647  0.0224
 2852SOL     OW15416   3.304  10.948   1.349  0.1104  0.3452  0.4955
 2852SOL    HW115417   3.316  11.035   1.385 -0.5573  0.5786  0.1677
 2852SOL    HW215418   3.297  10.891   1.426  0.3608  0.6003  0.7106
 2853SOL     OW15419   1.175   5.633   1.910  0.0474  0.0657  0.9228
 2853SOL    HW115420   1.096   5.658   1.862  0.7812  0.9369  0.1492
 2853SOL    HW215421   1.212   5.560   1.859 -0.3601 -0.4912  1.4072
 2854SOL     OW15422  10.872   4.798  11.910  0.4499  0.0893  0.3500
 2854SOL    HW115423  10.899   4.726  11.853  0.7733 -0.4530  1.1762
 2854SOL    HW215424  10.823   4.756  11.981  2.7188  0.3693  2.1891
 2855SOL     OW15425   1.805   6.724  12.083 -0.0596  0.1868 -0.4039
 2855SOL    HW115426   1.822   6.651  12.024  1.2254  0.8422 -0.8792
 2855SOL    HW215427   1.757   6.787  12.029 -0.2503  0.1445 -0.2875
 2856SOL     OW15428   6.876  12.152   0.670 -0.2162 -0.4924 -0.6484
 2856SOL    HW115429   6.823  12.225   0.701  0.7452 -0.7880  1.9409
 2856SOL    HW215430   6.848  12.078   0.724  0.2295 -1.5676 -1.8396
 2857SOL     OW15431   1.125   2.053   8.284 -0.3474  0.0116 -0.4441
 2857SOL    HW115432   1.197   1.990   8.278  0.1728  0.4993  0.5209
 2857SOL    HW215433   1.069   2.032   8.208  0.2960 -0.9955 -0.6673
 2858SOL     OW15434  11.906   1.645   8.996 -0.4590  0.7245  0.6378
 2858SOL    HW115435  11.958   1.570   8.967 -0.7088  0.8100 -0.0338
 2858SOL    HW215436  11.829   1.644   8.939 -0.0735  1.9873  0.0855
 2859SOL     OW15437  11.589  11.026   2.052  0.1373  0.3963 -0.5464
 2859SOL    HW115438  11.666  10.981   2.019  1.5086  1.4174  1.1098
 2859SOL    HW215439  11.581  10.997   2.143  0.4926  2.6703  0.2760
 2860SOL     OW15440   9.060   4.949   5.844  0.0363 -0.8170  0.1971
 2860SOL    HW115441   9.074   4.876   5.784  0.8311 -0.4965 -0.0166
 2860SOL    HW215442   8.993   4.917   5.906 -2.5283 -0.4057 -2.1514
 2861SOL     OW15443   3.035   4.759   6.372 -0.4010 -0.4374 -0.0048
 2861SOL    HW115444   3.055   4.714   6.455 -0.7315 -0.8442 -0.1452
 2861SOL    HW215445   3.022   4.850   6.397 -0.2035 -0.5037  0.3517
 2862SOL     OW15446   3.778   1.912   3.289  0.3480  0.2873 -0.4399
 2862SOL    HW115447   3.847   1.857   3.251 -1.1226  0.5186 -3.8021
 2862SOL    HW215448   3.812   2.001   3.282  0.3406  0.2802 -0.5635
 2863SOL     OW15449  10.613  10.489   0.505 -0.1591  0.1544 -0.3632
 2863SOL    HW115450  10.581  10.522   0.421 -3.5145  0.1451  0.7557
 2863SOL    HW215451  10.655  10.406   0.483 -2.5977 -0.7895 -1.9166
 2864SOL     OW15452   6.790   9.350  11.572  0.4609 -0.7253 -0.4852
 2864SOL    HW115453   6.721   9.297  11.612  0.9967 -2.4446 -1.7601
 2864SOL    HW215454   6.742   9.417  11.523 -0.2178  0.0902  1.2144
 2865SOL     OW15455   5.422   6.436  10.267 -0.0757  0.0952  0.3406
 2865SOL    HW115456   5.327   6.427  10.264 -0.0268 -0.3855  0.0651
 2865SOL    HW215457   5.453   6.347  10.287  0.3103  0.2733  0.5472
 2866SOL     OW15458  11.464   3.920   3.219  0.1722  0.0403  0.5274
 2866SOL    HW115459  11.452   3.833   3.181  0.3800  0.3234 -0.2083
 2866SOL    HW215460  11.463   3.905   3.313 -3.0291 -0.3381  0.5248
 2867SOL     OW15461   8.805   1.216   3.962  0.1585  0.4537  0.5693
 2867SOL    HW115462   8.733   1.258   4.008 -0.4726 -0.6777  0.6306
 2867SOL    HW215463   8.765   1.146   3.912  0.9069  1.2478 -1.2524
 2868SOL     OW15464  11.624  10.556   4.120 -0.7063  0.3366  0.8847
 2868SOL    HW115465  11.664  10.489   4.064 -1.9869  0.6068 -0.4091
 2868SOL    HW215466  11.598  10.508   4.199 -0.4672 -0.4266  0.5132
 2869SOL     OW15467   6.524   5.133   0.707 -0.3996  0.4175  0.1783
 2869SOL    HW115468   6.429   5.136   0.700 -0.4151 -1.6632 -2.7895
 2869SOL    HW215469   6.542   5.056   0.761 -0.4624 -0.1290 -0.5564
 2870SOL     OW15470   2.146   8.862   6.373 -0.0440  0.3369  0.3049
 2870SOL    HW115471   2.145   8.950   6.413 -1.2827  0.2165  0.5986
 2870SOL    HW215472   2.088   8.870   6.297  1.5888  0.3231 -1.0009
 2871SOL     OW15473  11.359   9.897   5.101  0.2768  0.1059  0.0725
 2871SOL    HW115474  11.302   9.827   5.132  1.0054 -0.8940 -0.7749
 2871SOL    HW215475  11.373   9.953   5.178 -0.1178 -0.8198  0.8347
 2872SOL     OW15476   3.668   3.004   1.435  0.6243  0.4569 -0.1154
 2872SOL    HW115477   3.621   3.084   1.411 -0.2800 -0.4220 -1.4087
 2872SOL    HW215478   3.761   3.028   1.431  0.3595  1.5537  0.0092
 2873SOL     OW15479   0.259   3.735  11.448  0.3464  0.2908 -0.2048
 2873SOL    HW115480   0.300   3.815  11.481 -1.9281  1.8357 -0.8841
 2873SOL    HW215481   0.274   3.670  11.517  1.7361  1.4458  0.6364
 2874SOL     OW15482  11.866   0.010   1.956  0.0045 -0.8665  0.6556
 2874SOL    HW115483  11.900   0.042   1.872  0.6861  0.6586  1.4819
 2874SOL    HW215484  11.930  -0.054   1.985 -0.9649 -2.5147 -0.6332
 2875SOL     OW15485   4.562   7.371   8.510 -0.4134 -0.4620  0.0364
 2875SOL    HW115486   4.537   7.280   8.498  1.4148 -0.8384 -1.3791
 2875SOL    HW215487   4.632   7.368   8.576 -3.0698  0.4427  3.1311
 2876SOL     OW15488   5.263   0.366   1.312 -0.4475 -0.5206  0.1626
 2876SOL    HW115489   5.254   0.313   1.233 -1.8085  0.5151 -0.4089
 2876SOL    HW215490   5.202   0.438   1.300  0.0634  0.2159  1.7193
 2877SOL     OW15491  10.405   8.853  11.118  1.1331 -0.3530 -0.0953
 2877SOL    HW115492  10.460   8.928  11.098  0.2475  0.8834  1.7736
 2877SOL    HW215493  10.319   8.891  11.138  0.8282 -1.7787  1.5236
 2878SOL     OW15494  10.793   5.606   8.745 -0.2008  0.2993  0.5739
 2878SOL    HW115495  10.822   5.648   8.826  2.1297  2.7293 -1.2951
 2878SOL    HW215496  10.863   5.544   8.724  0.0085  0.8102 -0.2983
 2879SOL     OW15497  10.124   8.064  10.139  0.0786  0.0214 -0.7110
 2879SOL    HW115498  10.149   8.002  10.071 -1.2192  0.0387 -1.2406
 2879SOL    HW215499  10.038   8.034  10.169 -0.4085  1.3222 -0.7175
 2880SOL     OW15500  11.698   1.840   8.468 -0.1949  0.3839  0.3172
 2880SOL    HW115501  11.756   1.791   8.410 -0.6151  0.4004 -0.1233
 2880SOL    HW215502  11.722   1.931   8.455 -0.1237  0.3702  0.3515
 2881SOL     OW15503   9.634   8.762   3.507  0.2031 -0.0471 -0.7475
 2881SOL    HW115504   9.604   8.696   3.569 -1.1650 -0.5098 -1.8425
 2881SOL    HW215505   9.574   8.835   3.519  1.9398  1.2178  0.7290
 2882SOL     OW15506   5.436   7.454  11.465 -0.2694 -0.0334 -0.7328
 2882SOL    HW115507   5.509   7.401  11.499  0.2338  0.0790 -1.5973
 2882SOL    HW215508   5.411   7.410  11.383 -2.9064 -1.5755  0.7711
 2883SOL     OW15509   5.457   9.165   7.500  0.4055 -0.5095 -0.1668
 2883SOL    HW115510   5.463   9.134   7.590  0.0897  2.6064  1.0685
 2883SOL    HW215511   5.371   9.134   7.470 -0.1793 -0.2885  1.1918
 2884SOL     OW15512   5.958   2.934   1.265  0.0974 -0.0583 -0.0159
 2884SOL    HW115513   5.907   3.003   1.223  0.3172  0.2656  0.2360
 2884SOL    HW215514   5.898   2.859   1.270 -0.1794  0.1483 -0.1969
 2885SOL     OW15515  11.071   2.926   3.136  0.4160  0.3011  0.8060
 2885SOL    HW115516  11.128   2.924   3.213  0.0631  0.2089  1.0686
 2885SOL    HW215517  10.983   2.914   3.171 -0.1160  3.2348  0.7325
 2886SOL     OW15518   4.640   9.471   4.316  0.0111  0.0195  0.0361
 2886SOL    HW115519   4.693   9.551   4.320  0.2807 -0.1151 -0.6602
 2886SOL    HW215520   4.689   9.407   4.367 -1.1186  0.7814  2.1989
 2887SOL     OW15521  10.369  10.030   3.308 -0.2087 -0.2271 -0.7957
 2887SOL    HW115522  10.396  10.029   3.400 -0.7257  1.4686 -0.5943
 2887SOL    HW215523  10.435  10.084   3.264 -1.4064  1.2233 -0.8967
 2888SOL     OW15524   1.990   6.436   6.211 -0.1430  0.2387  0.1102
 2888SOL    HW115525   2.008   6.527   6.189 -2.6692  0.0942 -3.3603
 2888SOL    HW215526   1.929   6.406   6.143 -0.8522 -3.5365  2.1208
 2889SOL     OW15527  11.696  10.528  11.316 -0.0070 -0.5576  0.3019
 2889SOL    HW115528  11.665  10.618  11.304  0.9244 -0.2072  0.4965
 2889SOL    HW215529  11.643  10.477  11.254 -0.1456  0.2000 -0.2253
 2890SOL     OW15530  11.632   7.501  10.132  0.0085 -0.5113 -0.2515
 2890SOL    HW115531  11.545   7.525  10.102 -1.9547 -3.1565  2.7086
 2890SOL    HW215532  11.630   7.517  10.227  0.8498 -5.1274  0.7713
 2891SOL     OW15533  11.608   3.569   7.007  0.2189 -0.9191 -0.3317
 2891SOL    HW115534  11.552   3.519   7.067 -1.8023  0.7167 -0.7294
 2891SOL    HW215535  11.674   3.609   7.064 -0.3221 -1.1785  0.4975
 2892SOL     OW15536   5.946   6.340   6.459 -0.6549 -0.2546  0.0527
 2892SOL    HW115537   5.915   6.333   6.368  0.0855 -0.6647 -0.1698
 2892SOL    HW215538   6.006   6.266   6.470 -0.5707 -0.0783  0.8115
 2893SOL     OW15539   0.339   5.199   3.199 -0.1444 -0.1464  0.2407
 2893SOL    HW115540   0.354   5.146   3.121 -0.7903 -0.3504  0.2506
 2893SOL    HW215541   0.302   5.138   3.263 -0.4193  0.2018  0.4166
 2894SOL     OW15542  11.167   7.540   7.878 -0.3547 -0.0358 -0.2367
 2894SOL    HW115543  11.117   7.472   7.834 -0.3327 -1.1611  1.3872
 2894SOL    HW215544  11.222   7.578   7.810 -2.7780  0.6862 -1.9011
 2895SOL     OW15545   3.512   7.736   6.762 -0.4456 -0.4680  0.1294
 2895SOL    HW115546   3.586   7.748   6.822 -0.1103 -0.9327 -0.1764
 2895SOL    HW215547   3.476   7.650   6.786 -0.7421 -0.3447  0.1253
 2896SOL     OW15548   7.682   9.228   5.294  0.1409 -0.6322 -0.4173
 2896SOL    HW115549   7.735   9.156   5.329 -0.3670 -0.9707 -0.3453
 2896SOL    HW215550   7.613   9.185   5.244 -0.1862 -0.1929 -0.3472
 2897SOL     OW15551  10.986  10.794   7.578  0.0601  0.8197 -0.0872
 2897SOL    HW115552  10.966  10.841   7.658 -1.1648  2.2991 -1.2109
 2897SOL    HW215553  10.991  10.861   7.511 -1.1525 -0.5521 -1.6530
 2898SOL     OW15554   1.179   5.415   6.378  0.6656  0.7129 -0.3359
 2898SOL    HW115555   1.218   5.428   6.292  1.2775  1.0902 -0.0099
 2898SOL    HW215556   1.102   5.470   6.378 -0.3512 -0.6378 -1.2742
 2899SOL     OW15557   7.132   1.061   5.234  0.0964 -0.0730 -0.1027
 2899SOL    HW115558   7.099   0.974   5.212  1.3523 -0.2136 -1.6188
 2899SOL    HW215559   7.058   1.119   5.216 -1.0785 -0.8716  1.8661
 2900SOL     OW15560   2.910  11.126  10.000  0.1090  0.6894  0.0308
 2900SOL    HW115561   2.905  11.189   9.928 -0.7684  0.8300  0.2052
 2900SOL    HW215562   2.848  11.057   9.976  0.1986  0.4770  0.4049
 2901SOL     OW15563   7.103   7.758   1.738 -0.0251  0.0446  0.2177
 2901SOL    HW115564   7.103   7.727   1.648 -1.2042  0.5882  0.0191
 2901SOL    HW215565   7.129   7.850   1.732  0.2323 -0.0067  0.4813
 2902SOL     OW15566   7.016  11.487   0.707 -0.1540 -0.1843  0.0579
 2902SOL    HW115567   7.057  11.408   0.673  1.4521  0.5925  0.0767
 2902SOL    HW215568   6.972  11.526   0.632 -2.0231 -1.6854  0.3116
 2903SOL     OW15569   1.538   7.578   1.690 -0.1378  0.1737 -0.0745
 2903SOL    HW115570   1.591   7.542   1.618 -0.6518 -1.2904  0.2597
 2903SOL    HW215571   1.598   7.581   1.764 -0.8986 -3.3952  0.8758
 2904SOL     OW15572  11.207   9.783   8.460  0.3079 -0.4259  0.1070
 2904SOL    HW115573  11.140   9.718   8.438 -0.6026  0.9714 -1.3895
 2904SOL    HW215574  11.160   9.851   8.507  1.5192 -1.4429  3.0869
 2905SOL     OW15575  10.496  12.288   7.723  0.6280 -0.0720  0.2945
 2905SOL    HW115576  10.547  12.245   7.791 -0.0261 -0.8693  0.2891
 2905SOL    HW215577  10.551  12.284   7.645  1.8986  1.8960  1.0135
 2906SOL     OW15578   6.139   3.664   3.527  0.0512  0.4880 -0.1311
 2906SOL    HW115579   6.075   3.734   3.539 -1.3208 -0.6368 -0.6920
 2906SOL    HW215580   6.129   3.608   3.604 -0.7877 -0.5523 -0.9683
 2907SOL     OW15581   4.936   6.778  10.078 -0.1507  0.0504 -0.4658
 2907SOL    HW115582   4.871   6.737  10.021  0.9186  0.1429 -1.7866
 2907SOL    HW215583   4.934   6.725  10.158 -1.6826 -0.0753 -0.5541
 2908SOL     OW15584   3.875   5.272   0.259 -0.7067  0.7079 -0.0562
 2908SOL    HW115585   3.820   5.265   0.181 -0.7288  1.3177 -0.0993
 2908SOL    HW215586   3.873   5.184   0.297 -0.6566  0.3930 -0.7651
 2909SOL     OW15587   8.418   9.525   6.599 -0.1013 -0.1302  0.5630
 2909SOL    HW115588   8.450   9.592   6.659 -0.2182 -0.2897  0.8077
 2909SOL    HW215589   8.375   9.575   6.529 -1.0092  0.0419  1.2119
 2910SOL     OW15590   4.309   3.165   0.368  0.3766 -0.1897  0.1489
 2910SOL    HW115591   4.402   3.185   0.359  1.2351 -3.1829  1.1761
 2910SOL    HW215592   4.288   3.189   0.458  0.0172  0.7909 -0.1791
 2911SOL     OW15593  11.816  10.374   7.660 -0.2627  0.0908 -0.2462
 2911SOL    HW115594  11.787  10.415   7.741  2.5445  0.0373  0.8991
 2911SOL    HW215595  11.911  10.363   7.671  0.1722 -0.2598 -3.3872
 2912SOL     OW15596   7.459   2.645  12.017  0.1433 -0.0787 -0.3413
 2912SOL    HW115597   7.366   2.620  12.017 -0.3485  1.4641  1.2952
 2912SOL    HW215598   7.463   2.720  11.958 -0.1322  1.2068  1.2090
 2913SOL     OW15599   5.049  12.372   5.180 -0.1283  0.5885  0.1506
 2913SOL    HW115600   5.047  12.290   5.131  0.5563  0.7637 -0.1824
 2913SOL    HW215601   5.024  12.439   5.116  0.6775  0.8073  0.0635
 2914SOL     OW15602  11.422   4.406   7.607  0.2260  0.3817  0.6305
 2914SOL    HW115603  11.394   4.436   7.694 -0.9325  1.6432 -0.1312
 2914SOL    HW215604  11.354   4.439   7.548  0.3449 -1.4790 -0.6282
 2915SOL     OW15605   7.487   2.140   4.105 -0.3245 -0.4150  0.0504
 2915SOL    HW115606   7.526   2.053   4.121 -1.2573 -0.5712  1.6834
 2915SOL    HW215607   7.404   2.138   4.153  0.9869  2.4213  2.7621
 2916SOL     OW15608   4.946   9.301   7.496  0.1659  0.0875 -0.0219
 2916SOL    HW115609   4.945   9.264   7.408  1.5095 -2.1751  0.8011
 2916SOL    HW215610   4.896   9.238   7.548  1.2491  0.1898  1.1988
 2917SOL     OW15611   6.904  11.558   9.108 -0.1473 -0.4947 -0.3099
 2917SOL    HW115612   6.913  11.574   9.202  1.2005 -0.3184 -0.4529
 2917SOL    HW215613   6.912  11.463   9.099 -0.5339 -0.5368 -0.2245
 2918SOL     OW15614  11.560   2.042   4.015 -0.5748 -0.1842  0.0366
 2918SOL    HW115615  11.473   2.004   4.030  0.2961 -1.2875  2.8262
 2918SOL    HW215616  11.621   1.981   4.057  1.4296  1.4472 -0.3274
 2919SOL     OW15617   7.057   4.828  10.398  0.1261 -0.0558  0.4329
 2919SOL    HW115618   7.137   4.775  10.391  0.8517  1.0615 -0.0905
 2919SOL    HW215619   7.061   4.865  10.486  1.2097  1.5106 -0.2279
 2920SOL     OW15620   2.253   0.792  11.533 -0.5023 -0.1673  0.0113
 2920SOL    HW115621   2.202   0.719  11.498 -2.3527  0.6286  0.8935
 2920SOL    HW215622   2.250   0.781  11.628 -0.5501  0.8757  0.1476
 2921SOL     OW15623   4.635   3.046   5.489  0.4078 -0.1384  0.5834
 2921SOL    HW115624   4.669   3.044   5.399  0.5846  2.3030  0.5389
 2921SOL    HW215625   4.713   3.056   5.544  0.0784  3.6094  0.5984
 2922SOL     OW15626   4.766   5.817   8.213 -0.1497  0.2004  0.5801
 2922SOL    HW115627   4.691   5.872   8.233 -0.9005  0.1958 -1.8062
 2922SOL    HW215628   4.837   5.878   8.192 -0.5947  0.3088 -0.7386
 2923SOL     OW15629   5.048  10.278   6.338  0.2046 -0.2898 -0.0876
 2923SOL    HW115630   5.123  10.326   6.305 -0.9422  0.6264 -1.4619
 2923SOL    HW215631   4.985  10.279   6.267 -2.0887  1.1077  1.8048
 2924SOL     OW15632   4.792   8.361   4.260 -0.4259 -0.0910 -0.1903
 2924SOL    HW115633   4.886   8.380   4.251 -0.7116  1.5764 -0.0908
 2924SOL    HW215634   4.753   8.395   4.179 -0.8800 -1.3257 -0.5009
 2925SOL     OW15635   4.514  10.251   7.289 -0.0768 -0.1634 -0.0742
 2925SOL    HW115636   4.588  10.212   7.336 -0.5234  0.3424  1.0844
 2925SOL    HW215637   4.512  10.342   7.319  0.1052  0.4084 -1.7043
 2926SOL     OW15638  10.597   0.045   8.642 -0.4621  0.4557 -0.3128
 2926SOL    HW115639  10.648   0.122   8.669 -2.9169  2.9991 -2.2318
 2926SOL    HW215640  10.587  -0.006   8.722  1.4038  2.0492  1.0524
 2927SOL     OW15641   5.259   8.529   5.653 -0.4319 -0.0059  0.4211
 2927SOL    HW115642   5.177   8.481   5.665 -0.7339  0.0907 -1.0411
 2927SOL    HW215643   5.326   8.475   5.694 -0.5548 -2.4078 -2.2586
 2928SOL     OW15644  12.421   3.479   8.189 -0.0119 -1.1497 -0.4151
 2928SOL    HW115645  12.373   3.542   8.242  2.2084 -1.1921  1.8106
 2928SOL    HW215646  12.468   3.533   8.125 -0.1394 -0.7772 -0.1993
 2929SOL     OW15647  10.245   5.816  12.114  0.2920 -0.1395  0.7717
 2929SOL    HW115648  10.292   5.859  12.043 -0.7181  1.4951  1.0298
 2929SOL    HW215649  10.236   5.725  12.086 -0.0305  0.4561 -1.1821
 2930SOL     OW15650   0.868   0.517  10.718  0.1037 -1.0153  0.4973
 2930SOL    HW115651   0.825   0.447  10.766  0.3329 -2.2270 -1.0087
 2930SOL    HW215652   0.930   0.555  10.781 -1.6310 -0.6076  2.0353
 2931SOL     OW15653   2.817   9.233  10.452  0.4934 -0.3837  0.4419
 2931SOL    HW115654   2.770   9.317  10.450 -1.0429 -1.2017 -1.1540
 2931SOL    HW215655   2.823   9.211  10.544 -1.5813  0.1988  0.7804
 2932SOL     OW15656   0.125   3.814   6.451  0.1551  0.1567 -0.0097
 2932SOL    HW115657   0.148   3.727   6.485 -2.3414 -0.6266 -0.1080
 2932SOL    HW215658   0.104   3.865   6.529  0.0916  0.1780 -0.0410
 2933SOL     OW15659   5.594   8.236   6.601  0.1781 -0.0160  0.0686
 2933SOL    HW115660   5.545   8.277   6.529 -0.7637 -1.4820 -0.1598
 2933SOL    HW215661   5.662   8.300   6.623 -0.9591  1.4697 -0.5580
 2934SOL     OW15662   9.905   0.928  10.189  0.0785 -0.0111 -0.8294
 2934SOL    HW115663   9.963   0.964  10.122  2.0620  1.3079  1.4452
 2934SOL    HW215664   9.858   1.004  10.224  2.1779  0.1404  2.0332
 2935SOL     OW15665   6.811  11.373   6.576 -0.4978 -0.6501 -0.2999
 2935SOL    HW115666   6.730  11.355   6.625 -0.5744 -0.1287 -0.2340
 2935SOL    HW215667   6.863  11.294   6.587 -1.6577 -1.6856 -1.6889
 2936SOL     OW15668  11.928   9.006   1.594  0.1782  0.1972 -0.4820
 2936SOL    HW115669  11.963   9.006   1.505 -1.2251 -0.8676 -1.0667
 2936SOL    HW215670  11.850   9.061   1.589 -1.1779 -1.6298 -0.4833
 2937SOL     OW15671  11.026  10.796  10.178  0.1049 -0.0775  0.2123
 2937SOL    HW115672  11.121  10.801  10.183  0.0486  0.9201  0.4369
 2937SOL    HW215673  11.000  10.753  10.259  0.3506 -0.2236  0.2158
 2938SOL     OW15674   7.247  11.094   7.165 -0.2244  0.3331 -0.5877
 2938SOL    HW115675   7.218  11.162   7.225 -2.4188  0.9246 -2.1759
 2938SOL    HW215676   7.287  11.141   7.093 -0.2313 -0.1618 -0.9199
 2939SOL     OW15677  11.421   5.928   6.252  0.4795 -0.4916  0.4741
 2939SOL    HW115678  11.468   6.006   6.282  2.5700 -0.9704 -1.3034
 2939SOL    HW215679  11.395   5.949   6.163  1.4441 -1.9339 -0.1776
 2940SOL     OW15680   2.239   8.203   8.201 -0.7709 -0.2639 -0.6824
 2940SOL    HW115681   2.209   8.135   8.141  0.9147 -1.4432 -0.2484
 2940SOL    HW215682   2.274   8.272   8.143 -1.1573 -0.4035 -1.0885
 2941SOL     OW15683   2.989   9.177   9.658  0.3826 -0.6423 -0.2448
 2941SOL    HW115684   2.936   9.197   9.580 -1.7442 -1.2262  0.9829
 2941SOL    HW215685   2.997   9.261   9.703  0.1928 -0.6184 -0.2538
 2942SOL     OW15686   3.465   2.672   0.712 -0.1395 -0.6507  0.0973
 2942SOL    HW115687   3.543   2.617   0.712 -1.1417 -2.1624 -0.7838
 2942SOL    HW215688   3.397   2.617   0.672 -1.7708  0.4433  1.2172
 2943SOL     OW15689   2.707   8.900   5.318 -0.1534  0.5619  0.0570
 2943SOL    HW115690   2.727   8.825   5.263 -0.2278  0.7335 -0.2083
 2943SOL    HW215691   2.632   8.872   5.371  0.6577 -0.0167  0.9277
 2944SOL     OW15692  10.882  11.528  11.862  0.8212  0.2437 -0.1841
 2944SOL    HW115693  10.841  11.591  11.803 -0.1907 -1.0699 -0.9593
 2944SOL    HW215694  10.880  11.445  11.814  0.2225 -0.8249  1.5623
 2945SOL     OW15695   6.625   7.195   2.170 -0.0229 -0.0699 -0.4759
 2945SOL    HW115696   6.682   7.270   2.155 -0.5425  0.6223  0.8640
 2945SOL    HW215697   6.683   7.129   2.209 -0.0043  0.4193  0.3386
 2946SOL     OW15698   6.963   2.950   9.913  0.2803  0.0571 -0.6802
 2946SOL    HW115699   7.031   2.884   9.918 -0.8837 -1.1264  0.1960
 2946SOL    HW215700   6.881   2.901   9.907 -0.6044  1.4175 -0.3902
 2947SOL     OW15701  11.958   5.233   0.363  0.1633 -0.7196 -0.0578
 2947SOL    HW115702  11.963   5.141   0.391  0.5459 -0.9021 -0.7238
 2947SOL    HW215703  11.963   5.230   0.268  1.5364  0.0888 -0.0309
 2948SOL     OW15704   8.609   8.301   5.559 -0.1359  0.4847  0.3884
 2948SOL    HW115705   8.659   8.373   5.596 -3.9475  2.2665  2.6375
 2948SOL    HW215706   8.568   8.338   5.480 -1.1583  0.4395  0.8848
 2949SOL     OW15707   9.276   2.649   8.176 -0.2761  0.4249  0.3760
 2949SOL    HW115708   9.343   2.586   8.203  1.8972  1.6502 -1.7220
 2949SOL    HW215709   9.276   2.715   8.246 -0.9386 -0.6765  1.4618
 2950SOL     OW15710   7.893   0.990   6.518  0.1315  0.5631  0.2531
 2950SOL    HW115711   7.843   0.933   6.575 -0.9429  1.7409  0.5465
 2950SOL    HW215712   7.964   1.024   6.573 -0.3437  0.9590  0.6349
 2951SOL     OW15713   8.140   3.689  12.404 -0.7922  0.5662 -0.0884
 2951SOL    HW115714   8.183   3.763  12.447 -0.4465  1.1439 -1.3563
 2951SOL    HW215715   8.051   3.689  12.438  0.2646 -1.0242  3.0638
 2952SOL     OW15716   4.953  10.552   2.168 -0.4772  0.3777  0.1441
 2952SOL    HW115717   4.988  10.486   2.108  0.4273  0.3415  0.6915
 2952SOL    HW215718   4.867  10.518   2.193 -1.4791  1.0223 -2.1145
 2953SOL     OW15719   0.769  10.884   2.449  0.3742 -0.2016  0.1654
 2953SOL    HW115720   0.710  10.958   2.463  0.6109 -0.0192  0.2012
 2953SOL    HW215721   0.840  10.920   2.396 -0.0590 -0.6686 -0.7404
 2954SOL     OW15722   9.824   3.793  11.247  0.3587 -0.1845 -0.3189
 2954SOL    HW115723   9.890   3.728  11.272  0.5638  0.1303 -0.0239
 2954SOL    HW215724   9.777   3.812  11.328  0.2150 -0.0647 -0.4300
 2955SOL     OW15725   7.306  11.436  10.673  0.5206 -0.7443 -0.2602
 2955SOL    HW115726   7.346  11.467  10.591 -2.4549  1.8281 -0.9079
 2955SOL    HW215727   7.279  11.346  10.653  0.6331 -0.4711 -1.8023
 2956SOL     OW15728   6.979   4.485   7.854  0.2038 -0.0574 -0.3605
 2956SOL    HW115729   7.015   4.571   7.878 -0.4679 -0.0696  0.7719
 2956SOL    HW215730   6.972   4.488   7.758  2.0327  0.3888 -0.5211
 2957SOL     OW15731   1.277   7.592   5.053 -0.3915  0.6569  0.1738
 2957SOL    HW115732   1.230   7.630   5.127 -1.1960  1.5769 -0.7801
 2957SOL    HW215733   1.340   7.532   5.093 -0.5250  1.4294  1.6243
 2958SOL     OW15734   3.791   8.311   4.583 -0.0547  0.4292  0.4847
 2958SOL    HW115735   3.798   8.397   4.542 -1.2460  0.5132  0.4301
 2958SOL    HW215736   3.850   8.256   4.532 -0.0981  0.9698 -0.1690
 2959SOL     OW15737  10.952   9.528   2.517 -0.3425  0.3630 -0.0924
 2959SOL    HW115738  11.026   9.588   2.504 -0.4940  0.4747 -0.4675
 2959SOL    HW215739  10.907   9.562   2.594 -0.0431  0.3383  0.0961
 2960SOL     OW15740   5.113   8.460   9.645  0.4701 -0.1443  0.3399
 2960SOL    HW115741   5.074   8.482   9.561  0.7217  1.0109  0.5049
 2960SOL    HW215742   5.067   8.382   9.674  0.3958 -0.5656 -0.8756
 2961SOL     OW15743   2.223  10.297   8.210  0.2766 -0.1072 -0.3483
 2961SOL    HW115744   2.238  10.334   8.123 -1.0554 -0.8422 -0.9123
 2961SOL    HW215745   2.129  10.283   8.214  0.5498 -1.9877  0.4243
 2962SOL     OW15746   5.201   6.372   8.929  0.3694 -0.0082 -0.3958
 2962SOL    HW115747   5.132   6.419   8.975 -0.1042  0.4215 -1.5133
 2962SOL    HW215748   5.237   6.312   8.995 -0.7583  0.0718  0.3185
 2963SOL     OW15749   6.785   2.236   8.768  0.0859  0.1230 -0.0728
 2963SOL    HW115750   6.705   2.216   8.718  0.6293 -0.0931 -0.8664
 2963SOL    HW215751   6.823   2.311   8.722  0.2547  0.3401  0.4140
 2964SOL     OW15752   3.514   8.584  10.028  0.0918 -0.0539  0.0690
 2964SOL    HW115753   3.453   8.558  10.097 -1.1271 -0.7802 -1.2528
 2964SOL    HW215754   3.459   8.621   9.959  1.2570  0.3982 -0.6518
 2965SOL     OW15755   2.057   9.485   9.591  0.5028  0.2279  0.2660
 2965SOL    HW115756   2.064   9.441   9.675 -1.5767 -0.4213  0.1441
 2965SOL    HW215757   1.982   9.544   9.600  1.1685  1.2724 -0.6625
 2966SOL     OW15758  10.843   8.167  11.194 -0.0294  0.2196  0.3394
 2966SOL    HW115759  10.766   8.156  11.250 -0.8924 -1.4102 -1.0803
 2966SOL    HW215760  10.834   8.255  11.158 -0.6945  0.4163  0.9667
 2967SOL     OW15761   2.459   1.779   1.386  0.1310  1.0700  0.4248
 2967SOL    HW115762   2.381   1.780   1.441 -1.1986  0.4211 -1.3688
 2967SOL    HW215763   2.466   1.869   1.353 -1.5567  0.5386 -1.6005
 2968SOL     OW15764   7.893   1.584   7.186 -0.5447 -0.0658 -0.4247
 2968SOL    HW115765   7.873   1.553   7.274  0.0871  0.2718 -0.1594
 2968SOL    HW215766   7.807   1.597   7.145 -0.8344 -0.7419 -0.0470
 2969SOL     OW15767   5.439   2.507   1.900  0.2394  0.1297  0.0268
 2969SOL    HW115768   5.349   2.516   1.868  0.3139 -1.0938 -0.5693
 2969SOL    HW215769   5.437   2.432   1.959  1.5057 -2.3274 -2.7569
 2970SOL     OW15770   9.119   6.319   6.556  0.4635  0.1771 -0.1456
 2970SOL    HW115771   9.124   6.335   6.650 -0.1958  1.7423 -0.3544
 2970SOL    HW215772   9.026   6.324   6.535  0.6308  0.1250 -0.9266
 2971SOL     OW15773   4.622  10.768  11.162  0.2044 -0.1230 -0.0754
 2971SOL    HW115774   4.546  10.825  11.153  2.0120  2.3782 -0.4769
 2971SOL    HW215775   4.649  10.780  11.253  2.1444  1.8946 -0.8285
 2972SOL     OW15776  10.279   7.971   0.294  0.2390 -0.1848  0.4453
 2972SOL    HW115777  10.338   7.952   0.221  1.1496  0.3479  1.0303
 2972SOL    HW215778  10.222   8.041   0.262  1.9597  1.4906  0.8967
 2973SOL     OW15779   6.113  12.443   4.312 -0.7958 -0.2904 -0.4154
 2973SOL    HW115780   6.112  12.352   4.282 -2.6418 -0.2018 -0.7633
 2973SOL    HW215781   6.205  12.462   4.328 -0.4860 -2.8537  1.5903
 2974SOL     OW15782  11.828   3.884  12.236 -0.4480 -0.2551 -0.3826
 2974SOL    HW115783  11.834   3.976  12.212  1.3674  0.6896  3.0078
 2974SOL    HW215784  11.734   3.864  12.234 -1.1017  2.3275  0.7969
 2975SOL     OW15785  12.386   8.661   5.893  0.4971  0.2532 -0.3487
 2975SOL    HW115786  12.471   8.705   5.900  1.2358 -0.8167 -2.0134
 2975SOL    HW215787  12.341   8.706   5.821  0.1991 -0.0426 -0.3486
 2976SOL     OW15788   1.626  10.550   8.923  0.3816 -0.5305  0.1027
 2976SOL    HW115789   1.592  10.540   8.835  0.9684  0.2889 -0.2262
 2976SOL    HW215790   1.555  10.592   8.972  0.8765  1.1539 -0.5701
 2977SOL     OW15791   0.880  11.698   9.213 -0.3838 -0.2401  0.9935
 2977SOL    HW115792   0.819  11.747   9.158  0.0399  0.2317  0.9298
 2977SOL    HW215793   0.920  11.764   9.269  1.8578 -0.1126 -0.6360
 2978SOL     OW15794   6.112   0.930   8.439  0.0146 -0.4535 -0.6908
 2978SOL    HW115795   6.025   0.924   8.399 -1.9208 -0.4181  3.1371
 2978SOL    HW215796   6.148   0.841   8.431 -2.5635 -1.8863  1.8745
 2979SOL     OW15797   2.603   2.981   9.110 -0.4189 -0.2423 -0.0482
 2979SOL    HW115798   2.611   3.070   9.075 -1.0832 -0.3537 -0.5000
 2979SOL    HW215799   2.620   2.990   9.203  0.5068  0.2053 -0.2497
 2980SOL     OW15800   1.722   0.248  10.935  0.5662  0.0014  0.2368
 2980SOL    HW115801   1.772   0.186  10.987  0.4588 -0.9280 -0.7074
 2980SOL    HW215802   1.785   0.284  10.873  0.2055 -0.8716 -0.6877
 2981SOL     OW15803   5.073   6.918   3.931  0.0770  0.0703  0.2537
 2981SOL    HW115804   5.132   6.994   3.927  1.1806 -0.7735  0.0995
 2981SOL    HW215805   5.099   6.864   3.856 -1.2493 -0.0895 -0.1257
 2982SOL     OW15806   1.116   7.416  11.024  0.8928  0.1534 -0.3545
 2982SOL    HW115807   1.190   7.391  11.079 -0.7328 -1.4528  1.2094
 2982SOL    HW215808   1.157   7.442  10.941  3.2412  0.1518  0.7082
 2983SOL     OW15809   5.172  11.366   3.314  0.2242 -0.3320  0.0029
 2983SOL    HW115810   5.263  11.363   3.344  0.6500  0.6224 -1.1311
 2983SOL    HW215811   5.124  11.403   3.388  1.4547  3.2877 -0.7986
 2984SOL     OW15812  10.827   2.845   4.150 -0.3938  0.2047  0.3293
 2984SOL    HW115813  10.873   2.905   4.092  0.1154 -0.8092 -0.3514
 2984SOL    HW215814  10.869   2.856   4.235  0.6495 -0.1745 -0.1145
 2985SOL     OW15815   8.762   7.229   3.655 -0.0650  0.4021 -0.2178
 2985SOL    HW115816   8.671   7.208   3.677 -1.4407  2.3935 -3.2573
 2985SOL    HW215817   8.783   7.305   3.708  0.0718 -0.3930  0.9012
 2986SOL     OW15818   1.072   2.221   2.596  0.0896 -0.0094 -0.4721
 2986SOL    HW115819   1.115   2.256   2.518 -1.6875  2.2223 -0.5399
 2986SOL    HW215820   1.128   2.249   2.669 -0.0525  0.9583 -0.7182
 2987SOL     OW15821   2.686   4.194   3.602 -0.0368  0.0778 -0.5421
 2987SOL    HW115822   2.594   4.204   3.575 -0.3863  0.5342  0.7159
 2987SOL    HW215823   2.695   4.101   3.620 -0.0007 -0.1103 -1.4892
 2988SOL     OW15824   9.414  11.479   1.550  0.7924  0.0026 -0.2037
 2988SOL    HW115825   9.454  11.412   1.496  1.0466  0.3161 -0.4083
 2988SOL    HW215826   9.319  11.467   1.538  0.7775 -1.3588  1.0258
 2989SOL     OW15827   9.120  12.285   5.157  0.1260  0.2942  0.0377
 2989SOL    HW115828   9.174  12.355   5.192 -1.2160  1.4808 -0.1969
 2989SOL    HW215829   9.102  12.311   5.066 -1.3821  0.2857  0.3105
 2990SOL     OW15830   3.494   1.051   6.609  0.6054  0.1197  0.6355
 2990SOL    HW115831   3.550   1.115   6.565 -0.2820 -0.2600 -1.1550
 2990SOL    HW215832   3.410   1.095   6.618  0.1115 -0.6166 -0.2202
 2991SOL     OW15833   7.759   5.308   3.512 -0.0780 -0.1649 -0.6922
 2991SOL    HW115834   7.819   5.280   3.581  1.3545 -1.3859 -2.3506
 2991SOL    HW215835   7.678   5.260   3.530  0.7622 -1.6417 -0.6812
 2992SOL     OW15836   4.832   7.286   1.137  0.0058 -0.3176 -0.2387
 2992SOL    HW115837   4.849   7.261   1.228  0.7225 -0.1927 -0.3336
 2992SOL    HW215838   4.770   7.358   1.142 -0.8748 -1.0763  0.1021
 2993SOL     OW15839   8.255   0.882   7.496  0.0855  0.2045 -0.8250
 2993SOL    HW115840   8.270   0.890   7.402  0.0164  0.7162 -0.7971
 2993SOL    HW215841   8.184   0.944   7.514  0.0620  0.0695 -0.4465
 2994SOL     OW15842  11.269   8.863   6.882 -0.0311 -0.2888 -0.5061
 2994SOL    HW115843  11.315   8.936   6.925 -1.1883 -0.8793  1.9394
 2994SOL    HW215844  11.187   8.901   6.852  0.2774 -0.1414 -1.1900
 2995SOL     OW15845   2.937   1.634   2.257 -0.1211 -0.1115  0.2250
 2995SOL    HW115846   3.019   1.682   2.268  0.5338 -1.2496  0.5021
 2995SOL    HW215847   2.870   1.702   2.247  0.6804  0.8648  1.2083
 2996SOL     OW15848   9.975   8.320   8.767 -0.7286 -0.1381 -0.3429
 2996SOL    HW115849   9.936   8.275   8.843 -1.5105 -1.6004 -1.5483
 2996SOL    HW215850  10.040   8.258   8.734  0.9137  1.2418  0.1468
 2997SOL     OW15851   1.027   5.893   9.082 -0.5385  0.1931  0.4368
 2997SOL    HW115852   1.007   5.843   9.161 -1.2868 -0.8465 -0.3844
 2997SOL    HW215853   1.108   5.853   9.049  0.0490  0.9538  0.9361
 2998SOL     OW15854   0.042   9.075   3.648  0.0540 -0.1011  0.4968
 2998SOL    HW115855   0.037   9.162   3.609 -2.4898  0.4985  1.9050
 2998SOL    HW215856   0.108   9.083   3.716 -0.1011  0.7277  0.5637
 2999SOL     OW15857   2.241   9.918   9.336 -0.4133 -0.3234  0.0590
 2999SOL    HW115858   2.326   9.888   9.369 -0.5195 -1.4047 -0.6201
 2999SOL    HW215859   2.178   9.852   9.365 -0.9013  0.0689 -0.0901
 3000SOL     OW15860   2.589   7.259  10.462 -0.0678 -0.0680  0.3630
 3000SOL    HW115861   2.671   7.293  10.426 -0.0498 -1.4144 -0.9896
 3000SOL    HW215862   2.521   7.314  10.424  0.1006 -0.1604 -0.0882
 3001SOL     OW15863   4.450   9.868   3.028 -0.2671 -0.1115 -0.0460
 3001SOL    HW115864   4.486   9.884   2.940  0.4246 -0.4025  0.1766
 3001SOL    HW215865   4.520   9.896   3.087 -0.9198  0.5437  0.4274
 3002SOL     OW15866   1.526   4.156  11.963 -0.4803 -0.2635 -0.1971
 3002SOL    HW115867   1.545   4.240  11.923 -0.5108 -0.0962  0.1409
 3002SOL    HW215868   1.463   4.115  11.903 -0.7885  0.1291 -0.1448
 3003SOL     OW15869  10.396   9.081   7.666 -0.6098 -0.0468  0.0095
 3003SOL    HW115870  10.340   9.151   7.700 -0.1877  1.1991 -1.6861
 3003SOL    HW215871  10.471   9.127   7.628 -0.4097 -1.3992 -1.3280
 3004SOL     OW15872   2.160   9.590   2.268 -0.2821 -0.1248 -0.2723
 3004SOL    HW115873   2.087   9.563   2.324 -0.5400  2.0640  0.5758
 3004SOL    HW215874   2.234   9.598   2.328 -0.0408  0.2245 -0.6112
 3005SOL     OW15875   0.104   5.579   7.495  0.8634  0.0462 -0.7313
 3005SOL    HW115876   0.048   5.509   7.461  0.7385  0.7637 -2.0917
 3005SOL    HW215877   0.056   5.660   7.476  0.7568  0.5054  1.2844
 3006SOL     OW15878   8.868  11.724   4.092 -0.6820  0.0835 -0.2468
 3006SOL    HW115879   8.890  11.760   4.005 -1.4292  0.6039 -0.2305
 3006SOL    HW215880   8.937  11.758   4.150  0.7676 -1.5680 -0.8933
 3007SOL     OW15881  12.130   3.346  10.422  0.6178 -0.4141  0.1115
 3007SOL    HW115882  12.217   3.342  10.383  0.2638 -2.1157 -0.6162
 3007SOL    HW215883  12.091   3.426  10.387  2.0469  0.6753  0.8772
 3008SOL     OW15884   3.792   8.456   1.531 -0.7395 -0.1325 -0.0020
 3008SOL    HW115885   3.862   8.509   1.567 -0.9428  0.0729  0.0987
 3008SOL    HW215886   3.750   8.512   1.465 -0.3713 -0.5026 -0.5581
 3009SOL     OW15887   4.117  10.526   7.189  0.7494 -0.0211 -0.1924
 3009SOL    HW115888   4.061  10.568   7.255 -0.4157 -0.8757 -0.5925
 3009SOL    HW215889   4.075  10.442   7.173  1.2660 -0.0214 -1.6855
 3010SOL     OW15890   8.079   1.104   6.053  0.3943  0.9635 -0.1408
 3010SOL    HW115891   8.144   1.097   5.983 -0.6702  0.2129 -1.1027
 3010SOL    HW215892   8.001   1.138   6.010 -0.6393 -0.5887  0.4047
 3011SOL     OW15893  10.438   2.252   8.062  0.0479  0.1409 -0.0489
 3011SOL    HW115894  10.387   2.201   8.000 -0.7727  0.9448 -0.0613
 3011SOL    HW215895  10.528   2.221   8.052 -0.4059 -1.2116 -0.1228
 3012SOL     OW15896   3.750  10.746   4.215  0.2271  0.7326 -0.2437
 3012SOL    HW115897   3.784  10.682   4.152 -1.2458  1.4324 -1.8165
 3012SOL    HW215898   3.728  10.694   4.293 -2.0260 -0.9548 -1.8781
 3013SOL     OW15899   4.187   5.333   7.790  0.3075 -0.2487 -0.0254
 3013SOL    HW115900   4.264   5.276   7.785  0.5180  0.0607 -0.3781
 3013SOL    HW215901   4.222   5.417   7.820  0.3740  0.3635 -1.7157
 3014SOL     OW15902   0.174   3.988  11.999 -0.0769  0.1889  0.2708
 3014SOL    HW115903   0.192   3.913  11.942 -0.4874 -0.3813  0.8704
 3014SOL    HW215904   0.105   3.957  12.058 -0.7923  1.2811  0.0490
 3015SOL     OW15905  10.680   5.452   4.960 -0.4399 -0.1747  0.5562
 3015SOL    HW115906  10.712   5.506   4.888  0.0593  0.7112  1.4141
 3015SOL    HW215907  10.599   5.412   4.926 -1.0858  1.4827  0.0385
 3016SOL     OW15908   0.665   9.182   0.045  0.2535  0.0750 -0.3809
 3016SOL    HW115909   0.676   9.189  -0.050 -1.1201 -0.1021 -0.5750
 3016SOL    HW215910   0.628   9.265   0.071 -1.3710 -0.6371 -0.3383
 3017SOL     OW15911   0.777   0.755   2.830 -0.6617 -0.0404  0.3497
 3017SOL    HW115912   0.801   0.718   2.745 -1.3697  0.7475 -0.2083
 3017SOL    HW215913   0.758   0.679   2.885 -0.4647 -0.5470 -0.2733
 3018SOL     OW15914   1.412   0.563   2.900  0.3408  0.1506 -0.3221
 3018SOL    HW115915   1.367   0.551   2.984  0.3209 -0.4964 -0.4245
 3018SOL    HW215916   1.416   0.475   2.862 -0.3942  0.5530 -1.3818
 3019SOL     OW15917   4.457   9.263   1.932  0.1308 -0.2922  0.4638
 3019SOL    HW115918   4.495   9.348   1.953 -0.3022 -0.2382  1.0747
 3019SOL    HW215919   4.436   9.268   1.839  0.2402  0.2198  0.4655
 3020SOL     OW15920   6.790   9.276   5.746  0.8070 -0.8768  0.0382
 3020SOL    HW115921   6.797   9.333   5.822 -0.0079  1.2728 -1.4185
 3020SOL    HW215922   6.708   9.228   5.759 -0.6415  1.3050 -0.5948
 3021SOL     OW15923  10.871   3.635   7.678 -0.8265 -0.5107  0.1539
 3021SOL    HW115924  10.852   3.716   7.726 -0.6533 -1.2814  1.5779
 3021SOL    HW215925  10.864   3.566   7.744 -0.4384 -1.6061 -0.9170
 3022SOL     OW15926   5.252   3.976  10.447  0.4812 -0.4807 -0.3984
 3022SOL    HW115927   5.237   4.010  10.359 -0.1031  0.1064 -0.0754
 3022SOL    HW215928   5.171   3.931  10.470 -0.4309  1.6722  0.8777
 3023SOL     OW15929   3.746   5.796   1.299  0.0225  0.2164  0.1734
 3023SOL    HW115930   3.721   5.826   1.211 -0.1619  0.5979  0.3511
 3023SOL    HW215931   3.752   5.701   1.291 -2.4540 -0.0226  0.3336
 3024SOL     OW15932  11.685   8.383  11.004  0.2389 -0.2103 -0.3788
 3024SOL    HW115933  11.599   8.423  11.015  1.1643  1.2554  2.4886
 3024SOL    HW215934  11.737   8.450  10.960  0.9651  0.6833  1.6985
 3025SOL     OW15935   2.115   8.399   0.057  0.0944  0.2581 -0.1473
 3025SOL    HW115936   2.187   8.355   0.013  0.6049 -0.5201  1.4022
 3025SOL    HW215937   2.065   8.441  -0.014 -0.1289 -2.3602 -1.6437
 3026SOL     OW15938   6.698   2.174  11.863  0.2501 -0.4054  0.2926
 3026SOL    HW115939   6.784   2.185  11.904  1.0791  1.4009 -1.7378
 3026SOL    HW215940   6.698   2.236  11.790 -3.0991  0.2389  0.6773
 3027SOL     OW15941   2.067   8.199   2.674 -0.1372 -0.1368 -0.3468
 3027SOL    HW115942   2.115   8.140   2.616 -0.5626 -1.7652  0.9047
 3027SOL    HW215943   2.112   8.283   2.666  2.8064 -1.5124  0.6092
 3028SOL     OW15944  10.099   5.667   1.892 -0.2534  0.2343  0.0321
 3028SOL    HW115945  10.162   5.646   1.961  1.6950  0.8558 -1.4665
 3028SOL    HW215946  10.015   5.639   1.927  0.9640 -1.5514  1.7432
 3029SOL     OW15947  10.452   4.966   1.609 -0.1487 -0.1685  0.1920
 3029SOL    HW115948  10.491   5.035   1.664  0.1526 -0.4667  0.3535
 3029SOL    HW215949  10.520   4.900   1.602 -0.1421 -0.0841 -0.6466
 3030SOL     OW15950  11.127   3.046   1.273 -0.4782  0.4422  0.9540
 3030SOL    HW115951  11.041   3.047   1.316  0.2298  1.4297  2.4124
 3030SOL    HW215952  11.171   2.969   1.310 -0.6274  0.0800  0.3922
 3031SOL     OW15953   6.169   8.879  11.833  0.3857 -0.1173 -0.4221
 3031SOL    HW115954   6.102   8.819  11.800  1.5599  0.0466 -3.3906
 3031SOL    HW215955   6.243   8.823  11.854 -0.5522 -0.3173  3.0158
 3032SOL     OW15956   4.138  11.488   4.739 -0.3294  0.0300  0.3311
 3032SOL    HW115957   4.214  11.474   4.797  0.2942  0.5356 -0.3408
 3032SOL    HW215958   4.118  11.402   4.704  1.8088  0.2740 -1.7564
 3033SOL     OW15959   9.530   5.583   7.507 -0.0629  0.6895 -0.1545
 3033SOL    HW115960   9.504   5.514   7.569  2.3388 -0.3806 -0.2302
 3033SOL    HW215961   9.546   5.660   7.562 -2.2271  1.1103 -0.0096
 3034SOL     OW15962   9.690   4.082   6.015 -0.6783  0.8692  0.1948
 3034SOL    HW115963   9.722   4.070   5.925  1.1385  0.9323  0.7958
 3034SOL    HW215964   9.650   3.998   6.037 -0.4640  0.5938 -0.4255
 3035SOL     OW15965  11.790   1.353   9.041 -0.3134 -0.8638  0.1911
 3035SOL    HW115966  11.795   1.261   9.015  1.6076 -1.3982  2.0721
 3035SOL    HW215967  11.745   1.397   8.969 -0.5094 -3.1263 -1.1521
 3036SOL     OW15968   1.401   9.908   9.060 -0.1718 -0.6405 -0.2895
 3036SOL    HW115969   1.349   9.881   9.135 -0.9646  0.5105 -0.3943
 3036SOL    HW215970   1.345   9.970   9.013  0.8317 -0.3026 -1.0859
 3037SOL     OW15971   6.006   2.228   0.442 -0.4610  0.1727 -0.4653
 3037SOL    HW115972   6.095   2.218   0.406 -0.5879  1.0605 -1.0698
 3037SOL    HW215973   6.020   2.257   0.532 -0.1205  0.7060 -0.6791
 3038SOL     OW15974  10.305   0.483   8.456 -0.4285  0.3098 -0.3116
 3038SOL    HW115975  10.346   0.467   8.540  1.6730  1.1381 -1.1178
 3038SOL    HW215976  10.278   0.396   8.426  0.5003 -0.2384  0.3842
 3039SOL     OW15977   3.446   9.281   2.155 -0.5977  0.1988  0.3011
 3039SOL    HW115978   3.443   9.374   2.132 -0.8281  0.0068 -0.4747
 3039SOL    HW215979   3.528   9.271   2.202  1.6805 -0.0208 -3.3545
 3040SOL     OW15980   2.902   6.951   8.066  0.3261  0.3295 -0.1326
 3040SOL    HW115981   2.873   6.933   8.155  0.7330  1.7391  0.3032
 3040SOL    HW215982   2.946   6.870   8.038 -2.1882 -1.1378 -0.1059
 3041SOL     OW15983  12.009   0.715  11.576 -0.3183  0.0327  0.5419
 3041SOL    HW115984  11.936   0.755  11.528  1.3776  0.5216 -1.8189
 3041SOL    HW215985  12.011   0.761  11.659 -1.2431  1.6710 -0.2957
 3042SOL     OW15986   8.260   4.696   9.297 -0.1048 -0.1312 -0.2305
 3042SOL    HW115987   8.209   4.732   9.369  3.0471  2.5715  0.9369
 3042SOL    HW215988   8.289   4.610   9.328 -0.7390 -0.0283  0.6977
 3043SOL     OW15989   6.022   0.619   7.813  0.1227  0.2167 -0.4157
 3043SOL    HW115990   6.010   0.589   7.903 -1.9369  0.5460 -0.5473
 3043SOL    HW215991   6.115   0.641   7.808  0.1931  0.6611  1.7833
 3044SOL     OW15992   7.718   3.864  10.730  0.5884 -0.1723 -0.3924
 3044SOL    HW115993   7.741   3.943  10.779 -2.1291 -0.5354  1.6549
 3044SOL    HW215994   7.659   3.895  10.661 -3.3321 -0.5436  2.4702
 3045SOL     OW15995   9.677   4.754   6.385  0.3501  0.4870 -0.5776
 3045SOL    HW115996   9.707   4.761   6.476 -0.8371  0.1472 -0.1454
 3045SOL    HW215997   9.742   4.698   6.343  0.8390  0.5346  0.0937
 3046SOL     OW15998   5.590   8.507   5.467 -0.1604  0.6658  0.1080
 3046SOL    HW115999   5.578   8.491   5.560  0.3962  1.6279  0.3613
 3046SOL    HW216000   5.553   8.594   5.453 -0.3453  0.4834 -0.5968
 3047SOL     OW16001   9.856   6.859   4.334 -0.2164 -0.1870  0.3740
 3047SOL    HW116002   9.873   6.921   4.263  1.4750 -1.8580 -0.7828
 3047SOL    HW216003   9.940   6.849   4.378 -0.4216 -1.6689  0.4816
 3048SOL     OW16004   4.513   6.420   0.589  0.1052  0.7053 -0.4598
 3048SOL    HW116005   4.598   6.447   0.553  0.4739  0.5471  0.2932
 3048SOL    HW216006   4.523   6.327   0.608 -0.3863  0.5824 -0.7718
 3049SOL     OW16007   2.727   4.687   9.697 -0.2198  0.0648 -0.1595
 3049SOL    HW116008   2.756   4.680   9.788  1.1138 -0.3943 -0.6004
 3049SOL    HW216009   2.670   4.764   9.696 -1.7477 -0.9780  1.4204
 3050SOL     OW16010   8.649   5.854   7.338  0.9038 -0.4388 -0.5988
 3050SOL    HW116011   8.645   5.774   7.390  0.5652  0.3562  0.6185
 3050SOL    HW216012   8.571   5.850   7.282  1.0311 -1.0833 -0.7383
 3051SOL     OW16013   6.272   9.801   2.378  0.4387 -0.2946  0.3398
 3051SOL    HW116014   6.204   9.812   2.444  0.6059  0.4101  0.4043
 3051SOL    HW216015   6.280   9.707   2.367 -1.0725 -0.3928 -0.2022
 3052SOL     OW16016   4.502   5.543  11.540 -0.2847 -0.0073 -0.5501
 3052SOL    HW116017   4.468   5.569  11.626 -1.4226  0.7557 -1.2018
 3052SOL    HW216018   4.507   5.626  11.491  0.9616 -0.3426 -1.0156
 3053SOL     OW16019  11.588   5.893   5.651 -0.4318  0.1906 -0.4853
 3053SOL    HW116020  11.608   5.827   5.718  0.2733  1.1154  0.2269
 3053SOL    HW216021  11.544   5.963   5.698 -0.2337  0.7045 -1.0576
 3054SOL     OW16022   1.850   4.353   3.355 -0.0530 -0.4586 -0.3321
 3054SOL    HW116023   1.828   4.433   3.404  0.9582 -0.9055  0.9069
 3054SOL    HW216024   1.939   4.368   3.324 -0.3285 -0.5967 -1.2032
 3055SOL     OW16025  11.201  10.161   9.642 -0.3944  0.7535 -0.3277
 3055SOL    HW116026  11.186  10.217   9.718 -2.0161  2.1623 -1.6018
 3055SOL    HW216027  11.208  10.222   9.569 -0.9537 -0.6584 -1.6092
 3056SOL     OW16028  10.413  12.203   4.043  0.3265  0.7264 -0.0634
 3056SOL    HW116029  10.421  12.297   4.031 -0.5067  0.8116 -0.0062
 3056SOL    HW216030  10.342  12.193   4.107 -1.1195  0.0031 -1.6924
 3057SOL     OW16031   4.282  10.191   0.507  0.0931  0.1338  0.3001
 3057SOL    HW116032   4.253  10.148   0.426  0.6937  1.5985 -0.7259
 3057SOL    HW216033   4.314  10.119   0.562  0.0969 -0.8475 -0.9416
 3058SOL     OW16034   6.960   9.349   8.050  0.4044  0.0321 -0.4635
 3058SOL    HW116035   6.915   9.381   7.972 -0.5330  0.4873  0.2381
 3058SOL    HW216036   6.915   9.392   8.123  0.9915 -0.6958  0.3504
 3059SOL     OW16037   6.205   9.630   7.267  0.0059 -0.1715 -0.0544
 3059SOL    HW116038   6.179   9.539   7.281  0.4660 -0.6590 -2.0704
 3059SOL    HW216039   6.294   9.636   7.302  1.0777 -1.3117 -2.3654
 3060SOL     OW16040   6.984   5.526   8.509  0.3032  0.4215 -0.1891
 3060SOL    HW116041   7.069   5.507   8.468  0.0350  0.6480 -0.8554
 3060SOL    HW216042   6.950   5.440   8.535  1.3727  0.4226  1.4126
 3061SOL     OW16043   9.807  11.570   3.587  0.5075 -0.3858  0.5647
 3061SOL    HW116044   9.772  11.633   3.525  0.6206 -0.4875  0.3958
 3061SOL    HW216045   9.901  11.591   3.592  0.9372 -1.7897 -0.9900
 3062SOL     OW16046  10.254   5.471   8.353 -0.1968 -0.2874  0.5414
 3062SOL    HW116047  10.308   5.467   8.432  0.3801  1.2348  0.2574
 3062SOL    HW216048  10.253   5.564   8.330 -1.0602 -0.6040 -0.7654
 3063SOL     OW16049   1.449   7.917   1.873  0.0033  0.1617  0.2229
 3063SOL    HW116050   1.522   7.859   1.851 -1.2585 -1.2649 -0.4204
 3063SOL    HW216051   1.459   7.934   1.966  1.1212 -0.0265  0.1556
 3064SOL     OW16052   0.694   5.639   8.872  0.2071 -0.4602  0.3259
 3064SOL    HW116053   0.767   5.692   8.841 -0.2737 -0.4763 -0.9024
 3064SOL    HW216054   0.668   5.587   8.795  1.2490 -3.1749  1.6891
 3065SOL     OW16055   1.793   8.363  10.626 -0.3303  0.1371  0.6497
 3065SOL    HW116056   1.722   8.379  10.563  0.4989  0.3667 -0.2480
 3065SOL    HW216057   1.869   8.407  10.589  0.4860 -0.7382  1.2115
 3066SOL     OW16058   4.386  10.296   4.531  0.2559  0.0486  0.4784
 3066SOL    HW116059   4.422  10.222   4.481  0.9079  1.7133 -1.6629
 3066SOL    HW216060   4.458  10.359   4.536 -0.7783  1.2398  0.8021
 3067SOL     OW16061   2.150   7.115   5.041 -0.6957 -0.1431 -0.5230
 3067SOL    HW116062   2.213   7.180   5.010 -0.6168 -0.0762 -0.2215
 3067SOL    HW216063   2.199   7.033   5.044 -1.1117 -0.4818 -2.0876
 3068SOL     OW16064   8.707   6.232   0.976  0.4978 -0.2761 -0.0665
 3068SOL    HW116065   8.748   6.251   0.892  0.3946  1.0098  0.1401
 3068SOL    HW216066   8.744   6.298   1.035  0.0698 -0.7451  0.7378
 3069SOL     OW16067   6.820   8.841  11.148 -0.2657  0.2374 -0.3785
 3069SOL    HW116068   6.833   8.758  11.104 -0.0514  0.0085  0.1097
 3069SOL    HW216069   6.908   8.875  11.162 -0.3440  0.4487 -0.3834
 3070SOL     OW16070   5.573  12.454   2.494 -0.2360 -0.4059  0.4698
 3070SOL    HW116071   5.639  12.393   2.528 -0.6807 -0.5367  1.1243
 3070SOL    HW216072   5.492  12.403   2.493 -1.1580  0.7793  3.3088
 3071SOL     OW16073   6.255   0.446   4.907 -0.1535 -0.5018  0.6460
 3071SOL    HW116074   6.335   0.480   4.867 -0.9870  0.7637 -0.0295
 3071SOL    HW216075   6.232   0.370   4.854 -0.5545  0.4188 -0.5595
 3072SOL     OW16076   4.382   4.191   3.052  0.3128  0.0354  0.0121
 3072SOL    HW116077   4.385   4.136   3.131  2.9860 -2.3806 -1.5990
 3072SOL    HW216078   4.467   4.234   3.049 -0.5851  1.9146 -0.4578
 3073SOL     OW16079   0.854   0.114  11.508 -0.3984 -0.1034  0.2040
 3073SOL    HW116080   0.829   0.031  11.549  1.4454 -1.7692 -1.7813
 3073SOL    HW216081   0.779   0.136  11.452  0.3673 -2.3991 -1.9259
 3074SOL     OW16082   6.330   8.409   3.386  0.0837  0.2902 -0.1616
 3074SOL    HW116083   6.400   8.384   3.326  1.2874  1.4476  0.7077
 3074SOL    HW216084   6.291   8.326   3.413  2.7423 -0.6199  1.2339
 3075SOL     OW16085   8.536   7.951   3.999  0.1694  0.2816 -0.0930
 3075SOL    HW116086   8.443   7.972   3.998  0.6567  2.8110  0.6865
 3075SOL    HW216087   8.562   7.948   3.907 -0.1472  2.5049 -0.3108
 3076SOL     OW16088   6.979   4.529   3.406  0.1357  0.0477  0.1025
 3076SOL    HW116089   6.957   4.466   3.337  0.5987  1.3659 -1.3229
 3076SOL    HW216090   6.907   4.591   3.405 -0.3169 -0.4193  1.4946
 3077SOL     OW16091   3.292  10.862   3.630 -0.4396 -0.1633  0.1514
 3077SOL    HW116092   3.375  10.857   3.583  0.1762  3.2705  0.6115
 3077SOL    HW216093   3.311  10.826   3.716  0.4480  0.1311  0.0918
 3078SOL     OW16094   9.531   1.771   5.194 -0.1709 -0.1766  0.5197
 3078SOL    HW116095   9.476   1.764   5.116 -0.0313 -2.7357  0.5698
 3078SOL    HW216096   9.610   1.723   5.171  1.1312  1.5109  1.2675
 3079SOL     OW16097   2.638   4.162   0.593 -0.0206 -0.3291 -0.3346
 3079SOL    HW116098   2.717   4.108   0.586 -0.7324 -1.2308 -1.8277
 3079SOL    HW216099   2.649   4.229   0.525 -1.3663 -1.6175 -1.8995
 3080SOL     OW16100  10.391   5.430   7.699  0.1129 -0.0043 -0.1985
 3080SOL    HW116101  10.463   5.458   7.755  2.0022 -3.8903 -0.3360
 3080SOL    HW216102  10.316   5.423   7.759  0.7097  0.9472  0.6806
 3081SOL     OW16103   8.301   2.640   4.974 -0.0413  0.1837 -0.5004
 3081SOL    HW116104   8.338   2.665   4.889  1.3270 -0.9131 -0.2702
 3081SOL    HW216105   8.291   2.723   5.020 -1.4939  0.8771 -1.9585
 3082SOL     OW16106   2.914   9.122   1.514 -0.3248 -0.3962 -0.5201
 3082SOL    HW116107   3.000   9.086   1.492 -0.9794 -0.7858 -2.7503
 3082SOL    HW216108   2.914   9.210   1.474 -0.5130  0.1321  0.6050
 3083SOL     OW16109   6.936   4.651   5.811  0.2031 -0.3467  0.5375
 3083SOL    HW116110   6.909   4.563   5.839 -1.3299  0.5161  1.9343
 3083SOL    HW216111   7.005   4.675   5.873  0.3366 -0.3946  0.4086
 3084SOL     OW16112   3.541   3.880   8.925 -0.0555 -0.0741 -0.4486
 3084SOL    HW116113   3.510   3.803   8.972  1.4679 -1.2759 -1.3023
 3084SOL    HW216114   3.633   3.888   8.951 -0.1522  1.3683 -0.4960
 3085SOL     OW16115   4.335   6.577   5.245  0.1401  0.3249  0.3855
 3085SOL    HW116116   4.360   6.486   5.230  2.8601  1.3919 -2.9554
 3085SOL    HW216117   4.250   6.585   5.202  1.2313 -0.0948 -2.0471
 3086SOL     OW16118   1.891   0.090   5.499 -0.2269 -0.4566  0.5372
 3086SOL    HW116119   1.839   0.017   5.531  1.3085 -0.9497  2.0752
 3086SOL    HW216120   1.979   0.074   5.534  0.0470  2.3856  1.4569
 3087SOL     OW16121   3.350   7.125   3.648 -0.9256 -0.2641  0.3052
 3087SOL    HW116122   3.357   7.220   3.654  1.3616 -0.3543 -0.2618
 3087SOL    HW216123   3.429   7.092   3.690 -0.5109 -1.8234 -1.5436
 3088SOL     OW16124   3.053  12.093   7.011  0.4405  0.1234  0.1060
 3088SOL    HW116125   3.104  12.142   6.946  0.4582  0.6404  0.4999
 3088SOL    HW216126   3.117  12.041   7.058  0.4534 -0.1037 -0.1615
 3089SOL     OW16127   3.306   6.088  10.697 -0.5714  0.2811 -0.2336
 3089SOL    HW116128   3.310   6.140  10.777 -2.3803 -0.6363  0.4921
 3089SOL    HW216129   3.368   6.131  10.638 -0.5909  2.1076  0.9966
 3090SOL     OW16130  12.399   3.520  12.348 -0.2250  0.5601  0.3595
 3090SOL    HW116131  12.408   3.608  12.312 -0.5441  1.1935  1.7397
 3090SOL    HW216132  12.447   3.464  12.287  0.3417  1.7451 -0.3264
 3091SOL     OW16133   4.345  10.394   7.679  0.4638  0.3279  0.0990
 3091SOL    HW116134   4.321  10.309   7.643 -0.1028 -0.0851  1.3856
 3091SOL    HW216135   4.432  10.411   7.644  0.9822 -1.2114  0.5610
 3092SOL     OW16136   4.268   7.569   9.510  0.2614 -0.8422  0.2819
 3092SOL    HW116137   4.282   7.663   9.512  0.8464 -0.9420  1.0142
 3092SOL    HW216138   4.217   7.554   9.431 -1.4585  0.3096  1.1230
 3093SOL     OW16139  11.004  10.388  10.033 -0.1434  0.3098  0.1063
 3093SOL    HW116140  11.029  10.406  10.123  0.3432 -0.3819  0.1265
 3093SOL    HW216141  10.933  10.448  10.014 -0.5708  0.1363  1.1068
 3094SOL     OW16142   5.007   6.584   4.386  0.6930  0.2633 -0.1410
 3094SOL    HW116143   5.071   6.611   4.320  1.0064  0.7840  0.3547
 3094SOL    HW216144   5.008   6.489   4.384 -0.1416  0.2534 -1.6701
 3095SOL     OW16145   8.433   8.521   2.138  0.1010 -0.1942  0.2715
 3095SOL    HW116146   8.383   8.464   2.080 -0.0280 -0.8616  1.0257
 3095SOL    HW216147   8.382   8.602   2.141 -0.8034 -0.7561  0.7876
 3096SOL     OW16148   1.085   8.215   2.991 -0.5376  0.2613 -0.2176
 3096SOL    HW116149   1.117   8.180   3.075  1.5472 -1.2001 -1.5194
 3096SOL    HW216150   1.130   8.299   2.982 -4.2136  2.7937  2.0852
 3097SOL     OW16151  11.689  10.416   4.764 -0.1817  0.4093  0.4561
 3097SOL    HW116152  11.743  10.480   4.716 -0.8269  0.9043  0.3712
 3097SOL    HW216153  11.747  10.382   4.832  0.6220 -0.0046 -0.4131
 3098SOL     OW16154   9.491  10.891   1.659  0.2525 -0.1542  0.2768
 3098SOL    HW116155   9.456  10.828   1.722 -0.2175  0.0314  0.2065
 3098SOL    HW216156   9.584  10.868   1.651 -0.2275 -1.8738 -0.9771
 3099SOL     OW16157   0.759   8.702   0.217  0.7406 -0.7606 -0.7911
 3099SOL    HW116158   0.721   8.786   0.191 -1.3115 -1.4831 -0.3313
 3099SOL    HW216159   0.807   8.722   0.298  0.1563 -0.0480 -0.6033
 3100SOL     OW16160   3.244   3.559   4.596  0.3342 -0.4692 -0.2067
 3100SOL    HW116161   3.210   3.496   4.659 -1.4568  1.7349  1.2246
 3100SOL    HW216162   3.185   3.552   4.521  0.8399 -1.2685 -0.5334
 3101SOL     OW16163   2.361   7.762   4.047 -0.2073  0.1587 -0.8319
 3101SOL    HW116164   2.442   7.760   3.997 -0.3194  2.6824 -1.2580
 3101SOL    HW216165   2.385   7.731   4.134  1.1115  0.3791 -1.0983
 3102SOL     OW16166   7.940   7.458   4.126  0.7236  0.4505 -0.0097
 3102SOL    HW116167   7.885   7.433   4.201  0.8293  0.9423  0.2391
 3102SOL    HW216168   8.026   7.420   4.146  1.3650  2.3792  1.2180
 3103SOL     OW16169  11.628  12.014  12.279  0.0834 -0.0045  0.7573
 3103SOL    HW116170  11.700  12.076  12.272  1.1212 -1.2349  0.0357
 3103SOL    HW216171  11.596  12.005  12.189 -0.8758  0.4002  1.0464
 3104SOL     OW16172   8.673   2.693   6.423 -0.2934  0.2429  0.1460
 3104SOL    HW116173   8.585   2.654   6.423  0.3494 -1.3208 -1.1684
 3104SOL    HW216174   8.725   2.635   6.368  1.4020  1.5601  0.2760
 3105SOL     OW16175  10.247   5.311   9.874 -0.0097  0.2662  0.0504
 3105SOL    HW116176  10.222   5.240   9.934  1.6488 -0.9418 -0.5972
 3105SOL    HW216177  10.324   5.350   9.915 -0.1704  0.8693 -0.2244
 3106SOL     OW16178   0.671   1.835   8.988 -0.8675  0.1124 -0.8691
 3106SOL    HW116179   0.582   1.804   8.969 -1.9025  3.1133 -1.5460
 3106SOL    HW216180   0.668   1.929   8.967  2.1878  0.5317  0.1199
 3107SOL     OW16181   9.203   2.293   7.898 -0.4251  0.1713  0.8223
 3107SOL    HW116182   9.168   2.301   7.810 -0.7147  0.2348  0.9435
 3107SOL    HW216183   9.179   2.374   7.942  3.0800  1.9636 -0.1849
 3108SOL     OW16184  12.218   6.523   5.286  0.3040  0.1294  0.2991
 3108SOL    HW116185  12.128   6.506   5.255  0.0997  0.0876  0.9049
 3108SOL    HW216186  12.215   6.612   5.319  0.8257  0.5991 -0.8644
 3109SOL     OW16187   4.927   1.196   1.180 -0.0121  0.2777  0.3644
 3109SOL    HW116188   4.865   1.249   1.130  1.3592  1.5824 -0.0561
 3109SOL    HW216189   4.881   1.115   1.199 -2.0438  1.4392  0.6208
 3110SOL     OW16190  11.450   0.099   0.248  0.4152 -0.1454 -0.4002
 3110SOL    HW116191  11.376   0.135   0.199 -0.3949 -0.8088  0.3022
 3110SOL    HW216192  11.484   0.173   0.298 -1.9898 -0.4761  1.9847
 3111SOL     OW16193   1.097  12.090  10.459  0.3333  0.2764 -0.3305
 3111SOL    HW116194   1.163  12.025  10.431  0.4703  0.4169 -0.3352
 3111SOL    HW216195   1.057  12.051  10.537  3.3156  1.9578  2.2827
 3112SOL     OW16196   8.935   2.492   9.860 -0.1653 -0.2180 -0.2990
 3112SOL    HW116197   8.931   2.428   9.931  0.1650  0.5449  0.4211
 3112SOL    HW216198   8.861   2.469   9.803 -1.2944  0.0034  1.0339
 3113SOL     OW16199   1.707   5.743  11.028  0.6549  0.3680  0.3360
 3113SOL    HW116200   1.767   5.669  11.030  1.4778  0.9949  3.1175
 3113SOL    HW216201   1.763   5.820  11.036 -0.3366  1.2076 -0.4029
 3114SOL     OW16202   1.420  12.072   2.049  0.0674  0.4742 -0.3157
 3114SOL    HW116203   1.490  12.137   2.054 -0.7022  1.3626 -0.7275
 3114SOL    HW216204   1.425  12.037   1.960  0.6522 -0.2493 -0.0108
 3115SOL     OW16205   2.948   1.595  11.477 -0.0163 -0.3111  0.2320
 3115SOL    HW116206   2.939   1.675  11.528  0.1382 -0.1839  0.0633
 3115SOL    HW216207   2.934   1.623  11.386 -0.8867 -0.6388  0.2577
 3116SOL     OW16208   1.942   4.756   6.308  0.2565 -0.7051  0.4809
 3116SOL    HW116209   1.957   4.673   6.262  0.2903 -0.8138  0.6852
 3116SOL    HW216210   1.926   4.730   6.399 -0.7668 -0.5631  0.3487
 3117SOL     OW16211   8.275   8.564   5.616 -0.3133  0.6917 -0.2695
 3117SOL    HW116212   8.360   8.603   5.634 -0.8782  2.0195 -0.3645
 3117SOL    HW216213   8.268   8.492   5.679  0.9000  0.5238 -0.3092
 3118SOL     OW16214   9.420   1.424   8.596 -0.3450  0.0242  0.4788
 3118SOL    HW116215   9.400   1.457   8.683  0.8118  3.0215 -0.2936
 3118SOL    HW216216   9.366   1.477   8.537  1.4554  0.5135 -0.8245
 3119SOL     OW16217   6.770   6.795   9.139 -0.5237 -0.0646 -0.4025
 3119SOL    HW116218   6.844   6.842   9.101 -0.6560  0.8187  0.3828
 3119SOL    HW216219   6.695   6.851   9.123 -0.8733 -0.5289 -0.4061
 3120SOL     OW16220   9.262   3.985   5.705 -0.1832  0.4393  0.1455
 3120SOL    HW116221   9.326   4.049   5.674 -0.7710  0.6951 -0.5671
 3120SOL    HW216222   9.224   3.948   5.625 -0.7954  0.1569  0.5572
 3121SOL     OW16223   7.867   3.006  11.023  0.6111 -0.0472 -0.3400
 3121SOL    HW116224   7.813   2.949  11.077  1.1392 -0.7899 -0.5868
 3121SOL    HW216225   7.811   3.083  11.007  0.2068 -0.1073  0.6916
 3122SOL     OW16226  11.318   9.766   5.637  0.1406  0.7640  0.0836
 3122SOL    HW116227  11.359   9.681   5.619  0.5505  0.6506  1.4893
 3122SOL    HW216228  11.262   9.750   5.713  1.7045  2.1644  1.5960
 3123SOL     OW16229   3.702   3.435  10.194  0.5636  0.1727 -0.3440
 3123SOL    HW116230   3.757   3.382  10.251 -0.3757 -0.7840 -0.2991
 3123SOL    HW216231   3.737   3.419  10.106  0.4191 -0.3796 -0.3086
 3124SOL     OW16232   5.612   6.140  12.326  0.2247  0.3520  0.4663
 3124SOL    HW116233   5.619   6.060  12.377 -0.3024  0.0178  0.0244
 3124SOL    HW216234   5.629   6.210  12.389 -0.8379 -0.0310  1.2182
 3125SOL     OW16235   8.007   4.361   8.191  0.2634  0.3461  0.4804
 3125SOL    HW116236   7.999   4.373   8.096  2.5342 -0.0230  0.1722
 3125SOL    HW216237   7.918   4.348   8.221 -0.7540  2.2909 -1.3388
 3126SOL     OW16238   8.058  10.244   1.938  0.3468  0.4246  0.1693
 3126SOL    HW116239   8.076  10.312   1.872 -0.8207 -0.8995 -1.5993
 3126SOL    HW216240   7.966  10.221   1.925 -0.0291  0.3292  2.5424
 3127SOL     OW16241  11.511   5.106   2.796  0.1882  0.7792  0.3383
 3127SOL    HW116242  11.531   5.177   2.736  0.2305  0.8620  0.4499
 3127SOL    HW216243  11.587   5.102   2.855  0.1785  0.6539  0.3441
 3128SOL     OW16244   8.716   5.365   8.102 -0.5575 -0.5383 -0.2810
 3128SOL    HW116245   8.803   5.339   8.072 -0.2795 -1.0265  0.8589
 3128SOL    HW216246   8.680   5.286   8.141 -1.7097 -0.4557 -1.1301
 3129SOL     OW16247  10.423   3.275   6.903  0.5964  0.3026 -0.3997
 3129SOL    HW116248  10.513   3.249   6.884  0.6956  1.5306 -1.7569
 3129SOL    HW216249  10.384   3.293   6.817 -0.1415  2.3177  0.3027
 3130SOL     OW16250   4.985  10.691   3.963 -0.0391 -0.5288 -0.0027
 3130SOL    HW116251   5.022  10.720   4.047  3.0323 -0.7058 -1.1572
 3130SOL    HW216252   4.972  10.597   3.974 -0.9058 -0.3410  0.6681
 3131SOL     OW16253   0.468  12.130   0.207  0.2967  0.1388  0.1832
 3131SOL    HW116254   0.413  12.179   0.146  0.2736 -0.6422 -0.4302
 3131SOL    HW216255   0.421  12.048   0.222 -0.1018  0.6466  1.9057
 3132SOL     OW16256   6.485   0.153   2.494 -0.0146 -0.1201 -0.2706
 3132SOL    HW116257   6.556   0.206   2.459 -0.8538 -0.2178 -2.2449
 3132SOL    HW216258   6.407   0.185   2.448 -0.6619 -2.4899 -0.9168
 3133SOL     OW16259   8.438   3.964   4.478 -0.4937  0.0573 -0.2917
 3133SOL    HW116260   8.366   3.996   4.424 -0.3818 -0.0783 -0.5207
 3133SOL    HW216261   8.399   3.897   4.533 -0.4656 -0.2684 -0.6689
 3134SOL     OW16262   1.274   8.458   8.387 -0.1171 -0.3919  0.3958
 3134SOL    HW116263   1.333   8.456   8.462  0.2564  2.7736  0.3339
 3134SOL    HW216264   1.224   8.539   8.397  0.8592  0.8919 -3.3576
 3135SOL     OW16265   8.864   1.701   7.735  0.3996  0.4222  0.5370
 3135SOL    HW116266   8.779   1.672   7.766  1.0589 -3.5168 -0.7227
 3135SOL    HW216267   8.846   1.743   7.651 -0.3293 -0.1481  0.4004
 3136SOL     OW16268   0.741   6.555   7.418  0.2371 -0.5459 -0.1743
 3136SOL    HW116269   0.688   6.623   7.375 -0.2423 -0.9432 -0.2222
 3136SOL    HW216270   0.687   6.527   7.492  1.1623  0.3034  0.8483
 3137SOL     OW16271  10.627   2.166  11.596 -0.5420 -0.0552 -0.1644
 3137SOL    HW116272  10.641   2.075  11.624  0.4334  0.7338  2.1432
 3137SOL    HW216273  10.557   2.198  11.653  1.6773  1.6922  1.7904
 3138SOL     OW16274   1.287   4.082  12.442  0.1991  0.0139  0.1452
 3138SOL    HW116275   1.253   4.053  12.527  0.2209  0.8434  0.4477
 3138SOL    HW216276   1.323   4.169  12.460  0.7157 -0.0430 -0.5973
 3139SOL     OW16277   9.907   2.544   9.764  0.1504  0.5077 -0.7101
 3139SOL    HW116278   9.984   2.588   9.798  1.5248 -1.5801 -0.9402
 3139SOL    HW216279   9.887   2.477   9.830  0.4944 -1.0375 -2.1077
 3140SOL     OW16280   4.119   5.822   9.117  0.5909 -0.0988 -0.3198
 3140SOL    HW116281   4.188   5.768   9.076  0.0671 -1.6910  0.8072
 3140SOL    HW216282   4.088   5.878   9.046  1.4938 -0.9407 -1.4286
 3141SOL     OW16283   9.706   4.181  10.957 -0.1353 -0.5424 -0.6605
 3141SOL    HW116284   9.612   4.193  10.968 -0.5838 -2.5483 -1.7357
 3141SOL    HW216285   9.734   4.138  11.038 -0.8824 -3.1066 -1.6501
 3142SOL     OW16286   0.447   9.443   7.853 -0.4146 -0.1453  0.1431
 3142SOL    HW116287   0.495   9.384   7.795  0.4561  1.5559 -0.9377
 3142SOL    HW216288   0.394   9.385   7.907  1.0032 -1.9606 -0.3088
 3143SOL     OW16289   4.278  10.820   3.039 -0.1965  0.4033 -0.1305
 3143SOL    HW116290   4.363  10.787   3.010 -0.2096 -0.1735  0.4548
 3143SOL    HW216291   4.265  10.901   2.989  1.4474  1.3895  0.9383
 3144SOL     OW16292   6.036   3.017   4.449 -0.4995  0.1381  0.3599
 3144SOL    HW116293   5.999   3.054   4.529  0.5849  1.0802  0.4593
 3144SOL    HW216294   5.992   3.064   4.378 -0.1365  0.6284  0.4549
 3145SOL     OW16295   9.998   6.588   4.822  0.4108  0.5213 -0.0748
 3145SOL    HW116296   9.924   6.607   4.764 -0.1985 -0.4685  0.3433
 3145SOL    HW216297  10.069   6.642   4.788  0.9449 -1.9813 -3.5723
 3146SOL     OW16298   5.117   7.497   7.251 -0.2191  0.0428  0.5693
 3146SOL    HW116299   5.147   7.466   7.336  0.7157  0.2189  0.3143
 3146SOL    HW216300   5.124   7.592   7.256 -0.7955  0.0917  0.5188
 3147SOL     OW16301   3.347   8.453  11.032 -0.2266  0.1020  0.0316
 3147SOL    HW116302   3.325   8.514  10.961  0.4920 -0.0142 -0.3052
 3147SOL    HW216303   3.272   8.394  11.038 -0.0092 -0.3126 -1.1013
 3148SOL     OW16304   5.816   7.345   4.734 -0.2569  0.1733  0.0635
 3148SOL    HW116305   5.851   7.379   4.816 -1.6562  1.6806  0.0828
 3148SOL    HW216306   5.882   7.369   4.668  0.0202  0.5404  0.4706
 3149SOL     OW16307   8.135   7.557   4.406  0.1036 -0.2011 -0.5053
 3149SOL    HW116308   8.140   7.649   4.432  0.7294 -0.6147  0.9655
 3149SOL    HW216309   8.196   7.549   4.332 -0.2365  0.6301 -0.8819
 3150SOL     OW16310   9.967   9.795   5.829 -0.0763 -0.1215  0.2368
 3150SOL    HW116311  10.009   9.721   5.784 -2.6806 -0.6128 -1.6171
 3150SOL    HW216312   9.954   9.764   5.919  1.1076 -0.9335  0.1543
 3151SOL     OW16313   9.278   9.837   3.427  0.3899  0.5598  0.3415
 3151SOL    HW116314   9.352   9.896   3.442  0.6759  0.4697 -0.6109
 3151SOL    HW216315   9.306   9.753   3.464  0.6596  0.6011  0.2359
 3152SOL     OW16316   9.479   0.801  12.149 -0.1846 -0.0172  0.4136
 3152SOL    HW116317   9.399   0.790  12.097  0.4817 -0.2714 -0.5779
 3152SOL    HW216318   9.485   0.721  12.201  0.0811 -0.5543 -0.4312
 3153SOL     OW16319  12.008   7.692   1.614 -0.3147  0.0694  0.2347
 3153SOL    HW116320  11.914   7.673   1.606  0.2164 -2.3680 -0.9913
 3153SOL    HW216321  12.043   7.618   1.664  0.9925  0.8969  0.5916
 3154SOL     OW16322   1.845   9.555   4.880 -0.2010  0.2675 -1.0262
 3154SOL    HW116323   1.818   9.646   4.870  2.2384  1.0558 -1.1340
 3154SOL    HW216324   1.800   9.526   4.960 -1.6753  1.2580 -1.4489
 3155SOL     OW16325   0.562  10.340   2.824  0.6998 -0.5125  0.5218
 3155SOL    HW116326   0.496  10.402   2.792  0.7874 -0.5988  0.1627
 3155SOL    HW216327   0.562  10.270   2.758  0.5384 -0.9373  0.9711
 3156SOL     OW16328   3.920   7.097  11.771  0.2029  0.5235  0.1238
 3156SOL    HW116329   3.990   7.046  11.810 -0.3157 -0.2537  0.0668
 3156SOL    HW216330   3.840   7.049  11.793 -0.4524  2.0821  1.3136
 3157SOL     OW16331   4.629   2.625   7.570  0.0926 -0.3503  0.2724
 3157SOL    HW116332   4.692   2.587   7.509 -0.6872 -0.4305 -0.5073
 3157SOL    HW216333   4.548   2.631   7.520 -0.2263  0.8449  0.8907
 3158SOL     OW16334   1.690   7.194  12.402  0.1960 -0.2574  0.7101
 3158SOL    HW116335   1.648   7.264  12.352  2.4459  0.1093 -0.7971
 3158SOL    HW216336   1.746   7.239  12.465  3.0899 -0.4980 -1.4734
 3159SOL     OW16337   3.711   0.274   7.722 -0.1460 -0.1531 -0.1932
 3159SOL    HW116338   3.694   0.205   7.786 -1.2403 -0.3030 -0.6241
 3159SOL    HW216339   3.748   0.346   7.773  2.0364 -1.3953  0.1214
 3160SOL     OW16340  11.336   2.379   7.660 -0.1504  0.1520  0.1935
 3160SOL    HW116341  11.262   2.438   7.644 -0.5873  0.1613  2.0197
 3160SOL    HW216342  11.366   2.403   7.748  0.5856 -1.3875  0.3819
 3161SOL     OW16343  10.562   5.247   6.461 -0.2329  0.5909 -0.7263
 3161SOL    HW116344  10.657   5.238   6.466 -0.2096  1.2970  0.3218
 3161SOL    HW216345  10.541   5.314   6.526 -1.4803  0.2130 -0.7242
 3162SOL     OW16346   1.662   4.671   0.701  0.0523  0.2975  0.5672
 3162SOL    HW116347   1.634   4.667   0.609  1.7160 -0.9558  0.0508
 3162SOL    HW216348   1.702   4.757   0.709 -0.6023  0.6386  0.2843
 3163SOL     OW16349  12.366  10.171  11.845  0.2231  0.2045  0.2448
 3163SOL    HW116350  12.435  10.113  11.876  1.2150  1.3458  0.2390
 3163SOL    HW216351  12.352  10.146  11.754  0.3592 -0.2803  0.3538
 3164SOL     OW16352   1.549   8.674   6.164 -0.4464  0.3016  0.1829
 3164SOL    HW116353   1.588   8.736   6.225 -0.5005 -0.2961  0.8383
 3164SOL    HW216354   1.568   8.588   6.202 -1.5534 -0.0328  0.0210
 3165SOL     OW16355   6.075  10.926   3.366 -0.3817 -0.7430 -0.3423
 3165SOL    HW116356   6.168  10.947   3.362  0.5679 -3.9143  1.6813
 3165SOL    HW216357   6.057  10.880   3.284 -0.3777  0.4182 -1.0148
 3166SOL     OW16358  10.413   1.412   3.634  0.6302 -0.1617  0.2469
 3166SOL    HW116359  10.398   1.477   3.565 -2.6336 -2.6712 -1.6813
 3166SOL    HW216360  10.346   1.430   3.699  2.0229  0.5269  1.5631
 3167SOL     OW16361   0.159   5.702   5.238 -0.2479  0.6161  0.2067
 3167SOL    HW116362   0.241   5.693   5.288 -0.2016  0.9655  0.1946
 3167SOL    HW216363   0.122   5.785   5.266 -1.4728 -0.3191  1.4845
 3168SOL     OW16364   4.793   4.300   8.107 -0.8568 -0.2562  0.3292
 3168SOL    HW116365   4.810   4.385   8.146 -2.0696 -0.4888  1.4348
 3168SOL    HW216366   4.792   4.315   8.013 -0.1919  0.7740  0.4825
 3169SOL     OW16367  10.246   8.662   5.201  0.3689  0.2694 -0.0650
 3169SOL    HW116368  10.158   8.685   5.230  0.1254 -1.7830  1.0149
 3169SOL    HW216369  10.304   8.704   5.266  0.0451 -0.4364  0.6997
 3170SOL     OW16370  11.936   4.728   2.768  0.0781 -0.6243  0.4520
 3170SOL    HW116371  11.873   4.658   2.752  0.1622 -0.7811  0.7959
 3170SOL    HW216372  11.931   4.783   2.690 -1.3281  0.0222  0.9659
 3171SOL     OW16373   3.162   0.213  12.262 -0.0484  0.4764 -0.2279
 3171SOL    HW116374   3.120   0.265  12.330  0.2623  1.5106 -0.8087
 3171SOL    HW216375   3.256   0.226  12.277  0.0151  1.0436 -1.0989
 3172SOL     OW16376   5.413   3.575   0.375  0.4429 -0.0726 -0.8930
 3172SOL    HW116377   5.380   3.488   0.395  0.9270 -0.0232  0.2338
 3172SOL    HW216378   5.337   3.632   0.385  0.3837 -0.2239 -0.4675
 3173SOL     OW16379   6.484  12.075   5.870 -0.5212  0.1994  0.6416
 3173SOL    HW116380   6.428  12.132   5.924 -2.0360  0.1301 -0.7534
 3173SOL    HW216381   6.526  12.135   5.808 -1.3471 -0.0585 -0.1888
 3174SOL     OW16382   4.853   6.619   9.276 -0.0912  0.3815  0.1413
 3174SOL    HW116383   4.845   6.692   9.338 -1.7036  1.1639 -0.9174
 3174SOL    HW216384   4.842   6.541   9.329  0.0359  0.9736  1.0665
 3175SOL     OW16385   5.307   2.930   0.429 -0.6192  0.2647  0.5014
 3175SOL    HW116386   5.302   2.835   0.427 -0.9074  0.2886 -0.0693
 3175SOL    HW216387   5.380   2.952   0.371 -0.4888  0.3837  0.7108
 3176SOL     OW16388  12.187   4.599  11.304  0.5052 -0.7436  0.1187
 3176SOL    HW116389  12.102   4.577  11.342  0.3489 -1.7146 -0.7577
 3176SOL    HW216390  12.222   4.515  11.274  2.6273 -0.6715  2.1293
 3177SOL     OW16391   8.610   3.234   5.734  0.2411 -0.0928  0.0758
 3177SOL    HW116392   8.614   3.321   5.774 -1.9520 -0.3236  0.9340
 3177SOL    HW216393   8.607   3.174   5.808 -2.1574 -0.6231 -0.3686
 3178SOL     OW16394   0.387   1.962   4.064  0.5235 -0.1128 -0.1607
 3178SOL    HW116395   0.463   2.002   4.022  1.3266 -1.8691 -0.4452
 3178SOL    HW216396   0.370   1.883   4.014 -1.3050  0.0504  0.1143
 3179SOL     OW16397   8.230  12.049   5.961  0.2427 -0.3981 -0.4286
 3179SOL    HW116398   8.325  12.046   5.975  0.3557  0.8923 -0.7611
 3179SOL    HW216399   8.203  12.133   5.999 -1.2716 -2.0399  2.4143
 3180SOL     OW16400  11.287  12.165   6.694  0.1295 -0.5317  0.0917
 3180SOL    HW116401  11.272  12.256   6.670 -0.4261  0.2332  3.0276
 3180SOL    HW216402  11.216  12.117   6.651  1.0972  0.1674 -2.4463
 3181SOL     OW16403   8.177   8.668   0.554 -0.1093 -0.6694 -0.8727
 3181SOL    HW116404   8.183   8.705   0.466  1.1225  0.2238 -0.4259
 3181SOL    HW216405   8.232   8.724   0.608  0.7408 -2.3474  0.0913
 3182SOL     OW16406   6.799   9.980   8.904  0.2530  0.4433 -0.4518
 3182SOL    HW116407   6.780  10.012   8.816 -0.7213 -0.5871 -0.6396
 3182SOL    HW216408   6.869   9.916   8.892  0.7428  0.9502 -0.3481
 3183SOL     OW16409   9.170   0.734  11.314  0.3427  0.3774 -0.2224
 3183SOL    HW116410   9.211   0.763  11.233  0.7366  1.3177  0.2911
 3183SOL    HW216411   9.090   0.786  11.320 -1.5491 -2.1312 -1.7168
 3184SOL     OW16412   8.068   4.938  11.365  0.2558  0.1103 -0.6028
 3184SOL    HW116413   8.076   5.033  11.380 -2.2300  0.0595  1.7354
 3184SOL    HW216414   7.975   4.924  11.349  0.4860 -2.0472 -0.2528
 3185SOL     OW16415   9.917   3.541   1.039  0.4760  0.1332 -0.6378
 3185SOL    HW116416   9.895   3.630   1.012 -0.3066 -0.1068 -0.8016
 3185SOL    HW216417  10.012   3.535   1.024  0.5336  0.9203 -0.6596
 3186SOL     OW16418   2.602   9.362  11.756  0.0496  0.5403 -0.0150
 3186SOL    HW116419   2.631   9.347  11.846 -0.4820  0.4956  0.1519
 3186SOL    HW216420   2.555   9.282  11.732 -0.4625  0.8448 -0.0633
 3187SOL     OW16421   2.347   0.982   9.386  0.5628  0.2801  0.4603
 3187SOL    HW116422   2.390   1.060   9.421 -0.2443  1.0736 -0.2958
 3187SOL    HW216423   2.418   0.933   9.344  1.1015  0.5096  1.0868
 3188SOL     OW16424   5.082   3.561   3.851  0.3525 -0.1380  0.5263
 3188SOL    HW116425   5.120   3.531   3.769 -0.2691  0.5725 -0.0377
 3188SOL    HW216426   5.115   3.650   3.861 -2.4294  1.1766 -0.8733
 3189SOL     OW16427   9.453   4.165   0.441 -0.0684 -0.3885  0.0836
 3189SOL    HW116428   9.398   4.086   0.438 -0.2048 -0.3702  1.4146
 3189SOL    HW216429   9.407   4.222   0.502  0.1396  0.6575 -0.7183
 3190SOL     OW16430   1.493   9.249   6.199 -0.1065  0.1475  0.0116
 3190SOL    HW116431   1.577   9.212   6.227  1.3860  3.2697  0.0944
 3190SOL    HW216432   1.455   9.286   6.279 -1.5027 -1.0308 -0.0681
 3191SOL     OW16433   3.470   5.264   5.392  0.1985 -0.2326  0.1467
 3191SOL    HW116434   3.390   5.276   5.444 -0.4196 -2.5072 -0.1988
 3191SOL    HW216435   3.439   5.232   5.307  1.4644 -1.3839  0.0818
 3192SOL     OW16436   1.796   2.082   3.261 -0.4651 -0.9858  0.4069
 3192SOL    HW116437   1.735   2.058   3.192 -1.0085 -0.5928  0.7468
 3192SOL    HW216438   1.847   2.155   3.224 -0.4839 -1.0411  0.2743
 3193SOL     OW16439  12.034   2.481  11.921 -0.0059  0.7432  0.4743
 3193SOL    HW116440  12.087   2.496  11.842 -1.2633  0.8506 -0.3863
 3193SOL    HW216441  12.013   2.387  11.917 -0.3341  0.8166  0.5125
 3194SOL     OW16442   1.958   4.581   5.819  0.0678  0.1351 -0.2004
 3194SOL    HW116443   1.990   4.501   5.861  0.0794 -0.1551 -0.7462
 3194SOL    HW216444   1.978   4.651   5.880  1.5386 -0.0664 -0.4201
 3195SOL     OW16445   0.543  10.906  11.112 -0.4731 -0.0737 -0.5442
 3195SOL    HW116446   0.448  10.906  11.125 -0.2767  1.4635  1.4556
 3195SOL    HW216447   0.559  10.979  11.052 -0.5120 -0.1110 -0.6007
 3196SOL     OW16448   6.522   3.940   7.246  0.3808 -0.0559 -0.0115
 3196SOL    HW116449   6.613   3.955   7.272  0.3366  3.4478 -1.2902
 3196SOL    HW216450   6.526   3.924   7.152 -0.2507 -1.8980  0.2333
 3197SOL     OW16451   3.982   7.666   0.512 -0.2797  0.4387 -0.0204
 3197SOL    HW116452   3.903   7.614   0.527  1.4377 -2.0760  0.7973
 3197SOL    HW216453   4.036   7.613   0.455  1.5387  1.3446  0.7738
 3198SOL     OW16454   6.868   4.878   8.195 -0.1888 -0.5731 -0.5029
 3198SOL    HW116455   6.939   4.916   8.143 -1.0734  0.4150 -1.0372
 3198SOL    HW216456   6.807   4.843   8.131 -0.2510 -1.3159 -0.0496
 3199SOL     OW16457   0.188   9.113   0.086  0.3847  0.0503  0.5218
 3199SOL    HW116458   0.099   9.140   0.108  0.3067 -1.1247  1.7135
 3199SOL    HW216459   0.198   9.026   0.125  1.5743 -0.4601 -0.8262
 3200SOL     OW16460   6.769   4.214  11.679 -0.2390 -0.0647 -0.1687
 3200SOL    HW116461   6.778   4.119  11.672 -0.3365 -0.2312  1.5428
 3200SOL    HW216462   6.858   4.246  11.693 -0.4440 -0.1613  1.5297
 3201SOL     OW16463   0.059   8.967   5.340 -0.3560 -0.5981  0.0593
 3201SOL    HW116464   0.015   8.908   5.401  0.4879  0.9162  2.2481
 3201SOL    HW216465   0.004   9.045   5.338  0.6883  0.1761  0.5605
 3202SOL     OW16466   7.883   8.428  12.454 -0.0969  0.3244 -0.2644
 3202SOL    HW116467   7.959   8.373  12.472  0.2378  1.6099  2.8902
 3202SOL    HW216468   7.808   8.368  12.461  0.3651 -0.1104  1.1930
 3203SOL     OW16469   0.885   5.486   1.311  0.1374  0.3168  0.1708
 3203SOL    HW116470   0.918   5.456   1.396  3.1293  0.0680 -0.9669
 3203SOL    HW216471   0.943   5.559   1.288  0.0642 -0.2887 -2.1173
 3204SOL     OW16472   2.074   2.495   1.877  0.0024  0.4820  0.1417
 3204SOL    HW116473   2.072   2.586   1.844 -0.4095  0.9281  1.3498
 3204SOL    HW216474   2.163   2.465   1.857 -0.7794 -0.0086 -3.2047
 3205SOL     OW16475   1.769   8.584  11.628 -0.3301 -0.1155  0.5309
 3205SOL    HW116476   1.770   8.530  11.549  0.8601 -1.6031  1.5035
 3205SOL    HW216477   1.840   8.549  11.682  0.5165  2.4910  1.2167
 3206SOL     OW16478  10.792   9.049   3.581  0.5032  0.0884  0.7075
 3206SOL    HW116479  10.826   9.069   3.669 -2.0081 -0.6321  1.9479
 3206SOL    HW216480  10.731   9.121   3.562 -0.2922 -0.6543  0.3694
 3207SOL     OW16481   2.560   7.859   5.959 -0.8353  0.0881 -0.8412
 3207SOL    HW116482   2.573   7.944   5.915 -3.3071  1.6795  1.2027
 3207SOL    HW216483   2.574   7.878   6.052 -0.5975 -1.9940 -0.4074
 3208SOL     OW16484  10.379  10.770   5.148  0.6168 -0.2466  1.7143
 3208SOL    HW116485  10.406  10.858   5.121 -0.5906 -0.5135 -0.6337
 3208SOL    HW216486  10.375  10.721   5.066 -1.5375 -1.6953  2.6184
 3209SOL     OW16487  11.782  11.606   3.859 -0.3833 -0.4736  0.2250
 3209SOL    HW116488  11.772  11.540   3.790 -0.9607  2.0238 -2.2384
 3209SOL    HW216489  11.822  11.681   3.815 -4.5613  2.8512  1.4551
 3210SOL     OW16490  11.904  10.245  10.906  0.0754 -0.4017 -0.0333
 3210SOL    HW116491  11.949  10.170  10.866 -0.8733 -1.1289  0.2257
 3210SOL    HW216492  11.911  10.314  10.840  1.0226 -0.6813 -0.2516
 3211SOL     OW16493   7.417   0.574   0.425  0.0047 -0.4920 -0.8997
 3211SOL    HW116494   7.434   0.486   0.460 -1.4421  0.0028  1.1842
 3211SOL    HW216495   7.500   0.620   0.435 -0.3101 -0.3713  2.0597
 3212SOL     OW16496   7.044   6.722   0.723  0.1637  0.0957 -0.4707
 3212SOL    HW116497   7.121   6.758   0.767  1.0117 -1.1295 -0.8934
 3212SOL    HW216498   6.994   6.798   0.695 -0.8300  1.0309  3.2160
 3213SOL     OW16499   9.178   5.739   3.833  0.2411  0.7816  0.2168
 3213SOL    HW116500   9.114   5.750   3.904 -1.9298  1.6877 -1.7322
 3213SOL    HW216501   9.183   5.645   3.819 -1.5032  0.7242 -0.2362
 3214SOL     OW16502  10.641   8.150   3.306  0.7397  0.1721  0.7124
 3214SOL    HW116503  10.652   8.208   3.380 -1.3546  0.0763  1.1432
 3214SOL    HW216504  10.661   8.063   3.341  2.9743  0.4558  0.2914
 3215SOL     OW16505   0.149  11.211   7.934  0.5527 -0.4772 -0.3846
 3215SOL    HW116506   0.151  11.151   7.860 -1.5631 -0.5052 -0.4772
 3215SOL    HW216507   0.144  11.154   8.011 -1.0255 -0.4660 -0.4509
 3216SOL     OW16508   3.340   4.104   4.103  0.5164  0.0780 -0.2906
 3216SOL    HW116509   3.367   4.121   4.013  1.5719 -0.2239 -0.0425
 3216SOL    HW216510   3.332   4.191   4.142  1.9175  0.1781 -0.1608
 3217SOL     OW16511   9.085  11.291   8.652 -0.3266 -0.6211 -0.2744
 3217SOL    HW116512   9.009  11.258   8.699  0.3300 -1.3927  0.2928
 3217SOL    HW216513   9.131  11.346   8.715  0.8809 -2.1406  0.2605
 3218SOL     OW16514   3.216   4.978   0.979 -0.0872 -0.6739 -0.2369
 3218SOL    HW116515   3.169   4.930   0.909  0.8927 -1.7578 -0.1803
 3218SOL    HW216516   3.237   4.911   1.044  1.8322 -0.3008 -0.4123
 3219SOL     OW16517   4.355   8.032  10.955 -0.7339 -0.0675  0.0457
 3219SOL    HW116518   4.409   8.103  10.990  1.7461 -1.9181  0.3596
 3219SOL    HW216519   4.402   7.952  10.983 -1.1237 -1.7654 -3.6071
 3220SOL     OW16520   1.882   8.705   3.149  0.4697 -0.2206 -0.4675
 3220SOL    HW116521   1.847   8.648   3.081  0.1253  0.2688 -0.7130
 3220SOL    HW216522   1.808   8.719   3.208  0.3590  0.4725 -0.7537
 3221SOL     OW16523   1.460  11.123  10.528 -0.0542  0.0436 -0.1716
 3221SOL    HW116524   1.458  11.030  10.550  0.1295 -0.1022 -0.7801
 3221SOL    HW216525   1.369  11.151  10.536 -0.0696 -0.1218  0.2803
 3222SOL     OW16526   8.967   2.463  10.388 -0.7492 -0.1942  0.1761
 3222SOL    HW116527   8.913   2.537  10.415  0.0944  1.3405 -2.0704
 3222SOL    HW216528   9.045   2.469  10.443 -1.9170 -1.2267  2.0298
 3223SOL     OW16529   4.167  11.018   8.067  0.4795 -0.3878  0.5782
 3223SOL    HW116530   4.228  11.090   8.051 -1.6192  1.2256 -0.7413
 3223SOL    HW216531   4.163  10.971   7.983 -2.1760  1.3139 -0.3723
 3224SOL     OW16532   6.166   6.062   7.683 -0.2407 -0.1101 -0.5999
 3224SOL    HW116533   6.120   6.027   7.759  0.9309  0.5481  0.4299
 3224SOL    HW216534   6.143   6.155   7.682  1.1448  0.2521 -0.0013
 3225SOL     OW16535   9.197   7.822   7.979 -0.9219  0.3740 -0.4574
 3225SOL    HW116536   9.106   7.807   8.004 -0.2881 -0.2653  1.5990
 3225SOL    HW216537   9.239   7.737   7.986  0.3592  1.0700  1.0203
 3226SOL     OW16538   6.428  12.224   3.861  0.4502 -0.6422  0.3868
 3226SOL    HW116539   6.486  12.201   3.788  0.0757  1.0786 -0.5246
 3226SOL    HW216540   6.340  12.222   3.822  0.2796  0.6860  0.6698
 3227SOL     OW16541   3.004   4.051   8.578 -0.7467 -0.4767 -0.3324
 3227SOL    HW116542   3.069   4.022   8.643 -0.6588  0.7762  0.1566
 3227SOL    HW216543   3.056   4.089   8.507 -0.9375  0.7042  0.1471
 3228SOL     OW16544  11.830   2.898   5.176  0.0231  0.2032  0.3400
 3228SOL    HW116545  11.816   2.825   5.236 -2.7632 -0.3741 -0.8476
 3228SOL    HW216546  11.822   2.859   5.089 -2.6922  1.9843 -0.3442
 3229SOL     OW16547  11.444   5.893   4.446 -0.3683 -0.0872 -0.3382
 3229SOL    HW116548  11.449   5.825   4.378 -0.0851 -0.5512  0.1387
 3229SOL    HW216549  11.535   5.910   4.469 -0.2039  2.4630 -2.3801
 3230SOL     OW16550   3.821   8.382  12.058 -0.7746 -0.7569 -0.0337
 3230SOL    HW116551   3.838   8.357  12.149 -1.2407 -1.5088 -0.1387
 3230SOL    HW216552   3.793   8.300  12.016  0.6621 -0.7109 -1.1675
 3231SOL     OW16553   4.031   8.057   4.687 -0.1777 -0.2342 -0.2970
 3231SOL    HW116554   3.984   8.060   4.770  0.5427 -0.2502  0.1214
 3231SOL    HW216555   3.962   8.051   4.620 -0.8069  0.8350  0.2253
 3232SOL     OW16556   0.894  11.668   0.234  0.2817  0.1943  0.0013
 3232SOL    HW116557   0.818  11.690   0.289  0.6613 -1.0334  1.0762
 3232SOL    HW216558   0.967  11.667   0.296  0.6416 -1.7341 -0.3905
 3233SOL     OW16559   9.659   8.510   9.512 -0.3508 -0.5387  0.2521
 3233SOL    HW116560   9.579   8.562   9.504  1.1516  1.5822 -2.9576
 3233SOL    HW216561   9.659   8.453   9.435  1.8786  0.6703 -0.7384
 3234SOL     OW16562   6.705   3.648   1.224  0.2203 -0.5491  0.6523
 3234SOL    HW116563   6.768   3.693   1.168  0.0772 -2.9276 -1.5685
 3234SOL    HW216564   6.676   3.572   1.173 -1.7829 -1.5138  3.0094
 3235SOL     OW16565  10.734   3.000  11.370 -0.3241  0.6878 -0.0931
 3235SOL    HW116566  10.686   3.083  11.364  1.0914  1.4541 -1.6467
 3235SOL    HW216567  10.778   2.992  11.285  0.6937 -0.9609  0.5521
 3236SOL     OW16568   4.547  12.216  11.763 -0.9321  0.2341 -0.3221
 3236SOL    HW116569   4.594  12.297  11.778  0.4012 -0.3625 -1.1095
 3236SOL    HW216570   4.504  12.197  11.846  1.6569 -0.0998  1.0449
 3237SOL     OW16571   0.385   5.778   1.265 -0.1997 -0.6341  0.5713
 3237SOL    HW116572   0.347   5.739   1.187  1.5489  0.7078 -1.0339
 3237SOL    HW216573   0.409   5.703   1.320 -0.2260 -1.6837 -0.7933
 3238SOL     OW16574  11.957   9.124  10.757  0.0736 -0.3644 -0.5343
 3238SOL    HW116575  11.871   9.158  10.731  0.7279  0.7629 -1.2748
 3238SOL    HW216576  11.957   9.033  10.726 -0.9049 -0.4402 -0.3590
 3239SOL     OW16577   8.293   7.599   4.185 -0.1214 -0.2388 -0.1998
 3239SOL    HW116578   8.380   7.637   4.168 -0.1247 -0.1147  0.0573
 3239SOL    HW216579   8.241   7.624   4.109 -0.1577  0.3793  0.0243
 3240SOL     OW16580   9.810   5.122   5.827 -0.6693  0.0799 -0.0693
 3240SOL    HW116581   9.736   5.182   5.836  0.2081  0.9252  2.7871
 3240SOL    HW216582   9.885   5.172   5.859  0.3117 -2.1028  1.2847
 3241SOL     OW16583   9.758   8.808   3.883  0.3388  0.5246  0.0518
 3241SOL    HW116584   9.827   8.845   3.938  1.0439  0.6043 -0.8522
 3241SOL    HW216585   9.715   8.884   3.844  0.1804  0.4558  0.0888
 3242SOL     OW16586  12.279   3.345   3.794  0.4876 -0.5423  0.1710
 3242SOL    HW116587  12.215   3.274   3.790  0.0287 -0.1314  0.1432
 3242SOL    HW216588  12.297   3.366   3.703  0.0437 -0.1057  0.1846
 3243SOL     OW16589   4.481  11.968   7.141 -0.4758 -0.5185  0.0843
 3243SOL    HW116590   4.558  12.004   7.186 -1.4844  0.1001  1.3825
 3243SOL    HW216591   4.511  11.952   7.051  1.3829 -1.0351  0.7474
 3244SOL     OW16592   7.533   7.087   0.080  0.8403  0.0232  0.1933
 3244SOL    HW116593   7.581   7.006   0.062 -0.8523 -0.9564 -0.1712
 3244SOL    HW216594   7.556   7.109   0.170  3.0006  0.3711 -0.3997
 3245SOL     OW16595   5.976  10.034   2.029 -0.1327  0.2011 -0.1385
 3245SOL    HW116596   6.044   9.984   2.074  0.5774  0.8642 -0.4556
 3245SOL    HW216597   5.907  10.044   2.095  0.6390  0.6442  0.6279
 3246SOL     OW16598  10.498   1.453   1.720 -0.4630  0.3454  0.9104
 3246SOL    HW116599  10.447   1.525   1.757 -1.3805  0.6160 -0.7725
 3246SOL    HW216600  10.461   1.439   1.633  1.5537 -0.2774  0.0848
 3247SOL     OW16601   3.743   6.369   4.071 -0.5822  0.4197 -0.0587
 3247SOL    HW116602   3.725   6.276   4.086  0.1246  0.4850  1.2867
 3247SOL    HW216603   3.738   6.409   4.157 -0.4056  1.5675 -0.5587
 3248SOL     OW16604   6.975   6.514   3.092  0.2804  0.0218  0.4302
 3248SOL    HW116605   6.906   6.513   3.026  1.1333 -0.1660 -0.4650
 3248SOL    HW216606   6.930   6.544   3.172 -0.9148 -0.4650 -0.0343
 3249SOL     OW16607   1.686   1.215  10.998  0.5604 -0.0553  0.1604
 3249SOL    HW116608   1.713   1.262  10.919  2.5369  0.6634  1.2176
 3249SOL    HW216609   1.762   1.163  11.023  0.0963 -0.0071  1.7979
 3250SOL     OW16610   3.108   6.008   6.531  0.0255 -0.5173  0.0182
 3250SOL    HW116611   3.166   6.028   6.458  2.3601  0.1524  1.9487
 3250SOL    HW216612   3.086   6.094   6.568 -2.1158 -0.7655 -0.5540
 3251SOL     OW16613   3.274   0.798   0.731  0.0816 -0.1339  0.0002
 3251SOL    HW116614   3.254   0.881   0.686 -1.1538  0.9678  2.4045
 3251SOL    HW216615   3.363   0.810   0.764  1.0135 -0.9639 -2.0017
 3252SOL     OW16616   8.808   7.079  10.020  0.1384  0.3336  0.3433
 3252SOL    HW116617   8.792   7.162   9.975  0.1055 -0.8575 -2.0033
 3252SOL    HW216618   8.723   7.036  10.022  0.7614 -1.1362 -1.7718
 3253SOL     OW16619  10.482   4.162  10.888 -0.1509  0.3745 -0.1211
 3253SOL    HW116620  10.522   4.248  10.901  1.6448 -0.4130 -0.1979
 3253SOL    HW216621  10.458   4.133  10.976 -2.4183  1.6495 -0.2365
 3254SOL     OW16622   5.227   5.033   2.453 -0.2373 -0.0003 -0.4571
 3254SOL    HW116623   5.167   5.031   2.528  0.3795 -0.9510  0.0158
 3254SOL    HW216624   5.314   5.025   2.492  0.0760 -0.6648 -1.2935
 3255SOL     OW16625   9.898   8.958  11.638  0.0682 -0.3251  0.6005
 3255SOL    HW116626   9.809   8.936  11.611  0.0673  1.4173 -1.0354
 3255SOL    HW216627   9.947   8.969  11.556  1.0036  1.6605  1.3471
 3256SOL     OW16628   3.572   2.658   4.653 -0.6048 -0.7339 -0.1868
 3256SOL    HW116629   3.553   2.724   4.586 -0.5318 -0.1227  0.3829
 3256SOL    HW216630   3.644   2.695   4.703 -0.5634 -1.2502  0.1420
 3257SOL     OW16631   8.464   1.737   0.355 -0.1298 -0.5482  0.1610
 3257SOL    HW116632   8.405   1.812   0.365  1.5277  1.1021 -1.6897
 3257SOL    HW216633   8.533   1.752   0.419 -0.1713 -0.8971  0.2888
 3258SOL     OW16634   2.763   1.131  10.788 -0.1678 -0.3165 -0.0885
 3258SOL    HW116635   2.831   1.100  10.848  1.8093  2.3072 -0.7344
 3258SOL    HW216636   2.780   1.085  10.706  2.9507  2.2784 -1.1521
 3259SOL     OW16637   1.752   5.100  11.670  0.1129  0.2897  0.1322
 3259SOL    HW116638   1.749   5.128  11.578 -0.4841 -1.7237 -0.5299
 3259SOL    HW216639   1.677   5.143  11.710  1.4230  2.6614  0.1935
 3260SOL     OW16640   2.624  11.015   9.860  0.0634  0.1161 -0.5708
 3260SOL    HW116641   2.557  10.952   9.833  0.0487  0.0302 -0.3352
 3260SOL    HW216642   2.700  10.993   9.807  0.4398 -0.8698  0.3482
 3261SOL     OW16643   3.897   6.290  12.298  0.1695 -0.2914  0.1856
 3261SOL    HW116644   3.938   6.292  12.384  0.1154  1.2966  0.2043
 3261SOL    HW216645   3.849   6.207  12.296  1.0157 -0.8318  1.2683
 3262SOL     OW16646   5.179  10.004   1.558 -0.2834  0.1518 -0.1452
 3262SOL    HW116647   5.228   9.982   1.637  0.5296  1.5016 -0.2408
 3262SOL    HW216648   5.217   9.948   1.490  0.9184  0.8891 -0.1295
 3263SOL     OW16649   1.629  12.016  12.260 -0.1975 -0.6489  0.2603
 3263SOL    HW116650   1.713  11.977  12.286 -0.4413  0.2110  2.5992
 3263SOL    HW216651   1.641  12.110  12.271 -1.4166 -0.5010  0.5464
 3264SOL     OW16652  11.970  11.222   9.298  0.2194  0.5535 -0.3205
 3264SOL    HW116653  12.060  11.192   9.282 -0.1611 -1.2496  0.7160
 3264SOL    HW216654  11.927  11.211   9.213  0.6205  0.0950 -0.4726
 3265SOL     OW16655   6.424   2.737  10.190 -0.1378 -0.6497 -0.2873
 3265SOL    HW116656   6.493   2.685  10.147  0.5944  0.7488 -0.8582
 3265SOL    HW216657   6.343   2.692  10.168  0.2583 -0.2861 -2.7649
 3266SOL     OW16658   7.204   4.420  12.241 -0.0126  0.5648  0.5254
 3266SOL    HW116659   7.113   4.391  12.232 -0.2115  0.5839  2.1681
 3266SOL    HW216660   7.215   4.485  12.171 -1.0794  0.1654 -0.0405
 3267SOL     OW16661   5.704  10.187   9.388  0.3484 -0.5474  0.0498
 3267SOL    HW116662   5.744  10.144   9.312  1.6251 -1.9688  1.4425
 3267SOL    HW216663   5.610  10.171   9.378  0.3088  0.6496 -1.9928
 3268SOL     OW16664   4.536   2.971   3.647  0.2228 -0.4000 -0.1709
 3268SOL    HW116665   4.504   3.013   3.567 -1.7794 -0.2123  0.6623
 3268SOL    HW216666   4.544   3.043   3.710  0.8665 -0.6778  0.0759
 3269SOL     OW16667   1.484   5.707   8.198  0.0996  0.1494  0.1030
 3269SOL    HW116668   1.480   5.611   8.199  0.3143  0.1126 -1.0527
 3269SOL    HW216669   1.392   5.735   8.198  0.0350 -0.0386  0.6050
 3270SOL     OW16670   0.436   5.662   9.160  0.1399  0.2478 -0.7935
 3270SOL    HW116671   0.347   5.679   9.191 -0.8598 -2.0238 -2.2016
 3270SOL    HW216672   0.447   5.720   9.085 -0.2198  0.3928 -0.7374
 3271SOL     OW16673  12.409   7.799   4.878 -0.6044 -0.3159 -0.0200
 3271SOL    HW116674  12.466   7.875   4.868 -0.1986 -0.4284  1.2543
 3271SOL    HW216675  12.418   7.750   4.796  1.3122 -0.4496  0.2377
 3272SOL     OW16676   3.513   3.405  12.276  0.6283  0.6888  0.3494
 3272SOL    HW116677   3.553   3.396  12.190 -0.1063 -0.4149  0.1032
 3272SOL    HW216678   3.481   3.495  12.278 -0.3990  0.3812 -1.0046
 3273SOL     OW16679  11.111   7.633   2.290 -0.0737 -0.4951  0.2953
 3273SOL    HW116680  11.184   7.679   2.247  1.1902 -0.7865  2.0459
 3273SOL    HW216681  11.055   7.703   2.323 -0.3625 -0.2636 -0.6530
 3274SOL     OW16682   6.860   0.874  10.308  0.2784  0.0529  0.0875
 3274SOL    HW116683   6.849   0.936  10.381  0.9944 -0.3918  0.5778
 3274SOL    HW216684   6.813   0.796  10.336  2.6553 -1.0567  1.2308
 3275SOL     OW16685   3.773  11.544   4.816  0.6527 -0.2405 -0.1462
 3275SOL    HW116686   3.820  11.482   4.872  2.8279  1.9954  0.7204
 3275SOL    HW216687   3.842  11.602   4.781 -0.9654  0.2658 -2.8406
 3276SOL     OW16688   9.369   3.620  10.694 -0.4311 -0.3928  0.4883
 3276SOL    HW116689   9.280   3.616  10.728 -0.0662  1.8229  1.8913
 3276SOL    HW216690   9.421   3.566  10.754 -0.7733 -1.7503 -0.3763
 3277SOL     OW16691   4.845   0.633   5.809 -0.0489  0.3179  0.2857
 3277SOL    HW116692   4.853   0.612   5.716  1.6994 -1.2661  0.7116
 3277SOL    HW216693   4.763   0.592   5.836  1.4450 -3.0343  0.2532
 3278SOL     OW16694   8.537   3.212   9.440  0.5160 -0.1128 -0.3687
 3278SOL    HW116695   8.455   3.243   9.401  0.3331  0.4842  0.4746
 3278SOL    HW216696   8.516   3.200   9.532  1.0410 -1.1886 -0.3724
 3279SOL     OW16697   8.736   7.774   3.454  0.2045 -0.2289 -0.2790
 3279SOL    HW116698   8.657   7.828   3.456  1.9216  2.7913 -3.0400
 3279SOL    HW216699   8.777   7.789   3.539 -1.8314 -1.4649  1.0141
 3280SOL     OW16700   4.148   7.994  11.502 -0.3473  0.1962 -0.0249
 3280SOL    HW116701   4.068   8.041  11.482 -0.2760 -0.1743 -1.2803
 3280SOL    HW216702   4.202   8.003  11.423 -0.1875 -1.6498 -0.1797
 3281SOL     OW16703   7.706   3.017   3.133 -0.0831  0.1791  0.0628
 3281SOL    HW116704   7.655   3.096   3.149 -0.4082 -0.0557  0.1995
 3281SOL    HW216705   7.793   3.049   3.107 -1.2897  0.6851 -3.8980
 3282SOL     OW16706   6.878   3.927   1.938  0.7697  0.1507  0.4824
 3282SOL    HW116707   6.889   3.912   1.844  2.6028 -0.8841  0.8028
 3282SOL    HW216708   6.948   3.990   1.960  2.7572 -2.2817  1.6883
 3283SOL     OW16709   5.413   8.186   8.840 -0.4501 -0.4035 -0.1544
 3283SOL    HW116710   5.444   8.143   8.920  0.5435  0.6946  0.0868
 3283SOL    HW216711   5.346   8.247   8.871 -0.4684 -0.3813 -0.2378
 3284SOL     OW16712   7.584  10.604   0.937 -0.1410  0.3138  0.3114
 3284SOL    HW116713   7.652  10.540   0.916 -0.8860 -0.2681 -0.4432
 3284SOL    HW216714   7.551  10.632   0.852 -2.7356 -1.5161  0.5883
 3285SOL     OW16715   8.847   0.261   0.941 -0.4129  0.1093 -0.5231
 3285SOL    HW116716   8.840   0.221   0.854 -2.1820 -0.8377  0.0073
 3285SOL    HW216717   8.898   0.341   0.927  0.3188 -0.6108 -2.2112
 3286SOL     OW16718   3.641   9.172   6.708  0.1267  0.2282  0.5672
 3286SOL    HW116719   3.646   9.241   6.774 -0.5257  0.2654  0.5788
 3286SOL    HW216720   3.719   9.186   6.654 -0.8503  2.0619 -0.4934
 3287SOL     OW16721   3.621  11.944   2.798  0.5105  0.2186  0.2008
 3287SOL    HW116722   3.577  11.950   2.883 -2.7012 -1.7554 -1.0972
 3287SOL    HW216723   3.650  11.853   2.793  1.2960  0.4990 -0.5494
 3288SOL     OW16724   6.525  10.056  10.726 -0.1266  0.1550 -0.5118
 3288SOL    HW116725   6.530  10.102  10.810  1.5698  0.5703 -0.7959
 3288SOL    HW216726   6.580   9.978  10.738 -0.5987 -0.2573 -0.9660
 3289SOL     OW16727  11.211   3.660  11.348  0.1242 -0.4822  0.0432
 3289SOL    HW116728  11.211   3.720  11.273 -0.3108 -1.2693 -0.6194
 3289SOL    HW216729  11.290   3.608  11.337  0.0645 -0.5911  0.1286
 3290SOL     OW16730   9.318  11.297   1.182  0.3012 -0.5537 -0.1454
 3290SOL    HW116731   9.388  11.297   1.247  0.7778  1.3591 -0.5950
 3290SOL    HW216732   9.364  11.297   1.098 -0.2835 -1.2828 -0.4790
 3291SOL     OW16733   6.879  11.763   5.301 -0.6126  0.2608  0.3477
 3291SOL    HW116734   6.845  11.692   5.247 -2.6602  0.1936  1.5847
 3291SOL    HW216735   6.925  11.719   5.373 -1.6976  0.1535  0.9986
 3292SOL     OW16736   3.310   2.726   4.288 -0.0215  0.6429 -0.4558
 3292SOL    HW116737   3.356   2.755   4.367  0.3862 -0.9978 -0.0517
 3292SOL    HW216738   3.249   2.797   4.268 -0.2713  1.0146  1.4538
 3293SOL     OW16739   1.313   5.432   0.507 -0.1084 -0.2229  0.2564
 3293SOL    HW116740   1.352   5.484   0.577  0.3250  0.1354 -0.2412
 3293SOL    HW216741   1.273   5.497   0.449 -1.4393 -0.5769  0.7394
 3294SOL     OW16742   1.041   1.977  10.027  0.3376  0.1552 -0.4158
 3294SOL    HW116743   1.002   2.023   9.953 -0.9892  1.4711  1.0003
 3294SOL    HW216744   1.098   1.911   9.988 -0.3710  0.7399 -2.5772
 3295SOL     OW16745   5.743   3.728  10.100  0.5677 -0.0008 -0.3261
 3295SOL    HW116746   5.743   3.642  10.058  0.5673  0.2187 -0.7823
 3295SOL    HW216747   5.778   3.788  10.033 -0.2281  0.4982 -0.3087
 3296SOL     OW16748   1.195   1.467  10.183  0.6029 -0.1725  0.0813
 3296SOL    HW116749   1.116   1.413  10.191  0.1716  0.4576  0.1605
 3296SOL    HW216750   1.167   1.555  10.209  1.8048 -0.3144  2.0165
 3297SOL     OW16751   7.039   9.107   5.680  0.2275 -0.2376  0.3320
 3297SOL    HW116752   7.016   9.015   5.693 -1.7074 -0.2068 -2.0759
 3297SOL    HW216753   6.979   9.155   5.738  1.4211 -0.4559  1.7893
 3298SOL     OW16754   1.639  10.662   4.902  0.0086 -0.3760  0.3963
 3298SOL    HW116755   1.680  10.583   4.940  0.5810  0.4427  1.5563
 3298SOL    HW216756   1.713  10.713   4.868 -0.3044 -0.0834  0.1523
 3299SOL     OW16757  10.923   6.224   5.604 -0.3243 -0.3403 -0.5628
 3299SOL    HW116758  10.936   6.303   5.551  1.9765  0.2913  0.8064
 3299SOL    HW216759  10.828   6.218   5.615 -0.7408  0.6039 -3.0352
 3300SOL     OW16760   5.960   0.118  10.334 -0.1761 -0.4303  0.4808
 3300SOL    HW116761   6.035   0.143  10.280 -0.7024  0.7894  0.2769
 3300SOL    HW216762   5.930   0.035  10.297 -0.3572  0.2422 -0.9654
 3301SOL     OW16763   4.297  12.018   2.207 -0.1740  0.2802 -0.0334
 3301SOL    HW116764   4.326  12.108   2.197 -1.1601  0.4082 -2.2801
 3301SOL    HW216765   4.363  11.965   2.162 -0.0793 -0.0641  0.4864
 3302SOL     OW16766  10.268   4.967   7.734 -0.1824 -0.3920 -0.4477
 3302SOL    HW116767  10.310   5.015   7.662  1.2936 -0.7013  0.1779
 3302SOL    HW216768  10.331   4.970   7.805 -0.6210 -2.0887  0.0657
 3303SOL     OW16769   5.800  11.544   3.700 -0.0720 -0.1871  0.0859
 3303SOL    HW116770   5.743  11.605   3.747 -0.0012 -1.2610  1.6697
 3303SOL    HW216771   5.852  11.599   3.642 -2.0985  0.9124 -0.7670
 3304SOL     OW16772   7.409   4.213  12.234 -0.5958  0.0990 -0.2397
 3304SOL    HW116773   7.447   4.208  12.147  0.5255 -0.1670  0.2491
 3304SOL    HW216774   7.341   4.280  12.227  0.0697  0.7004 -1.1008
 3305SOL     OW16775   8.956   5.348   4.530  0.3149  0.2160 -0.5058
 3305SOL    HW116776   8.906   5.293   4.470  0.8133 -0.1911 -0.5545
 3305SOL    HW216777   8.957   5.434   4.488 -1.0793  0.4684 -0.0845
 3306SOL     OW16778   6.267   8.933   9.788  0.1917  0.8007 -0.4456
 3306SOL    HW116779   6.216   9.013   9.777 -1.6006 -0.0989  0.7007
 3306SOL    HW216780   6.204   8.863   9.772  1.7124 -0.3968 -1.3807
 3307SOL     OW16781   0.752   4.339   4.192  0.1871  0.3231 -0.0732
 3307SOL    HW116782   0.731   4.388   4.272  4.1775  0.3390  1.1598
 3307SOL    HW216783   0.818   4.392   4.148 -0.2829 -0.8004 -2.3012
 3308SOL     OW16784   7.302   4.015   1.993 -0.3073  0.1177 -0.4556
 3308SOL    HW116785   7.356   4.063   1.931 -1.2692  0.9314 -0.6864
 3308SOL    HW216786   7.300   3.926   1.959 -0.2043  0.3847 -1.1805
 3309SOL     OW16787   9.872   3.789   0.965  0.0398 -0.6408 -0.5331
 3309SOL    HW116788   9.909   3.863   1.013  2.2793 -1.9953 -0.0072
 3309SOL    HW216789   9.917   3.789   0.881  0.4788 -1.6928 -0.3169
 3310SOL     OW16790   3.471   0.043  11.158 -0.2582  0.1988  0.0434
 3310SOL    HW116791   3.495   0.110  11.221 -0.0157  2.1003 -1.9357
 3310SOL    HW216792   3.554  -0.002  11.138 -0.3159 -0.3274  0.9454
 3311SOL     OW16793   8.471   9.748   5.125 -0.0982 -0.0271 -0.4222
 3311SOL    HW116794   8.460   9.662   5.083  0.4673 -0.3360  0.0532
 3311SOL    HW216795   8.565   9.757   5.138 -0.0966  0.9215 -0.9762
 3312SOL     OW16796   1.351   5.608   3.191  0.0865  0.3793  0.2837
 3312SOL    HW116797   1.259   5.621   3.172  0.4686  0.9237 -1.3136
 3312SOL    HW216798   1.355   5.599   3.287 -1.6186  0.1323  0.3561
 3313SOL     OW16799   2.463   6.586   8.014  0.2749 -0.5356 -0.0983
 3313SOL    HW116800   2.488   6.678   8.001  0.2800 -0.4270  0.6166
 3313SOL    HW216801   2.503   6.540   7.941 -0.2254  0.1158 -0.8053
 3314SOL     OW16802   0.304   6.729   7.517 -0.0372  0.3542  0.0894
 3314SOL    HW116803   0.294   6.818   7.483  2.0647  0.4177 -0.4974
 3314SOL    HW216804   0.220   6.687   7.500 -0.5291  1.7440 -1.0877
 3315SOL     OW16805   1.504   4.526  12.203  0.0232 -0.1266 -0.4350
 3315SOL    HW116806   1.537   4.597  12.259  0.0818 -0.6247  0.1798
 3315SOL    HW216807   1.542   4.544  12.117  1.8301 -0.5856  0.2068
 3316SOL     OW16808   9.026   5.970   5.476  0.4281 -0.6907 -0.0367
 3316SOL    HW116809   8.993   5.974   5.566 -1.2376 -2.5820 -0.4875
 3316SOL    HW216810   9.091   5.900   5.478 -0.8195 -1.9100 -0.5989
 3317SOL     OW16811   5.764   3.214   6.120  0.0081 -0.8197  0.3272
 3317SOL    HW116812   5.686   3.269   6.125 -0.1715 -0.9141 -1.0655
 3317SOL    HW216813   5.761   3.161   6.200 -0.8346 -0.1560  0.7534
 3318SOL     OW16814   5.126   5.022  10.740 -0.0651  0.1683  0.4002
 3318SOL    HW116815   5.149   5.067  10.821 -0.1601  0.1700  0.4267
 3318SOL    HW216816   5.033   5.042  10.727  0.5427  2.5031 -1.1551
 3319SOL     OW16817   2.496   8.240   2.346  0.1954  0.2937  0.4456
 3319SOL    HW116818   2.418   8.200   2.309  1.3173 -2.4500  0.8060
 3319SOL    HW216819   2.537   8.286   2.273  0.2875 -1.6343 -0.7963
 3320SOL     OW16820   3.962  12.307   0.564 -0.0106 -0.6550 -0.4988
 3320SOL    HW116821   4.053  12.333   0.581 -0.9513  1.9632  1.1976
 3320SOL    HW216822   3.925  12.381   0.515 -1.4857 -1.2556 -0.3512
 3321SOL     OW16823   5.424   3.285   9.305  0.1986  0.5978 -0.7240
 3321SOL    HW116824   5.330   3.301   9.294  0.5066  1.6091 -2.1337
 3321SOL    HW216825   5.452   3.352   9.368  0.0976  0.6955 -0.7830
 3322SOL     OW16826   5.586   6.446  10.699  0.2393 -0.1644  0.3921
 3322SOL    HW116827   5.498   6.411  10.712 -0.1146  0.5823  0.0402
 3322SOL    HW216828   5.625   6.444  10.787 -0.4749  0.4103  0.7347
 3323SOL     OW16829   4.667   7.316   8.009 -0.5159  0.2415 -0.5449
 3323SOL    HW116830   4.719   7.243   7.974  0.6848  1.9612 -2.5454
 3323SOL    HW216831   4.627   7.356   7.932 -1.6337  1.3640  0.5790
 3324SOL     OW16832   5.425   2.600   9.551 -0.1106  0.0529 -0.2000
 3324SOL    HW116833   5.513   2.616   9.517  0.9435 -1.1612  1.8040
 3324SOL    HW216834   5.404   2.678   9.602 -0.5337  0.6414 -1.2248
 3325SOL     OW16835   6.040  12.370   7.146  0.2155  0.3343  0.0885
 3325SOL    HW116836   6.055  12.433   7.076  0.9816 -1.2420 -1.2019
 3325SOL    HW216837   5.954  12.395   7.182  0.5618  2.1854 -0.2592
 3326SOL     OW16838  11.967   4.964   1.962 -0.3776 -0.3501 -0.6518
 3326SOL    HW116839  12.002   4.962   2.051  0.7269  0.1501 -1.0575
 3326SOL    HW216840  11.966   5.057   1.938 -0.6726 -0.4771 -1.1588
 3327SOL     OW16841   4.281   1.985   2.572 -0.0879  0.5711  0.1906
 3327SOL    HW116842   4.278   1.947   2.485  0.1180  0.1076  0.3819
 3327SOL    HW216843   4.192   1.975   2.607  0.4048 -1.5407  0.9886
 3328SOL     OW16844   9.086  10.580  12.146 -0.2889 -0.1749  0.2427
 3328SOL    HW116845   8.998  10.560  12.115 -0.9956 -0.0956  2.0843
 3328SOL    HW216846   9.119  10.497  12.181 -0.7351  0.3528  2.0422
 3329SOL     OW16847   1.789   3.027   2.092  0.6938 -0.2948  0.2695
 3329SOL    HW116848   1.810   3.053   2.003 -0.3267 -0.8198 -0.1326
 3329SOL    HW216849   1.873   2.996   2.128  1.1169 -0.0327 -0.4727
 3330SOL     OW16850  10.496   5.820  10.574 -0.1890  0.7592  0.1090
 3330SOL    HW116851  10.513   5.763  10.649 -2.0492 -1.2721 -0.9079
 3330SOL    HW216852  10.477   5.906  10.613  1.2051  0.3795  1.7742
 3331SOL     OW16853   9.962   5.546   8.493  0.6181 -0.4932 -0.0453
 3331SOL    HW116854  10.007   5.461   8.492 -0.0552 -0.9420  2.1369
 3331SOL    HW216855   9.869   5.524   8.485  0.5908  0.3250 -2.9041
 3332SOL     OW16856  10.423   4.241   8.816 -0.1435 -0.4042  0.2513
 3332SOL    HW116857  10.482   4.220   8.888  1.1896  0.6216 -0.5121
 3332SOL    HW216858  10.382   4.323   8.842  1.0372  0.4609 -0.5387
 3333SOL     OW16859   8.074   7.367   6.120 -0.0830  0.0776  0.5790
 3333SOL    HW116860   8.059   7.279   6.084  1.5844 -0.0538  0.0961
 3333SOL    HW216861   8.072   7.354   6.214  0.1589 -0.4867  0.5129
 3334SOL     OW16862   0.501   8.881  11.737 -0.3216 -0.0200  0.3049
 3334SOL    HW116863   0.486   8.787  11.739  1.9226 -0.5478 -1.6162
 3334SOL    HW216864   0.433   8.919  11.792 -1.4630 -2.7291  0.8882
 3335SOL     OW16865   6.762   0.040   2.921 -0.4533 -0.5581 -0.3071
 3335SOL    HW116866   6.708   0.069   2.847 -0.7898 -0.3856  0.0066
 3335SOL    HW216867   6.807  -0.038   2.888 -0.5046 -0.4127 -0.7348
 3336SOL     OW16868  10.850   4.704   4.263 -0.1124 -0.2748  0.4293
 3336SOL    HW116869  10.754   4.706   4.265 -0.2268 -2.0352 -0.9273
 3336SOL    HW216870  10.874   4.780   4.211 -0.8250 -0.2464  0.1263
 3337SOL     OW16871  11.741   2.990   8.758  0.1737 -0.3773 -0.4268
 3337SOL    HW116872  11.764   2.904   8.722  1.3325 -0.3421  0.1924
 3337SOL    HW216873  11.787   3.053   8.702 -0.5706 -0.1419 -0.7995
 3338SOL     OW16874   6.028  11.243   4.036  0.1802 -0.6499  0.3751
 3338SOL    HW116875   6.080  11.322   4.051 -1.7993  0.7828  0.1467
 3338SOL    HW216876   5.955  11.273   3.982 -1.3517 -2.3546  1.3990
 3339SOL     OW16877   1.511   2.218   9.219 -0.3255  0.1611  0.1053
 3339SOL    HW116878   1.496   2.134   9.176 -1.9836  0.2739  0.3857
 3339SOL    HW216879   1.602   2.239   9.200 -0.3337 -0.9384 -1.3145
 3340SOL     OW16880   4.059   9.325   8.256  0.1080 -0.0561  0.0726
 3340SOL    HW116881   4.152   9.309   8.240 -0.1974  0.7807 -3.4739
 3340SOL    HW216882   4.056   9.410   8.300  1.0253 -0.6247  1.2741
 3341SOL     OW16883  10.555   4.364   2.843  0.3255  0.2586  0.0937
 3341SOL    HW116884  10.495   4.291   2.861  1.4001 -0.2039  2.0035
 3341SOL    HW216885  10.640   4.322   2.827  0.4600  0.9878 -1.2352
 3342SOL     OW16886   7.797  12.241   0.591  0.1198 -0.0317  0.3560
 3342SOL    HW116887   7.819  12.204   0.505  1.2163 -0.4488  0.8048
 3342SOL    HW216888   7.706  12.269   0.582 -0.6469 -2.4674 -0.1313
 3343SOL     OW16889   6.686   7.929   8.079  0.4209 -0.0245 -0.6884
 3343SOL    HW116890   6.627   7.929   8.003 -0.3807 -1.6603 -0.1279
 3343SOL    HW216891   6.648   7.993   8.139 -0.7124 -0.9124 -0.4215
 3344SOL     OW16892  11.702  11.927  11.633 -0.1929  0.5089  0.0503
 3344SOL    HW116893  11.712  11.898  11.724 -0.1495  2.1290  0.5971
 3344SOL    HW216894  11.790  11.916  11.595  0.2541  1.5193  0.7511
 3345SOL     OW16895   2.276   7.680   6.514 -0.4322 -0.2632  0.5867
 3345SOL    HW116896   2.366   7.649   6.505  0.4711  2.0948  0.5711
 3345SOL    HW216897   2.241   7.676   6.425 -0.0001 -0.2842  0.4151
 3346SOL     OW16898   4.337   4.438   7.219  0.6178  0.5634 -0.6068
 3346SOL    HW116899   4.255   4.444   7.267  0.2678  1.9528 -1.3354
 3346SOL    HW216900   4.370   4.350   7.240  0.0252  0.7548  1.3822
 3347SOL     OW16901   7.743   7.294  10.634 -0.0255  0.1230  0.0458
 3347SOL    HW116902   7.836   7.285  10.655 -0.1128 -0.4336  0.2023
 3347SOL    HW216903   7.708   7.205  10.641 -0.6876  0.4175  0.5338
 3348SOL     OW16904   0.034   3.736   3.217  0.4160 -0.6040 -0.6481
 3348SOL    HW116905   0.120   3.755   3.180  0.5079  0.9716  0.2950
 3348SOL    HW216906  -0.028   3.772   3.154  0.4778 -0.8307 -0.8379
 3349SOL     OW16907   7.104  12.362   9.003 -0.6495 -0.3293  0.3068
 3349SOL    HW116908   7.078  12.408   9.083  0.0731 -1.7266  1.3912
 3349SOL    HW216909   7.118  12.271   9.031 -0.2503 -0.8284 -1.3905
 3350SOL     OW16910   0.591   3.042   4.724  0.1178  0.1284  0.2133
 3350SOL    HW116911   0.508   3.060   4.680  0.0034 -1.7174 -0.4192
 3350SOL    HW216912   0.654   3.099   4.681 -0.2829 -0.5517 -1.3334
 3351SOL     OW16913   3.882   6.376   0.965  0.5905  0.2683 -0.3348
 3351SOL    HW116914   3.816   6.317   0.928  0.7326 -0.0385 -0.1062
 3351SOL    HW216915   3.914   6.426   0.890 -0.1314  0.6476 -0.3971
 3352SOL     OW16916  11.959   9.468  11.953 -0.4403  0.2800 -0.1806
 3352SOL    HW116917  12.001   9.382  11.961 -2.2100 -1.2102 -4.3397
 3352SOL    HW216918  11.874   9.458  11.995  0.6194  1.2768  2.4496
 3353SOL     OW16919   7.950   7.876   2.781  0.4201  0.2666 -0.2030
 3353SOL    HW116920   7.869   7.889   2.830  1.5726 -0.8242  2.1734
 3353SOL    HW216921   7.928   7.900   2.691 -2.1144  1.3738  0.6257
 3354SOL     OW16922  10.452   9.930   3.014 -0.1294  0.3546  0.2510
 3354SOL    HW116923  10.424   9.886   2.934 -0.2737 -0.6347  0.8176
 3354SOL    HW216924  10.455   9.860   3.080 -0.8842  1.2991  1.3249
 3355SOL     OW16925   9.808   5.030  10.701 -0.0489 -0.0740 -0.5837
 3355SOL    HW116926   9.793   5.083  10.780 -3.2794 -0.3312 -0.8904
 3355SOL    HW216927   9.824   4.942  10.734 -0.8748 -0.0857 -0.2035
 3356SOL     OW16928   0.528   5.001   6.280  0.2714 -0.4185  0.0763
 3356SOL    HW116929   0.447   5.046   6.305 -0.8774 -2.6481  0.6641
 3356SOL    HW216930   0.505   4.950   6.203  1.1337 -1.0159  0.1982
 3357SOL     OW16931   7.429   2.000   2.336 -0.1127 -0.2470 -0.3496
 3357SOL    HW116932   7.486   1.940   2.384  0.3591 -0.7305 -1.4942
 3357SOL    HW216933   7.484   2.036   2.267 -0.9170  0.0447 -0.8566
 3358SOL     OW16934   0.686   2.803   8.918 -0.1029 -0.1230  0.3569
 3358SOL    HW116935   0.629   2.813   8.842  1.6953  0.7292 -0.9621
 3358SOL    HW216936   0.680   2.886   8.964  0.0340 -0.0375  0.2240
 3359SOL     OW16937   7.289   1.577   7.714 -0.0207 -0.1982 -0.2022
 3359SOL    HW116938   7.261   1.492   7.747  1.8002 -0.4637  0.8007
 3359SOL    HW216939   7.308   1.628   7.793  2.9835 -0.3241 -0.7292
 3360SOL     OW16940   7.952   4.420   4.556 -0.1479  0.6576  0.4200
 3360SOL    HW116941   8.017   4.383   4.496  0.8152  2.3951  0.3209
 3360SOL    HW216942   7.903   4.482   4.503 -0.0197  1.4064  1.1621
 3361SOL     OW16943   2.146   6.401   8.531  0.5336 -0.1609 -0.3277
 3361SOL    HW116944   2.097   6.329   8.491  1.2124 -1.0625  0.4293
 3361SOL    HW216945   2.223   6.360   8.569  0.4682  0.8213  0.9460
 3362SOL     OW16946   4.031   4.356   0.183  0.3372  0.0489 -0.0674
 3362SOL    HW116947   3.944   4.395   0.192  0.3664 -0.0526  0.7181
 3362SOL    HW216948   4.018   4.263   0.202  0.6519  0.0685  0.2424
 3363SOL     OW16949   5.140   8.606   3.614 -0.5495 -0.4321 -0.4249
 3363SOL    HW116950   5.150   8.615   3.520 -1.8301 -1.8524 -0.7309
 3363SOL    HW216951   5.054   8.567   3.626 -1.4231  1.8382  1.4885
 3364SOL     OW16952   2.793   8.450   7.038  0.3626 -0.4144  0.4580
 3364SOL    HW116953   2.775   8.363   7.074 -0.9490 -0.0032  0.8714
 3364SOL    HW216954   2.767   8.511   7.107  1.6427  0.3145  0.3315
 3365SOL     OW16955   4.035   4.088   6.703  0.3617  0.1554 -0.5212
 3365SOL    HW116956   4.083   4.170   6.692 -0.5443  0.7904  0.0935
 3365SOL    HW216957   3.951   4.104   6.660  0.1361 -0.4118 -0.2922
 3366SOL     OW16958   7.924  11.495  11.369 -0.1302  0.0080  0.2744
 3366SOL    HW116959   7.930  11.564  11.303 -2.4547 -0.8133 -0.8889
 3366SOL    HW216960   8.013  11.461  11.376  0.3393  0.6288 -1.9066
 3367SOL     OW16961   5.061  10.125   8.656 -0.1053  0.2896  0.3133
 3367SOL    HW116962   5.060  10.217   8.679 -1.9188 -0.2687  2.9554
 3367SOL    HW216963   5.067  10.124   8.560  3.0361  2.9946  0.3383
 3368SOL     OW16964   7.802   5.110   3.911  0.1819 -0.0801  0.0542
 3368SOL    HW116965   7.852   5.126   3.831  0.4640 -0.3104  0.1816
 3368SOL    HW216966   7.721   5.070   3.882  0.9393 -1.6419 -0.0122
 3369SOL     OW16967  10.154   6.657  11.921  0.3730  0.0947 -0.3327
 3369SOL    HW116968  10.223   6.605  11.961 -0.5458 -1.5253 -0.7293
 3369SOL    HW216969  10.184   6.673  11.832  1.0749  1.0726  0.0705
 3370SOL     OW16970   9.540   1.566   0.583  0.5739  0.1222  0.1875
 3370SOL    HW116971   9.609   1.545   0.646  0.6186  0.4689  0.2516
 3370SOL    HW216972   9.479   1.621   0.631  0.2077 -0.2552  0.1549
 3371SOL     OW16973  10.000   2.358   1.178 -0.2292 -0.3274  0.6079
 3371SOL    HW116974  10.032   2.448   1.186  0.7309 -0.2837 -2.3952
 3371SOL    HW216975  10.058   2.307   1.235  1.1862  0.6017  0.0676
 3372SOL     OW16976   2.948   2.612   2.252  0.4781  0.4603 -0.2178
 3372SOL    HW116977   2.944   2.706   2.271  0.5016  0.4608 -0.2145
 3372SOL    HW216978   2.891   2.600   2.176  0.5664  0.4960 -0.2896
 3373SOL     OW16979   3.899   8.694   9.441 -0.2476  0.5909  0.2733
 3373SOL    HW116980   3.993   8.682   9.452  0.1548  0.8082 -2.2310
 3373SOL    HW216981   3.862   8.607   9.453  0.4468  0.2364 -0.0973
 3374SOL     OW16982   1.396   9.011   6.646  0.5677 -0.1120 -0.2147
 3374SOL    HW116983   1.399   9.031   6.740 -1.2048 -1.1720  0.1255
 3374SOL    HW216984   1.433   8.923   6.639 -1.1459 -0.8977 -0.1463
 3375SOL     OW16985   2.494   2.596  11.641 -0.1719 -0.0000  0.1793
 3375SOL    HW116986   2.470   2.574  11.731 -0.7894 -0.8492 -0.1780
 3375SOL    HW216987   2.411   2.604  11.595  0.1555 -0.2631 -0.4745
 3376SOL     OW16988   5.683   0.659   5.938 -0.3266  0.3054 -0.2585
 3376SOL    HW116989   5.626   0.681   6.011  0.1171 -1.0521  0.5330
 3376SOL    HW216990   5.771   0.683   5.968 -0.1234 -0.4028 -0.2593
 3377SOL     OW16991   5.570   0.192   5.559 -0.1661 -0.0911 -0.2874
 3377SOL    HW116992   5.578   0.261   5.625 -1.0731 -1.2148  1.0203
 3377SOL    HW216993   5.502   0.134   5.592  0.3635 -1.4712 -1.5138
 3378SOL     OW16994   6.482   9.366   0.968  0.2025  0.1854  0.1943
 3378SOL    HW116995   6.549   9.372   1.037 -0.1336  1.2663  0.4479
 3378SOL    HW216996   6.399   9.377   1.015  0.0205  2.1334 -0.4888
 3379SOL     OW16997  10.566   1.197   8.995  0.1939 -0.6001 -0.2088
 3379SOL    HW116998  10.570   1.279   8.946  2.2606 -0.6181 -0.1676
 3379SOL    HW216999  10.565   1.129   8.927 -1.3711 -0.5608 -0.2416
 3380SOL     OW17000  11.590   0.624  11.334  0.1574 -0.2245  0.1362
 3380SOL    HW117001  11.608   0.542  11.288 -1.1480 -1.4002  1.6208
 3380SOL    HW217002  11.656   0.685  11.301  1.4450 -1.9800 -0.6748
 3381SOL     OW17003   4.810   2.046   5.730 -0.4076 -0.1325  0.0875
 3381SOL    HW117004   4.849   2.131   5.751 -0.2491 -0.1753 -0.0287
 3381SOL    HW217005   4.758   2.062   5.652  1.7150 -0.6772 -1.5572
 3382SOL     OW17006   0.861   7.686   1.503  0.2332  0.2670  0.4336
 3382SOL    HW117007   0.884   7.747   1.433  1.0010  0.0308  0.4744
 3382SOL    HW217008   0.828   7.742   1.573  1.6003  0.7182  0.7423
 3383SOL     OW17009  10.336   9.626   2.544 -0.0364  0.0237 -0.1127
 3383SOL    HW117010  10.289   9.704   2.514 -1.9500 -0.1567  2.0896
 3383SOL    HW217011  10.267   9.562   2.563  1.4848 -2.3268 -1.9678
 3384SOL     OW17012   1.898   8.844  10.853 -0.0870 -0.0954  0.0635
 3384SOL    HW117013   1.853   8.760  10.865 -0.7533  0.4836  1.9630
 3384SOL    HW217014   1.929   8.867  10.941 -1.6157  2.5789 -0.0084
 3385SOL     OW17015   1.437  11.638   7.995 -0.1530  0.2389  0.6534
 3385SOL    HW117016   1.490  11.716   8.008  0.9797 -0.4407  0.2456
 3385SOL    HW217017   1.352  11.660   8.033 -0.5759  2.4613 -1.3019
 3386SOL     OW17018   4.204   2.577   0.953 -0.6533  0.4800  0.2205
 3386SOL    HW117019   4.296   2.578   0.928 -1.0155  1.4355 -1.2084
 3386SOL    HW217020   4.161   2.632   0.888 -2.1775  0.4046  1.1117
 3387SOL     OW17021   4.494   1.276   8.469 -0.2360  0.0662 -0.1326
 3387SOL    HW117022   4.552   1.277   8.546  0.1619 -3.7834 -0.2109
 3387SOL    HW217023   4.410   1.247   8.503  0.0041 -1.9053 -1.0904
 3388SOL     OW17024   4.698   8.790   6.459  0.0003  0.4303  0.2729
 3388SOL    HW117025   4.653   8.874   6.448 -1.3215 -0.4144 -1.2144
 3388SOL    HW217026   4.652   8.731   6.400  1.3184 -1.1960  0.8115
 3389SOL     OW17027   4.229  11.287   1.860 -0.1838 -0.4976  0.0056
 3389SOL    HW117028   4.210  11.350   1.930 -2.4842  0.6560 -1.5391
 3389SOL    HW217029   4.264  11.341   1.789 -0.7273 -1.1875 -0.7942
 3390SOL     OW17030  11.454  10.478   6.492 -0.4426  0.1769 -0.1859
 3390SOL    HW117031  11.361  10.458   6.480 -0.5082 -0.4946  1.1939
 3390SOL    HW217032  11.457  10.522   6.578  0.5269  0.1229 -0.1845
 3391SOL     OW17033  12.215   4.876   4.149 -0.0882  0.1841 -0.4007
 3391SOL    HW117034  12.223   4.795   4.200  1.5240  0.7820  0.3781
 3391SOL    HW217035  12.297   4.881   4.101 -0.3416  1.1595 -0.7426
 3392SOL     OW17036   6.468   2.929   2.406 -0.4366 -0.1609 -0.4503
 3392SOL    HW117037   6.438   3.014   2.373 -1.3219 -0.7347 -1.1865
 3392SOL    HW217038   6.508   2.886   2.330  1.5510  0.2343  0.3043
 3393SOL     OW17039   2.556   5.325  10.578 -0.1873  0.4411 -0.1738
 3393SOL    HW117040   2.577   5.275  10.499  0.3377  2.8623 -1.7003
 3393SOL    HW217041   2.471   5.366  10.558 -0.0255  1.1230  0.4866
 3394SOL     OW17042   0.835   6.680   5.894  0.4632  0.3105  0.3421
 3394SOL    HW117043   0.787   6.611   5.850 -0.5644 -0.0570  1.9594
 3394SOL    HW217044   0.780   6.758   5.884 -0.0237  0.1158  1.3283
 3395SOL     OW17045  11.951   4.777   4.283  0.3152  0.1870 -0.0125
 3395SOL    HW117046  11.861   4.786   4.314 -0.4865 -0.8840 -1.8293
 3395SOL    HW217047  11.962   4.848   4.219  0.4810 -0.1287 -0.3433
 3396SOL     OW17048   0.300   3.643   5.962 -0.0477  0.5758  0.1781
 3396SOL    HW117049   0.363   3.582   5.999  0.5642 -0.0630 -1.7766
 3396SOL    HW217050   0.215   3.605   5.981  0.2856 -0.2258  0.1094
 3397SOL     OW17051  12.376   3.878  10.878  0.5700 -0.0673 -0.1533
 3397SOL    HW117052  12.335   3.804  10.833  3.2153 -1.0193 -1.2119
 3397SOL    HW217053  12.468   3.853  10.886  1.8520  3.5436 -1.5537
 3398SOL     OW17054   3.344   6.327  11.774  0.0598  0.3242  0.2859
 3398SOL    HW117055   3.331   6.233  11.762  2.4178  0.0131 -0.4415
 3398SOL    HW217056   3.259   6.366  11.755 -0.4147 -1.4913 -1.6745
 3399SOL     OW17057   8.527   5.805   9.276 -1.0221  0.2242  0.5537
 3399SOL    HW117058   8.585   5.880   9.288 -1.2811  0.4105  0.6487
 3399SOL    HW217059   8.456   5.837   9.221 -0.8939 -0.0798  0.2068
 3400SOL     OW17060   0.972   9.925   0.441 -0.3885  0.3477 -0.2011
 3400SOL    HW117061   0.917   9.909   0.364  0.9630 -0.4862 -1.0405
 3400SOL    HW217062   1.060   9.935   0.406  0.1501  0.7508  1.1861
 3401SOL     OW17063   8.668   2.317   6.369  0.0801  0.5078 -0.3057
 3401SOL    HW117064   8.719   2.239   6.344  0.9680  1.0180 -0.1305
 3401SOL    HW217065   8.727   2.390   6.351 -0.6897  1.1321 -0.3143
 3402SOL     OW17066   6.481   1.102  12.297  0.2864 -0.3285  0.3030
 3402SOL    HW117067   6.524   1.084  12.214  1.3267 -1.4032  1.0448
 3402SOL    HW217068   6.550   1.135  12.354 -0.3751  0.2258  0.8001
 3403SOL     OW17069   3.481   8.036  11.909  0.1147 -0.1895  0.5918
 3403SOL    HW117070   3.488   7.945  11.880 -1.6168  0.0922 -0.9354
 3403SOL    HW217071   3.505   8.034  12.002  1.1622 -1.9960  0.3269
 3404SOL     OW17072   6.429   3.641   0.437 -0.9339 -0.3598 -0.1433
 3404SOL    HW117073   6.353   3.640   0.495 -1.0197  1.7215 -0.1352
 3404SOL    HW217074   6.495   3.588   0.483 -1.7821 -0.7033  0.7143
 3405SOL     OW17075  10.298   0.878   2.302 -0.4465 -0.3096 -0.3042
 3405SOL    HW117076  10.288   0.798   2.353  0.5597 -0.2841 -0.0522
 3405SOL    HW217077  10.208   0.906   2.284 -0.8782  0.3010  2.4175
 3406SOL     OW17078   7.843   6.204   6.470 -0.5627  0.0195  0.8390
 3406SOL    HW117079   7.902   6.129   6.472 -0.8960 -0.2371  1.2050
 3406SOL    HW217080   7.806   6.203   6.382 -0.1502  0.0823  0.6638
 3407SOL     OW17081   9.794   1.919   3.297 -0.6444 -0.2919  0.0842
 3407SOL    HW117082   9.797   1.918   3.201  3.0927 -0.9941  0.0658
 3407SOL    HW217083   9.766   1.830   3.320  1.5258 -1.2034 -0.4820
 3408SOL     OW17084  12.107   4.756  12.450  0.5319 -0.1574 -0.1796
 3408SOL    HW117085  12.081   4.838  12.493  0.3829 -0.1435 -0.2929
 3408SOL    HW217086  12.041   4.744  12.381  0.6374 -0.2982 -0.2550
 3409SOL     OW17087   8.432  10.860   6.710  0.1097  0.1513  0.0461
 3409SOL    HW117088   8.469  10.793   6.652 -0.9346 -1.7616  1.4551
 3409SOL    HW217089   8.498  10.870   6.779 -0.5910 -0.9770  0.9130
 3410SOL     OW17090   3.430   1.667   0.897  0.4168 -0.1922  0.6187
 3410SOL    HW117091   3.520   1.640   0.916  0.6284  0.5965  0.7776
 3410SOL    HW217092   3.379   1.586   0.901  1.0906 -0.6167  0.7151
 3411SOL     OW17093   2.486   3.508   5.255  0.3994 -0.4003  0.4115
 3411SOL    HW117094   2.433   3.475   5.183  0.0781 -2.4917  1.5548
 3411SOL    HW217095   2.423   3.551   5.313  0.1107 -1.7085  1.1016
 3412SOL     OW17096   6.154  10.502   4.932 -0.1244  0.3084 -0.3942
 3412SOL    HW117097   6.140  10.491   4.838 -0.6253  0.5993 -0.3584
 3412SOL    HW217098   6.120  10.422   4.971  0.7970 -0.1498 -0.5179
 3413SOL     OW17099   2.353   9.416   3.915 -0.2514 -0.0348 -0.3410
 3413SOL    HW117100   2.266   9.380   3.895 -0.0951 -0.7936  0.2643
 3413SOL    HW217101   2.413   9.343   3.899 -0.0924 -0.6807  2.6128
 3414SOL     OW17102   2.567   7.601  10.676 -0.1273 -0.4289  0.2102
 3414SOL    HW117103   2.582   7.542  10.750 -3.5954 -0.8748  0.7426
 3414SOL    HW217104   2.560   7.688  10.716  0.8939 -0.2302 -0.0233
 3415SOL     OW17105   4.515  11.556   0.284  0.3076 -0.5176  0.0788
 3415SOL    HW117106   4.521  11.647   0.255  1.8625 -1.2012 -2.0262
 3415SOL    HW217107   4.465  11.512   0.214  0.3268 -1.4429  0.6313
 3416SOL     OW17108   3.500   3.822  11.296 -0.0054 -0.0392  0.0936
 3416SOL    HW117109   3.468   3.910  11.314 -0.0901  0.0660 -0.5618
 3416SOL    HW217110   3.461   3.799  11.212 -0.7569 -1.0677  0.6876
 3417SOL     OW17111   6.820   5.278   6.182  0.0038  0.0484 -0.3716
 3417SOL    HW117112   6.785   5.332   6.111 -1.5957  1.2368  1.2167
 3417SOL    HW217113   6.894   5.329   6.216  2.2118 -1.5360 -2.4539
 3418SOL     OW17114   4.539   8.093   3.210  0.7610 -0.0752 -0.2924
 3418SOL    HW117115   4.609   8.061   3.153  1.4583  1.4908 -0.3570
 3418SOL    HW217116   4.478   8.137   3.150 -0.3396 -1.4796 -0.2447
 3419SOL     OW17117   8.343   3.891  12.425  0.6043 -0.4999  0.8170
 3419SOL    HW117118   8.313   3.934  12.345 -1.3215  1.3636  2.4277
 3419SOL    HW217119   8.379   3.807  12.395 -1.7423 -0.7030 -1.8372
 3420SOL     OW17120   4.946   7.496  11.425  0.1647  0.0510 -0.6309
 3420SOL    HW117121   4.886   7.507  11.352  0.3186  1.1111 -0.6017
 3420SOL    HW217122   4.913   7.553  11.493  0.5046 -0.2952 -0.1658
 3421SOL     OW17123  11.797   5.388  10.005  0.1779  0.0237  0.0371
 3421SOL    HW117124  11.763   5.344  10.084  1.1894  0.3233  0.6508
 3421SOL    HW217125  11.852   5.322   9.964  0.5502  0.2413  0.1869
 3422SOL     OW17126   9.687   6.478   5.472  0.0642 -0.4097 -0.1471
 3422SOL    HW117127   9.667   6.513   5.386  1.5921  1.3710  0.1645
 3422SOL    HW217128   9.606   6.489   5.522 -0.4844 -0.4084 -1.0213
 3423SOL     OW17129  12.107   8.549   6.974  0.0211 -0.0891  0.1181
 3423SOL    HW117130  12.085   8.539   6.881 -0.8282 -1.0569  0.4121
 3423SOL    HW217131  12.170   8.479   6.991 -2.3685 -2.1686  1.0423
 3424SOL     OW17132   5.149   7.497   1.114 -0.1856 -0.0845 -0.1811
 3424SOL    HW117133   5.244   7.492   1.121  0.0928  1.2950 -2.1158
 3424SOL    HW217134   5.133   7.573   1.058 -2.4495 -0.1855  0.2152
 3425SOL     OW17135   7.193   6.952   2.695 -0.5240 -0.5951 -0.2333
 3425SOL    HW117136   7.162   6.990   2.613  0.3629  0.5972 -0.0410
 3425SOL    HW217137   7.287   6.941   2.683  0.1267  2.0445  1.4784
 3426SOL     OW17138   6.131  12.015  11.074 -0.2282  0.0282 -0.3664
 3426SOL    HW117139   6.109  11.923  11.058  1.8565 -0.8105  1.1746
 3426SOL    HW217140   6.129  12.024  11.170  1.9906  0.9196 -0.3547
 3427SOL     OW17141   2.825  10.121   4.531 -0.3822 -0.9321 -0.3964
 3427SOL    HW117142   2.887  10.189   4.556 -1.0435 -0.2465 -0.5636
 3427SOL    HW217143   2.755  10.127   4.596 -0.2954 -1.6734 -0.2262
 3428SOL     OW17144   3.203  10.515   3.021 -0.1525  0.4076 -0.0594
 3428SOL    HW117145   3.212  10.453   3.093 -1.1337  0.7790  0.3910
 3428SOL    HW217146   3.293  10.526   2.989 -0.0278 -1.7393 -0.6030
 3429SOL     OW17147   3.258   6.271   0.797 -0.0892 -0.0782 -0.3182
 3429SOL    HW117148   3.312   6.346   0.771 -0.2744 -0.4412 -1.8882
 3429SOL    HW217149   3.206   6.303   0.871 -1.0126  1.7467 -1.6623
 3430SOL     OW17150   1.592   5.023   4.665 -0.3350 -0.4702  0.5167
 3430SOL    HW117151   1.620   5.027   4.574 -0.1697  0.4718  0.5968
 3430SOL    HW217152   1.523   4.957   4.666 -0.6453 -0.1799 -0.3772
 3431SOL     OW17153   9.068   6.468   2.530 -0.0024  0.2609 -0.0637
 3431SOL    HW117154   9.033   6.396   2.477  0.1481 -0.7901  1.2124
 3431SOL    HW217155   9.149   6.434   2.567 -0.1086  0.9530  0.8478
 3432SOL     OW17156   8.269   6.476  11.014 -0.5233  0.1847  0.6358
 3432SOL    HW117157   8.343   6.494  11.072  1.0133 -0.3363 -1.0381
 3432SOL    HW217158   8.208   6.426  11.067  1.0862 -0.7843  1.6638
 3433SOL     OW17159   9.266   1.659   3.302 -0.4762  0.0569 -0.2933
 3433SOL    HW117160   9.259   1.565   3.317  0.2471 -0.2349 -1.6922
 3433SOL    HW217161   9.261   1.697   3.390 -2.5627 -1.1430  0.1888
 3434SOL     OW17162   7.937  11.859   4.049 -0.2793 -0.0791 -0.1768
 3434SOL    HW117163   7.975  11.880   4.134 -0.0676  0.2565 -0.3525
 3434SOL    HW217164   8.012  11.832   3.996 -0.2886  0.5724 -0.5222
 3435SOL     OW17165   1.776   9.660   1.136 -0.0307  0.4449 -0.0388
 3435SOL    HW117166   1.746   9.723   1.201  0.2897 -0.0999  0.6589
 3435SOL    HW217167   1.696   9.623   1.099 -0.2345  1.8375 -1.0526
 3436SOL     OW17168   2.053   5.093   6.860  0.0256 -0.2007 -0.4758
 3436SOL    HW117169   1.992   5.019   6.868  1.5594 -1.6718 -1.5613
 3436SOL    HW217170   2.103   5.074   6.780  1.0019  1.6304 -0.3521
 3437SOL     OW17171   9.403   3.238  10.328 -0.8103 -0.4074 -0.0549
 3437SOL    HW117172   9.478   3.193  10.289 -1.2209  0.5734 -2.1261
 3437SOL    HW217173   9.326   3.191  10.295 -1.1719 -0.8203  1.2877
 3438SOL     OW17174   5.534   4.395   8.348 -0.2734 -0.4303 -0.3580
 3438SOL    HW117175   5.559   4.319   8.401 -0.7334 -1.3225 -1.3829
 3438SOL    HW217176   5.559   4.471   8.401 -0.6626 -1.2902  1.1075
 3439SOL     OW17177   9.855   4.640   6.172  0.1752 -0.1696  0.1719
 3439SOL    HW117178   9.809   4.564   6.136 -3.5012 -0.1079  3.8581
 3439SOL    HW217179   9.808   4.716   6.138 -0.1739  0.0954  1.2017
 3440SOL     OW17180   2.633   9.682  10.008 -0.0761  0.2521  0.0013
 3440SOL    HW117181   2.616   9.635   9.926 -0.4145  0.5191 -0.0857
 3440SOL    HW217182   2.573   9.757  10.006  0.3304  0.5911  0.2200
 3441SOL     OW17183   7.110   1.863   1.461 -0.0143 -0.1712 -0.0165
 3441SOL    HW117184   7.037   1.805   1.479  0.3021 -0.1565  1.4575
 3441SOL    HW217185   7.149   1.880   1.547  0.6195  1.2628 -0.5518
 3442SOL     OW17186   4.584   7.785  12.040 -0.5277  0.2558 -0.4896
 3442SOL    HW117187   4.510   7.724  12.048 -1.3306  1.3134  0.4438
 3442SOL    HW217188   4.545   7.867  12.010  0.3011  0.7730 -0.1949
 3443SOL     OW17189   7.917   1.615   8.820 -0.8736 -0.0970  0.3949
 3443SOL    HW117190   7.952   1.566   8.746 -0.0790  1.0855 -0.0281
 3443SOL    HW217191   7.973   1.591   8.894  0.6179  1.4413 -0.1793
 3444SOL     OW17192   8.254   6.691  10.859  0.4981 -0.6529  0.0704
 3444SOL    HW117193   8.308   6.745  10.917 -0.0278 -0.6358  0.5540
 3444SOL    HW217194   8.247   6.608  10.905 -0.3602 -0.4672  0.2978
 3445SOL     OW17195   2.203   5.061   8.444  0.2729  0.3405 -0.5102
 3445SOL    HW117196   2.123   5.027   8.483  1.9141 -1.1609  1.8359
 3445SOL    HW217197   2.221   5.003   8.370  0.9059 -1.5458  1.0265
 3446SOL     OW17198   5.369   8.888   6.484  0.1086  0.3411 -0.5686
 3446SOL    HW117199   5.394   8.966   6.435 -0.2993 -0.1725 -1.6452
 3446SOL    HW217200   5.360   8.820   6.417  2.1582 -1.0873  0.5199
 3447SOL     OW17201   2.326   9.136   8.339 -0.6268  0.0774  0.3617
 3447SOL    HW117202   2.274   9.212   8.315  0.4208  0.1111 -2.0683
 3447SOL    HW217203   2.270   9.061   8.319 -0.2170  0.1475 -1.2202
 3448SOL     OW17204   8.728  10.887   2.241  0.3494  0.5271 -0.0056
 3448SOL    HW117205   8.712  10.877   2.335  0.0268  1.0562 -0.0018
 3448SOL    HW217206   8.822  10.870   2.231  0.3599  0.3388  0.3946
 3449SOL     OW17207   5.621   6.738   4.234 -0.1874  0.2489  0.6468
 3449SOL    HW117208   5.666   6.798   4.175  0.3642  0.0923  0.8974
 3449SOL    HW217209   5.534   6.727   4.196  0.3774 -0.4072 -0.5318
 3450SOL     OW17210  10.220   7.702   8.834 -0.2013 -0.5513 -0.5192
 3450SOL    HW117211  10.198   7.674   8.745 -1.2914 -0.3118 -0.3433
 3450SOL    HW217212  10.268   7.783   8.823 -0.6890 -0.3090 -0.8847
 3451SOL     OW17213   7.486  11.604   8.093 -0.6638  0.1312 -0.0805
 3451SOL    HW117214   7.547  11.638   8.159 -1.1196 -1.8106  1.4358
 3451SOL    HW217215   7.450  11.682   8.051 -0.5700  1.4787  2.1915
 3452SOL     OW17216   6.141   2.613  12.412 -0.1501  0.0756  0.3039
 3452SOL    HW117217   6.217   2.560  12.390 -1.4851 -2.0464  0.4281
 3452SOL    HW217218   6.137   2.611  12.508 -0.0448  0.6663  0.3239
 3453SOL     OW17219   9.852   7.279   5.146  0.1626 -0.6290 -0.8186
 3453SOL    HW117220   9.812   7.193   5.137 -1.4772 -0.0972  0.6452
 3453SOL    HW217221   9.941   7.269   5.112  0.1886 -3.0083 -0.2018
 3454SOL     OW17222   0.700   4.289   2.703  0.2522 -0.2241  0.2665
 3454SOL    HW117223   0.757   4.345   2.650 -0.1101 -1.4444 -1.4918
 3454SOL    HW217224   0.657   4.349   2.764 -1.9269  1.9204 -3.0480
 3455SOL     OW17225  12.350   0.715   5.932 -0.2934  0.4380 -0.3793
 3455SOL    HW117226  12.389   0.720   5.845  2.8752 -0.4593  0.8507
 3455SOL    HW217227  12.289   0.641   5.926  0.3859 -0.0591 -1.6556
 3456SOL     OW17228   5.013   9.189   5.574  0.0808 -0.0718 -0.5065
 3456SOL    HW117229   4.972   9.233   5.500  1.4068  0.3718 -0.9971
 3456SOL    HW217230   5.106   9.183   5.551  0.6807  0.8300  1.4594
 3457SOL     OW17231   4.648  11.777   9.079  0.3525 -0.1084 -0.0590
 3457SOL    HW117232   4.725  11.787   9.022  1.0638  0.6362  0.9993
 3457SOL    HW217233   4.574  11.802   9.024  1.1996  2.5323 -0.1246
 3458SOL     OW17234   8.879   4.686   1.059  0.0029 -0.1478  0.3757
 3458SOL    HW117235   8.786   4.704   1.046  0.3228  0.7675 -0.8375
 3458SOL    HW217236   8.915   4.681   0.970  1.3579  0.8743  0.8286
 3459SOL     OW17237   1.886  10.801   4.508 -0.1091 -0.0320  0.0527
 3459SOL    HW117238   1.941  10.843   4.442 -1.8359  0.1450 -1.3645
 3459SOL    HW217239   1.800  10.793   4.466 -1.2776  0.0173  2.2653
 3460SOL     OW17240   6.544   5.184   3.344  0.0005 -0.5623 -0.1065
 3460SOL    HW117241   6.496   5.185   3.426  0.5172  1.2062  0.2200
 3460SOL    HW217242   6.490   5.131   3.285 -0.8816 -1.0095  1.0661
 3461SOL     OW17243   7.004  12.113  10.148 -0.0495 -0.2042  0.3121
 3461SOL    HW117244   6.981  12.149  10.233 -0.3336  0.2357  0.0547
 3461SOL    HW217245   7.096  12.134  10.136  0.9322 -3.0634  1.8991
 3462SOL     OW17246  11.751  11.809   2.323 -0.2140  0.5744  0.2272
 3462SOL    HW117247  11.842  11.789   2.301 -0.1601  0.3374  0.6424
 3462SOL    HW217248  11.737  11.765   2.407 -1.2862 -1.0600 -0.7262
 3463SOL     OW17249   7.436   7.157   3.500 -0.3570 -0.1195  0.3033
 3463SOL    HW117250   7.451   7.225   3.566 -0.5879  0.7255 -0.4903
 3463SOL    HW217251   7.352   7.119   3.525  0.4051 -1.0701  1.5371
 3464SOL     OW17252   2.383   5.504   2.422 -0.3472  0.0157 -0.0191
 3464SOL    HW117253   2.333   5.501   2.503  1.0172 -0.2665  0.8468
 3464SOL    HW217254   2.428   5.589   2.424 -0.9183  0.3557 -0.8805
 3465SOL     OW17255   4.493   2.138   3.202 -0.4587 -0.1266  0.3529
 3465SOL    HW117256   4.416   2.093   3.166  0.2330 -1.9339  0.9907
 3465SOL    HW217257   4.479   2.137   3.297  0.2692 -0.3584  0.4634
 3466SOL     OW17258  10.813  11.032   9.216 -0.5181  0.9397 -0.6844
 3466SOL    HW117259  10.773  10.967   9.158  0.5764 -1.2733  0.8985
 3466SOL    HW217260  10.775  11.013   9.302  2.6303 -0.2359  0.5714
 3467SOL     OW17261   9.289   1.061  10.011  0.1771  0.0297  0.3607
 3467SOL    HW117262   9.226   1.072   9.940  1.4040  1.0271 -0.6161
 3467SOL    HW217263   9.369   1.102   9.979  0.8661  0.2109  2.1938
 3468SOL     OW17264   1.885   2.662   8.975  0.1072 -0.3063  0.1650
 3468SOL    HW117265   1.822   2.732   8.987 -1.9666 -1.8934 -0.7224
 3468SOL    HW217266   1.947   2.671   9.047 -0.7869  1.6739  0.7194
 3469SOL     OW17267   2.958   1.185  11.436 -0.2318 -0.1521  0.1241
 3469SOL    HW117268   2.943   1.257  11.498  1.1918  1.2518 -1.0631
 3469SOL    HW217269   2.874   1.174  11.392 -0.6068  0.4512  0.6717
 3470SOL     OW17270  10.657   1.284   7.609 -0.5364  0.1342 -0.4115
 3470SOL    HW117271  10.734   1.235   7.639  1.1719  2.4340 -0.7909
 3470SOL    HW217272  10.617   1.227   7.543  1.0708 -0.9763 -0.4832
 3471SOL     OW17273   2.914   7.176   1.259  0.1927  0.2352 -0.2598
 3471SOL    HW117274   2.911   7.209   1.348 -0.4599  0.1845 -0.2595
 3471SOL    HW217275   2.833   7.207   1.219  1.4196  2.0612 -1.4887
 3472SOL     OW17276   0.492   9.235  12.049  0.0614  0.4534 -0.3002
 3472SOL    HW117277   0.554   9.168  12.021  0.5104  1.7167 -2.6458
 3472SOL    HW217278   0.538   9.283  12.118  1.5717  1.0333 -1.6318
 3473SOL     OW17279   3.540  10.233   2.012  0.0228 -0.1024 -0.3758
 3473SOL    HW117280   3.463  10.177   2.015 -1.4211  1.6398 -2.2076
 3473SOL    HW217281   3.608  10.178   1.975 -1.1437 -0.8910 -1.4326
 3474SOL     OW17282   3.731   5.841   6.639  0.5605  0.3630 -0.8562
 3474SOL    HW117283   3.684   5.863   6.720  0.9579 -0.3975 -0.4145
 3474SOL    HW217284   3.663   5.842   6.572  0.3774  1.9056 -0.6945
 3475SOL     OW17285   4.909  10.270   4.272  0.1852  0.3875  0.1588
 3475SOL    HW117286   4.982  10.250   4.331 -0.3693  0.5921  0.9339
 3475SOL    HW217287   4.915  10.205   4.203 -0.8976 -1.7949  1.9933
 3476SOL     OW17288  11.047  11.462   3.792 -0.1788 -0.3110 -0.4115
 3476SOL    HW117289  10.979  11.438   3.855 -2.4491  0.6111 -2.3021
 3476SOL    HW217290  11.066  11.554   3.810 -0.4657 -0.1885 -0.7011
 3477SOL     OW17291   7.506   3.590   7.337  0.2713  0.4209  0.6643
 3477SOL    HW117292   7.475   3.671   7.377 -1.2500 -0.1090  0.6260
 3477SOL    HW217293   7.567   3.619   7.268  0.0999  1.4927  0.9438
 3478SOL     OW17294   3.867   1.965   0.579 -0.1422 -0.3511  0.4063
 3478SOL    HW117295   3.950   2.003   0.549  0.5155 -0.8662  1.5096
 3478SOL    HW217296   3.867   1.876   0.543  0.3469 -0.7470  1.3335
 3479SOL     OW17297   5.222  11.149  10.360 -0.1411  0.1759 -0.2912
 3479SOL    HW117298   5.132  11.163  10.390  0.0325  0.7722 -0.0247
 3479SOL    HW217299   5.217  11.153  10.265 -0.6731 -1.5449 -0.3688
 3480SOL     OW17300   5.945   7.530  10.663  0.1596 -0.4698  0.4225
 3480SOL    HW117301   6.007   7.599  10.640 -0.1822 -0.5489 -0.7889
 3480SOL    HW217302   5.997   7.468  10.715  0.8113  0.0111  0.3544
 3481SOL     OW17303   4.469   3.438   3.300 -0.3766  0.0021  0.0787
 3481SOL    HW117304   4.534   3.504   3.278  0.6766 -0.5224  1.4940
 3481SOL    HW217305   4.387   3.487   3.306  0.4555  1.2838  1.5569
 3482SOL     OW17306   0.218   8.315   4.633 -0.1950 -0.7622  0.8204
 3482SOL    HW117307   0.205   8.230   4.592 -0.4167 -1.3510  2.0452
 3482SOL    HW217308   0.229   8.295   4.726  0.4121  0.5008  1.0417
 3483SOL     OW17309   9.547   5.522   5.335 -0.0999  0.2856 -0.2651
 3483SOL    HW117310   9.461   5.506   5.375 -0.9967  0.2821 -2.1044
 3483SOL    HW217311   9.528   5.540   5.243  1.9130 -0.0246 -0.7866
 3484SOL     OW17312   4.389   4.199   6.781 -0.3956  0.1031  0.4246
 3484SOL    HW117313   4.358   4.133   6.843 -0.3528 -0.8589 -0.5469
 3484SOL    HW217314   4.429   4.266   6.835  0.3056 -1.0747  1.4006
 3485SOL     OW17315   2.758   0.172   9.082  0.5737  0.2114 -0.0284
 3485SOL    HW117316   2.847   0.178   9.046  0.4477 -0.0456 -0.3790
 3485SOL    HW217317   2.717   0.254   9.056  0.8195  0.4947  0.4472
 3486SOL     OW17318  11.944   1.282   7.777  0.1618  0.2527  0.5679
 3486SOL    HW117319  12.038   1.298   7.771 -0.1530  1.6257 -1.4819
 3486SOL    HW217320  11.904   1.369   7.775 -1.2120 -0.3683 -0.0382
 3487SOL     OW17321   5.346  10.583   2.125  0.4031 -0.2259 -0.1374
 3487SOL    HW117322   5.392  10.663   2.101  0.4487 -0.3312 -0.3947
 3487SOL    HW217323   5.276  10.613   2.183 -1.2604  0.3543 -2.3068
 3488SOL     OW17324   2.074   5.257   7.468  0.6084 -0.7161 -0.1681
 3488SOL    HW117325   2.055   5.341   7.510  0.8498 -1.1005  0.7315
 3488SOL    HW217326   1.988   5.216   7.455  0.4969 -0.3757 -0.5376
 3489SOL     OW17327   4.882   0.891  11.230 -0.7676 -0.2666 -0.5855
 3489SOL    HW117328   4.830   0.811  11.225 -0.2425 -0.5897 -0.9664
 3489SOL    HW217329   4.973   0.861  11.229 -0.5672  0.2679  0.4720
 3490SOL     OW17330   7.431   7.328   8.863 -0.2630 -0.3414  0.0545
 3490SOL    HW117331   7.425   7.243   8.818  2.9111 -1.0841  0.7639
 3490SOL    HW217332   7.436   7.392   8.793  1.6730 -1.2164 -0.6765
 3491SOL     OW17333   2.018   3.429   2.929 -0.1099  0.2382 -0.3112
 3491SOL    HW117334   1.972   3.415   3.012 -1.0774  0.7572 -0.7474
 3491SOL    HW217335   1.959   3.485   2.878 -0.5597 -1.8373 -2.2142
 3492SOL     OW17336   2.174   7.697   5.392  0.2712  0.2288  0.3524
 3492SOL    HW117337   2.247   7.636   5.399 -0.7361 -0.8507  2.5601
 3492SOL    HW217338   2.130   7.673   5.311  0.8644 -0.8579  0.3397
 3493SOL     OW17339   1.377   7.670   1.468 -0.1199 -0.9066  0.4136
 3493SOL    HW117340   1.456   7.704   1.426 -0.0563 -1.2191  0.2781
 3493SOL    HW217341   1.393   7.683   1.562 -0.2759 -0.1877  0.3388
 3494SOL     OW17342   3.865  10.577   7.837 -0.5211  0.1300 -0.0363
 3494SOL    HW117343   3.936  10.529   7.795  0.2942  1.9617 -0.8435
 3494SOL    HW217344   3.844  10.524   7.914  2.5198  0.0823  0.9010
 3495SOL     OW17345   2.760   8.105   5.617 -0.2406  0.2075  0.1895
 3495SOL    HW117346   2.827   8.171   5.599 -0.4079  0.3949  0.2451
 3495SOL    HW217347   2.808   8.024   5.630  0.0607  0.5713  1.4139
 3496SOL     OW17348  10.180   5.526   5.982  0.2844 -0.1773  0.2695
 3496SOL    HW117349  10.249   5.504   6.044  2.0011  0.7860 -1.1671
 3496SOL    HW217350  10.148   5.612   6.011  0.1729 -0.3181  0.5599
 3497SOL     OW17351   7.868  10.001   4.135  0.2731  0.0257 -0.7705
 3497SOL    HW117352   7.944  10.056   4.116  0.8956 -0.4085  0.3975
 3497SOL    HW217353   7.900   9.912   4.127  1.0638 -0.3017  3.5472
 3498SOL     OW17354  10.567   3.337   1.609 -0.8582  0.1694  0.3346
 3498SOL    HW117355  10.555   3.429   1.634  0.5135  0.0297  1.6992
 3498SOL    HW217356  10.656   3.316   1.639  0.0133 -0.7806 -2.6336
 3499SOL     OW17357   3.535   5.287  11.540 -0.0248  0.1427 -0.2575
 3499SOL    HW117358   3.526   5.247  11.626  0.2125 -3.1211 -1.5783
 3499SOL    HW217359   3.617   5.251  11.506 -0.4180  0.8571 -2.0801
 3500SOL     OW17360  10.731   9.830   3.921  0.1715  0.3141 -0.2954
 3500SOL    HW117361  10.644   9.791   3.923 -0.1912  1.1420  1.9602
 3500SOL    HW217362  10.789   9.756   3.903 -0.7711 -0.7392  0.8231
 3501SOL     OW17363  10.602   2.165   9.036  0.2736  0.1271 -0.0747
 3501SOL    HW117364  10.615   2.192   9.127  0.3189  0.4747 -0.1846
 3501SOL    HW217365  10.574   2.244   8.990 -3.1325 -0.6845  0.3044
 3502SOL     OW17366  10.867   5.271  11.324 -0.1445  0.0206 -0.3493
 3502SOL    HW117367  10.837   5.342  11.267  0.6506  1.7817  1.3359
 3502SOL    HW217368  10.949   5.241  11.283 -0.1082  0.5647 -0.6881
 3503SOL     OW17369   6.503   1.590   6.115  0.1171 -0.5405 -0.3517
 3503SOL    HW117370   6.478   1.509   6.160  0.8782 -0.1060  0.8746
 3503SOL    HW217371   6.435   1.653   6.139 -0.6980 -0.8796 -1.6247
 3504SOL     OW17372   8.478   9.061   5.093 -0.6006  0.2647  0.3409
 3504SOL    HW117373   8.501   9.125   5.026 -1.4842  1.9634  1.5599
 3504SOL    HW217374   8.399   9.020   5.061  0.1623 -0.4878 -0.6145
 3505SOL     OW17375   6.654   0.327   2.370 -0.1800 -0.6410  0.6790
 3505SOL    HW117376   6.739   0.351   2.408  0.2294 -1.6495  0.4424
 3505SOL    HW217377   6.636   0.395   2.306  0.7444 -0.7355  0.2998
 3506SOL     OW17378   6.245  11.830   4.511  0.2617 -0.2179  0.0640
 3506SOL    HW117379   6.253  11.920   4.480  0.8069 -1.5800 -4.5778
 3506SOL    HW217380   6.308  11.823   4.582  0.9087  2.7988 -0.1028
 3507SOL     OW17381   3.675   4.100   1.425  0.0804  0.0493  0.2618
 3507SOL    HW117382   3.628   4.181   1.447  1.5207  0.3572  2.5081
 3507SOL    HW217383   3.659   4.043   1.500  2.4670 -0.1664  0.6781
 3508SOL     OW17384   6.017   0.967   4.979 -0.4941  0.0244  0.4352
 3508SOL    HW117385   5.964   1.045   4.991 -1.2865 -0.0821 -1.8409
 3508SOL    HW217386   6.093   0.998   4.930 -0.7700 -0.5952 -0.4003
 3509SOL     OW17387   2.542   4.035   9.036  0.0556 -0.2987 -0.3701
 3509SOL    HW117388   2.456   4.033   8.993 -0.5127 -2.3444  0.6775
 3509SOL    HW217389   2.535   3.967   9.104  1.3872  1.7445  1.9639
 3510SOL     OW17390   8.766  11.621   6.991  0.1373  0.1553  0.5996
 3510SOL    HW117391   8.802  11.691   6.936 -0.2419 -0.4929 -0.5026
 3510SOL    HW217392   8.671  11.630   6.983  0.0813 -0.9097 -0.1352
 3511SOL     OW17393   6.988   0.118   2.492  0.1264 -0.1597  0.4049
 3511SOL    HW117394   7.023   0.104   2.581 -1.7363  0.4457  1.2849
 3511SOL    HW217395   6.942   0.036   2.473  1.1709 -0.5937 -0.3687
 3512SOL     OW17396  10.057   9.351   2.244  0.2133 -0.3204 -0.6697
 3512SOL    HW117397  10.031   9.357   2.152  1.1606 -1.3710 -1.0276
 3512SOL    HW217398  10.011   9.274   2.277  2.7418 -2.2751 -1.3395
 3513SOL     OW17399   6.526  10.297   1.186 -0.5017  0.1648 -0.2889
 3513SOL    HW117400   6.573  10.257   1.260 -0.6314 -0.0670 -0.3317
 3513SOL    HW217401   6.576  10.376   1.166  0.4199 -0.5672 -0.9445
 3514SOL     OW17402   9.182   8.265   1.605  0.3215  0.1267 -0.5108
 3514SOL    HW117403   9.159   8.252   1.697  0.6789  0.9686 -0.2919
 3514SOL    HW217404   9.104   8.307   1.567  0.6320  0.9241 -0.2908
 3515SOL     OW17405   0.546   0.481   0.010  0.8116  0.4850  0.5629
 3515SOL    HW117406   0.550   0.470   0.105 -2.4649 -1.0612  0.6476
 3515SOL    HW217407   0.481   0.550  -0.004 -1.1388 -1.4591 -0.5154
 3516SOL     OW17408   8.867  10.538   3.920 -0.0525  0.4944  0.2989
 3516SOL    HW117409   8.805  10.516   3.990 -0.2009  1.0844  0.3600
 3516SOL    HW217410   8.811  10.567   3.848  0.0504 -1.0082 -0.4085
 3517SOL     OW17411   3.846  10.772  11.420  0.4689 -0.1365  0.1390
 3517SOL    HW117412   3.835  10.807  11.331  0.4976 -0.6475 -0.0704
 3517SOL    HW217413   3.819  10.680  11.413 -1.5940  0.3225  1.1203
 3518SOL     OW17414   1.695   0.282   1.440 -0.4698 -0.0233  0.4021
 3518SOL    HW117415   1.780   0.325   1.430 -1.3102  1.4043 -1.3285
 3518SOL    HW217416   1.711   0.191   1.413  0.4132  0.3663 -0.4712
 3519SOL     OW17417   9.895   9.279  10.955  0.1726  0.0860  0.3669
 3519SOL    HW117418   9.868   9.246  11.041  0.9827 -1.8831 -0.0958
 3519SOL    HW217419   9.894   9.202  10.898  1.4062  1.0070 -0.9721
 3520SOL     OW17420  11.977   9.899   0.507  0.4154 -0.1456 -0.0160
 3520SOL    HW117421  12.070   9.884   0.522  0.5334 -0.7680 -1.2511
 3520SOL    HW217422  11.973   9.940   0.420 -0.5441 -1.5217 -0.6664
 3521SOL     OW17423   2.183   9.524   6.625 -1.1726 -0.7967 -0.8208
 3521SOL    HW117424   2.110   9.551   6.569 -1.4459 -0.1191 -0.1463
 3521SOL    HW217425   2.236   9.603   6.635 -3.3879  0.4357  3.3701
 3522SOL     OW17426   0.652   6.972   5.037 -0.7603  0.0501  0.3742
 3522SOL    HW117427   0.721   6.913   5.006 -0.7042  1.0880 -1.6304
 3522SOL    HW217428   0.571   6.935   5.001 -0.6639  1.4279 -1.3824
 3523SOL     OW17429  10.932  10.432   4.759  0.3204 -0.0339 -0.4899
 3523SOL    HW117430  11.027  10.425   4.755  0.4044  0.6345  0.2844
 3523SOL    HW217431  10.910  10.498   4.693  0.3676 -0.3498 -0.8255
 3524SOL     OW17432   7.387   7.880   3.274 -0.4696  0.1105 -0.2217
 3524SOL    HW117433   7.420   7.869   3.185 -0.3556 -0.1811 -0.1456
 3524SOL    HW217434   7.384   7.975   3.287 -1.5580  0.1895 -0.9319
 3525SOL     OW17435   2.983   4.733  11.248 -0.6455  0.3984 -0.0384
 3525SOL    HW117436   2.928   4.679  11.191  0.0282 -0.5721  0.2122
 3525SOL    HW217437   3.069   4.733  11.206 -0.3299  0.2769  0.5963
 3526SOL     OW17438  10.067   2.748   5.715  0.8231  0.4641 -0.5590
 3526SOL    HW117439  10.004   2.809   5.754 -0.5799 -0.7376 -0.8897
 3526SOL    HW217440  10.142   2.750   5.775  0.6968  2.2608 -0.4000
 3527SOL     OW17441   8.292   5.979   7.225 -0.3290 -0.2009 -0.1878
 3527SOL    HW117442   8.323   5.889   7.216  1.7993  0.1418  2.6776
 3527SOL    HW217443   8.320   6.021   7.144 -1.5489 -2.0670 -1.6878
 3528SOL     OW17444  12.223   7.572   2.544 -1.0664  0.2148 -0.2385
 3528SOL    HW117445  12.136   7.607   2.524 -2.2713 -1.5796  1.5116
 3528SOL    HW217446  12.214   7.531   2.630  1.6617  0.3716  0.2127
 3529SOL     OW17447   2.592   3.365   4.669 -0.2645 -0.4820  0.2004
 3529SOL    HW117448   2.590   3.427   4.597 -2.6045 -0.2723  0.3820
 3529SOL    HW217449   2.665   3.306   4.648 -1.6724 -1.2681 -3.0688
 3530SOL     OW17450   5.062   1.009  11.917  0.4947 -0.6947  0.2859
 3530SOL    HW117451   5.065   1.046  12.006 -3.5383 -1.0923  0.7816
 3530SOL    HW217452   5.098   0.921  11.927 -1.1654 -1.2709  1.9743
 3531SOL     OW17453  12.357   8.075   4.666  0.0275 -0.2055  0.2856
 3531SOL    HW117454  12.333   8.004   4.607 -0.1704  1.4519 -1.7466
 3531SOL    HW217455  12.448   8.095   4.643 -0.0556  0.4721  0.5203
 3532SOL     OW17456   7.396   2.798   5.745  0.3325  0.0457  0.6785
 3532SOL    HW117457   7.428   2.888   5.746  1.2922 -0.2815  0.7045
 3532SOL    HW217458   7.473   2.746   5.720 -0.5058 -0.6507 -0.5417
 3533SOL     OW17459   4.127   6.431   8.044  0.4855  0.1306  0.5285
 3533SOL    HW117460   4.087   6.517   8.055  0.2413  0.0533  0.2517
 3533SOL    HW217461   4.060   6.370   8.076 -0.0142 -0.0628 -0.8105
 3534SOL     OW17462   3.490   3.292   8.761  0.3440 -0.5705 -0.2161
 3534SOL    HW117463   3.424   3.285   8.693 -3.3973 -2.8386  3.1857
 3534SOL    HW217464   3.539   3.210   8.757  0.0298 -0.7639 -0.0954
 3535SOL     OW17465   6.222   4.086   5.883  0.6399  0.1586  0.3361
 3535SOL    HW117466   6.223   4.017   5.817  1.3146 -0.7812  1.2979
 3535SOL    HW217467   6.139   4.132   5.869  0.4531 -0.4610 -0.7032
 3536SOL     OW17468   9.415   0.811   5.026  0.2405 -0.3975 -0.3097
 3536SOL    HW117469   9.456   0.756   5.093 -0.4677  1.1246  1.4575
 3536SOL    HW217470   9.432   0.901   5.054 -1.8200  0.2902 -1.0398
 3537SOL     OW17471   3.381   2.295   8.544 -0.4451 -0.4044  0.1193
 3537SOL    HW117472   3.306   2.313   8.487 -0.5893  0.9346  0.6806
 3537SOL    HW217473   3.343   2.255   8.622 -0.4452 -0.7033 -0.0330
 3538SOL     OW17474  12.444   3.533   5.421 -0.6300 -0.1070  0.0163
 3538SOL    HW117475  12.529   3.523   5.463 -0.1209  0.3174 -0.8766
 3538SOL    HW217476  12.403   3.447   5.427  0.5093 -0.7461 -0.9031
 3539SOL     OW17477   9.587   7.142  11.667 -0.0785  0.1447  0.1936
 3539SOL    HW117478   9.627   7.080  11.607 -0.6672  1.1902 -1.3542
 3539SOL    HW217479   9.636   7.132  11.749  1.5902 -0.4468 -0.8264
 3540SOL     OW17480   1.700   1.181  10.532 -0.7866  0.3750 -0.1757
 3540SOL    HW117481   1.794   1.181  10.551 -0.9698  1.1256  0.8035
 3540SOL    HW217482   1.691   1.126  10.454  0.3682 -0.3190  0.1669
 3541SOL     OW17483  12.102   7.623   5.905  0.6846 -0.0730  0.2349
 3541SOL    HW117484  12.118   7.598   5.814  1.6705  0.5813  0.2150
 3541SOL    HW217485  12.186   7.609   5.949  1.0692  2.3602  0.3997
 3542SOL     OW17486   1.602   6.973   6.708 -0.5410 -0.1790  0.7019
 3542SOL    HW117487   1.665   7.026   6.757 -1.0573  1.3180 -0.1855
 3542SOL    HW217488   1.601   7.012   6.621 -0.9493 -1.6843  0.0079
 3543SOL     OW17489  11.326   1.895   4.183 -0.1486 -0.8480 -0.1459
 3543SOL    HW117490  11.241   1.912   4.224  1.0318  0.6814  1.8501
 3543SOL    HW217491  11.375   1.846   4.249  0.6362 -1.4121 -1.1347
 3544SOL     OW17492  11.426   4.644   8.321  0.2570 -0.5561  0.2696
 3544SOL    HW117493  11.372   4.617   8.395 -0.4170 -0.1441 -0.0621
 3544SOL    HW217494  11.468   4.563   8.291 -0.6655 -1.0038  0.1457
 3545SOL     OW17495   4.854   3.286   5.439 -0.2765 -0.7298 -0.2363
 3545SOL    HW117496   4.818   3.244   5.361  0.8724 -2.1333 -0.0502
 3545SOL    HW217497   4.948   3.270   5.434 -0.0745 -0.0660  0.9889
 3546SOL     OW17498   8.414   3.624   8.334 -0.3628  0.1091 -0.0899
 3546SOL    HW117499   8.477   3.561   8.370 -0.3574 -0.5888 -1.2830
 3546SOL    HW217500   8.329   3.583   8.345 -0.7157  1.2231  1.8853
 3547SOL     OW17501   8.320   3.555   3.400  0.1277  0.1806  0.1092
 3547SOL    HW117502   8.388   3.604   3.446 -0.9945  1.7927  0.1614
 3547SOL    HW217503   8.240   3.604   3.418 -1.3345 -2.3980  1.2368
 3548SOL     OW17504   0.568   5.160  11.056 -0.4198  0.1525 -0.2028
 3548SOL    HW117505   0.492   5.218  11.059 -1.2155 -0.6688 -2.5510
 3548SOL    HW217506   0.546   5.088  11.116 -1.6356 -0.2005 -1.0347
 3549SOL     OW17507   7.555  11.659  11.897 -0.6272 -0.0868 -0.3177
 3549SOL    HW117508   7.558  11.626  11.807  1.2754  3.4643 -1.7380
 3549SOL    HW217509   7.647  11.662  11.924 -1.1263 -0.5028  1.5934
 3550SOL     OW17510   8.138   0.323   6.381 -0.5304 -0.5684 -0.0945
 3550SOL    HW117511   8.064   0.285   6.430 -1.6456  0.3770 -0.9849
 3550SOL    HW217512   8.104   0.334   6.292  0.3704  0.7792 -0.2933
 3551SOL     OW17513   1.207   7.246   8.909  0.0517  0.4686  0.0772
 3551SOL    HW117514   1.137   7.213   8.852  0.5366 -0.7113  0.1374
 3551SOL    HW217515   1.163   7.306   8.969 -0.6841  0.7498 -0.7211
 3552SOL     OW17516   8.227   6.796   7.987  0.4046 -0.1476 -0.5059
 3552SOL    HW117517   8.284   6.781   8.062  0.0316 -1.2136 -0.4173
 3552SOL    HW217518   8.174   6.716   7.981 -0.5033  0.4752 -1.0807
 3553SOL     OW17519   3.056   8.822  12.278 -0.5766 -0.5254 -0.4069
 3553SOL    HW117520   3.037   8.911  12.308 -0.6301 -0.4088 -0.7807
 3553SOL    HW217521   3.002   8.811  12.200  0.5512 -0.3393 -1.2434
 3554SOL     OW17522   9.735  10.019  11.750  0.1047 -0.4719 -0.4024
 3554SOL    HW117523   9.703  10.081  11.683 -1.4753 -0.1058  0.6375
 3554SOL    HW217524   9.705   9.934  11.720 -1.3345 -0.2096  0.2192
 3555SOL     OW17525   4.813   4.297  11.627 -0.1368 -0.4433 -0.8524
 3555SOL    HW117526   4.810   4.289  11.532 -4.0579  0.6826 -0.9951
 3555SOL    HW217527   4.764   4.377  11.646  1.4758 -0.0185  2.1244
 3556SOL     OW17528   0.111   3.210   8.257 -0.0946  0.4738 -0.5077
 3556SOL    HW117529   0.117   3.129   8.307 -0.6352  0.5873 -0.2565
 3556SOL    HW217530   0.038   3.258   8.296 -1.1140  0.1744 -1.9499
 3557SOL     OW17531  10.978   7.245   8.554  0.0394 -0.3864 -0.4407
 3557SOL    HW117532  11.029   7.213   8.480  0.2327  1.1594 -1.0159
 3557SOL    HW217533  10.889   7.213   8.537  0.3716 -1.2716 -0.5603
 3558SOL     OW17534   6.873   4.136  12.394 -0.3705  0.1386  0.1167
 3558SOL    HW117535   6.795   4.082  12.401 -0.7424  0.4524 -1.3402
 3558SOL    HW217536   6.855   4.194  12.320  0.9142  0.7645  0.2763
 3559SOL     OW17537  10.174   7.850   3.179 -0.3231 -0.5350 -0.0088
 3559SOL    HW117538  10.263   7.819   3.194  0.0226 -1.2932 -2.9580
 3559SOL    HW217539  10.182   7.913   3.107 -1.9395  0.9676  1.0537
 3560SOL     OW17540   8.727   3.274   1.202 -0.4840  0.0662  0.7453
 3560SOL    HW117541   8.658   3.331   1.168 -1.0538 -1.5354 -0.9264
 3560SOL    HW217542   8.689   3.237   1.282 -0.8665  0.5122  0.7800
 3561SOL     OW17543   0.916   7.690   9.839  0.3860 -0.3813 -0.2116
 3561SOL    HW117544   0.901   7.783   9.827  0.4305 -0.1224  1.5916
 3561SOL    HW217545   0.835   7.656   9.876  1.3791 -0.4430  2.0604
 3562SOL     OW17546   2.782   6.590   5.243 -0.0232 -0.7210 -0.0814
 3562SOL    HW117547   2.821   6.568   5.158 -0.2118 -1.1911 -0.0499
 3562SOL    HW217548   2.688   6.589   5.228 -0.0979  3.0516 -0.8207
 3563SOL     OW17549   4.924   1.958   7.428  0.0559  0.1155  0.2958
 3563SOL    HW117550   4.883   1.878   7.396  2.5366 -1.6051  1.0147
 3563SOL    HW217551   4.936   1.942   7.522  0.1591  1.5634  0.5518
 3564SOL     OW17552   2.316  10.980  11.045 -0.1339  1.0087  0.0577
 3564SOL    HW117553   2.407  10.995  11.071  1.4566 -3.0651 -2.3254
 3564SOL    HW217554   2.315  10.989  10.950 -1.9959 -0.0435 -0.0826
 3565SOL     OW17555  12.034  10.534   8.216  0.2400 -0.0821  0.0261
 3565SOL    HW117556  12.077  10.475   8.278 -0.8635  0.2715  1.1630
 3565SOL    HW217557  12.033  10.619   8.260 -3.4427 -0.4991  1.0416
 3566SOL     OW17558   4.037   7.499  12.455  0.2308  0.4918  0.1090
 3566SOL    HW117559   4.127   7.476  12.433 -0.3306 -1.7747 -0.0339
 3566SOL    HW217560   4.036   7.503  12.551  0.5127  0.7064  0.1049
 3567SOL     OW17561   1.441   8.957   2.643  0.2884 -0.8777 -0.1450
 3567SOL    HW117562   1.453   8.865   2.665  1.0255 -0.3755  1.7734
 3567SOL    HW217563   1.529   8.994   2.644  0.3367 -0.5744 -3.3861
 3568SOL     OW17564   5.130   2.067   0.245  0.1510 -0.0070  0.1044
 3568SOL    HW117565   5.135   1.973   0.262  0.0041 -0.5492 -2.4001
 3568SOL    HW217566   5.162   2.109   0.325  0.8317 -2.2030  1.0338
 3569SOL     OW17567  10.495   8.100   0.089  0.0868 -0.2505  0.4037
 3569SOL    HW117568  10.508   8.029   0.027  0.2113 -0.7696  1.0219
 3569SOL    HW217569  10.574   8.101   0.143  0.8372  1.4125 -0.6301
 3570SOL     OW17570   9.759   1.584   8.493 -0.0379 -0.4361  0.0384
 3570SOL    HW117571   9.709   1.533   8.556  0.2595 -0.8621 -0.0675
 3570SOL    HW217572   9.829   1.625   8.544 -1.2394  1.2412  0.4425
 3571SOL     OW17573   5.378  10.938   8.764 -0.3717 -0.0161  0.0721
 3571SOL    HW117574   5.312  10.877   8.731  1.4700 -2.5517  0.7669
 3571SOL    HW217575   5.449  10.882   8.795  1.0587  2.4980  1.6694
 3572SOL     OW17576   5.452   1.452   6.058  0.3313  0.1029  0.1841
 3572SOL    HW117577   5.374   1.505   6.076  1.4854  2.9354 -2.3902
 3572SOL    HW217578   5.429   1.402   5.980  0.8021  0.3202 -0.0958
 3573SOL     OW17579   2.763  11.441  11.639 -0.6000  0.1587 -0.2832
 3573SOL    HW117580   2.739  11.365  11.586  0.3158  1.0880 -2.1537
 3573SOL    HW217581   2.714  11.514  11.599  1.0782  1.1078 -0.7208
 3574SOL     OW17582  10.134   4.720   7.656  0.0934  0.1495 -0.0064
 3574SOL    HW117583  10.174   4.687   7.737 -1.1203 -0.1380  0.5052
 3574SOL    HW217584  10.166   4.810   7.649  0.9123 -0.1108  0.3179
 3575SOL     OW17585  12.384  10.424  11.581  0.1784  0.0502 -0.0802
 3575SOL    HW117586  12.398  10.516  11.600  1.3083  0.0183 -0.6752
 3575SOL    HW217587  12.469  10.391  11.553 -0.1847 -1.1988  0.1879
 3576SOL     OW17588   2.402   9.610   3.739 -0.0353 -0.1772  0.0550
 3576SOL    HW117589   2.390   9.544   3.808  0.6920  0.5252  0.8896
 3576SOL    HW217590   2.436   9.687   3.785 -3.1603  1.7007 -0.4747
 3577SOL     OW17591   3.418   4.450   7.662 -0.0655 -0.0220  0.2672
 3577SOL    HW117592   3.369   4.508   7.603 -2.2931 -0.7427  1.3111
 3577SOL    HW217593   3.485   4.507   7.700 -0.9187  1.3778 -0.2328
 3578SOL     OW17594   3.468   4.894   9.235  0.0057 -0.1385 -0.1940
 3578SOL    HW117595   3.506   4.924   9.152 -0.6683 -0.8302 -0.7686
 3578SOL    HW217596   3.377   4.923   9.231 -0.8368 -2.6499 -1.0281
 3579SOL     OW17597   4.862   1.426   4.710  0.5550  0.1970 -0.2420
 3579SOL    HW117598   4.836   1.342   4.747  0.7720 -0.1055 -0.7722
 3579SOL    HW217599   4.800   1.489   4.748  0.1567 -0.2579 -0.1271
 3580SOL     OW17600   0.188   7.233   5.919  0.5256 -0.0381 -0.0247
 3580SOL    HW117601   0.212   7.172   5.849  2.1872  1.1880 -0.5980
 3580SOL    HW217602   0.139   7.302   5.874  2.2066  1.1159 -0.1574
 3581SOL     OW17603   5.334  11.271  10.868  0.0293 -0.2071  0.5813
 3581SOL    HW117604   5.429  11.271  10.877  0.0387  1.2492  0.7539
 3581SOL    HW217605   5.317  11.222  10.787  0.9299 -0.4596  0.5398
 3582SOL     OW17606   8.798   8.743   7.079 -0.2043 -0.1750 -0.5018
 3582SOL    HW117607   8.889   8.773   7.084  0.1771 -1.0642 -1.5337
 3582SOL    HW217608   8.752   8.813   7.033  0.2667 -0.3085 -1.2020
 3583SOL     OW17609   6.704   2.876  10.468 -0.1625 -0.1008  0.0854
 3583SOL    HW117610   6.609   2.859  10.463 -0.0132 -0.8267 -0.6861
 3583SOL    HW217611   6.739   2.830  10.392  0.7144  0.9190 -0.1361
 3584SOL     OW17612   6.447  10.402   5.710 -0.1161  0.4816 -0.6331
 3584SOL    HW117613   6.367  10.430   5.667  0.7613  1.5481 -1.6427
 3584SOL    HW217614   6.460  10.465   5.780 -0.0263  0.4692 -0.6384
 3585SOL     OW17615   0.186   8.801   2.464  0.0307  0.1247 -0.1685
 3585SOL    HW117616   0.104   8.798   2.514  0.4278  1.1886  0.5697
 3585SOL    HW217617   0.212   8.710   2.455 -1.0555 -0.2049 -0.1144
 3586SOL     OW17618   8.875   7.775   7.782  0.3966 -0.8070  0.2436
 3586SOL    HW117619   8.923   7.698   7.750 -0.3612 -0.8466 -0.8966
 3586SOL    HW217620   8.805   7.738   7.836 -0.5965 -1.0197 -1.1411
 3587SOL     OW17621   7.868   6.707  11.740  0.0274  0.1518 -0.2710
 3587SOL    HW117622   7.892   6.635  11.798  0.5154 -1.4137 -2.2969
 3587SOL    HW217623   7.781   6.684  11.706 -0.4178  1.2234  0.0877
 3588SOL     OW17624  10.221   5.610   9.746 -0.4933  0.4267  0.3130
 3588SOL    HW117625  10.275   5.543   9.788 -0.7341 -0.9537 -1.4534
 3588SOL    HW217626  10.134   5.598   9.782 -0.5220 -0.2051  0.0469
 3589SOL     OW17627   4.767   3.967   9.972  0.0880 -0.6503  0.0630
 3589SOL    HW117628   4.811   3.963  10.057  0.8282 -0.9882 -0.3292
 3589SOL    HW217629   4.782   3.881   9.934 -1.3480 -0.9566  0.1208
 3590SOL     OW17630   4.614   6.397   7.169 -0.7424 -0.2575  0.0618
 3590SOL    HW117631   4.541   6.379   7.110 -0.6920 -1.6189  0.3832
 3590SOL    HW217632   4.667   6.462   7.122 -1.1005 -0.7457 -1.0564
 3591SOL     OW17633   8.628   7.986   6.737  0.7456  0.5551 -0.1501
 3591SOL    HW117634   8.538   8.015   6.751  0.6127  0.0297  0.1263
 3591SOL    HW217635   8.671   7.999   6.822  0.6997  0.0102 -0.0393
 3592SOL     OW17636   4.263  10.071   2.477 -0.6868 -0.1188 -0.8387
 3592SOL    HW117637   4.327  10.000   2.483 -1.2027 -0.6701 -1.5935
 3592SOL    HW217638   4.315  10.147   2.450 -0.2944 -0.4859 -1.1446
 3593SOL     OW17639   3.744   6.880  12.076 -0.0890  0.0741 -0.1333
 3593SOL    HW117640   3.790   6.839  12.003  1.6327 -1.2688  1.6014
 3593SOL    HW217641   3.802   6.949  12.106 -0.5877  0.3430  0.2346
 3594SOL     OW17642  10.813  11.317   4.294  0.2273 -0.1906  0.1831
 3594SOL    HW117643  10.865  11.315   4.374 -0.1970 -0.4051  0.4571
 3594SOL    HW217644  10.733  11.364   4.318 -0.4042 -1.2192  0.2029
 3595SOL     OW17645   4.494   4.905   9.318 -0.0559 -0.6764 -0.5102
 3595SOL    HW117646   4.444   4.836   9.275 -2.8680  0.6809  0.2772
 3595SOL    HW217647   4.442   4.928   9.395  2.2589  0.3507  0.8569
 3596SOL     OW17648   3.515   4.592   9.201 -0.1234 -0.3831 -0.4916
 3596SOL    HW117649   3.560   4.660   9.250  1.2877 -2.3897  1.1540
 3596SOL    HW217650   3.577   4.564   9.134 -1.2318  0.8273 -2.1286
 3597SOL     OW17651   3.089  11.914   0.431  0.1041 -0.4871 -0.5289
 3597SOL    HW117652   3.052  11.841   0.382  0.7112  0.7050 -2.9033
 3597SOL    HW217653   3.014  11.971   0.450  0.0579 -0.2363 -1.4209
 3598SOL     OW17654   1.596  11.609   8.745 -0.2286 -0.0486  0.1097
 3598SOL    HW117655   1.539  11.682   8.723 -1.0290 -0.1575  1.6440
 3598SOL    HW217656   1.669  11.615   8.684  0.6682  3.1208  1.3382
 3599SOL     OW17657   2.778   4.702   6.652  0.3426  0.5785  0.0460
 3599SOL    HW117658   2.745   4.614   6.637 -1.8394  1.3240  0.0739
 3599SOL    HW217659   2.790   4.708   6.747  1.4581  0.0356 -0.0414
 3600SOL     OW17660  10.256   8.015   6.948 -0.3635  0.3962 -0.7417
 3600SOL    HW117661  10.351   8.015   6.949 -0.3435  1.0193 -1.8044
 3600SOL    HW217662  10.232   7.941   7.004  0.6878  1.5743  1.3979
 3601SOL     OW17663   4.479  10.105   6.665 -0.2407 -0.0684 -0.0220
 3601SOL    HW117664   4.481  10.143   6.577  0.8204  2.7821  1.1286
 3601SOL    HW217665   4.570  10.079   6.681 -0.1712  0.6034  0.6954
 3602SOL     OW17666   9.437  10.997   6.299  0.0775  0.2462  0.4656
 3602SOL    HW117667   9.366  11.054   6.329 -0.4673  0.9039 -1.8789
 3602SOL    HW217668   9.402  10.908   6.308  0.2501  0.3301  2.4221
 3603SOL     OW17669   3.650   1.479   0.701 -0.7121  0.2084 -0.1776
 3603SOL    HW117670   3.688   1.561   0.732 -1.7680  0.9719 -0.8094
 3603SOL    HW217671   3.631   1.429   0.780 -0.5691  0.8160  0.2493
 3604SOL     OW17672  10.256   1.781   2.145 -0.1329 -0.1977  0.2571
 3604SOL    HW117673  10.295   1.856   2.189  0.2496  0.3980 -1.0414
 3604SOL    HW217674  10.328   1.742   2.095 -0.8337 -0.0324 -0.9219
 3605SOL     OW17675   3.144   2.349  11.440  0.8797 -1.0067  0.7886
 3605SOL    HW117676   3.170   2.368  11.530  1.5510  1.5698  0.1346
 3605SOL    HW217677   3.065   2.296  11.448 -1.2063  2.1202  2.9903
 3606SOL     OW17678   3.276   4.333   6.967 -0.1209  0.4116  0.1334
 3606SOL    HW117679   3.301   4.334   7.059  0.8876 -0.0561 -0.1256
 3606SOL    HW217680   3.358   4.344   6.919 -0.7737  1.8363 -0.7055
 3607SOL     OW17681   6.285   9.585   6.702 -0.4285  0.2086  0.1443
 3607SOL    HW117682   6.288   9.581   6.798 -1.1942  1.0556  0.2198
 3607SOL    HW217683   6.214   9.646   6.683  0.3906  0.8617 -0.9505
 3608SOL     OW17684   6.724   9.260   6.586  0.1430  0.3841  0.0813
 3608SOL    HW117685   6.792   9.300   6.640 -0.8802  0.0858  1.6566
 3608SOL    HW217686   6.655   9.327   6.580  0.1986  0.3729 -0.7751
 3609SOL     OW17687  11.180   5.773  10.856  0.1908  0.1544 -0.2302
 3609SOL    HW117688  11.108   5.819  10.901 -1.2732  0.2825 -2.5326
 3609SOL    HW217689  11.136   5.720  10.789  2.1385 -1.5301 -0.2590
 3610SOL     OW17690   6.925   2.937   4.076  0.1421  0.0979 -0.1200
 3610SOL    HW117691   6.858   2.981   4.024  2.1295  1.4393 -1.7021
 3610SOL    HW217692   6.879   2.865   4.118 -2.3209  1.0840 -0.9494
 3611SOL     OW17693   3.355   3.904   2.911  0.4496  0.4209  0.3712
 3611SOL    HW117694   3.344   3.868   2.823 -1.3753 -0.9258  1.0795
 3611SOL    HW217695   3.287   3.971   2.917 -1.7465 -1.7449  1.7654
 3612SOL     OW17696   5.017  10.283   7.788  0.2891  0.5505 -0.2636
 3612SOL    HW117697   5.003  10.211   7.727  0.7035 -0.5982  0.9555
 3612SOL    HW217698   4.932  10.298   7.828  0.0467  1.2188 -0.9959
 3613SOL     OW17699  10.266   4.156   8.038 -0.0239 -0.6250  0.0156
 3613SOL    HW117700  10.179   4.124   8.013 -0.1504 -0.6972  0.5246
 3613SOL    HW217701  10.327   4.098   7.994 -0.2367 -0.6235 -0.2832
 3614SOL     OW17702   5.360   3.728   1.392 -0.3452 -0.0503 -0.0039
 3614SOL    HW117703   5.450   3.697   1.386 -0.4945 -0.5044  0.0350
 3614SOL    HW217704   5.364   3.822   1.372  0.2286  0.0749  0.6766
 3615SOL     OW17705   6.397   9.776   5.649 -0.1797 -0.1496  0.6577
 3615SOL    HW117706   6.456   9.746   5.718  2.8465 -1.1332 -2.0790
 3615SOL    HW217707   6.370   9.864   5.677  0.0979 -0.8743  3.4789
 3616SOL     OW17708   9.965  11.932   5.248  0.7990 -0.4335 -0.0175
 3616SOL    HW117709   9.871  11.936   5.229  0.2879 -1.4119  2.1037
 3616SOL    HW217710   9.988  12.022   5.272 -0.4171 -0.7989  2.8203
 3617SOL     OW17711   2.919   9.430   7.098  0.1963  0.1663  0.0737
 3617SOL    HW117712   2.851   9.421   7.164 -0.4145 -0.9192 -0.6813
 3617SOL    HW217713   2.896   9.367   7.030  0.0432  2.1452 -1.8484
 3618SOL     OW17714  11.425   5.611  11.019 -0.3756  0.3495  0.4266
 3618SOL    HW117715  11.417   5.605  10.924 -0.0637  0.8525  0.3611
 3618SOL    HW217716  11.476   5.534  11.044 -1.4093 -0.3830  0.3203
 3619SOL     OW17717   0.198   6.105   4.594 -0.2453 -0.1123  0.4048
 3619SOL    HW117718   0.126   6.043   4.608  1.5679 -2.2593  0.7745
 3619SOL    HW217719   0.235   6.080   4.509 -1.7311  2.9914 -1.3259
 3620SOL     OW17720  10.761   8.346   1.070  0.1589  0.3439  0.0054
 3620SOL    HW117721  10.676   8.343   1.026 -0.2596 -1.0845  0.8174
 3620SOL    HW217722  10.825   8.327   1.001 -0.2504  0.6703 -0.4688
 3621SOL     OW17723   2.852   3.119   2.770  0.0096 -0.1001  0.3912
 3621SOL    HW117724   2.790   3.139   2.701 -1.3823 -0.4229  1.4917
 3621SOL    HW217725   2.902   3.045   2.738 -0.6259 -0.2501 -0.2569
 3622SOL     OW17726  11.045   9.411  11.319 -0.2549  0.1411  0.3254
 3622SOL    HW117727  11.031   9.496  11.278  0.0851  0.1422  0.2087
 3622SOL    HW217728  11.022   9.424  11.411 -3.3826 -0.4457 -0.2500
 3623SOL     OW17729   0.100   1.293  12.202  0.2845 -0.6309 -0.0703
 3623SOL    HW117730   0.063   1.226  12.261  0.5045 -0.8786 -0.2135
 3623SOL    HW217731   0.035   1.303  12.133  0.8826 -1.7296 -0.8174
 3624SOL     OW17732   7.888   5.527   9.642 -0.1267 -0.4186 -0.4925
 3624SOL    HW117733   7.822   5.580   9.597  0.8811 -1.6969 -3.8046
 3624SOL    HW217734   7.849   5.440   9.648  0.2189 -0.5402  0.0469
 3625SOL     OW17735   7.309   7.958   0.362 -0.5215  0.1410  0.2910
 3625SOL    HW117736   7.362   7.881   0.342 -0.9875 -0.0638 -0.1702
 3625SOL    HW217737   7.339   7.986   0.449  0.4353  0.1182 -0.0246
 3626SOL     OW17738   7.804   7.273   4.497  0.0423  0.2053  0.0390
 3626SOL    HW117739   7.832   7.363   4.477  2.1644 -0.2177  0.8870
 3626SOL    HW217740   7.878   7.235   4.543 -0.4325 -2.3145 -1.1332
 3627SOL     OW17741   1.834  11.113   2.422 -0.2933  0.2186  0.1511
 3627SOL    HW117742   1.830  11.048   2.492  0.3929  0.2434  0.2154
 3627SOL    HW217743   1.926  11.117   2.398 -0.6653 -0.6383 -1.5552
 3628SOL     OW17744   8.048   5.953   7.453  0.6140 -0.9443 -0.1061
 3628SOL    HW117745   7.961   5.933   7.418  0.3656  0.4146 -0.3100
 3628SOL    HW217746   8.046   5.917   7.541 -0.8845  0.7827  0.6229
 3629SOL     OW17747   9.965   4.203   1.763  0.0564  0.2101 -0.4308
 3629SOL    HW117748   9.951   4.195   1.857  0.6195 -2.8110 -0.5234
 3629SOL    HW217749  10.060   4.206   1.752  0.0034  0.3621 -0.9180
 3630SOL     OW17750   2.933   7.947   7.900  0.2690  0.0725  0.5219
 3630SOL    HW117751   2.915   7.948   7.994 -0.0468  0.8046  0.4615
 3630SOL    HW217752   2.862   7.897   7.862 -0.2612  0.7778  0.5577
 3631SOL     OW17753   0.941  11.230   7.056  0.4940 -0.6199  0.0265
 3631SOL    HW117754   0.983  11.207   6.973  0.2979 -0.5001 -0.1073
 3631SOL    HW217755   0.960  11.156   7.114  1.9562 -0.0083  0.3711
 3632SOL     OW17756   7.961   9.562   4.181 -0.1579 -0.2742  0.7577
 3632SOL    HW117757   8.031   9.567   4.115 -1.0907 -0.5911 -0.2720
 3632SOL    HW217758   7.899   9.630   4.155 -0.4746 -0.3212  1.3879
 3633SOL     OW17759   5.268  11.513   6.063 -0.2977 -0.6562 -0.6532
 3633SOL    HW117760   5.239  11.568   6.136 -0.8155 -1.0696 -0.5454
 3633SOL    HW217761   5.331  11.452   6.103 -0.7833 -1.0593 -0.4923
 3634SOL     OW17762   7.627   7.582   8.421 -0.2346 -0.4245 -0.5154
 3634SOL    HW117763   7.541   7.625   8.421  0.0586  0.1987 -1.6491
 3634SOL    HW217764   7.627   7.529   8.501 -1.6318 -0.3663 -0.4513
 3635SOL     OW17765  11.618   5.611   5.194  0.0241  0.5243  0.0874
 3635SOL    HW117766  11.672   5.534   5.212  2.1361  1.5510 -1.3458
 3635SOL    HW217767  11.604   5.651   5.280 -1.6648 -1.6985  0.9492
 3636SOL     OW17768   6.693  10.869   2.050 -0.5318  0.0037 -0.0549
 3636SOL    HW117769   6.717  10.913   2.132 -0.1080 -1.2125  0.5048
 3636SOL    HW217770   6.608  10.905   2.027 -0.6155  0.4316  0.8876
 3637SOL     OW17771   6.089   5.225   9.893 -0.0403  0.2194 -0.4530
 3637SOL    HW117772   6.160   5.193   9.837 -0.2521 -0.0168 -0.5916
 3637SOL    HW217773   6.020   5.252   9.831  0.7172  2.4263 -0.4155
 3638SOL     OW17774   1.812   0.055   3.273 -0.1983  0.1386 -0.2946
 3638SOL    HW117775   1.773  -0.032   3.271  1.9978 -0.9641  0.6480
 3638SOL    HW217776   1.811   0.080   3.365 -1.2513  1.3651 -0.6144
 3639SOL     OW17777  12.309  12.129   8.103 -0.6427  0.2706 -0.9339
 3639SOL    HW117778  12.320  12.035   8.098 -0.5630  0.3159 -1.6085
 3639SOL    HW217779  12.276  12.155   8.017 -1.3918  0.7622 -0.5119
 3640SOL     OW17780   5.519   3.204   6.644  0.5684 -0.3485  0.0338
 3640SOL    HW117781   5.565   3.131   6.686  1.1826 -0.2427 -0.4371
 3640SOL    HW217782   5.549   3.202   6.553  0.2328  0.2062 -0.0951
 3641SOL     OW17783   1.591   6.268   1.810 -0.0979  0.1581 -0.7430
 3641SOL    HW117784   1.675   6.225   1.828 -0.0460  0.2511 -0.7595
 3641SOL    HW217785   1.545   6.267   1.893 -1.0525 -1.9745 -1.2400
 3642SOL     OW17786  11.710   0.621  12.309 -0.3774 -0.0114  0.3957
 3642SOL    HW117787  11.762   0.663  12.377  1.0049  1.0302 -1.2291
 3642SOL    HW217788  11.712   0.528  12.331  1.2508  0.1419  0.9923
 3643SOL     OW17789   0.315   8.099   1.086  0.1011  0.6783 -0.4510
 3643SOL    HW117790   0.220   8.093   1.087  0.1794 -1.8675 -0.7008
 3643SOL    HW217791   0.339   8.133   1.172 -0.9964 -0.4346  0.3220
 3644SOL     OW17792   0.375   7.486   8.791 -0.0524  0.1520  0.5245
 3644SOL    HW117793   0.394   7.402   8.750 -2.1374 -0.9213  1.5604
 3644SOL    HW217794   0.454   7.539   8.776  0.8975 -1.5912 -1.0909
 3645SOL     OW17795  10.436  11.200  11.942  0.3019  0.1534  0.5986
 3645SOL    HW117796  10.420  11.143  12.017  0.6918  0.6573  1.0702
 3645SOL    HW217797  10.466  11.283  11.980 -0.6597  0.8285 -0.0515
 3646SOL     OW17798   6.701  10.268   7.296 -0.0728  0.5155  0.2283
 3646SOL    HW117799   6.696  10.181   7.255 -1.9310  1.1917 -1.1157
 3646SOL    HW217800   6.790  10.297   7.280 -0.3123  0.1286 -2.1329
 3647SOL     OW17801   9.582  11.579   1.739  0.0675  0.0470 -0.5158
 3647SOL    HW117802   9.540  11.644   1.796 -0.0835 -1.2112  0.8426
 3647SOL    HW217803   9.512  11.548   1.682  0.2112  1.2833 -1.4104
 3648SOL     OW17804   8.811   6.495   0.600 -0.0300 -0.3391  0.4658
 3648SOL    HW117805   8.730   6.444   0.591  0.4203 -0.9890 -0.0254
 3648SOL    HW217806   8.880   6.429   0.613  0.8085 -0.0198 -1.8557
 3649SOL     OW17807   5.448   0.037   5.362  0.2474  0.6868 -0.7609
 3649SOL    HW117808   5.519   0.071   5.417  0.1638  0.8976 -0.7821
 3649SOL    HW217809   5.368   0.058   5.411  0.0582  2.2836 -1.6797
 3650SOL     OW17810   4.929   1.551  11.504 -0.1581 -0.1815 -0.0082
 3650SOL    HW117811   4.963   1.573  11.591  0.1669  0.2509 -0.2412
 3650SOL    HW217812   4.889   1.465  11.515 -0.8337  0.2187  0.7631
 3651SOL     OW17813   2.546   7.790   8.209  0.2752  0.2495  0.3190
 3651SOL    HW117814   2.625   7.736   8.206  0.0756 -0.1072  1.0410
 3651SOL    HW217815   2.482   7.735   8.255 -0.6456  0.2237 -0.9567
 3652SOL     OW17816   1.377   8.904   2.392 -0.1134 -0.4698 -0.0550
 3652SOL    HW117817   1.379   8.929   2.485 -1.3883 -1.5095  0.2751
 3652SOL    HW217818   1.405   8.812   2.391  0.6615 -0.2392 -0.8059
 3653SOL     OW17819   2.032   3.144   9.055 -0.5337 -0.0865 -1.2165
 3653SOL    HW117820   2.071   3.115   8.973  0.0654 -0.7861 -0.7077
 3653SOL    HW217821   2.107   3.158   9.113 -0.9802 -0.4255 -0.5382
 3654SOL     OW17822   5.143   7.882   2.927 -0.1771  0.2768 -0.1302
 3654SOL    HW117823   5.111   7.816   2.865 -2.7552  0.6220  0.6860
 3654SOL    HW217824   5.096   7.862   3.008 -1.5051  3.3792  0.0121
 3655SOL     OW17825   5.326   2.856  10.312  0.4538  0.0446  0.3633
 3655SOL    HW117826   5.321   2.930  10.373 -2.6214 -0.7985  1.3323
 3655SOL    HW217827   5.316   2.895  10.225  4.6097  1.2374  0.1958
 3656SOL     OW17828   3.212   8.105   9.419  0.0248 -0.5781 -0.0592
 3656SOL    HW117829   3.180   8.174   9.478  0.0522 -1.6833  1.2943
 3656SOL    HW217830   3.216   8.026   9.474 -1.4248 -2.0341 -1.9273
 3657SOL     OW17831   4.492   3.613   8.943 -0.5621 -0.2671  0.4424
 3657SOL    HW117832   4.478   3.697   8.899  0.7807 -0.1421  0.2354
 3657SOL    HW217833   4.506   3.636   9.035  4.3937  0.3111 -0.1897
 3658SOL     OW17834   1.061   4.021   0.835 -0.1595  0.1371 -0.1198
 3658SOL    HW117835   1.017   3.987   0.913 -0.4138  0.3438 -0.1711
 3658SOL    HW217836   1.072   4.114   0.853  1.3235 -0.1212  0.3947
 3659SOL     OW17837   4.690   6.168  10.064  0.5823 -0.7502 -0.5191
 3659SOL    HW117838   4.689   6.103  10.134  0.1618  1.5550  1.7638
 3659SOL    HW217839   4.603   6.164  10.025  0.2574 -0.9294  0.2225
 3660SOL     OW17840   4.123   2.023   4.113  0.2077  0.0721 -0.1460
 3660SOL    HW117841   4.108   2.005   4.205  0.3091 -1.1692 -0.3553
 3660SOL    HW217842   4.037   2.012   4.072 -0.0953  1.8264 -0.0416
 3661SOL     OW17843   5.820   0.351   3.966  0.0894 -0.0009 -0.0809
 3661SOL    HW117844   5.745   0.395   3.926 -0.5299  0.0697  1.1100
 3661SOL    HW217845   5.890   0.359   3.902 -0.4431  1.3951 -0.5181
 3662SOL     OW17846   7.738   6.939   2.751 -0.4865 -0.0680 -0.3843
 3662SOL    HW117847   7.706   7.029   2.760 -2.9541 -0.8426 -0.7163
 3662SOL    HW217848   7.762   6.912   2.839 -0.1256  0.7549 -0.2219
 3663SOL     OW17849   8.517   5.089  10.728 -0.5783  0.5884  0.2063
 3663SOL    HW117850   8.577   5.038  10.783 -0.0384 -0.0393 -0.9240
 3663SOL    HW217851   8.563   5.172  10.714 -0.2916  0.3879 -0.0624
 3664SOL     OW17852   2.940   9.161   5.963  0.1779  0.0369 -0.0212
 3664SOL    HW117853   2.871   9.098   5.943  0.0467  0.4164 -0.8287
 3664SOL    HW217854   2.997   9.117   6.026 -0.6832 -0.3565  0.4933
 3665SOL     OW17855  11.252   4.952   2.155 -0.4191 -0.0988  0.5832
 3665SOL    HW117856  11.298   5.006   2.219  1.9932 -1.7888  0.4087
 3665SOL    HW217857  11.266   4.997   2.072 -0.0686  0.0134  0.6992
 3666SOL     OW17858  11.735   8.022  12.414  0.5050 -0.4755  0.1953
 3666SOL    HW117859  11.741   7.983  12.501 -1.1821 -0.3616  0.3903
 3666SOL    HW217860  11.748   8.116  12.429  2.1745 -0.6505  0.0355
 3667SOL     OW17861   8.409  12.276   9.407 -0.2205  0.1636  0.1439
 3667SOL    HW117862   8.374  12.189   9.428  0.4380 -0.1531 -0.0455
 3667SOL    HW217863   8.471  12.260   9.336 -0.5820  0.8862 -0.3487
 3668SOL     OW17864   3.657   4.131   0.175  0.2482  0.0215 -0.5086
 3668SOL    HW117865   3.680   4.199   0.238 -1.5286  0.9062 -0.7446
 3668SOL    HW217866   3.583   4.085   0.216 -1.0252  0.6977 -1.9514
 3669SOL     OW17867  10.242   7.111   8.290  0.2241  0.0250 -0.2945
 3669SOL    HW117868  10.304   7.179   8.316  0.4729  0.1769 -1.2745
 3669SOL    HW217869  10.296   7.041   8.254 -0.1295 -0.0711 -0.6461
 3670SOL     OW17870   4.648   2.432   2.938  0.2784  0.1956  0.2824
 3670SOL    HW117871   4.725   2.450   2.883  1.1896 -3.6369  0.0030
 3670SOL    HW217872   4.588   2.385   2.880  0.0092 -1.3502  1.7275
 3671SOL     OW17873   5.580   4.254   6.788  0.4039 -0.4838 -0.8368
 3671SOL    HW117874   5.524   4.316   6.741 -0.2339 -1.9026 -2.0218
 3671SOL    HW217875   5.556   4.265   6.880 -1.8650 -1.0407 -1.3035
 3672SOL     OW17876  10.484   5.439   0.551  0.0891 -0.4227  0.7279
 3672SOL    HW117877  10.544   5.406   0.485 -2.0856 -0.8639 -1.1681
 3672SOL    HW217878  10.519   5.525   0.575  2.8564 -1.7128  1.7161
 3673SOL     OW17879   8.425   0.455   9.153 -0.5557  0.0322 -0.4057
 3673SOL    HW117880   8.501   0.458   9.094 -0.5653 -2.5498 -0.6379
 3673SOL    HW217881   8.460   0.477   9.239  0.0203  0.8985 -0.8430
 3674SOL     OW17882   3.466   7.749   2.729  0.4102  0.0376 -0.3988
 3674SOL    HW117883   3.471   7.702   2.645 -0.9417 -0.4830 -0.2097
 3674SOL    HW217884   3.471   7.842   2.705  0.0337 -0.1072 -1.0551
 3675SOL     OW17885   3.563   5.737   3.256 -0.4046  0.0818 -0.0423
 3675SOL    HW117886   3.542   5.646   3.235  0.2488  0.4254 -2.6009
 3675SOL    HW217887   3.491   5.787   3.218 -0.7963  0.6724  1.4070
 3676SOL     OW17888   3.514  10.472   4.153 -0.4395  0.2148  0.0761
 3676SOL    HW117889   3.591  10.420   4.128  0.4332  0.6969  1.6633
 3676SOL    HW217890   3.462  10.477   4.072  1.0859 -0.2919 -0.9880
 3677SOL     OW17891   8.530   4.350   8.364 -0.7347  0.3336 -0.1374
 3677SOL    HW117892   8.483   4.288   8.420 -0.1923  0.1292  0.0981
 3677SOL    HW217893   8.604   4.299   8.330  0.0780  1.0293  0.5600
 3678SOL     OW17894  10.383   5.597  12.374 -0.3065 -0.4131 -0.6150
 3678SOL    HW117895  10.381   5.686  12.407  0.7277 -0.0787 -1.3699
 3678SOL    HW217896  10.303   5.556  12.407  0.0822  0.2422  1.2321
 3679SOL     OW17897  10.305   3.483   2.192 -0.0094  0.1910 -0.0378
 3679SOL    HW117898  10.215   3.450   2.191  0.1994 -0.4509 -1.9263
 3679SOL    HW217899  10.299   3.568   2.149  0.4836 -0.5946 -1.7623
 3680SOL     OW17900  10.847  12.067   1.412 -0.0416  0.0505  0.5370
 3680SOL    HW117901  10.787  12.113   1.353  0.5791  0.6019  0.3282
 3680SOL    HW217902  10.910  12.025   1.354  1.0412  1.2442  0.8139
 3681SOL     OW17903   0.929   2.582  11.533  0.0945  0.3115 -0.7081
 3681SOL    HW117904   1.018   2.564  11.502  0.2789  0.6802 -0.3963
 3681SOL    HW217905   0.911   2.671  11.504  0.6917  1.0913  1.1807
 3682SOL     OW17906  11.784   9.260  11.437 -0.3046 -0.3716 -0.2985
 3682SOL    HW117907  11.730   9.300  11.506 -1.3430  1.4840 -2.0995
 3682SOL    HW217908  11.787   9.167  11.461 -1.2362  0.0859  1.8465
 3683SOL     OW17909   5.226   9.990   2.082 -0.1263  0.0505 -0.8654
 3683SOL    HW117910   5.285   9.916   2.071  1.1886  1.1532 -1.4707
 3683SOL    HW217911   5.267  10.061   2.033  0.0845  1.9775  1.8613
 3684SOL     OW17912   4.982   8.912   2.076  0.0250  0.0304  0.0014
 3684SOL    HW117913   4.910   8.852   2.057  0.2363  0.3893 -2.1935
 3684SOL    HW217914   4.940   8.990   2.112 -0.6875  0.1372 -1.0176
 3685SOL     OW17915   3.612   6.583   6.815 -0.2744  0.3363  0.1822
 3685SOL    HW117916   3.614   6.660   6.872  0.7212  0.0165  0.6036
 3685SOL    HW217917   3.655   6.514   6.867 -0.2725 -0.2323 -0.5633
 3686SOL     OW17918   6.255  11.609  12.411 -0.2222  0.1529 -0.5690
 3686SOL    HW117919   6.255  11.597  12.506 -1.4662  0.1839 -0.5540
 3686SOL    HW217920   6.280  11.524  12.375 -0.3855 -0.0333 -0.2373
 3687SOL     OW17921   1.852   5.190   3.803  0.1407  0.5763  0.0496
 3687SOL    HW117922   1.939   5.230   3.803  0.3281  0.1891  0.3635
 3687SOL    HW217923   1.826   5.188   3.711  0.2662  1.1130  0.0025
 3688SOL     OW17924   8.253   6.952   5.120 -0.2939 -0.0696  0.2970
 3688SOL    HW117925   8.262   7.048   5.119 -1.3105  0.0470 -1.1675
 3688SOL    HW217926   8.162   6.937   5.146 -0.4368 -0.5904 -0.4823
 3689SOL     OW17927   0.870   3.296   5.026 -0.0824 -0.4418 -0.8005
 3689SOL    HW117928   0.814   3.255   5.092  1.1908 -2.3586 -0.8320
 3689SOL    HW217929   0.909   3.223   4.978  1.6055  0.8294 -1.4795
 3690SOL     OW17930   5.731   8.459   6.981  0.1250  0.6171  0.4266
 3690SOL    HW117931   5.745   8.418   6.896 -1.3497  2.5252 -0.8150
 3690SOL    HW217932   5.784   8.538   6.978  0.5955  0.3666  1.5887
 3691SOL     OW17933   9.927   1.028  10.799 -0.1745  0.2164  0.0238
 3691SOL    HW117934   9.995   1.087  10.828 -0.5643  0.7176 -0.0748
 3691SOL    HW217935   9.942   1.018  10.705  0.0958 -0.1194  0.0979
 3692SOL     OW17936   5.525   9.012   8.153 -0.0244 -0.1813 -0.5870
 3692SOL    HW117937   5.561   9.090   8.194 -0.3550 -0.5914  0.5546
 3692SOL    HW217938   5.601   8.956   8.135  0.0818 -0.2464  0.0431
 3693SOL     OW17939   6.540   6.970   9.474  0.0400 -0.1202 -0.3954
 3693SOL    HW117940   6.569   7.054   9.436  2.2535 -0.9279 -0.6583
 3693SOL    HW217941   6.614   6.911   9.460 -0.6100 -1.5519  1.6863
 3694SOL     OW17942   2.824   6.613   8.180 -0.0633  0.5610 -0.6600
 3694SOL    HW117943   2.831   6.641   8.089 -0.3548 -0.0426 -0.8738
 3694SOL    HW217944   2.733   6.588   8.191  0.3666 -1.1812 -0.7557
 3695SOL     OW17945  10.723   6.247  11.783  0.0767  0.1790  0.7591
 3695SOL    HW117946  10.815   6.241  11.809  0.7651 -1.2594 -1.6580
 3695SOL    HW217947  10.720   6.323  11.725  0.1223 -0.6955 -0.4191
 3696SOL     OW17948   3.692   9.854  11.411  0.1886 -0.0713  0.5756
 3696SOL    HW117949   3.700   9.759  11.399 -0.8703 -0.1673  0.5304
 3696SOL    HW217950   3.630   9.863  11.484 -0.0389  0.5901  0.3062
 3697SOL     OW17951   3.014   8.318   1.278 -0.5296  0.1479 -0.0804
 3697SOL    HW117952   3.014   8.410   1.304 -0.0888  0.4667 -1.1434
 3697SOL    HW217953   2.928   8.286   1.304 -1.5350  1.4530 -1.6280
 3698SOL     OW17954   0.962   9.778   6.657  0.4315 -0.2542 -0.0257
 3698SOL    HW117955   1.039   9.804   6.606  1.0532  0.5237  1.2427
 3698SOL    HW217956   0.935   9.694   6.620  3.2406 -1.6798  0.8760
 3699SOL     OW17957   0.565   4.579   1.183 -0.2733 -1.0369 -0.1372
 3699SOL    HW117958   0.659   4.565   1.177 -0.4463 -2.0034 -0.9088
 3699SOL    HW217959   0.552   4.668   1.151  0.3852 -0.8210  0.1665
 3700SOL     OW17960  12.007   4.015   1.185 -0.1841 -0.7205 -0.0787
 3700SOL    HW117961  12.094   3.984   1.158  0.0802  1.6035 -2.2441
 3700SOL    HW217962  12.021   4.055   1.270  0.9410 -0.2129 -0.4756
 3701SOL     OW17963   6.848   6.830   6.601  0.0511  0.0314 -0.4826
 3701SOL    HW117964   6.796   6.823   6.681  0.3727  0.6826 -0.2152
 3701SOL    HW217965   6.895   6.913   6.610  0.3844 -0.0808 -1.1703
 3702SOL     OW17966   3.653   4.349   2.252 -0.6939  0.1145  0.4580
 3702SOL    HW117967   3.680   4.356   2.160  0.5614 -1.6983  0.6390
 3702SOL    HW217968   3.558   4.355   2.249 -0.6293  0.9345 -0.8607
 3703SOL     OW17969   1.961  11.477   2.954 -0.2950  0.5588 -0.2819
 3703SOL    HW117970   1.956  11.399   2.898 -0.8910  1.6459 -1.8215
 3703SOL    HW217971   1.871  11.507   2.961 -0.1736  0.6741  0.9745
 3704SOL     OW17972   4.639   1.327   0.096  0.4124 -0.4419  0.3122
 3704SOL    HW117973   4.607   1.418   0.101 -0.2246 -0.7171  1.8356
 3704SOL    HW217974   4.574   1.277   0.146  0.7965 -1.7385 -0.4533
 3705SOL     OW17975   3.552   6.468   8.332  0.0061 -0.3857  0.6461
 3705SOL    HW117976   3.578   6.377   8.341  1.4558 -0.0251  0.3727
 3705SOL    HW217977   3.456   6.466   8.327  0.0551 -1.9409 -0.1155
 3706SOL     OW17978   4.536  11.189  12.003  0.0764 -0.4986 -0.2189
 3706SOL    HW117979   4.456  11.242  12.007  0.0860 -0.5243  0.3492
 3706SOL    HW217980   4.540  11.146  12.088  0.2294 -1.1804 -0.5658
 3707SOL     OW17981   8.564   2.898   9.016 -0.2652 -0.6572  0.4000
 3707SOL    HW117982   8.633   2.885   9.081  0.3249 -1.6905 -0.4023
 3707SOL    HW217983   8.537   2.809   8.991 -3.9502 -0.3848  2.7717
 3708SOL     OW17984   9.574   2.451   0.129 -0.1492  0.0128 -0.0829
 3708SOL    HW117985   9.613   2.399   0.199  2.1152  0.2977 -1.0317
 3708SOL    HW217986   9.584   2.542   0.158  2.2796  0.2496 -1.3227
 3709SOL     OW17987   3.412   9.605   2.510 -0.0876  0.1510 -0.1613
 3709SOL    HW117988   3.441   9.658   2.436 -0.7520  3.1700  1.5550
 3709SOL    HW217989   3.331   9.565   2.480 -0.0187  0.8072 -1.2868
 3710SOL     OW17990   4.357  11.926   9.223  0.6568 -0.1385 -0.1655
 3710SOL    HW117991   4.294  11.998   9.213  1.6546  0.7398 -0.3124
 3710SOL    HW217992   4.313  11.851   9.184 -1.0530 -0.0116  1.3792
 3711SOL     OW17993   7.310   3.304   9.761  0.6091  0.2291  0.6741
 3711SOL    HW117994   7.364   3.275   9.688 -0.8574  0.2497 -0.4812
 3711SOL    HW217995   7.342   3.391   9.782  1.0254  0.2392  0.0173
 3712SOL     OW17996   3.871  12.105   1.011 -0.1667  0.6093 -0.0077
 3712SOL    HW117997   3.866  12.074   1.102  0.6354 -0.4772 -0.3105
 3712SOL    HW217998   3.791  12.072   0.971  0.7189 -1.2342 -0.3473
 3713SOL     OW17999   5.264   7.652  12.371  0.0932  0.1348  0.4059
 3713SOL    HW118000   5.227   7.722  12.318 -1.9143 -0.3711  1.0285
 3713SOL    HW218001   5.261   7.685  12.461 -0.2815 -0.4904  0.6344
 3714SOL     OW18002  11.025   2.607   2.137  0.1171 -0.1619  0.5184
 3714SOL    HW118003  11.099   2.638   2.189  1.6839  0.6635 -1.9951
 3714SOL    HW218004  11.012   2.675   2.071 -1.7440 -1.1274 -0.1735
 3715SOL     OW18005   5.885   9.863   6.435 -0.6328 -0.4231 -0.7338
 3715SOL    HW118006   5.792   9.857   6.457 -1.1353  1.6487 -1.9787
 3715SOL    HW218007   5.901   9.958   6.429  1.4232 -0.7583 -1.0889
 3716SOL     OW18008   3.605   4.075   2.611  0.1501 -0.3198 -0.3254
 3716SOL    HW118009   3.571   4.146   2.667 -2.3220 -0.5529 -1.3985
 3716SOL    HW218010   3.594   4.108   2.522  2.1670 -0.7491 -0.7680
 3717SOL     OW18011   8.671   5.614  10.215 -0.5684  0.5067 -0.0385
 3717SOL    HW118012   8.601   5.648  10.159  0.3361 -0.3330 -1.7453
 3717SOL    HW218013   8.703   5.536  10.169 -0.3891 -0.7818  2.1260
 3718SOL     OW18014   5.850  10.827   3.506  0.2568  0.6619 -0.0118
 3718SOL    HW118015   5.887  10.852   3.591 -0.0232 -2.4911  1.1875
 3718SOL    HW218016   5.925  10.829   3.446  0.6023  2.2341  0.4187
 3719SOL     OW18017   3.725   8.092  12.134  0.4041  0.5714 -0.1453
 3719SOL    HW118018   3.646   8.112  12.185  0.2152  0.9424 -0.5788
 3719SOL    HW218019   3.755   8.008  12.169 -1.6832 -0.9362 -1.7268
 3720SOL     OW18020   2.724   3.404  11.906 -0.0685  0.2293 -0.2162
 3720SOL    HW118021   2.740   3.420  11.999  0.3264 -0.8901 -0.0672
 3720SOL    HW218022   2.654   3.464  11.882  0.3218  1.0377  0.6217
 3721SOL     OW18023   2.308   3.370   3.586 -0.2821 -0.5262 -0.1029
 3721SOL    HW118024   2.351   3.321   3.656 -2.6711 -1.6314  0.7152
 3721SOL    HW218025   2.285   3.454   3.626  2.0918  0.6181 -0.9305
 3722SOL     OW18026   3.768   6.645   1.465  0.1868  0.0196 -0.3900
 3722SOL    HW118027   3.726   6.564   1.492  1.2799 -0.3797  0.1653
 3722SOL    HW218028   3.759   6.703   1.541 -2.8593  1.3978 -1.6385
 3723SOL     OW18029  11.837   0.792   4.815  0.1341  0.3508  0.3143
 3723SOL    HW118030  11.807   0.870   4.861 -2.5101  0.4596 -1.3689
 3723SOL    HW218031  11.850   0.726   4.883  1.9045  2.0441  1.7050
 3724SOL     OW18032   5.883   9.482   2.718  0.8434 -0.0223 -0.1077
 3724SOL    HW118033   5.861   9.389   2.731 -1.4614  0.6388  1.3016
 3724SOL    HW218034   5.972   9.490   2.752  0.8831 -1.6203  0.2820
 3725SOL     OW18035   9.259   8.006   9.408  0.1361 -0.0705  0.3383
 3725SOL    HW118036   9.305   7.985   9.489 -1.1067 -0.1033  1.0586
 3725SOL    HW218037   9.166   7.998   9.430 -0.3122  2.2730 -0.4168
 3726SOL     OW18038   6.880   5.386   7.398 -0.3257 -0.1167 -0.2624
 3726SOL    HW118039   6.876   5.439   7.478 -1.0469  0.6969 -0.8077
 3726SOL    HW218040   6.968   5.401   7.364  0.3663 -1.2975  0.8919
 3727SOL     OW18041  11.201   7.498   2.545  0.5674  0.2947  0.7605
 3727SOL    HW118042  11.193   7.411   2.506  0.7404 -1.1209  3.6799
 3727SOL    HW218043  11.180   7.558   2.473 -0.1925 -2.1361 -1.1809
 3728SOL     OW18044   3.606  10.468   7.155  0.3221  0.0777 -0.5811
 3728SOL    HW118045   3.626  10.508   7.239  1.5897  3.0806 -2.1736
 3728SOL    HW218046   3.535  10.522   7.119  0.3684 -0.6338 -1.7880
 3729SOL     OW18047  10.770  10.726   2.323  0.0773  0.2026 -0.1961
 3729SOL    HW118048  10.728  10.760   2.244  2.1781 -1.3993 -2.1045
 3729SOL    HW218049  10.699  10.685   2.372 -1.4864  2.2726 -0.5745
 3730SOL     OW18050  12.452   5.990   5.248 -0.3259 -0.3308  0.7255
 3730SOL    HW118051  12.513   5.975   5.175 -0.1410 -1.8859  1.1735
 3730SOL    HW218052  12.493   6.060   5.298  2.4222 -2.8628  2.3369
 3731SOL     OW18053  10.753   4.568  12.043 -0.4160 -0.2690 -0.3651
 3731SOL    HW118054  10.689   4.538  12.107 -0.4419  0.4903 -0.0330
 3731SOL    HW218055  10.738   4.513  11.966 -3.2653  1.5788 -1.2871
 3732SOL     OW18056   9.511  10.173  10.540  0.7315  0.3084  0.2157
 3732SOL    HW118057   9.539  10.172  10.631  1.2438  1.3804  0.0833
 3732SOL    HW218058   9.433  10.117  10.538  0.1764  1.0051  1.4839
 3733SOL     OW18059  11.340   8.985   8.592  0.4210  0.0802 -0.5691
 3733SOL    HW118060  11.355   9.071   8.631  0.3640  0.5601 -1.5860
 3733SOL    HW218061  11.319   8.929   8.666 -1.9322  1.4655 -0.0957
 3734SOL     OW18062  10.898   5.655   9.016  0.0606 -0.0106 -0.2187
 3734SOL    HW118063  10.963   5.586   9.025 -0.0061 -0.4682 -2.5387
 3734SOL    HW218064  10.877   5.680   9.106  1.0231 -2.1154  0.6750
 3735SOL     OW18065   6.486   6.844   1.940 -0.3524  0.0021  0.6699
 3735SOL    HW118066   6.394   6.817   1.934 -0.4010 -0.5142  2.9977
 3735SOL    HW218067   6.481   6.937   1.965 -0.2126  0.2009 -0.0149
 3736SOL     OW18068   9.768  10.472   8.495 -0.7712  0.0081  0.1235
 3736SOL    HW118069   9.740  10.382   8.511 -1.9961  0.3792  0.1758
 3736SOL    HW218070   9.691  10.515   8.458  0.5080  0.4297 -2.2504
 3737SOL     OW18071   6.598   6.018   9.160  0.0985  0.1076  0.0827
 3737SOL    HW118072   6.562   5.944   9.112  0.2891  0.0901 -0.0335
 3737SOL    HW218073   6.623   5.982   9.245  0.5226 -0.0398 -0.1037
 3738SOL     OW18074   8.630   0.719   5.721  0.6754 -0.0605  0.0129
 3738SOL    HW118075   8.649   0.703   5.629  0.1441 -0.0349 -0.1041
 3738SOL    HW218076   8.581   0.641   5.750  0.8948 -0.0976  0.2875
 3739SOL     OW18077   2.554   9.005   8.905 -0.8255  0.2279 -0.1665
 3739SOL    HW118078   2.551   9.100   8.914  2.6405  0.5547 -0.9618
 3739SOL    HW218079   2.585   8.973   8.990  0.4880  0.0934 -0.6823
 3740SOL     OW18080   6.729   0.428   5.478 -0.4708  0.4719 -0.1699
 3740SOL    HW118081   6.644   0.432   5.521 -0.0324 -1.5616  1.0489
 3740SOL    HW218082   6.718   0.477   5.397 -2.2949  1.6524  0.7229
 3741SOL     OW18083   8.274   5.515  11.157  0.0166  0.3086  0.0222
 3741SOL    HW118084   8.259   5.457  11.082 -0.4922 -0.2198  0.5235
 3741SOL    HW218085   8.294   5.456  11.230  2.4299  0.8656 -0.0775
 3742SOL     OW18086   4.428   7.619  10.282 -0.1740 -0.3166 -0.1590
 3742SOL    HW118087   4.440   7.627  10.188  2.2891 -0.9912  0.0238
 3742SOL    HW218088   4.378   7.538  10.294 -3.3420  1.3529 -0.9159
 3743SOL     OW18089  11.621   1.633  12.471 -0.3073 -1.1706 -0.6833
 3743SOL    HW118090  11.646   1.667  12.385  0.7617 -3.0796 -1.1867
 3743SOL    HW218091  11.702   1.597  12.507 -1.1906 -2.3690  0.1756
 3744SOL     OW18092  12.224   4.506   5.185  0.2843  0.1778 -0.4585
 3744SOL    HW118093  12.160   4.478   5.251  0.6360 -0.6246 -0.4516
 3744SOL    HW218094  12.292   4.438   5.187  2.0277  1.8545  0.7449
 3745SOL     OW18095   5.014   8.564  11.782 -0.1489 -0.2573  0.0163
 3745SOL    HW118096   5.036   8.473  11.803  0.3793 -0.2818 -0.6072
 3745SOL    HW218097   5.083   8.592  11.721 -0.1428  0.6545  0.4207
 3746SOL     OW18098  10.557  12.350   0.293 -0.3177 -0.0633 -0.3860
 3746SOL    HW118099  10.587  12.294   0.364 -1.5002 -1.4336 -0.9085
 3746SOL    HW218100  10.482  12.396   0.328  1.5971  2.5761  0.5831
 3747SOL     OW18101  10.178   8.902   2.748 -0.2757 -0.1320 -0.2452
 3747SOL    HW118102  10.147   8.986   2.782 -0.6835  1.1154 -3.3435
 3747SOL    HW218103  10.272   8.915   2.734 -0.0812 -0.6881  0.4416
 3748SOL     OW18104  10.401   9.731   4.737  0.3134 -0.5419  0.4731
 3748SOL    HW118105  10.322   9.756   4.691 -0.0294  0.6515  1.6285
 3748SOL    HW218106  10.401   9.636   4.736  1.2784 -0.6608 -3.5031
 3749SOL     OW18107   2.004  10.036   9.555 -0.1041  0.1972  0.7867
 3749SOL    HW118108   1.911  10.022   9.536 -0.2773  0.0088  1.7578
 3749SOL    HW218109   2.006  10.061   9.647  0.9804 -1.6189  1.2994
 3750SOL     OW18110   9.555   2.425   9.396  0.2063  0.0924 -0.2427
 3750SOL    HW118111   9.552   2.410   9.490 -1.1890  2.2541  0.1251
 3750SOL    HW218112   9.519   2.345   9.357 -2.2700  0.3936  1.2462
 3751SOL     OW18113   4.397   8.547   4.339  0.2699  0.2537 -0.3668
 3751SOL    HW118114   4.429   8.505   4.420  0.0408 -1.1691 -0.9832
 3751SOL    HW218115   4.396   8.477   4.274  0.2238  1.3236 -1.5629
 3752SOL     OW18116   6.880   2.900  10.968  0.4895 -0.3110  0.9161
 3752SOL    HW118117   6.836   2.863  10.892  2.6166  1.1836 -1.1902
 3752SOL    HW218118   6.970   2.867  10.962  1.1128  1.0996  1.8293
 3753SOL     OW18119   1.715   2.709  12.093  0.4561  0.2472  0.2217
 3753SOL    HW118120   1.622   2.694  12.114 -0.1732  0.6746 -1.9431
 3753SOL    HW218121   1.719   2.802  12.068  1.4778  0.2494  0.3728
 3754SOL     OW18122   7.186   8.143  10.038  0.6297 -0.1636  0.0010
 3754SOL    HW118123   7.131   8.097  10.102  0.5675 -0.4518 -0.2543
 3754SOL    HW218124   7.191   8.233  10.071  0.1468 -0.1749  0.1174
 3755SOL     OW18125   0.085   8.509  11.648 -0.3761  0.6730  0.5260
 3755SOL    HW118126   0.073   8.414  11.649 -0.1427  0.5567  4.0395
 3755SOL    HW218127  -0.000   8.544  11.623 -0.2877 -0.4077 -1.4678
 3756SOL     OW18128   3.680  12.221   2.306  0.1451  0.6181  0.2932
 3756SOL    HW118129   3.653  12.312   2.301 -1.3396  0.2342  0.9463
 3756SOL    HW218130   3.771  12.224   2.337  0.2680  1.8690 -0.1486
 3757SOL     OW18131   8.906   1.427   8.009 -0.2396  0.0002  0.6509
 3757SOL    HW118132   8.998   1.452   8.019  0.1214 -0.9335 -0.2177
 3757SOL    HW218133   8.908   1.345   7.959 -1.5689  0.2824  0.0831
 3758SOL     OW18134  11.889   3.842   7.901 -0.0296 -0.7854 -0.0749
 3758SOL    HW118135  11.858   3.767   7.951  1.4763 -1.6442 -0.3754
 3758SOL    HW218136  11.964   3.875   7.951 -0.2730  0.1214 -0.2891
 3759SOL     OW18137  11.428  10.949  11.808  0.5127  0.2335 -0.4384
 3759SOL    HW118138  11.448  10.857  11.826  1.8738  0.3698 -1.1711
 3759SOL    HW218139  11.476  10.969  11.728  0.0608  1.5301 -0.4036
 3760SOL     OW18140   4.063   2.635   5.495  0.0294 -0.4151  0.0385
 3760SOL    HW118141   4.033   2.623   5.586 -1.5756 -1.6796 -0.6087
 3760SOL    HW218142   4.146   2.683   5.504 -1.2115  1.6015  2.0421
 3761SOL     OW18143   1.561  10.911   0.784 -0.4286 -0.1637  0.2070
 3761SOL    HW118144   1.595  10.823   0.800  0.1458 -0.3490 -1.7874
 3761SOL    HW218145   1.637  10.962   0.757 -1.0803  0.4171 -0.5839
 3762SOL     OW18146   3.461   5.915   9.619 -0.3087 -0.0485 -0.3579
 3762SOL    HW118147   3.402   5.863   9.673 -0.3803  0.0651 -0.3270
 3762SOL    HW218148   3.542   5.920   9.670 -0.5192  0.4205 -0.0704
 3763SOL     OW18149   7.015   7.943   9.065  0.7375  0.4252  0.1374
 3763SOL    HW118150   6.998   7.992   9.145 -0.7421 -0.5798  0.4807
 3763SOL    HW218151   7.056   7.862   9.094 -2.2434 -1.1654  0.2422
 3764SOL     OW18152   9.702   1.849   7.867  0.3769  0.2914 -0.4022
 3764SOL    HW118153   9.795   1.865   7.850  0.9681 -0.2700  1.8739
 3764SOL    HW218154   9.665   1.936   7.883  0.6149  0.4670 -0.7919
 3765SOL     OW18155   0.171   8.463   5.225 -0.1416 -0.2295  0.1810
 3765SOL    HW118156   0.191   8.489   5.135 -1.1044 -3.7265 -1.2332
 3765SOL    HW218157   0.085   8.502   5.243  0.2582  0.8601 -0.2179
 3766SOL     OW18158   9.044   5.479   7.439 -0.0420  0.5959  1.0015
 3766SOL    HW118159   8.995   5.509   7.363 -2.3578  0.9650  2.5554
 3766SOL    HW218160   9.100   5.553   7.463 -0.6189  1.1202  0.7379
 3767SOL     OW18161   5.205   1.761   4.808 -0.8009 -0.2144 -0.1972
 3767SOL    HW118162   5.161   1.682   4.840 -2.1919  0.7535  0.3377
 3767SOL    HW218163   5.281   1.728   4.760 -2.8425 -2.0614 -2.4307
 3768SOL     OW18164  11.966   3.706  12.093  0.0193 -0.1309  0.0257
 3768SOL    HW118165  11.983   3.640  12.160  3.5099  0.8122  0.2730
 3768SOL    HW218166  11.924   3.778  12.139  2.0739  0.3684  1.2411
 3769SOL     OW18167   9.383   8.191   9.260 -0.3688 -0.3711  0.4189
 3769SOL    HW118168   9.296   8.229   9.247 -1.2923 -2.3741  0.3023
 3769SOL    HW218169   9.368   8.118   9.321  1.2188 -0.7535  0.3785
 3770SOL     OW18170   8.937   4.439   6.904  0.1200 -0.1327  0.6697
 3770SOL    HW118171   8.898   4.454   6.818 -0.6238  3.0081  1.4303
 3770SOL    HW218172   8.867   4.401   6.956  0.6785 -2.3932 -0.1200
 3771SOL     OW18173   6.457   6.724   0.856  0.3297 -0.2405 -0.1659
 3771SOL    HW118174   6.485   6.646   0.808  1.2430  1.1095 -1.9565
 3771SOL    HW218175   6.535   6.751   0.905  0.2126 -0.0964 -0.0583
 3772SOL     OW18176   3.211   5.435   4.397 -0.0885 -0.3637  0.1396
 3772SOL    HW118177   3.169   5.412   4.480 -0.2574  1.0208  0.4684
 3772SOL    HW218178   3.221   5.530   4.401  3.1314 -0.5849  0.1387
 3773SOL     OW18179   9.766   3.327   3.473 -0.3902 -0.3037  0.0722
 3773SOL    HW118180   9.826   3.253   3.467 -0.0505 -0.0410  0.1572
 3773SOL    HW218181   9.681   3.288   3.492 -0.3207 -0.7091 -0.4335
 3774SOL     OW18182   5.723   7.642   2.235 -0.5509 -0.3100 -0.3102
 3774SOL    HW118183   5.627   7.638   2.235 -0.6196  0.2198  1.6267
 3774SOL    HW218184   5.747   7.626   2.327  1.1773  0.4010 -0.6123
 3775SOL     OW18185   4.134   5.951   6.466  0.4535 -0.0858 -0.5999
 3775SOL    HW118186   4.055   5.928   6.416 -1.3042 -1.3356  2.5003
 3775SOL    HW218187   4.139   5.885   6.535  4.4904 -0.2422 -0.8088
 3776SOL     OW18188   7.030   8.043  10.932  0.1000 -0.3011  0.7451
 3776SOL    HW118189   7.017   7.950  10.951  0.3539 -0.1988  1.4292
 3776SOL    HW218190   6.946   8.084  10.952 -0.8216 -0.7102 -1.8611
 3777SOL     OW18191   2.100   0.318   1.715  0.1457 -0.4736  0.5331
 3777SOL    HW118192   2.145   0.276   1.788  0.8677  2.3262  1.8440
 3777SOL    HW218193   2.019   0.351   1.754  0.1523  0.3474 -0.1380
 3778SOL     OW18194   8.688   1.416   8.222 -0.2237  0.4975 -0.2987
 3778SOL    HW118195   8.679   1.505   8.257  0.0162 -0.1804  1.6075
 3778SOL    HW218196   8.779   1.412   8.191 -0.0800  0.7624  0.0818
 3779SOL     OW18197   5.682  11.120   5.087 -0.1608 -0.0601  0.6691
 3779SOL    HW118198   5.768  11.098   5.123 -1.1864 -1.5810  2.4129
 3779SOL    HW218199   5.634  11.157   5.162 -0.8264  1.4609 -0.4594
 3780SOL     OW18200   6.552   4.939   7.810 -0.5432  0.2340  0.5527
 3780SOL    HW118201   6.478   4.887   7.843 -2.8226  2.3364 -0.8824
 3780SOL    HW218202   6.540   4.939   7.715  2.5970 -1.0235  0.0165
 3781SOL     OW18203  11.576   0.451   9.494 -0.0597  0.6215  0.6690
 3781SOL    HW118204  11.525   0.523   9.531 -0.4166  1.5479 -1.4869
 3781SOL    HW218205  11.532   0.430   9.412  0.8700 -1.1267  0.5642
 3782SOL     OW18206   7.389   2.979   1.922  0.3393  0.0816 -0.1029
 3782SOL    HW118207   7.342   2.961   2.004  2.0691 -2.3065  0.4531
 3782SOL    HW218208   7.333   2.944   1.854 -1.8979  3.4981 -0.2728
 3783SOL     OW18209   3.399   6.051  11.822  0.0005 -0.4785 -0.4397
 3783SOL    HW118210   3.352   6.074  11.902 -2.1613 -0.1421 -1.7253
 3783SOL    HW218211   3.386   5.957  11.813  0.1000 -0.4869 -0.5038
 3784SOL     OW18212   5.298   0.516  10.088  0.1758 -0.4103  0.3947
 3784SOL    HW118213   5.206   0.523  10.063  0.7758  2.0983 -1.5457
 3784SOL    HW218214   5.297   0.511  10.184 -1.9591  0.1099  0.4333
 3785SOL     OW18215  12.139   6.950   4.077  0.1859 -0.2667 -0.3138
 3785SOL    HW118216  12.166   7.040   4.098 -1.7432  0.0582  1.0273
 3785SOL    HW218217  12.209   6.895   4.112  1.7840  0.6877 -1.8517
 3786SOL     OW18218   4.488   9.117   6.975  0.0679  0.5303 -0.0201
 3786SOL    HW118219   4.503   9.211   6.981  0.4520  0.5553 -1.0899
 3786SOL    HW218220   4.489   9.099   6.881 -0.6531 -0.4391  0.1431
 3787SOL     OW18221   1.124   2.676   4.196 -0.0566  0.4828 -0.0916
 3787SOL    HW118222   1.213   2.710   4.208 -0.3250  0.8010  1.1136
 3787SOL    HW218223   1.136   2.585   4.170  0.6238  0.6181 -0.2636
 3788SOL     OW18224   7.245  10.630  10.320 -0.6610 -0.2340 -0.0462
 3788SOL    HW118225   7.161  10.653  10.279 -0.9092 -0.4401  0.3425
 3788SOL    HW218226   7.309  10.639  10.249 -1.2684 -1.9493 -0.8845
 3789SOL     OW18227   9.684   9.669   9.810  0.7446  0.6733 -0.3435
 3789SOL    HW118228   9.646   9.678   9.722 -0.0409  0.5306 -0.0267
 3789SOL    HW218229   9.694   9.575   9.822 -0.8690  0.5776  0.4242
 3790SOL     OW18230   6.357  10.044   5.068  0.0270  0.1509  0.1928
 3790SOL    HW118231   6.317   9.983   5.006 -0.6634 -1.3154  1.9838
 3790SOL    HW218232   6.420  10.093   5.015  0.9338 -2.3961 -1.3256
 3791SOL     OW18233  10.948   9.939  10.591 -0.1975 -0.0860 -0.3511
 3791SOL    HW118234  10.989   9.857  10.565  0.7208  0.3114 -0.1686
 3791SOL    HW218235  11.005   9.975  10.658 -0.5705  0.7278 -0.4562
 3792SOL     OW18236   5.392   5.058   9.341  0.1082 -0.6555  0.8149
 3792SOL    HW118237   5.357   5.146   9.357 -1.4934 -0.7454 -1.7290
 3792SOL    HW218238   5.483   5.073   9.314 -0.3849  0.3426 -0.3977
 3793SOL     OW18239   0.900   5.822  10.132  0.6122 -0.2863 -0.1173
 3793SOL    HW118240   0.865   5.822  10.043  1.6431  1.1616 -0.5572
 3793SOL    HW218241   0.946   5.738  10.140  0.0324 -0.6735 -0.7396
 3794SOL     OW18242   7.926   0.150  11.608  0.4033  0.3933 -0.2689
 3794SOL    HW118243   7.842   0.122  11.573  0.3285 -1.4630  1.2095
 3794SOL    HW218244   7.908   0.171  11.700  1.6727 -0.9996  0.3547
 3795SOL     OW18245   9.971   7.130   0.236 -0.6917  0.6263 -0.3248
 3795SOL    HW118246  10.008   7.046   0.264 -0.0220  0.6730 -1.0345
 3795SOL    HW218247   9.987   7.133   0.141 -2.5785  0.6230 -0.6872
 3796SOL     OW18248   7.502   3.643   5.826  0.3786  0.3653  0.9368
 3796SOL    HW118249   7.514   3.566   5.882  0.1350 -0.8722 -0.6477
 3796SOL    HW218250   7.570   3.704   5.855  0.4439 -0.3404  2.3738
 3797SOL     OW18251   2.831   8.111   6.785  0.3087 -0.0202 -0.4009
 3797SOL    HW118252   2.759   8.151   6.833  0.0177 -0.5053 -0.4216
 3797SOL    HW218253   2.906   8.168   6.800  0.0789  0.1318  0.1601
 3798SOL     OW18254   8.132   6.935  11.315  0.2315  0.5764 -0.5829
 3798SOL    HW118255   8.086   6.947  11.398  1.5316 -0.3531  0.3054
 3798SOL    HW218256   8.065   6.900  11.256 -0.8400  1.7544 -0.1033
 3799SOL     OW18257   0.824  11.841   8.183 -0.0081  0.3967 -0.0337
 3799SOL    HW118258   0.830  11.777   8.254  0.1839 -0.4958 -0.8217
 3799SOL    HW218259   0.751  11.898   8.207 -0.6605 -0.5781  0.3523
 3800SOL     OW18260  10.813  12.479   3.992 -0.3721 -0.0014 -0.0652
 3800SOL    HW118261  10.890  12.505   3.943  1.5907 -0.9308  2.3152
 3800SOL    HW218262  10.790  12.556   4.045 -0.7598  0.0885 -0.3550
 3801SOL     OW18263   8.221   4.306   4.438  0.2201  0.1575  0.4828
 3801SOL    HW118264   8.219   4.270   4.527 -1.5659  2.0635  1.3277
 3801SOL    HW218265   8.259   4.393   4.449 -1.4478  1.0416 -0.2913
 3802SOL     OW18266   3.495   2.019  11.796  0.3520 -0.5483 -0.1026
 3802SOL    HW118267   3.529   1.952  11.737 -0.5198  0.0028 -1.2764
 3802SOL    HW218268   3.424   1.974  11.844 -1.0277 -0.2164 -1.7237
 3803SOL     OW18269  10.862  11.008   0.840 -0.2070 -0.1286  0.1341
 3803SOL    HW118270  10.836  11.098   0.818  0.9755  0.5240  1.2683
 3803SOL    HW218271  10.787  10.973   0.890 -0.8406  0.0722 -0.6536
 3804SOL     OW18272   9.034  11.102   5.807  0.0567 -0.3143  0.0102
 3804SOL    HW118273   9.009  11.152   5.886  2.2095  1.0809 -0.1176
 3804SOL    HW218274   9.043  11.169   5.739  3.8187 -0.6133  0.0221
 3805SOL     OW18275   3.985   6.954   3.679 -0.1642  0.1562 -0.2859
 3805SOL    HW118276   3.965   6.913   3.595 -1.3214  1.2577 -0.5782
 3805SOL    HW218277   3.928   7.031   3.683  1.9635  1.8108  0.2135
 3806SOL     OW18278   0.110   1.241  11.752  0.2231  0.2942 -0.2268
 3806SOL    HW118279   0.072   1.250  11.839 -0.2979  0.0270 -0.4230
 3806SOL    HW218280   0.045   1.280  11.693  1.2090  1.8074 -0.3749
 3807SOL     OW18281   4.914  10.174   3.518 -0.1639  0.3936  0.6997
 3807SOL    HW118282   4.828  10.215   3.518 -0.6035 -0.5029  0.8973
 3807SOL    HW218283   4.902  10.092   3.566  0.5471 -0.2502 -0.1813
 3808SOL     OW18284  10.772   7.969  10.990 -0.1350 -0.0304  0.5028
 3808SOL    HW118285  10.820   8.031  11.044 -2.9689  1.2142  1.7955
 3808SOL    HW218286  10.767   7.889  11.043  0.6806 -0.2696  0.2371
 3809SOL     OW18287   6.540   5.789  10.905  0.2912 -0.3269  0.0733
 3809SOL    HW118288   6.587   5.730  10.963  1.9873  1.3009  0.4694
 3809SOL    HW218289   6.448   5.765  10.915  0.6316 -0.8435  2.5965
 3810SOL     OW18290   6.952   5.859   1.841  0.1727  0.3133  0.2823
 3810SOL    HW118291   7.023   5.803   1.871 -0.9378 -0.9783  0.6232
 3810SOL    HW218292   6.883   5.847   1.907 -0.9009  0.3943 -0.7894
 3811SOL     OW18293   7.516   7.631  11.901 -0.0573  0.4378  0.3890
 3811SOL    HW118294   7.447   7.611  11.964  0.0037  1.2995  0.7418
 3811SOL    HW218295   7.487   7.590  11.820 -0.1624 -0.6429  0.9494
 3812SOL     OW18296   0.640   5.536   9.335 -0.2935  0.3451  0.9179
 3812SOL    HW118297   0.676   5.449   9.320 -1.4527 -0.1077  0.6399
 3812SOL    HW218298   0.566   5.542   9.274 -0.6980  1.2274  1.4758
 3813SOL     OW18299   9.431   0.738   6.349  0.0594  0.3363  0.0904
 3813SOL    HW118300   9.488   0.814   6.355 -0.7602  1.3178 -2.7886
 3813SOL    HW218301   9.343   0.774   6.349 -0.3188 -0.3958 -2.4372
 3814SOL     OW18302  10.426   5.133   1.900 -0.4975  0.2700 -0.4615
 3814SOL    HW118303  10.451   5.167   1.986 -0.2300  0.5501 -0.6464
 3814SOL    HW218304  10.339   5.095   1.913  0.1882 -1.1108  0.2926
 3815SOL     OW18305   5.824   3.527   0.930 -0.3499  0.3283 -0.4920
 3815SOL    HW118306   5.912   3.546   0.896  0.2056 -2.5652 -0.8940
 3815SOL    HW218307   5.773   3.605   0.908  1.3428  0.8413 -3.1167
 3816SOL     OW18308   2.405   3.777   1.523  0.3993 -0.7946 -0.1563
 3816SOL    HW118309   2.358   3.814   1.448  0.5030 -1.9506 -0.8211
 3816SOL    HW218310   2.344   3.787   1.596 -0.8734 -2.1238 -0.9664
 3817SOL     OW18311   1.482   2.946  10.830 -0.1394 -0.5084  0.1877
 3817SOL    HW118312   1.553   2.915  10.887 -0.9608 -1.8381  0.5577
 3817SOL    HW218313   1.443   3.019  10.878  0.6674 -0.0801  0.2056
 3818SOL     OW18314  12.412  11.384  11.053 -0.4813 -0.4772  0.0141
 3818SOL    HW118315  12.383  11.331  11.127 -0.0985  1.2146  1.4525
 3818SOL    HW218316  12.347  11.454  11.045 -0.1833 -0.2767 -0.8543
 3819SOL     OW18317   6.242  12.433  10.112  0.3651 -0.1836 -0.2714
 3819SOL    HW118318   6.198  12.514  10.137 -4.5321 -1.6629 -2.8521
 3819SOL    HW218319   6.297  12.457  10.037  2.5724  1.3086  1.6577
 3820SOL     OW18320   4.752  10.634   1.126 -0.1061  0.4040 -0.6867
 3820SOL    HW118321   4.700  10.635   1.207 -0.8142  0.0897 -1.1273
 3820SOL    HW218322   4.837  10.669   1.152 -0.0520 -0.4627  0.3872
 3821SOL     OW18323  12.171   3.075  11.848  0.2358  0.3767  0.0246
 3821SOL    HW118324  12.246   3.114  11.802 -0.1643  1.9278  0.6290
 3821SOL    HW218325  12.125   3.150  11.887 -0.7554 -0.6875  0.9721
 3822SOL     OW18326   5.968  12.144   2.302  0.1225 -0.2088 -0.1788
 3822SOL    HW118327   6.027  12.157   2.376  0.2308  1.8562 -0.5750
 3822SOL    HW218328   6.024  12.152   2.225 -0.0613 -1.9561 -0.5240
 3823SOL     OW18329   2.272   4.433   1.431 -0.4390 -0.1396 -0.0181
 3823SOL    HW118330   2.194   4.461   1.382 -0.3019  0.9838  0.3663
 3823SOL    HW218331   2.261   4.474   1.517  0.3691 -0.3206  0.1740
 3824SOL     OW18332   4.010   9.690   5.096 -0.0169  0.5639 -0.3764
 3824SOL    HW118333   4.058   9.634   5.035 -1.3573  0.5057 -1.4385
 3824SOL    HW218334   3.972   9.629   5.159  0.9624  0.5742  0.2316
 3825SOL     OW18335  11.303   0.407   4.559  0.2754  0.1057 -0.5729
 3825SOL    HW118336  11.279   0.352   4.484  0.1958 -0.4455 -0.1536
 3825SOL    HW218337  11.225   0.460   4.575  0.3660  0.3769 -1.0087
 3826SOL     OW18338   3.900   4.562  10.308 -0.4129  0.1024 -0.3544
 3826SOL    HW118339   3.819   4.548  10.258 -1.1726  2.2464  0.1715
 3826SOL    HW218340   3.966   4.575  10.240 -0.6443 -0.8212 -0.7869
 3827SOL     OW18341   8.202   2.821   8.659 -0.0045  0.1755 -0.3915
 3827SOL    HW118342   8.108   2.831   8.642 -0.0420  0.3220 -0.1113
 3827SOL    HW218343   8.209   2.735   8.701 -0.2629  0.9369  1.3053
 3828SOL     OW18344   8.668   0.403   1.527 -0.2844 -0.1610 -0.1678
 3828SOL    HW118345   8.722   0.441   1.458  1.0636  0.4519  1.1596
 3828SOL    HW218346   8.724   0.336   1.567 -0.1998  0.9518  1.6816
 3829SOL     OW18347   8.996   6.747   1.781 -0.3664  0.2637  0.0820
 3829SOL    HW118348   9.008   6.760   1.875 -0.7073  0.5863  0.0840
 3829SOL    HW218349   9.012   6.833   1.743 -4.3820  1.2702  0.2646
 3830SOL     OW18350   6.023   5.940  11.595  0.0949 -0.0956  0.0623
 3830SOL    HW118351   5.986   5.853  11.576 -0.5800  0.2803 -0.4175
 3830SOL    HW218352   6.080   5.958  11.521  1.8708 -0.9815  1.1507
 3831SOL     OW18353   0.438   9.625   5.151  0.8721  0.0226  0.6701
 3831SOL    HW118354   0.424   9.705   5.202 -1.1344  0.5856 -0.6094
 3831SOL    HW218355   0.481   9.655   5.071  1.5032 -0.4142  0.8491
 3832SOL     OW18356   3.978  10.941   2.474 -0.3001 -0.2394  0.3335
 3832SOL    HW118357   4.073  10.930   2.469 -0.4263 -1.0989 -0.4163
 3832SOL    HW218358   3.958  11.008   2.409 -0.2970 -0.7159 -0.1688
 3833SOL     OW18359   2.516   0.509  11.946 -0.2687  0.5032  0.1394
 3833SOL    HW118360   2.514   0.450  12.021  0.1635 -1.6018 -1.4207
 3833SOL    HW218361   2.513   0.597  11.985 -2.3101 -0.4921  2.4914
 3834SOL     OW18362   3.037   6.724  12.143 -0.5200  0.6381 -0.0367
 3834SOL    HW118363   2.972   6.670  12.098 -0.0857  1.5432 -1.8481
 3834SOL    HW218364   3.121   6.695  12.107 -0.0083  0.2890  1.4022
 3835SOL     OW18365  11.078   6.055   5.794  0.2310 -0.6647 -0.1519
 3835SOL    HW118366  11.054   6.119   5.728  0.6236 -0.9047 -0.5288
 3835SOL    HW218367  11.110   6.107   5.868  1.0002 -0.4342 -0.6337
 3836SOL     OW18368   5.282   7.738   6.287 -0.1362 -0.2135  0.0255
 3836SOL    HW118369   5.360   7.691   6.259 -1.2858 -1.4427 -1.2572
 3836SOL    HW218370   5.277   7.814   6.229  0.1399 -0.0903  0.1623
 3837SOL     OW18371   4.685   5.920   2.474 -0.0363 -0.2840  0.2153
 3837SOL    HW118372   4.656   5.866   2.401 -0.6223  0.6836 -0.2809
 3837SOL    HW218373   4.723   5.997   2.433  0.8410 -0.3261  0.9151
 3838SOL     OW18374   2.887   6.514   8.578  0.4362 -0.5756  0.2178
 3838SOL    HW118375   2.904   6.570   8.654  1.0220 -0.2919 -0.1146
 3838SOL    HW218376   2.919   6.565   8.503 -0.0192 -0.9063 -0.2073
 3839SOL     OW18377   9.985   7.946  11.304  0.3040  0.3156  0.2044
 3839SOL    HW118378   9.922   7.981  11.241  0.4922  0.3672  0.0449
 3839SOL    HW218379  10.067   7.939  11.255  0.8340  1.7204  0.8216
 3840SOL     OW18380   3.928   3.499  11.553 -0.2528 -0.2403  0.2826
 3840SOL    HW118381   3.999   3.506  11.488 -2.6032 -2.5864 -2.8871
 3840SOL    HW218382   3.859   3.556  11.520 -2.2748 -3.0028 -0.6201
 3841SOL     OW18383  10.537   1.003   3.326  0.3779  0.5907  0.4632
 3841SOL    HW118384  10.534   0.991   3.421 -0.4419 -2.1797  0.1686
 3841SOL    HW218385  10.494   0.925   3.290  1.9011  0.8607 -2.2316
 3842SOL     OW18386   6.707   3.025  10.041  0.4230  0.3149 -0.0112
 3842SOL    HW118387   6.697   2.933  10.019 -0.2110  0.2987  0.3450
 3842SOL    HW218388   6.707   3.070   9.957  0.6380  0.0065 -0.1796
 3843SOL     OW18389   1.349  12.158   8.319 -0.0100 -0.3425 -0.2164
 3843SOL    HW118390   1.315  12.107   8.392  0.5660  0.8492  0.9183
 3843SOL    HW218391   1.271  12.179   8.266 -0.5794 -0.3504  0.6043
 3844SOL     OW18392   3.035  11.752  10.258  0.1859 -0.2147 -0.0429
 3844SOL    HW118393   2.975  11.706  10.317  0.7194 -0.2835  0.4562
 3844SOL    HW218394   2.980  11.781  10.186 -0.7813  1.1168  1.1721
 3845SOL     OW18395   2.874   6.517   6.585  0.1196 -0.2332  0.1906
 3845SOL    HW118396   2.883   6.612   6.588 -0.0580 -0.2319  1.5874
 3845SOL    HW218397   2.793   6.499   6.633  1.2129 -1.1765  1.8151
 3846SOL     OW18398   2.324   8.112  10.389 -0.0665  0.1402 -0.2025
 3846SOL    HW118399   2.253   8.174  10.405 -0.2918 -0.2319  0.2685
 3846SOL    HW218400   2.292   8.056  10.318 -0.7971 -0.8472  0.8622
 3847SOL     OW18401   2.818   6.031   6.637  0.5657  0.3866 -0.2057
 3847SOL    HW118402   2.823   5.937   6.657  0.4468  0.5816  0.7610
 3847SOL    HW218403   2.905   6.053   6.605  1.5185  0.5513  2.3200
 3848SOL     OW18404  12.414   3.767   7.304  0.1531 -0.0509 -0.0131
 3848SOL    HW118405  12.411   3.802   7.393 -0.5357 -0.8054  0.2764
 3848SOL    HW218406  12.391   3.841   7.248  1.5641  0.6882  0.3413
 3849SOL     OW18407   0.194  10.421   5.010  0.0640 -0.1370 -0.5010
 3849SOL    HW118408   0.220  10.511   4.990  0.9764 -0.4824 -0.9562
 3849SOL    HW218409   0.249  10.397   5.084  0.2469 -0.5119 -0.7579
 3850SOL     OW18410  10.709  12.125   5.390  0.6099 -0.1295  0.2281
 3850SOL    HW118411  10.654  12.193   5.351 -0.0434 -0.7523  0.0483
 3850SOL    HW218412  10.793  12.169   5.405  0.0950  0.8236  0.4578
 3851SOL     OW18413   8.365   9.633  11.597  0.0204  0.1502  0.0306
 3851SOL    HW118414   8.401   9.699  11.656 -1.4421  0.7941  0.2579
 3851SOL    HW218415   8.392   9.662  11.510  1.2042 -0.1647  0.2707
 3852SOL     OW18416   4.152   4.059  10.734 -0.4670  0.1227  0.5911
 3852SOL    HW118417   4.245   4.041  10.749 -0.6355 -1.1440  0.3014
 3852SOL    HW218418   4.113   4.057  10.821 -0.4890 -1.1385  0.5709
 3853SOL     OW18419   7.952   3.515   7.803  0.0883  0.3192 -0.3501
 3853SOL    HW118420   7.968   3.603   7.838  3.1165 -0.6459  1.0275
 3853SOL    HW218421   8.034   3.491   7.760  0.1376 -2.5909  1.1464
 3854SOL     OW18422   4.384   4.924   9.681 -0.7769 -0.6373  0.2162
 3854SOL    HW118423   4.462   4.897   9.632 -0.5979  1.9725 -1.1025
 3854SOL    HW218424   4.314   4.867   9.649  0.0905 -1.4113 -0.3601
 3855SOL     OW18425   7.915  10.589   6.586 -0.4420  0.1679 -0.1436
 3855SOL    HW118426   7.845  10.598   6.651 -0.7898 -0.3276 -0.4360
 3855SOL    HW218427   7.947  10.499   6.597 -0.7898 -0.0617 -0.9233
 3856SOL     OW18428   4.846   4.985   9.849 -0.1011 -0.3431 -0.1654
 3856SOL    HW118429   4.785   4.984   9.923  0.6109  2.1978  0.5862
 3856SOL    HW218430   4.931   5.007   9.889  0.6541 -0.6378 -1.5467
 3857SOL     OW18431   9.569   3.278  10.586 -0.5463  0.0333 -0.0122
 3857SOL    HW118432   9.580   3.373  10.581 -0.1361 -0.0410 -0.6755
 3857SOL    HW218433   9.540   3.252  10.499  0.3609 -0.5673 -0.1515
 3858SOL     OW18434   5.613  12.110   9.104 -0.4135  0.4437 -0.2122
 3858SOL    HW118435   5.666  12.171   9.156 -0.4459  0.3408 -0.0586
 3858SOL    HW218436   5.523  12.132   9.127 -0.4195  0.1424  0.0679
 3859SOL     OW18437   0.556   2.213  10.797 -0.3462 -0.2924 -0.1903
 3859SOL    HW118438   0.486   2.171  10.847 -1.4765 -0.2066 -1.6325
 3859SOL    HW218439   0.600   2.270  10.861  0.7162 -2.9234  1.6377
 3860SOL     OW18440   5.391  10.635   0.573  0.0576 -0.5459  0.3681
 3860SOL    HW118441   5.383  10.639   0.668 -1.3736 -1.0830  0.2828
 3860SOL    HW218442   5.357  10.550   0.549 -1.1411  0.2180 -0.7604
 3861SOL     OW18443   8.657   3.420  12.166  0.3138  0.1094 -0.2918
 3861SOL    HW118444   8.657   3.412  12.261 -1.1241 -1.0402 -0.3509
 3861SOL    HW218445   8.598   3.351  12.136 -1.4333  2.1401 -1.8491
 3862SOL     OW18446  10.995  12.325   3.673 -0.1678 -0.0183 -0.0749
 3862SOL    HW118447  11.052  12.260   3.714  0.3467  0.0026 -0.7413
 3862SOL    HW218448  10.907  12.304   3.704 -0.3062 -2.1916 -1.7084
 3863SOL     OW18449   9.839  10.115   2.690 -0.6864  0.5795  0.1391
 3863SOL    HW118450   9.751  10.140   2.660 -0.4227 -0.1846 -1.3266
 3863SOL    HW218451   9.839  10.019   2.688  0.2863  0.5781 -0.1836
 3864SOL     OW18452   4.512  11.986   3.777 -0.1144  0.3135 -0.1442
 3864SOL    HW118453   4.427  12.029   3.786 -0.8000 -0.9785 -0.2823
 3864SOL    HW218454   4.508  11.912   3.836 -0.0956 -1.2964 -2.0589
 3865SOL     OW18455   4.821   5.219  11.933  0.1670 -0.0654 -0.0566
 3865SOL    HW118456   4.852   5.164  12.006 -0.3035  0.0747  0.2503
 3865SOL    HW218457   4.870   5.300  11.942  0.2741 -0.1325 -0.0288
 3866SOL     OW18458   4.219   8.262   2.160  0.2580 -0.2470  0.3529
 3866SOL    HW118459   4.311   8.285   2.178  0.3824 -1.2154  0.9769
 3866SOL    HW218460   4.175   8.274   2.244  0.1993 -1.6534  0.5319
 3867SOL     OW18461   6.568   0.050   7.778 -0.1637 -0.0251 -0.0574
 3867SOL    HW118462   6.508   0.073   7.707  1.6520 -0.4261 -1.8251
 3867SOL    HW218463   6.601   0.135   7.809  0.1696  0.1271 -0.7819
 3868SOL     OW18464   3.137   0.760  10.062 -0.5254 -0.3323 -0.0226
 3868SOL    HW118465   3.191   0.822  10.111 -2.4189  0.4228  1.2285
 3868SOL    HW218466   3.193   0.731   9.991  1.8875 -0.3821  1.7529
 3869SOL     OW18467   7.988   4.151   9.426 -0.1119 -0.5778 -0.0166
 3869SOL    HW118468   7.999   4.242   9.399 -1.3117 -0.9480 -2.0234
 3869SOL    HW218469   8.028   4.100   9.355 -0.7052 -1.6124  0.3699
 3870SOL     OW18470   2.051  11.445   8.367 -0.3678  0.5041  0.4722
 3870SOL    HW118471   2.094  11.362   8.348 -1.7209  0.0957 -1.0480
 3870SOL    HW218472   2.112  11.512   8.335  0.3453  0.0700  0.9031
 3871SOL     OW18473   6.681  10.653   2.944 -0.1703  0.7354 -0.6493
 3871SOL    HW118474   6.647  10.565   2.960  2.0331 -0.0046  0.3953
 3871SOL    HW218475   6.691  10.692   3.031 -0.9604  1.9976 -1.0857
 3872SOL     OW18476   3.760  11.468   2.416  1.0025 -0.3843 -0.5298
 3872SOL    HW118477   3.666  11.448   2.415  0.4869  1.7108  0.4848
 3872SOL    HW218478   3.792  11.429   2.497  0.3308  1.4331  0.6599
 3873SOL     OW18479  11.443   0.287   2.173 -0.3206  0.3950  0.4170
 3873SOL    HW118480  11.488   0.371   2.167 -2.1925  1.4374  0.2939
 3873SOL    HW218481  11.427   0.262   2.082  0.1823 -0.0880  0.4550
 3874SOL     OW18482   7.144  10.088   7.437  0.6656 -0.3087 -0.9267
 3874SOL    HW118483   7.139  10.165   7.493 -0.1650 -1.2043  0.2985
 3874SOL    HW218484   7.216  10.037   7.473  0.0634 -0.9393 -0.5848
 3875SOL     OW18485   2.618  12.297   1.650  0.2022  0.1907 -0.3120
 3875SOL    HW118486   2.620  12.338   1.737 -0.9538 -0.6525  0.1416
 3875SOL    HW218487   2.708  12.268   1.635  0.5898  1.0456  0.2485
 3876SOL     OW18488   6.678   1.194  12.446 -0.6356 -0.1355  0.2567
 3876SOL    HW118489   6.749   1.130  12.435 -1.3914 -1.0953  0.7556
 3876SOL    HW218490   6.721   1.271  12.482  0.2889 -0.3978 -0.2542
 3877SOL     OW18491   4.173   5.585  11.669 -0.3951  0.4631 -0.1177
 3877SOL    HW118492   4.234   5.511  11.671 -1.8118 -0.7548 -0.0226
 3877SOL    HW218493   4.169   5.615  11.760 -1.4318 -0.7713  0.2750
 3878SOL     OW18494   0.878   1.534  11.088 -0.1582 -0.3982  0.2798
 3878SOL    HW118495   0.826   1.529  11.008  1.6171 -1.6299 -0.8745
 3878SOL    HW218496   0.871   1.448  11.128 -1.3583  0.3211  1.7304
 3879SOL     OW18497  10.286   0.032   4.276  0.1523  0.4604  0.2292
 3879SOL    HW118498  10.207   0.057   4.324  2.3233  4.2299  2.2886
 3879SOL    HW218499  10.294   0.096   4.206  1.2275 -0.0350 -0.1330
 3880SOL     OW18500   6.824  12.152   8.161  0.4397  0.1497  0.2245
 3880SOL    HW118501   6.732  12.176   8.166  0.5096  0.7572 -1.0704
 3880SOL    HW218502   6.832  12.103   8.080  1.0628 -0.8971  0.8883
 3881SOL     OW18503   2.568  11.807   9.042 -0.0855  0.5287 -0.0935
 3881SOL    HW118504   2.580  11.900   9.062 -0.4251  0.8089 -1.1138
 3881SOL    HW218505   2.655  11.769   9.053 -0.5413  0.1480  4.0318
 3882SOL     OW18506   0.383   5.926  10.390 -0.3569  0.1080  0.0686
 3882SOL    HW118507   0.427   5.903  10.472 -1.0984  1.2408  0.8254
 3882SOL    HW218508   0.298   5.961  10.418 -1.8217 -2.0828 -1.3269
 3883SOL     OW18509   9.032   0.682  11.592  0.0473  0.0156 -0.3279
 3883SOL    HW118510   9.004   0.770  11.567 -0.0038 -0.3214 -1.5099
 3883SOL    HW218511   9.116   0.670  11.547  0.3514 -0.3220  0.3155
 3884SOL     OW18512   7.643   5.968   2.655 -0.6838  0.5028  0.2581
 3884SOL    HW118513   7.629   5.888   2.706 -0.4108  0.5487  0.4088
 3884SOL    HW218514   7.555   5.997   2.631 -0.7290 -0.9606 -1.5574
 3885SOL     OW18515   3.579   3.736   4.973  0.1606 -0.0370 -0.2094
 3885SOL    HW118516   3.534   3.747   5.056  0.9359 -1.4229  0.4269
 3885SOL    HW218517   3.656   3.791   4.980  0.2516 -0.1922  0.0078
 3886SOL     OW18518   0.374   9.841  11.554 -0.3092 -0.0296  0.4867
 3886SOL    HW118519   0.336   9.887  11.479 -2.5304 -0.3597  1.3429
 3886SOL    HW218520   0.408   9.760  11.517  3.0198  1.8046 -0.9280
 3887SOL     OW18521  11.091   5.441  10.905  0.3325  0.2887 -0.0997
 3887SOL    HW118522  11.110   5.492  10.984 -0.5211  2.0492 -0.9710
 3887SOL    HW218523  11.054   5.504  10.844 -2.5239 -1.6874 -0.6367
 3888SOL     OW18524   1.537   2.284   3.814  0.6441  0.2581 -0.1118
 3888SOL    HW118525   1.520   2.295   3.721  2.3287  2.3776 -0.2322
 3888SOL    HW218526   1.556   2.191   3.824 -1.1116 -0.3263 -1.5575
 3889SOL     OW18527   9.757   6.394   9.505 -0.5288  0.2042 -0.5886
 3889SOL    HW118528   9.680   6.351   9.470  0.3699 -0.5802 -1.6533
 3889SOL    HW218529   9.779   6.345   9.585 -1.6234  0.9865  0.2223
 3890SOL     OW18530   7.463   3.965   3.473 -0.3263  0.6052  0.0491
 3890SOL    HW118531   7.446   3.990   3.564  0.3742  0.6971  0.1600
 3890SOL    HW218532   7.414   3.884   3.461  0.5390 -0.0670  0.8952
 3891SOL     OW18533  11.887   9.781   6.815  0.4073  0.3438 -0.4724
 3891SOL    HW118534  11.974   9.800   6.780 -0.3746  1.4977 -1.9445
 3891SOL    HW218535  11.892   9.807   6.907  1.3737  1.3185 -0.7725
 3892SOL     OW18536   2.967   2.441   8.247  0.4431  0.0849  0.4062
 3892SOL    HW118537   2.901   2.374   8.229 -0.1891  0.8939 -0.4366
 3892SOL    HW218538   2.952   2.507   8.179  3.0319 -0.3311 -0.6612
 3893SOL     OW18539   4.542   6.900   4.212 -0.0024 -0.0818 -0.2502
 3893SOL    HW118540   4.462   6.887   4.161 -0.2526 -0.2874  0.1896
 3893SOL    HW218541   4.554   6.818   4.260 -0.4890  0.5507  1.0033
 3894SOL     OW18542   2.651   9.468   0.843 -0.0615  0.4526  0.5025
 3894SOL    HW118543   2.701   9.516   0.778 -0.2778  1.9300  1.3875
 3894SOL    HW218544   2.706   9.468   0.922 -1.6586  2.8220  1.7517
 3895SOL     OW18545   5.375  10.731   9.755  0.3581  0.2623 -0.5179
 3895SOL    HW118546   5.460  10.717   9.713 -0.5786 -1.6104 -1.9533
 3895SOL    HW218547   5.353  10.645   9.792 -1.1072  0.5910 -0.5919
 3896SOL     OW18548   3.293   2.662   1.959 -0.4286 -0.0215  0.0143
 3896SOL    HW118549   3.323   2.595   1.897 -0.0485  0.0622  0.1000
 3896SOL    HW218550   3.258   2.613   2.033 -1.8495 -0.1260 -0.7053
 3897SOL     OW18551   0.556   4.371   9.797 -0.0776  0.6931 -0.2740
 3897SOL    HW118552   0.649   4.363   9.821 -0.1547  2.2099  0.7432
 3897SOL    HW218553   0.555   4.439   9.729 -0.3209 -0.3591 -1.3447
 3898SOL     OW18554   8.108   1.448   8.103  0.5675 -0.1205 -0.5873
 3898SOL    HW118555   8.072   1.371   8.059 -3.0939  0.8092  0.4233
 3898SOL    HW218556   8.105   1.426   8.196 -0.5973  1.1841 -0.2816
 3899SOL     OW18557   1.193   4.296   6.701  0.0981  0.4855  0.0276
 3899SOL    HW118558   1.198   4.241   6.779  0.3885  1.3109  0.6011
 3899SOL    HW218559   1.250   4.371   6.720 -1.1318  1.5406 -0.2944
 3900SOL     OW18560   9.420   4.141   8.760 -0.6602 -0.3769 -0.1255
 3900SOL    HW118561   9.449   4.189   8.682  0.0402 -1.0851 -0.3225
 3900SOL    HW218562   9.401   4.053   8.727  1.3403 -1.2045  0.7551
 3901SOL     OW18563   6.329   3.128   7.818 -0.0980 -0.6681  0.0078
 3901SOL    HW118564   6.317   3.204   7.761  0.0217  0.0766  0.9480
 3901SOL    HW218565   6.395   3.156   7.881 -1.3422 -0.9208  1.4650
 3902SOL     OW18566   8.599  10.566   5.487  0.2929  0.2685 -0.0829
 3902SOL    HW118567   8.672  10.526   5.535  0.3769 -0.0372 -0.4624
 3902SOL    HW218568   8.600  10.658   5.514 -0.6002 -0.1795  1.6763
 3903SOL     OW18569   0.002   8.813   9.795  0.3114 -0.1496 -0.5330
 3903SOL    HW118570  -0.038   8.866   9.726  0.3867  1.5656  0.6801
 3903SOL    HW218571  -0.040   8.842   9.876  1.9392 -0.3389  0.4379
 3904SOL     OW18572   2.308  11.696  11.456 -0.3515 -0.3805  0.0487
 3904SOL    HW118573   2.351  11.620  11.417  1.7607  0.2339  1.0211
 3904SOL    HW218574   2.233  11.660  11.503 -0.7674 -1.5401 -1.4169
 3905SOL     OW18575   0.382   2.760   1.830 -0.2714  0.0200 -0.0146
 3905SOL    HW118576   0.298   2.720   1.808 -0.6046  1.0308 -0.6455
 3905SOL    HW218577   0.375   2.850   1.799  1.3052 -0.0653 -0.7130
 3906SOL     OW18578  10.177   2.024   7.300  0.5644 -0.1111 -0.0383
 3906SOL    HW118579  10.237   2.091   7.267 -0.7767  0.9164 -0.5124
 3906SOL    HW218580  10.202   1.944   7.254  0.4295  0.7060 -1.6024
 3907SOL     OW18581  10.631   9.807   1.191  0.5158  0.5938 -0.4000
 3907SOL    HW118582  10.645   9.901   1.201 -0.8036  0.7582  0.0693
 3907SOL    HW218583  10.671   9.768   1.269 -1.1943  1.0225  0.7533
 3908SOL     OW18584   3.784   3.202   9.668 -0.6910 -0.2346 -0.7770
 3908SOL    HW118585   3.748   3.291   9.667 -0.6058 -0.0667  2.2172
 3908SOL    HW218586   3.878   3.214   9.674 -0.4964 -0.6136 -2.5389
 3909SOL     OW18587  10.646   4.649   2.813 -0.0235  0.4112 -0.1572
 3909SOL    HW118588  10.594   4.569   2.801  1.0296 -0.0280 -2.2888
 3909SOL    HW218589  10.648   4.690   2.727  1.9853  1.1350  0.1751
 3910SOL     OW18590   0.395   8.561   9.138  0.4022  0.3223  0.0585
 3910SOL    HW118591   0.359   8.635   9.187  1.8215  0.8395  0.3757
 3910SOL    HW218592   0.323   8.531   9.082 -1.0908  0.1003  1.9842
 3911SOL     OW18593   1.446   3.736   4.485  0.2677  0.5858 -0.2842
 3911SOL    HW118594   1.466   3.646   4.512  1.3285  0.9890  0.3628
 3911SOL    HW218595   1.363   3.729   4.438  0.9731 -0.9233 -1.3964
 3912SOL     OW18596   0.402   5.359   9.170  0.1762 -0.0022 -0.4561
 3912SOL    HW118597   0.415   5.436   9.115 -1.3363  2.4335  2.3058
 3912SOL    HW218598   0.308   5.342   9.167  0.3066 -0.9174  0.0108
 3913SOL     OW18599   3.195   0.213   2.447 -0.1774 -0.0363 -0.0267
 3913SOL    HW118600   3.163   0.127   2.420 -0.7561 -0.2268  1.1939
 3913SOL    HW218601   3.245   0.244   2.372 -0.1720 -1.3253 -0.5931
 3914SOL     OW18602   4.518   1.918   7.213 -0.0949  0.2274 -0.1217
 3914SOL    HW118603   4.535   1.985   7.278 -0.0056  0.9914 -0.9207
 3914SOL    HW218604   4.430   1.939   7.179  0.4199  0.6894 -1.2346
 3915SOL     OW18605   7.971   0.238   2.265 -0.0587  0.6618 -0.0694
 3915SOL    HW118606   7.970   0.142   2.264 -0.8951  0.6421  0.8947
 3915SOL    HW218607   8.053   0.262   2.222 -1.0058 -0.4358 -2.6738
 3916SOL     OW18608  11.810   8.447   7.897 -0.3581  0.8545  0.6374
 3916SOL    HW118609  11.744   8.392   7.938  0.4709 -0.0611  0.7902
 3916SOL    HW218610  11.770   8.476   7.815 -0.5551 -0.6340  0.1708
 3917SOL     OW18611   8.379  12.462   3.696 -0.1837 -0.5263 -0.0102
 3917SOL    HW118612   8.329  12.387   3.727 -0.3101 -0.6887 -0.5924
 3917SOL    HW218613   8.336  12.537   3.737 -0.9655 -0.6566 -0.5627
 3918SOL     OW18614   9.364   7.336   4.788  0.1691  0.0952 -0.1474
 3918SOL    HW118615   9.455   7.329   4.814  0.2439  1.8606  0.2218
 3918SOL    HW218616   9.319   7.374   4.864 -0.8660 -0.6446 -0.3562
 3919SOL     OW18617   8.269   0.243   0.712 -0.4320  0.1573 -0.0706
 3919SOL    HW118618   8.241   0.210   0.627  0.2891  1.6374 -0.9327
 3919SOL    HW218619   8.202   0.308   0.735  0.2578  0.9748 -0.3301
 3920SOL     OW18620   6.530   7.336   4.057 -0.3618  0.2016  0.0336
 3920SOL    HW118621   6.580   7.353   4.136 -0.8857  0.3822  0.3360
 3920SOL    HW218622   6.468   7.267   4.082 -0.2784 -0.0099 -0.3274
 3921SOL     OW18623   9.382   5.741   5.039  0.4226  0.5256 -0.0870
 3921SOL    HW118624   9.313   5.682   5.070  0.4603  1.2232  1.4449
 3921SOL    HW218625   9.354   5.828   5.069  2.1800  0.7607  1.0250
 3922SOL     OW18626   1.663   6.098   5.410 -0.1513  0.4127  0.0015
 3922SOL    HW118627   1.667   6.002   5.418 -0.5565  0.4119  0.2462
 3922SOL    HW218628   1.735   6.120   5.351  0.8387  0.0918  1.0629
 3923SOL     OW18629   6.494  11.916  11.210  0.5379 -0.0806 -0.3734
 3923SOL    HW118630   6.578  11.892  11.249  0.2220  0.9764  1.0263
 3923SOL    HW218631   6.430  11.899  11.279  0.1437  3.4332  0.3190
 3924SOL     OW18632   0.166   6.213   2.639  0.3256  0.8492 -0.3490
 3924SOL    HW118633   0.131   6.288   2.591  0.3487 -0.7955 -3.1572
 3924SOL    HW218634   0.111   6.207   2.717 -2.3217  1.4028 -2.0392
 3925SOL     OW18635   3.183   6.482   9.917 -0.2921 -0.3419  0.1800
 3925SOL    HW118636   3.249   6.511   9.855  0.8803 -1.0535  1.0625
 3925SOL    HW218637   3.100   6.498   9.872  0.5240 -2.1105 -2.1454
 3926SOL     OW18638   2.982   3.309   2.903 -0.1133  0.2595 -0.0372
 3926SOL    HW118639   2.935   3.306   2.986 -0.1816 -0.4148 -0.0908
 3926SOL    HW218640   2.944   3.237   2.852 -0.6455  1.1639 -0.9608
 3927SOL     OW18641   4.119   3.812   2.655 -0.0360  0.3079  0.4220
 3927SOL    HW118642   4.095   3.727   2.691 -0.1997 -0.6013 -1.7006
 3927SOL    HW218643   4.046   3.869   2.677 -0.0888 -0.1628  1.5550
 3928SOL     OW18644   7.004   0.336  11.337 -0.6768  0.0629  0.2568
 3928SOL    HW118645   7.068   0.400  11.304  0.1014  0.2790  2.0831
 3928SOL    HW218646   6.936   0.334  11.269  0.4096  1.1024 -0.9391
 3929SOL     OW18647   3.111   6.378   9.209  0.3632  0.1485  0.4346
 3929SOL    HW118648   3.168   6.311   9.171  1.9844  2.6848 -1.9105
 3929SOL    HW218649   3.023   6.341   9.203  1.3766 -2.7258  1.5489
 3930SOL     OW18650   9.112   7.703   4.847  0.1207 -0.0578  0.6617
 3930SOL    HW118651   9.166   7.638   4.892  0.2106 -0.2452  0.2878
 3930SOL    HW218652   9.174   7.772   4.822 -0.0080  0.2723  1.2349
 3931SOL     OW18653   1.687   4.254  10.767  0.2894 -0.2410 -0.0797
 3931SOL    HW118654   1.718   4.163  10.762  2.8741  0.4891  0.9272
 3931SOL    HW218655   1.734   4.291  10.842 -2.1408  1.4632  0.7378
 3932SOL     OW18656  12.287   0.669   5.636 -0.2391 -0.1843 -0.0107
 3932SOL    HW118657  12.272   0.655   5.542  0.1942 -0.6189 -0.0186
 3932SOL    HW218658  12.249   0.755   5.654 -1.0248 -0.4376 -0.4203
 3933SOL     OW18659  12.442   2.458   5.848  0.0578  0.1804 -0.1390
 3933SOL    HW118660  12.405   2.416   5.926  0.9139 -2.8677 -1.2179
 3933SOL    HW218661  12.368   2.505   5.810 -1.0137 -0.3503  1.1733
 3934SOL     OW18662   1.441   7.605   8.012 -0.0615 -0.5411  0.0290
 3934SOL    HW118663   1.378   7.534   8.023  0.5090 -0.8832  1.1034
 3934SOL    HW218664   1.468   7.598   7.920 -0.7071 -1.1097 -0.1320
 3935SOL     OW18665   7.902   1.666   5.840 -0.6419  0.2389  0.3510
 3935SOL    HW118666   7.815   1.653   5.878 -0.4135 -3.2367  0.0222
 3935SOL    HW218667   7.962   1.636   5.908 -0.0379 -2.0994 -1.0941
 3936SOL     OW18668   6.270   2.368   5.180 -0.4789  0.3369  0.1297
 3936SOL    HW118669   6.207   2.407   5.119 -2.8253  0.3449  2.4071
 3936SOL    HW218670   6.250   2.274   5.179 -0.7158  0.3669  1.0283
 3937SOL     OW18671  11.889   4.993   1.170 -0.2992  0.1324  0.4300
 3937SOL    HW118672  11.877   5.048   1.092  0.8541  1.1725  0.9655
 3937SOL    HW218673  11.805   4.947   1.179 -0.8933  0.9287 -0.6970
 3938SOL     OW18674   8.167  10.647   0.035 -0.5439  0.2480 -0.6682
 3938SOL    HW118675   8.172  10.741   0.050  0.4392  0.0160  0.6075
 3938SOL    HW218676   8.254  10.623   0.003 -0.3589 -0.4216  0.3014
 3939SOL     OW18677   4.561  11.366   3.615  0.4409  0.0465 -0.0921
 3939SOL    HW118678   4.496  11.296   3.609  0.6361 -0.1059 -0.5177
 3939SOL    HW218679   4.519  11.441   3.572 -0.0971  0.4559  1.1052
 3940SOL     OW18680  12.398   1.127  11.091  0.2352 -0.1341 -0.3184
 3940SOL    HW118681  12.428   1.038  11.108 -0.7906 -0.6750 -1.2256
 3940SOL    HW218682  12.304   1.125  11.109  0.4832  1.2818  1.5259
 3941SOL     OW18683   6.049   5.989   7.914  0.3826 -0.1496 -0.3650
 3941SOL    HW118684   5.961   6.019   7.936  0.7921  1.0414 -0.3091
 3941SOL    HW218685   6.108   6.044   7.966  1.2026 -0.2351 -1.1742
 3942SOL     OW18686   8.774   4.162  10.030 -0.4631  0.2239 -0.1548
 3942SOL    HW118687   8.777   4.151  10.125 -2.0670  2.7494  0.2701
 3942SOL    HW218688   8.829   4.238  10.012 -1.2015  0.5629 -1.0783
 3943SOL     OW18689   0.347  11.138   3.010  0.3781  0.7254  0.4491
 3943SOL    HW118690   0.404  11.137   2.933  2.5359 -0.5793  1.9889
 3943SOL    HW218691   0.345  11.047   3.040 -1.0900  1.0700  1.5135
 3944SOL     OW18692  10.779  11.365   5.515  0.5702 -0.0969  0.0288
 3944SOL    HW118693  10.769  11.435   5.450 -2.3061 -0.4809 -0.0586
 3944SOL    HW218694  10.691  11.330   5.526  1.7995 -3.2991  0.5919
 3945SOL     OW18695   6.015   5.890   9.432  0.4403 -0.2840  0.1094
 3945SOL    HW118696   6.021   5.985   9.442 -1.1274 -0.2068  0.7159
 3945SOL    HW218697   6.089   5.856   9.482  1.2185  0.6095 -0.3955
 3946SOL     OW18698   9.128   2.895   0.118  0.1064  0.0673 -0.3036
 3946SOL    HW118699   9.161   2.958   0.183  1.0539  0.5204 -1.1859
 3946SOL    HW218700   9.207   2.863   0.074 -0.2616 -2.4061  0.6571
 3947SOL     OW18701   8.949  10.184   7.125  0.4559 -0.0767  0.1908
 3947SOL    HW118702   8.887  10.151   7.060  1.2418  0.3222 -0.7895
 3947SOL    HW218703   8.902  10.256   7.168 -0.1672 -0.5181  0.2674
 3948SOL     OW18704   0.650  11.815  11.205 -0.5420  0.1140  0.2949
 3948SOL    HW118705   0.676  11.762  11.279 -2.9863  0.4082  1.4772
 3948SOL    HW218706   0.696  11.777  11.130  1.0242 -0.9687  1.7475
 3949SOL     OW18707   8.811   9.299  10.863  0.2113  0.2811  0.2487
 3949SOL    HW118708   8.855   9.364  10.809  0.1035 -0.4893 -0.7933
 3949SOL    HW218709   8.765   9.243  10.801 -1.8237  0.7367  1.2533
 3950SOL     OW18710   2.061   3.608  10.422  0.1011 -0.0586  0.3066
 3950SOL    HW118711   1.967   3.624  10.432  0.1942  1.4276 -0.7520
 3950SOL    HW218712   2.089   3.572  10.506 -1.4634 -0.8150  0.5358
 3951SOL     OW18713   7.454   1.125  12.132  0.9096  0.4259  0.2652
 3951SOL    HW118714   7.387   1.061  12.108  2.4055 -0.8723 -0.6621
 3951SOL    HW218715   7.420   1.167  12.211 -0.0802 -1.6033  0.9909
 3952SOL     OW18716   0.912  10.074   0.014  0.1382  0.6090  0.4613
 3952SOL    HW118717   0.866  10.092   0.095 -1.4642  1.8489 -0.6711
 3952SOL    HW218718   0.892   9.982  -0.005 -1.1660  0.8807  0.4449
 3953SOL     OW18719   4.104   2.970   1.729 -0.4565  0.0681 -0.1880
 3953SOL    HW118720   4.188   2.979   1.774 -0.5495 -1.4426  0.3409
 3953SOL    HW218721   4.094   2.875   1.716 -1.8616  0.2635 -0.6674
 3954SOL     OW18722   4.804  10.882   2.916 -0.8381  1.1037  0.0729
 3954SOL    HW118723   4.872  10.834   2.963  0.4598  2.3090 -0.5147
 3954SOL    HW218724   4.752  10.924   2.985  0.0732  1.5667  0.4876
 3955SOL     OW18725   1.498   9.455  11.674  0.5686 -0.2636 -0.3226
 3955SOL    HW118726   1.509   9.361  11.658 -2.0639 -0.6218 -0.4841
 3955SOL    HW218727   1.530   9.496  11.593 -0.2002 -1.1828 -1.1242
 3956SOL     OW18728   3.478   7.049   2.331  0.4549 -0.2712 -0.2274
 3956SOL    HW118729   3.410   7.028   2.266  0.0053  1.9514 -0.5631
 3956SOL    HW218730   3.517   7.131   2.299 -0.0005  1.0848  2.4164
 3957SOL     OW18731   9.766   7.969  11.091 -0.1437  0.9245 -0.1876
 3957SOL    HW118732   9.696   7.994  11.152 -0.2417  2.2439 -0.8173
 3957SOL    HW218733   9.734   7.889  11.049 -1.4684  1.7469 -0.7798
 3958SOL     OW18734   8.669  12.429   9.062  0.2145 -0.2187 -0.1982
 3958SOL    HW118735   8.662  12.520   9.032  0.3817 -0.1150  0.0724
 3958SOL    HW218736   8.646  12.377   8.986 -1.3768  0.0608  0.0630
 3959SOL     OW18737   7.496  11.708  10.029 -0.2066 -0.6459 -0.1506
 3959SOL    HW118738   7.539  11.694  10.114  1.4102  0.6936 -0.6873
 3959SOL    HW218739   7.532  11.640   9.972  0.7100  0.0523 -0.4199
 3960SOL     OW18740   1.100  11.017   7.504  0.2074 -0.1758 -0.4172
 3960SOL    HW118741   1.123  10.959   7.577  0.2879  1.3557  0.8233
 3960SOL    HW218742   1.008  11.038   7.519  0.7929  1.9274  0.5901
 3961SOL     OW18743  10.103  10.940   3.985  0.0327  0.3277  0.7789
 3961SOL    HW118744  10.159  10.863   3.976 -3.5184 -2.2829 -1.8350
 3961SOL    HW218745  10.090  10.948   4.080  0.5061 -2.3881  1.1689
 3962SOL     OW18746  10.682   9.485  10.052  0.3982  0.1482  0.2257
 3962SOL    HW118747  10.739   9.438   9.991  2.8381  1.9734  0.9426
 3962SOL    HW218748  10.606   9.510   9.999  0.6593 -1.5319 -1.0344
 3963SOL     OW18749   5.113  11.967  10.551  0.1024 -0.1706  0.0169
 3963SOL    HW118750   5.029  11.923  10.564  0.5166 -2.2434 -3.2571
 3963SOL    HW218751   5.091  12.048  10.506 -0.1894 -0.4027 -0.2638
 3964SOL     OW18752   9.953   1.436  10.346 -0.2853  0.0196 -0.2685
 3964SOL    HW118753  10.010   1.359  10.341  0.8641  0.8594 -0.6575
 3964SOL    HW218754   9.971   1.473  10.433  0.0653  0.4922 -0.5326
 3965SOL     OW18755   9.140  11.651   1.834  0.1929  0.1694  0.6786
 3965SOL    HW118756   9.139  11.625   1.742 -2.5587  0.2090  0.5862
 3965SOL    HW218757   9.162  11.572   1.882  0.2197 -0.2258  0.0253
 3966SOL     OW18758   5.226  10.235   7.306  0.4517 -0.4904  0.1953
 3966SOL    HW118759   5.187  10.289   7.238  0.7415  0.8718  1.0723
 3966SOL    HW218760   5.167  10.160   7.314 -1.1627  0.7620  0.4333
 3967SOL     OW18761   6.124   9.795   1.118 -0.3099  0.5005  0.1037
 3967SOL    HW118762   6.202   9.775   1.170 -1.8156  1.6012  3.0223
 3967SOL    HW218763   6.144   9.879   1.076 -0.0905  1.0170  1.2167
 3968SOL     OW18764   4.944   3.899   7.883 -0.0484  0.2655 -0.3364
 3968SOL    HW118765   4.901   3.904   7.968 -1.3209  0.6624 -0.9742
 3968SOL    HW218766   5.003   3.824   7.890  0.1409  0.5120  0.9987
 3969SOL     OW18767   4.240  10.065   9.123  0.1641  0.0141 -0.0664
 3969SOL    HW118768   4.223   9.976   9.153 -3.3264 -0.2789 -2.3429
 3969SOL    HW218769   4.280  10.108   9.198  1.2793 -3.2167  1.3786
 3970SOL     OW18770   7.032   9.446   3.490 -0.0324 -0.3078 -0.1492
 3970SOL    HW118771   6.993   9.409   3.411  0.6897  0.3449 -0.8345
 3970SOL    HW218772   7.009   9.539   3.486  0.1004 -0.2542  0.3564
 3971SOL     OW18773  10.274   4.634   3.338 -0.8257  0.6774 -0.1555
 3971SOL    HW118774  10.249   4.676   3.256  0.4471 -0.3121 -1.0954
 3971SOL    HW218775  10.221   4.554   3.341  2.7421 -2.1292 -2.8185
 3972SOL     OW18776   7.142   6.213   0.840 -0.4329 -0.5139  0.5989
 3972SOL    HW118777   7.132   6.162   0.759 -0.6990 -0.6846  0.7398
 3972SOL    HW218778   7.157   6.303   0.810 -1.8435 -0.3345  0.3689
 3973SOL     OW18779   5.235   2.237  10.630  0.4700 -0.0337 -0.2286
 3973SOL    HW118780   5.220   2.196  10.545  2.4802 -0.9124 -0.2032
 3973SOL    HW218781   5.176   2.313  10.630  0.3489 -0.0586 -2.3630
 3974SOL     OW18782   9.822   7.143   8.091 -0.3111 -0.6496  0.5512
 3974SOL    HW118783   9.818   7.083   8.166 -0.0952  1.2647  2.1921
 3974SOL    HW218784   9.915   7.146   8.069 -0.2453 -0.4801  0.8461
 3975SOL     OW18785   8.626   2.968  11.901 -0.2490 -0.1378  0.1495
 3975SOL    HW118786   8.622   3.040  11.838 -0.7188  0.9617  1.3850
 3975SOL    HW218787   8.572   2.997  11.974 -1.4492 -2.2713  0.1929
 3976SOL     OW18788   0.475   4.182   2.239  0.0538  0.1166  0.5410
 3976SOL    HW118789   0.460   4.103   2.291 -0.3594 -0.2378 -0.1065
 3976SOL    HW218790   0.567   4.176   2.211  0.7119  1.0016  2.3547
 3977SOL     OW18791   2.648   8.261   1.145 -0.0732  0.2622  0.6034
 3977SOL    HW118792   2.724   8.211   1.119  1.2011  0.6706  3.2386
 3977SOL    HW218793   2.644   8.333   1.082  0.2851 -1.0171 -0.9497
 3978SOL     OW18794   4.759   6.999   7.446 -0.1315  0.1333 -0.2338
 3978SOL    HW118795   4.697   6.989   7.374  0.0997  0.7705 -0.5351
 3978SOL    HW218796   4.829   6.937   7.426 -0.0386  0.3524 -0.5986
 3979SOL     OW18797   4.990  12.007   3.444 -0.6300 -0.3902 -0.6943
 3979SOL    HW118798   5.043  12.055   3.380  1.5071 -0.6413  0.8028
 3979SOL    HW218799   4.976  12.069   3.515  1.0117 -1.4861  0.6528
 3980SOL     OW18800   2.950   3.350   0.499  0.4368 -0.2530 -0.2534
 3980SOL    HW118801   2.954   3.437   0.538 -0.4222  0.2767 -1.2829
 3980SOL    HW218802   2.889   3.301   0.554  1.3144 -0.3899  0.6297
 3981SOL     OW18803   7.005   1.630   8.102 -0.1180  0.2013  0.4455
 3981SOL    HW118804   6.924   1.585   8.127 -0.4287  0.2820 -0.4003
 3981SOL    HW218805   7.052   1.641   8.185 -0.8600 -0.0629  0.9142
 3982SOL     OW18806   7.516   7.346   3.672 -0.5558  0.4470 -0.3019
 3982SOL    HW118807   7.608   7.364   3.652  0.1667 -0.9203  1.5371
 3982SOL    HW218808   7.502   7.386   3.757 -1.0605 -1.1246  0.3803
 3983SOL     OW18809   4.699  11.781   1.356 -0.0932 -0.2581 -0.3994
 3983SOL    HW118810   4.754  11.781   1.434 -1.0044 -0.4307  0.2695
 3983SOL    HW218811   4.623  11.729   1.381 -0.0022 -1.0424 -1.7074
 3984SOL     OW18812   3.641   8.879   4.788  0.8010  0.5048 -0.7321
 3984SOL    HW118813   3.546   8.883   4.791  0.8450  1.2405  0.8518
 3984SOL    HW218814   3.669   8.905   4.876  2.4734  0.5385 -1.2320
 3985SOL     OW18815  10.423  12.387  11.016  0.0340 -0.0174  0.1468
 3985SOL    HW118816  10.502  12.346  10.981  0.1186  1.3586 -1.3766
 3985SOL    HW218817  10.361  12.314  11.025  0.1117 -0.5554 -2.6400
 3986SOL     OW18818   2.282  10.735  12.059 -0.6727 -0.2574  0.0217
 3986SOL    HW118819   2.217  10.783  12.007 -0.3043 -0.1509 -0.3412
 3986SOL    HW218820   2.237  10.716  12.142 -0.3874  1.8155  0.6873
 3987SOL     OW18821   0.312   0.949   0.408 -0.4309  0.2526  0.3588
 3987SOL    HW118822   0.288   0.861   0.437  1.6862 -0.6200 -0.2777
 3987SOL    HW218823   0.336   0.995   0.488  2.8094 -1.2880  0.4501
 3988SOL     OW18824   9.588  11.422   9.389  0.4273 -0.6023 -0.3504
 3988SOL    HW118825   9.505  11.391   9.424 -0.1740  0.9284 -0.3769
 3988SOL    HW218826   9.564  11.487   9.323  1.6308  0.5466  0.2920
 3989SOL     OW18827   5.602   6.017   2.151  0.3497  0.3172 -0.6004
 3989SOL    HW118828   5.644   6.045   2.069  1.2908  0.0521 -0.2236
 3989SOL    HW218829   5.660   6.049   2.220  0.5991 -1.1310 -0.1035
 3990SOL     OW18830   2.710   9.195   3.434  0.8824  0.7276  0.1414
 3990SOL    HW118831   2.681   9.266   3.376 -2.0784 -1.1068 -0.8571
 3990SOL    HW218832   2.783   9.155   3.387  0.0910  0.7714 -1.1910
 3991SOL     OW18833   7.854   0.455  12.077  0.1041  0.0710  0.0780
 3991SOL    HW118834   7.806   0.426  12.000 -1.1305 -0.9338  1.1867
 3991SOL    HW218835   7.937   0.407  12.073  0.6114  0.9747 -1.2431
 3992SOL     OW18836   5.027   2.779   9.516 -0.0462  0.0749 -0.5079
 3992SOL    HW118837   5.079   2.834   9.457  0.6104 -0.1026 -0.1031
 3992SOL    HW218838   5.057   2.689   9.497  0.6293  0.0663  0.5271
 3993SOL     OW18839  10.720  10.414   6.077  0.0523 -0.1869  0.3151
 3993SOL    HW118840  10.779  10.461   6.137  1.7642 -0.9839 -0.6595
 3993SOL    HW218841  10.722  10.324   6.108 -1.6194 -0.0309  0.9587
 3994SOL     OW18842  11.537   0.079   2.604 -0.5642  0.9100  0.3662
 3994SOL    HW118843  11.442   0.073   2.603 -0.5178 -0.3392 -1.4291
 3994SOL    HW218844  11.560   0.111   2.516  0.7259 -0.5767  0.1117
 3995SOL     OW18845  11.420   3.302   0.834  0.1696  0.3472 -0.6501
 3995SOL    HW118846  11.512   3.286   0.853  0.0811 -0.2036 -0.6663
 3995SOL    HW218847  11.419   3.383   0.782  0.7340 -0.2038 -1.5442
 3996SOL     OW18848   2.141   7.044   8.785 -0.1476  0.2884  0.8219
 3996SOL    HW118849   2.148   6.954   8.816  1.2560  0.3222  0.6343
 3996SOL    HW218850   2.160   7.098   8.863 -1.3911  0.4489  1.0382
 3997SOL     OW18851   2.738  10.502  11.918  0.2030 -0.1150 -0.0492
 3997SOL    HW118852   2.817  10.529  11.872 -0.7465  2.8807 -0.1011
 3997SOL    HW218853   2.697  10.583  11.947 -1.5101 -1.6638  2.3265
 3998SOL     OW18854   1.587   2.497   4.324 -1.0238  0.2224 -0.5605
 3998SOL    HW118855   1.634   2.442   4.261 -0.7496  1.9643 -1.9429
 3998SOL    HW218856   1.506   2.520   4.280 -0.1562  2.7335 -0.9963
 3999SOL     OW18857   8.563   5.893   6.839 -0.1548  0.5413  0.5523
 3999SOL    HW118858   8.635   5.889   6.902  0.1586  2.2905  0.3835
 3999SOL    HW218859   8.546   5.802   6.814  0.9126 -0.0261  1.8024
 4000SOL     OW18860   5.819   6.346   1.317 -0.3968  0.8927  0.6274
 4000SOL    HW118861   5.913   6.326   1.312 -0.7934 -0.8930 -0.6642
 4000SOL    HW218862   5.801   6.349   1.411  0.7629  0.1999  0.8980
 4001SOL     OW18863   2.644  11.011   8.857 -0.3564 -0.5648 -0.4957
 4001SOL    HW118864   2.576  10.978   8.915  0.2203 -1.4208 -0.2841
 4001SOL    HW218865   2.653  10.944   8.789  0.9820 -0.9906  0.0612
 4002SOL     OW18866   1.241   4.484   4.954  0.0621 -0.4810  0.6154
 4002SOL    HW118867   1.301   4.428   4.905 -0.5172 -1.0675  0.5652
 4002SOL    HW218868   1.156   4.469   4.913 -0.5377 -1.3895  2.1279
 4003SOL     OW18869   6.918   7.506   9.635  0.3447 -0.2801 -0.2955
 4003SOL    HW118870   6.975   7.473   9.705 -0.4952 -0.6315  0.2395
 4003SOL    HW218871   6.883   7.428   9.593 -1.0038 -0.1104  0.4363
 4004SOL     OW18872   6.684   4.881   8.832  0.8132  0.1044 -0.1467
 4004SOL    HW118873   6.707   4.839   8.915  0.8605 -0.5058 -0.4598
 4004SOL    HW218874   6.598   4.846   8.810  0.8485  0.1830 -0.4122
 4005SOL     OW18875  11.874   1.634   0.671  0.3167  0.4584 -0.1264
 4005SOL    HW118876  11.895   1.619   0.764  1.1274 -0.7792 -0.4934
 4005SOL    HW218877  11.784   1.667   0.672 -0.5141 -1.6873  0.9657
 4006SOL     OW18878   6.436   0.034   4.339  0.4026 -0.3310 -0.2314
 4006SOL    HW118879   6.460   0.064   4.426  0.8730 -1.6367  0.1233
 4006SOL    HW218880   6.463   0.104   4.280  0.6714  0.2871  0.6128
 4007SOL     OW18881  10.507   9.330   1.136 -0.9080  0.3107  0.2710
 4007SOL    HW118882  10.503   9.374   1.221 -1.7937  1.1413 -0.1738
 4007SOL    HW218883  10.418   9.340   1.100 -0.6100 -0.2166 -0.6512
 4008SOL     OW18884   3.226   0.285  11.520 -0.2025 -0.0356  0.1842
 4008SOL    HW118885   3.183   0.358  11.475  2.7729  1.2282 -0.8851
 4008SOL    HW218886   3.232   0.216  11.455  0.2044  0.1649  0.0002
 4009SOL     OW18887   4.449   2.717   4.503  0.0171 -0.5593  0.3306
 4009SOL    HW118888   4.455   2.775   4.428  0.3358 -1.0060  0.0073
 4009SOL    HW218889   4.445   2.776   4.579  1.1289 -0.1165  0.0671
 4010SOL     OW18890   4.124   0.482   0.952  0.1413  0.3634 -0.0323
 4010SOL    HW118891   4.153   0.412   1.011 -1.4476 -1.6259 -1.4710
 4010SOL    HW218892   4.193   0.489   0.886 -0.2484 -0.7294 -0.5675
 4011SOL     OW18893  12.116   9.788  11.734 -0.1719 -0.0746  0.0192
 4011SOL    HW118894  12.163   9.842  11.797 -1.6017  0.3575  0.7548
 4011SOL    HW218895  12.099   9.847  11.660  0.5690 -0.2875 -0.3378
 4012SOL     OW18896   1.412  11.920   1.772 -0.2458 -0.1151  0.1698
 4012SOL    HW118897   1.365  11.964   1.701 -1.6954 -3.1387 -0.9098
 4012SOL    HW218898   1.349  11.859   1.809  2.1681 -2.9467  0.0100
 4013SOL     OW18899   0.971   9.861   3.362  0.1741  0.7916  0.5469
 4013SOL    HW118900   0.972   9.911   3.444  0.4811  0.7256  0.5869
 4013SOL    HW218901   0.956   9.927   3.294  0.0383  0.8629  0.6452
 4014SOL     OW18902   4.273   8.046   6.707 -0.1247  0.2430 -0.0279
 4014SOL    HW118903   4.323   8.010   6.780 -0.8161 -1.9670 -0.5736
 4014SOL    HW218904   4.204   8.098   6.749 -0.2693 -0.6681  0.9187
 4015SOL     OW18905   4.368   6.385   1.124  0.3456  0.9359  0.4958
 4015SOL    HW118906   4.278   6.411   1.108 -0.1028 -0.7695  0.0925
 4015SOL    HW218907   4.380   6.306   1.072  1.2614 -0.3432  2.5424
 4016SOL     OW18908   8.757   4.185   3.275  0.3265 -0.0957  0.1043
 4016SOL    HW118909   8.825   4.250   3.256 -0.5132  0.7096 -0.2583
 4016SOL    HW218910   8.695   4.232   3.331  0.6746 -1.1941  1.4496
 4017SOL     OW18911   6.235  11.528   8.407 -0.5468 -0.4274 -0.4261
 4017SOL    HW118912   6.238  11.554   8.499 -0.7747 -1.6330 -0.0610
 4017SOL    HW218913   6.282  11.445   8.404 -1.3774 -0.8806 -1.2269
 4018SOL     OW18914   2.433  10.639  11.850  0.1134  0.5331 -0.8196
 4018SOL    HW118915   2.409  10.549  11.829  2.5010 -0.5991  0.8741
 4018SOL    HW218916   2.384  10.658  11.931 -3.0965  2.1394 -2.9291
 4019SOL     OW18917   3.431   6.710   1.815 -0.3830  0.0526  0.1984
 4019SOL    HW118918   3.462   6.620   1.808 -2.4887 -0.6883 -0.1472
 4019SOL    HW218919   3.387   6.714   1.900 -1.4313  0.3748 -0.3473
 4020SOL     OW18920   7.469   0.000   1.312  0.6759  0.3260 -0.2111
 4020SOL    HW118921   7.487  -0.093   1.311 -1.0608 -0.0580  0.0713
 4020SOL    HW218922   7.542   0.040   1.265  0.5388 -1.3653 -1.9718
 4021SOL     OW18923  10.939   5.139   5.701 -0.0203  0.0048 -0.3992
 4021SOL    HW118924  10.909   5.144   5.610  0.9357 -0.1459 -0.7335
 4021SOL    HW218925  11.009   5.204   5.706  1.6235 -1.7149 -0.4442
 4022SOL     OW18926   1.692  11.727   9.149  0.4856 -0.2586 -0.5192
 4022SOL    HW118927   1.702  11.692   9.238  0.5185  0.2982 -0.2995
 4022SOL    HW218928   1.775  11.771   9.131  0.1708  0.3566 -0.4940
 4023SOL     OW18929  11.298   9.784   9.202 -0.6781 -0.0616  0.8294
 4023SOL    HW118930  11.381   9.759   9.244  0.0271  0.3946 -0.2391
 4023SOL    HW218931  11.295   9.731   9.122 -0.5110  1.2236 -0.0587
 4024SOL     OW18932  10.171  12.103   6.746 -0.3826  0.2767 -0.2597
 4024SOL    HW118933  10.191  12.172   6.810  1.2640 -1.5154  1.2759
 4024SOL    HW218934  10.225  12.029   6.773 -2.0217 -1.6233 -1.9065
 4025SOL     OW18935   2.480   8.850   3.670 -0.0535 -0.5215  0.2704
 4025SOL    HW118936   2.407   8.820   3.617  1.4033 -0.6070 -1.8121
 4025SOL    HW218937   2.502   8.774   3.725 -0.9088 -0.8127  0.2264
 4026SOL     OW18938   7.849   5.750   3.524 -0.2167 -0.1513 -0.3691
 4026SOL    HW118939   7.780   5.685   3.507 -1.4307  0.6929  1.0372
 4026SOL    HW218940   7.914   5.703   3.577 -0.6454 -0.4809 -0.1261
 4027SOL     OW18941   8.597   2.693  11.585  0.2423 -0.2292  0.3062
 4027SOL    HW118942   8.619   2.600  11.583 -0.1476 -0.3470 -2.3557
 4027SOL    HW218943   8.666   2.732  11.639  0.3772 -2.0424  1.5311
 4028SOL     OW18944   0.788   5.749   3.854 -0.0018 -0.2415 -0.0241
 4028SOL    HW118945   0.747   5.835   3.846 -0.2689 -0.3580  0.1113
 4028SOL    HW218946   0.821   5.746   3.944  1.6700  0.4659 -0.5643
 4029SOL     OW18947  11.982   4.437   5.350 -0.3733 -0.3569 -0.0413
 4029SOL    HW118948  11.954   4.402   5.265  0.8693 -1.0227 -0.2057
 4029SOL    HW218949  11.902   4.468   5.391 -1.1239 -0.8606 -1.0836
 4030SOL     OW18950  11.911   1.525   4.039 -0.2305 -0.7536  0.2844
 4030SOL    HW118951  11.985   1.571   4.078 -0.5232  0.1444 -0.1845
 4030SOL    HW218952  11.890   1.575   3.960 -1.6883 -0.6588  0.6944
 4031SOL     OW18953   9.981   3.317   6.533  0.2592 -0.5170  0.0690
 4031SOL    HW118954  10.070   3.351   6.522 -0.0728 -0.2864 -2.4633
 4031SOL    HW218955   9.991   3.241   6.590  2.0104 -0.3222  0.0655
 4032SOL     OW18956   5.144   8.805   2.862 -0.2598 -0.1630  0.4434
 4032SOL    HW118957   5.158   8.900   2.864 -1.6481  0.0646  0.2785
 4032SOL    HW218958   5.219   8.770   2.815  1.1035  0.6823  1.8830
 4033SOL     OW18959   5.031   1.826   8.578  0.0281  0.4312 -0.2954
 4033SOL    HW118960   4.974   1.757   8.613  0.3573  0.5553  0.5195
 4033SOL    HW218961   5.054   1.797   8.490  0.7829 -0.8718  0.3150
 4034SOL     OW18962   5.121   6.236   8.679  0.6429  0.2896 -0.8979
 4034SOL    HW118963   5.129   6.295   8.753 -0.5349 -0.5336 -0.0718
 4034SOL    HW218964   5.138   6.149   8.715  2.2437  0.0656 -2.0624
 4035SOL     OW18965   4.511   2.072  10.955 -0.7763  0.4123  0.0705
 4035SOL    HW118966   4.502   2.108  11.043  0.9757  1.3826 -0.1016
 4035SOL    HW218967   4.533   2.148  10.900  2.4003 -0.6796 -0.4203
 4036SOL     OW18968   1.531   1.264   3.624  0.6263  0.7135 -0.0552
 4036SOL    HW118969   1.446   1.265   3.581 -0.5647  1.4913  2.1404
 4036SOL    HW218970   1.584   1.327   3.576 -0.3382  0.9081 -0.8840
 4037SOL     OW18971   3.744   2.820   8.440  0.0011  0.0904 -0.4739
 4037SOL    HW118972   3.712   2.783   8.357  2.1729 -0.1865 -1.2396
 4037SOL    HW218973   3.665   2.829   8.493 -1.4057 -0.1505 -2.3913
 4038SOL     OW18974   0.586   6.487   8.250  0.0584 -0.4656  0.4918
 4038SOL    HW118975   0.492   6.505   8.254 -0.0135 -0.3864 -0.9108
 4038SOL    HW218976   0.596   6.401   8.291 -0.5516 -0.2714  1.0687
 4039SOL     OW18977   3.752  12.136   6.987  0.6022  0.2313  0.4526
 4039SOL    HW118978   3.841  12.108   7.010  0.1093 -2.1848 -0.2466
 4039SOL    HW218979   3.704  12.054   6.977 -1.8568  1.4792  1.2669
 4040SOL     OW18980   4.591   4.424   3.646 -0.1367  0.1641  0.6698
 4040SOL    HW118981   4.523   4.370   3.606 -0.5830  1.0128  0.2479
 4040SOL    HW218982   4.619   4.483   3.575 -0.6962  1.4630  1.4976
 4041SOL     OW18983  11.312  10.924   6.248  0.1127  0.2582  0.3524
 4041SOL    HW118984  11.283  11.015   6.252  2.5820  1.1002  0.9108
 4041SOL    HW218985  11.338  10.910   6.157  0.5419  0.4173  0.4456
 4042SOL     OW18986   0.478   2.885  11.455 -0.1777 -0.5341  0.2862
 4042SOL    HW118987   0.492   2.791  11.466 -0.0211 -0.7848 -1.6978
 4042SOL    HW218988   0.383   2.895  11.454 -0.2127 -0.4260  2.0760
 4043SOL     OW18989   3.024   9.689  11.973  0.4144  0.3462 -0.0319
 4043SOL    HW118990   3.024   9.690  12.068  1.6660 -0.8111 -0.0015
 4043SOL    HW218991   2.931   9.696  11.949  0.1779  2.3499  1.2048
 4044SOL     OW18992   8.649   2.759   3.115  0.2142 -0.4611  0.1233
 4044SOL    HW118993   8.718   2.787   3.176  1.1468 -1.1402 -0.5850
 4044SOL    HW218994   8.693   2.754   3.030 -0.9694  0.0805 -0.5467
 4045SOL     OW18995  12.325   0.976  12.090 -0.1630 -0.0974 -0.3762
 4045SOL    HW118996  12.300   1.065  12.112  1.3947  0.1562  0.4938
 4045SOL    HW218997  12.277   0.921  12.152  0.8033  0.3317  0.7917
 4046SOL     OW18998   4.100   9.788  10.143 -0.1179 -0.3881 -0.2855
 4046SOL    HW118999   4.160   9.810  10.072  2.1908  0.7498  1.8633
 4046SOL    HW219000   4.065   9.702  10.119  1.9269 -0.8405 -1.9480
 4047SOL     OW19001   4.198   0.152   1.756  0.3966 -0.2795 -0.2618
 4047SOL    HW119002   4.206   0.102   1.836  0.4065  1.2222  0.7148
 4047SOL    HW219003   4.221   0.090   1.686 -1.5526 -2.1779  0.6812
 4048SOL     OW19004   1.777   8.722   7.550  0.1898  0.3024 -0.7612
 4048SOL    HW119005   1.773   8.634   7.587 -1.1432  0.6940  0.0898
 4048SOL    HW219006   1.690   8.738   7.515  0.4067  1.2879 -0.8980
 4049SOL     OW19007   7.948   0.625   1.399 -0.6179 -0.0373  0.2388
 4049SOL    HW119008   7.973   0.663   1.315 -0.8598  1.3970  0.7921
 4049SOL    HW219009   8.026   0.578   1.428  0.0478  0.8886 -0.0011
 4050SOL     OW19010   0.392   0.202   7.686  0.2118 -0.3369  0.3464
 4050SOL    HW119011   0.409   0.110   7.706 -0.0041 -0.3431  0.5062
 4050SOL    HW219012   0.384   0.205   7.590 -0.7005 -0.6446  0.4044
 4051SOL     OW19013   3.591   9.718  11.059  0.4288 -0.3641 -0.1180
 4051SOL    HW119014   3.551   9.769  11.129  0.8921  0.3064 -0.3289
 4051SOL    HW219015   3.669   9.769  11.033  0.3365 -0.6575 -1.0304
 4052SOL     OW19016   1.453  12.319   1.365 -0.0257 -0.1511 -0.2120
 4052SOL    HW119017   1.470  12.240   1.416 -1.7776  0.6241  1.7360
 4052SOL    HW219018   1.526  12.378   1.385  0.5262 -0.7294 -0.5115
 4053SOL     OW19019   3.374  11.626   2.449 -0.3482 -0.6383  0.2563
 4053SOL    HW119020   3.442  11.647   2.385 -1.3658  1.7674 -0.1197
 4053SOL    HW219021   3.382  11.531   2.461  2.9994 -0.4896  0.2063
 4054SOL     OW19022  11.046  11.638   9.936 -0.2604  0.1546 -0.5173
 4054SOL    HW119023  11.020  11.602  10.021 -0.2973  0.5622 -0.3490
 4054SOL    HW219024  11.070  11.729   9.956  0.1883  0.1131 -0.8632
 4055SOL     OW19025   6.296   5.631   8.457  0.0754 -0.3470 -0.2240
 4055SOL    HW119026   6.280   5.710   8.404 -1.5367 -0.1211  0.5323
 4055SOL    HW219027   6.209   5.605   8.487  0.4914 -2.8538 -1.0224
 4056SOL     OW19028   2.827   3.716   1.238 -0.3743 -0.3546 -0.1252
 4056SOL    HW119029   2.763   3.781   1.208 -0.1702 -0.4892 -0.8639
 4056SOL    HW219030   2.783   3.671   1.310 -1.5370 -1.1497 -1.2804
 4057SOL     OW19031  10.513   1.677   9.161 -0.1769 -0.1537 -0.5156
 4057SOL    HW119032  10.493   1.590   9.195 -0.0682 -0.1760 -0.5082
 4057SOL    HW219033  10.532   1.730   9.238 -2.5205  0.4919 -0.3115
 4058SOL     OW19034   3.833  10.926   3.628 -0.0886 -0.2459 -0.2929
 4058SOL    HW119035   3.820  11.011   3.585  2.1067  0.7891  0.9159
 4058SOL    HW219036   3.927  10.911   3.623 -0.3589 -2.3971  0.0060
 4059SOL     OW19037   1.600   7.738   1.375  0.0597  0.0489  0.1457
 4059SOL    HW119038   1.623   7.656   1.331 -0.4975  0.6341 -1.2905
 4059SOL    HW219039   1.615   7.806   1.309  0.3362  1.1031  1.2494
 4060SOL     OW19040   0.463   3.337   4.874 -0.1039  0.2549  0.1833
 4060SOL    HW119041   0.467   3.396   4.798 -3.3928  0.5179  0.0339
 4060SOL    HW219042   0.475   3.395   4.950  0.9530  0.3612 -0.0520
 4061SOL     OW19043  11.096   9.787   0.354  0.1992  0.6311 -0.2506
 4061SOL    HW119044  11.009   9.796   0.315  0.4849  1.8811 -0.6418
 4061SOL    HW219045  11.080   9.742   0.437 -0.5327 -1.2435 -1.3524
 4062SOL     OW19046  12.014  12.399   3.226  0.8226 -0.1062  0.4817
 4062SOL    HW119047  12.032  12.392   3.320 -0.8370  0.8066  0.9022
 4062SOL    HW219048  12.056  12.481   3.200  0.8367 -0.0940  0.5413
 4063SOL     OW19049  10.634   3.344   9.765 -0.0997  0.2129 -0.0972
 4063SOL    HW119050  10.590   3.263   9.788 -0.7338  0.4486 -0.4369
 4063SOL    HW219051  10.726   3.321   9.756 -0.4384 -0.7602 -1.4664
 4064SOL     OW19052  10.194   8.551   1.050 -0.2989  0.0669  0.1607
 4064SOL    HW119053  10.148   8.561   0.967  1.8715  1.2694 -0.9832
 4064SOL    HW219054  10.168   8.628   1.101 -0.5904  0.0324  0.0654
 4065SOL     OW19055   5.968   6.453  11.792 -0.1559  0.1863  0.2258
 4065SOL    HW119056   5.984   6.424  11.702  0.0023  0.3826  0.1900
 4065SOL    HW219057   5.975   6.373  11.844 -1.3713 -0.1238 -0.0592
 4066SOL     OW19058   9.122   5.712  10.729  0.6125  0.6116  0.5230
 4066SOL    HW119059   9.160   5.726  10.642 -0.8634  2.1614  0.0753
 4066SOL    HW219060   9.040   5.666  10.712  1.0073 -0.3828  1.2429
 4067SOL     OW19061   5.796   3.467  10.054  0.2587 -0.3962 -0.0455
 4067SOL    HW119062   5.782   3.385  10.100  1.6752 -0.7667 -0.2377
 4067SOL    HW219063   5.847   3.443   9.977  0.6575  0.6563 -0.1232
 4068SOL     OW19064   5.285   5.206   3.304 -0.1731 -0.3046  0.5054
 4068SOL    HW119065   5.229   5.169   3.235 -0.4665 -2.9745  2.0524
 4068SOL    HW219066   5.230   5.272   3.346 -1.2669 -1.1008  0.3805
 4069SOL     OW19067   9.090   1.492   5.975 -0.1421 -0.2422  0.7207
 4069SOL    HW119068   9.170   1.462   5.930  0.2047  1.5171  0.1122
 4069SOL    HW219069   9.121   1.520   6.061 -0.2433 -0.3273  0.7845
 4070SOL     OW19070  11.228  11.284   4.169 -0.1790  0.1321 -0.2548
 4070SOL    HW119071  11.319  11.305   4.147  0.3781 -1.2776  0.6118
 4070SOL    HW219072  11.198  11.359   4.222  1.3168 -0.5438  1.6249
 4071SOL     OW19073   8.762   4.699  10.672  0.6026  0.0760  0.2290
 4071SOL    HW119074   8.847   4.685  10.714  0.5928  0.9349  0.5538
 4071SOL    HW219075   8.769   4.786  10.632  0.0255 -0.0288 -0.1110
 4072SOL     OW19076   9.413   3.719  11.450  0.4396 -0.5931 -0.3898
 4072SOL    HW119077   9.456   3.804  11.448  1.8133 -1.2338 -3.0921
 4072SOL    HW219078   9.407   3.697  11.543  0.5656  2.1362  0.3514
 4073SOL     OW19079   6.965   1.734   3.648 -0.0568 -0.2986  0.0024
 4073SOL    HW119080   7.060   1.720   3.651  0.2454  1.5866  1.2159
 4073SOL    HW219081   6.954   1.810   3.590 -0.8445 -0.5924 -0.2473
 4074SOL     OW19082   0.728   8.160   9.659 -0.2168  0.3083  0.8500
 4074SOL    HW119083   0.787   8.092   9.625 -1.7904 -2.1462  2.6580
 4074SOL    HW219084   0.787   8.227   9.695  1.4610 -0.8754  0.4599
 4075SOL     OW19085  12.315  11.272   9.912 -0.4046  0.8026 -0.0663
 4075SOL    HW119086  12.301  11.347   9.855  3.1100  0.5752 -1.4976
 4075SOL    HW219087  12.300  11.196   9.856 -0.7474  0.4900  0.4427
 4076SOL     OW19088   4.798   3.968  11.976  0.1611  0.3822 -0.3926
 4076SOL    HW119089   4.891   3.952  11.990 -0.0654 -0.4491  0.2661
 4076SOL    HW219090   4.769   4.015  12.054 -0.4502 -1.4907  0.5705
 4077SOL     OW19091  11.171   4.635  10.903 -0.0189  0.1349 -0.3377
 4077SOL    HW119092  11.170   4.596  10.816 -2.6255  0.6235 -0.5845
 4077SOL    HW219093  11.255   4.680  10.908  2.5416 -4.0576 -0.6062
 4078SOL     OW19094  11.489   6.190  11.307  0.3047 -0.0933 -0.2311
 4078SOL    HW119095  11.464   6.278  11.333 -0.1824 -0.1964 -0.3459
 4078SOL    HW219096  11.422   6.163  11.244  1.1977 -0.0302 -1.2529
 4079SOL     OW19097   3.394   3.239   7.276  0.0908  0.4420 -0.1494
 4079SOL    HW119098   3.361   3.252   7.365  1.1829  0.5045  0.2646
 4079SOL    HW219099   3.463   3.173   7.286 -0.1800  0.0116 -1.0449
 4080SOL     OW19100   5.756   6.238  11.405  0.3365 -0.0027 -0.2777
 4080SOL    HW119101   5.780   6.243  11.498  0.5890  1.2579 -0.3837
 4080SOL    HW219102   5.662   6.221  11.406  0.1278  1.0559  0.2453
 4081SOL     OW19103   7.209   7.022   3.848 -0.2845  0.0486  0.3101
 4081SOL    HW119104   7.151   7.065   3.785 -1.0600 -2.7107 -1.0374
 4081SOL    HW219105   7.152   6.999   3.921 -0.1341  0.3394  0.5174
 4082SOL     OW19106   4.180  11.333   4.978  0.2052  0.7567 -0.0116
 4082SOL    HW119107   4.148  11.421   4.999  0.8154  0.4067  2.7103
 4082SOL    HW219108   4.101  11.279   4.975  0.0554  0.7077  2.4161
 4083SOL     OW19109   6.919   8.237   7.570  0.4051  0.1833  0.0668
 4083SOL    HW119110   6.963   8.291   7.504  1.2910  0.7283  1.0833
 4083SOL    HW219111   6.855   8.186   7.520  0.0299  1.6484 -1.0105
 4084SOL     OW19112   8.313  10.500   3.249 -0.3214  0.6008  0.0240
 4084SOL    HW119113   8.285  10.551   3.325 -0.8037 -0.8029  0.8238
 4084SOL    HW219114   8.384  10.444   3.282 -0.0771  0.4471 -0.7298
 4085SOL     OW19115   0.712   3.045   1.584 -0.6005  0.5184 -0.4075
 4085SOL    HW119116   0.624   3.065   1.552  0.3574  1.4690 -2.6880
 4085SOL    HW219117   0.768   3.051   1.506  1.5167  0.0780  0.9826
 4086SOL     OW19118   2.662   3.976   7.086 -0.0558 -0.0099  0.0429
 4086SOL    HW119119   2.738   4.025   7.054  0.9190 -0.1556  1.9930
 4086SOL    HW219120   2.608   4.042   7.130 -1.4595  0.2154 -1.8688
 4087SOL     OW19121   5.806   7.417   6.984 -0.4695 -0.6448 -0.0486
 4087SOL    HW119122   5.732   7.361   6.963 -1.7073  1.3172 -1.2433
 4087SOL    HW219123   5.768   7.490   7.033  0.4630  0.8277 -1.3811
 4088SOL     OW19124   6.282   2.965  11.974 -0.3173 -0.5147 -0.4350
 4088SOL    HW119125   6.358   2.980  12.029 -0.4492  1.3903 -0.7269
 4088SOL    HW219126   6.317   2.925  11.894  0.5958  1.6048 -1.1400
 4089SOL     OW19127   4.504  10.764   1.003  0.2726 -0.3925 -0.0159
 4089SOL    HW119128   4.512  10.763   0.907 -0.3527  1.5189 -0.1388
 4089SOL    HW219129   4.588  10.732   1.034  0.5447 -0.9111 -1.2051
 4090SOL     OW19130   8.275  10.007   6.762  0.6366  0.6494  1.2280
 4090SOL    HW119131   8.242  10.026   6.850  0.6213 -1.7936  1.8236
 4090SOL    HW219132   8.298   9.914   6.765 -1.5976 -0.1972 -1.9868
 4091SOL     OW19133   6.230   0.772   7.420 -0.0306 -0.1544  0.2165
 4091SOL    HW119134   6.176   0.784   7.498 -0.7719  0.8196 -0.4158
 4091SOL    HW219135   6.206   0.845   7.363  1.2438 -0.2620 -0.5035
 4092SOL     OW19136   3.023  10.269   7.163 -0.5998  0.0217  0.0869
 4092SOL    HW119137   3.068  10.199   7.115 -1.5269 -2.1520  2.1796
 4092SOL    HW219138   2.931  10.260   7.138 -0.5943  1.2046 -0.4078
 4093SOL     OW19139   2.069  11.553   9.123  0.2977 -0.4210 -0.0845
 4093SOL    HW119140   2.053  11.578   9.214 -0.2899  0.9307 -0.5401
 4093SOL    HW219141   1.985  11.522   9.091  0.6837 -1.6669  0.0349
 4094SOL     OW19142   6.248   7.748  12.114  0.5534  0.6700 -0.7432
 4094SOL    HW119143   6.219   7.667  12.158  0.5748  2.0178  1.9240
 4094SOL    HW219144   6.187   7.758  12.041 -1.5946 -0.0598  0.8380
 4095SOL     OW19145   7.719   0.045   5.224  0.0377  0.6971  0.1201
 4095SOL    HW119146   7.687   0.134   5.207 -0.3317  0.6404  0.5173
 4095SOL    HW219147   7.670   0.015   5.301  0.4438  0.2948  0.2282
 4096SOL     OW19148   8.372   3.015   0.516 -0.3779  0.1834 -0.2227
 4096SOL    HW119149   8.376   3.005   0.421 -2.7755 -0.7518 -0.3189
 4096SOL    HW219150   8.363   2.926   0.549  1.9802  0.3578  1.0596
 4097SOL     OW19151   4.657   1.964  10.064  0.0663  0.2841  0.3157
 4097SOL    HW119152   4.699   2.044  10.035 -0.9160  0.6162 -0.2361
 4097SOL    HW219153   4.594   1.993  10.130 -0.2289 -0.0396  0.1803
 4098SOL     OW19154   1.252  11.116   6.948  0.1619  0.0700 -0.2125
 4098SOL    HW119155   1.311  11.134   6.874  1.9289 -1.2121  0.8001
 4098SOL    HW219156   1.289  11.166   7.021 -1.0182  0.5743  0.0618
 4099SOL     OW19157   4.252  12.442   1.961 -0.3084 -0.0022  0.0883
 4099SOL    HW119158   4.225  12.451   2.053 -0.2885 -0.0778  0.1022
 4099SOL    HW219159   4.348  12.449   1.963 -0.3635  0.8401 -0.0325
 4100SOL     OW19160   7.484   7.783   6.515 -0.6045 -0.5230 -0.3743
 4100SOL    HW119161   7.480   7.752   6.606  1.1907 -0.1800 -0.1330
 4100SOL    HW219162   7.396   7.770   6.482 -0.9529 -2.0409  0.9714
 4101SOL     OW19163   4.418   5.458   5.405  0.0914  0.3195  0.1673
 4101SOL    HW119164   4.407   5.551   5.385  1.6113  0.1654 -1.8032
 4101SOL    HW219165   4.489   5.430   5.346  0.5098 -1.8062  1.5850
 4102SOL     OW19166   5.615   0.798   3.321  0.1987 -0.9977 -0.1137
 4102SOL    HW119167   5.629   0.885   3.282  3.1637  0.0455  2.8566
 4102SOL    HW219168   5.626   0.737   3.248  0.3762  1.0132 -1.8572
 4103SOL     OW19169   2.285   9.756  11.671  0.5387 -0.5088 -0.2405
 4103SOL    HW119170   2.257   9.845  11.648  0.4810 -0.0825  1.3513
 4103SOL    HW219171   2.202   9.708  11.683  0.5567 -0.5193 -0.1594
 4104SOL     OW19172  11.297  12.059   6.212 -0.6089 -0.3083  0.1478
 4104SOL    HW119173  11.371  12.087   6.266  0.0754 -2.5243  0.4421
 4104SOL    HW219174  11.227  12.120   6.234  0.0932 -0.2516  2.4589
 4105SOL     OW19175  11.220  12.058   3.432 -0.0069  0.0333 -0.3710
 4105SOL    HW119176  11.188  12.145   3.410 -1.7723 -0.3670  0.4616
 4105SOL    HW219177  11.313  12.071   3.451 -0.3516  1.8492  0.2921
 4106SOL     OW19178   5.228   8.097   6.029  0.3705 -0.7497  0.5772
 4106SOL    HW119179   5.260   8.090   5.939  1.1927 -1.1605  0.8927
 4106SOL    HW219180   5.205   8.189   6.039 -0.1399 -0.7835 -0.1836
 4107SOL     OW19181   4.675   4.609   5.392 -0.7728 -0.7592  0.1611
 4107SOL    HW119182   4.688   4.703   5.383  0.2466 -0.6881  1.9029
 4107SOL    HW219183   4.704   4.573   5.309 -0.4461  0.3984 -0.2464
 4108SOL     OW19184   6.917   3.624   8.031  0.0391  0.1740 -0.0460
 4108SOL    HW119185   6.940   3.571   7.954 -1.8573  1.4768 -1.6356
 4108SOL    HW219186   6.884   3.706   7.993  0.9090  1.6629  2.2531
 4109SOL     OW19187   8.314   1.313   5.658 -0.1193 -0.2387  0.3259
 4109SOL    HW119188   8.357   1.369   5.593 -1.6561 -0.7142 -1.1927
 4109SOL    HW219189   8.299   1.230   5.612  0.7228 -1.3882  2.0275
 4110SOL     OW19190   4.864   2.366   4.094  0.1525  0.0299 -0.0051
 4110SOL    HW119191   4.956   2.357   4.117 -0.0019 -0.9014  0.2740
 4110SOL    HW219192   4.859   2.450   4.048  0.8354  0.9677  1.5412
 4111SOL     OW19193   9.354   7.357   6.798  0.2013  0.3261 -0.3516
 4111SOL    HW119194   9.396   7.271   6.789 -1.3017 -0.3553 -1.3014
 4111SOL    HW219195   9.425   7.415   6.824  1.1728 -1.2759  0.7596
 4112SOL     OW19196   9.400   6.571   5.470 -0.1645 -0.1419  0.1408
 4112SOL    HW119197   9.427   6.608   5.385 -0.9202 -0.3627 -0.2036
 4112SOL    HW219198   9.305   6.574   5.468 -0.1903  0.0294  1.0754
 4113SOL     OW19199   7.089   5.373  11.585 -0.7997  0.5454 -0.0041
 4113SOL    HW119200   7.097   5.468  11.592  1.9681  0.3937 -0.1149
 4113SOL    HW219201   6.995   5.357  11.584 -1.3432  3.2318  0.5587
 4114SOL     OW19202   4.599   0.701   1.347 -0.2830  0.5528 -0.4568
 4114SOL    HW119203   4.559   0.708   1.434 -1.2515  1.3847 -0.9532
 4114SOL    HW219204   4.527   0.713   1.286 -0.3346 -3.5539 -1.4903
 4115SOL     OW19205   2.537   8.177   9.034 -0.1828 -0.1848 -0.2511
 4115SOL    HW119206   2.627   8.208   9.036 -0.2200  0.0173 -1.3570
 4115SOL    HW219207   2.501   8.202   9.119  0.2864  1.2800 -0.4567
 4116SOL     OW19208   2.970  12.189  11.116 -0.4774 -0.0823 -0.3611
 4116SOL    HW119209   2.884  12.207  11.153  0.0764 -0.6564  1.3249
 4116SOL    HW219210   2.954  12.131  11.042 -1.5069 -0.5804  0.2386
 4117SOL     OW19211  10.684   0.208   4.154 -0.3030 -0.0233  0.5410
 4117SOL    HW119212  10.726   0.240   4.234 -1.5101  0.8123  0.8684
 4117SOL    HW219213  10.602   0.256   4.149  0.1578  0.6616 -1.7268
 4118SOL     OW19214   6.181   1.493   1.310 -0.4228 -0.8269 -0.1763
 4118SOL    HW119215   6.234   1.463   1.236  0.0350 -0.2881 -0.0732
 4118SOL    HW219216   6.091   1.492   1.277 -0.1645  0.0076 -0.9501
 4119SOL     OW19217   6.375   7.184   1.455 -0.0724  0.4228 -0.2643
 4119SOL    HW119218   6.469   7.201   1.448  0.3536 -1.4821  0.0969
 4119SOL    HW219219   6.338   7.219   1.374  0.9585  1.1121 -0.4623
 4120SOL     OW19220   1.326   3.250  11.377 -0.1222 -0.1500 -0.1013
 4120SOL    HW119221   1.272   3.285  11.306 -1.1982  0.4102  0.9694
 4120SOL    HW219222   1.394   3.199  11.332 -2.7910 -2.8147 -1.4919
 4121SOL     OW19223   4.869  11.164   6.583  0.3313  0.5594  0.3771
 4121SOL    HW119224   4.827  11.215   6.513  0.5355 -1.2765 -1.1601
 4121SOL    HW219225   4.797  11.116   6.623  0.4731  0.0860  0.0738
 4122SOL     OW19226   8.425   8.323   0.295  0.3653  0.3164  0.1485
 4122SOL    HW119227   8.342   8.342   0.340 -0.8298 -0.5811 -1.5682
 4122SOL    HW219228   8.427   8.384   0.222  0.8079 -0.2381 -0.3087
 4123SOL     OW19229   8.976   6.145   8.930  0.4420 -0.1493  0.3716
 4123SOL    HW119230   9.025   6.186   9.001  1.3832  0.3874 -0.5440
 4123SOL    HW219231   8.905   6.099   8.973 -0.0359  1.5692  1.5272
 4124SOL     OW19232   0.895  10.810   8.775 -0.1769  0.1203  0.1272
 4124SOL    HW119233   0.980  10.798   8.733 -0.2276 -1.4316  0.4019
 4124SOL    HW219234   0.867  10.897   8.747  1.6926  0.8720  0.4013
 4125SOL     OW19235   1.873   2.919  11.219 -0.1020 -0.8319 -0.0664
 4125SOL    HW119236   1.904   2.874  11.297  0.8837 -1.0336 -0.5613
 4125SOL    HW219237   1.891   3.012  11.236  0.9190 -0.9557 -0.3937
 4126SOL     OW19238   7.120   5.218   3.570 -0.6071 -0.7453  0.5467
 4126SOL    HW119239   7.075   5.303   3.567  0.3130 -0.2751 -2.1026
 4126SOL    HW219240   7.049   5.154   3.573 -1.3824  0.0653  0.0762
 4127SOL     OW19241   5.503   9.453   6.911  0.1713 -0.0889  0.1579
 4127SOL    HW119242   5.497   9.538   6.869  0.1755  1.3579  2.8716
 4127SOL    HW219243   5.576   9.461   6.972 -1.6491 -0.9631  2.6281
 4128SOL     OW19244  11.102  11.861   4.173 -0.0113  0.2808  0.4698
 4128SOL    HW119245  11.054  11.903   4.102  0.6381 -0.2795 -0.3230
 4128SOL    HW219246  11.034  11.831   4.234 -0.5655  0.8893  0.1557
 4129SOL     OW19247   2.325   7.626   4.369 -0.5272  0.2494  0.0318
 4129SOL    HW119248   2.392   7.655   4.432  1.3470 -0.5240 -1.4796
 4129SOL    HW219249   2.249   7.682   4.387  1.1373  2.4882  0.6288
 4130SOL     OW19250   5.123   4.558   7.550  0.1159 -0.2639  0.2204
 4130SOL    HW119251   5.144   4.561   7.456  0.1797 -2.5212  0.1139
 4130SOL    HW219252   5.207   4.569   7.594  0.0065  1.4587  0.0767
 4131SOL     OW19253   6.401   4.309   5.871  0.0441 -0.0397 -0.4687
 4131SOL    HW119254   6.388   4.392   5.916  1.0198  0.3771 -0.9151
 4131SOL    HW219255   6.321   4.260   5.886 -0.7142  1.1440 -0.5493
 4132SOL     OW19256   5.969  10.216  10.507  0.6152  0.2584 -0.6346
 4132SOL    HW119257   6.059  10.185  10.513  0.3726 -0.2422  0.8230
 4132SOL    HW219258   5.918  10.152  10.557 -0.6631  0.1520 -1.9886
 4133SOL     OW19259  12.016   5.387   3.309  0.1619 -0.3953 -0.3268
 4133SOL    HW119260  12.098   5.357   3.270  1.4514  0.4152  1.5970
 4133SOL    HW219261  12.040   5.416   3.397 -2.3058 -0.7153  0.5531
 4134SOL     OW19262  11.686   8.650  10.828 -0.1886  0.8664  0.4045
 4134SOL    HW119263  11.764   8.677  10.876  1.8281 -0.1555 -2.1292
 4134SOL    HW219264  11.668   8.722  10.768 -0.5034  0.6103  0.1848
 4135SOL     OW19265   3.343   6.418  10.669  0.3890 -0.4420  0.0411
 4135SOL    HW119266   3.295   6.476  10.610  2.2916  1.1694 -0.0102
 4135SOL    HW219267   3.310   6.439  10.756 -0.2142 -0.6006 -0.1433
 4136SOL     OW19268   2.306   1.713   2.992  0.1433  0.3105  0.0049
 4136SOL    HW119269   2.254   1.633   2.989 -1.7189  1.4894 -1.8425
 4136SOL    HW219270   2.279   1.757   3.072  1.4943 -1.0384  1.2607
 4137SOL     OW19271  12.001   6.802   9.986 -0.1171  0.2963 -0.6786
 4137SOL    HW119272  11.972   6.862   9.917  0.0580 -1.6081 -2.5196
 4137SOL    HW219273  12.096   6.796   9.974 -0.0558  0.1158 -0.1130
 4138SOL     OW19274   3.786   4.522   0.938 -0.1555  0.5227  0.1885
 4138SOL    HW119275   3.714   4.523   0.874  1.0376  0.7022 -1.1995
 4138SOL    HW219276   3.751   4.471   1.011 -1.4878  0.0670 -0.7130
 4139SOL     OW19277  11.523   2.492   9.704 -0.4303  0.0372 -0.2470
 4139SOL    HW119278  11.444   2.459   9.662  0.2312  0.8024 -2.2020
 4139SOL    HW219279  11.491   2.552   9.771 -1.5154 -0.9534  0.1484
 4140SOL     OW19280  10.556   6.694   8.628  0.7787  0.3913  0.4224
 4140SOL    HW119281  10.475   6.740   8.648  0.7654 -0.1305  1.6454
 4140SOL    HW219282  10.568   6.707   8.534 -0.6841  0.5331  0.2309
 4141SOL     OW19283   0.432   8.351   6.610  0.1425  0.1401  0.3182
 4141SOL    HW119284   0.404   8.288   6.676 -0.9599  1.2164  0.9169
 4141SOL    HW219285   0.523   8.372   6.634  0.2596 -0.6316  0.5660
 4142SOL     OW19286  12.243   9.394   1.761 -0.1436  0.3373 -0.3197
 4142SOL    HW119287  12.305   9.466   1.770  0.9315 -0.4350 -1.4195
 4142SOL    HW219288  12.195   9.413   1.681  0.6917 -0.5647 -1.0487
 4143SOL     OW19289   4.679  10.051   6.351 -0.0396  0.1733  0.0150
 4143SOL    HW119290   4.724  10.097   6.280  0.9838 -0.8671 -0.0404
 4143SOL    HW219291   4.601  10.103   6.367  1.2705  2.1974  0.2692
 4144SOL     OW19292   6.090  11.393   8.969  0.0452  0.0269  0.5168
 4144SOL    HW119293   6.018  11.379   8.907 -1.6676 -1.9575  2.7223
 4144SOL    HW219294   6.097  11.488   8.977 -1.4438  0.2926 -0.7470
 4145SOL     OW19295   9.535   5.890   3.138 -0.3133  0.1961 -0.0325
 4145SOL    HW119296   9.566   5.974   3.173 -0.2177  0.3495 -0.4864
 4145SOL    HW219297   9.597   5.826   3.172 -0.2661  0.3330  0.1445
 4146SOL     OW19298  12.139  11.315   0.433 -0.2004 -0.3297 -0.1871
 4146SOL    HW119299  12.156  11.253   0.503  1.0036 -0.4899 -0.5962
 4146SOL    HW219300  12.212  11.304   0.372  0.3264  1.7944 -0.0448
 4147SOL     OW19301   2.787  12.299   6.120  0.0193  0.2502  0.2018
 4147SOL    HW119302   2.767  12.382   6.162  1.7366  0.1057  1.4236
 4147SOL    HW219303   2.802  12.321   6.028  0.2314  1.2682  0.4757
 4148SOL     OW19304   8.812   5.538   8.819  0.0509 -0.2272 -0.0876
 4148SOL    HW119305   8.840   5.456   8.860 -0.5706 -0.7742 -0.7407
 4148SOL    HW219306   8.729   5.516   8.776 -0.6059  0.9814  0.5324
 4149SOL     OW19307   1.631   5.150  10.318  0.4511  0.0226 -0.5285
 4149SOL    HW119308   1.720   5.114  10.315  0.1403 -0.9069  0.8641
 4149SOL    HW219309   1.575   5.075  10.337 -0.7324  0.4883 -1.9782
 4150SOL     OW19310   5.925   7.216   9.291 -0.2500  0.1895 -0.1422
 4150SOL    HW119311   5.944   7.295   9.343 -0.0961  1.6456 -2.2906
 4150SOL    HW219312   5.840   7.186   9.323  0.1062  0.6704  1.3384
 4151SOL     OW19313   9.959   8.798   2.039 -0.5700 -0.1104 -0.5987
 4151SOL    HW119314   9.999   8.819   1.955  0.4190 -0.4906 -0.2387
 4151SOL    HW219315   9.981   8.872   2.096  0.1276 -0.5785 -0.2425
 4152SOL     OW19316  12.474   0.312  10.006 -0.0504  0.2934 -0.3466
 4152SOL    HW119317  12.459   0.230  10.054 -0.8665 -0.3915 -1.7317
 4152SOL    HW219318  12.425   0.378  10.056  0.8741  0.0475  0.9633
 4153SOL     OW19319   0.293   8.204   9.192  0.3157 -0.0117  0.0063
 4153SOL    HW119320   0.243   8.158   9.260 -1.0250  0.0822 -0.8663
 4153SOL    HW219321   0.227   8.255   9.144  1.4242  0.9559 -0.5375
 4154SOL     OW19322   6.604   1.617   2.744  0.8078  0.8752 -0.2535
 4154SOL    HW119323   6.529   1.672   2.767  0.0847 -0.3537  0.4058
 4154SOL    HW219324   6.639   1.588   2.828  1.0531  0.1603 -0.6001
 4155SOL     OW19325  10.993   8.813   9.377 -0.0442  0.3728  0.4161
 4155SOL    HW119326  11.025   8.887   9.429 -0.6082  0.2039  1.0184
 4155SOL    HW219327  11.040   8.820   9.294  1.9453 -0.1793  1.4472
 4156SOL     OW19328   5.416   9.997  11.649 -0.0427 -0.2250  0.4679
 4156SOL    HW119329   5.386   9.995  11.740 -0.0573 -0.3877  0.4590
 4156SOL    HW219330   5.506   9.965  11.653 -0.4133 -1.3386  0.2760
 4157SOL     OW19331   9.005   6.196   5.732 -0.0289 -0.2673  0.7227
 4157SOL    HW119332   8.985   6.199   5.639 -0.6275 -0.4444  0.8450
 4157SOL    HW219333   8.922   6.178   5.775  0.3667 -0.9329  1.2414
 4158SOL     OW19334   1.110   8.832   0.736 -0.1716  0.4463  0.0628
 4158SOL    HW119335   1.100   8.746   0.695  0.7850 -0.3142  1.3378
 4158SOL    HW219336   1.040   8.836   0.801  0.1205  0.4004  0.3802
 4159SOL     OW19337   5.252   2.285   4.784  0.3760  0.1005  0.2213
 4159SOL    HW119338   5.345   2.301   4.803  0.4756  0.0475 -0.2259
 4159SOL    HW219339   5.250   2.199   4.742 -0.0283 -0.5245  1.4768
 4160SOL     OW19340   5.050   0.885   0.378 -0.1812  0.2610  0.3990
 4160SOL    HW119341   4.980   0.931   0.425 -0.2940 -0.2066  0.6955
 4160SOL    HW219342   5.076   0.945   0.309 -0.5902  0.6137  0.5476
 4161SOL     OW19343   6.410   2.322   6.065 -0.1461  0.3028 -0.0535
 4161SOL    HW119344   6.320   2.338   6.035  0.3062  0.1864 -1.5684
 4161SOL    HW219345   6.449   2.409   6.072  0.0696  0.2899 -0.9335
 4162SOL     OW19346   7.222   2.241   0.507 -0.0064  0.2523  0.1956
 4162SOL    HW119347   7.142   2.292   0.522 -0.5794 -0.8004  0.8760
 4162SOL    HW219348   7.212   2.165   0.564  0.4296 -1.0358 -1.3616
 4163SOL     OW19349   2.494   4.529   1.291 -0.6022  0.0275  0.4094
 4163SOL    HW119350   2.415   4.479   1.312  0.2472 -1.3494  0.4539
 4163SOL    HW219351   2.463   4.619   1.278 -1.9539 -0.1742  1.9450
 4164SOL     OW19352   6.267   5.827   9.551  0.1067  0.1889 -0.0274
 4164SOL    HW119353   6.336   5.831   9.618  0.5298  0.8338 -0.4867
 4164SOL    HW219354   6.299   5.761   9.489  0.6276  0.9248 -0.5640
 4165SOL     OW19355  11.879   5.911   3.940  0.1515  0.2576  0.2283
 4165SOL    HW119356  11.911   6.001   3.948 -1.0491  0.8610 -1.3465
 4165SOL    HW219357  11.787   5.915   3.965 -0.7376  0.1229 -2.6745
 4166SOL     OW19358   6.637   2.462   8.298 -0.0258 -0.1446 -0.0707
 4166SOL    HW119359   6.562   2.407   8.322  0.3699 -0.7988 -0.3195
 4166SOL    HW219360   6.598   2.547   8.278 -0.3894  0.6224  3.1847
 4167SOL     OW19361   2.666   8.218   6.229 -0.0478  0.1912 -0.0289
 4167SOL    HW119362   2.637   8.134   6.193  1.7278 -0.1566 -0.7590
 4167SOL    HW219363   2.681   8.201   6.322 -1.6548  0.2692  0.2730
 4168SOL     OW19364  12.081  12.014   3.857  0.1524  0.4499  0.1577
 4168SOL    HW119365  12.004  12.000   3.913 -0.2000  3.1266  0.4648
 4168SOL    HW219366  12.089  12.109   3.852  3.8856  0.2875  0.7096
 4169SOL     OW19367  12.266   4.608   9.158 -0.1149  0.0040  0.0899
 4169SOL    HW119368  12.174   4.598   9.131  0.1640 -3.4332 -0.0977
 4169SOL    HW219369  12.276   4.546   9.231  2.3250 -0.7699 -0.7951
 4170SOL     OW19370   6.851   3.491   4.125 -0.1513  0.5089  0.4840
 4170SOL    HW119371   6.810   3.576   4.134  0.2855  0.7633  0.1163
 4170SOL    HW219372   6.898   3.495   4.042 -0.9443 -0.4402 -0.0409
 4171SOL     OW19373   8.086   7.201   2.596  0.0880 -0.2215  0.5200
 4171SOL    HW119374   7.999   7.238   2.585  0.4751  0.8071  0.8094
 4171SOL    HW219375   8.116   7.183   2.506 -0.3603 -0.4437  0.4133
 4172SOL     OW19376  11.710  10.683  10.884 -0.3272  0.2215 -0.2177
 4172SOL    HW119377  11.721  10.596  10.847  3.6532  1.2405 -1.9480
 4172SOL    HW219378  11.701  10.741  10.808  1.2619  1.6726  0.6158
 4173SOL     OW19379   0.629   3.967   4.679 -0.1030 -0.5515 -0.4741
 4173SOL    HW119380   0.599   3.987   4.590  1.3075  0.2517 -0.7976
 4173SOL    HW219381   0.719   4.001   4.683 -0.3933  0.1530  1.5070
 4174SOL     OW19382   5.182   8.892   9.118 -0.6449 -0.2202 -0.1787
 4174SOL    HW119383   5.092   8.919   9.133 -0.9457 -1.1391 -0.2902
 4174SOL    HW219384   5.186   8.801   9.149  0.2748 -0.1449 -0.0428
 4175SOL     OW19385   1.991  12.083   1.200  0.4783 -0.2153  0.6737
 4175SOL    HW119386   2.077  12.100   1.160 -0.5548  2.6978 -0.5924
 4175SOL    HW219387   2.009  12.082   1.294  1.7154  2.4856  0.5846
 4176SOL     OW19388  12.296   4.623   8.865  0.8717  0.1599  0.0575
 4176SOL    HW119389  12.284   4.634   8.959 -0.9782 -1.8594  0.1363
 4176SOL    HW219390  12.391   4.629   8.852  1.1397  0.7368  1.9945
 4177SOL     OW19391   5.673   7.571   7.174 -0.3937  0.1326  0.5304
 4177SOL    HW119392   5.732   7.599   7.245  1.2512 -0.4679 -0.5386
 4177SOL    HW219393   5.614   7.510   7.216  1.1402 -0.9255  1.2607
 4178SOL     OW19394  11.345  12.250   4.088  0.6044 -0.4367  0.2059
 4178SOL    HW119395  11.255  12.267   4.114  0.5610 -2.1961  1.3718
 4178SOL    HW219396  11.339  12.175   4.029  1.1698  0.5912 -1.2171
 4179SOL     OW19397   4.429  10.641   1.853  0.0163  0.0005 -0.0221
 4179SOL    HW119398   4.476  10.610   1.930 -0.5776 -0.9483 -0.0199
 4179SOL    HW219399   4.492  10.637   1.782  0.4067  0.3408  0.3033
 4180SOL     OW19400   3.299   4.979   9.848 -0.3087 -0.1951 -0.1285
 4180SOL    HW119401   3.362   5.040   9.810  0.8137 -0.8464  0.6297
 4180SOL    HW219402   3.285   5.012   9.937  0.5208 -1.1817  0.3810
 4181SOL     OW19403   2.569  10.682   3.758 -0.4952 -0.0495  0.0617
 4181SOL    HW119404   2.609  10.741   3.695  0.2076  0.2480  0.7652
 4181SOL    HW219405   2.502  10.736   3.801  1.6113  1.0174  2.2623
 4182SOL     OW19406  10.724   8.170   5.455 -0.0439  0.2247  0.4094
 4182SOL    HW119407  10.646   8.193   5.404  1.4922  2.1207 -1.2855
 4182SOL    HW219408  10.795   8.171   5.390  1.7701  1.1804  2.2972
 4183SOL     OW19409   6.558   7.641   1.866 -0.3389  0.0709  0.1925
 4183SOL    HW119410   6.469   7.614   1.844 -0.3937 -0.7075  1.2989
 4183SOL    HW219411   6.614   7.569   1.838 -0.2240 -0.1257  0.9041
 4184SOL     OW19412   5.144   1.878   4.202 -0.0430 -0.1765  0.6389
 4184SOL    HW119413   5.171   1.787   4.209  0.8204 -0.0056 -0.3444
 4184SOL    HW219414   5.075   1.878   4.136 -0.6749 -0.2396  1.2908
 4185SOL     OW19415   4.106   9.360   7.526 -0.0081  0.7347 -0.3179
 4185SOL    HW119416   4.123   9.336   7.435  0.4862 -1.5852  0.3116
 4185SOL    HW219417   4.181   9.325   7.575 -2.3236 -2.2123  1.4864
 4186SOL     OW19418   3.577   2.730   5.307 -0.4108  0.4368  0.1655
 4186SOL    HW119419   3.672   2.741   5.306 -0.3672  0.0861 -0.4917
 4186SOL    HW219420   3.553   2.733   5.399  0.3969 -0.6910  0.4410
 4187SOL     OW19421   2.736   5.299   8.154  0.2634 -0.3728  0.4359
 4187SOL    HW119422   2.742   5.261   8.066  1.6807 -0.1571  0.4090
 4187SOL    HW219423   2.676   5.372   8.145 -0.7231 -1.2193 -0.0225
 4188SOL     OW19424   4.314   0.732   0.995  0.3577 -0.1585  0.0806
 4188SOL    HW119425   4.370   0.693   0.927 -0.4801 -0.8757 -0.2238
 4188SOL    HW219426   4.358   0.710   1.077  0.1602 -1.3773 -0.1129
 4189SOL     OW19427  11.577   5.234  12.348  0.3760 -0.1179 -0.3033
 4189SOL    HW119428  11.598   5.228  12.441 -0.2148 -0.3358 -0.1818
 4189SOL    HW219429  11.535   5.151  12.328 -0.7662  0.4675 -0.4386
 4190SOL     OW19430   8.125   9.697   9.779 -0.2363  0.0868  0.3249
 4190SOL    HW119431   8.128   9.655   9.693  0.8425  0.1939  0.2984
 4190SOL    HW219432   8.216   9.708   9.804 -0.5015  1.3495  0.8515
 4191SOL     OW19433   4.764   8.026  10.528 -0.3794  0.2838  0.1581
 4191SOL    HW119434   4.752   7.975  10.447  0.4384 -0.8386  0.7054
 4191SOL    HW219435   4.852   8.003  10.557 -0.7086  0.5684  1.4340
 4192SOL     OW19436  11.720   4.705  11.030  0.0576  0.3231 -0.2839
 4192SOL    HW119437  11.658   4.691  11.102  2.2309 -0.2639  1.5829
 4192SOL    HW219438  11.690   4.647  10.960  0.2903 -2.4762  1.7722
 4193SOL     OW19439  11.873   7.718   3.001  0.2314  0.0708 -0.2931
 4193SOL    HW119440  11.835   7.754   2.921  0.4136 -1.3592 -1.0491
 4193SOL    HW219441  11.963   7.697   2.978  0.3876 -0.0483  0.3971
 4194SOL     OW19442  11.388  12.342   6.076 -0.3870 -0.0413  0.1879
 4194SOL    HW119443  11.393  12.407   6.006  2.5211  0.3101  0.5694
 4194SOL    HW219444  11.398  12.258   6.031 -0.9343  0.0044 -0.0232
 4195SOL     OW19445   4.211  12.190   6.908  0.3162 -0.5939 -0.0969
 4195SOL    HW119446   4.251  12.154   6.987 -2.9667 -1.2417  1.4192
 4195SOL    HW219447   4.188  12.280   6.930  1.2772 -0.0667 -1.1166
 4196SOL     OW19448   8.093   3.586   8.527 -0.1428 -0.3440 -0.3759
 4196SOL    HW119449   8.065   3.625   8.444  1.4565  0.6910 -0.4919
 4196SOL    HW219450   8.019   3.597   8.586 -0.3235  1.4939 -0.8835
 4197SOL     OW19451   4.036   9.480   0.081  0.5006  0.0823  0.5365
 4197SOL    HW119452   4.118   9.518   0.112  1.3313 -0.9992 -0.2679
 4197SOL    HW219453   4.059   9.436  -0.000 -1.0792  0.5265 -0.1961
 4198SOL     OW19454  11.479   3.966   7.751 -0.6820  0.2082  0.3495
 4198SOL    HW119455  11.568   3.985   7.723 -1.4064  3.1941 -0.2024
 4198SOL    HW219456  11.487   3.944   7.844  0.6632 -0.2103  0.1609
 4199SOL     OW19457   2.615   1.771  10.258 -0.5912  0.2872 -0.1755
 4199SOL    HW119458   2.621   1.694  10.202 -0.0901 -0.8594  1.3635
 4199SOL    HW219459   2.703   1.808  10.259  0.3268 -1.6251  2.3242
 4200SOL     OW19460   4.620   5.479   3.900 -0.5300  0.3074  0.1206
 4200SOL    HW119461   4.532   5.451   3.925 -1.2514  0.9326 -1.5282
 4200SOL    HW219462   4.616   5.488   3.804  1.5250 -0.3010 -0.0841
 4201SOL     OW19463   4.905   4.715   4.325  0.5017  0.1744 -0.4443
 4201SOL    HW119464   4.878   4.705   4.416 -0.8987  0.5335 -0.7862
 4201SOL    HW219465   4.895   4.627   4.288  0.0554  0.2439 -0.4954
 4202SOL     OW19466  11.416   5.149  10.094  0.1915  0.0679 -0.1026
 4202SOL    HW119467  11.479   5.108  10.034  0.8962 -2.1531  2.0028
 4202SOL    HW219468  11.333   5.106  10.073  0.9839 -3.0318  2.3197
 4203SOL     OW19469   7.380   9.964   2.809  0.2670 -0.4004  0.1071
 4203SOL    HW119470   7.464   9.931   2.776  0.5965  1.1357 -0.6767
 4203SOL    HW219471   7.342  10.012   2.735 -0.6633  0.0795  0.8736
 4204SOL     OW19472  11.783   7.827   8.009 -0.5314  0.2189  0.6843
 4204SOL    HW119473  11.726   7.830   8.085 -0.4188 -0.1305  0.7870
 4204SOL    HW219474  11.871   7.844   8.044 -0.5259  0.3990  0.5823
 4205SOL     OW19475   6.244   8.783   5.682 -0.0447  0.6198 -0.2434
 4205SOL    HW119476   6.158   8.819   5.663 -0.4188 -0.9503 -1.8065
 4205SOL    HW219477   6.228   8.689   5.696  1.1977  0.5814  1.1139
 4206SOL     OW19478   1.686   6.756   4.546 -0.0425  0.5096 -0.2371
 4206SOL    HW119479   1.693   6.814   4.470  1.2715  1.0147  0.2501
 4206SOL    HW219480   1.684   6.668   4.508 -0.6662  0.7965 -0.9053
 4207SOL     OW19481   0.877  10.289  10.822 -1.0075 -0.6366  0.5676
 4207SOL    HW119482   0.956  10.259  10.776 -1.5717 -1.8475  0.3433
 4207SOL    HW219483   0.889  10.259  10.912 -1.1692 -0.7487  0.5529
 4208SOL     OW19484   0.636   4.575  10.370 -0.2560  0.1455  0.6890
 4208SOL    HW119485   0.543   4.555  10.356  0.5938 -3.1976 -1.1502
 4208SOL    HW219486   0.658   4.529  10.450  0.3735 -1.6128 -0.4251
 4209SOL     OW19487  11.226   9.355   9.983 -0.1237  0.3636  0.1073
 4209SOL    HW119488  11.294   9.318  10.039  0.5646  0.9878 -0.3042
 4209SOL    HW219489  11.265   9.434   9.946 -0.4050 -0.2590 -1.6151
 4210SOL     OW19490   3.184   3.940   4.265  0.3542  0.0184  0.3004
 4210SOL    HW119491   3.202   3.853   4.230  0.2262  0.2521 -0.3551
 4210SOL    HW219492   3.239   3.999   4.214 -2.2103  0.7727 -1.8293
 4211SOL     OW19493   3.520   0.797   6.706  0.4124  0.9420  0.3581
 4211SOL    HW119494   3.526   0.881   6.660  1.8980  1.3544  1.1917
 4211SOL    HW219495   3.599   0.796   6.761 -0.5696 -0.1309  1.8166
 4212SOL     OW19496   1.755   1.036   2.353  0.0687 -0.1156  0.1528
 4212SOL    HW119497   1.715   0.974   2.293  0.9091 -1.3233  0.8040
 4212SOL    HW219498   1.696   1.039   2.429 -0.4579  0.6232 -0.2729
 4213SOL     OW19499   3.340   8.376   5.839  0.3408 -0.0215  0.0094
 4213SOL    HW119500   3.328   8.449   5.898  4.0535  1.4464 -0.7791
 4213SOL    HW219501   3.352   8.300   5.896 -0.3107  0.5430  0.9275
 4214SOL     OW19502  10.660   0.572   9.305  0.4054  0.2113  0.0399
 4214SOL    HW119503  10.679   0.562   9.212 -0.4294 -0.7535 -0.0450
 4214SOL    HW219504  10.619   0.489   9.330  1.0831  0.2518  1.3859
 4215SOL     OW19505  10.474   9.876   3.548  0.3606  0.0864 -0.2813
 4215SOL    HW119506  10.510   9.793   3.579  0.2652  0.0655 -0.2261
 4215SOL    HW219507  10.543   9.913   3.493  0.0990 -0.3986 -0.9505
 4216SOL     OW19508   3.312  10.863   4.750  0.0595 -0.0059 -0.0670
 4216SOL    HW119509   3.387  10.810   4.723 -2.0629 -3.0233 -0.5384
 4216SOL    HW219510   3.317  10.867   4.845  0.8554 -0.1174 -0.1035
 4217SOL     OW19511   2.596   1.097   9.317  0.1836 -0.1749  0.9974
 4217SOL    HW119512   2.558   1.095   9.229  1.0330  2.2986  0.5135
 4217SOL    HW219513   2.680   1.050   9.308 -0.1574 -0.7480  0.7408
 4218SOL     OW19514   0.506   1.432   7.307  0.1941  0.3018 -0.2661
 4218SOL    HW119515   0.446   1.490   7.260  1.2310  1.1344 -0.6091
 4218SOL    HW219516   0.475   1.344   7.287 -0.9259  0.7113 -0.3946
 4219SOL     OW19517   4.830   0.393  11.596 -0.1840  0.2704  0.5989
 4219SOL    HW119518   4.794   0.396  11.507 -0.7511 -0.3958  0.8023
 4219SOL    HW219519   4.898   0.326  11.593 -0.4921 -0.0514  0.7721
 4220SOL     OW19520   1.738   9.130   6.356 -1.1728 -0.1362 -0.0215
 4220SOL    HW119521   1.831   9.109   6.363 -0.6828  0.9554 -2.3109
 4220SOL    HW219522   1.728   9.211   6.407 -0.6585  0.2292 -0.4923
 4221SOL     OW19523   2.735   8.656   2.201 -0.4609 -0.4064 -0.4168
 4221SOL    HW119524   2.689   8.738   2.182 -0.0022  0.1727  0.8645
 4221SOL    HW219525   2.765   8.625   2.116  2.2929  2.5035 -0.7155
 4222SOL     OW19526  12.109  12.425  10.857  0.0735 -0.2085  0.1358
 4222SOL    HW119527  12.037  12.399  10.799 -1.3872  1.9802  0.8372
 4222SOL    HW219528  12.131  12.345  10.904 -0.7420 -1.3364 -1.2994
 4223SOL     OW19529   8.020  10.661   4.906  0.0589  0.6275 -0.1320
 4223SOL    HW119530   8.066  10.665   4.822  2.0313  1.6395  0.9142
 4223SOL    HW219531   7.931  10.633   4.884  1.0321 -1.0743 -2.3430
 4224SOL     OW19532   7.973   6.157   7.276 -0.5123  0.2545 -0.0600
 4224SOL    HW119533   7.948   6.125   7.190  0.4395 -0.9883  0.0909
 4224SOL    HW219534   7.895   6.143   7.330 -0.6144 -0.4242 -0.3651
 4225SOL     OW19535  10.357  10.275   2.655  0.4363 -0.3466  0.2891
 4225SOL    HW119536  10.271  10.316   2.652  0.6133 -0.0165 -0.5117
 4225SOL    HW219537  10.411  10.335   2.706 -0.1906 -1.3324  2.2150
 4226SOL     OW19538   6.416   9.160   0.800 -0.1471  0.3349 -0.1613
 4226SOL    HW119539   6.448   9.238   0.847 -1.8640  0.6100  0.6402
 4226SOL    HW219540   6.334   9.138   0.844 -0.4854 -1.0021 -1.3906
 4227SOL     OW19541  10.150  11.936   2.577  0.1595  0.3540 -0.4900
 4227SOL    HW119542  10.184  11.852   2.547  0.2953 -0.3488  1.5111
 4227SOL    HW219543  10.097  11.968   2.503  0.8223 -1.0419 -1.6242
 4228SOL     OW19544  11.500   6.218   2.166 -0.6511 -0.5021  0.6254
 4228SOL    HW119545  11.478   6.219   2.259 -0.9448 -0.3255  0.5553
 4228SOL    HW219546  11.503   6.125   2.143 -0.5555 -0.5470  0.8155
 4229SOL     OW19547   5.459   9.748  10.774  0.1280  0.6589  0.4683
 4229SOL    HW119548   5.429   9.788  10.855 -1.5887  0.0680  0.1734
 4229SOL    HW219549   5.379   9.738  10.721  0.8908 -0.7748 -0.4898
 4230SOL     OW19550   2.065  11.342   6.318 -0.1836  0.3722 -0.0323
 4230SOL    HW119551   2.064  11.428   6.277  0.6838  0.3364 -0.1409
 4230SOL    HW219552   1.974  11.327   6.344 -0.1397  1.8580  1.1332
 4231SOL     OW19553  11.241   1.291   5.257 -0.1620 -0.3165  0.3873
 4231SOL    HW119554  11.327   1.269   5.292 -0.1137 -0.5632  0.1220
 4231SOL    HW219555  11.235   1.241   5.176 -1.2799 -1.7975  1.3064
 4232SOL     OW19556   0.487  10.226  11.847 -0.5709  0.2174 -0.1204
 4232SOL    HW119557   0.436  10.179  11.913 -0.4841  1.1626  0.6420
 4232SOL    HW219558   0.512  10.159  11.784  0.2449 -0.9297  1.3683
 4233SOL     OW19559   6.286   5.020   3.262  0.1682  0.2060 -0.3322
 4233SOL    HW119560   6.331   5.004   3.179  0.0136 -0.5099 -0.2796
 4233SOL    HW219561   6.210   5.072   3.238 -0.0745 -0.3114 -0.6922
 4234SOL     OW19562  10.235   2.350   5.174  0.2152  0.2961  0.4345
 4234SOL    HW119563  10.185   2.268   5.168 -0.7693  0.8002  1.3897
 4234SOL    HW219564  10.263   2.367   5.084  0.8056 -1.2981  0.2712
 4235SOL     OW19565  10.956   3.671   3.971 -0.2664 -0.4789  0.2292
 4235SOL    HW119566  10.968   3.590   3.921  1.4760 -0.3762  0.4242
 4235SOL    HW219567  10.963   3.644   4.062  2.4311  0.1101  0.2799
 4236SOL     OW19568   4.444  10.886   6.962 -0.2389  0.0353  0.5423
 4236SOL    HW119569   4.368  10.867   7.016  0.3874 -1.9445  0.7792
 4236SOL    HW219570   4.416  10.866   6.873 -0.8403  2.0224  0.2235
 4237SOL     OW19571   6.348  10.911   7.002  0.2161  0.4544 -0.0515
 4237SOL    HW119572   6.437  10.924   7.034 -0.0591  1.0417  0.4826
 4237SOL    HW219573   6.350  10.825   6.958  0.9732  0.3524  0.1836
 4238SOL     OW19574   5.455   2.645  12.235 -0.6526  0.5946 -0.5979
 4238SOL    HW119575   5.489   2.559  12.261  0.4641  0.9257 -0.9060
 4238SOL    HW219576   5.388   2.665  12.301 -0.8702 -0.4698 -0.4785
 4239SOL     OW19577  10.768   0.524   6.813 -0.1258  0.5246 -0.2159
 4239SOL    HW119578  10.857   0.556   6.830  0.5354  1.7667 -4.6862
 4239SOL    HW219579  10.768   0.435   6.849  2.6063  0.8185  0.8037
 4240SOL     OW19580   5.441   0.415   1.868 -0.5200 -0.1983  0.6763
 4240SOL    HW119581   5.477   0.504   1.874  1.9407 -1.1955  2.4295
 4240SOL    HW219582   5.433   0.398   1.775 -0.7489  1.7338  0.3038
 4241SOL     OW19583   6.716   7.833   7.510  0.0192  0.2310 -0.3809
 4241SOL    HW119584   6.709   7.813   7.604 -1.2094 -0.4115 -0.5857
 4241SOL    HW219585   6.699   7.749   7.467 -2.3164  1.0666 -1.2163
 4242SOL     OW19586   2.848   9.202   1.780 -0.1104  0.1319 -0.4249
 4242SOL    HW119587   2.830   9.148   1.703 -0.8499  0.7008 -0.6642
 4242SOL    HW219588   2.936   9.177   1.807 -0.5698 -1.4498 -0.3128
 4243SOL     OW19589   7.783   7.947   5.694  0.1340  0.8032 -0.3538
 4243SOL    HW119590   7.745   8.032   5.718  0.0860  1.1609 -1.6446
 4243SOL    HW219591   7.859   7.969   5.641  0.9944  0.0475  0.5272
 4244SOL     OW19592   9.345   4.355   3.045 -0.3040 -0.0172 -0.2074
 4244SOL    HW119593   9.325   4.358   3.138 -0.3785  0.9320 -0.2423
 4244SOL    HW219594   9.336   4.446   3.015 -1.2343 -0.4480 -1.3374
 4245SOL     OW19595   7.082   7.019   6.735 -0.3754 -0.3204  0.2601
 4245SOL    HW119596   7.150   6.952   6.726 -0.8077 -0.6079 -1.0872
 4245SOL    HW219597   7.128   7.096   6.768  0.9373 -0.0543 -1.9918
 4246SOL     OW19598   5.967   2.673   5.188 -0.4454  0.2672 -0.1860
 4246SOL    HW119599   6.012   2.750   5.222 -1.2571  1.0032 -0.7216
 4246SOL    HW219600   5.973   2.609   5.259  1.0441  0.4890 -0.0952
 4247SOL     OW19601  10.287   1.579  10.158 -0.0046  0.7712 -0.2038
 4247SOL    HW119602  10.303   1.660  10.207 -0.3485  0.0956  1.0704
 4247SOL    HW219603  10.373   1.555  10.124 -0.1574  2.5044 -2.0085
 4248SOL     OW19604   8.398  11.996  10.355 -0.1656 -0.0437  0.0003
 4248SOL    HW119605   8.412  11.978  10.448 -0.1732  2.3516  0.5335
 4248SOL    HW219606   8.465  12.060  10.332 -1.0387  0.4754 -1.2682
 4249SOL     OW19607   4.857  11.422   7.229 -0.0878  0.1595  0.0131
 4249SOL    HW119608   4.802  11.432   7.307 -0.7369 -0.0058 -0.4144
 4249SOL    HW219609   4.936  11.376   7.261 -1.8275 -3.1910  0.0022
 4250SOL     OW19610   9.130   8.979   2.369 -0.3276 -0.4991 -0.3944
 4250SOL    HW119611   9.146   8.886   2.354  0.2692 -0.7596  1.5471
 4250SOL    HW219612   9.139   8.990   2.464  1.4376  1.8862 -0.7462
 4251SOL     OW19613   6.084   4.222   2.529  0.7831  0.3845  0.0978
 4251SOL    HW119614   6.072   4.168   2.451 -1.4845  0.7207  0.1586
 4251SOL    HW219615   6.006   4.207   2.582 -0.1194  3.8102  0.0231
 4252SOL     OW19616   2.213   3.658   3.363 -0.1927 -0.5126  0.0178
 4252SOL    HW119617   2.282   3.593   3.350  0.9019  0.4389  0.8739
 4252SOL    HW219618   2.259   3.737   3.393 -1.6248  0.2313  0.3648
 4253SOL     OW19619   0.359   2.937   6.533 -0.5414  0.1538 -0.0143
 4253SOL    HW119620   0.390   2.989   6.459  2.4317  0.2841  1.1833
 4253SOL    HW219621   0.434   2.932   6.592 -2.0659 -1.9094  1.9280
 4254SOL     OW19622   3.356   8.160   3.230  0.0775  0.4470 -0.3802
 4254SOL    HW119623   3.351   8.229   3.164 -0.6115  0.2691 -0.5115
 4254SOL    HW219624   3.284   8.101   3.211  0.2837  0.0181  0.1145
 4255SOL     OW19625   7.879   4.331   8.686 -0.0445 -0.0471  0.6737
 4255SOL    HW119626   7.859   4.242   8.655  0.1890  0.8013 -2.1783
 4255SOL    HW219627   7.839   4.336   8.773  0.6901 -3.2067  1.3270
 4256SOL     OW19628  12.027   9.078  10.029  0.0692  0.1274 -0.2620
 4256SOL    HW119629  11.945   9.111  10.066 -1.2114 -0.6564 -2.2465
 4256SOL    HW219630  12.011   8.985  10.013  1.6607 -0.2413  0.0530
 4257SOL     OW19631   7.850   7.560   4.424 -0.1407  0.4149  0.2515
 4257SOL    HW119632   7.945   7.558   4.413 -0.0696 -0.1816  0.9265
 4257SOL    HW219633   7.822   7.636   4.372  0.4218 -0.8206 -1.9719
 4258SOL     OW19634   6.884   0.398   2.494  0.3071 -0.5367  0.3079
 4258SOL    HW119635   6.857   0.402   2.586  2.3049 -1.2382  0.9719
 4258SOL    HW219636   6.940   0.321   2.488  1.6329  0.4687 -1.1038
 4259SOL     OW19637   7.940   3.779  11.602 -0.1402  0.3006  0.3160
 4259SOL    HW119638   7.964   3.722  11.676  0.3760 -1.3633 -1.0736
 4259SOL    HW219639   7.849   3.802  11.619  0.4877  1.5709  2.4459
 4260SOL     OW19640  11.951   7.232   0.890  0.8253  0.6796 -0.3683
 4260SOL    HW119641  11.876   7.239   0.949  1.0153 -1.5897  0.2393
 4260SOL    HW219642  12.009   7.303   0.916 -0.6056  1.8162 -0.1341
 4261SOL     OW19643  10.821   3.117  12.070 -0.2132  0.0066 -0.0996
 4261SOL    HW119644  10.816   3.176  11.994  0.2075  1.5539  1.0190
 4261SOL    HW219645  10.912   3.124  12.099 -0.2086 -1.0674  0.1807
 4262SOL     OW19646   8.952  12.155   5.961  0.2732  0.1810 -0.5065
 4262SOL    HW119647   8.899  12.120   5.890 -0.7057  0.1838  0.2068
 4262SOL    HW219648   9.038  12.170   5.921  0.8899 -3.3264 -0.8030
 4263SOL     OW19649   0.923   1.742   4.046 -0.2444 -0.4979  0.0882
 4263SOL    HW119650   0.896   1.823   4.089  0.9098  0.3046 -0.6181
 4263SOL    HW219651   0.845   1.687   4.047 -0.9813  0.5139  0.8334
 4264SOL     OW19652   6.567   6.509  11.449  0.1113  0.2251  0.0962
 4264SOL    HW119653   6.662   6.496  11.446  0.0605 -0.8046  1.6765
 4264SOL    HW219654   6.535   6.443  11.510 -2.0903 -1.8210 -2.9739
 4265SOL     OW19655   6.793  11.434   2.612 -0.2785 -0.0343 -0.4517
 4265SOL    HW119656   6.826  11.433   2.522 -1.3275 -0.6478 -0.8581
 4265SOL    HW219657   6.715  11.378   2.609  0.1197 -0.7139  1.0153
 4266SOL     OW19658   4.334   4.110   1.870  0.1221  0.1956 -0.4001
 4266SOL    HW119659   4.321   4.164   1.949 -2.0278 -0.3016 -0.3434
 4266SOL    HW219660   4.376   4.030   1.902  1.1022  0.8197 -0.0987
 4267SOL     OW19661   4.833   5.684   3.987  0.2395  0.4951  0.1310
 4267SOL    HW119662   4.767   5.625   3.949  0.1722  0.5880  0.1022
 4267SOL    HW219663   4.836   5.758   3.926  1.3564 -0.1297 -0.6025
 4268SOL     OW19664   6.424   0.170   9.134  0.1844  0.7025  0.0182
 4268SOL    HW119665   6.450   0.153   9.225  0.2491 -0.4152 -0.1915
 4268SOL    HW219666   6.473   0.105   9.084 -0.2312  0.9975 -0.7721
 4269SOL     OW19667   2.089   6.486  11.479  0.4094  0.3482  0.2185
 4269SOL    HW119668   2.047   6.572  11.471 -0.0652  0.0526 -0.5686
 4269SOL    HW219669   2.157   6.499  11.545 -2.7603  0.1662  3.9418
 4270SOL     OW19670  11.216  12.185   1.361 -0.2704 -0.3257  0.4314
 4270SOL    HW119671  11.143  12.246   1.372 -0.2306  0.3017 -2.1653
 4270SOL    HW219672  11.294  12.241   1.355  0.1406 -0.8380  0.8625
 4271SOL     OW19673  10.422   2.677   4.244 -0.2612 -0.2326 -0.0377
 4271SOL    HW119674  10.493   2.617   4.269 -0.9942 -1.3521 -0.5600
 4271SOL    HW219675  10.460   2.764   4.255  1.2329 -0.7977 -0.3976
 4272SOL     OW19676   4.963   9.655   7.730 -0.0726 -0.4407  0.2655
 4272SOL    HW119677   4.931   9.565   7.736  0.1704 -0.6376 -0.9618
 4272SOL    HW219678   4.934   9.685   7.644 -0.8924  0.9746  1.0068
 4273SOL     OW19679  12.156   0.408   8.377  0.4532 -0.0503  0.4664
 4273SOL    HW119680  12.154   0.500   8.405 -1.7578 -0.0577  0.5268
 4273SOL    HW219681  12.064   0.387   8.359  1.1060 -1.7869 -1.1130
 4274SOL     OW19682  11.739   2.015  12.157  0.3331 -0.5781 -0.6861
 4274SOL    HW119683  11.751   2.021  12.063 -1.4066 -0.7648 -0.9609
 4274SOL    HW219684  11.689   2.094  12.180 -1.2316 -1.6160 -0.3339
 4275SOL     OW19685  10.366  12.249  11.614 -0.1182 -0.0272  0.2253
 4275SOL    HW119686  10.379  12.262  11.708 -2.4906  0.7698  0.5192
 4275SOL    HW219687  10.322  12.164  11.608  0.6353 -0.3986 -0.2587
 4276SOL     OW19688   2.637   1.453  10.258  0.2713 -0.4899 -0.2616
 4276SOL    HW119689   2.688   1.388  10.209  0.1638  0.1132 -1.2049
 4276SOL    HW219690   2.689   1.472  10.335  0.1977 -1.8657  0.1556
 4277SOL     OW19691   8.968   0.459   5.915 -0.4491 -0.1433 -0.1374
 4277SOL    HW119692   9.033   0.505   5.968  0.0455 -0.6017 -0.3394
 4277SOL    HW219693   8.907   0.422   5.979  0.4487 -1.1556  0.1491
 4278SOL     OW19694   3.055   6.394   0.980  0.1355  0.3408 -0.3037
 4278SOL    HW119695   3.062   6.489   0.975  2.7364  0.2234 -0.0348
 4278SOL    HW219696   2.979   6.379   1.037 -1.1745  2.1868 -1.4581
 4279SOL     OW19697   1.005   9.853   4.757 -0.2037  0.1332  0.6058
 4279SOL    HW119698   1.089   9.879   4.796  1.9337  0.0212 -3.3663
 4279SOL    HW219699   0.971   9.935   4.721  0.0401 -0.3706 -0.8215
 4280SOL     OW19700  12.430   9.439  10.766  1.0038 -0.0399 -0.4521
 4280SOL    HW119701  12.524   9.444  10.784  0.7598  3.5320  0.5591
 4280SOL    HW219702  12.392   9.409  10.849  1.1108  0.0539 -0.3694
 4281SOL     OW19703   1.757   8.700   2.784 -0.0033  0.2116 -0.3483
 4281SOL    HW119704   1.766   8.651   2.702  0.5573 -0.5686  0.1652
 4281SOL    HW219705   1.784   8.789   2.762  0.5957 -0.0980 -0.8979
 4282SOL     OW19706   3.322   7.527   1.246 -0.2630  0.4656 -0.0523
 4282SOL    HW119707   3.350   7.546   1.336 -1.5610 -1.9282  0.9435
 4282SOL    HW219708   3.263   7.598   1.224  1.4478  2.0635  0.2491
 4283SOL     OW19709   3.374   7.006  11.348  0.0431  0.5307  0.0904
 4283SOL    HW119710   3.420   6.993  11.432 -0.7119 -0.4317  0.3849
 4283SOL    HW219711   3.304   6.940  11.350  1.2443 -0.9405 -2.1899
 4284SOL     OW19712   1.321   3.820  11.934  0.2414 -0.2669 -0.5156
 4284SOL    HW119713   1.360   3.824  11.847 -0.7107 -0.9040 -0.9986
 4284SOL    HW219714   1.283   3.732  11.939 -0.6148  0.1195  0.1370
 4285SOL     OW19715   6.919   7.239   8.904  0.0054  0.0016 -0.2821
 4285SOL    HW119716   6.962   7.203   8.826  1.4127  0.3683  0.2834
 4285SOL    HW219717   6.937   7.333   8.900 -0.9148  0.1934 -0.1033
 4286SOL     OW19718   3.880   7.056   8.225 -1.0228 -0.1278 -0.1791
 4286SOL    HW119719   3.826   7.017   8.294 -0.4878  0.2160  0.4544
 4286SOL    HW219720   3.818   7.100   8.168 -1.4459  0.0077  0.3755
 4287SOL     OW19721   5.180   4.565   4.518 -0.5851  0.6388  0.1462
 4287SOL    HW119722   5.190   4.492   4.457 -0.2935 -0.4917  1.5080
 4287SOL    HW219723   5.219   4.640   4.473  0.5091 -0.3866 -0.6619
 4288SOL     OW19724   2.707   3.609   6.301  0.0320  0.0027 -0.0792
 4288SOL    HW119725   2.776   3.675   6.310  0.7652 -0.5250 -1.6205
 4288SOL    HW219726   2.637   3.640   6.359 -0.0008  2.5913 -1.3614
 4289SOL     OW19727  10.660   3.052   2.386 -0.5155 -0.2597 -0.3726
 4289SOL    HW119728  10.634   3.139   2.354 -0.2827 -0.4701 -1.1333
 4289SOL    HW219729  10.648   2.994   2.311  1.7734 -0.4467 -0.6552
 4290SOL     OW19730   5.951   7.375   3.750 -0.5087 -0.3602  0.0692
 4290SOL    HW119731   5.990   7.391   3.665 -1.4222 -2.4158 -0.7906
 4290SOL    HW219732   5.874   7.431   3.752 -0.3493 -0.1251 -0.3523
 4291SOL     OW19733   9.929   2.416   2.896 -0.8143  0.7211 -0.2915
 4291SOL    HW119734   9.861   2.351   2.914 -1.6348  0.7752 -2.8691
 4291SOL    HW219735  10.004   2.365   2.865 -0.1544  0.7931  1.0712
 4292SOL     OW19736   9.556   5.506   9.082  0.8465  0.4381  0.3052
 4292SOL    HW119737   9.559   5.419   9.122 -2.4714  0.0362 -0.0314
 4292SOL    HW219738   9.549   5.489   8.989  3.6952  1.2724 -0.1650
 4293SOL     OW19739  11.101   9.912   2.004 -0.2027 -0.3128  0.3887
 4293SOL    HW119740  11.182   9.962   2.003 -0.1171 -0.4430 -1.3149
 4293SOL    HW219741  11.049   9.952   2.074  0.3195  1.4100 -0.1658
 4294SOL     OW19742   0.304  11.728  10.522 -0.1961  0.9458  0.0202
 4294SOL    HW119743   0.393  11.714  10.490 -0.1340  1.1361  0.1093
 4294SOL    HW219744   0.310  11.714  10.616 -0.2981  0.7786  0.0019
 4295SOL     OW19745   6.427   8.032   6.120 -0.2105  0.2253  0.2938
 4295SOL    HW119746   6.512   8.074   6.131 -0.3290  1.0003 -1.5236
 4295SOL    HW219747   6.407   7.996   6.207  1.8809  0.1398  0.7935
 4296SOL     OW19748  10.694   0.780   8.457  0.5748  0.5346 -0.3997
 4296SOL    HW119749  10.773   0.764   8.405  0.9296  0.0297  0.2722
 4296SOL    HW219750  10.629   0.720   8.421  0.3464  1.2867 -1.2661
 4297SOL     OW19751  12.388   9.314   5.974  0.8432  0.0282  0.1508
 4297SOL    HW119752  12.387   9.339   6.066  2.8318 -0.0071  0.2342
 4297SOL    HW219753  12.395   9.218   5.975 -0.4663 -0.0800 -0.0704
 4298SOL     OW19754   5.403  10.991   6.063 -0.7099 -0.0097  0.3354
 4298SOL    HW119755   5.495  10.970   6.049 -0.2394  1.4901  1.0194
 4298SOL    HW219756   5.357  10.940   5.996  0.5317 -1.3257  0.4119
 4299SOL     OW19757   0.687  10.294   4.373 -0.0690  0.2316  0.7664
 4299SOL    HW119758   0.700  10.343   4.292  0.8480  0.1043  0.8146
 4299SOL    HW219759   0.769  10.307   4.421 -0.6573  0.4179  1.7356
 4300SOL     OW19760   9.365   7.402   1.872  0.0302 -0.2756 -0.1763
 4300SOL    HW119761   9.379   7.358   1.788  0.1925  2.2511 -1.5587
 4300SOL    HW219762   9.425   7.477   1.870 -1.3020  0.9027  1.3909
 4301SOL     OW19763   4.427  10.076   5.815 -0.0573  0.2280  0.0973
 4301SOL    HW119764   4.497  10.012   5.828 -0.2972  0.2352  1.5674
 4301SOL    HW219765   4.365  10.032   5.757 -0.5808 -1.2066  1.6640
 4302SOL     OW19766   1.542   7.598   5.855 -0.2349 -0.3651  0.3079
 4302SOL    HW119767   1.474   7.665   5.845  0.0484 -0.2607 -1.0765
 4302SOL    HW219768   1.624   7.643   5.836 -0.0737 -1.1677 -1.0473
 4303SOL     OW19769   8.715   0.342  10.088 -0.3776 -0.0289  0.1566
 4303SOL    HW119770   8.703   0.337  10.183  0.7166 -0.0007  0.3010
 4303SOL    HW219771   8.757   0.260  10.064  1.6847  0.9771  0.0868
 4304SOL     OW19772   2.552   6.869   4.753 -0.2411 -0.4432 -0.0643
 4304SOL    HW119773   2.628   6.812   4.771 -1.1962 -1.3777  1.2831
 4304SOL    HW219774   2.482   6.808   4.728 -0.9845  0.2468  0.2957
 4305SOL     OW19775  10.003  12.419   1.526 -0.1136 -0.2770  0.4473
 4305SOL    HW119776   9.948  12.458   1.457 -0.4225 -1.6304 -0.0918
 4305SOL    HW219777   9.975  12.462   1.606 -0.5904  0.4601 -0.0996
 4306SOL     OW19778   0.631   8.299   2.443 -0.2987 -0.1266 -0.0840
 4306SOL    HW119779   0.697   8.235   2.471 -1.8725 -0.3547  3.6636
 4306SOL    HW219780   0.656   8.380   2.487 -1.0137  0.5586 -0.8865
 4307SOL     OW19781   6.392  11.188   2.191 -0.2412  0.4913  0.4394
 4307SOL    HW119782   6.357  11.120   2.250 -0.7441  0.4562  0.0992
 4307SOL    HW219783   6.380  11.152   2.103  1.9404 -0.1558  0.3370
 4308SOL     OW19784  11.398   6.688   2.572  0.4740  0.1016  0.0698
 4308SOL    HW119785  11.392   6.764   2.514 -0.8370 -1.1641 -1.5426
 4308SOL    HW219786  11.401   6.726   2.660  0.1303  2.0167 -0.6888
 4309SOL     OW19787   6.790   6.414   5.397 -0.1958 -0.3712 -0.2419
 4309SOL    HW119788   6.740   6.489   5.430 -0.7333 -0.2357 -1.3072
 4309SOL    HW219789   6.776   6.415   5.302 -1.0670 -2.3994 -0.2033
 4310SOL     OW19790   3.284   4.162   0.563 -0.0184 -0.1452 -0.0468
 4310SOL    HW119791   3.372   4.127   0.547 -0.0802 -0.4954  0.3806
 4310SOL    HW219792   3.235   4.088   0.598 -0.1549  0.3691  0.8516
 4311SOL     OW19793   4.637   7.281   0.856  0.3169 -0.0337 -0.3995
 4311SOL    HW119794   4.702   7.211   0.861  0.5757  0.1372 -1.2897
 4311SOL    HW219795   4.670   7.340   0.788  0.7652  1.6681  1.2374
 4312SOL     OW19796   8.983   1.012  10.824  0.1285 -0.0177  0.1942
 4312SOL    HW119797   9.030   0.946  10.773 -2.7183 -0.5462 -1.9689
 4312SOL    HW219798   8.969   0.971  10.910 -0.5260 -1.7956 -0.7154
 4313SOL     OW19799   7.345   6.685   4.232 -0.5414 -0.1391 -0.0987
 4313SOL    HW119800   7.341   6.740   4.310 -0.4720 -1.1845  0.6620
 4313SOL    HW219801   7.283   6.614   4.249  0.0365 -0.7967 -0.6477
 4314SOL     OW19802  10.564   2.434   7.420  0.0595  0.0260  0.1360
 4314SOL    HW119803  10.605   2.412   7.504 -0.3841  1.7451  0.8404
 4314SOL    HW219804  10.473   2.453   7.443 -0.0304  0.6474 -0.7037
 4315SOL     OW19805   4.526   9.961   5.541  0.0254  0.1493 -0.3631
 4315SOL    HW119806   4.620   9.946   5.534  0.1166  1.0398 -1.2524
 4315SOL    HW219807   4.493   9.888   5.594  0.8228 -1.6306 -2.2260
 4316SOL     OW19808   2.382   3.762   7.940 -0.0111 -0.1468 -0.4036
 4316SOL    HW119809   2.398   3.778   7.847 -0.0713  0.0995 -0.3725
 4316SOL    HW219810   2.453   3.704   7.968 -0.3894 -0.8083 -0.7707
 4317SOL     OW19811   4.338   7.121  11.588  0.2552  0.7025 -0.3545
 4317SOL    HW119812   4.421   7.169  11.588  1.3042 -0.9992  0.7216
 4317SOL    HW219813   4.320   7.106  11.495  0.7124  1.7844 -0.6372
 4318SOL     OW19814  10.700   9.596   0.329  0.2020 -0.0292 -0.2320
 4318SOL    HW119815  10.666   9.539   0.259 -0.1495  0.1571 -0.2173
 4318SOL    HW219816  10.660   9.561   0.409  0.6701 -0.2942 -0.1130
 4319SOL     OW19817  11.175   8.156  12.142 -0.4057  0.0626 -0.1201
 4319SOL    HW119818  11.151   8.114  12.224  1.1894  0.1370  0.4146
 4319SOL    HW219819  11.259   8.198  12.160 -1.5815  2.9495 -0.8150
 4320SOL     OW19820  10.695   6.109   2.036  0.0734  0.3414  0.6107
 4320SOL    HW119821  10.718   6.154   1.954 -1.7851  0.2312 -0.0235
 4320SOL    HW219822  10.706   6.016   2.016  0.3738  0.3428  0.7559
 4321SOL     OW19823   0.223   0.262   0.766  0.2939  0.4600 -0.1037
 4321SOL    HW119824   0.208   0.211   0.846  0.7379  0.3368 -0.0980
 4321SOL    HW219825   0.239   0.197   0.699 -0.4125  0.5531 -0.3677
 4322SOL     OW19826   0.906  12.162   2.548  0.6573  0.7030 -0.2254
 4322SOL    HW119827   0.993  12.123   2.554  0.0607 -0.4310  4.3315
 4322SOL    HW219828   0.848  12.088   2.527  0.3712  0.6093  0.8583
 4323SOL     OW19829   2.034   8.215  10.947 -0.1559  0.5912  0.3344
 4323SOL    HW119830   2.111   8.176  10.905 -0.3957 -0.4531  0.8284
 4323SOL    HW219831   2.003   8.148  11.008 -0.0234  1.9066  1.9359
 4324SOL     OW19832   3.740   7.251   4.953  0.5020  0.5380 -0.2464
 4324SOL    HW119833   3.783   7.260   5.038  0.8242 -0.0204 -0.3477
 4324SOL    HW219834   3.663   7.197   4.970  0.2248  0.9393 -0.2003
 4325SOL     OW19835   7.316   6.586   5.599  0.1141 -0.2167 -0.9433
 4325SOL    HW119836   7.327   6.680   5.582 -3.1027  0.2248 -1.1854
 4325SOL    HW219837   7.240   6.581   5.656  0.3641 -2.6931 -0.7294
 4326SOL     OW19838  11.165   1.655   1.671 -0.1717  0.0278  0.5429
 4326SOL    HW119839  11.113   1.632   1.594  0.4761 -1.0951  0.4291
 4326SOL    HW219840  11.250   1.681   1.635  0.5949 -1.8400  0.9342
 4327SOL     OW19841  11.603   6.772   1.584 -0.3541 -0.1954 -0.7693
 4327SOL    HW119842  11.649   6.828   1.522  1.6443  2.4708  2.7686
 4327SOL    HW219843  11.520   6.817   1.601  0.1271  0.3647  0.1653
 4328SOL     OW19844   5.612   8.189   2.322 -0.3856 -0.2859  0.4105
 4328SOL    HW119845   5.667   8.135   2.379  0.0325  1.6409  1.9354
 4328SOL    HW219846   5.527   8.146   2.322 -0.3639 -0.3990  2.4631
 4329SOL     OW19847   5.574   5.592   9.232  0.2113 -0.1562  0.5405
 4329SOL    HW119848   5.663   5.568   9.206 -0.1574 -0.5883 -0.3635
 4329SOL    HW219849   5.523   5.590   9.151 -1.0008 -1.6794  1.2766
 4330SOL     OW19850  11.975   6.089  11.498  0.0981  0.6620  0.3095
 4330SOL    HW119851  11.907   6.057  11.439 -0.0950 -0.3194  1.0331
 4330SOL    HW219852  11.948   6.179  11.519  0.7347  1.4190 -1.8767
 4331SOL     OW19853   0.730   5.121   2.968  0.8620 -0.1414 -0.5866
 4331SOL    HW119854   0.643   5.082   2.975  0.7010  0.3175  0.1100
 4331SOL    HW219855   0.790   5.047   2.965  0.6944 -0.5076  2.3344
 4332SOL     OW19856   2.573  10.727   7.111  0.3245  0.4397 -0.3019
 4332SOL    HW119857   2.592  10.653   7.053 -0.3688 -0.8226  1.0106
 4332SOL    HW219858   2.600  10.697   7.198  0.5593  1.9639  0.1760
 4333SOL     OW19859   7.142   9.489   2.870  0.3469  0.0607 -0.2197
 4333SOL    HW119860   7.183   9.574   2.888 -2.2796  1.2258  0.7718
 4333SOL    HW219861   7.113   9.495   2.779 -1.0345  0.8068  0.2507
 4334SOL     OW19862   0.362   0.954  12.173  0.4642 -0.3919 -0.1822
 4334SOL    HW119863   0.274   0.951  12.135  0.1119 -0.0478  0.5843
 4334SOL    HW219864   0.349   0.991  12.260  1.3773 -0.3129 -0.0718
 4335SOL     OW19865   7.010   1.239   6.411  0.0548 -0.1038 -0.2204
 4335SOL    HW119866   7.032   1.147   6.398 -0.5732 -0.1727 -0.8468
 4335SOL    HW219867   7.084   1.275   6.460  1.5520 -0.3416 -2.1917
 4336SOL     OW19868   4.324   9.956   6.884  0.0209  0.3688  0.4106
 4336SOL    HW119869   4.389   9.982   6.819 -1.3760  0.4529 -1.0348
 4336SOL    HW219870   4.337  10.017   6.956  1.5884  0.3129  0.2059
 4337SOL     OW19871   8.148   6.582   2.007  0.0738 -0.1503  0.0095
 4337SOL    HW119872   8.089   6.556   2.078  2.1002 -2.2156  1.1032
 4337SOL    HW219873   8.120   6.670   1.983 -2.4387 -0.4417  1.4544
 4338SOL     OW19874  11.836   9.749   5.298  0.2298  0.7380 -0.5011
 4338SOL    HW119875  11.882   9.681   5.250 -1.2288 -0.4537 -0.2847
 4338SOL    HW219876  11.784   9.702   5.363  0.1147  2.1459  0.4888
 4339SOL     OW19877   3.571   0.104   8.620  0.4710  0.3952 -0.1184
 4339SOL    HW119878   3.616   0.020   8.623  1.0611  0.7245  1.0120
 4339SOL    HW219879   3.493   0.089   8.566  0.5565 -0.8778  0.0988
 4340SOL     OW19880   1.421   3.767   1.930  0.5413 -0.3691 -0.2384
 4340SOL    HW119881   1.486   3.772   2.000 -0.4946  1.0181  0.6902
 4340SOL    HW219882   1.351   3.711   1.966 -0.7691  1.6772  0.5869
 4341SOL     OW19883   3.197   4.197  12.207 -0.2206  0.0367 -0.1556
 4341SOL    HW119884   3.187   4.183  12.113  0.8965  1.8645 -0.5821
 4341SOL    HW219885   3.252   4.275  12.215 -0.5950  0.1516  2.0211
 4342SOL     OW19886   8.377   6.230  12.131  0.1669  0.2287  0.2750
 4342SOL    HW119887   8.374   6.183  12.214 -0.3885  0.9390  0.6713
 4342SOL    HW219888   8.314   6.301  12.141 -1.3587 -0.7763 -1.4540
 4343SOL     OW19889   5.906   4.659   8.695 -0.0217  0.0667 -0.0629
 4343SOL    HW119890   5.999   4.655   8.718 -0.3920  1.6994  2.0123
 4343SOL    HW219891   5.866   4.587   8.744  0.2908 -1.5284 -2.0540
 4344SOL     OW19892   9.439   1.651   0.045 -0.3956 -0.1691  0.0748
 4344SOL    HW119893   9.442   1.711  -0.029 -0.5201  0.0352  0.2364
 4344SOL    HW219894   9.390   1.575   0.012  1.8972 -1.3088 -0.9415
 4345SOL     OW19895   0.189  11.846   3.158  0.0476 -0.3312  0.0317
 4345SOL    HW119896   0.155  11.875   3.073  1.7258  1.2045 -0.1728
 4345SOL    HW219897   0.209  11.753   3.145  0.9504  0.0353 -1.5299
 4346SOL     OW19898   8.689   3.501   0.973  0.3186  0.2689  0.4967
 4346SOL    HW119899   8.782   3.517   0.957 -0.1892  2.7709 -0.5580
 4346SOL    HW219900   8.664   3.438   0.906  0.8101  1.4058 -0.8203
 4347SOL     OW19901   4.036   7.102  11.492 -0.2842  0.0300  0.2014
 4347SOL    HW119902   3.988   7.180  11.464 -0.9861 -0.6176 -0.4657
 4347SOL    HW219903   4.005   7.084  11.580 -1.8104 -0.7655 -0.4638
 4348SOL     OW19904  10.706   4.377   4.821 -0.2391 -0.2182  0.5046
 4348SOL    HW119905  10.773   4.362   4.887 -0.8419  0.5791  1.3248
 4348SOL    HW219906  10.625   4.384   4.871 -0.5126  1.8130 -0.1650
 4349SOL     OW19907   1.871   5.080   8.079 -0.0898  0.0853  0.2131
 4349SOL    HW119908   1.823   5.000   8.058 -1.4976  1.1359 -0.7855
 4349SOL    HW219909   1.887   5.121   7.994  0.7290  0.8045  0.7030
 4350SOL     OW19910   0.636   3.230   3.881  0.6567 -0.1015 -0.2150
 4350SOL    HW119911   0.590   3.311   3.858  0.5352 -0.1490 -0.1404
 4350SOL    HW219912   0.718   3.235   3.833  1.3072  0.7640  0.9237
 4351SOL     OW19913   6.884   9.220   0.441 -0.0877  0.3050  0.0832
 4351SOL    HW119914   6.965   9.188   0.481 -0.6662 -1.5995 -0.2031
 4351SOL    HW219915   6.913   9.274   0.367  0.9334 -1.0954 -0.5745
 4352SOL     OW19916  10.448   8.483  12.422 -0.0815 -0.0868  0.0053
 4352SOL    HW119917  10.459   8.519  12.334 -1.2488  2.1605  0.6963
 4352SOL    HW219918  10.507   8.534  12.477  0.0664 -0.9405  0.6592
 4353SOL     OW19919   2.658  10.564   6.887 -0.3177 -0.1245  0.0440
 4353SOL    HW119920   2.745  10.534   6.860 -0.5025 -1.8299  1.1735
 4353SOL    HW219921   2.597  10.505   6.843 -0.9184  0.9693 -0.6296
 4354SOL     OW19922  11.198   2.458   0.037  0.2410 -0.3202 -0.1235
 4354SOL    HW119923  11.105   2.457   0.016  0.3547 -0.1108 -0.6530
 4354SOL    HW219924  11.242   2.470  -0.047  0.8164 -1.8559 -0.0606
 4355SOL     OW19925   1.148   6.705   7.360 -0.4301 -0.1189 -0.1101
 4355SOL    HW119926   1.126   6.620   7.321 -0.9515  0.9610 -2.3055
 4355SOL    HW219927   1.242   6.714   7.345 -0.1814 -0.6927  0.9909
 4356SOL     OW19928   9.243   9.887  10.032 -0.5649 -0.2896 -0.9065
 4356SOL    HW119929   9.259   9.793  10.033  0.0416 -0.2448  2.0086
 4356SOL    HW219930   9.331   9.926  10.026 -0.3583 -0.0160  2.2203
 4357SOL     OW19931   7.567   0.589   6.231  0.7384  0.0986 -0.5324
 4357SOL    HW119932   7.478   0.614   6.256  1.3245  0.3113  1.5684
 4357SOL    HW219933   7.599   0.663   6.179  0.3908  0.9996  0.4977
 4358SOL     OW19934   0.918   8.208   6.989 -0.2114  0.0067 -0.1903
 4358SOL    HW119935   0.962   8.215   7.074 -0.8786  0.0764  0.1564
 4358SOL    HW219936   0.947   8.284   6.940  1.2536 -0.7509 -0.5375
 4359SOL     OW19937  11.022  11.437  10.783  0.4061  0.1162 -0.3132
 4359SOL    HW119938  11.001  11.463  10.873  0.5501 -1.7894  0.3099
 4359SOL    HW219939  11.117  11.432  10.781  0.3896 -0.1231 -0.4820
 4360SOL     OW19940   4.851   9.478  11.028 -0.0425  0.1480 -0.0833
 4360SOL    HW119941   4.810   9.534  10.961 -0.0636  1.4114  0.9479
 4360SOL    HW219942   4.821   9.514  11.111  0.8001 -0.7651  0.6427
 4361SOL     OW19943   2.125   3.484   0.457  0.1695 -0.2886  0.0597
 4361SOL    HW119944   2.112   3.561   0.401  0.9196  1.2696  1.9146
 4361SOL    HW219945   2.213   3.496   0.494 -0.0106 -1.6340  0.9857
 4362SOL     OW19946   9.340   5.707   8.432 -0.1851 -0.2170  0.3083
 4362SOL    HW119947   9.266   5.728   8.375 -0.1716 -0.2380  0.2834
 4362SOL    HW219948   9.338   5.775   8.500 -0.2682 -0.2575  0.3459
 4363SOL     OW19949   4.832   3.362  11.799 -0.4683  0.2987  0.0564
 4363SOL    HW119950   4.749   3.380  11.754 -0.5996  0.6577  0.4349
 4363SOL    HW219951   4.866   3.284  11.755 -1.5430 -0.5229  0.6085
 4364SOL     OW19952   5.634   0.663   8.860 -0.2984 -0.4368 -0.1003
 4364SOL    HW119953   5.671   0.625   8.940 -1.6766 -1.2947  0.1467
 4364SOL    HW219954   5.649   0.596   8.793 -0.9789 -0.5916 -0.0997
 4365SOL     OW19955  11.562  10.104  10.066  0.0244 -0.6217  0.3775
 4365SOL    HW119956  11.488  10.166  10.068 -1.5034 -2.3086 -0.7780
 4365SOL    HW219957  11.577  10.082  10.158  0.5020  1.2913  0.8057
 4366SOL     OW19958   6.968   5.771  10.711 -0.4843  0.0422  0.0513
 4366SOL    HW119959   6.965   5.859  10.749 -0.0839  0.1114 -0.0759
 4366SOL    HW219960   6.877   5.754  10.685 -0.4175  0.7586 -0.7024
 4367SOL     OW19961   8.514   7.540  11.201  0.1132 -0.3059 -0.2243
 4367SOL    HW119962   8.506   7.599  11.127 -0.3599  0.5149  0.4526
 4367SOL    HW219963   8.534   7.454  11.163 -1.6674 -0.2495 -1.4123
 4368SOL     OW19964   3.699   6.249   2.443 -0.3318 -0.7243  0.5696
 4368SOL    HW119965   3.728   6.310   2.510 -1.2305  0.0443  0.2909
 4368SOL    HW219966   3.757   6.173   2.451  1.8635  0.7881 -0.0869
 4369SOL     OW19967   0.506   5.364   8.380 -0.0295 -0.7552 -0.1406
 4369SOL    HW119968   0.440   5.324   8.436 -1.8483  2.3091  0.1356
 4369SOL    HW219969   0.458   5.430   8.329  2.6968  1.4241 -0.1417
 4370SOL     OW19970   9.177   8.018  10.773 -0.0273  0.0830  0.2949
 4370SOL    HW119971   9.195   7.925  10.760 -0.4688  0.1300 -0.7473
 4370SOL    HW219972   9.084   8.027  10.753  0.2392  0.9228 -0.6334
 4371SOL     OW19973   0.993  10.927   6.679  0.4180  0.2857  0.1397
 4371SOL    HW119974   0.942  10.859   6.635 -1.0518  0.1055  1.9740
 4371SOL    HW219975   1.062  10.949   6.617 -0.0923 -1.6386 -1.2207
 4372SOL     OW19976   4.025   2.882   9.254 -0.1927  0.1424  0.2642
 4372SOL    HW119977   3.970   2.951   9.291 -0.6038 -0.4870  0.8518
 4372SOL    HW219978   3.968   2.805   9.252 -0.1122  0.0886 -1.4693
 4373SOL     OW19979  11.465   0.140  12.046  0.1927 -0.1231 -0.1080
 4373SOL    HW119980  11.397   0.200  12.016 -0.0372 -0.1686  0.3106
 4373SOL    HW219981  11.421   0.084  12.110  0.5048 -0.4713 -0.1967
 4374SOL     OW19982  11.903  10.527  10.281 -0.0668 -0.5770  0.1711
 4374SOL    HW119983  11.942  10.442  10.260  0.1597 -0.0811 -1.5923
 4374SOL    HW219984  11.976  10.588  10.278 -0.2384 -0.2772  1.3715
 4375SOL     OW19985   1.220  10.806   0.854  0.4236 -0.0553 -0.6535
 4375SOL    HW119986   1.186  10.814   0.765  0.6077  0.3450 -0.6900
 4375SOL    HW219987   1.143  10.817   0.910 -0.1495 -2.7910 -0.7853
 4376SOL     OW19988   5.225  11.275   0.299  0.5899  0.0566 -0.0975
 4376SOL    HW119989   5.181  11.285   0.384  1.0351  1.9883 -0.0517
 4376SOL    HW219990   5.306  11.227   0.319  1.1549  1.3208  0.7540
 4377SOL     OW19991   3.941  12.227   2.122  0.7042 -0.1561  0.2149
 4377SOL    HW119992   3.871  12.161   2.134  0.8653 -0.5439 -0.8651
 4377SOL    HW219993   3.984  12.231   2.207  1.0609 -1.8949  0.1598
 4378SOL     OW19994   0.175   6.329   3.944  0.0957 -0.0079 -0.3152
 4378SOL    HW119995   0.172   6.424   3.933 -0.9214 -0.1129 -1.0700
 4378SOL    HW219996   0.118   6.294   3.875 -1.2381 -1.0565  1.2362
 4379SOL     OW19997   5.623   9.592  11.413 -1.1720 -0.5517  0.2299
 4379SOL    HW119998   5.572   9.530  11.465 -1.2078 -2.0576 -1.4953
 4379SOL    HW219999   5.682   9.537  11.361  1.9350  1.0791  1.7535
 4380SOL     OW20000  10.251   2.979   3.659  0.1816  0.5008  0.4002
 4380SOL    HW120001  10.325   2.949   3.711 -0.4124 -0.7874  0.5253
 4380SOL    HW220002  10.219   2.901   3.614 -0.5459  1.2092 -0.3663
 4381SOL     OW20003   2.316   9.186   9.637  0.6727  0.2302 -0.3500
 4381SOL    HW120004   2.276   9.131   9.705  0.2040  0.2480 -0.6060
 4381SOL    HW220005   2.408   9.161   9.637  0.2253 -1.6908 -1.4834
 4382SOL     OW20006   3.939   2.479  11.079  0.0266 -0.7872 -0.3312
 4382SOL    HW120007   3.990   2.455  11.002 -0.6682 -0.7351 -0.8125
 4382SOL    HW220008   3.896   2.561  11.056  0.1871 -0.5186  0.2899
 4383SOL     OW20009   2.840  10.802  10.009  0.2144 -0.4420  0.3327
 4383SOL    HW120010   2.756  10.825  10.049  0.1365 -1.4095  0.7546
 4383SOL    HW220011   2.894  10.774  10.083  0.7462 -0.2946 -0.0007
 4384SOL     OW20012   0.746   9.064   5.405  1.0348 -0.1799 -0.1842
 4384SOL    HW120013   0.714   9.069   5.495  0.4985 -0.3786 -0.3635
 4384SOL    HW220014   0.815   9.130   5.402 -0.6026  1.6310 -0.2980
 4385SOL     OW20015   6.859  12.208   9.903 -0.3903  0.2850  0.4256
 4385SOL    HW120016   6.932  12.267   9.891  2.3786 -2.9456 -0.0497
 4385SOL    HW220017   6.891  12.141   9.964 -3.3261 -0.7682  1.0226
 4386SOL     OW20018   4.644   4.370   3.117  0.7065 -0.1300  0.5054
 4386SOL    HW120019   4.579   4.391   3.050  1.1783  1.1110  0.4235
 4386SOL    HW220020   4.637   4.441   3.181  1.2603 -0.5488  1.0486
 4387SOL     OW20021   0.252   1.478   9.658 -0.0096  0.3115 -0.2447
 4387SOL    HW120022   0.326   1.430   9.620 -1.2986  0.1877 -2.8336
 4387SOL    HW220023   0.196   1.410   9.696  0.2810  0.2238  0.0334
 4388SOL     OW20024   0.898   4.398   0.611 -0.2976  0.1126  0.1538
 4388SOL    HW120025   0.814   4.427   0.646  0.0083  1.3778 -0.1282
 4388SOL    HW220026   0.959   4.406   0.684 -0.3631 -0.6361  0.3061
 4389SOL     OW20027   2.818   2.820   3.883 -0.3048 -0.6187 -0.3039
 4389SOL    HW120028   2.849   2.743   3.931 -1.4241 -0.2899  1.0214
 4389SOL    HW220029   2.766   2.783   3.811  1.0890 -1.1143 -1.0914
 4390SOL     OW20030   9.485   3.859   3.965 -0.0141 -0.4821  0.6464
 4390SOL    HW120031   9.413   3.847   4.027 -1.4315 -2.7096 -1.2776
 4390SOL    HW220032   9.528   3.774   3.961  1.9648  0.4634  0.7862
 4391SOL     OW20033   0.011   0.525   3.235 -0.1892  1.0132  0.2434
 4391SOL    HW120034   0.088   0.476   3.209 -1.5345 -0.8525 -0.4040
 4391SOL    HW220035  -0.042   0.531   3.156 -2.0310 -0.3299  1.3006
 4392SOL     OW20036   4.172   9.404   0.440 -0.0652  0.3346  0.4874
 4392SOL    HW120037   4.209   9.344   0.504 -1.4328  0.1528  1.1375
 4392SOL    HW220038   4.087   9.366   0.418  0.2619  0.5336 -1.2509
 4393SOL     OW20039   1.664   6.686   9.459  0.1553  0.1660 -0.0403
 4393SOL    HW120040   1.634   6.777   9.457 -0.0890  0.0831 -1.0989
 4393SOL    HW220041   1.648   6.657   9.548 -3.2651  0.0294 -0.5542
 4394SOL     OW20042  11.300   1.902   4.757  0.2090  0.1908 -0.3476
 4394SOL    HW120043  11.220   1.878   4.711 -0.2221  2.0514 -0.6565
 4394SOL    HW220044  11.273   1.973   4.816  1.4303  0.1756  0.2608
 4395SOL     OW20045   7.998   0.628   9.945 -0.4441  0.4592 -0.2233
 4395SOL    HW120046   8.031   0.704   9.897  1.7794 -0.5351 -0.3861
 4395SOL    HW220047   8.072   0.598   9.997 -1.7898 -0.5701  1.1944
 4396SOL     OW20048   1.476  11.022   6.175 -0.4481 -0.3952  0.3321
 4396SOL    HW120049   1.568  11.023   6.200 -0.5093 -1.0907  0.5882
 4396SOL    HW220050   1.433  11.078   6.239 -0.3250 -0.7124  0.6941
 4397SOL     OW20051   9.775   7.043  11.177 -0.7706  0.9879 -0.2318
 4397SOL    HW120052   9.841   7.029  11.245  0.1476  1.6553 -0.9583
 4397SOL    HW220053   9.793   7.132  11.145 -1.0894  0.6262 -1.4387
 4398SOL     OW20054   6.130   4.038  10.046  0.1936 -0.4080  0.3499
 4398SOL    HW120055   6.195   4.106  10.064  0.2077 -0.2203 -0.3533
 4398SOL    HW220056   6.182   3.958  10.038  0.1499 -0.5462  1.4121
 4399SOL     OW20057   9.743   5.464   7.889  0.6329  0.5990  0.2057
 4399SOL    HW120058   9.706   5.480   7.976 -2.0733  0.9467 -0.9222
 4399SOL    HW220059   9.739   5.369   7.877 -2.9864  0.7520 -1.0218
 4400SOL     OW20060   0.818  11.114  11.435  0.3964 -0.5278 -0.0942
 4400SOL    HW120061   0.723  11.122  11.450  0.1278 -1.8932 -0.8711
 4400SOL    HW220062   0.857  11.180  11.492 -1.0838  0.7565 -0.5084
 4401SOL     OW20063   6.784   3.553   0.217  0.1152  0.3808  0.6087
 4401SOL    HW120064   6.728   3.605   0.160 -0.4101  3.5752  3.6633
 4401SOL    HW220065   6.872   3.589   0.203  0.1819  0.3515  0.9353
 4402SOL     OW20066  12.386   0.064  10.330  0.2446 -0.1188 -0.1704
 4402SOL    HW120067  12.413  -0.015  10.377 -0.2614  1.0903  2.2894
 4402SOL    HW220068  12.428   0.136  10.377 -1.1595  1.2550 -0.9181
 4403SOL     OW20069   6.698  11.012   4.511 -0.3083  0.9060  0.5084
 4403SOL    HW120070   6.743  10.992   4.592 -0.8454  3.3730  1.5148
 4403SOL    HW220071   6.606  10.994   4.530 -0.5436  2.2877  0.7794
 4404SOL     OW20072   1.242  10.612   3.190 -0.3985 -0.0096 -0.1690
 4404SOL    HW120073   1.157  10.633   3.228 -0.2381  0.8095 -0.2485
 4404SOL    HW220074   1.241  10.656   3.105  0.9582  1.8854  0.7415
 4405SOL     OW20075   7.854  12.322   9.301 -0.2761 -0.0153 -0.6325
 4405SOL    HW120076   7.771  12.277   9.318  0.1155 -1.2153 -1.6817
 4405SOL    HW220077   7.883  12.286   9.217  0.6587  1.3714 -0.9331
 4406SOL     OW20078   6.448  12.395   7.985  0.1436 -0.2763  0.7998
 4406SOL    HW120079   6.428  12.489   7.993  0.7062 -0.0644 -0.1158
 4406SOL    HW220080   6.493  12.388   7.901 -0.6037 -1.4942  0.4853
 4407SOL     OW20081   4.360   5.014   0.629  0.3205  0.9033 -0.5733
 4407SOL    HW120082   4.378   4.924   0.600 -0.8165  0.8833 -1.2668
 4407SOL    HW220083   4.378   5.013   0.723  0.8426  0.0903 -0.6741
 4408SOL     OW20084   9.350   2.098   3.999 -0.0622 -0.2305  0.6114
 4408SOL    HW120085   9.296   2.103   4.077  0.7151 -0.1589  1.1561
 4408SOL    HW220086   9.435   2.132   4.026  0.1572 -0.0086 -0.3204
 4409SOL     OW20087   9.864  10.291  10.591 -0.1364  0.0751 -0.4312
 4409SOL    HW120088   9.849  10.377  10.551  1.3088  0.5804  0.0455
 4409SOL    HW220089   9.955  10.270  10.567 -0.8789 -1.9804 -1.7280
 4410SOL     OW20090   9.052   9.098   4.112  0.2128 -0.0279 -0.3963
 4410SOL    HW120091   8.992   9.043   4.061  0.4760 -0.8103  0.1224
 4410SOL    HW220092   8.998   9.169   4.146 -0.5373 -1.0070  0.4932
 4411SOL     OW20093  10.059   7.602   7.405  0.4482 -0.3825  0.5845
 4411SOL    HW120094  10.005   7.598   7.327 -0.6639  0.4907  1.2775
 4411SOL    HW220095  10.146   7.576   7.376 -0.4005 -2.1864 -0.4931
 4412SOL     OW20096  11.489   0.229   6.534 -0.0042  0.2224  0.6852
 4412SOL    HW120097  11.481   0.156   6.595  0.7453 -1.2755 -0.9362
 4412SOL    HW220098  11.541   0.294   6.581 -1.3132  0.0806  2.4352
 4413SOL     OW20099   1.618   4.469   9.545 -0.6323  0.1731  0.1599
 4413SOL    HW120100   1.649   4.435   9.461 -2.6323  0.0871 -0.6069
 4413SOL    HW220101   1.614   4.564   9.532 -2.9578  0.0282 -0.6592
 4414SOL     OW20102   0.311   0.505  10.077 -0.7894 -0.0413 -0.1387
 4414SOL    HW120103   0.240   0.514  10.014 -0.7853  0.3391 -0.0898
 4414SOL    HW220104   0.384   0.554  10.038 -0.1350 -1.4667 -0.8046
 4415SOL     OW20105   2.968   5.731   3.999  0.2971  0.6488  0.4966
 4415SOL    HW120106   3.016   5.694   4.074  0.1048 -0.3105  0.1610
 4415SOL    HW220107   2.956   5.657   3.940 -2.8818  0.4576  1.1967
 4416SOL     OW20108   1.900  10.396   6.342 -0.3008  0.0407 -0.2350
 4416SOL    HW120109   1.994  10.411   6.350  0.0958 -1.3060 -1.8070
 4416SOL    HW220110   1.862  10.484   6.339  0.9554  0.6070 -0.2295
 4417SOL     OW20111   3.409   8.655   8.628 -0.1879 -0.1273 -0.0916
 4417SOL    HW120112   3.411   8.671   8.534 -1.3236 -1.7034 -0.4271
 4417SOL    HW220113   3.456   8.572   8.639  0.3435  0.2786  0.8047
 4418SOL     OW20114   3.276   5.812   8.861  0.1685 -0.2357 -0.1238
 4418SOL    HW120115   3.287   5.717   8.858 -3.0442 -0.7620  1.0284
 4418SOL    HW220116   3.219   5.827   8.937 -0.1980  2.5388 -0.8415
 4419SOL     OW20117   4.979  11.775  11.416  0.0301 -0.2485 -0.4321
 4419SOL    HW120118   5.045  11.842  11.400 -0.7232  0.3718 -1.0224
 4419SOL    HW220119   4.916  11.786  11.345 -0.2934 -1.3566 -0.3419
 4420SOL     OW20120   0.020   0.255   1.186  0.2774 -0.4071 -0.7590
 4420SOL    HW120121   0.072   0.325   1.145  1.9631 -0.0826  1.7563
 4420SOL    HW220122   0.037   0.178   1.132  0.4390  0.5215 -2.0838
 4421SOL     OW20123   4.829   7.717   1.284 -0.3985  0.0804  0.1905
 4421SOL    HW120124   4.781   7.703   1.365  0.4779 -2.6688  0.3284
 4421SOL    HW220125   4.919   7.734   1.312 -0.2999  0.2005 -0.1901
 4422SOL     OW20126   8.620   9.756   1.834 -0.1026 -0.5623  0.9968
 4422SOL    HW120127   8.676   9.701   1.780  0.9410  1.6983 -0.3655
 4422SOL    HW220128   8.531   9.733   1.809  0.2624  1.7299 -3.4051
 4423SOL     OW20129   8.730  11.233  11.521  0.1708 -0.0205  0.0880
 4423SOL    HW120130   8.700  11.252  11.610  1.5856 -0.1378  0.6076
 4423SOL    HW220131   8.741  11.138  11.519  1.7132  0.1185  0.3441
 4424SOL     OW20132   2.022   8.312   7.357  0.2487  0.0325  0.4633
 4424SOL    HW120133   2.055   8.399   7.333  0.3267 -0.3240 -0.8316
 4424SOL    HW220134   1.964   8.288   7.284 -2.1033  0.1981  2.1636
 4425SOL     OW20135   2.896   9.664   3.480  0.6454  0.1981  0.4757
 4425SOL    HW120136   2.904   9.605   3.406 -0.4464 -0.9014  1.2038
 4425SOL    HW220137   2.980   9.657   3.526  1.1975  0.6319 -0.4436
 4426SOL     OW20138   5.555   4.430   7.384 -0.1226 -0.1182 -0.0937
 4426SOL    HW120139   5.520   4.519   7.393 -1.6599 -0.3884 -2.5725
 4426SOL    HW220140   5.644   4.442   7.351  0.2656  0.4920  1.1175
 4427SOL     OW20141  12.061   5.939   9.661 -0.2163  0.4546  0.3200
 4427SOL    HW120142  12.155   5.919   9.660 -0.0239  1.3320  0.1245
 4427SOL    HW220143  12.031   5.920   9.572 -0.5581 -1.2517  0.7540
 4428SOL     OW20144   6.063   1.617   5.159 -0.3748 -0.2127 -0.8485
 4428SOL    HW120145   6.026   1.686   5.104  0.4497  1.3970  0.5620
 4428SOL    HW220146   6.157   1.624   5.146 -0.1594  0.2253  0.7840
 4429SOL     OW20147  11.924   6.951   0.925  0.5977  0.2340 -0.1356
 4429SOL    HW120148  11.912   7.042   0.897  1.4764  1.1267  2.1525
 4429SOL    HW220149  11.989   6.916   0.864  1.4672  1.6568 -0.0689
 4430SOL     OW20150   6.750  10.501  12.114 -0.1207  0.1963 -0.0827
 4430SOL    HW120151   6.672  10.460  12.077  0.7640  0.0659 -1.9001
 4430SOL    HW220152   6.822  10.446  12.085  0.8448  1.4914 -0.2367
 4431SOL     OW20153   5.913   7.496   9.688 -0.2938 -0.1785  0.5804
 4431SOL    HW120154   5.993   7.480   9.737 -0.5510  1.1635  1.5162
 4431SOL    HW220155   5.932   7.465   9.600  1.2150  0.0201  0.8079
 4432SOL     OW20156  10.990   6.939   0.609  0.3002  0.3653 -0.2139
 4432SOL    HW120157  10.985   6.849   0.578  1.8553  0.6792 -1.5178
 4432SOL    HW220158  11.077   6.969   0.582 -0.1232  2.2078  0.3226
 4433SOL     OW20159   6.651  11.110   2.276 -0.1988 -0.1012  0.5398
 4433SOL    HW120160   6.728  11.146   2.231 -1.0694 -0.0202 -0.9413
 4433SOL    HW220161   6.579  11.166   2.249 -1.2169 -1.6842 -0.1498
 4434SOL     OW20162   7.323   2.578   5.538 -0.0659 -0.0162 -0.2196
 4434SOL    HW120163   7.255   2.607   5.599 -0.1893  0.6355 -0.6595
 4434SOL    HW220164   7.284   2.590   5.452  0.5829  0.2896 -0.4745
 4435SOL     OW20165   5.173   5.617   9.188 -0.1138  0.1798 -0.1100
 4435SOL    HW120166   5.079   5.632   9.196  0.0470  1.2006 -0.0174
 4435SOL    HW220167   5.185   5.583   9.100 -0.8024 -2.0352  0.5811
 4436SOL     OW20168   2.751   1.185   1.354 -0.8529  0.0108  0.0795
 4436SOL    HW120169   2.796   1.170   1.437 -0.1939 -0.2513 -0.3163
 4436SOL    HW220170   2.748   1.280   1.345 -2.3411  0.0986  1.1473
 4437SOL     OW20171   8.618   6.950   2.020 -0.0540  0.5633 -0.0113
 4437SOL    HW120172   8.668   6.913   2.093 -0.2410 -0.6036 -0.4510
 4437SOL    HW220173   8.622   7.044   2.034  0.4825  0.3922  1.1312
 4438SOL     OW20174   4.425   7.772   0.422  0.1005  0.3855  0.0794
 4438SOL    HW120175   4.447   7.705   0.486 -1.6697 -0.2408  0.0915
 4438SOL    HW220176   4.332   7.789   0.437  0.3020  2.2643 -0.4722
 4439SOL     OW20177   4.553   6.269  11.341 -0.6164  0.4426 -0.0759
 4439SOL    HW120178   4.568   6.356  11.305  0.2974  0.0424 -0.6864
 4439SOL    HW220179   4.488   6.229  11.283 -1.0679  0.7258  0.2303
 4440SOL     OW20180  10.401   1.137   9.899  0.3625  0.1975 -0.1341
 4440SOL    HW120181  10.468   1.192   9.859  1.0287 -0.9350 -0.6175
 4440SOL    HW220182  10.318   1.172   9.867  0.5821  2.5316  1.6051
 4441SOL     OW20183   0.510   7.155  10.464 -0.1120 -0.4233 -0.3163
 4441SOL    HW120184   0.422   7.145  10.500  0.3834  0.1853  1.1248
 4441SOL    HW220185   0.553   7.072  10.483 -0.6448 -1.0929 -1.8905
 4442SOL     OW20186   9.799   7.741   4.257 -0.6492  0.7020 -0.5909
 4442SOL    HW120187   9.705   7.743   4.243 -0.6949 -0.7583 -0.7040
 4442SOL    HW220188   9.816   7.655   4.296  0.9036 -0.2044 -2.9780
 4443SOL     OW20189   6.789   4.634   0.325 -0.1207  0.5110 -0.0090
 4443SOL    HW120190   6.863   4.576   0.308  0.9516  2.3889 -2.2637
 4443SOL    HW220191   6.828   4.712   0.363 -1.1330  0.9705  0.1212
 4444SOL     OW20192  10.771   0.572   7.397 -0.1201  1.1412 -0.1731
 4444SOL    HW120193  10.865   0.559   7.399 -0.2493  0.2310  1.1298
 4444SOL    HW220194  10.756   0.633   7.324  1.6139  2.6370  0.6540
 4445SOL     OW20195  10.134   3.042   6.619 -0.2700  0.4322  0.3347
 4445SOL    HW120196  10.148   2.959   6.573 -0.5246 -0.5971  2.0314
 4445SOL    HW220197  10.170   3.027   6.706 -2.4492  1.2734  1.4516
 4446SOL     OW20198   1.342   7.312  10.554 -0.2152 -0.0294 -0.4826
 4446SOL    HW120199   1.252   7.310  10.521  0.0512 -1.1834 -1.1834
 4446SOL    HW220200   1.338   7.266  10.637 -0.1753 -0.6025 -0.7929
 4447SOL     OW20201   9.302   7.370   9.433 -0.0246  0.1546 -0.2398
 4447SOL    HW120202   9.282   7.463   9.438 -0.3906  0.0980 -0.6107
 4447SOL    HW220203   9.280   7.345   9.343  0.7873 -0.1257 -0.3654
 4448SOL     OW20204   5.443   2.281   3.909 -0.6353  0.0221  0.3259
 4448SOL    HW120205   5.366   2.313   3.958  0.0746 -0.4362  1.8076
 4448SOL    HW220206   5.448   2.188   3.930  0.0610 -0.0503 -0.1289
 4449SOL     OW20207  11.955   9.602  10.306  0.3367 -0.0126 -0.3736
 4449SOL    HW120208  12.020   9.535  10.282  1.1232  0.4084  0.4985
 4449SOL    HW220209  11.973   9.621  10.398 -0.5948  0.6139 -0.3070
 4450SOL     OW20210  11.632   5.191   1.248  0.1811  0.2692  0.1500
 4450SOL    HW120211  11.658   5.240   1.327 -0.6010  1.3622 -0.2485
 4450SOL    HW220212  11.668   5.243   1.176 -1.9657  1.1372 -0.3575
 4451SOL     OW20213  12.317   7.430   1.693  0.6260  0.2916  0.1642
 4451SOL    HW120214  12.377   7.360   1.721 -0.0706 -0.6850 -0.6937
 4451SOL    HW220215  12.373   7.507   1.683  1.3934 -0.1076  1.2508
 4452SOL     OW20216   7.200   8.087   0.952  0.0885 -0.4791 -0.0706
 4452SOL    HW120217   7.256   8.162   0.972  0.3462 -1.3089  2.7801
 4452SOL    HW220218   7.134   8.122   0.893  0.4993  1.8790  0.7491
 4453SOL     OW20219   5.856  10.012   0.496  0.2797 -0.5627  0.1511
 4453SOL    HW120220   5.855   9.986   0.404 -0.9401  0.1694 -0.0548
 4453SOL    HW220221   5.944  10.050   0.508  0.1424  0.1820 -0.9633
 4454SOL     OW20222   5.830   9.445   8.575  0.3496  0.3114 -0.5080
 4454SOL    HW120223   5.847   9.351   8.585 -0.5243  0.2129  0.1792
 4454SOL    HW220224   5.789   9.453   8.489  0.8108  0.1242 -0.7499
 4455SOL     OW20225   4.434   3.852   4.257  0.2532 -0.1930  0.2904
 4455SOL    HW120226   4.392   3.861   4.172  0.4567 -0.3990  0.1658
 4455SOL    HW220227   4.411   3.932   4.304  0.7410  0.2487 -0.2148
 4456SOL     OW20228   9.207   3.757   2.137  0.3886 -0.7210  0.2894
 4456SOL    HW120229   9.222   3.789   2.049 -0.7550 -0.9692 -0.0117
 4456SOL    HW220230   9.190   3.835   2.189 -1.2482 -0.6965 -0.2091
 4457SOL     OW20231  10.248   0.180   2.550 -0.7057 -0.1131  0.0366
 4457SOL    HW120232  10.239   0.177   2.646 -0.8648 -0.1386  0.0199
 4457SOL    HW220233  10.271   0.090   2.526  0.9822  0.2186  0.2224
 4458SOL     OW20234  11.291   4.954   2.630 -0.2437  0.0391 -0.5054
 4458SOL    HW120235  11.222   4.888   2.633 -0.4163  0.2290 -0.1603
 4458SOL    HW220236  11.310   4.973   2.722 -1.5105  1.8089 -0.5536
 4459SOL     OW20237   0.446   6.524   9.403  0.0356  0.0788  0.2143
 4459SOL    HW120238   0.379   6.584   9.371  1.4375  0.9771 -1.1955
 4459SOL    HW220239   0.430   6.442   9.356 -0.0995  0.2897 -0.1124
 4460SOL     OW20240   6.842   9.835   3.710 -0.5330  0.3225  0.2857
 4460SOL    HW120241   6.818   9.816   3.801  1.6080 -0.6948  0.7129
 4460SOL    HW220242   6.918   9.893   3.718 -0.3755  0.2888 -0.8466
 4461SOL     OW20243   7.752   5.517  11.143 -0.5727  0.1280  0.0712
 4461SOL    HW120244   7.781   5.455  11.076 -0.4867 -1.1843  1.2663
 4461SOL    HW220245   7.721   5.593  11.094  2.3336  0.5204 -1.3899
 4462SOL     OW20246   9.519   9.008   3.797 -0.5372  0.1995  0.1653
 4462SOL    HW120247   9.484   8.920   3.803  0.4912 -0.4909 -2.6172
 4462SOL    HW220248   9.448   9.060   3.760 -1.3733  0.7868  2.4104
 4463SOL     OW20249   0.002  10.292   2.153  0.1418  0.7327 -0.6885
 4463SOL    HW120250   0.068  10.253   2.095  0.3777  0.8428 -0.4961
 4463SOL    HW220251   0.053  10.346   2.214 -0.1093  0.6598 -0.4147
 4464SOL     OW20252  12.116   7.933   3.597 -0.1691 -0.0516  0.7450
 4464SOL    HW120253  12.072   7.956   3.678 -1.2270 -0.4246  0.2872
 4464SOL    HW220254  12.068   7.979   3.529  1.5116  1.3357  0.4139
 4465SOL     OW20255   7.634   2.982   2.258  0.1744  0.2367 -0.4229
 4465SOL    HW120256   7.615   3.023   2.173 -0.3928  0.7325 -0.0637
 4465SOL    HW220257   7.548   2.971   2.298  0.5406  1.5581  0.8051
 4466SOL     OW20258   0.083  11.474  12.466 -0.5911  0.0476  0.1307
 4466SOL    HW120259   0.129  11.557  12.457  2.0349 -0.9858  2.5898
 4466SOL    HW220260   0.024  11.487  12.540 -1.3568  0.1635 -0.4884
 4467SOL     OW20261   4.781   0.032   7.814 -0.4601  0.3521  0.1487
 4467SOL    HW120262   4.714   0.023   7.881 -0.5099  0.9148  0.1794
 4467SOL    HW220263   4.862   0.006   7.857 -0.1847  2.4548  0.9941
 4468SOL     OW20264  10.784   1.697   6.679  0.0541  0.0046 -0.0744
 4468SOL    HW120265  10.694   1.683   6.708  0.2601 -0.7448  0.2237
 4468SOL    HW220266  10.780   1.688   6.584 -0.4595  1.5760 -0.2279
 4469SOL     OW20267   1.039   5.148   3.209 -0.2811  0.5246 -0.2306
 4469SOL    HW120268   1.103   5.155   3.280  0.0775 -0.5740 -0.4304
 4469SOL    HW220269   0.960   5.117   3.252  0.2935 -1.3856 -0.4617
 4470SOL     OW20270   9.935   2.158   4.130 -0.1132 -0.0672  0.0971
 4470SOL    HW120271   9.956   2.073   4.093 -1.2711 -0.2804 -0.1195
 4470SOL    HW220272   9.914   2.213   4.054  1.4832  0.6893  0.1618
 4471SOL     OW20273   3.147   5.119   7.883 -0.4823 -0.2177 -0.0772
 4471SOL    HW120274   3.110   5.170   7.955 -0.4600  0.1679 -0.3406
 4471SOL    HW220275   3.155   5.181   7.811  0.9391 -0.2150  0.0533
 4472SOL     OW20276  10.012   5.109   3.663  0.3964  0.4060 -0.1200
 4472SOL    HW120277  10.042   5.108   3.754 -0.9316 -0.3407  0.3467
 4472SOL    HW220278  10.092   5.110   3.611  1.2109 -1.1167  1.0349
 4473SOL     OW20279   7.281  11.461  10.025 -0.0238  0.4049 -0.3262
 4473SOL    HW120280   7.307  11.546   9.989 -1.2530  0.1880 -1.8233
 4473SOL    HW220281   7.339  11.398   9.983  0.6547  0.4349  0.5233
 4474SOL     OW20282   6.845  10.944  10.258 -0.1361  0.2097 -0.1145
 4474SOL    HW120283   6.852  11.004  10.332  0.7909  0.9382 -0.7634
 4474SOL    HW220284   6.809  10.997  10.187 -1.0469 -0.4870 -0.1940
 4475SOL     OW20285   4.123   8.219   1.918 -0.8015  0.4367 -0.1263
 4475SOL    HW120286   4.171   8.233   1.999 -0.3922 -1.5479  0.0280
 4475SOL    HW220287   4.185   8.245   1.849 -0.5006  0.4340  0.1405
 4476SOL     OW20288   8.677   1.606   7.946  0.2403 -0.2853  0.3333
 4476SOL    HW120289   8.757   1.559   7.970  0.1244 -0.0084  1.3023
 4476SOL    HW220290   8.678   1.685   8.000 -1.6480 -1.2173  1.8153
 4477SOL     OW20291   0.125   7.776  10.953  0.2250  0.0257 -0.4317
 4477SOL    HW120292   0.120   7.702  11.014 -2.1982 -1.6992 -2.5290
 4477SOL    HW220293   0.129   7.736  10.866  1.9702  2.3977 -1.5640
 4478SOL     OW20294   1.235   8.162   3.229 -0.2099  0.6309 -0.2435
 4478SOL    HW120295   1.306   8.220   3.201 -0.9458  1.0883 -1.2297
 4478SOL    HW220296   1.191   8.211   3.299 -0.9806  1.4058 -1.2416
 4479SOL     OW20297   3.195  10.340   6.291 -0.4452 -0.5452 -0.2832
 4479SOL    HW120298   3.261  10.391   6.245 -0.2394 -0.0719  0.5052
 4479SOL    HW220299   3.118  10.397   6.293 -1.3937 -1.6309 -2.4376
 4480SOL     OW20300   9.801   1.144   5.047 -0.4011  0.4439  0.1734
 4480SOL    HW120301   9.770   1.061   5.011 -0.3766  0.9232 -1.0015
 4480SOL    HW220302   9.888   1.157   5.009 -1.0470  1.7605 -0.9835
 4481SOL     OW20303   9.619   2.405  10.493  0.2928 -0.3437  0.3290
 4481SOL    HW120304   9.693   2.378  10.547  0.1679 -0.6884  0.3318
 4481SOL    HW220305   9.555   2.440  10.556  0.5037  0.0760  0.3133
 4482SOL     OW20306   9.696   5.189   6.248 -0.8340 -0.4266 -0.6728
 4482SOL    HW120307   9.658   5.271   6.279 -0.4108 -0.6985  0.6334
 4482SOL    HW220308   9.719   5.206   6.157 -0.0188  1.1754 -0.2032
 4483SOL     OW20309  11.298   7.537  11.039 -0.2409  0.3809  0.4182
 4483SOL    HW120310  11.286   7.552  11.132 -1.2742  2.2273  0.0206
 4483SOL    HW220311  11.211   7.545  11.001  0.3884  1.3218 -0.9146
 4484SOL     OW20312   9.918   0.543  12.360  0.2876  0.6659  0.5171
 4484SOL    HW120313   9.989   0.480  12.371  0.2260  0.6389  0.7635
 4484SOL    HW220314   9.954   0.610  12.303  0.5049  0.6403  0.6237
 4485SOL     OW20315   3.502   7.875  10.768  0.1724  0.0046 -0.6964
 4485SOL    HW120316   3.477   7.943  10.705  1.0198  0.2742 -0.7489
 4485SOL    HW220317   3.545   7.922  10.839  0.4213 -0.4418 -0.5481
 4486SOL     OW20318   8.733   0.833   6.545  0.0112  0.4843  0.3625
 4486SOL    HW120319   8.697   0.783   6.618  0.6621 -0.1318  0.2833
 4486SOL    HW220320   8.772   0.910   6.585 -1.1857  1.0489  0.4672
 4487SOL     OW20321   5.840   3.273   5.615  0.2974 -0.6813  0.0177
 4487SOL    HW120322   5.889   3.326   5.551  0.0604  0.3760  0.6969
 4487SOL    HW220323   5.891   3.193   5.623  1.0459 -0.2732 -0.5151
 4488SOL     OW20324   7.223   2.337   1.054  0.5033 -0.0386 -0.1239
 4488SOL    HW120325   7.253   2.427   1.037  0.1973  0.0454 -0.2260
 4488SOL    HW220326   7.274   2.309   1.130  0.7895  0.1271 -0.2490
 4489SOL     OW20327   1.647  10.135   3.146  0.7049  0.0169  0.5150
 4489SOL    HW120328   1.661  10.091   3.062 -0.8547 -0.6051  0.5535
 4489SOL    HW220329   1.693  10.079   3.210 -0.5520 -1.1513  0.4473
 4490SOL     OW20330   0.094   5.359   6.403 -0.1566  0.2972  0.3164
 4490SOL    HW120331   0.115   5.406   6.484 -0.2660 -0.9305  1.0782
 4490SOL    HW220332   0.047   5.423   6.349  0.4982  1.3331  0.9427
 4491SOL     OW20333   5.820   9.340   6.268  0.0750 -0.5272  0.1863
 4491SOL    HW120334   5.735   9.378   6.291  0.8848  0.9446  0.8707
 4491SOL    HW220335   5.826   9.353   6.173 -0.2223 -0.1052  0.2201
 4492SOL     OW20336   2.595   3.809   1.806 -0.1999 -0.0984  0.0582
 4492SOL    HW120337   2.624   3.832   1.718  0.6986 -0.5788  0.2158
 4492SOL    HW220338   2.502   3.834   1.808  0.3031  1.9722 -0.2992
 4493SOL     OW20339   9.447   4.244   6.223 -0.0829  0.1006 -0.2964
 4493SOL    HW120340   9.493   4.164   6.249 -0.6617  0.3816  1.7595
 4493SOL    HW220341   9.480   4.311   6.282 -1.2598  0.8587 -0.4646
 4494SOL     OW20342   4.584   0.919   7.140 -0.4390  0.3803 -0.5759
 4494SOL    HW120343   4.562   0.978   7.068 -1.9176  0.1713 -0.3238
 4494SOL    HW220344   4.523   0.943   7.210  0.2894 -0.1105  0.2404
 4495SOL     OW20345   4.569   0.594   2.963  0.1469  0.1437  0.6477
 4495SOL    HW120346   4.499   0.645   3.004 -0.5209 -1.1734  1.2282
 4495SOL    HW220347   4.565   0.509   3.007  1.2286 -0.4108 -0.2690
 4496SOL     OW20348  12.050   7.275   2.919 -0.4785  0.1699  0.0130
 4496SOL    HW120349  11.995   7.201   2.896  0.2145 -1.4871  3.1569
 4496SOL    HW220350  12.007   7.315   2.995  1.1985  0.5198  0.8276
 4497SOL     OW20351   4.977   1.683   5.125 -0.3608  0.3336 -0.1643
 4497SOL    HW120352   4.935   1.769   5.123 -0.3416  0.3397 -0.3784
 4497SOL    HW220353   5.057   1.696   5.176 -1.0827  0.1070  1.0710
 4498SOL     OW20354   7.912   8.256   0.670 -0.4490  0.7888 -0.7642
 4498SOL    HW120355   7.824   8.294   0.669 -0.1552  1.5145  0.2134
 4498SOL    HW220356   7.964   8.316   0.723  0.6974  0.4826 -1.5116
 4499SOL     OW20357   9.576   5.558   7.245 -0.2327  0.1068 -0.3661
 4499SOL    HW120358   9.561   5.653   7.246  1.2966  0.3714 -0.5636
 4499SOL    HW220359   9.593   5.535   7.336  1.3711  0.3922 -0.5621
 4500SOL     OW20360  11.630  11.920   2.107 -0.0838 -0.2987  0.5587
 4500SOL    HW120361  11.668  11.893   2.191  2.9359 -0.3994 -0.7243
 4500SOL    HW220362  11.546  11.959   2.131  1.6134  1.7858  3.9122
 4501SOL     OW20363   2.855   3.383   5.327 -0.1569 -0.2939 -0.0869
 4501SOL    HW120364   2.828   3.412   5.240  0.8191 -1.0309 -0.6667
 4501SOL    HW220365   2.819   3.448   5.387 -0.7269  0.3059 -1.0521
 4502SOL     OW20366   9.436   6.246   5.670 -0.3010 -0.1049 -0.1799
 4502SOL    HW120367   9.399   6.236   5.758 -1.7262  0.1171 -0.7365
 4502SOL    HW220368   9.377   6.307   5.626  0.3239 -0.3205 -1.3398
 4503SOL     OW20369   4.526   6.587   1.811 -0.0019  0.5262  0.5831
 4503SOL    HW120370   4.542   6.538   1.891 -0.4923 -1.3340 -0.4071
 4503SOL    HW220371   4.611   6.586   1.765 -0.7357 -2.4633 -0.9900
 4504SOL     OW20372   9.392   7.758   4.492  0.2868  0.0092 -0.2488
 4504SOL    HW120373   9.365   7.850   4.484 -0.9899  0.0643  3.1906
 4504SOL    HW220374   9.319   7.716   4.536  1.6562 -2.2529 -0.0146
 4505SOL     OW20375   0.884   1.041   8.654  0.4679 -0.2278 -0.4399
 4505SOL    HW120376   0.812   0.980   8.638  1.4191 -1.5750  0.1398
 4505SOL    HW220377   0.893   1.090   8.572 -1.3955  0.3353 -0.3504
 4506SOL     OW20378   1.419   4.143  10.787 -0.3075 -0.3681  0.5306
 4506SOL    HW120379   1.510   4.144  10.758 -0.3181  0.8424  0.4782
 4506SOL    HW220380   1.379   4.069  10.741  0.2709  0.0423 -0.6640
 4507SOL     OW20381   4.896   8.055   9.356 -0.1849 -0.2573 -0.0106
 4507SOL    HW120382   4.947   8.078   9.434 -0.4440  0.7677 -0.1346
 4507SOL    HW220383   4.810   8.093   9.372 -0.1520  0.2051 -0.9302
 4508SOL     OW20384   4.378  11.947   8.185  0.1522 -0.1532 -0.3839
 4508SOL    HW120385   4.410  11.886   8.252 -1.8153  1.5036  2.2937
 4508SOL    HW220386   4.332  11.893   8.122  1.4449 -1.7360 -0.0273
 4509SOL     OW20387   5.709   8.005   0.568 -0.4078  0.5050 -0.3913
 4509SOL    HW120388   5.769   7.930   0.573  0.7617  1.2551 -2.2460
 4509SOL    HW220389   5.630   7.969   0.528 -0.5784 -0.1220  0.4732
 4510SOL     OW20390   3.503   1.361  11.171  0.2329 -0.1698  0.0755
 4510SOL    HW120391   3.551   1.414  11.236  1.0589  0.4481 -1.0059
 4510SOL    HW220392   3.413   1.358  11.205 -0.5455  4.1261 -0.9904
 4511SOL     OW20393  10.605   6.878   1.684  0.4163  0.0456 -0.1739
 4511SOL    HW120394  10.622   6.959   1.636 -0.7097  0.5107  0.1741
 4511SOL    HW220395  10.614   6.809   1.618 -0.9847  0.6619 -1.0783
 4512SOL     OW20396  11.673  11.454  10.314 -0.5599 -0.3102 -0.2618
 4512SOL    HW120397  11.710  11.540  10.295 -3.0845  0.8969 -0.2364
 4512SOL    HW220398  11.650  11.418  10.228 -0.7196 -0.3484 -0.2047
 4513SOL     OW20399   3.553   7.256  10.680  0.2397  0.6357 -0.0867
 4513SOL    HW120400   3.603   7.332  10.650  0.4550  0.0866 -1.1691
 4513SOL    HW220401   3.462   7.277  10.658  0.3850  0.2768 -1.1041
 4514SOL     OW20402   4.039  10.120   2.630 -0.2929 -0.3097  0.5515
 4514SOL    HW120403   4.112  10.098   2.573  0.3320  0.6737  0.9316
 4514SOL    HW220404   4.046  10.215   2.641 -1.0647 -0.3357  1.3489
 4515SOL     OW20405   5.185   6.902   5.881 -0.0273 -0.0993  0.0476
 4515SOL    HW120406   5.247   6.968   5.852 -0.3283  0.4951  0.7325
 4515SOL    HW220407   5.203   6.826   5.826  0.8435  0.2937 -0.2225
 4516SOL     OW20408   6.862   7.388   7.764  0.0715  0.1076  0.1628
 4516SOL    HW120409   6.884   7.340   7.684  0.2035  0.0290  0.2466
 4516SOL    HW220410   6.766   7.393   7.763  0.0012 -0.9695  0.6351
 4517SOL     OW20411   7.682   7.331  11.834  0.4225 -0.3675 -0.0822
 4517SOL    HW120412   7.744   7.394  11.871  0.2500  0.8642 -1.7527
 4517SOL    HW220413   7.635   7.381  11.767 -1.1623 -1.7550 -0.0567
 4518SOL     OW20414   2.008   4.445   9.637  0.2808  0.5840 -0.0091
 4518SOL    HW120415   1.999   4.350   9.633  1.9093  0.3495  0.9139
 4518SOL    HW220416   1.945   4.472   9.704 -0.8570  0.2981 -0.9286
 4519SOL     OW20417  10.281   3.753  10.114 -0.2477  0.0460 -0.3214
 4519SOL    HW120418  10.247   3.723  10.198 -1.3671  1.0149 -0.4059
 4519SOL    HW220419  10.222   3.823  10.088  0.5680  0.3103 -1.5324
 4520SOL     OW20420  11.134   6.634  10.561 -0.4551 -0.0687 -0.0271
 4520SOL    HW120421  11.090   6.660  10.480  2.1909  0.5646 -1.3744
 4520SOL    HW220422  11.201   6.573  10.532  2.0294  1.8581  1.3029
 4521SOL     OW20423   1.342   3.947  10.213 -0.2813 -0.2978  0.5275
 4521SOL    HW120424   1.296   4.011  10.268 -0.0859  1.9410 -1.7277
 4521SOL    HW220425   1.296   3.865  10.229 -1.1078  0.5280  2.9249
 4522SOL     OW20426   4.113   4.109   8.764 -0.3017  0.0515 -0.0110
 4522SOL    HW120427   4.168   4.129   8.840 -0.0610  0.1258 -0.2012
 4522SOL    HW220428   4.028   4.146   8.785 -0.6533 -1.1751  0.8391
 4523SOL     OW20429   8.071   6.119   8.821  0.2047 -0.3695  0.3645
 4523SOL    HW120430   7.984   6.116   8.780  0.4809 -0.5896 -0.2315
 4523SOL    HW220431   8.055   6.107   8.914 -0.4428  0.0740  0.3177
 4524SOL     OW20432   8.458  10.520   3.604 -0.3716  0.1716 -0.1244
 4524SOL    HW120433   8.458  10.603   3.557  0.4554  0.2047 -0.0878
 4524SOL    HW220434   8.452  10.544   3.697  2.5640  0.3755  0.0947
 4525SOL     OW20435  11.930   4.110   4.597 -0.1500  0.0130  0.0960
 4525SOL    HW120436  11.937   4.096   4.502 -0.7954  0.4523 -0.0228
 4525SOL    HW220437  11.853   4.059   4.623 -0.0615  0.0131  0.3628
 4526SOL     OW20438  11.895   2.669   3.590  0.2457  0.2709 -0.4880
 4526SOL    HW120439  11.984   2.680   3.557  0.5833 -2.1216 -0.5404
 4526SOL    HW220440  11.847   2.743   3.553  2.2139  1.6805 -0.3565
 4527SOL     OW20441   5.727   0.596  11.240  0.2786 -0.4149 -0.1713
 4527SOL    HW120442   5.770   0.627  11.320 -1.4356  1.9996 -0.0589
 4527SOL    HW220443   5.778   0.635  11.169 -0.1403  0.2408 -0.1212
 4528SOL     OW20444   2.751   7.235   6.348  0.3188  0.2611 -0.1545
 4528SOL    HW120445   2.701   7.307   6.387  0.5892  0.8935 -0.9421
 4528SOL    HW220446   2.779   7.269   6.263  0.1337 -0.9216 -0.7056
 4529SOL     OW20447   4.244   6.039   4.449 -0.0147  0.7267 -0.0706
 4529SOL    HW120448   4.200   5.964   4.491  2.3992 -0.5094  0.3915
 4529SOL    HW220449   4.262   6.009   4.360  0.6207  0.8962 -0.0008
 4530SOL     OW20450   4.612   4.447   0.624 -0.1247  0.0912 -0.8829
 4530SOL    HW120451   4.659   4.525   0.596  0.6054  0.5889  1.4562
 4530SOL    HW220452   4.645   4.377   0.569  1.1576  0.9837 -1.2857
 4531SOL     OW20453   3.517   3.927   2.040 -0.0303 -0.2438  0.7050
 4531SOL    HW120454   3.488   4.009   2.000  0.1117 -0.8448 -0.7141
 4531SOL    HW220455   3.438   3.873   2.044  0.0128 -0.2867  1.0015
 4532SOL     OW20456   0.136   6.855  11.669  0.0947  0.0551  0.1058
 4532SOL    HW120457   0.083   6.854  11.589 -0.3952  0.7389  0.4088
 4532SOL    HW220458   0.089   6.797  11.729 -0.4175  0.7813  0.4270
 4533SOL     OW20459   0.939   8.455   8.544  0.4510 -0.0732 -0.4243
 4533SOL    HW120460   0.901   8.368   8.558  0.3452 -0.2006 -1.4421
 4533SOL    HW220461   1.007   8.442   8.478 -0.9839  0.9335 -2.1945
 4534SOL     OW20462   7.744   7.708   5.975 -0.0363 -0.5272 -0.2450
 4534SOL    HW120463   7.688   7.630   5.965 -0.6480 -0.0267 -0.8005
 4534SOL    HW220464   7.833   7.673   5.970 -0.2873 -1.3423  0.6557
 4535SOL     OW20465   0.454   9.218   9.985 -0.0115  0.2565  0.1551
 4535SOL    HW120466   0.377   9.227  10.042  0.1487  0.3074  0.3621
 4535SOL    HW220467   0.519   9.174  10.039  0.6966  1.7243  0.5311
 4536SOL     OW20468   3.404   3.236   3.092 -0.2787 -0.5210 -0.1541
 4536SOL    HW120469   3.344   3.209   3.022 -0.1311 -0.1251 -0.4364
 4536SOL    HW220470   3.480   3.179   3.082  0.0500  0.0137 -0.7746
 4537SOL     OW20471   1.746   1.476   0.217 -0.3881 -0.5129 -0.3429
 4537SOL    HW120472   1.729   1.488   0.311  1.4504  1.3166 -0.1620
 4537SOL    HW220473   1.841   1.485   0.209 -0.6344  0.8932 -2.5537
 4538SOL     OW20474   2.291   5.604  11.330  0.2560 -0.1684 -0.0692
 4538SOL    HW120475   2.353   5.587  11.258  3.0099 -0.0566  2.0809
 4538SOL    HW220476   2.347   5.632  11.402 -2.4776  0.6974  1.8494
 4539SOL     OW20477   3.641   2.197   3.921  0.3508  0.0188 -0.4080
 4539SOL    HW120478   3.623   2.178   3.829 -0.7297  1.6658 -0.5881
 4539SOL    HW220479   3.576   2.263   3.945  1.9755  1.2327  0.9223
 4540SOL     OW20480  10.893  10.518  10.696 -0.0719 -0.2034  0.0947
 4540SOL    HW120481  10.840  10.597  10.709 -1.3895 -1.2451  1.4644
 4540SOL    HW220482  10.830  10.453  10.664  0.6184 -1.1698  0.6559
 4541SOL     OW20483   8.639   3.568   4.790 -0.4584 -0.7569  0.5896
 4541SOL    HW120484   8.634   3.526   4.704  1.2300 -0.1086  0.1172
 4541SOL    HW220485   8.656   3.660   4.770 -2.3060 -0.1526  1.6259
 4542SOL     OW20486  10.728   5.684  12.179 -0.1408 -0.2610 -0.1056
 4542SOL    HW120487  10.790   5.687  12.251  1.7346 -2.4947 -1.4989
 4542SOL    HW220488  10.737   5.769  12.136  0.6139  0.1200  0.7686
 4543SOL     OW20489   1.884   4.074   9.632  0.2300 -0.1505  0.6079
 4543SOL    HW120490   1.946   4.118   9.689  1.3233 -1.2894  0.3354
 4543SOL    HW220491   1.798   4.091   9.672  0.9170 -0.4578  2.2840
 4544SOL     OW20492   4.794   1.332   7.083  0.8643  0.5416 -0.3050
 4544SOL    HW120493   4.870   1.360   7.135  1.7265  0.3814 -1.4238
 4544SOL    HW220494   4.758   1.414   7.048  0.3818  0.6354  0.3895
 4545SOL     OW20495   7.791   2.833   9.665 -0.0330 -0.3556  0.3742
 4545SOL    HW120496   7.706   2.790   9.678  0.0329 -0.5110  0.2893
 4545SOL    HW220497   7.815   2.864   9.752  1.0022 -2.4880  0.9201
 4546SOL     OW20498   2.471   5.732   1.770  0.0497 -0.3999  0.3414
 4546SOL    HW120499   2.445   5.641   1.784  1.7401 -1.3225 -1.8455
 4546SOL    HW220500   2.483   5.739   1.675  0.9689  1.8084  0.5598
 4547SOL     OW20501   8.707   6.502   8.346  0.2147  0.6144 -0.3485
 4547SOL    HW120502   8.747   6.425   8.387 -1.3779  0.9938  2.1330
 4547SOL    HW220503   8.770   6.529   8.279  2.3478 -0.9273  0.8927
 4548SOL     OW20504   5.414   9.782   9.014  0.0758 -0.2108  0.2308
 4548SOL    HW120505   5.354   9.856   9.002  0.8342  0.0881 -2.2618
 4548SOL    HW220506   5.368   9.708   8.976  0.5640 -0.3564 -0.0810
 4549SOL     OW20507   7.400  11.514   6.509 -0.5767 -0.1298  0.6832
 4549SOL    HW120508   7.442  11.512   6.423 -0.7880 -0.5108  0.5880
 4549SOL    HW220509   7.368  11.424   6.522  0.6864 -0.4481  1.7696
 4550SOL     OW20510  10.006   3.653   1.722  0.2017 -0.2960  0.5415
 4550SOL    HW120511   9.998   3.567   1.762  0.7026 -0.2362  0.7694
 4550SOL    HW220512   9.922   3.696   1.740 -0.1669 -0.8488  0.1502
 4551SOL     OW20513   7.295   0.582   1.026  0.3430  0.1129  0.0301
 4551SOL    HW120514   7.362   0.568   0.958  1.4062  0.8504  0.8908
 4551SOL    HW220515   7.345   0.587   1.107 -0.9528 -1.1204  0.9281
 4552SOL     OW20516  10.938   7.640  12.401 -0.0625  0.1540 -0.1905
 4552SOL    HW120517  11.018   7.683  12.371  0.6038  1.4762  3.0913
 4552SOL    HW220518  10.960   7.604  12.487 -2.5325 -0.9313  0.0941
 4553SOL     OW20519   0.444   1.636   3.399  0.6353  0.5025 -0.0916
 4553SOL    HW120520   0.366   1.692   3.402 -0.9081 -1.5680  1.4513
 4553SOL    HW220521   0.458   1.621   3.305 -1.9169 -0.4230 -0.4116
 4554SOL     OW20522   3.604   3.454   4.100 -0.0824 -0.3958  0.8428
 4554SOL    HW120523   3.657   3.526   4.132  0.4829 -0.2912 -0.2804
 4554SOL    HW220524   3.619   3.453   4.006 -1.1054 -1.1553  0.6683
 4555SOL     OW20525   7.365   0.388   8.527  0.4132 -0.3733 -0.6823
 4555SOL    HW120526   7.337   0.297   8.531 -0.2690 -0.2529 -2.0434
 4555SOL    HW220527   7.390   0.410   8.617  0.9773 -2.0080 -0.4129
 4556SOL     OW20528   9.678  10.140   3.645  0.1795  0.3461  0.5644
 4556SOL    HW120529   9.590  10.117   3.676  0.0473  2.0349  1.5474
 4556SOL    HW220530   9.725  10.165   3.723  1.3256  0.1773 -0.0564
 4557SOL     OW20531   8.981  11.352   2.312  0.2720 -0.8531 -0.4139
 4557SOL    HW120532   9.048  11.411   2.276 -1.0175 -0.2401 -1.9191
 4557SOL    HW220533   9.008  11.265   2.283  1.0185 -0.7494 -0.0454
 4558SOL     OW20534   9.487   4.718  11.532 -0.0003 -0.0552  0.0026
 4558SOL    HW120535   9.553   4.715  11.462  0.1657  0.0631  0.1516
 4558SOL    HW220536   9.537   4.704  11.612 -0.2933 -0.9768  0.0400
 4559SOL     OW20537   2.935   4.503   0.828  0.2823 -0.3668 -0.4644
 4559SOL    HW120538   2.897   4.487   0.742 -0.9225  0.7220 -0.1584
 4559SOL    HW220539   2.865   4.547   0.878  0.8392 -1.2143  1.1587
 4560SOL     OW20540   5.997   1.916   0.319  0.1644  0.5138  0.5903
 4560SOL    HW120541   6.006   1.984   0.253 -0.2444  1.1487  1.1653
 4560SOL    HW220542   6.067   1.854   0.300 -2.0209 -1.2089 -2.6054
 4561SOL     OW20543   4.734   6.034   9.649 -0.0183 -0.0850 -0.2644
 4561SOL    HW120544   4.653   6.070   9.612  0.5249  0.2677 -1.1387
 4561SOL    HW220545   4.705   5.977   9.720 -1.0231  0.2013 -0.4320
 4562SOL     OW20546   9.718   1.990   5.819  0.1791 -0.1332  0.1830
 4562SOL    HW120547   9.717   2.078   5.781 -1.6722 -0.3017 -0.2265
 4562SOL    HW220548   9.811   1.973   5.835  0.6650  1.5185 -0.5843
 4563SOL     OW20549  11.084   9.410   8.177 -0.6687  0.5346 -0.9681
 4563SOL    HW120550  11.017   9.469   8.144  0.4911  2.6578  0.2299
 4563SOL    HW220551  11.065   9.402   8.271  0.3877  0.7268 -0.7178
 4564SOL     OW20552   7.371   4.485   2.764  0.2936 -0.4925  0.4591
 4564SOL    HW120553   7.373   4.565   2.817 -2.5683  2.5495 -3.3814
 4564SOL    HW220554   7.281   4.453   2.773  0.2019 -0.7936 -1.1789
 4565SOL     OW20555   5.435   0.234   9.670 -0.1221  0.4971  0.0448
 4565SOL    HW120556   5.526   0.226   9.698  0.1967  0.5896 -0.9032
 4565SOL    HW220557   5.405   0.144   9.659  0.7883  0.4033 -2.4065
 4566SOL     OW20558   5.811  11.437   4.857  0.0135 -0.0885 -0.0767
 4566SOL    HW120559   5.802  11.517   4.908  0.6275 -0.1047  0.0579
 4566SOL    HW220560   5.888  11.393   4.892  1.1099  0.4349 -1.7149
 4567SOL     OW20561   9.930   9.575   8.439  0.2467 -0.1773  0.1756
 4567SOL    HW120562  10.014   9.620   8.437  0.0494  0.2921  1.2616
 4567SOL    HW220563   9.875   9.625   8.378  0.6103 -0.1962 -0.1728
 4568SOL     OW20564   7.490   6.691   5.954 -0.0005  0.0432  0.4431
 4568SOL    HW120565   7.556   6.747   5.997  2.7391 -1.2344 -1.7603
 4568SOL    HW220566   7.451   6.747   5.888 -1.4854  0.9125  1.9862
 4569SOL     OW20567   6.743   9.597   8.485 -0.8738  0.2650 -0.2126
 4569SOL    HW120568   6.696   9.519   8.515  2.0552 -1.7059 -0.2281
 4569SOL    HW220569   6.679   9.647   8.436 -3.1041 -1.7722  0.4291
 4570SOL     OW20570   9.390   3.775   7.300  0.6119  0.3423 -0.2326
 4570SOL    HW120571   9.394   3.870   7.306  0.8627  0.4176 -1.5057
 4570SOL    HW220572   9.325   3.757   7.232  0.5839 -0.3989 -0.0216
 4571SOL     OW20573   4.673   6.550   7.637  0.4552 -0.1576 -0.0319
 4571SOL    HW120574   4.638   6.636   7.617  2.2098  0.8634  1.0677
 4571SOL    HW220575   4.630   6.524   7.719  3.0872  1.7571  2.1566
 4572SOL     OW20576   1.730   7.299   5.466  0.3377 -0.6556 -0.3375
 4572SOL    HW120577   1.748   7.224   5.522  1.0079 -0.9882 -0.9830
 4572SOL    HW220578   1.719   7.262   5.379 -2.5311 -0.3796 -0.2058
 4573SOL     OW20579   6.927   3.215   9.770 -0.1167  0.4026  0.3025
 4573SOL    HW120580   6.955   3.126   9.748  0.8402  0.3071  1.7948
 4573SOL    HW220581   6.832   3.208   9.783 -0.4039  0.0622 -1.6130
 4574SOL     OW20582  11.468   2.672   8.650 -0.1586 -0.0523  0.5717
 4574SOL    HW120583  11.531   2.661   8.579 -1.7964  0.8632 -1.1148
 4574SOL    HW220584  11.431   2.585   8.664  2.4907 -0.9933  2.7346
 4575SOL     OW20585   0.154  11.698   9.102 -0.1522 -0.1430  0.2198
 4575SOL    HW120586   0.181  11.647   9.179 -0.9797 -1.3524 -0.2586
 4575SOL    HW220587   0.236  11.721   9.058  0.2998  0.0230  1.1210
 4576SOL     OW20588   0.249  12.039   0.951  0.1475 -0.1729  0.1976
 4576SOL    HW120589   0.197  12.009   1.025  0.5401 -0.5450  0.3272
 4576SOL    HW220590   0.251  11.964   0.891  0.6179 -0.2031  0.2451
 4577SOL     OW20591  11.113   8.249   9.155  0.2350 -0.4309 -0.1631
 4577SOL    HW120592  11.182   8.263   9.090  1.1110 -2.2673  0.2949
 4577SOL    HW220593  11.139   8.303   9.230  0.4369 -0.0581 -0.4987
 4578SOL     OW20594   5.347   4.138   7.915 -0.0773  0.5128  0.6950
 4578SOL    HW120595   5.394   4.058   7.940 -0.8120 -0.0171  0.4059
 4578SOL    HW220596   5.385   4.206   7.971  1.1834  0.1465  0.3072
 4579SOL     OW20597   3.185  11.584   3.516 -0.0854 -0.0793  0.2564
 4579SOL    HW120598   3.131  11.590   3.437  0.1164  0.4417  0.1564
 4579SOL    HW220599   3.193  11.490   3.532 -0.2003 -0.1863 -0.2897
 4580SOL     OW20600   6.740   7.793   5.763 -0.3625  0.3011  0.0336
 4580SOL    HW120601   6.793   7.723   5.725 -2.7669 -0.8098 -1.5525
 4580SOL    HW220602   6.706   7.756   5.844 -1.9426 -0.6012 -0.9931
 4581SOL     OW20603   6.624   2.177   4.299 -0.7911  0.2987 -0.2779
 4581SOL    HW120604   6.687   2.151   4.366 -0.4654  0.5883 -0.4652
 4581SOL    HW220605   6.577   2.251   4.338  0.9329  1.9786 -1.1701
 4582SOL     OW20606   1.989  11.437   9.393 -0.8849 -0.0025  0.3694
 4582SOL    HW120607   1.905  11.396   9.373 -0.6036 -0.0629 -0.8042
 4582SOL    HW220608   2.052  11.365   9.390 -0.5698  0.2963 -0.4311
 4583SOL     OW20609   9.394   2.847  11.106 -0.0847  0.1556 -0.4868
 4583SOL    HW120610   9.326   2.875  11.045 -1.4668  0.5669  1.1732
 4583SOL    HW220611   9.367   2.760  11.134  1.9153 -1.1806 -2.3253
 4584SOL     OW20612  11.213   2.337   1.823 -0.3457  0.1920  0.7138
 4584SOL    HW120613  11.292   2.284   1.836 -0.7819 -0.1465  2.2454
 4584SOL    HW220614  11.246   2.424   1.800  0.4214 -0.2836 -0.0622
 4585SOL     OW20615   2.034   4.754   2.518 -0.8658  0.1559  0.3586
 4585SOL    HW120616   2.124   4.779   2.539 -1.2244 -0.0427  2.3259
 4585SOL    HW220617   2.041   4.667   2.479 -0.1244  0.6318 -0.6001
 4586SOL     OW20618   1.169   4.517  10.319  0.2155 -0.0177 -0.1665
 4586SOL    HW120619   1.126   4.504  10.404 -2.4094 -0.5511 -1.4596
 4586SOL    HW220620   1.150   4.436  10.271 -0.2773  1.1104 -1.9818
 4587SOL     OW20621   9.342   0.092   0.935  0.1368  0.7756 -0.2843
 4587SOL    HW120622   9.393   0.140   1.001 -2.0614  0.8595  1.4384
 4587SOL    HW220623   9.264   0.146   0.921 -0.6147 -0.4823 -1.1104
 4588SOL     OW20624   2.526   0.651  10.901  0.5322  0.0217  0.0024
 4588SOL    HW120625   2.468   0.575  10.895 -0.5475  0.8900 -1.4446
 4588SOL    HW220626   2.579   0.635  10.979 -0.0321 -1.9361  0.0431
 4589SOL     OW20627   2.047   8.909   7.813 -0.0051  0.6136 -0.1271
 4589SOL    HW120628   2.023   8.985   7.866 -0.2147 -0.5354  1.4873
 4589SOL    HW220629   1.982   8.906   7.743 -2.2895 -0.1984  1.9345
 4590SOL     OW20630   3.307   8.903   5.378  0.1015 -0.4731 -0.1130
 4590SOL    HW120631   3.275   8.950   5.301 -2.7399 -1.5791  0.2549
 4590SOL    HW220632   3.402   8.912   5.375 -0.0973  1.7846 -2.2369
 4591SOL     OW20633   0.684   3.377  10.216  0.0199  0.2538  0.3817
 4591SOL    HW120634   0.589   3.368  10.206  0.2329 -0.2861 -1.3983
 4591SOL    HW220635   0.717   3.287  10.212  0.7166  0.5361 -0.3795
 4592SOL     OW20636   7.764   1.854   1.590 -0.0936  0.0836 -0.2898
 4592SOL    HW120637   7.726   1.784   1.643  1.2288 -0.9026 -0.6164
 4592SOL    HW220638   7.846   1.818   1.557 -0.3477  1.0704 -2.1094
 4593SOL     OW20639   6.813   1.568   9.646  0.2300  0.2762  0.2274
 4593SOL    HW120640   6.830   1.662   9.641 -0.4141  0.3995  0.2759
 4593SOL    HW220641   6.820   1.538   9.555 -0.6001  0.5577  0.0698
 4594SOL     OW20642  11.228   7.895   9.574  0.0018  0.0377  0.2322
 4594SOL    HW120643  11.311   7.848   9.562 -0.6765 -0.8279 -1.3585
 4594SOL    HW220644  11.161   7.830   9.554 -1.0062  1.3405 -0.7827
 4595SOL     OW20645   2.314   2.450  12.184  0.1255  0.5835  0.1847
 4595SOL    HW120646   2.265   2.369  12.175  1.0607 -0.3885  2.9533
 4595SOL    HW220647   2.403   2.423  12.207  0.6159  2.3620  0.5813
 4596SOL     OW20648   1.235   3.287   5.569  0.0633 -0.2726 -0.4952
 4596SOL    HW120649   1.161   3.247   5.613  1.0002 -0.8017  0.6573
 4596SOL    HW220650   1.227   3.381   5.587  0.0235 -0.4023  0.1871
 4597SOL     OW20651   0.946  11.464   3.387 -0.0928 -0.2344  0.0995
 4597SOL    HW120652   0.930  11.413   3.466  1.6994 -1.7588 -0.4588
 4597SOL    HW220653   0.858  11.482   3.352 -0.8935 -4.1102 -0.3699
 4598SOL     OW20654   5.007   5.379   4.085  0.2058  0.4713 -0.3605
 4598SOL    HW120655   4.992   5.457   4.139  0.0760 -0.2260  0.6353
 4598SOL    HW220656   4.933   5.321   4.105 -0.9300  0.9677 -2.7740
 4599SOL     OW20657   4.764   9.276   9.377  0.3094  0.1033  0.0278
 4599SOL    HW120658   4.828   9.338   9.343 -0.0264  0.6613  0.4110
 4599SOL    HW220659   4.807   9.191   9.367  1.3599  0.5168  0.8239
 4600SOL     OW20660  11.457   9.383   7.443  0.2762  0.3002 -0.1378
 4600SOL    HW120661  11.522   9.313   7.449  0.6910  0.7621  0.7496
 4600SOL    HW220662  11.453   9.421   7.530 -0.6072  0.8044 -0.3817
 4601SOL     OW20663   9.767   9.458   4.734 -0.4566 -0.0322 -0.1760
 4601SOL    HW120664   9.739   9.390   4.673 -0.7869  1.6267 -1.9849
 4601SOL    HW220665   9.862   9.460   4.725 -0.5178  0.3322 -0.8138
 4602SOL     OW20666  10.402   3.931   7.949 -0.3234  0.0977 -0.1904
 4602SOL    HW120667  10.393   3.836   7.956  0.9551  0.0670  2.1176
 4602SOL    HW220668  10.479   3.944   7.895  0.0067 -0.2292  0.1917
 4603SOL     OW20669   8.433   1.480   0.558 -0.0425 -0.3667  0.1545
 4603SOL    HW120670   8.409   1.538   0.630 -1.1264  2.1357 -2.0496
 4603SOL    HW220671   8.351   1.436   0.534 -0.0943  0.1035 -0.5817
 4604SOL     OW20672   0.842   9.452   3.908  0.2180  0.0313 -0.2418
 4604SOL    HW120673   0.853   9.510   3.833  0.4679  0.9380  0.4865
 4604SOL    HW220674   0.754   9.473   3.941  0.0143 -0.5321 -0.4089
 4605SOL     OW20675   6.767   7.037   1.113 -0.2748  0.1121 -0.5722
 4605SOL    HW120676   6.739   7.123   1.081 -0.7546  0.1814  0.0106
 4605SOL    HW220677   6.828   7.057   1.184  0.0863 -0.0355 -0.8397
 4606SOL     OW20678   0.341   3.440   3.578 -0.1633 -0.3437  0.2701
 4606SOL    HW120679   0.299   3.503   3.520  0.1003  0.8806  1.3482
 4606SOL    HW220680   0.312   3.355   3.546 -0.0503  0.2706 -1.6127
 4607SOL     OW20681   7.726   6.085   1.880  0.2011 -0.0990  0.0388
 4607SOL    HW120682   7.807   6.045   1.910 -0.6399 -1.4192  0.6101
 4607SOL    HW220683   7.671   6.090   1.958 -0.4687  0.2977 -0.4427
 4608SOL     OW20684  11.810  12.247   8.861 -0.1306 -0.1153 -0.4213
 4608SOL    HW120685  11.828  12.187   8.789  1.1254 -2.3352  1.6096
 4608SOL    HW220686  11.731  12.214   8.902 -0.5511  0.8288 -0.4396
 4609SOL     OW20687   7.517   8.838   7.470  0.0628 -0.0879 -0.2933
 4609SOL    HW120688   7.514   8.893   7.392 -0.0482 -1.3943 -1.2588
 4609SOL    HW220689   7.603   8.795   7.465  0.1517  0.0003  0.4414
 4610SOL     OW20690   0.970   0.161  10.071  0.0122 -0.1044  0.1504
 4610SOL    HW120691   0.917   0.236  10.045  0.7161  0.2622 -0.2707
 4610SOL    HW220692   1.043   0.198  10.120 -0.7328 -0.7092  1.7736
 4611SOL     OW20693   9.665   6.089   3.616  0.0126 -0.0657  0.2706
 4611SOL    HW120694   9.632   6.178   3.630 -1.6330 -0.5398 -0.4076
 4611SOL    HW220695   9.617   6.057   3.540  1.1577 -1.2688  0.0193
 4612SOL     OW20696   2.839   6.290  11.315 -0.6827  0.1069 -0.2886
 4612SOL    HW120697   2.890   6.309  11.235 -2.3161 -2.3064 -2.0534
 4612SOL    HW220698   2.880   6.211  11.351  1.4480  2.3502  2.7199
 4613SOL     OW20699   9.460  11.998   2.613 -0.3369  0.2740 -0.0822
 4613SOL    HW120700   9.444  11.907   2.637 -0.1230  0.1625 -0.3787
 4613SOL    HW220701   9.384  12.022   2.560  1.0615 -0.6681 -2.6718
 4614SOL     OW20702   5.492   6.551   3.527  0.2106 -0.4591 -0.4022
 4614SOL    HW120703   5.508   6.460   3.549  0.9796 -0.3762 -0.5829
 4614SOL    HW220704   5.398   6.564   3.542  0.4106 -0.8029  1.3300
 4615SOL     OW20705   2.318  11.450   7.177  0.0525 -0.4646 -0.1758
 4615SOL    HW120706   2.404  11.419   7.148 -0.3628  0.1910 -2.3197
 4615SOL    HW220707   2.256  11.395   7.130 -0.7196 -0.5219  0.8778
 4616SOL     OW20708   7.934  12.174  10.648 -0.3578 -0.7784 -0.3671
 4616SOL    HW120709   7.876  12.110  10.688 -1.4092 -0.1353 -0.8074
 4616SOL    HW220710   7.876  12.232  10.598  0.5990  0.2636 -0.3319
 4617SOL     OW20711   4.160   5.164   2.295  0.2916  0.8109 -0.3046
 4617SOL    HW120712   4.130   5.255   2.294  0.9649  1.0857 -2.9655
 4617SOL    HW220713   4.080   5.113   2.313 -0.4233  1.8363 -0.4776
 4618SOL     OW20714  11.155   3.223   4.003 -0.6313  0.2279 -0.1329
 4618SOL    HW120715  11.109   3.285   3.947  0.2840 -0.7321 -2.0575
 4618SOL    HW220716  11.229   3.193   3.950  0.1598 -0.9320  1.5213
 4619SOL     OW20717   8.560   0.362  11.785 -0.4843 -0.1773  0.0457
 4619SOL    HW120718   8.505   0.329  11.856  0.4048  2.3152  2.0309
 4619SOL    HW220719   8.505   0.425  11.739 -0.5952 -0.7433 -0.6132
 4620SOL     OW20720   3.606   1.423   6.302  0.0086  0.0226 -0.3443
 4620SOL    HW120721   3.511   1.432   6.294  0.2237  1.1066 -1.9353
 4620SOL    HW220722   3.630   1.483   6.373 -0.4711 -0.1150 -0.0651
 4621SOL     OW20723   5.881   9.049  11.229  0.5094  0.3607 -0.9222
 4621SOL    HW120724   5.788   9.041  11.206  0.5627 -1.7298 -0.5866
 4621SOL    HW220725   5.881   9.098  11.311 -0.3536 -0.1540 -0.5994
 4622SOL     OW20726   8.525   0.147  10.649 -0.3612  0.3103  0.0720
 4622SOL    HW120727   8.442   0.141  10.697 -0.9970  1.2682 -0.8645
 4622SOL    HW220728   8.585   0.189  10.711 -1.0937  1.3054  0.1380
 4623SOL     OW20729   9.187  11.537   1.327  0.2985  0.0843  0.4938
 4623SOL    HW120730   9.218  11.477   1.259 -1.4713 -0.0604 -0.2412
 4623SOL    HW220731   9.243  11.614   1.320  2.0313 -1.0999  0.8582
 4624SOL     OW20732   8.164   2.215  10.008  0.1347 -0.1322  0.1652
 4624SOL    HW120733   8.191   2.306   9.994 -0.6470  0.1144  0.2345
 4624SOL    HW220734   8.127   2.188   9.924 -1.2755  0.1994  0.6613
 4625SOL     OW20735  10.014   5.285   3.345  0.2446  0.3963  0.1041
 4625SOL    HW120736  10.064   5.239   3.277 -0.7146 -0.1247 -0.2652
 4625SOL    HW220737   9.945   5.330   3.297  0.4005  1.1734  0.6047
 4626SOL     OW20738   4.097  11.330   7.046  0.1953 -0.2852  0.3489
 4626SOL    HW120739   4.122  11.240   7.024  0.6354  0.2006 -1.2751
 4626SOL    HW220740   4.177  11.382   7.032 -0.3351  0.5175  0.2104
 4627SOL     OW20741   1.275   4.705   9.649  0.2871 -0.7037  0.3172
 4627SOL    HW120742   1.320   4.763   9.709  0.8326 -1.2545  0.4534
 4627SOL    HW220743   1.201   4.670   9.699  0.9863 -1.4912  0.8203
 4628SOL     OW20744   0.100   7.987   4.806  0.4280 -0.4580  0.8842
 4628SOL    HW120745   0.112   8.073   4.846 -1.4220  0.8708 -1.1607
 4628SOL    HW220746   0.188   7.961   4.777  1.3254 -0.2061  3.1956
 4629SOL     OW20747   0.681   4.838   1.162 -0.2084 -0.1083  0.5169
 4629SOL    HW120748   0.734   4.887   1.224 -1.0163  0.3783  0.8279
 4629SOL    HW220749   0.742   4.815   1.091  0.4658  0.2326  0.9821
 4630SOL     OW20750   8.685   7.020   9.089  0.0247  0.2828  0.0100
 4630SOL    HW120751   8.641   7.086   9.035  2.1435  0.9491 -1.0264
 4630SOL    HW220752   8.672   7.050   9.179 -1.9192  0.2161 -0.2068
 4631SOL     OW20753   0.408   8.000   5.309 -0.9003  0.0397 -0.1363
 4631SOL    HW120754   0.382   7.918   5.267 -1.5202 -0.1775  0.6359
 4631SOL    HW220755   0.330   8.056   5.302 -0.9983  0.0099  0.6886
 4632SOL     OW20756   1.530   7.114   4.980  0.0045  0.0651  0.1080
 4632SOL    HW120757   1.596   7.045   4.975 -0.5158 -0.4294 -0.0694
 4632SOL    HW220758   1.447   7.069   4.965 -0.6061  0.3250  2.3809
 4633SOL     OW20759   5.641  11.205   7.903 -0.0729  0.3773 -0.7585
 4633SOL    HW120760   5.577  11.216   7.973 -0.2349 -0.7071 -0.7126
 4633SOL    HW220761   5.667  11.294   7.879  1.4084  0.7634  1.9447
 4634SOL     OW20762  10.578   2.842   8.347 -0.0802  0.7564  0.4405
 4634SOL    HW120763  10.505   2.790   8.315  0.8860  0.7590 -2.0271
 4634SOL    HW220764  10.604   2.800   8.429 -1.4296 -0.5846  0.2221
 4635SOL     OW20765   9.063   7.838   4.242  0.3209  0.0958 -0.1461
 4635SOL    HW120766   9.122   7.828   4.168 -0.2316 -1.0201 -0.4635
 4635SOL    HW220767   9.080   7.926   4.275  2.4901 -0.3312  0.0655
 4636SOL     OW20768   5.088   9.296   1.995 -0.0388  0.2433  0.1935
 4636SOL    HW120769   5.118   9.238   1.924 -0.6580  1.2945 -0.9641
 4636SOL    HW220770   5.016   9.345   1.956  0.0416  1.3216  1.3581
 4637SOL     OW20771   8.781   7.223  12.348 -0.6400  0.3230 -0.6318
 4637SOL    HW120772   8.777   7.147  12.289 -0.8403  0.0175 -0.2316
 4637SOL    HW220773   8.712   7.281  12.316 -1.6104 -0.4131  0.0649
 4638SOL     OW20774   5.971   2.514   7.707  0.5784 -0.1005 -0.0814
 4638SOL    HW120775   6.058   2.481   7.683  0.8275  0.2346  0.3552
 4638SOL    HW220776   5.944   2.566   7.631  0.5036 -0.6780 -0.4598
 4639SOL     OW20777  10.120   1.756  11.017 -0.1847  0.6088 -0.6208
 4639SOL    HW120778  10.112   1.848  10.991  2.7092  0.7602 -1.2603
 4639SOL    HW220779  10.114   1.757  11.112  1.0473  1.6659 -0.5268
 4640SOL     OW20780   3.138   4.243   8.396 -0.0838 -0.3312  0.1469
 4640SOL    HW120781   3.231   4.240   8.373  0.1261  0.9438  0.7581
 4640SOL    HW220782   3.118   4.336   8.402 -1.1840 -0.6047  0.9145
 4641SOL     OW20783   8.762   6.099   2.547 -0.4133 -0.4106  0.1891
 4641SOL    HW120784   8.674   6.127   2.572 -1.4437 -1.6099 -1.8142
 4641SOL    HW220785   8.812   6.180   2.540 -2.4839  0.7884 -2.5576
 4642SOL     OW20786   7.616  11.179   9.286 -0.0318 -0.3107 -0.2327
 4642SOL    HW120787   7.631  11.106   9.225 -2.4642 -0.9432 -0.1877
 4642SOL    HW220788   7.697  11.184   9.337  1.0127 -1.5669 -1.6500
 4643SOL     OW20789  10.090   0.996   7.421 -0.1121  0.0806 -0.4603
 4643SOL    HW120790  10.012   1.052   7.419 -0.7362 -0.7427 -0.1558
 4643SOL    HW220791  10.057   0.910   7.394  0.3504 -0.6793  1.2825
 4644SOL     OW20792   8.982   5.335   8.879  0.1859  0.3420  0.1823
 4644SOL    HW120793   9.054   5.341   8.816  0.0694  1.0328  0.1071
 4644SOL    HW220794   8.938   5.253   8.856 -0.6049  1.1764 -1.4866
 4645SOL     OW20795   2.574   3.758   8.451  0.2023 -0.5334  0.2245
 4645SOL    HW120796   2.519   3.835   8.464  0.7016 -0.3927  1.7360
 4645SOL    HW220797   2.663   3.791   8.460  0.5573 -0.8308 -1.7894
 4646SOL     OW20798   5.834  10.768   4.902  0.0813 -0.2048 -0.5454
 4646SOL    HW120799   5.806  10.778   4.812 -0.3779  0.3434 -0.3468
 4646SOL    HW220800   5.768  10.712   4.943 -1.4082  2.0054  0.2128
 4647SOL     OW20801  11.501   1.589   5.952 -0.9740 -0.3531 -0.5511
 4647SOL    HW120802  11.456   1.530   5.891 -2.1046 -1.0231  0.8812
 4647SOL    HW220803  11.460   1.572   6.037 -1.5672  2.7462 -0.1130
 4648SOL     OW20804   9.216  10.194   8.336 -0.3161 -0.1120  0.3369
 4648SOL    HW120805   9.132  10.212   8.293 -0.5562 -2.6815 -0.4833
 4648SOL    HW220806   9.244  10.110   8.299  0.7810 -1.1988  3.2867
 4649SOL     OW20807   3.368   7.527   6.076 -0.1282 -0.3904 -0.1490
 4649SOL    HW120808   3.452   7.551   6.114  0.2280 -0.5234 -0.8323
 4649SOL    HW220809   3.303   7.550   6.143  0.4566 -0.3686  0.4151
 4650SOL     OW20810   4.856   4.888  10.315 -0.6399  0.2910  0.2964
 4650SOL    HW120811   4.856   4.850  10.402  1.5123 -1.9099 -0.5650
 4650SOL    HW220812   4.900   4.973  10.326  0.6283 -0.4476  1.2243
 4651SOL     OW20813   5.832   6.659  10.242  0.3359  0.2490 -0.1478
 4651SOL    HW120814   5.797   6.628  10.325  0.9064  1.1385  0.4391
 4651SOL    HW220815   5.785   6.741  10.225  0.5904  0.3387 -0.4378
 4652SOL     OW20816  10.737   6.860   7.350 -0.2885 -0.3720 -0.8641
 4652SOL    HW120817  10.688   6.881   7.429 -1.0611 -0.2661 -1.3678
 4652SOL    HW220818  10.805   6.799   7.380 -0.1695  0.1495 -0.0131
 4653SOL     OW20819   6.151   2.657   8.615  0.0557  0.0663  0.1732
 4653SOL    HW120820   6.239   2.690   8.636  1.1311 -0.7064 -2.6238
 4653SOL    HW220821   6.156   2.564   8.636  0.5348 -0.3307 -1.5501
 4654SOL     OW20822   7.460  12.307   7.550  0.2718 -0.5137 -0.2195
 4654SOL    HW120823   7.411  12.276   7.626 -1.5629 -0.2798 -1.2655
 4654SOL    HW220824   7.397  12.308   7.478  0.8264  3.1435 -0.8673
 4655SOL     OW20825  11.052  10.828   8.130  0.0263 -0.0330  0.9089
 4655SOL    HW120826  11.091  10.860   8.212  0.5292 -0.1924  0.7356
 4655SOL    HW220827  11.012  10.906   8.091  1.0095  0.3426  0.6242
 4656SOL     OW20828   0.364   1.894   1.758  0.1244 -0.1679 -0.4782
 4656SOL    HW120829   0.416   1.813   1.756 -0.7170 -0.7706  0.6699
 4656SOL    HW220830   0.419   1.959   1.714  0.8524 -1.3350 -1.3561
 4657SOL     OW20831   6.218   6.001   3.061  0.1515 -0.4168 -0.0152
 4657SOL    HW120832   6.268   5.920   3.061  0.7805 -0.0419 -0.1553
 4657SOL    HW220833   6.271   6.061   3.114 -1.0482 -0.5317  1.4064
 4658SOL     OW20834  12.086   6.005   2.499  0.2226 -0.0441  0.2587
 4658SOL    HW120835  12.069   6.078   2.439 -0.3807 -0.4996 -0.1403
 4658SOL    HW220836  12.002   5.958   2.503  0.7820 -1.1052 -0.0298
 4659SOL     OW20837   1.321   1.856  11.589  0.1368  0.0864  0.2074
 4659SOL    HW120838   1.323   1.934  11.534  2.0077 -0.6942 -0.8873
 4659SOL    HW220839   1.273   1.884  11.667 -0.2850  1.9710 -0.6672
 4660SOL     OW20840  11.468   5.090  11.571 -0.1311  0.3444  0.6173
 4660SOL    HW120841  11.549   5.078  11.521 -0.1953  0.8715  0.3770
 4660SOL    HW220842  11.470   5.022  11.637  0.2571  0.0220  0.2772
 4661SOL     OW20843  11.062   0.001   8.216  1.0501  0.7188 -0.8148
 4661SOL    HW120844  11.075   0.068   8.149  0.1171  2.2334  0.4490
 4661SOL    HW220845  11.066   0.049   8.299  1.3022 -0.9591  0.1863
 4662SOL     OW20846   0.376   1.307   6.776 -0.1182  0.7829  0.0381
 4662SOL    HW120847   0.452   1.291   6.720 -1.5420 -0.0546 -1.7566
 4662SOL    HW220848   0.304   1.261   6.732 -1.5106  0.8741  2.0954
 4663SOL     OW20849   7.922   4.992   8.487 -0.3960  0.4658  0.5526
 4663SOL    HW120850   7.909   4.915   8.432  1.1990  0.1661  0.5471
 4663SOL    HW220851   7.948   5.061   8.425 -1.4545  0.9199  0.5993
 4664SOL     OW20852   2.266  10.694   9.322 -0.0731 -0.7700 -0.2860
 4664SOL    HW120853   2.215  10.616   9.344 -2.2906  0.8024  0.5478
 4664SOL    HW220854   2.250  10.755   9.394 -2.1915  2.1108 -2.8660
 4665SOL     OW20855   3.951   0.696   8.597 -0.3743 -0.0309 -0.1342
 4665SOL    HW120856   3.923   0.782   8.566 -0.4226 -0.0373 -0.1081
 4665SOL    HW220857   3.925   0.695   8.690  0.6770  0.3906  0.1873
 4666SOL     OW20858  10.897   9.685   6.670  0.0416  0.3699  0.5792
 4666SOL    HW120859  10.921   9.625   6.741 -0.5778  1.5700  1.8567
 4666SOL    HW220860  10.968   9.677   6.607  1.3240  0.2413  1.9629
 4667SOL     OW20861   5.957   6.221  11.918  0.2011 -0.3867  0.8430
 4667SOL    HW120862   5.924   6.200  11.831  1.6466  0.4249  0.0572
 4667SOL    HW220863   5.911   6.161  11.977 -0.6832 -1.0530 -0.4929
 4668SOL     OW20864   4.416   9.103   0.014  0.4424 -0.1870 -0.8338
 4668SOL    HW120865   4.405   9.010   0.034  2.0786 -0.3771 -0.7546
 4668SOL    HW220866   4.510   9.115   0.001  0.6086  1.9023  1.5047
 4669SOL     OW20867   0.513  12.182   0.926  0.1993  0.4246 -0.3228
 4669SOL    HW120868   0.501  12.256   0.867  1.4267  1.4206  0.6167
 4669SOL    HW220869   0.426  12.168   0.965 -0.1715  1.0211 -0.9093
 4670SOL     OW20870  11.286   9.373   2.915  0.2369 -0.3658  0.3276
 4670SOL    HW120871  11.378   9.345   2.912  0.0122 -1.5400  2.4256
 4670SOL    HW220872  11.257   9.349   3.003 -1.5987  1.6237  0.3411
 4671SOL     OW20873  10.922   5.140   8.936 -0.3674  0.4685 -0.0686
 4671SOL    HW120874  10.906   5.143   9.030 -0.2491 -0.2453 -0.0147
 4671SOL    HW220875  11.015   5.161   8.927 -0.1525 -0.3892  0.0631
 4672SOL     OW20876   6.630   4.918   9.744 -0.1307  0.0482 -0.4695
 4672SOL    HW120877   6.678   4.999   9.724  1.0969 -0.4310  0.3719
 4672SOL    HW220878   6.698   4.850   9.744 -0.5021 -0.4307  2.3578
 4673SOL     OW20879  10.802   4.731   6.251 -0.9305 -0.4466  0.2741
 4673SOL    HW120880  10.885   4.697   6.218  0.4149  3.0628 -0.4302
 4673SOL    HW220881  10.763   4.775   6.176 -1.9278  0.5521  1.3509
 4674SOL     OW20882   7.627   3.414  11.845  0.0760 -0.1246 -0.3914
 4674SOL    HW120883   7.612   3.381  11.756  0.2137  2.3020 -1.3877
 4674SOL    HW220884   7.542   3.450  11.871  0.8609  2.5405 -1.1294
 4675SOL     OW20885   5.174  12.098   4.113 -0.5350 -0.4698 -0.5694
 4675SOL    HW120886   5.156  12.134   4.200 -1.1607 -1.6565 -0.1917
 4675SOL    HW220887   5.224  12.167   4.069  0.6079 -0.2119  1.0375
 4676SOL     OW20888   9.296   2.255   1.658 -0.2210 -0.2803  1.0918
 4676SOL    HW120889   9.368   2.290   1.711  0.9580 -0.6588 -0.1819
 4676SOL    HW220890   9.290   2.163   1.682  0.1896 -0.4078  0.7245
 4677SOL     OW20891   0.217  12.211   1.372  0.1947  0.0266 -0.0704
 4677SOL    HW120892   0.207  12.219   1.467  0.4439 -1.1122  0.0653
 4677SOL    HW220893   0.270  12.132   1.360 -1.2827 -0.8597 -1.1996
 4678SOL     OW20894   4.246   1.917   4.393  0.3792 -0.3073 -0.6451
 4678SOL    HW120895   4.328   1.958   4.418 -0.0747 -0.6956  1.8159
 4678SOL    HW220896   4.271   1.844   4.336  1.9881 -1.4857  1.4119
 4679SOL     OW20897   7.605  10.377  11.153 -0.1955 -0.0037 -0.0454
 4679SOL    HW120898   7.588  10.449  11.094  0.4465  1.2595  1.2501
 4679SOL    HW220899   7.674  10.326  11.111  0.6006  1.1549 -0.1587
 4680SOL     OW20900   1.838   0.197  11.894  0.5616 -0.1164  0.5478
 4680SOL    HW120901   1.911   0.256  11.873  0.5752  0.2132  1.5062
 4680SOL    HW220902   1.832   0.199  11.989  0.7356 -1.8790  0.6259
 4681SOL     OW20903   7.629   4.389  11.967 -0.2652 -0.0349  0.1984
 4681SOL    HW120904   7.601   4.466  11.918  2.4442 -0.8759 -3.0405
 4681SOL    HW220905   7.560   4.325  11.952 -1.5101  1.0135  1.1661
 4682SOL     OW20906  10.305  10.017  10.855  0.1120  0.1968 -0.3361
 4682SOL    HW120907  10.357  10.088  10.817 -0.0371  1.0956  1.0505
 4682SOL    HW220908  10.215  10.039  10.833  0.0428  0.6094  0.3165
 4683SOL     OW20909   8.646   0.633   5.450 -0.3900  0.4325 -0.7463
 4683SOL    HW120910   8.590   0.556   5.452 -2.3314  1.7648 -0.1304
 4683SOL    HW220911   8.623   0.677   5.368 -1.1953  1.5841  0.0444
 4684SOL     OW20912   2.261  10.098  10.274  0.3373  0.1264 -0.6331
 4684SOL    HW120913   2.187  10.068  10.326  0.6484  1.1598  0.4437
 4684SOL    HW220914   2.275  10.028  10.209 -0.2655 -1.0439  0.4585
 4685SOL     OW20915   6.544  10.722   8.631  0.0082 -0.0139  0.0420
 4685SOL    HW120916   6.450  10.719   8.614 -0.2472  2.1515  0.7167
 4685SOL    HW220917   6.562  10.815   8.647  2.2583 -0.3885 -0.0233
 4686SOL     OW20918   9.341   4.521   6.093  0.1538 -0.0185 -0.2622
 4686SOL    HW120919   9.346   4.475   6.177 -0.1903 -1.4037 -0.9668
 4686SOL    HW220920   9.426   4.565   6.084  0.5180 -0.5708  0.4084
 4687SOL     OW20921   2.023   8.576  11.307  0.2754  0.2368  0.6612
 4687SOL    HW120922   2.094   8.620  11.260 -0.7017  0.5582 -0.5619
 4687SOL    HW220923   1.979   8.523  11.241 -1.5806  1.2420  1.0311
 4688SOL     OW20924  10.967  11.667   2.871 -0.3315 -0.5975 -0.1274
 4688SOL    HW120925  11.056  11.637   2.852 -0.9893 -2.5791 -0.3319
 4688SOL    HW220926  10.979  11.742   2.929  1.4750 -1.1793  0.3252
 4689SOL     OW20927   9.079  10.758   8.298 -0.7819  0.1690  0.4313
 4689SOL    HW120928   9.026  10.743   8.219 -0.8884  0.2757  0.4817
 4689SOL    HW220929   9.085  10.853   8.304 -0.8636  0.1631  0.6115
 4690SOL     OW20930   3.987   7.006   1.863  0.1240  1.2157  0.4138
 4690SOL    HW120931   4.037   7.063   1.805 -0.2288  0.6851 -0.4318
 4690SOL    HW220932   4.012   6.918   1.837 -0.2570  0.9684  0.8817
 4691SOL     OW20933   0.355   8.717  12.469  0.0081 -0.3878 -0.0797
 4691SOL    HW120934   0.413   8.646  12.494 -0.3557 -0.2877  1.1044
 4691SOL    HW220935   0.323   8.693  12.382  0.5477 -1.2432 -0.0451
 4692SOL     OW20936   9.709  11.377   0.289  0.3056 -0.0238  0.0466
 4692SOL    HW120937   9.723  11.297   0.237  1.5230  0.7414 -0.8586
 4692SOL    HW220938   9.782  11.434   0.265 -1.2823  1.9366 -0.4132
 4693SOL     OW20939   4.056   2.519  12.067 -0.6684 -0.8388 -0.7477
 4693SOL    HW120940   3.975   2.536  12.018 -0.2213 -2.0976 -1.9825
 4693SOL    HW220941   4.125   2.555  12.012 -0.2659 -1.1124 -0.4268
 4694SOL     OW20942   1.357  10.974   2.212  0.0714 -0.3741  0.1842
 4694SOL    HW120943   1.446  11.006   2.226 -0.2261  0.3270  0.5241
 4694SOL    HW220944   1.323  11.026   2.140 -0.3108 -0.1390  0.5334
 4695SOL     OW20945   7.206   6.397   9.072  0.0589  0.0829 -0.0041
 4695SOL    HW120946   7.151   6.415   8.996 -1.8107 -1.4034  0.9080
 4695SOL    HW220947   7.250   6.314   9.050 -0.8784 -0.6220  0.6830
 4696SOL     OW20948   9.476   4.554  12.390  0.4500 -0.0841 -0.2440
 4696SOL    HW120949   9.466   4.632  12.444 -0.9143  0.4861 -1.2730
 4696SOL    HW220950   9.569   4.532  12.397  0.8322  1.5502  0.1791
 4697SOL     OW20951   1.976   4.695  11.447  0.0931  0.6977 -0.3354
 4697SOL    HW120952   2.029   4.718  11.524 -1.1713  1.0264  0.4677
 4697SOL    HW220953   1.891   4.735  11.464 -0.3002  0.5159 -1.7849
 4698SOL     OW20954  10.415   2.072  12.337 -0.0913  0.1753  0.2192
 4698SOL    HW120955  10.405   2.157  12.294 -1.3226 -0.0197  0.0733
 4698SOL    HW220956  10.380   2.009  12.274  0.8287 -0.4461  0.3214
 4699SOL     OW20957   3.668   9.199   9.945  0.1355 -0.6703  0.3434
 4699SOL    HW120958   3.714   9.190   9.861  3.6342  0.5128  1.9124
 4699SOL    HW220959   3.637   9.111   9.965  0.9963 -1.3986 -1.2883
 4700SOL     OW20960   3.687   5.214   8.862 -0.2088 -0.2692 -0.4732
 4700SOL    HW120961   3.604   5.252   8.890  0.2096  0.7151 -0.5099
 4700SOL    HW220962   3.702   5.251   8.775  0.1076 -0.7053 -0.6086
 4701SOL     OW20963  11.249   1.383  11.544 -1.0610  0.6033  0.2203
 4701SOL    HW120964  11.240   1.361  11.451  2.0457  0.0885 -0.0593
 4701SOL    HW220965  11.253   1.479  11.545 -1.3900  0.6260 -0.1403
 4702SOL     OW20966   1.004   7.680   4.968  0.3098  0.5926  0.5688
 4702SOL    HW120967   0.950   7.611   4.931 -2.2474  1.7231  1.9186
 4702SOL    HW220968   1.055   7.637   5.037  0.2047 -0.2894  0.1003
 4703SOL     OW20969   8.156   0.461   1.495 -0.2627  0.5822 -0.3841
 4703SOL    HW120970   8.186   0.449   1.585 -0.5880  1.2490 -0.1779
 4703SOL    HW220971   8.233   0.441   1.441  0.0126  0.4557  0.0520
 4704SOL     OW20972   6.897   0.440  12.101 -0.5296  0.2694  0.1668
 4704SOL    HW120973   6.959   0.506  12.071 -0.7390 -0.1457 -1.2533
 4704SOL    HW220974   6.814   0.465  12.062 -1.4286  1.0612  2.3875
 4705SOL     OW20975   2.456   7.207   0.493  0.5542  0.1352 -0.6199
 4705SOL    HW120976   2.453   7.294   0.532 -1.4576 -0.8418  1.6715
 4705SOL    HW220977   2.470   7.148   0.567 -0.7267 -1.6659 -1.7152
 4706SOL     OW20978   8.455  11.718   8.382  0.2331 -0.5360  0.5781
 4706SOL    HW120979   8.413  11.658   8.320  1.0944 -0.7973  0.2229
 4706SOL    HW220980   8.392  11.788   8.395  0.4992  0.1907 -1.5755
 4707SOL     OW20981   7.114   9.446   8.510  0.2465  0.3113  0.1391
 4707SOL    HW120982   7.053   9.519   8.520  0.0663 -0.0033  1.6108
 4707SOL    HW220983   7.185   9.466   8.570  0.6292 -0.2939 -0.1017
 4708SOL     OW20984  11.373   7.037   0.962  0.5534  0.5939  0.4415
 4708SOL    HW120985  11.341   6.956   0.924  1.1348 -0.4293  2.0344
 4708SOL    HW220986  11.306   7.062   1.026  1.3606  0.1568  1.5028
 4709SOL     OW20987   1.653   7.694  10.838  0.0582  0.2993  0.0264
 4709SOL    HW120988   1.726   7.756  10.831  0.7755 -0.5762 -0.4576
 4709SOL    HW220989   1.578   7.748  10.861  0.4712  1.4994 -1.3223
 4710SOL     OW20990   5.494  11.858   8.182  0.0147  0.0179  0.2931
 4710SOL    HW120991   5.484  11.832   8.091 -0.2548 -1.8031  0.8046
 4710SOL    HW220992   5.445  11.792   8.231 -0.9250  1.6651  1.6963
 4711SOL     OW20993  10.813   5.888  10.905  0.0085  0.1486  0.5147
 4711SOL    HW120994  10.802   5.793  10.896  0.6974  0.1427 -0.3415
 4711SOL    HW220995  10.843   5.917  10.819  3.2539  0.6448  1.6710
 4712SOL     OW20996   3.803   4.739   6.395  0.6643  0.4059  0.0398
 4712SOL    HW120997   3.785   4.653   6.431  1.7368 -0.7728 -2.0347
 4712SOL    HW220998   3.792   4.799   6.468 -1.7694 -1.2758  1.1647
 4713SOL     OW20999   7.504   4.985   6.769 -0.1129  0.4471  0.1113
 4713SOL    HW121000   7.421   4.940   6.778 -0.3707  1.0457  0.9032
 4713SOL    HW221001   7.570   4.917   6.779 -0.5037  0.0614  0.0624
 4714SOL     OW21002   9.850  10.351   4.285  0.2677  0.0527 -0.3849
 4714SOL    HW121003   9.822  10.323   4.373  2.7173 -1.2334  0.0533
 4714SOL    HW221004   9.793  10.426   4.266 -0.3502  0.3957  2.3030
 4715SOL     OW21005   0.430   9.532   8.211  0.1566 -0.3543 -0.4622
 4715SOL    HW121006   0.456   9.455   8.262 -1.6180 -0.4061  0.4610
 4715SOL    HW221007   0.421   9.602   8.277 -0.6532 -0.0089 -0.9346
 4716SOL     OW21008   2.718  10.034   2.174 -0.1276 -0.1378  0.2441
 4716SOL    HW121009   2.802  10.028   2.130 -0.5021  1.3873 -0.7546
 4716SOL    HW221010   2.698  10.128   2.175  0.4817  0.1761  4.9293
 4717SOL     OW21011   7.615   9.918   1.461  0.0246  0.5262 -0.1472
 4717SOL    HW121012   7.583  10.005   1.486  0.4445  0.9982 -1.1867
 4717SOL    HW221013   7.667   9.933   1.382  0.2541 -0.6512 -0.2442
 4718SOL     OW21014   3.353   3.076   5.151  0.3420 -0.1637 -0.0264
 4718SOL    HW121015   3.433   3.101   5.196  0.5575 -0.4213 -0.2659
 4718SOL    HW221016   3.289   3.142   5.178  0.4596 -0.3311  0.6703
 4719SOL     OW21017   3.177  11.051   0.329  0.2640  1.2123 -0.2120
 4719SOL    HW121018   3.268  11.069   0.305 -0.3322  3.3585 -1.1563
 4719SOL    HW221019   3.181  11.022   0.420  1.8677  1.5471 -0.1428
 4720SOL     OW21020   0.350   5.237   1.501 -0.1686  0.3864  0.2101
 4720SOL    HW121021   0.329   5.208   1.590 -1.1809  0.1416 -0.0944
 4720SOL    HW221022   0.345   5.158   1.448  0.8040  0.4665 -0.0113
 4721SOL     OW21023  12.192   7.782   3.297  0.3101  0.2496 -0.3560
 4721SOL    HW121024  12.270   7.774   3.243  0.1352  1.4415 -0.8169
 4721SOL    HW221025  12.134   7.841   3.248 -0.8692 -0.5900 -0.0138
 4722SOL     OW21026   7.701   8.209  11.365 -0.4447 -0.0836 -0.2622
 4722SOL    HW121027   7.732   8.299  11.356 -0.2702  0.1105  1.7825
 4722SOL    HW221028   7.662   8.188  11.280 -0.2891  1.8398 -0.8469
 4723SOL     OW21029   4.507   5.577   1.594  0.2463 -0.2715  0.2738
 4723SOL    HW121030   4.549   5.554   1.512 -1.3228 -0.1360 -0.5977
 4723SOL    HW221031   4.514   5.673   1.598 -2.3355  0.0800 -1.2829
 4724SOL     OW21032   5.993   7.968   1.839 -0.1723  1.0284  0.2012
 4724SOL    HW121033   6.002   7.928   1.753  0.5743  0.5502  0.4902
 4724SOL    HW221034   6.042   8.050   1.833  1.2829  0.2261  0.6364
 4725SOL     OW21035   9.677   8.054   3.371  0.1391 -0.1074 -0.3801
 4725SOL    HW121036   9.677   8.067   3.466 -1.4855 -1.1823 -0.1779
 4725SOL    HW221037   9.598   8.100   3.341  1.0086  0.8049 -1.3261
 4726SOL     OW21038   9.229   7.556   7.539  0.0051 -0.0846  0.1317
 4726SOL    HW121039   9.272   7.472   7.555  1.3339  0.0017 -2.4696
 4726SOL    HW221040   9.298   7.621   7.550 -0.7140  0.5683  0.9155
 4727SOL     OW21041   7.834   3.682   5.256 -0.7573 -0.3485 -0.6347
 4727SOL    HW121042   7.862   3.596   5.289 -0.2957 -0.1828 -0.5857
 4727SOL    HW221043   7.849   3.678   5.162 -2.0953 -0.8283 -0.8482
 4728SOL     OW21044   9.840   6.060   7.982  0.6914  0.0538 -0.4907
 4728SOL    HW121045   9.756   6.063   7.937  0.0249 -1.0026  0.6182
 4728SOL    HW221046   9.827   5.997   8.053  0.7394  3.5242  2.9779
 4729SOL     OW21047   1.324   8.285  11.389  0.3064 -0.3442 -0.1394
 4729SOL    HW121048   1.380   8.240  11.452 -1.4700 -1.2346  0.8580
 4729SOL    HW221049   1.384   8.345  11.343  2.1479 -1.5839  0.5323
 4730SOL     OW21050   5.673   8.013   2.526 -0.5250  0.2126 -0.3362
 4730SOL    HW121051   5.718   7.967   2.597 -0.2349  0.5250 -0.3123
 4730SOL    HW221052   5.583   7.981   2.530 -0.5071  0.2175  0.1628
 4731SOL     OW21053   8.702   7.925   9.575  0.7302  0.4349 -0.1388
 4731SOL    HW121054   8.690   7.979   9.653 -1.6933 -0.6726  0.3569
 4731SOL    HW221055   8.684   7.985   9.502  0.4799  0.8827  0.2832
 4732SOL     OW21056   8.469  10.964   5.795  0.0950 -0.3575 -0.3436
 4732SOL    HW121057   8.538  11.029   5.780  0.4737 -0.4302  0.9930
 4732SOL    HW221058   8.410  10.975   5.720 -0.4335  2.2816  0.3549
 4733SOL     OW21059   9.722   6.159   2.198 -0.2300  0.2028 -0.2549
 4733SOL    HW121060   9.689   6.247   2.183 -0.6768 -0.0026 -0.5017
 4733SOL    HW221061   9.722   6.149   2.293 -2.8451 -0.4985 -0.2350
 4734SOL     OW21062  10.717   0.297   5.717 -0.2463 -0.4019  0.1324
 4734SOL    HW121063  10.695   0.384   5.686 -0.3958 -0.7899 -0.9015
 4734SOL    HW221064  10.636   0.247   5.708  0.2095 -1.0210 -0.7117
 4735SOL     OW21065   0.932   5.538   6.386 -0.3845  0.0006 -0.3012
 4735SOL    HW121066   0.889   5.474   6.444 -2.0028  1.1878 -0.1210
 4735SOL    HW221067   0.871   5.611   6.382 -0.0580  0.2235 -3.0633
 4736SOL     OW21068   2.463   6.334   0.823  0.3459  0.0061 -0.0086
 4736SOL    HW121069   2.434   6.258   0.771  0.2292  0.5602 -0.7800
 4736SOL    HW221070   2.390   6.352   0.882  0.0838 -0.0638 -0.3052
 4737SOL     OW21071   0.573   1.852   0.989  0.1084 -0.6187  0.1342
 4737SOL    HW121072   0.606   1.774   1.033  0.0409 -0.8195 -0.1654
 4737SOL    HW221073   0.519   1.896   1.055 -0.3591 -1.1526  0.1103
 4738SOL     OW21074   3.334  11.690   8.863 -0.0655  0.5915 -0.0871
 4738SOL    HW121075   3.372  11.627   8.801 -1.0984  0.4683 -0.6141
 4738SOL    HW221076   3.262  11.729   8.815 -0.6366  0.7824  0.9149
 4739SOL     OW21077  11.901   0.207  11.125  0.0155 -0.6144 -0.3168
 4739SOL    HW121078  11.887   0.281  11.184  0.0022 -1.1422  0.3527
 4739SOL    HW221079  11.906   0.247  11.038  0.3934  0.2150  0.0690
 4740SOL     OW21080   9.625   9.015   1.992  0.1491 -0.1389  0.4361
 4740SOL    HW121081   9.588   9.005   2.080 -0.7912 -1.7143 -0.1070
 4740SOL    HW221082   9.550   9.005   1.933  0.9156 -0.0372 -0.5820
 4741SOL     OW21083   9.808   8.489   1.462 -0.4541 -0.2156 -0.0627
 4741SOL    HW121084   9.856   8.500   1.544 -0.4011 -0.9729  0.0142
 4741SOL    HW221085   9.877   8.489   1.395 -0.2023 -2.2174  0.1181
 4742SOL     OW21086   0.548   8.516  12.466 -0.0515 -0.8105  0.0525
 4742SOL    HW121087   0.579   8.440  12.418 -0.3636 -1.9845  1.6352
 4742SOL    HW221088   0.599   8.589  12.431  0.9869 -1.9005 -0.7903
 4743SOL     OW21089  11.975  10.772   7.185  0.0967  0.2698 -0.7266
 4743SOL    HW121090  11.974  10.695   7.129 -0.0349 -0.3917  0.1510
 4743SOL    HW221091  11.886  10.806   7.180 -0.2575 -0.4956  0.0000
 4744SOL     OW21092   0.739   4.303   1.596 -0.2945  0.4660 -0.5844
 4744SOL    HW121093   0.689   4.322   1.516 -1.5443  0.7951  0.2380
 4744SOL    HW221094   0.676   4.316   1.667  0.7988  0.2168  0.4662
 4745SOL     OW21095  11.231  10.612   0.754  0.5570 -0.0295 -0.1560
 4745SOL    HW121096  11.241  10.707   0.742  2.1210 -0.2820 -1.0473
 4745SOL    HW221097  11.244  10.575   0.667  0.9047 -1.1358  0.3426
 4746SOL     OW21098   7.448  12.458   9.416  0.6478 -0.0301  0.5215
 4746SOL    HW121099   7.446  12.530   9.480  0.6373 -0.1632  0.6720
 4746SOL    HW221100   7.515  12.484   9.353  1.5467 -0.4672  1.2585
 4747SOL     OW21101   8.562   2.112   5.944  0.1472 -0.6709 -0.0139
 4747SOL    HW121102   8.536   2.119   5.852 -1.2895  0.8275  0.4542
 4747SOL    HW221103   8.551   2.020   5.966 -2.8512 -0.4923 -0.4385
 4748SOL     OW21104   3.707   9.186  10.480 -0.0213  0.0184 -0.0797
 4748SOL    HW121105   3.688   9.279  10.474 -2.2680 -0.2320  1.6342
 4748SOL    HW221106   3.646   9.145  10.419 -2.1494 -0.5156  2.2190
 4749SOL     OW21107   3.779   6.682   1.882 -0.0027  0.2034 -0.0493
 4749SOL    HW121108   3.874   6.672   1.873  0.1350  0.0557  1.4274
 4749SOL    HW221109   3.753   6.728   1.802  1.5665  1.9669  0.3828
 4750SOL     OW21110   8.361   5.040   8.667 -0.5736  0.3654 -0.1257
 4750SOL    HW121111   8.388   5.095   8.594  1.5916  0.0388  0.3631
 4750SOL    HW221112   8.381   5.091   8.745 -1.2530  0.0307  0.2770
 4751SOL     OW21113   6.148   9.997   3.456  0.0675  0.3031  0.1356
 4751SOL    HW121114   6.093  10.073   3.477  0.5345  0.6672  0.0435
 4751SOL    HW221115   6.168  10.008   3.363 -0.1532 -0.1218  0.0362
 4752SOL     OW21116  12.440   4.254   3.937  0.5178  0.0407  0.2207
 4752SOL    HW121117  12.514   4.249   3.876 -0.9837 -0.0096 -1.7224
 4752SOL    HW221118  12.464   4.322   3.999  1.5178  1.2239 -1.3850
 4753SOL     OW21119   9.416   7.718  11.610  0.3984 -0.0641 -0.3053
 4753SOL    HW121120   9.439   7.810  11.615 -1.9406  0.9850 -4.5541
 4753SOL    HW221121   9.497   7.673  11.585  1.2929  0.9614  0.6884
 4754SOL     OW21122   4.665   1.610   4.811 -0.0717  0.1735  0.0452
 4754SOL    HW121123   4.696   1.680   4.755  1.2087 -1.6876 -1.7421
 4754SOL    HW221124   4.572   1.627   4.824  0.2479  2.2407 -0.1874
 4755SOL     OW21125  12.149   8.797   1.211 -0.4110 -0.1738 -0.3851
 4755SOL    HW121126  12.179   8.706   1.212 -1.1406 -0.4315  1.3518
 4755SOL    HW221127  12.227   8.849   1.229 -0.4357 -0.6568  1.3049
 4756SOL     OW21128   6.889   8.754   2.519  0.1011 -0.2810  0.0324
 4756SOL    HW121129   6.967   8.784   2.471 -0.4775  0.8186 -0.2540
 4756SOL    HW221130   6.816   8.771   2.460 -0.5632  0.5162  1.0318
 4757SOL     OW21131   4.139   5.196   3.907  0.2037 -0.2295  0.4142
 4757SOL    HW121132   4.101   5.284   3.900  0.8259 -0.0107 -0.3302
 4757SOL    HW221133   4.089   5.144   3.844  0.8303 -0.0483 -0.2375
 4758SOL     OW21134   5.617   1.717  10.200  0.4394  0.3551 -0.3093
 4758SOL    HW121135   5.683   1.753  10.260  0.4178 -0.5841  0.2945
 4758SOL    HW221136   5.647   1.628  10.183 -1.8994 -1.0033  1.9401
 4759SOL     OW21137   4.267   4.352   0.448 -0.3561  0.0989  0.1450
 4759SOL    HW121138   4.308   4.418   0.392 -0.5295 -0.6672 -0.9215
 4759SOL    HW221139   4.177   4.383   0.459 -0.7742 -0.4916 -1.3043
 4760SOL     OW21140   0.780   4.489  10.141  0.0604  0.2371  0.2659
 4760SOL    HW121141   0.711   4.526  10.196  0.2295 -0.4395  0.9559
 4760SOL    HW221142   0.844   4.454  10.203  0.9653  0.7279 -0.3660
 4761SOL     OW21143   2.502   2.589  12.393  0.3150  0.1586  0.1896
 4761SOL    HW121144   2.407   2.591  12.409  0.2020  2.1734 -0.4139
 4761SOL    HW221145   2.540   2.632  12.469  0.7862 -0.8131  0.5184
 4762SOL     OW21146   6.102   2.990   0.159 -0.3433 -0.0199 -0.0454
 4762SOL    HW121147   6.158   3.031   0.225  0.0336 -0.5621 -0.0246
 4762SOL    HW221148   6.014   2.995   0.197 -0.4494  1.5145 -0.4047
 4763SOL     OW21149   6.271   7.299   1.167  1.0159  0.0695  0.0664
 4763SOL    HW121150   6.290   7.206   1.153  0.9065  0.1788 -0.9285
 4763SOL    HW221151   6.304   7.342   1.088  0.1726  0.7465  0.0641
 4764SOL     OW21152  12.191  11.684   5.778 -0.1830 -0.3073 -0.0058
 4764SOL    HW121153  12.280  11.697   5.811 -0.5948 -0.9112  1.4164
 4764SOL    HW221154  12.165  11.770   5.746  0.4886  0.1562  0.6517
 4765SOL     OW21155   7.922   6.291   9.558 -0.4696  0.1835 -0.0345
 4765SOL    HW121156   7.936   6.272   9.465  1.8270 -0.2900  0.3549
 4765SOL    HW221157   7.985   6.360   9.578  0.0234 -0.6461  1.4538
 4766SOL     OW21158   9.105   1.015   1.876 -0.6496  0.5325  0.1047
 4766SOL    HW121159   9.148   1.100   1.876  0.1250  0.1585  1.0063
 4766SOL    HW221160   9.177   0.952   1.876 -1.1776 -0.1142  1.7156
 4767SOL     OW21161   8.555   8.002   9.854 -0.1508  0.5552 -0.3780
 4767SOL    HW121162   8.622   8.001   9.922  0.7571  0.8538 -1.2452
 4767SOL    HW221163   8.472   8.001   9.902  0.4423  2.1464  0.7635
 4768SOL     OW21164   1.744   4.005   2.937  0.4523 -0.1067  0.2239
 4768SOL    HW121165   1.799   3.974   3.009  1.1151  0.5380  0.0056
 4768SOL    HW221166   1.805   4.047   2.876  0.1087 -1.8332 -1.4084
 4769SOL     OW21167   6.518   3.385   6.168  0.1375  0.3948  0.9142
 4769SOL    HW121168   6.584   3.375   6.236  1.2430 -0.1419 -0.2049
 4769SOL    HW221169   6.501   3.479   6.164  0.7207  0.5216  1.3360
 4770SOL     OW21170   5.332   3.138   8.851 -0.3665  0.2514 -0.1819
 4770SOL    HW121171   5.246   3.156   8.888 -0.6630  0.2083 -0.8418
 4770SOL    HW221172   5.372   3.225   8.841 -0.4058  0.2846 -0.0499
 4771SOL     OW21173   7.084   8.519  10.770  0.2577 -0.1193  0.1533
 4771SOL    HW121174   7.139   8.597  10.767 -0.4961  0.5549  2.2663
 4771SOL    HW221175   7.028   8.527  10.692  0.2399  1.4451  0.2871
 4772SOL     OW21176   8.788   3.192   2.048 -0.1411  0.1946 -0.6470
 4772SOL    HW121177   8.863   3.155   2.001  1.3975  0.6285  1.3190
 4772SOL    HW221178   8.774   3.277   2.006  0.4539  0.0964 -1.0669
 4773SOL     OW21179   8.074   0.610   4.073  0.7260 -0.4619  0.5619
 4773SOL    HW121180   8.070   0.574   4.162  2.2452 -1.5616  0.2229
 4773SOL    HW221181   8.133   0.551   4.026  1.6946  1.3307 -0.5869
 4774SOL     OW21182  11.218   7.420  11.774 -0.4740  0.2430 -0.1991
 4774SOL    HW121183  11.263   7.421  11.690 -0.6176  1.3210 -0.2656
 4774SOL    HW221184  11.227   7.509  11.808 -0.2331 -0.2249  1.0273
 4775SOL     OW21185   5.149   2.646   7.211  0.1193  0.1703 -0.0061
 4775SOL    HW121186   5.121   2.728   7.253 -0.3908  0.3017 -0.5823
 4775SOL    HW221187   5.121   2.656   7.120  0.3522 -0.5130 -0.1537
 4776SOL     OW21188   6.409   3.422   0.231  0.3633  0.8498 -0.3729
 4776SOL    HW121189   6.370   3.504   0.261 -1.3318  0.0179 -0.1381
 4776SOL    HW221190   6.473   3.399   0.299  0.2517  1.5680 -0.0210
 4777SOL     OW21191   9.441   6.613   8.294  0.2368 -0.1797  0.0441
 4777SOL    HW121192   9.483   6.527   8.289  0.6031  0.0284 -0.5362
 4777SOL    HW221193   9.364   6.606   8.237  1.0012  0.2810 -1.0717
 4778SOL     OW21194   6.992  10.642   2.057  0.2856  0.5440 -0.2403
 4778SOL    HW121195   6.997  10.633   2.152  2.7889 -1.4024 -0.4397
 4778SOL    HW221196   6.899  10.655   2.039 -0.1959  1.7005  2.4896
 4779SOL     OW21197   0.628   5.352   6.332  0.2891  0.2659 -0.1902
 4779SOL    HW121198   0.692   5.343   6.402  0.8878  0.2512 -0.7299
 4779SOL    HW221199   0.548   5.382   6.376 -0.0513 -1.9654  0.8534
 4780SOL     OW21200   9.615   0.014   5.469 -0.2863  0.0661  0.3995
 4780SOL    HW121201   9.684   0.062   5.515 -0.6826 -0.6283  1.7960
 4780SOL    HW221202   9.539   0.073   5.472  0.0814  0.6215 -0.6896
 4781SOL     OW21203   3.780   4.323   5.520  0.4626  0.0788 -0.4093
 4781SOL    HW121204   3.709   4.304   5.459  1.2195  0.4002 -1.4329
 4781SOL    HW221205   3.738   4.364   5.595 -0.7198 -1.9103  0.0908
 4782SOL     OW21206  11.748  10.165   4.362 -0.4690 -0.3886 -0.2093
 4782SOL    HW121207  11.734  10.135   4.452  0.0037 -2.2593 -0.7130
 4782SOL    HW221208  11.783  10.089   4.316 -0.4049  0.6087 -1.9245
 4783SOL     OW21209   8.782   4.970  10.624 -0.2694  0.1801  0.5285
 4783SOL    HW121210   8.812   5.026  10.696 -0.1417  0.4758  0.2476
 4783SOL    HW221211   8.836   4.996  10.549 -1.8682  1.4381 -0.2628
 4784SOL     OW21212   3.196   9.481   2.454  0.0691 -0.0495  0.1655
 4784SOL    HW121213   3.102   9.500   2.453 -0.1920 -1.2510 -0.1973
 4784SOL    HW221214   3.209   9.433   2.536  0.6183  1.2292  0.8454
 4785SOL     OW21215   4.327   5.970   5.196 -0.1623  0.0195 -0.0206
 4785SOL    HW121216   4.342   6.002   5.285  0.3172 -0.2152 -0.0102
 4785SOL    HW221217   4.412   5.935   5.169 -1.0079 -2.6170  0.5220
 4786SOL     OW21218   0.235   9.418  11.679  0.0479  0.9979 -0.4615
 4786SOL    HW121219   0.175   9.442  11.750  0.4560  2.2294 -0.5121
 4786SOL    HW221220   0.184   9.358  11.624 -0.6152  0.8245  0.3212
 4787SOL     OW21221   7.206  10.308   9.009  0.0557  0.2700 -0.4234
 4787SOL    HW121222   7.235  10.392   9.044  1.0499 -0.6608  1.1126
 4787SOL    HW221223   7.146  10.331   8.937 -0.5147  2.2704  0.6190
 4788SOL     OW21224   3.204   9.107   7.653 -0.7138  0.0920 -0.5009
 4788SOL    HW121225   3.233   9.138   7.567  1.8045  0.8224  0.5454
 4788SOL    HW221226   3.265   9.037   7.676 -1.2758 -0.0200  0.7454
 4789SOL     OW21227   8.868  11.193   0.763  0.4626 -0.1704  0.0706
 4789SOL    HW121228   8.913  11.135   0.824  5.3187 -0.2814 -3.0957
 4789SOL    HW221229   8.852  11.140   0.686 -0.6660  1.2268 -0.7093
 4790SOL     OW21230   3.658   7.757   2.986 -0.1953 -0.0129 -0.0229
 4790SOL    HW121231   3.577   7.802   2.964  0.3279  1.4939  0.9818
 4790SOL    HW221232   3.647   7.728   3.076  0.5754  0.6767  0.3018
 4791SOL     OW21233  11.323   9.840   2.722  0.1903 -0.2614  0.4821
 4791SOL    HW121234  11.258   9.911   2.726 -0.1899 -0.6464  1.2669
 4791SOL    HW221235  11.301   9.782   2.795  0.2981 -1.3668 -0.3295
 4792SOL     OW21236  10.135   7.604   2.754  0.2278 -0.4714  0.1144
 4792SOL    HW121237  10.140   7.514   2.720 -0.6392 -0.5158  0.0643
 4792SOL    HW221238  10.042   7.617   2.771 -0.0457  1.2851 -2.2073
 4793SOL     OW21239   0.448   4.964   7.484  0.4248 -0.0123  0.4810
 4793SOL    HW121240   0.539   4.990   7.497  0.1879  1.0180  0.1524
 4793SOL    HW221241   0.416   4.943   7.572  0.2979  1.9633  0.9607
 4794SOL     OW21242  11.633   7.842   3.732 -0.3533 -0.3626 -0.0856
 4794SOL    HW121243  11.693   7.817   3.662 -1.2043 -1.7810 -0.3586
 4794SOL    HW221244  11.598   7.927   3.706  0.3382 -0.2580 -0.6982
 4795SOL     OW21245   1.434   1.630   6.104  0.1412 -0.3597  0.1238
 4795SOL    HW121246   1.344   1.661   6.111 -0.0894 -1.0956  0.4690
 4795SOL    HW221247   1.446   1.614   6.011  0.5457  1.5517 -0.1980
 4796SOL     OW21248   2.044   3.144   4.903  0.2752 -0.3994 -0.7054
 4796SOL    HW121249   1.973   3.206   4.886 -0.0477 -0.6888 -0.4175
 4796SOL    HW221250   2.029   3.073   4.841  1.0435  0.1190 -1.5170
 4797SOL     OW21251   1.257   5.832   0.909 -0.3710 -0.1827  0.1979
 4797SOL    HW121252   1.237   5.768   0.841 -0.6452  0.7869 -0.6685
 4797SOL    HW221253   1.189   5.899   0.898  1.3376  1.5166 -0.5949
 4798SOL     OW21254   3.912   8.475  11.056 -0.8193 -0.3662  0.8855
 4798SOL    HW121255   3.954   8.400  11.098 -0.0505  0.0751  0.9088
 4798SOL    HW221256   3.973   8.547  11.067 -0.9158 -0.0650 -0.3590
 4799SOL     OW21257   2.191  12.373   1.587 -0.3907 -0.6465  0.2828
 4799SOL    HW121258   2.156  12.462   1.579 -0.6468 -0.8046 -0.4017
 4799SOL    HW221259   2.265  12.370   1.527 -0.6878 -1.0447 -0.0655
 4800SOL     OW21260   2.091   5.292   7.083 -0.2991 -0.3214  0.5734
 4800SOL    HW121261   2.069   5.225   7.147 -0.2202  0.4533  1.4396
 4800SOL    HW221262   2.119   5.243   7.006  0.7548 -1.3008  1.5223
 4801SOL     OW21263   5.806  11.016   7.952  0.1643 -0.4481  0.0840
 4801SOL    HW121264   5.739  11.078   7.925  1.0874  0.5225 -0.0287
 4801SOL    HW221265   5.886  11.046   7.908  1.5279  0.6103  3.0457
 4802SOL     OW21266   0.797   5.002   8.059  0.0333  0.1568 -0.1521
 4802SOL    HW121267   0.762   4.928   8.109  2.3093 -0.5511  0.5019
 4802SOL    HW221268   0.734   5.072   8.073 -1.0398 -0.9951  1.0675
 4803SOL     OW21269   8.500   1.325  11.949 -0.3068  0.4070 -0.5240
 4803SOL    HW121270   8.416   1.280  11.940 -0.9492  1.8337 -2.3197
 4803SOL    HW221271   8.544   1.279  12.021 -3.9353  1.6655  2.8362
 4804SOL     OW21272  10.406   7.543   0.217 -0.3681 -0.3004 -0.0333
 4804SOL    HW121273  10.498   7.528   0.196 -0.8393 -0.9106 -1.9184
 4804SOL    HW221274  10.407   7.603   0.291  1.5471 -1.4823  0.9661
 4805SOL     OW21275   0.662   3.922   3.838 -0.7407  0.5252  0.1591
 4805SOL    HW121276   0.745   3.934   3.791 -1.6078 -0.3040 -1.6764
 4805SOL    HW221277   0.688   3.885   3.922  0.6898 -1.5566 -1.0825
 4806SOL     OW21278  12.421  11.016   3.848 -0.2163  0.5312  0.0274
 4806SOL    HW121279  12.354  10.990   3.784 -0.7454 -1.5356  1.3124
 4806SOL    HW221280  12.372  11.050   3.922  0.2089  0.2215  0.4590
 4807SOL     OW21281   3.411   4.945   1.558  0.2613  0.5927  0.1619
 4807SOL    HW121282   3.406   4.884   1.632 -1.0563 -0.7371 -0.9696
 4807SOL    HW221283   3.477   4.907   1.500 -1.3372 -0.4344 -1.0677
 4808SOL     OW21284   0.850   8.788   6.692  0.1044 -0.8598  0.3574
 4808SOL    HW121285   0.830   8.730   6.766 -0.9458  0.2871  1.0195
 4808SOL    HW221286   0.922   8.745   6.646 -1.0536 -2.9974  0.4290
 4809SOL     OW21287  11.081   4.736   8.267  0.6533 -0.0726 -0.2813
 4809SOL    HW121288  11.045   4.823   8.282  0.6832  0.0718 -1.0462
 4809SOL    HW221289  11.113   4.737   8.177 -1.0841 -1.4618 -0.9759
 4810SOL     OW21290  10.512   0.396  10.682  0.1455 -0.4606 -0.1601
 4810SOL    HW121291  10.431   0.422  10.638 -0.2801 -2.3267 -0.5851
 4810SOL    HW221292  10.582   0.421  10.621 -0.1289  0.6498 -0.0426
 4811SOL     OW21293  10.756   2.425   2.557 -0.5067  0.0790  0.2073
 4811SOL    HW121294  10.776   2.501   2.612 -1.4113 -0.0163  0.6877
 4811SOL    HW221295  10.773   2.455   2.468 -0.7140  0.7971  0.4068
 4812SOL     OW21296   3.730   8.860   6.834  0.5977 -0.8532  0.0619
 4812SOL    HW121297   3.819   8.896   6.836  0.1375  0.3392  0.5635
 4812SOL    HW221298   3.725   8.811   6.752  1.1764  0.5662 -0.8617
 4813SOL     OW21299  10.701  11.617   4.211 -0.5070  0.0386 -0.3810
 4813SOL    HW121300  10.776  11.646   4.264  0.3505  1.1962 -2.1166
 4813SOL    HW221301  10.638  11.689   4.217 -1.3892 -0.7904  0.8069
 4814SOL     OW21302   0.396  12.443   0.299 -0.0546 -0.0609  0.0717
 4814SOL    HW121303   0.343  12.364   0.308  0.3268 -0.3875 -0.4342
 4814SOL    HW221304   0.402  12.457   0.204  0.3829  0.2253  0.1377
 4815SOL     OW21305   8.190   4.547   1.371 -0.1456  0.1313 -0.5014
 4815SOL    HW121306   8.227   4.635   1.368  0.5912 -0.1473  0.1119
 4815SOL    HW221307   8.263   4.491   1.395 -1.2020 -0.2871  2.0309
 4816SOL     OW21308   9.651   1.522   5.666 -0.1941 -0.1650  0.3196
 4816SOL    HW121309   9.686   1.528   5.755  1.9252  0.0765 -0.4636
 4816SOL    HW221310   9.657   1.611   5.632 -0.4856 -0.3478 -0.2200
 4817SOL     OW21311   1.617   8.843   2.153  0.3169  0.0208 -0.3002
 4817SOL    HW121312   1.613   8.894   2.234  0.3671  1.7228 -1.3184
 4817SOL    HW221313   1.528   8.846   2.119  0.2406 -0.9003 -0.2097
 4818SOL     OW21314   4.277   1.579  10.567  0.0413  0.4843 -0.3985
 4818SOL    HW121315   4.217   1.524  10.616 -0.8313  1.9659  0.2719
 4818SOL    HW221316   4.235   1.592  10.482 -0.8752  1.8792  0.2216
 4819SOL     OW21317   1.444   8.758   5.021 -0.1690 -0.0953 -0.0731
 4819SOL    HW121318   1.451   8.688   4.956 -1.7205 -0.8257  0.4980
 4819SOL    HW221319   1.462   8.715   5.104 -0.1895  0.3919  0.1841
 4820SOL     OW21320  11.517   2.071   7.991  0.0730  0.2212 -0.6536
 4820SOL    HW121321  11.441   2.016   7.970 -0.9509  1.9950 -1.9078
 4820SOL    HW221322  11.575   2.062   7.915 -0.1456  0.8786 -0.9141
 4821SOL     OW21323  11.058   0.935   0.553 -0.3753 -0.0733  0.0469
 4821SOL    HW121324  11.040   0.841   0.561  1.2038 -0.4171  0.0737
 4821SOL    HW221325  11.060   0.951   0.458  0.7364 -0.4085 -0.0102
 4822SOL     OW21326   2.277   0.290  10.751 -0.7990  0.4694 -0.0210
 4822SOL    HW121327   2.289   0.346  10.674 -1.1392 -0.6538 -0.9219
 4822SOL    HW221328   2.332   0.214  10.734  0.4904  0.9642  1.6823
 4823SOL     OW21329  10.872  11.992   3.624 -0.2762  0.3278 -0.3285
 4823SOL    HW121330  10.816  12.068   3.637 -0.1583  0.4810 -0.7253
 4823SOL    HW221331  10.815  11.917   3.645  0.4204  0.5816  3.0975
 4824SOL     OW21332   9.370   3.812   8.211 -0.3815 -0.1415  0.1026
 4824SOL    HW121333   9.285   3.836   8.247  0.2193  1.2711  0.6442
 4824SOL    HW221334   9.388   3.725   8.247 -0.2493  0.7953  2.4876
 4825SOL     OW21335   2.000   1.145   1.131  0.6804  0.2022  0.0459
 4825SOL    HW121336   1.933   1.167   1.195  1.0810  0.6260  0.3264
 4825SOL    HW221337   2.013   1.050   1.141  0.7174  0.2631  0.5586
 4826SOL     OW21338  10.312   2.897   2.135 -0.6218  0.1140 -0.1431
 4826SOL    HW121339  10.337   2.807   2.156 -0.2560 -0.2119 -1.8642
 4826SOL    HW221340  10.222   2.904   2.166 -0.2494 -0.4379  1.1253
 4827SOL     OW21341   3.650   8.842   0.159  0.2533  0.1961  0.8008
 4827SOL    HW121342   3.567   8.858   0.204  0.2887 -0.5452  1.1289
 4827SOL    HW221343   3.715   8.835   0.228  0.8075  1.9198  0.4994
 4828SOL     OW21344  10.683  10.535   6.806 -0.2077 -0.2241  0.3772
 4828SOL    HW121345  10.695  10.444   6.834 -2.3843 -1.3429 -1.8827
 4828SOL    HW221346  10.637  10.577   6.879  0.3627 -1.0732  1.2410
 4829SOL     OW21347   0.754   6.206   5.196  0.1335  0.2909 -0.0468
 4829SOL    HW121348   0.760   6.111   5.188 -1.8729  0.2288 -1.3989
 4829SOL    HW221349   0.683   6.221   5.258 -0.4178  0.8914 -0.8065
 4830SOL     OW21350   4.853  10.500   4.413 -0.4716  0.1787 -0.0777
 4830SOL    HW121351   4.861  10.427   4.352  0.9170  0.5017 -0.3235
 4830SOL    HW221352   4.941  10.537   4.417 -0.8697  1.0575  1.0156
 4831SOL     OW21353   1.957   9.508   8.023 -0.5989  0.4227  0.1972
 4831SOL    HW121354   1.963   9.474   7.934  0.1576 -0.4170  0.5483
 4831SOL    HW221355   1.932   9.433   8.076 -1.2641  0.9688  0.6660
 4832SOL     OW21356   7.712   8.283   4.071  0.0913  0.0431 -0.3536
 4832SOL    HW121357   7.630   8.247   4.036 -1.0358  1.9935  0.1166
 4832SOL    HW221358   7.692   8.303   4.163  1.3413 -0.1013 -0.0302
 4833SOL     OW21359   0.573   5.896   9.192 -0.6301 -0.6201 -0.0563
 4833SOL    HW121360   0.552   5.804   9.207  1.2320 -1.3228 -1.3716
 4833SOL    HW221361   0.636   5.895   9.120 -1.3748  1.7750 -0.8411
 4834SOL     OW21362   6.834  11.348   4.242 -0.0210  0.5240  0.3982
 4834SOL    HW121363   6.796  11.322   4.326 -2.9939  0.5525 -0.8005
 4834SOL    HW221364   6.892  11.275   4.219 -0.7481 -0.4622  1.5284
 4835SOL     OW21365  11.830   7.255  10.925  0.0622  0.8387  0.3222
 4835SOL    HW121366  11.764   7.198  10.965 -2.3704  3.0575 -0.2332
 4835SOL    HW221367  11.796   7.272  10.837  3.0858 -0.4590 -1.2219
 4836SOL     OW21368   3.401   0.306   1.235 -0.3239  0.1333  0.1390
 4836SOL    HW121369   3.355   0.389   1.227 -2.1743 -0.6642  1.9143
 4836SOL    HW221370   3.345   0.243   1.190  1.3531 -0.1435 -1.7310
 4837SOL     OW21371  11.076   3.303   0.715 -0.4895  0.3440  0.5231
 4837SOL    HW121372  11.007   3.237   0.716  0.6763 -1.0307 -1.5466
 4837SOL    HW221373  11.114   3.299   0.802 -0.9029 -1.2611  0.6606
 4838SOL     OW21374   9.576   3.596   8.741 -0.0265 -0.3345 -0.2263
 4838SOL    HW121375   9.635   3.537   8.694  0.4878 -0.3690  0.4505
 4838SOL    HW221376   9.496   3.545   8.752  0.0428 -0.5258 -0.5693
 4839SOL     OW21377   4.577  11.667   7.249  0.1571  0.8851 -0.1725
 4839SOL    HW121378   4.611  11.756   7.264  1.0022  0.4654  0.4805
 4839SOL    HW221379   4.515  11.678   7.177  0.7998  1.8882 -0.6105
 4840SOL     OW21380   8.335  12.000   8.417  0.1981 -0.3108  0.3030
 4840SOL    HW121381   8.412  12.057   8.425 -1.0480  1.4077  0.7589
 4840SOL    HW221382   8.333  11.976   8.324  1.9083 -1.3885  0.4936
 4841SOL     OW21383  10.982   0.984   0.293 -0.0835 -0.0491  0.6274
 4841SOL    HW121384  11.010   0.901   0.254 -1.0681 -0.3126  0.4495
 4841SOL    HW221385  10.886   0.978   0.296 -0.0680  0.0555  2.9079
 4842SOL     OW21386  11.733  12.152   7.809 -0.2642 -0.3187  0.2840
 4842SOL    HW121387  11.689  12.235   7.790  0.8273 -0.0545 -1.3251
 4842SOL    HW221388  11.793  12.140   7.736  1.0221 -1.5544  1.4782
 4843SOL     OW21389   5.969   5.923   3.283 -0.0306 -0.1197  0.1552
 4843SOL    HW121390   6.036   5.887   3.226 -0.0821 -0.0140  0.0285
 4843SOL    HW221391   5.989   5.888   3.370 -0.0153 -0.3616  0.0525
 4844SOL     OW21392  10.750   8.774   3.563  0.3183  0.4592 -0.7406
 4844SOL    HW121393  10.824   8.749   3.619 -0.4408 -0.6049 -0.1778
 4844SOL    HW221394  10.764   8.867   3.545  1.7454  0.2930 -0.5764
 4845SOL     OW21395  10.217  10.724   2.123  0.0826  0.3608  0.9265
 4845SOL    HW121396  10.295  10.687   2.164  0.6729 -0.3530 -0.7354
 4845SOL    HW221397  10.154  10.651   2.122 -0.1714  0.5724  1.1472
 4846SOL     OW21398  11.529  12.317   0.208 -0.0652  0.2244 -0.1500
 4846SOL    HW121399  11.590  12.303   0.135 -1.1021 -0.5865 -0.9075
 4846SOL    HW221400  11.509  12.410   0.205  0.4980  0.3441 -0.4136
 4847SOL     OW21401   1.791   7.691   3.616  0.2262  0.0420 -0.2762
 4847SOL    HW121402   1.777   7.597   3.603  0.3933 -0.4032  2.2700
 4847SOL    HW221403   1.856   7.714   3.549 -1.5159 -1.0821 -2.4957
 4848SOL     OW21404   4.427   4.192   1.090 -0.6716 -0.2549  0.3468
 4848SOL    HW121405   4.341   4.234   1.088 -0.5814 -0.0656  0.4603
 4848SOL    HW221406   4.416   4.118   1.149 -1.3244 -1.4720 -1.2295
 4849SOL     OW21407  12.059   0.364  11.464 -0.5053  0.1325  0.7248
 4849SOL    HW121408  12.069   0.435  11.401 -0.8459 -0.9240 -0.5777
 4849SOL    HW221409  12.144   0.359  11.508 -0.0063  0.4235 -0.1796
 4850SOL     OW21410  12.101   9.384  10.230  0.2798  0.0118  0.3609
 4850SOL    HW121411  12.100   9.294  10.263  0.6682 -0.1735 -0.1264
 4850SOL    HW221412  12.192   9.400  10.206 -0.2861 -0.5798 -2.5272
 4851SOL     OW21413   2.628   7.353   9.172  0.2003  0.1117  0.0623
 4851SOL    HW121414   2.703   7.411   9.158  0.8271 -1.1001 -2.0771
 4851SOL    HW221415   2.641   7.318   9.260  1.9634  0.2344 -0.1040
 4852SOL     OW21416   1.776   8.437   0.780  0.0386 -0.4097 -0.6919
 4852SOL    HW121417   1.831   8.374   0.734 -0.8227 -0.1643 -2.1176
 4852SOL    HW221418   1.790   8.417   0.873  1.7053 -1.0244 -1.0320
 4853SOL     OW21419   3.773  11.344   5.999 -0.8273 -0.2466  0.3251
 4853SOL    HW121420   3.770  11.296   5.916 -1.5653  0.0433  0.1701
 4853SOL    HW221421   3.865  11.365   6.012 -0.2478 -2.9220  1.1255
 4854SOL     OW21422   8.665   4.542   6.162 -0.2170 -0.5962 -0.0141
 4854SOL    HW121423   8.714   4.551   6.081 -0.0061  0.9477  0.2569
 4854SOL    HW221424   8.706   4.604   6.222  0.0293 -2.1402  1.4811
 4855SOL     OW21425   4.890   4.144   9.800 -0.4462  0.0569  0.1258
 4855SOL    HW121426   4.834   4.220   9.814 -2.5444 -1.5428  0.9174
 4855SOL    HW221427   4.838   4.070   9.830  1.2835 -1.7853 -1.1485
 4856SOL     OW21428   7.682   1.336  11.766 -0.1952  0.1043 -0.3340
 4856SOL    HW121429   7.679   1.283  11.846  1.4814  0.0870 -0.2512
 4856SOL    HW221430   7.728   1.281  11.703 -0.3488  0.6339 -0.9175
 4857SOL     OW21431  11.555   9.323   1.849  0.2988 -0.1044  0.0038
 4857SOL    HW121432  11.591   9.307   1.936  2.3458 -2.5126 -1.1744
 4857SOL    HW221433  11.463   9.295   1.855  0.4141 -0.2388  1.3504
 4858SOL     OW21434  11.079   4.413  11.485 -0.3148  0.2307  0.8879
 4858SOL    HW121435  10.985   4.425  11.469 -0.4517 -0.0231  1.4731
 4858SOL    HW221436  11.109   4.497  11.517 -0.1694  0.5555 -0.0680
 4859SOL     OW21437   5.426   8.496   0.302 -0.2536  0.5757 -0.1253
 4859SOL    HW121438   5.333   8.513   0.314  0.0643  1.6454  1.0261
 4859SOL    HW221439   5.458   8.571   0.251  0.2168  0.9131  0.6415
 4860SOL     OW21440   7.237   7.473  11.351  0.3445  0.4416  0.3420
 4860SOL    HW121441   7.270   7.400  11.299 -0.8243  0.5158 -0.5447
 4860SOL    HW221442   7.199   7.432  11.429 -2.2554 -0.1794 -1.1291
 4861SOL     OW21443  10.570   9.578   6.371  0.3190 -0.1590  0.0813
 4861SOL    HW121444  10.508   9.634   6.326  0.7319  0.2697  0.0438
 4861SOL    HW221445  10.592   9.626   6.451 -0.0046 -0.6716  0.4815
 4862SOL     OW21446  11.003   1.788   8.383  0.4212 -0.4124  0.8048
 4862SOL    HW121447  10.982   1.865   8.331 -0.6328  0.1616  2.0321
 4862SOL    HW221448  11.085   1.810   8.427 -0.8835  0.8794  2.7234
 4863SOL     OW21449   4.651  11.896   5.566 -0.3628 -0.1571 -0.3011
 4863SOL    HW121450   4.686  11.896   5.655 -0.1283 -2.4458 -0.3464
 4863SOL    HW221451   4.703  11.962   5.520 -1.2777  1.9529  1.4789
 4864SOL     OW21452   8.985   2.929   2.173  0.4725  0.3115  1.1586
 4864SOL    HW121453   9.014   3.020   2.174 -0.9689  0.8060  2.8104
 4864SOL    HW221454   9.062   2.880   2.142  0.7753  2.1902 -1.4201
 4865SOL     OW21455   8.899   9.655   7.838 -1.0174  0.7186  0.1273
 4865SOL    HW121456   8.937   9.595   7.902 -2.1718  0.2043  0.3561
 4865SOL    HW221457   8.896   9.605   7.756  2.1696  1.9666 -0.8957
 4866SOL     OW21458   9.361  11.017  11.476 -0.3969  0.1980 -0.2176
 4866SOL    HW121459   9.322  11.045  11.393  0.8046  0.0281 -0.8564
 4866SOL    HW221460   9.406  10.935  11.455  0.5640  0.5523  0.4254
 4867SOL     OW21461  10.372  11.582   1.524  0.6618  0.5949  0.0182
 4867SOL    HW121462  10.381  11.660   1.578 -0.1584  1.4369 -1.0281
 4867SOL    HW221463  10.280  11.558   1.530  0.7744  0.0840 -0.1835
 4868SOL     OW21464  11.288   4.112   0.109 -0.0036  0.3209  0.3059
 4868SOL    HW121465  11.236   4.046   0.155 -1.3469 -0.0024 -1.5253
 4868SOL    HW221466  11.377   4.101   0.142 -0.2956 -2.0548  0.4571
 4869SOL     OW21467  12.417   4.180   1.153 -0.1233 -0.6151 -0.1408
 4869SOL    HW121468  12.354   4.153   1.085  0.2952 -1.5302 -0.1748
 4869SOL    HW221469  12.406   4.116   1.223  0.3388 -0.4083  0.1225
 4870SOL     OW21470   6.886   1.505  11.189  0.2582 -0.0482  0.4862
 4870SOL    HW121471   6.909   1.453  11.266  2.5077 -2.0077 -1.3432
 4870SOL    HW221472   6.894   1.596  11.218  1.3641 -0.7299  2.4830
 4871SOL     OW21473  11.890   8.393   3.228  0.8319 -0.3925 -1.0228
 4871SOL    HW121474  11.978   8.420   3.254 -0.0077  1.7240 -0.2049
 4871SOL    HW221475  11.857   8.465   3.174 -2.0730  1.2711  2.5363
 4872SOL     OW21476   5.794   7.137  10.300  0.4729 -0.1771 -0.3471
 4872SOL    HW121477   5.844   7.205  10.255  1.6108 -1.0781 -0.4919
 4872SOL    HW221478   5.736   7.185  10.359  1.1617  0.9136 -0.5304
 4873SOL     OW21479   9.135   9.130  11.293 -0.8597 -0.2068  0.2077
 4873SOL    HW121480   9.098   9.183  11.364  0.8848  2.9713 -1.0651
 4873SOL    HW221481   9.091   9.161  11.214 -0.6797 -1.6245 -0.4840
 4874SOL     OW21482   6.498  11.195   0.674 -0.6349 -0.9067  0.2003
 4874SOL    HW121483   6.474  11.125   0.613 -0.3289 -1.3274  0.5564
 4874SOL    HW221484   6.415  11.238   0.695 -0.6515 -0.2764 -1.0829
 4875SOL     OW21485   0.210   7.858   0.604 -0.4177 -0.2264 -0.0975
 4875SOL    HW121486   0.276   7.849   0.535 -0.0616 -0.1855  0.2338
 4875SOL    HW221487   0.237   7.796   0.671  0.2934  1.0188  0.8193
 4876SOL     OW21488   8.008   6.872   4.988 -0.3191 -0.0978 -0.5534
 4876SOL    HW121489   7.950   6.849   4.915 -0.2202 -2.2707 -0.0176
 4876SOL    HW221490   8.088   6.902   4.945 -0.0240 -1.9503 -1.4172
 4877SOL     OW21491   0.856   5.641   4.119  0.4916 -0.8002 -0.2999
 4877SOL    HW121492   0.864   5.559   4.069  0.8081 -2.0395  1.6690
 4877SOL    HW221493   0.807   5.616   4.197  0.0590  1.0578  0.0576
 4878SOL     OW21494  11.069   0.976   4.176 -0.1447 -0.3933  0.1528
 4878SOL    HW121495  11.054   0.996   4.083  1.1066 -0.0578  0.0051
 4878SOL    HW221496  11.003   0.911   4.197 -0.9993  0.1505 -0.7445
 4879SOL     OW21497  11.116  11.938  10.733 -0.0182 -0.1423  0.2925
 4879SOL    HW121498  11.198  11.974  10.700  0.5714 -0.2876  1.5385
 4879SOL    HW221499  11.111  11.968  10.824 -0.5285 -1.4865  0.7315
 4880SOL     OW21500   6.459   8.882   6.609  0.1633 -0.0220  0.5364
 4880SOL    HW121501   6.438   8.818   6.677 -0.8304 -0.7267 -0.3982
 4880SOL    HW221502   6.375   8.901   6.567  0.8929 -0.4882 -1.2457
 4881SOL     OW21503   7.405  10.765   8.158 -0.7145 -0.5619  0.0170
 4881SOL    HW121504   7.427  10.785   8.249 -0.6709 -0.8481  0.0710
 4881SOL    HW221505   7.406  10.850   8.114  0.8791 -0.5852 -0.0712
 4882SOL     OW21506  10.604   8.125   1.209 -0.1697  0.3141  0.7333
 4882SOL    HW121507  10.686   8.131   1.260  0.9257 -0.7505 -0.8146
 4882SOL    HW221508  10.594   8.212   1.170  0.5388  0.2862  0.4749
 4883SOL     OW21509   4.542   5.857   1.532  0.0297 -0.0843 -0.2941
 4883SOL    HW121510   4.573   5.846   1.442  0.1668  2.0929 -0.5737
 4883SOL    HW221511   4.612   5.905   1.576 -0.0517 -1.0813  0.9883
 4884SOL     OW21512   0.302  10.170   8.409  0.1327 -0.1561 -0.5573
 4884SOL    HW121513   0.325  10.257   8.375  0.5487  1.0425  2.4580
 4884SOL    HW221514   0.210  10.159   8.387 -0.6365  2.2160  1.1059
 4885SOL     OW21515   7.248   3.592   4.069  0.0071  0.5267 -0.0887
 4885SOL    HW121516   7.341   3.577   4.054 -0.4238 -1.4408 -1.1066
 4885SOL    HW221517   7.207   3.507   4.052 -1.8327  0.9820  1.6512
 4886SOL     OW21518   5.826   8.163   8.921 -0.0011  0.0967 -0.0999
 4886SOL    HW121519   5.783   8.084   8.954 -1.0283 -0.2907 -2.1985
 4886SOL    HW221520   5.773   8.235   8.955  0.7062 -0.0953  1.4927
 4887SOL     OW21521  12.441   9.156   7.458  0.4588 -0.3183  0.5738
 4887SOL    HW121522  12.533   9.140   7.481 -0.3350 -2.0665  2.9243
 4887SOL    HW221523  12.406   9.207   7.530 -0.5087  0.0923 -0.1610
 4888SOL     OW21524   5.682  10.777  11.068  0.2021 -0.3578 -0.4721
 4888SOL    HW121525   5.728  10.722  11.131 -2.2185 -0.2938  1.4994
 4888SOL    HW221526   5.645  10.848  11.120 -0.3448  0.7677 -2.2894
 4889SOL     OW21527   8.999   9.994  12.037 -0.1651 -0.1449  0.4267
 4889SOL    HW121528   8.962   9.962  12.119  2.4733 -0.5837  1.5656
 4889SOL    HW221529   9.068  10.055  12.064 -0.1488  0.7749 -1.5309
 4890SOL     OW21530   0.168   8.315   2.102 -0.1624 -0.0551  0.1719
 4890SOL    HW121531   0.184   8.240   2.159 -1.0010 -0.9639 -0.7440
 4890SOL    HW221532   0.080   8.345   2.125 -0.4308 -0.3085 -0.4930
 4891SOL     OW21533   5.145   5.240   7.693 -0.1887  0.2980  0.0497
 4891SOL    HW121534   5.073   5.224   7.755  0.5185  0.5659  0.9468
 4891SOL    HW221535   5.185   5.321   7.722  1.5384 -0.6963  0.5993
 4892SOL     OW21536   2.914   7.273   7.366  0.3166  0.1372 -0.2801
 4892SOL    HW121537   2.835   7.295   7.316 -0.7574  0.2663  1.3701
 4892SOL    HW221538   2.970   7.350   7.359 -0.7797  1.0454  0.4852
 4893SOL     OW21539   0.111  11.695  11.432 -0.5083 -0.3935 -0.3413
 4893SOL    HW121540   0.068  11.738  11.506 -1.0655  0.5536 -1.2007
 4893SOL    HW221541   0.115  11.603  11.458 -1.3837 -0.2031  0.5517
 4894SOL     OW21542   8.193   6.422   3.037 -0.2028  0.3619  0.0171
 4894SOL    HW121543   8.241   6.505   3.041 -0.3927  0.4423  0.8852
 4894SOL    HW221544   8.102   6.447   3.024 -0.0950  0.2281 -1.0730
 4895SOL     OW21545   3.485   8.622   6.219  0.4897 -0.1757  0.0669
 4895SOL    HW121546   3.431   8.551   6.253  2.6391 -1.5496  0.7576
 4895SOL    HW221547   3.540   8.649   6.292 -0.7031  2.7482  0.0349
 4896SOL     OW21548   5.253   1.138  11.729  0.5520  0.1905 -0.2083
 4896SOL    HW121549   5.180   1.098  11.777  1.1135 -0.5441  0.0381
 4896SOL    HW221550   5.267   1.222  11.774 -0.7238  0.7668 -0.8243
 4897SOL     OW21551  10.519   5.735  10.843  0.1325  0.1834  0.2377
 4897SOL    HW121552  10.584   5.750  10.911  0.2877  0.0850  0.1116
 4897SOL    HW221553  10.489   5.645  10.858  0.2418  0.1264  0.1110
 4898SOL     OW21554   4.361   9.072   3.710  0.7115  0.0756  0.3024
 4898SOL    HW121555   4.431   9.028   3.662  0.9087 -1.2904  1.7788
 4898SOL    HW221556   4.405   9.121   3.779  0.2771  0.1646  0.5216
 4899SOL     OW21557   9.464   4.817  12.466  0.3283 -0.4687 -0.1358
 4899SOL    HW121558   9.494   4.899  12.505 -0.4547 -0.2604  0.0537
 4899SOL    HW221559   9.489   4.823  12.374  1.2806 -0.5181  0.1107
 4900SOL     OW21560   7.604   7.189   2.742  0.1344  0.2428  0.3953
 4900SOL    HW121561   7.640   7.276   2.759  1.1118 -0.1018  0.1509
 4900SOL    HW221562   7.601   7.183   2.646  0.8512 -0.2887  0.3976
 4901SOL     OW21563   0.646   6.708   3.856 -0.7310  0.0149  0.2492
 4901SOL    HW121564   0.711   6.654   3.811 -1.4709 -0.9673  0.3182
 4901SOL    HW221565   0.610   6.764   3.787 -2.4453 -2.0506 -0.6664
 4902SOL     OW21566   4.222   2.902   8.120 -0.3600 -0.3245  0.6847
 4902SOL    HW121567   4.188   2.891   8.209 -1.4531 -0.1327  0.3080
 4902SOL    HW221568   4.316   2.887   8.128 -0.2317  1.0792  2.1188
 4903SOL     OW21569  12.023   5.944   7.179 -0.4399 -0.3670 -0.1861
 4903SOL    HW121570  12.117   5.960   7.171 -0.4671  0.1452  0.4189
 4903SOL    HW221571  11.985   6.031   7.190 -1.0490 -0.5262 -0.9904
 4904SOL     OW21572   1.732   4.143   8.526  0.2836  0.2485 -0.4441
 4904SOL    HW121573   1.809   4.095   8.559 -0.0915 -0.7275 -0.9299
 4904SOL    HW221574   1.657   4.089   8.552 -0.2095  0.9638 -0.3617
 4905SOL     OW21575   4.144  10.538   9.888 -0.5339  0.1472  0.3686
 4905SOL    HW121576   4.049  10.547   9.900 -0.8004  0.7861 -1.7265
 4905SOL    HW221577   4.171  10.477   9.956 -1.9836  1.9438  2.7361
 4906SOL     OW21578   7.847   0.886   1.956  0.1364  0.1076 -0.2416
 4906SOL    HW121579   7.788   0.831   1.904  0.7731  0.3660 -1.2600
 4906SOL    HW221580   7.876   0.830   2.028  1.1510 -1.0655 -1.5290
 4907SOL     OW21581   6.714   8.135   2.624 -0.3600 -0.3110 -0.3201
 4907SOL    HW121582   6.739   8.140   2.531 -0.3638 -0.9784 -0.3616
 4907SOL    HW221583   6.696   8.226   2.648  1.7008  0.1545 -0.3884
 4908SOL     OW21584   3.373   7.873   2.192 -0.0787 -0.0427 -0.5709
 4908SOL    HW121585   3.443   7.883   2.127  0.1928  0.4231 -0.2045
 4908SOL    HW221586   3.348   7.962   2.215 -0.1506 -0.2100 -0.0018
 4909SOL     OW21587  10.041   8.940   6.843 -0.1890 -0.4029  0.5322
 4909SOL    HW121588   9.957   8.917   6.881 -0.7451 -0.2435 -0.5501
 4909SOL    HW221589  10.049   9.034   6.858 -0.1133 -0.4548  0.8124
 4910SOL     OW21590   6.385   1.940   3.756 -0.2765  0.0461 -0.3825
 4910SOL    HW121591   6.316   1.944   3.689 -0.6031  0.0962 -0.0461
 4910SOL    HW221592   6.458   1.895   3.712 -1.0564 -1.3699 -0.2882
 4911SOL     OW21593   5.206   7.332   5.726 -0.3476 -0.1767 -0.7454
 4911SOL    HW121594   5.226   7.389   5.801 -0.6086  0.1608 -0.9275
 4911SOL    HW221595   5.244   7.379   5.651 -2.2697  0.7670 -1.1848
 4912SOL     OW21596   6.052   3.605   2.788 -0.2847 -0.0276 -0.8246
 4912SOL    HW121597   6.042   3.605   2.693 -0.0921  0.4320 -0.8492
 4912SOL    HW221598   6.117   3.674   2.805 -0.0996 -0.3065 -0.3851
 4913SOL     OW21599   5.057   9.805   2.964  0.0869 -0.2462  0.6356
 4913SOL    HW121600   4.996   9.733   2.950  1.2796 -1.0864 -0.5320
 4913SOL    HW221601   5.143   9.762   2.971  0.7981  1.0326  0.0776
 4914SOL     OW21602   8.917   5.830   7.570  0.0276 -0.0913 -0.1190
 4914SOL    HW121603   8.945   5.908   7.522 -0.1221  0.3172  0.4410
 4914SOL    HW221604   8.840   5.799   7.521 -0.2723  0.4612 -0.0093
 4915SOL     OW21605   6.532   3.647   4.390  0.3027 -0.3277 -0.5846
 4915SOL    HW121606   6.504   3.697   4.314  1.0967 -0.1585 -0.7801
 4915SOL    HW221607   6.514   3.556   4.367 -2.0229 -0.0988  0.1537
 4916SOL     OW21608   8.420   8.300  11.900  0.7539  0.5988  0.4878
 4916SOL    HW121609   8.436   8.387  11.862  2.4998  0.7729  1.5119
 4916SOL    HW221610   8.466   8.240  11.841 -2.6880 -0.0701 -1.8024
 4917SOL     OW21611  12.048   6.673  10.951 -0.1951 -0.2875 -0.4651
 4917SOL    HW121612  11.955   6.689  10.964 -0.0831  1.2616 -1.3225
 4917SOL    HW221613  12.052   6.602  10.886 -0.7386 -1.5353  0.8161
 4918SOL     OW21614  11.541  10.717   9.094 -0.1348  0.0942  0.0352
 4918SOL    HW121615  11.558  10.804   9.130 -0.3067  0.5119 -0.8769
 4918SOL    HW221616  11.596  10.711   9.016  0.2400 -0.8097  0.3477
 4919SOL     OW21617   8.956  10.228   5.120 -0.5058  0.0440 -0.5895
 4919SOL    HW121618   9.043  10.236   5.159 -0.5981  0.6420 -0.4825
 4919SOL    HW221619   8.933  10.136   5.131  0.7634 -0.4893 -2.0410
 4920SOL     OW21620  11.465   0.734   0.057  0.9166  0.3699 -0.5264
 4920SOL    HW121621  11.539   0.701   0.108  2.0432  0.8042 -1.7866
 4920SOL    HW221622  11.458   0.827   0.081 -0.3999 -0.0629  0.8988
 4921SOL     OW21623   6.572   3.921   9.926  0.4693  0.3894  0.0911
 4921SOL    HW121624   6.604   3.880   9.845 -1.9361 -0.2509 -0.6180
 4921SOL    HW221625   6.543   3.847   9.980  0.7318  0.8996  0.9451
 4922SOL     OW21626   7.149   6.232   5.019  0.3854 -0.2962  0.0719
 4922SOL    HW121627   7.235   6.244   5.060  0.2778  0.0280  0.2088
 4922SOL    HW221628   7.109   6.159   5.066 -0.0366  0.5409  1.0598
 4923SOL     OW21629  10.507  10.216   9.271 -0.1786  0.1611 -0.0784
 4923SOL    HW121630  10.450  10.233   9.346  0.4947 -1.5439  0.8730
 4923SOL    HW221631  10.454  10.160   9.214  0.1938 -0.7025  0.3956
 4924SOL     OW21632   3.137   5.571   0.290  0.1128  0.1334  0.2939
 4924SOL    HW121633   3.135   5.608   0.378  0.7935  1.0809 -0.0759
 4924SOL    HW221634   3.227   5.540   0.279 -0.4078 -1.6286  0.5686
 4925SOL     OW21635   5.058   3.798  11.985  0.7867  0.2113 -0.2188
 4925SOL    HW121636   5.122   3.768  12.049 -0.4102  0.7407  1.2839
 4925SOL    HW221637   5.106   3.858  11.928  2.3194 -1.6697 -1.0212
 4926SOL     OW21638   2.845   1.970   2.456 -0.2682  0.5231 -0.0495
 4926SOL    HW121639   2.763   1.925   2.471 -1.1739  1.8507 -0.8322
 4926SOL    HW221640   2.846   2.042   2.520  0.3886  0.3982  0.0970
 4927SOL     OW21641   7.950  12.268   4.993 -0.0005  0.1517  0.3355
 4927SOL    HW121642   7.979  12.230   4.911 -0.2403  0.8779 -0.0892
 4927SOL    HW221643   7.922  12.356   4.971  2.6158  1.4256  1.6669
 4928SOL     OW21644  10.141   3.380   4.859  0.4644  0.3459 -0.1144
 4928SOL    HW121645  10.165   3.293   4.889  2.1705  1.1431  1.0106
 4928SOL    HW221646  10.051   3.371   4.826  0.4994 -1.7388  0.2576
 4929SOL     OW21647   4.678   6.191  10.463 -0.3044 -0.5560 -0.2855
 4929SOL    HW121648   4.635   6.239  10.392 -2.0603  0.6665  1.4742
 4929SOL    HW221649   4.713   6.260  10.520 -0.1094 -1.4408  0.7013
 4930SOL     OW21650  12.406   0.718  12.024  0.3766  0.3464  0.3405
 4930SOL    HW121651  12.473   0.728  11.957  0.8167  1.4508  0.9153
 4930SOL    HW221652  12.361   0.802  12.025 -1.2649 -0.4971 -0.2713
 4931SOL     OW21653   6.397   3.902   6.608 -0.0397  1.0120 -0.2193
 4931SOL    HW121654   6.442   3.984   6.626 -0.4346  1.1018  0.3889
 4931SOL    HW221655   6.466   3.841   6.584  0.5534  0.8496  1.7503
 4932SOL     OW21656   4.514   9.591   2.534  0.0725 -0.5199 -0.1853
 4932SOL    HW121657   4.479   9.508   2.566  0.4372 -0.1984  1.0969
 4932SOL    HW221658   4.510   9.583   2.438 -0.1282 -1.9011 -0.0842
 4933SOL     OW21659   0.787   6.859   2.477  0.1256 -0.1978  0.3826
 4933SOL    HW121660   0.746   6.779   2.445 -0.7894  0.4478 -0.0911
 4933SOL    HW221661   0.715   6.915   2.504  0.7509  0.4905  0.6735
 4934SOL     OW21662   0.439   8.730   3.917  0.2150  0.0155 -0.1676
 4934SOL    HW121663   0.511   8.695   3.865  2.0446  0.5472  1.8215
 4934SOL    HW221664   0.435   8.673   3.994 -0.8292  0.5710  0.2063
 4935SOL     OW21665   5.444  10.771   6.792  0.8119  0.0920 -0.8977
 4935SOL    HW121666   5.499  10.692   6.789  2.5113  0.7679  3.8468
 4935SOL    HW221667   5.355  10.738   6.790  1.4274 -1.6723 -1.7555
 4936SOL     OW21668   1.551   8.665   5.542  0.4986  0.1049 -0.3134
 4936SOL    HW121669   1.590   8.662   5.630 -1.7850  1.1068  0.8065
 4936SOL    HW221670   1.471   8.614   5.550  1.3788 -1.7901 -2.5207
 4937SOL     OW21671   9.707   2.444   1.247 -0.4949  0.4065 -0.0807
 4937SOL    HW121672   9.653   2.387   1.301  0.2960 -0.4098 -0.1370
 4937SOL    HW221673   9.786   2.459   1.299 -0.8146  1.7073  0.0658
 4938SOL     OW21674   4.592   1.244   7.267 -0.5698 -0.3268  0.3126
 4938SOL    HW121675   4.659   1.183   7.299 -0.2728  0.3495  1.0034
 4938SOL    HW221676   4.638   1.302   7.207 -0.8285 -0.7033 -0.2558
 4939SOL     OW21677   0.918   9.021   0.089  0.2609 -0.0256  0.8888
 4939SOL    HW121678   0.963   9.050   0.169  1.6197 -0.9233  0.5039
 4939SOL    HW221679   0.853   9.088   0.072  2.8318  2.5206  0.3382
 4940SOL     OW21680   3.640  10.372   9.787 -0.3157  0.1276 -0.0917
 4940SOL    HW121681   3.661  10.278   9.782 -0.3671  0.1038  0.1355
 4940SOL    HW221682   3.590  10.389   9.707  1.3281  0.3948 -1.1210
 4941SOL     OW21683  11.488   5.311  10.705 -0.0180  0.4733 -0.0435
 4941SOL    HW121684  11.474   5.271  10.791 -1.6851  1.0397 -0.0248
 4941SOL    HW221685  11.540   5.246  10.657  0.7114  0.0287  1.2745
 4942SOL     OW21686  10.463   9.374  10.298  0.1793 -0.0750  0.6074
 4942SOL    HW121687  10.536   9.355  10.357  0.9223 -1.9398 -0.8379
 4942SOL    HW221688  10.504   9.395  10.214 -0.9109 -0.1022  0.0465
 4943SOL     OW21689   9.257   1.763   2.331 -0.3464  0.3392  0.0398
 4943SOL    HW121690   9.346   1.776   2.299 -0.3835  0.7655  0.1064
 4943SOL    HW221691   9.202   1.810   2.269 -0.7636 -1.8783 -1.3939
 4944SOL     OW21692  10.308   5.663   9.508  0.3095 -0.0072  0.1688
 4944SOL    HW121693  10.283   5.628   9.594 -0.1505 -0.4111 -0.1206
 4944SOL    HW221694  10.234   5.641   9.452  0.1618  1.1405 -0.1080
 4945SOL     OW21695   8.663   6.550   9.860  0.2006 -0.2101 -0.1831
 4945SOL    HW121696   8.657   6.584   9.771  0.4430 -0.3732 -0.2630
 4945SOL    HW221697   8.572   6.543   9.889  0.1125 -0.3343 -0.4856
 4946SOL     OW21698  12.386  10.928  10.278  0.3038 -0.8178  0.3246
 4946SOL    HW121699  12.332  10.975  10.214  0.8129  0.0025  0.4869
 4946SOL    HW221700  12.323  10.879  10.331 -0.2659 -0.0058  0.4052
 4947SOL     OW21701  12.161   8.554   8.335 -0.4328 -0.4619 -0.4047
 4947SOL    HW121702  12.108   8.475   8.327 -2.1950  0.4373  1.4424
 4947SOL    HW221703  12.139   8.607   8.259 -0.2152 -1.1912 -0.9808
 4948SOL     OW21704   2.412   5.328  10.205  0.4251  0.4695  0.0953
 4948SOL    HW121705   2.455   5.347  10.121  0.5481  0.4506  0.1547
 4948SOL    HW221706   2.382   5.414  10.236 -0.8915  0.3160 -0.6544
 4949SOL     OW21707   5.306   3.492  11.025 -0.6737  0.0836 -1.1866
 4949SOL    HW121708   5.352   3.493  11.110 -2.1329 -1.2507 -0.3150
 4949SOL    HW221709   5.315   3.402  10.995 -3.3452 -0.4857 -0.5562
 4950SOL     OW21710  12.292   8.641   3.491  0.0778 -0.8357  0.0274
 4950SOL    HW121711  12.362   8.575   3.485  1.8553  0.9558 -0.0724
 4950SOL    HW221712  12.289   8.665   3.583  1.6221  1.0777 -0.3556
 4951SOL     OW21713   1.049  12.459  11.763 -0.1518  0.0255  0.0838
 4951SOL    HW121714   1.030  12.371  11.731  2.8092 -1.2591  1.4516
 4951SOL    HW221715   1.099  12.501  11.692 -1.3793  0.5877 -0.4812
 4952SOL     OW21716   4.547   5.375   6.436  0.0004  0.5461 -0.3322
 4952SOL    HW121717   4.610   5.363   6.365 -1.6241  0.8532 -1.9019
 4952SOL    HW221718   4.600   5.389   6.514  1.8524  0.6866 -1.5692
 4953SOL     OW21719   4.444  12.161  12.034  0.2320 -0.5688  0.5269
 4953SOL    HW121720   4.402  12.076  12.047 -0.6887 -0.2441 -0.2191
 4953SOL    HW221721   4.392  12.222  12.086  0.3445 -0.3180  0.3459
 4954SOL     OW21722   1.219   0.745  12.094 -0.1911 -0.6123 -0.4870
 4954SOL    HW121723   1.206   0.758  12.188  1.3428 -0.5823 -0.2536
 4954SOL    HW221724   1.314   0.752  12.082 -0.1511 -2.6194 -1.7475
 4955SOL     OW21725  10.151   2.393   2.373  0.1597 -0.2086  0.4011
 4955SOL    HW121726  10.164   2.401   2.279 -2.9886 -1.0098 -0.2497
 4955SOL    HW221727  10.147   2.298   2.389 -1.4316 -0.0926  0.9000
 4956SOL     OW21728   5.439   3.876   3.065 -0.2430 -0.2191 -1.2182
 4956SOL    HW121729   5.530   3.886   3.036  0.2741  2.8128  0.9310
 4956SOL    HW221730   5.394   3.953   3.030 -0.9049  0.5220  1.0881
 4957SOL     OW21731   6.832   2.768   7.803  0.1970  0.2888  0.4313
 4957SOL    HW121732   6.759   2.755   7.742  0.8935 -0.1430 -0.3279
 4957SOL    HW221733   6.875   2.848   7.772  0.7354 -0.1016  0.1538
 4958SOL     OW21734   7.308   9.350   1.867 -0.3223 -0.1221 -0.5373
 4958SOL    HW121735   7.292   9.427   1.921 -0.0646  0.5014 -1.3177
 4958SOL    HW221736   7.244   9.357   1.796  0.7828  0.3063 -1.5465
 4959SOL     OW21737   0.252   1.075   2.053  0.3359 -0.3408 -0.5088
 4959SOL    HW121738   0.231   1.167   2.069 -0.0049 -0.4955 -0.0321
 4959SOL    HW221739   0.254   1.067   1.957  0.5564  0.2016 -0.5499
 4960SOL     OW21740   4.719   0.397   2.066  0.1374  0.4018  0.2691
 4960SOL    HW121741   4.769   0.343   2.005 -2.3121  0.3626 -1.9013
 4960SOL    HW221742   4.657   0.336   2.107  1.1325  0.6056  2.1702
 4961SOL     OW21743   6.848   1.006   6.014  0.6310  0.4351  0.2832
 4961SOL    HW121744   6.769   0.957   5.994  1.4685 -0.2615 -1.5189
 4961SOL    HW221745   6.854   1.072   5.945  0.6292  1.7894  1.5071
 4962SOL     OW21746   9.220   8.484   4.219 -0.1814 -0.0192  0.6132
 4962SOL    HW121747   9.209   8.467   4.313  1.7126  2.5517  1.4177
 4962SOL    HW221748   9.158   8.554   4.199 -0.0019  0.0104  0.1451
 4963SOL     OW21749   6.071   6.557   0.722 -0.4911  0.6792  0.3944
 4963SOL    HW121750   5.997   6.519   0.769  1.2294 -1.1386  1.7815
 4963SOL    HW221751   6.127   6.594   0.791  0.5160  0.8818 -0.5001
 4964SOL     OW21752   4.223  11.466   1.090  0.5481  0.4716 -0.2781
 4964SOL    HW121753   4.134  11.498   1.105  0.0247 -0.0766 -1.9888
 4964SOL    HW221754   4.211  11.386   1.039  1.9410 -1.0222  1.6361
 4965SOL     OW21755  11.933   9.582   7.386  0.3268 -0.3408  1.0156
 4965SOL    HW121756  11.987   9.504   7.389  0.6100 -0.4269 -2.4150
 4965SOL    HW221757  11.990   9.649   7.347 -1.1241  0.3741  0.0298
 4966SOL     OW21758  12.045   3.085   6.920  0.4762  0.2910  0.5986
 4966SOL    HW121759  12.056   3.090   7.015  0.7182  0.1195  0.5805
 4966SOL    HW221760  12.022   3.174   6.894 -1.6020 -0.0746  1.0597
 4967SOL     OW21761  10.773   6.487   3.909  0.0885 -0.4422 -0.0255
 4967SOL    HW121762  10.857   6.445   3.925 -1.3282 -2.9522  1.5669
 4967SOL    HW221763  10.755   6.535   3.990  0.9338  2.0271 -1.2160
 4968SOL     OW21764   3.816   7.835   0.970 -0.7207  0.4669  1.0642
 4968SOL    HW121765   3.741   7.885   0.939 -0.9367 -0.1423  0.5876
 4968SOL    HW221766   3.831   7.867   1.059 -1.0551  1.1399  0.8863
 4969SOL     OW21767   2.918   1.755  10.969  0.4427  0.3853  0.5422
 4969SOL    HW121768   2.855   1.697  11.011  1.0452  0.2019  1.2210
 4969SOL    HW221769   3.003   1.730  11.007  0.7984  1.2589  0.3541
 4970SOL     OW21770  10.947   9.054  12.399 -0.7220  0.4659 -0.3506
 4970SOL    HW121771  10.952   8.983  12.463 -1.8944 -0.3633 -1.1549
 4970SOL    HW221772  11.030   9.101  12.409 -0.0193 -0.8820  0.3332
 4971SOL     OW21773   4.176  11.831   2.990  0.1059 -0.3186  0.1695
 4971SOL    HW121774   4.145  11.749   3.027  2.9620 -0.8772  1.5232
 4971SOL    HW221775   4.182  11.814   2.896  1.3206 -1.9254  0.5091
 4972SOL     OW21776  10.576   0.361  10.956  0.5400  0.0178  0.0084
 4972SOL    HW121777  10.542   0.276  10.930 -0.8593  0.1778  1.1307
 4972SOL    HW221778  10.548   0.420  10.886  0.2574 -0.2054 -0.0687
 4973SOL     OW21779   7.055   2.852  11.244 -0.1726  0.2079 -0.0395
 4973SOL    HW121780   7.126   2.797  11.211  0.5575  2.0476 -1.7955
 4973SOL    HW221781   7.099   2.922  11.292 -1.1101 -0.9924  2.7748
 4974SOL     OW21782   5.935   9.009   8.364 -0.0199 -0.2585 -0.3846
 4974SOL    HW121783   5.976   8.929   8.333  0.2014 -0.8720  1.3737
 4974SOL    HW221784   5.891   9.045   8.287  1.2248 -1.1957 -1.5859
 4975SOL     OW21785   6.501   9.008   2.708 -0.0173  0.6757  0.9363
 4975SOL    HW121786   6.406   9.001   2.722 -0.0320  1.7739  1.5047
 4975SOL    HW221787   6.512   9.089   2.658  0.4847 -0.4920 -0.9611
 4976SOL     OW21788   1.694   3.872   5.290  0.4948  0.2638 -0.5646
 4976SOL    HW121789   1.703   3.783   5.325  0.6976  0.5614  0.1733
 4976SOL    HW221790   1.730   3.928   5.359 -0.3246  0.9718 -0.6937
 4977SOL     OW21791   7.638   4.191   1.210 -0.2026  0.1094 -0.3540
 4977SOL    HW121792   7.701   4.155   1.149 -0.4539 -1.6163  0.3629
 4977SOL    HW221793   7.687   4.255   1.262  0.5592 -0.1086 -0.8081
 4978SOL     OW21794   0.913   6.595   0.007  0.1327 -0.1018 -0.4362
 4978SOL    HW121795   0.967   6.661  -0.036 -0.5437  0.2559 -0.7514
 4978SOL    HW221796   0.825   6.632   0.008 -0.1775 -0.8181 -0.2325
 4979SOL     OW21797  11.152  12.084   6.985  0.3368  0.1221  0.0129
 4979SOL    HW121798  11.215  12.014   7.000  1.4726  1.0914 -0.1352
 4979SOL    HW221799  11.152  12.135   7.066 -1.3674 -0.6747  0.5756
 4980SOL     OW21800   2.047   5.453   9.636 -0.0847 -0.5799 -0.0084
 4980SOL    HW121801   2.139   5.447   9.609 -0.7920 -0.4266 -2.7286
 4980SOL    HW221802   1.999   5.403   9.570 -1.8905 -1.8231  2.0936
 4981SOL     OW21803   1.348   0.280   9.302 -0.0679 -0.3296  0.3634
 4981SOL    HW121804   1.417   0.213   9.302 -0.4373 -0.7604 -1.5716
 4981SOL    HW221805   1.271   0.234   9.335 -0.0961 -0.6248 -0.0997
 4982SOL     OW21806   5.416  12.067  12.315 -0.2365 -0.4241  0.8576
 4982SOL    HW121807   5.414  11.992  12.256  1.6352 -0.7290  1.1436
 4982SOL    HW221808   5.323  12.083  12.336 -0.7660 -1.7058 -0.3661
 4983SOL     OW21809   4.471   7.814  10.644 -0.4041  0.0077  0.5011
 4983SOL    HW121810   4.410   7.828  10.572 -0.5535  0.4540  0.7118
 4983SOL    HW221811   4.553   7.787  10.602 -0.4056  0.5531  0.1434
 4984SOL     OW21812   0.240  10.827   2.696  0.1793 -0.2629 -0.4853
 4984SOL    HW121813   0.160  10.812   2.747  0.0285 -1.2086 -0.9609
 4984SOL    HW221814   0.310  10.789   2.749 -0.0598 -1.8068 -1.2147
 4985SOL     OW21815   4.400   4.013   1.499 -0.2046 -0.0022 -0.9328
 4985SOL    HW121816   4.325   3.955   1.491  1.2944 -2.1906 -0.2029
 4985SOL    HW221817   4.416   4.044   1.409 -0.9559 -0.8492 -1.3754
 4986SOL     OW21818   9.353  11.771  10.772 -0.0699 -0.0708  0.1615
 4986SOL    HW121819   9.447  11.763  10.785  0.4796  1.3313 -2.2625
 4986SOL    HW221820   9.324  11.682  10.752  0.4690 -0.7289  2.1021
 4987SOL     OW21821  11.759   7.648   6.760  0.4712 -0.5138 -0.0029
 4987SOL    HW121822  11.686   7.704   6.735  1.0406 -0.2542 -1.1672
 4987SOL    HW221823  11.718   7.571   6.799 -0.4600 -0.6315 -1.1571
 4988SOL     OW21824  11.353   1.467   3.974  0.4270  0.4773 -0.1395
 4988SOL    HW121825  11.291   1.537   3.996 -0.0398 -0.0240  0.1736
 4988SOL    HW221826  11.422   1.511   3.924 -0.0828  1.0780 -0.3319
 4989SOL     OW21827   9.477   2.687   6.472 -0.1114  0.1161 -0.0774
 4989SOL    HW121828   9.383   2.682   6.457 -0.7630  2.4266  2.4102
 4989SOL    HW221829   9.505   2.762   6.418  0.1473 -0.0594 -0.1866
 4990SOL     OW21830   3.736   0.992   9.602 -0.2914  0.1599 -0.7891
 4990SOL    HW121831   3.717   1.005   9.509  0.1299  0.9968 -0.7653
 4990SOL    HW221832   3.760   1.079   9.634 -2.7080  0.3785  0.6508
 4991SOL     OW21833   7.474   9.664   6.612 -0.2992 -0.1273  0.1285
 4991SOL    HW121834   7.432   9.584   6.643  0.7481  0.1129  2.3918
 4991SOL    HW221835   7.412   9.701   6.549 -0.7538 -2.7195 -1.0704
 4992SOL     OW21836   3.504   6.021   5.162 -0.4874 -0.0915  0.0563
 4992SOL    HW121837   3.575   5.965   5.196 -0.2505 -0.0363 -0.3445
 4992SOL    HW221838   3.533   6.046   5.075 -0.8324  0.2418  0.0357
 4993SOL     OW21839   9.718   7.049   2.688 -0.4586 -0.2517 -0.5038
 4993SOL    HW121840   9.642   7.054   2.630 -0.5383  0.1958 -0.3677
 4993SOL    HW221841   9.758   7.136   2.683  0.3700 -0.6470 -1.0014
 4994SOL     OW21842   4.917   5.079   8.100 -0.5132 -0.2678 -0.4534
 4994SOL    HW121843   4.931   4.997   8.052 -1.2789 -1.4122  1.1924
 4994SOL    HW221844   4.923   5.054   8.192 -0.8045  1.5329  0.0899
 4995SOL     OW21845   0.616   8.084   5.090  0.0421  0.4864  0.0965
 4995SOL    HW121846   0.695   8.138   5.079  0.7737 -0.5525  0.0566
 4995SOL    HW221847   0.571   8.122   5.166  1.1445  0.4540  0.7934
 4996SOL     OW21848   6.006   5.990   4.799  0.0703  0.3120 -0.0589
 4996SOL    HW121849   5.975   6.047   4.869  3.0618  1.9146  0.1524
 4996SOL    HW221850   6.010   6.046   4.722  0.7903 -0.2670 -0.4577
 4997SOL     OW21851  10.174   2.286   2.828  0.6164  0.0798  0.1637
 4997SOL    HW121852  10.175   2.240   2.912  1.6934 -0.5549 -0.1849
 4997SOL    HW221853  10.245   2.247   2.778 -0.1135  0.3547 -1.1132
 4998SOL     OW21854   8.320   0.220   6.004 -0.1089  0.0458 -0.7060
 4998SOL    HW121855   8.372   0.212   6.084  0.2321 -1.2563 -1.0333
 4998SOL    HW221856   8.385   0.239   5.935 -0.3557  0.7683 -0.7545
 4999SOL     OW21857   4.428   4.809   8.389  0.3564  0.0531 -0.3244
 4999SOL    HW121858   4.434   4.866   8.312  1.7915  0.1362 -0.1805
 4999SOL    HW221859   4.477   4.855   8.457 -0.5044 -0.2412  0.5203
 5000SOL     OW21860   8.519   4.037   8.322  0.0630 -0.3379 -0.5009
 5000SOL    HW121861   8.519   3.976   8.395 -2.3410  1.1292  0.8295
 5000SOL    HW221862   8.448   4.008   8.265 -0.1915  0.3802 -0.5667
 5001SOL     OW21863   6.006  10.679   6.701 -0.7443  0.3168 -0.2042
 5001SOL    HW121864   6.003  10.679   6.796 -0.2864 -0.7415 -0.1699
 5001SOL    HW221865   6.046  10.763   6.678 -0.2863  0.3150  0.5582
 5002SOL     OW21866  12.440   9.648   7.601  0.0230  0.3044 -0.0679
 5002SOL    HW121867  12.495   9.670   7.526 -1.4925  1.3359 -0.9294
 5002SOL    HW221868  12.383   9.578   7.569 -0.4239  0.5325  0.2176
 5003SOL     OW21869   6.041   7.377  11.634 -0.4770 -0.0940 -0.1517
 5003SOL    HW121870   5.983   7.313  11.676 -0.5821 -0.5233 -0.9231
 5003SOL    HW221871   6.129   7.344  11.651 -0.4838  0.1695  0.4089
 5004SOL     OW21872   0.836   3.906   1.746 -0.2107  0.2775  0.1961
 5004SOL    HW121873   0.871   3.822   1.777  1.1712  0.9773  0.5993
 5004SOL    HW221874   0.763   3.881   1.689  0.5360 -1.2238 -0.1728
 5005SOL     OW21875   0.461   0.533   1.678  0.2054 -0.3789 -0.1733
 5005SOL    HW121876   0.397   0.476   1.720  2.3095 -2.1309  0.8767
 5005SOL    HW221877   0.459   0.613   1.730 -2.1461  0.2658 -1.1070
 5006SOL     OW21878  12.168   4.079   4.714  0.2281 -0.1628  0.0951
 5006SOL    HW121879  12.191   4.020   4.785 -0.7226  0.4898  0.9785
 5006SOL    HW221880  12.081   4.051   4.685  0.6143 -0.4375 -0.8421
 5007SOL     OW21881   2.159   4.973   6.619 -0.1953  0.0473  0.5462
 5007SOL    HW121882   2.253   4.960   6.632 -0.3722 -0.8325  1.0431
 5007SOL    HW221883   2.120   4.889   6.645 -0.9861 -0.1462 -1.1372
 5008SOL     OW21884   2.011  10.329   1.309  0.1486  0.2124 -0.1936
 5008SOL    HW121885   1.996  10.261   1.244  0.1844 -2.0304  1.9939
 5008SOL    HW221886   2.097  10.364   1.288 -0.0942 -0.0286 -1.6735
 5009SOL     OW21887   5.864   3.644   0.217 -0.6399  0.1659  0.0934
 5009SOL    HW121888   5.774   3.674   0.226 -0.8694 -0.5905  0.4042
 5009SOL    HW221889   5.871   3.614   0.126 -0.2402  1.6776 -0.3892
 5010SOL     OW21890   3.191  11.507   9.310 -0.0182 -0.7045 -0.3925
 5010SOL    HW121891   3.203  11.566   9.235 -1.0241  0.8547  0.6279
 5010SOL    HW221892   3.277  11.466   9.321  0.7774  0.7094 -1.0229
 5011SOL     OW21893   0.246   3.992   7.900  0.6628 -1.4861  0.7348
 5011SOL    HW121894   0.332   4.000   7.858  1.8188  0.0652  3.1652
 5011SOL    HW221895   0.265   3.957   7.987 -1.0583 -0.3451  1.6322
 5012SOL     OW21896   6.300   1.759  11.667  0.6550  0.3919 -0.4528
 5012SOL    HW121897   6.317   1.666  11.651 -1.4705 -0.3132  0.9505
 5012SOL    HW221898   6.343   1.778  11.750  0.1848  0.3665 -0.2025
 5013SOL     OW21899   7.899   7.817   0.327 -0.1127  0.2518 -0.3133
 5013SOL    HW121900   7.952   7.738   0.335 -0.1241  0.3236  0.5852
 5013SOL    HW221901   7.848   7.804   0.248 -0.1781 -0.6831 -0.1270
 5014SOL     OW21902   0.006  11.938   5.603  0.7790  0.1268 -0.1289
 5014SOL    HW121903  -0.005  11.845   5.625  0.9781  0.1820  0.2108
 5014SOL    HW221904   0.043  11.936   5.515 -3.5176 -0.0344 -2.1904
 5015SOL     OW21905   6.537   3.104  11.148 -0.5096 -0.3753 -0.2127
 5015SOL    HW121906   6.540   3.108  11.052  1.1048  1.1673 -0.1451
 5015SOL    HW221907   6.445   3.121  11.169 -0.5571  1.2006 -1.4663
 5016SOL     OW21908   7.763   2.582   9.010 -0.4045 -0.1730  0.3515
 5016SOL    HW121909   7.794   2.647   9.073  1.3006  0.5616 -1.1536
 5016SOL    HW221910   7.677   2.614   8.984  0.2896  1.3937 -0.1550
 5017SOL     OW21911  10.778   7.405   2.839  0.0604 -0.1018 -0.5583
 5017SOL    HW121912  10.700   7.454   2.864  0.3789 -0.1962  0.6685
 5017SOL    HW221913  10.793   7.344   2.911  0.9049 -0.5145 -1.0682
 5018SOL     OW21914   3.315  10.956  12.231  0.3942 -0.1744 -0.0781
 5018SOL    HW121915   3.267  11.024  12.279 -1.5631 -1.6444  0.1616
 5018SOL    HW221916   3.332  10.889  12.297  0.1877 -0.9590 -0.8092
 5019SOL     OW21917   6.525   2.628   3.295 -0.3214  0.1559  0.4877
 5019SOL    HW121918   6.505   2.596   3.207  1.3857  0.8279 -0.1915
 5019SOL    HW221919   6.443   2.618   3.344 -1.1698 -0.6613 -1.0405
 5020SOL     OW21920   3.320   9.411   6.734  0.0097  0.4041 -0.1033
 5020SOL    HW121921   3.347   9.384   6.822  1.3457 -1.1972 -0.9424
 5020SOL    HW221922   3.381   9.481   6.711  0.0647  0.3929  0.0064
 5021SOL     OW21923  10.093   6.795   4.509 -0.0361 -0.4067 -0.2912
 5021SOL    HW121924  10.141   6.714   4.496 -0.2995 -0.5460 -0.4108
 5021SOL    HW221925  10.098   6.811   4.603 -0.7465 -1.0473 -0.1320
 5022SOL     OW21926   8.896   4.977   7.880  0.3011 -0.0025 -0.1309
 5022SOL    HW121927   8.801   4.969   7.865  0.1436 -0.0790  0.8017
 5022SOL    HW221928   8.929   4.888   7.870 -0.2003 -0.5576  2.3172
 5023SOL     OW21929   8.896   3.405   1.418  0.8908  0.0426 -0.2396
 5023SOL    HW121930   8.986   3.432   1.402  0.6420 -0.2415 -2.4410
 5023SOL    HW221931   8.880   3.335   1.354 -0.0481 -1.8955  1.9549
 5024SOL     OW21932   7.832   6.529   4.775 -0.2257  0.0373 -0.2754
 5024SOL    HW121933   7.914   6.484   4.756  1.1175  1.6790  1.3753
 5024SOL    HW221934   7.764   6.464   4.754  1.5519 -2.2752  0.7124
 5025SOL     OW21935   8.386   4.223   2.848  0.4137 -0.0358 -0.0103
 5025SOL    HW121936   8.309   4.209   2.903 -0.9025  1.4079 -1.3790
 5025SOL    HW221937   8.355   4.205   2.759  1.7745  0.1915 -0.5538
 5026SOL     OW21938   8.299   9.737   4.108  0.0241  0.5620 -0.0101
 5026SOL    HW121939   8.288   9.720   4.202  0.4438 -0.6895 -0.1759
 5026SOL    HW221940   8.385   9.779   4.101  0.2444  0.1313  0.1068
 5027SOL     OW21941   4.068   9.598   3.640  0.1436 -0.4984  0.1158
 5027SOL    HW121942   4.114   9.584   3.723  0.3152  0.8330  0.2735
 5027SOL    HW221943   4.139   9.608   3.576  0.0642  0.2555  0.1342
 5028SOL     OW21944  10.320   7.587   0.958  0.7412  0.2975 -0.8302
 5028SOL    HW121945  10.300   7.573   1.051  0.4088 -1.8298 -1.1611
 5028SOL    HW221946  10.295   7.678   0.941 -0.8836  0.2029  0.7596
 5029SOL     OW21947   9.548   2.050   4.893  0.0605 -0.1922 -0.1063
 5029SOL    HW121948   9.485   2.120   4.882  0.8506  0.3138 -1.9752
 5029SOL    HW221949   9.518   1.981   4.834  0.8741 -0.1913 -0.5497
 5030SOL     OW21950   7.063   9.626  12.376  0.4014 -0.2095 -0.0522
 5030SOL    HW121951   7.066   9.704  12.320  0.2617  0.4040  0.7884
 5030SOL    HW221952   7.150   9.586  12.367  1.2730  1.3103  1.3056
 5031SOL     OW21953   1.394  11.760   9.531  0.0451  0.3649 -0.2253
 5031SOL    HW121954   1.442  11.839   9.507  0.9052  0.3206  1.1887
 5031SOL    HW221955   1.387  11.709   9.450  2.3305  0.4161 -0.5085
 5032SOL     OW21956   8.187   4.423  12.071  0.5061 -0.0516  0.4351
 5032SOL    HW121957   8.228   4.492  12.123  0.0418 -0.9446  2.0872
 5032SOL    HW221958   8.249   4.405  12.000  2.5070 -0.5986  2.2098
 5033SOL     OW21959  11.068   6.980   7.656 -0.0872 -0.4880 -0.1853
 5033SOL    HW121960  11.105   7.057   7.612  0.1013 -1.0575 -1.0413
 5033SOL    HW221961  11.144   6.924   7.674 -0.1612 -0.2639  0.8828
 5034SOL     OW21962  10.969   1.101   1.167  0.1289  0.3011 -0.1826
 5034SOL    HW121963  10.952   1.178   1.114  0.7205  0.3305 -0.3360
 5034SOL    HW221964  10.886   1.082   1.211 -0.6436 -0.2562 -1.8116
 5035SOL     OW21965   6.895   9.713   5.884 -0.1883  1.0770 -0.1245
 5035SOL    HW121966   6.854   9.732   5.799 -1.7138 -1.8017 -0.1355
 5035SOL    HW221967   6.989   9.719   5.867 -0.3579 -1.3431 -2.6372
 5036SOL     OW21968   4.485  10.752   7.943  0.4286  0.1744  0.1497
 5036SOL    HW121969   4.407  10.740   7.888 -0.3209  4.4579 -0.0655
 5036SOL    HW221970   4.541  10.810   7.893  3.3087 -1.7638  0.8876
 5037SOL     OW21971   0.998   9.834   3.698  0.0331 -0.2324  0.5721
 5037SOL    HW121972   1.076   9.780   3.688 -0.0680 -1.3919  4.4199
 5037SOL    HW221973   0.925   9.773   3.685 -0.2180  0.2218 -0.2264
 5038SOL     OW21974   4.728   4.831   3.192  0.2995  0.4271  0.0812
 5038SOL    HW121975   4.660   4.878   3.143 -0.9844 -1.8521 -0.4588
 5038SOL    HW221976   4.751   4.757   3.137  0.5589 -0.8950  1.8744
 5039SOL     OW21977   1.945   9.128   1.067  0.1573  0.5146 -0.0190
 5039SOL    HW121978   1.940   9.202   1.008  1.8810  0.3902 -0.3948
 5039SOL    HW221979   2.001   9.159   1.139  0.0722 -0.0960  0.3162
 5040SOL     OW21980   9.165   4.051   2.893 -0.2862  0.1228 -0.4517
 5040SOL    HW121981   9.219   4.071   2.969 -1.4276 -0.1024  0.4357
 5040SOL    HW221982   9.151   4.135   2.850 -0.9419  0.5034  0.4780
 5041SOL     OW21983   9.819   0.547   9.866  0.2244  0.6646  0.3423
 5041SOL    HW121984   9.809   0.490   9.943 -1.2956  1.2579  0.6080
 5041SOL    HW221985   9.805   0.635   9.900  1.7082  1.1460 -0.2359
 5042SOL     OW21986   3.798   7.569  12.351  0.0946  0.1891 -0.4308
 5042SOL    HW121987   3.793   7.523  12.267 -0.7923  0.4391 -0.5226
 5042SOL    HW221988   3.875   7.532  12.393  0.9717  0.5706 -1.6519
 5043SOL     OW21989   6.154   9.962   8.368 -0.2946  0.0487  0.2393
 5043SOL    HW121990   6.150   9.893   8.434  0.4474 -1.3673 -1.1220
 5043SOL    HW221991   6.237  10.007   8.385 -0.0538 -0.3841  0.2132
 5044SOL     OW21992   6.735   9.027  10.640 -0.0779  0.1054  0.4005
 5044SOL    HW121993   6.782   8.962  10.692 -0.1418 -0.6411 -0.4409
 5044SOL    HW221994   6.788   9.038  10.561  1.0325  2.6586  1.3866
 5045SOL     OW21995   9.779   9.873  10.283  0.7751  0.1250 -0.0992
 5045SOL    HW121996   9.710   9.834  10.338  2.8226 -1.1648  1.7584
 5045SOL    HW221997   9.776   9.966  10.303 -0.3838  0.0800 -0.0029
 5046SOL     OW21998   7.487   4.122   1.846  0.0506 -0.2612 -0.0816
 5046SOL    HW121999   7.513   4.203   1.889 -0.8503 -0.7187  1.3786
 5046SOL    HW222000   7.559   4.102   1.786  1.5758  0.1782  1.5208
 5047SOL     OW22001   6.904  11.719   8.107  0.6567  0.0744  0.2665
 5047SOL    HW122002   6.878  11.668   8.030  1.0908 -0.0805  0.2186
 5047SOL    HW222003   6.849  11.797   8.104  0.7225  0.1031 -0.2432
 5048SOL     OW22004   6.235   4.127   9.180 -0.2907 -0.2692  0.1885
 5048SOL    HW122005   6.241   4.218   9.152  1.1030 -0.7723 -1.3037
 5048SOL    HW222006   6.286   4.078   9.115 -0.5691 -2.0588  1.2393
 5049SOL     OW22007   8.929   1.779   5.491 -0.2491 -0.1902 -0.3331
 5049SOL    HW122008   8.925   1.806   5.400 -0.7277 -4.1773 -1.7061
 5049SOL    HW222009   9.017   1.741   5.501  0.3957  1.5730  1.4139
 5050SOL     OW22010   1.002   4.835   4.278 -0.2296 -0.2409 -0.6048
 5050SOL    HW122011   1.092   4.806   4.261 -0.5077 -0.9402 -0.8892
 5050SOL    HW222012   1.013   4.915   4.330  0.5790  0.3124 -1.5817
 5051SOL     OW22013   7.486   7.345   1.808  0.0256  0.2883  0.4685
 5051SOL    HW122014   7.476   7.335   1.713 -1.2678 -0.6932  0.6711
 5051SOL    HW222015   7.580   7.343   1.823  0.2147 -0.6802 -0.6961
 5052SOL     OW22016  10.077   8.086   8.974  0.4781  0.4957 -0.3099
 5052SOL    HW122017  10.060   8.131   9.057  1.3916 -1.1106  0.8095
 5052SOL    HW222018  10.154   8.129   8.938  1.2118  0.0319  0.6432
 5053SOL     OW22019   7.836   2.773   3.119 -0.3094 -0.3720 -0.1800
 5053SOL    HW122020   7.777   2.847   3.109 -0.3108 -0.2136  0.8761
 5053SOL    HW222021   7.921   2.812   3.140 -0.9548 -0.6481  3.5860
 5054SOL     OW22022   4.760   6.825   0.264 -0.2842 -0.3093 -0.1935
 5054SOL    HW122023   4.714   6.757   0.313  3.7524 -2.9087  0.4977
 5054SOL    HW222024   4.755   6.797   0.173  1.3633 -1.6795  0.0881
 5055SOL     OW22025  10.653   3.987   3.647 -0.2764 -0.6017 -0.2850
 5055SOL    HW122026  10.557   3.984   3.649 -0.2545 -1.1172  0.5125
 5055SOL    HW222027  10.680   3.923   3.713  0.5996  0.7911  0.7470
 5056SOL     OW22028  11.033   6.647   1.922 -0.2578  0.0562  0.0829
 5056SOL    HW122029  11.051   6.657   2.015 -1.4215  0.8401  0.2314
 5056SOL    HW222030  10.957   6.702   1.905  0.7639  1.0201 -1.6174
 5057SOL     OW22031   6.890   7.186   3.350 -0.3717 -0.6760 -0.3036
 5057SOL    HW122032   6.919   7.255   3.410 -0.5555  0.1174 -1.1103
 5057SOL    HW222033   6.908   7.221   3.263 -2.2147 -0.8431 -0.7858
 5058SOL     OW22034   0.005  11.920   7.393 -0.1027 -0.3553  0.0699
 5058SOL    HW122035  -0.005  11.994   7.332  2.5738 -1.7317 -2.3140
 5058SOL    HW222036  -0.052  11.852   7.356 -2.0233  0.1709  1.8677
 5059SOL     OW22037   4.711   6.900  10.969 -0.5390  0.3641  0.7469
 5059SOL    HW122038   4.682   6.986  10.940 -2.5263 -0.9961 -1.6717
 5059SOL    HW222039   4.663   6.884  11.051 -1.7144  0.7474  0.1459
 5060SOL     OW22040   5.324   0.626   5.221 -0.4052  0.2343 -0.0062
 5060SOL    HW122041   5.398   0.679   5.249 -1.0688  0.4655  1.3994
 5060SOL    HW222042   5.334   0.543   5.268 -1.3918  0.5192  0.7396
 5061SOL     OW22043   1.359   7.012   1.723  0.4869 -0.4840  0.6560
 5061SOL    HW122044   1.339   7.086   1.781 -1.8970 -0.2224 -0.3659
 5061SOL    HW222045   1.438   7.038   1.677  0.4339  0.8613  1.2674
 5062SOL     OW22046   3.525   2.831  10.901  0.2962 -0.6159 -0.2720
 5062SOL    HW122047   3.501   2.890  10.972 -1.1300  0.1746 -1.3370
 5062SOL    HW222048   3.458   2.846  10.834  1.0686 -1.9779 -1.4152
 5063SOL     OW22049  10.498   2.138   9.513 -0.3365 -0.2438 -0.0848
 5063SOL    HW122050  10.452   2.210   9.470  0.3193 -0.5925 -1.4496
 5063SOL    HW222051  10.526   2.173   9.597 -0.0524  1.1013 -0.7184
 5064SOL     OW22052   0.993  11.553  12.114 -0.8583  0.3728  0.1559
 5064SOL    HW122053   1.021  11.608  12.187 -3.8521  1.9248  0.3114
 5064SOL    HW222054   0.917  11.599  12.078 -1.4144 -1.9793 -1.9209
 5065SOL     OW22055   7.240   7.051   1.463  0.5006 -0.0274 -0.0642
 5065SOL    HW122056   7.237   6.970   1.513 -1.7140  0.3148  0.4409
 5065SOL    HW222057   7.289   7.028   1.384 -0.4335 -1.9848 -0.1344
 5066SOL     OW22058   9.578   2.609   1.081 -0.1263  0.0497 -0.2567
 5066SOL    HW122059   9.521   2.554   1.027 -1.4563  0.5632  0.5661
 5066SOL    HW222060   9.631   2.547   1.131  1.6482 -0.4480 -2.5665
 5067SOL     OW22061   9.128   2.578   4.210 -0.1469 -0.2177  0.4847
 5067SOL    HW122062   9.144   2.623   4.293  1.9179  2.0098 -0.9614
 5067SOL    HW222063   9.124   2.486   4.232 -0.8274  0.3812  3.1731
 5068SOL     OW22064   6.158   1.314   3.041  0.1119 -0.4831 -0.1065
 5068SOL    HW122065   6.214   1.247   3.003 -1.4077 -0.4349 -2.6610
 5068SOL    HW222066   6.070   1.294   3.008 -0.9440  1.0002  1.5628
 5069SOL     OW22067   1.645   8.721   1.635 -0.0901  0.0253 -0.3609
 5069SOL    HW122068   1.584   8.742   1.564  0.4253 -0.3084 -0.9068
 5069SOL    HW222069   1.645   8.800   1.690  0.3699  0.7461 -1.3536
 5070SOL     OW22070  12.127  10.157   0.998 -0.1652  0.0300 -0.3084
 5070SOL    HW122071  12.086  10.211   0.931  0.4010 -0.2425 -0.8866
 5070SOL    HW222072  12.156  10.079   0.950  0.2217 -0.1772  0.2621
 5071SOL     OW22073   3.320  10.090   6.590  0.4247  0.7762 -0.2481
 5071SOL    HW122074   3.353  10.180   6.589 -0.3970  1.0868 -0.3783
 5071SOL    HW222075   3.317  10.065   6.497  2.1802  0.0127 -0.1513
 5072SOL     OW22076  11.247   2.981   5.586  0.4850  0.5246  0.2579
 5072SOL    HW122077  11.160   2.954   5.556  1.0364 -0.1817 -0.8001
 5072SOL    HW222078  11.246   3.076   5.581 -0.2866  0.5366  0.4594
 5073SOL     OW22079   4.884   7.339   0.700 -0.4989  0.0589  0.3413
 5073SOL    HW122080   4.957   7.377   0.651 -1.4520 -0.6306 -1.6905
 5073SOL    HW222081   4.926   7.294   0.773  1.0638  0.2693 -0.3874
 5074SOL     OW22082  10.610   2.072  11.985 -0.3942  0.3073  0.0452
 5074SOL    HW122083  10.538   2.012  11.963 -1.2826  2.0697 -2.2965
 5074SOL    HW222084  10.662   2.077  11.905  2.3501 -0.7896  1.6225
 5075SOL     OW22085   3.068  12.127  12.175  0.2975 -0.1094 -0.2929
 5075SOL    HW122086   3.106  12.078  12.102 -3.7909 -2.2970 -1.2756
 5075SOL    HW222087   3.090  12.076  12.252  1.7226  0.3093 -0.3919
 5076SOL     OW22088   5.473   8.051   1.444  0.1978 -0.1216 -0.3357
 5076SOL    HW122089   5.512   8.076   1.528 -1.2768  1.8821 -0.1873
 5076SOL    HW222090   5.380   8.039   1.464 -0.0810 -0.1430 -1.6028
 5077SOL     OW22091   2.766   1.343   3.126  0.2721 -0.1969  0.2293
 5077SOL    HW122092   2.678   1.379   3.133  0.0446 -0.3051 -1.5153
 5077SOL    HW222093   2.766   1.296   3.042  1.8780 -0.4887  0.3624
 5078SOL     OW22094   3.198   2.639   4.058  0.2329 -0.3235 -0.0172
 5078SOL    HW122095   3.105   2.637   4.077  0.1640 -1.2217 -0.3843
 5078SOL    HW222096   3.240   2.649   4.143 -0.2158  1.5603  0.0327
 5079SOL     OW22097   8.057  10.451   4.086 -0.4966  0.4846 -0.0709
 5079SOL    HW122098   7.976  10.498   4.107 -1.9197 -1.0426 -1.8180
 5079SOL    HW222099   8.082  10.484   4.000  0.0051 -0.0040 -0.1159
 5080SOL     OW22100   0.775   6.552   3.134 -0.2682 -0.0890 -0.4203
 5080SOL    HW122101   0.814   6.629   3.094  0.8841 -1.0606 -1.2408
 5080SOL    HW222102   0.690   6.582   3.167 -1.6424  0.6902 -4.1753
 5081SOL     OW22103   8.600   5.222  11.943 -0.0119 -0.0929  0.2050
 5081SOL    HW122104   8.649   5.267  11.873 -1.2907  0.8635 -0.0940
 5081SOL    HW222105   8.663   5.158  11.977  0.7225 -0.4746 -1.6986
 5082SOL     OW22106   1.735   2.046  10.822 -0.1127  0.0864 -0.3415
 5082SOL    HW122107   1.797   1.979  10.794 -0.8151 -0.5570 -0.4060
 5082SOL    HW222108   1.655   2.027  10.772 -0.9889 -0.3247  1.1585
 5083SOL     OW22109   9.925   5.064   0.200  0.0733  0.4704 -0.2046
 5083SOL    HW122110   9.906   5.158   0.196 -1.0354  0.2252 -1.7803
 5083SOL    HW222111   9.999   5.052   0.141 -0.1029  0.2810 -0.3843
 5084SOL     OW22112   3.973   4.159   5.596  0.2082  0.0820  0.2235
 5084SOL    HW122113   3.928   4.235   5.559  2.0280  0.8933 -0.4430
 5084SOL    HW222114   4.059   4.159   5.554  2.4619  1.0346  4.3071
 5085SOL     OW22115   6.062   4.260   4.262  0.0227  1.0623  0.7023
 5085SOL    HW122116   5.966   4.261   4.252  0.2153 -1.0755 -3.1143
 5085SOL    HW222117   6.076   4.267   4.356 -3.9602 -0.0007  1.5600
 5086SOL     OW22118   1.284   5.510   8.944  0.6214 -0.3256 -0.7910
 5086SOL    HW122119   1.189   5.497   8.949  0.1487  2.4894 -0.8258
 5086SOL    HW222120   1.309   5.469   8.862 -0.7236 -0.4412 -1.1725
 5087SOL     OW22121   9.247   0.474   5.297 -0.0926 -0.3021 -0.0708
 5087SOL    HW122122   9.181   0.542   5.297 -0.3823 -0.5817 -0.4229
 5087SOL    HW222123   9.318   0.509   5.352 -0.4283  0.0909  0.1121
 5088SOL     OW22124   3.247   9.316   5.352  0.0213  1.0355 -0.0013
 5088SOL    HW122125   3.321   9.257   5.363  0.8655  2.0274 -0.1447
 5088SOL    HW222126   3.178   9.263   5.313  0.9071  0.2628 -0.5474
 5089SOL     OW22127   0.757   5.435   7.369 -0.2840 -0.5013 -0.5138
 5089SOL    HW122128   0.680   5.420   7.424 -1.5863 -0.1159 -2.1468
 5089SOL    HW222129   0.770   5.530   7.372  0.0699 -0.5557 -0.3183
 5090SOL     OW22130   8.948   2.079   3.142  0.1615 -0.3410  0.2516
 5090SOL    HW122131   8.964   2.042   3.055 -0.6902 -2.0389  0.7724
 5090SOL    HW222132   8.988   2.016   3.202 -0.5884  0.0184  1.1510
 5091SOL     OW22133   5.622   2.904   1.134  0.0211  0.2323  0.0780
 5091SOL    HW122134   5.670   2.823   1.117  0.7385  0.7082 -0.2293
 5091SOL    HW222135   5.582   2.926   1.050  0.3442  0.5219 -0.0023
 5092SOL     OW22136   1.562   3.562   8.358 -0.4232 -0.4899  0.4552
 5092SOL    HW122137   1.537   3.497   8.292 -0.7423 -1.8483  1.8626
 5092SOL    HW222138   1.657   3.555   8.363 -0.3824 -0.2835  0.0728
 5093SOL     OW22139   5.709   4.277   7.590  0.1079  0.1559  0.0006
 5093SOL    HW122140   5.676   4.330   7.517  0.7646  2.1799  1.0805
 5093SOL    HW222141   5.657   4.305   7.665  0.9805 -0.2110  0.7589
 5094SOL     OW22142   1.961   1.135   9.312 -0.4266 -0.2599 -0.0692
 5094SOL    HW122143   1.873   1.102   9.297 -0.6088  0.0641  0.2621
 5094SOL    HW222144   2.019   1.061   9.292 -0.5664  0.3271 -3.1763
 5095SOL     OW22145   8.500   6.320   8.273 -0.1016  0.7382 -0.0433
 5095SOL    HW122146   8.469   6.353   8.188  1.5050 -0.6056 -1.2284
 5095SOL    HW222147   8.593   6.340   8.274 -0.0213  0.3722  1.2311
 5096SOL     OW22148  10.284   6.954   9.410  0.2300 -0.0125  0.1623
 5096SOL    HW122149  10.316   6.912   9.490  0.0408 -0.2068  0.1375
 5096SOL    HW222150  10.228   7.026   9.442  0.0264 -0.1889  0.2051
 5097SOL     OW22151   7.531   0.265   0.797  0.2386 -0.2172  0.1236
 5097SOL    HW122152   7.467   0.198   0.772 -0.3477  0.7697 -1.1436
 5097SOL    HW222153   7.588   0.274   0.720  1.6863 -0.7905  1.0799
 5098SOL     OW22154   3.945   4.155   5.850  0.5578  0.1586 -0.0306
 5098SOL    HW122155   3.900   4.239   5.861 -1.3508 -0.5827 -1.4836
 5098SOL    HW222156   3.960   4.149   5.756  1.3487 -0.8104  0.1458
 5099SOL     OW22157   9.818   1.812   4.025  0.1109  0.2281 -0.6583
 5099SOL    HW122158   9.884   1.749   4.055 -0.5871 -0.7696 -1.1383
 5099SOL    HW222159   9.748   1.805   4.090 -0.1856  0.1385 -0.9828
 5100SOL     OW22160  11.319  11.151   3.592  0.2890 -0.2310  0.2276
 5100SOL    HW122161  11.350  11.084   3.532  0.0548 -0.0976 -0.0433
 5100SOL    HW222162  11.399  11.187   3.631  0.5472  0.7643 -1.1587
 5101SOL     OW22163  11.291   0.074  12.336 -0.3854  0.2233  0.3731
 5101SOL    HW122164  11.371   0.125  12.347  0.1848 -0.5363 -0.0931
 5101SOL    HW222165  11.234   0.101  12.407 -0.6117  2.4332 -0.5756
 5102SOL     OW22166  11.432  10.859   2.951 -0.2492  0.2836 -0.4128
 5102SOL    HW122167  11.460  10.892   2.866  1.2881  0.8889  0.2958
 5102SOL    HW222168  11.456  10.766   2.950  0.3769  0.4413 -0.4034
 5103SOL     OW22169   1.986   9.553   5.951 -0.0188 -0.4647  0.1159
 5103SOL    HW122170   1.946   9.640   5.944  0.0170 -0.4144  0.5532
 5103SOL    HW222171   1.912   9.493   5.956 -0.0454 -0.4752 -0.3371
 5104SOL     OW22172   3.563   9.350  11.257  0.3392  0.2324  0.0234
 5104SOL    HW122173   3.607   9.280  11.305 -0.1398  0.3608  0.6581
 5104SOL    HW222174   3.542   9.311  11.172  1.2761  0.0334 -0.1261
 5105SOL     OW22175   1.120  10.905  10.034 -0.1357 -0.2951 -0.2107
 5105SOL    HW122176   1.080  10.855  10.106  0.1996 -2.2549 -1.2942
 5105SOL    HW222177   1.195  10.948  10.073  0.4374 -1.8746  0.5312
 5106SOL     OW22178   3.606   6.139   2.209 -0.0374 -0.1018  0.1814
 5106SOL    HW122179   3.646   6.176   2.131 -2.0477  0.5208 -0.6359
 5106SOL    HW222180   3.629   6.199   2.279  1.4913 -0.4678  0.0277
 5107SOL     OW22181   4.701   6.939  11.971 -0.3892  0.4513  0.1373
 5107SOL    HW122182   4.748   6.926  12.053 -0.4922  0.1210  0.1442
 5107SOL    HW222183   4.758   6.997  11.920 -0.2923  0.5986  0.4114
 5108SOL     OW22184   2.217  10.521  11.002 -0.3992  0.0315 -0.4139
 5108SOL    HW122185   2.173  10.605  10.992  0.3107  0.1943 -3.1841
 5108SOL    HW222186   2.310  10.544  11.011 -0.0601 -0.3757 -2.2868
 5109SOL     OW22187   5.500   1.879   0.905 -0.6890 -0.2503  0.2718
 5109SOL    HW122188   5.433   1.813   0.886 -0.9265  0.4020 -1.3125
 5109SOL    HW222189   5.571   1.859   0.843 -1.2573  1.6570 -1.0883
 5110SOL     OW22190   7.590   0.831   0.913  0.5125  0.4128 -0.2159
 5110SOL    HW122191   7.557   0.807   0.826  0.5817 -2.5417  0.4598
 5110SOL    HW222192   7.685   0.827   0.905  0.5433 -2.3600  0.4773
 5111SOL     OW22193   8.297   1.283   3.743  0.4142  0.0442 -0.5731
 5111SOL    HW122194   8.343   1.353   3.697 -0.3891  1.3697  0.5668
 5111SOL    HW222195   8.228   1.256   3.682  1.4377 -0.6037 -1.4918
 5112SOL     OW22196  10.687   9.662   2.996  0.6255 -0.4948  0.6735
 5112SOL    HW122197  10.666   9.631   3.084  1.5057 -2.6274  0.1990
 5112SOL    HW222198  10.621   9.619   2.940  1.6729 -1.3127  0.0270
 5113SOL     OW22199   4.026  10.285   9.716  0.3655 -0.0061 -0.3586
 5113SOL    HW122200   3.934  10.311   9.722  0.3332  0.3231 -1.8090
 5113SOL    HW222201   4.056  10.281   9.806 -0.6646  1.3798  0.0713
 5114SOL     OW22202   6.213   4.634  11.455  0.0815 -0.2374 -0.0920
 5114SOL    HW122203   6.284   4.634  11.519  1.1403 -0.1330 -1.2364
 5114SOL    HW222204   6.133   4.634  11.508  0.9020 -2.0458  1.2320
 5115SOL     OW22205   1.194   5.754   9.437  0.6404 -0.5375  0.6062
 5115SOL    HW122206   1.178   5.806   9.515  0.4459 -2.5235  1.9575
 5115SOL    HW222207   1.153   5.669   9.455 -0.7583 -0.6299 -2.2634
 5116SOL     OW22208   7.304   0.830  10.307 -0.6948  0.1027  0.0407
 5116SOL    HW122209   7.308   0.877  10.391 -1.5857  0.1480  0.0701
 5116SOL    HW222210   7.342   0.744  10.326  1.6790  1.0181 -0.1981
 5117SOL     OW22211  10.486   7.947  10.351  0.3477 -0.2988  0.6012
 5117SOL    HW122212  10.570   7.902  10.339  0.2356 -0.5363  0.6961
 5117SOL    HW222213  10.440   7.895  10.417  0.8076  0.7919  1.8187
 5118SOL     OW22214  11.779  10.746   2.082  0.4482 -0.4968  0.7004
 5118SOL    HW122215  11.848  10.685   2.108  1.8858  0.4928 -0.5846
 5118SOL    HW222216  11.819  10.799   2.013 -0.7866  1.7750  1.6155
 5119SOL     OW22217   2.215   4.571   3.504 -0.0292 -0.3088  0.0574
 5119SOL    HW122218   2.177   4.511   3.440 -1.2471 -1.2101  1.5583
 5119SOL    HW222219   2.146   4.636   3.519  0.9037  0.9174 -0.8051
 5120SOL     OW22220   0.785   5.676   7.530  0.3365  0.4430  0.5276
 5120SOL    HW122221   0.855   5.684   7.596  1.2268 -0.2546 -0.3043
 5120SOL    HW222222   0.769   5.766   7.501  1.7735  0.5049 -0.1539
 5121SOL     OW22223   3.132  11.327   2.946 -0.5457 -0.0788 -0.3232
 5121SOL    HW122224   3.077  11.357   2.874  0.0496 -0.4095 -0.9330
 5121SOL    HW222225   3.221  11.331   2.911 -0.1705  0.5520  0.6821
 5122SOL     OW22226  10.260   2.739  10.244  0.6508  0.1149  0.7666
 5122SOL    HW122227  10.347   2.717  10.277  0.5270 -0.1996  0.8881
 5122SOL    HW222228  10.237   2.820  10.291  0.6738 -0.0732  1.1091
 5123SOL     OW22229   1.982   8.748   0.750 -0.8307 -0.7713 -0.0027
 5123SOL    HW122230   1.936   8.807   0.809 -1.0628 -0.9402 -0.0158
 5123SOL    HW222231   1.927   8.743   0.673 -1.0565 -1.3936  0.1955
 5124SOL     OW22232   1.093   0.758  10.964 -0.2876 -0.4258 -0.1123
 5124SOL    HW122233   1.186   0.758  10.942 -0.5008 -0.5015 -1.0444
 5124SOL    HW222234   1.075   0.667  10.990 -0.3039 -0.6500 -0.8694
 5125SOL     OW22235   7.251   8.682   0.259 -0.6275 -0.3791  0.8086
 5125SOL    HW122236   7.212   8.630   0.188 -0.0195 -0.8838  0.8404
 5125SOL    HW222237   7.211   8.769   0.249  0.1628 -0.1447 -0.7598
 5126SOL     OW22238   7.080   5.119   7.408  0.2503 -0.0202  0.4325
 5126SOL    HW122239   7.171   5.096   7.391  0.0637 -0.9551  0.6851
 5126SOL    HW222240   7.084   5.212   7.433  1.2573 -0.3387  1.5073
 5127SOL     OW22241   4.264   5.554   0.847 -0.4307 -0.0510  0.3343
 5127SOL    HW122242   4.265   5.465   0.812  0.6747  1.0405 -2.6672
 5127SOL    HW222243   4.172   5.579   0.847 -0.7777 -1.2187  1.4236
 5128SOL     OW22244   2.964   1.465   1.196  0.7206 -0.2967  0.0983
 5128SOL    HW122245   2.987   1.533   1.134 -1.4830  0.6555  0.2094
 5128SOL    HW222246   2.992   1.383   1.155  2.0968  0.5539 -0.6955
 5129SOL     OW22247   2.950  11.430   8.787 -0.2591  0.2292  0.1613
 5129SOL    HW122248   3.001  11.428   8.706 -0.3689 -1.3791  0.0967
 5129SOL    HW222249   2.861  11.452   8.759 -0.1840  0.2281 -0.0798
 5130SOL     OW22250   4.413   5.476   4.840  0.1504 -0.2165  0.0339
 5130SOL    HW122251   4.324   5.486   4.874  0.2079  0.9027 -0.1016
 5130SOL    HW222252   4.446   5.397   4.882 -0.9084 -0.6527  0.0816
 5131SOL     OW22253   1.845   7.726   7.545  0.0681  0.0671  0.1178
 5131SOL    HW122254   1.814   7.739   7.634 -0.5197 -1.1671  0.1208
 5131SOL    HW222255   1.785   7.661   7.508  0.2597  0.6063 -1.2059
 5132SOL     OW22256   0.683   0.157  12.474  0.4459 -0.7570  0.3622
 5132SOL    HW122257   0.654   0.189  12.560  3.2727  0.8223  0.8688
 5132SOL    HW222258   0.665   0.230  12.414  1.5237 -0.5228  0.3103
 5133SOL     OW22259   1.462   4.259   0.660 -0.3871 -0.1422 -0.1009
 5133SOL    HW122260   1.413   4.177   0.661 -1.3153  0.4002  1.5247
 5133SOL    HW222261   1.439   4.303   0.742  0.7947  1.3413 -0.5053
 5134SOL     OW22262   6.518   8.090   0.302  0.2100 -0.0005  0.1242
 5134SOL    HW122263   6.596   8.078   0.248 -0.0957  0.5170 -0.4539
 5134SOL    HW222264   6.462   8.148   0.249 -0.8693 -0.9491  0.2048
 5135SOL     OW22265   0.032   0.625  10.823  0.3020  0.3830  0.4676
 5135SOL    HW122266  -0.050   0.673  10.814  0.8453  1.0058 -1.6441
 5135SOL    HW222267   0.090   0.686  10.870  1.2165  2.2823 -2.8056
 5136SOL     OW22268   9.243  11.447   4.708  0.4324 -0.4121  0.1388
 5136SOL    HW122269   9.149  11.464   4.703  0.5361  0.5763  1.2233
 5136SOL    HW222270   9.262  11.443   4.802  1.4905 -0.4943 -0.0639
 5137SOL     OW22271   8.519   8.620   5.702 -0.1347 -0.0391 -0.2207
 5137SOL    HW122272   8.578   8.690   5.731  0.5572 -0.3965 -0.7461
 5137SOL    HW222273   8.577   8.547   5.680 -0.7604 -0.3247 -0.9554
 5138SOL     OW22274   2.477   1.532   6.829  0.0819 -0.3997  0.1339
 5138SOL    HW122275   2.410   1.587   6.871 -0.7752 -2.0187  1.0047
 5138SOL    HW222276   2.519   1.590   6.765 -2.0581  0.7270 -0.3569
 5139SOL     OW22277   5.525   9.828   4.166  0.2502 -0.3611 -0.3080
 5139SOL    HW122278   5.476   9.846   4.246 -0.5868  0.2156 -0.9266
 5139SOL    HW222279   5.458   9.820   4.098  1.0074  0.4005 -1.1769
 5140SOL     OW22280   4.909  10.850   7.723  0.2993  0.2709  0.4666
 5140SOL    HW122281   4.941  10.769   7.684  1.1668  0.8933 -0.1581
 5140SOL    HW222282   4.988  10.904   7.733 -0.5687  2.0360 -1.5344
 5141SOL     OW22283   2.592  10.134   3.235 -0.4045 -0.4200 -0.1110
 5141SOL    HW122284   2.535  10.189   3.180 -1.4949 -0.3653  1.0436
 5141SOL    HW222285   2.535  10.103   3.305  0.9315 -0.6100  0.9151
 5142SOL     OW22286   5.283   5.453   7.474 -0.2466 -0.4695  0.3726
 5142SOL    HW122287   5.354   5.391   7.454  1.2832  0.9603  1.1305
 5142SOL    HW222288   5.282   5.457   7.570 -0.2300  0.7571  0.3304
 5143SOL     OW22289   5.961   2.403   8.524  0.7033  0.4929 -0.1670
 5143SOL    HW122290   5.966   2.346   8.448 -1.0998 -0.0097  0.0508
 5143SOL    HW222291   5.965   2.492   8.489  1.4061  0.2624 -0.6886
 5144SOL     OW22292   2.280  10.428   4.045  0.7012  0.2383 -0.3090
 5144SOL    HW122293   2.354  10.405   3.989  1.5419 -0.3178  0.9834
 5144SOL    HW222294   2.254  10.515   4.015  1.0473 -0.0899 -1.6196
 5145SOL     OW22295   1.798   6.333   5.981  0.3788 -0.1659  0.3075
 5145SOL    HW122296   1.709   6.309   5.956  0.1406  0.5739  0.4199
 5145SOL    HW222297   1.787   6.411   6.036  1.1760  0.7158 -0.7297
 5146SOL     OW22298  12.068   6.537   8.522  0.5202  0.4133  0.6813
 5146SOL    HW122299  12.129   6.590   8.572 -0.3491  0.9248  1.2161
 5146SOL    HW222300  12.014   6.600   8.474 -0.6045  0.0317  1.4162
 5147SOL     OW22301   6.561   4.398   4.042 -0.0817 -0.1018  0.4325
 5147SOL    HW122302   6.501   4.473   4.030  1.6812  1.7783  2.3916
 5147SOL    HW222303   6.604   4.388   3.957 -1.2286  0.3005 -0.2188
 5148SOL     OW22304   8.377  11.196   9.008 -0.5873  0.1646 -0.1801
 5148SOL    HW122305   8.306  11.140   9.039 -0.4939  1.1828  2.0595
 5148SOL    HW222306   8.343  11.285   9.017  0.3487  0.6008 -0.7975
 5149SOL     OW22307   3.904  10.594   3.708 -0.6586 -0.1923  0.0055
 5149SOL    HW122308   3.935  10.612   3.619 -1.6530 -0.8922 -0.5034
 5149SOL    HW222309   3.943  10.663   3.761  0.5470 -0.1813 -0.8429
 5150SOL     OW22310  10.674   6.039  12.307  0.4700  0.2332  0.1312
 5150SOL    HW122311  10.657   6.121  12.261  0.1141  0.2152  0.2304
 5150SOL    HW222312  10.704   5.979  12.238 -0.6808  0.0150 -0.1899
 5151SOL     OW22313  10.469   8.653   8.841 -0.4649 -0.0807  0.4532
 5151SOL    HW122314  10.531   8.593   8.884 -0.2343  0.6380  1.1556
 5151SOL    HW222315  10.493   8.739   8.874 -1.4143  0.2889  0.2050
 5152SOL     OW22316   9.677  11.169   0.852 -0.3004  0.0642 -0.1853
 5152SOL    HW122317   9.743  11.161   0.921  0.0907 -0.6795 -0.6336
 5152SOL    HW222318   9.723  11.209   0.779 -0.4494 -0.1117 -0.3755
 5153SOL     OW22319   3.784   8.603   0.827  0.0656 -0.6027  0.0764
 5153SOL    HW122320   3.785   8.555   0.744 -0.5720  0.0443 -0.3135
 5153SOL    HW222321   3.771   8.535   0.893 -2.0128 -0.9017 -0.5544
 5154SOL     OW22322  12.070   2.371   7.128 -0.2090  0.4098 -0.5558
 5154SOL    HW122323  12.089   2.461   7.105  0.1066  0.4425 -0.1763
 5154SOL    HW222324  12.080   2.322   7.046 -0.6676  0.7581 -0.8250
 5155SOL     OW22325   8.403   7.422  11.732 -0.1179  0.2120 -0.5949
 5155SOL    HW122326   8.444   7.494  11.780  1.2029 -0.4388 -0.7104
 5155SOL    HW222327   8.392   7.456  11.643 -4.1556  2.0570  0.3794
 5156SOL     OW22328   0.238   3.581   3.345 -0.4718  0.3991  0.0104
 5156SOL    HW122329   0.291   3.638   3.290  0.1273 -0.4451 -0.3076
 5156SOL    HW222330   0.147   3.602   3.322 -0.2385 -0.3588 -1.7616
 5157SOL     OW22331   7.596  12.380   7.204 -0.5990  0.7504 -0.2956
 5157SOL    HW122332   7.637  12.407   7.286 -2.6933  0.4817  0.9222
 5157SOL    HW222333   7.559  12.460   7.168  0.8775  0.9911 -1.3855
 5158SOL     OW22334   0.774  12.253   1.011 -0.4047 -0.1596 -0.0737
 5158SOL    HW122335   0.685  12.217   1.006 -0.4636  0.0387 -0.5120
 5158SOL    HW222336   0.766  12.326   1.073 -0.7782  0.4951 -0.8667
 5159SOL     OW22337   7.248   8.881   8.653 -0.0102 -0.6669  0.5232
 5159SOL    HW122338   7.157   8.879   8.622  0.2451  0.1061 -0.3230
 5159SOL    HW222339   7.299   8.850   8.578  0.5778  0.6626  0.3524
 5160SOL     OW22340  12.350   7.822  10.719  0.6191  0.0553  0.0374
 5160SOL    HW122341  12.364   7.906  10.762  1.4414 -0.3536  0.6057
 5160SOL    HW222342  12.402   7.828  10.639 -0.1186  0.4517 -0.4156
 5161SOL     OW22343   9.265   6.129   6.981  0.0259  0.1460  0.9097
 5161SOL    HW122344   9.352   6.170   6.986 -0.8060  1.9826  1.1460
 5161SOL    HW222345   9.273   6.066   6.909  1.3706  0.7836  0.4587
 5162SOL     OW22346   2.639   9.042   8.620 -0.2236  0.2875 -0.5423
 5162SOL    HW122347   2.728   9.049   8.588 -0.1203 -0.0403 -0.3299
 5162SOL    HW222348   2.618   8.949   8.614  0.2619 -0.0077  1.5393
 5163SOL     OW22349   2.520   1.371  10.675  0.5657 -0.2683  0.2610
 5163SOL    HW122350   2.555   1.459  10.684  0.4466 -0.2317  0.3671
 5163SOL    HW222351   2.589   1.322  10.629  0.1822  0.1661 -0.8126
 5164SOL     OW22352   3.182   5.698   4.403  0.1298  0.3413  0.6487
 5164SOL    HW122353   3.260   5.707   4.348 -0.0360  1.1371  0.5267
 5164SOL    HW222354   3.188   5.770   4.466 -0.9232  0.9444  0.0937
 5165SOL     OW22355   4.581   5.669   8.974  0.5938 -0.3804 -0.5812
 5165SOL    HW122356   4.648   5.636   9.034  0.3053 -2.0264 -1.1123
 5165SOL    HW222357   4.605   5.634   8.889 -0.3510 -0.1133 -0.9771
 5166SOL     OW22358   3.068   8.689  11.274 -0.1809  0.0519 -0.0548
 5166SOL    HW122359   3.162   8.676  11.284 -0.1468  0.3243 -0.0042
 5166SOL    HW222360   3.060   8.747  11.198 -0.3970 -1.3445 -1.1276
 5167SOL     OW22361   4.090  11.410   9.478  0.1070  0.1060 -0.2172
 5167SOL    HW122362   3.995  11.408   9.493 -0.1134  1.2293 -1.2506
 5167SOL    HW222363   4.128  11.378   9.559 -1.1883 -2.5649 -0.5451
 5168SOL     OW22364   6.397   5.580   7.413 -0.4012 -0.6504  0.2539
 5168SOL    HW122365   6.461   5.584   7.484  0.7812 -0.8012 -0.7636
 5168SOL    HW222366   6.433   5.636   7.345 -2.2954  0.7702  0.3408
 5169SOL     OW22367   3.969   9.368  11.715 -0.5502 -0.3171 -0.6720
 5169SOL    HW122368   3.930   9.328  11.793 -0.0251 -3.1659 -1.7550
 5169SOL    HW222369   4.025   9.437  11.749 -0.7994 -1.0822  1.4510
 5170SOL     OW22370   6.792   9.186   5.487  0.0566 -0.2491  0.3049
 5170SOL    HW122371   6.874   9.137   5.477 -0.3269 -0.8094 -0.1320
 5170SOL    HW222372   6.799   9.226   5.573  0.7684 -0.3400  0.2993
 5171SOL     OW22373   6.861   0.850   7.822  0.0734  0.4941  0.6360
 5171SOL    HW122374   6.861   0.790   7.896  0.3401  2.0574  1.9684
 5171SOL    HW222375   6.916   0.923   7.851  0.5256  0.9673 -1.2776
 5172SOL     OW22376   9.781   8.668   4.940  0.0496 -0.5088 -0.1301
 5172SOL    HW122377   9.720   8.696   4.871  0.1504  0.0451  0.0032
 5172SOL    HW222378   9.786   8.743   4.999 -0.2082 -1.0622  0.6112
 5173SOL     OW22379  11.544  10.646   5.348 -0.1926 -0.3609  0.4617
 5173SOL    HW122380  11.622  10.695   5.318 -1.0291  0.3870 -0.5808
 5173SOL    HW222381  11.578  10.586   5.414  1.2933 -0.1056 -0.0196
 5174SOL     OW22382   4.382   3.699   1.091  0.4470 -0.8128  0.2501
 5174SOL    HW122383   4.460   3.652   1.060  1.7736  1.4518 -0.0993
 5174SOL    HW222384   4.351   3.746   1.014  0.4987  0.5753  1.0393
 5175SOL     OW22385   3.823   2.681   6.124  0.6125  0.4612 -0.2662
 5175SOL    HW122386   3.742   2.631   6.113  0.5751  0.4593  0.0230
 5175SOL    HW222387   3.880   2.649   6.054  1.1029 -1.0066  0.7570
 5176SOL     OW22388   9.526  11.209   3.042 -0.2261  0.1682 -0.0397
 5176SOL    HW122389   9.446  11.225   3.093 -0.3448  0.4251 -0.2992
 5176SOL    HW222390   9.522  11.116   3.019 -0.0980  0.0160  0.5391
 5177SOL     OW22391   7.145   2.582   0.183 -0.5969 -0.0574 -0.5345
 5177SOL    HW122392   7.188   2.500   0.157 -0.8512 -0.5037  0.4226
 5177SOL    HW222393   7.163   2.642   0.110  0.8761 -0.4943 -0.5683
 5178SOL     OW22394   0.505   4.517  11.146 -0.2572  0.1570 -0.2360
 5178SOL    HW122395   0.451   4.504  11.224 -0.2484  0.4377 -0.1800
 5178SOL    HW222396   0.504   4.612  11.132 -0.0394  0.1334 -0.4218
 5179SOL     OW22397   1.235   8.168  10.396 -0.0747 -0.1309  0.2091
 5179SOL    HW122398   1.326   8.182  10.420  0.0899 -1.5984  0.5692
 5179SOL    HW222399   1.230   8.075  10.374 -2.0470 -0.8346  3.0356
 5180SOL     OW22400   9.021   8.488   8.421 -0.2381 -0.7173  0.1900
 5180SOL    HW122401   8.997   8.410   8.371  1.2662  0.1482 -2.0350
 5180SOL    HW222402   9.116   8.481   8.433 -0.2787  0.1197  1.1572
 5181SOL     OW22403   6.660   2.369  10.482 -0.4986 -0.5642  0.1825
 5181SOL    HW122404   6.683   2.401  10.395 -0.1157 -2.7991 -0.5844
 5181SOL    HW222405   6.620   2.445  10.525  0.9489  1.1265 -1.2683
 5182SOL     OW22406   4.182  12.025   1.690 -0.1394  0.5599 -0.0238
 5182SOL    HW122407   4.277  12.015   1.692 -0.0677  1.1684 -0.4498
 5182SOL    HW222408   4.164  12.105   1.739 -0.5186 -0.1110  0.9716
 5183SOL     OW22409   6.455   7.321   8.125  0.0414  0.3946  0.5309
 5183SOL    HW122410   6.497   7.301   8.209  0.9409  2.3736  0.6168
 5183SOL    HW222411   6.472   7.414   8.112  1.4444 -0.1763 -2.6783
 5184SOL     OW22412   6.485   1.292   9.852  0.0248 -0.6627 -0.0012
 5184SOL    HW122413   6.543   1.216   9.848 -1.9632 -2.2286 -1.9494
 5184SOL    HW222414   6.543   1.367   9.839  1.7829 -2.0090 -0.3346
 5185SOL     OW22415   8.724   6.226   3.701 -0.3179  0.3197  0.2534
 5185SOL    HW122416   8.747   6.319   3.695  0.8244  0.1939  1.8918
 5185SOL    HW222417   8.675   6.208   3.621  0.9618  1.9085 -0.9520
 5186SOL     OW22418  11.562  11.412   7.517  0.5626 -0.5019 -0.0405
 5186SOL    HW122419  11.541  11.477   7.584 -0.1815  0.3568 -1.0807
 5186SOL    HW222420  11.644  11.372   7.547 -0.2090 -0.7911  1.8441
 5187SOL     OW22421  10.637   1.161   0.000 -0.3972  0.1710 -0.2132
 5187SOL    HW122422  10.555   1.188  -0.042 -0.2537  1.0270  0.0319
 5187SOL    HW222423  10.643   1.067  -0.018 -0.8753  0.3052 -1.1767
 5188SOL     OW22424   1.740   7.598   6.982  0.2654  0.0434  0.2369
 5188SOL    HW122425   1.787   7.515   6.990  0.2901  0.1655  1.5241
 5188SOL    HW222426   1.803   7.656   6.938  1.1585  0.0560  1.4810
 5189SOL     OW22427   7.258   5.597   6.869 -0.1877  0.1811 -0.3327
 5189SOL    HW122428   7.170   5.565   6.886 -0.6217  1.4392 -0.1231
 5189SOL    HW222429   7.267   5.593   6.774  0.0040 -1.1241 -0.2758
 5190SOL     OW22430   4.211   3.860   6.763  0.2892  0.1894  0.8343
 5190SOL    HW122431   4.157   3.939   6.754 -1.0986 -0.7347  0.7435
 5190SOL    HW222432   4.297   3.887   6.731 -0.6352  1.1516 -1.0290
 5191SOL     OW22433   8.704   5.305   2.327 -0.4452 -0.4749  0.4178
 5191SOL    HW122434   8.760   5.228   2.319 -2.1449 -1.8973  1.5954
 5191SOL    HW222435   8.646   5.301   2.252 -1.6598 -1.3350  1.3729
 5192SOL     OW22436   5.440  11.381   3.837 -0.2756 -0.1415 -0.3147
 5192SOL    HW122437   5.347  11.362   3.848 -0.0685 -2.6072 -2.0996
 5192SOL    HW222438   5.480  11.297   3.813  2.5072  0.7541  0.7230
 5193SOL     OW22439  10.345   7.571   1.231  0.8585  0.2772  0.0918
 5193SOL    HW122440  10.391   7.610   1.305  0.5731  2.5970 -0.8538
 5193SOL    HW222441  10.257   7.608   1.235  0.7922  0.3430 -1.2677
 5194SOL     OW22442   8.774   2.619   5.249 -0.1747  0.4638 -0.4457
 5194SOL    HW122443   8.684   2.645   5.231  0.4438  3.7190  0.3669
 5194SOL    HW222444   8.768   2.529   5.280 -2.9247  0.0614 -1.8487
 5195SOL     OW22445  12.159   7.644   2.967 -0.4256 -0.4806 -0.2253
 5195SOL    HW122446  12.155   7.603   3.054 -4.5265  0.2868  0.1822
 5195SOL    HW222447  12.189   7.575   2.909 -1.6239 -2.3787  1.2682
 5196SOL     OW22448   1.188   6.344   2.995 -0.5201 -0.0005 -0.6268
 5196SOL    HW122449   1.129   6.382   3.061  0.8794  3.0907 -0.9637
 5196SOL    HW222450   1.165   6.390   2.914  0.0862 -1.2386 -1.5213
 5197SOL     OW22451   6.810  11.353   1.753  0.3648 -0.3836  0.5137
 5197SOL    HW122452   6.743  11.374   1.819  0.2299  0.7132  0.0540
 5197SOL    HW222453   6.893  11.364   1.799  0.2471 -1.3325  0.9711
 5198SOL     OW22454   5.725   2.430  12.009  0.8349  0.2868  0.0779
 5198SOL    HW122455   5.809   2.385  12.015  0.3047 -0.6126  1.1265
 5198SOL    HW222456   5.686   2.420  12.096 -1.0557 -0.7601 -0.8252
 5199SOL     OW22457   1.524   6.410   3.333  0.3345  0.6516  0.2167
 5199SOL    HW122458   1.575   6.438   3.257 -0.0354  0.7772  0.0125
 5199SOL    HW222459   1.444   6.373   3.295  0.2132  0.5838  0.5402
 5200SOL     OW22460   3.918   8.326   3.021 -0.1560  0.0312 -0.2728
 5200SOL    HW122461   3.942   8.393   2.956  1.0990  0.1060  0.2297
 5200SOL    HW222462   3.823   8.331   3.027 -0.0391  2.5514  0.5346
 5201SOL     OW22463  12.191   5.160   6.902  0.1520 -0.7334  0.0305
 5201SOL    HW122464  12.158   5.249   6.892  1.8306  0.5098  3.6449
 5201SOL    HW222465  12.124   5.117   6.956  0.3425 -0.9748  0.0713
 5202SOL     OW22466   8.903  10.958   9.069  0.3726  0.5152 -0.1468
 5202SOL    HW122467   8.821  10.971   9.020  1.2199  2.5012 -1.1282
 5202SOL    HW222468   8.919  10.864   9.061 -2.2448 -0.1213  0.8423
 5203SOL     OW22469  11.100   3.088  12.117  0.4756 -0.4096 -0.1558
 5203SOL    HW122470  11.187   3.047  12.115  0.5900 -0.1907  0.2969
 5203SOL    HW222471  11.113   3.172  12.071  1.4101  1.3320  3.0067
 5204SOL     OW22472   1.610   6.622   9.799 -0.2828 -0.0729 -0.0035
 5204SOL    HW122473   1.680   6.568   9.763 -0.0772 -0.3898  0.8462
 5204SOL    HW222474   1.632   6.631   9.891 -1.1884  0.1020  0.2050
 5205SOL     OW22475   9.508   0.850   0.680  0.1679 -0.0598 -0.6583
 5205SOL    HW122476   9.534   0.828   0.590 -1.1616  0.3135 -1.1625
 5205SOL    HW222477   9.590   0.856   0.728  0.8894 -0.5319 -1.7914
 5206SOL     OW22478  12.002   8.876  10.659 -0.2654 -0.3865  0.1584
 5206SOL    HW122479  12.049   8.888  10.577 -0.5836 -0.2353 -0.0038
 5206SOL    HW222480  12.055   8.812  10.708  1.4104  1.5444  1.0062
 5207SOL     OW22481   2.325   1.714   7.029  0.9021  0.9215 -0.4364
 5207SOL    HW122482   2.236   1.685   7.007  1.0069 -1.3206  1.5848
 5207SOL    HW222483   2.313   1.767   7.108  1.3484  0.7655 -0.2651
 5208SOL     OW22484  10.576  12.197   3.263  0.0371  0.0515 -0.3165
 5208SOL    HW122485  10.630  12.126   3.297 -0.1660 -0.5776 -1.2778
 5208SOL    HW222486  10.573  12.261   3.335  1.5801 -0.1443 -0.0434
 5209SOL     OW22487   9.095   2.055  10.282  0.1747 -0.7623  0.0650
 5209SOL    HW122488   9.169   2.041  10.341  1.1093 -1.0207 -1.1280
 5209SOL    HW222489   9.111   2.142  10.244  0.2450 -1.0871 -0.6823
 5210SOL     OW22490   0.106  11.470   3.583 -0.6146  0.3757 -0.2752
 5210SOL    HW122491   0.060  11.540   3.536 -2.2456 -0.9095 -0.6910
 5210SOL    HW222492   0.052  11.455   3.661  0.0887  0.0143  0.1470
 5211SOL     OW22493   4.020   9.828   2.579 -0.1189  0.2017 -0.0956
 5211SOL    HW122494   4.038   9.921   2.593  2.2557  0.2452 -2.5238
 5211SOL    HW222495   4.085   9.782   2.633  0.3848  0.0542 -0.8095
 5212SOL     OW22496   4.453   9.814  10.665  0.2906 -0.1240  0.1599
 5212SOL    HW122497   4.461   9.866  10.745  1.0477 -0.0804  0.0612
 5212SOL    HW222498   4.531   9.836  10.614  0.2938 -0.8661 -0.1719
 5213SOL     OW22499  12.359   1.821   6.259  0.3120 -0.8158  0.3889
 5213SOL    HW122500  12.416   1.896   6.241 -1.1989 -0.0766 -1.7209
 5213SOL    HW222501  12.376   1.761   6.186  1.0898 -2.3264  1.7472
 5214SOL     OW22502  10.847   1.085   1.779  0.1143 -0.1315 -0.2575
 5214SOL    HW122503  10.829   1.000   1.820 -1.1236  0.3628  0.2859
 5214SOL    HW222504  10.906   1.129   1.839  0.3417 -0.4045 -0.2803
 5215SOL     OW22505   7.263   0.424  11.958 -0.5881  0.4132  0.0608
 5215SOL    HW122506   7.330   0.407  12.025 -1.4976  0.5594  1.0281
 5215SOL    HW222507   7.199   0.354  11.971  0.8361 -1.6782 -2.9086
 5216SOL     OW22508   7.723   4.793   2.941  0.3015  0.3655  0.1619
 5216SOL    HW122509   7.780   4.767   2.869 -0.8898 -0.9022 -0.3780
 5216SOL    HW222510   7.769   4.769   3.020  1.0561  0.5551 -0.2146
 5217SOL     OW22511   0.866  10.002   4.388 -0.2048 -0.8469  0.3867
 5217SOL    HW122512   0.883  10.040   4.302  0.3218 -4.3481 -1.2301
 5217SOL    HW222513   0.774   9.974   4.385 -0.8652  0.9561  1.8794
 5218SOL     OW22514   5.918   7.584   0.240  0.1844  0.5111  0.0754
 5218SOL    HW122515   5.972   7.656   0.273 -0.1645  0.1273  1.5432
 5218SOL    HW222516   5.839   7.586   0.293  0.5576 -1.5146  0.8078
 5219SOL     OW22517   5.090   2.343   4.285 -0.0867  0.0485 -0.0676
 5219SOL    HW122518   5.107   2.362   4.377 -0.5333 -0.7729  0.1832
 5219SOL    HW222519   5.049   2.257   4.284  1.1598 -0.5786 -1.1384
 5220SOL     OW22520   5.548   4.298   8.052 -0.0058  0.5942  0.1965
 5220SOL    HW122521   5.642   4.284   8.056  0.3855  2.6409 -0.8139
 5220SOL    HW222522   5.526   4.344   8.133 -0.2002 -0.0696  0.5321
 5221SOL     OW22523  10.553   9.871   9.830  0.7297  0.1614 -0.3517
 5221SOL    HW122524  10.523   9.943   9.773  1.3372 -0.4936 -1.5415
 5221SOL    HW222525  10.630   9.906   9.873 -0.0541  0.8616  0.5348
 5222SOL     OW22526  10.049   1.958   3.725 -0.0476  0.0490  0.3342
 5222SOL    HW122527   9.963   1.968   3.767 -0.2990 -0.2829 -0.0910
 5222SOL    HW222528  10.049   2.021   3.654 -0.1586 -0.3352 -0.0100
 5223SOL     OW22529   5.595   2.332   2.672 -0.2530 -0.1792 -0.1525
 5223SOL    HW122530   5.546   2.344   2.753  0.3335  0.3430  0.1361
 5223SOL    HW222531   5.546   2.382   2.607  0.0095  0.5391  0.1866
 5224SOL     OW22532  11.979   7.356   8.678 -0.3043 -0.5274 -0.3867
 5224SOL    HW122533  12.011   7.315   8.598  1.5598  0.2422 -0.0904
 5224SOL    HW222534  12.030   7.437   8.686 -0.4126 -0.5858  1.5738
 5225SOL     OW22535   9.253   9.689  11.939 -0.3099  0.2926  0.4678
 5225SOL    HW122536   9.202   9.761  11.902 -1.5453 -0.6455  0.2849
 5225SOL    HW222537   9.325   9.676  11.877 -1.9434 -0.7889 -1.3307
 5226SOL     OW22538   7.030   9.006   0.623  0.2931 -0.3588 -0.1684
 5226SOL    HW122539   7.051   9.089   0.664 -0.0161  1.0203 -2.5906
 5226SOL    HW222540   7.111   8.955   0.629  0.4572  0.0398  1.4164
 5227SOL     OW22541   0.910  11.486  11.707 -0.0965  0.1529 -0.3074
 5227SOL    HW122542   0.921  11.498  11.613  2.2863  0.1347 -0.0996
 5227SOL    HW222543   0.883  11.571  11.740  0.0432  0.4232 -0.8939
 5228SOL     OW22544   8.274   6.690  11.360  0.5882  0.0081  0.0183
 5228SOL    HW122545   8.294   6.667  11.451  2.7341  1.0826 -0.1289
 5228SOL    HW222546   8.225   6.773  11.366  1.2195  0.3712  0.1760
 5229SOL     OW22547   2.680   9.771   6.845 -0.0136  0.1213  0.0306
 5229SOL    HW122548   2.647   9.778   6.756 -3.0026 -0.1481  0.9962
 5229SOL    HW222549   2.738   9.694   6.843 -0.7724 -0.4515 -1.4758
 5230SOL     OW22550   4.905   6.150  12.466  0.2378  0.0735  0.0167
 5230SOL    HW122551   4.987   6.144  12.515  0.7546  0.2920 -0.7895
 5230SOL    HW222552   4.915   6.230  12.414 -0.8607  0.5816  0.5593
 5231SOL     OW22553   3.544   2.385  12.406 -0.0608  0.3171 -0.5264
 5231SOL    HW122554   3.621   2.351  12.450 -0.9569 -0.7269  0.3093
 5231SOL    HW222555   3.491   2.307  12.388 -0.8215  0.9903 -1.2594
 5232SOL     OW22556   8.749   5.944   2.213 -0.1722 -0.1090  0.4602
 5232SOL    HW122557   8.815   6.002   2.176 -1.4328  0.8099 -0.4263
 5232SOL    HW222558   8.779   5.927   2.303  2.3943 -1.5118 -0.5548
 5233SOL     OW22559   6.670  10.668   8.368 -0.1565  0.6800 -0.1266
 5233SOL    HW122560   6.712  10.591   8.404  1.6998  1.4394 -0.5318
 5233SOL    HW222561   6.620  10.705   8.441  0.0616 -0.1395  0.4476
 5234SOL     OW22562   6.201   2.170   2.525 -0.1032 -0.3348 -0.3014
 5234SOL    HW122563   6.213   2.254   2.569 -0.4111 -0.5731  0.2486
 5234SOL    HW222564   6.277   2.162   2.467  0.9037 -0.5102  0.9897
 5235SOL     OW22565   0.264   6.570   5.156  0.6310 -0.6500  0.0034
 5235SOL    HW122566   0.242   6.500   5.094  0.8650 -0.1642 -0.6473
 5235SOL    HW222567   0.191   6.631   5.148 -0.2184 -1.4229  1.5233
 5236SOL     OW22568  10.501   1.470  11.411 -0.3397 -0.2931 -0.0356
 5236SOL    HW122569  10.428   1.490  11.470 -0.5112  0.5165 -0.5114
 5236SOL    HW222570  10.474   1.507  11.327  1.5603  1.9848  0.2814
 5237SOL     OW22571   5.339   3.220   0.140 -0.0319  0.3466 -0.2006
 5237SOL    HW122572   5.247   3.200   0.122  0.4575 -0.4028 -2.2396
 5237SOL    HW222573   5.371   3.259   0.059  1.8029 -0.7936 -0.0826
 5238SOL     OW22574   6.944   3.022   7.645  0.3529  0.1973 -0.2196
 5238SOL    HW122575   7.006   3.076   7.694 -0.3254  0.2304  0.6298
 5238SOL    HW222576   6.859   3.064   7.659  0.0435 -0.2195 -0.8172
 5239SOL     OW22577   9.226   5.164   9.807 -0.2026  0.2573 -0.0209
 5239SOL    HW122578   9.245   5.242   9.859 -2.3461  0.7107  0.1530
 5239SOL    HW222579   9.270   5.179   9.723 -1.1994  2.0240 -0.2633
 5240SOL     OW22580   7.624  10.307   5.203 -0.2980  1.0505  0.3619
 5240SOL    HW122581   7.571  10.368   5.254  1.1238  1.3029  1.6250
 5240SOL    HW222582   7.701  10.290   5.258 -0.8530 -2.3021  0.3121
 5241SOL     OW22583   4.530   5.775   5.992 -0.1444 -0.2419  0.1023
 5241SOL    HW122584   4.549   5.816   5.908  2.2327 -1.2024  0.1000
 5241SOL    HW222585   4.546   5.844   6.057 -2.1648  0.5556 -0.1810
 5242SOL     OW22586   8.953   6.909   6.387 -0.2211 -0.4181 -0.1514
 5242SOL    HW122587   8.876   6.939   6.436 -1.1166 -1.9876 -0.5018
 5242SOL    HW222588   9.024   6.965   6.416 -1.3139  0.4649  0.9001
 5243SOL     OW22589   9.051   2.807   7.058  0.2297 -0.0487 -1.0259
 5243SOL    HW122590   9.042   2.871   6.988 -1.1535 -0.1241 -0.9559
 5243SOL    HW222591   9.012   2.850   7.135 -1.2532 -1.1314 -1.1134
 5244SOL     OW22592   9.807   9.596   0.761 -0.6760  0.2387  0.4089
 5244SOL    HW122593   9.784   9.633   0.846 -0.3020  0.8072  0.2690
 5244SOL    HW222594   9.885   9.544   0.777  0.3035  1.5826  0.1472
 5245SOL     OW22595   8.715  12.122   7.180  0.4969  0.0933  0.3125
 5245SOL    HW122596   8.733  12.140   7.272  0.2606  0.1939  0.3416
 5245SOL    HW222597   8.679  12.034   7.179 -0.0915  0.3269  0.3943
 5246SOL     OW22598   0.108   9.515   2.203 -0.2060 -0.3845  0.3551
 5246SOL    HW122599   0.150   9.429   2.195  2.8886  0.7329  2.3731
 5246SOL    HW222600   0.137   9.563   2.126  2.6015  0.3785  1.7287
 5247SOL     OW22601   5.470   8.938   2.961  0.0154 -0.7152  0.2724
 5247SOL    HW122602   5.510   8.882   2.894  0.6642 -0.1584  0.1811
 5247SOL    HW222603   5.399   8.983   2.915 -0.5150 -1.4477  0.3477
 5248SOL     OW22604   5.694   3.009  12.102  0.4900 -0.4182 -0.0996
 5248SOL    HW122605   5.666   3.074  12.166 -0.1300 -1.5879  0.8720
 5248SOL    HW222606   5.617   2.953  12.090  1.1422 -1.2489 -0.5374
 5249SOL     OW22607   5.231   7.018   8.797 -0.7238 -0.6563  0.1278
 5249SOL    HW122608   5.324   7.032   8.781 -0.5039 -0.0521  1.7982
 5249SOL    HW222609   5.218   7.040   8.889 -3.0858  2.2270 -0.7563
 5250SOL     OW22610   6.825  10.991   5.034 -0.3013  0.3789 -0.2334
 5250SOL    HW122611   6.820  10.933   5.110 -0.9332  0.9547  0.1765
 5250SOL    HW222612   6.762  11.061   5.053  2.5918  2.9447  0.7699
 5251SOL     OW22613   7.892  11.369   1.865 -0.4970  0.1105 -0.2125
 5251SOL    HW122614   7.939  11.449   1.839 -1.4301  0.9117  0.4602
 5251SOL    HW222615   7.806  11.378   1.825 -0.6835 -0.4625  0.0498
 5252SOL     OW22616  10.074   6.652  10.995  0.8356 -0.3607 -0.3235
 5252SOL    HW122617  10.127   6.695  10.928 -0.2281  1.1631 -0.2561
 5252SOL    HW222618  10.037   6.575  10.951  1.6348 -0.4277 -0.9009
 5253SOL     OW22619   7.870   5.387   7.548 -0.0136  0.7378 -0.8581
 5253SOL    HW122620   7.822   5.467   7.568 -1.6042 -0.3981  0.2323
 5253SOL    HW222621   7.962   5.410   7.556 -0.4438  1.8098  2.3996
 5254SOL     OW22622   5.518   2.285  11.387 -0.0489  0.2387 -0.1686
 5254SOL    HW122623   5.443   2.227  11.375  0.5568 -0.0242 -3.4144
 5254SOL    HW222624   5.489   2.348  11.452 -1.7985 -1.8825  1.2613
 5255SOL     OW22625   1.585   5.193   4.119 -0.3520 -0.0409  0.3001
 5255SOL    HW122626   1.617   5.234   4.199 -2.0109 -0.0237  1.0166
 5255SOL    HW222627   1.515   5.251   4.089 -2.3284 -1.9204  0.9942
 5256SOL     OW22628   2.323   0.491  11.741  0.3297 -0.0653  0.7757
 5256SOL    HW122629   2.264   0.564  11.752 -0.4239 -0.4936 -0.2300
 5256SOL    HW222630   2.389   0.502  11.810 -0.7206  0.5997  1.7010
 5257SOL     OW22631   8.746   1.153  10.334  0.0358 -0.3442  0.0816
 5257SOL    HW122632   8.662   1.182  10.368  0.1544  0.3196 -0.1807
 5257SOL    HW222633   8.754   1.197  10.249  0.8967  0.0605  0.3585
 5258SOL     OW22634   8.810   5.125  10.182  0.6088  0.2827 -0.0121
 5258SOL    HW122635   8.807   5.201  10.239 -0.1456  0.7824 -0.6942
 5258SOL    HW222636   8.720   5.113  10.153  1.0165  0.2460 -1.3344
 5259SOL     OW22637  10.589  11.934   3.662 -0.2654  0.2269  0.2973
 5259SOL    HW122638  10.503  11.966   3.688 -0.8504 -0.4099 -0.7725
 5259SOL    HW222639  10.591  11.842   3.691  0.0662  0.2434  0.3394
 5260SOL     OW22640   8.911   6.748   1.160  0.4086  0.4528  0.4318
 5260SOL    HW122641   8.860   6.726   1.238 -0.6007 -0.0658 -0.3622
 5260SOL    HW222642   8.882   6.837   1.137  2.1342  1.4354  1.7462
 5261SOL     OW22643   9.665   6.426   8.696  0.0868  0.7120 -0.1775
 5261SOL    HW122644   9.581   6.445   8.737  0.3137  0.5165  0.3788
 5261SOL    HW222645   9.648   6.351   8.639 -0.1924  0.8915 -0.3314
 5262SOL     OW22646   0.846   3.058   2.378 -0.5250  0.1206 -0.3323
 5262SOL    HW122647   0.768   3.011   2.347 -1.1603  1.1162 -0.2810
 5262SOL    HW222648   0.830   3.073   2.471 -0.5514  0.8561 -0.4488
 5263SOL     OW22649   1.370   9.499   8.721 -0.2360  0.7823  0.0135
 5263SOL    HW122650   1.319   9.547   8.786 -0.9640  0.2269 -0.1267
 5263SOL    HW222651   1.359   9.549   8.640 -1.3898  0.1459 -0.2434
 5264SOL     OW22652   2.203   8.960  11.363  0.6169 -0.5759  0.2649
 5264SOL    HW122653   2.240   9.034  11.413  0.4796 -0.7574  0.6388
 5264SOL    HW222654   2.110   8.980  11.356  0.7055 -0.3344 -0.3044
 5265SOL     OW22655   0.215   8.183   5.266  0.2997  0.4240  0.2175
 5265SOL    HW122656   0.222   8.279   5.267  0.5222  0.4116 -0.1783
 5265SOL    HW222657   0.134   8.165   5.220  1.0663  0.3822 -1.1565
 5266SOL     OW22658   4.475   0.526  11.513 -0.5743 -0.3084  0.1909
 5266SOL    HW122659   4.467   0.563  11.425 -0.4759  0.4985  0.5078
 5266SOL    HW222660   4.531   0.449  11.501 -1.0915 -0.5812 -0.5481
 5267SOL     OW22661   1.887  11.167  11.108  0.4495 -0.5492  0.3188
 5267SOL    HW122662   1.795  11.186  11.093 -0.4144 -2.1075  2.8935
 5267SOL    HW222663   1.887  11.098  11.175  3.4868 -0.4999  0.5460
 5268SOL     OW22664  11.225   7.016   6.578  0.6323  0.3095  0.1555
 5268SOL    HW122665  11.160   7.026   6.648  1.3298 -1.3032  1.0893
 5268SOL    HW222666  11.206   7.087   6.517  0.1943  1.9650  2.1299
 5269SOL     OW22667   3.253   7.361   5.452  0.0724 -0.4769  0.0206
 5269SOL    HW122668   3.316   7.306   5.498  0.4870 -1.1269 -1.2537
 5269SOL    HW222669   3.274   7.347   5.359 -2.1928 -1.0061 -0.4530
 5270SOL     OW22670  11.694  10.004   3.189  0.0977 -0.2641 -0.2197
 5270SOL    HW122671  11.751   9.946   3.139 -1.2617 -3.0997  1.2551
 5270SOL    HW222672  11.606   9.988   3.154 -0.3077  1.0517  0.1277
 5271SOL     OW22673   6.871   1.182   0.463 -0.2372 -0.5980 -0.0847
 5271SOL    HW122674   6.858   1.115   0.530 -0.1484 -0.3433  0.1887
 5271SOL    HW222675   6.830   1.146   0.384  0.0679 -1.1007 -0.0181
 5272SOL     OW22676   7.338   2.068  10.314  0.0564 -0.8585  0.0625
 5272SOL    HW122677   7.402   1.997  10.314  0.9657 -0.0501  0.5284
 5272SOL    HW222678   7.386   2.145  10.285 -1.3236 -0.7400 -2.2210
 5273SOL     OW22679   3.000   8.983   7.299  0.0688 -0.1260 -0.5914
 5273SOL    HW122680   2.907   8.966   7.314  0.1421  0.7638  1.1649
 5273SOL    HW222681   3.005   9.078   7.287  0.6175 -0.3047 -1.9193
 5274SOL     OW22682   1.785  10.868  10.578 -0.8288 -0.4775 -0.0868
 5274SOL    HW122683   1.811  10.941  10.635 -0.0306 -0.9391  0.1606
 5274SOL    HW222684   1.793  10.791  10.633  0.3023 -0.9756 -0.9168
 5275SOL     OW22685  11.367   2.657  11.268 -0.1113 -0.2410 -0.3779
 5275SOL    HW122686  11.389   2.594  11.337  1.1866  1.0367  0.4304
 5275SOL    HW222687  11.273   2.672  11.278  0.2836  1.0930  2.2272
 5276SOL     OW22688   8.080  10.591   0.504  0.1141  0.1035 -0.4308
 5276SOL    HW122689   7.987  10.616   0.505 -0.8876 -3.0796 -0.6029
 5276SOL    HW222690   8.088  10.530   0.578  2.1139  0.4357 -0.3393
 5277SOL     OW22691   1.387  11.326  10.137  0.0786 -0.3002 -0.7530
 5277SOL    HW122692   1.318  11.270  10.172 -1.5948  0.6800 -2.2772
 5277SOL    HW222693   1.349  11.363  10.056  0.9531  3.1314  0.2180
 5278SOL     OW22694   6.593   4.141   2.780 -0.0431 -0.2286 -0.0465
 5278SOL    HW122695   6.537   4.216   2.799 -3.1444 -2.6276  1.1295
 5278SOL    HW222696   6.624   4.111   2.865  0.1924 -0.9595 -0.3795
 5279SOL     OW22697   1.167   9.922   5.257 -0.1273 -0.3070  0.1128
 5279SOL    HW122698   1.218   9.856   5.305 -0.9797 -1.6603 -0.7838
 5279SOL    HW222699   1.080   9.917   5.297 -0.1400  0.4634  0.1903
 5280SOL     OW22700   5.653   9.772  11.746  0.0949 -0.1474  0.6516
 5280SOL    HW122701   5.636   9.678  11.751 -1.9502  0.0649 -0.9476
 5280SOL    HW222702   5.612   9.808  11.825  1.1838 -0.5839  1.4495
 5281SOL     OW22703   7.707  10.406   2.297  0.1413  0.4406 -0.5152
 5281SOL    HW122704   7.653  10.468   2.347  0.6768  0.7565 -0.3111
 5281SOL    HW222705   7.651  10.330   2.285 -0.0894  0.4506  0.3672
 5282SOL     OW22706   5.534   9.080   5.095 -0.2401  1.1445 -0.9020
 5282SOL    HW122707   5.541   9.027   5.016 -1.6697  1.5789 -1.3421
 5282SOL    HW222708   5.529   9.016   5.166  3.5831  0.7125 -0.7919
 5283SOL     OW22709   6.949  11.959   8.622 -0.8066 -0.3958  0.4388
 5283SOL    HW122710   6.887  12.014   8.573 -1.7019 -1.2166  0.6088
 5283SOL    HW222711   6.978  11.893   8.558 -2.7447 -2.0912  1.1675
 5284SOL     OW22712   6.665   1.235   3.424  0.1507  0.1508 -0.8886
 5284SOL    HW122713   6.695   1.146   3.407  0.0390 -0.1689  0.5262
 5284SOL    HW222714   6.582   1.225   3.471  0.4007  0.9832 -0.2399
 5285SOL     OW22715   8.725  12.146  10.146  0.2541  0.3778 -0.1837
 5285SOL    HW122716   8.718  12.059  10.106 -1.1462  0.8061 -0.9446
 5285SOL    HW222717   8.665  12.200  10.096 -0.5729  1.2640  1.6518
 5286SOL     OW22718   9.802   9.124   1.609  0.0685  0.4752 -0.2551
 5286SOL    HW122719   9.707   9.123   1.622 -0.4656  0.9877 -3.3503
 5286SOL    HW222720   9.832   9.198   1.661 -1.0454 -0.2242  1.4997
 5287SOL     OW22721  10.039  10.797   4.499  0.8171 -0.2387  0.2105
 5287SOL    HW122722  10.076  10.810   4.586 -0.4882 -0.2883  0.8047
 5287SOL    HW222723  10.067  10.710   4.473  2.3253  0.2783 -0.0189
 5288SOL     OW22724   2.876   6.549  10.672 -0.5939 -0.4820  0.4834
 5288SOL    HW122725   2.924   6.579  10.749  0.9826 -1.3560 -0.0995
 5288SOL    HW222726   2.796   6.601  10.671  0.7675  1.7404  0.9831
 5289SOL     OW22727   9.686  10.127   1.894  0.1247  0.1202 -0.3131
 5289SOL    HW122728   9.600  10.122   1.853  0.3696 -1.5520 -0.7204
 5289SOL    HW222729   9.689  10.213   1.935 -1.6963  0.2387 -0.3619
 5290SOL     OW22730   6.066   6.984   7.858  0.6861 -0.0827  0.0575
 5290SOL    HW122731   6.020   6.978   7.941 -0.3019 -0.8432 -0.5208
 5290SOL    HW222732   6.066   7.077   7.837 -0.4257 -0.0477  0.1669
 5291SOL     OW22733   8.680   4.359   6.547 -0.0510  0.1902  0.0973
 5291SOL    HW122734   8.747   4.298   6.578 -0.4939 -0.7321 -0.7034
 5291SOL    HW222735   8.653   4.324   6.462 -0.8617  1.0875 -0.0350
 5292SOL     OW22736   2.849   2.904  10.532 -0.0415 -0.1624  0.3750
 5292SOL    HW122737   2.823   2.878  10.444  0.0357 -2.0167  0.8590
 5292SOL    HW222738   2.938   2.938  10.522  0.0747 -0.6248 -0.2143
 5293SOL     OW22739   0.739   4.987  10.779 -0.4783 -0.5103  0.1080
 5293SOL    HW122740   0.652   4.958  10.806  0.7899 -3.7656  1.1651
 5293SOL    HW222741   0.724   5.071  10.735 -3.7706  0.5485  2.8273
 5294SOL     OW22742   8.844   0.084   3.982 -0.2858 -0.4193  0.0555
 5294SOL    HW122743   8.820   0.030   3.906 -0.3790 -0.5295  0.1634
 5294SOL    HW222744   8.898   0.154   3.945 -0.2619 -0.5199 -0.1014
 5295SOL     OW22745   3.569   3.629   1.382 -0.4363 -0.1708 -0.4301
 5295SOL    HW122746   3.657   3.666   1.377 -0.3113 -0.5520 -1.0991
 5295SOL    HW222747   3.566   3.583   1.466 -0.6340  1.4329  0.4972
 5296SOL     OW22748   5.677   7.563   8.119  0.4305 -0.6208 -0.1680
 5296SOL    HW122749   5.608   7.624   8.092  0.6736  0.8772  2.2172
 5296SOL    HW222750   5.758   7.613   8.108  0.6952 -0.7038  1.2101
 5297SOL     OW22751   1.120   6.632   6.041  0.2295 -0.6012  0.2662
 5297SOL    HW122752   1.026   6.614   6.049  0.1574 -0.0436  0.7361
 5297SOL    HW222753   1.146   6.664   6.128 -0.0368  3.2692 -0.8687
 5298SOL     OW22754   4.501   5.305   2.285  0.0182 -0.2488  0.3448
 5298SOL    HW122755   4.488   5.223   2.332 -1.3813  0.2189  0.8505
 5298SOL    HW222756   4.436   5.364   2.323  0.7519  0.9845 -0.2572
 5299SOL     OW22757  12.007  10.202   0.712  0.2143 -0.7773  0.0788
 5299SOL    HW122758  11.937  10.180   0.650  0.6187 -0.4652 -0.5020
 5299SOL    HW222759  12.085  10.211   0.658  1.3506 -3.9077  1.0109
 5300SOL     OW22760   6.747   7.299   9.933  0.5563  0.3568  0.2126
 5300SOL    HW122761   6.834   7.310   9.894  0.9707  2.1088  1.4815
 5300SOL    HW222762   6.728   7.206   9.925  0.6030  0.5224 -4.0368
 5301SOL     OW22763   7.093   7.022  11.443 -0.3385  0.4506 -0.4177
 5301SOL    HW122764   7.096   6.940  11.493 -1.5741  0.0121 -1.0394
 5301SOL    HW222765   7.140   7.001  11.361  0.1153  0.6407 -0.2127
 5302SOL     OW22766   7.832  12.067   3.666  0.2348  0.0655  0.1159
 5302SOL    HW122767   7.857  12.060   3.758  1.4963  1.4402 -0.1010
 5302SOL    HW222768   7.787  12.151   3.660 -0.3446 -0.2767 -0.4308
 5303SOL     OW22769  11.234  10.934   2.162 -0.4667  0.1027 -0.1396
 5303SOL    HW122770  11.285  10.990   2.104 -0.5208  0.1727 -0.1207
 5303SOL    HW222771  11.239  10.977   2.248  0.1635 -0.3596  0.0539
 5304SOL     OW22772   0.867   8.452   7.284 -0.0487  0.0913  0.0674
 5304SOL    HW122773   0.803   8.507   7.239 -1.3824 -1.3436  0.1257
 5304SOL    HW222774   0.910   8.511   7.346  0.5850  1.6971 -1.8064
 5305SOL     OW22775  12.219   4.907  11.388 -0.2054 -0.5395 -0.5770
 5305SOL    HW122776  12.308   4.911  11.423 -0.0863 -1.3965 -0.7551
 5305SOL    HW222777  12.200   4.813  11.383 -1.2642 -0.3577 -0.1872
 5306SOL     OW22778   1.873   7.283  10.407  0.2567  0.3494  0.1782
 5306SOL    HW122779   1.920   7.252  10.485  1.4798 -0.4508 -0.8264
 5306SOL    HW222780   1.827   7.205  10.375  0.0779  0.5802 -0.1202
 5307SOL     OW22781   4.082   0.962   3.132  0.1263  0.4482  0.2512
 5307SOL    HW122782   4.005   1.018   3.121  0.1146  0.4467  0.3263
 5307SOL    HW222783   4.068   0.917   3.215  0.8289  1.4351  0.9304
 5308SOL     OW22784   0.482   0.939   4.063  0.0237 -0.5144 -0.6091
 5308SOL    HW122785   0.524   1.011   4.017 -0.9482  0.4330 -0.0461
 5308SOL    HW222786   0.510   0.861   4.016  0.8282  0.2538 -1.4319
 5309SOL     OW22787   7.231   5.634  11.794  0.6855  0.1997 -0.8219
 5309SOL    HW122788   7.186   5.657  11.713  2.0561  0.6045 -1.4888
 5309SOL    HW222789   7.280   5.712  11.818 -1.0407  0.7109  1.3767
 5310SOL     OW22790   7.257   8.398  11.605 -0.1980  0.1670 -0.7645
 5310SOL    HW122791   7.201   8.475  11.612  0.4317  0.5516  0.3231
 5310SOL    HW222792   7.326   8.424  11.544  0.2555  0.6333 -0.0655
 5311SOL     OW22793   8.220   5.261   5.764 -0.3748  0.3512 -0.0095
 5311SOL    HW122794   8.165   5.325   5.719 -0.7781 -0.1649 -0.2630
 5311SOL    HW222795   8.308   5.299   5.763 -0.8301  1.5080  0.9831
 5312SOL     OW22796  10.527   1.638   2.519 -0.3117 -0.1116  0.4162
 5312SOL    HW122797  10.513   1.553   2.479 -0.2493  1.0102 -2.2178
 5312SOL    HW222798  10.621   1.641   2.537  0.0932  0.1216 -1.4764
 5313SOL     OW22799   3.784   1.854   7.267  0.4390 -0.2683 -0.4489
 5313SOL    HW122800   3.760   1.863   7.174  0.5023 -0.8640 -0.5291
 5313SOL    HW222801   3.851   1.786   7.267 -0.5928 -1.3084  0.1957
 5314SOL     OW22802   1.054   6.052   3.832 -0.4164  0.7169 -0.0749
 5314SOL    HW122803   1.113   6.001   3.887 -0.1037  0.5077 -0.5959
 5314SOL    HW222804   1.019   5.988   3.770 -0.0296  1.1386 -0.7307
 5315SOL     OW22805   9.086   7.431  10.380 -0.3710  0.3359 -0.5128
 5315SOL    HW122806   9.025   7.369  10.419  0.2083 -0.8976 -1.4816
 5315SOL    HW222807   9.034   7.510  10.365 -1.4049 -0.2724 -0.2135
 5316SOL     OW22808   1.577   2.663  11.030 -0.5033  0.0391 -0.5045
 5316SOL    HW122809   1.503   2.619  11.071 -1.4701 -0.0394 -2.2525
 5316SOL    HW222810   1.605   2.604  10.960 -0.0443  0.9466 -1.1133
 5317SOL     OW22811   7.764   1.834  11.496  0.0957  0.5599 -0.2085
 5317SOL    HW122812   7.847   1.850  11.452  0.0797 -1.3633 -1.0334
 5317SOL    HW222813   7.788   1.787  11.576 -0.1910 -0.0337 -0.4674
 5318SOL     OW22814  11.491  11.839   1.785 -0.6166 -0.3709  0.6426
 5318SOL    HW122815  11.491  11.814   1.877 -0.4180 -0.8686  0.5121
 5318SOL    HW222816  11.422  11.785   1.745  0.6598 -1.6677  0.1165
 5319SOL     OW22817   6.382  10.677   3.860  0.0607  0.1736 -0.7038
 5319SOL    HW122818   6.453  10.620   3.889 -0.2149  0.3480  0.3560
 5319SOL    HW222819   6.311  10.661   3.922 -0.7683  0.1404 -1.6390
 5320SOL     OW22820   5.129   0.459   0.687  0.6353 -0.2591  0.6695
 5320SOL    HW122821   5.177   0.458   0.604  1.7083 -2.6225  1.2068
 5320SOL    HW222822   5.055   0.400   0.672  0.0948  0.3323  1.0045
 5321SOL     OW22823   3.426   3.046   9.527  0.2356  0.0517  0.3763
 5321SOL    HW122824   3.501   2.991   9.546  1.4904  2.1973  2.0632
 5321SOL    HW222825   3.462   3.123   9.484 -1.2416  0.3756 -0.3718
 5322SOL     OW22826   4.751   6.524   8.230 -0.2273  0.1579 -0.5032
 5322SOL    HW122827   4.755   6.542   8.324 -0.0979  0.8673 -0.6413
 5322SOL    HW222828   4.714   6.435   8.225  1.3128 -0.5720  0.2729
 5323SOL     OW22829   1.448   4.810   9.390 -0.0540  0.6180  0.4146
 5323SOL    HW122830   1.469   4.802   9.483 -2.3395  0.9397  1.0114
 5323SOL    HW222831   1.374   4.751   9.377  1.1854 -0.6264 -1.6045
 5324SOL     OW22832   8.778   2.806   1.986  0.0948  0.0989 -0.0230
 5324SOL    HW122833   8.832   2.844   2.056 -0.0686 -2.3502  1.5511
 5324SOL    HW222834   8.692   2.794   2.026 -0.7698  1.0056 -1.5119
 5325SOL     OW22835  10.653  10.027   3.385 -0.1704  0.0849 -0.1507
 5325SOL    HW122836  10.707  10.105   3.396  2.2962 -1.7279  1.8735
 5325SOL    HW222837  10.707   9.968   3.332 -2.0744 -0.2687 -1.8283
 5326SOL     OW22838   2.021   1.165  11.051  0.2634 -0.3735 -0.2843
 5326SOL    HW122839   2.088   1.105  11.018  0.7931 -1.1051  1.8871
 5326SOL    HW222840   1.963   1.110  11.103  0.2617  0.8373  1.0722
 5327SOL     OW22841   7.834   0.790   3.841  0.2597 -0.0168 -0.9557
 5327SOL    HW122842   7.906   0.853   3.835  0.9358 -0.6190  0.4068
 5327SOL    HW222843   7.874   0.706   3.816 -0.6944  0.0721 -3.0077
 5328SOL     OW22844  12.247   3.580   2.393 -0.6953  0.2959 -0.0411
 5328SOL    HW122845  12.168   3.628   2.371 -1.4186  0.5235  2.7804
 5328SOL    HW222846  12.244   3.568   2.488  1.8437 -1.1367 -0.0296
 5329SOL     OW22847   0.465   5.114   8.699  0.0292  0.2435 -0.8050
 5329SOL    HW122848   0.509   5.036   8.665 -0.5488  0.0090 -1.0182
 5329SOL    HW222849   0.461   5.099   8.794  0.6177  0.3739 -0.7588
 5330SOL     OW22850   8.407   0.300   3.720 -0.2314 -0.2814 -0.5026
 5330SOL    HW122851   8.430   0.373   3.778  0.0049 -0.4623 -0.3693
 5330SOL    HW222852   8.488   0.250   3.711  0.3739  0.9676 -2.7607
 5331SOL     OW22853  11.836   5.484  12.019  0.1260  0.3360  0.0895
 5331SOL    HW122854  11.745   5.510  12.036  0.0452  1.3168 -1.5986
 5331SOL    HW222855  11.873   5.558  11.971  0.9769 -1.2079 -1.7390
 5332SOL     OW22856   6.409   6.587   2.512 -0.2922 -0.1800 -0.0580
 5332SOL    HW122857   6.436   6.665   2.464 -0.4567  2.0056  3.0766
 5332SOL    HW222858   6.399   6.519   2.445  0.2815  2.3350 -2.8943
 5333SOL     OW22859   5.132   5.740   2.927 -0.3111  0.5618 -0.4408
 5333SOL    HW122860   5.049   5.768   2.887  0.0324  1.9661 -0.1997
 5333SOL    HW222861   5.156   5.811   2.986  1.1323  0.2352 -0.5957
 5334SOL     OW22862  10.802   1.467  12.103 -0.0383 -0.1676  0.3178
 5334SOL    HW122863  10.821   1.499  12.191  1.3598 -3.3748  1.3226
 5334SOL    HW222864  10.707   1.481  12.093 -0.1317  0.7918  2.0840
 5335SOL     OW22865   2.103   3.785  10.040  0.1579 -0.3178 -0.3787
 5335SOL    HW122866   2.130   3.877  10.044 -0.0367 -0.2716 -0.1148
 5335SOL    HW222867   2.051   3.780   9.959  1.5403 -0.5744 -1.2829
 5336SOL     OW22868   5.043   2.385   4.916  0.1662 -0.0099  0.5795
 5336SOL    HW122869   4.962   2.339   4.893 -0.1850 -0.1558  2.0162
 5336SOL    HW222870   5.110   2.344   4.861 -0.9425  1.1148 -1.7171
 5337SOL     OW22871   5.683   0.130   8.094 -0.2895  0.3147 -0.3429
 5337SOL    HW122872   5.715   0.041   8.107  1.2467  0.7887 -0.5983
 5337SOL    HW222873   5.643   0.154   8.178 -0.6465 -0.5665 -0.2475
 5338SOL     OW22874   4.225   0.504  11.465  0.0640 -0.1627  0.5110
 5338SOL    HW122875   4.222   0.591  11.424  0.0856 -0.2858  0.2491
 5338SOL    HW222876   4.319   0.486  11.476  0.0996 -0.7278 -0.6545
 5339SOL     OW22877   8.111   4.577   0.107  0.2793  0.3906 -0.3397
 5339SOL    HW122878   8.120   4.485   0.133 -1.2224  0.0623 -0.8816
 5339SOL    HW222879   8.168   4.586   0.031 -0.4238 -0.4153 -0.9853
 5340SOL     OW22880   5.871   4.180   0.788  0.5488  0.1398 -0.4549
 5340SOL    HW122881   5.820   4.219   0.717 -2.0528 -0.5070  0.9375
 5340SOL    HW222882   5.875   4.087   0.768 -1.4675 -0.2944  0.8654
 5341SOL     OW22883   3.649   6.336  11.561 -0.4374  0.3047  0.6337
 5341SOL    HW122884   3.610   6.383  11.635 -0.3414  0.8781  0.3283
 5341SOL    HW222885   3.741   6.323  11.585 -0.8506 -1.3143  1.4839
 5342SOL     OW22886  10.578   9.779  10.791 -0.4960  0.3490  0.0609
 5342SOL    HW122887  10.500   9.817  10.831 -0.4507 -0.8617  1.3535
 5342SOL    HW222888  10.545   9.722  10.721 -0.8872 -1.1845  1.4490
 5343SOL     OW22889   6.218   0.248   4.704 -0.4865 -0.0764  0.4570
 5343SOL    HW122890   6.291   0.256   4.642 -0.4106  0.5191  0.6249
 5343SOL    HW222891   6.141   0.234   4.648 -0.1157 -1.7261  0.3158
 5344SOL     OW22892   0.290  11.103   8.695  0.0570  0.8376 -0.4409
 5344SOL    HW122893   0.250  11.103   8.782 -1.3839 -0.1043 -1.0567
 5344SOL    HW222894   0.243  11.171   8.646 -1.9833 -1.2680 -1.6191
 5345SOL     OW22895   2.368   7.961   1.758 -0.2930 -0.4057 -0.0475
 5345SOL    HW122896   2.307   7.897   1.722 -0.0061 -0.3985 -0.5487
 5345SOL    HW222897   2.418   7.912   1.823  0.3680 -0.8659 -0.8809
 5346SOL     OW22898   9.832   0.537   7.434  0.1706 -0.3683  0.2929
 5346SOL    HW122899   9.778   0.467   7.469 -0.2258 -0.0077  0.4122
 5346SOL    HW222900   9.879   0.571   7.511  0.6210 -0.7267  0.1782
 5347SOL     OW22901   8.025   2.294  12.197  0.0821 -0.0523  0.1752
 5347SOL    HW122902   7.943   2.339  12.220 -1.3076 -1.1803 -2.1700
 5347SOL    HW222903   8.052   2.335  12.115  1.1985 -0.5479  0.2834
 5348SOL     OW22904   7.309   0.006   3.355 -0.3617 -0.1746  0.6618
 5348SOL    HW122905   7.261  -0.058   3.303  0.8555  0.2206 -1.0080
 5348SOL    HW222906   7.370   0.047   3.294  0.0622  1.4076  2.0571
 5349SOL     OW22907   2.950   5.052   1.397  0.7076  0.6223  0.0944
 5349SOL    HW122908   3.004   5.125   1.365  2.3739 -0.6407 -0.0898
 5349SOL    HW222909   3.008   5.002   1.454 -0.4230 -0.5274  0.2867
 5350SOL     OW22910  10.018   0.221   0.866  0.0720 -0.1877  0.0428
 5350SOL    HW122911  10.001   0.149   0.805 -0.6830 -0.9151  1.0701
 5350SOL    HW222912  10.109   0.244   0.851 -0.5356  0.8702 -2.5924
 5351SOL     OW22913   3.678   4.623  12.348  0.4534 -0.2443  0.0633
 5351SOL    HW122914   3.729   4.704  12.342 -0.5772  0.3647 -1.0317
 5351SOL    HW222915   3.740   4.554  12.329  1.1328  0.3654  0.0037
 5352SOL     OW22916   6.886   6.936   5.019 -0.1172  0.1299  0.4871
 5352SOL    HW122917   6.980   6.954   5.021 -0.2746  0.9370  1.1012
 5352SOL    HW222918   6.862   6.923   5.111 -0.2627 -2.0469  0.2002
 5353SOL     OW22919   5.769  10.050   6.732  0.1148 -0.0803  0.0072
 5353SOL    HW122920   5.789  10.010   6.817 -0.4113 -1.0290 -0.2925
 5353SOL    HW222921   5.682  10.089   6.743  0.2997  0.3131  0.0756
 5354SOL     OW22922   7.319   8.000   2.354 -0.0856  0.3882 -0.3591
 5354SOL    HW122923   7.235   8.022   2.395 -1.0054 -1.4065 -1.1635
 5354SOL    HW222924   7.363   7.944   2.417 -0.1811  0.0622 -0.5805
 5355SOL     OW22925   9.058   7.172   7.311  0.0503  0.1098  0.6376
 5355SOL    HW122926   9.028   7.106   7.248 -0.9839  0.3441  0.8603
 5355SOL    HW222927   9.135   7.134   7.351 -0.8692 -1.2360  1.1928
 5356SOL     OW22928  12.462  10.884   9.800 -0.4039  0.0614  0.5672
 5356SOL    HW122929  12.528  10.915   9.862 -2.0414 -1.1656  3.0983
 5356SOL    HW222930  12.411  10.962   9.777 -0.3533  0.3772  1.5213
 5357SOL     OW22931   2.541   9.663  10.681  0.4264 -0.2158 -0.2361
 5357SOL    HW122932   2.580   9.676  10.767  0.0812  2.0874 -0.3509
 5357SOL    HW222933   2.468   9.603  10.696  1.1227 -0.8017  0.8427
 5358SOL     OW22934   2.308   2.513   4.053 -0.3336  0.1618 -0.4365
 5358SOL    HW122935   2.308   2.490   4.145  1.7104  0.4882 -0.3143
 5358SOL    HW222936   2.223   2.482   4.020 -0.6625 -0.8882  1.2983
 5359SOL     OW22937   0.965   1.779   0.099  0.1858  0.1010 -0.4541
 5359SOL    HW122938   0.882   1.821   0.122 -0.1509 -0.1565 -1.1647
 5359SOL    HW222939   1.032   1.839   0.133 -0.2902  0.6735 -0.5054
 5360SOL     OW22940   6.165   2.668   6.783  0.3666 -0.4189 -0.4446
 5360SOL    HW122941   6.132   2.749   6.745 -0.7568 -1.7106 -2.3777
 5360SOL    HW222942   6.133   2.669   6.873 -1.5586  0.2557 -1.0899
 5361SOL     OW22943   0.428   4.303  10.038 -0.1181  0.3073  0.1053
 5361SOL    HW122944   0.472   4.339   9.960 -1.3611  0.7231 -0.4256
 5361SOL    HW222945   0.459   4.213  10.043 -0.0644  0.2549 -0.9233
 5362SOL     OW22946   4.211   7.681   5.939 -0.6866 -0.2517 -0.0646
 5362SOL    HW122947   4.285   7.696   5.998  1.6633 -1.7268 -2.3725
 5362SOL    HW222948   4.212   7.586   5.923  0.0163  0.2070 -3.7514
 5363SOL     OW22949  11.334  11.707  12.182  0.0076 -0.4561  0.0270
 5363SOL    HW122950  11.390  11.700  12.106 -1.6558  1.1811 -1.4470
 5363SOL    HW222951  11.282  11.627  12.182  0.9390 -1.0669  0.2481
 5364SOL     OW22952   1.200   5.143   1.978 -0.5184 -0.2922  0.4902
 5364SOL    HW122953   1.171   5.061   2.018 -0.1423 -1.1817 -0.9872
 5364SOL    HW222954   1.130   5.167   1.918 -0.3482  0.1413  0.4615
 5365SOL     OW22955  11.530   1.356   2.261  0.4784 -0.3555 -0.4781
 5365SOL    HW122956  11.444   1.316   2.276  0.5405  0.0420  1.1223
 5365SOL    HW222957  11.519   1.407   2.180 -1.3348  1.0497  0.5715
 5366SOL     OW22958   0.047   6.549   7.791  0.3187  0.4928 -0.4210
 5366SOL    HW122959   0.057   6.459   7.821 -0.3108  0.1636 -1.1604
 5366SOL    HW222960   0.074   6.602   7.865 -0.4577 -0.2989  0.4612
 5367SOL     OW22961   5.500   0.173  12.196  0.3970 -0.9855  0.1120
 5367SOL    HW122962   5.494   0.111  12.268  0.7295  0.1672  1.1644
 5367SOL    HW222963   5.561   0.239  12.226 -1.8125  1.2110  0.0768
 5368SOL     OW22964   3.980  11.926   8.850  0.4167  0.1026  0.1480
 5368SOL    HW122965   3.969  11.969   8.935  2.9901  1.2233  0.0171
 5368SOL    HW222966   3.927  11.979   8.790  0.9098  1.1138  0.5780
 5369SOL     OW22967  11.301   8.685   9.611  0.1131  0.6802 -0.7500
 5369SOL    HW122968  11.359   8.669   9.685  0.8962  0.8129 -1.3263
 5369SOL    HW222969  11.344   8.644   9.537 -1.0871 -0.2112 -0.9851
 5370SOL     OW22970   4.736   3.240   2.081 -0.0150 -0.0638  0.1986
 5370SOL    HW122971   4.754   3.281   2.166 -2.7823  1.7270  0.0454
 5370SOL    HW222972   4.747   3.311   2.018  1.1059 -1.1516 -0.8876
 5371SOL     OW22973   1.063   7.009   3.593 -0.0582 -0.8722  0.2443
 5371SOL    HW122974   1.137   7.070   3.595 -0.9831  0.3352 -0.6864
 5371SOL    HW222975   1.054   6.980   3.683  0.8319 -0.1416  0.5915
 5372SOL     OW22976   9.788   0.293   7.230 -0.2853  0.1607 -0.1474
 5372SOL    HW122977   9.736   0.293   7.150 -0.7387  1.9516  0.0961
 5372SOL    HW222978   9.727   0.324   7.298  1.1082  2.7659  0.0639
 5373SOL     OW22979   7.363   5.467   3.104  0.0141 -0.1809  0.2021
 5373SOL    HW122980   7.413   5.468   3.022  0.0773 -2.6386  0.1523
 5373SOL    HW222981   7.309   5.546   3.099  1.2291  0.6155 -1.4104
 5374SOL     OW22982   7.131   2.953   3.891  0.5535 -0.4383  0.4273
 5374SOL    HW122983   7.066   2.992   3.832  0.5993 -0.2207  0.5187
 5374SOL    HW222984   7.078   2.906   3.956  0.3288  1.9002  2.0585
 5375SOL     OW22985   9.917   6.963   8.292  0.0125  0.3768  0.6687
 5375SOL    HW122986   9.997   6.965   8.346  0.9897 -0.2176 -0.7015
 5375SOL    HW222987   9.911   6.873   8.261 -1.1225  0.4517  0.6179
 5376SOL     OW22988   3.983   8.378   4.846 -0.0498 -0.7329  0.0844
 5376SOL    HW122989   3.950   8.361   4.757  0.8747 -0.3821 -0.3436
 5376SOL    HW222990   4.050   8.445   4.834  0.7463 -1.3421  0.9252
 5377SOL     OW22991  10.842   9.148   9.394  0.1274 -0.2650 -0.4495
 5377SOL    HW122992  10.832   9.242   9.402  1.0595 -0.1143 -0.8896
 5377SOL    HW222993  10.932   9.131   9.422 -0.7948 -1.3576  2.2393
 5378SOL     OW22994   3.904   5.352   9.672 -0.4376 -0.2231 -0.3606
 5378SOL    HW122995   3.971   5.366   9.605  0.4979 -0.6576  0.4613
 5378SOL    HW222996   3.953   5.336   9.752 -1.5367 -0.1606  0.3470
 5379SOL     OW22997  11.696   2.316   9.305  0.4669 -0.0523  0.4952
 5379SOL    HW122998  11.680   2.410   9.301 -0.6273 -0.2596 -0.9421
 5379SOL    HW222999  11.660   2.288   9.389 -1.3880  0.4628 -0.0992
 5380SOL     OW23000   5.854   5.650   1.134 -0.2825  0.0940 -0.7487
 5380SOL    HW123001   5.892   5.704   1.203  0.3042 -0.0099 -0.9824
 5380SOL    HW223002   5.930   5.609   1.091 -0.6392  0.1839 -1.4764
 5381SOL     OW23003   0.434   9.264   4.999 -0.0074  0.0562 -0.5734
 5381SOL    HW123004   0.458   9.281   5.090 -0.5221 -1.5464 -0.1030
 5381SOL    HW223005   0.489   9.323   4.948 -0.1533  1.4309  0.7940
 5382SOL     OW23006   3.233   7.895   7.659 -0.3730  0.1892 -0.1279
 5382SOL    HW123007   3.190   7.981   7.660 -1.4652 -0.3388  0.4132
 5382SOL    HW223008   3.283   7.894   7.577 -1.6114  0.7467 -0.9186
 5383SOL     OW23009   1.881  10.342   6.643  0.4323 -0.0572  0.1321
 5383SOL    HW123010   1.858  10.356   6.551  1.4051 -0.1695 -0.1368
 5383SOL    HW223011   1.877  10.429   6.682 -2.1175 -0.2524  0.5347
 5384SOL     OW23012   4.954   2.587   7.609  0.0687  0.3908 -0.0026
 5384SOL    HW123013   5.015   2.593   7.683  2.0923 -1.7564 -1.3574
 5384SOL    HW223014   4.949   2.493   7.590  0.0039  0.8878 -2.8622
 5385SOL     OW23015   7.947   9.597   7.249  0.5543  0.0867 -0.0531
 5385SOL    HW123016   8.025   9.610   7.303  1.0535  1.0142 -0.9626
 5385SOL    HW223017   7.874   9.627   7.303  0.8343 -0.6022  0.7290
 5386SOL     OW23018   8.160   6.197  11.360 -0.3801  0.0258 -0.2614
 5386SOL    HW123019   8.146   6.241  11.444 -0.5393  0.6431 -0.6035
 5386SOL    HW223020   8.251   6.166  11.364 -0.8655 -1.3662  0.7670
 5387SOL     OW23021   8.445   2.774   3.934  0.3004  0.3662  0.1855
 5387SOL    HW123022   8.452   2.852   3.879  0.5222 -1.2357 -2.2344
 5387SOL    HW223023   8.528   2.772   3.982  1.0508  0.7255 -1.0365
 5388SOL     OW23024   2.636  10.336  11.733 -0.3363 -0.2631  0.2177
 5388SOL    HW123025   2.653  10.391  11.809  1.3076 -0.0228 -0.2775
 5388SOL    HW223026   2.613  10.397  11.663 -0.4681 -0.3734  0.1637
 5389SOL     OW23027   9.878   2.969   6.857 -0.1762 -0.5489  0.4276
 5389SOL    HW123028   9.797   2.951   6.905 -1.0641  0.5583 -0.5861
 5389SOL    HW223029   9.877   2.906   6.785  0.8807 -1.8422  1.4937
 5390SOL     OW23030   3.978   6.623   9.421  0.2899  0.9828  0.3547
 5390SOL    HW123031   4.072   6.611   9.427  0.1807  1.0200  2.9680
 5390SOL    HW223032   3.949   6.554   9.361  1.6071 -1.3467  2.2399
 5391SOL     OW23033   6.778   6.177   1.048  0.1308  0.4565  0.2114
 5391SOL    HW123034   6.733   6.205   0.968  0.8870 -2.2969 -1.3233
 5391SOL    HW223035   6.827   6.254   1.077 -0.6686  1.7189 -1.5979
 5392SOL     OW23036   6.761   4.953   2.868  0.3363 -0.1392  0.1676
 5392SOL    HW123037   6.781   4.875   2.920  1.3223  0.0728  0.1164
 5392SOL    HW223038   6.689   4.925   2.810  0.2448 -0.8133  0.5962
 5393SOL     OW23039   4.940   5.215   4.681  0.4252  0.2796 -0.2492
 5393SOL    HW123040   4.900   5.284   4.734  2.5320  0.2871  1.4958
 5393SOL    HW223041   5.006   5.260   4.628 -0.2516 -0.0272 -1.3944
 5394SOL     OW23042  11.677   3.919   8.458  0.3706  0.0677 -0.3360
 5394SOL    HW123043  11.703   3.928   8.366  2.8439  0.1236  0.2762
 5394SOL    HW223044  11.677   4.009   8.492  2.0061 -0.1169  0.2677
 5395SOL     OW23045   3.621  11.266  11.457 -0.1240 -0.2535  0.4743
 5395SOL    HW123046   3.622  11.175  11.484 -1.3594 -0.0935  1.1451
 5395SOL    HW223047   3.625  11.263  11.362  0.7644 -0.9618  0.5216
 5396SOL     OW23048   0.206   0.357  10.866 -0.4808 -0.1793 -0.2341
 5396SOL    HW123049   0.131   0.298  10.861 -1.3895  0.9150  0.0381
 5396SOL    HW223050   0.190   0.422  10.798 -0.8488  1.2303  1.1544
 5397SOL     OW23051  11.123  11.241  11.909  0.2315 -0.3006  0.4326
 5397SOL    HW123052  11.093  11.263  11.997  0.8157  0.7254  0.3865
 5397SOL    HW223053  11.045  11.209  11.864 -0.5122  1.0217  0.7401
 5398SOL     OW23054   3.766   4.884   1.687 -0.1070 -0.3788  0.3488
 5398SOL    HW123055   3.858   4.907   1.704  0.3065 -1.1540 -0.7897
 5398SOL    HW223056   3.764   4.789   1.691 -0.4986 -0.4584 -1.3956
 5399SOL     OW23057   0.552   8.941   9.012  0.1493  1.0639  0.3683
 5399SOL    HW123058   0.537   9.032   8.985  1.5014  0.9747 -0.7783
 5399SOL    HW223059   0.647   8.930   9.006 -0.0622 -0.6411 -0.1999
 5400SOL     OW23060   8.551   0.046   9.335 -0.0341 -0.4989  0.3728
 5400SOL    HW123061   8.490   0.104   9.290 -0.5140 -0.8385  0.5780
 5400SOL    HW223062   8.496  -0.024   9.370  0.4643 -0.7672  0.6268
 5401SOL     OW23063   5.717   1.121   5.330  0.0984 -0.4337 -0.0710
 5401SOL    HW123064   5.789   1.068   5.365  0.7062  0.1228 -0.4520
 5401SOL    HW223065   5.682   1.167   5.407  0.7006 -0.0647 -0.0096
 5402SOL     OW23066  12.311   3.714   1.684 -0.0416 -0.0578 -0.5704
 5402SOL    HW123067  12.338   3.662   1.760 -1.0061 -1.1835 -0.9706
 5402SOL    HW223068  12.393   3.748   1.649  0.7813 -2.1767 -0.8957
 5403SOL     OW23069   2.377   2.203   4.128 -0.2289  0.2608  0.4447
 5403SOL    HW123070   2.324   2.216   4.207 -1.6889 -0.3756 -0.3889
 5403SOL    HW223071   2.314   2.176   4.061  1.0912  0.0016 -0.7387
 5404SOL     OW23072   4.894  11.395   3.935  0.0027 -0.2132 -0.2822
 5404SOL    HW123073   4.804  11.427   3.937 -0.6353 -1.9026 -0.3499
 5404SOL    HW223074   4.931  11.432   3.854 -0.6681  0.3650 -0.3355
 5405SOL     OW23075   9.094   1.834   5.903 -0.7014 -0.3068  0.1421
 5405SOL    HW123076   9.184   1.802   5.897 -0.8994 -0.6514 -1.1957
 5405SOL    HW223077   9.045   1.779   5.843 -1.7618  0.0852  0.6250
 5406SOL     OW23078   8.589  11.135   6.252 -0.1612  0.6262  0.7564
 5406SOL    HW123079   8.571  11.228   6.243 -0.9221  0.4734  0.6248
 5406SOL    HW223080   8.517  11.092   6.205  1.1009 -0.0058 -0.6863
 5407SOL     OW23081   4.873   3.111   9.498 -0.6943 -0.6092  0.2922
 5407SOL    HW123082   4.934   3.147   9.562 -0.4849 -1.5536  0.6438
 5407SOL    HW223083   4.923   3.111   9.416 -1.2518  1.4047 -0.1039
 5408SOL     OW23084   8.511  10.831   9.535  0.2725  0.5007 -0.5800
 5408SOL    HW123085   8.470  10.825   9.622 -1.0938  0.6060 -1.1908
 5408SOL    HW223086   8.535  10.923   9.526  3.4321 -0.0394  0.9565
 5409SOL     OW23087   4.973  11.777   7.481  0.1327  0.0529 -0.5913
 5409SOL    HW123088   4.908  11.835   7.521  1.0891  1.1965 -0.6438
 5409SOL    HW223089   4.956  11.782   7.387 -0.4218 -0.5425 -0.5244
 5410SOL     OW23090   9.770   1.866   6.366  0.0271 -0.1301 -0.0714
 5410SOL    HW123091   9.803   1.924   6.298 -0.3305 -1.3247 -1.3173
 5410SOL    HW223092   9.702   1.917   6.411  1.0340  1.0596  0.1445
 5411SOL     OW23093  12.135   7.164   4.833 -0.4089 -0.4735 -0.1737
 5411SOL    HW123094  12.122   7.146   4.740 -0.8490  0.7085 -0.3642
 5411SOL    HW223095  12.219   7.122   4.854 -0.4620 -1.0285 -1.0172
 5412SOL     OW23096   3.975   8.779   0.576  1.0567 -0.2877 -0.2565
 5412SOL    HW123097   4.018   8.694   0.583 -0.6782 -1.0635  2.4096
 5412SOL    HW223098   3.911   8.768   0.507  1.2454 -0.9604 -0.3299
 5413SOL     OW23099   4.501  10.261   0.840 -0.7530 -0.2744  0.2762
 5413SOL    HW123100   4.454  10.345   0.845  0.1459  0.1560  2.0259
 5413SOL    HW223101   4.591  10.282   0.866 -0.7516 -1.9468  1.8062
 5414SOL     OW23102  10.447   7.141  10.214  0.3856 -0.1591 -0.7533
 5414SOL    HW123103  10.424   7.227  10.251 -1.0226 -0.4760 -0.8249
 5414SOL    HW223104  10.393   7.134  10.135 -0.4969 -1.6338 -0.0636
 5415SOL     OW23105   0.998  11.743   2.556  0.1332 -0.2284 -0.4238
 5415SOL    HW123106   0.994  11.653   2.588 -0.8484 -1.2031 -3.0220
 5415SOL    HW223107   1.083  11.748   2.511  0.4473  0.3620  0.2183
 5416SOL     OW23108   9.576   6.324   7.915 -0.5476  0.3992 -0.3181
 5416SOL    HW123109   9.668   6.351   7.913 -0.3222 -0.1937  1.0623
 5416SOL    HW223110   9.579   6.230   7.901 -0.9356  0.3687 -0.1942
 5417SOL     OW23111   7.061  11.589   2.179 -0.0090 -0.0264  0.4816
 5417SOL    HW123112   6.965  11.580   2.177  0.0878 -1.0773 -0.5064
 5417SOL    HW223113   7.089  11.523   2.243  0.2080 -1.7960 -1.3327
 5418SOL     OW23114   1.551   7.336   5.826  0.1568  0.9341  0.0117
 5418SOL    HW123115   1.476   7.297   5.870 -0.4486 -1.4018 -2.7929
 5418SOL    HW223116   1.539   7.431   5.837 -2.8026  0.6119  0.3120
 5419SOL     OW23117   2.920   3.432   6.271 -0.0648  0.7205  0.0190
 5419SOL    HW123118   2.840   3.483   6.272 -0.8127 -0.3658 -1.6561
 5419SOL    HW223119   2.897   3.349   6.313 -0.0521  0.1057 -1.1548
 5420SOL     OW23120   8.199   4.979   0.488  0.4587 -0.3152  0.5738
 5420SOL    HW123121   8.130   5.028   0.442  0.1486 -1.2229  0.0418
 5420SOL    HW223122   8.278   4.996   0.438  0.6107  0.6419  1.1210
 5421SOL     OW23123  10.089   2.921   2.574  0.0721  0.5865 -0.5941
 5421SOL    HW123124  10.023   2.874   2.523  0.0823 -0.9351  0.7060
 5421SOL    HW223125  10.049   3.005   2.595 -1.3611 -0.2161 -0.0172
 5422SOL     OW23126  10.487   1.233   2.389  0.2648  0.5390  0.2391
 5422SOL    HW123127  10.557   1.291   2.362  0.7263  0.7171  1.6936
 5422SOL    HW223128  10.443   1.207   2.308  1.2701  1.3590 -0.5861
 5423SOL     OW23129  11.326   0.134  11.179  0.1535 -0.3685  0.0412
 5423SOL    HW123130  11.261   0.167  11.242  0.6245 -0.4047  0.5590
 5423SOL    HW223131  11.392   0.091  11.234 -0.0884 -1.5487 -0.5692
 5424SOL     OW23132   5.846   1.551   4.057  0.2312  0.6619  0.2696
 5424SOL    HW123133   5.844   1.646   4.069 -0.1689  0.8094 -0.8534
 5424SOL    HW223134   5.801   1.516   4.134 -0.4303  1.4257  0.2397
 5425SOL     OW23135  10.750   7.548  10.252  0.4056  0.1715 -0.2644
 5425SOL    HW123136  10.800   7.560  10.333 -0.3189 -0.5730  0.3128
 5425SOL    HW223137  10.713   7.460  10.259  0.7078 -0.0901 -1.6263
 5426SOL     OW23138   8.615  11.955   3.605  0.2117 -0.4073 -0.1882
 5426SOL    HW123139   8.708  11.935   3.593  0.5596  1.1804 -0.3740
 5426SOL    HW223140   8.614  12.045   3.639 -1.2172 -0.8005  0.8971
 5427SOL     OW23141   0.906   0.063   0.724 -0.0371  0.0541 -0.0626
 5427SOL    HW123142   0.812   0.066   0.712  0.0184 -0.4672 -0.7065
 5427SOL    HW223143   0.942   0.092   0.640  0.3737 -1.6343 -0.5124
 5428SOL     OW23144   8.177   7.741  10.065 -0.5350 -0.0736 -0.1176
 5428SOL    HW123145   8.189   7.834  10.050 -1.8013  0.1740  0.2157
 5428SOL    HW223146   8.160   7.705   9.978  0.3506 -0.0686 -0.2973
 5429SOL     OW23147   5.134   3.168   5.901 -0.2518 -0.1505  0.0567
 5429SOL    HW123148   5.075   3.104   5.861 -0.8901 -0.3905  1.3414
 5429SOL    HW223149   5.219   3.123   5.905 -0.2859 -0.2793 -0.6080
 5430SOL     OW23150   9.204  11.551  10.672  0.7771  0.3674  0.4199
 5430SOL    HW123151   9.133  11.523  10.615  1.5403  0.7322 -0.7534
 5430SOL    HW223152   9.215  11.479  10.734 -0.2370  0.0696  0.2705
 5431SOL     OW23153   5.734   4.692   0.246  0.0054  0.1685 -0.1568
 5431SOL    HW123154   5.752   4.598   0.248  2.1166  0.5408  1.1886
 5431SOL    HW223155   5.762   4.724   0.332 -1.0833  1.9820 -0.4251
 5432SOL     OW23156  11.011   4.993   3.090  0.4749 -0.3792  0.2780
 5432SOL    HW123157  10.973   5.058   3.150  1.2307 -0.9927  1.4640
 5432SOL    HW223158  11.095   4.972   3.129  0.8128 -1.0966 -0.8185
 5433SOL     OW23159   0.648   4.665   1.850  0.1072  0.3628 -0.2650
 5433SOL    HW123160   0.555   4.651   1.830 -0.3355  2.8215 -0.2352
 5433SOL    HW223161   0.650   4.683   1.944  0.4392  1.3471 -0.4461
 5434SOL     OW23162   3.090   3.280   6.089 -0.1283  0.0631 -0.1685
 5434SOL    HW123163   3.020   3.304   6.028  0.5822  1.9742 -0.3137
 5434SOL    HW223164   3.108   3.361   6.137 -0.3195 -1.2429  2.2875
 5435SOL     OW23165   2.252   3.677   2.476  0.1930  0.0474  0.0056
 5435SOL    HW123166   2.223   3.655   2.388 -0.2298  1.0352 -0.1204
 5435SOL    HW223167   2.272   3.771   2.472 -0.0157  0.1510  0.9998
 5436SOL     OW23168  11.573   4.175   0.510  0.2190 -0.4746 -0.6722
 5436SOL    HW123169  11.561   4.178   0.605 -1.5050 -0.3751 -0.8561
 5436SOL    HW223170  11.657   4.132   0.497  0.7182 -0.0148  0.9104
 5437SOL     OW23171  10.321   8.624   3.423  0.4399  0.2123 -0.0787
 5437SOL    HW123172  10.347   8.533   3.436 -1.4997 -0.2184  1.1631
 5437SOL    HW223173  10.386   8.675   3.472  0.1775 -0.6711  1.2188
 5438SOL     OW23174   4.080  10.031   8.466  0.3088  0.0218  0.2994
 5438SOL    HW123175   4.124   9.962   8.516 -0.0783  0.1100  0.7668
 5438SOL    HW223176   4.106  10.112   8.509  0.3369  0.1365  0.0719
 5439SOL     OW23177   5.205   8.214   2.498 -0.4484  0.4720 -0.3063
 5439SOL    HW123178   5.249   8.284   2.546 -1.8516  0.1070  1.5818
 5439SOL    HW223179   5.119   8.207   2.537 -0.9965 -1.1286 -1.6609
 5440SOL     OW23180   5.077  12.064   8.359 -0.0587  0.4871  0.5225
 5440SOL    HW123181   5.163  12.075   8.398  0.0197  0.0522  0.4770
 5440SOL    HW223182   5.019  12.117   8.415  0.4365  1.8922 -0.2396
 5441SOL     OW23183   7.875   8.384   8.913  0.1311 -0.0048  0.1775
 5441SOL    HW123184   7.829   8.387   8.830 -1.7747  1.4695  1.2012
 5441SOL    HW223185   7.844   8.304   8.955 -0.9936  0.5819  0.5279
 5442SOL     OW23186   8.243  10.321   2.124  0.4563  0.0842 -0.0657
 5442SOL    HW123187   8.185  10.282   2.059 -0.1582  2.2188 -0.8809
 5442SOL    HW223188   8.186  10.339   2.199 -0.2552  2.9764 -1.1867
 5443SOL     OW23189   1.753   9.408   5.960 -0.6679 -0.3170  0.1871
 5443SOL    HW123190   1.757   9.364   5.875  0.4069 -2.0435  1.0632
 5443SOL    HW223191   1.674   9.461   5.956  0.0515  0.7188 -2.3767
 5444SOL     OW23192   0.862   0.080   9.414  0.1174 -0.0457  0.0264
 5444SOL    HW123193   0.777   0.121   9.425 -0.4293 -1.0418 -0.3704
 5444SOL    HW223194   0.846   0.007   9.353  1.3392  0.0599 -0.4563
 5445SOL     OW23195   7.086   0.766   2.539  0.1786  0.3257 -0.1451
 5445SOL    HW123196   7.025   0.799   2.605  0.6677  1.8641 -0.4213
 5445SOL    HW223197   7.108   0.677   2.569 -1.1189  0.2630  0.6818
 5446SOL     OW23198   5.014   7.583   9.786  0.6827 -0.9293 -0.3096
 5446SOL    HW123199   4.927   7.545   9.796 -0.0002  0.8631  1.2936
 5446SOL    HW223200   5.069   7.536   9.848  0.7394 -1.6955 -0.9312
 5447SOL     OW23201   8.181   9.458  11.491 -0.3489 -0.2475  0.2528
 5447SOL    HW123202   8.228   9.534  11.525 -0.1985 -0.2204 -0.0160
 5447SOL    HW223203   8.219   9.383  11.537 -0.1741 -0.2078  0.1735
 5448SOL     OW23204  11.223   6.246   8.251  0.1310 -0.4629 -0.4672
 5448SOL    HW123205  11.145   6.209   8.293 -0.3280  0.8592 -0.1044
 5448SOL    HW223206  11.279   6.171   8.234 -0.0357 -1.1656  1.7528
 5449SOL     OW23207   3.911   9.018   3.182 -0.6548 -0.3878  0.4170
 5449SOL    HW123208   4.007   9.011   3.176 -0.8265 -2.7684 -0.6206
 5449SOL    HW223209   3.897   9.099   3.231  1.8356  0.9523 -0.8342
 5450SOL     OW23210   4.568   0.851   9.173  0.5663  0.0471  0.2865
 5450SOL    HW123211   4.598   0.888   9.091 -0.8143  0.6225  0.0111
 5450SOL    HW223212   4.492   0.797   9.149 -0.8221  1.4423  1.3119
 5451SOL     OW23213   0.825   2.853   9.275 -0.3602 -0.1414 -0.0362
 5451SOL    HW123214   0.916   2.840   9.248 -1.2383 -2.8920 -2.1421
 5451SOL    HW223215   0.795   2.766   9.299 -1.8821  1.0651  2.8413
 5452SOL     OW23216  10.571   6.384   5.554  0.0657  0.3936  0.0654
 5452SOL    HW123217  10.527   6.468   5.565 -0.8510 -0.0559 -0.0450
 5452SOL    HW223218  10.580   6.349   5.642  1.8229  1.2597  0.2708
 5453SOL     OW23219   4.745   7.479   4.097  0.1854  0.1943  0.7600
 5453SOL    HW123220   4.800   7.558   4.090  0.7159 -0.0136  2.2273
 5453SOL    HW223221   4.785   7.417   4.037 -0.1864  1.0005 -0.3485
 5454SOL     OW23222   2.609   4.333   4.452  0.0881 -0.0229  0.1082
 5454SOL    HW123223   2.592   4.262   4.390  0.9055 -0.3237  0.2175
 5454SOL    HW223224   2.657   4.398   4.400 -0.7429  0.5030 -0.0191
 5455SOL     OW23225   7.149   7.297   3.030 -0.3849  0.0131  0.0925
 5455SOL    HW123226   7.058   7.318   3.053 -0.3814 -0.8810  0.9919
 5455SOL    HW223227   7.147   7.285   2.935 -1.0347  0.8022 -0.0076
 5456SOL     OW23228  10.965  10.574   5.247 -0.1069  0.1440  0.2995
 5456SOL    HW123229  10.974  10.558   5.341  1.1312 -1.7862 -0.0851
 5456SOL    HW223230  10.972  10.487   5.207 -1.3156  0.8321 -1.5546
 5457SOL     OW23231   4.237   5.399   1.937  0.4743 -0.0084  0.4137
 5457SOL    HW123232   4.142   5.398   1.943  0.3159 -0.4852 -1.5847
 5457SOL    HW223233   4.262   5.306   1.933  0.9455  0.1312  0.0308
 5458SOL     OW23234   4.743   4.069   9.066 -0.6365 -0.1930 -0.2053
 5458SOL    HW123235   4.699   4.150   9.092 -0.1520 -0.2481  0.8153
 5458SOL    HW223236   4.742   4.071   8.970 -2.2173  0.1540 -0.2067
 5459SOL     OW23237   7.426   5.032   7.051 -0.0015  0.1322  0.2193
 5459SOL    HW123238   7.407   5.088   6.976  1.2782  0.2793 -0.0229
 5459SOL    HW223239   7.357   4.965   7.049 -0.4199  0.5660 -0.6388
 5460SOL     OW23240  11.999   9.826   3.899 -0.0656 -0.2100 -0.1427
 5460SOL    HW123241  11.925   9.886   3.895 -0.6898 -0.8755  0.8162
 5460SOL    HW223242  11.959   9.739   3.903  0.7571 -0.5803  0.3885
 5461SOL     OW23243   5.613  12.449   1.107 -0.1609 -0.1571 -0.8591
 5461SOL    HW123244   5.619  12.516   1.175  0.4949 -0.6737 -0.3979
 5461SOL    HW223245   5.695  12.457   1.058 -1.3664  1.4118 -2.7572
 5462SOL     OW23246   9.244   7.337   5.543 -0.0794 -0.4350  0.0114
 5462SOL    HW123247   9.317   7.292   5.587  0.3628  0.6334  0.4031
 5462SOL    HW223248   9.168   7.280   5.558  0.0709 -0.1484  2.1230
 5463SOL     OW23249   8.023   0.813   4.340  0.5062 -0.7952 -0.4061
 5463SOL    HW123250   7.995   0.722   4.329 -1.8950 -0.2364  0.4172
 5463SOL    HW223251   8.040   0.822   4.433 -0.0881 -0.2067 -0.3475
 5464SOL     OW23252   7.038   7.312   5.006 -0.1578  0.0906  0.5353
 5464SOL    HW123253   7.003   7.308   4.918  0.2683  0.7613  0.3248
 5464SOL    HW223254   6.974   7.362   5.056  0.4703  1.3268  0.1481
 5465SOL     OW23255   9.474  11.148   7.187  0.3643  0.1678  0.0039
 5465SOL    HW123256   9.554  11.187   7.222 -0.6627  1.3671  1.1140
 5465SOL    HW223257   9.426  11.222   7.148  0.8777 -0.8953 -2.9384
 5466SOL     OW23258   0.537   8.465   5.768  0.4023 -0.0903  0.7007
 5466SOL    HW123259   0.540   8.560   5.783  0.9127 -0.0935  0.6046
 5466SOL    HW223260   0.453   8.451   5.723  0.7330  0.4264 -0.0955
 5467SOL     OW23261  12.303   3.539   8.704  0.1753  0.0539 -0.2701
 5467SOL    HW123262  12.326   3.621   8.660  3.6894 -0.5498  0.1707
 5467SOL    HW223263  12.281   3.479   8.633  0.8131  0.4843 -0.8462
 5468SOL     OW23264  10.922   4.383   8.013  0.0948  0.1389 -0.2994
 5468SOL    HW123265  10.957   4.309   8.061 -2.0395 -1.4242 -1.0147
 5468SOL    HW223266  10.975   4.386   7.933  2.2087  1.3979  1.0461
 5469SOL     OW23267   4.352  10.034   4.779  0.3487  0.2742  0.2460
 5469SOL    HW123268   4.327  10.005   4.691 -0.1862 -0.5159  0.6481
 5469SOL    HW223269   4.308   9.973   4.838  1.3882  0.2701  1.0462
 5470SOL     OW23270   0.670   6.893   9.632 -0.3063 -0.7693 -0.0272
 5470SOL    HW123271   0.661   6.919   9.724 -3.0588 -0.4884 -0.2939
 5470SOL    HW223272   0.692   6.973   9.586  0.8453 -0.8659  0.3224
 5471SOL     OW23273   8.234   6.932   1.627  1.1447 -0.5388 -0.7373
 5471SOL    HW123274   8.220   6.958   1.536 -3.6149 -1.8344 -0.6666
 5471SOL    HW223275   8.197   6.844   1.632  1.2035 -0.4839  2.4427
 5472SOL     OW23276   2.800  11.467   3.350 -0.3209  0.0985  0.3474
 5472SOL    HW123277   2.716  11.509   3.332  0.0683  0.5656 -0.4541
 5472SOL    HW223278   2.865  11.535   3.331  0.4155 -1.2177 -2.3928
 5473SOL     OW23279   7.434   1.986   9.299  0.7554  0.5526 -0.3314
 5473SOL    HW123280   7.457   2.077   9.280  0.8849  0.4597 -0.6304
 5473SOL    HW223281   7.419   1.985   9.393  0.3574  0.9684 -0.3847
 5474SOL     OW23282  10.958   8.383   6.466 -0.6662 -0.4303  0.2921
 5474SOL    HW123283  11.026   8.411   6.404 -0.2368 -0.4993  0.7316
 5474SOL    HW223284  10.895   8.456   6.466 -0.2193 -0.0414  0.4399
 5475SOL     OW23285   0.317   8.261   2.457 -0.3064 -0.4075  0.4527
 5475SOL    HW123286   0.404   8.244   2.494 -0.2879 -0.2260  0.4957
 5475SOL    HW223287   0.294   8.180   2.411 -0.1006 -0.4436  0.4120
 5476SOL     OW23288   7.307   9.665   9.397 -0.3817 -0.2787 -0.1030
 5476SOL    HW123289   7.291   9.721   9.321 -0.8984 -0.2117  0.0467
 5476SOL    HW223290   7.222   9.626   9.416 -0.3173 -0.0998  0.5908
 5477SOL     OW23291   4.060  11.564   6.353  0.0913 -0.0353  0.2880
 5477SOL    HW123292   4.085  11.629   6.287 -0.6297  1.5302  1.4937
 5477SOL    HW223293   3.985  11.603   6.398  1.2325 -0.4958  2.7577
 5478SOL     OW23294  12.038   3.740   3.989  0.5238 -0.2180 -0.3493
 5478SOL    HW123295  12.113   3.681   3.989  0.6284 -0.1067 -1.6060
 5478SOL    HW223296  11.966   3.687   3.955  0.1038 -0.2120  0.4911
 5479SOL     OW23297   9.283   5.146   2.467  0.0764  0.3223 -0.0792
 5479SOL    HW123298   9.369   5.125   2.429 -0.6538  0.6837 -2.0663
 5479SOL    HW223299   9.304   5.197   2.545  1.6827 -0.4022  0.0163
 5480SOL     OW23300   7.179   7.874   4.589  0.3918  0.4548 -0.7641
 5480SOL    HW123301   7.226   7.827   4.658  0.2689  2.0231  0.4464
 5480SOL    HW223302   7.087   7.853   4.604  0.3021  1.3758  0.0296
 5481SOL     OW23303   5.044  10.837   5.699  0.2024  0.1149  0.3206
 5481SOL    HW123304   4.996  10.793   5.769 -1.0110  1.4573  0.3756
 5481SOL    HW223305   5.027  10.783   5.621 -0.1537 -0.2391  0.6370
 5482SOL     OW23306   8.594   1.788  11.548  0.1033 -0.0535 -0.1754
 5482SOL    HW123307   8.667   1.772  11.489 -0.3719 -3.5823 -0.0196
 5482SOL    HW223308   8.630   1.846  11.616  2.2730 -0.4245 -0.9424
 5483SOL     OW23309   5.455   7.520   6.424 -0.1004 -0.5388 -0.4201
 5483SOL    HW123310   5.452   7.442   6.479 -1.7619 -0.6844 -0.6595
 5483SOL    HW223311   5.364   7.533   6.396  0.4590  0.3689 -1.9496
 5484SOL     OW23312   6.834   1.844  10.916 -0.2252 -0.5913  0.1043
 5484SOL    HW123313   6.753   1.856  10.867 -0.4864 -0.7451  0.4887
 5484SOL    HW223314   6.807   1.794  10.994  0.4724 -1.9094 -0.4649
 5485SOL     OW23315   3.276   8.787   0.152 -0.4201 -0.5869 -0.6158
 5485SOL    HW123316   3.336   8.826   0.215 -0.9395 -1.2523  0.3090
 5485SOL    HW223317   3.283   8.842   0.074 -0.1086  0.5100  0.1787
 5486SOL     OW23318   8.008  12.143   0.103  0.3649  0.2842  0.5401
 5486SOL    HW123319   7.959  12.137   0.185  1.3226  1.1873  1.2114
 5486SOL    HW223320   8.099  12.145   0.131  0.9410 -2.8715 -0.7515
 5487SOL     OW23321  10.593   1.835  10.195  0.3118 -0.0690  0.4478
 5487SOL    HW123322  10.679   1.872  10.176  0.6056  0.1901  2.1311
 5487SOL    HW223323  10.567   1.876  10.278 -1.1122 -0.6925  0.3426
 5488SOL     OW23324   9.277   0.403  10.800  0.6164 -0.3262 -0.7436
 5488SOL    HW123325   9.209   0.341  10.827 -0.4630  0.5600 -1.2996
 5488SOL    HW223326   9.341   0.401  10.870  0.4613 -1.8418 -0.6110
 5489SOL     OW23327   7.439   7.684   3.693  0.4801 -0.3084 -0.5249
 5489SOL    HW123328   7.357   7.734   3.704 -0.3759 -2.0327  1.6466
 5489SOL    HW223329   7.474   7.715   3.610 -0.5968  3.0130  0.0778
 5490SOL     OW23330  10.649   9.184   8.488  0.3847  0.3749 -0.5983
 5490SOL    HW123331  10.604   9.206   8.570  0.4653  0.1968 -0.5044
 5490SOL    HW223332  10.597   9.112   8.451  0.8786 -0.1809 -0.2330
 5491SOL     OW23333   4.177  11.527   5.665  0.1601  0.1097 -0.8632
 5491SOL    HW123334   4.137  11.605   5.628  0.1063 -0.1792 -1.4261
 5491SOL    HW223335   4.267  11.553   5.684 -0.2752  0.7540  0.3972
 5492SOL     OW23336   1.656  10.567   3.860  0.1019  0.1932 -0.0102
 5492SOL    HW123337   1.653  10.471   3.858 -0.4995  0.2001  0.1352
 5492SOL    HW223338   1.703  10.592   3.781  2.4940 -0.2911  1.1673
 5493SOL     OW23339   9.639  10.538   5.939  0.5712 -0.2107 -0.0994
 5493SOL    HW123340   9.592  10.614   5.904 -0.8821 -1.5904 -1.3143
 5493SOL    HW223341   9.613  10.534   6.031 -0.4035  0.0215 -0.3518
 5494SOL     OW23342  11.821   9.746  11.769 -0.5635  0.3136 -0.2221
 5494SOL    HW123343  11.813   9.746  11.674 -1.6161  2.6323 -0.2020
 5494SOL    HW223344  11.915   9.738  11.785 -0.3910 -0.2631 -1.4343
 5495SOL     OW23345   3.700   7.062  10.817 -0.3168  0.3624 -0.1775
 5495SOL    HW123346   3.785   7.103  10.805  0.1345 -0.1762  1.0222
 5495SOL    HW223347   3.638   7.122  10.774  0.4902  1.4967  0.2043
 5496SOL     OW23348   4.798   1.100  10.242  0.0338  0.0759  0.0800
 5496SOL    HW123349   4.874   1.144  10.205  1.1994 -1.0577  1.0706
 5496SOL    HW223350   4.772   1.154  10.317 -0.2545  0.5545 -0.3608
 5497SOL     OW23351   2.431   3.721   4.056  0.3838 -0.4153  0.0334
 5497SOL    HW123352   2.513   3.764   4.080  1.8420 -2.8665 -0.1629
 5497SOL    HW223353   2.404   3.675   4.136 -0.0144 -0.7893 -0.3078
 5498SOL     OW23354  11.290   9.436  12.343  0.3152  0.6104  0.0927
 5498SOL    HW123355  11.374   9.482  12.336  1.0278 -0.3912  1.4617
 5498SOL    HW223356  11.259   9.456  12.431  0.6585 -1.4625  0.7386
 5499SOL     OW23357   2.823   4.232   7.031 -0.3197  0.5681  0.5574
 5499SOL    HW123358   2.909   4.241   6.988 -0.6963 -0.5315 -0.5097
 5499SOL    HW223359   2.842   4.237   7.124  1.3067 -1.9869  0.4871
 5500SOL     OW23360   7.694   5.456  10.271 -0.3643  0.0664  0.5492
 5500SOL    HW123361   7.701   5.382  10.210 -0.8657  0.4936 -0.0494
 5500SOL    HW223362   7.779   5.460  10.314 -0.1235 -0.4812  0.1453
 5501SOL     OW23363   8.018  10.033   1.256 -0.0881  0.5340  0.0789
 5501SOL    HW123364   8.024  10.123   1.223 -0.2746 -0.2285 -2.1882
 5501SOL    HW223365   8.105   9.997   1.244 -0.5890 -0.2881 -1.3051
 5502SOL     OW23366  10.672   0.848   8.979  0.4689 -0.3214  0.3676
 5502SOL    HW123367  10.667   0.754   8.964  1.5514 -0.3129 -0.0986
 5502SOL    HW223368  10.607   0.864   9.048 -0.3798 -1.2541 -0.1731
 5503SOL     OW23369   9.491   4.888   7.580 -0.1129 -0.6867  0.0503
 5503SOL    HW123370   9.482   4.810   7.524 -3.3069 -0.2555 -0.2197
 5503SOL    HW223371   9.404   4.928   7.580  0.6257  1.2142  2.6727
 5504SOL     OW23372   6.477   0.439   3.585  0.2662 -0.6302 -0.0713
 5504SOL    HW123373   6.423   0.414   3.510 -1.4258 -0.7655  1.1425
 5504SOL    HW223374   6.450   0.381   3.656  1.5675 -0.2693  0.7626
 5505SOL     OW23375   2.232   5.129   8.921  0.8973  0.0546  0.0491
 5505SOL    HW123376   2.211   5.165   9.007  0.8376  0.5525 -0.1728
 5505SOL    HW223377   2.253   5.205   8.867  0.9151 -0.2525 -0.3842
 5506SOL     OW23378   7.959   5.292   7.982 -0.0503  0.1881 -0.8068
 5506SOL    HW123379   7.891   5.310   7.917 -0.6232  1.9656  0.2088
 5506SOL    HW223380   8.036   5.271   7.930 -0.9459 -0.2471 -2.0201
 5507SOL     OW23381   9.782   6.184   8.273  0.3126  0.1659  0.3839
 5507SOL    HW123382   9.750   6.096   8.251 -1.4607  0.4451  1.6892
 5507SOL    HW223383   9.833   6.210   8.196  1.8123 -2.4034  0.3789
 5508SOL     OW23384  10.144   6.729   3.566 -0.5009 -0.0975  0.0232
 5508SOL    HW123385  10.169   6.709   3.476  0.2991 -2.4552  0.6800
 5508SOL    HW223386  10.056   6.765   3.559 -0.0381  0.8137 -1.7587
 5509SOL     OW23387   4.328   0.530   8.363  0.8132  0.4878  0.0024
 5509SOL    HW123388   4.317   0.435   8.362 -1.4255  0.6934 -0.0398
 5509SOL    HW223389   4.259   0.563   8.304 -0.1785  2.2294  1.9974
 5510SOL     OW23390   1.253  12.326  12.063 -0.2774  0.1789  0.1474
 5510SOL    HW123391   1.325  12.292  12.010 -0.8649 -0.3325 -0.3341
 5510SOL    HW223392   1.236  12.413  12.027 -0.1303  0.1661  0.0445
 5511SOL     OW23393   7.242   7.324   2.140  0.6792  0.6144 -0.0567
 5511SOL    HW123394   7.336   7.331   2.157  0.7721 -1.8898  0.9440
 5511SOL    HW223395   7.222   7.231   2.153 -1.7967  0.9254 -1.0647
 5512SOL     OW23396   1.979   6.758   2.604 -0.3521  0.1979 -0.3842
 5512SOL    HW123397   2.075   6.756   2.600 -0.3062  2.2219 -1.2377
 5512SOL    HW223398   1.959   6.765   2.698  0.2423 -1.5303 -0.0852
 5513SOL     OW23399   3.689  10.870  12.056 -0.2209 -0.0693  0.4194
 5513SOL    HW123400   3.719  10.931  11.989  0.9184 -0.4591  0.5476
 5513SOL    HW223401   3.638  10.804  12.008  0.2923 -0.1547 -0.0124
 5514SOL     OW23402  10.601   9.080   6.233 -0.2836 -0.4772  0.2688
 5514SOL    HW123403  10.583   9.145   6.300 -0.2902  0.1216 -0.3096
 5514SOL    HW223404  10.608   9.130   6.152 -1.9491 -1.3508 -0.4625
 5515SOL     OW23405   5.116   5.043   8.875  0.1764  0.3564  0.2202
 5515SOL    HW123406   5.111   5.137   8.861  1.1293  0.8636  2.8502
 5515SOL    HW223407   5.205   5.027   8.906  1.3088 -2.0116 -3.5409
 5516SOL     OW23408   6.492  11.414   9.014 -0.3220  0.2454 -0.2758
 5516SOL    HW123409   6.545  11.492   9.000 -0.4239  0.5665  0.9624
 5516SOL    HW223410   6.441  11.405   8.934  0.8421  0.5180 -1.0700
 5517SOL     OW23411   3.818   2.216   8.725  0.4809 -0.0398 -0.5007
 5517SOL    HW123412   3.844   2.284   8.662  0.6907  0.5776  0.2367
 5517SOL    HW223413   3.725   2.233   8.741  0.4197 -0.2174 -0.6712
 5518SOL     OW23414   0.004   9.743   9.709 -0.4540  0.6152 -0.1333
 5518SOL    HW123415   0.008   9.790   9.626  1.2470 -0.8705 -0.9538
 5518SOL    HW223416   0.021   9.810   9.775  1.2110  1.3473 -1.2192
 5519SOL     OW23417   4.785  11.699   6.891  0.2939  0.2732  0.3982
 5519SOL    HW123418   4.712  11.639   6.877 -0.3486  0.5805  2.1065
 5519SOL    HW223419   4.858  11.643   6.919  0.1316  0.1387  0.5577
 5520SOL     OW23420   4.496   7.176   6.399 -0.5498 -0.1613  0.1643
 5520SOL    HW123421   4.510   7.137   6.486 -0.1941  0.6261  0.4745
 5520SOL    HW223422   4.569   7.142   6.347 -0.1351  0.2163  0.4831
 5521SOL     OW23423   2.668   5.784   6.489 -0.2090  0.0670 -0.8415
 5521SOL    HW123424   2.636   5.874   6.499 -0.7689 -0.0551 -1.5202
 5521SOL    HW223425   2.719   5.769   6.569  0.7480  1.3384 -1.1830
 5522SOL     OW23426   5.325   0.192   2.869 -0.1900 -0.5223 -0.1758
 5522SOL    HW123427   5.277   0.126   2.918 -1.0333 -0.3782 -0.7743
 5522SOL    HW223428   5.259   0.258   2.847  0.8968  1.2826  1.6714
 5523SOL     OW23429   1.185   8.052  11.900  0.0693 -0.7598  0.1123
 5523SOL    HW123430   1.118   7.991  11.930  0.4202 -0.4606  1.6291
 5523SOL    HW223431   1.174   8.057  11.805 -0.7723 -2.2013  0.1145
 5524SOL     OW23432   4.283   1.919  10.398 -0.1744  0.7173 -0.8055
 5524SOL    HW123433   4.254   2.000  10.439 -1.6671  0.0729 -0.5228
 5524SOL    HW223434   4.213   1.857  10.415  1.3989 -0.9528 -0.1199
 5525SOL     OW23435   7.603   6.483   9.255 -0.4317  0.2212 -0.5195
 5525SOL    HW123436   7.609   6.567   9.301 -1.2503 -0.7891  1.5519
 5525SOL    HW223437   7.527   6.493   9.197 -0.8054  0.7592  0.0524
 5526SOL     OW23438   6.799   7.925   8.925 -0.0205 -0.5069 -0.3024
 5526SOL    HW123439   6.838   7.885   8.847 -0.9626  1.0070 -1.6205
 5526SOL    HW223440   6.873   7.943   8.983  1.1074  0.9192 -2.0851
 5527SOL     OW23441   3.122  11.757  11.950  0.1730 -0.0457 -0.0197
 5527SOL    HW123442   3.190  11.704  11.908 -0.5358 -2.3904  1.5483
 5527SOL    HW223443   3.059  11.775  11.881  1.4527  0.5888 -1.0724
 5528SOL     OW23444   9.144   6.518  11.613  0.5495 -0.2812 -0.1433
 5528SOL    HW123445   9.223   6.532  11.666  0.1171  1.2410  0.1481
 5528SOL    HW223446   9.143   6.592  11.552 -0.3495 -0.5940 -0.5170
 5529SOL     OW23447  10.760   0.615   2.401  0.0352  0.4562 -0.3970
 5529SOL    HW123448  10.737   0.684   2.464 -2.1268 -0.4008 -0.1533
 5529SOL    HW223449  10.700   0.543   2.422  0.8089 -0.7016 -1.9905
 5530SOL     OW23450  12.321  10.709   5.074  0.2694  0.0375 -0.1633
 5530SOL    HW123451  12.386  10.695   5.142  0.4325  0.9646 -0.1196
 5530SOL    HW223452  12.340  10.641   5.008  0.8873 -0.0789  0.1281
 5531SOL     OW23453   2.147   2.014   0.838 -0.4064 -0.1895  0.3583
 5531SOL    HW123454   2.227   1.994   0.887  0.2856  0.5991 -0.4278
 5531SOL    HW223455   2.103   2.081   0.891  0.3680  0.7036 -0.1059
 5532SOL     OW23456   5.896  11.089   9.817  0.4216 -0.2804 -0.0615
 5532SOL    HW123457   5.848  11.099   9.899 -1.0146 -1.4037 -0.7143
 5532SOL    HW223458   5.935  11.175   9.801  0.9643 -0.1123  1.9088
 5533SOL     OW23459   4.588   5.087   4.878 -0.0775 -0.0686  0.5421
 5533SOL    HW123460   4.569   5.154   4.943  0.2651  0.2758  0.2944
 5533SOL    HW223461   4.520   5.098   4.811  0.5983  0.7573 -0.0389
 5534SOL     OW23462   9.628   8.355   4.100  0.8075 -0.4243  0.2892
 5534SOL    HW123463   9.627   8.450   4.091  2.4931 -0.2504  1.2973
 5534SOL    HW223464   9.536   8.329   4.097  0.3474  1.1790 -0.4828
 5535SOL     OW23465   3.224   4.975   2.424  0.3153  0.7106 -0.0743
 5535SOL    HW123466   3.307   4.983   2.377  0.1081 -0.2634 -0.6418
 5535SOL    HW223467   3.160   5.016   2.366 -0.3420 -2.5219 -1.8525
 5536SOL     OW23468   0.882  12.004   0.428 -0.1745  0.1457 -0.2826
 5536SOL    HW123469   0.949  11.951   0.384 -0.4200 -0.2330 -0.2110
 5536SOL    HW223470   0.928  12.048   0.499  0.0543  0.0925 -0.3999
 5537SOL     OW23471   8.465   6.423   2.800  0.6083  0.1371  0.3313
 5537SOL    HW123472   8.520   6.366   2.747  0.3707  1.6014 -1.5991
 5537SOL    HW223473   8.526   6.464   2.862  0.9174 -1.4784  1.1256
 5538SOL     OW23474   0.765  11.546   1.386  0.2759  0.1298  0.0992
 5538SOL    HW123475   0.820  11.582   1.456  0.3198 -0.6478  0.4803
 5538SOL    HW223476   0.685  11.598   1.389  0.9806  1.2829 -0.4643
 5539SOL     OW23477   9.375   7.505  10.915 -0.2400 -0.3967 -0.0952
 5539SOL    HW123478   9.456   7.493  10.966 -1.5130 -4.6121  1.3820
 5539SOL    HW223479   9.329   7.576  10.959  1.5726  0.4360  0.5523
 5540SOL     OW23480   7.248   5.138   3.964  0.2479 -0.2108 -0.3137
 5540SOL    HW123481   7.289   5.223   3.978 -0.4570 -0.0842  1.2119
 5540SOL    HW223482   7.157   5.150   3.991  0.4604 -1.7692  1.2989
 5541SOL     OW23483   6.044  11.115   7.303 -0.1765 -0.3473 -1.0687
 5541SOL    HW123484   5.981  11.043   7.300 -1.0937  0.3090  0.6413
 5541SOL    HW223485   5.990  11.193   7.315  0.9378  0.2168  0.5950
 5542SOL     OW23486   4.160   1.515   7.156  0.2223  0.3702 -0.7498
 5542SOL    HW123487   4.210   1.485   7.232 -2.0009  0.3990  0.8468
 5542SOL    HW223488   4.223   1.517   7.084  2.3324 -0.0989  0.9817
 5543SOL     OW23489  11.281   5.083   4.309 -0.1205  0.2274 -0.7557
 5543SOL    HW123490  11.351   5.021   4.331 -1.0264  0.5422  3.8777
 5543SOL    HW223491  11.200   5.038   4.333 -0.9817  2.1763  0.2426
 5544SOL     OW23492   3.383   3.274  11.028  0.3183  0.2451 -0.4056
 5544SOL    HW123493   3.299   3.318  11.041 -0.7343 -1.5498 -0.8486
 5544SOL    HW223494   3.404   3.288  10.936  1.1079  1.6409 -0.0453
 5545SOL     OW23495   7.164   3.181   8.045  0.4266  0.7052  0.6222
 5545SOL    HW123496   7.207   3.105   8.085  1.3401  1.0794  0.3603
 5545SOL    HW223497   7.149   3.155   7.954  1.1819  1.0200  0.4070
 5546SOL     OW23498   9.621   3.188   6.193 -0.1618 -0.0737  0.3580
 5546SOL    HW123499   9.560   3.193   6.120  0.1922 -0.6762  0.0130
 5546SOL    HW223500   9.705   3.217   6.156 -0.4697  1.9537  1.1308
 5547SOL     OW23501   6.065   7.254   7.822 -0.6026 -0.2508 -0.1181
 5547SOL    HW123502   6.045   7.341   7.857 -0.0569 -0.5124  0.8494
 5547SOL    HW223503   6.105   7.272   7.737 -2.7076  0.3582 -1.0640
 5548SOL     OW23504  10.408   2.731   9.539  0.2845 -0.6314 -0.3322
 5548SOL    HW123505  10.485   2.730   9.596 -0.1670 -1.1223  0.2842
 5548SOL    HW223506  10.354   2.658   9.571 -0.7790  0.1629 -0.2758
 5549SOL     OW23507  10.648   1.713  10.571  0.8193  0.4445 -0.1881
 5549SOL    HW123508  10.633   1.768  10.495  2.1930 -0.2603 -1.0047
 5549SOL    HW223509  10.689   1.634  10.536 -0.4031 -0.8018  1.0352
 5550SOL     OW23510  10.916   0.186  11.120  0.5252  0.3296  0.1096
 5550SOL    HW123511  10.897   0.093  11.110 -0.9241  0.6040  0.1535
 5550SOL    HW223512  10.834   0.230  11.100  1.1094  1.5880  0.3801
 5551SOL     OW23513   4.432   3.506   2.664  0.0691 -0.1589  0.4121
 5551SOL    HW123514   4.435   3.560   2.743 -0.7039 -0.6458  0.7870
 5551SOL    HW223515   4.346   3.525   2.625  0.5177  0.2198 -0.4153
 5552SOL     OW23516   3.103   3.035  10.539 -0.3639 -0.3560  0.1722
 5552SOL    HW123517   3.118   3.084  10.620 -1.8115  1.1944 -0.4185
 5552SOL    HW223518   3.166   2.963  10.541  2.0404  1.6357  1.0363
 5553SOL     OW23519   4.057   0.597   9.174 -0.0204  0.8988  0.7967
 5553SOL    HW123520   3.996   0.616   9.103  0.3342 -1.9668 -0.3879
 5553SOL    HW223521   4.143   0.611   9.136  0.2263 -1.8923  0.1093
 5554SOL     OW23522   5.325   9.709   8.203  0.2452 -0.3151  0.4144
 5554SOL    HW123523   5.273   9.651   8.259  0.6373 -0.4787  0.6113
 5554SOL    HW223524   5.401   9.657   8.178  0.2558 -0.1164  0.0266
 5555SOL     OW23525   5.993   9.446   0.517  0.5827 -0.3613 -0.1645
 5555SOL    HW123526   6.087   9.441   0.537  1.1714 -1.2928 -2.6987
 5555SOL    HW223527   5.983   9.390   0.440 -1.7369  1.1482 -1.0558
 5556SOL     OW23528   2.711   8.231   7.214  0.9159  0.4885 -0.0201
 5556SOL    HW123529   2.617   8.242   7.199  0.2767 -1.4673  1.9628
 5556SOL    HW223530   2.732   8.147   7.174  1.3454 -0.0167  1.2098
 5557SOL     OW23531  11.897  10.182   0.443 -0.6020 -0.7132 -0.5077
 5557SOL    HW123532  11.959  10.252   0.424 -1.2223  0.2879  1.0266
 5557SOL    HW223533  11.892  10.132   0.361  2.0963 -0.7716 -0.7188
 5558SOL     OW23534   5.009   6.934   4.892 -0.2753 -0.4707 -0.2689
 5558SOL    HW123535   4.947   6.902   4.826  0.3373 -1.5722 -0.3250
 5558SOL    HW223536   5.076   6.866   4.897  0.4791  0.3064  0.4140
 5559SOL     OW23537   7.230   9.796   9.849 -0.0962  0.0395 -0.4457
 5559SOL    HW123538   7.135   9.805   9.838  0.0259  0.7855 -1.0479
 5559SOL    HW223539   7.250   9.708   9.816 -0.4285  0.3462 -1.5233
 5560SOL     OW23540   9.789   9.698   3.397 -0.2217  0.1526  0.2602
 5560SOL    HW123541   9.732   9.653   3.459 -0.1473 -0.5219 -0.1570
 5560SOL    HW223542   9.776   9.791   3.416 -0.2895 -0.0412  1.2004
 5561SOL     OW23543   3.170   9.349   5.694  0.6392 -0.2160 -0.3253
 5561SOL    HW123544   3.090   9.322   5.648  1.0017  0.4225 -1.3555
 5561SOL    HW223545   3.227   9.382   5.625  1.9808 -1.0625  0.3416
 5562SOL     OW23546  10.867   7.220   3.022  0.1539  0.6404  0.2113
 5562SOL    HW123547  10.779   7.190   3.045  0.8435 -0.8791  0.9431
 5562SOL    HW223548  10.915   7.140   3.003  2.0840  1.2177  2.2892
 5563SOL     OW23549   5.914  10.616  12.223  0.1943  0.1042  0.2689
 5563SOL    HW123550   5.942  10.606  12.314  1.6079  0.6186 -0.0772
 5563SOL    HW223551   5.992  10.594  12.172 -0.0035  1.6591 -0.7738
 5564SOL     OW23552  10.464   6.387   3.852  0.1488 -0.0387  0.3704
 5564SOL    HW123553  10.496   6.477   3.845  0.0083  0.1464  1.9030
 5564SOL    HW223554  10.370   6.396   3.865  0.0701 -0.4374  0.1095
 5565SOL     OW23555  10.994  11.722   4.395 -0.5785  0.0859 -0.0169
 5565SOL    HW123556  10.937  11.750   4.466  0.2818  0.5418  0.5171
 5565SOL    HW223557  11.078  11.765   4.414  0.1962 -1.2502 -0.2975
 5566SOL     OW23558   0.667   8.686   9.771  0.1971 -0.0496 -0.4605
 5566SOL    HW123559   0.690   8.700   9.863 -0.9364 -0.2427 -0.1235
 5566SOL    HW223560   0.579   8.723   9.764  0.1181 -0.4082 -1.3734
 5567SOL     OW23561   2.357   2.707   0.936 -0.3683  0.4200  0.4991
 5567SOL    HW123562   2.432   2.650   0.920  0.2936  0.7237  2.3303
 5567SOL    HW223563   2.284   2.646   0.948 -0.1499  0.0637  0.0468
 5568SOL     OW23564   8.924  10.541   6.537 -0.0588  0.2965  0.0863
 5568SOL    HW123565   8.869  10.505   6.467 -0.7718  1.2299  0.1414
 5568SOL    HW223566   8.865  10.549   6.612  0.3651  0.5256  0.3968
 5569SOL     OW23567   9.116   8.143   7.137  0.1591  1.1604  0.3540
 5569SOL    HW123568   9.074   8.200   7.200 -0.2432  0.4724  0.7196
 5569SOL    HW223569   9.071   8.161   7.054  0.9972  2.3988  0.1369
 5570SOL     OW23570   7.172   1.326   8.361 -0.1139  0.8257  0.4318
 5570SOL    HW123571   7.254   1.361   8.395  1.0912 -0.6150 -0.8162
 5570SOL    HW223572   7.177   1.232   8.380 -0.8746  0.5152 -0.7875
 5571SOL     OW23573   8.489   0.545   6.152  0.2837  0.4482 -0.0060
 5571SOL    HW123574   8.490   0.465   6.204 -0.0600  0.6571  0.3335
 5571SOL    HW223575   8.580   0.572   6.146  0.8566 -1.6063 -2.7324
 5572SOL     OW23576   8.393  10.154   3.257 -0.3902 -0.3083 -0.3864
 5572SOL    HW123577   8.379  10.209   3.334 -0.1644 -0.7873 -0.0030
 5572SOL    HW223578   8.311  10.162   3.207 -0.7059 -0.3498  0.1194
 5573SOL     OW23579   2.640  11.588   7.782  0.5040  0.4952  0.3231
 5573SOL    HW123580   2.607  11.677   7.787 -0.6935  0.0176  2.8233
 5573SOL    HW223581   2.720  11.589   7.835  0.0717 -0.0357  1.0138
 5574SOL     OW23582  12.199  11.114   4.362 -0.0593 -0.3261  0.1766
 5574SOL    HW123583  12.167  11.193   4.403 -0.2601 -1.0336  1.4260
 5574SOL    HW223584  12.121  11.073   4.324  0.1563  0.4289 -1.1506
 5575SOL     OW23585   0.661   1.842   3.387 -0.2033 -1.0119 -0.4291
 5575SOL    HW123586   0.588   1.903   3.394  0.5789 -0.1624  0.7284
 5575SOL    HW223587   0.658   1.791   3.467  1.4012  0.1501  0.4349
 5576SOL     OW23588  12.077   7.806  10.762  0.2826  0.0612  0.6208
 5576SOL    HW123589  12.163   7.782  10.729 -0.7346 -2.4210 -0.4691
 5576SOL    HW223590  12.094   7.847  10.847  2.5116 -0.1911  0.3460
 5577SOL     OW23591   3.817  11.027  11.547 -0.4172 -0.3762 -0.2633
 5577SOL    HW123592   3.882  11.058  11.484 -0.8212 -0.0041 -0.5104
 5577SOL    HW223593   3.816  10.932  11.537  0.4801 -0.4323  0.1394
 5578SOL     OW23594   9.666   3.272   0.474  0.3393  0.1088 -0.3060
 5578SOL    HW123595   9.622   3.345   0.518 -2.2188 -1.8313  0.6375
 5578SOL    HW223596   9.759   3.284   0.494 -0.1525  2.3214  0.9849
 5579SOL     OW23597   8.256   8.185   1.544 -0.2259 -0.0847  0.7952
 5579SOL    HW123598   8.216   8.265   1.509 -0.0196 -0.3663 -0.1040
 5579SOL    HW223599   8.285   8.210   1.632  0.0172  0.8886  0.4507
 5580SOL     OW23600  10.444   4.662   0.553 -0.2723 -0.0507 -0.1821
 5580SOL    HW123601  10.471   4.606   0.626  1.8144  0.4328 -0.5178
 5580SOL    HW223602  10.352   4.681   0.570 -0.7242 -2.5774  0.5738
 5581SOL     OW23603   1.484   6.908  11.234  0.3011 -0.6715 -0.4206
 5581SOL    HW123604   1.412   6.845  11.238  0.3936 -0.7218  2.1619
 5581SOL    HW223605   1.515   6.915  11.324  1.8568  1.3092 -1.0253
 5582SOL     OW23606   8.266   5.100  10.807  0.6985 -0.3699 -0.6515
 5582SOL    HW123607   8.359   5.099  10.786  1.1540 -1.8910  1.1141
 5582SOL    HW223608   8.240   5.008  10.808 -0.3361 -0.1120  0.7207
 5583SOL     OW23609  10.946   8.305   0.876 -0.7221  0.3624 -0.3303
 5583SOL    HW123610  11.010   8.234   0.880 -1.3779 -0.3309 -1.5096
 5583SOL    HW223611  10.983   8.367   0.813 -0.7009  0.4813 -0.1997
 5584SOL     OW23612   6.936   0.013   0.553  0.2622 -0.1220  0.1585
 5584SOL    HW123613   6.919  -0.017   0.642 -0.0960  1.9250  0.8451
 5584SOL    HW223614   7.024  -0.019   0.533  0.2419 -0.8410  1.1436
 5585SOL     OW23615   2.093  10.115   3.568 -0.3777  0.1375  0.7176
 5585SOL    HW123616   2.101  10.204   3.534  0.1090 -0.1498  0.0649
 5585SOL    HW223617   2.183  10.088   3.587 -0.5580 -0.0614  1.3364
 5586SOL     OW23618   5.211   1.433  10.155  0.5044  0.0430  0.3099
 5586SOL    HW123619   5.189   1.526  10.145 -0.3664  0.2226  3.1120
 5586SOL    HW223620   5.155   1.402  10.226  1.0361 -2.5798 -0.2878
 5587SOL     OW23621   6.601   5.576  12.284 -0.0936  0.4185 -0.0664
 5587SOL    HW123622   6.644   5.630  12.217  0.5853  0.2752  0.2386
 5587SOL    HW223623   6.519   5.549  12.245  0.2488  0.4277 -0.8007
 5588SOL     OW23624   9.886   7.823   3.186  0.5683 -0.1544  0.5085
 5588SOL    HW123625   9.867   7.901   3.134  2.2353 -0.1006 -0.0535
 5588SOL    HW223626   9.981   7.823   3.197  0.6067 -2.1242  0.4890
 5589SOL     OW23627   2.646   6.880   7.335 -0.2908 -0.1253 -0.9529
 5589SOL    HW123628   2.597   6.912   7.260 -0.5565  1.4795 -0.1404
 5589SOL    HW223629   2.587   6.893   7.410  1.1423  1.3942 -0.0237
 5590SOL     OW23630   0.713   7.114   8.843  0.7604  0.3258  0.1281
 5590SOL    HW123631   0.643   7.107   8.908  0.0622 -1.2585 -0.7305
 5590SOL    HW223632   0.768   7.186   8.874  0.3849 -0.2855  2.3874
 5591SOL     OW23633  10.367   6.582   1.313 -0.4800  0.0605 -0.2785
 5591SOL    HW123634  10.451   6.623   1.332 -1.3278  1.4126  0.7211
 5591SOL    HW223635  10.359   6.587   1.218  0.6737 -0.3349 -0.4109
 5592SOL     OW23636   5.014   4.476  11.400  0.1030 -0.4609 -1.2707
 5592SOL    HW123637   5.086   4.422  11.367  0.7474  0.0724 -0.7654
 5592SOL    HW223638   4.946   4.468  11.333  1.1410  0.1064 -2.4329
 5593SOL     OW23639   7.768   0.090   8.555  0.0749 -0.1697 -0.1059
 5593SOL    HW123640   7.683   0.081   8.599  0.2143 -1.1666 -0.0257
 5593SOL    HW223641   7.832   0.067   8.622  0.3116 -1.2380 -0.6837
 5594SOL     OW23642  10.883  10.185   3.404  0.6205  0.0749 -0.7805
 5594SOL    HW123643  10.956  10.235   3.368  0.5251  0.6056 -0.2464
 5594SOL    HW223644  10.904  10.176   3.497  0.7882 -1.1446 -0.9179
 5595SOL     OW23645   5.933   8.265  12.421  0.3333 -0.4850  0.1038
 5595SOL    HW123646   5.938   8.361  12.419  3.6186 -0.5486 -1.9072
 5595SOL    HW223647   5.905   8.241  12.332  2.5453 -1.3728 -0.4121
 5596SOL     OW23648   6.571  12.028   9.243  0.6517  0.7424 -0.0657
 5596SOL    HW123649   6.625  11.996   9.170  0.7930  0.3658  0.2013
 5596SOL    HW223650   6.628  12.091   9.288  0.6361  0.8275 -0.1658
 5597SOL     OW23651   8.121  11.095   2.351 -0.3576  0.1802 -0.4536
 5597SOL    HW123652   8.029  11.116   2.337 -0.4485  0.7375  0.8753
 5597SOL    HW223653   8.168  11.151   2.289 -0.9097 -0.5558 -1.5880
 5598SOL     OW23654   4.648  10.152  11.589  0.2981 -0.1664  0.4645
 5598SOL    HW123655   4.655  10.248  11.591  1.9668 -0.2388 -0.1483
 5598SOL    HW223656   4.720  10.122  11.644 -1.1631 -1.0996  1.9643
 5599SOL     OW23657  10.272   5.711   5.229  0.6807  0.0103  0.0235
 5599SOL    HW123658  10.361   5.678   5.240  0.7603  0.7510  2.1388
 5599SOL    HW223659  10.223   5.674   5.303  0.1481  2.4245  0.9874
 5600SOL     OW23660   5.389   0.941   8.589 -0.0282  0.3150 -0.1622
 5600SOL    HW123661   5.364   1.030   8.566 -1.4905  0.2540  1.0299
 5600SOL    HW223662   5.419   0.947   8.679 -1.8942 -0.6418  0.5841
 5601SOL     OW23663   1.615   4.065   6.451  0.0046  0.5212  0.1171
 5601SOL    HW123664   1.555   4.082   6.379  0.5460  0.8382 -0.2697
 5601SOL    HW223665   1.610   3.971   6.466 -1.8368  0.7502  1.2160
 5602SOL     OW23666   4.695   8.102   6.889 -0.3500  0.6627  0.0336
 5602SOL    HW123667   4.697   8.188   6.848 -0.7086  0.6155 -0.0883
 5602SOL    HW223668   4.743   8.045   6.830  0.7936  0.9870  0.6172
 5603SOL     OW23669  11.172   9.410   7.416 -0.0236 -0.3697  0.0481
 5603SOL    HW123670  11.267   9.402   7.425 -0.1602 -0.3582  1.9861
 5603SOL    HW223671  11.140   9.320   7.414  0.0336 -0.3740 -0.7672
 5604SOL     OW23672   6.605   4.779  10.021 -0.1298 -0.1476  0.6990
 5604SOL    HW123673   6.665   4.778   9.946 -1.4779 -0.0965 -0.4062
 5604SOL    HW223674   6.565   4.692  10.022 -1.8050  0.5729 -0.0613
 5605SOL     OW23675   7.864   6.169   5.461  0.1362  0.4389  0.1222
 5605SOL    HW123676   7.802   6.098   5.444  0.6727  0.0187 -0.1121
 5605SOL    HW223677   7.809   6.245   5.482 -0.5475  0.6138 -2.0453
 5606SOL     OW23678   1.407  10.429   3.982  0.2125  0.0224 -0.2769
 5606SOL    HW123679   1.427  10.482   3.904  2.4595 -0.6889 -0.2745
 5606SOL    HW223680   1.460  10.468   4.051  1.5548 -1.8597 -0.1608
 5607SOL     OW23681   3.132   6.075   6.089 -0.1095  0.0705 -0.6058
 5607SOL    HW123682   3.176   6.157   6.111 -0.2619  0.2073 -0.8072
 5607SOL    HW223683   3.160   6.013   6.157  2.1275 -0.4501 -1.8805
 5608SOL     OW23684  10.075   3.138   7.397 -0.2415 -0.1520  0.3433
 5608SOL    HW123685  10.067   3.178   7.310  1.2592 -2.8563 -1.1738
 5608SOL    HW223686  10.003   3.076   7.402 -0.2131 -0.1407  0.9728
 5609SOL     OW23687   9.401   9.431   8.375 -0.5454  0.3267 -0.0990
 5609SOL    HW123688   9.333   9.418   8.441 -0.5694 -0.7466 -0.3259
 5609SOL    HW223689   9.474   9.377   8.405 -0.2223  0.5572 -0.4721
 5610SOL     OW23690   6.196   9.775   0.069 -0.1254  0.2426 -0.1332
 5610SOL    HW123691   6.231   9.835   0.134 -1.9092 -1.1170  2.2393
 5610SOL    HW223692   6.137   9.829   0.016  1.2103  1.3335 -0.5519
 5611SOL     OW23693   2.368   5.697   8.535 -0.8132 -0.1780  0.2892
 5611SOL    HW123694   2.316   5.769   8.500  0.1565  0.0334 -0.7467
 5611SOL    HW223695   2.421   5.737   8.604  0.6103  0.3923 -1.0884
 5612SOL     OW23696   6.430   3.968   1.174  0.2808 -0.1707 -0.1274
 5612SOL    HW123697   6.391   3.900   1.229 -1.9885  0.6825 -0.5465
 5612SOL    HW223698   6.436   4.045   1.231  1.4144 -0.2786 -0.0764
 5613SOL     OW23699   9.107   2.489   6.293  0.1176 -0.1595 -0.4623
 5613SOL    HW123700   9.183   2.507   6.238 -0.3754  1.7111 -0.6098
 5613SOL    HW223701   9.068   2.410   6.255  0.3834  0.4829 -2.1705
 5614SOL     OW23702   6.199   3.100   7.091 -0.0052  0.1121  0.5161
 5614SOL    HW123703   6.218   3.191   7.114 -1.9691  0.7092 -0.0372
 5614SOL    HW223704   6.174   3.103   6.998  1.1090 -1.1980  0.1414
 5615SOL     OW23705   3.392   2.527   4.797 -0.2801 -0.3553 -0.2644
 5615SOL    HW123706   3.431   2.573   4.723  0.0757 -0.9838 -0.4675
 5615SOL    HW223707   3.463   2.475   4.834 -0.6803 -0.7498 -0.0380
 5616SOL     OW23708   0.872  12.032   2.992 -0.1093 -0.3906  0.8375
 5616SOL    HW123709   0.894  12.117   2.955  1.4219 -1.1464 -0.0851
 5616SOL    HW223710   0.936  12.019   3.062  1.0414 -1.6652 -0.4072
 5617SOL     OW23711   7.879   1.114  11.155  0.3658 -0.3785 -0.1594
 5617SOL    HW123712   7.851   1.185  11.098 -0.3158 -0.1314  0.4698
 5617SOL    HW223713   7.964   1.142  11.190 -0.4818  0.7372  1.1011
 5618SOL     OW23714   9.293   2.327  11.621 -0.0284 -0.2039 -0.2162
 5618SOL    HW123715   9.329   2.393  11.561  0.8475 -0.0807  0.4278
 5618SOL    HW223716   9.240   2.271  11.565  2.4214 -1.3460 -1.5722
 5619SOL     OW23717   0.523   7.137  11.812 -0.3398 -0.4619  0.7875
 5619SOL    HW123718   0.483   7.051  11.800 -0.8746  0.1289 -2.9013
 5619SOL    HW223719   0.585   7.145  11.740  0.8063  1.6897  1.9048
 5620SOL     OW23720   4.222   7.998   5.939  0.0354  0.7811  0.0403
 5620SOL    HW123721   4.156   7.931   5.952  1.1106 -0.1551  0.8380
 5620SOL    HW223722   4.301   7.964   5.981  0.4107  2.9034  1.2299
 5621SOL     OW23723   4.048   4.518   9.572 -0.4731 -0.2820 -0.6335
 5621SOL    HW123724   4.083   4.452   9.512  0.5216 -1.0861  0.7357
 5621SOL    HW223725   4.107   4.593   9.561  0.1042 -0.6614 -0.2416
 5622SOL     OW23726   4.859   7.024  12.242 -0.0579  0.3568 -0.0232
 5622SOL    HW123727   4.831   7.111  12.215  0.3206  0.5342  0.1514
 5622SOL    HW223728   4.881   7.033  12.335 -0.4295 -0.0249  0.1069
 5623SOL     OW23729   2.507   6.753   8.799 -0.0150 -0.0350 -0.3055
 5623SOL    HW123730   2.531   6.778   8.710 -1.1378  1.4574 -0.2181
 5623SOL    HW223731   2.419   6.788   8.812  0.8678  1.5814  2.0819
 5624SOL     OW23732   7.600   2.904   7.641 -0.0823  0.7370 -0.5234
 5624SOL    HW123733   7.518   2.859   7.662  0.5522 -0.8106 -1.1705
 5624SOL    HW223734   7.581   2.953   7.561  0.6094 -3.0339 -3.2971
 5625SOL     OW23735   3.741   0.340   6.744  0.1649 -0.0892  0.0020
 5625SOL    HW123736   3.755   0.323   6.838  2.7864 -0.1969 -0.3226
 5625SOL    HW223737   3.816   0.297   6.701  0.5552  2.2902 -1.8901
 5626SOL     OW23738   1.670   0.112  12.194  0.0753 -0.3206 -0.0602
 5626SOL    HW123739   1.744   0.110  12.255  1.2267  0.0479 -1.3852
 5626SOL    HW223740   1.637   0.023  12.193  1.5161 -0.8746 -0.6178
 5627SOL     OW23741   9.711   0.990   3.880  0.4148  0.0102  0.9643
 5627SOL    HW123742   9.731   1.069   3.931  0.9525  0.5487 -0.0505
 5627SOL    HW223743   9.715   1.019   3.789  1.2783 -1.3315  0.5456
 5628SOL     OW23744   7.716   8.817   5.862 -0.4240 -0.8176 -0.0520
 5628SOL    HW123745   7.773   8.816   5.939  0.1102 -1.4296 -0.4483
 5628SOL    HW223746   7.656   8.890   5.878  0.4652 -0.1649  0.3774
 5629SOL     OW23747   4.626   9.059   4.264  0.0567 -0.1944 -0.5397
 5629SOL    HW123748   4.558   9.124   4.283 -0.0687 -0.2657 -0.7439
 5629SOL    HW223749   4.615   8.992   4.331  1.3161  0.8459  0.7756
 5630SOL     OW23750   0.309   8.261   3.147 -0.5141 -0.3548 -0.1457
 5630SOL    HW123751   0.266   8.179   3.121  1.2238 -1.7649  1.1719
 5630SOL    HW223752   0.325   8.307   3.065  0.4014 -2.3584 -1.1601
 5631SOL     OW23753  11.828   4.363  12.305  0.1585  0.3420 -0.7727
 5631SOL    HW123754  11.767   4.422  12.261 -0.2882  2.0288  1.8326
 5631SOL    HW223755  11.915   4.394  12.279 -0.0833  1.8312  0.0419
 5632SOL     OW23756   8.242   8.100  10.307  0.7507 -0.3175  0.1622
 5632SOL    HW123757   8.242   8.105  10.403  0.4292 -2.2660  0.3095
 5632SOL    HW223758   8.173   8.161  10.280 -1.0385 -1.7059  1.3562
 5633SOL     OW23759   7.846   0.393   7.317  0.0542  0.3189  0.1764
 5633SOL    HW123760   7.877   0.356   7.234 -1.5091 -2.4905  0.7094
 5633SOL    HW223761   7.920   0.384   7.377  0.8074  1.2723 -0.5783
 5634SOL     OW23762   9.906   1.085   3.711  0.0376  0.1926  0.0928
 5634SOL    HW123763   9.860   1.159   3.672  1.0106 -0.1524 -1.8237
 5634SOL    HW223764   9.996   1.115   3.722  0.3363 -0.5361 -0.2664
 5635SOL     OW23765   3.628   2.271  11.689  0.2350 -0.3304 -0.2234
 5635SOL    HW123766   3.534   2.286  11.680 -0.0535 -1.4069  0.8689
 5635SOL    HW223767   3.636   2.205  11.757  1.8170  0.1346  0.0817
 5636SOL     OW23768   1.826   2.053   1.142  1.1303  0.1797  0.6424
 5636SOL    HW123769   1.752   1.995   1.121  2.1745 -0.8651 -0.2826
 5636SOL    HW223770   1.803   2.091   1.226 -0.8138  0.4580  0.0288
 5637SOL     OW23771   9.615  10.528   4.310 -0.6007 -0.4213 -0.6577
 5637SOL    HW123772   9.569  10.452   4.346  0.4158 -0.4809  0.5661
 5637SOL    HW223773   9.546  10.593   4.298 -1.1939 -0.8934  0.0597
 5638SOL     OW23774  10.065  11.897   0.497 -0.3983 -0.4002 -0.6402
 5638SOL    HW123775  10.007  11.862   0.564 -0.9327 -0.6389 -1.2204
 5638SOL    HW223776  10.010  11.956   0.446  0.3502  0.8620 -0.0290
 5639SOL     OW23777   6.893   1.298   3.269  0.2368  0.0777  0.2026
 5639SOL    HW123778   6.828   1.338   3.328 -1.1716  0.1064 -1.3135
 5639SOL    HW223779   6.963   1.270   3.328 -2.0041 -1.7659  2.2039
 5640SOL     OW23780   2.217   7.361  11.494 -0.2274  0.4266  0.6649
 5640SOL    HW123781   2.233   7.314  11.576  2.8004  0.1980  0.0319
 5640SOL    HW223782   2.192   7.292  11.432  0.4440  0.1765  0.6680
 5641SOL     OW23783  11.430  12.070   0.246  0.5637 -0.4525 -0.4134
 5641SOL    HW123784  11.473  12.154   0.230 -0.7033  0.2152 -0.4494
 5641SOL    HW223785  11.410  12.037   0.159  1.6282 -1.1227 -0.4234
 5642SOL     OW23786   9.445   9.424   9.131  0.6503 -0.0664  0.6667
 5642SOL    HW123787   9.455   9.415   9.036  2.5392 -0.2548  0.8397
 5642SOL    HW223788   9.370   9.482   9.142  0.6874  0.3344 -0.9527
 5643SOL     OW23789   3.389   0.819  10.183 -0.3785 -0.4249  0.1528
 5643SOL    HW123790   3.382   0.724  10.188  0.0295 -0.4889 -0.3996
 5643SOL    HW223791   3.483   0.836  10.182 -0.3568 -0.2434 -3.1264
 5644SOL     OW23792   0.280   2.266   2.921 -0.3727  0.0579 -0.2345
 5644SOL    HW123793   0.355   2.223   2.962  0.5003  1.0712 -0.7030
 5644SOL    HW223794   0.263   2.343   2.975 -0.4345  0.3698 -0.6896
 5645SOL     OW23795   5.189   8.665  11.101 -0.5086  0.3176  0.1734
 5645SOL    HW123796   5.248   8.735  11.073  0.8428 -0.4911  0.9235
 5645SOL    HW223797   5.209   8.652  11.193 -1.6560 -0.1981  0.3697
 5646SOL     OW23798   8.470   3.882   7.578 -0.5935 -0.2534 -0.2745
 5646SOL    HW123799   8.512   3.798   7.598 -0.8294 -0.7605 -1.8022
 5646SOL    HW223800   8.429   3.869   7.493  0.0730  1.6686 -0.9404
 5647SOL     OW23801   6.792  11.553   5.152  0.0753 -0.3718 -0.1199
 5647SOL    HW123802   6.707  11.520   5.183 -1.1676  0.0043 -2.8684
 5647SOL    HW223803   6.832  11.479   5.107  0.2676  0.0415 -0.6328
 5648SOL     OW23804   9.383   7.832   0.739  0.2836 -0.1225 -0.9086
 5648SOL    HW123805   9.316   7.808   0.804  0.3436 -0.7928 -1.0944
 5648SOL    HW223806   9.418   7.749   0.709  1.0962  0.2256 -0.9282
 5649SOL     OW23807   6.274   5.291   8.000  0.2375  0.1647 -0.6326
 5649SOL    HW123808   6.278   5.383   7.974  0.1880  0.2448 -0.3573
 5649SOL    HW223809   6.363   5.269   8.026  0.9015 -0.6249 -3.2386
 5650SOL     OW23810   8.539   6.719   0.787  0.3970 -0.5840 -0.3402
 5650SOL    HW123811   8.494   6.635   0.774  0.6707 -1.0035  1.2784
 5650SOL    HW223812   8.606   6.721   0.718 -0.9553 -0.7197 -1.7160
 5651SOL     OW23813   8.577   9.573   4.103 -0.1276 -0.1892 -0.0583
 5651SOL    HW123814   8.539   9.651   4.061 -1.1651 -0.2043  0.8154
 5651SOL    HW223815   8.623   9.528   4.033  0.9587  1.4942 -0.4807
 5652SOL     OW23816  11.419  10.679   8.512 -0.1405 -0.1987  0.5101
 5652SOL    HW123817  11.392  10.679   8.603 -2.0845  0.9935 -0.0088
 5652SOL    HW223818  11.350  10.632   8.466 -0.8088  1.8593 -0.7163
 5653SOL     OW23819  10.814   5.802   1.313 -0.5522 -0.0097  0.1256
 5653SOL    HW123820  10.898   5.761   1.295 -0.4697  0.7187 -1.3151
 5653SOL    HW223821  10.785   5.763   1.395  0.9925 -0.5762  0.4371
 5654SOL     OW23822   9.873   8.279   0.280  0.3523 -0.1956 -0.0120
 5654SOL    HW123823   9.937   8.346   0.256 -0.6622  0.7561 -0.1382
 5654SOL    HW223824   9.892   8.206   0.220  2.4096 -0.6508  1.0876
 5655SOL     OW23825   7.850   3.025   0.822  0.0244 -0.8943 -0.4899
 5655SOL    HW123826   7.793   2.975   0.764 -0.6900 -0.2365 -0.3714
 5655SOL    HW223827   7.923   2.966   0.841  0.2035 -1.1742 -1.9423
 5656SOL     OW23828  10.716   1.315  11.408  0.5508 -0.1816  0.0232
 5656SOL    HW123829  10.797   1.364  11.424  0.4719 -0.5554  1.7809
 5656SOL    HW223830  10.649   1.383  11.398  0.8907  0.1148 -0.2757
 5657SOL     OW23831   6.800   4.607   6.414  0.4372  0.0442 -0.0027
 5657SOL    HW123832   6.778   4.521   6.450  1.1453 -0.0569  0.1937
 5657SOL    HW223833   6.885   4.628   6.452 -0.6190  1.7545  1.6145
 5658SOL     OW23834   8.441   2.382   6.853  0.7065 -0.0860 -0.1153
 5658SOL    HW123835   8.477   2.456   6.803  1.0208  0.1500  0.4569
 5658SOL    HW223836   8.366   2.418   6.899  0.6677 -0.2059 -0.0845
 5659SOL     OW23837   4.641   0.501  12.201  0.3899  0.1642 -0.0670
 5659SOL    HW123838   4.696   0.424  12.188 -0.1463 -0.2124 -0.1450
 5659SOL    HW223839   4.679   0.546  12.277 -0.4525 -1.2379  1.2287
 5660SOL     OW23840   8.996   4.366   3.061  0.3659 -0.5247  0.2658
 5660SOL    HW123841   8.961   4.331   2.979  1.2741  0.5929 -0.6405
 5660SOL    HW223842   9.019   4.457   3.040  2.2593 -0.7293  1.2712
 5661SOL     OW23843  11.942   3.507   6.524  0.2884  0.6603 -0.5714
 5661SOL    HW123844  11.957   3.504   6.429 -2.5193 -0.8444 -1.0803
 5661SOL    HW223845  12.007   3.447   6.560 -0.4658 -1.1044 -1.9423
 5662SOL     OW23846   2.417   0.073  11.047 -0.4550  0.0077 -0.3894
 5662SOL    HW123847   2.379   0.150  11.089 -0.0015 -0.2753  0.5692
 5662SOL    HW223848   2.471   0.032  11.115  0.1406 -0.5829 -1.1892
 5663SOL     OW23849   6.666   7.322  11.921 -0.1348  0.3394  0.6555
 5663SOL    HW123850   6.667   7.226  11.927  0.4608  0.2889 -0.1240
 5663SOL    HW223851   6.744   7.343  11.870 -0.2438  1.2492  0.8566
 5664SOL     OW23852   6.699   6.241   4.286 -0.5262 -0.6801 -0.4827
 5664SOL    HW123853   6.660   6.237   4.374  1.1545 -0.9597  0.2849
 5664SOL    HW223854   6.776   6.184   4.291  0.0020 -0.1358 -1.9315
 5665SOL     OW23855  11.587   2.550   0.995 -0.4795  0.0097 -0.6259
 5665SOL    HW123856  11.493   2.557   1.013 -0.4720 -0.4490 -0.3984
 5665SOL    HW223857  11.627   2.609   1.059 -0.6078  0.1806 -0.7002
 5666SOL     OW23858   9.743   7.567   2.284 -0.0602 -0.2343 -0.2190
 5666SOL    HW123859   9.833   7.556   2.251 -0.4708 -0.2157 -1.3826
 5666SOL    HW223860   9.695   7.492   2.248 -1.1403  1.2127 -1.9806
 5667SOL     OW23861   2.627   9.294   0.087  0.1804 -0.3308 -0.5098
 5667SOL    HW123862   2.600   9.283  -0.004 -0.0188  2.2217 -0.8334
 5667SOL    HW223863   2.707   9.242   0.095 -0.8258 -2.1652 -1.5514
 5668SOL     OW23864   0.798   5.905   4.912  0.0964 -0.4111 -0.1965
 5668SOL    HW123865   0.755   5.928   4.994  0.0182  0.7015 -0.5227
 5668SOL    HW223866   0.890   5.930   4.926  0.3793 -1.5179  0.0255
 5669SOL     OW23867   5.128   3.695   7.925 -0.5812  0.0601 -0.3517
 5669SOL    HW123868   5.143   3.603   7.904 -1.4783 -1.2692  3.9294
 5669SOL    HW223869   5.215   3.734   7.927 -0.2697 -0.1612 -3.5642
 5670SOL     OW23870   3.409   5.124   2.129  0.3343 -0.2416 -0.4113
 5670SOL    HW123871   3.351   5.179   2.181 -0.1682 -0.2798 -0.9207
 5670SOL    HW223872   3.449   5.065   2.193  0.4182  0.3141  0.0527
 5671SOL     OW23873   7.383   2.385   3.155  0.2313  0.4707  0.3376
 5671SOL    HW123874   7.436   2.305   3.155  0.0275  0.3338  0.0962
 5671SOL    HW223875   7.323   2.374   3.229  0.5225  0.6130  0.5930
 5672SOL     OW23876   0.240   7.322   7.519 -0.0832  0.2294  0.1597
 5672SOL    HW123877   0.190   7.245   7.545  0.2123 -0.0396 -0.0491
 5672SOL    HW223878   0.311   7.287   7.464  1.3362  0.3841  1.7891
 5673SOL     OW23879   7.522   7.023   1.794  0.2411 -0.0238 -0.0742
 5673SOL    HW123880   7.532   7.080   1.718  1.5029 -0.5442 -0.3361
 5673SOL    HW223881   7.533   6.935   1.760  1.2230 -0.2452  0.7528
 5674SOL     OW23882  11.540   5.065   8.011  0.2304  0.4931  0.1659
 5674SOL    HW123883  11.618   5.025   8.049  0.2015 -0.2548 -0.5220
 5674SOL    HW223884  11.472   4.998   8.018  0.1820  0.3831 -1.0120
 5675SOL     OW23885   2.325   3.647  11.171  0.1712  0.0666 -0.3840
 5675SOL    HW123886   2.308   3.663  11.078 -0.1765 -1.5159 -0.6238
 5675SOL    HW223887   2.384   3.571  11.171  2.4271  1.7055  0.6265
 5676SOL     OW23888  12.129   2.660   8.076 -0.4123  0.1340  0.4418
 5676SOL    HW123889  12.185   2.728   8.112 -0.3153  1.6477 -2.2692
 5676SOL    HW223890  12.184   2.582   8.073  0.2199  0.5215  1.4843
 5677SOL     OW23891  11.303  11.559   3.271  0.4871 -0.4923 -0.9699
 5677SOL    HW123892  11.215  11.588   3.291  0.7731 -0.5676  0.4661
 5677SOL    HW223893  11.354  11.639   3.261  0.3971 -0.4570 -1.1508
 5678SOL     OW23894  10.406   8.048  12.267  0.3014  0.6732  0.4217
 5678SOL    HW123895  10.475   8.113  12.256  2.7209 -1.8691 -0.3395
 5678SOL    HW223896  10.406   7.998  12.186  0.4944 -2.0214  1.9748
 5679SOL     OW23897   5.311   6.676   5.766 -0.3096  0.5236  0.3913
 5679SOL    HW123898   5.291   6.613   5.696  1.3341 -2.2319  2.1867
 5679SOL    HW223899   5.393   6.717   5.738 -0.4334  0.5285  0.0300
 5680SOL     OW23900   6.421   6.960  11.644  0.1187 -0.1134 -0.3313
 5680SOL    HW123901   6.443   6.991  11.732 -0.0407 -1.5395  0.2345
 5680SOL    HW223902   6.454   6.870  11.641 -0.3001 -0.2428 -1.5632
 5681SOL     OW23903   8.617  11.920   0.265  0.2143 -0.3463 -0.0734
 5681SOL    HW123904   8.545  11.957   0.215  0.0803  0.7152  0.8678
 5681SOL    HW223905   8.639  11.987   0.330  0.3497 -1.6794  1.3165
 5682SOL     OW23906   1.195   8.901   9.412  0.4751 -0.2428 -0.0412
 5682SOL    HW123907   1.123   8.931   9.467 -0.6460 -0.2034 -1.4602
 5682SOL    HW223908   1.205   8.809   9.433 -2.1352 -1.0883 -1.9537
 5683SOL     OW23909   4.670   3.806   0.224 -0.7733  0.2150 -0.3454
 5683SOL    HW123910   4.710   3.735   0.175 -1.1673 -0.6637  0.5696
 5683SOL    HW223911   4.680   3.883   0.168 -1.7158 -0.8422 -2.0407
 5684SOL     OW23912  11.426   5.736   4.105 -0.1782  0.7066 -0.3230
 5684SOL    HW123913  11.410   5.686   4.185  0.4570 -1.8519 -1.6923
 5684SOL    HW223914  11.390   5.681   4.035 -0.0196  2.4983 -1.8875
 5685SOL     OW23915   0.449   8.967   9.468 -0.0575  0.0922  0.3001
 5685SOL    HW123916   0.540   8.995   9.460  0.2355 -0.7874  0.4258
 5685SOL    HW223917   0.432   8.917   9.388 -0.8254  1.2661 -0.3062
 5686SOL     OW23918   6.331   5.865   7.526 -0.1599 -0.1546 -0.4656
 5686SOL    HW123919   6.385   5.813   7.586 -0.4787  0.4606  0.3707
 5686SOL    HW223920   6.316   5.947   7.572 -2.4361 -0.5709 -0.3638
 5687SOL     OW23921   6.173   4.948  11.782  0.6520 -0.3612  0.4982
 5687SOL    HW123922   6.187   5.012  11.851  0.7812  1.5341 -1.1818
 5687SOL    HW223923   6.260   4.914  11.763  1.0287  1.0037 -0.3963
 5688SOL     OW23924   2.018   0.865   2.885 -0.1694 -0.1097 -0.2621
 5688SOL    HW123925   2.070   0.799   2.930  0.7174  1.1477  0.6379
 5688SOL    HW223926   2.016   0.939   2.945 -2.4957  0.1254 -0.5645
 5689SOL     OW23927  10.257   4.109  11.383 -0.1660  0.2259  0.0052
 5689SOL    HW123928  10.229   4.181  11.441  1.9387 -0.8117  2.5480
 5689SOL    HW223929  10.334   4.144  11.338 -1.3831  0.7831 -1.7286
 5690SOL     OW23930   7.176   1.754   1.102 -0.1046  0.1399 -0.1267
 5690SOL    HW123931   7.230   1.677   1.086 -1.3861 -1.0335  0.9302
 5690SOL    HW223932   7.209   1.789   1.185 -0.8808 -0.5266  0.4747
 5691SOL     OW23933   9.516   4.609   2.702 -0.2308  0.2847 -0.1378
 5691SOL    HW123934   9.543   4.568   2.785  2.5228  1.3885 -0.4019
 5691SOL    HW223935   9.593   4.656   2.672 -2.2233  2.8622 -1.5902
 5692SOL     OW23936   7.182   5.765   8.962 -0.6136  0.7112  0.9137
 5692SOL    HW123937   7.139   5.768   8.876  1.3519  1.1594 -0.1242
 5692SOL    HW223938   7.202   5.672   8.975  0.9098  0.8495 -0.1381
 5693SOL     OW23939   1.582   9.230   2.554  0.3807 -0.3476  0.3900
 5693SOL    HW123940   1.510   9.269   2.505  0.5249 -0.4792  0.0709
 5693SOL    HW223941   1.556   9.238   2.646 -0.1880 -0.6886  0.2585
 5694SOL     OW23942  11.190  11.881   1.948 -0.0779 -0.3267 -0.0867
 5694SOL    HW123943  11.148  11.810   1.900  2.2584 -0.7265 -1.7506
 5694SOL    HW223944  11.200  11.951   1.884 -0.1951  0.5688  0.8578
 5695SOL     OW23945  10.098   2.231   6.064  0.0306  0.6852  0.4990
 5695SOL    HW123946  10.021   2.183   6.093  1.5788 -1.1845  1.8066
 5695SOL    HW223947  10.103   2.215   5.970 -0.8649  0.3828  0.5012
 5696SOL     OW23948   1.382   6.864   9.832 -0.4768  0.0757  0.3713
 5696SOL    HW123949   1.348   6.784   9.793  1.4230 -0.0510 -1.1411
 5696SOL    HW223950   1.464   6.838   9.873 -0.6738  0.9340  1.3692
 5697SOL     OW23951  11.680   6.131   6.083  0.2250  0.3176  0.2571
 5697SOL    HW123952  11.744   6.188   6.040  0.6721 -0.6805 -0.4532
 5697SOL    HW223953  11.596   6.174   6.066  0.3299 -0.2236 -2.0309
 5698SOL     OW23954   8.801   3.479   4.171  0.5395 -1.0686 -0.0531
 5698SOL    HW123955   8.857   3.556   4.173  1.0856 -1.3971 -1.4171
 5698SOL    HW223956   8.860   3.405   4.184  0.4803 -1.4230 -1.6123
 5699SOL     OW23957  11.497  10.693   1.444  0.2483  0.0665  0.1764
 5699SOL    HW123958  11.506  10.736   1.359 -0.2521 -2.2790 -1.1409
 5699SOL    HW223959  11.557  10.619   1.441 -0.8316 -0.9131  1.2483
 5700SOL     OW23960   9.237   2.974   7.772  1.0960 -0.6301 -0.6175
 5700SOL    HW123961   9.187   3.055   7.762  0.8021 -0.3561  2.1113
 5700SOL    HW223962   9.282   2.962   7.688  1.3613  2.5211 -1.0436
 5701SOL     OW23963  10.548   9.657  12.069 -0.3891  0.0763 -0.6904
 5701SOL    HW123964  10.520   9.624  11.983 -1.4718  1.8088 -1.0657
 5701SOL    HW223965  10.466   9.665  12.119  0.3036 -1.5468  0.7780
 5702SOL     OW23966   3.708   8.109   4.780  0.2550  0.0695  0.1857
 5702SOL    HW123967   3.720   8.181   4.717 -1.4229 -1.0315 -1.4823
 5702SOL    HW223968   3.735   8.147   4.864 -0.0863  2.4863 -0.7057
 5703SOL     OW23969  11.051   1.336   0.963 -0.5312 -0.0079 -0.3605
 5703SOL    HW123970  11.063   1.264   0.901 -0.6327 -2.1136  1.9349
 5703SOL    HW223971  10.957   1.357   0.958 -0.5435 -0.1785 -0.8887
 5704SOL     OW23972   7.605   1.338   3.229  0.4799  0.1254 -0.1053
 5704SOL    HW123973   7.645   1.279   3.293 -0.4807  1.3808  1.7696
 5704SOL    HW223974   7.674   1.356   3.166  2.0994  0.2368  1.6106
 5705SOL     OW23975   6.982   7.033   6.262  0.2573 -0.4641 -0.0206
 5705SOL    HW123976   7.034   7.036   6.182 -0.2333 -0.4410 -0.3370
 5705SOL    HW223977   7.034   7.083   6.326  0.3018  0.1251 -0.5190
 5706SOL     OW23978   1.394   8.366  10.906 -0.1627  0.1473  0.0788
 5706SOL    HW123979   1.470   8.346  10.960 -0.4661  0.7304  0.7319
 5706SOL    HW223980   1.430   8.414  10.831  0.1417  0.1816  0.2470
 5707SOL     OW23981   7.898   5.496   6.007 -0.1775 -0.3847  0.5959
 5707SOL    HW123982   7.886   5.555   6.081  0.0626  1.5930 -0.8670
 5707SOL    HW223983   7.983   5.520   5.970 -0.8961 -0.3243 -1.1443
 5708SOL     OW23984  10.500   0.428   4.448 -0.3181 -0.0882 -0.5346
 5708SOL    HW123985  10.534   0.349   4.491  1.1787  0.5763 -0.4402
 5708SOL    HW223986  10.419   0.449   4.495  0.2112 -0.5450  0.6055
 5709SOL     OW23987  10.736   1.075   6.126  0.1532  0.1302 -0.2529
 5709SOL    HW123988  10.825   1.046   6.108  0.4043  0.6944  0.0277
 5709SOL    HW223989  10.744   1.170   6.139 -0.3432  0.0705  0.6318
 5710SOL     OW23990   7.658  10.663   9.848  0.3071 -0.0902 -0.1654
 5710SOL    HW123991   7.702  10.613   9.917  0.5015  0.0312 -0.2018
 5710SOL    HW223992   7.656  10.603   9.773 -0.6197 -0.5158  0.1871
 5711SOL     OW23993   9.370   3.615   6.646 -0.2562 -0.7830 -0.4474
 5711SOL    HW123994   9.281   3.616   6.682  0.3267 -1.3314  1.1041
 5711SOL    HW223995   9.417   3.552   6.701  1.2976  0.0857 -0.7332
 5712SOL     OW23996   6.969   5.710   9.890 -0.0531  0.1911 -0.2878
 5712SOL    HW123997   7.018   5.699   9.808  0.2053 -0.1933 -0.0824
 5712SOL    HW223998   7.033   5.695   9.959 -0.4625 -0.3584 -0.0156
 5713SOL     OW23999   6.795   3.421   1.429  0.0245 -0.0433 -0.1595
 5713SOL    HW124000   6.778   3.508   1.391 -0.0903  0.6111  1.3366
 5713SOL    HW224001   6.890   3.415   1.433  0.0337  0.7147  1.2330
 5714SOL     OW24002   1.106  10.844   4.699  0.1901 -0.0977 -0.7409
 5714SOL    HW124003   1.057  10.767   4.730 -0.1735 -0.2267 -1.6217
 5714SOL    HW224004   1.194  10.832   4.735  0.5017 -1.5984 -1.9249
 5715SOL     OW24005  11.465  12.327   1.694 -0.3761  0.3538 -0.3163
 5715SOL    HW124006  11.462  12.297   1.785  0.2237  0.4112 -0.2789
 5715SOL    HW224007  11.497  12.417   1.699 -1.6284  0.8316 -0.4770
 5716SOL     OW24008   1.575  10.618   0.482  0.2271  0.0553  0.6249
 5716SOL    HW124009   1.486  10.637   0.453  0.6902  2.9372  0.8137
 5716SOL    HW224010   1.566  10.594   0.574 -0.3455  0.1438  0.5961
 5717SOL     OW24011  11.755   3.077   4.130  0.2052  1.1775 -0.2035
 5717SOL    HW124012  11.723   2.987   4.120 -1.1632  1.3629  1.8098
 5717SOL    HW224013  11.847   3.068   4.153 -0.0498  0.2308  0.5198
 5718SOL     OW24014   7.328   8.826   9.899  0.9587 -0.6179  0.0814
 5718SOL    HW124015   7.410   8.798   9.940  0.5186 -0.4888  1.0637
 5718SOL    HW224016   7.260   8.777   9.945  0.4896 -0.9318 -0.9112
 5719SOL     OW24017   0.589   6.857   6.202 -0.4267  0.4623  0.1105
 5719SOL    HW124018   0.670   6.831   6.245  0.3096  0.5190 -1.1996
 5719SOL    HW224019   0.522   6.848   6.270  0.5636 -0.2256  1.0271
 5720SOL     OW24020   8.397   7.338   7.618 -0.1360 -0.5026  0.2804
 5720SOL    HW124021   8.318   7.297   7.653 -1.4307  2.0509  0.5289
 5720SOL    HW224022   8.367   7.388   7.542  0.7975  2.1005  1.5017
 5721SOL     OW24023   0.916   4.441   1.967  0.2205 -0.0189  0.2645
 5721SOL    HW124024   0.977   4.504   1.928 -0.7391  0.5011 -0.4432
 5721SOL    HW224025   0.839   4.444   1.910 -1.1616  0.6117  2.0818
 5722SOL     OW24026  12.285   3.101   9.477 -0.4543 -0.5828  0.3940
 5722SOL    HW124027  12.366   3.093   9.427 -1.9411  0.4942 -2.4235
 5722SOL    HW224028  12.232   3.026   9.448 -0.6448 -1.0914  1.9601
 5723SOL     OW24029  11.385   7.331   1.773  0.7703  0.3057 -0.5141
 5723SOL    HW124030  11.340   7.284   1.844  0.8855  0.1993 -0.5100
 5723SOL    HW224031  11.322   7.397   1.744  0.1642 -0.5846 -1.2819
 5724SOL     OW24032   7.734   8.076   7.031  0.8475 -0.2267  0.2784
 5724SOL    HW124033   7.653   8.127   7.041  1.3047  0.3839  0.9294
 5724SOL    HW224034   7.736   8.054   6.938 -0.2764 -0.6050  0.3305
 5725SOL     OW24035   7.342  12.118   3.402  0.2995  0.1713  0.0718
 5725SOL    HW124036   7.362  12.029   3.428  0.5148  0.3623  0.5765
 5725SOL    HW224037   7.359  12.120   3.308 -2.3395 -1.0391 -0.5149
 5726SOL     OW24038   8.404   4.698   7.484  0.5042 -0.0165 -0.2312
 5726SOL    HW124039   8.467   4.746   7.431 -0.8400 -0.6142 -2.4735
 5726SOL    HW224040   8.455   4.627   7.524  1.8147  1.2482  0.4258
 5727SOL     OW24041  10.606   1.903   4.025  0.1086 -0.0918  0.4681
 5727SOL    HW124042  10.583   1.977   3.968 -0.0768  0.1896  0.9059
 5727SOL    HW224043  10.641   1.837   3.965 -0.0150  0.2306  0.0350
 5728SOL     OW24044   4.878  11.512  11.701  0.2484  0.2206  0.6193
 5728SOL    HW124045   4.813  11.442  11.710 -1.2045  1.4762  0.4505
 5728SOL    HW224046   4.825  11.590  11.685  1.7617  1.5390  1.8193
 5729SOL     OW24047  11.097   0.610   2.929 -0.3481  0.3654 -0.3448
 5729SOL    HW124048  11.166   0.564   2.882  0.0032 -1.4235  1.7557
 5729SOL    HW224049  11.015   0.574   2.893 -0.0874 -0.8021  0.1754
 5730SOL     OW24050   8.572  11.177   2.803  0.2153  0.0955 -0.3257
 5730SOL    HW124051   8.487  11.137   2.782 -0.4480  2.3468 -2.3607
 5730SOL    HW224052   8.571  11.185   2.898 -1.1333 -1.3850 -0.1695
 5731SOL     OW24053   9.740  11.742  11.412 -0.1644 -0.1728 -0.1151
 5731SOL    HW124054   9.823  11.697  11.396  0.8568  1.4604  0.3496
 5731SOL    HW224055   9.694  11.685  11.475 -0.6607 -2.4707 -2.3833
 5732SOL     OW24056   1.505  10.634   5.596  0.2213 -0.3179  0.2473
 5732SOL    HW124057   1.522  10.547   5.632 -1.5349  0.1210  2.3999
 5732SOL    HW224058   1.555  10.693   5.653 -1.5470  0.3000  1.2507
 5733SOL     OW24059  10.210   9.339  11.005  0.1956  0.4743  0.1766
 5733SOL    HW124060  10.116   9.322  10.993  0.2088  0.5916 -0.1029
 5733SOL    HW224061  10.223   9.334  11.100  0.2049 -1.0585  0.1244
 5734SOL     OW24062  11.532   5.889   9.771  0.1601  0.2632  0.0050
 5734SOL    HW124063  11.586   5.850   9.702  0.0078  0.9801 -0.5306
 5734SOL    HW224064  11.582   5.874   9.852  1.2721  1.0796 -0.4952
 5735SOL     OW24065   7.946   4.371  11.977  0.4784 -0.3124 -0.0274
 5735SOL    HW124066   7.887   4.423  12.032 -0.5519 -1.0531 -0.4159
 5735SOL    HW224067   8.033   4.386  12.015 -0.0810 -0.0154  1.1790
 5736SOL     OW24068   7.980   5.632   3.983 -0.0028  0.0107  0.2132
 5736SOL    HW124069   8.053   5.691   3.962  0.2202  0.4773  2.1398
 5736SOL    HW224070   7.917   5.647   3.913  0.8952  1.0918 -0.3958
 5737SOL     OW24071   7.126   2.296   1.731 -0.0080  0.2200 -0.2610
 5737SOL    HW124072   7.041   2.253   1.721  0.3606 -0.1561 -2.2502
 5737SOL    HW224073   7.105   2.386   1.754 -0.9540  0.0617 -0.4563
 5738SOL     OW24074  12.172  11.024   4.660 -0.1397  0.1230  0.0765
 5738SOL    HW124075  12.114  11.100   4.667 -0.2504 -0.0636  1.5900
 5738SOL    HW224076  12.125  10.963   4.604 -1.0059  0.3482  0.5309
 5739SOL     OW24077   4.364   0.148   8.095 -0.1836  0.2016 -0.0627
 5739SOL    HW124078   4.270   0.134   8.109 -0.1446 -0.4705 -0.4705
 5739SOL    HW224079   4.368   0.224   8.037 -0.5545 -0.9615 -1.6822
 5740SOL     OW24080  10.572  10.588   2.068 -0.4029  0.0182  0.0215
 5740SOL    HW124081  10.591  10.682   2.077  3.2495 -0.6351  1.1003
 5740SOL    HW224082  10.514  10.569   2.141 -0.4866  1.2984  0.3226
 5741SOL     OW24083   3.516   0.220  11.650 -0.3078 -0.8726 -0.3543
 5741SOL    HW124084   3.549   0.136  11.684  1.1528 -0.2401 -0.1292
 5741SOL    HW224085   3.463   0.196  11.574  2.0108 -1.9007 -1.7673
 5742SOL     OW24086   7.395   9.409  12.110 -0.5757  0.0626 -0.1071
 5742SOL    HW124087   7.343   9.343  12.065 -1.8658 -0.2362  1.7224
 5742SOL    HW224088   7.470   9.360  12.144 -0.0752  0.1170 -1.0810
 5743SOL     OW24089   9.518   2.930   3.651 -0.2377  0.4647 -0.4800
 5743SOL    HW124090   9.516   2.890   3.564 -0.9857 -0.9807  0.1695
 5743SOL    HW224091   9.602   2.902   3.688 -0.6886 -0.4094 -0.0886
 5744SOL     OW24092   3.128   8.316   9.586  0.1592 -0.2278 -0.1623
 5744SOL    HW124093   3.193   8.374   9.546 -0.5050 -0.7583 -2.1019
 5744SOL    HW224094   3.166   8.293   9.671  0.6122  2.7184  0.5443
 5745SOL     OW24095   3.106   6.241   9.995  0.0803  0.5382  0.4345
 5745SOL    HW124096   3.180   6.197   9.953  0.1268  0.2479  0.8154
 5745SOL    HW224097   3.118   6.333   9.975 -0.4649  0.3092 -1.0803
 5746SOL     OW24098   2.489   9.050  12.480  0.3239 -0.0384  0.4562
 5746SOL    HW124099   2.583   9.059  12.463  0.4770 -2.0657 -0.0444
 5746SOL    HW224100   2.483   9.041  12.575  0.3727  2.2071  0.7332
 5747SOL     OW24101  10.062   8.088   8.048 -0.0528  0.1954 -0.0941
 5747SOL    HW124102  10.078   8.181   8.069  3.2542 -0.0616 -0.9207
 5747SOL    HW224103  10.058   8.085   7.953  1.6606 -0.6543 -0.1869
 5748SOL     OW24104   8.309   9.901   9.439 -0.2205 -0.1165  0.1829
 5748SOL    HW124105   8.248   9.885   9.366  0.7972  1.0907 -0.9708
 5748SOL    HW224106   8.289   9.990   9.468  0.4809  0.0091  0.2883
 5749SOL     OW24107   5.418  12.469   3.328  0.4633  0.2042  0.4293
 5749SOL    HW124108   5.477  12.407   3.372 -0.6919 -1.9596 -0.8836
 5749SOL    HW224109   5.466  12.552   3.328  2.3705 -0.8257  1.7188
 5750SOL     OW24110   8.774   4.722   5.113  0.1594 -0.1250  0.2115
 5750SOL    HW124111   8.712   4.673   5.059  0.4317  0.6537 -0.8677
 5750SOL    HW224112   8.751   4.701   5.203 -2.6506  1.2787 -0.0905
 5751SOL     OW24113   7.395   8.404   2.166 -0.1495  0.3183 -0.1115
 5751SOL    HW124114   7.340   8.479   2.189 -1.5381  0.1311 -2.4769
 5751SOL    HW224115   7.391   8.347   2.243 -1.0445  1.5468  0.7996
 5752SOL     OW24116   1.241   1.558   0.317  0.1040 -0.0933  0.1508
 5752SOL    HW124117   1.314   1.588   0.371 -0.3146  2.2524 -0.4960
 5752SOL    HW224118   1.211   1.478   0.360  0.8235  0.7970  2.4623
 5753SOL     OW24119   4.012   9.193   4.725  0.4344  0.2834 -0.5231
 5753SOL    HW124120   3.925   9.232   4.714 -0.7214 -1.7069  0.8050
 5753SOL    HW224121   4.034   9.209   4.817  1.3517  0.5405 -0.7821
 5754SOL     OW24122   8.335   8.197   5.531  1.0031  0.3663  0.0768
 5754SOL    HW124123   8.344   8.103   5.521  1.2694  0.4597 -0.6277
 5754SOL    HW224124   8.421   8.233   5.507  0.7449  0.8184 -0.1948
 5755SOL     OW24125   4.782   1.471  11.196  0.6444  0.0768  0.1072
 5755SOL    HW124126   4.778   1.512  11.282 -0.1907 -0.8151  0.5067
 5755SOL    HW224127   4.870   1.434  11.191  0.9949  0.8682  0.2180
 5756SOL     OW24128   2.912   3.016   1.991  0.0350 -0.0405 -0.1405
 5756SOL    HW124129   2.931   2.952   2.060 -1.0873 -0.4915 -0.2230
 5756SOL    HW224130   2.882   3.094   2.038 -0.8803 -0.4011 -0.1031
 5757SOL     OW24131   9.374   2.972   7.532 -0.4898  0.1222  0.0746
 5757SOL    HW124132   9.405   2.927   7.454 -1.4893 -0.8090  0.1979
 5757SOL    HW224133   9.454   2.996   7.579  0.1238 -2.7904  0.7035
 5758SOL     OW24134   0.468   7.688  11.739  0.2394  0.3870  0.3044
 5758SOL    HW124135   0.419   7.670  11.819  0.7653  1.3009  0.8444
 5758SOL    HW224136   0.409   7.661  11.668  0.3203 -1.7936  0.9975
 5759SOL     OW24137   1.684  11.391   2.501  0.8312 -0.0959 -0.3569
 5759SOL    HW124138   1.682  11.419   2.409 -1.1347 -1.7643 -0.8978
 5759SOL    HW224139   1.754  11.326   2.504  1.3326  0.4253 -0.5084
 5760SOL     OW24140   4.742   2.611  10.746 -0.2737  0.1329  0.6926
 5760SOL    HW124141   4.814   2.664  10.710  0.8520 -1.8454 -0.1388
 5760SOL    HW224142   4.685   2.675  10.789 -0.4579  2.4246 -2.5352
 5761SOL     OW24143   0.289   3.428  11.217 -0.0836  0.0405 -0.2551
 5761SOL    HW124144   0.295   3.337  11.189  1.1679 -0.1919  0.6746
 5761SOL    HW224145   0.358   3.437  11.283  0.7777  2.0319 -1.3386
 5762SOL     OW24146  10.674   6.212   1.747  0.6010 -0.3071 -0.2682
 5762SOL    HW124147  10.732   6.149   1.704  0.9621 -0.1161 -0.0734
 5762SOL    HW224148  10.731   6.286   1.769  0.4361 -0.4126  0.5530
 5763SOL     OW24149   6.818   0.937   9.428 -0.0566  0.0756  0.6159
 5763SOL    HW124150   6.787   1.017   9.386 -1.4476 -1.0365 -0.6001
 5763SOL    HW224151   6.866   0.890   9.359  0.8801 -0.0870  1.3517
 5764SOL     OW24152   3.415   8.340   1.554 -0.1458  0.2773 -0.0870
 5764SOL    HW124153   3.340   8.387   1.591  0.0859  0.0841  0.6492
 5764SOL    HW224154   3.388   8.318   1.465 -0.6702  0.8658 -0.0842
 5765SOL     OW24155  11.359   5.360   1.847  0.1835  0.1152  0.1284
 5765SOL    HW124156  11.422   5.411   1.898  1.3011 -1.2611  0.1826
 5765SOL    HW224157  11.405   5.342   1.765 -0.2379 -0.7004  0.0669
 5766SOL     OW24158  11.483   8.041  10.488 -0.2045  0.0122 -0.3456
 5766SOL    HW124159  11.504   7.948  10.479  3.8214  0.4488  2.0647
 5766SOL    HW224160  11.547   8.086  10.433  0.3253  1.3808  1.2996
 5767SOL     OW24161   2.823   8.237   4.301 -0.0899  0.0053  0.1807
 5767SOL    HW124162   2.735   8.203   4.287 -0.9343  2.1404 -0.0346
 5767SOL    HW224163   2.836   8.230   4.396 -1.0272  0.8704  0.3855
 5768SOL     OW24164   7.987   4.767   1.380 -0.1645  0.3789  0.3492
 5768SOL    HW124165   8.034   4.849   1.388  0.6559 -0.2902  3.2977
 5768SOL    HW224166   8.054   4.699   1.389 -1.2412 -0.6065  1.2703
 5769SOL     OW24167   3.889   3.781   4.707 -0.9439  0.4020  0.0823
 5769SOL    HW124168   3.899   3.831   4.626 -0.0162  0.6610  0.3441
 5769SOL    HW224169   3.804   3.738   4.698  0.2129 -1.6208 -2.1243
 5770SOL     OW24170   7.910   6.830   2.553 -0.6635 -0.3667 -0.7853
 5770SOL    HW124171   7.879   6.893   2.488  2.4453  1.7762 -0.4261
 5770SOL    HW224172   7.872   6.859   2.636  0.2695  0.7499 -0.7220
 5771SOL     OW24173   1.578   2.500  11.511 -0.0024  0.3756 -0.6945
 5771SOL    HW124174   1.506   2.478  11.451 -0.9091 -0.5821  0.6786
 5771SOL    HW224175   1.556   2.588  11.543  0.0699  0.5718 -1.1872
 5772SOL     OW24176   8.251   2.317   9.258 -0.5922  0.6361 -0.1899
 5772SOL    HW124177   8.265   2.279   9.345 -0.9344 -0.9101 -0.7792
 5772SOL    HW224178   8.178   2.378   9.270 -2.4928 -1.5628  0.1212
 5773SOL     OW24179  12.356   2.299   1.418  0.4181  0.0293 -0.6891
 5773SOL    HW124180  12.412   2.333   1.487 -0.5805 -0.0663  0.1887
 5773SOL    HW224181  12.288   2.248   1.463 -0.2397 -0.0690 -1.7287
 5774SOL     OW24182  11.255   7.439   8.846  0.8373  0.5258 -0.3919
 5774SOL    HW124183  11.284   7.413   8.758  0.4077 -0.3270 -0.2921
 5774SOL    HW224184  11.166   7.404   8.854  1.7222 -1.6007  1.2677
 5775SOL     OW24185  10.527   5.634   5.183  0.0112 -0.2397  0.0044
 5775SOL    HW124186  10.558   5.713   5.139  0.3369  0.8342  2.0082
 5775SOL    HW224187  10.489   5.581   5.114  1.2153  0.9573 -1.6533
 5776SOL     OW24188   4.391   8.929  10.655 -0.3521 -0.2983  0.0076
 5776SOL    HW124189   4.316   8.952  10.601  0.3609  0.6730 -0.6077
 5776SOL    HW224190   4.398   8.834  10.647 -1.7027 -0.4379  0.3538
 5777SOL     OW24191   6.150   6.984   0.497  0.2331 -0.1067 -0.5476
 5777SOL    HW124192   6.210   6.932   0.444  1.1042  0.0020  0.3094
 5777SOL    HW224193   6.070   6.931   0.502  0.2527 -0.2740 -1.6510
 5778SOL     OW24194  11.559   4.829   7.054 -0.2458 -0.7717  0.6181
 5778SOL    HW124195  11.593   4.910   7.016  0.8683 -2.4654 -2.3523
 5778SOL    HW224196  11.490   4.857   7.114  3.6158  2.6763  4.0681
 5779SOL     OW24197   8.442   1.017   1.776 -0.0043 -0.2557 -0.1025
 5779SOL    HW124198   8.376   0.970   1.724 -1.3125  0.9494  0.3984
 5779SOL    HW224199   8.430   0.985   1.865 -0.1595  0.2012  0.0473
 5780SOL     OW24200  10.544   7.716   7.172 -0.0561  0.1835  0.1819
 5780SOL    HW124201  10.520   7.637   7.220  0.9965 -1.2340 -1.5043
 5780SOL    HW224202  10.491   7.714   7.092  1.0395  0.3603 -0.5843
 5781SOL     OW24203   1.836   6.636   4.739  0.5568 -1.2488 -0.0419
 5781SOL    HW124204   1.768   6.601   4.796  0.2785 -0.4852  0.1054
 5781SOL    HW224205   1.791   6.696   4.680  0.9288 -1.6152 -0.7138
 5782SOL     OW24206  10.254   3.068   4.012 -0.1247  1.0327  0.6105
 5782SOL    HW124207  10.329   3.097   4.064  0.7354  1.9183 -1.0509
 5782SOL    HW224208  10.292   3.013   3.944 -1.2646 -0.3455  1.0413
 5783SOL     OW24209   8.543  11.005   5.279 -0.0833 -0.3555 -0.3105
 5783SOL    HW124210   8.472  10.951   5.313  0.0446 -0.6381 -0.4823
 5783SOL    HW224211   8.516  11.095   5.295  0.9291 -0.4655  2.5300
 5784SOL     OW24212   8.922   7.402   9.505 -0.1999 -0.2569  0.2053
 5784SOL    HW124213   8.893   7.475   9.450 -0.7148  0.5956  1.5527
 5784SOL    HW224214   8.883   7.420   9.591  0.4894 -1.5975  0.8223
 5785SOL     OW24215   1.191  12.129   1.297 -0.3893 -0.4655  0.0340
 5785SOL    HW124216   1.118  12.171   1.252  1.0292  0.9648 -1.0755
 5785SOL    HW224217   1.185  12.160   1.387 -0.9085 -0.0059 -0.1553
 5786SOL     OW24218   6.251   6.501  10.754  0.3786  0.1185  0.1172
 5786SOL    HW124219   6.224   6.410  10.745  1.2668 -0.0167 -1.4225
 5786SOL    HW224220   6.339   6.504  10.718  1.2925  1.1469  2.2382
 5787SOL     OW24221   5.241   2.020   4.726  0.2983  0.4583  0.6376
 5787SOL    HW124222   5.237   1.994   4.634  1.5784  2.4267 -0.0656
 5787SOL    HW224223   5.238   1.938   4.774  0.6458 -0.7194 -1.2139
 5788SOL     OW24224   0.610   9.691   5.982  0.1970 -0.0828  0.0984
 5788SOL    HW124225   0.616   9.739   5.899 -2.6127  0.6350  0.2223
 5788SOL    HW224226   0.555   9.616   5.962 -2.7080  1.4308  1.7428
 5789SOL     OW24227   8.715   2.645   7.665 -0.3749  0.0192 -0.2986
 5789SOL    HW124228   8.782   2.700   7.706 -0.3146  0.3414 -0.8265
 5789SOL    HW224229   8.632   2.681   7.695 -0.3569  0.8808 -1.2365
 5790SOL     OW24230   7.939   6.995  10.151 -0.5041  0.1626  0.4631
 5790SOL    HW124231   7.871   6.984  10.085 -0.3021  0.6582  0.1671
 5790SOL    HW224232   7.894   6.988  10.234 -0.8573  0.1257  0.2682
 5791SOL     OW24233   5.323   3.280   8.217  0.2206  0.1937 -0.4929
 5791SOL    HW124234   5.315   3.237   8.302 -0.3318  1.2355 -0.0007
 5791SOL    HW224235   5.362   3.214   8.160  1.4878 -0.2289  0.8057
 5792SOL     OW24236   1.165  12.314   3.369  0.3144  0.3222 -0.2419
 5792SOL    HW124237   1.115  12.287   3.446  2.3540 -0.7702  0.7846
 5792SOL    HW224238   1.122  12.394   3.339 -0.7090  0.6306  1.8613
 5793SOL     OW24239   4.430   7.464   1.466 -0.0727 -0.3173  0.3609
 5793SOL    HW124240   4.476   7.451   1.383 -1.0576 -0.4553 -0.1694
 5793SOL    HW224241   4.381   7.383   1.479  0.4707 -0.5103  1.3512
 5794SOL     OW24242  11.066  12.252   7.479 -0.2246 -0.3883  0.5139
 5794SOL    HW124243  11.049  12.297   7.561  2.0495  0.1435  0.7524
 5794SOL    HW224244  11.161  12.252   7.470 -0.3385 -1.6344 -1.4624
 5795SOL     OW24245   2.207   3.966  12.208 -0.4596  0.1103 -0.4823
 5795SOL    HW124246   2.185   3.986  12.299  0.7833 -0.4622 -0.0265
 5795SOL    HW224247   2.285   3.911  12.214 -0.9967 -0.8696 -1.8621
 5796SOL     OW24248   6.034   8.559  11.004  0.2429  0.3217  0.2251
 5796SOL    HW124249   5.995   8.638  11.043  2.8933  1.1560  1.4032
 5796SOL    HW224250   6.114   8.590  10.962  1.2517 -1.6841  0.5262
 5797SOL     OW24251   5.442   1.797   4.177 -0.4083  0.2941 -0.2927
 5797SOL    HW124252   5.435   1.707   4.145  1.0211 -0.2059  0.6971
 5797SOL    HW224253   5.449   1.788   4.272  1.7826  1.2611 -0.2935
 5798SOL     OW24254   0.965   5.225   1.816 -0.3957 -0.0715 -0.2975
 5798SOL    HW124255   0.950   5.299   1.874  0.3283 -0.9241  1.0328
 5798SOL    HW224256   0.916   5.153   1.854  0.2590 -0.7052 -0.6108
 5799SOL     OW24257   6.299  12.411   0.125  0.1471  0.5583 -0.1958
 5799SOL    HW124258   6.259  12.352   0.060  1.4444 -0.7084  0.1049
 5799SOL    HW224259   6.341  12.352   0.187 -0.7652  1.7568  1.6359
 5800SOL     OW24260   3.112   2.696   4.985  0.2770  0.6809  0.1417
 5800SOL    HW124261   3.080   2.610   5.015 -0.5358  0.6696 -0.7187
 5800SOL    HW224262   3.206   2.694   5.006 -0.3396  1.0652  3.5538
 5801SOL     OW24263  12.075  11.896   1.058  0.5698 -0.2664 -0.1415
 5801SOL    HW124264  12.138  11.831   1.088 -1.3164 -3.1698 -1.9494
 5801SOL    HW224265  12.041  11.860   0.976 -0.6401  3.0649 -1.2603
 5802SOL     OW24266   9.379   9.811   9.760  0.2494 -0.3312 -0.1219
 5802SOL    HW124267   9.421   9.731   9.731  0.4721 -0.8355  1.4974
 5802SOL    HW224268   9.420   9.831   9.844 -0.0362  1.3048 -0.3250
 5803SOL     OW24269  10.099   8.095  11.529 -0.3363  0.7499  0.4999
 5803SOL    HW124270  10.056   8.026  11.479  1.3071  0.0007  0.0712
 5803SOL    HW224271  10.037   8.169  11.526 -1.3223 -0.0895 -0.5537
 5804SOL     OW24272   9.736   3.858   7.948 -0.1486 -0.1687  0.4061
 5804SOL    HW124273   9.641   3.856   7.938 -0.1827 -0.4325  0.7413
 5804SOL    HW224274   9.770   3.856   7.859 -0.4530 -0.5509  0.2934
 5805SOL     OW24275   9.482  10.430  10.527 -0.1270  0.0392  0.2539
 5805SOL    HW124276   9.501  10.336  10.530  0.4073  0.1644  1.6797
 5805SOL    HW224277   9.556  10.468  10.480  1.1311  0.0356  2.1248
 5806SOL     OW24278  10.395  10.527  12.143  0.0398  0.1329 -0.0816
 5806SOL    HW124279  10.356  10.465  12.205  2.4660 -1.0677  0.3430
 5806SOL    HW224280  10.406  10.476  12.063  0.2425  0.6102 -0.3568
 5807SOL     OW24281  11.100   0.860   6.341 -0.0458  0.3341 -0.0105
 5807SOL    HW124282  11.039   0.843   6.413  1.4308 -1.3795  0.8979
 5807SOL    HW224283  11.150   0.779   6.331  0.2451  0.7272 -2.5684
 5808SOL     OW24284   9.718   3.430   1.170  0.5614 -0.2305  0.2262
 5808SOL    HW124285   9.806   3.461   1.150  0.2199  0.4960 -0.2156
 5808SOL    HW224286   9.661   3.504   1.149 -0.0674 -0.3441  1.4510
 5809SOL     OW24287   2.164   5.709   6.281 -0.0075 -0.3265 -0.1411
 5809SOL    HW124288   2.153   5.614   6.278 -1.4032 -0.1918 -2.8349
 5809SOL    HW224289   2.110   5.741   6.209 -1.3759  2.7377  2.0533
 5810SOL     OW24290  12.154   3.033   8.166  0.2108  0.2857  0.0592
 5810SOL    HW124291  12.115   3.031   8.078 -2.0708 -1.9592  1.0100
 5810SOL    HW224292  12.218   2.962   8.166  0.1307  0.2151  0.2719
 5811SOL     OW24293   5.142   0.782   5.694 -0.1507 -0.1886  0.5485
 5811SOL    HW124294   5.214   0.754   5.637 -0.5872 -1.2883  0.5045
 5811SOL    HW224295   5.076   0.713   5.684 -2.2828  1.9391 -1.2678
 5812SOL     OW24296   9.153   5.855   9.312  0.1945 -0.3715 -0.4484
 5812SOL    HW124297   9.211   5.930   9.304  0.3641 -0.5782 -1.2297
 5812SOL    HW224298   9.080   5.874   9.253  0.1481 -0.7353 -0.5157
 5813SOL     OW24299   9.190   6.519   8.640  0.1068  0.5749 -0.3893
 5813SOL    HW124300   9.210   6.611   8.619  0.0279  0.3883 -1.3377
 5813SOL    HW224301   9.228   6.470   8.567 -1.2094 -0.0166 -0.6967
 5814SOL     OW24302   0.344  10.043   3.698 -0.2009 -0.0378  0.1913
 5814SOL    HW124303   0.339   9.955   3.661 -0.1500 -0.8380  2.0151
 5814SOL    HW224304   0.272  10.047   3.761  0.6934  0.6750  1.2031
 5815SOL     OW24305   7.762   0.697  12.180  0.2458 -0.3332 -0.3026
 5815SOL    HW124306   7.835   0.743  12.222  0.4774  0.0438 -1.0956
 5815SOL    HW224307   7.799   0.613  12.152 -0.2213 -1.1037  1.2991
 5816SOL     OW24308   0.222   1.292   2.235  0.5041  0.1801  0.2316
 5816SOL    HW124309   0.298   1.313   2.289  0.1386 -1.8575  1.6599
 5816SOL    HW224310   0.148   1.293   2.297  0.2486 -3.5601  0.1872
 5817SOL     OW24311   8.058   6.054   3.745  0.0710 -0.3496 -0.1903
 5817SOL    HW124312   8.137   6.103   3.721 -0.1110 -0.9667 -2.2962
 5817SOL    HW224313   8.014   6.109   3.809  1.9953  0.1908  0.7582
 5818SOL     OW24314   0.053   7.140   6.154 -0.1406  0.0608  0.3785
 5818SOL    HW124315   0.099   7.174   6.077 -0.9317  1.6656  0.5691
 5818SOL    HW224316   0.029   7.050   6.131  1.3578 -0.1521 -0.4680
 5819SOL     OW24317   4.273   4.272   9.632 -0.1152 -0.6774 -0.4100
 5819SOL    HW124318   4.358   4.306   9.605  0.8729 -1.6116  1.3298
 5819SOL    HW224319   4.241   4.224   9.556  1.6954 -1.6747 -0.6028
 5820SOL     OW24320   3.559   7.163  10.204 -0.4107 -0.0094 -0.1039
 5820SOL    HW124321   3.520   7.092  10.254 -2.4585  0.4809 -0.9162
 5820SOL    HW224322   3.567   7.235  10.267  1.7632 -0.9206  0.7452
 5821SOL     OW24323  10.090   4.548  10.285  0.7006 -0.5516  0.4392
 5821SOL    HW124324  10.060   4.478  10.227  0.3160  0.0193 -0.0631
 5821SOL    HW224325  10.091   4.626  10.230 -0.4277  0.1691  1.3989
 5822SOL     OW24326   7.019   1.780   9.989 -0.0926 -0.0752 -0.3187
 5822SOL    HW124327   7.052   1.863   9.956  0.5542 -0.6906 -1.2579
 5822SOL    HW224328   7.072   1.761  10.066  1.1428 -0.5907 -1.2678
 5823SOL     OW24329   3.781   0.260   1.312  0.5544  0.8545  0.0625
 5823SOL    HW124330   3.813   0.322   1.378  1.3708  0.3974  0.1093
 5823SOL    HW224331   3.848   0.192   1.308 -0.8783 -0.7003  0.9099
 5824SOL     OW24332   2.129   8.123  10.166 -0.0226  0.3167  0.1741
 5824SOL    HW124333   2.034   8.136  10.166 -0.3512 -1.6298 -0.7811
 5824SOL    HW224334   2.141   8.035  10.131  2.1270  0.2823  0.8268
 5825SOL     OW24335   7.004  10.684   5.923 -0.2943  0.1097  0.4944
 5825SOL    HW124336   7.039  10.757   5.872 -0.7902  0.0985  0.1416
 5825SOL    HW224337   7.047  10.693   6.009 -0.6730  1.0617  0.5936
 5826SOL     OW24338   9.502  10.210   9.379  0.0217  0.4018  0.2538
 5826SOL    HW124339   9.487  10.142   9.445  0.9468  0.2230  0.2900
 5826SOL    HW224340   9.425  10.267   9.386 -1.2981 -1.1937 -0.4882
 5827SOL     OW24341   3.122  12.448   3.630  0.5269 -0.1851  0.0641
 5827SOL    HW124342   3.031  12.430   3.653  1.0503 -1.7805  1.0337
 5827SOL    HW224343   3.134  12.410   3.544  0.2078  0.2869 -0.1923
 5828SOL     OW24344  11.296   3.090   9.654 -0.6236  0.6732  0.3588
 5828SOL    HW124345  11.375   3.049   9.619 -1.0779 -0.6144  0.7475
 5828SOL    HW224346  11.312   3.097   9.748 -1.2282 -0.3027  0.5586
 5829SOL     OW24347   7.870   5.126   1.847 -0.3022 -0.5788  0.2092
 5829SOL    HW124348   7.910   5.066   1.910  0.7119 -0.2632 -0.1094
 5829SOL    HW224349   7.896   5.092   1.761 -0.6971 -0.3445 -0.0060
 5830SOL     OW24350   8.014   0.371   6.141 -0.2902 -0.7996 -0.2041
 5830SOL    HW124351   8.045   0.362   6.051  1.1413  0.1850  0.1590
 5830SOL    HW224352   7.967   0.455   6.142  1.5321  0.2747  0.4060
 5831SOL     OW24353   9.981   5.113  11.264 -0.3994  0.0550  0.2058
 5831SOL    HW124354  10.038   5.036  11.262  1.0568  1.0999  0.0666
 5831SOL    HW224355  10.030   5.178  11.314 -2.0618  0.5732  1.2375
 5832SOL     OW24356   7.040   3.119   7.169  0.5572  0.4310  0.5752
 5832SOL    HW124357   6.995   3.189   7.122 -0.0903  0.7212  1.5905
 5832SOL    HW224358   7.102   3.084   7.105  0.5014  1.5503 -0.1340
 5833SOL     OW24359   6.459   3.350  12.456  0.3711  0.3574 -0.2464
 5833SOL    HW124360   6.460   3.371  12.550 -2.3075  0.9301 -0.2522
 5833SOL    HW224361   6.431   3.258  12.453 -0.6953  0.6740 -0.4669
 5834SOL     OW24362   0.785   7.607   4.149  0.2847  0.6633  0.2452
 5834SOL    HW124363   0.861   7.614   4.208  0.6827 -0.5425 -0.0981
 5834SOL    HW224364   0.785   7.515   4.121 -1.1989  0.6958  0.0820
 5835SOL     OW24365   2.184   5.175  10.215  0.1014 -0.0727 -0.5201
 5835SOL    HW124366   2.224   5.089  10.202  0.5487  0.0639 -0.0655
 5835SOL    HW224367   2.223   5.230  10.147  2.2143  0.5639  1.0942
 5836SOL     OW24368   3.015  11.222   4.471  0.0587 -0.2634  0.3692
 5836SOL    HW124369   2.960  11.299   4.456 -0.8997 -1.2106 -1.1869
 5836SOL    HW224370   3.055  11.238   4.557  0.1990  2.1302 -0.0794
 5837SOL     OW24371   2.091  10.279   5.414  0.0862  0.2087 -0.0929
 5837SOL    HW124372   2.130  10.216   5.475  0.1345 -0.0897 -0.4276
 5837SOL    HW224373   2.138  10.265   5.332  1.1189  1.6926  0.2058
 5838SOL     OW24374   4.439  11.471   4.873  0.1362 -0.2777  0.9379
 5838SOL    HW124375   4.404  11.480   4.961  0.5108  0.4268  1.0240
 5838SOL    HW224376   4.437  11.560   4.837  0.4755 -0.4682  0.4267
 5839SOL     OW24377   7.796   0.273   0.016 -0.2415 -0.3525 -0.0792
 5839SOL    HW124378   7.836   0.339   0.072 -1.4180 -0.0216  0.4146
 5839SOL    HW224379   7.733   0.323  -0.037  1.7339 -0.4236 -2.6658
 5840SOL     OW24380   9.938   4.713   1.915 -0.8514  0.6127  0.3419
 5840SOL    HW124381  10.020   4.664   1.921 -0.1874  1.7863  1.2674
 5840SOL    HW224382   9.964   4.800   1.882 -1.7802  0.8490  0.2003
 5841SOL     OW24383  11.499   6.352   9.473  0.0501  0.1348  0.0769
 5841SOL    HW124384  11.412   6.392   9.471  1.0739  2.5572  0.7001
 5841SOL    HW224385  11.506   6.306   9.390 -1.4859  0.6338 -0.3723
 5842SOL     OW24386  12.032   6.302  11.875  0.4720  0.3452 -0.1758
 5842SOL    HW124387  12.090   6.305  11.952  0.2396  0.4257 -0.0019
 5842SOL    HW224388  12.057   6.221  11.830  0.7839  0.4266 -0.1537
 5843SOL     OW24389  10.177   0.238   9.452  0.5476 -0.2464 -0.0528
 5843SOL    HW124390  10.228   0.319   9.453 -0.0719  0.1441  0.5710
 5843SOL    HW224391  10.133   0.239   9.367  0.5493  0.0694 -0.0502
 5844SOL     OW24392   4.786  11.770  11.618  0.4257  0.2928 -0.6529
 5844SOL    HW124393   4.780  11.862  11.594  0.1341 -0.1431 -2.3681
 5844SOL    HW224394   4.859  11.736  11.566  0.9607 -0.3169  0.4496
 5845SOL     OW24395   0.444   6.522   5.376  0.1802 -0.1029 -0.7567
 5845SOL    HW124396   0.401   6.566   5.449  1.2405  2.8758 -1.7928
 5845SOL    HW224397   0.380   6.524   5.305  1.3210  3.0084 -1.8434
 5846SOL     OW24398   8.055   9.389   9.925 -0.3531  0.2797 -0.1285
 5846SOL    HW124399   8.034   9.464   9.869 -1.0492  0.1531 -0.0529
 5846SOL    HW224400   7.990   9.323   9.901  1.3008 -0.9763 -1.4531
 5847SOL     OW24401  11.514   8.682   7.547 -0.5164  0.0086  0.9709
 5847SOL    HW124402  11.583   8.711   7.488 -0.0404 -0.3112  1.3645
 5847SOL    HW224403  11.433   8.710   7.504 -0.2861 -1.5304 -0.6115
 5848SOL     OW24404   5.562   3.520   3.626 -0.1040  0.4100 -0.5940
 5848SOL    HW124405   5.476   3.544   3.592  0.4440  1.3349 -1.3627
 5848SOL    HW224406   5.623   3.578   3.581  0.9189 -0.1567  0.0237
 5849SOL     OW24407   3.320  11.921   9.905 -0.2059 -0.4430  0.2015
 5849SOL    HW124408   3.262  11.911   9.829 -0.0896  1.6344 -0.2213
 5849SOL    HW224409   3.308  12.012   9.932  1.5400 -0.4741  1.2201
 5850SOL     OW24410  12.092   5.460  11.800  0.3020  0.3328 -0.6765
 5850SOL    HW124411  12.116   5.505  11.881 -0.8193 -2.6510  1.4724
 5850SOL    HW224412  12.171   5.465  11.746  0.4587  4.1238 -0.3850
 5851SOL     OW24413   7.907  10.707   0.897 -0.1243  0.3783  0.2998
 5851SOL    HW124414   7.855  10.787   0.889  1.2677  1.0993 -2.6806
 5851SOL    HW224415   7.994  10.731   0.867  0.1079 -2.4606 -1.6862
 5852SOL     OW24416   8.190   8.721   4.214 -0.0806 -0.3022 -0.2866
 5852SOL    HW124417   8.198   8.716   4.119  0.0524 -0.9949 -0.2440
 5852SOL    HW224418   8.102   8.690   4.233  0.0305 -0.5353 -0.1537
 5853SOL     OW24419   7.572   8.080   3.896  0.1371 -0.2424 -0.5422
 5853SOL    HW124420   7.496   8.036   3.933 -0.6525  0.3563 -1.3999
 5853SOL    HW224421   7.543   8.169   3.879  1.1273  0.0840 -0.6090
 5854SOL     OW24422   4.446   5.099   1.918 -0.0225 -0.3490  0.3958
 5854SOL    HW124423   4.536   5.112   1.949  0.0201 -2.0229  1.0644
 5854SOL    HW224424   4.395   5.079   1.996 -1.3699  2.1014  0.2591
 5855SOL     OW24425   9.244   5.794  10.970 -0.3618 -0.0404  0.4638
 5855SOL    HW124426   9.204   5.786  10.884  0.4023 -2.0551  0.2573
 5855SOL    HW224427   9.315   5.731  10.970 -1.2793 -1.2277  3.0890
 5856SOL     OW24428  10.470   0.128  10.880  0.1934 -0.3319 -0.3193
 5856SOL    HW124429  10.461   0.051  10.936  0.7269 -0.8539 -0.9478
 5856SOL    HW224430  10.382   0.141  10.844 -0.1115 -0.1032  0.4821
 5857SOL     OW24431   9.045   5.553   0.429  0.2108  0.6024  0.0679
 5857SOL    HW124432   9.043   5.551   0.525  1.5285  0.6237  0.1121
 5857SOL    HW224433   9.131   5.520   0.406 -0.4120 -0.2592 -1.1581
 5858SOL     OW24434   6.265  11.005   8.163  0.1563  0.0452  0.0284
 5858SOL    HW124435   6.206  10.932   8.179 -0.5239  0.2151 -1.5221
 5858SOL    HW224436   6.207  11.079   8.144  0.8243  0.0545 -2.1964
 5859SOL     OW24437   6.323   9.162   8.679  0.1062  0.8382 -0.0726
 5859SOL    HW124438   6.318   9.211   8.761  1.4909  0.0092  0.5318
 5859SOL    HW224439   6.377   9.087   8.699 -0.2413  0.1612 -1.5448
 5860SOL     OW24440  12.003   8.226   7.538 -0.0420 -0.5363  0.0964
 5860SOL    HW124441  11.980   8.317   7.520  1.0319 -0.3434 -0.4343
 5860SOL    HW224442  11.927   8.189   7.583 -0.7359  0.4487 -0.2490
 5861SOL     OW24443   8.574   5.527  11.005 -0.3898  0.4343 -0.1247
 5861SOL    HW124444   8.524   5.601  11.040 -0.8363  0.4219 -0.7155
 5861SOL    HW224445   8.521   5.496  10.931 -1.0595 -1.5408  1.1014
 5862SOL     OW24446  11.173   8.378   9.401 -0.8708 -0.0970  0.0978
 5862SOL    HW124447  11.226   8.446   9.361  0.1983 -0.8794  0.1600
 5862SOL    HW224448  11.121   8.424   9.467 -1.2056  0.8735 -0.8096
 5863SOL     OW24449  11.473   0.280  12.348  0.5037  0.0772  0.4779
 5863SOL    HW124450  11.559   0.314  12.373 -0.2941  2.6189  0.0614
 5863SOL    HW224451  11.469   0.292  12.253  0.0357 -0.9013  0.3665
 5864SOL     OW24452   9.533   3.991   4.796 -0.2770  0.1701  0.1736
 5864SOL    HW124453   9.518   3.898   4.776 -0.5056  0.3843 -0.7008
 5864SOL    HW224454   9.627   3.998   4.812 -0.6041 -0.7040  3.0414
 5865SOL     OW24455   5.746  10.756  10.397  0.4665 -0.4854 -0.4586
 5865SOL    HW124456   5.650  10.758  10.403  0.2008  0.1574 -3.4552
 5865SOL    HW224457   5.776  10.799  10.477 -1.8005  0.7381 -0.2022
 5866SOL     OW24458   0.994   9.715  11.170  0.3399  0.3144 -0.4044
 5866SOL    HW124459   0.964   9.624  11.172  2.2269 -0.3425  0.6381
 5866SOL    HW224460   0.933   9.759  11.110 -1.1147 -1.4276 -0.3032
 5867SOL     OW24461  11.758   0.460   0.433 -0.6569  0.5700  0.0823
 5867SOL    HW124462  11.687   0.404   0.463 -0.3880  0.6713  0.9357
 5867SOL    HW224463  11.835   0.403   0.431 -0.9472  0.1558 -1.9578
 5868SOL     OW24464  12.143   3.323   6.499 -0.1065  0.8197  0.2200
 5868SOL    HW124465  12.238   3.323   6.487 -0.2094  0.7264 -0.6202
 5868SOL    HW224466  12.108   3.297   6.415 -0.8310 -1.0737  1.0647
 5869SOL     OW24467   6.463   3.977   8.262 -0.2204  0.1259  0.1688
 5869SOL    HW124468   6.462   3.889   8.226 -0.5314  0.4665 -0.6793
 5869SOL    HW224469   6.549   4.012   8.237  0.8152 -0.6529  2.3548
 5870SOL     OW24470   8.135   7.686   9.314  0.2709  0.2664 -0.4739
 5870SOL    HW124471   8.211   7.635   9.341  0.9641  0.4304 -1.9755
 5870SOL    HW224472   8.117   7.744   9.387  0.7863 -0.6657  0.4107
 5871SOL     OW24473   5.147   9.370   8.796  0.6304  0.0406  0.4877
 5871SOL    HW124474   5.060   9.368   8.756  0.0155 -0.2276  1.7687
 5871SOL    HW224475   5.206   9.340   8.728  0.1067  2.6508 -1.2635
 5872SOL     OW24476   4.591   7.639   3.054  0.2678 -0.5765 -0.3460
 5872SOL    HW124477   4.503   7.603   3.061 -0.0250  0.0409 -0.8038
 5872SOL    HW224478   4.640   7.573   3.006 -0.5195  0.0435 -2.0668
 5873SOL     OW24479   4.324   2.565   6.224  0.2802  0.0439  0.7729
 5873SOL    HW124480   4.255   2.603   6.278 -0.3634  1.3279 -0.8704
 5873SOL    HW224481   4.404   2.610   6.251  0.1876 -0.2296  1.5121
 5874SOL     OW24482   4.014   5.423   3.824  0.3416 -0.1476 -0.7579
 5874SOL    HW124483   3.994   5.459   3.737 -1.0459 -0.2654 -0.5161
 5874SOL    HW224484   3.934   5.377   3.849 -0.4359  2.4097  1.8908
 5875SOL     OW24485   3.940   4.026   2.039 -0.0648 -0.1302  0.7040
 5875SOL    HW124486   3.902   4.080   2.108  1.1846  0.9006  0.6299
 5875SOL    HW224487   4.024   3.996   2.075  0.1905 -0.3222 -0.0354
 5876SOL     OW24488   8.453   9.351   0.757  0.1623 -0.6710  0.1272
 5876SOL    HW124489   8.450   9.427   0.815 -1.0618 -0.0152 -0.7528
 5876SOL    HW224490   8.526   9.369   0.697 -0.0449 -0.2360  0.0016
 5877SOL     OW24491   7.584   8.183   4.314 -0.2200 -0.0366 -0.2383
 5877SOL    HW124492   7.512   8.123   4.334 -1.0352  0.6023 -1.1421
 5877SOL    HW224493   7.590   8.240   4.390 -1.7652  0.9272 -0.7972
 5878SOL     OW24494   2.437   5.037  11.168 -0.7564  0.1889  0.3658
 5878SOL    HW124495   2.452   4.943  11.172 -1.4587  0.0315 -0.4256
 5878SOL    HW224496   2.482   5.065  11.088 -1.3106  0.3674  0.1124
 5879SOL     OW24497   1.490   3.538   5.308  0.2180  0.8564 -0.0742
 5879SOL    HW124498   1.568   3.585   5.338  1.6671  0.6423 -3.0519
 5879SOL    HW224499   1.416   3.586   5.345  1.7151  3.1655  0.0982
 5880SOL     OW24500  11.828  12.353   0.570 -0.2080 -0.5039  0.2122
 5880SOL    HW124501  11.767  12.292   0.610 -0.8564 -0.3479 -0.5083
 5880SOL    HW224502  11.849  12.415   0.640  0.1001 -1.2713  0.8156
 5881SOL     OW24503  11.376  12.102   4.439 -0.6302  0.5560 -0.0274
 5881SOL    HW124504  11.438  12.106   4.367  0.7892 -0.9044  1.0430
 5881SOL    HW224505  11.403  12.172   4.499 -0.7824  0.7054 -0.1323
 5882SOL     OW24506  10.769   4.328  11.828 -0.0413  0.4880 -0.0964
 5882SOL    HW124507  10.737   4.295  11.745  0.5393 -0.7514  0.1483
 5882SOL    HW224508  10.858   4.357  11.810  0.1174  0.1349  0.1004
 5883SOL     OW24509   5.599   9.789  10.050  0.4022 -0.2810 -0.1124
 5883SOL    HW124510   5.617   9.814  10.141 -0.9452  0.0866  0.0868
 5883SOL    HW224511   5.653   9.712  10.035  2.2545  0.8736  0.3034
 5884SOL     OW24512   6.231  11.658   4.843 -0.1340  0.5332 -0.5261
 5884SOL    HW124513   6.168  11.712   4.796 -0.5105  2.0330  1.5520
 5884SOL    HW224514   6.178  11.612   4.908  0.5112 -0.6855 -0.8319
 5885SOL     OW24515   6.893   1.455   0.486 -0.1829  0.2934  0.2294
 5885SOL    HW124516   6.808   1.476   0.525  0.8168 -0.2545  2.9572
 5885SOL    HW224517   6.897   1.359   0.486  0.1931  0.3043 -0.4300
 5886SOL     OW24518   7.604   4.503   1.597  0.2492  0.0293  0.0942
 5886SOL    HW124519   7.680   4.546   1.636  1.0488 -0.5931 -0.7132
 5886SOL    HW224520   7.642   4.433   1.543 -0.9425 -0.8996  0.4074
 5887SOL     OW24521   5.392   5.088   7.653 -0.1711 -0.4083 -0.1370
 5887SOL    HW124522   5.397   5.020   7.720 -0.2730  0.7996  1.1315
 5887SOL    HW224523   5.301   5.118   7.656 -0.4749 -1.0614 -1.5911
 5888SOL     OW24524   7.772  10.318   6.929 -0.2325 -0.1462 -0.0356
 5888SOL    HW124525   7.719  10.256   6.879 -1.0381  0.9945 -0.6709
 5888SOL    HW224526   7.836  10.351   6.866  0.6363 -0.8313  0.4812
 5889SOL     OW24527   5.514   7.172   2.240 -0.2658  0.1037 -0.1177
 5889SOL    HW124528   5.424   7.157   2.267 -0.1080 -1.2342 -0.2591
 5889SOL    HW224529   5.567   7.145   2.315  0.0334  0.5347 -0.1696
 5890SOL     OW24530   4.574   8.758  11.266 -0.3113 -0.8031  0.2488
 5890SOL    HW124531   4.539   8.830  11.214 -0.6825 -1.0483  0.1524
 5890SOL    HW224532   4.541   8.773  11.354 -2.1973 -2.0026 -0.1942
 5891SOL     OW24533   6.298   8.451   2.436  0.2023  0.1170 -0.0165
 5891SOL    HW124534   6.266   8.455   2.346 -1.2887  2.9303  0.5302
 5891SOL    HW224535   6.353   8.529   2.445 -0.1185  0.1923  1.6357
 5892SOL     OW24536  10.920  11.157   0.429 -0.3408 -0.1202  0.5242
 5892SOL    HW124537  10.970  11.111   0.362  0.7857  0.3026  1.0345
 5892SOL    HW224538  10.860  11.214   0.380  0.5295  0.2557 -0.1391
 5893SOL     OW24539   7.753   8.756  10.500 -0.1276 -0.4836 -0.0764
 5893SOL    HW124540   7.802   8.692  10.552  0.2458 -0.3564 -0.2688
 5893SOL    HW224541   7.702   8.805  10.565  1.4052  0.6194  0.3615
 5894SOL     OW24542  10.025   5.496   8.926 -0.5475  0.7985 -0.1251
 5894SOL    HW124543  10.056   5.406   8.933 -1.0804  0.5548 -0.8083
 5894SOL    HW224544  10.035   5.531   9.015 -1.2112 -0.2215  0.3779
 5895SOL     OW24545   8.082   1.534   1.082 -0.6556 -0.1481  0.1982
 5895SOL    HW124546   8.068   1.606   1.144  0.2714  0.7680 -0.6150
 5895SOL    HW224547   8.151   1.566   1.024 -0.8240 -1.3700 -0.7060
 5896SOL     OW24548   2.831   3.658   6.672  0.2248 -0.0398 -0.2125
 5896SOL    HW124549   2.834   3.669   6.577  0.3120 -2.8751 -0.6210
 5896SOL    HW224550   2.916   3.622   6.695  0.3675  1.0294  1.0541
 5897SOL     OW24551   9.097  12.104   3.124 -0.2922 -0.1661  0.1932
 5897SOL    HW124552   9.167  12.070   3.068 -0.3485 -1.1550  0.6963
 5897SOL    HW224553   9.114  12.198   3.129  0.6066 -0.2909 -0.2344
 5898SOL     OW24554   1.005   3.999   9.177 -0.2756 -0.2286 -0.4051
 5898SOL    HW124555   1.012   3.906   9.153  0.0814 -0.4554  0.5673
 5898SOL    HW224556   1.091   4.035   9.157 -0.6218  0.0774 -1.4601
 5899SOL     OW24557   7.488   5.847   6.486  0.3238  0.2117 -0.4130
 5899SOL    HW124558   7.453   5.907   6.420  0.9107  0.0406 -0.8968
 5899SOL    HW224559   7.442   5.869   6.566  0.6157  1.3904 -0.5516
 5900SOL     OW24560  11.575   6.670   1.877  0.2278 -0.2089 -0.2177
 5900SOL    HW124561  11.523   6.697   1.802 -0.1738 -1.1449 -0.2898
 5900SOL    HW224562  11.577   6.574   1.872  2.6460 -0.1897 -0.6680
 5901SOL     OW24563   8.830   2.411   9.125  0.8656 -0.1523 -0.3636
 5901SOL    HW124564   8.840   2.399   9.219  0.3778  0.5811 -0.2108
 5901SOL    HW224565   8.913   2.451   9.097  0.1501  1.8375  0.1712
 5902SOL     OW24566  11.199   4.196   1.441  1.1219 -0.9389 -0.4875
 5902SOL    HW124567  11.287   4.161   1.454  1.4039 -0.5123 -1.2051
 5902SOL    HW224568  11.198   4.226   1.350  1.2341  1.8403  0.3399
 5903SOL     OW24569  12.432  10.875  11.133  0.4802 -0.1164  0.1949
 5903SOL    HW124570  12.457  10.923  11.054  1.1179 -0.1541  0.3662
 5903SOL    HW224571  12.376  10.805  11.102 -1.2285  1.2647  0.0387
 5904SOL     OW24572  10.662   1.541   0.431  0.0120  0.3269 -0.5787
 5904SOL    HW124573  10.673   1.453   0.467  0.9080  1.5255  2.3932
 5904SOL    HW224574  10.575   1.541   0.393 -0.2468 -1.6789 -0.0918
 5905SOL     OW24575   7.472   7.716   5.098 -0.7827 -0.1793 -0.2348
 5905SOL    HW124576   7.421   7.676   5.168 -1.8584  1.7455  0.1397
 5905SOL    HW224577   7.515   7.790   5.139 -1.2385  0.8494 -1.5359
 5906SOL     OW24578   0.653   4.639   0.283 -0.3929  0.1626  0.4098
 5906SOL    HW124579   0.578   4.658   0.340 -0.7714  0.5417 -0.1923
 5906SOL    HW224580   0.724   4.692   0.319 -0.1315 -0.9369  1.5658
 5907SOL     OW24581   9.493   9.086  10.910  0.6004  0.1602  0.6942
 5907SOL    HW124582   9.477   9.174  10.876 -0.7660 -0.4739 -0.3530
 5907SOL    HW224583   9.445   9.083  10.993  1.8281  0.8369  1.4773
 5908SOL     OW24584   6.291   8.745   5.359  0.1350 -0.0371 -0.4716
 5908SOL    HW124585   6.379   8.785   5.362  2.3762 -4.3569 -0.8502
 5908SOL    HW224586   6.268   8.732   5.451 -0.1355  1.0187 -0.3724
 5909SOL     OW24587   5.056  10.183  12.303 -0.4199 -0.2419 -0.7683
 5909SOL    HW124588   5.149  10.169  12.283  0.4381 -1.6896  3.2923
 5909SOL    HW224589   5.014  10.099  12.285 -0.9077  0.2481 -2.0608
 5910SOL     OW24590  11.903   0.226   9.526  0.1967 -0.6139 -0.1640
 5910SOL    HW124591  11.993   0.203   9.506  0.6749 -0.6069  1.7828
 5910SOL    HW224592  11.892   0.313   9.487  1.1631 -0.4240 -0.0389
 5911SOL     OW24593   9.917  12.220   1.943  0.0675 -0.5125  0.1961
 5911SOL    HW124594   9.988  12.235   1.881  0.0520 -0.4212  0.2003
 5911SOL    HW224595   9.960  12.194   2.024  0.0767 -0.8850  0.0746
 5912SOL     OW24596   2.273  11.562   8.955 -0.8206  0.0599 -0.5132
 5912SOL    HW124597   2.304  11.473   8.935  0.7354  0.5529 -0.4001
 5912SOL    HW224598   2.210  11.550   9.026  0.8009 -0.7890  0.8388
 5913SOL     OW24599  11.776   8.668   1.898 -0.5243 -0.1151 -0.2135
 5913SOL    HW124600  11.771   8.709   1.984  1.1114  1.8332 -0.9292
 5913SOL    HW224601  11.725   8.588   1.905 -1.5631  0.6770  2.1460
 5914SOL     OW24602   2.416  10.818   2.029 -0.3376 -0.1929 -0.3060
 5914SOL    HW124603   2.451  10.737   2.066 -0.3748 -1.3742 -2.6910
 5914SOL    HW224604   2.493  10.870   2.007 -0.2397 -0.4427 -0.5614
 5915SOL     OW24605  11.507   8.812   7.187  0.7053  0.4951  0.0122
 5915SOL    HW124606  11.559   8.752   7.241 -0.3940 -0.6616 -0.1809
 5915SOL    HW224607  11.470   8.757   7.118  0.0273  1.4809 -0.4373
 5916SOL     OW24608  11.636  10.512   9.752  0.1579 -0.2088 -0.0576
 5916SOL    HW124609  11.593  10.557   9.679 -1.1995  0.7404  1.2640
 5916SOL    HW224610  11.585  10.432   9.764  1.9480 -1.6948 -1.7437
 5917SOL     OW24611   3.252   9.061   9.247 -0.3026  0.0955  0.6649
 5917SOL    HW124612   3.285   9.067   9.158  0.2889 -0.4181  0.8400
 5917SOL    HW224613   3.180   8.999   9.242 -0.3451  0.1566  0.5211
 5918SOL     OW24614   8.560   7.049   2.863  0.1700 -0.1018  0.6223
 5918SOL    HW124615   8.490   7.074   2.924  0.2528  1.4819  0.1315
 5918SOL    HW224616   8.548   7.108   2.788  1.6751 -0.2150  0.2659
 5919SOL     OW24617  11.184   6.327   8.635 -0.5225  0.0382  0.0407
 5919SOL    HW124618  11.264   6.379   8.635 -1.0576  0.8983  0.9625
 5919SOL    HW224619  11.211   6.241   8.604  0.7048  0.3911  0.0872
 5920SOL     OW24620   4.158   7.633   4.526 -0.2119  0.4605 -0.0114
 5920SOL    HW124621   4.191   7.543   4.537 -0.6430  0.3859  0.7835
 5920SOL    HW224622   4.235   7.688   4.542 -0.1073  0.2513  0.2182
 5921SOL     OW24623   0.140  11.926   5.381  0.2536 -0.1495 -0.0228
 5921SOL    HW124624   0.201  11.999   5.373  2.0629 -1.5915 -0.0388
 5921SOL    HW224625   0.105  11.914   5.293 -0.7739  1.2345  0.1641
 5922SOL     OW24626  12.279  11.613  10.444  0.7539 -0.4769 -0.1333
 5922SOL    HW124627  12.334  11.549  10.398  1.4118 -0.3770  0.4824
 5922SOL    HW224628  12.336  11.646  10.514 -1.1931 -3.1097  2.9701
 5923SOL     OW24629   2.690   6.611   7.610 -0.3237 -0.2697 -0.3118
 5923SOL    HW124630   2.698   6.594   7.516 -3.5517  0.9420 -0.9168
 5923SOL    HW224631   2.726   6.699   7.620  0.4083 -0.5621 -0.3159
 5924SOL     OW24632   2.169  11.015   6.174 -0.5096  0.0830 -0.1860
 5924SOL    HW124633   2.151  10.964   6.095  0.6265  1.1509 -1.1756
 5924SOL    HW224634   2.098  11.080   6.177 -1.2145 -0.6932  0.3463
 5925SOL     OW24635   4.757   7.141   0.554 -0.3905  0.4319  0.1526
 5925SOL    HW124636   4.826   7.074   0.548 -0.5158  0.2795  0.4449
 5925SOL    HW224637   4.799   7.215   0.598  0.1283  1.0349 -1.2991
 5926SOL     OW24638   4.623  11.106   6.827 -0.4808 -0.3565  0.0122
 5926SOL    HW124639   4.575  11.078   6.749 -0.4324  0.8761 -0.4812
 5926SOL    HW224640   4.576  11.065   6.900 -3.1552  1.8117 -0.3326
 5927SOL     OW24641   5.617   9.861  10.328  0.5840  0.6258  0.1471
 5927SOL    HW124642   5.616   9.855  10.424 -3.2115 -0.8917  0.1739
 5927SOL    HW224643   5.603   9.954  10.310  3.0728  1.2283  0.9294
 5928SOL     OW24644   5.333  11.260   8.242 -0.4810  0.5232 -0.3629
 5928SOL    HW124645   5.332  11.233   8.334 -2.4769 -0.8429 -0.7033
 5928SOL    HW224646   5.399  11.205   8.201 -1.9496 -1.4048 -0.3272
 5929SOL     OW24647   8.406   6.349   5.451 -0.1262  1.1569 -0.4368
 5929SOL    HW124648   8.326   6.366   5.403 -0.0192  1.6517 -0.4437
 5929SOL    HW224649   8.379   6.343   5.543 -0.6950 -2.0022 -0.6751
 5930SOL     OW24650   2.811   2.209   9.325 -0.3458 -0.0061 -0.0202
 5930SOL    HW124651   2.796   2.291   9.373  0.6563 -0.5585  1.2947
 5930SOL    HW224652   2.882   2.229   9.265 -1.0961  0.4791 -0.7700
 5931SOL     OW24653   2.685   5.776   3.710 -0.0235 -0.7321  0.6105
 5931SOL    HW124654   2.608   5.786   3.767  0.0731 -2.1933  1.0290
 5931SOL    HW224655   2.749   5.836   3.747 -1.6256  2.2582 -1.0721
 5932SOL     OW24656   5.200  10.183   5.696  0.1730 -0.0830 -0.5914
 5932SOL    HW124657   5.214  10.261   5.750 -2.1004  0.5141 -0.7631
 5932SOL    HW224658   5.164  10.118   5.757  0.9045 -0.6019 -0.7008
 5933SOL     OW24659   4.966   4.933   3.253  0.5826 -0.3984 -0.2817
 5933SOL    HW124660   4.967   4.918   3.348  2.1916 -0.3897 -0.2800
 5933SOL    HW224661   4.881   4.898   3.225 -0.1589  0.0872  1.2240
 5934SOL     OW24662   0.264   0.726  11.341  0.1317 -0.0235  0.5009
 5934SOL    HW124663   0.310   0.644  11.358  0.8752  0.1663 -0.5177
 5934SOL    HW224664   0.172   0.701  11.331  0.6210 -1.0355 -1.8123
 5935SOL     OW24665   4.922   1.423   7.729  0.1439 -0.2179 -0.0059
 5935SOL    HW124666   4.866   1.419   7.807  1.4243 -2.5523  0.8865
 5935SOL    HW224667   4.870   1.380   7.660 -0.9015  1.6565 -0.4565
 5936SOL     OW24668   7.840   1.038   4.578  0.4412 -0.4016  0.1611
 5936SOL    HW124669   7.746   1.057   4.577  0.9458  2.9261 -2.9182
 5936SOL    HW224670   7.863   1.024   4.486  3.2253  0.6126  0.5925
 5937SOL     OW24671  10.062   5.097   6.463  0.5096 -0.2929  0.5716
 5937SOL    HW124672  10.033   5.056   6.381  2.0610 -2.1941  0.8820
 5937SOL    HW224673  10.056   5.191   6.447  0.1245 -0.6222 -1.4831
 5938SOL     OW24674   0.982   0.754   0.941  0.2977 -0.1402 -0.0229
 5938SOL    HW124675   0.973   0.726   0.850 -0.3061  0.1839 -0.0705
 5938SOL    HW224676   0.923   0.829   0.949  1.1569  0.5157  0.3486
 5939SOL     OW24677   0.160   8.997   9.233 -0.7616 -0.4591 -0.5735
 5939SOL    HW124678   0.074   8.958   9.216 -1.5788  0.7531  0.6432
 5939SOL    HW224679   0.153   9.034   9.320  0.8155  0.2050 -0.7012
 5940SOL     OW24680   9.938   1.752  11.607 -0.1213  0.1871 -0.1265
 5940SOL    HW124681   9.962   1.660  11.619 -1.3131 -0.3055 -1.2590
 5940SOL    HW224682   9.849   1.749  11.571 -0.0204  1.7741 -0.5894
 5941SOL     OW24683   9.620   8.793  10.523  0.2918 -0.0294  0.2870
 5941SOL    HW124684   9.691   8.815  10.464  0.0883 -0.1048  0.0135
 5941SOL    HW224685   9.663   8.781  10.608  0.4203  1.3063  0.4308
 5942SOL     OW24686   1.434   9.075   1.427  0.1294  0.4481  0.1123
 5942SOL    HW124687   1.487   9.061   1.505  1.9021  1.7267 -0.7820
 5942SOL    HW224688   1.401   9.164   1.435 -1.4710 -0.1199  0.3605
 5943SOL     OW24689  10.888   0.312  10.612 -0.1755 -0.1662  0.4872
 5943SOL    HW124690  10.861   0.388  10.664 -0.0975  0.0581  0.1958
 5943SOL    HW224691  10.826   0.309  10.539 -0.9770 -1.1278  1.1771
 5944SOL     OW24692   1.697   9.055  11.378 -0.1986  0.1310 -0.5146
 5944SOL    HW124693   1.721   9.126  11.437 -0.2590 -0.0976 -0.2084
 5944SOL    HW224694   1.778   9.004  11.368  0.9943  2.3657 -3.8415
 5945SOL     OW24695   8.318   8.144   6.873 -0.1770  0.0081  0.2367
 5945SOL    HW124696   8.285   8.123   6.961 -0.5808 -0.0320  0.0775
 5945SOL    HW224697   8.285   8.074   6.817 -0.8876  0.6291 -0.1524
 5946SOL     OW24698   6.484   8.844  10.346  0.1728  0.4442 -0.7546
 5946SOL    HW124699   6.408   8.852  10.404  0.7356  1.0787 -0.0828
 5946SOL    HW224700   6.449   8.805  10.266 -0.6253 -0.4157 -0.0077
 5947SOL     OW24701   9.247   5.988   3.951  0.2209 -0.2784 -0.0020
 5947SOL    HW124702   9.295   5.906   3.960  0.3807 -0.0209  1.7263
 5947SOL    HW224703   9.178   5.983   4.017  0.0072  0.8377 -0.1177
 5948SOL     OW24704   7.703  10.042   9.985 -0.3826 -0.7775  0.2069
 5948SOL    HW124705   7.794  10.055   9.956  0.0104 -2.3881  0.5793
 5948SOL    HW224706   7.686  10.115  10.045  1.1320 -1.1452  1.1422
 5949SOL     OW24707   2.618  10.594   7.327 -0.0442  0.0022  0.7905
 5949SOL    HW124708   2.566  10.546   7.391 -1.7651  1.8497  0.8746
 5949SOL    HW224709   2.658  10.665   7.378 -1.8916  1.8404 -0.1699
 5950SOL     OW24710   2.757  11.234   2.440  0.1370  0.5151 -0.1563
 5950SOL    HW124711   2.663  11.249   2.451  0.3209  0.7978  1.2834
 5950SOL    HW224712   2.784  11.299   2.375 -0.8630 -0.4526 -1.6146
 5951SOL     OW24713   3.219  11.075   7.292 -0.2309  0.1207  0.0651
 5951SOL    HW124714   3.224  10.979   7.289 -0.0338  0.1187  0.4536
 5951SOL    HW224715   3.150  11.093   7.356  0.3491  0.2448  0.6667
 5952SOL     OW24716   7.459  11.808   1.111  0.2574 -0.1787 -0.4216
 5952SOL    HW124717   7.502  11.740   1.059 -0.6490 -1.6268  0.6672
 5952SOL    HW224718   7.366  11.787   1.107 -0.0692  1.1299 -0.2265
 5953SOL     OW24719   4.812   8.671  11.620 -0.0095  0.9144  0.6394
 5953SOL    HW124720   4.878   8.616  11.662 -0.2562 -0.5853 -0.8731
 5953SOL    HW224721   4.769   8.716  11.693  0.4609 -0.5837  1.8855
 5954SOL     OW24722   2.437   5.317   7.826  0.5972  0.1500  0.1569
 5954SOL    HW124723   2.446   5.341   7.734 -0.3023 -0.1768 -0.0258
 5954SOL    HW224724   2.404   5.397   7.868 -0.3117 -0.0924 -0.0641
 5955SOL     OW24725   6.199   6.780   1.942 -0.2231  0.2063  0.0290
 5955SOL    HW124726   6.159   6.704   1.985 -0.9088 -0.0703 -1.0584
 5955SOL    HW224727   6.126   6.838   1.920  0.3580  1.5344  1.4578
 5956SOL     OW24728   4.620   3.173   9.532  0.3633  0.0680  0.0202
 5956SOL    HW124729   4.708   3.135   9.525  0.4846 -0.0115  1.6214
 5956SOL    HW224730   4.634   3.267   9.529  0.5332  0.0590  0.4413
 5957SOL     OW24731   9.564   6.985  10.702  0.0550 -0.1026  0.7522
 5957SOL    HW124732   9.601   6.899  10.685  0.0218  0.2927 -1.7210
 5957SOL    HW224733   9.534   6.981  10.793  1.5581 -2.1059  1.2219
 5958SOL     OW24734   3.799   0.395   2.245  0.5512 -0.0706  0.0800
 5958SOL    HW124735   3.820   0.485   2.271  1.5848 -0.4234  0.5461
 5958SOL    HW224736   3.884   0.359   2.218 -0.2857  0.0088 -3.0743
 5959SOL     OW24737   4.048  11.388   8.626 -0.0362 -0.2253  0.1967
 5959SOL    HW124738   4.045  11.300   8.663  0.7245  0.5445  2.2323
 5959SOL    HW224739   4.141  11.407   8.616 -0.1968  0.3174 -0.3091
 5960SOL     OW24740   3.595   6.594   2.817  0.3188 -0.1330  0.6335
 5960SOL    HW124741   3.577   6.660   2.884  2.2757  0.4515  0.6744
 5960SOL    HW224742   3.611   6.513   2.865  0.6668  0.0330  0.7989
 5961SOL     OW24743   0.605   8.420   5.480  0.0716 -0.3149 -0.4747
 5961SOL    HW124744   0.602   8.328   5.454  1.0701 -0.2249 -0.9648
 5961SOL    HW224745   0.573   8.420   5.570 -0.0796 -1.1262 -0.5200
 5962SOL     OW24746   2.285   4.863   3.317 -0.3737 -0.0037  0.5004
 5962SOL    HW124747   2.377   4.861   3.292 -0.0199  1.3201  1.5716
 5962SOL    HW224748   2.272   4.782   3.366 -0.1705 -0.8837 -0.8422
 5963SOL     OW24749   0.433   1.674   4.594 -0.2898 -0.0681 -0.0321
 5963SOL    HW124750   0.418   1.656   4.686  1.7523 -0.6112  0.2535
 5963SOL    HW224751   0.434   1.769   4.587 -0.2047 -0.0232  0.5607
 5964SOL     OW24752  10.335   4.914   6.717 -0.2604 -0.3569 -0.0483
 5964SOL    HW124753  10.249   4.871   6.726 -0.7391  0.5151 -0.3633
 5964SOL    HW224754  10.397   4.850   6.752 -1.1762 -0.4718  1.4616
 5965SOL     OW24755  10.459   9.461   4.751  0.3573  0.3454  0.1287
 5965SOL    HW124756  10.461   9.416   4.836  0.5059 -0.4075 -0.2613
 5965SOL    HW224757  10.541   9.435   4.708  0.6255  1.2969  0.0333
 5966SOL     OW24758   1.096   7.972   4.599 -0.1113 -0.3851  0.1057
 5966SOL    HW124759   1.114   7.914   4.672  0.3249  0.1356  0.4186
 5966SOL    HW224760   1.039   7.921   4.541 -0.6174 -0.7312  0.8924
 5967SOL     OW24761   0.739   1.666   9.915  0.0929 -0.3249 -0.0781
 5967SOL    HW124762   0.734   1.699  10.004 -1.3949 -0.4141 -0.1069
 5967SOL    HW224763   0.677   1.593   9.912 -1.2280  0.7845 -1.6332
 5968SOL     OW24764   0.860   1.991   9.532 -0.0733 -0.0236 -0.9942
 5968SOL    HW124765   0.914   2.031   9.601 -0.2999  0.7795 -1.2658
 5968SOL    HW224766   0.803   1.930   9.579 -0.2558  0.5494 -0.4485
 5969SOL     OW24767   5.103   0.203   1.134 -0.0662 -0.0396  0.2573
 5969SOL    HW124768   5.057   0.142   1.078 -0.2032  0.5720 -0.3120
 5969SOL    HW224769   5.039   0.226   1.202 -0.9077  1.3920 -0.9562
 5970SOL     OW24770   5.215   7.686   8.413  0.5755 -0.1029 -0.0172
 5970SOL    HW124771   5.229   7.604   8.460 -0.6957 -1.6041 -2.0716
 5970SOL    HW224772   5.298   7.703   8.369  0.6128 -0.7097 -0.1914
 5971SOL     OW24773  11.817   5.718   0.987  0.0837  0.6429  0.1414
 5971SOL    HW124774  11.886   5.652   0.979  0.5318  0.6521  2.9616
 5971SOL    HW224775  11.736   5.668   0.994  0.3365  0.3974  1.4801
 5972SOL     OW24776   7.349   9.416  11.495 -0.4971  0.3879  0.5365
 5972SOL    HW124777   7.348   9.511  11.483  0.9983  0.1224 -2.7039
 5972SOL    HW224778   7.414   9.401  11.564  0.9853  1.6620 -0.5144
 5973SOL     OW24779   2.935   9.020   2.078 -0.2024  0.2495  0.3740
 5973SOL    HW124780   3.009   8.986   2.127  0.1458  0.7622  0.2141
 5973SOL    HW224781   2.933   9.113   2.099 -0.7391  0.2590  0.2943
 5974SOL     OW24782   8.182   7.609   1.225 -0.0625  0.3625 -0.8400
 5974SOL    HW124783   8.277   7.600   1.236 -0.1983  0.7009  0.8292
 5974SOL    HW224784   8.170   7.698   1.191  0.1611  0.6868 -0.0825
 5975SOL     OW24785   9.785  10.388   8.065 -0.0448 -0.1576 -0.0352
 5975SOL    HW124786   9.749  10.415   7.981  0.8616 -0.4680 -0.5394
 5975SOL    HW224787   9.730  10.431   8.130 -0.3639  0.6045 -0.7936
 5976SOL     OW24788   1.271   8.931   1.631 -0.2076 -0.0431  0.3993
 5976SOL    HW124789   1.356   8.918   1.590  0.8515  0.4645  2.3319
 5976SOL    HW224790   1.254   9.024   1.622 -0.0688  0.0337  0.8904
 5977SOL     OW24791   4.381   6.394   6.605 -0.0892  0.3566  0.0713
 5977SOL    HW124792   4.314   6.462   6.606 -1.2156 -0.6873  1.8343
 5977SOL    HW224793   4.415   6.392   6.694  1.1752 -0.2235 -0.3985
 5978SOL     OW24794   0.228   9.461  10.783  0.3378 -0.2224 -0.4889
 5978SOL    HW124795   0.313   9.432  10.749  0.1917  0.6753 -1.6810
 5978SOL    HW224796   0.247   9.544  10.828  0.0059  0.3090 -1.3130
 5979SOL     OW24797   7.880  12.021   7.718 -0.2339 -0.0801  0.2017
 5979SOL    HW124798   7.804  11.966   7.740 -1.4841  2.0295  1.6185
 5979SOL    HW224799   7.952  11.984   7.769 -0.8896 -0.7908  0.6312
 5980SOL     OW24800   4.648   6.851   9.404 -0.1360  0.0871 -0.5306
 5980SOL    HW124801   4.734   6.885   9.428  0.5059 -0.4883 -1.9286
 5980SOL    HW224802   4.599   6.927   9.374 -0.0719  0.3873  0.1076
 5981SOL     OW24803   1.316   9.942   0.081 -0.3296  0.1897  0.0041
 5981SOL    HW124804   1.300   9.958   0.174  0.7965  0.5258  0.1485
 5981SOL    HW224805   1.228   9.938   0.042 -0.8608 -0.9729  1.2375
 5982SOL     OW24806   1.098  11.441   7.365 -0.5699  0.2408  0.0312
 5982SOL    HW124807   1.172  11.420   7.422 -0.3436 -1.7680 -0.9406
 5982SOL    HW224808   1.138  11.480   7.287 -0.8643  2.7460  1.0142
 5983SOL     OW24809   0.681   6.713  10.322 -0.3013  0.1434  0.2205
 5983SOL    HW124810   0.661   6.634  10.271  0.3522 -0.1983  0.4732
 5983SOL    HW224811   0.653   6.785  10.267 -0.2885 -0.2462 -0.3099
 5984SOL     OW24812   0.138   4.617   6.885  0.0150 -0.3291 -0.3153
 5984SOL    HW124813   0.170   4.594   6.798  2.5346 -0.3751  0.5416
 5984SOL    HW224814   0.193   4.566   6.945 -0.9915  0.4482  1.3350
 5985SOL     OW24815  11.892   2.411   9.684  0.6400 -0.2070  0.2470
 5985SOL    HW124816  11.925   2.322   9.681  0.9699 -0.1161  0.9136
 5985SOL    HW224817  11.970   2.466   9.680  0.3876  0.0848 -1.1093
 5986SOL     OW24818  10.144  11.389   6.190  0.3918 -0.1096 -0.4722
 5986SOL    HW124819  10.154  11.302   6.229 -1.3309 -0.0472  0.1782
 5986SOL    HW224820  10.207  11.390   6.118  0.8607 -1.6724 -0.1253
 5987SOL     OW24821   7.725   5.219  10.130 -0.0460 -0.3289  0.0004
 5987SOL    HW124822   7.668   5.152  10.093  0.5352  0.5303 -2.6896
 5987SOL    HW224823   7.814   5.189  10.109  0.3452 -0.0185  1.1589
 5988SOL     OW24824   7.668   7.805   8.272  0.1344 -0.7008 -0.2791
 5988SOL    HW124825   7.677   7.721   8.318 -0.5246 -0.8651 -0.4327
 5988SOL    HW224826   7.597   7.790   8.209 -2.1043  0.7987  1.6923
 5989SOL     OW24827   3.220   9.718  11.248 -0.4066 -0.4815 -0.4399
 5989SOL    HW124828   3.189   9.635  11.212  0.5180 -1.4900  0.9997
 5989SOL    HW224829   3.284   9.749  11.185  0.1447 -1.4987 -0.4033
 5990SOL     OW24830   3.581  10.821   3.524 -0.1378  0.5666 -0.3357
 5990SOL    HW124831   3.563  10.729   3.505  0.7101  0.7713 -2.4042
 5990SOL    HW224832   3.666  10.821   3.569  0.6874  0.4119 -1.8418
 5991SOL     OW24833   8.609   6.684   9.323  0.3023 -0.5153  0.0196
 5991SOL    HW124834   8.563   6.714   9.244 -0.0298 -0.1661  0.3418
 5991SOL    HW224835   8.689   6.644   9.290  1.4516  1.9262 -0.4027
 5992SOL     OW24836   5.607   3.148   9.102  0.2989 -0.1304  0.3249
 5992SOL    HW124837   5.572   3.220   9.154 -2.9163 -0.8541 -0.6274
 5992SOL    HW224838   5.668   3.190   9.041 -0.4382  1.6003  0.7133
 5993SOL     OW24839  12.367   8.876   7.638  0.3179 -0.0592  0.2874
 5993SOL    HW124840  12.396   8.897   7.727 -0.1972 -0.9153  0.6616
 5993SOL    HW224841  12.418   8.936   7.582 -0.4029  1.5283  1.2454
 5994SOL     OW24842   4.363   9.727  12.307 -0.6726 -0.0755 -0.2973
 5994SOL    HW124843   4.418   9.724  12.230 -0.2450 -0.8935  0.0240
 5994SOL    HW224844   4.411   9.781  12.370 -0.3283 -0.6246 -0.0873
 5995SOL     OW24845   0.709   7.260  10.355 -0.2395 -0.1950 -0.1144
 5995SOL    HW124846   0.748   7.297  10.435  0.3417 -2.2170  0.5905
 5995SOL    HW224847   0.623   7.230  10.382 -0.5926  0.3361 -0.6166
 5996SOL     OW24848   9.642   0.598   7.206  0.4343 -0.5599 -0.0203
 5996SOL    HW124849   9.704   0.604   7.279 -0.8984 -0.5671  1.1506
 5996SOL    HW224850   9.629   0.688   7.176  0.5619 -0.4979  0.1155
 5997SOL     OW24851   0.594   0.521  10.594  0.0994  0.1056 -0.0000
 5997SOL    HW124852   0.673   0.502  10.645 -0.3001 -0.7390  0.3272
 5997SOL    HW224853   0.566   0.437  10.560 -0.1850  0.5264 -0.8317
 5998SOL     OW24854   4.659   2.917  10.218 -0.5586  0.3790 -0.6894
 5998SOL    HW124855   4.574   2.941  10.182  0.0697  0.8268 -1.9338
 5998SOL    HW224856   4.655   2.947  10.309 -0.7936  2.8784 -1.4329
 5999SOL     OW24857  11.348   7.029   0.182 -0.0004 -0.3706  0.2135
 5999SOL    HW124858  11.415   7.095   0.161  1.5771 -2.0125 -0.1209
 5999SOL    HW224859  11.300   7.016   0.100  0.5192 -0.5665 -0.0582
 6000SOL     OW24860   7.275   0.484   1.728 -0.0907 -0.0208  0.3331
 6000SOL    HW124861   7.243   0.508   1.815  0.5953 -0.3907  0.7027
 6000SOL    HW224862   7.205   0.509   1.668 -1.0035 -0.6818  1.0935
 6001SOL     OW24863  11.148   9.758   5.852  0.4742  0.4870  0.4678
 6001SOL    HW124864  11.135   9.730   5.943 -2.3457 -0.1626 -0.0478
 6001SOL    HW224865  11.060   9.758   5.814  1.6762 -0.5246 -2.6440
 6002SOL     OW24866   7.826  12.328   4.043  0.3420  0.2616 -0.3645
 6002SOL    HW124867   7.859  12.336   4.132 -0.0548 -1.2818 -0.0698
 6002SOL    HW224868   7.732  12.344   4.050  0.0270 -1.5481 -0.2224
 6003SOL     OW24869   0.016   2.809  11.538  0.0193 -0.2590  0.0162
 6003SOL    HW124870  -0.013   2.897  11.515  1.8557 -0.4388 -3.6699
 6003SOL    HW224871   0.070   2.821  11.616 -1.3270  1.5207  0.7291
 6004SOL     OW24872  10.365   0.708  10.469  0.7069 -0.0822 -0.2494
 6004SOL    HW124873  10.293   0.768  10.488  0.6245 -0.1228 -0.4281
 6004SOL    HW224874  10.407   0.745  10.391  1.1867  0.2144  0.1473
 6005SOL     OW24875   0.282   9.686  10.201 -0.0147 -0.2457  0.3962
 6005SOL    HW124876   0.188   9.673  10.213 -0.0384  0.9194  1.6016
 6005SOL    HW224877   0.306   9.622  10.133 -1.3678 -1.6398  1.1687
 6006SOL     OW24878   6.495   5.199  11.973 -0.3587  0.3007  0.0640
 6006SOL    HW124879   6.465   5.145  11.899  0.5799 -0.0670 -0.0538
 6006SOL    HW224880   6.496   5.288  11.939 -1.2704  0.3174  0.0584
 6007SOL     OW24881   2.369   1.924  11.459  0.1715 -0.0496 -0.0577
 6007SOL    HW124882   2.400   1.835  11.475 -0.8421 -0.9186 -2.3682
 6007SOL    HW224883   2.350   1.925  11.365 -3.7430  1.2995  0.5792
 6008SOL     OW24884   6.963  11.204   9.467 -0.1783  0.6205  0.1307
 6008SOL    HW124885   7.008  11.212   9.552 -0.0059  1.6917 -0.0409
 6008SOL    HW224886   7.032  11.213   9.402 -0.3541  0.1153 -0.1311
 6009SOL     OW24887  12.179   4.456  10.649  0.2189 -0.5685 -0.3837
 6009SOL    HW124888  12.196   4.473  10.557  1.9421  3.4856  0.4375
 6009SOL    HW224889  12.265   4.445  10.689 -0.4393 -1.4596  0.8971
 6010SOL     OW24890   0.353   1.597   9.900  0.2618  0.2215  0.0642
 6010SOL    HW124891   0.428   1.540   9.884  0.3601  0.5740 -0.7588
 6010SOL    HW224892   0.302   1.593   9.819 -0.5108  0.1368  0.5428
 6011SOL     OW24893   7.278   7.453   7.271 -0.0146  0.0849  0.5212
 6011SOL    HW124894   7.190   7.462   7.235 -0.3063 -2.9354  0.2273
 6011SOL    HW224895   7.266   7.460   7.366 -0.3217  1.0792  0.4215
 6012SOL     OW24896   6.524   8.700  12.425 -0.1918  0.0907 -0.4023
 6012SOL    HW124897   6.507   8.786  12.386 -1.8452 -0.1306 -0.2320
 6012SOL    HW224898   6.469   8.640  12.376  0.1468 -0.7100  0.1766
 6013SOL     OW24899  10.258   2.851   5.057  0.0913 -0.2933  0.0204
 6013SOL    HW124900  10.321   2.812   5.118  1.0445  1.3893  0.1767
 6013SOL    HW224901  10.212   2.776   5.018  1.4852 -1.5235  0.6525
 6014SOL     OW24902   6.572   6.051   4.860 -0.3567 -0.4337  0.3055
 6014SOL    HW124903   6.480   6.072   4.848 -0.6153 -0.9781  1.2751
 6014SOL    HW224904   6.619   6.122   4.815 -1.2352 -0.2554 -0.3536
 6015SOL     OW24905   6.505   5.607   0.866 -0.7327  0.1216 -0.1397
 6015SOL    HW124906   6.444   5.564   0.806 -0.8173  0.8280 -0.5710
 6015SOL    HW224907   6.551   5.671   0.811  1.0569 -1.0305 -0.0242
 6016SOL     OW24908   3.535   8.280   8.374 -0.2850  0.2031  0.1335
 6016SOL    HW124909   3.496   8.321   8.450  0.4830 -0.3942  0.8687
 6016SOL    HW224910   3.617   8.242   8.406 -0.7371 -1.5163 -0.5886
 6017SOL     OW24911   2.803   9.353   3.670 -0.5104  0.7519  0.1060
 6017SOL    HW124912   2.713   9.332   3.645 -0.6735  0.8064  0.6360
 6017SOL    HW224913   2.796   9.439   3.711 -0.1656  0.8956 -0.1341
 6018SOL     OW24914   7.540   7.158   0.391 -0.4681 -0.1552  0.0513
 6018SOL    HW124915   7.483   7.234   0.386 -1.6258 -0.6553  3.2981
 6018SOL    HW224916   7.601   7.178   0.462  2.3833 -0.4064 -2.1046
 6019SOL     OW24917   6.071   6.991   9.252 -0.6189  0.4532 -0.8224
 6019SOL    HW124918   6.165   7.013   9.251 -0.7446  1.1595  0.8240
 6019SOL    HW224919   6.027   7.076   9.252 -1.1558  0.3126  2.7799
 6020SOL     OW24920  10.698  10.595   8.891  0.3448  0.0800  0.0300
 6020SOL    HW124921  10.760  10.626   8.956  0.2822 -0.3404  0.2931
 6020SOL    HW224922  10.728  10.507   8.868 -0.3943 -0.3002  0.4796
 6021SOL     OW24923   0.760   8.340   2.046  0.1104 -0.3094  0.9027
 6021SOL    HW124924   0.780   8.247   2.031 -0.9537 -0.8414  2.4607
 6021SOL    HW224925   0.669   8.340   2.076 -0.6628  1.4927 -1.2210
 6022SOL     OW24926   0.518  10.616  11.261 -0.2116 -0.5677 -0.5428
 6022SOL    HW124927   0.471  10.633  11.342  2.4033 -0.4077  1.0494
 6022SOL    HW224928   0.481  10.677  11.197 -1.9891 -0.3631  0.6379
 6023SOL     OW24929   6.951   2.812   5.972  0.0892 -0.4318 -0.2301
 6023SOL    HW124930   7.016   2.873   5.936 -1.5113  1.1712 -0.5966
 6023SOL    HW224931   6.867   2.856   5.957 -1.1704 -2.7845 -0.5367
 6024SOL     OW24932   4.445   4.476   2.958 -0.0127  0.7088  0.4312
 6024SOL    HW124933   4.369   4.462   3.015  0.4062 -0.2400  0.7768
 6024SOL    HW224934   4.432   4.563   2.922 -1.4063  0.4488  0.2666
 6025SOL     OW24935  10.290   3.860   9.703 -0.7932  0.4037  0.3112
 6025SOL    HW124936  10.222   3.921   9.674 -1.1861 -0.1230  0.0965
 6025SOL    HW224937  10.242   3.791   9.749 -0.4384 -0.1302 -0.0998
 6026SOL     OW24938   0.342   3.198  10.245 -0.3606  0.3794 -0.5369
 6026SOL    HW124939   0.403   3.216  10.316 -0.2013 -3.1464  0.4100
 6026SOL    HW224940   0.382   3.238  10.168  1.0329  1.6643  0.8009
 6027SOL     OW24941   1.698   5.645   7.647  0.4212  0.0967  0.2514
 6027SOL    HW124942   1.672   5.610   7.733  1.1485  0.8518  0.7955
 6027SOL    HW224943   1.626   5.621   7.589 -0.8516  0.9196  1.4071
 6028SOL     OW24944   8.326  12.159   0.993  0.2966  0.3479  0.2041
 6028SOL    HW124945   8.304  12.162   0.900  2.5360  0.1823 -0.3788
 6028SOL    HW224946   8.371  12.075   1.005  1.7488  1.1966  0.9959
 6029SOL     OW24947   9.954  11.273  11.752  0.7218  0.4288  0.2287
 6029SOL    HW124948  10.033  11.230  11.785  0.2638 -0.6427 -0.0114
 6029SOL    HW224949   9.982  11.315  11.671  0.9627 -0.3127 -0.0871
 6030SOL     OW24950   7.606   8.543   3.814  0.3983  0.1317  0.4984
 6030SOL    HW124951   7.576   8.611   3.754 -0.0221  1.3154  1.9826
 6030SOL    HW224952   7.695   8.567   3.837  0.3757 -0.0121  0.7515
 6031SOL     OW24953   7.282   9.664  11.476 -0.0623  0.2955 -0.2132
 6031SOL    HW124954   7.197   9.707  11.478 -0.2004  0.0785 -0.9996
 6031SOL    HW224955   7.301   9.653  11.383  0.2465 -0.7669 -0.0470
 6032SOL     OW24956   5.282   9.965  10.847  0.2219 -0.1073  0.1430
 6032SOL    HW124957   5.209   9.910  10.878 -0.0051  0.4020  0.5232
 6032SOL    HW224958   5.313  10.010  10.925  1.9895 -1.4849  0.3021
 6033SOL     OW24959   3.934   6.685   9.953  0.4807 -0.1739  0.0282
 6033SOL    HW124960   4.016   6.655   9.912  1.5619  1.4228  0.9298
 6033SOL    HW224961   3.918   6.770   9.914  1.5540  1.4203  2.7927
 6034SOL     OW24962   3.161   6.564   8.942  0.1516  0.1300  0.2914
 6034SOL    HW124963   3.158   6.506   9.018 -0.6887 -0.2802 -0.0465
 6034SOL    HW224964   3.073   6.559   8.904  1.1436 -1.4196 -1.9938
 6035SOL     OW24965   0.179   2.330   7.956 -0.2617  0.3780  0.4576
 6035SOL    HW124966   0.269   2.320   7.986 -0.7568 -3.3726  1.1809
 6035SOL    HW224967   0.182   2.303   7.864 -0.3477  2.3287 -0.1460
 6036SOL     OW24968   3.878   1.005  11.164  0.5586 -0.0896 -0.3860
 6036SOL    HW124969   3.969   0.992  11.191  0.9343  0.3084 -1.4156
 6036SOL    HW224970   3.852   1.087  11.206  0.7948 -0.0201 -0.3724
 6037SOL     OW24971   5.171   2.574   2.827 -0.0303  0.6590  0.1167
 6037SOL    HW124972   5.176   2.528   2.744  0.7438  0.2596  0.3773
 6037SOL    HW224973   5.183   2.506   2.893  2.0236  1.3258  0.4909
 6038SOL     OW24974   1.721   0.021   6.182 -0.0503 -0.2592  0.2562
 6038SOL    HW124975   1.631   0.044   6.161  0.1145  0.0208 -0.1729
 6038SOL    HW224976   1.766   0.021   6.097  0.4944  0.2591  0.5282
 6039SOL     OW24977   9.865  10.122   7.654 -0.0496  0.2166 -0.0698
 6039SOL    HW124978   9.854  10.214   7.679 -3.3507 -0.6077  2.1399
 6039SOL    HW224979   9.838  10.119   7.562  0.7580  1.5169 -0.3830
 6040SOL     OW24980   0.185   7.122   3.970  0.2355 -0.7650  0.1652
 6040SOL    HW124981   0.188   7.124   3.874 -0.9127 -1.3324  0.0884
 6040SOL    HW224982   0.157   7.032   3.990 -1.8291 -0.0212  0.9121
 6041SOL     OW24983   0.745   6.365   9.608  0.6693  0.0767  0.2726
 6041SOL    HW124984   0.748   6.459   9.593  0.1609  0.1119  0.3759
 6041SOL    HW224985   0.705   6.329   9.529 -1.7643  0.2396  1.3252
 6042SOL     OW24986   6.763   0.624   1.432 -0.0268  0.0782 -0.2278
 6042SOL    HW124987   6.702   0.619   1.506  0.5752  0.3988  0.3043
 6042SOL    HW224988   6.712   0.594   1.357 -1.1746  1.3584 -0.0009
 6043SOL     OW24989   0.469   1.974   3.142 -0.0117  0.1021 -0.0391
 6043SOL    HW124990   0.532   1.902   3.143  0.8016  0.7946 -0.2012
 6043SOL    HW224991   0.385   1.932   3.121  0.2630 -0.9218  0.8305
 6044SOL     OW24992  11.885   8.463  11.791  0.1320  0.1685  0.1076
 6044SOL    HW124993  11.800   8.423  11.773 -0.1893  0.3889  1.0589
 6044SOL    HW224994  11.936   8.392  11.831  0.1983  0.1929  0.0658
 6045SOL     OW24995   7.888  11.081   4.751 -0.8150  0.5698 -0.9764
 6045SOL    HW124996   7.880  11.090   4.846 -0.2450  0.4313 -0.9155
 6045SOL    HW224997   7.948  11.151   4.724 -1.1143  0.7233 -1.2588
 6046SOL     OW24998   4.169   9.157   8.019  0.2825  0.0592 -0.2914
 6046SOL    HW124999   4.073   9.164   8.016  0.2220  2.0085  2.4002
 6046SOL    HW225000   4.200   9.243   7.993  1.2197 -0.1173  0.1988
 6047SOL     OW25001   0.216   3.387   9.706 -0.1686  0.0306  0.3262
 6047SOL    HW125002   0.206   3.292   9.709  1.3748 -0.3196 -2.2149
 6047SOL    HW225003   0.303   3.401   9.668  0.3422  2.5162  2.1215
 6048SOL     OW25004   8.517  10.294   2.057 -0.0988 -0.5826 -0.5291
 6048SOL    HW125005   8.432  10.338   2.049 -0.8310 -1.6805  0.8002
 6048SOL    HW225006   8.579  10.354   2.014 -1.7385 -0.5007 -3.0014
 6049SOL     OW25007  10.030   6.095   6.263 -0.3142 -0.0074 -0.2616
 6049SOL    HW125008  10.090   6.130   6.197  1.2127 -0.5527  0.7957
 6049SOL    HW225009  10.024   6.164   6.329 -0.7507 -0.0106 -0.2961
 6050SOL     OW25010   0.801  10.646  11.952 -0.8131  0.2342  0.6671
 6050SOL    HW125011   0.750  10.707  11.899 -0.2738 -0.0597 -0.2047
 6050SOL    HW225012   0.772  10.559  11.924  2.9160 -0.1411 -2.8627
 6051SOL     OW25013  11.693   7.571   5.051 -0.1794 -0.1819  0.7993
 6051SOL    HW125014  11.751   7.496   5.067  0.8147 -0.4875 -3.1115
 6051SOL    HW225015  11.620   7.535   5.001 -1.5509  0.9571  1.8924
 6052SOL     OW25016   0.277   1.497   0.732  0.1598  0.0838 -0.4132
 6052SOL    HW125017   0.283   1.406   0.704 -1.3379 -0.1526 -0.0671
 6052SOL    HW225018   0.211   1.496   0.801 -1.9511  1.8354 -2.2565
 6053SOL     OW25019   3.211   4.383   2.640 -0.0038  0.0828  0.5589
 6053SOL    HW125020   3.212   4.287   2.637 -2.1350 -0.0004  1.0860
 6053SOL    HW225021   3.147   4.408   2.573 -1.0198  1.0164  1.8322
 6054SOL     OW25022   8.459   3.936   7.880  0.0054 -0.4165  0.0123
 6054SOL    HW125023   8.455   3.883   7.959 -2.7323 -1.1883 -0.5338
 6054SOL    HW225024   8.398   4.008   7.896 -1.1990 -1.0094 -1.6109
 6055SOL     OW25025   0.762   2.273   3.665  0.1983  0.1716 -0.2499
 6055SOL    HW125026   0.702   2.199   3.664 -0.3106  0.5829 -0.4012
 6055SOL    HW225027   0.725   2.335   3.602  0.4495  0.6889  0.1070
 6056SOL     OW25028   4.871   1.893   7.690 -0.0399 -0.1707  0.0714
 6056SOL    HW125029   4.936   1.947   7.733  0.3512  1.0433 -1.9308
 6056SOL    HW225030   4.791   1.905   7.742 -0.5837  4.0922 -1.3628
 6057SOL     OW25031  10.905  12.430   6.932 -0.2742  0.0316  0.2436
 6057SOL    HW125032  10.999  12.412   6.926 -0.6275 -3.2458  2.4719
 6057SOL    HW225033  10.873  12.370   6.998 -4.0366  0.9169 -0.5654
 6058SOL     OW25034   1.997   0.264   9.291 -0.0099  0.6921 -0.3018
 6058SOL    HW125035   2.006   0.179   9.246  1.2292  1.8589 -2.3965
 6058SOL    HW225036   2.068   0.264   9.355 -0.6949 -0.2742  0.4891
 6059SOL     OW25037   4.602  10.168   9.877 -0.2284 -0.0465 -0.3284
 6059SOL    HW125038   4.696  10.151   9.867 -0.5511 -1.6861 -0.9123
 6059SOL    HW225039   4.567  10.157   9.789 -1.0111  0.3528 -0.0723
 6060SOL     OW25040   9.429   8.932   4.511 -0.0739  0.5097  0.0235
 6060SOL    HW125041   9.492   8.978   4.454 -2.2342  2.0831 -1.2275
 6060SOL    HW225042   9.436   8.978   4.595  1.0170  0.0875  0.1923
 6061SOL     OW25043   7.240   9.931   1.616 -0.4768 -0.0607 -0.0864
 6061SOL    HW125044   7.231   9.941   1.522 -0.4123  0.0627 -0.0807
 6061SOL    HW225045   7.244   9.837   1.631  2.2712 -0.0913 -0.4911
 6062SOL     OW25046   1.334   4.839   7.955 -0.2086 -0.1148  0.3639
 6062SOL    HW125047   1.332   4.838   8.051  1.8828  0.3825  0.4646
 6062SOL    HW225048   1.335   4.747   7.930  1.8674 -0.3216  0.9838
 6063SOL     OW25049   1.971   8.254   4.485 -0.1218 -0.0415 -0.1127
 6063SOL    HW125050   1.956   8.325   4.423  0.8396  0.6642  0.4293
 6063SOL    HW225051   1.885   8.214   4.498 -1.0909  2.1976  0.9448
 6064SOL     OW25052   1.355   8.734   3.709  0.0116  0.1743 -0.3436
 6064SOL    HW125053   1.378   8.815   3.663  1.8901  0.4894  1.0361
 6064SOL    HW225054   1.296   8.763   3.779 -0.0751  0.1950 -0.4241
 6065SOL     OW25055  11.172  10.759   1.087 -0.1428  0.3963  0.7517
 6065SOL    HW125056  11.118  10.838   1.084 -0.8429 -0.0654 -2.1907
 6065SOL    HW225057  11.109  10.687   1.099  0.2464  0.1117  1.1294
 6066SOL     OW25058   8.707  10.541   0.754  0.0032 -0.3932 -0.1214
 6066SOL    HW125059   8.676  10.631   0.763 -0.7476 -0.7688  1.4365
 6066SOL    HW225060   8.702  10.522   0.660 -3.0125  0.1159 -0.1501
 6067SOL     OW25061   0.284   7.029   9.235  0.9817 -0.1452 -0.3836
 6067SOL    HW125062   0.353   7.073   9.285  2.4838 -0.3813 -2.1439
 6067SOL    HW225063   0.264   6.951   9.286 -0.1721  1.3699  1.6669
 6068SOL     OW25064   9.613  11.668  10.443  0.0946  0.0408  0.1225
 6068SOL    HW125065   9.526  11.638  10.417  0.0301  0.2844  0.0542
 6068SOL    HW225066   9.602  11.761  10.462  0.2630 -0.0078  0.4691
 6069SOL     OW25067  10.197   9.251   2.951 -0.5766 -0.2223  0.0595
 6069SOL    HW125068  10.152   9.217   3.029 -0.7663 -0.2803 -0.0731
 6069SOL    HW225069  10.176   9.187   2.882  0.5737 -0.8203  0.2394
 6070SOL     OW25070   9.664   4.877  10.511  0.0836 -0.2117 -0.8037
 6070SOL    HW125071   9.706   4.957  10.542  1.7564 -1.2602 -0.2299
 6070SOL    HW225072   9.724   4.843  10.444 -0.1224 -1.4289 -0.3984
 6071SOL     OW25073   5.565   7.297   4.655  0.7745  0.2960 -0.4776
 6071SOL    HW125074   5.649   7.320   4.695 -0.9487  2.4556  2.2963
 6071SOL    HW225075   5.534   7.223   4.706  1.2021 -0.9221 -1.9210
 6072SOL     OW25076  12.463  11.680   1.678  0.5328  0.0576 -0.0535
 6072SOL    HW125077  12.504  11.697   1.763 -0.9808 -0.0183  0.7287
 6072SOL    HW225078  12.472  11.762   1.630 -0.9647  0.9996  1.2146
 6073SOL     OW25079   4.541   1.892   0.328 -0.0500 -0.8884 -0.1291
 6073SOL    HW125080   4.511   1.852   0.247 -0.5627  1.3553 -1.1441
 6073SOL    HW225081   4.581   1.975   0.300  1.3265 -0.8495  1.7748
 6074SOL     OW25082   0.336   2.987  10.542  0.4623 -0.2624  0.6041
 6074SOL    HW125083   0.305   2.914  10.488  1.1564 -0.2567  0.1803
 6074SOL    HW225084   0.271   2.994  10.612 -1.5678  0.9611 -1.2542
 6075SOL     OW25085   6.561   5.934   1.016  0.0492 -0.4264 -0.4622
 6075SOL    HW125086   6.595   5.848   1.041  0.5678  0.0908  0.6713
 6075SOL    HW225087   6.546   5.979   1.099  1.6218  1.2921 -1.0309
 6076SOL     OW25088   3.016   4.513   8.586 -0.2771 -0.1942  0.1691
 6076SOL    HW125089   3.042   4.461   8.662 -0.6817 -1.1254 -0.3072
 6076SOL    HW225090   2.976   4.449   8.526  1.0029  0.2909 -1.2853
 6077SOL     OW25091  10.762   4.084   6.851  0.1246 -0.3741  0.0895
 6077SOL    HW125092  10.711   4.112   6.927 -0.1813 -0.3881 -0.1031
 6077SOL    HW225093  10.808   4.163   6.823 -0.7262 -0.0482 -0.4456
 6078SOL     OW25094   5.947  11.339   5.502  0.2024  0.1741 -0.3920
 6078SOL    HW125095   6.041  11.321   5.500  0.0135 -0.8974 -3.2617
 6078SOL    HW225096   5.907  11.254   5.522 -0.2047  0.5316  0.3514
 6079SOL     OW25097   4.840   7.754   2.010 -0.0805 -0.4103  0.0219
 6079SOL    HW125098   4.878   7.709   1.935  0.7092 -1.6020  1.1014
 6079SOL    HW225099   4.904   7.823   2.031  1.5786 -2.3369  1.7630
 6080SOL     OW25100   6.714   6.796   2.109 -0.1056 -0.6471 -0.2123
 6080SOL    HW125101   6.643   6.814   2.047  1.7084  0.0639 -2.1796
 6080SOL    HW225102   6.724   6.701   2.107  0.9827 -0.5381 -2.3257
 6081SOL     OW25103  12.266   5.297   3.229  0.0088 -0.1375 -0.5804
 6081SOL    HW125104  12.324   5.372   3.219 -2.1169  2.2609  2.8177
 6081SOL    HW225105  12.317   5.233   3.279  0.7523  0.4891 -0.5262
 6082SOL     OW25106   2.603  10.000   6.956  0.2088 -0.1944 -0.7603
 6082SOL    HW125107   2.520   9.965   6.988  0.2769  0.1607 -0.1781
 6082SOL    HW225108   2.640   9.929   6.904 -0.4069 -0.3963 -0.9337
 6083SOL     OW25109  12.063   0.817  11.822 -0.4055 -0.3712  0.7791
 6083SOL    HW125110  12.141   0.869  11.841  0.2389 -1.4369  1.1143
 6083SOL    HW225111  12.012   0.820  11.903 -0.6166  0.1525  0.6292
 6084SOL     OW25112  10.454   6.945   4.669  0.3920  0.2047 -0.5340
 6084SOL    HW125113  10.413   6.954   4.755  1.8219  0.0726  0.1901
 6084SOL    HW225114  10.473   7.035   4.642  3.8327  0.2063  1.3021
 6085SOL     OW25115   3.569  10.314   2.625 -0.6153 -0.1134 -0.0411
 6085SOL    HW125116   3.494  10.262   2.597  0.2293 -1.2652 -0.2511
 6085SOL    HW225117   3.580  10.380   2.557 -4.1507  3.0802  2.1423
 6086SOL     OW25118   5.622   2.844  11.326 -0.2746 -0.3774  0.0894
 6086SOL    HW125119   5.590   2.934  11.323 -1.3145 -0.7439 -2.7685
 6086SOL    HW225120   5.554   2.794  11.371 -1.1891 -0.2209 -1.0872
 6087SOL     OW25121   3.134  10.794   6.996 -0.1398 -0.6822 -0.5034
 6087SOL    HW125122   3.147  10.819   7.087  0.0528 -0.0741 -0.6946
 6087SOL    HW225123   3.097  10.706   7.000 -0.0290 -0.6990  0.1570
 6088SOL     OW25124  11.641   3.092   6.128  0.1837 -0.3854  0.6795
 6088SOL    HW125125  11.720   3.100   6.075  0.5883  1.2854  1.4927
 6088SOL    HW225126  11.628   2.997   6.137  1.8724 -0.6854  0.2426
 6089SOL     OW25127   0.105   9.707  11.147 -0.0020 -0.6821 -0.0435
 6089SOL    HW125128   0.025   9.657  11.133 -0.6163  0.1924  0.2931
 6089SOL    HW225129   0.140   9.674  11.230 -0.5179 -0.4188  0.2839
 6090SOL     OW25130   1.124  10.038   6.534 -0.3569 -0.1528 -0.4052
 6090SOL    HW125131   1.031  10.031   6.514 -0.9273  0.8007  1.6946
 6090SOL    HW225132   1.129  10.102   6.605  2.0580  1.0081 -1.5099
 6091SOL     OW25133  10.446  10.429   7.267  0.2218  0.2978 -0.0787
 6091SOL    HW125134  10.469  10.478   7.345  1.5707  1.4821 -1.1639
 6091SOL    HW225135  10.517  10.447   7.205 -0.3615 -1.2797 -1.2876
 6092SOL     OW25136   8.193   1.148   4.600 -0.3567 -0.6362 -0.1594
 6092SOL    HW125137   8.251   1.167   4.526 -1.6051 -0.8327 -1.2415
 6092SOL    HW225138   8.113   1.198   4.580 -0.8066 -0.8953  0.9439
 6093SOL     OW25139   5.078   7.744   1.391  0.0598 -0.1774 -0.0525
 6093SOL    HW125140   5.063   7.806   1.462  0.6056 -0.1791  0.0752
 6093SOL    HW225141   5.174   7.740   1.384  0.0270  1.2198 -2.0135
 6094SOL     OW25142   1.716  11.005   8.414  0.4689 -0.3611 -0.5438
 6094SOL    HW125143   1.677  11.091   8.398 -2.4788 -1.6496 -1.1573
 6094SOL    HW225144   1.701  10.989   8.507 -2.7940 -1.6926 -1.1272
 6095SOL     OW25145   7.052   3.545   6.706  0.5743  0.3964  0.7807
 6095SOL    HW125146   7.080   3.518   6.618 -1.1474  0.9872 -0.0029
 6095SOL    HW225147   6.986   3.480   6.730 -0.1727  1.1994  0.9077
 6096SOL     OW25148   3.551   0.211  11.350  0.4234  0.1344 -0.1363
 6096SOL    HW125149   3.504   0.292  11.369 -0.2364 -0.5309  1.2095
 6096SOL    HW225150   3.644   0.235  11.355  0.2389  0.8574 -0.0710
 6097SOL     OW25151   8.923  11.730   8.526 -0.3196  0.0219 -0.3531
 6097SOL    HW125152   8.852  11.729   8.463  0.3636  0.9460 -1.1832
 6097SOL    HW225153   9.002  11.745   8.473  0.4529 -0.6525  0.5669
 6098SOL     OW25154   6.914   3.702  10.241  0.5752  0.3333  0.4634
 6098SOL    HW125155   6.859   3.663  10.172  1.6275  1.8061 -1.2943
 6098SOL    HW225156   6.861   3.775  10.274 -0.1991 -0.7569  1.7396
 6099SOL     OW25157   5.190   9.214   6.417 -0.2204  0.1757  0.1937
 6099SOL    HW125158   5.152   9.233   6.332  1.0641  0.3339 -0.3702
 6099SOL    HW225159   5.153   9.129   6.441 -0.2321 -0.0946 -0.7450
 6100SOL     OW25160  11.619   0.063   0.624 -0.3974 -0.5087 -0.1288
 6100SOL    HW125161  11.601   0.157   0.631  0.0236 -0.4037 -0.4011
 6100SOL    HW225162  11.536   0.021   0.646 -1.3423 -0.0105 -2.3573
 6101SOL     OW25163   5.642   3.959   3.457 -0.1051  0.3592 -0.4906
 6101SOL    HW125164   5.609   3.995   3.539  0.9780 -0.3018  0.2773
 6101SOL    HW225165   5.564   3.931   3.410 -0.6844 -1.1328  1.2283
 6102SOL     OW25166   8.030   1.364   3.901  0.4884  0.6686 -0.0699
 6102SOL    HW125167   8.026   1.269   3.895 -0.1322  0.6335  0.7586
 6102SOL    HW225168   8.071   1.392   3.818 -0.9815 -0.1969 -1.1392
 6103SOL     OW25169   3.963  12.304   2.903 -0.7448  0.3122 -0.1355
 6103SOL    HW125170   4.036  12.356   2.937  0.4922  0.0345 -2.1209
 6103SOL    HW225171   3.914  12.365   2.848 -0.8552  0.0528 -0.3283
 6104SOL     OW25172   5.585   8.330  10.088 -0.7111 -0.4533 -0.0550
 6104SOL    HW125173   5.490   8.338  10.091 -0.7242 -0.8542  0.9255
 6104SOL    HW225174   5.601   8.259  10.026 -0.9503  0.8436 -1.6841
 6105SOL     OW25175  11.508  10.395  10.204  0.3719 -0.1672  0.2575
 6105SOL    HW125176  11.498  10.449  10.126  1.3675  0.9384  0.8768
 6105SOL    HW225177  11.419  10.371  10.228  0.0569 -0.8527 -1.4179
 6106SOL     OW25178   6.139   1.880   9.824 -0.4289 -0.3058  0.3644
 6106SOL    HW125179   6.052   1.845   9.804  0.0081 -1.7188  0.8771
 6106SOL    HW225180   6.122   1.970   9.852 -1.5518  0.0085 -1.1977
 6107SOL     OW25181   0.025   9.919  12.081 -0.5315 -0.0553  0.1774
 6107SOL    HW125182   0.084   9.945  12.152 -1.2940  0.2058  0.7214
 6107SOL    HW225183  -0.061   9.947  12.110 -0.7573  0.7507 -1.1846
 6108SOL     OW25184   0.524   2.967   2.584 -0.2429 -0.0794  0.0088
 6108SOL    HW125185   0.541   3.046   2.635 -1.8084  0.3666 -0.0876
 6108SOL    HW225186   0.492   2.904   2.648  1.0125 -0.6651  0.0870
 6109SOL     OW25187   0.015  10.290   4.863  0.0405 -0.4276  0.0143
 6109SOL    HW125188   0.078  10.350   4.901  0.5489 -1.2846  0.5714
 6109SOL    HW225189   0.052  10.266   4.778 -1.0057  1.3464 -0.9785
 6110SOL     OW25190  10.074   2.335   7.522 -0.0099  0.7156 -0.0385
 6110SOL    HW125191  10.036   2.325   7.610  0.7497  0.4601  0.2725
 6110SOL    HW225192  10.050   2.255   7.476  0.3384  0.4436  0.2382
 6111SOL     OW25193   9.584   5.679   1.326  0.7450  0.3136 -0.1712
 6111SOL    HW125194   9.603   5.611   1.391  0.2298 -0.2259 -0.5781
 6111SOL    HW225195   9.537   5.633   1.256 -0.1381  1.2073 -0.1809
 6112SOL     OW25196   3.218   5.052   6.607 -0.4996 -0.2623 -0.1887
 6112SOL    HW125197   3.260   5.132   6.576 -1.2896  0.7749  1.2606
 6112SOL    HW225198   3.288   4.988   6.612  0.6121  0.9542  0.6109
 6113SOL     OW25199  11.877   9.632   0.933 -0.4474  0.2301  0.2080
 6113SOL    HW125200  11.903   9.715   0.893 -1.2316  0.6217  0.4877
 6113SOL    HW225201  11.789   9.648   0.968 -0.6021 -0.7097  0.2918
 6114SOL     OW25202   0.293  11.916   0.314  0.1622 -0.1532  0.1723
 6114SOL    HW125203   0.221  11.958   0.267 -2.1694 -0.7377  3.0014
 6114SOL    HW225204   0.276  11.822   0.307  1.5696 -0.3962 -0.4071
 6115SOL     OW25205  10.963   7.558   8.074 -0.3169  0.7221 -0.0852
 6115SOL    HW125206  11.047   7.574   8.030 -0.7072  0.5443 -0.9117
 6115SOL    HW225207  10.907   7.630   8.046 -1.0636 -0.2620 -1.1909
 6116SOL     OW25208   3.054   8.208   6.883 -0.5099 -0.8722  0.6789
 6116SOL    HW125209   3.066   8.301   6.901 -1.2750 -0.7399  0.5130
 6116SOL    HW225210   3.076   8.165   6.965  1.4652 -0.6809  0.3067
 6117SOL     OW25211   5.849   1.902  10.180  0.0089  0.5433 -0.0229
 6117SOL    HW125212   5.822   1.921  10.270 -1.5471  0.5800 -0.4595
 6117SOL    HW225213   5.774   1.930  10.127 -0.0537 -1.6041 -1.1445
 6118SOL     OW25214   5.637   1.183   4.200  0.1747  0.0971 -0.2337
 6118SOL    HW125215   5.589   1.105   4.230  2.8940 -1.4675  0.3647
 6118SOL    HW225216   5.697   1.151   4.133  2.3264  1.3404  0.9641
 6119SOL     OW25217   4.919   0.992   2.474 -0.0285  0.3657 -0.1444
 6119SOL    HW125218   4.914   0.962   2.565 -1.1139 -1.0881 -0.6419
 6119SOL    HW225219   5.004   1.035   2.467 -0.5695  1.9501  1.9553
 6120SOL     OW25220  10.634   5.217  11.699  0.5083 -0.0022  0.0105
 6120SOL    HW125221  10.717   5.237  11.657  0.6311 -1.3435 -0.4274
 6120SOL    HW225222  10.658   5.186  11.787  0.4319  0.1913  0.0996
 6121SOL     OW25223   6.534   6.464  10.714  0.1595 -0.3431  0.2799
 6121SOL    HW125224   6.552   6.471  10.620  0.4382 -0.1409  0.3448
 6121SOL    HW225225   6.555   6.373  10.735 -0.4538 -0.5487  0.0380
 6122SOL     OW25226   7.200   7.395  11.622  0.3797 -0.1312 -0.0995
 6122SOL    HW125227   7.165   7.313  11.656  1.2964  0.0809  1.4552
 6122SOL    HW225228   7.184   7.459  11.691  0.6211  0.7566 -0.8446
 6123SOL     OW25229   5.881   9.117  10.411  0.4375  0.1316  0.5173
 6123SOL    HW125230   5.855   9.198  10.367 -0.1174 -0.1839  0.2412
 6123SOL    HW225231   5.846   9.125  10.499 -0.8238 -0.3735  0.0924
 6124SOL     OW25232  10.079   8.567   2.221  0.2358 -0.4222  0.6716
 6124SOL    HW125233  10.063   8.654   2.187  1.8272 -1.1926 -2.3683
 6124SOL    HW225234  10.024   8.509   2.168  0.2321 -1.4184  1.7066
 6125SOL     OW25235  10.635   3.246  11.338  0.1306  0.5819 -0.1686
 6125SOL    HW125236  10.652   3.252  11.432  1.0867 -0.8679 -0.2221
 6125SOL    HW225237  10.685   3.319  11.301  0.9872  0.2580  0.3151
 6126SOL     OW25238  10.864   5.075  11.881  0.2136  0.8429  0.2714
 6126SOL    HW125239  10.868   4.982  11.857  2.0960  1.3258 -1.6358
 6126SOL    HW225240  10.780   5.085  11.926 -0.3122 -1.6489 -0.0143
 6127SOL     OW25241   0.053   4.452  11.402 -0.0785 -0.2978 -0.4303
 6127SOL    HW125242   0.144   4.424  11.415  0.4700  1.1479 -1.0103
 6127SOL    HW225243   0.043   4.455  11.307 -0.4634  0.4030 -0.3659
 6128SOL     OW25244  10.237   5.125   5.697 -0.2975 -0.4985  0.1320
 6128SOL    HW125245  10.248   5.045   5.645  0.5320 -0.2208 -0.1345
 6128SOL    HW225246  10.222   5.094   5.786 -1.0033 -0.9642 -0.1369
 6129SOL     OW25247   5.215   4.896   7.462  0.3543  0.1593  0.0548
 6129SOL    HW125248   5.233   4.850   7.544  1.1480  0.1771 -0.1041
 6129SOL    HW225249   5.301   4.927   7.432 -0.1749  1.8900  0.2446
 6130SOL     OW25250   0.327  10.755  10.583 -0.1324 -0.3557  0.3706
 6130SOL    HW125251   0.242  10.799  10.586 -0.0876 -0.2770  0.4894
 6130SOL    HW225252   0.307  10.666  10.554 -0.1005  0.0550 -0.9680
 6131SOL     OW25253   0.881  11.957  11.052  0.0699 -0.2417 -0.5430
 6131SOL    HW125254   0.831  11.884  11.015  0.2179 -0.4314 -0.3719
 6131SOL    HW225255   0.823  12.033  11.043  0.1242 -0.2791 -1.1992
 6132SOL     OW25256  10.879   2.343  10.572  0.7413 -0.4422  0.1111
 6132SOL    HW125257  10.870   2.416  10.633  0.2076 -0.4204  0.0153
 6132SOL    HW225258  10.973   2.329  10.564  0.8069 -0.5297  1.0341
 6133SOL     OW25259   4.532   1.431   9.839  0.1174 -0.3403 -0.6811
 6133SOL    HW125260   4.537   1.515   9.792  1.3411 -0.1349 -0.2218
 6133SOL    HW225261   4.439   1.414   9.847 -0.1493 -0.3266 -3.0760
 6134SOL     OW25262  12.323  10.333   1.569  0.0092 -0.2306  0.0228
 6134SOL    HW125263  12.401  10.277   1.566  0.8597  0.9385 -1.9205
 6134SOL    HW225264  12.331  10.389   1.491 -1.3845  1.7874  1.2343
 6135SOL     OW25265   4.400   2.332   4.390  0.3732 -0.3048 -0.2074
 6135SOL    HW125266   4.431   2.250   4.429  0.0987 -0.6317 -0.6733
 6135SOL    HW225267   4.467   2.355   4.325  0.3191 -0.2984 -0.2615
 6136SOL     OW25268   0.293   1.673  10.344 -0.0394  0.1413 -0.5077
 6136SOL    HW125269   0.322   1.739  10.407 -0.4188 -0.2631  0.1014
 6136SOL    HW225270   0.226   1.717  10.292  0.3879  0.5262 -0.7431
 6137SOL     OW25271   8.495   2.414  11.972  0.1251  0.4168 -0.0935
 6137SOL    HW125272   8.441   2.423  12.051  1.7231  0.7165  1.0222
 6137SOL    HW225273   8.533   2.501  11.959  0.0461  0.3094 -1.0665
 6138SOL     OW25274  10.999  11.830   6.067  0.1560  0.4681 -0.4388
 6138SOL    HW125275  11.043  11.913   6.084 -1.6684  1.0961  1.5976
 6138SOL    HW225276  10.986  11.829   5.972 -1.1568  3.2743 -0.3868
 6139SOL     OW25277   9.898   8.102   0.025 -0.0120 -0.1270 -0.0730
 6139SOL    HW125278   9.823   8.155  -0.001  0.4256  1.7294  2.0948
 6139SOL    HW225279   9.869   8.011   0.013 -1.7425  0.5411 -1.4085
 6140SOL     OW25280   5.737   3.159  10.765  0.2617  0.2794 -0.6356
 6140SOL    HW125281   5.716   3.134  10.675 -0.6275 -0.7147 -0.1784
 6140SOL    HW225282   5.695   3.244  10.777 -0.0177  0.1994 -1.0147
 6141SOL     OW25283   7.604  11.136   3.739 -0.1622  1.1965  0.3322
 6141SOL    HW125284   7.586  11.155   3.831 -0.2655  2.6332  0.0471
 6141SOL    HW225285   7.525  11.166   3.692 -0.2608  0.1508 -0.1976
 6142SOL     OW25286  12.293   3.804  11.252 -0.2812 -0.9061 -0.4890
 6142SOL    HW125287  12.235   3.791  11.328  1.7471 -0.2927  1.2500
 6142SOL    HW225288  12.266   3.736  11.190 -2.9158 -0.5710  0.1676
 6143SOL     OW25289   6.453   2.281   8.299  0.1542 -0.9004  0.4024
 6143SOL    HW125290   6.372   2.322   8.328  0.7342  0.5959 -0.0285
 6143SOL    HW225291   6.478   2.225   8.373 -0.1569  0.2547  1.4301
 6144SOL     OW25292   9.875   0.703   9.222 -0.0033 -0.6688 -0.2258
 6144SOL    HW125293   9.787   0.670   9.238 -0.5003  0.2809 -0.8613
 6144SOL    HW225294   9.903   0.659   9.142 -0.3548 -0.1434 -0.6433
 6145SOL     OW25295   1.969   6.752  11.484  0.6931  0.3373  0.3527
 6145SOL    HW125296   2.038   6.818  11.497  0.4114  1.0993 -1.6480
 6145SOL    HW225297   1.916   6.787  11.412 -2.2661  0.1168  2.2693
 6146SOL     OW25298   9.262   8.373   8.460  0.3288  0.2569  0.2131
 6146SOL    HW125299   9.293   8.335   8.378  1.9627  0.8044  0.5212
 6146SOL    HW225300   9.296   8.315   8.528  1.4123  1.2982  0.6024
 6147SOL     OW25301   4.362   3.981   6.433 -0.1009 -0.2694 -0.3700
 6147SOL    HW125302   4.399   3.963   6.520 -1.1863 -0.3999  0.0802
 6147SOL    HW225303   4.398   4.066   6.409  1.7177 -1.0638 -0.6456
 6148SOL     OW25304  10.470   8.655   2.040 -0.3523  0.4351 -0.0902
 6148SOL    HW125305  10.442   8.678   2.129  0.0185  0.5246  0.0028
 6148SOL    HW225306  10.413   8.707   1.983 -0.3956  0.5955  0.0994
 6149SOL     OW25307   4.632   4.589   4.583  0.3129 -0.1836  0.4911
 6149SOL    HW125308   4.607   4.667   4.634 -0.7429 -1.5211  2.1503
 6149SOL    HW225309   4.727   4.585   4.591  0.2448  0.1038  1.7193
 6150SOL     OW25310   3.086   3.737   1.114  0.8935  0.3605 -0.2901
 6150SOL    HW125311   3.138   3.674   1.165  0.0491  0.9823  1.4406
 6150SOL    HW225312   2.996   3.723   1.143  0.4419  1.0950 -1.2794
 6151SOL     OW25313   3.691   2.672   9.998  0.8082  0.0607  0.8219
 6151SOL    HW125314   3.651   2.742  10.050 -0.0437  0.4088 -0.2592
 6151SOL    HW225315   3.647   2.592  10.028  0.6046  0.2082  0.9219
 6152SOL     OW25316   3.484   3.301   8.384 -0.2568  0.2685  0.1191
 6152SOL    HW125317   3.562   3.251   8.359 -0.5828 -0.3238  0.2716
 6152SOL    HW225318   3.507   3.392   8.364  0.4417  0.0936  0.0786
 6153SOL     OW25319   9.993   3.733   4.320  0.5551  0.1972  0.1413
 6153SOL    HW125320  10.064   3.712   4.260 -0.6269 -0.1467 -1.2139
 6153SOL    HW225321  10.033   3.786   4.389  2.1380 -0.1737 -0.4649
 6154SOL     OW25322  10.977   3.327  10.683  0.0245 -0.4601 -0.0766
 6154SOL    HW125323  10.947   3.331  10.592 -1.1393 -0.3009  0.3054
 6154SOL    HW225324  11.053   3.269  10.679  0.1710 -0.2314 -1.1934
 6155SOL     OW25325   0.337   4.736   1.428 -0.4498  0.2870 -0.1739
 6155SOL    HW125326   0.326   4.748   1.334 -0.8924  0.8401 -0.0521
 6155SOL    HW225327   0.286   4.806   1.468 -1.7410 -1.0080  0.5247
 6156SOL     OW25328  12.147  12.383   2.561 -0.0661 -0.2857  0.1407
 6156SOL    HW125329  12.086  12.440   2.607  0.5665  0.7778 -0.3097
 6156SOL    HW225330  12.104  12.361   2.479 -0.4932 -0.8142  0.5048
 6157SOL     OW25331  10.391   2.735   2.950  0.0501 -0.0110 -0.2236
 6157SOL    HW125332  10.470   2.742   2.897  1.0184  0.7968  1.2689
 6157SOL    HW225333  10.323   2.779   2.898  1.1088  1.3292 -0.5256
 6158SOL     OW25334   8.617   8.659  11.512 -0.5193  0.5895 -0.8076
 6158SOL    HW125335   8.694   8.675  11.457  0.7775 -0.0465  0.7755
 6158SOL    HW225336   8.625   8.722  11.583  0.2982 -1.5378  1.0891
 6159SOL     OW25337  11.251   7.254   9.426 -0.5212 -0.3230 -0.8197
 6159SOL    HW125338  11.247   7.218   9.515  2.7160  0.9225 -0.0245
 6159SOL    HW225339  11.196   7.332   9.429 -1.0878 -0.7368 -0.1763
 6160SOL     OW25340   2.014   9.334   5.547  0.0778 -0.4103  0.3316
 6160SOL    HW125341   2.004   9.268   5.616 -0.0466 -2.3121 -1.4258
 6160SOL    HW225342   2.107   9.329   5.523  0.0346 -0.0372  0.0803
 6161SOL     OW25343  12.066   2.700   0.910  0.0868  0.0645 -0.3748
 6161SOL    HW125344  12.115   2.651   0.843 -0.0982  0.1083 -0.5435
 6161SOL    HW225345  12.108   2.786   0.911  0.1705  0.0235 -0.3459
 6162SOL     OW25346   9.185  10.954  11.998 -0.5879 -0.5807 -0.0047
 6162SOL    HW125347   9.251  11.017  11.967  1.5803 -1.9383  1.5647
 6162SOL    HW225348   9.154  10.911  11.918  0.8529 -0.2770 -0.7648
 6163SOL     OW25349   3.661   4.237   9.025 -0.2847  0.0540 -0.0422
 6163SOL    HW125350   3.751   4.230   9.056  0.0277  1.9567 -0.3901
 6163SOL    HW225351   3.632   4.146   9.012  0.6035 -0.7299  2.7948
 6164SOL     OW25352   7.530   6.655   3.378 -0.1348  0.2173 -0.0073
 6164SOL    HW125353   7.568   6.568   3.364 -3.2079 -1.6274  1.9436
 6164SOL    HW225354   7.571   6.687   3.458 -0.0303 -0.1219  0.0768
 6165SOL     OW25355   4.574   5.857   4.053 -0.0650  0.2169  0.3294
 6165SOL    HW125356   4.592   5.840   4.145  0.1608 -2.1012 -0.0822
 6165SOL    HW225357   4.485   5.825   4.040  0.2674 -0.4372 -0.4520
 6166SOL     OW25358   4.863   8.532   6.496 -0.2194 -0.0808  0.0344
 6166SOL    HW125359   4.905   8.579   6.568 -2.2970 -0.2461  1.4184
 6166SOL    HW225360   4.806   8.597   6.455 -0.0412 -0.3486 -0.6575
 6167SOL     OW25361  11.217   0.097   3.419 -0.1550  0.0904  0.1189
 6167SOL    HW125362  11.170   0.161   3.365 -0.0131  1.0358  1.0933
 6167SOL    HW225363  11.194   0.120   3.509  2.8160  1.1365  0.7203
 6168SOL     OW25364   0.647   9.037   4.533  0.5219  0.0553  0.2079
 6168SOL    HW125365   0.643   8.978   4.609 -0.8861 -0.9652 -0.6053
 6168SOL    HW225366   0.565   9.021   4.487  1.3376  0.6854 -1.5256
 6169SOL     OW25367   4.092   2.458   1.768  0.0138 -0.0118 -0.1979
 6169SOL    HW125368   4.032   2.415   1.830  0.6822 -1.2008 -0.3477
 6169SOL    HW225369   4.111   2.391   1.703  1.7684  0.2283  0.0281
 6170SOL     OW25370   9.201   2.059   6.096  0.0781 -0.3498  0.0903
 6170SOL    HW125371   9.287   2.095   6.075  0.0524 -1.1629 -1.5929
 6170SOL    HW225372   9.178   2.005   6.020 -1.2255 -1.4245  1.1762
 6171SOL     OW25373   1.807  10.667   6.311  0.0322 -0.2390 -0.0580
 6171SOL    HW125374   1.820  10.761   6.323 -0.2859 -0.0505 -1.1088
 6171SOL    HW225375   1.805  10.654   6.216 -3.2635 -0.7890 -0.0303
 6172SOL     OW25376   0.837   2.575  11.808 -0.0942 -0.0625 -0.8255
 6172SOL    HW125377   0.840   2.585  11.713 -0.4687  0.6860 -0.7632
 6172SOL    HW225378   0.853   2.663  11.842 -1.9520  0.0931 -0.2308
 6173SOL     OW25379   8.161   3.598   5.258 -0.1017 -0.3448  0.6978
 6173SOL    HW125380   8.075   3.575   5.294 -0.1537 -1.1234  0.1198
 6173SOL    HW225381   8.223   3.546   5.308  0.0356  0.1489  1.0529
 6174SOL     OW25382   9.626   9.648   1.170  0.6815 -0.0594  0.3043
 6174SOL    HW125383   9.619   9.556   1.143 -0.9385  0.2557 -0.4436
 6174SOL    HW225384   9.552   9.660   1.229  0.9511  0.7575  0.4801
 6175SOL     OW25385   5.971  12.350   1.262 -0.9472 -0.1160  0.2977
 6175SOL    HW125386   6.018  12.288   1.207  1.3299  0.6278  1.2887
 6175SOL    HW225387   5.978  12.433   1.215 -1.5043 -0.0346  0.3525
 6176SOL     OW25388   5.983   2.285   1.719  0.1805 -0.3349  0.0452
 6176SOL    HW125389   5.971   2.222   1.648 -1.0577 -0.4270  0.3183
 6176SOL    HW225390   5.905   2.275   1.774  1.8268 -1.4804  2.3937
 6177SOL     OW25391   8.520   2.154   4.651  0.1645  0.4660  0.2484
 6177SOL    HW125392   8.463   2.091   4.694  0.8342 -0.3412 -0.0128
 6177SOL    HW225393   8.496   2.149   4.558 -0.1193  0.9668  0.2905
 6178SOL     OW25394   0.078   8.752   3.736 -0.0000  0.1468 -0.1621
 6178SOL    HW125395   0.115   8.690   3.800 -2.4168  0.5001  1.7398
 6178SOL    HW225396   0.114   8.724   3.652  0.9781 -2.2830  0.9611
 6179SOL     OW25397   7.256   6.524   3.613  0.0772  0.3858  0.7572
 6179SOL    HW125398   7.349   6.543   3.629 -0.3222  1.0253  2.6155
 6179SOL    HW225399   7.220   6.509   3.700 -1.1486 -2.0379 -0.0833
 6180SOL     OW25400   0.942   2.240   8.897 -0.2193  0.0075 -0.2222
 6180SOL    HW125401   1.013   2.260   8.836  0.4112 -1.9707 -0.1976
 6180SOL    HW225402   0.975   2.269   8.982  0.5691 -0.8582 -0.2178
 6181SOL     OW25403   8.867   5.576   7.228 -0.6825  0.0324  0.2956
 6181SOL    HW125404   8.773   5.564   7.217 -0.4518 -0.5603 -1.2533
 6181SOL    HW225405   8.890   5.644   7.165  0.3667 -1.9568 -1.6046
 6182SOL     OW25406   5.149   9.533  11.546  0.3211 -0.0697 -0.0445
 6182SOL    HW125407   5.069   9.583  11.557 -1.1387 -2.2897  0.1184
 6182SOL    HW225408   5.123   9.457  11.494  2.2470 -0.9870  0.2435
 6183SOL     OW25409   3.440   1.915  10.674  0.0815 -0.4141 -0.0976
 6183SOL    HW125410   3.533   1.899  10.691  0.0664 -0.5866 -0.1788
 6183SOL    HW225411   3.438   1.998  10.626 -0.0150  1.2832  2.6120
 6184SOL     OW25412   5.364  12.405   6.373 -0.2692 -0.0169 -0.0910
 6184SOL    HW125413   5.368  12.353   6.453 -0.4799  0.2478  0.0949
 6184SOL    HW225414   5.347  12.342   6.304  0.5965 -0.3392 -0.0228
 6185SOL     OW25415   5.226   2.192   6.589  0.0261  0.5252  0.2528
 6185SOL    HW125416   5.148   2.214   6.640  0.2101  1.2907  0.2315
 6185SOL    HW225417   5.237   2.098   6.600 -1.8746  0.1031 -1.1475
 6186SOL     OW25418   6.334  11.004   3.337 -0.0353 -0.1250 -0.0482
 6186SOL    HW125419   6.422  10.968   3.346 -0.0136 -0.0167  0.1688
 6186SOL    HW225420   6.334  11.082   3.391  0.1866  0.6944 -1.1877
 6187SOL     OW25421   7.629  10.577   9.270  0.2215  0.7164 -0.4049
 6187SOL    HW125422   7.574  10.528   9.330  1.4546  0.4765  0.5570
 6187SOL    HW225423   7.640  10.663   9.311 -0.1548  1.0775 -1.0337
 6188SOL     OW25424  10.170   8.005  10.613  0.0987 -0.5388  0.0340
 6188SOL    HW125425  10.243   8.062  10.588 -1.2740  1.4839  0.3852
 6188SOL    HW225426  10.125   8.053  10.682 -2.2863 -1.0853 -1.0345
 6189SOL     OW25427  10.078   0.774   6.683 -0.6781  0.0230  0.3193
 6189SOL    HW125428  10.077   0.681   6.706 -0.0523  0.3793  1.8818
 6189SOL    HW225429  10.169   0.791   6.658  0.3977  1.1196  4.2836
 6190SOL     OW25430   6.772   1.398   9.408 -0.5701 -0.0209 -0.3456
 6190SOL    HW125431   6.809   1.320   9.368  0.6020 -0.9879  2.4154
 6190SOL    HW225432   6.835   1.468   9.388 -0.1580 -0.4104 -0.4055
 6191SOL     OW25433   4.395   3.785   9.243 -0.5300 -0.3442  0.1916
 6191SOL    HW125434   4.366   3.781   9.334 -1.1730  1.0311  0.0746
 6191SOL    HW225435   4.319   3.818   9.195 -0.1468 -0.9080 -0.8243
 6192SOL     OW25436  11.517   9.728   0.632 -0.7783 -0.1568 -0.0079
 6192SOL    HW125437  11.577   9.790   0.590  0.1909 -0.8066  0.3916
 6192SOL    HW225438  11.544   9.643   0.598 -2.4393 -0.3508 -0.9701
 6193SOL     OW25439  10.965   2.704  11.631  0.6982 -0.0627  0.0595
 6193SOL    HW125440  11.000   2.627  11.588  0.2444  0.1274 -0.6642
 6193SOL    HW225441  10.991   2.777  11.574 -0.5494  0.1147 -0.3010
 6194SOL     OW25442  11.624   5.693   0.135  0.9235 -0.5690 -0.2840
 6194SOL    HW125443  11.537   5.720   0.165  0.7793 -0.7347 -0.5460
 6194SOL    HW225444  11.606   5.632   0.064  1.2484 -1.3509  0.2966
 6195SOL     OW25445   3.941   4.448   4.949 -0.2865  0.3447  0.4447
 6195SOL    HW125446   3.973   4.514   5.011 -0.8742  0.5117  0.5780
 6195SOL    HW225447   3.879   4.396   5.000  1.5300 -1.4982  0.8763
 6196SOL     OW25448   7.991   0.033   5.855  0.3768  0.0386 -0.1517
 6196SOL    HW125449   7.972   0.028   5.949 -0.4410  0.6070 -0.2693
 6196SOL    HW225450   7.994  -0.058   5.826 -1.0411 -0.1214  0.1252
 6197SOL     OW25451  10.843   4.641   7.243  0.2902 -0.5201 -0.0105
 6197SOL    HW125452  10.748   4.629   7.248  0.4434 -1.3695  1.3959
 6197SOL    HW225453  10.879   4.552   7.240  1.0140 -0.2308 -2.4451
 6198SOL     OW25454   0.292   6.010   8.896  0.3674 -0.8153 -0.0432
 6198SOL    HW125455   0.319   6.067   8.824  0.1476 -0.8701 -0.1684
 6198SOL    HW225456   0.366   5.950   8.908  1.8114  1.2131  1.9218
 6199SOL     OW25457   3.922   4.148   1.556  0.7445  0.1750  0.3127
 6199SOL    HW125458   3.900   4.148   1.649  2.2908  0.7473  0.7194
 6199SOL    HW225459   3.851   4.101   1.514 -1.2290  1.9397  1.4797
 6200SOL     OW25460   7.400   9.451   8.105 -0.3037 -0.6382 -0.0943
 6200SOL    HW125461   7.343   9.389   8.060  0.4711 -1.2774 -0.2252
 6200SOL    HW225462   7.436   9.402   8.179 -0.6856  0.0583  0.5686
 6201SOL     OW25463   3.637   3.700   4.696 -0.5631 -0.2614  0.0431
 6201SOL    HW125464   3.565   3.701   4.633 -1.0300  1.5932  0.5258
 6201SOL    HW225465   3.594   3.708   4.781  0.1715  0.2829  0.3764
 6202SOL     OW25466  11.318   4.420   9.168 -0.2455 -0.2854 -0.4347
 6202SOL    HW125467  11.265   4.499   9.162 -2.2274 -1.4412  0.8751
 6202SOL    HW225468  11.264   4.352   9.127 -0.6062 -1.8455  2.3943
 6203SOL     OW25469   7.612   9.577   8.833 -0.0216  0.3706  0.1414
 6203SOL    HW125470   7.684   9.516   8.849  2.3633  2.1904 -2.6648
 6203SOL    HW225471   7.607   9.630   8.912  0.4936 -0.8860  1.0530
 6204SOL     OW25472   9.251   0.395   2.529  0.4504 -0.5696  0.8391
 6204SOL    HW125473   9.266   0.458   2.599 -0.9588 -0.1497  0.7953
 6204SOL    HW225474   9.273   0.310   2.568 -2.6339 -0.6639  2.6732
 6205SOL     OW25475   8.052   7.583  11.759 -0.2176  0.2716  0.0077
 6205SOL    HW125476   8.142   7.577  11.791 -0.7176  0.3724  1.5153
 6205SOL    HW225477   8.050   7.664  11.708  0.9270 -0.5622 -1.4231
 6206SOL     OW25478   4.867  10.576   5.309 -0.5568 -0.1411  0.2360
 6206SOL    HW125479   4.790  10.582   5.252 -0.7675  0.5141  0.5703
 6206SOL    HW225480   4.921  10.507   5.271  0.2261  1.5155 -1.8749
 6207SOL     OW25481   9.313   1.645   7.625 -0.2080  0.1953 -0.3414
 6207SOL    HW125482   9.231   1.613   7.664 -0.4213  0.1317 -0.8282
 6207SOL    HW225483   9.289   1.728   7.583  0.4781  1.3320  1.4365
 6208SOL     OW25484  11.082  11.201   3.159  0.2944 -0.2110 -0.1485
 6208SOL    HW125485  11.056  11.287   3.127 -0.7332 -0.2127  0.6392
 6208SOL    HW225486  11.163  11.216   3.208  1.2065 -0.0185 -1.6450
 6209SOL     OW25487   7.883   7.037   6.524 -0.0810  0.2789 -0.0567
 6209SOL    HW125488   7.886   7.119   6.574  0.9519 -0.6194  1.4259
 6209SOL    HW225489   7.952   6.983   6.562 -0.4348 -1.1222 -1.3171
 6210SOL     OW25490   0.340   7.121   4.813  0.4096 -0.5930 -0.6448
 6210SOL    HW125491   0.381   7.090   4.732  1.6348  0.4012 -0.4341
 6210SOL    HW225492   0.248   7.132   4.790  0.4437 -1.7486 -1.4668
 6211SOL     OW25493  11.369   2.194  12.250  0.1568 -0.1298 -0.6713
 6211SOL    HW125494  11.413   2.174  12.168  0.5390  0.2914 -0.5690
 6211SOL    HW225495  11.356   2.289  12.249 -1.2772 -0.2938 -0.9681
 6212SOL     OW25496   9.351   2.754   0.035  0.3690  0.6555 -0.5107
 6212SOL    HW125497   9.365   2.703  -0.045 -2.4641 -0.3536 -0.5084
 6212SOL    HW225498   9.318   2.690   0.098 -0.0066  1.9015  0.6024
 6213SOL     OW25499   4.328   1.133   3.906 -0.2551 -0.4031 -0.0340
 6213SOL    HW125500   4.286   1.210   3.867 -0.3395 -1.3773 -2.0175
 6213SOL    HW225501   4.310   1.140   3.999 -1.8170  1.0282 -0.3943
 6214SOL     OW25502  11.337   0.156   5.099 -0.0603 -0.2428 -0.2751
 6214SOL    HW125503  11.262   0.216   5.095 -0.1911 -0.4422 -0.8625
 6214SOL    HW225504  11.345   0.121   5.011 -0.0901 -1.2191  0.0955
 6215SOL     OW25505   9.959   7.433   5.422  0.0192  0.0738 -0.2772
 6215SOL    HW125506   9.893   7.503   5.423  1.2702  1.3037 -0.8136
 6215SOL    HW225507   9.931   7.373   5.492 -0.8365  1.3471  0.5105
 6216SOL     OW25508  11.232  11.948   8.918  0.1236  0.4954  0.3457
 6216SOL    HW125509  11.181  11.871   8.895 -0.3928  0.3805  1.7770
 6216SOL    HW225510  11.167  12.012   8.947  0.7817 -0.0145  3.2567
 6217SOL     OW25511   2.902  11.549   6.512  0.6255  0.4489 -0.2871
 6217SOL    HW125512   2.968  11.479   6.510  0.2621  0.1093 -1.0980
 6217SOL    HW225513   2.821  11.506   6.487  0.3917  1.1577 -0.7805
 6218SOL     OW25514   2.348  10.386  11.921  0.0670 -0.6224 -0.0967
 6218SOL    HW125515   2.387  10.314  11.971  1.3422 -0.0965 -0.2955
 6218SOL    HW225516   2.265  10.402  11.965  0.4562 -1.1953  0.9080
 6219SOL     OW25517   4.153   9.319   9.335  0.3754  0.4956 -0.6177
 6219SOL    HW125518   4.073   9.371   9.334 -0.5104 -0.7486  0.7474
 6219SOL    HW225519   4.222   9.381   9.356 -0.7569  1.0678  1.7287
 6220SOL     OW25520  11.724   8.367   5.574  0.1836  0.2330  0.5778
 6220SOL    HW125521  11.676   8.436   5.528 -1.9648  0.1103  2.4392
 6220SOL    HW225522  11.656   8.305   5.601  1.9391 -2.1779 -0.2513
 6221SOL     OW25523   9.053   1.288   3.922  0.1198 -0.5113  0.3880
 6221SOL    HW125524   9.095   1.235   3.990  0.6617  0.9472  1.2262
 6221SOL    HW225525   8.960   1.286   3.944  0.3445  0.3270  1.4545
 6222SOL     OW25526   2.329  11.134   6.898 -0.4054 -0.1528 -0.1640
 6222SOL    HW125527   2.288  11.162   6.816 -1.9241  0.0884  0.6521
 6222SOL    HW225528   2.270  11.165   6.967  0.4225 -1.0514  0.9962
 6223SOL     OW25529   8.305   9.658   4.374 -0.1978  0.1367  0.1932
 6223SOL    HW125530   8.304   9.564   4.392  0.6081 -0.0670 -0.7048
 6223SOL    HW225531   8.237   9.695   4.430 -1.1560 -1.1029 -0.1321
 6224SOL     OW25532   4.237   6.985  11.351 -0.2957  0.4099 -0.6999
 6224SOL    HW125533   4.171   7.035  11.400 -0.9673  1.8330 -2.9255
 6224SOL    HW225534   4.189   6.910  11.315  0.0034 -0.1476  0.0198
 6225SOL     OW25535   7.581  12.153   4.770  0.3286 -0.6352 -0.5522
 6225SOL    HW125536   7.591  12.136   4.863 -3.8597 -1.2008 -0.0380
 6225SOL    HW225537   7.603  12.246   4.760  0.8404 -0.5739  0.9813
 6226SOL     OW25538   6.503  10.277  11.742 -0.2819 -0.7809  0.1539
 6226SOL    HW125539   6.468  10.264  11.655 -1.8439  0.9836  0.4433
 6226SOL    HW225540   6.588  10.320  11.728 -0.8945  0.2660 -0.5283
 6227SOL     OW25541   4.207   1.057   3.580  0.5535  0.2576  0.3541
 6227SOL    HW125542   4.135   1.019   3.630 -0.2033 -2.0755 -2.2517
 6227SOL    HW225543   4.182   1.148   3.567 -0.0092  0.5032  2.6633
 6228SOL     OW25544   9.022   7.169   8.821  0.1708  0.0831 -0.1841
 6228SOL    HW125545   8.968   7.195   8.895  0.8365 -0.3608  0.4786
 6228SOL    HW225546   9.048   7.079   8.841 -0.4026 -0.3844 -1.4196
 6229SOL     OW25547  11.677   9.662  11.976 -0.0078  0.2562 -0.3018
 6229SOL    HW125548  11.733   9.684  11.902  1.0040 -1.1130  0.0111
 6229SOL    HW225549  11.686   9.737  12.036  2.1836 -0.2721  0.1097
 6230SOL     OW25550   9.108   6.991   3.209 -0.5724  0.6716  0.0760
 6230SOL    HW125551   9.076   6.912   3.252 -1.8103  0.8755 -0.4268
 6230SOL    HW225552   9.188   6.964   3.165 -0.9186 -0.2669  0.0116
 6231SOL     OW25553  10.658   3.173   3.006 -0.6418  0.6760  0.2514
 6231SOL    HW125554  10.712   3.134   3.075  0.5490  1.3588 -0.2717
 6231SOL    HW225555  10.691   3.134   2.925 -0.8874  1.1571 -0.0821
 6232SOL     OW25556   3.149   0.162  11.745 -0.0353 -0.1231 -0.2170
 6232SOL    HW125557   3.084   0.227  11.773  0.0608  1.0749 -2.5634
 6232SOL    HW225558   3.198   0.206  11.676  1.7178 -1.8501 -0.1420
 6233SOL     OW25559   3.673   4.281   4.044  0.2323 -0.0215 -0.4127
 6233SOL    HW125560   3.675   4.194   4.084  1.7316 -0.2304 -0.8820
 6233SOL    HW225561   3.622   4.269   3.963  1.5753 -0.8067 -1.1724
 6234SOL     OW25562   1.114   8.822   9.715  0.4422  0.1778 -0.1626
 6234SOL    HW125563   1.184   8.768   9.676  1.4357  1.5704 -0.3727
 6234SOL    HW225564   1.047   8.758   9.740  0.6832 -0.9792 -2.2053
 6235SOL     OW25565   7.982   1.037   1.141  0.0075  0.3207  0.6607
 6235SOL    HW125566   7.942   1.050   1.227  1.8342 -0.0509  1.6219
 6235SOL    HW225567   7.983   1.124   1.102  1.3223  0.9883  2.0595
 6236SOL     OW25568   7.749   6.638   8.933 -0.2215  0.4781  0.0304
 6236SOL    HW125569   7.689   6.647   8.859 -0.0280  0.2220 -0.1596
 6236SOL    HW225570   7.698   6.666   9.009 -0.0919  1.7814 -0.3401
 6237SOL     OW25571   9.619   4.625   0.212  0.1316 -0.4337 -0.0080
 6237SOL    HW125572   9.602   4.719   0.214 -0.3024 -0.4941 -0.7865
 6237SOL    HW225573   9.660   4.607   0.297 -2.8170 -0.1395  1.6008
 6238SOL     OW25574   6.600   1.843   0.540 -0.0291  0.2318 -0.4250
 6238SOL    HW125575   6.629   1.854   0.449  2.3511 -1.4538  0.0366
 6238SOL    HW225576   6.636   1.918   0.586  2.3700 -0.9751 -0.1870
 6239SOL     OW25577   3.315   5.625   8.049  0.0926  0.6140 -0.4339
 6239SOL    HW125578   3.233   5.609   8.003  1.2169 -0.9556 -2.0053
 6239SOL    HW225579   3.294   5.608   8.141 -1.0237 -1.2179 -0.9785
 6240SOL     OW25580   6.945   4.274   4.677  0.2617  0.0730  0.0645
 6240SOL    HW125581   6.855   4.261   4.648  0.2548 -0.4380  0.3086
 6240SOL    HW225582   6.983   4.333   4.612 -0.0890 -0.1504 -0.3455
 6241SOL     OW25583  11.607   5.891   3.975 -0.2674 -0.0471  0.1803
 6241SOL    HW125584  11.546   5.831   4.018 -0.1213 -0.2005  0.1788
 6241SOL    HW225585  11.590   5.976   4.015 -0.5374 -0.0735  0.1201
 6242SOL     OW25586   5.063   0.748   1.745  0.1077  0.0882 -0.3162
 6242SOL    HW125587   5.074   0.754   1.839 -0.6505 -0.3583 -0.1875
 6242SOL    HW225588   5.135   0.799   1.708  0.9874 -0.5376  0.4899
 6243SOL     OW25589  11.450   3.068   7.313  0.3100  0.4743  0.1158
 6243SOL    HW125590  11.498   3.132   7.261 -0.0706 -0.1162 -0.9745
 6243SOL    HW225591  11.358   3.084   7.292  0.1962 -0.2335  0.0691
 6244SOL     OW25592   4.250   7.420   9.998  0.0013 -0.1521 -0.1074
 6244SOL    HW125593   4.305   7.343  10.004 -1.9066 -1.5649  0.1452
 6244SOL    HW225594   4.238   7.436   9.905 -0.9334 -1.2023 -0.1832
 6245SOL     OW25595   8.070   7.122   7.061  0.0114  0.0092 -0.6053
 6245SOL    HW125596   8.150   7.162   7.096 -0.2975  0.5695 -0.5233
 6245SOL    HW225597   8.013   7.111   7.137  0.2315 -0.9536 -0.5612
 6246SOL     OW25598   4.096   8.068   7.548  0.0702  0.7626  0.2619
 6246SOL    HW125599   4.136   8.153   7.526  0.7392  0.1363 -1.1246
 6246SOL    HW225600   4.164   8.022   7.597  1.0779 -0.1934 -1.8550
 6247SOL     OW25601   8.941   2.942  11.067 -0.3255  0.0229 -0.8628
 6247SOL    HW125602   9.009   3.006  11.089  0.7780 -1.0748 -1.0169
 6247SOL    HW225603   8.980   2.857  11.089 -1.2672 -0.7005 -1.9148
 6248SOL     OW25604   3.733   9.303  11.542  0.2712 -0.5347 -0.0100
 6248SOL    HW125605   3.779   9.276  11.462 -0.1116  0.5833 -0.6278
 6248SOL    HW225606   3.803   9.319  11.605  0.7511  0.8143 -0.8375
 6249SOL     OW25607   1.857   3.953   9.373  0.1064 -0.0521 -0.2488
 6249SOL    HW125608   1.765   3.977   9.378 -0.0547 -0.9161  2.0644
 6249SOL    HW225609   1.894   3.983   9.456  1.4416 -1.4344 -0.2954
 6250SOL     OW25610   5.219   8.807   5.057  0.1428 -0.0382 -0.5851
 6250SOL    HW125611   5.253   8.734   5.005 -1.5657  0.2341 -2.2182
 6250SOL    HW225612   5.158   8.766   5.119  0.3529 -0.1322 -0.4387
 6251SOL     OW25613   3.952  10.719   1.633  0.2775 -0.4767  0.1611
 6251SOL    HW125614   3.971  10.627   1.616 -1.3938 -1.0252  1.0379
 6251SOL    HW225615   4.006  10.767   1.570  2.8501 -1.9204  1.1136
 6252SOL     OW25616   2.529   0.401  12.202  0.1034 -0.0294 -0.3729
 6252SOL    HW125617   2.548   0.328  12.260  0.3349  0.5060  0.2442
 6252SOL    HW225618   2.559   0.478  12.250 -1.1600  0.5883 -0.5225
 6253SOL     OW25619   5.154   7.781   6.512 -0.1177  0.6975  0.1915
 6253SOL    HW125620   5.224   7.769   6.447  0.1223  0.7705  0.4356
 6253SOL    HW225621   5.079   7.735   6.474  0.8499 -1.9881  1.2350
 6254SOL     OW25622   9.654   7.637   0.974 -0.0362  0.2162 -0.0093
 6254SOL    HW125623   9.728   7.685   0.936  0.4178 -1.8930 -1.9939
 6254SOL    HW225624   9.578   7.693   0.956  0.6564  0.9098 -0.8904
 6255SOL     OW25625  12.371   9.434  10.135 -0.3790  0.1676  0.4048
 6255SOL    HW125626  12.434   9.402  10.070 -1.0317 -1.7727  0.6531
 6255SOL    HW225627  12.423   9.488  10.194  0.8832 -0.6512  0.0838
 6256SOL     OW25628  10.842   5.897   3.895 -0.5850 -0.4418 -0.0982
 6256SOL    HW125629  10.768   5.860   3.944 -0.9884 -0.4558 -0.7039
 6256SOL    HW225630  10.853   5.985   3.932 -0.4272 -0.7074  0.4944
 6257SOL     OW25631   1.959   5.025   8.587 -0.6149  0.2640 -0.5613
 6257SOL    HW125632   1.924   5.059   8.505 -1.1170 -0.6723 -0.7479
 6257SOL    HW225633   1.883   5.021   8.645 -0.3468  0.5082 -0.1916
 6258SOL     OW25634   8.327   2.340   4.313 -0.4291 -0.0108 -0.0800
 6258SOL    HW125635   8.321   2.414   4.253 -1.8683 -0.5157 -0.6183
 6258SOL    HW225636   8.280   2.369   4.391 -0.5672 -0.1697 -0.1024
 6259SOL     OW25637   3.730   6.835   6.237 -0.1767 -0.4278 -0.2553
 6259SOL    HW125638   3.765   6.815   6.324 -1.0128 -1.2104 -0.0849
 6259SOL    HW225639   3.765   6.765   6.181 -3.1578 -2.5990  0.3532
 6260SOL     OW25640   5.837   1.445   6.987 -0.1619 -0.0863 -0.1550
 6260SOL    HW125641   5.890   1.444   6.908  0.5361  2.1344  0.2279
 6260SOL    HW225642   5.875   1.376   7.042  0.1933 -0.7401 -1.2066
 6261SOL     OW25643   8.143   9.156   1.532 -0.6156 -0.8531  0.4914
 6261SOL    HW125644   8.114   9.218   1.598  1.3689  1.0570 -0.3027
 6261SOL    HW225645   8.098   9.184   1.452  0.5681 -0.1648  0.0487
 6262SOL     OW25646   1.890   3.757   5.911 -0.0842  0.0468 -0.0468
 6262SOL    HW125647   1.960   3.692   5.911 -1.2090 -1.2032 -0.8506
 6262SOL    HW225648   1.821   3.719   5.857 -1.3347  1.3117  0.5843
 6263SOL     OW25649   8.789   3.371   8.061 -0.5121  0.3369  0.6524
 6263SOL    HW125650   8.730   3.299   8.083 -0.7238 -0.4030 -1.9598
 6263SOL    HW225651   8.877   3.336   8.079 -0.7097  0.2728  1.5324
 6264SOL     OW25652   8.374   9.518   5.652 -0.0971  0.3629 -0.4696
 6264SOL    HW125653   8.404   9.572   5.579 -2.5276  1.4571 -0.7564
 6264SOL    HW225654   8.282   9.544   5.665 -0.4686 -1.5856  1.3545
 6265SOL     OW25655   9.822   3.291   1.423 -0.2729 -1.1473 -0.0665
 6265SOL    HW125656   9.798   3.232   1.352 -0.1669 -0.7620 -0.4242
 6265SOL    HW225657   9.756   3.361   1.420  0.5361 -0.3902 -0.6857
 6266SOL     OW25658   8.399   7.601   9.413  0.8775 -0.3546  0.6829
 6266SOL    HW125659   8.413   7.514   9.376  1.5665 -0.9047  2.1277
 6266SOL    HW225660   8.477   7.650   9.388 -1.2079  1.2904 -3.6598
 6267SOL     OW25661   5.073   8.472   1.799  0.3224 -0.1731  0.3469
 6267SOL    HW125662   5.161   8.498   1.826  0.2964  0.0120  0.2538
 6267SOL    HW225663   5.053   8.528   1.724 -0.6900  1.2619  1.6232
 6268SOL     OW25664   1.923   9.694   8.219 -0.6653 -0.0750 -0.2547
 6268SOL    HW125665   1.913   9.615   8.166  0.0623 -0.3682  0.0382
 6268SOL    HW225666   2.005   9.734   8.189 -0.5229  0.0425  0.2735
 6269SOL     OW25667   0.685   6.171   2.601 -0.7063  0.0924 -0.0542
 6269SOL    HW125668   0.761   6.189   2.545 -0.0650  0.4265  0.8941
 6269SOL    HW225669   0.629   6.114   2.548  0.6368 -0.9221 -0.4522
 6270SOL     OW25670  10.973   5.956   8.334  0.6679 -0.1226 -0.1835
 6270SOL    HW125671  10.937   6.035   8.376  1.0404  0.2721 -0.5897
 6270SOL    HW225672  10.952   5.966   8.242 -0.3016 -1.0764 -0.0800
 6271SOL     OW25673  10.257   0.028   1.175 -0.1271  0.0494 -0.2761
 6271SOL    HW125674  10.174   0.076   1.169 -0.3923 -0.4202 -0.4278
 6271SOL    HW225675  10.278   0.030   1.269 -0.2339  0.2924 -0.2552
 6272SOL     OW25676   4.666   6.702  10.798  0.0425 -0.0082 -0.2934
 6272SOL    HW125677   4.621   6.752  10.730 -1.0711 -0.6482 -0.0378
 6272SOL    HW225678   4.704   6.769  10.855 -2.3350  0.6235  0.6560
 6273SOL     OW25679   6.061   2.577  10.286  0.7030 -0.6836 -0.0193
 6273SOL    HW125680   6.069   2.532  10.202  0.5333  0.8030 -0.8730
 6273SOL    HW225681   6.121   2.530  10.344 -0.9687 -3.2980 -0.2231
 6274SOL     OW25682   0.125   7.584   2.637 -0.0293 -0.3927 -0.2676
 6274SOL    HW125683   0.080   7.561   2.719  0.0751  0.9993  0.2055
 6274SOL    HW225684   0.211   7.544   2.644 -0.6588 -1.8732 -0.5513
 6275SOL     OW25685   6.371   4.789   4.847 -0.2730 -0.5580 -0.2077
 6275SOL    HW125686   6.349   4.700   4.876 -0.4035 -0.6492 -0.5747
 6275SOL    HW225687   6.464   4.784   4.825 -0.0352 -0.3433  0.7132
 6276SOL     OW25688   3.013   7.990  11.037  0.2978 -0.4270  0.1505
 6276SOL    HW125689   3.032   7.935  10.961  3.5181 -1.3838  1.4985
 6276SOL    HW225690   2.923   8.020  11.023  0.1219 -2.0740 -3.0589
 6277SOL     OW25691  12.218   8.445   9.467 -0.0569 -0.1409 -0.0761
 6277SOL    HW125692  12.161   8.372   9.493  2.1530 -1.8350  0.3464
 6277SOL    HW225693  12.225   8.499   9.545  0.6824 -1.1957  0.6256
 6278SOL     OW25694   5.702   5.917  11.582  0.3656 -0.4720 -0.0371
 6278SOL    HW125695   5.737   5.852  11.644 -0.7050 -0.4565  0.6074
 6278SOL    HW225696   5.740   5.892  11.498  1.4364 -0.8098  0.5269
 6279SOL     OW25697   6.518  10.243  12.262  0.1144 -0.4934 -0.3026
 6279SOL    HW125698   6.443  10.184  12.261 -0.2722 -0.0057 -1.4740
 6279SOL    HW225699   6.487  10.323  12.220  1.1261 -0.0670 -0.2803
 6280SOL     OW25700   4.253  11.931   5.006 -0.6583 -0.0959 -0.4373
 6280SOL    HW125701   4.189  11.997   5.033 -1.3445 -0.6813 -0.5984
 6280SOL    HW225702   4.337  11.966   5.036 -1.0184  0.8044 -0.4426
 6281SOL     OW25703  11.526   6.694   8.246 -0.3380 -0.5182  0.1568
 6281SOL    HW125704  11.608   6.651   8.222 -1.6010 -2.3716 -1.1136
 6281SOL    HW225705  11.464   6.623   8.257 -2.0192  0.8786  0.0983
 6282SOL     OW25706   5.064   4.942   1.658  0.0300  0.4408  0.1043
 6282SOL    HW125707   5.157   4.923   1.647  0.3740  0.6857  2.2242
 6282SOL    HW225708   5.053   5.030   1.621  0.6626  0.4581 -0.0509
 6283SOL     OW25709   2.439   3.928   5.840 -0.2297 -0.2397  0.1494
 6283SOL    HW125710   2.531   3.926   5.865 -0.4397 -1.5916  0.9184
 6283SOL    HW225711   2.407   4.011   5.874  0.7991  0.4578 -0.5287
 6284SOL     OW25712   7.534   3.720   9.718  0.2026  0.0710  0.3307
 6284SOL    HW125713   7.504   3.672   9.795  0.9203  0.4013  0.8253
 6284SOL    HW225714   7.458   3.721   9.659  0.5193 -2.6677 -0.2182
 6285SOL     OW25715   7.573   8.752  11.774 -0.2307 -0.7160  0.3346
 6285SOL    HW125716   7.618   8.796  11.702  0.1565  0.1895  1.1140
 6285SOL    HW225717   7.579   8.659  11.752 -2.2956 -0.3805 -2.0690
 6286SOL     OW25718   9.595   4.730   7.178 -0.4443  0.4914 -0.1016
 6286SOL    HW125719   9.540   4.776   7.241 -1.1921 -2.8976  2.0079
 6286SOL    HW225720   9.536   4.712   7.104 -0.9493  0.5686  0.2754
 6287SOL     OW25721   4.562   4.364   9.507 -0.4082  0.5173 -0.5269
 6287SOL    HW125722   4.605   4.444   9.539 -0.9931  0.5304  0.2593
 6287SOL    HW225723   4.585   4.359   9.414  1.2059  0.5789 -0.1561
 6288SOL     OW25724   9.925   7.209   3.142 -0.3941 -0.2348  0.4620
 6288SOL    HW125725   9.997   7.146   3.143  0.2669  0.4788  2.3688
 6288SOL    HW225726   9.846   7.155   3.153  0.1520 -0.7641  2.0248
 6289SOL     OW25727   5.129   5.927   5.996 -0.0586 -0.0964  0.3553
 6289SOL    HW125728   5.142   6.005   6.051 -1.6608  0.5792 -0.1520
 6289SOL    HW225729   5.196   5.934   5.928 -0.4566  1.1013  0.0586
 6290SOL     OW25730   6.542   9.646   3.586 -0.0201 -0.0081 -0.1462
 6290SOL    HW125731   6.616   9.643   3.526  0.5442  0.1604  0.5431
 6290SOL    HW225732   6.541   9.736   3.619  1.3462 -0.7729  2.1790
 6291SOL     OW25733  12.383   3.085   4.716  0.0185  0.3670  0.0638
 6291SOL    HW125734  12.446   3.153   4.692 -1.7610  2.7796  1.6923
 6291SOL    HW225735  12.315   3.092   4.648  1.1244 -1.8341 -1.3706
 6292SOL     OW25736  10.494  10.939   3.192 -0.6572 -0.4442  0.2628
 6292SOL    HW125737  10.558  10.897   3.135  0.8257  0.4111  1.2199
 6292SOL    HW225738  10.449  10.867   3.236  1.8467 -1.1533  1.8954
 6293SOL     OW25739   7.269  10.873   4.546 -0.6558  0.2759 -0.4390
 6293SOL    HW125740   7.268  10.787   4.587 -1.1150 -0.4344 -1.8659
 6293SOL    HW225741   7.284  10.855   4.453  2.8053  1.9651 -0.3618
 6294SOL     OW25742   4.883  10.524   8.439 -0.7068 -0.0249 -0.8376
 6294SOL    HW125743   4.826  10.447   8.437 -2.0051  0.8995 -0.5167
 6294SOL    HW225744   4.969  10.490   8.414  0.1509 -2.7046  4.3717
 6295SOL     OW25745   1.996   3.559   3.918 -0.3826 -0.8753  0.0442
 6295SOL    HW125746   2.070   3.620   3.920 -1.1447  0.0924  3.3720
 6295SOL    HW225747   2.037   3.473   3.903  1.0773 -0.0542 -0.9657
 6296SOL     OW25748   9.733   3.072  12.084  0.0571  0.1990 -0.5634
 6296SOL    HW125749   9.721   3.010  12.156  0.9782  0.1541 -0.4439
 6296SOL    HW225750   9.809   3.039  12.036  0.1179  0.8418 -0.9235
 6297SOL     OW25751   4.931   0.776   7.502  0.4616 -0.1002 -0.3466
 6297SOL    HW125752   4.837   0.795   7.508  0.0764 -1.9732  0.2617
 6297SOL    HW225753   4.960   0.772   7.593  0.6960 -1.3932 -0.4575
 6298SOL     OW25754   9.942  11.054   0.073 -0.6317  0.2514  0.8698
 6298SOL    HW125755   9.893  11.069  -0.008 -1.6525 -0.5227  1.3361
 6298SOL    HW225756  10.006  10.987   0.050 -0.3983  0.5877  0.5116
 6299SOL     OW25757   7.032  10.290   5.746 -0.4254  0.0570  0.7199
 6299SOL    HW125758   6.972  10.282   5.672  2.2240  1.4110 -1.7728
 6299SOL    HW225759   7.103  10.230   5.727  1.7202  2.4576  0.5350
 6300SOL     OW25760   0.769   6.615   1.555  0.1550  0.2671  0.2346
 6300SOL    HW125761   0.862   6.595   1.543  1.0617  2.5106  2.4496
 6300SOL    HW225762   0.744   6.569   1.634 -1.5596 -2.6113 -1.7910
 6301SOL     OW25763   6.593   4.943   5.280  0.4423  0.1022  0.2192
 6301SOL    HW125764   6.507   4.960   5.242  0.7595 -0.1580 -0.6456
 6301SOL    HW225765   6.649   5.013   5.246  0.5016  0.4700  1.0541
 6302SOL     OW25766   6.345   1.886   0.072 -0.0053  0.1787  0.6544
 6302SOL    HW125767   6.317   1.914  -0.015 -0.6050  1.0133  1.0942
 6302SOL    HW225768   6.410   1.818   0.056  1.3741  1.6883 -0.4988
 6303SOL     OW25769   8.830   7.295   5.765 -0.1029  0.0768  0.2345
 6303SOL    HW125770   8.855   7.328   5.852 -0.1542  0.5558  0.0718
 6303SOL    HW225771   8.751   7.345   5.743 -0.2579 -0.2560  0.0411
 6304SOL     OW25772   5.994   1.863   1.923  0.0606  0.0155 -0.5115
 6304SOL    HW125773   5.962   1.773   1.931 -0.8317  0.2570 -1.2065
 6304SOL    HW225774   5.950   1.911   1.993  0.1271  0.0244 -0.4754
 6305SOL     OW25775   2.029   2.086  11.466  0.0512 -0.0004  0.3123
 6305SOL    HW125776   2.007   2.006  11.418 -0.7226 -0.2390  1.0436
 6305SOL    HW225777   1.966   2.089  11.538 -0.0934  1.3922  0.1615
 6306SOL     OW25778   6.764   4.479   7.415 -0.0214 -0.0081  0.0582
 6306SOL    HW125779   6.758   4.512   7.325  0.6141  0.6424  0.2503
 6306SOL    HW225780   6.674   4.479   7.447  0.0506  2.6096  0.4362
 6307SOL     OW25781   2.420   1.069   2.336  0.6405 -0.0448 -0.3913
 6307SOL    HW125782   2.457   1.157   2.340  1.0133 -0.1993 -0.3534
 6307SOL    HW225783   2.396   1.049   2.427 -2.3865  1.2250 -0.7877
 6308SOL     OW25784  11.011   4.028   3.759 -0.4228  0.8484  0.6207
 6308SOL    HW125785  11.032   4.121   3.760  0.3676  0.6768  0.9406
 6308SOL    HW225786  10.971   4.012   3.845  1.0923  0.5502  1.3050
 6309SOL     OW25787   4.017   8.540   1.282 -0.1235  0.0103 -0.3904
 6309SOL    HW125788   4.093   8.518   1.228 -0.9244 -0.9761 -1.1524
 6309SOL    HW225789   4.055   8.567   1.366  1.0463 -3.4872  0.3834
 6310SOL     OW25790   0.987   3.044  11.427  0.2015  0.5062  0.2408
 6310SOL    HW125791   1.060   3.068  11.484  0.8792  0.5805 -0.6293
 6310SOL    HW225792   1.024   3.045  11.339 -0.6817 -0.1607 -0.1545
 6311SOL     OW25793   6.019   7.422   7.170  0.1438  0.4390  0.0361
 6311SOL    HW125794   6.087   7.451   7.110  0.0675 -2.1272 -1.4269
 6311SOL    HW225795   5.941   7.414   7.116 -0.5258  0.2459  0.9974
 6312SOL     OW25796   6.035   8.110   5.179 -0.0290 -0.3762 -0.1024
 6312SOL    HW125797   6.099   8.047   5.212 -0.7158 -0.1667  1.7265
 6312SOL    HW225798   6.067   8.195   5.210  0.5577  0.1454 -2.0246
 6313SOL     OW25799   5.311   8.921   3.192  0.6922  0.2499  0.3420
 6313SOL    HW125800   5.355   8.866   3.257 -1.5639  0.5578  2.2637
 6313SOL    HW225801   5.368   8.918   3.115  2.1305 -2.3386  1.3889
 6314SOL     OW25802   0.756   7.857   4.056 -0.2506 -0.3548 -0.1609
 6314SOL    HW125803   0.765   7.849   3.961  0.8966 -1.5134  0.0157
 6314SOL    HW225804   0.757   7.767   4.087 -0.3487  0.0270  0.9744
 6315SOL     OW25805   8.244   0.738   5.897 -0.2568  0.0677  0.1449
 6315SOL    HW125806   8.279   0.810   5.844 -0.6332  0.5405  0.5304
 6315SOL    HW225807   8.196   0.684   5.834  2.9145 -1.8385 -0.8494
 6316SOL     OW25808   9.612   7.781  11.278 -0.5688  0.7310  0.0831
 6316SOL    HW125809   9.569   7.866  11.276 -3.6686 -0.7016 -1.4993
 6316SOL    HW225810   9.589   7.744  11.363 -0.0585  1.0755  0.3725
 6317SOL     OW25811   9.817  11.100   2.507 -0.6558 -0.0447  0.2977
 6317SOL    HW125812   9.724  11.116   2.526 -0.3038 -0.4489  2.7702
 6317SOL    HW225813   9.833  11.011   2.538  0.5248 -0.0442 -0.2488
 6318SOL     OW25814   6.511   0.473   4.014  0.3178  0.2397  0.3137
 6318SOL    HW125815   6.521   0.563   4.044  1.3508  0.6154 -1.0766
 6318SOL    HW225816   6.596   0.450   3.977  0.5935 -1.8790  2.0314
 6319SOL     OW25817   7.643   0.372   1.020  0.0495 -0.5832 -0.3832
 6319SOL    HW125818   7.590   0.446   1.048  1.1244  0.6523 -1.4634
 6319SOL    HW225819   7.591   0.331   0.950 -1.3828 -2.0245  1.4326
 6320SOL     OW25820   4.022   4.728  11.022  0.6040 -0.0585  0.1356
 6320SOL    HW125821   3.949   4.683  10.980 -0.3920  2.3979 -1.0259
 6320SOL    HW225822   3.987   4.755  11.108 -0.1319  1.5542 -0.6172
 6321SOL     OW25823   8.977   8.426  11.673 -0.8767  0.7818 -0.2537
 6321SOL    HW125824   8.987   8.388  11.760  1.1152 -0.7906 -1.0826
 6321SOL    HW225825   9.053   8.483  11.664 -0.7324  0.4469 -1.1883
 6322SOL     OW25826  10.465   5.023   7.548 -0.0037 -0.0719 -0.1298
 6322SOL    HW125827  10.492   4.939   7.512  0.2377 -0.1033  0.1263
 6322SOL    HW225828  10.453   5.079   7.471 -2.4776 -0.9974 -0.4946
 6323SOL     OW25829   1.463  11.383   9.276 -0.6621  0.2662 -0.4849
 6323SOL    HW125830   1.423  11.464   9.244 -0.1355  1.6392  2.0168
 6323SOL    HW225831   1.400  11.350   9.341  0.4886  0.3678  0.7189
 6324SOL     OW25832   2.419  11.284  10.634 -0.1701 -0.2604 -0.1357
 6324SOL    HW125833   2.452  11.269  10.722  0.3465 -1.3263 -0.4978
 6324SOL    HW225834   2.463  11.365  10.606 -1.5400  0.9700  1.1408
 6325SOL     OW25835   1.619   3.867   3.377  0.4157 -0.3176  0.5809
 6325SOL    HW125836   1.620   3.959   3.351  2.1657 -0.3470  0.3949
 6325SOL    HW225837   1.701   3.856   3.426  0.5452 -1.9244  0.0348
 6326SOL     OW25838   7.174   6.769   1.058  0.3244  0.2870 -0.4826
 6326SOL    HW125839   7.128   6.685   1.053  1.3128 -0.2208 -1.7163
 6326SOL    HW225840   7.241   6.763   0.990  1.4862  1.4332  0.5068
 6327SOL     OW25841   8.120   8.384  11.004 -0.0594  0.0811  0.1454
 6327SOL    HW125842   8.214   8.389  10.987  0.5113 -3.6237  1.2906
 6327SOL    HW225843   8.112   8.403  11.098  0.0783 -2.6609  0.7861
 6328SOL     OW25844   3.613   1.089  10.643  0.2906 -0.0438 -0.1055
 6328SOL    HW125845   3.546   1.021  10.650  1.3283 -1.2556 -1.3120
 6328SOL    HW225846   3.665   1.081  10.723  0.2963 -0.5561 -0.1583
 6329SOL     OW25847  11.475   9.254   6.078 -0.1908 -0.0950 -0.0946
 6329SOL    HW125848  11.420   9.330   6.062 -0.8821 -1.2288 -4.0043
 6329SOL    HW225849  11.563   9.290   6.088 -0.3002  1.2653 -3.0897
 6330SOL     OW25850  10.406   6.048   4.956 -0.2356 -0.3881 -0.1059
 6330SOL    HW125851  10.447   6.076   4.875  1.2893 -0.1680  0.6924
 6330SOL    HW225852  10.471   5.990   4.997 -0.5381  0.2722  1.3905
 6331SOL     OW25853   2.257  10.927   9.524 -0.1606  0.7214  0.0324
 6331SOL    HW125854   2.163  10.923   9.507 -0.2563  0.9469  0.5040
 6331SOL    HW225855   2.267  10.891   9.612  0.1537  1.0408  0.1299
 6332SOL     OW25856   0.895   8.231  12.179 -0.2550  0.3950 -0.4181
 6332SOL    HW125857   0.919   8.296  12.113  0.7205  2.4340  1.8088
 6332SOL    HW225858   0.830   8.275  12.233 -2.3554 -1.8450 -0.9258
 6333SOL     OW25859   7.199   0.176   8.873  0.3301  0.1209 -0.0228
 6333SOL    HW125860   7.286   0.157   8.908  0.0306  0.3243  0.8618
 6333SOL    HW225861   7.154   0.091   8.873  0.2021  0.1820  0.4841
 6334SOL     OW25862   9.247   1.090   5.946 -0.1822  0.0054  0.1874
 6334SOL    HW125863   9.165   1.103   5.898  0.7395  1.4110 -1.1247
 6334SOL    HW225864   9.277   1.179   5.964  1.5918 -0.4531 -0.3499
 6335SOL     OW25865   5.610   7.729   3.160  0.2475 -0.0191  0.4169
 6335SOL    HW125866   5.639   7.679   3.236  0.0672  0.0998  0.5654
 6335SOL    HW225867   5.519   7.702   3.146  0.1826  0.1876  0.4328
 6336SOL     OW25868   6.795   0.384   5.977 -0.1045  0.6122 -0.2244
 6336SOL    HW125869   6.754   0.393   6.063 -3.2262 -0.1419 -1.4901
 6336SOL    HW225870   6.827   0.472   5.957 -0.3602  1.0668  1.2301
 6337SOL     OW25871  10.054   4.230  10.252 -0.0889  0.0524 -0.0097
 6337SOL    HW125872  10.033   4.137  10.263 -0.8438  0.0833 -1.0228
 6337SOL    HW225873   9.969   4.273  10.250  0.1257  0.4653 -1.9619
 6338SOL     OW25874   1.439   6.939   7.281  0.6981  0.7038 -0.0267
 6338SOL    HW125875   1.499   6.997   7.235  1.4832 -0.4255 -0.4896
 6338SOL    HW225876   1.491   6.860   7.299 -0.5994 -0.2598 -0.3187
 6339SOL     OW25877   1.675   3.031   1.561  0.3011 -0.3697  0.0711
 6339SOL    HW125878   1.666   2.969   1.633 -1.0416 -1.2592 -0.7994
 6339SOL    HW225879   1.608   3.004   1.498 -0.7446  2.3117 -0.1070
 6340SOL     OW25880  10.803   6.773   7.052 -0.3798  0.0041  0.0570
 6340SOL    HW125881  10.811   6.699   7.112 -1.6691 -0.0418  0.2024
 6340SOL    HW225882  10.725   6.753   6.999 -1.5218  1.8096  0.9510
 6341SOL     OW25883  11.325   3.272   2.925 -0.1564 -0.2883 -0.1258
 6341SOL    HW125884  11.407   3.253   2.971  0.0417 -0.5446 -0.5799
 6341SOL    HW225885  11.345   3.257   2.833 -0.9774 -1.3046 -0.1568
 6342SOL     OW25886   1.885   1.160   1.607  0.3207 -0.4331  0.6369
 6342SOL    HW125887   1.820   1.148   1.676  0.1328 -1.7003  0.2649
 6342SOL    HW225888   1.837   1.145   1.526  1.1397 -1.7984  0.3744
 6343SOL     OW25889   2.903   9.043   3.750 -0.3904 -0.0399 -0.4333
 6343SOL    HW125890   2.987   9.087   3.740 -0.7553  0.1753 -3.0604
 6343SOL    HW225891   2.838   9.113   3.745 -0.8146 -0.3911 -0.0076
 6344SOL     OW25892   0.257   8.056   4.009 -0.0461  0.4518  0.2503
 6344SOL    HW125893   0.205   7.990   4.055  0.8118  0.1268  0.7760
 6344SOL    HW225894   0.302   8.104   4.078  0.9603  0.2072 -0.2155
 6345SOL     OW25895   9.042  10.254   6.482 -0.4337 -0.0897  0.3925
 6345SOL    HW125896   9.040  10.348   6.462 -0.5031 -0.2858 -0.5522
 6345SOL    HW225897   8.961  10.220   6.443  0.8669 -0.9982 -1.6669
 6346SOL     OW25898   0.138   4.532   3.984 -0.1942 -0.2235 -0.5806
 6346SOL    HW125899   0.234   4.530   3.981 -0.2044  0.2832 -1.5605
 6346SOL    HW225900   0.111   4.550   3.894 -1.2001 -0.0146 -0.2512
 6347SOL     OW25901   2.339   6.707   4.676  0.0591 -0.4094 -1.3004
 6347SOL    HW125902   2.331   6.640   4.744  2.2499 -1.3269 -1.8585
 6347SOL    HW225903   2.260   6.760   4.685  0.1145 -0.6631  1.7318
 6348SOL     OW25904   3.521  11.416   9.928 -0.0830 -0.1474 -0.9387
 6348SOL    HW125905   3.616  11.412   9.942 -0.2442 -2.8783  0.0063
 6348SOL    HW225906   3.509  11.397   9.835  0.2891 -1.1699 -0.7949
 6349SOL     OW25907  12.124   0.103   1.275  0.5388 -0.0754 -0.4367
 6349SOL    HW125908  12.144   0.145   1.191  0.6055  1.4383  0.3073
 6349SOL    HW225909  12.047   0.149   1.307 -0.0242 -1.2476 -0.0716
 6350SOL     OW25910   7.913   5.908   9.860  0.3632  0.2939 -0.3752
 6350SOL    HW125911   7.911   5.834   9.921 -0.5005 -0.3953 -1.2013
 6350SOL    HW225912   7.845   5.967   9.893 -1.8517 -1.2085 -1.9605
 6351SOL     OW25913  10.331   1.247   4.713 -0.1919 -0.4044 -0.2495
 6351SOL    HW125914  10.260   1.185   4.697 -2.4153  1.5768  1.1780
 6351SOL    HW225915  10.356   1.231   4.804  1.1613 -0.9713 -0.6906
 6352SOL     OW25916   7.223   2.901   5.442 -0.0219  0.5045  0.5399
 6352SOL    HW125917   7.317   2.905   5.422  0.5577 -1.6690  2.4457
 6352SOL    HW225918   7.185   2.972   5.391  2.8540  2.3866  0.7723
 6353SOL     OW25919   2.852   5.116   0.424 -0.2079  0.2972  0.4129
 6353SOL    HW125920   2.929   5.062   0.443 -0.4472  0.0853  0.8214
 6353SOL    HW225921   2.886   5.205   0.417 -0.0165  0.3033  1.2930
 6354SOL     OW25922  10.082   5.847   6.849  0.1305  0.1350  0.1295
 6354SOL    HW125923  10.086   5.751   6.847  0.2756  0.1187  0.7909
 6354SOL    HW225924  10.158   5.875   6.799  0.6661 -0.1093  0.7906
 6355SOL     OW25925   5.297  12.327   0.172  0.2955  0.2474  0.2624
 6355SOL    HW125926   5.220  12.281   0.140 -0.2740  2.2155 -1.4316
 6355SOL    HW225927   5.273  12.356   0.260  0.2052 -1.4951  0.8511
 6356SOL     OW25928   8.494   2.656   1.211  0.1808  0.1476  0.6599
 6356SOL    HW125929   8.577   2.678   1.168 -1.5380 -1.2023 -3.9111
 6356SOL    HW225930   8.502   2.563   1.233  0.3271  0.3472  1.4765
 6357SOL     OW25931   6.119   7.690   5.714 -0.5917  0.0220  0.4457
 6357SOL    HW125932   6.051   7.678   5.647  0.0248  1.1669 -0.4122
 6357SOL    HW225933   6.133   7.784   5.717  1.7824 -0.2482 -0.2590
 6358SOL     OW25934   6.377  10.228   0.512  0.5236  0.3456 -0.0067
 6358SOL    HW125935   6.365  10.298   0.576  1.7703  0.1334  0.4932
 6358SOL    HW225936   6.341  10.262   0.431 -1.9895  0.2790  0.9786
 6359SOL     OW25937   4.253   5.179   9.730  0.3070  0.1224 -0.3511
 6359SOL    HW125938   4.303   5.099   9.715 -1.2767 -1.0115  0.1359
 6359SOL    HW225939   4.220   5.204   9.644 -1.5249 -1.4052 -0.1640
 6360SOL     OW25940   9.005   9.207  12.328  0.6815  0.2659  0.0595
 6360SOL    HW125941   9.046   9.249  12.252 -0.0814  0.0895 -0.4599
 6360SOL    HW225942   8.978   9.121  12.296  0.8942 -0.0466  0.7039
 6361SOL     OW25943   2.044   7.203   1.285  0.4149  0.1268  0.5394
 6361SOL    HW125944   2.109   7.148   1.241  0.9784  0.4843  0.9129
 6361SOL    HW225945   2.093   7.281   1.313  0.0828 -0.0833  1.7885
 6362SOL     OW25946   6.844  11.780   1.628 -0.7526 -0.3524  0.6707
 6362SOL    HW125947   6.792  11.741   1.699 -0.4672 -1.3688  0.3352
 6362SOL    HW225948   6.811  11.738   1.549 -1.5043  1.2390  0.1091
 6363SOL     OW25949   9.365   6.309   5.079  0.7429 -0.2742 -0.0919
 6363SOL    HW125950   9.386   6.375   5.013 -1.1545 -1.7784 -2.3909
 6363SOL    HW225951   9.281   6.337   5.115  0.6534 -0.6302 -0.0141
 6364SOL     OW25952   8.331  10.374   5.853  0.0204 -0.1204  0.5574
 6364SOL    HW125953   8.306  10.309   5.788 -0.8621  0.9173 -0.1749
 6364SOL    HW225954   8.314  10.458   5.811 -1.3847  0.5980  2.3891
 6365SOL     OW25955  11.324   1.733   6.461  0.2019  0.0841 -0.1641
 6365SOL    HW125956  11.348   1.658   6.515  0.3204  0.3052  0.0965
 6365SOL    HW225957  11.400   1.746   6.404  0.0405 -0.2045 -0.4431
 6366SOL     OW25958   9.316   5.092   7.126 -0.4980  0.7033  0.1601
 6366SOL    HW125959   9.326   5.093   7.031  1.1886 -0.0124  0.3021
 6366SOL    HW225960   9.365   5.168   7.157 -0.5502  0.6061  0.4918
 6367SOL     OW25961   2.188   7.263   0.368 -0.5847 -0.1201 -0.4554
 6367SOL    HW125962   2.194   7.185   0.313 -0.2926 -0.2404 -0.2569
 6367SOL    HW225963   2.269   7.263   0.418 -0.7053  0.1644 -0.2576
 6368SOL     OW25964   8.435  11.630   3.573 -0.4636  0.3401  0.8984
 6368SOL    HW125965   8.361  11.635   3.634 -0.9635 -0.2020  0.3641
 6368SOL    HW225966   8.395  11.599   3.491  0.3740 -0.0349  0.6257
 6369SOL     OW25967   4.924   7.974  11.959  0.4463  0.1143  0.0347
 6369SOL    HW125968   4.975   8.042  12.002  2.8982 -2.2373  1.1479
 6369SOL    HW225969   4.967   7.961  11.874 -0.8379  0.8014 -0.7544
 6370SOL     OW25970  10.293   3.386   3.130 -0.0234 -0.3730 -0.3281
 6370SOL    HW125971  10.207   3.412   3.164 -0.1065 -0.8852 -0.1251
 6370SOL    HW225972  10.313   3.451   3.063  0.3040  0.8767  0.9407
 6371SOL     OW25973   4.110  11.750   4.126  0.3431  0.0197 -0.2714
 6371SOL    HW125974   4.204  11.758   4.145  0.4731 -2.0067  0.1900
 6371SOL    HW225975   4.068  11.799   4.196  1.0363  1.4221 -0.7900
 6372SOL     OW25976  10.689   7.763   8.358 -0.1897  0.3801  0.0336
 6372SOL    HW125977  10.716   7.671   8.352 -2.4641 -0.4197  0.8694
 6372SOL    HW225978  10.769   7.812   8.339  1.4190 -1.7528  0.7441
 6373SOL     OW25979   7.615  11.347   5.369 -0.0522  0.9094 -0.0796
 6373SOL    HW125980   7.578  11.298   5.295  0.5401  0.5060 -0.1248
 6373SOL    HW225981   7.709  11.350   5.350  0.4340 -0.9468  1.6244
 6374SOL     OW25982   5.894   0.778   4.834  0.1806  0.6291  0.0004
 6374SOL    HW125983   5.950   0.819   4.900 -1.2382  1.8122  0.5310
 6374SOL    HW225984   5.869   0.851   4.776 -0.4174  0.0409 -0.4910
 6375SOL     OW25985   7.371   5.570   7.946  0.2143  0.2488  0.1168
 6375SOL    HW125986   7.303   5.508   7.974  1.2831 -1.9458 -1.7694
 6375SOL    HW225987   7.437   5.566   8.015 -0.6538  0.9034  1.0101
 6376SOL     OW25988   4.404   1.894  11.924 -0.1940 -0.4468 -0.1769
 6376SOL    HW125989   4.411   1.988  11.908  0.8077  0.0391  2.5913
 6376SOL    HW225990   4.318   1.870  11.889  0.1525  1.1150 -2.3486
 6377SOL     OW25991   3.971   7.126  10.850  0.5305 -0.3111 -0.1766
 6377SOL    HW125992   4.051   7.085  10.883  0.8228  0.9300  0.6966
 6377SOL    HW225993   3.936   7.174  10.925 -0.9204 -0.6463 -0.6063
 6378SOL     OW25994   2.834  10.650   8.915  0.0848  0.2277  0.8325
 6378SOL    HW125995   2.797  10.665   9.002 -1.4994  2.1970 -0.0891
 6378SOL    HW225996   2.859  10.558   8.915 -0.7768 -0.0668  3.0396
 6379SOL     OW25997   2.721   4.217  11.472 -0.5418 -0.1092  0.2311
 6379SOL    HW125998   2.773   4.137  11.472 -0.4422 -0.0468  0.0274
 6379SOL    HW225999   2.722   4.245  11.380  0.2964  0.6909  0.4755
 6380SOL     OW26000  12.401   8.385   2.160  0.1090  0.2934 -0.2793
 6380SOL    HW126001  12.401   8.395   2.255 -0.2328 -2.1490  0.0565
 6380SOL    HW226002  12.321   8.429   2.131  0.8992  2.2503  0.3420
 6381SOL     OW26003   8.323   2.344   1.161  0.6719 -0.5051 -0.0438
 6381SOL    HW126004   8.339   2.266   1.215  2.0580 -1.3256 -1.5678
 6381SOL    HW226005   8.363   2.324   1.077 -0.1007  1.3567 -0.9085
 6382SOL     OW26006   6.429  11.719   0.709 -0.6340 -0.2400  0.1251
 6382SOL    HW126007   6.484  11.701   0.632 -2.6584  0.8729 -1.6857
 6382SOL    HW226008   6.487  11.763   0.770  1.0304 -1.0614 -0.7950
 6383SOL     OW26009   6.043   2.907   7.199 -0.2301  0.1940 -0.0062
 6383SOL    HW126010   6.070   2.828   7.152  2.5372 -0.5407  2.5144
 6383SOL    HW226011   6.098   2.976   7.163 -1.0280  0.5104 -0.6352
 6384SOL     OW26012   2.251   8.939   8.858 -0.1798 -0.5922 -0.0172
 6384SOL    HW126013   2.245   8.863   8.799  0.6588 -0.4074 -0.3634
 6384SOL    HW226014   2.344   8.960   8.860 -0.2643 -0.2671  0.9812
 6385SOL     OW26015   9.668   5.605  12.090 -0.2503 -0.9315  0.4769
 6385SOL    HW126016   9.686   5.578  12.000 -0.2262 -0.3101  0.2906
 6385SOL    HW226017   9.754   5.630  12.125 -0.5336  0.8120 -0.0007
 6386SOL     OW26018   9.269   8.748   2.204 -0.1184 -0.7361 -0.5041
 6386SOL    HW126019   9.178   8.738   2.177 -0.4886 -2.9503  1.2522
 6386SOL    HW226020   9.312   8.667   2.174  1.5131  0.6106 -2.0029
 6387SOL     OW26021   0.545  11.406  11.461  0.2529 -0.3872  0.3179
 6387SOL    HW126022   0.534  11.483  11.516 -2.3285 -0.0327 -0.5479
 6387SOL    HW226023   0.480  11.344  11.493  1.1770 -1.5678 -0.0496
 6388SOL     OW26024   4.098   3.230   7.724  0.4719 -0.0988  0.0661
 6388SOL    HW126025   4.054   3.315   7.719 -1.9094 -1.2163  0.4191
 6388SOL    HW226026   4.104   3.212   7.817  1.6924 -0.0084  0.0201
 6389SOL     OW26027   5.879  11.353   7.528 -0.4942  0.0638  0.1116
 6389SOL    HW126028   5.973  11.341   7.541 -0.3841  1.1346  0.4584
 6389SOL    HW226029   5.868  11.356   7.433 -0.3266 -1.0487  0.0454
 6390SOL     OW26030   0.999   4.890   6.201  0.6882 -0.5245  0.0991
 6390SOL    HW126031   1.076   4.946   6.208  0.7071 -0.7481  2.0882
 6390SOL    HW226032   0.925   4.948   6.220  0.6517 -0.9873  1.4539
 6391SOL     OW26033   4.243   1.034  11.855 -0.2085  0.1663  0.1482
 6391SOL    HW126034   4.275   0.945  11.874 -1.3723 -0.4325 -0.5907
 6391SOL    HW226035   4.307   1.092  11.896  2.1766 -0.9638 -1.7129
 6392SOL     OW26036   0.607  10.943   4.195 -0.1558  0.5824 -0.4168
 6392SOL    HW126037   0.522  10.899   4.192 -0.1052  0.4677 -0.1996
 6392SOL    HW226038   0.589  11.026   4.239  0.2764 -0.4625  1.8673
 6393SOL     OW26039   2.551   8.617   4.864  0.3863 -0.3225 -0.0348
 6393SOL    HW126040   2.646   8.616   4.876  0.5895 -0.9569 -1.4866
 6393SOL    HW226041   2.538   8.600   4.770 -1.1795 -0.9914  0.2611
 6394SOL     OW26042   8.151   2.785   7.061  0.1108 -0.5113 -0.7375
 6394SOL    HW126043   8.102   2.793   6.978 -0.7555 -2.7106 -0.5118
 6394SOL    HW226044   8.239   2.760   7.034  0.1113 -0.2197 -1.0202
 6395SOL     OW26045  10.446   9.146   4.101 -0.4580 -0.2372  0.5678
 6395SOL    HW126046  10.378   9.096   4.058  0.7364 -1.7779  0.3806
 6395SOL    HW226047  10.448   9.230   4.055 -1.6819 -0.4584  0.0877
 6396SOL     OW26048   6.082  11.828   0.083  0.3552  0.0541 -0.1249
 6396SOL    HW126049   6.021  11.882   0.034 -0.0398 -1.0598 -0.9066
 6396SOL    HW226050   6.028  11.756   0.117  1.2080 -0.9407 -0.8231
 6397SOL     OW26051   8.289   2.988   1.271 -0.0378 -0.7451 -0.2658
 6397SOL    HW126052   8.242   2.963   1.351 -0.0095 -0.3003 -0.1113
 6397SOL    HW226053   8.227   3.042   1.223  1.2614  2.4094  1.3082
 6398SOL     OW26054  10.915   9.599  11.056  0.8843 -0.2175  0.1443
 6398SOL    HW126055  10.950   9.688  11.061  1.7762 -0.4528 -1.4267
 6398SOL    HW226056  10.840   9.605  10.997 -0.0166 -0.2558  1.2394
 6399SOL     OW26057  11.481  10.434   6.959 -0.3088  0.1121  0.1533
 6399SOL    HW126058  11.474  10.355   7.014 -0.1415 -0.3148 -0.4281
 6399SOL    HW226059  11.570  10.466   6.976  0.0728 -0.5413 -0.5505
 6400SOL     OW26060  12.355   6.823   4.492  0.1347  0.2874  0.0457
 6400SOL    HW126061  12.423   6.833   4.426 -0.7264 -2.2119 -1.3320
 6400SOL    HW226062  12.291   6.891   4.471  0.1890 -0.0594 -1.3029
 6401SOL     OW26063   5.263   7.262   4.038 -0.1301  0.0601  0.4330
 6401SOL    HW126064   5.286   7.180   4.083  1.0099  0.2473  0.2345
 6401SOL    HW226065   5.178   7.286   4.075  0.3985 -0.2093  1.9263
 6402SOL     OW26066  11.083   2.430  10.044 -0.0273  0.0133 -0.5093
 6402SOL    HW126067  11.054   2.491  10.112 -0.5101 -0.3941 -0.3409
 6402SOL    HW226068  11.170   2.402  10.073  0.5950  1.3038 -1.0589
 6403SOL     OW26069   2.810   1.157   8.610 -0.6029  0.1113  0.2561
 6403SOL    HW126070   2.796   1.158   8.516  0.9835  1.3089 -0.0088
 6403SOL    HW226071   2.888   1.102   8.623  0.9411  2.2373  0.5193
 6404SOL     OW26072  10.574   3.786  11.202 -0.2404 -0.2674 -0.7682
 6404SOL    HW126073  10.665   3.761  11.214 -0.6825 -1.3947  0.4969
 6404SOL    HW226074  10.564   3.796  11.108  0.1617 -4.4031 -1.4370
 6405SOL     OW26075   1.700   2.969   9.682  0.0125  0.4441 -0.1298
 6405SOL    HW126076   1.785   2.926   9.689 -0.1113  0.1753 -0.2595
 6405SOL    HW226077   1.702   3.014   9.598 -0.8415 -1.5078 -1.2842
 6406SOL     OW26078   5.327  10.868   4.699 -0.0578 -0.2512 -0.0197
 6406SOL    HW126079   5.270  10.810   4.650  0.6400 -1.7905  0.9235
 6406SOL    HW226080   5.392  10.898   4.635  0.0060 -1.1046 -0.3711
 6407SOL     OW26081   3.016   1.411  10.204  0.1319  0.0761  0.1789
 6407SOL    HW126082   2.945   1.384  10.146  1.2958 -0.5799 -0.9924
 6407SOL    HW226083   3.056   1.485  10.159  0.7086 -0.0858  0.4182
 6408SOL     OW26084   1.914   3.107   1.862 -0.4571  0.1771  0.7531
 6408SOL    HW126085   1.954   3.036   1.813 -1.4516  0.4049 -0.4253
 6408SOL    HW226086   1.911   3.180   1.801  0.6221  1.2982  1.9641
 6409SOL     OW26087   5.110  11.308   1.679 -0.0295  0.0290 -0.6681
 6409SOL    HW126088   5.048  11.381   1.669  0.8924  1.0407  0.5719
 6409SOL    HW226089   5.062  11.231   1.649 -2.2418  0.6070  1.0679
 6410SOL     OW26090   4.229   7.369   2.159 -0.1186 -0.2769  0.5716
 6410SOL    HW126091   4.146   7.335   2.125 -0.0602  1.1550 -1.1411
 6410SOL    HW226092   4.204   7.444   2.212 -0.0770 -1.5188  2.4364
 6411SOL     OW26093   2.092   2.687  10.159  0.6693 -0.4158  0.8125
 6411SOL    HW126094   2.016   2.629  10.171 -0.3385  0.1532 -2.0357
 6411SOL    HW226095   2.157   2.633  10.115  0.0886  0.2739 -0.9780
 6412SOL     OW26096  12.217   9.624   6.090  0.3607  0.2916 -0.3096
 6412SOL    HW126097  12.286   9.689   6.078  0.4448  0.6751  1.8827
 6412SOL    HW226098  12.240   9.580   6.172 -1.4446 -0.2809 -0.0680
 6413SOL     OW26099   5.587   2.104  12.422  0.0642 -0.2230 -0.0253
 6413SOL    HW126100   5.562   2.015  12.445 -0.2835  0.6297  3.3881
 6413SOL    HW226101   5.507   2.142  12.385 -0.9564 -0.3289  1.9358
 6414SOL     OW26102   0.741  10.538   4.752  0.0834  0.3529  0.1222
 6414SOL    HW126103   0.703  10.561   4.836 -0.2970  0.4573 -0.0785
 6414SOL    HW226104   0.759  10.444   4.758  0.5547  0.4624  0.5110
 6415SOL     OW26105   0.737   9.698   8.654 -0.2292  0.3708 -0.5721
 6415SOL    HW126106   0.691   9.737   8.728  0.4381  0.1030 -0.0101
 6415SOL    HW226107   0.800   9.638   8.693  0.5535  0.6738 -1.3276
 6416SOL     OW26108   0.955   9.287   3.464  0.1413 -0.2664 -0.3142
 6416SOL    HW126109   0.897   9.211   3.457 -1.4027  0.7552  0.5649
 6416SOL    HW226110   1.019   9.276   3.394 -1.0431 -1.5390 -1.2395
 6417SOL     OW26111   9.055  12.239   8.073 -0.1643 -0.0002  0.5332
 6417SOL    HW126112   9.024  12.321   8.036  0.5133 -0.5128 -1.2640
 6417SOL    HW226113   8.982  12.208   8.127 -2.3203 -0.4498 -2.4027
 6418SOL     OW26114   3.487  12.240   6.457  0.6120  0.2698 -0.8297
 6418SOL    HW126115   3.574  12.244   6.418  0.8715  0.0360 -0.2856
 6418SOL    HW226116   3.428  12.222   6.384  1.0204  0.4216 -1.1970
 6419SOL     OW26117   7.402   0.727   2.712 -0.0941 -0.3510  0.7902
 6419SOL    HW126118   7.328   0.675   2.681 -0.8617 -0.3878  2.5720
 6419SOL    HW226119   7.471   0.662   2.728 -0.3565 -0.5675  1.0500
 6420SOL     OW26120   7.188   7.816   5.320  0.6381  0.1460  0.7038
 6420SOL    HW126121   7.098   7.843   5.337 -0.2330 -0.9660 -1.7165
 6420SOL    HW226122   7.231   7.819   5.406 -1.5541  1.1228  1.8372
 6421SOL     OW26123   5.370  11.150   5.707 -0.6071  0.2724  0.1893
 6421SOL    HW126124   5.388  11.230   5.757  0.0115  1.1093 -1.2748
 6421SOL    HW226125   5.275  11.148   5.699 -0.6023  1.1986 -0.2392
 6422SOL     OW26126   1.992   4.635   5.331 -0.0807  0.1366  0.2166
 6422SOL    HW126127   2.033   4.560   5.289 -1.3209 -0.7151  0.4989
 6422SOL    HW226128   1.980   4.609   5.422 -1.9006  0.0635 -0.0059
 6423SOL     OW26129  11.805   1.340   2.376  0.4092  0.3131  0.0292
 6423SOL    HW126130  11.749   1.286   2.432  0.9395  0.4875  0.7364
 6423SOL    HW226131  11.815   1.288   2.296 -1.5709  0.7181 -0.5302
 6424SOL     OW26132  11.801   6.046   3.641  0.0086 -0.6669 -0.3887
 6424SOL    HW126133  11.847   5.978   3.690  0.0866 -0.6284 -0.4090
 6424SOL    HW226134  11.869   6.092   3.592 -0.0196 -0.4470 -0.2221
 6425SOL     OW26135   3.196   9.506   0.182 -0.1801  0.5682 -0.6313
 6425SOL    HW126136   3.104   9.487   0.167 -0.2346  1.1297 -1.0383
 6425SOL    HW226137   3.203   9.601   0.172  0.4370  0.5364 -0.5665
 6426SOL     OW26138   5.251   3.995   3.560 -0.2808 -0.0807  0.1247
 6426SOL    HW126139   5.214   4.084   3.561  0.7616  0.3984  2.2124
 6426SOL    HW226140   5.336   4.004   3.602  0.1902 -1.9581 -0.3511
 6427SOL     OW26141   5.028  10.464   9.808  0.7323  0.1640 -0.5960
 6427SOL    HW126142   5.076  10.383   9.788  1.3042  0.3216  0.0768
 6427SOL    HW226143   4.987  10.447   9.893  1.0454  0.6538 -0.3425
 6428SOL     OW26144   5.032  10.258   8.412 -0.3597  0.2789 -0.6159
 6428SOL    HW126145   5.052  10.301   8.329 -3.0548 -0.8359 -2.0033
 6428SOL    HW226146   4.942  10.227   8.401 -1.8874  2.3497  3.7270
 6429SOL     OW26147   8.600   1.750   0.093 -0.1401 -0.2742  0.0499
 6429SOL    HW126148   8.566   1.750   0.183  0.0255 -0.0596  0.1156
 6429SOL    HW226149   8.546   1.687   0.046 -0.9947  0.4582  0.0207
 6430SOL     OW26150   9.690   1.385   0.741  0.3493 -0.3487 -0.1941
 6430SOL    HW126151   9.776   1.416   0.772 -0.8307  0.5495  2.4376
 6430SOL    HW226152   9.709   1.300   0.702  2.1961 -1.1319  2.1671
 6431SOL     OW26153   7.884   4.209   0.285 -0.1613 -0.0847  0.6135
 6431SOL    HW126154   7.978   4.211   0.303 -0.4352  0.3435  2.0742
 6431SOL    HW226155   7.842   4.227   0.369 -1.5232  1.8494 -0.3959
 6432SOL     OW26156   5.908   7.710   8.074 -0.2607 -0.2873 -0.2332
 6432SOL    HW126157   5.957   7.760   8.138 -1.2470  0.1326  0.2191
 6432SOL    HW226158   5.942   7.739   7.989  0.9989 -0.7962  0.0870
 6433SOL     OW26159   6.267   8.801   8.967 -0.4203 -0.5840  0.6193
 6433SOL    HW126160   6.343   8.743   8.965 -0.6957 -1.0522  2.4683
 6433SOL    HW226161   6.303   8.886   8.992 -0.1787 -0.1845 -0.9876
 6434SOL     OW26162   1.213   4.597   4.275 -0.4232 -0.1410 -0.3232
 6434SOL    HW126163   1.164   4.563   4.200 -2.1452  0.1589  0.5993
 6434SOL    HW226164   1.167   4.563   4.351 -0.8240  2.2791  0.6174
 6435SOL     OW26165  11.498   9.159   0.087  0.2165  0.0130  0.0144
 6435SOL    HW126166  11.500   9.188  -0.004 -0.0559  1.0100  0.3098
 6435SOL    HW226167  11.516   9.065   0.083 -1.4135 -0.2831 -1.1854
 6436SOL     OW26168   5.442   2.085   8.557  0.4601 -0.5400 -0.2218
 6436SOL    HW126169   5.503   2.150   8.522  1.4477 -0.2343  1.9010
 6436SOL    HW226170   5.486   2.001   8.543  0.1145 -0.5761 -1.1267
 6437SOL     OW26171   7.491   4.452  10.259 -0.3520  0.3998 -0.1490
 6437SOL    HW126172   7.537   4.530  10.290  1.2530  0.2534 -1.9132
 6437SOL    HW226173   7.449   4.480  10.177  1.4843 -0.8480 -1.6086
 6438SOL     OW26174   1.084   6.493   2.763 -0.4509  0.2476  0.3185
 6438SOL    HW126175   1.031   6.466   2.688  0.5991 -0.9478 -0.0340
 6438SOL    HW226176   1.150   6.552   2.725  0.1409 -0.4344  0.2657
 6439SOL     OW26177  12.338   9.549   5.114  0.3460 -0.2489  0.1773
 6439SOL    HW126178  12.250   9.537   5.079  0.5257 -1.4691  0.1044
 6439SOL    HW226179  12.327   9.616   5.182 -0.5252  0.0450 -0.2332
 6440SOL     OW26180   2.294   5.843   2.746 -0.1987  0.2030 -0.0387
 6440SOL    HW126181   2.373   5.897   2.754 -0.5146  0.6610  0.0360
 6440SOL    HW226182   2.222   5.902   2.769 -0.7979  0.4860 -2.3606
 6441SOL     OW26183   9.647   6.308   5.092  0.3016 -0.6246  0.0532
 6441SOL    HW126184   9.557   6.293   5.063  0.0625  1.5505 -0.5344
 6441SOL    HW226185   9.638   6.374   5.161  1.4221 -0.5452  0.1297
 6442SOL     OW26186   2.757   6.867   7.686 -0.5047 -0.1755  0.0760
 6442SOL    HW126187   2.752   6.946   7.739 -1.0943 -1.4211  2.0031
 6442SOL    HW226188   2.784   6.897   7.599 -0.0757  2.0313  0.9170
 6443SOL     OW26189  11.871  11.105   5.769 -0.3505  0.2216 -0.1230
 6443SOL    HW126190  11.945  11.116   5.828  0.4609  0.3771 -1.1394
 6443SOL    HW226191  11.835  11.019   5.792  0.2691  0.0523  0.2462
 6444SOL     OW26192   8.884   8.530   6.270 -0.1513 -0.2635  0.0125
 6444SOL    HW126193   8.937   8.452   6.284 -0.8001 -0.7207 -0.0221
 6444SOL    HW226194   8.817   8.526   6.339 -1.6408 -1.0218 -1.4144
 6445SOL     OW26195   4.477   6.635   4.338  0.5249 -0.3993 -0.2846
 6445SOL    HW126196   4.383   6.638   4.319  0.7923 -0.4312 -1.7218
 6445SOL    HW226197   4.519   6.630   4.252  1.8205 -1.1427  0.3631
 6446SOL     OW26198   7.923   6.429   8.888  0.2020  0.2416 -0.2261
 6446SOL    HW126199   7.849   6.480   8.922  1.0359  0.8894  0.6898
 6446SOL    HW226200   7.883   6.358   8.838 -1.1530 -1.0062  2.4283
 6447SOL     OW26201  11.526   3.827  11.858  0.5854  0.3219  0.0649
 6447SOL    HW126202  11.447   3.822  11.805  0.5619  1.2436 -0.0106
 6447SOL    HW226203  11.542   3.737  11.886  0.0668 -0.0272 -0.7234
 6448SOL     OW26204  11.630   1.066   6.278  0.0072  0.4442 -0.5287
 6448SOL    HW126205  11.618   1.086   6.186 -1.0778  0.5114 -0.3879
 6448SOL    HW226206  11.572   0.991   6.294  0.5217  0.1459 -0.0034
 6449SOL     OW26207   0.759   4.998   1.374  0.1998  0.1264 -0.5809
 6449SOL    HW126208   0.809   4.942   1.433 -0.2518  0.6660  0.3369
 6449SOL    HW226209   0.825   5.057   1.337  0.3650  0.3459  0.0443
 6450SOL     OW26210   8.461   5.228   4.771  0.3655 -0.0705 -0.2231
 6450SOL    HW126211   8.517   5.151   4.782  0.1284 -0.2608 -0.3598
 6450SOL    HW226212   8.374   5.193   4.753 -0.3356  0.1556  2.3079
 6451SOL     OW26213   3.294   9.975   5.307  0.1858 -0.0578 -0.1441
 6451SOL    HW126214   3.296  10.033   5.383  2.5475  1.2023 -1.0484
 6451SOL    HW226215   3.372  10.000   5.256 -1.1491 -1.0207 -2.8459
 6452SOL     OW26216  12.153   8.509   2.059 -0.1055 -0.0287  0.4446
 6452SOL    HW126217  12.199   8.558   1.991 -0.3165 -0.9442 -0.3885
 6452SOL    HW226218  12.067   8.550   2.065 -0.4542 -0.5683 -0.5915
 6453SOL     OW26219   7.362  10.615   1.603 -0.3116 -0.0484  0.0705
 6453SOL    HW126220   7.403  10.662   1.531  0.9999 -2.1499 -0.6464
 6453SOL    HW226221   7.277  10.587   1.569  0.4240 -1.2981 -0.8551
 6454SOL     OW26222  12.423   1.657   9.705 -0.6515 -0.3456 -0.1174
 6454SOL    HW126223  12.427   1.562   9.691  1.1572 -0.6710  1.9258
 6454SOL    HW226224  12.357   1.669   9.773  0.9692 -0.5113  1.5638
 6455SOL     OW26225   5.414   1.132   4.533 -0.0695 -0.0322 -0.0461
 6455SOL    HW126226   5.432   1.214   4.487 -2.9616  0.8052  0.1498
 6455SOL    HW226227   5.403   1.068   4.463 -1.3494  0.5626 -0.4236
 6456SOL     OW26228   3.160   4.792   9.332  0.5669  0.3197 -0.2407
 6456SOL    HW126229   3.188   4.757   9.247 -1.0865 -2.9649  0.3888
 6456SOL    HW226230   3.067   4.811   9.321  0.0284 -1.3070  1.0755
 6457SOL     OW26231   7.579   9.317  11.646 -0.1064  0.1898  0.2048
 6457SOL    HW126232   7.579   9.247  11.710 -2.1732  0.8927  1.0569
 6457SOL    HW226233   7.643   9.290  11.580 -0.9024 -2.5339  0.4375
 6458SOL     OW26234   3.653   9.994   0.533 -0.3606  0.2886  0.1086
 6458SOL    HW126235   3.593   9.928   0.567  0.5213  0.0320  1.2260
 6458SOL    HW226236   3.706  10.020   0.609 -0.3286  1.8942 -0.4252
 6459SOL     OW26237   9.728   7.084   0.108 -0.8428  0.3203 -0.1619
 6459SOL    HW126238   9.777   7.144   0.165 -2.0890  0.8257  0.4340
 6459SOL    HW226239   9.757   6.997   0.134 -1.6985  0.5114  1.6243
 6460SOL     OW26240   2.247   7.522   6.279  0.4216  0.0841 -0.5750
 6460SOL    HW126241   2.341   7.514   6.297  0.2332 -0.6582  0.1759
 6460SOL    HW226242   2.242   7.551   6.188  1.3676 -0.3010 -0.7610
 6461SOL     OW26243   8.905  10.863   7.045  0.2095  0.0113 -0.6116
 6461SOL    HW126244   8.862  10.792   7.092 -0.8409  1.0936  0.1259
 6461SOL    HW226245   8.965  10.901   7.109 -1.2306  1.4923 -0.0536
 6462SOL     OW26246   2.990   9.349   0.349 -0.1274  0.1719  0.2218
 6462SOL    HW126247   3.028   9.411   0.412 -0.0540 -0.0203  0.3661
 6462SOL    HW226248   2.922   9.400   0.304  0.3264  0.5335 -0.0667
 6463SOL     OW26249   9.609   0.055   0.047  0.1391  0.4886 -0.0628
 6463SOL    HW126250   9.567   0.010  -0.026 -0.0817 -0.4928  0.6375
 6463SOL    HW226251   9.556   0.030   0.124  0.1184  1.8184  0.3819
 6464SOL     OW26252  10.177  10.583   3.239  0.4603 -0.3783  0.1551
 6464SOL    HW126253  10.154  10.491   3.235  0.9379 -0.5572  1.0387
 6464SOL    HW226254  10.103  10.629   3.201 -0.4193 -1.0466  1.0127
 6465SOL     OW26255  10.027   2.520   0.111  0.1801  0.5239 -0.3444
 6465SOL    HW126256  10.111   2.519   0.065 -1.3493 -0.1279 -3.4378
 6465SOL    HW226257  10.030   2.443   0.168  1.2222 -0.2329 -1.3649
 6466SOL     OW26258   4.529   1.095   9.321  0.4062 -0.0830  0.0041
 6466SOL    HW126259   4.466   1.086   9.393 -2.4648  1.3541 -2.1193
 6466SOL    HW226260   4.519   1.015   9.270  2.2928 -1.0089  0.9614
 6467SOL     OW26261   6.484   3.245  12.079  0.2118  0.1210 -0.5500
 6467SOL    HW126262   6.526   3.209  12.157 -2.8509 -2.2363  0.2002
 6467SOL    HW226263   6.547   3.229  12.009  2.8384  1.8425  1.2535
 6468SOL     OW26264   6.980   5.047   1.542  0.3785 -0.2165 -0.0329
 6468SOL    HW126265   6.910   5.096   1.498 -0.1828 -1.4746 -0.5856
 6468SOL    HW226266   6.980   5.080   1.632 -0.9294 -0.2106 -0.0256
 6469SOL     OW26267  11.079   4.605   2.293 -0.1586  0.4333  0.2628
 6469SOL    HW126268  11.035   4.594   2.377  0.2495  1.6604  0.6596
 6469SOL    HW226269  11.172   4.613   2.315 -0.0520  0.8384 -0.2844
 6470SOL     OW26270  11.852   0.418   5.935 -0.1760  0.7295 -0.2158
 6470SOL    HW126271  11.931   0.466   5.959  0.3114 -0.3434  0.3801
 6470SOL    HW226272  11.881   0.327   5.924 -0.9058  0.6931 -2.2263
 6471SOL     OW26273   4.785  11.523   3.438 -0.4637  0.0712  0.1743
 6471SOL    HW126274   4.706  11.551   3.484 -0.8954 -1.4703  0.4422
 6471SOL    HW226275   4.798  11.589   3.370 -1.8049  0.5109  0.3193
 6472SOL     OW26276   2.562   4.101   7.330  0.5270 -0.0749 -0.2797
 6472SOL    HW126277   2.600   4.015   7.348 -0.3931 -0.7560 -1.4561
 6472SOL    HW226278   2.543   4.137   7.417 -0.0328 -1.5106  0.2245
 6473SOL     OW26279   8.398   1.985   6.974 -0.5243  0.6748  0.1474
 6473SOL    HW126280   8.399   1.947   7.062  0.2727 -2.2528 -1.0190
 6473SOL    HW226281   8.446   2.068   6.983  2.1732 -0.9388  1.9496
 6474SOL     OW26282   9.625  10.797   3.816  0.0938 -0.0239 -0.3116
 6474SOL    HW126283   9.556  10.770   3.876 -1.0504 -0.6807 -1.8518
 6474SOL    HW226284   9.586  10.868   3.765  1.2357  0.9133  0.0556
 6475SOL     OW26285   7.542   8.131   1.857  0.2639  0.3049  0.3308
 6475SOL    HW126286   7.518   8.049   1.814 -2.5324  1.1594  0.1164
 6475SOL    HW226287   7.608   8.170   1.798 -1.4774  0.1577 -1.8336
 6476SOL     OW26288   5.971   8.637   2.262 -0.0815  0.0012 -0.3094
 6476SOL    HW126289   6.063   8.632   2.236  0.6369 -0.2895  2.0535
 6476SOL    HW226290   5.946   8.546   2.278 -1.0484  0.0033 -1.6605
 6477SOL     OW26291   0.674  10.044   1.368 -0.3488  0.1760  0.0412
 6477SOL    HW126292   0.724  10.121   1.342  1.4283 -1.7068 -2.6638
 6477SOL    HW226293   0.584  10.063   1.340 -0.0190  1.3649 -0.2525
 6478SOL     OW26294   4.744   0.848   8.342  0.2283 -0.1638  0.1702
 6478SOL    HW126295   4.712   0.761   8.318 -0.8774  0.9269 -2.8333
 6478SOL    HW226296   4.666   0.895   8.370  0.7343  0.0637  1.2545
 6479SOL     OW26297   7.960   4.952  11.707  0.2582  0.0911 -0.4975
 6479SOL    HW126298   7.878   4.987  11.671  1.1065  0.5263 -2.1106
 6479SOL    HW226299   7.947   4.858  11.708 -1.2834  0.2440  1.9465
 6480SOL     OW26300   4.713   8.468   1.340  0.2578 -0.0523 -0.7596
 6480SOL    HW126301   4.656   8.515   1.279  0.4288 -0.3765 -1.1814
 6480SOL    HW226302   4.771   8.416   1.283  0.8306  0.1094 -0.3370
 6481SOL     OW26303   6.442   0.697   4.165 -0.1480  0.3471  0.1786
 6481SOL    HW126304   6.356   0.735   4.151 -0.8207 -1.3813 -0.6601
 6481SOL    HW226305   6.433   0.643   4.244  0.3248  0.6135  0.4174
 6482SOL     OW26306   8.127   3.714   9.410  0.3234  0.1267  0.0097
 6482SOL    HW126307   8.202   3.715   9.469  2.1238  1.6510 -2.1190
 6482SOL    HW226308   8.076   3.792   9.434 -1.0302 -1.2593  1.8818
 6483SOL     OW26309   1.551  10.084   3.863 -0.6686  0.1810  0.2812
 6483SOL    HW126310   1.462  10.061   3.891 -0.4897 -1.4010 -0.3258
 6483SOL    HW226311   1.576  10.013   3.804  0.8974  0.7495  0.2224
 6484SOL     OW26312   9.398   2.927   0.359  0.2833  0.3064 -0.3430
 6484SOL    HW126313   9.412   2.860   0.426  0.2038  0.0096 -0.6145
 6484SOL    HW226314   9.369   3.004   0.407 -0.5013 -0.1265 -0.0957
 6485SOL     OW26315   0.384   7.059   9.928  0.2233 -0.7153  0.2322
 6485SOL    HW126316   0.445   7.008   9.874  0.2183  0.5938 -1.0971
 6485SOL    HW226317   0.379   7.012  10.011  1.7625 -1.7458 -0.2212
 6486SOL     OW26318  10.773   8.364  11.013 -0.5423  0.3004 -0.1716
 6486SOL    HW126319  10.743   8.420  10.942  0.1271  0.1950 -0.5482
 6486SOL    HW226320  10.701   8.303  11.028 -0.5090  0.0151 -1.0985
 6487SOL     OW26321   9.074   5.227   8.418  0.6189 -0.1502 -0.3049
 6487SOL    HW126322   9.140   5.263   8.359 -0.2142 -0.7737 -1.6636
 6487SOL    HW226323   9.080   5.133   8.407 -0.0411 -0.2425  0.0631
 6488SOL     OW26324  10.002   8.732   3.263 -0.0932 -0.6753 -0.0973
 6488SOL    HW126325   9.915   8.706   3.234 -1.6094  2.2517  1.3502
 6488SOL    HW226326   9.999   8.724   3.359 -0.0589  2.5528  0.2988
 6489SOL     OW26327   6.578   8.313   8.903  0.2613 -0.6144  0.0695
 6489SOL    HW126328   6.572   8.217   8.900  1.1018 -0.8215  2.3952
 6489SOL    HW226329   6.489   8.342   8.921 -0.2774 -0.8012 -2.0385
 6490SOL     OW26330  11.503  10.659  12.211  0.1479  0.1857  0.6589
 6490SOL    HW126331  11.431  10.651  12.273  0.0450  1.9396  0.8275
 6490SOL    HW226332  11.566  10.717  12.254  0.7452  0.2600 -0.2798
 6491SOL     OW26333   1.064   8.633   0.975 -0.4199  0.5482 -0.2415
 6491SOL    HW126334   0.987   8.684   0.999  0.0400  0.8617  0.6021
 6491SOL    HW226335   1.029   8.557   0.929 -1.3270  0.1713  1.0046
 6492SOL     OW26336   4.090   6.325  10.413  0.4208 -0.0944 -0.7911
 6492SOL    HW126337   4.167   6.382  10.418  0.9373 -0.6957 -1.7094
 6492SOL    HW226338   4.017   6.382  10.439  1.0513  0.7258 -0.7630
 6493SOL     OW26339  11.191   9.250   3.153 -0.5334 -0.0367  0.2546
 6493SOL    HW126340  11.163   9.230   3.243 -2.5551 -0.1815 -0.3724
 6493SOL    HW226341  11.203   9.164   3.112 -0.7377  0.0324  0.0508
 6494SOL     OW26342   6.662   2.972   9.212 -0.3161  0.0985 -0.1411
 6494SOL    HW126343   6.721   2.914   9.259 -1.2604 -0.6340  0.1804
 6494SOL    HW226344   6.711   2.999   9.134  0.7764  0.2818  0.5967
 6495SOL     OW26345   7.344   1.156   3.784 -0.7078 -0.2406  0.2004
 6495SOL    HW126346   7.351   1.087   3.850  1.0474 -1.2746 -0.9871
 6495SOL    HW226347   7.298   1.115   3.710 -0.0227 -0.0321 -0.3569
 6496SOL     OW26348   0.159   5.102   5.563  0.0097  0.4362  0.2958
 6496SOL    HW126349   0.251   5.076   5.563 -0.2808 -0.8323  2.4630
 6496SOL    HW226350   0.110   5.020   5.569 -1.2859  1.0901 -0.7728
 6497SOL     OW26351   1.230   5.980   9.616  0.1338 -0.2006 -0.3501
 6497SOL    HW126352   1.188   6.027   9.688 -0.2715  0.0582 -0.7452
 6497SOL    HW226353   1.320   5.968   9.644  0.1047  0.3409 -0.0118
 6498SOL     OW26354  10.757   1.586  12.397  0.3006 -0.0042  0.2406
 6498SOL    HW126355  10.757   1.511  12.455 -1.2560  0.5424  1.0141
 6498SOL    HW226356  10.836   1.635  12.419 -0.5774  0.5359  2.4249
 6499SOL     OW26357   2.505   0.077  10.750 -0.1081 -0.0251  0.1593
 6499SOL    HW126358   2.467   0.052  10.834 -0.5013 -0.2047 -0.0688
 6499SOL    HW226359   2.499  -0.002  10.697  1.7401 -0.4501  0.5117
 6500SOL     OW26360   2.010   7.401   6.354  0.7765  0.3587  0.7035
 6500SOL    HW126361   2.081   7.459   6.325  0.6289  0.2920  0.2024
 6500SOL    HW226362   1.990   7.348   6.277  0.1066  0.4529  0.8124
 6501SOL     OW26363   1.623   6.779  11.037  0.1113  0.3184 -0.1444
 6501SOL    HW126364   1.575   6.836  11.096 -0.0612 -0.5757  0.5931
 6501SOL    HW226365   1.618   6.823  10.952 -1.8188  0.3517 -0.0449
 6502SOL     OW26366   9.005   0.350   7.306  0.2251  0.1789  0.2083
 6502SOL    HW126367   8.931   0.328   7.362 -0.4441 -2.0271 -1.3836
 6502SOL    HW226368   8.985   0.308   7.222  2.7168  0.5041 -0.6508
 6503SOL     OW26369  10.197   1.218   9.216 -0.0415  0.4201  0.0550
 6503SOL    HW126370  10.165   1.171   9.140 -0.1693  0.3396  0.1576
 6503SOL    HW226371  10.130   1.285   9.233  0.0837  0.5679 -0.0245
 6504SOL     OW26372  10.440   6.065  10.652  0.1673  0.0872 -0.8149
 6504SOL    HW126373  10.354   6.106  10.648 -0.6038 -1.5323 -2.2855
 6504SOL    HW226374  10.500   6.129  10.614 -0.8716  0.1785 -2.3988
 6505SOL     OW26375   8.076   1.373   6.428  0.0682 -0.2410  0.4166
 6505SOL    HW126376   8.131   1.296   6.441 -0.2581 -0.7684 -1.0451
 6505SOL    HW226377   8.005   1.342   6.372 -0.6377  0.8892  0.6535
 6506SOL     OW26378   3.455  12.114   6.704 -0.5064 -0.3584  0.4450
 6506SOL    HW126379   3.538  12.094   6.747 -0.5754 -1.9706 -0.0980
 6506SOL    HW226380   3.480  12.154   6.621 -0.2498 -1.0566  0.1784
 6507SOL     OW26381  11.447   6.198   2.450 -0.1157  0.3754 -0.2011
 6507SOL    HW126382  11.536   6.222   2.478 -0.4228  1.4719 -0.1048
 6507SOL    HW226383  11.436   6.107   2.478  1.1894  0.0265 -0.7372
 6508SOL     OW26384  10.983   6.964   4.772  0.6900  0.4034  0.2268
 6508SOL    HW126385  11.010   6.891   4.828  2.7251  2.1578  1.7136
 6508SOL    HW226386  10.985   6.929   4.683 -1.6644 -2.2008  1.0752
 6509SOL     OW26387   7.937  11.451   0.088  0.2802 -0.1924  0.3843
 6509SOL    HW126388   7.945  11.364   0.049 -0.2918 -0.5645  1.0960
 6509SOL    HW226389   7.943  11.511   0.013 -3.3287 -0.9599 -0.7014
 6510SOL     OW26390   1.924   7.861  10.283  0.5863 -1.1137  0.5964
 6510SOL    HW126391   1.838   7.888  10.316  0.9191 -0.7874  1.2111
 6510SOL    HW226392   1.953   7.795  10.347  0.7528 -1.2916  0.3359
 6511SOL     OW26393  10.162   4.437  12.439 -0.2605  0.2612  0.6413
 6511SOL    HW126394  10.231   4.500  12.457 -0.2400  0.8497 -1.3636
 6511SOL    HW226395  10.085   4.490  12.418 -0.8571 -0.3945  1.1003
 6512SOL     OW26396   8.821   7.936   4.925 -0.1380 -0.1661 -0.2267
 6512SOL    HW126397   8.855   8.010   4.976 -0.1703  0.1878 -0.7090
 6512SOL    HW226398   8.786   7.976   4.845 -1.3034 -0.5678  0.0634
 6513SOL     OW26399   5.409   8.723   5.491  0.5294  0.0790 -0.5556
 6513SOL    HW126400   5.374   8.665   5.559  1.4878 -1.1734 -1.0691
 6513SOL    HW226401   5.478   8.773   5.535  0.4600 -0.0023 -0.3544
 6514SOL     OW26402   3.925  11.196   3.786 -0.0646  0.3055  0.2103
 6514SOL    HW126403   3.900  11.286   3.810  1.7140  1.1266 -0.7622
 6514SOL    HW226404   3.920  11.196   3.690 -0.2446 -0.7242  0.2140
 6515SOL     OW26405   7.964  11.270   7.537 -0.1700  0.1865 -0.4748
 6515SOL    HW126406   7.965  11.316   7.621  2.4512  0.7324 -0.7389
 6515SOL    HW226407   8.056  11.263   7.512 -0.8255 -0.8246 -2.8594
 6516SOL     OW26408  10.952   9.085   6.340  0.0390 -0.0476  0.4874
 6516SOL    HW126409  10.928   8.993   6.350 -1.8434  0.1684 -1.2092
 6516SOL    HW226410  10.901   9.131   6.407 -0.9868 -0.0419 -0.2625
 6517SOL     OW26411   7.757   1.876  11.109  0.5865 -0.3719  0.6156
 6517SOL    HW126412   7.772   1.782  11.101  0.5292 -0.4253  1.0706
 6517SOL    HW226413   7.665   1.883  11.137  0.0775 -0.1032 -1.0479
 6518SOL     OW26414   1.494   7.416   8.743 -0.1171 -0.1137  0.0145
 6518SOL    HW126415   1.577   7.436   8.700 -0.1226  0.4733  0.2661
 6518SOL    HW226416   1.515   7.348   8.807 -0.0434 -0.7501 -0.6702
 6519SOL     OW26417   2.485   1.606   9.717 -0.0365  0.3755 -0.0489
 6519SOL    HW126418   2.571   1.583   9.750  0.1788 -0.3444 -1.0501
 6519SOL    HW226419   2.444   1.657   9.787  1.4881  1.3878  0.1376
 6520SOL     OW26420   9.785   9.952   5.302  0.3128  0.4025 -0.1163
 6520SOL    HW126421   9.827   9.913   5.379  0.2832 -1.8738 -1.1624
 6520SOL    HW226422   9.778   9.880   5.239 -1.2356  1.7556 -1.6195
 6521SOL     OW26423   8.101   0.042   1.619 -0.0564  0.3617  0.2770
 6521SOL    HW126424   8.045  -0.035   1.623 -0.7754  0.7188 -1.5238
 6521SOL    HW226425   8.172   0.017   1.560 -0.2188  1.0047 -0.2103
 6522SOL     OW26426   3.754   0.981  10.002  0.2783 -0.1722  0.0053
 6522SOL    HW126427   3.848   0.996  10.008  0.4698 -1.3551  0.2650
 6522SOL    HW226428   3.716   1.040  10.067  0.7027  1.3067 -1.0512
 6523SOL     OW26429   8.944   0.459   8.502  0.1152  0.4818 -0.3078
 6523SOL    HW126430   9.014   0.422   8.555  0.3945  1.5817  0.1278
 6523SOL    HW226431   8.863   0.436   8.549  0.0983 -1.3853 -1.1748
 6524SOL     OW26432   4.551   2.634  11.604  0.1423 -0.6951 -0.1028
 6524SOL    HW126433   4.477   2.625  11.544  0.1661 -2.5102  0.0896
 6524SOL    HW226434   4.551   2.553  11.655  2.1386 -0.6527  0.0527
 6525SOL     OW26435   6.937   0.183   1.327 -0.3517  0.1359 -0.0489
 6525SOL    HW126436   6.921   0.227   1.411  1.1103 -1.4365  1.1331
 6525SOL    HW226437   7.033   0.176   1.322 -0.3944  0.4738 -2.0322
 6526SOL     OW26438   6.402   1.531   8.701  0.2321  0.2544 -0.8142
 6526SOL    HW126439   6.311   1.506   8.715 -0.2133  0.7290 -2.6102
 6526SOL    HW226440   6.447   1.448   8.683  0.5194 -0.1752  1.6353
 6527SOL     OW26441   5.661   2.150   7.219 -0.4476 -0.3989  0.2465
 6527SOL    HW126442   5.614   2.067   7.232  1.3860 -1.4247  0.7507
 6527SOL    HW226443   5.604   2.216   7.257 -1.7114 -1.5075  0.3502
 6528SOL     OW26444   0.156   9.429   8.716  0.2688  0.1554 -0.1900
 6528SOL    HW126445   0.172   9.513   8.674  0.2529 -0.3705 -1.2867
 6528SOL    HW226446   0.215   9.368   8.672 -0.9777 -0.7543 -0.6534
 6529SOL     OW26447  12.132   3.067  12.311  0.0188  0.5971 -0.2249
 6529SOL    HW126448  12.103   3.045  12.399 -1.6185 -2.0229 -1.2877
 6529SOL    HW226449  12.204   3.006  12.293  0.1960  0.9583 -0.7916
 6530SOL     OW26450   9.979   2.569   4.096  0.2725 -0.0676  0.4172
 6530SOL    HW126451   9.953   2.501   4.034 -1.2245  2.0555 -1.4171
 6530SOL    HW226452  10.057   2.609   4.057 -0.1964  0.7457  0.3009
 6531SOL     OW26453   2.440   0.732   3.153 -0.0195  0.6796 -0.5035
 6531SOL    HW126454   2.440   0.760   3.245 -0.3807  0.1347 -0.3320
 6531SOL    HW226455   2.469   0.641   3.156 -2.8804 -0.3558 -0.5672
 6532SOL     OW26456   0.164   4.369   1.070 -0.4070  0.4558 -0.1467
 6532SOL    HW126457   0.096   4.314   1.108 -0.4411 -0.5823 -1.6044
 6532SOL    HW226458   0.140   4.458   1.094 -3.1293  0.2785 -1.7864
 6533SOL     OW26459   0.703   6.961   8.168 -0.3279  0.1427  0.3400
 6533SOL    HW126460   0.708   6.871   8.201  0.5915  0.6193  1.5991
 6533SOL    HW226461   0.757   6.960   8.089 -1.3253 -0.6804 -0.3566
 6534SOL     OW26462   4.799   4.968   7.198 -0.1719  0.1740 -0.3614
 6534SOL    HW126463   4.818   5.062   7.196  0.6510  0.0314  0.1062
 6534SOL    HW226464   4.877   4.929   7.239 -1.0394 -0.5826  0.6096
 6535SOL     OW26465   1.875   5.190   9.121 -0.4055 -0.2936 -0.3212
 6535SOL    HW126466   1.877   5.230   9.034 -1.7811 -0.3796 -0.4077
 6535SOL    HW226467   1.922   5.252   9.176  2.1618 -1.1204 -1.4326
 6536SOL     OW26468   3.435  12.403   0.580 -0.1606  0.0846 -0.2725
 6536SOL    HW126469   3.440  12.411   0.485  0.0825  0.3550 -0.2378
 6536SOL    HW226470   3.494  12.471   0.613 -0.1047 -0.1262  0.0683
 6537SOL     OW26471   1.808   8.673   1.171 -0.5028 -0.1122  0.5837
 6537SOL    HW126472   1.865   8.720   1.111 -1.1603 -0.2559 -0.1613
 6537SOL    HW226473   1.853   8.679   1.256 -0.0015  0.8377  0.2648
 6538SOL     OW26474  12.288   4.030   2.645  0.2045 -0.4427 -0.4632
 6538SOL    HW126475  12.290   4.036   2.550  2.2686  1.2091 -0.3835
 6538SOL    HW226476  12.378   4.048   2.673 -0.4955 -0.0831  1.8245
 6539SOL     OW26477   7.606   9.752   7.745  0.3721  0.2995  0.7092
 6539SOL    HW126478   7.611   9.691   7.671  0.4483  0.7875  0.3046
 6539SOL    HW226479   7.696   9.780   7.759  0.0699  2.3256 -0.8382
 6540SOL     OW26480  11.207   8.661   4.983  0.0715 -0.1397  0.4545
 6540SOL    HW126481  11.171   8.575   4.959 -1.5443  0.6642 -0.1466
 6540SOL    HW226482  11.195   8.667   5.078 -0.6894 -0.2213  0.3726
 6541SOL     OW26483  12.481   8.356  11.399 -0.3433  0.0140 -0.2083
 6541SOL    HW126484  12.553   8.409  11.433 -0.8818  0.4022  0.3346
 6541SOL    HW226485  12.511   8.327  11.313  0.3005  0.5005 -0.1512
 6542SOL     OW26486   4.952  11.146   7.562 -0.4491  0.5093  0.3173
 6542SOL    HW126487   4.976  11.194   7.641 -4.1556  0.6090  1.6034
 6542SOL    HW226488   4.941  11.056   7.592  1.8952 -0.3391 -1.0691
 6543SOL     OW26489   4.308   7.329   0.355 -0.2124  0.8402 -0.1330
 6543SOL    HW126490   4.301   7.254   0.295  0.5251 -1.4019  2.4130
 6543SOL    HW226491   4.393   7.368   0.335  1.4863 -1.8016  1.3872
 6544SOL     OW26492   6.148   9.431   1.686 -0.1156 -0.0099  0.1270
 6544SOL    HW126493   6.101   9.424   1.769 -0.4527 -2.1841 -0.1906
 6544SOL    HW226494   6.121   9.353   1.637  3.7797 -1.4484 -0.0695
 6545SOL     OW26495   4.055   9.164   1.982 -0.0078 -0.5909  0.3121
 6545SOL    HW126496   4.059   9.241   1.925 -0.3364 -1.0567 -0.3534
 6545SOL    HW226497   4.062   9.090   1.923 -3.0492 -1.1809  0.5035
 6546SOL     OW26498   5.068   0.474   1.710 -0.1800  0.3320 -0.0704
 6546SOL    HW126499   5.158   0.445   1.720  0.0739  1.4301  1.0296
 6546SOL    HW226500   5.072   0.569   1.711 -1.3907  0.4051  0.5258
 6547SOL     OW26501   0.212   0.603   4.030  0.2138  0.0064  0.2789
 6547SOL    HW126502   0.231   0.608   3.936  0.4637 -0.3794  0.3047
 6547SOL    HW226503   0.213   0.694   4.060  1.0899  0.0642  0.0938
 6548SOL     OW26504   4.288  11.983   6.230 -0.4647 -0.1116  0.1955
 6548SOL    HW126505   4.254  12.062   6.189 -0.4347 -0.4439 -0.4818
 6548SOL    HW226506   4.290  12.004   6.324 -1.3812  0.3432  0.1328
 6549SOL     OW26507   9.284   7.369   5.985  0.3441  0.2182  0.2034
 6549SOL    HW126508   9.276   7.289   6.038  1.5472 -1.5126 -2.0582
 6549SOL    HW226509   9.194   7.402   5.979 -0.1078 -0.6565  1.5971
 6550SOL     OW26510   5.768   8.858   1.740  0.5711 -0.1496  0.1596
 6550SOL    HW126511   5.797   8.917   1.810 -0.3431 -0.3553  0.7335
 6550SOL    HW226512   5.672   8.860   1.745  0.4911 -0.2408 -1.0379
 6551SOL     OW26513   6.307   7.400   9.397 -0.3703 -0.0497 -0.0070
 6551SOL    HW126514   6.330   7.351   9.318 -1.7417  1.0821 -1.1783
 6551SOL    HW226515   6.391   7.423   9.437  0.3652 -0.4751 -1.2460
 6552SOL     OW26516  11.327   0.165   4.051  0.5991  0.2920  0.1353
 6552SOL    HW126517  11.297   0.244   4.007  1.5065  0.7920  0.3750
 6552SOL    HW226518  11.334   0.099   3.982  1.4286  0.8968 -0.3749
 6553SOL     OW26519   1.742   5.775   8.135 -0.1220  0.1821  0.7947
 6553SOL    HW126520   1.772   5.784   8.045 -0.4296  0.2040  0.6936
 6553SOL    HW226521   1.651   5.748   8.128  0.2767 -1.3417  1.0907
 6554SOL     OW26522   7.729   4.388  12.212  0.6985 -0.4409 -0.3076
 6554SOL    HW126523   7.693   4.377  12.124  0.4031  0.3887 -0.2944
 6554SOL    HW226524   7.720   4.302  12.252 -1.6958 -0.1870 -0.1554
 6555SOL     OW26525   5.789   8.476  10.537 -0.5453  0.2070 -0.5415
 6555SOL    HW126526   5.883   8.484  10.551 -0.7399  0.3037  0.7637
 6555SOL    HW226527   5.780   8.402  10.476  0.3809  0.4297 -0.9568
 6556SOL     OW26528   1.836  10.481   2.595  0.1330 -0.2027  0.2553
 6556SOL    HW126529   1.740  10.490   2.596 -0.0242 -1.6035 -0.0039
 6556SOL    HW226530   1.867  10.554   2.542 -0.7122  0.8357  1.1423
 6557SOL     OW26531   3.429   8.008   7.107 -0.2024  0.5570 -0.0380
 6557SOL    HW126532   3.495   8.063   7.066 -0.6008  0.3664 -0.9567
 6557SOL    HW226533   3.470   7.922   7.113  0.1296  0.7575  0.6709
 6558SOL     OW26534   4.764   5.084   0.137 -0.2784 -0.0684 -0.4451
 6558SOL    HW126535   4.712   5.162   0.117  2.5516  2.2467  0.4872
 6558SOL    HW226536   4.732   5.055   0.222 -0.9945  0.4301 -0.5351
 6559SOL     OW26537   3.262   4.999   4.926 -0.2040 -0.3447 -0.3753
 6559SOL    HW126538   3.219   5.077   4.890  3.2589  0.9595 -2.1395
 6559SOL    HW226539   3.224   4.926   4.876  0.2756  0.8321 -2.5958
 6560SOL     OW26540   2.345   6.094   5.067 -0.1908 -0.2754  0.6384
 6560SOL    HW126541   2.407   6.021   5.071  0.2297 -0.0881 -1.5307
 6560SOL    HW226542   2.385   6.157   5.008 -1.1064  1.2168  1.5292
 6561SOL     OW26543   0.721   2.452   4.861  0.3526  0.1837 -0.7570
 6561SOL    HW126544   0.754   2.386   4.922 -0.1269  0.4715 -0.1777
 6561SOL    HW226545   0.641   2.413   4.824 -1.4189  1.4342  1.5283
 6562SOL     OW26546   4.009   3.385  11.229 -0.8442  0.1931 -0.3518
 6562SOL    HW126547   3.933   3.405  11.174 -0.0996  1.5334 -0.9359
 6562SOL    HW226548   4.025   3.292  11.216 -2.3647 -0.1085 -0.2272
 6563SOL     OW26549   1.180   1.863  10.707  0.4478 -0.4696 -0.2647
 6563SOL    HW126550   1.211   1.790  10.654  0.3353 -0.8085  0.1295
 6563SOL    HW226551   1.178   1.829  10.796  1.8543  0.4848  0.1654
 6564SOL     OW26552   6.990  10.179   6.301  0.9403 -0.0203 -0.8270
 6564SOL    HW126553   7.030  10.236   6.366  1.8892 -1.4956 -0.0571
 6564SOL    HW226554   6.905  10.156   6.338  0.7429  0.5290 -0.9332
 6565SOL     OW26555  11.160   1.840   6.697  0.2738  0.3571  0.1207
 6565SOL    HW126556  11.073   1.871   6.671 -0.1342 -1.4765 -0.9217
 6565SOL    HW226557  11.200   1.810   6.615  0.7407 -1.4564  0.9532
 6566SOL     OW26558  11.439   6.237   8.883  0.0481 -0.0656 -0.2333
 6566SOL    HW126559  11.357   6.281   8.859  0.2355 -0.6584 -2.1698
 6566SOL    HW226560  11.417   6.144   8.878  0.9604 -0.2441 -1.3768
 6567SOL     OW26561   7.373  12.436   2.393  0.4275  0.2521  0.0024
 6567SOL    HW126562   7.434  12.498   2.354  2.3935 -0.6216  1.5046
 6567SOL    HW226563   7.363  12.465   2.484 -3.2746  1.6857 -0.6870
 6568SOL     OW26564   9.157   1.742   0.776 -0.1231  0.3563 -0.2779
 6568SOL    HW126565   9.182   1.657   0.741 -0.1734  1.1373 -2.3320
 6568SOL    HW226566   9.089   1.722   0.841 -0.9765 -1.1120 -1.5515
 6569SOL     OW26567   9.536   3.880   9.976 -0.2454  0.1596  0.0684
 6569SOL    HW126568   9.498   3.920   9.897 -1.0112  0.8318  0.7567
 6569SOL    HW226569   9.506   3.788   9.972 -2.6995  0.8339  0.9777
 6570SOL     OW26570   0.184   4.712   5.958 -0.6963  0.1760  0.3239
 6570SOL    HW126571   0.205   4.618   5.963 -0.4449  0.1860 -0.4938
 6570SOL    HW226572   0.268   4.756   5.970 -0.8453  0.3135  0.9215
 6571SOL     OW26573  11.121   1.389  11.013  0.6264  0.4078 -0.2601
 6571SOL    HW126574  11.198   1.332  11.012  0.6724  0.4687 -0.2313
 6571SOL    HW226575  11.047   1.331  10.994  0.9971  0.8753 -3.5418
 6572SOL     OW26576   4.616   1.823  10.597  0.5667  0.2079 -0.1153
 6572SOL    HW126577   4.597   1.787  10.511  0.9509 -0.4558  0.0735
 6572SOL    HW226578   4.554   1.780  10.656  2.4153 -1.8357  0.4743
 6573SOL     OW26579  10.128   4.493   6.185 -0.4080  0.2722  0.3005
 6573SOL    HW126580  10.078   4.427   6.233  0.1189 -0.1317  0.2968
 6573SOL    HW226581  10.140   4.455   6.098  2.1144 -0.8148  1.0213
 6574SOL     OW26582  12.443   9.802   7.928 -0.1829 -0.4146 -0.1693
 6574SOL    HW126583  12.484   9.755   7.855  0.9299 -0.2072  0.3041
 6574SOL    HW226584  12.393   9.736   7.975  2.1971 -1.4076  1.0973
 6575SOL     OW26585   9.321   6.251   2.003 -0.0777  1.0126  0.3905
 6575SOL    HW126586   9.245   6.216   1.956 -1.6674  3.2424  1.0973
 6575SOL    HW226587   9.324   6.200   2.084 -0.2278  0.2794 -0.0552
 6576SOL     OW26588   2.964   5.099  12.076 -0.0843  0.3397 -0.4666
 6576SOL    HW126589   2.970   5.129  12.166 -1.7934  1.1025 -0.5695
 6576SOL    HW226590   2.970   5.003  12.082 -1.4595  0.2892  0.6216
 6577SOL     OW26591   5.864   3.784   6.841 -0.1879  0.2471 -0.4225
 6577SOL    HW126592   5.813   3.716   6.886 -1.6101  1.0091 -0.8111
 6577SOL    HW226593   5.809   3.863   6.847  2.0346  1.8069  1.3529
 6578SOL     OW26594   4.251   9.303   5.307 -0.2773  0.1606 -0.2795
 6578SOL    HW126595   4.305   9.333   5.234 -0.0359 -0.4110 -0.3398
 6578SOL    HW226596   4.313   9.266   5.370 -0.5695 -0.2372 -0.2199
 6579SOL     OW26597   6.323   9.345   7.812  0.0152  0.1273  0.3318
 6579SOL    HW126598   6.278   9.269   7.774 -0.2057  0.7341 -0.6591
 6579SOL    HW226599   6.277   9.420   7.775  1.4011  0.7602 -0.1434
 6580SOL     OW26600   0.081   8.267   0.195  0.6112 -0.2345 -0.3867
 6580SOL    HW126601   0.043   8.344   0.238  1.0354  0.4592 -1.2231
 6580SOL    HW226602   0.005   8.214   0.172  0.2501  0.3293 -0.5373
 6581SOL     OW26603   2.078   6.166   8.417 -0.1314 -0.5239 -0.5026
 6581SOL    HW126604   2.029   6.108   8.475  1.5542 -0.7233  0.8253
 6581SOL    HW226605   2.011   6.214   8.369 -1.6327 -0.4680  1.4995
 6582SOL     OW26606   1.804   0.887   9.451  0.2700 -0.1296  0.2511
 6582SOL    HW126607   1.750   0.966   9.449  1.1888  0.5057 -0.0494
 6582SOL    HW226608   1.747   0.817   9.418 -0.2943  0.5724 -0.2745
 6583SOL     OW26609   5.360  10.788   6.479  0.2687 -0.7086 -0.0985
 6583SOL    HW126610   5.450  10.788   6.514 -0.1281  0.1279  1.0087
 6583SOL    HW226611   5.305  10.790   6.557 -0.7145 -0.9429 -0.7758
 6584SOL     OW26612   9.803   8.453   7.738  0.2824 -0.2481  0.4220
 6584SOL    HW126613   9.731   8.390   7.741 -1.0863  1.2406  0.5003
 6584SOL    HW226614   9.766   8.529   7.693  2.0905  0.2528 -0.3157
 6585SOL     OW26615  10.048   5.044   2.774 -0.3421 -0.6196 -0.2412
 6585SOL    HW126616  10.019   4.976   2.713  2.4547 -1.5221 -0.7274
 6585SOL    HW226617  10.142   5.029   2.783 -0.2057  1.0931  2.3320
 6586SOL     OW26618   8.499   8.464   9.173 -0.4137 -0.0090  0.0996
 6586SOL    HW126619   8.537   8.499   9.254 -0.7533  1.0152 -0.1660
 6586SOL    HW226620   8.502   8.369   9.184  0.3601  0.0971  0.9375
 6587SOL     OW26621   3.889   4.171  11.602  0.2369  0.1366 -0.1329
 6587SOL    HW126622   3.945   4.243  11.572  0.0556  0.5886  0.5969
 6587SOL    HW226623   3.948   4.111  11.647  0.0773  0.8689  1.0952
 6588SOL     OW26624   9.076   5.454  10.906 -0.4294  0.6184 -0.4361
 6588SOL    HW126625   9.035   5.534  10.874  2.4347  1.4205 -2.5892
 6588SOL    HW226626   9.170   5.470  10.897  0.3218 -2.4347  0.5270
 6589SOL     OW26627   2.944   0.163   3.084 -0.4360  0.3115 -0.4408
 6589SOL    HW126628   2.976   0.198   3.000  0.8869  0.2496  0.0233
 6589SOL    HW226629   2.977   0.073   3.086  0.6819  0.7213  0.7184
 6590SOL     OW26630  11.770   1.821   4.571 -0.1135  0.2969 -0.3522
 6590SOL    HW126631  11.850   1.852   4.613 -0.1190  0.6474 -0.5976
 6590SOL    HW226632  11.742   1.894   4.516  0.3305 -0.4154 -1.5873
 6591SOL     OW26633   9.945   9.500  10.763 -0.1051  0.0034 -0.7678
 6591SOL    HW126634   9.972   9.569  10.823  1.4847 -0.4595 -0.9089
 6591SOL    HW226635   9.932   9.424  10.819 -0.7812  0.1264 -0.7500
 6592SOL     OW26636  10.620   3.438  10.878  0.4726  0.1672  0.2803
 6592SOL    HW126637  10.714   3.456  10.885  0.1634  2.9478 -1.3631
 6592SOL    HW226638  10.608   3.409  10.788 -0.2391 -0.2426  0.5057
 6593SOL     OW26639   8.586   2.789   7.097  0.5072  0.5435 -0.3328
 6593SOL    HW126640   8.662   2.731   7.100 -0.5155 -0.8861 -0.8812
 6593SOL    HW226641   8.528   2.750   7.031 -1.7163  0.2700  1.6498
 6594SOL     OW26642   6.541   9.551   8.954  0.4727  0.2468  0.1930
 6594SOL    HW126643   6.506   9.636   8.979 -1.7549 -0.8197  0.9339
 6594SOL    HW226644   6.611   9.571   8.892  2.0012  2.7220  2.4919
 6595SOL     OW26645   6.046   9.463   6.366  0.0022  0.1194 -0.4040
 6595SOL    HW126646   6.101   9.387   6.387  0.6969  1.2895  2.4950
 6595SOL    HW226647   5.963   9.426   6.336  0.0447 -1.8377  1.6993
 6596SOL     OW26648   0.050   8.272   7.312  0.1089 -0.1302 -0.3249
 6596SOL    HW126649   0.011   8.355   7.284 -1.3090 -0.6589 -0.0005
 6596SOL    HW226650   0.051   8.278   7.407  0.3711 -0.3203 -0.3172
 6597SOL     OW26651   0.660   3.881   7.622 -0.0334  0.3302 -0.1254
 6597SOL    HW126652   0.582   3.841   7.584 -0.8307  1.1219  0.6305
 6597SOL    HW226653   0.711   3.910   7.546 -0.6442  0.1218 -0.6297
 6598SOL     OW26654  11.737   7.288   0.619  0.1470 -0.2380  0.1070
 6598SOL    HW126655  11.814   7.317   0.570  0.1350 -0.1203  0.1570
 6598SOL    HW226656  11.771   7.225   0.683  0.2158 -0.1146  0.1931
 6599SOL     OW26657   8.791   5.040  12.030  0.9225  0.0111 -0.5041
 6599SOL    HW126658   8.841   4.976  11.980  1.4884  0.5660 -0.6590
 6599SOL    HW226659   8.758   4.991  12.106 -0.6569 -1.0492 -1.8142
 6600SOL     OW26660   5.424   4.589  10.578 -0.5451 -0.6290 -0.2469
 6600SOL    HW126661   5.354   4.654  10.592  0.8197  0.7930  0.2645
 6600SOL    HW226662   5.413   4.527  10.650 -0.8108  0.0162  0.2793
 6601SOL     OW26663   4.278   5.430   6.563 -0.3227 -0.0716 -0.2889
 6601SOL    HW126664   4.298   5.348   6.608  0.2140  0.5412  0.6174
 6601SOL    HW226665   4.358   5.451   6.514 -0.0316  0.4956  0.4095
 6602SOL     OW26666   4.501   8.820   0.383 -0.3000 -0.0052 -0.9467
 6602SOL    HW126667   4.481   8.727   0.395 -3.1015  0.5260 -0.6917
 6602SOL    HW226668   4.591   8.830   0.413 -0.3387 -2.4357  0.1988
 6603SOL     OW26669   8.355   7.103   4.257 -0.1530  0.1147 -0.0945
 6603SOL    HW126670   8.418   7.032   4.272 -1.3032 -0.9329 -0.0831
 6603SOL    HW226671   8.293   7.095   4.329 -0.4880  0.9327 -0.2852
 6604SOL     OW26672   0.791   2.832  11.446  0.0075  0.2417  0.0968
 6604SOL    HW126673   0.794   2.857  11.353 -0.5188  0.1953  0.0664
 6604SOL    HW226674   0.837   2.903  11.491  0.4364  0.1662 -0.2175
 6605SOL     OW26675   5.766  12.106   4.382  0.1615  0.5363  0.1339
 6605SOL    HW126676   5.835  12.081   4.443  0.0259 -1.0733 -0.3408
 6605SOL    HW226677   5.701  12.150   4.438  0.2111 -0.5705  1.1097
 6606SOL     OW26678   6.929   1.306  11.980 -0.2221  0.0067 -0.2139
 6606SOL    HW126679   6.984   1.344  12.048  0.4748 -0.2773 -0.6174
 6606SOL    HW226680   6.919   1.375  11.915  1.2265 -0.5485 -1.0548
 6607SOL     OW26681  10.948   3.698   4.242 -0.1586 -0.3433 -0.4266
 6607SOL    HW126682  10.940   3.789   4.212 -0.5043 -0.6891 -1.4370
 6607SOL    HW226683  10.913   3.699   4.331 -0.7664  0.4009 -0.6578
 6608SOL     OW26684  10.419   8.361   2.346 -0.0807  0.4745  0.0402
 6608SOL    HW126685  10.497   8.327   2.303  0.6030  2.3614 -0.3115
 6608SOL    HW226686  10.414   8.312   2.428  0.5781 -0.7521 -0.6213
 6609SOL     OW26687   9.746   4.009   1.963  0.4869 -0.0265  0.1465
 6609SOL    HW126688   9.693   3.948   2.014  0.1520  0.8760  0.9116
 6609SOL    HW226689   9.827   3.962   1.946  0.4233 -0.5245  1.1347
 6610SOL     OW26690   1.309  10.771   8.752 -0.1337  0.5883 -0.7381
 6610SOL    HW126691   1.311  10.826   8.831  1.4069 -1.4962  0.7931
 6610SOL    HW226692   1.356  10.822   8.686 -0.8944  2.1118 -0.1494
 6611SOL     OW26693   8.940   3.015  11.435 -0.5891 -0.6078 -0.1775
 6611SOL    HW126694   9.020   2.963  11.436  0.4634  0.9444  0.9443
 6611SOL    HW226695   8.968   3.103  11.459 -2.4299  0.3164 -1.1840
 6612SOL     OW26696   7.503   1.740   7.149 -0.2085 -0.7270  0.3855
 6612SOL    HW126697   7.456   1.797   7.209 -1.1576 -0.4130 -0.6308
 6612SOL    HW226698   7.583   1.787   7.128  1.3792 -1.8903  3.2617
 6613SOL     OW26699   2.248   8.002   1.426 -0.3362  0.2733 -0.2673
 6613SOL    HW126700   2.238   8.037   1.514 -0.3258  0.5487 -0.3750
 6613SOL    HW226701   2.303   8.066   1.381  0.6694 -0.4664 -0.1244
 6614SOL     OW26702   7.655   5.096  11.501 -0.3571 -0.5905 -0.3299
 6614SOL    HW126703   7.618   5.106  11.589  2.5398 -2.4746  1.2615
 6614SOL    HW226704   7.729   5.157  11.499  1.3497 -2.5653 -0.3007
 6615SOL     OW26705   9.164   9.544   3.719 -0.4367  0.4820  0.1457
 6615SOL    HW126706   9.117   9.470   3.757  0.2603 -0.0659 -0.0320
 6615SOL    HW226707   9.103   9.617   3.725  0.0731  0.7753  3.5144
 6616SOL     OW26708   9.951  10.568   5.344 -0.7822 -0.6011  0.1805
 6616SOL    HW126709   9.976  10.592   5.255  0.9497  1.0026  1.0512
 6616SOL    HW226710   9.855  10.578   5.345 -0.9249 -1.4296 -1.6909
 6617SOL     OW26711   6.611   2.047  11.059  0.2331  0.0056  0.1311
 6617SOL    HW126712   6.689   2.089  11.094  1.4104  0.1809 -2.5109
 6617SOL    HW226713   6.544   2.116  11.062  0.2648  0.0183  1.8682
 6618SOL     OW26714  12.360  10.166   5.599  0.0191  0.2959 -0.1976
 6618SOL    HW126715  12.384  10.211   5.518 -0.7923  1.9879  0.4646
 6618SOL    HW226716  12.265  10.153   5.593  0.0967 -0.4605  0.0595
 6619SOL     OW26717   1.583   7.095   7.145 -0.7733 -0.5522  0.7230
 6619SOL    HW126718   1.533   7.167   7.109 -0.1299  0.2380  1.3624
 6619SOL    HW226719   1.657   7.084   7.085 -0.1380  0.2317  1.3427
 6620SOL     OW26720  12.150   9.867   6.731  0.0902 -0.4771  0.2908
 6620SOL    HW126721  12.161   9.943   6.673  0.1423  0.7650  1.8626
 6620SOL    HW226722  12.215   9.804   6.699  2.7615  1.5998  1.1829
 6621SOL     OW26723   8.624   9.093   2.955  0.1643  0.2337 -0.0896
 6621SOL    HW126724   8.641   9.184   2.931  1.0914  0.4672  1.3160
 6621SOL    HW226725   8.669   9.042   2.887  0.4730  0.8346 -0.3462
 6622SOL     OW26726   1.702   6.497   6.198  0.0564  0.2302  0.6255
 6622SOL    HW126727   1.631   6.435   6.184  0.8141 -0.1974 -2.0733
 6622SOL    HW226728   1.672   6.554   6.268 -2.4741 -0.5838  0.2919
 6623SOL     OW26729   8.991   7.137   8.160  0.0071 -0.0846  0.0682
 6623SOL    HW126730   9.077   7.099   8.178  0.7690  1.7702  0.5930
 6623SOL    HW226731   9.004   7.231   8.171 -1.5844  0.4395 -1.9157
 6624SOL     OW26732   9.402   2.509  11.420  0.3350  0.5557  0.3516
 6624SOL    HW126733   9.407   2.538  11.328  0.3812 -0.8618 -0.1176
 6624SOL    HW226734   9.491   2.518  11.453  0.6234 -0.2264 -0.1766
 6625SOL     OW26735   8.992   1.278   2.340 -0.3733 -0.5102  0.2792
 6625SOL    HW126736   9.047   1.354   2.320 -1.3268  0.2016  0.3500
 6625SOL    HW226737   8.938   1.266   2.262  0.3426 -1.6519 -0.0784
 6626SOL     OW26738   6.480   0.971   2.707 -0.0886  0.3220  0.5017
 6626SOL    HW126739   6.487   0.889   2.657 -0.8643  1.1731 -1.1013
 6626SOL    HW226740   6.556   1.022   2.680 -1.1849  1.3115 -0.9138
 6627SOL     OW26741   6.591   0.187  10.050  0.2079  0.1151 -0.4155
 6627SOL    HW126742   6.523   0.254  10.039 -0.5293 -0.1708  1.8041
 6627SOL    HW226743   6.558   0.112  10.000 -0.8179  0.1918  0.1111
 6628SOL     OW26744   0.408   2.016   3.420 -0.1327  0.6712 -0.1685
 6628SOL    HW126745   0.321   2.043   3.450  0.1471 -0.6368  1.9999
 6628SOL    HW226746   0.404   2.026   3.324 -1.9550  2.5692  0.0282
 6629SOL     OW26747   5.337  11.340   4.902  0.1280 -0.0474  0.3387
 6629SOL    HW126748   5.351  11.387   4.985  1.7189 -0.6177  0.4207
 6629SOL    HW226749   5.365  11.251   4.920  2.2380  0.2209 -1.2954
 6630SOL     OW26750   3.617   9.892   5.109  0.1213  0.1845  0.3787
 6630SOL    HW126751   3.594   9.929   5.194 -0.9838 -1.7108  0.9465
 6630SOL    HW226752   3.713   9.885   5.111  0.1381  0.4998  1.3161
 6631SOL     OW26753  10.488   4.747   9.976 -0.9475  0.1520  0.3088
 6631SOL    HW126754  10.447   4.770   9.893 -0.2338  1.0293  0.1822
 6631SOL    HW226755  10.450   4.663   9.999 -1.0424 -0.1782 -0.9866
 6632SOL     OW26756   1.938   6.290  11.053  0.0214  0.3283  0.4069
 6632SOL    HW126757   1.923   6.247  11.137  1.2732 -1.1851 -0.0967
 6632SOL    HW226758   1.851   6.317  11.024 -0.6505 -0.6719  1.3900
 6633SOL     OW26759   7.664   8.973   3.274  0.2253 -0.5155  0.3640
 6633SOL    HW126760   7.691   9.060   3.246 -0.3994 -0.5836 -0.4669
 6633SOL    HW226761   7.646   8.983   3.368  1.7492 -0.1503  0.6425
 6634SOL     OW26762   9.116   7.314  10.871  0.1376 -0.7023 -0.2813
 6634SOL    HW126763   9.054   7.303  10.943 -0.6110  3.1826 -0.0762
 6634SOL    HW226764   9.202   7.305  10.912 -0.2978  0.0363  0.8566
 6635SOL     OW26765   1.655   4.066   9.833  0.1777 -0.3937  0.1026
 6635SOL    HW126766   1.578   4.029   9.789 -1.6601  3.0033  0.1905
 6635SOL    HW226767   1.626   4.083   9.922  1.8031 -1.0960  0.8127
 6636SOL     OW26768  12.198   0.719   1.280  0.1039 -0.0041 -0.4013
 6636SOL    HW126769  12.192   0.736   1.186  0.8586 -0.6092 -0.5685
 6636SOL    HW226770  12.151   0.793   1.321 -0.6684 -0.0061 -1.2577
 6637SOL     OW26771   2.585   7.182  11.968  0.2717 -0.2374  0.2414
 6637SOL    HW126772   2.565   7.250  11.904 -0.5963  0.5809  1.3533
 6637SOL    HW226773   2.677   7.160  11.952  0.7142  1.5472  0.1960
 6638SOL     OW26774  12.155  10.050   1.856  0.0240  0.2112  0.6022
 6638SOL    HW126775  12.224  10.108   1.825 -0.2545 -1.0267 -2.7519
 6638SOL    HW226776  12.193   9.962   1.854 -1.4275 -0.4379 -0.8020
 6639SOL     OW26777  10.305   9.163   1.433 -0.1094 -0.4132  0.7732
 6639SOL    HW126778  10.293   9.112   1.353 -0.3445 -0.9131  1.1311
 6639SOL    HW226779  10.342   9.246   1.402 -1.8300  0.0798 -0.0427
 6640SOL     OW26780   8.776   1.911   5.061 -0.1685  1.0300  0.5854
 6640SOL    HW126781   8.746   1.928   4.971 -0.2229 -1.5063  0.0488
 6640SOL    HW226782   8.832   1.986   5.082  0.3456  1.4113 -1.8062
 6641SOL     OW26783  10.608   4.940   7.269  0.8545  0.6136 -0.5249
 6641SOL    HW126784  10.621   4.940   7.175 -0.2437 -2.1055 -0.7662
 6641SOL    HW226785  10.691   4.970   7.305  2.7999 -2.1340 -2.3135
 6642SOL     OW26786   8.991   5.543   9.743  0.9439 -0.4854  0.7377
 6642SOL    HW126787   9.019   5.634   9.734 -0.9676  0.0106 -0.9358
 6642SOL    HW226788   8.925   5.546   9.812 -1.1497 -0.0031 -1.1695
 6643SOL     OW26789   7.864   2.194  11.672  0.0437  0.5244  0.4540
 6643SOL    HW126790   7.936   2.168  11.614  0.1358  0.2715  0.6794
 6643SOL    HW226791   7.836   2.279  11.639 -0.7918 -0.1989 -0.8097
 6644SOL     OW26792   6.562   5.835   9.427  0.1076  0.2297 -0.5376
 6644SOL    HW126793   6.556   5.739   9.433 -0.6364  0.2843 -0.3289
 6644SOL    HW226794   6.656   5.853   9.426  0.2930 -0.3852  1.5074
 6645SOL     OW26795   5.841   6.154  11.667  0.0157  0.2292  0.2910
 6645SOL    HW126796   5.777   6.084  11.676 -0.5095  0.6320 -0.2514
 6645SOL    HW226797   5.924   6.108  11.652 -0.3194 -0.2853 -0.0379
 6646SOL     OW26798   9.522   0.494   8.292 -0.2402  0.7684 -0.4716
 6646SOL    HW126799   9.584   0.531   8.228  0.9811 -1.4319 -0.6770
 6646SOL    HW226800   9.570   0.497   8.375  0.3368 -1.2578 -0.6934
 6647SOL     OW26801   8.085   7.268  10.372 -0.6186 -0.0666 -0.0458
 6647SOL    HW126802   8.175   7.244  10.393 -0.2554 -0.1387 -1.5506
 6647SOL    HW226803   8.093   7.336  10.306 -1.6757  1.6530  1.5059
 6648SOL     OW26804   2.148   9.074   5.142  0.4031  0.1429 -0.2220
 6648SOL    HW126805   2.191   9.052   5.059  1.4177 -0.2751  0.3998
 6648SOL    HW226806   2.139   9.169   5.140 -1.5475  0.0067 -1.7334
 6649SOL     OW26807   2.793   0.464   1.938 -0.0661 -0.1141  0.3811
 6649SOL    HW126808   2.819   0.374   1.953  1.2480  0.0953 -0.4978
 6649SOL    HW226809   2.697   0.461   1.931 -0.1635 -1.1843  1.8332
 6650SOL     OW26810  12.158   9.685   2.099  0.1849 -0.4708  0.0903
 6650SOL    HW126811  12.143   9.687   2.193 -1.5721 -1.4256 -0.1203
 6650SOL    HW226812  12.211   9.763   2.081 -0.7653  0.5956  1.6645
 6651SOL     OW26813   3.364  11.213   8.675  0.1059  0.2486  0.2256
 6651SOL    HW126814   3.363  11.163   8.756  1.1234 -1.2201 -0.6163
 6651SOL    HW226815   3.448  11.192   8.634 -0.8650 -0.0202 -1.7767
 6652SOL     OW26816  10.746   9.382   1.785  0.0263  0.0148 -0.2660
 6652SOL    HW126817  10.765   9.289   1.771 -0.2965  0.0286 -0.8236
 6652SOL    HW226818  10.684   9.383   1.858 -0.7741 -0.2865 -0.9244
 6653SOL     OW26819  10.017   8.431   6.305  0.1653  0.0789 -0.2959
 6653SOL    HW126820  10.092   8.431   6.246 -0.4331  0.3230 -1.0877
 6653SOL    HW226821   9.941   8.424   6.246 -0.4432  0.2488  0.4545
 6654SOL     OW26822   8.428  12.462   4.118  0.1871  0.0527 -0.9855
 6654SOL    HW126823   8.442  12.388   4.059 -0.6664 -2.4718  1.7704
 6654SOL    HW226824   8.335  12.482   4.110 -0.4596 -1.8242  1.0269
 6655SOL     OW26825   3.467  10.666   0.721 -0.0377 -0.4135  0.1034
 6655SOL    HW126826   3.545  10.649   0.668  1.2409 -0.4713  1.9080
 6655SOL    HW226827   3.481  10.753   0.758 -1.2135 -0.0981 -0.1372
 6656SOL     OW26828   3.821   6.429   0.283 -0.4171 -0.3328 -0.1975
 6656SOL    HW126829   3.752   6.495   0.278 -1.3076 -1.1871  0.2706
 6656SOL    HW226830   3.891   6.471   0.332 -1.1217  0.1619  0.4189
 6657SOL     OW26831   1.400   7.955  12.336 -0.4583  0.3653  0.4661
 6657SOL    HW126832   1.353   8.004  12.269 -1.2527  0.5865  1.1722
 6657SOL    HW226833   1.425   7.873  12.292 -2.3364 -0.1812  0.3363
 6658SOL     OW26834  11.635  12.126   3.221  0.1986  0.6389 -0.2752
 6658SOL    HW126835  11.653  12.048   3.273 -0.0774  0.4850 -0.4092
 6658SOL    HW226836  11.703  12.128   3.155 -0.0644  0.2574 -0.5579
 6659SOL     OW26837   8.405   8.011   2.947  0.2995 -0.3172 -0.3951
 6659SOL    HW126838   8.335   8.041   2.888  0.6519  0.4393 -0.4327
 6659SOL    HW226839   8.455   7.949   2.895 -0.1282 -0.5948 -0.4847
 6660SOL     OW26840   2.661   8.424   5.658 -0.2659  0.3642 -0.0601
 6660SOL    HW126841   2.585   8.374   5.627 -1.1875  1.6849 -0.0035
 6660SOL    HW226842   2.665   8.403   5.752 -1.3802  1.2879  0.2148
 6661SOL     OW26843   6.136   7.438  10.843 -0.3763  0.3613 -0.0572
 6661SOL    HW126844   6.166   7.353  10.875  0.0855  0.4607 -0.2131
 6661SOL    HW226845   6.213   7.476  10.800 -0.3465  1.2000  0.7077
 6662SOL     OW26846   4.253   2.924   5.721 -0.1549  0.1066  0.2506
 6662SOL    HW126847   4.170   2.909   5.675  0.4256 -0.8027 -0.5267
 6662SOL    HW226848   4.317   2.874   5.671  0.6108 -0.4134  1.7126
 6663SOL     OW26849   6.158   6.508   7.115 -0.0061  0.5522  0.4369
 6663SOL    HW126850   6.079   6.486   7.164 -0.8810 -0.4720 -1.3481
 6663SOL    HW226851   6.144   6.599   7.087  0.1397  0.8693  1.3677
 6664SOL     OW26852   8.331   9.343   9.919 -0.3872  0.1751  0.0597
 6664SOL    HW126853   8.329   9.380   9.831 -1.0170 -0.7909 -0.3486
 6664SOL    HW226854   8.239   9.333   9.943 -0.2416 -1.0334  0.1791
 6665SOL     OW26855  10.605   7.554   4.102 -0.2271 -0.3653 -0.2325
 6665SOL    HW126856  10.682   7.496   4.108  0.4354 -0.0054 -3.3739
 6665SOL    HW226857  10.599   7.595   4.188  1.1635 -2.7517  1.1109
 6666SOL     OW26858  11.971   4.098  12.072 -0.4377  0.0497 -0.3079
 6666SOL    HW126859  11.903   4.078  12.008  0.4150 -0.7740 -0.9828
 6666SOL    HW226860  12.017   4.174  12.035 -0.4506  0.0801 -0.2624
 6667SOL     OW26861   6.115   2.382   3.892  0.5819 -0.1954 -0.3488
 6667SOL    HW126862   6.053   2.440   3.936  1.3915  1.0192 -0.7633
 6667SOL    HW226863   6.075   2.366   3.806 -0.0682 -1.0026  0.0859
 6668SOL     OW26864   3.876   2.092  11.984  0.1934  0.6839  0.1405
 6668SOL    HW126865   3.788   2.113  12.015 -0.2575  0.1111 -0.7110
 6668SOL    HW226866   3.890   2.001  12.011  1.3659  1.3975  2.1081
 6669SOL     OW26867   1.989   4.489   6.235 -0.3181 -0.4479 -0.4573
 6669SOL    HW126868   2.025   4.444   6.311 -1.3519 -1.5850 -0.6162
 6669SOL    HW226869   1.904   4.449   6.221 -0.8512  0.8925 -1.2247
 6670SOL     OW26870   8.729   8.640  11.819 -0.2647  0.3256 -0.1734
 6670SOL    HW126871   8.688   8.589  11.749  2.0894 -0.2061 -1.2440
 6670SOL    HW226872   8.677   8.618  11.897 -2.2311  0.0249 -1.4925
 6671SOL     OW26873   7.558  10.121  11.915 -0.0049  0.0681  0.3073
 6671SOL    HW126874   7.559  10.133  12.010 -0.2228 -0.3767  0.3644
 6671SOL    HW226875   7.515  10.200  11.882 -0.5033 -0.0721  0.6215
 6672SOL     OW26876  11.514   7.395   5.849  0.0156  0.3410  0.2301
 6672SOL    HW126877  11.452   7.413   5.920 -0.8293 -1.0182 -0.1324
 6672SOL    HW226878  11.509   7.474   5.794 -2.2100 -0.1165 -0.3447
 6673SOL     OW26879  10.636   4.490   6.452 -0.5326 -0.0462 -0.3958
 6673SOL    HW126880  10.666   4.551   6.384 -1.0890 -0.5228 -1.0901
 6673SOL    HW226881  10.541   4.488   6.441 -0.5044 -1.1966 -0.5263
 6674SOL     OW26882   6.539  10.119   1.435 -0.0094  0.5769  0.2050
 6674SOL    HW126883   6.615  10.165   1.472  0.1128  0.0837  0.5774
 6674SOL    HW226884   6.575  10.035   1.405 -0.6337 -0.1893  1.5256
 6675SOL     OW26885   4.088  10.844   7.861 -0.5127  0.1615 -0.1995
 6675SOL    HW126886   4.173  10.815   7.829  0.7878  0.2625  2.8472
 6675SOL    HW226887   4.041  10.763   7.882 -0.9348  0.1242 -1.2267
 6676SOL     OW26888  11.799  12.209  12.239  0.4373  0.7285 -0.0847
 6676SOL    HW126889  11.894  12.204  12.242  0.4268 -0.3075 -0.7320
 6676SOL    HW226890  11.780  12.291  12.193  1.0262  0.7565 -0.2829
 6677SOL     OW26891   9.896   0.647  10.769  0.1532  0.1433  0.1288
 6677SOL    HW126892   9.860   0.693  10.845  1.5504  0.1474  0.8228
 6677SOL    HW226893   9.873   0.702  10.694 -0.1436  0.7951  0.6879
 6678SOL     OW26894   1.864   6.830   5.340 -0.2346  0.0029 -0.2908
 6678SOL    HW126895   1.870   6.735   5.327  1.8768  0.0906 -0.1921
 6678SOL    HW226896   1.814   6.839   5.422  1.2367 -1.1210  0.7935
 6679SOL     OW26897   4.238   2.156   8.476 -0.1766  0.4275  0.2556
 6679SOL    HW126898   4.208   2.134   8.387 -0.0926  0.4964  0.2095
 6679SOL    HW226899   4.328   2.186   8.464 -0.4970  1.4314  0.2238
 6680SOL     OW26900   4.745   9.866   7.160 -0.2218 -0.2028 -0.0399
 6680SOL    HW126901   4.761   9.934   7.225 -3.0159 -0.7472  1.3482
 6680SOL    HW226902   4.695   9.909   7.091 -1.5203 -0.6790  0.5773
 6681SOL     OW26903  11.481   1.747   3.312 -0.1064 -0.3903 -0.1459
 6681SOL    HW126904  11.532   1.678   3.270  0.7456  0.0515  0.1476
 6681SOL    HW226905  11.540   1.822   3.315  0.4712 -0.7919  3.1708
 6682SOL     OW26906   0.169   9.920   9.882  0.3597 -0.5643 -0.5579
 6682SOL    HW126907   0.188  10.008   9.849  0.9780 -0.3747  0.2859
 6682SOL    HW226908   0.114   9.934   9.959  1.0665 -0.8665  0.0166
 6683SOL     OW26909   6.269   5.260   6.724  0.0602  0.2045  0.0826
 6683SOL    HW126910   6.235   5.188   6.671 -0.0503 -0.0821  0.5377
 6683SOL    HW226911   6.191   5.311   6.747  0.3399  1.8056 -2.1270
 6684SOL     OW26912   6.803   1.182   8.997  0.2347  0.0238 -0.2311
 6684SOL    HW126913   6.743   1.140   8.935  1.1060 -1.7305  0.0822
 6684SOL    HW226914   6.828   1.264   8.953 -0.7732 -0.1924 -1.2620
 6685SOL     OW26915  10.776  10.248   4.481 -0.1677  0.0061 -0.6072
 6685SOL    HW126916  10.761  10.174   4.421  0.1802  0.0006 -0.6857
 6685SOL    HW226917  10.844  10.217   4.541 -1.9872 -0.8194  1.1931
 6686SOL     OW26918   7.176  10.306   7.618  0.6657 -0.2962  0.5299
 6686SOL    HW126919   7.227  10.358   7.555 -1.1006  2.5688  1.2562
 6686SOL    HW226920   7.236  10.293   7.692  1.7363 -0.9342 -0.4097
 6687SOL     OW26921   1.760  11.628  12.383 -0.5006 -0.2122  0.0936
 6687SOL    HW126922   1.776  11.618  12.476 -1.1959  0.1249  0.2526
 6687SOL    HW226923   1.793  11.547  12.344  1.2200  0.2760  0.4361
 6688SOL     OW26924   1.418   4.359   0.100  0.3784  0.1954  0.3825
 6688SOL    HW126925   1.470   4.377   0.178  1.5284  1.4268 -0.6232
 6688SOL    HW226926   1.377   4.443   0.078 -1.8177 -0.6440  0.9334
 6689SOL     OW26927  12.176   1.904   0.710  0.0519 -0.3897  0.1989
 6689SOL    HW126928  12.240   1.855   0.763  0.1620 -0.3084  0.1384
 6689SOL    HW226929  12.103   1.918   0.770 -0.1423 -0.9702  0.1019
 6690SOL     OW26930  10.917   5.709   4.884 -0.3366 -0.6555  1.1511
 6690SOL    HW126931  11.013   5.708   4.887 -0.3504 -0.7002  1.6619
 6690SOL    HW226932  10.891   5.744   4.969 -0.7234  2.5206 -0.1227
 6691SOL     OW26933   3.033   8.703   0.490 -0.5578  0.2549  0.0948
 6691SOL    HW126934   3.056   8.652   0.412 -0.0992  0.6217 -0.0109
 6691SOL    HW226935   3.064   8.791   0.471  0.8908  0.0404  1.2900
 6692SOL     OW26936   5.507   0.271   3.402 -0.0417  0.0774 -0.4105
 6692SOL    HW126937   5.411   0.265   3.404  0.0201 -1.1801  1.4540
 6692SOL    HW226938   5.534   0.243   3.489  1.9744  2.0290 -0.3300
 6693SOL     OW26939   8.543   9.625   5.482 -0.7645 -0.0910 -0.2195
 6693SOL    HW126940   8.607   9.674   5.535 -0.6197 -0.7393  0.2119
 6693SOL    HW226941   8.585   9.541   5.465 -1.4279 -0.4526 -0.0968
 6694SOL     OW26942   0.209   9.625   6.263  0.1987 -0.0187 -0.0487
 6694SOL    HW126943   0.303   9.620   6.248  0.0614 -2.3399 -0.3938
 6694SOL    HW226944   0.201   9.653   6.355  1.2689 -1.6653  0.5910
 6695SOL     OW26945   6.243   9.652   6.384  0.1423  0.5094  0.0182
 6695SOL    HW126946   6.176   9.585   6.383  1.7306 -1.1418 -0.5093
 6695SOL    HW226947   6.259   9.668   6.477 -0.2990  0.2207  0.1456
 6696SOL     OW26948   0.888  10.680   2.613  0.2073 -0.2256  0.6490
 6696SOL    HW126949   0.857  10.745   2.550 -1.6818 -1.3970  0.2763
 6696SOL    HW226950   0.925  10.610   2.559  0.3013 -0.3887  0.9228
 6697SOL     OW26951   4.940   5.572   3.063  0.3988 -0.4140  0.3210
 6697SOL    HW126952   5.034   5.563   3.080  0.8293  0.3012 -1.4369
 6697SOL    HW226953   4.922   5.666   3.072  0.3367 -0.2222 -1.3672
 6698SOL     OW26954   7.125   1.469   1.286  0.6552 -0.3352 -0.3059
 6698SOL    HW126955   7.203   1.452   1.233  1.4385  0.2564  0.6173
 6698SOL    HW226956   7.157   1.522   1.359 -0.3505 -1.2342  0.8360
 6699SOL     OW26957  11.093   5.651  10.379  0.4510  0.3894 -0.5264
 6699SOL    HW126958  11.124   5.562  10.363  1.7265  0.6188  0.5243
 6699SOL    HW226959  11.001   5.649  10.351  0.7179 -0.9775 -1.4211
 6700SOL     OW26960   9.128   8.236  11.913  0.8216 -0.2521  0.4098
 6700SOL    HW126961   9.147   8.143  11.899  1.1745 -0.4943  2.3089
 6700SOL    HW226962   9.205   8.281  11.877  0.2727 -0.5934 -1.3076
 6701SOL     OW26963   5.707  12.129   2.330  0.6942  0.1303 -0.9606
 6701SOL    HW126964   5.687  12.151   2.421 -0.4850  0.8745 -1.3692
 6701SOL    HW226965   5.797  12.159   2.317  0.8841 -0.0180 -0.0375
 6702SOL     OW26966   4.988  11.537   3.714  0.2376 -0.2525 -0.1407
 6702SOL    HW126967   5.056  11.578   3.768 -0.5430  0.9477 -0.0327
 6702SOL    HW226968   4.986  11.589   3.634 -0.7480 -0.0721 -0.0142
 6703SOL     OW26969   3.845   4.411   9.951 -0.0558  0.5299 -0.3818
 6703SOL    HW126970   3.920   4.380   9.901 -1.1013  0.0073 -1.7116
 6703SOL    HW226971   3.812   4.486   9.900 -0.3008  0.9012  0.3084
 6704SOL     OW26972   0.869  10.479   6.809 -0.5136  0.6275  0.6205
 6704SOL    HW126973   0.856  10.395   6.765 -1.0996  0.8188  0.4242
 6704SOL    HW226974   0.924  10.458   6.885 -1.2231 -0.0499  0.9544
 6705SOL     OW26975  12.412   0.816   1.481 -0.0035 -0.8121  0.2702
 6705SOL    HW126976  12.394   0.844   1.391 -0.5951 -0.4331  0.5004
 6705SOL    HW226977  12.393   0.894   1.534  0.5986 -0.9541  0.6963
 6706SOL     OW26978   4.071   0.763   9.860  0.5527  0.3350 -0.4464
 6706SOL    HW126979   4.005   0.709   9.905  2.9951 -1.1334  1.6388
 6706SOL    HW226980   4.020   0.824   9.807 -2.4421 -1.3753  0.2536
 6707SOL     OW26981   6.185   2.764   4.036 -0.0578  0.3445  0.0704
 6707SOL    HW126982   6.176   2.692   3.974  0.2820  0.6405 -0.3235
 6707SOL    HW226983   6.275   2.759   4.066  0.2355  1.1473 -0.6327
 6708SOL     OW26984   7.608   2.147   0.679  0.2496 -0.3526  0.5259
 6708SOL    HW126985   7.657   2.161   0.599  0.5799 -2.3152  0.3410
 6708SOL    HW226986   7.659   2.192   0.747  0.8932 -0.1639 -0.0800
 6709SOL     OW26987  10.376   8.318   1.481  0.2635 -0.0254  0.3028
 6709SOL    HW126988  10.311   8.383   1.508  1.5816  1.9963 -1.1974
 6709SOL    HW226989  10.454   8.369   1.459  1.7152 -2.2170  0.0694
 6710SOL     OW26990   7.894   6.485  11.994  0.5196  0.6838 -0.5098
 6710SOL    HW126991   7.930   6.397  12.008  2.6028  1.1239 -2.4131
 6710SOL    HW226992   7.949   6.542  12.047 -0.6807  0.8901  0.5392
 6711SOL     OW26993   1.603  10.503  11.284  0.4428 -0.2049 -0.1618
 6711SOL    HW126994   1.581  10.575  11.343  0.8103  0.4669 -0.8271
 6711SOL    HW226995   1.521  10.481  11.240  0.8573  1.8517 -2.1626
 6712SOL     OW26996   2.430  10.353   2.184  0.1070 -0.2242  0.3065
 6712SOL    HW126997   2.511  10.310   2.212 -1.3206 -2.3950  1.3878
 6712SOL    HW226998   2.398  10.397   2.263  0.2142  0.6091 -0.1112
 6713SOL     OW26999   3.476   7.927   8.325 -0.3053 -0.1272 -0.3852
 6713SOL    HW127000   3.560   7.917   8.369 -1.7583  0.1110  2.7683
 6713SOL    HW227001   3.444   7.837   8.314  0.0487 -0.1866 -0.9627
 6714SOL     OW27002   4.395  10.038   0.705 -0.1893 -0.2771 -0.0247
 6714SOL    HW127003   4.437  10.102   0.761  0.4220 -0.4515 -0.2767
 6714SOL    HW227004   4.396   9.956   0.755 -2.9320  0.3277  1.2265
 6715SOL     OW27005   3.354   6.168   8.510  0.2717  0.0758  0.4625
 6715SOL    HW127006   3.396   6.203   8.432 -0.7062  1.9566  0.7445
 6715SOL    HW227007   3.426   6.160   8.573  0.6374  0.9951  0.1839
 6716SOL     OW27008   5.856   6.194   8.762  0.2408  0.1608  0.6531
 6716SOL    HW127009   5.835   6.128   8.827 -0.3766  0.4780  0.7920
 6716SOL    HW227010   5.862   6.276   8.812 -0.8092  0.5053  0.2556
 6717SOL     OW27011   5.469  11.219   1.420 -0.3999  0.0618  0.3234
 6717SOL    HW127012   5.463  11.237   1.513  0.6063 -0.0728  0.4282
 6717SOL    HW227013   5.398  11.270   1.380 -1.8482 -1.1026  1.3103
 6718SOL     OW27014  12.477   4.082   9.540  0.6200 -0.6803 -0.4318
 6718SOL    HW127015  12.463   4.035   9.622 -1.5623 -1.2616 -1.0715
 6718SOL    HW227016  12.524   4.020   9.484 -0.9789 -1.6227 -0.7811
 6719SOL     OW27017   3.829   3.447   5.485  0.6929 -0.3131  0.3859
 6719SOL    HW127018   3.855   3.512   5.550  3.5108  0.3598 -1.2684
 6719SOL    HW227019   3.840   3.491   5.401  1.0183 -2.3963 -0.7277
 6720SOL     OW27020  10.709  10.945  11.684  0.0399  0.6399 -0.4719
 6720SOL    HW127021  10.698  10.866  11.737 -2.2994  0.8036 -0.6049
 6720SOL    HW227022  10.635  10.944  11.624  0.6061  2.3635 -1.2658
 6721SOL     OW27023   9.562   6.051  10.511  0.2719  0.0120 -0.2483
 6721SOL    HW127024   9.653   6.054  10.483  0.9046 -0.8194  1.5289
 6721SOL    HW227025   9.532   5.965  10.484  0.2866 -0.0473 -0.0777
 6722SOL     OW27026   9.822   3.950   8.809  0.6488 -0.6576 -0.0055
 6722SOL    HW127027   9.869   3.869   8.788  1.0454 -0.5353  0.3718
 6722SOL    HW227028   9.762   3.963   8.736  2.7267  0.3473 -1.6657
 6723SOL     OW27029   4.191   0.503  11.048  0.4794 -0.7107  0.4316
 6723SOL    HW127030   4.107   0.513  11.005 -0.4775 -1.9103  1.9079
 6723SOL    HW227031   4.228   0.591  11.050 -1.3962  0.1058  1.0299
 6724SOL     OW27032   5.906   4.603  10.471 -0.5291  0.2376 -0.3110
 6724SOL    HW127033   5.829   4.659  10.481 -1.0290 -0.6140  0.8729
 6724SOL    HW227034   5.872   4.524  10.429 -0.1217  0.2019 -0.5799
 6725SOL     OW27035   0.649  11.278   6.906 -0.5957  0.4625 -0.0913
 6725SOL    HW127036   0.613  11.267   6.994 -0.1344 -0.3318  0.0087
 6725SOL    HW227037   0.743  11.262   6.917 -0.3602  1.5382 -0.5207
 6726SOL     OW27038   6.704   0.266   4.357 -0.1162  0.6910  0.1160
 6726SOL    HW127039   6.760   0.190   4.344  0.5296  1.0972  0.4594
 6726SOL    HW227040   6.637   0.258   4.289  0.2263  0.0750 -0.1597
 6727SOL     OW27041   4.470   7.885   4.802 -0.0776 -0.1326 -0.4740
 6727SOL    HW127042   4.464   7.790   4.814  2.4686 -0.4065 -0.8895
 6727SOL    HW227043   4.394   7.906   4.747 -2.0311 -1.4943  1.5166
 6728SOL     OW27044   5.294   8.720  11.361  0.1313 -0.0605 -0.0213
 6728SOL    HW127045   5.378   8.763  11.344  0.5345 -0.6315  0.5248
 6728SOL    HW227046   5.229   8.788  11.342  0.6448  0.0660 -1.5374
 6729SOL     OW27047  12.390   4.252  12.232 -0.1784 -0.0965 -0.2564
 6729SOL    HW127048  12.383   4.289  12.320 -0.9478  2.6832 -1.3924
 6729SOL    HW227049  12.468   4.294  12.195 -0.2598 -0.7083 -1.1346
 6730SOL     OW27050   8.392   7.333   8.562 -0.1480  0.0852  0.6563
 6730SOL    HW127051   8.382   7.251   8.513 -1.1037  0.6655 -0.1516
 6730SOL    HW227052   8.343   7.318   8.643 -0.7028  0.0106  0.3094
 6731SOL     OW27053   0.493   0.340   9.814  0.2885 -0.4590 -0.8736
 6731SOL    HW127054   0.438   0.264   9.831  0.4662  0.1555  3.7625
 6731SOL    HW227055   0.579   0.314   9.847 -0.0634  2.1311  2.5978
 6732SOL     OW27056   3.433   0.223   9.594  0.3837  0.0354  0.6249
 6732SOL    HW127057   3.520   0.192   9.619  0.9741 -0.1392 -1.5095
 6732SOL    HW227058   3.430   0.213   9.499 -0.7290  3.1109  0.2274
 6733SOL     OW27059   7.912   1.351  10.519  0.1268 -0.2982  0.2985
 6733SOL    HW127060   7.922   1.346  10.614 -0.9088  0.2050  0.4515
 6733SOL    HW227061   7.975   1.418  10.492 -0.6838  0.7320  0.8558
 6734SOL     OW27062   1.163   4.986   6.446  0.2133  0.5323 -0.2434
 6734SOL    HW127063   1.196   4.969   6.534 -1.7488  1.7082  0.7910
 6734SOL    HW227064   1.240   5.011   6.396  1.2156  1.0489  1.4662
 6735SOL     OW27065   1.407   3.577   5.705  0.5650 -0.2334 -0.3745
 6735SOL    HW127066   1.379   3.644   5.767  0.7157 -0.9377  0.4867
 6735SOL    HW227067   1.349   3.589   5.629  2.1913  2.4360 -1.3218
 6736SOL     OW27068   5.930   1.077   3.679  0.8427  0.0118 -0.5349
 6736SOL    HW127069   5.994   1.100   3.746  1.9566 -1.5172 -1.0348
 6736SOL    HW227070   5.890   1.161   3.656  0.7972  0.6648  1.6232
 6737SOL     OW27071   8.643   7.776   4.786 -0.1859 -0.1638 -0.1816
 6737SOL    HW127072   8.730   7.778   4.826  0.4857 -1.3667 -1.4916
 6737SOL    HW227073   8.588   7.829   4.844  1.3888  0.5268  0.7239
 6738SOL     OW27074   3.851  11.798   5.941 -0.3407  0.4248 -0.0990
 6738SOL    HW127075   3.847  11.852   6.020 -0.1698 -0.0155  0.2101
 6738SOL    HW227076   3.903  11.850   5.879  1.3437 -0.1302  0.7907
 6739SOL     OW27077   7.245  11.834   4.705 -0.7306  0.4619  0.1903
 6739SOL    HW127078   7.166  11.888   4.717 -0.8080  0.4000 -0.0359
 6739SOL    HW227079   7.310  11.895   4.669 -0.6143  0.5597  0.5631
 6740SOL     OW27080   1.768   0.845   5.049 -0.1481 -0.1045  0.8913
 6740SOL    HW127081   1.711   0.768   5.045 -1.6734  0.9660 -3.1859
 6740SOL    HW227082   1.855   0.811   5.030 -0.5065 -1.0372  0.8539
 6741SOL     OW27083  10.306   2.044   2.715 -0.3320 -0.2776  0.5228
 6741SOL    HW127084  10.351   2.000   2.643 -0.1770 -0.7488  0.8942
 6741SOL    HW227085  10.331   1.993   2.792  0.0115  0.5908  1.0034
 6742SOL     OW27086   7.153   8.233   6.971 -0.5123 -0.0712 -0.0854
 6742SOL    HW127087   7.076   8.287   6.951  0.0153  0.7955  0.1762
 6742SOL    HW227088   7.151   8.224   7.066 -0.4313 -0.2695 -0.1026
 6743SOL     OW27089   4.870   6.243   7.225  0.8109 -0.4657  0.1338
 6743SOL    HW127090   4.840   6.159   7.190  1.6138 -0.8826  0.4137
 6743SOL    HW227091   4.811   6.308   7.187  0.1533 -1.1641 -0.0503
 6744SOL     OW27092  10.897   0.156   5.847 -0.2865  0.0018  0.4820
 6744SOL    HW127093  10.861   0.069   5.832  1.4198 -0.5108 -1.1222
 6744SOL    HW227094  10.844   0.214   5.793  0.1611 -0.4632 -0.4754
 6745SOL     OW27095   6.620   6.610   6.952 -0.3193  0.5912 -0.2119
 6745SOL    HW127096   6.537   6.657   6.952 -0.3023  0.6283 -0.7238
 6745SOL    HW227097   6.611   6.546   7.022 -0.3155  1.3973  0.5486
 6746SOL     OW27098   4.009   8.949   2.691 -0.2330 -0.6187 -0.3008
 6746SOL    HW127099   4.099   8.969   2.717  0.2251 -0.3470 -1.9765
 6746SOL    HW227100   3.979   9.028   2.648 -1.0987 -0.9082 -0.2390
 6747SOL     OW27101   4.364   2.616  10.042 -0.0254  0.2265 -0.0181
 6747SOL    HW127102   4.343   2.540   9.989 -0.0827 -0.3149  0.7640
 6747SOL    HW227103   4.456   2.606  10.064  0.2134  0.8714 -0.6756
 6748SOL     OW27104   9.493   5.334  11.451 -0.0005  1.1171 -0.7214
 6748SOL    HW127105   9.550   5.312  11.377 -0.1835  1.3127 -0.9247
 6748SOL    HW227106   9.422   5.269  11.446  2.2984 -1.9392  2.0434
 6749SOL     OW27107   5.100   1.683  10.085  0.0599  0.0331  0.1211
 6749SOL    HW127108   5.177   1.738  10.068 -1.5404  1.7175 -2.2835
 6749SOL    HW227109   5.028   1.745  10.096 -1.4258 -1.5536 -0.2943
 6750SOL     OW27110   6.251  10.635   9.256  0.7819 -0.2880 -0.8376
 6750SOL    HW127111   6.268  10.721   9.293  0.3431 -0.5855  0.0827
 6750SOL    HW227112   6.158  10.621   9.269  1.0474 -1.3779  0.0994
 6751SOL     OW27113   3.412   6.952   5.605  0.3168 -0.2662 -0.0998
 6751SOL    HW127114   3.325   6.930   5.637 -0.2057 -0.4842 -1.5549
 6751SOL    HW227115   3.465   6.965   5.683 -0.8277 -0.9120  0.8078
 6752SOL     OW27116   3.573   1.671  12.430  0.0554 -0.8043 -0.0114
 6752SOL    HW127117   3.660   1.684  12.391  0.9075 -0.2227  1.9178
 6752SOL    HW227118   3.519   1.740  12.391  0.6567 -0.6959 -0.6879
 6753SOL     OW27119   0.864   2.363   2.701  0.4921 -0.3145  0.4344
 6753SOL    HW127120   0.784   2.335   2.657  0.0419 -0.2709  1.1958
 6753SOL    HW227121   0.935   2.322   2.652 -0.0361 -0.8937  0.1491
 6754SOL     OW27122   9.350   6.767   6.940  0.6016 -0.0366 -0.1361
 6754SOL    HW127123   9.361   6.769   6.845 -0.6776  0.6642 -0.2880
 6754SOL    HW227124   9.270   6.816   6.956 -0.1387 -1.5644  1.1647
 6755SOL     OW27125   1.453   7.648   1.982  0.2702 -0.0947 -0.3692
 6755SOL    HW127126   1.477   7.556   1.990  2.4474  0.5240  1.0876
 6755SOL    HW227127   1.421   7.657   1.892  3.6447 -1.5332 -1.8664
 6756SOL     OW27128   0.046  11.901   1.506 -0.3736  0.3982 -0.3365
 6756SOL    HW127129   0.125  11.874   1.460  0.2824 -0.0869  1.0171
 6756SOL    HW227130   0.008  11.969   1.451  1.2913  1.0496 -0.7557
 6757SOL     OW27131   2.146   4.749   9.129  0.4240 -0.2527 -0.4285
 6757SOL    HW127132   2.093   4.745   9.049 -1.3943 -0.8729  0.7353
 6757SOL    HW227133   2.145   4.660   9.163  3.6097 -0.6805 -1.1201
 6758SOL     OW27134   9.034  10.471  11.240  0.1778  0.0599  0.2237
 6758SOL    HW127135   8.959  10.423  11.206  0.2004  0.6697 -0.7257
 6758SOL    HW227136   9.110  10.420  11.212  0.1398 -0.4232  0.9698
 6759SOL     OW27137   1.012   9.256   1.472 -0.0761 -0.4260  0.5356
 6759SOL    HW127138   0.960   9.329   1.503 -0.7057 -1.7188  2.6904
 6759SOL    HW227139   0.964   9.178   1.499  2.5386 -1.6811  1.9862
 6760SOL     OW27140   0.252   8.569  11.900  0.1133 -0.3473 -0.2747
 6760SOL    HW127141   0.204   8.563  11.818  0.1979 -1.3111 -0.2654
 6760SOL    HW227142   0.343   8.582  11.874  0.0164  0.2956 -0.3108
 6761SOL     OW27143   4.361   0.965   9.535  0.6627  0.4591 -0.1085
 6761SOL    HW127144   4.340   0.961   9.628 -0.7876 -2.1696 -0.4455
 6761SOL    HW227145   4.283   0.932   9.491  1.7670  0.4512 -2.1887
 6762SOL     OW27146   5.104  11.556   4.911  0.4998 -0.1291  0.2488
 6762SOL    HW127147   5.144  11.473   4.937  0.3321 -0.2421  0.1407
 6762SOL    HW227148   5.054  11.584   4.989 -1.7185 -1.4888 -0.6087
 6763SOL     OW27149   2.819   5.911   8.737 -0.2249 -0.1523 -0.2448
 6763SOL    HW127150   2.850   5.844   8.797  0.6054  0.6210  0.2046
 6763SOL    HW227151   2.870   5.898   8.657  0.2770  0.2559  0.0122
 6764SOL     OW27152   6.917   9.384   8.725 -0.5646  0.6223  0.2890
 6764SOL    HW127153   6.990   9.375   8.664 -1.2554 -1.3747 -0.3093
 6764SOL    HW227154   6.842   9.345   8.679 -0.9561 -1.6649  2.6670
 6765SOL     OW27155   6.147  10.634   7.520  0.1864 -0.5667  0.0681
 6765SOL    HW127156   6.216  10.696   7.543  1.6366 -1.6136 -1.2718
 6765SOL    HW227157   6.152  10.566   7.588 -0.0981 -0.2295  0.4325
 6766SOL     OW27158   5.140   1.346   8.663  0.1962  0.1479  0.1370
 6766SOL    HW127159   5.054   1.334   8.624 -1.1927  1.9287  2.3793
 6766SOL    HW227160   5.148   1.274   8.726  0.1249  0.2511  0.2649
 6767SOL     OW27161   1.081  12.338   3.625  0.8745 -0.4633 -0.0898
 6767SOL    HW127162   1.023  12.410   3.647  0.1055 -1.2287  0.4861
 6767SOL    HW227163   1.167  12.365   3.657  0.6980  0.3940 -0.3311
 6768SOL     OW27164   4.876   7.809   9.652  0.2474 -0.2434 -0.2826
 6768SOL    HW127165   4.820   7.854   9.715  0.3997  0.2618 -0.5100
 6768SOL    HW227166   4.919   7.741   9.704 -0.5183 -0.5927 -0.0910
 6769SOL     OW27167   1.043   6.300   5.645 -0.4712 -0.2143  0.7773
 6769SOL    HW127168   0.958   6.324   5.607  0.3351  0.1945 -0.8728
 6769SOL    HW227169   1.078   6.383   5.678 -0.5036 -0.2896  0.9973
 6770SOL     OW27170   4.211   0.578   8.595  0.2695 -0.0663 -0.7504
 6770SOL    HW127171   4.251   0.574   8.508  0.5537  1.6336 -0.7426
 6770SOL    HW227172   4.124   0.615   8.580  0.4723  0.6162 -0.2818
 6771SOL     OW27173  10.033  10.260   5.031 -0.1951 -0.0100  0.4300
 6771SOL    HW127174   9.942  10.239   5.053 -0.9818  2.0423 -0.5870
 6771SOL    HW227175  10.073  10.176   5.011 -2.0860 -0.8912  0.1355
 6772SOL     OW27176   4.511   2.722   6.498 -0.2567  0.0650  0.0409
 6772SOL    HW127177   4.444   2.774   6.454 -2.0203 -1.6171  0.6090
 6772SOL    HW227178   4.561   2.681   6.427  1.4979  2.7646 -0.4357
 6773SOL     OW27179   6.870   1.728   4.156  0.8902  0.2676  0.2932
 6773SOL    HW127180   6.829   1.729   4.070  0.8400  0.5784  0.3187
 6773SOL    HW227181   6.820   1.792   4.207  0.5577 -0.3355  0.7253
 6774SOL     OW27182   5.361   3.267   2.282  0.1721  0.1821  0.0203
 6774SOL    HW127183   5.433   3.241   2.225  0.1287 -2.9837  1.2088
 6774SOL    HW227184   5.398   3.263   2.370 -1.1880 -0.5355  0.5812
 6775SOL     OW27185   2.018   6.487   4.866 -0.2243  0.5332  0.1242
 6775SOL    HW127186   1.984   6.500   4.954 -0.4417  3.2570 -0.2628
 6775SOL    HW227187   1.972   6.552   4.813  0.3260 -0.6411 -1.8908
 6776SOL     OW27188  11.355   7.193   8.500 -0.2681 -0.3069  0.3764
 6776SOL    HW127189  11.312   7.132   8.440  1.5403 -1.3841  0.0912
 6776SOL    HW227190  11.401   7.255   8.443 -1.8728  1.2174  0.6672
 6777SOL     OW27191   5.808  10.650   2.394 -0.3183  0.0897  0.3465
 6777SOL    HW127192   5.778  10.714   2.330 -0.5727 -0.3857 -0.0184
 6777SOL    HW227193   5.874  10.598   2.348 -0.1289  0.0692  0.6313
 6778SOL     OW27194   3.182  11.224   6.297 -0.6782 -0.3311 -0.1091
 6778SOL    HW127195   3.233  11.151   6.263 -2.6000 -2.2656  0.8900
 6778SOL    HW227196   3.161  11.277   6.220  1.2405 -0.4620 -0.7693
 6779SOL     OW27197   7.365  11.580  11.410 -0.3243 -0.1359  0.1422
 6779SOL    HW127198   7.423  11.652  11.433 -0.3445 -0.0681 -0.0211
 6779SOL    HW227199   7.350  11.534  11.493  0.7476 -0.7260  0.0226
 6780SOL     OW27200   6.367  11.296   8.469 -0.2144 -0.3297 -0.3596
 6780SOL    HW127201   6.297  11.294   8.534 -1.6518  0.0580 -1.8177
 6780SOL    HW227202   6.420  11.219   8.489 -0.8327 -0.4294  1.0274
 6781SOL     OW27203   5.203  10.473  11.443  0.1987 -0.5477 -0.4344
 6781SOL    HW127204   5.220  10.386  11.478 -2.2342 -1.1250 -0.5490
 6781SOL    HW227205   5.117  10.497  11.477  0.3218  1.3579 -1.3043
 6782SOL     OW27206   4.603   7.868   9.480  0.0929  0.2944 -0.0435
 6782SOL    HW127207   4.609   7.859   9.575 -0.8315  0.0154 -0.0055
 6782SOL    HW227208   4.674   7.814   9.446  0.4372  0.4058  0.4861
 6783SOL     OW27209   2.614  12.003   9.981  0.0503 -0.6219 -0.7688
 6783SOL    HW127210   2.608  11.936   9.913  0.8451 -0.7838 -0.6863
 6783SOL    HW227211   2.558  12.074   9.949  0.5924 -0.5973 -1.7067
 6784SOL     OW27212   3.267   7.450   3.517  0.4796 -0.6746 -0.2404
 6784SOL    HW127213   3.188   7.432   3.568 -0.1607 -0.7318 -1.2397
 6784SOL    HW227214   3.310   7.522   3.565  0.6056 -1.6198  1.1221
 6785SOL     OW27215   0.879   4.641   6.285 -0.0772  0.0869 -0.1119
 6785SOL    HW127216   0.958   4.653   6.232  0.3240  0.2334  0.4978
 6785SOL    HW227217   0.873   4.722   6.337 -0.2190 -0.2261  0.3660
 6786SOL     OW27218   4.781   1.964  10.364  1.2205 -0.1074 -0.2016
 6786SOL    HW127219   4.691   1.992  10.377  1.4000 -0.2470  1.7101
 6786SOL    HW227220   4.824   2.040  10.324  0.0021 -0.5192 -2.4432
 6787SOL     OW27221  12.203   9.821  11.067  0.1956 -0.3996  0.0289
 6787SOL    HW127222  12.167   9.832  11.155  0.1100 -0.5275  0.0102
 6787SOL    HW227223  12.214   9.910  11.033 -0.3623 -0.3687 -0.0701
 6788SOL     OW27224   1.046   2.368  12.314  0.2154 -0.2572 -0.9297
 6788SOL    HW127225   0.971   2.318  12.282 -1.0601 -0.1754  1.6997
 6788SOL    HW227226   1.087   2.403  12.234 -1.2306 -2.0879 -2.5805
 6789SOL     OW27227   4.208   4.392   8.375  0.0553 -0.5407 -0.4739
 6789SOL    HW127228   4.120   4.398   8.337 -1.4898  2.3161  2.9391
 6789SOL    HW227229   4.266   4.431   8.310 -1.7700  0.6429 -1.4638
 6790SOL     OW27230   4.424   2.846   0.160 -0.2338 -0.2198  0.2880
 6790SOL    HW127231   4.348   2.887   0.118 -0.7706 -0.6899  0.7782
 6790SOL    HW227232   4.386   2.787   0.225  0.5784  0.7232  1.6671
 6791SOL     OW27233   6.976   9.807   9.220 -0.5800 -0.2338 -0.4411
 6791SOL    HW127234   6.923   9.729   9.229 -1.3120  0.3746  0.8208
 6791SOL    HW227235   6.915   9.875   9.192 -0.2118  0.1749 -0.2741
 6792SOL     OW27236   1.522   7.353   9.183 -0.0695  0.3462 -0.8308
 6792SOL    HW127237   1.482   7.439   9.169 -0.4910  0.1740 -0.6936
 6792SOL    HW227238   1.582   7.366   9.257 -0.5483  0.3877 -0.4485
 6793SOL     OW27239   4.240   7.831   2.620  0.5848  0.1544  0.5732
 6793SOL    HW127240   4.175   7.765   2.597  1.6972 -0.8027  0.0647
 6793SOL    HW227241   4.321   7.781   2.633  2.3499  1.6276 -3.2430
 6794SOL     OW27242   1.442   6.844   1.122  0.0683  0.3547 -0.1640
 6794SOL    HW127243   1.387   6.770   1.095 -1.8527  0.8927  1.9589
 6794SOL    HW227244   1.521   6.804   1.158 -0.9233 -0.6850  0.9179
 6795SOL     OW27245   4.971   0.786   4.391 -0.3413 -0.0706 -0.5738
 6795SOL    HW127246   4.954   0.770   4.298 -2.1680 -3.3777  0.1552
 6795SOL    HW227247   4.924   0.868   4.410  0.4665  0.9242 -2.5937
 6796SOL     OW27248   0.542  11.986   9.918 -0.3936 -0.1512  0.1893
 6796SOL    HW127249   0.476  11.917   9.928 -0.9149  0.5306  1.7622
 6796SOL    HW227250   0.494  12.067   9.932  0.7757  0.3523  1.5941
 6797SOL     OW27251   2.670   9.473   4.273 -0.5151 -0.1667 -0.3914
 6797SOL    HW127252   2.576   9.491   4.277 -0.8797 -1.7587 -0.9940
 6797SOL    HW227253   2.680   9.415   4.197  0.7384 -1.2906  0.5890
 6798SOL     OW27254   3.519   2.431   3.252 -0.3747 -0.1090  0.6227
 6798SOL    HW127255   3.485   2.352   3.295  0.5342  0.2110  1.9942
 6798SOL    HW227256   3.482   2.504   3.303 -1.8308  0.4141 -1.0943
 6799SOL     OW27257   2.213   8.729  11.167  0.2656  0.0363 -0.2275
 6799SOL    HW127258   2.287   8.678  11.198 -0.1144 -0.2306  0.2523
 6799SOL    HW227259   2.251   8.791  11.105  0.8900 -0.0810  0.0301
 6800SOL     OW27260   4.613   7.455  11.288  0.2365  0.1418 -0.1326
 6800SOL    HW127261   4.532   7.423  11.328 -0.0601  1.2359  0.1755
 6800SOL    HW227262   4.584   7.512  11.217  0.7514 -0.0909 -0.5414
 6801SOL     OW27263   7.588   7.577   1.436 -0.0401 -0.2377 -0.0078
 6801SOL    HW127264   7.527   7.582   1.362 -0.7265  1.1612  0.6103
 6801SOL    HW227265   7.532   7.560   1.512  0.3277  0.9126  0.5493
 6802SOL     OW27266   6.626   7.059   2.737 -0.2070  0.3222 -0.2037
 6802SOL    HW127267   6.551   7.000   2.732  0.6493 -0.6994 -1.9236
 6802SOL    HW227268   6.591   7.144   2.710 -1.2069  0.3913  1.2057
 6803SOL     OW27269   6.152   1.230  10.313 -0.1687 -0.3410 -0.2662
 6803SOL    HW127270   6.207   1.258  10.386  0.6029  0.4289 -1.1056
 6803SOL    HW227271   6.096   1.306  10.294 -1.5197 -1.0941  0.5344
 6804SOL     OW27272   4.549   7.873   7.822  0.4985 -0.2733 -0.2162
 6804SOL    HW127273   4.638   7.887   7.788  1.5621 -1.8750  1.6708
 6804SOL    HW227274   4.549   7.920   7.906 -0.9727  0.9541 -0.8708
 6805SOL     OW27275   2.827  11.332   6.109  0.0757 -0.1739 -0.2857
 6805SOL    HW127276   2.808  11.426   6.105  0.7844  0.0312  0.6559
 6805SOL    HW227277   2.865  11.319   6.196 -1.3666 -1.6075  0.1846
 6806SOL     OW27278   8.751   6.251  11.288 -0.1922  0.1394 -0.3262
 6806SOL    HW127279   8.761   6.343  11.264  0.8624  0.0330 -0.3058
 6806SOL    HW227280   8.691   6.216  11.222 -2.3878  1.3186  0.8956
 6807SOL     OW27281   8.673   6.845   6.035 -0.2177  0.1288 -0.1166
 6807SOL    HW127282   8.682   6.787   5.960 -0.8813 -0.0229 -0.0798
 6807SOL    HW227283   8.733   6.917   6.016 -0.6927  0.3064 -1.0034
 6808SOL     OW27284   1.750   9.986  12.190  0.3822 -0.1050  0.1209
 6808SOL    HW127285   1.804   9.945  12.257  0.3662  1.9076  1.4366
 6808SOL    HW227286   1.797   9.969  12.108  2.2333  0.3009  1.0438
 6809SOL     OW27287   3.010   8.207   5.989  0.3933  0.2442 -0.2327
 6809SOL    HW127288   3.031   8.160   5.908  2.2127 -1.0789  0.9480
 6809SOL    HW227289   3.093   8.213   6.036 -0.5879  1.1190  1.4759
 6810SOL     OW27290   3.190   5.583   2.217 -0.0503  0.0930 -0.2875
 6810SOL    HW127291   3.105   5.543   2.198  0.8600 -1.4266 -1.4664
 6810SOL    HW227292   3.191   5.592   2.312 -1.8159  0.8865 -0.2925
 6811SOL     OW27293  11.804   1.551   7.844 -0.1095  0.1316  0.0012
 6811SOL    HW127294  11.764   1.531   7.929 -0.0475 -1.0406 -0.2162
 6811SOL    HW227295  11.804   1.646   7.838 -0.5491  0.2113  1.1087
 6812SOL     OW27296   5.345   6.121   2.344  0.5748 -0.1540  0.4716
 6812SOL    HW127297   5.389   6.164   2.417  0.6544 -1.3273  1.1371
 6812SOL    HW227298   5.414   6.103   2.280  0.6768 -0.0241  0.5466
 6813SOL     OW27299   9.027  11.766   3.595 -0.3852 -0.5355 -0.2303
 6813SOL    HW127300   9.121  11.767   3.576 -0.2639 -1.6108  0.2473
 6813SOL    HW227301   8.989  11.710   3.527 -0.9196  1.0899 -1.3341
 6814SOL     OW27302   6.732   1.054   0.255 -0.3656 -0.5033  0.4954
 6814SOL    HW127303   6.664   0.988   0.241  0.1280 -1.0828  0.7738
 6814SOL    HW227304   6.765   1.073   0.168  0.5769 -1.8098  0.5384
 6815SOL     OW27305   2.974   7.695  10.552  0.0161  0.2640  0.0703
 6815SOL    HW127306   2.881   7.702  10.529 -0.2326  0.9239  1.2240
 6815SOL    HW227307   3.019   7.748  10.486 -0.2529 -1.2039 -1.3688
 6816SOL     OW27308   2.682  11.899   0.513  0.2748  0.4815 -0.4861
 6816SOL    HW127309   2.657  11.903   0.421 -0.3229 -0.6561 -0.3891
 6816SOL    HW227310   2.747  11.969   0.523  1.0030  0.0501 -1.9682
 6817SOL     OW27311   8.474   6.472  10.691 -0.0547  0.5876 -0.0571
 6817SOL    HW127312   8.446   6.538  10.627  3.5301  0.6337 -1.8229
 6817SOL    HW227313   8.481   6.521  10.773  0.9429  2.0895 -0.9721
 6818SOL     OW27314  10.081   6.528   5.993  0.2764  0.5069  0.0911
 6818SOL    HW127315  10.047   6.616   6.014  2.1179  1.3490 -0.2459
 6818SOL    HW227316  10.074   6.522   5.898  0.5471  0.4840  0.0707
 6819SOL     OW27317  11.496  11.404   9.223 -0.0263  0.3462 -0.4531
 6819SOL    HW127318  11.402  11.392   9.205 -0.1059 -1.0484  0.7030
 6819SOL    HW227319  11.500  11.479   9.282 -0.6607 -0.8213  1.1638
 6820SOL     OW27320   6.778   8.925   5.174  0.1152 -0.2196  0.2528
 6820SOL    HW127321   6.789   8.898   5.265 -0.2340 -1.0402  0.0618
 6820SOL    HW227322   6.811   8.851   5.123  1.0549  0.5623 -0.2879
 6821SOL     OW27323   4.518   0.648   0.824 -0.2530 -0.2913 -0.0682
 6821SOL    HW127324   4.573   0.596   0.765 -1.8016 -1.6746 -0.3578
 6821SOL    HW227325   4.530   0.738   0.794  0.4085 -0.7628 -1.3205
 6822SOL     OW27326   3.928   2.345   9.299  0.3438 -0.0866 -0.0716
 6822SOL    HW127327   3.944   2.322   9.390  0.4605 -2.1781 -0.5648
 6822SOL    HW227328   3.919   2.260   9.254 -1.5859  0.8691 -1.6732
 6823SOL     OW27329   5.564   5.380  12.480  0.0467  0.0764  0.3771
 6823SOL    HW127330   5.544   5.350  12.568 -0.1908 -0.8292  0.0253
 6823SOL    HW227331   5.529   5.312  12.422  2.0751 -0.4316 -0.3496
 6824SOL     OW27332   1.861   8.872   0.956  0.2436 -0.2157  0.4242
 6824SOL    HW127333   1.886   8.958   0.990  0.0654  0.2648 -0.6361
 6824SOL    HW227334   1.766   8.874   0.953  0.2667  0.1980 -1.1570
 6825SOL     OW27335   8.439   1.247  11.367 -0.1214 -0.0381 -0.1115
 6825SOL    HW127336   8.501   1.319  11.376 -0.5676  0.2139  1.0680
 6825SOL    HW227337   8.388   1.249  11.448  0.0126 -1.8318  0.0406
 6826SOL     OW27338   2.206   8.023   8.556  0.4201 -0.5360 -0.5026
 6826SOL    HW127339   2.178   8.019   8.465  1.7164  0.0967 -0.9474
 6826SOL    HW227340   2.132   8.064   8.602  0.1695  0.1055 -1.4479
 6827SOL     OW27341  12.137   5.201   6.602  0.1859  0.6930 -0.2609
 6827SOL    HW127342  12.064   5.206   6.664  1.1026 -0.8913  1.0258
 6827SOL    HW227343  12.202   5.262   6.637 -0.0935  1.3368 -0.8387
 6828SOL     OW27344   7.166   5.039   6.241 -0.2182  0.3438  0.2070
 6828SOL    HW127345   7.240   5.048   6.181  0.4029  1.9952  1.1417
 6828SOL    HW227346   7.100   4.990   6.192  1.1072 -0.2684 -1.0074
 6829SOL     OW27347   3.882  12.402   3.203  0.4869 -0.7344  0.0845
 6829SOL    HW127348   3.830  12.483   3.196 -1.6680 -2.0768 -0.4355
 6829SOL    HW227349   3.967  12.431   3.235  0.3792  1.9597 -1.7188
 6830SOL     OW27350   3.762   5.729   8.310 -0.1102  0.4834 -0.3252
 6830SOL    HW127351   3.719   5.650   8.277  0.2160  0.8925 -1.8111
 6830SOL    HW227352   3.820   5.698   8.379 -1.5609 -0.2821  0.5884
 6831SOL     OW27353   4.890   9.055  10.286  0.4034  0.0642  0.2067
 6831SOL    HW127354   4.858   9.138  10.321 -2.2881 -1.2871  1.3338
 6831SOL    HW227355   4.863   9.055  10.194 -1.0575 -0.1536  0.6073
 6832SOL     OW27356   2.986   4.524   2.544  0.9880 -0.1964  0.3106
 6832SOL    HW127357   2.980   4.503   2.450 -3.5284 -0.2577  0.3766
 6832SOL    HW227358   3.039   4.604   2.547  0.0780  0.6687 -2.5413
 6833SOL     OW27359   4.697  10.590   7.756 -0.7080  0.7360 -0.0277
 6833SOL    HW127360   4.789  10.609   7.776 -0.3646 -0.1367 -0.7264
 6833SOL    HW227361   4.649  10.665   7.791 -0.1168 -0.3571  3.5983
 6834SOL     OW27362   8.610   0.146   3.621  0.8538  0.5030  0.0453
 6834SOL    HW127363   8.545   0.075   3.624  0.3612  0.9394 -0.0248
 6834SOL    HW227364   8.636   0.151   3.529  2.6653 -1.1378  0.4206
 6835SOL     OW27365   7.781   3.924   7.873 -0.2722  0.1815 -0.2430
 6835SOL    HW127366   7.709   3.973   7.832  0.0771 -0.6676 -1.9641
 6835SOL    HW227367   7.737   3.857   7.926 -0.7363  0.4861 -0.2300
 6836SOL     OW27368   0.548  10.546   6.531  0.1823  0.0913 -0.4398
 6836SOL    HW127369   0.616  10.574   6.469  0.5030 -0.3081 -0.2771
 6836SOL    HW227370   0.522  10.459   6.500  0.6285 -0.2838  0.2027
 6837SOL     OW27371   5.861   3.337   8.500  0.2298 -0.1692  0.0383
 6837SOL    HW127372   5.941   3.373   8.538  0.5621  1.0324 -1.6474
 6837SOL    HW227373   5.790   3.386   8.542  0.4005 -0.8036  1.0899
 6838SOL     OW27374   8.195  11.683   9.762  0.2489 -0.0958 -0.0559
 6838SOL    HW127375   8.115  11.733   9.747 -1.1640 -2.6746 -1.8069
 6838SOL    HW227376   8.187  11.652   9.852  0.3709  1.3807  0.4995
 6839SOL     OW27377   7.189   7.306   0.269  0.0971  0.1693 -0.4513
 6839SOL    HW127378   7.120   7.247   0.239 -0.9152  1.5239 -0.8846
 6839SOL    HW227379   7.238   7.327   0.190  1.3687 -1.1843 -0.0658
 6840SOL     OW27380   0.430  10.866   5.810  0.2415 -0.1678 -0.1520
 6840SOL    HW127381   0.365  10.936   5.811  1.7309  1.4043 -2.4676
 6840SOL    HW227382   0.383  10.790   5.774 -0.7810  0.3850 -0.0236
 6841SOL     OW27383  11.724   4.166  11.614  0.2517 -0.1655  0.0659
 6841SOL    HW127384  11.663   4.215  11.559  0.0129 -0.2142  0.2844
 6841SOL    HW227385  11.748   4.090  11.561 -0.2744 -0.4132  0.1765
 6842SOL     OW27386   0.201   0.522   4.322  0.1766 -0.1575  0.3140
 6842SOL    HW127387   0.108   0.506   4.334 -0.1634  0.4402 -1.2052
 6842SOL    HW227388   0.208   0.551   4.231  1.6594  1.1351  0.7921
 6843SOL     OW27389   8.108  11.663  10.576 -0.2712 -0.5318 -0.2319
 6843SOL    HW127390   8.078  11.601  10.509 -3.4828 -1.4485  1.8455
 6843SOL    HW227391   8.074  11.748  10.546 -1.3250 -0.8640 -0.0121
 6844SOL     OW27392   7.085   4.521   8.165  0.2971 -0.1119  0.2516
 6844SOL    HW127393   7.116   4.584   8.231  1.5160  0.0983 -0.4881
 6844SOL    HW227394   7.082   4.572   8.084  3.1054 -1.3644 -0.7718
 6845SOL     OW27395   5.611   3.754   0.268 -0.0572 -0.1908  0.5298
 6845SOL    HW127396   5.545   3.699   0.311 -1.0602  0.7811  0.2987
 6845SOL    HW227397   5.645   3.810   0.337  0.7592 -0.8795  0.7066
 6846SOL     OW27398   6.645   3.115   4.254  0.2574  0.1360  0.1155
 6846SOL    HW127399   6.590   3.043   4.284 -0.9399 -0.6386 -3.3535
 6846SOL    HW227400   6.676   3.086   4.168 -2.6781  4.6270 -2.9352
 6847SOL     OW27401  12.149  12.181  11.015  0.1395 -0.1112  0.4685
 6847SOL    HW127402  12.116  12.111  10.959  0.4419  0.9332 -1.0793
 6847SOL    HW227403  12.244  12.167  11.018  0.2585  0.4829 -0.2370
 6848SOL     OW27404   0.302  10.124  12.370  0.1802 -0.2495 -0.0783
 6848SOL    HW127405   0.394  10.132  12.397 -0.1697 -0.4946  1.2300
 6848SOL    HW227406   0.296  10.180  12.292  1.2996  0.2148  0.1415
 6849SOL     OW27407   4.429  10.040  10.853 -0.4225  0.2522  0.6277
 6849SOL    HW127408   4.518  10.073  10.863 -0.9942  2.1522  0.0466
 6849SOL    HW227409   4.402  10.014  10.941  1.0856 -1.5260  0.6135
 6850SOL     OW27410   5.353   3.393  10.303 -0.4017  0.1541  0.1068
 6850SOL    HW127411   5.266   3.383  10.342 -1.2288 -1.2761 -1.9145
 6850SOL    HW227412   5.402   3.447  10.365 -2.0790 -0.7102  2.2864
 6851SOL     OW27413   2.627   7.124   1.704  0.4715  0.1318 -0.3960
 6851SOL    HW127414   2.709   7.078   1.725  1.6028  2.0198 -0.4543
 6851SOL    HW227415   2.637   7.210   1.745 -1.1081  0.7262 -1.1915
 6852SOL     OW27416   8.180   2.354  11.344 -0.5075  0.1986 -0.1676
 6852SOL    HW127417   8.162   2.318  11.257 -0.7505  1.5730 -0.7149
 6852SOL    HW227418   8.102   2.407  11.363 -2.0478 -2.6713  2.3688
 6853SOL     OW27419   3.903  11.084   8.897  0.2416  0.3224 -0.3469
 6853SOL    HW127420   3.841  11.119   8.961  1.4339  0.3097  0.8522
 6853SOL    HW227421   3.874  10.994   8.882  0.4548  0.0251  0.8921
 6854SOL     OW27422   9.936   5.690  12.166 -0.1014 -0.1567  0.2482
 6854SOL    HW127423   9.996   5.618  12.148 -1.5268 -0.5833 -4.0004
 6854SOL    HW227424   9.993   5.766  12.178  1.3603 -1.0848 -0.4760
 6855SOL     OW27425   0.222   9.332  12.085 -0.0495 -0.1114  0.0785
 6855SOL    HW127426   0.168   9.344  12.007 -0.1809 -0.4033  0.1223
 6855SOL    HW227427   0.306   9.300  12.052  1.2834  3.4215 -0.3062
 6856SOL     OW27428   8.718   5.668  12.036  0.2494 -0.0607 -0.1070
 6856SOL    HW127429   8.663   5.733  12.080 -1.8086 -2.3600  0.9484
 6856SOL    HW227430   8.702   5.587  12.084  1.1953 -1.7912 -2.5334
 6857SOL     OW27431   5.349   5.943   5.278 -0.0920  0.0064  0.0434
 6857SOL    HW127432   5.398   5.880   5.226  0.7911 -2.3012  3.3446
 6857SOL    HW227433   5.417   5.992   5.325 -0.8529 -0.2430  1.4327
 6858SOL     OW27434   0.160  11.462  11.682 -0.2849 -0.4353  0.4112
 6858SOL    HW127435   0.106  11.386  11.661 -0.4181 -0.3190  0.3315
 6858SOL    HW227436   0.098  11.535  11.688 -0.2247 -0.4215  0.9885
 6859SOL     OW27437   9.627   7.737  12.133 -0.2296  0.8820  0.3895
 6859SOL    HW127438   9.685   7.783  12.192  0.9223  0.1066 -0.0902
 6859SOL    HW227439   9.637   7.644  12.156 -0.1449  0.6097 -0.6623
 6860SOL     OW27440   0.135  12.048   9.888 -0.2067  0.3257  0.0433
 6860SOL    HW127441   0.123  12.115   9.821  0.9546 -1.0316 -1.5684
 6860SOL    HW227442   0.227  12.057   9.915 -0.1972 -0.2651  0.2177
 6861SOL     OW27443   7.907   1.780   4.760  0.0767 -0.1122  0.1177
 6861SOL    HW127444   7.817   1.766   4.730 -0.0297 -0.3808  0.5465
 6861SOL    HW227445   7.956   1.706   4.725 -0.1545 -0.7177  1.0164
 6862SOL     OW27446  11.099   9.129   3.386 -0.1390  0.1519  0.3543
 6862SOL    HW127447  11.012   9.089   3.383  0.1873 -0.6393 -2.6676
 6862SOL    HW227448  11.150   9.072   3.443 -0.9475 -0.9647 -0.0018
 6863SOL     OW27449   1.869   9.102   7.302 -0.1397  0.3809  0.2800
 6863SOL    HW127450   1.858   9.029   7.242 -0.2164 -0.0142  0.7698
 6863SOL    HW227451   1.877   9.179   7.246  3.1937 -0.3495 -0.4521
 6864SOL     OW27452  10.196   2.066  10.094 -0.6099  0.0748  0.1429
 6864SOL    HW127453  10.168   2.019  10.015 -0.9528  0.1501  0.2194
 6864SOL    HW227454  10.118   2.069  10.149 -0.9436  1.7490 -0.3511
 6865SOL     OW27455   5.644   0.259   6.129 -0.3617  0.1603 -0.1140
 6865SOL    HW127456   5.654   0.172   6.092 -3.5519  0.3972 -1.9495
 6865SOL    HW227457   5.598   0.245   6.212  0.7724  0.0463  0.5191
 6866SOL     OW27458   3.852   1.701  12.407 -0.2555 -0.2298  0.0583
 6866SOL    HW127459   3.873   1.619  12.363  0.1748  0.0667 -0.2998
 6866SOL    HW227460   3.865   1.682  12.500 -1.0768 -0.8301  0.0661
 6867SOL     OW27461   3.290   7.621   5.596 -0.3397 -0.0573  0.2809
 6867SOL    HW127462   3.277   7.645   5.688  0.2702 -0.1589  0.3945
 6867SOL    HW227463   3.280   7.526   5.594  0.9527 -0.2206  0.4827
 6868SOL     OW27464   7.909   6.562   8.554 -0.1199  0.1847  0.0304
 6868SOL    HW127465   7.844   6.539   8.488  0.7550  1.0573 -1.1821
 6868SOL    HW227466   7.868   6.632   8.604  0.0699  1.1003 -1.0674
 6869SOL     OW27467   6.975   0.670   6.512 -0.4945 -0.2958 -0.0220
 6869SOL    HW127468   6.912   0.620   6.459 -1.3163 -0.0368  0.6945
 6869SOL    HW227469   7.038   0.604   6.541 -0.5560 -0.6002 -0.5558
 6870SOL     OW27470   8.132  11.784   3.879  0.6537 -0.3759  0.5379
 6870SOL    HW127471   8.155  11.691   3.880  0.2043 -0.5507 -1.4985
 6870SOL    HW227472   8.214  11.829   3.856  0.1150 -0.6200 -2.1273
 6871SOL     OW27473   7.526   9.786   1.172 -0.1371 -0.2500 -1.1523
 6871SOL    HW127474   7.569   9.712   1.129 -0.8663 -0.6589 -1.1790
 6871SOL    HW227475   7.587   9.811   1.242  0.2947 -0.6145 -1.3882
 6872SOL     OW27476   9.982   3.953   0.405 -1.0419 -0.1182 -0.6972
 6872SOL    HW127477  10.059   4.007   0.422  0.1085 -1.6236 -0.8559
 6872SOL    HW227478   9.968   3.905   0.487 -0.5288 -1.3211 -1.2736
 6873SOL     OW27479   7.773   8.733   7.450  0.1176 -0.1940 -0.4872
 6873SOL    HW127480   7.836   8.804   7.437 -0.0968  0.2212  0.6037
 6873SOL    HW227481   7.819   8.671   7.507 -0.9609  0.8788  1.6640
 6874SOL     OW27482   5.248  12.240   7.181  0.1671 -0.0216 -0.1620
 6874SOL    HW127483   5.342  12.249   7.168  0.2084  2.3983  1.2950
 6874SOL    HW227484   5.209  12.307   7.124 -0.4317  1.0479  1.4241
 6875SOL     OW27485   4.914   9.768   1.382 -0.0149  0.2273 -0.1347
 6875SOL    HW127486   4.934   9.763   1.476 -0.8372 -0.5344  0.0133
 6875SOL    HW227487   4.833   9.818   1.377  0.1227  0.4222 -0.4620
 6876SOL     OW27488   8.838  10.593   6.841 -0.3414 -0.7688 -0.0792
 6876SOL    HW127489   8.884  10.675   6.859 -0.6205 -0.8688  1.1664
 6876SOL    HW227490   8.769  10.617   6.780 -0.8200  0.0546  0.7709
 6877SOL     OW27491   8.412  12.417   8.197 -0.4734 -0.6031 -0.3673
 6877SOL    HW127492   8.395  12.457   8.112  0.4369  0.9664  0.1604
 6877SOL    HW227493   8.330  12.428   8.246 -0.9171 -1.2937 -0.9321
 6878SOL     OW27494   3.585  11.024   4.334 -0.0215 -0.1994  0.0106
 6878SOL    HW127495   3.507  11.041   4.387  0.7324  1.4230  0.6711
 6878SOL    HW227496   3.551  10.979   4.256 -1.9185  2.0516 -0.5979
 6879SOL     OW27497  10.629   5.347   7.564 -0.7030  0.1797  0.3780
 6879SOL    HW127498  10.573   5.364   7.488  0.7305 -1.5742 -1.1831
 6879SOL    HW227499  10.587   5.273   7.609 -0.9725  0.5163  0.6868
 6880SOL     OW27500   9.112   4.231   1.449  0.5363 -0.1855  0.7035
 6880SOL    HW127501   9.162   4.187   1.517  1.6555 -0.7823 -0.4665
 6880SOL    HW227502   9.137   4.323   1.456  2.1990 -0.5300 -0.1363
 6881SOL     OW27503   2.807   1.417  11.622  0.3566 -0.3803  0.2821
 6881SOL    HW127504   2.720   1.444  11.595  0.7585  1.8624  1.0445
 6881SOL    HW227505   2.867   1.477  11.578  1.4364 -1.0162  0.8174
 6882SOL     OW27506   6.208   9.481   5.829 -0.0397  0.3145 -0.1195
 6882SOL    HW127507   6.152   9.544   5.874 -0.7695 -0.7429  0.5067
 6882SOL    HW227508   6.274   9.456   5.893 -1.0547 -1.1608  0.3947
 6883SOL     OW27509  10.177   8.714   0.712 -0.4470  0.4296 -0.1169
 6883SOL    HW127510  10.169   8.679   0.623  1.9963 -0.4859 -0.0596
 6883SOL    HW227511  10.101   8.680   0.759 -1.7275  0.8502 -1.8009
 6884SOL     OW27512   1.742   4.536   8.334 -0.2864  0.0656 -0.3682
 6884SOL    HW127513   1.734   4.496   8.247 -0.4799 -1.0744  0.1578
 6884SOL    HW227514   1.654   4.567   8.355 -0.1543  0.7262 -0.7373
 6885SOL     OW27515   5.898   4.294   0.093  0.1436  0.2888 -0.2924
 6885SOL    HW127516   5.826   4.356   0.080  0.1539  0.7173  1.4171
 6885SOL    HW227517   5.857   4.216   0.130  0.5798  0.7130  1.1515
 6886SOL     OW27518   5.141   9.030   3.684  0.3055 -0.6410 -0.0897
 6886SOL    HW127519   5.053   9.030   3.721  0.7387  0.3217  1.0046
 6886SOL    HW227520   5.139   9.096   3.615  0.1433 -0.7208 -0.1625
 6887SOL     OW27521   8.024   1.804   7.047 -0.3718 -0.0741 -0.0927
 6887SOL    HW127522   8.008   1.776   6.957  1.9110 -1.2990 -0.2020
 6887SOL    HW227523   7.996   1.730   7.100 -1.0081  0.3463  0.1658
 6888SOL     OW27524   1.627   2.773   3.422  0.0260 -0.4615 -0.0458
 6888SOL    HW127525   1.533   2.789   3.427  0.4267  2.1121  0.1719
 6888SOL    HW227526   1.642   2.746   3.332 -0.7059  0.7474 -0.5492
 6889SOL     OW27527   4.975   6.933   0.438  1.1296  0.0516 -0.0101
 6889SOL    HW127528   4.909   6.878   0.395 -0.9880  1.3651  1.3629
 6889SOL    HW227529   5.054   6.880   0.437 -0.4571 -2.5017  0.1064
 6890SOL     OW27530   3.321  10.506   2.745 -0.1591  0.0149  0.2813
 6890SOL    HW127531   3.385  10.446   2.706 -0.1800 -0.1733  0.5386
 6890SOL    HW227532   3.248  10.450   2.771 -0.2816  0.1846  0.3055
 6891SOL     OW27533   5.986   3.844   1.061  0.2046 -0.3342 -0.4623
 6891SOL    HW127534   6.043   3.905   1.015 -0.5794  0.3790 -0.5225
 6891SOL    HW227535   6.034   3.761   1.061  0.1907 -0.3979 -2.6564
 6892SOL     OW27536   1.544   3.863   2.805  0.5105  0.1889 -0.4507
 6892SOL    HW127537   1.619   3.906   2.847 -0.2070  0.6792  0.3500
 6892SOL    HW227538   1.499   3.818   2.876  0.2173 -0.3685 -0.9822
 6893SOL     OW27539   2.386   8.931   3.381 -0.4478 -0.0855 -0.3903
 6893SOL    HW127540   2.422   8.876   3.312 -1.3454 -0.9896 -0.1556
 6893SOL    HW227541   2.351   9.008   3.335  0.4908  0.1472 -0.7501
 6894SOL     OW27542   9.975   7.150   8.651 -0.1270  0.4134  0.4719
 6894SOL    HW127543   9.933   7.120   8.731 -0.9912 -0.7558 -0.3832
 6894SOL    HW227544   9.903   7.159   8.588  0.4491  1.9278 -0.0193
 6895SOL     OW27545   7.970   6.899  11.569  0.5862 -0.1787  0.0812
 6895SOL    HW127546   7.886   6.912  11.525  0.5562 -1.8770 -0.4559
 6895SOL    HW227547   7.954   6.826  11.630  1.3861  0.2282  0.8031
 6896SOL     OW27548   0.133   4.007   6.957  0.1688 -0.5179 -0.1333
 6896SOL    HW127549   0.138   3.996   6.862  0.0951 -0.2796 -0.1664
 6896SOL    HW227550   0.139   4.102   6.970  0.6182 -0.5778  0.1271
 6897SOL     OW27551   1.671   5.065   5.138  0.6793  0.1492  0.7819
 6897SOL    HW127552   1.682   4.981   5.094  1.4412  0.0932  1.0764
 6897SOL    HW227553   1.628   5.043   5.220  2.0226 -0.1221  1.4369
 6898SOL     OW27554  11.875   9.766  10.898 -0.7733 -0.0161 -0.2370
 6898SOL    HW127555  11.877   9.823  10.975 -1.0258 -0.3285  0.0047
 6898SOL    HW227556  11.846   9.681  10.932 -1.6951  0.0566 -0.8162
 6899SOL     OW27557   2.728   4.324   0.388  0.2286  0.0805 -0.3408
 6899SOL    HW127558   2.786   4.277   0.329 -0.1522 -1.1904  0.2375
 6899SOL    HW227559   2.647   4.336   0.338 -1.4478 -4.2162  0.9024
 6900SOL     OW27560   8.332  10.801   8.056  0.1779 -0.8337 -0.2635
 6900SOL    HW127561   8.391  10.729   8.080 -0.4356 -1.1936  0.2043
 6900SOL    HW227562   8.348  10.868   8.123  0.7612 -0.5180 -0.7085
 6901SOL     OW27563   5.168  11.985   5.304 -0.5809  0.2373  0.1710
 6901SOL    HW127564   5.206  12.063   5.263  0.7806  0.0651  1.0451
 6901SOL    HW227565   5.184  11.997   5.397 -1.4474 -0.5336  0.4270
 6902SOL     OW27566   2.948  10.390   8.885  0.1131  0.1973  0.2057
 6902SOL    HW127567   2.930  10.333   8.810  1.3626 -0.9451  0.7330
 6902SOL    HW227568   3.041  10.410   8.877 -0.1495  1.5770  0.4539
 6903SOL     OW27569   4.255   2.646  12.278 -0.4209 -0.4840 -0.7047
 6903SOL    HW127570   4.252   2.571  12.336  0.1021  0.9860  1.3276
 6903SOL    HW227571   4.171   2.691  12.291  0.4125  0.8396  0.3641
 6904SOL     OW27572   0.845  10.055  11.889 -0.3585  0.1356  0.2235
 6904SOL    HW127573   0.750  10.056  11.883 -0.7086  1.7976  3.6570
 6904SOL    HW227574   0.872  10.137  11.848 -0.4796  0.0793  0.0305
 6905SOL     OW27575   8.605   7.648   8.565 -0.6263 -0.3577 -0.2263
 6905SOL    HW127576   8.642   7.735   8.545  0.4482 -0.8883 -0.6339
 6905SOL    HW227577   8.673   7.587   8.538 -1.1924 -1.3172  0.4728
 6906SOL     OW27578  11.700   9.655  10.417  0.3521 -0.5429  0.4008
 6906SOL    HW127579  11.793   9.658  10.398 -0.1048  0.9321 -1.9780
 6906SOL    HW227580  11.682   9.739  10.460 -0.1856  0.0461 -0.9349
 6907SOL     OW27581   3.811   0.489   7.870 -0.2425  0.1727  0.1644
 6907SOL    HW127582   3.787   0.579   7.893 -2.8043 -0.6315  0.9769
 6907SOL    HW227583   3.840   0.450   7.953 -1.9099 -0.5043  0.4726
 6908SOL     OW27584   6.551   8.767   5.107 -0.1828 -0.2409  0.0389
 6908SOL    HW127585   6.466   8.790   5.145 -0.2425 -0.4192  0.0138
 6908SOL    HW227586   6.609   8.838   5.135 -0.3053 -0.1945  0.1786
 6909SOL     OW27587   8.429   5.960   2.409  0.3864  0.3145 -0.0471
 6909SOL    HW127588   8.350   5.953   2.355  1.2830  0.0704 -1.3775
 6909SOL    HW227589   8.481   5.883   2.386  0.3113 -0.4398  2.0532
 6910SOL     OW27590  12.303  11.347  11.858 -0.2213 -0.5740  0.3173
 6910SOL    HW127591  12.342  11.264  11.833  0.8299  0.5721 -2.1762
 6910SOL    HW227592  12.374  11.394  11.903 -0.2393 -0.3583  0.1247
 6911SOL     OW27593   6.387   9.179  10.364  0.3899 -0.0993  0.9446
 6911SOL    HW127594   6.305   9.129  10.365  0.7301 -0.6615  0.9385
 6911SOL    HW227595   6.425   9.161  10.278  0.6819 -0.1057  1.0744
 6912SOL     OW27596   4.338   1.172   4.238 -0.1413 -0.0243  0.8420
 6912SOL    HW127597   4.285   1.094   4.252 -1.9106  0.8873 -0.3763
 6912SOL    HW227598   4.312   1.232   4.308 -0.8591  0.4722  0.1681
 6913SOL     OW27599   4.023   5.774   9.836  0.3269  0.4278  0.6114
 6913SOL    HW127600   3.970   5.834   9.784 -0.4379 -0.2559  0.5718
 6913SOL    HW227601   4.090   5.743   9.776  0.1692  0.5498  0.3715
 6914SOL     OW27602   5.704   3.616   2.345  0.3204 -0.5592 -0.2494
 6914SOL    HW127603   5.646   3.692   2.338  0.7251 -0.2899 -0.7080
 6914SOL    HW227604   5.682   3.577   2.430 -0.2249 -0.2089 -0.2248
 6915SOL     OW27605   5.156   1.161   2.392 -0.5054 -0.7685 -0.5451
 6915SOL    HW127606   5.174   1.240   2.441 -0.8520 -0.4281 -0.9563
 6915SOL    HW227607   5.219   1.162   2.320  0.8888 -1.9333  0.5963
 6916SOL     OW27608   4.678   4.724  11.455 -0.1546 -0.3442  0.4687
 6916SOL    HW127609   4.670   4.682  11.370 -0.4071 -0.6123  0.6228
 6916SOL    HW227610   4.597   4.701  11.501 -0.2908  0.3000  0.5576
 6917SOL     OW27611   6.444   2.840   5.407  0.3961 -0.1056 -0.1898
 6917SOL    HW127612   6.508   2.887   5.355  3.3151 -1.9748  1.4207
 6917SOL    HW227613   6.454   2.748   5.382 -2.2385 -0.4291 -0.3760
 6918SOL     OW27614  10.962   0.738   6.876  0.8581 -0.0029  0.1939
 6918SOL    HW127615  10.977   0.757   6.969  2.0483 -1.5643  0.3479
 6918SOL    HW227616  11.044   0.701   6.845  0.8573  1.5390 -1.8045
 6919SOL     OW27617  10.606   2.106   7.097 -0.2597  0.0197  0.1625
 6919SOL    HW127618  10.562   2.166   7.159 -0.1610  1.2488 -0.9147
 6919SOL    HW227619  10.546   2.032   7.089 -0.2726 -0.1805  1.7233
 6920SOL     OW27620  10.796   1.976  11.072 -0.2518  0.3834 -0.2294
 6920SOL    HW127621  10.770   2.057  11.117  0.2332  0.5964 -0.3281
 6920SOL    HW227622  10.772   1.992  10.980 -0.0906  0.4430 -0.2615
 6921SOL     OW27623   9.197   2.567   9.800  0.1605  0.1512  0.3583
 6921SOL    HW127624   9.106   2.539   9.808 -0.0056  0.3245 -0.7825
 6921SOL    HW227625   9.192   2.652   9.755  0.7742  1.0522  1.8998
 6922SOL     OW27626   9.613   2.285   6.928 -0.2083  0.7571  0.0844
 6922SOL    HW127627   9.680   2.307   6.992  1.5522 -3.3727 -0.0087
 6922SOL    HW227628   9.536   2.261   6.980  0.0714  0.6446  0.4464
 6923SOL     OW27629  12.174   9.626   8.481 -0.2902  0.0627 -0.2437
 6923SOL    HW127630  12.227   9.568   8.535  1.3792  0.9022 -0.9225
 6923SOL    HW227631  12.164   9.581   8.398  1.7192  1.0210 -1.0695
 6924SOL     OW27632  11.938   2.075   9.934 -0.4075  0.0571  0.1408
 6924SOL    HW127633  12.012   2.130   9.907 -1.1531  0.3384 -1.4821
 6924SOL    HW227634  11.916   2.107  10.022  0.0917  1.3794 -0.1785
 6925SOL     OW27635   9.027  11.561   3.409  0.3566 -0.1059  0.4534
 6925SOL    HW127636   8.943  11.566   3.364  0.7692 -1.1330 -0.4585
 6925SOL    HW227637   9.047  11.467   3.413  3.3211  0.1907 -2.9383
 6926SOL     OW27638   7.326   2.657   1.127 -0.2765  0.3205  0.0987
 6926SOL    HW127639   7.407   2.677   1.080 -0.7723  1.5922 -0.2429
 6926SOL    HW227640   7.350   2.664   1.219  0.3055 -0.6023  0.0354
 6927SOL     OW27641   5.135   6.707   2.478  0.0079  0.6466  1.0311
 6927SOL    HW127642   5.183   6.633   2.441 -0.5145  0.8123 -0.0496
 6927SOL    HW227643   5.198   6.752   2.533  0.8383  0.3796  0.3245
 6928SOL     OW27644   1.394   4.370   4.064 -0.4761 -0.6477  0.3659
 6928SOL    HW127645   1.421   4.458   4.089 -2.7148  0.0453  0.5918
 6928SOL    HW227646   1.472   4.316   4.077  0.2083  0.7800  2.9771
 6929SOL     OW27647  11.438  10.831  10.214 -0.4791 -0.4215  0.3267
 6929SOL    HW127648  11.422  10.741  10.185 -1.0561 -0.2649  0.1554
 6929SOL    HW227649  11.485  10.821  10.296  0.7811 -0.8776 -0.4142
 6930SOL     OW27650  12.047   6.127   1.014  0.1934 -0.0245  0.5752
 6930SOL    HW127651  11.981   6.117   1.081  0.8726 -0.9715  1.1307
 6930SOL    HW227652  12.037   6.049   0.958  0.7563 -0.1256  0.6057
 6931SOL     OW27653   0.558   1.711  12.234  0.6150 -0.0123  0.0692
 6931SOL    HW127654   0.604   1.645  12.183  1.4415  1.0937 -0.6774
 6931SOL    HW227655   0.589   1.699  12.324  0.3439 -0.9631  0.0436
 6932SOL     OW27656   2.906   9.436   8.188  0.4304 -0.1310  0.2106
 6932SOL    HW127657   2.884   9.372   8.121  0.6041 -0.3183  0.3327
 6932SOL    HW227658   3.000   9.452   8.176  0.0274  1.5203 -1.0528
 6933SOL     OW27659  12.307   2.893   2.619 -0.5822  0.1279  0.6733
 6933SOL    HW127660  12.357   2.829   2.670  2.8436  1.1222 -1.0777
 6933SOL    HW227661  12.267   2.842   2.549 -2.1027 -0.6926  2.0735
 6934SOL     OW27662   4.000  11.766   7.794  0.4940 -0.1911  0.1201
 6934SOL    HW127663   4.033  11.676   7.793  0.4338 -0.2192 -1.3637
 6934SOL    HW227664   3.923  11.764   7.737 -0.3876  0.5024  1.2357
 6935SOL     OW27665   8.250  12.237   6.737 -0.8103  0.7150  0.0410
 6935SOL    HW127666   8.191  12.293   6.788 -0.2054  1.6361 -0.2567
 6935SOL    HW227667   8.308  12.197   6.802 -1.3049  0.3505  0.2632
 6936SOL     OW27668   6.662  11.751   3.187 -0.1963  0.0081  0.2124
 6936SOL    HW127669   6.706  11.683   3.137  1.3322  1.0348  0.0817
 6936SOL    HW227670   6.715  11.761   3.266  0.0919  1.5895 -0.1494
 6937SOL     OW27671  11.129  11.874  12.261  0.3659 -0.3646  0.4146
 6937SOL    HW127672  11.204  11.820  12.234  2.0484  2.1107 -0.2871
 6937SOL    HW227673  11.137  11.880  12.356 -0.0533 -1.5726  0.5444
 6938SOL     OW27674  12.389  11.796   5.925 -0.8565  0.9422  0.2222
 6938SOL    HW127675  12.396  11.889   5.906 -1.8632  1.0809  0.4565
 6938SOL    HW227676  12.479  11.766   5.934 -0.3573  1.3088 -2.5887
 6939SOL     OW27677   8.859   3.003   3.948  0.0486 -0.0141 -0.6081
 6939SOL    HW127678   8.811   3.023   3.868 -0.6290 -2.2344 -0.8228
 6939SOL    HW227679   8.894   2.915   3.934  0.6637 -0.1027  1.1976
 6940SOL     OW27680   3.114   7.418   9.938  0.5110  0.3768  0.9438
 6940SOL    HW127681   3.128   7.348   9.875  0.7777 -0.4423  1.8820
 6940SOL    HW227682   3.183   7.405  10.003  0.6454  1.6029  1.0651
 6941SOL     OW27683   1.137   4.102  10.417  0.0883  0.0746  0.0026
 6941SOL    HW127684   1.085   4.134  10.490 -0.4091 -0.9644  0.1157
 6941SOL    HW227685   1.184   4.180  10.385  0.4911  0.5059  1.5505
 6942SOL     OW27686   5.903   8.693   5.666 -0.3379 -0.2466 -0.3176
 6942SOL    HW127687   5.928   8.783   5.645  0.4644 -0.6782 -1.2871
 6942SOL    HW227688   5.880   8.654   5.582 -1.6222 -0.6909  0.2095
 6943SOL     OW27689   5.224   1.626   2.960 -0.3322 -0.0504 -0.0633
 6943SOL    HW127690   5.235   1.533   2.981  0.3440 -0.1684 -0.8738
 6943SOL    HW227691   5.137   1.632   2.922 -1.0073 -0.0732  1.3854
 6944SOL     OW27692   0.930   9.128   1.862 -0.0456  0.0574 -0.2307
 6944SOL    HW127693   0.860   9.149   1.800 -0.9543 -0.5834  0.5531
 6944SOL    HW227694   0.927   9.198   1.927  1.1586  0.9389 -1.0783
 6945SOL     OW27695   5.037  11.492   7.961  0.4870  0.0766  0.1099
 6945SOL    HW127696   5.091  11.499   8.039 -0.2842 -1.8691  0.8779
 6945SOL    HW227697   5.099  11.486   7.889  1.2796 -0.7374  0.8455
 6946SOL     OW27698   0.539   3.503   8.493 -0.0149  0.1256 -0.1726
 6946SOL    HW127699   0.618   3.459   8.524 -0.1512  0.5102  0.7324
 6946SOL    HW227700   0.489   3.434   8.449  1.0619 -0.0098 -1.2436
 6947SOL     OW27701   2.527   1.715   3.649  0.9743  0.1237 -0.0990
 6947SOL    HW127702   2.559   1.630   3.619  1.1643 -0.3997  1.4569
 6947SOL    HW227703   2.484   1.695   3.733 -2.5555  0.9579 -1.5510
 6948SOL     OW27704   7.102   4.772   2.901 -0.4306  0.2898 -0.2677
 6948SOL    HW127705   7.023   4.730   2.934 -1.5430  0.9345 -1.9850
 6948SOL    HW227706   7.173   4.730   2.949 -1.6349 -1.9201 -0.3002
 6949SOL     OW27707   9.610   9.220   2.418  0.2474  0.0512 -0.2187
 6949SOL    HW127708   9.657   9.174   2.348  1.5015  1.1310 -0.1209
 6949SOL    HW227709   9.548   9.155   2.452  1.8850 -1.5621 -0.1499
 6950SOL     OW27710   0.354   0.119   1.686  0.1669 -0.4145 -0.4483
 6950SOL    HW127711   0.315   0.049   1.739  0.5506  0.8577  1.6254
 6950SOL    HW227712   0.408   0.074   1.622  1.0270 -2.0268  1.3246
 6951SOL     OW27713   3.616  11.393  10.887 -0.1751  0.2728 -0.0066
 6951SOL    HW127714   3.526  11.397  10.919 -0.9788 -2.6671 -1.5154
 6951SOL    HW227715   3.666  11.447  10.948 -2.9628  2.2837  0.7027
 6952SOL     OW27716   4.008   2.424   0.516 -0.4104 -0.1562  0.6779
 6952SOL    HW127717   4.100   2.417   0.490 -0.0558 -0.1258  1.8425
 6952SOL    HW227718   3.998   2.515   0.544 -1.0947  0.1344 -0.4573
 6953SOL     OW27719   2.828  11.840  10.107  0.0650 -0.0158  0.3714
 6953SOL    HW127720   2.749  11.838  10.161 -0.7504  0.6494 -0.7715
 6953SOL    HW227721   2.797  11.824  10.018  1.4706 -1.8808  0.1422
 6954SOL     OW27722   9.600   8.462   6.111 -0.0738 -0.2860  0.1781
 6954SOL    HW127723   9.539   8.482   6.040 -0.7897 -0.4529  0.7295
 6954SOL    HW227724   9.659   8.538   6.114 -0.1980 -0.1590 -0.4203
 6955SOL     OW27725   2.419   2.141   2.721  0.0148 -0.3171  0.1656
 6955SOL    HW127726   2.501   2.121   2.676  0.3785 -0.0833  0.7081
 6955SOL    HW227727   2.439   2.219   2.773 -0.6352 -0.0951  0.0853
 6956SOL     OW27728   6.215   8.001   0.453  0.4123 -0.1852 -0.2980
 6956SOL    HW127729   6.256   8.000   0.540 -0.6805  0.3152  0.2353
 6956SOL    HW227730   6.139   8.058   0.462  0.8040  0.6433 -1.8415
 6957SOL     OW27731   2.234   5.704  11.654 -0.2853  0.2273  0.4906
 6957SOL    HW127732   2.276   5.724  11.737  1.2287 -0.5370 -0.0523
 6957SOL    HW227733   2.281   5.628  11.621 -0.7710  0.5877 -1.1214
 6958SOL     OW27734   3.415   4.476   2.301 -0.2259 -0.3713 -0.3043
 6958SOL    HW127735   3.424   4.520   2.386 -1.8229  0.2072 -0.4050
 6958SOL    HW227736   3.426   4.545   2.236 -3.2059  0.1062 -0.4573
 6959SOL     OW27737   0.633   1.942   4.908  0.4175 -0.2095 -0.1515
 6959SOL    HW127738   0.629   1.953   5.003  0.3986 -2.5155  0.1670
 6959SOL    HW227739   0.576   2.010   4.873 -0.6064 -0.1499  1.5605
 6960SOL     OW27740   3.289   4.794   5.627 -0.0356  0.7424 -0.3875
 6960SOL    HW127741   3.226   4.855   5.666  0.5164  1.6867 -0.9208
 6960SOL    HW227742   3.375   4.830   5.649  0.3968 -1.1534  1.3132
 6961SOL     OW27743   7.605  10.540   7.739 -0.1917  0.4664  0.1836
 6961SOL    HW127744   7.622  10.568   7.829 -0.9201 -1.4193  0.9754
 6961SOL    HW227745   7.533  10.596   7.709 -0.7638  0.3292  1.2388
 6962SOL     OW27746  12.005   3.538   8.230  0.1284 -0.7927  0.0932
 6962SOL    HW127747  12.064   3.466   8.208  0.6706 -0.9416  1.8742
 6962SOL    HW227748  12.063   3.608   8.259 -0.5136 -0.8431  1.5919
 6963SOL     OW27749   9.341   7.530  11.808  0.3703 -0.3244  0.5937
 6963SOL    HW127750   9.355   7.438  11.787 -1.3062 -0.5911  0.5016
 6963SOL    HW227751   9.355   7.577  11.726  1.7560 -0.4016  0.7570
 6964SOL     OW27752   6.408   5.058   4.847  0.6862 -0.5402 -0.3070
 6964SOL    HW127753   6.347   5.082   4.778 -0.5135 -0.3821  0.7836
 6964SOL    HW227754   6.398   4.963   4.856  0.6886 -0.5302 -0.2008
 6965SOL     OW27755   4.923  10.440  12.420  0.2369 -0.5462 -0.3841
 6965SOL    HW127756   4.923  10.362  12.366  0.7407 -0.7759 -0.0571
 6965SOL    HW227757   4.830  10.460  12.434  0.1103 -1.2184 -0.2691
 6966SOL     OW27758   6.372   1.644   4.870 -0.2469 -0.6010  0.6098
 6966SOL    HW127759   6.315   1.718   4.890 -0.1818 -0.1220 -0.8423
 6966SOL    HW227760   6.459   1.671   4.898 -0.4042 -0.5651  1.0668
 6967SOL     OW27761   4.402   6.636   9.028 -0.3757  0.2908  0.3328
 6967SOL    HW127762   4.383   6.571   8.960 -0.6020  1.3454 -0.6591
 6967SOL    HW227763   4.493   6.661   9.012 -0.7762  1.3982 -0.3810
 6968SOL     OW27764  12.380   7.762  11.212 -0.8619  0.2879 -0.0156
 6968SOL    HW127765  12.451   7.822  11.189 -0.5744 -0.5105 -1.3242
 6968SOL    HW227766  12.335   7.744  11.129 -0.7626 -1.5034  0.2691
 6969SOL     OW27767   5.963   6.929   5.984  0.0734 -0.0278  0.6228
 6969SOL    HW127768   5.994   7.012   6.020 -1.7653  0.0384  2.2171
 6969SOL    HW227769   6.042   6.884   5.956  1.2307  1.6661  1.0183
 6970SOL     OW27770   6.343   3.320   5.693 -0.0591  0.2515 -0.0669
 6970SOL    HW127771   6.275   3.385   5.675  0.9551  1.2388 -0.3833
 6970SOL    HW227772   6.383   3.349   5.774 -0.0951 -0.4151  0.1972
 6971SOL     OW27773   9.983   4.170  10.555 -0.0473  0.0722 -0.5710
 6971SOL    HW127774   9.996   4.265  10.552  1.4018 -0.1201 -0.9365
 6971SOL    HW227775  10.058   4.137  10.604 -2.1093 -0.6423  2.3097
 6972SOL     OW27776  11.067  11.341   5.235 -0.1837  0.2076  0.3709
 6972SOL    HW127777  11.082  11.249   5.213  2.3836  0.9491 -1.4950
 6972SOL    HW227778  11.118  11.355   5.315  1.2553  0.4416 -0.5451
 6973SOL     OW27779   7.862  10.920   4.235 -0.1380 -0.0244  0.2902
 6973SOL    HW127780   7.914  10.843   4.211  1.5797  1.2236 -0.1709
 6973SOL    HW227781   7.884  10.937   4.326  0.0766  0.3598  0.1686
 6974SOL     OW27782   1.560  11.690   1.926  0.0833 -0.0179 -0.1882
 6974SOL    HW127783   1.572  11.732   2.011 -1.6318 -0.9858  0.5771
 6974SOL    HW227784   1.528  11.760   1.869 -1.5301  0.0363  0.7397
 6975SOL     OW27785   9.342  11.990   2.234  0.0400 -0.1348  0.5847
 6975SOL    HW127786   9.433  11.962   2.234  0.3996  0.9574 -0.1892
 6975SOL    HW227787   9.317  11.990   2.142  0.4772  3.1961  0.3319
 6976SOL     OW27788  10.064   9.269   9.399 -0.2671  0.0441  0.4796
 6976SOL    HW127789  10.058   9.245   9.307 -0.1281  0.8145  0.2676
 6976SOL    HW227790  10.156   9.290   9.413 -0.3256  0.1347  0.7414
 6977SOL     OW27791  11.613   6.218  10.136 -0.2621  0.1239 -0.4484
 6977SOL    HW127792  11.648   6.231  10.224 -0.9172 -1.2441  0.0526
 6977SOL    HW227793  11.576   6.302  10.112 -0.5823  0.3701  0.8272
 6978SOL     OW27794   1.423   2.619   2.701 -0.2302 -0.8465  0.5472
 6978SOL    HW127795   1.382   2.681   2.641  0.9119  1.6808  2.2021
 6978SOL    HW227796   1.356   2.601   2.766 -0.0517 -0.0172  0.9675
 6979SOL     OW27797   5.347   2.512   3.217  0.5154 -0.3810  0.6279
 6979SOL    HW127798   5.285   2.582   3.237  0.6863 -0.3739  1.1340
 6979SOL    HW227799   5.303   2.460   3.149  0.9652  1.0277 -0.8088
 6980SOL     OW27800  10.024  10.329   3.449 -0.6570  0.1591 -0.0406
 6980SOL    HW127801  10.071  10.344   3.531 -1.3959 -1.6948  0.7956
 6980SOL    HW227802   9.988  10.241   3.458 -1.7489  0.3540 -1.8949
 6981SOL     OW27803  12.359   4.907   3.145 -0.4211 -0.0957 -0.5089
 6981SOL    HW127804  12.383   4.884   3.055 -0.7987 -1.9319 -0.1875
 6981SOL    HW227805  12.424   4.971   3.172  0.4675 -0.4855 -1.6596
 6982SOL     OW27806   6.141   8.932   3.045  0.0270 -0.1276 -0.2945
 6982SOL    HW127807   6.122   8.897   3.132 -1.1036  2.3701  0.5818
 6982SOL    HW227808   6.056   8.938   3.002  0.5261 -0.9123 -1.4239
 6983SOL     OW27809   9.654   5.685   9.465 -0.3560  0.2816 -0.3813
 6983SOL    HW127810   9.703   5.622   9.518 -0.9168 -1.7986 -2.1878
 6983SOL    HW227811   9.682   5.667   9.375 -1.8175  1.4791 -1.1161
 6984SOL     OW27812  10.925   1.516   8.422 -0.0889  0.1272 -0.3560
 6984SOL    HW127813  10.842   1.506   8.375  0.3838  0.8282 -1.3655
 6984SOL    HW227814  10.955   1.604   8.401  0.9334 -0.1240 -0.0420
 6985SOL     OW27815   1.577  10.532   6.085 -0.1106  0.3445 -0.0060
 6985SOL    HW127816   1.554  10.474   6.158  1.1078  1.6815  1.5227
 6985SOL    HW227817   1.494  10.550   6.041 -0.6823 -1.5517  0.2051
 6986SOL     OW27818   9.462  10.716   2.805  0.0204 -0.3097  0.2807
 6986SOL    HW127819   9.444  10.622   2.810 -0.9620 -0.0805  2.4820
 6986SOL    HW227820   9.557  10.722   2.800  0.2612 -1.4476  2.3068
 6987SOL     OW27821  12.316   7.934  11.999 -0.1487  0.3103 -0.0400
 6987SOL    HW127822  12.285   7.976  11.919  1.5241 -0.8346 -1.3611
 6987SOL    HW227823  12.399   7.977  12.019 -0.1165 -0.0172  0.5580
 6988SOL     OW27824   4.198  10.015   9.767 -0.2217  0.1230  0.0267
 6988SOL    HW127825   4.120  10.014   9.710  1.0506  2.1552 -1.9584
 6988SOL    HW227826   4.182  10.089   9.826 -0.7090 -0.8244  1.1177
 6989SOL     OW27827  10.660  11.804   6.078 -0.2464  0.2575  0.4640
 6989SOL    HW127828  10.613  11.732   6.120 -2.6548  0.6322 -1.3977
 6989SOL    HW227829  10.717  11.761   6.014  1.1632 -0.1274  1.9078
 6990SOL     OW27830  10.788   6.825   6.374 -0.1728  0.0971 -0.0894
 6990SOL    HW127831  10.855   6.884   6.339  0.2361 -1.2339 -1.6302
 6990SOL    HW227832  10.837   6.753   6.413 -0.6806 -0.6820 -0.8493
 6991SOL     OW27833   5.730   2.014   9.601 -0.2317 -0.1213  0.1956
 6991SOL    HW127834   5.760   1.927   9.629  1.6448  0.8505  1.3818
 6991SOL    HW227835   5.768   2.026   9.514  0.0918 -0.2045  0.3263
 6992SOL     OW27836   8.273  11.860   3.248 -0.1973 -0.2817 -0.3452
 6992SOL    HW127837   8.317  11.894   3.325  0.8518 -0.1620 -0.9757
 6992SOL    HW227838   8.185  11.898   3.251  0.3589  1.0226 -0.0677
 6993SOL     OW27839   5.505   0.743   9.788  0.2572  0.2197  0.5113
 6993SOL    HW127840   5.516   0.678   9.858 -0.0989 -1.9515 -1.3134
 6993SOL    HW227841   5.533   0.697   9.709  0.1876  2.4154 -0.8655
 6994SOL     OW27842   0.930   4.918   2.969  0.1605 -0.3726  0.8479
 6994SOL    HW127843   0.927   4.827   2.996 -0.1510 -0.7072 -0.2591
 6994SOL    HW227844   1.010   4.953   3.007  0.8712 -1.4236  0.3433
 6995SOL     OW27845   6.619   2.663   5.714 -0.4961  0.6851  0.3485
 6995SOL    HW127846   6.670   2.733   5.755  2.3568 -1.0698  0.0328
 6995SOL    HW227847   6.533   2.669   5.756 -0.3875  4.2479  0.4049
 6996SOL     OW27848   8.009   8.983   9.340 -0.5573  0.1865  0.1395
 6996SOL    HW127849   7.948   8.913   9.362  1.5051 -1.8668 -0.2486
 6996SOL    HW227850   7.973   9.061   9.383 -3.8829 -0.6475 -0.8641
 6997SOL     OW27851   6.620   3.664   2.087  0.4105 -0.2645  0.5026
 6997SOL    HW127852   6.557   3.661   2.160 -0.1730 -0.2517  0.0077
 6997SOL    HW227853   6.704   3.639   2.127 -0.4236 -3.3397  0.6207
 6998SOL     OW27854   2.533   4.083   5.101 -0.1975 -0.2524  0.2232
 6998SOL    HW127855   2.588   4.106   5.026 -1.0112 -0.7243 -0.5356
 6998SOL    HW227856   2.544   3.989   5.112 -0.8212 -0.3483  0.0822
 6999SOL     OW27857   3.430   0.559   0.186  0.1726  0.4796 -0.5134
 6999SOL    HW127858   3.365   0.489   0.188  1.2113 -0.4973  0.5178
 6999SOL    HW227859   3.425   0.599   0.272  0.8717  0.4460 -0.4495
 7000SOL     OW27860   0.224   8.122   1.403  0.6950  0.0145  0.2134
 7000SOL    HW127861   0.177   8.189   1.453 -1.3385  0.3623 -1.9766
 7000SOL    HW227862   0.289   8.172   1.353 -0.7703  0.4162 -1.3618
 7001SOL     OW27863   1.927   7.685   6.399  0.6389 -0.0721 -0.0163
 7001SOL    HW127864   1.952   7.593   6.394  1.4493  0.1238  0.3049
 7001SOL    HW227865   1.922   7.713   6.307  0.6995 -0.3559 -0.1061
 7002SOL     OW27866   0.125   3.590   6.597 -0.0156  0.4351 -0.4382
 7002SOL    HW127867   0.106   3.613   6.688  0.7507  1.0503 -0.4197
 7002SOL    HW227868   0.041   3.597   6.552 -0.6053 -0.8430  0.4058
 7003SOL     OW27869   9.001   6.201   1.867 -0.2744  0.5264  0.2304
 7003SOL    HW127870   9.067   6.132   1.872 -0.5958  0.2493  0.7737
 7003SOL    HW227871   8.955   6.183   1.785 -1.3297 -0.8227  1.0692
 7004SOL     OW27872   1.258   2.091   8.804 -0.3176  0.8429  0.1444
 7004SOL    HW127873   1.197   2.026   8.769 -0.9948 -0.1953  3.0312
 7004SOL    HW227874   1.212   2.174   8.795  0.3136  0.9928 -3.0328
 7005SOL     OW27875   1.908   3.907   4.752  0.0223 -0.2682  0.2864
 7005SOL    HW127876   1.835   3.904   4.690  0.7768  1.4224 -0.7442
 7005SOL    HW227877   1.867   3.918   4.837 -0.9513 -0.4691 -0.1443
 7006SOL     OW27878   1.424   1.351   9.331  0.0521  0.2268  0.3901
 7006SOL    HW127879   1.380   1.299   9.398  0.4112 -1.2222 -0.4524
 7006SOL    HW227880   1.355   1.406   9.295 -0.3437  0.3378  1.2951
 7007SOL     OW27881   1.561  12.276   1.735  0.0484  0.2498 -0.3418
 7007SOL    HW127882   1.607  12.360   1.731  2.3162 -0.9148 -0.4117
 7007SOL    HW227883   1.631  12.211   1.732 -1.6856 -1.8035 -4.1526
 7008SOL     OW27884   8.842   9.315   6.057 -0.2314  0.1305  0.3232
 7008SOL    HW127885   8.875   9.313   6.147 -3.2737 -0.0819  1.5483
 7008SOL    HW227886   8.858   9.227   6.024  0.2444 -0.0096  0.9018
 7009SOL     OW27887   1.437   4.177   1.353  0.0393  0.4105  0.0489
 7009SOL    HW127888   1.422   4.128   1.434 -0.4960 -1.9507 -1.3836
 7009SOL    HW227889   1.359   4.232   1.344  0.0536  0.6239  1.0675
 7010SOL     OW27890   5.392   4.313   4.081  0.4877 -0.6352  0.0229
 7010SOL    HW127891   5.379   4.310   3.987  0.6927  0.0355 -0.0372
 7010SOL    HW227892   5.423   4.226   4.105  0.4820 -0.7907 -0.5365
 7011SOL     OW27893   3.934   7.771   3.002 -0.2858 -0.0639  0.8671
 7011SOL    HW127894   3.932   7.866   3.012 -0.3292 -0.0224  0.4795
 7011SOL    HW227895   3.851   7.750   2.958 -0.4186 -0.3148  1.2362
 7012SOL     OW27896   2.070   6.198   1.696  0.2646 -0.0247  0.2573
 7012SOL    HW127897   2.139   6.226   1.756  0.5558  2.6890 -1.1701
 7012SOL    HW227898   1.989   6.207   1.746  0.4429  2.7173  0.2431
 7013SOL     OW27899  10.093   9.523   3.668 -0.1178  0.4443  0.6609
 7013SOL    HW127900   9.999   9.525   3.686 -0.4190  0.3203 -0.7592
 7013SOL    HW227901  10.127   9.451   3.721 -0.6832  0.9934  1.7788
 7014SOL     OW27902   4.610   3.514   6.297 -0.8346  1.0324 -0.0684
 7014SOL    HW127903   4.544   3.454   6.332 -0.3783 -0.5970 -1.8204
 7014SOL    HW227904   4.568   3.554   6.221 -0.8399  2.4011  0.6097
 7015SOL     OW27905   6.567   6.635  12.273  0.2670  0.1462  0.2164
 7015SOL    HW127906   6.540   6.546  12.249  0.6800  0.2180 -0.5661
 7015SOL    HW227907   6.500   6.665  12.335  0.3105 -0.8321  0.7585
 7016SOL     OW27908  10.149   4.202   2.528  0.1298 -0.5387 -0.0008
 7016SOL    HW127909  10.172   4.218   2.437  1.5834 -2.2337  0.0226
 7016SOL    HW227910  10.054   4.185   2.526 -0.0140  0.3110 -1.0486
 7017SOL     OW27911  10.238  12.001   7.686 -0.1707  0.0853  0.4253
 7017SOL    HW127912  10.226  12.091   7.716 -0.7222 -0.3533  1.5786
 7017SOL    HW227913  10.319  11.972   7.727  0.6352  0.4157 -0.8817
 7018SOL     OW27914   6.863   7.451  11.732 -0.1398 -0.3464 -0.1279
 7018SOL    HW127915   6.945   7.482  11.694 -0.8959  1.5163 -0.3423
 7018SOL    HW227916   6.829   7.388  11.668  0.7734 -0.6059 -0.3699
 7019SOL     OW27917   0.026   5.131   4.188  0.1249  0.1689 -0.3796
 7019SOL    HW127918   0.012   5.067   4.258  1.7393 -0.3334 -0.4644
 7019SOL    HW227919   0.069   5.205   4.231  0.4586  0.1660 -0.7024
 7020SOL     OW27920   0.677   3.829   9.693  0.1931 -0.7860  0.3321
 7020SOL    HW127921   0.728   3.748   9.697 -0.4956 -1.3001 -0.8458
 7020SOL    HW227922   0.613   3.821   9.762 -0.7265 -1.8727 -0.6082
 7021SOL     OW27923   6.183   0.539   5.301  0.7107  0.5045 -0.1404
 7021SOL    HW127924   6.195   0.633   5.286 -0.3684  0.7846  0.6763
 7021SOL    HW227925   6.125   0.533   5.377  1.2328 -0.8316  0.1904
 7022SOL     OW27926   8.971   4.453   2.677 -0.1985  0.1815  0.3773
 7022SOL    HW127927   8.956   4.540   2.638 -1.7695  0.3830  1.3563
 7022SOL    HW227928   8.945   4.392   2.608  0.2228  0.4930 -0.0653
 7023SOL     OW27929   5.470   0.883   0.846  0.0993  0.8739 -0.3418
 7023SOL    HW127930   5.426   0.905   0.764  0.6454 -0.5909 -1.0731
 7023SOL    HW227931   5.400   0.859   0.906 -0.2110 -0.1652 -1.0821
 7024SOL     OW27932   2.148   1.670   1.027 -0.4919 -0.0140  0.5389
 7024SOL    HW127933   2.195   1.592   0.996  0.2463  0.2719  0.9121
 7024SOL    HW227934   2.076   1.634   1.080  0.3462 -0.4456  1.4176
 7025SOL     OW27935  11.218   2.790   9.900  0.2029  0.0580  0.2507
 7025SOL    HW127936  11.229   2.858   9.966  0.1836  1.8901 -1.5570
 7025SOL    HW227937  11.197   2.837   9.820  0.3978 -2.0831 -1.1358
 7026SOL     OW27938   8.469   0.397   6.739  0.1267 -0.4541 -0.0515
 7026SOL    HW127939   8.454   0.381   6.646 -0.1695 -0.8389  0.0606
 7026SOL    HW227940   8.390   0.441   6.769 -0.8037 -2.4075  0.5184
 7027SOL     OW27941   2.122  11.038   2.688 -0.4231 -0.5789 -0.0343
 7027SOL    HW127942   2.102  10.945   2.705 -1.4814 -0.0685  1.7649
 7027SOL    HW227943   2.209  11.036   2.649  0.3675 -2.2541  1.6325
 7028SOL     OW27944  12.139   6.031  10.235  0.3703  0.0724  0.2149
 7028SOL    HW127945  12.186   6.106  10.198 -0.2896  0.7369  0.6997
 7028SOL    HW227946  12.205   5.961  10.240  0.7063  0.2533 -1.3113
 7029SOL     OW27947   9.178   0.895   5.383  0.2449  0.1730  0.0142
 7029SOL    HW127948   9.229   0.921   5.460  0.5697 -1.1025  0.2494
 7029SOL    HW227949   9.184   0.971   5.324  0.6043  0.8826  0.9264
 7030SOL     OW27950   6.355   7.933   6.945 -0.4821 -0.3256 -0.4666
 7030SOL    HW127951   6.322   7.933   6.855 -0.9136  1.9803 -0.3807
 7030SOL    HW227952   6.449   7.921   6.936 -0.7777 -3.0733 -0.9666
 7031SOL     OW27953   9.020  11.767   2.972  0.0277 -0.5012 -0.6344
 7031SOL    HW127954   8.939  11.818   2.974 -0.1376 -0.7297 -1.1715
 7031SOL    HW227955   9.045  11.757   3.063  0.3563  1.0005 -0.5316
 7032SOL     OW27956   4.903   3.353   0.143  0.3139  0.3920 -0.3561
 7032SOL    HW127957   4.984   3.304   0.155 -1.2990 -2.3972 -0.0301
 7032SOL    HW227958   4.872   3.371   0.231 -0.2426 -0.0597 -0.4527
 7033SOL     OW27959   7.235  11.745  12.238 -0.0158 -0.5259  0.0437
 7033SOL    HW127960   7.175  11.818  12.251  1.5749  1.0999 -1.2613
 7033SOL    HW227961   7.237  11.700  12.323  0.4065  2.1201  1.5445
 7034SOL     OW27962   2.288   7.136   6.237 -0.2634  0.1969 -0.3395
 7034SOL    HW127963   2.343   7.147   6.315 -0.2802 -0.0862 -0.2869
 7034SOL    HW227964   2.275   7.042   6.230  0.2241  0.1729 -1.0241
 7035SOL     OW27965   0.202   1.783   3.369  0.3752  0.4705  0.8580
 7035SOL    HW127966   0.154   1.864   3.386 -3.4090 -1.8215  2.5162
 7035SOL    HW227967   0.184   1.763   3.278 -1.8606 -0.2243  1.3926
 7036SOL     OW27968   4.897   3.639   2.725  0.4798  0.4327  0.7164
 7036SOL    HW127969   4.821   3.689   2.693  0.0226 -0.4519  0.3890
 7036SOL    HW227970   4.860   3.559   2.760  1.4033 -1.2875 -1.9119
 7037SOL     OW27971   3.945   2.155   8.375 -0.0907 -0.2848 -0.5839
 7037SOL    HW127972   3.966   2.062   8.385 -0.0979 -0.5532 -2.5847
 7037SOL    HW227973   3.859   2.165   8.415  0.2378 -0.9615  0.3245
 7038SOL     OW27974   9.464   8.317  11.297 -0.4620 -0.0217  0.2796
 7038SOL    HW127975   9.535   8.319  11.234 -0.4390 -0.5765  0.2859
 7038SOL    HW227976   9.386   8.338  11.246 -0.5007 -0.8563 -0.0192
 7039SOL     OW27977   2.071   7.286   3.393  0.1040 -0.0920  0.2566
 7039SOL    HW127978   2.006   7.334   3.444 -0.2016 -0.7679  0.5175
 7039SOL    HW227979   2.146   7.277   3.452  1.0344  1.9382 -0.5199
 7040SOL     OW27980  10.603   7.158   4.348 -0.2925  0.0582 -0.1822
 7040SOL    HW127981  10.523   7.206   4.368 -0.1867  1.0544 -1.9798
 7040SOL    HW227982  10.674   7.210   4.387 -0.4690 -0.8728  1.4922
 7041SOL     OW27983   1.592   9.931  10.611 -0.5326  0.0167  0.1681
 7041SOL    HW127984   1.645   9.855  10.588  0.7126  0.2977  1.9235
 7041SOL    HW227985   1.607   9.992  10.539 -0.7173 -0.9832 -0.7445
 7042SOL     OW27986   9.053   5.028   8.103  0.1411  0.2109  0.5458
 7042SOL    HW127987   9.032   4.961   8.168  0.2439 -0.3925 -0.0354
 7042SOL    HW227988   9.002   5.004   8.026  0.2559  0.7451  0.3007
 7043SOL     OW27989   5.826  12.006   5.320  0.2555 -0.3435 -0.0364
 7043SOL    HW127990   5.862  12.001   5.409 -1.1219 -1.1580  0.5018
 7043SOL    HW227991   5.745  12.055   5.329  1.1796  1.5152 -1.2457
 7044SOL     OW27992   5.300   0.456   9.196 -0.0182  0.3132  0.4072
 7044SOL    HW127993   5.284   0.551   9.196  0.7171  0.4430  0.2427
 7044SOL    HW227994   5.229   0.420   9.250 -1.2291  0.7807 -0.8008
 7045SOL     OW27995   7.625   1.258   5.797 -0.6534 -0.1459  0.6161
 7045SOL    HW127996   7.639   1.314   5.721  1.0141 -1.5218 -0.1481
 7045SOL    HW227997   7.541   1.215   5.781 -0.9006  0.4901  0.1749
 7046SOL     OW27998   3.388   0.968   2.084  0.6107 -0.2503 -0.0586
 7046SOL    HW127999   3.320   0.905   2.058 -0.0741  1.1706 -1.9644
 7046SOL    HW228000   3.357   1.052   2.050  1.7892  1.0503  1.8670
 7047SOL     OW28001   5.656   6.283   5.847  0.0135  0.1270  0.2582
 7047SOL    HW128002   5.734   6.335   5.824  1.1859 -1.4261  0.5370
 7047SOL    HW228003   5.672   6.198   5.806 -1.1230 -0.5087  1.0920
 7048SOL     OW28004   5.814  10.238   2.522  0.9527 -0.0836 -0.0597
 7048SOL    HW128005   5.781  10.250   2.433 -1.1652 -0.0316  0.6951
 7048SOL    HW228006   5.750  10.182   2.565  0.5890  1.8693  2.1485
 7049SOL     OW28007   3.019   6.915   1.465  0.3231  0.1783 -0.3393
 7049SOL    HW128008   2.928   6.945   1.468  0.7106  1.3442  0.5056
 7049SOL    HW228009   3.070   6.995   1.458  1.3557 -0.3453  0.8737
 7050SOL     OW28010   8.092   8.887   7.078  0.2760 -0.1615 -0.2396
 7050SOL    HW128011   8.095   8.977   7.112 -0.3180 -1.1104  2.5625
 7050SOL    HW228012   8.056   8.896   6.990 -2.9141  2.1263  1.1060
 7051SOL     OW28013   2.859   0.261   3.325  0.0149  0.4954  0.2391
 7051SOL    HW128014   2.896   0.269   3.237 -2.7806  2.5557 -0.9117
 7051SOL    HW228015   2.858   0.167   3.342  1.2521  0.0958 -1.6249
 7052SOL     OW28016   7.372  10.131   2.039  0.2278 -0.2401 -0.3779
 7052SOL    HW128017   7.303  10.190   2.010  0.7810  0.2187 -0.7703
 7052SOL    HW228018   7.396  10.081   1.962 -1.0497 -1.8511  0.2015
 7053SOL     OW28019   4.008   4.317   3.374  0.1818  0.5833  0.3675
 7053SOL    HW128020   4.098   4.342   3.395  0.0229  0.3260  1.4616
 7053SOL    HW228021   3.960   4.400   3.369  0.3384  0.6828  0.5038
 7054SOL     OW28022   3.403   4.494   8.026 -0.5941 -0.3310  0.2609
 7054SOL    HW128023   3.355   4.412   8.036 -0.0637 -0.4842  1.7589
 7054SOL    HW228024   3.346   4.560   8.065 -0.0852 -0.3503  1.0657
 7055SOL     OW28025   0.133   9.215   7.932  0.3595 -0.2809  0.1085
 7055SOL    HW128026   0.136   9.231   7.837  1.8324 -0.5930  0.0881
 7055SOL    HW228027   0.131   9.303   7.970  1.5116 -0.1201 -0.1778
 7056SOL     OW28028   2.483   9.162   3.888 -0.6200 -0.3861 -0.4263
 7056SOL    HW128029   2.395   9.126   3.902 -0.3780 -1.2514 -1.0654
 7056SOL    HW228030   2.515   9.116   3.810  0.8453 -0.8989  0.4536
 7057SOL     OW28031   8.556  12.158   8.463 -0.0513  0.4463 -0.4040
 7057SOL    HW128032   8.626  12.132   8.523 -1.1756 -0.5437  0.5310
 7057SOL    HW228033   8.558  12.254   8.463 -0.3317  0.4903  1.6337
 7058SOL     OW28034   1.041   7.931   8.766 -0.7344 -0.2668  0.1126
 7058SOL    HW128035   1.019   7.851   8.719 -0.2521 -0.1737 -0.2748
 7058SOL    HW228036   0.969   7.991   8.747 -1.2715 -0.7144  0.6801
 7059SOL     OW28037  10.826  10.727   8.305 -0.9722 -0.1082  0.3816
 7059SOL    HW128038  10.844  10.745   8.397 -0.8199  1.5603  0.0556
 7059SOL    HW228039  10.905  10.755   8.259 -1.2876 -0.3230 -0.3118
 7060SOL     OW28040   9.908   5.763   0.698 -0.0686  0.4601 -0.3734
 7060SOL    HW128041   9.931   5.855   0.683  0.3008  0.4477  0.0846
 7060SOL    HW228042   9.960   5.738   0.775 -0.4119 -0.0395 -0.3021
 7061SOL     OW28043   3.657  11.433   0.167  0.2025 -0.0088 -0.0801
 7061SOL    HW128044   3.733  11.398   0.213 -0.7039 -1.2326  0.5143
 7061SOL    HW228045   3.667  11.402   0.077  1.0478  0.8915 -0.3079
 7062SOL     OW28046   5.440  11.079   6.316  0.2259 -0.0010 -0.0092
 7062SOL    HW128047   5.347  11.093   6.335  0.5081 -0.4650  1.8688
 7062SOL    HW228048   5.441  11.044   6.227 -1.5793 -1.9770  0.6682
 7063SOL     OW28049  11.615   0.897   9.439  0.0968  0.1519 -0.2039
 7063SOL    HW128050  11.568   0.842   9.378 -0.9858 -0.8770  1.4682
 7063SOL    HW228051  11.560   0.898   9.518  1.1276  1.8876  0.5600
 7064SOL     OW28052   2.674   4.825   4.396  0.9786 -0.0071 -0.1967
 7064SOL    HW128053   2.763   4.834   4.363  0.4295  0.2808 -1.7037
 7064SOL    HW228054   2.672   4.876   4.477  1.7293  1.4284 -1.0521
 7065SOL     OW28055   6.626   8.483  11.287 -0.2659 -0.3125 -0.6747
 7065SOL    HW128056   6.585   8.441  11.363 -0.8543  1.8515  0.2711
 7065SOL    HW228057   6.552   8.517  11.236  0.2283  1.3862 -0.2985
 7066SOL     OW28058   3.226   9.848  10.904 -0.1421 -1.0429  0.0433
 7066SOL    HW128059   3.153   9.789  10.885 -1.5557  0.5563  0.2529
 7066SOL    HW228060   3.278   9.848  10.823  0.6942 -3.5373  0.4664
 7067SOL     OW28061   9.710   8.265   4.499  0.1161 -0.7066 -0.5396
 7067SOL    HW128062   9.796   8.307   4.496 -0.9802  1.8606  0.4272
 7067SOL    HW228063   9.719   8.197   4.565  1.0076  0.6405  0.8021
 7068SOL     OW28064   0.027  11.597   9.809  0.0766  0.0354  0.0856
 7068SOL    HW128065   0.078  11.659   9.757  0.3232  0.7284  1.1291
 7068SOL    HW228066  -0.061  11.635   9.811 -0.3765 -0.8698 -1.2371
 7069SOL     OW28067  11.735   8.857   9.687  0.1109 -0.8219 -0.0148
 7069SOL    HW128068  11.704   8.912   9.615  0.1044 -2.1959 -1.1106
 7069SOL    HW228069  11.823   8.888   9.705  0.3545 -0.8557 -1.0594
 7070SOL     OW28070   1.033   4.908   2.498  0.1104  0.5567 -0.0576
 7070SOL    HW128071   1.121   4.909   2.460  0.4786 -1.0631  0.6846
 7070SOL    HW228072   0.976   4.883   2.425  0.5097 -0.2081 -0.1145
 7071SOL     OW28073   7.189  12.307   5.745  0.2784 -0.2057  0.0914
 7071SOL    HW128074   7.160  12.233   5.693  0.3046 -0.0062 -0.2074
 7071SOL    HW228075   7.108  12.353   5.770  0.3430  0.5216 -0.9943
 7072SOL     OW28076  11.056   5.713   1.228  0.4896  0.6008 -0.5534
 7072SOL    HW128077  11.135   5.765   1.220  0.4907  0.5541 -0.9027
 7072SOL    HW228078  11.081   5.626   1.195  0.1384  0.7546 -1.2603
 7073SOL     OW28079   3.584   7.696   4.373  0.2151 -0.1583 -0.5644
 7073SOL    HW128080   3.504   7.731   4.412  0.8405  0.8560 -0.1478
 7073SOL    HW228081   3.644   7.683   4.446  1.2203  1.2811 -1.0662
 7074SOL     OW28082  11.124   7.383   2.109 -0.4234 -0.0246 -0.1555
 7074SOL    HW128083  11.188   7.449   2.136 -1.9493  0.3206  2.9967
 7074SOL    HW228084  11.175   7.321   2.057  1.5371  2.3786 -1.3114
 7075SOL     OW28085   4.723   1.680   9.855 -0.3763  0.2062  0.3905
 7075SOL    HW128086   4.758   1.597   9.888  1.0749 -0.0772 -1.6532
 7075SOL    HW228087   4.716   1.667   9.761 -1.3383  1.9995  0.1812
 7076SOL     OW28088   7.418   3.998   7.465  0.3178 -0.4227  0.6663
 7076SOL    HW128089   7.420   4.036   7.377  0.1888 -3.3707 -0.7426
 7076SOL    HW228090   7.342   4.038   7.507  1.1347  2.0128 -0.0411
 7077SOL     OW28091   3.695   5.423   9.311 -0.4459 -0.3295  0.4544
 7077SOL    HW128092   3.648   5.366   9.250 -0.4932 -1.0316  1.1254
 7077SOL    HW228093   3.669   5.391   9.397 -1.4534  1.5187  0.8856
 7078SOL     OW28094   6.460   9.602   6.217  0.2854 -0.1279  0.5174
 7078SOL    HW128095   6.505   9.523   6.248 -0.5631 -0.7138  0.3010
 7078SOL    HW228096   6.393   9.619   6.283 -1.0162 -0.9273 -0.5427
 7079SOL     OW28097   5.697   5.097  11.377 -0.5139 -0.2524  0.6882
 7079SOL    HW128098   5.759   5.130  11.442 -1.0429  0.1329  1.0067
 7079SOL    HW228099   5.611   5.122  11.411 -0.7564  0.8602 -0.6475
 7080SOL     OW28100   5.607   8.764   7.445 -0.2631 -0.6437  0.2579
 7080SOL    HW128101   5.624   8.757   7.351 -0.2048  0.1937  0.1920
 7080SOL    HW228102   5.625   8.856   7.465  0.2383 -0.9378  1.1964
 7081SOL     OW28103  11.451   5.327   4.430 -0.4524 -0.0222 -0.3679
 7081SOL    HW128104  11.508   5.253   4.410 -0.0478 -0.1128  1.0566
 7081SOL    HW228105  11.476   5.355   4.518 -2.7541 -0.2430  0.4293
 7082SOL     OW28106   9.406   7.871   5.768 -0.1138  0.2821  0.4004
 7082SOL    HW128107   9.338   7.895   5.705 -0.2246  1.4828  0.9670
 7082SOL    HW228108   9.397   7.776   5.778  0.7686 -0.1965 -2.3915
 7083SOL     OW28109   0.955  10.798  10.873 -0.0090  0.0544  0.3865
 7083SOL    HW128110   0.991  10.834  10.954 -0.8447  0.1784  0.7147
 7083SOL    HW228111   0.862  10.784  10.892 -0.0428 -0.7064 -0.2797
 7084SOL     OW28112   7.834   3.144   5.687 -0.1418 -0.1610 -0.0739
 7084SOL    HW128113   7.743   3.119   5.673  0.1416 -0.7182 -0.9833
 7084SOL    HW228114   7.835   3.239   5.675 -0.7932  0.0163  1.0905
 7085SOL     OW28115   5.907  10.038   3.160  0.2389  0.1101 -0.1651
 7085SOL    HW128116   5.991  10.062   3.122 -0.2400  0.5128 -0.9826
 7085SOL    HW228117   5.900   9.943   3.146  0.8456 -0.0450  0.5110
 7086SOL     OW28118   4.550   7.495   0.341  0.2613 -0.3266 -0.3419
 7086SOL    HW128119   4.540   7.504   0.435  0.9854 -2.1374 -0.0430
 7086SOL    HW228120   4.627   7.547   0.319  0.1377  0.0326  0.0722
 7087SOL     OW28121   3.352   1.169   3.061  0.2813  0.5810  0.1588
 7087SOL    HW128122   3.310   1.164   3.147 -0.4454  0.6702 -0.1824
 7087SOL    HW228123   3.288   1.215   3.006  0.9403  0.9563 -0.3092
 7088SOL     OW28124   6.517   8.347   3.110  0.1259  0.1225 -0.0633
 7088SOL    HW128125   6.572   8.404   3.057  0.3281  0.6069  0.6526
 7088SOL    HW228126   6.537   8.259   3.080  2.6221  0.1168  1.3389
 7089SOL     OW28127   4.039   3.591  12.362 -0.4518  0.4764 -0.7007
 7089SOL    HW128128   3.960   3.640  12.339 -2.3419 -2.3553 -0.7339
 7089SOL    HW228129   4.095   3.600  12.286 -1.5706  0.9346 -1.5075
 7090SOL     OW28130   4.014  10.402   2.210 -0.1644 -0.1038 -0.0833
 7090SOL    HW128131   4.027  10.316   2.252 -0.5252 -0.0147  0.2170
 7090SOL    HW228132   3.955  10.384   2.137  0.3622 -0.2371 -0.4871
 7091SOL     OW28133  10.674  11.800  10.649  0.0918  0.5150  0.8262
 7091SOL    HW128134  10.739  11.788  10.718  0.4570  0.6307  0.5082
 7091SOL    HW228135  10.681  11.893  10.626  1.6556 -0.0062 -1.0021
 7092SOL     OW28136   1.242   2.485  11.711  0.1596 -0.4953  0.4720
 7092SOL    HW128137   1.223   2.411  11.654 -0.6498  0.9964 -1.2927
 7092SOL    HW228138   1.197   2.465  11.793 -0.3284 -1.7812 -0.0956
 7093SOL     OW28139   8.558   3.674   9.780  0.4282 -0.1611 -0.1840
 7093SOL    HW128140   8.525   3.604   9.836 -0.4588  0.8831  0.6528
 7093SOL    HW228141   8.524   3.654   9.693 -0.6228 -0.2669  0.2425
 7094SOL     OW28142  12.455   2.899   3.273 -0.1589 -0.1517  0.1153
 7094SOL    HW128143  12.434   2.981   3.318 -1.5179  0.5931 -1.7417
 7094SOL    HW228144  12.550   2.891   3.282 -0.2231  0.5904  1.9884
 7095SOL     OW28145   6.816   4.166   0.452 -0.2639 -0.3061 -0.3944
 7095SOL    HW128146   6.753   4.204   0.513  0.1799  2.4054 -1.4710
 7095SOL    HW228147   6.869   4.240   0.424  0.2536 -1.6202 -3.2171
 7096SOL     OW28148   5.983   0.835   3.467 -0.3460  0.2978  0.2945
 7096SOL    HW128149   6.033   0.911   3.499  0.4954  0.3597 -1.0681
 7096SOL    HW228150   5.900   0.840   3.514 -0.9348  2.9751 -0.8541
 7097SOL     OW28151   6.564  10.742  10.579 -0.2303  0.7739 -0.2169
 7097SOL    HW128152   6.550  10.764  10.487 -0.3506  2.1422  0.1056
 7097SOL    HW228153   6.487  10.692  10.603 -0.5812  1.0893 -0.6577
 7098SOL     OW28154   3.787  11.734   8.979 -0.0089  0.8085 -0.0203
 7098SOL    HW128155   3.844  11.770   8.911 -1.2153  1.2296 -0.8406
 7098SOL    HW228156   3.786  11.800   9.048 -0.2140  1.2074 -0.4018
 7099SOL     OW28157  11.480   8.099   1.228 -0.9325  0.4845  0.0572
 7099SOL    HW128158  11.505   8.100   1.321 -1.9819  1.6229  0.3479
 7099SOL    HW228159  11.547   8.151   1.185 -0.3380 -0.1991  0.1288
 7100SOL     OW28160  12.268   8.563   1.390 -0.0707  0.2559 -0.2916
 7100SOL    HW128161  12.227   8.488   1.347  2.0026 -0.2469 -1.5172
 7100SOL    HW228162  12.254   8.548   1.483  0.4950 -1.8058 -0.4973
 7101SOL     OW28163   8.791   6.711  11.178  0.3012  0.2531 -0.6602
 7101SOL    HW128164   8.829   6.640  11.230  2.5431  2.7110  1.3542
 7101SOL    HW228165   8.718   6.743  11.231  0.2516  0.3960 -0.8158
 7102SOL     OW28166   5.330   4.431   6.172  0.0148 -0.1317 -0.4302
 7102SOL    HW128167   5.290   4.344   6.168 -1.6803  0.6484 -1.7409
 7102SOL    HW228168   5.256   4.492   6.176  1.1575  1.2561  2.1528
 7103SOL     OW28169   2.290   5.973   3.134  0.1968  0.5494 -0.5539
 7103SOL    HW128170   2.251   5.887   3.149  0.1347  0.5518 -0.7049
 7103SOL    HW228171   2.384   5.959   3.151  0.5227 -0.0556 -2.5856
 7104SOL     OW28172   1.718   1.960   6.520 -0.4335  0.1677  0.3472
 7104SOL    HW128173   1.647   2.019   6.547 -0.5624  0.4712 -0.5987
 7104SOL    HW228174   1.672   1.884   6.483 -0.2753  0.5138 -0.5798
 7105SOL     OW28175   2.885  11.069   5.752  0.2398 -0.5467 -0.4198
 7105SOL    HW128176   2.956  11.132   5.768 -1.1738  1.7071 -2.2560
 7105SOL    HW228177   2.838  11.065   5.835  0.4538  0.7811 -0.2037
 7106SOL     OW28178   6.194   5.091   9.061 -0.3390  0.8397 -0.4208
 7106SOL    HW128179   6.219   5.110   9.152  2.4524  0.8659 -1.1008
 7106SOL    HW228180   6.188   5.177   9.020 -2.4846  0.8855 -0.1330
 7107SOL     OW28181   0.650  12.109   1.259  0.0507 -0.1082  0.0121
 7107SOL    HW128182   0.630  12.172   1.328 -0.2227 -0.6686  0.4520
 7107SOL    HW228183   0.573  12.109   1.203  1.1603  2.0964 -1.6918
 7108SOL     OW28184  11.460   7.229   7.718 -0.3390 -0.1419  0.8050
 7108SOL    HW128185  11.365   7.236   7.710 -0.2015  1.7006  0.3612
 7108SOL    HW228186  11.485   7.160   7.657 -1.5402 -2.0366  2.3373
 7109SOL     OW28187   6.927   3.050  10.292 -0.4625 -0.2793  0.1043
 7109SOL    HW128188   6.937   3.083  10.202  0.4245  1.1123  0.6756
 7109SOL    HW228189   6.847   2.997  10.289 -0.2839 -0.5144 -1.5647
 7110SOL     OW28190  11.826   3.615   8.058 -0.4376  0.1434  0.0363
 7110SOL    HW128191  11.802   3.530   8.021  0.3783  0.4312 -1.2422
 7110SOL    HW228192  11.888   3.595   8.128 -1.6040 -0.3902  0.9466
 7111SOL     OW28193   7.579   5.924   0.136  0.2197 -0.1372  0.3203
 7111SOL    HW128194   7.640   5.852   0.121 -1.3682 -1.0435 -2.7884
 7111SOL    HW228195   7.503   5.883   0.179  0.5586  0.3640  1.4252
 7112SOL     OW28196   2.637   5.336   2.210  0.0717  0.2892  0.0317
 7112SOL    HW128197   2.682   5.348   2.126  2.2195  1.5465  1.2641
 7112SOL    HW228198   2.561   5.394   2.205  1.1066  1.6517 -0.4463
 7113SOL     OW28199   0.048   5.774   6.505 -0.4893 -0.5345 -0.1662
 7113SOL    HW128200   0.031   5.782   6.411  0.2072 -0.7241 -0.3073
 7113SOL    HW228201   0.139   5.747   6.512  0.0312  1.2724  0.6173
 7114SOL     OW28202   6.583   1.759   7.612 -0.0395  0.2881  0.2026
 7114SOL    HW128203   6.635   1.682   7.634 -0.9670 -0.4633 -0.1798
 7114SOL    HW228204   6.501   1.724   7.577 -0.2587  1.4470 -0.5054
 7115SOL     OW28205   1.266   5.906   7.775  0.2515 -0.6637 -0.1230
 7115SOL    HW128206   1.254   5.812   7.768  2.3199 -0.9158 -0.9439
 7115SOL    HW228207   1.359   5.917   7.795  0.2565  1.2198 -0.9839
 7116SOL     OW28208  11.617  11.521   8.011  0.2664  0.1429  0.1804
 7116SOL    HW128209  11.665  11.439   8.001 -0.9054 -0.3947 -1.3503
 7116SOL    HW228210  11.684  11.585   8.037  1.1132 -1.3549  1.8593
 7117SOL     OW28211  10.541  11.429  12.041  0.3219  0.4011  0.1256
 7117SOL    HW128212  10.616  11.459  12.092  0.6657 -0.5271  0.1933
 7117SOL    HW228213  10.477  11.499  12.048  1.9472  2.2163 -1.6707
 7118SOL     OW28214   5.674   2.473   2.359  0.0335 -0.5604  0.2497
 7118SOL    HW128215   5.609   2.473   2.431  0.1380 -0.9551  0.3454
 7118SOL    HW228216   5.744   2.531   2.390 -0.5485  0.3692 -0.1111
 7119SOL     OW28217   7.120   1.456  12.104  0.2139  0.3946  0.1193
 7119SOL    HW128218   7.181   1.514  12.057 -1.4412  0.7601 -1.6873
 7119SOL    HW228219   7.103   1.502  12.186  2.0613  0.4410  0.5377
 7120SOL     OW28220  11.993   1.254   1.509 -0.6511 -0.2465  0.1663
 7120SOL    HW128221  12.046   1.219   1.438 -1.8263 -1.1158 -0.3176
 7120SOL    HW228222  12.056   1.295   1.568  0.5446 -1.1830 -0.4099
 7121SOL     OW28223   8.497   7.495   0.044 -0.0575  0.4594  0.3579
 7121SOL    HW128224   8.498   7.578   0.091  1.5926  1.1691 -0.8455
 7121SOL    HW228225   8.410   7.490   0.006 -0.3734  1.3507  0.9326
 7122SOL     OW28226  12.075   0.388   8.715  0.0285 -0.1326  0.1142
 7122SOL    HW128227  12.009   0.391   8.785 -0.9753  0.3689 -0.8219
 7122SOL    HW228228  12.097   0.295   8.707 -0.4132 -0.2829  0.5804
 7123SOL     OW28229   4.657   4.445   6.850  1.0201  0.2494 -0.0632
 7123SOL    HW128230   4.582   4.429   6.908  2.4982 -0.7469  1.6645
 7123SOL    HW228231   4.657   4.372   6.789  0.6880  0.1592  0.0435
 7124SOL     OW28232  11.944  10.533  12.082 -0.2045  0.7370 -0.4957
 7124SOL    HW128233  11.987  10.456  12.046  0.5127  1.1810 -0.5877
 7124SOL    HW228234  12.012  10.580  12.130 -0.0160  2.5939 -2.4421
 7125SOL     OW28235   1.804   5.880   9.755  0.1436 -0.7460  0.2721
 7125SOL    HW128236   1.847   5.802   9.790 -0.4884 -0.4946  1.6624
 7125SOL    HW228237   1.824   5.949   9.819 -1.3321 -0.3581  0.3386
 7126SOL     OW28238   0.630  10.753   5.957  0.5890  0.3700  0.1154
 7126SOL    HW128239   0.550  10.804   5.946  0.0197 -0.7266 -1.2287
 7126SOL    HW228240   0.692  10.792   5.897  0.0959 -0.5657 -1.0503
 7127SOL     OW28241  10.294   1.000   7.595  0.8567  0.0689  0.2535
 7127SOL    HW128242  10.207   1.000   7.557  1.2876  0.7478 -0.7937
 7127SOL    HW228243  10.341   0.929   7.551  1.0149  0.1070  0.3559
 7128SOL     OW28244   9.065   8.480   2.977 -0.0262 -0.1215  0.1137
 7128SOL    HW128245   9.104   8.515   2.897  2.8332 -0.2255  1.3561
 7128SOL    HW228246   9.058   8.555   3.036 -0.1280 -0.4280  0.4986
 7129SOL     OW28247   1.311   6.516   1.470  0.2335  0.2129 -0.5896
 7129SOL    HW128248   1.327   6.428   1.506 -1.2095 -0.7110 -2.1136
 7129SOL    HW228249   1.395   6.541   1.432  0.2260 -1.2893 -1.6979
 7130SOL     OW28250  11.935   1.896   2.169 -0.4764  0.0387  0.5973
 7130SOL    HW128251  11.955   1.928   2.257 -0.2798 -1.1765  0.9984
 7130SOL    HW228252  11.956   1.803   2.171 -1.4899 -0.2357 -0.4167
 7131SOL     OW28253  12.019   2.280   1.169  0.1090  0.2321 -0.3993
 7131SOL    HW128254  12.076   2.338   1.219  1.3345 -2.4655  1.5638
 7131SOL    HW228255  12.059   2.276   1.082 -1.2337  3.8623 -1.3559
 7132SOL     OW28256   7.417   3.242   2.493  0.1179  0.6373 -0.1154
 7132SOL    HW128257   7.492   3.294   2.464  0.3569  0.2468 -0.2059
 7132SOL    HW228258   7.404   3.266   2.585  0.6495  0.3634  0.0339
 7133SOL     OW28259  11.074   0.922   3.449  0.3890 -0.1627 -0.4357
 7133SOL    HW128260  11.158   0.877   3.460  0.2597 -0.7722 -1.7132
 7133SOL    HW228261  11.022   0.893   3.524  0.0935 -2.7418 -1.5129
 7134SOL     OW28262   8.155   4.689   6.600 -0.4023  0.5239 -0.0010
 7134SOL    HW128263   8.167   4.782   6.616  0.1985  0.6082 -0.9156
 7134SOL    HW228264   8.152   4.680   6.505 -2.0138 -0.2059  0.0893
 7135SOL     OW28265  10.084  12.344  11.586 -0.7935 -0.6362  0.6081
 7135SOL    HW128266  10.138  12.270  11.560  0.2333  0.1030  0.5495
 7135SOL    HW228267  10.080  12.399  11.508  0.8030  0.7130  1.3909
 7136SOL     OW28268   6.873  10.444   3.584  0.2918  0.0919 -0.0184
 7136SOL    HW128269   6.849  10.367   3.635 -1.2763  0.3732 -0.2843
 7136SOL    HW228270   6.854  10.420   3.493 -1.5627  1.2237  0.0179
 7137SOL     OW28271   7.141   9.773   0.728  0.2030 -0.5624  0.2397
 7137SOL    HW128272   7.144   9.691   0.677 -0.8830 -0.6219  0.2428
 7137SOL    HW228273   7.053   9.807   0.712  0.3566  0.1696  0.9304
 7138SOL     OW28274   5.154   3.383   3.649 -0.6014  0.4096  0.4236
 7138SOL    HW128275   5.115   3.320   3.588 -0.4531 -0.9161  1.6510
 7138SOL    HW228276   5.216   3.433   3.596  0.7553 -1.8239 -0.2344
 7139SOL     OW28277   6.482   7.540   1.511  0.1991 -0.3121 -0.3575
 7139SOL    HW128278   6.482   7.633   1.534  3.0008 -0.7432  2.0436
 7139SOL    HW228279   6.462   7.496   1.593  0.3038 -1.8668 -1.1392
 7140SOL     OW28280   6.265  12.241   6.900  0.3489  0.6152  0.1289
 7140SOL    HW128281   6.179  12.255   6.862  0.2766 -0.9906 -0.3566
 7140SOL    HW228282   6.249  12.186   6.977  0.9826 -0.2595 -0.3461
 7141SOL     OW28283  10.778  11.608   6.433 -0.2476  0.0919  0.4897
 7141SOL    HW128284  10.811  11.551   6.503  0.7118 -0.9898 -0.8044
 7141SOL    HW228285  10.847  11.609   6.367 -0.8650  1.5983 -0.2021
 7142SOL     OW28286   5.341   5.697   3.363 -0.5992 -0.7415  0.4669
 7142SOL    HW128287   5.303   5.764   3.306  1.8408  2.3230  2.1045
 7142SOL    HW228288   5.305   5.717   3.450 -0.7476 -2.3893  0.8051
 7143SOL     OW28289  10.553   9.661   3.703 -0.0209 -0.0360 -0.0365
 7143SOL    HW128290  10.545   9.650   3.798  1.0517  2.7977  0.5040
 7143SOL    HW228291  10.496   9.595   3.666 -0.4758 -1.2395  2.5867
 7144SOL     OW28292   1.056   4.757   7.006  0.0791  0.3991  0.3969
 7144SOL    HW128293   0.975   4.768   6.956 -0.5599 -2.4404  0.6467
 7144SOL    HW228294   1.068   4.841   7.050 -3.2634  0.6349  1.1479
 7145SOL     OW28295   9.553   1.899   2.856  0.4174  0.3143  0.6513
 7145SOL    HW128296   9.549   1.820   2.910 -1.2573  0.9421  1.4915
 7145SOL    HW228297   9.520   1.872   2.771 -1.9446  0.4687  1.4556
 7146SOL     OW28298   4.981  11.472   0.737  0.5412  0.0625 -0.6412
 7146SOL    HW128299   5.033  11.469   0.817 -0.6973 -1.7370  0.1658
 7146SOL    HW228300   4.961  11.564   0.724 -1.2012  0.2303  2.4644
 7147SOL     OW28301   4.281   0.464   2.478  0.0150  0.1482  0.0283
 7147SOL    HW128302   4.371   0.437   2.498 -0.4693 -2.2239 -0.6356
 7147SOL    HW228303   4.290   0.552   2.443  1.8995  0.5801  1.4026
 7148SOL     OW28304   7.864  10.193   1.611  0.0901 -0.4477  0.0968
 7148SOL    HW128305   7.788  10.239   1.575  0.9907  0.2608 -0.9541
 7148SOL    HW228306   7.836  10.166   1.698 -1.1934  0.2433 -0.0716
 7149SOL     OW28307   2.985  11.607   6.267  0.1602 -0.3061 -0.7923
 7149SOL    HW128308   2.955  11.594   6.357  1.2348 -0.3781 -0.4361
 7149SOL    HW228309   2.953  11.694   6.244  0.4566 -0.0061 -0.0965
 7150SOL     OW28310   1.265   6.449  10.307  0.2611  0.5298  0.3057
 7150SOL    HW128311   1.285   6.375  10.364 -0.1501  1.7816  2.1883
 7150SOL    HW228312   1.189   6.421  10.256 -0.5143 -0.0397  1.7104
 7151SOL     OW28313   5.727   3.398   3.350 -0.1444  0.4940 -0.1521
 7151SOL    HW128314   5.815   3.421   3.377  0.3483 -0.7312 -0.6442
 7151SOL    HW228315   5.676   3.478   3.363  0.7066  0.8005  1.4994
 7152SOL     OW28316  11.379   9.380  10.514 -0.0484 -0.1780 -0.1712
 7152SOL    HW128317  11.469   9.360  10.542 -0.3708 -3.1386 -0.9824
 7152SOL    HW228318  11.336   9.409  10.595  0.8788 -1.6587  0.9145
 7153SOL     OW28319   0.778   5.575  12.312  0.5798 -0.2342 -0.2171
 7153SOL    HW128320   0.724   5.497  12.326 -1.0193  0.4834 -1.9994
 7153SOL    HW228321   0.830   5.554  12.234  2.4448 -0.6233  1.0427
 7154SOL     OW28322   6.300   3.773   9.728 -0.3253  0.0932 -0.2518
 7154SOL    HW128323   6.254   3.690   9.740 -0.1812  0.0258 -0.1627
 7154SOL    HW228324   6.371   3.771   9.792  0.1198 -0.0341 -0.7371
 7155SOL     OW28325   9.702   3.289  12.439  0.0543 -0.1190  0.0784
 7155SOL    HW128326   9.744   3.222  12.492  0.4637  1.0643  1.3133
 7155SOL    HW228327   9.763   3.363  12.441 -1.0929  0.8672  0.1137
 7156SOL     OW28328  10.287   7.768  11.315 -0.2898 -0.1480  0.0481
 7156SOL    HW128329  10.257   7.761  11.406  0.7026 -0.6587  0.3486
 7156SOL    HW228330  10.238   7.700  11.269 -0.5775 -0.0885  0.2640
 7157SOL     OW28331   3.509  11.738   0.596 -0.3326  0.2247 -0.1249
 7157SOL    HW128332   3.533  11.645   0.586 -0.1848  0.2562 -0.0647
 7157SOL    HW228333   3.580  11.775   0.648 -0.6870  0.2399  0.3606
 7158SOL     OW28334   4.132   8.146   8.428 -0.1817  0.2619  0.1204
 7158SOL    HW128335   4.224   8.172   8.439 -0.3206  0.2721  1.3987
 7158SOL    HW228336   4.136   8.052   8.410  0.0604  0.1737  0.6141
 7159SOL     OW28337   3.454   0.659   2.410  0.3206  0.4829  0.3657
 7159SOL    HW128338   3.509   0.610   2.471 -1.1024  1.6606  2.7248
 7159SOL    HW228339   3.501   0.740   2.395 -0.1114  0.9292  1.3340
 7160SOL     OW28340  11.344   0.416  11.125  0.0424  0.5517  0.1279
 7160SOL    HW128341  11.386   0.415  11.039 -1.8159 -0.0298 -0.8377
 7160SOL    HW228342  11.316   0.325  11.139 -0.4159  0.8095  0.9477
 7161SOL     OW28343   3.445   9.943   4.570  0.1259 -0.5582 -0.1047
 7161SOL    HW128344   3.356   9.939   4.536  0.3347 -2.8268 -0.5499
 7161SOL    HW228345   3.446  10.021   4.626 -1.7844  0.1538 -0.9748
 7162SOL     OW28346   8.253   4.223   1.342 -0.2702 -0.2795  0.3804
 7162SOL    HW128347   8.339   4.205   1.306 -0.5833 -0.1857 -0.4179
 7162SOL    HW228348   8.193   4.168   1.291 -0.7456  0.0303  0.5940
 7163SOL     OW28349   3.830  12.288   1.876  0.8816 -0.2802  0.0668
 7163SOL    HW128350   3.855  12.318   1.963 -0.1501  1.9150 -0.3219
 7163SOL    HW228351   3.748  12.240   1.889 -0.4375  1.8663  0.1403
 7164SOL     OW28352   1.633   4.725   8.129 -0.1063 -0.2547  0.0594
 7164SOL    HW128353   1.592   4.649   8.087 -1.9850  2.0616 -2.7043
 7164SOL    HW228354   1.711   4.742   8.076  0.6578 -0.5856  1.0574
 7165SOL     OW28355   8.413   4.797   9.668  0.1452  0.1683 -0.1795
 7165SOL    HW128356   8.433   4.868   9.607 -1.2093 -1.1514 -2.3348
 7165SOL    HW228357   8.496   4.752   9.682  0.7571  1.3854  0.1543
 7166SOL     OW28358   0.183   4.984   3.348 -0.1046 -0.0398 -0.0971
 7166SOL    HW128359   0.223   5.001   3.433  1.0455  1.6285 -0.9010
 7166SOL    HW228360   0.207   4.894   3.328 -1.1525 -0.7670  1.6931
 7167SOL     OW28361   4.229  11.606   8.507  0.5535 -0.0069 -0.8405
 7167SOL    HW128362   4.200  11.600   8.416  0.0081 -2.1956 -0.5933
 7167SOL    HW228363   4.155  11.645   8.553 -0.2290 -1.2482 -0.9729
 7168SOL     OW28364   4.418   7.226   7.727 -0.5235  0.3168  0.4256
 7168SOL    HW128365   4.357   7.279   7.675  0.6878  2.7549  1.3505
 7168SOL    HW228366   4.499   7.227   7.676 -0.1516  0.3321  1.0144
 7169SOL     OW28367   4.584   7.570  11.049 -0.4224 -0.2854 -0.3861
 7169SOL    HW128368   4.562   7.646  10.995 -0.4671 -0.1710 -0.2080
 7169SOL    HW228369   4.651   7.524  10.999  0.1906  0.3049 -0.1307
 7170SOL     OW28370   0.243   0.276   0.278  0.2573  0.0286  0.0201
 7170SOL    HW128371   0.185   0.200   0.273  0.5574 -0.1426 -1.4284
 7170SOL    HW228372   0.198   0.337   0.336  0.2326 -1.4249  1.5960
 7171SOL     OW28373   1.428   7.454   5.245  0.0444  0.3178  0.4034
 7171SOL    HW128374   1.459   7.462   5.335  0.1981  0.4664  0.3374
 7171SOL    HW228375   1.422   7.360   5.230  2.3640  0.2193 -0.2164
 7172SOL     OW28376  10.194   7.485   2.086  0.0885  0.3782 -0.4001
 7172SOL    HW128377  10.239   7.468   2.168  0.4923 -3.1344 -1.1971
 7172SOL    HW228378  10.263   7.505   2.024  0.0078  0.6789 -0.3927
 7173SOL     OW28379   0.264   4.968   2.056  0.0249 -0.5188  0.6843
 7173SOL    HW128380   0.201   4.998   2.121  0.0022 -0.5407  0.6727
 7173SOL    HW228381   0.214   4.907   2.000 -0.0400 -0.2500  0.4484
 7174SOL     OW28382   1.056  11.100   1.049 -0.2002 -0.0407 -0.0449
 7174SOL    HW128383   1.091  11.012   1.034 -0.5730 -0.1222 -0.4564
 7174SOL    HW228384   0.961  11.087   1.051 -0.2591  0.3662 -0.2065
 7175SOL     OW28385   5.342   8.691   2.726  0.1960  0.1184 -0.2851
 7175SOL    HW128386   5.348   8.602   2.691 -1.7429 -0.4308  0.6340
 7175SOL    HW228387   5.317   8.745   2.651  0.1121 -0.3321 -0.5852
 7176SOL     OW28388   0.030  10.118   7.004  0.2789  0.3085 -0.0627
 7176SOL    HW128389   0.123  10.132   7.023  0.2091  0.9318 -0.1667
 7176SOL    HW228390   0.030  10.058   6.930  0.5959  0.1528  0.0608
 7177SOL     OW28391  12.068  11.860   9.127 -0.6019  0.2494 -0.0033
 7177SOL    HW128392  12.053  11.774   9.166  1.6900 -0.3328 -0.2308
 7177SOL    HW228393  12.026  11.922   9.186 -2.8883 -1.0201 -0.1821
 7178SOL     OW28394   5.930   5.638   2.705 -0.1698 -0.1585  0.1560
 7178SOL    HW128395   5.958   5.713   2.652 -0.2688 -0.1006  0.1841
 7178SOL    HW228396   5.915   5.676   2.792 -0.5181 -0.1520  0.0955
 7179SOL     OW28397   8.224   7.688   5.425  0.1387 -0.2661  1.0370
 7179SOL    HW128398   8.261   7.774   5.445  1.1919 -0.5587  0.3960
 7179SOL    HW228399   8.134   7.707   5.398  1.1194  0.9866 -1.7903
 7180SOL     OW28400   3.657   3.421  12.036 -0.6065  0.3972  0.9504
 7180SOL    HW128401   3.624   3.394  11.950 -0.3795  0.7231  0.7551
 7180SOL    HW228402   3.751   3.406  12.031 -0.3489  1.9461  0.5424
 7181SOL     OW28403   4.016   8.582   3.690  0.0328 -0.5428 -0.3917
 7181SOL    HW128404   3.970   8.665   3.679  2.5002  0.8992 -0.6311
 7181SOL    HW228405   4.028   8.575   3.785  0.3002 -0.2889 -0.4006
 7182SOL     OW28406  10.231   1.438   4.290  0.3765  0.3588  0.5773
 7182SOL    HW128407  10.256   1.530   4.290  2.9289 -0.2503  0.3279
 7182SOL    HW228408  10.282   1.399   4.361 -0.1977 -0.9695  0.3041
 7183SOL     OW28409   5.298  10.560   2.495  0.0607 -0.0325 -0.2794
 7183SOL    HW128410   5.232  10.587   2.431 -0.9382 -1.3827  0.1532
 7183SOL    HW228411   5.260  10.484   2.539  1.5741 -0.3506  0.5430
 7184SOL     OW28412   1.648   6.355   3.592 -0.2635 -0.0470 -0.2473
 7184SOL    HW128413   1.743   6.353   3.581 -0.1045 -1.0851  1.0343
 7184SOL    HW228414   1.614   6.381   3.506  1.1139 -0.8699 -1.0755
 7185SOL     OW28415   6.299   4.966   7.669 -0.2329  0.3568 -0.0500
 7185SOL    HW128416   6.291   5.057   7.698 -1.7862  0.4203 -0.5729
 7185SOL    HW228417   6.209   4.937   7.656  0.2276 -1.2808  0.1265
 7186SOL     OW28418   1.554   9.028  10.747 -0.3607  0.3885  0.2599
 7186SOL    HW128419   1.505   9.056  10.669 -0.2817  0.2813  0.1713
 7186SOL    HW228420   1.486   9.015  10.813 -0.3954  0.8183  0.3120
 7187SOL     OW28421   1.971   2.447   3.313 -0.2313  0.1502  0.6639
 7187SOL    HW128422   2.034   2.376   3.320 -0.3857 -0.1039 -0.4211
 7187SOL    HW228423   1.957   2.457   3.219  0.3793  2.1295  0.7357
 7188SOL     OW28424   0.332   7.965  10.335 -0.0621  0.1624 -0.2487
 7188SOL    HW128425   0.411   7.948  10.385  1.4788  1.3766 -2.1260
 7188SOL    HW228426   0.359   7.957  10.244 -2.1791  0.3122 -0.9445
 7189SOL     OW28427   0.643   9.511   2.707 -0.0196  0.1600 -0.0260
 7189SOL    HW128428   0.654   9.583   2.769 -0.4916  1.4771 -1.4185
 7189SOL    HW228429   0.728   9.468   2.705  0.1794  0.4787  1.0561
 7190SOL     OW28430   7.454   1.982   1.380  0.3414  0.0455  0.0778
 7190SOL    HW128431   7.547   1.982   1.361  1.0239  2.0879  2.7349
 7190SOL    HW228432   7.448   2.006   1.473 -2.8348  0.5583 -0.1245
 7191SOL     OW28433   1.138   5.630  10.160 -0.2737 -0.1052 -0.0804
 7191SOL    HW128434   1.180   5.656  10.243  1.4397 -3.3951  0.2690
 7191SOL    HW228435   1.211   5.612  10.101 -1.4186 -0.2798 -1.5029
 7192SOL     OW28436   2.160   9.144   4.291 -0.2612 -0.0863 -0.8253
 7192SOL    HW128437   2.097   9.167   4.223 -2.9962 -2.0474  0.8328
 7192SOL    HW228438   2.149   9.211   4.358 -0.5122 -0.3787 -0.5735
 7193SOL     OW28439   6.899   2.522  11.667  0.6172  0.0960  0.3324
 7193SOL    HW128440   6.857   2.441  11.639  1.1017  0.6531 -2.2540
 7193SOL    HW228441   6.858   2.543  11.751 -1.8515 -1.1108 -0.4826
 7194SOL     OW28442  12.379   3.034   1.804 -0.0732  0.1448 -0.5490
 7194SOL    HW128443  12.308   3.025   1.868  0.2189  1.7647  0.0430
 7194SOL    HW228444  12.455   2.996   1.847 -0.0734  0.4647 -0.2629
 7195SOL     OW28445   0.319   4.923  10.399  0.3843  0.2330 -0.4426
 7195SOL    HW128446   0.412   4.906  10.412 -0.0121 -0.0313  2.9519
 7195SOL    HW228447   0.309   5.017  10.413  0.1557  0.3207 -1.1440
 7196SOL     OW28448  10.876   5.424   6.213 -1.2313 -0.3288 -0.0621
 7196SOL    HW128449  10.944   5.414   6.147 -0.5295 -0.3799  0.6498
 7196SOL    HW228450  10.848   5.335   6.233  0.8149 -0.6217  1.9731
 7197SOL     OW28451   1.228   3.891   8.019 -0.2791 -0.7332  0.3824
 7197SOL    HW128452   1.200   3.889   8.111  0.6238 -2.2739  0.6796
 7197SOL    HW228453   1.284   3.813   8.011  2.4243  1.1810 -0.5830
 7198SOL     OW28454   8.167   8.477   2.357 -0.5518  0.6191 -0.3988
 7198SOL    HW128455   8.260   8.453   2.351 -0.6841 -0.6407  1.7123
 7198SOL    HW228456   8.167   8.568   2.387  0.0716 -0.1426  2.0949
 7199SOL     OW28457   7.562  12.201   0.978  0.4367  0.3878 -0.1818
 7199SOL    HW128458   7.602  12.151   0.907  1.3862  0.8554  0.0066
 7199SOL    HW228459   7.598  12.289   0.969  0.8685  0.3601  1.0857
 7200SOL     OW28460   6.736   4.955   9.242  0.2503  0.2643 -0.2352
 7200SOL    HW128461   6.729   4.917   9.329  0.8778 -1.4373 -0.8856
 7200SOL    HW228462   6.651   4.995   9.226 -0.4977 -0.9862  0.4571
 7201SOL     OW28463   5.750   5.639  11.160  0.5774 -0.2669  0.0531
 7201SOL    HW128464   5.815   5.570  11.146  0.6785 -0.8557  2.8808
 7201SOL    HW228465   5.679   5.596  11.207  0.4674  1.4167  1.5258
 7202SOL     OW28466   7.861   7.006   8.054  0.1399 -0.5406  0.0568
 7202SOL    HW128467   7.949   7.041   8.066 -0.0393  0.8187 -2.1244
 7202SOL    HW228468   7.804   7.072   8.095  0.0424 -0.4124 -0.2809
 7203SOL     OW28469   6.512  11.877   8.309 -0.4348  0.8709 -0.2792
 7203SOL    HW128470   6.431  11.825   8.312  0.1851 -0.2072 -1.2868
 7203SOL    HW228471   6.540  11.872   8.217  0.4636  1.7378 -0.0737
 7204SOL     OW28472   5.054   9.920  11.098 -0.6914  0.3644  0.3301
 7204SOL    HW128473   4.965   9.938  11.131 -1.2315 -1.2706 -0.1203
 7204SOL    HW228474   5.082   9.843  11.148  0.7284  1.2045  0.8698
 7205SOL     OW28475   9.141   8.563   1.293  0.2941  0.0471  0.1566
 7205SOL    HW128476   9.226   8.597   1.263  0.0788 -0.0291 -0.5731
 7205SOL    HW228477   9.091   8.553   1.212 -0.7954  1.1477  0.6682
 7206SOL     OW28478   1.634   9.121   7.449  0.2456 -0.6409 -0.2536
 7206SOL    HW128479   1.607   9.212   7.453  1.3452 -0.3366  1.6827
 7206SOL    HW228480   1.707   9.120   7.386  0.4073 -0.1313 -0.0757
 7207SOL     OW28481   8.002   6.628  12.187  0.1098  0.8443 -0.1444
 7207SOL    HW128482   8.060   6.702  12.203 -0.1299  0.9014  0.4998
 7207SOL    HW228483   7.942   6.628  12.262  1.9593 -1.8104  1.5460
 7208SOL     OW28484   7.649   9.564   1.050 -0.1128  0.4365  0.5321
 7208SOL    HW128485   7.643   9.505   1.125 -1.7663 -0.6295 -0.3567
 7208SOL    HW228486   7.601   9.518   0.981  1.1963  1.4614 -1.1309
 7209SOL     OW28487   4.475   8.384   0.963 -0.4955  0.2878  0.9722
 7209SOL    HW128488   4.389   8.349   0.988  0.5681 -3.1691  0.4140
 7209SOL    HW228489   4.475   8.381   0.867  0.1408  0.5489  0.9598
 7210SOL     OW28490   3.812  10.230  10.462 -0.3365  0.1251  0.4020
 7210SOL    HW128491   3.896  10.277  10.465 -0.5357  0.4744  0.5765
 7210SOL    HW228492   3.794  10.208  10.554  0.8048 -2.2032  0.1477
 7211SOL     OW28493   9.246   6.815  12.144  0.3563 -0.2025  0.1505
 7211SOL    HW128494   9.178   6.785  12.084  0.5026  0.9175 -0.6118
 7211SOL    HW228495   9.315   6.849  12.087 -0.5844  3.3061  0.8568
 7212SOL     OW28496   9.109   6.769   8.252  0.5815 -0.1560  0.3048
 7212SOL    HW128497   9.058   6.693   8.280  0.0405  0.4740  1.0540
 7212SOL    HW228498   9.097   6.772   8.157 -0.6252 -0.1234  0.4510
 7213SOL     OW28499   5.882   6.795   3.708 -0.5076  0.3178 -0.0544
 7213SOL    HW128500   5.949   6.729   3.721 -0.5830  0.6273  2.2462
 7213SOL    HW228501   5.924   6.878   3.732 -1.4938  0.5965  0.7973
 7214SOL     OW28502   9.243  11.622   6.770  0.6767 -0.1699  0.0998
 7214SOL    HW128503   9.264  11.529   6.760 -2.2208 -1.1028  1.5058
 7214SOL    HW228504   9.177  11.639   6.703  0.2598  0.5099  0.6722
 7215SOL     OW28505   9.477   3.991   1.046 -0.2049 -0.2094 -0.1208
 7215SOL    HW128506   9.458   4.084   1.033 -1.3256 -0.6402 -1.8483
 7215SOL    HW228507   9.427   3.967   1.124 -0.2411  0.5429  0.0913
 7216SOL     OW28508   1.159   7.663   2.283 -0.2447 -0.1046 -0.2083
 7216SOL    HW128509   1.080   7.687   2.234 -0.2219  0.1874 -0.1031
 7216SOL    HW228510   1.228   7.717   2.244 -0.2727  0.3162  0.3123
 7217SOL     OW28511  10.748   6.100  11.382  0.0916  0.4416 -0.3201
 7217SOL    HW128512  10.760   6.022  11.328  1.7094  1.0616 -0.9158
 7217SOL    HW228513  10.819   6.158  11.356  0.2025  1.2525  1.6356
 7218SOL     OW28514   4.366  11.387   0.142  0.5722 -0.2487  0.3023
 7218SOL    HW128515   4.429  11.351   0.080 -0.5709 -0.1820 -0.9357
 7218SOL    HW228516   4.326  11.310   0.183  0.8776 -0.3027  0.5041
 7219SOL     OW28517   3.975   8.237   4.376 -0.7156 -0.0213  0.0232
 7219SOL    HW128518   3.945   8.148   4.389 -1.8827  0.1544 -1.2905
 7219SOL    HW228519   3.993   8.244   4.282  0.4598  0.8052  0.2799
 7220SOL     OW28520   8.533   0.437   9.405  0.2518 -0.7159 -0.1076
 7220SOL    HW128521   8.595   0.368   9.425  0.9812 -0.3008 -0.8938
 7220SOL    HW228522   8.549   0.504   9.473  2.3198  0.4294 -1.6007
 7221SOL     OW28523   3.418   3.722   5.610 -0.0759  0.3744  0.6860
 7221SOL    HW128524   3.325   3.725   5.634  0.1485  2.9296  1.5562
 7221SOL    HW228525   3.418   3.734   5.515 -0.6104  1.8006  0.8483
 7222SOL     OW28526   0.967  11.592   9.782  0.2359 -0.2603  0.2958
 7222SOL    HW128527   1.041  11.637   9.741  0.2238  1.2973  1.8382
 7222SOL    HW228528   1.004  11.512   9.817  1.2708  0.5556  1.1562
 7223SOL     OW28529   7.008   4.017   7.405  0.0178 -0.1363  0.1478
 7223SOL    HW128530   6.997   3.957   7.331 -0.4100 -0.4854  0.4811
 7223SOL    HW228531   6.919   4.045   7.426  0.1488  0.0705  0.4393
 7224SOL     OW28532  10.917  10.585  11.868 -0.3268  0.4063 -0.2608
 7224SOL    HW128533  10.916  10.490  11.879 -1.9306  0.2347 -1.4635
 7224SOL    HW228534  11.002  10.603  11.828  0.0465 -0.5133  0.0935
 7225SOL     OW28535   5.163   2.400   4.542  0.6257 -0.6210 -0.0959
 7225SOL    HW128536   5.194   2.365   4.626  0.6430 -1.6361 -0.5030
 7225SOL    HW228537   5.096   2.464   4.566  2.8459  1.5351  0.8131
 7226SOL     OW28538  11.285   7.239   3.420 -0.1393 -0.0028 -0.3376
 7226SOL    HW128539  11.357   7.216   3.479  0.7326  1.0991 -0.9309
 7226SOL    HW228540  11.249   7.155   3.393  0.5765 -0.5624  0.3952
 7227SOL     OW28541  10.615   9.137  10.057 -0.3529  0.5678 -0.1989
 7227SOL    HW128542  10.638   9.202   9.991  2.2715 -0.6413 -0.6186
 7227SOL    HW228543  10.582   9.062  10.007 -3.9242  1.6599  0.3146
 7228SOL     OW28544   0.481   7.904   6.779 -0.2442  0.3366 -0.0470
 7228SOL    HW128545   0.574   7.913   6.760  0.5998  1.3140  3.6953
 7228SOL    HW228546   0.467   7.810   6.788  0.4057  0.1899 -0.5420
 7229SOL     OW28547   5.732   8.415   4.298  0.1540  0.3174  0.4069
 7229SOL    HW128548   5.761   8.498   4.261 -2.1798  1.2143  0.3906
 7229SOL    HW228549   5.722   8.357   4.223 -2.9837  1.6293 -0.3476
 7230SOL     OW28550   1.097   2.172   1.412 -0.2172 -0.5892 -0.1545
 7230SOL    HW128551   1.056   2.087   1.396  0.8329 -0.9801 -0.8448
 7230SOL    HW228552   1.062   2.199   1.497 -1.4785 -1.1522 -0.4719
 7231SOL     OW28553   6.025   8.439   6.019  0.3598  0.2158 -0.2086
 7231SOL    HW128554   6.013   8.532   6.003 -1.1498 -0.3087 -2.5732
 7231SOL    HW228555   5.939   8.401   6.006  1.2215 -1.6946 -0.6879
 7232SOL     OW28556   8.903   1.988   8.552  0.3875 -0.1645 -0.0842
 7232SOL    HW128557   8.821   2.029   8.579  1.2724  0.4394  1.8938
 7232SOL    HW228558   8.962   2.002   8.626  1.9373 -1.5862 -0.9825
 7233SOL     OW28559   5.227   9.839  11.460  0.2351  0.4577  0.3499
 7233SOL    HW128560   5.305   9.890  11.481  1.5151 -1.2848  0.0268
 7233SOL    HW228561   5.218   9.778  11.534  0.7477 -1.1006 -0.8131
 7234SOL     OW28562  10.648   8.699  11.295  0.0829  0.3185 -0.4689
 7234SOL    HW128563  10.616   8.665  11.379 -0.0134 -3.9950 -2.0518
 7234SOL    HW228564  10.577   8.680  11.233  1.2302  0.9487 -2.0267
 7235SOL     OW28565   4.142   7.253   4.376 -0.3931 -0.2345 -0.5038
 7235SOL    HW128566   4.144   7.190   4.448 -0.7593 -0.3346 -0.5799
 7235SOL    HW228567   4.234   7.268   4.354 -0.2540  0.1957  0.3365
 7236SOL     OW28568   0.090   5.668  12.242 -0.3197 -0.4656  0.4891
 7236SOL    HW128569   0.092   5.587  12.294 -0.9108 -0.8146 -0.0087
 7236SOL    HW228570   0.167   5.717  12.270  0.2524 -1.3747  0.5350
 7237SOL     OW28571   9.995   7.642   2.187 -0.0800  0.6335 -0.4467
 7237SOL    HW128572  10.066   7.578   2.177  0.7991  1.3653  0.7394
 7237SOL    HW228573   9.976   7.671   2.098  0.3765 -0.3542 -0.8844
 7238SOL     OW28574   4.202   8.400   9.037 -0.4351 -0.4786  0.3249
 7238SOL    HW128575   4.208   8.305   9.026 -3.0102 -0.7310  0.4878
 7238SOL    HW228576   4.266   8.435   8.975  0.7310 -2.2962  0.4261
 7239SOL     OW28577   8.864   4.901  10.988  0.4627  0.0515  0.0121
 7239SOL    HW128578   8.818   4.819  10.974 -0.1227  0.0903  1.4386
 7239SOL    HW228579   8.895   4.895  11.079  1.6073  0.8335 -0.3140
 7240SOL     OW28580   6.216   9.516  10.508 -0.2124 -0.0044  0.6431
 7240SOL    HW128581   6.122   9.522  10.492 -0.0592  0.0487 -0.2770
 7240SOL    HW228582   6.238   9.600  10.550 -0.4573  0.2576  0.2523
 7241SOL     OW28583   6.602   9.988   6.858 -0.3349  0.4239  0.0931
 7241SOL    HW128584   6.530  10.040   6.895 -1.3272 -0.4971 -0.4744
 7241SOL    HW228585   6.613  10.022   6.769  0.4673  1.0648  0.4196
 7242SOL     OW28586   6.395  11.618   6.993 -0.1715  0.0593 -0.0864
 7242SOL    HW128587   6.407  11.713   7.003 -1.2169  0.0201  2.0581
 7242SOL    HW228588   6.483  11.582   7.001  0.0350  0.7388  0.7760
 7243SOL     OW28589   4.342   3.460   1.689  0.6098  0.2031  0.1348
 7243SOL    HW128590   4.395   3.481   1.766  1.5436 -1.2160 -0.0711
 7243SOL    HW228591   4.398   3.482   1.615  1.4062 -2.2532 -0.0861
 7244SOL     OW28592  11.131   3.899   4.811 -0.3965  0.2697  0.4767
 7244SOL    HW128593  11.134   3.811   4.848 -0.1316 -0.0344 -0.2551
 7244SOL    HW228594  11.223   3.926   4.807 -0.3627  0.0624 -0.4913
 7245SOL     OW28595   6.785   1.282  11.395  0.3059 -0.2173 -0.4281
 7245SOL    HW128596   6.813   1.290  11.486 -0.2835 -0.5875 -0.2080
 7245SOL    HW228597   6.694   1.253  11.400 -0.6157  2.2890 -1.1098
 7246SOL     OW28598   6.533  11.211   3.148  0.2077  0.5752  0.6281
 7246SOL    HW128599   6.507  11.295   3.111 -0.8779 -0.0295 -0.0384
 7246SOL    HW228600   6.501  11.146   3.086 -0.8513 -0.4259  2.1407
 7247SOL     OW28601   4.514   5.760   5.713  0.1975  0.2347 -0.1852
 7247SOL    HW128602   4.439   5.798   5.667 -0.3331 -1.5064 -0.8301
 7247SOL    HW228603   4.476   5.707   5.783  0.9466  1.2759  1.0833
 7248SOL     OW28604  10.054   6.549   7.721 -0.3299  0.6424  0.0469
 7248SOL    HW128605  10.147   6.527   7.722 -0.6834 -0.9838 -0.0671
 7248SOL    HW228606  10.042   6.606   7.797  0.5515 -0.1269  0.7906
 7249SOL     OW28607   8.193   7.416   5.580  0.2299  0.5563 -0.1903
 7249SOL    HW128608   8.260   7.412   5.512 -0.6736  0.7044 -1.1170
 7249SOL    HW228609   8.130   7.481   5.549 -0.8498 -0.2689  0.1813
 7250SOL     OW28610   8.180   7.645   0.517  0.7538 -0.4856 -0.3033
 7250SOL    HW128611   8.185   7.662   0.611  0.7763  0.2009 -0.4231
 7250SOL    HW228612   8.267   7.667   0.484  0.6971 -0.5715 -0.5082
 7251SOL     OW28613   4.252   2.793   2.745 -0.0544 -0.4747 -0.2828
 7251SOL    HW128614   4.315   2.807   2.816 -0.4523 -3.5887  0.8045
 7251SOL    HW228615   4.306   2.786   2.666  0.7724 -1.0922  0.3225
 7252SOL     OW28616   2.206   6.740   3.834  0.5738  0.1568  0.0645
 7252SOL    HW128617   2.195   6.833   3.850 -1.3813  0.0871 -0.5537
 7252SOL    HW228618   2.260   6.735   3.755  1.9397  0.6941  0.9306
 7253SOL     OW28619   2.792  10.117   8.029 -0.1629 -0.0219  0.5817
 7253SOL    HW128620   2.791  10.131   7.934 -1.4235  3.3351  0.9735
 7253SOL    HW228621   2.707  10.077   8.048 -1.8267  3.2062  0.6170
 7254SOL     OW28622   4.302  10.834   9.013 -0.5793 -0.1627 -0.1832
 7254SOL    HW128623   4.384  10.807   9.053 -0.1034  1.6126  0.1375
 7254SOL    HW228624   4.321  10.840   8.919 -0.3813  0.0682 -0.1302
 7255SOL     OW28625  10.086   0.686   9.992  0.1785 -0.6491 -0.6055
 7255SOL    HW128626  10.026   0.688   9.917 -2.2709  1.0991  1.2283
 7255SOL    HW228627  10.161   0.740   9.964 -0.5818 -0.2075 -1.8830
 7256SOL     OW28628  11.309   5.638   9.049 -0.1364 -0.0743  0.1364
 7256SOL    HW128629  11.397   5.622   9.083 -0.0673  0.4687  0.2226
 7256SOL    HW228630  11.317   5.626   8.954 -0.6382 -3.0318  0.3581
 7257SOL     OW28631   6.667   6.519   3.532  0.2378  0.1159  0.1878
 7257SOL    HW128632   6.642   6.473   3.613 -0.3433  0.7524  0.3788
 7257SOL    HW228633   6.591   6.574   3.512  1.3255  1.8392  0.5817
 7258SOL     OW28634   9.430   2.287   6.441 -0.3627  1.1206 -0.0797
 7258SOL    HW128635   9.484   2.245   6.374  0.1149  1.5189  0.0451
 7258SOL    HW228636   9.493   2.333   6.497 -0.3049 -2.1679  2.8932
 7259SOL     OW28637   2.938   2.306  10.154 -0.7081  0.0987  0.3240
 7259SOL    HW128638   2.988   2.382  10.186  0.2397 -1.0837  1.8050
 7259SOL    HW228639   2.969   2.293  10.064 -0.2189  0.9356  0.3614
 7260SOL     OW28640   8.011   5.473  10.753  0.2349 -0.2046 -0.0231
 7260SOL    HW128641   8.001   5.566  10.772  0.0866 -0.6287  2.2359
 7260SOL    HW228642   8.053   5.437  10.831 -1.0684 -2.2802 -0.1997
 7261SOL     OW28643   2.630   5.820  11.679  0.1655  0.2987 -0.5533
 7261SOL    HW128644   2.721   5.814  11.651  0.6889 -1.0070  1.2837
 7261SOL    HW228645   2.633   5.803  11.773 -1.9406  0.6283 -0.3917
 7262SOL     OW28646   7.156   7.314   6.045  0.4803  0.6128 -0.3254
 7262SOL    HW128647   7.231   7.351   6.091  0.2840  0.7659 -0.1261
 7262SOL    HW228648   7.168   7.219   6.051  0.1820  0.6182  0.5055
 7263SOL     OW28649   1.628  11.075   8.886  0.0230  0.8361 -0.0127
 7263SOL    HW128650   1.636  11.157   8.837  1.3288  0.2227 -0.8775
 7263SOL    HW228651   1.712  11.066   8.931  0.0065 -0.1679 -0.1639
 7264SOL     OW28652   3.005   0.188   0.914  0.1853  0.7688  0.1756
 7264SOL    HW128653   2.967   0.265   0.955 -0.5018  0.1215  0.7759
 7264SOL    HW228654   3.099   0.194   0.933 -0.1438  0.3806  2.0150
 7265SOL     OW28655  10.048  11.172  12.120 -0.2694 -0.1555 -0.2802
 7265SOL    HW128656   9.959  11.204  12.133  0.4870  1.7502  0.6911
 7265SOL    HW228657  10.050  11.086  12.163 -1.3301  0.2963  0.7051
 7266SOL     OW28658   8.869   5.640  11.812  0.3326 -0.7258 -0.5163
 7266SOL    HW128659   8.957   5.676  11.820 -0.4343  0.9996  0.6297
 7266SOL    HW228660   8.823   5.668  11.891 -1.2106 -1.7491 -0.9845
 7267SOL     OW28661  12.400   6.899   1.979 -0.2773  0.2284  0.2626
 7267SOL    HW128662  12.433   6.948   2.054  0.9849  2.9195 -1.8578
 7267SOL    HW228663  12.323   6.948   1.950 -1.3150 -1.3136  0.3064
 7268SOL     OW28664   7.310   7.133   5.732  0.0748 -0.3956 -0.2074
 7268SOL    HW128665   7.278   7.223   5.729  2.6004  0.7430  2.3585
 7268SOL    HW228666   7.232   7.080   5.749 -1.3542  1.3422 -1.0411
 7269SOL     OW28667   9.100  12.116   6.642  0.0015  0.8608 -0.1413
 7269SOL    HW128668   9.127  12.051   6.707 -0.5664  0.2211 -0.5184
 7269SOL    HW228669   9.143  12.197   6.669 -0.2661  0.6232  1.0529
 7270SOL     OW28670  12.011   1.426  12.277 -0.1914  0.0501  0.0375
 7270SOL    HW128671  12.094   1.388  12.247 -0.0736  0.2600  0.0921
 7270SOL    HW228672  11.990   1.492  12.211  1.0300  1.8353  1.3481
 7271SOL     OW28673   6.417  11.050   6.393  0.1742  0.3634 -0.0532
 7271SOL    HW128674   6.415  11.041   6.489  2.0033 -0.0327 -0.0180
 7271SOL    HW228675   6.419  11.144   6.378  0.1747  0.4232  0.3064
 7272SOL     OW28676  10.658   2.413   9.304  0.0548 -0.0028 -1.1796
 7272SOL    HW128677  10.564   2.419   9.287 -0.0898 -0.2122 -0.4802
 7272SOL    HW228678  10.678   2.492   9.354  0.3333  0.2483 -1.6856
 7273SOL     OW28679  10.643  12.262   6.142  0.3272  0.3318 -0.0704
 7273SOL    HW128680  10.643  12.183   6.088  0.0517  1.2354 -1.4269
 7273SOL    HW228681  10.688  12.236   6.222  0.0360 -1.2641 -0.3880
 7274SOL     OW28682   1.685   8.065   4.717  0.0714 -0.1780  0.5679
 7274SOL    HW128683   1.640   8.145   4.689 -0.9123 -1.3339 -1.3900
 7274SOL    HW228684   1.614   8.000   4.725  0.8835 -0.9449  1.8201
 7275SOL     OW28685   1.570  11.798  12.458  0.0255  0.5249  0.4230
 7275SOL    HW128686   1.532  11.856  12.392  0.6526  0.9699  0.4517
 7275SOL    HW228687   1.629  11.741  12.409  1.2655  1.5175  0.7200
 7276SOL     OW28688  12.427   8.305   9.247 -0.1014  0.0778 -0.6025
 7276SOL    HW128689  12.346   8.353   9.265 -0.3943 -0.0454 -1.5297
 7276SOL    HW228690  12.408   8.215   9.275 -0.4698 -0.0596 -1.2521
 7277SOL     OW28691  12.307   1.752  11.520 -0.1292 -0.0191 -0.7898
 7277SOL    HW128692  12.401   1.763  11.505  0.0423 -0.0860  0.1377
 7277SOL    HW228693  12.283   1.827  11.575 -0.8245  0.5180 -1.8037
 7278SOL     OW28694   6.729   4.629   9.411  0.4472  0.5055  0.4484
 7278SOL    HW128695   6.702   4.541   9.388 -2.4582  1.5964 -0.7050
 7278SOL    HW228696   6.802   4.648   9.352  0.9020 -0.9602  0.4976
 7279SOL     OW28697   0.950   9.258   9.737  0.0070  0.3004  0.1891
 7279SOL    HW128698   0.978   9.263   9.828 -1.3819  0.8644  0.6178
 7279SOL    HW228699   0.863   9.219   9.740 -0.6478  1.5885 -0.7370
 7280SOL     OW28700   4.818   4.373   1.045  0.0106 -0.1097 -0.3702
 7280SOL    HW128701   4.838   4.436   0.976 -0.9646 -1.3027 -1.8050
 7280SOL    HW228702   4.723   4.369   1.048  0.0486 -1.4575 -0.2836
 7281SOL     OW28703   0.210   3.714   0.864  0.4926  0.4871 -0.3180
 7281SOL    HW128704   0.262   3.751   0.792 -1.6125  2.6969 -0.8536
 7281SOL    HW228705   0.236   3.622   0.868  1.7633  0.6380 -2.9068
 7282SOL     OW28706   3.793   0.036   2.839 -0.3969 -0.1662 -0.2456
 7282SOL    HW128707   3.769   0.123   2.810 -2.5761 -0.4390  0.5945
 7282SOL    HW228708   3.754  -0.023   2.775 -1.3331 -0.5980  0.6952
 7283SOL     OW28709  10.678   2.436   2.938 -0.2331 -0.3756 -0.9530
 7283SOL    HW128710  10.641   2.364   2.887 -0.0963 -1.7342  0.7860
 7283SOL    HW228711  10.733   2.394   3.003  1.9983  1.4467 -1.5150
 7284SOL     OW28712   8.506   1.307   1.896 -0.2771 -0.1884  0.1053
 7284SOL    HW128713   8.497   1.270   1.984 -0.5110 -1.1854 -0.3158
 7284SOL    HW228714   8.495   1.231   1.838 -1.4596  0.6675 -0.8272
 7285SOL     OW28715   6.361  10.004   9.454  0.0612 -0.2359 -0.1395
 7285SOL    HW128716   6.436  10.013   9.514  0.2571  2.5204 -0.6759
 7285SOL    HW228717   6.286  10.030   9.507 -0.4747 -2.1976  0.1501
 7286SOL     OW28718   1.697   5.894   8.912  0.6949 -0.2567  0.6521
 7286SOL    HW128719   1.678   5.800   8.918 -0.7332 -0.5429 -4.0487
 7286SOL    HW228720   1.616   5.932   8.878  1.8493  2.4031  0.6734
 7287SOL     OW28721   8.367  12.042  11.575 -0.7066 -0.4437 -0.6856
 7287SOL    HW128722   8.449  11.993  11.580  0.1311  0.9685 -0.1282
 7287SOL    HW228723   8.334  12.043  11.665 -0.6153  0.1713 -0.6542
 7288SOL     OW28724   8.802   2.219   1.183 -0.4920  0.3722  0.3477
 7288SOL    HW128725   8.839   2.264   1.108  1.3484 -0.4062  0.7236
 7288SOL    HW228726   8.741   2.281   1.221  1.4798  2.3354  0.4931
 7289SOL     OW28727   5.649  11.153   3.509  0.2639 -0.2817 -0.3042
 7289SOL    HW128728   5.656  11.141   3.604 -0.4175 -0.6081 -0.2882
 7289SOL    HW228729   5.630  11.065   3.475  0.5442 -0.1743 -0.7441
 7290SOL     OW28730   6.672   6.331   6.583  0.3328 -0.5374 -0.4155
 7290SOL    HW128731   6.577   6.319   6.577  0.1205 -0.1449  1.5470
 7290SOL    HW228732   6.703   6.323   6.493 -1.8958  2.0892 -1.5623
 7291SOL     OW28733   2.431   9.300   0.779  0.0629  0.4361 -0.2189
 7291SOL    HW128734   2.490   9.225   0.786  1.6943  1.2309 -3.4900
 7291SOL    HW228735   2.478   9.372   0.822  0.0901  0.4012 -0.1906
 7292SOL     OW28736   0.037   7.540  12.471 -0.3475 -0.7660  0.3439
 7292SOL    HW128737   0.013   7.621  12.516 -2.1048 -1.6631  1.1219
 7292SOL    HW228738   0.065   7.481  12.541 -0.5340 -1.3196 -0.0423
 7293SOL     OW28739   6.025   3.575   3.996 -0.1399  0.0034  0.2230
 7293SOL    HW128740   6.004   3.595   3.904 -1.9906  0.2803  0.6662
 7293SOL    HW228741   6.036   3.480   3.998 -1.2274 -0.1410 -0.0945
 7294SOL     OW28742   5.126   1.713   1.615 -0.2551  0.4399 -0.2122
 7294SOL    HW128743   5.143   1.649   1.546 -0.0267 -0.1602  0.3903
 7294SOL    HW228744   5.152   1.797   1.576  0.2689  0.0565 -0.7123
 7295SOL     OW28745   8.444   0.712   9.873 -0.0843  0.1180 -0.2680
 7295SOL    HW128746   8.532   0.745   9.894  0.4820 -0.9946 -0.8236
 7295SOL    HW228747   8.394   0.726   9.953  0.8233  0.0262  0.3383
 7296SOL     OW28748   9.062   4.554   7.896 -0.1764  0.5543  0.7762
 7296SOL    HW128749   9.093   4.595   7.815 -1.3306 -0.3689 -0.1844
 7296SOL    HW228750   9.124   4.582   7.963  2.8946 -1.3077 -0.9949
 7297SOL     OW28751   3.852   3.610   0.634 -0.3004  0.0370  0.0452
 7297SOL    HW128752   3.882   3.701   0.634 -0.6673  0.1599  0.6650
 7297SOL    HW228753   3.814   3.597   0.721 -1.4619 -0.3137 -0.4964
 7298SOL     OW28754  12.161   0.404   1.820  0.0707  0.4191 -0.0866
 7298SOL    HW128755  12.218   0.355   1.760  1.8695  2.3237 -0.0313
 7298SOL    HW228756  12.181   0.368   1.906 -0.4784 -0.4222 -0.2952
 7299SOL     OW28757   1.515   8.478   2.828 -0.1939  0.2064  0.4640
 7299SOL    HW128758   1.573   8.474   2.752  0.8771 -0.5223  1.2947
 7299SOL    HW228759   1.481   8.568   2.827 -0.9195 -0.0315 -1.3613
 7300SOL     OW28760   9.009   1.884   6.496 -0.4988 -0.0371 -0.2789
 7300SOL    HW128761   9.068   1.929   6.556 -0.4514  0.2131 -0.5072
 7300SOL    HW228762   8.925   1.929   6.507  0.2491  2.2460 -2.7320
 7301SOL     OW28763   2.632   1.651   1.529 -0.5966 -0.1226 -0.1128
 7301SOL    HW128764   2.569   1.704   1.482 -0.4206 -0.4890 -0.7819
 7301SOL    HW228765   2.602   1.651   1.620 -1.2166  0.1918 -0.3176
 7302SOL     OW28766  11.882   0.944   9.788 -0.5317 -0.5646  0.6387
 7302SOL    HW128767  11.974   0.965   9.773 -1.0447  1.2718 -0.0984
 7302SOL    HW228768  11.865   0.871   9.728 -0.5254  1.6241 -2.2105
 7303SOL     OW28769   9.461   7.563   9.117 -0.2922  0.3299 -0.6313
 7303SOL    HW128770   9.490   7.648   9.150 -2.3521  0.2321  1.6444
 7303SOL    HW228771   9.543   7.518   9.094  0.9592  2.1937 -0.0707
 7304SOL     OW28772  10.341   9.951   7.384  0.2894 -0.3773 -0.1809
 7304SOL    HW128773  10.345  10.020   7.451 -1.4616  0.8705 -1.2438
 7304SOL    HW228774  10.334   9.999   7.302 -0.9744 -1.8241 -0.9640
 7305SOL     OW28775   0.127   4.558  10.866  0.5639 -0.9170  0.1762
 7305SOL    HW128776   0.081   4.478  10.840  2.0994 -1.7117 -0.1694
 7305SOL    HW228777   0.219   4.532  10.872  1.1440  0.9155 -0.3121
 7306SOL     OW28778  10.194   6.373   3.909  0.9530  0.0907  0.2307
 7306SOL    HW128779  10.163   6.463   3.922 -0.3604 -0.5658  2.1747
 7306SOL    HW228780  10.119   6.319   3.935  2.4629 -1.5750  1.3061
 7307SOL     OW28781   5.407  12.008   1.037 -0.2727  0.5730  0.1605
 7307SOL    HW128782   5.329  11.959   1.062 -0.0466 -0.3626 -0.8892
 7307SOL    HW228783   5.446  12.037   1.120 -0.8050 -0.4183  0.7663
 7308SOL     OW28784   6.202   6.246   7.326  0.3369 -0.0765  0.2104
 7308SOL    HW128785   6.242   6.276   7.407 -1.2099 -1.1365  1.4330
 7308SOL    HW228786   6.117   6.291   7.322  0.7095  0.5703 -1.2622
 7309SOL     OW28787   5.336   1.349   2.215 -0.5506  0.2128 -0.4555
 7309SOL    HW128788   5.393   1.413   2.256  0.9295 -0.0923 -1.9572
 7309SOL    HW228789   5.386   1.267   2.217 -2.0254 -0.7348  0.5767
 7310SOL     OW28790   0.183   8.001   7.238 -0.4977  0.4082 -0.3152
 7310SOL    HW128791   0.139   8.080   7.269 -1.4838 -0.7449  1.4475
 7310SOL    HW228792   0.117   7.955   7.186  0.2828  1.0307 -1.8909
 7311SOL     OW28793  11.328   3.906   7.209  0.2523 -0.2625  0.9054
 7311SOL    HW128794  11.313   3.818   7.243  0.7033 -0.4306  0.6674
 7311SOL    HW228795  11.307   3.901   7.116  1.2955 -0.3832  0.6681
 7312SOL     OW28796   3.499   6.247  10.498  0.3206 -0.0238  0.5062
 7312SOL    HW128797   3.464   6.318  10.551 -1.5675 -0.3824 -0.1949
 7312SOL    HW228798   3.442   6.243  10.422  0.8187 -1.8166  0.1777
 7313SOL     OW28799   1.597   5.658   7.390 -0.0878 -0.4081  0.1322
 7313SOL    HW128800   1.573   5.748   7.410 -1.5835 -0.5740 -0.7704
 7313SOL    HW228801   1.690   5.661   7.370  0.5829  0.4406  2.9160
 7314SOL     OW28802   9.977   0.883   6.041 -0.1317  0.0104  0.0574
 7314SOL    HW128803   9.958   0.834   5.961 -0.6165  0.8714 -0.3739
 7314SOL    HW228804  10.069   0.910   6.032  0.1365 -0.7940  0.2975
 7315SOL     OW28805   8.698   9.823   7.680 -0.1812  0.2792 -0.5097
 7315SOL    HW128806   8.751   9.879   7.622  0.8055  1.5941  1.5397
 7315SOL    HW228807   8.759   9.756   7.709  0.0059  0.9592  0.7372
 7316SOL     OW28808   7.787   3.739   1.308 -0.6040 -0.0834 -0.4527
 7316SOL    HW128809   7.756   3.649   1.319 -1.8080  0.4457  0.8037
 7316SOL    HW228810   7.857   3.732   1.244 -0.1376 -2.0371  0.1867
 7317SOL     OW28811   0.940   2.782   0.457 -0.4117 -0.5113 -0.5989
 7317SOL    HW128812   0.880   2.771   0.384  0.7053  1.7990 -1.9955
 7317SOL    HW228813   0.997   2.854   0.430  3.4597 -2.9410  0.2808
 7318SOL     OW28814   4.537  10.326  10.966  0.1993  0.7242 -0.0208
 7318SOL    HW128815   4.571  10.375  10.891  1.6451  1.5963  1.1501
 7318SOL    HW228816   4.542  10.234  10.938 -0.1010  1.0692 -1.2862
 7319SOL     OW28817   2.063   5.217  10.870  0.1428 -0.4406 -0.1652
 7319SOL    HW128818   2.071   5.147  10.935 -0.0385 -1.0762 -0.8108
 7319SOL    HW228819   2.147   5.262  10.873 -0.2495  0.2306  1.2743
 7320SOL     OW28820   8.996   9.122   0.102  0.1329  0.3359 -0.2937
 7320SOL    HW128821   9.030   9.162   0.022 -0.6425  0.7643 -0.4187
 7320SOL    HW228822   9.074   9.094   0.150  0.6651  1.4425 -0.4952
 7321SOL     OW28823   4.383   3.575   1.342  0.7563 -0.5338  0.0397
 7321SOL    HW128824   4.379   3.629   1.263 -0.6077 -0.5725  0.0739
 7321SOL    HW228825   4.468   3.596   1.381  0.3516  1.4308 -0.0657
 7322SOL     OW28826   7.662   6.729   1.100  0.2360  0.2954 -0.6047
 7322SOL    HW128827   7.576   6.743   1.140  0.7595  0.8834  0.3496
 7322SOL    HW228828   7.661   6.636   1.076 -0.0881 -0.1051  0.8482
 7323SOL     OW28829  12.319   2.459   9.560  0.1177 -0.2408 -0.0033
 7323SOL    HW128830  12.392   2.409   9.596  0.9572  1.2909  0.5192
 7323SOL    HW228831  12.351   2.487   9.474  0.5371  1.1769  0.5859
 7324SOL     OW28832   6.694   5.330   8.080  0.1986 -0.4403  0.1911
 7324SOL    HW128833   6.772   5.307   8.029  0.3162 -1.4437  0.8013
 7324SOL    HW228834   6.621   5.304   8.024  0.2615  0.9620 -0.5982
 7325SOL     OW28835   5.947   4.484   6.154 -0.3007  0.0265 -0.1195
 7325SOL    HW128836   6.018   4.494   6.090 -1.3312 -0.2043 -1.3342
 7325SOL    HW228837   5.946   4.391   6.175  0.0951  0.1160  0.3159
 7326SOL     OW28838   6.477   8.437   6.295 -0.2694  0.2207 -0.0626
 7326SOL    HW128839   6.392   8.442   6.253 -0.7595 -1.2679  0.6830
 7326SOL    HW228840   6.461   8.462   6.386 -0.1133 -0.9466  0.3007
 7327SOL     OW28841   1.494   3.298   5.674  0.0700 -0.8950  0.3745
 7327SOL    HW128842   1.480   3.392   5.662  1.5793 -0.3863  2.1371
 7327SOL    HW228843   1.416   3.257   5.636 -0.9699  1.0941  0.2288
 7328SOL     OW28844   4.223   4.632   2.609 -0.0921  0.4265 -0.2483
 7328SOL    HW128845   4.201   4.696   2.542  1.4912  0.6508 -0.5880
 7328SOL    HW228846   4.146   4.629   2.666 -2.4846 -1.4325 -3.2639
 7329SOL     OW28847   8.255   4.182   9.981  0.5045  0.4447 -0.2165
 7329SOL    HW128848   8.167   4.146   9.971  0.6334 -0.4356  1.5059
 7329SOL    HW228849   8.293   4.176   9.893 -0.2079 -1.7098 -0.4374
 7330SOL     OW28850   9.025   9.856  10.729 -0.2742 -0.4527 -0.5188
 7330SOL    HW128851   9.115   9.888  10.725  0.0053 -0.8336  1.5050
 7330SOL    HW228852   9.026   9.775  10.678  0.4173 -0.2084 -0.9047
 7331SOL     OW28853   9.242   3.511   0.645  0.1220 -0.1309 -0.3656
 7331SOL    HW128854   9.305   3.576   0.676  0.1007  0.3042 -1.2038
 7331SOL    HW228855   9.172   3.562   0.606 -0.2055 -0.6470 -0.4597
 7332SOL     OW28856   9.908   7.814   4.623 -0.1068 -0.2148  0.0925
 7332SOL    HW128857   9.825   7.770   4.603  1.4884 -2.3381 -2.5529
 7332SOL    HW228858   9.924   7.871   4.547  0.7052  0.4371  0.7351
 7333SOL     OW28859   9.250   7.064   3.978 -0.0388 -0.4510 -0.0165
 7333SOL    HW128860   9.187   6.992   3.974 -0.4949 -0.0393 -0.3925
 7333SOL    HW228861   9.224   7.114   4.055  1.9275 -2.1600  1.8961
 7334SOL     OW28862  10.492   0.610  11.682  0.0920 -0.3114  0.3798
 7334SOL    HW128863  10.525   0.520  11.677  0.3728 -0.1675 -0.4566
 7334SOL    HW228864  10.542   0.658  11.616  0.5674  0.6726  1.4157
 7335SOL     OW28865  12.124   0.549   5.904 -0.3095 -0.5220 -0.2519
 7335SOL    HW128866  12.126   0.474   5.846 -1.5786 -0.5851 -0.2536
 7335SOL    HW228867  12.102   0.623   5.847 -0.9402 -0.4785  0.0425
 7336SOL     OW28868  10.534   3.307   1.315 -0.5509  0.4473  0.5833
 7336SOL    HW128869  10.453   3.287   1.268 -0.2775 -1.0648  0.7000
 7336SOL    HW228870  10.506   3.328   1.404 -0.7529 -1.5902  1.0458
 7337SOL     OW28871  10.424   3.496   0.322  0.6245 -0.0614 -0.1154
 7337SOL    HW128872  10.428   3.561   0.392  0.7318  2.9156 -2.6550
 7337SOL    HW228873  10.332   3.469   0.319  0.6357 -0.2707  1.1879
 7338SOL     OW28874   9.043   9.234  11.019  0.0394 -0.4392  0.1033
 7338SOL    HW128875   8.964   9.260  10.971  0.2015  2.2385  1.1453
 7338SOL    HW228876   9.115   9.254  10.959  0.1334  1.1205  0.7093
 7339SOL     OW28877   8.074   5.716   0.689 -0.6322 -0.2208  0.1229
 7339SOL    HW128878   8.085   5.733   0.782 -1.5580 -1.6548  0.5358
 7339SOL    HW228879   7.999   5.770   0.663  0.3673  1.0850 -0.0838
 7340SOL     OW28880   4.614   5.699   8.490  0.2015  0.0548  0.0675
 7340SOL    HW128881   4.691   5.657   8.528 -0.4598 -0.6126  0.7178
 7340SOL    HW228882   4.587   5.640   8.419  0.6061  0.5724 -0.5250
 7341SOL     OW28883   6.863   9.410  10.319 -0.1905 -0.5554  0.2745
 7341SOL    HW128884   6.784   9.355  10.318 -0.5522 -0.0540 -1.3587
 7341SOL    HW228885   6.857   9.462  10.239  0.8464  0.8821  1.0811
 7342SOL     OW28886   6.768   2.914   9.560 -0.3049 -0.1701 -0.0600
 7342SOL    HW128887   6.757   2.820   9.546 -0.7553 -0.0183 -0.7601
 7342SOL    HW228888   6.862   2.926   9.568 -0.3284 -1.1497  3.5239
 7343SOL     OW28889   8.192   0.121   3.818 -0.4545 -0.1646 -0.4477
 7343SOL    HW128890   8.148   0.039   3.796  1.0776 -1.5014  1.1110
 7343SOL    HW228891   8.122   0.185   3.827 -1.9285 -1.7938  0.2931
 7344SOL     OW28892   0.093   8.226   7.652  0.5915 -0.1750  0.4090
 7344SOL    HW128893   0.058   8.311   7.677  0.1183  0.1813 -1.2985
 7344SOL    HW228894   0.185   8.242   7.633  0.4396  0.0258 -0.1745
 7345SOL     OW28895   0.300   1.605  12.064  0.0776 -0.0762  0.6087
 7345SOL    HW128896   0.207   1.585  12.054  0.3233 -0.4635 -1.1427
 7345SOL    HW228897   0.325   1.562  12.146 -0.5859 -2.6861 -0.4552
 7346SOL     OW28898  11.598   9.722  10.065  0.0136 -0.1354  0.0991
 7346SOL    HW128899  11.553   9.801  10.035  0.9897 -0.1395 -1.4916
 7346SOL    HW228900  11.532   9.675  10.116 -0.8526  1.2684  0.3178
 7347SOL     OW28901   7.096   7.252   3.743  0.6781  0.4012  0.4974
 7347SOL    HW128902   7.016   7.243   3.691 -0.6408  1.0668  2.2904
 7347SOL    HW228903   7.149   7.316   3.695 -0.7696  1.4872  0.2677
 7348SOL     OW28904   0.956  11.929  12.139  0.1856 -0.2359 -0.0711
 7348SOL    HW128905   0.873  11.882  12.147  0.3180 -0.6684 -1.0836
 7348SOL    HW228906   1.012  11.892  12.208  0.3975 -1.8289 -1.0472
 7349SOL     OW28907   2.652   9.236  11.996  0.1173 -0.3610 -0.3794
 7349SOL    HW128908   2.743   9.263  12.008 -0.1642  0.1398  0.7372
 7349SOL    HW228909   2.601   9.298  12.048 -0.9434 -0.1272 -1.6378
 7350SOL     OW28910   2.037  10.444  11.763 -0.0431 -0.8314  0.1667
 7350SOL    HW128911   1.948  10.451  11.798 -0.1460  0.4609 -0.3336
 7350SOL    HW228912   2.089  10.411  11.837  0.0818  3.3562  2.2027
 7351SOL     OW28913   8.536   3.244   7.166  0.1832 -0.8716  0.0971
 7351SOL    HW128914   8.602   3.235   7.097  0.2413  1.1319 -0.1776
 7351SOL    HW228915   8.520   3.338   7.172  0.0977 -0.9596  2.7362
 7352SOL     OW28916   5.663   8.327   3.442 -0.2915 -0.3276 -0.0254
 7352SOL    HW128917   5.637   8.308   3.352 -0.8756 -2.7077  0.5683
 7352SOL    HW228918   5.589   8.375   3.479 -0.3788 -0.0343 -0.5624
 7353SOL     OW28919   6.129   0.088   8.594  0.2495 -0.1294  0.9200
 7353SOL    HW128920   6.074   0.103   8.671  1.3261 -0.9215  1.8735
 7353SOL    HW228921   6.097   0.152   8.530  0.0320  1.3341  2.3898
 7354SOL     OW28922   4.716   0.466   2.785  0.2009 -0.3134 -0.0029
 7354SOL    HW128923   4.663   0.508   2.853  0.1249 -0.7960  0.2386
 7354SOL    HW228924   4.768   0.538   2.748 -1.4112  0.3810 -1.0052
 7355SOL     OW28925   5.776   1.627  12.147  0.5300  0.3437 -0.3066
 7355SOL    HW128926   5.776   1.667  12.234  0.6032  0.6393 -0.4440
 7355SOL    HW228927   5.852   1.664  12.103  0.6077  0.0431 -0.4294
 7356SOL     OW28928   0.638  11.402   7.946 -0.4654  0.0829 -0.1195
 7356SOL    HW128929   0.693  11.460   7.894 -1.1218  1.5862  0.7990
 7356SOL    HW228930   0.550  11.416   7.911 -0.5732 -0.6708 -0.1554
 7357SOL     OW28931  10.439  10.959   4.505  0.5888  0.2624  0.4618
 7357SOL    HW128932  10.449  10.986   4.596  1.0418  0.0995  0.4630
 7357SOL    HW228933  10.376  11.021   4.468  0.0130  0.0222  1.0161
 7358SOL     OW28934   7.905   5.878   8.381 -0.2085  0.5124  0.2191
 7358SOL    HW128935   7.884   5.944   8.447  0.8608  0.3862  0.7083
 7358SOL    HW228936   7.993   5.849   8.404 -0.4968 -0.7892 -0.2363
 7359SOL     OW28937   7.313   4.495   6.547 -0.1153  0.0061 -0.2285
 7359SOL    HW128938   7.329   4.449   6.629  0.8285 -0.3526 -0.6031
 7359SOL    HW228939   7.365   4.575   6.554  0.7680 -0.4923 -0.8670
 7360SOL     OW28940   7.852   3.198  12.306 -0.3979 -0.1562  0.0343
 7360SOL    HW128941   7.921   3.139  12.336 -1.2378 -1.8991 -1.2960
 7360SOL    HW228942   7.776   3.174  12.359 -0.3261  0.8789  0.6183
 7361SOL     OW28943   2.805   3.140   3.451  0.3904 -0.2455 -0.2069
 7361SOL    HW128944   2.843   3.053   3.438  0.4889 -0.4913  1.4990
 7361SOL    HW228945   2.808   3.153   3.546  1.5983  2.1661 -0.5116
 7362SOL     OW28946   3.611   5.502   5.271  0.3782 -0.0929  0.1408
 7362SOL    HW128947   3.628   5.547   5.354  2.3551 -1.6466  0.6699
 7362SOL    HW228948   3.547   5.435   5.294  0.4017 -0.0746  0.2610
 7363SOL     OW28949   3.962   8.053   2.966  0.1072  0.4379 -0.4282
 7363SOL    HW128950   3.944   8.143   2.992  2.0198  0.3024  1.5549
 7363SOL    HW228951   4.026   8.021   3.029  0.2520 -2.0068 -1.6849
 7364SOL     OW28952   3.375   3.058   8.949  0.5618 -0.0698  0.0094
 7364SOL    HW128953   3.341   3.145   8.971  2.2102  1.0633 -1.5562
 7364SOL    HW228954   3.300   3.000   8.959 -0.4389  1.4093  1.7405
 7365SOL     OW28955   6.846   4.645   6.865  0.2277  0.1308 -0.2902
 7365SOL    HW128956   6.913   4.586   6.831 -0.5272 -0.3974 -0.8851
 7365SOL    HW228957   6.806   4.684   6.788  1.1986  2.0205  0.1020
 7366SOL     OW28958   2.829   0.467  10.174 -0.4522 -0.2405 -0.4636
 7366SOL    HW128959   2.802   0.535  10.236 -0.4067  0.1482 -0.8658
 7366SOL    HW228960   2.760   0.401  10.179 -1.1269  0.4191 -0.9707
 7367SOL     OW28961   1.781   5.644   1.895  0.2983  0.5468  0.2108
 7367SOL    HW128962   1.814   5.585   1.828  2.6544  1.1876  0.6965
 7367SOL    HW228963   1.829   5.619   1.974 -0.5195  1.4716  1.0222
 7368SOL     OW28964   9.129   2.710   3.689  0.0302 -0.3583  0.0129
 7368SOL    HW128965   9.144   2.617   3.704 -0.3243 -0.1962  1.4889
 7368SOL    HW228966   9.203   2.753   3.731 -1.0194  0.1161  1.4639
 7369SOL     OW28967   2.839   6.052   7.487 -0.6527  0.1849 -0.4550
 7369SOL    HW128968   2.751   6.049   7.525 -0.1723  0.5733  0.7373
 7369SOL    HW228969   2.878   5.967   7.510 -0.1356  0.6715  0.5071
 7370SOL     OW28970   1.481   1.255  10.157  0.5148  0.0334  0.6126
 7370SOL    HW128971   1.401   1.251  10.209  0.2094 -1.3437  0.0770
 7370SOL    HW228972   1.459   1.210  10.076  1.2261  1.4448 -0.3995
 7371SOL     OW28973   3.444  12.224   1.099  0.0342 -0.0584 -0.3631
 7371SOL    HW128974   3.352  12.240   1.078  0.0170 -1.4449 -1.5697
 7371SOL    HW228975   3.441  12.157   1.167  0.1179 -1.1209 -1.3654
 7372SOL     OW28976   4.521  11.124  12.273 -0.4835  0.8439 -0.5866
 7372SOL    HW128977   4.428  11.103  12.275 -0.6852  1.4611 -2.0507
 7372SOL    HW228978   4.530  11.199  12.331 -0.6273 -0.0819  0.6779
 7373SOL     OW28979   5.163   4.052  11.318  0.0303 -0.1930  0.1399
 7373SOL    HW128980   5.156   4.075  11.225 -0.2061  0.5464  0.3268
 7373SOL    HW228981   5.073   4.055  11.350  0.0924 -0.6112  0.3539
 7374SOL     OW28982   9.863   4.442   5.690  0.0483  0.1929 -0.0559
 7374SOL    HW128983   9.768   4.435   5.683 -0.0384  0.6768  0.5675
 7374SOL    HW228984   9.891   4.484   5.609 -0.3046  0.3578 -0.0912
 7375SOL     OW28985   9.123   3.679   5.458 -0.2478 -0.3982  0.8445
 7375SOL    HW128986   9.087   3.768   5.457 -0.0396 -0.3143 -0.7259
 7375SOL    HW228987   9.056   3.625   5.416  0.5848 -0.5791 -0.2872
 7376SOL     OW28988   9.338   3.145   0.529  0.1448 -0.1491  0.2897
 7376SOL    HW128989   9.285   3.172   0.604  1.3130  2.0458  0.4080
 7376SOL    HW228990   9.424   3.183   0.546  0.6368 -0.2280 -1.8088
 7377SOL     OW28991   7.835   4.886   0.140 -0.6917 -0.0447  0.4908
 7377SOL    HW128992   7.750   4.851   0.114  1.0266 -2.5053 -2.3506
 7377SOL    HW228993   7.837   4.974   0.100 -2.0165  0.2259  0.9604
 7378SOL     OW28994   6.384   8.821   9.438  0.1693 -0.3451  1.0708
 7378SOL    HW128995   6.472   8.787   9.422  0.6243  0.8823  0.8232
 7378SOL    HW228996   6.393   8.873   9.518 -0.3931 -0.4289  1.1918
 7379SOL     OW28997   9.892   9.698   1.168  0.0254 -0.3888 -0.1426
 7379SOL    HW128998   9.805   9.661   1.183 -0.9693  0.7321 -2.6024
 7379SOL    HW228999   9.902   9.764   1.237 -1.1730 -0.3997  0.0712
 7380SOL     OW29000  10.725   9.175   2.525 -0.1559  0.4599  0.1306
 7380SOL    HW129001  10.805   9.124   2.537 -1.1426 -1.4393 -0.8578
 7380SOL    HW229002  10.752   9.266   2.536  1.8728 -0.2045  1.0639
 7381SOL     OW29003  10.871   9.376  10.275 -0.0071 -0.6053 -0.4300
 7381SOL    HW129004  10.853   9.470  10.273 -1.1458 -0.8110 -1.6098
 7381SOL    HW229005  10.960   9.369  10.309 -0.3835  0.8081  0.9547
 7382SOL     OW29006   8.005   7.833   8.548 -0.0444 -0.5770 -0.5951
 7382SOL    HW129007   8.018   7.875   8.463  0.3981  0.8962  0.1497
 7382SOL    HW229008   8.065   7.758   8.547  0.5098 -0.1452 -1.3173
 7383SOL     OW29009   9.687   1.141  10.108 -0.1702 -0.2991  0.1553
 7383SOL    HW129010   9.634   1.092  10.045  0.6063 -0.3704 -0.4586
 7383SOL    HW229011   9.715   1.219  10.060 -0.2856  0.0883  0.6985
 7384SOL     OW29012  11.405  10.103   1.391 -0.1149 -0.3877 -0.3332
 7384SOL    HW129013  11.410  10.180   1.447  1.0012 -0.5268 -0.2198
 7384SOL    HW229014  11.364  10.035   1.445  0.5672 -0.3967  0.1797
 7385SOL     OW29015  10.031   5.627   8.202  0.0753  0.2888 -0.0930
 7385SOL    HW129016   9.982   5.709   8.196  0.3453  0.4068 -0.9126
 7385SOL    HW229017  10.051   5.616   8.295 -1.1853  0.4240  0.2037
 7386SOL     OW29018   1.479   8.982   7.639 -0.0799 -0.3800 -0.3487
 7386SOL    HW129019   1.528   8.904   7.665 -1.8453 -2.2411 -2.2021
 7386SOL    HW229020   1.539   9.031   7.583  0.7609 -0.8887  0.0877
 7387SOL     OW29021   6.367  11.926  10.702 -0.6973  0.0414  0.2137
 7387SOL    HW129022   6.293  11.977  10.736 -1.1956 -2.0215  2.5229
 7387SOL    HW229023   6.429  11.921  10.775  1.1559  0.5712 -1.2328
 7388SOL     OW29024   9.257   0.952   5.679 -0.2322 -0.0588 -0.1576
 7388SOL    HW129025   9.232   1.021   5.740  0.5251  0.3728 -0.3234
 7388SOL    HW229026   9.236   0.871   5.725  0.9887  0.2382  0.9928
 7389SOL     OW29027  11.653   2.925   8.185 -0.4422  0.2206  0.3453
 7389SOL    HW129028  11.714   2.855   8.206  0.9352  0.8944 -1.1260
 7389SOL    HW229029  11.658   2.985   8.259 -0.2162 -0.3300  0.7777
 7390SOL     OW29030   2.827  11.205   1.409  0.2022 -0.2646 -0.1924
 7390SOL    HW129031   2.906  11.244   1.371  0.8183 -0.2807  1.0122
 7390SOL    HW229032   2.861  11.139   1.470 -0.7431 -0.3371  0.2669
 7391SOL     OW29033   2.820   6.933  10.505  0.0706 -0.7021  0.2515
 7391SOL    HW129034   2.905   6.896  10.480  0.6347 -0.3411  1.5380
 7391SOL    HW229035   2.811   7.010  10.449  0.8794 -0.4178  0.4876
 7392SOL     OW29036   5.295   3.509  11.935 -0.2078  0.0393  0.3209
 7392SOL    HW129037   5.272   3.584  11.990  1.3086  1.8133 -1.2979
 7392SOL    HW229038   5.254   3.528  11.851 -0.2183 -1.2378  0.0164
 7393SOL     OW29039  11.624   7.038  11.982 -0.0170  0.2501 -0.7608
 7393SOL    HW129040  11.704   6.996  12.015 -2.1517 -1.8459  2.3676
 7393SOL    HW229041  11.652   7.125  11.954  3.0615  0.3943  2.1705
 7394SOL     OW29042   0.692   6.920   5.841  0.0594  0.7920 -0.1360
 7394SOL    HW129043   0.631   6.960   5.903  0.3252 -0.2969  0.8534
 7394SOL    HW229044   0.737   6.995   5.801 -0.9724  1.5555  0.0791
 7395SOL     OW29045   9.843   3.756   3.769  0.3151  0.0007 -0.4595
 7395SOL    HW129046   9.925   3.730   3.728  0.7278 -0.0690  0.3837
 7395SOL    HW229047   9.775   3.718   3.714  0.8065  1.0814 -1.8601
 7396SOL     OW29048   5.109  11.048  12.112  0.4051  0.4006 -0.6262
 7396SOL    HW129049   5.122  11.142  12.127 -0.0600  0.4344 -0.4353
 7396SOL    HW229050   5.193  11.018  12.077 -0.0121  1.2432 -2.4503
 7397SOL     OW29051   5.338   0.617   0.887  0.3162  0.1578 -0.2998
 7397SOL    HW129052   5.278   0.552   0.922  0.8447 -0.7676 -1.0677
 7397SOL    HW229053   5.294   0.701   0.903 -1.2322 -0.4932 -0.9051
 7398SOL     OW29054   7.722  11.867  11.539 -0.4622  0.1668 -0.1116
 7398SOL    HW129055   7.796  11.819  11.501 -2.5089 -0.3904 -3.8464
 7398SOL    HW229056   7.757  11.955  11.555  1.6909 -0.8063  1.0340
 7399SOL     OW29057   8.944  12.207   4.607  0.1601  0.0502 -0.4683
 7399SOL    HW129058   8.977  12.251   4.685  0.5305 -1.2758  0.1516
 7399SOL    HW229059   8.859  12.248   4.590  0.5632  1.0917 -0.0177
 7400SOL     OW29060   3.914   7.366   4.465 -0.1629 -0.0158 -0.2197
 7400SOL    HW129061   3.936   7.378   4.558 -1.5498 -1.6436  0.3715
 7400SOL    HW229062   3.997   7.343   4.424  0.4347  0.4994  0.6582
 7401SOL     OW29063   4.119   0.747   2.928  0.1391  0.2373 -0.4616
 7401SOL    HW129064   4.120   0.839   2.956 -0.7070  0.4922 -1.2536
 7401SOL    HW229065   4.137   0.698   3.008  1.6415  1.1191 -0.2067
 7402SOL     OW29066  11.957   4.580   4.464  0.4986  0.0485 -0.6828
 7402SOL    HW129067  11.930   4.492   4.437 -0.8072  0.1241  0.2868
 7402SOL    HW229068  11.957   4.631   4.383  0.6456 -0.6890 -1.1532
 7403SOL     OW29069  10.650   0.503   7.796 -0.3523 -0.4437  0.4109
 7403SOL    HW129070  10.656   0.424   7.849  0.4370 -1.0172 -0.4876
 7403SOL    HW229071  10.711   0.564   7.838  0.3077 -0.9113  0.1639
 7404SOL     OW29072   9.614   0.241   3.158  0.3374 -0.5313 -0.3706
 7404SOL    HW129073   9.532   0.204   3.191 -0.3425  0.5424 -0.7918
 7404SOL    HW229074   9.607   0.233   3.063  0.8873 -0.7608 -0.3938
 7405SOL     OW29075   4.531   9.590   9.478 -0.2671 -0.0113 -0.1089
 7405SOL    HW129076   4.480   9.661   9.517  0.6631  0.7606 -0.2705
 7405SOL    HW229077   4.554   9.534   9.552  0.4939  0.8180  0.3033
 7406SOL     OW29078   6.903  12.186   6.164  0.0010 -0.0120  0.0504
 7406SOL    HW129079   6.969  12.162   6.099 -1.0451 -1.2927 -0.5748
 7406SOL    HW229080   6.865  12.267   6.129  0.0900 -0.1767 -0.4358
 7407SOL     OW29081   0.775  11.320  10.693  0.4236  0.2555 -0.4674
 7407SOL    HW129082   0.786  11.277  10.778  0.7601  0.6835 -0.2918
 7407SOL    HW229083   0.704  11.272  10.651  2.2800 -1.9728 -1.2421
 7408SOL     OW29084   9.310  12.266   7.971 -0.2479 -0.0606  0.1478
 7408SOL    HW129085   9.216  12.260   7.987 -0.3911 -0.5109 -0.7853
 7408SOL    HW229086   9.325  12.358   7.949 -0.8338 -0.3844 -1.7389
 7409SOL     OW29087   8.338  11.817  11.324  0.0693 -0.2717 -0.1028
 7409SOL    HW129088   8.324  11.741  11.268 -1.8539 -0.2885  0.3569
 7409SOL    HW229089   8.296  11.794  11.407 -0.1197  1.1101  0.2051
 7410SOL     OW29090   1.888   9.896   7.217  0.0217 -0.3587 -0.8387
 7410SOL    HW129091   1.797   9.906   7.246 -0.3209  0.4179 -2.0788
 7410SOL    HW229092   1.897   9.961   7.146  1.3700 -0.8335 -1.1237
 7411SOL     OW29093   6.724   2.190  12.425  0.2056  0.2247 -0.1151
 7411SOL    HW129094   6.721   2.183  12.520 -0.4972 -0.9358 -0.1979
 7411SOL    HW229095   6.758   2.277  12.408  1.1030  0.1621  1.2055
 7412SOL     OW29096   4.444   1.190  10.123 -0.0135  0.4971  0.1909
 7412SOL    HW129097   4.376   1.201  10.057 -0.8675 -0.1976  0.9430
 7412SOL    HW229098   4.455   1.277  10.161  0.1769  0.8056 -0.5448
 7413SOL     OW29099   1.032   7.143   8.711 -0.1338 -0.2101 -0.0215
 7413SOL    HW129100   0.996   7.055   8.708  0.5241 -0.4704 -1.9350
 7413SOL    HW229101   1.094   7.146   8.637 -1.4929  2.4056 -1.1985
 7414SOL     OW29102   4.374   3.664   2.271  0.9592 -0.0962 -0.5570
 7414SOL    HW129103   4.297   3.650   2.326  0.6736 -0.0577 -0.9490
 7414SOL    HW229104   4.350   3.630   2.185  1.2704  0.1953 -0.7634
 7415SOL     OW29105   3.019  10.268   5.885  0.8661  0.2926  0.2123
 7415SOL    HW129106   2.945  10.261   5.825  0.2177 -0.1046  1.0427
 7415SOL    HW229107   3.054  10.356   5.871 -0.1600  0.7201  0.2635
 7416SOL     OW29108   8.139   9.523   7.450  0.4197 -0.7520 -0.2260
 7416SOL    HW129109   8.231   9.523   7.477  0.3320  1.2410  0.2349
 7416SOL    HW229110   8.114   9.616   7.451 -1.6979 -1.2848 -0.0081
 7417SOL     OW29111   5.750   4.931   4.119 -0.0598  0.0207  0.2066
 7417SOL    HW129112   5.677   4.897   4.067  0.0793 -0.3709  0.2644
 7417SOL    HW229113   5.767   4.864   4.184  0.2472  0.1812  0.2973
 7418SOL     OW29114   2.973   7.232   8.294  0.1566  0.6045 -0.0934
 7418SOL    HW129115   2.960   7.138   8.283  0.6449  0.6427 -1.0824
 7418SOL    HW229116   2.978   7.266   8.205  1.9873  1.2893  0.2353
 7419SOL     OW29117   3.345   5.274   8.142  0.2961 -0.2168  0.0020
 7419SOL    HW129118   3.387   5.221   8.074  1.2682  0.4943  0.0287
 7419SOL    HW229119   3.259   5.294   8.107  0.5624 -0.3713 -0.7560
 7420SOL     OW29120   0.185   4.129   9.904 -0.2879  0.0393  0.7406
 7420SOL    HW129121   0.093   4.101   9.898 -0.6396  1.4333 -2.9114
 7420SOL    HW229122   0.182   4.209   9.956 -1.1849  0.1946  0.4650
 7421SOL     OW29123   8.439   0.079   1.026  0.2812  0.1063 -0.0761
 7421SOL    HW129124   8.452   0.160   1.076 -2.1329  1.1641 -0.9932
 7421SOL    HW229125   8.394   0.021   1.088  0.5712  0.0565  0.0903
 7422SOL     OW29126   2.323   3.765  11.401  0.1123 -0.2275  0.5051
 7422SOL    HW129127   2.295   3.714  11.325  0.2215  0.3065  0.1024
 7422SOL    HW229128   2.301   3.855  11.378 -0.0992 -0.0949  1.2222
 7423SOL     OW29129   0.245   2.014  10.635 -0.1807 -0.0202 -0.3662
 7423SOL    HW129130   0.249   2.055  10.721  2.0703  1.1756 -0.9597
 7423SOL    HW229131   0.251   1.920  10.652 -1.5682  0.0720  0.8358
 7424SOL     OW29132   4.045   2.075   8.735 -0.3578 -0.3157 -0.3380
 7424SOL    HW129133   3.952   2.088   8.719 -0.2058  0.8768 -0.3196
 7424SOL    HW229134   4.087   2.153   8.698  0.8075 -1.6055 -1.9058
 7425SOL     OW29135  11.009   3.033   6.439  0.1493  0.1759 -0.5712
 7425SOL    HW129136  11.102   3.038   6.419  0.1668  3.1158 -0.2093
 7425SOL    HW229137  10.965   3.070   6.362 -0.6136  0.1459 -0.1670
 7426SOL     OW29138   7.295   9.085   2.311 -0.0364 -0.3558  0.3200
 7426SOL    HW129139   7.209   9.110   2.344  0.0288  1.0677 -0.5200
 7426SOL    HW229140   7.356   9.123   2.374 -0.0030 -2.5298  1.6867
 7427SOL     OW29141   6.352   3.837   0.926  0.4702  0.1130 -0.5798
 7427SOL    HW129142   6.340   3.931   0.940 -0.5238 -0.1312  0.3881
 7427SOL    HW229143   6.340   3.798   1.013 -0.3716 -1.0087 -1.1729
 7428SOL     OW29144   3.827   9.157  11.855  0.2622  0.7900  0.0234
 7428SOL    HW129145   3.752   9.098  11.856 -1.0397  2.3622 -0.7120
 7428SOL    HW229146   3.888   9.120  11.919 -1.1779 -0.4760  0.7126
 7429SOL     OW29147   2.236   2.864  11.120  0.2505 -0.1149 -0.2493
 7429SOL    HW129148   2.205   2.824  11.039 -1.4960  0.3872  0.1307
 7429SOL    HW229149   2.269   2.950  11.094  0.3282 -0.2231 -0.5112
 7430SOL     OW29150   6.474   5.690   4.575  0.1133 -0.2824 -0.1965
 7430SOL    HW129151   6.439   5.703   4.487  0.6762  1.2469 -0.2407
 7430SOL    HW229152   6.403   5.715   4.634  0.1230 -0.1502 -0.2403
 7431SOL     OW29153  11.867   0.462   7.057 -0.2398  0.1686 -0.0447
 7431SOL    HW129154  11.889   0.390   6.999 -0.8435  1.0027 -1.3564
 7431SOL    HW229155  11.928   0.532   7.033  1.4830 -0.3931  2.3547
 7432SOL     OW29156   1.598   2.684   3.842 -0.0207  0.2935 -0.1187
 7432SOL    HW129157   1.624   2.770   3.875 -0.4509  0.3195  0.1682
 7432SOL    HW229158   1.671   2.626   3.862  0.9504  0.8975 -1.6933
 7433SOL     OW29159   4.910   5.473   0.095 -0.1498  0.3231  0.3535
 7433SOL    HW129160   4.928   5.494   0.187 -1.9265  0.1610  0.7761
 7433SOL    HW229161   4.996   5.473   0.053  0.5327  2.1832  1.6257
 7434SOL     OW29162   4.128   5.449   4.932  0.2045 -1.0298  0.5247
 7434SOL    HW129163   4.052   5.432   4.988 -0.4234 -0.7423 -0.2168
 7434SOL    HW229164   4.170   5.364   4.921  0.0737 -1.1642  1.0577
 7435SOL     OW29165   1.824   9.299   9.800 -0.0435 -0.1432  0.3807
 7435SOL    HW129166   1.780   9.301   9.715  0.4813 -0.7834  0.0871
 7435SOL    HW229167   1.759   9.333   9.861  0.0216  1.6470 -0.4663
 7436SOL     OW29168  12.377   1.147   5.539 -0.5176  0.0219 -0.7945
 7436SOL    HW129169  12.421   1.157   5.455 -0.5420 -0.3343 -0.8514
 7436SOL    HW229170  12.446   1.161   5.604  0.5743 -3.8816 -0.8406
 7437SOL     OW29171   6.350   5.392   6.447 -0.2471  0.2969  0.0936
 7437SOL    HW129172   6.347   5.297   6.464 -1.6411  0.4811  1.0535
 7437SOL    HW229173   6.390   5.429   6.526  0.9936  0.4693 -0.5918
 7438SOL     OW29174  10.398   6.233   1.684  0.0845 -0.0436  0.3055
 7438SOL    HW129175  10.385   6.263   1.594  2.4691  0.1389 -0.0505
 7438SOL    HW229176  10.493   6.233   1.695 -0.1416 -0.4356  2.7127
 7439SOL     OW29177   8.703   1.025  11.462  0.6533 -0.1605  0.0499
 7439SOL    HW129178   8.734   1.110  11.493 -1.4106  0.5295  0.3949
 7439SOL    HW229179   8.642   0.995  11.529 -1.1175 -0.3627 -1.5494
 7440SOL     OW29180   5.973   1.436  10.277  0.4231  0.4761 -0.6921
 7440SOL    HW129181   5.985   1.520  10.234 -0.2579  0.9424 -0.0134
 7440SOL    HW229182   5.939   1.459  10.364 -2.3882 -0.5499 -1.3983
 7441SOL     OW29183   3.386   5.604   2.016  0.1690  0.4626 -0.1643
 7441SOL    HW129184   3.443   5.532   2.041 -1.1112 -0.1102  1.2520
 7441SOL    HW229185   3.303   5.586   2.060 -1.4046  0.8533 -2.7592
 7442SOL     OW29186   2.076   6.104   5.010 -0.2374 -0.1949  0.6316
 7442SOL    HW129187   2.078   6.094   4.915 -2.6125  1.6860  0.2644
 7442SOL    HW229188   2.164   6.080   5.039  0.7308 -0.2812 -2.0775
 7443SOL     OW29189   9.419   4.195   5.587  0.2567  0.2359  0.4731
 7443SOL    HW129190   9.469   4.276   5.585 -0.7470  0.9453  1.9401
 7443SOL    HW229191   9.428   4.158   5.499  1.2400  1.6096 -0.0285
 7444SOL     OW29192   9.975   2.120   0.073 -0.1461  0.1016  0.0776
 7444SOL    HW129193  10.020   2.036   0.079  1.1143  0.7125 -0.4999
 7444SOL    HW229194   9.908   2.106   0.005 -0.5830 -0.6916  0.6495
 7445SOL     OW29195   7.331   3.629   8.090 -0.2379  0.3667 -0.0343
 7445SOL    HW129196   7.243   3.651   8.121  0.1053 -0.5600  1.7255
 7445SOL    HW229197   7.322   3.623   7.995 -1.7342  1.7010 -0.0266
 7446SOL     OW29198  10.000   8.023   0.971  0.1015  0.3951  0.2707
 7446SOL    HW129199  10.028   8.027   0.880  0.8826 -1.8399  0.3553
 7446SOL    HW229200   9.928   7.961   0.972  0.4224  0.0228  1.2427
 7447SOL     OW29201   3.766   9.101   0.006 -0.7185  0.4243  0.3234
 7447SOL    HW129202   3.751   9.034   0.073 -0.7086 -0.6917 -0.7618
 7447SOL    HW229203   3.707   9.173   0.031 -1.3746 -0.3410  1.0219
 7448SOL     OW29204   7.856   2.566  12.329  0.5426  0.0029 -0.2000
 7448SOL    HW129205   7.939   2.593  12.288  0.7735  1.1849  0.9685
 7448SOL    HW229206   7.811   2.649  12.346  0.3804 -0.4543  1.7417
 7449SOL     OW29207   9.113  10.112   9.943  0.0766 -0.0858  0.7413
 7449SOL    HW129208   9.151  10.154  10.020  0.6702 -1.1211  1.0180
 7449SOL    HW229209   9.132  10.019   9.954  1.5525 -0.1027 -1.4197
 7450SOL     OW29210   5.115   2.510   9.696  0.0541 -0.1301 -0.2917
 7450SOL    HW129211   5.128   2.495   9.602  0.0377 -2.6867  0.0429
 7450SOL    HW229212   5.025   2.481   9.712  0.6095 -1.3426  0.7744
 7451SOL     OW29213   8.192   6.829   3.530  0.0629  0.1713 -0.5151
 7451SOL    HW129214   8.180   6.809   3.623  1.1724 -1.1458 -0.6306
 7451SOL    HW229215   8.271   6.883   3.527 -0.0232  0.2899 -0.6921
 7452SOL     OW29216   6.000   6.479   3.282 -0.2807  0.6049  0.0625
 7452SOL    HW129217   6.083   6.477   3.331  0.2045  2.2803 -0.6188
 7452SOL    HW229218   5.945   6.540   3.331 -0.8210  0.1334  0.0485
 7453SOL     OW29219  10.635   9.657   6.609 -0.7661  0.0361 -0.2375
 7453SOL    HW129220  10.585   9.684   6.686  0.1934  2.2655 -0.3428
 7453SOL    HW229221  10.727   9.671   6.634 -0.4702  1.6539 -2.0505
 7454SOL     OW29222   9.446   3.860  11.066  0.4266  0.3538 -0.1156
 7454SOL    HW129223   9.537   3.839  11.046  0.3247 -0.5886  0.3335
 7454SOL    HW229224   9.407   3.776  11.093 -0.5629  0.7460 -0.2693
 7455SOL     OW29225   4.417   9.775   4.325 -0.9900  0.7372 -0.0640
 7455SOL    HW129226   4.511   9.780   4.345 -1.0162  1.1490 -0.0367
 7455SOL    HW229227   4.398   9.857   4.278 -1.4622  0.9531  0.4895
 7456SOL     OW29228   5.416   7.580   0.472  0.1045  0.3969 -0.1511
 7456SOL    HW129229   5.349   7.623   0.526 -0.0625  0.7450 -0.6316
 7456SOL    HW229230   5.459   7.519   0.532 -0.3520  0.4846  0.2751
 7457SOL     OW29231  10.541  11.681   9.668 -0.0591  0.1175 -0.2495
 7457SOL    HW129232  10.626  11.647   9.696  1.0381  3.0743  0.4532
 7457SOL    HW229233  10.483  11.665   9.743  0.0188 -1.3156 -0.4692
 7458SOL     OW29234   5.652   8.742  10.522 -0.0193  0.1771  0.0956
 7458SOL    HW129235   5.711   8.800  10.475 -0.0381  1.1775  1.2552
 7458SOL    HW229236   5.699   8.658  10.528  1.4476  1.0319  1.2452
 7459SOL     OW29237  11.569   9.521   2.251  0.2006 -0.5189 -0.4472
 7459SOL    HW129238  11.562   9.551   2.161 -1.4202  0.1498 -0.1359
 7459SOL    HW229239  11.627   9.584   2.293  1.5464 -1.2455 -1.1686
 7460SOL     OW29240   2.328   6.525  11.184 -0.2679 -0.3405  0.0192
 7460SOL    HW129241   2.273   6.530  11.105 -0.7809  0.1139  0.4053
 7460SOL    HW229242   2.310   6.438  11.219  1.2381 -1.2314 -1.2776
 7461SOL     OW29243   8.986   7.851   8.853 -0.1019  0.6964 -0.5743
 7461SOL    HW129244   9.042   7.777   8.830 -0.9723  0.2797 -1.4384
 7461SOL    HW229245   9.046   7.917   8.888  0.8526  0.0641 -0.9702
 7462SOL     OW29246   9.661   4.608   7.725 -0.3429  0.8217  0.3190
 7462SOL    HW129247   9.638   4.604   7.633 -0.4554  1.3376  0.3195
 7462SOL    HW229248   9.756   4.596   7.726 -0.4976 -0.5001  0.2535
 7463SOL     OW29249   3.902  11.979  11.664  0.3151  0.8055 -0.1251
 7463SOL    HW129250   3.888  12.074  11.672 -0.1937  0.8632 -1.4029
 7463SOL    HW229251   3.856  11.955  11.583 -1.0820 -0.8390  1.0897
 7464SOL     OW29252   8.229   0.403   3.960  0.2155  0.1405 -0.1963
 7464SOL    HW129253   8.273   0.397   4.045 -1.4392 -1.9504  0.6149
 7464SOL    HW229254   8.261   0.328   3.911 -1.0991 -0.4477 -0.2121
 7465SOL     OW29255   2.767   5.612  11.340 -0.6432  0.2375 -0.0768
 7465SOL    HW129256   2.816   5.640  11.417  0.9136  2.6145 -1.8107
 7465SOL    HW229257   2.722   5.690  11.310 -0.0580 -0.2290 -2.3617
 7466SOL     OW29258   9.878   0.360   8.354 -0.1354  0.3070  0.1200
 7466SOL    HW129259   9.950   0.375   8.292  0.0311 -1.8625 -0.2968
 7466SOL    HW229260   9.799   0.368   8.301 -0.1377  1.0378  0.2200
 7467SOL     OW29261  10.066   9.219   6.920  0.0540  0.5267  0.3026
 7467SOL    HW129262  10.146   9.258   6.886  0.5916 -1.0143 -0.3177
 7467SOL    HW229263  10.080   9.214   7.015  1.0487 -0.3873  0.1378
 7468SOL     OW29264  11.597   2.333   7.241 -0.6219  0.1246  0.3797
 7468SOL    HW129265  11.658   2.292   7.179 -1.0121 -0.6194  0.4802
 7468SOL    HW229266  11.585   2.422   7.206 -1.6710 -0.6049 -1.2512
 7469SOL     OW29267   3.495   6.819   8.341 -0.1564  1.0026  0.1356
 7469SOL    HW129268   3.466   6.765   8.414 -0.0967 -1.5435 -1.6168
 7469SOL    HW229269   3.587   6.796   8.329 -0.0285  1.7648 -0.4258
 7470SOL     OW29270   7.492   8.856   0.397  0.1068  0.1283 -0.5098
 7470SOL    HW129271   7.429   8.797   0.355 -0.4888 -0.2016  0.7958
 7470SOL    HW229272   7.578   8.820   0.371 -0.2136  0.3460 -1.9709
 7471SOL     OW29273   4.744   8.806   6.897  0.3862  0.5110  0.1983
 7471SOL    HW129274   4.776   8.884   6.852  0.0895  0.8629  0.5934
 7471SOL    HW229275   4.795   8.801   6.977  0.5813  0.1534  0.0522
 7472SOL     OW29276   9.345   9.044  10.041 -0.1434  0.4617 -0.4209
 7472SOL    HW129277   9.364   8.977   9.975 -0.4552  2.2413 -2.4129
 7472SOL    HW229278   9.250   9.042  10.052 -0.1096  0.2918 -0.1493
 7473SOL     OW29279   1.763   3.275  10.526 -0.2675 -0.2845  0.1519
 7473SOL    HW129280   1.701   3.206  10.550 -1.1208  0.1435 -0.7559
 7473SOL    HW229281   1.753   3.284  10.431 -0.4862  1.3925  0.3137
 7474SOL     OW29282   6.204   8.740   4.326 -0.7022  0.2596  0.3143
 7474SOL    HW129283   6.209   8.812   4.389  0.5556  1.7117 -1.3419
 7474SOL    HW229284   6.293   8.708   4.319 -1.2829 -1.6550  1.1593
 7475SOL     OW29285  12.079   5.791   5.597 -0.2456  0.3598  0.0806
 7475SOL    HW129286  12.041   5.829   5.518 -2.7508 -1.6408  0.1866
 7475SOL    HW229287  12.121   5.710   5.567  1.4357  1.0599  0.4295
 7476SOL     OW29288   4.512  10.242   1.521  0.3955 -0.3755  0.4645
 7476SOL    HW129289   4.560  10.161   1.498  1.8656  0.0999  1.6887
 7476SOL    HW229290   4.551  10.270   1.604 -0.9132  0.9611  0.6575
 7477SOL     OW29291   1.614   3.733   6.630  0.2977  0.2634  0.2417
 7477SOL    HW129292   1.619   3.784   6.711  1.9576 -0.0808  0.3922
 7477SOL    HW229293   1.689   3.762   6.579  0.3246 -0.8328 -0.3741
 7478SOL     OW29294   7.289   6.140   8.105  0.3575 -0.3983  0.2522
 7478SOL    HW129295   7.374   6.156   8.146  0.4562  0.0296 -0.1214
 7478SOL    HW229296   7.231   6.204   8.145  0.1683 -0.7937  0.6230
 7479SOL     OW29297  11.881   3.267   5.515 -0.0217 -0.1480  0.1772
 7479SOL    HW129298  11.872   3.174   5.537 -0.2786 -0.1258  0.1635
 7479SOL    HW229299  11.831   3.278   5.434  0.5934 -0.1437 -0.2115
 7480SOL     OW29300   9.358  10.752  10.944 -0.5064 -0.0714  0.6760
 7480SOL    HW129301   9.407  10.809  11.003 -0.2752  0.5858 -0.1224
 7480SOL    HW229302   9.426  10.713  10.888 -0.8113  0.1593  0.1383
 7481SOL     OW29303   4.501   6.846   1.841  0.0142  0.3950 -0.0930
 7481SOL    HW129304   4.466   6.867   1.928 -0.1629  1.3842 -0.3949
 7481SOL    HW229305   4.504   6.750   1.840  1.0120  0.3684  1.3870
 7482SOL     OW29306   2.030   7.982   0.632  0.1011 -0.0341  0.5293
 7482SOL    HW129307   2.070   7.903   0.668 -0.7614 -0.5085  0.4650
 7482SOL    HW229308   2.084   8.003   0.556 -1.1881 -2.1448 -1.1099
 7483SOL     OW29309   5.735   9.223  11.890  0.2286 -0.1304 -0.1767
 7483SOL    HW129310   5.777   9.279  11.956 -1.7072 -0.8330  1.8016
 7483SOL    HW229311   5.807   9.179  11.846  1.7004  2.0697 -0.1190
 7484SOL     OW29312  12.416  11.435   3.803  0.2400 -0.2191 -0.2122
 7484SOL    HW129313  12.452  11.509   3.851  2.5430 -2.3313  1.5822
 7484SOL    HW229314  12.380  11.377   3.870  2.3283 -2.6304 -1.0014
 7485SOL     OW29315   0.681   6.921   0.571 -0.1637  0.2138 -0.2015
 7485SOL    HW129316   0.774   6.917   0.595 -0.1642  0.1972 -0.2026
 7485SOL    HW229317   0.643   6.843   0.612 -0.3102  0.5806  0.3721
 7486SOL     OW29318   4.646   4.742   1.944 -0.7547  0.6883 -0.3532
 7486SOL    HW129319   4.639   4.773   2.034 -0.5008 -0.6715  0.1693
 7486SOL    HW229320   4.728   4.778   1.912 -0.6952  0.9360  0.0731
 7487SOL     OW29321  11.557  11.051  10.783  0.0681  0.3245 -0.3051
 7487SOL    HW129322  11.636  11.099  10.808  0.3423  0.3781 -1.2516
 7487SOL    HW229323  11.503  11.051  10.862 -0.1220  2.5595 -0.3690
 7488SOL     OW29324  12.005   0.896  11.057  0.3729 -0.1984 -0.0071
 7488SOL    HW129325  11.991   0.990  11.050 -0.6096 -0.4225 -1.8101
 7488SOL    HW229326  12.086   0.880  11.008  1.0566 -0.2084  1.0921
 7489SOL     OW29327   9.284   6.138   7.834 -0.2988  0.1710 -0.0949
 7489SOL    HW129328   9.324   6.077   7.772 -2.4110 -1.9549  0.4776
 7489SOL    HW229329   9.222   6.188   7.781 -1.8141 -1.3680  0.1505
 7490SOL     OW29330   9.669   1.048   6.616  0.8067  0.3450  0.1757
 7490SOL    HW129331   9.592   0.991   6.610  1.6679 -0.9310  0.7798
 7490SOL    HW229332   9.742   0.993   6.585  1.3371  1.8663 -1.4390
 7491SOL     OW29333  12.001   6.408   2.712  0.1996 -0.0194 -0.2795
 7491SOL    HW129334  12.062   6.482   2.709 -0.2556  0.3612 -0.1898
 7491SOL    HW229335  12.022   6.357   2.633 -0.4948  1.0084 -1.1583
 7492SOL     OW29336   9.454   6.109  12.298 -0.1322 -0.3375 -0.0618
 7492SOL    HW129337   9.498   6.094  12.381 -1.5112 -0.4948  0.6697
 7492SOL    HW229338   9.513   6.167  12.250 -0.1368  1.3104  1.7853
 7493SOL     OW29339   5.243  10.492   1.347  0.0584 -0.3281  0.6822
 7493SOL    HW129340   5.281  10.419   1.297 -2.2873 -1.2002  0.0311
 7493SOL    HW229341   5.287  10.488   1.432  1.6296 -1.0367 -0.1155
 7494SOL     OW29342   9.326  10.595  11.888 -0.8262 -0.1932 -0.1815
 7494SOL    HW129343   9.238  10.592  11.852 -1.0210  1.4876  0.0897
 7494SOL    HW229344   9.324  10.532  11.960 -2.0574  0.3973  0.3304
 7495SOL     OW29345  11.734   2.662   6.572  0.2942 -0.1830  0.0615
 7495SOL    HW129346  11.783   2.719   6.513  0.1684  0.7401  0.8238
 7495SOL    HW229347  11.704   2.720   6.642 -1.3627 -0.8573 -0.0607
 7496SOL     OW29348   8.845  12.443   6.754  0.3989  0.4458  0.4369
 7496SOL    HW129349   8.840  12.421   6.848 -1.7479  1.4157  0.6215
 7496SOL    HW229350   8.755  12.432   6.723  0.8173  1.3976 -1.2186
 7497SOL     OW29351   4.558   4.119   0.850  0.4744 -0.1583  0.7159
 7497SOL    HW129352   4.513   4.151   0.772 -0.8651 -2.7690  0.2892
 7497SOL    HW229353   4.507   4.152   0.923 -2.3518 -2.9620  0.2474
 7498SOL     OW29354  10.425   5.900   5.494  0.3264 -0.5274  0.1815
 7498SOL    HW129355  10.426   5.931   5.585 -0.0110  0.7599 -0.2344
 7498SOL    HW229356  10.517   5.886   5.472  0.5707  0.8757  0.1834
 7499SOL     OW29357   3.608  10.066   9.587  0.0020  0.0416 -0.1563
 7499SOL    HW129358   3.696  10.030   9.597  0.5319  1.1989 -0.4633
 7499SOL    HW229359   3.571  10.019   9.512  0.1211 -0.8850  0.3621
 7500SOL     OW29360   4.937   3.486   1.755  0.0608 -0.1727 -0.6977
 7500SOL    HW129361   4.850   3.477   1.793  0.8622 -0.6577  1.0826
 7500SOL    HW229362   4.924   3.467   1.662 -2.0965  1.8700 -0.9052
 7501SOL     OW29363   7.820   8.531   2.444 -0.2179 -0.0651 -0.2519
 7501SOL    HW129364   7.829   8.584   2.523 -0.2861  0.6799 -0.7427
 7501SOL    HW229365   7.824   8.593   2.372  0.0591 -0.7634 -0.8507
 7502SOL     OW29366  12.048   7.498  10.860 -0.3875 -0.3196  0.1854
 7502SOL    HW129367  12.030   7.572  10.918  2.3667 -1.7728  3.2358
 7502SOL    HW229368  11.963   7.456  10.848 -1.3389  0.9299  1.9775
 7503SOL     OW29369   6.565   7.731   0.602 -0.1071 -0.2723 -0.4419
 7503SOL    HW129370   6.481   7.744   0.646 -1.0300  3.2138 -2.8527
 7503SOL    HW229371   6.628   7.779   0.657 -0.1173 -0.8484  0.0844
 7504SOL     OW29372   6.089   0.977   7.265 -0.1969  0.5288 -0.6152
 7504SOL    HW129373   6.081   0.988   7.170  0.2746 -0.6263 -0.7980
 7504SOL    HW229374   6.156   1.040   7.291  0.8843 -0.2892 -1.3143
 7505SOL     OW29375   3.375   3.630   8.147 -0.1652 -0.2390 -0.2925
 7505SOL    HW129376   3.334   3.676   8.219 -0.6302  0.3928 -0.9491
 7505SOL    HW229377   3.387   3.540   8.179 -0.6399 -0.0414  0.4525
 7506SOL     OW29378   1.977   1.374   1.922 -0.2001  0.3276 -0.3001
 7506SOL    HW129379   1.889   1.388   1.958 -0.6759 -3.3473  0.2838
 7506SOL    HW229380   1.989   1.280   1.925  3.7706  0.6934 -0.4795
 7507SOL     OW29381   3.920  10.186   6.862  0.2712  0.2864  0.3129
 7507SOL    HW129382   3.963  10.129   6.798  1.0143  1.5163 -0.3377
 7507SOL    HW229383   3.948  10.151   6.947 -1.8755 -2.2494  0.1040
 7508SOL     OW29384   0.333  12.024   2.888  0.9171  0.6039 -0.1317
 7508SOL    HW129385   0.361  12.012   2.978  4.2255  1.5681 -0.9128
 7508SOL    HW229386   0.334  11.937   2.850  3.4514  0.5823 -0.1849
 7509SOL     OW29387   7.280   5.524   4.273 -0.1352  0.3560 -0.0931
 7509SOL    HW129388   7.189   5.535   4.245  0.1992  1.6825 -0.7499
 7509SOL    HW229389   7.298   5.600   4.328  0.9827  0.8806 -1.1413
 7510SOL     OW29390   9.620  10.975   6.062  0.0296  0.4050 -0.2744
 7510SOL    HW129391   9.551  10.925   6.018  0.4301 -0.1330 -0.2936
 7510SOL    HW229392   9.599  10.967   6.155  0.4787 -0.3728 -0.2372
 7511SOL     OW29393   0.790  10.832   5.261  0.3514 -0.2775  0.3601
 7511SOL    HW129394   0.876  10.865   5.236 -0.4486  1.0653 -0.7546
 7511SOL    HW229395   0.808  10.751   5.309  2.1284 -1.1532 -1.6543
 7512SOL     OW29396   5.119   8.086   4.140  0.3812  0.2945  0.2765
 7512SOL    HW129397   5.103   8.008   4.086  0.4971 -0.2064  0.9507
 7512SOL    HW229398   5.067   8.070   4.219  0.6696  0.7497  0.5585
 7513SOL     OW29399   6.531   4.563   7.777 -0.0195  0.4808  0.5813
 7513SOL    HW129400   6.462   4.614   7.820 -0.5332 -0.7982  1.3383
 7513SOL    HW229401   6.608   4.619   7.781 -0.4476  1.0269  1.8086
 7514SOL     OW29402   5.555   8.183   6.068 -0.1182  0.1070 -0.2216
 7514SOL    HW129403   5.463   8.210   6.065  0.0422  0.5884 -1.5273
 7514SOL    HW229404   5.576   8.182   6.161 -1.3578  0.2912  0.0863
 7515SOL     OW29405   0.518   6.037   8.127  0.5216 -0.4998  0.0285
 7515SOL    HW129406   0.560   6.028   8.042  3.5809  0.9496  1.2294
 7515SOL    HW229407   0.571   5.984   8.186 -1.8881 -1.9615  1.0125
 7516SOL     OW29408   8.156   7.802   7.612 -0.8932 -0.0656  0.0034
 7516SOL    HW129409   8.153   7.738   7.541  1.1790  1.3191 -1.4406
 7516SOL    HW229410   8.115   7.880   7.576 -0.8858  0.3026  0.7694
 7517SOL     OW29411   1.352   6.157   6.544 -0.1455 -0.1465  0.4640
 7517SOL    HW129412   1.364   6.085   6.481  0.5065  0.8144 -0.5376
 7517SOL    HW229413   1.269   6.136   6.587 -0.5882 -0.8636 -0.6826
 7518SOL     OW29414  11.635   4.826   1.413 -0.2977  0.3923 -0.8792
 7518SOL    HW129415  11.711   4.775   1.387 -0.6523 -0.2718 -0.6210
 7518SOL    HW229416  11.594   4.852   1.331  1.0973  2.1483 -1.0789
 7519SOL     OW29417   7.368   4.380   8.933  0.0371  0.2212 -0.2524
 7519SOL    HW129418   7.295   4.380   8.870 -0.1764  1.6771 -0.0346
 7519SOL    HW229419   7.325   4.374   9.018  0.3573 -2.5222 -0.2163
 7520SOL     OW29420   3.329   6.525   7.929  0.2182  0.0041 -0.7059
 7520SOL    HW129421   3.320   6.609   7.975 -0.5934 -0.1714 -0.5302
 7520SOL    HW229422   3.424   6.513   7.920  0.4000  0.0946  0.8319
 7521SOL     OW29423   8.109   5.782   3.786  0.3144 -0.0348 -0.8642
 7521SOL    HW129424   8.078   5.865   3.750  0.7606 -0.2760 -1.8355
 7521SOL    HW229425   8.203   5.782   3.769  0.3323 -0.7016 -0.7912
 7522SOL     OW29426   7.810  11.831   5.041  0.0900 -0.2039 -0.3331
 7522SOL    HW129427   7.869  11.876   4.981 -0.7146  2.1161  0.5244
 7522SOL    HW229428   7.850  11.841   5.127 -1.4827  1.4555  0.2759
 7523SOL     OW29429   0.674   9.733   0.504 -0.1273  0.1010 -0.4359
 7523SOL    HW129430   0.671   9.680   0.584  0.7419 -0.6298 -0.8609
 7523SOL    HW229431   0.617   9.808   0.522  0.1235 -0.0035  0.8993
 7524SOL     OW29432  11.304  10.211   4.965  0.2464  0.2476  0.1461
 7524SOL    HW129433  11.386  10.193   5.011  0.1416 -0.6940 -0.0079
 7524SOL    HW229434  11.270  10.124   4.943 -0.6472  0.6382 -0.0469
 7525SOL     OW29435   8.320   0.483   6.519  0.2422 -0.8106  0.6420
 7525SOL    HW129436   8.266   0.434   6.456  1.4763 -0.6223 -0.6214
 7525SOL    HW229437   8.259   0.541   6.564 -0.7464 -1.2601 -0.0882
 7526SOL     OW29438  11.222   4.295   8.738  0.1422  0.2788  0.0957
 7526SOL    HW129439  11.317   4.297   8.745  0.0997  2.2845  0.9725
 7526SOL    HW229440  11.191   4.332   8.821 -1.5364 -2.7713  0.9926
 7527SOL     OW29441   8.829   0.522   7.088 -0.0001  0.5197 -0.0953
 7527SOL    HW129442   8.918   0.529   7.124 -0.0142  1.3952 -0.2015
 7527SOL    HW229443   8.805   0.613   7.066 -1.3113  0.4277  0.8654
 7528SOL     OW29444  11.666   9.517   2.785 -0.3161  0.1043  0.1677
 7528SOL    HW129445  11.623   9.498   2.702 -1.2704 -0.0180  0.6839
 7528SOL    HW229446  11.752   9.551   2.759  0.7597 -3.0022 -0.8241
 7529SOL     OW29447   3.568   5.162  10.531  0.2795 -0.1215 -0.3699
 7529SOL    HW129448   3.629   5.219  10.483  0.3388 -0.4316 -0.6634
 7529SOL    HW229449   3.586   5.181  10.623 -1.5914  2.3986 -0.4032
 7530SOL     OW29450   8.748   7.239   5.129  0.9035 -0.1340 -0.0279
 7530SOL    HW129451   8.766   7.150   5.158  1.8087 -0.1804 -0.6754
 7530SOL    HW229452   8.764   7.237   5.034 -0.0731  0.4763 -0.2211
 7531SOL     OW29453   1.987   7.301   6.083 -0.2632 -0.1963  0.4438
 7531SOL    HW129454   1.963   7.380   6.033 -0.3697  0.4172  1.4387
 7531SOL    HW229455   1.914   7.241   6.069 -0.5878  0.2099  0.3616
 7532SOL     OW29456  10.718   4.063   0.309 -0.0709  0.0543 -0.3290
 7532SOL    HW129457  10.662   3.991   0.280 -0.8260  0.7848 -0.7365
 7532SOL    HW229458  10.681   4.089   0.394  0.3464 -0.1852 -0.0694
 7533SOL     OW29459   6.881   3.424   9.600  0.1679 -0.1989  0.1401
 7533SOL    HW129460   6.814   3.391   9.541  1.3649 -2.8892  0.1427
 7533SOL    HW229461   6.888   3.357   9.668  1.3923  1.0452  1.2894
 7534SOL     OW29462  10.327  11.795   6.417 -0.0052 -0.2368  0.2189
 7534SOL    HW129463  10.375  11.717   6.391  0.0294 -0.7875  1.8358
 7534SOL    HW229464  10.256  11.802   6.353 -1.2069 -2.7604  1.1646
 7535SOL     OW29465   5.891   7.812   9.722 -0.4067  0.0475  0.1047
 7535SOL    HW129466   5.890   7.717   9.731 -0.8226 -0.0301 -0.6818
 7535SOL    HW229467   5.922   7.827   9.633 -0.7026  0.6418  0.0992
 7536SOL     OW29468  10.214   2.326   0.845 -0.1398  0.3460 -0.0300
 7536SOL    HW129469  10.222   2.386   0.770  0.6958 -0.3230 -0.4857
 7536SOL    HW229470  10.255   2.373   0.917 -2.8248  1.9208  0.6102
 7537SOL     OW29471   9.909  12.059   0.353  0.3933  0.5214  0.1691
 7537SOL    HW129472   9.836  12.094   0.404 -0.1590  1.1748 -1.0270
 7537SOL    HW229473   9.874  12.050   0.264  1.4185 -0.3001 -0.1743
 7538SOL     OW29474   2.357   4.240   2.464  0.1591  0.8444 -0.8544
 7538SOL    HW129475   2.396   4.315   2.419  0.8601  1.3590  0.5555
 7538SOL    HW229476   2.402   4.237   2.549  0.0871 -1.1268 -0.8433
 7539SOL     OW29477   1.440   8.764   1.443  0.0893  0.5752  0.1688
 7539SOL    HW129478   1.467   8.843   1.396  0.7091 -0.1943 -0.8053
 7539SOL    HW229479   1.355   8.741   1.404  0.9515 -0.4890 -1.1592
 7540SOL     OW29480   6.514   5.253   7.164  0.0449  0.1205  0.3482
 7540SOL    HW129481   6.519   5.255   7.069  1.1221 -0.6067  0.3690
 7540SOL    HW229482   6.422   5.238   7.183 -0.2082  0.4482 -0.5727
 7541SOL     OW29483   2.265   9.422   6.953  0.3325  0.4015  0.3208
 7541SOL    HW129484   2.344   9.379   6.920 -0.9714 -1.8547 -0.0975
 7541SOL    HW229485   2.284   9.516   6.946  2.9969 -0.0542  0.4002
 7542SOL     OW29486  10.871   2.404   9.121 -0.5105 -0.4982 -0.4057
 7542SOL    HW129487  10.839   2.483   9.077  1.6917  0.5102 -0.3383
 7542SOL    HW229488  10.799   2.378   9.179 -2.0796  0.2320 -1.9401
 7543SOL     OW29489   3.211   4.366   3.645 -0.2697 -0.4584  0.0173
 7543SOL    HW129490   3.136   4.312   3.670 -0.3768 -1.4411 -2.1563
 7543SOL    HW229491   3.281   4.304   3.626  0.7472  0.3866  0.8607
 7544SOL     OW29492   0.784   7.983  12.283  0.2625  0.7143  0.2571
 7544SOL    HW129493   0.835   7.909  12.251 -0.6512  0.2896 -0.2511
 7544SOL    HW229494   0.837   8.060  12.260  0.8972  0.2691  0.1869
 7545SOL     OW29495  10.517   2.737   8.082 -0.4145  0.1912 -0.4492
 7545SOL    HW129496  10.433   2.693   8.087 -0.1865 -0.1805  0.2747
 7545SOL    HW229497  10.534   2.747   7.988 -0.8660 -0.4904 -0.6107
 7546SOL     OW29498  10.036  10.297   1.204 -0.0529  0.4357 -0.0882
 7546SOL    HW129499  10.065  10.366   1.265 -0.3500  0.7809 -0.3314
 7546SOL    HW229500  10.081  10.219   1.234 -0.3470  0.5540  0.7096
 7547SOL     OW29501   8.478   6.534   4.666  0.1698  0.0889  0.3917
 7547SOL    HW129502   8.430   6.549   4.585  1.8096 -0.1599 -0.6716
 7547SOL    HW229503   8.494   6.439   4.666  1.7113  0.3279  0.0743
 7548SOL     OW29504   2.566  11.242   8.746 -0.1347  0.0193 -0.0707
 7548SOL    HW129505   2.596  11.159   8.783  1.2304  0.9545  1.0579
 7548SOL    HW229506   2.570  11.304   8.820 -1.3869  1.0405 -0.8114
 7549SOL     OW29507   5.596  10.667   8.135  0.1087 -0.2512 -0.1810
 7549SOL    HW129508   5.631  10.624   8.057  1.3007  0.2297  0.0663
 7549SOL    HW229509   5.653  10.743   8.149 -3.2881  2.9655 -1.9934
 7550SOL     OW29510   4.546   0.451   4.089  0.4845  0.2810 -0.2988
 7550SOL    HW129511   4.494   0.490   4.018 -0.3492 -1.4441 -0.6913
 7550SOL    HW229512   4.636   0.478   4.070  0.1082  0.9002 -1.3002
 7551SOL     OW29513   9.240   4.851   9.440 -0.0322 -0.2339 -0.7045
 7551SOL    HW129514   9.173   4.907   9.401 -0.4401  0.1630  0.5311
 7551SOL    HW229515   9.323   4.883   9.404 -0.0346  2.5096  1.4103
 7552SOL     OW29516   2.207  10.561   5.379 -0.1378  0.4012  0.6266
 7552SOL    HW129517   2.223  10.480   5.428  2.0417  0.0017 -0.5932
 7552SOL    HW229518   2.294  10.588   5.349 -0.8631  2.9814  0.6321
 7553SOL     OW29519   3.187   1.910   0.471 -0.1848 -0.0422 -0.8931
 7553SOL    HW129520   3.209   1.903   0.564 -0.8807 -0.8542 -0.7787
 7553SOL    HW229521   3.262   1.870   0.426 -0.8762 -1.8131 -0.5534
 7554SOL     OW29522   5.012  10.070   7.620  0.2798 -0.8388  0.0640
 7554SOL    HW129523   4.983  10.062   7.529 -1.5027  0.2026  0.5125
 7554SOL    HW229524   4.975   9.993   7.663 -0.7794 -0.1906  0.3523
 7555SOL     OW29525  10.665  11.294   3.752 -0.0888  0.0674 -1.1264
 7555SOL    HW129526  10.640  11.341   3.832  0.3777  0.5836 -1.2810
 7555SOL    HW229527  10.621  11.342   3.682 -0.8991 -0.6752 -1.1515
 7556SOL     OW29528   5.921   7.609  11.718 -0.1130  0.2841  0.5315
 7556SOL    HW129529   5.854   7.635  11.655  0.1747 -0.1561  0.0373
 7556SOL    HW229530   5.961   7.530  11.680  0.0841  0.0340  1.2479
 7557SOL     OW29531  11.897   0.698   8.093 -0.1833 -0.9026  0.4138
 7557SOL    HW129532  11.949   0.721   8.016  0.4079 -3.1218  0.0786
 7557SOL    HW229533  11.812   0.673   8.057 -0.9658  0.9633  0.8100
 7558SOL     OW29534   3.151   7.966   7.078 -0.3466  0.2647  0.4649
 7558SOL    HW129535   3.127   7.980   7.170  1.1825  0.3191  0.8703
 7558SOL    HW229536   3.245   7.981   7.075  0.5175 -3.9987 -0.2214
 7559SOL     OW29537   0.061   2.349   0.464  0.3123 -0.9186 -0.9214
 7559SOL    HW129538   0.118   2.327   0.390 -0.5286  1.3586 -2.3588
 7559SOL    HW229539  -0.008   2.403   0.426  0.3279  1.1386  1.6712
 7560SOL     OW29540  11.863   8.632   4.572  0.6655 -0.5003  0.4133
 7560SOL    HW129541  11.789   8.573   4.562  0.0634  0.3707 -0.5474
 7560SOL    HW229542  11.823   8.720   4.572  1.6408 -0.0469  0.5621
 7561SOL     OW29543  11.288   3.123   7.536 -0.2321 -0.3500 -0.0370
 7561SOL    HW129544  11.343   3.128   7.458 -1.2692  0.3944 -0.7500
 7561SOL    HW229545  11.349   3.104   7.608  0.8097 -0.4898 -0.9352
 7562SOL     OW29546   4.591   8.272   3.439 -0.5443 -0.9618 -0.2605
 7562SOL    HW129547   4.603   8.360   3.402 -0.8589 -0.5454  0.5899
 7562SOL    HW229548   4.599   8.213   3.364 -0.0500 -0.2282 -0.8023
 7563SOL     OW29549   6.042   5.315   7.139  0.0079  0.5844 -1.0056
 7563SOL    HW129550   6.089   5.384   7.185 -0.7416  1.1082 -1.0091
 7563SOL    HW229551   5.994   5.360   7.070 -0.6627  0.0986 -0.8731
 7564SOL     OW29552   4.890   7.366   6.539  0.1201  0.3063 -0.5852
 7564SOL    HW129553   4.904   7.276   6.511  2.0592 -0.3035  1.9103
 7564SOL    HW229554   4.942   7.374   6.619 -2.1932  2.8407  0.8267
 7565SOL     OW29555  11.871  10.081   6.948 -0.1262  0.0339  0.0719
 7565SOL    HW129556  11.926  10.090   6.870  1.1278  0.3852  0.9747
 7565SOL    HW229557  11.782  10.072   6.913  0.1031  2.4878 -1.3726
 7566SOL     OW29558   9.729   7.047  12.298  0.2219  0.0841  0.3018
 7566SOL    HW129559   9.691   7.099  12.369  1.2878  1.2324  0.0771
 7566SOL    HW229560   9.654   7.021  12.244 -0.3827  1.2497  0.5413
 7567SOL     OW29561  11.130   6.048  12.289  0.0131 -0.1784 -0.2828
 7567SOL    HW129562  11.139   5.969  12.236 -1.3279  1.0564 -2.5354
 7567SOL    HW229563  11.071   6.022  12.361  1.0458 -1.6371  0.0905
 7568SOL     OW29564  10.102   0.273   5.011 -0.2260 -0.2967  0.0654
 7568SOL    HW129565  10.177   0.236   5.058  0.4876 -0.3626 -1.0780
 7568SOL    HW229566  10.091   0.360   5.049 -1.4327 -1.3284  2.2478
 7569SOL     OW29567   0.171   1.199  11.079 -0.7543 -0.2675  0.6669
 7569SOL    HW129568   0.164   1.259  11.154 -1.3198  0.8395 -0.2373
 7569SOL    HW229569   0.083   1.163  11.068 -1.1899  1.0931 -0.6463
 7570SOL     OW29570   7.707  11.890   4.242  0.0816 -0.3994 -0.0268
 7570SOL    HW129571   7.709  11.801   4.279 -0.4736 -0.4060 -0.0162
 7570SOL    HW229572   7.723  11.947   4.317 -1.3994 -0.3919  0.3198
 7571SOL     OW29573   9.976   9.024   7.813  0.2581 -0.2125 -0.3422
 7571SOL    HW129574   9.997   9.117   7.816 -1.1810  0.1562 -0.6866
 7571SOL    HW229575   9.894   9.017   7.862 -0.3977 -1.0562 -1.5115
 7572SOL     OW29576   9.705   4.024   4.107 -0.3591  0.3359  0.8233
 7572SOL    HW129577   9.727   3.930   4.102  1.5289  0.7642 -0.1703
 7572SOL    HW229578   9.622   4.027   4.154  0.0782 -1.7675  1.8699
 7573SOL     OW29579   5.530   0.942   4.294  0.0166 -0.1242  0.0385
 7573SOL    HW129580   5.438   0.939   4.267  0.5683 -1.6105 -1.9530
 7573SOL    HW229581   5.536   0.880   4.366 -0.6952  0.6702  0.8016
 7574SOL     OW29582   5.553   4.536  10.044  0.7493  0.4377 -0.4929
 7574SOL    HW129583   5.638   4.496  10.065  0.1389 -0.1917  0.9184
 7574SOL    HW229584   5.501   4.464  10.009  0.1807  0.3502  0.4952
 7575SOL     OW29585   8.103   2.608  11.158 -0.3638 -0.2606  0.4153
 7575SOL    HW129586   8.175   2.647  11.208 -1.4627  3.3613 -0.5230
 7575SOL    HW229587   8.114   2.643  11.069 -1.9589 -1.5076 -0.3267
 7576SOL     OW29588   9.847  11.177   9.495 -0.5374  0.1266  0.1677
 7576SOL    HW129589   9.902  11.109   9.456 -1.1014  0.4141 -1.1886
 7576SOL    HW229590   9.775  11.188   9.432 -1.5374  0.5562  1.3442
 7577SOL     OW29591  11.806   1.889   4.108 -0.1200  0.1086  0.1926
 7577SOL    HW129592  11.830   1.865   4.019  1.4840  0.4854  0.4989
 7577SOL    HW229593  11.825   1.812   4.161 -0.3048  0.1571  0.3337
 7578SOL     OW29594   0.636   3.668   5.446 -0.3425 -0.0403  0.0369
 7578SOL    HW129595   0.595   3.628   5.523 -1.9475  0.0725 -0.7166
 7578SOL    HW229596   0.714   3.615   5.430 -1.5912 -1.9621 -0.0309
 7579SOL     OW29597   2.003   0.836   6.232  0.4477 -0.0470 -0.4737
 7579SOL    HW129598   1.915   0.802   6.248 -0.0547  1.5730  0.3723
 7579SOL    HW229599   2.052   0.760   6.200 -1.1954 -1.0209 -0.7992
 7580SOL     OW29600  11.017   0.121   7.769 -0.1287  0.1146 -0.3168
 7580SOL    HW129601  11.079   0.187   7.737  1.1102 -0.2083  1.3102
 7580SOL    HW229602  10.936   0.139   7.720 -0.8253  4.7301  1.9519
 7581SOL     OW29603  11.353   8.311  10.606 -0.0894  0.2078 -0.0116
 7581SOL    HW129604  11.436   8.264  10.607  0.1359  0.5940 -0.2942
 7581SOL    HW229605  11.375   8.399  10.638 -0.0178  0.9073 -1.8661
 7582SOL     OW29606   4.613   8.248   5.244 -0.8495 -0.2434  0.5257
 7582SOL    HW129607   4.599   8.222   5.335 -2.6068 -1.2863 -0.0028
 7582SOL    HW229608   4.671   8.180   5.208 -0.3135  0.0637  0.7877
 7583SOL     OW29609   0.756   4.193  10.538 -0.1836 -0.2353 -0.1899
 7583SOL    HW129610   0.718   4.106  10.528  0.1902 -0.3561 -0.5783
 7583SOL    HW229611   0.843   4.178  10.575 -1.2237  0.1442  2.6985
 7584SOL     OW29612   4.316   7.683   3.670  0.6600 -0.2969 -0.0645
 7584SOL    HW129613   4.283   7.773   3.678 -0.1837 -0.6051 -0.0065
 7584SOL    HW229614   4.252   7.630   3.717  1.2200 -0.9228  0.0043
 7585SOL     OW29615   6.061  12.434   6.534  0.1580 -0.0745 -0.3194
 7585SOL    HW129616   6.081  12.420   6.626 -0.4725  0.0751 -0.1496
 7585SOL    HW229617   5.974  12.474   6.534  0.3212  0.3054 -0.9611
 7586SOL     OW29618   1.055   9.008   1.053 -0.1344 -0.1068  0.1185
 7586SOL    HW129619   1.150   9.014   1.068 -0.0624 -0.0740 -0.3465
 7586SOL    HW229620   1.020   8.976   1.136  0.0751  1.5704  0.8888
 7587SOL     OW29621   0.366   6.710   2.923  0.2624 -0.4527  0.1267
 7587SOL    HW129622   0.441   6.660   2.890  1.0685  1.2604 -0.7798
 7587SOL    HW229623   0.405   6.784   2.970 -0.8824 -0.3456  0.9506
 7588SOL     OW29624   5.408  12.093   5.146 -0.0552  0.5550 -0.0001
 7588SOL    HW129625   5.460  12.086   5.226  1.3696  1.3379 -0.7953
 7588SOL    HW229626   5.443  12.024   5.089 -1.6448 -0.5617  0.3263
 7589SOL     OW29627   1.978   2.939   9.694 -0.1477  0.2258  0.4522
 7589SOL    HW129628   1.964   3.002   9.624 -4.4769  0.0180  0.8593
 7589SOL    HW229629   2.016   2.991   9.765 -1.2366  1.8409 -0.0776
 7590SOL     OW29630   7.554   4.516   9.431 -0.1657 -0.0904 -0.2512
 7590SOL    HW129631   7.551   4.564   9.349 -0.2565 -0.9394 -0.7539
 7590SOL    HW229632   7.480   4.550   9.481 -1.6325 -1.2981 -1.5141
 7591SOL     OW29633  10.209  11.957  10.122  0.1837  0.2990  0.4696
 7591SOL    HW129634  10.183  11.969  10.213 -0.5484 -0.7485  0.4181
 7591SOL    HW229635  10.141  12.001  10.071  0.4257  0.6157  0.4148
 7592SOL     OW29636   3.369   4.406   0.263 -0.4903  0.3376  0.1933
 7592SOL    HW129637   3.379   4.389   0.356 -0.6767 -0.2299  0.1133
 7592SOL    HW229638   3.298   4.347   0.235 -0.7183  0.7985 -0.2190
 7593SOL     OW29639   8.919   6.572   5.156 -0.3450 -0.1956 -0.1998
 7593SOL    HW129640   8.950   6.654   5.192  1.5954 -1.2660  0.7152
 7593SOL    HW229641   8.902   6.591   5.063 -2.6468  1.8700  0.5357
 7594SOL     OW29642   9.089   2.315  10.165 -0.5256  0.1910  0.0328
 7594SOL    HW129643   9.168   2.366  10.180  0.0099 -0.5270 -0.2911
 7594SOL    HW229644   9.017   2.376  10.184  0.0636  1.6317 -2.0503
 7595SOL     OW29645   8.353   7.359   8.153  0.1252 -0.3642 -0.1993
 7595SOL    HW129646   8.405   7.435   8.181  0.4158 -0.9446  0.8951
 7595SOL    HW229647   8.269   7.396   8.125 -0.7057  0.2030  2.7112
 7596SOL     OW29648   2.359   5.274   3.455  0.2304  0.3487  0.7023
 7596SOL    HW129649   2.445   5.279   3.496  1.1269 -1.4501 -0.8077
 7596SOL    HW229650   2.328   5.186   3.474  1.2329 -1.0829 -3.2027
 7597SOL     OW29651   6.366   4.724   7.900  0.1353  0.3485  0.0093
 7597SOL    HW129652   6.339   4.765   7.982 -1.4222  0.8919 -0.7334
 7597SOL    HW229653   6.284   4.695   7.860  1.0360 -2.1006 -0.2528
 7598SOL     OW29654  11.311  11.373   3.059  0.5101 -0.0059  0.7345
 7598SOL    HW129655  11.329  11.446   3.117  2.8710  1.0559 -1.1568
 7598SOL    HW229656  11.391  11.362   3.008 -1.9779  0.6981 -3.9405
 7599SOL     OW29657  10.761  11.877   9.921  0.4286 -0.3290 -0.1731
 7599SOL    HW129658  10.757  11.964   9.961 -0.6463  0.0142 -0.9879
 7599SOL    HW229659  10.782  11.819   9.994 -4.2940 -0.1522  1.6985
 7600SOL     OW29660   8.637   4.339   1.668  0.3892 -0.4065 -0.2914
 7600SOL    HW129661   8.661   4.263   1.614 -1.7308 -1.0046 -0.4531
 7600SOL    HW229662   8.623   4.303   1.755  0.6476  0.0349 -0.0629
 7601SOL     OW29663   6.332  11.634   2.476  0.5067  0.0966  0.0203
 7601SOL    HW129664   6.398  11.652   2.408  0.9872 -0.3912  0.3523
 7601SOL    HW229665   6.248  11.640   2.430  0.7891  0.5461 -0.4478
 7602SOL     OW29666   4.860   5.888   8.571  0.8030 -0.7325  0.3232
 7602SOL    HW129667   4.804   5.873   8.495 -1.1406  0.8220  1.3489
 7602SOL    HW229668   4.942   5.920   8.534 -0.2297  0.3335 -1.1429
 7603SOL     OW29669   8.837   0.359   3.615 -0.4123  0.3685  0.9047
 7603SOL    HW129670   8.791   0.439   3.591 -1.9689 -1.2497 -2.0084
 7603SOL    HW229671   8.775   0.311   3.669 -0.8506 -0.3407 -0.2106
 7604SOL     OW29672   4.149  11.846  11.730 -0.8159 -0.1789 -0.2853
 7604SOL    HW129673   4.118  11.762  11.764 -1.9759 -0.2762 -1.5286
 7604SOL    HW229674   4.070  11.896  11.713 -0.1561  0.9800 -0.0986
 7605SOL     OW29675   7.238   2.682   5.025  0.2906  0.0766  0.2417
 7605SOL    HW129676   7.168   2.624   4.997 -0.0076  0.9145 -0.7812
 7605SOL    HW229677   7.318   2.643   4.988  0.1527  0.0605 -0.0382
 7606SOL     OW29678   6.480   4.386  10.228  0.6319  0.4405  0.0681
 7606SOL    HW129679   6.532   4.463  10.204  0.3783  1.1598  1.7140
 7606SOL    HW229680   6.389   4.417  10.227  0.3083 -0.4542 -1.4544
 7607SOL     OW29681   1.206   5.673   4.695  0.4419  0.5396 -1.0340
 7607SOL    HW129682   1.203   5.754   4.747 -3.5445 -0.2137  0.2906
 7607SOL    HW229683   1.120   5.632   4.709  1.6093 -3.0921 -3.0530
 7608SOL     OW29684  11.504   9.420   9.198 -0.3744 -0.5408  0.0807
 7608SOL    HW129685  11.571   9.455   9.139 -0.1233 -0.6268  0.3158
 7608SOL    HW229686  11.535   9.441   9.286 -0.6481 -0.5946  0.1911
 7609SOL     OW29687   3.881   7.461   6.189 -0.0710 -1.0506 -0.9968
 7609SOL    HW129688   3.850   7.408   6.116 -0.9828 -0.2447 -1.2168
 7609SOL    HW229689   3.837   7.545   6.178 -0.7074 -1.0941  0.7992
 7610SOL     OW29690   7.111   9.578   9.001  0.1842 -0.5595 -0.1652
 7610SOL    HW129691   7.046   9.591   9.070 -0.2972 -1.3103 -0.4582
 7610SOL    HW229692   7.076   9.625   8.926  0.0424 -0.8390 -0.2781
 7611SOL     OW29693   5.793   6.577   3.086 -0.2596  0.0584 -0.0350
 7611SOL    HW129694   5.727   6.607   3.149  0.1464  0.1187  0.3663
 7611SOL    HW229695   5.852   6.652   3.076  1.6889 -1.0546  2.1858
 7612SOL     OW29696   8.949   6.432   8.751  0.3888  0.1415  0.4260
 7612SOL    HW129697   8.933   6.364   8.685 -0.3287  2.3426 -1.8456
 7612SOL    HW229698   9.026   6.479   8.718  1.6797 -0.3068  2.6408
 7613SOL     OW29699   8.432   7.119  11.511  0.0393 -0.3445  0.5540
 7613SOL    HW129700   8.355   7.115  11.568 -0.7794 -0.7775 -0.5474
 7613SOL    HW229701   8.498   7.163  11.564  0.1773 -2.9553  2.8340
 7614SOL     OW29702  11.529  10.682   9.515 -0.1471 -0.0909  0.3687
 7614SOL    HW129703  11.613  10.726   9.526  0.3628 -1.0624  0.4228
 7614SOL    HW229704  11.464  10.753   9.522  0.6771  0.7331 -0.1432
 7615SOL     OW29705   9.910   5.498   6.209  0.3048 -0.0413 -0.0358
 7615SOL    HW129706   9.831   5.470   6.255  0.2520 -0.6339 -0.4758
 7615SOL    HW229707   9.880   5.525   6.122  0.4718  0.5758  0.0933
 7616SOL     OW29708   3.574  12.457  11.732  0.2433  0.2599 -0.0916
 7616SOL    HW129709   3.607  12.368  11.743  1.9574  1.1450  2.8733
 7616SOL    HW229710   3.500  12.464  11.792  0.9230  1.1862  0.6622
 7617SOL     OW29711  11.787   1.120  10.519  0.0245 -0.0044 -0.0278
 7617SOL    HW129712  11.762   1.162  10.601 -2.0355 -1.8830  0.4157
 7617SOL    HW229713  11.827   1.037  10.546 -0.9707 -0.7929 -0.8762
 7618SOL     OW29714  10.738   5.861   8.604  0.6210 -0.3261 -0.3459
 7618SOL    HW129715  10.803   5.832   8.540 -0.7275 -0.9500 -1.5018
 7618SOL    HW229716  10.752   5.805   8.680  2.7248  0.9114  0.2593
 7619SOL     OW29717   1.916  10.400   5.838  0.4108  0.0610  0.5229
 7619SOL    HW129718   1.949  10.311   5.843 -0.4226 -0.2715  0.3402
 7619SOL    HW229719   1.926  10.425   5.746  1.2111  0.3881  0.6925
 7620SOL     OW29720   6.601   3.023  11.389 -0.1382 -0.3309  0.1144
 7620SOL    HW129721   6.593   3.046  11.297  0.4220 -0.9916 -0.1146
 7620SOL    HW229722   6.557   2.938  11.397 -0.7658  0.0315  0.5991
 7621SOL     OW29723   7.602   4.127   0.188  0.5552  0.2484 -0.0934
 7621SOL    HW129724   7.602   4.038   0.223  2.4442 -0.4573 -1.6729
 7621SOL    HW229725   7.524   4.130   0.132 -0.4989  0.2177  1.3160
 7622SOL     OW29726   0.559   1.854  10.878 -0.3064 -0.1057 -0.8005
 7622SOL    HW129727   0.565   1.880  10.970 -0.8047  1.6386 -1.2385
 7622SOL    HW229728   0.477   1.892  10.848  0.4718  0.4171 -2.3139
 7623SOL     OW29729   7.968   5.259   5.131 -0.2795  0.2728  0.3049
 7623SOL    HW129730   7.989   5.301   5.215 -0.7177 -0.2595  0.6845
 7623SOL    HW229731   7.873   5.249   5.132 -0.6329  2.6152 -1.3679
 7624SOL     OW29732   9.070   3.586   4.826  0.0230 -0.4673 -0.0787
 7624SOL    HW129733   9.150   3.587   4.773  0.6122  1.4744  0.7534
 7624SOL    HW229734   9.094   3.535   4.904  0.8849  1.0451  0.7014
 7625SOL     OW29735   0.241  11.381   0.680 -0.3798 -0.2066 -0.1917
 7625SOL    HW129736   0.293  11.306   0.652  1.1819 -0.4723  2.9383
 7625SOL    HW229737   0.305  11.448   0.703 -1.6329  1.0758 -0.2505
 7626SOL     OW29738   5.846  11.491   0.760 -0.4118 -0.6764 -0.0869
 7626SOL    HW129739   5.916  11.426   0.765 -0.0864 -0.4313 -1.1622
 7626SOL    HW229740   5.769  11.447   0.796  0.5695 -0.5012  2.4649
 7627SOL     OW29741   7.377  12.378   1.875 -0.2071  1.0439  0.0646
 7627SOL    HW129742   7.296  12.333   1.900 -0.6547  0.9254 -1.5026
 7627SOL    HW229743   7.367  12.397   1.782  1.6363  0.8889 -0.2129
 7628SOL     OW29744   2.219   5.735   0.421  0.2832  0.0373  0.4969
 7628SOL    HW129745   2.266   5.670   0.472  0.8643  0.4512  0.5020
 7628SOL    HW229746   2.197   5.691   0.339  0.5105 -0.2168  0.5733
 7629SOL     OW29747  10.554   7.063   2.833 -0.6746 -0.4575 -0.2642
 7629SOL    HW129748  10.606   7.060   2.914 -2.3011 -0.6536  0.8035
 7629SOL    HW229749  10.617   7.091   2.766  1.1254 -1.9788  0.7082
 7630SOL     OW29750   3.395   4.588   2.578  0.3720  0.1522  0.1891
 7630SOL    HW129751   3.346   4.511   2.606 -1.1872  0.3619 -1.7616
 7630SOL    HW229752   3.487   4.567   2.597 -0.0714 -1.9861  0.1113
 7631SOL     OW29753  12.215  10.057   9.820  0.1453  0.6510 -0.1372
 7631SOL    HW129754  12.191  10.054   9.727  1.0630 -1.7227 -0.3703
 7631SOL    HW229755  12.185   9.974   9.856 -0.0537  1.4695  1.6764
 7632SOL     OW29756  11.022   2.483   6.921  0.2010 -0.0194 -0.0958
 7632SOL    HW129757  11.017   2.505   7.014 -0.0627  0.8990 -0.3197
 7632SOL    HW229758  10.933   2.453   6.900  0.0282  0.6099 -0.2568
 7633SOL     OW29759   4.799   4.085   2.560 -0.2157  0.1120  0.2272
 7633SOL    HW129760   4.882   4.073   2.607  0.3407  0.9293 -0.5167
 7633SOL    HW229761   4.749   4.005   2.580  0.8556 -0.5316  0.4601
 7634SOL     OW29762  10.167   6.432   5.636 -0.4070 -0.3243 -0.0315
 7634SOL    HW129763  10.178   6.397   5.548  1.4657  1.4062 -0.5562
 7634SOL    HW229764  10.078   6.466   5.638  0.1939  1.5503 -2.0274
 7635SOL     OW29765   5.164   2.376   3.034 -0.4315  0.4713  0.0672
 7635SOL    HW129766   5.163   2.286   3.068  0.9358  0.3384 -0.1654
 7635SOL    HW229767   5.081   2.414   3.062  0.7329  0.5228  3.9032
 7636SOL     OW29768   8.757  11.365   6.900  0.5349  0.0482 -0.2276
 7636SOL    HW129769   8.672  11.338   6.867  0.4055  0.4174 -0.1958
 7636SOL    HW229770   8.745  11.456   6.927  1.4619  0.7986 -2.1503
 7637SOL     OW29771   1.747   9.470   6.235 -0.1791 -0.2613  0.0406
 7637SOL    HW129772   1.729   9.426   6.152 -1.4964 -0.1822  0.2626
 7637SOL    HW229773   1.755   9.563   6.211 -0.0234 -0.3036 -0.0713
 7638SOL     OW29774   5.892   3.270   9.713  0.1096  0.0091 -0.6229
 7638SOL    HW129775   5.981   3.235   9.704 -0.2782 -0.7413 -1.8316
 7638SOL    HW229776   5.864   3.246   9.801  0.6356 -0.8795 -0.6922
 7639SOL     OW29777   1.906   7.255   1.611  0.6753  0.4417 -0.3428
 7639SOL    HW129778   1.943   7.247   1.523 -0.3278  0.5161 -0.7869
 7639SOL    HW229779   1.889   7.349   1.621 -0.3218  0.2940 -0.5504
 7640SOL     OW29780   3.853   1.298   2.536 -0.0271 -1.3353 -0.2345
 7640SOL    HW129781   3.781   1.243   2.506 -0.2840 -0.4674 -1.2731
 7640SOL    HW229782   3.817   1.387   2.534  0.3030 -1.1153  1.6222
 7641SOL     OW29783   0.667   3.959   6.109 -0.3193 -0.0188 -0.2222
 7641SOL    HW129784   0.694   3.870   6.090 -0.5568 -0.2213  0.3635
 7641SOL    HW229785   0.742   3.999   6.153 -0.2260  0.0624 -0.4525
 7642SOL     OW29786   6.855   5.933   0.886 -0.4194 -0.1611  0.1030
 7642SOL    HW129787   6.828   5.859   0.940 -1.2583  0.6787  0.8561
 7642SOL    HW229788   6.842   6.010   0.941  1.7044  0.4728 -0.1909
 7643SOL     OW29789   4.972   1.277  12.205  0.0114  0.3538 -0.2489
 7643SOL    HW129790   4.932   1.287  12.291  0.4550 -0.2049  0.0253
 7643SOL    HW229791   5.021   1.358  12.192 -1.0527  0.9712 -0.5149
 7644SOL     OW29792   7.313  10.781   9.608 -0.1584 -0.2928  0.2617
 7644SOL    HW129793   7.223  10.778   9.575 -1.0537 -0.3649  2.5768
 7644SOL    HW229794   7.316  10.715   9.677  0.9824  1.2901  1.8231
 7645SOL     OW29795   5.270  10.892   0.733  0.7917  0.4906  0.2266
 7645SOL    HW129796   5.296  10.811   0.777 -0.2344  0.8510  1.5798
 7645SOL    HW229797   5.293  10.961   0.795  0.7364  1.1652 -0.4872
 7646SOL     OW29798  10.358   5.801  10.098 -0.1165 -0.0277  0.4378
 7646SOL    HW129799  10.313   5.724  10.062  0.4104 -0.3371  0.4322
 7646SOL    HW229800  10.321   5.812  10.185 -0.5417  0.0059  0.2562
 7647SOL     OW29801   2.565   6.120  10.085  0.9173  0.3191  0.5675
 7647SOL    HW129802   2.521   6.195  10.125  0.8608  2.3477 -2.9239
 7647SOL    HW229803   2.651   6.153  10.061  0.4786 -0.2857 -2.1084
 7648SOL     OW29804   4.147   0.021   8.256 -0.3264  0.2331  0.1269
 7648SOL    HW129805   4.171  -0.018   8.340  2.4111  1.5254  0.0554
 7648SOL    HW229806   4.158  -0.050   8.193  1.3886  0.2100  0.4113
 7649SOL     OW29807   6.611   2.106  10.063 -0.3682  0.6104  0.1812
 7649SOL    HW129808   6.658   2.024  10.047  1.8374  1.9591 -0.7133
 7649SOL    HW229809   6.589   2.103  10.156  0.7562 -0.4525  0.4374
 7650SOL     OW29810   1.019   2.121   7.501  0.7336 -0.4865  0.0500
 7650SOL    HW129811   0.935   2.075   7.499  0.1740  0.5087  0.3629
 7650SOL    HW229812   1.041   2.134   7.409  0.0119  0.2063 -0.0280
 7651SOL     OW29813  11.637   7.269   7.194 -0.1570 -0.8222 -0.1448
 7651SOL    HW129814  11.615   7.179   7.221  2.4568 -0.9999  1.7293
 7651SOL    HW229815  11.721   7.260   7.149 -0.9406  0.4676 -1.9481
 7652SOL     OW29816   9.561   2.682   0.272 -0.1449  0.0295  0.4262
 7652SOL    HW129817   9.494   2.633   0.319 -0.4668  0.9781  0.9779
 7652SOL    HW229818   9.530   2.773   0.273  1.3503  0.5660  1.0660
 7653SOL     OW29819   8.817  11.724   0.239  0.6600 -0.5692 -0.3242
 7653SOL    HW129820   8.726  11.754   0.229 -0.2696 -2.7940  0.7143
 7653SOL    HW229821   8.826  11.706   0.333  2.5205  0.5179 -0.2574
 7654SOL     OW29822   7.024  11.381  10.093 -0.5168 -0.0714 -0.3075
 7654SOL    HW129823   7.098  11.389  10.033 -2.0437 -1.2790 -2.5185
 7654SOL    HW229824   7.020  11.465  10.138  1.5119  0.4079 -0.9207
 7655SOL     OW29825   1.328  10.286   8.493  0.0890  0.0013 -0.0798
 7655SOL    HW129826   1.311  10.376   8.521  0.7325 -0.7224  3.0477
 7655SOL    HW229827   1.247  10.257   8.451 -1.2134  1.1401  1.5440
 7656SOL     OW29828   1.519   3.801   0.346  0.1411 -0.6481  0.1619
 7656SOL    HW129829   1.533   3.892   0.320  0.7138 -0.2092  1.9310
 7656SOL    HW229830   1.600   3.756   0.322  1.4700  0.1598  2.7857
 7657SOL     OW29831  11.521   1.676   9.842  0.2483  0.8086 -0.3027
 7657SOL    HW129832  11.531   1.715   9.929  0.6779  2.0375 -0.8804
 7657SOL    HW229833  11.427   1.685   9.823  0.2644  1.1394 -0.2345
 7658SOL     OW29834  11.280   5.319   6.199 -0.3716  0.1006  0.0234
 7658SOL    HW129835  11.359   5.328   6.145  0.2318 -0.6547  0.7447
 7658SOL    HW229836  11.254   5.409   6.219  0.0740  0.3644 -0.5547
 7659SOL     OW29837   3.630  11.408   2.109  0.3701  0.0631  0.2436
 7659SOL    HW129838   3.637  11.357   2.190  1.6048  0.9241  0.7175
 7659SOL    HW229839   3.721  11.421   2.081 -0.0460 -0.5829 -1.5418
 7660SOL     OW29840   5.382   1.739   9.694  0.3101  0.5655  0.8868
 7660SOL    HW129841   5.367   1.804   9.625 -0.6754  0.8148  1.3158
 7660SOL    HW229842   5.413   1.661   9.647  1.1920  1.2300  0.3313
 7661SOL     OW29843   8.925   8.216   6.224  0.1453  0.1339  0.1386
 7661SOL    HW129844   8.852   8.211   6.286 -1.0549  0.2345 -1.2071
 7661SOL    HW229845   8.961   8.127   6.222 -0.6791 -0.2119 -0.0046
 7662SOL     OW29846   9.288   1.722  11.106  0.5288 -0.3895  0.4117
 7662SOL    HW129847   9.328   1.746  11.023  0.1632 -0.6550  0.1552
 7662SOL    HW229848   9.266   1.805  11.148  2.4467 -0.1866  1.1181
 7663SOL     OW29849   9.485  10.513  12.264 -0.3062  0.4398 -0.4412
 7663SOL    HW129850   9.505  10.546  12.176 -0.2410  1.5560 -0.0224
 7663SOL    HW229851   9.396  10.543  12.281 -0.1280  0.6765  0.0770
 7664SOL     OW29852   0.763   6.828   2.823  0.1141  0.7222  0.2940
 7664SOL    HW129853   0.826   6.796   2.887  0.9487 -0.8697 -1.2316
 7664SOL    HW229854   0.726   6.907   2.863  1.9113  0.8174  1.9215
 7665SOL     OW29855   1.362   3.969   5.550 -0.2062 -0.3008  0.4012
 7665SOL    HW129856   1.397   3.943   5.464 -0.5724 -3.0302  0.9695
 7665SOL    HW229857   1.436   4.010   5.594  0.4049 -0.1761 -0.6930
 7666SOL     OW29858   4.732   6.050   3.968  0.0130  0.2482  0.5439
 7666SOL    HW129859   4.687   5.968   3.989  1.5038 -0.4180  1.3188
 7666SOL    HW229860   4.696   6.113   4.031 -0.6192  0.0107  0.4279
 7667SOL     OW29861   6.030  10.368   4.433  0.8053  0.0855 -0.1490
 7667SOL    HW129862   6.093  10.338   4.367  0.5039  0.1853 -0.4836
 7667SOL    HW229863   5.998  10.288   4.475  1.1645  0.0352  0.0362
 7668SOL     OW29864   6.172   3.482   1.959  0.0843  0.2114  0.3615
 7668SOL    HW129865   6.092   3.512   2.001 -0.5119  1.9223 -1.8066
 7668SOL    HW229866   6.152   3.483   1.865  2.3033 -0.3172 -0.1763
 7669SOL     OW29867   4.133   8.968   0.667  0.1737 -0.3034  0.2728
 7669SOL    HW129868   4.216   8.958   0.620 -0.2071 -0.5297 -0.3598
 7669SOL    HW229869   4.077   8.898   0.633 -0.8342  0.8510 -0.5329
 7670SOL     OW29870   9.427  11.025   7.773 -0.6013  0.3934 -0.0741
 7670SOL    HW129871   9.459  11.042   7.684 -2.1850 -0.0570 -0.7641
 7670SOL    HW229872   9.364  11.094   7.790 -1.6058 -0.5224 -0.0023
 7671SOL     OW29873   3.191   7.555  11.157 -0.2460  0.4591 -0.6859
 7671SOL    HW129874   3.237   7.636  11.178  0.4940 -0.0688 -0.2447
 7671SOL    HW229875   3.099   7.580  11.153 -0.1909  1.0340  0.9221
 7672SOL     OW29876   1.650   5.995   2.158  0.1654 -0.0093  0.0782
 7672SOL    HW129877   1.580   5.957   2.105  1.0809  0.3661 -1.4910
 7672SOL    HW229878   1.702   6.046   2.095  1.8777 -0.3320  1.1568
 7673SOL     OW29879   4.918   2.062   3.231  0.1645 -0.4359  0.2929
 7673SOL    HW129880   4.874   2.066   3.146  0.0687  0.1673  0.3656
 7673SOL    HW229881   4.847   2.063   3.295  0.2780  1.1505  0.4278
 7674SOL     OW29882   9.575   9.646   9.563 -0.0169 -0.3374 -0.0903
 7674SOL    HW129883   9.635   9.573   9.545 -1.3954 -1.8882  1.2172
 7674SOL    HW229884   9.508   9.639   9.496 -0.5496 -0.7543  0.4783
 7675SOL     OW29885   7.674   6.019  12.225 -0.0534  0.0300  0.6726
 7675SOL    HW129886   7.704   6.002  12.314 -1.7457 -1.0219  1.0878
 7675SOL    HW229887   7.729   5.963  12.170  0.1271 -0.3082  1.1926
 7676SOL     OW29888  11.442   3.537   0.705 -0.0447  0.1339 -0.2187
 7676SOL    HW129889  11.460   3.629   0.690 -0.9488  0.2909 -0.4270
 7676SOL    HW229890  11.376   3.515   0.638  0.4363 -0.7553 -0.4137
 7677SOL     OW29891   0.067  11.617   1.398  0.5173  0.0258  0.0161
 7677SOL    HW129892   0.038  11.676   1.467  1.1599  1.6051 -0.9956
 7677SOL    HW229893  -0.013  11.597   1.349  0.5184  1.4126 -0.5984
 7678SOL     OW29894   6.663  11.569   5.479 -0.3584 -0.1733  0.3654
 7678SOL    HW129895   6.633  11.479   5.490  0.6366 -0.7345 -1.1134
 7678SOL    HW229896   6.742  11.575   5.533 -0.1256 -0.3687  0.0522
 7679SOL     OW29897   5.442   7.076   4.778 -0.4018  0.4494  0.1263
 7679SOL    HW129898   5.408   7.012   4.714  0.8291 -0.3012  0.1846
 7679SOL    HW229899   5.369   7.091   4.837 -0.5989 -1.3123  0.4010
 7680SOL     OW29900   7.772   8.835   0.316  0.0560  0.8209 -1.1776
 7680SOL    HW129901   7.824   8.857   0.239 -0.8268 -1.4147 -2.4974
 7680SOL    HW229902   7.821   8.764   0.358  1.8274  3.5632  1.8635
 7681SOL     OW29903  11.459   8.419  11.811  0.7752 -0.0470 -0.0530
 7681SOL    HW129904  11.408   8.487  11.766  1.0213 -0.7664 -1.4826
 7681SOL    HW229905  11.393   8.358  11.845  0.6035  0.2669  0.1849
 7682SOL     OW29906   7.607  11.573  10.296 -0.4077 -0.4178  0.0390
 7682SOL    HW129907   7.659  11.620  10.361  0.4233 -0.9000 -0.2623
 7682SOL    HW229908   7.520  11.566  10.335 -0.1142 -0.0461  0.7763
 7683SOL     OW29909  10.157   7.811   1.218  0.0002 -0.1141  0.0001
 7683SOL    HW129910  10.178   7.901   1.244 -0.3541  0.6155 -2.0385
 7683SOL    HW229911  10.070   7.795   1.254 -1.0717  1.3612 -1.8176
 7684SOL     OW29912   1.048   4.728   9.875  0.2132 -0.3486  0.1467
 7684SOL    HW129913   1.033   4.638   9.848 -1.1171 -0.1768  0.2123
 7684SOL    HW229914   1.050   4.725   9.971 -0.0742 -0.2802  0.1561
 7685SOL     OW29915   0.804  11.657   3.838  0.3206 -0.5015 -0.0015
 7685SOL    HW129916   0.894  11.624   3.845 -0.4205 -2.6085  0.1650
 7685SOL    HW229917   0.749  11.582   3.859 -1.5075  0.7022 -0.2707
 7686SOL     OW29918   1.149   7.975  11.606 -0.4646  0.1543  0.0664
 7686SOL    HW129919   1.093   8.051  11.594 -1.8238 -1.1772 -2.9067
 7686SOL    HW229920   1.090   7.906  11.636  0.0185 -0.6702 -0.8393
 7687SOL     OW29921  10.175   4.139   0.381  0.6227 -0.7018  0.1143
 7687SOL    HW129922  10.193   4.194   0.458  0.1020  0.4868 -0.5780
 7687SOL    HW229923  10.238   4.170   0.315  0.9793 -1.6250  0.0066
 7688SOL     OW29924   1.452   0.364   0.412  0.4257  0.0888  0.1055
 7688SOL    HW129925   1.474   0.444   0.363 -2.0151  1.3136  0.8581
 7688SOL    HW229926   1.536   0.321   0.425  1.5939  1.4781 -2.1046
 7689SOL     OW29927   4.817   4.372   8.457  0.3812  0.1825  0.0490
 7689SOL    HW129928   4.762   4.295   8.472 -0.3095  0.5068 -0.7449
 7689SOL    HW229929   4.878   4.373   8.531 -0.4614 -0.3631  0.7630
 7690SOL     OW29930  12.126   6.487   3.738  0.2091  0.1491  0.2653
 7690SOL    HW129931  12.031   6.490   3.753  0.3316  1.8395  0.8651
 7690SOL    HW229932  12.137   6.420   3.671 -1.2384 -1.3258  1.4007
 7691SOL     OW29933   7.444  10.531   4.233 -0.9421  0.4828  0.6118
 7691SOL    HW129934   7.440  10.471   4.307  0.6507  1.1148  1.2520
 7691SOL    HW229935   7.353  10.541   4.205 -1.2868 -2.0945  0.5563
 7692SOL     OW29936  11.342   0.873   2.113  0.1831  0.2806 -0.4462
 7692SOL    HW129937  11.253   0.865   2.078 -0.1402 -0.5544  0.5167
 7692SOL    HW229938  11.379   0.948   2.067 -0.8123  0.2755 -1.2985
 7693SOL     OW29939   7.383   7.227  10.527 -0.4133  0.6524  0.3571
 7693SOL    HW129940   7.380   7.202  10.620 -0.2524 -1.3873 -0.1530
 7693SOL    HW229941   7.472   7.207  10.500 -0.9872 -0.6344 -0.6916
 7694SOL     OW29942  11.047   8.835   3.894  0.3771  0.3703  0.1903
 7694SOL    HW129943  11.015   8.833   3.985  0.9818  2.6614  0.5006
 7694SOL    HW229944  11.142   8.842   3.902  0.7077 -2.1361 -0.6984
 7695SOL     OW29945   0.169   4.371  11.936  0.6259 -0.0798  0.0578
 7695SOL    HW129946   0.259   4.353  11.963  0.0118 -0.6793  1.8627
 7695SOL    HW229947   0.155   4.462  11.961  1.3082  0.6599 -2.0434
 7696SOL     OW29948  10.949   1.177   8.776 -0.2527 -0.1285 -0.6602
 7696SOL    HW129949  11.014   1.148   8.711 -1.0295 -0.3683 -1.3475
 7696SOL    HW229950  10.896   1.243   8.730 -0.1830  0.4518  0.0564
 7697SOL     OW29951   3.349  10.548   6.793  0.6232  0.2921 -0.2652
 7697SOL    HW129952   3.342  10.536   6.887  1.2449 -0.5033 -0.3082
 7697SOL    HW229953   3.405  10.625   6.783  1.4310 -0.2444  0.0274
 7698SOL     OW29954   7.145   3.303   7.637  0.0572 -0.2553 -0.0161
 7698SOL    HW129955   7.071   3.309   7.577  0.6316 -0.0061 -0.7084
 7698SOL    HW229956   7.201   3.377   7.614  0.6674 -0.6119  0.3014
 7699SOL     OW29957   7.052  10.436   2.508 -0.5836  0.0152  0.4159
 7699SOL    HW129958   6.961  10.423   2.483 -0.4868 -2.0952  0.9668
 7699SOL    HW229959   7.049  10.460   2.601 -0.5482 -1.4177  0.8064
 7700SOL     OW29960  10.331   2.752   7.677 -0.2235  0.2073 -0.1708
 7700SOL    HW129961  10.293   2.811   7.741 -0.5038 -0.3199  0.1528
 7700SOL    HW229962  10.305   2.664   7.705  0.4422 -0.1002 -0.4692
 7701SOL     OW29963   6.055   3.358   9.947 -0.8736  0.9275  0.1710
 7701SOL    HW129964   6.091   3.273   9.923  1.0828  2.0604 -1.1637
 7701SOL    HW229965   6.119   3.395  10.008 -2.6155  0.7473  2.2216
 7702SOL     OW29966   1.070   9.117  11.613 -0.4512  0.4510 -0.2594
 7702SOL    HW129967   0.979   9.103  11.640 -0.6656  1.0818 -0.6346
 7702SOL    HW229968   1.122   9.080  11.685 -0.9570 -2.0813 -1.1158
 7703SOL     OW29969   8.916  11.714   9.219 -0.1340 -0.4491 -0.0607
 7703SOL    HW129970   9.008  11.741   9.211 -0.3042  0.2607  0.3684
 7703SOL    HW229971   8.867  11.795   9.217 -1.0190 -0.9135 -3.3308
 7704SOL     OW29972   6.806   5.107   0.931 -0.5879 -0.5883  0.6288
 7704SOL    HW129973   6.875   5.132   0.992 -0.8153 -0.0528  0.6730
 7704SOL    HW229974   6.849   5.046   0.870 -0.0641 -0.2281  0.6261
 7705SOL     OW29975   8.428   4.300   0.749  0.2751 -0.1571  0.4839
 7705SOL    HW129976   8.340   4.332   0.729 -0.3306  0.3558  3.4487
 7705SOL    HW229977   8.466   4.279   0.664 -2.3045  0.6370 -0.9781
 7706SOL     OW29978   6.794   5.796  11.250 -0.0448 -0.4364 -0.1731
 7706SOL    HW129979   6.738   5.759  11.318  0.2216 -0.3739  0.0817
 7706SOL    HW229980   6.875   5.747  11.257 -0.1453 -0.6784 -0.6922
 7707SOL     OW29981   2.467   8.029   3.885  0.1450  0.2786  0.3237
 7707SOL    HW129982   2.392   8.071   3.927 -0.4284  0.9449 -1.2916
 7707SOL    HW229983   2.515   7.988   3.957 -0.5055  1.7980  1.6783
 7708SOL     OW29984   2.876   4.923   2.019  0.5498  0.0624 -0.4204
 7708SOL    HW129985   2.858   4.976   1.941  0.8360 -0.8420 -1.1180
 7708SOL    HW229986   2.790   4.913   2.061  0.3910  0.5526 -0.6108
 7709SOL     OW29987   8.270   8.445   1.933  1.1633  0.2264  0.4637
 7709SOL    HW129988   8.313   8.464   1.849  2.0752  1.3689  1.1666
 7709SOL    HW229989   8.178   8.467   1.919  0.6823 -2.2775 -1.0811
 7710SOL     OW29990   7.523   2.713   8.999  0.2852  0.6432  0.1949
 7710SOL    HW129991   7.439   2.680   8.966  0.9469 -0.5013 -0.4238
 7710SOL    HW229992   7.516   2.706   9.094  0.1502 -0.7413  0.1138
 7711SOL     OW29993  10.236   2.789   5.939  0.5151 -0.5098 -0.2523
 7711SOL    HW129994  10.252   2.865   5.995 -0.6961 -0.0955 -0.4220
 7711SOL    HW229995  10.225   2.716   6.000  1.9331 -0.6153 -0.1010
 7712SOL     OW29996   3.201   8.817   4.319  0.0997 -0.1819  0.8212
 7712SOL    HW129997   3.276   8.779   4.273  1.3119  2.9225 -0.0104
 7712SOL    HW229998   3.183   8.899   4.274 -2.6483  0.1026  2.1825
 7713SOL     OW29999   0.878   8.210   5.575 -0.0291  0.3724  0.7249
 7713SOL    HW130000   0.897   8.265   5.651  0.6870  0.6681  0.3411
 7713SOL    HW230001   0.782   8.201   5.576 -0.2673  2.3498  0.2982
 7714SOL     OW30002   5.341   8.110   1.195 -0.1967 -0.8586 -0.1142
 7714SOL    HW130003   5.384   8.089   1.278 -0.6166  1.6777  0.8308
 7714SOL    HW230004   5.410   8.100   1.129  0.3588 -2.0993  0.6208
 7715SOL     OW30005   0.071  10.924   0.346  0.0658 -0.1535 -0.3430
 7715SOL    HW130006   0.063  11.015   0.375  0.0571 -0.1837 -0.2517
 7715SOL    HW230007   0.166  10.909   0.341  0.0797  0.1191 -1.1707
 7716SOL     OW30008   4.347   5.349   0.008  0.5263 -0.2449 -0.1197
 7716SOL    HW130009   4.312   5.324   0.094 -0.1529  1.2018  0.0486
 7716SOL    HW230010   4.282   5.319  -0.055  0.6477 -0.6057 -0.0766
 7717SOL     OW30011   2.468   7.719   3.552  0.1883 -0.4264 -0.0953
 7717SOL    HW130012   2.501   7.677   3.472 -1.3791  0.0333 -1.0148
 7717SOL    HW230013   2.373   7.715   3.544 -0.0554 -1.6364  2.4376
 7718SOL     OW30014   5.960   1.702   6.621  0.1260  0.4927 -0.0870
 7718SOL    HW130015   5.973   1.746   6.705 -0.9365 -0.3178  0.5137
 7718SOL    HW230016   5.865   1.695   6.612  0.2523 -0.3458 -0.8790
 7719SOL     OW30017   6.309   2.945   9.590 -0.5348  0.0423 -0.2286
 7719SOL    HW130018   6.384   3.000   9.566  1.7387 -2.6487  0.2259
 7719SOL    HW230019   6.253   2.946   9.513 -0.2837  2.4312 -0.4558
 7720SOL     OW30020   9.209   8.899   4.291  0.1564 -0.9081 -0.3336
 7720SOL    HW130021   9.131   8.927   4.244 -0.4666 -0.4970  0.9080
 7720SOL    HW230022   9.250   8.980   4.320  0.5969 -1.1537 -0.2638
 7721SOL     OW30023   7.744   2.238   4.003  0.0462 -0.2304  0.0550
 7721SOL    HW130024   7.658   2.246   4.043  0.3805  0.4756  0.6534
 7721SOL    HW230025   7.751   2.314   3.945 -0.4788 -1.2956 -1.4819
 7722SOL     OW30026  10.664   4.205   6.501  0.1721 -0.2378  0.2758
 7722SOL    HW130027  10.675   4.176   6.411  0.3835  1.2237 -0.1971
 7722SOL    HW230028  10.656   4.300   6.495 -2.0045 -0.2568  1.5827
 7723SOL     OW30029   5.754   2.871   9.176  0.4416  0.8218 -0.6792
 7723SOL    HW130030   5.695   2.942   9.152 -0.6428 -0.0131 -0.5337
 7723SOL    HW230031   5.699   2.793   9.179  1.5165  0.0451 -0.3653
 7724SOL     OW30032   6.431  10.624   6.266 -0.0295 -0.6776  0.3651
 7724SOL    HW130033   6.392  10.537   6.256 -0.7707 -0.5305  1.7491
 7724SOL    HW230034   6.516  10.607   6.305  0.4182 -0.8590 -0.6635
 7725SOL     OW30035   0.188   8.363  12.102 -0.2657  0.1163 -0.1866
 7725SOL    HW130036   0.195   8.444  12.052 -1.2061 -0.4736 -1.3279
 7725SOL    HW230037   0.095   8.356  12.125 -0.1001 -0.3732  0.3785
 7726SOL     OW30038   5.159   2.759   4.034 -0.0896  0.1694  0.4873
 7726SOL    HW130039   5.137   2.848   4.061 -1.5926 -0.2151  0.6338
 7726SOL    HW230040   5.137   2.756   3.941  2.7874  0.7780 -0.3002
 7727SOL     OW30041   5.329   5.715   1.899  0.0319  0.9737 -0.6872
 7727SOL    HW130042   5.380   5.635   1.898  0.2208  1.0933 -1.2265
 7727SOL    HW230043   5.276   5.711   1.819 -1.8277  0.2182  0.5008
 7728SOL     OW30044  11.891   8.380   6.045 -0.2902 -0.7837  0.2178
 7728SOL    HW130045  11.942   8.456   6.021 -0.7699 -0.7423 -0.7164
 7728SOL    HW230046  11.892   8.324   5.968 -2.1637 -0.4880 -0.0887
 7729SOL     OW30047   5.530   3.127   8.064  0.2022 -0.3823  0.6404
 7729SOL    HW130048   5.613   3.150   8.106  0.0075 -1.9537  2.0155
 7729SOL    HW230049   5.542   3.035   8.038 -0.5899 -0.1724 -0.5283
 7730SOL     OW30050   1.595  11.904   0.741  0.0201 -0.2384 -0.0547
 7730SOL    HW130051   1.664  11.888   0.805 -0.7331 -0.5733  0.6812
 7730SOL    HW230052   1.627  11.978   0.689 -0.1968  1.3305  1.9303
 7731SOL     OW30053  11.497  10.534   0.082 -0.0092  0.3927 -0.2565
 7731SOL    HW130054  11.457  10.453   0.114 -1.7093  1.2991 -0.0105
 7731SOL    HW230055  11.426  10.581   0.039  1.1103  1.4573 -1.0174
 7732SOL     OW30056   6.094   1.139   1.204  0.3311 -0.4609 -0.3000
 7732SOL    HW130057   6.108   1.189   1.124  1.6563 -0.8368 -0.3235
 7732SOL    HW230058   6.044   1.063   1.177 -0.5353  0.1618 -0.4957
 7733SOL     OW30059   1.125   5.961  12.443 -0.1035  0.1420 -0.3241
 7733SOL    HW130060   1.180   5.983  12.368  0.2699  2.4207  0.5318
 7733SOL    HW230061   1.167   5.885  12.482  0.0430 -0.7013 -2.0248
 7734SOL     OW30062   6.264   6.355   4.458 -0.3291 -0.1208  0.3532
 7734SOL    HW130063   6.359   6.356   4.468  0.1202  1.3153 -2.9411
 7734SOL    HW230064   6.236   6.444   4.481 -0.4291  0.3399 -1.3750
 7735SOL     OW30065   2.158   0.705  10.691  0.1007  0.2103 -0.0877
 7735SOL    HW130066   2.073   0.714  10.734  0.3221  0.1688  0.3633
 7735SOL    HW230067   2.172   0.790  10.649 -0.4894 -0.0194 -0.7757
 7736SOL     OW30068   3.298  10.735   0.219  0.3294 -0.5042  0.5800
 7736SOL    HW130069   3.232  10.724   0.288 -0.2040  0.1685  0.1861
 7736SOL    HW230070   3.293  10.653   0.169 -0.5323 -0.2910  0.2894
 7737SOL     OW30071  10.492   6.901   6.015  0.1496 -0.0536  0.2438
 7737SOL    HW130072  10.408   6.946   6.028 -0.5174 -1.0775 -0.3779
 7737SOL    HW230073  10.504   6.848   6.094  0.4734  0.4918  0.5632
 7738SOL     OW30074   8.675   0.089   1.612 -0.3391 -0.3918  0.4838
 7738SOL    HW130075   8.760   0.131   1.605  0.3700 -1.5730  1.5795
 7738SOL    HW230076   8.667   0.037   1.532 -0.2266  0.0518  0.1814
 7739SOL     OW30077   6.594  10.034   3.532 -0.6124 -0.1289  0.0590
 7739SOL    HW130078   6.685  10.054   3.555 -0.6302 -0.2228  0.2106
 7739SOL    HW230079   6.588  10.056   3.439 -0.3860 -0.2862  0.0052
 7740SOL     OW30080   5.565   4.497   2.937  0.1997  0.5331  0.5498
 7740SOL    HW130081   5.486   4.503   2.883  1.0382  0.7292 -0.6972
 7740SOL    HW230082   5.557   4.413   2.982 -0.2722  0.1119 -0.2962
 7741SOL     OW30083   5.403  11.428   2.866 -0.2179  0.0686  0.0106
 7741SOL    HW130084   5.402  11.336   2.837  0.8736  0.1844 -0.4081
 7741SOL    HW230085   5.481  11.435   2.921 -1.3276  0.2868  1.6170
 7742SOL     OW30086   4.357   3.135   9.672 -0.5142 -0.5326 -0.0490
 7742SOL    HW130087   4.277   3.133   9.620  0.3152  2.1686 -1.6424
 7742SOL    HW230088   4.426   3.157   9.609  0.7221  1.7474  1.9315
 7743SOL     OW30089   7.080   9.275   9.647  0.4180 -0.0642 -0.2580
 7743SOL    HW130090   7.098   9.213   9.718  0.9903 -1.0400 -1.2137
 7743SOL    HW230091   7.051   9.355   9.691 -0.1030 -0.9311  1.0264
 7744SOL     OW30092   0.520  11.547   8.755  0.1330 -0.7519  0.3675
 7744SOL    HW130093   0.537  11.584   8.668  0.8558  0.8495  1.1481
 7744SOL    HW230094   0.587  11.480   8.766  1.3582  0.4619  0.4824
 7745SOL     OW30095   3.915  10.284   6.415 -0.3516  0.0763  0.4583
 7745SOL    HW130096   3.977  10.262   6.485 -0.7032 -1.4514  0.3362
 7745SOL    HW230097   3.927  10.214   6.351  0.2940  1.6722 -1.2654
 7746SOL     OW30098   2.976   8.727   8.494 -0.0740  0.2697  0.1611
 7746SOL    HW130099   3.008   8.651   8.543 -2.0255 -0.3929  0.4958
 7746SOL    HW230100   2.890   8.745   8.532 -0.5657  1.3040 -1.3616
 7747SOL     OW30101   1.444   6.035   9.448  0.2035 -0.0703  0.2907
 7747SOL    HW130102   1.373   6.098   9.443 -2.3542 -2.5917  1.9045
 7747SOL    HW230103   1.440   5.988   9.365 -0.5749 -0.7214  0.6861
 7748SOL     OW30104   2.378   6.806   5.648  0.5750 -0.1818  0.3592
 7748SOL    HW130105   2.439   6.747   5.604  2.0673 -0.0072  2.0847
 7748SOL    HW230106   2.432   6.879   5.677 -0.6358  0.4308  1.1380
 7749SOL     OW30107   3.062   2.137  10.509 -0.1760 -0.0889 -0.3926
 7749SOL    HW130108   2.979   2.112  10.469  0.4462 -2.5920 -0.2560
 7749SOL    HW230109   3.041   2.151  10.601 -0.6949  0.9043 -0.6378
 7750SOL     OW30110   9.575  11.649   9.247 -0.2467  0.2792  0.4196
 7750SOL    HW130111   9.543  11.683   9.331 -0.6801  1.7076 -0.2922
 7750SOL    HW230112   9.665  11.679   9.241  0.0475 -0.5140  0.7201
 7751SOL     OW30113   2.828   7.430   8.351 -0.1725 -0.3282 -0.4199
 7751SOL    HW130114   2.742   7.404   8.384 -1.0574  0.7944 -1.7216
 7751SOL    HW230115   2.874   7.347   8.338 -1.0259 -0.9506  0.3501
 7752SOL     OW30116   4.869  12.111   8.969 -0.1522  0.1497 -0.8482
 7752SOL    HW130117   4.906  12.030   9.007 -0.0966  1.3418  1.8975
 7752SOL    HW230118   4.775  12.097   8.972 -0.1553  0.2651 -0.0783
 7753SOL     OW30119   7.311  11.193   4.450  0.0582 -0.2132  0.2907
 7753SOL    HW130120   7.249  11.208   4.521  0.6718  0.0261  0.7913
 7753SOL    HW230121   7.305  11.099   4.432  0.2207 -0.3616  0.9767
 7754SOL     OW30122   8.010   0.587   3.762  0.0138 -0.2982 -0.5027
 7754SOL    HW130123   8.032   0.529   3.835  0.7815 -0.2446 -0.6788
 7754SOL    HW230124   8.085   0.646   3.755  0.9143 -1.5745 -2.6265
 7755SOL     OW30125   1.928   9.088   4.631  0.1174  0.1383  0.8686
 7755SOL    HW130126   1.930   9.144   4.709 -0.6931  1.6746 -0.1601
 7755SOL    HW230127   1.835   9.067   4.619  0.1734  0.3315  0.0453
 7756SOL     OW30128   5.864   2.911   0.277 -0.5832 -0.2628  0.1277
 7756SOL    HW130129   5.866   2.952   0.363  0.6889 -2.8750  1.4658
 7756SOL    HW230130   5.908   2.827   0.289 -1.8642 -1.4895 -2.6826
 7757SOL     OW30131   4.119  10.703   6.012  0.1264 -0.2472 -0.0001
 7757SOL    HW130132   4.146  10.696   5.921 -0.1580 -0.4735 -0.0670
 7757SOL    HW230133   4.031  10.665   6.015  0.4730 -1.0584  0.5201
 7758SOL     OW30134   1.692   7.137  11.810 -0.1979 -0.0523  0.4888
 7758SOL    HW130135   1.781   7.169  11.797 -0.1056 -1.1986 -2.5429
 7758SOL    HW230136   1.640   7.216  11.826  1.0135  0.9042 -0.1303
 7759SOL     OW30137   7.940  10.339   5.685  0.0117  0.1131  0.4202
 7759SOL    HW130138   7.935  10.350   5.780  0.0834 -2.3983  0.7776
 7759SOL    HW230139   8.034  10.328   5.667  0.1708  2.0750 -0.1994
 7760SOL     OW30140   7.279   8.573   1.319 -0.4254 -0.3976  0.3334
 7760SOL    HW130141   7.229   8.647   1.285 -0.6285 -2.3469 -4.3711
 7760SOL    HW230142   7.368   8.606   1.328 -1.1708  1.3015  2.1139
 7761SOL     OW30143   0.765   0.267  11.878 -0.3223  0.7675  0.0020
 7761SOL    HW130144   0.852   0.232  11.897 -0.1637  1.5377  0.7527
 7761SOL    HW230145   0.780   0.357  11.852 -0.9406  1.0993  0.7456
 7762SOL     OW30146   3.380   9.402  11.666 -0.2959 -0.0157 -0.1959
 7762SOL    HW130147   3.336   9.383  11.749 -2.8901 -0.1587 -1.5224
 7762SOL    HW230148   3.432   9.323  11.648 -1.8355 -1.1106 -0.0017
 7763SOL     OW30149  10.187   3.027   9.993  0.1954 -0.0434  0.4395
 7763SOL    HW130150  10.137   3.091   9.943  1.1099 -0.3585 -0.9471
 7763SOL    HW230151  10.133   2.947   9.991 -0.6479  0.4717  1.6234
 7764SOL     OW30152  10.077   5.823  10.963  0.3174 -0.2843 -0.3911
 7764SOL    HW130153  10.070   5.874  11.043 -1.2913  1.0110 -1.2955
 7764SOL    HW230154  10.160   5.851  10.924  0.7482 -0.3811  0.4356
 7765SOL     OW30155   9.447   4.198   0.887  0.2191  0.2519  0.4477
 7765SOL    HW130156   9.361   4.240   0.894 -0.1957 -0.4638 -0.2535
 7765SOL    HW230157   9.505   4.267   0.858  0.0797  0.9694  1.7715
 7766SOL     OW30158   6.605   3.141   3.653 -0.3608 -0.2167  0.2784
 7766SOL    HW130159   6.658   3.073   3.611 -0.9694 -0.4062 -0.1957
 7766SOL    HW230160   6.595   3.209   3.587 -0.0925  0.1561  0.6153
 7767SOL     OW30161   9.848   6.809   9.388 -0.1025  0.3793  0.0495
 7767SOL    HW130162   9.774   6.821   9.447 -1.0469 -1.2477 -0.7483
 7767SOL    HW230163   9.900   6.739   9.428 -0.4006 -0.2831 -0.7052
 7768SOL     OW30164   3.211   0.425   9.024 -0.6789  0.2311 -0.1408
 7768SOL    HW130165   3.206   0.493   9.091  0.4603 -0.2487  0.4564
 7768SOL    HW230166   3.296   0.383   9.038 -0.6710 -0.2801 -1.5026
 7769SOL     OW30167   4.132   3.637  10.001  0.5839  0.3343 -0.2794
 7769SOL    HW130168   4.084   3.714  10.032  0.7057  0.3391 -0.1062
 7769SOL    HW230169   4.194   3.672   9.937  1.4311  0.5358  0.6293
 7770SOL     OW30170   4.558   1.363  11.079 -0.3852 -0.2666 -0.6278
 7770SOL    HW130171   4.581   1.380  10.988 -2.0706 -2.1923 -1.4765
 7770SOL    HW230172   4.637   1.386  11.128  0.0912  2.2316 -2.3598
 7771SOL     OW30173   7.611   0.695   4.256 -0.9057  0.7459  0.1791
 7771SOL    HW130174   7.517   0.688   4.243 -0.4397 -1.6470 -2.9015
 7771SOL    HW230175   7.641   0.753   4.186 -0.1145  2.1954  1.6505
 7772SOL     OW30176   9.679   8.774   8.373  0.2858  0.9738  0.1674
 7772SOL    HW130177   9.591   8.811   8.364 -0.1787  0.3231  1.6473
 7772SOL    HW230178   9.721   8.826   8.441  0.0285 -0.4255  1.4500
 7773SOL     OW30179   3.104  11.189   9.469  0.0467  0.1720 -0.1278
 7773SOL    HW130180   3.099  11.174   9.375 -1.2995  1.0924 -0.2380
 7773SOL    HW230181   3.042  11.126   9.507  0.3161  0.0478  0.1052
 7774SOL     OW30182   9.253  12.229  10.047 -0.3524  0.5617 -0.3373
 7774SOL    HW130183   9.333  12.282  10.050  0.2503 -0.3230 -0.1932
 7774SOL    HW230184   9.198  12.265  10.116  1.5531 -1.2389  2.3641
 7775SOL     OW30185   7.427   1.503   0.019  0.2334  0.0907 -0.0267
 7775SOL    HW130186   7.427   1.414  -0.016  0.9651  0.4209 -0.9045
 7775SOL    HW230187   7.479   1.553  -0.043  2.2023  0.5717  1.8759
 7776SOL     OW30188   5.907   3.233  10.435  0.3416 -0.1895 -0.4285
 7776SOL    HW130189   5.988   3.256  10.390  0.3496  1.2534  0.2601
 7776SOL    HW230190   5.924   3.148  10.474  0.6373 -1.0646 -2.3742
 7777SOL     OW30191   9.696   1.976   3.554  0.3868 -0.1327 -0.2398
 7777SOL    HW130192   9.785   2.009   3.541  0.3522 -0.1867 -0.6107
 7777SOL    HW230193   9.703   1.882   3.534  0.4713 -0.3474  0.7418
 7778SOL     OW30194   8.854   9.902  11.737 -0.2662  0.2798  1.1042
 7778SOL    HW130195   8.799   9.842  11.788  0.1508 -0.2456  0.9468
 7778SOL    HW230196   8.943   9.868  11.749 -0.2528 -0.4323 -0.7570
 7779SOL     OW30197  11.803   5.032   9.184  0.0656  0.2845  0.2156
 7779SOL    HW130198  11.712   5.011   9.163  0.0767  0.6694 -0.2335
 7779SOL    HW230199  11.832   4.960   9.240 -0.8904  0.7535  1.3759
 7780SOL     OW30200   8.595   0.696   2.472  0.4811  0.1777 -0.0614
 7780SOL    HW130201   8.569   0.609   2.441  1.9177 -0.6313  0.9353
 7780SOL    HW230202   8.518   0.728   2.519  0.6404 -1.4881  1.4367
 7781SOL     OW30203   5.842   7.831   3.013  0.2092  0.3539 -0.2510
 7781SOL    HW130204   5.758   7.792   3.040 -0.4014  2.2811  0.7673
 7781SOL    HW230205   5.907   7.765   3.036 -0.7662  0.0072  1.6721
 7782SOL     OW30206   5.662   4.398   9.442  0.7561 -0.2526  0.4221
 7782SOL    HW130207   5.666   4.477   9.497 -2.0034 -0.0927  0.5172
 7782SOL    HW230208   5.634   4.329   9.502  1.8865 -1.0492  0.0602
 7783SOL     OW30209  12.285   5.561   6.538  0.2431 -0.1974  0.2960
 7783SOL    HW130210  12.234   5.638   6.560  0.2522 -0.2915  0.6401
 7783SOL    HW230211  12.266   5.546   6.445  1.9061  1.4859 -0.3968
 7784SOL     OW30212   7.986   3.928   3.015  0.2331  0.0244 -0.0275
 7784SOL    HW130213   7.978   3.870   3.091  0.1080 -1.2023 -0.9614
 7784SOL    HW230214   8.052   3.887   2.960  0.7859  1.2409 -0.3029
 7785SOL     OW30215  11.322   6.498  10.191  0.2154  0.2177 -0.2605
 7785SOL    HW130216  11.269   6.440  10.136 -0.2730  1.2526 -0.8930
 7785SOL    HW230217  11.276   6.498  10.276  0.2746 -0.3908 -0.2223
 7786SOL     OW30218  12.261   5.152   1.409 -0.5561 -0.1359 -0.1118
 7786SOL    HW130219  12.239   5.245   1.402 -0.3124  0.0439  1.3169
 7786SOL    HW230220  12.249   5.131   1.501  1.4573 -0.9819  0.0126
 7787SOL     OW30221   9.489   0.177   9.291 -0.0328 -0.4498 -0.0722
 7787SOL    HW130222   9.487   0.164   9.386  0.4128  0.2799  0.0529
 7787SOL    HW230223   9.565   0.235   9.277  0.5117 -1.3525 -0.9792
 7788SOL     OW30224  12.034   2.680  12.083  0.2086  0.5484 -0.2547
 7788SOL    HW130225  12.036   2.601  12.029 -1.6414  0.7061 -0.6360
 7788SOL    HW230226  11.942   2.688  12.109  0.4831  2.2135  0.3076
 7789SOL     OW30227   4.896  11.001  11.280  0.0389  0.5716 -0.0637
 7789SOL    HW130228   4.822  10.984  11.338  0.9829 -1.4251  0.6392
 7789SOL    HW230229   4.900  11.096  11.274 -1.1853  0.7806  1.7095
 7790SOL     OW30230   6.629   5.751   9.931  0.4620 -0.2896  0.1838
 7790SOL    HW130231   6.655   5.662   9.955 -2.1091 -0.8207  1.2328
 7790SOL    HW230232   6.648   5.804  10.008  0.1169 -0.3221  0.2909
 7791SOL     OW30233   9.400   3.364   1.482 -0.1858  0.3681  0.4919
 7791SOL    HW130234   9.469   3.430   1.491 -0.6008  0.9956 -0.7084
 7791SOL    HW230235   9.448   3.281   1.473  0.4445  0.7966 -0.3368
 7792SOL     OW30236   9.470   6.829   9.320 -0.4949  0.3153 -0.4073
 7792SOL    HW130237   9.404   6.880   9.272  0.4609  1.4083 -0.6026
 7792SOL    HW230238   9.473   6.745   9.274 -0.3675  0.9578 -1.6103
 7793SOL     OW30239   3.179   2.480  11.191 -0.1073 -0.7541 -0.1021
 7793SOL    HW130240   3.264   2.505  11.154 -0.0682  2.1187  1.6495
 7793SOL    HW230241   3.201   2.432  11.271 -0.0748  0.0706  0.4017
 7794SOL     OW30242   4.226   5.000  12.271 -0.1541 -0.1160 -0.3858
 7794SOL    HW130243   4.142   5.042  12.290  0.0049 -0.1274  0.3948
 7794SOL    HW230244   4.220   4.974  12.179 -1.7414 -1.7806  0.1214
 7795SOL     OW30245   3.855   5.932   6.378 -0.1469  0.4391 -0.2518
 7795SOL    HW130246   3.804   5.917   6.457 -2.6991  0.5526 -1.7574
 7795SOL    HW230247   3.846   6.026   6.361  1.4194  0.6590 -0.0710
 7796SOL     OW30248   7.472   2.605   2.438  0.0233 -0.0031 -0.2108
 7796SOL    HW130249   7.484   2.513   2.415 -0.1110  0.2557 -1.3413
 7796SOL    HW230250   7.475   2.652   2.355  2.6118  1.3184  0.5389
 7797SOL     OW30251  10.747   4.286   4.117  0.3882  0.3356 -0.1675
 7797SOL    HW130252  10.739   4.369   4.071 -2.4110 -1.2470 -2.9300
 7797SOL    HW230253  10.714   4.303   4.205 -2.2730  1.7714 -1.3196
 7798SOL     OW30254   6.522   6.691   5.733 -0.0537 -0.3184 -0.1015
 7798SOL    HW130255   6.510   6.781   5.702  1.6925  0.1792  0.5415
 7798SOL    HW230256   6.436   6.650   5.722 -0.3431  0.7624 -2.4921
 7799SOL     OW30257   5.467   2.202   0.258 -0.7014  0.1075  0.1459
 7799SOL    HW130258   5.486   2.256   0.335 -0.4996  0.7896 -0.3784
 7799SOL    HW230259   5.515   2.121   0.274 -0.1816  0.4736  0.4704
 7800SOL     OW30260   8.970   0.088   4.906 -0.5643  0.0485  1.1651
 7800SOL    HW130261   8.921   0.045   4.976 -1.3584  1.2947  1.4019
 7800SOL    HW230262   8.927   0.172   4.895 -0.9774 -0.4156 -1.3942
 7801SOL     OW30263   5.351   9.488  11.244 -0.0487  0.3834  0.3549
 7801SOL    HW130264   5.412   9.501  11.172 -2.5634  0.5690 -1.9334
 7801SOL    HW230265   5.406   9.473  11.320  2.8072  2.1596 -1.1797
 7802SOL     OW30266   4.326   5.538   0.342  0.5691 -0.0068  0.1938
 7802SOL    HW130267   4.343   5.560   0.250  0.5334 -0.6634  0.0300
 7802SOL    HW230268   4.412   5.546   0.384  0.8772 -1.1266 -0.1927
 7803SOL     OW30269   1.037   9.759  10.600 -0.1960  0.9716 -0.0423
 7803SOL    HW130270   1.006   9.724  10.517  0.6768 -1.2243  0.4817
 7803SOL    HW230271   1.131   9.772  10.587 -0.0296  0.4947  0.6054
 7804SOL     OW30272  12.187   3.417   0.250  0.5328  0.0061  0.4547
 7804SOL    HW130273  12.237   3.341   0.219  0.9597  0.5428 -0.2099
 7804SOL    HW230274  12.104   3.381   0.280  0.7905 -0.7425  0.2825
 7805SOL     OW30275   7.328  12.187   9.872 -0.4320 -0.2525 -0.7598
 7805SOL    HW130276   7.260  12.170   9.807 -0.6226  2.0975 -1.2642
 7805SOL    HW230277   7.359  12.275   9.851 -0.0648  0.3502  1.9491
 7806SOL     OW30278   2.170   3.654   2.084 -0.1562  0.2845  0.9715
 7806SOL    HW130279   2.191   3.747   2.081 -3.9050  1.2851  1.6076
 7806SOL    HW230280   2.092   3.648   2.138 -1.2180 -2.9901 -0.6386
 7807SOL     OW30281   3.121   7.933   7.363  0.3785  0.3508  0.2181
 7807SOL    HW130282   3.034   7.971   7.382 -0.6249  0.1520 -3.3513
 7807SOL    HW230283   3.181   7.988   7.414 -1.6835  1.3083  1.8354
 7808SOL     OW30284   2.886   6.669   2.636 -0.3359 -0.4914  0.1499
 7808SOL    HW130285   2.792   6.653   2.625 -0.0678 -1.8814 -0.3451
 7808SOL    HW230286   2.892   6.737   2.703 -1.7730  1.5215 -1.6030
 7809SOL     OW30287   4.622  11.706  10.064 -0.1371  0.1348  0.2885
 7809SOL    HW130288   4.671  11.624  10.059 -2.1184 -1.0828 -0.1011
 7809SOL    HW230289   4.563  11.695  10.138 -0.9540  0.8968 -0.2185
 7810SOL     OW30290   8.122   3.856   2.200  0.1334 -0.0853 -0.1586
 7810SOL    HW130291   8.136   3.855   2.295  0.8729 -1.6984 -0.2410
 7810SOL    HW230292   8.030   3.833   2.189 -0.2724  1.2963  0.1734
 7811SOL     OW30293   6.498   6.191   2.479 -0.1511  0.1049 -0.7125
 7811SOL    HW130294   6.449   6.112   2.457 -0.8112  1.1194 -3.1784
 7811SOL    HW230295   6.433   6.261   2.479  0.3849  0.6785  1.6345
 7812SOL     OW30296   9.639   4.660   9.909 -0.7152 -0.5222  0.9020
 7812SOL    HW130297   9.677   4.587   9.958  0.9657 -0.2223  0.1257
 7812SOL    HW230298   9.651   4.736   9.967 -2.1279 -0.7624  1.5525
 7813SOL     OW30299   7.251   8.996   4.146  0.2784  0.5762 -0.1383
 7813SOL    HW130300   7.169   9.010   4.099 -0.0896  1.9559  0.8557
 7813SOL    HW230301   7.316   8.983   4.077 -0.6176  0.3529 -0.9623
 7814SOL     OW30302  10.267   1.474   0.583 -0.1864  0.1730  0.1414
 7814SOL    HW130303  10.257   1.521   0.501 -0.7434 -0.5821 -0.2313
 7814SOL    HW230304  10.304   1.389   0.558 -0.1242  0.0320  0.6954
 7815SOL     OW30305   7.437   3.041   0.449  0.1314  0.6395 -0.1994
 7815SOL    HW130306   7.504   3.005   0.391 -1.4257 -0.2715 -1.5461
 7815SOL    HW230307   7.357   2.993   0.426 -0.6974  0.5745  2.3828
 7816SOL     OW30308  11.315   5.243   1.257  0.2251  0.1383  0.9357
 7816SOL    HW130309  11.231   5.247   1.211  0.4258  0.8419  0.6069
 7816SOL    HW230310  11.299   5.186   1.332  0.3213 -2.5206 -0.9009
 7817SOL     OW30311  12.185  11.457  12.180  0.1358 -0.3590  0.0109
 7817SOL    HW130312  12.213  11.424  12.265  0.3981 -0.5014 -0.1292
 7817SOL    HW230313  12.089  11.458  12.185  0.1473 -0.4633  0.2713
 7818SOL     OW30314   6.455  11.320   0.427 -0.4288  0.2652  0.5085
 7818SOL    HW130315   6.541  11.313   0.386 -1.3694 -0.8503 -1.3781
 7818SOL    HW230316   6.472  11.309   0.521  1.4582  0.0167  0.1638
 7819SOL     OW30317   0.926   8.866   5.129  0.1997 -0.0239 -0.0769
 7819SOL    HW130318   0.997   8.804   5.114  0.0636 -0.6220  1.5374
 7819SOL    HW230319   0.855   8.814   5.165  0.3084  1.0912  1.9468
 7820SOL     OW30320   8.144   2.092   8.169  0.2334  0.0218  0.0441
 7820SOL    HW130321   8.209   2.048   8.222  1.9953  0.8453 -1.3324
 7820SOL    HW230322   8.086   2.135   8.232  0.5489 -1.3330  1.3009
 7821SOL     OW30323  11.474   0.873   1.512  0.0601 -0.1627 -0.2070
 7821SOL    HW130324  11.400   0.850   1.456 -0.2537  1.0799 -0.3360
 7821SOL    HW230325  11.457   0.828   1.594  0.3535 -1.7380 -0.9727
 7822SOL     OW30326   5.545  11.783   7.903 -0.6333 -0.1808 -0.4007
 7822SOL    HW130327   5.530  11.731   7.825  1.1357 -0.8395 -0.3446
 7822SOL    HW230328   5.638  11.805   7.900 -1.2675  2.9910 -0.4125
 7823SOL     OW30329   4.711   6.511   2.424 -0.2974 -0.4033 -0.2086
 7823SOL    HW130330   4.689   6.418   2.421  0.1850 -0.5158 -0.5226
 7823SOL    HW230331   4.701   6.540   2.333 -1.6448  0.1464  0.1059
 7824SOL     OW30332   9.783  11.814   2.519  0.3437 -0.1794  0.5191
 7824SOL    HW130333   9.820  11.737   2.564 -0.2887  0.6514  2.6051
 7824SOL    HW230334   9.725  11.854   2.585 -1.5705  0.4957 -1.4529
 7825SOL     OW30335   5.482  11.216   5.325 -0.2637  0.1234  0.1979
 7825SOL    HW130336   5.410  11.171   5.280  0.1973 -0.7162  0.2787
 7825SOL    HW230337   5.477  11.306   5.294 -0.7430 -0.1532 -0.5616
 7826SOL     OW30338   9.379   4.521  10.557 -0.4680  0.3518  0.3166
 7826SOL    HW130339   9.318   4.449  10.542  1.1301 -0.9568 -0.1968
 7826SOL    HW230340   9.448   4.508  10.491  0.8962  1.1418  1.5240
 7827SOL     OW30341  11.369  10.779   7.373  0.2522 -0.0867 -0.1532
 7827SOL    HW130342  11.373  10.873   7.392  0.7190  0.1467 -1.2935
 7827SOL    HW230343  11.460  10.750   7.378  0.0422 -0.6268  0.8090
 7828SOL     OW30344   7.856   8.226   6.130  0.0929  0.0632 -0.0864
 7828SOL    HW130345   7.848   8.133   6.107 -0.7282 -1.2354  4.5491
 7828SOL    HW230346   7.787   8.268   6.079  0.0849 -1.9014 -1.8750
 7829SOL     OW30347   0.806  10.265   6.660  0.3925 -0.0062  0.2672
 7829SOL    HW130348   0.821  10.279   6.566 -1.3910 -0.7695 -0.1944
 7829SOL    HW230349   0.756  10.183   6.663 -1.6643  1.2226  1.6709
 7830SOL     OW30350   0.941   8.089   1.025  0.0423  0.4574  0.7767
 7830SOL    HW130351   0.858   8.133   1.043 -0.1263  0.3901  0.1980
 7830SOL    HW230352   0.949   8.091   0.929  0.2647 -0.3392  0.7672
 7831SOL     OW30353  10.351   0.482   9.196  0.4980 -0.0394  0.0646
 7831SOL    HW130354  10.342   0.439   9.281 -0.9054 -1.2215 -0.6338
 7831SOL    HW230355  10.361   0.575   9.216 -1.7680 -0.0390  1.4936
 7832SOL     OW30356   0.133  11.976   8.471 -0.2491  0.3328  0.0371
 7832SOL    HW130357   0.147  12.070   8.458  0.0224  0.2471 -0.2935
 7832SOL    HW230358   0.050  11.959   8.426 -0.3092  0.4208  0.1143
 7833SOL     OW30359   8.426   4.526   0.135 -0.0796 -0.1404 -0.1894
 7833SOL    HW130360   8.344   4.477   0.130 -0.8696  1.0661  0.3790
 7833SOL    HW230361   8.457   4.512   0.224 -1.0742  1.5180  0.4562
 7834SOL     OW30362   9.890  11.302  10.324  0.0775 -0.5080 -0.1708
 7834SOL    HW130363   9.796  11.320  10.315  0.0888  1.1480  2.2099
 7834SOL    HW230364   9.894  11.230  10.387  0.3893 -2.1335 -1.9774
 7835SOL     OW30365   0.335   3.772   9.693 -0.7503 -0.0855 -0.0224
 7835SOL    HW130366   0.401   3.783   9.761 -0.5617  0.3477 -0.2674
 7835SOL    HW230367   0.256   3.744   9.740 -0.7085  0.4989  0.4157
 7836SOL     OW30368   9.111   3.986   5.932 -0.3033  0.2943  0.6896
 7836SOL    HW130369   9.182   3.973   5.869 -0.8402 -3.6866  0.6742
 7836SOL    HW230370   9.154   4.030   6.006  1.6229  0.2163 -0.3061
 7837SOL     OW30371   0.809  10.058   8.562 -0.0855  0.0714 -0.0963
 7837SOL    HW130372   0.714  10.056   8.568 -0.1729  0.3650 -1.2036
 7837SOL    HW230373   0.833   9.970   8.532 -0.2970  0.9102 -3.0180
 7838SOL     OW30374   4.875   2.857  12.297  0.2644 -0.3387  0.5265
 7838SOL    HW130375   4.806   2.824  12.355 -0.2478  2.0625  1.3690
 7838SOL    HW230376   4.830   2.918  12.239  1.3957 -0.0647 -0.0754
 7839SOL     OW30377   6.701   3.441   6.617  0.5247  0.3552  0.3190
 7839SOL    HW130378   6.701   3.446   6.712  0.1523  1.5493  0.2698
 7839SOL    HW230379   6.622   3.489   6.591 -0.7218 -1.9529 -0.5075
 7840SOL     OW30380   2.414  10.362   4.297  0.0326 -0.3278  0.0917
 7840SOL    HW130381   2.359  10.330   4.225 -0.5386  0.0794  0.3413
 7840SOL    HW230382   2.428  10.286   4.352  1.0085 -0.8039 -0.7715
 7841SOL     OW30383   9.728   4.321   2.263  0.5789 -0.4413  0.1025
 7841SOL    HW130384   9.783   4.266   2.318  2.9636  1.3344 -0.3005
 7841SOL    HW230385   9.749   4.293   2.173  1.4435  0.6948 -0.0809
 7842SOL     OW30386   3.369  10.053   4.260 -0.3932  0.1372 -0.2192
 7842SOL    HW130387   3.284  10.080   4.295 -0.0437  0.7103  0.2050
 7842SOL    HW230388   3.433  10.085   4.324  0.2549  1.1955 -1.3423
 7843SOL     OW30389   1.006   8.613   9.346  0.5826 -0.6521  0.3613
 7843SOL    HW130390   0.945   8.615   9.272  1.7581  0.6198 -0.6359
 7843SOL    HW230391   0.952   8.632   9.423 -0.2879  0.5167 -0.4991
 7844SOL     OW30392   1.704   8.722   4.370 -0.1818  0.1852 -0.0234
 7844SOL    HW130393   1.621   8.687   4.338 -1.1581  1.2552  1.2227
 7844SOL    HW230394   1.698   8.816   4.352 -0.4849  0.7248  2.5517
 7845SOL     OW30395   3.083  11.915   2.235  0.4117  0.0097  0.3216
 7845SOL    HW130396   3.136  11.892   2.312  1.4823  1.2941  0.0287
 7845SOL    HW230397   3.088  12.011   2.232 -1.4691  0.1253 -0.0902
 7846SOL     OW30398   2.955   7.795   1.563  0.2972  0.0622  0.2784
 7846SOL    HW130399   3.009   7.834   1.631  0.7915 -0.1010 -0.0159
 7846SOL    HW230400   2.956   7.858   1.492 -0.9751  0.6526  0.7644
 7847SOL     OW30401   4.667  12.233   8.249  0.1014  0.1452 -0.2832
 7847SOL    HW130402   4.749  12.277   8.270  0.5967 -0.1877 -1.4113
 7847SOL    HW230403   4.690  12.140   8.246 -1.1103 -0.3875  2.9380
 7848SOL     OW30404   1.381   0.265   2.809  0.3340 -0.1343  0.0104
 7848SOL    HW130405   1.318   0.206   2.852  0.4216 -0.7044 -0.6371
 7848SOL    HW230406   1.412   0.216   2.733  0.5907  0.6568 -0.4021
 7849SOL     OW30407   5.427   8.533   8.203  0.3237 -0.1304 -0.5895
 7849SOL    HW130408   5.457   8.442   8.200  2.6425  0.5320 -0.1150
 7849SOL    HW230409   5.505   8.583   8.230 -0.7767  2.0372 -1.1527
 7850SOL     OW30410  10.413   2.113   6.347 -0.1100 -0.0983 -0.6419
 7850SOL    HW130411  10.404   2.203   6.316  1.7407  0.5371  0.5084
 7850SOL    HW230412  10.405   2.059   6.268 -1.2287  1.0654 -1.3461
 7851SOL     OW30413   4.275   9.589   4.162 -0.1511  0.6380 -0.1205
 7851SOL    HW130414   4.252   9.532   4.236  1.9423 -0.9718 -0.5951
 7851SOL    HW230415   4.317   9.665   4.202  0.5755 -0.0215  0.3969
 7852SOL     OW30416  11.966   3.844  10.551 -0.3612 -0.2762 -0.4770
 7852SOL    HW130417  11.892   3.898  10.522 -0.8565 -0.4081  0.5246
 7852SOL    HW230418  11.932   3.793  10.624  0.1637 -1.7973 -1.2414
 7853SOL     OW30419   8.703   9.380   4.367 -0.2823  0.2585  0.2968
 7853SOL    HW130420   8.734   9.376   4.458 -0.0567  0.9565  0.2574
 7853SOL    HW230421   8.715   9.471   4.342 -2.9356  0.7225  0.4525
 7854SOL     OW30422  11.367  10.055   4.075 -0.5908 -0.1481  0.0145
 7854SOL    HW130423  11.397   9.965   4.078 -0.3407 -0.0581  0.3103
 7854SOL    HW230424  11.289  10.053   4.020 -0.2128 -0.4313 -0.5200
 7855SOL     OW30425   9.300   5.956   5.149  0.1459  0.1245  0.0622
 7855SOL    HW130426   9.296   6.009   5.228 -2.3923 -1.6006  1.2237
 7855SOL    HW230427   9.280   6.018   5.078 -3.2096  0.8228  1.4087
 7856SOL     OW30428   9.320  11.928  10.172 -0.0111  0.0473 -0.3296
 7856SOL    HW130429   9.357  12.009  10.206  2.6264 -0.2673 -2.1094
 7856SOL    HW230430   9.286  11.883  10.249 -1.5751  2.7731  0.7026
 7857SOL     OW30431   7.741   9.228   1.688  0.1229 -0.5038 -0.0876
 7857SOL    HW130432   7.701   9.308   1.723  1.7791 -0.0175  0.8168
 7857SOL    HW230433   7.818   9.259   1.640  0.9056 -1.5364  0.4610
 7858SOL     OW30434   4.214   8.903   3.415 -0.5765 -0.2816  0.4703
 7858SOL    HW130435   4.212   8.997   3.430 -0.9762 -0.4962  1.8814
 7858SOL    HW230436   4.124   8.874   3.433 -0.3820 -0.9760  0.3646
 7859SOL     OW30437   0.028   5.136   4.591 -0.7506 -0.2591 -0.2727
 7859SOL    HW130438   0.048   5.057   4.641  1.3510  1.1103  1.2233
 7859SOL    HW230439  -0.066   5.131   4.576 -0.5904 -3.4186 -0.9879
 7860SOL     OW30440   3.342   5.771  10.709 -0.0873  0.1534 -0.0325
 7860SOL    HW130441   3.391   5.853  10.706 -1.0948  0.7783 -0.0618
 7860SOL    HW230442   3.250   5.798  10.706 -0.4579 -1.0446 -2.4217
 7861SOL     OW30443   3.406   9.446   6.370 -0.2283  0.0546  0.0670
 7861SOL    HW130444   3.491   9.422   6.407  0.0988  0.3972 -0.4532
 7861SOL    HW230445   3.390   9.534   6.404  0.0298  0.3329 -0.5250
 7862SOL     OW30446   0.381   3.650   4.171 -0.0140  0.3623 -0.8125
 7862SOL    HW130447   0.332   3.600   4.106  0.1972 -0.5452 -0.2959
 7862SOL    HW230448   0.472   3.626   4.157 -0.0395 -0.4846  0.3253
 7863SOL     OW30449   3.424   4.735  12.234 -0.4088  0.3111  0.1992
 7863SOL    HW130450   3.422   4.708  12.142  0.9282  0.8074 -0.0025
 7863SOL    HW230451   3.492   4.680  12.274  1.0219  1.9812  0.2072
 7864SOL     OW30452   3.587   6.664  11.519  0.4162 -0.2043  0.2992
 7864SOL    HW130453   3.568   6.752  11.553  0.1241  0.3176 -1.1446
 7864SOL    HW230454   3.581   6.608  11.596 -1.0513  0.8051  0.9834
 7865SOL     OW30455  10.981   8.193   9.916  0.2702  0.0588  0.1178
 7865SOL    HW130456  10.973   8.285   9.939 -0.2350  0.2391 -0.7362
 7865SOL    HW230457  10.894   8.157   9.933  0.1364  0.0050 -0.6859
 7866SOL     OW30458   8.279  11.430   0.626 -0.3917  0.4590  0.4499
 7866SOL    HW130459   8.274  11.526   0.621 -3.2321  0.3440 -0.7521
 7866SOL    HW230460   8.189  11.401   0.610  0.2814 -2.4143  1.4035
 7867SOL     OW30461  11.450   4.087   0.736 -0.2843 -0.6120 -0.3066
 7867SOL    HW130462  11.421   4.034   0.810  0.0767 -0.1170  0.2004
 7867SOL    HW230463  11.409   4.047   0.659  0.5542 -2.0571 -0.0260
 7868SOL     OW30464   6.597   1.328   4.936  0.1465 -0.0595  0.1248
 7868SOL    HW130465   6.601   1.370   4.850 -0.8671  1.2734  0.6984
 7868SOL    HW230466   6.674   1.361   4.982  0.6452 -0.7104 -0.2220
 7869SOL     OW30467   1.776   1.151   1.330 -0.0447  0.2826  0.7155
 7869SOL    HW130468   1.702   1.098   1.301 -0.3859  0.9166  0.4082
 7869SOL    HW230469   1.740   1.239   1.341  1.0015  1.0096 -1.1362
 7870SOL     OW30470  11.986   8.858  11.645  0.6899 -0.7129  0.4687
 7870SOL    HW130471  11.989   8.869  11.550  2.5966 -0.0783  0.5529
 7870SOL    HW230472  12.009   8.944  11.680  0.6207 -1.0907  1.4856
 7871SOL     OW30473   8.411   0.653  11.398  0.1946 -1.3324 -0.1232
 7871SOL    HW130474   8.486   0.597  11.378  1.0740  0.3566 -1.8592
 7871SOL    HW230475   8.449   0.730  11.440 -0.8460 -1.4229  1.0386
 7872SOL     OW30476   9.686   2.586   5.220 -0.1095  0.3574 -0.6633
 7872SOL    HW130477   9.754   2.553   5.278 -1.6609 -0.1670  0.9275
 7872SOL    HW230478   9.661   2.511   5.166 -0.0818  0.3049 -0.6023
 7873SOL     OW30479   1.095   0.008   2.848 -0.0944  0.3717 -0.0972
 7873SOL    HW130480   1.085   0.022   2.754  0.4272  1.1558 -0.0463
 7873SOL    HW230481   1.043  -0.070   2.867  1.1454 -0.7935 -1.3322
 7874SOL     OW30482   8.265  10.504   8.888 -0.1858  0.4043  0.3189
 7874SOL    HW130483   8.171  10.520   8.885 -0.2193  0.1234 -0.3368
 7874SOL    HW230484   8.281  10.443   8.816  0.2585 -0.8067  1.4078
 7875SOL     OW30485  11.347   1.425   5.797 -0.1531 -0.7022 -0.0718
 7875SOL    HW130486  11.332   1.338   5.832 -1.4393  0.1280  1.5836
 7875SOL    HW230487  11.259   1.461   5.783  0.2827  1.1091  1.4044
 7876SOL     OW30488   6.980   0.697   8.362  0.5327 -0.2616 -0.1483
 7876SOL    HW130489   6.948   0.615   8.400  0.6760  0.0676  0.7012
 7876SOL    HW230490   7.061   0.715   8.408  0.2270  0.6388  0.0587
 7877SOL     OW30491   2.462  11.722   8.119  0.4917 -0.2389 -0.2732
 7877SOL    HW130492   2.513  11.797   8.151  1.1455 -0.6712 -0.2822
 7877SOL    HW230493   2.429  11.751   8.034 -0.3316  0.5095  0.2886
 7878SOL     OW30494   2.710   7.065   2.912  0.3092 -0.6573  0.1604
 7878SOL    HW130495   2.650   7.140   2.913 -1.0589 -1.6253 -1.9329
 7878SOL    HW230496   2.783   7.092   2.967 -0.7652  1.6625  0.5789
 7879SOL     OW30497   0.008  10.211   0.083 -0.0354 -0.3762  0.3247
 7879SOL    HW130498  -0.069  10.158   0.060  0.4542 -0.6273 -0.8244
 7879SOL    HW230499  -0.028  10.286   0.130 -0.8657 -1.0828  0.8596
 7880SOL     OW30500   7.114   0.058   2.715 -0.1435 -0.0441 -0.4620
 7880SOL    HW130501   7.205   0.041   2.691  0.1008 -1.1257  1.0883
 7880SOL    HW230502   7.114   0.056   2.811 -1.5993  1.1140 -0.4053
 7881SOL     OW30503   4.626   5.182   1.428  0.4914  0.0075 -0.2248
 7881SOL    HW130504   4.653   5.149   1.343  0.8967 -0.3493  0.0378
 7881SOL    HW230505   4.703   5.229   1.461  0.8020 -1.0099  0.5310
 7882SOL     OW30506   0.363   5.168   7.344 -0.4197  0.2079 -0.1044
 7882SOL    HW130507   0.340   5.103   7.277 -1.5764 -0.1953  0.6405
 7882SOL    HW230508   0.393   5.115   7.419  0.0250  0.6067  0.0020
 7883SOL     OW30509   7.731   4.160   2.640  0.3249  0.0138  0.2211
 7883SOL    HW130510   7.717   4.078   2.593  2.6425  0.3049 -1.1085
 7883SOL    HW230511   7.675   4.223   2.596  0.7222 -0.2421 -0.6783
 7884SOL     OW30512   4.330   4.051   2.827 -0.5621  0.1355  0.1697
 7884SOL    HW130513   4.349   4.092   2.911  0.3633 -0.4675  0.2680
 7884SOL    HW230514   4.322   3.958   2.846 -0.1256 -0.0363 -0.4399
 7885SOL     OW30515   5.937   4.798   3.874 -0.4449  0.7862  0.0080
 7885SOL    HW130516   5.961   4.875   3.927  0.0335  0.5471  0.1497
 7885SOL    HW230517   5.895   4.739   3.936 -0.8489  0.9520 -0.1099
 7886SOL     OW30518   3.412   3.991   0.259  0.3116  0.1996  0.1568
 7886SOL    HW130519   3.439   4.024   0.344 -0.4913  0.1588  0.4363
 7886SOL    HW230520   3.341   4.050   0.232  1.0493  0.6735 -0.8281
 7887SOL     OW30521  11.384  10.204   2.384 -0.1231 -0.0933 -0.4065
 7887SOL    HW130522  11.388  10.300   2.381 -1.0783  0.0056  0.8307
 7887SOL    HW230523  11.429  10.180   2.465 -0.2119 -0.6639 -0.5216
 7888SOL     OW30524  10.170  11.529   2.906  0.0201 -0.2297 -0.3084
 7888SOL    HW130525  10.092  11.573   2.941  1.0658  1.3356  0.1363
 7888SOL    HW230526  10.166  11.441   2.943 -0.4349  0.4860  1.4112
 7889SOL     OW30527   7.829   0.620   7.013 -0.2574  0.1657  0.0902
 7889SOL    HW130528   7.853   0.671   7.091  1.9010 -1.5760  0.6577
 7889SOL    HW230529   7.881   0.659   6.942 -0.1774  0.0649  0.0931
 7890SOL     OW30530   8.478   6.286   1.321  0.6267 -0.0157 -0.0537
 7890SOL    HW130531   8.382   6.285   1.315  0.4667  1.1364  1.7105
 7890SOL    HW230532   8.506   6.219   1.259 -1.2133  1.1778 -2.3776
 7891SOL     OW30533   3.234   5.860   5.164 -0.6398 -0.6137  0.1073
 7891SOL    HW130534   3.173   5.874   5.236 -1.0304  0.2072 -0.3796
 7891SOL    HW230535   3.320   5.872   5.203 -0.8826  1.0366  0.1874
 7892SOL     OW30536   9.633  11.256   0.521  0.0129  0.0961 -0.0871
 7892SOL    HW130537   9.594  11.168   0.518 -0.3986  0.2879 -0.3323
 7892SOL    HW230538   9.636  11.284   0.430 -0.1757  0.4802  0.0225
 7893SOL     OW30539   9.734   5.173   9.426  0.4752  0.1570  0.1519
 7893SOL    HW130540   9.727   5.139   9.515 -0.4542  0.2507  0.1270
 7893SOL    HW230541   9.731   5.096   9.369 -0.4005  0.1929  0.1450
 7894SOL     OW30542  11.425   2.932   9.467 -0.2924 -0.1589  0.2562
 7894SOL    HW130543  11.363   2.988   9.421 -0.6528 -0.1723  0.7108
 7894SOL    HW230544  11.511   2.959   9.435 -0.6218 -1.7145 -2.1063
 7895SOL     OW30545   3.174   6.526   1.434 -0.3224 -0.0517  0.3750
 7895SOL    HW130546   3.202   6.458   1.372 -1.5423 -0.5095  0.2773
 7895SOL    HW230547   3.230   6.601   1.417  0.4630 -0.7466 -0.1311
 7896SOL     OW30548   4.117   7.844   5.179 -0.5722 -0.6745  0.0125
 7896SOL    HW130549   4.211   7.862   5.182 -0.5559  0.2404 -2.8840
 7896SOL    HW230550   4.106   7.768   5.237  1.7111 -0.0630  1.3907
 7897SOL     OW30551   9.126   4.481   5.547 -0.5975  0.3746  0.2959
 7897SOL    HW130552   9.141   4.395   5.509  0.4219  0.1098  1.2626
 7897SOL    HW230553   9.046   4.470   5.599 -0.6541  0.0990  0.1539
 7898SOL     OW30554  10.550   1.783  11.943 -0.4540  0.5182  0.4113
 7898SOL    HW130555  10.612   1.814  11.877 -0.0616  3.3394  1.9318
 7898SOL    HW230556  10.603   1.775  12.023 -1.1127 -1.8224  0.6688
 7899SOL     OW30557   1.236  10.874   6.231 -0.0722 -0.2175 -0.7693
 7899SOL    HW130558   1.328  10.885   6.208  0.5925 -1.3072  1.1701
 7899SOL    HW230559   1.222  10.780   6.232 -0.7068 -0.1363  0.7107
 7900SOL     OW30560   7.669   3.397   5.497  0.1039 -0.4296  0.4281
 7900SOL    HW130561   7.580   3.429   5.512 -0.0330  0.3290 -1.6638
 7900SOL    HW230562   7.660   3.333   5.426  1.1262 -1.0292  0.8118
 7901SOL     OW30563  12.059   9.496   7.973 -0.5349 -0.2023 -0.1520
 7901SOL    HW130564  11.996   9.424   7.964 -0.7957 -0.0152  0.1507
 7901SOL    HW230565  12.122   9.482   7.902 -0.8995 -0.4076 -0.4390
 7902SOL     OW30566  12.477   5.120   6.258 -0.0699 -0.1609 -0.0565
 7902SOL    HW130567  12.516   5.176   6.325 -0.0385 -3.1790  2.6455
 7902SOL    HW230568  12.551   5.075   6.217 -0.2772 -0.8498  0.3084
 7903SOL     OW30569   4.982   0.743   7.132 -0.1385  0.2481 -0.2409
 7903SOL    HW130570   5.042   0.757   7.205 -0.1574  0.3174 -0.2386
 7903SOL    HW230571   4.918   0.681   7.166  0.6190 -0.7779 -0.6315
 7904SOL     OW30572   4.486  11.265   1.317 -0.6398  0.5554 -0.5024
 7904SOL    HW130573   4.493  11.174   1.346  0.3152  0.7678 -0.0420
 7904SOL    HW230574   4.447  11.311   1.392 -0.3827  0.6673 -0.4367
 7905SOL     OW30575   1.669   5.045   5.540  0.0226 -0.1904 -0.1972
 7905SOL    HW130576   1.734   5.115   5.552  0.1329 -0.5618  1.6772
 7905SOL    HW230577   1.701   4.995   5.466  0.4957  1.1306 -0.9215
 7906SOL     OW30578   5.752   3.899   5.854 -0.1955 -0.4042  0.5398
 7906SOL    HW130579   5.732   3.910   5.947  0.2614  2.2672  0.3990
 7906SOL    HW230580   5.673   3.928   5.809  0.2057  0.0520  0.1104
 7907SOL     OW30581   9.045   3.192   2.173 -0.0832  0.0872  0.3811
 7907SOL    HW130582   8.982   3.220   2.239 -0.1511  2.1844 -0.5072
 7907SOL    HW230583   9.035   3.254   2.101  1.6578 -0.6883 -0.6095
 7908SOL     OW30584  10.567   0.787   2.563 -0.0560 -0.2512  0.2463
 7908SOL    HW130585  10.515   0.709   2.544  0.6539 -0.6613 -0.0741
 7908SOL    HW230586  10.504   0.851   2.596 -0.9349 -0.3493 -1.1758
 7909SOL     OW30587  10.987  10.966   1.090 -0.4440  0.4401  0.5515
 7909SOL    HW130588  10.897  10.935   1.103 -0.1710 -0.8641 -0.4273
 7909SOL    HW230589  10.986  11.005   1.002  0.0770 -0.1098  0.2976
 7910SOL     OW30590   9.890  12.352   0.916 -0.2698 -0.0439  0.2553
 7910SOL    HW130591   9.873  12.261   0.940  0.8460 -0.3883 -0.1592
 7910SOL    HW230592   9.917  12.394   0.998 -0.9993 -0.0188  0.4909
 7911SOL     OW30593   0.130   7.257   0.582 -0.1535  0.0649 -0.5534
 7911SOL    HW130594   0.094   7.345   0.570  0.0621 -0.0281 -2.0024
 7911SOL    HW230595   0.205   7.270   0.640 -0.5595  0.7300 -0.1662
 7912SOL     OW30596   5.194  11.951   7.194 -0.0102  0.1748 -0.0300
 7912SOL    HW130597   5.185  12.046   7.181  0.6826  0.0271 -1.9792
 7912SOL    HW230598   5.108  11.922   7.224 -1.1536  1.0404 -2.2408
 7913SOL     OW30599   0.163  11.758  10.786  1.0051 -0.2617 -0.2987
 7913SOL    HW130600   0.070  11.780  10.772  1.1346  0.7752  0.3889
 7913SOL    HW230601   0.162  11.697  10.860  0.7977 -1.0399 -0.9356
 7914SOL     OW30602  12.361   0.042   2.439  0.0471 -0.2582 -0.2238
 7914SOL    HW130603  12.301   0.002   2.501 -0.0643  0.6666  0.2901
 7914SOL    HW230604  12.419  -0.029   2.412  0.0856 -0.6865  0.9241
 7915SOL     OW30605  10.454   0.572   4.187  0.1790  0.2813  0.1325
 7915SOL    HW130606  10.508   0.536   4.257  0.8650  0.8063 -0.1201
 7915SOL    HW230607  10.376   0.515   4.185  0.1178  0.3125  1.3511
 7916SOL     OW30608   2.708   9.216  12.312 -0.8470 -0.1999  0.5009
 7916SOL    HW130609   2.698   9.130  12.270 -2.5653  0.3373 -0.2558
 7916SOL    HW230610   2.652   9.274  12.261 -0.1100  1.2771  1.3224
 7917SOL     OW30611   4.678   1.879  11.818 -0.7052 -0.1650  0.4889
 7917SOL    HW130612   4.716   1.804  11.865 -0.4379 -0.3067  0.0568
 7917SOL    HW230613   4.595   1.895  11.862 -1.1721 -1.2656  0.0558
 7918SOL     OW30614   2.850   3.093   1.356  0.1643  0.2801 -0.2613
 7918SOL    HW130615   2.845   3.145   1.436  3.6337  1.8472 -0.8773
 7918SOL    HW230616   2.890   3.010   1.383 -2.1824 -0.8204  0.1320
 7919SOL     OW30617   3.424  11.320   8.994 -0.2544  0.4221  0.2687
 7919SOL    HW130618   3.467  11.403   8.975 -1.3590  0.7065 -1.1976
 7919SOL    HW230619   3.343  11.323   8.943  0.4862 -2.2796 -1.2755
 7920SOL     OW30620   7.915   0.479  12.348  0.0721  0.0966  0.2799
 7920SOL    HW130621   7.896   0.461  12.256 -2.3764 -1.6187  1.0075
 7920SOL    HW230622   7.951   0.397  12.381 -2.3393 -0.5631  1.5384
 7921SOL     OW30623   5.374  10.750   6.191 -0.3971  0.5047  0.2623
 7921SOL    HW130624   5.384  10.751   6.287  0.8461 -3.0108  0.3120
 7921SOL    HW230625   5.396  10.838   6.164  0.3093  1.3287  3.1285
 7922SOL     OW30626  11.107   0.001   9.703  0.3757 -0.3953  0.5369
 7922SOL    HW130627  11.096  -0.002   9.607 -0.4485  1.2625  0.5526
 7922SOL    HW230628  11.042   0.064   9.732 -0.7785 -2.3331  2.4352
 7923SOL     OW30629   4.266   2.823   6.006  0.9862 -0.2334 -0.4032
 7923SOL    HW130630   4.239   2.839   5.916 -0.2269  1.5995  0.2256
 7923SOL    HW230631   4.338   2.884   6.021  1.5989 -0.9696 -0.3051
 7924SOL     OW30632   3.214   1.453  11.528  0.0038 -0.6215 -0.3906
 7924SOL    HW130633   3.176   1.540  11.521 -0.0190 -0.6731 -0.9371
 7924SOL    HW230634   3.182   1.419  11.612 -0.2857 -0.2500 -0.3503
 7925SOL     OW30635   0.510   0.068   0.534 -0.1478  0.6513  0.4378
 7925SOL    HW130636   0.465   0.046   0.453  1.5780 -0.3932 -0.2977
 7925SOL    HW230637   0.477   0.155   0.557 -1.3092  0.5983 -0.9092
 7926SOL     OW30638   2.171   8.082   9.744  0.0304 -0.6871  0.1867
 7926SOL    HW130639   2.156   7.996   9.784 -0.0372 -1.4059 -1.2932
 7926SOL    HW230640   2.083   8.119   9.735  0.0308 -0.5993  0.5441
 7927SOL     OW30641   4.176   3.498  11.387 -0.1527  0.3183 -0.1821
 7927SOL    HW130642   4.249   3.519  11.330 -0.6837  1.3229 -0.5255
 7927SOL    HW230643   4.107   3.467  11.328 -0.3218  0.2793  0.0313
 7928SOL     OW30644   6.190   3.118   5.860  0.0786 -0.4429  0.3715
 7928SOL    HW130645   6.245   3.040   5.867  0.8636  0.1100  0.5516
 7928SOL    HW230646   6.224   3.165   5.784  0.2329  0.1917  0.8266
 7929SOL     OW30647   3.293   1.246  12.169  0.1840  0.3892  0.1168
 7929SOL    HW130648   3.269   1.216  12.082 -0.0036 -2.4784  1.0373
 7929SOL    HW230649   3.210   1.263  12.213  0.2453  0.9517  0.0188
 7930SOL     OW30650   3.810  11.807   7.582 -0.6654 -0.3393  0.0578
 7930SOL    HW130651   3.733  11.784   7.633  0.2934 -2.2631  0.7389
 7930SOL    HW230652   3.802  11.758   7.501  0.7692 -2.2537  0.9830
 7931SOL     OW30653   5.482   7.214  10.778 -0.6839  0.1398 -0.2617
 7931SOL    HW130654   5.420   7.159  10.826  0.1488 -0.7362 -0.1580
 7931SOL    HW230655   5.471   7.301  10.815 -0.8093 -0.3065  0.7945
 7932SOL     OW30656   8.335   7.584   2.070  0.0030  1.0756 -0.0463
 7932SOL    HW130657   8.262   7.646   2.081 -0.6520  0.7017 -2.0304
 7932SOL    HW230658   8.375   7.609   1.987  1.0687  0.1756  0.1848
 7933SOL     OW30659   9.133   9.228   2.263 -0.0454  0.0005  0.7224
 7933SOL    HW130660   9.130   9.147   2.314 -0.9548 -0.3995  0.0838
 7933SOL    HW230661   9.163   9.295   2.324  0.5382 -0.7875  1.3088
 7934SOL     OW30662   0.431   4.353   2.449 -0.1710  0.2462  0.2707
 7934SOL    HW130663   0.418   4.294   2.524 -1.2634  0.5912  0.3726
 7934SOL    HW230664   0.494   4.307   2.394  0.2622 -0.2526  1.1498
 7935SOL     OW30665   4.062   3.333   8.427  0.2695 -0.2641 -0.7259
 7935SOL    HW130666   4.069   3.407   8.487  2.0671  0.3905 -1.6660
 7935SOL    HW230667   3.974   3.298   8.442  0.2942  0.4699  1.5601
 7936SOL     OW30668   5.585   6.366   9.919 -1.0224  0.5217  0.7293
 7936SOL    HW130669   5.523   6.435   9.943 -0.1498  1.1221  1.3359
 7936SOL    HW230670   5.612   6.388   9.830 -0.8980  0.8492  0.8475
 7937SOL     OW30671  12.470   9.241   4.238  0.0783 -0.3177  0.2010
 7937SOL    HW130672  12.522   9.164   4.217 -0.4328 -0.3364 -1.1024
 7937SOL    HW230673  12.452   9.282   4.153 -1.8399 -0.2002  0.6125
 7938SOL     OW30674   9.108   2.528  11.305 -0.0544  0.7440 -0.1322
 7938SOL    HW130675   9.066   2.563  11.384 -0.1322 -0.3133  0.3179
 7938SOL    HW230676   9.178   2.473  11.339 -0.7828 -0.6101 -0.7508
 7939SOL     OW30677   3.790   6.018  11.907  0.6041 -0.1184  0.3600
 7939SOL    HW130678   3.745   6.008  11.823  1.5794 -1.4828 -0.0454
 7939SOL    HW230679   3.791   5.930  11.944  1.7729  0.1264  0.9572
 7940SOL     OW30680   7.247  11.695   8.390 -0.1159  0.9080  0.2660
 7940SOL    HW130681   7.248  11.756   8.316 -1.5380  0.9156  0.2306
 7940SOL    HW230682   7.172  11.638   8.372  0.4823 -0.0906  0.9061
 7941SOL     OW30683  11.654   2.867  10.563  0.3403 -0.1221  0.2357
 7941SOL    HW130684  11.624   2.817  10.488  1.3082 -0.6068  0.1551
 7941SOL    HW230685  11.722   2.925  10.528  0.6806 -0.2340  0.7023
 7942SOL     OW30686   1.794  11.843  11.184 -0.4729  0.0937 -0.7368
 7942SOL    HW130687   1.788  11.871  11.093 -0.2303 -0.1440 -0.8284
 7942SOL    HW230688   1.722  11.781  11.195  0.9396 -1.8113 -1.4855
 7943SOL     OW30689   2.236   1.837  10.194  0.7293  0.1026 -0.1406
 7943SOL    HW130690   2.145   1.807  10.195  1.1502 -1.2048  0.2296
 7943SOL    HW230691   2.235   1.915  10.138 -0.7565  0.5901  0.5189
 7944SOL     OW30692  11.407   1.095  11.296  0.2527 -0.2281  0.5592
 7944SOL    HW130693  11.391   1.001  11.306  1.5488 -0.4693  0.4693
 7944SOL    HW230694  11.498   1.108  11.321  0.8247  0.6224 -1.6753
 7945SOL     OW30695   2.866   9.262   9.405  0.0348 -0.3787 -0.2194
 7945SOL    HW130696   2.824   9.258   9.318  0.5643  0.1420 -0.5086
 7945SOL    HW230697   2.799   9.230   9.465 -0.6838  0.1692 -0.7069
 7946SOL     OW30698  12.166   0.551   2.896  0.2723  0.4156 -0.3938
 7946SOL    HW130699  12.182   0.605   2.819 -0.1962  1.5906  0.2983
 7946SOL    HW230700  12.165   0.614   2.969 -0.8393 -0.4491  0.3748
 7947SOL     OW30701   4.696   8.540   3.523 -0.1054  0.1935 -0.1906
 7947SOL    HW130702   4.639   8.529   3.446  0.4345  0.0057 -0.5703
 7947SOL    HW230703   4.784   8.526   3.489  0.2244  1.1082  0.2734
 7948SOL     OW30704   8.831   1.765   6.912 -0.4611  0.4718 -0.3156
 7948SOL    HW130705   8.826   1.717   6.830  1.2797  2.9950 -2.0435
 7948SOL    HW230706   8.913   1.736   6.952 -1.4767 -1.0113  0.7739
 7949SOL     OW30707   5.424   9.306   2.859  0.0586 -0.1167 -0.0005
 7949SOL    HW130708   5.393   9.394   2.837  1.1524  0.7197  1.5357
 7949SOL    HW230709   5.345   9.258   2.884 -0.5812  0.3491 -1.0833
 7950SOL     OW30710   9.476  11.131   5.858 -0.3512  0.4175 -0.0153
 7950SOL    HW130711   9.540  11.099   5.921 -0.0790  0.2083 -0.3941
 7950SOL    HW230712   9.454  11.219   5.889  0.8066  0.8544 -0.3891
 7951SOL     OW30713   7.766   9.899   4.951  0.0531  0.2577 -0.8005
 7951SOL    HW130714   7.833   9.944   4.899  1.1673  0.3397  0.6525
 7951SOL    HW230715   7.779   9.807   4.931  0.7327  0.2580 -0.3825
 7952SOL     OW30716   7.371   2.596   5.952 -0.5074 -0.1451 -0.0889
 7952SOL    HW130717   7.410   2.509   5.946  2.0417  0.8761  0.4305
 7952SOL    HW230718   7.406   2.643   5.877 -2.1814  0.3498 -0.5961
 7953SOL     OW30719   4.174   9.029   4.212 -0.7100 -0.1416 -0.3445
 7953SOL    HW130720   4.081   9.007   4.224 -0.4566 -1.1409 -0.1337
 7953SOL    HW230721   4.221   8.953   4.245  0.1634 -0.3395 -1.9229
 7954SOL     OW30722   8.474   1.869   4.195 -0.1153  0.3197 -0.6019
 7954SOL    HW130723   8.449   1.779   4.215 -1.4985  1.2331  2.4211
 7954SOL    HW230724   8.394   1.909   4.160 -0.0030  0.8156 -0.3006
 7955SOL     OW30725   0.577   5.319   9.987 -0.7927  0.0437  0.0172
 7955SOL    HW130726   0.513   5.249   9.997 -2.5623  1.5597 -0.1285
 7955SOL    HW230727   0.577   5.364  10.072  0.0074  0.1319 -0.0222
 7956SOL     OW30728  12.123   0.612   4.787  0.2029  0.1151 -0.3730
 7956SOL    HW130729  12.074   0.550   4.734 -0.9586  1.7187 -1.2726
 7956SOL    HW230730  12.124   0.693   4.735 -1.0171  1.7887  2.0015
 7957SOL     OW30731  10.515  12.079   8.197 -0.0155 -0.2640  0.3997
 7957SOL    HW130732  10.436  12.121   8.163  0.4534  0.1073 -0.2388
 7957SOL    HW230733  10.579  12.149   8.203  0.6016 -0.7681 -0.1335
 7958SOL     OW30734  10.204   2.417  11.842  0.3441  0.2511 -0.0310
 7958SOL    HW130735  10.163   2.334  11.817 -0.0860  0.4638 -0.0366
 7958SOL    HW230736  10.158   2.483  11.790 -0.5799  0.7009  1.3163
 7959SOL     OW30737   2.729   5.949   5.283 -0.5680  0.0518 -0.6375
 7959SOL    HW130738   2.654   5.976   5.336 -1.0583 -1.0624 -0.7219
 7959SOL    HW230739   2.805   5.966   5.338 -1.1396 -2.1234  0.9418
 7960SOL     OW30740   4.321   7.079   1.812 -0.0837  0.0629  0.3746
 7960SOL    HW130741   4.351   6.998   1.773 -1.3512  0.1855 -0.9622
 7960SOL    HW230742   4.401   7.127   1.833  0.6640 -1.1252  0.3364
 7961SOL     OW30743   2.296   7.939   5.210 -0.2512  0.2424  0.0347
 7961SOL    HW130744   2.335   7.887   5.139  0.7640  0.3686  0.4848
 7961SOL    HW230745   2.211   7.966   5.176  0.9519  1.8506 -1.8909
 7962SOL     OW30746   7.082  10.489   9.645  0.0309  0.1365  0.0451
 7962SOL    HW130747   7.072  10.582   9.663  1.0942 -0.2311  3.1223
 7962SOL    HW230748   6.993  10.458   9.629 -1.0872  0.9601  3.6872
 7963SOL     OW30749   7.302   0.104  10.633 -0.2193  0.6003  0.1192
 7963SOL    HW130750   7.233   0.143  10.685  0.6122  1.5590  0.5254
 7963SOL    HW230751   7.382   0.117  10.685  0.0939 -1.7474  0.3424
 7964SOL     OW30752   8.688   3.339   9.835  0.0926  0.0932 -0.2217
 7964SOL    HW130753   8.662   3.257   9.876 -1.5123  0.9144  0.4989
 7964SOL    HW230754   8.634   3.406   9.878  1.2563  1.5076 -0.8800
 7965SOL     OW30755   2.947   8.305   2.312  0.3030  0.0111  0.6123
 7965SOL    HW130756   2.946   8.232   2.374 -0.3448 -1.6558 -1.2948
 7965SOL    HW230757   2.913   8.269   2.231 -0.0811  2.4692 -0.3964
 7966SOL     OW30758   7.117   8.112   0.468 -0.3953  0.3413 -0.7204
 7966SOL    HW130759   7.174   8.166   0.522  0.1822  0.4848 -1.4487
 7966SOL    HW230760   7.167   8.031   0.453 -0.7901  0.0616 -0.5541
 7967SOL     OW30761   5.068   2.937   3.352 -0.1177  0.1467 -0.3380
 7967SOL    HW130762   5.135   3.001   3.375  2.0613 -1.9312 -0.3936
 7967SOL    HW230763   5.002   2.944   3.421  1.2899  0.7881  0.9961
 7968SOL     OW30764   6.752   9.047   3.682 -0.2308 -0.1855 -0.4018
 7968SOL    HW130765   6.697   9.050   3.604 -0.7238  0.6259 -0.0407
 7968SOL    HW230766   6.818   9.115   3.667 -1.0002  0.7566  0.3549
 7969SOL     OW30767  12.176  11.384   0.747  0.2642 -0.3343 -0.6929
 7969SOL    HW130768  12.217  11.445   0.685 -0.2324  1.5796  0.7634
 7969SOL    HW230769  12.235  11.384   0.822 -0.9752  0.3241  0.3155
 7970SOL     OW30770  12.377  11.677   5.358 -0.1790 -0.2835 -0.3090
 7970SOL    HW130771  12.297  11.627   5.372 -0.6757 -0.0853 -2.1253
 7970SOL    HW230772  12.346  11.764   5.332  0.6672  0.6898  1.7139
 7971SOL     OW30773   5.585  10.669   3.906 -0.6002 -0.5164  0.8590
 7971SOL    HW130774   5.549  10.670   3.818  1.3746 -0.6590 -0.0107
 7971SOL    HW230775   5.551  10.748   3.947 -0.5976  0.1891 -0.4522
 7972SOL     OW30776   6.327   3.456   9.087  0.3424  0.7201 -0.5329
 7972SOL    HW130777   6.403   3.499   9.049 -0.2079  0.5380 -1.8779
 7972SOL    HW230778   6.299   3.392   9.022 -0.7684  0.5495  0.0704
 7973SOL     OW30779   3.363   3.727  11.052 -0.1042 -0.2912  0.7006
 7973SOL    HW130780   3.279   3.693  11.084 -0.4528 -0.5639 -0.4827
 7973SOL    HW230781   3.345   3.756  10.963  0.7474  0.8847  0.8823
 7974SOL     OW30782   6.267   6.959   0.730  0.1012  0.4967  0.1292
 7974SOL    HW130783   6.344   6.910   0.700  0.5864  1.2479  0.1290
 7974SOL    HW230784   6.215   6.971   0.651 -0.0605 -0.0706  0.1409
 7975SOL     OW30785   5.750   2.247   3.071 -0.0945  0.5358  0.0329
 7975SOL    HW130786   5.661   2.240   3.107 -0.3197  0.8702 -0.4421
 7975SOL    HW230787   5.765   2.164   3.026 -0.1477  0.4595  0.1563
 7976SOL     OW30788   6.812  11.159   0.578  0.4933  0.1195 -0.1171
 7976SOL    HW130789   6.774  11.072   0.566  0.8373 -0.2676  1.3697
 7976SOL    HW230790   6.739  11.214   0.605  0.4544  0.0395 -0.0566
 7977SOL     OW30791   9.521  10.682   5.198  0.0063  0.4341 -0.2086
 7977SOL    HW130792   9.544  10.623   5.270 -0.8704  0.5227  0.1693
 7977SOL    HW230793   9.589  10.669   5.133 -0.7234 -1.8492 -0.6221
 7978SOL     OW30794   1.268   7.253   9.527  0.3976  0.2725  0.1951
 7978SOL    HW130795   1.302   7.164   9.535  0.1105  0.1917  0.5584
 7978SOL    HW230796   1.186   7.252   9.577  0.4283  0.7573  0.2629
 7979SOL     OW30797   2.271  12.119   0.710  0.1360 -0.3029  0.4928
 7979SOL    HW130798   2.217  12.063   0.765 -0.2610 -0.6766 -0.2559
 7979SOL    HW230799   2.288  12.067   0.631  0.5586  0.2712  0.1883
 7980SOL     OW30800   0.340   7.835   5.788  0.3558  0.0508 -0.2005
 7980SOL    HW130801   0.395   7.859   5.713 -1.0656 -0.0838 -1.3323
 7980SOL    HW230802   0.398   7.782   5.843  1.1781 -0.7212 -1.7121
 7981SOL     OW30803   2.638   5.688  10.265  0.4687 -0.5128 -0.1856
 7981SOL    HW130804   2.645   5.668  10.171  0.5626  1.4207 -0.6343
 7981SOL    HW230805   2.727   5.709  10.292  0.2298  0.4021 -0.0525
 7982SOL     OW30806   5.834   1.348   8.218 -0.3548 -0.4520 -0.1758
 7982SOL    HW130807   5.855   1.344   8.125  2.1607 -0.2884  0.3280
 7982SOL    HW230808   5.834   1.442   8.238 -0.1348 -0.5190  0.1393
 7983SOL     OW30809   0.264   7.545   1.491  0.4526  0.4401  0.3511
 7983SOL    HW130810   0.289   7.636   1.475 -0.4248  0.6785  0.2525
 7983SOL    HW230811   0.286   7.530   1.583 -0.6629  1.2123  0.7760
 7984SOL     OW30812   2.877  10.928   7.048 -0.6018  0.1610 -0.5497
 7984SOL    HW130813   2.803  10.895   6.998 -1.0117  0.2030  0.0199
 7984SOL    HW230814   2.954  10.886   7.009 -1.0864 -1.3779  0.0799
 7985SOL     OW30815   3.667   1.706  10.904  0.1818  0.1258  0.0353
 7985SOL    HW130816   3.621   1.747  10.977 -0.1499  1.3591 -0.8390
 7985SOL    HW230817   3.712   1.778  10.861 -1.4159 -0.1746 -2.2856
 7986SOL     OW30818  11.958   8.927   7.459 -0.1342  0.2961 -0.0260
 7986SOL    HW130819  12.016   9.003   7.469  0.3697 -0.0678 -0.1293
 7986SOL    HW230820  12.015   8.852   7.474 -0.8339 -0.0461  1.0653
 7987SOL     OW30821   0.543   2.565   1.650 -0.0276 -0.4955 -0.0246
 7987SOL    HW130822   0.585   2.618   1.582  0.3893  0.0760  0.6586
 7987SOL    HW230823   0.497   2.628   1.705  0.2936 -0.8545  0.6754
 7988SOL     OW30824  10.340   3.680   3.277  0.0083  0.1360  0.0851
 7988SOL    HW130825  10.246   3.698   3.288 -0.3988 -2.3123  1.2178
 7988SOL    HW230826  10.348   3.655   3.185 -0.6803 -0.6905  0.2348
 7989SOL     OW30827   0.369   1.730   9.265  0.1665  0.1987 -0.4963
 7989SOL    HW130828   0.331   1.705   9.349  0.0855 -0.6287 -0.7662
 7989SOL    HW230829   0.463   1.715   9.276  0.2413  0.7461 -0.3386
 7990SOL     OW30830   3.617  12.302  12.086  0.5716 -0.5437  0.0135
 7990SOL    HW130831   3.524  12.288  12.068  0.3725 -0.5699  1.0270
 7990SOL    HW230832   3.630  12.395  12.066  0.5982 -0.7830 -1.1940
 7991SOL     OW30833   3.378   1.480  10.474  0.4343 -0.2423  0.2653
 7991SOL    HW130834   3.357   1.445  10.561 -0.3911  0.8796  0.5385
 7991SOL    HW230835   3.332   1.422  10.413  1.3750 -1.3025  0.5281
 7992SOL     OW30836  10.026   5.633   1.129 -0.1052  0.3874  0.1432
 7992SOL    HW130837   9.998   5.706   1.184 -1.4504 -0.5438  0.7350
 7992SOL    HW230838  10.036   5.560   1.189  1.9034  0.2148 -0.3419
 7993SOL     OW30839  11.298   8.568   3.012 -0.4141  0.0482  0.3500
 7993SOL    HW130840  11.240   8.529   2.947 -0.3736  0.0150  0.3331
 7993SOL    HW230841  11.291   8.510   3.088  0.3478 -0.5130  0.0101
 7994SOL     OW30842   8.723  10.337   3.638 -0.2312  0.2230  0.0226
 7994SOL    HW130843   8.789  10.397   3.602  0.0204 -0.8468 -1.4044
 7994SOL    HW230844   8.642  10.388   3.639  0.7378  1.9989  2.9959
 7995SOL     OW30845   5.194  10.240  11.972  0.1621 -0.3948 -0.2947
 7995SOL    HW130846   5.143  10.248  12.053 -0.9361  0.5921 -1.0474
 7995SOL    HW230847   5.270  10.297  11.985 -0.7508  0.9086 -0.4798
 7996SOL     OW30848   1.083   4.707  11.244  0.2134  0.0443 -0.3129
 7996SOL    HW130849   1.149   4.722  11.177  0.8550 -1.4499 -0.0389
 7996SOL    HW230850   1.119   4.749  11.322  1.1832 -1.3283  0.0083
 7997SOL     OW30851   9.049   5.947   4.598 -0.5653  0.3807 -0.7486
 7997SOL    HW130852   9.067   5.920   4.688  0.7812 -0.3092 -1.1953
 7997SOL    HW230853   8.974   5.895   4.572 -1.1772  0.8250  0.0721
 7998SOL     OW30854   6.979   2.167   2.060 -0.4645 -0.0817  0.1223
 7998SOL    HW130855   6.928   2.247   2.067  0.5692  0.8729 -2.4115
 7998SOL    HW230856   6.919   2.103   2.020 -0.5252  0.1867 -0.2148
 7999SOL     OW30857   3.082   4.842  11.976  0.1452  0.5625 -0.1529
 7999SOL    HW130858   3.121   4.803  11.897 -0.9553  1.3349 -1.1162
 7999SOL    HW230859   3.154   4.845  12.039  0.8157 -0.9747 -0.7778
 8000SOL     OW30860   9.473   8.399   5.635 -0.1278 -0.1940 -0.3805
 8000SOL    HW130861   9.404   8.464   5.650  1.3779  1.1070  1.4494
 8000SOL    HW230862   9.454   8.329   5.698 -0.5460 -0.5268 -0.8662
 8001SOL     OW30863  10.972   3.768   9.446 -0.3741  0.9368  0.7507
 8001SOL    HW130864  11.005   3.750   9.358 -1.4330  0.6094  0.4061
 8001SOL    HW230865  10.886   3.808   9.432 -1.4561 -0.9593  1.6428
 8002SOL     OW30866   9.384   9.959   7.887  0.0700  0.0276 -0.0459
 8002SOL    HW130867   9.347   9.898   7.822  1.3496 -1.5270  0.6099
 8002SOL    HW230868   9.394   9.906   7.966 -1.8805  2.0037  1.6506
 8003SOL     OW30869   9.279   3.094   1.796  0.1215 -0.6571  0.1726
 8003SOL    HW130870   9.193   3.120   1.829  0.3696 -0.4045  0.6295
 8003SOL    HW230871   9.260   3.029   1.728 -0.5009  0.4790 -0.7915
 8004SOL     OW30872   8.670   7.094  11.032 -0.0564 -0.1379 -0.0557
 8004SOL    HW130873   8.754   7.053  11.056  0.6435 -0.1137 -2.2346
 8004SOL    HW230874   8.613   7.077  11.107  1.3798 -1.6776  0.7608
 8005SOL     OW30875   7.700   0.232   9.533 -0.0394 -0.2363 -0.3995
 8005SOL    HW130876   7.619   0.185   9.513 -0.0773 -1.1099  1.5997
 8005SOL    HW230877   7.770   0.177   9.496 -0.2288 -0.6074 -0.2032
 8006SOL     OW30878  10.591   5.017   3.754 -0.4962  0.0548  0.2980
 8006SOL    HW130879  10.567   5.050   3.668 -0.2202 -0.8700 -0.1514
 8006SOL    HW230880  10.538   5.068   3.815 -2.8890 -1.2293 -0.5823
 8007SOL     OW30881  10.288  11.730   9.244 -0.1458  0.2452  0.2937
 8007SOL    HW130882  10.255  11.650   9.284  0.7048  0.4549  1.4580
 8007SOL    HW230883  10.320  11.703   9.158  1.2363 -0.9294  1.1295
 8008SOL     OW30884   9.462   6.548   3.288  0.0979  0.5086  0.3545
 8008SOL    HW130885   9.546   6.516   3.256  0.2487  0.4813  0.7739
 8008SOL    HW230886   9.400   6.477   3.268  0.6096 -0.5310  2.2029
 8009SOL     OW30887  12.355   2.273   7.430  0.4729 -0.1454 -0.1723
 8009SOL    HW130888  12.286   2.339   7.427  1.4436  0.9319  0.1088
 8009SOL    HW230889  12.353   2.231   7.345  0.3599  0.8196 -0.6582
 8010SOL     OW30890  11.223   6.187   1.975  0.2225 -0.5744 -0.2407
 8010SOL    HW130891  11.214   6.256   1.909  2.8408  0.5467  0.4413
 8010SOL    HW230892  11.280   6.225   2.042  0.1349 -2.7333  1.1595
 8011SOL     OW30893   7.360   7.672  10.435  0.5812  0.3321 -0.3574
 8011SOL    HW130894   7.392   7.647  10.348  1.6430 -1.7974  0.5914
 8011SOL    HW230895   7.438   7.671  10.490 -0.4948 -1.2205  1.2227
 8012SOL     OW30896   2.413   6.952   7.461  0.7456  0.3615 -0.6213
 8012SOL    HW130897   2.375   6.878   7.414 -1.3514  1.5407 -0.9372
 8012SOL    HW230898   2.383   6.942   7.551  3.1261 -0.8279  0.1200
 8013SOL     OW30899   9.412   2.118   0.618  0.3006  0.0370 -0.3295
 8013SOL    HW130900   9.491   2.140   0.666  0.4774  0.4025 -0.7765
 8013SOL    HW230901   9.439   2.114   0.526  0.2329 -1.8935 -0.3017
 8014SOL     OW30902   4.264   2.470   8.826 -0.4247  0.1448  0.0839
 8014SOL    HW130903   4.286   2.524   8.750 -0.6458  0.1590  0.0279
 8014SOL    HW230904   4.168   2.466   8.825 -0.3679 -2.0439 -1.1799
 8015SOL     OW30905   0.900  11.016   3.744 -0.5922  0.1148  0.1466
 8015SOL    HW130906   0.905  10.940   3.802  0.1552  0.4136  0.4791
 8015SOL    HW230907   0.976  11.069   3.766 -1.0735  0.9386 -0.1266
 8016SOL     OW30908  12.044   2.354  11.377  0.3589 -0.1945 -0.4966
 8016SOL    HW130909  12.101   2.311  11.440 -0.8387 -2.2121 -0.6866
 8016SOL    HW230910  12.050   2.447  11.398  2.2182 -0.5285  0.6808
 8017SOL     OW30911   4.396  10.070  11.279  0.0642  0.3326  0.1759
 8017SOL    HW130912   4.314  10.079  11.327  0.2262  0.0345  0.5161
 8017SOL    HW230913   4.460  10.045  11.345  0.2704 -0.1814 -0.2117
 8018SOL     OW30914   1.094   9.908  10.947 -0.4667  0.5033 -0.2851
 8018SOL    HW130915   1.186   9.913  10.919  0.0031 -1.2613  0.7510
 8018SOL    HW230916   1.065   9.821  10.919 -1.4463  0.5690  0.4523
 8019SOL     OW30917   9.149   0.968   3.291  0.1100  0.1194 -0.1322
 8019SOL    HW130918   9.159   0.942   3.200  0.8818  0.5622 -0.1912
 8019SOL    HW230919   9.098   1.049   3.287 -0.5692 -0.3055 -0.1049
 8020SOL     OW30920   4.155   5.484   8.937  0.1339  0.5901  0.2441
 8020SOL    HW130921   4.066   5.510   8.963 -2.1559 -3.5116 -2.4493
 8020SOL    HW230922   4.187   5.431   9.010 -1.5968 -1.6172 -0.5207
 8021SOL     OW30923   9.243   2.923   2.932  0.8271  0.4576  0.4056
 8021SOL    HW130924   9.306   2.878   2.988  0.6742  0.1810  0.3585
 8021SOL    HW230925   9.296   2.970   2.867  0.9602 -1.6485 -1.1009
 8022SOL     OW30926   6.468   5.514   6.706 -0.4888  0.5369  0.1773
 8022SOL    HW130927   6.414   5.469   6.770 -0.6835  0.0918 -0.2961
 8022SOL    HW230928   6.556   5.512   6.743 -0.4575 -0.4267  0.0654
 8023SOL     OW30929   9.441   6.313  11.445 -0.5370 -0.0066 -0.1250
 8023SOL    HW130930   9.355   6.289  11.478 -0.4225  0.9354  0.9131
 8023SOL    HW230931   9.498   6.310  11.522 -0.3131  2.4652 -0.1165
 8024SOL     OW30932   6.400  11.837   8.725 -0.1371 -0.4762 -0.4806
 8024SOL    HW130933   6.366  11.856   8.812  0.7536 -0.3062 -0.1609
 8024SOL    HW230934   6.420  11.922   8.687  2.8817 -0.6342  0.5563
 8025SOL     OW30935  10.595   1.179   6.387  0.4028  0.2718  0.1249
 8025SOL    HW130936  10.686   1.195   6.413  0.3379  1.1905 -0.1794
 8025SOL    HW230937  10.555   1.141   6.465  1.0499 -0.1505  0.2585
 8026SOL     OW30938   2.841   3.922   9.452 -0.2304  0.1319 -0.6273
 8026SOL    HW130939   2.915   3.965   9.494 -0.7045  0.1980  0.1728
 8026SOL    HW230940   2.841   3.833   9.487  0.1128 -0.2126 -1.4639
 8027SOL     OW30941  12.285  11.065   5.579  0.1947 -0.1669 -0.1258
 8027SOL    HW130942  12.344  11.125   5.533  1.1589 -1.4941 -0.6809
 8027SOL    HW230943  12.265  10.997   5.515 -0.9992 -0.3801  0.4449
 8028SOL     OW30944   6.759   4.449   2.844  0.5862  0.1875  0.2384
 8028SOL    HW130945   6.771   4.378   2.907  1.2340  0.5336  0.5148
 8028SOL    HW230946   6.673   4.434   2.806  0.7777 -0.8323  0.1875
 8029SOL     OW30947   3.584   3.699  12.081 -0.1326  0.4667 -0.2393
 8029SOL    HW130948   3.646   3.626  12.091 -1.0588 -0.3126 -0.0345
 8029SOL    HW230949   3.637   3.770  12.046  0.8371 -0.2512 -0.2867
 8030SOL     OW30950  11.008   4.805  10.668 -0.3765  0.0973  0.1391
 8030SOL    HW130951  11.066   4.870  10.707  0.3246  0.7591 -1.8677
 8030SOL    HW230952  11.058   4.768  10.595 -2.1695  0.1316 -1.1746
 8031SOL     OW30953   3.789   2.843   3.560  0.0830  0.7027  0.0885
 8031SOL    HW130954   3.716   2.817   3.505  1.2647  1.2443 -1.8215
 8031SOL    HW230955   3.815   2.930   3.528  0.7155  1.1300  1.6214
 8032SOL     OW30956   6.983   2.433  12.031 -0.2206 -0.5482 -0.1268
 8032SOL    HW130957   7.020   2.424  12.119  1.8686 -0.7482 -0.9811
 8032SOL    HW230958   6.977   2.344  11.997 -0.9321 -0.4656 -0.2413
 8033SOL     OW30959   7.484  11.413   7.164  0.4221 -0.2972 -0.3023
 8033SOL    HW130960   7.546  11.342   7.146  0.0497 -0.4957 -0.8276
 8033SOL    HW230961   7.496  11.474   7.091  0.9161  0.3033  0.2784
 8034SOL     OW30962   5.173   2.382  12.160 -0.0948  0.4855 -0.0077
 8034SOL    HW130963   5.227   2.370  12.238  1.1441  0.5197 -0.8313
 8034SOL    HW230964   5.139   2.471  12.167 -1.3038 -0.0333  1.2531
 8035SOL     OW30965  11.999   4.245   5.007  0.4475  0.2682 -0.0067
 8035SOL    HW130966  12.070   4.185   5.032  0.4448 -0.6839 -2.0880
 8035SOL    HW230967  12.020   4.271   4.917 -1.5223  0.4406 -0.4570
 8036SOL     OW30968   9.727  12.328  11.557 -0.8055 -0.0509  0.1714
 8036SOL    HW130969   9.758  12.415  11.532 -1.8246 -0.0316 -1.1159
 8036SOL    HW230970   9.651  12.312  11.501 -1.2601 -1.3568  1.0974
 8037SOL     OW30971   5.506   7.766  10.868  0.1047  0.6813 -0.1063
 8037SOL    HW130972   5.511   7.823  10.945 -0.6531  1.3808 -0.5583
 8037SOL    HW230973   5.598   7.748  10.846  0.3349  0.7173  0.7708
 8038SOL     OW30974   2.202   8.383   1.740  0.0636 -0.5941 -0.0319
 8038SOL    HW130975   2.122   8.370   1.690 -0.2448 -0.6074  0.4578
 8038SOL    HW230976   2.176   8.435   1.816  1.1136  2.2560 -1.4834
 8039SOL     OW30977   7.406  10.514   0.007  0.3239  0.5315  0.4073
 8039SOL    HW130978   7.476  10.579   0.016 -0.4725  1.2283  1.9510
 8039SOL    HW230979   7.407  10.467   0.091 -0.4727 -0.0558  0.0967
 8040SOL     OW30980   6.813   7.810  12.010 -0.6852  0.5745  0.2835
 8040SOL    HW130981   6.749   7.746  11.977 -0.3292  0.9542 -1.2030
 8040SOL    HW230982   6.767   7.894  12.006 -0.2422  0.7908 -0.4114
 8041SOL     OW30983   1.244  10.114   9.960  0.2076 -0.3126 -0.1619
 8041SOL    HW130984   1.231  10.035  10.012 -1.3269 -0.0103 -0.0410
 8041SOL    HW230985   1.181  10.106   9.888 -0.1848  0.9148  0.0132
 8042SOL     OW30986   2.801   8.256   9.012  0.3890  0.1374  0.1109
 8042SOL    HW130987   2.887   8.290   9.037  0.6358 -0.0125 -0.5349
 8042SOL    HW230988   2.818   8.202   8.935 -0.8142  3.5279 -2.8292
 8043SOL     OW30989   9.454   6.107   8.200 -0.3384  0.4513 -0.8022
 8043SOL    HW130990   9.488   6.180   8.251  0.1529  0.0027 -0.4690
 8043SOL    HW230991   9.368   6.136   8.169 -1.3897  0.1691  1.5996
 8044SOL     OW30992   0.309   8.623   2.873  0.1092  0.0333 -0.3219
 8044SOL    HW130993   0.238   8.664   2.923  0.1353  0.6749 -0.7967
 8044SOL    HW230994   0.324   8.682   2.800  2.6231  1.1259  0.9404
 8045SOL     OW30995   3.925   1.288   9.048  0.4631  0.4210  0.5041
 8045SOL    HW130996   3.927   1.294   9.144  2.3488  0.6651  0.4913
 8045SOL    HW230997   3.900   1.197   9.031 -0.6111  0.5665  1.2065
 8046SOL     OW30998   2.336   3.722  10.343  0.6933  0.6748 -0.2940
 8046SOL    HW130999   2.273   3.751  10.277  0.8075 -1.3682 -1.3743
 8046SOL    HW231000   2.283   3.685  10.413  0.5864 -2.6908 -1.9893
 8047SOL     OW31001   7.882   1.283   2.772  0.2286  0.2188  0.3151
 8047SOL    HW131002   7.849   1.208   2.823 -1.1485  0.0367 -0.7766
 8047SOL    HW231003   7.913   1.245   2.691 -0.7644  0.8283 -0.3797
 8048SOL     OW31004   8.096   3.630   4.493  0.0642  0.3007 -0.3446
 8048SOL    HW131005   8.035   3.574   4.542  2.3160  0.0622  2.4441
 8048SOL    HW231006   8.122   3.577   4.418 -0.8346 -0.7897  0.0774
 8049SOL     OW31007  10.974   1.673   7.544 -0.3716  0.2781 -0.0555
 8049SOL    HW131008  10.977   1.744   7.481 -0.1528  2.0089  1.7828
 8049SOL    HW231009  10.887   1.636   7.535 -0.1510  0.1180 -1.7181
 8050SOL     OW31010   5.772   5.778  10.201 -0.8072  0.0015  0.0937
 8050SOL    HW131011   5.852   5.799  10.250 -0.6946 -1.7248  0.7286
 8050SOL    HW231012   5.796   5.792  10.110 -0.4539  1.5444  0.3960
 8051SOL     OW31013   6.456   6.519   7.491 -0.6069 -0.0993 -0.2329
 8051SOL    HW131014   6.500   6.599   7.521  0.8433 -0.7243 -0.6015
 8051SOL    HW231015   6.417   6.482   7.570  0.3970 -0.0353  0.3075
 8052SOL     OW31016   7.083   6.299   7.314 -0.2117 -0.8369  0.7065
 8052SOL    HW131017   7.143   6.233   7.278 -1.6618 -1.1345 -1.3013
 8052SOL    HW231018   7.083   6.370   7.250 -1.3186 -0.4603  1.1015
 8053SOL     OW31019   9.117  11.032   2.417  0.5602 -0.1055  0.3229
 8053SOL    HW131020   9.162  10.949   2.431 -1.0882 -0.9742  0.8515
 8053SOL    HW231021   9.078  11.024   2.330 -4.4994 -2.5292  2.4058
 8054SOL     OW31022   6.026   1.386  12.222 -0.4068 -0.3739 -0.1835
 8054SOL    HW131023   6.042   1.432  12.140  1.2804  0.2494  0.4485
 8054SOL    HW231024   6.026   1.293  12.198 -0.2225 -0.1899 -0.9196
 8055SOL     OW31025   5.016   8.035   7.197  0.3321 -0.0881  0.5042
 8055SOL    HW131026   5.039   8.108   7.254  0.6909 -0.8244  1.3338
 8055SOL    HW231027   5.061   8.054   7.115  0.5607  0.5396  0.7673
 8056SOL     OW31028   9.241   9.828   4.097  0.5098 -0.4886  0.5495
 8056SOL    HW131029   9.228   9.916   4.061 -0.5108 -0.8845 -0.1165
 8056SOL    HW231030   9.268   9.776   4.022  2.1730 -0.5428  1.1500
 8057SOL     OW31031   5.737   9.780   2.152  0.0336 -0.5432  0.0413
 8057SOL    HW131032   5.749   9.855   2.210  1.3862 -0.0042 -0.8781
 8057SOL    HW231033   5.809   9.720   2.175  0.3220 -0.5187 -0.7557
 8058SOL     OW31034   0.471   6.482   7.038  0.8253  0.4462 -0.0997
 8058SOL    HW131035   0.430   6.536   7.105  0.5111 -0.3287  0.3342
 8058SOL    HW231036   0.399   6.455   6.981  1.1269  1.3475 -0.9459
 8059SOL     OW31037  12.197   2.576  11.715  0.3631 -0.4436  0.9335
 8059SOL    HW131038  12.222   2.662  11.746 -0.2305  0.0453  0.1076
 8059SOL    HW231039  12.256   2.557  11.642 -0.7905  0.1700 -0.2029
 8060SOL     OW31040   7.117   0.298   4.859 -0.5572  0.8467  0.1888
 8060SOL    HW131041   7.072   0.311   4.776 -0.5064 -0.8354 -0.1371
 8060SOL    HW231042   7.057   0.245   4.911 -0.0004  0.6861  0.6835
 8061SOL     OW31043   4.656   7.634   5.530  0.5145 -0.3112 -0.5002
 8061SOL    HW131044   4.737   7.584   5.543  0.4154 -0.7111 -1.3804
 8061SOL    HW231045   4.632   7.618   5.439  0.1359  0.8463 -0.6234
 8062SOL     OW31046   2.582   2.083   0.269 -0.7414 -0.3210  0.1095
 8062SOL    HW131047   2.653   2.046   0.217  0.6008  2.1378  0.0284
 8062SOL    HW231048   2.584   2.176   0.249 -2.3538  0.2056  2.0529
 8063SOL     OW31049   5.630   6.630   8.804 -0.5408 -0.5425 -0.3659
 8063SOL    HW131050   5.648   6.612   8.712 -0.6436 -1.6466 -0.1778
 8063SOL    HW231051   5.549   6.681   8.803 -1.3371 -1.7712 -0.8311
 8064SOL     OW31052   0.082   4.576   4.485 -0.1553 -0.6047  0.0713
 8064SOL    HW131053   0.134   4.497   4.470 -0.3408 -0.6789 -0.1849
 8064SOL    HW231054   0.047   4.598   4.399  0.7611  0.3740 -0.0774
 8065SOL     OW31055   7.869   9.476  10.519  0.2351  0.3017  0.4113
 8065SOL    HW131056   7.950   9.469  10.468  0.3425 -0.5720  0.6850
 8065SOL    HW231057   7.893   9.450  10.607 -0.6069 -1.3269  0.2054
 8066SOL     OW31058   1.936  12.153   2.759 -0.0555  0.0762 -0.3530
 8066SOL    HW131059   1.883  12.076   2.738 -0.6866 -0.1568  1.8411
 8066SOL    HW231060   2.026  12.120   2.761 -0.2104 -0.3648 -0.4462
 8067SOL     OW31061   4.946   3.950   6.475  0.3185 -0.4524  0.2015
 8067SOL    HW131062   4.968   3.980   6.563 -0.4461 -0.3493  0.3581
 8067SOL    HW231063   4.931   3.856   6.484 -1.7108 -0.1271  0.5772
 8068SOL     OW31064   1.873   4.203  11.945 -0.5705 -0.9201 -0.0133
 8068SOL    HW131065   1.957   4.198  11.990 -0.8440 -2.9497  0.3882
 8068SOL    HW231066   1.808   4.198  12.016 -1.0333  0.2484 -0.3448
 8069SOL     OW31067   0.406   2.224   8.547 -0.3818 -0.0565  0.4934
 8069SOL    HW131068   0.440   2.231   8.636  0.2237 -0.6209  0.3092
 8069SOL    HW231069   0.323   2.177   8.556  0.0495 -0.7959  0.6785
 8070SOL     OW31070  11.420   8.900   6.395  0.1907  0.4090 -0.8540
 8070SOL    HW131071  11.361   8.859   6.458  2.6664 -0.9114  0.7755
 8070SOL    HW231072  11.386   8.989   6.385 -0.3770  0.6774  2.3496
 8071SOL     OW31073   9.435   0.584   0.473  0.8967  0.0705  0.1094
 8071SOL    HW131074   9.371   0.526   0.514 -0.6932  1.3196 -0.4922
 8071SOL    HW231075   9.455   0.541   0.389 -1.0164  0.7955 -0.7762
 8072SOL     OW31076   4.651   0.145   9.651  0.1702 -0.1493  0.2886
 8072SOL    HW131077   4.590   0.210   9.618  1.3017 -0.0625 -1.7379
 8072SOL    HW231078   4.714   0.194   9.703  1.1344  0.4703 -1.3915
 8073SOL     OW31079   1.479   1.831   3.672  0.3869 -0.1713 -0.1963
 8073SOL    HW131080   1.487   1.760   3.608 -0.2063 -1.8797  1.5436
 8073SOL    HW231081   1.387   1.857   3.667  0.1875 -0.7490  0.3986
 8074SOL     OW31082   6.090   2.478   9.989 -0.0202 -0.0654  0.0229
 8074SOL    HW131083   6.174   2.455  10.029 -1.0955 -1.5654  1.5525
 8074SOL    HW231084   6.068   2.403   9.934 -1.6196 -1.0303  1.8410
 8075SOL     OW31085  10.324  11.996  10.388 -0.3751 -0.3016  0.2119
 8075SOL    HW131086  10.241  12.020  10.428 -0.0123  1.0900  0.1712
 8075SOL    HW231087  10.390  12.020  10.454  0.0264 -0.9604  0.0585
 8076SOL     OW31088   0.787   5.507  10.187 -0.1841  0.3705 -0.0217
 8076SOL    HW131089   0.715   5.455  10.223 -2.0695  1.4227 -2.0438
 8076SOL    HW231090   0.744   5.585  10.151  1.8917  0.7456 -1.8415
 8077SOL     OW31091   0.426  10.361   3.989  0.1795 -0.1182 -0.0864
 8077SOL    HW131092   0.381  10.427   4.042 -0.2345 -0.3984 -0.0817
 8077SOL    HW231093   0.442  10.404   3.905 -0.8112 -0.2627 -0.3650
 8078SOL     OW31094   2.668  10.244  10.251 -0.0386 -0.1866  0.4882
 8078SOL    HW131095   2.712  10.191  10.184  0.7679 -1.5768  2.0352
 8078SOL    HW231096   2.685  10.334  10.226 -0.0408 -0.6551 -1.3450
 8079SOL     OW31097   9.600  11.877   0.308 -0.4320  0.4857 -0.6377
 8079SOL    HW131098   9.587  11.961   0.353 -0.2649 -0.4770  1.3538
 8079SOL    HW231099   9.633  11.901   0.222  1.1202  2.4518  0.3947
 8080SOL     OW31100   1.889   7.728   0.121  0.7034  0.0237 -0.6559
 8080SOL    HW131101   1.816   7.666   0.118  1.3921 -1.1581  2.7933
 8080SOL    HW231102   1.849   7.813   0.100 -1.0849 -0.9726 -1.4877
 8081SOL     OW31103   8.121   9.958   2.775  0.0660  0.3359  0.1142
 8081SOL    HW131104   8.072   9.961   2.857 -2.2693  0.1606 -1.1901
 8081SOL    HW231105   8.088  10.032   2.724 -0.3084 -0.9043 -1.5571
 8082SOL     OW31106   8.714   0.456   2.844 -0.3652 -0.1407  0.3919
 8082SOL    HW131107   8.729   0.401   2.767 -0.4299 -2.8338  2.1304
 8082SOL    HW231108   8.801   0.468   2.882 -0.3514  1.0167  0.0071
 8083SOL     OW31109   6.472   8.810  10.785 -0.2167 -0.6670 -0.0371
 8083SOL    HW131110   6.518   8.844  10.862 -1.2352  1.7343 -0.3915
 8083SOL    HW231111   6.529   8.831  10.712  0.7134 -2.8790 -0.0128
 8084SOL     OW31112  12.341   6.407   4.845  0.2722  0.0328 -0.1417
 8084SOL    HW131113  12.424   6.401   4.892  0.9732 -1.6565 -1.4693
 8084SOL    HW231114  12.366   6.438   4.757 -0.8251  1.7706  0.1147
 8085SOL     OW31115   7.245   7.056   4.139 -0.6623  0.0482  0.6419
 8085SOL    HW131116   7.193   7.106   4.202 -0.5761 -0.6147  1.2609
 8085SOL    HW231117   7.229   6.964   4.163  2.4358 -0.1957  2.2431
 8086SOL     OW31118  11.633   8.902   6.185 -0.0434  0.2361 -0.4602
 8086SOL    HW131119  11.573   8.898   6.259  0.0026  1.0310 -0.3723
 8086SOL    HW231120  11.579   8.933   6.112 -0.3046 -1.3916 -1.0028
 8087SOL     OW31121   8.719  11.333   7.401  0.1056  0.3458  0.0915
 8087SOL    HW131122   8.698  11.248   7.440 -0.2896 -0.6463 -2.1410
 8087SOL    HW231123   8.640  11.357   7.353  1.0826  0.7107 -1.3906
 8088SOL     OW31124  11.870   8.054   5.807  0.4603  0.7209  0.4994
 8088SOL    HW131125  11.940   8.106   5.847 -0.6864  2.4337  0.3781
 8088SOL    HW231126  11.896   8.044   5.716  2.2135 -1.6813  1.1577
 8089SOL     OW31127   5.644  12.024   3.882 -0.1204 -0.4739 -0.3606
 8089SOL    HW131128   5.598  12.052   3.961 -1.6325 -0.9433 -1.0351
 8089SOL    HW231129   5.717  12.086   3.874 -0.0404 -0.3055  1.2822
 8090SOL     OW31130  12.261  10.709   9.801 -0.0222  0.2107  0.0593
 8090SOL    HW131131  12.300  10.624   9.820  0.0219 -0.2549 -1.8441
 8090SOL    HW231132  12.333  10.772   9.813 -0.0033 -0.0318  1.2792
 8091SOL     OW31133  11.808   3.973   0.484 -0.7449 -0.3504  0.4445
 8091SOL    HW131134  11.859   4.044   0.522  0.4637  0.2936 -2.1986
 8091SOL    HW231135  11.863   3.895   0.495  0.6105  0.2166 -1.7662
 8092SOL     OW31136   3.407   4.887   5.981  0.4455 -1.0246  0.2797
 8092SOL    HW131137   3.458   4.941   5.920  2.4412  0.6324  3.1475
 8092SOL    HW231138   3.320   4.927   5.981  0.5232 -0.8001 -1.1292
 8093SOL     OW31139  10.563   4.342  10.118 -0.3591  0.1253 -0.4479
 8093SOL    HW131140  10.602   4.254  10.114  0.2789  0.3945 -0.2582
 8093SOL    HW231141  10.471   4.326  10.142 -0.0982 -0.4522  0.1982
 8094SOL     OW31142   3.428   4.763  10.066  0.4663 -0.3716 -0.2657
 8094SOL    HW131143   3.396   4.847  10.099  1.9321 -0.2562  1.0024
 8094SOL    HW231144   3.434   4.774   9.972 -1.5511  0.1443 -0.3736
 8095SOL     OW31145   4.615   9.402   9.672 -0.0984 -0.2599  0.0063
 8095SOL    HW131146   4.576   9.372   9.754 -2.6877 -0.8496 -1.3348
 8095SOL    HW231147   4.642   9.322   9.627  0.9657  0.0433  0.0672
 8096SOL     OW31148  11.837   2.546   6.202  0.1967  0.1882  0.1777
 8096SOL    HW131149  11.851   2.465   6.252 -0.4495  0.5692  1.0031
 8096SOL    HW231150  11.919   2.595   6.213 -0.1160  0.4892  1.3114
 8097SOL     OW31151   0.826   5.479   2.556 -0.0059 -0.5549 -0.8579
 8097SOL    HW131152   0.852   5.417   2.488  2.8848 -0.0133 -0.3658
 8097SOL    HW231153   0.899   5.480   2.617 -1.1934  1.2646  0.6536
 8098SOL     OW31154  11.738   8.555   3.065  0.0701 -0.9688  0.0956
 8098SOL    HW131155  11.769   8.483   3.010 -0.7491 -2.2397  1.2319
 8098SOL    HW231156  11.651   8.576   3.030  1.1592  1.0555 -1.6485
 8099SOL     OW31157   2.007   2.147   9.469  0.3653 -0.7522 -0.1831
 8099SOL    HW131158   2.021   2.085   9.397 -1.1454 -0.3395 -0.8687
 8099SOL    HW231159   1.923   2.189   9.448 -0.1203 -0.6470  1.8445
 8100SOL     OW31160   4.634   4.912   8.529  0.3101  0.2030 -0.6474
 8100SOL    HW131161   4.673   4.881   8.610 -1.8466  0.5709  0.6112
 8100SOL    HW231162   4.656   5.005   8.526  0.4584  0.1721 -0.5251
 8101SOL     OW31163   9.647   9.246   4.954  0.1630 -0.5905  0.0360
 8101SOL    HW131164   9.622   9.338   4.962  2.2304 -0.0143  0.2692
 8101SOL    HW231165   9.656   9.231   4.860 -0.6890 -0.7329 -0.0364
 8102SOL     OW31166   9.818  12.030   5.895  0.2834 -0.2891 -0.0625
 8102SOL    HW131167   9.818  11.939   5.925  0.2584 -0.4114 -0.4294
 8102SOL    HW231168   9.861  12.078   5.966 -0.8333 -0.3897  0.6935
 8103SOL     OW31169   8.691  11.059   7.107  0.1074 -0.0715  0.7745
 8103SOL    HW131170   8.607  11.105   7.118 -0.5869 -1.0794 -0.0215
 8103SOL    HW231171   8.670  10.987   7.047  1.6212 -0.1669  0.3323
 8104SOL     OW31172  11.470   4.974   2.336  0.4505  0.1702  0.2114
 8104SOL    HW131173  11.439   5.005   2.421  1.4975  4.0324 -0.6287
 8104SOL    HW231174  11.538   4.910   2.357 -1.2705 -1.1290  2.1546
 8105SOL     OW31175   9.075   1.531   1.833 -0.1592 -0.4850 -0.2758
 8105SOL    HW131176   9.128   1.590   1.887 -0.6442 -0.2656 -0.0343
 8105SOL    HW231177   9.089   1.562   1.743  2.3055 -2.1248 -0.5620
 8106SOL     OW31178   1.888   2.686   2.012  0.1461  0.1566 -0.0898
 8106SOL    HW131179   1.909   2.601   1.972  1.2514  0.2069  0.3517
 8106SOL    HW231180   1.860   2.741   1.939  1.0189 -0.0990 -0.6332
 8107SOL     OW31181   3.514  11.799   1.640 -0.2020  0.7181 -0.2967
 8107SOL    HW131182   3.468  11.774   1.720  1.1684 -2.9461 -0.4810
 8107SOL    HW231183   3.555  11.883   1.661 -1.6921  0.9616  2.0058
 8108SOL     OW31184   4.369   8.621   6.627 -0.2055 -0.2664  0.5207
 8108SOL    HW131185   4.308   8.676   6.676 -0.7292 -1.6565  1.4966
 8108SOL    HW231186   4.456   8.653   6.652 -0.4966 -0.0496  1.2802
 8109SOL     OW31187   7.706   9.900   9.733  0.7766 -0.2063 -0.1670
 8109SOL    HW131188   7.627   9.875   9.686  1.4883 -0.9302 -1.0130
 8109SOL    HW231189   7.674   9.935   9.816 -0.3775 -1.7032  0.0666
 8110SOL     OW31190   2.282   3.069   4.132 -0.0567 -0.3551  0.3580
 8110SOL    HW131191   2.280   3.077   4.036 -0.3389 -1.0650  0.2920
 8110SOL    HW231192   2.208   3.122   4.162  1.1048  1.3601  0.3306
 8111SOL     OW31193   6.490   2.757  11.086 -0.1267  1.0692 -0.1296
 8111SOL    HW131194   6.579   2.784  11.062 -0.5133  1.5285 -1.0845
 8111SOL    HW231195   6.465   2.816  11.156  0.6393  0.3699  0.7619
 8112SOL     OW31196   6.464   5.056   9.113 -0.3746  0.0703  0.2500
 8112SOL    HW131197   6.431   5.121   9.052 -0.7918 -0.6580 -0.3153
 8112SOL    HW231198   6.488   5.106   9.191 -0.3409  0.9402 -0.3085
 8113SOL     OW31199   6.257   8.001  11.470  0.1676  0.8729 -0.0171
 8113SOL    HW131200   6.189   7.934  11.460 -0.1303  1.1800 -0.0498
 8113SOL    HW231201   6.267   8.010  11.565  0.7815  0.2047 -0.0103
 8114SOL     OW31202   8.540   9.877   4.017 -0.2820  0.1039  0.0638
 8114SOL    HW131203   8.575   9.840   3.936 -0.9144  1.4237 -0.8468
 8114SOL    HW231204   8.608   9.936   4.047 -0.5319  0.5200 -0.1712
 8115SOL     OW31205  10.340   0.369   6.853  0.8741  0.2352 -0.5583
 8115SOL    HW131206  10.257   0.360   6.806 -0.7601 -0.4820  2.2968
 8115SOL    HW231207  10.394   0.297   6.819 -0.1006 -0.0560 -1.5605
 8116SOL     OW31208  10.306  12.329  10.050 -0.3606  0.1144 -0.4212
 8116SOL    HW131209  10.310  12.399  10.114 -0.4272 -0.6795  0.4703
 8116SOL    HW231210  10.348  12.254  10.093 -0.2402 -0.3756 -1.3658
 8117SOL     OW31211   3.259   8.872   5.655 -0.2250 -0.8378  0.2992
 8117SOL    HW131212   3.268   8.964   5.681  0.2973 -1.1050  1.1158
 8117SOL    HW231213   3.255   8.875   5.559 -3.2585  0.2622  0.3453
 8118SOL     OW31214  11.940   7.818  11.259 -0.4005 -0.2957 -0.0865
 8118SOL    HW131215  11.963   7.862  11.178  0.2270 -0.3768  0.0410
 8118SOL    HW231216  12.022   7.777  11.288 -0.2239  1.0114  1.3853
 8119SOL     OW31217   7.788   6.685  11.406 -0.5361 -0.3759  0.1955
 8119SOL    HW131218   7.755   6.653  11.489 -4.0335 -2.5336 -1.7823
 8119SOL    HW231219   7.857   6.623  11.382 -0.3472 -0.4444  0.8912
 8120SOL     OW31220   2.355   4.593   8.456  0.1619 -0.2000  0.5000
 8120SOL    HW131221   2.375   4.667   8.514  1.3775 -0.4856  0.4794
 8120SOL    HW231222   2.364   4.629   8.367 -1.1628  0.1011  0.4757
 8121SOL     OW31223   4.991  11.595   5.924 -0.0029 -0.0679  0.2872
 8121SOL    HW131224   5.059  11.641   5.973  0.3147 -0.3910  0.1579
 8121SOL    HW231225   4.940  11.549   5.991 -0.4464  0.6233  0.4352
 8122SOL     OW31226  10.570   1.900   8.126 -0.3273  0.2892  0.0366
 8122SOL    HW131227  10.488   1.857   8.102 -0.9973  1.0787  0.8448
 8122SOL    HW231228  10.631   1.875   8.057 -0.3053 -2.9734  1.0624
 8123SOL     OW31229   6.752   1.490   7.380  0.3547 -0.6852  0.3802
 8123SOL    HW131230   6.698   1.516   7.455 -0.1106 -0.2300 -0.1039
 8123SOL    HW231231   6.704   1.417   7.341  0.5985 -0.9229  0.5224
 8124SOL     OW31232   9.797   7.856   0.828  0.0683  0.0261  0.3113
 8124SOL    HW131233   9.746   7.926   0.787  1.1066  0.7110  0.1339
 8124SOL    HW231234   9.829   7.804   0.754 -1.8002 -1.4813  0.4929
 8125SOL     OW31235   1.882   6.240   8.649 -0.0530 -0.8689  0.1327
 8125SOL    HW131236   1.832   6.219   8.727  0.1379 -1.5099  0.0909
 8125SOL    HW231237   1.973   6.246   8.679 -0.2824  1.6789  0.4675
 8126SOL     OW31238   6.543   7.855  10.789  0.2773 -0.3390 -0.2790
 8126SOL    HW131239   6.551   7.862  10.694 -2.9675 -4.2276 -1.1364
 8126SOL    HW231240   6.453   7.883  10.808  0.7417  0.0074  1.6024
 8127SOL     OW31241   8.184   3.485   8.961  0.9066  0.3635  0.4727
 8127SOL    HW131242   8.190   3.391   8.949  2.6320  0.4079  0.8042
 8127SOL    HW231243   8.181   3.497   9.056 -0.7547  0.6043  0.4261
 8128SOL     OW31244   1.365   9.896  10.959  0.3972 -0.4169 -0.0765
 8128SOL    HW131245   1.420   9.824  10.989  0.9177 -0.0070 -0.0155
 8128SOL    HW231246   1.413   9.975  10.986 -0.5108 -0.0439  0.5229
 8129SOL     OW31247   0.656   7.223   7.887 -0.5399  0.7088  0.0336
 8129SOL    HW131248   0.691   7.167   7.957  0.0972 -0.1145 -0.9046
 8129SOL    HW231249   0.567   7.243   7.914 -0.6293 -0.3984  0.6288
 8130SOL     OW31250   9.094   4.680  12.158  0.1784 -0.7539  0.5698
 8130SOL    HW131251   9.081   4.665  12.064 -0.4061  0.0925  0.5039
 8130SOL    HW231252   9.091   4.775  12.168  0.6547 -0.8208  1.3917
 8131SOL     OW31253   2.423   3.923   2.414  0.2151  0.2095 -0.3564
 8131SOL    HW131254   2.490   3.897   2.477 -0.2102  1.2764  0.5800
 8131SOL    HW231255   2.455   4.006   2.378  0.5079 -0.4439 -1.6528
 8132SOL     OW31256   0.107   9.090   6.294  0.5557 -0.4485  0.4013
 8132SOL    HW131257   0.093   9.174   6.252 -0.7054  0.0610  1.7502
 8132SOL    HW231258   0.138   9.032   6.224 -1.1527  0.4278 -1.1546
 8133SOL     OW31259   9.942   2.652  12.096  0.5998 -0.0825 -0.1491
 8133SOL    HW131260   9.851   2.642  12.121  0.0984 -0.2375 -1.8930
 8133SOL    HW231261   9.940   2.704  12.015  1.9281 -1.2135 -0.9661
 8134SOL     OW31262   1.312   0.593  11.238  0.2449  0.2994  0.2160
 8134SOL    HW131263   1.245   0.655  11.265  0.2680  0.8802 -1.0049
 8134SOL    HW231264   1.264   0.522  11.195  0.2464 -0.4045  1.3218
 8135SOL     OW31265   9.734  10.221  10.114  0.0320  0.1324 -0.4943
 8135SOL    HW131266   9.683  10.210  10.193  0.7454 -0.0508 -0.0457
 8135SOL    HW231267   9.700  10.301  10.073 -0.8666 -0.2123 -0.4206
 8136SOL     OW31268   7.838   6.841   3.523 -0.6383 -0.0385  0.0162
 8136SOL    HW131269   7.756   6.850   3.475 -0.5203 -0.9210 -0.3750
 8136SOL    HW231270   7.817   6.869   3.612 -0.6659  2.4088 -0.6739
 8137SOL     OW31271   8.467   9.864  11.751 -0.3596  0.0058 -0.2909
 8137SOL    HW131272   8.476   9.837  11.842 -1.8574 -0.1125 -0.1603
 8137SOL    HW231273   8.443   9.957  11.755 -1.1635 -0.1814 -0.5181
 8138SOL     OW31274   6.376  12.446  10.487  0.0349  0.0290  0.5074
 8138SOL    HW131275   6.367  12.374  10.549 -0.3950  0.8254  1.4063
 8138SOL    HW231276   6.320  12.515  10.523 -0.8034  0.2626 -1.1754
 8139SOL     OW31277   4.527   5.190  11.267 -0.3332  0.4686 -0.4427
 8139SOL    HW131278   4.620   5.206  11.287 -0.1920  0.1510 -0.8301
 8139SOL    HW231279   4.520   5.205  11.173 -0.1736 -1.7707 -0.8663
 8140SOL     OW31280   5.394  10.471  11.724 -0.0366 -0.2673  0.2486
 8140SOL    HW131281   5.356  10.397  11.677  1.1970 -1.8900  1.7108
 8140SOL    HW231282   5.383  10.450  11.816  0.5575  1.2622  0.6981
 8141SOL     OW31283   9.192   9.425   0.001 -0.1559 -0.0874 -0.2988
 8141SOL    HW131284   9.284   9.430  -0.022 -0.1255  0.4843 -0.0840
 8141SOL    HW231285   9.145   9.428  -0.082 -0.0591  2.1453 -0.3497
 8142SOL     OW31286   6.911   4.280  10.364  0.1638  0.2404 -0.2013
 8142SOL    HW131287   6.891   4.301  10.273  0.6865  1.3275 -0.0803
 8142SOL    HW231288   6.827   4.253  10.402  0.1214 -1.2463 -1.2478
 8143SOL     OW31289   1.988  10.105  10.875 -0.9601  0.2850 -0.0291
 8143SOL    HW131290   1.906  10.142  10.843 -0.9538 -0.4506 -0.9238
 8143SOL    HW231291   2.028  10.175  10.927 -0.3916  1.9788 -2.5958
 8144SOL     OW31292   0.043   0.477  11.853 -0.0455  0.1420  0.1252
 8144SOL    HW131293  -0.049   0.475  11.827  0.3919 -0.5341 -1.5111
 8144SOL    HW231294   0.041   0.489  11.948 -1.8459 -0.7992  0.2474
 8145SOL     OW31295   2.623   7.480   4.777  0.5361 -0.3072 -0.2333
 8145SOL    HW131296   2.618   7.472   4.872  1.0065 -0.7264 -0.2364
 8145SOL    HW231297   2.597   7.394   4.744  2.3300 -0.8402 -0.3979
 8146SOL     OW31298   7.429   0.355  12.192  0.6338  0.5970 -0.2982
 8146SOL    HW131299   7.500   0.305  12.152  0.5306 -0.0133  0.2556
 8146SOL    HW231300   7.389   0.294  12.254  0.6623  1.4491  0.5921
 8147SOL     OW31301   7.641   2.255   8.003  0.5547  0.4785 -0.3403
 8147SOL    HW131302   7.719   2.206   8.027 -0.5171 -0.6999  0.9443
 8147SOL    HW231303   7.661   2.291   7.917  1.4434 -2.2209 -1.3844
 8148SOL     OW31304   0.522   1.660   1.745 -0.0256  0.1818  0.2885
 8148SOL    HW131305   0.611   1.649   1.778 -0.4669 -0.8528  1.1634
 8148SOL    HW231306   0.534   1.673   1.650  0.9309 -2.7627 -0.1038
 8149SOL     OW31307   7.243  12.115   0.179  0.4100  0.8095  0.1147
 8149SOL    HW131308   7.283  12.132   0.093 -0.9124  0.6390 -0.5545
 8149SOL    HW231309   7.247  12.020   0.189  0.9517  0.8630  0.4457
 8150SOL     OW31310   6.649   9.251  10.197 -0.1794 -0.0616  0.0247
 8150SOL    HW131311   6.733   9.236  10.154 -1.2489 -0.0086 -2.2821
 8150SOL    HW231312   6.600   9.170  10.182 -1.0947  0.5020 -0.1303
 8151SOL     OW31313   5.206   7.484  11.045 -0.0405 -0.0807  0.5589
 8151SOL    HW131314   5.174   7.552  11.105  0.8989 -0.4444  1.5159
 8151SOL    HW231315   5.136   7.474  10.980 -0.2036  1.7757  0.3989
 8152SOL     OW31316   3.972   6.308  12.023  0.0318  0.2976  0.2420
 8152SOL    HW131317   3.916   6.235  11.999 -0.2342  0.9537 -1.2697
 8152SOL    HW231318   3.951   6.327  12.114 -1.4360 -0.1365  0.0065
 8153SOL     OW31319   3.638  11.406   8.611 -0.7079 -0.4582  0.4584
 8153SOL    HW131320   3.685  11.458   8.546  0.2043 -0.2141  1.2905
 8153SOL    HW231321   3.702  11.340   8.639 -1.0589 -0.4915  1.1769
 8154SOL     OW31322   0.254  11.658  10.167  0.0299 -0.4606 -0.5425
 8154SOL    HW131323   0.267  11.614  10.251  0.6061  0.2613 -0.2348
 8154SOL    HW231324   0.215  11.592  10.110  1.4594 -1.5745 -0.3034
 8155SOL     OW31325   1.036  10.712   1.801  0.5103 -0.5991 -0.0772
 8155SOL    HW131326   1.012  10.770   1.729 -1.0957 -1.0209  0.0809
 8155SOL    HW231327   1.115  10.751   1.837  0.8002  0.1538 -1.4611
 8156SOL     OW31328  11.220   8.827   6.564  0.1585  0.6954 -0.1012
 8156SOL    HW131329  11.199   8.746   6.610 -1.3209  1.2531  0.2471
 8156SOL    HW231330  11.162   8.892   6.602  1.5708  2.0164 -0.1346
 8157SOL     OW31331   8.151   8.743   0.264  0.7519  0.0414  0.3221
 8157SOL    HW131332   8.079   8.768   0.206  1.1668  2.3368  0.6967
 8157SOL    HW231333   8.214   8.815   0.257  2.7932 -1.6437  0.4147
 8158SOL     OW31334  11.703   1.976   2.002 -0.6690  0.3799 -0.2229
 8158SOL    HW131335  11.769   1.921   2.045  0.3661  1.5500 -0.2650
 8158SOL    HW231336  11.664   2.026   2.074 -1.5208 -0.2786 -0.2030
 8159SOL     OW31337   3.347   8.487   9.535  0.4593  0.4645 -0.7198
 8159SOL    HW131338   3.348   8.551   9.464 -0.9822 -1.1954 -2.3564
 8159SOL    HW231339   3.409   8.521   9.600  0.7199  2.7942 -2.0926
 8160SOL     OW31340   1.121   6.661  10.012 -0.0020  0.4774 -0.0862
 8160SOL    HW131341   1.146   6.571   9.993 -0.1221  0.0916  1.4629
 8160SOL    HW231342   1.080   6.692   9.931  0.0201 -0.8614 -0.6320
 8161SOL     OW31343  10.031  10.469   2.049  0.1459  0.2576  0.1852
 8161SOL    HW131344  10.057  10.454   1.958  0.1149  0.2567  0.1763
 8161SOL    HW231345  10.079  10.403   2.098  0.0984  0.2037  0.1595
 8162SOL     OW31346  11.956  12.345   2.340  0.0624  0.1220 -0.0808
 8162SOL    HW131347  11.941  12.266   2.288  0.4046  0.1607 -0.2419
 8162SOL    HW231348  11.869  12.370   2.371  0.1447 -1.3063  1.4116
 8163SOL     OW31349   4.996   6.430  12.379 -0.7580 -0.0762  0.7398
 8163SOL    HW131350   4.983   6.413  12.286 -1.0438  0.7371  0.6214
 8163SOL    HW231351   4.955   6.516  12.394  0.1520  0.2619  1.3987
 8164SOL     OW31352   8.877   6.333   7.707  0.2075 -0.0039 -0.3579
 8164SOL    HW131353   8.964   6.306   7.677 -0.7293 -1.4559 -1.9303
 8164SOL    HW231354   8.863   6.282   7.787  1.5328  1.7124  1.0674
 8165SOL     OW31355   2.303   8.946  11.780 -0.4585  0.2031  0.5898
 8165SOL    HW131356   2.231   9.008  11.767 -1.3728  0.0025  3.8069
 8165SOL    HW231357   2.263   8.872  11.827  1.4771 -0.7925  0.7729
 8166SOL     OW31358  10.140  10.855  11.125  0.3884  0.3339  0.3441
 8166SOL    HW131359  10.216  10.834  11.179 -0.7189 -1.0573  1.4377
 8166SOL    HW231360  10.077  10.893  11.186 -0.9361 -1.3929  0.1317
 8167SOL     OW31361   5.267   7.680   3.972  0.3832  0.0860 -0.9270
 8167SOL    HW131362   5.186   7.633   3.952 -0.0943  0.9173 -1.0181
 8167SOL    HW231363   5.303   7.704   3.886  0.6472 -0.1536 -0.8831
 8168SOL     OW31364   8.866   9.313   1.292  0.2602  0.4780  0.3844
 8168SOL    HW131365   8.841   9.398   1.328  2.8085  1.8258 -0.7683
 8168SOL    HW231366   8.787   9.282   1.248 -0.9714  1.8246  1.5246
 8169SOL     OW31367   9.470   8.997   2.227 -0.2154 -0.4952  0.3871
 8169SOL    HW131368   9.406   9.067   2.234  0.3834 -0.0594  1.9428
 8169SOL    HW231369   9.418   8.917   2.225 -0.8822 -0.0633 -0.8578
 8170SOL     OW31370   4.508  12.400  11.153 -0.4511  0.4932 -0.6112
 8170SOL    HW131371   4.476  12.469  11.212 -1.0312  0.3469 -0.7507
 8170SOL    HW231372   4.592  12.373  11.191 -0.9350  0.2165  0.2992
 8171SOL     OW31373   4.852   0.449   0.230 -0.8550  0.2794  0.1182
 8171SOL    HW131374   4.822   0.386   0.296 -1.0762  0.0665 -0.1875
 8171SOL    HW231375   4.917   0.401   0.179  0.0154  0.7352  0.7730
 8172SOL     OW31376   0.959   3.697   5.627  0.2932 -0.0753  0.0428
 8172SOL    HW131377   0.930   3.760   5.693 -1.0719  0.7520 -1.2782
 8172SOL    HW231378   0.995   3.752   5.556  2.3590 -0.9616  0.3241
 8173SOL     OW31379   9.242   8.748  11.979 -0.1811  0.5925 -0.0301
 8173SOL    HW131380   9.256   8.839  12.004 -2.3204  0.7512  0.7724
 8173SOL    HW231381   9.186   8.752  11.902  0.6257 -0.0592 -0.6766
 8174SOL     OW31382   7.262   0.698   6.914  0.0886  0.5410  0.0930
 8174SOL    HW131383   7.217   0.751   6.980  1.0305 -0.0226  1.2423
 8174SOL    HW231384   7.315   0.761   6.865 -0.8139  1.0023 -0.2990
 8175SOL     OW31385  10.289   6.944  10.549  0.4112 -0.1460  0.0295
 8175SOL    HW131386  10.203   6.912  10.573  1.1575 -2.0042  0.4120
 8175SOL    HW231387  10.337   6.866  10.521  2.1193  0.7563  0.2880
 8176SOL     OW31388   3.564   0.278   0.448 -0.4908 -0.0789  0.1838
 8176SOL    HW131389   3.651   0.317   0.444  0.9680 -2.8335  2.1835
 8176SOL    HW231390   3.516   0.334   0.510  0.1452  0.8914 -0.1718
 8177SOL     OW31391   5.719   6.320   7.421  0.1255  0.0252 -0.2969
 8177SOL    HW131392   5.744   6.262   7.493 -0.8629  0.2759  0.2618
 8177SOL    HW231393   5.668   6.390   7.462 -1.1523 -0.2613 -1.3214
 8178SOL     OW31394   5.027   7.205  10.908  0.1043  0.0855 -0.6119
 8178SOL    HW131395   5.043   7.298  10.893  1.7765 -0.1042 -0.2672
 8178SOL    HW231396   5.025   7.195  11.003  0.7295 -0.3328 -0.6345
 8179SOL     OW31397   9.907   6.265   3.902  0.1371 -0.1323  0.1691
 8179SOL    HW131398   9.859   6.213   3.966 -1.8443  0.7469 -0.5166
 8179SOL    HW231399   9.900   6.216   3.821 -2.3662  1.3789 -0.6580
 8180SOL     OW31400   5.240   1.851   3.553 -0.1579  0.0321 -0.4723
 8180SOL    HW131401   5.267   1.772   3.598  0.8355  0.7679  0.2805
 8180SOL    HW231402   5.162   1.826   3.504  0.7327 -1.6832 -1.1033
 8181SOL     OW31403   6.725   0.574   8.061 -0.3289 -0.3571  0.4808
 8181SOL    HW131404   6.689   0.593   8.148  0.0979 -0.2165  0.6269
 8181SOL    HW231405   6.818   0.594   8.069 -0.7271  2.3884 -0.8072
 8182SOL     OW31406  12.009   1.474   8.461 -0.2552 -0.3646 -0.0919
 8182SOL    HW131407  12.047   1.413   8.397 -2.3635 -0.5458 -1.2981
 8182SOL    HW231408  11.968   1.417   8.526  0.4399 -0.1891  0.5052
 8183SOL     OW31409   2.845   2.710   9.163  0.2998  0.0501 -0.4379
 8183SOL    HW131410   2.895   2.771   9.217  0.3014  0.7905 -1.2476
 8183SOL    HW231411   2.879   2.724   9.074  0.7737 -1.6169 -0.5513
 8184SOL     OW31412   1.665   9.933   0.476 -0.7515 -0.2239  0.5710
 8184SOL    HW131413   1.707  10.019   0.469 -1.4922  0.1486  0.5771
 8184SOL    HW231414   1.678   9.907   0.567 -0.7016 -0.0216  0.6230
 8185SOL     OW31415   9.257   3.784   4.119 -0.3095  0.7166 -0.7557
 8185SOL    HW131416   9.246   3.758   4.211 -0.7360 -0.3743 -1.0958
 8185SOL    HW231417   9.198   3.726   4.071  0.7693  0.4748 -1.8354
 8186SOL     OW31418   4.419   4.381   8.834 -0.1446  0.1870 -0.1066
 8186SOL    HW131419   4.328   4.411   8.843 -0.5345 -0.4804 -1.4373
 8186SOL    HW231420   4.442   4.404   8.744  1.3374  1.1512  0.4835
 8187SOL     OW31421   2.027   2.774   4.331 -0.0583 -0.3042  0.1372
 8187SOL    HW131422   2.101   2.748   4.387  0.8958  0.5505 -0.6923
 8187SOL    HW231423   1.950   2.765   4.388  0.6617 -1.2530  1.0076
 8188SOL     OW31424   0.538   8.987  10.710  0.2608 -0.5027  0.1300
 8188SOL    HW131425   0.482   9.003  10.786 -0.8644  0.3528 -0.8464
 8188SOL    HW231426   0.621   8.957  10.747 -0.7385 -1.5259  1.6231
 8189SOL     OW31427   9.849   1.322   6.570 -0.3370 -0.0411  0.2766
 8189SOL    HW131428   9.821   1.411   6.551  0.1089 -0.0594 -0.4832
 8189SOL    HW231429   9.801   1.298   6.649  0.4306  1.3072  1.1883
 8190SOL     OW31430   1.328   3.746   6.605 -0.2603 -0.0693  0.6249
 8190SOL    HW131431   1.419   3.727   6.627 -0.0044 -0.2857 -0.5661
 8190SOL    HW231432   1.290   3.662   6.580 -0.0981  0.3656 -1.2279
 8191SOL     OW31433   5.420   7.354   0.691 -0.3917 -0.2471 -0.1032
 8191SOL    HW131434   5.390   7.263   0.699 -1.6357 -0.0027 -1.5127
 8191SOL    HW231435   5.344   7.407   0.714 -0.6696  0.3917 -2.2017
 8192SOL     OW31436   2.296   7.389   1.063  0.0422 -0.1309 -0.3455
 8192SOL    HW131437   2.339   7.315   1.021  2.2161  0.4665  0.6718
 8192SOL    HW231438   2.338   7.466   1.025 -0.8108  0.5218  0.0106
 8193SOL     OW31439   5.527   5.520  10.078 -0.4364  0.2637  0.2179
 8193SOL    HW131440   5.490   5.517  10.165 -0.7815 -0.8061  0.0444
 8193SOL    HW231441   5.464   5.570  10.026 -2.3011 -2.4772 -0.3478
 8194SOL     OW31442   3.313   4.830   9.549 -0.1207 -1.0679 -0.0938
 8194SOL    HW131443   3.366   4.909   9.533  0.7230 -1.2991  1.3898
 8194SOL    HW231444   3.270   4.813   9.465 -0.4815  1.0803 -0.4014
 8195SOL     OW31445   1.406   5.815   2.039 -0.5775  0.2318  0.0531
 8195SOL    HW131446   1.357   5.734   2.055  1.8501 -1.3093  0.3075
 8195SOL    HW231447   1.446   5.802   1.953 -0.5747  1.4171 -0.1410
 8196SOL     OW31448   2.006   1.886   2.771 -0.1498  0.4170  0.1563
 8196SOL    HW131449   2.014   1.888   2.867 -0.5674  1.2733  0.1784
 8196SOL    HW231450   2.064   1.956   2.741  1.4547 -1.0517 -0.3437
 8197SOL     OW31451   0.285   0.365   1.046  0.0737  0.3095 -0.4930
 8197SOL    HW131452   0.300   0.449   1.090  0.5761 -1.3649  2.8414
 8197SOL    HW231453   0.373   0.336   1.019  0.2044 -0.1228  0.3701
 8198SOL     OW31454   1.018   4.474  10.571 -0.1707  0.5399  0.4037
 8198SOL    HW131455   1.100   4.476  10.621  0.3456  2.6713 -0.4406
 8198SOL    HW231456   0.953   4.512  10.631 -0.1356  0.6117  0.3956
 8199SOL     OW31457   0.846   3.950   3.080 -0.6283  0.0785 -0.3027
 8199SOL    HW131458   0.937   3.951   3.110 -1.0868 -2.1034  1.4048
 8199SOL    HW231459   0.820   4.042   3.082  1.1919  0.6297  0.2669
 8200SOL     OW31460   8.689   0.877  10.728  0.3760 -0.1913  0.3436
 8200SOL    HW131461   8.618   0.930  10.691  1.3404  0.2870 -0.8882
 8200SOL    HW231462   8.768   0.908  10.684  1.2527 -1.2861  1.0750
 8201SOL     OW31463   0.262   4.935   7.203 -0.1039 -0.9110 -0.1994
 8201SOL    HW131464   0.273   4.905   7.113  1.0791  1.2182 -0.8438
 8201SOL    HW231465   0.331   4.890   7.253  1.8244  0.7739 -1.1914
 8202SOL     OW31466   3.679   9.583  11.594  1.0023  0.3847 -0.1418
 8202SOL    HW131467   3.724   9.570  11.510 -0.0608  1.1329 -0.8451
 8202SOL    HW231468   3.643   9.497  11.616  2.1981 -0.0826  0.1276
 8203SOL     OW31469   9.517   1.023   5.547  0.5186 -0.4675  0.2188
 8203SOL    HW131470   9.463   1.102   5.552 -0.0894 -0.8713  0.1399
 8203SOL    HW231471   9.524   0.993   5.637  0.0867 -0.7612  0.1556
 8204SOL     OW31472   5.295   5.771   8.728 -0.0004  0.1132 -0.5705
 8204SOL    HW131473   5.276   5.732   8.643  1.9838  2.4117 -2.2088
 8204SOL    HW231474   5.377   5.819   8.714 -0.1615  1.4294  2.3613
 8205SOL     OW31475   9.310   8.635  11.026 -0.4001 -0.2390  0.5051
 8205SOL    HW131476   9.293   8.717  10.978 -1.7151 -1.0816 -0.5310
 8205SOL    HW231477   9.359   8.663  11.103 -0.3938  1.4753 -0.0634
 8206SOL     OW31478   0.666   4.242   8.785 -0.0625 -1.1191  0.3354
 8206SOL    HW131479   0.686   4.321   8.835  2.4264 -0.7308 -1.0814
 8206SOL    HW231480   0.717   4.174   8.828  1.5544 -0.9192 -1.1429
 8207SOL     OW31481  11.682   1.749  12.212 -0.1438 -0.3870 -0.2197
 8207SOL    HW131482  11.620   1.717  12.147  0.0364 -0.0206 -0.5802
 8207SOL    HW231483  11.692   1.842  12.191  0.2898 -0.3763  0.0237
 8208SOL     OW31484   2.006  11.322   7.369  0.0686 -0.4127 -0.0122
 8208SOL    HW131485   1.951  11.316   7.291 -0.9404 -0.5228  0.6778
 8208SOL    HW231486   1.987  11.408   7.405  0.4223 -0.4157  0.1875
 8209SOL     OW31487   9.742   7.326   1.824  0.2928 -0.4917  0.0031
 8209SOL    HW131488   9.828   7.358   1.853  0.4006 -1.2044  0.5076
 8209SOL    HW231489   9.690   7.405   1.812  0.2217 -0.1277  2.2710
 8210SOL     OW31490   5.725  11.107   2.366 -0.1503  0.0920  0.0325
 8210SOL    HW131491   5.780  11.186   2.373 -1.1255  0.6725  1.6521
 8210SOL    HW231492   5.645  11.130   2.413 -1.0346 -1.3887 -0.7014
 8211SOL     OW31493  11.023   2.542   5.487 -0.1082  0.0702 -0.2038
 8211SOL    HW131494  10.943   2.498   5.459 -1.9400  2.1206  1.4033
 8211SOL    HW231495  11.090   2.473   5.487 -1.4879 -1.4173 -2.9211
 8212SOL     OW31496   5.096   4.177   3.310 -0.0226  0.0699 -0.7772
 8212SOL    HW131497   5.161   4.237   3.272 -1.4738  1.4151 -1.2114
 8212SOL    HW231498   5.052   4.139   3.234 -1.9269  1.6458 -0.5204
 8213SOL     OW31499   9.156   4.024   4.787  0.2952 -0.2844 -0.0409
 8213SOL    HW131500   9.164   4.013   4.881 -0.9260  1.0129  0.2483
 8213SOL    HW231501   9.186   4.114   4.770 -3.3951  1.0948 -0.2264
 8214SOL     OW31502   1.574  10.482  10.278  0.4949 -0.2743  0.3965
 8214SOL    HW131503   1.573  10.454  10.186 -0.3786  0.2526  0.2399
 8214SOL    HW231504   1.511  10.425  10.321  0.3045  0.0223  0.5097
 8215SOL     OW31505   6.792   2.121   2.270 -0.3028 -0.0851  0.4469
 8215SOL    HW131506   6.773   2.215   2.263 -0.5333 -0.1664 -0.0296
 8215SOL    HW231507   6.877   2.111   2.227  0.0734  0.0194  1.1508
 8216SOL     OW31508   3.838   5.638   4.303 -0.0268 -0.4192 -0.0622
 8216SOL    HW131509   3.890   5.563   4.332  0.6458 -0.1132 -0.4623
 8216SOL    HW231510   3.747   5.609   4.313  0.1942 -0.7717  1.1640
 8217SOL     OW31511  11.906   1.275   6.666 -0.5167  0.2152  0.0183
 8217SOL    HW131512  11.925   1.182   6.651 -2.0863  0.1253 -1.7320
 8217SOL    HW231513  11.848   1.300   6.593 -0.3863  2.4895  0.6258
 8218SOL     OW31514  10.276   3.679   8.054 -0.0138  0.6022 -0.5574
 8218SOL    HW131515  10.313   3.607   8.004 -0.7243  0.4814 -0.9209
 8218SOL    HW231516  10.182   3.678   8.034 -0.1680  1.1254  0.0551
 8219SOL     OW31517   8.353   4.007   5.755 -0.2615 -0.0969 -0.0501
 8219SOL    HW131518   8.264   3.982   5.732  0.1518 -1.3517 -0.3810
 8219SOL    HW231519   8.386   4.052   5.677  0.0240 -1.3708 -0.6903
 8220SOL     OW31520   5.407   3.261  10.070 -0.0473  0.0201  0.7224
 8220SOL    HW131521   5.364   3.305  10.144 -0.3193  0.0625  0.5405
 8220SOL    HW231522   5.398   3.323   9.997 -0.7657 -0.4903  0.3669
 8221SOL     OW31523   3.375  10.649   6.492  0.0950 -0.3612 -0.0480
 8221SOL    HW131524   3.308  10.647   6.424 -0.3148  1.4803  0.2421
 8221SOL    HW231525   3.349  10.579   6.553 -1.5937  0.3229  0.0682
 8222SOL     OW31526  11.879   7.010   9.146 -0.6042 -0.1605 -0.4323
 8222SOL    HW131527  11.917   7.068   9.212  1.5723 -0.4756 -1.3456
 8222SOL    HW231528  11.830   6.945   9.197 -0.5622  0.7169  0.7578
 8223SOL     OW31529   5.402   6.569   2.157  0.3434 -0.3665  0.0885
 8223SOL    HW131530   5.397   6.615   2.073  2.5203 -1.9253 -0.9903
 8223SOL    HW231531   5.414   6.639   2.221  0.1104  0.7810 -1.0546
 8224SOL     OW31532   8.122   0.097  12.141  0.0107 -0.0485 -0.2043
 8224SOL    HW131533   8.038   0.056  12.161  0.4488 -0.3513  1.1156
 8224SOL    HW231534   8.162   0.039  12.077 -0.5311 -0.2317 -0.3820
 8225SOL     OW31535   3.792   8.995   6.117 -0.1418 -0.4623 -0.3288
 8225SOL    HW131536   3.851   8.942   6.063  0.2826  0.6745 -1.0298
 8225SOL    HW231537   3.707   8.953   6.108  0.3171 -1.4397 -0.2746
 8226SOL     OW31538   0.435   3.106   0.626  0.1692 -0.3547  0.2461
 8226SOL    HW131539   0.402   3.196   0.632  0.2205 -0.4198  2.2048
 8226SOL    HW231540   0.527   3.116   0.602  0.1152  0.0973  0.2141
 8227SOL     OW31541   7.355   0.405   4.719  0.4115  0.2736 -0.1336
 8227SOL    HW131542   7.406   0.389   4.799  2.7190  0.8323 -1.3995
 8227SOL    HW231543   7.269   0.366   4.737  1.4760 -1.3473  1.8782
 8228SOL     OW31544   3.820  11.615   4.218 -0.3764  0.8456  0.3216
 8228SOL    HW131545   3.728  11.599   4.238 -1.0221 -2.0034 -3.6199
 8228SOL    HW231546   3.820  11.687   4.156  0.1461  1.2233  0.7469
 8229SOL     OW31547   8.703  10.327   5.062 -0.5627  0.0322  0.4241
 8229SOL    HW131548   8.782  10.295   5.107 -0.8179 -0.4074  0.5640
 8229SOL    HW231549   8.703  10.281   4.978 -1.1126 -0.6133  0.7642
 8230SOL     OW31550  10.104   9.459  10.241  0.3451 -0.0338 -0.3844
 8230SOL    HW131551  10.104   9.370  10.205 -0.0395 -0.6142  0.9725
 8230SOL    HW231552  10.116   9.447  10.336 -0.6254  1.2933 -0.0485
 8231SOL     OW31553  10.384   5.182   5.959  0.1587  0.2216  0.3454
 8231SOL    HW131554  10.365   5.237   5.882 -0.8026  1.2026  1.2588
 8231SOL    HW231555  10.437   5.238   6.015  1.5900 -0.7853  0.0578
 8232SOL     OW31556   0.877   0.176   1.868 -0.1879  0.1630 -0.4866
 8232SOL    HW131557   0.850   0.267   1.859  0.8446  0.5670  0.2303
 8232SOL    HW231558   0.970   0.176   1.844  0.8128  0.0175  2.8914
 8233SOL     OW31559   9.778   3.007   2.029  0.2781 -0.3921 -0.2234
 8233SOL    HW131560   9.759   3.017   1.936 -0.6681 -2.2320 -0.2795
 8233SOL    HW231561   9.702   2.961   2.064  0.0609  1.2858  1.7377
 8234SOL     OW31562   5.556   4.983   3.710  0.6462  0.2336 -0.2267
 8234SOL    HW131563   5.496   5.030   3.653  1.2138  0.3907 -0.7163
 8234SOL    HW231564   5.592   4.914   3.654 -1.0866 -1.6046  0.8051
 8235SOL     OW31565   7.694   9.481   0.623 -0.1936 -0.2767  0.5590
 8235SOL    HW131566   7.719   9.389   0.630 -0.7039 -0.4737 -0.0921
 8235SOL    HW231567   7.750   9.516   0.553 -1.0653 -0.4910 -0.2650
 8236SOL     OW31568  11.408  12.213   8.051 -0.2241  0.2629  0.1478
 8236SOL    HW131569  11.436  12.141   7.994 -1.0226  0.5470 -0.6275
 8236SOL    HW231570  11.470  12.212   8.124  0.1350 -0.8313 -0.1548
 8237SOL     OW31571   4.023   5.371   2.557  0.1994  0.1372 -0.6744
 8237SOL    HW131572   4.044   5.457   2.593  0.2340 -0.2554  0.2775
 8237SOL    HW231573   4.022   5.384   2.462 -0.0741  1.2409 -0.5315
 8238SOL     OW31574   6.519   2.124  10.312  0.1280  0.0951  0.8969
 8238SOL    HW131575   6.602   2.157  10.346  0.5728 -1.3656  1.3276
 8238SOL    HW231576   6.462   2.120  10.389 -0.2426  0.7498  0.6674
 8239SOL     OW31577   3.884   9.952  10.620  0.1654 -0.4529 -0.3917
 8239SOL    HW131578   3.961   9.948  10.563  1.2021  0.6124  0.8578
 8239SOL    HW231579   3.920   9.967  10.708 -1.4782  0.1686  0.2174
 8240SOL     OW31580   9.563   2.110   6.232  0.0092 -0.2690 -0.1452
 8240SOL    HW131581   9.644   2.144   6.195 -0.4044  0.0219 -0.8072
 8240SOL    HW231582   9.494   2.155   6.183 -0.5507 -0.7041  0.2306
 8241SOL     OW31583   0.307   6.000   2.445 -0.0165  0.6611 -0.5355
 8241SOL    HW131584   0.239   6.043   2.496  0.0069  0.8156 -0.6360
 8241SOL    HW231585   0.260   5.951   2.378 -0.1979 -1.2675  0.8956
 8242SOL     OW31586   4.271   6.484   0.706  0.6068 -0.0025 -0.1693
 8242SOL    HW131587   4.226   6.400   0.706 -0.0675  0.3433  0.6602
 8242SOL    HW231588   4.355   6.466   0.665  0.0426 -0.8381 -1.0091
 8243SOL     OW31589   5.908   0.413  10.749  0.1437  0.4364  0.1794
 8243SOL    HW131590   5.848   0.348  10.786  0.3884  0.0431 -0.1038
 8243SOL    HW231591   5.932   0.377  10.664  0.7186  0.6275  0.2562
 8244SOL     OW31592   4.301   2.802   9.445  0.6918  0.1923  0.3370
 8244SOL    HW131593   4.265   2.797   9.357  1.4604  0.8757 -0.0216
 8244SOL    HW231594   4.396   2.803   9.433  0.8283  3.2985  0.9782
 8245SOL     OW31595   4.401   8.297   8.496  0.1726  0.3562 -0.0298
 8245SOL    HW131596   4.408   8.373   8.438 -0.0115  0.2403 -0.2053
 8245SOL    HW231597   4.412   8.333   8.584 -1.5559  0.8408  0.0241
 8246SOL     OW31598  12.348   1.027   4.470  0.5428  0.0620  0.3614
 8246SOL    HW131599  12.337   0.953   4.530 -0.1390 -0.3836 -0.3024
 8246SOL    HW231600  12.380   1.098   4.526 -1.2776  0.0406  1.5263
 8247SOL     OW31601   9.230   8.342   0.286  0.8888 -0.0556  0.8221
 8247SOL    HW131602   9.297   8.407   0.310  3.4632 -2.4915  0.7938
 8247SOL    HW231603   9.253   8.264   0.336  0.8031 -2.3879 -2.4431
 8248SOL     OW31604   8.865   1.260   9.387  0.4140  0.1490  0.3709
 8248SOL    HW131605   8.830   1.177   9.355  1.2891  0.1441 -0.6370
 8248SOL    HW231606   8.788   1.313   9.406 -0.1511 -0.3959 -0.3453
 8249SOL     OW31607   8.065  10.370  12.423 -0.0254 -0.5718  0.3110
 8249SOL    HW131608   8.064  10.347  12.516 -0.8729 -1.1709  0.1599
 8249SOL    HW231609   8.082  10.464  12.422  0.0244 -0.5672  1.0742
 8250SOL     OW31610  12.454  11.044   3.098  0.3455  0.3724 -0.3654
 8250SOL    HW131611  12.463  10.992   3.018 -3.3008  0.1747 -0.8323
 8250SOL    HW231612  12.436  11.133   3.066  0.5832  0.6528  0.2777
 8251SOL     OW31613   6.938   4.417   4.144  0.6755 -0.4818 -0.1483
 8251SOL    HW131614   6.912   4.509   4.141  1.7491 -0.1548  0.3612
 8251SOL    HW231615   6.923   4.385   4.055 -2.1020 -0.5112  0.2507
 8252SOL     OW31616   0.258   5.808   4.142 -0.1544  0.0997  0.2344
 8252SOL    HW131617   0.224   5.729   4.101 -1.9880  1.3170 -0.7464
 8252SOL    HW231618   0.351   5.808   4.121 -0.3483 -1.2169 -0.7237
 8253SOL     OW31619   3.620   7.260   6.517 -0.0723 -0.2530 -0.2891
 8253SOL    HW131620   3.665   7.342   6.536 -1.2719  0.4621 -0.4201
 8253SOL    HW231621   3.590   7.269   6.426 -1.1888 -0.3477  0.0529
 8254SOL     OW31622   8.771  10.561   2.589  0.2488 -0.3336 -1.0150
 8254SOL    HW131623   8.795  10.476   2.553  1.3070 -0.2234 -0.6267
 8254SOL    HW231624   8.756  10.544   2.682  1.0924 -0.0031 -0.8053
 8255SOL     OW31625   7.251   5.125  11.529 -0.2188 -0.3739  0.6562
 8255SOL    HW131626   7.196   5.203  11.519  2.0484  1.3605  0.9461
 8255SOL    HW231627   7.249   5.106  11.622  0.9069  0.6959  0.9228
 8256SOL     OW31628   0.423   9.288   6.322  0.3471 -0.0164 -0.1438
 8256SOL    HW131629   0.472   9.217   6.364 -0.2933 -0.7911 -0.6853
 8256SOL    HW231630   0.404   9.255   6.234 -0.4793  0.5890 -0.2012
 8257SOL     OW31631   5.284   5.070   1.841 -0.0496 -0.2929  0.1128
 8257SOL    HW131632   5.208   5.102   1.792  0.7474 -1.4857 -2.0552
 8257SOL    HW231633   5.261   4.981   1.867  0.8037 -0.9353 -1.1902
 8258SOL     OW31634   9.217   2.125   0.806  0.1112  0.4049 -0.6923
 8258SOL    HW131635   9.266   2.148   0.884 -0.5113 -1.2959  0.2629
 8258SOL    HW231636   9.283   2.117   0.737  0.9328  0.0439  0.1188
 8259SOL     OW31637  11.296   0.442   3.618 -0.2698  0.0476  0.0543
 8259SOL    HW131638  11.350   0.503   3.669  0.6379  0.4092 -1.2919
 8259SOL    HW231639  11.352   0.416   3.546 -1.6200 -0.2330 -0.9232
 8260SOL     OW31640   8.051   8.328  11.443  0.2478  0.2615 -0.2413
 8260SOL    HW131641   8.144   8.315  11.460 -0.2342 -1.0648  1.7086
 8260SOL    HW231642   8.030   8.265  11.375  0.8885  1.0538 -1.1971
 8261SOL     OW31643   1.945   7.212   9.762  0.4649 -0.2209 -0.2267
 8261SOL    HW131644   1.851   7.207   9.745  0.6993 -0.2735 -1.6579
 8261SOL    HW231645   1.952   7.233   9.855 -0.9812  1.7135 -0.4914
 8262SOL     OW31646   4.815   9.154  11.113 -0.1128  0.1647 -1.1158
 8262SOL    HW131647   4.844   9.223  11.053 -0.0894  0.6088 -0.6041
 8262SOL    HW231648   4.738   9.191  11.157  1.2056  0.7797  0.7948
 8263SOL     OW31649   6.807   6.480   9.906 -0.3523  0.1551  0.0525
 8263SOL    HW131650   6.878   6.427   9.943  0.1153  1.1485  0.6269
 8263SOL    HW231651   6.746   6.416   9.870 -0.3224 -0.8421  1.6458
 8264SOL     OW31652   8.391   8.924   2.877  0.2167 -0.0033  0.4801
 8264SOL    HW131653   8.458   8.986   2.905  0.3968  0.0759 -0.1183
 8264SOL    HW231654   8.431   8.838   2.891  1.8511  0.0169 -3.0708
 8265SOL     OW31655  10.779   5.597  10.907  0.0640  0.2781  0.6292
 8265SOL    HW131656  10.747   5.508  10.892 -0.4499  0.2702  1.6903
 8265SOL    HW231657  10.825   5.592  10.991  0.1259  0.9859  0.6449
 8266SOL     OW31658   0.692  10.997  10.516  0.3341  0.2931  0.0534
 8266SOL    HW131659   0.761  10.992  10.449 -0.4807 -1.4101 -0.7300
 8266SOL    HW231660   0.738  10.987  10.599  0.9761 -2.1685 -0.5205
 8267SOL     OW31661   5.797  10.258   1.477  0.1816 -0.3845 -0.0185
 8267SOL    HW131662   5.776  10.301   1.561 -1.6506  0.0978 -0.6724
 8267SOL    HW231663   5.872  10.307   1.443 -0.9615  1.4438 -0.0634
 8268SOL     OW31664  11.607   1.539   9.591  0.2048  0.1440 -0.2619
 8268SOL    HW131665  11.622   1.447   9.614  0.7762  0.1123 -0.7320
 8268SOL    HW231666  11.646   1.548   9.504  0.5283  0.9419 -0.0357
 8269SOL     OW31667   8.768   0.228   5.403  0.0710 -0.0359  0.2370
 8269SOL    HW131668   8.779   0.317   5.437 -0.4197  0.0965  0.0626
 8269SOL    HW231669   8.850   0.210   5.357 -0.2842  0.7964 -0.7596
 8270SOL     OW31670   8.237   4.598   2.119 -0.1959 -0.3053 -0.1895
 8270SOL    HW131671   8.207   4.551   2.198 -0.1751 -2.3338 -1.3151
 8270SOL    HW231672   8.332   4.602   2.128 -0.3208  1.4092  0.8636
 8271SOL     OW31673   4.908   8.984  12.058  0.2700 -0.0218 -0.0250
 8271SOL    HW131674   4.857   8.903  12.053 -2.1010  1.3189  0.4772
 8271SOL    HW231675   4.843   9.051  12.082  2.0529  2.0925 -0.7784
 8272SOL     OW31676   6.927   4.686   1.233  0.2327  0.4120  0.0987
 8272SOL    HW131677   6.835   4.659   1.232  0.4791 -0.4475 -0.5171
 8272SOL    HW231678   6.972   4.617   1.282  0.9365 -0.5719 -1.8251
 8273SOL     OW31679   1.254   2.622  12.474 -0.0509  0.1231  0.0386
 8273SOL    HW131680   1.204   2.663  12.545 -1.4615  1.3827 -1.5849
 8273SOL    HW231681   1.273   2.534  12.506 -2.5929 -0.1239  1.1445
 8274SOL     OW31682   7.991   8.457   0.244  0.2359  0.4993 -0.3618
 8274SOL    HW131683   8.060   8.495   0.189 -1.9323  2.2554 -2.0579
 8274SOL    HW231684   7.911   8.466   0.192 -1.3769 -1.1594  1.6369
 8275SOL     OW31685  10.711   6.012   9.055 -0.0275 -0.0116 -0.5890
 8275SOL    HW131686  10.779   5.988   8.993  1.7997  1.3794  0.7498
 8275SOL    HW231687  10.713   6.108   9.057 -2.1504  0.0916 -0.5860
 8276SOL     OW31688   9.967   5.438   7.316 -0.1674  0.1752 -0.4959
 8276SOL    HW131689  10.047   5.438   7.369 -0.0492 -0.1583 -0.6736
 8276SOL    HW231690   9.898   5.467   7.377 -0.3958 -2.0693  0.4221
 8277SOL     OW31691   3.948   4.088   0.205  0.0010 -0.2461 -0.3694
 8277SOL    HW131692   3.857   4.109   0.226 -0.5892 -1.0471 -1.9484
 8277SOL    HW231693   3.966   4.006   0.252  0.1503  0.2496  0.4678
 8278SOL     OW31694   7.382   2.738   2.164 -0.3455  0.0211  0.0201
 8278SOL    HW131695   7.322   2.673   2.129 -0.8884  0.1938  0.5969
 8278SOL    HW231696   7.340   2.822   2.146  2.0661  0.5994 -4.1252
 8279SOL     OW31697   1.307   6.155   3.411 -0.1916 -0.2801  0.3012
 8279SOL    HW131698   1.340   6.202   3.335  0.4550  1.3388  1.5132
 8279SOL    HW231699   1.356   6.073   3.413  1.8695  0.8980  0.5372
 8280SOL     OW31700   0.147   7.402   8.953 -0.0195 -0.1781 -0.2833
 8280SOL    HW131701   0.215   7.421   8.889  1.1125 -1.5815  0.4194
 8280SOL    HW231702   0.167   7.313   8.982 -0.3199  0.4896  2.1916
 8281SOL     OW31703   9.357   1.765   9.623 -0.2660 -0.3467 -0.2367
 8281SOL    HW131704   9.439   1.718   9.617  0.6983  1.2874 -0.6013
 8281SOL    HW231705   9.325   1.747   9.712  0.7977 -0.5219  0.1224
 8282SOL     OW31706  11.025   4.538   4.079 -0.1069 -0.1736  0.2500
 8282SOL    HW131707  10.945   4.589   4.090  0.6773  1.2498 -0.3761
 8282SOL    HW231708  11.076   4.555   4.158  0.6483  0.9739 -0.4560
 8283SOL     OW31709   2.685   0.924   1.809  0.1373  0.3097  0.5503
 8283SOL    HW131710   2.598   0.958   1.831 -0.1012  0.6641 -0.8477
 8283SOL    HW231711   2.677   0.894   1.719  1.4540  0.3078  0.4169
 8284SOL     OW31712  11.687   4.251  10.569 -0.0129 -0.0159  0.4129
 8284SOL    HW131713  11.706   4.165  10.606  1.3362 -0.2748 -0.7995
 8284SOL    HW231714  11.771   4.281  10.535 -0.5305  1.6646  0.5589
 8285SOL     OW31715   1.069   0.870  10.493  0.0525 -0.3559 -1.0983
 8285SOL    HW131716   1.123   0.893  10.568 -1.2927  0.6662 -0.4046
 8285SOL    HW231717   1.130   0.868  10.419  1.7307 -3.0972  0.2254
 8286SOL     OW31718  10.959   7.659   3.354  0.4546  0.1490 -1.0126
 8286SOL    HW131719  10.982   7.590   3.292 -1.4476 -0.7304 -0.7988
 8286SOL    HW231720  10.938   7.614   3.435  0.6751  1.1168 -0.3933
 8287SOL     OW31721  11.400   3.506   1.431 -0.5744  0.1505  0.0434
 8287SOL    HW131722  11.365   3.512   1.520  0.0355  0.3027  0.2782
 8287SOL    HW231723  11.390   3.595   1.396  0.1560  0.3641  0.3424
 8288SOL     OW31724   3.149  12.063  11.292  0.2427 -0.3136  0.4639
 8288SOL    HW131725   3.097  12.109  11.226  2.0782  0.9518 -0.1587
 8288SOL    HW231726   3.185  11.987  11.246  1.0806  0.2671  0.1631
 8289SOL     OW31727   3.588   3.741   5.259 -1.0492  0.1333 -0.3147
 8289SOL    HW131728   3.519   3.691   5.302 -0.9794 -0.6571 -1.0850
 8289SOL    HW231729   3.652   3.675   5.233 -0.2883  0.7879 -0.1490
 8290SOL     OW31730   8.706  10.400   1.317  0.1611 -0.1833  0.2235
 8290SOL    HW131731   8.645  10.473   1.313 -0.2730 -0.5610 -0.2009
 8290SOL    HW231732   8.664  10.338   1.378  0.4168 -0.1704  0.4105
 8291SOL     OW31733   1.915   8.118   7.140 -0.4366 -0.1726 -0.3564
 8291SOL    HW131734   1.861   8.048   7.104  0.6174 -1.0152 -0.3396
 8291SOL    HW231735   1.978   8.137   7.071  0.8880 -1.0162  0.5736
 8292SOL     OW31736   6.743  12.295   4.143 -0.3640 -0.2289 -0.3525
 8292SOL    HW131737   6.665  12.323   4.095 -1.1960 -0.1771  0.9509
 8292SOL    HW231738   6.799  12.254   4.078 -0.7800  1.1333 -1.6126
 8293SOL     OW31739   4.108  10.349   4.718  0.1493 -0.0170  0.3505
 8293SOL    HW131740   4.081  10.383   4.803 -0.1781 -0.7910  0.5688
 8293SOL    HW231741   4.204  10.345   4.722  0.1933  0.8414  0.3217
 8294SOL     OW31742   1.448   8.094   2.876 -0.3398  0.2684  0.9434
 8294SOL    HW131743   1.386   8.112   2.805 -0.3818 -1.5460  0.4566
 8294SOL    HW231744   1.440   8.168   2.935 -2.3411  0.4998  0.4502
 8295SOL     OW31745   7.360   7.364  10.292 -0.2486 -0.5123  0.7507
 8295SOL    HW131746   7.355   7.336  10.383 -1.0787  0.3534  0.9969
 8295SOL    HW231747   7.275   7.407  10.276 -0.6477 -1.7999 -0.8184
 8296SOL     OW31748   1.124   3.151   5.266 -0.7061  0.2524  0.4692
 8296SOL    HW131749   1.057   3.214   5.291 -0.7532 -0.4741  2.3764
 8296SOL    HW231750   1.193   3.162   5.332  1.1104  0.9819 -1.4307
 8297SOL     OW31751   5.707   9.777   1.624  0.1020  0.4711  0.3058
 8297SOL    HW131752   5.760   9.856   1.638  1.9620 -0.6049 -0.3082
 8297SOL    HW231753   5.742   9.714   1.687 -0.1661 -0.3925 -0.4028
 8298SOL     OW31754   4.582  12.381  10.879  0.0982 -0.0053  0.0388
 8298SOL    HW131755   4.519  12.395  10.951  0.5979  0.9568  0.3144
 8298SOL    HW231756   4.537  12.416  10.802 -0.1072 -0.2546  0.0445
 8299SOL     OW31757   0.691   8.532  10.800  0.0042 -0.8427  0.3375
 8299SOL    HW131758   0.773   8.580  10.788 -1.1070  1.2563  0.6452
 8299SOL    HW231759   0.702   8.487  10.884  0.6000 -0.0244  0.7151
 8300SOL     OW31760   5.371   3.824   0.551 -0.2671 -0.0821 -0.2898
 8300SOL    HW131761   5.463   3.850   0.550  0.0586 -1.1227  0.1768
 8300SOL    HW231762   5.338   3.857   0.635  0.0766 -0.9097  0.1881
 8301SOL     OW31763   6.616   8.474   1.344 -0.1188 -0.0823 -0.1248
 8301SOL    HW131764   6.552   8.533   1.383 -0.3010 -0.1038 -0.3927
 8301SOL    HW231765   6.649   8.521   1.267 -0.4917 -0.4591 -0.5166
 8302SOL     OW31766  12.304   8.981   1.524  0.1430 -0.0149 -0.1744
 8302SOL    HW131767  12.361   8.984   1.447  0.2822 -1.3045 -0.1399
 8302SOL    HW231768  12.246   9.056   1.514  0.0872 -0.2259 -1.5945
 8303SOL     OW31769   9.348   2.443   3.163  0.1438  0.3065  0.3976
 8303SOL    HW131770   9.345   2.528   3.207  0.0298 -0.3681  1.7226
 8303SOL    HW231771   9.271   2.397   3.195 -0.3340  0.0398 -1.0590
 8304SOL     OW31772   3.107   5.070   3.150 -0.3780 -0.2710  0.2717
 8304SOL    HW131773   3.136   5.115   3.229  1.3173  0.0546 -0.5009
 8304SOL    HW231774   3.160   4.990   3.146 -0.0123  0.0060 -0.8321
 8305SOL     OW31775   4.683   6.137   3.078 -0.2718 -0.2138  0.2100
 8305SOL    HW131776   4.690   6.228   3.109  0.8472  0.0562 -0.7700
 8305SOL    HW231777   4.614   6.099   3.132 -0.6381  1.1704  0.7623
 8306SOL     OW31778  10.358   6.914  10.024 -0.2031  0.4186 -0.2963
 8306SOL    HW131779  10.357   6.981   9.956 -0.8121  0.0651 -0.6513
 8306SOL    HW231780  10.281   6.934  10.078 -0.9224 -0.5094 -0.9403
 8307SOL     OW31781  12.441   6.797   6.526  0.0506  0.1908 -0.0672
 8307SOL    HW131782  12.354   6.819   6.492 -0.3361 -1.4287 -0.1889
 8307SOL    HW231783  12.480   6.882   6.548 -1.4029  0.9700 -0.3712
 8308SOL     OW31784   5.134   6.202   5.599  0.6668 -0.0660 -0.2701
 8308SOL    HW131785   5.089   6.272   5.646  1.3330 -0.5172  1.0783
 8308SOL    HW231786   5.080   6.124   5.613  0.5505 -0.0764 -0.7654
 8309SOL     OW31787   7.365   1.191   5.172 -0.0478 -0.1798  0.3438
 8309SOL    HW131788   7.286   1.140   5.186  1.3020 -2.7112 -0.5972
 8309SOL    HW231789   7.400   1.159   5.089  1.9885  0.8147  0.7450
 8310SOL     OW31790   2.983   1.499   8.920  0.3957  0.5884  0.3187
 8310SOL    HW131791   2.914   1.447   8.962 -0.0966  1.9226  1.2317
 8310SOL    HW231792   2.941   1.537   8.843  0.6704 -0.1065 -0.1827
 8311SOL     OW31793  11.388   2.057   6.467 -0.1882 -0.2858  0.2829
 8311SOL    HW131794  11.430   2.120   6.408  1.2601  0.6632  2.2265
 8311SOL    HW231795  11.350   2.111   6.536 -1.4715 -1.3971  0.4774
 8312SOL     OW31796  10.388   6.235   9.566  0.4229  0.0038 -0.3402
 8312SOL    HW131797  10.474   6.216   9.528  0.5576 -0.1336  0.0279
 8312SOL    HW231798  10.385   6.184   9.647  0.0512  0.1206 -0.2754
 8313SOL     OW31799   2.651   2.665  12.168 -0.0445  0.4062 -0.0232
 8313SOL    HW131800   2.721   2.603  12.150 -1.1886 -0.8857 -0.2102
 8313SOL    HW231801   2.606   2.629  12.245  0.3283  1.9692  0.9772
 8314SOL     OW31802   1.407  10.972   3.277  0.2853  0.0648 -0.1166
 8314SOL    HW131803   1.330  10.998   3.225  0.3461  0.7766  0.1266
 8314SOL    HW231804   1.451  11.055   3.296  0.5287 -0.2393  0.6575
 8315SOL     OW31805   8.022   7.333  12.139 -0.2316 -0.3670 -0.0841
 8315SOL    HW131806   7.990   7.404  12.084  1.5954  0.1818 -0.4986
 8315SOL    HW231807   8.116   7.329  12.122  0.0138 -1.6918  1.3046
 8316SOL     OW31808   2.312   7.719   4.995  0.7193  0.0177 -0.2894
 8316SOL    HW131809   2.219   7.714   5.017  0.9217  0.9377  0.8541
 8316SOL    HW231810   2.314   7.736   4.901 -0.2366 -0.8729 -0.4893
 8317SOL     OW31811   8.303  11.709  11.826  0.0529 -0.5127 -0.3295
 8317SOL    HW131812   8.286  11.789  11.876 -1.0011 -1.5213  0.9960
 8317SOL    HW231813   8.398  11.695  11.834 -0.1168 -0.8016  1.7062
 8318SOL     OW31814   6.105   1.734  10.762 -0.2488  0.0522 -1.4883
 8318SOL    HW131815   6.023   1.780  10.781 -2.0440 -3.3332 -0.2580
 8318SOL    HW231816   6.150   1.729  10.846  0.1293 -0.1310 -1.6967
 8319SOL     OW31817   3.212   1.517  12.343  0.2817 -0.3539  0.2182
 8319SOL    HW131818   3.281   1.451  12.340  0.1719 -0.6591  2.7242
 8319SOL    HW231819   3.199   1.535  12.436 -1.0528  1.7931 -0.2965
 8320SOL     OW31820   5.725   3.561   6.938 -0.4789  0.3447 -0.1954
 8320SOL    HW131821   5.791   3.523   6.996 -1.7118  1.4338  2.0204
 8320SOL    HW231822   5.711   3.494   6.870  2.0852 -0.3312 -0.1400
 8321SOL     OW31823   4.032   0.879  12.343 -0.8839  0.1552  0.5250
 8321SOL    HW131824   4.091   0.829  12.399  1.9732  1.8384 -0.7761
 8321SOL    HW231825   3.971   0.814  12.309  0.2588 -1.7187  1.8429
 8322SOL     OW31826   2.214   8.904   9.743 -0.2181 -0.3823 -0.1681
 8322SOL    HW131827   2.214   8.867   9.831  2.4325  1.2028  0.6406
 8322SOL    HW231828   2.256   8.837   9.689  0.0354 -0.5583  0.2405
 8323SOL     OW31829   9.439   1.957   6.665  0.4523 -0.5579 -0.5531
 8323SOL    HW131830   9.348   1.940   6.643  0.2392  0.0293 -0.1398
 8323SOL    HW231831   9.487   1.883   6.627 -0.3969 -1.9157  0.8946
 8324SOL     OW31832   7.881   1.375  12.040  0.5541  0.1257  0.0064
 8324SOL    HW131833   7.815   1.307  12.027 -0.3010  0.6581  1.3415
 8324SOL    HW231834   7.954   1.348  11.984 -1.7879  1.0039 -3.7931
 8325SOL     OW31835  10.195   5.850   7.686  0.0381 -0.1179 -0.6972
 8325SOL    HW131836  10.124   5.816   7.632 -0.0608 -0.8635 -0.1186
 8325SOL    HW231837  10.164   5.838   7.776  0.3889  0.6749 -0.4661
 8326SOL     OW31838  12.282   7.214  10.755  0.1639  0.3103 -0.2841
 8326SOL    HW131839  12.245   7.279  10.695 -0.2379  1.1326  0.8315
 8326SOL    HW231840  12.221   7.141  10.752 -0.3160  0.7023 -0.2203
 8327SOL     OW31841   9.680   8.597   6.599  0.2659 -0.1864 -0.1401
 8327SOL    HW131842   9.665   8.564   6.511 -1.2147  1.1025 -0.4130
 8327SOL    HW231843   9.666   8.521   6.656  2.9035 -1.4707 -1.0329
 8328SOL     OW31844   9.190   7.560   7.990  0.0969  0.3508 -0.6685
 8328SOL    HW131845   9.107   7.581   8.032  0.0030  0.6505 -1.0034
 8328SOL    HW231846   9.235   7.505   8.054 -1.9738 -3.2187 -2.0147
 8329SOL     OW31847   9.744   2.193   2.956  0.0220 -0.1209 -0.2093
 8329SOL    HW131848   9.654   2.183   2.988 -0.4209  2.2553 -0.5177
 8329SOL    HW231849   9.798   2.181   3.034 -0.5701 -1.0166  0.0923
 8330SOL     OW31850  10.493  11.717  10.888 -0.3979 -0.1750  0.0757
 8330SOL    HW131851  10.447  11.728  10.805 -0.4668 -0.2520  0.1037
 8330SOL    HW231852  10.427  11.739  10.954 -0.3455 -0.1239  0.1098
 8331SOL     OW31853   8.683   0.490   4.984  0.1142 -0.4359 -1.2041
 8331SOL    HW131854   8.647   0.510   5.070  0.0466  1.3327 -1.6017
 8331SOL    HW231855   8.719   0.402   4.993 -1.3897 -0.9593  0.1308
 8332SOL     OW31856   4.048   1.727   0.249  0.2505  0.2464 -0.2246
 8332SOL    HW131857   4.003   1.811   0.252 -0.0041  0.2239 -2.2134
 8332SOL    HW231858   3.978   1.662   0.243  0.4658 -0.0813  0.6483
 8333SOL     OW31859   7.230   0.740   3.776 -0.2798 -0.6807  0.7090
 8333SOL    HW131860   7.319   0.725   3.806  0.1372 -0.4490 -0.3554
 8333SOL    HW231861   7.199   0.654   3.747 -0.5020 -0.8116  1.3340
 8334SOL     OW31862   2.885   6.990  10.072  0.3829  0.2350  0.7020
 8334SOL    HW131863   2.821   6.936  10.118  1.1529 -0.0467  1.4514
 8334SOL    HW231864   2.958   6.999  10.133  0.2524  2.1839  0.6202
 8335SOL     OW31865   4.594  10.836   3.405 -0.0041 -0.4353 -0.0996
 8335SOL    HW131866   4.620  10.910   3.461  2.6887 -1.3964  0.0391
 8335SOL    HW231867   4.642  10.761   3.440 -0.3590 -1.6520 -2.0588
 8336SOL     OW31868   3.830   2.570   0.785  0.7164  0.8314  0.1825
 8336SOL    HW131869   3.897   2.620   0.739  1.7340 -0.5145  0.1257
 8336SOL    HW231870   3.804   2.625   0.859  0.3958  2.2313 -0.9462
 8337SOL     OW31871   6.765   6.610  11.827  0.7715 -0.1768  0.3804
 8337SOL    HW131872   6.766   6.527  11.778  1.0657  0.3930 -0.5954
 8337SOL    HW231873   6.824   6.667  11.779  0.4466  0.6637  0.9637
 8338SOL     OW31874   7.124   5.036   3.247  0.0170 -0.2465  0.1920
 8338SOL    HW131875   7.072   4.959   3.225  0.1999  0.1279 -1.6613
 8338SOL    HW231876   7.068   5.111   3.226  0.9272  0.1445 -0.9646
 8339SOL     OW31877   7.091   8.642  10.360  0.2071 -0.0313 -0.0269
 8339SOL    HW131878   7.123   8.732  10.362 -0.1932  0.1033  0.5959
 8339SOL    HW231879   7.144   8.595  10.425 -1.7024  0.5084  2.0612
 8340SOL     OW31880   4.834   8.849   0.086 -0.1632 -0.1908  0.4374
 8340SOL    HW131881   4.791   8.924   0.129  1.8806  1.1140  0.3381
 8340SOL    HW231882   4.812   8.774   0.141 -2.0670  0.4929  0.6886
 8341SOL     OW31883  11.434   5.231  10.341 -0.6450  0.7687  0.3323
 8341SOL    HW131884  11.453   5.204  10.251 -1.1813  1.9715 -0.1630
 8341SOL    HW231885  11.415   5.149  10.387 -1.2554  0.2194 -0.8662
 8342SOL     OW31886   0.915   6.049   2.498 -0.0457 -0.6399  0.3474
 8342SOL    HW131887   1.004   6.077   2.521 -0.3120  2.0506 -1.4138
 8342SOL    HW231888   0.922   6.021   2.407 -0.7905 -1.6823  0.5952
 8343SOL     OW31889  10.164   2.881   4.568  0.2866  0.2442 -0.5239
 8343SOL    HW131890  10.188   2.807   4.513 -1.3194 -0.1894 -0.6972
 8343SOL    HW231891  10.219   2.953   4.537  3.6890 -1.3421  1.2132
 8344SOL     OW31892   2.988   7.012  10.795  0.3716 -0.1816  0.2505
 8344SOL    HW131893   2.939   7.095  10.789 -0.3762 -0.6567 -0.4520
 8344SOL    HW231894   2.921   6.944  10.791  0.9448 -0.8238  1.2769
 8345SOL     OW31895  11.633   0.082   9.546  0.8067 -0.7223 -0.3530
 8345SOL    HW131896  11.714   0.132   9.543 -0.1279  0.9258  0.6073
 8345SOL    HW231897  11.601   0.081   9.456 -0.5334  2.8845 -0.0792
 8346SOL     OW31898   6.874   3.228   3.038 -0.1068  0.2733 -0.0692
 8346SOL    HW131899   6.909   3.222   3.127 -0.7596 -2.3355  0.0900
 8346SOL    HW231900   6.862   3.322   3.023  1.7262  0.9012  1.8936
 8347SOL     OW31901   1.678   8.678   9.541 -0.4460 -0.1396  0.1417
 8347SOL    HW131902   1.649   8.683   9.632 -1.8165  4.2756 -0.2680
 8347SOL    HW231903   1.599   8.693   9.490  0.4228 -1.7407 -1.8112
 8348SOL     OW31904   4.016  10.508   4.942  0.3343  0.2648 -0.6380
 8348SOL    HW131905   3.964  10.559   4.879  1.1899  0.7010 -1.0044
 8348SOL    HW231906   3.953  10.481   5.009 -0.1286  1.8384 -0.4164
 8349SOL     OW31907   9.422   8.323   8.669 -0.0833  0.1313  0.0204
 8349SOL    HW131908   9.486   8.293   8.604  0.1335 -1.1169  0.7801
 8349SOL    HW231909   9.472   8.380   8.727  0.3564 -0.8166  0.5944
 8350SOL     OW31910   3.805   7.128  10.401 -0.4327  0.0498  0.2331
 8350SOL    HW131911   3.840   7.155  10.485 -0.5586  0.3887  0.1763
 8350SOL    HW231912   3.755   7.204  10.370 -1.3317 -0.4691  0.3741
 8351SOL     OW31913   2.765  10.255   1.528 -0.8691 -0.8494  0.2609
 8351SOL    HW131914   2.760  10.218   1.440 -0.0757  0.6147 -0.4425
 8351SOL    HW231915   2.719  10.339   1.521 -1.0621 -0.8577  1.3254
 8352SOL     OW31916   1.136   6.542  12.039 -0.4481 -0.2013  0.5593
 8352SOL    HW131917   1.208   6.604  12.028 -0.9760  0.3469  0.0768
 8352SOL    HW231918   1.076   6.563  11.968 -1.4495 -0.1426  1.4054
 8353SOL     OW31919  11.158  11.123   8.970  0.1994  0.2140  0.5122
 8353SOL    HW131920  11.108  11.200   8.995  0.5399  0.7829 -0.4832
 8353SOL    HW231921  11.249  11.153   8.969  0.3145 -0.1399 -0.0613
 8354SOL     OW31922   7.149   8.658   8.826  0.4283 -0.3298 -0.3874
 8354SOL    HW131923   7.213   8.720   8.790  2.4317 -1.5328  0.8785
 8354SOL    HW231924   7.106   8.707   8.896  2.5987 -0.5163  1.1815
 8355SOL     OW31925   9.679   8.107   6.388 -0.5544 -0.1968  0.7386
 8355SOL    HW131926   9.706   8.022   6.422 -0.7074 -0.8900 -0.7841
 8355SOL    HW231927   9.612   8.087   6.323 -0.3886  1.0732  0.1448
 8356SOL     OW31928   4.280   7.167   8.650 -0.3969  0.4087 -0.5670
 8356SOL    HW131929   4.294   7.240   8.711  1.2107  0.3670 -0.8640
 8356SOL    HW231930   4.209   7.116   8.691 -0.0902  0.9608  0.7230
 8357SOL     OW31931   7.650   0.286   0.316  0.6382 -0.0467  0.2274
 8357SOL    HW131932   7.656   0.366   0.262  1.8907 -0.3625 -0.1325
 8357SOL    HW231933   7.669   0.316   0.405  2.6126 -0.1456 -0.1192
 8358SOL     OW31934   7.926   4.295   4.819 -0.3532  0.3065 -1.0826
 8358SOL    HW131935   7.932   4.247   4.737 -0.6695  0.0107 -0.9323
 8358SOL    HW231936   8.017   4.321   4.838 -0.3262  0.6799 -1.7019
 8359SOL     OW31937   6.025   7.021   5.451 -0.4395 -0.4203 -0.1629
 8359SOL    HW131938   5.930   7.023   5.454 -0.4235 -0.1540  0.1576
 8359SOL    HW231939   6.046   6.937   5.411 -0.7813 -0.9711  0.8040
 8360SOL     OW31940   4.455   7.965   6.925  0.1757 -0.3268  0.2593
 8360SOL    HW131941   4.505   7.888   6.898  2.6130  1.0127  0.6742
 8360SOL    HW231942   4.517   8.037   6.919 -1.5315  1.3380  1.5448
 8361SOL     OW31943   0.641   9.181   0.818  0.3100 -0.4599  0.0650
 8361SOL    HW131944   0.650   9.145   0.730  1.9576 -2.4643  0.9900
 8361SOL    HW231945   0.555   9.151   0.848  0.5316 -1.3306 -0.1731
 8362SOL     OW31946  10.222   4.172   6.010 -0.1664  1.0278  0.2993
 8362SOL    HW131947  10.201   4.136   6.095 -2.3307  0.0261 -0.5904
 8362SOL    HW231948  10.182   4.259   6.009 -0.5688  0.8424  0.1384
 8363SOL     OW31949   6.577   6.109   1.256 -0.2455  0.3692 -0.0217
 8363SOL    HW131950   6.629   6.153   1.189 -1.1756 -1.6734 -2.2343
 8363SOL    HW231951   6.628   6.120   1.337  0.7868  3.1663 -0.9310
 8364SOL     OW31952   6.454   0.974   4.731 -0.0715  0.5943  0.4513
 8364SOL    HW131953   6.490   0.911   4.668 -1.5697  0.7273 -0.6093
 8364SOL    HW231954   6.471   0.935   4.816 -0.3979 -0.9695 -0.1562
 8365SOL     OW31955   7.173  11.602   1.854  0.9664  0.0004  0.1050
 8365SOL    HW131956   7.207  11.682   1.812  1.3876 -0.2676 -0.0684
 8365SOL    HW231957   7.180  11.619   1.948  0.7800  0.2827  0.0687
 8366SOL     OW31958   0.333   7.564  11.485 -0.2090 -0.3987  0.2105
 8366SOL    HW131959   0.344   7.621  11.409 -1.6796 -0.1878  0.1197
 8366SOL    HW231960   0.241   7.574  11.509 -0.1329 -1.6108  1.1073
 8367SOL     OW31961   5.367   1.307   5.860 -0.1739 -0.6848 -0.1797
 8367SOL    HW131962   5.302   1.264   5.916 -0.3102 -0.4345 -0.1455
 8367SOL    HW231963   5.330   1.302   5.772  0.7594 -2.5015 -0.5198
 8368SOL     OW31964   2.323   0.208   0.558 -0.0787 -0.0059  0.1890
 8368SOL    HW131965   2.417   0.207   0.538  0.1073 -0.4835  1.0298
 8368SOL    HW231966   2.319   0.191   0.652 -1.0250 -0.2714  0.1063
 8369SOL     OW31967   0.540  10.724   2.572  0.0715 -0.5153 -0.1952
 8369SOL    HW131968   0.601  10.726   2.646 -0.5746  1.6509  0.3461
 8369SOL    HW231969   0.594  10.742   2.496  0.3132  0.3159  0.1528
 8370SOL     OW31970  11.926   3.485   7.133  0.7010  0.6250  0.3947
 8370SOL    HW131971  11.859   3.527   7.188  0.0863  2.6330 -1.7441
 8370SOL    HW231972  12.002   3.542   7.140  0.9016  0.4345 -0.1886
 8371SOL     OW31973   4.740   9.266   3.777 -0.1021 -0.1066  0.3028
 8371SOL    HW131974   4.792   9.189   3.754  1.2990  1.0075 -0.4195
 8371SOL    HW231975   4.794   9.313   3.840 -0.3408  0.9485 -0.2560
 8372SOL     OW31976   6.591  11.681  11.516  0.6682  0.2784 -0.0056
 8372SOL    HW131977   6.543  11.618  11.570 -2.6437  1.8266 -0.8744
 8372SOL    HW231978   6.672  11.635  11.492 -0.3389 -2.5778  1.5718
 8373SOL     OW31979   1.237   7.874   3.162  0.2825  0.5613 -0.3215
 8373SOL    HW131980   1.226   7.873   3.067  0.1437 -0.1260 -0.2975
 8373SOL    HW231981   1.203   7.960   3.188 -2.7451 -0.4644 -0.5412
 8374SOL     OW31982   2.374  11.077   7.414  0.4938  0.3300  0.5443
 8374SOL    HW131983   2.433  11.077   7.339  0.2476  2.9034  0.2809
 8374SOL    HW231984   2.343  11.167   7.421  0.0320  0.0442  3.3801
 8375SOL     OW31985   4.845  11.639   3.190 -0.1943 -0.5438  0.2077
 8375SOL    HW131986   4.892  11.716   3.159  2.6524 -2.5717 -1.0369
 8375SOL    HW231987   4.787  11.614   3.118 -0.6677  0.0678  0.3740
 8376SOL     OW31988   1.895   9.070   7.582 -0.4831 -0.3608  0.0698
 8376SOL    HW131989   1.900   9.052   7.489  0.6819 -0.7154  0.1872
 8376SOL    HW231990   1.808   9.110   7.594 -1.0872 -1.3131 -0.9697
 8377SOL     OW31991   4.818   0.065   3.156 -0.2868  0.1336 -0.0448
 8377SOL    HW131992   4.772   0.112   3.225 -0.5766 -1.7227  1.0946
 8377SOL    HW231993   4.748   0.023   3.106 -0.0071  0.4236 -0.6830
 8378SOL     OW31994   6.814   1.185   5.808 -0.1211 -0.0519 -0.7217
 8378SOL    HW131995   6.825   1.231   5.726  1.4382  0.2965 -0.3379
 8378SOL    HW231996   6.849   1.244   5.875 -2.4420  0.1989  0.3963
 8379SOL     OW31997  11.613  11.911   6.272  0.1817 -0.0542 -0.2566
 8379SOL    HW131998  11.591  12.001   6.296 -0.2062  0.1475 -1.2940
 8379SOL    HW231999  11.613  11.912   6.176 -0.2537 -1.2599 -0.2784
 8380SOL     OW32000  11.312  12.149   3.046  0.9159 -0.1493  0.3664
 8380SOL    HW132001  11.319  12.227   3.100  1.3461 -1.1505  1.7979
 8380SOL    HW232002  11.273  12.083   3.103  2.5384 -1.6008 -0.1110
 8381SOL     OW32003  12.427   0.437  11.467 -0.1860  0.2725  0.1329
 8381SOL    HW132004  12.509   0.453  11.514 -0.5451  0.2029  0.7964
 8381SOL    HW232005  12.366   0.407  11.535 -1.3542  2.2729  0.0298
 8382SOL     OW32006  10.985   5.431  12.456  0.2420 -0.0135  0.0898
 8382SOL    HW132007  10.941   5.487  12.520  0.3096 -1.2989  1.3252
 8382SOL    HW232008  10.915   5.377  12.419  0.4212 -0.3503  0.2350
 8383SOL     OW32009   4.512   6.783   5.208  0.5894 -0.3350  0.5291
 8383SOL    HW132010   4.483   6.692   5.215  0.4581 -0.3457 -0.0574
 8383SOL    HW232011   4.548   6.804   5.294  0.1367 -0.7728  0.8302
 8384SOL     OW32012   5.071   2.391   2.548 -0.1415  0.0634  0.4299
 8384SOL    HW132013   4.988   2.364   2.587 -0.0596 -1.3952 -0.3647
 8384SOL    HW232014   5.138   2.362   2.610 -0.0548 -1.6364 -0.4103
 8385SOL     OW32015  11.993  11.666   1.841 -0.3009  0.0137  0.9927
 8385SOL    HW132016  12.056  11.737   1.832  1.7213 -1.7448  0.1677
 8385SOL    HW232017  11.914  11.707   1.876 -1.1213  3.6600 -4.0154
 8386SOL     OW32018   7.513   1.595   8.576  0.1066  0.2258 -0.0587
 8386SOL    HW132019   7.554   1.592   8.663 -0.8263 -0.6369  0.3731
 8386SOL    HW232020   7.563   1.661   8.528  2.4366 -1.2200  0.2079
 8387SOL     OW32021   6.838   2.128   0.483  0.1281 -0.4888 -0.4422
 8387SOL    HW132022   6.858   2.212   0.523 -1.6746  0.1323 -0.7661
 8387SOL    HW232023   6.799   2.076   0.553 -1.0805 -0.1448 -0.8411
 8388SOL     OW32024   0.187   1.673  11.269  0.6818  0.4402  0.4914
 8388SOL    HW132025   0.263   1.631  11.310  1.5624  0.6888 -0.8059
 8388SOL    HW232026   0.223   1.751  11.227 -0.5643  1.3656  1.0646
 8389SOL     OW32027   4.132   4.631   0.606 -0.1431  0.1836  0.1874
 8389SOL    HW132028   4.134   4.723   0.632  2.7283  0.1718  0.3353
 8389SOL    HW232029   4.158   4.583   0.685  1.1214 -0.4902 -0.5956
 8390SOL     OW32030   9.413   5.468  11.800 -0.2046  0.2031  0.4118
 8390SOL    HW132031   9.365   5.446  11.879  1.5369 -0.9288  1.2121
 8390SOL    HW232032   9.478   5.399  11.791  0.6034  1.1072 -1.1901
 8391SOL     OW32033   2.872   5.402   3.343 -0.3238  0.0006  0.3893
 8391SOL    HW132034   2.949   5.440   3.301 -0.9618  1.5266  0.5306
 8391SOL    HW232035   2.799   5.457   3.315 -1.5732 -1.9890 -0.5379
 8392SOL     OW32036   1.526   7.171   2.248  0.1215 -0.3554  0.3042
 8392SOL    HW132037   1.620   7.156   2.261  0.2916  0.8510  0.5721
 8392SOL    HW232038   1.496   7.094   2.199  1.0730 -1.1673  0.9508
 8393SOL     OW32039   7.450   6.788   7.278  0.3634 -0.1850 -0.6348
 8393SOL    HW132040   7.383   6.840   7.321 -0.9035 -2.5902  0.5254
 8393SOL    HW232041   7.533   6.825   7.309 -0.4805  0.8398  0.4738
 8394SOL     OW32042   4.951   5.771   7.001 -0.2580  0.1807  0.7053
 8394SOL    HW132043   4.988   5.682   7.004  0.1103  0.3250  0.4422
 8394SOL    HW232044   5.011   5.824   7.054 -0.4808  0.2719  0.8657
 8395SOL     OW32045   8.185   1.812  10.621 -0.5013 -0.1046  0.2616
 8395SOL    HW132046   8.183   1.905  10.642  0.2989  0.0478 -0.2958
 8395SOL    HW232047   8.248   1.775  10.683 -0.1989 -0.1245 -0.0520
 8396SOL     OW32048   4.384   7.519  10.686 -0.4089  0.2191  0.5245
 8396SOL    HW132049   4.443   7.444  10.700 -0.2495  0.8318  3.6616
 8396SOL    HW232050   4.442   7.588  10.652 -0.0188 -0.2294  0.2540
 8397SOL     OW32051  12.233   7.522   9.309 -0.4448 -0.5327 -0.1257
 8397SOL    HW132052  12.267   7.532   9.398 -0.4055  0.2785 -0.2199
 8397SOL    HW232053  12.239   7.428   9.291 -1.4781 -0.8712  1.1277
 8398SOL     OW32054   0.616  11.224   4.002  0.4437  0.2116  0.2972
 8398SOL    HW132055   0.529  11.188   3.985  0.8075 -0.2362 -0.7264
 8398SOL    HW232056   0.613  11.251   4.094 -0.7498  0.1517  0.2995
 8399SOL     OW32057   8.902   1.034   9.747 -0.1497  0.4503 -0.2836
 8399SOL    HW132058   8.988   1.014   9.783 -0.2803 -0.2859 -0.3697
 8399SOL    HW232059   8.840   0.999   9.811 -0.3824 -0.4409 -0.9674
 8400SOL     OW32060  11.975  10.267   8.740  0.4055 -0.4516 -0.2896
 8400SOL    HW132061  12.047  10.268   8.803 -0.2740  1.2104  0.5188
 8400SOL    HW232062  11.896  10.271   8.794 -0.2360 -0.5024 -1.2046
 8401SOL     OW32063   0.824   1.852  11.986 -0.3815  0.1689  0.3457
 8401SOL    HW132064   0.816   1.757  11.994 -1.0050  0.3300  2.0293
 8401SOL    HW232065   0.878   1.878  12.061  1.8092  0.9418 -1.3965
 8402SOL     OW32066  10.464   3.719  11.860  0.2233 -0.2515  0.4939
 8402SOL    HW132067  10.411   3.681  11.790 -1.1587 -1.2659  2.0080
 8402SOL    HW232068  10.483   3.645  11.918 -0.1900  0.8260  2.0872
 8403SOL     OW32069   8.961   7.886   6.594  0.8436  0.5049  0.3975
 8403SOL    HW132070   8.904   7.835   6.651 -1.2109  0.0360 -1.9104
 8403SOL    HW232071   8.969   7.971   6.637 -0.5574  0.1503  1.4173
 8404SOL     OW32072   4.348   0.356   3.347 -0.4758 -0.1707  0.2021
 8404SOL    HW132073   4.369   0.450   3.341 -0.2663 -0.1333  1.3454
 8404SOL    HW232074   4.267   0.354   3.399 -0.3457 -0.6386  0.3851
 8405SOL     OW32075   0.663   8.169   1.040 -0.0936 -0.0527  0.2829
 8405SOL    HW132076   0.623   8.197   0.958  3.1721  2.1608 -0.7439
 8405SOL    HW232077   0.649   8.074   1.042 -1.3177  0.0012 -2.2134
 8406SOL     OW32078   7.083   6.326   3.512 -0.5842 -0.4123 -0.1534
 8406SOL    HW132079   7.112   6.249   3.561  1.7646  0.1586 -0.5197
 8406SOL    HW232080   7.141   6.396   3.542 -1.3403  0.7316 -1.2919
 8407SOL     OW32081   0.295   9.331   9.713  0.0126 -0.0501  0.0757
 8407SOL    HW132082   0.223   9.387   9.685 -1.2086 -0.8465  1.4754
 8407SOL    HW232083   0.319   9.283   9.634 -1.0311  0.1893 -0.4158
 8408SOL     OW32084  12.392  11.984  11.412 -0.3912  0.1806 -0.2601
 8408SOL    HW132085  12.304  11.949  11.426 -0.9440  1.4232 -0.4907
 8408SOL    HW232086  12.418  11.952  11.326  0.7824 -2.9342  1.0820
 8409SOL     OW32087   7.760   9.263   9.059 -0.5758 -0.0468  0.3959
 8409SOL    HW132088   7.679   9.313   9.067 -1.1266 -0.6099 -1.2599
 8409SOL    HW232089   7.785   9.243   9.149 -2.0629  0.4710  0.9505
 8410SOL     OW32090  10.360   7.965   6.388  0.3293  0.1834 -0.2353
 8410SOL    HW132091  10.278   8.015   6.387  0.2084  0.0032 -1.3381
 8410SOL    HW232092  10.424   8.023   6.346  0.7642  0.2986  0.5643
 8411SOL     OW32093   8.113   8.976   2.218  0.0782  0.2814  0.2304
 8411SOL    HW132094   8.026   8.973   2.178  0.3052  0.8769 -0.3399
 8411SOL    HW232095   8.131   9.070   2.228  0.7737  0.1724  0.0661
 8412SOL     OW32096   6.886   7.599   8.342  0.4066  0.0703  0.4039
 8412SOL    HW132097   6.971   7.596   8.387  0.6627 -0.5160 -0.1034
 8412SOL    HW232098   6.909   7.597   8.249 -0.1693 -0.0895  0.2643
 8413SOL     OW32099   3.793   5.438   8.254  0.2621  0.6113  0.7430
 8413SOL    HW132100   3.871   5.393   8.288  0.7099  1.2838  0.6388
 8413SOL    HW232101   3.824   5.482   8.175 -0.8855 -1.3400 -0.8837
 8414SOL     OW32102   5.011  10.944  10.469 -0.0942  0.2807 -0.3770
 8414SOL    HW132103   4.982  10.970  10.382  1.4731  0.9242 -0.7340
 8414SOL    HW232104   5.027  11.026  10.515  4.3504  0.1486 -1.3193
 8415SOL     OW32105   1.969  10.556  10.092 -0.2645  0.4072 -0.4721
 8415SOL    HW132106   1.917  10.572  10.171  0.3861  1.5465 -0.2474
 8415SOL    HW232107   1.945  10.468  10.064 -0.6761  0.0807  0.8680
 8416SOL     OW32108   5.592  11.506   2.396 -0.7043  0.0369 -0.4046
 8416SOL    HW132109   5.539  11.569   2.445  0.1159  0.4336 -0.0235
 8416SOL    HW232110   5.559  11.420   2.425 -0.2949  0.2605  0.7803
 8417SOL     OW32111  10.179   3.712   7.495 -0.0133  0.6758 -0.2142
 8417SOL    HW132112  10.139   3.650   7.555 -2.8500  1.1395 -1.4824
 8417SOL    HW232113  10.186   3.666   7.412  0.4598  1.1879 -0.4716
 8418SOL     OW32114  10.423  11.124   9.950 -0.0095  0.0860 -0.0057
 8418SOL    HW132115  10.446  11.160  10.036  0.4447  1.8113 -0.7909
 8418SOL    HW232116  10.372  11.194   9.909 -2.8387 -1.8707 -0.0501
 8419SOL     OW32117   6.051   5.897   0.117 -0.6281  0.0481  0.3348
 8419SOL    HW132118   6.069   5.810   0.153  1.2468  1.2266  2.5195
 8419SOL    HW232119   6.102   5.900   0.035  1.4923 -0.0610  1.5767
 8420SOL     OW32120   0.007   6.511  11.013 -0.1350 -0.1617  0.3810
 8420SOL    HW132121   0.103   6.514  11.017 -0.0452 -1.3621 -0.4328
 8420SOL    HW232122  -0.020   6.603  11.007  0.9614  0.1840  0.5865
 8421SOL     OW32123  11.875   4.951   7.634 -0.7114 -0.1628  0.2034
 8421SOL    HW132124  11.830   4.918   7.556 -0.1639  0.4589 -0.3796
 8421SOL    HW232125  11.958   4.985   7.602  0.3318 -1.5439  1.3066
 8422SOL     OW32126   6.162   4.015  11.123  0.4118  0.0852  0.0290
 8422SOL    HW132127   6.101   4.058  11.183  2.1502 -0.2512  2.1694
 8422SOL    HW232128   6.106   3.973  11.058 -1.5224  1.5574  0.6411
 8423SOL     OW32129   7.312   0.747   6.081  0.4389 -0.4570 -0.0524
 8423SOL    HW132130   7.227   0.791   6.079  0.1766 -0.9665 -0.1784
 8423SOL    HW232131   7.357   0.779   6.003  0.3356 -0.2438 -0.0256
 8424SOL     OW32132   0.581   5.175  12.231  0.5170  1.0578 -0.1204
 8424SOL    HW132133   0.574   5.107  12.298  1.6761  1.7496  0.7314
 8424SOL    HW232134   0.519   5.148  12.163 -1.5358  0.8912  1.6855
 8425SOL     OW32135   9.360   6.895   5.299 -0.4045 -0.2708 -0.8933
 8425SOL    HW132136   9.361   6.924   5.391  1.2717 -0.0734 -0.9443
 8425SOL    HW232137   9.332   6.971   5.250 -2.7670 -0.7838 -0.4653
 8426SOL     OW32138  10.909   5.590   0.214  0.7673  0.6243  0.5598
 8426SOL    HW132139  10.972   5.552   0.275  0.2008 -0.6296  0.3906
 8426SOL    HW232140  10.828   5.596   0.265 -0.3449 -2.4926 -0.5772
 8427SOL     OW32141   3.732   6.395   8.955  0.1273 -0.3014  0.1528
 8427SOL    HW132142   3.709   6.304   8.973 -1.2797 -0.6055 -2.6297
 8427SOL    HW232143   3.825   6.392   8.934  0.3364 -0.8921  1.0675
 8428SOL     OW32144  11.131  10.426   8.318 -0.4692  0.0550  0.6126
 8428SOL    HW132145  11.086  10.492   8.266 -0.0691 -0.9621 -1.0680
 8428SOL    HW232146  11.102  10.342   8.282  1.8376 -0.6383  0.2261
 8429SOL     OW32147   8.574   9.725   4.343  0.0281 -0.1590 -0.3325
 8429SOL    HW132148   8.583   9.674   4.262 -1.8368 -0.5157 -0.3692
 8429SOL    HW232149   8.480   9.722   4.362  0.0530  2.1338  0.4143
 8430SOL     OW32150   4.603   1.626   7.453 -0.8407 -0.4059 -0.5500
 8430SOL    HW132151   4.658   1.676   7.392 -1.0878 -0.1624 -0.5758
 8430SOL    HW232152   4.513   1.653   7.432 -0.9201 -0.2195  0.0098
 8431SOL     OW32153   0.552   2.730   2.066 -0.9732  0.3995 -0.5157
 8431SOL    HW132154   0.503   2.730   1.984 -0.0572  1.9538 -1.1105
 8431SOL    HW232155   0.561   2.637   2.089 -0.1520 -0.1787 -2.8714
 8432SOL     OW32156   2.752   5.090   6.614 -0.5611 -0.0963 -0.1387
 8432SOL    HW132157   2.682   5.040   6.573 -0.1668 -0.5810 -0.2223
 8432SOL    HW232158   2.711   5.173   6.639 -0.6808  0.4461 -2.0024
 8433SOL     OW32159   9.957   5.211   9.933 -0.4175 -0.3199  0.6934
 8433SOL    HW132160  10.021   5.265   9.888 -2.7830  3.4717  1.4771
 8433SOL    HW232161   9.957   5.128   9.885  2.1672  0.9407 -1.7220
 8434SOL     OW32162   7.431   0.460   7.064  0.1351 -0.0110  0.0601
 8434SOL    HW132163   7.510   0.501   7.098  0.8398 -0.7905 -0.6022
 8434SOL    HW232164   7.395   0.525   7.003  0.5699  0.1331 -0.0506
 8435SOL     OW32165   6.852   1.890   1.580 -0.2219 -0.3059  0.3802
 8435SOL    HW132166   6.831   1.906   1.488 -0.6593  0.3480  0.5873
 8435SOL    HW232167   6.775   1.845   1.615  0.8038 -2.5329 -0.0778
 8436SOL     OW32168  10.217   8.057   9.815  0.0621  0.0326 -0.3746
 8436SOL    HW132169  10.287   8.093   9.869 -0.4589  0.3421  0.0933
 8436SOL    HW232170  10.263   8.015   9.742  0.7592 -0.2190  0.1981
 8437SOL     OW32171   3.472   8.981   7.452  0.4804 -0.4426  0.0699
 8437SOL    HW132172   3.377   8.974   7.439  0.5686 -1.9307  0.0148
 8437SOL    HW232173   3.492   9.072   7.433 -1.4772  0.9682  3.7012
 8438SOL     OW32174   4.691   0.582   2.352  0.2741  0.2426  0.1778
 8438SOL    HW132175   4.720   0.598   2.262  0.8379 -2.4273 -0.2099
 8438SOL    HW232176   4.675   0.669   2.388  2.0808  1.5038 -1.8238
 8439SOL     OW32177   6.180   4.667   8.732  0.3447  0.5441  0.4554
 8439SOL    HW132178   6.261   4.693   8.775  0.3481  1.2556  0.0400
 8439SOL    HW232179   6.209   4.623   8.652  0.3221  1.1392  0.1170
 8440SOL     OW32180  11.483   8.999   1.033  0.1548  0.2489 -0.2862
 8440SOL    HW132181  11.573   9.030   1.024  0.1458  1.2128  2.1903
 8440SOL    HW232182  11.491   8.905   1.045  0.9091  0.4296  0.6929
 8441SOL     OW32183  11.073   7.677   8.621 -0.0344 -0.6040 -0.3898
 8441SOL    HW132184  11.123   7.607   8.664 -0.7080 -1.4885 -1.0252
 8441SOL    HW232185  11.048   7.641   8.536  1.7719  1.3208 -1.8424
 8442SOL     OW32186   6.359   4.325   9.408  0.8885 -0.1560 -0.1700
 8442SOL    HW132187   6.266   4.347   9.409  1.1035  0.7937 -0.3183
 8442SOL    HW232188   6.368   4.259   9.478  0.3369  0.7471  0.7810
 8443SOL     OW32189   9.197   4.172   6.962  0.3316  0.3257  0.0678
 8443SOL    HW132190   9.135   4.241   6.986  0.9042  0.5656  0.8870
 8443SOL    HW232191   9.283   4.213   6.967  0.5876 -0.1095 -0.6889
 8444SOL     OW32192   6.790  11.262  11.683 -0.3432  0.5564 -0.4530
 8444SOL    HW132193   6.813  11.170  11.673  0.6204  0.2754  2.9025
 8444SOL    HW232194   6.824  11.285  11.770 -1.3488  3.8402 -0.8067
 8445SOL     OW32195   1.414  12.381  10.221  0.1778 -0.0815 -0.2907
 8445SOL    HW132196   1.462  12.300  10.206  0.4012  0.1491 -0.8461
 8445SOL    HW232197   1.326  12.353  10.246 -0.0750 -0.5023 -1.5767
 8446SOL     OW32198   8.889   2.522   0.609 -0.3668 -0.7235 -0.4374
 8446SOL    HW132199   8.925   2.585   0.546 -0.3661 -1.7886 -1.5275
 8446SOL    HW232200   8.877   2.442   0.559  1.3009 -2.1670  1.3596
 8447SOL     OW32201   5.550   1.261   9.301 -0.2542 -0.0388 -0.0944
 8447SOL    HW132202   5.516   1.180   9.264  1.0146 -1.1523  1.0255
 8447SOL    HW232203   5.581   1.311   9.226 -0.0760 -1.0867 -0.7384
 8448SOL     OW32204   5.829   9.213   6.542 -0.1307 -0.9006 -0.0391
 8448SOL    HW132205   5.874   9.283   6.589 -1.1304 -0.7623  0.7416
 8448SOL    HW232206   5.853   9.226   6.450  2.0963 -1.3328  0.4039
 8449SOL     OW32207   5.542  11.312   9.420 -0.2618 -0.6173 -0.2335
 8449SOL    HW132208   5.564  11.369   9.346 -0.8995  2.1348  1.5705
 8449SOL    HW232209   5.460  11.348   9.455 -1.8864 -3.9555 -0.1991
 8450SOL     OW32210   9.651   4.193  11.324 -0.1664 -0.3772  0.2355
 8450SOL    HW132211   9.663   4.278  11.367  1.1376  0.0894 -0.9870
 8450SOL    HW232212   9.724   4.186  11.262 -0.6020 -2.1166 -0.1462
 8451SOL     OW32213  10.608  10.432   4.907 -0.1213 -0.0484  0.0320
 8451SOL    HW132214  10.560  10.369   4.961 -1.5555  0.1926 -0.8936
 8451SOL    HW232215  10.573  10.419   4.818  1.4628  0.2452 -0.6723
 8452SOL     OW32216   8.916  10.192  11.519  0.6763 -0.3263  0.4261
 8452SOL    HW132217   8.941  10.113  11.471  1.6969 -0.2198  0.7721
 8452SOL    HW232218   8.830  10.214  11.483  0.6091 -1.2850 -0.0546
 8453SOL     OW32219   0.330   8.742  10.821  0.3420 -0.1182  0.0454
 8453SOL    HW132220   0.410   8.739  10.767  0.2833  0.0807 -0.0530
 8453SOL    HW232221   0.362   8.765  10.908  0.4203 -0.2894  0.0633
 8454SOL     OW32222   9.921   7.352   2.898  0.3646 -0.7491  0.1685
 8454SOL    HW132223   9.891   7.433   2.939 -0.7362 -0.3695 -1.3028
 8454SOL    HW232224   9.949   7.296   2.971  1.6573  1.1240  1.1799
 8455SOL     OW32225   6.489   8.328   5.775 -0.0909  0.0335  0.0417
 8455SOL    HW132226   6.444   8.276   5.841  0.3557 -0.3938  0.0152
 8455SOL    HW232227   6.577   8.291   5.771 -0.2741 -0.3104 -1.1882
 8456SOL     OW32228   5.990   6.764   4.006  0.1943 -0.1736  0.2189
 8456SOL    HW132229   5.911   6.807   4.039 -0.6947 -2.6459  1.6044
 8456SOL    HW232230   5.961   6.677   3.979  2.3753 -1.0551  0.4709
 8457SOL     OW32231   2.908  11.691   3.592 -0.5274  0.2998 -0.2377
 8457SOL    HW132232   2.988  11.655   3.555 -1.2478 -1.2100 -0.4021
 8457SOL    HW232233   2.933  11.777   3.627  1.4661 -0.6931  0.9232
 8458SOL     OW32234  10.369  10.693  10.689 -0.5307  0.3894 -0.2806
 8458SOL    HW132235  10.335  10.775  10.724 -0.7180 -0.4447  1.5847
 8458SOL    HW232236  10.292  10.648  10.655 -0.6448  0.3860 -0.0210
 8459SOL     OW32237   5.993   3.306   5.971  0.0554 -0.3388 -0.3963
 8459SOL    HW132238   6.050   3.235   5.943 -0.0864  0.1814 -2.1676
 8459SOL    HW232239   5.910   3.263   5.994 -0.3429 -0.7197 -2.3465
 8460SOL     OW32240   9.078   6.053   0.922  0.1624 -0.0503  0.2146
 8460SOL    HW132241   9.064   6.130   0.977  0.6818 -0.2390  0.6127
 8460SOL    HW232242   9.017   5.988   0.954 -0.4772  0.2827 -0.3047
 8461SOL     OW32243   0.673   2.258   2.536  1.0244  0.5690 -0.2975
 8461SOL    HW132244   0.618   2.195   2.583  2.1646  1.1639  2.0080
 8461SOL    HW232245   0.650   2.246   2.444 -1.7552 -0.2995  0.4132
 8462SOL     OW32246   2.416   7.476   0.509 -0.6555 -0.5627 -0.4973
 8462SOL    HW132247   2.412   7.529   0.430 -0.9580  0.9862  0.5234
 8462SOL    HW232248   2.388   7.534   0.579  1.5280 -1.2680  1.0644
 8463SOL     OW32249   3.597   4.911   5.293 -0.2470  0.1882 -0.1190
 8463SOL    HW132250   3.550   4.987   5.260 -1.4112 -0.6748 -0.5099
 8463SOL    HW232251   3.612   4.930   5.386 -3.3076 -0.3931  0.5932
 8464SOL     OW32252   2.192   8.664  10.062  0.8602  0.9344  0.0490
 8464SOL    HW132253   2.176   8.662  10.156 -0.2324 -0.5639 -0.1443
 8464SOL    HW232254   2.135   8.733  10.029 -0.3033  0.0838  0.2387
 8465SOL     OW32255   8.884   6.188  11.849  0.8125 -0.0597 -0.0692
 8465SOL    HW132256   8.893   6.193  11.754  0.9609  0.7068 -0.0229
 8465SOL    HW232257   8.910   6.098  11.871  1.8815  0.0907 -0.6449
 8466SOL     OW32258   7.783   7.573   5.495  0.7691  0.1549  0.1290
 8466SOL    HW132259   7.823   7.520   5.564 -2.0021 -2.1974  0.1111
 8466SOL    HW232260   7.712   7.620   5.538  1.1962  1.4354 -0.5105
 8467SOL     OW32261   9.498   1.172   2.538 -0.1363 -0.2820  0.5341
 8467SOL    HW132262   9.492   1.206   2.628 -1.7053 -0.1487  0.3960
 8467SOL    HW232263   9.424   1.113   2.529 -0.9748  0.9342 -1.1764
 8468SOL     OW32264   7.517   2.223  11.754  0.2774 -0.4638  0.1867
 8468SOL    HW132265   7.554   2.302  11.793 -0.6997  0.1936 -0.1722
 8468SOL    HW232266   7.578   2.154  11.777  2.4647  0.7531 -1.4930
 8469SOL     OW32267  12.244   6.844  10.797 -0.2698  0.1499  0.6263
 8469SOL    HW132268  12.247   6.923  10.851 -1.8671  0.7105 -0.0555
 8469SOL    HW232269  12.200   6.779  10.852  1.5099 -0.4865  1.3886
 8470SOL     OW32270   4.873  11.694   4.151  0.1610 -0.7287 -0.2383
 8470SOL    HW132271   4.897  11.727   4.065  0.6180 -1.7840 -0.5339
 8470SOL    HW232272   4.957  11.671   4.192 -0.0027  0.2713  0.7136
 8471SOL     OW32273   3.730   0.186   3.344  0.1108  0.1236  0.6630
 8471SOL    HW132274   3.718   0.122   3.414  0.1190  1.1990  1.6592
 8471SOL    HW232275   3.816   0.224   3.361  1.2742 -1.3506 -1.3992
 8472SOL     OW32276   0.282   9.337   3.357 -0.3374 -0.7190 -0.4528
 8472SOL    HW132277   0.244   9.344   3.445 -2.8764 -0.3308 -1.4969
 8472SOL    HW232278   0.231   9.268   3.314 -0.0426  0.0054 -2.0285
 8473SOL     OW32279   6.157   0.798   9.934  0.6652 -0.0098 -0.1174
 8473SOL    HW132280   6.233   0.846   9.902  0.3910  1.5689  1.4573
 8473SOL    HW232281   6.102   0.864   9.975 -1.2989 -1.2076 -0.6951
 8474SOL     OW32282   3.389   8.575   5.291  0.4359 -0.0469  0.1732
 8474SOL    HW132283   3.481   8.562   5.268  0.1459 -0.2332 -0.9658
 8474SOL    HW232284   3.388   8.651   5.349  1.1027  1.3974 -1.6215
 8475SOL     OW32285  10.159  10.021   4.094 -0.5823 -0.1124  0.0679
 8475SOL    HW132286  10.178   9.974   4.013 -0.0834 -0.9723  0.6709
 8475SOL    HW232287  10.184  10.112   4.076 -0.1966 -0.3522 -0.6402
 8476SOL     OW32288  10.727   9.297   5.410  0.2743 -0.0761  0.1121
 8476SOL    HW132289  10.781   9.303   5.331 -1.5712  1.7022 -1.0932
 8476SOL    HW232290  10.649   9.249   5.382  0.4390 -1.1455  1.3977
 8477SOL     OW32291   0.448  10.701   6.227  0.0582  0.5247  0.4316
 8477SOL    HW132292   0.502  10.706   6.148 -1.0548 -0.0576 -0.3886
 8477SOL    HW232293   0.508  10.667   6.294  0.9673  0.8415 -0.1951
 8478SOL     OW32294   4.834   0.260   2.598  0.0371 -0.4763  0.0652
 8478SOL    HW132295   4.740   0.250   2.617  0.3148  0.9887  2.7491
 8478SOL    HW232296   4.874   0.180   2.629 -0.1486 -0.3710  0.5859
 8479SOL     OW32297   0.025   2.903   6.187 -0.1165 -0.3543 -0.7304
 8479SOL    HW132298  -0.015   2.824   6.149 -2.1614 -0.1207  0.7958
 8479SOL    HW232299  -0.018   2.976   6.142 -1.0475 -0.1047  0.5077
 8480SOL     OW32300   2.315   2.743   4.474  0.5875  0.6391  0.5883
 8480SOL    HW132301   2.372   2.784   4.539  2.2350 -0.2410 -0.2297
 8480SOL    HW232302   2.357   2.765   4.390 -1.2109  1.3414 -0.1695
 8481SOL     OW32303   5.053   9.223   4.128 -0.2899  0.4868 -0.0838
 8481SOL    HW132304   5.107   9.165   4.074  1.2205  1.3265  0.4534
 8481SOL    HW232305   4.965   9.186   4.122  0.1212 -0.3127 -1.8683
 8482SOL     OW32306   2.040  12.252  10.698  0.0030 -0.3999  0.1460
 8482SOL    HW132307   1.947  12.254  10.678  0.5259  0.0516 -2.5657
 8482SOL    HW232308   2.053  12.326  10.757 -1.2022  0.0102 -0.0743
 8483SOL     OW32309   5.553   8.731   7.715 -0.2398  0.3712  0.2061
 8483SOL    HW132310   5.588   8.714   7.628 -2.9074  1.4867 -1.1840
 8483SOL    HW232311   5.556   8.646   7.759  0.6735 -0.3311 -1.1440
 8484SOL     OW32312   7.634  10.659   7.980 -0.3032 -0.0252  0.0323
 8484SOL    HW132313   7.676  10.588   8.029 -0.1263 -0.9761 -1.4302
 8484SOL    HW232314   7.562  10.688   8.036  0.4227 -0.4730  1.2242
 8485SOL     OW32315  11.120  12.057  12.071  0.0118 -0.8074  0.8193
 8485SOL    HW132316  11.119  11.996  12.145  0.9868 -0.2552  1.3025
 8485SOL    HW232317  11.196  12.113  12.087 -0.5146  0.1490  0.0626
 8486SOL     OW32318   0.313  10.163   1.718 -0.4543  0.1554  0.4393
 8486SOL    HW132319   0.381  10.223   1.688  1.0436 -1.2810  0.8079
 8486SOL    HW232320   0.314  10.170   1.813  0.8953 -1.5821  0.6034
 8487SOL     OW32321   5.226   1.536   1.429  0.2231 -0.0581 -0.0949
 8487SOL    HW132322   5.146   1.485   1.415 -0.6367  0.3365  2.7803
 8487SOL    HW232323   5.289   1.472   1.463  0.1444  0.1961  0.5356
 8488SOL     OW32324   7.997   4.324   5.386  0.2847  0.0309 -0.2306
 8488SOL    HW132325   7.905   4.346   5.370  0.4123 -0.2427 -1.4765
 8488SOL    HW232326   7.995   4.233   5.417  0.1202  0.0741 -0.1166
 8489SOL     OW32327   4.706  10.874   1.385  0.0276  0.4151  0.2337
 8489SOL    HW132328   4.746  10.812   1.445  0.2090 -1.9207 -2.1131
 8489SOL    HW232329   4.614  10.849   1.382  0.3405 -0.6961 -1.7035
 8490SOL     OW32330  10.593  10.492   1.811  0.7563 -0.3530 -0.5128
 8490SOL    HW132331  10.605  10.496   1.906  2.7550 -2.6010 -0.5811
 8490SOL    HW232332  10.610  10.582   1.781 -1.6195  0.8365  1.3308
 8491SOL     OW32333   0.121  10.788   5.438  0.3814 -0.0583 -0.0375
 8491SOL    HW132334   0.086  10.871   5.470  2.8149  0.5678  1.2635
 8491SOL    HW232335   0.148  10.807   5.348 -0.1168  0.2409 -0.1259
 8492SOL     OW32336   1.531  10.390   2.915  0.6456 -0.3361  0.2451
 8492SOL    HW132337   1.499  10.389   3.005  1.7006  0.1252  0.6481
 8492SOL    HW232338   1.615  10.437   2.921  0.7511 -0.3554 -0.9661
 8493SOL     OW32339   8.704   9.389   3.507 -1.0649 -0.2068 -0.4428
 8493SOL    HW132340   8.627   9.353   3.551 -0.6035 -0.8121 -0.1221
 8493SOL    HW232341   8.669   9.428   3.426 -1.7578 -0.1245 -0.1136
 8494SOL     OW32342   4.819   1.020   0.783 -0.0782  0.2007  0.1777
 8494SOL    HW132343   4.787   1.109   0.794  0.9229  0.4351  1.5407
 8494SOL    HW232344   4.912   1.031   0.763 -0.1615 -0.5256 -0.6662
 8495SOL     OW32345   8.054   7.411   5.103  0.1474 -0.2117 -0.2807
 8495SOL    HW132346   7.972   7.449   5.136  0.8844 -0.5574  2.1863
 8495SOL    HW232347   8.098   7.484   5.060 -0.5419  0.5324  0.2263
 8496SOL     OW32348   9.046   4.872  11.295  0.4690 -1.0279  0.2495
 8496SOL    HW132349   9.134   4.836  11.285  0.5155 -0.4256 -1.8748
 8496SOL    HW232350   9.057   4.944  11.358  1.8688  0.1769 -1.2903
 8497SOL     OW32351   3.203   4.464  11.858 -0.5518  0.5289 -0.2415
 8497SOL    HW132352   3.109   4.449  11.869 -0.2594 -0.0077  1.9160
 8497SOL    HW232353   3.230   4.403  11.790 -1.3662 -0.9788  0.7458
 8498SOL     OW32354   4.515   1.354   1.282 -0.0172 -0.4801 -0.1102
 8498SOL    HW132355   4.566   1.431   1.306 -1.4710  0.6553 -0.5092
 8498SOL    HW232356   4.424   1.386   1.277 -0.3712 -1.6662 -2.5482
 8499SOL     OW32357   0.197   9.697   4.993 -0.2413 -0.4112 -0.0295
 8499SOL    HW132358   0.151   9.743   5.063 -0.4676  0.8510 -0.9729
 8499SOL    HW232359   0.281   9.673   5.032 -1.3335 -2.0471  1.4571
 8500SOL     OW32360   9.262   1.816  11.531  0.4195 -0.0852  0.4413
 8500SOL    HW132361   9.298   1.894  11.572  0.7455  0.7248 -1.2754
 8500SOL    HW232362   9.324   1.746  11.552  1.8242  0.8101 -0.5652
 8501SOL     OW32363   9.546   0.040   0.760 -0.2629  0.0947 -0.3432
 8501SOL    HW132364   9.491   0.018   0.835  1.4481  1.1237  1.3101
 8501SOL    HW232365   9.531   0.133   0.745 -1.4783 -0.3462 -2.1019
 8502SOL     OW32366   3.501   4.863   0.865 -0.1003 -0.0629 -0.2781
 8502SOL    HW132367   3.512   4.914   0.784 -0.4248  0.1839 -0.1736
 8502SOL    HW232368   3.472   4.928   0.929  0.5653 -0.1779  0.1468
 8503SOL     OW32369  10.513  11.825   2.398 -0.2181 -0.1586  0.0184
 8503SOL    HW132370  10.608  11.840   2.405 -0.1063 -0.8319  0.0787
 8503SOL    HW232371  10.474  11.912   2.407  0.3977  0.1363 -0.0818
 8504SOL     OW32372   2.741   7.388   1.760 -0.2617 -0.2104  0.0771
 8504SOL    HW132373   2.837   7.388   1.770 -0.2558  2.4032  0.7008
 8504SOL    HW232374   2.726   7.438   1.680 -1.1302 -1.9883 -0.9465
 8505SOL     OW32375   6.051   1.367   1.523 -0.8370 -0.0965 -0.3887
 8505SOL    HW132376   5.990   1.359   1.450 -0.4519 -2.3485 -0.5444
 8505SOL    HW232377   6.044   1.283   1.568  0.5923  0.4136  0.8363
 8506SOL     OW32378   5.246   9.791   1.399  0.3502  0.6782 -0.0130
 8506SOL    HW132379   5.317   9.745   1.442  0.2260 -1.3176 -1.7550
 8506SOL    HW232380   5.178   9.725   1.387 -0.5355  1.7322 -1.1241
 8507SOL     OW32381   1.543   0.987  10.767 -0.2184 -0.0322  0.4860
 8507SOL    HW132382   1.497   1.052  10.820  1.0540  1.0067  0.3647
 8507SOL    HW232383   1.636   1.009  10.777  0.0872 -0.1117 -1.7966
 8508SOL     OW32384   5.371  11.891   3.709 -0.1471 -0.0462 -0.4685
 8508SOL    HW132385   5.349  11.968   3.657  1.5966  0.2829 -0.7861
 8508SOL    HW232386   5.352  11.917   3.799 -0.3080  0.4727 -0.6498
 8509SOL     OW32387   9.955   5.658   5.692 -0.0845  0.1401 -0.1357
 8509SOL    HW132388   9.904   5.600   5.636  0.4498 -0.1780 -0.2948
 8509SOL    HW232389   9.943   5.745   5.654  0.3393 -0.0850 -0.7970
 8510SOL     OW32390   5.649   7.779   0.806 -0.2505 -0.2188  0.0859
 8510SOL    HW132391   5.595   7.808   0.880 -0.6459 -0.6551 -0.0208
 8510SOL    HW232392   5.588   7.729   0.751 -0.1701  0.8401 -0.9861
 8511SOL     OW32393   5.724   6.601   6.289  0.2536 -0.6334  0.6034
 8511SOL    HW132394   5.760   6.662   6.354  0.2883 -1.1637  1.0976
 8511SOL    HW232395   5.634   6.588   6.317 -0.4938  0.9888 -0.8514
 8512SOL     OW32396   5.666  10.103   7.434 -0.3304  0.4655 -0.1174
 8512SOL    HW132397   5.736  10.129   7.494 -0.3270 -0.4701  0.2998
 8512SOL    HW232398   5.591  10.157   7.460 -0.8914 -1.1572  1.9886
 8513SOL     OW32399   5.178   6.147   9.385 -0.1209  0.0368  0.3775
 8513SOL    HW132400   5.133   6.064   9.372 -0.0073  0.1060 -0.5513
 8513SOL    HW232401   5.116   6.201   9.435  0.3860 -1.0882  2.3252
 8514SOL     OW32402  11.715  11.184   4.858  0.2289 -0.0774 -0.1618
 8514SOL    HW132403  11.632  11.136   4.857  0.6597 -0.8180 -1.4204
 8514SOL    HW232404  11.765  11.149   4.785  1.2282  1.1371 -0.1011
 8515SOL     OW32405   6.020  10.962   4.947 -0.0231  0.6895  0.6800
 8515SOL    HW132406   6.068  10.885   4.979  0.0233  0.3986 -0.0696
 8515SOL    HW232407   5.930  10.930   4.933  0.1947  0.5348 -0.4543
 8516SOL     OW32408   2.126   4.401   3.300 -0.3497  0.0239 -0.5708
 8516SOL    HW132409   2.171   4.351   3.232 -0.1470  0.3555 -0.6872
 8516SOL    HW232410   2.093   4.479   3.254 -0.0811  0.3254 -0.2620
 8517SOL     OW32411   4.537   1.394   7.806 -0.1516  0.3024  0.4869
 8517SOL    HW132412   4.522   1.311   7.761 -1.0886  0.2485  0.8903
 8517SOL    HW232413   4.454   1.415   7.847  0.4819  0.6911  1.6328
 8518SOL     OW32414   8.631   3.718   6.645 -0.6816 -0.0910  0.2613
 8518SOL    HW132415   8.711   3.683   6.605 -1.5430 -2.2992  0.3016
 8518SOL    HW232416   8.578   3.745   6.570 -0.0364  1.1630  0.2252
 8519SOL     OW32417   9.284   3.344   2.154 -0.1445  0.4078  0.0656
 8519SOL    HW132418   9.319   3.255   2.154 -0.9429  0.0318 -2.1323
 8519SOL    HW232419   9.194   3.334   2.185  0.1336  0.6235  0.9379
 8520SOL     OW32420   8.717   8.377  12.182 -0.1613  0.1182  0.3272
 8520SOL    HW132421   8.661   8.299  12.177 -0.6617  0.5616 -2.6657
 8520SOL    HW232422   8.785   8.361  12.117  1.1259  1.1934  1.3613
 8521SOL     OW32423   3.848   1.593   1.651 -0.3765  0.2759  0.1895
 8521SOL    HW132424   3.791   1.551   1.586 -1.8552  0.7661  1.1177
 8521SOL    HW232425   3.929   1.610   1.604 -1.1746  0.0104 -1.3502
 8522SOL     OW32426   2.641   9.664   7.732 -0.2135 -0.0916  0.0564
 8522SOL    HW132427   2.736   9.659   7.720  0.0482  1.4128  1.3003
 8522SOL    HW232428   2.619   9.582   7.776  0.3650 -0.8261 -0.9748
 8523SOL     OW32429   7.739   2.243   5.222  0.3312 -0.5398  0.0689
 8523SOL    HW132430   7.702   2.188   5.152 -0.8212  0.0745  0.1675
 8523SOL    HW232431   7.663   2.268   5.275  1.1312 -0.6383  1.2987
 8524SOL     OW32432   9.038   3.209   4.706 -0.3332 -0.7844  0.0335
 8524SOL    HW132433   9.100   3.197   4.634 -0.3292  1.2588 -0.3543
 8524SOL    HW232434   8.978   3.278   4.675 -3.2780 -3.0904  0.1067
 8525SOL     OW32435   4.108   0.362  11.692  0.1265  0.7090 -0.1347
 8525SOL    HW132436   4.183   0.349  11.748  0.1245  1.9544  0.1829
 8525SOL    HW232437   4.140   0.416  11.620 -0.5254  1.5414  0.1805
 8526SOL     OW32438   6.348  11.147  11.683  0.1029 -0.1283 -0.5641
 8526SOL    HW132439   6.294  11.224  11.665  0.3071 -0.0319 -0.7681
 8526SOL    HW232440   6.287  11.073  11.682 -0.2203  0.1077  0.3718
 8527SOL     OW32441   4.371   5.676   6.959 -0.3203 -0.0308 -0.5607
 8527SOL    HW132442   4.340   5.762   6.933 -0.0591  0.2842  0.1445
 8527SOL    HW232443   4.459   5.669   6.921 -0.4548 -0.1118 -0.8632
 8528SOL     OW32444   9.431   8.114   6.189 -0.0473 -0.1714  0.4280
 8528SOL    HW132445   9.445   8.208   6.177  0.0795 -0.2488 -0.0384
 8528SOL    HW232446   9.493   8.072   6.129 -2.1609 -0.5347 -1.6161
 8529SOL     OW32447   5.037   8.949   9.489 -0.1728 -0.8512 -0.1944
 8529SOL    HW132448   4.977   8.892   9.536 -1.3146  0.4898  0.0612
 8529SOL    HW232449   5.092   8.988   9.557 -0.2046 -0.7318 -0.2365
 8530SOL     OW32450   5.523   2.678   6.275  0.5516  0.2360 -0.4323
 8530SOL    HW132451   5.522   2.649   6.184  1.4668  2.9255 -1.4026
 8530SOL    HW232452   5.430   2.687   6.298  0.2485  1.8934 -2.0168
 8531SOL     OW32453   3.192   0.732   1.350  0.7678 -0.0725  0.2108
 8531SOL    HW132454   3.245   0.678   1.292 -0.4614  1.6380 -2.6954
 8531SOL    HW232455   3.249   0.805   1.375  1.1623 -0.5869  0.8360
 8532SOL     OW32456  10.012   3.321   5.224 -0.6336 -0.0442  0.1838
 8532SOL    HW132457   9.962   3.341   5.145 -0.6514 -0.0295  0.1984
 8532SOL    HW232458  10.039   3.229   5.213  1.0919  0.5325 -0.7642
 8533SOL     OW32459  11.165   6.402   1.827  0.2451 -0.5332 -1.0492
 8533SOL    HW132460  11.222   6.448   1.765  1.2849 -0.3269  0.0159
 8533SOL    HW232461  11.115   6.471   1.870 -0.2745 -0.6535 -1.4518
 8534SOL     OW32462   9.056   5.715   1.961  0.1801  0.3616  0.2206
 8534SOL    HW132463   9.049   5.722   1.866 -0.0423 -1.2744  0.0935
 8534SOL    HW232464   9.028   5.626   1.981 -0.5430  0.9189  1.9048
 8535SOL     OW32465   2.380   1.790  10.421 -0.0721  0.7489  0.0488
 8535SOL    HW132466   2.469   1.780  10.388 -0.3804 -1.7954 -0.2585
 8535SOL    HW232467   2.326   1.792  10.342 -0.5956 -2.7186  0.1581
 8536SOL     OW32468  10.462   5.951   3.532  0.1871 -0.4242 -0.3497
 8536SOL    HW132469  10.406   6.027   3.547 -1.0278 -1.5670  1.2575
 8536SOL    HW232470  10.535   5.963   3.593  0.4649 -0.1177 -0.7380
 8537SOL     OW32471   6.370   4.394   4.613  0.0731  0.5195 -0.2389
 8537SOL    HW132472   6.445   4.340   4.638 -0.0131  0.7396  0.5207
 8537SOL    HW232473   6.307   4.333   4.577 -0.2867 -0.0008  1.2012
 8538SOL     OW32474   0.953  11.226   5.982  0.4099 -0.7270 -0.6233
 8538SOL    HW132475   0.962  11.241   6.076  0.9691  1.5637 -0.9707
 8538SOL    HW232476   0.898  11.148   5.975 -1.0502  0.0015  1.6096
 8539SOL     OW32477   0.776   3.847  10.998  0.2836  0.0288 -0.1383
 8539SOL    HW132478   0.762   3.752  10.996  0.1893  0.0531 -0.9761
 8539SOL    HW232479   0.748   3.877  10.911 -0.7342  0.9853  0.5057
 8540SOL     OW32480   6.648   1.501   9.875  0.8058  0.1315 -0.8969
 8540SOL    HW132481   6.733   1.536   9.845  1.4985  0.6638  1.5114
 8540SOL    HW232482   6.618   1.564   9.940  0.6476 -2.2169  1.4331
 8541SOL     OW32483   2.921   9.839   1.129  0.0560  0.6838  0.0591
 8541SOL    HW132484   2.898   9.837   1.222 -0.9336 -1.2743 -0.1640
 8541SOL    HW232485   2.840   9.817   1.083  0.9003 -0.0573 -1.1562
 8542SOL     OW32486   7.542   2.988   5.951  0.0401 -0.3314 -0.4998
 8542SOL    HW132487   7.614   2.927   5.967  2.2606  2.5918  1.8886
 8542SOL    HW232488   7.553   3.014   5.860  2.5623  0.5607 -0.0185
 8543SOL     OW32489   1.194  10.667   6.963 -0.1454 -0.5319 -0.5196
 8543SOL    HW132490   1.170  10.634   6.877  0.7225  0.3423 -1.1348
 8543SOL    HW232491   1.268  10.727   6.946 -0.1370 -0.1215  0.7913
 8544SOL     OW32492  11.327  10.852   4.218  0.2144  0.1154 -0.1814
 8544SOL    HW132493  11.416  10.888   4.224  0.6711 -1.2313  3.0967
 8544SOL    HW232494  11.332  10.788   4.147  1.5208  0.8414 -0.7874
 8545SOL     OW32495   8.369   3.263  10.573 -0.2787 -0.0083 -0.5300
 8545SOL    HW132496   8.450   3.302  10.606  0.3082 -2.9666  2.0382
 8545SOL    HW232497   8.389   3.169  10.568 -3.1197 -0.6514 -1.3269
 8546SOL     OW32498  11.525   4.363   4.929 -0.4454  0.4663 -1.1278
 8546SOL    HW132499  11.513   4.336   5.020 -2.4898 -0.1199 -1.5311
 8546SOL    HW232500  11.585   4.298   4.893  0.3883  0.7034 -0.2145
 8547SOL     OW32501   8.486  10.816   8.519 -0.1048 -0.2193  0.0988
 8547SOL    HW132502   8.430  10.859   8.454 -0.1169  1.1521  0.9962
 8547SOL    HW232503   8.451  10.727   8.524 -1.3632  0.2231 -0.3229
 8548SOL     OW32504   4.538  11.945   4.978 -0.1988  0.3905 -0.2292
 8548SOL    HW132505   4.556  11.929   5.070  0.7718  1.6036 -0.1770
 8548SOL    HW232506   4.526  11.858   4.940  0.0122 -0.1572  0.9197
 8549SOL     OW32507   7.131   6.355   2.185  0.5806  0.6118  0.2678
 8549SOL    HW132508   7.221   6.381   2.202  0.2765  2.8438 -1.0616
 8549SOL    HW232509   7.128   6.339   2.091  0.4159 -3.4542  0.7877
 8550SOL     OW32510   1.918   7.258   7.514 -0.1651  0.2686 -0.9315
 8550SOL    HW132511   1.974   7.298   7.448 -0.5862  0.4386 -1.1950
 8550SOL    HW232512   1.974   7.194   7.558  0.1607  0.2504 -1.3631
 8551SOL     OW32513   6.821   3.545   5.320 -0.3648 -0.3831  0.1945
 8551SOL    HW132514   6.765   3.622   5.336 -1.9092 -1.3085 -0.5566
 8551SOL    HW232515   6.780   3.500   5.246  2.1401 -0.4145 -1.3176
 8552SOL     OW32516   3.202   4.685  10.426 -0.1779 -0.2439  0.1606
 8552SOL    HW132517   3.173   4.666  10.515  0.1461 -2.1527 -0.0948
 8552SOL    HW232518   3.182   4.778  10.414  0.2203  0.1872  2.3634
 8553SOL     OW32519   5.102   1.703   0.633  1.1026  0.0032 -0.3692
 8553SOL    HW132520   5.027   1.692   0.574 -0.8772 -0.8040  2.1515
 8553SOL    HW232521   5.113   1.618   0.675  1.5424  0.9029  1.4214
 8554SOL     OW32522   2.508   8.116  11.317 -0.4492 -0.3565  0.1777
 8554SOL    HW132523   2.581   8.151  11.367 -1.6995  2.1388  0.4468
 8554SOL    HW232524   2.434   8.118  11.378 -1.1314 -1.0638 -0.6029
 8555SOL     OW32525   6.749   6.177   8.415  0.2394 -0.2968  0.3311
 8555SOL    HW132526   6.657   6.203   8.421  0.8415  2.0203  0.2735
 8555SOL    HW232527   6.796   6.240   8.468  1.7462 -2.0405  1.1674
 8556SOL     OW32528   7.302   9.355   9.400 -0.0394 -0.3661 -0.4447
 8556SOL    HW132529   7.221   9.389   9.439 -0.8873 -1.1161 -1.4943
 8556SOL    HW232530   7.335   9.428   9.347  0.3734  0.1835  0.5467
 8557SOL     OW32531   9.128   8.376   7.573  0.3707 -0.1982 -0.5061
 8557SOL    HW132532   9.178   8.376   7.491  0.6255 -2.3326 -0.4132
 8557SOL    HW232533   9.094   8.287   7.580  0.4583 -0.1046  1.7684
 8558SOL     OW32534   0.623   2.625   5.911  0.5759 -0.0441  0.0674
 8558SOL    HW132535   0.623   2.592   5.821  0.8656 -1.7701  0.6638
 8558SOL    HW232536   0.704   2.591   5.949 -0.6287 -1.3015  1.6348
 8559SOL     OW32537   7.278   0.050   6.933  0.0653  0.8511  0.3401
 8559SOL    HW132538   7.334  -0.009   6.983 -0.7540 -0.9185 -0.7151
 8559SOL    HW232539   7.262   0.124   6.992 -0.1763 -0.7266  2.3966
 8560SOL     OW32540   7.417   2.004   2.661  0.1419 -0.4467  0.2748
 8560SOL    HW132541   7.374   1.986   2.578  2.3431 -3.2500 -0.4236
 8560SOL    HW232542   7.485   2.068   2.641 -0.9123  0.7936  0.5152
 8561SOL     OW32543  11.908   7.254   7.141  0.1446  0.2371  0.8038
 8561SOL    HW132544  11.901   7.346   7.167 -0.7666 -0.3233  2.7461
 8561SOL    HW232545  11.972   7.217   7.201  0.1624 -0.5070  0.3360
 8562SOL     OW32546   3.601   5.441  10.224  0.9969 -0.4452 -0.4541
 8562SOL    HW132547   3.570   5.463  10.312  0.7610 -0.3151 -0.5691
 8562SOL    HW232548   3.603   5.525  10.178 -3.3331 -0.9387 -2.0165
 8563SOL     OW32549   5.985   2.359  11.832 -0.3259 -0.4178  0.0246
 8563SOL    HW132550   6.042   2.436  11.833 -0.3489 -0.4053  0.4190
 8563SOL    HW232551   6.042   2.287  11.805 -0.5862 -0.0449 -1.6812
 8564SOL     OW32552   7.212   0.948   0.267 -0.8395  0.1536 -0.4655
 8564SOL    HW132553   7.199   0.918   0.177 -1.2995  1.0566 -0.7029
 8564SOL    HW232554   7.128   0.934   0.310  0.0259 -2.6964  0.5899
 8565SOL     OW32555  11.137   5.193   3.594 -0.2345 -0.3061  0.4563
 8565SOL    HW132556  11.056   5.163   3.635  0.1517 -0.3827  1.1735
 8565SOL    HW232557  11.183   5.112   3.570 -0.2250 -0.2642  0.3320
 8566SOL     OW32558   0.636  10.239  10.669 -0.0476 -0.2105 -0.8182
 8566SOL    HW132559   0.707  10.252  10.732 -0.2216 -0.6495 -0.5330
 8566SOL    HW232560   0.661  10.293  10.593 -0.0513  0.6700 -0.2102
 8567SOL     OW32561   9.136   8.437   4.523 -0.3681 -0.3550 -0.3431
 8567SOL    HW132562   9.199   8.492   4.570 -0.9366  1.6294 -1.7724
 8567SOL    HW232563   9.056   8.489   4.519 -1.3464 -1.8218 -0.6932
 8568SOL     OW32564  12.008   0.088   8.345  0.3900 -0.3062 -0.3916
 8568SOL    HW132565  11.953   0.166   8.352  2.2739  1.0194  0.3800
 8568SOL    HW232566  12.041   0.073   8.433  0.7465 -1.4834 -0.7002
 8569SOL     OW32567  10.467   3.410   8.204 -0.0978  0.0462 -0.0352
 8569SOL    HW132568  10.439   3.492   8.243 -0.2108  0.4116 -0.8712
 8569SOL    HW232569  10.448   3.419   8.111  0.0768 -0.8468 -0.1713
 8570SOL     OW32570   5.377   5.856   8.124 -0.4173 -0.2555  0.3547
 8570SOL    HW132571   5.387   5.761   8.119  0.7106 -0.1944  1.1031
 8570SOL    HW232572   5.466   5.889   8.134 -0.8654  0.8179  0.9987
 8571SOL     OW32573   4.252   2.362  12.227  0.3506  0.1179 -0.4065
 8571SOL    HW132574   4.202   2.426  12.178  0.3408  0.3765 -0.0667
 8571SOL    HW232575   4.216   2.277  12.201 -1.1377  0.3601  0.7746
 8572SOL     OW32576   0.918   8.504   1.276 -0.2925 -0.3717  0.2114
 8572SOL    HW132577   0.834   8.535   1.311  0.1873  1.8776 -0.4718
 8572SOL    HW232578   0.895   8.462   1.193 -0.9410 -1.6125  1.0025
 8573SOL     OW32579   5.958   4.946   6.766  0.3500  0.0708  0.3617
 8573SOL    HW132580   5.863   4.953   6.770  0.3630  1.7783 -1.1744
 8573SOL    HW232581   5.988   4.969   6.854 -0.6538 -1.2319  1.0797
 8574SOL     OW32582   6.492   6.980   7.180 -0.1445  0.2901  0.4677
 8574SOL    HW132583   6.430   6.981   7.253  0.2357  1.0406  0.7936
 8574SOL    HW232584   6.560   6.918   7.208 -0.2710  0.1808  0.5300
 8575SOL     OW32585   3.579  11.363   4.271  0.3089  0.3349  0.3605
 8575SOL    HW132586   3.619  11.328   4.191  1.5736  0.0422  1.0875
 8575SOL    HW232587   3.602  11.300   4.339 -0.4709  0.7469  1.0194
 8576SOL     OW32588   6.355   2.526  11.727 -0.6303  0.2253  0.8268
 8576SOL    HW132589   6.331   2.500  11.638  0.8134  1.4988  0.0308
 8576SOL    HW232590   6.431   2.472  11.748 -1.0673 -0.1902  1.3764
 8577SOL     OW32591   2.019   9.503   1.997  0.4112 -0.2354 -0.5810
 8577SOL    HW132592   2.084   9.462   1.940  1.6111 -1.7475  1.6912
 8577SOL    HW232593   2.064   9.512   2.081 -2.7083 -3.0136  1.6649
 8578SOL     OW32594  11.423   1.186  10.806 -0.3263  0.7435  0.2019
 8578SOL    HW132595  11.395   1.189  10.897 -0.2978  1.2368  0.1957
 8578SOL    HW232596  11.379   1.109  10.770 -0.2606  0.4889  0.6540
 8579SOL     OW32597   6.805   2.727   3.743  0.0788 -0.0749 -0.0061
 8579SOL    HW132598   6.797   2.648   3.690 -0.8796  0.1846 -0.2715
 8579SOL    HW232599   6.798   2.697   3.834 -0.9776 -0.2326 -0.1251
 8580SOL     OW32600  11.822  11.738   2.842  0.0487  0.0188  0.3512
 8580SOL    HW132601  11.873  11.818   2.833  0.3086 -0.3295 -1.6794
 8580SOL    HW232602  11.873  11.683   2.901  0.8304  0.6113  0.2352
 8581SOL     OW32603  10.459   5.715   2.184  0.4329 -0.1419  0.1697
 8581SOL    HW132604  10.407   5.790   2.214  2.7584  1.7829 -0.2978
 8581SOL    HW232605  10.443   5.711   2.090  1.0989  0.4546  0.0245
 8582SOL     OW32606   6.165   0.559  10.710  0.1512 -0.5893 -0.4334
 8582SOL    HW132607   6.234   0.556  10.776  0.4095 -2.1624 -0.7409
 8582SOL    HW232608   6.096   0.501  10.744 -0.1469 -0.6220 -1.0740
 8583SOL     OW32609  11.509  10.578   2.860  0.2814  0.0137  0.0230
 8583SOL    HW132610  11.575  10.615   2.918  1.2264 -0.1100 -0.9276
 8583SOL    HW232611  11.518  10.484   2.871 -0.7988  0.0115  1.0145
 8584SOL     OW32612   5.857   1.564   1.809 -0.4140  0.0811  0.7155
 8584SOL    HW132613   5.904   1.482   1.792 -0.6600 -0.0948  0.8752
 8584SOL    HW232614   5.785   1.564   1.746 -0.8593 -0.1892  1.2224
 8585SOL     OW32615  11.611   3.322  11.379 -0.0948 -0.4642 -0.0200
 8585SOL    HW132616  11.676   3.386  11.407  0.7986 -1.6184  0.6485
 8585SOL    HW232617  11.660   3.240  11.374 -0.7038 -0.7661 -2.8851
 8586SOL     OW32618   4.082   7.508   8.583 -0.0090  0.3297 -0.4151
 8586SOL    HW132619   4.153   7.479   8.640 -0.4733  0.4246  0.2249
 8586SOL    HW232620   4.075   7.439   8.517 -0.1765 -0.3248  0.2755
 8587SOL     OW32621   4.118   5.089  11.420  0.5043 -0.4615 -0.5677
 8587SOL    HW132622   4.154   5.137  11.495  1.5562  0.5190 -1.6629
 8587SOL    HW232623   4.112   4.998  11.451 -2.1852  0.3731  1.7798
 8588SOL     OW32624   7.431   8.147   3.250  0.4886  0.0940 -0.2887
 8588SOL    HW132625   7.405   8.162   3.159 -0.4725 -0.0326 -0.0487
 8588SOL    HW232626   7.518   8.187   3.257 -0.0863  1.5197 -0.8583
 8589SOL     OW32627  11.166   9.703   2.155  0.3686  0.2086 -0.4477
 8589SOL    HW132628  11.131   9.777   2.106  0.5264 -0.5837 -1.8000
 8589SOL    HW232629  11.241   9.740   2.202 -0.8783  1.3991  0.7081
 8590SOL     OW32630   5.404   9.610   7.801 -0.1030  0.1302  0.5382
 8590SOL    HW132631   5.336   9.548   7.826 -1.0275  0.8538 -0.1119
 8590SOL    HW232632   5.356   9.689   7.775  1.0707  1.9212  3.3054
 8591SOL     OW32633   7.545   1.131  11.376  0.1340  0.2351 -0.0544
 8591SOL    HW132634   7.455   1.098  11.373  0.7220 -1.4420 -1.3578
 8591SOL    HW232635   7.579   1.098  11.459 -0.1546 -0.0340 -0.0376
 8592SOL     OW32636   3.918  10.876   2.979  0.1728  0.4062  0.3413
 8592SOL    HW132637   3.914  10.927   2.898  0.3248  0.9482  0.6759
 8592SOL    HW232638   4.009  10.884   3.008 -0.1158  1.0400  1.0943
 8593SOL     OW32639   7.074   4.718   7.956 -0.4540 -0.7184  0.2761
 8593SOL    HW132640   7.050   4.791   8.013 -2.0663 -1.6709  0.8854
 8593SOL    HW232641   7.143   4.753   7.900  0.8717  0.3986  2.4625
 8594SOL     OW32642   3.242   4.345   4.180  0.0280  0.3111  0.1721
 8594SOL    HW132643   3.167   4.374   4.231 -1.3656 -2.1121 -0.3314
 8594SOL    HW232644   3.276   4.424   4.139 -1.4401  1.6641  1.4588
 8595SOL     OW32645   3.722   4.997   1.292  0.1591  0.2693 -1.0636
 8595SOL    HW132646   3.708   4.917   1.242  0.4064  0.8273 -2.0391
 8595SOL    HW232647   3.640   5.045   1.285 -0.0388  0.0540 -0.3607
 8596SOL     OW32648   0.694   6.394   4.833 -0.1319  0.1552  0.3038
 8596SOL    HW132649   0.679   6.486   4.851  2.3187  0.3984  1.5393
 8596SOL    HW232650   0.709   6.391   4.738  2.0112  1.4822  0.5203
 8597SOL     OW32651   6.024   0.152   7.453 -0.0106  0.3917  0.4659
 8597SOL    HW132652   6.093   0.212   7.426  0.6126 -0.9663 -1.0470
 8597SOL    HW232653   6.056   0.113   7.534  0.9125 -0.0832 -0.1236
 8598SOL     OW32654   5.205   6.790   0.441  0.3836  0.2118 -0.1940
 8598SOL    HW132655   5.197   6.760   0.532 -0.1289  0.5394 -0.1294
 8598SOL    HW232656   5.271   6.732   0.403  1.9730  1.2290  0.8802
 8599SOL     OW32657   3.099   6.664   4.566 -0.1026 -0.3081  0.0944
 8599SOL    HW132658   3.098   6.572   4.541 -3.6014 -0.5217  0.5014
 8599SOL    HW232659   3.042   6.707   4.502  0.5576  1.3995  0.5831
 8600SOL     OW32660   1.283   4.195   9.879  0.3332  0.2580 -0.5662
 8600SOL    HW132661   1.346   4.196   9.951 -0.9316  1.8966  0.5974
 8600SOL    HW232662   1.328   4.238   9.807  0.9278  0.4117 -0.1113
 8601SOL     OW32663   1.404   5.451   0.244 -0.0050  0.2763  0.1048
 8601SOL    HW132664   1.478   5.399   0.213 -0.4262  0.7626 -1.8590
 8601SOL    HW232665   1.443   5.518   0.300  1.1520  0.8901 -1.3559
 8602SOL     OW32666   9.538   9.252   7.087 -0.1333 -0.2747 -0.1308
 8602SOL    HW132667   9.505   9.327   7.037  2.6185 -0.1118 -1.9160
 8602SOL    HW232668   9.634   9.259   7.080  0.2481 -2.8215  1.3863
 8603SOL     OW32669   4.127   9.581  10.575  0.4486 -0.3893  0.2828
 8603SOL    HW132670   4.080   9.570  10.657  1.3020  0.3974  0.9069
 8603SOL    HW232671   4.119   9.497  10.530  0.3498 -0.9824  1.3783
 8604SOL     OW32672   1.688   3.175   8.754  0.2990 -0.0026  0.2155
 8604SOL    HW132673   1.662   3.086   8.729  0.9392 -0.3508  0.7625
 8604SOL    HW232674   1.612   3.209   8.802 -0.4648  0.2358 -1.0974
 8605SOL     OW32675   0.720   7.075   0.123  0.3990 -0.0253 -0.2427
 8605SOL    HW132676   0.757   7.070   0.035  1.9132 -1.6774  0.4347
 8605SOL    HW232677   0.790   7.043   0.180 -0.6165  0.8268  1.5529
 8606SOL     OW32678   9.179  10.865   0.341 -0.2427 -0.1101  0.1186
 8606SOL    HW132679   9.163  10.933   0.406 -0.3768  2.6833 -2.6338
 8606SOL    HW232680   9.273  10.850   0.344 -0.0571  0.9847  0.0414
 8607SOL     OW32681   5.221   7.121   3.789  0.1818  0.9975 -0.2535
 8607SOL    HW132682   5.232   7.187   3.858 -3.3632  2.1998 -0.6123
 8607SOL    HW232683   5.239   7.168   3.708 -2.6703  1.8211 -0.5359
 8608SOL     OW32684   5.554   1.061   7.044 -0.6983 -0.0533 -0.1640
 8608SOL    HW132685   5.490   1.056   7.115 -0.6048 -0.6700 -0.1249
 8608SOL    HW232686   5.545   1.151   7.012 -3.5157 -0.8233 -1.9521
 8609SOL     OW32687   1.428   2.114   3.514  0.6666  0.2912 -0.4587
 8609SOL    HW132688   1.510   2.067   3.527  0.4231 -0.5494 -1.8018
 8609SOL    HW232689   1.361   2.058   3.553  0.4049 -0.4149 -1.8638
 8610SOL     OW32690   9.029   8.881   1.015  0.5871  0.3050  0.4248
 8610SOL    HW132691   9.001   8.966   0.983 -0.7726 -0.0723  0.5715
 8610SOL    HW232692   9.106   8.860   0.961  0.9602  1.6111  0.4065
 8611SOL     OW32693   3.991   5.882   3.413 -0.1358  0.2429  0.0960
 8611SOL    HW132694   4.015   5.949   3.349  0.1107  0.9808  0.9438
 8611SOL    HW232695   4.033   5.802   3.382  0.9212  0.8453 -0.0512
 8612SOL     OW32696   9.057   3.643   8.050 -0.4072  0.0436 -0.4126
 8612SOL    HW132697   9.138   3.636   7.999  0.5125 -0.8208  1.0711
 8612SOL    HW232698   9.062   3.570   8.112 -1.1054  1.4380  1.3737
 8613SOL     OW32699   4.032  10.822   9.721 -0.1090 -0.0160  0.2616
 8613SOL    HW132700   4.025  10.840   9.628  1.3420 -1.1076 -0.1103
 8613SOL    HW232701   3.942  10.808   9.751 -0.7230  1.8082 -0.6233
 8614SOL     OW32702   7.115   7.169   2.514 -0.5673  0.0730 -0.2274
 8614SOL    HW132703   7.031   7.123   2.517 -0.1417 -0.8607 -1.5533
 8614SOL    HW232704   7.125   7.205   2.602 -0.6627 -2.8921  1.1366
 8615SOL     OW32705   8.247   9.081   8.290 -0.1087 -0.0409 -0.6932
 8615SOL    HW132706   8.159   9.050   8.312  0.7103 -0.8500  1.8448
 8615SOL    HW232707   8.236   9.175   8.273 -1.3731  0.0254  0.3219
 8616SOL     OW32708   5.452   3.570   0.017  0.4616 -0.3791 -0.1414
 8616SOL    HW132709   5.500   3.545   0.096  2.1290 -0.4311 -1.1060
 8616SOL    HW232710   5.511   3.632  -0.027 -0.2033 -0.7196 -1.5610
 8617SOL     OW32711   3.215  10.125   3.623  0.2486  0.5347  0.2632
 8617SOL    HW132712   3.132  10.077   3.621  0.3554  0.3487 -1.6103
 8617SOL    HW232713   3.192  10.211   3.659 -0.7207  0.4344 -0.0902
 8618SOL     OW32714   4.517   0.476   6.388  0.3903 -0.0901 -0.6137
 8618SOL    HW132715   4.530   0.551   6.330 -0.1683 -0.8260 -1.7071
 8618SOL    HW232716   4.435   0.495   6.433  0.5736  0.2429 -0.4096
 8619SOL     OW32717  10.399   2.919   8.803 -0.7296  0.3911  0.1123
 8619SOL    HW132718  10.475   2.862   8.808  0.2493  1.5917 -0.6505
 8619SOL    HW232719  10.398   2.951   8.713 -1.4750  1.2908  0.4202
 8620SOL     OW32720  11.035   9.537   4.980 -0.1556 -0.0870  0.9753
 8620SOL    HW132721  11.115   9.550   4.929  0.6391 -1.3380  1.8325
 8620SOL    HW232722  10.964   9.539   4.915  0.9034 -2.8295 -0.4293
 8621SOL     OW32723   7.871   0.074   4.366 -0.3131  0.5993  0.0896
 8621SOL    HW132724   7.790   0.024   4.355 -0.6850  1.1904  0.1230
 8621SOL    HW232725   7.889   0.071   4.460 -0.8990  1.3929  0.2363
 8622SOL     OW32726  11.312  11.246  10.513  0.0544  0.5329 -0.4508
 8622SOL    HW132727  11.345  11.330  10.482 -2.2909  0.7244 -2.7278
 8622SOL    HW232728  11.217  11.256  10.516 -0.1825 -1.4505  1.1628
 8623SOL     OW32729  10.071  10.389   9.388  0.4396 -0.1158 -0.5940
 8623SOL    HW132730  10.094  10.477   9.417 -0.0878  0.0729 -0.7403
 8623SOL    HW232731   9.994  10.365   9.440 -0.5251  0.2302 -1.8016
 8624SOL     OW32732   0.215   7.696  10.110 -0.1934 -0.2989 -0.0460
 8624SOL    HW132733   0.155   7.770  10.119  1.1038  1.5387 -3.9340
 8624SOL    HW232734   0.288   7.731  10.059  1.9200 -3.6025  0.4047
 8625SOL     OW32735   5.924  12.385   4.593  0.4082  0.2380 -0.1469
 8625SOL    HW132736   5.938  12.303   4.641 -3.2225  0.8242  2.4019
 8625SOL    HW232737   5.992  12.444   4.624  0.3321 -0.5169  1.5514
 8626SOL     OW32738   5.721   0.970   1.839 -0.4426 -0.8406  0.5606
 8626SOL    HW132739   5.816   0.980   1.843 -0.3619 -1.4799  0.4074
 8626SOL    HW232740   5.689   1.048   1.794 -0.1960  0.4245  2.4829
 8627SOL     OW32741   0.868  11.542  12.434 -0.2960  0.1323  0.1598
 8627SOL    HW132742   0.838  11.460  12.394  1.4242  0.2078 -1.4385
 8627SOL    HW232743   0.880  11.521  12.526  0.4940 -1.5695 -0.2887
 8628SOL     OW32744   9.846   0.408   4.822  0.6133  0.1850 -0.3081
 8628SOL    HW132745   9.773   0.469   4.834 -1.3190 -1.3002 -3.3273
 8628SOL    HW232746   9.812   0.323   4.851  1.1278 -0.5068 -1.6331
 8629SOL     OW32747   8.023   8.228   4.241  0.2776 -0.2461  0.4214
 8629SOL    HW132748   7.953   8.171   4.273 -1.3197  1.0093 -0.6631
 8629SOL    HW232749   8.095   8.215   4.303 -0.5185 -2.3484  0.9942
 8630SOL     OW32750   8.556   1.312   2.368  0.0528  0.1335 -0.1560
 8630SOL    HW132751   8.642   1.310   2.410  0.3759 -0.0658 -0.7944
 8630SOL    HW232752   8.494   1.331   2.438  0.6602  0.6469  0.2470
 8631SOL     OW32753   4.656   5.807   9.860 -0.0065  0.5337 -0.6386
 8631SOL    HW132754   4.653   5.823   9.955  0.8709  1.3060 -0.7193
 8631SOL    HW232755   4.578   5.755   9.842 -0.0340  0.1211  0.5524
 8632SOL     OW32756   1.309   8.679  12.466 -0.0985 -0.5375 -0.6718
 8632SOL    HW132757   1.218   8.666  12.494  0.0276 -0.6210 -0.2922
 8632SOL    HW232758   1.306   8.668  12.371 -0.3959 -1.0631 -0.6066
 8633SOL     OW32759  11.075   0.177   6.378 -0.4863 -0.0875  0.0611
 8633SOL    HW132760  11.052   0.110   6.314  0.2479 -0.4448  0.1682
 8633SOL    HW232761  10.998   0.182   6.436 -0.9823 -0.0576 -0.5864
 8634SOL     OW32762   8.098   0.000   2.805  0.1489  0.6630  0.4959
 8634SOL    HW132763   8.167   0.025   2.744  0.9403  0.3778  1.2482
 8634SOL    HW232764   8.038  -0.053   2.753  0.9080  0.2607  0.0050
 8635SOL     OW32765   2.938   8.793   0.078  0.4164  0.3886  0.2299
 8635SOL    HW132766   2.885   8.872   0.085  0.8429  0.6503  0.5451
 8635SOL    HW232767   2.976   8.796  -0.010 -1.3969 -0.6432 -0.6517
 8636SOL     OW32768   3.913   9.161   2.220 -0.1584  0.3881  0.2580
 8636SOL    HW132769   4.004   9.145   2.244 -0.3168  0.5533  1.0273
 8636SOL    HW232770   3.916   9.194   2.130  0.5031  0.0170  0.1442
 8637SOL     OW32771   9.212  11.962   8.605 -0.4964  0.0206  0.0538
 8637SOL    HW132772   9.263  11.895   8.559  2.1258  2.8116 -1.5245
 8637SOL    HW232773   9.148  11.993   8.540 -0.8766 -0.1296  0.3540
 8638SOL     OW32774   3.092  11.771   8.777 -0.2856  0.5017 -0.1321
 8638SOL    HW132775   3.024  11.717   8.739  0.0535 -0.8141  1.0667
 8638SOL    HW232776   3.064  11.861   8.759 -2.0573 -0.0128 -0.1265
 8639SOL     OW32777   8.024   1.922   2.701 -0.2705 -0.0876  0.3801
 8639SOL    HW132778   7.987   1.959   2.621 -1.7760 -0.2184  0.9964
 8639SOL    HW232779   8.001   1.985   2.769  0.8612 -0.0545  0.7518
 8640SOL     OW32780   0.794   7.615   5.684 -0.1483 -0.5633  0.4014
 8640SOL    HW132781   0.885   7.584   5.691 -0.2730 -1.3581 -1.0888
 8640SOL    HW232782   0.802   7.707   5.661  0.2911 -0.5876  0.4393
 8641SOL     OW32783   7.700   1.071   5.179  0.0028 -0.0865 -0.3291
 8641SOL    HW132784   7.648   1.139   5.221  0.0976 -0.1099 -0.1729
 8641SOL    HW232785   7.779   1.116   5.150  1.2229 -0.5871  1.9646
 8642SOL     OW32786  10.877   5.069   6.919 -0.4600  0.3624  0.1056
 8642SOL    HW132787  10.799   5.037   6.964 -0.4179 -0.4492 -0.3853
 8642SOL    HW232788  10.855   5.064   6.826  0.3051 -0.2199 -0.0557
 8643SOL     OW32789   4.559   3.328   7.502 -0.2400  0.3342  0.9618
 8643SOL    HW132790   4.638   3.329   7.557  1.1171  1.6750 -0.8603
 8643SOL    HW232791   4.570   3.250   7.447  0.3672  1.0964 -0.0111
 8644SOL     OW32792   6.960   1.201  10.655  0.8093  0.5239 -0.2346
 8644SOL    HW132793   6.949   1.293  10.679  0.5261  1.0123 -2.0914
 8644SOL    HW232794   7.054   1.184  10.666  1.1697  1.5480 -1.4774
 8645SOL     OW32795   3.204   5.418  12.068  0.2291  0.0960 -0.0284
 8645SOL    HW132796   3.215   5.376  11.982 -0.4217  0.5875 -0.3564
 8645SOL    HW232797   3.143   5.489  12.052 -1.8077 -1.2640  1.3018
 8646SOL     OW32798   5.098   8.991   7.754 -0.4346 -0.0406 -0.4488
 8646SOL    HW132799   5.106   8.902   7.789 -0.5090  0.6684  1.4943
 8646SOL    HW232800   5.123   9.048   7.827  0.0293  1.5369 -1.7837
 8647SOL     OW32801   6.873   5.891   9.008  0.3092 -0.6224  0.0611
 8647SOL    HW132802   6.951   5.930   8.969 -0.1506  0.0453 -0.2090
 8647SOL    HW232803   6.802   5.913   8.947 -0.2043 -0.6417  0.6453
 8648SOL     OW32804  10.102   1.084  11.037 -0.0982 -0.3337 -0.1283
 8648SOL    HW132805  10.193   1.073  11.065  0.1698 -0.2888 -0.9298
 8648SOL    HW232806  10.090   1.179  11.032  0.4626 -0.3172 -1.9463
 8649SOL     OW32807   9.459   0.543   1.533 -0.3201 -0.2341  0.3199
 8649SOL    HW132808   9.524   0.558   1.602 -0.2486 -0.4624  0.3010
 8649SOL    HW232809   9.397   0.481   1.571 -0.1702 -0.5150  0.1075
 8650SOL     OW32810   7.579   5.674  11.838 -0.2166 -0.5374  0.0489
 8650SOL    HW132811   7.498   5.723  11.852  0.6738  1.2004 -0.5547
 8650SOL    HW232812   7.646   5.725  11.883  1.2523  0.5511 -3.0811
 8651SOL     OW32813   9.516   3.463   6.832  0.1986  0.3761 -0.3212
 8651SOL    HW132814   9.549   3.416   6.755  0.6472  0.9731 -0.5014
 8651SOL    HW232815   9.494   3.394   6.894 -2.5083 -0.3039 -1.8570
 8652SOL     OW32816   9.839   9.684   4.008  0.2817 -0.3067  0.0706
 8652SOL    HW132817   9.774   9.614   3.999 -0.1276  0.3612 -3.6058
 8652SOL    HW232818   9.790   9.765   3.990  1.7470  0.3929 -0.9866
 8653SOL     OW32819  10.891  10.442   7.536 -0.2969 -0.2794 -0.2908
 8653SOL    HW132820  10.858  10.384   7.467 -1.3843  0.4005 -0.3595
 8653SOL    HW232821  10.816  10.458   7.593  0.1832  0.4540  0.1588
 8654SOL     OW32822   4.944   1.871   5.902 -0.7384 -0.0361 -0.1404
 8654SOL    HW132823   5.012   1.852   5.837  0.1447 -0.4531  0.8653
 8654SOL    HW232824   4.893   1.942   5.863  0.4972  0.5382 -0.7809
 8655SOL     OW32825   5.439   1.929   9.467 -0.1786 -0.0115 -0.4961
 8655SOL    HW132826   5.529   1.912   9.492  0.1232  1.0538 -0.8297
 8655SOL    HW232827   5.443   1.951   9.374 -0.4696  2.1919 -0.0393
 8656SOL     OW32828  10.516   6.067   8.784  0.2819  0.0326 -0.1435
 8656SOL    HW132829  10.589   6.092   8.728 -0.3866  2.2015 -0.1344
 8656SOL    HW232830  10.443   6.050   8.724  0.1772  0.1178 -0.0418
 8657SOL     OW32831  10.540  11.065   0.700 -0.7623  0.6945 -0.9135
 8657SOL    HW132832  10.624  11.110   0.708  0.7899 -0.9690 -4.9823
 8657SOL    HW232833  10.558  10.991   0.643 -4.5572 -1.2744  0.0925
 8658SOL     OW32834  11.610   8.749   5.333 -0.4116 -0.3168 -0.4373
 8658SOL    HW132835  11.601   8.841   5.357 -0.0605 -0.1213 -1.0485
 8658SOL    HW232836  11.703   8.731   5.340 -0.6366 -1.0692  1.2273
 8659SOL     OW32837   4.923  10.846   6.108 -0.3204  0.0644 -0.2184
 8659SOL    HW132838   4.981  10.800   6.169 -0.2956 -0.3810 -0.5739
 8659SOL    HW232839   4.923  10.937   6.138 -1.3426 -0.3881  1.2440
 8660SOL     OW32840   4.149   3.690   9.364  0.0700  0.0606 -0.3812
 8660SOL    HW132841   4.096   3.681   9.285  0.6390 -0.2418 -0.7329
 8660SOL    HW232842   4.144   3.604   9.406  0.8676 -0.2017 -0.7964
 8661SOL     OW32843   1.151  10.010   9.446 -0.0307  0.0580  0.3151
 8661SOL    HW132844   1.067   9.971   9.471 -0.0689 -0.1633 -0.1437
 8661SOL    HW232845   1.139  10.038   9.356 -0.5633  2.7173  1.1310
 8662SOL     OW32846   2.228   8.018   2.557 -0.5634  0.4382 -0.3067
 8662SOL    HW132847   2.164   7.967   2.508 -0.8440  1.0978 -0.6338
 8662SOL    HW232848   2.312   7.988   2.525 -0.7381  0.6153 -0.9497
 8663SOL     OW32849   0.234   4.795  10.781  0.9900  0.2970 -0.5602
 8663SOL    HW132850   0.201   4.706  10.795  0.4768  0.5706  0.0184
 8663SOL    HW232851   0.228   4.808  10.686  2.3740 -0.7708 -0.8096
 8664SOL     OW32852   0.048   8.979   5.633 -0.2775  0.3292  0.7355
 8664SOL    HW132853   0.031   9.073   5.637  1.1353  0.6088  0.9202
 8664SOL    HW232854  -0.032   8.938   5.665 -0.5960  1.5093  1.5213
 8665SOL     OW32855   6.634  12.209   1.404 -0.3664 -0.4481  0.0660
 8665SOL    HW132856   6.628  12.304   1.407  2.0228 -0.1740 -1.2171
 8665SOL    HW232857   6.633  12.182   1.495  1.5792  1.0723  0.6020
 8666SOL     OW32858   6.344   3.252   3.022  0.1591  0.1521 -0.3367
 8666SOL    HW132859   6.359   3.241   3.116 -1.6800 -1.5067 -0.1984
 8666SOL    HW232860   6.408   3.319   2.996  1.9860 -0.6696  1.7114
 8667SOL     OW32861   8.270   4.306   7.632 -0.0983 -0.2122  0.4471
 8667SOL    HW132862   8.290   4.316   7.539 -1.1328  0.2569  0.2682
 8667SOL    HW232863   8.187   4.353   7.644 -0.5694 -1.2497  1.3655
 8668SOL     OW32864   0.515   6.069   0.002  0.6502 -0.1020 -0.4660
 8668SOL    HW132865   0.564   5.997  -0.038 -0.2209 -1.3014  0.5086
 8668SOL    HW232866   0.460   6.026   0.067 -2.4934  0.9848 -2.1971
 8669SOL     OW32867  10.870   4.369  10.090 -0.4410  0.0524  0.0512
 8669SOL    HW132868  10.856   4.430  10.018  0.4900 -0.0661 -0.2356
 8669SOL    HW232869  10.832   4.287  10.060  0.9200 -0.3072 -0.7853
 8670SOL     OW32870   9.650   3.171   3.927 -1.0051  0.5952  0.4046
 8670SOL    HW132871   9.598   3.123   3.863  0.3160 -1.1815  0.6029
 8670SOL    HW232872   9.664   3.257   3.888 -1.8505  0.1961 -0.8084
 8671SOL     OW32873  11.911  11.049   6.504 -0.2171 -0.0841  0.2666
 8671SOL    HW132874  11.872  11.096   6.577  0.3709 -1.7512  1.7242
 8671SOL    HW232875  12.005  11.065   6.513 -0.2685  1.4052 -1.4030
 8672SOL     OW32876   1.204   5.612   4.276  0.3347 -0.2042 -0.1921
 8672SOL    HW132877   1.150   5.646   4.346  1.0368 -1.1108  0.8243
 8672SOL    HW232878   1.245   5.689   4.236 -1.2037  0.4365 -0.5939
 8673SOL     OW32879   2.502   3.486  10.698  0.0690 -0.4856 -0.3021
 8673SOL    HW132880   2.533   3.505  10.610  1.0751 -2.2436 -0.3744
 8673SOL    HW232881   2.580   3.456  10.745 -0.8003 -1.4218  0.6139
 8674SOL     OW32882   3.176   9.066   9.916  0.1978 -0.8828 -0.1157
 8674SOL    HW132883   3.149   9.016   9.993  1.1122 -0.2317  0.6701
 8674SOL    HW232884   3.218   9.002   9.859  0.5022 -1.1928  0.4400
 8675SOL     OW32885   7.697   1.178  11.989  0.1883 -0.5585  0.1685
 8675SOL    HW132886   7.635   1.162  12.061  0.1845  0.8846  0.4988
 8675SOL    HW232887   7.730   1.090  11.967 -0.7990 -1.1738  1.0310
 8676SOL     OW32888   4.997   8.064   3.499 -0.3265 -0.3917  0.2752
 8676SOL    HW132889   5.050   8.144   3.505 -1.0169  0.0345  0.7670
 8676SOL    HW232890   4.914   8.086   3.541 -0.7627 -1.1739 -0.1420
 8677SOL     OW32891   8.185  10.041  11.250 -0.2251  0.0264 -0.2987
 8677SOL    HW132892   8.179  10.044  11.154  0.0101  2.1426 -0.2903
 8677SOL    HW232893   8.108  10.090  11.280 -0.2770 -0.5842  0.6098
 8678SOL     OW32894   6.825  10.959   7.948 -0.7946 -0.3161  0.5457
 8678SOL    HW132895   6.804  10.933   8.037 -0.1277  0.3675  0.9155
 8678SOL    HW232896   6.770  11.035   7.931  0.2591  0.5605  0.9769
 8679SOL     OW32897   5.494   9.208   0.392  0.1769 -0.4085 -0.7017
 8679SOL    HW132898   5.419   9.177   0.443 -0.1021  0.0938 -0.8051
 8679SOL    HW232899   5.563   9.220   0.457  0.1295 -0.7418 -0.5865
 8680SOL     OW32900   4.621  10.905   2.189  0.2722  0.0320  0.5175
 8680SOL    HW132901   4.614  10.958   2.110 -0.2524 -0.4935  0.2041
 8680SOL    HW232902   4.707  10.864   2.183 -0.5709 -1.6230 -0.8245
 8681SOL     OW32903   8.080   2.093   2.099 -0.3685  0.1270  0.0391
 8681SOL    HW132904   8.071   2.177   2.054 -0.8038 -0.3661 -0.8361
 8681SOL    HW232905   8.160   2.102   2.151  0.3429  0.6210 -1.0971
 8682SOL     OW32906   0.857   9.060   6.621  0.1635  0.3669  0.3876
 8682SOL    HW132907   0.949   9.087   6.614  0.4303  0.0017  2.0506
 8682SOL    HW232908   0.861   8.968   6.647 -0.7263 -0.4212 -2.0275
 8683SOL     OW32909   6.063   0.558   9.083  0.1624 -0.0875 -0.5661
 8683SOL    HW132910   6.035   0.512   9.004  1.1971  0.3512 -1.1939
 8683SOL    HW232911   6.004   0.524   9.151  0.3008 -1.6703 -1.1784
 8684SOL     OW32912   5.017   2.673  12.162  0.2140  0.2397 -0.5755
 8684SOL    HW132913   4.980   2.757  12.190 -1.0084 -0.3024 -0.5056
 8684SOL    HW232914   5.017   2.677  12.067  0.4726  0.4394 -0.5706
 8685SOL     OW32915   9.541   8.307   7.447  0.4283  0.2457  0.4127
 8685SOL    HW132916   9.478   8.259   7.501  0.8957 -0.2621  0.5097
 8685SOL    HW232917   9.553   8.390   7.492  2.1346 -0.8221  2.0671
 8686SOL     OW32918   1.735  10.507   8.017  0.8495  0.1862  0.0812
 8686SOL    HW132919   1.778  10.574   7.964  1.0605  0.2182  0.2928
 8686SOL    HW232920   1.691  10.451   7.953  0.1866  0.8557 -0.0634
 8687SOL     OW32921  11.171   7.951   5.021  0.5603 -0.0004  0.0315
 8687SOL    HW132922  11.198   7.994   5.102 -1.0609 -0.2775  0.7699
 8687SOL    HW232923  11.250   7.906   4.990  1.3401  0.5228  1.1786
 8688SOL     OW32924   9.126   5.401   9.406 -0.1730  0.2669  0.2766
 8688SOL    HW132925   9.155   5.481   9.450 -2.8518  1.5116 -0.0330
 8688SOL    HW232926   9.041   5.382   9.444 -0.3517 -1.4935 -0.8784
 8689SOL     OW32927  10.287   5.998  11.399 -0.7322 -0.6582 -0.1473
 8689SOL    HW132928  10.246   6.064  11.454 -0.2063 -1.4181  1.2020
 8689SOL    HW232929  10.321   6.046  11.324 -2.9642  0.1677 -0.6914
 8690SOL     OW32930   7.310   3.308  12.094 -0.6258 -0.1055  0.8549
 8690SOL    HW132931   7.259   3.310  12.174 -1.4963  0.8012  0.3052
 8690SOL    HW232932   7.399   3.291  12.122 -1.2611 -2.1158  1.8142
 8691SOL     OW32933  11.734   0.977   0.400  0.1544  0.0459 -0.1537
 8691SOL    HW132934  11.640   0.988   0.386  0.0499  1.2329  1.1829
 8691SOL    HW232935  11.742   0.956   0.493  1.2242  0.4010 -0.1474
 8692SOL     OW32936   6.689  11.863   6.564 -0.3712 -0.0067  0.7653
 8692SOL    HW132937   6.687  11.840   6.471 -1.0641 -0.0405  0.7812
 8692SOL    HW232938   6.766  11.918   6.574  1.3050 -2.1763  0.6874
 8693SOL     OW32939  11.356   6.797   8.000 -0.1186 -0.0522  0.2854
 8693SOL    HW132940  11.349   6.864   8.068 -1.1934  0.6811 -0.5182
 8693SOL    HW232941  11.375   6.716   8.048 -0.3492  0.5344  1.4086
 8694SOL     OW32942  10.933   3.956  11.717 -0.2166  0.1871 -0.4397
 8694SOL    HW132943  10.897   3.892  11.656 -3.1209  0.3960  0.9113
 8694SOL    HW232944  10.905   4.041  11.683  2.4203  0.7693 -1.4418
 8695SOL     OW32945   7.774   9.719   2.171 -0.5315  0.1390  0.0167
 8695SOL    HW132946   7.764   9.813   2.159  1.0724  0.4130  0.5367
 8695SOL    HW232947   7.857   9.698   2.129 -1.2467 -1.2111 -0.8006
 8696SOL     OW32948   5.680   3.728   9.684 -0.2338  0.8918  0.4166
 8696SOL    HW132949   5.671   3.645   9.731 -1.5668  1.0053  0.4050
 8696SOL    HW232950   5.684   3.703   9.592 -1.5241  0.8712  0.3527
 8697SOL     OW32951   6.995   9.473   1.763  0.3242  0.0166 -0.3585
 8697SOL    HW132952   7.015   9.567   1.756  2.3238 -0.2438  1.1641
 8697SOL    HW232953   7.029   9.435   1.682  1.2838  0.3586 -0.1291
 8698SOL     OW32954  10.872   3.142   4.278 -0.0740 -0.5545  0.2612
 8698SOL    HW132955  10.814   3.203   4.324 -2.3857 -2.4965  0.1177
 8698SOL    HW232956  10.902   3.191   4.201  1.6338  1.7957  2.2504
 8699SOL     OW32957   8.501   2.838   2.582 -0.9205 -0.4843 -0.3701
 8699SOL    HW132958   8.518   2.750   2.547 -1.2597 -0.3239 -0.9608
 8699SOL    HW232959   8.440   2.824   2.654 -1.2289 -0.7102 -0.6699
 8700SOL     OW32960   3.337   3.400   7.746 -0.1689  0.2388 -0.0651
 8700SOL    HW132961   3.293   3.475   7.786  1.0246  1.6615 -1.3509
 8700SOL    HW232962   3.417   3.388   7.798 -0.8639 -0.8959  0.8195
 8701SOL     OW32963   8.857   4.880   1.670  0.6901 -0.2734 -0.7476
 8701SOL    HW132964   8.950   4.897   1.682  0.4608  0.0356  0.8127
 8701SOL    HW232965   8.817   4.967   1.670  0.3826 -0.4123 -1.2176
 8702SOL     OW32966  11.947   7.351   4.982  0.1608  0.0815  0.2712
 8702SOL    HW132967  11.869   7.298   4.965  0.6991 -0.3356 -1.0567
 8702SOL    HW232968  12.010   7.322   4.915  1.1212  1.0709  0.7273
 8703SOL     OW32969   4.865   5.079   2.819  0.1898 -0.1336  0.1368
 8703SOL    HW132970   4.785   5.085   2.768 -0.1471 -0.9390  0.5548
 8703SOL    HW232971   4.836   5.085   2.910  0.5331 -0.9586  0.3126
 8704SOL     OW32972  11.661  11.657   6.970  0.5702  0.0068 -0.4211
 8704SOL    HW132973  11.585  11.608   6.939  0.4364  0.8252 -1.4679
 8704SOL    HW232974  11.730  11.591   6.979  0.3496 -0.4249 -1.6333
 8705SOL     OW32975   0.872  12.168   1.884  0.0837  0.1862 -0.1466
 8705SOL    HW132976   0.956  12.164   1.928 -0.0231 -1.9659 -0.0026
 8705SOL    HW232977   0.894  12.175   1.791  0.4004  0.3305 -0.0615
 8706SOL     OW32978  12.319   1.976   0.481 -0.1426 -0.6181 -0.3162
 8706SOL    HW132979  12.257   1.934   0.540  0.5793  0.2127  1.0796
 8706SOL    HW232980  12.266   2.036   0.429 -0.9956 -2.3067 -1.4986
 8707SOL     OW32981   9.189   7.505  12.222  0.2598 -0.0546  0.0935
 8707SOL    HW132982   9.174   7.592  12.185  0.8222  0.5350  1.2010
 8707SOL    HW232983   9.191   7.519  12.317  2.6920 -0.8848  0.2286
 8708SOL     OW32984   2.767   2.448   9.428  0.7604  0.5260  0.0770
 8708SOL    HW132985   2.826   2.523   9.431  0.6271  0.6381 -0.0795
 8708SOL    HW232986   2.680   2.485   9.446  0.7772  0.3171  0.6083
 8709SOL     OW32987  12.102  11.382   0.018  0.0651  0.1282 -0.0878
 8709SOL    HW132988  12.010  11.405   0.008 -0.1961 -0.9777 -0.3797
 8709SOL    HW232989  12.109  11.351   0.109  0.2754  0.7130  0.1024
 8710SOL     OW32990   2.685   5.579   0.112 -0.1883  0.3313 -0.8073
 8710SOL    HW132991   2.722   5.491   0.123 -2.6142 -0.6977 -0.3830
 8710SOL    HW232992   2.698   5.598   0.019  1.9476  0.3335 -0.5651
 8711SOL     OW32993   8.633   4.347   4.409 -0.0809  0.2526  0.3046
 8711SOL    HW132994   8.672   4.272   4.364  1.0768  0.8254  0.3052
 8711SOL    HW232995   8.585   4.394   4.341  1.1819  0.8024 -0.2476
 8712SOL     OW32996   7.975  11.705   9.484 -0.1493  0.0143  0.1770
 8712SOL    HW132997   8.069  11.723   9.488  0.2187 -1.6290  0.0618
 8712SOL    HW232998   7.934  11.776   9.532  0.9631  1.9214 -1.5179
 8713SOL     OW32999   8.572   0.946   1.471  0.0933  0.0523  0.3298
 8713SOL    HW133000   8.592   1.009   1.540  0.0921 -0.0016  0.3789
 8713SOL    HW233001   8.586   0.861   1.511 -0.7227 -0.0048  0.5147
 8714SOL     OW33002  10.066  11.009   7.852  0.0577  0.2146  0.1956
 8714SOL    HW133003  10.050  11.034   7.943 -0.5216  0.7062 -0.0339
 8714SOL    HW233004  10.017  11.073   7.801  0.2186 -0.1784 -0.4599
 8715SOL     OW33005   8.193   7.656   6.298 -0.8003  0.0828 -0.3126
 8715SOL    HW133006   8.126   7.641   6.364  0.8034  0.6600  1.5418
 8715SOL    HW233007   8.247   7.577   6.301 -0.3287  0.3964 -0.4400
 8716SOL     OW33008  10.684   7.870   1.439 -0.1195  0.1396 -0.7003
 8716SOL    HW133009  10.746   7.874   1.511  0.8431  0.5637 -1.5288
 8716SOL    HW233010  10.736   7.890   1.361 -1.2155  0.1095 -1.4664
 8717SOL     OW33011  11.494   3.138   2.380  0.1603  0.1699  0.6135
 8717SOL    HW133012  11.588   3.143   2.397  0.4904 -3.0867  0.4926
 8717SOL    HW233013  11.453   3.155   2.465  0.7815  1.8906  0.6072
 8718SOL     OW33014   4.186  11.887   1.147 -0.1431 -0.5196  0.2016
 8718SOL    HW133015   4.172  11.813   1.207  2.2321 -0.5943  0.7606
 8718SOL    HW233016   4.119  11.950   1.172 -1.5272 -2.0106  0.4491
 8719SOL     OW33017   3.770  11.026  11.820  0.0100 -0.7678  0.1722
 8719SOL    HW133018   3.770  11.026  11.724 -3.2582  0.1164  0.0358
 8719SOL    HW233019   3.763  11.118  11.844  2.0139 -0.8810  1.3659
 8720SOL     OW33020   1.976   0.422   2.556 -0.0176  0.3376 -0.5146
 8720SOL    HW133021   1.882   0.437   2.548 -0.0160 -0.6665 -3.8986
 8720SOL    HW233022   2.016   0.506   2.537 -0.1840  0.5535  0.0582
 8721SOL     OW33023   6.668   9.085   6.969 -0.3571 -0.4998 -0.3093
 8721SOL    HW133024   6.674   9.044   6.883  0.5280  0.9808 -1.0074
 8721SOL    HW233025   6.687   9.178   6.952 -1.4021  0.0476  1.3064
 8722SOL     OW33026  11.662  10.177   6.181 -0.2138  0.0059 -0.1707
 8722SOL    HW133027  11.645  10.257   6.132 -1.6183  0.9571  1.7706
 8722SOL    HW233028  11.739  10.198   6.234 -0.9483  0.2950  0.7904
 8723SOL     OW33029   0.299   1.457  10.493 -0.0219  0.3299 -0.5073
 8723SOL    HW133030   0.322   1.535  10.443 -0.0741  0.4301 -0.3763
 8723SOL    HW233031   0.206   1.444  10.476  0.3134 -0.6123 -1.7807
 8724SOL     OW33032  12.268  10.463   9.932  0.0956  0.2898 -0.1468
 8724SOL    HW133033  12.341  10.403   9.914 -0.0528 -0.2428  0.9244
 8724SOL    HW233034  12.191  10.406   9.937  0.1983  0.2915  2.5945
 8725SOL     OW33035   5.131   1.533   4.160  0.4328  0.7261 -0.0523
 8725SOL    HW133036   5.131   1.463   4.226 -0.6800  0.2278 -0.5526
 8725SOL    HW233037   5.220   1.534   4.126  0.9944  0.8997  1.3478
 8726SOL     OW33038   4.171   8.356   7.519 -0.0140  0.1526  0.1364
 8726SOL    HW133039   4.225   8.386   7.446 -0.0684  1.6944  0.6986
 8726SOL    HW233040   4.086   8.397   7.505 -0.3871 -0.4885  0.4495
 8727SOL     OW33041   7.678   4.356  11.281 -0.3324 -0.2506 -0.0235
 8727SOL    HW133042   7.744   4.359  11.350 -1.4128  1.8810  1.0065
 8727SOL    HW233043   7.621   4.282  11.306  1.0102 -1.4552 -0.3720
 8728SOL     OW33044   4.699  11.260   3.151 -0.3821  0.1518 -0.8087
 8728SOL    HW133045   4.778  11.257   3.097  0.3945 -0.9853  0.3190
 8728SOL    HW233046   4.642  11.192   3.115  0.4750 -1.1757  0.2437
 8729SOL     OW33047   6.090   6.265   1.269 -0.2584 -0.0351  0.4775
 8729SOL    HW133048   6.131   6.233   1.189 -0.8520 -1.6712  0.7867
 8729SOL    HW233049   6.161   6.271   1.332 -0.1501 -0.9438  0.4526
 8730SOL     OW33050   1.918   8.522   4.397 -0.0554  0.3429  0.7526
 8730SOL    HW133051   1.844   8.582   4.402 -2.7842 -2.7090  0.3683
 8730SOL    HW233052   1.974   8.546   4.471 -1.9734  2.0704  1.7341
 8731SOL     OW33053   0.805   7.344   9.565 -0.1756  0.1708 -0.2455
 8731SOL    HW133054   0.835   7.413   9.505 -0.7709  0.9995  0.3966
 8731SOL    HW233055   0.717   7.371   9.590 -0.1052 -0.4064  0.6416
 8732SOL     OW33056   8.019   9.247  11.396 -0.2290 -0.3255 -0.0743
 8732SOL    HW133057   7.928   9.240  11.426 -0.2673 -0.2584 -0.1756
 8732SOL    HW233058   8.041   9.339  11.408 -1.5278  0.6923 -3.9221
 8733SOL     OW33059   5.041   3.377  10.037 -0.2834 -0.4918 -0.2093
 8733SOL    HW133060   4.962   3.339  10.000 -0.5119  0.3024 -0.5685
 8733SOL    HW233061   5.074   3.436   9.969 -1.6683  2.3581  1.3693
 8734SOL     OW33062   1.099   8.330   7.224  0.0796  0.3984 -0.0618
 8734SOL    HW133063   1.099   8.244   7.265 -1.6829 -0.4253 -1.6428
 8734SOL    HW233064   1.016   8.369   7.251  0.4749  1.2708 -0.0651
 8735SOL     OW33065   7.639   7.378   5.851 -0.1305  0.2333 -0.5245
 8735SOL    HW133066   7.598   7.463   5.835 -0.2392  0.2869  0.0189
 8735SOL    HW233067   7.723   7.382   5.805  0.1848  0.9084  0.1079
 8736SOL     OW33068  11.338   0.507  10.417 -0.2105  0.1059 -0.5469
 8736SOL    HW133069  11.370   0.578  10.361  1.3738  1.1734  1.5485
 8736SOL    HW233070  11.251   0.536  10.446 -0.6272 -0.0137 -1.6350
 8737SOL     OW33071   6.590   9.790  11.526  0.8496  0.4307  0.1361
 8737SOL    HW133072   6.613   9.861  11.586  1.2224  0.7497 -0.3815
 8737SOL    HW233073   6.611   9.823  11.439  3.1612 -1.0882  0.0208
 8738SOL     OW33074   4.773   3.004   4.491  0.0125 -0.0877  0.1668
 8738SOL    HW133075   4.690   2.961   4.473  0.2817 -0.7908  0.5716
 8738SOL    HW233076   4.837   2.957   4.437  0.0314  0.9719 -0.7651
 8739SOL     OW33077   6.696   0.099   4.857  0.2821 -0.5720  0.8912
 8739SOL    HW133078   6.737   0.016   4.833 -1.4732 -1.4134  0.6711
 8739SOL    HW233079   6.760   0.142   4.914  0.8951 -2.4352  1.6781
 8740SOL     OW33080   2.219   3.923   7.426  0.1287 -0.4398 -0.3120
 8740SOL    HW133081   2.205   3.869   7.504  0.1732  0.9086  0.6734
 8740SOL    HW233082   2.308   3.904   7.398  0.6335  0.1174  0.8539
 8741SOL     OW33083   6.011  11.066   2.278  0.2871 -0.2929 -1.0372
 8741SOL    HW133084   5.937  11.123   2.293 -0.1990 -0.8034 -1.4553
 8741SOL    HW233085   6.086  11.125   2.271  0.5779  0.0802  2.9356
 8742SOL     OW33086   7.776   6.020   9.614 -0.0836  0.2151  0.2346
 8742SOL    HW133087   7.790   6.106   9.573 -1.5238  1.1519  1.5708
 8742SOL    HW233088   7.747   6.041   9.703  0.3210 -1.6958  0.8498
 8743SOL     OW33089   9.572   3.581   3.886 -0.2176 -0.5366 -0.4947
 8743SOL    HW133090   9.623   3.514   3.840 -0.9072 -1.0101 -0.5752
 8743SOL    HW233091   9.496   3.534   3.920 -2.2051  0.6938 -2.9469
 8744SOL     OW33092  10.980   4.839   2.187  0.2218 -0.1823  0.0559
 8744SOL    HW133093  11.001   4.760   2.237 -0.1686 -0.4448 -0.1817
 8744SOL    HW233094  11.047   4.902   2.211  0.9403 -0.8076 -0.2654
 8745SOL     OW33095   9.771   4.773   9.454 -0.2683 -0.4945  0.0193
 8745SOL    HW133096   9.732   4.702   9.503 -1.7117  0.8993  0.9965
 8745SOL    HW233097   9.732   4.767   9.367  0.2016 -1.3203 -0.1471
 8746SOL     OW33098   2.129   6.877   4.714  0.5323  0.3881  0.2768
 8746SOL    HW133099   2.067   6.921   4.656  1.1640  0.2254 -0.5254
 8746SOL    HW233100   2.163   6.947   4.770  0.0442  0.5684  0.3545
 8747SOL     OW33101   9.437   4.182   5.863  0.2669 -0.4420 -0.2686
 8747SOL    HW133102   9.484   4.168   5.781  3.7125  0.7103  1.3397
 8747SOL    HW233103   9.481   4.124   5.925 -1.9533 -0.9306  0.9308
 8748SOL     OW33104  10.274   4.242   0.610 -0.1702  0.9016  0.5274
 8748SOL    HW133105  10.242   4.215   0.696 -0.1141  1.7738  0.8316
 8748SOL    HW233106  10.310   4.330   0.624 -2.7040  2.2986 -0.9368
 8749SOL     OW33107   1.016   3.303  11.787 -0.2634  0.2759  0.1873
 8749SOL    HW133108   0.977   3.316  11.873  0.5504 -0.3481  0.6664
 8749SOL    HW233109   0.942   3.303  11.727 -0.9037  0.1190  0.9605
 8750SOL     OW33110   4.330   6.484   9.889  0.0335 -0.2581 -0.0943
 8750SOL    HW133111   4.285   6.404   9.860  0.3968 -0.7473  0.6598
 8750SOL    HW233112   4.389   6.454   9.958 -0.7356  0.8546  1.0883
 8751SOL     OW33113   5.727   1.138  10.701 -0.0058  0.8147  0.0951
 8751SOL    HW133114   5.806   1.190  10.720  0.9493  0.0119 -1.4480
 8751SOL    HW233115   5.736   1.114  10.608 -1.2183 -0.7229  0.3306
 8752SOL     OW33116   7.474   8.050  10.952 -0.1656  0.2059  0.7431
 8752SOL    HW133117   7.495   8.030  10.861  2.7036  0.5217  1.2577
 8752SOL    HW233118   7.403   7.989  10.973  1.6452 -2.5867 -0.6330
 8753SOL     OW33119   8.743   2.853   0.333 -0.0092 -0.1306 -0.0354
 8753SOL    HW133120   8.785   2.834   0.249 -0.5634 -1.5726 -0.0194
 8753SOL    HW233121   8.816   2.869   0.393  0.4365 -0.3581 -0.5096
 8754SOL     OW33122   4.944  12.203   7.852  0.5346  0.4974 -0.1098
 8754SOL    HW133123   4.957  12.179   7.943 -1.0910  1.2060  0.3522
 8754SOL    HW233124   4.971  12.295   7.847 -2.0761  1.4005  0.4285
 8755SOL     OW33125   1.978   8.078   1.739  0.4060 -0.3984 -0.2634
 8755SOL    HW133126   1.965   8.079   1.834  0.7705  0.9511 -0.2073
 8755SOL    HW233127   1.911   8.018   1.706 -0.9396  0.5117  0.7000
 8756SOL     OW33128   0.498   3.468   5.122  0.6634 -0.5508 -0.0848
 8756SOL    HW133129   0.589   3.451   5.144  0.9732  1.1525  0.1217
 8756SOL    HW233130   0.481   3.556   5.155 -0.0727  0.5071 -2.9359
 8757SOL     OW33131   1.614  10.044   7.034 -0.0772 -0.3780  0.0209
 8757SOL    HW133132   1.676   9.975   7.009 -0.5592 -0.0311 -2.3201
 8757SOL    HW233133   1.642  10.120   6.984 -1.8359  0.0497 -0.3488
 8758SOL     OW33134  10.621   3.722   0.488  0.6021 -0.5161  0.1902
 8758SOL    HW133135  10.564   3.753   0.559  0.0863 -0.5774 -0.1917
 8758SOL    HW233136  10.585   3.762   0.409  1.8560  0.4827  0.0834
 8759SOL     OW33137   2.926  10.784   8.306 -0.3434  0.2841  0.3653
 8759SOL    HW133138   2.942  10.870   8.344 -1.4190  0.8755 -0.4559
 8759SOL    HW233139   2.832  10.783   8.288  0.1997  0.3983 -3.0617
 8760SOL     OW33140   9.698   3.377   7.202 -0.4673 -0.0008  0.1624
 8760SOL    HW133141   9.734   3.365   7.114  1.9595 -0.6332  1.1447
 8760SOL    HW233142   9.655   3.293   7.222 -1.0650  0.1616 -0.4186
 8761SOL     OW33143  11.039   4.470   8.951  0.3619 -0.3001  0.0070
 8761SOL    HW133144  11.011   4.381   8.931 -0.1302 -0.9635  3.0997
 8761SOL    HW233145  10.958   4.522   8.949  0.9257  0.8370 -4.3306
 8762SOL     OW33146   8.867   8.872   1.286 -0.3790 -0.4368  0.4940
 8762SOL    HW133147   8.787   8.865   1.235 -1.3619 -0.9104  2.0454
 8762SOL    HW233148   8.936   8.846   1.225 -1.6058 -1.8650 -0.3448
 8763SOL     OW33149   8.646   3.778   0.584 -0.4392  0.2723  0.1566
 8763SOL    HW133150   8.662   3.781   0.489  0.5375  0.3989  0.3136
 8763SOL    HW233151   8.730   3.754   0.622 -0.5403  1.3025  1.0741
 8764SOL     OW33152   3.456   6.314   2.569 -0.2181 -0.1016 -0.1757
 8764SOL    HW133153   3.436   6.297   2.661  1.1726  0.0375  0.1706
 8764SOL    HW233154   3.540   6.270   2.554  0.8726  2.0225 -0.6746
 8765SOL     OW33155   2.840  11.005   2.319 -0.0255  0.2048 -0.1985
 8765SOL    HW133156   2.888  11.028   2.239 -0.9403 -1.1788 -1.1800
 8765SOL    HW233157   2.822  11.090   2.360  3.0218  0.8304  0.1479
 8766SOL     OW33158  12.469   0.067   9.372  0.2043 -0.1592 -0.1341
 8766SOL    HW133159  12.537   0.016   9.328  1.0962  0.9660 -0.1374
 8766SOL    HW233160  12.422   0.111   9.301 -0.9871 -1.4357 -0.1757
 8767SOL     OW33161   0.640   6.247   3.660  0.0833 -0.3408 -0.6040
 8767SOL    HW133162   0.617   6.178   3.721  0.4927 -1.5741 -1.7974
 8767SOL    HW233163   0.679   6.315   3.714 -2.6775  0.1499  0.9672
 8768SOL     OW33164  10.700   5.060   3.101 -0.2847 -0.5793  0.2685
 8768SOL    HW133165  10.779   5.035   3.053 -0.3066 -1.1914  0.5394
 8768SOL    HW233166  10.719   5.038   3.192 -0.8219 -0.8631  0.3142
 8769SOL     OW33167   6.597   7.115   0.736  0.1092  0.3413 -0.1620
 8769SOL    HW133168   6.618   7.114   0.642  1.1874  1.2613  0.0374
 8769SOL    HW233169   6.683   7.115   0.779 -0.3476 -2.0228  0.9037
 8770SOL     OW33170   6.692   1.347   8.681 -0.4099 -0.0204 -0.1454
 8770SOL    HW133171   6.647   1.336   8.765  0.5821 -1.2109  0.2576
 8770SOL    HW233172   6.622   1.348   8.616 -1.2658  1.8797  0.7456
 8771SOL     OW33173  10.665   6.123   2.484 -0.0929 -0.3090 -0.3935
 8771SOL    HW133174  10.641   6.149   2.395  0.0846 -0.8089 -0.5917
 8771SOL    HW233175  10.634   6.033   2.492 -0.6726 -0.0554  0.2755
 8772SOL     OW33176   9.416   4.283   0.042 -0.1274  0.3918 -0.6711
 8772SOL    HW133177   9.499   4.317   0.077 -0.6267 -0.3789  1.4307
 8772SOL    HW233178   9.367   4.361   0.016  1.1615  0.8681 -1.7507
 8773SOL     OW33179   4.651  11.739   4.334  0.0547 -0.1588  0.0640
 8773SOL    HW133180   4.577  11.680   4.345  0.5225 -0.6033  0.9746
 8773SOL    HW233181   4.711  11.693   4.275 -0.6573  0.4788 -1.1988
 8774SOL     OW33182   2.315  10.805   0.093  0.7172 -0.2027  0.5511
 8774SOL    HW133183   2.387  10.741   0.098  0.6300 -0.4032 -0.5151
 8774SOL    HW233184   2.326  10.859   0.171  1.2542 -1.0373  1.0808
 8775SOL     OW33185   2.442   5.524   2.137 -0.3562  0.5070  0.0743
 8775SOL    HW133186   2.382   5.512   2.211 -0.0123 -2.1199  0.0182
 8775SOL    HW233187   2.389   5.503   2.060  0.3882 -1.1137 -0.0318
 8776SOL     OW33188   4.895   3.215  11.503  0.1185  0.0938 -0.2974
 8776SOL    HW133189   4.848   3.148  11.452  1.2073 -0.2001 -0.9542
 8776SOL    HW233190   4.893   3.182  11.593 -1.1821  0.2458 -0.2428
 8777SOL     OW33191   6.482   7.594   3.644 -0.1648  0.4323 -0.5692
 8777SOL    HW133192   6.564   7.545   3.637 -0.2993  0.2340 -0.7584
 8777SOL    HW233193   6.421   7.534   3.686 -0.0192  0.8210  0.2159
 8778SOL     OW33194  10.614   3.805   1.802 -0.2708 -0.3024  0.2658
 8778SOL    HW133195  10.609   3.881   1.744 -0.9341 -0.2120  0.4314
 8778SOL    HW233196  10.526   3.798   1.840  0.3943  0.2161  1.9861
 8779SOL     OW33197   2.320   4.599   2.978 -0.0974 -0.6982 -0.6743
 8779SOL    HW133198   2.401   4.564   3.013  0.3877 -0.1601 -1.2239
 8779SOL    HW233199   2.346   4.681   2.936 -1.0869  0.0076  0.0297
 8780SOL     OW33200   1.738   7.506   1.503  0.2227 -0.5009 -0.2704
 8780SOL    HW133201   1.742   7.440   1.433  2.3216 -0.7514  0.0162
 8780SOL    HW233202   1.828   7.538   1.510 -0.2084  0.4207  1.4733
 8781SOL     OW33203   0.214   7.911   5.074  0.0964  0.2512  0.3825
 8781SOL    HW133204   0.146   7.890   5.137  0.0027  0.4400  0.3420
 8781SOL    HW233205   0.197   8.001   5.047 -1.5272 -0.6545 -1.9688
 8782SOL     OW33206   5.327   6.905  12.468  0.3126 -0.3874  0.2246
 8782SOL    HW133207   5.336   6.947  12.553 -0.8190  0.0138  0.1695
 8782SOL    HW233208   5.406   6.929  12.420  0.0616  1.0417  0.4812
 8783SOL     OW33209   4.655   3.849  10.406  0.3566 -0.2245  0.2703
 8783SOL    HW133210   4.726   3.785  10.411 -0.3453 -1.0237  0.3641
 8783SOL    HW233211   4.697   3.930  10.379  1.1816 -0.8832 -0.4966
 8784SOL     OW33212   7.457   8.328   3.840 -0.2322 -0.0231 -0.5777
 8784SOL    HW133213   7.528   8.389   3.826  0.2481 -0.5916 -0.6706
 8784SOL    HW233214   7.389   8.379   3.885  0.3316  0.4594 -0.2677
 8785SOL     OW33215   1.120   1.300  12.390  0.0921  0.0397 -0.0339
 8785SOL    HW133216   1.164   1.306  12.305  1.7140 -1.4177  0.6398
 8785SOL    HW233217   1.115   1.390  12.422 -0.7252  0.6285 -1.7234
 8786SOL     OW33218   8.931   1.785   4.816 -0.0306 -0.4432  0.1302
 8786SOL    HW133219   8.873   1.859   4.801  0.3238 -0.2993 -0.6072
 8786SOL    HW233220   8.946   1.748   4.728 -0.1801 -1.3698  0.4779
 8787SOL     OW33221   9.942   7.286  10.462 -0.2888  0.2699  0.3069
 8787SOL    HW133222   9.927   7.220  10.530  1.9123 -0.3607  0.2609
 8787SOL    HW233223   9.950   7.235  10.381  2.7251  0.3299  0.4478
 8788SOL     OW33224   7.200   7.642   8.863 -0.4856 -0.7057  0.5160
 8788SOL    HW133225   7.229   7.721   8.909 -0.5168 -0.3811 -0.0179
 8788SOL    HW233226   7.117   7.667   8.822 -0.5525 -1.0517  0.4320
 8789SOL     OW33227   3.699  12.038   6.501  0.2892 -0.7136  0.0547
 8789SOL    HW133228   3.694  12.105   6.434 -4.0007 -0.8685 -0.1079
 8789SOL    HW233229   3.704  11.956   6.452 -0.5544 -0.7169 -0.0496
 8790SOL     OW33230   3.241   2.886   8.598  0.3666  0.2457 -0.3788
 8790SOL    HW133231   3.206   2.823   8.660  1.9714 -0.3184 -0.0115
 8790SOL    HW233232   3.184   2.878   8.521 -0.1331 -0.8241  0.0887
 8791SOL     OW33233   1.346   2.375   0.715  0.7586 -0.4938  0.3115
 8791SOL    HW133234   1.258   2.410   0.727  0.5503 -0.9025 -0.0221
 8791SOL    HW233235   1.404   2.443   0.750  0.3779  0.2920 -0.5450
 8792SOL     OW33236   2.888   9.575   9.903  0.0997 -0.3161  0.0078
 8792SOL    HW133237   2.902   9.670   9.909  0.0973 -0.3834  1.4269
 8792SOL    HW233238   2.793   9.566   9.898  0.1086 -0.2335 -0.3124
 8793SOL     OW33239   4.060   0.916   6.890 -0.1536 -0.4155  0.6574
 8793SOL    HW133240   4.120   0.988   6.872  0.0260 -0.0068  2.6365
 8793SOL    HW233241   4.076   0.895   6.982 -1.1138 -2.1422  0.4597
 8794SOL     OW33242   3.587   2.396  11.402  0.2799 -0.5347 -0.1687
 8794SOL    HW133243   3.530   2.319  11.398 -0.0788 -0.2534 -0.7828
 8794SOL    HW233244   3.586   2.422  11.494 -0.4819 -0.6191 -0.1433
 8795SOL     OW33245   5.787  10.909   0.354  0.0642  0.2126  0.1725
 8795SOL    HW133246   5.783  10.886   0.261 -1.7975  1.2376 -0.0521
 8795SOL    HW233247   5.719  10.856   0.395  0.5230  0.1496  0.8636
 8796SOL     OW33248   9.571   8.875   6.630 -0.0194  0.4752 -0.0496
 8796SOL    HW133249   9.632   8.829   6.573  0.1364 -0.8723  1.1345
 8796SOL    HW233250   9.486   8.833   6.614 -0.6155  2.0964 -1.4262
 8797SOL     OW33251   7.739   7.310   9.739 -0.8563 -0.0686 -0.2127
 8797SOL    HW133252   7.759   7.249   9.810 -1.0426 -0.9348 -0.8880
 8797SOL    HW233253   7.781   7.392   9.765  0.8164 -0.9336 -0.0680
 8798SOL     OW33254   8.985  11.292   3.735 -0.1531 -0.1370 -0.2688
 8798SOL    HW133255   8.969  11.317   3.644 -2.4439 -0.4544 -0.0093
 8798SOL    HW233256   8.944  11.361   3.786  2.6256  0.9850  0.6309
 8799SOL     OW33257   6.619   0.603   5.284 -0.5594  0.0934  0.4327
 8799SOL    HW133258   6.655   0.655   5.212  0.3382 -0.1511  0.6854
 8799SOL    HW233259   6.528   0.588   5.260 -0.0334 -0.8473 -1.1654
 8800SOL     OW33260  10.410   0.121   1.787 -0.4268 -0.1924  0.5038
 8800SOL    HW133261  10.395   0.027   1.781  0.5419 -0.2578 -1.7961
 8800SOL    HW233262  10.370   0.157   1.708  0.4643  1.1551  0.6307
 8801SOL     OW33263  11.178   7.520   4.849 -0.8224  0.1166 -0.0819
 8801SOL    HW133264  11.241   7.547   4.782  0.1413  0.0505  0.7659
 8801SOL    HW233265  11.138   7.441   4.814  0.7447 -0.7648  0.0284
 8802SOL     OW33266   9.406   8.414  10.193  0.0433 -0.5541 -0.4360
 8802SOL    HW133267   9.388   8.462  10.274 -0.9561 -0.3059 -0.7973
 8802SOL    HW233268   9.501   8.419  10.184  0.0436  0.5624  0.0189
 8803SOL     OW33269   2.670   4.596   0.285 -0.0823  0.2210 -0.1022
 8803SOL    HW133270   2.588   4.547   0.293 -1.1462  1.7650 -0.9901
 8803SOL    HW233271   2.657   4.674   0.338  0.6000  0.7511 -0.6846
 8804SOL     OW33272  12.264   2.520   1.659 -0.2147  0.1806  0.0322
 8804SOL    HW133273  12.191   2.460   1.647 -0.9002  1.1803 -0.9918
 8804SOL    HW233274  12.235   2.602   1.619  1.2197  0.7946  0.1763
 8805SOL     OW33275   8.034   3.054   3.861 -0.4113  0.1309  0.3567
 8805SOL    HW133276   8.057   3.121   3.797  0.8842  0.9826  1.6525
 8805SOL    HW233277   7.941   3.038   3.846  0.1230 -0.8030 -2.7046
 8806SOL     OW33278   9.964   4.205   3.195 -0.4732 -0.2483 -0.3380
 8806SOL    HW133279   9.870   4.198   3.213 -0.7771 -0.3041 -1.8196
 8806SOL    HW233280   9.976   4.295   3.166 -0.2524 -0.5010 -1.0565
 8807SOL     OW33281   6.166   1.996   5.708  0.3226 -0.4781 -0.1083
 8807SOL    HW133282   6.203   2.005   5.796  1.0466 -0.0321 -0.4496
 8807SOL    HW233283   6.072   1.994   5.722  0.4644 -2.1937  0.8297
 8808SOL     OW33284   0.545  11.662   9.429  0.1619  0.0988 -0.5223
 8808SOL    HW133285   0.523  11.631   9.517  0.1219  1.3465 -0.0633
 8808SOL    HW233286   0.624  11.613   9.406 -0.3211 -0.8768 -0.1699
 8809SOL     OW33287   5.180   8.257   9.396  0.2731 -0.2709 -0.5341
 8809SOL    HW133288   5.231   8.177   9.387 -1.5858 -1.4282 -1.1843
 8809SOL    HW233289   5.207   8.292   9.481  1.7088 -1.1152 -0.6033
 8810SOL     OW33290   1.930   5.438  10.301 -0.2156 -0.2653  0.2911
 8810SOL    HW133291   1.937   5.433  10.206 -0.8100  1.5917  0.1010
 8810SOL    HW233292   2.006   5.390  10.334  0.5659 -0.0392 -1.1465
 8811SOL     OW33293  11.316  10.953   4.464  0.2077  0.2139  0.5760
 8811SOL    HW133294  11.260  11.030   4.450 -2.6244 -1.2429  2.8684
 8811SOL    HW233295  11.324  10.914   4.377 -0.5702  1.6039 -0.1702
 8812SOL     OW33296   4.716   9.440   3.095  0.2363 -0.2162  0.0320
 8812SOL    HW133297   4.798   9.448   3.145  0.3899  0.4071 -0.3098
 8812SOL    HW233298   4.657   9.391   3.153  0.8087 -0.5698  0.3285
 8813SOL     OW33299   1.748   4.911   0.683 -0.0175  0.2745 -0.8062
 8813SOL    HW133300   1.722   4.998   0.712 -1.3659 -0.3861  0.0727
 8813SOL    HW233301   1.774   4.923   0.592 -0.2187  1.5800 -0.7097
 8814SOL     OW33302   9.629   7.515   5.677 -0.6799  0.2641  0.1267
 8814SOL    HW133303   9.540   7.552   5.677 -0.6064  0.4411  0.0092
 8814SOL    HW233304   9.664   7.537   5.590 -0.4716  0.3140  0.2225
 8815SOL     OW33305   3.286   2.744   3.830 -0.0753  0.5513 -0.1543
 8815SOL    HW133306   3.273   2.719   3.921 -0.1187 -0.0887 -0.3268
 8815SOL    HW233307   3.319   2.834   3.833  1.6246 -0.0593  0.5697
 8816SOL     OW33308   5.978  10.400   6.693  0.4361 -0.0657  0.3151
 8816SOL    HW133309   5.886  10.375   6.702  0.7356 -1.3231  0.1478
 8816SOL    HW233310   5.978  10.495   6.699 -1.0295  0.0567 -0.8852
 8817SOL     OW33311   8.894   6.747  10.637  0.1484  0.0534  0.1991
 8817SOL    HW133312   8.935   6.664  10.615  0.4590  0.4074 -0.6171
 8817SOL    HW233313   8.963   6.796  10.683 -0.5293 -0.7222  2.0942
 8818SOL     OW33314   2.269   8.072   2.921 -0.5137 -0.2381  0.4248
 8818SOL    HW133315   2.231   8.039   2.839 -0.4302  1.6134 -0.4162
 8818SOL    HW233316   2.284   8.165   2.904  0.7213 -0.0916  2.1197
 8819SOL     OW33317   1.504   7.287   0.947 -0.5734 -0.2729 -0.0013
 8819SOL    HW133318   1.495   7.340   0.868  0.3646 -0.9771 -0.6035
 8819SOL    HW233319   1.590   7.308   0.981  0.2145 -2.0315 -0.7629
 8820SOL     OW33320   3.816   9.354   7.475  0.2503 -0.9125 -0.1279
 8820SOL    HW133321   3.795   9.430   7.529  0.0222 -0.1814 -1.2189
 8820SOL    HW233322   3.910   9.344   7.483  0.1132 -1.3229  1.0612
 8821SOL     OW33323   7.119   9.110   8.727  0.0637  0.1636  0.2035
 8821SOL    HW133324   7.182   9.038   8.727  0.7557  0.7486  0.7019
 8821SOL    HW233325   7.109   9.134   8.634 -1.1342 -1.3651 -0.0988
 8822SOL     OW33326   3.200   6.829   6.237 -0.4607  0.2736  0.1240
 8822SOL    HW133327   3.176   6.889   6.167  1.5499  1.0836  0.0341
 8822SOL    HW233328   3.265   6.878   6.289  1.6284 -1.9325 -0.2247
 8823SOL     OW33329  12.159   9.091   7.433  0.4935  0.5162  0.2652
 8823SOL    HW133330  12.215   9.039   7.376 -0.2574  0.3466 -0.3392
 8823SOL    HW233331  12.212   9.107   7.511  0.5103 -1.7824  0.7943
 8824SOL     OW33332   7.947   6.781  11.166  0.2536  0.4378 -0.0194
 8824SOL    HW133333   7.890   6.772  11.242  0.4977 -0.8001  0.0293
 8824SOL    HW233334   7.917   6.714  11.105 -1.9142  3.2405 -2.3557
 8825SOL     OW33335   8.268   0.688  11.871 -0.0930  0.1830 -0.6175
 8825SOL    HW133336   8.327   0.758  11.843  1.3569 -0.8589 -0.3411
 8825SOL    HW233337   8.297   0.611  11.821  0.1610 -0.8422  1.0382
 8826SOL     OW33338   4.764   6.914   5.525 -0.5405 -0.2300 -0.6445
 8826SOL    HW133339   4.690   6.858   5.550  0.4735 -0.7305  1.5435
 8826SOL    HW233340   4.836   6.853   5.511  1.0594  0.3673  3.4810
 8827SOL     OW33341  11.662   2.708   2.135 -0.0858 -0.5730  0.3245
 8827SOL    HW133342  11.725   2.717   2.207  0.7924  0.5267 -0.5326
 8827SOL    HW233343  11.581   2.744   2.170 -0.6413 -3.0410  1.8382
 8828SOL     OW33344  10.293   1.612  12.482 -0.0788  0.1781 -0.3760
 8828SOL    HW133345  10.283   1.611  12.577 -3.1237  1.7667 -0.5404
 8828SOL    HW233346  10.384   1.637  12.467  0.8972 -1.5440  2.0521
 8829SOL     OW33347   4.533   4.820   0.858  0.0145 -0.2592  0.1172
 8829SOL    HW133348   4.581   4.758   0.913 -0.3567 -0.2990  0.3998
 8829SOL    HW233349   4.484   4.765   0.797 -1.0140 -0.2969  0.9407
 8830SOL     OW33350   4.045   0.547   7.113  0.1587  0.1860  0.1129
 8830SOL    HW133351   4.052   0.496   7.032  1.7494  1.2126 -0.4501
 8830SOL    HW233352   3.959   0.589   7.108 -1.3735 -2.6355  0.7716
 8831SOL     OW33353   3.775   9.365   5.380 -0.3336  0.0698  0.4735
 8831SOL    HW133354   3.716   9.338   5.450 -0.7783  1.1812  0.5433
 8831SOL    HW233355   3.749   9.455   5.360  2.4505  1.2861  1.7570
 8832SOL     OW33356   1.614   9.685   6.847 -0.2769 -0.3906  0.0707
 8832SOL    HW133357   1.685   9.714   6.905 -2.5895 -0.4707  3.1793
 8832SOL    HW233358   1.636   9.594   6.826  1.2055 -0.0007 -0.2141
 8833SOL     OW33359   7.168   2.141  10.559 -0.0332 -0.2953 -0.2665
 8833SOL    HW133360   7.214   2.124  10.641 -2.4158 -1.3019  0.9765
 8833SOL    HW233361   7.233   2.123  10.490  1.1127 -2.8075  1.3187
 8834SOL     OW33362  11.042   9.076   0.441  0.1865 -0.0445  0.1225
 8834SOL    HW133363  11.035   9.004   0.378 -0.4617  1.9552 -2.2909
 8834SOL    HW233364  11.039   9.155   0.386 -0.5385  1.8541  2.7259
 8835SOL     OW33365  11.682  12.351   2.380 -0.3777 -0.3966  0.2108
 8835SOL    HW133366  11.665  12.395   2.297 -0.2938 -0.3078  0.2410
 8835SOL    HW233367  11.596  12.341   2.420 -0.1690  3.8774  2.3484
 8836SOL     OW33368   3.476   5.477   3.234 -0.2784  0.1296  0.1123
 8836SOL    HW133369   3.500   5.462   3.143  0.9235 -0.4790  0.5076
 8836SOL    HW233370   3.504   5.398   3.280  1.6360  1.4827  1.4412
 8837SOL     OW33371   5.717   5.109   6.735  0.1794 -0.0658 -0.7473
 8837SOL    HW133372   5.675   5.135   6.653  0.1082 -1.2368 -1.1062
 8837SOL    HW233373   5.659   5.142   6.804  0.9067  2.1007 -1.0779
 8838SOL     OW33374   4.811   8.978   2.398  0.2300 -0.3814  0.1848
 8838SOL    HW133375   4.778   9.013   2.315  0.6919 -0.5152 -0.0545
 8838SOL    HW233376   4.763   9.028   2.465  3.7553  3.8632  0.0386
 8839SOL     OW33377  12.233   8.797  12.068  0.2757 -0.0633 -0.1805
 8839SOL    HW133378  12.226   8.835  12.155  0.5188  0.6380 -0.4567
 8839SOL    HW233379  12.247   8.872  12.010  0.8899 -0.5841 -0.7284
 8840SOL     OW33380  10.938   8.269  11.632  0.0183 -0.4145 -0.7371
 8840SOL    HW133381  11.022   8.249  11.673  0.1756 -1.1407 -1.3921
 8840SOL    HW233382  10.928   8.202  11.563 -0.4470  0.4812 -1.5688
 8841SOL     OW33383   6.030   0.339  10.477  0.0865  0.4355  0.4720
 8841SOL    HW133384   5.995   0.259  10.437  0.5648  1.0035 -1.1748
 8841SOL    HW233385   6.110   0.311  10.522  0.6790  0.0923 -0.7543
 8842SOL     OW33386   8.503   3.483   4.232  0.1193  0.4089  0.6515
 8842SOL    HW133387   8.570   3.549   4.249  1.1376 -0.0639 -1.2809
 8842SOL    HW233388   8.544   3.400   4.254 -0.1980  0.1938  0.4457
 8843SOL     OW33389   9.065   1.524   9.566  0.4362 -0.0657  0.3329
 8843SOL    HW133390   8.998   1.510   9.633  0.1858 -0.0429  0.0884
 8843SOL    HW233391   9.073   1.619   9.561  2.4488 -0.0646  2.3028
 8844SOL     OW33392  12.442   5.272   0.732 -0.4799  0.2685  0.2888
 8844SOL    HW133393  12.498   5.200   0.760  0.2733  0.8567  0.3241
 8844SOL    HW233394  12.369   5.230   0.686 -1.0817 -0.6501  1.9785
 8845SOL     OW33395  11.200  12.096   0.753  0.9025  0.0062  0.1529
 8845SOL    HW133396  11.198  12.144   0.836  0.9874  0.4768 -0.1084
 8845SOL    HW233397  11.291  12.068   0.744  0.7997 -0.4125  0.4231
 8846SOL     OW33398   6.953   5.347   7.950  0.4215 -0.0599  0.3739
 8846SOL    HW133399   7.012   5.340   7.874  0.7636 -1.1371  0.7227
 8846SOL    HW233400   7.005   5.392   8.017  0.7758 -0.7923  0.5986
 8847SOL     OW33401  12.408   5.223   3.873  0.1038 -0.0849 -0.3376
 8847SOL    HW133402  12.503   5.228   3.886  0.1201  1.8878 -0.9374
 8847SOL    HW233403  12.396   5.227   3.779 -0.6141  0.7262 -0.2176
 8848SOL     OW33404   3.555   6.452   1.803 -0.4603  0.3726  0.1430
 8848SOL    HW133405   3.604   6.404   1.870 -1.0224  0.8208  0.8940
 8848SOL    HW233406   3.605   6.439   1.722  0.8107  0.6994  0.8508
 8849SOL     OW33407   5.203   9.133   7.987 -0.0305 -0.7910 -0.0185
 8849SOL    HW133408   5.193   9.202   8.052  2.9900 -0.1987 -0.0671
 8849SOL    HW233409   5.226   9.055   8.037 -1.3776 -1.3097 -0.1457
 8850SOL     OW33410   3.647   7.857   5.147 -0.8149  0.3518 -0.1929
 8850SOL    HW133411   3.640   7.812   5.232 -0.5560 -0.9489 -0.8258
 8850SOL    HW233412   3.643   7.950   5.169  0.1792  0.0849  1.3366
 8851SOL     OW33413  11.819   9.732   7.823 -0.2641 -0.6268  0.1648
 8851SOL    HW133414  11.766   9.774   7.756 -1.3884  0.1667  1.4904
 8851SOL    HW233415  11.905   9.772   7.815 -0.4479 -0.3829 -0.6490
 8852SOL     OW33416   5.554   9.910   5.179  0.5656  0.3747 -0.0733
 8852SOL    HW133417   5.569   9.960   5.258  0.1388  0.8697 -0.2993
 8852SOL    HW233418   5.462   9.884   5.184  1.0268 -1.3074  0.5562
 8853SOL     OW33419   0.352   6.495  10.166  0.5095  0.2268  0.0141
 8853SOL    HW133420   0.436   6.450  10.174  0.0593 -0.6187  0.1049
 8853SOL    HW233421   0.287   6.425  10.165 -0.4170  0.9256  2.6011
 8854SOL     OW33422  12.180   1.538   1.330  0.3539 -0.0336  0.1992
 8854SOL    HW133423  12.166   1.614   1.387  0.9221  0.7866 -0.7266
 8854SOL    HW233424  12.229   1.477   1.385 -0.8755 -0.1180  1.2465
 8855SOL     OW33425   8.590   8.614  11.205  0.2967 -0.1874 -0.4687
 8855SOL    HW133426   8.658   8.662  11.253  0.8292 -0.8360 -0.5729
 8855SOL    HW233427   8.607   8.522  11.224 -0.5497 -0.3615 -0.5073
 8856SOL     OW33428   2.659   3.435   1.605 -0.1528  0.3282  0.1154
 8856SOL    HW133429   2.629   3.345   1.592  0.3528  0.0637  0.7361
 8856SOL    HW233430   2.602   3.469   1.674 -0.5692  0.5992 -0.3590
 8857SOL     OW33431   6.141   9.458   8.327 -0.0640  0.0443 -0.2614
 8857SOL    HW133432   6.073   9.521   8.350 -1.1215 -0.8425 -0.8738
 8857SOL    HW233433   6.178   9.431   8.410 -1.1240 -0.1665  0.1579
 8858SOL     OW33434   9.047   8.126   1.328  0.0660  0.5494 -0.0652
 8858SOL    HW133435   9.010   8.134   1.240  0.2715  0.3446 -0.1721
 8858SOL    HW233436   9.138   8.102   1.313 -0.5563 -2.3509  0.2047
 8859SOL     OW33437   4.374   5.675   2.706 -0.3043  0.5735 -0.4919
 8859SOL    HW133438   4.382   5.592   2.660  1.3450 -0.4128  1.3938
 8859SOL    HW233439   4.426   5.737   2.654 -0.4785  0.1108 -1.2220
 8860SOL     OW33440   1.903   0.844  10.503 -0.4900 -0.3927  0.2946
 8860SOL    HW133441   1.994   0.873  10.501 -0.4078 -0.6771 -0.9407
 8860SOL    HW233442   1.886   0.824  10.595  0.8024 -0.6918  0.4877
 8861SOL     OW33443   3.537   1.830   9.047  0.2855 -0.1433 -0.4512
 8861SOL    HW133444   3.528   1.897   9.115  1.4889  0.2832 -0.6787
 8861SOL    HW233445   3.456   1.779   9.052 -0.1771  0.6496  0.4622
 8862SOL     OW33446   8.474  12.119  11.884 -0.0393 -0.3247  0.1537
 8862SOL    HW133447   8.493  12.213  11.885  0.9594 -0.5139  0.1340
 8862SOL    HW233448   8.557  12.078  11.859 -0.8883 -1.1244 -1.5362
 8863SOL     OW33449   0.816   2.065  11.147 -0.1374  0.5593 -0.3358
 8863SOL    HW133450   0.736   2.017  11.126  0.3475 -0.4592  0.0489
 8863SOL    HW233451   0.878   2.040  11.079 -0.8517  3.3716 -2.1730
 8864SOL     OW33452   3.866  10.987   7.285  0.0290  0.7928 -0.1097
 8864SOL    HW133453   3.797  11.049   7.307 -1.2094 -0.0000 -1.5628
 8864SOL    HW233454   3.878  10.997   7.191 -0.5277 -1.4467 -0.4733
 8865SOL     OW33455   7.959   5.520  11.650 -0.2168  0.3859 -0.2269
 8865SOL    HW133456   7.919   5.441  11.688  1.2675 -0.0352  0.5024
 8865SOL    HW233457   7.945   5.510  11.556 -1.3679  0.0125 -0.0421
 8866SOL     OW33458   7.836   6.434   7.294  0.4669 -0.6414  0.0988
 8866SOL    HW133459   7.878   6.516   7.321  1.0950 -1.1871  0.8315
 8866SOL    HW233460   7.908   6.370   7.291  0.1431 -0.9624 -1.3730
 8867SOL     OW33461   9.006   6.045  12.271 -0.3759 -0.0231  0.3104
 8867SOL    HW133462   9.091   6.006  12.254  0.5839  2.2606 -0.5107
 8867SOL    HW233463   9.000   6.118  12.209 -3.2666 -0.5521 -0.1618
 8868SOL     OW33464  10.327   7.375   4.389  0.3927 -0.1303  0.1496
 8868SOL    HW133465  10.421   7.380   4.371  0.3030 -1.2322 -0.6480
 8868SOL    HW233466  10.285   7.399   4.307 -0.0324 -0.0493  0.3851
 8869SOL     OW33467  12.013  11.147   8.848 -0.1786  0.0771  0.4714
 8869SOL    HW133468  12.071  11.090   8.898  0.4505  0.5103  0.2528
 8869SOL    HW233469  12.046  11.141   8.758  1.1740  2.3088  0.7590
 8870SOL     OW33470   5.240   3.725   9.704  0.0200  0.1440  0.2574
 8870SOL    HW133471   5.323   3.757   9.667  0.3126 -0.7520  0.1051
 8870SOL    HW233472   5.257   3.719   9.798  0.3964 -0.7607  0.1453
 8871SOL     OW33473  12.321  10.160   3.248  0.2514  0.0038  0.1630
 8871SOL    HW133474  12.310  10.097   3.319 -1.0276  0.7773  0.6694
 8871SOL    HW233475  12.260  10.131   3.180  0.7831 -0.1835 -0.2454
 8872SOL     OW33476   2.772   9.299   7.296  0.4332 -0.1964 -0.1322
 8872SOL    HW133477   2.698   9.326   7.352  1.6232 -0.2860  1.5779
 8872SOL    HW233478   2.760   9.205   7.284  0.3840 -0.2550  0.3397
 8873SOL     OW33479   2.320   8.301   0.748  0.1314 -0.5574 -0.1241
 8873SOL    HW133480   2.328   8.395   0.769  1.9803 -1.1789  2.4885
 8873SOL    HW233481   2.315   8.299   0.652  2.8463  2.1350 -0.5116
 8874SOL     OW33482   3.718   0.295   7.302  0.6018 -0.3392 -0.1574
 8874SOL    HW133483   3.713   0.202   7.325 -0.8675 -0.3715 -0.5520
 8874SOL    HW233484   3.643   0.335   7.347  0.5835  0.4620 -0.8822
 8875SOL     OW33485   1.043   8.398   2.454 -0.0600 -0.4512 -0.0566
 8875SOL    HW133486   1.128   8.357   2.435  1.5152  2.9460 -1.0897
 8875SOL    HW233487   1.016   8.437   2.370 -0.5015  2.0654  1.1715
 8876SOL     OW33488   3.925   8.668  10.220  0.5536 -0.0638 -0.2284
 8876SOL    HW133489   3.975   8.606  10.273  0.7623 -0.4071 -0.8213
 8876SOL    HW233490   3.873   8.613  10.162  0.9192  0.3110 -0.9221
 8877SOL     OW33491   2.986   8.813   0.766 -0.3967 -0.0254  0.4612
 8877SOL    HW133492   3.074   8.788   0.796  0.0086  0.4945 -0.2722
 8877SOL    HW233493   2.972   8.760   0.688 -0.5052  0.3036  0.2570
 8878SOL     OW33494   2.556   5.398   9.590  0.0484  0.2669  0.2212
 8878SOL    HW133495   2.632   5.456   9.595  0.6527 -0.5533  0.7387
 8878SOL    HW233496   2.588   5.320   9.544 -0.7727  0.3664 -0.5309
 8879SOL     OW33497  10.572   4.000   0.787  0.9785  0.3312 -0.3048
 8879SOL    HW133498  10.659   3.974   0.817 -0.1880 -0.6972  2.5178
 8879SOL    HW233499  10.525   3.918   0.776  0.0268  0.9184 -0.7752
 8880SOL     OW33500   2.589   7.330   8.421  0.2603 -0.2611  0.8081
 8880SOL    HW133501   2.581   7.238   8.396 -0.5015 -0.6547  2.3738
 8880SOL    HW233502   2.499   7.360   8.429  0.5063  0.3852  1.1551
 8881SOL     OW33503   8.946  10.848   8.723 -0.0612  0.1380  0.3237
 8881SOL    HW133504   8.867  10.900   8.741 -0.7411 -0.8646  0.2723
 8881SOL    HW233505   9.018  10.907   8.747 -0.7786  1.4154 -0.5114
 8882SOL     OW33506   7.321   7.196   6.791 -0.2165  0.1217  0.3570
 8882SOL    HW133507   7.252   7.253   6.823  0.1733 -0.3134  2.0805
 8882SOL    HW233508   7.402   7.234   6.826  0.2733 -0.1838 -0.4197
 8883SOL     OW33509  11.428   9.057  11.181 -0.0435  0.2736 -0.1299
 8883SOL    HW133510  11.369   9.028  11.112 -0.5848  0.7221  0.1409
 8883SOL    HW233511  11.515   9.048  11.143 -0.3402  0.6467 -0.9101
 8884SOL     OW33512   5.565  11.333   1.159  0.6327 -0.1487 -0.4948
 8884SOL    HW133513   5.593  11.306   1.247 -0.5232 -0.7483 -0.2972
 8884SOL    HW233514   5.482  11.378   1.173  2.1558  3.1083 -0.8727
 8885SOL     OW33515   8.125  10.201  11.619  0.0717 -0.7904 -0.3008
 8885SOL    HW133516   8.207  10.189  11.571  0.6468 -0.8881  0.6524
 8885SOL    HW233517   8.082  10.115  11.616 -0.8452 -0.3006 -2.2512
 8886SOL     OW33518   4.503  11.748   5.272 -0.4742  0.2605 -0.1733
 8886SOL    HW133519   4.540  11.760   5.360  0.2396  1.5801 -0.6225
 8886SOL    HW233520   4.579  11.746   5.214 -0.9570 -0.1812 -0.8078
 8887SOL     OW33521   8.885   7.350   0.318  0.5429 -0.2080  0.3014
 8887SOL    HW133522   8.821   7.368   0.249 -1.7127 -0.5040  2.1746
 8887SOL    HW233523   8.911   7.259   0.304 -0.6559 -0.5788  0.3927
 8888SOL     OW33524   4.653  10.901   7.780  0.3955  0.1253 -0.0868
 8888SOL    HW133525   4.640  10.989   7.745  0.1547  0.1852  0.1598
 8888SOL    HW233526   4.749  10.892   7.787  0.3992  0.5330  0.3287
 8889SOL     OW33527  11.620   2.839   3.153 -0.5205  0.6089 -0.0482
 8889SOL    HW133528  11.639   2.930   3.130  0.0966  0.3660 -0.5181
 8889SOL    HW233529  11.528   2.826   3.127 -0.5401  1.0315 -0.1895
 8890SOL     OW33530   2.030   4.774   3.447 -1.0509 -0.1119  0.0646
 8890SOL    HW133531   1.962   4.790   3.381  0.5659  1.7821 -1.2963
 8890SOL    HW233532   2.009   4.835   3.518 -0.2178  1.3815 -0.8912
 8891SOL     OW33533   6.138   7.668  10.522 -0.1498 -0.4624 -0.3515
 8891SOL    HW133534   6.219   7.719  10.528  0.5260 -1.4118 -1.0586
 8891SOL    HW233535   6.105   7.685  10.434 -0.1863 -0.8595 -0.4150
 8892SOL     OW33536  10.926   7.048   9.538 -0.5358 -0.5229  0.0901
 8892SOL    HW133537  10.932   7.127   9.592 -1.2703  0.2982 -0.9803
 8892SOL    HW233538  11.014   7.037   9.501 -0.5690  0.1312 -0.1971
 8893SOL     OW33539  12.051   9.013   2.857  0.3318 -0.0407 -0.0957
 8893SOL    HW133540  12.041   9.055   2.942 -0.6465  3.4192 -1.7255
 8893SOL    HW233541  11.972   9.038   2.808  1.4130 -0.8218 -2.3955
 8894SOL     OW33542   1.456   7.794  10.103 -0.5021 -0.0715  0.1964
 8894SOL    HW133543   1.522   7.737  10.064 -0.7907 -0.5907  0.4457
 8894SOL    HW233544   1.374   7.746  10.091 -0.7263  0.2180  0.5657
 8895SOL     OW33545  10.683   6.132   3.166 -0.0250  0.4946  0.2510
 8895SOL    HW133546  10.691   6.118   3.260 -2.7131 -0.6105  0.4029
 8895SOL    HW233547  10.589   6.140   3.151  0.3784  1.4032 -2.2714
 8896SOL     OW33548   7.466   2.165   7.741 -0.2070 -0.3568 -0.1048
 8896SOL    HW133549   7.450   2.225   7.668 -0.5187  1.6469  1.5493
 8896SOL    HW233550   7.544   2.199   7.784 -0.1448 -1.3992  0.6434
 8897SOL     OW33551   8.871   5.316   7.597 -0.0728 -0.1959  0.1012
 8897SOL    HW133552   8.817   5.381   7.643  1.9034  0.4502  1.6615
 8897SOL    HW233553   8.944   5.366   7.561  0.6958 -1.3423  0.0063
 8898SOL     OW33554   6.473   8.794   3.774  0.0423  1.1570 -0.3175
 8898SOL    HW133555   6.516   8.722   3.728 -0.2060 -0.6192  2.0368
 8898SOL    HW233556   6.505   8.787   3.864 -1.7364  2.5967  0.4909
 8899SOL     OW33557   6.248  11.380  11.540 -0.3895 -0.0331  0.7433
 8899SOL    HW133558   6.159  11.390  11.575 -1.1417  2.5100 -1.5407
 8899SOL    HW233559   6.301  11.441  11.590 -0.5559  0.4886  0.2943
 8900SOL     OW33560   3.279  10.031   8.509 -0.4075 -0.4944 -0.0756
 8900SOL    HW133561   3.281  10.116   8.464 -1.4199 -0.9933 -1.1339
 8900SOL    HW233562   3.290  10.053   8.602 -1.2435  0.8518 -0.2571
 8901SOL     OW33563   2.751   7.268  11.294  0.2168  0.2129 -0.0937
 8901SOL    HW133564   2.740   7.253  11.200  0.4398  1.6564 -0.3880
 8901SOL    HW233565   2.791   7.188  11.327  1.1699  0.0941 -1.4505
 8902SOL     OW33566   3.208  10.777   0.486 -0.4315 -0.0825 -0.3818
 8902SOL    HW133567   3.136  10.830   0.521 -0.3269 -0.0433 -0.2254
 8902SOL    HW233568   3.192  10.689   0.519  1.0548  0.4299  1.9286
 8903SOL     OW33569   4.665   9.085   1.932 -0.2677  0.6186 -0.4182
 8903SOL    HW133570   4.740   9.127   1.976  1.2002 -1.8627 -0.3220
 8903SOL    HW233571   4.589   9.131   1.965  0.8379 -0.1342  3.7889
 8904SOL     OW33572  12.306   7.122   7.595 -0.2745 -0.2250 -0.6501
 8904SOL    HW133573  12.218   7.086   7.609  0.2619 -2.0183 -1.5042
 8904SOL    HW233574  12.341   7.071   7.521  1.4783  0.4272 -0.3199
 8905SOL     OW33575   1.653  10.504   9.504 -0.5709  0.4998 -0.4558
 8905SOL    HW133576   1.722  10.482   9.441 -1.3053  0.4603 -1.2649
 8905SOL    HW233577   1.622  10.419   9.536  0.1902  0.5325  0.4097
 8906SOL     OW33578  11.529   6.492   6.266 -0.0710  0.5918 -0.5274
 8906SOL    HW133579  11.541   6.494   6.361 -0.1631  2.1742 -0.5249
 8906SOL    HW233580  11.556   6.579   6.236 -0.1762  0.1716 -1.9441
 8907SOL     OW33581   1.638   5.564   7.924 -0.3647 -0.3655 -0.1202
 8907SOL    HW133582   1.645   5.513   8.005  0.4632  1.4144  0.9961
 8907SOL    HW233583   1.547   5.556   7.898 -0.1617 -2.8399 -0.3308
 8908SOL     OW33584  11.632   3.824   8.103  0.2160  0.4186  0.7697
 8908SOL    HW133585  11.556   3.766   8.113 -0.9715  1.8843  0.4467
 8908SOL    HW233586  11.701   3.766   8.069 -0.5698 -1.0515  1.5526
 8909SOL     OW33587   5.342   7.541   5.279  0.8220 -0.1474 -0.0707
 8909SOL    HW133588   5.246   7.548   5.280  0.9046  1.0758  1.4164
 8909SOL    HW233589   5.363   7.524   5.187 -0.8299 -0.7160 -0.3802
 8910SOL     OW33590   0.394   7.468   7.082 -0.0977  0.0218  0.4887
 8910SOL    HW133591   0.490   7.469   7.080 -0.0507 -0.6312  1.5344
 8910SOL    HW233592   0.370   7.385   7.042 -0.1926 -0.1767  0.9519
 8911SOL     OW33593   7.431   7.490   3.998 -0.4016  0.0598  0.5767
 8911SOL    HW133594   7.380   7.563   4.033 -0.9209  0.1323 -0.2986
 8911SOL    HW233595   7.369   7.417   3.995 -0.2235 -0.0797  0.3018
 8912SOL     OW33596   0.224   0.158  11.871  0.4988  0.4321  0.5242
 8912SOL    HW133597   0.131   0.151  11.894  0.3996  1.6650  0.5664
 8912SOL    HW233598   0.263   0.078  11.907 -0.6262 -0.3943  0.0059
 8913SOL     OW33599   6.029   9.361   5.623 -0.0214  0.2365  0.3850
 8913SOL    HW133600   6.117   9.335   5.649  1.0186  1.2589 -1.8584
 8913SOL    HW233601   6.006   9.433   5.682  1.2473  0.9225  0.0641
 8914SOL     OW33602   0.288   9.339   6.029 -0.1286  0.2427 -0.7176
 8914SOL    HW133603   0.218   9.352   6.094  1.5260  1.4462  0.9508
 8914SOL    HW233604   0.243   9.332   5.945 -2.1743  3.4631 -0.0399
 8915SOL     OW33605   3.131   7.081   8.460  0.0945 -0.1589 -0.3254
 8915SOL    HW133606   3.088   7.157   8.421 -0.4005 -0.9159 -1.2782
 8915SOL    HW233607   3.173   7.037   8.386 -0.6893 -1.5091  0.0073
 8916SOL     OW33608  10.102  11.270   8.616 -0.2318 -0.4641  0.3674
 8916SOL    HW133609  10.176  11.222   8.654  1.2787  0.3997 -1.3556
 8916SOL    HW233610  10.113  11.360   8.647 -0.2141 -0.2079 -0.3737
 8917SOL     OW33611   0.821   6.057   7.057 -0.0674  0.7156  0.1300
 8917SOL    HW133612   0.798   5.999   6.984  0.5590  1.2901 -0.5406
 8917SOL    HW233613   0.743   6.111   7.070 -0.6945 -0.3347  0.8351
 8918SOL     OW33614   2.346  11.904  11.676 -0.0588 -0.3830  0.2773
 8918SOL    HW133615   2.392  11.833  11.632 -2.8344 -2.3520  0.2613
 8918SOL    HW233616   2.306  11.955  11.606  2.2661  1.6232  0.2606
 8919SOL     OW33617   5.643   4.044  10.817 -0.3853  0.3645 -0.1667
 8919SOL    HW133618   5.684   3.962  10.846 -0.1621  0.7057  0.5145
 8919SOL    HW233619   5.624   4.030  10.725 -2.2535 -1.2318  0.3957
 8920SOL     OW33620  10.381   4.622  11.750 -0.2084 -0.2800 -1.3188
 8920SOL    HW133621  10.387   4.599  11.843  0.8064 -0.3548 -1.3995
 8920SOL    HW233622  10.471   4.617  11.718 -0.3644  1.0127 -2.0099
 8921SOL     OW33623   6.005   1.695   0.074  0.2157 -0.0145 -0.1584
 8921SOL    HW133624   6.018   1.780   0.032  0.2274  0.4904  0.8454
 8921SOL    HW233625   6.083   1.683   0.128  0.3511 -0.8055 -0.5238
 8922SOL     OW33626   1.361   0.936   3.955  0.5563  0.6004  0.0133
 8922SOL    HW133627   1.360   0.880   4.033  0.5555  1.3387  0.5564
 8922SOL    HW233628   1.451   0.967   3.950  0.3645  1.1894  0.1860
 8923SOL     OW33629  10.609   6.239   1.177 -0.5420  0.2255  0.2260
 8923SOL    HW133630  10.671   6.174   1.211 -0.0757  0.3787 -0.3118
 8923SOL    HW233631  10.538   6.187   1.140  0.6029 -0.0684 -1.6965
 8924SOL     OW33632   9.185   5.021   0.728 -0.1261 -0.3238 -0.5861
 8924SOL    HW133633   9.215   4.935   0.699  0.2340  0.2242 -1.9276
 8924SOL    HW233634   9.256   5.053   0.784  0.7074 -0.0745 -1.7419
 8925SOL     OW33635   5.349   8.521   6.458  0.4788  0.3712 -0.5726
 8925SOL    HW133636   5.346   8.595   6.398 -3.2751 -0.1464 -1.2594
 8925SOL    HW233637   5.307   8.554   6.538  0.1563 -0.6043 -0.3327
 8926SOL     OW33638  11.215   0.979   5.761 -0.2874  0.0194  0.2091
 8926SOL    HW133639  11.271   0.960   5.686  0.1509  1.2961  0.1838
 8926SOL    HW233640  11.273   1.023   5.824 -1.2629  1.5328  0.1044
 8927SOL     OW33641   1.859   6.631   6.915 -0.2288 -0.6292 -0.1721
 8927SOL    HW133642   1.872   6.545   6.876 -0.5000  0.6589 -3.4144
 8927SOL    HW233643   1.830   6.687   6.842  0.3408  2.3296  1.6759
 8928SOL     OW33644  10.193  10.635   2.833 -0.1220 -0.5676 -0.1315
 8928SOL    HW133645  10.256  10.566   2.854  1.2583  1.1432  1.7360
 8928SOL    HW233646  10.119  10.619   2.892  0.7443  0.2331  1.2067
 8929SOL     OW33647   8.683   2.174  11.945  0.0434  0.3911 -0.4310
 8929SOL    HW133648   8.624   2.250  11.948  0.4534  0.6744  0.6080
 8929SOL    HW233649   8.660   2.122  12.022  0.7120  0.1720 -0.3718
 8930SOL     OW33650   3.996  12.039   9.181  0.3462  0.7373 -0.3906
 8930SOL    HW133651   3.912  11.998   9.202  0.2884  1.0844  0.0744
 8930SOL    HW233652   4.017  12.091   9.259  1.9831 -0.9324  0.3708
 8931SOL     OW33653   0.296   3.275   1.704 -0.6797 -0.2810 -0.1663
 8931SOL    HW133654   0.243   3.279   1.624 -1.3449 -0.5577  0.2484
 8931SOL    HW233655   0.288   3.363   1.741  0.3799  0.1275 -0.8611
 8932SOL     OW33656   5.013   2.013  11.503  0.0982 -0.2090  0.1597
 8932SOL    HW133657   4.930   2.049  11.533  0.3568 -0.4158  1.1358
 8932SOL    HW233658   4.990   1.924  11.474  0.3439 -1.1464  2.6092
 8933SOL     OW33659   9.861  10.866   5.110 -0.0259  0.0118  0.0718
 8933SOL    HW133660   9.931  10.803   5.094  0.7105  1.0270 -0.9369
 8933SOL    HW233661   9.848  10.865   5.205 -1.3262 -2.9490 -0.0532
 8934SOL     OW33662   4.738  12.393   7.008  0.4907 -0.3961 -0.1176
 8934SOL    HW133663   4.668  12.452   6.982 -0.2521 -0.5628  1.4024
 8934SOL    HW233664   4.773  12.431   7.088  1.4425 -0.8873 -0.2879
 8935SOL     OW33665   9.619   5.682   2.404 -0.0050 -0.0166 -0.0880
 8935SOL    HW133666   9.697   5.734   2.382  0.2725 -0.0302  0.8075
 8935SOL    HW233667   9.575   5.732   2.473 -1.6273  0.7460 -1.6169
 8936SOL     OW33668   9.885   9.074   5.908 -0.1113  0.1015  0.4084
 8936SOL    HW133669   9.796   9.083   5.941 -0.3861  0.8917 -0.5035
 8936SOL    HW233670   9.874   9.040   5.819  0.4900  0.3531  0.2340
 8937SOL     OW33671   4.408  11.005   0.263 -0.0121  0.4051 -0.1933
 8937SOL    HW133672   4.393  11.021   0.356 -1.4101 -0.6578 -0.2071
 8937SOL    HW233673   4.353  11.068   0.218 -0.1625  0.2045 -0.2914
 8938SOL     OW33674  11.169   4.998  10.061  0.7359 -0.7105 -0.0142
 8938SOL    HW133675  11.183   4.912  10.101  1.1963 -1.4119 -1.6027
 8938SOL    HW233676  11.085   5.027  10.096 -0.0963 -2.4268 -0.4513
 8939SOL     OW33677   9.720   5.938   2.036  0.2984  0.3907 -0.3471
 8939SOL    HW133678   9.698   6.013   2.091  0.4502  0.7849 -0.8217
 8939SOL    HW233679   9.779   5.885   2.090  2.5849  2.0896 -1.0204
 8940SOL     OW33680   8.929   7.980   0.694  0.2857  0.1309  0.1278
 8940SOL    HW133681   9.018   8.002   0.721  0.5684  0.1914 -0.7961
 8940SOL    HW233682   8.936   7.894   0.653  0.0713  0.4561 -0.6244
 8941SOL     OW33683   7.164   6.034   3.001  0.3572 -0.2573  0.0531
 8941SOL    HW133684   7.258   6.030   3.018  0.0017 -0.1438  2.3596
 8941SOL    HW233685   7.127   6.079   3.077 -1.5752 -0.3321 -0.7723
 8942SOL     OW33686   9.461   2.877   7.284 -0.1428 -0.0999  0.1515
 8942SOL    HW133687   9.478   2.784   7.267 -1.9513 -0.5247  0.4378
 8942SOL    HW233688   9.396   2.902   7.219  0.0973  0.8896  0.2784
 8943SOL     OW33689   1.317   8.623   5.667  0.3576  0.3435  0.3066
 8943SOL    HW133690   1.332   8.674   5.747 -1.8441 -0.7528  1.5318
 8943SOL    HW233691   1.238   8.661   5.629  0.6460  0.0142 -0.6477
 8944SOL     OW33692  10.843   8.906  10.412 -0.0452 -0.0415  0.7301
 8944SOL    HW133693  10.829   8.996  10.383 -0.2056 -0.2201  0.2586
 8944SOL    HW233694  10.769   8.856  10.377  0.5272 -0.5336  0.1912
 8945SOL     OW33695  11.521   0.206   6.276 -0.2223 -0.2472  0.4839
 8945SOL    HW133696  11.492   0.225   6.365  1.3482 -1.3484  1.2731
 8945SOL    HW233697  11.598   0.260   6.262 -0.7282  0.2783 -0.4104
 8946SOL     OW33698   2.560   4.908   6.544 -0.0380  0.2844 -0.1633
 8946SOL    HW133699   2.526   4.905   6.455  1.3486 -3.6039 -0.7706
 8946SOL    HW233700   2.632   4.844   6.544 -0.4901 -0.4920  3.9213
 8947SOL     OW33701  12.043   3.874  10.968  0.2503 -0.0446  1.0449
 8947SOL    HW133702  12.025   3.932  10.894  2.3618 -1.0577 -0.3451
 8947SOL    HW233703  12.122   3.910  11.007 -0.0037 -0.4041  1.9026
 8948SOL     OW33704   6.357   2.012  11.294  0.3785  0.2355 -0.3250
 8948SOL    HW133705   6.397   2.072  11.231 -1.0618 -0.1857 -1.6898
 8948SOL    HW233706   6.389   1.926  11.269 -0.4670  0.0271 -0.7164
 8949SOL     OW33707   2.095   4.196   9.386  0.1466 -0.2278  0.1642
 8949SOL    HW133708   2.098   4.145   9.466 -0.4134 -2.0045 -0.8948
 8949SOL    HW233709   2.080   4.132   9.317  1.6033  1.1010 -1.5048
 8950SOL     OW33710   3.833   8.924   7.382  0.2785  0.9937 -0.3375
 8950SOL    HW133711   3.849   8.923   7.288  2.1879 -1.8653 -0.1161
 8950SOL    HW233712   3.759   8.865   7.395  0.1281  1.2490  0.0092
 8951SOL     OW33713   6.375   1.324   3.885 -0.8938 -0.5866  0.5558
 8951SOL    HW133714   6.456   1.356   3.845 -0.1850 -1.1425  1.4765
 8951SOL    HW233715   6.337   1.400   3.928 -2.4152  0.3593 -2.2717
 8952SOL     OW33716   2.820   7.488   6.183 -0.7168  0.4206  0.0087
 8952SOL    HW133717   2.858   7.559   6.234  0.1676  1.6682 -2.2599
 8952SOL    HW233718   2.730   7.515   6.167 -1.5190 -0.7234  2.1057
 8953SOL     OW33719  10.244   5.095  10.633  0.5634 -0.6280 -0.3392
 8953SOL    HW133720  10.187   5.112  10.558  0.7261  2.8592  0.1596
 8953SOL    HW233721  10.204   5.144  10.705  2.2227 -1.1302  1.0007
 8954SOL     OW33722   9.107   2.805   9.721 -0.0784 -0.5107 -0.0743
 8954SOL    HW133723   9.142   2.890   9.746  1.7764 -1.0823 -0.5187
 8954SOL    HW233724   9.076   2.817   9.631 -0.4557 -0.1370  0.1063
 8955SOL     OW33725   4.342   6.840   8.391  0.0475  0.0654 -0.0987
 8955SOL    HW133726   4.371   6.766   8.444 -0.2770  0.8768  1.2795
 8955SOL    HW233727   4.255   6.816   8.360 -0.0084 -0.1744  0.2428
 8956SOL     OW33728  10.344   2.089  10.321  0.0829  0.0388  0.1878
 8956SOL    HW133729  10.289   2.161  10.352 -0.8570 -0.4609 -0.2680
 8956SOL    HW233730  10.330   2.087  10.226  0.8596 -0.1271  0.0714
 8957SOL     OW33731   2.292   1.675   1.816  0.1803  0.2829 -0.3126
 8957SOL    HW133732   2.231   1.637   1.879  0.8114 -2.0232 -0.9999
 8957SOL    HW233733   2.376   1.636   1.837  0.7927  0.9698 -1.3805
 8958SOL     OW33734   6.486   0.846  10.587  0.1441  0.9538  0.2765
 8958SOL    HW133735   6.425   0.839  10.660  0.2465 -2.1162  0.2198
 8958SOL    HW233736   6.570   0.816  10.623  0.2849 -0.2275 -0.9311
 8959SOL     OW33737   6.166   1.215   9.235 -0.1050  0.0596  0.6934
 8959SOL    HW133738   6.139   1.141   9.289  0.4256 -1.0084 -0.4613
 8959SOL    HW233739   6.259   1.228   9.256  0.4975 -1.2747 -0.9141
 8960SOL     OW33740   1.277   5.147   9.379  0.4089  0.6296  0.0003
 8960SOL    HW133741   1.346   5.119   9.319  1.3348  1.7660  0.5033
 8960SOL    HW233742   1.291   5.096   9.459 -1.2993 -1.4672 -0.9305
 8961SOL     OW33743   1.229   3.617   6.157 -0.0400  0.2004 -0.1539
 8961SOL    HW133744   1.288   3.548   6.189  0.1657  0.5908  0.3313
 8961SOL    HW233745   1.142   3.591   6.187 -0.0501 -0.1522 -0.4873
 8962SOL     OW33746   2.937  10.940  10.888  0.2592 -0.3072  0.5210
 8962SOL    HW133747   2.903  10.981  10.808  0.2876 -0.7974  0.2540
 8962SOL    HW233748   3.031  10.952  10.883  0.0951  2.3114  1.9506
 8963SOL     OW33749   7.870   2.862  10.721  0.3803 -0.0551  0.6948
 8963SOL    HW133750   7.889   2.951  10.691  2.8781 -1.3924 -2.3103
 8963SOL    HW233751   7.868   2.869  10.817  2.8639  2.8631  0.7008
 8964SOL     OW33752  11.646   0.709   1.047 -0.2796 -0.3011 -0.1058
 8964SOL    HW133753  11.565   0.711   1.099 -0.7809  0.1230 -0.8925
 8964SOL    HW233754  11.636   0.632   0.991  0.2932 -0.7966  0.4537
 8965SOL     OW33755  11.457   3.513   3.121 -0.0565  0.1986  0.2361
 8965SOL    HW133756  11.421   3.437   3.166 -0.7296  1.0670  1.1961
 8965SOL    HW233757  11.425   3.589   3.171  0.2134  1.1381 -0.9627
 8966SOL     OW33758   8.267   5.749   0.255  0.2823  0.3363 -0.6132
 8966SOL    HW133759   8.349   5.776   0.295 -0.0743  0.9575 -0.2922
 8966SOL    HW233760   8.262   5.655   0.274  0.7105  0.3803 -0.2542
 8967SOL     OW33761   3.876   7.651   4.671  0.0620 -0.7525  0.7023
 8967SOL    HW133762   3.964   7.657   4.633  0.1870 -0.5730  1.0176
 8967SOL    HW233763   3.880   7.574   4.728 -0.4077 -1.6057 -0.3753
 8968SOL     OW33764  10.353   6.398   9.921 -0.0335  0.0848 -0.5293
 8968SOL    HW133765  10.325   6.322   9.869  0.8123 -0.9988  0.5257
 8968SOL    HW233766  10.294   6.468   9.895 -1.8913 -1.3501 -0.4181
 8969SOL     OW33767   3.652   9.946   7.852  0.1639 -0.5837  0.1863
 8969SOL    HW133768   3.737   9.950   7.808  0.0299 -1.0779 -0.1252
 8969SOL    HW233769   3.641   9.854   7.875 -0.7495 -0.7189 -0.7016
 8970SOL     OW33770   8.050   4.236   3.446  0.1603  0.2150  0.0072
 8970SOL    HW133771   8.094   4.307   3.399 -2.1439  1.4292 -0.4755
 8970SOL    HW233772   8.003   4.187   3.379 -1.1767  0.4722  0.7109
 8971SOL     OW33773  10.408   0.022   0.467 -0.2396  0.1133  0.0478
 8971SOL    HW133774  10.400   0.104   0.515 -0.5435  0.9564 -1.3985
 8971SOL    HW233775  10.321   0.006   0.430  0.4159  0.5053 -1.7847
 8972SOL     OW33776   0.570   6.055   4.788 -0.4876  0.3248 -0.3671
 8972SOL    HW133777   0.625   6.102   4.726 -1.3733  2.4024  0.3394
 8972SOL    HW233778   0.625   5.982   4.818  0.9859  0.9392 -1.4353
 8973SOL     OW33779  11.851   5.457   0.462  0.1524  0.1666 -0.0795
 8973SOL    HW133780  11.913   5.517   0.505 -1.3555  2.1157 -0.4522
 8973SOL    HW233781  11.906   5.387   0.427  2.0833  1.4624  0.1554
 8974SOL     OW33782   5.733   2.535   4.961 -0.2730  0.2921  0.3216
 8974SOL    HW133783   5.669   2.605   4.970 -0.5720  0.1547 -0.6074
 8974SOL    HW233784   5.694   2.461   5.008  0.0960  0.7671  1.4016
 8975SOL     OW33785   0.760   1.268   1.297 -0.2736  0.1840 -0.1762
 8975SOL    HW133786   0.666   1.268   1.311 -0.3830  0.9524 -0.8756
 8975SOL    HW233787   0.787   1.178   1.319 -0.7588  0.6113  2.6020
 8976SOL     OW33788  11.527   9.878   4.345 -0.8295 -0.1667  0.0489
 8976SOL    HW133789  11.502   9.860   4.254 -1.3997 -0.7335  0.3047
 8976SOL    HW233790  11.445   9.899   4.389 -0.6319 -0.4208  0.5491
 8977SOL     OW33791  12.272   5.553   8.755  0.3351  0.8226  0.5021
 8977SOL    HW133792  12.367   5.543   8.758  0.3118  0.4787  3.6044
 8977SOL    HW233793  12.238   5.470   8.789 -1.1152  0.7863 -0.9366
 8978SOL     OW33794   5.305  12.383   6.842 -0.3029  0.6033  0.1281
 8978SOL    HW133795   5.276  12.455   6.898  1.7434  0.4449  1.4964
 8978SOL    HW233796   5.397  12.401   6.826  0.2507 -1.6802  0.4783
 8979SOL     OW33797   5.876   0.821  10.454  0.3236  0.2077  0.1164
 8979SOL    HW133798   5.781   0.814  10.456  0.3333  0.3108  1.1031
 8979SOL    HW233799   5.893   0.913  10.430  0.1676  0.4723  1.0014
 8980SOL     OW33800  12.425  10.660   1.630  0.1429 -0.2921  0.2805
 8980SOL    HW133801  12.466  10.574   1.621  1.2145  0.3896 -2.1798
 8980SOL    HW233802  12.480  10.705   1.695 -0.3706 -1.3895  1.5177
 8981SOL     OW33803   1.836   8.589  10.160 -0.4013  0.4777  0.3351
 8981SOL    HW133804   1.746   8.556  10.165 -0.7130  1.0784 -0.8890
 8981SOL    HW233805   1.837   8.666  10.218 -0.8043  0.7240  0.0204
 8982SOL     OW33806  11.102   5.009   6.347 -0.5081  0.0309  0.4057
 8982SOL    HW133807  11.062   5.066   6.412  2.2677  1.2605  1.1922
 8982SOL    HW233808  11.078   4.921   6.374 -1.2800  0.6354  1.7739
 8983SOL     OW33809  12.424   5.381   1.243 -0.0588  0.1051 -0.1223
 8983SOL    HW133810  12.336   5.393   1.279  0.4884  1.3576  0.8864
 8983SOL    HW233811  12.482   5.391   1.318  0.9249 -1.3353 -0.6613
 8984SOL     OW33812  11.157   3.331   5.733 -0.5678 -0.3404  0.2963
 8984SOL    HW133813  11.110   3.336   5.650 -0.2075  0.2896  0.1273
 8984SOL    HW233814  11.222   3.401   5.728 -0.2760 -0.5604  0.9426
 8985SOL     OW33815   1.953  10.623   6.652  0.3037  0.1601 -0.1529
 8985SOL    HW133816   1.922  10.714   6.658 -0.7615 -0.2636  1.0994
 8985SOL    HW233817   2.006  10.622   6.572 -1.6947  1.2804 -1.5874
 8986SOL     OW33818   8.883   7.330   6.025 -0.3937  0.1698 -0.2911
 8986SOL    HW133819   8.852   7.311   6.113  1.8025 -0.2811  0.4319
 8986SOL    HW233820   8.948   7.399   6.036  0.8812 -0.8002 -1.3409
 8987SOL     OW33821   6.206   7.435   5.193 -0.0289 -0.1046  0.3550
 8987SOL    HW133822   6.162   7.354   5.218  2.1169 -2.0936 -1.7680
 8987SOL    HW233823   6.183   7.449   5.101  0.1469  1.3463  0.5004
 8988SOL     OW33824  10.416   1.137   1.880  0.0300 -1.0521  0.0614
 8988SOL    HW133825  10.491   1.184   1.916 -1.8127  3.1942 -0.9417
 8988SOL    HW233826  10.454   1.068   1.826  2.9865 -1.8947  2.8920
 8989SOL     OW33827  11.430  10.888  11.101 -0.1114  0.4364  0.0464
 8989SOL    HW133828  11.361  10.827  11.125 -0.4550  0.5836 -0.5643
 8989SOL    HW233829  11.511  10.839  11.117 -0.3754 -0.0684 -0.1293
 8990SOL     OW33830   2.332   5.433   1.383 -0.0533  0.0630  0.5507
 8990SOL    HW133831   2.363   5.516   1.346  1.0931 -0.6982 -0.2636
 8990SOL    HW233832   2.269   5.459   1.450 -0.0833  1.5792 -0.0194
 8991SOL     OW33833  12.235   0.829  12.371 -0.1335 -0.4123  0.0602
 8991SOL    HW133834  12.157   0.823  12.316  0.8596  0.8879 -1.5691
 8991SOL    HW233835  12.237   0.920  12.401  0.2950 -0.6591  0.8121
 8992SOL     OW33836   6.294   0.437   0.764 -0.7548 -0.7132 -0.3130
 8992SOL    HW133837   6.243   0.358   0.780 -1.2288 -0.6378 -1.3903
 8992SOL    HW233838   6.292   0.449   0.669 -1.1825  0.9069 -0.1337
 8993SOL     OW33839   8.426   0.137   0.413 -0.5769 -0.4972  0.2254
 8993SOL    HW133840   8.488   0.209   0.412 -1.5180  0.3528  1.1693
 8993SOL    HW233841   8.427   0.103   0.323  1.0413 -0.3585  0.1617
 8994SOL     OW33842   7.867  10.842   1.264  0.3697  0.2627  0.4079
 8994SOL    HW133843   7.845  10.935   1.266  1.2351  0.4772  0.2303
 8994SOL    HW233844   7.963  10.839   1.258  0.2683 -0.6032 -1.4921
 8995SOL     OW33845   0.994  10.440   3.245  0.6467 -0.3553  0.0461
 8995SOL    HW133846   0.941  10.381   3.299  0.1956 -0.6067 -0.6638
 8995SOL    HW233847   1.067  10.386   3.214  0.3247 -0.4934 -0.4678
 8996SOL     OW33848  12.175   5.117   9.766  0.3470 -0.1942 -0.1582
 8996SOL    HW133849  12.193   5.150   9.678 -3.0002  1.3211 -0.4332
 8996SOL    HW233850  12.159   5.023   9.754 -1.2528  0.1970 -1.4575
 8997SOL     OW33851   0.196   8.688   5.912  0.1699  0.1107 -0.3029
 8997SOL    HW133852   0.226   8.618   5.969  0.8147  1.4738  1.1130
 8997SOL    HW233853   0.245   8.676   5.831  1.1917 -0.3499  0.3697
 8998SOL     OW33854   2.042  11.633   2.705 -0.2513  0.0021 -0.2703
 8998SOL    HW133855   2.095  11.554   2.688 -0.2172 -0.0879  0.2285
 8998SOL    HW233856   1.952  11.601   2.708 -0.0549 -0.7048  3.3931
 8999SOL     OW33857   9.228   4.040  12.113  0.6033  0.2804  0.0012
 8999SOL    HW133858   9.266   4.117  12.154  0.2759  0.0920  0.6848
 8999SOL    HW233859   9.135   4.044  12.136  0.7758 -0.9129  1.0462
 9000SOL     OW33860  11.059   8.015  12.340  0.2204  0.0380 -0.0007
 9000SOL    HW133861  11.021   7.961  12.270  3.0172  0.4510 -2.0021
 9000SOL    HW233862  10.996   8.008  12.412 -1.4714 -2.6680 -1.5529
 9001SOL     OW33863   4.739   4.910   4.170  0.1318 -0.1721  0.0919
 9001SOL    HW133864   4.685   4.867   4.104  0.3344  0.7448 -0.6858
 9001SOL    HW233865   4.794   4.840   4.205 -0.0997 -0.7018 -0.5900
 9002SOL     OW33866   7.142   9.901  12.479  0.0824  0.0913 -0.3633
 9002SOL    HW133867   7.085   9.824  12.469  0.0857  0.1001 -0.4519
 9002SOL    HW233868   7.227   9.865  12.505  0.1904  0.0375 -0.7901
 9003SOL     OW33869   6.985   1.629   8.868  0.3674 -0.4081  0.0812
 9003SOL    HW133870   7.075   1.596   8.864  0.1760 -1.0215  0.6785
 9003SOL    HW233871   6.943   1.592   8.790  1.1177  1.4432 -1.2812
 9004SOL     OW33872  10.002   1.551   1.550  0.3977 -0.3461 -0.2530
 9004SOL    HW133873   9.998   1.460   1.523 -1.1545 -0.0806 -1.0100
 9004SOL    HW233874   9.912   1.575   1.571  0.6011  1.3004 -1.0712
 9005SOL     OW33875   9.564  11.977  11.395  0.7207 -0.2459 -0.1902
 9005SOL    HW133876   9.640  11.918  11.396  2.1502  1.5167  0.1681
 9005SOL    HW233877   9.498  11.933  11.449  1.9677 -1.2246  0.5812
 9006SOL     OW33878   3.562   4.476   3.035  0.1000  0.0448  0.7100
 9006SOL    HW133879   3.469   4.486   3.059 -0.0556 -0.5583  0.3960
 9006SOL    HW233880   3.582   4.553   2.983 -0.6812 -0.5928 -0.5703
 9007SOL     OW33881   0.257   1.979  11.506  0.1985  0.0616  0.5929
 9007SOL    HW133882   0.206   1.912  11.460 -0.3990  1.1582 -0.4221
 9007SOL    HW233883   0.345   1.943  11.511 -0.2395 -1.0581  0.6362
 9008SOL     OW33884   2.218   8.592   0.736  0.0339  0.3986  0.1618
 9008SOL    HW133885   2.164   8.632   0.804 -0.4042 -0.1518  0.1384
 9008SOL    HW233886   2.156   8.567   0.668  0.2783 -0.5035  0.2623
 9009SOL     OW33887   6.207   9.041   1.614  0.0010  0.4896  0.2736
 9009SOL    HW133888   6.172   9.115   1.564 -1.1047  0.0885  0.4296
 9009SOL    HW233889   6.185   8.964   1.561 -1.8516 -0.0157  1.6785
 9010SOL     OW33890   5.721   2.948  10.991 -0.1837 -0.4603 -0.0502
 9010SOL    HW133891   5.725   3.014  10.921 -2.4919 -0.4227 -0.2228
 9010SOL    HW233892   5.629   2.948  11.019  0.5942 -0.7046  2.8042
 9011SOL     OW33893   6.036   1.613   0.995 -0.4778  0.2954 -0.0581
 9011SOL    HW133894   6.083   1.565   0.927 -0.2755  0.3539  0.0392
 9011SOL    HW233895   5.975   1.669   0.948  0.3274  1.0387 -0.2324
 9012SOL     OW33896   2.021   7.847   3.951  0.3013  0.3096 -0.7256
 9012SOL    HW133897   2.063   7.773   3.996 -0.6838 -0.5024 -1.1044
 9012SOL    HW233898   2.085   7.874   3.885  1.4428  1.0263  0.6201
 9013SOL     OW33899   1.482   1.615  10.981  0.0740 -0.7502 -0.3160
 9013SOL    HW133900   1.397   1.601  11.021  0.0819 -1.1435 -0.4382
 9013SOL    HW233901   1.464   1.621  10.887  0.1809 -0.8281 -0.3418
 9014SOL     OW33902  11.731   9.761   1.702 -0.1072  0.4536  0.0789
 9014SOL    HW133903  11.758   9.851   1.723 -0.4371  0.5051  0.2725
 9014SOL    HW233904  11.636   9.765   1.699 -0.0787  0.4908 -1.5795
 9015SOL     OW33905  10.687   3.265   3.477  0.4920 -0.2517 -0.4578
 9015SOL    HW133906  10.627   3.206   3.524  0.1716 -0.2889 -0.9138
 9015SOL    HW233907  10.642   3.285   3.395  1.1360 -0.3372 -0.8384
 9016SOL     OW33908   5.311   5.411   5.105  0.2848  0.1765  0.1170
 9016SOL    HW133909   5.343   5.441   5.020 -0.0971 -0.9709 -0.4515
 9016SOL    HW233910   5.381   5.434   5.167  0.9239  0.2907 -0.6353
 9017SOL     OW33911  11.975   0.206   0.236 -0.1471  0.1638  0.1652
 9017SOL    HW133912  12.063   0.242   0.240 -0.1597  0.3346 -0.8536
 9017SOL    HW233913  11.943   0.209   0.326  0.5038  1.0497  0.3740
 9018SOL     OW33914   6.243  12.113   6.260 -0.0787 -0.4607 -0.1396
 9018SOL    HW133915   6.215  12.120   6.351 -1.2622  1.3772 -0.6025
 9018SOL    HW233916   6.326  12.065   6.264  0.0347 -0.1585  1.9209
 9019SOL     OW33917   9.086   9.087   1.249  0.0579  0.5625 -0.4828
 9019SOL    HW133918   9.031   9.164   1.261  0.0835  0.4646  0.3696
 9019SOL    HW233919   9.029   9.023   1.207  0.2824  1.3114 -2.0037
 9020SOL     OW33920  10.920  12.308   0.353  0.0075 -0.1747  0.3519
 9020SOL    HW133921  10.909  12.311   0.448  0.9134 -0.7548  0.4826
 9020SOL    HW233922  10.990  12.244   0.338  0.2924  0.3519 -0.6723
 9021SOL     OW33923   9.630   6.867   8.930 -0.1267  0.0609  0.4762
 9021SOL    HW133924   9.548   6.817   8.930  0.4841 -1.0126 -1.2936
 9021SOL    HW233925   9.603   6.956   8.906 -0.8606 -0.0660  0.7817
 9022SOL     OW33926   1.216   0.365  11.090  0.4230 -0.0182  0.1184
 9022SOL    HW133927   1.244   0.282  11.128  0.2041 -1.1331 -2.0186
 9022SOL    HW233928   1.282   0.385  11.023  0.9117  1.9819  1.1187
 9023SOL     OW33929  12.251   8.824   5.415 -0.4120 -0.1538  0.2920
 9023SOL    HW133930  12.220   8.827   5.325  0.5620  0.3208 -0.0411
 9023SOL    HW233931  12.208   8.899   5.457 -2.4474 -1.5199  0.7829
 9024SOL     OW33932   1.227   1.435  11.070  0.3131  0.4860 -0.2009
 9024SOL    HW133933   1.194   1.470  11.152  0.0498 -0.8273  0.2830
 9024SOL    HW233934   1.294   1.372  11.096 -0.8156 -1.0845 -0.8587
 9025SOL     OW33935   5.726  10.130  10.131  0.2289 -0.0789 -0.4953
 9025SOL    HW133936   5.819  10.123  10.113  0.2569  1.1723 -0.9388
 9025SOL    HW233937   5.714  10.221  10.158 -0.5522 -0.7019  1.4617
 9026SOL     OW33938   8.328   5.751   1.190 -0.1461 -0.0786  0.1556
 9026SOL    HW133939   8.249   5.716   1.149 -1.2274  1.1537  1.1150
 9026SOL    HW233940   8.385   5.675   1.201 -1.9118 -1.3316  1.0589
 9027SOL     OW33941   8.544   6.548   1.387 -0.4370 -0.2979 -0.3012
 9027SOL    HW133942   8.546   6.526   1.480 -1.5678  0.4096 -0.0889
 9027SOL    HW233943   8.529   6.464   1.343 -0.0404 -0.6161  0.1601
 9028SOL     OW33944   0.205   5.418   8.238 -0.0361  0.2855 -0.2709
 9028SOL    HW133945   0.116   5.441   8.213 -0.1420  0.9811  0.6905
 9028SOL    HW233946   0.206   5.425   8.334  0.8823 -0.3312 -0.2186
 9029SOL     OW33947   5.862   2.373   0.285 -0.3454  0.3365 -0.2308
 9029SOL    HW133948   5.897   2.306   0.344 -1.0646  0.1008 -0.0710
 9029SOL    HW233949   5.843   2.326   0.204 -0.8640  0.3434 -0.1138
 9030SOL     OW33950  11.311   2.911  11.900 -0.4392 -0.0064 -0.0406
 9030SOL    HW133951  11.232   2.860  11.885 -0.3313  0.0078 -0.6793
 9030SOL    HW233952  11.300   2.989  11.846 -0.5830  0.6355  0.8864
 9031SOL     OW33953   4.793   3.913   9.557  0.1615  0.0995 -0.0352
 9031SOL    HW133954   4.868   3.929   9.500 -0.0567 -1.8374 -0.9371
 9031SOL    HW233955   4.832   3.882   9.639  0.3916 -0.3328 -0.3025
 9032SOL     OW33956   0.282   3.770   3.718  0.7452 -0.1864 -0.5043
 9032SOL    HW133957   0.370   3.740   3.698 -0.7964 -4.0090 -2.6900
 9032SOL    HW233958   0.253   3.714   3.791  0.2728  1.4322  0.6015
 9033SOL     OW33959  11.373   7.476   3.055  0.5165 -0.4794  0.0063
 9033SOL    HW133960  11.407   7.564   3.071 -0.3124 -0.1683  0.1075
 9033SOL    HW233961  11.409   7.423   3.127  1.0163 -0.2304 -0.0552
 9034SOL     OW33962  11.496   2.867  10.778  0.3462  0.0050  0.5035
 9034SOL    HW133963  11.554   2.855  10.703  0.1139 -0.3652  0.3744
 9034SOL    HW233964  11.419   2.910  10.741  0.1519 -0.3500  0.4868
 9035SOL     OW33965   5.202   8.259   3.474 -0.1067 -0.2000 -0.1307
 9035SOL    HW133966   5.256   8.180   3.479  0.1830 -0.2292 -2.6069
 9035SOL    HW233967   5.260   8.330   3.499  0.9656 -0.3105 -2.1263
 9036SOL     OW33968   3.423   8.377   8.597 -0.2302 -0.2321  0.4565
 9036SOL    HW133969   3.333   8.358   8.623  0.2727 -1.5897  1.3104
 9036SOL    HW233970   3.473   8.373   8.679  0.6723  0.1287 -0.0588
 9037SOL     OW33971  10.186   0.204   5.371  0.1784  0.4192  0.2424
 9037SOL    HW133972  10.091   0.214   5.365  0.0204 -0.8429  0.3426
 9037SOL    HW233973  10.213   0.270   5.435 -0.6307  0.7329  0.2782
 9038SOL     OW33974  11.245   5.617   2.135  0.4958  0.4369 -0.5578
 9038SOL    HW133975  11.282   5.670   2.065 -0.4075  0.2414 -1.2101
 9038SOL    HW233976  11.254   5.527   2.104 -0.9561  0.4077 -0.9770
 9039SOL     OW33977   6.525   8.809   8.193  0.7219 -0.3794 -0.0450
 9039SOL    HW133978   6.490   8.726   8.227  0.1920 -0.3989 -0.6251
 9039SOL    HW233979   6.448   8.858   8.164  0.9648  0.6133  0.9137
 9040SOL     OW33980   0.529   4.641   8.604 -0.1196  0.2464  0.3623
 9040SOL    HW133981   0.445   4.654   8.560  0.1177  1.2204  0.1837
 9040SOL    HW233982   0.513   4.666   8.695 -0.2030 -0.2729  0.4962
 9041SOL     OW33983   1.594   0.972   1.205  0.1457  0.1668 -0.0907
 9041SOL    HW133984   1.502   0.946   1.198  0.4882 -0.9931 -0.4379
 9041SOL    HW233985   1.619   0.994   1.115  0.6603 -1.1635 -0.2959
 9042SOL     OW33986   7.727   8.313   5.374  0.0253  0.2457  0.3531
 9042SOL    HW133987   7.704   8.232   5.418 -0.6942  0.3035  0.0931
 9042SOL    HW233988   7.647   8.366   5.376  0.0619  0.3769 -0.7325
 9043SOL     OW33989   3.598   6.943   4.352 -0.4498  0.6854 -0.0727
 9043SOL    HW133990   3.671   6.993   4.388  0.9657 -1.4874  0.2838
 9043SOL    HW233991   3.639   6.871   4.303 -2.3267 -0.4884 -0.0469
 9044SOL     OW33992   1.957   1.845  11.354  0.0702 -0.1904  0.3105
 9044SOL    HW133993   1.876   1.835  11.403  0.6531  0.2494  1.3913
 9044SOL    HW233994   1.944   1.792  11.276 -1.6390  0.6652 -0.0334
 9045SOL     OW33995   6.240   2.082  10.215 -0.4208  0.1567 -0.3686
 9045SOL    HW133996   6.322   2.098  10.261 -1.2521  0.8741  0.9293
 9045SOL    HW233997   6.265   2.069  10.124  1.0383  1.3091 -0.1604
 9046SOL     OW33998   1.044   9.303  10.665  0.6318 -0.0994 -0.0286
 9046SOL    HW133999   1.133   9.336  10.655  0.1178  1.5093  0.4683
 9046SOL    HW234000   1.033   9.289  10.759  1.0861 -2.5294 -0.2692
 9047SOL     OW34001   8.966   8.311  11.439 -0.3828 -0.0138  0.4258
 9047SOL    HW134002   8.958   8.338  11.531 -1.5801 -0.1855  0.3902
 9047SOL    HW234003   9.031   8.370  11.402  3.3577 -2.4790  2.3525
 9048SOL     OW34004   9.558   4.632   1.300 -0.0495 -0.1496 -0.4337
 9048SOL    HW134005   9.559   4.618   1.205  0.0865 -1.1329 -0.2968
 9048SOL    HW234006   9.467   4.655   1.320 -0.1097 -0.0806 -0.7776
 9049SOL     OW34007   0.236   1.912   0.719 -0.2979 -0.5043  0.3241
 9049SOL    HW134008   0.189   1.975   0.664  0.4788 -0.6145 -0.4899
 9049SOL    HW234009   0.170   1.879   0.780 -0.9233  0.4142  0.1516
 9050SOL     OW34010   8.692   5.449   5.981 -0.0344 -0.1689 -0.1933
 9050SOL    HW134011   8.702   5.508   6.056 -0.1920 -0.0280 -0.2835
 9050SOL    HW234012   8.658   5.504   5.911 -3.4167 -0.9553  0.6504
 9051SOL     OW34013   8.363   8.243   2.681  0.0495 -0.4913  0.4316
 9051SOL    HW134014   8.364   8.286   2.596 -0.6310 -0.3365  0.5006
 9051SOL    HW234015   8.276   8.203   2.687 -0.3152  0.4314  1.5220
 9052SOL     OW34016   4.839   4.386   3.458 -0.1935 -0.4802 -0.2932
 9052SOL    HW134017   4.748   4.415   3.467 -0.3118 -1.0095  0.2881
 9052SOL    HW234018   4.844   4.350   3.370 -0.4070  0.0237 -0.5182
 9053SOL     OW34019   6.308   0.853  10.791  0.4047  0.0910  0.1731
 9053SOL    HW134020   6.225   0.855  10.744  1.1008 -0.0651 -1.1173
 9053SOL    HW234021   6.287   0.816  10.876 -0.5014 -1.9679 -0.8756
 9054SOL     OW34022   1.107  10.374  11.656 -0.5004  0.0584 -0.5115
 9054SOL    HW134023   1.156  10.376  11.738 -2.5862 -0.6542  0.8370
 9054SOL    HW234024   1.128  10.457  11.614 -0.4458  1.0904  1.4236
 9055SOL     OW34025  10.533  10.234   7.704 -0.0931  0.4556 -0.0852
 9055SOL    HW134026  10.609  10.292   7.701 -0.6563  1.2104  0.0770
 9055SOL    HW234027  10.457  10.292   7.705 -0.6575 -0.2562  1.0089
 9056SOL     OW34028   8.433   1.861   7.267 -0.3245 -0.3285  0.6136
 9056SOL    HW134029   8.388   1.879   7.349 -0.2813 -0.3138  0.6342
 9056SOL    HW234030   8.381   1.792   7.226 -0.4346 -0.2265  0.5808
 9057SOL     OW34031   7.056   9.380  11.453  0.6311 -0.3289 -0.0789
 9057SOL    HW134032   6.999   9.346  11.522  0.2694  0.7904  0.1837
 9057SOL    HW234033   7.013   9.459  11.422  2.2695  0.8263  0.4688
 9058SOL     OW34034   6.383   2.021   7.006 -0.3244 -0.2051 -0.1260
 9058SOL    HW134035   6.338   2.100   7.036 -0.2782  0.6327 -2.0796
 9058SOL    HW234036   6.354   2.011   6.915  0.2456 -2.0345 -0.1470
 9059SOL     OW34037   4.151  12.393  11.017  0.3307 -0.0998  0.2307
 9059SOL    HW134038   4.209  12.436  11.080  0.0298  1.4007 -0.4789
 9059SOL    HW234039   4.116  12.464  10.964 -0.4040 -1.2144 -0.8271
 9060SOL     OW34040   7.482   7.132   6.183 -0.1578 -0.2224 -0.1678
 9060SOL    HW134041   7.442   7.046   6.201 -2.2392  0.9280  1.1335
 9060SOL    HW234042   7.550   7.140   6.250 -0.2492 -0.6871 -0.0096
 9061SOL     OW34043   4.932  11.782   7.198 -0.1401 -0.2208  0.0577
 9061SOL    HW134044   4.942  11.781   7.103  0.1521 -0.1826  0.0865
 9061SOL    HW234045   4.854  11.836   7.214 -0.5566 -0.7448 -0.1905
 9062SOL     OW34046   1.407   1.687  11.420  0.5025 -0.4625 -0.2935
 9062SOL    HW134047   1.360   1.745  11.480 -1.3605  0.0220 -2.1196
 9062SOL    HW234048   1.499   1.715  11.426  0.5400 -0.8903  2.7554
 9063SOL     OW34049   8.209   0.429  10.316 -0.4469  0.1339 -0.1209
 9063SOL    HW134050   8.275   0.452  10.380  1.1829 -1.2936 -1.1918
 9063SOL    HW234051   8.132   0.482  10.339  0.6628  0.9458  1.8761
 9064SOL     OW34052   5.948   6.344   9.886 -0.0289  0.1226 -0.0969
 9064SOL    HW134053   5.942   6.307   9.974  2.2998 -1.0639 -0.3441
 9064SOL    HW234054   5.864   6.326   9.846  0.3970 -3.6691  0.3418
 9065SOL     OW34055   0.614   4.697   2.908  0.0727  0.2166  0.4502
 9065SOL    HW134056   0.695   4.669   2.950 -1.1061 -0.9155  2.1110
 9065SOL    HW234057   0.572   4.756   2.972 -0.4506  0.7200 -0.3376
 9066SOL     OW34058   1.785   7.429   3.025  0.1876  0.1719  0.2912
 9066SOL    HW134059   1.695   7.402   3.045  0.4596  0.3768  1.9739
 9066SOL    HW234060   1.782   7.525   3.030  0.8135  0.1430  2.1001
 9067SOL     OW34061  12.162   4.468   6.746  0.3247 -0.3561 -0.3044
 9067SOL    HW134062  12.120   4.541   6.790  2.8028  0.4707  0.9029
 9067SOL    HW234063  12.191   4.411   6.818  1.7186 -0.5676 -0.9979
 9068SOL     OW34064   7.305  12.369  10.475  0.7172 -0.2488  0.0944
 9068SOL    HW134065   7.288  12.454  10.515 -2.9507 -0.4260 -0.7176
 9068SOL    HW234066   7.331  12.312  10.548 -0.0016  0.8011  1.1897
 9069SOL     OW34067   4.045   9.878   1.719 -0.4288 -0.3621  0.5823
 9069SOL    HW134068   4.059   9.916   1.805 -0.6275  0.3673  0.2977
 9069SOL    HW234069   4.105   9.925   1.661 -2.1793  1.0480 -0.1735
 9070SOL     OW34070  12.356   6.050   0.748 -0.7910 -0.0595 -0.1279
 9070SOL    HW134071  12.433   6.067   0.693 -0.7147  1.5135  0.4266
 9070SOL    HW234072  12.368   5.960   0.779 -1.0547 -1.1935 -2.9806
 9071SOL     OW34073   0.784   5.325   6.533  0.3636 -0.5497  0.5534
 9071SOL    HW134074   0.762   5.382   6.607  1.4753  0.0052  0.4722
 9071SOL    HW234075   0.832   5.252   6.573  1.7646  0.2103  0.2867
 9072SOL     OW34076   0.068   3.064   4.359 -0.5763  0.0162  0.0413
 9072SOL    HW134077   0.098   3.151   4.385 -0.3500 -0.0804  0.1046
 9072SOL    HW234078   0.100   3.005   4.428 -2.1407  0.1021  0.8658
 9073SOL     OW34079  12.466   3.123  11.751  0.3155 -0.7860  0.4685
 9073SOL    HW134080  12.439   3.207  11.714  1.6963 -1.8809 -3.5535
 9073SOL    HW234081  12.540   3.144  11.808  0.4512  0.7756 -0.2376
 9074SOL     OW34082   7.476   4.249   8.342 -0.8582  0.8223  0.5229
 9074SOL    HW134083   7.409   4.287   8.285 -0.8371 -0.0083 -0.0705
 9074SOL    HW234084   7.456   4.155   8.344 -1.1068  0.8732  2.2198
 9075SOL     OW34085   7.212   1.464   8.796 -0.1522  0.5935 -0.2522
 9075SOL    HW134086   7.273   1.392   8.812  1.5655  1.3063 -2.8383
 9075SOL    HW234087   7.131   1.422   8.768  0.4352 -0.3507 -0.5539
 9076SOL     OW34088   9.353   8.627   8.589  0.8273 -0.1401  0.6193
 9076SOL    HW134089   9.359   8.687   8.514 -0.9119  0.1930  0.7039
 9076SOL    HW234090   9.342   8.541   8.550 -0.2912  0.0587  0.4589
 9077SOL     OW34091   9.043   0.025  11.870  0.0219  0.0658  0.3410
 9077SOL    HW134092   8.973   0.067  11.919  0.2026  1.2371 -0.3485
 9077SOL    HW234093   9.123   0.065  11.904  0.2753 -0.4456  0.3543
 9078SOL     OW34094   0.478   1.245   4.049  0.4984 -0.4981 -0.3879
 9078SOL    HW134095   0.497   1.279   4.136  0.4382  0.0324 -0.5770
 9078SOL    HW234096   0.383   1.239   4.045  0.3480  1.6259 -1.1901
 9079SOL     OW34097  11.551   1.500   4.723 -0.2155 -0.0288  0.1533
 9079SOL    HW134098  11.509   1.581   4.694  0.6511  0.3973  0.0439
 9079SOL    HW234099  11.626   1.490   4.664  0.0275 -0.5993  0.5511
 9080SOL     OW34100  10.260  10.398   4.708 -0.1133  0.3411 -0.3645
 9080SOL    HW134101  10.337  10.358   4.668  0.0313 -0.1965  0.4320
 9080SOL    HW234102  10.194  10.328   4.710 -0.2844  0.5035 -0.1311
 9081SOL     OW34103   1.688  10.622   1.531  0.3111  0.0165 -0.2985
 9081SOL    HW134104   1.669  10.716   1.537  0.7677  0.0821  0.1510
 9081SOL    HW234105   1.603  10.580   1.545  0.2190  0.3468  0.1651
 9082SOL     OW34106   2.200   8.366   5.889  0.2830 -0.4450  0.7673
 9082SOL    HW134107   2.229   8.279   5.916  0.7158 -0.3758  0.5266
 9082SOL    HW234108   2.137   8.391   5.956  0.0152 -1.0201  0.7356
 9083SOL     OW34109   4.169  11.380   3.779  0.3480  0.5228 -0.2629
 9083SOL    HW134110   4.131  11.292   3.783 -2.5764  1.7291  2.3404
 9083SOL    HW234111   4.142  11.415   3.695 -0.7669 -0.1508 -0.2017
 9084SOL     OW34112   7.106  10.910   8.303 -0.3399  0.4375 -0.4867
 9084SOL    HW134113   7.158  10.845   8.257  1.0481  0.8809  0.4052
 9084SOL    HW234114   7.063  10.862   8.374  0.8468  0.5008  0.2992
 9085SOL     OW34115   6.309   8.139   4.492 -0.0677  0.4108 -0.1265
 9085SOL    HW134116   6.342   8.223   4.525  1.6669  0.4616 -1.8283
 9085SOL    HW234117   6.332   8.139   4.399  0.3210 -2.1247 -0.0916
 9086SOL     OW34118   1.390   2.714   1.774  0.6044  0.1384  0.1835
 9086SOL    HW134119   1.367   2.711   1.867  0.3393  0.0542  0.1152
 9086SOL    HW234120   1.307   2.701   1.728  0.9409 -1.2187 -0.0601
 9087SOL     OW34121   9.585  11.196  10.653  0.1391 -0.2669 -0.3351
 9087SOL    HW134122   9.646  11.223  10.721  1.7522 -1.9895 -0.9971
 9087SOL    HW234123   9.605  11.254  10.579  1.3670 -1.1507 -0.7166
 9088SOL     OW34124   2.741   5.610   2.620 -0.1617 -0.0414 -0.5969
 9088SOL    HW134125   2.775   5.683   2.569 -3.0486  2.3855  0.6401
 9088SOL    HW234126   2.651   5.599   2.589 -1.0845 -0.3413  1.9472
 9089SOL     OW34127   2.891   8.486  11.829 -0.4979 -0.4526 -0.3740
 9089SOL    HW134128   2.950   8.547  11.874 -2.1686  0.8309  0.1644
 9089SOL    HW234129   2.811   8.487  11.881 -1.2122 -1.7280 -1.3867
 9090SOL     OW34130   4.063   6.761  11.270  0.4050  0.2531  0.0501
 9090SOL    HW134131   4.054   6.764  11.175  0.0526 -1.5646 -0.0070
 9090SOL    HW234132   3.974   6.762  11.303  0.2953 -2.6461  0.1400
 9091SOL     OW34133   1.425   1.805   2.490 -0.2202 -0.6434  0.0016
 9091SOL    HW134134   1.506   1.803   2.541 -0.8294  0.1770  1.0680
 9091SOL    HW234135   1.453   1.816   2.399  0.8451  0.4203  0.4415
 9092SOL     OW34136   9.828   6.562   7.576 -0.1031 -0.7332 -0.2872
 9092SOL    HW134137   9.907   6.552   7.630  0.0952 -0.7307 -0.5698
 9092SOL    HW234138   9.763   6.506   7.618 -0.1689 -0.1829  0.3567
 9093SOL     OW34139   1.866  12.265  11.168 -0.3993 -0.0983  0.1455
 9093SOL    HW134140   1.889  12.334  11.230  0.2253  0.7841 -1.0324
 9093SOL    HW234141   1.948  12.217  11.155  0.4928  1.9497 -2.6952
 9094SOL     OW34142  10.226   8.954   7.177  0.2417  0.3438 -0.1564
 9094SOL    HW134143  10.139   8.980   7.208  0.0244  0.3094 -0.7282
 9094SOL    HW234144  10.285   9.014   7.222 -0.0464  0.1794  0.4645
 9095SOL     OW34145   1.386  10.326   9.805  0.3039 -0.1469 -0.1897
 9095SOL    HW134146   1.325  10.271   9.854  0.7841  0.3177  0.9746
 9095SOL    HW234147   1.330  10.374   9.743 -0.6700  0.8965  1.4135
 9096SOL     OW34148   6.600  10.538   0.541 -0.0796 -0.3732  0.6375
 9096SOL    HW134149   6.595  10.443   0.546 -0.1501 -0.4323 -0.3267
 9096SOL    HW234150   6.530  10.562   0.479  0.7380  0.1858 -0.0918
 9097SOL     OW34151   8.817   6.248   0.294 -0.1780 -0.1868 -0.3392
 9097SOL    HW134152   8.840   6.155   0.291 -1.0258 -0.4054 -0.2250
 9097SOL    HW234153   8.892   6.293   0.254 -0.9671 -1.1199 -3.0726
 9098SOL     OW34154  11.412   2.463  11.446  0.4720 -0.0733 -0.3451
 9098SOL    HW134155  11.353   2.398  11.483  1.7807 -0.9405  0.2970
 9098SOL    HW234156  11.493   2.453  11.496  1.1225  1.1720 -1.0997
 9099SOL     OW34157   4.589   8.215  11.330 -0.2925 -0.2950  0.5471
 9099SOL    HW134158   4.544   8.160  11.394  0.2098 -2.7042 -1.0299
 9099SOL    HW234159   4.585   8.166  11.248 -2.0402  3.1755 -1.7170
 9100SOL     OW34160   1.082   3.060   9.400 -0.5865 -0.1807  0.2552
 9100SOL    HW134161   1.056   3.013   9.320  0.1235  0.1323 -0.1661
 9100SOL    HW234162   1.094   2.990   9.465 -1.7003 -0.3941  0.2525
 9101SOL     OW34163  11.412   1.964   7.124  0.1293  0.3030 -0.4751
 9101SOL    HW134164  11.351   1.966   7.050 -1.9085 -1.8632  0.9849
 9101SOL    HW234165  11.462   1.884   7.112 -0.2603 -0.1019  0.4637
 9102SOL     OW34166   4.273   8.820   3.904  0.6015 -0.2545  0.2874
 9102SOL    HW134167   4.355   8.870   3.908  0.6547 -0.2819 -0.2785
 9102SOL    HW234168   4.210   8.872   3.953  1.3177 -0.9680  2.0471
 9103SOL     OW34169   1.759   6.676  10.455  0.0619 -0.4103  0.4110
 9103SOL    HW134170   1.675   6.635  10.435  0.3524 -0.8940  0.1589
 9103SOL    HW234171   1.736   6.758  10.499 -0.5369 -0.5852  0.4336
 9104SOL     OW34172  10.936   6.547  10.706  0.1906 -0.0649  0.5427
 9104SOL    HW134173  10.933   6.456  10.737 -1.3617 -0.2095  0.0096
 9104SOL    HW234174  11.016   6.551  10.652  1.4373 -0.5249  2.2590
 9105SOL     OW34175   5.296   9.132  11.590 -0.1643  0.0661 -0.0297
 9105SOL    HW134176   5.356   9.113  11.662  0.5167  0.2586 -0.5369
 9105SOL    HW234177   5.319   9.069  11.522 -1.0541 -0.3635  0.0491
 9106SOL     OW34178  12.074   8.806  10.045 -0.6125 -0.2704  0.6340
 9106SOL    HW134179  12.086   8.713  10.026  1.9712 -0.1604  1.3514
 9106SOL    HW234180  11.980   8.820  10.038 -0.9527 -2.6618 -0.6644
 9107SOL     OW34181   5.434   1.815   3.790  0.1397 -0.1667  0.2014
 9107SOL    HW134182   5.363   1.750   3.797 -1.0346  1.1511  1.2638
 9107SOL    HW234183   5.511   1.769   3.823 -0.4464 -1.3199  0.0284
 9108SOL     OW34184   7.739   2.846   8.048  0.0086  0.5451  0.4994
 9108SOL    HW134185   7.796   2.845   7.972  0.3278  1.0425  0.7273
 9108SOL    HW234186   7.650   2.851   8.012  0.1985  1.8330  0.1702
 9109SOL     OW34187   2.665   6.611   4.951  0.0890  0.0272 -0.1081
 9109SOL    HW134188   2.660   6.609   4.856  0.1911 -0.2018 -0.1077
 9109SOL    HW234189   2.758   6.602   4.971  0.3037  2.0643 -0.0359
 9110SOL     OW34190   0.180   8.747   1.306 -0.7138 -0.2475 -1.0940
 9110SOL    HW134191   0.140   8.788   1.382  0.5742  2.1789 -1.6257
 9110SOL    HW234192   0.162   8.808   1.234  1.3232 -0.5589 -1.9275
 9111SOL     OW34193   9.674   9.741  11.887 -0.1957 -0.0102 -0.4238
 9111SOL    HW134194   9.656   9.704  11.974 -1.2107  0.4064 -0.4407
 9111SOL    HW234195   9.768   9.757  11.886  0.0220 -1.1616  0.1497
 9112SOL     OW34196   6.112   6.842  12.182  0.0236  0.1182  0.2881
 9112SOL    HW134197   6.196   6.825  12.140  1.0294  1.3711  1.6961
 9112SOL    HW234198   6.103   6.773  12.248  1.4812  1.6652  2.2329
 9113SOL     OW34199   9.541   2.945   6.030 -0.0804 -0.2994  0.1567
 9113SOL    HW134200   9.553   3.010   5.960 -0.2905 -0.8535 -0.4012
 9113SOL    HW234201   9.534   2.862   5.984  1.0703 -0.8337  0.9278
 9114SOL     OW34202   1.874  12.287   7.857 -0.1733 -0.0523  0.2908
 9114SOL    HW134203   1.801  12.348   7.870 -0.7403 -0.9523  1.4821
 9114SOL    HW234204   1.877  12.236   7.938  0.6472 -1.2288 -0.4566
 9115SOL     OW34205   0.255   6.004   8.491 -0.2752 -0.0974 -0.7035
 9115SOL    HW134206   0.340   6.044   8.510 -0.3913  0.0914 -0.5803
 9115SOL    HW234207   0.256   5.990   8.396  0.3947 -1.2500 -0.5415
 9116SOL     OW34208   6.972  11.882   5.932 -0.2784  0.4820  0.0244
 9116SOL    HW134209   6.906  11.887   5.862 -0.2097  1.5522  0.0200
 9116SOL    HW234210   6.920  11.882   6.013 -0.3020  0.8973  0.0107
 9117SOL     OW34211   1.091   9.025   4.590  0.0880 -0.0679 -0.3849
 9117SOL    HW134212   1.017   9.074   4.556 -0.9300 -0.2957  1.3507
 9117SOL    HW234213   1.051   8.951   4.636  1.5476 -2.8552 -3.2221
 9118SOL     OW34214   2.260   8.775   7.682 -0.1958 -0.1279 -0.1097
 9118SOL    HW134215   2.305   8.717   7.744 -0.0006 -0.6961 -0.7672
 9118SOL    HW234216   2.214   8.838   7.738  2.0700  1.0150  0.5843
 9119SOL     OW34217  11.524   4.938   1.199  0.4834  0.1012 -0.6876
 9119SOL    HW134218  11.550   5.029   1.212  2.5269 -0.3679 -1.1519
 9119SOL    HW234219  11.456   4.942   1.131  0.0247  1.3243 -0.1782
 9120SOL     OW34220   3.071  11.150   9.173 -0.1574  0.2403  0.5574
 9120SOL    HW134221   3.106  11.207   9.105 -0.5476  0.0368  0.1820
 9120SOL    HW234222   2.995  11.108   9.133  0.6789 -1.2883  0.4834
 9121SOL     OW34223  10.439   8.602   6.908  0.3670  0.5976  0.0992
 9121SOL    HW134224  10.480   8.666   6.849 -0.2851  1.8295  0.9306
 9121SOL    HW234225  10.366   8.650   6.947  0.1973 -0.5012  1.1660
 9122SOL     OW34226   4.130   0.649   3.207  0.2328 -0.1956 -0.2149
 9122SOL    HW134227   4.079   0.574   3.237 -0.7187  0.5736  0.1346
 9122SOL    HW234228   4.194   0.664   3.277 -0.4308  0.1275  0.3266
 9123SOL     OW34229   0.347  11.114   0.614  0.0165  0.1855  0.4665
 9123SOL    HW134230   0.439  11.138   0.602  0.3859 -1.3453 -0.1253
 9123SOL    HW234231   0.325  11.064   0.535 -1.3563  0.6165  0.5587
 9124SOL     OW34232  11.447   4.767   1.591 -0.5185 -0.8588  0.3404
 9124SOL    HW134233  11.513   4.796   1.527 -0.8638 -1.1714 -0.1696
 9124SOL    HW234234  11.498   4.734   1.665 -0.1104  0.0193  0.4656
 9125SOL     OW34235   5.237   1.410   5.064 -0.0083  0.0457 -0.5728
 9125SOL    HW134236   5.308   1.438   5.008 -1.7844  1.2999 -2.3233
 9125SOL    HW234237   5.164   1.392   5.004 -1.5861  0.1299  1.2234
 9126SOL     OW34238  10.673   9.134   7.166 -0.0513  0.1577  0.0420
 9126SOL    HW134239  10.752   9.179   7.134 -1.0733  0.6966 -1.8972
 9126SOL    HW234240  10.673   9.051   7.119 -1.1092  0.5746 -0.7439
 9127SOL     OW34241   6.894   2.977   6.601 -0.0556  0.3475 -0.0351
 9127SOL    HW134242   6.909   3.018   6.516 -0.1938  2.6935  0.9730
 9127SOL    HW234243   6.801   2.992   6.618 -0.6831 -2.4160 -0.5295
 9128SOL     OW34244   8.215   8.077   4.726 -0.3037 -0.7071  0.1428
 9128SOL    HW134245   8.135   8.027   4.709 -0.4358 -0.8380  1.1198
 9128SOL    HW234246   8.194   8.165   4.696 -0.9334 -0.6677  0.6599
 9129SOL     OW34247   5.615   7.934   1.233 -0.3527 -0.2368 -0.3573
 9129SOL    HW134248   5.589   7.977   1.315 -1.0184  0.1730 -0.7768
 9129SOL    HW234249   5.642   7.846   1.259  0.3415  0.1928  0.4239
 9130SOL     OW34250   0.632  10.165   8.821  0.5038  0.5460  0.1676
 9130SOL    HW134251   0.611  10.163   8.728  0.7781  0.7881  0.0980
 9130SOL    HW234252   0.566  10.223   8.859 -0.8168 -1.0633  0.4516
 9131SOL     OW34253   4.830   6.165   7.555 -0.0488  0.2661 -0.2588
 9131SOL    HW134254   4.881   6.244   7.573  0.4362  0.0991 -0.8541
 9131SOL    HW234255   4.880   6.119   7.487 -1.2468  0.3447 -1.2383
 9132SOL     OW34256  10.197  10.137   6.601 -0.0468  0.1446  0.1766
 9132SOL    HW134257  10.106  10.116   6.579  0.1624 -0.2626 -0.3038
 9132SOL    HW234258  10.248  10.066   6.562  0.3403 -0.6409  1.9824
 9133SOL     OW34259   8.598   3.984  11.003  0.7609 -0.4240  0.3783
 9133SOL    HW134260   8.655   4.049  10.961 -0.5283  0.4819 -0.0403
 9133SOL    HW234261   8.549   3.945  10.931  0.0714 -0.3960  0.8212
 9134SOL     OW34262   4.726   5.608   5.011 -0.0491 -0.8650  0.1492
 9134SOL    HW134263   4.645   5.593   5.059 -1.3429  2.9048 -0.4670
 9134SOL    HW234264   4.764   5.685   5.053  1.4957 -0.6000 -1.6190
 9135SOL     OW34265   0.840   0.974   6.170  0.2002 -0.2139 -0.5490
 9135SOL    HW134266   0.883   0.891   6.192  0.5545 -0.4477 -2.0065
 9135SOL    HW234267   0.907   1.023   6.123  0.2193  1.2151  0.8584
 9136SOL     OW34268   6.766   0.622   6.179 -1.2651  0.1459 -0.7423
 9136SOL    HW134269   6.752   0.556   6.246  2.4652 -1.0197 -0.8578
 9136SOL    HW234270   6.860   0.616   6.159 -1.1721  3.9451 -2.3992
 9137SOL     OW34271   3.006   7.568   4.541 -0.4723  0.2802  0.7153
 9137SOL    HW134272   2.977   7.509   4.610 -0.3751 -1.1176 -0.4064
 9137SOL    HW234273   3.097   7.544   4.525 -0.8619 -0.3025 -0.7744
 9138SOL     OW34274   8.013   4.077   9.973 -0.5195  0.6553  0.0236
 9138SOL    HW134275   7.923   4.055   9.949 -0.2345 -1.1270  0.4149
 9138SOL    HW234276   8.019   4.056  10.066  0.5080 -0.0951 -0.1919
 9139SOL     OW34277   7.334   5.366   2.725  0.4509  0.1502 -0.1834
 9139SOL    HW134278   7.316   5.300   2.792 -0.6698 -0.9106 -1.4872
 9139SOL    HW234279   7.420   5.342   2.690  2.1368  2.0269  2.3135
 9140SOL     OW34280   5.255   3.954   2.004  0.0223 -0.2607  0.1316
 9140SOL    HW134281   5.231   3.861   2.006 -3.4414  0.4840  2.0470
 9140SOL    HW234282   5.188   3.994   1.948  0.6094  1.2598  0.4787
 9141SOL     OW34283   7.368   2.086   5.325  0.4724 -0.2636  0.1963
 9141SOL    HW134284   7.330   2.165   5.364  1.9852 -0.3436  1.9598
 9141SOL    HW234285   7.378   2.108   5.232 -0.3909  1.0845  0.3857
 9142SOL     OW34286   9.006  10.470   7.905 -0.2007 -0.3394  0.1327
 9142SOL    HW134287   8.992  10.378   7.882 -0.5239 -0.6608  1.5209
 9142SOL    HW234288   8.981  10.476   7.998  0.4557  1.0027  0.2537
 9143SOL     OW34289   4.835   9.702   2.169 -0.0003 -0.3893 -0.2842
 9143SOL    HW134290   4.900   9.772   2.161 -0.1033 -0.3213 -0.5629
 9143SOL    HW234291   4.867   9.633   2.111 -1.7607  0.8872 -3.0137
 9144SOL     OW34292  10.041  10.458   9.964 -0.1628 -0.0444  0.1153
 9144SOL    HW134293  10.033  10.544  10.008  0.2675  0.9359 -1.6414
 9144SOL    HW234294   9.981  10.464   9.890  0.9360 -0.7021 -0.8559
 9145SOL     OW34295   8.341   7.768   6.084 -0.1600  0.4930  0.5583
 9145SOL    HW134296   8.385   7.842   6.126 -1.3891  1.8572 -0.4338
 9145SOL    HW234297   8.289   7.728   6.154  2.1147 -0.7940  1.5976
 9146SOL     OW34298   9.959   7.252   6.371  0.6328  0.6992 -0.4372
 9146SOL    HW134299  10.009   7.320   6.328  0.6915  0.2957 -1.0173
 9146SOL    HW234300  10.021   7.209   6.430  0.2856  1.9619  0.9116
 9147SOL     OW34301  10.765   6.638  10.497  0.3184 -0.3981 -0.2719
 9147SOL    HW134302  10.829   6.665  10.431  0.9552  0.5544  0.7234
 9147SOL    HW234303  10.817   6.613  10.573 -0.4196 -1.4103 -0.0823
 9148SOL     OW34304   0.546   0.948  11.579  0.1402  0.4709  0.2223
 9148SOL    HW134305   0.512   0.984  11.662 -0.7057  0.3949 -0.0821
 9148SOL    HW234306   0.505   1.002  11.512  0.2896  0.0877 -0.1761
 9149SOL     OW34307   8.745   1.819   4.283  0.3236  0.3514  0.5353
 9149SOL    HW134308   8.652   1.824   4.259  0.2513 -2.4983 -0.0457
 9149SOL    HW234309   8.745   1.817   4.379 -0.1799  0.7113  0.5474
 9150SOL     OW34310   6.144  12.388  11.262 -0.3702 -0.2898 -0.4049
 9150SOL    HW134311   6.069  12.367  11.207 -1.7927  0.3378  1.1959
 9150SOL    HW234312   6.135  12.482  11.278  1.9270  0.2366 -1.7952
 9151SOL     OW34313   5.346   2.184   8.992  0.3205 -0.4339  0.5184
 9151SOL    HW134314   5.254   2.205   9.002  0.1018 -0.4978 -1.1301
 9151SOL    HW234315   5.392   2.262   9.022 -0.1686 -1.0118  2.9763
 9152SOL     OW34316   8.726   5.540   0.581 -0.2426 -0.2073 -0.5942
 9152SOL    HW134317   8.661   5.609   0.595 -1.1396 -1.1323 -0.1107
 9152SOL    HW234318   8.685   5.481   0.518  0.5881 -0.2281 -1.1271
 9153SOL     OW34319   4.249   0.629   6.469 -0.2827 -0.4440  0.2398
 9153SOL    HW134320   4.216   0.542   6.448 -2.5582  0.5604 -0.7417
 9153SOL    HW234321   4.211   0.650   6.554  0.4391 -0.4821  0.5794
 9154SOL     OW34322   9.618   6.404   2.129  0.3346  0.3855 -0.0725
 9154SOL    HW134323   9.670   6.484   2.137  0.4286  0.3840 -0.6505
 9154SOL    HW234324   9.620   6.383   2.036  1.0954 -0.8223  0.1946
 9155SOL     OW34325   7.274  10.119   8.478  0.3263 -0.8359  0.8547
 9155SOL    HW134326   7.218  10.067   8.420 -0.0892 -0.1880  0.6714
 9155SOL    HW234327   7.348  10.144   8.423 -0.5370  0.5966  0.2983
 9156SOL     OW34328   2.924   9.358   7.591 -0.5811 -0.1820  0.2452
 9156SOL    HW134329   2.856   9.318   7.536 -0.5262 -0.2022  0.1913
 9156SOL    HW234330   2.886   9.358   7.679 -0.3281 -0.9424  0.3625
 9157SOL     OW34331   5.068   1.229   6.326 -0.1575  0.0648  1.0156
 9157SOL    HW134332   5.004   1.159   6.314 -1.3117  1.4162 -1.6263
 9157SOL    HW234333   5.016   1.307   6.344  0.9061  0.7669  1.1497
 9158SOL     OW34334  10.962   6.550   8.983  0.4127 -0.4695  0.3588
 9158SOL    HW134335  11.033   6.489   9.002  1.7155  0.8001 -0.2350
 9158SOL    HW234336  10.991   6.597   8.904 -1.1227  0.0296  0.0570
 9159SOL     OW34337  11.927   7.274  11.662 -0.1773  0.6742 -0.2417
 9159SOL    HW134338  11.964   7.343  11.608  2.6521 -0.5329 -0.0011
 9159SOL    HW234339  11.928   7.197  11.606 -0.5553  0.1931  0.3994
 9160SOL     OW34340   6.137   9.857   5.397 -0.1311  0.5118 -0.3471
 9160SOL    HW134341   6.144   9.936   5.451 -1.9470  0.4535  0.0445
 9160SOL    HW234342   6.226   9.826   5.389  0.4251  1.6287  0.9816
 9161SOL     OW34343   8.828   8.876   4.432 -0.2576  0.1765  0.2521
 9161SOL    HW134344   8.838   8.948   4.494  0.2707  0.5013 -0.1953
 9161SOL    HW234345   8.734   8.858   4.431 -0.1301 -0.9507  2.3596
 9162SOL     OW34346  11.419   0.175   1.922 -0.5611  0.6067  0.2873
 9162SOL    HW134347  11.385   0.137   1.841 -1.1213 -0.7066  1.0996
 9162SOL    HW234348  11.512   0.156   1.921 -0.1438  2.4926 -1.0325
 9163SOL     OW34349   1.486   5.810  11.198 -0.6617  0.4405 -0.1912
 9163SOL    HW134350   1.424   5.875  11.167 -1.8701 -0.7071 -0.2889
 9163SOL    HW234351   1.565   5.824  11.146 -0.7808  2.0109  0.0258
 9164SOL     OW34352  10.329  11.669   4.702  0.4273 -0.5575  0.0733
 9164SOL    HW134353  10.367  11.675   4.789  0.6358 -1.9005  0.0837
 9164SOL    HW234354  10.291  11.581   4.697 -2.7339  0.6693  0.0622
 9165SOL     OW34355   7.575   5.954   5.639 -0.3143 -0.0756  0.2419
 9165SOL    HW134356   7.484   5.954   5.610 -0.2899 -1.2070  0.1216
 9165SOL    HW234357   7.626   5.945   5.558 -0.0681  0.9149  0.2734
 9166SOL     OW34358   2.984   5.228   2.729 -0.2408  0.0695 -0.0652
 9166SOL    HW134359   2.983   5.291   2.801 -1.5272 -2.4676  2.2843
 9166SOL    HW234360   3.075   5.198   2.724  0.0890  1.0527 -0.3108
 9167SOL     OW34361  11.200   8.253   8.626 -0.0052 -0.6257  0.0073
 9167SOL    HW134362  11.122   8.287   8.582 -0.1643 -1.3402 -0.2762
 9167SOL    HW234363  11.171   8.237   8.716 -0.1636 -0.7914 -0.0713
 9168SOL     OW34364   8.374   5.759   7.497 -0.2739  0.0983 -0.6485
 9168SOL    HW134365   8.324   5.817   7.440  0.7051  1.0442 -0.5703
 9168SOL    HW234366   8.309   5.722   7.557 -0.7713  2.0437  0.0760
 9169SOL     OW34367   0.869   6.953   1.848  0.0639  0.5482  0.9821
 9169SOL    HW134368   0.775   6.941   1.836  0.0386  0.7666  0.9579
 9169SOL    HW234369   0.897   7.002   1.770  0.1734  0.5993  1.0527
 9170SOL     OW34370   8.465   7.772   5.201 -0.9066 -0.1021  0.3225
 9170SOL    HW134371   8.555   7.795   5.224 -1.0557  0.0958  0.7130
 9170SOL    HW234372   8.472   7.686   5.159 -0.6469 -0.5808  1.3133
 9171SOL     OW34373   6.680   7.090   5.991  0.0257 -0.1014 -0.1128
 9171SOL    HW134374   6.686   7.150   6.065  0.2446 -0.2081 -0.0444
 9171SOL    HW234375   6.586   7.088   5.969  0.0782  0.6553 -0.4451
 9172SOL     OW34376   8.235   0.814   3.771  0.1666 -0.0099  0.2041
 9172SOL    HW134377   8.228   0.847   3.860 -0.8434 -0.4038  0.2850
 9172SOL    HW234378   8.327   0.826   3.748  0.3804  0.3413  1.1992
 9173SOL     OW34379   7.284  10.595   5.525 -0.1668 -0.3029 -0.3729
 9173SOL    HW134380   7.210  10.537   5.509 -0.9030  0.0121  1.6840
 9173SOL    HW234381   7.258  10.679   5.489 -0.1936 -0.5407 -0.9284
 9174SOL     OW34382   6.978   7.592   5.692 -0.4027  0.0682  0.9211
 9174SOL    HW134383   7.015   7.680   5.682  1.8878 -1.0893 -2.9189
 9174SOL    HW234384   7.048   7.541   5.733 -1.1367 -0.3463  1.6944
 9175SOL     OW34385   3.300   1.036  11.646  0.2482  0.0322 -0.5099
 9175SOL    HW134386   3.249   1.026  11.726  1.6360 -2.9560  0.1599
 9175SOL    HW234387   3.245   0.998  11.578  0.6260 -1.1342 -0.1901
 9176SOL     OW34388   5.165  11.081   4.322 -0.4038 -0.1434 -0.2534
 9176SOL    HW134389   5.091  11.058   4.267 -2.1954  1.1342  1.4845
 9176SOL    HW234390   5.190  11.169   4.294 -0.9243  0.2636  0.5390
 9177SOL     OW34391  12.245   0.370  11.656 -0.0965 -0.0795 -0.1823
 9177SOL    HW134392  12.262   0.450  11.706 -0.0322 -0.4541  0.4121
 9177SOL    HW234393  12.245   0.301  11.722 -0.1374 -0.5709 -0.6913
 9178SOL     OW34394   3.616   6.201   6.530 -0.0591  0.6939  0.6315
 9178SOL    HW134395   3.694   6.203   6.476 -0.2337  0.1034  0.3493
 9178SOL    HW234396   3.624   6.277   6.588  0.1557  1.3028 -0.1839
 9179SOL     OW34397  11.642   9.817   7.619 -0.4222 -0.1006  0.4689
 9179SOL    HW134398  11.626   9.727   7.590 -0.4289 -0.1217  0.5402
 9179SOL    HW234399  11.573   9.835   7.682 -1.9009  0.7542 -1.2755
 9180SOL     OW34400  12.002   9.177   0.931 -0.7033 -0.0112 -0.2052
 9180SOL    HW134401  12.030   9.122   0.858 -0.7668 -1.6576  0.9796
 9180SOL    HW234402  12.014   9.267   0.899  1.6472 -0.6664 -1.3454
 9181SOL     OW34403  10.477  10.080   2.038 -0.2671 -0.0782  0.1016
 9181SOL    HW134404  10.563  10.116   2.016 -0.9433  0.8379 -1.1186
 9181SOL    HW234405  10.415  10.134   1.990 -1.5645 -0.5301  1.2124
 9182SOL     OW34406   4.102   6.791   2.450 -0.1946  0.3835  0.4904
 9182SOL    HW134407   4.130   6.880   2.470  0.8591 -0.0816  1.1474
 9182SOL    HW234408   4.028   6.802   2.390  0.0775  1.6883  0.3706
 9183SOL     OW34409   8.698   9.745   1.038 -0.6882 -0.0759  0.0602
 9183SOL    HW134410   8.677   9.788   0.955 -0.2942  0.5088  0.2595
 9183SOL    HW234411   8.793   9.730   1.033 -1.1252 -3.2794 -1.1217
 9184SOL     OW34412   4.449   6.984  12.076  0.5372 -0.2131 -0.3067
 9184SOL    HW134413   4.530   6.941  12.048  0.5099 -0.6655  0.2829
 9184SOL    HW234414   4.436   6.954  12.167 -0.4203 -0.3564 -0.4758
 9185SOL     OW34415   5.172   9.051   4.954  0.0418  0.0822 -0.3765
 9185SOL    HW134416   5.225   8.980   4.989  0.7366  0.9878  0.4736
 9185SOL    HW234417   5.110   9.072   5.024 -2.0412 -1.4819 -1.6350
 9186SOL     OW34418   7.210   2.882   1.470 -0.0543  0.2270  0.0936
 9186SOL    HW134419   7.189   2.917   1.383  2.8642 -0.1059 -0.8817
 9186SOL    HW234420   7.233   2.791   1.454 -0.2354 -0.0559  1.3670
 9187SOL     OW34421   3.390   9.220   8.608  0.0190  0.1348  0.2694
 9187SOL    HW134422   3.346   9.135   8.611 -0.0245  0.1743  1.1234
 9187SOL    HW234423   3.386   9.246   8.516  1.3017 -1.4312 -0.2691
 9188SOL     OW34424   0.520   9.717   4.843  0.3667 -0.4311  0.0111
 9188SOL    HW134425   0.550   9.626   4.843 -0.3496 -0.6662 -0.5018
 9188SOL    HW234426   0.451   9.721   4.777 -1.8047 -0.2419  2.1480
 9189SOL     OW34427  11.474  11.665   6.306 -0.6413 -0.3943  0.2043
 9189SOL    HW134428  11.533  11.740   6.302 -0.1527 -0.6253  2.0033
 9189SOL    HW234429  11.387  11.704   6.314 -0.2999  0.0802  2.3751
 9190SOL     OW34430  12.093   9.135  11.418  0.0559  0.5090 -0.3554
 9190SOL    HW134431  12.152   9.137  11.342 -1.5449  2.4212 -1.6336
 9190SOL    HW234432  12.072   9.226  11.434  0.2972  0.1516  2.4262
 9191SOL     OW34433  10.218  11.346   1.962 -0.4457  0.4452 -0.0680
 9191SOL    HW134434  10.275  11.332   2.038  0.6012 -1.4751 -1.1256
 9191SOL    HW234435  10.132  11.365   2.000 -0.0186 -0.7653  1.6193
 9192SOL     OW34436   6.392   8.727  10.121  0.2227 -0.5621  0.1848
 9192SOL    HW134437   6.311   8.712  10.072  1.3172  1.4101 -2.4619
 9192SOL    HW234438   6.444   8.648  10.106 -1.2734 -2.0478  2.2864
 9193SOL     OW34439   9.767   4.590   3.729 -0.4350  0.2862  0.0078
 9193SOL    HW134440   9.815   4.673   3.729  0.3671 -0.1424  1.4891
 9193SOL    HW234441   9.740   4.579   3.820 -1.5364 -0.5204 -0.4052
 9194SOL     OW34442   1.838  11.527   9.594 -0.7298 -0.0059 -0.2434
 9194SOL    HW134443   1.897  11.486   9.530  0.1132  3.2855 -1.7778
 9194SOL    HW234444   1.896  11.559   9.663 -0.6224  2.8372 -1.5292
 9195SOL     OW34445   2.698   0.514   2.823 -0.3391  0.2547 -1.0097
 9195SOL    HW134446   2.610   0.550   2.813 -1.2486 -1.8641 -1.0071
 9195SOL    HW234447   2.727   0.548   2.908 -0.1116  2.9389 -2.0607
 9196SOL     OW34448   6.604  10.631  12.293 -0.2748 -0.6426 -0.1647
 9196SOL    HW134449   6.662  10.577  12.240  1.3858  0.3321  0.5618
 9196SOL    HW234450   6.581  10.704  12.235 -0.5943 -0.9076 -0.3759
 9197SOL     OW34451  11.751   3.912   1.225 -0.0705  0.2273 -0.2078
 9197SOL    HW134452  11.845   3.931   1.216  0.1227 -0.3708  0.4174
 9197SOL    HW234453  11.744   3.869   1.310 -0.8976  0.1511 -0.3100
 9198SOL     OW34454   6.171   1.852   4.323  1.1369 -1.0124 -0.2828
 9198SOL    HW134455   6.212   1.885   4.403 -1.1132 -0.2301  0.6307
 9198SOL    HW234456   6.165   1.929   4.266 -0.8274 -0.5841  0.4182
 9199SOL     OW34457   7.988  11.789   2.989  0.1191  0.0058 -0.6303
 9199SOL    HW134458   7.903  11.783   3.034  0.7747  0.6964  0.7808
 9199SOL    HW234459   8.033  11.707   3.013  0.1265 -0.0371 -0.7910
 9200SOL     OW34460   1.929   4.999   7.606 -0.4872 -0.4282  0.1711
 9200SOL    HW134461   1.875   5.078   7.609  0.4102  0.3465 -2.2279
 9200SOL    HW234462   1.999   5.015   7.670  0.0004  0.9923 -0.6828
 9201SOL     OW34463  10.779  10.370  11.429  0.6172  0.3858  0.2724
 9201SOL    HW134464  10.752  10.455  11.464  0.7348  0.3240  0.5110
 9201SOL    HW234465  10.717  10.308  11.466 -0.0355  0.4748 -0.6137
 9202SOL     OW34466   1.964   6.216   0.902 -0.0897  0.2866  0.0511
 9202SOL    HW134467   1.912   6.244   0.978 -0.1032 -1.5228  0.7634
 9202SOL    HW234468   2.050   6.195   0.939  0.3868  0.8653 -0.7093
 9203SOL     OW34469  11.670  11.259   8.657 -0.2571 -0.0742 -0.2232
 9203SOL    HW134470  11.633  11.337   8.698  0.9558  0.7110 -0.5491
 9203SOL    HW234471  11.763  11.278   8.649 -0.1654 -0.9337 -1.6920
 9204SOL     OW34472   0.601   2.764   1.444 -0.3060 -0.2281  0.0522
 9204SOL    HW134473   0.683   2.750   1.396  0.3425  0.0214  1.0536
 9204SOL    HW234474   0.597   2.859   1.457 -0.1967 -0.3468  0.9637
 9205SOL     OW34475  11.383   1.721   5.052 -0.0892  0.8326 -0.2436
 9205SOL    HW134476  11.362   1.752   4.964  1.3916  1.2924 -0.4625
 9205SOL    HW234477  11.323   1.648   5.067 -1.6908  1.9759 -0.8563
 9206SOL     OW34478   1.360   8.329   6.697 -1.1822  0.4832 -0.0721
 9206SOL    HW134479   1.449   8.301   6.676 -0.8082  1.8398 -0.4211
 9206SOL    HW234480   1.320   8.253   6.738  0.5470  0.2247  1.2734
 9207SOL     OW34481   6.977   4.679   9.269  0.1322 -0.0882 -0.0052
 9207SOL    HW134482   7.047   4.743   9.281 -0.2249  0.3153 -0.0579
 9207SOL    HW234483   7.018   4.595   9.288  1.0083 -0.0146 -1.3935
 9208SOL     OW34484   7.862   3.689   5.000 -0.0789 -0.2228  0.2309
 9208SOL    HW134485   7.903   3.604   4.982 -2.0218 -1.0905 -0.2597
 9208SOL    HW234486   7.884   3.742   4.923 -1.8476 -1.4587 -1.1978
 9209SOL     OW34487  10.363   0.591   2.519 -0.0612  0.1160 -0.2684
 9209SOL    HW134488  10.276   0.630   2.510 -0.4508 -0.5563  0.4497
 9209SOL    HW234489  10.378   0.546   2.436 -0.5846 -0.1362 -0.2258
 9210SOL     OW34490  11.679   0.802  12.057  0.3329  0.2558  0.2534
 9210SOL    HW134491  11.649   0.811  12.148  0.2097 -0.7074  0.3176
 9210SOL    HW234492  11.704   0.891  12.031 -4.0873  1.5872 -0.3603
 9211SOL     OW34493   1.121  10.177   7.378 -0.4977 -0.9120  0.0587
 9211SOL    HW134494   1.183  10.107   7.363  2.0160  1.5569 -2.2004
 9211SOL    HW234495   1.173  10.247   7.418 -2.1989  0.6457 -0.3174
 9212SOL     OW34496   8.525   7.416   9.270  0.3331  0.1911  0.1592
 9212SOL    HW134497   8.616   7.400   9.296  0.1580 -0.7128  0.2604
 9212SOL    HW234498   8.478   7.336   9.295 -0.7448  1.1210  1.2626
 9213SOL     OW34499   0.542   5.414   7.541  0.0435 -0.3243 -0.6876
 9213SOL    HW134500   0.533   5.509   7.547  0.1144 -0.0232 -3.8458
 9213SOL    HW234501   0.453   5.381   7.553 -0.2766  0.2891 -1.2728
 9214SOL     OW34502   8.598   8.599   1.219  0.3818 -0.1927 -0.0889
 9214SOL    HW134503   8.618   8.668   1.156  2.0846  0.5439  1.1812
 9214SOL    HW234504   8.631   8.519   1.180 -1.5758 -0.3472 -1.5640
 9215SOL     OW34505   6.750   0.321   0.826  0.9537 -0.3697  0.0659
 9215SOL    HW134506   6.829   0.331   0.774  2.3228 -1.2581  1.8394
 9215SOL    HW234507   6.701   0.251   0.783  0.3852  1.1184 -1.8400
 9216SOL     OW34508   4.619   1.501   2.899  0.2715 -0.1225 -0.3605
 9216SOL    HW134509   4.649   1.422   2.944  1.0826  0.2949 -0.1456
 9216SOL    HW234510   4.651   1.574   2.952 -2.5922  0.4004  0.8223
 9217SOL     OW34511   5.000   8.799   7.449  0.1928 -0.0391  0.1837
 9217SOL    HW134512   4.905   8.808   7.450  0.1979  0.0792 -0.3233
 9217SOL    HW234513   5.033   8.888   7.436  0.3781 -0.0706  0.4169
 9218SOL     OW34514  11.605   0.822   7.842  0.1412 -0.2306 -0.4060
 9218SOL    HW134515  11.630   0.782   7.926 -0.6452 -0.0078 -0.0602
 9218SOL    HW234516  11.525   0.776   7.818  0.0397  0.1286 -0.7407
 9219SOL     OW34517   7.947  10.369   7.476 -0.2939 -0.5502  0.3234
 9219SOL    HW134518   7.953  10.372   7.381  1.7655 -0.5793  0.3916
 9219SOL    HW234519   7.921  10.458   7.501  0.7191 -0.0668 -0.2351
 9220SOL     OW34520   6.081   8.785   5.209  0.5752 -0.1605 -0.4727
 9220SOL    HW134521   6.012   8.743   5.262  0.6339  1.0937  0.6518
 9220SOL    HW234522   6.161   8.769   5.259  0.6826  0.7375 -0.3488
 9221SOL     OW34523   3.086   8.549   5.954 -0.0067  0.0994 -0.2349
 9221SOL    HW134524   3.175   8.579   5.970 -0.0638 -0.0429  0.3813
 9221SOL    HW234525   3.078   8.547   5.858  0.7860 -0.2872 -0.3011
 9222SOL     OW34526  11.545  10.125   8.444 -0.2020 -0.2949 -0.6682
 9222SOL    HW134527  11.454  10.096   8.433 -1.2804  0.9216  3.3557
 9222SOL    HW234528  11.590  10.051   8.483  0.0637 -0.2956 -0.9729
 9223SOL     OW34529   9.147  11.992   4.629  0.0945 -0.0683  0.2313
 9223SOL    HW134530   9.184  12.015   4.543 -0.4383 -0.8345 -0.2131
 9223SOL    HW234531   9.085  12.062   4.648  0.5303  0.3304  0.1884
 9224SOL     OW34532   8.538   7.842  10.533 -0.5388 -0.3738 -0.3825
 9224SOL    HW134533   8.564   7.760  10.575 -0.0337 -1.0499 -1.9512
 9224SOL    HW234534   8.511   7.898  10.605  2.6856 -0.5792  1.1541
 9225SOL     OW34535   4.753   3.159  10.539  0.0618 -0.0814  0.0843
 9225SOL    HW134536   4.731   3.069  10.563  0.7072  0.2119  1.9138
 9225SOL    HW234537   4.848   3.163  10.545 -0.0518  1.0667  1.3620
 9226SOL     OW34538   7.921   2.720   6.033 -0.3659  0.2031 -0.1615
 9226SOL    HW134539   7.900   2.807   5.999 -1.2353 -0.6707 -2.0032
 9226SOL    HW234540   7.960   2.737   6.119  1.9760  2.5560 -1.5242
 9227SOL     OW34541   3.435   0.889  10.627 -0.1542 -0.0213 -0.0274
 9227SOL    HW134542   3.427   0.799  10.658 -0.0084 -0.0811 -0.1580
 9227SOL    HW234543   3.354   0.906  10.579  0.8268 -0.9297 -2.1300
 9228SOL     OW34544   5.625   9.678   1.150 -0.0722 -0.7643 -0.1804
 9228SOL    HW134545   5.616   9.718   1.064  1.9964 -0.0733 -0.1311
 9228SOL    HW234546   5.674   9.743   1.202  0.9381 -2.1942  0.7368
 9229SOL     OW34547  11.301  11.789   5.035  0.0193 -0.3489  0.2230
 9229SOL    HW134548  11.250  11.715   5.069 -1.0761  0.2307 -0.1226
 9229SOL    HW234549  11.333  11.834   5.114  0.5478 -1.0815  0.4350
 9230SOL     OW34550   7.793  11.724   1.757  0.1118 -0.0855  0.0349
 9230SOL    HW134551   7.859  11.704   1.824  0.6236 -0.6735 -0.6404
 9230SOL    HW234552   7.725  11.658   1.770  0.6641 -0.7984 -0.6343
 9231SOL     OW34553   4.971   4.128   5.852 -0.3072  0.4812 -0.7870
 9231SOL    HW134554   4.890   4.080   5.834 -0.2878 -0.1470  0.6737
 9231SOL    HW234555   4.941   4.216   5.877 -0.4937  0.4468 -0.8838
 9232SOL     OW34556  11.101   4.519   1.795  0.1479 -0.3332  0.2954
 9232SOL    HW134557  11.125   4.473   1.876 -0.0966 -0.2978  0.3882
 9232SOL    HW234558  11.063   4.451   1.740 -0.4901 -0.1904  0.5471
 9233SOL     OW34559   0.595   2.692   9.687  0.5225 -0.2267 -0.0315
 9233SOL    HW134560   0.503   2.690   9.713  0.2787 -0.1129 -0.8834
 9233SOL    HW234561   0.634   2.617   9.733  0.3104  0.5093  1.4150
 9234SOL     OW34562   0.382   9.816   2.121 -0.2691 -0.1626 -0.0770
 9234SOL    HW134563   0.383   9.749   2.190  1.6713  0.6156  0.7198
 9234SOL    HW234564   0.343   9.893   2.164  1.7235  0.5884  0.4849
 9235SOL     OW34565   6.532  10.824  12.105 -0.3384 -0.0978 -0.2273
 9235SOL    HW134566   6.556  10.859  12.019 -0.5268 -2.0026 -1.0968
 9235SOL    HW234567   6.445  10.786  12.092 -0.2604 -0.6357  0.7516
 9236SOL     OW34568   1.764   7.024   3.021  0.2469 -0.0709 -0.6833
 9236SOL    HW134569   1.780   7.055   3.110 -0.1734  2.0055 -1.2630
 9236SOL    HW234570   1.671   7.001   3.019  0.4470 -0.9272 -0.3785
 9237SOL     OW34571   2.945   5.286   0.845  0.4542 -0.3426  0.0581
 9237SOL    HW134572   2.911   5.367   0.883  0.5483 -0.4848  0.4533
 9237SOL    HW234573   3.012   5.257   0.907  1.2587 -0.0994 -0.6762
 9238SOL     OW34574   0.476  10.929   7.853  0.4343  0.1396 -0.4038
 9238SOL    HW134575   0.523  11.011   7.869  1.1307 -0.1305 -0.9941
 9238SOL    HW234576   0.508  10.900   7.767 -0.7331 -0.1113 -0.7768
 9239SOL     OW34577   8.047   6.504   2.460  0.1812 -0.5329  0.0376
 9239SOL    HW134578   8.014   6.439   2.523  1.7345 -1.7907 -0.3852
 9239SOL    HW234579   8.099   6.565   2.513 -0.3103 -0.3031  0.2649
 9240SOL     OW34580   7.392   5.747   5.342 -0.3833  0.0267  0.3771
 9240SOL    HW134581   7.378   5.689   5.417  0.3227 -0.7620 -0.0816
 9240SOL    HW234582   7.432   5.691   5.276  0.2992  1.0360 -0.0863
 9241SOL     OW34583  12.480   6.538   5.541 -0.1974 -0.1954  0.4103
 9241SOL    HW134584  12.502   6.609   5.481 -1.7536  2.2768  2.5291
 9241SOL    HW234585  12.513   6.459   5.499  1.1292  1.6931 -2.3651
 9242SOL     OW34586   7.671   9.436   0.219 -0.8691  0.4270 -0.0973
 9242SOL    HW134587   7.599   9.375   0.238 -1.6993  1.4404  0.1042
 9242SOL    HW234588   7.704   9.407   0.134 -1.4069 -0.1686 -0.1149
 9243SOL     OW34589   1.908   4.661   7.112  0.5262 -0.0151 -0.1632
 9243SOL    HW134590   1.916   4.621   7.199  0.3290  0.4042  0.0465
 9243SOL    HW234591   1.821   4.635   7.082  0.3314  0.3901  0.0430
 9244SOL     OW34592   4.477   4.372  10.106 -0.1960 -0.0670 -0.2677
 9244SOL    HW134593   4.473   4.426  10.027  0.9037  1.5516  0.7211
 9244SOL    HW234594   4.553   4.315  10.092 -1.8514 -2.0933 -1.6817
 9245SOL     OW34595   7.965   6.743   8.199 -0.2421 -0.0924  0.1846
 9245SOL    HW134596   7.901   6.776   8.136 -0.5604  0.7578  0.9174
 9245SOL    HW234597   7.967   6.649   8.186 -2.0061 -0.1907  0.4655
 9246SOL     OW34598   5.167   5.796   8.294 -0.1100  0.1341 -0.0463
 9246SOL    HW134599   5.250   5.821   8.253 -0.0345  0.8580  0.5236
 9246SOL    HW234600   5.143   5.872   8.348  0.4233 -1.2305  2.2358
 9247SOL     OW34601  10.504   8.627   1.075  0.1890  0.5623  0.1522
 9247SOL    HW134602  10.414   8.606   1.049  0.6262 -0.0072 -0.9754
 9247SOL    HW234603  10.558   8.564   1.028  1.2498  1.5124  0.0477
 9248SOL     OW34604   2.552   6.340  12.179 -0.0110  0.2066  0.6502
 9248SOL    HW134605   2.526   6.283  12.251  2.1971 -1.5246  0.2231
 9248SOL    HW234606   2.548   6.284  12.102  3.2725  0.1502  0.3657
 9249SOL     OW34607   2.552  11.888   9.699 -0.3560 -0.0073  0.0823
 9249SOL    HW134608   2.525  11.848   9.617 -0.7700  0.7184 -0.1428
 9249SOL    HW234609   2.610  11.960   9.672  0.9162 -0.8319  0.5040
 9250SOL     OW34610   9.552   2.654   7.504 -0.0724 -0.3956  0.4171
 9250SOL    HW134611   9.547   2.595   7.579 -1.4452  0.1788  0.8068
 9250SOL    HW234612   9.581   2.737   7.540  2.4685 -0.9071 -0.2220
 9251SOL     OW34613   8.537   9.138   2.459 -0.2758 -0.4489  0.0666
 9251SOL    HW134614   8.520   9.048   2.484  2.2746 -2.1421 -3.4191
 9251SOL    HW234615   8.608   9.166   2.517  1.5122 -2.1554 -1.1595
 9252SOL     OW34616   7.325   0.701   8.878 -0.0583  0.2288 -0.1288
 9252SOL    HW134617   7.415   0.671   8.885  0.0190  0.6655  1.0898
 9252SOL    HW234618   7.329   0.793   8.903 -0.7994  0.3110 -0.2992
 9253SOL     OW34619   7.834   7.594   2.989 -0.4830 -0.1630 -0.9464
 9253SOL    HW134620   7.926   7.567   2.992  0.3570  2.4491 -0.6868
 9253SOL    HW234621   7.794   7.537   2.923  1.3229 -1.3009 -1.1284
 9254SOL     OW34622   3.276  10.307   8.426  0.1068 -0.4865  0.4722
 9254SOL    HW134623   3.327  10.340   8.500 -1.1374 -0.3768  1.3112
 9254SOL    HW234624   3.196  10.360   8.427 -0.9991 -2.1075  0.5477
 9255SOL     OW34625   3.412  10.740   1.131  0.2781 -0.3894 -0.2554
 9255SOL    HW134626   3.322  10.762   1.156  0.6569 -0.5901  1.4140
 9255SOL    HW234627   3.466  10.805   1.175  0.9850 -0.3972 -1.0717
 9256SOL     OW34628   0.850   5.842  10.443  0.4254  0.7985 -0.1874
 9256SOL    HW134629   0.907   5.912  10.475  0.2959  0.6058  0.4943
 9256SOL    HW234630   0.883   5.821  10.356  0.4396  1.7371 -0.4134
 9257SOL     OW34631   6.998  12.421   8.303  0.1999  0.3072 -0.0444
 9257SOL    HW134632   7.091  12.404   8.295 -0.0803 -1.3293 -0.1344
 9257SOL    HW234633   6.957  12.367   8.235 -1.0069 -1.5532  2.0105
 9258SOL     OW34634  10.624  10.215  11.568 -0.3283 -0.1332 -0.5181
 9258SOL    HW134635  10.552  10.164  11.531 -0.9007  0.8389 -0.7855
 9258SOL    HW234636  10.621  10.196  11.662  1.2535 -2.7733 -0.9165
 9259SOL     OW34637   2.691   7.444   5.791 -0.3538  0.6333  0.0521
 9259SOL    HW134638   2.745   7.414   5.864 -0.7044  1.1966  0.5535
 9259SOL    HW234639   2.607   7.469   5.831 -1.0280 -0.2927 -0.7212
 9260SOL     OW34640   7.332   2.365   4.522 -0.4003  0.8531  0.4225
 9260SOL    HW134641   7.403   2.429   4.530  0.8700 -0.0775 -2.2491
 9260SOL    HW234642   7.296   2.379   4.435 -1.6289 -0.5656  0.6614
 9261SOL     OW34643   2.312   7.961   5.702 -0.3901  0.2285 -0.4123
 9261SOL    HW134644   2.251   7.975   5.630  0.4910  0.3796 -1.1492
 9261SOL    HW234645   2.332   7.867   5.699  1.9175  0.7085 -2.2826
 9262SOL     OW34646   1.924   4.015   1.080  1.1922  0.0947  0.4119
 9262SOL    HW134647   1.851   4.026   1.141  1.0009 -0.2141  0.2394
 9262SOL    HW234648   1.883   3.997   0.996  1.4324  1.3823 -0.0106
 9263SOL     OW34649   0.537   7.230   7.635  0.1636  0.1886  0.2175
 9263SOL    HW134650   0.580   7.213   7.719 -0.6578 -0.7988  0.4583
 9263SOL    HW234651   0.592   7.185   7.570  0.0727 -0.1731  0.3915
 9264SOL     OW34652  10.846   4.145   7.544 -0.4387 -0.1673 -0.4576
 9264SOL    HW134653  10.753   4.149   7.524 -0.3503  1.0679 -0.7401
 9264SOL    HW234654  10.889   4.167   7.461  0.0193  1.8077  0.2463
 9265SOL     OW34655  10.251   7.841   0.958  0.4078 -0.3128  0.1547
 9265SOL    HW134656  10.287   7.928   0.942 -0.3938 -0.3796 -2.5755
 9265SOL    HW234657  10.189   7.854   1.031  0.6288  1.3002  0.1029
 9266SOL     OW34658  11.671  10.246   0.922  0.0564  0.1560 -0.2102
 9266SOL    HW134659  11.602  10.279   0.980  1.0326  1.3163  0.3365
 9266SOL    HW234660  11.662  10.151   0.926  0.6438  0.1443  2.5842
 9267SOL     OW34661   5.228   6.002   8.813  0.0585 -0.1219 -0.1743
 9267SOL    HW134662   5.319   6.025   8.831 -0.1481 -0.5973  1.6848
 9267SOL    HW234663   5.233   5.922   8.760  0.7016  0.1822 -0.5922
 9268SOL     OW34664  11.626   6.852   0.176 -0.2861 -0.1615  0.2486
 9268SOL    HW134665  11.698   6.915   0.169  0.3709 -0.9363 -0.0622
 9268SOL    HW234666  11.562   6.882   0.112  1.6245 -1.8852 -2.7154
 9269SOL     OW34667   3.456   6.915  12.124 -0.1407 -0.2117 -0.1711
 9269SOL    HW134668   3.529   6.853  12.118  0.8460  0.9980 -1.0784
 9269SOL    HW234669   3.406   6.885  12.200  0.9599 -1.4214  0.1185
 9270SOL     OW34670  12.082  10.847   6.188 -0.2860 -0.3640 -0.0631
 9270SOL    HW134671  12.058  10.821   6.277 -1.1926  1.8481  0.4033
 9270SOL    HW234672  12.164  10.895   6.199  0.6060 -1.6459 -0.7233
 9271SOL     OW34673   9.688   0.181   4.169  0.1599  0.4109  0.3159
 9271SOL    HW134674   9.637   0.129   4.230  1.0065 -1.3543 -0.4147
 9271SOL    HW234675   9.623   0.224   4.113 -0.5488 -0.1424  0.7088
 9272SOL     OW34676   4.133   5.785   8.384 -0.0461  0.5216 -0.1263
 9272SOL    HW134677   4.072   5.855   8.357  0.6813  0.8765 -0.8861
 9272SOL    HW234678   4.206   5.831   8.424  0.7303  0.2511 -1.1940
 9273SOL     OW34679  11.478   2.648   4.152  0.6603  0.1619  0.2916
 9273SOL    HW134680  11.567   2.659   4.184  0.4510 -0.2212  1.0268
 9273SOL    HW234681  11.432   2.606   4.224 -0.6850  2.3391  0.7757
 9274SOL     OW34682   1.704   6.077   6.369  0.6715  0.7527  0.5479
 9274SOL    HW134683   1.672   6.051   6.283  0.1439  3.3151 -0.1155
 9274SOL    HW234684   1.797   6.053   6.368  0.4135 -0.2903 -0.2758
 9275SOL     OW34685   9.775   2.509   8.393 -0.0681  0.0375  0.8481
 9275SOL    HW134686   9.692   2.558   8.388 -0.1727 -0.2351 -1.0171
 9275SOL    HW234687   9.836   2.569   8.436  0.1314  2.4266 -2.3709
 9276SOL     OW34688   6.249   5.806  12.270 -0.0840 -0.5924  0.2493
 9276SOL    HW134689   6.164   5.849  12.282 -0.4832 -1.3705  0.2393
 9276SOL    HW234690   6.303   5.873  12.226 -1.4367 -0.8795 -2.0161
 9277SOL     OW34691   7.403   5.518   8.915  0.9097 -0.5584 -0.1825
 9277SOL    HW134692   7.477   5.563   8.955 -0.5725  1.6861  0.1600
 9277SOL    HW234693   7.329   5.534   8.973 -1.0799  1.9226 -3.0784
 9278SOL     OW34694  10.208   1.011  10.646 -0.3582 -0.1055 -0.2872
 9278SOL    HW134695  10.244   1.015  10.558  2.4166 -0.6075  0.7437
 9278SOL    HW234696  10.228   1.096  10.684  1.2995 -0.9324  0.8149
 9279SOL     OW34697  10.056   5.055   7.931 -0.1508 -0.5031  0.5423
 9279SOL    HW134698  10.014   4.972   7.952  1.8730 -1.4361  1.0464
 9279SOL    HW234699  10.123   5.033   7.867  0.4507  0.7197  0.7200
 9280SOL     OW34700   4.509   0.330   2.227  0.1783  0.1943  0.1571
 9280SOL    HW134701   4.551   0.387   2.292  0.3613  0.8163 -0.4941
 9280SOL    HW234702   4.487   0.251   2.276 -0.0932  0.8231  1.0886
 9281SOL     OW34703   5.270   5.104   3.724 -0.3995 -0.4538 -0.0002
 9281SOL    HW134704   5.243   5.012   3.732  1.9158 -1.2821 -0.7983
 9281SOL    HW234705   5.220   5.150   3.791 -1.0346 -2.4473  0.9666
 9282SOL     OW34706   8.939   2.874   1.490  0.5038  0.1292  0.0049
 9282SOL    HW134707   8.964   2.958   1.452  0.9974  0.7944  1.6848
 9282SOL    HW234708   8.915   2.820   1.415  1.5734  1.2954 -1.2378
 9283SOL     OW34709   4.461   6.394  10.619  0.2134  0.0869  0.1562
 9283SOL    HW134710   4.547   6.432  10.637  0.8453 -0.8481 -0.7418
 9283SOL    HW234711   4.464   6.307  10.660 -0.1016 -0.1512 -0.3139
 9284SOL     OW34712  10.044   3.224  11.885  0.3401  0.0759  0.4785
 9284SOL    HW134713   9.977   3.165  11.852  0.6342  0.8239 -1.6487
 9284SOL    HW234714  10.043   3.213  11.980  0.2423 -3.1561  0.1836
 9285SOL     OW34715   7.294   5.425   1.343 -0.4918 -0.2907  0.2576
 9285SOL    HW134716   7.269   5.336   1.320 -1.4014 -0.5749  2.1305
 9285SOL    HW234717   7.214   5.477   1.334  0.0563  0.3901 -0.9393
 9286SOL     OW34718   3.174   9.106   8.168  0.1152  0.3132 -0.1331
 9286SOL    HW134719   3.166   9.200   8.179 -1.6133  0.3433 -1.2322
 9286SOL    HW234720   3.160   9.070   8.256 -1.7280  1.0028 -0.0982
 9287SOL     OW34721   2.411   8.502   1.626  0.1070  0.2730 -0.3923
 9287SOL    HW134722   2.344   8.442   1.660  0.6587 -0.2908 -0.2729
 9287SOL    HW234723   2.363   8.563   1.571 -0.1862 -1.8347 -2.6207
 9288SOL     OW34724  10.743   7.122   2.590 -0.0578 -0.2464  0.0887
 9288SOL    HW134725  10.759   7.210   2.557  1.1252  0.0441  1.3134
 9288SOL    HW234726  10.760   7.065   2.515  1.0240  0.4691 -0.2340
 9289SOL     OW34727   9.494   6.206   7.149  0.0893 -0.6248 -0.1632
 9289SOL    HW134728   9.405   6.237   7.167 -0.4966 -2.5455  0.5311
 9289SOL    HW234729   9.547   6.242   7.220 -0.1162  0.5259 -0.5791
 9290SOL     OW34730   1.210   8.254   0.768 -0.7816  0.5129 -0.5213
 9290SOL    HW134731   1.184   8.326   0.710 -1.4579  2.5872  2.1441
 9290SOL    HW234732   1.223   8.296   0.853  1.4050 -2.1634  0.5868
 9291SOL     OW34733  10.892  12.438  10.119  0.2323  0.1278  0.1525
 9291SOL    HW134734  10.951  12.366  10.143 -1.0279 -1.9923 -2.6262
 9291SOL    HW234735  10.808  12.414  10.159  0.0432  0.5892  0.0321
 9292SOL     OW34736   5.053   6.080  10.488  1.0353  0.3591  0.3068
 9292SOL    HW134737   5.115   6.145  10.520 -1.0497  1.5943  2.1210
 9292SOL    HW234738   4.985   6.076  10.555  0.2045 -2.5008 -0.5541
 9293SOL     OW34739   5.702  12.046   8.165  0.0450 -0.3942  0.3767
 9293SOL    HW134740   5.618  12.012   8.198 -0.3219 -0.8868 -0.9720
 9293SOL    HW234741   5.758  11.969   8.159  1.1308  0.1391  2.6384
 9294SOL     OW34742   9.592   2.070  10.684  0.5658 -0.3877  0.6346
 9294SOL    HW134743   9.561   1.985  10.716  1.8178 -1.4005 -0.7263
 9294SOL    HW234744   9.540   2.086  10.605 -0.7820  0.9315  1.7178
 9295SOL     OW34745  11.040   6.717  12.086 -0.0666 -0.1157  0.4393
 9295SOL    HW134746  11.036   6.813  12.090 -1.9368 -0.1882  1.3473
 9295SOL    HW234747  11.035   6.698  11.992  3.8962  0.6735 -0.1258
 9296SOL     OW34748   0.584   8.604   0.887  0.0520  0.2725  0.0080
 9296SOL    HW134749   0.646   8.561   0.828  1.6719  0.5045  1.4677
 9296SOL    HW234750   0.597   8.561   0.971  0.3900  2.3006  1.0627
 9297SOL     OW34751   4.748   1.892   0.009 -0.1713 -0.0259 -0.8050
 9297SOL    HW134752   4.786   1.979   0.004 -2.4671  1.2730  1.7464
 9297SOL    HW234753   4.670   1.897  -0.047 -0.2947 -0.4461 -0.6760
 9298SOL     OW34754   9.739   3.181  10.990 -0.1038  0.0349 -0.0571
 9298SOL    HW134755   9.789   3.115  10.943 -0.5737 -1.2168  1.1100
 9298SOL    HW234756   9.797   3.256  10.996  1.2603 -1.0103  0.3677
 9299SOL     OW34757   7.776   4.233   3.612 -0.8954  0.2412  0.4744
 9299SOL    HW134758   7.854   4.237   3.556  0.0761 -0.3499  1.7352
 9299SOL    HW234759   7.751   4.141   3.612 -1.3907  0.3740  0.3612
 9300SOL     OW34760  11.930  10.972   5.297  0.8927  0.0947  0.2562
 9300SOL    HW134761  11.926  11.036   5.227  0.8899  0.3654  0.5008
 9300SOL    HW234762  11.878  11.010   5.368  1.2671  0.0359  0.5715
 9301SOL     OW34763   7.742  11.672   8.720 -0.1414  0.0396 -0.1014
 9301SOL    HW134764   7.664  11.726   8.708 -0.7928 -0.8683 -0.0292
 9301SOL    HW234765   7.784  11.708   8.798  1.0047  2.2653 -1.6299
 9302SOL     OW34766   8.117  11.343  11.912 -0.2621  0.0585  0.3171
 9302SOL    HW134767   8.110  11.418  11.970  0.5373  0.5257 -0.1691
 9302SOL    HW234768   8.036  11.293  11.926 -0.8484  1.0618  0.5639
 9303SOL     OW34769   6.246   0.366  12.364 -0.5669  0.4433  0.1199
 9303SOL    HW134770   6.186   0.434  12.334  1.7051  3.1390  1.2602
 9303SOL    HW234771   6.332   0.394  12.332  0.8596 -0.4413  2.8576
 9304SOL     OW34772   2.539   9.374  11.036  0.1735  0.1985 -0.3611
 9304SOL    HW134773   2.483   9.451  11.031 -0.1490  0.0296  0.5348
 9304SOL    HW234774   2.597   9.382  10.961 -1.0875  0.3381 -1.3484
 9305SOL     OW34775   7.128  12.393   1.234  0.0601 -0.0891 -0.3441
 9305SOL    HW134776   7.199  12.449   1.203  1.4355 -1.5440  0.0185
 9305SOL    HW234777   7.056  12.409   1.173  0.9484  0.8893 -1.1730
 9306SOL     OW34778   3.910   8.167   0.073 -0.5594  0.0300 -0.0748
 9306SOL    HW134779   3.970   8.218   0.127 -0.4300 -1.4387  1.2321
 9306SOL    HW234780   3.827   8.214   0.078 -0.1198  0.8161 -0.0030
 9307SOL     OW34781   2.484   5.787  12.146  0.0092  0.2754  0.5636
 9307SOL    HW134782   2.441   5.809  12.228 -0.4159 -2.2305  1.0792
 9307SOL    HW234783   2.554   5.727  12.170 -0.7614 -1.3170 -0.9551
 9308SOL     OW34784   1.960   4.437   0.581  0.6292  0.7335 -0.2913
 9308SOL    HW134785   2.019   4.368   0.551  0.2575  0.3588 -0.1692
 9308SOL    HW234786   1.980   4.446   0.674  0.3487  0.4621 -0.2052
 9309SOL     OW34787   7.537  10.956   5.406  0.0723 -0.2102  0.6752
 9309SOL    HW134788   7.501  10.899   5.338 -0.3732  0.9401 -0.0737
 9309SOL    HW234789   7.484  11.036   5.402  2.0144  1.1354  0.2199
 9310SOL     OW34790  11.227   9.877  11.772 -0.6200  0.6146  0.2253
 9310SOL    HW134791  11.305   9.885  11.717  0.2283  2.2424  1.5524
 9310SOL    HW234792  11.155   9.907  11.716 -0.4368 -1.3094 -1.1553
 9311SOL     OW34793   0.225   8.135   1.850  0.0527 -0.0817  0.0992
 9311SOL    HW134794   0.238   8.046   1.818  0.4962 -0.3425  0.9567
 9311SOL    HW234795   0.254   8.132   1.942 -1.9759  0.3940  0.8174
 9312SOL     OW34796   9.298   2.253   8.517 -0.0909 -0.1225  0.2980
 9312SOL    HW134797   9.205   2.250   8.539  0.2114  1.5825  2.1023
 9312SOL    HW234798   9.326   2.161   8.515 -1.7578 -0.6505 -0.1805
 9313SOL     OW34799   5.135   6.526   5.907  0.0656  0.0412 -0.5542
 9313SOL    HW134800   5.192   6.598   5.882  0.0444 -0.2172 -1.4091
 9313SOL    HW234801   5.178   6.485   5.981  0.5550  0.3683 -0.6546
 9314SOL     OW34802   2.850   6.255  12.174 -0.4304  0.3070  0.1449
 9314SOL    HW134803   2.760   6.277  12.196 -0.3414 -0.6203  1.5495
 9314SOL    HW234804   2.902   6.289  12.247  0.2365 -0.0996 -0.1303
 9315SOL     OW34805   1.462   3.630  10.401 -0.8445 -0.2373  0.1760
 9315SOL    HW134806   1.453   3.625  10.306  0.0763  0.4710  0.0370
 9315SOL    HW234807   1.474   3.540  10.429 -0.8979 -0.4293 -0.4044
 9316SOL     OW34808   8.171   1.334   2.274  0.0681  0.5504  0.3813
 9316SOL    HW134809   8.234   1.306   2.208  1.1422  2.7319  0.3965
 9316SOL    HW234810   8.085   1.310   2.238  0.8117 -2.0334  0.1376
 9317SOL     OW34811   7.559   1.845   3.682  0.2897  0.4037  0.2175
 9317SOL    HW134812   7.509   1.781   3.630 -1.8695  1.0824  1.3671
 9317SOL    HW234813   7.558   1.810   3.771  0.6811  1.1233  0.5102
 9318SOL     OW34814  11.232   8.330   6.026 -0.2036 -0.7616  0.1116
 9318SOL    HW134815  11.215   8.267   5.956 -0.9551  1.1436 -1.4874
 9318SOL    HW234816  11.313   8.374   6.000 -0.5396  0.0311  0.3935
 9319SOL     OW34817   4.030  11.709   9.783 -0.4548 -0.4323  0.6194
 9319SOL    HW134818   4.097  11.777   9.779 -2.1447  1.2953 -0.0384
 9319SOL    HW234819   3.957  11.744   9.733 -1.6795 -2.4617  0.8491
 9320SOL     OW34820   4.427  12.464   9.651  0.0616 -0.1499  0.1347
 9320SOL    HW134821   4.510  12.510   9.668 -0.2641  1.0182 -1.2342
 9320SOL    HW234822   4.436  12.430   9.562 -0.5448 -0.9223  0.3579
 9321SOL     OW34823   5.429   6.965   0.893  0.1544 -0.4335 -0.1560
 9321SOL    HW134824   5.396   7.043   0.938  0.7822  0.1563 -0.6870
 9321SOL    HW234825   5.369   6.896   0.918 -1.6986  0.6637 -1.3769
 9322SOL     OW34826   5.800  12.358   9.842 -0.0578  0.0028  0.1091
 9322SOL    HW134827   5.720  12.305   9.847  0.5811 -0.9475  0.4663
 9322SOL    HW234828   5.852  12.330   9.917 -0.1885  1.9854  0.9968
 9323SOL     OW34829  10.330  10.632   6.964 -0.3853  0.0200  0.1436
 9323SOL    HW134830  10.261  10.618   7.029  0.1470  0.0772  0.7321
 9323SOL    HW234831  10.337  10.727   6.958 -0.4522  0.0139 -0.0116
 9324SOL     OW34832  11.632  10.791   0.499 -0.3341  0.5347  0.2694
 9324SOL    HW134833  11.708  10.733   0.513  0.4309  1.5508  0.4298
 9324SOL    HW234834  11.575  10.774   0.574 -0.0994  0.0249  0.3395
 9325SOL     OW34835   7.542   7.715   8.686 -0.3154  0.1296 -0.3429
 9325SOL    HW134836   7.600   7.740   8.615 -0.4930 -0.1587 -0.5922
 9325SOL    HW234837   7.484   7.791   8.698 -1.4140 -0.4552 -1.6755
 9326SOL     OW34838   1.719   4.241  10.141  0.1620  0.0693  0.3258
 9326SOL    HW134839   1.734   4.323  10.094  1.1376 -1.0434 -1.4250
 9326SOL    HW234840   1.806   4.211  10.165 -0.2048 -0.3756  1.1361
 9327SOL     OW34841   0.222   6.284   7.471 -0.6508  0.0738 -0.0026
 9327SOL    HW134842   0.310   6.283   7.432 -0.2287  1.5927  0.8144
 9327SOL    HW234843   0.163   6.262   7.400  0.1500  1.9923 -1.3429
 9328SOL     OW34844   9.966   8.831   0.961 -0.8396 -0.1405  0.2199
 9328SOL    HW134845  10.040   8.797   1.011  1.1506  0.6482 -2.0319
 9328SOL    HW234846   9.933   8.756   0.912 -1.3484 -0.4078  0.9461
 9329SOL     OW34847   0.792   9.949  11.552  0.5806 -0.0273  0.6423
 9329SOL    HW134848   0.786   9.876  11.491 -1.3678  0.0004  0.7216
 9329SOL    HW234849   0.878   9.941  11.591  1.5954 -0.5036 -1.5222
 9330SOL     OW34850   5.107   9.633  10.832 -0.3233  0.1200  0.0171
 9330SOL    HW134851   5.031   9.679  10.867  1.1075  0.9278  2.3009
 9330SOL    HW234852   5.137   9.579  10.904  0.6723 -0.9903 -1.1896
 9331SOL     OW34853   1.035   7.832   9.055  0.6635 -0.0745 -0.1231
 9331SOL    HW134854   0.992   7.846   8.970 -2.2478  1.4498  1.4177
 9331SOL    HW234855   1.111   7.890   9.054 -0.9624  2.1948 -0.7314
 9332SOL     OW34856   2.249   6.202   7.364 -0.2048 -0.4503  0.1831
 9332SOL    HW134857   2.216   6.113   7.374 -1.1256 -0.0457  0.9014
 9332SOL    HW234858   2.320   6.194   7.301  0.4458 -1.8640  1.0317
 9333SOL     OW34859   9.865   1.742   4.959  0.2469 -0.5391  0.1888
 9333SOL    HW134860   9.960   1.746   4.971 -0.0353  3.1998  3.0419
 9333SOL    HW234861   9.833   1.694   5.035 -0.2123  0.3038  0.5458
 9334SOL     OW34862   7.209  10.322   9.464 -0.4589 -0.2808  0.7465
 9334SOL    HW134863   7.146  10.307   9.394 -0.8830 -1.2483  1.3077
 9334SOL    HW234864   7.171  10.392   9.516 -0.6233 -0.2327  0.5644
 9335SOL     OW34865  10.924   8.910   6.031 -0.1228 -0.0556  0.3019
 9335SOL    HW134866  10.984   8.967   6.077  0.6905 -0.9085  0.3147
 9335SOL    HW234867  10.972   8.882   5.953 -1.3378  1.0867 -0.9362
 9336SOL     OW34868   9.223   9.660   6.365 -0.0430  0.1523 -0.4039
 9336SOL    HW134869   9.272   9.742   6.366 -4.1041  2.8555 -0.8057
 9336SOL    HW234870   9.164   9.666   6.440 -1.7348 -1.5237 -1.5104
 9337SOL     OW34871   9.554   1.338   3.978  0.3588  0.6781  0.2500
 9337SOL    HW134872   9.481   1.392   4.009 -0.1430  1.3162 -1.8922
 9337SOL    HW234873   9.542   1.254   4.024  0.0109  1.7070  2.1392
 9338SOL     OW34874   5.028   1.076  10.633 -0.5878 -0.4288  0.1937
 9338SOL    HW134875   5.061   0.990  10.606 -0.4649 -0.4634  0.4511
 9338SOL    HW234876   5.106   1.122  10.665 -0.6071 -0.1325 -0.1674
 9339SOL     OW34877   0.141   3.199   2.593  0.7071 -1.0464  0.3476
 9339SOL    HW134878   0.048   3.205   2.611  0.6404 -1.4703  0.1567
 9339SOL    HW234879   0.162   3.106   2.600  0.5110 -1.3996 -2.4002
 9340SOL     OW34880   8.864  11.671   5.012  0.2371 -0.0316  0.2737
 9340SOL    HW134881   8.954  11.699   5.028  0.2832  0.0539 -0.1257
 9340SOL    HW234882   8.812  11.751   5.019  0.2041 -0.0654  0.4118
 9341SOL     OW34883  11.198   0.344   8.579  0.1400  0.3740 -0.0812
 9341SOL    HW134884  11.289   0.371   8.587 -0.2071  1.3765  0.6209
 9341SOL    HW234885  11.149   0.426   8.574 -0.6381 -0.1444 -1.6580
 9342SOL     OW34886   2.897   7.041   6.074 -0.1083 -0.1655  0.6148
 9342SOL    HW134887   2.979   7.026   6.027 -0.2076 -0.5810  0.5700
 9342SOL    HW234888   2.861   6.953   6.088 -1.6470  0.1104 -1.2965
 9343SOL     OW34889   5.520   5.404  11.129 -0.8485 -0.4158  0.2040
 9343SOL    HW134890   5.576   5.335  11.164 -0.5115 -1.2622 -1.8628
 9343SOL    HW234891   5.434   5.388  11.168 -0.8596 -2.2499 -0.4858
 9344SOL     OW34892   9.945   5.897   4.867 -0.5676 -0.2132 -0.0773
 9344SOL    HW134893   9.888   5.959   4.912 -0.0997 -0.5203  0.9853
 9344SOL    HW234894  10.019   5.885   4.927 -0.4009 -1.3897 -0.4877
 9345SOL     OW34895   8.945   2.456   1.800 -0.3428 -0.1614 -0.0937
 9345SOL    HW134896   8.950   2.508   1.720 -2.3708  1.2300  0.6116
 9345SOL    HW234897   9.023   2.481   1.850  1.7606 -2.1520 -2.1704
 9346SOL     OW34898  12.427   3.920  12.148 -0.2610 -0.2178  0.3467
 9346SOL    HW134899  12.344   3.888  12.183  0.2606  0.2593  2.1062
 9346SOL    HW234900  12.427   4.014  12.167  0.3079 -0.0367 -0.4505
 9347SOL     OW34901   4.610   7.621  11.575 -0.3680  0.4524 -0.1493
 9347SOL    HW134902   4.647   7.556  11.516  0.7023  0.5482  0.3936
 9347SOL    HW234903   4.553   7.674  11.519  1.6209  1.3653 -1.4178
 9348SOL     OW34904   4.258  10.683   8.439  0.0745  0.1293  0.2887
 9348SOL    HW134905   4.337  10.630   8.423 -0.8481 -0.8997 -1.0959
 9348SOL    HW234906   4.249  10.737   8.361  0.7044  2.0485  1.4604
 9349SOL     OW34907   2.690   4.102   4.895  0.6784  0.0851 -0.0794
 9349SOL    HW134908   2.694   4.156   4.816  0.3046 -0.0389 -0.1869
 9349SOL    HW234909   2.673   4.014   4.862 -0.5343  0.1954  0.1841
 9350SOL     OW34910   4.563   2.263   3.662  0.8260  0.4309 -0.0300
 9350SOL    HW134911   4.505   2.321   3.711  1.7007 -0.0228  1.5919
 9350SOL    HW234912   4.512   2.240   3.584 -1.4888 -0.5407  1.6525
 9351SOL     OW34913   9.492   9.611   5.082 -0.1250 -0.0181  0.0585
 9351SOL    HW134914   9.458   9.674   5.146  0.0111 -1.6533  1.8362
 9351SOL    HW234915   9.574   9.580   5.121 -0.1456 -1.2365 -0.8202
 9352SOL     OW34916   6.896   1.042   7.286 -0.0296  0.5977  0.0757
 9352SOL    HW134917   6.871   1.014   7.374 -0.4127 -1.8671 -0.7215
 9352SOL    HW234918   6.992   1.043   7.289 -0.0353  0.3943  0.4886
 9353SOL     OW34919   2.546   6.295   2.434 -0.3511  0.2921  0.4190
 9353SOL    HW134920   2.520   6.383   2.406  1.7721  0.1293 -2.4573
 9353SOL    HW234921   2.592   6.310   2.517 -1.5729  1.6315  0.9061
 9354SOL     OW34922   0.565   7.875   9.497 -0.0162 -0.1682 -0.0022
 9354SOL    HW134923   0.507   7.799   9.498 -0.5375  0.2256  0.9906
 9354SOL    HW234924   0.598   7.881   9.587  1.1185 -0.0426 -0.4132
 9355SOL     OW34925   0.444  10.265   3.569 -0.6607  0.1412 -0.6293
 9355SOL    HW134926   0.403  10.286   3.485 -0.6400 -2.1584 -1.2816
 9355SOL    HW234927   0.407  10.180   3.592 -0.8395  0.8314  1.8449
 9356SOL     OW34928   5.515   3.166   5.877  0.5066  0.5895  0.1424
 9356SOL    HW134929   5.451   3.188   5.809  0.0272 -1.8277 -0.2644
 9356SOL    HW234930   5.562   3.090   5.842  2.4959  1.2911  1.1552
 9357SOL     OW34931  10.960  10.550   7.118  0.0910 -0.4489 -0.2862
 9357SOL    HW134932  10.949  10.588   7.205 -2.1846 -1.2069 -0.1815
 9357SOL    HW234933  10.980  10.625   7.062 -1.5812  0.5741  0.3898
 9358SOL     OW34934   2.060   2.282   0.634  0.3386 -0.0320  0.0774
 9358SOL    HW134935   2.148   2.244   0.635  0.4069  0.1105 -0.3178
 9358SOL    HW234936   2.009   2.225   0.691 -0.0544 -1.9349 -2.0339
 9359SOL     OW34937   4.890   6.921  11.306  0.1278 -0.3366  0.3402
 9359SOL    HW134938   4.972   6.929  11.354  1.4593  0.4132 -1.9661
 9359SOL    HW234939   4.892   6.832  11.270 -0.1384 -0.3538  0.3639
 9360SOL     OW34940   6.326   3.604   1.572 -0.0310 -0.3187 -0.1898
 9360SOL    HW134941   6.292   3.655   1.499 -1.7186 -2.9341 -1.3827
 9360SOL    HW234942   6.401   3.557   1.536  2.8970  2.5975  1.4510
 9361SOL     OW34943   6.992   3.562  10.774  0.2968  0.7630 -0.5639
 9361SOL    HW134944   7.011   3.482  10.725  1.7642  2.1695 -2.4296
 9361SOL    HW234945   6.982   3.630  10.707  1.0663  2.5244  0.9988
 9362SOL     OW34946   9.585   3.338   6.607  0.0874 -0.1709  0.5902
 9362SOL    HW134947   9.588   3.243   6.595 -0.1655 -0.2070  0.8179
 9362SOL    HW234948   9.509   3.366   6.557 -0.6441 -0.2553  1.6339
 9363SOL     OW34949   0.721  11.836   3.229 -0.2821  0.7055  0.5561
 9363SOL    HW134950   0.641  11.784   3.222 -1.1856  1.6401  2.8274
 9363SOL    HW234951   0.702  11.898   3.300  2.7627  0.3505  1.8143
 9364SOL     OW34952   1.210   2.749   2.595 -0.1621  0.1950 -0.1163
 9364SOL    HW134953   1.120   2.719   2.591 -0.5589  1.1019  1.1699
 9364SOL    HW234954   1.213   2.828   2.541 -0.4985  0.9085  0.8605
 9365SOL     OW34955  10.583   1.371   4.924  0.0269  0.3960 -0.1091
 9365SOL    HW134956  10.595   1.448   4.980 -0.9075  0.4482  0.0244
 9365SOL    HW234957  10.525   1.313   4.974 -1.0145  0.5473 -1.1073
 9366SOL     OW34958   6.425   9.153   9.840 -0.3507  0.4828  0.4952
 9366SOL    HW134959   6.356   9.215   9.817 -0.7416 -0.2213 -0.3055
 9366SOL    HW234960   6.389   9.068   9.814  2.5203  0.3974 -4.3077
 9367SOL     OW34961   3.643   1.745  12.028 -0.5238 -0.6507  0.3970
 9367SOL    HW134962   3.627   1.653  12.009 -0.8117 -0.6684  0.7210
 9367SOL    HW234963   3.737   1.756  12.013 -0.3146 -1.2164  1.2287
 9368SOL     OW34964   7.683  12.416   8.807 -0.3133  0.1179  0.5530
 9368SOL    HW134965   7.665  12.322   8.802 -1.5221  0.3926 -2.0798
 9368SOL    HW234966   7.758  12.429   8.748 -1.4044  1.0187 -0.6904
 9369SOL     OW34967   1.309   4.384   6.189 -0.7234  0.6159  0.1820
 9369SOL    HW134968   1.312   4.480   6.198 -0.2957  0.4501  2.2909
 9369SOL    HW234969   1.340   4.351   6.273 -0.0163 -1.4034 -0.7977
 9370SOL     OW34970   8.707  12.145   0.508  0.5279 -0.2697 -0.9601
 9370SOL    HW134971   8.664  12.191   0.580  0.2757 -0.1544 -1.1832
 9370SOL    HW234972   8.765  12.082   0.551  2.5162  1.6823 -0.6092
 9371SOL     OW34973  12.409   9.653   8.871  0.3066 -0.3020  0.2578
 9371SOL    HW134974  12.326   9.621   8.837  0.5002 -0.7705  0.2212
 9371SOL    HW234975  12.392   9.672   8.964 -0.0987  0.5420  0.0214
 9372SOL     OW34976   1.620   2.370   2.731 -0.3708  0.7729 -0.1363
 9372SOL    HW134977   1.659   2.421   2.802 -0.7544  0.5011  0.2752
 9372SOL    HW234978   1.529   2.356   2.759 -0.0868 -0.7508  0.1091
 9373SOL     OW34979   4.434   9.949   5.294 -0.1158 -0.3644 -0.1692
 9373SOL    HW134980   4.442   9.941   5.389  1.3373 -1.3897 -0.3463
 9373SOL    HW234981   4.468  10.036   5.274 -0.9627  0.0861  0.2794
 9374SOL     OW34982   7.781   7.780   0.080  0.4594 -0.1065  0.4746
 9374SOL    HW134983   7.688   7.776   0.058  0.2147 -0.9623  1.5731
 9374SOL    HW234984   7.806   7.870   0.060 -0.4221 -0.0627 -0.5188
 9375SOL     OW34985   4.678   0.424   7.707  0.3725 -0.2468  0.3583
 9375SOL    HW134986   4.729   0.398   7.784  0.5081  1.2288  0.7976
 9375SOL    HW234987   4.625   0.347   7.687  2.7351 -1.8665 -0.1306
 9376SOL     OW34988   2.920   4.508   8.894  0.1761  0.5078 -0.2630
 9376SOL    HW134989   2.925   4.416   8.868 -0.6098  0.7814 -1.4771
 9376SOL    HW234990   2.887   4.552   8.816  0.7070  1.8482  0.2515
 9377SOL     OW34991   2.865   6.220  10.147 -0.4174  0.3056  0.7725
 9377SOL    HW134992   2.896   6.194  10.234  0.3389  1.2078  0.7922
 9377SOL    HW234993   2.945   6.223  10.094 -1.0016 -1.4083 -0.2888
 9378SOL     OW34994   0.341   5.374   4.851  0.3118  0.1533 -0.2957
 9378SOL    HW134995   0.309   5.464   4.858  0.0676  0.0379  0.0944
 9378SOL    HW234996   0.261   5.321   4.845  0.4283 -0.1245  0.4898
 9379SOL     OW34997   4.824   7.233   2.959 -0.1024  0.0153 -0.6558
 9379SOL    HW134998   4.822   7.242   3.055 -1.6187  0.2262 -0.6830
 9379SOL    HW234999   4.785   7.314   2.927 -2.2888 -1.2364 -1.3306
 9380SOL     OW35000   7.031   6.043   3.307 -0.2995  0.3230 -0.0644
 9380SOL    HW135001   7.003   6.075   3.393 -0.0887  2.3577 -0.6887
 9380SOL    HW235002   7.023   6.119   3.250  0.9694 -0.5883 -1.5351
 9381SOL     OW35003   3.015   9.651  10.936 -0.1726  0.8657  0.1081
 9381SOL    HW135004   2.953   9.635  10.864 -0.7059  1.6646  0.3817
 9381SOL    HW235005   2.972   9.613  11.013 -0.8207  2.3308  0.4998
 9382SOL     OW35006   2.261   1.471   3.449  0.5772 -0.3170 -0.3789
 9382SOL    HW135007   2.199   1.438   3.384  1.0307 -1.0328 -0.4577
 9382SOL    HW235008   2.210   1.530   3.504 -0.7965 -2.6887  1.0745
 9383SOL     OW35009   6.486   1.190   7.100 -0.2262  0.2521  0.3807
 9383SOL    HW135010   6.550   1.240   7.050 -1.9375  0.5601 -1.6684
 9383SOL    HW235011   6.406   1.242   7.094 -1.7646 -2.0623 -0.7521
 9384SOL     OW35012   2.174   9.064   7.141 -0.0992 -0.1048 -0.3927
 9384SOL    HW135013   2.216   9.054   7.226 -0.7919  0.1556 -0.0144
 9384SOL    HW235014   2.242   9.041   7.078  0.3729 -0.4578  0.2331
 9385SOL     OW35015   8.931   1.455   7.087 -0.2901 -0.4502 -0.2895
 9385SOL    HW135016   9.005   1.509   7.059 -0.3870  0.3744  0.9510
 9385SOL    HW235017   8.868   1.461   7.015 -0.7525  2.0119  0.2269
 9386SOL     OW35018   5.422  11.895   1.382 -0.1643 -0.0287 -0.1581
 9386SOL    HW135019   5.409  11.878   1.475  1.0434 -0.3444 -0.0356
 9386SOL    HW235020   5.411  11.990   1.373 -3.4005 -0.3013 -0.2564
 9387SOL     OW35021   8.651  11.399   3.676  0.1361  0.0685  0.4299
 9387SOL    HW135022   8.581  11.463   3.673 -0.2635 -0.3764  0.1035
 9387SOL    HW235023   8.640  11.347   3.596  1.3309  0.5090 -0.0472
 9388SOL     OW35024  11.219   2.191   6.907  0.2818  0.6486  0.0573
 9388SOL    HW135025  11.234   2.219   6.998 -0.0212 -1.4791  0.8253
 9388SOL    HW235026  11.214   2.095   6.912 -2.4854  0.5776 -1.7822
 9389SOL     OW35027   8.294  10.581   1.794 -0.6483  0.1712  0.4743
 9389SOL    HW135028   8.263  10.662   1.836 -0.4444  0.8672 -0.6697
 9389SOL    HW235029   8.218  10.524   1.793 -1.3826  1.1316 -0.5413
 9390SOL     OW35030   1.592   1.391   1.708  0.0472 -0.3931 -0.4847
 9390SOL    HW135031   1.674   1.440   1.702  0.2190 -0.8281 -1.9606
 9390SOL    HW235032   1.562   1.407   1.797 -0.3965  3.2150 -1.1151
 9391SOL     OW35033   3.683   3.938   8.090  0.0538  0.4958 -0.2182
 9391SOL    HW135034   3.670   4.033   8.086 -0.4281  0.4712  0.4457
 9391SOL    HW235035   3.753   3.926   8.155  1.9279  0.5076 -2.1509
 9392SOL     OW35036   4.952  12.296  11.065  0.2778 -0.4215 -0.3476
 9392SOL    HW135037   4.998  12.344  11.134 -0.8801 -0.2632  0.3284
 9392SOL    HW235038   4.999  12.212  11.059 -0.4540 -1.0165  1.6255
 9393SOL     OW35039   9.978   2.366   3.479  0.1082 -0.2605  0.0676
 9393SOL    HW135040  10.017   2.280   3.496 -0.3776 -0.9650 -2.0592
 9393SOL    HW235041  10.052   2.421   3.454  0.1335 -0.8381 -1.2211
 9394SOL     OW35042   4.766   2.326   4.890 -0.3857 -0.2733 -0.1928
 9394SOL    HW135043   4.698   2.382   4.852 -1.0586 -1.5977 -1.0241
 9394SOL    HW235044   4.741   2.237   4.865  0.8249 -0.9362  0.8118
 9395SOL     OW35045   2.669   1.474   3.599  0.4610  0.1086  0.2109
 9395SOL    HW135046   2.668   1.462   3.694  1.4975 -0.5257  0.1620
 9395SOL    HW235047   2.615   1.402   3.565 -0.2874  0.6012  0.3262
 9396SOL     OW35048   8.811   0.024  11.243  0.0159 -0.8464  0.7689
 9396SOL    HW135049   8.881  -0.004  11.184  1.2393  0.6176  1.4425
 9396SOL    HW235050   8.799  -0.050  11.303  1.8128 -0.7220  1.3409
 9397SOL     OW35051  10.222  10.143   8.887  0.3359  0.4780  0.1291
 9397SOL    HW135052  10.152  10.086   8.853 -0.2825  1.8708 -1.0408
 9397SOL    HW235053  10.291  10.137   8.821  1.0482 -0.3078  0.9148
 9398SOL     OW35054   4.443   2.443   9.198 -0.0634  0.3654  0.3099
 9398SOL    HW135055   4.351   2.461   9.179 -0.4368 -1.2849  0.4159
 9398SOL    HW235056   4.467   2.372   9.138  0.8481  0.1090  0.9488
 9399SOL     OW35057   0.268   6.346   9.186  0.0892 -0.6075 -0.0550
 9399SOL    HW135058   0.339   6.282   9.183 -0.2928 -1.0469  0.2793
 9399SOL    HW235059   0.188   6.294   9.187 -0.2128 -0.1465  0.8718
 9400SOL     OW35060   7.769  10.221   0.750 -0.2760 -0.4135  0.3043
 9400SOL    HW135061   7.772  10.312   0.781  0.8676 -0.2111 -0.3331
 9400SOL    HW235062   7.859  10.189   0.762  0.5934  0.0257 -3.7128
 9401SOL     OW35063  11.619   8.346   5.917 -0.2925  0.6197  0.1842
 9401SOL    HW135064  11.673   8.286   5.970 -0.6600 -1.5515 -1.7498
 9401SOL    HW235065  11.602   8.297   5.836 -1.5210  2.9801 -1.0641
 9402SOL     OW35066   0.342   6.209   5.177 -0.0986  0.7672 -0.1538
 9402SOL    HW135067   0.371   6.118   5.169 -0.5339  0.6214 -0.1229
 9402SOL    HW235068   0.341   6.242   5.087 -1.6180  0.2036 -0.3695
 9403SOL     OW35069  10.436   6.001   5.741 -0.3444  0.1524 -0.7041
 9403SOL    HW135070  10.378   6.070   5.773  2.5203  1.6947  1.6924
 9403SOL    HW235071  10.460   5.952   5.820  0.2552 -1.5713 -1.8931
 9404SOL     OW35072   0.458   1.085   9.909  1.0339 -0.3651  0.2229
 9404SOL    HW135073   0.497   1.006   9.948  0.0673 -0.8261  0.2959
 9404SOL    HW235074   0.365   1.077   9.929  0.9619  0.9316  0.4353
 9405SOL     OW35075   9.389   9.372  10.436  0.2813  0.0329 -0.3240
 9405SOL    HW135076   9.440   9.377  10.517 -0.0119 -0.4449 -0.1094
 9405SOL    HW235077   9.454   9.383  10.366  0.6517 -0.4009 -0.0475
 9406SOL     OW35078   7.990   1.057   0.694 -0.0700 -0.2340 -0.0146
 9406SOL    HW135079   8.061   1.063   0.630  0.2047 -0.4559  0.2700
 9406SOL    HW235080   8.034   1.051   0.778 -0.4334  0.0604  0.1995
 9407SOL     OW35081   8.405   4.867   0.688  0.0276  0.1089  0.2970
 9407SOL    HW135082   8.390   4.780   0.725  0.9992 -0.1292  0.1702
 9407SOL    HW235083   8.327   4.885   0.636 -0.3464 -0.5312  0.6244
 9408SOL     OW35084   0.903  10.369   4.550 -0.7615 -0.3569  0.5485
 9408SOL    HW135085   0.993  10.375   4.582 -1.1397  0.3526  1.5057
 9408SOL    HW235086   0.891  10.450   4.499 -0.6425 -0.7857 -0.1805
 9409SOL     OW35087   8.727   8.307   1.141  0.4330  0.0664 -0.1783
 9409SOL    HW135088   8.789   8.352   1.083 -0.9350 -0.8329 -2.4656
 9409SOL    HW235089   8.717   8.220   1.101 -1.4755 -0.1790  0.7541
 9410SOL     OW35090   4.457   7.987  11.924  0.2775  0.3515  0.2007
 9410SOL    HW135091   4.413   7.986  11.839  2.2184 -0.5018 -0.8561
 9410SOL    HW235092   4.409   8.053  11.975 -1.0023  0.8047 -1.5016
 9411SOL     OW35093  11.415   6.005   9.507  0.0454 -0.0423  0.8723
 9411SOL    HW135094  11.471   6.015   9.584 -0.9144 -0.0641  1.5886
 9411SOL    HW235095  11.364   6.086   9.503  0.3258  0.1054  0.0479
 9412SOL     OW35096   8.065   2.556   9.390 -0.1253 -0.1676  0.2480
 9412SOL    HW135097   8.021   2.496   9.450  1.2369 -0.3834  1.0823
 9412SOL    HW235098   8.059   2.641   9.434  0.3269 -0.2080  0.3904
 9413SOL     OW35099   1.455   0.132   0.644  0.9890  0.0061  0.3105
 9413SOL    HW135100   1.537   0.151   0.597  0.2152  1.7352 -0.4214
 9413SOL    HW235101   1.400   0.087   0.579  1.1919 -0.7964  0.6815
 9414SOL     OW35102   5.165  10.742   4.171  0.2728  0.2322 -0.5170
 9414SOL    HW135103   5.185  10.835   4.164  0.6837  0.4753  2.5630
 9414SOL    HW235104   5.250  10.698   4.165  0.7144  0.4895  2.5346
 9415SOL     OW35105   5.382   8.055   3.567 -0.4098 -0.1408  0.4554
 9415SOL    HW135106   5.429   8.010   3.637  2.6568  3.2254  0.8437
 9415SOL    HW235107   5.430   8.030   3.487 -1.0688 -0.4569  0.1519
 9416SOL     OW35108   8.813   1.891  12.478  0.2046 -0.0668  0.0541
 9416SOL    HW135109   8.865   1.947  12.535  0.8813 -0.8015  0.1750
 9416SOL    HW235110   8.748   1.851  12.536  0.6137 -0.4793  0.2301
 9417SOL     OW35111  10.681   7.922   5.058  0.2459 -0.0844 -0.2206
 9417SOL    HW135112  10.592   7.924   5.095 -0.2786  0.2505 -1.4742
 9417SOL    HW235113  10.721   7.844   5.096 -0.6936 -0.4179  0.1071
 9418SOL     OW35114   5.098   1.165   7.134  0.1426 -0.1977  0.5456
 9418SOL    HW135115   5.028   1.230   7.136  0.2484 -0.0810  0.4776
 9418SOL    HW235116   5.060   1.090   7.089  0.0357 -0.1635  0.5789
 9419SOL     OW35117   9.971   6.088   7.573  0.1054  0.4253 -0.6005
 9419SOL    HW135118  10.056   6.045   7.585 -0.5815 -0.7064  0.2419
 9419SOL    HW235119   9.994   6.177   7.545  1.5981  0.4762  0.6512
 9420SOL     OW35120   8.394  10.707   1.199  0.1857  0.1578  0.0680
 9420SOL    HW135121   8.466  10.757   1.239  0.7212  1.1003 -1.9279
 9420SOL    HW235122   8.438  10.647   1.138 -0.6049 -1.1968  0.7869
 9421SOL     OW35123   5.762   1.153   2.253  0.5194 -0.1475 -0.1045
 9421SOL    HW135124   5.787   1.230   2.202  0.2332 -0.3247 -0.5215
 9421SOL    HW235125   5.674   1.175   2.286  0.2183 -0.4921 -0.6503
 9422SOL     OW35126   4.988  12.268   5.614 -0.2516 -0.4392 -0.0930
 9422SOL    HW135127   4.967  12.253   5.521 -1.0972 -1.1163  0.1858
 9422SOL    HW235128   4.903  12.266   5.657 -0.0438  1.5654  0.5017
 9423SOL     OW35129   3.291   1.370  11.803  0.1282  0.0103 -0.8867
 9423SOL    HW135130   3.239   1.298  11.840 -1.1396  0.1910 -2.2341
 9423SOL    HW235131   3.240   1.448  11.819  2.1002  0.9048  1.7363
 9424SOL     OW35132  12.010   5.718   0.317 -0.2963 -0.3003 -0.7402
 9424SOL    HW135133  12.103   5.705   0.301  0.0853 -0.3497  1.2872
 9424SOL    HW235134  11.966   5.674   0.244  1.2472 -0.0625 -1.8489
 9425SOL     OW35135   3.756  10.498   1.903  0.2681 -0.4124  0.0370
 9425SOL    HW135136   3.837  10.447   1.908  2.2545  2.6324  2.5267
 9425SOL    HW235137   3.706  10.471   1.980  0.6144  0.3061  0.5148
 9426SOL     OW35138   3.391  11.309   4.590 -0.0243 -0.8877  0.1312
 9426SOL    HW135139   3.361  11.335   4.503  0.0921  1.5298  0.7218
 9426SOL    HW235140   3.483  11.336   4.592 -0.4515  0.6480  1.4862
 9427SOL     OW35141   6.610   9.599   2.472 -0.1107  0.6121  0.1305
 9427SOL    HW135142   6.621   9.505   2.484 -0.4112  0.7052  1.1861
 9427SOL    HW235143   6.693   9.627   2.432 -0.5063 -0.2781 -1.4159
 9428SOL     OW35144   1.257   5.982   8.274 -0.2312 -0.0352 -0.8375
 9428SOL    HW135145   1.317   6.022   8.212 -0.4597  1.7800  0.0387
 9428SOL    HW235146   1.171   6.017   8.251 -0.2450  1.1335  0.7804
 9429SOL     OW35147   8.817  10.882   5.306  0.3717 -0.0427  0.4166
 9429SOL    HW135148   8.801  10.848   5.218 -1.0663 -1.9008  1.3049
 9429SOL    HW235149   8.731  10.915   5.334  0.9402  1.0438  0.9505
 9430SOL     OW35150   8.433   7.854   9.656 -0.0596 -0.2735 -0.1995
 9430SOL    HW135151   8.520   7.888   9.676 -0.0811 -0.4507  0.2130
 9430SOL    HW235152   8.379   7.881   9.731 -0.1027 -1.1125  0.0891
 9431SOL     OW35153  10.026   1.837  11.259  0.3580 -0.5020 -0.4432
 9431SOL    HW135154  10.013   1.779  11.334 -0.0850 -1.2114 -1.0559
 9431SOL    HW235155   9.938   1.865  11.234  0.3058 -1.8208 -1.8893
 9432SOL     OW35156   3.792   6.819   7.696 -0.0324 -0.0079  0.2527
 9432SOL    HW135157   3.873   6.786   7.734  0.3705  0.6273 -0.0390
 9432SOL    HW235158   3.803   6.807   7.602  0.8989  2.5882 -0.0352
 9433SOL     OW35159   7.660   5.816   3.875 -0.6917  0.3570 -0.2100
 9433SOL    HW135160   7.738   5.857   3.912 -1.6046  0.7577  1.3266
 9433SOL    HW235161   7.633   5.876   3.805 -0.2928  0.8198  0.0294
 9434SOL     OW35162   7.365   3.653   5.097  0.0434 -0.0610 -0.1377
 9434SOL    HW135163   7.388   3.657   5.004  0.3794  0.7842 -0.0233
 9434SOL    HW235164   7.427   3.712   5.140  1.6069 -2.3196  0.9826
 9435SOL     OW35165   9.721   8.955   8.567  0.1042  0.4664  0.1336
 9435SOL    HW135166   9.643   8.953   8.623 -0.2617 -1.5853 -0.3567
 9435SOL    HW235167   9.728   9.046   8.539 -1.4352  0.9368  1.1199
 9436SOL     OW35168   0.181   4.178   4.150  0.1360 -0.1181 -0.7268
 9436SOL    HW135169   0.205   4.085   4.150 -0.1611 -0.1993 -0.1397
 9436SOL    HW235170   0.167   4.199   4.058 -1.2688 -1.0439 -0.7558
 9437SOL     OW35171  11.771  12.285  11.218  0.0627  0.1396 -0.5023
 9437SOL    HW135172  11.862  12.254  11.219 -0.0838 -0.3934 -1.7645
 9437SOL    HW235173  11.735  12.251  11.136 -1.1049  0.8510 -0.3081
 9438SOL     OW35174   0.538  12.313  12.072  0.0599 -0.4222  0.0136
 9438SOL    HW135175   0.564  12.270  12.154 -1.4962  1.1988  1.4522
 9438SOL    HW235176   0.579  12.399  12.076 -0.2581 -0.2258 -0.7806
 9439SOL     OW35177   5.678  11.138   3.821 -0.1256 -0.6141 -0.2565
 9439SOL    HW135178   5.723  11.067   3.866  0.6859  0.0892  0.0572
 9439SOL    HW235179   5.720  11.218   3.853 -0.0651 -0.0532 -1.6598
 9440SOL     OW35180   3.841  10.453   9.590  0.0453 -0.5496 -0.2796
 9440SOL    HW135181   3.853  10.538   9.549 -1.2738 -0.3883 -0.3668
 9440SOL    HW235182   3.749  10.451   9.615  0.0763 -1.9112 -0.2026
 9441SOL     OW35183   5.361   4.037   5.273 -0.4079 -0.9427  0.0653
 9441SOL    HW135184   5.361   4.067   5.183 -0.0595  0.2936  0.4628
 9441SOL    HW235185   5.289   4.084   5.315  0.1125 -0.6826  0.6896
 9442SOL     OW35186  10.012   6.313  11.687 -0.1527  0.1796 -0.2372
 9442SOL    HW135187   9.989   6.405  11.675  1.5107  1.0394  2.3001
 9442SOL    HW235188   9.970   6.289  11.770  0.1666 -1.0915 -0.4314
 9443SOL     OW35189   6.607   8.686   0.494  0.1102  0.1172 -0.3155
 9443SOL    HW135190   6.698   8.662   0.511  0.6018  2.2964  0.3967
 9443SOL    HW235191   6.564   8.603   0.470  2.5158 -0.7722 -1.8370
 9444SOL     OW35192   1.426   5.634   4.062  0.1170 -0.2519  0.2171
 9444SOL    HW135193   1.489   5.698   4.028 -0.5963 -0.3634 -1.4370
 9444SOL    HW235194   1.435   5.639   4.157  0.8594  1.5161  0.0929
 9445SOL     OW35195   6.315   2.028   7.623  0.5668 -0.0028 -0.0778
 9445SOL    HW135196   6.244   2.057   7.566  0.0363 -1.5012 -0.2286
 9445SOL    HW235197   6.326   2.099   7.686 -0.7815  0.4419 -0.3120
 9446SOL     OW35198   0.262   6.376   8.715  0.3519 -0.3538 -0.3002
 9446SOL    HW135199   0.184   6.353   8.766  1.2334 -0.3379  1.1230
 9446SOL    HW235200   0.249   6.467   8.691  0.5271  0.0803  1.1354
 9447SOL     OW35201   2.698   6.941  11.417  0.1580  0.0255  0.6354
 9447SOL    HW135202   2.696   6.935  11.322 -1.6371 -3.7018  0.7551
 9447SOL    HW235203   2.620   6.992  11.440  1.9460  3.2066  0.1841
 9448SOL     OW35204   2.690   9.928   5.742 -0.3755  0.1910  0.3233
 9448SOL    HW135205   2.762   9.922   5.678 -1.3509  1.5906 -0.9765
 9448SOL    HW235206   2.684   9.840   5.778  1.8783 -0.0230  0.3769
 9449SOL     OW35207  10.773   5.571   6.536  0.3003  0.2953  0.0877
 9449SOL    HW135208  10.677   5.566   6.543  0.2946 -0.6836 -0.5358
 9449SOL    HW235209  10.805   5.517   6.608  0.3620 -0.2461 -0.3383
 9450SOL     OW35210   5.526   7.165   1.890 -0.6115 -0.2204  0.5784
 9450SOL    HW135211   5.512   7.246   1.940  1.2280  1.9961 -2.1841
 9450SOL    HW235212   5.598   7.186   1.830  0.3097 -4.1253  0.0278
 9451SOL     OW35213   6.647  10.524   4.795  0.2723  0.6561  0.4591
 9451SOL    HW135214   6.633  10.575   4.715 -0.7081  2.5923  1.7663
 9451SOL    HW235215   6.737  10.492   4.788  0.4817  1.4748 -1.0377
 9452SOL     OW35216   7.104   7.164   5.509 -0.0745 -0.4505 -0.3918
 9452SOL    HW135217   7.046   7.162   5.432 -1.1895  3.8397  0.0384
 9452SOL    HW235218   7.157   7.243   5.495 -0.3852  0.5529  3.1934
 9453SOL     OW35219   2.442   9.793   9.518  0.3503  0.0030  0.4302
 9453SOL    HW135220   2.490   9.711   9.502 -0.5508 -0.3438 -0.6635
 9453SOL    HW235221   2.388   9.773   9.595  1.0823  0.0140  0.9600
 9454SOL     OW35222   4.465   1.262  11.782 -0.1701  0.2893  0.1772
 9454SOL    HW135223   4.485   1.169  11.796 -2.6531 -0.3864 -0.3230
 9454SOL    HW235224   4.468   1.273  11.687 -1.5671  0.2591  0.1106
 9455SOL     OW35225   7.846   7.200   1.162 -0.2225  0.2188  0.3891
 9455SOL    HW135226   7.839   7.110   1.130 -0.6207  0.5195 -0.4113
 9455SOL    HW235227   7.931   7.230   1.129 -1.6078  1.2919 -2.5180
 9456SOL     OW35228  10.034  10.054   3.508  0.2617 -0.0336  0.2570
 9456SOL    HW135229  10.061   9.964   3.493 -2.3894 -1.1272  1.3665
 9456SOL    HW235230  10.020  10.060   3.602 -0.2323  1.3560  0.1269
 9457SOL     OW35231   4.788  10.956   9.505  0.0479  0.4258  0.3626
 9457SOL    HW135232   4.713  11.012   9.486 -1.5976 -0.9978  2.1890
 9457SOL    HW235233   4.749  10.870   9.524  2.0566 -0.1964  2.0581
 9458SOL     OW35234   7.356  11.889  11.177 -0.3414 -0.1052  0.5151
 9458SOL    HW135235   7.342  11.795  11.165  3.0232 -0.5713 -0.8466
 9458SOL    HW235236   7.422  11.895  11.247 -0.1717  1.2009  0.2770
 9459SOL     OW35237   2.697   6.928  11.132 -0.0356 -0.3116 -0.4295
 9459SOL    HW135238   2.693   7.018  11.099 -0.1358 -0.8216 -1.8756
 9459SOL    HW235239   2.769   6.888  11.084 -0.3697 -1.1608 -0.2331
 9460SOL     OW35240   8.570   7.047   1.246 -0.5738  0.7074 -0.3161
 9460SOL    HW135241   8.523   6.963   1.238  0.1875  0.3630 -1.5338
 9460SOL    HW235242   8.627   7.035   1.321 -0.3687  0.0639 -0.5656
 9461SOL     OW35243   2.707   3.484   6.925 -0.9945 -0.2962  0.7327
 9461SOL    HW135244   2.670   3.567   6.894 -0.7845  0.2690  1.9366
 9461SOL    HW235245   2.653   3.460   7.000 -0.0593 -0.4054  1.3842
 9462SOL     OW35246   9.137   6.680   0.987  0.4026  0.4585 -0.6548
 9462SOL    HW135247   9.074   6.647   0.923 -1.1607  0.2878  0.8924
 9462SOL    HW235248   9.088   6.683   1.069  2.5591 -0.1327  0.7295
 9463SOL     OW35249   6.504   3.712   8.087  0.3628  0.5793 -0.1142
 9463SOL    HW135250   6.464   3.626   8.097 -0.6292  0.9510 -0.7649
 9463SOL    HW235251   6.443   3.761   8.032  0.4843  1.9861  0.9440
 9464SOL     OW35252   6.451  10.553   0.874 -0.1650 -0.3053  0.1029
 9464SOL    HW135253   6.409  10.537   0.958 -0.8884  0.3485 -0.1192
 9464SOL    HW235254   6.379  10.554   0.811  0.1965  0.5864 -0.3259
 9465SOL     OW35255   2.524   8.228   4.250  0.3425  0.2012 -0.3500
 9465SOL    HW135256   2.457   8.172   4.289  1.8314 -1.4524 -0.0023
 9465SOL    HW235257   2.476   8.289   4.195 -1.4731 -0.4851  0.4045
 9466SOL     OW35258   4.563   7.766  11.237  0.0042 -0.2368 -0.6993
 9466SOL    HW135259   4.655   7.781  11.255  0.3676 -1.4733 -1.3757
 9466SOL    HW235260   4.562   7.688  11.182 -1.4729 -0.4560 -0.4066
 9467SOL     OW35261  12.316   4.381   0.823  0.1743 -0.5602  0.4108
 9467SOL    HW135262  12.280   4.466   0.850 -0.4184 -1.0069  1.0601
 9467SOL    HW235263  12.298   4.376   0.729  0.2523  0.0415  0.3560
 9468SOL     OW35264   8.913   3.232  11.766  0.9142 -0.6116  0.4897
 9468SOL    HW135265   8.979   3.295  11.794  0.4463 -0.3814  1.0971
 9468SOL    HW235266   8.867   3.208  11.846 -0.5369  0.1414 -0.0811
 9469SOL     OW35267   0.643  11.336   9.542  0.2899 -0.2231 -0.1064
 9469SOL    HW135268   0.697  11.282   9.484  1.7001  1.5648 -0.5451
 9469SOL    HW235269   0.678  11.424   9.532 -1.3740  0.6432  1.2444
 9470SOL     OW35270  12.430  10.323   9.704 -0.1678 -0.1338 -0.1178
 9470SOL    HW135271  12.387  10.371   9.634 -0.7651 -0.6249 -0.0971
 9470SOL    HW235272  12.373  10.248   9.720  0.3147 -0.3927  0.4264
 9471SOL     OW35273   1.760   8.012   4.463 -0.4630 -1.0325 -0.4437
 9471SOL    HW135274   1.714   8.023   4.546 -0.7839  0.8818 -0.8210
 9471SOL    HW235275   1.720   8.077   4.405  1.9985  0.0072 -1.0911
 9472SOL     OW35276   5.507  11.922   5.784  0.2823 -0.0508  0.1449
 9472SOL    HW135277   5.602  11.910   5.786  0.7282  2.7583  0.8791
 9472SOL    HW235278   5.475  11.847   5.734  3.3316  0.9900 -4.0279
 9473SOL     OW35279  10.368  11.435   5.119 -0.7561  0.1260  0.0420
 9473SOL    HW135280  10.407  11.427   5.205 -1.0946  1.0103  0.2877
 9473SOL    HW235281  10.378  11.527   5.096 -0.3918 -0.1509 -1.0051
 9474SOL     OW35282  10.814   5.115   0.922 -0.4995 -0.2303 -0.1502
 9474SOL    HW135283  10.873   5.164   0.865 -0.8588  1.7836  1.1265
 9474SOL    HW235284  10.729   5.156   0.909 -1.5039 -2.5175 -1.2846
 9475SOL     OW35285  11.089   2.482  11.176  0.2498  0.4402 -0.0673
 9475SOL    HW135286  11.028   2.430  11.124 -0.5632  1.3018  0.0041
 9475SOL    HW235287  11.174   2.469  11.133  0.3246 -1.9382  0.6988
 9476SOL     OW35288   9.053   6.855  10.437  0.5342 -0.1491  0.4043
 9476SOL    HW135289   8.988   6.868  10.506  0.5282  1.6186  0.0958
 9476SOL    HW235290   9.087   6.767  10.453 -0.3492 -0.2501  1.9025
 9477SOL     OW35291   1.982   0.137   2.434 -1.0603  0.2860  0.7376
 9477SOL    HW135292   2.003   0.224   2.469 -2.7475  0.5948  1.0554
 9477SOL    HW235293   1.896   0.116   2.471 -1.0597 -1.1562 -0.0139
 9478SOL     OW35294   8.987   2.500  10.977 -0.0739 -0.2498 -0.1845
 9478SOL    HW135295   9.080   2.511  10.958  0.0939 -0.9912  0.1704
 9478SOL    HW235296   8.979   2.514  11.071 -0.6465  1.7512 -0.4831
 9479SOL     OW35297   1.086   8.730   5.646  0.0728 -0.0790 -0.0686
 9479SOL    HW135298   1.038   8.763   5.571  2.0331  2.2612 -0.4059
 9479SOL    HW235299   1.057   8.784   5.719  0.6874  0.0072  0.1235
 9480SOL     OW35300  11.423   5.995   1.799  0.1273 -0.2378 -0.2342
 9480SOL    HW135301  11.403   5.956   1.884 -0.0792  2.5027  1.0637
 9480SOL    HW235302  11.343   5.982   1.748  0.2782 -1.9688 -0.1147
 9481SOL     OW35303   9.865  12.303   3.790  0.2491  0.4142 -0.6929
 9481SOL    HW135304   9.940  12.329   3.843 -0.5670  0.1814  0.6419
 9481SOL    HW235305   9.789  12.330   3.842 -0.6031 -1.7843 -0.6961
 9482SOL     OW35306   7.933   2.740   0.780  0.4208  0.7320  0.4247
 9482SOL    HW135307   7.979   2.710   0.858  1.1485 -1.5336 -0.8020
 9482SOL    HW235308   7.868   2.672   0.762 -0.9533  2.0895  0.0245
 9483SOL     OW35309  12.141   3.927   9.572  0.3776 -0.1302  0.1028
 9483SOL    HW135310  12.046   3.938   9.569  0.2134 -0.3821  2.4420
 9483SOL    HW235311  12.155   3.855   9.633  2.0976  1.0475  1.2109
 9484SOL     OW35312   6.748   7.743   1.375 -0.0969  0.5660 -0.0858
 9484SOL    HW135313   6.802   7.823   1.375 -0.3087  0.7158  0.4792
 9484SOL    HW235314   6.764   7.703   1.290 -0.6584  1.6732 -0.7342
 9485SOL     OW35315   8.528   4.449   9.900 -0.1734 -0.2032 -0.0154
 9485SOL    HW135316   8.560   4.400   9.975  0.3857 -1.0010 -0.7607
 9485SOL    HW235317   8.586   4.525   9.893  0.1852 -0.4801 -0.0365
 9486SOL     OW35318   9.220   1.202  12.260 -0.7747 -0.1088 -0.0000
 9486SOL    HW135319   9.257   1.161  12.182 -0.8543  1.4025 -0.8544
 9486SOL    HW235320   9.185   1.286  12.230 -1.1140  0.3650  1.5990
 9487SOL     OW35321   6.119   1.172  11.145 -0.9441 -0.2025  0.1779
 9487SOL    HW135322   6.172   1.197  11.221 -0.5300 -2.6192  0.7469
 9487SOL    HW235323   6.174   1.194  11.070  0.4461 -1.5872  0.7356
 9488SOL     OW35324   9.476   4.245   8.268  0.1252 -0.1995 -0.0594
 9488SOL    HW135325   9.391   4.219   8.232  0.1394  0.5533 -0.6590
 9488SOL    HW235326   9.522   4.162   8.281  0.3128 -0.5025 -2.2470
 9489SOL     OW35327  11.318  10.859   3.209 -0.9860 -0.2235  0.0337
 9489SOL    HW135328  11.231  10.887   3.181  0.0893  1.8083 -1.5926
 9489SOL    HW235329  11.377  10.898   3.145  1.2347 -0.4605  1.8198
 9490SOL     OW35330   4.817   3.611  10.413 -0.0870  0.1602 -0.5873
 9490SOL    HW135331   4.763   3.539  10.380 -0.5425  0.4738 -0.5392
 9490SOL    HW235332   4.810   3.604  10.508  1.7712 -1.1579 -0.5049
 9491SOL     OW35333   1.040   9.302   8.040 -0.0997 -0.3692  0.2472
 9491SOL    HW135334   1.123   9.343   8.064 -1.5524  1.8170  1.9827
 9491SOL    HW235335   1.054   9.209   8.054  2.1142 -0.0898  0.2483
 9492SOL     OW35336   4.390   3.350   6.611 -0.1380 -0.4791 -0.2808
 9492SOL    HW135337   4.467   3.322   6.562  0.6481  1.1841 -0.0386
 9492SOL    HW235338   4.421   3.418   6.670 -1.6024 -0.4922  0.5640
 9493SOL     OW35339   4.258   8.191   9.764 -0.1631 -1.0756 -0.2595
 9493SOL    HW135340   4.169   8.163   9.786  0.2282 -1.0323  1.4376
 9493SOL    HW235341   4.310   8.112   9.769  0.1123 -0.8832 -0.0894
 9494SOL     OW35342   4.226  11.866  10.565 -0.0407 -0.2457  0.2405
 9494SOL    HW135343   4.182  11.910  10.492  1.3389  0.6092 -0.1060
 9494SOL    HW235344   4.275  11.936  10.608  1.2512 -1.2272  0.3981
 9495SOL     OW35345   4.030   8.335   0.854 -0.6355  0.2541 -0.2358
 9495SOL    HW135346   3.978   8.256   0.837 -0.1915 -0.1453  0.2651
 9495SOL    HW235347   4.036   8.378   0.768  0.2776 -0.9583 -0.7896
 9496SOL     OW35348   0.224  10.241   6.621 -0.3368  0.1654 -0.3840
 9496SOL    HW135349   0.186  10.156   6.601  0.3538 -0.5532  1.2275
 9496SOL    HW235350   0.294  10.252   6.557 -0.7964 -0.2081 -0.9579
 9497SOL     OW35351   2.291   3.388   8.679 -0.2898  0.1360 -0.4393
 9497SOL    HW135352   2.271   3.481   8.688  2.1084  0.8160 -1.3651
 9497SOL    HW235353   2.206   3.347   8.661 -1.8109  1.7372  2.2907
 9498SOL     OW35354   9.415   4.687   6.369  0.1673 -0.0538 -0.7340
 9498SOL    HW135355   9.404   4.722   6.281  1.5204  1.1596 -0.4690
 9498SOL    HW235356   9.497   4.726   6.400 -0.6986  0.2619  1.3799
 9499SOL     OW35357   7.970   0.353   1.250 -0.1532  0.1697  0.2425
 9499SOL    HW135358   7.930   0.338   1.336  0.2697 -0.3450  0.3548
 9499SOL    HW235359   7.963   0.269   1.205  1.7252 -0.2805  0.6616
 9500SOL     OW35360   4.088   9.237   9.674  0.0360  0.0334  0.1707
 9500SOL    HW135361   4.138   9.318   9.672  2.6090 -1.2370  3.5507
 9500SOL    HW235362   4.128   9.182   9.607 -0.4303  0.8231 -0.7800
 9501SOL     OW35363   4.994  12.103   6.443 -0.2900 -0.1641 -0.1849
 9501SOL    HW135364   4.975  12.195   6.463 -1.4583 -0.4494  0.1181
 9501SOL    HW235365   5.037  12.069   6.521 -1.2069 -0.2392  0.3073
 9502SOL     OW35366  10.913   0.581   5.106  0.0282  0.4769 -0.0335
 9502SOL    HW135367  10.838   0.639   5.120  0.9834  1.3848  1.6349
 9502SOL    HW235368  10.895   0.506   5.163 -0.2157  0.0924 -0.6117
 9503SOL     OW35369   3.686   1.445   9.097  0.5008  0.3016  0.1226
 9503SOL    HW135370   3.643   1.393   9.165 -0.7522 -1.6924 -2.0593
 9503SOL    HW235371   3.757   1.390   9.065  1.2798  1.3414 -0.0175
 9504SOL     OW35372   9.613   8.956   2.579  0.7983  0.1614 -0.3667
 9504SOL    HW135373   9.667   8.940   2.501  0.0363 -0.9635 -0.6801
 9504SOL    HW235374   9.670   8.931   2.652  0.4900 -1.6891 -0.7318
 9505SOL     OW35375   8.780   6.357  10.010 -0.6077 -0.2684  0.3941
 9505SOL    HW135376   8.694   6.318  10.028 -0.7269 -0.0078  0.3893
 9505SOL    HW235377   8.762   6.427   9.947 -0.4659  0.1473  0.8159
 9506SOL     OW35378   0.301   8.576   7.855  0.4905  0.1730 -0.1681
 9506SOL    HW135379   0.211   8.546   7.864 -0.0021  1.9811  1.5407
 9506SOL    HW235380   0.354   8.498   7.877 -0.6427 -0.5810 -0.0330
 9507SOL     OW35381   3.464   5.985   8.955  0.1895 -0.1758  0.5367
 9507SOL    HW135382   3.414   5.929   8.895  0.2767  0.2981  0.0071
 9507SOL    HW235383   3.529   5.926   8.993 -1.6040 -1.1325  2.3002
 9508SOL     OW35384   6.569   3.952   9.475 -0.1090  0.3096  0.0123
 9508SOL    HW135385   6.496   3.941   9.414  0.6329 -1.2228 -0.6761
 9508SOL    HW235386   6.562   4.042   9.506 -2.5909  0.0665  0.3873
 9509SOL     OW35387  10.037   4.813   8.277  0.3891 -0.6575 -0.2064
 9509SOL    HW135388   9.965   4.818   8.339  1.2726  2.5559  0.7456
 9509SOL    HW235389  10.112   4.784   8.330  0.7719  0.4566 -0.1211
 9510SOL     OW35390   7.871   8.703   6.958 -0.2873 -0.4501  0.2429
 9510SOL    HW135391   7.811   8.698   7.032  1.4806  0.0879  1.7953
 9510SOL    HW235392   7.914   8.618   6.956  1.2732  0.2640  1.3203
 9511SOL     OW35393  11.808   4.139   9.038 -0.3509  0.0326 -0.6739
 9511SOL    HW135394  11.895   4.178   9.035 -0.2783 -0.1371 -0.8281
 9511SOL    HW235395  11.759   4.192   9.101 -0.8549  1.5828 -2.2749
 9512SOL     OW35396  11.527   6.821   0.455  0.3310 -0.0939 -0.5156
 9512SOL    HW135397  11.535   6.838   0.361  0.7172  0.5411 -0.3785
 9512SOL    HW235398  11.439   6.783   0.465  0.0630  0.3525 -1.0656
 9513SOL     OW35399   2.704   7.506  10.052  0.1620  0.1155  0.4873
 9513SOL    HW135400   2.759   7.428  10.042 -0.6108 -0.4133  0.2527
 9513SOL    HW235401   2.734   7.565   9.983  1.7288  0.6483  1.5561
 9514SOL     OW35402   1.510  10.483  10.005  0.5539  0.1575 -0.0057
 9514SOL    HW135403   1.444  10.548   9.982  0.3546  0.3765  1.1317
 9514SOL    HW235404   1.488  10.406   9.951  0.1449  0.6571 -0.5643
 9515SOL     OW35405  12.285   6.629   9.875  0.1238 -0.1694  0.3395
 9515SOL    HW135406  12.363   6.573   9.877  0.3909  0.1815 -0.0452
 9515SOL    HW235407  12.302   6.691   9.804 -2.1539 -2.4096 -2.4248
 9516SOL     OW35408   5.759   1.971   1.395  0.2212 -0.0710  0.3020
 9516SOL    HW135409   5.834   1.998   1.343 -0.1184 -1.5763 -1.0581
 9516SOL    HW235410   5.738   1.883   1.364 -1.5476 -0.0542  1.2725
 9517SOL     OW35411   7.629   7.392   0.664  0.1198  0.6294  0.0172
 9517SOL    HW135412   7.687   7.468   0.673 -0.5864  1.5244 -2.3069
 9517SOL    HW235413   7.684   7.322   0.630  0.1882  0.9953 -0.6382
 9518SOL     OW35414   5.941  10.276   5.896 -0.3357  0.3176 -0.0018
 9518SOL    HW135415   6.033  10.274   5.870 -0.2877  1.1247  0.0685
 9518SOL    HW235416   5.943  10.305   5.987 -0.6207 -0.5079  0.2792
 9519SOL     OW35417  11.917   6.831   4.175 -0.4828 -0.3608 -0.5127
 9519SOL    HW135418  12.006   6.861   4.154 -0.0190 -0.6794  0.8683
 9519SOL    HW235419  11.860   6.899   4.141  0.4621  1.2941  1.0689
 9520SOL     OW35420   1.552  10.013   8.170  0.0195  0.6538 -0.6201
 9520SOL    HW135421   1.561  10.092   8.224 -0.1598  1.1984 -1.3657
 9520SOL    HW235422   1.506  10.043   8.092 -0.6344 -0.3279 -0.6311
 9521SOL     OW35423  11.258   4.917  11.821  0.0722  0.1645  0.5140
 9521SOL    HW135424  11.261   4.876  11.734 -2.1785  0.8443  0.0568
 9521SOL    HW235425  11.210   4.855  11.875  1.2033 -0.1148  1.2178
 9522SOL     OW35426   8.788   9.280   8.052 -0.7811 -0.8075 -0.4612
 9522SOL    HW135427   8.875   9.316   8.031 -0.1675 -2.1372 -0.2757
 9522SOL    HW235428   8.755   9.246   7.969 -0.1489 -2.3006 -0.1301
 9523SOL     OW35429   3.580   6.976  11.854 -0.0609 -0.5638  0.0819
 9523SOL    HW135430   3.646   6.911  11.879  0.5277  0.2725  0.8005
 9523SOL    HW235431   3.521   6.981  11.930 -0.4855 -0.7262 -0.2336
 9524SOL     OW35432  12.356   7.343   6.134 -1.0304 -0.3912  0.3778
 9524SOL    HW135433  12.272   7.297   6.131 -0.1777 -1.9660 -0.0352
 9524SOL    HW235434  12.422   7.274   6.131  0.2973  0.8436  0.1111
 9525SOL     OW35435   7.286  11.172   6.123 -0.6413 -0.1315 -0.5129
 9525SOL    HW135436   7.295  11.083   6.088  0.9859  0.4846 -1.8411
 9525SOL    HW235437   7.369  11.214   6.101 -0.7524  1.2707  1.4846
 9526SOL     OW35438   5.666  11.933  11.866 -0.1438 -0.0887 -0.3874
 9526SOL    HW135439   5.649  11.848  11.906  1.7139  0.3838  1.6108
 9526SOL    HW235440   5.714  11.913  11.786 -0.4749 -0.9322 -0.3820
 9527SOL     OW35441  10.446  12.435   0.021 -0.6721 -0.4002  0.6916
 9527SOL    HW135442  10.509  12.417   0.091  0.9809 -3.9667 -1.4152
 9527SOL    HW235443  10.390  12.358   0.019 -1.3920  0.1156 -1.1770
 9528SOL     OW35444   4.916   9.743   6.287 -0.0116 -0.0358 -0.0983
 9528SOL    HW135445   4.949   9.828   6.315 -0.1676  0.0774 -0.2624
 9528SOL    HW235446   4.984   9.709   6.229  0.6199 -0.5478  0.8957
 9529SOL     OW35447  12.284   0.197   8.475  0.6485 -0.1107 -0.1271
 9529SOL    HW135448  12.246   0.270   8.426  0.9093  0.1963  0.1198
 9529SOL    HW235449  12.218   0.175   8.541  0.1332 -0.7798 -0.8574
 9530SOL     OW35450   6.001  10.149   0.865 -0.2243  0.4624 -0.0028
 9530SOL    HW135451   6.001  10.154   0.961 -0.7884  3.5822 -0.0881
 9530SOL    HW235452   5.942  10.218   0.837 -1.7682 -1.7263 -2.6410
 9531SOL     OW35453   4.676   5.427   8.814  0.2838  0.0044  0.2171
 9531SOL    HW135454   4.758   5.390   8.783  0.3908 -0.4519  1.0156
 9531SOL    HW235455   4.609   5.390   8.756  0.4983 -0.6809  0.3966
 9532SOL     OW35456   9.495   9.542   6.222 -0.1223  0.0669 -0.1222
 9532SOL    HW135457   9.428   9.497   6.273  0.7338 -2.1285 -0.7961
 9532SOL    HW235458   9.446   9.594   6.158 -1.1660  1.0858  1.4434
 9533SOL     OW35459  11.725   4.266  10.060 -0.3357  0.2088  0.2250
 9533SOL    HW135460  11.704   4.213   9.983  0.1437  1.7366 -1.0182
 9533SOL    HW235461  11.781   4.210  10.113 -1.7279 -1.3550  0.1303
 9534SOL     OW35462  10.424   5.528   4.122 -0.8739  0.2609  0.4707
 9534SOL    HW135463  10.345   5.578   4.103 -1.7565 -0.4765  2.0180
 9534SOL    HW235464  10.495   5.579   4.083 -2.1719  0.3764 -1.9556
 9535SOL     OW35465  10.765   4.233   5.859  0.1025  0.3609  0.2586
 9535SOL    HW135466  10.787   4.326   5.864 -0.1404  0.3551  2.4202
 9535SOL    HW235467  10.670   4.230   5.867  0.1275 -0.0702  0.4533
 9536SOL     OW35468   3.157   4.245   1.898 -0.2131  0.1829  0.2045
 9536SOL    HW135469   3.076   4.230   1.948 -0.0164 -2.5393 -0.1815
 9536SOL    HW235470   3.126   4.266   1.810 -0.4970  1.3915  0.5705
 9537SOL     OW35471   6.528  10.613   1.240  0.6378  0.0292  0.5800
 9537SOL    HW135472   6.454  10.622   1.180  0.8162 -2.5976 -0.1545
 9537SOL    HW235473   6.590  10.679   1.212 -0.4722  0.7470 -0.2807
 9538SOL     OW35474   3.289   9.130   5.758  0.0505 -0.7166  0.2750
 9538SOL    HW135475   3.363   9.150   5.815 -0.3823 -1.6669  1.1861
 9538SOL    HW235476   3.240   9.212   5.753  0.4871 -0.4258  0.6864
 9539SOL     OW35477  10.704   9.658   8.782 -0.0115 -0.2103  0.6028
 9539SOL    HW135478  10.799   9.657   8.799  0.0126  0.8359  0.6007
 9539SOL    HW235479  10.677   9.567   8.796  1.1237 -0.7090 -0.1908
 9540SOL     OW35480   1.874   2.321   8.809  0.6330  0.4969 -0.3765
 9540SOL    HW135481   1.837   2.406   8.783 -1.5060 -0.3388 -0.2697
 9540SOL    HW235482   1.810   2.257   8.779  2.2848 -1.1219 -0.6071
 9541SOL     OW35483  12.462   4.196   6.287  0.1591 -0.0907 -0.0160
 9541SOL    HW135484  12.541   4.149   6.258 -0.1129  0.5598 -1.9685
 9541SOL    HW235485  12.489   4.288   6.290 -0.1126 -0.0312  0.8760
 9542SOL     OW35486   6.773  10.111   9.957 -0.1967  0.7099  0.3457
 9542SOL    HW135487   6.764  10.162  10.037 -0.4601  1.1959  0.0150
 9542SOL    HW235488   6.852  10.145   9.915 -0.5340  1.0554 -0.0184
 9543SOL     OW35489   6.522   6.826   5.264  0.2768  0.0996  0.5636
 9543SOL    HW135490   6.455   6.798   5.326  1.2337 -0.8521  1.2167
 9543SOL    HW235491   6.487   6.804   5.178 -0.3943 -0.0338  0.8669
 9544SOL     OW35492   8.904   1.540  12.268 -0.1511  0.0052  0.5188
 9544SOL    HW135493   8.862   1.545  12.354 -0.8943 -1.8309  0.3047
 9544SOL    HW235494   8.943   1.627  12.255 -0.7290  0.5751  2.3369
 9545SOL     OW35495   0.830   5.525  10.522  0.4173  0.1195 -0.1054
 9545SOL    HW135496   0.839   5.534  10.617  1.7685  0.4570 -0.2338
 9545SOL    HW235497   0.782   5.603  10.494  0.5654  0.3343  0.2402
 9546SOL     OW35498   6.822   8.511   5.494  0.1290 -0.3425 -0.8277
 9546SOL    HW135499   6.882   8.487   5.423  0.8906 -0.4077 -0.1685
 9546SOL    HW235500   6.745   8.546   5.449  0.5872 -0.4165 -1.6884
 9547SOL     OW35501  10.914   9.390   1.289  0.2985  0.2897  0.4674
 9547SOL    HW135502  10.959   9.450   1.350 -1.4904  1.5923  0.5710
 9547SOL    HW235503  10.843   9.352   1.341  0.5188 -0.8292 -0.0261
 9548SOL     OW35504  11.388   4.432   0.446  0.3866 -0.3928  0.2365
 9548SOL    HW135505  11.393   4.523   0.475 -0.5313 -0.7241  1.5370
 9548SOL    HW235506  11.478   4.409   0.423  0.5839  0.9134 -0.4022
 9549SOL     OW35507   5.397   4.354   9.005 -0.6666 -0.5602  0.1318
 9549SOL    HW135508   5.324   4.319   8.953 -0.6084 -1.3327  0.5696
 9549SOL    HW235509   5.422   4.283   9.063  0.9265 -0.5585 -0.5097
 9550SOL     OW35510   3.395  11.794   2.973 -0.1224 -0.4410 -0.6915
 9550SOL    HW135511   3.397  11.730   2.902 -1.6859  0.6647 -1.7812
 9550SOL    HW235512   3.303  11.815   2.985  0.3207  1.6067 -0.3932
 9551SOL     OW35513   1.479   7.375   4.869 -0.5419 -0.0629  0.2114
 9551SOL    HW135514   1.509   7.301   4.921 -1.1471 -0.1792  0.4048
 9551SOL    HW235515   1.384   7.366   4.867 -0.5838  0.4139 -0.2086
 9552SOL     OW35516   3.570   7.173   9.586  0.1808  0.4518  0.4391
 9552SOL    HW135517   3.515   7.213   9.654 -0.5539  3.7248 -1.8407
 9552SOL    HW235518   3.508   7.151   9.516  1.2806  0.4314 -0.5532
 9553SOL     OW35519   2.751   9.191   9.163  0.0286 -0.2798  0.0577
 9553SOL    HW135520   2.689   9.236   9.104  0.1012 -0.3339 -0.0608
 9553SOL    HW235521   2.735   9.098   9.146 -0.9325 -0.3353  1.1331
 9554SOL     OW35522  11.798  10.693  11.892  0.3403 -0.3105 -0.3638
 9554SOL    HW135523  11.850  10.623  11.930  0.4056  0.2082  0.5233
 9554SOL    HW235524  11.862  10.754  11.856  0.3141 -0.1926 -0.2107
 9555SOL     OW35525   3.539   5.861   6.876  0.5608 -0.2513 -0.3822
 9555SOL    HW135526   3.451   5.885   6.848 -0.2672  1.6698  3.2738
 9555SOL    HW235527   3.540   5.765   6.875 -2.2547 -0.3819  1.2158
 9556SOL     OW35528   2.428   6.003   3.745 -0.0206  0.3848  0.7399
 9556SOL    HW135529   2.481   5.924   3.756 -0.9563 -0.1677  1.4071
 9556SOL    HW235530   2.423   6.042   3.832  1.0353  1.6010  0.2865
 9557SOL     OW35531   2.209  10.677   3.954 -0.5360  0.2618  0.2087
 9557SOL    HW135532   2.183  10.703   3.866  1.3641 -3.1793 -1.6112
 9557SOL    HW235533   2.288  10.728   3.972  0.3954 -0.5982 -1.1926
 9558SOL     OW35534   9.462   0.272   3.758 -0.3983 -1.1049 -0.4790
 9558SOL    HW135535   9.496   0.241   3.674  1.7375  0.7377 -0.4045
 9558SOL    HW235536   9.440   0.364   3.742  1.3148 -0.3190  1.2339
 9559SOL     OW35537   4.500   6.301  12.107 -0.5726 -0.0827 -0.1514
 9559SOL    HW135538   4.473   6.393  12.096  0.1962  0.0025 -1.5902
 9559SOL    HW235539   4.471   6.258  12.027 -1.0012 -1.1493  0.5495
 9560SOL     OW35540  10.978   7.954  11.331  0.5735  0.0460 -0.1723
 9560SOL    HW135541  10.934   8.019  11.277  0.3118 -0.3591 -0.4531
 9560SOL    HW235542  11.066   7.991  11.345 -0.2045  1.4151  1.4014
 9561SOL     OW35543  10.093  11.826   7.493  0.6423  0.4659  1.0788
 9561SOL    HW135544  10.115  11.896   7.432 -0.0870  0.4516  0.7907
 9561SOL    HW235545  10.082  11.870   7.577 -1.9877  1.0842  0.5012
 9562SOL     OW35546   4.550  11.130   4.881  0.2019  0.2642 -0.5989
 9562SOL    HW135547   4.480  11.141   4.946 -0.5703  0.9217 -1.5157
 9562SOL    HW235548   4.612  11.201   4.900 -0.1343  0.5924 -0.7268
 9563SOL     OW35549   7.662   8.861  11.182 -0.0118 -0.1334 -0.6851
 9563SOL    HW135550   7.703   8.814  11.255 -1.2527 -1.1229 -0.5825
 9563SOL    HW235551   7.680   8.953  11.199  0.0971 -0.3858  0.6217
 9564SOL     OW35552  10.081  11.562   1.586 -0.1807 -0.5747  0.0935
 9564SOL    HW135553  10.020  11.601   1.523  1.1692  0.1801 -0.8036
 9564SOL    HW235554  10.064  11.607   1.668 -0.0089  0.5156 -0.4524
 9565SOL     OW35555   1.836   0.363   3.413 -0.1236  0.2023 -0.0371
 9565SOL    HW135556   1.927   0.371   3.383 -0.0570  1.9669  0.5544
 9565SOL    HW235557   1.784   0.367   3.333  0.2867 -0.8295 -0.3819
 9566SOL     OW35558   5.950   5.951   0.671  0.0418  0.1578 -0.1036
 9566SOL    HW135559   5.911   5.971   0.587 -1.0996  2.0823  0.8218
 9566SOL    HW235560   6.014   5.882   0.652 -1.6836 -0.9898 -2.1622
 9567SOL     OW35561  12.319   7.209   6.897 -0.6304 -0.5179 -0.1207
 9567SOL    HW135562  12.377   7.182   6.827  1.5143  0.0274  1.3453
 9567SOL    HW235563  12.289   7.296   6.872 -3.3611 -1.9254 -2.3182
 9568SOL     OW35564   6.613   2.299  12.199  0.2463  0.4853  0.2501
 9568SOL    HW135565   6.640   2.225  12.254 -1.0571  0.6840  1.1982
 9568SOL    HW235566   6.677   2.368  12.220  0.3158  0.2566  0.8127
 9569SOL     OW35567   4.581   8.562   8.998  0.1748  0.7506 -0.2604
 9569SOL    HW135568   4.521   8.501   8.955 -0.3388 -0.4236  1.9369
 9569SOL    HW235569   4.661   8.559   8.945 -0.1248 -1.2422 -0.6859
 9570SOL     OW35570   9.321   3.753   2.922  0.1896 -0.0626 -0.1592
 9570SOL    HW135571   9.233   3.784   2.944 -0.4507 -0.9440 -1.4085
 9570SOL    HW235572   9.374   3.778   2.998 -1.2794 -0.1821  0.9484
 9571SOL     OW35573  10.321  10.586   4.962 -0.6133  0.5389  0.1370
 9571SOL    HW135574  10.282  10.524   5.024 -1.8798 -0.2607 -1.3816
 9571SOL    HW235575  10.385  10.534   4.913  0.2959  1.1292  0.6857
 9572SOL     OW35576   9.177  11.359  10.155 -0.3866  0.5723  0.6474
 9572SOL    HW135577   9.238  11.305  10.203  0.9931  0.1540 -1.4580
 9572SOL    HW235578   9.100  11.303  10.141  0.5298 -0.4699 -0.4328
 9573SOL     OW35579   9.146   9.182   1.944  0.2569 -0.0997  0.6890
 9573SOL    HW135580   9.178   9.237   2.015  0.6227  0.6333 -0.0270
 9573SOL    HW235581   9.052   9.177   1.958  0.3565 -0.1593  1.3584
 9574SOL     OW35582   2.390  12.088   8.935  0.0637  0.7121  0.4223
 9574SOL    HW135583   2.333  12.011   8.925 -0.8299  1.4982 -0.9275
 9574SOL    HW235584   2.450  12.065   9.006 -0.4938 -1.0347  0.3708
 9575SOL     OW35585   8.277   6.584   6.938  0.2874  0.1234 -0.6247
 9575SOL    HW135586   8.326   6.596   6.856 -0.3557  0.3155 -0.9816
 9575SOL    HW235587   8.344   6.559   7.001  0.5477 -1.7438 -1.5877
 9576SOL     OW35588   7.729  11.592   0.802  0.1433  0.2296 -0.0587
 9576SOL    HW135589   7.799  11.540   0.841 -0.3904 -0.9314 -0.5864
 9576SOL    HW235590   7.652  11.535   0.808 -0.5556  1.1398 -0.2794
 9577SOL     OW35591  11.186   5.037   9.790  0.2166 -0.1088 -0.7958
 9577SOL    HW135592  11.216   5.125   9.770  0.0976  0.0924 -0.1181
 9577SOL    HW235593  11.170   5.038   9.885  0.4168 -0.9168 -0.7484
 9578SOL     OW35594   6.307  10.555   7.275 -0.1395 -0.8409 -0.3842
 9578SOL    HW135595   6.399  10.576   7.290 -0.4866 -0.1860  0.9152
 9578SOL    HW235596   6.286  10.598   7.191  0.3691  0.2151  0.0147
 9579SOL     OW35597   8.557   5.859  12.192  0.2210  0.4295  0.5615
 9579SOL    HW135598   8.628   5.921  12.203  1.0920 -0.2160 -0.9743
 9579SOL    HW235599   8.541   5.824  12.279  1.1243  1.3108  1.0968
 9580SOL     OW35600   2.351  11.574  11.801 -0.2443 -0.1382  0.1212
 9580SOL    HW135601   2.406  11.632  11.854 -0.8051  0.0726  0.4834
 9580SOL    HW235602   2.270  11.624  11.786  0.6170  0.6014 -2.5856
 9581SOL     OW35603   3.117   7.818  11.804 -0.6800  0.3171 -0.1135
 9581SOL    HW135604   3.125   7.723  11.792  1.4310  0.3271  0.6872
 9581SOL    HW235605   3.023   7.835  11.804 -1.1295 -1.8680  0.4548
 9582SOL     OW35606   4.738  10.245  11.213  0.0817 -0.4637 -0.0262
 9582SOL    HW135607   4.749  10.152  11.195 -0.1769 -0.3564 -0.7384
 9582SOL    HW235608   4.648  10.253  11.246  0.0673 -0.4446 -0.0707
 9583SOL     OW35609   6.356   1.520   1.995  0.5342  0.1575  0.3027
 9583SOL    HW135610   6.359   1.515   2.091  0.4340  0.0472  0.3002
 9583SOL    HW235611   6.317   1.437   1.968  2.0859 -0.5371  0.0871
 9584SOL     OW35612  11.028   2.427   6.457 -0.4104  0.2745  0.4986
 9584SOL    HW135613  11.080   2.373   6.398  0.9812 -0.0039  1.9158
 9584SOL    HW235614  11.015   2.373   6.535 -0.7060  1.2592  1.1602
 9585SOL     OW35615   8.640   4.398   6.956  0.3362 -0.4219  0.9977
 9585SOL    HW135616   8.600   4.461   6.896 -0.4151 -1.0124  0.8692
 9585SOL    HW235617   8.590   4.318   6.944  0.1622 -0.5468  2.4347
 9586SOL     OW35618   2.159   9.688   1.580 -0.0454  0.5177 -0.0946
 9586SOL    HW135619   2.226   9.705   1.646 -0.5611  0.7723  0.3629
 9586SOL    HW235620   2.082   9.659   1.629 -0.3857  0.5657 -0.5884
 9587SOL     OW35621   4.680   8.659   4.263 -0.4930  0.0238  0.5088
 9587SOL    HW135622   4.612   8.600   4.232  0.9642 -1.0056 -0.9221
 9587SOL    HW235623   4.698   8.631   4.352  1.0696 -2.6894 -0.5368
 9588SOL     OW35624   5.514   3.966   5.721 -0.3326 -0.3493 -0.3910
 9588SOL    HW135625   5.466   4.048   5.732  0.0099 -0.1574 -0.3129
 9588SOL    HW235626   5.532   3.961   5.627 -1.6262 -1.0628 -0.6274
 9589SOL     OW35627   9.124   7.615   9.494  0.1680  0.0019 -0.1072
 9589SOL    HW135628   9.109   7.658   9.578 -2.0121  0.0238 -0.4394
 9589SOL    HW235629   9.075   7.533   9.500 -0.4314  0.2182 -1.4960
 9590SOL     OW35630  10.987   1.771   3.126  0.2015  0.2984 -0.5036
 9590SOL    HW135631  10.948   1.852   3.092  0.5285  0.5427 -0.2876
 9590SOL    HW235632  10.978   1.709   3.053  1.3616  0.9654 -1.2337
 9591SOL     OW35633   3.385  10.870   1.910  0.1253 -0.4266  0.3878
 9591SOL    HW135634   3.430  10.882   1.827 -1.3798  1.3629 -0.2326
 9591SOL    HW235635   3.331  10.792   1.897  0.0540 -0.2775 -0.2474
 9592SOL     OW35636  10.941   2.587  10.234  0.5539  0.4541 -0.1151
 9592SOL    HW135637  10.863   2.613  10.283 -2.1092 -2.0668 -2.6326
 9592SOL    HW235638  10.952   2.656  10.168 -0.6045  0.0714 -0.7411
 9593SOL     OW35639   8.217   4.252  12.297  0.3583 -0.2189  0.5644
 9593SOL    HW135640   8.240   4.168  12.258 -1.4083 -0.2120 -0.5708
 9593SOL    HW235641   8.215   4.314  12.223  0.7966  0.6511  1.2562
 9594SOL     OW35642   0.495   7.585   8.145  0.2547 -0.0337  0.1583
 9594SOL    HW135643   0.421   7.635   8.180  0.5380  1.6250 -1.4627
 9594SOL    HW235644   0.454   7.510   8.101 -0.1494 -1.6117  2.9412
 9595SOL     OW35645   7.796  10.650   0.434  0.0204  0.0535 -0.0490
 9595SOL    HW135646   7.822  10.738   0.407  0.3801  0.7832  2.4397
 9595SOL    HW235647   7.734  10.664   0.506 -0.5650 -1.7468 -0.1405
 9596SOL     OW35648   5.927   3.021   0.759 -0.2881  0.1748 -0.4183
 9596SOL    HW135649   5.895   2.939   0.796  1.5279 -0.1482  0.6039
 9596SOL    HW235650   5.866   3.087   0.791 -1.0456 -0.6185 -0.1908
 9597SOL     OW35651  11.398   5.591   6.492  0.3935  0.2004 -0.7742
 9597SOL    HW135652  11.488   5.558   6.484  1.0590  1.3638  1.1665
 9597SOL    HW235653  11.408   5.675   6.537 -1.6733  0.4170 -0.6615
 9598SOL     OW35654   2.657   6.067   0.933 -0.6277 -0.7758  0.4597
 9598SOL    HW135655   2.743   6.101   0.956 -0.5814 -1.9922  2.1997
 9598SOL    HW235656   2.598   6.104   0.998 -1.1942 -1.0456  0.1077
 9599SOL     OW35657   6.208   9.942   0.838  0.1628 -0.0179 -0.6882
 9599SOL    HW135658   6.146   9.914   0.771  0.3513 -2.2947  0.0186
 9599SOL    HW235659   6.170  10.022   0.874 -1.2802 -0.2154 -1.6958
 9600SOL     OW35660  11.908   9.958   4.240  0.2851 -0.3911  0.1446
 9600SOL    HW135661  11.962   9.885   4.269 -0.2089 -0.3414  1.2098
 9600SOL    HW235662  11.888   9.938   4.148 -1.3677 -2.5471  0.8815
 9601SOL     OW35663  11.154   5.571  11.521  0.1971 -0.6198  0.1262
 9601SOL    HW135664  11.167   5.510  11.593  0.6372  0.2027  0.7699
 9601SOL    HW235665  11.189   5.526  11.444  1.8301 -0.6395  0.8444
 9602SOL     OW35666   9.702   5.214   6.738  0.2525 -0.2788 -0.3075
 9602SOL    HW135667   9.692   5.165   6.656 -2.4361  0.5283 -0.5571
 9602SOL    HW235668   9.699   5.146   6.806 -0.3531 -0.7213 -0.7642
 9603SOL     OW35669   5.367  12.449  11.328 -0.8570 -0.7173 -0.2641
 9603SOL    HW135670   5.365  12.354  11.320 -0.3755 -0.6584 -1.1870
 9603SOL    HW235671   5.460  12.471  11.323 -0.6773 -0.3918  2.6578
 9604SOL     OW35672   5.190   9.777   1.784 -0.7032  0.1318 -0.1340
 9604SOL    HW135673   5.260   9.741   1.840 -1.1481  1.3973  1.3042
 9604SOL    HW235674   5.187   9.718   1.709 -1.0654 -2.5612  1.8340
 9605SOL     OW35675   3.938   0.290   8.454 -0.2403 -0.1432  0.0560
 9605SOL    HW135676   3.855   0.285   8.406 -1.2040  0.8357  1.5038
 9605SOL    HW235677   3.919   0.349   8.527  1.3090 -1.1132  1.3067
 9606SOL     OW35678   8.481   1.819   8.558 -0.2341  0.1039  0.4630
 9606SOL    HW135679   8.401   1.784   8.597 -0.4944  1.0575  0.8088
 9606SOL    HW235680   8.541   1.831   8.632 -0.6553  1.7187  0.5710
 9607SOL     OW35681  12.066   6.486   5.881 -0.0235 -0.1552  0.3126
 9607SOL    HW135682  12.134   6.496   5.815  0.8028 -1.1185  0.9916
 9607SOL    HW235683  11.989   6.457   5.832  0.7315 -1.4051 -0.1915
 9608SOL     OW35684   8.300   8.806   1.171  0.2054  0.1831  0.8100
 9608SOL    HW135685   8.217   8.817   1.216 -1.3205  0.5781 -1.8932
 9608SOL    HW235686   8.346   8.739   1.222 -2.6586 -1.6033  1.2636
 9609SOL     OW35687   2.949   4.573  10.633  0.3687 -0.0814 -0.0438
 9609SOL    HW135688   2.862   4.532  10.634 -0.3400  1.3499  0.2802
 9609SOL    HW235689   2.936   4.654  10.584  1.2097  0.7636  1.0807
 9610SOL     OW35690  10.960  10.952   7.788 -0.6129  0.2100  0.5510
 9610SOL    HW135691  10.954  10.961   7.883  0.9927 -1.2954  0.8667
 9610SOL    HW235692  10.917  11.030   7.753  0.8318  2.0402  2.5510
 9611SOL     OW35693   9.196  10.346   8.767  0.2854  0.7647 -0.1727
 9611SOL    HW135694   9.134  10.321   8.699  0.5119  0.0268 -0.1175
 9611SOL    HW235695   9.145  10.349   8.848  0.0642  1.4206 -0.3337
 9612SOL     OW35696  11.301   2.432   8.622  0.2113  0.3663 -0.1118
 9612SOL    HW135697  11.320   2.340   8.600 -1.1332 -0.0243  0.2441
 9612SOL    HW235698  11.240   2.460   8.554  2.5614  1.8561 -1.7448
 9613SOL     OW35699   0.590   5.746  11.433 -0.0516 -0.4641 -0.3812
 9613SOL    HW135700   0.553   5.833  11.448  1.4202  0.0366  0.5341
 9613SOL    HW235701   0.618   5.747  11.341  0.1745  0.1222 -0.3090
 9614SOL     OW35702   4.852   5.467   0.659 -0.2814  0.1261 -0.3525
 9614SOL    HW135703   4.935   5.438   0.697 -0.6433  0.4537  0.7454
 9614SOL    HW235704   4.809   5.513   0.731 -2.3307 -1.8260 -0.2241
 9615SOL     OW35705   8.419   3.573   7.920  0.2388 -0.6844  0.1507
 9615SOL    HW135706   8.492   3.557   7.860 -1.4801  1.5798 -2.8220
 9615SOL    HW235707   8.450   3.645   7.975  0.6799 -0.5467 -0.2664
 9616SOL     OW35708   0.031   9.655  10.259  0.7170 -0.2564 -0.2734
 9616SOL    HW135709   0.007   9.614  10.342  1.5746 -0.8793 -0.3204
 9616SOL    HW235710  -0.018   9.737  10.258  1.4287  0.2306  1.2926
 9617SOL     OW35711   5.512  12.224   1.762  0.4971  0.0149  0.0675
 9617SOL    HW135712   5.597  12.189   1.736  0.1635 -1.5855  0.9730
 9617SOL    HW235713   5.469  12.151   1.807 -0.7148  1.2727  1.0441
 9618SOL     OW35714   9.845   5.384   6.914  0.2495 -0.4826 -1.1455
 9618SOL    HW135715   9.896   5.357   6.991  1.0625 -1.1178 -1.8865
 9618SOL    HW235716   9.782   5.313   6.902 -0.8662  0.3216 -0.2062
 9619SOL     OW35717   9.082   6.026   7.171 -0.5959  0.5435 -0.1472
 9619SOL    HW135718   9.093   5.932   7.154  2.5918 -0.2549  4.4319
 9619SOL    HW235719   9.153   6.068   7.121  0.8992 -0.1912  1.2486
 9620SOL     OW35720   1.722  10.208   1.019  0.2529  1.2236 -0.1819
 9620SOL    HW135721   1.666  10.130   1.016 -0.1621  1.5324 -1.7932
 9620SOL    HW235722   1.702  10.249   1.103 -1.9854  1.3090 -0.6887
 9621SOL     OW35723   6.269   5.828   1.540  0.0166  0.2921  0.0147
 9621SOL    HW135724   6.353   5.839   1.494 -0.5839  0.1216 -1.1525
 9621SOL    HW235725   6.253   5.912   1.582  1.3636 -0.0467  1.3067
 9622SOL     OW35726   7.333   4.420  10.698 -0.3806 -0.1585 -0.2768
 9622SOL    HW135727   7.339   4.325  10.702 -2.8613 -0.3832 -0.3022
 9622SOL    HW235728   7.363   4.450  10.784  0.3988 -0.9599 -0.2612
 9623SOL     OW35729   3.163   3.812   3.707 -0.4159 -0.5506 -0.1406
 9623SOL    HW135730   3.243   3.839   3.662  0.3190 -1.4033  0.6200
 9623SOL    HW235731   3.178   3.721   3.732 -1.0121 -0.2733  1.3488
 9624SOL     OW35732   8.713  12.371   4.576  0.0965  0.1986 -0.5047
 9624SOL    HW135733   8.652  12.301   4.598  1.8070 -1.2044  0.0268
 9624SOL    HW235734   8.669  12.421   4.507 -1.4571 -0.9985 -0.4260
 9625SOL     OW35735   5.286   5.644   5.865 -0.1434  0.1245 -0.2260
 9625SOL    HW135736   5.294   5.730   5.826 -1.3151  0.3570  0.0083
 9625SOL    HW235737   5.201   5.645   5.909  0.7184 -0.4231  1.5750
 9626SOL     OW35738   1.224   9.278   3.342 -0.6955  0.5881  0.3642
 9626SOL    HW135739   1.211   9.277   3.247 -0.7640 -0.9976  0.3624
 9626SOL    HW235740   1.294   9.214   3.357 -1.3699  0.0795  1.4490
 9627SOL     OW35741   0.958   9.973   2.431  0.2215 -0.2945  0.1271
 9627SOL    HW135742   1.033   9.913   2.437 -0.2061 -0.8128  0.3265
 9627SOL    HW235743   0.918   9.969   2.518 -1.1568 -1.4792 -0.5304
 9628SOL     OW35744   0.461   5.286   4.594 -0.0107 -0.2604 -0.2393
 9628SOL    HW135745   0.501   5.372   4.603  0.9457 -0.6779 -0.3503
 9628SOL    HW235746   0.454   5.253   4.684 -0.7022  0.0736 -0.1693
 9629SOL     OW35747  10.260   0.687   5.750 -0.2753  0.5418 -0.0392
 9629SOL    HW135748  10.337   0.647   5.790  0.5844 -1.8947 -3.5807
 9629SOL    HW235749  10.296   0.747   5.685 -1.0891 -1.6419 -2.7251
 9630SOL     OW35750   6.761   3.332   3.418 -0.2404  0.0283  0.2564
 9630SOL    HW135751   6.797   3.258   3.370  0.4406  0.0337  0.7285
 9630SOL    HW235752   6.800   3.409   3.376 -1.4039  0.1583 -0.6061
 9631SOL     OW35753   3.483   5.390  10.971  0.0134  0.6110 -0.0380
 9631SOL    HW135754   3.412   5.454  10.965  0.0945  0.6280 -0.9016
 9631SOL    HW235755   3.559   5.442  10.998  0.5541  1.3019 -2.5498
 9632SOL     OW35756  11.456   4.692   9.855 -0.0995 -0.3688  0.2931
 9632SOL    HW135757  11.388   4.638   9.895  0.2066  0.3377  1.8270
 9632SOL    HW235758  11.537   4.667   9.900  1.0322 -2.3032 -2.5331
 9633SOL     OW35759  10.502   6.066  10.086  0.5654  0.0937  0.5734
 9633SOL    HW135760  10.487   5.979  10.049  0.0176  1.2849 -2.2175
 9633SOL    HW235761  10.415   6.095  10.114  0.4012  0.5274 -0.3720
 9634SOL     OW35762   1.220  10.391  11.098 -0.0197  0.0489 -0.0586
 9634SOL    HW135763   1.268  10.406  11.180  1.5256 -0.5690 -0.8080
 9634SOL    HW235764   1.162  10.317  11.118 -1.3425  1.3388  1.1094
 9635SOL     OW35765   0.725  11.013   3.349 -0.1750  0.2447  0.4569
 9635SOL    HW135766   0.791  11.027   3.417 -0.5838  1.1099  0.6913
 9635SOL    HW235767   0.766  10.952   3.288  0.6107  0.2960  0.9178
 9636SOL     OW35768   3.388   2.112   9.060  0.3074 -0.2774  0.2152
 9636SOL    HW135769   3.409   2.073   9.145  1.6691 -4.4463 -1.7967
 9636SOL    HW235770   3.293   2.108   9.054  0.2382 -0.4418  1.3060
 9637SOL     OW35771   3.774   1.010  11.682 -0.0822  0.0262 -0.6708
 9637SOL    HW135772   3.844   1.004  11.746 -0.1084  1.7714 -0.4532
 9637SOL    HW235773   3.797   0.944  11.615  0.4961 -1.0630  0.5580
 9638SOL     OW35774   0.994   6.744   6.878  0.5655  0.0636  0.4038
 9638SOL    HW135775   0.960   6.671   6.826 -0.2807 -0.7585  2.0494
 9638SOL    HW235776   1.070   6.708   6.923 -0.6406 -0.2763  2.2785
 9639SOL     OW35777   6.347  11.244   2.519 -0.1857 -0.0888  0.4547
 9639SOL    HW135778   6.303  11.301   2.455 -0.5579  0.3995  1.1289
 9639SOL    HW235779   6.334  11.156   2.485  1.9756  0.2693 -1.6128
 9640SOL     OW35780  11.471   8.166  12.420  0.3605  0.4089 -0.5662
 9640SOL    HW135781  11.481   8.090  12.477  0.9377  0.7732 -0.1598
 9640SOL    HW235782  11.385   8.202  12.442  0.8761  0.9780  0.6371
 9641SOL     OW35783   3.703  11.658   3.262 -0.3635 -0.2184  0.4336
 9641SOL    HW135784   3.724  11.605   3.339  0.5987 -0.3883  0.0721
 9641SOL    HW235785   3.617  11.628   3.235  0.3471 -1.9197 -0.0211
 9642SOL     OW35786   2.393  11.807   0.345  0.2026  0.6629  0.0323
 9642SOL    HW135787   2.480  11.839   0.321  0.2279  0.8598  0.3858
 9642SOL    HW235788   2.350  11.791   0.261  0.3741  1.1172 -0.1449
 9643SOL     OW35789   6.957   4.738  12.045 -0.2334 -0.1940 -0.5372
 9643SOL    HW135790   6.993   4.753  12.133  1.6929 -0.4482 -1.2183
 9643SOL    HW235791   6.867   4.710  12.060  0.6347 -2.2799  1.5044
 9644SOL     OW35792  11.292   7.073  11.867  0.1733 -0.0926 -0.6226
 9644SOL    HW135793  11.279   6.978  11.861  0.8893 -0.2109 -0.4929
 9644SOL    HW235794  11.272   7.094  11.958 -0.2594 -0.0701 -0.7218
 9645SOL     OW35795  11.690   7.739   0.065 -0.0487  0.1703 -0.5396
 9645SOL    HW135796  11.636   7.752  -0.013 -1.0838  0.8589  0.2402
 9645SOL    HW235797  11.772   7.785   0.046  0.1561 -0.6260 -1.6385
 9646SOL     OW35798   7.325   0.193   9.215  0.0280 -0.3066 -0.2531
 9646SOL    HW135799   7.288   0.172   9.300  0.1841  0.0600 -0.0953
 9646SOL    HW235800   7.418   0.175   9.223  0.2967  1.1402  0.1182
 9647SOL     OW35801   1.553   6.078   2.985 -0.1561 -0.0014  0.3029
 9647SOL    HW135802   1.514   5.991   2.994  0.6636 -0.4609 -0.4288
 9647SOL    HW235803   1.545   6.098   2.892  1.5519 -0.2245  0.0786
 9648SOL     OW35804   1.665  10.883   8.680  0.5560 -0.4485 -0.4860
 9648SOL    HW135805   1.581  10.877   8.634  0.9590  0.2767 -1.3432
 9648SOL    HW235806   1.646  10.940   8.755 -0.0954 -1.6121  0.2675
 9649SOL     OW35807   7.335  10.838   9.964 -0.1122 -0.2170  0.4766
 9649SOL    HW135808   7.348  10.771   9.896 -2.0632  0.3782 -0.5446
 9649SOL    HW235809   7.373  10.918   9.927 -1.5234  0.1999 -0.1158
 9650SOL     OW35810   8.288   9.767  11.371 -0.0943 -0.0433 -0.0767
 9650SOL    HW135811   8.289   9.746  11.277  0.6943  1.5020 -0.4549
 9650SOL    HW235812   8.359   9.831  11.381 -1.5095  1.3861  1.1957
 9651SOL     OW35813   2.282   3.866   1.746  0.5800  0.8587 -0.6201
 9651SOL    HW135814   2.192   3.836   1.758 -0.0402  1.8746 -2.3773
 9651SOL    HW235815   2.277   3.961   1.757  1.7776  0.7770  0.9362
 9652SOL     OW35816   0.167   0.763   2.778 -0.5849 -0.0106 -0.1460
 9652SOL    HW135817   0.184   0.718   2.696 -0.9561  0.0229 -0.2421
 9652SOL    HW235818   0.077   0.795   2.770 -0.0570  1.4733 -0.4207
 9653SOL     OW35819   5.095   4.416   1.212  0.4295  0.1685 -0.4959
 9653SOL    HW135820   5.013   4.417   1.164  0.0375  0.2729  0.1636
 9653SOL    HW235821   5.097   4.332   1.256  0.8193  0.0443 -0.7460
 9654SOL     OW35822   8.957   6.695   0.752 -0.4683  0.0732 -0.3329
 9654SOL    HW135823   9.026   6.671   0.690 -0.1174  3.6340 -1.5635
 9654SOL    HW235824   8.884   6.638   0.730  0.6007 -0.7002 -2.1099
 9655SOL     OW35825   3.007   6.850   6.859  0.0897 -0.1882  0.0674
 9655SOL    HW135826   3.057   6.768   6.855  0.3137 -0.1704  1.8206
 9655SOL    HW235827   2.929   6.827   6.911  0.3071  0.7706  0.8384
 9656SOL     OW35828   7.120   1.525   6.849 -0.4806  0.0850 -0.2448
 9656SOL    HW135829   7.107   1.528   6.944  0.1169  0.8396 -0.1652
 9656SOL    HW235830   7.197   1.581   6.835  0.2714 -1.1013 -1.0345
 9657SOL     OW35831  11.248   0.428  12.062  0.4546 -0.3202  0.4382
 9657SOL    HW135832  11.291   0.494  12.116 -1.3907  0.9292  0.4616
 9657SOL    HW235833  11.278   0.446  11.973 -0.6998  1.2060  0.3037
 9658SOL     OW35834   8.609   8.221   6.942  0.4326  0.2498 -0.0391
 9658SOL    HW135835   8.611   8.284   7.015 -1.3149  0.2826  0.0222
 9658SOL    HW235836   8.526   8.239   6.898  0.2828 -1.4824 -0.5050
 9659SOL     OW35837   7.231   6.415   9.807 -0.0552 -0.2198  0.2245
 9659SOL    HW135838   7.301   6.361   9.770  0.8463  1.4314 -0.5515
 9659SOL    HW235839   7.202   6.470   9.735  0.2432  1.5401  1.3909
 9660SOL     OW35840   5.768  11.877   9.395  0.3206 -0.1917  0.6811
 9660SOL    HW135841   5.759  11.942   9.464 -0.5064  0.5272 -0.0835
 9660SOL    HW235842   5.855  11.840   9.409 -0.1371 -0.6404  2.5734
 9661SOL     OW35843   0.365  10.829   8.069 -0.3215 -0.2982 -0.3354
 9661SOL    HW135844   0.279  10.872   8.072  0.8355  2.5303 -2.8695
 9661SOL    HW235845   0.396  10.844   7.980  1.2194 -4.6964 -0.7769
 9662SOL     OW35846   6.850  10.003   8.634 -0.1105  0.3211  0.2503
 9662SOL    HW135847   6.859   9.912   8.662  3.7133  0.6059  0.4069
 9662SOL    HW235848   6.928  10.047   8.668 -0.8506  3.2329 -1.4725
 9663SOL     OW35849   8.068   3.484   5.029 -0.0034 -0.2835  0.2681
 9663SOL    HW135850   8.094   3.392   5.039  1.2152  0.1096  0.9401
 9663SOL    HW235851   8.124   3.531   5.091  0.3721  1.0691 -1.0474
 9664SOL     OW35852   4.685   2.162   2.361 -0.0462  0.7720  0.1437
 9664SOL    HW135853   4.610   2.151   2.419 -0.5376  0.7013 -0.4911
 9664SOL    HW235854   4.664   2.240   2.309 -0.8255 -0.5908 -1.7097
 9665SOL     OW35855   3.192   9.556   5.880 -1.0431  0.0242 -0.0329
 9665SOL    HW135856   3.205   9.477   5.827  0.7933 -0.3000  0.7944
 9665SOL    HW235857   3.122   9.533   5.941  0.2696 -1.4796  1.0084
 9666SOL     OW35858   0.176   2.285   4.957  0.3693  0.2117  0.6311
 9666SOL    HW135859   0.208   2.251   5.040  1.2685  1.8959  1.0181
 9666SOL    HW235860   0.124   2.214   4.920  1.6473 -1.3140  1.6580
 9667SOL     OW35861   0.572   7.590   4.742  1.4829  0.0383  0.5210
 9667SOL    HW135862   0.499   7.610   4.800 -0.2289  0.2056 -1.5476
 9667SOL    HW235863   0.611   7.675   4.722 -1.2625  0.7788 -2.5784
 9668SOL     OW35864   4.676   2.812   4.873 -0.0115  0.5694  0.1162
 9668SOL    HW135865   4.648   2.752   4.943 -0.2163  1.4106  0.7814
 9668SOL    HW235866   4.597   2.826   4.821  0.4004 -0.9258 -0.9789
 9669SOL     OW35867  11.428   6.742  10.238 -0.4399  0.2446 -0.0553
 9669SOL    HW135868  11.427   6.752  10.333  0.0956  1.6667 -0.1790
 9669SOL    HW235869  11.384   6.659  10.222 -0.7430  0.1027  1.4190
 9670SOL     OW35870   3.237  10.930   4.255 -0.5094  0.1127 -0.0314
 9670SOL    HW135871   3.268  10.843   4.230 -0.8498  0.4107 -1.5521
 9670SOL    HW235872   3.294  10.956   4.327  1.8105  0.0207 -1.7309
 9671SOL     OW35873   6.413   9.477   1.707  0.2209  0.3948  0.2953
 9671SOL    HW135874   6.404   9.538   1.780  1.2757  1.5607 -0.5099
 9671SOL    HW235875   6.323   9.457   1.681 -0.1685  0.0534  1.8072
 9672SOL     OW35876  10.845   0.647   1.028  0.1861 -0.2536 -0.2449
 9672SOL    HW135877  10.842   0.707   0.954 -1.5290  0.1080  0.0860
 9672SOL    HW235878  10.764   0.596   1.022  0.1321 -0.3977  1.2348
 9673SOL     OW35879   1.327   5.521   2.148 -0.1942 -0.6614 -0.2806
 9673SOL    HW135880   1.239   5.498   2.117 -0.9891 -0.7404  1.8697
 9673SOL    HW235881   1.315   5.543   2.240  1.6275  1.9848 -0.5699
 9674SOL     OW35882   2.135   4.950   8.152  0.1697  0.0467  0.0667
 9674SOL    HW135883   2.173   5.035   8.132 -0.7296  0.7799  1.3712
 9674SOL    HW235884   2.048   4.952   8.113  0.6839 -0.8854 -1.2162
 9675SOL     OW35885   6.380  10.294   4.465  0.3570 -0.1567 -0.2646
 9675SOL    HW135886   6.386  10.356   4.538  0.4619  0.1280 -0.5133
 9675SOL    HW235887   6.346  10.214   4.505 -0.9097  0.4123 -0.1440
 9676SOL     OW35888   8.719   9.490   2.005 -0.7191  0.4479 -0.3205
 9676SOL    HW135889   8.700   9.576   2.043 -0.1106  0.9684 -1.1702
 9676SOL    HW235890   8.783   9.451   2.065  0.3692  1.3335 -0.8620
 9677SOL     OW35891  12.350   8.530   0.131  0.0986  0.5290 -0.6029
 9677SOL    HW135892  12.437   8.560   0.159  0.7927 -1.9045  0.1990
 9677SOL    HW235893  12.362   8.504   0.040 -0.0892  1.1966 -0.8217
 9678SOL     OW35894   6.889   4.960   3.502  0.4011 -0.9805  0.1572
 9678SOL    HW135895   6.911   5.014   3.425  1.2000 -0.7910  0.5073
 9678SOL    HW235896   6.831   5.016   3.554  1.9068 -0.0976  0.9368
 9679SOL     OW35897   3.887   6.349   6.734 -0.1775  0.1480  0.5521
 9679SOL    HW135898   3.955   6.344   6.801  0.5603 -0.8209 -0.2295
 9679SOL    HW235899   3.905   6.275   6.676 -1.0477  0.7103 -0.4796
 9680SOL     OW35900   8.109   3.467  11.545 -0.3635  0.4194 -0.1515
 9680SOL    HW135901   8.151   3.382  11.532 -1.3296 -0.7037  3.0004
 9680SOL    HW235902   8.181   3.530  11.551  0.4194 -0.3032 -1.6075
 9681SOL     OW35903   7.564   9.686   4.339  0.5255 -0.8491  0.1902
 9681SOL    HW135904   7.496   9.753   4.345  1.2479  0.2550 -2.4205
 9681SOL    HW235905   7.646   9.735   4.341  1.1355 -1.8543  0.2440
 9682SOL     OW35906   8.264  10.852   2.464  0.1896 -0.4099 -0.3033
 9682SOL    HW135907   8.238  10.931   2.416 -0.2586 -0.0140  0.5614
 9682SOL    HW235908   8.269  10.784   2.398 -0.8848  0.0131 -0.8444
 9683SOL     OW35909  11.688   7.037   6.287  0.3348  0.4825 -0.4575
 9683SOL    HW135910  11.694   7.089   6.207 -0.5794 -0.9259 -1.5065
 9683SOL    HW235911  11.610   7.072   6.332  0.3514  0.7230 -0.6129
 9684SOL     OW35912   4.767   7.741   7.347  0.9143  0.3947  0.0887
 9684SOL    HW135913   4.820   7.798   7.403 -3.3845  2.5481  2.4121
 9684SOL    HW235914   4.759   7.790   7.264  1.1064  0.8617  0.3406
 9685SOL     OW35915   3.577   8.338  10.397  0.2401  0.2654 -0.1760
 9685SOL    HW135916   3.542   8.276  10.460 -0.9486  0.5319 -0.5486
 9685SOL    HW235917   3.631   8.398  10.449  0.7459 -0.5842  0.2989
 9686SOL     OW35918  10.719   2.913   0.372 -0.2311  0.3043  0.3698
 9686SOL    HW135919  10.734   2.925   0.466 -1.4444  0.2664  0.5862
 9686SOL    HW235920  10.805   2.926   0.332  0.5165 -0.7256  1.5769
 9687SOL     OW35921  10.313   6.164   7.434 -0.2981  0.6973 -0.7179
 9687SOL    HW135922  10.383   6.213   7.390  0.9194 -1.9568 -1.9453
 9687SOL    HW235923  10.346   6.152   7.523 -0.1431  1.2276 -0.6993
 9688SOL     OW35924   2.941   3.542   7.700  0.3150  0.1902  0.7105
 9688SOL    HW135925   2.971   3.479   7.634 -0.2380 -0.5818  1.1779
 9688SOL    HW235926   2.954   3.627   7.659 -0.6372 -0.2988 -0.6710
 9689SOL     OW35927   5.477   8.407   5.752  0.0260  0.0209 -0.3264
 9689SOL    HW135928   5.513   8.337   5.698  0.6640 -0.0592  0.1799
 9689SOL    HW235929   5.538   8.413   5.826  0.3791  1.5958 -0.7225
 9690SOL     OW35930   2.009  10.092   4.902 -0.2282 -0.0243  0.2026
 9690SOL    HW135931   1.992  10.112   4.809  0.0762  0.9718  0.3502
 9690SOL    HW235932   1.923  10.101   4.944 -0.4680 -0.9808 -0.0537
 9691SOL     OW35933   0.445   8.223   6.030 -1.0593 -0.2529 -0.3175
 9691SOL    HW135934   0.535   8.237   5.999 -0.3909 -1.9773  0.7044
 9691SOL    HW235935   0.391   8.230   5.952  0.1874 -1.1417 -1.2916
 9692SOL     OW35936   3.476   0.155   8.109  0.2949  0.0094  0.5294
 9692SOL    HW135937   3.560   0.109   8.108  0.0516 -0.5419 -1.7841
 9692SOL    HW235938   3.441   0.141   8.197  1.8321 -1.2130  0.9867
 9693SOL     OW35939  11.924   8.193   6.461  0.0409 -0.1182  0.5037
 9693SOL    HW135940  11.982   8.150   6.399 -0.4818  0.5078 -0.4449
 9693SOL    HW235941  11.976   8.202   6.541  1.3647  0.6936 -0.4067
 9694SOL     OW35942  11.225   8.591   2.313  0.7518  0.2273  0.0818
 9694SOL    HW135943  11.288   8.524   2.286  2.3387  1.5732  0.2787
 9694SOL    HW235944  11.201   8.635   2.231 -0.8209 -0.9654 -0.1430
 9695SOL     OW35945   0.753   2.424  10.694 -0.2210 -0.1994 -0.4424
 9695SOL    HW135946   0.815   2.374  10.640  2.0732 -1.6044  3.0946
 9695SOL    HW235947   0.729   2.364  10.765 -2.1551  1.8151  0.7416
 9696SOL     OW35948   6.992   6.728   7.337  0.1432  0.1516 -0.3125
 9696SOL    HW135949   7.044   6.802   7.305 -0.1471  1.3904  1.8686
 9696SOL    HW235950   6.901   6.757   7.326  0.0332  0.4954  1.2461
 9697SOL     OW35951   2.118   1.793   4.060 -0.2782 -0.1512  0.5012
 9697SOL    HW135952   2.039   1.739   4.057  0.0574 -0.6358  0.1155
 9697SOL    HW235953   2.188   1.733   4.034  0.3743 -0.0240  1.8850
 9698SOL     OW35954   8.853  12.291   3.529 -0.2778 -0.1702  0.0987
 9698SOL    HW135955   8.784  12.311   3.592  0.4198 -1.3192  1.2583
 9698SOL    HW235956   8.858  12.195   3.528  0.6057 -0.1340 -0.7469
 9699SOL     OW35957   6.330  10.854   4.193  0.2385  0.9261  0.1985
 9699SOL    HW135958   6.304  10.925   4.252  0.1735  0.2817  0.9700
 9699SOL    HW235959   6.335  10.777   4.250  2.2202  0.6932 -0.2207
 9700SOL     OW35960   6.642   8.024   1.125  0.1185 -0.4265 -0.3598
 9700SOL    HW135961   6.729   8.036   1.086  0.1701 -0.0913 -0.1456
 9700SOL    HW235962   6.650   8.064   1.212 -0.0581 -0.9755 -0.0905
 9701SOL     OW35963   6.719   1.739  11.844 -0.0440 -0.3029  0.2118
 9701SOL    HW135964   6.651   1.698  11.898  0.0130 -1.1204 -0.3253
 9701SOL    HW235965   6.786   1.766  11.907 -0.3773 -0.4649  0.6399
 9702SOL     OW35966   0.337  12.112   0.639  0.1386 -0.5968  0.4911
 9702SOL    HW135967   0.430  12.135   0.637  0.2309 -0.9799 -1.2695
 9702SOL    HW235968   0.306  12.144   0.724  1.8776 -0.5102  1.1339
 9703SOL     OW35969   8.523   9.814   1.432 -0.3327 -0.0219 -0.4557
 9703SOL    HW135970   8.605   9.854   1.463  0.4505 -1.7472 -0.1676
 9703SOL    HW235971   8.524   9.828   1.338  1.5634 -2.0779 -0.8397
 9704SOL     OW35972   5.729  12.440   1.866  0.1095 -0.4979  0.1987
 9704SOL    HW135973   5.696  12.438   1.955 -2.2251 -0.5151 -0.5971
 9704SOL    HW235974   5.652  12.459   1.812  1.3272 -1.0950 -1.8707
 9705SOL     OW35975   9.530   0.984   2.759  0.0689  0.3093 -0.1644
 9705SOL    HW135976   9.619   0.971   2.726 -0.1529 -0.2407 -0.5613
 9705SOL    HW235977   9.541   1.001   2.853  0.6903  1.6570 -0.4659
 9706SOL     OW35978   8.666   4.048   6.456  0.1576  0.1684 -0.5681
 9706SOL    HW135979   8.714   3.965   6.457  0.0243  0.0872 -0.8119
 9706SOL    HW235980   8.710   4.099   6.388 -0.0052  0.1515 -0.6859
 9707SOL     OW35981   5.607   3.136   5.545  0.1400 -0.5824 -0.2989
 9707SOL    HW135982   5.657   3.102   5.471  2.1637 -0.9765  1.1535
 9707SOL    HW235983   5.660   3.208   5.579 -1.2884  0.3107  0.1389
 9708SOL     OW35984   1.935   6.246   7.257 -0.0634  0.2147 -0.0349
 9708SOL    HW135985   1.925   6.222   7.165  0.3178 -2.6233  0.5571
 9708SOL    HW235986   2.028   6.267   7.267 -0.4839  2.6711 -0.6569
 9709SOL     OW35987   9.748   1.660  10.886 -0.7003 -0.4829 -0.1306
 9709SOL    HW135988   9.749   1.752  10.912  1.2258 -0.2759 -0.7433
 9709SOL    HW235989   9.836   1.644  10.853 -1.4546 -2.1453 -1.4945
 9710SOL     OW35990   5.634   1.833   5.716 -0.2592 -0.5677  0.3017
 9710SOL    HW135991   5.617   1.744   5.747  2.7183 -1.2735  0.2487
 9710SOL    HW235992   5.602   1.834   5.626  2.2599 -2.6553 -0.7497
 9711SOL     OW35993   2.483   6.314   3.826  0.1769 -0.0126 -0.2076
 9711SOL    HW135994   2.413   6.249   3.819 -0.2686  0.3560  0.7394
 9711SOL    HW235995   2.440   6.398   3.808  0.4238  0.1916  0.1385
 9712SOL     OW35996   8.865   3.376  11.288  0.1768  0.3924  0.3505
 9712SOL    HW135997   8.802   3.323  11.239 -0.2552  2.1056 -1.0937
 9712SOL    HW235998   8.919   3.313  11.334 -1.5136 -1.2046  0.2691
 9713SOL     OW35999   4.760   1.319   7.980  0.4515  0.4135  0.4484
 9713SOL    HW136000   4.718   1.302   8.065 -0.1074  2.2627  0.5790
 9713SOL    HW236001   4.687   1.343   7.922  1.0943  1.6130  0.1187
 9714SOL     OW36002   5.728   2.506   7.839  0.2432 -0.4178 -0.3974
 9714SOL    HW136003   5.820   2.510   7.813  0.8364 -1.6919  1.3307
 9714SOL    HW236004   5.698   2.597   7.832  1.4605 -0.0601 -1.4765
 9715SOL     OW36005   7.230   8.901   5.930  0.2898 -0.0341  0.4082
 9715SOL    HW136006   7.272   8.829   5.884 -0.2792 -0.5964  0.7538
 9715SOL    HW236007   7.232   8.875   6.022  1.4887  1.1078  0.7368
 9716SOL     OW36008   7.379  11.768   3.972  0.1011  0.1271 -0.0830
 9716SOL    HW136009   7.309  11.833   3.981 -0.0206 -0.0336  0.1333
 9716SOL    HW236010   7.460  11.818   3.980  0.0302 -0.0060  2.0711
 9717SOL     OW36011   4.670   8.756   6.049  0.1316  0.0335 -0.3088
 9717SOL    HW136012   4.674   8.677   6.103  1.7506 -0.4426 -1.0802
 9717SOL    HW236013   4.738   8.813   6.085 -0.9395  1.0690  0.1690
 9718SOL     OW36014   1.657   2.388   9.771 -0.1359  0.0334  0.1923
 9718SOL    HW136015   1.710   2.451   9.722 -1.9784  1.1490 -0.4518
 9718SOL    HW236016   1.613   2.441   9.837 -1.3519 -0.6465 -0.0498
 9719SOL     OW36017   2.061   6.173  10.821 -0.2229  0.1103  0.2652
 9719SOL    HW136018   1.994   6.221  10.773 -3.3576 -1.9696  2.2002
 9719SOL    HW236019   2.052   6.204  10.912  1.8538  0.1329  0.5185
 9720SOL     OW36020   4.783   3.810  10.687  0.3682  0.2092  0.1596
 9720SOL    HW136021   4.764   3.803  10.781  2.2387  3.0935  0.9034
 9720SOL    HW236022   4.742   3.893  10.661  1.4423  0.3796 -1.0805
 9721SOL     OW36023   5.202   5.678   5.367  0.5594  0.2780 -0.6987
 9721SOL    HW136024   5.175   5.600   5.320  0.1695  0.1178 -0.2215
 9721SOL    HW236025   5.219   5.648   5.457 -0.8073  0.9506 -0.1901
 9722SOL     OW36026   2.278   8.247   2.178 -0.3295  0.2962 -0.1220
 9722SOL    HW136027   2.310   8.234   2.089  0.2792  0.0158  0.1279
 9722SOL    HW236028   2.255   8.340   2.183 -2.5742 -0.1355 -1.2597
 9723SOL     OW36029   4.803   2.342  11.106  0.4086  0.3931  0.1053
 9723SOL    HW136030   4.835   2.267  11.157  2.1715  1.1684  0.2010
 9723SOL    HW236031   4.803   2.415  11.169  3.3371  1.5463 -1.0580
 9724SOL     OW36032   9.376   8.813   1.631 -0.5115  0.3575  0.1258
 9724SOL    HW136033   9.335   8.889   1.589  0.7599  0.9457 -0.1181
 9724SOL    HW236034   9.318   8.740   1.611 -0.5876  0.8540 -1.6118
 9725SOL     OW36035   3.864   1.983   3.889  0.0783  0.0595 -0.3598
 9725SOL    HW136036   3.775   2.012   3.903 -0.0450 -0.7401  0.6626
 9725SOL    HW236037   3.919   2.053   3.924 -0.1969 -1.9014  4.9957
 9726SOL     OW36038   3.422   5.252  10.095  0.0436 -0.5579  0.9063
 9726SOL    HW136039   3.408   5.299  10.013  0.1238  0.3425  1.3932
 9726SOL    HW236040   3.497   5.296  10.135  0.8173 -1.8064  0.8759
 9727SOL     OW36041   2.559   4.516   3.108 -0.3219  0.2027 -0.0250
 9727SOL    HW136042   2.636   4.571   3.125  0.9965 -1.4176 -0.4500
 9727SOL    HW236043   2.512   4.515   3.191 -1.0427  2.8606 -0.3175
 9728SOL     OW36044   8.105   9.615   5.635 -0.3125 -0.2954  0.4025
 9728SOL    HW136045   8.123   9.708   5.622 -0.3903 -0.5311 -1.7019
 9728SOL    HW236046   8.031   9.613   5.696 -1.1103  1.0750 -0.4693
 9729SOL     OW36047   6.097   7.465  12.094 -0.5353  0.0561 -0.1394
 9729SOL    HW136048   6.058   7.382  12.123 -1.7771  0.8862  0.6702
 9729SOL    HW236049   6.040   7.494  12.022 -0.5133  0.5307  0.0289
 9730SOL     OW36050   4.139  11.423   4.174 -0.4217 -0.1242 -0.0704
 9730SOL    HW136051   4.098  11.465   4.249  0.1475  0.7438 -0.2230
 9730SOL    HW236052   4.232  11.443   4.183 -0.1687 -1.1459 -0.2984
 9731SOL     OW36053  12.428  10.677   0.367 -0.3608  0.2424 -0.4515
 9731SOL    HW136054  12.439  10.633   0.282  1.7950  0.2422 -0.2216
 9731SOL    HW236055  12.475  10.760   0.357 -0.2575  0.3278  0.6711
 9732SOL     OW36056   9.583   0.300   2.870 -0.3523  0.1389  0.0596
 9732SOL    HW136057   9.539   0.303   2.785  0.1363  0.0377 -0.2056
 9732SOL    HW236058   9.582   0.390   2.901 -0.0443  0.2746 -0.3162
 9733SOL     OW36059   8.856   9.677   4.307 -0.1034  0.7041  0.0998
 9733SOL    HW136060   8.782   9.724   4.345  0.6141  1.0349  1.1072
 9733SOL    HW236061   8.883   9.731   4.233  0.2124  1.4842  0.7733
 9734SOL     OW36062  10.236  11.586   8.972 -0.2090  0.1692 -0.6265
 9734SOL    HW136063  10.222  11.493   8.991 -1.2655 -0.3203 -3.4134
 9734SOL    HW236064  10.317  11.588   8.921  1.1638  1.1423  1.4466
 9735SOL     OW36065   1.771   8.343   3.609 -0.3970  0.0862  0.0949
 9735SOL    HW136066   1.763   8.270   3.547  0.7853 -1.5223  1.7194
 9735SOL    HW236067   1.701   8.327   3.672 -1.2632  1.4230 -0.4814
 9736SOL     OW36068  10.503   5.579  11.815 -0.0006 -0.1286 -0.1207
 9736SOL    HW136069  10.451   5.589  11.895  0.6532 -0.5705  0.3648
 9736SOL    HW236070  10.573   5.519  11.840  1.2804  1.1702 -0.5223
 9737SOL     OW36071   8.800   8.492   3.762  0.2496  0.3959  0.3327
 9737SOL    HW136072   8.772   8.486   3.853 -0.7755  0.2638  0.0218
 9737SOL    HW236073   8.722   8.522   3.715  0.8121  0.6203 -0.4755
 9738SOL     OW36074  10.870  10.549   2.749  0.0284  0.4214  0.1683
 9738SOL    HW136075  10.834  10.550   2.838  3.8212 -1.5835  1.9243
 9738SOL    HW236076  10.913  10.635   2.740 -1.8748  1.3669 -0.5686
 9739SOL     OW36077   7.898   3.247   5.985  0.1026  0.0204  0.4464
 9739SOL    HW136078   7.911   3.273   5.894  2.0261 -1.6632  0.1665
 9739SOL    HW236079   7.963   3.298   6.034  2.4363 -2.4594  0.1624
 9740SOL     OW36080   0.914  10.561   3.936 -0.0725 -0.2876 -0.4611
 9740SOL    HW136081   0.881  10.515   3.858 -0.4617 -0.2809 -0.3014
 9740SOL    HW236082   0.999  10.521   3.953  0.8570  0.9403 -1.9654
 9741SOL     OW36083   0.608   6.475   8.710 -0.0710 -0.0846  0.2032
 9741SOL    HW136084   0.518   6.501   8.730 -0.0157 -0.3305  0.7759
 9741SOL    HW236085   0.643   6.549   8.659 -0.9911 -0.5371 -1.1320
 9742SOL     OW36086   3.070   2.199   9.874  0.2002 -0.9023 -0.4131
 9742SOL    HW136087   3.152   2.185   9.922  0.2266 -0.7949 -0.4288
 9742SOL    HW236088   3.097   2.231   9.789  0.0671  1.2303  0.2956
 9743SOL     OW36089   7.980   5.943  11.025 -0.0677 -0.1565  0.2300
 9743SOL    HW136090   7.938   5.869  10.981 -1.2914  0.3610  0.5069
 9743SOL    HW236091   7.911   6.008  11.036  0.8225  0.7592  0.6234
 9744SOL     OW36092  12.088   8.193   7.082  0.2885  0.6040 -0.7308
 9744SOL    HW136093  12.007   8.170   7.036  0.2354  0.2479 -0.4657
 9744SOL    HW236094  12.139   8.112   7.083  0.8466  0.9481 -1.2902
 9745SOL     OW36095  11.241   7.127   2.811  0.9653 -0.3704  0.4205
 9745SOL    HW136096  11.215   7.061   2.875 -1.3624 -0.6836 -0.7301
 9745SOL    HW236097  11.164   7.137   2.754  2.2049  1.3726 -1.0833
 9746SOL     OW36098   6.211   9.312   8.088 -0.1658  0.5209 -0.0186
 9746SOL    HW136099   6.182   9.353   8.007 -3.6951 -2.1454 -0.3595
 9746SOL    HW236100   6.183   9.372   8.157 -1.1740  0.8140 -0.6579
 9747SOL     OW36101  10.698   8.560   3.970  0.3191 -0.3432 -0.5751
 9747SOL    HW136102  10.695   8.652   3.942 -0.1709 -0.0978  0.2461
 9747SOL    HW236103  10.611   8.543   4.005  0.3329 -1.2035 -0.9460
 9748SOL     OW36104   1.892   4.145   7.753 -0.4467 -0.2591  0.3163
 9748SOL    HW136105   1.976   4.098   7.754 -0.8529 -1.1662 -1.8437
 9748SOL    HW236106   1.863   4.144   7.845  2.1385  0.6258  1.2393
 9749SOL     OW36107   3.095  10.043   0.767 -0.1025 -0.3186  0.0087
 9749SOL    HW136108   3.114  10.136   0.755  0.0410 -0.3993 -0.4053
 9749SOL    HW236109   3.101  10.029   0.862  0.1199  0.0396  0.0479
 9750SOL     OW36110   7.394   7.660   9.606  0.7140  0.1031  0.4439
 9750SOL    HW136111   7.430   7.594   9.547 -0.9392  1.1090 -1.8737
 9750SOL    HW236112   7.319   7.696   9.558 -2.4575 -0.8069  4.2305
 9751SOL     OW36113   3.124   8.286  11.064 -0.2831  0.1233  0.1651
 9751SOL    HW136114   3.064   8.345  11.109 -0.8488 -0.0839 -0.3036
 9751SOL    HW236115   3.074   8.253  10.989  0.0734 -0.8207  0.3221
 9752SOL     OW36116   7.417   5.068   6.415 -0.6815 -0.0233  0.2793
 9752SOL    HW136117   7.414   5.059   6.510 -2.6118  1.0494  0.3618
 9752SOL    HW236118   7.389   4.983   6.381 -0.5932 -0.2054  0.6564
 9753SOL     OW36119   6.558   3.781   8.570 -0.1197  0.6413 -0.4984
 9753SOL    HW136120   6.620   3.756   8.638 -0.3625 -0.0111 -0.5055
 9753SOL    HW236121   6.545   3.700   8.519 -1.0085  0.7549 -0.4627
 9754SOL     OW36122   4.128   3.955   8.221 -0.6952  0.3037 -0.0823
 9754SOL    HW136123   4.192   3.898   8.178 -0.3626  0.3451  0.3591
 9754SOL    HW236124   4.174   4.038   8.234 -1.0541  0.5504 -0.3695
 9755SOL     OW36125  11.925   7.599   7.685 -0.0045 -0.0305  0.2982
 9755SOL    HW136126  11.858   7.530   7.690  0.2678 -0.3855 -0.7805
 9755SOL    HW236127  11.881   7.677   7.720 -0.9117 -0.3108 -0.1814
 9756SOL     OW36128   2.953   5.687  10.289 -0.6713  0.0534  0.0648
 9756SOL    HW136129   2.913   5.601  10.301 -0.7859  0.2434  1.2172
 9756SOL    HW236130   2.980   5.713  10.377  0.1339  0.8299 -0.3933
 9757SOL     OW36131  10.980   0.417   2.571  0.3824 -0.3123 -0.5282
 9757SOL    HW136132  11.048   0.377   2.625  1.7142  1.2180 -0.9927
 9757SOL    HW236133  11.022   0.435   2.487  0.3463  3.2102  0.0477
 9758SOL     OW36134   9.345  11.890   5.040 -0.6138  0.1593 -0.7421
 9758SOL    HW136135   9.404  11.948   4.991 -0.6461  1.1279  0.3343
 9758SOL    HW236136   9.403  11.824   5.078 -0.5251 -0.2877 -1.6078
 9759SOL     OW36137   1.053   5.145  11.509  0.1249  0.2525  0.0043
 9759SOL    HW136138   0.959   5.165  11.511  0.1852  0.5134  0.3087
 9759SOL    HW236139   1.092   5.220  11.464  0.3652  0.8965  1.2440
 9760SOL     OW36140   0.974   8.200  11.048 -0.6877 -0.0384  0.2507
 9760SOL    HW136141   0.898   8.143  11.060 -1.3584  0.9469  0.8645
 9760SOL    HW236142   1.044   8.156  11.097 -1.2131 -0.2992  0.7932
 9761SOL     OW36143   2.015   6.837   0.724  0.4010 -0.0610 -0.1380
 9761SOL    HW136144   1.969   6.853   0.642  0.0394  0.8302  0.2269
 9761SOL    HW236145   1.958   6.775   0.771  1.1514 -1.4626 -0.9960
 9762SOL     OW36146   6.653  10.087   6.477  0.1529  0.3053 -0.2764
 9762SOL    HW136147   6.583  10.101   6.413 -0.8223 -1.0286  0.4688
 9762SOL    HW236148   6.645  10.161   6.538 -0.8432 -0.0293  0.0106
 9763SOL     OW36149   9.251   1.124   8.489  0.0774  0.1628 -0.4409
 9763SOL    HW136150   9.245   1.152   8.581 -0.5226 -0.5088 -0.2603
 9763SOL    HW236151   9.314   1.184   8.449  0.5518  0.2889  0.4752
 9764SOL     OW36152   4.455   8.936   4.449  0.0081 -0.1884  0.0331
 9764SOL    HW136153   4.411   9.015   4.483 -0.7181 -1.2602  1.7510
 9764SOL    HW236154   4.396   8.904   4.381  0.5126  0.9579 -0.9688
 9765SOL     OW36155   2.497   0.854   0.657  0.5236  0.4174 -0.5051
 9765SOL    HW136156   2.529   0.877   0.744 -0.3913  2.9090 -0.7507
 9765SOL    HW236157   2.574   0.823   0.610  1.1543 -0.3315  0.9703
 9766SOL     OW36158  10.041   1.140  11.347 -0.5466  0.6960 -0.2113
 9766SOL    HW136159  10.116   1.180  11.304  0.6353 -2.9658 -1.9107
 9766SOL    HW236160  10.074   1.114  11.434 -1.2086  2.8459  0.7452
 9767SOL     OW36161   1.050   8.312   4.042  0.0956 -0.3039 -0.7240
 9767SOL    HW136162   1.054   8.245   4.111  1.1736  0.8754  0.4284
 9767SOL    HW236163   0.983   8.373   4.071 -0.3883 -0.4957 -1.4145
 9768SOL     OW36164  12.401   6.028   9.216  0.1206 -0.4013  0.0581
 9768SOL    HW136165  12.444   6.084   9.281  1.6872 -0.6938 -0.6674
 9768SOL    HW236166  12.469   6.012   9.151 -1.6286  0.6120 -2.1419
 9769SOL     OW36167   8.578   6.555   7.508 -0.2625  0.4700 -0.0006
 9769SOL    HW136168   8.541   6.531   7.423  1.5793 -2.0753 -0.1970
 9769SOL    HW236169   8.559   6.480   7.564  2.5130 -0.0014  0.4685
 9770SOL     OW36170   0.254   9.331  11.205  0.1314 -0.1580  0.2794
 9770SOL    HW136171   0.339   9.345  11.247  0.6962 -0.6485 -0.6849
 9770SOL    HW236172   0.196   9.304  11.277  0.6110  0.8147  1.0544
 9771SOL     OW36173   0.340   6.206   0.555 -0.0716 -0.7320 -0.7857
 9771SOL    HW136174   0.403   6.137   0.532  2.2885  0.6670  1.0602
 9771SOL    HW236175   0.319   6.247   0.471  0.9497 -1.6537 -1.5292
 9772SOL     OW36176   1.223   2.179   2.277  0.2125  0.1787 -0.1660
 9772SOL    HW136177   1.236   2.090   2.308 -2.0321 -0.9596 -2.1979
 9772SOL    HW236178   1.301   2.226   2.306  1.1896 -2.2604  1.4755
 9773SOL     OW36179   6.502   8.075   1.448 -0.3945 -0.1858  0.1485
 9773SOL    HW136180   6.562   8.137   1.408 -0.7129 -0.1115 -0.2146
 9773SOL    HW236181   6.513   8.089   1.542  0.1396 -0.1630  0.0853
 9774SOL     OW36182  12.250   8.909   2.411  0.5664 -0.4836  0.0765
 9774SOL    HW136183  12.171   8.919   2.464  0.6651  2.5531 -0.1985
 9774SOL    HW236184  12.219   8.874   2.327 -0.7582  1.8149 -0.4719
 9775SOL     OW36185   2.380   6.064  10.933  0.3495 -0.0002 -0.3073
 9775SOL    HW136186   2.320   5.989  10.928 -0.6280  0.7919 -1.0825
 9775SOL    HW236187   2.408   6.067  11.024  1.2672 -1.9378 -0.4839
 9776SOL     OW36188   8.170   2.799   2.681 -0.2182  0.2147  0.9410
 9776SOL    HW136189   8.178   2.892   2.702  0.1072  0.0004  1.8240
 9776SOL    HW236190   8.145   2.758   2.764 -1.3637 -0.3576  0.3234
 9777SOL     OW36191  10.059   3.404   2.234 -0.1261  0.4181  0.1019
 9777SOL    HW136192  10.045   3.455   2.313  0.8848 -0.2649  0.7523
 9777SOL    HW236193   9.973   3.369   2.212 -0.8226  2.2728 -0.3059
 9778SOL     OW36194   8.287   5.884   1.728 -0.1144  0.0483  0.4176
 9778SOL    HW136195   8.224   5.814   1.712  0.6954 -0.4554 -0.7565
 9778SOL    HW236196   8.233   5.961   1.748 -1.0790 -0.4932 -0.0284
 9779SOL     OW36197  12.077   4.270  11.902 -0.2711  0.1862 -0.2161
 9779SOL    HW136198  12.129   4.217  11.841 -1.2435 -0.9311 -0.0900
 9779SOL    HW236199  12.143   4.320  11.951  0.5240  1.4639 -2.4517
 9780SOL     OW36200   4.536  10.719   3.005  0.2834  0.1898 -0.5361
 9780SOL    HW136201   4.551  10.630   3.036 -0.8660 -0.0558 -0.6441
 9780SOL    HW236202   4.589  10.726   2.925 -0.6673 -0.8590 -1.2814
 9781SOL     OW36203   7.464   8.869   6.658  0.0595  0.6338  0.3091
 9781SOL    HW136204   7.469   8.810   6.733  0.4858  0.7620  0.3825
 9781SOL    HW236205   7.552   8.870   6.622 -0.4580 -0.5754 -1.0874
 9782SOL     OW36206   5.470   9.280   9.479  0.1591  0.3004 -0.6540
 9782SOL    HW136207   5.478   9.205   9.538 -0.8837  1.3444  0.8827
 9782SOL    HW236208   5.410   9.340   9.524 -1.1412  0.9033 -3.0535
 9783SOL     OW36209   6.793  11.873  10.385  0.7501 -0.0641 -0.4939
 9783SOL    HW136210   6.834  11.789  10.367 -0.4483 -1.1178  1.4179
 9783SOL    HW236211   6.862  11.925  10.426  1.2770 -0.3737 -0.9758
 9784SOL     OW36212   4.718   4.364   1.378  0.8168 -0.1754  0.0580
 9784SOL    HW136213   4.728   4.269   1.390  0.3864 -0.1421  0.7585
 9784SOL    HW236214   4.711   4.398   1.467 -2.0427  0.1535 -0.2095
 9785SOL     OW36215   0.034   6.361   1.570 -0.2153  0.0444  0.9287
 9785SOL    HW136216   0.064   6.408   1.492  1.4834 -0.5807  1.1510
 9785SOL    HW236217   0.086   6.398   1.642 -1.8854  0.7440  1.8253
 9786SOL     OW36218   7.912   5.227   6.287  0.3593 -0.5198 -0.1997
 9786SOL    HW136219   7.835   5.279   6.264  0.4592  0.2379  1.0712
 9786SOL    HW236220   7.975   5.243   6.217 -0.3552 -0.5514 -0.8578
 9787SOL     OW36221  12.356   9.053   0.622  0.1741 -0.1079 -0.0762
 9787SOL    HW136222  12.428   9.057   0.684  0.0269 -0.6272  0.1337
 9787SOL    HW236223  12.371   9.126   0.562  1.5217 -0.8998 -0.7426
 9788SOL     OW36224   3.965   5.613   8.487  0.0507  0.0295 -0.5787
 9788SOL    HW136225   4.030   5.673   8.453 -1.1685  0.8596 -1.5311
 9788SOL    HW236226   4.016   5.541   8.526  1.5045  0.2156 -2.0501
 9789SOL     OW36227  11.222   3.503   7.004 -0.4428 -0.7870 -0.1887
 9789SOL    HW136228  11.144   3.485   7.056 -1.2893  0.8982 -0.8104
 9789SOL    HW236229  11.293   3.510   7.068 -0.7218 -2.5569  0.3594
 9790SOL     OW36230   2.020   5.393   0.906 -0.4788 -0.0533  0.2702
 9790SOL    HW136231   2.075   5.414   0.981  1.3388  0.1141 -1.0516
 9790SOL    HW236232   2.010   5.476   0.859  0.8266 -0.6687 -1.1819
 9791SOL     OW36233   2.111  10.458   9.731  0.3810 -0.1848  0.2411
 9791SOL    HW136234   2.111  10.524   9.661  1.2915 -0.2985  0.1209
 9791SOL    HW236235   2.032  10.477   9.782  1.0371  1.5375  0.6948
 9792SOL     OW36236  10.322   3.895   2.962  1.0235 -1.0300  0.0560
 9792SOL    HW136237  10.257   3.934   3.021  1.9021  1.7712 -0.6277
 9792SOL    HW236238  10.279   3.895   2.877  0.0208 -4.3864  0.4546
 9793SOL     OW36239   6.133   6.905   9.715  0.1705 -0.0144  0.3137
 9793SOL    HW136240   6.103   6.990   9.746  1.3230  0.1996  0.8796
 9793SOL    HW236241   6.142   6.852   9.795 -0.4051 -0.6375 -0.0196
 9794SOL     OW36242   2.229  10.335   0.591  0.1182  0.6258  0.0057
 9794SOL    HW136243   2.298  10.274   0.563 -1.0183 -0.0713 -1.3550
 9794SOL    HW236244   2.250  10.417   0.546  0.7528  0.8056  0.5989
 9795SOL     OW36245   8.543  10.943   7.697 -0.1778  0.1033 -0.0047
 9795SOL    HW136246   8.552  10.952   7.792  0.2433 -0.2016 -0.0146
 9795SOL    HW236247   8.458  10.900   7.685 -0.6152  0.8770  0.1922
 9796SOL     OW36248   4.548   4.365   6.542  0.2140 -0.3841 -0.0270
 9796SOL    HW136249   4.509   4.307   6.476  1.3998 -0.2276 -0.8945
 9796SOL    HW236250   4.601   4.306   6.597  1.6602 -0.1422 -1.0889
 9797SOL     OW36251   2.950   5.439   2.983  0.5131 -0.1787  0.1535
 9797SOL    HW136252   2.988   5.506   3.040 -1.6702 -0.0945  1.6139
 9797SOL    HW236253   3.017   5.371   2.978  3.0451  2.2125 -1.8080
 9798SOL     OW36254  11.201  10.997   1.699 -0.1656  0.1450  0.3415
 9798SOL    HW136255  11.163  10.941   1.766  2.1408 -1.1351  0.6931
 9798SOL    HW236256  11.287  10.959   1.682 -0.2362  1.0425 -2.6182
 9799SOL     OW36257  11.971   3.520  11.269  0.4075  0.6340 -0.1022
 9799SOL    HW136258  12.016   3.435  11.277  1.8594  1.4293  0.6159
 9799SOL    HW236259  11.914   3.510  11.193 -0.2489 -1.3297  0.5814
 9800SOL     OW36260   7.544  11.839   6.266 -0.1966  0.6265  0.0147
 9800SOL    HW136261   7.622  11.790   6.294 -1.1191 -0.0074  1.5860
 9800SOL    HW236262   7.507  11.873   6.348 -0.9174  1.9427 -0.8272
 9801SOL     OW36263  10.595   2.769   9.946 -0.0699  0.0140  0.2659
 9801SOL    HW136264  10.514   2.717   9.951  0.7047 -1.4627 -1.2363
 9801SOL    HW236265  10.585   2.836  10.013 -1.0604 -2.2236  2.5361
 9802SOL     OW36266  10.401  10.166  10.114 -0.1246 -0.2988 -0.5838
 9802SOL    HW136267  10.464  10.183  10.044  3.2202 -1.3669  1.9138
 9802SOL    HW236268  10.421  10.078  10.143 -0.8103  0.3853  2.2104
 9803SOL     OW36269   9.275   1.095  10.967 -0.0905  0.5017  0.4768
 9803SOL    HW136270   9.251   1.087  10.875  1.3193 -0.8651  0.1779
 9803SOL    HW236271   9.351   1.154  10.967 -0.6627  1.2612  0.8955
 9804SOL     OW36272   7.428   5.397   7.393 -0.5344  0.1152 -0.5918
 9804SOL    HW136273   7.396   5.479   7.356 -0.9527  0.3149  0.1941
 9804SOL    HW236274   7.523   5.403   7.387 -0.5880  0.1821 -1.5288
 9805SOL     OW36275   8.127  12.110   3.978 -0.2158  0.1054  0.3192
 9805SOL    HW136276   8.105  12.070   4.062 -0.9170  0.9537  0.5558
 9805SOL    HW236277   8.150  12.036   3.922 -1.7656 -0.6864  0.6478
 9806SOL     OW36278  11.682   9.868   6.608 -0.7315  0.4745  0.4462
 9806SOL    HW136279  11.688   9.959   6.578  1.9250 -0.6397 -3.0322
 9806SOL    HW236280  11.769   9.850   6.645 -0.9214 -0.8725  0.2695
 9807SOL     OW36281   9.462  11.498   3.732 -1.0009 -0.0304  0.3236
 9807SOL    HW136282   9.404  11.525   3.803  0.5360  1.6188  1.0428
 9807SOL    HW236283   9.454  11.567   3.666 -0.4674 -0.1944  0.0739
 9808SOL     OW36284   5.826   9.055  11.669  0.0125 -0.0218  0.2103
 9808SOL    HW136285   5.886   9.129  11.658 -0.1717  0.1324  0.2436
 9808SOL    HW236286   5.877   8.979  11.640  1.2515 -0.3241  2.8689
 9809SOL     OW36287  11.417   4.840   5.957 -0.3294  0.0376 -0.1515
 9809SOL    HW136288  11.380   4.763   5.912  1.2604  0.2226 -1.9107
 9809SOL    HW236289  11.497   4.859   5.908  0.9790  0.9184  2.2074
 9810SOL     OW36290   6.759  10.228   5.890 -0.1628 -0.0557  0.4251
 9810SOL    HW136291   6.826  10.253   5.953 -0.7098 -0.2064  1.0663
 9810SOL    HW236292   6.758  10.132   5.892  1.0216 -0.1566 -1.0879
 9811SOL     OW36293   5.716  11.319   9.628 -0.1181 -0.3069  0.7944
 9811SOL    HW136294   5.662  11.311   9.549  0.6364 -0.5503  0.2940
 9811SOL    HW236295   5.803  11.340   9.596  0.1695 -0.2588  1.5796
 9812SOL     OW36296   9.881  11.579   2.679  0.5545  0.0095 -0.0462
 9812SOL    HW136297   9.950  11.625   2.728  1.8421 -1.8652  0.0424
 9812SOL    HW236298   9.885  11.489   2.713 -1.7281 -0.2326 -0.3121
 9813SOL     OW36299   3.984   6.507   2.977  0.3096  0.2616  0.2762
 9813SOL    HW136300   3.978   6.577   2.912 -2.8659 -0.5065 -0.4608
 9813SOL    HW236301   4.078   6.498   2.994  0.9330  4.0224 -0.2427
 9814SOL     OW36302   9.056   2.973   2.489  0.0563 -0.7214 -0.0447
 9814SOL    HW136303   9.091   2.949   2.403  0.5555 -0.0736 -0.0324
 9814SOL    HW236304   9.009   2.895   2.519  0.0187 -1.0061 -0.8323
 9815SOL     OW36305   2.785  10.195   6.329  0.0263  0.4274 -0.1975
 9815SOL    HW136306   2.694  10.165   6.329  0.0706  0.1210  2.1266
 9815SOL    HW236307   2.817  10.175   6.241 -1.9685  0.0130 -0.8853
 9816SOL     OW36308   2.434   2.740   0.356 -0.2549  0.3998 -0.1214
 9816SOL    HW136309   2.406   2.713   0.443 -2.7053 -2.3341 -1.5530
 9816SOL    HW236310   2.417   2.834   0.352 -1.9670  0.2344  1.7446
 9817SOL     OW36311   6.196   7.196   8.067  0.4620 -0.3034  0.1996
 9817SOL    HW136312   6.268   7.256   8.085  0.3550 -0.0913 -0.0629
 9817SOL    HW236313   6.169   7.217   7.978  1.3989 -1.7600 -0.4664
 9818SOL     OW36314   5.418   3.949  11.287 -0.6454 -0.0472 -0.4794
 9818SOL    HW136315   5.452   3.982  11.204  1.9161  0.4312  0.6904
 9818SOL    HW236316   5.344   4.007  11.307  0.9487  2.1789 -0.6956
 9819SOL     OW36317   6.266   7.266   3.412  0.3337  0.3138 -0.2714
 9819SOL    HW136318   6.245   7.304   3.327  0.2969  0.3637 -0.2398
 9819SOL    HW236319   6.361   7.271   3.418  0.4079 -0.4231 -0.6588
 9820SOL     OW36320   8.125   2.176   7.487  0.5147  0.0849  0.1209
 9820SOL    HW136321   8.168   2.260   7.506 -0.1560  0.3317  0.5984
 9820SOL    HW236322   8.152   2.119   7.559 -0.7957  0.5612  1.0155
 9821SOL     OW36323   7.582   9.361   1.202  0.1712 -0.2860  0.0621
 9821SOL    HW136324   7.491   9.354   1.172  0.8053  0.2188 -2.0953
 9821SOL    HW236325   7.578   9.337   1.295 -1.7965 -2.4555 -0.5085
 9822SOL     OW36326   7.162   5.420  12.058 -0.4430 -0.2151 -0.5498
 9822SOL    HW136327   7.205   5.361  12.119 -1.6221 -0.7276 -0.1932
 9822SOL    HW236328   7.223   5.493  12.048  0.2249 -0.6327  0.4058
 9823SOL     OW36329   9.250   4.631   0.966 -0.3907  0.4990 -0.3687
 9823SOL    HW136330   9.338   4.655   0.937  0.8964  1.6558  3.7071
 9823SOL    HW236331   9.191   4.668   0.900  2.0979  2.3971 -1.6747
 9824SOL     OW36332   8.888   8.114   5.138  0.0651  0.4635 -0.3118
 9824SOL    HW136333   8.915   8.196   5.178 -1.5157  0.7028  0.3510
 9824SOL    HW236334   8.924   8.046   5.195 -3.3784  0.7875  2.6574
 9825SOL     OW36335  12.043   8.273   9.676 -0.2967  0.1363 -0.7001
 9825SOL    HW136336  11.967   8.268   9.617 -0.0822 -3.6879 -0.9252
 9825SOL    HW236337  12.036   8.195   9.731  2.1187  1.0281  1.0506
 9826SOL     OW36338   0.202   1.381   0.427 -0.1099  0.3651 -0.2269
 9826SOL    HW136339   0.200   1.345   0.515 -1.3010  0.7996 -0.0599
 9826SOL    HW236340   0.202   1.476   0.440  0.1782  0.4297 -0.6896
 9827SOL     OW36341  11.591   5.922   1.562 -0.4929  0.0168 -0.5170
 9827SOL    HW136342  11.637   5.880   1.634  1.2047  0.1918 -1.4388
 9827SOL    HW236343  11.535   5.988   1.603  0.7622  0.4001  0.6142
 9828SOL     OW36344   6.417   2.610   5.267 -0.4975  0.2261  0.0206
 9828SOL    HW136345   6.353   2.539   5.258  1.2767 -1.3589 -0.9054
 9828SOL    HW236346   6.425   2.645   5.178  2.5762 -2.1569 -0.8150
 9829SOL     OW36347   2.062  10.595   9.474  0.6244 -0.3454 -0.1222
 9829SOL    HW136348   1.990  10.646   9.511  1.1846  1.6501 -1.5851
 9829SOL    HW236349   2.020  10.520   9.432 -0.3519 -0.4808  1.0573
 9830SOL     OW36350   1.880   4.727   4.681  0.0633 -0.4485  0.4932
 9830SOL    HW136351   1.796   4.685   4.699 -0.0096 -1.2974 -1.6023
 9830SOL    HW236352   1.866   4.819   4.705 -1.7061 -0.4338 -0.4623
 9831SOL     OW36353   8.866   7.805   1.910 -0.2885  0.2446  0.2405
 9831SOL    HW136354   8.833   7.744   1.844 -2.7842  1.1464  0.5433
 9831SOL    HW236355   8.796   7.870   1.920 -0.0507  0.1734  3.7527
 9832SOL     OW36356   2.095   6.945   6.155  0.2508  0.1166  0.2692
 9832SOL    HW136357   2.115   6.967   6.064 -3.4348 -0.3218 -0.8035
 9832SOL    HW236358   2.046   7.020   6.188  0.5643 -0.2174  1.5821
 9833SOL     OW36359  12.259   4.225   9.398 -0.4595  0.2557  0.2408
 9833SOL    HW136360  12.165   4.208   9.402 -0.3866 -1.4187 -2.6301
 9833SOL    HW236361  12.299   4.138   9.395  1.1717  0.9449  0.7607
 9834SOL     OW36362   4.991   6.604  11.758  0.7134  0.2325 -0.0379
 9834SOL    HW136363   5.074   6.578  11.719  1.1128  0.3260  0.7471
 9834SOL    HW236364   5.013   6.633  11.846  0.0482  1.6058 -0.2843
 9835SOL     OW36365  11.795  11.845   0.490 -0.0280  0.5711 -0.0068
 9835SOL    HW136366  11.751  11.832   0.574  0.0123 -0.8626 -0.1820
 9835SOL    HW236367  11.725  11.838   0.425  0.2551 -0.5402 -0.2131
 9836SOL     OW36368  11.647   0.036   1.691 -0.0702 -0.1827 -0.2427
 9836SOL    HW136369  11.723   0.008   1.743  0.3825 -1.4245 -1.4867
 9836SOL    HW236370  11.675   0.116   1.648  1.0088 -1.1916 -1.5401
 9837SOL     OW36371   3.749   1.136   2.997 -0.1602 -0.2044 -0.3398
 9837SOL    HW136372   3.714   1.201   2.936  1.4839 -0.0804 -1.2086
 9837SOL    HW236373   3.699   1.149   3.077 -0.2125  1.8360 -0.6448
 9838SOL     OW36374   4.899   8.581  11.197  0.0192 -0.6473  0.3006
 9838SOL    HW136375   4.918   8.674  11.186  2.7655 -0.6122  3.5232
 9838SOL    HW236376   4.827   8.578  11.260 -0.7342 -0.7640 -0.5420
 9839SOL     OW36377   9.722   1.406   9.414  0.5743  0.0214 -0.2551
 9839SOL    HW136378   9.808   1.384   9.448  0.0738 -0.6221  0.6274
 9839SOL    HW236379   9.679   1.321   9.400 -0.5837  0.3530  1.0958
 9840SOL     OW36380   6.325   6.469   5.360 -0.5787 -0.5834  0.3237
 9840SOL    HW136381   6.350   6.468   5.268  0.0730 -0.5418  0.4936
 9840SOL    HW236382   6.233   6.442   5.360 -0.8100  0.1662 -0.3978
 9841SOL     OW36383   5.467   1.809   2.199 -0.2116 -0.3465 -0.5872
 9841SOL    HW136384   5.534   1.836   2.136  1.3060 -0.6876  0.8077
 9841SOL    HW236385   5.398   1.771   2.145  0.0122  1.3495 -2.1920
 9842SOL     OW36386  11.161   2.068   3.382  0.0110  0.2217 -0.6158
 9842SOL    HW136387  11.225   2.135   3.407  0.7868 -0.2825 -1.1940
 9842SOL    HW236388  11.180   1.993   3.437 -1.6701  0.8448  0.9278
 9843SOL     OW36389   7.391   3.262   3.329 -0.3053  0.0751  0.1783
 9843SOL    HW136390   7.479   3.254   3.293 -0.5370 -0.3825 -0.3043
 9843SOL    HW236391   7.366   3.172   3.350 -1.3273 -0.0262 -1.3264
 9844SOL     OW36392   4.899   3.338   5.053  0.2796 -0.0132  0.0863
 9844SOL    HW136393   4.975   3.283   5.070 -0.5838 -1.1234  0.4917
 9844SOL    HW236394   4.936   3.420   5.019  1.6733 -0.3031  0.8136
 9845SOL     OW36395   7.329   9.089   2.003  0.1802 -0.1905 -0.3932
 9845SOL    HW136396   7.272   9.058   2.073  1.1145 -2.4429 -0.5401
 9845SOL    HW236397   7.307   9.182   1.994 -1.5808 -0.3658  1.2949
 9846SOL     OW36398  10.524   6.174   4.704  0.1936 -0.3942  0.6748
 9846SOL    HW136399  10.586   6.245   4.721 -1.4894  1.1264  0.8222
 9846SOL    HW236400  10.439   6.218   4.700 -1.1952 -2.6361  2.7543
 9847SOL     OW36401  11.526  10.053   9.324  0.1735  0.8422 -0.2322
 9847SOL    HW136402  11.528  10.106   9.244 -0.6637 -0.3064 -1.0411
 9847SOL    HW236403  11.436  10.022   9.331  0.3650  0.4687  0.8641
 9848SOL     OW36404   8.737   3.427   1.930 -0.3656 -0.4008 -0.1073
 9848SOL    HW136405   8.741   3.424   1.834 -3.1656  0.3568 -0.3426
 9848SOL    HW236406   8.692   3.510   1.949  1.2699  0.0847  1.9619
 9849SOL     OW36407   6.410   4.719  10.425  0.5937  0.2507 -0.1798
 9849SOL    HW136408   6.349   4.785  10.393  0.6004  0.6652  0.6304
 9849SOL    HW236409   6.356   4.657  10.474  0.7938  0.5688  0.4609
 9850SOL     OW36410  11.918   9.499   2.316  0.1181  0.5228 -0.0718
 9850SOL    HW136411  11.883   9.443   2.247 -0.8005  1.6356 -0.5311
 9850SOL    HW236412  11.933   9.439   2.389 -0.9032 -0.3238 -0.5233
 9851SOL     OW36413   3.587   2.590   6.105 -0.1424  1.0745 -0.2199
 9851SOL    HW136414   3.523   2.540   6.158  0.7223  1.4387  1.2296
 9851SOL    HW236415   3.533   2.643   6.047 -1.1264  0.0668 -0.2794
 9852SOL     OW36416   9.866   6.172   9.157 -0.3638  0.1574  0.0149
 9852SOL    HW136417   9.825   6.149   9.240 -1.1551  0.1840 -0.3572
 9852SOL    HW236418   9.794   6.200   9.101  0.4412  3.0121  0.2231
 9853SOL     OW36419   2.787   5.549   9.585 -0.3677 -0.9739  0.6105
 9853SOL    HW136420   2.879   5.536   9.559 -0.1814 -0.7694  1.1712
 9853SOL    HW236421   2.791   5.574   9.677 -0.9447 -0.2801  0.4541
 9854SOL     OW36422   1.592   6.475   4.714 -0.3517  0.7030  0.1502
 9854SOL    HW136423   1.622   6.384   4.720  0.0353  0.8685  0.6971
 9854SOL    HW236424   1.587   6.492   4.620  3.1352  1.2756 -0.0648
 9855SOL     OW36425   0.103   9.495   7.379 -0.4185  0.2568 -0.7482
 9855SOL    HW136426   0.123   9.442   7.302 -1.8332 -1.3370 -0.0956
 9855SOL    HW236427   0.166   9.466   7.445 -0.0564  0.6718 -0.9083
 9856SOL     OW36428   0.082   7.677   0.294 -0.3045 -0.1233 -0.1889
 9856SOL    HW136429  -0.000   7.723   0.275  0.0302  0.6116  0.0915
 9856SOL    HW236430   0.069   7.641   0.382 -0.6648 -0.7986 -0.5122
 9857SOL     OW36431  10.814   0.447  11.849 -0.2102  0.2293 -0.1519
 9857SOL    HW136432  10.788   0.527  11.894  0.2962  1.0729 -1.2983
 9857SOL    HW236433  10.856   0.478  11.768  0.8518 -1.1644 -0.1752
 9858SOL     OW36434   8.468   3.673   5.387  0.0135 -0.0008  0.9030
 9858SOL    HW136435   8.417   3.594   5.376 -0.7823  0.7587 -1.3207
 9858SOL    HW236436   8.409   3.744   5.362  0.8744  1.2725  2.3063
 9859SOL     OW36437   8.720   3.733  11.072 -0.4067  0.2481 -0.3323
 9859SOL    HW136438   8.662   3.808  11.080 -0.9851 -0.3951  3.1568
 9859SOL    HW236439   8.673   3.671  11.016 -1.0411  1.4210 -1.1503
 9860SOL     OW36440   7.295   9.508  10.864  0.5254 -0.1011  0.3068
 9860SOL    HW136441   7.298   9.552  10.950  0.5761  1.1720 -0.3261
 9860SOL    HW236442   7.235   9.435  10.877  1.1648 -0.4229  1.6495
 9861SOL     OW36443   9.859   9.118  12.037  1.2159 -0.2221  0.1784
 9861SOL    HW136444   9.880   9.024  12.044 -0.7023 -0.7399 -0.2832
 9861SOL    HW236445   9.917   9.161  12.099  1.3763 -1.8511  1.2086
 9862SOL     OW36446   1.928   5.570   2.114 -0.5544 -1.2032 -0.1357
 9862SOL    HW136447   1.868   5.538   2.181 -0.0604 -0.9043  0.4582
 9862SOL    HW236448   1.996   5.503   2.108  0.8455 -0.0276  1.5864
 9863SOL     OW36449   9.781   0.837   4.401 -0.0947  0.1177  0.5971
 9863SOL    HW136450   9.799   0.795   4.317 -1.5397  1.0632 -0.2348
 9863SOL    HW236451   9.772   0.930   4.379 -2.4516  0.1396  1.4214
 9864SOL     OW36452   3.721   1.945  10.798 -0.3556 -0.1048  0.3024
 9864SOL    HW136453   3.660   2.000  10.848  0.6828  0.7014  0.7099
 9864SOL    HW236454   3.806   1.988  10.807  0.2114 -0.9807 -0.6060
 9865SOL     OW36455  10.541   3.007   5.659 -0.0606  0.1183  0.2409
 9865SOL    HW136456  10.632   2.984   5.681  0.0447 -1.1985 -1.3461
 9865SOL    HW236457  10.489   2.934   5.693 -0.4284  0.3983  0.2881
 9866SOL     OW36458   4.732  10.464   9.036 -0.2363  0.4970 -0.1981
 9866SOL    HW136459   4.812  10.412   9.043 -0.2750  0.3300 -0.9201
 9866SOL    HW236460   4.763  10.552   9.017 -0.1079  1.0473  2.1669
 9867SOL     OW36461   4.579  10.651   5.137 -0.2341 -0.4320 -0.2004
 9867SOL    HW136462   4.487  10.627   5.139 -0.0831 -1.3955  3.9498
 9867SOL    HW236463   4.624  10.572   5.110 -0.5357 -0.2971 -1.1156
 9868SOL     OW36464   5.293   7.464   1.852 -0.1687  0.5550 -0.0255
 9868SOL    HW136465   5.355   7.408   1.898 -1.8341 -0.6815  0.8054
 9868SOL    HW236466   5.298   7.434   1.761  2.1171  2.0758 -0.4899
 9869SOL     OW36467  10.619   6.539   9.360  0.5834 -0.4332 -0.1692
 9869SOL    HW136468  10.550   6.535   9.426  0.6329  2.3062  0.2040
 9869SOL    HW236469  10.700   6.552   9.411  0.7612  0.6466 -0.6952
 9870SOL     OW36470   0.609   1.356   0.006  0.6090  0.2223  0.0605
 9870SOL    HW136471   0.643   1.313   0.084 -1.1851 -0.0013  0.7672
 9870SOL    HW236472   0.640   1.446   0.011 -0.7973  0.6673  1.9424
 9871SOL     OW36473   5.224   8.138  10.372 -0.6126  0.0794  0.6864
 9871SOL    HW136474   5.258   8.227  10.367 -3.3827  1.3004  1.6958
 9871SOL    HW236475   5.244   8.099  10.287  2.1128  1.0302  0.8061
 9872SOL     OW36476   9.802   7.329   2.637 -0.2655 -0.3449 -0.1522
 9872SOL    HW136477   9.848   7.361   2.560  0.6965  0.4851  0.7320
 9872SOL    HW236478   9.831   7.387   2.708 -2.9286  0.4478  0.4085
 9873SOL     OW36479   1.897   4.401  11.455  0.0803 -0.9489  0.2965
 9873SOL    HW136480   1.943   4.485  11.449 -0.6437 -0.4654  1.2871
 9873SOL    HW236481   1.805   4.422  11.439  0.0208 -1.7401 -0.5522
 9874SOL     OW36482   2.990  10.710   3.137 -0.0078 -0.6878  0.3017
 9874SOL    HW136483   2.959  10.660   3.212  2.5273  0.1283  2.0279
 9874SOL    HW236484   3.055  10.653   3.095 -1.4945 -1.1918 -1.4308
 9875SOL     OW36485   2.251   4.260   3.077 -0.7194  0.4913  0.2491
 9875SOL    HW136486   2.249   4.164   3.084 -0.6121  0.5287  0.8869
 9875SOL    HW236487   2.343   4.281   3.064 -0.6381  0.5478  0.8764
 9876SOL     OW36488   5.304   5.333   9.127 -0.3362 -0.2942 -0.5324
 9876SOL    HW136489   5.356   5.330   9.207 -0.4663 -1.0141 -0.4667
 9876SOL    HW236490   5.229   5.276   9.145 -1.0702  0.6030 -0.6817
 9877SOL     OW36491   6.808   5.645   4.473 -0.6115  0.2280  0.0273
 9877SOL    HW136492   6.783   5.610   4.388 -0.1289  1.4336 -0.6492
 9877SOL    HW236493   6.795   5.573   4.535  0.5211 -1.1804 -1.3012
 9878SOL     OW36494   0.532   7.272   0.137  0.2013 -0.3049 -0.3908
 9878SOL    HW136495   0.567   7.343   0.084 -0.8873 -0.4484 -1.3359
 9878SOL    HW236496   0.606   7.211   0.145  0.0824 -0.9235 -2.9104
 9879SOL     OW36497  10.378  11.758   7.550 -0.0181 -0.2787 -0.2726
 9879SOL    HW136498  10.374  11.665   7.531 -0.6298 -0.5333  0.9640
 9879SOL    HW236499  10.296  11.794   7.515  0.3418 -0.1449 -0.9939
 9880SOL     OW36500   2.032   9.320   1.619  0.1403 -0.3325 -0.1047
 9880SOL    HW136501   2.012   9.414   1.620 -1.7469 -0.6974 -0.4426
 9880SOL    HW236502   2.127   9.316   1.628  0.1246  1.5652  1.6727
 9881SOL     OW36503   7.913  11.553   8.226  0.4063  0.0612  0.0054
 9881SOL    HW136504   7.931  11.645   8.209 -0.8505  0.3579  0.1711
 9881SOL    HW236505   7.980  11.527   8.290  0.4699  1.0023  0.3441
 9882SOL     OW36506  12.019   3.697   3.641  0.1050  0.0548  0.0645
 9882SOL    HW136507  12.021   3.773   3.699 -0.2559 -0.7004  1.1043
 9882SOL    HW236508  12.057   3.728   3.559  0.2083  1.2781  0.5546
 9883SOL     OW36509   9.925  11.019   1.998 -0.2417 -0.3996  0.3222
 9883SOL    HW136510   9.942  11.053   2.086  1.5116  0.8429 -0.4374
 9883SOL    HW236511   9.887  11.093   1.950 -0.0386 -0.6884 -0.3003
 9884SOL     OW36512   7.608   0.437   3.887 -0.1576 -0.0064 -0.1478
 9884SOL    HW136513   7.635   0.397   3.804 -1.5841  1.4852 -1.3858
 9884SOL    HW236514   7.688   0.476   3.922  0.1425  0.8868 -1.7322
 9885SOL     OW36515   1.020   7.751  11.726 -0.2719 -0.2889  0.4421
 9885SOL    HW136516   1.114   7.742  11.736 -0.2551 -0.2756  0.2853
 9885SOL    HW236517   0.996   7.687  11.659 -0.1037  1.0640 -0.9489
 9886SOL     OW36518   9.255   5.297   7.482  0.0001 -0.0124  0.3018
 9886SOL    HW136519   9.186   5.360   7.459  0.4414  0.4582  0.2319
 9886SOL    HW236520   9.213   5.236   7.543 -1.0168 -0.9125 -1.2626
 9887SOL     OW36521   5.409   8.627   4.552  0.2893 -0.1744 -0.0427
 9887SOL    HW136522   5.390   8.543   4.595  0.0742 -0.1448 -0.0801
 9887SOL    HW236523   5.389   8.611   4.459 -3.6585  1.0347  0.4222
 9888SOL     OW36524   7.171   5.993   2.125 -0.0752  0.0786  0.3099
 9888SOL    HW136525   7.223   6.033   2.194  1.1640 -0.9317  0.0059
 9888SOL    HW236526   7.173   5.899   2.144 -1.1939 -0.0524 -0.1278
 9889SOL     OW36527   4.315  10.681   2.519 -0.1420  0.5865 -0.1929
 9889SOL    HW136528   4.226  10.645   2.526 -0.7235  2.0771  0.5679
 9889SOL    HW236529   4.372  10.607   2.539 -1.1435 -0.6799 -1.7170
 9890SOL     OW36530   9.960   4.187   5.719 -0.4018 -0.0315  0.6188
 9890SOL    HW136531   9.914   4.271   5.711 -0.9744 -0.3168  0.8432
 9890SOL    HW236532   9.891   4.124   5.739 -0.2683 -0.9077 -1.4592
 9891SOL     OW36533   5.114   6.677   3.090 -0.5404  0.4261 -0.7029
 9891SOL    HW136534   5.076   6.663   3.003  1.1741 -0.5881 -1.3232
 9891SOL    HW236535   5.039   6.674   3.149 -1.7632  1.2425 -2.1384
 9892SOL     OW36536   0.949   0.276  10.547  0.5364 -0.0200 -0.5060
 9892SOL    HW136537   1.005   0.266  10.624  1.0196 -0.0581 -0.8583
 9892SOL    HW236538   0.869   0.315  10.581  1.3224  1.4372 -0.1931
 9893SOL     OW36539   1.947   4.792   5.031 -0.1302  0.2819  0.0058
 9893SOL    HW136540   2.000   4.747   4.965 -0.8634 -0.1256 -0.3230
 9893SOL    HW236541   2.010   4.842   5.083  0.6143 -0.4705 -0.1480
 9894SOL     OW36542   4.435  11.728   8.333 -0.1062  0.3681  0.0916
 9894SOL    HW136543   4.465  11.718   8.423  0.1438  2.0816  0.2173
 9894SOL    HW236544   4.510  11.701   8.280 -0.1130 -0.2419  0.3772
 9895SOL     OW36545   7.361   7.696   0.911  0.2054  0.0733 -0.1595
 9895SOL    HW136546   7.373   7.717   0.819  1.7336 -1.4178 -0.3514
 9895SOL    HW236547   7.377   7.602   0.917 -2.4145 -0.4138  1.2369
 9896SOL     OW36548   2.157  12.176  12.223  0.2090 -0.3666 -0.1681
 9896SOL    HW136549   2.073  12.183  12.177 -0.4880  1.2388  1.2360
 9896SOL    HW236550   2.219  12.148  12.156 -1.2333 -0.5755 -1.4761
 9897SOL     OW36551  11.052   2.921   0.039 -0.2868  0.7390  0.1015
 9897SOL    HW136552  10.994   2.921  -0.038  1.0223  1.0625 -0.9138
 9897SOL    HW236553  11.139   2.938   0.003  0.6023 -0.7048  1.4893
 9898SOL     OW36554   4.979   5.466   7.880  0.0751 -0.1932 -0.5075
 9898SOL    HW136555   4.884   5.471   7.892  0.2354 -0.5261  1.1231
 9898SOL    HW236556   5.013   5.545   7.921  0.5899 -0.7397  0.1390
 9899SOL     OW36557   2.347  10.876  11.710  0.3558 -1.1583 -0.4511
 9899SOL    HW136558   2.364  10.786  11.740 -2.0059 -1.1654  1.1111
 9899SOL    HW236559   2.254  10.890  11.726  0.5200  1.3774 -1.2519
 9900SOL     OW36560   5.908   7.875   9.442 -0.7052  0.1312 -0.1582
 9900SOL    HW136561   5.984   7.907   9.394  0.4146  0.0282  1.4729
 9900SOL    HW236562   5.834   7.894   9.385  0.3255  2.0034 -0.9654
 9901SOL     OW36563  10.298   4.383   7.883  0.0190 -0.1992  0.0467
 9901SOL    HW136564  10.331   4.356   7.797 -0.9162  0.4030 -0.5183
 9901SOL    HW236565  10.285   4.301   7.931 -0.8224 -0.6332 -0.9049
 9902SOL     OW36566   0.821   1.765   2.803  0.1116  0.0914 -0.4418
 9902SOL    HW136567   0.746   1.813   2.769  0.5301  0.4620 -0.8717
 9902SOL    HW236568   0.787   1.680   2.829 -0.1377 -0.4225 -2.3300
 9903SOL     OW36569   8.862   7.158   1.497 -0.1542  0.1432  0.3405
 9903SOL    HW136570   8.816   7.075   1.484  0.6584 -0.2674 -0.0281
 9903SOL    HW236571   8.955   7.133   1.502  0.1470  1.0723 -0.3112
 9904SOL     OW36572   8.346   1.157  11.611 -0.4124 -0.1164  0.2354
 9904SOL    HW136573   8.390   1.076  11.638  0.9683  0.7146  0.5910
 9904SOL    HW236574   8.254   1.132  11.603  0.2084 -2.1820 -1.5128
 9905SOL     OW36575   5.002   8.030   9.111 -0.1518 -0.9325 -0.0965
 9905SOL    HW136576   4.962   7.942   9.107  0.8178 -1.3499 -0.8407
 9905SOL    HW236577   4.977   8.063   9.198 -0.0950 -2.1572  0.4083
 9906SOL     OW36578   6.861   4.753   0.958 -0.0442 -0.0822  0.8037
 9906SOL    HW136579   6.931   4.760   0.894 -0.3593 -0.1869  0.4448
 9906SOL    HW236580   6.905   4.726   1.039  0.5504  1.3548  0.9969
 9907SOL     OW36581   3.643   8.703  12.212 -0.2517 -0.5526  0.1233
 9907SOL    HW136582   3.612   8.663  12.293 -0.3967 -0.3564  0.1668
 9907SOL    HW236583   3.727   8.742  12.235 -1.9244  2.8114  1.2343
 9908SOL     OW36584   2.270   0.738  10.251  0.2695  0.4782  0.3258
 9908SOL    HW136585   2.322   0.789  10.313 -3.1457  2.5011  1.8249
 9908SOL    HW236586   2.279   0.647  10.282  0.1518  1.2082  2.7017
 9909SOL     OW36587   0.494   3.304   2.340 -0.1723 -0.7735  0.2210
 9909SOL    HW136588   0.554   3.378   2.349  1.2837 -1.8310 -0.4065
 9909SOL    HW236589   0.427   3.319   2.406  1.1409  0.1149  1.4019
 9910SOL     OW36590  11.386   1.258   1.378 -0.1730  0.4395 -0.1332
 9910SOL    HW136591  11.312   1.223   1.329  0.5070  1.8088 -2.3370
 9910SOL    HW236592  11.354   1.270   1.467 -2.4636  0.5857 -0.9163
 9911SOL     OW36593   8.374   9.314   6.751  0.1023  0.1171 -0.0476
 9911SOL    HW136594   8.429   9.242   6.718  1.2156  0.9643 -0.0777
 9911SOL    HW236595   8.400   9.390   6.699 -0.8306  0.6275  0.2114
 9912SOL     OW36596   4.386   7.038   3.276  0.1290  0.0501  0.0939
 9912SOL    HW136597   4.294   7.023   3.253  0.4865 -1.9684 -0.2245
 9912SOL    HW236598   4.415   7.106   3.215 -0.0240 -2.3773 -2.9331
 9913SOL     OW36599   3.017   2.570   0.945  0.2724  0.3190 -0.2113
 9913SOL    HW136600   2.969   2.530   1.017 -1.9916  2.7263 -0.2241
 9913SOL    HW236601   3.019   2.502   0.877 -0.8336 -0.7571  0.7726
 9914SOL     OW36602  12.284   3.569   3.947  1.1009  0.1994 -0.7321
 9914SOL    HW136603  12.304   3.633   3.878  1.4537  0.3352 -0.5028
 9914SOL    HW236604  12.285   3.485   3.901  0.0640  0.3970 -1.1551
 9915SOL     OW36605   5.721  11.466  11.920 -0.2562 -0.3491  0.0101
 9915SOL    HW136606   5.791  11.520  11.956  0.7274  0.0976 -2.4020
 9915SOL    HW236607   5.646  11.525  11.912  0.7750  0.7606 -2.4969
 9916SOL     OW36608   3.311   4.747   4.538  0.0196 -0.6080 -0.0062
 9916SOL    HW136609   3.321   4.687   4.464  0.6457  0.0942 -0.4999
 9916SOL    HW236610   3.276   4.827   4.500 -0.1613 -0.4193  0.5446
 9917SOL     OW36611   2.426   5.478  12.001  0.4822 -0.3697 -0.1431
 9917SOL    HW136612   2.332   5.492  12.018  0.9286  0.5624  1.8683
 9917SOL    HW236613   2.459   5.439  12.082  1.8592 -0.6578 -0.8214
 9918SOL     OW36614   1.826  11.038  11.573  1.0642 -0.2274  0.2872
 9918SOL    HW136615   1.910  11.081  11.591  0.2722  1.5293  0.0179
 9918SOL    HW236616   1.772  11.107  11.533 -0.7629 -1.0923  1.1286
 9919SOL     OW36617   4.046   1.568   3.421 -0.3209  0.2639 -0.4676
 9919SOL    HW136618   3.959   1.529   3.415 -0.1347 -0.2544  0.0521
 9919SOL    HW236619   4.044   1.642   3.361 -1.3661  0.7044  0.0798
 9920SOL     OW36620   4.931   7.338   8.470 -0.4985 -0.2109  0.1975
 9920SOL    HW136621   4.884   7.289   8.403 -2.2202  0.1225  1.0795
 9920SOL    HW236622   4.914   7.289   8.551 -0.4662  0.6695  0.7524
 9921SOL     OW36623  11.295   2.474  11.996 -0.2868 -0.1401 -0.4335
 9921SOL    HW136624  11.346   2.406  11.952 -0.8567 -1.6918  1.1812
 9921SOL    HW236625  11.210   2.473  11.951 -0.9323 -1.8461  0.7296
 9922SOL     OW36626   5.125   0.358   6.062  0.1885  0.4601 -0.3586
 9922SOL    HW136627   5.063   0.297   6.021  0.5668  0.4140 -0.8577
 9922SOL    HW236628   5.076   0.394   6.136 -1.0667  1.7263 -1.7386
 9923SOL     OW36629   4.713   8.467   2.691 -0.4729 -0.0069  0.2465
 9923SOL    HW136630   4.664   8.463   2.773 -1.4882 -0.5384 -0.3610
 9923SOL    HW236631   4.750   8.556   2.689 -1.2661  0.3489  0.8117
 9924SOL     OW36632   7.882  12.353   2.661  0.5805  0.0627  0.0088
 9924SOL    HW136633   7.827  12.430   2.647 -0.0288 -0.0795  1.4942
 9924SOL    HW236634   7.835  12.301   2.726  1.1423 -1.4135 -0.7305
 9925SOL     OW36635   6.875   3.924  11.341 -0.0638 -0.1126  0.2401
 9925SOL    HW136636   6.833   3.999  11.300  0.0509  0.0614  0.4422
 9925SOL    HW236637   6.924   3.883  11.270 -0.4623 -0.2392  0.0330
 9926SOL     OW36638   7.019   9.115  10.956 -0.2350  0.2143 -0.0688
 9926SOL    HW136639   7.044   9.023  10.960  1.2620  0.6115  0.1409
 9926SOL    HW236640   6.940   9.115  10.901  0.1864 -1.0989 -0.7247
 9927SOL     OW36641   0.464   2.665   4.815 -0.5880  0.1426  0.5397
 9927SOL    HW136642   0.486   2.672   4.908  1.6798  0.3490  0.0411
 9927SOL    HW236643   0.477   2.573   4.794 -0.2781  0.2551  0.2354
 9928SOL     OW36644  10.357   6.295  10.338 -0.3111 -0.3026 -0.9245
 9928SOL    HW136645  10.433   6.340  10.375 -1.4872  0.9116  0.1528
 9928SOL    HW236646  10.368   6.302  10.243  1.0592 -0.4226 -0.7903
 9929SOL     OW36647   2.541   5.159   3.216 -0.1593 -0.4785  1.0806
 9929SOL    HW136648   2.480   5.210   3.269 -0.1738 -0.6921  1.2720
 9929SOL    HW236649   2.492   5.140   3.135  0.0745  0.3591  0.7309
 9930SOL     OW36650   5.969   9.787  11.128  1.0071  0.2990 -0.4395
 9930SOL    HW136651   6.030   9.719  11.100  1.5248  1.0499 -1.2006
 9930SOL    HW236652   6.015   9.869  11.109 -0.0628  0.8749 -0.6138
 9931SOL     OW36653   0.033   5.147  11.876 -0.0247 -0.2057  0.0695
 9931SOL    HW136654  -0.055   5.168  11.847  0.3112  0.4435 -0.4913
 9931SOL    HW236655   0.082   5.228  11.867  0.3525 -0.2537  1.4687
 9932SOL     OW36656  10.917   4.004   4.274 -0.5687  0.0646 -0.3853
 9932SOL    HW136657  10.932   4.074   4.338 -0.8159 -0.3831  0.1735
 9932SOL    HW236658  10.825   3.979   4.287 -0.1693 -1.1732  0.2580
 9933SOL     OW36659   8.630   9.711   8.021 -0.0723 -0.2364 -0.1067
 9933SOL    HW136660   8.616   9.708   8.116 -0.2171 -0.2968 -0.1283
 9933SOL    HW236661   8.724   9.703   8.010  0.0465  0.8632  0.0723
 9934SOL     OW36662   3.479   6.495   0.913 -0.1270  0.3508  0.5840
 9934SOL    HW136663   3.541   6.499   0.987  2.9971  1.5608 -1.8773
 9934SOL    HW236664   3.439   6.581   0.911 -0.7221  0.1014  1.2013
 9935SOL     OW36665   7.228   3.071   2.768  0.5771  0.7637 -0.2750
 9935SOL    HW136666   7.264   3.051   2.854  2.2663  1.9246 -0.6603
 9935SOL    HW236667   7.219   3.166   2.768  0.7421  0.7852 -1.4357
 9936SOL     OW36668   2.815   9.431  11.595  0.0198  0.1167 -0.6082
 9936SOL    HW136669   2.852   9.351  11.560  0.2095 -0.0074 -0.1374
 9936SOL    HW236670   2.754   9.402  11.663 -2.3049  0.2274 -2.5441
 9937SOL     OW36671   8.605   9.086   5.589  0.1621 -0.5902  0.3166
 9937SOL    HW136672   8.606   9.150   5.660 -0.8121 -1.2316  0.9280
 9937SOL    HW236673   8.562   9.131   5.516  0.3713 -0.2257  0.4159
 9938SOL     OW36674   3.720   1.276  12.093  0.4001  0.0575  0.3374
 9938SOL    HW136675   3.779   1.345  12.062  0.6636 -0.3678 -0.1160
 9938SOL    HW236676   3.749   1.260  12.183 -0.5689  1.5070  0.9546
 9939SOL     OW36677  11.261  12.257   8.446 -0.2613  0.1155  0.1138
 9939SOL    HW136678  11.212  12.212   8.378  0.0423 -0.2893  0.1624
 9939SOL    HW236679  11.352  12.253   8.417 -0.3105  1.3678 -0.2703
 9940SOL     OW36680   2.056   6.813   2.195 -0.8716  0.1957 -0.1483
 9940SOL    HW136681   2.046   6.818   2.100  0.5377 -1.3192 -0.4189
 9940SOL    HW236682   2.039   6.721   2.215 -1.1751  0.5084  1.0860
 9941SOL     OW36683   0.398   0.758   2.198  0.1169  0.5159  0.2699
 9941SOL    HW136684   0.403   0.754   2.293 -0.1365 -0.4012  0.2576
 9941SOL    HW236685   0.319   0.709   2.176 -0.7683  2.1133 -0.3308
 9942SOL     OW36686   5.838   9.224   9.273 -0.2506  0.4597 -0.3110
 9942SOL    HW136687   5.859   9.147   9.326 -0.8583  0.7289  0.3363
 9942SOL    HW236688   5.742   9.228   9.273 -0.2782  0.2526 -1.7481
 9943SOL     OW36689   4.810  12.376   4.182  0.0603 -0.3612  0.0075
 9943SOL    HW136690   4.829  12.309   4.247  0.4144 -1.6033 -1.3380
 9943SOL    HW236691   4.833  12.458   4.226  2.4899 -1.3040  0.6996
 9944SOL     OW36692  11.433   6.362   0.941 -0.4566  0.5340 -0.5433
 9944SOL    HW136693  11.378   6.287   0.961 -0.7414  0.5315 -1.3193
 9944SOL    HW236694  11.404   6.392   0.855 -0.5486  1.7121 -0.1259
 9945SOL     OW36695   0.428   9.059  10.980  0.6324  0.0808  0.4854
 9945SOL    HW136696   0.465   9.012  11.055 -1.7527 -0.4649  1.4018
 9945SOL    HW236697   0.341   9.086  11.008 -0.7016 -0.8488 -2.3522
 9946SOL     OW36698  10.555   9.158  10.570  0.2947 -0.0581 -0.1706
 9946SOL    HW136699  10.637   9.137  10.524  0.1862 -0.1322 -0.3312
 9946SOL    HW236700  10.545   9.252  10.558  1.2723  0.2793  1.3612
 9947SOL     OW36701   5.342   9.898   2.887  0.0756  0.2722 -0.0999
 9947SOL    HW136702   5.357   9.856   2.971  0.4751  1.3241  0.3633
 9947SOL    HW236703   5.425   9.888   2.840  0.0412  0.2056 -0.1487
 9948SOL     OW36704  12.292   3.535   3.320  0.2020 -0.7004 -0.6442
 9948SOL    HW136705  12.276   3.615   3.271 -4.3892 -1.4646 -0.8747
 9948SOL    HW236706  12.296   3.466   3.254 -0.7193 -1.1446 -0.2588
 9949SOL     OW36707   2.871   5.524   5.778  0.2024  0.1678  0.0844
 9949SOL    HW136708   2.819   5.524   5.697 -0.5728  0.6435  0.5672
 9949SOL    HW236709   2.858   5.437   5.815 -0.0530  0.2011  0.0738
 9950SOL     OW36710   0.964   7.891  11.959  0.1829 -0.0081  0.1049
 9950SOL    HW136711   0.964   7.828  11.886  0.3435 -1.1008  1.0203
 9950SOL    HW236712   0.934   7.840  12.034  1.2296  0.7785  1.0882
 9951SOL     OW36713   4.045   2.960   6.969 -0.2589 -0.0077  0.2715
 9951SOL    HW136714   4.024   2.985   7.059 -0.5668 -0.2015  0.2544
 9951SOL    HW236715   3.988   2.885   6.951  0.5016 -0.5878  0.2486
 9952SOL     OW36716   2.164  11.182   8.430 -0.2286  0.3802 -0.0273
 9952SOL    HW136717   2.255  11.183   8.459  0.4248 -0.4383 -1.8910
 9952SOL    HW236718   2.134  11.093   8.449 -0.0372  0.0803 -1.0555
 9953SOL     OW36719   3.852   8.639   1.852 -0.3955  0.1176 -0.5100
 9953SOL    HW136720   3.927   8.684   1.890 -0.6070  2.9022 -3.0583
 9953SOL    HW236721   3.777   8.692   1.880 -1.1388 -0.9875 -0.3492
 9954SOL     OW36722   5.953   2.723   8.800 -0.5058  0.3130 -0.2871
 9954SOL    HW136723   5.986   2.663   8.866 -0.9743  0.6329  0.2516
 9954SOL    HW236724   6.017   2.719   8.729 -0.3984 -0.6130 -0.1448
 9955SOL     OW36725  11.898   9.415  11.702 -0.4623  0.1584 -0.1247
 9955SOL    HW136726  11.821   9.358  11.713 -0.7407  0.5201 -0.1759
 9955SOL    HW236727  11.903   9.464  11.784 -0.7882  0.7402 -0.4457
 9956SOL     OW36728  11.004   8.276   3.914 -0.3481  0.4421 -0.0671
 9956SOL    HW136729  11.027   8.309   3.827  1.9103  1.2724  0.7790
 9956SOL    HW236730  11.063   8.202   3.929 -1.2075 -0.1451  0.4870
 9957SOL     OW36731   4.848  10.719   8.633  0.5864  0.1991  0.5634
 9957SOL    HW136732   4.860  10.663   8.556  0.3915 -1.2081  1.5211
 9957SOL    HW236733   4.763  10.693   8.669  1.8154 -1.1344  2.7602
 9958SOL     OW36734  10.371   5.611   6.992  0.2740 -0.3389  0.3792
 9958SOL    HW136735  10.279   5.637   6.980  1.4196  3.6237 -1.4038
 9958SOL    HW236736  10.406   5.673   7.055  2.3916  0.2006 -1.2175
 9959SOL     OW36737   7.191   8.417  11.003 -0.0617 -0.2310  0.3185
 9959SOL    HW136738   7.179   8.472  10.926 -1.2839 -1.8526 -0.7335
 9959SOL    HW236739   7.286   8.406  11.010  0.0561 -0.6925 -1.4684
 9960SOL     OW36740   9.927   6.051   9.661 -0.2990  0.2486  0.8420
 9960SOL    HW136741   9.902   5.988   9.729 -0.4639  0.0972  0.6422
 9960SOL    HW236742   9.961   5.997   9.589  1.7465  0.5113  1.5656
 9961SOL     OW36743   9.016   2.860   3.085 -0.0633  0.7717  0.1819
 9961SOL    HW136744   9.025   2.933   3.147  0.9508 -0.1510  1.1517
 9961SOL    HW236745   9.091   2.868   3.027 -0.6533  1.2365 -0.5428
 9962SOL     OW36746   8.478   5.762   4.147  0.1048 -0.0228 -0.5215
 9962SOL    HW136747   8.533   5.739   4.072  1.0180 -1.4605  0.5269
 9962SOL    HW236748   8.440   5.679   4.175 -1.9155  0.8124 -0.6533
 9963SOL     OW36749   5.267   8.172   5.049 -0.4001  0.3485  0.0042
 9963SOL    HW136750   5.323   8.096   5.063 -0.4030  0.1799 -0.8479
 9963SOL    HW236751   5.293   8.234   5.117  0.6936  0.2026 -0.2555
 9964SOL     OW36752   6.703   9.014   6.696  0.0725  0.0329 -0.1725
 9964SOL    HW136753   6.719   9.081   6.629 -0.1754  0.7504  0.4742
 9964SOL    HW236754   6.627   8.966   6.664  1.7565 -1.6543 -1.9310
 9965SOL     OW36755   1.875   7.713  12.017 -0.1766  0.1641 -0.4813
 9965SOL    HW136756   1.917   7.627  12.022 -2.9778 -1.2960  0.0645
 9965SOL    HW236757   1.792   7.697  11.970 -0.5390  2.6919 -0.8674
 9966SOL     OW36758  12.040   6.295   6.321  0.2955  0.0502  0.1315
 9966SOL    HW136759  11.953   6.313   6.356  0.4222 -0.0212  0.4853
 9966SOL    HW236760  12.026   6.285   6.227 -0.4722 -2.4178  0.4353
 9967SOL     OW36761   2.123   4.542  11.268  0.0210  0.4880 -0.4375
 9967SOL    HW136762   2.208   4.586  11.265  0.7576 -0.9187 -1.0573
 9967SOL    HW236763   2.069   4.599  11.324  1.2746  1.5372 -0.2331
 9968SOL     OW36764   3.382   8.113  11.585  0.0643  0.3844  0.1286
 9968SOL    HW136765   3.308   8.055  11.568  0.2947 -0.1580  0.9076
 9968SOL    HW236766   3.398   8.157  11.502  0.4090 -1.2710 -0.7113
 9969SOL     OW36767  11.233   4.688  11.963  0.5288 -0.3733  0.0046
 9969SOL    HW136768  11.320   4.725  11.981  1.1185 -0.6577 -2.0259
 9969SOL    HW236769  11.245   4.638  11.883 -1.5948 -0.2178 -0.4543
 9970SOL     OW36770  11.799   7.135   6.898  0.1806  0.2036  0.3344
 9970SOL    HW136771  11.856   7.147   6.822  0.0042  0.1346  0.1906
 9970SOL    HW236772  11.852   7.165   6.972  0.2441  0.5521  0.1494
 9971SOL     OW36773   9.976   3.650   0.135  0.0870  0.3316 -0.4035
 9971SOL    HW136774   9.934   3.736   0.139 -0.4235  0.0703  0.0120
 9971SOL    HW236775   9.923   3.601   0.071 -1.0957 -0.4398  1.1152
 9972SOL     OW36776   3.567   2.742   2.674  0.5836 -0.2883 -0.3555
 9972SOL    HW136777   3.547   2.651   2.698 -0.8605 -0.2281 -1.2092
 9972SOL    HW236778   3.522   2.755   2.591  1.9520  0.7940 -0.9543
 9973SOL     OW36779  11.608  10.429   3.621  0.0728  0.2617  0.2042
 9973SOL    HW136780  11.587  10.366   3.552  0.2276 -0.9451  1.1982
 9973SOL    HW236781  11.638  10.507   3.576  1.0906 -0.8211 -1.0775
 9974SOL     OW36782   9.356  11.639   8.031 -0.3001 -0.6743  0.0659
 9974SOL    HW136783   9.397  11.562   7.990  0.3783 -1.4297  2.0179
 9974SOL    HW236784   9.290  11.602   8.089  0.2946  0.1725  1.3201
 9975SOL     OW36785   9.103   6.728   2.058  0.1565  0.2404 -0.2846
 9975SOL    HW136786   9.150   6.785   2.119 -0.7276  1.0389 -0.3283
 9975SOL    HW236787   9.171   6.697   1.998  0.7198  0.9758 -0.0424
 9976SOL     OW36788   0.015   8.033   1.004  0.0054 -0.5330 -0.0617
 9976SOL    HW136789   0.058   7.951   0.982  1.2496 -0.4633  1.8652
 9976SOL    HW236790  -0.009   8.023   1.096 -1.1834  0.7119 -0.2009
 9977SOL     OW36791  12.430   3.710   9.540 -0.0436  0.6601  0.7239
 9977SOL    HW136792  12.412   3.625   9.581 -1.4486  0.6352  0.1002
 9977SOL    HW236793  12.430   3.772   9.613  0.0798  0.2557  1.0721
 9978SOL     OW36794  10.436  11.157   0.264  0.4238 -0.0123  0.1810
 9978SOL    HW136795  10.513  11.119   0.305  1.5074  1.7955 -0.0328
 9978SOL    HW236796  10.407  11.225   0.325  1.8703  2.4969 -1.7019
 9979SOL     OW36797   0.199   4.534  10.500  0.0890 -1.4350  0.2040
 9979SOL    HW136798   0.153   4.507  10.420 -0.9417 -1.0218  0.6397
 9979SOL    HW236799   0.149   4.609  10.532  1.4481 -0.5595  0.3621
 9980SOL     OW36800  11.730   5.157  11.389  0.7229 -0.1509 -0.2479
 9980SOL    HW136801  11.725   5.073  11.435  0.2122  0.0619  0.0932
 9980SOL    HW236802  11.746   5.221  11.459 -0.6027  0.2428 -0.2811
 9981SOL     OW36803   4.225   1.820   6.744 -0.1220 -0.4629 -0.1537
 9981SOL    HW136804   4.261   1.909   6.734 -0.5892 -0.3630 -1.0235
 9981SOL    HW236805   4.180   1.803   6.661 -2.4210 -0.4317  1.0174
 9982SOL     OW36806  11.883   3.822  10.096 -0.0547  0.4099 -0.5116
 9982SOL    HW136807  11.882   3.900  10.151 -0.7668  0.2307 -0.2523
 9982SOL    HW236808  11.893   3.855  10.007 -1.0182  0.8585 -0.4713
 9983SOL     OW36809   1.208   4.735   5.075 -0.0678  0.2953  0.6733
 9983SOL    HW136810   1.135   4.724   5.135 -0.8688 -0.2361 -0.3726
 9983SOL    HW236811   1.225   4.647   5.041 -0.9617  0.8501 -1.3771
 9984SOL     OW36812   9.967  11.844   7.752  0.2849  0.0663 -0.4313
 9984SOL    HW136813   9.926  11.809   7.832 -0.0564  0.4117 -0.4518
 9984SOL    HW236814  10.047  11.886   7.783 -1.1635  2.6159  0.1531
 9985SOL     OW36815   9.571   6.980   3.726 -0.0722  0.5599 -0.5935
 9985SOL    HW136816   9.536   6.894   3.747  1.9363 -0.6267 -1.7524
 9985SOL    HW236817   9.526   7.006   3.646  1.1958 -0.7237 -1.7898
 9986SOL     OW36818   6.404  11.487  10.322  0.5336 -0.5196 -0.1550
 9986SOL    HW136819   6.334  11.487  10.256  1.9346 -1.9963 -1.7646
 9986SOL    HW236820   6.477  11.532  10.279  0.8217  0.4176  1.2471
 9987SOL     OW36821   0.685   0.109   2.097  0.3073  0.6028 -0.3322
 9987SOL    HW136822   0.633   0.141   2.023 -0.3824 -2.8068 -1.5000
 9987SOL    HW236823   0.764   0.074   2.056  0.6389  0.0466  0.7520
 9988SOL     OW36824   8.627  10.573   6.096 -0.4698  0.3368  0.4146
 9988SOL    HW136825   8.602  10.640   6.031 -1.0097  0.3493  0.6235
 9988SOL    HW236826   8.716  10.549   6.073  0.2407  2.0948  1.1354
 9989SOL     OW36827  11.436   8.067  11.928  0.2988  0.1249  0.0925
 9989SOL    HW136828  11.450   8.109  12.013  1.0875  1.5269 -0.6942
 9989SOL    HW236829  11.386   7.988  11.949 -0.7396  1.1416  1.7031
 9990SOL     OW36830   9.040  10.882  11.742  0.1149 -0.6224 -0.1456
 9990SOL    HW136831   9.042  10.881  11.646  1.9115  0.5609 -0.1517
 9990SOL    HW236832   9.034  10.789  11.766 -1.6750 -0.8703 -1.3798
 9991SOL     OW36833   4.417   9.657   8.540 -0.1915 -0.1671 -0.0399
 9991SOL    HW136834   4.413   9.615   8.455 -1.5881  1.5787 -0.9065
 9991SOL    HW236835   4.433   9.586   8.602 -0.4169 -1.6426 -1.6135
 9992SOL     OW36836   7.691  11.006   6.772  0.2490 -0.0906  0.3432
 9992SOL    HW136837   7.667  10.958   6.693  0.7178 -0.3282  0.3428
 9992SOL    HW236838   7.767  10.959   6.807 -0.9263 -1.0098  1.8401
 9993SOL     OW36839  11.717   6.863  10.114  0.1676  0.9603  0.1158
 9993SOL    HW136840  11.791   6.806  10.134 -0.8707 -0.2767  0.6172
 9993SOL    HW236841  11.641   6.816  10.149 -0.9846  1.6721 -1.3089
 9994SOL     OW36842   8.046   2.680   8.254  0.2117 -0.5644  0.3101
 9994SOL    HW136843   7.978   2.687   8.321 -0.0355 -1.8483  0.2307
 9994SOL    HW236844   8.116   2.736   8.285  0.0040 -0.9368  1.5313
 9995SOL     OW36845   4.427  11.766   6.451 -0.0349  0.1568  0.1844
 9995SOL    HW136846   4.455  11.715   6.375 -0.8819  0.8534 -0.6266
 9995SOL    HW236847   4.331  11.763   6.448 -0.0841  0.0551  1.3325
 9996SOL     OW36848   8.068   5.155   0.813 -0.2226 -0.2890  0.7271
 9996SOL    HW136849   8.137   5.089   0.810 -0.7620 -0.8294 -0.3406
 9996SOL    HW236850   7.988   5.106   0.794 -0.4025  0.9415 -2.1676
 9997SOL     OW36851   6.440  10.088  11.930 -0.6004 -0.3135 -0.2921
 9997SOL    HW136852   6.445  10.165  11.873 -2.2636 -1.2386 -1.7691
 9997SOL    HW236853   6.520  10.093  11.983 -0.1150  1.8089 -1.1111
 9998SOL     OW36854   7.405   3.763   8.783 -0.0354  0.5703 -0.0389
 9998SOL    HW136855   7.320   3.725   8.761  0.8580 -2.7869  1.6252
 9998SOL    HW236856   7.428   3.818   8.708 -1.5873 -2.1524 -2.7311
 9999SOL     OW36857   3.665   6.619   0.508 -0.2564 -0.1088  0.7265
 9999SOL    HW136858   3.617   6.676   0.447  0.0958  0.1290  0.6682
 9999SOL    HW236859   3.598   6.560   0.543 -0.4550 -0.2832  0.0710
10000SOL     OW36860   8.809   2.019  10.218 -0.0456 -0.4457  0.0764
10000SOL    HW136861   8.843   1.960  10.286  1.6937 -0.4206 -0.7107
10000SOL    HW236862   8.885   2.071  10.192 -1.1769  1.0317 -0.3986
10001SOL     OW36863  11.185   2.671   4.685  0.6940  0.3730 -0.3221
10001SOL    HW136864  11.101   2.659   4.728  1.6204  0.9295  1.7915
10001SOL    HW236865  11.166   2.725   4.609 -0.6532  2.0832  1.1333
10002SOL     OW36866  11.012   2.166   3.200  0.3292 -0.0418  0.6800
10002SOL    HW136867  11.068   2.120   3.263  0.4939  0.0262  0.5818
10002SOL    HW236868  10.985   2.099   3.138 -1.2943 -0.5158  1.8309
10003SOL     OW36869   5.983   0.352   9.276  0.1162 -0.5787 -0.0678
10003SOL    HW136870   6.032   0.295   9.218  0.6490 -0.7047  0.4996
10003SOL    HW236871   6.047   0.383   9.340 -0.7978 -1.8572  1.5444
10004SOL     OW36872   6.545   7.418  11.253  0.3549 -0.5487  0.4314
10004SOL    HW136873   6.574   7.508  11.237  0.5150 -0.2185  2.3036
10004SOL    HW236874   6.532   7.381  11.166 -1.9473  1.9747 -0.4404
10005SOL     OW36875   9.126   0.841   8.839  0.1581  0.0227  0.3535
10005SOL    HW136876   9.071   0.830   8.917 -0.8536 -1.1053 -0.4858
10005SOL    HW236877   9.209   0.800   8.863 -0.8571 -2.3253  0.1481
10006SOL     OW36878   1.178   3.873  11.562  0.0408  0.4186 -0.0277
10006SOL    HW136879   1.248   3.809  11.574 -0.5549 -0.2257  0.0724
10006SOL    HW236880   1.173   3.886  11.468  0.9043  1.1701  0.0145
10007SOL     OW36881   6.281   8.867   8.335 -0.2206 -0.1086 -0.1431
10007SOL    HW136882   6.273   8.820   8.418 -0.5337 -0.5434 -0.4161
10007SOL    HW236883   6.331   8.945   8.357  4.1070 -2.5104 -0.4280
10008SOL     OW36884   1.337   0.005   0.442 -0.3486  0.3073  0.1839
10008SOL    HW136885   1.329  -0.089   0.459 -2.9531  0.6056  1.0007
10008SOL    HW236886   1.369   0.010   0.352  0.5545 -1.3313  0.3643
10009SOL     OW36887   6.664   4.791  10.494 -0.1126 -0.1434  0.2120
10009SOL    HW136888   6.710   4.835  10.422  0.2829 -0.8902 -0.0024
10009SOL    HW236889   6.586   4.754  10.453 -0.5555  0.5399  0.4358
10010SOL     OW36890  10.252   0.358  10.583 -0.2762 -0.0206  0.0350
10010SOL    HW136891  10.204   0.440  10.589  0.9343  0.6757  0.4002
10010SOL    HW236892  10.186   0.290  10.598 -1.0754  0.9222  0.8549
10011SOL     OW36893   8.077   5.335   9.474  0.0747  0.0670 -0.0157
10011SOL    HW136894   8.026   5.409   9.507  0.6579  1.7563 -2.6474
10011SOL    HW236895   8.035   5.311   9.392  2.1888  0.1503 -1.2050
10012SOL     OW36896   1.568   6.539   3.856 -0.5154 -0.2760  0.1299
10012SOL    HW136897   1.499   6.605   3.864  0.2999  0.5585  0.4442
10012SOL    HW236898   1.632   6.578   3.797 -0.8879 -1.5643 -1.1888
10013SOL     OW36899   2.234   5.576   6.812  0.2695  0.2313 -0.0474
10013SOL    HW136900   2.260   5.622   6.732  0.1634  0.2387 -0.0776
10013SOL    HW236901   2.143   5.602   6.826  0.8945  1.9625  1.2668
10014SOL     OW36902   2.032   9.922  11.136  0.8927  0.2379  0.0860
10014SOL    HW136903   2.091   9.932  11.062  0.4660 -1.1734 -0.4707
10014SOL    HW236904   1.955   9.973  11.113  0.2637 -1.1365 -1.0257
10015SOL     OW36905   8.238   6.289   2.790 -0.2739  0.3680  0.1612
10015SOL    HW136906   8.310   6.296   2.728 -1.5561 -0.6863 -1.5494
10015SOL    HW236907   8.272   6.326   2.872  1.9686  0.4417 -0.7456
10016SOL     OW36908   2.725   8.742   1.775 -0.0637 -0.3979 -0.0514
10016SOL    HW136909   2.799   8.797   1.800 -0.8597 -0.0719  1.8270
10016SOL    HW236910   2.705   8.767   1.685  2.3065 -0.7734 -0.7317
10017SOL     OW36911   2.697   0.927   3.011 -0.3439 -0.1602 -0.0821
10017SOL    HW136912   2.705   0.931   3.106 -2.1936 -0.9960  0.1594
10017SOL    HW236913   2.751   0.999   2.979  0.8130 -0.2434  1.5524
10018SOL     OW36914   2.297   2.109   8.973  0.0685  0.0227 -0.3450
10018SOL    HW136915   2.219   2.055   8.965  0.6424 -1.0541  0.8661
10018SOL    HW236916   2.266   2.191   9.011 -0.5229 -0.2991 -0.1260
10019SOL     OW36917   6.658   6.031   5.972  0.2754  0.1459 -0.1375
10019SOL    HW136918   6.689   6.039   6.062  2.6563  1.0406 -0.9647
10019SOL    HW236919   6.578   6.084   5.969 -0.5850 -0.9571  1.7040
10020SOL     OW36920   1.310   4.821  11.594  0.1849  0.5315  0.5565
10020SOL    HW136921   1.383   4.794  11.538  0.2954 -0.1821  1.0427
10020SOL    HW236922   1.333   4.790  11.681 -1.3364 -0.9551  0.4685
10021SOL     OW36923   8.166   7.935   1.491  0.1934  0.0948  0.2907
10021SOL    HW136924   8.073   7.946   1.476  0.7439  0.5202 -3.7587
10021SOL    HW236925   8.196   8.021   1.521 -0.6831 -0.1602  2.0382
10022SOL     OW36926   1.439   5.383   4.014  0.1616 -0.3205 -0.5224
10022SOL    HW136927   1.516   5.395   3.958 -0.3625  1.1740 -0.9656
10022SOL    HW236928   1.411   5.472   4.035 -0.7972 -0.8602  0.5411
10023SOL     OW36929  12.395   2.939   5.368  0.6095  0.2858 -0.1409
10023SOL    HW136930  12.299   2.945   5.368  0.5483 -0.2363  1.2048
10023SOL    HW236931  12.421   2.972   5.282 -0.8205 -0.3051 -0.8414
10024SOL     OW36932   7.947  10.325   9.130 -0.0096 -0.0402 -0.2536
10024SOL    HW136933   7.924  10.310   9.221  1.4385  1.8557  0.5044
10024SOL    HW236934   7.864  10.340   9.086 -0.7908 -1.7080  0.5563
10025SOL     OW36935   4.237   6.652  10.322 -0.5879 -1.1405  0.2971
10025SOL    HW136936   4.145   6.648  10.296 -0.5862  1.3614 -0.3137
10025SOL    HW236937   4.239   6.713  10.396  0.5780 -1.2129  0.3393
10026SOL     OW36938   2.384  10.090   1.810  0.5183 -0.3561 -0.3495
10026SOL    HW136939   2.349  10.139   1.736  2.0573 -0.2389 -1.0230
10026SOL    HW236940   2.381  10.152   1.883  1.4929  0.4304 -0.9531
10027SOL     OW36941   3.110   5.651   0.009  0.2832  0.3193  0.0233
10027SOL    HW136942   3.176   5.720   0.012  0.1404  0.5270 -0.9957
10027SOL    HW236943   3.080   5.642   0.099  1.5192  0.3908  0.4671
10028SOL     OW36944  10.441  11.537   8.800  0.2425  0.0519  0.0176
10028SOL    HW136945  10.520  11.508   8.847 -0.0329  1.0860  1.1722
10028SOL    HW236946  10.471  11.548   8.710  1.1212 -0.7037  0.1853
10029SOL     OW36947   7.880   3.060   1.442 -0.3716  0.4924  0.5570
10029SOL    HW136948   7.847   2.983   1.488 -2.7414  1.5351  0.7160
10029SOL    HW236949   7.914   3.026   1.359  1.7623 -1.0975  1.9563
10030SOL     OW36950   2.932   4.144   5.031 -0.6512 -0.1434 -0.1870
10030SOL    HW136951   2.950   4.225   5.078 -0.6269 -1.1623  1.6216
10030SOL    HW236952   2.853   4.164   4.979 -1.2927  0.7144  1.0702
10031SOL     OW36953   6.038  10.738   4.585  0.1886 -0.5445  0.2008
10031SOL    HW136954   6.077  10.668   4.637 -0.3416 -2.1862 -1.4966
10031SOL    HW236955   5.946  10.713   4.575  0.0288  0.2840 -0.6260
10032SOL     OW36956   1.454   5.324  11.130 -0.2274 -0.4931  0.1528
10032SOL    HW136957   1.414   5.238  11.117  0.8922 -1.0215  0.0832
10032SOL    HW236958   1.384   5.379  11.164 -0.8707 -1.5306  0.5228
10033SOL     OW36959  12.357   6.655  12.166  0.6296  0.4061 -0.4805
10033SOL    HW136960  12.358   6.619  12.077 -0.9490  0.2838 -0.4796
10033SOL    HW236961  12.326   6.582  12.220  0.7135  0.7518  0.0366
10034SOL     OW36962   8.458  10.181   0.702  0.1812  0.1629 -0.1923
10034SOL    HW136963   8.398  10.107   0.713  2.1310 -1.5733 -0.6282
10034SOL    HW236964   8.418  10.234   0.633 -1.4756 -0.1983  0.4335
10035SOL     OW36965   8.932   9.726   7.151 -0.3072 -0.0015 -0.8568
10035SOL    HW136966   8.848   9.716   7.106 -0.8250 -0.7089  0.2213
10035SOL    HW236967   8.911   9.778   7.229  0.3938  0.4139 -0.9397
10036SOL     OW36968   4.212  12.480   3.569  0.1910  0.2949  0.2829
10036SOL    HW136969   4.180  12.537   3.640  0.6365  1.9489 -0.7882
10036SOL    HW236970   4.275  12.422   3.612  0.9740  1.7190  1.1605
10037SOL     OW36971  10.790   0.493   4.820  0.3925 -0.7918 -0.2425
10037SOL    HW136972  10.807   0.459   4.908  1.9299 -0.7483 -0.5025
10037SOL    HW236973  10.827   0.427   4.762 -1.2900 -1.2011 -0.9157
10038SOL     OW36974   5.736  10.755  11.522 -0.1493  0.2728 -0.3473
10038SOL    HW136975   5.790  10.682  11.494  0.7558  1.3438 -1.5299
10038SOL    HW236976   5.694  10.786  11.441 -0.4066  1.1277  0.1023
10039SOL     OW36977  10.786   1.910  10.784 -1.0023 -0.5337  0.5432
10039SOL    HW136978  10.877   1.904  10.755 -0.5299  0.9443  1.5765
10039SOL    HW236979  10.767   1.824  10.820  0.2027 -0.6994  0.8515
10040SOL     OW36980  10.284  12.269   5.133  0.1031 -0.7340 -0.0737
10040SOL    HW136981  10.366  12.254   5.180 -0.7844  1.0014  2.2132
10040SOL    HW236982  10.236  12.187   5.142  0.7349 -1.0629  0.4133
10041SOL     OW36983   1.401   1.588   0.905  0.1369 -0.1943 -0.3746
10041SOL    HW136984   1.379   1.669   0.860  0.1187  0.3444  0.5585
10041SOL    HW236985   1.380   1.605   0.997  0.7610 -1.0216 -0.0567
10042SOL     OW36986   2.550   9.536   9.474 -0.1296 -0.3437  0.0111
10042SOL    HW136987   2.457   9.520   9.459 -0.6425  1.5686  0.8441
10042SOL    HW236988   2.590   9.529   9.387 -1.5084  1.3844 -0.8284
10043SOL     OW36989   9.673   5.445   1.423 -0.4065  0.1349 -0.2631
10043SOL    HW136990   9.630   5.407   1.347  1.9750 -0.4850 -1.3879
10043SOL    HW236991   9.663   5.379   1.491  1.2020 -1.3217 -1.3653
10044SOL     OW36992   5.921   1.545  11.728  0.7202  0.1184 -0.7152
10044SOL    HW136993   5.964   1.562  11.644 -2.2885 -1.0658 -2.6628
10044SOL    HW236994   5.876   1.626  11.749  0.4795  0.0348 -0.9027
10045SOL     OW36995   0.677   7.175   0.406  0.1973 -0.3830  0.0642
10045SOL    HW136996   0.652   7.137   0.322 -0.2980  0.0111  0.0265
10045SOL    HW236997   0.670   7.103   0.469 -0.2512 -0.4769 -0.0905
10046SOL     OW36998   8.598   4.817   7.328  0.1940  0.6690  0.0932
10046SOL    HW136999   8.619   4.907   7.300  1.2725  0.5000  0.3171
10046SOL    HW237000   8.631   4.762   7.257  0.8068  0.3738  0.5987
10047SOL     OW37001   2.866   4.842   7.854  0.2413  0.0112 -0.1078
10047SOL    HW137002   2.805   4.909   7.885 -1.0406 -1.2854  0.2375
10047SOL    HW237003   2.928   4.831   7.926 -0.8928 -0.7688  0.7745
10048SOL     OW37004  11.148  10.003   7.577  0.5288  0.2491  0.3432
10048SOL    HW137005  11.157  10.013   7.672  1.7021  0.4255  0.2328
10048SOL    HW237006  11.236   9.978   7.547  0.2810  0.6036 -0.7375
10049SOL     OW37007   1.183   5.196   5.733  0.3287  0.3123  0.1510
10049SOL    HW137008   1.156   5.135   5.802  0.5054 -1.1718 -1.0229
10049SOL    HW237009   1.122   5.179   5.661  1.1571  0.6261 -0.6539
10050SOL     OW37010   7.751   1.510   8.233 -0.1655 -0.1364 -0.1902
10050SOL    HW137011   7.692   1.444   8.272 -0.6663 -0.0275 -0.7516
10050SOL    HW237012   7.780   1.470   8.151  0.6250 -0.2242  0.1288
10051SOL     OW37013   4.488   8.654   2.776 -0.2160 -0.0992  0.1092
10051SOL    HW137014   4.408   8.707   2.780 -1.6236 -1.9090 -1.9653
10051SOL    HW237015   4.507   8.648   2.683 -0.8092 -4.0952  0.0938
10052SOL     OW37016  11.464   5.019   3.145  0.2411  0.1448 -0.2785
10052SOL    HW137017  11.464   5.114   3.134  2.7845  0.4432  1.4991
10052SOL    HW237018  11.556   4.995   3.151 -0.3546 -2.1006  1.8118
10053SOL     OW37019   2.582   6.567  10.904 -0.4170  0.3934 -0.1726
10053SOL    HW137020   2.625   6.481  10.903  1.5721  1.2991 -1.9749
10053SOL    HW237021   2.500   6.554  10.856 -1.0774 -0.8597  1.2145
10054SOL     OW37022   1.809   4.893   3.752  0.1444  0.7854 -0.1450
10054SOL    HW137023   1.749   4.874   3.824 -0.3170  0.5404 -0.5827
10054SOL    HW237024   1.844   4.980   3.772  4.3915 -1.3706  3.3095
10055SOL     OW37025   9.650   4.965   4.261  0.5401  0.1535 -0.3063
10055SOL    HW137026   9.667   4.989   4.170 -0.4160  0.9292 -0.2978
10055SOL    HW237027   9.554   4.957   4.265  0.6017 -0.1904  0.5541
10056SOL     OW37028   9.987   1.331   1.391 -0.0036 -0.2851 -0.1937
10056SOL    HW137029   9.929   1.266   1.352 -0.8386 -0.1845  0.8448
10056SOL    HW237030  10.053   1.349   1.323  0.6182 -2.6661 -0.3016
10057SOL     OW37031   6.463   9.853   1.565 -0.1803  0.5439 -1.0959
10057SOL    HW137032   6.392   9.869   1.627  1.3043 -2.4349  1.6874
10057SOL    HW237033   6.533   9.912   1.592  0.0711  0.0166 -0.5427
10058SOL     OW37034   3.385  12.265   9.020 -0.7982  0.2371  0.3485
10058SOL    HW137035   3.338  12.346   9.000 -0.0017  0.4543 -0.7024
10058SOL    HW237036   3.396  12.266   9.115  1.8576  2.9028  0.1530
10059SOL     OW37037   6.287   4.535   8.524  0.4202 -0.1223  0.1002
10059SOL    HW137038   6.370   4.580   8.508  1.2094 -1.6297 -0.2325
10059SOL    HW237039   6.311   4.443   8.529 -1.3738 -0.6824 -0.9662
10060SOL     OW37040   8.802   5.850   2.466 -0.4318 -0.3388 -0.2461
10060SOL    HW137041   8.792   5.938   2.502 -0.5644 -0.8245  0.9651
10060SOL    HW237042   8.828   5.797   2.541  0.8721 -1.1044 -1.2090
10061SOL     OW37043   9.920   4.848   7.540 -0.2606 -0.3079 -0.1085
10061SOL    HW137044   9.972   4.860   7.460 -0.5138 -1.1738 -0.4145
10061SOL    HW237045   9.969   4.783   7.591  0.3632  0.8937  0.8657
10062SOL     OW37046   6.836   9.109  11.822  0.1399  0.0932  0.2851
10062SOL    HW137047   6.917   9.098  11.773  0.4973 -0.2602  0.9341
10062SOL    HW237048   6.864   9.144  11.907 -0.1699 -1.7968  1.2172
10063SOL     OW37049  10.110   6.820   0.931  0.4069  0.4185 -0.3930
10063SOL    HW137050  10.084   6.780   1.014 -1.1184  3.1329  0.6008
10063SOL    HW237051  10.195   6.781   0.910 -0.5077 -2.4916  0.8674
10064SOL     OW37052  11.005   0.844   9.827 -0.2071  0.5924 -0.0896
10064SOL    HW137053  10.943   0.833   9.754 -1.5922  0.4720  1.0657
10064SOL    HW237054  11.015   0.939   9.835 -0.6287  0.6271  0.0359
10065SOL     OW37055   3.360   3.697   9.293  0.1872 -0.0194 -0.3510
10065SOL    HW137056   3.357   3.611   9.251  1.6937 -0.0579 -0.4329
10065SOL    HW237057   3.386   3.678   9.383  0.9998  0.3683 -0.4955
10066SOL     OW37058   9.727   6.908   7.549  0.0298 -0.0889 -0.7323
10066SOL    HW137059   9.794   6.842   7.527  1.7071  1.4673 -0.5442
10066SOL    HW237060   9.681   6.923   7.467  0.0599 -1.0034 -0.9367
10067SOL     OW37061  10.260   1.620   7.335 -0.2107  0.1818  0.2323
10067SOL    HW137062  10.269   1.561   7.260 -2.1952  3.0409 -2.5196
10067SOL    HW237063  10.182   1.588   7.380  1.2444 -1.8264  1.4829
10068SOL     OW37064   5.294   3.709   6.390 -0.1076  0.0427 -0.4781
10068SOL    HW137065   5.340   3.633   6.425  0.6112  1.2527  1.3141
10068SOL    HW237066   5.349   3.739   6.318  0.7185  0.1275  0.1824
10069SOL     OW37067   7.961   3.333   0.093 -0.1503  0.1140  0.7402
10069SOL    HW137068   8.022   3.323   0.166 -0.1369 -0.2192  0.6850
10069SOL    HW237069   8.008   3.298   0.018  0.0833  1.0451  0.4356
10070SOL     OW37070  11.232   8.006   9.101 -0.0713  0.5674  0.3400
10070SOL    HW137071  11.170   8.078   9.085 -0.3195  0.2529 -0.1373
10070SOL    HW237072  11.275   7.993   9.017 -0.2084 -0.0168  0.3625
10071SOL     OW37073   1.379  10.655   4.576  0.1918  0.4278 -0.1585
10071SOL    HW137074   1.352  10.580   4.523 -0.4014 -0.0393  0.7802
10071SOL    HW237075   1.340  10.731   4.532 -1.0641 -0.0448  0.0971
10072SOL     OW37076  10.276   7.201   3.889 -0.7483  0.1853 -0.5177
10072SOL    HW137077  10.208   7.158   3.941  1.2468 -0.4125  1.8085
10072SOL    HW237078  10.244   7.290   3.876 -2.6603 -0.5108 -0.9252
10073SOL     OW37079   9.162   2.631   0.534  0.3731 -0.2656 -0.1297
10073SOL    HW137080   9.246   2.675   0.517  0.8496 -0.7835  0.8052
10073SOL    HW237081   9.186   2.552   0.582 -0.6423 -0.5544 -0.0806
10074SOL     OW37082   1.230   3.992   6.536 -0.7518  0.4885 -0.1830
10074SOL    HW137083   1.278   3.911   6.553  1.2861  1.2971 -1.6846
10074SOL    HW237084   1.212   4.028   6.623 -0.2857 -0.7807  0.4639
10075SOL     OW37085   0.768  11.299  12.360 -0.1147 -0.0530  0.3909
10075SOL    HW137086   0.757  11.316  12.266  0.0599  1.0710  0.5583
10075SOL    HW237087   0.821  11.219  12.364 -2.5729 -1.8635 -0.4508
10076SOL     OW37088   8.964   8.435   6.714  0.2764  0.6362 -0.4462
10076SOL    HW137089   8.983   8.528   6.703  2.6927  0.0472 -2.0747
10076SOL    HW237090   9.045   8.391   6.686 -1.6205 -2.0457 -2.1564
10077SOL     OW37091   2.687  11.790  10.572  0.0394  0.1529 -0.3616
10077SOL    HW137092   2.650  11.877  10.585  0.8073  0.3497  0.6063
10077SOL    HW237093   2.781  11.806  10.559  0.2451 -0.5468  0.1915
10078SOL     OW37094   5.211   2.010   8.769 -0.4004  0.6730  0.3900
10078SOL    HW137095   5.223   1.935   8.828  1.5834  0.8076  0.2128
10078SOL    HW237096   5.142   1.981   8.709 -0.4324 -0.5826  0.9848
10079SOL     OW37097  11.055  11.069   4.361 -0.0922  0.6606 -0.2994
10079SOL    HW137098  11.000  11.138   4.399 -3.4240  0.2199 -3.7525
10079SOL    HW237099  11.084  11.105   4.277  0.4202 -1.1729 -0.9532
10080SOL     OW37100   9.699   5.866   8.910 -0.1987 -0.0606 -0.0921
10080SOL    HW137101   9.658   5.939   8.957  0.2479 -0.2886  0.6622
10080SOL    HW237102   9.764   5.908   8.854 -2.3349  0.4637 -2.3900
10081SOL     OW37103  10.914   6.799   0.897  0.2926  0.2220 -0.1761
10081SOL    HW137104  10.851   6.816   0.827  0.0485  0.8317  0.1871
10081SOL    HW237105  10.996   6.836   0.865  0.1776  0.5154 -0.1288
10082SOL     OW37106   3.298   8.043   9.954 -0.0008  0.4957 -0.2576
10082SOL    HW137107   3.320   8.129   9.919 -1.8792  0.4888 -1.6028
10082SOL    HW237108   3.208   8.051   9.985  0.4863 -0.4480  1.5517
10083SOL     OW37109   7.705   9.590   2.561 -0.0033 -0.6841 -0.6774
10083SOL    HW137110   7.788   9.637   2.572 -0.4915 -0.0888  0.6023
10083SOL    HW237111   7.659   9.639   2.493  0.3410 -0.5196 -0.7969
10084SOL     OW37112   2.426   8.325  11.162 -0.2004 -0.8821  0.6147
10084SOL    HW137113   2.456   8.267  11.232 -1.2272  0.0938  1.9327
10084SOL    HW237114   2.393   8.267  11.094  0.3086 -1.8584  1.1842
10085SOL     OW37115   7.394   6.214   9.725  0.6535  0.1336  0.3701
10085SOL    HW137116   7.366   6.139   9.673 -1.3797  1.5094 -0.6651
10085SOL    HW237117   7.460   6.258   9.670 -1.5856  1.6605 -1.2839
10086SOL     OW37118   6.533   5.653  10.498  0.1552 -0.2161 -0.2546
10086SOL    HW137119   6.529   5.633  10.404  1.3121 -2.5580  0.1129
10086SOL    HW237120   6.458   5.607  10.536  2.5040 -3.8527  0.5255
10087SOL     OW37121   4.597   6.067   2.199 -1.0272 -0.1710 -0.4225
10087SOL    HW137122   4.655   6.143   2.198 -0.5503 -0.4892  1.2362
10087SOL    HW237123   4.596   6.037   2.108  0.7241  0.3622 -0.6506
10088SOL     OW37124   1.691   0.197   0.530 -0.5599 -0.0884 -0.3863
10088SOL    HW137125   1.745   0.152   0.465  1.2463 -0.9839  1.6090
10088SOL    HW237126   1.739   0.277   0.550  0.3785 -1.1116  1.7427
10089SOL     OW37127   1.565   1.181  11.756 -0.0701 -0.6051 -0.1879
10089SOL    HW137128   1.627   1.251  11.776 -0.3650 -0.5568  0.5941
10089SOL    HW237129   1.620   1.103  11.746  0.0212 -0.9684  2.4145
10090SOL     OW37130   6.493   8.050   5.276  0.6987 -0.2346 -0.3856
10090SOL    HW137131   6.501   7.957   5.295 -0.7092 -0.1549  0.7505
10090SOL    HW237132   6.473   8.091   5.360  0.7824  1.0355 -0.9520
10091SOL     OW37133   7.066   2.166   7.934 -0.1367  0.0626  0.3822
10091SOL    HW137134   7.050   2.188   8.025  2.1091  0.5271  0.7095
10091SOL    HW237135   7.158   2.188   7.919 -0.1280 -1.1065 -1.6708
10092SOL     OW37136   3.391   6.135   3.084  0.0708 -0.1189 -0.0752
10092SOL    HW137137   3.323   6.183   3.132  1.2045  0.3433  1.1146
10092SOL    HW237138   3.383   6.045   3.113  1.5155  0.3447  2.0086
10093SOL     OW37139  10.385  12.358   8.527 -0.0790  0.3549 -0.3475
10093SOL    HW137140  10.451  12.295   8.557 -0.5228  0.7693  1.6061
10093SOL    HW237141  10.435  12.424   8.479  0.6792 -0.2884 -0.4632
10094SOL     OW37142   4.817   1.167   4.796  0.0124 -0.1861  0.3009
10094SOL    HW137143   4.790   1.149   4.706  0.2551  1.0694 -0.0326
10094SOL    HW237144   4.851   1.083   4.828 -1.7465 -1.1101 -0.1482
10095SOL     OW37145  10.237  10.711  11.470 -0.2433  0.2524 -0.4621
10095SOL    HW137146  10.309  10.657  11.503  1.4322  2.4349 -0.2259
10095SOL    HW237147  10.273  10.753  11.392 -0.8504  2.1732  0.2260
10096SOL     OW37148   4.065   4.670   8.342 -0.0967 -0.0796 -0.0476
10096SOL    HW137149   4.136   4.621   8.382  0.3300  0.3924 -0.2221
10096SOL    HW237150   4.102   4.756   8.324 -1.2599  0.8161  1.6188
10097SOL     OW37151   5.067   7.278  11.562 -0.0757  0.2352  0.1846
10097SOL    HW137152   5.092   7.252  11.473  1.3594  1.1772  0.2760
10097SOL    HW237153   5.003   7.349  11.549 -0.4871 -0.1778 -0.0802
10098SOL     OW37154   1.221   9.614   6.339  0.3780 -0.1990 -0.2998
10098SOL    HW137155   1.230   9.616   6.244 -0.1149 -1.1268 -0.3866
10098SOL    HW237156   1.261   9.695   6.370  1.5868 -0.4300 -1.2073
10099SOL     OW37157   9.729   7.051   8.484 -0.4392  0.1145  0.4186
10099SOL    HW137158   9.757   7.009   8.403 -3.1317 -0.2821 -0.4209
10099SOL    HW237159   9.734   6.981   8.550 -1.4178 -0.5507 -0.1828
10100SOL     OW37160   9.346   5.916   7.280  0.2643  0.1233 -0.3941
10100SOL    HW137161   9.390   5.973   7.218  1.3155  2.0691  1.9705
10100SOL    HW237162   9.382   5.941   7.365  1.0703 -4.3431  0.8410
10101SOL     OW37163   1.824   4.089  11.384 -0.2436  0.2449  0.0886
10101SOL    HW137164   1.772   4.096  11.305  0.3089 -0.3210 -0.3356
10101SOL    HW237165   1.877   4.010  11.372  1.0289  1.0252  0.3006
10102SOL     OW37166  10.502  11.431  11.701 -0.3043 -0.1099  0.3128
10102SOL    HW137167  10.422  11.430  11.753 -0.5201 -0.0896 -0.0115
10102SOL    HW237168  10.532  11.522  11.704 -1.1682  0.2351 -0.8642
10103SOL     OW37169  10.862   2.278   5.887  0.8602 -0.3037 -0.9098
10103SOL    HW137170  10.903   2.231   5.959  0.4972  1.1637  0.2946
10103SOL    HW237171  10.773   2.294   5.916  0.7726  0.5112 -1.5772
10104SOL     OW37172   7.358   3.371   0.435 -0.3298  0.1110  0.5740
10104SOL    HW137173   7.443   3.326   0.437 -0.5369 -0.3597 -0.5868
10104SOL    HW237174   7.299   3.312   0.482 -0.5049 -0.6585 -0.5790
10105SOL     OW37175   4.811   8.673   2.003 -0.3454  0.7554 -0.1755
10105SOL    HW137176   4.791   8.642   1.915 -1.1618 -3.0259  1.1596
10105SOL    HW237177   4.894   8.630   2.025  1.0405  3.4048  0.2287
10106SOL     OW37178   9.865   7.717   8.696  0.3397 -0.0887  0.4526
10106SOL    HW137179   9.864   7.651   8.766  0.5042  0.2226  0.7541
10106SOL    HW237180   9.946   7.766   8.711  2.4719 -2.4114 -2.2282
10107SOL     OW37181   3.691   4.217   8.245  0.1908 -0.3374 -0.2260
10107SOL    HW137182   3.640   4.182   8.318 -0.5853 -1.6321 -1.3344
10107SOL    HW237183   3.637   4.200   8.168  1.2467  0.4596 -1.1788
10108SOL     OW37184   7.726  10.920   9.944  0.6306  0.1218  0.1386
10108SOL    HW137185   7.760  10.900  10.031 -0.2171  0.4144  0.5458
10108SOL    HW237186   7.711  10.834   9.904  0.1130 -0.0362  0.6497
10109SOL     OW37187   1.516   4.520  11.136 -0.5631 -0.1371 -0.1789
10109SOL    HW137188   1.589   4.542  11.078  1.9168 -0.1586  2.7020
10109SOL    HW237189   1.478   4.441  11.098  1.7615 -0.8822 -1.1075
10110SOL     OW37190   5.290   4.355   3.218  0.4139 -0.4155  0.6157
10110SOL    HW137191   5.355   4.325   3.282  0.8027  0.2024  0.5323
10110SOL    HW237192   5.342   4.379   3.141  0.0281 -0.4427  0.3437
10111SOL     OW37193   8.542  11.905   6.665 -0.3565 -0.3998  0.2823
10111SOL    HW137194   8.468  11.901   6.726 -0.1516  0.0068  0.5608
10111SOL    HW237195   8.563  11.998   6.658  0.0549 -0.5014  0.1199
10112SOL     OW37196   2.461   9.217   8.019 -0.3074 -0.8300 -0.5859
10112SOL    HW137197   2.387   9.253   8.068 -0.3556 -0.5203 -0.8787
10112SOL    HW237198   2.528   9.202   8.085  0.0903  0.7767 -0.5764
10113SOL     OW37199  10.760   2.952   3.175  0.2171  0.1006 -0.2153
10113SOL    HW137200  10.734   2.959   3.267  0.9115 -0.0182 -0.0034
10113SOL    HW237201  10.737   2.863   3.150 -0.8682  0.4305 -0.4504
10114SOL     OW37202   1.371  11.167   1.769 -0.1450  0.5460  0.2267
10114SOL    HW137203   1.414  11.146   1.687 -1.4983  1.5778 -0.7950
10114SOL    HW237204   1.426  11.235   1.808  1.7530 -1.5244  1.3513
10115SOL     OW37205  10.067   4.399   8.948  0.1646 -0.0339  0.5153
10115SOL    HW137206  10.048   4.339   8.875  0.0977  0.6536 -0.0506
10115SOL    HW237207   9.992   4.459   8.949 -0.3533 -0.6800  1.8437
10116SOL     OW37208   1.726   5.477   0.976  0.5402 -0.6730 -0.6428
10116SOL    HW137209   1.729   5.500   1.069  0.0655 -1.8124 -0.3263
10116SOL    HW237210   1.786   5.538   0.934  1.1764 -0.4952  0.4904
10117SOL     OW37211   6.059   6.698   7.500  0.2058 -0.6596  0.4349
10117SOL    HW137212   6.105   6.727   7.579  1.3623  0.4226 -0.5928
10117SOL    HW237213   6.129   6.667   7.442 -0.6964 -2.1673  0.1064
10118SOL     OW37214   7.170   1.234   9.514  0.4234  0.4080  0.2789
10118SOL    HW137215   7.245   1.221   9.573  0.1551 -0.5156  0.4421
10118SOL    HW237216   7.162   1.151   9.468 -0.8283  0.2922  0.6581
10119SOL     OW37217   5.370   4.284  12.028  0.1753 -0.0257  0.3191
10119SOL    HW137218   5.301   4.337  12.070  0.0346 -0.4111  0.5751
10119SOL    HW237219   5.337   4.194  12.031 -0.4937  0.0681 -1.8835
10120SOL     OW37220  11.245   7.317   3.761  0.5237 -0.0172 -0.3280
10120SOL    HW137221  11.212   7.232   3.732  1.0095  0.7600 -3.4944
10120SOL    HW237222  11.327   7.329   3.714  3.0229  0.2559  3.6474
10121SOL     OW37223  10.163   5.196   8.903  0.2937  0.6153  0.0683
10121SOL    HW137224  10.231   5.147   8.857  2.0095  3.5601 -0.7875
10121SOL    HW237225  10.166   5.164   8.993  1.2942 -0.7970 -0.4369
10122SOL     OW37226   0.821   8.182   4.340 -0.3255 -0.0789  0.1954
10122SOL    HW137227   0.810   8.268   4.300 -0.5498 -0.8655 -1.5232
10122SOL    HW237228   0.764   8.124   4.290  2.3952 -1.9191 -1.0344
10123SOL     OW37229   6.165   4.399   5.652 -0.0602 -0.3699 -0.0553
10123SOL    HW137230   6.199   4.488   5.660 -0.4274 -0.2426  0.1381
10123SOL    HW237231   6.241   4.342   5.661  0.0246 -0.1124  0.9613
10124SOL     OW37232   3.820   4.151   6.524  0.3089  0.1304 -1.1464
10124SOL    HW137233   3.848   4.096   6.451  1.0609  0.0367 -0.8004
10124SOL    HW237234   3.861   4.236   6.507  0.4385  0.1245 -0.8618
10125SOL     OW37235  12.420   3.090   9.027  0.3333 -0.1035  0.5740
10125SOL    HW137236  12.339   3.141   9.034  0.4010 -0.1331  1.8435
10125SOL    HW237237  12.418   3.032   9.104  0.3405 -1.9256 -0.7403
10126SOL     OW37238   0.631  11.035   9.872 -0.6736 -0.1790  0.5447
10126SOL    HW137239   0.545  11.023   9.831 -0.1662 -0.2219 -0.5496
10126SOL    HW237240   0.616  11.017   9.965 -1.5095 -1.9653  0.1211
10127SOL     OW37241   4.518   9.790   5.784 -0.0702 -0.8442  0.1928
10127SOL    HW137242   4.575   9.772   5.860 -1.6903  0.2031  1.7192
10127SOL    HW237243   4.466   9.710   5.774 -0.7673 -0.5109  1.0479
10128SOL     OW37244   1.051   5.215   5.253  0.6079 -0.0162  0.3838
10128SOL    HW137245   1.126   5.221   5.193  0.7650 -0.9703  0.4781
10128SOL    HW237246   0.994   5.150   5.214 -0.8522  1.6414 -0.3865
10129SOL     OW37247   0.944   8.780   4.735  0.2120 -0.1510 -0.3211
10129SOL    HW137248   0.987   8.751   4.815 -0.5830  1.2924  0.6691
10129SOL    HW237249   0.967   8.713   4.670 -0.7858 -2.5183  1.5808
10130SOL     OW37250   9.470   3.181   8.790  0.2404  0.0511  0.1962
10130SOL    HW137251   9.532   3.134   8.846 -1.1703  0.6708  2.4180
10130SOL    HW237252   9.491   3.273   8.803 -1.1927  0.2786  1.1334
10131SOL     OW37253   2.487  11.185   1.757 -0.1565  0.1437 -0.2106
10131SOL    HW137254   2.503  11.154   1.846  0.4608 -1.5871 -0.8919
10131SOL    HW237255   2.529  11.271   1.754 -0.6394  0.4555  1.3103
10132SOL     OW37256   1.085   6.693   5.551  0.4534  0.0066  0.0691
10132SOL    HW137257   1.076   6.644   5.633  1.4415  1.7193  1.2483
10132SOL    HW237258   1.156   6.649   5.505  0.0419 -0.8364  0.2140
10133SOL     OW37259   6.065   8.948   1.356  0.4072 -0.0626  0.2372
10133SOL    HW137260   5.986   8.931   1.305 -0.4385  0.6739  1.2637
10133SOL    HW237261   6.046   8.913   1.443  0.5778  1.5226  0.9454
10134SOL     OW37262   3.096   0.997   2.442 -0.0074  0.4066 -0.0753
10134SOL    HW137263   3.051   0.935   2.384 -0.8314  0.7030  0.2292
10134SOL    HW237264   3.077   0.965   2.530 -2.3687  2.3212  0.1875
10135SOL     OW37265   3.578   5.982   7.790  0.4676  0.2229  0.2713
10135SOL    HW137266   3.513   5.940   7.847  0.9476  1.2305  1.6034
10135SOL    HW237267   3.527   6.038   7.732  0.0024 -0.4980 -0.0314
10136SOL     OW37268   2.396   5.063   0.482  0.0360  0.3840 -0.1982
10136SOL    HW137269   2.344   4.988   0.454 -1.1151 -0.0753  2.8498
10136SOL    HW237270   2.484   5.044   0.451 -0.6844 -1.0896 -1.4631
10137SOL     OW37271   8.028   1.613   0.747 -0.4984 -0.3211  0.1049
10137SOL    HW137272   7.969   1.600   0.821 -0.7920 -1.5068 -0.3177
10137SOL    HW237273   8.058   1.525   0.724 -0.6858 -0.0130 -1.3994
10138SOL     OW37274   2.466   9.932   9.962 -0.2479  0.7515 -0.1968
10138SOL    HW137275   2.461  10.018   9.920  1.2799  1.2227  0.5174
10138SOL    HW237276   2.376   9.912   9.988 -0.3317  3.1833  1.6629
10139SOL     OW37277   1.626  12.237   1.045 -0.4217  0.2010  0.0083
10139SOL    HW137278   1.532  12.251   1.046 -0.5503 -0.6210  0.0506
10139SOL    HW237279   1.637  12.142   1.043  0.4003  0.2863 -0.3398
10140SOL     OW37280   6.679  10.787   4.152  0.1162  0.3916  0.3838
10140SOL    HW137281   6.724  10.754   4.230  1.2656 -0.5972 -0.6526
10140SOL    HW237282   6.665  10.880   4.170 -1.6885 -0.2480  2.6826
10141SOL     OW37283   6.371   7.077  11.398 -0.7912  0.2052  0.1235
10141SOL    HW137284   6.412   7.022  11.464 -0.5662  0.6389  0.3527
10141SOL    HW237285   6.334   7.016  11.334 -1.0924 -0.2182  0.6950
10142SOL     OW37286  10.824  11.372   9.792 -0.1582  0.1509  0.1919
10142SOL    HW137287  10.865  11.373   9.705  0.0457  1.8062  0.2817
10142SOL    HW237288  10.807  11.464   9.812 -1.8903 -0.3318  1.1380
10143SOL     OW37289  10.910   2.875   4.785  0.5896  0.1608  0.6921
10143SOL    HW137290  10.886   2.961   4.749  0.5609  0.0393  0.4209
10143SOL    HW237291  11.001   2.863   4.759  0.6547  0.1914  0.8968
10144SOL     OW37292   5.208   3.155   7.869 -0.0220  0.3355 -0.0280
10144SOL    HW137293   5.140   3.222   7.877  0.1504  0.3295  2.1168
10144SOL    HW237294   5.264   3.185   7.798 -0.6313  1.8630  0.1121
10145SOL     OW37295   9.582   9.484  10.259 -0.5328  0.6878 -0.1556
10145SOL    HW137296   9.648   9.417  10.245 -1.6537 -0.8241  1.3679
10145SOL    HW237297   9.616   9.538  10.330 -0.4574  0.5727 -0.1059
10146SOL     OW37298   0.422  11.444   7.522  0.3248  0.1562  0.6320
10146SOL    HW137299   0.486  11.505   7.485 -0.8689  0.2514 -1.4259
10146SOL    HW237300   0.394  11.391   7.447 -1.5240 -0.2934  1.5967
10147SOL     OW37301   5.487  10.840   2.142  0.2982  1.4050 -0.0825
10147SOL    HW137302   5.478  10.910   2.078  0.5484  1.0542 -0.5004
10147SOL    HW237303   5.575  10.851   2.178  0.6064  0.8723 -0.6633
10148SOL     OW37304   3.694   0.068   0.774 -0.0556 -0.4597 -0.0213
10148SOL    HW137305   3.752   0.116   0.715 -1.2420  0.9270 -0.1129
10148SOL    HW237306   3.720  -0.024   0.765  1.6586  0.0585 -0.5430
10149SOL     OW37307  11.789   7.328  11.355 -0.4762  0.7410 -0.7740
10149SOL    HW137308  11.752   7.390  11.293 -0.6177  2.2499  0.7494
10149SOL    HW237309  11.836   7.382  11.418 -1.7617 -0.5265  1.4185
10150SOL     OW37310  10.725   4.283   0.026  0.1101 -0.5485  0.1775
10150SOL    HW137311  10.772   4.207   0.062 -0.6079  0.0015  2.4473
10150SOL    HW237312  10.639   4.249   0.003  0.8865 -1.1297 -2.1725
10151SOL     OW37313  11.453   4.233   2.638  0.0442 -0.0503  0.0861
10151SOL    HW137314  11.433   4.231   2.545  0.0913  0.5567  0.0560
10151SOL    HW237315  11.430   4.146   2.670 -2.2115  0.4269 -0.0484
10152SOL     OW37316   8.407  11.177   3.939  0.1927 -0.4847 -0.5584
10152SOL    HW137317   8.415  11.086   3.909  3.3988 -0.2526 -0.6713
10152SOL    HW237318   8.393  11.170   4.033 -2.8988 -1.0514 -0.9323
10153SOL     OW37319  10.515   4.793   8.329  0.1905 -0.4837  0.1769
10153SOL    HW137320  10.563   4.876   8.326  0.9030 -0.9091 -2.9347
10153SOL    HW237321  10.560   4.737   8.266 -3.3358 -1.5096 -1.6539
10154SOL     OW37322   0.112   5.811   2.708  0.1279  0.4410 -0.0791
10154SOL    HW137323   0.067   5.895   2.707  0.7292  0.7654 -0.3193
10154SOL    HW237324   0.066   5.758   2.643  0.1037  0.7704 -0.3306
10155SOL     OW37325  11.720   9.273  10.691  0.1262 -0.0510 -0.3607
10155SOL    HW137326  11.644   9.214  10.691 -0.0252  0.0568  1.8613
10155SOL    HW237327  11.683   9.360  10.677  0.0961 -0.2097 -1.3427
10156SOL     OW37328   4.952   7.940   3.203  0.2673  0.2672  0.0461
10156SOL    HW137329   5.007   7.985   3.267  1.8159 -0.1065 -0.9593
10156SOL    HW237330   4.913   7.868   3.251  1.0601  0.2513  0.6883
10157SOL     OW37331  11.086  12.004   6.531 -0.0546 -0.1854  0.2626
10157SOL    HW137332  11.155  11.956   6.576 -2.0800 -1.8955  1.7095
10157SOL    HW237333  11.039  11.938   6.480 -0.1366  1.0973 -1.4202
10158SOL     OW37334  10.821  12.092   5.935 -0.0824 -0.1713  0.0477
10158SOL    HW137335  10.824  12.061   6.026  0.8752 -1.0027 -0.2560
10158SOL    HW237336  10.912  12.087   5.905 -0.2461  0.9637 -0.6806
10159SOL     OW37337  10.506   8.483  10.429 -0.4946  0.4199 -0.2329
10159SOL    HW137338  10.422   8.439  10.424  0.8138 -2.4208  0.8660
10159SOL    HW237339  10.568   8.421  10.391  1.3983  1.5750  0.8174
10160SOL     OW37340   2.630   0.032   6.491 -0.6571 -0.3601  0.0868
10160SOL    HW137341   2.540   0.018   6.519 -1.4003  0.5185 -1.6846
10160SOL    HW237342   2.673   0.071   6.567 -1.8591 -0.4812  0.8601
10161SOL     OW37343   9.794   5.499   7.523 -0.4952  0.3961  0.1545
10161SOL    HW137344   9.739   5.427   7.495 -0.7202  0.1277  1.2471
10161SOL    HW237345   9.733   5.568   7.549 -0.2834  0.8710 -0.5596
10162SOL     OW37346   4.944   0.461   7.216 -0.1336 -0.0437 -0.0033
10162SOL    HW137347   5.034   0.492   7.220 -0.1365  0.1194 -0.9785
10162SOL    HW237348   4.915   0.460   7.307  1.2701 -1.3746  0.4658
10163SOL     OW37349   5.442   1.336   4.355  0.1792  1.2349 -0.4685
10163SOL    HW137350   5.416   1.407   4.296 -0.3221  0.3590 -1.3169
10163SOL    HW237351   5.509   1.288   4.306  0.8473  1.3642  0.2840
10164SOL     OW37352   2.027   5.416   3.891 -0.1083 -0.2751  0.2082
10164SOL    HW137353   2.110   5.458   3.914  0.0646 -0.8084  0.5768
10164SOL    HW237354   1.971   5.488   3.862  0.9507 -0.0696 -1.4849
10165SOL     OW37355   2.724   3.494   5.131  0.2509 -0.6730 -0.1897
10165SOL    HW137356   2.652   3.506   5.192  0.5541  1.7000 -0.1757
10165SOL    HW237357   2.699   3.420   5.077 -1.3256 -1.0472  1.0068
10166SOL     OW37358   9.283  10.442   9.586  0.3549 -0.9604  0.2426
10166SOL    HW137359   9.223  10.441   9.660  1.4828 -0.7226  1.1853
10166SOL    HW237360   9.254  10.369   9.531 -0.8279 -0.8041  0.6194
10167SOL     OW37361   9.326   2.672   0.878  0.0984  0.7076  0.3498
10167SOL    HW137362   9.235   2.657   0.850 -0.5757 -0.5547  2.9278
10167SOL    HW237363   9.361   2.585   0.893  0.6507  1.2595  2.5204
10168SOL     OW37364   7.320  11.870  11.882 -0.0671  0.1224 -0.3498
10168SOL    HW137365   7.393  11.932  11.880  0.7053 -0.7764 -1.9541
10168SOL    HW237366   7.355  11.791  11.923 -0.1036 -0.3217 -1.1446
10169SOL     OW37367   1.931   6.748   8.552 -0.4793 -0.6737  0.7983
10169SOL    HW137368   1.869   6.788   8.613  0.8484 -0.6890  2.2406
10169SOL    HW237369   1.976   6.822   8.512 -0.6266 -0.6757  0.6298
10170SOL     OW37370  10.568   4.509   1.587  0.2240 -0.2072 -0.1200
10170SOL    HW137371  10.512   4.585   1.604  1.7201  0.3953  2.8463
10170SOL    HW237372  10.657   4.541   1.596  0.9102 -2.3004  1.5492
10171SOL     OW37373   4.301   0.164   8.694 -0.4278  0.2782 -0.2737
10171SOL    HW137374   4.321   0.243   8.745  0.3408  0.5871 -1.0290
10171SOL    HW237375   4.371   0.160   8.628 -1.2556 -0.2570 -1.1333
10172SOL     OW37376   8.699   9.010   9.918  0.6531 -0.0050 -0.7057
10172SOL    HW137377   8.682   8.925   9.878  0.7169 -1.2600  1.7952
10172SOL    HW237378   8.612   9.047   9.933  0.6314  0.7431 -2.3968
10173SOL     OW37379   8.493   9.418  11.287  0.1482  0.1149 -0.6787
10173SOL    HW137380   8.551   9.468  11.345 -0.2543  2.1978 -1.9745
10173SOL    HW237381   8.421   9.390  11.344  0.4212  0.9705  0.1152
10174SOL     OW37382   9.799  11.666   7.027 -1.0905 -0.0934 -0.1725
10174SOL    HW137383   9.713  11.689   7.061 -1.4961 -0.5173 -0.8717
10174SOL    HW237384   9.812  11.724   6.952  0.1151  1.3556  1.0781
10175SOL     OW37385  10.317   8.867   9.845 -0.4862 -0.0000 -0.0398
10175SOL    HW137386  10.340   8.838   9.757 -0.0528 -0.0530  0.0898
10175SOL    HW237387  10.370   8.945   9.859 -2.0926  1.2408 -0.6201
10176SOL     OW37388   7.676   3.639   8.309 -0.1119 -0.3600 -0.4823
10176SOL    HW137389   7.626   3.559   8.294 -0.8941 -0.5149  2.3810
10176SOL    HW237390   7.767   3.610   8.312 -0.4154 -1.2333  0.9158
10177SOL     OW37391  10.382   7.061  11.012  0.2286  0.3230  0.5245
10177SOL    HW137392  10.407   7.146  11.050  0.1681 -0.0193  1.3528
10177SOL    HW237393  10.410   6.997  11.077 -1.6181 -0.1633  0.9096
10178SOL     OW37394   1.438   9.606   5.533 -0.3082 -0.1083  0.2129
10178SOL    HW137395   1.406   9.675   5.591  0.9173 -0.5591  1.4765
10178SOL    HW237396   1.447   9.529   5.589 -1.7403 -1.3811 -1.1779
10179SOL     OW37397   9.013   6.974   0.829 -0.5004 -0.0667 -0.1348
10179SOL    HW137398   8.937   6.991   0.885 -1.0968 -0.3517 -0.8383
10179SOL    HW237399   9.011   6.880   0.814 -0.6240  0.0648 -1.0040
10180SOL     OW37400   3.131   7.202   6.016 -0.1402  0.1297  0.3079
10180SOL    HW137401   3.220   7.173   5.996  0.2245  1.9735 -0.9399
10180SOL    HW237402   3.129   7.210   6.111  0.4706 -1.5534  0.4943
10181SOL     OW37403   6.154   7.578  11.268 -0.9535  0.0890  0.6264
10181SOL    HW137404   6.161   7.487  11.298  0.4063 -0.5292 -1.4251
10181SOL    HW237405   6.111   7.572  11.183 -0.1109  1.2830  0.0946
10182SOL     OW37406   1.037  10.361   9.142 -0.2828  0.1314 -0.0478
10182SOL    HW137407   1.082  10.424   9.085  0.0519  0.4281  0.5345
10182SOL    HW237408   0.947  10.361   9.110  0.2753 -1.1540 -1.8315
10183SOL     OW37409   2.649   7.547  11.356 -0.0024  0.2131 -0.2831
10183SOL    HW137410   2.693   7.472  11.316 -0.2181  0.1147 -0.3334
10183SOL    HW237411   2.718   7.591  11.406 -0.1190 -0.6492  0.6653
10184SOL     OW37412   5.513   1.603   4.670 -0.0202  0.3651  0.4763
10184SOL    HW137413   5.430   1.604   4.623  0.2701 -1.1557 -0.1055
10184SOL    HW237414   5.579   1.621   4.604  0.2850 -0.5331  0.5304
10185SOL     OW37415   7.400   6.248   3.474 -0.4427  0.6325 -0.8141
10185SOL    HW137416   7.337   6.299   3.423 -0.1622  0.6402 -1.1598
10185SOL    HW237417   7.413   6.169   3.422  0.8343  1.2117 -1.4220
10186SOL     OW37418   0.813   3.883   9.307 -0.3996  0.0402  0.2321
10186SOL    HW137419   0.799   3.910   9.398  1.2346 -1.2900  0.9549
10186SOL    HW237420   0.861   3.956   9.267  1.0607 -0.3314  1.1995
10187SOL     OW37421   6.318   6.861  10.744 -0.3339  0.3423 -0.3439
10187SOL    HW137422   6.263   6.825  10.674 -1.4257 -1.6914  1.4273
10187SOL    HW237423   6.406   6.861  10.708 -0.6647 -1.9355 -1.2984
10188SOL     OW37424   6.247   9.715   9.749  0.0716  0.1284  0.0662
10188SOL    HW137425   6.228   9.790   9.805 -2.6822  0.9906 -1.8120
10188SOL    HW237426   6.210   9.738   9.664  2.9210 -1.6480 -1.8304
10189SOL     OW37427   5.005  11.235   7.808 -0.5676  0.1572  0.1241
10189SOL    HW137428   4.967  11.311   7.854 -1.4548 -0.8544  1.1297
10189SOL    HW237429   5.023  11.172   7.878  1.8165  0.0952 -0.4829
10190SOL     OW37430   6.207   8.927   2.774  0.2681 -0.0998 -0.4288
10190SOL    HW137431   6.164   8.936   2.860  2.1315 -0.9574  0.6491
10190SOL    HW237432   6.141   8.956   2.712 -1.1175  0.6823  1.2994
10191SOL     OW37433   7.540   1.663   6.392  0.3506  0.1588 -0.0320
10191SOL    HW137434   7.606   1.729   6.369 -0.2997  1.8221  2.5743
10191SOL    HW237435   7.573   1.623   6.472 -1.9026  1.3063  1.5610
10192SOL     OW37436   7.728  10.566   7.297  0.2369 -0.3298  0.0868
10192SOL    HW137437   7.647  10.616   7.285  0.0823 -0.6575 -0.2315
10192SOL    HW237438   7.728  10.542   7.389  0.2716  0.1842  0.2256
10193SOL     OW37439   9.589  10.307   5.805 -0.2202 -0.2217  0.2622
10193SOL    HW137440   9.651  10.262   5.862  0.3356 -0.3647 -0.4471
10193SOL    HW237441   9.568  10.388   5.851 -2.0786 -1.6428  2.1121
10194SOL     OW37442   5.819   6.036   8.137 -0.5078 -0.5101 -0.4229
10194SOL    HW137443   5.775   6.120   8.150  0.7611  0.1979 -0.5612
10194SOL    HW237444   5.907   6.048   8.173 -0.8852 -2.4010  1.3164
10195SOL     OW37445   7.515   8.561   1.049  0.3444  0.0488  0.2141
10195SOL    HW137446   7.506   8.577   1.143  1.5420  2.6866 -0.0395
10195SOL    HW237447   7.442   8.608   1.010  1.1171  0.8805 -0.2726
10196SOL     OW37448   2.563   3.129  12.208 -0.3725  0.1943 -0.3003
10196SOL    HW137449   2.655   3.104  12.200 -0.1639  0.0709  1.8920
10196SOL    HW237450   2.532   3.083  12.286 -2.3643  0.1080 -1.0633
10197SOL     OW37451   6.927   3.281   8.136 -0.3129  0.1511  0.9904
10197SOL    HW137452   6.884   3.289   8.051 -1.6266 -1.4239  1.4599
10197SOL    HW237453   7.016   3.251   8.115 -0.7805 -0.7025  0.1928
10198SOL     OW37454  10.659   9.565   5.188 -0.0320  0.4751 -0.1209
10198SOL    HW137455  10.630   9.620   5.261  0.4051  1.4299 -0.6481
10198SOL    HW237456  10.745   9.532   5.215  1.0230  2.3547 -0.9222
10199SOL     OW37457   8.496  10.664   3.918  0.1355  0.1048 -0.1313
10199SOL    HW137458   8.548  10.609   3.976  1.2014  0.9302 -0.2603
10199SOL    HW237459   8.551  10.676   3.840 -1.0785 -0.6040 -1.1214
10200SOL     OW37460  10.019   8.936   4.095 -0.3224 -0.5707 -0.2199
10200SOL    HW137461  10.108   8.904   4.110  0.4530 -0.3123 -3.6152
10200SOL    HW237462  10.029   9.015   4.042 -2.5427  0.6277  0.9706
10201SOL     OW37463   3.899   1.593   2.066 -0.5002 -0.1982 -0.1184
10201SOL    HW137464   3.812   1.566   2.097 -0.0157 -0.8515  0.7286
10201SOL    HW237465   3.944   1.622   2.146  0.2718 -0.4592 -0.4569
10202SOL     OW37466   7.569   6.384   7.452 -0.1248 -0.0724 -0.0146
10202SOL    HW137467   7.650   6.419   7.414 -0.0483 -0.4636 -0.2192
10202SOL    HW237468   7.499   6.422   7.399 -0.1939  1.5902  1.1786
10203SOL     OW37469   1.930  10.149  11.628  0.5430  0.5538  0.0176
10203SOL    HW137470   1.855  10.104  11.589  0.4511  1.7821 -1.2908
10203SOL    HW237471   1.906  10.160  11.720 -0.3704 -0.1098 -0.1312
10204SOL     OW37472   9.367   4.868   7.267 -0.1465 -0.2987  0.2995
10204SOL    HW137473   9.309   4.811   7.216 -0.1903 -0.2376  0.2813
10204SOL    HW237474   9.347   4.956   7.236  0.7962 -0.3678 -0.5653
10205SOL     OW37475   5.638  10.752   7.837 -0.0269  0.0439 -0.6415
10205SOL    HW137476   5.593  10.804   7.771  0.4407  1.5529  0.1752
10205SOL    HW237477   5.729  10.780   7.833  0.6745 -2.1088 -1.4475
10206SOL     OW37478   9.882  12.124   8.834 -0.1341  0.2032  0.2084
10206SOL    HW137479   9.884  12.054   8.900 -2.0049 -0.5787 -0.4895
10206SOL    HW237480   9.938  12.192   8.869  1.3338 -1.4144  1.1864
10207SOL     OW37481  12.053  12.093   6.738  0.7798  0.4961 -0.2744
10207SOL    HW137482  11.979  12.035   6.753  1.7421 -1.1957 -1.8143
10207SOL    HW237483  12.017  12.167   6.689 -0.3178  0.9515  1.1389
10208SOL     OW37484   3.293   5.886   7.571 -0.1635  0.0339  0.1468
10208SOL    HW137485   3.228   5.837   7.622  1.2140 -1.4152  0.5753
10208SOL    HW237486   3.315   5.961   7.626 -0.0257 -0.5374  0.8821
10209SOL     OW37487   5.303   2.706   3.748  0.7600 -0.0136 -0.0633
10209SOL    HW137488   5.276   2.640   3.684  2.3589 -0.7398 -0.0569
10209SOL    HW237489   5.381   2.668   3.789  0.7299  1.1633  1.1526
10210SOL     OW37490   7.037   0.006   9.226 -0.3851 -0.2806 -0.1937
10210SOL    HW137491   6.950   0.021   9.262 -0.5330  0.9303 -0.9916
10210SOL    HW237492   7.085   0.086   9.246  0.5108 -0.8724  0.1000
10211SOL     OW37493   0.893   9.963   9.526 -0.0690  0.3353  0.0551
10211SOL    HW137494   0.818  10.021   9.540 -0.0923  0.3239 -0.0220
10211SOL    HW237495   0.861   9.898   9.463 -0.2722 -0.1886  0.6889
10212SOL     OW37496   2.629   0.273  10.205  0.2495 -0.2191  0.0101
10212SOL    HW137497   2.551   0.328  10.212  1.2156  1.0399  1.1469
10212SOL    HW237498   2.603   0.203  10.144 -1.5669  0.4888 -0.0803
10213SOL     OW37499   1.029   8.183  10.797  0.4246 -0.2474  0.6794
10213SOL    HW137500   0.957   8.225  10.748  0.4062 -1.0693 -0.0241
10213SOL    HW237501   1.001   8.189  10.888 -1.0164 -1.3810  0.3548
10214SOL     OW37502  10.588  11.866   4.239  0.1592  0.3401 -0.0624
10214SOL    HW137503  10.494  11.867   4.255  0.0674  1.2589 -0.5707
10214SOL    HW237504  10.617  11.955   4.260  1.3096 -0.4883  2.2089
10215SOL     OW37505   4.436   7.185   7.389  0.8370 -0.1851  0.2882
10215SOL    HW137506   4.488   7.212   7.464 -0.6287  0.9700  0.9462
10215SOL    HW237507   4.431   7.263   7.334  2.3582 -1.1647 -1.3591
10216SOL     OW37508   3.607  12.056   7.281  0.4984 -0.2738  0.9450
10216SOL    HW137509   3.702  12.060   7.273  0.4955  1.5393  1.3249
10216SOL    HW237510   3.591  12.015   7.366  0.9604 -0.1077  1.1150
10217SOL     OW37511  11.153   0.361  10.216 -0.0776 -0.5568  0.6063
10217SOL    HW137512  11.190   0.274  10.226  0.8378 -0.5129 -1.7922
10217SOL    HW237513  11.215   0.419  10.260 -0.3114 -1.0104  1.5672
10218SOL     OW37514   2.093   4.905   5.303  0.0589 -0.2280 -0.3482
10218SOL    HW137515   2.189   4.903   5.304  0.0882  0.2348 -1.4669
10218SOL    HW237516   2.067   4.813   5.308  0.5091 -0.3037  1.5392
10219SOL     OW37517   5.852   2.101   0.833  0.0841 -0.8467  0.4725
10219SOL    HW137518   5.779   2.146   0.876 -0.4853 -1.5720  0.2792
10219SOL    HW237519   5.812   2.059   0.757  0.5946 -1.7527  0.7030
10220SOL     OW37520   1.222   6.256   9.405 -0.2071  0.4554 -0.2043
10220SOL    HW137521   1.156   6.190   9.425 -0.1045  0.1486 -0.8721
10220SOL    HW237522   1.230   6.255   9.310  1.0863  0.1568 -0.1236
10221SOL     OW37523   8.379   8.173   0.760 -0.7665  0.2691  0.4344
10221SOL    HW137524   8.436   8.213   0.825  0.7030  1.2678 -1.3503
10221SOL    HW237525   8.343   8.248   0.711 -2.9061 -0.3921  0.9363
10222SOL     OW37526   7.643   6.358   7.961 -0.0770  0.2608  0.5120
10222SOL    HW137527   7.661   6.290   7.896 -0.9913 -0.2725  0.7983
10222SOL    HW237528   7.687   6.326   8.040  0.0086  0.3085  0.4836
10223SOL     OW37529   0.791   6.702   9.949 -0.3038  0.0953 -0.2417
10223SOL    HW137530   0.860   6.705   9.882  1.4039 -2.4438  1.2268
10223SOL    HW237531   0.750   6.788   9.945  1.6525  1.0367 -2.5359
10224SOL     OW37532   9.493   6.993   2.535 -0.5559 -0.3125  0.1208
10224SOL    HW137533   9.505   6.997   2.440  0.0521  1.6794  0.2406
10224SOL    HW237534   9.442   6.912   2.549 -0.3516 -0.8413 -1.8395
10225SOL     OW37535   2.866   5.450   8.892  0.1326  0.2545  0.3166
10225SOL    HW137536   2.848   5.419   8.803  4.5674  2.7566 -1.7993
10225SOL    HW237537   2.876   5.370   8.944 -1.1611 -1.3496 -1.7301
10226SOL     OW37538  11.462  11.432   3.462 -0.2584 -0.7210 -0.5718
10226SOL    HW137539  11.385  11.471   3.423 -0.2035  0.4900  0.4518
10226SOL    HW237540  11.514  11.400   3.388 -0.2200  1.3294 -1.5043
10227SOL     OW37541   3.652   2.416   1.331 -0.1601  0.0448 -0.1294
10227SOL    HW137542   3.748   2.412   1.329 -0.1467 -2.9430  1.0943
10227SOL    HW237543   3.630   2.447   1.418 -0.2465 -1.3362  0.3675
10228SOL     OW37544  12.178  10.101   6.102  0.3185 -0.3617  0.2758
10228SOL    HW137545  12.113  10.052   6.052  0.2082 -0.9153  0.9461
10228SOL    HW237546  12.209  10.169   6.042 -1.0897  0.0990  0.0504
10229SOL     OW37547   2.936   0.686   9.026  0.0213 -0.1292 -0.3857
10229SOL    HW137548   2.841   0.672   9.036 -0.0495  1.4013  1.6497
10229SOL    HW237549   2.976   0.620   9.082  0.1681 -0.6278 -1.0686
10230SOL     OW37550  10.666  11.007   8.034  0.6527  0.1966 -0.1623
10230SOL    HW137551  10.629  11.094   8.050  0.3586 -0.0236  0.3634
10230SOL    HW237552  10.633  10.953   8.106 -0.4436 -0.7387 -1.3175
10231SOL     OW37553   9.079   8.247   4.715 -0.0530 -0.6490 -0.3705
10231SOL    HW137554   9.114   8.294   4.791  2.7170 -0.6668 -1.5022
10231SOL    HW237555   9.094   8.307   4.642  2.1977 -2.5762 -1.6167
10232SOL     OW37556   9.187   4.096   4.402  0.0357 -0.3978 -0.1831
10232SOL    HW137557   9.182   4.053   4.487 -0.9688  2.4089  1.2745
10232SOL    HW237558   9.098   4.089   4.367  0.2669 -0.8826 -0.7001
10233SOL     OW37559   0.533   9.430   2.483  0.6358 -0.1119 -0.1298
10233SOL    HW137560   0.526   9.342   2.520 -1.4204  0.3977  0.8304
10233SOL    HW237561   0.578   9.481   2.551 -1.0784  0.2902  0.7490
10234SOL     OW37562   9.532   5.239   0.346  0.7764 -0.0422  0.2807
10234SOL    HW137563   9.583   5.198   0.416  1.8595  1.1869  0.2618
10234SOL    HW237564   9.541   5.333   0.363 -1.4057  0.2274  0.1937
10235SOL     OW37565   5.223   9.627   7.109  0.3374  0.4605 -0.3734
10235SOL    HW137566   5.158   9.691   7.140  0.5322  1.1837 -1.4137
10235SOL    HW237567   5.229   9.643   7.015  0.9696 -0.5788 -0.5177
10236SOL     OW37568  11.055   0.162   8.747 -0.0863  0.3640  0.1613
10236SOL    HW137569  11.108   0.222   8.695 -1.6355  1.0786 -0.6355
10236SOL    HW237570  11.047   0.083   8.693 -2.4080  1.4146 -1.1694
10237SOL     OW37571   4.024  11.340   5.253  0.0830  0.3481  0.4022
10237SOL    HW137572   4.071  11.415   5.216 -0.4601 -0.2190 -1.5162
10237SOL    HW237573   3.940  11.377   5.282 -0.1221  0.5078 -0.3901
10238SOL     OW37574   9.754   4.524   7.458  0.6400 -0.1024  0.3247
10238SOL    HW137575   9.791   4.449   7.411  0.2213 -0.2626  0.2469
10238SOL    HW237576   9.823   4.550   7.519  0.8845 -0.3904  0.1765
10239SOL     OW37577   4.986   4.321  10.455 -0.1583  0.2090  0.3292
10239SOL    HW137578   4.895   4.291  10.452  0.5409 -2.0514 -0.4021
10239SOL    HW237579   5.032   4.255  10.507  1.1394  1.1370  0.4292
10240SOL     OW37580   7.812   8.782   9.421 -0.2660 -0.6675  0.7061
10240SOL    HW137581   7.816   8.730   9.500  0.2022 -1.5652  0.1082
10240SOL    HW237582   7.722   8.771   9.390  0.2496 -2.4870 -0.2855
10241SOL     OW37583   2.354   5.004  11.614  0.0252 -1.0573 -0.2467
10241SOL    HW137584   2.348   5.085  11.563 -1.1944 -1.5949 -1.0015
10241SOL    HW237585   2.377   5.033  11.702  0.4253  0.0366 -0.6960
10242SOL     OW37586   4.733   8.615  10.264 -0.3216 -0.4473  0.3976
10242SOL    HW137587   4.726   8.540  10.205  2.6655 -0.2831 -0.3510
10242SOL    HW237588   4.803   8.590  10.325  1.5461  2.0353 -0.5438
10243SOL     OW37589  11.291   9.376   1.411  0.1018  0.1459 -0.1705
10243SOL    HW137590  11.230   9.434   1.455  0.0642 -0.2980  0.3676
10243SOL    HW237591  11.364   9.433   1.384 -0.0775  0.4918  0.0792
10244SOL     OW37592  11.416   8.549   9.050 -0.4904 -0.0201  0.9222
10244SOL    HW137593  11.331   8.557   9.093 -0.9035 -0.8694  0.2949
10244SOL    HW237594  11.472   8.612   9.096 -1.0816 -0.4277  2.2740
10245SOL     OW37595   2.492   4.442   9.726 -0.0996  0.2259  0.2552
10245SOL    HW137596   2.585   4.445   9.706 -0.0639  2.2787  0.5272
10245SOL    HW237597   2.485   4.485   9.812 -1.2749 -0.1170  0.3476
10246SOL     OW37598   1.344  11.027  10.156  0.1517  0.6531  0.0583
10246SOL    HW137599   1.291  11.066  10.226 -0.7944  0.0682 -0.3080
10246SOL    HW237600   1.432  11.021  10.193 -0.3107  0.4363  1.1762
10247SOL     OW37601   2.239   8.310   8.737  0.1511  0.1348 -0.0678
10247SOL    HW137602   2.288   8.391   8.731 -1.6768  1.2876 -0.2896
10247SOL    HW237603   2.218   8.287   8.646 -2.7350  1.6942  0.0693
10248SOL     OW37604   0.303   9.039   6.469 -0.2555 -0.2366 -0.0076
10248SOL    HW137605   0.249   8.962   6.447  1.7824 -1.2279 -1.9018
10248SOL    HW237606   0.248   9.114   6.447 -2.2726 -1.0873  1.8013
10249SOL     OW37607  10.564   8.106   1.987 -0.0674  0.0322 -0.3444
10249SOL    HW137608  10.651   8.119   1.951 -0.3012  3.4940 -0.0450
10249SOL    HW237609  10.508   8.091   1.911  0.5239 -0.3563 -0.7061
10250SOL     OW37610  12.135   2.261   0.921  0.1926 -0.5745 -0.5451
10250SOL    HW137611  12.093   2.298   0.844 -1.3289  2.1028  1.3871
10250SOL    HW237612  12.221   2.302   0.923 -1.1956  2.6855  1.1507
10251SOL     OW37613   5.841   4.407   1.456  0.5144 -0.5330 -0.1618
10251SOL    HW137614   5.757   4.440   1.424  0.1876 -0.2276  0.9746
10251SOL    HW237615   5.860   4.332   1.400 -1.5524 -1.9178  0.8651
10252SOL     OW37616   6.058   6.819   8.352 -0.2490  0.0952  0.0382
10252SOL    HW137617   6.052   6.833   8.447 -1.6253  1.1704 -0.1815
10252SOL    HW237618   6.105   6.896   8.320 -0.0899 -0.0972 -0.1830
10253SOL     OW37619   4.776   6.845   6.791  0.3752 -0.4136 -0.2768
10253SOL    HW137620   4.731   6.880   6.868  1.7632  1.4623 -0.2628
10253SOL    HW237621   4.847   6.906   6.775  1.5203 -2.0276 -1.6947
10254SOL     OW37622  10.271  11.232   6.528 -0.3595 -0.4103 -0.2429
10254SOL    HW137623  10.287  11.323   6.502 -1.7127  0.5897  2.1363
10254SOL    HW237624  10.225  11.193   6.453  0.0611  0.9112 -1.2142
10255SOL     OW37625  11.242   1.161   9.677 -0.1924  0.2298  0.5539
10255SOL    HW137626  11.204   1.185   9.762  0.4712 -1.0027  1.2329
10255SOL    HW237627  11.235   1.065   9.674  2.5379 -0.0403  0.5971
10256SOL     OW37628   5.405   9.952   6.179 -0.6294 -0.3981  0.1034
10256SOL    HW137629   5.319   9.994   6.175  0.6678  2.4286 -1.9408
10256SOL    HW237630   5.437   9.954   6.088  2.7563  1.5595  1.1212
10257SOL     OW37631   9.915   6.876   9.941 -0.5011 -0.5658 -1.1077
10257SOL    HW137632   9.874   6.791   9.958 -1.5809 -0.1380 -1.5060
10257SOL    HW237633   9.918   6.882   9.846 -0.5937 -0.0799 -1.0805
10258SOL     OW37634   1.623   1.249   2.777  0.0652  0.2214 -0.1079
10258SOL    HW137635   1.673   1.253   2.696  0.9124 -0.3284  0.3729
10258SOL    HW237636   1.556   1.183   2.760  0.0895  0.2760 -0.4309
10259SOL     OW37637  10.089   7.651   7.986 -0.2487  1.0178  0.1511
10259SOL    HW137638  10.177   7.614   7.998 -0.5297  0.6992  1.3738
10259SOL    HW237639  10.081   7.716   8.056 -1.3694  0.2891  0.7357
10260SOL     OW37640   9.672  11.592  11.639 -0.4830 -0.2367  0.6547
10260SOL    HW137641   9.590  11.627  11.673  0.1785  0.4791  1.5646
10260SOL    HW237642   9.710  11.544  11.712 -1.2273 -2.7082 -0.4788
10261SOL     OW37643  11.116   1.897  12.269 -0.7488 -0.0816  0.1798
10261SOL    HW137644  11.109   1.824  12.331  1.4111  0.4296  1.1216
10261SOL    HW237645  11.115   1.975  12.324 -0.0542  0.4438 -0.5437
10262SOL     OW37646   3.714  10.321   2.176  0.6201  0.0624  0.0184
10262SOL    HW137647   3.763  10.240   2.189  1.4222  0.3719 -0.9728
10262SOL    HW237648   3.637  10.295   2.126  0.5713 -0.1701  0.2086
10263SOL     OW37649  11.208   5.746   4.934 -0.4100  0.3490 -0.2562
10263SOL    HW137650  11.227   5.778   4.846 -2.1407 -0.1973 -0.8587
10263SOL    HW237651  11.280   5.685   4.954  1.0067  1.8593 -0.4974
10264SOL     OW37652   9.331   8.777   0.124 -0.3563 -0.6524 -0.3095
10264SOL    HW137653   9.341   8.790   0.218  0.0176 -1.6549 -0.2036
10264SOL    HW237654   9.262   8.711   0.115 -0.8179 -0.1262 -0.7698
10265SOL     OW37655   0.681   0.000   2.627 -0.2223 -0.2604 -0.2033
10265SOL    HW137656   0.729  -0.057   2.567 -0.5309 -0.8496  0.1037
10265SOL    HW237657   0.730   0.082   2.627 -0.2626 -0.2258 -1.3203
10266SOL     OW37658  10.892  11.967  10.330 -0.0830  0.4479 -0.1835
10266SOL    HW137659  10.881  11.982  10.424 -0.9773 -0.6895 -0.0808
10266SOL    HW237660  10.934  11.881  10.324 -2.8903 -0.9873 -0.8272
10267SOL     OW37661   2.645   4.808   5.662  0.0049 -0.4056 -0.1935
10267SOL    HW137662   2.719   4.750   5.678  0.0064 -0.4524 -0.3696
10267SOL    HW237663   2.573   4.769   5.713 -0.2635 -1.1398 -1.1172
10268SOL     OW37664   5.736   3.345  11.536 -0.3518  0.6487 -0.1413
10268SOL    HW137665   5.647   3.348  11.499 -1.2808  1.5716  2.0140
10268SOL    HW237666   5.790   3.311  11.464 -2.5424 -0.6124 -1.3139
10269SOL     OW37667   2.987   8.863   1.856  0.3374  0.1638  0.5241
10269SOL    HW137668   3.047   8.809   1.907  1.1087  1.1701  0.7218
10269SOL    HW237669   2.953   8.927   1.918  1.0746  1.2300 -0.1338
10270SOL     OW37670   0.993   0.054   2.606  0.0601  0.5829  0.0510
10270SOL    HW137671   0.940  -0.010   2.558  0.8972 -0.3793  0.3837
10270SOL    HW237672   1.070   0.068   2.551 -0.9892  2.8157 -0.9674
10271SOL     OW37673   9.980   9.249   3.368  0.8006 -0.1159 -0.1374
10271SOL    HW137674   9.954   9.340   3.355 -0.4109 -0.5475 -0.8841
10271SOL    HW237675   9.983   9.212   3.279 -1.1213 -1.4180  0.2716
10272SOL     OW37676   0.277   1.567   1.269  0.2107  0.2888 -0.2810
10272SOL    HW137677   0.273   1.515   1.189 -1.2503 -1.7776  1.0228
10272SOL    HW237678   0.193   1.613   1.272  1.3872  2.6861 -1.2892
10273SOL     OW37679   6.962  10.379  11.982  0.1340 -0.2362 -0.1349
10273SOL    HW137680   6.976  10.410  11.893 -1.2954  0.2902 -0.2062
10273SOL    HW237681   7.042  10.330  12.003  0.2948 -0.8009 -1.8806
10274SOL     OW37682   2.941   8.078  10.611  0.5538 -0.6070  0.0377
10274SOL    HW137683   2.948   8.134  10.689  1.5417 -0.4577 -0.1449
10274SOL    HW237684   2.931   7.989  10.646  2.6325 -0.7503  0.3843
10275SOL     OW37685   4.774   2.298   4.520 -0.2815 -0.2298  0.5198
10275SOL    HW137686   4.695   2.269   4.565 -0.3493 -0.4314  0.2711
10275SOL    HW237687   4.764   2.393   4.514 -0.5874 -0.2707  0.3405
10276SOL     OW37688  11.001   5.388   3.873 -0.2867  0.0903 -0.0521
10276SOL    HW137689  10.922   5.345   3.841 -0.8853 -0.5757  2.1094
10276SOL    HW237690  11.069   5.321   3.868 -0.0146  0.4242 -1.1733
10277SOL     OW37691   0.512   4.986   1.462 -0.3777 -0.1132  0.6502
10277SOL    HW137692   0.599   5.000   1.425 -0.6334  1.2591  0.5446
10277SOL    HW237693   0.522   5.006   1.555 -0.4257 -0.6653  0.7799
10278SOL     OW37694   8.941   1.156   0.704 -0.1443 -0.0809  0.2439
10278SOL    HW137695   8.932   1.101   0.783 -3.5513  2.4436  1.8719
10278SOL    HW237696   8.996   1.229   0.733 -1.0519  0.6335  0.2064
10279SOL     OW37697  10.187  11.683  12.177  0.2438  0.1538  0.1085
10279SOL    HW137698  10.174  11.753  12.113 -0.1448 -1.4389 -1.6512
10279SOL    HW237699  10.122  11.618  12.154  1.1055 -1.1289  1.1882
10280SOL     OW37700   5.383   5.942   1.301 -0.6076 -0.3516 -0.4450
10280SOL    HW137701   5.478   5.945   1.287 -0.8821  0.0746 -2.6187
10280SOL    HW237702   5.371   5.877   1.370  1.2228 -0.9461 -0.6241
10281SOL     OW37703   2.209  12.031  10.570 -0.1427  0.8471  0.4826
10281SOL    HW137704   2.160  11.973  10.511 -1.5416  2.1007  0.3565
10281SOL    HW237705   2.168  12.117  10.559  1.0413  1.5963  1.6241
10282SOL     OW37706  11.386   9.818  10.426 -0.3186 -0.3280 -0.1512
10282SOL    HW137707  11.297   9.818  10.463 -0.3427  0.6050 -0.1815
10282SOL    HW237708  11.379   9.763  10.348 -0.6564 -0.9801  0.3251
10283SOL     OW37709   5.094   3.993   7.457  0.7055 -0.0354 -0.2035
10283SOL    HW137710   5.139   3.987   7.541  0.9579  0.1929 -0.3193
10283SOL    HW237711   5.005   4.020   7.479  1.3825  2.4549 -0.1387
10284SOL     OW37712   5.761   3.612  10.518  0.1506 -0.0862 -0.3719
10284SOL    HW137713   5.710   3.621  10.438 -0.9317 -2.1926  0.0058
10284SOL    HW237714   5.699   3.628  10.589  0.8658  0.7892  0.0766
10285SOL     OW37715   8.009   7.835  11.964 -0.4642  0.0568  0.1936
10285SOL    HW137716   8.070   7.786  11.909  0.3765 -0.0746  1.2030
10285SOL    HW237717   7.926   7.790  11.953 -0.4132  0.2601 -1.2435
10286SOL     OW37718   2.833  10.374   8.531  0.8439 -0.2920 -0.3115
10286SOL    HW137719   2.773  10.323   8.477  0.1087  0.7963 -0.5416
10286SOL    HW237720   2.778  10.437   8.577  1.4888 -0.9867  1.5249
10287SOL     OW37721   9.635   8.729   1.524 -0.0847 -0.5040  0.0609
10287SOL    HW137722   9.648   8.672   1.599  0.1354 -2.1126 -1.1597
10287SOL    HW237723   9.545   8.762   1.534 -1.5020 -3.7097 -0.8662
10288SOL     OW37724   6.426   8.664   7.274 -0.3293  0.7013  0.1100
10288SOL    HW137725   6.469   8.669   7.188  0.5080 -0.1294  0.4609
10288SOL    HW237726   6.398   8.573   7.281 -0.6324  0.8326  0.6091
10289SOL     OW37727  10.497  10.754   1.612 -0.3168 -0.2730  0.3053
10289SOL    HW137728  10.516  10.810   1.687 -1.1593  1.7958 -0.9438
10289SOL    HW237729  10.404  10.768   1.595 -0.2881 -1.2258 -0.7299
10290SOL     OW37730   1.257   4.104   9.115  0.1957  0.0896  0.3541
10290SOL    HW137731   1.315   4.080   9.187 -0.5407 -1.4881  0.4592
10290SOL    HW237732   1.303   4.072   9.037 -1.9425 -4.4690  0.6633
10291SOL     OW37733  11.547   7.810   6.719  0.0984  0.0011 -0.3006
10291SOL    HW137734  11.553   7.865   6.797  1.5613  1.4266 -1.3761
10291SOL    HW237735  11.527   7.870   6.648 -2.6697 -1.4533 -0.8967
10292SOL     OW37736   3.067   8.542   7.218 -0.1413 -0.1333  0.0047
10292SOL    HW137737   3.064   8.616   7.157  0.5612 -0.8286 -0.9002
10292SOL    HW237738   3.154   8.545   7.256  0.0448 -0.7140 -0.3491
10293SOL     OW37739   1.324   6.218   0.588 -0.0702  0.5674  0.9934
10293SOL    HW137740   1.413   6.253   0.582  0.1190  0.4478  2.6069
10293SOL    HW237741   1.285   6.238   0.503  1.9065 -0.5884 -0.2680
10294SOL     OW37742   8.229   6.447  12.199 -0.1291  0.1877 -0.3077
10294SOL    HW137743   8.276   6.511  12.252  0.5918  0.3012 -1.0551
10294SOL    HW237744   8.137   6.473  12.204  0.0439  0.7109  0.1628
10295SOL     OW37745   6.829   0.013   6.550 -0.1026 -0.1874 -0.2881
10295SOL    HW137746   6.888   0.069   6.601 -0.2871 -0.2357 -0.0223
10295SOL    HW237747   6.762  -0.015   6.612 -0.7081  0.2886 -0.7023
10296SOL     OW37748   9.731   9.538   5.593  0.5844 -0.4295  1.1350
10296SOL    HW137749   9.727   9.443   5.584 -0.8728 -0.5092  2.1765
10296SOL    HW237750   9.815   9.556   5.636  1.1126 -1.1874  0.4310
10297SOL     OW37751   1.859   9.714  11.290  0.2469 -0.0859 -0.2471
10297SOL    HW137752   1.933   9.655  11.280 -0.1509 -0.8311  1.0252
10297SOL    HW237753   1.896   9.792  11.333  0.5662  0.1819 -0.9855
10298SOL     OW37754   6.655   3.919   8.012  0.2069  0.6115  1.1080
10298SOL    HW137755   6.627   3.902   7.922  0.4614  0.2405  1.0968
10298SOL    HW237756   6.636   3.837   8.058 -0.5959  1.0435  1.5610
10299SOL     OW37757   8.564   3.443  10.746  0.1574  0.1369 -0.1115
10299SOL    HW137758   8.554   3.352  10.772  1.5060  0.0503  0.1914
10299SOL    HW237759   8.504   3.491  10.803  0.3851 -0.4360  0.6252
10300SOL     OW37760  11.928   1.980   7.835 -0.3678 -0.1939  0.0231
10300SOL    HW137761  11.851   1.924   7.825  0.5449 -1.7286  1.1278
10300SOL    HW237762  11.979   1.964   7.756 -0.3637 -0.5370  0.0918
10301SOL     OW37763   4.239   5.697   5.879  0.5727 -0.0455 -0.0480
10301SOL    HW137764   4.183   5.768   5.847 -1.2748 -1.1593  0.5115
10301SOL    HW237765   4.254   5.717   5.971 -0.4678 -0.6460  0.2719
10302SOL     OW37766  10.477  11.795   0.702  0.1938  0.2239  0.1127
10302SOL    HW137767  10.407  11.804   0.637  0.8704 -2.3196 -1.0782
10302SOL    HW237768  10.524  11.878   0.699  0.4580  0.0559 -3.0213
10303SOL     OW37769   8.873   4.210   9.176 -0.4162 -0.3213  0.2889
10303SOL    HW137770   8.799   4.223   9.235 -1.1085 -2.2345 -0.0821
10303SOL    HW237771   8.950   4.219   9.232 -0.8833  1.7244  0.6797
10304SOL     OW37772   6.804  10.208   1.387  0.2885  0.0565 -0.6495
10304SOL    HW137773   6.809  10.264   1.465  1.6038  0.6584 -1.1237
10304SOL    HW237774   6.836  10.264   1.316  2.1480 -1.4143 -1.0456
10305SOL     OW37775   7.627   9.729   0.731 -0.7412 -0.1207 -0.0417
10305SOL    HW137776   7.562   9.725   0.801  1.4886 -0.6163  2.1185
10305SOL    HW237777   7.648   9.638   0.711 -0.5413  0.0322 -0.5529
10306SOL     OW37778  10.891   5.364  10.305  0.2391 -0.2173  0.3810
10306SOL    HW137779  10.908   5.421  10.230 -0.1974 -0.1913  0.2995
10306SOL    HW237780  10.805   5.392  10.337 -0.2268 -1.1974  0.0024
10307SOL     OW37781   3.364   9.591   3.431  0.0757 -0.4307  0.5792
10307SOL    HW137782   3.399   9.547   3.508 -0.3244 -0.0809  0.9638
10307SOL    HW237783   3.384   9.684   3.445 -1.1500 -0.2054  0.8887
10308SOL     OW37784   1.122   1.476   1.882 -0.5318 -0.6818 -0.2205
10308SOL    HW137785   1.146   1.502   1.971  0.3438 -0.5265 -0.4888
10308SOL    HW237786   1.148   1.384   1.877 -0.6374 -0.7075 -0.2963
10309SOL     OW37787   7.600   6.831  10.226 -0.2228  0.1129 -0.8496
10309SOL    HW137788   7.621   6.896  10.293  2.6720  0.8908 -2.3093
10309SOL    HW237789   7.532   6.776  10.265 -1.9527  3.2421  0.9013
10310SOL     OW37790   1.164   4.806   7.589  0.3543 -0.0840 -0.4275
10310SOL    HW137791   1.206   4.842   7.667  1.4279  0.2265 -1.1373
10310SOL    HW237792   1.233   4.803   7.523 -0.8905  1.1589 -1.8572
10311SOL     OW37793   0.765   9.476  11.732 -0.0403  0.4231  0.4784
10311SOL    HW137794   0.806   9.389  11.735  0.3942  0.5875 -0.3021
10311SOL    HW237795   0.673   9.460  11.751  0.1761 -0.1010  1.1480
10312SOL     OW37796   3.095   3.335   9.231 -0.0401  0.0428 -0.2230
10312SOL    HW137797   3.090   3.421   9.188 -0.2845  0.0567 -0.1706
10312SOL    HW237798   3.059   3.351   9.318  0.4009  0.0024 -0.0315
10313SOL     OW37799   8.823  12.410   6.001 -0.1499 -0.2050  0.4305
10313SOL    HW137800   8.870  12.483   6.042  1.6578 -0.2063 -1.5150
10313SOL    HW237801   8.886  12.338   6.000 -0.3199 -0.3756 -1.7620
10314SOL     OW37802  12.101   8.198   3.952 -0.0525  0.6855  0.3025
10314SOL    HW137803  12.042   8.272   3.943 -0.8504  0.0884  0.5089
10314SOL    HW237804  12.099   8.176   4.045 -0.9182 -0.4487  0.0431
10315SOL     OW37805  10.982   0.962  11.417  0.6139  0.4028  0.1231
10315SOL    HW137806  11.033   0.881  11.426  0.0734 -0.1449 -1.3726
10315SOL    HW237807  11.019   1.004  11.340 -0.9936  0.1203 -0.8371
10316SOL     OW37808   9.389   6.802   0.126  0.2176 -0.0788  0.0729
10316SOL    HW137809   9.387   6.849   0.043  1.7868  0.7681  0.4827
10316SOL    HW237810   9.412   6.869   0.191  0.8656 -1.0953  0.9140
10317SOL     OW37811   0.499   8.203   4.850  0.0470 -0.0991  0.6973
10317SOL    HW137812   0.532   8.130   4.902 -1.0558 -1.1371 -0.0133
10317SOL    HW237813   0.516   8.281   4.904  3.3836 -0.5326  0.4862
10318SOL     OW37814   0.069   2.861   9.818  0.2863  0.5184  0.1768
10318SOL    HW137815   0.100   2.775   9.847  0.8325  0.2300 -1.1999
10318SOL    HW237816   0.027   2.845   9.734  3.3452  1.9874 -1.8344
10319SOL     OW37817   6.741   4.368   6.924 -0.5360 -0.1648 -0.1187
10319SOL    HW137818   6.719   4.294   6.980 -1.7202  1.2585  1.3966
10319SOL    HW237819   6.834   4.384   6.941 -0.2678 -1.2754 -0.4665
10320SOL     OW37820   8.758   6.359   2.776 -0.3810  0.2018  0.4387
10320SOL    HW137821   8.840   6.319   2.805 -0.8204 -0.5726  0.6543
10320SOL    HW237822   8.708   6.287   2.738 -0.0061  1.0906 -1.9013
10321SOL     OW37823   5.534   0.676   6.155  0.4359  0.9732 -0.7608
10321SOL    HW137824   5.468   0.742   6.137  0.2482  0.3053 -2.7461
10321SOL    HW237825   5.488   0.592   6.147  1.0613  0.5468 -0.0569
10322SOL     OW37826   5.453  12.425  12.411 -0.2203 -0.3193  0.0134
10322SOL    HW137827   5.383  12.430  12.476  0.5568  0.7690  0.7965
10322SOL    HW237828   5.533  12.413  12.461  0.4822  1.2669 -0.6460
10323SOL     OW37829   4.279   4.040  10.418  0.3763 -0.0551 -0.1025
10323SOL    HW137830   4.279   4.068  10.327 -1.2042  0.5918  0.0651
10323SOL    HW237831   4.266   4.121  10.468 -0.6527 -0.6109  0.5745
10324SOL     OW37832   9.971   6.149   2.041  0.2373  0.1569  0.3792
10324SOL    HW137833   9.983   6.090   1.967  0.4297  1.7265 -0.9072
10324SOL    HW237834   9.877   6.147   2.059  0.4853 -2.0766  1.7393
10325SOL     OW37835   9.910   1.868  11.842 -0.6537  0.3574  0.4567
10325SOL    HW137836   9.816   1.884  11.848 -0.4978  1.7469 -0.3958
10325SOL    HW237837   9.924   1.832  11.755 -0.1636  2.3111 -0.3279
10326SOL     OW37838   7.351  10.237   5.156 -0.4283  0.0608  0.2715
10326SOL    HW137839   7.419  10.240   5.089  0.8218  0.1365  1.5023
10326SOL    HW237840   7.316  10.148   5.151 -1.2147  0.4273 -1.2794
10327SOL     OW37841   7.667   2.206   8.302  0.3934 -0.4390 -0.2062
10327SOL    HW137842   7.693   2.257   8.226  0.5373 -0.4028 -0.1331
10327SOL    HW237843   7.734   2.138   8.310  1.0619  0.2923  0.6077
10328SOL     OW37844  11.238   7.734   8.901 -0.0376 -0.1598 -0.3811
10328SOL    HW137845  11.157   7.753   8.948  0.6092 -1.7812  1.5285
10328SOL    HW237846  11.244   7.639   8.900  2.3505 -0.1000  0.5207
10329SOL     OW37847  11.072   0.230   8.382 -0.0889  0.9154 -0.0962
10329SOL    HW137848  11.123   0.244   8.462 -1.6790 -1.9944  1.5871
10329SOL    HW237849  11.085   0.311   8.332  1.4713  2.6629  2.7957
10330SOL     OW37850  11.313   7.868   1.146 -0.0079 -0.3749 -0.2091
10330SOL    HW137851  11.272   7.804   1.204  2.4223 -1.2174  0.6788
10330SOL    HW237852  11.327   7.945   1.201 -2.0774  0.6640 -1.0341
10331SOL     OW37853   9.799  11.308   5.805 -0.0275  0.3409 -0.7069
10331SOL    HW137854   9.726  11.357   5.845 -0.1960 -0.4023 -0.0965
10331SOL    HW237855   9.759  11.266   5.729  0.0388  0.8587 -1.0366
10332SOL     OW37856   8.993   3.799  11.047 -0.0610 -0.0676  0.4139
10332SOL    HW137857   9.022   3.763  11.131 -0.4420  0.9845  1.0272
10332SOL    HW237858   8.900   3.776  11.042  0.0378 -0.4074  0.1224
10333SOL     OW37859   4.658   8.160   4.369  0.5935 -0.3127  0.2846
10333SOL    HW137860   4.603   8.137   4.294  0.9601 -1.3696  0.3230
10333SOL    HW237861   4.726   8.216   4.333 -0.3223  0.7839  0.1862
10334SOL     OW37862   6.432   0.083  11.315 -0.4264  0.4924 -0.0992
10334SOL    HW137863   6.364   0.018  11.297 -0.2209  0.1972  0.1620
10334SOL    HW237864   6.459   0.064  11.405 -2.4425  2.8383  1.0886
10335SOL     OW37865   8.984   1.225   6.087 -0.5654 -0.5192 -0.2029
10335SOL    HW137866   8.907   1.197   6.039 -0.5003 -0.7343 -0.1805
10335SOL    HW237867   9.005   1.311   6.050 -0.9860 -0.3288 -0.0090
10336SOL     OW37868  11.746  11.358   2.716 -0.3186 -0.2535  0.4618
10336SOL    HW137869  11.744  11.265   2.737  0.6562 -0.3375  0.2277
10336SOL    HW237870  11.682  11.367   2.644 -0.9752 -0.5918  0.9884
10337SOL     OW37871   2.302  10.824   2.343  0.5446 -0.8088 -0.0539
10337SOL    HW137872   2.273  10.734   2.354  0.1262 -0.5880  0.8058
10337SOL    HW237873   2.393  10.818   2.314  0.9307 -1.5183  1.2208
10338SOL     OW37874   9.933  11.025   0.434 -0.3169  0.3221  0.0636
10338SOL    HW137875   9.927  11.116   0.461 -1.4676  0.7123 -1.3514
10338SOL    HW237876   9.916  11.026   0.340  4.5573 -0.8123 -1.1299
10339SOL     OW37877   9.372   3.778   3.747  0.2046 -0.1869 -0.0823
10339SOL    HW137878   9.417   3.858   3.721 -1.9289  0.7791 -1.1186
10339SOL    HW237879   9.423   3.743   3.819 -0.4280  3.7947  2.6018
10340SOL     OW37880   5.558   3.177   4.534  0.8692 -0.4500 -0.4429
10340SOL    HW137881   5.477   3.197   4.487  0.3086 -1.5591  0.0242
10340SOL    HW237882   5.590   3.097   4.492  1.2714 -0.4896 -0.0605
10341SOL     OW37883  12.227   5.731   3.636 -0.7147 -0.2029 -0.4584
10341SOL    HW137884  12.245   5.645   3.675  0.1715  0.5099  0.7722
10341SOL    HW237885  12.281   5.733   3.557 -0.2441 -0.5344 -0.1488
10342SOL     OW37886  12.412   6.299   4.417 -0.2429 -0.6450 -0.1584
10342SOL    HW137887  12.452   6.247   4.347 -1.3389 -1.2814 -0.3340
10342SOL    HW237888  12.334   6.249   4.442  0.2820 -0.5946  1.7402
10343SOL     OW37889   2.322   6.329   8.067 -0.2396 -0.2308  0.1880
10343SOL    HW137890   2.373   6.407   8.045 -1.6259 -0.2064 -3.5999
10343SOL    HW237891   2.232   6.361   8.078 -0.6375 -1.1376 -0.2980
10344SOL     OW37892   5.048   9.138   3.412 -0.7176  0.4183 -0.1155
10344SOL    HW137893   5.031   9.226   3.446 -0.7650  0.9081 -1.3492
10344SOL    HW237894   5.143   9.135   3.398 -0.2662 -0.7431  2.5345
10345SOL     OW37895   2.485   7.803  10.320  0.2505  0.2080 -0.6177
10345SOL    HW137896   2.419   7.795  10.389 -1.4658  1.3444 -2.0181
10345SOL    HW237897   2.506   7.896  10.318  1.1870 -0.0010 -0.8333
10346SOL     OW37898   4.877   2.843   4.676 -0.6136  0.5907  0.1349
10346SOL    HW137899   4.808   2.827   4.740 -0.0864 -0.8652  0.3617
10346SOL    HW237900   4.848   2.921   4.628 -1.2260  1.4508  1.8378
10347SOL     OW37901   4.551  10.503   2.553 -0.2125  0.3572 -0.3531
10347SOL    HW137902   4.552  10.433   2.618 -0.0495  0.6012 -0.0873
10347SOL    HW237903   4.595  10.577   2.597  2.6495 -0.3736 -1.7264
10348SOL     OW37904   4.752  10.037   3.707  0.0366  0.8516 -0.3295
10348SOL    HW137905   4.664  10.069   3.726 -0.9120 -1.7537  0.0118
10348SOL    HW237906   4.799  10.043   3.791 -1.3178 -2.0118  0.7712
10349SOL     OW37907   2.898   9.853   1.386 -0.4857 -0.1961  0.2445
10349SOL    HW137908   2.973   9.904   1.417  0.1162 -1.0257  0.1952
10349SOL    HW237909   2.900   9.774   1.439 -2.4136  0.5356  1.5041
10350SOL     OW37910   5.512   4.607   6.068 -0.0197 -0.2933 -0.0916
10350SOL    HW137911   5.430   4.653   6.050 -0.3011 -0.6741  0.1846
10350SOL    HW237912   5.486   4.532   6.122  0.8075  1.0954  2.4231
10351SOL     OW37913   0.562   8.460   8.686 -0.5561  0.3917 -0.2788
10351SOL    HW137914   0.657   8.474   8.690 -0.7371  2.0369 -0.6885
10351SOL    HW237915   0.548   8.419   8.601 -0.3378  1.8187 -1.0419
10352SOL     OW37916   8.028   4.944   6.285  0.1934  0.2987  0.2740
10352SOL    HW137917   8.006   4.974   6.373 -0.9888  0.8258 -0.1825
10352SOL    HW237918   8.055   5.023   6.239 -2.1226  0.6174 -0.6891
10353SOL     OW37919   4.310  10.690   7.388 -0.4805  0.4623 -0.2046
10353SOL    HW137920   4.319  10.620   7.322 -1.0651  0.5031 -0.3371
10353SOL    HW237921   4.216  10.708   7.390 -0.4122  0.7664  0.3329
10354SOL     OW37922   5.356   9.374   2.107 -0.2715  0.3279  0.3668
10354SOL    HW137923   5.413   9.339   2.175  2.1966 -0.1338 -1.7981
10354SOL    HW237924   5.337   9.299   2.050 -0.6309  1.0820 -0.5351
10355SOL     OW37925   7.033   5.794   4.540  0.1134  0.3221  0.0069
10355SOL    HW137926   7.006   5.819   4.629  1.5275  0.3556  0.4409
10355SOL    HW237927   6.953   5.760   4.501 -0.5727  0.4131  1.2518
10356SOL     OW37928   3.909   2.589  10.290  0.3135 -0.4232  0.5774
10356SOL    HW137929   3.973   2.543  10.345  2.4814  0.6338 -0.8945
10356SOL    HW237930   3.951   2.594  10.204 -2.3659 -0.8338 -0.8764
10357SOL     OW37931   9.711   0.357   5.969  0.3446 -0.2880  0.2812
10357SOL    HW137932   9.754   0.311   5.897  0.5173 -0.5651  0.5590
10357SOL    HW237933   9.780   0.410   6.009 -0.1807  1.4219 -0.9841
10358SOL     OW37934  10.443   4.000  11.947 -0.5346  0.2255 -0.5438
10358SOL    HW137935  10.366   3.969  11.995 -0.1002  0.4059  0.2888
10358SOL    HW237936  10.488   3.920  11.919  0.4031  0.0467  1.3094
10359SOL     OW37937  12.154   0.516   5.035 -0.1355  0.3245  0.3052
10359SOL    HW137938  12.158   0.517   4.940 -0.9880  2.1011  0.2525
10359SOL    HW237939  12.061   0.510   5.055  0.0925 -1.1740  1.0631
10360SOL     OW37940   3.373   2.412   1.028 -0.5487 -0.2395  0.3536
10360SOL    HW137941   3.468   2.399   1.025 -0.6539 -0.8381 -1.3813
10360SOL    HW237942   3.362   2.507   1.028  0.0535 -0.1297 -1.7989
10361SOL     OW37943   3.874  12.204   6.129 -0.1943 -0.7354  0.1971
10361SOL    HW137944   3.818  12.127   6.140 -1.0253 -0.5581 -2.1791
10361SOL    HW237945   3.911  12.194   6.042  3.7393 -0.9142  1.6990
10362SOL     OW37946  11.642   6.188   4.648  0.0471 -0.0939  0.1026
10362SOL    HW137947  11.676   6.116   4.594  0.2838 -1.3000  1.7817
10362SOL    HW237948  11.583   6.236   4.589 -0.4527 -1.9042 -0.9720
10363SOL     OW37949   4.510  10.079  10.363 -0.0882 -0.5375 -0.4733
10363SOL    HW137950   4.442  10.146  10.373 -0.3073 -0.6312 -1.2561
10363SOL    HW237951   4.569  10.115  10.296  0.2742 -0.7443 -0.2677
10364SOL     OW37952   5.173  12.431  11.606  0.5844 -0.3652  0.1021
10364SOL    HW137953   5.260  12.441  11.643  0.7558 -1.0455 -0.1072
10364SOL    HW237954   5.132  12.363  11.660 -0.1190  0.5219  0.7286
10365SOL     OW37955  10.527   5.326   4.282  0.0639  0.0855  0.2010
10365SOL    HW137956  10.482   5.384   4.221  1.3380  1.1501  0.2462
10365SOL    HW237957  10.613   5.364   4.294 -0.0111 -0.2640  2.4201
10366SOL     OW37958   6.014   9.611  10.178  0.6294 -0.0576  0.1285
10366SOL    HW137959   6.048   9.699  10.193  0.1706  0.4101 -1.3252
10366SOL    HW237960   6.089   9.561  10.146  1.1072 -0.4784  1.8180
10367SOL     OW37961  11.049   6.889  11.650  0.3735  0.0503  0.4466
10367SOL    HW137962  11.057   6.810  11.704  0.2463 -0.7906 -0.7242
10367SOL    HW237963  10.978   6.869  11.589 -1.0903  1.8872  1.4336
10368SOL     OW37964   5.328   8.887   6.764  0.9301 -0.6379 -0.0206
10368SOL    HW137965   5.409   8.898   6.813  1.2838  0.4570 -0.8020
10368SOL    HW237966   5.356   8.863   6.676  0.4756  0.5824 -0.5242
10369SOL     OW37967   1.113  10.974   0.295  0.6852  0.0505  0.2302
10369SOL    HW137968   1.087  10.889   0.329  0.3899 -0.1294 -0.4251
10369SOL    HW237969   1.088  11.036   0.363 -0.7298 -0.2045 -0.0206
10370SOL     OW37970  12.357   9.963   4.391  0.4348 -0.6066  0.0294
10370SOL    HW137971  12.447   9.966   4.358  0.0684 -0.1450 -0.9868
10370SOL    HW237972  12.310   9.909   4.326 -0.1353 -0.3865  0.2552
10371SOL     OW37973   0.200   4.946   1.501  0.4706 -0.3747 -0.6822
10371SOL    HW137974   0.143   5.003   1.450  1.7372  0.4179 -1.2535
10371SOL    HW237975   0.217   4.994   1.582 -1.0844 -1.3897  0.2912
10372SOL     OW37976   4.605   3.875   1.592  0.1909 -0.0557 -0.2227
10372SOL    HW137977   4.522   3.897   1.551  0.5830  1.0801 -0.4585
10372SOL    HW237978   4.603   3.923   1.676 -0.8536 -2.7918  1.4570
10373SOL     OW37979   1.182   9.567   4.528  0.0254 -0.3385 -1.1554
10373SOL    HW137980   1.157   9.496   4.587  1.9376 -2.0785 -2.3133
10373SOL    HW237981   1.106   9.625   4.527 -1.2686 -1.8973  0.5318
10374SOL     OW37982   5.444  10.130   9.374 -0.1820  0.0096 -0.3741
10374SOL    HW137983   5.374  10.070   9.347 -0.1312  0.2036 -0.9420
10374SOL    HW237984   5.403  10.187   9.439 -1.1173  1.3655 -2.0629
10375SOL     OW37985  10.678   9.582   7.852  0.4451  0.0997 -0.0335
10375SOL    HW137986  10.756   9.531   7.873 -0.2777 -0.3193  1.8927
10375SOL    HW237987  10.677   9.588   7.757  2.1719 -0.8915 -0.1487
10376SOL     OW37988   4.323   6.846   1.266  0.4009  0.2121  0.1843
10376SOL    HW137989   4.370   6.929   1.273 -1.7502  1.5421 -0.0151
10376SOL    HW237990   4.310   6.834   1.172  0.2126 -0.0354  0.2409
10377SOL     OW37991  11.680   3.146   5.753  0.5947  0.3370  0.3524
10377SOL    HW137992  11.717   3.234   5.760  0.3859  0.3904  0.8974
10377SOL    HW237993  11.605   3.156   5.694  0.5242  0.5447  0.4741
10378SOL     OW37994   5.410   5.440   1.855  0.1163 -0.0135  0.2771
10378SOL    HW137995   5.320   5.411   1.840 -0.2722  1.0233  0.5622
10378SOL    HW237996   5.446   5.377   1.917  0.0335 -1.2216 -0.8420
10379SOL     OW37997   2.857   5.121  10.903 -0.2871 -0.1772  0.3385
10379SOL    HW137998   2.878   5.033  10.933  1.0138 -0.9153 -2.3970
10379SOL    HW237999   2.792   5.109  10.834 -0.7468  1.1065  0.5147
10380SOL     OW38000   7.621   5.695  11.002 -0.1107 -0.2659 -0.2002
10380SOL    HW138001   7.583   5.777  11.033  1.0532  1.0672 -2.0647
10380SOL    HW238002   7.549   5.632  11.006 -1.0938  0.8782  1.0630
10381SOL     OW38003  12.161   6.264   5.008 -0.2153 -0.0565 -0.2691
10381SOL    HW138004  12.130   6.256   4.918  0.0066 -0.8209 -0.2902
10381SOL    HW238005  12.232   6.328   5.003 -0.3196  0.0348 -0.6085
10382SOL     OW38006  10.841   4.509   6.621  0.2901 -0.3665 -0.2314
10382SOL    HW138007  10.773   4.484   6.559  1.3642  0.6748 -1.9125
10382SOL    HW238008  10.831   4.604   6.631 -0.0005 -0.5444  1.4054
10383SOL     OW38009   8.898   0.394   4.314 -0.9682 -0.7462  0.8026
10383SOL    HW138010   8.991   0.409   4.329 -1.1521 -0.0503  1.3060
10383SOL    HW238011   8.854   0.443   4.383 -1.9378  3.5647 -2.4105
10384SOL     OW38012   5.700   6.916  10.186 -0.0068  0.3928  0.0504
10384SOL    HW138013   5.608   6.917  10.214  0.1493 -0.6371  0.6541
10384SOL    HW238014   5.738   6.994  10.227  0.0728 -0.7475  2.3147
10385SOL     OW38015   6.971   8.493   7.962  0.0952 -0.1125 -0.0975
10385SOL    HW138016   7.057   8.453   7.971 -0.4232 -1.0958  0.7663
10385SOL    HW238017   6.959   8.503   7.868  0.9055 -0.5170 -0.2554
10386SOL     OW38018   6.863  10.274  10.966  0.5897 -0.0761 -0.0391
10386SOL    HW138019   6.929  10.294  11.032  1.9999  0.5677 -1.5752
10386SOL    HW238020   6.834  10.360  10.934 -0.6134 -0.3616  0.2313
10387SOL     OW38021   0.300   6.368   2.399 -0.0340 -0.0391  0.6057
10387SOL    HW138022   0.276   6.314   2.324  1.5179 -2.0647  1.4689
10387SOL    HW238023   0.343   6.445   2.362 -0.8287 -0.1681 -0.6182
10388SOL     OW38024   7.197   5.596   5.671 -0.2470  0.6299  0.4020
10388SOL    HW138025   7.116   5.561   5.633 -0.1358  1.6299 -0.8462
10388SOL    HW238026   7.187   5.584   5.765 -2.2640  1.5559  0.3608
10389SOL     OW38027  11.681   8.238   4.702 -0.5418  0.0991 -0.1749
10389SOL    HW138028  11.768   8.198   4.695 -0.6235 -0.2942  0.8361
10389SOL    HW238029  11.627   8.189   4.640 -0.4967 -0.9923  0.6146
10390SOL     OW38030   4.096   7.215  12.359  0.3799 -0.5224 -0.0879
10390SOL    HW138031   4.128   7.306  12.359 -1.3861  0.2616 -3.3289
10390SOL    HW238032   4.027   7.214  12.425 -0.6888  1.0568 -1.0810
10391SOL     OW38033   6.774   6.747   2.810  0.3797 -0.7720 -0.3730
10391SOL    HW138034   6.826   6.786   2.881 -1.0193  0.4220  0.0477
10391SOL    HW238035   6.768   6.655   2.833 -0.6311 -0.2988  1.4846
10392SOL     OW38036   5.287   3.519   5.026  0.9895 -0.5572  0.6469
10392SOL    HW138037   5.243   3.514   5.111  1.4489 -0.2344  0.9039
10392SOL    HW238038   5.326   3.606   5.024  1.2698 -0.6906  0.2422
10393SOL     OW38039   8.986   0.222   3.362  0.8134 -0.1882  0.0302
10393SOL    HW138040   8.952   0.257   3.444 -1.1421  0.3379 -0.9482
10393SOL    HW238041   8.957   0.283   3.295  1.8402 -0.9284 -1.1516
10394SOL     OW38042   4.680   3.492   8.408 -0.3675  0.3874 -0.0245
10394SOL    HW138043   4.717   3.428   8.468  0.2699 -0.5104 -1.3147
10394SOL    HW238044   4.591   3.461   8.392 -0.0709 -0.1839 -0.6219
10395SOL     OW38045   4.860   3.376   7.389 -0.1335  0.5724 -0.5950
10395SOL    HW138046   4.818   3.296   7.421  0.9331  0.3190  0.2383
10395SOL    HW238047   4.939   3.346   7.344  0.5781  1.1670  0.2188
10396SOL     OW38048   8.653   7.667  10.740 -0.4710  0.2545  0.0581
10396SOL    HW138049   8.639   7.630  10.652 -1.3099  2.0304 -0.5957
10396SOL    HW238050   8.702   7.599  10.787 -0.7813 -1.1050 -1.4966
10397SOL     OW38051   6.043  10.599   2.550  0.1664  0.3502 -0.3189
10397SOL    HW138052   6.060  10.646   2.631  0.3642  0.8779 -0.6613
10397SOL    HW238053   5.954  10.625   2.526  0.9860  2.2285 -1.5927
10398SOL     OW38054   1.407   4.472   8.299  0.5293 -0.1073 -0.2769
10398SOL    HW138055   1.359   4.391   8.286 -0.8908  0.6643 -0.0993
10398SOL    HW238056   1.404   4.516   8.214 -1.3272  1.0740  0.3304
10399SOL     OW38057   7.329   2.383   8.500  0.3335  0.2037 -0.2369
10399SOL    HW138058   7.256   2.339   8.544  0.6198 -1.0445 -0.9806
10399SOL    HW238059   7.289   2.459   8.457  0.0938  1.7370  2.4296
10400SOL     OW38060   9.373   1.734  11.857  0.3650 -0.6267 -0.3015
10400SOL    HW138061   9.290   1.731  11.904  1.0520 -1.4247  0.9169
10400SOL    HW238062   9.357   1.684  11.777 -0.3538 -0.6513 -0.1512
10401SOL     OW38063   8.506  12.244   4.744  0.4505 -0.4639 -0.1006
10401SOL    HW138064   8.518  12.149   4.744 -0.1376 -0.5536  0.5419
10401SOL    HW238065   8.412  12.256   4.733  0.1134 -0.0727  2.4526
10402SOL     OW38066   6.621   9.770  10.709 -0.2444 -0.3372  0.0485
10402SOL    HW138067   6.716   9.773  10.724 -0.2936 -1.2798  0.6801
10402SOL    HW238068   6.602   9.677  10.700 -0.8282 -0.0446 -2.1691
10403SOL     OW38069   6.343   5.155   2.690  0.0517  0.2297 -0.2806
10403SOL    HW138070   6.255   5.153   2.652 -1.0359 -2.6022  2.0260
10403SOL    HW238071   6.394   5.094   2.636 -0.1992 -0.2868  0.0644
10404SOL     OW38072   9.851   9.280   8.741 -0.2830 -0.4484  0.2181
10404SOL    HW138073   9.804   9.286   8.658  1.4151 -1.9115 -0.9180
10404SOL    HW238074   9.918   9.349   8.735 -2.3326  1.8582  1.9697
10405SOL     OW38075   0.673   6.170  10.218  0.5397  0.5680 -0.1528
10405SOL    HW138076   0.632   6.083  10.221  0.0347  0.8178  0.5047
10405SOL    HW238077   0.718   6.172  10.134  0.5026 -0.3080 -0.2073
10406SOL     OW38078   9.822   8.037   9.187 -0.5453 -0.2282 -0.6952
10406SOL    HW138079   9.737   8.041   9.142 -0.9767  0.0600  0.1185
10406SOL    HW238080   9.833   8.124   9.224  0.5261  0.0012 -1.5149
10407SOL     OW38081   5.877   2.929  11.247 -0.8288  0.4408 -0.1138
10407SOL    HW138082   5.803   2.894  11.297 -0.6558  0.8729  0.4623
10407SOL    HW238083   5.837   2.970  11.171 -1.0278 -1.1324 -0.9105
10408SOL     OW38084   7.855   5.770  10.855 -0.1997 -0.4915  0.1314
10408SOL    HW138085   7.789   5.730  10.912 -0.2481  0.1714  0.5460
10408SOL    HW238086   7.816   5.768  10.768 -1.3585  1.1257  0.5689
10409SOL     OW38087   8.884   3.393   3.043  0.4512  0.3932  0.4775
10409SOL    HW138088   8.947   3.465   3.055 -1.2441  2.1666 -0.6765
10409SOL    HW238089   8.891   3.370   2.951 -0.3149  0.3365  0.4326
10410SOL     OW38090   6.941   1.641   5.757 -0.0124 -0.3039 -0.8350
10410SOL    HW138091   7.024   1.658   5.712 -0.3529  0.9621 -1.0221
10410SOL    HW238092   6.957   1.665   5.848 -0.2031  0.0973 -0.9018
10411SOL     OW38093   3.601   5.997  10.904  0.1072 -0.5983  0.5935
10411SOL    HW138094   3.572   6.045  10.981  0.1854 -1.8633  1.4427
10411SOL    HW238095   3.603   5.905  10.932  0.9153 -0.9950 -0.6690
10412SOL     OW38096   0.219   9.859   2.584  0.2530 -0.3485 -0.3837
10412SOL    HW138097   0.189   9.855   2.493 -0.5002 -2.0818 -0.0896
10412SOL    HW238098   0.142   9.885   2.634  0.5625  0.1966 -0.1821
10413SOL     OW38099   2.844   7.778  11.822 -0.0037  0.5052  0.3398
10413SOL    HW138100   2.769   7.767  11.881 -0.0957  0.5008  0.2230
10413SOL    HW238101   2.834   7.709  11.756  0.6426 -0.1115  0.8799
10414SOL     OW38102   7.440   8.176   6.340  0.1015 -0.1676 -0.0231
10414SOL    HW138103   7.522   8.130   6.322  0.4775  1.2228 -2.1673
10414SOL    HW238104   7.449   8.206   6.431  1.4089 -1.1213  0.1924
10415SOL     OW38105   1.863   9.588  10.808  0.2439 -0.0373 -0.0710
10415SOL    HW138106   1.842   9.498  10.784 -1.0802  0.9569 -3.0486
10415SOL    HW238107   1.957   9.596  10.793  0.2231 -0.7106 -0.5683
10416SOL     OW38108   6.162   0.956   2.854  0.0939  0.7657  0.7384
10416SOL    HW138109   6.215   1.035   2.852 -1.4799  1.8798  1.3287
10416SOL    HW238110   6.141   0.942   2.946  0.8171 -0.6993  0.7179
10417SOL     OW38111   4.696   7.508   9.028  0.4528  0.0787  0.3959
10417SOL    HW138112   4.699   7.415   9.050 -0.2504 -0.1707 -0.4951
10417SOL    HW238113   4.755   7.550   9.091  0.9908 -1.0012  0.6296
10418SOL     OW38114  10.775   7.416   5.027 -0.4549  0.0474  0.4346
10418SOL    HW138115  10.687   7.423   5.065 -1.1944  2.1190 -1.3920
10418SOL    HW238116  10.834   7.437   5.099 -1.4583 -1.0921  1.6321
10419SOL     OW38117   7.244   3.568   1.712 -0.4379  0.4000  0.6057
10419SOL    HW138118   7.168   3.533   1.666 -0.3074 -0.2369  0.8740
10419SOL    HW238119   7.265   3.503   1.778  1.7362 -0.5501 -0.8849
10420SOL     OW38120   3.882  11.761   6.437  0.1586  0.0043  0.6269
10420SOL    HW138121   3.881  11.762   6.533  0.8375  0.0607  0.6403
10420SOL    HW238122   3.794  11.732   6.412  0.1139 -0.4352  1.2734
10421SOL     OW38123   5.663   8.453   1.319  0.1570 -0.5646 -0.1752
10421SOL    HW138124   5.690   8.372   1.277  1.5029  0.6694 -1.7972
10421SOL    HW238125   5.726   8.466   1.390  0.8184 -0.2135 -0.8227
10422SOL     OW38126   2.536  10.451   8.993 -0.2570 -0.7378 -0.4346
10422SOL    HW138127   2.593  10.517   9.033 -0.9435 -0.5583  0.2816
10422SOL    HW238128   2.547  10.373   9.048 -1.2043 -0.4920  0.1319
10423SOL     OW38129   6.453   2.102   5.002  0.0637  0.2014  0.0475
10423SOL    HW138130   6.443   2.182   4.950  0.2597 -0.9597 -1.8645
10423SOL    HW238131   6.526   2.055   4.961  1.2101 -0.1382  2.2737
10424SOL     OW38132   1.929   4.931  11.782 -0.1064  0.2639  0.5531
10424SOL    HW138133   1.963   4.980  11.856 -1.7313  0.6654  1.0644
10424SOL    HW238134   1.854   4.981  11.751  1.0236  0.5761 -1.9514
10425SOL     OW38135   7.585   8.778   4.841 -0.3018 -0.2749  0.9634
10425SOL    HW138136   7.677   8.756   4.859 -0.3251 -1.0818  0.1456
10425SOL    HW238137   7.582   8.795   4.747 -0.8668  0.4082  1.0994
10426SOL     OW38138  10.878   5.508   8.478 -0.3672 -0.5087  0.0639
10426SOL    HW138139  10.880   5.414   8.460 -0.8039 -0.1546 -2.1357
10426SOL    HW238140  10.791   5.524   8.514 -0.0388 -1.0328  1.1228
10427SOL     OW38141   7.488   2.417   6.789  0.5103 -0.4313  0.0566
10427SOL    HW138142   7.408   2.381   6.751  0.5976 -1.2537  0.6235
10427SOL    HW238143   7.530   2.462   6.716 -0.2717 -0.3271 -0.3439
10428SOL     OW38144   4.328  11.438   7.008 -0.3570 -0.4892  0.6947
10428SOL    HW138145   4.380  11.390   7.073  1.4447  1.1271  0.5419
10428SOL    HW238146   4.366  11.526   7.007 -1.4400  0.0157 -1.3447
10429SOL     OW38147   2.523   4.604   3.640 -0.3191 -0.4145  0.7109
10429SOL    HW138148   2.609   4.646   3.636 -1.1726  1.4989  1.2166
10429SOL    HW238149   2.474   4.641   3.567 -0.5078 -2.0561 -0.0341
10430SOL     OW38150   0.242   5.491   1.743  0.1495  0.3626 -0.1392
10430SOL    HW138151   0.226   5.401   1.772 -0.3708  0.4624 -0.1094
10430SOL    HW238152   0.155   5.527   1.726  0.2623  1.2713  1.0759
10431SOL     OW38153   7.815   0.402   8.649 -0.7498 -0.2594 -0.1482
10431SOL    HW138154   7.796   0.349   8.571  2.2602 -0.8121 -0.6288
10431SOL    HW238155   7.751   0.472   8.647 -1.9927 -1.3604 -2.0228
10432SOL     OW38156   6.653   6.799   4.910  0.4747 -0.4387  0.4367
10432SOL    HW138157   6.678   6.710   4.885  0.1764 -0.7939  1.3614
10432SOL    HW238158   6.735   6.839   4.939  0.9503  0.1975 -1.6732
10433SOL     OW38159   1.037  11.944  11.497 -0.1994  0.1392 -0.2542
10433SOL    HW138160   1.101  12.010  11.470 -0.0900  0.3463  0.4935
10433SOL    HW238161   0.959  11.964  11.445  0.1659  0.2083 -0.7884
10434SOL     OW38162  12.451   4.644   4.726 -0.0884  0.5174 -0.4985
10434SOL    HW138163  12.521   4.579   4.719  2.7352  3.2834  0.1441
10434SOL    HW238164  12.388   4.618   4.659  0.7135 -2.9689 -0.1005
10435SOL     OW38165  12.451   6.417   0.998 -0.3650 -0.3635 -0.2509
10435SOL    HW138166  12.387   6.346   1.002 -0.0463 -0.6060  1.1058
10435SOL    HW238167  12.528   6.379   0.955  0.3064 -1.3047  1.6518
10436SOL     OW38168   0.781   5.167   9.706 -0.4044 -0.0588  0.3933
10436SOL    HW138169   0.805   5.107   9.777  0.1368  1.0177  1.1512
10436SOL    HW238170   0.857   5.168   9.648 -1.5206 -2.3562 -1.2782
10437SOL     OW38171  10.977   8.771   7.054 -0.0707  0.3916  0.1047
10437SOL    HW138172  10.884   8.777   7.074  0.0180  0.0817  0.6395
10437SOL    HW238173  10.984   8.799   6.962 -0.4199  2.4412  0.6454
10438SOL     OW38174   0.775   8.631  11.685  0.2164 -0.2908  0.7434
10438SOL    HW138175   0.731   8.547  11.670  1.3797 -0.8372  0.3093
10438SOL    HW238176   0.735   8.690  11.620  0.3281 -0.8546  0.1471
10439SOL     OW38177   6.379   7.856   3.677 -0.1482 -0.2670 -0.1648
10439SOL    HW138178   6.414   7.774   3.642 -0.3687 -0.8800  1.0055
10439SOL    HW238179   6.414   7.861   3.766  0.6926  1.4373 -0.5602
10440SOL     OW38180   9.903   1.701   8.710  0.5839 -0.5700  0.1806
10440SOL    HW138181   9.918   1.796   8.714 -0.0319 -0.4266 -0.5915
10440SOL    HW238182   9.865   1.680   8.794  0.1881 -0.0208  0.1476
10441SOL     OW38183   2.773   3.710   4.966  0.3656 -0.1466 -0.4154
10441SOL    HW138184   2.766   3.629   5.016  1.4682  0.5942  1.0069
10441SOL    HW238185   2.867   3.729   4.963  0.4299 -0.4524 -3.3119
10442SOL     OW38186  11.879  12.259  11.601 -0.2754 -0.0929 -0.1201
10442SOL    HW138187  11.956  12.267  11.544 -0.0861  1.7450  0.3487
10442SOL    HW238188  11.907  12.294  11.685 -1.0715 -1.2051  0.6533
10443SOL     OW38189   3.732  12.060   8.830  0.3889 -0.7283  0.1042
10443SOL    HW138190   3.720  11.980   8.779 -0.4822 -0.5230 -0.0288
10443SOL    HW238191   3.647  12.075   8.871 -0.9456  2.4384 -3.2354
10444SOL     OW38192   4.741   0.017   9.174  0.1982  0.6127  0.0039
10444SOL    HW138193   4.737   0.112   9.167  0.7225  0.6011 -0.5880
10444SOL    HW238194   4.829  -0.006   9.142  0.7308  0.0675  1.7522
10445SOL     OW38195   9.556   7.295   0.210  0.2085  0.2153 -0.1266
10445SOL    HW138196   9.467   7.292   0.244  0.1441 -0.8015 -0.3348
10445SOL    HW238197   9.570   7.208   0.172  0.8598  0.7772 -1.2203
10446SOL     OW38198   6.070   8.917   6.440 -0.2806 -0.3243  0.1616
10446SOL    HW138199   6.015   8.906   6.363 -0.1591  2.6828 -0.4783
10446SOL    HW238200   6.028   8.987   6.490  0.4878 -1.1419  2.0858
10447SOL     OW38201   3.954   9.610   8.082  0.1284 -0.8361  0.5094
10447SOL    HW138202   4.038   9.622   8.037  0.5966 -1.0693  1.2877
10447SOL    HW238203   3.950   9.683   8.143 -1.1029  0.2097 -0.7655
10448SOL     OW38204  11.166   7.303  12.210 -0.2041 -0.2583  0.2258
10448SOL    HW138205  11.177   7.398  12.213 -1.4075 -0.0302 -1.1303
10448SOL    HW238206  11.253   7.268  12.227  0.3185  1.0893  0.4680
10449SOL     OW38207   3.758   1.077  10.864  0.0134 -0.3028  0.2226
10449SOL    HW138208   3.701   1.153  10.866  1.9494  1.2267  0.5641
10449SOL    HW238209   3.822   1.093  10.934  0.5749 -2.1719  0.2020
10450SOL     OW38210  11.731  11.730   7.605  0.2723  0.2752 -0.5393
10450SOL    HW138211  11.702  11.756   7.517  1.3582  0.1606 -0.9546
10450SOL    HW238212  11.822  11.759   7.609  1.1839 -2.2906 -0.5612
10451SOL     OW38213   8.825   9.667   8.997 -0.0366  0.0807  0.4224
10451SOL    HW138214   8.804   9.736   9.060 -0.5932  0.8082 -0.5315
10451SOL    HW238215   8.806   9.586   9.044  2.4884  0.4293  2.2668
10452SOL     OW38216   8.621   0.729   8.992 -0.0566 -0.5595 -0.0547
10452SOL    HW138217   8.635   0.637   8.974 -0.9415 -0.8984  0.8465
10452SOL    HW238218   8.643   0.774   8.911  0.3324 -1.5659 -0.5150
10453SOL     OW38219   6.185  11.244   2.983 -0.4585  0.3838  0.1822
10453SOL    HW138220   6.265  11.267   2.935 -0.8330  1.9345  0.2339
10453SOL    HW238221   6.170  11.152   2.962  1.2911  0.0744  0.1196
10454SOL     OW38222   1.076  12.375  10.955 -0.4671  0.5108 -0.0926
10454SOL    HW138223   1.082  12.360  10.860 -1.1017 -0.5272  0.0099
10454SOL    HW238224   1.003  12.435  10.965 -0.2795  0.7694 -0.2751
10455SOL     OW38225   5.917   8.200   7.266  0.1173 -0.1325 -0.4143
10455SOL    HW138226   5.887   8.145   7.193 -0.2278  0.2116 -0.5337
10455SOL    HW238227   6.007   8.172   7.281 -0.0655 -0.7557 -0.4523
10456SOL     OW38228   7.256   5.935   3.350  0.3302 -0.1459  0.1049
10456SOL    HW138229   7.180   5.978   3.311 -0.0616 -1.3824 -0.5456
10456SOL    HW238230   7.331   5.973   3.304 -0.1145 -1.4602 -1.8134
10457SOL     OW38231  11.361   5.738  11.789 -0.2911  0.1459  0.5771
10457SOL    HW138232  11.381   5.804  11.855  2.7180 -0.6106  0.5453
10457SOL    HW238233  11.331   5.662  11.840  0.0829  0.2247  0.9194
10458SOL     OW38234   7.211   7.427   4.372  0.3328 -0.3310  0.3605
10458SOL    HW138235   7.256   7.374   4.438  1.2959  0.1357  0.1029
10458SOL    HW238236   7.157   7.365   4.324  0.8198 -0.9375  0.5859
10459SOL     OW38237  10.743  10.402  12.084 -0.2035 -0.1618 -0.0534
10459SOL    HW138238  10.832  10.368  12.079 -0.1776 -0.0811 -0.1428
10459SOL    HW238239  10.713  10.379  12.172  0.3708  0.9697  0.4551
10460SOL     OW38240   7.449   8.690   5.927 -0.4503  0.2829 -0.3264
10460SOL    HW138241   7.400   8.678   6.008 -1.9043  2.0664 -0.8734
10460SOL    HW238242   7.531   8.732   5.954 -1.1870  1.4386  0.1884
10461SOL     OW38243   0.810   7.121   2.909 -0.7998  0.4037 -0.0151
10461SOL    HW138244   0.857   7.197   2.944  0.3842 -0.7958  1.0835
10461SOL    HW238245   0.780   7.149   2.822 -0.4426  2.1313  0.3883
10462SOL     OW38246   0.314   8.646   6.703  0.0283 -0.0157  0.0711
10462SOL    HW138247   0.367   8.632   6.781 -0.3841 -1.8584  0.0665
10462SOL    HW238248   0.361   8.713   6.654  0.3134  1.1522  1.8665
10463SOL     OW38249   7.507   1.059   6.448  0.0532 -0.0394 -0.7073
10463SOL    HW138250   7.526   0.976   6.491 -0.0638  1.0106  1.5145
10463SOL    HW238251   7.420   1.046   6.409 -0.3491 -0.6951  0.3631
10464SOL     OW38252   5.542   2.440   3.400 -0.4668 -0.5464 -0.1514
10464SOL    HW138253   5.626   2.461   3.359  1.2766  0.3730  3.5079
10464SOL    HW238254   5.476   2.479   3.342  1.7623  0.8578 -1.8776
10465SOL     OW38255   2.627  12.084   0.731 -0.3795  0.4955  0.1218
10465SOL    HW138256   2.602  12.013   0.671 -0.3443 -0.4411  1.1951
10465SOL    HW238257   2.581  12.064   0.813  1.4857  0.4033  1.1907
10466SOL     OW38258   7.699   0.600   8.093  0.3753  0.1176  0.2589
10466SOL    HW138259   7.682   0.686   8.055  0.3220  0.3606  0.8178
10466SOL    HW238260   7.683   0.612   8.187 -3.7557 -1.4878 -0.0201
10467SOL     OW38261  10.592   2.918   2.129 -0.3720 -0.2954 -0.1835
10467SOL    HW138262  10.497   2.910   2.136 -0.3793  0.8584  2.2650
10467SOL    HW238263  10.625   2.831   2.152 -0.8321 -0.4156  0.0359
10468SOL     OW38264   1.693   3.823   7.862 -0.5195 -0.1443 -0.3902
10468SOL    HW138265   1.698   3.770   7.942 -0.7977 -0.1977 -0.4100
10468SOL    HW238266   1.601   3.821   7.837 -0.8467  1.7137  0.5301
10469SOL     OW38267  11.639  11.533   7.274  0.1289 -0.1440 -0.1400
10469SOL    HW138268  11.658  11.627   7.281  0.5931 -0.1880 -0.7491
10469SOL    HW238269  11.622  11.506   7.364  2.4801  0.0081  0.4164
10470SOL     OW38270   2.760   8.295  10.469  0.4328 -0.4183  0.1336
10470SOL    HW138271   2.799   8.359  10.409  0.7712 -2.1155 -1.5285
10470SOL    HW238272   2.835   8.251  10.508  0.2582  1.3813  2.7383
10471SOL     OW38273   4.034  10.779   7.335  0.1108  0.1591 -0.4864
10471SOL    HW138274   3.973  10.724   7.383  0.4314 -0.3692 -0.6784
10471SOL    HW238275   3.981  10.854   7.306 -0.1036  0.4471  0.6118
10472SOL     OW38276  12.275   7.388  11.496  0.8910 -0.0195  0.2414
10472SOL    HW138277  12.281   7.409  11.403 -1.2737  1.9581  0.4435
10472SOL    HW238278  12.314   7.463  11.540  0.0351  0.0378  0.9253
10473SOL     OW38279   3.659   4.841   4.061  0.1256  0.3335 -0.5925
10473SOL    HW138280   3.675   4.922   4.011  1.6309 -0.2537 -1.1013
10473SOL    HW238281   3.714   4.776   4.019 -1.5727 -1.1574 -0.6067
10474SOL     OW38282   8.721  11.858   7.454  1.1544 -0.3720  0.1017
10474SOL    HW138283   8.651  11.850   7.390  1.2733 -2.4789  0.1596
10474SOL    HW238284   8.694  11.930   7.510 -0.3180 -0.2924 -0.6522
10475SOL     OW38285   1.176   4.121   3.003  0.0498 -0.0914  0.7933
10475SOL    HW138286   1.261   4.106   3.043  0.2775 -2.1343 -0.3165
10475SOL    HW238287   1.142   4.034   2.984 -1.1563  0.7040 -1.0763
10476SOL     OW38288   9.595   0.753  11.205  0.4754  0.7644  0.0290
10476SOL    HW138289   9.577   0.665  11.238  0.0659  1.1774  0.9657
10476SOL    HW238290   9.571   0.750  11.113 -1.5808  0.4610  0.5316
10477SOL     OW38291   8.409   4.805   0.109 -0.0234  0.7698 -0.1315
10477SOL    HW138292   8.399   4.712   0.089 -0.2367  0.4830  1.1629
10477SOL    HW238293   8.321   4.835   0.132  0.3812  0.6594  1.7975
10478SOL     OW38294   9.392   7.393   3.925 -0.2390  0.2718  0.2089
10478SOL    HW138295   9.441   7.412   3.845  0.7432  0.1026  0.7638
10478SOL    HW238296   9.456   7.354   3.984 -1.3421 -1.1883  0.4733
10479SOL     OW38297   3.827   3.168   7.629  0.7717  0.2506  0.5564
10479SOL    HW138298   3.913   3.192   7.596  0.2376  0.3577 -0.8284
10479SOL    HW238299   3.768   3.235   7.593 -0.0292 -0.3733  0.6789
10480SOL     OW38300   0.909   2.007   3.564  0.2254 -0.3335  0.8211
10480SOL    HW138301   0.880   2.011   3.473  2.1788 -1.8096  0.0766
10480SOL    HW238302   0.922   2.099   3.588 -0.0546  0.0712 -0.4585
10481SOL     OW38303   0.723   7.048   0.965 -0.1529 -0.5291 -0.8951
10481SOL    HW138304   0.743   6.973   1.021 -1.0924  0.1773  0.4318
10481SOL    HW238305   0.654   7.017   0.907 -1.0437 -0.4984  0.1288
10482SOL     OW38306   3.837   8.241   7.579 -0.2543 -0.5432  0.4279
10482SOL    HW138307   3.917   8.191   7.596 -0.3054 -1.0313 -0.7012
10482SOL    HW238308   3.867   8.326   7.547 -0.1819 -0.1887  1.4035
10483SOL     OW38309  10.076   3.680   3.647  0.1284 -0.5432 -0.4194
10483SOL    HW138310  10.059   3.586   3.640  0.7705 -0.7097  0.0943
10483SOL    HW238311  10.171   3.686   3.658  0.1719  0.2089 -1.1267
10484SOL     OW38312   4.648   4.901  12.429 -0.0925  0.3850  0.0461
10484SOL    HW138313   4.677   4.931  12.343 -2.0477  1.4487 -0.3044
10484SOL    HW238314   4.690   4.960  12.491  1.4046 -0.4472 -0.1214
10485SOL     OW38315   0.691   7.875   6.457  0.4741  0.1438  0.8238
10485SOL    HW138316   0.653   7.949   6.409  1.3216 -0.0436 -0.1671
10485SOL    HW238317   0.740   7.826   6.391 -0.4836 -1.6091  1.3466
10486SOL     OW38318   3.768   3.522   5.217  0.0644 -0.2495 -0.6062
10486SOL    HW138319   3.776   3.433   5.183  1.4512  0.2196 -1.6014
10486SOL    HW238320   3.854   3.561   5.202 -0.9090  1.7091 -1.4732
10487SOL     OW38321   5.658   5.527   1.000 -0.1830 -0.1120  0.4514
10487SOL    HW138322   5.728   5.582   1.035  0.5377 -1.0920  0.5893
10487SOL    HW238323   5.601   5.509   1.075 -0.0804 -0.0567  0.5429
10488SOL     OW38324   6.963  10.414   8.797 -0.4748  0.2086 -0.0072
10488SOL    HW138325   6.892  10.363   8.758  2.3620 -2.9218 -1.5911
10488SOL    HW238326   6.972  10.491   8.741 -1.6219 -0.1290 -0.6812
10489SOL     OW38327   5.494   6.967   5.560  0.0371  0.4810  0.9461
10489SOL    HW138328   5.523   6.884   5.597 -1.9446 -0.6499  0.1236
10489SOL    HW238329   5.441   7.007   5.629 -0.5800  0.1386  0.6785
10490SOL     OW38330   9.082   5.060   2.307 -0.2789 -0.4348 -0.1565
10490SOL    HW138331   9.150   5.074   2.373  1.8672  0.2110 -2.3200
10490SOL    HW238332   9.119   5.099   2.227 -2.4987 -1.6178 -1.8663
10491SOL     OW38333   5.597   4.182  11.905  0.4017 -0.4273 -0.5399
10491SOL    HW138334   5.556   4.107  11.863  0.0786 -1.6513  1.8183
10491SOL    HW238335   5.525   4.231  11.945  0.9213 -1.1073  1.3287
10492SOL     OW38336   4.695  11.476   4.185  0.2981 -0.5508  0.1444
10492SOL    HW138337   4.779  11.464   4.227 -0.1373  0.3498  1.3196
10492SOL    HW238338   4.713  11.533   4.110  0.5461  0.7584  1.1700
10493SOL     OW38339   7.538   0.785   6.574 -0.0626  0.0482  0.1364
10493SOL    HW138340   7.488   0.738   6.640  0.7973 -1.1381 -0.0428
10493SOL    HW238341   7.502   0.754   6.490 -1.6832  2.1017 -0.0402
10494SOL     OW38342   4.118   9.628   7.399 -0.0638  0.0838  0.0561
10494SOL    HW138343   4.039   9.668   7.363 -1.1617 -2.9643 -1.2724
10494SOL    HW238344   4.087   9.548   7.442  1.9360  0.6484  2.8216
10495SOL     OW38345   5.314   9.883   3.957  0.1312  0.5515  0.0817
10495SOL    HW138346   5.242   9.859   3.899  2.5933  1.0404 -3.5595
10495SOL    HW238347   5.282   9.959   4.005 -2.3711 -0.4096  0.0883
10496SOL     OW38348   4.352  12.453   6.554  0.1737 -0.0502  0.1119
10496SOL    HW138349   4.347  12.365   6.516 -0.7209  0.4893 -1.1120
10496SOL    HW238350   4.443  12.479   6.543  0.0669 -0.1449 -1.1965
10497SOL     OW38351   4.301   3.931   1.212 -0.4628  0.2646  0.4260
10497SOL    HW138352   4.338   3.850   1.178 -0.0253  0.7272 -0.2223
10497SOL    HW238353   4.206   3.921   1.199 -0.5990 -0.9343  2.1288
10498SOL     OW38354   2.194   7.038   0.227  0.2269 -0.3982 -0.2308
10498SOL    HW138355   2.161   7.027   0.138  0.5509  1.1955 -0.5746
10498SOL    HW238356   2.164   6.959   0.273 -0.4069 -0.9956 -1.5937
10499SOL     OW38357   8.836   8.255   1.768 -0.2835  0.7280  0.0128
10499SOL    HW138358   8.760   8.260   1.826  0.5579 -1.8185  1.4639
10499SOL    HW238359   8.912   8.265   1.825  0.5572 -1.2379 -0.6621
10500SOL     OW38360   1.089   2.267  11.621  0.2227 -0.2359  0.2103
10500SOL    HW138361   1.054   2.199  11.678 -1.2564  0.1538 -0.1937
10500SOL    HW238362   1.034   2.265  11.544  0.8067  0.7396 -0.2577
10501SOL     OW38363   7.527   4.501   5.551 -0.2652  0.3776  0.3818
10501SOL    HW138364   7.466   4.558   5.502 -2.2357  0.8502  3.1477
10501SOL    HW238365   7.511   4.522   5.643  1.8899 -1.8050  1.3627
10502SOL     OW38366   3.497   2.415   9.237 -0.0041  0.1917  0.3047
10502SOL    HW138367   3.544   2.348   9.286 -0.5707 -1.1060 -0.8525
10502SOL    HW238368   3.404   2.397   9.254 -0.1513  1.7668  1.3389
10503SOL     OW38369   5.534  11.835   0.726 -0.0012  0.3297  0.7503
10503SOL    HW138370   5.456  11.889   0.713 -0.1794  0.5478  2.4393
10503SOL    HW238371   5.606  11.890   0.696 -0.5262 -0.1860 -1.6052
10504SOL     OW38372   8.610   3.964   2.390 -0.0583 -0.1164 -0.4892
10504SOL    HW138373   8.642   3.923   2.471 -0.6970  2.6987  1.3480
10504SOL    HW238374   8.649   4.052   2.391 -0.9782  0.3847 -2.6912
10505SOL     OW38375   5.978   9.611   9.783  0.6147  0.0859 -0.6992
10505SOL    HW138376   5.916   9.671   9.740  0.3917  0.8453  0.6341
10505SOL    HW238377   6.064   9.645   9.759  0.5347 -0.4242 -1.7928
10506SOL     OW38378   7.512  11.202   5.976  0.0670  0.2879 -0.0467
10506SOL    HW138379   7.564  11.121   5.977 -0.6297 -0.1795 -0.3378
10506SOL    HW238380   7.498  11.219   5.882 -0.7875  0.0757  0.0318
10507SOL     OW38381  11.309  11.585   7.835 -0.7933  0.0248 -0.0784
10507SOL    HW138382  11.392  11.572   7.789 -1.5376 -1.6073 -1.0679
10507SOL    HW238383  11.310  11.677   7.861  2.0533 -0.3069  1.4405
10508SOL     OW38384   6.491   0.685   8.799 -0.0320  0.2394  0.6069
10508SOL    HW138385   6.435   0.737   8.857 -1.2152 -0.4767  0.1285
10508SOL    HW238386   6.567   0.663   8.854 -0.7265  0.2984  1.6234
10509SOL     OW38387   7.259  11.897   1.847  0.5287  0.5115  0.4334
10509SOL    HW138388   7.344  11.914   1.806  0.9735 -1.2160  0.5539
10509SOL    HW238389   7.280  11.872   1.937 -0.1878  0.9682  0.7338
10510SOL     OW38390   1.324  10.482   6.759  0.0804  0.2093 -0.3049
10510SOL    HW138391   1.279  10.502   6.677 -0.5983 -0.5593 -0.1294
10510SOL    HW238392   1.414  10.512   6.744 -0.1867  0.6706 -1.0908
10511SOL     OW38393   4.851   4.242   4.583 -0.4217  0.6192  0.0394
10511SOL    HW138394   4.931   4.194   4.562 -1.3807 -1.5692  1.1123
10511SOL    HW238395   4.870   4.332   4.557  1.7440 -0.1611 -1.3438
10512SOL     OW38396   5.269   3.465   0.725 -0.1485  0.1944  0.2091
10512SOL    HW138397   5.309   3.388   0.765 -0.8457 -0.7935 -0.9362
10512SOL    HW238398   5.223   3.431   0.648 -1.7072  1.5207  0.4996
10513SOL     OW38399  10.704   5.059   5.781 -0.1763  1.4108 -0.2030
10513SOL    HW138400  10.798   5.072   5.767 -0.0318  2.2251  1.2718
10513SOL    HW238401  10.666   5.146   5.770 -0.5146  1.4055  0.8184
10514SOL     OW38402   7.993   3.290   8.718  0.6092  0.3601  0.7579
10514SOL    HW138403   8.047   3.266   8.793 -0.3030 -2.1527  0.6962
10514SOL    HW238404   8.054   3.296   8.645  1.2681  1.1006  1.3574
10515SOL     OW38405   6.821   8.956   0.833  0.3032 -0.0712 -0.2176
10515SOL    HW138406   6.821   9.000   0.918 -1.0014 -0.2754 -0.0882
10515SOL    HW238407   6.784   9.020   0.773 -1.9321 -1.0458  0.0374
10516SOL     OW38408   1.774   9.737  10.537  0.0716 -0.5600 -0.2139
10516SOL    HW138409   1.792   9.692  10.619  0.0941 -0.0403  0.0734
10516SOL    HW238410   1.861   9.755  10.500  0.1465  1.0677  0.6855
10517SOL     OW38411  11.346   1.386   3.176 -0.3082  0.1362  0.5070
10517SOL    HW138412  11.260   1.426   3.164 -1.3768 -2.2045 -0.1734
10517SOL    HW238413  11.341   1.342   3.260 -0.3631 -1.2965 -0.2164
10518SOL     OW38414   8.907   6.692   9.512  0.0361 -0.3597 -0.0629
10518SOL    HW138415   8.871   6.652   9.433  0.0819 -2.6597  0.9950
10518SOL    HW238416   8.831   6.731   9.556  0.3894  3.6278 -2.5420
10519SOL     OW38417   7.509   6.167   9.259 -0.1455  0.4209  0.0979
10519SOL    HW138418   7.495   6.199   9.348  0.8407  0.3072  0.3037
10519SOL    HW238419   7.502   6.072   9.266  2.8780  0.1408  0.6795
10520SOL     OW38420   9.092   5.137   7.293  0.0387 -0.2789 -0.2434
10520SOL    HW138421   9.149   5.173   7.361 -1.5364 -1.6151  1.8888
10520SOL    HW238422   9.150   5.127   7.217  1.7619  1.7148  0.6734
10521SOL     OW38423  11.267   2.837  10.253  0.1183  0.4716 -0.6318
10521SOL    HW138424  11.239   2.917  10.208 -3.1710 -0.0269  0.2304
10521SOL    HW238425  11.362   2.841  10.253  0.1000  3.7399 -1.7401
10522SOL     OW38426   5.604   9.232   7.933 -0.1213 -0.4171  0.0714
10522SOL    HW138427   5.603   9.308   7.873  2.4385 -0.5459 -0.2268
10522SOL    HW238428   5.524   9.184   7.910 -2.0545  2.3163  0.5264
10523SOL     OW38429   8.397   0.323   1.524  0.1100 -0.0854  0.3904
10523SOL    HW138430   8.389   0.243   1.472 -0.5091  0.7483 -0.8379
10523SOL    HW238431   8.491   0.341   1.525  0.0540  0.8121 -1.9956
10524SOL     OW38432   5.998   1.709   5.820 -0.0231  0.4682  0.7755
10524SOL    HW138433   5.957   1.661   5.892  0.7577 -1.5169 -0.0187
10524SOL    HW238434   6.084   1.734   5.853  0.2458 -0.2392  0.6221
10525SOL     OW38435   0.434   4.123  12.432  0.4646 -0.2502 -0.0583
10525SOL    HW138436   0.431   4.219  12.436  1.1737 -0.1099 -1.7197
10525SOL    HW238437   0.416   4.103  12.340 -1.1716 -1.8215  0.5493
10526SOL     OW38438   1.749   7.723   4.934  0.1974  0.7048  0.6325
10526SOL    HW138439   1.719   7.636   4.961  2.8343  0.7287  4.5187
10526SOL    HW238440   1.783   7.710   4.846  0.3869 -2.1977  1.0229
10527SOL     OW38441   4.677  11.024   4.480  0.2110 -0.0250 -0.1427
10527SOL    HW138442   4.671  10.978   4.563  0.7467 -0.6312 -0.4279
10527SOL    HW238443   4.594  11.071   4.472  0.4657  0.6832  1.0956
10528SOL     OW38444   6.306   6.370   6.950 -0.0945  0.2265  0.0126
10528SOL    HW138445   6.275   6.434   7.015  0.5171 -0.1039  0.6474
10528SOL    HW238446   6.244   6.378   6.877 -0.0967  1.4550  0.1267
10529SOL     OW38447   5.247  11.662   7.073 -0.5112 -0.2585  0.6378
10529SOL    HW138448   5.258  11.575   7.112  0.9888 -0.7754 -0.8387
10529SOL    HW238449   5.316  11.715   7.113 -0.5340 -0.1178  0.4910
10530SOL     OW38450   6.549  11.670   0.038 -0.5454 -0.0180  0.3943
10530SOL    HW138451   6.493  11.608  -0.008 -0.2039  1.5775 -2.4123
10530SOL    HW238452   6.491  11.714   0.100 -2.0403  0.4173 -1.2463
10531SOL     OW38453   5.709   5.096   0.877  0.7621 -0.1996 -0.3956
10531SOL    HW138454   5.798   5.114   0.905  0.7262 -0.6263  0.0186
10531SOL    HW238455   5.675   5.180   0.847  1.3283 -0.0535 -0.6287
10532SOL     OW38456  11.095   2.886   3.658  0.7675  0.0951 -0.1337
10532SOL    HW138457  11.047   2.954   3.611  1.6786  2.4845  2.1738
10532SOL    HW238458  11.156   2.933   3.715  2.5653 -2.7042  0.5049
10533SOL     OW38459   2.051   0.921   9.996  0.1774  0.1827  0.2462
10533SOL    HW138460   2.138   0.956  10.016 -0.6183  2.5809 -0.1724
10533SOL    HW238461   2.018   0.891  10.081  1.0852 -0.0110  0.5493
10534SOL     OW38462   9.222   6.741   2.698 -0.5368  0.2291 -0.0733
10534SOL    HW138463   9.134   6.722   2.730 -0.9985  2.3394  0.0422
10534SOL    HW238464   9.280   6.710   2.767 -1.2126 -0.4063  0.2291
10535SOL     OW38465   5.109   6.170   5.343 -0.0221 -0.0076 -0.1232
10535SOL    HW138466   5.096   6.076   5.330  0.4977  0.0819 -1.3999
10535SOL    HW238467   5.141   6.178   5.433 -1.2582 -0.9290  0.4222
10536SOL     OW38468   5.907  12.347   0.080 -0.0117 -0.2840 -0.0661
10536SOL    HW138469   5.932  12.343   0.172  4.4114  0.8651 -0.9777
10536SOL    HW238470   5.939  12.264   0.043  1.6397  0.7368 -1.0951
10537SOL     OW38471   3.150   9.210  11.003 -0.6837 -0.0176  0.4239
10537SOL    HW138472   3.175   9.283  10.946  1.3522 -1.0132 -0.0290
10537SOL    HW238473   3.069   9.240  11.044  0.3941  2.8009  0.7711
10538SOL     OW38474   8.175   3.660   0.455  0.1909 -0.0671  0.5714
10538SOL    HW138475   8.161   3.568   0.479 -0.1985 -0.4203 -0.9050
10538SOL    HW238476   8.125   3.709   0.519 -0.1993 -0.9219  0.9387
10539SOL     OW38477  10.209   3.544  10.779 -0.3081  0.1825 -0.0512
10539SOL    HW138478  10.273   3.531  10.710 -0.3712 -0.2446 -0.0343
10539SOL    HW238479  10.252   3.513  10.859 -1.0031 -1.4000 -0.2562
10540SOL     OW38480   1.126   4.922   0.272  0.0293  0.4240  0.8580
10540SOL    HW138481   1.199   4.973   0.307 -0.3427  1.6099 -0.0263
10540SOL    HW238482   1.048   4.965   0.308 -0.2555 -0.5831  1.4712
10541SOL     OW38483   8.809   6.060   7.408 -0.2150  0.0387 -0.0356
10541SOL    HW138484   8.748   5.987   7.399 -0.9566  0.5346  0.8226
10541SOL    HW238485   8.759   6.137   7.381  0.5533  0.2505 -0.9129
10542SOL     OW38486   5.636   9.842   6.614  0.0538 -0.8783 -0.3580
10542SOL    HW138487   5.586   9.878   6.540 -0.8683 -2.3377 -0.4890
10542SOL    HW238488   5.675   9.919   6.656 -0.1364  0.0681 -1.8215
10543SOL     OW38489   8.890   5.417   3.966  0.1255  0.2722  0.1813
10543SOL    HW138490   8.896   5.504   3.927 -0.3489  0.5652  0.7438
10543SOL    HW238491   8.879   5.357   3.892  0.6449  0.6678 -0.2212
10544SOL     OW38492   2.211   3.146  11.321  0.0804 -0.0931 -0.1505
10544SOL    HW138493   2.250   3.127  11.236  1.1319  2.5057 -0.3148
10544SOL    HW238494   2.272   3.109  11.384  1.1360  1.0417 -0.4804
10545SOL     OW38495   2.066  10.356  12.413 -0.2164  0.0946 -0.3599
10545SOL    HW138496   1.974  10.335  12.395 -0.0554 -1.1480  0.1172
10545SOL    HW238497   2.114  10.280  12.380  0.4809 -0.0615  0.9470
10546SOL     OW38498   7.073  11.164   4.137  0.0195  0.2169  0.4802
10546SOL    HW138499   7.024  11.092   4.177  0.0224 -0.3127 -0.4379
10546SOL    HW238500   7.138  11.121   4.081  0.5324  0.9308  0.5029
10547SOL     OW38501  11.385   1.349   6.380 -0.1152 -0.6696  0.0141
10547SOL    HW138502  11.320   1.292   6.421  0.2671 -0.3031  1.1567
10547SOL    HW238503  11.438   1.382   6.452 -1.5770  2.8002 -0.2580
10548SOL     OW38504   7.842   7.351   0.868 -0.1644  0.0818 -0.4696
10548SOL    HW138505   7.908   7.292   0.831 -0.1647 -1.1609  1.3626
10548SOL    HW238506   7.768   7.293   0.888 -0.5518  0.8722  0.4582
10549SOL     OW38507  10.016   2.174   8.474  0.4182  0.6570  0.2210
10549SOL    HW138508  10.084   2.107   8.484 -1.2313 -1.0124  0.8135
10549SOL    HW238509   9.993   2.197   8.564  0.7488  1.8276  0.0172
10550SOL     OW38510   6.736   1.572  10.601 -0.1962 -0.1178 -0.0555
10550SOL    HW138511   6.657   1.517  10.605 -0.1718 -0.1334  0.2688
10550SOL    HW238512   6.746   1.593  10.508  1.1300 -2.5775 -0.5498
10551SOL     OW38513   9.559   5.178   8.792  0.0750  0.3732 -0.2245
10551SOL    HW138514   9.572   5.189   8.886  1.3456 -0.2886 -0.2953
10551SOL    HW238515   9.611   5.248   8.752  0.2380  0.1327 -0.4420
10552SOL     OW38516  11.904   9.765   0.037  0.0048  0.1433  0.2530
10552SOL    HW138517  11.881   9.714   0.114 -1.5884 -1.2088 -1.0361
10552SOL    HW238518  11.928   9.699  -0.028 -0.0008  1.1625 -0.8056
10553SOL     OW38519   1.677   7.477  12.291 -0.6922  0.4397  0.0898
10553SOL    HW138520   1.659   7.559  12.245  0.8182  0.7378 -0.0146
10553SOL    HW238521   1.769   7.460  12.273 -0.3856 -0.0813  1.9896
10554SOL     OW38522  11.614   0.676   8.098 -0.4873  0.2149  0.0444
10554SOL    HW138523  11.595   0.608   8.163  1.8452 -0.2578  0.3156
10554SOL    HW238524  11.647   0.750   8.149  1.7369 -0.2982 -0.5349
10555SOL     OW38525  11.818   6.469   1.752  0.0214  0.2243  0.3157
10555SOL    HW138526  11.882   6.416   1.798 -0.9255 -1.3225 -0.0565
10555SOL    HW238527  11.734   6.445   1.792 -0.9390 -1.7730 -2.6073
10556SOL     OW38528   7.609   4.211  10.365  0.6608 -0.0005  0.4955
10556SOL    HW138529   7.687   4.239  10.318  1.2685 -0.6126  1.1194
10556SOL    HW238530   7.554   4.290  10.369  2.3707  1.1804  2.2758
10557SOL     OW38531  11.541   3.794  12.257  0.0053  0.3712 -0.5107
10557SOL    HW138532  11.481   3.859  12.295  0.1455  0.4237 -0.3782
10557SOL    HW238533  11.582   3.753  12.333 -0.7039 -0.4651 -0.5655
10558SOL     OW38534   9.226   4.330   9.470 -0.3995 -0.4105 -0.2916
10558SOL    HW138535   9.206   4.307   9.561 -0.3959 -0.1021 -0.2126
10558SOL    HW238536   9.145   4.370   9.437 -0.5242 -0.8555 -0.5391
10559SOL     OW38537   4.652  11.458   7.058 -0.2620 -0.6873 -0.2070
10559SOL    HW138538   4.718  11.454   7.128  0.3312  0.5830 -0.6586
10559SOL    HW238539   4.622  11.549   7.059 -1.8027 -1.1776 -0.2194
10560SOL     OW38540   9.912   3.094   8.470  0.0781  0.3399 -0.5627
10560SOL    HW138541   9.831   3.044   8.482  0.6993 -0.3013  1.1106
10560SOL    HW238542   9.899   3.138   8.386 -1.1840 -1.2902 -1.2834
10561SOL     OW38543   2.568   4.125   2.292 -0.3666  0.0102  0.3546
10561SOL    HW138544   2.557   4.100   2.201 -0.2157  0.6459  0.1612
10561SOL    HW238545   2.568   4.220   2.292  3.5841  0.2065  0.4586
10562SOL     OW38546   1.485  11.969   4.682 -0.3919  0.3904  0.6497
10562SOL    HW138547   1.453  12.017   4.759 -0.8568 -0.3446  0.9292
10562SOL    HW238548   1.512  12.037   4.621 -1.9830  1.0503  0.6275
10563SOL     OW38549   4.770   0.138   7.222 -0.3125  0.3593 -0.0266
10563SOL    HW138550   4.837   0.186   7.173 -0.1648 -0.2939 -0.4672
10563SOL    HW238551   4.689   0.186   7.204 -0.0603  0.8266  0.0656
10564SOL     OW38552   6.450   5.271  10.333 -0.5264  0.0556 -0.6550
10564SOL    HW138553   6.538   5.247  10.304 -0.9240 -0.4678 -1.4588
10564SOL    HW238554   6.463   5.309  10.420  0.6558  1.2978 -1.3295
10565SOL     OW38555   5.867   2.407   6.417  0.8909 -0.5799 -0.2653
10565SOL    HW138556   5.937   2.387   6.479 -0.1346 -0.3438  1.0190
10565SOL    HW238557   5.787   2.408   6.470  0.1882  1.4185 -1.2558
10566SOL     OW38558   7.637  11.806   9.705  0.0819  0.2107 -0.3276
10566SOL    HW138559   7.732  11.801   9.715  0.0731  0.6082 -0.0141
10566SOL    HW238560   7.618  11.900   9.700 -0.7263  0.5451  4.3531
10567SOL     OW38561   4.934   3.858   4.494  0.2333 -0.0901  0.2272
10567SOL    HW138562   5.002   3.796   4.469 -0.6015 -1.6671  1.6968
10567SOL    HW238563   4.903   3.894   4.411  2.1377 -0.0804 -0.5248
10568SOL     OW38564   2.744   0.388   2.563  0.5151 -0.0681 -0.9354
10568SOL    HW138565   2.837   0.403   2.544  0.6040 -0.1113 -0.5554
10568SOL    HW238566   2.729   0.437   2.645 -0.2420  1.4601 -1.9403
10569SOL     OW38567   1.509   6.463   0.962 -0.2760 -0.9963  0.3192
10569SOL    HW138568   1.567   6.442   0.889  0.1269 -1.4058  0.7425
10569SOL    HW238569   1.472   6.379   0.988 -0.5874 -0.8222  0.4413
10570SOL     OW38570   4.294  11.057   0.525  0.2291  0.3805 -0.0842
10570SOL    HW138571   4.239  11.135   0.529  0.6660  0.6413  1.1856
10570SOL    HW238572   4.370  11.078   0.578  0.5752 -0.7468 -0.1038
10571SOL     OW38573   2.017   2.159   3.927  0.1875  0.0122  0.3584
10571SOL    HW138574   2.110   2.144   3.916  0.1540  0.2920 -0.3442
10571SOL    HW238575   2.008   2.254   3.934 -0.0085 -0.0337  0.8080
10572SOL     OW38576   0.246   5.717  10.200  0.7667  0.2420 -0.3837
10572SOL    HW138577   0.341   5.729  10.193  0.5267  1.3410 -2.1291
10572SOL    HW238578   0.216   5.794  10.247  0.6919 -0.0228  0.0139
10573SOL     OW38579   4.704   6.016   8.768  0.1497 -0.1334  0.1349
10573SOL    HW138580   4.759   5.989   8.694  1.5097 -0.5872  1.2734
10573SOL    HW238581   4.746   6.096   8.800  0.0024 -0.3518  0.8763
10574SOL     OW38582   9.427   6.993   3.458 -0.4656  0.4262  0.5737
10574SOL    HW138583   9.450   6.922   3.398 -2.7780 -0.7254  0.9378
10574SOL    HW238584   9.468   7.070   3.419  1.0062 -0.8659 -0.5704
10575SOL     OW38585   3.685   2.671  11.618  0.2323  0.2248 -0.4225
10575SOL    HW138586   3.639   2.632  11.693 -0.3386 -2.5319 -2.0921
10575SOL    HW238587   3.635   2.750  11.599 -1.7463 -0.8696 -0.0223
10576SOL     OW38588   4.624   1.710   3.672 -0.0876  0.1016  0.6597
10576SOL    HW138589   4.566   1.772   3.715 -0.9360  0.5547 -1.0535
10576SOL    HW238590   4.712   1.737   3.699 -0.5034  1.3582  0.8143
10577SOL     OW38591  11.632   3.437   5.433 -0.0876  0.6434 -0.8123
10577SOL    HW138592  11.586   3.381   5.371  0.4085 -1.9525  1.0130
10577SOL    HW238593  11.562   3.486   5.477 -0.8124 -0.5618 -0.5815
10578SOL     OW38594   0.258   2.529   5.144  0.3673 -0.0914  0.3417
10578SOL    HW138595   0.349   2.558   5.147  1.0610 -2.0114 -0.4724
10578SOL    HW238596   0.235   2.532   5.051 -0.7301  1.2118  0.6193
10579SOL     OW38597  12.088   2.773   6.658  0.1118 -0.4413 -0.0633
10579SOL    HW138598  12.048   2.719   6.726  1.5570  0.8969  1.9649
10579SOL    HW238599  12.014   2.809   6.609 -1.0631 -0.4293  1.6392
10580SOL     OW38600   7.908   0.243  10.829 -0.0513 -0.3526 -0.5327
10580SOL    HW138601   7.963   0.318  10.804  0.7304 -0.7526 -0.0626
10580SOL    HW238602   7.820   0.280  10.840  0.1049  0.2861 -1.3743
10581SOL     OW38603   6.018  12.295   9.996  0.0922 -0.1569  0.4420
10581SOL    HW138604   6.069  12.251  10.064 -1.3823  1.5711  2.8482
10581SOL    HW238605   6.083  12.339   9.941  1.3062  0.2204  2.1021
10582SOL     OW38606   6.362   8.826   1.107 -0.5261  0.3319  0.1677
10582SOL    HW138607   6.314   8.882   1.168 -0.4501  2.1096 -1.2882
10582SOL    HW238608   6.373   8.881   1.029  0.5564 -1.3649 -0.9331
10583SOL     OW38609  11.042   8.993  10.124 -0.0814 -0.3836  0.2131
10583SOL    HW138610  10.985   9.054  10.077  0.1455  0.3009  0.7968
10583SOL    HW238611  11.097   9.050  10.180  1.0537 -1.0280 -0.2122
10584SOL     OW38612  10.660   0.835  11.546  0.7758 -0.3666  0.4078
10584SOL    HW138613  10.641   0.927  11.563 -2.4233 -1.0434  1.2770
10584SOL    HW238614  10.714   0.807  11.620  2.5647  0.9513 -0.3378
10585SOL     OW38615   2.907  11.092   2.673  0.1488 -0.3927 -0.8207
10585SOL    HW138616   2.860  11.102   2.756 -0.3783 -1.6394 -0.9494
10585SOL    HW238617   2.840  11.067   2.610  0.5836  0.3396 -1.5972
10586SOL     OW38618   7.862  12.107  11.523 -0.2384 -0.0592  0.0729
10586SOL    HW138619   7.849  12.081  11.432  1.0243 -1.2137  0.2010
10586SOL    HW238620   7.953  12.137  11.527 -0.0431 -0.7497  1.1042
10587SOL     OW38621   6.823   3.024   0.429 -0.2196 -0.4103  0.0425
10587SOL    HW138622   6.910   2.989   0.410  0.1417  0.1894  0.5340
10587SOL    HW238623   6.805   3.085   0.357 -0.6014 -1.1550 -0.5052
10588SOL     OW38624   1.755  11.445   9.047  0.1533 -0.7571  0.1269
10588SOL    HW138625   1.690  11.502   9.086  1.1309  0.0271  0.6586
10588SOL    HW238626   1.740  11.360   9.089  0.1795 -0.3104  1.0757
10589SOL     OW38627   3.441   2.605   9.461 -0.5564 -0.4576  0.0986
10589SOL    HW138628   3.452   2.547   9.385 -1.9547  0.7461 -1.0825
10589SOL    HW238629   3.526   2.649   9.470 -0.4099 -0.5212 -0.8700
10590SOL     OW38630   8.828  10.141   4.560 -0.3783  0.2936 -0.7525
10590SOL    HW138631   8.792  10.143   4.649  0.5031  0.5614 -0.3963
10590SOL    HW238632   8.907  10.088   4.567 -0.7395 -0.3769 -1.5564
10591SOL     OW38633   4.916   7.478   1.610  0.4698 -0.4733  0.4812
10591SOL    HW138634   4.958   7.530   1.679  0.8370 -0.2805  0.1209
10591SOL    HW238635   4.989   7.448   1.555  0.1050  0.5485 -0.6299
10592SOL     OW38636   2.396   0.100  12.002 -0.0243  0.0219 -0.5105
10592SOL    HW138637   2.442   0.086  12.086  2.0912 -0.5834 -1.6825
10592SOL    HW238638   2.324   0.158  12.024  1.5628  1.4280  1.4363
10593SOL     OW38639   4.777   6.265   0.322  0.3198  0.0719  0.1744
10593SOL    HW138640   4.733   6.349   0.335 -0.4923 -0.3387  0.1150
10593SOL    HW238641   4.727   6.222   0.253  0.6991 -0.4834  0.2413
10594SOL     OW38642  11.542   7.262   2.389 -0.2166 -0.2650  0.2344
10594SOL    HW138643  11.462   7.299   2.424  1.4074  1.1545  2.7252
10594SOL    HW238644  11.560   7.313   2.310 -1.8949 -0.8596 -0.5790
10595SOL     OW38645  12.351   3.400   3.070 -0.3094  0.1233  0.4633
10595SOL    HW138646  12.442   3.425   3.054 -0.3794  0.3459  0.4002
10595SOL    HW238647  12.301   3.480   3.051 -0.4313  0.3037  1.4839
10596SOL     OW38648   8.478   2.630   5.187  0.0543  0.2906 -0.5014
10596SOL    HW138649   8.406   2.618   5.126  0.4374 -1.3321 -0.6774
10596SOL    HW238650   8.448   2.590   5.269 -0.0643  1.5458  0.0966
10597SOL     OW38651   7.841   9.597   6.129 -0.0737 -0.2959 -0.4310
10597SOL    HW138652   7.822   9.688   6.104 -0.0173 -0.3098 -0.5238
10597SOL    HW238653   7.925   9.602   6.174  0.0832 -0.3475 -0.7151
10598SOL     OW38654   5.533  10.326   3.852  0.4196  0.3381 -0.0839
10598SOL    HW138655   5.626  10.343   3.840  0.3652  0.1120 -0.8731
10598SOL    HW238656   5.503  10.397   3.909  1.2284 -0.0288  0.8295
10599SOL     OW38657   5.945  11.566   3.272  0.1525 -0.0218  0.0906
10599SOL    HW138658   6.033  11.537   3.249  0.8096  1.4402  0.6053
10599SOL    HW238659   5.915  11.502   3.336  1.2685  0.0141  0.6789
10600SOL     OW38660   7.020   0.712   1.426  0.4627 -0.5378 -0.1273
10600SOL    HW138661   7.041   0.678   1.339  1.4635 -0.3898  0.0368
10600SOL    HW238662   6.928   0.689   1.440  0.4474 -1.0454 -0.9942
10601SOL     OW38663   8.121   5.026   1.380  0.2754  0.9044 -0.1392
10601SOL    HW138664   8.128   5.082   1.303  1.7338  0.1708 -0.5720
10601SOL    HW238665   8.105   5.087   1.452  0.1072  1.7116 -0.8375
10602SOL     OW38666  12.017  12.014   2.862  0.3226  0.5364 -0.4019
10602SOL    HW138667  11.968  12.039   2.940 -0.9257 -0.4972 -0.8235
10602SOL    HW238668  12.108  12.007   2.892  0.0127  1.0666  0.7282
10603SOL     OW38669  10.910   6.007  11.126  0.3805  0.5002  0.3838
10603SOL    HW138670  10.876   5.972  11.043  0.1188  0.8819  0.3254
10603SOL    HW238671  10.935   6.097  11.105  0.2141  0.6332  0.7419
10604SOL     OW38672   9.459   0.878   9.661  0.6572  0.0158 -0.0305
10604SOL    HW138673   9.475   0.948   9.597  1.5985 -0.0162  0.1500
10604SOL    HW238674   9.547   0.855   9.693  0.1561  0.8948  2.1878
10605SOL     OW38675   2.851   4.709   2.803  0.1832  0.1460 -0.3307
10605SOL    HW138676   2.797   4.676   2.731 -2.4223  0.6284  1.2415
10605SOL    HW238677   2.881   4.795   2.773 -0.8301  0.3258 -0.8843
10606SOL     OW38678   4.293   0.581   7.523 -0.4416 -0.1654  0.4695
10606SOL    HW138679   4.236   0.538   7.587 -2.1601 -0.5054 -1.1905
10606SOL    HW238680   4.374   0.530   7.524 -0.8853 -0.8771  1.5160
10607SOL     OW38681   6.407   2.526   6.639 -0.4953 -0.4104  0.3652
10607SOL    HW138682   6.474   2.594   6.633 -0.3943 -0.5786 -0.7319
10607SOL    HW238683   6.348   2.556   6.708 -0.6194  0.9445 -0.2880
10608SOL     OW38684  11.441   3.270   8.964 -0.3672  0.3061 -0.9749
10608SOL    HW138685  11.469   3.179   8.979  0.0210  0.5487 -0.1895
10608SOL    HW238686  11.356   3.262   8.922 -1.2928 -0.4311  0.9268
10609SOL     OW38687  11.188   5.487  11.251  0.1003  0.4355  0.3550
10609SOL    HW138688  11.279   5.462  11.240 -0.1577 -0.8197  0.9033
10609SOL    HW238689  11.138   5.408  11.230 -0.9650  1.4864 -1.3825
10610SOL     OW38690   5.959   6.782   9.135  0.0958 -0.2517  0.1128
10610SOL    HW138691   6.030   6.845   9.152 -0.7416  1.6286 -2.5378
10610SOL    HW238692   5.987   6.702   9.178  2.5635  1.1562  1.3781
10611SOL     OW38693   3.611   5.057   3.861  0.5261  0.2725 -0.1571
10611SOL    HW138694   3.534   5.114   3.855  0.6861  0.6224  0.9337
10611SOL    HW238695   3.588   4.980   3.808 -1.9290 -1.1551  2.6944
10612SOL     OW38696   8.147   9.962   5.567  0.2376  0.0299 -0.6428
10612SOL    HW138697   8.085   9.972   5.495  0.0353  1.4475 -0.2883
10612SOL    HW238698   8.232   9.948   5.525  0.5015  2.9608 -1.2471
10613SOL     OW38699  11.294   2.533   6.940  0.2533 -0.2870 -0.1726
10613SOL    HW138700  11.277   2.527   7.034  0.3365 -0.2155 -0.1526
10613SOL    HW238701  11.210   2.515   6.899 -0.0694  0.8953 -0.0615
10614SOL     OW38702   7.329   6.796   9.492  0.1811  0.7676 -0.0611
10614SOL    HW138703   7.352   6.869   9.550 -1.6804  0.8618  0.6550
10614SOL    HW238704   7.289   6.838   9.416  0.5119  0.5459 -0.3600
10615SOL     OW38705   6.831   5.162   3.318  0.4630 -0.1811  0.5385
10615SOL    HW138706   6.736   5.147   3.325  0.0943  0.6600 -1.6498
10615SOL    HW238707   6.858   5.107   3.245  0.9962  1.9674 -0.9646
10616SOL     OW38708   8.614   8.091   3.695  0.3321 -0.4294 -1.0009
10616SOL    HW138709   8.570   8.006   3.686  0.1572 -0.5006  0.4169
10616SOL    HW238710   8.699   8.078   3.653  1.9406 -2.5817  2.5232
10617SOL     OW38711   3.827   4.467   5.222 -0.1465  0.0830  0.2525
10617SOL    HW138712   3.817   4.468   5.317 -0.6650  1.3843  0.1908
10617SOL    HW238713   3.751   4.417   5.190 -0.0363 -0.2496  0.5015
10618SOL     OW38714   8.691  10.024   7.868  0.5565  0.2551 -0.1802
10618SOL    HW138715   8.609  10.020   7.917  0.0855  0.7118 -0.9207
10618SOL    HW238716   8.692   9.944   7.815  1.3739 -0.5685  1.0086
10619SOL     OW38717   5.477   9.444   8.168 -0.5306 -0.1892  0.1353
10619SOL    HW138718   5.396   9.396   8.153  0.2831 -2.6161  2.6738
10619SOL    HW238719   5.521   9.444   8.083 -1.5414 -2.1548 -0.4494
10620SOL     OW38720   9.132   5.446  12.434 -0.6763  0.5822  0.4321
10620SOL    HW138721   9.043   5.415  12.417  0.2834 -0.9999 -2.2709
10620SOL    HW238722   9.158   5.402  12.516 -1.2660 -1.6001 -0.4856
10621SOL     OW38723   9.691   2.859  12.278 -0.1167 -0.4667 -0.4512
10621SOL    HW138724   9.737   2.791  12.327  2.7981  1.8537  0.3026
10621SOL    HW238725   9.641   2.907  12.344  2.2945  1.4766  0.0745
10622SOL     OW38726   2.799   8.197   1.384  0.7534  0.2488  0.0736
10622SOL    HW138727   2.785   8.225   1.475  1.4003  0.9087 -0.0242
10622SOL    HW238728   2.726   8.237   1.336 -0.3585 -1.1841  0.4891
10623SOL     OW38729   9.762  11.511  10.021  0.1892 -0.0193  0.0155
10623SOL    HW138730   9.688  11.528  10.080  0.2625  0.8509 -0.1434
10623SOL    HW238731   9.839  11.540  10.070  0.3199  0.0607 -0.2367
10624SOL     OW38732   7.523   3.158   0.698 -0.3726 -0.1999  0.3133
10624SOL    HW138733   7.442   3.144   0.746 -1.1089  0.9920 -0.5200
10624SOL    HW238734   7.508   3.114   0.614 -0.1649  0.0247  0.1582
10625SOL     OW38735   5.826   9.526   5.363 -0.6433 -0.3166  0.1217
10625SOL    HW138736   5.814   9.444   5.317  1.0586 -0.6477  0.1959
10625SOL    HW238737   5.758   9.584   5.328 -1.3875 -1.5077 -0.4625
10626SOL     OW38738   8.801  11.732   1.810 -0.2625  0.5764  0.0938
10626SOL    HW138739   8.734  11.775   1.863 -0.2222 -0.2152  0.7859
10626SOL    HW238740   8.880  11.735   1.863 -0.3305 -0.6264  0.2865
10627SOL     OW38741   5.976   7.916  11.197  0.5431  0.0277 -0.4074
10627SOL    HW138742   5.975   7.885  11.107  0.4378 -1.2454  0.0158
10627SOL    HW238743   6.069   7.924  11.219  0.5725  0.9640 -0.8181
10628SOL     OW38744   7.092   4.118   2.152 -0.2506  0.3845  0.0731
10628SOL    HW138745   7.164   4.082   2.099 -1.3328 -1.6118 -0.1322
10628SOL    HW238746   7.131   4.129   2.239 -0.0379 -2.2015  0.3867
10629SOL     OW38747  12.069   8.625   7.275  0.3823  0.3717  0.3421
10629SOL    HW138748  12.076   8.598   7.183  0.6104 -1.1114  0.7765
10629SOL    HW238749  12.147   8.677   7.291  0.2916  0.7223 -0.3308
10630SOL     OW38750  10.344   4.008   6.265  0.1977  0.0507  0.5544
10630SOL    HW138751  10.346   3.950   6.189  1.0796  0.8734 -0.0763
10630SOL    HW238752  10.350   3.949   6.340 -0.4150 -0.7523 -0.0160
10631SOL     OW38753   5.609   6.151   7.211 -0.1814 -0.0919 -0.4547
10631SOL    HW138754   5.543   6.205   7.167  1.6727  0.2389 -3.0754
10631SOL    HW238755   5.635   6.202   7.287 -0.6428  1.3068 -1.1878
10632SOL     OW38756   3.046   6.514   7.265  0.8092  0.5576  0.0965
10632SOL    HW138757   3.128   6.464   7.268  0.2235 -0.3937  1.2856
10632SOL    HW238758   2.988   6.469   7.326 -1.3636 -0.0399 -2.2426
10633SOL     OW38759   5.132   3.155   4.433 -0.0859  0.2172 -0.0709
10633SOL    HW138760   5.108   3.153   4.526 -1.0192  2.6265 -0.1939
10633SOL    HW238761   5.214   3.203   4.431  0.2741 -0.4023 -0.4619
10634SOL     OW38762   4.321   4.075   7.010 -0.7101 -0.5559  0.1266
10634SOL    HW138763   4.227   4.075   6.993 -0.5880 -1.4363 -0.6107
10634SOL    HW238764   4.329   4.099   7.103 -1.6709 -0.8163  0.2806
10635SOL     OW38765  11.558   2.591   7.105  0.1562 -0.6743  0.4419
10635SOL    HW138766  11.478   2.614   7.057  0.2539 -0.1245  0.5411
10635SOL    HW238767  11.575   2.666   7.162  1.8290  0.0725 -0.9683
10636SOL     OW38768   1.085   8.386  10.413  0.0902 -0.0629  0.7771
10636SOL    HW138769   1.043   8.371  10.498  0.0643  0.1942  0.8114
10636SOL    HW238770   1.135   8.307  10.397 -2.0245 -1.2924 -0.2327
10637SOL     OW38771  11.057   9.559   6.435  0.1158 -0.4565  0.0341
10637SOL    HW138772  11.127   9.594   6.490  0.4208 -1.8268  0.5738
10637SOL    HW238773  11.069   9.464   6.439 -2.4849 -0.8345  1.1563
10638SOL     OW38774   2.933   7.428   6.963 -0.5171  0.0804  0.0002
10638SOL    HW138775   3.001   7.481   6.920 -0.3212  1.1791  1.5786
10638SOL    HW238776   2.978   7.350   6.993 -0.1906  0.2906  0.0592
10639SOL     OW38777   5.097  10.007   7.300  0.3513 -0.5230 -0.1937
10639SOL    HW138778   5.007  10.038   7.308  0.5637 -0.0580  0.5017
10639SOL    HW238779   5.095   9.947   7.226 -1.0052 -2.3200  1.2233
10640SOL     OW38780   8.171   6.497   0.907  0.4457  0.1105 -0.0258
10640SOL    HW138781   8.206   6.575   0.951 -0.6965  2.4629 -2.9570
10640SOL    HW238782   8.196   6.508   0.815 -2.7709 -1.1479 -1.1779
10641SOL     OW38783   0.495   7.333   9.227 -0.3064  0.8469 -1.2750
10641SOL    HW138784   0.508   7.365   9.317 -1.2450  1.8384 -1.4791
10641SOL    HW238785   0.441   7.399   9.185 -2.0951 -0.8689 -1.8161
10642SOL     OW38786   7.163   9.555  11.721 -0.4843 -0.3174  0.0143
10642SOL    HW138787   7.139   9.469  11.685  1.7936 -0.3925 -1.4795
10642SOL    HW238788   7.202   9.602  11.648 -0.3903  1.4998  1.1657
10643SOL     OW38789   5.686   2.981   4.245  0.0299  0.7065  0.4924
10643SOL    HW138790   5.677   2.947   4.333 -0.2152  0.1505  0.2579
10643SOL    HW238791   5.760   3.042   4.250  0.8713 -0.3098  0.7851
10644SOL     OW38792  10.753   3.235   1.002  0.0940 -0.1638  0.1411
10644SOL    HW138793  10.788   3.177   0.934  1.2858  0.6220  0.0507
10644SOL    HW238794  10.824   3.296   1.020 -0.4253  0.0212  1.6780
10645SOL     OW38795   9.346   1.547  11.632 -0.4541  0.3285  0.0106
10645SOL    HW138796   9.440   1.535  11.650 -0.4224  1.9052  1.0695
10645SOL    HW238797   9.333   1.503  11.548  1.4798  1.0331 -0.7280
10646SOL     OW38798   5.601   8.990  11.195  0.6822 -0.6331  0.2834
10646SOL    HW138799   5.545   9.001  11.117  1.8478 -0.4136 -0.5434
10646SOL    HW238800   5.609   8.895  11.205  1.8111 -0.6763 -0.8315
10647SOL     OW38801   9.327  11.940  11.249  0.3515  0.6385 -0.0710
10647SOL    HW138802   9.265  12.012  11.250 -1.5087 -0.8697  0.3001
10647SOL    HW238803   9.354  11.930  11.341 -1.8856 -1.0669  0.4909
10648SOL     OW38804   4.801   7.270   3.498  0.6567  0.0784 -0.5549
10648SOL    HW138805   4.810   7.183   3.538  1.2541 -0.0364 -0.9283
10648SOL    HW238806   4.872   7.322   3.536 -0.1667  0.6497  0.2620
10649SOL     OW38807   2.397   8.003  11.730 -0.1005 -0.2505 -0.1288
10649SOL    HW138808   2.407   7.948  11.652 -1.3370  0.9987 -1.2290
10649SOL    HW238809   2.354   7.946  11.794 -0.1082 -0.9689 -0.7527
10650SOL     OW38810   1.726   4.868  11.515  0.2684  0.0116  0.3500
10650SOL    HW138811   1.689   4.911  11.438 -0.3457 -0.5970  0.2981
10650SOL    HW238812   1.723   4.935  11.583 -0.0036  0.2780  0.0776
10651SOL     OW38813   6.028   0.492  11.119  0.5106 -0.2008 -0.4165
10651SOL    HW138814   6.040   0.475  11.213  0.4910  1.6145 -0.0559
10651SOL    HW238815   5.951   0.441  11.095 -0.6398  0.7871  1.0183
10652SOL     OW38816   8.232   6.638   7.477 -0.2663 -0.4080 -0.3206
10652SOL    HW138817   8.277   6.708   7.524  0.5172 -2.1881  1.7704
10652SOL    HW238818   8.304   6.584   7.441 -0.8279 -0.7616 -0.9396
10653SOL     OW38819   7.780   3.990   1.075 -0.2879 -0.4234  0.0097
10653SOL    HW138820   7.868   3.970   1.108 -0.3891 -0.3352  0.3398
10653SOL    HW238821   7.738   3.905   1.065 -0.2209 -0.4567  0.0057
10654SOL     OW38822   3.435  10.313   5.303  0.3298 -0.4864 -0.1912
10654SOL    HW138823   3.365  10.311   5.368 -0.7305 -0.1261 -1.3029
10654SOL    HW238824   3.460  10.406   5.298  1.0597 -0.6356  0.3446
10655SOL     OW38825   9.687   3.776  10.988  0.0617  0.1640 -0.3304
10655SOL    HW138826   9.716   3.735  11.070 -1.2513 -2.9091 -1.2628
10655SOL    HW238827   9.768   3.809  10.948  0.7693  1.4724  1.9735
10656SOL     OW38828   0.178   1.817  12.232  0.4047 -0.1395 -0.1671
10656SOL    HW138829   0.218   1.754  12.173 -0.3329  0.0135 -0.8491
10656SOL    HW238830   0.127   1.764  12.293  1.7967 -0.3528  0.8621
10657SOL     OW38831   2.775   5.807  11.012  0.0487  0.0004  0.2586
10657SOL    HW138832   2.829   5.759  10.949 -0.3765 -0.7960  0.4842
10657SOL    HW238833   2.827   5.809  11.092  0.2597  0.3190  0.1134
10658SOL     OW38834   9.985   1.901   5.897  0.2904  0.2458  0.2881
10658SOL    HW138835  10.069   1.920   5.854 -0.1857 -0.1938 -0.8767
10658SOL    HW238836   9.991   1.809   5.923  0.3133  0.3200  0.5460
10659SOL     OW38837   9.693   2.411  11.105 -0.2546  0.1024  0.4771
10659SOL    HW138838   9.778   2.412  11.149 -0.1995 -1.8360  0.5285
10659SOL    HW238839   9.714   2.421  11.012 -0.2157  2.2285  0.6750
10660SOL     OW38840   8.481   2.192   1.784  0.4891  0.1517  0.0597
10660SOL    HW138841   8.441   2.215   1.867  0.6754 -1.2122  0.5465
10660SOL    HW238842   8.534   2.269   1.761 -3.7906  2.9360 -1.6275
10661SOL     OW38843   9.620   2.268  11.585  0.7541  0.4884 -0.2829
10661SOL    HW138844   9.563   2.345  11.576  1.5126  1.3825  1.8512
10661SOL    HW238845   9.599   2.233  11.672  2.0846 -0.3067 -0.2565
10662SOL     OW38846   8.900   5.904   1.139  0.0608 -0.0747  0.0843
10662SOL    HW138847   8.952   5.826   1.123 -0.2213  0.2025 -2.6843
10662SOL    HW238848   8.961   5.966   1.179 -0.1368 -2.1431  4.0109
10663SOL     OW38849   0.677   3.114  10.915  0.0750  0.1585  0.1131
10663SOL    HW138850   0.634   3.176  10.974  0.3427  0.1462  0.3206
10663SOL    HW238851   0.612   3.045  10.901 -0.3065  0.5890 -0.2920
10664SOL     OW38852  11.466   8.317   2.594 -0.3333 -0.5110 -0.0266
10664SOL    HW138853  11.507   8.240   2.633  2.0826  0.5422 -0.2957
10664SOL    HW238854  11.510   8.391   2.636 -2.2647  0.7290 -0.1061
10665SOL     OW38855  10.950   0.421  10.039  0.2887 -0.7085 -0.4692
10665SOL    HW138856  10.860   0.422  10.072 -0.4428 -1.8279 -2.2970
10665SOL    HW238857  11.003   0.391  10.113 -0.9554 -0.9172  0.3575
10666SOL     OW38858   2.046   2.964   0.428 -0.3637  0.2870  0.4799
10666SOL    HW138859   2.137   2.981   0.453 -0.6697  1.5637  0.7859
10666SOL    HW238860   2.016   2.898   0.491  0.4808 -0.5038  0.0728
10667SOL     OW38861  12.053   9.491   9.356  0.1002 -0.1229 -0.0747
10667SOL    HW138862  12.120   9.429   9.384 -0.3556  0.0373  1.5234
10667SOL    HW238863  12.015   9.523   9.438 -1.5479  0.2114 -0.9222
10668SOL     OW38864   2.372   9.853   6.368 -0.3882 -0.2248  0.1929
10668SOL    HW138865   2.425   9.851   6.288  0.6330  1.6082  0.7666
10668SOL    HW238866   2.329   9.939   6.365 -1.1814 -0.5776  1.0986
10669SOL     OW38867   5.525   2.406   5.609 -0.5087 -0.3976 -0.2981
10669SOL    HW138868   5.600   2.363   5.650  1.5453  2.1021 -1.1720
10669SOL    HW238869   5.482   2.453   5.680  0.6285  0.6339 -0.2651
10670SOL     OW38870   9.725  11.384   5.486 -0.2075 -0.3525  0.1834
10670SOL    HW138871   9.732  11.323   5.413  3.5267 -1.5620  1.3342
10670SOL    HW238872   9.798  11.445   5.474 -0.6561  0.6111  1.9243
10671SOL     OW38873   3.632   2.163   2.130 -0.7247 -0.3739  0.0733
10671SOL    HW138874   3.683   2.146   2.210  1.7575  0.6200 -1.1842
10671SOL    HW238875   3.592   2.079   2.109  0.0817 -1.1180  1.3654
10672SOL     OW38876   8.579   5.018   3.280 -0.1828  0.3309 -0.4347
10672SOL    HW138877   8.496   4.976   3.300 -0.4987  0.0771 -2.1216
10672SOL    HW238878   8.628   4.951   3.232  0.1683  1.1537 -1.2553
10673SOL     OW38879  12.245   5.823   9.297 -0.2626 -0.2641  0.1217
10673SOL    HW138880  12.294   5.894   9.256 -0.7923 -0.2553 -0.5148
10673SOL    HW238881  12.266   5.746   9.244 -1.2229 -0.1868 -0.4069
10674SOL     OW38882  11.069   3.374  12.087  0.0414  0.5134 -0.2629
10674SOL    HW138883  11.122   3.402  12.013  0.3390 -0.7909 -0.5719
10674SOL    HW238884  10.980   3.399  12.063  0.1837  0.4363 -0.8967
10675SOL     OW38885  11.704   6.642   7.139  0.0064  0.6243  0.5752
10675SOL    HW138886  11.645   6.689   7.197 -0.9981  0.3546 -0.1930
10675SOL    HW238887  11.736   6.709   7.079 -1.8741  0.3234 -0.8878
10676SOL     OW38888   6.306   2.801   1.829  0.0462  0.1347  0.1676
10676SOL    HW138889   6.226   2.850   1.808 -1.3221 -1.9334  0.3577
10676SOL    HW238890   6.295   2.776   1.921 -0.3242 -2.2688 -0.4651
10677SOL     OW38891   4.133   8.190   0.256 -0.2888 -0.2607 -0.0791
10677SOL    HW138892   4.170   8.110   0.218  0.1361 -0.2156  0.2358
10677SOL    HW238893   4.143   8.179   0.350  0.1524  0.3391 -0.0462
10678SOL     OW38894   4.099   3.630   5.543  0.5067  0.0136  0.0824
10678SOL    HW138895   4.162   3.579   5.593  0.1623 -0.2881  0.2075
10678SOL    HW238896   4.021   3.632   5.597 -0.1025 -0.8940 -0.7294
10679SOL     OW38897   2.644   5.286   7.406  0.6364  0.1667 -0.2439
10679SOL    HW138898   2.604   5.251   7.327 -1.0424 -2.1334  1.4774
10679SOL    HW238899   2.722   5.233   7.419 -0.2277 -0.9569  0.6807
10680SOL     OW38900  10.765   0.942   7.008 -0.5297  0.4957  0.0136
10680SOL    HW138901  10.824   0.929   6.934 -1.2739 -1.7406 -0.2405
10680SOL    HW238902  10.743   1.036   7.005  0.6822  0.7629 -1.6279
10681SOL     OW38903   0.235   9.607   7.842 -0.3045 -0.4428 -0.2003
10681SOL    HW138904   0.316   9.557   7.851 -0.2863 -0.3725  0.0540
10681SOL    HW238905   0.256   9.676   7.779  0.3481  0.5897  1.0800
10682SOL     OW38906   6.149   6.535   0.450  0.5992  0.0881  0.3242
10682SOL    HW138907   6.163   6.441   0.434 -1.4172 -0.4582  1.4528
10682SOL    HW238908   6.147   6.543   0.545  2.6818  1.6512  0.2959
10683SOL     OW38909  10.593   0.816  10.268 -0.3707  0.0150  0.3917
10683SOL    HW138910  10.622   0.864  10.191 -0.6764  0.3532  0.4893
10683SOL    HW238911  10.661   0.832  10.334  0.1690 -0.7186  0.0226
10684SOL     OW38912   3.442   5.724  11.977 -0.1143 -0.4447 -0.1067
10684SOL    HW138913   3.423   5.735  11.884 -0.9459  1.9904  0.2885
10684SOL    HW238914   3.399   5.798  12.019 -1.9719 -2.8695  2.5603
10685SOL     OW38915   2.243  12.058   1.008  0.0987  0.6733 -0.4745
10685SOL    HW138916   2.339  12.054   1.011  0.1540 -0.6925 -2.3345
10685SOL    HW238917   2.216  11.966   1.004 -1.3724  0.9949  1.1323
10686SOL     OW38918   6.872   8.786   4.612 -0.2497 -0.4071  0.0713
10686SOL    HW138919   6.906   8.828   4.690  0.0064 -0.2159 -0.1404
10686SOL    HW238920   6.854   8.696   4.639  0.5115 -0.5340  0.1637
10687SOL     OW38921   4.171   0.676   0.414  0.1106  0.4004  0.4324
10687SOL    HW138922   4.159   0.597   0.468  0.2779  0.7454  0.9908
10687SOL    HW238923   4.229   0.731   0.467 -0.7798  1.3067  0.4798
10688SOL     OW38924  10.038   7.405  10.871 -0.0921 -0.4110 -0.1692
10688SOL    HW138925  10.095   7.329  10.864  0.4658 -0.3289  2.4220
10688SOL    HW238926  10.083   7.473  10.821  1.8928 -0.5040  1.3539
10689SOL     OW38927  10.012  11.784  11.593  0.0452  0.2625  0.2800
10689SOL    HW138928  10.075  11.740  11.536  3.2047  1.5449  2.4924
10689SOL    HW238929   9.946  11.821  11.534 -0.3695 -3.5713 -1.9538
10690SOL     OW38930  10.077   6.895   0.361 -0.3227  0.0068  0.4298
10690SOL    HW138931  10.128   6.844   0.299  0.7797  0.0728  1.2605
10690SOL    HW238932  10.142   6.943   0.413 -1.1583 -0.6015  2.1102
10691SOL     OW38933   8.536   8.635   4.027  0.1267  0.3517 -0.4908
10691SOL    HW138934   8.621   8.604   3.997  0.7177  1.1930  0.2235
10691SOL    HW238935   8.535   8.728   4.004  0.0251  0.6910  0.7727
10692SOL     OW38936   4.671   1.339  10.826  0.2013 -0.6618  0.2131
10692SOL    HW138937   4.738   1.387  10.778 -0.1061 -0.2749  0.1739
10692SOL    HW238938   4.706   1.250  10.832 -0.4971 -1.1707 -2.1875
10693SOL     OW38939   0.499   9.375   5.255  0.0028 -0.2439  0.3298
10693SOL    HW138940   0.446   9.454   5.254 -0.9486 -0.8213  1.6265
10693SOL    HW238941   0.585   9.404   5.285 -0.1853  0.3682  0.2934
10694SOL     OW38942   7.036   9.424   1.155 -0.2002 -0.2170 -0.4000
10694SOL    HW138943   7.007   9.514   1.164 -2.1826 -0.6945 -1.3970
10694SOL    HW238944   7.009   9.381   1.237  0.6332  0.0397  0.0218
10695SOL     OW38945  11.945   6.819   1.653 -0.0337  0.4924 -0.0975
10695SOL    HW138946  11.894   6.878   1.709 -0.0919  0.5096 -0.1681
10695SOL    HW238947  11.952   6.866   1.569 -0.0768  0.4009 -0.1527
10696SOL     OW38948   2.427  11.706   1.755 -0.0217  0.4113  0.1879
10696SOL    HW138949   2.390  11.652   1.685  1.8688  1.1127 -1.4696
10696SOL    HW238950   2.374  11.786   1.754 -0.5367  0.0729  0.1427
10697SOL     OW38951   4.345  11.645  11.443  0.1417 -0.7155  0.0189
10697SOL    HW138952   4.351  11.719  11.504 -1.4347  0.6086 -1.3320
10697SOL    HW238953   4.307  11.682  11.364  0.3048 -2.7895 -1.1041
10698SOL     OW38954   6.920   5.011   7.221  0.2092 -0.4073 -0.5325
10698SOL    HW138955   6.976   5.061   7.281  3.0488 -0.4438 -2.8922
10698SOL    HW238956   6.900   5.072   7.151 -2.3116 -0.6232 -0.0948
10699SOL     OW38957   6.242   2.217   1.283  0.2338  0.2134  0.0454
10699SOL    HW138958   6.320   2.163   1.297  1.0744  1.2845 -0.3616
10699SOL    HW238959   6.249   2.287   1.347  0.5962  1.3583 -1.2028
10700SOL     OW38960   5.204   6.800   6.150  0.5602  0.1585  0.3811
10700SOL    HW138961   5.276   6.816   6.211  2.0543  0.5920 -1.3956
10700SOL    HW238962   5.222   6.858   6.077 -2.1022  0.9064  0.2171
10701SOL     OW38963   6.624  11.024  11.883  0.1376 -0.1936 -0.0681
10701SOL    HW138964   6.623  11.116  11.910 -1.0089 -0.1701 -0.1514
10701SOL    HW238965   6.700  11.017  11.826 -0.2855  0.9197 -0.8065
10702SOL     OW38966   2.473   1.095  11.471 -0.2157 -0.8294  0.3774
10702SOL    HW138967   2.541   1.072  11.407  0.6699  0.5797  0.7801
10702SOL    HW238968   2.511   1.071  11.555 -1.1021 -2.0173  0.4659
10703SOL     OW38969   8.753   1.511  10.121  0.3021 -0.3821  0.3541
10703SOL    HW138970   8.755   1.521  10.216  0.1521  2.4869  0.1513
10703SOL    HW238971   8.739   1.418  10.106  0.3471 -0.8972  3.1348
10704SOL     OW38972   0.178  12.082   2.320 -0.0381  0.3400  0.2402
10704SOL    HW138973   0.143  12.024   2.252  2.4987  0.0402 -0.9103
10704SOL    HW238974   0.203  12.023   2.391  1.7142  0.0448 -0.5686
10705SOL     OW38975  11.606   9.163   8.300  0.0345  0.5234 -0.2815
10705SOL    HW138976  11.571   9.212   8.226  1.7568  0.7900 -0.9569
10705SOL    HW238977  11.623   9.075   8.264 -1.5255 -0.1475  0.5045
10706SOL     OW38978   5.293   9.752  12.370  0.6231 -0.1411  0.0523
10706SOL    HW138979   5.304   9.838  12.410 -0.7828  0.2389 -0.3024
10706SOL    HW238980   5.242   9.702  12.434  0.9371 -0.5236  0.0091
10707SOL     OW38981   4.409   5.706   5.333 -0.1397  0.4159 -0.3851
10707SOL    HW138982   4.504   5.715   5.341 -0.2779  0.8103  0.8766
10707SOL    HW238983   4.373   5.775   5.388 -1.1670 -0.4483  0.0649
10708SOL     OW38984   4.078  10.900   0.852  0.3337  0.2800 -0.1455
10708SOL    HW138985   4.034  10.886   0.936 -0.4291  0.5353 -0.4930
10708SOL    HW238986   4.055  10.990   0.827 -1.4321 -0.5644 -1.7646
10709SOL     OW38987   0.475   5.706   5.050  0.6246  0.0641  0.0293
10709SOL    HW138988   0.481   5.622   5.097  2.9676 -0.0574 -0.3681
10709SOL    HW238989   0.436   5.683   4.965  0.5355 -0.4954  0.2167
10710SOL     OW38990   8.184   2.686   9.772  0.0755  0.0042 -0.7478
10710SOL    HW138991   8.223   2.598   9.771 -1.6978 -0.8663  0.2913
10710SOL    HW238992   8.130   2.688   9.694 -0.0938  0.0520 -0.6309
10711SOL     OW38993   6.120  10.139   6.704 -0.1707  0.2329  0.2554
10711SOL    HW138994   6.067  10.060   6.695 -1.7046  1.0893  1.4773
10711SOL    HW238995   6.069  10.208   6.661  1.5977  0.4434 -1.6818
10712SOL     OW38996   8.383   7.184  12.328  0.3359  0.0829 -0.6020
10712SOL    HW138997   8.397   7.089  12.323 -1.2982 -0.1796 -0.7459
10712SOL    HW238998   8.325   7.203  12.254 -1.9765  0.6435  1.2434
10713SOL     OW38999   3.056  10.149   6.456 -0.1412 -0.1328 -0.2667
10713SOL    HW139000   3.132  10.206   6.441 -0.2769  0.4836  1.2262
10713SOL    HW239001   2.986  10.189   6.404  0.2210  0.0412 -0.6315
10714SOL     OW39002   6.447   6.328   9.599  0.5171 -0.0733  0.1375
10714SOL    HW139003   6.371   6.357   9.650  0.0789  0.0448 -0.5775
10714SOL    HW239004   6.428   6.236   9.579 -1.0104  0.7718 -2.7805
10715SOL     OW39005   0.883  10.279  11.752 -0.4774 -0.1651 -0.4047
10715SOL    HW139006   0.848  10.246  11.670  1.1076 -1.0156 -0.7863
10715SOL    HW239007   0.968  10.317  11.729  0.0649 -0.5417  0.8415
10716SOL     OW39008   8.253   2.377   2.620 -0.1474 -0.4876  0.7830
10716SOL    HW139009   8.158   2.369   2.622 -0.2010  0.1554  0.8431
10716SOL    HW239010   8.285   2.294   2.657 -0.6790 -0.6780  0.8214
10717SOL     OW39011   3.715  10.702   5.315 -0.2678 -0.0846 -0.8199
10717SOL    HW139012   3.623  10.676   5.310  0.0059 -1.9640  1.9369
10717SOL    HW239013   3.760  10.626   5.352  2.5273  0.6154 -2.4794
10718SOL     OW39014   8.564   3.524   8.761 -0.2154  0.0972 -0.0721
10718SOL    HW139015   8.618   3.564   8.829  0.3545  1.4892 -1.2673
10718SOL    HW239016   8.477   3.560   8.775 -0.2573 -0.1688  0.3423
10719SOL     OW39017   4.082   8.760   8.222 -0.0509 -0.1870 -0.0475
10719SOL    HW139018   3.997   8.773   8.181 -0.0327 -1.7485 -0.6549
10719SOL    HW239019   4.062   8.746   8.315 -0.3499  0.4545 -0.0086
10720SOL     OW39020  12.358   9.701   1.825  0.4667  0.1591 -0.3526
10720SOL    HW139021  12.371   9.755   1.903  2.0308  0.0465 -0.5022
10720SOL    HW239022  12.270   9.725   1.794  0.9239  2.3028 -0.1622
10721SOL     OW39023   9.730   8.710   4.539 -0.3897  1.0706  0.1055
10721SOL    HW139024   9.717   8.788   4.593 -1.8572  1.6420 -1.0340
10721SOL    HW239025   9.757   8.744   4.454 -0.1138  0.2689 -0.1374
10722SOL     OW39026  12.386  10.171   1.215 -0.5012  0.1191 -0.2168
10722SOL    HW139027  12.369  10.079   1.234  2.6409 -0.6900 -0.7991
10722SOL    HW239028  12.362  10.182   1.123  0.1818 -0.4628 -0.4753
10723SOL     OW39029   1.240  10.562   2.438 -0.0866 -0.2633 -0.4680
10723SOL    HW139030   1.291  10.619   2.494 -0.2739  0.8010 -1.3422
10723SOL    HW239031   1.304  10.504   2.397  0.0575 -0.9940  0.7418
10724SOL     OW39032  11.297   8.350   8.371 -0.1064  0.3613 -0.2103
10724SOL    HW139033  11.261   8.439   8.366 -0.4159  0.2589  0.1260
10724SOL    HW239034  11.287   8.326   8.463  2.2445  0.9109  0.2515
10725SOL     OW39035   3.140   6.163   2.824 -0.1503  0.5787  0.1572
10725SOL    HW139036   3.219   6.113   2.805  0.5636  1.2107  1.3668
10725SOL    HW239037   3.116   6.138   2.913 -2.5830 -1.2253 -0.8685
10726SOL     OW39038   3.605   0.890   2.299  0.1432  0.6394 -0.4822
10726SOL    HW139039   3.672   0.883   2.232 -0.1901  3.4529 -1.2428
10726SOL    HW239040   3.526   0.914   2.251 -1.4490 -2.2938  0.4272
10727SOL     OW39041  10.789   3.735   4.452  0.2396 -0.1590  0.0504
10727SOL    HW139042  10.763   3.797   4.520 -2.0650 -1.2966  0.3023
10727SOL    HW239043  10.706   3.705   4.414  1.3929 -0.9845 -1.9794
10728SOL     OW39044   3.018   7.877   0.733  0.3030 -0.4924  0.6266
10728SOL    HW139045   2.995   7.784   0.725 -0.6277 -0.3643  1.6135
10728SOL    HW239046   3.090   7.889   0.671  0.0158 -1.7267  0.0119
10729SOL     OW39047  10.842  12.231   8.462  0.0124  0.1215 -0.0030
10729SOL    HW139048  10.771  12.173   8.488 -0.2138  0.0912 -0.6817
10729SOL    HW239049  10.888  12.182   8.393  1.2000 -0.2245  0.9948
10730SOL     OW39050  12.166   8.867   2.142 -0.1923 -0.0310  0.1023
10730SOL    HW139051  12.098   8.876   2.075 -0.7045 -2.2051  0.2452
10730SOL    HW239052  12.234   8.814   2.099  0.8583  1.0658  0.3666
10731SOL     OW39053   3.772   2.377  10.792  0.2109  0.5100  0.0898
10731SOL    HW139054   3.763   2.381  10.697  0.9071  1.0892  0.0474
10731SOL    HW239055   3.865   2.392  10.809 -0.2065  2.5046  0.9586
10732SOL     OW39056   1.415   4.843   2.670  0.3057  0.2122 -0.2249
10732SOL    HW139057   1.377   4.764   2.633  1.1600  0.0715 -0.8369
10732SOL    HW239058   1.340   4.899   2.690 -0.2793 -0.5806 -0.1772
10733SOL     OW39059   7.729   0.551   4.661 -0.5678  0.4284 -0.3472
10733SOL    HW139060   7.735   0.620   4.595  1.7698  0.2894 -0.3676
10733SOL    HW239061   7.725   0.470   4.611 -1.1348  0.4390 -0.3199
10734SOL     OW39062   8.199  10.988   7.442  0.0933  0.2872 -0.5101
10734SOL    HW139063   8.175  10.919   7.503  0.4033  1.7088  1.3101
10734SOL    HW239064   8.246  10.943   7.371  0.0899 -1.3633  0.4916
10735SOL     OW39065  10.606   6.939   3.494 -0.0739  0.0154 -0.6452
10735SOL    HW139066  10.695   6.953   3.528 -0.2247 -0.4203 -0.0540
10735SOL    HW239067  10.569   7.027   3.488  0.6190  0.2651 -1.5317
10736SOL     OW39068   1.675   4.856  12.037 -0.1978 -0.0719 -0.0794
10736SOL    HW139069   1.728   4.865  12.116  1.2617 -0.5923 -0.9554
10736SOL    HW239070   1.718   4.912  11.972 -0.4494 -0.8244 -0.9322
10737SOL     OW39071   1.378   1.102  11.584 -0.3456  0.3473 -0.1678
10737SOL    HW139072   1.330   1.110  11.502  0.2788 -1.2800 -0.7244
10737SOL    HW239073   1.464   1.140  11.565  1.0123 -2.9761 -1.4065
10738SOL     OW39074   7.443   8.279   6.590 -0.1177  0.4605 -0.4541
10738SOL    HW139075   7.418   8.324   6.670  0.2447  1.0708 -0.6752
10738SOL    HW239076   7.402   8.193   6.596  1.7654 -0.3835  1.4346
10739SOL     OW39077   9.204   8.716   4.882 -0.2190  0.0311  0.3144
10739SOL    HW139078   9.130   8.680   4.931 -1.9307  1.4645 -1.0792
10739SOL    HW239079   9.178   8.709   4.791  0.9451  1.4664 -0.1692
10740SOL     OW39080   1.706  11.150   2.713 -0.3454 -0.2717  0.0876
10740SOL    HW139081   1.631  11.207   2.701 -0.5591 -0.4171  0.7315
10740SOL    HW239082   1.669  11.062   2.716 -0.2444 -0.2822  1.2641
10741SOL     OW39083   3.688   7.460   6.874  0.3647  0.4430 -0.0563
10741SOL    HW139084   3.651   7.399   6.938  1.4385 -0.4559 -0.2536
10741SOL    HW239085   3.737   7.523   6.926 -0.8435  1.2506  0.1571
10742SOL     OW39086  12.403   6.344   0.220 -0.4793 -0.2303  0.6866
10742SOL    HW139087  12.366   6.310   0.301  0.2900 -0.1131  1.0940
10742SOL    HW239088  12.439   6.430   0.243 -0.6382 -0.0055  0.1239
10743SOL     OW39089   4.336   6.776   6.489 -0.0261  0.6007 -0.7334
10743SOL    HW139090   4.258   6.821   6.455  0.8772  1.9645 -1.0585
10743SOL    HW239091   4.357   6.711   6.421 -0.5594  0.5992 -0.9023
10744SOL     OW39092   7.851   6.135   4.891  0.2982 -0.1312 -0.3876
10744SOL    HW139093   7.878   6.211   4.840 -2.0469  0.8664 -0.2438
10744SOL    HW239094   7.781   6.095   4.839 -0.6250 -0.3623  0.9790
10745SOL     OW39095   3.811   3.867   5.006  0.0184  0.1949  0.3240
10745SOL    HW139096   3.860   3.927   4.948  0.0864 -1.4686 -1.4370
10745SOL    HW239097   3.860   3.869   5.088  2.2962 -0.3083 -0.9180
10746SOL     OW39098   5.189   9.452  11.032  0.1924 -0.1842 -0.3989
10746SOL    HW139099   5.228   9.461  11.119 -2.4116  1.0591  0.7384
10746SOL    HW239100   5.246   9.389  10.987  1.6008 -0.9159  2.1837
10747SOL     OW39101   1.774   7.664   4.655 -0.4353  0.0252 -0.2766
10747SOL    HW139102   1.745   7.726   4.589 -0.5060 -0.1888 -0.4487
10747SOL    HW239103   1.737   7.580   4.628 -0.2703 -0.1095 -0.0946
10748SOL     OW39104   9.294   9.579   4.213 -0.1918 -0.2084 -0.1702
10748SOL    HW139105   9.276   9.672   4.195 -0.8312 -0.6660 -2.1002
10748SOL    HW239106   9.228   9.554   4.278  1.0433  1.0653  1.6810
10749SOL     OW39107   0.914   7.719   0.617  0.6575 -0.3385  0.2527
10749SOL    HW139108   0.917   7.635   0.663  2.0996 -0.9573 -0.8872
10749SOL    HW239109   0.996   7.762   0.639 -0.5842  1.3715  1.8067
10750SOL     OW39110  11.153   4.429   2.041 -0.4650 -0.1000  0.3139
10750SOL    HW139111  11.117   4.485   2.111 -1.7932 -0.8171  0.2263
10750SOL    HW239112  11.247   4.433   2.054 -0.4981  2.2268  0.2699
10751SOL     OW39113  12.433   6.299  11.924 -0.2000  0.3847 -0.5818
10751SOL    HW139114  12.502   6.238  11.951  0.2488  2.1131  2.6768
10751SOL    HW239115  12.354   6.266  11.968 -1.0125 -0.2534 -2.4075
10752SOL     OW39116   3.824   3.685   2.133 -0.4305  0.3069 -0.1820
10752SOL    HW139117   3.756   3.689   2.200 -0.2222 -0.0412  0.0530
10752SOL    HW239118   3.886   3.754   2.157 -0.3837  0.2179 -0.0526
10753SOL     OW39119   4.249   9.613   0.169  0.6938 -0.2133 -0.1771
10753SOL    HW139120   4.295   9.643   0.090  1.8290 -1.5272 -0.0424
10753SOL    HW239121   4.262   9.684   0.232 -0.5518  1.0286 -1.2388
10754SOL     OW39122   8.060   8.529   8.567 -0.7646  0.2746 -0.3022
10754SOL    HW139123   8.087   8.504   8.478  0.4607  1.7927 -0.4002
10754SOL    HW239124   8.072   8.624   8.570  1.5875  0.0123  2.2496
10755SOL     OW39125   0.988   5.396   8.646 -0.3273 -1.1406  0.0332
10755SOL    HW139126   0.963   5.382   8.738  0.9850 -1.8132  0.3117
10755SOL    HW239127   1.005   5.309   8.612  1.0420 -0.7753 -0.2854
10756SOL     OW39128   9.465  11.568   8.838 -0.1616  0.0599 -0.4182
10756SOL    HW139129   9.484  11.589   8.747  0.7425 -0.7850 -0.4366
10756SOL    HW239130   9.548  11.533   8.873 -0.2663  1.0808  0.9371
10757SOL     OW39131   2.630  11.103   2.802 -0.1564  0.6533 -0.2149
10757SOL    HW139132   2.597  11.021   2.839  0.4853  0.3523 -0.2862
10757SOL    HW239133   2.651  11.157   2.879  2.8140 -0.6168  0.0246
10758SOL     OW39134  11.525  11.300   4.143 -0.0508 -0.0303 -0.4111
10758SOL    HW139135  11.564  11.287   4.056  0.6896  2.3073 -0.5011
10758SOL    HW239136  11.599  11.315   4.201 -0.5486 -1.4823  0.6546
10759SOL     OW39137   3.810   8.447   0.592  0.2124  0.3343 -0.6549
10759SOL    HW139138   3.902   8.435   0.615  0.2451  0.1753 -0.8663
10759SOL    HW239139   3.799   8.396   0.511  0.0772  0.7948 -0.9305
10760SOL     OW39140   7.959   1.788   0.469 -0.1325  0.2791 -0.2739
10760SOL    HW139141   8.052   1.782   0.493 -0.8202 -2.3707  2.4967
10760SOL    HW239142   7.913   1.773   0.552 -3.1136  2.5212 -1.3680
10761SOL     OW39143   8.141  10.376   0.677 -0.1804  0.0415 -0.0190
10761SOL    HW139144   8.175  10.328   0.602 -0.3302  0.1346 -0.1482
10761SOL    HW239145   8.094  10.311   0.729 -0.7150  0.1157 -0.3921
10762SOL     OW39146   6.575   1.499  11.089 -0.1976 -0.0489  0.0430
10762SOL    HW139147   6.562   1.589  11.119 -0.3766  0.1303 -0.5533
10762SOL    HW239148   6.663   1.476  11.118  0.6014  0.9881 -1.3953
10763SOL     OW39149   5.203   3.090   3.918 -0.1317  0.1684  0.6324
10763SOL    HW139150   5.110   3.067   3.918  0.0018 -0.4348 -0.1070
10763SOL    HW239151   5.227   3.094   4.010 -0.6125 -0.8617  0.8189
10764SOL     OW39152   7.272  11.401   8.095 -0.2849  0.7127  0.5546
10764SOL    HW139153   7.200  11.462   8.113 -1.1113  0.6097 -2.0583
10764SOL    HW239154   7.351  11.456   8.098 -0.8574  1.6085 -0.2144
10765SOL     OW39155   7.677   0.570  11.801  0.4215  0.1649 -0.0273
10765SOL    HW139156   7.760   0.613  11.821  0.5921 -0.1333 -0.0870
10765SOL    HW239157   7.617   0.601  11.869  1.3379 -1.8911  1.8269
10766SOL     OW39158   3.333  11.237  11.245 -0.5516  0.4569  0.1946
10766SOL    HW139159   3.384  11.277  11.174 -0.5692  0.9384  0.4534
10766SOL    HW239160   3.252  11.207  11.202 -0.4819  0.5769 -0.0246
10767SOL     OW39161  11.401   9.264  10.858  0.1407  0.0738  0.2274
10767SOL    HW139162  11.321   9.274  10.909  0.0001 -1.7984  0.4610
10767SOL    HW239163  11.447   9.348  10.867 -0.3029  0.1159  2.6752
10768SOL     OW39164   2.103   2.250  11.252  0.5146 -0.1282 -0.1238
10768SOL    HW139165   2.099   2.186  11.323 -2.4060 -0.9336 -0.8830
10768SOL    HW239166   2.088   2.199  11.172 -1.7098  1.3478 -0.7631
10769SOL     OW39167  10.982   5.267   0.775 -0.4601 -0.0723  0.0061
10769SOL    HW139168  10.925   5.337   0.746  3.4310  4.1347  1.2790
10769SOL    HW239169  11.031   5.241   0.697 -0.5061  0.1127 -0.0835
10770SOL     OW39170   1.631   8.045   9.586  0.0991  0.4813 -0.2378
10770SOL    HW139171   1.608   8.116   9.646  0.2234  0.6939 -0.4402
10770SOL    HW239172   1.567   8.052   9.515 -0.1687  0.1084 -0.0323
10771SOL     OW39173   5.389   6.283   5.501 -0.0363 -0.1616 -0.1951
10771SOL    HW139174   5.400   6.322   5.588 -0.0900  0.7421 -0.5864
10771SOL    HW239175   5.306   6.235   5.508 -0.5159  0.6624 -0.0022
10772SOL     OW39176   5.421   8.259   2.914 -0.4521 -0.0849  0.4904
10772SOL    HW139177   5.407   8.168   2.891 -0.8422 -0.3050  1.5266
10772SOL    HW239178   5.423   8.260   3.010  0.5165  0.8531  0.4862
10773SOL     OW39179  12.147   9.202   0.191 -0.0816  0.1699  0.1525
10773SOL    HW139180  12.156   9.280   0.245  1.3603  1.1631 -1.4209
10773SOL    HW239181  12.079   9.223   0.128 -0.6333 -0.3787  0.5480
10774SOL     OW39182   8.556   1.664   7.586  0.2007  0.4882  0.5051
10774SOL    HW139183   8.587   1.701   7.503 -0.8654 -0.1615 -0.2053
10774SOL    HW239184   8.576   1.571   7.580 -0.7649  0.2679  0.5429
10775SOL     OW39185   9.307   2.614   4.499 -0.0679 -0.2259 -0.2420
10775SOL    HW139186   9.374   2.667   4.456  0.1173 -0.1709  0.1096
10775SOL    HW239187   9.355   2.538   4.531 -0.3149 -0.5605 -0.6582
10776SOL     OW39188  11.636   7.856   7.247  0.6437  0.0782 -0.3532
10776SOL    HW139189  11.682   7.939   7.241 -1.4964  1.3348 -0.1158
10776SOL    HW239190  11.629   7.839   7.341 -0.1117  0.3230 -0.3636
10777SOL     OW39191   5.458   0.002  10.144  0.0803  0.3598 -0.1676
10777SOL    HW139192   5.383   0.061  10.150  0.9146  1.4189 -0.0350
10777SOL    HW239193   5.523   0.038  10.205  0.0725 -1.5197  1.0503
10778SOL     OW39194  11.467   7.356   0.189 -0.4573  0.4925 -0.5848
10778SOL    HW139195  11.478   7.449   0.207  0.0472  0.5610 -1.2035
10778SOL    HW239196  11.507   7.311   0.264  1.1870  0.7666 -1.2571
10779SOL     OW39197   7.432   8.919   6.132 -0.2077 -0.1546 -0.5518
10779SOL    HW139198   7.419   8.961   6.047 -0.7537 -0.7331 -0.7653
10779SOL    HW239199   7.358   8.950   6.186  1.6952  2.5817  0.7185
10780SOL     OW39200   3.478   1.752  11.440  0.0418  0.2054 -0.0282
10780SOL    HW139201   3.403   1.767  11.498 -0.5735  1.7675 -1.1521
10780SOL    HW239202   3.542   1.818  11.468  1.3649 -1.5584  1.3905
10781SOL     OW39203   2.993  10.912   9.447 -0.0514 -0.3366 -0.1014
10781SOL    HW139204   2.942  10.969   9.389  2.0938 -0.1501 -1.9664
10781SOL    HW239205   2.966  10.823   9.424 -1.6282 -0.2115  1.0802
10782SOL     OW39206   5.413   2.013   7.642  0.1888  0.1179  0.2222
10782SOL    HW139207   5.455   2.007   7.556  1.6325  0.9143  0.8170
10782SOL    HW239208   5.389   1.924   7.664  0.5743 -0.2138 -0.6566
10783SOL     OW39209  12.326  10.014   8.790  0.1854 -0.1940 -0.3325
10783SOL    HW139210  12.352  10.017   8.698  0.2771 -1.5033 -0.3718
10783SOL    HW239211  12.237   9.980   8.789  0.2532 -0.3906  0.0720
10784SOL     OW39212   0.491  10.752   9.397  0.2904  0.2008  0.1215
10784SOL    HW139213   0.580  10.731   9.368  0.1657 -0.5356  0.2386
10784SOL    HW239214   0.493  10.738   9.492 -0.0387 -0.1529  0.0755
10785SOL     OW39215   0.336   1.037   3.184  0.2736 -0.1847 -0.1880
10785SOL    HW139216   0.282   0.960   3.200 -0.6338  0.4182 -0.2641
10785SOL    HW239217   0.391   1.045   3.263  1.0557 -1.4293 -0.5832
10786SOL     OW39218   1.018   5.653   7.762  0.6788  0.0091 -0.2157
10786SOL    HW139219   1.025   5.691   7.850 -1.9755  2.0039 -0.7106
10786SOL    HW239220   0.991   5.562   7.778  0.8162  0.1633  1.0276
10787SOL     OW39221   4.741   8.694   5.270  0.0503 -0.0568 -0.3580
10787SOL    HW139222   4.719   8.639   5.195  1.3170 -0.9773 -0.1053
10787SOL    HW239223   4.671   8.758   5.275 -1.0937 -1.2057 -1.1200
10788SOL     OW39224   8.940  10.266   3.843  0.3265  0.3302 -0.4344
10788SOL    HW139225   8.989  10.311   3.774  1.4324 -0.0055  0.1006
10788SOL    HW239226   8.966  10.311   3.924 -2.1210  1.7415 -0.3298
10789SOL     OW39227   3.725   1.509   8.176 -0.1881 -0.7326 -0.0488
10789SOL    HW139228   3.802   1.501   8.231  0.8740 -0.4857 -1.4380
10789SOL    HW239229   3.740   1.448   8.104 -1.0741 -0.3711 -0.5656
10790SOL     OW39230   8.125   7.621  11.052 -0.3517 -0.6752  0.1875
10790SOL    HW139231   8.207   7.577  11.076  0.6328  0.7944 -0.3657
10790SOL    HW239232   8.138   7.647  10.960 -2.4625 -2.6648 -0.7901
10791SOL     OW39233  11.529   4.221   2.171 -0.1361 -0.1259  0.0531
10791SOL    HW139234  11.449   4.202   2.221 -1.6817  2.6011 -1.1318
10791SOL    HW239235  11.591   4.253   2.237 -0.3579 -1.2993  0.8582
10792SOL     OW39236  11.671   8.751   2.145 -0.1251 -0.2129 -0.0743
10792SOL    HW139237  11.606   8.805   2.099 -0.7729 -1.2019 -0.3554
10792SOL    HW239238  11.618   8.694   2.202  0.5511 -0.4877  0.2851
10793SOL     OW39239   4.986   8.728  10.190 -0.2348  0.4171  0.3027
10793SOL    HW139240   4.919   8.686  10.243  0.6011 -1.2011  0.1505
10793SOL    HW239241   5.057   8.745  10.252  1.0698 -2.1984 -0.3066
10794SOL     OW39242   9.454   1.489   2.548 -0.3083  0.2834  0.1180
10794SOL    HW139243   9.366   1.455   2.562 -0.4924  1.4075  2.0330
10794SOL    HW239244   9.510   1.436   2.604  0.0013  0.5310  0.0469
10795SOL     OW39245  10.305   3.849   9.395 -0.2609  0.7216  0.3107
10795SOL    HW139246  10.324   3.863   9.488  0.6783  2.8541 -0.1496
10795SOL    HW239247  10.212   3.873   9.386 -0.5446 -0.1486  0.7926
10796SOL     OW39248   1.867   9.473   0.311 -0.3645 -0.5123 -0.4272
10796SOL    HW139249   1.832   9.563   0.305 -0.1231 -0.3099  1.0083
10796SOL    HW239250   1.921   9.464   0.233 -1.1544  0.2474 -1.0963
10797SOL     OW39251   6.302   8.732   6.901 -0.2325 -0.3623 -0.2168
10797SOL    HW139252   6.386   8.756   6.940 -0.3073  0.0235 -0.2904
10797SOL    HW239253   6.242   8.724   6.975 -0.2200 -0.2744 -0.1976
10798SOL     OW39254   6.059   6.954  10.192  0.7751  0.8928 -0.2224
10798SOL    HW139255   6.111   6.879  10.221  0.3901  0.0911 -1.5497
10798SOL    HW239256   5.980   6.916  10.155 -0.5514  2.0753  1.2548
10799SOL     OW39257  10.219   3.923  10.553 -0.0772  0.0702  0.4589
10799SOL    HW139258  10.152   3.861  10.581  0.5838 -0.4819  0.8414
10799SOL    HW239259  10.289   3.913  10.617  0.4543  0.5071 -0.0483
10800SOL     OW39260   1.830   6.521   0.694 -0.0875 -0.1495  0.2785
10800SOL    HW139261   1.896   6.507   0.762 -0.6602  0.4460  0.9807
10800SOL    HW239262   1.765   6.452   0.709 -0.4257  0.2362  0.6097
10801SOL     OW39263  10.284   5.398   1.739  0.1885  0.2144 -0.6030
10801SOL    HW139264  10.269   5.477   1.687 -1.7113  0.1719 -0.2011
10801SOL    HW239265  10.298   5.329   1.673  0.7297  0.6718 -0.9765
10802SOL     OW39266   0.996   0.011   9.731 -0.1213  0.4753  0.3214
10802SOL    HW139267   1.033   0.099   9.724 -0.2678  0.5345  0.2813
10802SOL    HW239268   0.923   0.011   9.669 -1.2335  0.9064  1.5857
10803SOL     OW39269   6.437   7.685   5.045 -0.3684 -0.4642 -0.4854
10803SOL    HW139270   6.527   7.717   5.051  0.2690 -1.9802 -1.5506
10803SOL    HW239271   6.441   7.595   5.078 -1.5379 -0.4997 -0.3891
10804SOL     OW39272   9.858   4.910   1.499  0.1702 -0.1127  0.1170
10804SOL    HW139273   9.823   4.913   1.588  0.5428 -0.4408  0.2809
10804SOL    HW239274   9.853   4.817   1.475 -1.8664  0.2364 -0.9954
10805SOL     OW39275   2.403   8.056   7.914  0.1399  0.0058 -0.5790
10805SOL    HW139276   2.374   8.137   7.872  0.5188  1.9077  2.5049
10805SOL    HW239277   2.322   8.008   7.933 -0.3014  0.8791 -0.2119
10806SOL     OW39278  11.533   6.712   0.691  0.3242 -0.4698 -0.0237
10806SOL    HW139279  11.591   6.773   0.736 -0.6625  1.7555 -1.5699
10806SOL    HW239280  11.534   6.741   0.599 -2.6135 -0.7643 -0.2632
10807SOL     OW39281   7.932   4.635   5.119 -0.2089  0.2859  0.2599
10807SOL    HW139282   7.873   4.709   5.134  1.2453  1.9384 -1.7018
10807SOL    HW239283   7.922   4.614   5.026  1.4453 -0.1349  0.1481
10808SOL     OW39284  11.031   4.906   3.702 -0.6767  0.5474 -0.3488
10808SOL    HW139285  11.040   4.860   3.619 -2.4072 -1.8229  0.6778
10808SOL    HW239286  11.116   4.894   3.745 -0.6172 -0.4538 -0.7221
10809SOL     OW39287   2.754   9.969  12.045 -0.0124 -0.3914  0.0157
10809SOL    HW139288   2.835   9.971  12.096 -0.7392 -0.9072  1.2287
10809SOL    HW239289   2.779  10.004  11.959  1.2293  0.5802  0.7352
10810SOL     OW39290  10.702   7.293   2.385 -0.3338 -0.0369 -0.2540
10810SOL    HW139291  10.748   7.367   2.346 -0.9053  2.0456  2.6283
10810SOL    HW239292  10.613   7.299   2.352 -0.5565  1.0709  0.4951
10811SOL     OW39293   3.102   3.738   3.339 -0.0140  0.7488 -0.2470
10811SOL    HW139294   3.141   3.652   3.358 -0.6055  0.3919 -0.6274
10811SOL    HW239295   3.156   3.773   3.268  0.0591  0.5719 -0.2802
10812SOL     OW39296  10.903  12.022   4.051 -0.1268 -0.2732 -0.2605
10812SOL    HW139297  10.810  12.014   4.030 -0.4825 -1.6963  1.6327
10812SOL    HW239298  10.910  12.107   4.096 -0.4258 -0.0169 -0.6860
10813SOL     OW39299   8.315   3.057   5.764 -0.1046  0.4289  0.4929
10813SOL    HW139300   8.373   3.007   5.706 -0.7486  1.0703 -0.7641
10813SOL    HW239301   8.361   3.139   5.778 -0.9979  1.2950 -1.2129
10814SOL     OW39302  10.477  10.742  11.776 -0.2674 -0.1164  0.1327
10814SOL    HW139303  10.534  10.690  11.832  2.7763  3.6765  1.0183
10814SOL    HW239304  10.416  10.785  11.837  0.3533  0.8731  0.0834
10815SOL     OW39305   8.584   7.313   7.317 -0.3740  0.4649 -0.5566
10815SOL    HW139306   8.665   7.334   7.271  0.0028  1.2995  0.4501
10815SOL    HW239307   8.604   7.235   7.368 -0.7859 -0.4484 -1.7538
10816SOL     OW39308   3.219  12.237   8.750  0.2221 -0.4458 -0.3780
10816SOL    HW139309   3.309  12.228   8.781  0.2032 -0.9961 -0.4810
10816SOL    HW239310   3.167  12.242   8.830  0.1739 -1.8667 -0.2971
10817SOL     OW39311   9.020   2.195   1.866  0.3130  0.6269 -0.0558
10817SOL    HW139312   9.002   2.283   1.833  1.0288  1.1652  0.9299
10817SOL    HW239313   9.102   2.204   1.916 -0.5146 -0.2129  1.5284
10818SOL     OW39314  10.012   7.750   1.935 -0.1227 -0.2706 -0.1134
10818SOL    HW139315   9.947   7.805   1.891 -1.0699 -1.4335 -0.2270
10818SOL    HW239316  10.043   7.690   1.867  0.6951 -0.0762  0.0708
10819SOL     OW39317  11.649   5.810   8.099  0.5911 -0.2425 -0.2128
10819SOL    HW139318  11.558   5.788   8.082  0.8507 -0.2095 -1.7962
10819SOL    HW239319  11.675   5.866   8.026  1.8656 -0.2307  0.2136
10820SOL     OW39320  10.228   4.620   8.992  0.0371 -0.4099  0.0395
10820SOL    HW139321  10.157   4.680   8.970  0.7929  0.8689  1.0001
10820SOL    HW239322  10.190   4.533   8.981 -1.7419  0.2455  0.7213
10821SOL     OW39323  10.128   9.394   6.408  0.3025  0.5683  0.3123
10821SOL    HW139324  10.113   9.312   6.455  1.8135  0.4555  0.6261
10821SOL    HW239325  10.208   9.379   6.357  0.6133  1.8476  0.3874
10822SOL     OW39326   6.813  11.581  11.202 -0.2123  0.0209 -0.1577
10822SOL    HW139327   6.898  11.553  11.168  1.1191 -0.0244  2.8943
10822SOL    HW239328   6.756  11.584  11.125  1.9054 -2.2665 -1.9614
10823SOL     OW39329   8.578   7.219  11.807 -0.2897  0.0046  0.2488
10823SOL    HW139330   8.630   7.254  11.880 -2.1306 -0.3519  1.8086
10823SOL    HW239331   8.522   7.293  11.781 -0.4359 -0.2048 -0.0312
10824SOL     OW39332   8.413   9.711  10.509 -0.6501 -0.4662 -0.4688
10824SOL    HW139333   8.329   9.708  10.463 -0.8411  0.3750 -0.2022
10824SOL    HW239334   8.406   9.643  10.576 -1.0588 -0.5057 -0.5453
10825SOL     OW39335   9.917   2.153   1.455  0.0496  0.5168  0.1483
10825SOL    HW139336   9.925   2.248   1.446  0.0089  0.4296 -0.9904
10825SOL    HW239337   9.976   2.118   1.388  0.3993 -0.2686  0.8525
10826SOL     OW39338   9.556   0.320   0.739  0.5154  0.1055 -0.4800
10826SOL    HW139339   9.561   0.413   0.761  0.8284  0.0009 -0.0929
10826SOL    HW239340   9.490   0.315   0.670 -0.1699  0.5033  0.1281
10827SOL     OW39341   4.972   9.642   0.698  0.0094 -0.3308 -0.4438
10827SOL    HW139342   4.977   9.658   0.604 -0.8475  0.7038 -0.3373
10827SOL    HW239343   5.056   9.673   0.732  0.5154 -1.1585 -0.9119
10828SOL     OW39344   7.399   2.229   9.456 -0.6328  0.1710 -0.8447
10828SOL    HW139345   7.348   2.159   9.497 -0.4003  0.5087  0.0488
10828SOL    HW239346   7.368   2.309   9.498 -0.0046  0.4731 -0.9473
10829SOL     OW39347   0.230   1.058  10.708 -0.0247  0.7142  0.0084
10829SOL    HW139348   0.258   0.972  10.740 -1.9297 -0.0297 -0.2306
10829SOL    HW239349   0.264   1.120  10.773 -1.4931 -0.5137  2.0465
10830SOL     OW39350   7.473   7.293   5.569 -0.0766  0.0287  0.5377
10830SOL    HW139351   7.442   7.212   5.610  1.9327 -2.6891 -2.8467
10830SOL    HW239352   7.560   7.307   5.606  0.1767 -0.2118  0.0361
10831SOL     OW39353   2.400   9.285   0.447  0.4612  0.2817 -0.0437
10831SOL    HW139354   2.388   9.289   0.541  0.2014 -0.1881 -0.0513
10831SOL    HW239355   2.486   9.324   0.431  0.3374  0.7111  0.3456
10832SOL     OW39356   8.016  11.632   1.905  0.0526 -0.0602  0.3552
10832SOL    HW139357   8.079  11.561   1.912  0.6797  0.0377 -2.8926
10832SOL    HW239358   8.069  11.710   1.888 -0.8264  0.3504 -0.5988
10833SOL     OW39359  10.218   6.541   8.420  0.3424 -0.5156  0.1116
10833SOL    HW139360  10.272   6.601   8.471  1.7052 -0.7754 -0.9465
10833SOL    HW239361  10.262   6.537   8.335 -1.0276 -1.2229 -0.5927
10834SOL     OW39362   9.157  10.661   2.733 -0.1979  0.1264 -0.1856
10834SOL    HW139363   9.222  10.730   2.741 -1.5047  1.3558  0.1393
10834SOL    HW239364   9.098  10.674   2.807 -2.1630  0.5265 -1.7222
10835SOL     OW39365   8.212  12.230   8.406 -0.1414 -0.0481 -0.0244
10835SOL    HW139366   8.242  12.144   8.436 -2.8509 -1.3942 -0.7728
10835SOL    HW239367   8.205  12.221   8.311  2.2857  2.0406 -0.4927
10836SOL     OW39368   8.512   6.732   1.902  0.1526  0.2903  0.4161
10836SOL    HW139369   8.545   6.819   1.924 -0.4162  0.2589  1.4548
10836SOL    HW239370   8.503   6.687   1.986 -2.6157  0.3595  0.2709
10837SOL     OW39371  10.953   5.093   2.561 -0.2512 -0.4738 -0.0999
10837SOL    HW139372  10.957   5.104   2.466 -1.1761 -2.1742 -0.3857
10837SOL    HW239373  11.039   5.119   2.593  0.2893 -0.4965 -1.4911
10838SOL     OW39374   7.651  10.805   9.416 -0.2856  0.0379  0.5423
10838SOL    HW139375   7.742  10.801   9.384 -0.3223 -1.3086  0.5597
10838SOL    HW239376   7.659  10.833   9.507  0.1536 -0.5433  0.6888
10839SOL     OW39377   6.498  10.150   7.468  0.2244  0.2462  0.2197
10839SOL    HW139378   6.564  10.169   7.401  0.6731  2.5063  1.2290
10839SOL    HW239379   6.429  10.215   7.454 -0.7923 -0.7229  0.5325
10840SOL     OW39380   4.230   9.272   7.291 -0.5733 -0.1001 -0.5025
10840SOL    HW139381   4.302   9.277   7.228 -2.3454 -1.1723 -2.7662
10840SOL    HW239382   4.222   9.179   7.311 -0.7229  0.1161  0.4733
10841SOL     OW39383   1.941   3.465   5.130 -0.3792 -0.2947 -0.8139
10841SOL    HW139384   2.006   3.395   5.123 -1.7314 -1.7096  0.1044
10841SOL    HW239385   1.983   3.541   5.091  1.9996 -1.0290  0.1782
10842SOL     OW39386  10.171  10.106   9.556  0.6967 -0.1507  0.3296
10842SOL    HW139387  10.125  10.143   9.631 -1.0362  0.4468 -0.9885
10842SOL    HW239388  10.238  10.171   9.535 -2.3670  2.5877 -2.0274
10843SOL     OW39389   0.855   5.116   8.417  0.7553 -0.0633  0.4871
10843SOL    HW139390   0.897   5.101   8.502 -0.2141  1.4693  1.2886
10843SOL    HW239391   0.797   5.040   8.405  1.3622 -0.6017  0.8756
10844SOL     OW39392  11.538   7.138   1.236  0.3995  0.1023  0.4175
10844SOL    HW139393  11.510   7.225   1.208 -0.0045 -0.3587 -0.6688
10844SOL    HW239394  11.474   7.078   1.197  1.5737 -0.8003 -0.1759
10845SOL     OW39395   3.905   3.645   7.759  0.1552 -0.6694  0.4112
10845SOL    HW139396   3.987   3.599   7.743 -0.1245 -0.5987 -1.3546
10845SOL    HW239397   3.884   3.688   7.677 -0.6287  0.9906  1.4189
10846SOL     OW39398  11.796   0.629   5.670  0.6389  0.0530  0.3851
10846SOL    HW139399  11.793   0.546   5.719 -0.7632  0.2183  0.6148
10846SOL    HW239400  11.882   0.665   5.689  0.1658  0.0751  2.6872
10847SOL     OW39401  12.184  11.764  11.549  0.1854 -0.2203  0.2499
10847SOL    HW139402  12.221  11.757  11.636  1.9421  0.5151 -0.3924
10847SOL    HW239403  12.158  11.674  11.527  0.3847 -0.5364  1.2439
10848SOL     OW39404   0.962  11.529   2.168  0.1428 -0.5404  0.1477
10848SOL    HW139405   0.971  11.604   2.109  1.3952  0.2062  1.2263
10848SOL    HW239406   0.914  11.564   2.243 -1.0620 -1.3700 -0.2046
10849SOL     OW39407   3.335  10.215   1.769  0.3650 -0.1657 -0.7248
10849SOL    HW139408   3.362  10.151   1.835 -0.2597 -0.0583 -0.3572
10849SOL    HW239409   3.264  10.173   1.721 -0.5180  0.4946 -0.0339
10850SOL     OW39410  11.861  11.456   6.925 -0.1151  0.2149  0.1646
10850SOL    HW139411  11.838  11.383   6.868  1.9371  0.0059 -0.4522
10850SOL    HW239412  11.939  11.495   6.884  1.3667  0.1317  2.7292
10851SOL     OW39413   8.102   2.534   0.117 -0.6359 -0.5473 -0.4085
10851SOL    HW139414   8.103   2.464   0.052 -0.2913  0.6079 -1.7024
10851SOL    HW239415   8.164   2.506   0.184  0.3795 -0.9754 -1.4890
10852SOL     OW39416  11.150  10.814   1.913  0.5221  0.1056  0.4516
10852SOL    HW139417  11.179  10.731   1.874 -1.1958 -1.4293  2.2280
10852SOL    HW239418  11.199  10.820   1.995 -1.7212 -0.9702  1.9853
10853SOL     OW39419   5.915   5.108  10.498  0.0665 -0.0065 -0.1279
10853SOL    HW139420   5.853   5.119  10.425 -1.8480  1.3575  1.5742
10853SOL    HW239421   5.986   5.057  10.462 -1.4141 -0.4683 -2.6130
10854SOL     OW39422  11.047  10.339   5.972 -0.3127 -0.1647 -0.2805
10854SOL    HW139423  11.035  10.303   5.884 -2.1825 -1.3532  0.4124
10854SOL    HW239424  11.110  10.281   6.014  1.2425  0.8941 -1.0594
10855SOL     OW39425   8.671  11.331   1.475 -0.2125  0.8826 -0.1617
10855SOL    HW139426   8.650  11.388   1.401 -1.2438  1.5365  0.6222
10855SOL    HW239427   8.713  11.388   1.539 -1.1510  0.7591  0.5831
10856SOL     OW39428  12.193   3.315   8.163  0.8502 -0.5441  0.4623
10856SOL    HW139429  12.276   3.333   8.207 -1.2533  0.2620  4.5029
10856SOL    HW239430  12.175   3.223   8.182  1.2360 -1.0581 -1.3953
10857SOL     OW39431   3.025   1.293  12.185 -0.2138 -0.0537 -0.5234
10857SOL    HW139432   2.945   1.340  12.162  0.3310  0.1981 -2.0493
10857SOL    HW239433   3.003   1.244  12.264 -1.4009  1.1993 -0.0474
10858SOL     OW39434   9.795   5.387   3.230 -0.5090  0.9903  0.0632
10858SOL    HW139435   9.717   5.333   3.215  0.0671  0.1807 -0.0792
10858SOL    HW239436   9.804   5.438   3.149 -0.3873  0.4330 -0.2838
10859SOL     OW39437   4.288   6.104   9.002 -0.0511  0.3784 -0.2379
10859SOL    HW139438   4.374   6.061   9.006  1.1062  2.3403 -1.9315
10859SOL    HW239439   4.227   6.033   8.982  1.2742 -0.9409  0.1790
10860SOL     OW39440   1.903   8.049   4.853  0.0005  0.2369  0.5614
10860SOL    HW139441   1.817   8.053   4.811 -0.9411 -0.1817  2.3551
10860SOL    HW239442   1.897   8.112   4.925  0.8504 -0.4999  1.2886
10861SOL     OW39443   7.115   1.845   2.535 -0.1181  0.0588  0.3819
10861SOL    HW139444   7.039   1.810   2.488  0.6650 -0.6704 -0.3644
10861SOL    HW239445   7.081   1.864   2.623 -1.0175 -0.8281  0.2503
10862SOL     OW39446   9.135   7.131   9.797 -0.1342 -0.5048  0.4639
10862SOL    HW139447   9.192   7.180   9.856 -0.4450  0.3984  0.0209
10862SOL    HW239448   9.141   7.177   9.714  0.1920 -1.6818 -0.1937
10863SOL     OW39449   1.973   4.430   4.845  0.5230  0.2817  0.6005
10863SOL    HW139450   1.978   4.385   4.760 -1.4965  2.4486 -0.7754
10863SOL    HW239451   1.908   4.380   4.895  1.2925 -0.6562  0.7050
10864SOL     OW39452  10.839   6.074   1.167  0.2618  0.7240 -0.1529
10864SOL    HW139453  10.837   6.009   1.097  1.9974  1.3953 -0.8706
10864SOL    HW239454  10.860   6.024   1.246 -0.1813  0.1833 -0.3725
10865SOL     OW39455   3.977   0.301   7.601 -0.1378  0.1329  0.1810
10865SOL    HW139456   3.893   0.347   7.590 -1.1044 -1.6779 -0.4219
10865SOL    HW239457   4.033   0.365   7.644 -1.0631  2.2292 -1.5435
10866SOL     OW39458   5.710   4.951   9.328 -0.1913  0.3858  0.6200
10866SOL    HW139459   5.798   4.924   9.353  0.1722  0.3395 -0.6670
10866SOL    HW239460   5.664   4.964   9.412  0.7665 -0.4420  1.2921
10867SOL     OW39461   2.739   4.256   3.170 -0.3397 -0.0029 -0.2521
10867SOL    HW139462   2.691   4.338   3.158 -0.4665 -0.2325 -1.3952
10867SOL    HW239463   2.818   4.282   3.219 -2.2975  0.1358  3.1112
10868SOL     OW39464  12.289  12.174   2.659  0.1071  0.2994  0.5283
10868SOL    HW139465  12.244  12.106   2.609 -0.0345  0.5187  0.3511
10868SOL    HW239466  12.239  12.254   2.641  0.1841  0.4221  0.8528
10869SOL     OW39467   8.540   9.787   0.461  0.5067 -0.4025  0.2892
10869SOL    HW139468   8.548   9.751   0.373  1.5633  0.7014 -0.0973
10869SOL    HW239469   8.469   9.851   0.455  1.3013  0.4672 -0.0616
10870SOL     OW39470  10.984   3.879  11.995 -0.3289  0.1324  0.1472
10870SOL    HW139471  10.930   3.876  11.916 -3.4469  3.0558  1.9106
10870SOL    HW239472  11.008   3.971  12.005  3.3196 -0.7161  0.7052
10871SOL     OW39473   0.953   4.789   2.248 -0.0652 -0.1566 -0.1283
10871SOL    HW139474   0.899   4.710   2.254 -1.9189  0.7528 -3.1471
10871SOL    HW239475   1.017   4.770   2.179  0.3470  0.5342  0.0463
10872SOL     OW39476   2.829  10.067  11.724  0.4274 -0.0899  0.3658
10872SOL    HW139477   2.858   9.982  11.691  0.1042 -0.4417  0.9668
10872SOL    HW239478   2.903  10.101  11.774  1.1226  0.6913 -1.1172
10873SOL     OW39479   0.227  10.834   9.459 -0.1642  0.1336  0.5130
10873SOL    HW139480   0.184  10.862   9.378 -1.2222  1.2327  1.4244
10873SOL    HW239481   0.318  10.816   9.432 -0.8970 -1.2433 -1.2341
10874SOL     OW39482   7.337   3.480   0.818  0.4730  0.0321  0.5365
10874SOL    HW139483   7.246   3.511   0.822  0.0283 -0.9290 -1.1094
10874SOL    HW239484   7.389   3.555   0.847 -0.7509  1.2885 -0.3632
10875SOL     OW39485   2.752   4.932   8.201  0.1954  0.2276  0.3433
10875SOL    HW139486   2.817   4.979   8.253 -0.2129 -0.3356  1.4076
10875SOL    HW239487   2.774   4.952   8.110  0.5382  1.7933  0.7314
10876SOL     OW39488  11.776   5.990   6.309  0.3759  0.2142 -0.2146
10876SOL    HW139489  11.698   6.007   6.362 -0.3491 -1.4618 -0.6958
10876SOL    HW239490  11.751   6.019   6.221  0.2800 -0.3425 -0.3727
10877SOL     OW39491   2.950   4.120   4.046  0.4918 -0.7787  0.4387
10877SOL    HW139492   2.875   4.093   4.099 -0.5038 -2.5053 -1.6803
10877SOL    HW239493   3.010   4.160   4.109 -3.0678  2.9235  1.9458
10878SOL     OW39494   5.677   1.979   6.656  0.4064  0.1412 -0.2729
10878SOL    HW139495   5.709   1.949   6.741 -0.2449 -1.4382 -0.5456
10878SOL    HW239496   5.602   1.922   6.638 -0.7597  1.8125 -0.9645
10879SOL     OW39497   7.726   5.610   2.701 -0.1970 -0.1233  0.0103
10879SOL    HW139498   7.794   5.616   2.634  0.6690 -0.5104  0.8521
10879SOL    HW239499   7.715   5.516   2.716 -2.2469 -0.1891 -1.4394
10880SOL     OW39500   4.726   1.363   0.789 -0.2479  0.3641 -0.1272
10880SOL    HW139501   4.764   1.431   0.845  0.6299 -0.3208  0.1324
10880SOL    HW239502   4.799   1.334   0.734 -0.5212 -0.6119  0.0089
10881SOL     OW39503   3.115   5.263   1.319 -0.3375  0.1005  0.2355
10881SOL    HW139504   3.092   5.347   1.280  2.8603  0.5551 -0.9633
10881SOL    HW239505   3.174   5.284   1.391 -1.8550 -1.0539  1.9098
10882SOL     OW39506   1.153   4.952   0.005 -0.1018  0.2058 -0.1030
10882SOL    HW139507   1.130   5.043  -0.015  3.0613  1.1798  0.2954
10882SOL    HW239508   1.149   4.946   0.100  1.1263  0.3560 -0.0380
10883SOL     OW39509   9.707   8.024   4.651 -0.0349 -0.0676 -0.5904
10883SOL    HW139510   9.762   7.973   4.710 -0.3715 -1.2964 -1.3085
10883SOL    HW239511   9.621   8.023   4.691  0.0691  0.3845 -0.3474
10884SOL     OW39512   2.222   4.785  10.982  0.6558  0.0959 -0.2517
10884SOL    HW139513   2.250   4.764  11.071  1.0185  0.2345 -0.3298
10884SOL    HW239514   2.214   4.699  10.939 -0.6933 -0.0448  0.2474
10885SOL     OW39515   6.807  10.132  11.943  0.0607  0.0238  0.2350
10885SOL    HW139516   6.776  10.087  12.022 -2.4175  1.3203  0.1044
10885SOL    HW239517   6.862  10.203  11.975 -0.5226  0.2384  0.7771
10886SOL     OW39518   2.803   9.725  12.467 -0.3619  0.3151 -0.4919
10886SOL    HW139519   2.722   9.675  12.475 -0.5911  0.6718 -0.6004
10886SOL    HW239520   2.792   9.798  12.528 -0.2423  0.5283 -0.7278
10887SOL     OW39521   7.138   7.147   6.474 -0.4774 -0.0208  0.6651
10887SOL    HW139522   7.150   7.090   6.550  0.3870 -0.8157 -0.0304
10887SOL    HW239523   7.225   7.150   6.433 -0.1638  2.8297  1.3501
10888SOL     OW39524   9.458   4.278   9.573  0.2412  0.4810 -0.0574
10888SOL    HW139525   9.386   4.319   9.525  0.3168  0.0609 -0.5426
10888SOL    HW239526   9.493   4.213   9.512  1.1049  0.7561  0.1243
10889SOL     OW39527   1.853   3.819   6.529  0.0005  0.5537 -0.3412
10889SOL    HW139528   1.882   3.877   6.459  0.4255  1.9798  0.9607
10889SOL    HW239529   1.926   3.759   6.543  0.0583  0.4983 -0.8561
10890SOL     OW39530   6.579   6.965   7.909 -0.0739 -0.3755 -0.3950
10890SOL    HW139531   6.633   7.044   7.914  0.6296 -0.8211 -0.9675
10890SOL    HW239532   6.542   6.956   7.998  3.0618 -1.6744  0.9154
10891SOL     OW39533   1.766   9.158   0.072  0.1465 -0.0903  0.2512
10891SOL    HW139534   1.801   9.239   0.035  1.5278 -0.8001 -0.0631
10891SOL    HW239535   1.675   9.156   0.043  0.8068  0.0311 -2.0592
10892SOL     OW39536   6.091   4.189   8.473 -0.0913  0.6516 -0.0011
10892SOL    HW139537   6.155   4.238   8.422 -0.6037  0.6632 -0.6402
10892SOL    HW239538   6.140   4.115   8.509  0.3722  0.8920 -0.1328
10893SOL     OW39539   0.133  12.343   7.772  0.1246  0.3761  0.1790
10893SOL    HW139540   0.222  12.335   7.805  0.0109 -1.0739  0.1948
10893SOL    HW239541   0.105  12.253   7.757 -0.1866  0.8779 -2.9432
10894SOL     OW39542   9.160  10.929   9.992  0.9847 -0.2765 -0.0317
10894SOL    HW139543   9.218  10.999   9.960  2.0663 -0.9091  0.4854
10894SOL    HW239544   9.163  10.939  10.088  1.6623 -1.4149  0.0787
10895SOL     OW39545  10.140   7.803  10.075 -0.4915 -0.3262  0.2849
10895SOL    HW139546  10.096   7.785  10.158  0.7239 -1.0102  0.8101
10895SOL    HW239547  10.233   7.790  10.094 -0.2300 -1.1221 -1.3331
10896SOL     OW39548   1.083  11.093   0.758  0.0627 -0.3516 -0.8697
10896SOL    HW139549   1.062  11.130   0.844 -0.4837  0.7617 -1.4582
10896SOL    HW239550   1.179  11.089   0.757  0.1113  0.4517 -0.5340
10897SOL     OW39551  11.436   2.723   3.549  0.2449  0.5666  0.0474
10897SOL    HW139552  11.435   2.639   3.503  2.1066 -0.4485  1.6984
10897SOL    HW239553  11.404   2.703   3.637 -1.4504  2.0840 -0.1661
10898SOL     OW39554  11.668   5.797  10.004  0.7203  0.0096  0.3695
10898SOL    HW139555  11.683   5.891   9.996 -0.3944  0.1681  0.0298
10898SOL    HW239556  11.637   5.785  10.094  0.3547  0.0481  0.2515
10899SOL     OW39557   7.843   1.492   4.025  0.0488 -0.3524 -0.0461
10899SOL    HW139558   7.920   1.453   3.984  0.8339  0.8132  0.2535
10899SOL    HW239559   7.852   1.586   4.006 -0.6415 -0.0521  1.0371
10900SOL     OW39560   4.779   6.906   3.369 -0.2837 -0.4706 -0.1609
10900SOL    HW139561   4.699   6.914   3.317 -0.5997  3.2864  0.5936
10900SOL    HW239562   4.845   6.955   3.320  0.3525  0.1451  1.2403
10901SOL     OW39563   2.513   5.106   6.046 -0.3324  0.2916  0.6402
10901SOL    HW139564   2.430   5.121   6.000 -0.0315 -0.4619 -0.1892
10901SOL    HW239565   2.561   5.189   6.036  0.4898 -0.4014 -2.1075
10902SOL     OW39566   7.995   1.313   9.875  0.0963 -0.0982  0.4662
10902SOL    HW139567   8.031   1.224   9.876 -0.3847 -0.3259 -0.9770
10902SOL    HW239568   8.070   1.369   9.893  0.7730 -0.6830 -0.4653
10903SOL     OW39569   4.747   5.191   0.578 -0.2192  0.1988  0.8553
10903SOL    HW139570   4.657   5.222   0.584 -0.0875  2.6348 -4.3091
10903SOL    HW239571   4.800   5.269   0.596  0.5546  0.1866 -1.1128
10904SOL     OW39572  11.119   3.169   8.023  0.6695  0.7077 -0.5073
10904SOL    HW139573  11.062   3.094   8.007  0.3333  1.0600 -0.9667
10904SOL    HW239574  11.139   3.163   8.117  1.2406 -0.3664 -0.6815
10905SOL     OW39575   8.717   2.889   2.308  0.6158  0.1257 -0.0047
10905SOL    HW139576   8.774   2.932   2.245  1.0971 -0.5813 -0.0707
10905SOL    HW239577   8.775   2.829   2.356 -0.3997 -2.2634 -1.5545
10906SOL     OW39578   8.872   6.560   7.850 -0.5223  0.2121  0.0789
10906SOL    HW139579   8.805   6.608   7.802  0.3239  0.2169 -1.1259
10906SOL    HW239580   8.869   6.471   7.814  0.3574  0.3027 -0.2273
10907SOL     OW39581   9.826   0.958  12.237  0.2941  0.7001  0.0405
10907SOL    HW139582   9.752   0.902  12.214 -2.9974  2.9828  3.6581
10907SOL    HW239583   9.825   1.028  12.171 -1.0127  0.8423  0.1904
10908SOL     OW39584   3.667   1.154   1.934 -0.2666  0.0368 -0.3362
10908SOL    HW139585   3.694   1.216   1.867 -0.3777  0.9568  0.4514
10908SOL    HW239586   3.731   1.166   2.005 -0.2404 -0.8088 -0.2047
10909SOL     OW39587  12.411   0.232   2.962  0.0174 -0.5923  0.4031
10909SOL    HW139588  12.349   0.225   2.890  1.4155 -0.8642 -0.8241
10909SOL    HW239589  12.432   0.325   2.966  2.0263 -0.8870 -1.4517
10910SOL     OW39590   8.497   3.747   3.203 -0.7025 -0.1949 -0.4726
10910SOL    HW139591   8.435   3.737   3.275  0.3629 -0.8522  0.3769
10910SOL    HW239592   8.554   3.819   3.230  0.6447 -1.4249  0.0598
10911SOL     OW39593   2.440   6.393   2.879  0.6090  0.2728 -0.2162
10911SOL    HW139594   2.415   6.377   2.970  0.7444 -1.0115 -0.3795
10911SOL    HW239595   2.532   6.417   2.883  0.8131 -0.5073 -0.0624
10912SOL     OW39596   4.289   8.124  10.321  0.2165  0.0689  0.7934
10912SOL    HW139597   4.345   8.169  10.384  4.0378 -2.5691 -0.3500
10912SOL    HW239598   4.313   8.162  10.236 -4.0723  2.8237  0.4927
10913SOL     OW39599   3.843   3.061   9.362 -0.1051 -0.1130 -0.5481
10913SOL    HW139600   3.878   3.149   9.376  1.1525 -0.6259 -0.4092
10913SOL    HW239601   3.748   3.073   9.365  0.0401  1.2605 -0.6691
10914SOL     OW39602   9.445   4.636   7.863  0.2097  0.5773 -0.1463
10914SOL    HW139603   9.431   4.543   7.881  0.5173  0.6480  0.4903
10914SOL    HW239604   9.531   4.639   7.821  0.7154  0.6752  0.8602
10915SOL     OW39605   1.063   6.768  12.354  0.4737 -0.1872  0.5575
10915SOL    HW139606   1.136   6.804  12.303  0.6657  2.1868  2.3147
10915SOL    HW239607   0.989   6.767  12.294  1.9108 -2.8225 -1.3300
10916SOL     OW39608   9.063  12.480   2.977 -0.0894  0.4988 -0.0530
10916SOL    HW139609   8.969  12.499   2.972 -0.3703 -0.2096  1.6615
10916SOL    HW239610   9.088  12.457   2.888 -1.5014  0.8983 -0.5777
10917SOL     OW39611   5.800   6.845  12.269  0.1558 -0.2234  0.6517
10917SOL    HW139612   5.842   6.823  12.186  2.4233  2.0632  1.0578
10917SOL    HW239613   5.861   6.814  12.336  0.1455  1.1834  1.3446
10918SOL     OW39614  12.132   3.126   8.438 -0.1482 -0.3707  0.2943
10918SOL    HW139615  12.192   3.062   8.477  1.9289  1.2408 -0.0308
10918SOL    HW239616  12.130   3.103   8.345  1.1288  0.3359  0.0553
10919SOL     OW39617   8.311   3.875  10.560 -0.0180 -0.2565 -0.3281
10919SOL    HW139618   8.237   3.931  10.583 -0.1103 -0.9120  1.1247
10919SOL    HW239619   8.272   3.791  10.538  0.2855 -0.7638  0.9635
10920SOL     OW39620  10.939   4.950   1.323  0.0080 -0.2718 -0.7460
10920SOL    HW139621  10.845   4.965   1.312 -0.1700  0.4319  1.3014
10920SOL    HW239622  10.946   4.856   1.342 -0.2498 -0.3480 -1.0120
10921SOL     OW39623   5.989  12.055   4.566 -0.6243 -0.1110 -0.0576
10921SOL    HW139624   6.071  12.078   4.523  0.5869 -2.2349  0.9301
10921SOL    HW239625   5.991  12.102   4.649 -0.5098  0.0373 -0.1448
10922SOL     OW39626   5.472  10.746   2.607  0.1085  0.4209 -0.3794
10922SOL    HW139627   5.451  10.664   2.563  0.8488 -0.5582  1.0116
10922SOL    HW239628   5.408  10.808   2.574  0.4479 -0.3215 -2.5824
10923SOL     OW39629   0.781   8.532   4.940 -0.1218 -0.2828 -0.4319
10923SOL    HW139630   0.775   8.454   4.995 -3.7176 -1.3296 -1.9920
10923SOL    HW239631   0.778   8.605   5.001 -1.5184 -1.3830  0.8871
10924SOL     OW39632   2.944   2.899  12.378 -0.4812 -0.1236  0.2748
10924SOL    HW139633   2.905   2.927  12.461 -1.2311 -0.6796  0.1167
10924SOL    HW239634   3.006   2.969  12.356 -1.5751  0.9244  0.3995
10925SOL     OW39635   1.936  10.229   3.284 -0.3524 -0.4539  0.0985
10925SOL    HW139636   1.993  10.270   3.349 -0.6282  0.0620  0.0191
10925SOL    HW239637   1.852  10.218   3.329 -0.0095 -1.8537  0.4460
10926SOL     OW39638   3.032  12.036   8.699  0.3925 -0.1592 -0.5236
10926SOL    HW139639   2.971  12.090   8.749 -0.5092 -1.9193  0.4059
10926SOL    HW239640   3.104  12.095   8.676 -0.3607  1.3186  0.7239
10927SOL     OW39641   1.200   3.122   0.148 -0.4488  0.4247 -0.4355
10927SOL    HW139642   1.156   3.197   0.189  1.0818 -0.0196  2.3216
10927SOL    HW239643   1.276   3.160   0.104 -0.7331  0.6759 -0.7124
10928SOL     OW39644  10.104   2.589  11.621 -0.4263  0.0445 -0.2644
10928SOL    HW139645  10.160   2.628  11.554  0.1743 -1.0227 -0.4028
10928SOL    HW239646  10.033   2.548  11.571 -0.3411 -0.1683 -0.2133
10929SOL     OW39647   0.750   3.752   6.512 -0.2003 -0.3025  0.0165
10929SOL    HW139648   0.682   3.735   6.577  0.8754  0.8188  1.5031
10929SOL    HW239649   0.706   3.742   6.428 -1.7237 -1.4832  0.9002
10930SOL     OW39650   3.725   6.673   8.361  0.6130  0.4706  0.0932
10930SOL    HW139651   3.771   6.691   8.279  0.4041 -2.4242 -0.7702
10930SOL    HW239652   3.684   6.587   8.347 -0.0426  0.2252  2.9833
10931SOL     OW39653   9.224   4.961   3.061  0.4735 -0.5007  0.5622
10931SOL    HW139654   9.257   4.908   3.133  0.3281  0.7697  1.5775
10931SOL    HW239655   9.302   5.000   3.021  0.6973 -2.2648 -0.8919
10932SOL     OW39656   7.447   4.862   7.429  0.3277  0.1701 -0.0783
10932SOL    HW139657   7.405   4.948   7.423  0.0764  0.1394  1.0969
10932SOL    HW239658   7.517   4.865   7.364 -2.4864 -0.3797 -3.4591
10933SOL     OW39659  11.642   5.394   8.281 -0.2370 -0.0732  0.1651
10933SOL    HW139660  11.585   5.320   8.301 -0.6445  0.6900  2.0334
10933SOL    HW239661  11.690   5.410   8.362 -0.2961  1.8009 -0.1208
10934SOL     OW39662  11.230   3.130   4.964  0.2434  0.0481  0.0602
10934SOL    HW139663  11.274   3.146   4.881 -1.0273 -0.8044 -0.7980
10934SOL    HW239664  11.139   3.156   4.949 -0.1533 -0.7521  0.9751
10935SOL     OW39665   4.931   5.752   0.838  0.2295 -0.0123  0.0416
10935SOL    HW139666   5.019   5.784   0.817 -0.0127  0.7473  0.1414
10935SOL    HW239667   4.897   5.722   0.754  0.0969  0.9400 -0.2629
10936SOL     OW39668   8.718   3.119   3.394 -0.1956  0.5684 -0.7358
10936SOL    HW139669   8.781   3.093   3.327 -1.0118 -0.3107 -1.1804
10936SOL    HW239670   8.632   3.105   3.353 -0.7006  0.1808  0.4183
10937SOL     OW39671   2.554   4.064   0.820 -0.2562  0.0832 -0.3767
10937SOL    HW139672   2.573   4.110   0.738  0.1171  0.5799 -0.0220
10937SOL    HW239673   2.469   4.023   0.806 -0.0362 -0.1288 -1.1344
10938SOL     OW39674   4.744  11.898   0.477  0.1692  0.0395 -0.1683
10938SOL    HW139675   4.754  11.839   0.403 -0.1455 -0.0326 -0.1531
10938SOL    HW239676   4.825  11.950   0.477  0.8339 -0.9665  0.3420
10939SOL     OW39677   1.154  11.673  10.131  0.5501  0.8280 -0.1409
10939SOL    HW139678   1.131  11.757  10.091 -0.6920 -0.0538 -1.3605
10939SOL    HW239679   1.208  11.630  10.064  0.5217  0.3360  0.1554
10940SOL     OW39680   7.444   4.915   2.231 -0.6097 -0.7231 -0.3114
10940SOL    HW139681   7.421   4.954   2.315  0.7988  1.2656 -0.7496
10940SOL    HW239682   7.530   4.954   2.210 -0.5106 -1.8478 -2.2367
10941SOL     OW39683   3.077   2.524  12.184 -0.1174 -0.5518  0.2645
10941SOL    HW139684   3.088   2.451  12.123 -0.5370  0.9919 -1.7609
10941SOL    HW239685   3.005   2.497  12.241 -2.5825 -0.4829 -2.5827
10942SOL     OW39686   2.953   8.990   1.197  0.4033 -0.0709  0.2291
10942SOL    HW139687   2.903   9.008   1.276 -1.1609 -0.4380 -0.6323
10942SOL    HW239688   2.926   9.058   1.135  0.4984 -0.6401 -0.4505
10943SOL     OW39689   5.267   7.276   6.869 -0.2690 -0.0624  0.3681
10943SOL    HW139690   5.263   7.219   6.793  0.0088 -0.2483  0.4922
10943SOL    HW239691   5.175   7.290   6.894 -0.4393  1.0644 -0.7867
10944SOL     OW39692   8.474   7.953   4.915 -0.2121 -0.0631 -0.6101
10944SOL    HW139693   8.395   7.985   4.959  0.4100 -1.7943  2.0046
10944SOL    HW239694   8.543   8.010   4.946  0.0736 -0.6563 -0.1360
10945SOL     OW39695   8.522  10.676   4.867 -0.3435  0.1523  1.0745
10945SOL    HW139696   8.555  10.758   4.832 -1.6170  0.3737  0.3360
10945SOL    HW239697   8.597  10.617   4.865  0.4062  1.0851  0.9596
10946SOL     OW39698   1.086  11.570   1.852 -0.6617 -0.7647  0.0239
10946SOL    HW139699   1.112  11.486   1.890 -0.8688 -1.1057 -0.5778
10946SOL    HW239700   1.151  11.632   1.885  0.2003 -1.3815 -0.4740
10947SOL     OW39701   9.300   9.072   9.186  0.2095  0.0318 -0.4400
10947SOL    HW139702   9.388   9.047   9.216 -0.4097 -0.9519  0.6211
10947SOL    HW239703   9.275   9.001   9.126 -0.4737 -0.5440  0.4939
10948SOL     OW39704   0.533   6.663   6.623  0.2466 -0.9920 -0.4462
10948SOL    HW139705   0.590   6.656   6.700  0.2812  0.1790 -0.3506
10948SOL    HW239706   0.551   6.750   6.588 -0.8236 -0.9663 -0.9504
10949SOL     OW39707   8.829  11.595   9.665  0.0823  0.0480 -0.1316
10949SOL    HW139708   8.760  11.549   9.618 -0.2891 -0.6849  1.0864
10949SOL    HW239709   8.818  11.569   9.757  1.2648  0.8114  0.2604
10950SOL     OW39710   5.533   8.021   5.088 -0.5420 -0.1578  0.2843
10950SOL    HW139711   5.626   8.007   5.069 -1.0411 -3.1196 -0.5854
10950SOL    HW239712   5.489   7.999   5.006 -2.0738 -0.3197  1.1115
10951SOL     OW39713  10.765  11.610   8.876 -0.5051 -0.3895 -0.0306
10951SOL    HW139714  10.846  11.651   8.908 -1.4744 -0.5577  2.9188
10951SOL    HW239715  10.739  11.665   8.802  0.9525  1.2550  0.5859
10952SOL     OW39716   9.967   0.870   9.560  0.0057  0.0470 -0.0598
10952SOL    HW139717   9.989   0.919   9.481  1.2848 -1.3999 -0.6715
10952SOL    HW239718  10.041   0.886   9.618 -0.8845  1.0236  0.8478
10953SOL     OW39719   4.947   7.912   1.591  0.3057  0.4471 -0.1908
10953SOL    HW139720   4.910   7.942   1.674 -2.0893 -0.5330 -0.8297
10953SOL    HW239721   4.935   7.986   1.532 -1.5795 -0.1548 -0.6253
10954SOL     OW39722   2.741   8.801   2.479 -0.0640  0.3648  0.5504
10954SOL    HW139723   2.733   8.738   2.550 -2.9002 -1.0665 -0.8906
10954SOL    HW239724   2.783   8.753   2.408 -1.8640  0.1407 -0.4146
10955SOL     OW39725   4.537   2.889   4.306 -0.1416  0.4109 -0.1964
10955SOL    HW139726   4.587   2.833   4.247  1.9543  1.0951  0.8609
10955SOL    HW239727   4.518   2.968   4.254 -1.0827 -0.2605 -0.9246
10956SOL     OW39728   4.865   1.588   0.908  0.1803  0.0340 -0.4150
10956SOL    HW139729   4.899   1.596   0.997 -0.4737 -1.4185 -0.0087
10956SOL    HW239730   4.797   1.655   0.902  0.8515  0.7577 -0.1477
10957SOL     OW39731   5.446   6.263   0.877  0.5525  0.2590  0.3389
10957SOL    HW139732   5.485   6.177   0.893  2.1666  0.6562 -1.1741
10957SOL    HW239733   5.513   6.326   0.904 -0.5910  1.0823  1.3852
10958SOL     OW39734  10.839   3.420   9.456  0.0160 -0.4181  0.0441
10958SOL    HW139735  10.832   3.329   9.483 -1.9578 -0.3718 -0.1754
10958SOL    HW239736  10.882   3.463   9.530 -0.4095 -1.2529  0.7989
10959SOL     OW39737   4.244  11.268   4.491  0.1931  0.5939 -0.2723
10959SOL    HW139738   4.272  11.208   4.560  0.2623 -0.6892 -1.3767
10959SOL    HW239739   4.294  11.348   4.507 -1.3411  1.1540  2.4175
10960SOL     OW39740   3.633   2.879   7.148 -0.1509 -0.3633 -0.1926
10960SOL    HW139741   3.556   2.824   7.164  0.4175 -1.4136 -0.8768
10960SOL    HW239742   3.655   2.916   7.233 -1.0308 -0.5573  0.1296
10961SOL     OW39743   8.465   8.634   8.528  0.1397 -0.2343 -0.2020
10961SOL    HW139744   8.404   8.707   8.538 -0.4376 -0.8095  0.5421
10961SOL    HW239745   8.447   8.599   8.441  1.1766  1.1672 -1.0321
10962SOL     OW39746  10.551   8.352   3.778  0.2785  0.3064  0.3725
10962SOL    HW139747  10.574   8.424   3.838  1.1695 -1.6630  2.5947
10962SOL    HW239748  10.459   8.367   3.756  0.4763  2.1769  0.6366
10963SOL     OW39749   3.753   5.546   7.443 -0.3938 -0.2004  0.0387
10963SOL    HW139750   3.702   5.545   7.524  1.4727  2.6779  1.4093
10963SOL    HW239751   3.806   5.467   7.447 -0.9309 -0.5253  1.1915
10964SOL     OW39752   7.114   5.268   9.568  0.3327 -0.2910 -0.0223
10964SOL    HW139753   7.022   5.270   9.543 -0.0927  1.0734  1.5260
10964SOL    HW239754   7.119   5.320   9.648  2.1425 -1.8626  0.9885
10965SOL     OW39755   4.974   2.055   3.768  0.7064  0.1278  0.2524
10965SOL    HW139756   5.051   2.111   3.766  0.3103  0.6933  0.4365
10965SOL    HW239757   4.901   2.115   3.755  0.1934 -0.2165  1.4212
10966SOL     OW39758  12.247  11.856   5.159 -0.0302  0.4001 -0.0743
10966SOL    HW139759  12.193  11.779   5.178  0.8344 -0.0892  0.4704
10966SOL    HW239760  12.208  11.895   5.081 -0.7556 -0.3317 -0.0810
10967SOL     OW39761   9.492   0.503   5.941 -0.1084  0.1095  0.4464
10967SOL    HW139762   9.568   0.445   5.941 -0.0487  0.1811  1.0597
10967SOL    HW239763   9.492   0.543   6.028 -1.2402 -0.3968  0.6979
10968SOL     OW39764  10.676   5.642   5.456 -0.0810 -0.0618  0.3566
10968SOL    HW139765  10.617   5.647   5.380 -0.5964  0.0382  0.7592
10968SOL    HW239766  10.763   5.656   5.419 -0.0612 -2.2189 -0.5761
10969SOL     OW39767   1.813   5.758  11.489 -0.2221 -0.1618  0.0495
10969SOL    HW139768   1.732   5.707  11.495  0.6731 -1.5515  1.2091
10969SOL    HW239769   1.851   5.753  11.577 -0.4027  3.1877  0.4435
10970SOL     OW39770  10.760   4.812   0.558  0.1930  0.3801  0.7498
10970SOL    HW139771  10.687   4.849   0.607 -0.4652  1.1422 -0.7123
10970SOL    HW239772  10.778   4.729   0.600 -2.6197 -0.6047  0.2307
10971SOL     OW39773   9.567  11.305   8.584 -0.1760 -0.2460 -0.9285
10971SOL    HW139774   9.658  11.331   8.594 -0.4039 -0.0509  1.0949
10971SOL    HW239775   9.542  11.269   8.669 -2.3086  0.7547 -1.0482
10972SOL     OW39776   6.508   4.585   2.322  0.2353  0.0635  0.3259
10972SOL    HW139777   6.465   4.643   2.259  0.1839 -0.0310  0.2739
10972SOL    HW239778   6.496   4.497   2.286  0.8436  0.0692  0.0807
10973SOL     OW39779   7.552  11.513  10.799 -0.2027  0.2274  0.0460
10973SOL    HW139780   7.527  11.583  10.859  1.7009  2.4841 -1.5778
10973SOL    HW239781   7.472  11.494  10.750 -1.6189 -1.2134  2.6929
10974SOL     OW39782   3.483   9.671   6.124 -0.5531 -0.5343  0.1911
10974SOL    HW139783   3.512   9.582   6.108  2.0508  0.2449  0.2246
10974SOL    HW239784   3.462   9.673   6.217  0.4160 -0.8689  0.4260
10975SOL     OW39785  11.985   3.652   0.150  0.2059 -0.7162  0.0905
10975SOL    HW139786  12.061   3.652   0.208  0.5287 -0.5548 -0.3271
10975SOL    HW239787  12.000   3.726   0.091 -2.0619  1.7513  2.3138
10976SOL     OW39788   1.335   0.999  11.895 -0.2511 -0.3740  0.3373
10976SOL    HW139789   1.286   0.924  11.861 -0.3156 -0.7756  1.2994
10976SOL    HW239790   1.406   0.960  11.946 -0.3221  0.2146  0.8963
10977SOL     OW39791   4.443   7.694   4.463  0.5005 -0.3657  0.4694
10977SOL    HW139792   4.499   7.616   4.459 -0.1589 -0.8283 -2.0588
10977SOL    HW239793   4.499   7.766   4.435  0.7145 -0.2005  1.3154
10978SOL     OW39794   7.470  10.962   2.867 -0.4180 -0.3039 -0.4071
10978SOL    HW139795   7.553  10.930   2.830 -0.0182  2.0674 -1.7722
10978SOL    HW239796   7.430  10.884   2.907  1.4511 -1.9760 -1.5892
10979SOL     OW39797  10.088   1.031   2.005  0.1322  0.0609 -0.0722
10979SOL    HW139798  10.084   1.125   1.987  0.4031  0.2365  0.7064
10979SOL    HW239799  10.115   0.991   1.923  1.9840  0.8726  0.0944
10980SOL     OW39800   3.630   3.966   6.333  0.7214  0.1067 -0.3661
10980SOL    HW139801   3.692   4.015   6.279  1.0627  1.5515  1.2521
10980SOL    HW239802   3.662   3.876   6.331  1.9718  0.5445 -0.7954
10981SOL     OW39803   0.879   5.821   1.530 -0.3858 -0.0945 -0.6369
10981SOL    HW139804   0.831   5.902   1.513 -0.3567 -0.1716 -1.1125
10981SOL    HW239805   0.813   5.752   1.525 -0.5706 -0.0214  0.6580
10982SOL     OW39806   5.244   8.679   9.750 -0.4385 -0.0950  0.6609
10982SOL    HW139807   5.198   8.604   9.712 -0.0692 -0.8541  1.6778
10982SOL    HW239808   5.190   8.706   9.824  1.0562 -1.4793  2.3471
10983SOL     OW39809  12.382   9.591   1.156 -0.2287 -0.1159  0.0179
10983SOL    HW139810  12.465   9.632   1.178  0.0771 -0.0269 -1.2378
10983SOL    HW239811  12.376   9.516   1.215 -0.0817  0.8372  1.2847
10984SOL     OW39812   8.501  10.328   4.318 -0.1731 -0.1015 -0.1193
10984SOL    HW139813   8.446  10.357   4.245  0.7730 -0.4042 -0.9715
10984SOL    HW239814   8.459  10.248   4.349 -0.5544  0.0024 -0.3577
10985SOL     OW39815  11.305   4.633   3.128 -0.9065  0.0317  0.4488
10985SOL    HW139816  11.399   4.651   3.138 -0.8646  1.4719 -1.8590
10985SOL    HW239817  11.273   4.625   3.218  1.7013 -2.3830  1.3125
10986SOL     OW39818   5.605  11.168  12.259  0.7541  0.1714 -0.7275
10986SOL    HW139819   5.617  11.240  12.320  0.7371 -0.0497 -0.4579
10986SOL    HW239820   5.512  11.147  12.266  0.3350  1.3624 -2.2145
10987SOL     OW39821  10.954   7.450   6.513  0.4076 -0.0299  0.5370
10987SOL    HW139822  10.874   7.474   6.559  0.5117  0.4231  0.4873
10987SOL    HW239823  11.023   7.495   6.562  0.4893  0.7440 -0.2662
10988SOL     OW39824   5.449   9.210   2.578  0.6640 -0.0014 -0.3013
10988SOL    HW139825   5.454   9.266   2.656 -0.3396 -2.0609  1.3346
10988SOL    HW239826   5.356   9.205   2.558  0.9738  1.6159 -2.6043
10989SOL     OW39827   3.890   9.105  10.673  0.2306 -0.4410  0.7816
10989SOL    HW139828   3.842   9.057  10.740 -1.1144 -1.0371 -0.5567
10989SOL    HW239829   3.825   9.125  10.606  1.5629 -0.0436 -0.4483
10990SOL     OW39830  10.410  12.096   9.123  0.0555  0.2476 -0.0816
10990SOL    HW139831  10.385  12.029   9.186 -0.6307  0.6850  0.1223
10990SOL    HW239832  10.407  12.178   9.173 -0.3614  0.5823 -0.6441
10991SOL     OW39833   6.542   1.540   9.556  0.0028  0.3879  0.1941
10991SOL    HW139834   6.613   1.560   9.617  0.2153  0.6976 -0.1512
10991SOL    HW239835   6.545   1.445   9.545  2.6316  0.6329 -2.5162
10992SOL     OW39836   4.718   5.113   1.975 -0.1897 -0.3345  0.4975
10992SOL    HW139837   4.760   5.168   2.041  1.0312  0.8413 -1.1630
10992SOL    HW239838   4.780   5.042   1.959 -0.2650 -0.3542  0.2835
10993SOL     OW39839  10.297   8.472   6.057  0.3334 -0.1834 -0.2532
10993SOL    HW139840  10.275   8.562   6.036  2.1904  0.2739 -0.4224
10993SOL    HW239841  10.362   8.447   5.991  0.6206 -1.2903  0.4204
10994SOL     OW39842   2.838  11.985  12.246 -0.4719  1.0097 -0.1457
10994SOL    HW139843   2.926  12.003  12.278 -0.6345  0.2860  0.7452
10994SOL    HW239844   2.798  12.071  12.236  0.1290  1.3141  0.0494
10995SOL     OW39845   7.122   2.473  10.787 -0.1563 -0.1151  0.1574
10995SOL    HW139846   7.114   2.564  10.815  4.8540  1.3120 -1.7833
10995SOL    HW239847   7.136   2.424  10.867 -3.0632  0.6828  1.2580
10996SOL     OW39848  12.255   4.675   0.196  0.2198 -0.3069 -0.1561
10996SOL    HW139849  12.224   4.682   0.106 -0.2791  1.5993  0.1202
10996SOL    HW239850  12.176   4.658   0.247  0.5906 -2.1126 -0.0977
10997SOL     OW39851   8.563   3.291   0.807 -0.6587 -0.3715 -0.3975
10997SOL    HW139852   8.467   3.290   0.813 -0.6074 -1.8430  0.7350
10997SOL    HW239853   8.589   3.201   0.827  0.9946  0.1549 -0.0333
10998SOL     OW39854   6.596   4.647   1.259 -0.9059  0.1341  0.4030
10998SOL    HW139855   6.581   4.580   1.326 -1.7288  2.2672  2.4748
10998SOL    HW239856   6.514   4.651   1.210 -0.4980 -1.0389 -0.4137
10999SOL     OW39857   7.498   2.372  11.436  0.3846  0.1207 -0.6276
10999SOL    HW139858   7.411   2.412  11.438  0.0614 -0.5294 -1.2497
10999SOL    HW239859   7.490   2.294  11.491  0.0624 -0.9000 -2.0606
11000SOL     OW39860   6.816   3.321   4.339 -0.6123  0.8244 -0.0203
11000SOL    HW139861   6.775   3.240   4.307  0.9598 -0.1015  0.2065
11000SOL    HW239862   6.824   3.375   4.260 -1.0793  0.4943 -0.3042
11001SOL     OW39863   6.138   4.868  11.336  0.5032  0.2900  0.1039
11001SOL    HW139864   6.171   4.784  11.366  1.3758 -0.0057 -1.5943
11001SOL    HW239865   6.215   4.915  11.305 -0.0591  1.4858  0.4273
11002SOL     OW39866  12.010  10.563   1.895  0.8037  0.9021  0.1504
11002SOL    HW139867  12.010  10.507   1.972 -1.8101 -2.1083 -1.7871
11002SOL    HW239868  12.070  10.520   1.834 -2.0182 -0.6239 -1.7569
11003SOL     OW39869   4.852   9.484   6.262 -0.0002 -0.3412 -0.0621
11003SOL    HW139870   4.858   9.579   6.259  0.6041 -0.3350  0.6941
11003SOL    HW239871   4.910   9.454   6.192  0.9054 -0.1453  0.5712
11004SOL     OW39872   3.713   9.766   4.442  0.3613  0.3260 -0.7939
11004SOL    HW139873   3.675   9.772   4.530 -0.4333 -2.1098 -0.8913
11004SOL    HW239874   3.654   9.817   4.387 -0.7020 -0.3388 -0.3158
11005SOL     OW39875   8.905   0.794   2.200 -0.3383 -0.4343 -0.1917
11005SOL    HW139876   8.933   0.882   2.175  1.4029 -1.2957 -1.4611
11005SOL    HW239877   8.825   0.779   2.149 -1.9735  1.1979  1.7339
11006SOL     OW39878  11.452   3.232   5.628  0.1639 -0.5255 -0.2819
11006SOL    HW139879  11.429   3.319   5.661  0.6304 -0.3874 -0.3033
11006SOL    HW239880  11.456   3.242   5.533 -0.8954 -0.8519 -0.3703
11007SOL     OW39881   5.756   9.459   5.616 -0.4701  0.6222 -0.5975
11007SOL    HW139882   5.784   9.443   5.526 -1.0930  0.3680 -0.7553
11007SOL    HW239883   5.732   9.552   5.618  0.2919  0.8209 -0.4813
11008SOL     OW39884   0.699   4.482   0.779 -0.0244  0.1262 -0.0484
11008SOL    HW139885   0.733   4.525   0.858 -0.2688 -2.2405  1.4503
11008SOL    HW239886   0.659   4.553   0.729 -0.9293  1.5924  2.5342
11009SOL     OW39887   5.303   7.074  10.934 -0.0671 -0.3126  0.2900
11009SOL    HW139888   5.304   7.069  11.029  0.4397 -2.1179  0.2204
11009SOL    HW239889   5.210   7.087  10.912 -0.3148 -0.8114  0.9981
11010SOL     OW39890   9.404   2.759   0.593  0.2639  0.5258 -0.4624
11010SOL    HW139891   9.358   2.743   0.675 -0.8153 -2.7220 -1.5020
11010SOL    HW239892   9.481   2.701   0.597  0.5153  0.7706 -1.4774
11011SOL     OW39893   5.910   4.656  11.119  0.3399 -0.3085 -0.4147
11011SOL    HW139894   5.868   4.720  11.061 -1.9025 -2.3391 -1.2149
11011SOL    HW239895   5.874   4.676  11.205  1.0505  0.5980 -0.3158
11012SOL     OW39896   3.475   3.608   1.911 -0.2488 -0.6767 -0.0907
11012SOL    HW139897   3.407   3.559   1.956 -0.1174 -0.2383  0.5892
11012SOL    HW239898   3.551   3.549   1.911 -0.1042 -0.4980  0.6850
11013SOL     OW39899   1.451   2.215   1.140  0.6616 -0.5127  0.5189
11013SOL    HW139900   1.415   2.133   1.175  0.0284 -0.4494  0.0348
11013SOL    HW239901   1.500   2.252   1.213 -1.4638  0.1319  1.7220
11014SOL     OW39902   1.920  11.034   8.758  0.2546  0.0406  0.2255
11014SOL    HW139903   1.900  11.110   8.704  2.8643  2.7029  2.6679
11014SOL    HW239904   1.989  10.988   8.710  1.1542  1.2543  0.3167
11015SOL     OW39905   3.437   4.172   5.583  0.0240  0.0180  0.2743
11015SOL    HW139906   3.400   4.156   5.671 -0.2468  1.2029  0.3917
11015SOL    HW239907   3.430   4.087   5.539 -0.2264 -0.4920  1.2606
11016SOL     OW39908   8.600   0.578   3.530  0.1738  0.2551  0.4015
11016SOL    HW139909   8.528   0.516   3.515  0.5576  0.3717 -2.4792
11016SOL    HW239910   8.640   0.589   3.444  3.6897  0.1992  1.8608
11017SOL     OW39911   0.023   4.740  12.049 -0.5044  0.2721 -0.1508
11017SOL    HW139912  -0.042   4.744  11.978 -0.1222 -0.5374 -0.5595
11017SOL    HW239913   0.104   4.715  12.005  0.0494  1.0782  0.3891
11018SOL     OW39914   6.098  11.294   3.692 -0.0913  0.3333 -0.1029
11018SOL    HW139915   6.008  11.316   3.717  0.1251  0.7630  0.2943
11018SOL    HW239916   6.095  11.290   3.596  0.0110  2.8799 -0.2799
11019SOL     OW39917   6.398   8.577   8.294  0.2296 -0.1627  0.0240
11019SOL    HW139918   6.362   8.585   8.382  1.7292  0.8491  0.5946
11019SOL    HW239919   6.466   8.510   8.303 -0.5963 -1.1273 -0.7316
11020SOL     OW39920   0.388   7.589   1.115  0.2756 -0.3250  0.1738
11020SOL    HW139921   0.343   7.526   1.059 -0.3205 -0.3958  0.7113
11020SOL    HW239922   0.468   7.611   1.068 -0.7243  0.4712 -1.2482
11021SOL     OW39923   5.408  10.702   0.221 -0.5610 -0.1044  0.3936
11021SOL    HW139924   5.339  10.663   0.274 -1.7991  1.3795 -0.0594
11021SOL    HW239925   5.369  10.782   0.186  1.0995  0.3082 -0.6145
11022SOL     OW39926   5.367   3.994   1.366 -0.1135  0.4229  0.5650
11022SOL    HW139927   5.348   4.055   1.437 -2.1335  1.0542 -0.4203
11022SOL    HW239928   5.342   4.042   1.287  1.4643 -0.4823 -0.5441
11023SOL     OW39929   8.891   7.456   8.631  0.2837 -0.1656 -0.1927
11023SOL    HW139930   8.925   7.370   8.605  1.2061 -0.3752  1.5209
11023SOL    HW239931   8.967   7.501   8.669 -0.3376  1.1728 -0.4889
11024SOL     OW39932   1.546   0.165   8.757  0.0498 -0.2140 -0.2245
11024SOL    HW139933   1.621   0.119   8.720 -0.4805 -0.7047 -0.7007
11024SOL    HW239934   1.470   0.118   8.724 -0.4451 -0.8220  1.7080
11025SOL     OW39935   0.568  11.112   8.648  0.4462 -0.1942  0.0668
11025SOL    HW139936   0.474  11.098   8.661  1.0049 -2.8465  2.1048
11025SOL    HW239937   0.585  11.080   8.560 -0.5525  0.5205 -0.4122
11026SOL     OW39938  12.338  12.147   0.114  0.0296  0.0011  0.3386
11026SOL    HW139939  12.297  12.061   0.112 -0.0089  0.0080  0.8097
11026SOL    HW239940  12.267  12.208   0.094  0.2115 -0.1214 -0.7793
11027SOL     OW39941   0.332   5.786  12.369  0.0124  0.3012 -0.0126
11027SOL    HW139942   0.295   5.732  12.439  0.0956  1.3514  0.8730
11027SOL    HW239943   0.417   5.747  12.352  0.8483  1.1589  1.8762
11028SOL     OW39944   8.595  12.283   5.974  0.2196  0.1689  0.1399
11028SOL    HW139945   8.520  12.342   5.980  0.2985  0.6850 -2.5129
11028SOL    HW239946   8.672  12.339   5.983  0.3759  1.1512 -4.5001
11029SOL     OW39947   0.957   7.685  10.178  0.1773  0.0697  0.0222
11029SOL    HW139948   0.897   7.657  10.108 -0.4139  2.2458 -0.4220
11029SOL    HW239949   1.043   7.688  10.136 -0.1764  1.3808 -0.6680
11030SOL     OW39950  11.070   8.616   9.530 -0.5729 -0.2048 -0.5416
11030SOL    HW139951  11.146   8.649   9.578 -0.8143  0.8830 -0.8685
11030SOL    HW239952  11.058   8.679   9.459 -1.7562 -0.3842 -0.5210
11031SOL     OW39953   8.299   3.746  12.125  0.4495 -0.2774  0.4734
11031SOL    HW139954   8.290   3.696  12.206  1.4685 -0.1842  0.6493
11031SOL    HW239955   8.365   3.698  12.074  0.2028 -0.0412 -0.0767
11032SOL     OW39956   7.288   0.863  10.593 -0.3037 -0.1404 -0.2668
11032SOL    HW139957   7.246   0.780  10.616  0.8555 -0.9237 -0.8566
11032SOL    HW239958   7.380   0.850  10.616 -0.4058  1.6807  1.3794
11033SOL     OW39959   5.931   9.173   3.443 -0.9524 -0.0693 -0.1337
11033SOL    HW139960   5.914   9.264   3.419 -2.2436 -0.1525  0.3773
11033SOL    HW239961   5.864   9.123   3.396  1.1492 -1.0651 -2.2911
11034SOL     OW39962   9.565   2.789  10.259  0.3826  0.0578 -0.2672
11034SOL    HW139963   9.570   2.810  10.352  0.9057  0.6002 -0.4110
11034SOL    HW239964   9.610   2.861  10.215 -0.0143 -0.0983 -0.9559
11035SOL     OW39965  11.869   5.249   2.047 -0.0547  0.7784  0.4108
11035SOL    HW139966  11.831   5.258   1.960  0.2989 -0.9160  0.0493
11035SOL    HW239967  11.948   5.303   2.045 -0.1029  0.8265 -0.2706
11036SOL     OW39968   7.260   4.647   7.521  0.4230  0.6173 -0.2224
11036SOL    HW139969   7.319   4.716   7.489 -1.1325  1.7315 -0.7781
11036SOL    HW239970   7.175   4.668   7.483  0.1078 -2.2460 -1.3262
11037SOL     OW39971   4.918   5.672   5.556  0.0498 -0.5597 -0.5252
11037SOL    HW139972   4.853   5.613   5.594  0.9806 -0.8695  0.6463
11037SOL    HW239973   5.000   5.648   5.599  0.8016  0.3293 -1.4170
11038SOL     OW39974   6.292  11.045   0.180 -0.2284  0.0081 -0.3310
11038SOL    HW139975   6.368  11.013   0.229 -0.4821  0.1891  0.1827
11038SOL    HW239976   6.316  11.133   0.152 -1.4322  1.4016  2.5946
11039SOL     OW39977   2.554   4.143   5.648  0.0315  0.2346  0.3809
11039SOL    HW139978   2.578   4.051   5.641 -1.1261 -0.0981  0.5835
11039SOL    HW239979   2.593   4.172   5.730  0.3808 -0.0787  0.3278
11040SOL     OW39980   7.012   7.488   0.042 -0.0477 -0.1291 -0.1728
11040SOL    HW139981   7.008   7.400   0.081 -1.5335 -0.5297 -1.1426
11040SOL    HW239982   6.948   7.539   0.091  0.8763  0.4648  0.4476
11041SOL     OW39983  12.177   2.170   1.627  0.6532  0.1383 -0.0225
11041SOL    HW139984  12.199   2.088   1.672 -0.7168 -0.8244 -1.0496
11041SOL    HW239985  12.118   2.215   1.687  0.1564 -0.3681 -0.1257
11042SOL     OW39986   3.036  11.327   2.498  0.1997 -0.7020  0.2411
11042SOL    HW139987   3.011  11.418   2.480  1.0164 -0.4729  0.2593
11042SOL    HW239988   2.960  11.290   2.543  0.3931  0.3675  1.4965
11043SOL     OW39989   2.345   5.804   7.654 -0.0967  0.3549  0.2081
11043SOL    HW139990   2.265   5.781   7.700  0.4529  0.5311  1.2980
11043SOL    HW239991   2.344   5.900   7.651 -0.2226  0.3422 -0.3475
11044SOL     OW39992   9.629   8.741   6.000  0.5271 -0.1254  0.6520
11044SOL    HW139993   9.650   8.718   5.909  2.1441  1.5879  0.5193
11044SOL    HW239994   9.711   8.728   6.048 -0.5500 -1.9101  2.1085
11045SOL     OW39995   8.369   5.923   7.777 -0.3096  0.2422 -0.4261
11045SOL    HW139996   8.437   5.890   7.719 -0.3499  0.1182 -0.4019
11045SOL    HW239997   8.415   5.983   7.837 -0.1911  0.0156 -0.2892
11046SOL     OW39998   2.972   0.529   2.216  0.4632 -0.0861  0.3558
11046SOL    HW139999   2.942   0.492   2.299  0.9063 -0.8662  0.1787
11046SOL    HW240000   3.039   0.468   2.185  0.7982  0.5647 -0.2388
11047SOL     OW40001   7.731   5.379   0.104 -0.0639  0.1416  0.3926
11047SOL    HW140002   7.809   5.427   0.130 -0.4765  0.8969  0.2619
11047SOL    HW240003   7.668   5.395   0.175 -0.6223  0.8308 -0.2407
11048SOL     OW40004   5.795  10.866   3.937 -0.2214  0.5506  0.1957
11048SOL    HW140005   5.820  10.815   4.014 -2.2350  2.9671  2.6394
11048SOL    HW240006   5.710  10.831   3.911 -0.8079  1.4697  0.8172
11049SOL     OW40007   9.187   6.962   6.507  0.1238 -0.3694  0.2167
11049SOL    HW140008   9.184   6.958   6.602  0.7221 -3.7093  0.2405
11049SOL    HW240009   9.270   7.006   6.487  0.9450 -1.3664  1.3095
11050SOL     OW40010   0.736   3.957  10.702 -0.4704  0.2627  0.2634
11050SOL    HW140011   0.681   3.955  10.624 -1.2988  0.3666  0.8427
11050SOL    HW240012   0.789   3.877  10.696 -0.6422  0.1910 -0.3205
11051SOL     OW40013  10.391   4.253   5.513 -0.3660  0.1954 -0.4147
11051SOL    HW140014  10.369   4.278   5.603 -0.0974  1.4335 -0.6770
11051SOL    HW240015  10.313   4.209   5.480 -0.0918 -1.2830  0.7684
11052SOL     OW40016   6.113  11.103  11.861  0.5711 -0.2788 -0.1258
11052SOL    HW140017   6.058  11.145  11.927  1.2243  1.4220 -0.6010
11052SOL    HW240018   6.150  11.027  11.905 -1.5656 -1.0662  0.4172
11053SOL     OW40019   9.997   8.760   8.941  0.5627 -0.2597 -0.0599
11053SOL    HW140020  10.061   8.734   8.874 -0.9804  0.4470 -1.9178
11053SOL    HW240021   9.913   8.733   8.904 -0.2846 -0.5951  2.0246
11054SOL     OW40022  10.309   4.622  10.925  0.5906 -0.3161  0.6416
11054SOL    HW140023  10.219   4.597  10.906  0.8373 -0.5505 -0.2217
11054SOL    HW240024  10.301   4.706  10.970 -0.1335 -1.0256  1.9166
11055SOL     OW40025   8.377   0.386   3.439 -0.0814 -0.0126 -0.4530
11055SOL    HW140026   8.316   0.335   3.386  0.8177 -0.0347 -1.5298
11055SOL    HW240027   8.363   0.357   3.529 -0.9849 -0.6799 -0.8021
11056SOL     OW40028  11.183   0.362   9.151  0.1072 -0.4541  0.5189
11056SOL    HW140029  11.093   0.392   9.161 -0.6098 -2.4738  0.6044
11056SOL    HW240030  11.211   0.397   9.066 -0.2648  1.2603  1.0540
11057SOL     OW40031  10.841   5.859   7.550  0.4433 -0.5365 -0.1920
11057SOL    HW140032  10.931   5.889   7.540  0.7421 -0.9072  1.1887
11057SOL    HW240033  10.799   5.926   7.604 -0.1328 -0.3477 -0.8521
11058SOL     OW40034  11.125   4.730   8.729  0.0117 -0.1909 -0.7721
11058SOL    HW140035  11.177   4.805   8.699  0.6164  0.8072  2.4098
11058SOL    HW240036  11.051   4.768   8.776 -0.5497 -1.6017 -0.4405
11059SOL     OW40037   8.676   4.590   7.164  0.5583 -0.3650 -0.2856
11059SOL    HW140038   8.761   4.593   7.207 -0.1340 -1.4410  1.2688
11059SOL    HW240039   8.690   4.535   7.087  0.9338 -1.9867  0.8862
11060SOL     OW40040  11.069   0.565   4.603  0.2575 -0.1264 -0.4557
11060SOL    HW140041  11.030   0.525   4.681 -0.9761  3.3411  0.8730
11060SOL    HW240042  10.998   0.565   4.539 -0.6860  2.2844  0.4996
11061SOL     OW40043   0.425   3.966  11.483  0.8231 -0.2455  0.0715
11061SOL    HW140044   0.507   3.993  11.440  0.4982  0.6736  0.0206
11061SOL    HW240045   0.446   3.965  11.576  0.6205  0.9782  0.1389
11062SOL     OW40046   9.519   9.714   1.974  0.4515 -0.1397 -0.1151
11062SOL    HW140047   9.435   9.754   1.997  1.5892  2.0070  0.5845
11062SOL    HW240048   9.551   9.765   1.900  1.4951 -0.4295  0.1186
11063SOL     OW40049   4.012   0.440   3.812 -0.6721 -0.4064  0.2561
11063SOL    HW140050   4.079   0.498   3.849 -1.1531  0.0831  0.3691
11063SOL    HW240051   3.942   0.499   3.783 -1.1022 -0.9186  0.2339
11064SOL     OW40052   4.770   0.159   3.942  0.2763  0.3601 -0.3779
11064SOL    HW140053   4.754   0.195   3.855  2.5001 -0.1310 -1.0481
11064SOL    HW240054   4.787   0.237   3.996 -0.0313  0.6088 -0.6329
11065SOL     OW40055   1.677   7.791   0.734 -0.1358 -0.1288  0.2296
11065SOL    HW140056   1.682   7.727   0.663  0.0991 -0.9284  0.9487
11065SOL    HW240057   1.616   7.858   0.702 -0.8472 -1.0053 -0.2987
11066SOL     OW40058   1.366   7.097   0.793  0.1810 -0.4034  0.0502
11066SOL    HW140059   1.409   7.067   0.713 -1.7391  0.5867 -1.4304
11066SOL    HW240060   1.423   7.167   0.826  0.1104  0.4070 -1.4684
11067SOL     OW40061   1.025   3.311   9.749 -0.4484 -0.2035 -0.2880
11067SOL    HW140062   1.110   3.321   9.792 -0.3462  1.4399 -0.8187
11067SOL    HW240063   1.009   3.216   9.750  0.7127 -0.4284  1.0874
11068SOL     OW40064  11.473  11.600   2.765  0.0882  0.4665 -0.4088
11068SOL    HW140065  11.422  11.615   2.845 -0.6088 -0.2158 -0.7142
11068SOL    HW240066  11.410  11.563   2.703  0.9876 -0.5379 -0.7429
11069SOL     OW40067   8.316   1.348   4.893 -0.3290  0.1136 -0.0125
11069SOL    HW140068   8.233   1.393   4.881 -1.3517 -1.2138  1.6498
11069SOL    HW240069   8.293   1.255   4.893  1.0314 -0.2603  1.2360
11070SOL     OW40070  10.462   1.750  11.131  0.0036 -0.4406 -0.1656
11070SOL    HW140071  10.548   1.767  11.170  1.1865 -1.7618 -2.0021
11070SOL    HW240072  10.442   1.830  11.082  0.0155 -0.0019  0.5324
11071SOL     OW40073   1.355   6.713   3.855  0.6385 -0.3404  0.2037
11071SOL    HW140074   1.333   6.759   3.774 -0.2436  0.8922  1.1027
11071SOL    HW240075   1.336   6.776   3.924  0.1765 -1.7873  1.4498
11072SOL     OW40076   6.078   6.452  12.113 -0.3586  0.8050  0.2065
11072SOL    HW140077   6.075   6.405  12.196  1.6380 -0.7977 -0.5447
11072SOL    HW240078   6.029   6.398  12.052  0.4437  0.5798 -0.2555
11073SOL     OW40079  10.145   7.608  10.722 -0.3665 -0.5554 -0.2848
11073SOL    HW140080  10.234   7.628  10.750 -0.7637  0.8213  0.0523
11073SOL    HW240081  10.153   7.587  10.629 -0.0076  2.2297 -0.9567
11074SOL     OW40082   5.155   2.338   6.071 -0.0974 -0.3334  0.5247
11074SOL    HW140083   5.248   2.344   6.092  0.1837  0.0956 -0.7503
11074SOL    HW240084   5.152   2.310   5.979 -1.1994  0.3719  0.3158
11075SOL     OW40085   7.021   9.077   1.700  0.5692  0.0082  0.0317
11075SOL    HW140086   6.967   9.046   1.773 -0.1838 -2.2811 -1.3790
11075SOL    HW240087   6.961   9.129   1.646  0.5053 -0.2134 -0.1132
11076SOL     OW40088   8.253   9.107   7.984 -0.2969  0.4091  0.4243
11076SOL    HW140089   8.327   9.156   7.949 -0.1526 -0.2906 -0.2992
11076SOL    HW240090   8.237   9.144   8.071  0.5116  0.9649  0.3400
11077SOL     OW40091   7.917   6.477   1.047 -0.2559  0.2336 -0.5288
11077SOL    HW140092   7.914   6.488   1.142 -2.6872  0.9200 -0.6218
11077SOL    HW240093   7.982   6.408   1.034  0.9992  0.9267  1.5209
11078SOL     OW40094   1.508   1.237  12.334  0.0705  0.7044  0.1979
11078SOL    HW140095   1.470   1.295  12.400 -1.3408 -0.9333  0.8895
11078SOL    HW240096   1.567   1.180  12.383 -0.5910 -0.1842 -0.0203
11079SOL     OW40097   7.640  10.226  10.195  0.1162  0.1244 -0.4313
11079SOL    HW140098   7.584  10.301  10.217 -0.8765 -0.5174 -0.7211
11079SOL    HW240099   7.682  10.202  10.277  0.0107  0.6423 -0.2205
11080SOL     OW40100   0.364   7.327   2.592 -0.2194 -0.3379  0.7810
11080SOL    HW140101   0.285   7.306   2.543 -0.4640  0.9712  0.5829
11080SOL    HW240102   0.426   7.358   2.526 -0.5041  1.3015  1.2293
11081SOL     OW40103   2.030   2.349   6.704  0.6067  0.2121  0.3812
11081SOL    HW140104   2.020   2.340   6.609 -0.0726  1.8049  0.2633
11081SOL    HW240105   1.944   2.325   6.740  1.0748 -1.0991  0.6798
11082SOL     OW40106   7.435   6.850  11.142 -0.2254 -0.2527 -0.3681
11082SOL    HW140107   7.481   6.933  11.130  0.0568 -0.3306  0.1637
11082SOL    HW240108   7.504   6.788  11.167 -0.5073 -0.5417 -0.3063
11083SOL     OW40109  11.551  11.454   5.892 -0.0292 -0.0998 -0.2965
11083SOL    HW140110  11.576  11.489   5.806  2.0032 -0.8819 -0.0752
11083SOL    HW240111  11.501  11.525   5.932 -0.4390  0.5449 -1.8433
11084SOL     OW40112   7.873  10.366   7.185  0.2201 -0.0568 -0.1320
11084SOL    HW140113   7.815  10.440   7.203 -1.8746 -1.5740 -0.2455
11084SOL    HW240114   7.853  10.340   7.095  0.2325 -1.3363  0.2162
11085SOL     OW40115   1.428   6.684  11.575  0.2193 -0.4917 -0.1083
11085SOL    HW140116   1.390   6.749  11.516  1.9791  0.6279 -0.0760
11085SOL    HW240117   1.511   6.660  11.534  0.5322 -1.1946  0.8965
11086SOL     OW40118   3.012   6.717  12.443 -0.0356 -0.1649 -0.0657
11086SOL    HW140119   3.025   6.708  12.348  1.5323  0.3151  0.0901
11086SOL    HW240120   2.930   6.670  12.459  0.1592 -1.0812 -1.5176
11087SOL     OW40121  11.092   8.629   5.225 -0.7982  0.3867  0.0625
11087SOL    HW140122  11.079   8.688   5.299 -3.1175  1.1911 -0.8872
11087SOL    HW240123  11.051   8.547   5.253  1.9849 -0.7387  1.1877
11088SOL     OW40124  12.314   3.358   5.093 -0.0715 -0.3122  0.6617
11088SOL    HW140125  12.241   3.355   5.155 -1.5760 -0.4591 -1.0185
11088SOL    HW240126  12.283   3.308   5.017  1.1670  0.9121 -0.7169
11089SOL     OW40127   2.025   8.392   6.277  0.2678  0.5126 -0.0190
11089SOL    HW140128   2.118   8.371   6.285 -0.2038 -2.6873 -1.3832
11089SOL    HW240129   1.980   8.316   6.312 -1.8340  1.1187 -1.2179
11090SOL     OW40130   5.143   4.532   0.773  0.2248 -0.6063 -0.5556
11090SOL    HW140131   5.051   4.507   0.780  0.7133 -2.0143  1.8684
11090SOL    HW240132   5.183   4.462   0.721  0.1728 -0.6570 -0.5265
11091SOL     OW40133   7.924   5.101   8.243 -0.0179  0.1141  0.0098
11091SOL    HW140134   7.861   5.059   8.185 -0.6715  0.1428  0.6778
11091SOL    HW240135   8.009   5.082   8.204 -0.2649 -1.9836  0.3712
11092SOL     OW40136  11.379   8.196   9.778  0.3223  0.5971 -0.5064
11092SOL    HW140137  11.414   8.108   9.770  0.3497  0.6924 -1.5006
11092SOL    HW240138  11.400   8.238   9.695 -1.1831  0.9991 -0.7137
11093SOL     OW40139  12.104   9.086   5.526 -0.1666 -0.4145  0.0005
11093SOL    HW140140  12.021   9.066   5.570 -0.9546 -0.3211 -1.4055
11093SOL    HW240141  12.171   9.068   5.593 -1.3322  0.2449  1.4189
11094SOL     OW40142   4.168   2.063   9.135  0.3884  0.1828  0.4527
11094SOL    HW140143   4.079   2.050   9.103  1.4204 -0.8794 -2.2496
11094SOL    HW240144   4.200   2.140   9.089  0.6278  1.0863  2.0604
11095SOL     OW40145  11.467  11.468  10.489  0.4133 -0.0964 -0.3099
11095SOL    HW140146  11.539  11.462  10.427  0.7463 -0.3140  0.0919
11095SOL    HW240147  11.508  11.459  10.575 -0.0554  0.0689 -0.0624
11096SOL     OW40148   2.701   9.481  10.489  0.4312 -0.3553  0.1156
11096SOL    HW140149   2.765   9.545  10.456  1.7692 -0.7298  1.8762
11096SOL    HW240150   2.653   9.528  10.557  0.6842 -0.8955  0.6708
11097SOL     OW40151   8.014   4.610   8.797  0.0086  0.2913  1.0168
11097SOL    HW140152   8.020   4.700   8.764  1.7327  0.3381  1.3646
11097SOL    HW240153   7.985   4.559   8.722  1.0115  0.8463  0.2291
11098SOL     OW40154  10.788   5.808   2.347  0.0901  0.2857 -0.6139
11098SOL    HW140155  10.818   5.894   2.316  1.4013 -0.2107 -0.7910
11098SOL    HW240156  10.803   5.810   2.441  0.5083  0.1197 -0.6722
11099SOL     OW40157   4.898   7.645  10.700  0.0973 -0.0187  0.3564
11099SOL    HW140158   4.861   7.729  10.724 -0.6305 -0.3265  0.3299
11099SOL    HW240159   4.895   7.643  10.605  2.2167  0.8541  0.1973
11100SOL     OW40160   6.140   3.617   1.041 -0.3551  0.2091 -0.0130
11100SOL    HW140161   6.120   3.576   1.125 -0.5314  0.0730 -0.1211
11100SOL    HW240162   6.154   3.543   0.982 -3.4716  0.1972 -0.9231
11101SOL     OW40163   2.299   6.612  11.614  0.3923 -1.0328  0.2254
11101SOL    HW140164   2.371   6.553  11.638  0.4098 -0.9865  0.2892
11101SOL    HW240165   2.285   6.665  11.693  1.3612  0.0585 -0.2960
11102SOL     OW40166   6.670   9.918   3.209  0.1850  0.1403  0.2026
11102SOL    HW140167   6.651  10.011   3.221 -0.9717 -0.0456 -0.1042
11102SOL    HW240168   6.695   9.910   3.117 -1.3217 -0.0876 -0.2145
11103SOL     OW40169   4.235   6.516   9.472  0.2999 -0.3277 -0.2753
11103SOL    HW140170   4.321   6.507   9.431 -0.4915 -0.3896 -2.0028
11103SOL    HW240171   4.249   6.577   9.545  1.6245  0.4123 -1.1108
11104SOL     OW40172   3.022   3.469   7.267  0.2136 -0.5112 -0.2402
11104SOL    HW140173   2.961   3.508   7.205 -0.8739 -1.4506  0.1933
11104SOL    HW240174   3.099   3.526   7.265  0.1447 -0.4231 -2.2933
11105SOL     OW40175  11.359   9.339   7.188 -0.3991  1.4752  0.8389
11105SOL    HW140176  11.405   9.360   7.269  1.0287 -0.5894  0.6533
11105SOL    HW240177  11.428   9.340   7.121 -1.1967  1.2904 -0.0027
11106SOL     OW40178  12.440   7.221   3.176 -0.0579 -0.4347 -0.1150
11106SOL    HW140179  12.398   7.264   3.251 -0.2941  1.4073 -1.2591
11106SOL    HW240180  12.455   7.291   3.113  1.9308 -1.5979 -1.0248
11107SOL     OW40181   6.998  11.960   4.478 -0.1336  0.6134  0.1016
11107SOL    HW140182   7.065  11.945   4.412  1.3413  0.8859  1.4670
11107SOL    HW240183   7.023  12.043   4.519 -1.7246  1.0986  0.1827
11108SOL     OW40184   4.260  10.877   1.800 -0.3867 -0.0029  0.1045
11108SOL    HW140185   4.339  10.826   1.818 -1.2346 -1.2342  0.4474
11108SOL    HW240186   4.242  10.923   1.883  1.6848  2.8124 -0.8558
11109SOL     OW40187   2.134   4.452   2.520  0.1973  0.4229 -0.5377
11109SOL    HW140188   2.205   4.394   2.547 -0.2045  0.6470  1.1347
11109SOL    HW240189   2.093   4.479   2.602  0.1022  2.7495 -1.2648
11110SOL     OW40190   0.939   3.433   1.118 -0.1230 -1.1069 -0.3955
11110SOL    HW140191   0.855   3.417   1.160  0.7681 -1.2062  1.4601
11110SOL    HW240192   0.985   3.349   1.123  0.5057 -0.7697 -0.3577
11111SOL     OW40193   1.273   8.311   7.037 -0.1425 -0.1362  0.4739
11111SOL    HW140194   1.332   8.242   7.066  0.6106  0.8841  1.4924
11111SOL    HW240195   1.205   8.315   7.105 -1.0433 -0.8558 -0.3508
11112SOL     OW40196  10.657   7.050   2.099  0.1687 -0.6390  0.2993
11112SOL    HW140197  10.562   7.058   2.093  0.1614 -0.7039  0.3315
11112SOL    HW240198  10.690   7.137   2.073  0.1247 -0.7998 -0.3267
11113SOL     OW40199   5.491   2.207   3.178 -0.3374 -0.2738  0.6766
11113SOL    HW140200   5.457   2.119   3.162  1.8028 -1.2406  1.1306
11113SOL    HW240201   5.480   2.221   3.272  1.4162 -1.0507  1.0363
11114SOL     OW40202   7.403   6.392   5.007  0.4553 -0.0317  0.1295
11114SOL    HW140203   7.357   6.473   5.028  0.1547  0.0993 -0.9882
11114SOL    HW240204   7.487   6.401   5.052  0.0728  0.4871  0.7684
11115SOL     OW40205   5.698   7.898   9.252  0.1161  0.3831  0.0730
11115SOL    HW140206   5.722   7.868   9.165  0.1596 -0.8130  0.4759
11115SOL    HW240207   5.628   7.961   9.237  0.9465  1.1032 -0.8861
11116SOL     OW40208   9.412  11.219   1.912 -0.6742  0.0646 -0.3942
11116SOL    HW140209   9.375  11.307   1.909  1.3218  0.9868  0.3310
11116SOL    HW240210   9.346  11.166   1.957 -1.0524  1.6695  1.0130
11117SOL     OW40211  10.947   7.251   0.603  0.4526 -0.1157 -0.1366
11117SOL    HW140212  10.905   7.294   0.678 -0.7811 -1.2276 -0.1487
11117SOL    HW240213  10.956   7.159   0.630 -0.6423 -0.6884 -1.5541
11118SOL     OW40214   6.960   5.619   9.355  0.0847 -0.0795  0.0700
11118SOL    HW140215   6.961   5.524   9.347  1.0433 -0.1822  1.0978
11118SOL    HW240216   7.022   5.649   9.288  0.3956 -0.2351  0.2850
11119SOL     OW40217   9.971   2.231   6.747  0.0114  0.2024 -0.2159
11119SOL    HW140218   9.921   2.300   6.703  0.2181  0.9374  0.6741
11119SOL    HW240219   9.979   2.261   6.837  0.5827 -0.7334  0.0600
11120SOL     OW40220  10.654  11.482   4.479  0.5562 -0.2978  0.6392
11120SOL    HW140221  10.628  11.573   4.490  0.9088 -0.0858 -0.1905
11120SOL    HW240222  10.653  11.446   4.568  0.6372  0.5706  1.0045
11121SOL     OW40223   5.730  10.424   1.709 -0.0580 -0.0377  0.5396
11121SOL    HW140224   5.741  10.514   1.679 -1.1688 -0.0141  0.1441
11121SOL    HW240225   5.784  10.418   1.788  0.5077  0.7865  0.2270
11122SOL     OW40226  10.426   2.734  10.573 -0.5817 -1.0270 -0.4554
11122SOL    HW140227  10.369   2.807  10.598  0.5135 -0.5524  0.7470
11122SOL    HW240228  10.485   2.771  10.508  1.7664  0.0160  2.0968
11123SOL     OW40229  11.069  10.529   1.186 -1.0774  0.2977 -0.2859
11123SOL    HW140230  11.151  10.503   1.229 -1.1397  1.2719  0.4647
11123SOL    HW240231  11.039  10.450   1.142 -0.6938 -0.5928  0.9765
11124SOL     OW40232  11.312   1.570   6.176 -0.5195  0.4193 -0.2671
11124SOL    HW140233  11.336   1.508   6.245 -1.1414 -1.5813 -1.7456
11124SOL    HW240234  11.217   1.561   6.169 -0.6918  1.9664 -0.1682
11125SOL     OW40235   9.284   7.507  10.538  0.2950  0.5334 -0.3387
11125SOL    HW140236   9.356   7.544  10.487  0.2566  1.5012  0.2930
11125SOL    HW240237   9.208   7.512  10.479  0.0839  2.3206  0.0232
11126SOL     OW40238   6.446   1.127   4.128  0.1197 -0.2584  0.1842
11126SOL    HW140239   6.456   1.207   4.076  0.2246 -1.0076 -1.0055
11126SOL    HW240240   6.358   1.133   4.165  0.2329  0.5300  0.3399
11127SOL     OW40241  11.864   2.999   5.534 -0.1654 -0.2903  0.6164
11127SOL    HW140242  11.851   2.934   5.602  3.4547 -1.4270  0.4085
11127SOL    HW240243  11.858   2.950   5.452 -2.1876  0.6506  0.1129
11128SOL     OW40244   3.527   5.937   5.561 -0.4168 -0.4341  0.1509
11128SOL    HW140245   3.507   5.910   5.650 -0.8952 -1.3407 -0.2135
11128SOL    HW240246   3.621   5.955   5.562 -0.8199  2.0326  1.4290
11129SOL     OW40247   4.043  11.306  12.459 -0.4318  0.1971  0.2293
11129SOL    HW140248   4.025  11.372  12.391  0.7147  0.6504  0.3439
11129SOL    HW240249   4.032  11.353  12.541 -1.1877 -0.1857  0.3522
11130SOL     OW40250  11.041   8.928   8.241 -0.2607  0.6920  0.1792
11130SOL    HW140251  11.070   8.928   8.332 -1.0609  0.0970  0.4572
11130SOL    HW240252  10.999   9.013   8.228 -2.1526 -0.0510  1.0759
11131SOL     OW40253   2.777  10.670   7.766  0.0439  0.2934 -0.9028
11131SOL    HW140254   2.739  10.667   7.853 -0.9175 -0.6108 -1.3307
11131SOL    HW240255   2.808  10.760   7.756  0.9559  0.1918  0.6791
11132SOL     OW40256  11.564  10.396  11.025  0.2199 -0.4612  0.3691
11132SOL    HW140257  11.494  10.377  11.087  0.6718 -0.3046  0.9296
11132SOL    HW240258  11.519  10.430  10.947 -0.2048  1.7569  1.5162
11133SOL     OW40259  10.345  10.637   5.398  0.8451  0.4051  0.0903
11133SOL    HW140260  10.370  10.690   5.322  1.4014  0.6067  0.4131
11133SOL    HW240261  10.278  10.689   5.442  0.3683  0.1941 -0.3676
11134SOL     OW40262   5.126   9.587   6.228 -0.1428  0.7353  0.0899
11134SOL    HW140263   5.167   9.569   6.312  1.4117 -0.3636 -0.8470
11134SOL    HW240264   5.136   9.506   6.178  1.5410  2.1514 -2.1247
11135SOL     OW40265  11.833   8.895   5.006 -0.5033 -0.4013  0.1002
11135SOL    HW140266  11.859   8.926   5.093  0.1258  1.6970 -0.7665
11135SOL    HW240267  11.888   8.819   4.990  2.2153  1.4256  0.0518
11136SOL     OW40268   1.543   0.652   2.701 -0.1941  0.4740  0.3062
11136SOL    HW140269   1.629   0.686   2.729 -0.1050  0.0864  0.5070
11136SOL    HW240270   1.504   0.618   2.781 -0.1696 -0.1459  0.0571
11137SOL     OW40271   2.512  10.883  11.462 -0.2803 -0.2319  0.3060
11137SOL    HW140272   2.457  10.813  11.429 -0.4663  0.2789 -0.5048
11137SOL    HW240273   2.502  10.880  11.557  0.4184 -1.8676  0.3623
11138SOL     OW40274   4.385   4.174   6.070  0.3024 -0.2010 -0.2450
11138SOL    HW140275   4.362   4.250   6.016 -1.0646 -0.6568 -0.3290
11138SOL    HW240276   4.307   4.120   6.070  0.4471 -0.4920  1.7363
11139SOL     OW40277   8.190  11.015   1.045  0.0372  0.0531 -0.3206
11139SOL    HW140278   8.178  11.097   1.094 -1.2467  2.0344 -3.6111
11139SOL    HW240279   8.282  11.018   1.016  0.2204 -0.1011  0.2325
11140SOL     OW40280   0.084  10.430   3.495  0.4597  0.0157 -0.0078
11140SOL    HW140281   0.095  10.395   3.407  0.4781  0.7833 -0.3174
11140SOL    HW240282   0.166  10.475   3.514  0.8206 -0.9125  0.7768
11141SOL     OW40283   6.959  12.478   0.004  0.1029  0.3095  0.1869
11141SOL    HW140284   6.964  12.450   0.095  0.9353  1.5536  0.5514
11141SOL    HW240285   6.887  12.541   0.002 -1.3348 -1.2771 -0.4923
11142SOL     OW40286   6.974   9.190   4.989 -0.4355 -0.2571 -0.1887
11142SOL    HW140287   6.983   9.172   5.083 -0.0714 -0.8603 -0.3359
11142SOL    HW240288   7.051   9.151   4.949 -0.8464 -0.4601 -0.8028
11143SOL     OW40289  11.387   4.529   7.889 -0.1086  0.5861  0.4869
11143SOL    HW140290  11.481   4.548   7.882  0.0144 -0.1989 -0.0592
11143SOL    HW240291  11.382   4.450   7.943 -0.4633  0.6731  0.5868
11144SOL     OW40292   9.291   3.061   4.911  0.5272  0.0928 -0.1278
11144SOL    HW140293   9.335   3.144   4.931 -1.1705  0.6768  1.4297
11144SOL    HW240294   9.362   3.002   4.886  1.7844  2.0121 -1.3531
11145SOL     OW40295  10.435  10.047   6.779  0.1603  0.7153 -0.2367
11145SOL    HW140296  10.414  10.009   6.694  1.3766  0.1745 -0.3261
11145SOL    HW240297  10.425  10.141   6.767  1.3377  0.7361 -1.3103
11146SOL     OW40298   2.854   6.250   8.576  0.4999  0.0045 -0.0969
11146SOL    HW140299   2.944   6.230   8.549  0.4360  0.8553 -1.0207
11146SOL    HW240300   2.853   6.346   8.584 -0.5581  0.0968 -1.0411
11147SOL     OW40301  11.156  11.209  11.480  0.4550 -0.5063  0.4436
11147SOL    HW140302  11.071  11.166  11.484  0.4638 -0.4697  1.1783
11147SOL    HW240303  11.197  11.188  11.564  0.3256  1.2160  0.9666
11148SOL     OW40304  11.934   3.272   0.441  0.2246  0.2908  0.1376
11148SOL    HW140305  11.965   3.279   0.532  2.8627 -1.6398 -0.4895
11148SOL    HW240306  11.904   3.360   0.419  0.0873  0.9647  2.6714
11149SOL     OW40307   6.740   8.552  10.724 -0.2954 -0.3450 -0.9624
11149SOL    HW140308   6.675   8.598  10.670  0.4364  0.6529 -1.0344
11149SOL    HW240309   6.712   8.461  10.724 -1.1571 -0.0942 -1.7819
11150SOL     OW40310   9.846   9.473   3.236  0.2659 -0.1825 -0.6066
11150SOL    HW140311   9.841   9.498   3.144 -0.9040  0.7047 -0.3211
11150SOL    HW240312   9.835   9.555   3.285 -0.7632 -0.8449  0.3277
11151SOL     OW40313   8.171   7.886  10.596 -1.0040  0.3195 -0.1259
11151SOL    HW140314   8.204   7.976  10.594  0.7617 -0.2778  0.4870
11151SOL    HW240315   8.194   7.851  10.510 -1.6810  0.4482 -0.3608
11152SOL     OW40316   0.741   8.654  10.033  0.1818 -0.1167  0.6368
11152SOL    HW140317   0.696   8.695  10.108 -0.2721  1.0299 -0.2274
11152SOL    HW240318   0.834   8.664  10.053  0.0661  0.4636  0.9150
11153SOL     OW40319  12.105   4.862  10.456 -0.1296  0.2237  0.5369
11153SOL    HW140320  12.019   4.876  10.418  0.1674  1.1993  0.2087
11153SOL    HW240321  12.089   4.851  10.550 -0.6379  0.0327  0.4300
11154SOL     OW40322   0.522   5.953  10.160  0.3287  0.1006  0.2568
11154SOL    HW140323   0.462   5.953  10.234 -0.1412  1.7436 -0.0809
11154SOL    HW240324   0.539   5.860  10.143 -3.1131 -0.5302 -0.4409
11155SOL     OW40325   3.697  11.442   3.020 -0.1065  0.6081 -0.4182
11155SOL    HW140326   3.716  11.378   3.089  0.0601  0.1184 -0.9098
11155SOL    HW240327   3.620  11.489   3.052 -2.2989 -2.0255 -1.4333
11156SOL     OW40328  10.434   1.295   6.208 -0.1274  0.0229 -0.3760
11156SOL    HW140329  10.492   1.258   6.275  1.2575 -0.2986 -1.7001
11156SOL    HW240330  10.461   1.253   6.127  0.1846  2.4482 -1.6419
11157SOL     OW40331   1.484   3.837   4.911  0.0696 -0.0542  0.4148
11157SOL    HW140332   1.515   3.748   4.891 -0.7129 -0.2833  0.1725
11157SOL    HW240333   1.430   3.826   4.990 -0.8674  0.0181 -0.1942
11158SOL     OW40334   7.349  11.173   9.392  0.8402  0.5230  0.3025
11158SOL    HW140335   7.438  11.175   9.358  0.8708  0.0164  0.3454
11158SOL    HW240336   7.294  11.153   9.315  0.9238 -0.7741  0.5522
11159SOL     OW40337   7.479   3.356   0.122  0.5486 -0.1966 -0.0436
11159SOL    HW140338   7.440   3.443   0.117  2.0873  0.5929  0.7331
11159SOL    HW240339   7.505   3.347   0.214 -1.2405 -2.2743  0.3373
11160SOL     OW40340  11.996  10.424   7.114  0.1755 -0.0569 -1.0382
11160SOL    HW140341  12.026  10.471   7.036 -0.1098  1.7881 -0.0820
11160SOL    HW240342  12.077  10.406   7.163  0.1749  0.7069 -0.7408
11161SOL     OW40343  10.237   4.498   0.720 -0.1405 -0.1636 -0.2274
11161SOL    HW140344  10.251   4.500   0.814  1.3791 -0.7687 -0.4137
11161SOL    HW240345  10.159   4.552   0.706  0.8166  1.6616  1.1597
11162SOL     OW40346   5.893   5.540   4.561 -0.6389 -0.0903 -0.3142
11162SOL    HW140347   5.906   5.492   4.643  0.7799  1.0824  0.1951
11162SOL    HW240348   5.849   5.621   4.589 -0.7925 -0.0002 -0.8180
11163SOL     OW40349  11.653   1.597  11.808  0.2605 -0.2644  0.4615
11163SOL    HW140350  11.739   1.557  11.816  0.5868  0.6919  2.1763
11163SOL    HW240351  11.612   1.551  11.735  2.4214 -0.3318 -0.7678
11164SOL     OW40352   4.986   4.105   6.717  0.1902 -0.2085  0.0914
11164SOL    HW140353   4.988   4.192   6.678 -0.7443  0.8423  2.2325
11164SOL    HW240354   5.075   4.091   6.751  0.5837 -0.4990 -1.0132
11165SOL     OW40355   1.376   3.044   5.648 -0.8476 -0.1642 -0.1445
11165SOL    HW140356   1.383   2.961   5.601  0.9145 -0.4168  0.4971
11165SOL    HW240357   1.282   3.051   5.668 -0.9607 -2.4381  0.5178
11166SOL     OW40358   8.815   7.733   7.498 -0.3546  0.2568  0.2455
11166SOL    HW140359   8.903   7.735   7.462 -0.2063 -0.4044  0.5519
11166SOL    HW240360   8.804   7.818   7.541  0.8276 -0.3383  1.8176
11167SOL     OW40361   5.022   6.588   6.246  0.2665 -0.7173  0.6119
11167SOL    HW140362   4.938   6.617   6.210  0.5397 -1.9106 -1.1274
11167SOL    HW240363   5.087   6.643   6.202  0.5121 -1.0808  0.5161
11168SOL     OW40364   8.258   9.927   2.181  0.7125 -0.1987 -0.1612
11168SOL    HW140365   8.234   9.925   2.088  0.9426 -0.3156 -0.2188
11168SOL    HW240366   8.320  10.000   2.188 -0.5807  0.8989  0.2156
11169SOL     OW40367  10.361   8.604   8.027 -0.9946 -0.1319  0.1605
11169SOL    HW140368  10.427   8.673   8.021  1.2082 -2.0585  0.6546
11169SOL    HW240369  10.294   8.629   7.963  0.3862  1.7256 -0.6644
11170SOL     OW40370   9.906  11.267   0.540  0.1650 -0.5938 -0.0516
11170SOL    HW140371   9.810  11.266   0.544 -0.0350  1.6066 -2.0522
11170SOL    HW240372   9.927  11.347   0.493  3.0133 -1.2331 -0.0438
11171SOL     OW40373   2.868   3.086   3.739 -0.4724 -0.4385  0.7115
11171SOL    HW140374   2.964   3.075   3.740 -0.6225 -2.1856 -0.2978
11171SOL    HW240375   2.837   3.033   3.813 -0.6382  0.9260  1.6660
11172SOL     OW40376   8.847   1.596   6.229  0.6779 -0.5129  0.4232
11172SOL    HW140377   8.821   1.605   6.137  1.9242  0.0897  0.1131
11172SOL    HW240378   8.935   1.558   6.226  1.3278  0.8505  1.3058
11173SOL     OW40379  10.198   1.967   7.650  0.0333  0.0623  0.0586
11173SOL    HW140380  10.239   2.015   7.577  1.2682 -0.7341  0.1966
11173SOL    HW240381  10.222   2.017   7.728  0.3392 -0.1238  0.0884
11174SOL     OW40382   9.577   6.917   4.414  0.3157  0.0933 -0.1398
11174SOL    HW140383   9.673   6.915   4.405  0.3747  0.2895  0.3995
11174SOL    HW240384   9.560   6.998   4.463 -0.1387  0.1214 -0.3440
11175SOL     OW40385   8.791  11.014   0.487  0.0900  1.1941 -0.1946
11175SOL    HW140386   8.731  10.951   0.528  0.5762  0.9412  0.1301
11175SOL    HW240387   8.737  11.092   0.474  0.0192  1.4365  1.3254
11176SOL     OW40388  11.064   7.277   0.035 -0.0683  0.1395 -0.3548
11176SOL    HW140389  11.020   7.294  -0.048  0.6011 -0.3123 -0.8162
11176SOL    HW240390  11.133   7.214   0.013  2.8435  3.0648 -0.3003
11177SOL     OW40391   2.420   4.255   7.168 -0.1865  0.4198  0.1166
11177SOL    HW140392   2.471   4.314   7.223 -0.2946  0.3521  0.2891
11177SOL    HW240393   2.443   4.167   7.199 -2.7931  0.4121  2.3859
11178SOL     OW40394  11.900   6.196   0.003 -0.0763 -0.5197 -0.1888
11178SOL    HW140395  11.892   6.114  -0.046  0.3149  0.0334 -1.1960
11178SOL    HW240396  11.896   6.264  -0.064  0.6135  0.2493  0.5446
11179SOL     OW40397   6.787   2.904   0.835 -0.0024  0.2802 -0.0339
11179SOL    HW140398   6.738   2.837   0.786 -1.4241  0.8092  0.6025
11179SOL    HW240399   6.771   2.985   0.787 -0.8755  0.6906  0.9167
11180SOL     OW40400   6.749   2.927   8.924 -0.2477 -0.4886  0.0197
11180SOL    HW140401   6.826   2.983   8.916  0.3893 -1.5166 -1.2120
11180SOL    HW240402   6.781   2.848   8.968 -1.0077 -0.1884  1.1667
11181SOL     OW40403   4.051  10.138   2.887  0.1509 -0.5737 -0.1988
11181SOL    HW140404   4.110  10.063   2.884  0.6951 -0.1205 -1.3145
11181SOL    HW240405   4.010  10.141   2.800  1.8815  1.7625 -1.0383
11182SOL     OW40406  11.852   2.293   9.044  0.0258 -0.1130 -0.4728
11182SOL    HW140407  11.843   2.198   9.034 -2.6705  0.1313 -1.2352
11182SOL    HW240408  11.837   2.309   9.137 -0.9208 -0.3595 -0.5695
11183SOL     OW40409   7.890   5.678   6.187 -0.3720  0.9780  0.1251
11183SOL    HW140410   7.931   5.673   6.274  0.4660  0.4353 -0.2902
11183SOL    HW240411   7.806   5.722   6.203 -1.3432 -1.2176  1.6358
11184SOL     OW40412   2.038   9.043   3.642  0.5335  0.1571  0.1890
11184SOL    HW140413   2.055   8.970   3.701 -0.8700  0.1690  0.6563
11184SOL    HW240414   1.983   9.103   3.693 -0.7319  0.1625 -1.1260
11185SOL     OW40415   5.899   6.109   1.056  0.0185 -0.5536  0.5844
11185SOL    HW140416   5.977   6.099   1.111  0.4047 -2.0551 -0.1885
11185SOL    HW240417   5.889   6.024   1.013 -0.4200  0.4747 -1.4638
11186SOL     OW40418   1.822   5.848   4.819  0.0055 -0.0068 -0.2118
11186SOL    HW140419   1.786   5.924   4.863 -0.4133 -0.3916  0.1193
11186SOL    HW240420   1.823   5.779   4.886 -1.3026 -0.8101 -0.9702
11187SOL     OW40421   8.755   7.069   9.543  0.8745 -0.1499 -0.4381
11187SOL    HW140422   8.716   6.983   9.555  0.8510 -0.1963 -0.8337
11187SOL    HW240423   8.697   7.129   9.590  1.2360 -0.4239  0.3843
11188SOL     OW40424   6.137   4.621  10.098  0.5443  0.0858 -0.2717
11188SOL    HW140425   6.210   4.680  10.117 -0.2170  0.3551  2.1544
11188SOL    HW240426   6.059   4.670  10.124 -0.5350 -0.3299 -2.4709
11189SOL     OW40427   9.338   6.185  10.947  0.3024  0.6407  0.1887
11189SOL    HW140428   9.369   6.275  10.959 -1.5705  1.5205 -1.1614
11189SOL    HW240429   9.415   6.131  10.966  1.3105  2.4682  1.6339
11190SOL     OW40430   8.124   4.435   9.988  0.6555 -0.6248 -0.1093
11190SOL    HW140431   8.201   4.407  10.036  0.5143 -2.6871 -0.9954
11190SOL    HW240432   8.077   4.354   9.968 -1.0929  0.4710 -0.6856
11191SOL     OW40433   9.062   7.579   7.764  0.6370 -0.5238 -0.4910
11191SOL    HW140434   9.114   7.560   7.842 -0.8479 -3.3864 -0.0772
11191SOL    HW240435   9.123   7.571   7.691  1.7773  1.0158  0.2486
11192SOL     OW40436  10.299   8.278  12.473 -0.1641  0.0804 -0.2701
11192SOL    HW140437  10.365   8.210  12.483 -0.5572 -0.2991 -0.1764
11192SOL    HW240438  10.348   8.357  12.453  0.3101 -0.2071 -0.2678
11193SOL     OW40439   1.308   3.779  12.477  0.0373 -0.3073  0.8522
11193SOL    HW140440   1.357   3.844  12.427 -2.5570  1.4421  0.3729
11193SOL    HW240441   1.247   3.831  12.530  0.2555 -2.2460  3.2149
11194SOL     OW40442   6.848   0.172  12.144 -0.2110 -0.3659  0.3431
11194SOL    HW140443   6.852   0.205  12.234  1.7980 -2.2526  1.0254
11194SOL    HW240444   6.873   0.247  12.090  0.7957  0.1922  1.5457
11195SOL     OW40445   8.707   0.610   1.998 -0.0112  0.3820  0.0292
11195SOL    HW140446   8.760   0.664   1.939  0.7104 -1.6236 -1.2419
11195SOL    HW240447   8.765   0.538   2.023 -2.0246 -1.8427 -1.3214
11196SOL     OW40448  11.278   2.324   9.687  0.6284  0.4485 -0.4026
11196SOL    HW140449  11.230   2.393   9.733  0.6017  0.8935 -1.0778
11196SOL    HW240450  11.234   2.316   9.603  1.4540  0.5477 -0.8569
11197SOL     OW40451   7.601   9.019   1.041  0.0036 -0.1800  0.0372
11197SOL    HW140452   7.508   9.017   1.018  0.3141 -0.4940 -1.2405
11197SOL    HW240453   7.632   9.103   1.008  0.8361 -1.3472 -2.3507
11198SOL     OW40454   4.499   0.440   9.137  0.0347  0.2149  0.4787
11198SOL    HW140455   4.466   0.377   9.202 -0.8522  0.5760  0.4003
11198SOL    HW240456   4.579   0.400   9.103  0.1586 -0.2841  1.3261
11199SOL     OW40457   4.843   7.947  11.019 -0.4318  0.5116 -0.4528
11199SOL    HW140458   4.802   7.924  10.935  1.1475  1.0774 -1.4236
11199SOL    HW240459   4.924   7.992  10.994  1.0461 -1.0014  1.3568
11200SOL     OW40460   6.653   8.764   9.413 -0.7217 -0.0499 -0.4515
11200SOL    HW140461   6.655   8.731   9.323 -0.3500  2.0808 -1.2862
11200SOL    HW240462   6.743   8.792   9.430 -0.6393 -0.9839  0.8528
11201SOL     OW40463   6.337   0.651   1.504 -0.0677 -0.1463  0.2305
11201SOL    HW140464   6.420   0.619   1.468  0.6413  0.2285  1.4845
11201SOL    HW240465   6.334   0.616   1.593 -1.1514  0.0475  0.2818
11202SOL     OW40466   2.410   6.781   6.874 -0.0277 -0.0573 -0.1808
11202SOL    HW140467   2.365   6.712   6.826  1.3427 -1.5048  0.5218
11202SOL    HW240468   2.348   6.854   6.874 -2.3901 -1.9057  0.7143
11203SOL     OW40469   9.536   3.106   9.440 -0.3545 -0.1953  0.1865
11203SOL    HW140470   9.553   3.027   9.388 -0.7336 -1.4078  1.8486
11203SOL    HW240471   9.614   3.160   9.427  0.8940 -1.8003  0.7420
11204SOL     OW40472   7.966   6.278   4.671  0.0184  0.1679 -0.2654
11204SOL    HW140473   8.057   6.302   4.659 -0.2107  0.6731 -1.0663
11204SOL    HW240474   7.960   6.188   4.639  1.1070 -1.5455  3.7098
11205SOL     OW40475   5.497   6.516   3.977 -0.0769 -0.0940  0.1890
11205SOL    HW140476   5.522   6.446   4.037  0.5626  1.9673  2.5216
11205SOL    HW240477   5.556   6.506   3.902  0.2461 -1.7928  0.6215
11206SOL     OW40478   9.123  11.245   3.473 -0.5643 -0.3447 -0.3920
11206SOL    HW140479   9.204  11.266   3.518 -0.3359  0.2035 -1.0375
11206SOL    HW240480   9.112  11.151   3.485 -0.5431 -0.2067  0.8472
11207SOL     OW40481  12.237   8.727  12.364  0.2341  0.3123 -0.0824
11207SOL    HW140482  12.229   8.653  12.303 -2.8253  0.6691 -0.2492
11207SOL    HW240483  12.331   8.733  12.382  1.0969 -0.8244 -3.4955
11208SOL     OW40484   9.808   4.911   6.061 -0.8292 -0.3683 -0.6114
11208SOL    HW140485   9.729   4.951   6.096 -1.1964 -1.0107 -0.6866
11208SOL    HW240486   9.818   4.950   5.974  0.8348  2.2553  0.6187
11209SOL     OW40487   1.020   1.529   3.196  0.1240  0.4038 -0.0060
11209SOL    HW140488   1.074   1.584   3.139 -1.2285 -1.1469 -2.9764
11209SOL    HW240489   0.955   1.589   3.232  0.1473  1.1940 -1.2387
11210SOL     OW40490   6.753   2.860   2.463  0.2959 -0.1249  0.4336
11210SOL    HW140491   6.721   2.944   2.495 -1.6968 -0.2738 -0.9672
11210SOL    HW240492   6.720   2.796   2.526 -1.4016 -0.1613 -0.4152
11211SOL     OW40493   8.041  10.830   8.031  0.2722 -0.3971  0.0666
11211SOL    HW140494   8.037  10.736   8.045  0.2640 -0.4791 -0.4849
11211SOL    HW240495   8.134  10.851   8.037  0.4598 -0.6998 -1.4445
11212SOL     OW40496  11.627   1.213   4.728 -0.0148 -0.1165 -0.5527
11212SOL    HW140497  11.621   1.149   4.798  0.3432 -2.2070 -2.3185
11212SOL    HW240498  11.566   1.283   4.753  0.2638 -0.6755  1.8761
11213SOL     OW40499   0.564   1.342   3.176  0.0120  0.1478  0.0946
11213SOL    HW140500   0.658   1.354   3.188 -0.0824  0.2612  0.8218
11213SOL    HW240501   0.549   1.249   3.194  0.0033  0.1041 -0.1413
11214SOL     OW40502   9.298   2.921   2.231  0.4901  0.5506  0.2351
11214SOL    HW140503   9.266   2.846   2.181 -3.5895  1.3977  1.1494
11214SOL    HW240504   9.332   2.884   2.312  1.1903 -0.4208 -0.4821
11215SOL     OW40505   1.506   0.872   7.391 -0.3305 -0.2238 -0.2217
11215SOL    HW140506   1.448   0.806   7.430  1.1169 -0.5156  1.5505
11215SOL    HW240507   1.462   0.955   7.408 -0.0895 -0.4071  1.4263
11216SOL     OW40508  10.062   5.586   6.921  0.1077  0.5052 -0.0826
11216SOL    HW140509   9.994   5.519   6.917 -0.6796  1.3254 -2.2126
11216SOL    HW240510  10.046   5.631   7.004  0.0647 -1.2889  0.9351
11217SOL     OW40511   6.387  10.565   4.221  0.1702  0.3874 -0.1966
11217SOL    HW140512   6.311  10.601   4.175  1.4885  2.2070 -1.0800
11217SOL    HW240513   6.461  10.588   4.165  1.3876 -1.2624  0.6854
11218SOL     OW40514   5.934  10.616   2.887 -0.5569  0.7570 -0.4183
11218SOL    HW140515   6.020  10.578   2.904 -0.1956  1.4971 -0.5642
11218SOL    HW240516   5.896  10.561   2.818 -0.0224  0.6772 -0.6518
11219SOL     OW40517   7.803   6.623   1.851 -0.0046  0.2677  0.7010
11219SOL    HW140518   7.869   6.554   1.858  0.2077  0.5939  2.2296
11219SOL    HW240519   7.853   6.705   1.853 -0.3778  0.4950  0.9784
11220SOL     OW40520   6.327   8.232   5.974 -0.0179 -0.9961 -0.2823
11220SOL    HW140521   6.251   8.277   6.011  0.1832 -0.5673 -0.3788
11220SOL    HW240522   6.353   8.169   6.041  1.5768  1.1264  1.2798
11221SOL     OW40523   3.624   8.761   7.359  0.1899 -0.0178 -0.5163
11221SOL    HW140524   3.556   8.825   7.378  2.2996  2.5763 -1.0011
11221SOL    HW240525   3.627   8.757   7.263  2.2829  1.8949 -0.6168
11222SOL     OW40526   6.641   2.771   7.596 -0.0076 -0.0581  0.2430
11222SOL    HW140527   6.628   2.681   7.626 -1.5094 -0.9582 -2.7211
11222SOL    HW240528   6.690   2.763   7.515 -2.2255  1.5290 -1.3796
11223SOL     OW40529   1.417   3.150   2.045 -0.0076 -0.0814 -0.4555
11223SOL    HW140530   1.458   3.070   2.076 -1.3866 -0.4597  0.4523
11223SOL    HW240531   1.361   3.122   1.972 -0.0463  0.1432 -0.5136
11224SOL     OW40532   2.729   4.977   1.251  0.0593  0.1075 -0.0496
11224SOL    HW140533   2.805   5.022   1.289 -0.4847  0.1720  1.0002
11224SOL    HW240534   2.723   4.895   1.300 -1.1237  0.5415  0.5710
11225SOL     OW40535  10.483  10.000   7.068  0.1506  0.5506  0.2257
11225SOL    HW140536  10.482  10.013   6.973  1.0902  2.4085  0.4415
11225SOL    HW240537  10.414  10.058   7.101 -0.2197 -0.1400  0.6882
11226SOL     OW40538  10.480  11.474   4.252 -0.6036 -0.3224  0.2652
11226SOL    HW140539  10.469  11.449   4.344  1.0743  0.7829  0.8225
11226SOL    HW240540  10.568  11.511   4.249 -0.7661 -0.0383 -1.7373
11227SOL     OW40541  12.130   5.830  11.162 -0.7340 -0.8594  0.5243
11227SOL    HW140542  12.092   5.873  11.085 -0.9978 -0.2572  0.9794
11227SOL    HW240543  12.055   5.807  11.216 -0.4855 -0.0035  1.2544
11228SOL     OW40544   0.973   5.168   1.337  0.2336  0.6105 -0.5480
11228SOL    HW140545   0.976   5.201   1.427 -0.6756  0.9291 -0.6197
11228SOL    HW240546   1.022   5.234   1.286  2.3790 -0.5061 -0.0596
11229SOL     OW40547   4.933   0.442   6.250  0.2594  0.4413 -0.1416
11229SOL    HW140548   5.018   0.452   6.293 -0.4776 -0.2000  1.5635
11229SOL    HW240549   4.881   0.390   6.311 -0.6328 -1.2259 -2.1974
11230SOL     OW40550   8.782   0.905   2.534  0.2680  0.1957  0.0401
11230SOL    HW140551   8.773   0.843   2.462  1.2942 -0.1385  0.1900
11230SOL    HW240552   8.719   0.875   2.600 -0.9897  0.7487 -0.8578
11231SOL     OW40553   6.906   9.670   6.958 -0.6359  0.2958 -0.6418
11231SOL    HW140554   6.873   9.738   6.899 -1.9098 -0.9329 -1.4036
11231SOL    HW240555   6.995   9.653   6.927 -0.4832  1.2446 -0.7552
11232SOL     OW40556   6.680   0.311   2.011  0.0944  0.0981 -0.4408
11232SOL    HW140557   6.724   0.345   1.933  3.3155  0.1361  1.1937
11232SOL    HW240558   6.726   0.229   2.030  0.4840  0.8303  2.1674
11233SOL     OW40559   0.801   5.388   8.393  0.0907  0.5357 -0.1684
11233SOL    HW140560   0.721   5.409   8.345  0.7122  0.5454 -1.2418
11233SOL    HW240561   0.802   5.293   8.400 -1.2759  0.6320  2.1313
11234SOL     OW40562   6.498   8.962  12.373 -0.2506  0.1164 -0.0889
11234SOL    HW140563   6.575   8.993  12.420  0.1587 -0.7137 -0.2018
11234SOL    HW240564   6.424   8.996  12.423  0.1237  2.5297 -1.0010
11235SOL     OW40565  11.213   6.193  10.399 -0.2990  0.1225 -0.7333
11235SOL    HW140566  11.227   6.146  10.482 -1.1996 -0.3697 -0.8571
11235SOL    HW240567  11.201   6.124  10.334 -0.0983  0.5185 -1.1929
11236SOL     OW40568   7.073   4.746   3.211 -0.6323 -0.2189 -0.4432
11236SOL    HW140569   7.166   4.733   3.195 -0.0110  1.7632  1.1769
11236SOL    HW240570   7.050   4.680   3.276 -0.4280 -0.8459 -0.9996
11237SOL     OW40571   1.289   4.832   4.153  0.2976 -0.1270 -0.3066
11237SOL    HW140572   1.305   4.740   4.173 -1.1311 -0.3394 -0.0225
11237SOL    HW240573   1.294   4.876   4.238  1.6417  0.1914 -0.5254
11238SOL     OW40574   3.580  11.077   1.144  0.3396 -0.1398  0.1056
11238SOL    HW140575   3.624  11.083   1.060  0.9564  0.7597  0.4788
11238SOL    HW240576   3.622  11.003   1.188 -0.4044 -1.0074 -0.5963
11239SOL     OW40577   7.327   8.355   7.680  0.3751  0.0264 -0.6329
11239SOL    HW140578   7.411   8.323   7.714  0.0625  1.7425  1.9940
11239SOL    HW240579   7.292   8.281   7.631  2.6416 -1.3197 -0.3579
11240SOL     OW40580   7.871   7.689   7.340  0.1395 -0.0940  0.0311
11240SOL    HW140581   7.831   7.605   7.363 -0.5309 -0.5151 -2.4568
11240SOL    HW240582   7.962   7.668   7.320  0.1498 -0.0957  0.0775
11241SOL     OW40583   2.451   5.754   1.019  0.2533  0.0735  0.2411
11241SOL    HW140584   2.527   5.806   1.042  0.5468 -0.0887 -0.3413
11241SOL    HW240585   2.380   5.817   1.011 -0.3820 -0.0365  3.5781
11242SOL     OW40586   2.959   6.260   3.928 -0.0951  0.5674 -0.2657
11242SOL    HW140587   2.886   6.300   3.976  0.4226  0.0469  0.9741
11242SOL    HW240588   3.029   6.325   3.934  0.0966  0.3332  0.0128
11243SOL     OW40589   8.069   1.661  10.194  0.2330  0.2631 -0.0644
11243SOL    HW140590   8.129   1.718  10.242  2.9549 -1.1776 -1.5032
11243SOL    HW240591   8.111   1.575  10.196 -2.2031 -1.0246 -0.5673
11244SOL     OW40592   4.866   2.271   6.144 -0.5172 -0.1499 -0.0075
11244SOL    HW140593   4.918   2.310   6.073  0.9861 -0.3961  0.9129
11244SOL    HW240594   4.862   2.339   6.210  1.6671 -1.2566  1.3857
11245SOL     OW40595  10.652   9.777   4.531  0.3035  0.8474  0.0589
11245SOL    HW140596  10.654   9.873   4.534  0.7846  0.9154 -1.6832
11245SOL    HW240597  10.744   9.751   4.529  0.1751  0.4128 -0.6413
11246SOL     OW40598   9.524   7.305   6.532 -0.3839 -0.2391 -0.1901
11246SOL    HW140599   9.517   7.396   6.561  1.8944 -0.2489  0.6251
11246SOL    HW240600   9.491   7.253   6.604 -1.5458 -0.0801 -0.5958
11247SOL     OW40601  11.157   3.969   0.321  0.7265  0.2043  0.4797
11247SOL    HW140602  11.178   3.879   0.296 -1.0117  0.5024 -2.5467
11247SOL    HW240603  11.093   3.960   0.392 -2.1339 -1.2012 -2.0597
11248SOL     OW40604   3.912   5.790   8.711 -0.2253 -0.1979  0.4183
11248SOL    HW140605   3.852   5.762   8.781  0.3953 -0.9603  0.6665
11248SOL    HW240606   3.933   5.709   8.664  0.4761  0.0796  0.2415
11249SOL     OW40607   4.839   7.730   4.158 -0.5179  0.6871 -0.4637
11249SOL    HW140608   4.908   7.762   4.100  0.5202  0.8806  0.8264
11249SOL    HW240609   4.876   7.738   4.246 -2.2844  1.0297  0.2929
11250SOL     OW40610  10.878   8.427   8.825 -0.4011 -0.4584  0.4313
11250SOL    HW140611  10.857   8.516   8.796  0.2714  0.0859  1.5600
11250SOL    HW240612  10.974   8.426   8.831 -0.3172 -1.5721 -0.4838
11251SOL     OW40613  10.813   1.386   1.475  0.5148 -0.0560  0.4533
11251SOL    HW140614  10.907   1.405   1.475  0.3490  0.8409 -0.1506
11251SOL    HW240615  10.772   1.471   1.460 -0.4936 -0.0913  2.7371
11252SOL     OW40616   4.053  10.748  10.134  0.2578  0.2445 -0.0934
11252SOL    HW140617   4.065  10.687  10.207  1.4528  0.4595 -0.0890
11252SOL    HW240618   4.076  10.696  10.056 -0.4671  0.1758 -0.2622
11253SOL     OW40619   5.390   3.863   3.987 -0.3253 -0.4406  0.0654
11253SOL    HW140620   5.470   3.872   3.935 -1.3941 -0.0090 -1.5796
11253SOL    HW240621   5.397   3.776   4.027  1.8978  0.3891  1.6587
11254SOL     OW40622   8.765   8.987   0.125  0.1373  0.0365 -0.1410
11254SOL    HW140623   8.847   9.022   0.092  0.6704 -2.2645 -1.5030
11254SOL    HW240624   8.738   9.048   0.193  3.6714  0.2103  1.3159
11255SOL     OW40625   1.495   1.861   0.781  0.7344 -0.4638  0.3122
11255SOL    HW140626   1.413   1.834   0.741 -0.7143  1.6897  1.6102
11255SOL    HW240627   1.486   1.955   0.795  2.9655 -0.3418  1.5530
11256SOL     OW40628  11.768   1.568   4.521 -0.3644 -0.3676 -0.4017
11256SOL    HW140629  11.775   1.655   4.560 -1.8052 -0.3105 -0.2261
11256SOL    HW240630  11.849   1.524   4.546  0.1796  0.7605 -0.1082
11257SOL     OW40631  11.698   3.454   0.646 -0.0074  0.2244  0.2321
11257SOL    HW140632  11.667   3.438   0.556 -0.2600 -2.5955  0.7251
11257SOL    HW240633  11.620   3.486   0.692 -0.4649 -0.4068 -0.0783
11258SOL     OW40634   8.411   2.213   5.697 -0.1524  0.2620 -0.0040
11258SOL    HW140635   8.381   2.254   5.778 -0.5642 -0.6353  0.3052
11258SOL    HW240636   8.343   2.234   5.633 -1.3295 -1.5010  0.6179
11259SOL     OW40637   9.367   3.542   5.788 -0.3420 -0.4613 -0.8966
11259SOL    HW140638   9.409   3.533   5.702 -0.9281 -5.3981 -0.9852
11259SOL    HW240639   9.273   3.546   5.769 -0.3866  1.8252 -0.4596
11260SOL     OW40640   2.761   4.378   9.680 -0.1019 -0.0866  1.0011
11260SOL    HW140641   2.824   4.314   9.713  1.5282  1.0126  0.1895
11260SOL    HW240642   2.798   4.463   9.706  0.2428  0.7284 -1.7954
11261SOL     OW40643   8.715   3.968  10.502  0.6979  0.0813 -0.0955
11261SOL    HW140644   8.707   3.996  10.593  1.5374  0.0384  0.0024
11261SOL    HW240645   8.805   3.936  10.495  1.0513  1.2205 -1.2350
11262SOL     OW40646   7.483   7.719   8.085  0.2282  0.2708  0.2206
11262SOL    HW140647   7.437   7.802   8.096  0.9701  1.1496 -2.6227
11262SOL    HW240648   7.417   7.659   8.049 -0.1342 -0.2708  1.6750
11263SOL     OW40649   5.856   5.906   0.412  0.5710  0.4640 -0.5535
11263SOL    HW140650   5.762   5.890   0.408  0.4410  1.3584 -1.5751
11263SOL    HW240651   5.895   5.820   0.425 -0.3730  0.0615 -0.3228
11264SOL     OW40652   0.411   8.815   9.229  0.8966 -0.4843  0.2758
11264SOL    HW140653   0.445   8.855   9.150  1.7635 -0.7926  0.4786
11264SOL    HW240654   0.316   8.812   9.216  1.0070 -0.2748 -0.6204
11265SOL     OW40655   5.037   8.953   0.306  0.0030 -0.1606 -0.3742
11265SOL    HW140656   4.969   8.964   0.239 -0.7942 -1.7361  0.1166
11265SOL    HW240657   5.043   9.039   0.349 -0.0724  0.6290 -1.8732
11266SOL     OW40658  10.660  11.653  10.415 -0.0316 -0.1858 -0.5625
11266SOL    HW140659  10.716  11.576  10.421  1.4423  0.7257 -1.7669
11266SOL    HW240660  10.678  11.703  10.495  0.7176 -0.0315 -0.8143
11267SOL     OW40661   0.676   6.506   5.735  0.6007 -0.1354  0.7408
11267SOL    HW140662   0.675   6.546   5.648 -1.2424 -1.1532  0.2626
11267SOL    HW240663   0.663   6.412   5.719 -0.5937 -0.2402  2.1389
11268SOL     OW40664   3.039  10.300   5.520  0.4665  0.2153  0.1263
11268SOL    HW140665   3.034  10.252   5.437 -0.8058  0.1585  0.2110
11268SOL    HW240666   3.048  10.392   5.494 -1.3600  0.3635 -0.1461
11269SOL     OW40667  12.408  11.944  10.817 -0.9808 -0.1306 -0.6304
11269SOL    HW140668  12.320  11.971  10.841 -0.9416  1.1885 -1.8235
11269SOL    HW240669  12.445  12.020  10.772  1.2064 -0.2141  0.8749
11270SOL     OW40670   5.885   8.619   8.797 -1.2891  1.0552  0.0619
11270SOL    HW140671   5.844   8.592   8.715 -1.5483  0.0070  0.5142
11270SOL    HW240672   5.935   8.697   8.775  0.5938 -0.5272 -1.6468
11271SOL     OW40673   9.584   9.235   8.447  0.6180  0.4528 -0.8906
11271SOL    HW140674   9.652   9.181   8.408  1.4819  0.4671  0.5275
11271SOL    HW240675   9.631   9.302   8.496 -0.3264 -0.4377  1.3872
11272SOL     OW40676   9.251   9.100   3.724 -0.2490  0.3368 -0.2268
11272SOL    HW140677   9.250   9.005   3.711 -1.2278  0.3229 -0.1195
11272SOL    HW240678   9.203   9.134   3.649  2.7811  1.0218 -2.0543
11273SOL     OW40679   5.199   7.947   0.588  1.1230  0.5647 -0.4012
11273SOL    HW140680   5.192   7.900   0.506  0.9523 -0.2222  0.0557
11273SOL    HW240681   5.114   7.936   0.630  1.6031 -0.1259  0.4392
11274SOL     OW40682  11.871  12.363   6.395 -0.3951 -0.8532  0.0159
11274SOL    HW140683  11.894  12.361   6.488 -0.1728 -1.0096 -0.0399
11274SOL    HW240684  11.880  12.455   6.370  1.5571 -1.0838 -0.3276
11275SOL     OW40685   9.835   1.920   7.233  0.2081  0.5722 -0.3342
11275SOL    HW140686   9.790   1.844   7.269 -0.8600  0.7707 -1.2071
11275SOL    HW240687   9.880   1.887   7.155  0.0502  0.7590 -0.5053
11276SOL     OW40688   8.514   4.673   1.765  0.8458  0.1611 -0.2597
11276SOL    HW140689   8.443   4.623   1.806  0.7182  1.2916  0.9470
11276SOL    HW240690   8.469   4.735   1.707  0.9957 -0.9380 -1.5978
11277SOL     OW40691   7.342  10.395   1.780  0.3709 -0.5356  0.4077
11277SOL    HW140692   7.371  10.461   1.718  1.7497 -0.9046  0.6404
11277SOL    HW240693   7.268  10.435   1.826  0.2921  0.2931 -0.4247
11278SOL     OW40694   1.745  10.884   1.289  0.7527 -0.3155 -0.1002
11278SOL    HW140695   1.840  10.897   1.287  0.8926 -1.2812 -1.4343
11278SOL    HW240696   1.710  10.953   1.233  0.6585 -0.0035  0.3343
11279SOL     OW40697   7.956  10.780   7.294 -0.0006 -0.0669  0.4096
11279SOL    HW140698   7.879  10.724   7.282  0.8732 -1.2392  0.0727
11279SOL    HW240699   8.021  10.722   7.333  0.7562  0.8718  0.5589
11280SOL     OW40700   0.809   5.695   2.979 -0.2921  0.2508 -0.0926
11280SOL    HW140701   0.723   5.726   3.005 -0.4043 -0.9947  1.1750
11280SOL    HW240702   0.800   5.600   2.975  0.9806  0.1104 -0.0809
11281SOL     OW40703   4.667   2.997   2.000  0.1355  0.0375  0.4518
11281SOL    HW140704   4.602   2.978   2.068  0.0930  1.9499  0.9874
11281SOL    HW240705   4.709   3.078   2.029  1.2042  0.0446 -1.0292
11282SOL     OW40706   3.702   0.439   9.945 -0.0155 -0.3018  0.2248
11282SOL    HW140707   3.687   0.405   9.857 -0.3016  1.0160 -0.2574
11282SOL    HW240708   3.648   0.517   9.950  0.8594  0.2710  1.1682
11283SOL     OW40709   5.449   5.612   6.094 -0.1754 -0.1717  0.0905
11283SOL    HW140710   5.408   5.608   6.007 -0.7207 -1.9105  0.3801
11283SOL    HW240711   5.387   5.663   6.147  1.1508  2.7782 -0.9608
11284SOL     OW40712   4.438   4.583   6.161  0.5529  0.0554 -0.0619
11284SOL    HW140713   4.430   4.582   6.065  1.1953  0.4604 -0.1303
11284SOL    HW240714   4.529   4.557   6.177  0.1191 -1.2003  0.5014
11285SOL     OW40715   4.763   8.823   0.406  0.4011  0.1590  0.3752
11285SOL    HW140716   4.837   8.884   0.407  0.8243 -0.3491  1.0607
11285SOL    HW240717   4.799   8.742   0.370  0.6846 -0.6725  2.3790
11286SOL     OW40718   2.769  10.461   4.220  0.4048  0.6078  0.1566
11286SOL    HW140719   2.821  10.466   4.301  0.8416  1.8194 -0.1742
11286SOL    HW240720   2.756  10.368   4.206  0.9608  0.3451  1.2250
11287SOL     OW40721   9.558   0.176   2.587 -0.1304 -0.3282 -0.4261
11287SOL    HW140722   9.542   0.083   2.573  1.6486 -0.8603  0.7887
11287SOL    HW240723   9.473   0.211   2.614 -1.1996 -1.2454 -2.3945
11288SOL     OW40724  11.482   3.139   6.962  1.0757  0.6513 -0.5151
11288SOL    HW140725  11.549   3.071   6.974  1.0716  0.2644 -2.4036
11288SOL    HW240726  11.522   3.202   6.903  1.2690  2.6383  1.6287
11289SOL     OW40727   8.631   9.444   6.973  0.0665  0.3979 -0.3561
11289SOL    HW140728   8.659   9.421   6.885  1.3316 -0.7829  0.2987
11289SOL    HW240729   8.536   9.438   6.971  0.1379 -0.9773 -1.3162
11290SOL     OW40730   8.869  12.082   5.495 -0.1773 -0.2871 -0.4885
11290SOL    HW140731   8.852  12.065   5.587  1.0409 -0.1706 -0.2233
11290SOL    HW240732   8.893  11.996   5.459  2.1682  0.0937 -0.0183
11291SOL     OW40733   4.415   0.870   3.534  0.3093 -0.2164 -0.0290
11291SOL    HW140734   4.330   0.911   3.546 -0.6245 -2.1788  0.4791
11291SOL    HW240735   4.456   0.874   3.621  0.4480  0.1268 -0.1107
11292SOL     OW40736   7.171   0.469   6.503  0.2839 -0.3974  0.7169
11292SOL    HW140737   7.256   0.464   6.546  2.2084 -0.4777 -2.7991
11292SOL    HW240738   7.186   0.438   6.415 -3.5775 -0.9479  0.0761
11293SOL     OW40739   0.303  11.276  12.013  0.0709 -0.3214  0.4187
11293SOL    HW140740   0.214  11.279  11.976  0.4722 -1.2863 -0.6707
11293SOL    HW240741   0.290  11.294  12.106 -1.2065  0.1030  0.1839
11294SOL     OW40742  10.239   3.448  10.156 -0.7200 -0.1151 -0.0662
11294SOL    HW140743  10.280   3.510  10.216 -0.9034  0.3390 -0.4054
11294SOL    HW240744  10.305   3.381  10.142 -1.6651 -1.9171  3.0529
11295SOL     OW40745   9.410   0.981   3.415  0.2088 -0.2860  0.0232
11295SOL    HW140746   9.476   1.028   3.365 -0.8865 -0.1241 -1.3341
11295SOL    HW240747   9.341   0.961   3.352 -0.5679 -1.3833  1.1515
11296SOL     OW40748   8.518   8.296   4.654  0.3189 -0.4792 -0.0825
11296SOL    HW140749   8.443   8.236   4.651 -1.2351  1.3960 -1.1844
11296SOL    HW240750   8.490   8.365   4.714  1.4900 -0.1388  0.0765
11297SOL     OW40751   9.191   1.476   0.727 -0.9258  0.0653 -0.4435
11297SOL    HW140752   9.116   1.456   0.782  0.8572 -0.7201  1.8466
11297SOL    HW240753   9.246   1.398   0.733  1.1097  1.4590 -0.2017
11298SOL     OW40754   8.358   5.643   1.927 -0.2310 -0.1665 -0.1310
11298SOL    HW140755   8.363   5.729   1.885  1.2960  1.4709  2.9970
11298SOL    HW240756   8.422   5.590   1.879  1.5482  1.6323  0.0829
11299SOL     OW40757   3.036   4.509   7.765  0.2213 -0.0904  0.3012
11299SOL    HW140758   2.970   4.528   7.697  0.2340  0.1072  0.3449
11299SOL    HW240759   3.109   4.567   7.744  0.5271 -0.5581  0.0447
11300SOL     OW40760   6.779   3.249   4.823 -0.0579  0.1179 -0.2554
11300SOL    HW140761   6.842   3.202   4.878 -0.8610 -1.2494 -0.4786
11300SOL    HW240762   6.781   3.204   4.739 -1.2654  0.1174 -0.2983
11301SOL     OW40763   6.451   0.565  11.189  0.4625 -0.4875 -0.4070
11301SOL    HW140764   6.534   0.520  11.171  2.0282  1.9085  0.2964
11301SOL    HW240765   6.476   0.640  11.242 -2.5883 -1.3141  2.5178
11302SOL     OW40766  12.300  10.398   1.981  0.0382 -0.6250 -0.1104
11302SOL    HW140767  12.338  10.482   1.956 -0.4288 -0.1937  0.5906
11302SOL    HW240768  12.359  10.364   2.049 -0.3097 -0.3909  0.3151
11303SOL     OW40769  11.328  11.892   5.295 -0.1330 -0.0266 -0.5284
11303SOL    HW140770  11.279  11.884   5.376  0.0159 -0.1685 -0.4497
11303SOL    HW240771  11.401  11.951   5.317  0.7630 -1.2476 -0.1406
11304SOL     OW40772   7.469   2.318  10.204  0.1962  0.1074 -0.0467
11304SOL    HW140773   7.381   2.350  10.182 -0.4958  0.8665  3.1818
11304SOL    HW240774   7.528   2.388  10.176 -0.6395  1.2326  0.8984
11305SOL     OW40775   1.778   4.888  12.305 -0.1027  0.0058 -0.0673
11305SOL    HW140776   1.856   4.922  12.350 -0.0229  0.9788 -0.9086
11305SOL    HW240777   1.732   4.966  12.274 -1.6985 -0.5223  0.8360
11306SOL     OW40778   8.156   0.018   6.229 -0.4160  0.3078 -0.0050
11306SOL    HW140779   8.091   0.042   6.294  0.8282  2.4636  0.5487
11306SOL    HW240780   8.239   0.021   6.276  0.2598 -0.9159 -1.0451
11307SOL     OW40781   2.206   6.881   0.891  0.0747 -0.7969 -0.1247
11307SOL    HW140782   2.124   6.862   0.845 -0.9225 -0.2199  1.3450
11307SOL    HW240783   2.239   6.795   0.917  0.2953 -1.0792 -1.2904
11308SOL     OW40784   4.985   0.039   2.658  0.0658 -0.2541 -0.7852
11308SOL    HW140785   4.952  -0.047   2.685 -1.8496  0.0640 -1.9787
11308SOL    HW240786   5.043   0.021   2.584 -2.6022 -0.3975 -2.9873
11309SOL     OW40787  10.207   4.262   1.036  0.2749  0.6165  0.1470
11309SOL    HW140788  10.252   4.201   0.978  0.0346  1.0743 -0.5353
11309SOL    HW240789  10.273   4.289   1.099  0.8606  0.9992 -0.6183
11310SOL     OW40790   8.600   1.779   0.934  0.2674 -0.0091 -0.2049
11310SOL    HW140791   8.589   1.715   1.004 -0.7511 -1.8974 -1.9850
11310SOL    HW240792   8.649   1.851   0.974 -0.2419 -1.0106  2.4026
11311SOL     OW40793  12.129   2.457   6.821 -0.4804 -0.4418  0.0559
11311SOL    HW140794  12.188   2.530   6.801 -0.3264 -1.0794 -1.9769
11311SOL    HW240795  12.187   2.389   6.858 -0.2556 -0.3761 -0.1724
11312SOL     OW40796  10.405   0.195   3.853  0.0562 -0.0000 -0.3382
11312SOL    HW140797  10.327   0.247   3.872 -0.2780  0.2281 -2.1279
11312SOL    HW240798  10.466   0.258   3.813  1.3365 -0.0897  1.3888
11313SOL     OW40799  10.627   2.974  12.229 -0.0359  0.5681  0.2625
11313SOL    HW140800  10.695   3.015  12.175  1.1761 -2.1941 -0.5068
11313SOL    HW240801  10.644   3.006  12.317  1.0074  1.4873 -0.2508
11314SOL     OW40802   4.824  11.225   2.494  0.4206 -0.0547 -0.0467
11314SOL    HW140803   4.776  11.174   2.559 -1.8656  2.8901  0.7673
11314SOL    HW240804   4.801  11.185   2.410 -1.2221 -0.4336  0.5555
11315SOL     OW40805  10.604  11.489  10.669 -0.3313 -0.2389 -0.2240
11315SOL    HW140806  10.543  11.554  10.703 -0.2661 -0.2365 -0.1143
11315SOL    HW240807  10.685  11.537  10.653  0.4780 -0.7237  2.0504
11316SOL     OW40808   6.770   5.746   2.765  0.5290  0.6375 -0.2615
11316SOL    HW140809   6.732   5.754   2.677  0.3837 -0.7733 -0.3543
11316SOL    HW240810   6.798   5.654   2.770 -0.0149  0.5361  1.3810
11317SOL     OW40811   7.401   7.054   9.355 -0.1300  0.1574  0.5441
11317SOL    HW140812   7.379   7.071   9.263 -1.3063  0.6232  0.9056
11317SOL    HW240813   7.386   7.137   9.399 -0.3964 -0.2927  1.3167
11318SOL     OW40814   1.687   4.748   9.488  0.4688 -0.2597 -0.3577
11318SOL    HW140815   1.625   4.792   9.431  0.5310  0.5186  0.1518
11318SOL    HW240816   1.731   4.684   9.432  2.1949  2.0586 -1.8463
11319SOL     OW40817   8.533   2.511   9.920 -0.1566  0.0927 -0.0379
11319SOL    HW140818   8.456   2.465   9.888 -0.2906  1.2725 -1.4928
11319SOL    HW240819   8.582   2.444   9.969 -2.5107 -0.4501  1.7375
11320SOL     OW40820   4.941   4.705   3.410 -0.0302  0.2356 -0.3363
11320SOL    HW140821   4.927   4.628   3.466 -1.7478 -0.0242 -1.0639
11320SOL    HW240822   4.964   4.669   3.325  0.4230  0.5659 -0.3550
11321SOL     OW40823   7.195  10.737   7.767  0.0446  1.1428  0.3258
11321SOL    HW140824   7.199  10.685   7.847 -2.9968 -1.0597 -0.7225
11321SOL    HW240825   7.168  10.824   7.796  2.0372  1.3165  1.8630
11322SOL     OW40826   0.563   5.245   0.404  0.3247  0.1827 -0.1714
11322SOL    HW140827   0.551   5.327   0.452  0.8583  1.0104 -1.4050
11322SOL    HW240828   0.524   5.179   0.461  0.9089  1.1099  1.4070
11323SOL     OW40829   7.759   7.913   3.992 -0.6557 -0.2232  0.1398
11323SOL    HW140830   7.700   7.979   3.955  1.6269  2.2614  0.6551
11323SOL    HW240831   7.710   7.831   3.985 -3.6638  1.4846 -0.4939
11324SOL     OW40832   6.874   3.890   4.762 -0.7813 -0.6434  0.0719
11324SOL    HW140833   6.842   3.815   4.711  1.4987 -1.1835 -0.6944
11324SOL    HW240834   6.831   3.966   4.722 -1.0473 -1.3131 -0.9639
11325SOL     OW40835   8.899   6.452  11.631  0.0128 -0.0145  0.1990
11325SOL    HW140836   8.993   6.468  11.627 -0.4320  2.7976 -1.0348
11325SOL    HW240837   8.862   6.533  11.665 -2.0660 -0.7185 -0.2407
11326SOL     OW40838   7.707   1.186   1.602 -0.3164  0.2159  0.3088
11326SOL    HW140839   7.796   1.165   1.629  0.0506  0.6957 -0.4930
11326SOL    HW240840   7.662   1.207   1.684  0.3920  0.2971  0.6898
11327SOL     OW40841  10.849   4.586   8.164  0.1611 -0.3690 -0.9982
11327SOL    HW140842  10.937   4.618   8.183 -0.6530  1.0524  0.6255
11327SOL    HW240843  10.863   4.508   8.111  2.4275 -0.6495 -0.0976
11328SOL     OW40844   9.434   0.845   8.838  0.2701  0.5110 -0.0216
11328SOL    HW140845   9.521   0.852   8.797  0.0841  0.1273 -0.4910
11328SOL    HW240846   9.382   0.912   8.795 -0.2708 -0.6812 -1.3349
11329SOL     OW40847   0.932  10.323   8.638 -0.1546 -0.5675 -0.1826
11329SOL    HW140848   0.868  10.254   8.656 -1.2115  0.5784  0.5982
11329SOL    HW240849   0.922  10.385   8.710  1.5588 -0.1279 -0.2651
11330SOL     OW40850   7.855   8.655  12.322 -0.3523  0.5997 -0.2457
11330SOL    HW140851   7.850   8.571  12.368  1.0369  0.8619  0.4579
11330SOL    HW240852   7.772   8.663  12.277  0.1593 -2.0527 -1.8825
11331SOL     OW40853   4.223   8.343   2.609 -0.0718  0.0848 -0.0213
11331SOL    HW140854   4.197   8.327   2.700 -2.4428 -0.1450 -0.6567
11331SOL    HW240855   4.196   8.263   2.562  0.5749  0.4376 -1.0290
11332SOL     OW40856   5.082   6.599   7.265  0.1381  0.5776  0.7158
11332SOL    HW140857   5.173   6.608   7.237  0.3826  0.0018  1.3280
11332SOL    HW240858   5.071   6.506   7.282 -1.1003  0.3173 -1.1534
11333SOL     OW40859   9.349   7.711   8.938  0.1540  0.0291  0.8806
11333SOL    HW140860   9.256   7.713   8.961 -0.1367 -1.8767  0.0733
11333SOL    HW240861   9.385   7.639   8.991  0.8111 -0.3217 -0.0141
11334SOL     OW40862   7.098  12.084   4.743  0.1380  0.0670  0.3850
11334SOL    HW140863   7.022  12.121   4.697  0.5743  2.5104  1.5012
11334SOL    HW240864   7.167  12.149   4.732  0.8562 -0.1961  2.7558
11335SOL     OW40865   3.157   7.264   5.200 -0.1464  0.0398  0.0757
11335SOL    HW140866   3.212   7.313   5.139  0.7553  0.7359  1.3955
11335SOL    HW240867   3.067   7.288   5.175  0.2458  1.8350  0.2158
11336SOL     OW40868   3.835   7.079   7.572 -0.3934  0.1851 -0.1137
11336SOL    HW140869   3.787   7.020   7.630 -1.7323  0.1721 -1.1855
11336SOL    HW240870   3.895   7.126   7.629  0.8487 -2.2887  0.7765
11337SOL     OW40871   0.661   5.000   9.501  0.2288 -0.0579 -0.1858
11337SOL    HW140872   0.587   5.028   9.446  1.3034  1.3459 -0.9902
11337SOL    HW240873   0.662   5.063   9.573  0.3492 -0.3723  0.0902
11338SOL     OW40874   7.972   5.665   8.709 -0.1743  0.5395  0.0141
11338SOL    HW140875   7.971   5.575   8.675  0.1782  0.3011  0.6095
11338SOL    HW240876   8.049   5.705   8.669 -0.6126  0.7443 -0.6483
11339SOL     OW40877   7.345   4.538   9.609  0.0095 -0.5951  0.2023
11339SOL    HW140878   7.415   4.488   9.652 -0.2551 -3.1604 -2.0731
11339SOL    HW240879   7.271   4.532   9.669  0.7497 -0.6967  1.1354
11340SOL     OW40880   7.687  10.789   1.947 -0.3163 -0.4878 -0.8303
11340SOL    HW140881   7.611  10.748   1.989 -0.1730 -0.6675 -0.7435
11340SOL    HW240882   7.692  10.876   1.986 -1.1150 -0.0743 -1.6148
11341SOL     OW40883   3.849  10.643   0.296  0.5560 -0.3417  0.1754
11341SOL    HW140884   3.885  10.637   0.385  1.8852 -2.0225 -0.4028
11341SOL    HW240885   3.927  10.653   0.240 -0.2892  1.1850 -0.7930
11342SOL     OW40886   1.917   3.703   9.331  0.0727 -0.4142 -0.2034
11342SOL    HW140887   1.870   3.786   9.336  0.1025 -0.3002 -1.5428
11342SOL    HW240888   1.854   3.641   9.295  0.2165 -0.8530  0.2785
11343SOL     OW40889  12.344   3.151  10.615 -1.0221  0.6499 -0.7335
11343SOL    HW140890  12.366   3.073  10.565 -2.1327  0.7635 -1.4453
11343SOL    HW240891  12.295   3.119  10.691 -0.2145  0.5577 -0.2385
11344SOL     OW40892   0.551   6.187   4.364 -0.0540  0.0801  0.4664
11344SOL    HW140893   0.580   6.119   4.426  1.2612  0.6689  0.5404
11344SOL    HW240894   0.633   6.228   4.335 -0.5601 -0.6015 -2.1912
11345SOL     OW40895   5.839  12.182   3.741 -0.2225  0.0686 -0.2528
11345SOL    HW140896   5.787  12.174   3.661 -0.0316  1.0789 -0.4918
11345SOL    HW240897   5.879  12.095   3.752  0.1141  0.0386 -1.5052
11346SOL     OW40898  11.931  11.509   7.186 -0.0546  0.3215 -0.2484
11346SOL    HW140899  11.841  11.531   7.210 -0.8769 -2.3153 -0.6493
11346SOL    HW240900  11.932  11.512   7.090  0.4367  0.8025 -0.2349
11347SOL     OW40901   3.095   2.592  10.931  0.2195 -0.2285  0.6383
11347SOL    HW140902   3.016   2.540  10.915  0.3343 -0.8311  1.9003
11347SOL    HW240903   3.120   2.570  11.021  1.8241 -0.0534  0.2612
11348SOL     OW40904   2.024   3.702   2.302 -0.0636 -0.5594  0.2594
11348SOL    HW140905   2.014   3.783   2.352  1.2078 -1.0763  1.3844
11348SOL    HW240906   1.949   3.649   2.327 -0.0955 -0.3249  0.6759
11349SOL     OW40907   2.751   6.757   0.368  0.2076 -0.0457  0.3915
11349SOL    HW140908   2.726   6.844   0.399  0.2873  0.7448 -1.6172
11349SOL    HW240909   2.781   6.711   0.447  0.1644  1.7246  1.4939
11350SOL     OW40910   9.718   8.530  11.803 -0.1232  0.0452  0.1622
11350SOL    HW140911   9.715   8.619  11.766 -0.8764  1.2561  2.8789
11350SOL    HW240912   9.626   8.507  11.816  0.0966 -0.7730  0.2880
11351SOL     OW40913  11.221  10.166   8.989 -0.2589 -0.5142 -0.2017
11351SOL    HW140914  11.202  10.086   8.940  1.4384 -2.1603  1.6229
11351SOL    HW240915  11.142  10.180   9.042 -0.7617 -0.6762 -0.8833
11352SOL     OW40916   8.420   7.062   3.948 -0.1583 -0.0671 -0.0994
11352SOL    HW140917   8.491   7.001   3.929 -1.1106 -0.9332 -0.9970
11352SOL    HW240918   8.368   7.018   4.015  1.3427  1.5471  2.2906
11353SOL     OW40919  11.094   5.721   7.189 -0.3215 -0.5910  0.4478
11353SOL    HW140920  11.009   5.702   7.230 -0.7759 -1.9246 -1.0481
11353SOL    HW240921  11.158   5.697   7.256 -1.0640 -2.1556  0.6494
11354SOL     OW40922  10.468   2.596   0.161  0.6750  0.6478 -0.2072
11354SOL    HW140923  10.407   2.584   0.234  0.4470 -0.4516 -0.5597
11354SOL    HW240924  10.555   2.578   0.199  0.5805  0.3153 -0.1454
11355SOL     OW40925   5.980   4.928   0.713 -0.0145 -0.0525  0.2348
11355SOL    HW140926   5.993   4.978   0.633  1.5981 -2.2195 -0.9826
11355SOL    HW240927   6.009   4.986   0.784  1.4006  0.8901 -1.0603
11356SOL     OW40928   9.793   3.030  11.364 -0.0390 -0.0708 -0.0107
11356SOL    HW140929   9.715   3.056  11.316 -0.0631  0.1714  0.1551
11356SOL    HW240930   9.830   3.112  11.397  1.9550  0.1859 -2.5622
11357SOL     OW40931   1.804  11.023   0.564 -0.7046 -0.2486 -0.8941
11357SOL    HW140932   1.848  11.107   0.550  0.5675 -0.9527 -1.3501
11357SOL    HW240933   1.820  11.002   0.656 -0.6710 -0.1718 -0.8826
11358SOL     OW40934   8.308   7.338   1.759 -0.1467  0.5031  0.4075
11358SOL    HW140935   8.296   7.405   1.691 -0.6291  1.3083  1.2701
11358SOL    HW240936   8.397   7.353   1.792  0.0897  0.1082 -0.0291
11359SOL     OW40937   2.963  10.457  11.436 -0.1634  0.4370 -0.1691
11359SOL    HW140938   3.010  10.385  11.476 -0.1893  0.1438 -0.6596
11359SOL    HW240939   3.031  10.521  11.413 -0.1134  0.4574  0.0387
11360SOL     OW40940  10.339  11.077   8.401 -0.3832  0.0133 -0.1151
11360SOL    HW140941  10.252  11.066   8.439  0.0270  2.1347  1.5831
11360SOL    HW240942  10.322  11.098   8.309 -1.6812  0.5757  0.2316
11361SOL     OW40943   6.022   3.822  12.248  0.1191 -0.1095  0.4468
11361SOL    HW140944   6.034   3.915  12.268  1.9242 -0.0687 -0.5841
11361SOL    HW240945   6.047   3.776  12.328 -1.3519  0.2751  1.1616
11362SOL     OW40946   4.115   7.581  10.659 -0.0574  0.3098  0.0244
11362SOL    HW140947   4.209   7.561  10.667  0.0056  0.3347 -0.6244
11362SOL    HW240948   4.112   7.675  10.645 -0.2067  0.3697  0.4459
11363SOL     OW40949   2.170   1.155   2.122 -0.8127 -0.0890 -0.1725
11363SOL    HW140950   2.132   1.129   2.206  0.5874  0.0695  0.5357
11363SOL    HW240951   2.186   1.249   2.130 -0.2895 -0.1476 -0.4551
11364SOL     OW40952  10.826   2.600   2.756  0.2770  0.2101 -0.4964
11364SOL    HW140953  10.795   2.559   2.836  0.2550  0.1085 -0.5561
11364SOL    HW240954  10.908   2.643   2.780 -0.3057  1.1589 -0.1470
11365SOL     OW40955   3.342  10.760   7.449  0.4355 -0.8553 -0.5075
11365SOL    HW140956   3.345  10.734   7.541 -0.6579 -0.9113 -0.4749
11365SOL    HW240957   3.434  10.767   7.423  0.9105  2.1531  1.4160
11366SOL     OW40958   5.341  11.633   1.634 -0.5636  0.4365  0.3985
11366SOL    HW140959   5.359  11.722   1.666 -0.4960 -0.2693  2.5005
11366SOL    HW240960   5.395  11.577   1.689  0.2801 -0.8794 -1.6580
11367SOL     OW40961  11.643   8.423   7.397 -0.0345  0.1109  0.3897
11367SOL    HW140962  11.638   8.518   7.389 -1.4249 -0.0767 -2.0412
11367SOL    HW240963  11.709   8.398   7.332 -1.4863 -0.6918 -0.8480
11368SOL     OW40964   3.977   4.877   6.218  0.0659 -0.2140  0.3597
11368SOL    HW140965   3.904   4.835   6.263 -0.6049 -0.8600 -1.2502
11368SOL    HW240966   4.055   4.848   6.266 -0.4767 -2.4012  0.0162
11369SOL     OW40967  12.131   2.455   7.708 -0.3248  0.8265 -0.0817
11369SOL    HW140968  12.047   2.482   7.747  0.4928  1.5934  1.2168
11369SOL    HW240969  12.191   2.527   7.728  0.4844  0.6235 -1.6444
11370SOL     OW40970  10.487   5.164   5.410  0.3521 -0.6829 -0.0021
11370SOL    HW140971  10.521   5.113   5.482 -0.8385 -0.2129  0.9387
11370SOL    HW240972  10.507   5.255   5.433 -0.3311 -0.5041 -0.0734
11371SOL     OW40973   6.919   5.996   3.845  0.0143 -0.0605 -0.0468
11371SOL    HW140974   6.892   5.944   3.768  2.3435  1.9297 -2.4087
11371SOL    HW240975   6.948   5.931   3.908  0.7167 -1.7631 -1.9964
11372SOL     OW40976   0.438   4.674  12.269 -0.3726 -0.2783 -0.0159
11372SOL    HW140977   0.432   4.618  12.347 -2.2640 -1.7994 -1.1368
11372SOL    HW240978   0.503   4.632  12.214 -0.2924 -0.1942  0.0149
11373SOL     OW40979   5.725   6.229   4.657 -0.0044 -0.4517  0.3706
11373SOL    HW140980   5.666   6.303   4.643  0.1983 -0.2207  0.7269
11373SOL    HW240981   5.669   6.152   4.649 -0.3565 -0.2330  0.7039
11374SOL     OW40982   0.762   0.610   0.328  0.0620  0.3616 -0.0472
11374SOL    HW140983   0.709   0.631   0.252  1.4965  0.8446 -0.9542
11374SOL    HW240984   0.852   0.617   0.297  0.6827 -1.8703  1.0516
11375SOL     OW40985   2.868  11.876   0.119  0.1113 -0.0687 -0.2103
11375SOL    HW140986   2.931  11.912   0.056  0.0234 -0.7467 -0.6984
11375SOL    HW240987   2.911  11.797   0.153 -0.2448 -0.2271 -0.1300
11376SOL     OW40988  10.960   0.447  11.138 -0.4594 -0.5232 -0.2787
11376SOL    HW140989  10.870   0.476  11.147  0.0404  1.4494 -1.1441
11376SOL    HW240990  10.956   0.352  11.149 -2.0942 -0.1760  3.3872
11377SOL     OW40991  11.864   3.793   2.968  0.3280  0.4110 -0.3201
11377SOL    HW140992  11.938   3.815   2.912  0.6734  2.3573  0.8106
11377SOL    HW240993  11.790   3.838   2.928  0.3372  0.8163  0.1132
11378SOL     OW40994   1.260   3.723   3.902  0.5459 -0.2580  0.7401
11378SOL    HW140995   1.329   3.718   3.968 -1.0363 -1.5155  2.4129
11378SOL    HW240996   1.292   3.671   3.828  2.0626  0.6032  0.7580
11379SOL     OW40997   2.374   6.709  12.448  0.0885  0.2738 -0.4117
11379SOL    HW140998   2.389   6.652  12.372  1.1287 -1.9256  1.3471
11379SOL    HW240999   2.375   6.798  12.411 -2.2939 -0.7627 -3.3828
11380SOL     OW41000   1.300   6.049   5.012  0.4280 -0.5001  0.6148
11380SOL    HW141001   1.253   6.104   4.949  1.0771 -0.0994  0.4659
11380SOL    HW241002   1.319   6.108   5.085  1.1910 -0.4953  0.4234
11381SOL     OW41003   4.732   7.292   6.091 -0.5316  0.5160  0.2170
11381SOL    HW141004   4.696   7.380   6.109  0.8418  1.1045  0.1600
11381SOL    HW241005   4.746   7.292   5.997 -0.1731  0.3688  0.2731
11382SOL     OW41006   8.491   4.020   0.455  0.6101  0.0867  0.2400
11382SOL    HW141007   8.461   3.930   0.442 -0.4869  0.6118 -1.1221
11382SOL    HW241008   8.410   4.069   0.471  1.3347  0.5838  2.8297
11383SOL     OW41009   1.577   7.741   9.707 -0.0711 -0.1377  0.0877
11383SOL    HW141010   1.482   7.753   9.710  0.0866  2.0037 -1.2513
11383SOL    HW241011   1.595   7.715   9.617  0.7982  2.4729 -0.5914
11384SOL     OW41012   6.895   6.478  11.045 -0.0700 -1.1228 -0.6543
11384SOL    HW141013   6.962   6.547  11.043 -0.4940 -0.6981 -0.4127
11384SOL    HW241014   6.813   6.525  11.060 -0.4708 -1.6036 -1.2948
11385SOL     OW41015   7.141  10.349  11.415 -0.2766  0.5609 -0.0077
11385SOL    HW141016   7.215  10.402  11.383  0.6998  1.0324  2.7858
11385SOL    HW241017   7.169  10.258  11.402 -0.3446  0.7107 -1.3314
11386SOL     OW41018   3.813   5.367   7.896 -0.0526  0.0992 -0.0836
11386SOL    HW141019   3.852   5.291   7.855 -1.1336 -0.2412 -0.5221
11386SOL    HW241020   3.871   5.389   7.969 -0.5898 -2.1744  1.1056
11387SOL     OW41021   4.808  10.964   8.452  0.3363  0.4785  0.1960
11387SOL    HW141022   4.817  10.951   8.547 -0.8279 -0.7174  0.1670
11387SOL    HW241023   4.725  10.923   8.430  0.7016  0.5428 -1.3906
11388SOL     OW41024   7.502  10.628   2.095  0.0495 -0.6437 -0.3557
11388SOL    HW141025   7.411  10.653   2.107 -0.2840 -0.3903 -2.8572
11388SOL    HW241026   7.544  10.650   2.179 -2.1195 -0.6635  0.8110
11389SOL     OW41027   8.828   3.979   6.097 -0.2153  0.3558 -0.1519
11389SOL    HW141028   8.921   3.997   6.109 -0.2300 -0.3088  1.1017
11389SOL    HW241029   8.786   4.065   6.107  0.1141  0.3936  1.0332
11390SOL     OW41030  11.652   2.822   7.253 -0.3084  0.2214  0.9082
11390SOL    HW141031  11.588   2.840   7.322 -0.4056  0.7910  0.6768
11390SOL    HW241032  11.737   2.842   7.292 -0.1649 -1.4226  1.5206
11391SOL     OW41033  10.458   1.710   7.513  0.2805 -0.1044 -1.1347
11391SOL    HW141034  10.415   1.663   7.442  1.3853 -2.0542 -0.5897
11391SOL    HW241035  10.400   1.698   7.588 -0.6539  1.5626 -1.5319
11392SOL     OW41036   0.535   3.338   5.824  0.2550  0.7689  0.2112
11392SOL    HW141037   0.474   3.269   5.798  1.7958 -0.0626 -1.4330
11392SOL    HW241038   0.621   3.297   5.819  1.0683  2.2571  1.2102
11393SOL     OW41039   6.577   8.118   0.567 -0.3354  0.1746 -0.0204
11393SOL    HW141040   6.560   8.111   0.473 -2.0081  1.2480  0.1691
11393SOL    HW241041   6.619   8.203   0.578 -0.2840  0.1169  0.2306
11394SOL     OW41042   3.388  10.187   3.378 -0.3474  0.0028  0.0709
11394SOL    HW141043   3.453  10.121   3.357 -0.7561 -0.5402  0.5028
11394SOL    HW241044   3.317  10.140   3.422 -0.5850  0.7390  0.5124
11395SOL     OW41045  10.079   7.005   7.916  0.4470 -0.0659 -0.2552
11395SOL    HW141046  10.092   7.002   7.821 -1.0669 -0.7336 -0.4726
11395SOL    HW241047  10.011   6.939   7.933 -0.9973  1.6363  0.9798
11396SOL     OW41048   7.695   7.174   8.224 -0.0410 -0.3774 -0.1007
11396SOL    HW141049   7.729   7.195   8.311  0.0597 -1.0220  0.0176
11396SOL    HW241050   7.615   7.124   8.240 -0.0064 -0.5277 -0.3773
11397SOL     OW41051   6.191   1.984   0.669 -0.2658  0.3126 -0.2217
11397SOL    HW141052   6.268   1.961   0.617  0.9746 -2.1082  2.4022
11397SOL    HW241053   6.125   1.919   0.645  0.4381 -1.0546  1.3303
11398SOL     OW41054   0.492   8.071   3.406  0.5985  0.7491  0.1727
11398SOL    HW141055   0.495   7.990   3.355  0.6640  0.8028  0.0929
11398SOL    HW241056   0.468   8.139   3.343 -1.6275  0.4586  0.6314
11399SOL     OW41057   6.513   2.410   0.125  0.7314 -0.2555  0.1744
11399SOL    HW141058   6.594   2.398   0.077  1.7008  1.3816  1.2978
11399SOL    HW241059   6.515   2.341   0.192  0.7336 -0.7807 -0.3567
11400SOL     OW41060   9.173   7.443   4.090 -0.4259 -0.0993  0.4037
11400SOL    HW141061   9.217   7.410   4.168 -0.6983  1.4270  1.2521
11400SOL    HW241062   9.235   7.429   4.019  0.7559  0.4943  1.2878
11401SOL     OW41063   5.103   1.493   9.670 -0.0478 -0.1694  0.8743
11401SOL    HW141064   5.051   1.499   9.750  0.4040 -1.7423  1.3015
11401SOL    HW241065   5.050   1.441   9.610  0.4887 -0.7311  0.8778
11402SOL     OW41066   9.379   1.198   9.491 -0.0755 -0.3463  1.1436
11402SOL    HW141067   9.386   1.279   9.542  1.4130  1.8213 -2.1382
11402SOL    HW241068   9.288   1.197   9.461 -0.0329  0.3223  0.9631
11403SOL     OW41069   0.901   3.245  10.933  0.3101 -0.3798  0.5029
11403SOL    HW141070   0.962   3.208  10.869  0.4736  0.1328  0.3631
11403SOL    HW241071   0.829   3.182  10.936 -1.7128  1.5087 -3.1863
11404SOL     OW41072   5.538   2.588  10.428 -0.4046 -0.2372  0.5428
11404SOL    HW141073   5.534   2.679  10.457 -1.5837  0.1741 -0.7989
11404SOL    HW241074   5.458   2.575  10.378 -0.1182 -1.9442  0.4533
11405SOL     OW41075   8.005   5.448   8.229 -0.1926  0.2157 -0.0486
11405SOL    HW141076   7.974   5.391   8.300 -0.3979  0.4908  0.0841
11405SOL    HW241077   7.991   5.396   8.149  1.4668 -0.7207  0.2210
11406SOL     OW41078   2.141   9.814   8.112 -0.2106 -0.1113 -0.2600
11406SOL    HW141079   2.218   9.765   8.142  0.3474  0.3854 -0.8294
11406SOL    HW241080   2.161   9.836   8.021 -0.0236  1.9474  0.2227
11407SOL     OW41081   4.552  10.707   6.706 -0.0476  0.0324  0.1926
11407SOL    HW141082   4.594  10.771   6.648  0.7941  1.5634  2.3652
11407SOL    HW241083   4.459  10.730   6.703  0.0305  0.3004 -0.2869
11408SOL     OW41084   0.978  10.594   8.253 -0.4696  0.0705  0.0645
11408SOL    HW141085   0.977  10.672   8.309  1.1006  0.6406 -0.6417
11408SOL    HW241086   0.928  10.529   8.302 -0.4364  1.0265  1.4222
11409SOL     OW41087   4.175   2.201   6.577  0.3686 -0.4267  0.0221
11409SOL    HW141088   4.247   2.241   6.528  1.0571  1.0296  2.0790
11409SOL    HW241089   4.219   2.140   6.637 -0.3625 -1.3993 -0.4107
11410SOL     OW41090   4.110   4.077  11.676  1.0831 -0.2070 -0.0838
11410SOL    HW141091   4.172   4.149  11.684  2.2453 -1.0841 -0.9076
11410SOL    HW241092   4.163   3.998  11.686  0.2857 -0.9974 -1.7084
11411SOL     OW41093   3.314  10.267  11.498  0.3414 -0.2293  0.5599
11411SOL    HW141094   3.219  10.255  11.494  0.4966 -1.3481 -0.6964
11411SOL    HW241095   3.327  10.339  11.559 -1.4411  1.2317 -0.6603
11412SOL     OW41096   2.524   0.458   1.657 -0.0829 -0.4831 -0.2005
11412SOL    HW141097   2.596   0.520   1.647  0.7798 -1.1220  1.6141
11412SOL    HW241098   2.453   0.510   1.696 -0.7953  0.2349 -2.3341
11413SOL     OW41099  10.637   7.835   1.867 -0.1283  0.3318 -0.2787
11413SOL    HW141100  10.676   7.792   1.791 -0.8538 -1.3842  0.2839
11413SOL    HW241101  10.697   7.816   1.939 -0.0168  1.0061 -0.1861
11414SOL     OW41102   4.080   5.030   5.985 -0.1628  0.2870 -0.1309
11414SOL    HW141103   4.146   5.082   6.030 -1.0207  0.6770  0.6887
11414SOL    HW241104   4.042   4.974   6.053 -0.1756 -0.4712 -0.7381
11415SOL     OW41105   0.486   0.309   0.648 -0.0420  0.6879  0.0055
11415SOL    HW141106   0.526   0.394   0.669  1.9988 -0.2562  0.1747
11415SOL    HW241107   0.442   0.283   0.729  0.0172  1.2235  0.2144
11416SOL     OW41108   0.887   8.113   9.119 -0.4414  0.6396 -0.2243
11416SOL    HW141109   0.879   8.160   9.036 -1.8948  0.6528 -0.1096
11416SOL    HW241110   0.959   8.156   9.164 -1.4584  2.5406 -0.2944
11417SOL     OW41111  11.198   0.410   1.802  0.5686 -0.0957 -0.6228
11417SOL    HW141112  11.204   0.315   1.811  1.3516  0.0235  0.3931
11417SOL    HW241113  11.230   0.428   1.714  0.3219 -0.7848 -0.8547
11418SOL     OW41114   1.843  10.560  10.330  0.0624  0.1910  0.1673
11418SOL    HW141115   1.881  10.504  10.398 -0.7483  0.0022  0.4778
11418SOL    HW241116   1.750  10.535  10.327  0.0254  0.3920 -0.8172
11419SOL     OW41117   1.746   2.023   6.875  0.1243  0.5264 -0.1325
11419SOL    HW141118   1.810   2.046   6.807  0.0551  0.3470 -0.2614
11419SOL    HW241119   1.742   1.927   6.872  2.0048  0.3022  1.8505
11420SOL     OW41120   8.231  12.437  11.754  0.5266 -0.4539  0.1900
11420SOL    HW141121   8.284  12.477  11.685 -0.5517  0.0349 -0.3812
11420SOL    HW241122   8.166  12.504  11.776 -0.5840 -1.4382  0.0408
11421SOL     OW41123   9.875   2.642   3.307  0.3147 -0.2004  0.3927
11421SOL    HW141124   9.804   2.616   3.247  0.6820  0.8155 -0.5162
11421SOL    HW241125   9.930   2.564   3.313  0.7046 -0.0990 -1.2715
11422SOL     OW41126  10.959   7.378   1.744 -0.6283  0.0728  0.6092
11422SOL    HW141127  10.869   7.385   1.710 -0.4693  1.4207  0.4372
11422SOL    HW241128  10.959   7.295   1.793 -1.9440  0.0131  0.5506
11423SOL     OW41129   7.649   5.986   4.284 -0.2378  0.3596 -0.1261
11423SOL    HW141130   7.733   5.945   4.265 -0.4545  0.7901 -2.2685
11423SOL    HW241131   7.593   5.914   4.314  0.8686  0.0916  1.4432
11424SOL     OW41132   2.949   7.187   0.378  0.3684  0.3844  0.0647
11424SOL    HW141133   2.901   7.106   0.360 -0.6164  0.5514  1.7185
11424SOL    HW241134   2.976   7.218   0.291  1.6490 -2.1941 -0.5655
11425SOL     OW41135  12.015  11.732   3.053 -0.2235  0.5808 -1.1133
11425SOL    HW141136  12.060  11.745   3.137 -0.3931 -1.7946 -0.5782
11425SOL    HW241137  12.058  11.793   2.993 -0.0515  2.2895  0.6606
11426SOL     OW41138  11.870   2.096   1.795  0.6050  0.3328 -0.6198
11426SOL    HW141139  11.828   2.092   1.881  0.4372 -2.9242 -0.7364
11426SOL    HW241140  11.950   2.045   1.806  1.4754  1.3653 -1.9775
11427SOL     OW41141   4.765   3.364  10.340  0.2890 -0.0594  0.6854
11427SOL    HW141142   4.692   3.365  10.277 -1.6888  3.8127  2.6592
11427SOL    HW241143   4.743   3.294  10.401  0.4607 -1.6286 -0.9842
11428SOL     OW41144   6.025   4.996  12.211 -0.2117 -0.0987  0.2170
11428SOL    HW141145   6.058   5.071  12.261 -0.4469  0.2273 -0.1096
11428SOL    HW241146   5.939   5.024  12.179  0.2579  0.0136 -1.0217
11429SOL     OW41147   1.838   6.883  12.297  0.0587 -0.1968  0.5352
11429SOL    HW141148   1.824   6.822  12.225 -1.3610  0.8668 -0.1226
11429SOL    HW241149   1.774   6.857  12.363 -0.1523  0.2165  0.4951
11430SOL     OW41150  10.810  10.363   0.970  0.0626 -0.1393 -0.1112
11430SOL    HW141151  10.861  10.338   1.047 -1.5080 -0.8046  0.7627
11430SOL    HW241152  10.872  10.411   0.915  1.5249 -0.6262  1.0360
11431SOL     OW41153   3.134   2.271   2.302 -0.1058  0.3210  0.3489
11431SOL    HW141154   3.116   2.223   2.383 -0.0769 -0.0425  0.1415
11431SOL    HW241155   3.061   2.248   2.244  0.4060 -0.2234 -0.0808
11432SOL     OW41156   8.729   1.850   4.547 -0.5620  0.5681 -0.5379
11432SOL    HW141157   8.753   1.917   4.612 -0.4198 -2.5503  2.9933
11432SOL    HW241158   8.806   1.794   4.542 -1.5078 -0.6915 -1.5125
11433SOL     OW41159   0.524   4.058   4.442 -0.2905 -0.3172  0.2386
11433SOL    HW141160   0.435   4.025   4.449 -0.6817  0.5070 -0.6996
11433SOL    HW241161   0.517   4.151   4.465  0.3569 -0.2915  0.3490
11434SOL     OW41162   3.278   4.488   3.058  0.5088 -0.4304  0.2608
11434SOL    HW141163   3.229   4.510   2.978  0.6258  0.3639  0.4037
11434SOL    HW241164   3.232   4.535   3.128  1.1900 -0.0632  0.4656
11435SOL     OW41165  10.201   5.108   8.302 -0.1635 -0.2839 -0.0535
11435SOL    HW141166  10.136   5.171   8.270 -1.3374  0.3485  3.1989
11435SOL    HW241167  10.167   5.023   8.275  0.6873  0.2395 -3.2301
11436SOL     OW41168   5.973   3.703   1.457 -0.0056 -0.4604  0.5199
11436SOL    HW141169   5.910   3.740   1.519  0.9536 -0.0838  1.3044
11436SOL    HW241170   6.008   3.779   1.411  1.2754 -0.4387  1.4656
11437SOL     OW41171   2.385   5.101   4.633 -0.5996  0.2041 -0.0301
11437SOL    HW141172   2.465   5.081   4.681 -0.7405 -1.9556 -0.5816
11437SOL    HW241173   2.314   5.069   4.689 -0.9112 -0.0050 -0.5302
11438SOL     OW41174   9.284   1.672   1.925  0.1249 -0.1191 -0.5825
11438SOL    HW141175   9.278   1.712   2.012 -2.1833 -0.4419 -0.5245
11438SOL    HW241176   9.357   1.611   1.931  0.2058  0.1062  1.0326
11439SOL     OW41177  12.387   2.548   0.312 -0.3305  0.1273  1.1614
11439SOL    HW141178  12.301   2.583   0.334 -1.6350 -2.5735  0.8623
11439SOL    HW241179  12.375   2.503   0.229  1.8692  1.1819  0.1980
11440SOL     OW41180   0.763  11.742  12.258 -0.0068 -0.1393 -0.3567
11440SOL    HW141181   0.672  11.739  12.286 -0.0030 -1.0282 -0.4155
11440SOL    HW241182   0.805  11.668  12.303  1.1206  1.3252  1.1440
11441SOL     OW41183  12.427   4.825  11.533  0.0848 -0.2193 -0.2109
11441SOL    HW141184  12.488   4.889  11.569 -0.2173  0.0513 -0.1807
11441SOL    HW241185  12.437   4.748  11.589  0.4759 -0.2143 -0.2707
11442SOL     OW41186   9.735   5.833  10.094  0.3334  0.1380  0.5094
11442SOL    HW141187   9.779   5.782  10.161  1.8879  0.9035  0.1156
11442SOL    HW241188   9.736   5.923  10.127  0.9025  0.4854 -0.4144
11443SOL     OW41189   3.954   1.878   1.343  0.4721 -0.1223 -0.3468
11443SOL    HW141190   4.031   1.935   1.348  1.3633 -1.3607  0.8586
11443SOL    HW241191   3.990   1.789   1.345 -0.9992 -0.7373  0.6316
11444SOL     OW41192   4.143  10.212   6.556  0.0673 -0.0960  0.0656
11444SOL    HW141193   4.134  10.124   6.594  0.2738 -0.2066 -0.1350
11444SOL    HW241194   4.237  10.220   6.538  0.0092  0.0614 -0.1621
11445SOL     OW41195  10.724  12.321   7.510  0.1285  0.2724  0.6037
11445SOL    HW141196  10.814  12.343   7.533 -0.7478  1.1892  3.5373
11445SOL    HW241197  10.688  12.404   7.479 -0.4370  0.6259  2.1356
11446SOL     OW41198  12.417   4.206  11.191 -0.2017  0.2086  0.3732
11446SOL    HW141199  12.444   4.115  11.183  1.9841  0.9314 -1.3527
11446SOL    HW241200  12.497   4.253  11.215 -0.6951  1.9687 -1.1889
11447SOL     OW41201   1.835  11.904  11.974  0.2288  0.8307  0.3758
11447SOL    HW141202   1.878  11.978  12.016 -2.9535  2.0960  1.6736
11447SOL    HW241203   1.853  11.830  12.032 -1.4030  1.8983  2.3924
11448SOL     OW41204   3.138   7.816   3.097 -0.1532  0.3451 -0.2562
11448SOL    HW141205   3.145   7.902   3.138  1.4694  0.1371 -0.0392
11448SOL    HW241206   3.145   7.754   3.170  1.5498 -0.0075 -0.6922
11449SOL     OW41207   3.555   2.109   1.644  0.0687 -0.5248  0.2478
11449SOL    HW141208   3.609   2.148   1.713  1.9069 -1.0663 -0.8066
11449SOL    HW241209   3.618   2.074   1.581 -1.5266  0.2505 -1.9022
11450SOL     OW41210   9.115   6.201   9.489  0.2501 -0.3795 -0.5680
11450SOL    HW141211   9.195   6.206   9.436  0.7293 -3.3302 -0.2540
11450SOL    HW241212   9.134   6.255   9.565  1.3488  0.1892 -1.2084
11451SOL     OW41213   3.439   4.614  10.919  0.7821 -0.0092  0.1516
11451SOL    HW141214   3.470   4.641  10.833  1.8711  0.4408  0.6762
11451SOL    HW241215   3.400   4.528  10.904  0.5969  0.2347 -0.8571
11452SOL     OW41216   2.844   1.097   7.375 -0.3908 -0.4608 -0.2213
11452SOL    HW141217   2.857   1.073   7.284  0.4071 -1.9877  0.2647
11452SOL    HW241218   2.749   1.097   7.387 -0.4680 -1.7463 -0.6940
11453SOL     OW41219   2.553   9.440   8.401  0.1606  0.0287 -0.0114
11453SOL    HW141220   2.506   9.523   8.410 -1.5355 -0.8811 -0.0320
11453SOL    HW241221   2.502   9.378   8.452  1.5388 -0.9757  0.2096
11454SOL     OW41222   1.830   4.819  10.282 -0.0578 -0.0746  0.7310
11454SOL    HW141223   1.872   4.891  10.330 -0.7722  0.4263  0.6217
11454SOL    HW241224   1.741   4.817  10.315  0.1595 -1.4516  1.3178
11455SOL     OW41225   4.716   6.921   8.453  0.0194  0.2408  0.0320
11455SOL    HW141226   4.682   6.882   8.534 -0.7807  0.9629  0.0632
11455SOL    HW241227   4.654   6.895   8.386  0.3028  0.2134 -0.2201
11456SOL     OW41228   6.725   7.048   2.991  0.0378  0.3210  0.2175
11456SOL    HW141229   6.668   7.104   3.044  2.6365  3.3932  0.0995
11456SOL    HW241230   6.674   7.028   2.913 -1.8113  0.6417  1.3029
11457SOL     OW41231  12.111   3.676   6.743  0.1036 -0.1476  0.5302
11457SOL    HW141232  12.016   3.677   6.734  0.1428 -0.9722 -0.1625
11457SOL    HW241233  12.144   3.706   6.659  0.4528 -1.8347  0.0221
11458SOL     OW41234   3.668   3.706   8.344  0.2399 -0.1074  0.1804
11458SOL    HW141235   3.719   3.786   8.357  0.2148 -0.2847  1.6282
11458SOL    HW241236   3.583   3.735   8.314  0.0407  0.4804  1.2531
11459SOL     OW41237   4.144   2.123   0.010 -0.1424  0.8924  0.0230
11459SOL    HW141238   4.189   2.083   0.084 -0.8695 -2.1888 -1.0528
11459SOL    HW241239   4.066   2.163   0.048  0.6974  1.4928  1.1817
11460SOL     OW41240   2.697   1.473   1.270  0.0100 -0.0213 -0.0022
11460SOL    HW141241   2.651   1.538   1.217  0.5834 -0.1370 -0.6519
11460SOL    HW241242   2.788   1.478   1.242  0.7493  1.3125  2.3506
11461SOL     OW41243   8.443   1.970   3.367 -0.2745 -0.9115 -0.1606
11461SOL    HW141244   8.351   1.995   3.359 -0.3815 -0.5592  1.6986
11461SOL    HW241245   8.454   1.899   3.304 -1.5540 -0.3340 -1.0942
11462SOL     OW41246   9.789   4.948   2.203 -0.3709 -0.1539 -0.2848
11462SOL    HW141247   9.846   5.011   2.159  1.5045  0.4419  2.7264
11462SOL    HW241248   9.806   4.865   2.160  1.2736  0.4103 -0.7772
11463SOL     OW41249  11.155   2.346   4.458 -0.0478  0.4621 -0.0987
11463SOL    HW141250  11.183   2.302   4.538 -0.5833 -1.1388 -0.7513
11463SOL    HW241251  11.207   2.304   4.389 -0.9118  0.5216 -0.7964
11464SOL     OW41252   9.029  11.389   7.005  0.2222  0.2390 -0.2066
11464SOL    HW141253   8.959  11.357   7.062  0.0972  0.7600 -0.0536
11464SOL    HW241254   8.985  11.411   6.923  0.4210 -0.6278 -0.5589
11465SOL     OW41255   7.738   6.950   1.993  0.1619  0.5052 -0.0835
11465SOL    HW141256   7.653   6.915   1.969  0.4867 -0.0037 -0.5039
11465SOL    HW241257   7.732   7.044   1.973 -0.8404  0.7957  1.4145
11466SOL     OW41258   5.580   0.493   0.394  0.4817  0.2434 -0.1640
11466SOL    HW141259   5.633   0.521   0.468 -0.9286  1.7657  0.3364
11466SOL    HW241260   5.515   0.433   0.432  0.8366 -0.3660 -0.4978
11467SOL     OW41261   0.680   6.634   9.585 -0.2167  0.1284 -0.5451
11467SOL    HW141262   0.704   6.721   9.618 -0.6780  0.0011  0.1483
11467SOL    HW241263   0.636   6.652   9.502 -2.4741  0.7774  0.7095
11468SOL     OW41264   6.059  12.067   3.081  0.1314  0.1626 -0.0170
11468SOL    HW141265   6.098  12.013   3.012  1.5170  0.4171  0.5528
11468SOL    HW241266   6.129  12.083   3.143 -1.2469 -0.6050  1.8383
11469SOL     OW41267   1.428   3.479   1.710  0.1641  0.1183 -0.3476
11469SOL    HW141268   1.392   3.511   1.792 -0.4446 -1.8444  0.2049
11469SOL    HW241269   1.521   3.465   1.727  0.3334  1.0758 -0.4496
11470SOL     OW41270   5.634   5.812   1.893  0.5799  0.2511  0.6519
11470SOL    HW141271   5.688   5.748   1.938  1.5485  0.5769 -0.0207
11470SOL    HW241272   5.686   5.840   1.818 -1.2622 -0.8345 -1.1527
11471SOL     OW41273   8.864   6.207   5.151  0.0289 -0.5251  0.3597
11471SOL    HW141274   8.781   6.249   5.175 -1.4194 -2.0918 -1.5289
11471SOL    HW241275   8.860   6.120   5.191  0.7714 -0.6057  0.2726
11472SOL     OW41276   2.402  12.375   0.702 -0.3380  0.6303 -0.1525
11472SOL    HW141277   2.334  12.310   0.716  0.2030 -0.1812 -1.1088
11472SOL    HW241278   2.440  12.352   0.617  0.3062  1.8044 -0.2096
11473SOL     OW41279   5.322   0.279   7.513  0.5934  0.5670 -0.1953
11473SOL    HW141280   5.248   0.220   7.527  1.7045 -1.0225 -0.7003
11473SOL    HW241281   5.359   0.252   7.429  0.4841  2.7752 -1.0267
11474SOL     OW41282  11.627   1.921   9.637 -0.0868  0.0195 -0.3869
11474SOL    HW141283  11.698   1.972   9.675 -1.6626  1.9890  0.1445
11474SOL    HW241284  11.549   1.975   9.652 -1.5325 -1.5211 -1.9033
11475SOL     OW41285   6.612   1.417   3.792 -0.3297  0.1858  0.5834
11475SOL    HW141286   6.699   1.384   3.770 -0.8275 -1.1974  0.5653
11475SOL    HW241287   6.628   1.500   3.837  0.9250  0.6021 -0.5669
11476SOL     OW41288   6.422   8.577   8.930 -0.5894  0.0193  0.1432
11476SOL    HW141289   6.478   8.584   8.852  0.4566  0.3549  0.9046
11476SOL    HW241290   6.478   8.607   9.002 -2.2824  2.1029  0.6996
11477SOL     OW41291  11.522   4.142   5.528  0.2660 -0.1584 -0.1135
11477SOL    HW141292  11.564   4.120   5.611 -1.6732 -0.7990  0.7554
11477SOL    HW241293  11.530   4.063   5.476  0.6996 -0.0516 -0.2171
11478SOL     OW41294  10.295   7.466   2.945 -0.4103 -0.0781  0.1976
11478SOL    HW141295  10.288   7.520   3.024 -1.5249 -0.4991  0.4093
11478SOL    HW241296  10.260   7.520   2.875  1.4641  0.6596 -0.2277
11479SOL     OW41297   9.541   0.241  12.114  0.4262  0.1827  0.1485
11479SOL    HW141298   9.484   0.306  12.073  0.1825  0.9773  1.6697
11479SOL    HW241299   9.628   0.282  12.112  0.9333 -0.8672 -1.8251
11480SOL     OW41300   6.252   9.109  12.295 -0.1890 -0.8446 -0.2365
11480SOL    HW141301   6.311   9.118  12.221  0.1451 -1.7877 -0.1034
11480SOL    HW241302   6.273   9.183  12.352  0.4890 -0.8693 -0.4480
11481SOL     OW41303   7.930   5.873   7.932 -0.3643 -0.0415 -0.2801
11481SOL    HW141304   7.933   5.815   8.008 -0.1309  0.2348 -0.0765
11481SOL    HW241305   7.841   5.909   7.933 -0.0550  0.7619  0.4725
11482SOL     OW41306   3.921   9.461  11.105  0.0933  0.3498  0.3090
11482SOL    HW141307   3.890   9.458  11.015  2.3169 -0.1184 -0.5007
11482SOL    HW241308   3.936   9.369  11.128 -2.3083  0.2543  1.9355
11483SOL     OW41309  10.044   8.415   3.352  0.1477  0.2881  0.5452
11483SOL    HW141310   9.978   8.482   3.369  0.3932  1.1639 -1.6047
11483SOL    HW241311   9.998   8.347   3.303  0.0977 -0.7721  1.9938
11484SOL     OW41312  11.302   2.227   5.455 -0.3382  0.1738  0.0710
11484SOL    HW141313  11.217   2.215   5.412 -0.0961 -0.8585 -0.1373
11484SOL    HW241314  11.356   2.272   5.390 -0.9430  1.5848  0.4893
11485SOL     OW41315   3.492   4.544   9.751 -0.3819 -0.3146 -0.0365
11485SOL    HW141316   3.420   4.603   9.776 -0.5210 -0.2135 -0.6541
11485SOL    HW241317   3.453   4.457   9.756 -1.0444 -0.1696 -1.9062
11486SOL     OW41318   9.346   5.576  10.804 -0.2353  0.1433 -0.0490
11486SOL    HW141319   9.304   5.607  10.724 -1.9800 -1.2860  0.2580
11486SOL    HW241320   9.440   5.592  10.789 -0.7342  2.5539 -1.1459
11487SOL     OW41321   8.152   9.199   6.299  0.3615 -0.1240  0.3318
11487SOL    HW141322   8.109   9.273   6.255  0.7014  0.5565  1.1289
11487SOL    HW241323   8.229   9.180   6.244  0.3605  0.2143  0.2133
11488SOL     OW41324  11.955   9.033   9.615  0.0010  0.0346 -0.0474
11488SOL    HW141325  11.947   9.073   9.528 -0.6131 -1.0973 -0.5328
11488SOL    HW241326  12.045   9.052   9.642 -0.2097  1.5462 -0.3378
11489SOL     OW41327   1.709   3.419  10.893  0.5619  0.0444  0.7828
11489SOL    HW141328   1.675   3.338  10.931 -2.7139  0.9670  0.0901
11489SOL    HW241329   1.776   3.390  10.831 -3.1889 -2.7038 -2.5084
11490SOL     OW41330   6.903   4.401   3.189 -0.7632 -0.6856 -0.1595
11490SOL    HW141331   6.974   4.386   3.128 -0.2067 -1.8271  0.7216
11490SOL    HW241332   6.842   4.329   3.174 -1.4069 -0.0914 -0.4459
11491SOL     OW41333  10.307   7.554   2.326 -0.2511 -0.0601 -0.0485
11491SOL    HW141334  10.398   7.568   2.352 -0.1659 -0.7763  0.0579
11491SOL    HW241335  10.255   7.604   2.389 -0.0065 -1.0545  0.9677
11492SOL     OW41336   7.276   7.860  11.008  0.1019 -0.0555  0.0415
11492SOL    HW141337   7.202   7.864  10.947  1.3900 -0.3893 -1.5863
11492SOL    HW241338   7.285   7.767  11.029  0.7293 -0.1502 -0.6250
11493SOL     OW41339   5.860   4.880   5.308 -0.0809 -0.0661  0.3403
11493SOL    HW141340   5.900   4.910   5.389 -2.2954 -2.8916  2.6872
11493SOL    HW241341   5.850   4.786   5.319  1.3997 -1.0077 -4.1982
11494SOL     OW41342   7.510   7.253   3.258 -0.2724  0.6173 -0.4544
11494SOL    HW141343   7.498   7.223   3.349 -1.5910 -0.1085 -0.8398
11494SOL    HW241344   7.603   7.238   3.241 -0.2676 -0.4713  0.3649
11495SOL     OW41345   9.655   3.955   8.595 -0.0730  0.2875  0.1525
11495SOL    HW141346   9.608   3.972   8.514 -3.3469 -0.4445  1.7124
11495SOL    HW241347   9.589   3.917   8.653  1.8684  1.5148  3.4364
11496SOL     OW41348   3.894  10.119   3.728 -0.4538 -1.1639 -0.3537
11496SOL    HW141349   3.868  10.093   3.817  0.2187  0.1202  0.2519
11496SOL    HW241350   3.923  10.210   3.738 -0.1076 -1.0938 -1.8490
11497SOL     OW41351  12.211   6.103   5.227 -0.4773 -0.0928 -0.0296
11497SOL    HW141352  12.291   6.055   5.205 -0.9607 -1.0017  0.1379
11497SOL    HW241353  12.197   6.162   5.153  2.0632  2.4320  1.3099
11498SOL     OW41354  11.139   8.316  10.925 -0.4480 -0.0852 -0.6575
11498SOL    HW141355  11.109   8.403  10.952  2.2613  0.9995 -0.8087
11498SOL    HW241356  11.161   8.325  10.833  1.3860 -0.4131 -0.2957
11499SOL     OW41357   6.174  11.635   5.549  0.2591 -0.1740 -0.1228
11499SOL    HW141358   6.214  11.639   5.636 -0.7104  1.5480  0.2950
11499SOL    HW241359   6.082  11.614   5.565 -0.0680  0.7919 -0.6552
11500SOL     OW41360   9.388   8.565   5.950  0.5769 -0.3981  0.2646
11500SOL    HW141361   9.314   8.603   5.901  0.3983 -1.0587  0.0116
11500SOL    HW241362   9.457   8.631   5.943  1.0587 -1.0739 -2.1472
11501SOL     OW41363   6.018   7.824   1.099 -0.6861  0.0622  0.9936
11501SOL    HW141364   5.989   7.785   1.016  1.0453 -0.9925  0.8495
11501SOL    HW241365   5.960   7.785   1.165 -0.5600 -0.9183  0.5493
11502SOL     OW41366   8.859   0.771   1.841 -0.9748 -0.0327 -0.1019
11502SOL    HW141367   8.940   0.720   1.848 -0.0749  1.3261 -0.1739
11502SOL    HW241368   8.834   0.764   1.749 -0.5495  0.0920 -0.2302
11503SOL     OW41369   0.157   4.784   0.328  0.4290 -0.0764  0.4463
11503SOL    HW141370   0.179   4.819   0.414  2.4362  2.1954 -0.8451
11503SOL    HW241371   0.077   4.831   0.302 -0.0149 -0.5551  0.9345
11504SOL     OW41372   8.828   2.495   8.045 -0.3629 -0.6310  0.2347
11504SOL    HW141373   8.916   2.500   8.006 -0.4717 -1.5272 -0.1471
11504SOL    HW241374   8.819   2.577   8.094  1.6138 -1.5052  2.2233
11505SOL     OW41375   7.799   4.301  10.220 -0.1055 -0.0368  0.2654
11505SOL    HW141376   7.867   4.243  10.186  1.9929  3.3204 -1.9818
11505SOL    HW241377   7.838   4.342  10.297 -1.6155 -1.5671  1.9241
11506SOL     OW41378   4.164   3.584  10.777 -0.4928 -0.6591  0.2811
11506SOL    HW141379   4.173   3.493  10.750  3.5625  0.4412 -3.1454
11506SOL    HW241380   4.112   3.625  10.708 -0.0476  0.0752  0.3640
11507SOL     OW41381   5.327  10.545   3.127 -0.5840 -0.0565  0.4915
11507SOL    HW141382   5.279  10.464   3.106 -1.1781  0.2945  0.4746
11507SOL    HW241383   5.386  10.557   3.052  1.4428 -1.8702  1.6514
11508SOL     OW41384   0.921   1.157   8.905  0.0564  0.3252  0.2645
11508SOL    HW141385   0.924   1.104   8.826 -0.7404  1.1300 -0.3333
11508SOL    HW241386   0.838   1.133   8.947 -0.7438  1.6694 -0.4646
11509SOL     OW41387   5.241   7.088   9.233  0.0578 -0.3406 -0.0272
11509SOL    HW141388   5.209   7.166   9.278 -1.7283 -0.6330 -0.6976
11509SOL    HW241389   5.300   7.121   9.165  0.8550  0.2584  0.9406
11510SOL     OW41390   6.249   9.994   2.164 -0.7692 -0.0358 -0.1503
11510SOL    HW141391   6.245   9.914   2.217 -1.5078  0.9267  1.3147
11510SOL    HW241392   6.231  10.065   2.226  2.8418  1.6178 -0.7262
11511SOL     OW41393  10.676   5.641   5.971  0.1867 -0.3197  0.1355
11511SOL    HW141394  10.686   5.635   5.876 -2.1745 -0.7158 -0.1446
11511SOL    HW241395  10.712   5.727   5.993 -1.5839  0.9341 -1.5384
11512SOL     OW41396   0.774  11.053   2.107 -0.3821  0.2047  0.7605
11512SOL    HW141397   0.718  11.130   2.099 -1.7813 -0.7594  0.8656
11512SOL    HW241398   0.852  11.085   2.152 -0.6040  1.7015  0.1421
11513SOL     OW41399   5.807   3.004   5.370  0.0348  0.0401 -0.2148
11513SOL    HW141400   5.888   3.024   5.416  1.3710 -0.5674 -2.2096
11513SOL    HW241401   5.808   2.908   5.360 -2.1089 -0.2970  1.7317
11514SOL     OW41402  10.533   7.496   8.579 -0.1446  0.3020  0.1075
11514SOL    HW141403  10.594   7.526   8.647 -1.0761 -0.8557  1.5128
11514SOL    HW241404  10.528   7.570   8.518  1.6760  0.9026  0.6126
11515SOL     OW41405   3.856   0.007   0.408  0.4810 -0.3129  0.1082
11515SOL    HW141406   3.810   0.005   0.325 -0.4929 -1.5084  0.6573
11515SOL    HW241407   3.886   0.098   0.416  0.8975 -0.2458 -1.6766
11516SOL     OW41408   9.146  11.761   8.370  0.2189 -0.1656  0.1302
11516SOL    HW141409   9.161  11.720   8.284  0.2265 -1.4404  0.7068
11516SOL    HW241410   9.231  11.795   8.396  0.7592 -1.7907  0.6067
11517SOL     OW41411   5.638   5.877   6.491  0.0510 -0.5798  0.2652
11517SOL    HW141412   5.597   5.925   6.420 -0.3807 -0.1497  0.7903
11517SOL    HW241413   5.684   5.944   6.542  2.3205 -1.1559 -0.8775
11518SOL     OW41414   6.431  10.782   0.355 -0.3972  0.2352  0.3464
11518SOL    HW141415   6.427  10.803   0.448  1.0450 -0.7205  0.6707
11518SOL    HW241416   6.497  10.841   0.320 -1.8212  1.4623 -0.3752
11519SOL     OW41417   1.962   7.667   6.854  0.4518 -0.0772 -0.1985
11519SOL    HW141418   1.997   7.721   6.925  2.0644 -1.5875  0.2535
11519SOL    HW241419   2.040   7.625   6.816 -0.7756 -4.2576  1.3316
11520SOL     OW41420   0.662  11.955  11.933  0.3926 -0.5613  0.3480
11520SOL    HW141421   0.597  11.949  12.002  0.8864 -0.6809  0.8093
11520SOL    HW241422   0.727  12.017  11.966  2.1987 -2.8331  1.3294
11521SOL     OW41423   3.456  11.401   9.664 -0.0427 -0.8295  0.0874
11521SOL    HW141424   3.535  11.438   9.624 -0.3541 -0.4905 -0.2189
11521SOL    HW241425   3.384  11.446   9.621 -0.3937  1.8328  3.0732
11522SOL     OW41426   9.860   4.290   1.233 -0.1110  0.4211 -0.2242
11522SOL    HW141427   9.781   4.289   1.288  0.6154  1.2205  0.8709
11522SOL    HW241428   9.856   4.374   1.187  0.0289  0.3972 -0.2801
11523SOL     OW41429   7.775  10.564  10.093  0.5781 -0.5238 -0.4578
11523SOL    HW141430   7.814  10.641  10.135 -1.4979  2.5447 -3.5929
11523SOL    HW241431   7.688  10.558  10.131 -0.6443  1.1611 -2.7611
11524SOL     OW41432   8.028  10.724   9.075 -0.1766  0.2571 -0.2064
11524SOL    HW141433   7.999  10.656   9.014 -2.0737 -0.4777  1.3842
11524SOL    HW241434   8.112  10.693   9.107  0.4245  0.2192 -1.7619
11525SOL     OW41435   4.958   5.157   1.162  0.4755 -0.4108  0.5416
11525SOL    HW141436   5.032   5.167   1.102  1.3356 -1.5852  1.3808
11525SOL    HW241437   4.998   5.146   1.248 -0.5297 -3.0568  0.7718
11526SOL     OW41438   4.578   6.625   4.100 -0.5944  0.0944  0.1180
11526SOL    HW141439   4.625   6.707   4.089 -0.8702  0.5528  1.9801
11526SOL    HW241440   4.558   6.596   4.011  0.3701  1.5244 -0.6003
11527SOL     OW41441   9.524   0.819   6.695  0.2104  0.4300  0.1627
11527SOL    HW141442   9.479   0.893   6.738 -0.5800  0.5834 -0.9050
11527SOL    HW241443   9.475   0.742   6.724  0.0299  0.4793 -0.0098
11528SOL     OW41444   1.420  10.244   0.513 -0.1188  0.0513 -0.5089
11528SOL    HW141445   1.396  10.328   0.552 -0.2093  0.1074 -0.6849
11528SOL    HW241446   1.434  10.186   0.588  2.3665  0.8430 -0.2399
11529SOL     OW41447   3.655   2.697   3.334 -0.5584  0.0713 -0.2764
11529SOL    HW141448   3.632   2.614   3.292  0.0128  0.5580 -1.6087
11529SOL    HW241449   3.746   2.713   3.308  1.1807 -1.3072  4.0424
11530SOL     OW41450   9.569  12.305   8.490  0.0779  0.2864 -0.3424
11530SOL    HW141451   9.511  12.303   8.413  0.1703  2.4529 -0.5261
11530SOL    HW241452   9.637  12.240   8.470  0.5575  1.3421 -2.5173
11531SOL     OW41453   1.310  11.929   0.713  0.6580  0.1080 -0.9115
11531SOL    HW141454   1.286  11.837   0.702 -0.9246  0.5672 -1.5338
11531SOL    HW241455   1.405  11.927   0.729  0.4826 -1.6926  0.1825
11532SOL     OW41456  10.738   0.911   0.383  0.9317  0.3513  0.4146
11532SOL    HW141457  10.754   0.820   0.409 -0.7263 -0.4556 -1.1741
11532SOL    HW241458  10.727   0.958   0.466  3.6333 -0.4606  1.3293
11533SOL     OW41459   8.077   2.874   6.582  0.0706 -0.0400 -0.2972
11533SOL    HW141460   8.011   2.938   6.610 -1.0606  0.1875 -3.1161
11533SOL    HW241461   8.077   2.808   6.650 -1.6856  0.9517  0.7421
11534SOL     OW41462   2.083   4.279  12.126 -0.1615  0.9391  0.1406
11534SOL    HW141463   2.017   4.346  12.145 -2.0686 -0.5770 -0.7566
11534SOL    HW241464   2.123   4.261  12.211 -0.9517  1.8635  0.7407
11535SOL     OW41465   3.208   4.281   7.534  0.1782  0.5703 -0.3249
11535SOL    HW141466   3.291   4.263   7.579  0.5345  0.9534 -0.8170
11535SOL    HW241467   3.197   4.376   7.543 -0.0552  0.5628 -0.5275
11536SOL     OW41468  12.078   0.790   5.356 -0.1681  0.2459  0.6527
11536SOL    HW141469  12.070   0.696   5.372  1.3555  0.0567  0.5174
11536SOL    HW241470  12.035   0.804   5.272 -0.9327 -0.2250  0.9638
11537SOL     OW41471   8.164   9.699   3.113  0.7444  0.7340  0.3585
11537SOL    HW141472   8.222   9.731   3.182  0.5089  1.4939  0.2042
11537SOL    HW241473   8.204   9.728   3.032  1.0564 -0.2194  0.1516
11538SOL     OW41474   1.793   1.950  12.200  0.6620 -0.2763 -0.3966
11538SOL    HW141475   1.884   1.942  12.170  0.6704  2.5606 -1.3506
11538SOL    HW241476   1.799   1.996  12.284  0.1083 -0.2907 -0.3438
11539SOL     OW41477   9.683   2.729  11.305 -0.1767 -0.0235  0.6287
11539SOL    HW141478   9.634   2.782  11.368 -1.6003  1.5956 -1.7059
11539SOL    HW241479   9.714   2.791  11.240  1.2105 -1.6459 -0.3448
11540SOL     OW41480   4.685   8.664   2.262  0.1003 -0.2325 -0.2057
11540SOL    HW141481   4.734   8.639   2.184  0.1135 -0.1500 -0.2239
11540SOL    HW241482   4.606   8.708   2.228  0.6199  0.7656 -0.1632
11541SOL     OW41483   8.497   4.128   1.243 -0.2296 -0.0913  0.1017
11541SOL    HW141484   8.583   4.123   1.285  0.5968 -0.6567 -1.5708
11541SOL    HW241485   8.516   4.153   1.152 -2.0229  2.2268  0.2721
11542SOL     OW41486   5.272   7.815   9.572  0.0808  0.1565 -0.0978
11542SOL    HW141487   5.249   7.723   9.564 -1.4438  0.6135 -1.5515
11542SOL    HW241488   5.359   7.815   9.611  0.3421 -1.9171 -0.5828
11543SOL     OW41489   4.842   6.304   4.916 -0.3041 -0.4809  0.1299
11543SOL    HW141490   4.809   6.256   4.840 -1.3493  0.2070  0.1365
11543SOL    HW241491   4.884   6.382   4.879 -1.7448  0.3977  0.2853
11544SOL     OW41492   7.659   7.552   7.196 -0.4213 -0.3207  0.3854
11544SOL    HW141493   7.732   7.510   7.150 -0.5749  1.3963 -1.5983
11544SOL    HW241494   7.692   7.639   7.219 -0.6541 -0.8134  2.8970
11545SOL     OW41495   5.624  11.127   1.717 -0.1894  0.1820 -0.1386
11545SOL    HW141496   5.710  11.159   1.691  0.5798 -0.8640  0.9881
11545SOL    HW241497   5.568  11.205   1.713  0.6593  0.7640 -1.4359
11546SOL     OW41498  12.300   2.582   2.757  0.0962 -0.0808  0.9510
11546SOL    HW141499  12.207   2.575   2.736  0.5047 -0.9009 -0.7741
11546SOL    HW241500  12.310   2.532   2.838 -1.0555  0.6479  1.5880
11547SOL     OW41501   4.316   5.899   0.145 -0.2457  0.4799  0.1437
11547SOL    HW141502   4.250   5.831   0.160 -0.5631  0.5402 -0.9103
11547SOL    HW241503   4.366   5.868   0.070  0.7666  0.5688  0.7669
11548SOL     OW41504   7.294   4.402  11.695 -0.2088  0.4174 -0.2655
11548SOL    HW141505   7.371   4.410  11.751  1.6810 -1.8740 -2.2894
11548SOL    HW241506   7.313   4.459  11.621 -0.4282 -0.1482 -0.7648
11549SOL     OW41507   9.174   7.780   0.883 -0.3161 -0.0462  0.1060
11549SOL    HW141508   9.092   7.745   0.849  0.0765  0.2183 -1.1735
11549SOL    HW241509   9.148   7.834   0.957 -0.9495 -2.9290  2.1489
11550SOL     OW41510   8.631   1.027  10.954 -0.4836  0.2806  0.5667
11550SOL    HW141511   8.610   0.950  10.901 -1.7040  1.0224 -0.0904
11550SOL    HW241512   8.688   0.995  11.024  3.6756 -0.3256 -2.6943
11551SOL     OW41513   2.139   0.929  11.334 -0.1772 -0.1812  0.0731
11551SOL    HW141514   2.197   1.000  11.307 -0.2876 -0.7536 -1.8419
11551SOL    HW241515   2.192   0.876  11.393  0.1288  1.0957  0.9778
11552SOL     OW41516  12.411  10.610   6.126  0.3962  0.3668 -0.0495
11552SOL    HW141517  12.476  10.677   6.149  0.3696 -0.0183  1.2449
11552SOL    HW241518  12.459  10.527   6.130  0.1910  0.2168 -0.6412
11553SOL     OW41519   5.494   6.318   2.036 -0.0392  0.1386 -0.1589
11553SOL    HW141520   5.582   6.290   2.059  0.4833  0.4223 -1.6944
11553SOL    HW241521   5.487   6.407   2.071 -0.6945 -0.7584  2.2338
11554SOL     OW41522   0.823   1.994  11.614 -0.4646 -0.2639  0.3153
11554SOL    HW141523   0.887   1.977  11.545  0.5416  1.3508  0.7998
11554SOL    HW241524   0.875   2.025  11.688 -1.6725 -0.4498  1.2742
11555SOL     OW41525   5.710   4.491   4.445  0.0174 -0.2228 -0.7149
11555SOL    HW141526   5.791   4.491   4.495  0.0028 -0.3384 -0.6927
11555SOL    HW241527   5.671   4.406   4.461  0.0814 -0.3153 -1.0322
11556SOL     OW41528   5.842   4.893   3.046  0.0824 -0.0962  0.0956
11556SOL    HW141529   5.842   4.920   2.954  2.1369  1.4379  0.4609
11556SOL    HW241530   5.787   4.957   3.090  0.4427  0.1722  0.1605
11557SOL     OW41531  12.073   1.346  10.413  0.2149 -0.6629  0.7072
11557SOL    HW141532  12.088   1.271  10.469  1.4440 -0.0160  1.2819
11557SOL    HW241533  12.129   1.415  10.449 -0.1966  0.2555 -0.3433
11558SOL     OW41534   5.008  12.465   0.079  0.9810  0.6455  0.5600
11558SOL    HW141535   5.040  12.518   0.153  0.5799  1.4650  0.1541
11558SOL    HW241536   5.061  12.494   0.005  0.2940  0.9691  0.1918
11559SOL     OW41537   1.490   4.940  11.165 -0.7504  0.2260  0.6901
11559SOL    HW141538   1.506   4.975  11.253 -0.0657  3.9165 -0.7200
11559SOL    HW241539   1.577   4.925  11.128 -0.9853  0.5335 -0.0002
11560SOL     OW41540   1.440   4.759   3.594  0.6464 -0.0692  0.4148
11560SOL    HW141541   1.456   4.850   3.622  1.3387  0.1854 -0.7309
11560SOL    HW241542   1.428   4.711   3.676 -0.7511  1.2248  1.0235
11561SOL     OW41543  11.574   1.567   8.315  0.2341 -0.5638  0.5778
11561SOL    HW141544  11.663   1.590   8.341  0.1482  0.5378 -0.0449
11561SOL    HW241545  11.584   1.507   8.241  0.4521 -0.6896  0.7089
11562SOL     OW41546  11.694   9.893   2.211 -0.7785  0.0720 -0.0393
11562SOL    HW141547  11.681   9.835   2.286 -0.5736  1.0249  0.7392
11562SOL    HW241548  11.772   9.857   2.167  0.6256  0.9343  1.6143
11563SOL     OW41549  11.803  10.704   3.857 -0.4924  0.2649 -0.7386
11563SOL    HW141550  11.809  10.621   3.903  2.1578  1.1867  0.7843
11563SOL    HW241551  11.766  10.765   3.920  0.3544  0.8687 -0.7965
11564SOL     OW41552   6.161   1.834   4.896 -0.0081  0.0271  0.1434
11564SOL    HW141553   6.172   1.929   4.892 -1.2926  0.1384 -1.4684
11564SOL    HW241554   6.076   1.821   4.937  0.1612 -0.4555  0.3534
11565SOL     OW41555  10.864   7.255   7.679 -0.5640 -0.1876 -0.3191
11565SOL    HW141556  10.864   7.253   7.775 -0.5402  2.5312 -0.1895
11565SOL    HW241557  10.956   7.267   7.656 -0.3755 -2.1979 -0.8132
11566SOL     OW41558   3.742   1.713   1.011 -0.5265  0.4623  0.3818
11566SOL    HW141559   3.806   1.675   1.072  0.2610 -0.0577 -0.7280
11566SOL    HW241560   3.703   1.786   1.059  0.3480  0.3044  1.3682
11567SOL     OW41561   4.793   1.156  12.020  0.1589 -0.0599  0.0980
11567SOL    HW141562   4.870   1.177  12.073  0.3391  1.1328 -0.5975
11567SOL    HW241563   4.822   1.085  11.963 -0.1811 -1.7015  1.8669
11568SOL     OW41564   6.857   7.708   1.882  0.1965  0.6293  0.0642
11568SOL    HW141565   6.821   7.778   1.936 -0.9031  0.1119  0.0323
11568SOL    HW241566   6.807   7.711   1.801 -0.8316 -1.0295  0.5783
11569SOL     OW41567  12.422  11.036   0.988  0.1356 -0.0978 -0.3545
11569SOL    HW141568  12.509  11.034   1.028  0.6851  1.8779 -1.3125
11569SOL    HW241569  12.435  10.998   0.901  0.2004  0.7039 -0.7088
11570SOL     OW41570   5.526   2.377   0.467  0.2004  0.1164 -0.0941
11570SOL    HW141571   5.496   2.355   0.555 -2.6557  2.3299 -0.3604
11570SOL    HW241572   5.595   2.442   0.480 -1.9426  2.3942  0.6456
11571SOL     OW41573   4.652   0.319   4.321 -0.2250  0.1326 -0.4680
11571SOL    HW141574   4.613   0.333   4.235 -1.3269 -1.0129 -0.1830
11571SOL    HW241575   4.722   0.256   4.307 -0.9796 -0.7471 -0.4248
11572SOL     OW41576  10.691   2.582  10.374 -0.1944 -0.2087 -0.5489
11572SOL    HW141577  10.678   2.566  10.468  2.0276  2.0053  0.2777
11572SOL    HW241578  10.630   2.653  10.354 -1.7391 -1.6561 -1.2459
11573SOL     OW41579   8.228   3.507   6.503 -0.1928 -0.4768 -0.7029
11573SOL    HW141580   8.290   3.448   6.546  1.1922  1.4410  0.0806
11573SOL    HW241581   8.186   3.553   6.575  1.1255  1.7800 -1.2902
11574SOL     OW41582  10.063   8.248  11.777 -0.4598  0.4080  0.6994
11574SOL    HW141583   9.971   8.240  11.805 -0.0504 -2.3514  1.5656
11574SOL    HW241584  10.066   8.202  11.694  0.3014 -0.3114  1.1155
11575SOL     OW41585   1.696   1.109   1.851  0.1211  0.3582  0.2613
11575SOL    HW141586   1.628   1.148   1.906  0.3500 -0.0498  0.8428
11575SOL    HW241587   1.708   1.021   1.886  0.0133 -0.0421 -0.6745
11576SOL     OW41588   3.216   1.408   9.002  0.3960 -0.4714  0.4132
11576SOL    HW141589   3.145   1.443   8.948  0.4456  0.3765  0.8830
11576SOL    HW241590   3.171   1.373   9.079  0.5282  0.6165  0.9940
11577SOL     OW41591   3.423  11.268  10.502 -0.5723 -0.0805 -0.4180
11577SOL    HW141592   3.383  11.335  10.557 -1.2965 -0.7420 -0.1133
11577SOL    HW241593   3.507  11.305  10.475  0.1800 -0.0660  1.7941
11578SOL     OW41594   6.836   3.978  11.028 -0.1389 -0.3541  0.5379
11578SOL    HW141595   6.863   3.946  10.942  0.1540 -0.6045  0.7203
11578SOL    HW241596   6.767   4.042  11.009  0.1751 -0.1404  0.0977
11579SOL     OW41597   1.373   9.135   0.631  0.2920  0.1738 -0.3799
11579SOL    HW141598   1.425   9.084   0.569  2.5053  0.1297  1.3708
11579SOL    HW241599   1.430   9.209   0.655 -1.4572  1.5467 -0.2082
11580SOL     OW41600  10.287   3.164   1.229  0.4341 -0.1727  0.6159
11580SOL    HW141601  10.260   3.088   1.178 -1.1271  1.2494 -0.7882
11580SOL    HW241602  10.210   3.188   1.281  0.3499  1.3640 -0.1614
11581SOL     OW41603   5.684   9.709   3.407 -0.1022  0.2317 -0.0687
11581SOL    HW141604   5.716   9.627   3.443  0.8515  0.7146  0.2134
11581SOL    HW241605   5.613   9.735   3.465 -2.6207 -1.9449 -1.9230
11582SOL     OW41606   0.873  10.488   8.833 -0.2745  0.2148 -0.5468
11582SOL    HW141607   0.832  10.452   8.912  1.0878 -0.9117 -0.3144
11582SOL    HW241608   0.858  10.582   8.839 -1.7737 -0.0313  0.1115
11583SOL     OW41609   0.464   6.236   3.978  0.0522  0.1048  0.0743
11583SOL    HW141610   0.371   6.257   3.965 -0.1730 -1.4795 -1.1363
11583SOL    HW241611   0.508   6.321   3.978 -1.3060  0.8355 -0.1146
11584SOL     OW41612   9.308  11.813  12.015  0.3470  0.3637  0.4427
11584SOL    HW141613   9.384  11.866  12.040  0.9235 -0.1261 -0.2132
11584SOL    HW241614   9.242  11.832  12.082  1.3227  0.1873  1.4913
11585SOL     OW41615  11.788   9.327   3.860  0.4656 -0.0325  0.2079
11585SOL    HW141616  11.798   9.340   3.766  0.6678 -0.7809  0.1247
11585SOL    HW241617  11.848   9.392   3.899  0.6328  0.0504 -0.1798
11586SOL     OW41618   9.028   6.859   2.463  0.1186  0.5554  0.5290
11586SOL    HW141619   9.051   6.812   2.543 -0.0086  0.7426  0.6750
11586SOL    HW241620   9.094   6.927   2.455 -0.8289  1.6156  1.3869
11587SOL     OW41621   0.483   5.070  10.067 -0.0868  0.0990  0.3723
11587SOL    HW141622   0.565   5.065  10.017  0.4377  1.8828  0.9970
11587SOL    HW241623   0.509   5.060  10.158 -0.7414 -0.5937  0.4971
11588SOL     OW41624   4.404  11.017   8.535  0.2617 -0.3493 -0.0761
11588SOL    HW141625   4.469  10.948   8.530  0.6960 -0.0474  1.0790
11588SOL    HW241626   4.379  11.034   8.444  0.6465 -1.5365 -0.4178
11589SOL     OW41627   8.199   9.216  10.805 -0.6900 -0.0651  0.1026
11589SOL    HW141628   8.260   9.199  10.877 -0.8667  2.4880  0.9348
11589SOL    HW241629   8.247   9.188  10.727  0.5830 -0.3720  0.9589
11590SOL     OW41630   1.244   3.641  10.623 -1.1038 -0.2331  0.2521
11590SOL    HW141631   1.333   3.605  10.626 -0.8018  0.3076 -1.1830
11590SOL    HW241632   1.214   3.622  10.534 -0.9764  2.8280 -0.5638
11591SOL     OW41633  11.674   1.978   0.460  0.5672 -0.4251  0.0425
11591SOL    HW141634  11.623   1.936   0.530  2.4941 -0.0160  1.8074
11591SOL    HW241635  11.611   2.035   0.415 -0.5315  0.2113  2.2295
11592SOL     OW41636   4.083   1.868  10.904  0.4523  0.3004 -0.3986
11592SOL    HW141637   4.054   1.787  10.862 -1.4482  1.2485 -1.0921
11592SOL    HW241638   4.146   1.906  10.842  0.0086  0.1907 -0.9305
11593SOL     OW41639   2.371  10.646   2.648 -0.1039  0.1944  0.5816
11593SOL    HW141640   2.346  10.699   2.724  0.6079  0.4527  0.6413
11593SOL    HW241641   2.424  10.575   2.685  0.1000  0.2236  0.3509
11594SOL     OW41642   6.381   8.686   3.384  0.3108 -0.0163 -0.6134
11594SOL    HW141643   6.380   8.688   3.289  1.6107 -2.1079 -0.7321
11594SOL    HW241644   6.346   8.600   3.407 -0.6413  0.7190  0.8474
11595SOL     OW41645   5.375   9.058   4.235  0.1036  0.0368  0.1420
11595SOL    HW141646   5.350   8.965   4.240 -2.4837  0.6416 -0.2643
11595SOL    HW241647   5.457   9.058   4.187  0.0217 -2.0304 -0.0867
11596SOL     OW41648  12.313   6.615   7.367  0.0385 -0.0061  0.4727
11596SOL    HW141649  12.264   6.535   7.386  2.4398 -2.0281 -1.0447
11596SOL    HW241650  12.391   6.609   7.422  2.1587 -0.8467 -2.3814
11597SOL     OW41651  10.840   2.287  11.451 -0.3652 -0.5803  0.2383
11597SOL    HW141652  10.767   2.247  11.498  0.3962 -1.2435  0.8867
11597SOL    HW241653  10.885   2.213  11.411  0.6049 -0.3003  0.7886
11598SOL     OW41654   1.802   7.148  12.126  0.1387 -0.2455 -0.2336
11598SOL    HW141655   1.790   7.097  12.206 -1.3933  2.2627  1.2527
11598SOL    HW241656   1.715   7.183  12.106  0.8218  0.5708 -2.0362
11599SOL     OW41657   3.988   9.566   3.321 -0.6308  0.0636  0.4388
11599SOL    HW141658   3.893   9.557   3.331 -0.9958  1.3054 -1.5175
11599SOL    HW241659   3.999   9.623   3.246  1.6987 -0.2223  0.5027
11600SOL     OW41660  11.235   7.666  11.851  0.3473  0.1592 -0.4558
11600SOL    HW141661  11.330   7.667  11.841  0.6452  0.9108  1.9068
11600SOL    HW241662  11.205   7.744  11.805  0.7854 -0.3122 -1.5942
11601SOL     OW41663  10.694   9.950   0.448 -0.2075 -0.3261  0.5660
11601SOL    HW141664  10.785   9.931   0.470 -0.0564 -1.6682 -1.0180
11601SOL    HW241665  10.659   9.867   0.414 -1.7357  0.4013  0.2372
11602SOL     OW41666   0.710   2.753   3.667  0.4206  0.6823  0.1861
11602SOL    HW141667   0.659   2.714   3.737  0.8112  1.7842  1.1182
11602SOL    HW241668   0.645   2.775   3.600 -0.8253  4.0097  2.2019
11603SOL     OW41669   9.429  11.584   7.010  0.3540  0.5930 -0.5668
11603SOL    HW141670   9.437  11.647   7.081  0.8349  0.2851 -0.3514
11603SOL    HW241671   9.393  11.635   6.937 -1.8340  0.5402  0.4018
11604SOL     OW41672   8.367   1.289  12.201 -1.0289  0.4438  0.1498
11604SOL    HW141673   8.405   1.375  12.182 -0.3952  0.2716  0.6045
11604SOL    HW241674   8.433   1.245  12.254 -1.2028 -0.4593 -0.3761
11605SOL     OW41675   7.152   8.141   8.890  0.0993  0.5376  0.0879
11605SOL    HW141676   7.090   8.186   8.833  1.6128  1.0846 -1.2082
11605SOL    HW241677   7.098   8.096   8.954 -1.5576  2.5110  0.1761
11606SOL     OW41678   8.571   8.098   5.763 -0.3914 -0.4706 -0.3693
11606SOL    HW141679   8.563   8.176   5.708  3.5533  0.8796  0.6454
11606SOL    HW241680   8.573   8.025   5.701 -2.4435  0.3130 -1.4569
11607SOL     OW41681  10.534   9.603   3.984 -0.7222  0.1435  0.0786
11607SOL    HW141682  10.441   9.589   4.004 -0.8832  1.2775  0.1623
11607SOL    HW241683  10.579   9.585   4.067 -0.9739  0.6558  0.3267
11608SOL     OW41684   0.632   9.728   7.713  0.2247  0.0639 -0.1580
11608SOL    HW141685   0.537   9.717   7.705  0.3409  0.4412 -2.9682
11608SOL    HW241686   0.643   9.799   7.776 -1.2919 -0.3217  0.6061
11609SOL     OW41687   6.929   7.921   3.030  0.2903  0.1521  0.2849
11609SOL    HW141688   6.862   7.883   2.972 -0.1880 -0.7127  1.3709
11609SOL    HW241689   6.971   7.845   3.071  1.0446  0.7335  0.6079
11610SOL     OW41690   9.058   6.850   8.817 -0.8029  0.0204 -0.6076
11610SOL    HW141691   9.010   6.864   8.735 -2.6630  1.1518  0.5846
11610SOL    HW241692   9.005   6.786   8.866 -1.1118  1.2393  0.7252
11611SOL     OW41693   1.869   8.017   5.454  0.2623 -0.0659  0.2047
11611SOL    HW141694   1.793   7.959   5.463 -0.9678  1.5796  0.8518
11611SOL    HW241695   1.835   8.094   5.409  1.3270  1.0848  1.2954
11612SOL     OW41696   1.031   4.004   7.739  0.0227  0.1890  0.4903
11612SOL    HW141697   0.966   3.955   7.687  1.3982 -0.7267 -0.4297
11612SOL    HW241698   1.114   3.963   7.717  1.1208  2.3031  0.5132
11613SOL     OW41699   8.115   6.144   0.834 -0.0526  0.3842 -0.1040
11613SOL    HW141700   8.175   6.211   0.866 -2.1871  1.2322  2.5100
11613SOL    HW241701   8.116   6.077   0.903 -2.4520  0.7379  0.3858
11614SOL     OW41702   3.449  10.044  11.390 -0.3300  0.4896  0.4777
11614SOL    HW141703   3.452  10.046  11.294  0.7747  0.8172  0.5043
11614SOL    HW241704   3.409  10.128  11.414 -1.4453  0.0271  0.2928
11615SOL     OW41705   9.798   0.229   6.463  0.0910  0.6783 -0.1624
11615SOL    HW141706   9.716   0.224   6.512 -0.0783 -1.3151 -0.5449
11615SOL    HW241707   9.827   0.319   6.473 -0.9243  0.8228  1.9647
11616SOL     OW41708   8.977  10.200   5.413 -0.4239 -0.4246 -1.0809
11616SOL    HW141709   8.921  10.257   5.359  0.3159  0.8448 -0.5548
11616SOL    HW241710   9.066  10.226   5.390  0.1866 -4.1962 -3.8743
11617SOL     OW41711   2.647   7.238   1.172 -0.4262 -0.0039  0.2520
11617SOL    HW141712   2.630   7.297   1.099  0.4612 -1.2412 -1.0198
11617SOL    HW241713   2.560   7.211   1.202 -0.8122  1.2040  0.2428
11618SOL     OW41714   5.431   8.178   0.366  0.0231 -0.0974  0.5535
11618SOL    HW141715   5.390   8.228   0.436 -0.2015 -0.2671  0.5453
11618SOL    HW241716   5.525   8.193   0.376 -0.1189  1.7325 -0.5025
11619SOL     OW41717   8.334   9.215   2.258  0.4782  0.1016 -0.6141
11619SOL    HW141718   8.393   9.189   2.329 -0.1093  0.8600  0.1669
11619SOL    HW241719   8.392   9.226   2.182  1.2216  0.0172 -0.0767
11620SOL     OW41720   8.068  10.304   0.198 -0.4533  0.4102  0.0410
11620SOL    HW141721   7.998  10.329   0.259  0.5189 -0.1473  1.4623
11620SOL    HW241722   8.086  10.212   0.220  3.0109  1.4088  2.1912
11621SOL     OW41723  10.349   4.252   4.617 -0.3880 -0.3296  0.1612
11621SOL    HW141724  10.413   4.279   4.550 -0.3458  0.5455  0.5367
11621SOL    HW241725  10.344   4.157   4.608 -1.4042 -0.1484 -2.0192
11622SOL     OW41726   0.565   7.657   1.544  0.6662  0.2541 -0.2950
11622SOL    HW141727   0.654   7.663   1.510  0.9765  0.8161  0.5748
11622SOL    HW241728   0.571   7.595   1.617  0.1075 -0.5788 -0.9422
11623SOL     OW41729  11.607  10.486  10.628 -0.1243  0.2722  0.0211
11623SOL    HW141730  11.524  10.454  10.662 -0.0196 -0.9938 -0.8403
11623SOL    HW241731  11.668  10.413  10.639  0.3217  0.4060 -1.3194
11624SOL     OW41732   4.155   8.958   2.395 -0.1733 -0.2792 -0.6332
11624SOL    HW141733   4.077   8.914   2.362  2.1776 -4.0110 -1.9290
11624SOL    HW241734   4.173   8.915   2.479  1.1961 -0.5217 -1.0190
11625SOL     OW41735   5.196   1.974  12.290 -0.5692 -0.0084  0.4414
11625SOL    HW141736   5.261   2.004  12.227 -0.3873 -0.3801  0.4527
11625SOL    HW241737   5.148   2.053  12.313  1.1901  0.7143  1.9744
11626SOL     OW41738   6.789   8.609   5.744  0.0612 -0.4670  0.3657
11626SOL    HW141739   6.794   8.578   5.653 -0.1778 -0.6552  0.4148
11626SOL    HW241740   6.704   8.578   5.774  0.1850 -0.4928  0.6872
11627SOL     OW41741  10.830   8.306   2.126  0.1061 -0.2248 -0.0082
11627SOL    HW141742  10.741   8.270   2.136  0.4505 -1.3250 -0.6620
11627SOL    HW241743  10.821   8.368   2.054 -0.8100  2.2259  2.0854
11628SOL     OW41744  10.666   7.051   5.647 -0.1145  0.1099 -1.2973
11628SOL    HW141745  10.708   6.989   5.588  0.1576 -0.7371 -0.2457
11628SOL    HW241746  10.611   7.105   5.590  1.6808  0.6586 -2.5800
11629SOL     OW41747   2.584   8.867   2.137  0.1988 -0.0514  0.7829
11629SOL    HW141748   2.572   8.962   2.139  0.9329  0.0488  0.7769
11629SOL    HW241749   2.524   8.836   2.068  1.0816  0.5864 -0.2965
11630SOL     OW41750   9.813  12.159   9.715 -0.8530  0.1710 -0.0638
11630SOL    HW141751   9.893  12.183   9.668  0.3699  0.2490  1.9177
11630SOL    HW241752   9.749  12.226   9.690  0.2591  1.1746 -0.3333
11631SOL     OW41753   5.566   8.043   6.880  0.0338 -0.0731 -0.1889
11631SOL    HW141754   5.617   8.070   6.803 -1.0627 -1.3058 -1.3898
11631SOL    HW241755   5.573   7.948   6.880 -1.4786 -0.1984  0.1753
11632SOL     OW41756   4.474   6.778   5.513 -0.0416 -0.3314  0.3696
11632SOL    HW141757   4.411   6.847   5.492  2.0367  1.1990 -1.2732
11632SOL    HW241758   4.432   6.697   5.483 -1.9210  0.3581  0.9868
11633SOL     OW41759   0.804  10.063   5.010  0.7320 -0.1863 -0.2644
11633SOL    HW141760   0.883  10.070   5.064 -0.6608  1.8091  1.6974
11633SOL    HW241761   0.778   9.972   5.018  1.1426 -0.1835  1.6880
11634SOL     OW41762   4.987   3.338   0.846 -0.3827  0.3459 -0.6618
11634SOL    HW141763   4.934   3.399   0.897 -0.0063  0.8636 -0.8928
11634SOL    HW241764   5.046   3.299   0.910  1.5298  2.5063 -0.9761
11635SOL     OW41765   7.491  10.159   3.560 -0.0444 -0.1156  0.3963
11635SOL    HW141766   7.501  10.166   3.466 -1.7821  1.3520  0.2636
11635SOL    HW241767   7.490  10.249   3.592  0.0067 -0.5603  1.7438
11636SOL     OW41768  12.152   0.275  10.311  0.1785 -0.4402 -0.2669
11636SOL    HW141769  12.125   0.210  10.376 -0.1321 -1.0274 -0.9608
11636SOL    HW241770  12.247   0.270  10.310  0.1570 -0.9395 -0.3508
11637SOL     OW41771   6.165   5.445   1.686 -0.0949  0.2162  0.5137
11637SOL    HW141772   6.143   5.361   1.725  0.9318 -0.2647  0.0799
11637SOL    HW241773   6.251   5.432   1.645 -0.4591  1.1334 -0.6008
11638SOL     OW41774  11.065   1.367   6.605  1.1836 -0.5535  0.0289
11638SOL    HW141775  11.017   1.416   6.538  2.2617  0.6830  0.1095
11638SOL    HW241776  11.052   1.275   6.582  0.1486 -0.1970 -0.8869
11639SOL     OW41777  10.165   5.407   3.562 -0.1500 -0.2637 -0.0886
11639SOL    HW141778  10.239   5.348   3.577  1.1291  1.3042  0.0725
11639SOL    HW241779  10.129   5.380   3.478 -0.6725 -2.3120  0.7392
11640SOL     OW41780   2.892   0.868   3.489  0.1969  0.2115  0.3146
11640SOL    HW141781   2.896   0.905   3.401 -1.2500  0.4094  0.2968
11640SOL    HW241782   2.961   0.802   3.491 -1.6703 -2.0545 -2.0812
11641SOL     OW41783   9.248  10.653   5.725 -0.3640 -0.2542 -0.6312
11641SOL    HW141784   9.295  10.643   5.808 -0.7080  0.2403 -0.3702
11641SOL    HW241785   9.315  10.681   5.662 -0.3283  0.6172 -0.2240
11642SOL     OW41786   3.568  11.220   1.438  0.0714 -0.3335  0.3399
11642SOL    HW141787   3.515  11.204   1.359  1.1709 -1.4862 -0.2127
11642SOL    HW241788   3.509  11.200   1.511 -0.6004 -0.4667 -0.2300
11643SOL     OW41789  11.673   7.187   8.960 -0.3433 -0.0827 -0.6843
11643SOL    HW141790  11.716   7.111   9.000  1.2579  0.3383 -1.5501
11643SOL    HW241791  11.622   7.225   9.032  0.9848 -0.4233  0.4932
11644SOL     OW41792   0.724   3.379   3.261  0.3484  0.3397 -0.3149
11644SOL    HW141793   0.718   3.457   3.315 -1.9442 -1.1497  1.8282
11644SOL    HW241794   0.818   3.361   3.254  0.8059  1.5251  1.8786
11645SOL     OW41795   3.806  10.990   5.685  0.0479 -0.3966 -0.1477
11645SOL    HW141796   3.878  11.006   5.745 -0.5236  2.4988 -0.1099
11645SOL    HW241797   3.846  10.997   5.598 -0.1744  1.4469 -0.1312
11646SOL     OW41798   5.126   6.981   3.006 -0.4578 -0.0608  0.7299
11646SOL    HW141799   5.062   6.977   2.935  2.2423 -1.0236 -1.8531
11646SOL    HW241800   5.164   6.893   3.009  1.0428  0.5908  1.8607
11647SOL     OW41801   0.246   6.108   3.638  0.7596 -0.7490  0.0208
11647SOL    HW141802   0.174   6.154   3.681  1.1385  2.1475 -2.1542
11647SOL    HW241803   0.214   6.019   3.625 -1.9832  0.1466  0.0980
11648SOL     OW41804  10.567   0.234   9.382 -0.6384  0.5606  0.6835
11648SOL    HW141805  10.503   0.192   9.439 -0.8492 -0.6985 -0.4431
11648SOL    HW241806  10.647   0.183   9.394 -0.8085  0.0090 -0.4693
11649SOL     OW41807  11.386   4.089  10.201  0.4147 -0.5428  0.0940
11649SOL    HW141808  11.343   4.050  10.277  0.7269  1.5173  1.3866
11649SOL    HW241809  11.327   4.071  10.128  1.2715 -4.8406  0.1551
11650SOL     OW41810   2.191   3.041   3.841  0.3062 -0.0779  0.4984
11650SOL    HW141811   2.123   3.005   3.783 -0.4538  0.1290  1.2472
11650SOL    HW241812   2.271   2.994   3.815  0.1714  0.5938 -1.2742
11651SOL     OW41813   6.004  10.969   4.305 -0.0986  0.5142 -0.6682
11651SOL    HW141814   6.012  10.953   4.211  0.1256 -0.4603 -0.4967
11651SOL    HW241815   6.094  10.981   4.335  0.2645 -2.8790  0.0022
11652SOL     OW41816   5.400  11.609   0.162 -0.2338 -0.6066  0.1016
11652SOL    HW141817   5.344  11.650   0.228  0.0230 -1.8160  1.0891
11652SOL    HW241818   5.419  11.680   0.100 -1.9561  0.0906  0.3326
11653SOL     OW41819   2.516   6.580   4.500  0.6766  0.4822  0.6350
11653SOL    HW141820   2.481   6.571   4.411 -0.0784 -0.0460  0.9718
11653SOL    HW241821   2.449   6.630   4.547  0.5975 -0.1120  1.1661
11654SOL     OW41822   8.424  10.235   5.084 -0.1861 -0.3191 -0.0062
11654SOL    HW141823   8.417  10.163   5.021 -0.1022 -0.6322  0.3421
11654SOL    HW241824   8.470  10.304   5.036 -0.6560 -0.3305 -0.4845
11655SOL     OW41825   3.986   4.643   3.566  0.1146 -0.4016 -0.2712
11655SOL    HW141826   4.033   4.708   3.618 -3.4063  0.8710  1.6448
11655SOL    HW241827   4.018   4.655   3.477  2.8863  0.7031  0.7794
11656SOL     OW41828   9.956   8.116   3.026  0.1456 -0.4191  0.0140
11656SOL    HW141829   9.890   8.176   3.060  0.1129  0.0829 -0.8903
11656SOL    HW241830   9.915   8.078   2.948  1.1010  0.3045 -0.8696
11657SOL     OW41831  10.708   5.308   9.357 -0.0866 -0.1359  0.3910
11657SOL    HW141832  10.772   5.331   9.425  0.5547  0.6522 -0.4431
11657SOL    HW241833  10.658   5.389   9.344  1.1694  0.3891 -1.5065
11658SOL     OW41834   6.341   5.288  11.175 -0.4619  0.0874  0.1791
11658SOL    HW141835   6.262   5.274  11.228 -0.7435  0.5039 -0.1280
11658SOL    HW241836   6.317   5.356  11.112 -0.0677 -0.2479 -0.3505
11659SOL     OW41837  10.642  11.142   4.048  0.0785  0.4520 -0.3931
11659SOL    HW141838  10.651  11.099   4.133 -0.1021 -0.0675 -0.6327
11659SOL    HW241839  10.727  11.183   4.033  0.5831 -0.6542 -0.6097
11660SOL     OW41840   9.715   9.532  11.494 -0.4072  0.0663  0.0339
11660SOL    HW141841   9.728   9.623  11.522  0.0048  0.1212 -0.3353
11660SOL    HW241842   9.755   9.527  11.408 -1.3952 -0.1873 -0.4186
11661SOL     OW41843   0.741   7.287   9.907 -0.2314  0.4632 -0.7589
11661SOL    HW141844   0.835   7.270   9.902  0.0505  1.5133  0.4617
11661SOL    HW241845   0.726   7.317   9.996 -1.4835  1.7059 -1.3336
11662SOL     OW41846  12.301   5.359  11.088  0.4764 -0.2082 -0.1929
11662SOL    HW141847  12.234   5.308  11.133  1.2724  0.1085  1.4454
11662SOL    HW241848  12.332   5.421  11.155  0.8459  1.1424 -1.5721
11663SOL     OW41849   5.706   6.107   3.148  0.8740 -0.1936 -0.1967
11663SOL    HW141850   5.669   6.062   3.224  0.0126  0.0021 -0.4873
11663SOL    HW241851   5.664   6.064   3.073 -1.7680  2.5269 -0.4607
11664SOL     OW41852  11.824   3.312   3.751 -0.2373 -0.5936  0.3782
11664SOL    HW141853  11.902   3.261   3.773  1.7903  2.4162  0.7159
11664SOL    HW241854  11.755   3.275   3.806  1.4571 -1.9883  1.6798
11665SOL     OW41855   5.752   0.590   2.792  0.1285 -0.1864  0.3501
11665SOL    HW141856   5.806   0.587   2.871  0.1736  1.4709  0.4180
11665SOL    HW241857   5.806   0.636   2.728 -0.8922  0.8054  0.1736
11666SOL     OW41858   0.225   4.881   4.387 -0.2862  0.0684 -0.5065
11666SOL    HW141859   0.152   4.884   4.450  1.1421 -2.1774  1.4593
11666SOL    HW241860   0.303   4.887   4.441  1.0404 -2.4757 -1.9561
11667SOL     OW41861   3.517   1.085  11.311 -0.6047  0.1618  0.5776
11667SOL    HW141862   3.502   1.135  11.391  1.1813  0.1069  1.0020
11667SOL    HW241863   3.575   1.140  11.259  0.1719 -0.8043  0.3821
11668SOL     OW41864  12.331   0.216  12.179  0.4012  0.4106 -0.5483
11668SOL    HW141865  12.397   0.171  12.126 -0.4576 -0.7485 -0.6871
11668SOL    HW241866  12.331   0.306  12.146  0.9936  0.1038 -1.4350
11669SOL     OW41867   2.428   3.177   1.074  0.2881 -0.1452 -0.6006
11669SOL    HW141868   2.416   3.112   1.006  1.0965  1.5268 -2.4506
11669SOL    HW241869   2.479   3.132   1.142 -1.2116 -2.0783 -0.6807
11670SOL     OW41870   7.513  10.663   5.055 -0.0114 -0.4272 -0.6713
11670SOL    HW141871   7.466  10.592   5.099 -0.1393 -0.7423 -1.3069
11670SOL    HW241872   7.550  10.622   4.977 -0.7291  0.3764 -1.4566
11671SOL     OW41873   2.114  10.727   3.684  0.0716 -0.2342 -0.5152
11671SOL    HW141874   2.069  10.714   3.600 -0.4272  0.6503 -0.3967
11671SOL    HW241875   2.136  10.820   3.685 -0.3566 -0.1283  0.5348
11672SOL     OW41876  11.338   2.209   4.299  0.5379  0.0536  0.5394
11672SOL    HW141877  11.417   2.261   4.286  0.5931  0.1778  1.2819
11672SOL    HW241878  11.368   2.129   4.342  0.6768 -1.4062 -2.0886
11673SOL     OW41879   6.051   1.494  11.969  0.1362  0.6663  0.4116
11673SOL    HW141880   5.997   1.490  11.890 -1.0267 -0.3397  1.2265
11673SOL    HW241881   6.066   1.588  11.982 -0.7738  0.9240 -0.2711
11674SOL     OW41882   3.152   2.811  11.227  0.1618  0.4272  0.3431
11674SOL    HW141883   3.239   2.780  11.204  0.1756 -0.0056  0.9194
11674SOL    HW241884   3.110   2.734  11.266 -0.7846  0.3825 -0.7306
11675SOL     OW41885   6.440  12.464   9.920  0.2597  0.4252 -0.0834
11675SOL    HW141886   6.463  12.372   9.912  0.4446  0.3301  1.2744
11675SOL    HW241887   6.409  12.489   9.833 -2.5420 -1.6803  0.1736
11676SOL     OW41888   7.455   4.052   8.022  0.0939 -0.3273 -0.4160
11676SOL    HW141889   7.524   4.119   8.013  0.9182 -1.3009 -1.5954
11676SOL    HW241890   7.463   4.023   8.113  0.4986  0.3507 -0.2225
11677SOL     OW41891   6.569  12.299   2.143 -0.3525  0.2383  0.3113
11677SOL    HW141892   6.593  12.350   2.065 -0.2424  2.4533  1.7052
11677SOL    HW241893   6.489  12.341   2.174 -1.2672 -1.6175  0.5471
11678SOL     OW41894  11.430   5.356  11.275 -0.1109  0.0269  0.1144
11678SOL    HW141895  11.415   5.262  11.284 -0.6810  0.0173 -0.8577
11678SOL    HW241896  11.514   5.362  11.229  0.3044  0.0185  0.8473
11679SOL     OW41897   8.935   5.658   2.319  0.0684 -0.0801 -0.0834
11679SOL    HW141898   8.873   5.727   2.344  0.7996  0.4553  0.3175
11679SOL    HW241899   8.911   5.635   2.229  0.9809  2.0452 -0.9303
11680SOL     OW41900  10.980   1.905   7.384 -0.2846 -0.7761  0.2903
11680SOL    HW141901  10.974   1.994   7.349  2.7009 -1.0751 -1.3217
11680SOL    HW241902  10.973   1.917   7.479 -1.0740  0.9972  0.0668
11681SOL     OW41903   5.144   8.362  10.975 -0.1989 -0.3761 -0.7719
11681SOL    HW141904   5.201   8.435  10.996 -1.0777  0.1693 -0.2303
11681SOL    HW241905   5.068   8.402  10.933  0.0410 -1.1380 -1.9809
11682SOL     OW41906   4.675   5.051   0.887 -0.2045 -0.0676  0.3675
11682SOL    HW141907   4.625   5.133   0.888 -1.2208 -0.6424 -0.2501
11682SOL    HW241908   4.611   4.986   0.856  0.7147 -0.9944  0.3888
11683SOL     OW41909   4.097   5.543   6.928  0.3032 -0.0586  0.5429
11683SOL    HW141910   4.108   5.448   6.939  0.6584 -0.1113 -0.1770
11683SOL    HW241911   4.160   5.566   6.860 -0.3292  0.5606  0.1589
11684SOL     OW41912  11.038  11.874   2.604  0.7615 -0.1558 -0.4537
11684SOL    HW141913  11.013  11.906   2.691 -1.4614  1.7243 -1.6749
11684SOL    HW241914  11.126  11.908   2.590  0.1817  1.7007  0.1290
11685SOL     OW41915  11.975   6.166   9.337  0.0632 -0.0483  0.5224
11685SOL    HW141916  12.062   6.195   9.364  0.5546 -0.2426 -0.7913
11685SOL    HW241917  11.919   6.244   9.345  0.1802 -0.0984  2.0423
11686SOL     OW41918   4.213   8.514   3.531  0.1709  0.1003 -0.1284
11686SOL    HW141919   4.142   8.530   3.593  1.1670 -0.3371  1.1654
11686SOL    HW241920   4.169   8.508   3.446 -1.2972  0.1765  0.5874
11687SOL     OW41921  12.199   8.895   8.990  0.8160  0.0937 -0.1353
11687SOL    HW141922  12.153   8.954   8.929  1.4083  2.0106  1.1895
11687SOL    HW241923  12.151   8.905   9.072 -0.3461 -2.9198 -0.3216
11688SOL     OW41924   4.404   6.215  11.122  0.3530  0.3146 -0.5542
11688SOL    HW141925   4.333   6.279  11.113 -1.0387 -1.3153 -1.5894
11688SOL    HW241926   4.468   6.242  11.056  0.4048  1.3503 -0.1165
11689SOL     OW41927   9.797   4.015  10.064  0.5484  0.1550 -0.5231
11689SOL    HW141928   9.723   3.957  10.049 -0.3557  0.7382  1.3815
11689SOL    HW241929   9.831   3.989  10.150 -0.6372  3.1062  0.9913
11690SOL     OW41930   0.891   4.102   5.906  0.5872  0.0412 -0.0832
11690SOL    HW141931   0.970   4.148   5.878 -0.3291  0.4775 -2.1332
11690SOL    HW241932   0.849   4.075   5.824 -2.4120  1.5917  0.7975
11691SOL     OW41933   1.812   5.655   3.542  0.4615  0.3363 -0.1086
11691SOL    HW141934   1.806   5.650   3.637  1.7409  0.0265 -0.0264
11691SOL    HW241935   1.862   5.735   3.525  0.4221  0.2796 -0.5131
11692SOL     OW41936   8.290  12.227   3.396 -0.2587  0.5699  0.1262
11692SOL    HW141937   8.368  12.252   3.346 -1.2192  0.5661 -1.4507
11692SOL    HW241938   8.314  12.146   3.440  0.2507 -0.1436 -1.3906
11693SOL     OW41939   4.292   7.314   2.539 -0.1534 -0.4552 -0.9966
11693SOL    HW141940   4.216   7.285   2.589 -0.5970  0.1917 -1.2801
11693SOL    HW241941   4.274   7.284   2.450 -1.3058  1.8003 -1.6159
11694SOL     OW41942   5.612   1.930  10.047  0.4434  0.0439 -0.2122
11694SOL    HW141943   5.605   1.852  10.102 -0.2089 -0.3819 -0.8780
11694SOL    HW241944   5.522   1.949  10.021  0.8282 -0.3604 -1.9482
11695SOL     OW41945   7.306   0.778   8.273  0.5627 -0.9897  0.5705
11695SOL    HW141946   7.317   0.737   8.187  1.0133 -0.1469  0.2160
11695SOL    HW241947   7.350   0.718   8.333  0.6464 -1.3554  0.1510
11696SOL     OW41948   9.354   4.319   9.203  0.2296 -0.4684  0.0779
11696SOL    HW141949   9.272   4.336   9.157  0.9291 -0.5518 -1.2386
11696SOL    HW241950   9.328   4.292   9.291 -1.1083  1.1088  0.2046
11697SOL     OW41951  10.332   3.239   6.641  0.6420  0.4836 -0.5386
11697SOL    HW141952  10.400   3.220   6.576  0.3174  0.8852 -1.0050
11697SOL    HW241953  10.261   3.179   6.620  0.2396  1.1127 -1.0345
11698SOL     OW41954   2.961   0.363   0.187  0.2331  0.5738  0.0756
11698SOL    HW141955   2.914   0.438   0.223 -1.6606 -0.0116 -1.0169
11698SOL    HW241956   2.941   0.364   0.094  2.8015  0.5104 -0.5383
11699SOL     OW41957   5.682   4.723   6.606 -0.3030 -0.4102 -0.2283
11699SOL    HW141958   5.678   4.759   6.518 -1.0865  0.0118 -0.0249
11699SOL    HW241959   5.703   4.630   6.593 -1.5404 -0.6097 -0.9127
11700SOL     OW41960   1.290  12.257  10.703  0.5079  0.2510 -0.2882
11700SOL    HW141961   1.355  12.229  10.637 -1.3315  1.1230 -2.6086
11700SOL    HW241962   1.310  12.349  10.718  1.4164 -0.1350  1.0649
11701SOL     OW41963   8.074  10.909   7.029  0.6347 -0.1921  0.0386
11701SOL    HW141964   8.021  10.885   6.954  1.3387 -1.9135  0.0405
11701SOL    HW241965   8.029  10.870   7.104  1.1068 -0.3848  0.2253
11702SOL     OW41966  11.106   4.498   4.342  0.3025  0.4464 -0.6349
11702SOL    HW141967  11.130   4.525   4.431  1.1585 -0.0262 -0.7145
11702SOL    HW241968  11.038   4.432   4.355  2.4507 -1.8047 -0.1602
11703SOL     OW41969   2.913   6.041   5.480 -0.9341  0.1665 -0.1393
11703SOL    HW141970   2.853   6.107   5.513  0.0297  1.4179 -0.8043
11703SOL    HW241971   2.995   6.088   5.467 -0.3660 -1.0551 -1.1268
11704SOL     OW41972   6.053  10.945   4.024 -0.1560 -0.9305 -0.4745
11704SOL    HW141973   6.068  11.039   4.021  2.8219 -1.1272  2.4520
11704SOL    HW241974   5.966  10.933   3.987  0.0336  2.7289 -2.5334
11705SOL     OW41975  10.442   1.153  10.180  0.2848  0.1774 -0.0368
11705SOL    HW141976  10.401   1.142  10.094  1.7860 -0.7232 -0.6763
11705SOL    HW241977  10.524   1.199  10.162  0.9858 -0.7039  0.8054
11706SOL     OW41978  10.196   4.611   6.927  0.2257  0.4091  0.3419
11706SOL    HW141979  10.268   4.555   6.898 -1.4722 -1.8585  0.3388
11706SOL    HW241980  10.154   4.640   6.846  0.1266  0.3894  0.3869
11707SOL     OW41981   7.168  11.749  10.393 -0.4125 -1.3449  0.1067
11707SOL    HW141982   7.077  11.722  10.382 -0.6947  0.4021 -2.6331
11707SOL    HW241983   7.219  11.682  10.348 -0.6587 -0.5800 -1.3720
11708SOL     OW41984   3.508   9.166   3.213  0.2422  0.5100  0.1203
11708SOL    HW141985   3.457   9.193   3.290 -0.7105  1.4649 -0.8195
11708SOL    HW241986   3.513   9.244   3.159  1.6938  0.0880 -0.3763
11709SOL     OW41987  10.858   5.992   7.090 -0.0796 -0.0251  0.3329
11709SOL    HW141988  10.780   6.031   7.051  1.1807  1.5366 -0.7416
11709SOL    HW241989  10.827   5.910   7.128 -1.7629 -0.7003 -2.2775
11710SOL     OW41990   5.146  11.586   6.792 -0.3328  0.1991 -0.1978
11710SOL    HW141991   5.181  11.580   6.881 -1.0558  3.1664  0.3800
11710SOL    HW241992   5.073  11.524   6.792 -0.3685  0.1931  1.2947
11711SOL     OW41993   9.071   0.843   3.713 -0.2517 -0.2308  0.1982
11711SOL    HW141994   8.992   0.832   3.659 -0.3191 -0.2084  0.2917
11711SOL    HW241995   9.116   0.918   3.675  0.4161 -1.0542 -0.7074
11712SOL     OW41996   4.770   7.869  12.301 -0.2805 -0.0835  0.3738
11712SOL    HW141997   4.735   7.834  12.219 -0.3232 -1.0276  0.7841
11712SOL    HW241998   4.808   7.794  12.346 -0.1710  0.4334  1.1851
11713SOL     OW41999   0.335   4.142  10.742 -0.2329 -0.5282 -0.5707
11713SOL    HW142000   0.325   4.181  10.656 -1.0544 -0.3638 -0.4005
11713SOL    HW242001   0.384   4.061  10.726 -0.2376 -0.4160 -1.1633
11714SOL     OW42002  11.016   5.508   8.072 -0.1814 -0.6319 -0.0980
11714SOL    HW142003  11.111   5.501   8.083  0.0216 -0.2625 -1.4889
11714SOL    HW242004  11.000   5.485   7.981 -1.4418 -0.6812  0.1109
11715SOL     OW42005  10.237   1.467   2.234 -0.2153  0.0087  0.0088
11715SOL    HW142006  10.243   1.520   2.313 -0.3601 -0.7963  0.5754
11715SOL    HW242007  10.328   1.461   2.203  0.4512 -2.5431  2.0932
11716SOL     OW42008  10.194   1.447   3.369  0.2127 -0.2404  0.2551
11716SOL    HW142009  10.216   1.517   3.430 -0.0984  0.6176 -0.5877
11716SOL    HW242010  10.188   1.490   3.284 -0.7998 -1.1309 -0.1574
11717SOL     OW42011  10.708  10.589   2.989 -0.0998 -0.1660 -0.1625
11717SOL    HW142012  10.689  10.550   3.074 -0.4216  0.5195  0.0872
11717SOL    HW242013  10.739  10.677   3.009 -0.6995  0.1963 -0.7745
11718SOL     OW42014   3.191   7.211   2.762 -0.4556 -0.0914  0.0440
11718SOL    HW142015   3.230   7.171   2.684 -0.1773 -1.0608  0.6569
11718SOL    HW242016   3.240   7.293   2.774 -0.0169 -0.2850 -0.3977
11719SOL     OW42017  11.744   0.367   6.195  0.4542 -0.0635 -0.0275
11719SOL    HW142018  11.711   0.452   6.221  1.7681  0.7635 -0.9453
11719SOL    HW242019  11.778   0.380   6.107  0.5001 -1.5956 -0.2749
11720SOL     OW42020   3.275   8.272   1.312 -0.3502 -0.1237 -0.2792
11720SOL    HW142021   3.305   8.242   1.226 -1.3379  0.8843 -0.9911
11720SOL    HW242022   3.181   8.256   1.312 -0.4376  0.3367  0.4299
11721SOL     OW42023   3.029  11.941   1.184  0.1355 -0.3544  0.4364
11721SOL    HW142024   3.113  11.973   1.152  0.2562 -0.5712  0.5355
11721SOL    HW242025   3.006  11.869   1.125 -0.3918  0.2511 -0.1119
11722SOL     OW42026   3.539   7.793   9.114 -0.2058  0.4748  0.1921
11722SOL    HW142027   3.602   7.721   9.122 -2.6915 -1.8506  0.3130
11722SOL    HW242028   3.515   7.794   9.022  0.6565  2.0225 -0.0542
11723SOL     OW42029   3.465   4.851   4.249  0.2203 -0.4926 -0.1394
11723SOL    HW142030   3.507   4.797   4.315 -1.4120 -1.2403  0.3468
11723SOL    HW242031   3.517   4.839   4.170  2.1661  0.3657  0.9496
11724SOL     OW42032   5.145   1.029   9.631  0.4435  0.0787  0.5792
11724SOL    HW142033   5.203   1.047   9.704 -0.1689  0.1899  1.0421
11724SOL    HW242034   5.064   0.997   9.671  0.3273 -0.4769 -0.0728
11725SOL     OW42035   4.953   6.243   8.382  0.3543  0.1310  0.0190
11725SOL    HW142036   4.869   6.200   8.368  0.5520 -0.3524  0.2981
11725SOL    HW242037   4.931   6.321   8.434  0.1448 -0.2942  0.5808
11726SOL     OW42038   3.787  10.581   1.342  0.4228  0.5184  0.6096
11726SOL    HW142039   3.870  10.560   1.385  0.0896 -2.6965 -0.0558
11726SOL    HW242040   3.769  10.505   1.287 -2.3778  1.6606 -0.2175
11727SOL     OW42041  10.988   4.310   3.898 -1.0269 -0.0013 -0.2261
11727SOL    HW142042  10.956   4.253   3.968 -1.5783 -1.4526 -1.5942
11727SOL    HW242043  11.021   4.388   3.944  0.4097 -1.6653  1.8264
11728SOL     OW42044   2.995   1.637   0.986  0.7568 -0.3054 -0.2119
11728SOL    HW142045   3.045   1.645   0.905  0.5618  0.8990 -0.2225
11728SOL    HW242046   2.906   1.613   0.958  1.0767 -1.5254 -0.2425
11729SOL     OW42047  10.190   1.597   2.481  0.2340 -0.5503 -0.1405
11729SOL    HW142048  10.228   1.681   2.453 -0.3689  0.5266  2.0388
11729SOL    HW242049  10.106   1.593   2.436  0.3625 -0.0903 -0.4342
11730SOL     OW42050   8.877   9.489   2.736  0.0933  0.0180 -0.5510
11730SOL    HW142051   8.926   9.484   2.654  0.2365 -0.6073 -0.4367
11730SOL    HW242052   8.818   9.413   2.733 -1.3949  1.1561 -1.0144
11731SOL     OW42053   0.767   9.692   8.990 -0.3226 -0.0678 -0.2877
11731SOL    HW142054   0.699   9.683   9.057 -1.1938 -0.1568 -1.1763
11731SOL    HW242055   0.732   9.755   8.928 -0.4201 -1.5069 -1.7562
11732SOL     OW42056   3.455   9.065   1.265 -0.5224  0.4076  0.4781
11732SOL    HW142057   3.394   8.992   1.251  0.3112 -0.1687 -0.3091
11732SOL    HW242058   3.507   9.039   1.340  0.2135 -0.1360 -0.2016
11733SOL     OW42059  11.658   0.582   5.202  0.9548  0.3622  0.0332
11733SOL    HW142060  11.728   0.595   5.266 -0.2688  0.7434  1.3442
11733SOL    HW242061  11.628   0.493   5.218  0.2171  0.6779  0.4484
11734SOL     OW42062  11.039   6.366   5.979 -0.1084 -0.0128  0.1454
11734SOL    HW142063  10.958   6.316   5.988 -0.4496  0.1345 -1.7000
11734SOL    HW242064  11.104   6.317   6.029 -1.0850 -0.7285  0.7411
11735SOL     OW42065   6.813   3.825   6.773  0.1571  0.0207  0.0042
11735SOL    HW142066   6.847   3.913   6.792 -0.3928  0.0775  0.7761
11735SOL    HW242067   6.879   3.765   6.806  0.9384  0.1306 -1.2908
11736SOL     OW42068  10.822   0.437   1.464 -0.1250 -0.5334 -0.5074
11736SOL    HW142069  10.761   0.490   1.412  1.9843  0.6867 -1.9028
11736SOL    HW242070  10.809   0.467   1.554 -1.1204  0.1516 -0.8638
11737SOL     OW42071   6.720   4.008   6.259 -0.1439 -0.4814 -0.6594
11737SOL    HW142072   6.682   3.968   6.337 -0.8644 -1.0293 -1.2762
11737SOL    HW242073   6.815   3.993   6.268  0.0362  1.3394  1.1415
11738SOL     OW42074   4.163   4.039   9.893 -0.1252 -0.0340  0.0814
11738SOL    HW142075   4.121   4.125   9.900 -0.3285 -0.2314  1.7875
11738SOL    HW242076   4.255   4.058   9.880 -0.2575  0.4278 -0.2094
11739SOL     OW42077   4.298   7.379  10.263 -0.7426  0.2274 -0.1799
11739SOL    HW142078   4.215   7.364  10.309 -1.1548  2.2145 -0.2111
11739SOL    HW242079   4.273   7.394  10.172 -0.2766  0.1264 -0.3272
11740SOL     OW42080   8.018   4.605   4.234 -0.0178 -0.0445 -0.2803
11740SOL    HW142081   7.957   4.543   4.192 -0.6674  0.9653 -0.8555
11740SOL    HW242082   7.962   4.660   4.289  0.4407  0.5968 -0.4533
11741SOL     OW42083  10.303   3.075   7.609  0.4269 -0.6115 -0.1202
11741SOL    HW142084  10.391   3.035   7.611  0.6720 -0.0920 -0.3689
11741SOL    HW242085  10.285   3.089   7.516  0.3316 -0.1792 -0.0399
11742SOL     OW42086   0.461  10.826  12.265  0.0618  0.1985  0.2195
11742SOL    HW142087   0.531  10.768  12.234 -0.1959  0.4822 -0.9494
11742SOL    HW242088   0.389  10.810  12.204 -0.6636  0.3814  1.0220
11743SOL     OW42089   9.618   5.285   7.480  0.0735  0.2834  0.2621
11743SOL    HW142090   9.538   5.308   7.432  0.6785  2.9508  0.3865
11743SOL    HW242091   9.623   5.190   7.472 -2.9363  0.0230 -0.0038
11744SOL     OW42092  11.742  10.138   4.908 -0.7459 -0.1769 -0.1548
11744SOL    HW142093  11.714  10.101   4.992 -0.1070 -0.0980  0.0978
11744SOL    HW242094  11.837  10.143   4.915 -0.6490 -0.5704 -1.0540
11745SOL     OW42095   4.878   3.774   0.656  0.0482  0.5981 -0.1474
11745SOL    HW142096   4.917   3.695   0.619  1.2488  1.3623 -0.5871
11745SOL    HW242097   4.803   3.793   0.598 -1.0027 -0.8522  0.6680
11746SOL     OW42098  10.275   0.047   9.816  0.0584  0.1509  0.1527
11746SOL    HW142099  10.181   0.052   9.830  0.0936 -0.3371  0.5698
11746SOL    HW242100  10.302  -0.036   9.856  0.5260 -0.1466 -0.7605
11747SOL     OW42101   8.394   9.156   1.301 -0.2565  0.2837  0.1270
11747SOL    HW142102   8.354   9.209   1.370 -0.6693 -1.4357  1.2819
11747SOL    HW242103   8.323   9.139   1.239 -0.0393  1.3054 -0.4340
11748SOL     OW42104   3.770   7.255   6.034 -0.1197 -0.0607  0.0348
11748SOL    HW142105   3.682   7.227   6.060  0.6941 -0.3291  2.9055
11748SOL    HW242106   3.811   7.176   5.998 -0.2212 -0.6832  1.2287
11749SOL     OW42107  11.324   1.577   4.492 -0.6354  0.0148  0.3536
11749SOL    HW142108  11.362   1.530   4.418 -1.3092 -1.3621  0.8519
11749SOL    HW242109  11.398   1.622   4.533 -0.1771  0.3693 -0.8383
11750SOL     OW42110   5.434   6.144  10.416 -0.1112  0.4002  0.3298
11750SOL    HW142111   5.433   6.065  10.363 -0.4060 -0.0367  0.9694
11750SOL    HW242112   5.343   6.153  10.447 -0.4782  1.9017 -1.0545
11751SOL     OW42113  10.291   2.088   0.774  0.1257 -0.0854 -0.5457
11751SOL    HW142114  10.270   2.171   0.816 -1.1680 -0.9264  0.5579
11751SOL    HW242115  10.271   2.102   0.681  0.7403  1.0691 -0.5200
11752SOL     OW42116   1.949   3.030   9.955 -0.6153  0.1898 -0.5178
11752SOL    HW142117   1.926   3.123   9.963 -1.6091  0.1136 -2.2554
11752SOL    HW242118   1.866   2.984   9.958 -0.1522 -0.6479 -0.0380
11753SOL     OW42119   0.661  10.088  10.197  0.4037  0.8216  0.3585
11753SOL    HW142120   0.669   9.994  10.183 -1.1263  0.8526 -1.0679
11753SOL    HW242121   0.576  10.099  10.241  0.6123  1.5131  0.6025
11754SOL     OW42122   9.539   7.838  10.859  0.2529 -0.2032 -0.4668
11754SOL    HW142123   9.610   7.791  10.903 -0.1306  0.6796  1.1842
11754SOL    HW242124   9.577   7.866  10.776  1.1074 -1.6749 -0.5969
11755SOL     OW42125   5.212   0.294  10.690 -0.3580 -0.9878 -0.2919
11755SOL    HW142126   5.155   0.348  10.635 -0.9295 -1.7200 -0.4334
11755SOL    HW242127   5.154   0.259  10.757  0.6408  1.3072  1.9245
11756SOL     OW42128   4.154   4.835   1.443  0.3228 -0.2943 -0.2055
11756SOL    HW142129   4.097   4.789   1.382  1.0811 -0.0940 -1.0873
11756SOL    HW242130   4.157   4.925   1.410  1.6601 -0.4459 -0.5905
11757SOL     OW42131   4.814   2.291   7.807 -0.1634  0.4353 -0.3555
11757SOL    HW142132   4.806   2.374   7.853  0.5497 -0.2656  1.0938
11757SOL    HW242133   4.860   2.234   7.868 -1.6308 -1.3823 -0.8558
11758SOL     OW42134   7.734   2.128   3.063 -0.2258 -0.0113 -0.3574
11758SOL    HW142135   7.687   2.195   3.014 -0.3197 -0.1772 -0.4982
11758SOL    HW242136   7.810   2.107   3.009 -0.2035 -0.0263 -0.3199
11759SOL     OW42137   7.149   8.586   1.851 -0.1190 -0.0566 -0.1164
11759SOL    HW142138   7.212   8.654   1.872  1.1274 -1.4182  0.7628
11759SOL    HW242139   7.202   8.507   1.837 -1.4064 -0.6231 -2.3030
11760SOL     OW42140   6.610   5.449   6.945 -0.1434  0.7664 -0.0292
11760SOL    HW142141   6.515   5.442   6.943 -0.0677 -0.5453 -0.2729
11760SOL    HW242142   6.632   5.454   7.038 -0.3539 -1.0411  0.1449
11761SOL     OW42143   4.556   1.663  11.962 -0.8982 -0.1505 -0.3007
11761SOL    HW142144   4.552   1.631  11.873  0.4325  1.3679 -0.9604
11761SOL    HW242145   4.501   1.741  11.962  0.2852  0.7144 -0.2274
11762SOL     OW42146   5.121   2.741   6.691  0.3109 -0.5016 -0.8445
11762SOL    HW142147   5.060   2.807   6.659 -0.4749 -0.7210  0.1508
11762SOL    HW242148   5.181   2.790   6.748 -0.9431 -0.7514  0.7960
11763SOL     OW42149   3.347   9.914   1.815  0.1105  0.2457  0.4312
11763SOL    HW142150   3.348   9.835   1.761 -0.2795  0.7491 -0.3173
11763SOL    HW242151   3.279   9.898   1.881  0.5521 -0.3446  0.7508
11764SOL     OW42152   5.923   0.145   2.131  0.2686 -0.5834  0.0769
11764SOL    HW142153   5.847   0.156   2.074  0.3591 -2.4230 -0.4805
11764SOL    HW242154   5.998   0.156   2.073  0.4498  0.8647  0.5531
11765SOL     OW42155   5.014   1.418   7.211  0.6819 -0.3543  0.0252
11765SOL    HW142156   5.024   1.414   7.306  0.2249 -2.8289  0.0248
11765SOL    HW242157   5.076   1.486   7.183  1.5883 -0.3185  1.9864
11766SOL     OW42158   0.709   4.329  11.593 -0.1092  0.0500  0.3796
11766SOL    HW142159   0.788   4.289  11.556 -1.1557 -1.0677 -0.7508
11766SOL    HW242160   0.660   4.257  11.632 -0.8383  0.6318  0.5809
11767SOL     OW42161   8.070   6.727   9.999  0.4474  0.7161 -0.2504
11767SOL    HW142162   8.109   6.767  10.077 -1.5223  3.2539 -0.4785
11767SOL    HW242163   7.983   6.699  10.027  0.5315 -0.4000 -1.0203
11768SOL     OW42164  11.131   2.552   0.551  0.4170 -0.0147 -0.7197
11768SOL    HW142165  11.194   2.479   0.548 -0.3459 -0.6662 -1.3291
11768SOL    HW242166  11.105   2.557   0.643  2.9272  1.6704  0.0088
11769SOL     OW42167   8.223   0.565  11.224  0.1835 -0.5979 -0.1632
11769SOL    HW142168   8.169   0.644  11.220 -0.2478 -0.8976 -0.3374
11769SOL    HW242169   8.284   0.581  11.296  1.8048  0.9590 -1.7699
11770SOL     OW42170  10.240  11.156   3.888  0.3063  0.5980  0.2378
11770SOL    HW142171  10.196  11.071   3.888  0.9666  0.2483  0.2839
11770SOL    HW242172  10.268  11.168   3.979 -1.2778  1.6760  0.6423
11771SOL     OW42173  11.105   5.765   1.526 -0.0235  0.4547  0.8516
11771SOL    HW142174  11.179   5.812   1.564  0.8940  0.0320 -0.3451
11771SOL    HW242175  11.103   5.794   1.435 -1.5416  0.6853  0.9406
11772SOL     OW42176   7.637   8.305   7.718 -0.2074 -0.1593  0.4817
11772SOL    HW142177   7.643   8.370   7.787  2.2265  1.5928 -1.1826
11772SOL    HW242178   7.665   8.223   7.759 -0.2719  0.4968  1.8871
11773SOL     OW42179  10.814   2.985   5.693  0.4262  0.1432  0.1873
11773SOL    HW142180  10.862   3.010   5.772  0.3107  0.7408  0.0701
11773SOL    HW242181  10.881   2.948   5.635  0.3787 -1.0592  0.8723
11774SOL     OW42182   7.994   9.317  10.947 -0.1289 -0.3964 -0.5503
11774SOL    HW142183   8.021   9.338  11.037 -0.4174  0.5980 -0.6843
11774SOL    HW242184   8.069   9.270  10.910 -0.2451 -1.3648  0.3945
11775SOL     OW42185   8.887   1.247   7.727  0.0493  0.0093 -0.1197
11775SOL    HW142186   8.928   1.174   7.681 -1.1929  0.4208 -2.0192
11775SOL    HW242187   8.873   1.216   7.816 -0.1137 -1.9187 -0.7911
11776SOL     OW42188   7.176   5.336   0.532  0.0252 -0.1696  0.5258
11776SOL    HW142189   7.112   5.377   0.591  0.8633  1.5193  0.3127
11776SOL    HW242190   7.128   5.325   0.450  0.0191  1.2200  0.3229
11777SOL     OW42191   1.004   6.270  11.230 -0.5108  0.3859 -0.3197
11777SOL    HW142192   0.924   6.322  11.240 -1.1716 -0.8336  1.3164
11777SOL    HW242193   1.063   6.302  11.298 -0.2569  0.1653 -0.4316
11778SOL     OW42194   2.410   9.066   7.644 -0.1642  0.2293 -0.1500
11778SOL    HW142195   2.343   9.114   7.694  0.6098  0.4669  0.6956
11778SOL    HW242196   2.436   8.996   7.703 -0.8642 -0.8991 -1.1506
11779SOL     OW42197   9.724   6.098  10.172 -0.0677 -0.3089  0.1165
11779SOL    HW142198   9.729   6.188  10.204 -0.6740 -0.3674  0.3887
11779SOL    HW242199   9.640   6.094  10.126  0.2692 -0.5482 -0.4890
11780SOL     OW42200   4.081  10.658   6.851  0.4198 -0.1822 -0.0555
11780SOL    HW142201   4.037  10.695   6.775  0.3804  2.2762  1.0818
11780SOL    HW242202   4.080  10.563   6.835  0.4827  0.2203 -3.1200
11781SOL     OW42203  11.710   2.194   1.587  1.0531 -0.3477 -0.6416
11781SOL    HW142204  11.728   2.155   1.672 -0.2922 -0.3589 -0.3321
11781SOL    HW242205  11.795   2.196   1.542  1.6715 -0.8614  0.4742
11782SOL     OW42206   9.785  10.786   6.746 -0.3364 -0.0788 -0.5552
11782SOL    HW142207   9.766  10.877   6.726 -1.1132 -0.3147 -0.9237
11782SOL    HW242208   9.755  10.774   6.836  0.2288  0.1543 -0.3317
11783SOL     OW42209  10.584   9.121   2.749 -0.5833  0.5184 -0.1278
11783SOL    HW142210  10.600   9.142   2.657 -2.2069  0.7431 -0.3846
11783SOL    HW242211  10.618   9.196   2.797  3.1244 -0.8852 -0.2274
11784SOL     OW42212   9.505   9.622   6.843  0.5664 -0.1727  0.0943
11784SOL    HW142213   9.599   9.633   6.855  0.5002 -0.3264  0.8171
11784SOL    HW242214   9.476   9.577   6.922  0.1938 -1.9140 -0.9972
11785SOL     OW42215   5.855   3.777   7.932 -0.2036  0.4971 -0.1442
11785SOL    HW142216   5.872   3.698   7.984 -0.7755 -0.3554 -1.2174
11785SOL    HW242217   5.878   3.849   7.991 -3.5002 -0.2818  2.4383
11786SOL     OW42218   1.162  12.049   3.665 -0.2256  0.0221 -0.3445
11786SOL    HW142219   1.220  12.060   3.740  1.0703 -0.9680 -1.1617
11786SOL    HW242220   1.079  12.021   3.703  0.2020  0.1933  0.7519
11787SOL     OW42221   2.461   7.486  10.960  0.6483  0.3614 -0.0842
11787SOL    HW142222   2.394   7.418  10.948  1.1579 -0.1670  0.0360
11787SOL    HW242223   2.432   7.534  11.038  0.9551 -0.5282  0.5948
11788SOL     OW42224   8.263   9.349   3.651  0.0537 -0.0826 -0.5882
11788SOL    HW142225   8.262   9.321   3.742  2.3112 -1.3242 -0.8571
11788SOL    HW242226   8.265   9.445   3.655 -0.7180 -0.1002  0.6024
11789SOL     OW42227   5.084   0.135   6.728  0.3573  0.0210 -0.1354
11789SOL    HW142228   5.056   0.187   6.803 -0.7537 -0.9077  0.1366
11789SOL    HW242229   5.141   0.193   6.678 -0.1053  1.1713  0.6276
11790SOL     OW42230  11.895   2.586   7.765 -0.3275 -0.7144 -0.4422
11790SOL    HW142231  11.923   2.609   7.677  1.1620 -1.2756 -0.1440
11790SOL    HW242232  11.851   2.665   7.798  3.2573  1.3031  0.0178
11791SOL     OW42233   2.284   7.747   6.046  0.0194  0.0149 -0.3014
11791SOL    HW142234   2.373   7.778   6.031 -0.2319  0.0279 -1.9462
11791SOL    HW242235   2.239   7.760   5.963 -1.9733  1.4120  0.9032
11792SOL     OW42236   3.511   5.504  10.474 -0.3664  0.3278 -0.3103
11792SOL    HW142237   3.429   5.497  10.523  0.9888 -1.4659  1.8780
11792SOL    HW242238   3.572   5.548  10.534  1.4128 -2.1205 -0.1856
11793SOL     OW42239  10.668  10.993   0.307  0.5389 -0.2258  0.2834
11793SOL    HW142240  10.689  10.900   0.295  1.3006  0.0510 -0.6631
11793SOL    HW242241  10.704  11.015   0.393 -2.1018 -1.4551  1.8237
11794SOL     OW42242   2.589   8.980   0.433  0.4169 -0.0442  0.2886
11794SOL    HW142243   2.656   9.048   0.422 -1.0478  1.5591  0.8817
11794SOL    HW242244   2.567   8.982   0.526 -1.3909  0.4083 -0.1122
11795SOL     OW42245  11.147   6.713   4.073 -0.2350  0.2859 -0.2387
11795SOL    HW142246  11.231   6.710   4.119 -0.8471 -2.4795  0.8931
11795SOL    HW242247  11.170   6.713   3.980  1.0078  4.7617 -0.1793
11796SOL     OW42248   7.270   8.115   9.225 -0.3149 -0.2816  0.3537
11796SOL    HW142249   7.179   8.127   9.252 -1.1111 -0.8091 -1.8907
11796SOL    HW242250   7.283   8.021   9.223 -0.0091 -0.2294 -0.2660
11797SOL     OW42251  10.573  11.996   5.841 -0.1168  0.0132  0.6148
11797SOL    HW142252  10.514  11.970   5.912  0.8856 -1.6755  0.9084
11797SOL    HW242253  10.657  12.008   5.883  0.1047  0.8199 -0.0338
11798SOL     OW42254   1.615  10.322   7.802  0.5193 -0.3354 -0.3859
11798SOL    HW142255   1.603  10.358   7.714 -0.9595  0.6074  0.1699
11798SOL    HW242256   1.527  10.319   7.839  1.1165 -0.6758  1.0786
11799SOL     OW42257   4.196   3.348   2.492  0.3844  0.1102  0.0575
11799SOL    HW142258   4.290   3.329   2.489  0.6460  1.3773 -0.2180
11799SOL    HW242259   4.184   3.422   2.433 -0.5385  0.9377  1.2302
11800SOL     OW42260   8.839  10.489  11.833 -0.0075  0.1524 -0.6936
11800SOL    HW142261   8.771  10.489  11.765 -0.5765  1.8320 -0.1873
11800SOL    HW242262   8.791  10.473  11.915  0.2381  0.9145 -0.3882
11801SOL     OW42263   7.516   4.742   1.451 -0.3926 -0.1578  0.0443
11801SOL    HW142264   7.481   4.655   1.468 -0.9500  0.1849  0.6988
11801SOL    HW242265   7.489   4.761   1.361  0.6865 -1.0904 -0.5119
11802SOL     OW42266   2.797   9.470   0.227  0.1206 -0.1243  0.5586
11802SOL    HW142267   2.749   9.419   0.163 -0.9649  0.1673  1.1136
11802SOL    HW242268   2.738   9.543   0.249  1.1874  0.7648  0.5777
11803SOL     OW42269   6.801   6.476   2.867 -0.4212  0.3004  0.0104
11803SOL    HW142270   6.740   6.402   2.867  0.8148 -0.7586  0.1655
11803SOL    HW242271   6.837   6.478   2.779  0.0566  0.2691  0.1992
11804SOL     OW42272   9.999  11.900   6.115 -0.3167  0.0604  0.6149
11804SOL    HW142273  10.011  11.868   6.026  2.5074  1.1788  0.4910
11804SOL    HW242274  10.056  11.844   6.168 -0.3376  0.7452  1.3791
11805SOL     OW42275   1.609   7.010  10.850  0.4296  0.5041  0.0615
11805SOL    HW142276   1.661   7.084  10.882 -0.1945  1.4225 -0.9932
11805SOL    HW242277   1.524   7.022  10.892  0.3983  0.2367  0.0738
11806SOL     OW42278   6.031   7.390   4.568 -0.0111 -0.1260 -0.2757
11806SOL    HW142279   6.120   7.356   4.578  0.2744  0.8541  0.7205
11806SOL    HW242280   6.018   7.394   4.473  1.0389 -0.1982 -0.4334
11807SOL     OW42281  11.784   9.232   0.113 -0.0571  0.1824 -0.4251
11807SOL    HW142282  11.694   9.257   0.091 -0.9665  0.0051  2.7225
11807SOL    HW242283  11.814   9.299   0.174  2.1329  0.3977 -1.6317
11808SOL     OW42284   5.611   0.118  10.341 -0.0717 -0.3232  0.1573
11808SOL    HW142285   5.645   0.200  10.306 -2.0325  0.4158 -0.1719
11808SOL    HW242286   5.601   0.135  10.435 -0.1288 -0.3186  0.1501
11809SOL     OW42287   9.956   7.980  10.904 -0.1526 -0.0857  0.4803
11809SOL    HW142288   9.932   8.024  10.822  1.6027  1.2155  0.6104
11809SOL    HW242289   9.881   7.995  10.962 -1.0955 -0.3781 -0.6244
11810SOL     OW42290   5.018   1.130   4.181  0.0800 -0.5448 -0.5364
11810SOL    HW142291   5.055   1.161   4.099  2.0761 -0.6034  0.2825
11810SOL    HW242292   5.022   1.205   4.240 -1.6683 -0.3989 -0.5628
11811SOL     OW42293  10.697   0.514   6.052  0.6929 -0.5618  0.1771
11811SOL    HW142294  10.684   0.433   6.003 -0.4730 -1.0740  1.2899
11811SOL    HW242295  10.649   0.501   6.134  1.6951  0.6902  0.9997
11812SOL     OW42296   6.378   3.794   3.558 -0.2707  0.0775 -0.1899
11812SOL    HW142297   6.333   3.877   3.576  0.9404  0.8930 -0.7981
11812SOL    HW242298   6.314   3.742   3.510 -0.4831  1.3383 -1.3284
11813SOL     OW42299   9.366   1.836   4.224 -0.2713  0.8706  0.1350
11813SOL    HW142300   9.330   1.749   4.209  2.6396 -0.5846  0.7415
11813SOL    HW242301   9.328   1.864   4.307 -1.7313  0.4984 -0.3881
11814SOL     OW42302   6.046   7.732   2.725 -0.3223  0.1541  0.0353
11814SOL    HW142303   5.964   7.780   2.722 -0.0206  0.7839  1.1432
11814SOL    HW242304   6.094   7.761   2.648 -0.4287  1.1294  0.3194
11815SOL     OW42305   4.738   6.059  11.413 -0.2271 -0.0739  0.1445
11815SOL    HW142306   4.778   6.047  11.327  0.5237  0.7045  0.3676
11815SOL    HW242307   4.686   6.140  11.405  0.1010  0.1775  0.5053
11816SOL     OW42308   5.650   4.423   5.575  0.1282 -0.2193  0.0911
11816SOL    HW142309   5.595   4.398   5.649 -0.0103 -0.9839 -0.2604
11816SOL    HW242310   5.737   4.435   5.613  0.2107 -1.2950  0.2827
11817SOL     OW42311   2.376   2.023   0.989 -0.0573 -0.1002 -0.4831
11817SOL    HW142312   2.443   2.079   0.950 -0.5529  0.8374 -0.0353
11817SOL    HW242313   2.424   1.947   1.023  0.6970  0.2841 -0.6684
11818SOL     OW42314  11.814   3.988  11.427  0.0399  0.2527  0.0017
11818SOL    HW142315  11.905   3.998  11.402  0.4570  1.0688  1.7110
11818SOL    HW242316  11.814   3.913  11.487 -0.2700  0.7092  0.5868
11819SOL     OW42317   7.725  10.914   0.848  0.1184 -0.7570 -1.2370
11819SOL    HW142318   7.703  10.988   0.905  0.4657 -2.4828  1.3176
11819SOL    HW242319   7.774  10.953   0.776 -0.6635  1.6188 -0.5816
11820SOL     OW42320   2.723   8.408   8.073  0.3707  0.0180  0.4649
11820SOL    HW142321   2.707   8.501   8.053  1.4761  0.2796  0.6936
11820SOL    HW242322   2.709   8.363   7.989 -0.8630  0.2878  0.5143
11821SOL     OW42323  10.217   0.205   5.833 -0.3374  0.4629  0.5025
11821SOL    HW142324  10.290   0.143   5.843 -0.0288  0.9059  1.0614
11821SOL    HW242325  10.253   0.277   5.781 -0.6294  0.2925  0.0525
11822SOL     OW42326   0.051  11.733   4.544  0.5523  1.1460  0.2711
11822SOL    HW142327   0.080  11.824   4.549 -0.5303  1.4618  1.2543
11822SOL    HW242328  -0.001  11.729   4.464  2.3574  0.8149 -0.9651
11823SOL     OW42329  11.058   9.131  11.245  0.2613  0.0149  0.4941
11823SOL    HW142330  11.057   9.224  11.268  0.9818 -0.2381  1.6229
11823SOL    HW242331  10.978   9.119  11.193  0.5371  1.4056 -0.3242
11824SOL     OW42332  11.314  11.437  12.070 -0.0008  0.3322 -0.4621
11824SOL    HW142333  11.362  11.431  11.988 -1.0337 -2.0240 -1.0058
11824SOL    HW242334  11.232  11.481  12.047 -0.6064 -0.9698 -0.9311
11825SOL     OW42335   9.553  11.954  12.109 -0.3806 -0.3621 -0.5968
11825SOL    HW142336   9.578  12.017  12.177 -3.8253  0.5629  0.0371
11825SOL    HW242337   9.591  11.989  12.029 -1.0433  1.8271 -0.0371
11826SOL     OW42338   1.010   9.486   6.477  0.0623 -0.2110 -0.0474
11826SOL    HW142339   1.014   9.394   6.451  2.0656 -0.8148  2.0369
11826SOL    HW242340   1.086   9.527   6.436  0.8825 -0.2339  1.3590
11827SOL     OW42341   0.109  11.898   2.556 -0.3949  0.2526  0.3691
11827SOL    HW142342   0.158  11.973   2.588  2.3456 -1.6274  0.9788
11827SOL    HW242343   0.159  11.822   2.585 -3.5319 -1.9226  0.6894
11828SOL     OW42344   8.362  10.549   6.575 -1.0346  0.1908  0.5101
11828SOL    HW142345   8.435  10.508   6.529 -0.2451 -0.5995  2.3498
11828SOL    HW242346   8.333  10.620   6.518  0.4338 -0.2020 -0.7712
11829SOL     OW42347   5.265   6.477   4.601  0.0241 -0.4096  0.5737
11829SOL    HW142348   5.215   6.404   4.636  0.1124 -0.0253  1.5236
11829SOL    HW242349   5.261   6.544   4.669 -0.8806  0.8542 -0.6564
11830SOL     OW42350   7.426   6.438   8.320 -0.9647 -0.3860  0.1436
11830SOL    HW142351   7.369   6.459   8.247 -1.7887  0.4508  1.0101
11830SOL    HW242352   7.439   6.343   8.314 -0.0952 -0.1916 -1.7273
11831SOL     OW42353   6.940   7.467   3.470  0.1043 -0.7345 -0.3314
11831SOL    HW142354   6.984   7.527   3.410 -0.1583 -1.2001 -1.0082
11831SOL    HW242355   6.847   7.487   3.461 -0.1573 -2.4206 -1.9341
11832SOL     OW42356   4.973   2.863   7.796  0.2159 -0.0067 -0.0540
11832SOL    HW142357   4.890   2.822   7.772  0.4762 -1.4290  1.3405
11832SOL    HW242358   4.947   2.937   7.851 -0.2186  1.3997 -2.0312
11833SOL     OW42359   4.058   8.098  10.986 -0.1256  0.5383 -0.3262
11833SOL    HW142360   4.061   8.018  10.934  2.0866  0.9258 -0.8788
11833SOL    HW242361   4.139   8.145  10.964 -0.7682  2.3520  0.9021
11834SOL     OW42362   9.857   1.833   5.446 -0.0948 -0.0052 -0.0939
11834SOL    HW142363   9.790   1.846   5.379  0.6132  0.4563 -0.7285
11834SOL    HW242364   9.940   1.849   5.401  0.4382 -0.3969  0.7201
11835SOL     OW42365   9.782   9.425   4.424  0.0057  0.6559  0.0812
11835SOL    HW142366   9.699   9.449   4.381 -0.1831  0.9388  0.6026
11835SOL    HW242367   9.776   9.330   4.435  0.1002  0.5600 -0.6000
11836SOL     OW42368   4.648   9.604   8.140 -0.5466 -0.0932 -0.4763
11836SOL    HW142369   4.724   9.658   8.161 -1.6194  1.2709  0.0435
11836SOL    HW242370   4.661   9.523   8.190 -0.2337  0.7868  0.9271
11837SOL     OW42371  11.599  10.733   1.783  0.0143 -0.5270 -0.0814
11837SOL    HW142372  11.655  10.801   1.821 -0.3172  1.2310 -2.5167
11837SOL    HW242373  11.510  10.767   1.791 -0.6667 -2.5441  2.2315
11838SOL     OW42374  11.011   6.000   0.494 -0.1163 -0.4630  0.1771
11838SOL    HW142375  11.067   5.945   0.439  1.4600 -0.1664  1.4189
11838SOL    HW242376  11.063   6.017   0.572 -1.6124  0.5968  0.9965
11839SOL     OW42377   2.616   4.817   1.030 -0.7523 -0.4937  0.3061
11839SOL    HW142378   2.629   4.895   1.084 -1.0424 -1.7384  2.2918
11839SOL    HW242379   2.525   4.825   0.999  0.0753  1.3205 -1.9731
11840SOL     OW42380   7.700   7.041   4.391 -0.0656 -0.5391  0.6005
11840SOL    HW142381   7.748   7.116   4.428  1.7247 -0.6229 -1.3360
11840SOL    HW242382   7.714   7.049   4.296  0.2047 -3.3221  0.3330
11841SOL     OW42383  11.306   0.654   7.988  0.1807  0.1100 -0.4719
11841SOL    HW142384  11.370   0.626   7.923  1.1326  1.7627 -0.2876
11841SOL    HW242385  11.358   0.683   8.062 -0.6485  3.0649 -0.9348
11842SOL     OW42386   1.935  10.599   8.181 -0.2834 -0.3775  0.5308
11842SOL    HW142387   1.869  10.539   8.145 -1.0675 -0.0388  1.3579
11842SOL    HW242388   1.889  10.644   8.253  0.5547  0.5919  0.4696
11843SOL     OW42389   6.715   6.227   2.666 -0.1273  0.1983 -0.1622
11843SOL    HW142390   6.658   6.219   2.742 -0.4270  1.4334 -0.2353
11843SOL    HW242391   6.656   6.218   2.591  0.4217 -3.0233 -0.3576
11844SOL     OW42392   5.688   1.177   0.282 -0.0882  0.1042 -0.0712
11844SOL    HW142393   5.646   1.171   0.367 -1.2859  1.0189 -0.5658
11844SOL    HW242394   5.652   1.103   0.232  2.2134 -1.7412  0.8139
11845SOL     OW42395   0.244   5.697   6.874  0.4500  0.0270  0.3719
11845SOL    HW142396   0.280   5.614   6.844  1.4427  1.1615 -1.7757
11845SOL    HW242397   0.308   5.763   6.846 -2.0044  1.8779 -1.3038
11846SOL     OW42398   9.978  10.303   0.862  0.4544  0.2831  0.3391
11846SOL    HW142399   9.998  10.389   0.899  1.6607  0.4920 -0.7265
11846SOL    HW242400  10.026  10.241   0.918  0.0607  0.3407  0.7486
11847SOL     OW42401   2.647   2.896   9.910  0.6742 -0.0456 -0.6708
11847SOL    HW142402   2.572   2.838   9.893  0.5122 -0.5575  1.5136
11847SOL    HW242403   2.615   2.959   9.974  2.4263 -1.0401  1.2757
11848SOL     OW42404   5.096   7.949   1.174 -0.4230 -0.2611  0.3736
11848SOL    HW142405   5.147   7.950   1.255 -1.0865  1.4048  0.8233
11848SOL    HW242406   5.152   7.995   1.111 -0.9944  0.8633  0.6551
11849SOL     OW42407   3.914  12.084   2.402  0.5136 -0.2327 -0.4778
11849SOL    HW142408   3.957  12.142   2.465 -0.1663  0.3400 -0.5360
11849SOL    HW242409   3.839  12.048   2.450  1.1589 -1.4097 -0.3020
11850SOL     OW42410   4.480   1.975   8.337  0.0486  0.2278  0.1629
11850SOL    HW142411   4.494   2.021   8.255  0.8916  1.0080  0.7147
11850SOL    HW242412   4.520   2.032   8.403 -0.5971 -0.3862  1.1072
11851SOL     OW42413   5.281  10.900   5.368 -0.7188  0.2599  0.4342
11851SOL    HW142414   5.243  10.819   5.336  1.3194 -0.2623 -0.8228
11851SOL    HW242415   5.275  10.961   5.295  0.4836  0.2688  0.3183
11852SOL     OW42416   1.300   3.745   3.526 -0.3440 -0.3608 -0.3435
11852SOL    HW142417   1.304   3.688   3.603 -2.1609  0.1190  0.1402
11852SOL    HW242418   1.343   3.826   3.553 -1.6196  0.0798  0.4556
11853SOL     OW42419  11.745   9.811   5.822 -0.4036 -0.0613 -0.0518
11853SOL    HW142420  11.679   9.878   5.840  0.8909  1.2014  0.1244
11853SOL    HW242421  11.727   9.742   5.886 -0.3795  1.1125  1.2418
11854SOL     OW42422   8.207   4.509   0.645  0.0673 -0.0624  0.0892
11854SOL    HW142423   8.257   4.547   0.718  0.7944 -0.4621 -0.1932
11854SOL    HW242424   8.199   4.581   0.582 -0.1037  0.1311  0.3290
11855SOL     OW42425   9.820   4.012   4.866  0.0420 -0.1770  0.5395
11855SOL    HW142426   9.887   3.944   4.875 -0.0994 -0.4661 -0.4493
11855SOL    HW242427   9.821   4.058   4.949  2.0846  0.4143  0.2415
11856SOL     OW42428   7.402   4.649   6.242 -0.2133  0.7759  0.0188
11856SOL    HW142429   7.473   4.676   6.184  1.1489 -1.3979  0.5388
11856SOL    HW242430   7.423   4.689   6.327  0.7155 -0.2647  0.2999
11857SOL     OW42431  11.547   6.388   1.900 -0.4193  1.1330  0.3614
11857SOL    HW142432  11.485   6.324   1.865 -2.8724  1.6074  3.3609
11857SOL    HW242433  11.564   6.359   1.990 -1.1002  4.1843  1.6267
11858SOL     OW42434   0.431   5.327  11.952  0.2439  0.0541  0.0681
11858SOL    HW142435   0.384   5.312  12.034  0.8400  0.5033  0.4964
11858SOL    HW242436   0.371   5.296  11.884  0.4326 -2.0425  0.7598
11859SOL     OW42437   5.054   3.204   9.685  0.0920 -0.7984  0.5742
11859SOL    HW142438   5.078   3.293   9.710  0.8750 -0.5716 -0.8721
11859SOL    HW242439   5.073   3.151   9.763 -1.6145  0.4390  1.9160
11860SOL     OW42440   5.842   6.322   6.184  0.3292  0.4487 -1.1572
11860SOL    HW142441   5.768   6.342   6.127 -0.4598 -1.9661 -1.0789
11860SOL    HW242442   5.871   6.234   6.158 -0.3896 -1.0228  2.3524
11861SOL     OW42443   0.233   5.377   8.887 -0.5780 -0.7456  0.6556
11861SOL    HW142444   0.198   5.392   8.800 -1.8612 -0.3038  1.2285
11861SOL    HW242445   0.194   5.294   8.915  0.4020 -1.2604  0.5368
11862SOL     OW42446   8.494   0.507   3.117  0.0154  0.1764 -0.8742
11862SOL    HW142447   8.584   0.541   3.121 -0.2152  0.7408 -0.4861
11862SOL    HW242448   8.449   0.547   3.191 -0.6479  0.1405 -1.2480
11863SOL     OW42449   3.763   5.542   7.076 -0.1165 -0.2071  0.1355
11863SOL    HW142450   3.763   5.635   7.097 -0.6288 -0.2898  0.5203
11863SOL    HW242451   3.845   5.509   7.114  0.4250  0.2200 -0.6391
11864SOL     OW42452   9.915   8.250   9.673  0.2338  0.0587  0.2394
11864SOL    HW142453   9.929   8.344   9.672  2.0738 -0.1734 -0.4521
11864SOL    HW242454   9.965   8.218   9.748 -1.7132 -0.2388  1.4782
11865SOL     OW42455   3.047   0.511  12.220  0.4519 -0.1532  0.0754
11865SOL    HW142456   3.098   0.511  12.139  0.9199 -0.7980  0.3592
11865SOL    HW242457   3.113   0.513  12.290  0.0498  2.9070  0.4848
11866SOL     OW42458  10.676   4.373   7.916  0.2703  0.2195  0.1878
11866SOL    HW142459  10.763   4.402   7.941 -0.6646  2.5026  1.0100
11866SOL    HW242460  10.619   4.399   7.988 -1.1313 -1.1998 -0.3320
11867SOL     OW42461   0.475   2.679   4.390 -0.3067  0.5033 -0.6972
11867SOL    HW142462   0.563   2.716   4.384 -0.3639  1.0065  0.9539
11867SOL    HW242463   0.473   2.611   4.323  1.5371  0.0717 -0.3805
11868SOL     OW42464   8.087   7.209   0.284  0.2900  0.2289  0.2302
11868SOL    HW142465   8.010   7.160   0.311  0.9155 -0.0839  1.5564
11868SOL    HW242466   8.092   7.197   0.189 -0.7816 -0.4809  0.2522
11869SOL     OW42467  11.065  10.746   3.922  0.1020  0.4145  0.1932
11869SOL    HW142468  11.104  10.732   4.008  3.1389 -0.4690 -1.1819
11869SOL    HW242469  11.115  10.819   3.885 -2.8261  2.5211 -0.0061
11870SOL     OW42470   7.029  10.045   6.053 -0.4671 -0.2624 -0.3782
11870SOL    HW142471   7.003  10.095   6.129  0.5066  1.3840 -1.0648
11870SOL    HW242472   7.036   9.955   6.084 -0.7661  0.2641  1.2900
11871SOL     OW42473   3.742   4.833   3.495 -0.0552 -0.4624 -0.2056
11871SOL    HW142474   3.823   4.792   3.466  1.2071  0.3080  1.9462
11871SOL    HW242475   3.742   4.919   3.452  0.1318 -0.5739 -0.4306
11872SOL     OW42476   3.995   3.151   3.765 -0.6325 -0.1838  0.0694
11872SOL    HW142477   4.090   3.168   3.760  0.1147 -2.9778  2.1974
11872SOL    HW242478   3.959   3.228   3.808  1.2072 -0.2946  1.9913
11873SOL     OW42479   1.149   6.530   5.783  0.1539 -0.0363  0.0780
11873SOL    HW142480   1.130   6.595   5.852  1.5872  1.9666 -1.2839
11873SOL    HW242481   1.245   6.529   5.777  0.2113 -2.6354  0.2814
11874SOL     OW42482   0.508  10.441   5.135  0.2418 -0.4181 -0.1383
11874SOL    HW142483   0.537  10.517   5.084  1.3032 -0.6043  0.1561
11874SOL    HW242484   0.498  10.371   5.070 -3.4699  0.6040 -0.8695
11875SOL     OW42485  10.093   7.625   5.267 -0.5112  0.0679 -0.0609
11875SOL    HW142486  10.040   7.559   5.311 -1.6015  0.2737 -1.0211
11875SOL    HW242487  10.180   7.586   5.260 -0.8938 -0.8572  0.2617
11876SOL     OW42488   2.737   7.196  12.301  0.4991  0.0802  0.1295
11876SOL    HW142489   2.781   7.112  12.284 -2.0690 -1.0747 -1.4523
11876SOL    HW242490   2.662   7.173  12.356 -0.5795  1.1994 -0.8154
11877SOL     OW42491   5.206  10.577   8.773 -0.0420  0.5391  0.4539
11877SOL    HW142492   5.268  10.580   8.701 -0.5113 -1.8916 -0.1440
11877SOL    HW242493   5.259  10.586   8.852  0.6947  1.3359 -0.1143
11878SOL     OW42494   6.885   3.692   0.988 -0.2648  0.4543 -0.3369
11878SOL    HW142495   6.959   3.712   1.047  1.2122 -0.0900 -1.9275
11878SOL    HW242496   6.831   3.771   0.991 -1.2514 -0.1831  3.0786
11879SOL     OW42497   7.509   6.800   1.615  0.0638  0.1790 -0.1543
11879SOL    HW142498   7.562   6.771   1.541 -4.2562 -0.5635 -3.4183
11879SOL    HW242499   7.529   6.737   1.684  0.1778 -2.9600 -2.7654
11880SOL     OW42500  10.793   6.044   3.412  0.3922 -0.7814  0.1497
11880SOL    HW142501  10.881   6.010   3.430  0.4545 -0.6387  0.1234
11880SOL    HW242502  10.736   5.996   3.472  0.2558 -1.9980 -0.9306
11881SOL     OW42503   1.154   7.937   6.238 -0.6781 -0.1935 -0.3864
11881SOL    HW142504   1.219   7.886   6.191 -0.3381 -0.0038 -0.1252
11881SOL    HW242505   1.199   7.967   6.317 -1.2312 -0.4748  0.0400
11882SOL     OW42506   8.805  11.597   5.563  0.0978 -0.9726  0.0791
11882SOL    HW142507   8.775  11.519   5.517 -1.0443 -0.1472 -0.6290
11882SOL    HW242508   8.746  11.606   5.638  0.8468 -1.3254  0.7258
11883SOL     OW42509  10.491  10.597   9.128 -0.2291  0.7901  0.0651
11883SOL    HW142510  10.447  10.592   9.213 -0.3740  2.2558  0.1084
11883SOL    HW242511  10.584  10.598   9.149 -0.2335  0.2183  0.1334
11884SOL     OW42512   6.912   6.371   1.147  0.0025 -0.0148 -0.2227
11884SOL    HW142513   6.869   6.440   1.197 -0.3054 -0.3568 -0.0136
11884SOL    HW242514   7.003   6.400   1.139  0.6276 -0.9439  2.4018
11885SOL     OW42515   8.028  10.210   0.866  0.0006 -0.1287  0.0195
11885SOL    HW142516   8.074  10.126   0.865 -0.0356 -0.2180  1.9749
11885SOL    HW242517   8.043  10.245   0.954 -1.3132  1.1754 -0.2266
11886SOL     OW42518   9.432   4.321   2.332 -0.3676 -0.2078  0.7247
11886SOL    HW142519   9.517   4.314   2.288  1.0611  3.0142  2.6511
11886SOL    HW242520   9.454   4.324   2.425 -2.7607 -0.6044  1.3626
11887SOL     OW42521   3.615   8.111   6.921  0.6258 -0.7075 -0.3477
11887SOL    HW142522   3.530   8.154   6.916  1.0704  0.1870 -0.6187
11887SOL    HW242523   3.623   8.064   6.838  0.7847  0.0099 -0.7569
11888SOL     OW42524   5.457  11.083   0.352  0.5767  0.2512  0.2733
11888SOL    HW142525   5.409  11.016   0.305  0.3776  0.8089 -0.3375
11888SOL    HW242526   5.490  11.039   0.430  0.9672 -0.7030 -0.4122
11889SOL     OW42527   3.847   6.466   5.165 -0.2990 -0.3883  0.3871
11889SOL    HW142528   3.797   6.408   5.224 -2.7721  1.3909  0.1922
11889SOL    HW242529   3.789   6.478   5.089  0.8065  1.1096 -0.2594
11890SOL     OW42530   4.651   3.615  10.893 -0.9118 -0.4886  0.0789
11890SOL    HW142531   4.633   3.522  10.889 -0.4372 -0.5369 -3.2799
11890SOL    HW242532   4.570   3.657  10.862 -0.3336  0.0647 -0.7183
11891SOL     OW42533   7.629  10.317   5.882 -0.4970  0.6832 -0.0836
11891SOL    HW142534   7.724  10.305   5.876 -0.3138  0.3305  2.4583
11891SOL    HW242535   7.602  10.337   5.793  2.0008  1.0470 -0.8386
11892SOL     OW42536   5.098   6.316   4.048  0.4873  0.2054 -0.7954
11892SOL    HW142537   5.042   6.393   4.060  1.2302  0.4700  1.4702
11892SOL    HW242538   5.159   6.341   3.980  2.1595  2.5919  1.3925
11893SOL     OW42539   9.556  12.243  11.372  0.1895 -0.0939 -0.5763
11893SOL    HW142540   9.556  12.148  11.370 -1.4732 -0.1304 -0.4221
11893SOL    HW242541   9.464  12.267  11.389  0.4939  1.5322 -1.0208
11894SOL     OW42542   7.611   4.899   7.195  0.1149  0.3025  0.2347
11894SOL    HW142543   7.679   4.952   7.237 -1.8503  1.8933  1.6496
11894SOL    HW242544   7.577   4.955   7.125  1.1434 -1.0348 -1.3928
11895SOL     OW42545   4.614   0.086   2.806 -0.7099 -0.0480  0.2148
11895SOL    HW142546   4.583  -0.003   2.792 -0.8041 -0.1877  1.1839
11895SOL    HW242547   4.539   0.133   2.842 -0.7274  0.4899 -0.4963
11896SOL     OW42548  10.050   8.189   5.553 -0.2659  0.0903  0.0287
11896SOL    HW142549  10.065   8.222   5.464 -1.1358  0.3184 -0.0365
11896SOL    HW242550  10.135   8.202   5.597 -0.7647  3.4422  0.3110
11897SOL     OW42551   7.095   9.823   7.280  0.1595 -0.8481  0.3632
11897SOL    HW142552   7.160   9.778   7.334 -0.5826 -1.2748  0.9103
11897SOL    HW242553   7.011   9.783   7.304 -0.1861 -1.0432 -1.1099
11898SOL     OW42554   7.542   2.094   2.071 -0.5801 -0.3459  0.1528
11898SOL    HW142555   7.496   2.151   2.009  0.8810 -0.6658 -1.2815
11898SOL    HW242556   7.602   2.153   2.118  0.1443 -0.5160 -0.5537
11899SOL     OW42557   4.670   3.799   8.737 -0.4257  0.0135  0.1480
11899SOL    HW142558   4.628   3.766   8.657  0.7019 -0.4185 -0.2831
11899SOL    HW242559   4.599   3.807   8.800 -1.0118 -1.5687 -0.2763
11900SOL     OW42560   0.142   9.298   0.436 -0.0382  0.6786  0.3250
11900SOL    HW142561   0.052   9.266   0.449  0.6175 -1.7573 -0.4841
11900SOL    HW242562   0.183   9.291   0.522 -0.4009  0.9858  0.5224
11901SOL     OW42563   8.147  11.160  10.927 -0.4653  1.0183  0.3630
11901SOL    HW142564   8.160  11.089  10.864 -0.0010  1.5009 -0.0904
11901SOL    HW242565   8.195  11.132  11.005 -0.7815  0.5636  0.4013
11902SOL     OW42566   0.477   5.978   7.106  0.0344 -0.5646  0.7306
11902SOL    HW142567   0.517   5.920   7.041 -0.3772  0.0495 -0.0954
11902SOL    HW242568   0.494   5.936   7.190 -0.5993 -2.0705  0.1330
11903SOL     OW42569   5.621   5.826   2.422  0.2788  0.3519  0.0999
11903SOL    HW142570   5.527   5.843   2.417 -0.0239 -0.7645  1.2984
11903SOL    HW242571   5.661   5.895   2.370 -1.2618  0.2038 -1.3529
11904SOL     OW42572   2.711   8.800   3.343  0.2201  0.3531  0.1568
11904SOL    HW142573   2.681   8.715   3.375  1.6597  0.2881  1.4455
11904SOL    HW242574   2.698   8.860   3.416 -2.1293  1.6345 -1.2001
11905SOL     OW42575   7.185   3.024  10.418  0.1768 -0.6542  0.0265
11905SOL    HW142576   7.132   3.005  10.340  0.3070  0.0909 -0.2539
11905SOL    HW242577   7.252   3.085  10.386 -1.2413  1.6883  1.2044
11906SOL     OW42578   7.404   3.480   6.772  0.2084 -0.0345 -0.1213
11906SOL    HW142579   7.402   3.510   6.862 -1.0356 -0.8854  0.1620
11906SOL    HW242580   7.469   3.410   6.771 -0.4915 -0.7019  0.3538
11907SOL     OW42581   4.315   1.430   7.359 -0.5004  0.0772  0.0660
11907SOL    HW142582   4.406   1.410   7.381 -0.6199  0.3022  0.7980
11907SOL    HW242583   4.264   1.365   7.407 -0.6492 -2.2244 -2.8899
11908SOL     OW42584   9.802   6.949   2.185  0.3291 -0.0833  0.1756
11908SOL    HW142585   9.739   6.889   2.145  0.7517 -0.4807  0.0960
11908SOL    HW242586   9.856   6.978   2.112  1.4371 -1.2163  0.5034
11909SOL     OW42587   5.587  11.187  10.733  0.1843  0.0364  0.0559
11909SOL    HW142588   5.564  11.099  10.764 -0.1403 -0.6518 -2.0281
11909SOL    HW242589   5.605  11.236  10.814 -0.4463 -1.6908  1.3176
11910SOL     OW42590  10.097  10.649   9.467 -0.2004  0.0132  0.2561
11910SOL    HW142591  10.168  10.712   9.455 -0.1096 -0.2205 -0.4737
11910SOL    HW242592  10.027  10.700   9.507 -0.7547  1.0171 -1.8710
11911SOL     OW42593   5.729   8.230  10.446 -0.0142 -0.7522 -0.0153
11911SOL    HW142594   5.635   8.246  10.448  0.0158 -0.5886  0.1624
11911SOL    HW242595   5.738   8.140  10.413 -0.2690 -1.0880  0.8088
11912SOL     OW42596  11.246   5.246   2.620  0.4225 -0.2390  0.2860
11912SOL    HW142597  11.225   5.243   2.714  1.1641 -0.6142  0.4485
11912SOL    HW242598  11.283   5.160   2.601  0.8059  0.0302 -0.2188
11913SOL     OW42599   7.377   5.815   7.568 -0.2193  0.1726 -0.1336
11913SOL    HW142600   7.324   5.795   7.645  0.3262  0.9702  0.4730
11913SOL    HW242601   7.467   5.798   7.596 -0.1629 -2.0258 -1.4241
11914SOL     OW42602   4.195   7.948   6.457 -0.5634 -0.6434  0.0564
11914SOL    HW142603   4.236   7.869   6.420 -0.1025  0.3314 -1.6380
11914SOL    HW242604   4.229   7.952   6.546  1.0848 -1.2599 -0.4889
11915SOL     OW42605   7.918   1.052   1.716 -0.4594 -0.2739  0.9063
11915SOL    HW142606   8.011   1.051   1.694 -1.0563  0.6829 -2.0721
11915SOL    HW242607   7.894   0.960   1.726  0.3845 -0.6890 -0.5962
11916SOL     OW42608   3.319   4.413  10.325 -0.4257  0.2203  0.1557
11916SOL    HW142609   3.282   4.448  10.243 -1.0071 -1.3520 -0.3022
11916SOL    HW242610   3.405   4.380  10.300  0.1655  1.4101  0.6054
11917SOL     OW42611  11.900  12.284   7.058  0.1037 -0.2880  0.6508
11917SOL    HW142612  11.835  12.327   7.002  1.0733 -0.7502 -0.8753
11917SOL    HW242613  11.860  12.200   7.081  0.1323 -0.5582 -0.2566
11918SOL     OW42614   7.912   2.620   7.066  0.4376 -0.3274  0.4098
11918SOL    HW142615   7.927   2.560   6.993 -0.2338 -1.0688  0.8716
11918SOL    HW242616   7.820   2.608   7.089 -0.1261  1.9033 -0.3799
11919SOL     OW42617  11.418   5.195   0.570 -0.3394  0.6216 -0.1435
11919SOL    HW142618  11.461   5.146   0.640 -1.0295 -0.0171 -0.1588
11919SOL    HW242619  11.473   5.177   0.493 -0.3014  0.2808 -0.0418
11920SOL     OW42620   8.864   1.631   9.764  0.1447 -0.2148  0.1400
11920SOL    HW142621   8.792   1.678   9.806  1.6429  1.4962  0.8917
11920SOL    HW242622   8.920   1.604   9.836  1.0308 -0.1999 -0.5346
11921SOL     OW42623   4.061   7.948   7.295  0.2730  0.1093 -0.0851
11921SOL    HW142624   4.058   7.993   7.380 -3.6740  1.5753 -0.8360
11921SOL    HW242625   4.123   7.999   7.243  1.9391 -0.1919  1.4920
11922SOL     OW42626   2.662   5.901   0.721  0.1422 -0.1078  0.2791
11922SOL    HW142627   2.675   5.968   0.787  0.9749 -0.8262  0.8672
11922SOL    HW242628   2.730   5.836   0.739  0.4439 -0.2891 -1.3210
11923SOL     OW42629   5.404   6.381   5.765 -0.2959 -0.2278  0.6358
11923SOL    HW142630   5.342   6.408   5.833 -0.6586 -0.7949  0.5350
11923SOL    HW242631   5.487   6.370   5.811 -0.6457 -1.0841  1.0891
11924SOL     OW42632  12.077   3.908   8.055  0.2526 -0.3894  0.5828
11924SOL    HW142633  12.009   3.936   8.116 -0.1543  0.1272 -0.0896
11924SOL    HW242634  12.114   3.990   8.021  0.5880 -0.6654  0.2716
11925SOL     OW42635   7.117   8.807   7.837  0.1080 -0.0404  0.1675
11925SOL    HW142636   7.171   8.733   7.810 -0.2336 -1.0788  2.1459
11925SOL    HW242637   7.028   8.784   7.808  0.4030  0.9720 -1.7370
11926SOL     OW42638   9.789   0.640   9.525  0.1128 -0.1410 -0.2903
11926SOL    HW142639   9.776   0.645   9.430 -0.4081 -0.5135 -0.2419
11926SOL    HW242640   9.830   0.723   9.548 -1.9303  0.9863 -0.4989
11927SOL     OW42641  12.450   3.741   7.636 -0.1828 -0.2317  0.1928
11927SOL    HW142642  12.360   3.770   7.648 -0.0045  0.5190 -0.2194
11927SOL    HW242643  12.471   3.695   7.717 -1.9723 -3.3125 -0.9137
11928SOL     OW42644   2.208   8.623   7.051  0.1073  0.2781  0.5279
11928SOL    HW142645   2.213   8.557   6.982 -0.5746 -0.7865  1.4504
11928SOL    HW242646   2.129   8.674   7.030  0.7148  0.9212 -0.2657
11929SOL     OW42647  11.974   1.404  10.696 -0.2000  0.8526 -0.4989
11929SOL    HW142648  12.038   1.449  10.752 -1.8586  0.8064  1.5488
11929SOL    HW242649  12.019   1.324  10.669  1.1889  1.5990 -0.5193
11930SOL     OW42650   0.542   8.778   4.898 -0.3688  0.0748  0.3731
11930SOL    HW142651   0.485   8.855   4.909 -0.5817 -0.1099  0.5543
11930SOL    HW242652   0.581   8.764   4.984  0.6733  0.7589  0.0331
11931SOL     OW42653  10.848   6.568   7.241  0.3598 -0.4490 -0.4056
11931SOL    HW142654  10.882   6.623   7.312 -0.2960  1.1862 -1.2953
11931SOL    HW242655  10.924   6.550   7.186  0.7107 -1.0283  0.2541
11932SOL     OW42656   9.938   2.950   5.507  0.3597 -0.1593 -0.0217
11932SOL    HW142657  10.015   2.903   5.540  1.0497  0.5540 -0.5853
11932SOL    HW242658   9.903   2.894   5.438  0.4301 -0.4354  0.1653
11933SOL     OW42659   9.640   3.474   1.865 -0.1724 -0.1023 -0.1147
11933SOL    HW142660   9.642   3.491   1.959 -0.7052 -1.0863  0.0992
11933SOL    HW242661   9.553   3.437   1.850 -0.5917  1.2411 -1.2277
11934SOL     OW42662  12.104   2.176   4.578  0.5325  0.3744  0.3730
11934SOL    HW142663  12.045   2.230   4.527  0.7600  0.5345  0.2756
11934SOL    HW242664  12.178   2.233   4.598  0.6166  0.2021  0.5642
11935SOL     OW42665   6.757   4.663   5.614  0.4278  0.0241  0.3038
11935SOL    HW142666   6.716   4.749   5.599 -0.1054 -0.1639  0.6390
11935SOL    HW242667   6.809   4.675   5.693  0.8410  0.1998  0.0100
11936SOL     OW42668   0.737   7.860  11.687 -0.6308  0.2819 -0.3126
11936SOL    HW142669   0.821   7.856  11.732 -1.0489  2.0323  0.7089
11936SOL    HW242670   0.692   7.780  11.713 -0.2490  0.5112  1.1347
11937SOL     OW42671   6.730   6.777   3.257 -0.0333 -0.3128 -1.0179
11937SOL    HW142672   6.782   6.721   3.315  0.1608  0.6266 -0.2644
11937SOL    HW242673   6.795   6.825   3.205  0.0335  2.3280  1.2816
11938SOL     OW42674   4.451   2.173   2.528 -0.1199  0.1639  0.0676
11938SOL    HW142675   4.408   2.227   2.462  1.1593 -1.5590 -2.3546
11938SOL    HW242676   4.392   2.099   2.541 -0.3207  0.4483  0.8040
11939SOL     OW42677   8.558   4.795   2.672 -0.1855 -0.0170 -0.3073
11939SOL    HW142678   8.631   4.816   2.614  0.8175 -0.9817  0.5444
11939SOL    HW242679   8.541   4.702   2.655  0.0527 -0.2865  0.8227
11940SOL     OW42680   5.413   9.673   1.890  0.2349 -0.2939  0.1920
11940SOL    HW142681   5.481   9.737   1.869 -0.4993  1.2953  2.3326
11940SOL    HW242682   5.447   9.626   1.966 -0.2668 -0.8237  0.0972
11941SOL     OW42683   8.944   8.225   9.023 -0.2995  0.0761 -0.5786
11941SOL    HW142684   9.017   8.237   9.085 -1.6723 -1.1145  1.4039
11941SOL    HW242685   8.911   8.314   9.009  0.5953  0.4701 -0.3156
11942SOL     OW42686   3.080   0.537  10.218 -0.6479 -0.3116  0.5985
11942SOL    HW142687   2.993   0.498  10.221 -1.1108  0.6239 -0.2759
11942SOL    HW242688   3.068   0.622  10.177  0.3366  0.8041  2.4731
11943SOL     OW42689  12.480  12.461   0.168  0.3469  0.1952 -0.2978
11943SOL    HW142690  12.551  12.398   0.167  0.8845  0.7978 -0.9860
11943SOL    HW242691  12.445  12.459   0.078  0.3148  0.8037 -0.3019
11944SOL     OW42692   5.527   2.252  10.873 -0.2315 -0.4606  0.0261
11944SOL    HW142693   5.535   2.323  10.809 -0.9314 -2.0599 -1.9244
11944SOL    HW242694   5.433   2.239  10.883 -0.1053 -1.4051  0.0362
11945SOL     OW42695  11.424   1.956   1.608  0.5507 -0.0927 -0.6671
11945SOL    HW142696  11.438   2.048   1.588  1.1802 -0.2111 -0.8148
11945SOL    HW242697  11.495   1.934   1.668  1.4989 -0.9192 -2.0290
11946SOL     OW42698  10.663   8.037   4.090 -0.1210 -0.0992 -0.0804
11946SOL    HW142699  10.699   8.119   4.056  1.4748 -0.5341  0.4884
11946SOL    HW242700  10.683   7.972   4.024 -0.9588 -0.1396 -0.3079
11947SOL     OW42701  11.190   3.668   3.559  0.4489 -0.2363 -0.0781
11947SOL    HW142702  11.171   3.574   3.562 -1.0228  0.0655  0.8216
11947SOL    HW242703  11.194   3.695   3.650  0.3208  0.6812 -0.3314
11948SOL     OW42704  12.477   2.872  11.850  0.6703 -0.2741 -0.3653
11948SOL    HW142705  12.483   2.956  11.805  0.6168  0.4912  1.0050
11948SOL    HW242706  12.384   2.860  11.866  0.5845 -1.0357 -1.3067
11949SOL     OW42707  10.299   4.000   7.411 -0.3691  0.2433 -0.4181
11949SOL    HW142708  10.334   3.912   7.426 -2.1179 -0.6124 -1.1965
11949SOL    HW242709  10.205   3.992   7.426 -0.5384  2.0389 -0.3210
11950SOL     OW42710   0.076   3.021   9.419  0.3903 -0.1706  0.1937
11950SOL    HW142711   0.163   3.056   9.403  0.5709 -1.2511 -1.3891
11950SOL    HW242712   0.075   2.936   9.376 -1.0110 -0.7914  1.3572
11951SOL     OW42713  11.994   2.530   0.169 -0.0459  0.3990 -0.1179
11951SOL    HW142714  11.983   2.624   0.156  1.5128  0.7406  0.7867
11951SOL    HW242715  11.917   2.491   0.127 -1.0947  2.0970  0.1255
11952SOL     OW42716  12.271   0.607   7.714 -0.4177  0.0976  0.3086
11952SOL    HW142717  12.279   0.669   7.786  0.4642 -0.0143  0.3184
11952SOL    HW242718  12.299   0.524   7.751  4.0920  0.7114 -1.0822
11953SOL     OW42719   3.583   1.796  11.174  0.2083 -0.5742 -0.2334
11953SOL    HW142720   3.596   1.890  11.191 -0.3278 -0.8315  1.8609
11953SOL    HW242721   3.542   1.763  11.254  3.3352 -3.2376  0.4451
11954SOL     OW42722   7.611   0.178  12.118 -0.1434  0.0591 -0.0521
11954SOL    HW142723   7.623   0.115  12.047 -0.9572  0.0102 -0.1572
11954SOL    HW242724   7.699   0.201  12.145  0.2586  1.4190 -2.2849
11955SOL     OW42725   0.957   5.005   2.073  0.3282 -0.5357  0.6413
11955SOL    HW142726   0.868   5.039   2.078  0.8448  0.9780  0.0620
11955SOL    HW242727   0.957   4.928   2.131 -1.4702 -0.8749  0.2317
11956SOL     OW42728   1.186   8.255   8.232 -0.5428  0.0259 -0.2313
11956SOL    HW142729   1.206   8.331   8.286 -0.6189 -0.9692  1.2742
11956SOL    HW242730   1.118   8.285   8.172  1.4694  1.9466 -1.7367
11957SOL     OW42731  10.749   8.006   2.382  0.7981 -0.7810 -0.0642
11957SOL    HW142732  10.687   7.937   2.356 -0.3027 -0.0177  0.4814
11957SOL    HW242733  10.770   7.985   2.473  0.1453 -0.1880  0.2331
11958SOL     OW42734   9.881  10.825   8.587 -0.2677  0.1660 -0.1678
11958SOL    HW142735   9.813  10.883   8.553  0.4267  0.1068 -1.7773
11958SOL    HW242736   9.901  10.859   8.674 -1.5620  0.8513 -0.1185
11959SOL     OW42737   7.186   7.706   0.188  0.8629 -0.7025  0.0191
11959SOL    HW142738   7.131   7.689   0.112  1.1785 -1.4140 -0.0536
11959SOL    HW242739   7.275   7.699   0.156  0.9986 -0.9231  0.4343
11960SOL     OW42740  11.300   9.037   9.141 -0.1001 -0.2764 -0.2389
11960SOL    HW142741  11.384   9.024   9.097 -0.5651 -0.5739 -1.0547
11960SOL    HW242742  11.262   9.114   9.098 -0.0404  0.1435  0.4482
11961SOL     OW42743   4.870   4.365   7.860 -0.1042  0.2918 -0.0123
11961SOL    HW142744   4.838   4.410   7.782 -0.5905 -0.9755 -0.5667
11961SOL    HW242745   4.964   4.358   7.847  0.0640  1.5988  0.3383
11962SOL     OW42746   4.097   0.356  12.110  0.3804 -0.3702  0.1643
11962SOL    HW142747   4.189   0.345  12.088  0.4457  1.0045 -0.3457
11962SOL    HW242748   4.050   0.318  12.036  0.5343 -0.8931  0.3324
11963SOL     OW42749   7.466   9.826   9.612  0.0630  0.5289  0.2802
11963SOL    HW142750   7.420   9.753   9.570 -0.9338  2.0593 -1.4362
11963SOL    HW242751   7.398   9.874   9.658  0.1803  1.8445 -0.8497
11964SOL     OW42752   7.190  12.167   4.468 -0.0558  0.5626  0.6614
11964SOL    HW142753   7.276  12.126   4.475 -0.9902 -1.6901 -0.1251
11964SOL    HW242754   7.183  12.191   4.376 -1.4000 -2.1674 -0.0576
11965SOL     OW42755   8.525   9.198   4.296  0.6601  0.0672 -0.1220
11965SOL    HW142756   8.589   9.268   4.308  2.2727 -1.2069 -0.8021
11965SOL    HW242757   8.483   9.217   4.213  0.8570  0.3949 -0.1468
11966SOL     OW42758   0.852   5.007   5.238  0.3482 -0.0658  0.3210
11966SOL    HW142759   0.786   4.946   5.206  1.4762 -0.5343 -1.2381
11966SOL    HW242760   0.887   4.967   5.317  0.6931 -1.1891 -0.3848
11967SOL     OW42761   0.023   2.305   1.162  0.4468  0.0217 -0.1967
11967SOL    HW142762  -0.013   2.284   1.249  0.4318  0.0654 -0.1924
11967SOL    HW242763   0.110   2.339   1.180 -0.0179  1.2032 -0.1040
11968SOL     OW42764   8.287   7.274   8.815  0.4242  0.2800  0.3280
11968SOL    HW142765   8.201   7.264   8.774  0.9509  2.7779 -1.6060
11968SOL    HW242766   8.269   7.321   8.896 -0.0546  0.6016  0.0424
11969SOL     OW42767   1.682   2.916   2.807  0.1357  0.5133  0.0524
11969SOL    HW142768   1.690   2.988   2.870 -0.0186 -0.9953  1.8767
11969SOL    HW242769   1.611   2.943   2.749  0.5880  2.1565  0.1969
11970SOL     OW42770   4.514  11.496  11.263  0.8055 -0.3405  0.1462
11970SOL    HW142771   4.552  11.578  11.231 -0.7922  0.6235  0.5811
11970SOL    HW242772   4.440  11.524  11.317  1.2955 -2.0376  1.7744
11971SOL     OW42773   5.660   4.066   9.994 -0.3451 -0.1921 -0.1229
11971SOL    HW142774   5.744   4.019   9.994  0.4903  1.1886 -1.4683
11971SOL    HW242775   5.599   4.007   9.950  0.0260 -1.0294  0.4610
11972SOL     OW42776   0.835   0.737  10.563 -0.1757  0.8468 -0.9676
11972SOL    HW142777   0.834   0.655  10.612 -1.5101  2.2838  1.6387
11972SOL    HW242778   0.928   0.757  10.550  0.2188  0.1484  0.6063
11973SOL     OW42779   0.073   0.228   9.548  0.1588 -0.1679 -0.2698
11973SOL    HW142780   0.165   0.206   9.567  0.5838  0.3813 -1.5650
11973SOL    HW242781   0.049   0.166   9.479 -0.3056  0.0054 -0.2601
11974SOL     OW42782   4.370   3.898  11.199 -0.0531  0.5739  0.9567
11974SOL    HW142783   4.432   3.845  11.149 -0.3361  0.1765  1.0220
11974SOL    HW242784   4.399   3.891  11.290  0.1081  0.8073  0.9240
11975SOL     OW42785   5.102  11.365   1.953 -0.0885 -0.6086 -0.0202
11975SOL    HW142786   5.094  11.459   1.939  1.2126 -0.3397  0.8920
11975SOL    HW242787   5.109  11.328   1.864 -2.7770 -0.1235 -0.5217
11976SOL     OW42788   5.229   9.085   9.934 -0.0689  0.2375  0.3520
11976SOL    HW142789   5.292   9.028   9.977 -0.0639  0.4804  0.6696
11976SOL    HW242790   5.243   9.171   9.975  0.3824  0.6223 -0.5716
11977SOL     OW42791   5.049   6.658   9.067  0.3256  0.0806  0.0488
11977SOL    HW142792   5.120   6.713   9.098 -0.8115  2.8125 -1.8260
11977SOL    HW242793   4.990   6.650   9.142  1.7508 -0.9032  1.1282
11978SOL     OW42794   8.310   2.729  11.270 -0.1945 -0.3334  0.3319
11978SOL    HW142795   8.257   2.800  11.306 -0.8822 -0.7941  0.2449
11978SOL    HW242796   8.365   2.700  11.342  1.8200  1.8155 -0.1927
11979SOL     OW42797  10.484   8.461  11.196 -0.4741  0.4453  0.1272
11979SOL    HW142798  10.514   8.376  11.164  0.3776  0.1946  1.4985
11979SOL    HW242799  10.420   8.490  11.131  0.5302 -0.4126 -1.2997
11980SOL     OW42800   4.656   0.840   2.458 -0.3084 -0.1373 -0.5704
11980SOL    HW142801   4.592   0.909   2.442 -0.9103 -0.9794 -1.9624
11980SOL    HW242802   4.741   0.885   2.456 -0.8184  0.9757  1.2548
11981SOL     OW42803   2.596  11.405   8.973 -0.8469  0.0806  0.0051
11981SOL    HW142804   2.677  11.378   9.017 -0.8514 -0.0895 -0.0894
11981SOL    HW242805   2.527  11.365   9.026 -0.8008 -2.4552 -1.6551
11982SOL     OW42806   6.791   6.936   8.244 -0.2761 -0.3166  0.1643
11982SOL    HW142807   6.734   6.981   8.306  1.3527  1.1488  0.6690
11982SOL    HW242808   6.816   7.004   8.181  0.1821 -1.1403 -0.5567
11983SOL     OW42809  11.956   3.207   0.126 -0.0316 -0.5158 -0.4996
11983SOL    HW142810  11.908   3.273   0.075 -0.5837 -1.2105 -0.8870
11983SOL    HW242811  11.889   3.168   0.183  0.3668 -0.5001 -0.0124
11984SOL     OW42812   3.227   2.815  12.087  0.0394 -0.5281  0.6285
11984SOL    HW142813   3.178   2.733  12.089 -1.3415 -0.1705 -4.4490
11984SOL    HW242814   3.167   2.879  12.125 -0.8632 -1.1066  0.2145
11985SOL     OW42815   9.683  10.544   9.646  0.6747  0.1668 -0.1110
11985SOL    HW142816   9.607  10.492   9.670 -0.3643  0.8073 -1.8387
11985SOL    HW242817   9.704  10.595   9.724 -2.8530  2.5925 -0.5500
11986SOL     OW42818   8.932   8.016   7.358 -0.2489 -0.0706  0.3049
11986SOL    HW142819   8.842   8.022   7.390 -0.9458 -0.0607 -1.5240
11986SOL    HW242820   8.923   7.996   7.264  1.6756 -1.8149  0.4236
11987SOL     OW42821   6.733   4.421   6.622  0.3805 -0.2892 -0.0238
11987SOL    HW142822   6.794   4.404   6.695  0.7402  2.0263  0.2704
11987SOL    HW242823   6.661   4.470   6.661 -1.5787 -2.6156 -0.4594
11988SOL     OW42824   1.894  12.008  12.377 -0.5273  0.9150  0.1953
11988SOL    HW142825   1.917  12.078  12.438 -1.3748  0.0755  1.5429
11988SOL    HW242826   1.970  12.000  12.320  0.8703  0.9365  1.9367
11989SOL     OW42827   2.756   6.597  12.277 -0.0918  0.1463  0.1304
11989SOL    HW142828   2.800   6.562  12.199  0.8966  0.2705  0.6147
11989SOL    HW242829   2.663   6.583  12.260 -0.0158  1.4244 -1.6966
11990SOL     OW42830   2.501   6.985   7.110  0.0840  0.2375 -0.4511
11990SOL    HW142831   2.485   7.076   7.135 -2.1272  0.3337 -1.9797
11990SOL    HW242832   2.484   6.983   7.016 -0.2009 -1.8296 -0.3944
11991SOL     OW42833   1.558   5.290  10.069  0.3341  0.1898  0.2711
11991SOL    HW142834   1.575   5.242  10.150 -0.5518 -0.0113  0.3483
11991SOL    HW242835   1.470   5.326  10.080  1.5407  3.3196  0.9523
11992SOL     OW42836   1.836   1.226  10.198 -0.3561 -0.2259  0.1876
11992SOL    HW142837   1.842   1.263  10.109 -1.3779  1.3896  0.7569
11992SOL    HW242838   1.916   1.255  10.241 -0.4486  0.0474  0.1754
11993SOL     OW42839   9.501   0.736  10.876 -0.4343 -0.6498 -0.2059
11993SOL    HW142840   9.588   0.773  10.868 -0.9525  0.5865 -0.2576
11993SOL    HW242841   9.516   0.648  10.913  0.7030  0.3194  1.8178
11994SOL     OW42842   7.046   6.715   2.761 -0.4831  0.4203 -0.4652
11994SOL    HW142843   7.095   6.781   2.712 -1.0148  2.4390  1.5462
11994SOL    HW242844   6.955   6.746   2.759 -0.6355  0.1619  1.1077
11995SOL     OW42845   6.007   5.705   7.276 -0.0416  0.0824 -0.0178
11995SOL    HW142846   6.015   5.800   7.288  0.7969  0.1065 -0.6990
11995SOL    HW242847   5.916   5.693   7.246  0.1368  0.7852 -0.8992
11996SOL     OW42848   7.758  12.128   0.336 -0.0029  0.2869  0.0395
11996SOL    HW142849   7.685  12.079   0.375 -0.5026  0.0835 -1.1239
11996SOL    HW242850   7.738  12.131   0.243  0.6656  1.6276 -0.0876
11997SOL     OW42851   5.322   3.316   3.847  0.2292 -0.3155 -0.1432
11997SOL    HW142852   5.265   3.357   3.782 -0.0649 -0.2449  0.1604
11997SOL    HW242853   5.273   3.240   3.878  0.2752 -0.2220  0.1591
11998SOL     OW42854   9.921   9.266  10.420  0.0673 -0.4664  0.2200
11998SOL    HW142855   9.992   9.236  10.477  0.8893 -0.8171 -0.9297
11998SOL    HW242856   9.901   9.355  10.451  0.1065 -0.8508  1.3794
11999SOL     OW42857   9.252   9.506   7.804 -0.2499 -0.4301 -0.1657
11999SOL    HW142858   9.280   9.429   7.853 -1.2949 -1.4016 -1.0257
11999SOL    HW242859   9.240   9.474   7.714 -4.4845 -0.3170  0.1412
12000SOL     OW42860   9.595   5.459   3.989 -0.0866  0.4028  0.7551
12000SOL    HW142861   9.504   5.455   4.018 -0.5434  1.4127 -0.4121
12000SOL    HW242862   9.625   5.369   3.992 -1.9157 -0.3524 -1.1105
12001SOL     OW42863   7.182   5.210   4.635  0.3515 -0.2923  0.5097
12001SOL    HW142864   7.100   5.182   4.674 -1.2694 -0.7519 -2.8720
12001SOL    HW242865   7.171   5.304   4.621  0.8923 -0.1388  1.0885
12002SOL     OW42866   4.785  12.452   1.327 -0.5626 -0.4285  0.3622
12002SOL    HW142867   4.875  12.472   1.299 -1.5201  1.3537 -1.7175
12002SOL    HW242868   4.765  12.521   1.391  0.1156 -1.9253  2.2829
12003SOL     OW42869   5.380   4.026   9.579  0.4097  0.1320  0.4601
12003SOL    HW142870   5.397   3.953   9.520 -0.6487 -0.3163  0.6893
12003SOL    HW242871   5.355   4.098   9.521  1.1362  0.2216  0.2537
12004SOL     OW42872   4.945   2.226   6.637 -0.4178  0.4360  0.0257
12004SOL    HW142873   4.934   2.310   6.593 -2.0067  0.4274  0.3521
12004SOL    HW242874   4.969   2.249   6.727  3.4218  0.4533 -0.8108
12005SOL     OW42875   1.693   5.439  11.115 -0.7133  0.4166 -0.9201
12005SOL    HW142876   1.619   5.382  11.093 -0.1571  0.3972 -2.9054
12005SOL    HW242877   1.759   5.419  11.049 -0.0143  2.4554 -0.8941
12006SOL     OW42878   5.408   1.366   1.529  0.1857  0.4195 -0.7754
12006SOL    HW142879   5.370   1.326   1.607  0.9518  0.2256 -0.4917
12006SOL    HW242880   5.408   1.296   1.463 -1.3759  0.8586 -1.2822
12007SOL     OW42881   8.311   6.137  11.633  0.3353  0.1283  0.2778
12007SOL    HW142882   8.374   6.067  11.616 -1.1553 -1.0563 -0.7119
12007SOL    HW242883   8.246   6.097  11.692 -0.8727  0.4371 -0.7938
12008SOL     OW42884   8.479   6.000   3.530 -0.0521 -0.4040  0.0712
12008SOL    HW142885   8.400   5.953   3.504 -0.8674  1.2154 -0.5591
12008SOL    HW242886   8.521   6.023   3.447  0.3457 -0.0518  0.3672
12009SOL     OW42887  12.303   0.019   8.033  0.6217 -0.3695  0.0118
12009SOL    HW142888  12.334   0.025   8.123  0.4935  1.8211 -0.0439
12009SOL    HW242889  12.229   0.080   8.029  1.1369  0.1877 -1.7737
12010SOL     OW42890  12.397   0.894   4.247  0.2525 -0.1110 -0.0956
12010SOL    HW142891  12.480   0.875   4.203 -0.1450 -0.0196 -0.9136
12010SOL    HW242892  12.422   0.929   4.332  1.0448 -0.5876 -0.1211
12011SOL     OW42893   8.050  11.299   0.656  0.2500  0.3122  0.3698
12011SOL    HW142894   8.017  11.266   0.572  2.4525  0.2645 -0.5766
12011SOL    HW242895   8.016  11.238   0.721 -0.7457 -0.2104 -0.6012
12012SOL     OW42896   1.429   4.763   6.444 -0.4261  0.1158 -0.1751
12012SOL    HW142897   1.497   4.704   6.411  0.9567  1.9275 -0.6984
12012SOL    HW242898   1.447   4.847   6.403 -0.8658  1.5642  2.3765
12013SOL     OW42899   8.102   5.705   1.805  0.2505  0.0029 -0.3730
12013SOL    HW142900   8.025   5.647   1.806  0.3748 -0.1623 -0.4329
12013SOL    HW242901   8.170   5.654   1.848  0.1630  0.3787  0.2216
12014SOL     OW42902   9.943   3.144   0.692  0.4821  0.2760 -0.6677
12014SOL    HW142903   9.902   3.213   0.745 -1.7904 -0.5664 -1.1955
12014SOL    HW242904   9.942   3.179   0.603  0.0039 -0.1296 -0.8249
12015SOL     OW42905   5.499   5.805   2.708 -0.2233  0.0721 -0.2836
12015SOL    HW142906   5.538   5.753   2.637  0.8190 -1.0031  1.0102
12015SOL    HW242907   5.428   5.750   2.741  1.0491 -0.7137  1.2618
12016SOL     OW42908   1.605   8.862   6.352  0.5556  0.8674 -0.2624
12016SOL    HW142909   1.656   8.941   6.337  0.7990  1.3217  2.4314
12016SOL    HW242910   1.597   8.857   6.448 -2.7250 -0.2925 -0.4902
12017SOL     OW42911   8.290   5.193   7.865 -0.0257  0.0421 -0.0841
12017SOL    HW142912   8.246   5.197   7.780  0.3108  0.2663 -0.2482
12017SOL    HW242913   8.289   5.100   7.888 -0.7557  0.0660  0.0044
12018SOL     OW42914   5.809   1.190   9.501  0.6842  0.2520  0.1246
12018SOL    HW142915   5.725   1.218   9.467  0.2518 -2.1080 -0.9322
12018SOL    HW242916   5.799   1.096   9.516  3.0023 -0.0185  0.3503
12019SOL     OW42917   1.454  10.494   1.523  0.6432  0.1686  0.3372
12019SOL    HW142918   1.367  10.489   1.561  1.1929  0.8952  1.7647
12019SOL    HW242919   1.442  10.467   1.432 -0.9499 -0.3253  0.6623
12020SOL     OW42920   0.117   4.642  11.698 -0.2604 -0.2745  0.3882
12020SOL    HW142921   0.188   4.706  11.708  0.6831 -1.3696  0.9372
12020SOL    HW242922   0.162   4.558  11.690 -1.5311 -1.1199  1.7203
12021SOL     OW42923   5.631   8.033   4.376 -0.0814  0.1262  0.2000
12021SOL    HW142924   5.616   8.098   4.445 -0.7103 -0.5390  0.7106
12021SOL    HW242925   5.551   8.034   4.323 -0.0266 -0.1010  0.1085
12022SOL     OW42926   0.920   4.273   1.060  0.0887 -0.4054  0.0384
12022SOL    HW142927   1.002   4.295   1.016  0.1716 -0.8409 -0.0266
12022SOL    HW242928   0.866   4.234   0.992 -1.2157  2.2775 -0.6147
12023SOL     OW42929   1.375   8.429  10.310  0.3112 -0.5867 -0.1391
12023SOL    HW142930   1.332   8.359  10.260 -0.3644 -0.7087  0.5887
12023SOL    HW242931   1.337   8.510  10.277  1.9567 -0.4331 -1.8308
12024SOL     OW42932   7.748   8.925   6.531 -0.2710 -0.0090  0.2211
12024SOL    HW142933   7.792   8.850   6.571  1.1830  0.1151 -1.0813
12024SOL    HW242934   7.818   8.984   6.506 -1.3927  1.8860  1.3064
12025SOL     OW42935   9.418   2.004   9.505 -0.3646  0.1249 -0.2966
12025SOL    HW142936   9.437   1.916   9.538 -0.9198  0.3818  0.7604
12025SOL    HW242937   9.428   1.997   9.410  1.2748 -0.6496 -0.1055
12026SOL     OW42938  10.550  10.921   1.845  0.3049  0.1255  0.4296
12026SOL    HW142939  10.544  11.008   1.808  1.1176  1.4972  3.2671
12026SOL    HW242940  10.470  10.912   1.898  1.3346  0.1541  2.0465
12027SOL     OW42941   6.866   6.831  11.303  0.4861  0.1197 -0.0756
12027SOL    HW142942   6.872   6.923  11.327 -0.8916  0.3939 -0.6897
12027SOL    HW242943   6.886   6.783  11.384 -0.0516  0.9749  0.5790
12028SOL     OW42944   7.565   8.940   1.993 -0.5895 -0.3731 -0.1782
12028SOL    HW142945   7.496   9.004   1.975 -0.0514  0.6338  1.1866
12028SOL    HW242946   7.568   8.935   2.089 -2.0782 -4.0692 -0.1601
12029SOL     OW42947   3.324   6.881   5.315 -0.0246 -0.0863 -0.0297
12029SOL    HW142948   3.261   6.809   5.316  1.1588 -1.1463  0.2487
12029SOL    HW242949   3.328   6.911   5.406  0.3124 -0.4231  0.0692
12030SOL     OW42950   6.807   5.143   5.251  0.3837  0.3122 -0.2077
12030SOL    HW142951   6.810   5.144   5.347 -1.7201  0.7381 -0.0963
12030SOL    HW242952   6.827   5.233   5.225  0.7455  0.2446 -0.1713
12031SOL     OW42953   6.146   1.935  11.071  0.2883 -0.2452  0.5316
12031SOL    HW142954   6.058   1.969  11.089  0.2749 -0.5352  1.0457
12031SOL    HW242955   6.205   1.996  11.114  0.2848 -0.6078  1.0648
12032SOL     OW42956   4.965   4.797   4.811 -0.3069  0.0137  0.0239
12032SOL    HW142957   4.988   4.885   4.782  0.4215 -0.0525  0.4021
12032SOL    HW242958   5.047   4.758   4.840  0.0159 -1.8660 -2.8885
12033SOL     OW42959   2.533   6.497   9.252 -0.3519 -0.4035 -0.1858
12033SOL    HW142960   2.499   6.515   9.165  0.7715 -1.3177 -0.8560
12033SOL    HW242961   2.598   6.565   9.267 -1.8866  0.9235  0.8007
12034SOL     OW42962   3.985   5.074  12.120  0.4805 -0.0578 -0.2979
12034SOL    HW142963   3.966   5.025  12.040 -1.8985  0.1007  0.1165
12034SOL    HW242964   3.987   5.166  12.092 -2.7642  0.2415  0.1051
12035SOL     OW42965   2.577   1.689  11.381  0.7427 -0.1122  0.1846
12035SOL    HW142966   2.544   1.599  11.373  0.1201  0.1593 -0.3917
12035SOL    HW242967   2.611   1.693  11.470 -0.5570 -0.4967  0.7257
12036SOL     OW42968   8.088   4.687   3.271 -0.3512 -0.3667 -0.2198
12036SOL    HW142969   8.057   4.777   3.263 -0.3342 -0.3061  0.3769
12036SOL    HW242970   8.118   4.664   3.183  1.2856  0.8104 -0.0133
12037SOL     OW42971   8.947  10.673   9.536 -0.0158 -0.0994  0.3486
12037SOL    HW142972   8.950  10.586   9.576  0.9245 -0.7497 -1.0846
12037SOL    HW242973   9.039  10.697   9.524 -0.2770  0.7483 -0.0083
12038SOL     OW42974   9.233   0.002   4.892  0.2557 -0.8099  0.0472
12038SOL    HW142975   9.297   0.065   4.925  0.2120 -0.9885  0.4855
12038SOL    HW242976   9.155   0.054   4.872  0.1775 -0.7367  0.5249
12039SOL     OW42977   1.707   4.478   9.839 -0.1798 -0.2198  0.2658
12039SOL    HW142978   1.665   4.406   9.792  0.2304  0.4801 -1.2091
12039SOL    HW242979   1.680   4.556   9.792  2.7429  0.2777 -0.7373
12040SOL     OW42980  11.099   4.903   0.284  0.2313 -0.3246 -0.0234
12040SOL    HW142981  11.086   4.811   0.305 -0.9987 -0.1671 -0.0286
12040SOL    HW242982  11.125   4.903   0.192  1.1087 -0.7102  0.2122
12041SOL     OW42983   8.925   7.971   2.638  0.1044 -0.2482  0.8672
12041SOL    HW142984   8.953   7.942   2.551 -0.2169  0.0433  0.6634
12041SOL    HW242985   8.832   7.948   2.642 -0.6659  2.2992  0.0022
12042SOL     OW42986   3.678   3.107   8.400  0.0505 -0.2500 -0.4533
12042SOL    HW142987   3.620   3.042   8.440  0.2931 -0.0958  0.1562
12042SOL    HW242988   3.756   3.058   8.376  0.5833 -0.0389  0.7793
12043SOL     OW42989   4.066   9.457   6.936 -0.7657 -0.6379  0.1441
12043SOL    HW142990   4.133   9.495   6.992  1.2024 -2.9083 -0.4928
12043SOL    HW242991   4.023   9.533   6.896  0.1054  0.9467  2.0151
12044SOL     OW42992   1.492  10.857   1.326 -0.1901 -0.1361  0.1598
12044SOL    HW142993   1.455  10.889   1.243 -0.7442 -4.4454 -1.5418
12044SOL    HW242994   1.586  10.846   1.308 -0.5115 -2.3460 -0.5401
12045SOL     OW42995   1.936   4.588   1.985 -1.1043 -0.0769 -0.0674
12045SOL    HW142996   1.841   4.590   1.990 -1.3710  0.3628 -3.2881
12045SOL    HW242997   1.956   4.575   1.892  1.9943  0.1198  0.4378
12046SOL     OW42998   5.764   3.379   1.298  0.2794  0.3834 -0.1008
12046SOL    HW142999   5.712   3.336   1.367 -0.2837  0.0011 -0.7401
12046SOL    HW243000   5.741   3.330   1.219  0.1554  1.4442 -0.7298
12047SOL     OW43001   5.358  10.528   5.196  0.3313 -0.4454 -0.4448
12047SOL    HW143002   5.408  10.560   5.272 -0.8187 -0.9226  0.5542
12047SOL    HW243003   5.318  10.607   5.159 -0.0156 -0.3400  0.1422
12048SOL     OW43004   4.794   6.669  11.423  0.8008 -0.0966 -0.2286
12048SOL    HW143005   4.782   6.594  11.480 -2.0926 -0.5090 -1.1948
12048SOL    HW243006   4.750   6.741  11.468 -0.2563 -0.0876 -1.2283
12049SOL     OW43007   1.326  10.128   1.150 -0.4077 -0.3396 -0.6568
12049SOL    HW143008   1.276  10.071   1.208  0.1544  2.1422  2.5676
12049SOL    HW243009   1.401  10.074   1.123 -0.8583 -1.7098  0.6606
12050SOL     OW43010   0.347   0.202   1.365 -0.0733  0.1464 -0.0459
12050SOL    HW143011   0.344   0.298   1.361  0.9840  0.5290  4.0755
12050SOL    HW243012   0.270   0.178   1.415 -0.0471 -1.1674 -0.5947
12051SOL     OW43013   1.751   6.729   8.291 -0.5682 -0.3165  0.0346
12051SOL    HW143014   1.763   6.742   8.385  0.2959  0.5609 -0.1850
12051SOL    HW243015   1.659   6.704   8.282 -0.6117 -0.6197  1.1245
12052SOL     OW43016   2.762   9.500   1.737 -0.2413 -0.1290 -0.2389
12052SOL    HW143017   2.806   9.530   1.816 -1.1603  2.4250 -0.5908
12052SOL    HW243018   2.749   9.406   1.750  2.4396 -0.3837  1.2102
12053SOL     OW43019   6.844   8.810   3.721 -0.0458  0.0752 -0.8644
12053SOL    HW143020   6.777   8.750   3.686  0.2918 -0.5912 -0.3742
12053SOL    HW243021   6.806   8.897   3.708 -0.6820 -0.2555 -1.2942
12054SOL     OW43022   9.040   7.930  11.731  0.0755  0.1764 -0.4519
12054SOL    HW143023   9.000   7.849  11.698 -1.4186  1.6971 -2.6408
12054SOL    HW243024   8.992   8.000  11.687  1.4040  2.2895  1.2706
12055SOL     OW43025   4.836  10.168   9.106  0.1773  0.0624  0.8259
12055SOL    HW143026   4.908  10.217   9.065  0.0751 -0.7153 -0.3366
12055SOL    HW243027   4.859  10.165   9.199  1.6159 -0.1190  0.4921
12056SOL     OW43028   4.558   0.887   0.720 -0.3367 -0.3685 -0.3719
12056SOL    HW143029   4.519   0.971   0.695 -1.7504 -1.4997 -2.2054
12056SOL    HW243030   4.651   0.898   0.700 -0.3082  1.0746  0.3723
12057SOL     OW43031   4.000   3.951   9.666 -0.8404 -0.3053  0.7480
12057SOL    HW143032   4.051   3.992   9.735 -1.1160  1.1770  0.0992
12057SOL    HW243033   3.958   3.877   9.709  0.5080 -0.5776  1.6923
12058SOL     OW43034  11.613   2.503   4.701 -0.4394  0.0590  0.3194
12058SOL    HW143035  11.639   2.545   4.783  0.0653  0.5411 -0.0765
12058SOL    HW243036  11.519   2.489   4.709 -0.1647 -1.3390  1.6228
12059SOL     OW43037   6.924   0.696   9.975  0.1403  0.3126 -0.9318
12059SOL    HW143038   6.984   0.738  10.037 -1.0525  0.9399 -0.1584
12059SOL    HW243039   6.967   0.613   9.952  0.3924 -0.1827  1.1310
12060SOL     OW43040   0.281   4.636  11.995 -0.3102 -0.8690 -0.1559
12060SOL    HW143041   0.353   4.586  11.959  1.6262  0.3220  1.8304
12060SOL    HW243042   0.307   4.655  12.085 -1.9492  1.7297 -0.1157
12061SOL     OW43043   5.168  12.040   9.773 -0.0054 -0.2929 -0.2515
12061SOL    HW143044   5.210  12.023   9.689 -1.6252 -2.0038 -0.7999
12061SOL    HW243045   5.207  11.976   9.832 -0.3856 -0.5540 -0.2733
12062SOL     OW43046   6.565  10.264   8.303 -0.2644 -0.4872 -0.1333
12062SOL    HW143047   6.591  10.193   8.362  1.1054 -0.2860 -0.4643
12062SOL    HW243048   6.469  10.265   8.307 -0.2355 -1.2371  1.1824
12063SOL     OW43049   3.448   0.504  10.244 -0.3333 -0.0125  0.2886
12063SOL    HW143050   3.515   0.532  10.308 -0.1072  0.6105 -0.2114
12063SOL    HW243051   3.476   0.416  10.217 -0.2606 -0.1543  0.8103
12064SOL     OW43052  12.286   8.492   1.649 -0.4376  0.1488 -0.2804
12064SOL    HW143053  12.323   8.405   1.667 -1.6227 -0.7010 -1.7553
12064SOL    HW243054  12.204   8.493   1.698 -1.0953 -0.1109 -1.3661
12065SOL     OW43055   5.574   8.294   8.250  1.0243 -0.1073  0.2098
12065SOL    HW143056   5.553   8.297   8.344  1.0318  0.3817  0.2010
12065SOL    HW243057   5.650   8.236   8.245 -0.1795 -1.7368  0.2601
12066SOL     OW43058   1.289  11.332   5.693  0.5336  0.1838  0.2815
12066SOL    HW143059   1.293  11.372   5.606  1.5750 -1.6734 -0.5892
12066SOL    HW243060   1.215  11.272   5.689 -0.5062  1.3308  1.3027
12067SOL     OW43061  12.473  11.419   9.418  0.2360 -0.1049 -0.0629
12067SOL    HW143062  12.513  11.400   9.333 -0.0857  3.3552 -1.1387
12067SOL    HW243063  12.500  11.346   9.474  1.6922 -1.7607 -2.6948
12068SOL     OW43064  12.234  10.281  11.237  0.1212 -0.4256  0.2896
12068SOL    HW143065  12.214  10.374  11.229  0.6136 -0.0747  2.3752
12068SOL    HW243066  12.159  10.244  11.285  0.5210 -0.8361  0.6092
12069SOL     OW43067   8.210  11.847   5.017 -0.6055  0.2725 -0.3306
12069SOL    HW143068   8.238  11.931   5.054 -3.7444  1.1140  0.5088
12069SOL    HW243069   8.227  11.784   5.087  0.9529  0.3251 -0.6246
12070SOL     OW43070   0.319   9.777   4.610  0.0278 -0.4169 -0.1262
12070SOL    HW143071   0.225   9.779   4.629  0.0054  0.6327 -0.2474
12070SOL    HW243072   0.325   9.790   4.516  0.3012  0.3263 -0.0182
12071SOL     OW43073   3.646   0.291   8.415  0.4331 -0.0743  0.0394
12071SOL    HW143074   3.652   0.264   8.507 -2.7150 -0.0319  0.3911
12071SOL    HW243075   3.580   0.232   8.378 -0.2922  1.5983 -1.4592
12072SOL     OW43076   7.392   4.152  11.112 -0.0945  0.3209  0.4240
12072SOL    HW143077   7.332   4.108  11.173 -0.3541  0.3078  0.1623
12072SOL    HW243078   7.356   4.240  11.103 -1.4638 -0.3818 -1.5752
12073SOL     OW43079   5.243   5.704  11.036  0.0439  0.0859 -0.4382
12073SOL    HW143080   5.164   5.713  10.982  0.1400 -1.7469 -0.9241
12073SOL    HW243081   5.307   5.663  10.979  1.0766  0.7116  0.2371
12074SOL     OW43082  11.905   1.746   9.279  0.0031  0.1839  0.5761
12074SOL    HW143083  11.914   1.675   9.216  0.6564 -0.3957  1.3063
12074SOL    HW243084  11.810   1.755   9.291 -0.1044 -0.1249  0.0019
12075SOL     OW43085   0.855   8.808   0.436  0.1036  0.6437 -0.3219
12075SOL    HW143086   0.919   8.872   0.467 -0.4415  0.2842  1.7129
12075SOL    HW243087   0.771   8.840   0.469 -0.3882 -0.2865 -0.6358
12076SOL     OW43088   9.172   5.287   0.630 -0.2349 -0.5049 -0.1769
12076SOL    HW143089   9.172   5.191   0.639 -2.0373 -0.6717 -1.4464
12076SOL    HW243090   9.192   5.319   0.718  0.6359 -2.0425  0.2195
12077SOL     OW43091   1.386   8.117   8.131  0.4982  0.4255 -0.3031
12077SOL    HW143092   1.313   8.173   8.159  2.3462  2.1892  1.3319
12077SOL    HW243093   1.344   8.045   8.085 -2.4360  0.2406  2.3038
12078SOL     OW43094   3.929   7.743   5.890  0.3662 -0.2469 -0.0213
12078SOL    HW143095   4.023   7.727   5.897  0.2227 -0.5532  2.0577
12078SOL    HW243096   3.898   7.677   5.828  1.4099 -0.6399 -0.1524
12079SOL     OW43097   0.629   6.464  10.237 -0.1834 -0.2709  0.2838
12079SOL    HW143098   0.721   6.483  10.219 -0.6463 -0.3721 -2.8594
12079SOL    HW243099   0.627   6.369  10.248 -0.1617 -0.7433 -2.7293
12080SOL     OW43100  11.097  10.332   3.317  0.3169  0.0444  0.2028
12080SOL    HW143101  11.160  10.360   3.383  1.9560  0.9670 -1.6379
12080SOL    HW243102  11.137  10.358   3.234 -2.1527 -0.0537 -1.1016
12081SOL     OW43103   5.464  11.111   1.983 -0.2615  0.4713 -0.7899
12081SOL    HW143104   5.484  11.165   2.060 -0.8394 -1.5910  0.8988
12081SOL    HW243105   5.535  11.130   1.922  1.1054  1.0293  0.8711
12082SOL     OW43106   7.612   5.996   6.052  0.1997  0.2796  0.1201
12082SOL    HW143107   7.661   5.971   5.974 -0.4648 -0.4731 -0.0748
12082SOL    HW243108   7.535   6.042   6.018 -1.4673 -2.2842  0.0846
12083SOL     OW43109   6.618  11.684   1.510 -0.1631  0.1322  0.3491
12083SOL    HW143110   6.590  11.731   1.588 -0.0807  0.2188  0.3269
12083SOL    HW243111   6.556  11.710   1.442  1.5859  2.5892 -0.4673
12084SOL     OW43112   2.827   8.390   5.978 -0.4104 -0.2464 -0.3978
12084SOL    HW143113   2.900   8.452   5.982 -0.7998  0.1539  1.3227
12084SOL    HW243114   2.869   8.306   5.963  0.1883  0.3068 -1.9951
12085SOL     OW43115   2.446  10.315   7.664 -0.2098  0.3976 -0.3317
12085SOL    HW143116   2.418  10.223   7.666 -0.7273  0.5433 -0.6662
12085SOL    HW243117   2.406  10.350   7.585  2.9509  0.0019 -2.2422
12086SOL     OW43118  10.090   9.610   8.950 -0.0479  0.7711 -0.1730
12086SOL    HW143119  10.147   9.554   9.002 -1.6423 -0.5217  0.2508
12086SOL    HW243120  10.066   9.682   9.009  2.1314  2.0747 -0.7704
12087SOL     OW43121   9.785   7.864   5.562 -0.1682 -0.3961 -0.3373
12087SOL    HW143122   9.783   7.810   5.482  0.0456  0.4159 -0.8969
12087SOL    HW243123   9.722   7.934   5.546  0.0771 -0.0714  0.0977
12088SOL     OW43124   5.182   7.476   0.808 -0.2398  0.4118 -0.6433
12088SOL    HW143125   5.162   7.555   0.857  1.7771  0.2648  0.5317
12088SOL    HW243126   5.141   7.405   0.857 -0.8119  0.5600 -0.8954
12089SOL     OW43127   1.280   1.008   9.261 -0.2128  0.1263  0.3388
12089SOL    HW143128   1.195   0.967   9.245  0.2243 -0.1623 -1.4099
12089SOL    HW243129   1.296   1.061   9.183  0.7580  1.0000  1.1102
12090SOL     OW43130   8.157   5.113   2.364 -0.0236  0.1629  1.1338
12090SOL    HW143131   8.209   5.180   2.410 -1.4313  1.7320  0.5525
12090SOL    HW243132   8.112   5.066   2.433  2.4551 -1.6008  1.7057
12091SOL     OW43133   7.028   5.716   8.700  0.5219  0.3938  0.3507
12091SOL    HW143134   6.975   5.773   8.645 -0.2247  0.2548  0.9078
12091SOL    HW243135   7.020   5.630   8.660  1.9456  0.7215 -0.7022
12092SOL     OW43136   6.353   3.991   4.758  0.4157 -0.4455 -0.8676
12092SOL    HW143137   6.396   4.075   4.747 -0.8127  0.4591  0.7940
12092SOL    HW243138   6.303   3.979   4.678 -0.0482  0.8217 -0.7805
12093SOL     OW43139   3.657   6.628  10.018  0.5196  0.4130 -0.0754
12093SOL    HW143140   3.751   6.648  10.008  1.1392 -2.6340 -1.5879
12093SOL    HW243141   3.655   6.546  10.067 -1.2477 -0.4269 -1.4583
12094SOL     OW43142  10.970  12.310   7.766  0.3504  0.1469  0.7811
12094SOL    HW143143  11.049  12.300   7.819  1.0142  0.1065 -0.1857
12094SOL    HW243144  10.960  12.404   7.754  0.8823  0.1063 -0.0084
12095SOL     OW43145  11.401   5.166   4.860  0.0793  0.1472  0.1432
12095SOL    HW143146  11.323   5.147   4.809  0.2008  1.9680 -0.7732
12095SOL    HW243147  11.474   5.149   4.800  0.3261  0.2465  0.4101
12096SOL     OW43148   6.048   9.800   7.143 -0.1914 -0.2398 -0.0701
12096SOL    HW143149   6.109   9.727   7.142 -1.2283 -1.1318  0.2080
12096SOL    HW243150   6.037   9.822   7.236  0.3067  0.4447 -0.1644
12097SOL     OW43151  10.703  10.896   1.354  0.5100 -0.0369  0.2827
12097SOL    HW143152  10.774  10.868   1.412  1.2254 -0.3043 -0.6918
12097SOL    HW243153  10.623  10.880   1.404  1.1223  0.2121  1.3833
12098SOL     OW43154   9.688   1.617   7.059 -0.1396 -0.1395 -0.0846
12098SOL    HW143155   9.595   1.635   7.045 -0.3447 -1.6102 -0.7627
12098SOL    HW243156   9.730   1.704   7.057 -1.2859  0.4082 -1.3186
12099SOL     OW43157   2.576   9.973   0.369  0.3812  0.5416  0.6687
12099SOL    HW143158   2.495   9.982   0.419 -0.8564 -0.3204 -1.0859
12099SOL    HW243159   2.616  10.060   0.372 -1.1473  1.2585  0.6556
12100SOL     OW43160   8.502   0.132   7.195 -0.1932 -0.5936  0.5049
12100SOL    HW143161   8.450   0.053   7.210 -1.4102 -0.3167 -1.8242
12100SOL    HW243162   8.454   0.202   7.238  0.1586 -0.8594  1.3695
12101SOL     OW43163  11.882   3.751   5.680  0.3698 -0.1714  0.1786
12101SOL    HW143164  11.789   3.770   5.693  0.3437  1.9493 -2.2462
12101SOL    HW243165  11.883   3.677   5.620  0.1163  1.3802 -1.8290
12102SOL     OW43166   0.738   5.007   9.948  0.0515 -0.4343  0.1860
12102SOL    HW143167   0.802   5.039  10.011  2.6139 -0.7113 -2.0708
12102SOL    HW243168   0.747   4.911   9.951 -0.8863 -0.5147  0.4614
12103SOL     OW43169   8.424   6.666   5.939  0.5617  0.0124  0.9373
12103SOL    HW143170   8.429   6.760   5.922 -0.8511  0.0826  0.7468
12103SOL    HW243171   8.334   6.652   5.969 -0.2857 -1.7380 -2.0401
12104SOL     OW43172  11.828   6.354   2.233 -0.0368  0.5137  0.6148
12104SOL    HW143173  11.772   6.428   2.213  0.5550  0.8062 -0.0011
12104SOL    HW243174  11.796   6.283   2.178 -0.3890  0.4048  0.9555
12105SOL     OW43175  10.459   1.018   1.609  0.4581  0.5987  0.7922
12105SOL    HW143176  10.551   1.046   1.599  0.3831  0.8929  0.9129
12105SOL    HW243177  10.464   0.924   1.623  0.8857  0.9092  3.0035
12106SOL     OW43178   8.483  12.045   5.987 -0.0899 -0.1605  0.3794
12106SOL    HW143179   8.506  12.018   6.076 -1.6083 -0.3525  0.7308
12106SOL    HW243180   8.535  12.125   5.973  2.3152 -1.6375  0.3439
12107SOL     OW43181   5.929  11.290  11.248 -0.0980 -0.2203  0.6841
12107SOL    HW143182   5.887  11.296  11.162 -0.0027 -1.0773  0.5702
12107SOL    HW243183   6.000  11.227  11.236 -2.3670 -3.3960  2.2399
12108SOL     OW43184   7.704   0.113   3.942  0.0338 -0.4326 -0.1605
12108SOL    HW143185   7.659   0.030   3.929  0.9932 -1.3002  1.6465
12108SOL    HW243186   7.795   0.088   3.962 -0.0294  0.9106  2.1653
12109SOL     OW43187   7.018   1.623   3.290  0.1539 -0.1396 -0.4212
12109SOL    HW143188   6.985   1.599   3.377 -0.7548 -1.7207 -1.1572
12109SOL    HW243189   6.944   1.670   3.249 -0.0261 -0.8556 -0.9239
12110SOL     OW43190   9.453   9.901   8.677 -0.0044 -0.5361 -0.5437
12110SOL    HW143191   9.396   9.840   8.724 -0.5511  0.7674  0.5893
12110SOL    HW243192   9.392   9.955   8.626  0.3131  0.0494 -0.3140
12111SOL     OW43193  10.821   0.983   3.342 -0.7664 -0.1771  0.0770
12111SOL    HW143194  10.791   0.968   3.431 -2.2892 -1.4616 -0.6091
12111SOL    HW243195  10.914   0.959   3.344 -0.5510  0.6746  1.4898
12112SOL     OW43196   3.892  12.414   9.346  0.2853  0.2515  0.0704
12112SOL    HW143197   3.938  12.352   9.402  0.9806  0.9350  0.2812
12112SOL    HW243198   3.944  12.416   9.265  0.6145  0.9876  0.2866
12113SOL     OW43199   8.956   0.385   0.251 -0.4468 -0.5693 -0.0763
12113SOL    HW143200   8.950   0.343   0.337  1.0397 -0.7507 -0.0294
12113SOL    HW243201   8.982   0.315   0.192 -1.6803 -0.4944 -0.7385
12114SOL     OW43202   8.520  11.967   2.621 -0.3551 -0.1234  0.4062
12114SOL    HW143203   8.543  11.935   2.708  1.8886  0.1392 -0.0235
12114SOL    HW243204   8.573  11.914   2.561 -0.1082  1.2301 -0.6205
12115SOL     OW43205   5.621   8.772  11.660  0.4564  0.0820 -0.2612
12115SOL    HW143206   5.566   8.696  11.679 -1.1384  1.3984  0.6722
12115SOL    HW243207   5.700   8.759  11.713 -0.5368 -0.1298  1.2043
12116SOL     OW43208   5.453   0.266  11.094  0.6643 -0.4724 -0.4329
12116SOL    HW143209   5.531   0.211  11.107  1.4767  1.0310  1.4953
12116SOL    HW243210   5.380   0.209  11.119  1.4030 -0.9835  0.6716
12117SOL     OW43211   2.611   8.547  11.024 -0.7433  0.1402  0.5558
12117SOL    HW143212   2.531   8.498  11.046 -0.2771  0.2465  2.6677
12117SOL    HW243213   2.589   8.638  11.042 -0.8172  0.4420 -0.9764
12118SOL     OW43214   2.476   2.517  11.120  0.0307 -0.3683  0.1606
12118SOL    HW143215   2.408   2.578  11.150  1.3867  0.9789  0.6071
12118SOL    HW243216   2.489   2.457  11.193  0.4003  0.3357  0.6836
12119SOL     OW43217   4.766  10.334   1.390 -0.4780 -0.0483 -1.0994
12119SOL    HW143218   4.785  10.294   1.305 -0.9806  1.6692 -2.0703
12119SOL    HW243219   4.679  10.303   1.412  0.5675 -2.4262  0.0162
12120SOL     OW43220   5.416   3.971   7.431  0.1520 -0.7080 -0.1730
12120SOL    HW143221   5.339   4.023   7.453  0.6780 -0.7854  2.0586
12120SOL    HW243222   5.385   3.880   7.433  0.0831 -0.6866 -0.2567
12121SOL     OW43223   5.280  12.376   7.530  0.6674  0.1040  0.1914
12121SOL    HW143224   5.286  12.378   7.625  1.7153  1.2624  0.1320
12121SOL    HW243225   5.203  12.429   7.510  0.0182 -0.7464  0.4117
12122SOL     OW43226   7.701   5.636   5.399  0.2177 -0.4084  0.3902
12122SOL    HW143227   7.679   5.551   5.360  0.4354  0.0399 -0.7462
12122SOL    HW243228   7.623   5.660   5.449 -0.7849 -0.2199 -1.1740
12123SOL     OW43229  10.692  11.876   4.970  0.0847  0.2631  0.0855
12123SOL    HW143230  10.706  11.896   4.878  2.8388 -0.6586  0.1897
12123SOL    HW243231  10.688  11.961   5.014 -0.2409  0.6897 -0.7636
12124SOL     OW43232   0.461   0.754   1.872  0.5063  0.1252 -0.1406
12124SOL    HW143233   0.474   0.723   1.961  2.3432  0.0440 -0.3925
12124SOL    HW243234   0.486   0.847   1.875  1.1265 -0.0173 -0.6694
12125SOL     OW43235   5.903   1.875   3.950 -0.4655 -0.0938 -0.2577
12125SOL    HW143236   5.891   1.965   3.979 -0.6447 -0.7003  1.6837
12125SOL    HW243237   5.828   1.828   3.986 -0.0845 -1.1314 -0.7692
12126SOL     OW43238  10.977   8.220   6.967 -0.1757  0.1186  0.2872
12126SOL    HW143239  10.982   8.143   6.912 -0.5374 -0.7253  1.3940
12126SOL    HW243240  10.891   8.215   7.008 -1.2632  2.4475 -1.4750
12127SOL     OW43241   3.578   8.808   8.002 -0.0259  0.2920 -0.7518
12127SOL    HW143242   3.548   8.895   7.975  0.0031 -0.3046 -2.8766
12127SOL    HW243243   3.500   8.754   8.000  0.3737 -0.3077 -2.1726
12128SOL     OW43244   2.308   5.745   9.685 -0.1712  0.0216 -0.1284
12128SOL    HW143245   2.390   5.754   9.637 -0.8465 -0.4846 -1.4147
12128SOL    HW243246   2.299   5.827   9.733  1.4995 -0.2470  0.7292
12129SOL     OW43247   6.688   8.392  12.221 -0.5451  0.4071 -0.1217
12129SOL    HW143248   6.723   8.396  12.309 -1.2043 -0.4199  0.2008
12129SOL    HW243249   6.716   8.473  12.179  1.6931 -0.1933  0.1216
12130SOL     OW43250   1.816   4.235   4.284 -0.0314  0.0312 -0.0385
12130SOL    HW143251   1.831   4.328   4.298  2.1334 -0.1217 -0.8860
12130SOL    HW243252   1.899   4.202   4.251 -1.2149 -1.9054 -1.3022
12131SOL     OW43253  10.905   6.998   7.909  0.4477  0.3203  0.3692
12131SOL    HW143254  10.953   7.033   7.834  1.3859 -0.0909  0.7527
12131SOL    HW243255  10.968   6.939   7.952 -0.2190  0.2074  1.2221
12132SOL     OW43256   5.933   5.572  12.295  0.5475 -0.1253 -0.0235
12132SOL    HW143257   6.006   5.514  12.271  1.3094  0.1885  1.4224
12132SOL    HW243258   5.916   5.551  12.387  0.7350  1.8354  0.4857
12133SOL     OW43259   9.019  11.870   9.853  0.1422  0.0211  0.1530
12133SOL    HW143260   9.050  11.959   9.838 -0.3017  0.2295  0.4237
12133SOL    HW243261   8.948  11.858   9.790  1.9821 -1.1448 -1.8233
12134SOL     OW43262   5.607   2.754   3.131  0.2290 -0.0586 -0.1871
12134SOL    HW143263   5.619   2.773   3.038 -0.9894  0.0539 -0.3345
12134SOL    HW243264   5.651   2.671   3.145  2.6037  1.0976 -0.3083
12135SOL     OW43265   8.247  12.165   0.199  0.2057  0.0286  0.1302
12135SOL    HW143266   8.332  12.160   0.156  0.3598 -1.1742  0.5436
12135SOL    HW243267   8.263  12.137   0.289 -0.7576 -1.0919 -0.0130
12136SOL     OW43268  10.847   4.280   9.715  0.0429 -0.3547 -0.0582
12136SOL    HW143269  10.927   4.299   9.666  1.4129  1.2335  2.5839
12136SOL    HW243270  10.832   4.358   9.769 -2.1238 -1.4496  1.0652
12137SOL     OW43271   5.665  10.421   6.957  0.1076  0.3529 -0.2498
12137SOL    HW143272   5.623  10.364   7.021  1.3098  1.0388  1.2188
12137SOL    HW243273   5.673  10.506   7.001  0.5243  0.9847 -1.4892
12138SOL     OW43274  10.270   1.024   8.850  0.5184  0.2489 -0.8011
12138SOL    HW143275  10.366   1.021   8.854  0.6533 -1.2442 -3.1586
12138SOL    HW243276  10.246   0.951   8.793 -1.9108  1.8285 -1.9544
12139SOL     OW43277   2.584   7.878   1.514 -0.2221  0.6836  0.0406
12139SOL    HW143278   2.621   7.962   1.541 -0.4019  1.0592 -0.8655
12139SOL    HW243279   2.512   7.864   1.576 -0.0022  1.0459  0.3854
12140SOL     OW43280   9.324  11.113   3.821 -0.0695  0.4621 -0.5642
12140SOL    HW143281   9.404  11.136   3.774  0.4107 -0.5358 -0.2693
12140SOL    HW243282   9.310  11.185   3.882 -0.3746  1.4899 -1.8103
12141SOL     OW43283   5.503   5.458   2.211  0.3637 -0.1263  0.3982
12141SOL    HW143284   5.516   5.382   2.155  0.3932 -0.0661  0.3228
12141SOL    HW243285   5.439   5.430   2.276 -1.9980  0.7075 -1.4266
12142SOL     OW43286   3.562   8.434   8.163  0.1857  0.2241 -0.4517
12142SOL    HW143287   3.536   8.382   8.240  0.6382 -0.1025 -0.5134
12142SOL    HW243288   3.658   8.442   8.171 -0.0431  2.7642  0.6413
12143SOL     OW43289   2.758   4.559   9.940 -0.3784 -0.1128  0.3239
12143SOL    HW143290   2.751   4.472   9.980 -1.1687 -0.2081  0.0061
12143SOL    HW243291   2.835   4.598   9.980 -0.3761 -0.7251  0.9362
12144SOL     OW43292   4.074   0.828   0.197  0.2413 -0.7465 -0.5767
12144SOL    HW143293   3.984   0.795   0.199  0.8902 -2.6306 -0.7831
12144SOL    HW243294   4.111   0.805   0.282 -0.4658  3.2472  1.0087
12145SOL     OW43295   8.464  10.923   8.833  0.2082 -0.2090 -0.1770
12145SOL    HW143296   8.495  10.839   8.868  1.6017 -0.0229 -0.9398
12145SOL    HW243297   8.435  10.971   8.910 -0.7185 -1.4103  0.2687
12146SOL     OW43298   3.731   3.483   2.848  0.1283 -0.2868 -0.3166
12146SOL    HW143299   3.720   3.571   2.882  0.8577 -0.6765  0.9968
12146SOL    HW243300   3.667   3.476   2.777 -2.1996  0.2308  1.6159
12147SOL     OW43301   6.387  11.326   7.123 -0.2041  0.3557  0.0552
12147SOL    HW143302   6.452  11.282   7.068  0.3969 -0.0226  1.0458
12147SOL    HW243303   6.360  11.259   7.186 -0.4001  0.9716  0.6365
12148SOL     OW43304   1.709   5.124   3.352  0.3647  0.5993 -0.2185
12148SOL    HW143305   1.800   5.099   3.371  0.6319  0.1757 -1.9618
12148SOL    HW243306   1.673   5.050   3.303 -1.7626 -0.3984  2.5542
12149SOL     OW43307   3.355   8.804   1.234 -0.4610  0.2494 -0.4279
12149SOL    HW143308   3.417   8.793   1.161 -0.0828 -1.9220  0.1454
12149SOL    HW243309   3.384   8.741   1.300 -0.6613  2.3037  1.7548
12150SOL     OW43310   9.010   9.871   8.638 -0.2625  0.3939  0.2116
12150SOL    HW143311   9.092   9.822   8.647 -0.5905 -0.5178 -1.2896
12150SOL    HW243312   8.962   9.823   8.570 -1.9395  1.0513  0.8891
12151SOL     OW43313   4.849   7.235  10.148 -0.2336 -0.1120 -0.2225
12151SOL    HW143314   4.825   7.226  10.056 -1.3327  0.5344 -0.0101
12151SOL    HW243315   4.869   7.145  10.176 -0.9835 -0.4702 -0.8031
12152SOL     OW43316  10.985   3.834  10.075  0.3237 -0.1118 -0.3701
12152SOL    HW143317  11.020   3.905  10.128 -2.0729 -1.2322  3.0435
12152SOL    HW243318  10.957   3.877   9.993  2.6710  2.0175 -0.1778
12153SOL     OW43319   1.675   1.736   4.071 -0.0043 -0.3683  0.8568
12153SOL    HW143320   1.762   1.748   4.032 -0.7109  1.1731 -0.3752
12153SOL    HW243321   1.691   1.684   4.150  1.9038 -0.9019  0.1810
12154SOL     OW43322   2.458   6.182   7.188 -0.0247 -0.3436  0.0248
12154SOL    HW143323   2.431   6.225   7.107 -0.0562  0.7239  0.5811
12154SOL    HW243324   2.542   6.141   7.166 -1.0381 -1.9073 -1.1254
12155SOL     OW43325   1.299   4.497   1.249 -0.5264  0.1802 -0.3305
12155SOL    HW143326   1.219   4.447   1.266 -0.6253  0.2989 -0.4407
12155SOL    HW243327   1.268   4.580   1.213 -0.3534  0.2325 -0.3601
12156SOL     OW43328   3.172   7.256   8.880 -0.9035  0.3766 -0.5450
12156SOL    HW143329   3.125   7.337   8.900  0.3609  1.0025  0.0193
12156SOL    HW243330   3.215   7.274   8.797  1.7236  1.4553  0.8930
12157SOL     OW43331  11.078  11.009   0.289 -0.2894 -0.2956  0.1370
12157SOL    HW143332  11.069  10.991   0.196 -3.2646 -0.3721  0.3517
12157SOL    HW243333  11.171  10.998   0.307  0.3524 -0.3342 -2.7870
12158SOL     OW43334   8.694   3.551  11.892  0.3560  0.4321 -0.0737
12158SOL    HW143335   8.765   3.532  11.953  0.5949  1.7975  0.0972
12158SOL    HW243336   8.729   3.620  11.835 -0.2813  0.0110 -1.0025
12159SOL     OW43337   9.032   8.533  11.098 -0.2260 -0.2712 -0.1149
12159SOL    HW143338   9.098   8.588  11.057  0.3048 -1.2253 -0.5681
12159SOL    HW243339   8.993   8.484  11.026  0.8335 -2.0941  0.4934
12160SOL     OW43340   7.408   7.112   8.712  1.0069 -0.1677 -0.2176
12160SOL    HW143341   7.421   7.036   8.769  1.9389 -0.6543 -1.0456
12160SOL    HW243342   7.360   7.077   8.637  2.2233 -0.1698 -1.0289
12161SOL     OW43343  12.001  10.161   6.697 -0.1095  0.5734  0.3945
12161SOL    HW143344  12.075  10.212   6.729  1.0611 -0.2528 -0.8818
12161SOL    HW243345  12.036  10.112   6.623 -1.8521 -0.1270 -0.0134
12162SOL     OW43346   6.157   1.573   2.911 -0.0382 -0.2822  0.4446
12162SOL    HW143347   6.090   1.553   2.846  0.9702  0.7533 -0.9711
12162SOL    HW243348   6.190   1.488   2.940 -1.7339 -0.7971  0.9733
12163SOL     OW43349   0.999   6.000   0.840  0.1171 -0.2972  0.4634
12163SOL    HW143350   0.986   5.917   0.796  0.4016  0.7078 -1.6255
12163SOL    HW243351   0.929   6.057   0.807  1.3849  0.9996 -0.0991
12164SOL     OW43352   3.736   5.284   8.573  0.0024 -0.2495  0.4312
12164SOL    HW143353   3.803   5.281   8.505 -0.0575 -1.2020  0.4082
12164SOL    HW243354   3.703   5.374   8.569  0.5359 -0.0713 -0.2691
12165SOL     OW43355   7.718  10.673   8.370 -0.3477  0.1594 -0.5682
12165SOL    HW143356   7.735  10.757   8.327 -0.9389 -0.3527 -1.8603
12165SOL    HW243357   7.643  10.690   8.427 -0.3404  0.5486 -0.6705
12166SOL     OW43358   9.770   1.299   3.635  0.0916  0.7117  0.1328
12166SOL    HW143359   9.819   1.380   3.621 -0.5178  1.1320  0.3584
12166SOL    HW243360   9.687   1.328   3.672 -0.9509  0.1631 -1.6315
12167SOL     OW43361   0.058   4.400   7.308 -0.1068 -0.0833  0.1575
12167SOL    HW143362   0.008   4.452   7.244 -2.4473 -0.4318  1.5802
12167SOL    HW243363   0.018   4.313   7.304 -1.2255  0.1887  2.8841
12168SOL     OW43364   0.670   2.517   8.962  0.0288  0.5087  0.2337
12168SOL    HW143365   0.630   2.598   8.932 -1.4957 -0.0421  0.6615
12168SOL    HW243366   0.673   2.461   8.884  0.3182  0.6933  0.1138
12169SOL     OW43367   8.893  11.322   6.349  0.4209  0.2868  0.1310
12169SOL    HW143368   8.812  11.373   6.352  0.9379  1.6210 -3.8013
12169SOL    HW243369   8.963  11.387   6.358  1.1455 -0.5674  1.0717
12170SOL     OW43370  10.174   2.683   9.833 -0.0682  0.4265 -0.0876
12170SOL    HW143371  10.199   2.748   9.768  1.3772  0.7804  0.7707
12170SOL    HW243372  10.257   2.651   9.868 -0.7412 -1.6161 -0.2115
12171SOL     OW43373   5.272   4.366   1.569  0.0924  0.1091  0.4344
12171SOL    HW143374   5.202   4.428   1.548 -0.2843 -0.1876  0.8087
12171SOL    HW243375   5.342   4.421   1.605  0.0678  0.4100  0.0295
12172SOL     OW43376   9.832   2.651   2.688 -0.4192 -0.9314 -0.0067
12172SOL    HW143377   9.845   2.617   2.776  1.3127  0.2036  0.2172
12172SOL    HW243378   9.905   2.615   2.637 -0.9214 -0.8838 -0.7797
12173SOL     OW43379  10.990   2.177   7.275  0.1709 -0.5857 -0.1141
12173SOL    HW143380  10.926   2.222   7.219  1.3261 -0.6709 -1.5512
12173SOL    HW243381  11.070   2.176   7.223  1.5422  0.0526  1.8878
12174SOL     OW43382   2.995   1.170   9.002  0.3017 -0.1433  0.0147
12174SOL    HW143383   2.921   1.224   8.974  1.5730  0.8956 -1.4719
12174SOL    HW243384   2.985   1.164   9.097 -1.0562  0.9058 -0.0239
12175SOL     OW43385   7.241  12.210   2.801  0.1642 -0.2939 -0.6898
12175SOL    HW143386   7.280  12.210   2.714  0.5979  0.3749 -0.5004
12175SOL    HW243387   7.171  12.275   2.796 -1.1768 -1.7189 -1.1224
12176SOL     OW43388  10.014   5.603   5.376 -0.1080 -0.1721 -0.5780
12176SOL    HW143389  10.057   5.617   5.461  0.0630  1.1051 -0.8508
12176SOL    HW243390   9.921   5.613   5.395  0.0019  1.5285 -0.7525
12177SOL     OW43391   1.133   1.367   0.674  0.9728  0.4904  0.2007
12177SOL    HW143392   1.093   1.452   0.693  0.6731  0.4708 -0.3511
12177SOL    HW243393   1.063   1.304   0.689  1.4146  0.2518  1.4191
12178SOL     OW43394   4.222   0.716  10.365 -1.2210  0.1531  0.3040
12178SOL    HW143395   4.309   0.681  10.347 -0.5593  1.2568  1.2382
12178SOL    HW243396   4.189   0.742  10.279 -0.1458  0.8079  0.0718
12179SOL     OW43397   8.549   4.314   8.781  0.2066 -0.4600  0.1598
12179SOL    HW143398   8.471   4.366   8.800  0.5468  0.7997 -1.6923
12179SOL    HW243399   8.533   4.230   8.826 -1.2856  0.4630  1.4565
12180SOL     OW43400   3.094   9.560   7.660  0.2230 -0.1765  0.3871
12180SOL    HW143401   3.019   9.616   7.679  0.1222 -0.0825 -0.2527
12180SOL    HW243402   3.056   9.476   7.634  0.3767 -0.5517  1.3697
12181SOL     OW43403   7.140   1.423   4.511 -0.0929 -0.4888 -0.0337
12181SOL    HW143404   7.113   1.442   4.421  1.4268 -0.0462 -0.4250
12181SOL    HW243405   7.126   1.504   4.558  1.2769  0.0154 -0.4392
12182SOL     OW43406   6.824   9.680   0.646 -0.5708  0.1887 -0.0932
12182SOL    HW143407   6.787   9.680   0.735 -0.9235  2.9907 -0.1446
12182SOL    HW243408   6.750   9.655   0.590  0.1731 -3.8682  0.3950
12183SOL     OW43409   9.177   1.048   7.344  0.1168 -0.8920 -0.1399
12183SOL    HW143410   9.148   0.979   7.402  2.1474 -0.8704  1.0019
12183SOL    HW243411   9.103   1.108   7.338 -0.5892 -1.5702  1.3736
12184SOL     OW43412   8.996  12.365  11.077  0.5471 -0.1348 -0.3520
12184SOL    HW143413   8.940  12.422  11.023  0.4473  2.3475  2.1487
12184SOL    HW243414   9.078  12.360  11.029  0.5684  2.2371 -0.6647
12185SOL     OW43415   1.958   9.175   6.697  0.1304  0.1055 -0.0066
12185SOL    HW143416   1.938   9.097   6.645 -3.3084  0.4616  0.5252
12185SOL    HW243417   1.942   9.148   6.788 -1.1917  1.3813  0.1752
12186SOL     OW43418  10.095   3.977   4.166 -0.4934  0.2528  0.2887
12186SOL    HW143419  10.038   3.918   4.116  0.7196 -0.9585  0.2524
12186SOL    HW243420  10.096   4.058   4.116 -1.6292  0.0708 -0.0647
12187SOL     OW43421   1.312   8.488   0.950 -0.1891 -0.0484 -0.5048
12187SOL    HW143422   1.242   8.551   0.967 -0.9731 -1.0157 -0.0730
12187SOL    HW243423   1.376   8.504   1.020 -2.0958 -2.1372  1.9223
12188SOL     OW43424   4.889   1.060  11.705 -0.5924 -0.6306 -0.3339
12188SOL    HW143425   4.917   0.975  11.672 -0.6601 -0.0861 -1.8682
12188SOL    HW243426   4.945   1.076  11.781  0.1227 -1.5788 -0.6466
12189SOL     OW43427   1.336   9.310   2.452  0.2801 -0.1140 -0.3314
12189SOL    HW143428   1.298   9.282   2.369  0.0257  0.6445 -0.4782
12189SOL    HW243429   1.318   9.404   2.457  0.4363 -0.1156  0.5056
12190SOL     OW43430   1.246   9.062   6.419 -0.3849  0.4194  0.0752
12190SOL    HW143431   1.307   9.024   6.483  1.3559 -0.2513 -1.8660
12190SOL    HW243432   1.281   9.149   6.401 -1.1066  0.7677  0.3058
12191SOL     OW43433   0.502   2.501   4.183 -0.0186  0.1360  0.3545
12191SOL    HW143434   0.591   2.505   4.149  0.1540  2.7055  0.8626
12191SOL    HW243435   0.454   2.449   4.120  1.6840 -0.6997 -0.3039
12192SOL     OW43436   9.868  10.657   8.361  0.6593  0.2380 -0.4755
12192SOL    HW143437   9.841  10.731   8.415 -0.0999  0.6566 -1.3771
12192SOL    HW243438   9.861  10.581   8.418 -1.1264  0.5260 -0.2326
12193SOL     OW43439   3.390   6.181   9.338  0.8475  0.4409 -0.6588
12193SOL    HW143440   3.425   6.269   9.349  0.2555  0.6142 -0.0438
12193SOL    HW243441   3.466   6.124   9.348  1.0431  0.8274  0.1762
12194SOL     OW43442   2.830   8.735   4.236  0.0435  0.2649  0.1060
12194SOL    HW143443   2.776   8.664   4.272  0.1412  0.0046 -0.2583
12194SOL    HW243444   2.778   8.771   4.164  0.1585  0.3174  0.0491
12195SOL     OW43445   5.689   5.389   5.165 -0.1100 -0.4125  0.5493
12195SOL    HW143446   5.701   5.295   5.178 -0.7273 -0.4070  1.1952
12195SOL    HW243447   5.721   5.428   5.246  1.5695  0.0616 -0.2879
12196SOL     OW43448  10.767   7.731   7.748  0.5714 -0.0058  0.0462
12196SOL    HW143449  10.842   7.758   7.801 -0.6463  1.2226  1.1985
12196SOL    HW243450  10.703   7.699   7.811 -0.0476 -0.6830 -0.8967
12197SOL     OW43451   3.961   2.650  10.038  0.0788  0.4172 -0.2282
12197SOL    HW143452   3.996   2.606   9.961  1.7564  0.7539  0.3122
12197SOL    HW243453   3.866   2.654  10.022  0.5466  2.5336 -3.3692
12198SOL     OW43454   2.278   9.054   4.023 -0.1386  0.1782  0.4458
12198SOL    HW143455   2.252   9.118   4.089  0.2949  0.3607  0.4413
12198SOL    HW243456   2.196   9.015   3.993 -0.3943  0.6904  0.4870
12199SOL     OW43457   6.731   3.771   8.766  0.3702  0.5282 -0.2840
12199SOL    HW143458   6.822   3.782   8.738  0.6295  1.9705  0.9775
12199SOL    HW243459   6.727   3.813   8.852 -1.1644 -0.7837  0.3257
12200SOL     OW43460  10.642  12.196   0.470  0.1531 -0.4869 -0.0098
12200SOL    HW143461  10.651  12.106   0.439  1.2910 -0.0776 -0.9274
12200SOL    HW243462  10.700  12.202   0.545  0.5227 -0.3642 -0.3036
12201SOL     OW43463   6.754   5.145   6.808 -0.1024  0.2029  0.5556
12201SOL    HW143464   6.801   5.168   6.888 -0.0035  0.8533  0.3170
12201SOL    HW243465   6.662   5.154   6.830 -0.1210 -0.7574  0.9301
12202SOL     OW43466   9.093   8.268   1.883  0.0728  0.1584 -0.0442
12202SOL    HW143467   9.047   8.303   1.959 -1.0469 -1.4559  0.0766
12202SOL    HW243468   9.134   8.187   1.914  0.0042 -0.2679 -1.0265
12203SOL     OW43469  11.045   5.107   0.428 -0.0062 -0.6866 -0.4362
12203SOL    HW143470  11.078   5.172   0.366 -2.4654 -0.5674 -1.7474
12203SOL    HW243471  11.066   5.022   0.387 -1.5968 -0.6090 -1.4879
12204SOL     OW43472  10.922   2.476   7.415 -0.5090  0.7386  0.3576
12204SOL    HW143473  11.006   2.441   7.446 -1.7597 -2.6118  0.3204
12204SOL    HW243474  10.859   2.407   7.434 -3.1000  2.6725 -0.6925
12205SOL     OW43475   0.692  12.342   9.605  0.3717  0.4403 -0.6153
12205SOL    HW143476   0.682  12.323   9.512  1.0754 -0.1035 -0.5789
12205SOL    HW243477   0.712  12.258   9.645 -1.8453  0.2876  0.3241
12206SOL     OW43478  10.527   8.406   5.913 -0.3782 -0.0252  0.2337
12206SOL    HW143479  10.534   8.407   6.008 -0.2195 -0.4200  0.2287
12206SOL    HW243480  10.592   8.341   5.885 -0.3358  0.1785 -0.1508
12207SOL     OW43481  10.576   1.465   8.844 -0.5831 -0.2675 -0.0481
12207SOL    HW143482  10.511   1.533   8.856  0.2718  0.7525 -0.9264
12207SOL    HW243483  10.660   1.511   8.851  0.0067 -1.0774 -1.3087
12208SOL     OW43484   8.822  11.370   8.535 -0.5102  0.6531 -0.3526
12208SOL    HW143485   8.911  11.403   8.549 -0.9664  2.5122 -1.4742
12208SOL    HW243486   8.773  11.401   8.612 -0.0495 -1.1876  0.7536
12209SOL     OW43487   3.472  11.526   0.328  0.4577 -0.3377 -0.2078
12209SOL    HW143488   3.543  11.507   0.267  1.3942 -0.7911  0.9843
12209SOL    HW243489   3.505  11.498   0.413  0.3525  2.8642  1.0399
12210SOL     OW43490   5.729   2.893   9.525 -0.0348  0.5096  0.1292
12210SOL    HW143491   5.705   2.801   9.510  0.6945  0.6164 -1.9264
12210SOL    HW243492   5.651   2.942   9.498 -0.3198  0.5387  0.9611
12211SOL     OW43493   8.317   7.307   7.121 -0.0619  0.5393 -0.0751
12211SOL    HW143494   8.352   7.315   7.210 -1.0996 -0.6467  0.4696
12211SOL    HW243495   8.284   7.394   7.100  0.6599  0.9618  0.4912
12212SOL     OW43496   3.725   4.761  12.045 -0.1827  0.5503  0.1028
12212SOL    HW143497   3.649   4.761  11.988  1.1606  1.4251 -1.7691
12212SOL    HW243498   3.771   4.680  12.024  0.6026  1.1349 -0.4631
12213SOL     OW43499   6.788   3.785  10.760 -0.0151 -0.7062 -0.8546
12213SOL    HW143500   6.730   3.796  10.685  1.0641 -1.1796 -1.7699
12213SOL    HW243501   6.856   3.852  10.748 -0.7657  0.3870  0.6348
12214SOL     OW43502   4.856   0.003  10.897  0.1924 -0.3006 -0.6814
12214SOL    HW143503   4.762   0.007  10.916  0.0512 -1.6107 -1.0479
12214SOL    HW243504   4.889  -0.066  10.954  1.5754  2.1441  1.7756
12215SOL     OW43505   4.887  10.711   8.974 -0.0833 -0.0807  0.1148
12215SOL    HW143506   4.933  10.703   8.891 -1.8592  0.3128 -0.9723
12215SOL    HW243507   4.956  10.709   9.040  1.2709 -1.7917 -1.2578
12216SOL     OW43508   8.542  11.340   3.415  0.1052  0.5165  0.1459
12216SOL    HW143509   8.615  11.399   3.395  0.0137  0.2384 -1.1010
12216SOL    HW243510   8.516  11.305   3.329 -0.8723 -0.1137  0.6888
12217SOL     OW43511   0.461  11.375   1.289 -0.4122  0.3799 -0.0277
12217SOL    HW143512   0.381  11.390   1.340  0.6084  2.3468  1.1258
12217SOL    HW243513   0.473  11.456   1.239  1.3313  0.5018  0.5393
12218SOL     OW43514   6.409   8.409   9.349 -0.2262  0.1564 -0.1568
12218SOL    HW143515   6.376   8.319   9.358 -1.4218  0.5908 -0.0215
12218SOL    HW243516   6.497   8.405   9.385 -0.4649 -0.8515  0.3713
12219SOL     OW43517  12.385   0.004   8.290  0.1883  0.1531  0.2619
12219SOL    HW143518  12.439  -0.024   8.365 -1.6605 -1.2575  1.1431
12219SOL    HW243519  12.334   0.077   8.324 -1.9220 -1.5728  1.0289
12220SOL     OW43520   1.261   2.969  12.372 -0.4446  0.3059  0.3184
12220SOL    HW143521   1.236   2.997  12.460 -1.6360 -1.1141  0.4614
12220SOL    HW243522   1.209   2.891  12.356 -0.8912  1.0000 -1.9821
12221SOL     OW43523   3.344  11.696   8.440  0.0504 -0.0265 -0.3249
12221SOL    HW143524   3.292  11.640   8.498 -2.5938  1.6251 -0.9749
12221SOL    HW243525   3.433  11.660   8.446 -0.6667 -1.5996  2.5743
12222SOL     OW43526   2.352   7.490   3.767  0.0157  0.0786 -0.1101
12222SOL    HW143527   2.282   7.427   3.782  3.2256 -4.2076 -1.1007
12222SOL    HW243528   2.405   7.488   3.847  0.3862  1.3234 -0.2934
12223SOL     OW43529   4.457   3.831  11.480  0.0307  0.8097  0.3636
12223SOL    HW143530   4.416   3.813  11.565  0.7024  1.5671  0.8722
12223SOL    HW243531   4.543   3.789  11.486  0.3877  1.5222  0.3724
12224SOL     OW43532   4.496   7.599   4.831  0.3348  0.4008  0.6977
12224SOL    HW143533   4.547   7.637   4.761  0.3807  0.2779  0.6638
12224SOL    HW243534   4.502   7.504   4.817 -0.5298  0.4033  0.2404
12225SOL     OW43535  12.172   3.865  10.179 -0.4226  0.0637 -0.3908
12225SOL    HW143536  12.157   3.809  10.102  2.1987 -1.2245 -0.0789
12225SOL    HW243537  12.234   3.931  10.149  1.0436 -0.7712  0.6878
12226SOL     OW43538   3.040   4.029  12.409 -0.2099 -0.2084  0.6614
12226SOL    HW143539   3.067   4.080  12.333  0.3136 -1.9640 -0.4047
12226SOL    HW243540   2.945   4.042  12.415 -0.0831  0.8714  0.4339
12227SOL     OW43541   5.551   2.038   5.198 -0.8411  0.4523 -0.3908
12227SOL    HW143542   5.628   1.982   5.198 -1.0720  0.1263 -0.3446
12227SOL    HW243543   5.481   1.981   5.230 -0.9678  0.9188  0.1835
12228SOL     OW43544  11.033   2.726   9.617 -0.1230  0.0982 -0.3551
12228SOL    HW143545  11.060   2.642   9.655  1.4347  0.5777 -0.3429
12228SOL    HW243546  11.063   2.723   9.526 -2.0263 -0.2116 -1.0383
12229SOL     OW43547   6.912   1.764   2.306 -0.1873 -0.3705  0.2997
12229SOL    HW143548   6.878   1.849   2.278  1.4223  0.7731  1.5867
12229SOL    HW243549   6.840   1.724   2.354 -0.3094  1.2834  1.5934
12230SOL     OW43550   8.130   8.433   6.496  0.6514 -0.1286  0.3097
12230SOL    HW143551   8.137   8.380   6.417  0.1539 -0.4455  0.4758
12230SOL    HW243552   8.037   8.430   6.519  0.7636  0.1044  0.8105
12231SOL     OW43553   7.910   9.073   4.544  0.5033 -0.0086 -0.1785
12231SOL    HW143554   7.883   9.150   4.594  0.0233  0.8271 -1.6559
12231SOL    HW243555   7.828   9.030   4.521  0.7771 -1.1899  0.9109
12232SOL     OW43556   6.635  11.462   9.405 -0.0740 -0.3863  0.0104
12232SOL    HW143557   6.638  11.542   9.354  0.3419 -0.5167 -0.1793
12232SOL    HW243558   6.721  11.456   9.447  0.2171 -1.1715 -0.6692
12233SOL     OW43559   7.968   9.514   3.791 -0.0238 -0.1598 -0.5371
12233SOL    HW143560   8.049   9.512   3.842  1.0698  1.7226 -2.0462
12233SOL    HW243561   7.943   9.607   3.790 -1.5209 -0.5436 -1.1322
12234SOL     OW43562   6.563   8.057   8.819 -0.0688  0.5490 -0.0729
12234SOL    HW143563   6.567   8.021   8.731  0.3475  0.5888 -0.0728
12234SOL    HW243564   6.634   8.014   8.866 -1.1877 -0.5459  0.6542
12235SOL     OW43565   7.280   8.494   9.062  0.1687 -0.0913 -0.6218
12235SOL    HW143566   7.313   8.452   8.983 -1.2689 -0.6284 -0.9598
12235SOL    HW243567   7.193   8.526   9.037 -0.5336 -0.7589  0.8991
12236SOL     OW43568   2.701   9.094   7.560 -0.6118 -0.2072  0.4060
12236SOL    HW143569   2.679   9.186   7.577 -0.1929 -0.3632  2.0285
12236SOL    HW243570   2.639   9.066   7.493 -0.8676  1.2012  0.0105
12237SOL     OW43571  10.347   6.373   6.994  0.1266 -0.6229 -0.3050
12237SOL    HW143572  10.267   6.379   6.943  0.2906  0.1293 -0.4855
12237SOL    HW243573  10.320   6.335   7.077 -0.8880  1.8587  0.5893
12238SOL     OW43574  12.420   7.861   6.163  0.3642 -0.4186  0.0570
12238SOL    HW143575  12.399   7.815   6.082  3.1899 -0.4861 -0.7443
12238SOL    HW243576  12.403   7.953   6.144  1.0545 -0.4261 -0.6825
12239SOL     OW43577   6.830  10.517   6.819 -0.3201 -0.1245 -0.2506
12239SOL    HW143578   6.878  10.475   6.891  0.4031 -1.4735 -1.4687
12239SOL    HW243579   6.739  10.492   6.834 -0.0455 -1.2263 -0.3300
12240SOL     OW43580  10.498   2.820   1.266  0.0913  0.2755 -0.6318
12240SOL    HW143581  10.582   2.828   1.311 -0.1148  2.6213 -0.5213
12240SOL    HW243582  10.522   2.818   1.173  0.3620 -1.7529 -0.5616
12241SOL     OW43583   6.440   8.313   4.879  0.0927 -0.0517 -0.1468
12241SOL    HW143584   6.415   8.403   4.903 -2.4822 -0.6059 -0.4087
12241SOL    HW243585   6.535   8.314   4.877  0.1708  2.3435  1.1147
12242SOL     OW43586   3.448  12.064  11.523  0.0540 -0.4299  0.5013
12242SOL    HW143587   3.405  12.140  11.484 -0.5325 -2.1876 -2.5588
12242SOL    HW243588   3.381  12.022  11.577 -1.4304 -1.7170 -2.1852
12243SOL     OW43589  11.983  10.886  10.285 -0.4448  0.0952 -0.1093
12243SOL    HW143590  12.012  10.963  10.236  1.1610 -0.6436 -0.4072
12243SOL    HW243591  11.901  10.860  10.243  0.3165  0.1381 -1.7211
12244SOL     OW43592  11.433  10.817   1.189  0.0747 -0.0387  0.2284
12244SOL    HW143593  11.346  10.788   1.162  0.2849 -0.2474 -0.2340
12244SOL    HW243594  11.443  10.903   1.148  0.0627  0.0184  0.3426
12245SOL     OW43595   8.186   2.068  10.665 -0.1585  0.0111 -0.0840
12245SOL    HW143596   8.263   2.064  10.722 -0.1658  1.7884  0.0950
12245SOL    HW243597   8.221   2.089  10.579 -0.4515  1.2870  0.0892
12246SOL     OW43598   4.978   5.609  12.141  0.2089  0.5669  0.7691
12246SOL    HW143599   4.899   5.601  12.193 -0.2779 -0.5893 -0.1106
12246SOL    HW243600   4.952   5.585  12.052  1.7102 -0.6484  0.6160
12247SOL     OW43601   7.515   0.126   2.254 -0.0189 -0.0128  0.1848
12247SOL    HW143602   7.515   0.138   2.159  2.1219  0.6141  0.2307
12247SOL    HW243603   7.541   0.211   2.290 -2.1221  0.1757  1.4516
12248SOL     OW43604  11.369   8.271  10.234 -0.1329  0.0244  0.1446
12248SOL    HW143605  11.335   8.183  10.250 -0.9616  0.4647  0.8864
12248SOL    HW243606  11.316   8.304  10.161  0.4579 -0.2336 -0.4112
12249SOL     OW43607  12.263   9.451   7.478 -0.3689  0.1170  0.0378
12249SOL    HW143608  12.190   9.396   7.450 -0.9231  0.6127  0.4543
12249SOL    HW243609  12.338   9.420   7.428 -0.4972 -1.4848  0.7731
12250SOL     OW43610  10.131   1.768  10.498  0.7151  0.0609  0.1026
12250SOL    HW143611  10.115   1.862  10.502  1.6176  0.2641 -0.8526
12250SOL    HW243612  10.159   1.745  10.586  1.4645  0.8718  0.0811
12251SOL     OW43613   5.511   1.312   7.223  0.0128  0.1375 -0.7284
12251SOL    HW143614   5.462   1.393   7.209 -1.6775  0.1526  3.8589
12251SOL    HW243615   5.450   1.243   7.198 -0.3312  0.2366 -0.1757
12252SOL     OW43616   9.306   5.262   6.329 -0.0635 -0.1435  0.3216
12252SOL    HW143617   9.210   5.268   6.331 -0.0367  0.8416 -0.3096
12252SOL    HW243618   9.335   5.313   6.404 -0.0238  0.1791  0.0904
12253SOL     OW43619   0.421   3.125   6.367 -0.3216 -1.2124  0.4628
12253SOL    HW143620   0.369   3.071   6.307  0.3348 -0.3987 -0.9079
12253SOL    HW243621   0.356   3.171   6.420 -0.9846 -1.0595 -0.4516
12254SOL     OW43622   7.947   7.883   8.261  0.4670  0.1244 -0.0822
12254SOL    HW143623   7.865   7.853   8.299  1.1795  0.1399  1.5383
12254SOL    HW243624   7.922   7.924   8.178 -1.0538 -0.5480  0.0258
12255SOL     OW43625   7.472  12.258   4.539  0.0418 -0.1370  0.6582
12255SOL    HW143626   7.522  12.221   4.612  0.9962 -0.7908 -0.3071
12255SOL    HW243627   7.477  12.191   4.470 -3.1064 -0.7597  0.8723
12256SOL     OW43628   2.173   5.993   6.830 -0.1116 -0.1115  0.3054
12256SOL    HW143629   2.261   5.976   6.796 -0.1555 -1.4610  0.7745
12256SOL    HW243630   2.117   5.936   6.777 -1.0255  2.1783 -1.3395
12257SOL     OW43631  10.278  11.283  11.282 -0.3282  0.4659  0.0695
12257SOL    HW143632  10.186  11.261  11.297  0.0147 -1.3248 -0.2579
12257SOL    HW243633  10.317  11.283  11.370 -0.0806 -1.6765  0.0248
12258SOL     OW43634   4.772   9.945   0.397 -0.0009 -0.7325 -0.5938
12258SOL    HW143635   4.704   9.878   0.393 -0.2895 -0.7052  2.1444
12258SOL    HW243636   4.830   9.925   0.323 -1.8214 -1.9932 -1.7690
12259SOL     OW43637  11.439   8.554  10.688 -0.2095  0.4805  0.4984
12259SOL    HW143638  11.421   8.648  10.694  0.2641  0.6485 -0.5253
12259SOL    HW243639  11.522   8.543  10.735 -0.7894  0.3938  1.5263
12260SOL     OW43640   5.481   1.686   7.315 -0.1307 -0.1550  0.2330
12260SOL    HW143641   5.425   1.637   7.374 -1.8520  0.3093 -0.9283
12260SOL    HW243642   5.568   1.647   7.325 -0.2317  0.1930  3.3309
12261SOL     OW43643  12.370   1.632  11.806 -0.6724  0.2316 -0.4347
12261SOL    HW143644  12.371   1.727  11.814 -0.0207  0.1629  0.5718
12261SOL    HW243645  12.364   1.615  11.712 -0.7411  1.2672 -0.6244
12262SOL     OW43646  10.519   9.252   3.246  0.3865  0.0658 -0.1882
12262SOL    HW143647  10.508   9.164   3.210 -1.3288  0.4945 -0.7906
12262SOL    HW243648  10.460   9.307   3.194  0.7358  1.4066  0.7800
12263SOL     OW43649   0.648   5.473   8.629  0.6344  0.0081  0.2428
12263SOL    HW143650   0.602   5.448   8.549 -0.9397  2.3446  0.3223
12263SOL    HW243651   0.740   5.454   8.610  0.3064  0.4961 -2.1661
12264SOL     OW43652   8.347   6.651  12.310  0.3596 -0.0705 -0.4172
12264SOL    HW143653   8.374   6.679  12.398 -0.8956 -0.3193  0.0666
12264SOL    HW243654   8.280   6.715  12.284 -0.5796 -1.0378 -0.4278
12265SOL     OW43655   1.559   9.710   3.977 -0.0632 -0.2533  0.3008
12265SOL    HW143656   1.514   9.776   4.031 -0.5650 -0.9840  0.7994
12265SOL    HW243657   1.493   9.642   3.963  0.9157 -1.4484  1.2176
12266SOL     OW43658   4.274   8.372   0.045  0.2265  0.2002 -0.1516
12266SOL    HW143659   4.228   8.295   0.012 -0.1354 -0.7079  2.2532
12266SOL    HW243660   4.357   8.372  -0.003  0.5731 -2.1906  0.3095
12267SOL     OW43661  10.017   4.220   2.873 -0.0083 -0.3886  0.0271
12267SOL    HW143662  10.073   4.159   2.921 -1.7123 -0.7284  1.7099
12267SOL    HW243663  10.025   4.302   2.921 -1.0961 -0.5153  0.4782
12268SOL     OW43664   6.928  10.429   5.970  0.3831  0.2579  0.5583
12268SOL    HW143665   6.957  10.520   5.959 -1.7145  0.8057 -0.9497
12268SOL    HW243666   6.970  10.382   5.898 -0.0577  0.4328  0.1849
12269SOL     OW43667   3.401   6.092   7.262 -0.3452  0.1222 -0.0144
12269SOL    HW143668   3.404   6.069   7.354  1.4561  1.6127  0.3588
12269SOL    HW243669   3.368   6.182   7.260 -0.4198  0.0902 -0.8305
12270SOL     OW43670   3.879  10.483   9.948 -0.2664  0.2238  0.0034
12270SOL    HW143671   3.798  10.434   9.934  0.1846 -0.3121 -0.8718
12270SOL    HW243672   3.920  10.442  10.024  0.3166 -1.1025 -0.9775
12271SOL     OW43673   1.358   7.579   9.128  0.0959  0.6536  0.0303
12271SOL    HW143674   1.304   7.506   9.158  1.8325 -0.1850  1.2722
12271SOL    HW243675   1.336   7.589   9.036 -0.7823 -0.8861  0.0471
12272SOL     OW43676  12.211  10.939   5.352  0.7141  0.1590  0.8292
12272SOL    HW143677  12.118  10.953   5.332  0.5210 -2.8720 -1.2496
12272SOL    HW243678  12.258  10.977   5.278  0.8362 -1.0246  0.2623
12273SOL     OW43679   3.643  10.512   6.312  0.1377  0.5172  0.8960
12273SOL    HW143680   3.694  10.478   6.385  0.2168  0.1832  0.6848
12273SOL    HW243681   3.698  10.580   6.275 -0.0937  1.0060  1.4236
12274SOL     OW43682   3.918   0.543  10.950  0.0957 -0.4871  0.3045
12274SOL    HW143683   3.855   0.509  11.014  1.3939  0.9359  2.4661
12274SOL    HW243684   3.868   0.606  10.898 -0.5641 -0.3159  1.1350
12275SOL     OW43685  10.136   6.502   0.020 -0.2991 -0.6788 -0.0832
12275SOL    HW143686  10.041   6.487   0.020 -0.3675 -0.2550 -0.4486
12275SOL    HW243687  10.173   6.415   0.002 -0.6075 -0.8879  0.2638
12276SOL     OW43688  11.492   5.532  11.485  0.0765 -0.9861 -0.2192
12276SOL    HW143689  11.446   5.456  11.450 -1.3470 -0.2771  0.0514
12276SOL    HW243690  11.571   5.539  11.431  0.4414 -2.8659  0.0007
12277SOL     OW43691   6.879  10.755   8.776 -0.0283 -0.0846 -0.2408
12277SOL    HW143692   6.899  10.698   8.701  0.6367 -0.2759  0.0760
12277SOL    HW243693   6.925  10.836   8.757 -0.4042  0.1076 -0.3515
12278SOL     OW43694   2.786   4.141  12.468 -0.5974 -0.6474 -0.0709
12278SOL    HW143695   2.723   4.113  12.401 -0.8792  0.3410 -0.2419
12278SOL    HW243696   2.792   4.236  12.456 -0.7608 -0.4315  1.3946
12279SOL     OW43697   4.048   6.720   7.734 -0.0136 -0.9253  0.2018
12279SOL    HW143698   4.011   6.639   7.698 -0.7895  0.1568 -1.5546
12279SOL    HW243699   4.134   6.728   7.693 -0.8439  0.2392 -1.4128
12280SOL     OW43700   6.229  11.264   1.932  0.3681 -0.1996  0.2170
12280SOL    HW143701   6.281  11.297   1.860  0.6245 -0.9218  0.0615
12280SOL    HW243702   6.182  11.188   1.896 -0.9985  0.5843  0.2725
12281SOL     OW43703   0.543   5.988   1.188 -0.0175 -0.0139 -0.6431
12281SOL    HW143704   0.498   5.929   1.248  0.2063  0.2130 -0.2434
12281SOL    HW243705   0.474   6.023   1.132  0.0155 -1.6669 -1.7783
12282SOL     OW43706  10.092   2.615   1.239  0.1248 -0.6897  0.3101
12282SOL    HW143707  10.182   2.600   1.267 -0.4541 -0.5295  2.4362
12282SOL    HW243708  10.049   2.654   1.315 -1.5967 -0.1866 -0.8507
12283SOL     OW43709   4.218  12.414   4.303 -0.1894 -0.6493  0.3150
12283SOL    HW143710   4.308  12.445   4.298  0.0801 -1.0357  2.0956
12283SOL    HW243711   4.217  12.335   4.248  0.8457 -1.2378  1.1121
12284SOL     OW43712   7.415   1.266   9.706  0.3368  0.8978  0.2428
12284SOL    HW143713   7.364   1.337   9.746  0.1384 -0.3944  2.4168
12284SOL    HW243714   7.486   1.311   9.660 -1.8559  2.6736 -1.6800
12285SOL     OW43715   9.042   2.105   7.191  0.1574 -0.2548  0.3570
12285SOL    HW143716   9.048   2.182   7.135 -0.1394  0.1034  0.8048
12285SOL    HW243717   8.959   2.063   7.167 -0.6607  0.6641  1.4601
12286SOL     OW43718   3.028   7.082  11.961 -0.4987  0.9443  0.2796
12286SOL    HW143719   2.985   7.015  12.014 -0.3999  0.3002 -0.4410
12286SOL    HW243720   2.957   7.138  11.931 -0.8313 -0.0198 -0.7716
12287SOL     OW43721   3.422   0.513   4.811 -0.8489  0.4560  0.1598
12287SOL    HW143722   3.436   0.595   4.764  0.2779  0.6002  0.7146
12287SOL    HW243723   3.371   0.459   4.750  0.5174  0.6587 -1.2307
12288SOL     OW43724   5.827   3.580   7.444  0.1026 -0.3777 -0.1097
12288SOL    HW143725   5.846   3.667   7.408 -0.7149 -0.4080 -0.6545
12288SOL    HW243726   5.756   3.594   7.505  0.5848 -0.5365  0.4954
12289SOL     OW43727   4.071   7.305  10.362  0.1735  0.1542 -0.0523
12289SOL    HW143728   4.003   7.363  10.326  0.7274  0.3701 -0.7761
12289SOL    HW243729   4.037   7.279  10.448 -1.3085 -0.5808 -0.8256
12290SOL     OW43730  10.292   4.833   3.518 -0.0103 -0.4410 -0.2508
12290SOL    HW143731  10.317   4.782   3.595  1.0034 -0.4258 -0.5597
12290SOL    HW243732  10.278   4.767   3.450 -0.2348 -0.4095 -0.2347
12291SOL     OW43733   3.295   1.665  12.096  0.7520 -0.7070  0.3239
12291SOL    HW143734   3.375   1.615  12.083  0.6347 -0.9234  0.4202
12291SOL    HW243735   3.248   1.618  12.166  1.7138  0.8556  2.1051
12292SOL     OW43736   7.988  12.163   9.133  0.8564 -0.3742 -0.0318
12292SOL    HW143737   8.008  12.072   9.153  1.0776 -0.1380  0.8682
12292SOL    HW243738   8.042  12.214   9.194 -0.4421  0.3337  0.5789
12293SOL     OW43739   3.509   2.963   3.353 -0.0481 -0.0254  0.0846
12293SOL    HW143740   3.518   2.869   3.344  3.9728  0.2191 -0.3655
12293SOL    HW243741   3.516   2.997   3.264 -0.6530  0.7705  0.3203
12294SOL     OW43742  12.232   2.770   2.114 -0.1199  0.3529 -0.2500
12294SOL    HW143743  12.150   2.759   2.067 -1.4452 -0.1715  2.0507
12294SOL    HW243744  12.296   2.722   2.061 -1.6273 -0.6719 -1.2297
12295SOL     OW43745  10.517  10.235   3.649  0.2514  0.0766  0.2414
12295SOL    HW143746  10.577  10.303   3.618  0.8323 -1.3183 -1.8844
12295SOL    HW243747  10.571  10.156   3.651 -1.1338 -0.9099 -0.2362
12296SOL     OW43748   0.605   5.360   2.300  0.6293 -0.4769  0.4928
12296SOL    HW143749   0.550   5.378   2.376  2.0622  1.2562  1.1810
12296SOL    HW243750   0.550   5.384   2.225  0.6709  2.1116  1.1960
12297SOL     OW43751   5.272   4.920   6.107 -0.4714 -0.2532  0.4267
12297SOL    HW143752   5.292   5.014   6.103 -0.6208 -0.2482 -0.4221
12297SOL    HW243753   5.335   4.885   6.169 -1.6165  0.7107  2.2406
12298SOL     OW43754   7.471   2.087   3.173 -0.6601  0.4149 -0.5427
12298SOL    HW143755   7.549   2.110   3.123 -1.3480 -0.5856 -2.1536
12298SOL    HW243756   7.434   2.011   3.128 -3.4485  1.7978 -0.8224
12299SOL     OW43757  10.373   2.613  10.013 -0.3432 -0.0943  0.9304
12299SOL    HW143758  10.325   2.670  10.073  0.2938  0.9755  0.4565
12299SOL    HW243759  10.407   2.543  10.068 -0.7743  0.2168  1.6028
12300SOL     OW43760   9.032   0.214   2.211 -0.4168 -0.0307  0.1587
12300SOL    HW143761   9.044   0.133   2.162 -0.2846  0.4311 -0.5867
12300SOL    HW243762   9.119   0.252   2.216 -0.6807  0.6841 -0.5898
12301SOL     OW43763   9.800  10.875   5.361  0.0405 -0.3849 -0.5499
12301SOL    HW143764   9.768  10.834   5.442  1.9396  0.1064  0.5147
12301SOL    HW243765   9.814  10.967   5.385  1.4992 -0.4313 -1.1456
12302SOL     OW43766   9.758   0.253   0.924  0.5029 -0.2713 -0.2289
12302SOL    HW143767   9.852   0.252   0.912  0.5331 -0.7241  0.0458
12302SOL    HW243768   9.722   0.258   0.836  0.7882  0.3616 -0.3162
12303SOL     OW43769  10.350   5.776  11.555 -0.2817 -0.2893 -0.4968
12303SOL    HW143770  10.436   5.734  11.561 -0.6843 -1.2227 -1.1853
12303SOL    HW243771  10.368   5.859  11.510  0.3760 -0.1267  0.0567
12304SOL     OW43772   1.021   8.863   1.926 -0.1695 -0.0389  0.4625
12304SOL    HW143773   0.999   8.812   1.848 -1.0945 -2.1961  2.0312
12304SOL    HW243774   0.998   8.953   1.904  2.1621 -0.0443 -2.6719
12305SOL     OW43775  11.942   2.948  10.252  0.7015  0.4141  0.4468
12305SOL    HW143776  11.880   3.020  10.261  1.1493  0.7795  0.6333
12305SOL    HW243777  12.014   2.971  10.310  1.1545  0.1476 -0.0059
12306SOL     OW43778  11.226   9.078   6.281 -0.0511  0.0599  0.3588
12306SOL    HW143779  11.170   9.003   6.302 -0.3800  0.2945  0.3422
12306SOL    HW243780  11.166   9.142   6.242 -0.1392  1.0441  1.9946
12307SOL     OW43781   7.841   3.338   3.012  0.1598 -0.1451 -0.2895
12307SOL    HW143782   7.917   3.309   3.063  0.7355 -0.8048 -1.4854
12307SOL    HW243783   7.855   3.300   2.926 -0.8120  0.9262 -0.9344
12308SOL     OW43784   1.344   5.970  11.803  0.7100 -0.1083 -0.4700
12308SOL    HW143785   1.333   6.005  11.714  0.7877  0.2887 -0.3250
12308SOL    HW243786   1.394   6.037  11.849 -0.6562  0.4069  0.3159
12309SOL     OW43787   8.930   2.448   2.782 -0.0245 -0.2695 -0.3576
12309SOL    HW143788   8.913   2.362   2.743 -0.1422  0.7672 -2.7347
12309SOL    HW243789   8.865   2.506   2.742  1.5616  1.3883 -0.6498
12310SOL     OW43790  11.221   3.774   6.621  0.5824 -0.5121  0.1769
12310SOL    HW143791  11.180   3.839   6.564  0.8407  0.9745  1.6233
12310SOL    HW243792  11.148   3.723   6.656  0.1477  0.5412  0.8460
12311SOL     OW43793  10.808   6.428   5.022 -0.3960 -0.2592  0.2949
12311SOL    HW143794  10.848   6.497   4.969  1.4178  0.4871  2.4868
12311SOL    HW243795  10.793   6.357   4.961 -0.5213  1.3478 -1.6567
12312SOL     OW43796   0.013   0.003   4.345 -0.0430 -0.5448 -0.3945
12312SOL    HW143797   0.010   0.037   4.435 -1.2218 -0.3753 -0.4880
12312SOL    HW243798   0.052   0.074   4.295 -2.0714  0.5608 -0.5069
12313SOL     OW43799   6.280   2.370   2.813  0.3869  0.1791 -0.4055
12313SOL    HW143800   6.329   2.294   2.845 -1.0075 -1.7603 -2.5571
12313SOL    HW243801   6.210   2.381   2.877  1.1309  0.2942  0.4176
12314SOL     OW43802   1.715   9.961   7.598 -0.2409  0.6304  0.3518
12314SOL    HW143803   1.736  10.009   7.678  1.7434  1.1871 -0.4592
12314SOL    HW243804   1.799   9.945   7.556 -1.0671 -1.2679 -0.7364
12315SOL     OW43805   4.807   7.883  10.225  0.2857 -0.6331 -0.3772
12315SOL    HW143806   4.870   7.866  10.155  1.0001 -0.6986  0.2636
12315SOL    HW243807   4.739   7.936  10.184  1.5061  0.7175 -0.7290
12316SOL     OW43808   6.776   2.247   5.036  0.0094 -0.3694  0.3601
12316SOL    HW143809   6.750   2.162   5.070 -2.9167 -0.0557 -0.8552
12316SOL    HW243810   6.736   2.311   5.095  2.8422  0.2945  1.7444
12317SOL     OW43811  11.064   9.212   8.549  0.0356  0.4480  0.2576
12317SOL    HW143812  11.075   9.117   8.551  0.1780  0.4465 -0.3378
12317SOL    HW243813  11.154   9.246   8.545  0.0972  0.6887  2.3650
12318SOL     OW43814   0.079  11.481   2.358 -0.0589 -0.2403 -0.8696
12318SOL    HW143815   0.056  11.390   2.376 -0.1454  0.0731  0.7353
12318SOL    HW243816   0.007  11.532   2.395 -0.5187  0.4681 -2.6471
12319SOL     OW43817  11.966   6.313   4.480  0.2752 -0.1846  0.2015
12319SOL    HW143818  11.986   6.273   4.396  1.5456 -0.1381  0.4641
12319SOL    HW243819  11.906   6.385   4.459 -0.6511 -1.1234 -0.4634
12320SOL     OW43820  10.843   9.164  10.604 -0.1578 -0.1790  0.5639
12320SOL    HW143821  10.813   9.218  10.531  0.4325 -0.1838  0.3128
12320SOL    HW243822  10.927   9.201  10.628 -0.8830  0.5951  2.0584
12321SOL     OW43823   1.135   8.941   5.414  0.2284  0.1375  0.0590
12321SOL    HW143824   1.164   8.851   5.399  0.6474  0.4289 -0.9719
12321SOL    HW243825   1.162   8.988   5.335  0.4900  1.2808  0.8097
12322SOL     OW43826  11.538   4.936   9.152 -0.0006  0.5829  0.0897
12322SOL    HW143827  11.556   4.842   9.143  1.0705  0.8143 -0.3677
12322SOL    HW243828  11.467   4.953   9.090 -0.9609 -0.1154  0.9662
12323SOL     OW43829  10.461   7.963   2.896  0.5361  0.0270  0.2807
12323SOL    HW143830  10.526   7.908   2.939  0.4073  0.3978  0.9593
12323SOL    HW243831  10.411   8.002   2.967 -1.8927 -1.9293 -0.2166
12324SOL     OW43832   4.013   2.604   1.149  0.4661 -0.2124 -0.3124
12324SOL    HW143833   4.071   2.563   1.084  1.5789 -0.4497  0.7815
12324SOL    HW243834   4.000   2.693   1.118 -0.2603 -0.7577 -1.6330
12325SOL     OW43835  11.647   3.343   6.815 -0.7565  0.6923 -0.1312
12325SOL    HW143836  11.655   3.396   6.894 -1.9266  1.1326 -0.2852
12325SOL    HW243837  11.736   3.314   6.796 -0.3019  1.4953  0.7184
12326SOL     OW43838   0.953   3.735   0.304  0.9158 -0.2336 -0.0016
12326SOL    HW143839   0.863   3.737   0.336  1.0281  0.1696  0.3022
12326SOL    HW243840   0.945   3.725   0.210  0.5547 -0.4092  0.0469
12327SOL     OW43841   7.753   3.896   4.457 -0.2542 -0.2065 -0.2171
12327SOL    HW143842   7.763   3.857   4.544  0.6099  1.1486  0.3307
12327SOL    HW243843   7.833   3.872   4.410  0.6717  1.5152  0.4046
12328SOL     OW43844   1.582  11.656  11.206  0.3218 -0.1988  0.7511
12328SOL    HW143845   1.584  11.587  11.272  2.8294 -1.3962 -0.4540
12328SOL    HW243846   1.546  11.615  11.128 -1.5504  0.8998  0.9764
12329SOL     OW43847   1.814   9.908   2.747  0.4740  0.0029  0.3794
12329SOL    HW143848   1.792   9.919   2.840  1.9626  0.9166  0.6673
12329SOL    HW243849   1.910   9.912   2.745  0.6355 -2.4600 -0.9279
12330SOL     OW43850   9.899   1.035  10.512 -0.3038 -0.6513 -0.1565
12330SOL    HW143851   9.983   1.056  10.472 -0.4944 -0.9111 -0.7046
12330SOL    HW243852   9.844   1.111  10.492  0.3485  0.4446  1.9145
12331SOL     OW43853   9.606   7.381   1.518 -0.3862 -0.0114 -0.1634
12331SOL    HW143854   9.644   7.294   1.537  1.5619  0.4701 -1.5141
12331SOL    HW243855   9.589   7.379   1.424  0.2504  1.2590 -0.3179
12332SOL     OW43856   6.813   7.993   2.019  0.1189  0.1174 -0.1518
12332SOL    HW143857   6.842   8.084   2.028 -1.6822  0.7381 -0.2198
12332SOL    HW243858   6.831   7.953   2.104  0.5643  0.6521  0.0075
12333SOL     OW43859   8.868  10.172   2.716 -0.0480 -0.3116  0.4047
12333SOL    HW143860   8.877  10.222   2.634  0.1390 -0.7065  0.1841
12333SOL    HW243861   8.786  10.123   2.704  0.2159 -0.7204  0.2655
12334SOL     OW43862   6.259   2.167  11.500  0.1892 -0.0758  0.3995
12334SOL    HW143863   6.282   2.090  11.448 -0.0144 -0.0619  0.2890
12334SOL    HW243864   6.321   2.166  11.573  1.1078  0.4302 -0.3402
12335SOL     OW43865   6.810   8.904   4.356 -0.4385  0.4032  0.1311
12335SOL    HW143866   6.726   8.947   4.370 -0.9950 -0.8215  0.6718
12335SOL    HW243867   6.835   8.870   4.441 -0.4518 -1.0813 -0.4258
12336SOL     OW43868   8.045   6.381   3.360  0.2382 -0.0269  0.1047
12336SOL    HW143869   7.987   6.440   3.408 -0.6147 -0.6971 -0.0876
12336SOL    HW243870   7.992   6.348   3.288  1.4694  0.9253 -1.3124
12337SOL     OW43871   4.391   4.458   3.329  0.2891 -0.1033 -0.0909
12337SOL    HW143872   4.333   4.456   3.405 -0.9545  0.6222 -0.9778
12337SOL    HW243873   4.343   4.408   3.262  0.7301  0.4439 -0.8224
12338SOL     OW43874   6.777   7.707   0.081  0.0903  0.4182  0.4813
12338SOL    HW143875   6.716   7.655   0.133 -0.5547  0.2892 -0.4005
12338SOL    HW243876   6.732   7.724  -0.001  1.2255  0.3466 -0.1807
12339SOL     OW43877   5.801   2.467   4.708  0.2283  0.3740 -0.1526
12339SOL    HW143878   5.782   2.524   4.782  0.6589  1.5646 -0.9317
12339SOL    HW243879   5.727   2.479   4.649 -0.0988 -0.5478  0.0470
12340SOL     OW43880  11.593   9.472   9.496  0.1798  1.0241 -0.0634
12340SOL    HW143881  11.629   9.383   9.496 -1.2742  0.4168  0.2792
12340SOL    HW243882  11.671   9.528   9.497  1.1496 -0.2386  1.5017
12341SOL     OW43883   7.179   9.710  11.045 -0.2384  0.3389  0.0756
12341SOL    HW143884   7.253   9.768  11.031  1.2875 -0.7471  2.8287
12341SOL    HW243885   7.103   9.768  11.049  0.9994  1.9777  1.0750
12342SOL     OW43886   0.707   5.828   8.270 -0.5145  0.1594  0.6004
12342SOL    HW143887   0.676   5.800   8.183 -0.2746  1.3489  0.1211
12342SOL    HW243888   0.802   5.833   8.260 -0.4597 -0.0203  1.0340
12343SOL     OW43889   9.650   7.360   2.127 -0.0135  0.0799 -0.0274
12343SOL    HW143890   9.617   7.410   2.052  0.6512  0.9064  0.2082
12343SOL    HW243891   9.624   7.270   2.110 -1.9270  0.6067 -0.0970
12344SOL     OW43892  11.704   0.491  10.284 -0.5742 -0.0933 -0.5621
12344SOL    HW143893  11.756   0.427  10.332 -0.0939  1.1068  0.5906
12344SOL    HW243894  11.741   0.575  10.309 -2.1727  0.7251 -0.8233
12345SOL     OW43895   9.631   0.403   8.839 -0.1080 -0.0387  0.9099
12345SOL    HW143896   9.625   0.334   8.905  0.5889 -1.2543 -0.2676
12345SOL    HW243897   9.710   0.452   8.864 -0.8815  0.6781  2.0381
12346SOL     OW43898   6.063   4.204   9.567  0.3171  0.1019  0.1583
12346SOL    HW143899   6.018   4.124   9.539 -0.7285  1.1834 -1.4055
12346SOL    HW243900   6.017   4.231   9.646 -0.3430 -0.0330 -0.1704
12347SOL     OW43901   7.863   8.026   0.023  0.0739  0.4190 -0.0876
12347SOL    HW143902   7.938   8.075   0.057  1.5844 -1.3948 -0.6683
12347SOL    HW243903   7.810   8.093  -0.021  1.0649  1.8377  0.7654
12348SOL     OW43904  10.685   6.888   0.109  0.2522 -0.1821 -0.1777
12348SOL    HW143905  10.757   6.948   0.088  2.6142 -2.8201 -0.1152
12348SOL    HW243906  10.652   6.919   0.194  0.6529  1.6211 -0.6334
12349SOL     OW43907   7.452   0.513   5.238  0.0132 -0.4932  0.1045
12349SOL    HW143908   7.445   0.442   5.302  0.5592 -0.0490  0.6784
12349SOL    HW243909   7.539   0.552   5.255 -0.3669  0.4510 -0.0361
12350SOL     OW43910   0.730   5.372   4.078 -1.0866 -0.7334 -0.3665
12350SOL    HW143911   0.765   5.283   4.088 -1.0724 -0.5844  1.0399
12350SOL    HW243912   0.698   5.395   4.165  0.3946  1.2574 -0.2857
12351SOL     OW43913   7.956   0.201  10.289  0.5533  0.0769  0.8278
12351SOL    HW143914   7.993   0.185  10.377 -0.1477 -0.7077  0.9901
12351SOL    HW243915   7.923   0.290  10.293  0.9503  0.2135  1.2063
12352SOL     OW43916  10.869   3.497   7.906  0.3871 -0.2951 -0.1917
12352SOL    HW143917  10.810   3.425   7.925  0.9935 -0.5475  0.8100
12352SOL    HW243918  10.868   3.551   7.985 -0.3677  1.0313 -1.0723
12353SOL     OW43919   3.929  10.096   0.587  0.2600 -0.6862 -0.3238
12353SOL    HW143920   3.963  10.149   0.515  1.7392  1.9801  2.0954
12353SOL    HW243921   3.883  10.159   0.643  0.0094 -2.4411  1.5627
12354SOL     OW43922   2.543   8.243  11.632 -0.3929 -0.0616  1.0046
12354SOL    HW143923   2.557   8.158  11.673 -0.0798 -0.8694 -0.6818
12354SOL    HW243924   2.448   8.254  11.630 -0.6568 -1.8846 -1.5352
12355SOL     OW43925  10.666  11.953  11.470  0.0074 -0.1918 -0.1239
12355SOL    HW143926  10.679  12.038  11.512  2.3959 -0.3119 -0.4896
12355SOL    HW243927  10.691  11.968  11.379 -0.0168 -1.1875 -0.3040
12356SOL     OW43928   0.248   7.085   6.354 -0.3509  0.4431 -0.6664
12356SOL    HW143929   0.175   7.121   6.303 -1.6588 -0.5725  0.4170
12356SOL    HW243930   0.307   7.160   6.368 -1.2712  1.3310 -1.3917
12357SOL     OW43931   6.924  11.962   3.422 -0.3084  0.3624  0.0214
12357SOL    HW143932   6.929  12.003   3.509  0.2515  1.1258 -0.3592
12357SOL    HW243933   6.851  11.900   3.429 -0.6992  0.8922  0.8404
12358SOL     OW43934   6.892   1.361   3.706 -0.4438 -0.5108 -0.1311
12358SOL    HW143935   6.872   1.434   3.648  1.2237 -0.4608 -0.6908
12358SOL    HW243936   6.941   1.300   3.652 -2.3768 -2.4250  0.1260
12359SOL     OW43937  10.014  11.438   3.313  0.2211 -0.1576  0.5104
12359SOL    HW143938  10.047  11.378   3.379  0.0546 -1.7676 -0.8195
12359SOL    HW243939  10.061  11.520   3.329  2.1045 -1.2881  0.9922
12360SOL     OW43940   3.785   9.425   8.974 -0.1311  0.6334  0.2336
12360SOL    HW143941   3.870   9.443   8.934 -0.7902  2.5234 -0.4433
12360SOL    HW243942   3.804   9.365   9.045  1.7460  0.8658 -0.0248
12361SOL     OW43943   3.959   1.465   8.313  0.1304 -0.0571 -0.1786
12361SOL    HW143944   4.038   1.464   8.368 -0.4788 -0.2182  0.7095
12361SOL    HW243945   3.941   1.372   8.297  0.3694 -0.0088 -0.7646
12362SOL     OW43946  10.114   6.530   1.379 -0.2365 -0.1908  0.5878
12362SOL    HW143947  10.207   6.546   1.361 -0.5042  0.9888  0.1781
12362SOL    HW243948  10.099   6.575   1.463 -0.4091 -0.4859  0.7136
12363SOL     OW43949   9.306   5.458   1.506  0.0452  0.2175  0.0016
12363SOL    HW143950   9.325   5.366   1.525  1.0641  0.2836 -0.6124
12363SOL    HW243951   9.287   5.460   1.412  1.0562  0.7624 -0.2138
12364SOL     OW43952  11.528  11.331  10.111  0.4131  0.4557 -0.6758
12364SOL    HW143953  11.456  11.272  10.129  0.6434 -0.1487 -1.6686
12364SOL    HW243954  11.592  11.278  10.064  1.0861  1.2181 -0.6496
12365SOL     OW43955  11.732  10.820   4.459  0.1565 -0.3850  0.8905
12365SOL    HW143956  11.818  10.813   4.501  0.7076  1.4613  0.2000
12365SOL    HW243957  11.673  10.770   4.515  1.4618 -0.6873  2.0455
12366SOL     OW43958   4.276   7.740   1.999 -0.0099  0.2976 -0.0554
12366SOL    HW143959   4.335   7.752   1.924  0.6970  0.9113  0.5862
12366SOL    HW243960   4.334   7.740   2.075 -0.7309 -0.2581  0.4981
12367SOL     OW43961  10.865   6.474  12.383 -0.0870  0.0841 -0.2023
12367SOL    HW143962  10.811   6.553  12.392  0.7706  0.8242 -1.2745
12367SOL    HW243963  10.952   6.506  12.363  0.7727 -1.1029  1.3829
12368SOL     OW43964   9.665  11.649   4.364 -0.1718  0.3127  0.7551
12368SOL    HW143965   9.615  11.657   4.444 -2.8397  0.0395 -0.7773
12368SOL    HW243966   9.684  11.740   4.338  0.5825  0.4022  1.5749
12369SOL     OW43967   9.168   8.672   8.787 -0.2435 -0.4519 -0.9635
12369SOL    HW143968   9.099   8.731   8.756 -1.1940 -1.0735 -0.0891
12369SOL    HW243969   9.229   8.665   8.713  0.5781  2.5678 -0.7010
12370SOL     OW43970  10.927   0.748   8.295  0.3870  0.0976 -0.0871
12370SOL    HW143971  10.990   0.805   8.250  0.7606 -0.4926 -0.3282
12370SOL    HW243972  10.943   0.661   8.258 -0.0552 -0.1964  0.4005
12371SOL     OW43973   4.651   3.397   9.252  0.3446 -0.4382  0.0718
12371SOL    HW143974   4.640   3.479   9.204 -3.4513 -0.6079  0.3552
12371SOL    HW243975   4.678   3.334   9.185  0.8742  0.5005 -0.6329
12372SOL     OW43976   3.827   5.576   3.574 -0.0421  0.3374  0.4902
12372SOL    HW143977   3.794   5.655   3.531  0.2054  0.6678  0.8941
12372SOL    HW243978   3.919   5.596   3.594 -0.0432  0.0438  0.8137
12373SOL     OW43979   7.598   4.311   0.492 -0.4898  0.4821 -0.1476
12373SOL    HW143980   7.568   4.304   0.401  1.3438 -0.4614 -0.7461
12373SOL    HW243981   7.553   4.240   0.538  2.7580 -2.9200 -1.6859
12374SOL     OW43982   1.304   7.918   2.236 -0.6792 -0.7982 -0.7635
12374SOL    HW143983   1.400   7.924   2.228 -0.6183  0.9022  0.4946
12374SOL    HW243984   1.271   7.980   2.172 -0.7362  1.2768  1.1331
12375SOL     OW43985   4.934   6.940   7.749  0.2705 -0.1359  0.0548
12375SOL    HW143986   4.976   6.865   7.791  2.5728  1.6359  1.1976
12375SOL    HW243987   4.982   6.952   7.668 -1.7213 -1.2950 -1.3753
12376SOL     OW43988   8.016   2.409  11.929  0.0854 -0.1673  0.2344
12376SOL    HW143989   8.035   2.319  11.904  1.6936  0.2643 -0.2656
12376SOL    HW243990   8.064   2.462  11.864 -0.1167  1.0241  1.0267
12377SOL     OW43991   6.955   4.180   1.016 -0.3167 -0.1218 -0.1758
12377SOL    HW143992   7.011   4.160   0.941  2.8925 -0.0569  2.0290
12377SOL    HW243993   6.933   4.273   1.005  2.1774  0.5558  0.1346
12378SOL     OW43994   7.881  12.081   6.038  0.7868  0.2330  0.3083
12378SOL    HW143995   7.974  12.099   6.027  0.5751  0.9680 -0.4177
12378SOL    HW243996   7.843  12.097   5.951  0.2403 -1.8018  0.1288
12379SOL     OW43997  12.470   0.624   1.722  0.2779 -0.1609 -0.2395
12379SOL    HW143998  12.534   0.686   1.758  1.7862 -1.7421 -0.0227
12379SOL    HW243999  12.486   0.625   1.628 -0.6389  0.7612 -0.3924
12380SOL     OW44000   7.587   0.138   9.806 -0.5024  0.1865  0.4401
12380SOL    HW144001   7.625   0.157   9.892  0.2013 -1.6343  0.5731
12380SOL    HW244002   7.649   0.175   9.743 -0.2128  0.1574  0.7080
12381SOL     OW44003   8.661   9.496   8.536  0.3656  0.5035 -0.0217
12381SOL    HW144004   8.666   9.520   8.444 -1.2948  0.8275 -0.0721
12381SOL    HW244005   8.598   9.424   8.538 -0.7157  1.4264  0.9810
12382SOL     OW44006   6.561   9.937   1.084 -0.0322 -0.0616 -0.3174
12382SOL    HW144007   6.604  10.002   1.029  0.5753 -0.0777  0.1277
12382SOL    HW244008   6.633   9.890   1.127 -0.4984  0.3681  0.9811
12383SOL     OW44009   2.529   4.955  11.969 -0.2125  0.4300  0.1907
12383SOL    HW144010   2.622   4.957  11.945 -0.4618  1.2827 -0.8094
12383SOL    HW244011   2.526   4.999  12.054  0.1699  1.5898 -0.3630
12384SOL     OW44012   1.294  10.048   3.985 -0.4903  0.0141 -0.1520
12384SOL    HW144013   1.228  10.090   3.930 -1.1806 -1.5308 -0.5552
12384SOL    HW244014   1.279   9.954   3.974  1.6419 -0.3931 -0.0765
12385SOL     OW44015  12.466   7.833   7.440  0.2545 -0.2204 -0.5399
12385SOL    HW144016  12.501   7.843   7.351 -0.0518 -0.1268 -0.6514
12385SOL    HW244017  12.380   7.794   7.427 -0.1760  0.6365 -0.3419
12386SOL     OW44018  10.536  11.473   5.369 -0.4735  0.6120 -0.2153
12386SOL    HW144019  10.494  11.392   5.398 -0.0039  0.8565  1.2455
12386SOL    HW244020  10.544  11.525   5.448  3.3102  0.2488 -0.1761
12387SOL     OW44021   8.257   9.308   2.952 -1.0607  0.2827 -0.3622
12387SOL    HW144022   8.324   9.377   2.959 -0.6670  0.1395 -2.2373
12387SOL    HW244023   8.175   9.352   2.975 -0.5118  0.7826  0.7070
12388SOL     OW44024   2.792   7.583   3.465 -0.5451 -0.3512  0.1632
12388SOL    HW144025   2.717   7.528   3.486 -2.1041  1.0911 -1.3028
12388SOL    HW244026   2.756   7.652   3.409  1.8550  0.4977 -0.4504
12389SOL     OW44027   7.037   1.366   5.422 -0.0006  0.6213  0.2077
12389SOL    HW144028   6.966   1.371   5.486  0.6710  1.6026  0.9088
12389SOL    HW244029   6.996   1.333   5.343 -0.8440 -0.6905  1.1527
12390SOL     OW44030   8.465   6.628  10.054  0.1515 -0.2380  0.3421
12390SOL    HW144031   8.394   6.565  10.053 -1.8304  1.8642 -0.5451
12390SOL    HW244032   8.443   6.689  10.124  1.5912 -0.0463  0.6652
12391SOL     OW44033   7.062   0.516   1.165  0.1339  0.0515 -0.7061
12391SOL    HW144034   7.097   0.470   1.241 -0.6759  0.2511 -0.2028
12391SOL    HW244035   7.130   0.506   1.098  1.0627  0.2671  0.1742
12392SOL     OW44036   2.878   9.299   4.421 -0.2983 -0.0309 -0.1248
12392SOL    HW144037   2.929   9.375   4.448 -0.1178 -0.2623  0.1881
12392SOL    HW244038   2.828   9.329   4.345 -0.0827  0.3431 -0.1184
12393SOL     OW44039   5.009   0.121   0.317  0.0382 -0.2581 -0.6320
12393SOL    HW144040   4.917   0.145   0.311 -0.0151 -0.5866 -1.2554
12393SOL    HW244041   5.050   0.193   0.365 -0.3009  0.5759 -1.5548
12394SOL     OW44042  11.010   8.850   4.178  0.5529 -0.3315 -0.3180
12394SOL    HW144043  11.061   8.780   4.219  0.3384 -0.3834 -0.1391
12394SOL    HW244044  11.068   8.926   4.179  1.1590 -0.7462 -1.3890
12395SOL     OW44045   7.162   3.925  11.550  0.2755  0.7454 -0.0664
12395SOL    HW144046   7.202   4.003  11.512 -0.9408  1.2172 -0.4068
12395SOL    HW244047   7.149   3.948  11.642 -0.5966  1.1612 -0.2888
12396SOL     OW44048   7.167   4.593  11.251  0.1605 -0.0808 -0.3524
12396SOL    HW144049   7.143   4.671  11.201  1.2710  0.2489 -0.3967
12396SOL    HW244050   7.163   4.621  11.342  0.6142  0.0413 -0.3710
12397SOL     OW44051   1.583   4.078   6.190 -0.1167  0.7594  0.1637
12397SOL    HW144052   1.501   4.066   6.143 -0.0847  0.4691  0.1811
12397SOL    HW244053   1.639   4.006   6.160 -0.1072  0.5547  0.6673
12398SOL     OW44054   2.516  11.128  11.321 -0.4984  0.3609 -0.3805
12398SOL    HW144055   2.499  11.043  11.362 -1.3437  1.0015  0.6819
12398SOL    HW244056   2.610  11.128  11.305 -0.4650 -0.7325 -0.3000
12399SOL     OW44057  11.339   5.725   5.638  1.0076  0.1277  0.6953
12399SOL    HW144058  11.270   5.732   5.571  1.5779 -3.3577 -0.4576
12399SOL    HW244059  11.377   5.813   5.641 -0.7757  1.1152 -1.6501
12400SOL     OW44060   6.114  12.097   8.049 -0.0238 -0.2916  0.3456
12400SOL    HW144061   6.051  12.076   7.980  0.6869 -0.3500 -0.2897
12400SOL    HW244062   6.181  12.150   8.006  0.4276 -0.3206  0.9968
12401SOL     OW44063  11.269   2.511  12.268 -0.1913 -0.1364 -0.1739
12401SOL    HW144064  11.265   2.606  12.276  0.2899  0.0599 -1.9491
12401SOL    HW244065  11.284   2.495  12.175 -2.4692 -2.0118 -0.3306
12402SOL     OW44066   5.553   4.689   3.122 -0.9242  0.1340 -0.5386
12402SOL    HW144067   5.558   4.616   3.060 -0.6098 -0.8939  0.6652
12402SOL    HW244068   5.563   4.649   3.208  2.7725  1.9086  0.0663
12403SOL     OW44069   2.397   5.432   4.809 -0.4005 -0.1704 -0.4606
12403SOL    HW144070   2.445   5.418   4.890 -0.6303  1.8251  0.0870
12403SOL    HW244071   2.465   5.438   4.742 -0.1476 -0.9362 -0.2805
12404SOL     OW44072  10.373   1.341  11.860 -0.6261 -0.3285 -0.9232
12404SOL    HW144073  10.309   1.391  11.910  0.4498 -0.7616  0.9402
12404SOL    HW244074  10.324   1.264  11.829 -1.0144 -0.6761  0.5181
12405SOL     OW44075   7.996   2.835   5.204  0.4017  0.4981 -0.2775
12405SOL    HW144076   8.079   2.820   5.248  0.6436  1.3614 -0.4178
12405SOL    HW244077   8.018   2.890   5.129 -0.6160  3.2286  1.2696
12406SOL     OW44078   5.996  11.877  10.450 -0.3166 -0.2695  0.3856
12406SOL    HW144079   6.050  11.807  10.487  1.6173  1.0260  0.2043
12406SOL    HW244080   5.972  11.932  10.525  0.1252  0.1120  0.2540
12407SOL     OW44081   1.719   9.540   9.006  0.2224 -0.3649 -0.2004
12407SOL    HW144082   1.651   9.601   8.977  0.1971 -0.3145 -0.0335
12407SOL    HW244083   1.690   9.511   9.093  0.5331 -0.1649 -0.0278
12408SOL     OW44084   4.114   6.213  10.033  0.0948  0.1513 -0.3431
12408SOL    HW144085   4.139   6.212  10.125 -0.0079 -0.8259 -0.3196
12408SOL    HW244086   4.023   6.183  10.032 -0.5001  1.8328 -0.6116
12409SOL     OW44087  12.257   8.755   8.076  0.4895  0.1596  0.1223
12409SOL    HW144088  12.242   8.801   8.158  0.7778  1.9918 -0.7858
12409SOL    HW244089  12.339   8.706   8.089 -0.1287 -0.5902  1.3040
12410SOL     OW44090   4.323   7.133   2.284  0.3919 -0.5398 -0.5777
12410SOL    HW144091   4.272   7.094   2.213 -0.0422 -0.2885 -0.4075
12410SOL    HW244092   4.319   7.227   2.267  1.3998 -0.5580 -0.9632
12411SOL     OW44093   3.605   8.663   7.092 -0.2437 -0.1068 -0.2852
12411SOL    HW144094   3.650   8.706   7.019 -0.4861 -0.5942 -0.7260
12411SOL    HW244095   3.512   8.668   7.070 -0.2756 -0.9108 -0.3791
12412SOL     OW44096   4.206   0.911   7.131  0.1082 -0.0591 -0.0483
12412SOL    HW144097   4.250   0.995   7.117 -1.5948  0.9221  0.0677
12412SOL    HW244098   4.158   0.923   7.213 -1.4727 -0.5228 -0.8571
12413SOL     OW44099   3.670  11.949   0.038  0.1421 -0.2250 -0.6036
12413SOL    HW144100   3.667  11.856   0.017  0.3642 -0.5933  0.8843
12413SOL    HW244101   3.690  11.952   0.132  0.1517  1.3210 -0.6276
12414SOL     OW44102  11.802   3.123   6.603  0.4212  0.2641  0.2414
12414SOL    HW144103  11.862   3.068   6.551 -0.1662 -0.7592  0.6204
12414SOL    HW244104  11.830   3.110   6.693  1.2758  1.8449  0.2432
12415SOL     OW44105   4.735   1.957   7.965  0.0853  0.1302  0.1054
12415SOL    HW144106   4.673   1.998   8.025 -3.5062 -0.1008 -3.0554
12415SOL    HW244107   4.738   1.865   7.991  0.3747  0.4583  1.2568
12416SOL     OW44108   9.594   7.465  11.057 -0.0147  0.1045 -0.4856
12416SOL    HW144109   9.658   7.393  11.056  1.0864  1.0611 -0.6399
12416SOL    HW244110   9.627   7.525  11.123  0.9194  2.0704 -2.6372
12417SOL     OW44111  10.058  11.642   3.704 -0.1677  0.2955 -0.0477
12417SOL    HW144112  10.131  11.683   3.658  0.1055 -0.1784 -0.0456
12417SOL    HW244113  10.097  11.569   3.751 -0.3976  0.8841  1.1110
12418SOL     OW44114   6.421   9.489   2.232 -0.1030 -0.4537  0.2033
12418SOL    HW144115   6.491   9.440   2.189 -0.8156 -0.4778 -1.0062
12418SOL    HW244116   6.463   9.568   2.266  0.4659 -0.3363 -0.7390
12419SOL     OW44117  10.916  10.901   5.117  0.1569 -0.1508 -0.0759
12419SOL    HW144118  10.948  10.968   5.057  1.0766 -0.5141  0.0005
12419SOL    HW244119  10.880  10.833   5.061 -0.3035  0.1630 -0.1677
12420SOL     OW44120   6.398   0.645   5.080 -0.3028  0.3600  0.1243
12420SOL    HW144121   6.453   0.600   5.016 -1.2962  0.0378 -0.5251
12420SOL    HW244122   6.309   0.634   5.047 -0.7220  1.2905  0.8903
12421SOL     OW44123   6.826  10.367   6.533 -0.0889  0.2305  0.3922
12421SOL    HW144124   6.919  10.356   6.511 -0.4238 -1.8728 -0.1850
12421SOL    HW244125   6.820  10.337   6.624  0.0057  1.6802  0.8945
12422SOL     OW44126   2.887   7.355  12.124  0.1413 -0.3326 -0.2588
12422SOL    HW144127   2.829   7.430  12.113  0.8951  0.1855 -0.8042
12422SOL    HW244128   2.833   7.289  12.169 -0.6689  0.3548 -0.2001
12423SOL     OW44129   3.146   3.255   8.266  0.8686  0.2559 -0.0298
12423SOL    HW144130   3.144   3.160   8.257  0.3046  0.3439 -0.9343
12423SOL    HW244131   3.204   3.284   8.195 -0.2117  0.6859 -0.7506
12424SOL     OW44132   5.291   1.658   4.541  0.0056 -0.4548 -0.2283
12424SOL    HW144133   5.235   1.591   4.579  0.5660  0.1595  1.8715
12424SOL    HW244134   5.235   1.736   4.535 -0.1704 -0.6363 -1.0007
12425SOL     OW44135   9.436   1.378   3.224 -0.2811  0.0839 -0.0628
12425SOL    HW144136   9.386   1.383   3.305  1.4340 -1.3102  1.1480
12425SOL    HW244137   9.515   1.429   3.241 -0.7211  1.3467 -1.5607
12426SOL     OW44138   0.801   2.956   3.302  0.3600  0.6483  0.3203
12426SOL    HW144139   0.828   2.934   3.213 -0.8450  0.4218 -0.0082
12426SOL    HW244140   0.723   3.011   3.290 -0.8877 -0.8466  1.2298
12427SOL     OW44141   2.621   1.875  11.172 -0.1506  0.6607 -0.0276
12427SOL    HW144142   2.631   1.963  11.206  2.3152 -0.3872  2.3225
12427SOL    HW244143   2.586   1.824  11.245 -1.7987 -0.3229 -1.4240
12428SOL     OW44144   2.877   3.878   2.805  0.1020 -0.1342  0.5063
12428SOL    HW144145   2.840   3.966   2.810 -1.2190 -0.7401  2.7530
12428SOL    HW244146   2.833   3.838   2.730 -0.7900  0.4710  0.6898
12429SOL     OW44147   2.351   5.369   4.406  0.3991 -0.2875 -0.3241
12429SOL    HW144148   2.298   5.449   4.407  1.1955  0.2547  0.0914
12429SOL    HW244149   2.438   5.399   4.379  0.9480 -0.8438  0.7689
12430SOL     OW44150   9.517   4.254   7.381  0.0237  0.0903  0.0905
12430SOL    HW144151   9.590   4.244   7.442 -0.3204  0.9815  0.6784
12430SOL    HW244152   9.546   4.209   7.301  0.2853 -1.5145  1.0527
12431SOL     OW44153   4.831   2.667   1.669  0.4201  0.6137 -0.5098
12431SOL    HW144154   4.859   2.589   1.716 -1.6331  0.3304  0.3223
12431SOL    HW244155   4.759   2.638   1.613  1.3370  1.4086 -2.1804
12432SOL     OW44156   9.047   2.759   7.463  0.5612 -0.4041 -0.1765
12432SOL    HW144157   9.138   2.789   7.470  0.5963 -0.2781 -1.1150
12432SOL    HW244158   9.005   2.821   7.403 -0.2622 -0.2097  0.5669
12433SOL     OW44159   5.504   6.478   7.519  0.5771 -0.2611 -0.2009
12433SOL    HW144160   5.487   6.488   7.613  1.1146  0.9130 -0.2174
12433SOL    HW244161   5.448   6.404   7.493 -0.2891 -0.0040  0.8432
12434SOL     OW44162   8.613   5.349   4.133  0.5634  0.9635 -0.2881
12434SOL    HW144163   8.619   5.303   4.217  2.0332 -0.4046 -1.0735
12434SOL    HW244164   8.532   5.399   4.139  0.4253  0.5995  1.7874
12435SOL     OW44165   5.820   1.255   9.785  0.3127  0.0905 -0.4551
12435SOL    HW144166   5.839   1.260   9.692 -0.0680 -0.0226 -0.5423
12435SOL    HW244167   5.736   1.209   9.790  1.2581 -1.6410  0.0508
12436SOL     OW44168  10.051   9.329   8.410  0.1571  0.1282  0.0738
12436SOL    HW144169  10.141   9.360   8.410 -0.0261  0.7050 -0.5864
12436SOL    HW244170   9.998   9.408   8.426 -0.2802  0.0500 -0.8985
12437SOL     OW44171   4.962   5.573   4.269  0.0901 -0.1260  0.4018
12437SOL    HW144172   4.873   5.607   4.259 -0.5013 -0.3454  3.8022
12437SOL    HW244173   5.016   5.652   4.279 -0.1811 -0.0107  1.0541
12438SOL     OW44174   9.648   9.726   6.357 -0.1494  0.4812 -0.3936
12438SOL    HW144175   9.591   9.674   6.299 -0.3184  0.6848 -0.4091
12438SOL    HW244176   9.663   9.669   6.432 -0.9585  0.6945 -0.0576
12439SOL     OW44177   1.388   5.749   9.264 -0.4290 -0.2541 -0.4946
12439SOL    HW144178   1.345   5.716   9.185 -0.6939  1.3566 -1.0612
12439SOL    HW244179   1.317   5.769   9.324 -0.2212 -1.5926  0.2345
12440SOL     OW44180   5.387   3.223   7.650  0.2143  0.0219  0.5183
12440SOL    HW144181   5.469   3.216   7.601  0.3286 -2.4884  0.9422
12440SOL    HW244182   5.319   3.206   7.585  0.2881 -1.7628  0.8506
12441SOL     OW44183   3.592   2.973   9.840 -0.2009  0.2650  0.1551
12441SOL    HW144184   3.627   2.946   9.755  0.4818  0.1377  0.4658
12441SOL    HW244185   3.668   3.006   9.888 -0.6000  0.4573  0.6712
12442SOL     OW44186   7.970   6.851   1.870  0.1552 -0.1244  0.5377
12442SOL    HW144187   8.051   6.896   1.894 -0.3576  2.2379 -1.7673
12442SOL    HW244188   7.902   6.894   1.922 -0.3828  2.2056 -1.9045
12443SOL     OW44189   7.495   5.709   2.415 -0.7070 -0.0422  0.0766
12443SOL    HW144190   7.446   5.646   2.362 -1.7222 -0.2302  1.1892
12443SOL    HW244191   7.577   5.664   2.435 -0.5391 -0.1765 -0.8686
12444SOL     OW44192   2.687   3.648   2.635  0.3150  0.9505  0.0356
12444SOL    HW144193   2.643   3.716   2.686 -2.2869 -0.5318 -0.0212
12444SOL    HW244194   2.633   3.638   2.556  0.0351 -1.7214  0.4550
12445SOL     OW44195   5.475   0.495  11.352 -0.0535  0.1784  0.3518
12445SOL    HW144196   5.565   0.513  11.325 -0.5346  1.7340 -0.3659
12445SOL    HW244197   5.460   0.403  11.329  0.8589  0.3407 -1.0030
12446SOL     OW44198   3.736   5.920  10.181  0.3665  0.3858 -0.2462
12446SOL    HW144199   3.726   6.013  10.198 -2.1945  0.3020 -0.9941
12446SOL    HW244200   3.660   5.896  10.129 -1.1178 -2.8250  2.9582
12447SOL     OW44201   8.658   0.763   6.816 -0.3617 -0.2713 -0.0162
12447SOL    HW144202   8.724   0.749   6.884  0.9253 -2.4742 -1.5366
12447SOL    HW244203   8.576   0.734   6.855  0.0430  0.0840  1.1180
12448SOL     OW44204  11.456  12.005   0.728  0.1618  0.5427 -0.3003
12448SOL    HW144205  11.467  12.005   0.823 -1.2433  1.5225 -0.1167
12448SOL    HW244206  11.503  11.927   0.699 -0.5695 -0.5671  1.3476
12449SOL     OW44207   0.711   7.177   6.228  0.3638 -0.0645 -0.1943
12449SOL    HW144208   0.735   7.113   6.161 -0.3975  1.4663 -1.9915
12449SOL    HW244209   0.731   7.262   6.189  1.3577  0.8701  2.1240
12450SOL     OW44210   5.922   2.526  12.180 -0.1839  0.3138 -0.3023
12450SOL    HW144211   5.976   2.497  12.107  1.0046  0.2014  0.5767
12450SOL    HW244212   5.984   2.540  12.251 -1.4724 -1.4834  1.2936
12451SOL     OW44213   8.143  11.249   3.899  0.2509 -0.1612  0.1881
12451SOL    HW144214   8.093  11.205   3.830 -0.2101  0.4701  0.1019
12451SOL    HW244215   8.235  11.238   3.874  0.0680  0.5978 -0.8721
12452SOL     OW44216   3.529   3.753   0.241 -0.0496  0.4951  0.2081
12452SOL    HW144217   3.532   3.846   0.218 -1.1926  0.0199 -2.2181
12452SOL    HW244218   3.440   3.726   0.219 -0.1833 -0.8860  2.2732
12453SOL     OW44219   0.570   0.594  10.919 -0.0797  0.4091 -0.2316
12453SOL    HW144220   0.478   0.596  10.945 -0.2255 -0.6496 -0.6412
12453SOL    HW244221   0.617   0.570  10.999 -0.1094  1.2667  0.0604
12454SOL     OW44222   5.190  10.232   9.760  0.1402  0.1060  0.0369
12454SOL    HW144223   5.278  10.198   9.777 -0.1018 -0.6140 -0.1173
12454SOL    HW244224   5.135  10.154   9.752 -0.3216  0.5035 -0.8947
12455SOL     OW44225   0.255   7.421  12.344 -0.0305 -0.0544 -0.1093
12455SOL    HW144226   0.172   7.455  12.378  0.0658  1.5377 -1.3528
12455SOL    HW244227   0.273   7.475  12.266  1.1673 -1.6841 -1.0216
12456SOL     OW44228   6.024   8.316   5.641 -0.4321  0.3349  0.3656
12456SOL    HW144229   5.959   8.276   5.583  1.2693 -1.1668 -0.6338
12456SOL    HW244230   6.003   8.281   5.728 -0.5470 -0.7114 -0.0646
12457SOL     OW44231   8.046   9.486   3.016  0.4684  0.0617 -0.6001
12457SOL    HW144232   8.073   9.565   3.064  1.4489  0.5578 -1.8921
12457SOL    HW244233   7.954   9.475   3.038  0.7577  0.5349  0.9955
12458SOL     OW44234   1.270   4.347   5.590 -0.3647 -0.0634 -0.0400
12458SOL    HW144235   1.305   4.284   5.527  1.1127 -1.2928  1.8785
12458SOL    HW244236   1.307   4.431   5.564  1.3286 -0.7767 -0.0667
12459SOL     OW44237   3.838   0.253   0.650  1.0155 -0.0250  0.2348
12459SOL    HW144238   3.810   0.307   0.724  0.4771  1.5611 -1.0760
12459SOL    HW244239   3.824   0.308   0.573 -4.0052 -3.4276 -1.8355
12460SOL     OW44240   1.001  11.086   2.612  0.0149  0.4515 -0.2263
12460SOL    HW144241   0.976  11.018   2.550 -1.0235  0.1234  0.5154
12460SOL    HW244242   1.095  11.097   2.600  0.3558 -1.6558  0.1382
12461SOL     OW44243   2.785   1.713   9.050  0.2759  0.2141 -0.0099
12461SOL    HW144244   2.763   1.620   9.048 -0.2745  0.3287  0.3544
12461SOL    HW244245   2.761   1.741   9.139  1.4873  0.4587  0.2694
12462SOL     OW44246   8.021   9.011   8.488  0.4066  0.1284  0.2329
12462SOL    HW144247   7.968   8.971   8.419  0.5967  0.0332  0.1416
12462SOL    HW244248   8.027   9.104   8.462 -0.6345  0.3727  0.8183
12463SOL     OW44249   7.466   8.211   7.029 -0.0766  0.2413  0.0619
12463SOL    HW144250   7.457   8.212   7.124 -0.2037  1.0088  0.0470
12463SOL    HW244251   7.377   8.205   6.996 -0.0976  0.8071 -0.0077
12464SOL     OW44252   9.940  12.322   5.599  0.3736  0.0454  0.4300
12464SOL    HW144253   9.953  12.359   5.512  0.1498 -0.3183  0.2383
12464SOL    HW244254   9.965  12.230   5.590 -0.6521 -0.2588  0.4765
12465SOL     OW44255   3.022  11.637   3.308  0.1464 -0.8426 -0.4420
12465SOL    HW144256   3.083  11.608   3.240 -0.7621 -0.8951 -1.2455
12465SOL    HW244257   3.010  11.730   3.291  0.2596 -0.7599 -0.0742
12466SOL     OW44258   9.328   8.552  12.190  0.3652  0.5697  0.3225
12466SOL    HW144259   9.397   8.487  12.176  0.5435  0.9988 -0.8537
12466SOL    HW244260   9.331   8.608  12.113 -3.5524 -1.4462 -1.5712
12467SOL     OW44261  10.405   6.920   1.878 -0.4365  0.0758 -0.1195
12467SOL    HW144262  10.319   6.885   1.855 -0.8939  0.8103  0.4388
12467SOL    HW244263  10.462   6.892   1.807 -0.3128 -3.4808  1.1696
12468SOL     OW44264  12.158   9.470   1.031 -0.1737  0.3532  0.2553
12468SOL    HW144265  12.228   9.533   1.049  0.6949 -1.2016  2.8207
12468SOL    HW244266  12.079   9.514   1.063  0.2276  0.6375  0.8735
12469SOL     OW44267   8.293   6.468   4.906 -0.2772  0.5010 -0.0657
12469SOL    HW144268   8.362   6.403   4.891 -1.2963 -0.7779  0.5246
12469SOL    HW244269   8.314   6.505   4.992 -0.5345 -0.1982  0.3136
12470SOL     OW44270   4.459   4.418  10.382 -0.1451 -1.1484  0.1890
12470SOL    HW144271   4.474   4.423  10.288  0.4789  0.8921  0.3477
12470SOL    HW244272   4.364   4.420  10.391 -0.1929 -0.6678 -0.3816
12471SOL     OW44273   4.362  11.145   5.076  0.2067  0.0912 -0.0602
12471SOL    HW144274   4.325  11.093   5.147 -0.5189 -0.7776 -1.0460
12471SOL    HW244275   4.299  11.217   5.064 -0.1318 -0.2596 -0.4032
12472SOL     OW44276   0.972  12.330   8.760  0.2633  0.1503 -0.1637
12472SOL    HW144277   1.026  12.407   8.777  0.7813 -0.3946  0.7742
12472SOL    HW244278   0.884  12.356   8.785  0.1862  0.8398 -1.0872
12473SOL     OW44279   5.227   8.744  10.320  0.0351 -0.3234  0.1530
12473SOL    HW144280   5.268   8.683  10.381  1.4473  0.2185 -0.2181
12473SOL    HW244281   5.272   8.827  10.334 -0.8613  0.2682 -0.3609
12474SOL     OW44282   2.999  10.142   1.635 -0.8670  0.0487 -0.4840
12474SOL    HW144283   2.932  10.179   1.578  1.1215  1.6106 -1.9862
12474SOL    HW244284   3.059  10.097   1.575  1.5714  2.1702  0.1832
12475SOL     OW44285   5.529   5.319   0.266  1.0998  0.3645 -0.0328
12475SOL    HW144286   5.490   5.334   0.352  0.6737  0.1352 -0.1835
12475SOL    HW244287   5.546   5.225   0.263 -1.8504 -0.2761 -1.3918
12476SOL     OW44288   0.756  10.690   0.390 -0.1235  0.2438 -0.0524
12476SOL    HW144289   0.696  10.760   0.363  0.1913  1.0377  1.1989
12476SOL    HW244290   0.700  10.614   0.403 -0.5077  0.3174 -1.2324
12477SOL     OW44291  11.233   9.383   3.794  0.6159 -0.2089 -0.2577
12477SOL    HW144292  11.199   9.391   3.705  0.3312  2.9828  0.0061
12477SOL    HW244293  11.157   9.399   3.850  0.9336 -1.4776  0.5606
12478SOL     OW44294   9.933   0.315   4.252 -0.5527 -0.3380  0.0913
12478SOL    HW144295   9.907   0.404   4.278  1.0717  0.0798  0.3441
12478SOL    HW244296   9.855   0.280   4.208 -1.0007  1.4493 -0.6204
12479SOL     OW44297   4.580   5.395  10.260  0.3902 -0.6059  0.3976
12479SOL    HW144298   4.604   5.303  10.264 -0.0821 -0.7050  1.0325
12479SOL    HW244299   4.510   5.399  10.196  0.9054 -0.5726 -0.1736
12480SOL     OW44300   5.447   6.172   7.950  0.3592  0.3394  0.0194
12480SOL    HW144301   5.360   6.210   7.961 -0.2720 -1.3454  1.1375
12480SOL    HW244302   5.475   6.149   8.039  0.0976 -2.9988 -0.6356
12481SOL     OW44303   4.232   5.035   9.121 -0.3243 -0.4116  0.4659
12481SOL    HW144304   4.267   5.092   9.053  1.1625 -0.2944  1.2688
12481SOL    HW244305   4.310   4.994   9.160 -1.1306 -0.5822  1.9910
12482SOL     OW44306   7.936   8.559  10.543 -0.0924  0.7781 -0.2795
12482SOL    HW144307   8.027   8.571  10.570 -0.2235 -0.0635  0.5779
12482SOL    HW244308   7.941   8.536  10.451  0.6043  0.1421 -0.0865
12483SOL     OW44309   7.204   7.080   7.819  0.1832 -0.4758 -0.0476
12483SOL    HW144310   7.206   7.153   7.881  0.1600 -0.3676 -0.1717
12483SOL    HW244311   7.292   7.043   7.821  0.0147 -0.8537  0.4958
12484SOL     OW44312   1.364   8.983  10.076 -0.2580 -0.2448  0.1496
12484SOL    HW144313   1.405   9.019  10.154 -1.0305 -0.6670  0.7723
12484SOL    HW244314   1.435   8.972  10.014 -0.1536  4.0470 -0.8102
12485SOL     OW44315   9.262   8.603  10.743  0.0039 -0.1799 -0.0720
12485SOL    HW144316   9.242   8.554  10.823 -1.4030  1.3525  0.5751
12485SOL    HW244317   9.266   8.695  10.771 -1.5348  0.5043 -1.9013
12486SOL     OW44318   1.226   7.102   8.527 -0.2873  0.0965 -0.0546
12486SOL    HW144319   1.314   7.090   8.490 -1.0331  0.3430 -2.0142
12486SOL    HW244320   1.180   7.155   8.462 -2.5692 -1.8310 -0.1278
12487SOL     OW44321   0.205   9.415   5.504 -0.1179  0.4019 -0.0456
12487SOL    HW144322   0.118   9.377   5.489  1.2496 -2.3896 -1.6595
12487SOL    HW244323   0.217   9.476   5.431  0.2896 -1.2919 -1.4510
12488SOL     OW44324   8.632   2.635  12.262 -0.2958 -0.5165  0.2465
12488SOL    HW144325   8.662   2.558  12.214 -2.6679 -0.6501 -1.1458
12488SOL    HW244326   8.664   2.709  12.210 -0.7808 -0.6262 -0.2151
12489SOL     OW44327   9.902   4.173  11.170 -0.3083 -0.1152  0.0213
12489SOL    HW144328   9.979   4.135  11.127  0.2033  2.2925 -1.4165
12489SOL    HW244329   9.934   4.256  11.205 -1.9447  0.2684  0.6683
12490SOL     OW44330   4.362   8.425   1.487  0.3582 -0.1318 -0.2810
12490SOL    HW144331   4.396   8.507   1.450  1.1606 -0.0292  0.6450
12490SOL    HW244332   4.389   8.358   1.424  1.0178  0.1305 -0.2863
12491SOL     OW44333   0.553   8.518   7.248 -0.4130 -0.1457 -0.4079
12491SOL    HW144334   0.561   8.597   7.301  0.6168  0.5176 -1.5081
12491SOL    HW244335   0.487   8.465   7.293 -1.1315  1.3388  0.3318
12492SOL     OW44336   7.820   2.459   3.285  0.0984 -0.0869  0.0559
12492SOL    HW144337   7.868   2.387   3.326 -0.2737 -0.1746  0.3365
12492SOL    HW244338   7.846   2.454   3.192 -0.2526 -0.8486 -0.0142
12493SOL     OW44339   2.198   3.130   9.543  0.8385  0.0345 -0.2690
12493SOL    HW144340   2.267   3.124   9.609  2.5634  0.2075 -1.9695
12493SOL    HW244341   2.188   3.040   9.512 -0.5444 -0.1893  0.7265
12494SOL     OW44342   5.001   8.352   7.598 -0.1788  0.1745 -0.2204
12494SOL    HW144343   4.998   8.356   7.694 -2.2332  0.5720 -0.2698
12494SOL    HW244344   5.049   8.431   7.573 -0.1674  0.3867  0.4467
12495SOL     OW44345   7.701  12.438   0.994 -0.3832  0.1733 -0.0435
12495SOL    HW144346   7.792  12.445   1.024  0.0295 -0.7075 -1.0076
12495SOL    HW244347   7.653  12.499   1.049  0.8610  0.9631  0.2205
12496SOL     OW44348   8.514   0.522   3.798 -0.1338  0.0625 -0.7279
12496SOL    HW144349   8.587   0.535   3.859 -0.5655 -1.2373  0.0959
12496SOL    HW244350   8.545   0.560   3.716  0.8803  0.8777 -0.0028
12497SOL     OW44351   8.173  12.428   2.160  0.0563  0.3840 -0.1209
12497SOL    HW144352   8.266  12.413   2.176  0.6274  2.3819 -1.1878
12497SOL    HW244353   8.171  12.484   2.082 -2.1522 -1.2363 -1.3208
12498SOL     OW44354   2.717   0.666   3.816  0.3568 -0.4481  0.3289
12498SOL    HW144355   2.802   0.673   3.860  0.2554 -1.9160  0.8012
12498SOL    HW244356   2.653   0.676   3.886  0.1093  0.7355 -0.0387
12499SOL     OW44357   2.738   7.160   6.917  0.4187 -0.3712  0.1358
12499SOL    HW144358   2.792   7.121   6.986 -0.6953 -3.5289 -0.6332
12499SOL    HW244359   2.800   7.182   6.847  1.2590  0.7911  1.1923
12500SOL     OW44360   6.303   3.482   2.460 -0.3961 -0.4653 -0.7471
12500SOL    HW144361   6.369   3.538   2.499 -0.4974  0.4452 -1.8175
12500SOL    HW244362   6.220   3.525   2.480 -0.6531 -1.3373  0.1652
12501SOL     OW44363   6.501  11.866  10.928 -0.3072  0.2854 -0.1663
12501SOL    HW144364   6.581  11.818  10.906 -0.1250  0.9665 -1.0425
12501SOL    HW244365   6.491  11.854  11.022  0.2316 -0.7026 -0.2252
12502SOL     OW44366  12.090  12.304   3.902 -0.5512  0.2002  0.3524
12502SOL    HW144367  12.053  12.381   3.946 -0.3655  0.3584  0.2290
12502SOL    HW244368  12.180  12.329   3.882 -0.8844  0.4582 -0.9247
12503SOL     OW44369   9.238   4.276  10.511 -0.2631 -0.1784  1.2753
12503SOL    HW144370   9.201   4.236  10.590  0.7468  1.4396  2.6249
12503SOL    HW244371   9.313   4.222  10.490 -1.0273 -1.1228  0.8765
12504SOL     OW44372   5.431   7.798   5.396 -0.8063  0.1754  0.2816
12504SOL    HW144373   5.405   7.716   5.355 -2.2117 -0.3774  2.1162
12504SOL    HW244374   5.374   7.864   5.358  0.1970  0.3159 -1.0564
12505SOL     OW44375   0.816   8.539   1.857 -0.0496  0.5654 -0.0759
12505SOL    HW144376   0.774   8.486   1.924  0.1454 -1.4560 -1.4793
12505SOL    HW244377   0.904   8.555   1.890  0.1585 -0.7033  0.0083
12506SOL     OW44378   9.242   0.293   8.902 -0.0614 -0.1454  0.2924
12506SOL    HW144379   9.238   0.317   8.995  0.8086 -0.9427  0.5523
12506SOL    HW244380   9.210   0.203   8.899  0.6945 -0.4115 -0.0574
12507SOL     OW44381   8.901   3.307   8.434 -0.2930  0.0231 -0.3072
12507SOL    HW144382   8.857   3.372   8.490 -3.6197 -0.9918 -1.5174
12507SOL    HW244383   8.938   3.244   8.496  0.2044  1.3440  0.8099
12508SOL     OW44384  10.748   9.237  12.398  0.1907  0.7557 -0.1340
12508SOL    HW144385  10.824   9.184  12.376 -0.0712  0.2117  0.2452
12508SOL    HW244386  10.732   9.219  12.491 -0.8867  0.2311 -0.4061
12509SOL     OW44387   4.534   9.599   6.599 -0.2587  0.5455 -0.3455
12509SOL    HW144388   4.607   9.641   6.553 -0.6621  1.9536  0.2557
12509SOL    HW244389   4.504   9.530   6.539  2.4043 -1.0052 -0.0590
12510SOL     OW44390   0.980  10.836   1.024  0.0552 -0.5922  0.1671
12510SOL    HW144391   0.940  10.776   1.087 -1.2410  0.4722  0.3986
12510SOL    HW244392   0.921  10.836   0.949 -0.1371  0.5909  0.2930
12511SOL     OW44393  10.861   6.690   5.292 -0.1689  0.5143  0.1842
12511SOL    HW144394  10.858   6.713   5.199  1.0636  2.3676  0.5582
12511SOL    HW244395  10.951   6.706   5.318  0.3590 -2.9648  1.0495
12512SOL     OW44396   9.204   2.908   4.627  0.7580  0.6132 -0.1582
12512SOL    HW144397   9.291   2.879   4.603  0.3579 -0.7202 -0.0842
12512SOL    HW244398   9.218   2.972   4.696  1.7366  1.6983 -1.3230
12513SOL     OW44399   0.926   0.081   3.264  0.0677 -0.4036 -0.8159
12513SOL    HW144400   0.862   0.024   3.308 -1.0793  1.5312  0.1375
12513SOL    HW244401   0.950   0.146   3.330 -0.6645  1.7795 -2.5669
12514SOL     OW44402   0.046  10.167   4.613 -0.3362 -0.4200 -0.0116
12514SOL    HW144403   0.028  10.076   4.637 -0.4328 -0.3829  0.0570
12514SOL    HW244404  -0.013  10.185   4.539  1.2543 -1.1075 -1.4991
12515SOL     OW44405   5.843  11.381   3.457  0.5496  0.2456 -0.1748
12515SOL    HW144406   5.920  11.325   3.461  0.6330 -0.3219 -4.4594
12515SOL    HW244407   5.770  11.323   3.480  1.0172 -0.5299 -0.5926
12516SOL     OW44408   1.208   1.804   2.792  0.2182 -0.5212  0.4562
12516SOL    HW144409   1.113   1.792   2.791  0.1879 -0.2913 -0.5417
12516SOL    HW244410   1.239   1.757   2.714  0.9030 -0.4585  0.6873
12517SOL     OW44411   7.822   7.724   5.038  0.1710 -0.5173  0.2101
12517SOL    HW144412   7.866   7.692   4.960 -1.3729 -1.0181 -0.4862
12517SOL    HW244413   7.817   7.648   5.096  1.9553  0.0261  1.1389
12518SOL     OW44414   1.623  11.337   6.395  0.3149  0.3935 -0.4713
12518SOL    HW144415   1.706  11.355   6.439  0.0837 -0.8539  0.5134
12518SOL    HW244416   1.589  11.424   6.373  1.2376  0.9727  0.3187
12519SOL     OW44417  10.740   5.114   6.676  0.2224 -0.3930  0.1597
12519SOL    HW144418  10.701   5.045   6.621  0.5218  0.3850 -1.0652
12519SOL    HW244419  10.665   5.155   6.719 -0.2170  0.1996 -1.1225
12520SOL     OW44420   3.925   1.711   9.522 -0.1473  0.3013  0.1992
12520SOL    HW144421   3.987   1.677   9.458  0.2303 -0.0057  0.7203
12520SOL    HW244422   3.846   1.659   9.509 -0.1698  0.4347 -0.2074
12521SOL     OW44423   6.396   1.171   5.050  0.1791  0.3044 -0.1271
12521SOL    HW144424   6.403   1.076   5.041  0.2998  0.3505 -0.5885
12521SOL    HW244425   6.475   1.205   5.007 -1.1535  0.7154 -2.4581
12522SOL     OW44426  12.415   3.619   1.927 -0.1764  0.1244 -0.4221
12522SOL    HW144427  12.505   3.611   1.961  0.2243  0.9337 -1.2491
12522SOL    HW244428  12.363   3.561   1.983  0.4310  1.4763  1.6704
12523SOL     OW44429   6.897   2.883   1.096  0.0073 -0.8180  0.2895
12523SOL    HW144430   6.861   2.882   1.007  0.9781 -0.0040 -0.1288
12523SOL    HW244431   6.822   2.865   1.153 -0.8504 -0.2001 -0.6169
12524SOL     OW44432   0.683   8.091  11.033 -0.2662  0.7865 -0.1650
12524SOL    HW144433   0.621   8.159  11.059  0.0466  1.4884 -1.1873
12524SOL    HW244434   0.651   8.061  10.947 -0.0641  0.0595  0.0080
12525SOL     OW44435   4.378   9.031  12.192 -0.4884  0.4726 -0.3492
12525SOL    HW144436   4.444   9.061  12.255 -1.9377 -0.3533  1.6657
12525SOL    HW244437   4.414   8.949  12.157  0.3156  0.9221 -0.6172
12526SOL     OW44438   5.195  11.702   3.852 -0.6097  0.2753 -0.2113
12526SOL    HW144439   5.248  11.709   3.772  1.1166 -0.5653  0.8056
12526SOL    HW244440   5.237  11.761   3.914 -1.1903 -0.0157  0.4675
12527SOL     OW44441   8.565   2.373  10.347  0.2428  0.5708  0.3192
12527SOL    HW144442   8.517   2.404  10.271  0.4872  0.5863  0.1690
12527SOL    HW244443   8.601   2.453  10.387  0.3697  0.5350  0.2767
12528SOL     OW44444   0.452   7.231   1.876 -0.3871 -0.9004  0.2407
12528SOL    HW144445   0.391   7.158   1.880 -0.4584 -0.8748 -0.3125
12528SOL    HW244446   0.514   7.215   1.947  0.0147 -1.8832 -0.3112
12529SOL     OW44447   0.764   4.604   5.265 -0.0307  0.0793  0.2056
12529SOL    HW144448   0.737   4.552   5.189  0.3604  0.7325 -0.3997
12529SOL    HW244449   0.735   4.553   5.341  1.4606 -1.6820 -0.3147
12530SOL     OW44450   5.220   1.336   6.634  0.5874 -0.2560  0.1702
12530SOL    HW144451   5.126   1.336   6.649  0.3261 -0.8314 -1.2775
12530SOL    HW244452   5.252   1.257   6.678  0.1169 -0.9814 -0.7629
12531SOL     OW44453   3.383   3.660  12.274  0.0082  0.6045 -0.0449
12531SOL    HW144454   3.340   3.716  12.339 -2.7088  0.5577 -1.6440
12531SOL    HW244455   3.431   3.721  12.219 -1.3471  1.2039 -0.6133
12532SOL     OW44456   9.159   7.770   1.771  0.2615  0.1692  0.1719
12532SOL    HW144457   9.121   7.801   1.689 -0.9168  0.9493  0.9828
12532SOL    HW244458   9.084   7.743   1.824  1.0395 -0.8480  0.8057
12533SOL     OW44459   2.809  10.949   0.258 -0.9637 -0.1327 -0.3844
12533SOL    HW144460   2.883  10.937   0.198 -2.0232 -0.9466 -1.6061
12533SOL    HW244461   2.738  10.897   0.218 -1.9246 -0.1056  1.2133
12534SOL     OW44462   3.750   7.218   0.372  0.1783 -0.0436  0.5863
12534SOL    HW144463   3.670   7.250   0.414 -0.3419  0.1280 -0.5075
12534SOL    HW244464   3.755   7.126   0.398 -0.1112  0.0653  1.0522
12535SOL     OW44465  12.293   6.433  12.309  0.1364 -0.4210  0.6834
12535SOL    HW144466  12.218   6.445  12.367  0.1800  1.2012  0.4578
12535SOL    HW244467  12.364   6.407  12.367  0.1929  1.2243  1.4106
12536SOL     OW44468   7.996   5.903   6.682  0.1461  0.1847 -0.3725
12536SOL    HW144469   8.045   5.919   6.601  0.6071  0.7708  0.0065
12536SOL    HW244470   8.056   5.850   6.735  0.1814  0.5094 -0.0889
12537SOL     OW44471   1.868   3.881   3.461  0.2262 -0.4458 -0.5598
12537SOL    HW144472   1.911   3.899   3.377  0.3097 -0.6604 -0.5642
12537SOL    HW244473   1.932   3.829   3.510  0.8255  0.9984  0.2578
12538SOL     OW44474   4.657  10.592  10.117 -0.1688  0.5711 -0.1577
12538SOL    HW144475   4.658  10.668  10.176 -0.3306  1.8177 -1.7170
12538SOL    HW244476   4.699  10.523  10.168  0.1433  1.7408  1.2504
12539SOL     OW44477   7.093   7.676   3.101  0.1347 -0.0532  0.0513
12539SOL    HW144478   7.063   7.613   3.035  1.4135 -0.8018  0.1545
12539SOL    HW244479   7.184   7.694   3.077  0.8153 -0.7936  1.9224
12540SOL     OW44480   9.325   8.555   8.222 -0.1031  0.6097 -0.4041
12540SOL    HW144481   9.416   8.523   8.219  0.2997  1.5798  0.6777
12540SOL    HW244482   9.332   8.644   8.257 -1.5794  0.2088  1.0296
12541SOL     OW44483   6.416   2.381   7.327 -0.0110 -0.5145  0.0441
12541SOL    HW144484   6.457   2.304   7.367  0.7181  0.0874  0.4956
12541SOL    HW244485   6.440   2.376   7.235 -2.7286 -2.5788 -0.6601
12542SOL     OW44486   6.761  10.983   3.833  0.0641 -0.4698 -0.0454
12542SOL    HW144487   6.823  11.034   3.886 -1.1938 -0.4911  1.5393
12542SOL    HW244488   6.688  10.966   3.892 -1.5723 -0.2558 -1.9066
12543SOL     OW44489  10.224   3.016   3.338 -0.3996 -0.1433 -0.1016
12543SOL    HW144490  10.224   2.931   3.382  0.6458  0.4433  1.1007
12543SOL    HW244491  10.309   3.019   3.294 -0.6746  0.0429 -0.6204
12544SOL     OW44492   1.361  11.595  11.393 -0.6531  0.9375 -0.3352
12544SOL    HW144493   1.349  11.668  11.454 -1.1693  0.3568  0.2862
12544SOL    HW244494   1.315  11.622  11.314 -2.0957  0.7324  0.3846
12545SOL     OW44495   2.004  11.629   7.445  0.1421  0.7793 -0.1711
12545SOL    HW144496   2.054  11.593   7.517 -1.3694 -1.6678 -0.2180
12545SOL    HW244497   1.954  11.701   7.484  1.0520  0.9688  0.6692
12546SOL     OW44498   8.798   0.520   7.719 -0.3203 -0.0039  0.4462
12546SOL    HW144499   8.766   0.493   7.805 -0.7884 -1.5796 -0.2000
12546SOL    HW244500   8.768   0.611   7.711 -0.5178  0.0786  1.8210
12547SOL     OW44501   9.432   8.807   1.021 -0.1547  0.2619 -0.1160
12547SOL    HW144502   9.388   8.891   1.028 -0.8733 -0.0553 -0.6465
12547SOL    HW244503   9.438   8.774   1.110  0.0423  0.8251  0.0811
12548SOL     OW44504   5.139   4.163   8.940 -0.3697  0.0486 -0.2701
12548SOL    HW144505   5.061   4.194   8.985 -1.8248 -0.8581 -2.0354
12548SOL    HW244506   5.115   4.164   8.847  1.5088 -0.8111 -0.8111
12549SOL     OW44507   9.718   3.001   0.494 -0.0185 -0.3116  0.2817
12549SOL    HW144508   9.656   3.021   0.564 -0.1732 -0.0981  0.0819
12549SOL    HW244509   9.724   3.082   0.443  2.8276  0.8089  2.1284
12550SOL     OW44510   5.901  11.595   9.595  0.3475  0.0769 -0.5115
12550SOL    HW144511   5.914  11.605   9.689  2.5516 -1.9521 -0.5118
12550SOL    HW244512   5.905  11.501   9.580 -0.7541  0.2930 -2.5751
12551SOL     OW44513  11.026   5.497   4.219 -0.8926 -0.9061 -0.6734
12551SOL    HW144514  11.060   5.573   4.172 -0.5465 -0.1273  0.7982
12551SOL    HW244515  11.094   5.430   4.209 -0.7480 -0.6915 -1.1259
12552SOL     OW44516   0.079   5.262   6.750  0.4075 -0.2000  0.1496
12552SOL    HW144517   0.116   5.344   6.716 -0.2311 -0.3460 -0.9233
12552SOL    HW244518   0.128   5.246   6.831 -0.5568  2.1018  1.2614
12553SOL     OW44519   6.960  10.045  11.683 -0.0483 -0.4586  0.0586
12553SOL    HW144520   6.924  10.109  11.744  1.7179 -1.7660  2.6959
12553SOL    HW244521   6.936   9.960  11.721 -0.3117 -1.3924 -2.0427
12554SOL     OW44522   1.610   5.796   3.964  0.1799  0.6461 -0.4277
12554SOL    HW144523   1.547   5.845   3.911  0.5166  0.6959 -0.7867
12554SOL    HW244524   1.665   5.863   4.004 -0.5293  0.6459  0.5781
12555SOL     OW44525   7.699   2.812  11.101 -0.5240 -0.1096 -0.1093
12555SOL    HW144526   7.631   2.832  11.037  0.3354 -0.4831 -1.1668
12555SOL    HW244527   7.763   2.759  11.053  0.4611  0.1396  0.8739
12556SOL     OW44528  10.904   9.982   2.204 -0.3902  0.5691  0.7296
12556SOL    HW144529  10.889  10.021   2.290 -1.7691 -0.2757  0.8938
12556SOL    HW244530  10.868   9.894   2.211 -3.3098  1.4141 -1.5793
12557SOL     OW44531   7.349   0.719  12.256  0.0502 -0.2547 -0.0077
12557SOL    HW144532   7.273   0.772  12.234  0.6243  0.1823 -0.9988
12557SOL    HW244533   7.410   0.781  12.298  0.7257 -0.1059 -1.1719
12558SOL     OW44534   6.267   5.606   9.356 -0.0533 -0.4569  0.2728
12558SOL    HW144535   6.317   5.563   9.426  0.5634  0.0163  0.1279
12558SOL    HW244536   6.325   5.604   9.280 -0.8158 -1.1770 -0.2981
12559SOL     OW44537   4.564   2.622   1.326  0.3634 -0.1265 -0.5961
12559SOL    HW144538   4.547   2.551   1.264  3.4124 -1.4078 -0.1328
12559SOL    HW244539   4.594   2.579   1.406  0.5963  1.6312  0.3301
12560SOL     OW44540   9.329   2.955   0.920  0.1595 -0.3512 -0.4106
12560SOL    HW144541   9.360   2.865   0.908 -0.9926 -0.8078 -0.0880
12560SOL    HW244542   9.247   2.945   0.968 -0.4468  0.8279 -1.1897
12561SOL     OW44543  11.998  11.044   7.950  0.3648  0.5656 -0.0013
12561SOL    HW144544  12.060  11.076   7.885  1.5728 -0.0164  0.8306
12561SOL    HW244545  12.025  10.954   7.967 -0.9374  0.1784  0.1218
12562SOL     OW44546   8.025   6.372   2.208  0.0293 -0.3192  0.2030
12562SOL    HW144547   7.933   6.346   2.213  0.3937 -1.9067 -0.7057
12562SOL    HW244548   8.036   6.436   2.279 -1.5199 -0.8503  0.9609
12563SOL     OW44549  10.408   9.426   1.405  0.2537 -0.4187 -0.2119
12563SOL    HW144550  10.372   9.509   1.373 -1.5745 -1.3744 -0.7927
12563SOL    HW244551  10.490   9.450   1.448 -0.3977  1.7173 -0.0618
12564SOL     OW44552   2.637  10.235   6.785 -0.2333 -0.1160  0.0105
12564SOL    HW144553   2.601  10.196   6.864 -0.4416 -0.0689 -0.0608
12564SOL    HW244554   2.688  10.165   6.745  2.0687  0.5948  1.5343
12565SOL     OW44555   5.096  12.146  11.932  0.0573  0.4256 -0.4101
12565SOL    HW144556   5.172  12.203  11.925 -0.8075  1.4790 -1.9902
12565SOL    HW244557   5.076  12.144  12.026  2.0257  0.0588  0.0406
12566SOL     OW44558   7.641   0.137   1.173 -0.0065  0.1469 -0.7527
12566SOL    HW144559   7.661   0.218   1.127  0.6795  0.0152 -0.7046
12566SOL    HW244560   7.673   0.152   1.263 -0.8602  0.2156 -0.4577
12567SOL     OW44561   3.234   9.272   7.867 -0.1037 -0.5980 -0.5654
12567SOL    HW144562   3.317   9.233   7.895 -0.5965 -0.4639  1.2407
12567SOL    HW244563   3.215   9.230   7.783  0.9463 -1.8858 -0.2024
12568SOL     OW44564   0.308   2.117   0.926  0.8846  0.3992  0.2685
12568SOL    HW144565   0.229   2.171   0.914  1.6152  1.4182 -0.0268
12568SOL    HW244566   0.294   2.042   0.868 -0.4784 -0.1316  1.2295
12569SOL     OW44567   1.353   2.307   1.967 -0.2628 -0.2051 -0.2236
12569SOL    HW144568   1.440   2.345   1.951  0.2705 -1.0380  0.5983
12569SOL    HW244569   1.299   2.382   1.991  0.7908  0.0839  1.4402
12570SOL     OW44570   9.187   9.314  11.502  0.8710 -0.3516 -0.0810
12570SOL    HW144571   9.185   9.410  11.510 -0.7786  0.0682 -3.4828
12570SOL    HW244572   9.169   9.282  11.590  0.9207  2.4864  1.0716
12571SOL     OW44573   8.686   4.089   3.665  0.6585  0.6052 -0.1890
12571SOL    HW144574   8.772   4.111   3.629  1.0070 -0.0913  0.1993
12571SOL    HW244575   8.631   4.165   3.644  1.5509  1.3824  0.2033
12572SOL     OW44576  11.548   6.119   3.554 -0.2650 -0.6987 -0.9563
12572SOL    HW144577  11.639   6.093   3.572  0.5507  0.7008 -2.7620
12572SOL    HW244578  11.555   6.185   3.485 -2.5610  0.7720  0.1161
12573SOL     OW44579   0.401  10.945   3.348  0.3802 -0.2015  0.0716
12573SOL    HW144580   0.415  10.950   3.442 -1.5221  1.6932  0.3238
12573SOL    HW244581   0.314  10.982   3.335 -0.3584 -2.4635 -2.2171
12574SOL     OW44582  11.962   3.220  11.149 -0.1092  0.1565 -0.8398
12574SOL    HW144583  11.879   3.264  11.129 -1.1615 -1.1489  0.4393
12574SOL    HW244584  11.964   3.217  11.245  1.3673  0.0292 -0.8564
12575SOL     OW44585   3.292   9.949   2.318  0.4391  0.0467 -0.2585
12575SOL    HW144586   3.291  10.038   2.282  0.2882 -0.0018 -0.3719
12575SOL    HW244587   3.212   9.944   2.370 -0.7157 -0.7774 -2.0541
12576SOL     OW44588   4.072   3.736   2.961 -0.4934 -0.1063 -0.7922
12576SOL    HW144589   4.089   3.649   2.924  0.3283 -0.7832  1.0781
12576SOL    HW244590   4.158   3.779   2.963 -0.4946 -0.1352  0.4232
12577SOL     OW44591   4.427   8.385   2.325 -0.5636 -0.0668 -0.2528
12577SOL    HW144592   4.424   8.466   2.375  1.1715  0.1964 -0.4963
12577SOL    HW244593   4.451   8.318   2.389 -2.8893 -0.6232  0.1405
12578SOL     OW44594   4.510   9.280   8.531 -0.4221 -0.2971  0.4103
12578SOL    HW144595   4.521   9.308   8.622 -1.2559  0.0895  0.3984
12578SOL    HW244596   4.415   9.270   8.520 -0.2397 -1.9728  0.0717
12579SOL     OW44597  11.944   8.323   1.478  0.6312  0.6386  0.1127
12579SOL    HW144598  11.937   8.325   1.574 -3.2019  1.6551 -0.0344
12579SOL    HW244599  11.903   8.241   1.453 -0.0174  1.2112 -0.7234
12580SOL     OW44600   8.557   9.956   3.005  0.0673  0.1160 -0.0958
12580SOL    HW144601   8.610  10.015   3.059  0.7901  0.3924 -1.0857
12580SOL    HW244602   8.565   9.871   3.048  1.0921  0.2135 -0.0632
12581SOL     OW44603   9.139   0.062   6.326 -0.1567 -0.1120  0.5107
12581SOL    HW144604   9.163  -0.031   6.324  0.2917  0.0124 -0.5871
12581SOL    HW244605   9.218   0.107   6.296 -1.2048  0.4233 -1.6727
12582SOL     OW44606   7.659  11.055   4.601  0.4311 -0.4136  0.3834
12582SOL    HW144607   7.618  10.973   4.629 -0.2971  0.3554  1.6301
12582SOL    HW244608   7.738  11.062   4.655  2.1190 -1.6952 -1.7383
12583SOL     OW44609  12.391   3.087  11.012 -0.3484  0.4449 -0.2859
12583SOL    HW144610  12.439   3.167  10.988 -0.9355  1.1719  0.8339
12583SOL    HW244611  12.459   3.021  11.024  0.4190  1.4576  1.2900
12584SOL     OW44612   8.332   1.150   6.196  0.0504 -0.9965 -0.3401
12584SOL    HW144613   8.252   1.118   6.153 -0.7160 -1.0088  1.0414
12584SOL    HW244614   8.394   1.077   6.186  0.5226 -0.3431 -2.9235
12585SOL     OW44615  11.806   5.786   7.100  0.1329 -0.4329 -0.3965
12585SOL    HW144616  11.803   5.804   7.006 -2.4856  2.7554  0.0802
12585SOL    HW244617  11.872   5.846   7.134  0.5785 -1.0749 -0.1234
12586SOL     OW44618   5.951  10.474  10.110  0.0919 -0.2485  0.5378
12586SOL    HW144619   5.957  10.486  10.015  1.6075 -1.5936  0.4004
12586SOL    HW244620   5.991  10.553  10.147  0.6507 -0.2733  0.0061
12587SOL     OW44621   1.046   6.142  12.061  0.0773 -0.0552  0.4303
12587SOL    HW144622   0.956   6.172  12.046 -0.3136 -1.0277  0.7792
12587SOL    HW244623   1.038   6.048  12.074  1.1926 -0.2013  0.1335
12588SOL     OW44624   3.022   7.316   8.046 -0.2234  0.6586 -0.0930
12588SOL    HW144625   3.080   7.392   8.045 -0.3560  0.7664  0.2686
12588SOL    HW244626   2.956   7.335   7.979  0.3428  0.3860 -0.7391
12589SOL     OW44627   5.956   9.681   7.543 -0.0796 -0.3136  0.1236
12589SOL    HW144628   5.893   9.712   7.608  0.4152 -1.3750  1.1412
12589SOL    HW244629   5.988   9.761   7.501  0.2365  0.4888  1.8030
12590SOL     OW44630   3.625   8.137   1.844  0.4873 -0.2436  0.1384
12590SOL    HW144631   3.652   8.187   1.767 -2.9406  0.2093 -0.9385
12590SOL    HW244632   3.707   8.106   1.882  2.3698 -1.0434 -4.0037
12591SOL     OW44633   7.233  11.537  12.074 -0.3058 -0.1782 -0.6596
12591SOL    HW144634   7.279  11.479  12.135  3.4567  3.2665  0.2487
12591SOL    HW244635   7.249  11.625  12.109 -3.3828  1.6604 -3.3234
12592SOL     OW44636   9.877   3.744   7.398 -0.1025  0.5337  0.1258
12592SOL    HW144637   9.889   3.764   7.490  2.1840  0.7543 -0.1729
12592SOL    HW244638   9.920   3.659   7.385 -2.1545 -0.5234 -0.3880
12593SOL     OW44639   9.196   8.940   3.320 -0.4660  0.0568  0.3106
12593SOL    HW144640   9.141   8.965   3.246 -0.3707  0.2741  0.3117
12593SOL    HW244641   9.145   8.874   3.366  0.1453 -1.2808 -0.8525
12594SOL     OW44642   2.455   6.700   3.624  0.5470 -0.4090 -0.0902
12594SOL    HW144643   2.516   6.627   3.618  0.3823 -0.4389 -1.9133
12594SOL    HW244644   2.505   6.775   3.593 -0.1024 -0.2991 -0.9063
12595SOL     OW44645   1.053   5.712   2.556  0.7678  0.0739  0.5260
12595SOL    HW144646   1.041   5.695   2.463  0.5378 -0.2869  0.6202
12595SOL    HW244647   0.966   5.704   2.594  1.3490 -4.2004  1.4904
12596SOL     OW44648   8.874   0.372  11.516 -0.2688 -0.6658  0.7750
12596SOL    HW144649   8.946   0.308  11.518  0.3235 -0.1132 -0.9333
12596SOL    HW244650   8.803   0.327  11.470 -0.3418 -0.5705  0.7956
12597SOL     OW44651   9.922   3.663   5.100 -0.0955 -0.1930  0.6572
12597SOL    HW144652   9.907   3.756   5.085  0.2567  0.1378  2.1987
12597SOL    HW244653   9.941   3.656   5.194  0.5167 -1.7359  0.4547
12598SOL     OW44654   1.767   9.935   8.318 -0.6531  0.0427 -0.2694
12598SOL    HW144655   1.681   9.939   8.276 -0.4069 -0.5536 -0.8414
12598SOL    HW244656   1.807   9.855   8.285  1.4889  1.9439 -2.6891
12599SOL     OW44657   4.066   1.213   1.042  0.2849 -0.0372 -0.2911
12599SOL    HW144658   4.141   1.196   0.985  0.8871  1.7339 -0.0786
12599SOL    HW244659   4.036   1.300   1.017 -0.3290  0.1925  1.1371
12600SOL     OW44660   2.168   7.190   2.737 -0.1480  0.0607  0.2956
12600SOL    HW144661   2.110   7.254   2.778 -1.6095 -1.0495  0.0445
12600SOL    HW244662   2.118   7.155   2.664  1.1697 -0.3638 -0.4484
12601SOL     OW44663   4.654   2.473   8.920  0.2142 -0.5618 -0.4698
12601SOL    HW144664   4.596   2.405   8.955  0.9563 -0.8137  0.2777
12601SOL    HW244665   4.599   2.552   8.919 -0.0811 -0.7390  0.4765
12602SOL     OW44666   7.675   4.425   4.043  0.2049 -0.0313  0.6764
12602SOL    HW144667   7.605   4.490   4.036  0.0963 -0.1255  0.8650
12602SOL    HW244668   7.737   4.448   3.974 -1.0600 -1.2286 -0.9571
12603SOL     OW44669  11.490   4.776  12.262  0.5824  0.1593  0.1275
12603SOL    HW144670  11.397   4.772  12.284  0.6337  0.4533  0.4246
12603SOL    HW244671  11.532   4.719  12.326  0.7075  0.8247  0.6587
12604SOL     OW44672   9.746   2.887   2.799 -0.4661  0.2065 -0.4571
12604SOL    HW144673   9.676   2.857   2.858 -1.7213  1.0055 -1.4727
12604SOL    HW244674   9.795   2.808   2.778  0.8355  0.0556  2.6050
12605SOL     OW44675   7.199   1.776   5.408  0.6285 -0.1163 -0.1839
12605SOL    HW144676   7.171   1.841   5.343 -0.1376  0.4928  0.7299
12605SOL    HW244677   7.198   1.693   5.361  0.2965  0.3457 -1.0097
12606SOL     OW44678   0.994   3.587   6.951  0.0534 -0.7877  0.5700
12606SOL    HW144679   0.988   3.678   6.981  0.7628 -0.1027 -1.2436
12606SOL    HW244680   1.085   3.563   6.967 -0.0852 -1.1134  0.8648
12607SOL     OW44681   2.251   8.533  10.375 -0.3531  1.0136 -0.6279
12607SOL    HW144682   2.326   8.474  10.389 -2.6980 -1.4171  3.5469
12607SOL    HW244683   2.205   8.495  10.299  0.8462  0.5771 -1.1682
12608SOL     OW44684   6.343   4.399   9.114 -0.0097  0.4305 -0.1487
12608SOL    HW144685   6.393   4.359   9.186 -0.3729 -0.0471 -0.1520
12608SOL    HW244686   6.409   4.440   9.059  0.3827 -0.1813 -0.1465
12609SOL     OW44687   7.794   4.422  10.481  0.2907 -0.2363 -0.1474
12609SOL    HW144688   7.882   4.429  10.517 -0.0251 -0.6519  0.7575
12609SOL    HW244689   7.740   4.476  10.540 -0.0323  0.2119 -0.8301
12610SOL     OW44690   3.999  10.128   1.316  0.3826 -0.1876 -0.3479
12610SOL    HW144691   3.958  10.101   1.398  2.7364 -0.4445  0.8210
12610SOL    HW244692   4.082  10.167   1.342  1.0912 -0.0287 -2.6058
12611SOL     OW44693   1.315   6.381   4.893 -0.2743 -0.2627  0.9069
12611SOL    HW144694   1.407   6.357   4.884  0.2933  1.3786  1.9797
12611SOL    HW244695   1.316   6.463   4.941 -2.2883  0.0556  0.4924
12612SOL     OW44696   2.747   2.496  11.309 -0.7781  0.2672  0.1694
12612SOL    HW144697   2.664   2.451  11.326 -1.1993  0.5044 -1.1747
12612SOL    HW244698   2.802   2.431  11.267 -1.3707  0.9289 -1.7337
12613SOL     OW44699   0.752   1.464   8.936  0.4224 -0.1853  0.0206
12613SOL    HW144700   0.657   1.466   8.928  0.1631 -0.3119  2.3229
12613SOL    HW244701   0.772   1.375   8.966  0.9085  0.5920  2.2640
12614SOL     OW44702   8.427   0.455   8.776 -0.0538  0.2126 -0.0230
12614SOL    HW144703   8.368   0.491   8.710  0.4740  0.4264 -0.3869
12614SOL    HW244704   8.480   0.530   8.804  1.8182 -0.4220 -1.5802
12615SOL     OW44705   5.147   5.223   2.065 -0.2012 -0.2756  0.2170
12615SOL    HW144706   5.141   5.153   2.001  2.2006 -1.4978  1.1794
12615SOL    HW244707   5.200   5.186   2.136 -0.8445  1.7568  1.8673
12616SOL     OW44708  10.580   3.788   1.069  1.0256 -0.1611 -0.2903
12616SOL    HW144709  10.562   3.728   1.141 -0.2421 -0.6796 -1.0094
12616SOL    HW244710  10.599   3.872   1.112 -1.8617  0.1187  0.6663
12617SOL     OW44711  12.384   0.138   0.371 -0.1458  0.0208  0.1962
12617SOL    HW144712  12.334   0.201   0.319  2.1565  1.1994 -0.7517
12617SOL    HW244713  12.403   0.066   0.310  0.4054  0.1997  0.1517
12618SOL     OW44714   3.851  12.087   6.723  0.0933  0.2195  0.0902
12618SOL    HW144715   3.789  12.050   6.661  1.7700  0.2435 -1.7141
12618SOL    HW244716   3.797  12.131   6.788 -1.7851 -0.9143 -0.6376
12619SOL     OW44717   3.787   4.829   4.554  0.1872 -0.0316  0.0689
12619SOL    HW144718   3.694   4.847   4.540  0.4031  1.6093  0.5686
12619SOL    HW244719   3.798   4.828   4.649  0.6274 -0.6087  0.0242
12620SOL     OW44720   4.128   4.335   7.393 -0.2697  0.0580 -0.6647
12620SOL    HW144721   4.036   4.318   7.370 -0.0365 -1.7648 -0.4273
12620SOL    HW244722   4.156   4.256   7.439  2.1605 -0.6084 -2.9821
12621SOL     OW44723  11.701   4.484   3.765  0.4950  0.4949 -0.0212
12621SOL    HW144724  11.663   4.396   3.767 -0.1639  0.7933  1.2599
12621SOL    HW244725  11.689   4.513   3.674 -1.3404  0.1404  0.0684
12622SOL     OW44726   5.139   8.184   3.224 -0.2570 -0.2012  0.2111
12622SOL    HW144727   5.214   8.127   3.209 -0.6234 -0.3211 -1.2972
12622SOL    HW244728   5.157   8.226   3.309  0.1386 -2.3709  1.2753
12623SOL     OW44729   5.347   6.289   7.404  0.6179  0.2871  0.4131
12623SOL    HW144730   5.350   6.291   7.308  0.9465 -2.1766  0.3075
12623SOL    HW244731   5.255   6.302   7.426  0.3300 -0.4215 -0.3217
12624SOL     OW44732   0.336   2.619   9.796  0.3880 -0.5786  0.3614
12624SOL    HW144733   0.271   2.626   9.727  0.3502  3.2471  0.5259
12624SOL    HW244734   0.286   2.616   9.877  0.4482 -1.7630  0.3683
12625SOL     OW44735  11.375   3.226   4.713 -0.1660 -0.0585 -0.2318
12625SOL    HW144736  11.298   3.230   4.656 -0.6924  1.3945  0.5363
12625SOL    HW244737  11.380   3.313   4.753  2.6496  0.3586 -1.2432
12626SOL     OW44738   2.251  10.902  10.360  0.3630  0.0261 -0.0877
12626SOL    HW144739   2.234  10.984  10.407  2.0877  0.1739  0.3355
12626SOL    HW244740   2.187  10.840  10.395 -0.5815  1.0266 -0.0006
12627SOL     OW44741   7.112   5.504   4.660  0.5638 -0.2742 -0.3654
12627SOL    HW144742   7.114   5.587   4.614 -0.6424 -0.0159  0.0094
12627SOL    HW244743   7.026   5.468   4.640  0.7915 -1.0906  0.0746
12628SOL     OW44744  10.583   1.104   7.405  0.6079  0.2001 -0.1017
12628SOL    HW144745  10.669   1.063   7.397 -0.1362 -1.5072  0.1411
12628SOL    HW244746  10.523   1.031   7.419 -0.8503  1.3762  0.0554
12629SOL     OW44747   1.582   1.295   0.728 -0.3339  0.2369  0.2229
12629SOL    HW144748   1.590   1.389   0.713 -2.0104  0.6052  1.3429
12629SOL    HW244749   1.494   1.284   0.764  0.2512 -1.6109  1.2121
12630SOL     OW44750   5.742   6.978   0.171 -0.4114  0.3485 -0.1376
12630SOL    HW144751   5.828   6.989   0.130 -0.7505  0.3738 -0.8662
12630SOL    HW244752   5.760   6.931   0.252  0.1661 -0.7653 -0.8823
12631SOL     OW44753   6.624  11.609  10.138  0.2989  0.6757 -0.4447
12631SOL    HW144754   6.695  11.563  10.094 -1.2566 -1.6155 -0.7281
12631SOL    HW244755   6.663  11.691  10.169  2.8422 -0.1900 -1.1779
12632SOL     OW44756  11.034   5.947   3.509 -0.0303 -0.2056 -0.1540
12632SOL    HW144757  11.056   5.939   3.602  1.6252  0.9564 -0.3831
12632SOL    HW244758  11.114   5.920   3.463 -0.9718 -1.2052 -1.2732
12633SOL     OW44759  10.916   7.009  10.576  0.3081 -0.2641 -0.3279
12633SOL    HW144760  10.936   7.006  10.483  0.0387 -0.5290 -0.3794
12633SOL    HW244761  10.821   6.994  10.580  0.0822  1.0444 -0.1019
12634SOL     OW44762  11.946   4.789   5.035  0.4244  0.5588 -0.8000
12634SOL    HW144763  11.874   4.782   4.972  0.1794 -2.3671 -0.3421
12634SOL    HW244764  11.914   4.851   5.101 -1.3935 -0.1364 -0.9757
12635SOL     OW44765   3.984   3.803   2.336  0.1573 -0.4830  0.0956
12635SOL    HW144766   3.978   3.897   2.324 -0.7108 -0.6629 -0.9640
12635SOL    HW244767   3.920   3.784   2.404 -0.4006 -0.4323 -0.4100
12636SOL     OW44768  11.407   6.644   5.697 -0.2795  0.1385  0.5268
12636SOL    HW144769  11.350   6.569   5.713 -0.8723  0.7780  1.5124
12636SOL    HW244770  11.382   6.708   5.764  0.2798  1.1775 -0.2296
12637SOL     OW44771  11.887   6.111  10.206  0.1174 -0.2444 -0.2847
12637SOL    HW144772  11.821   6.099  10.275  1.8574  2.3070  2.0575
12637SOL    HW244773  11.961   6.057  10.235  0.3716 -0.2179 -0.8768
12638SOL     OW44774   9.882   3.374   4.131 -0.7396 -0.2773  0.2217
12638SOL    HW144775   9.922   3.306   4.078  0.6799  0.6835 -0.0010
12638SOL    HW244776   9.874   3.449   4.072 -1.4627  0.0322  0.6965
12639SOL     OW44777   7.780   7.399   1.783 -0.2279  0.4144  0.2858
12639SOL    HW144778   7.738   7.427   1.701  0.4495 -0.8389 -0.5150
12639SOL    HW244779   7.840   7.470   1.804 -0.7985  0.9954  0.0049
12640SOL     OW44780   1.198  12.165   1.806 -0.1744  0.2669  0.2775
12640SOL    HW144781   1.254  12.242   1.807  0.1037  0.0661  0.6907
12640SOL    HW244782   1.183  12.145   1.898  1.5679 -1.4614  0.2740
12641SOL     OW44783   8.531   5.002  11.108  0.1708  0.9099  0.3209
12641SOL    HW144784   8.578   4.966  11.183 -1.7137  1.0062  1.5875
12641SOL    HW244785   8.594   5.061  11.067  1.3292  0.6335  1.6393
12642SOL     OW44786   1.460   9.346   3.681  0.2878 -0.1509  0.2910
12642SOL    HW144787   1.424   9.404   3.615 -0.5585 -0.9388  0.0411
12642SOL    HW244788   1.410   9.265   3.673  1.1751 -0.7900  0.8857
12643SOL     OW44789   7.568   4.748   4.151  0.2033 -0.1237 -0.5144
12643SOL    HW144790   7.513   4.825   4.165  1.1481  0.4765  0.0288
12643SOL    HW244791   7.556   4.727   4.058 -1.1610 -0.2078 -0.3401
12644SOL     OW44792   6.352   6.127   7.961 -0.3297  0.3056 -0.8136
12644SOL    HW144793   6.321   6.205   8.006 -2.4830  0.3572 -2.2375
12644SOL    HW244794   6.357   6.154   7.869 -1.5316 -1.3354 -1.3873
12645SOL     OW44795   0.215  11.343   3.144 -0.3622 -0.0409  0.4675
12645SOL    HW144796   0.218  11.329   3.239 -1.2795  0.1875  0.5367
12645SOL    HW244797   0.277  11.279   3.109  2.8434  2.2823  1.4437
12646SOL     OW44798  10.617   7.310   0.541 -0.4674  0.0665  0.0220
12646SOL    HW144799  10.628   7.332   0.634 -0.7916 -0.7242  0.2560
12646SOL    HW244800  10.706   7.295   0.509 -0.3751  0.0813  0.2723
12647SOL     OW44801   6.481   0.540   6.528  0.3500  0.0209  0.1895
12647SOL    HW144802   6.507   0.627   6.497  0.6529  0.0977  0.6590
12647SOL    HW244803   6.461   0.552   6.621 -2.6541  0.2504 -0.3822
12648SOL     OW44804   2.638   8.444   0.936  0.2998  0.1941  0.1801
12648SOL    HW144805   2.567   8.507   0.922  0.2740  0.3584  1.0264
12648SOL    HW244806   2.654   8.407   0.849  2.3013  3.4508 -0.9808
12649SOL     OW44807   0.012   8.424   9.709 -0.3811  0.1991  0.8260
12649SOL    HW144808   0.015   8.416   9.614 -1.0197  0.4827  0.7745
12649SOL    HW244809   0.076   8.491   9.730  0.4435 -0.5247  0.6896
12650SOL     OW44810  11.500   8.267   2.939  0.2360 -0.6377  0.5355
12650SOL    HW144811  11.537   8.335   2.882  1.6987 -1.2703  0.7061
12650SOL    HW244812  11.545   8.187   2.914 -0.4451 -1.2834  1.3314
12651SOL     OW44813   6.840   9.692   2.343 -0.6472 -0.3066  0.3936
12651SOL    HW144814   6.880   9.606   2.356  0.0064 -0.0959 -0.1971
12651SOL    HW244815   6.816   9.694   2.251  2.2579  1.3417 -0.4334
12652SOL     OW44816   8.842   2.052  11.036 -0.0041  0.7137 -0.0674
12652SOL    HW144817   8.820   1.960  11.017  1.8622  0.1831  0.1128
12652SOL    HW244818   8.798   2.101  10.968 -1.7019 -0.2213  0.2892
12653SOL     OW44819   9.437   6.686   4.870 -0.0663 -0.3847 -0.2293
12653SOL    HW144820   9.520   6.705   4.914 -1.4621 -0.6913  2.7792
12653SOL    HW244821   9.437   6.591   4.859 -0.2105 -0.4423  0.2410
12654SOL     OW44822   8.193   5.539   2.947  0.3797  0.0784 -0.4705
12654SOL    HW144823   8.168   5.528   2.856  1.2071 -1.5242 -0.5427
12654SOL    HW244824   8.275   5.589   2.943 -0.3017  1.2114 -0.5092
12655SOL     OW44825   2.091   4.297  11.150  0.3021  0.0249  0.0592
12655SOL    HW144826   2.095   4.390  11.172 -1.2493  0.5765 -1.7258
12655SOL    HW244827   2.113   4.252  11.231 -0.2401  1.9262  1.3228
12656SOL     OW44828   0.094   5.507   2.642 -0.2073  0.0030 -0.2187
12656SOL    HW144829   0.188   5.494   2.644 -0.2507 -0.4733  2.4792
12656SOL    HW244830   0.058   5.436   2.694 -1.9659  0.7884 -0.2725
12657SOL     OW44831   5.056   9.896   4.744  0.1671 -0.1109  0.5582
12657SOL    HW144832   5.013   9.811   4.743 -1.2658  0.5881 -0.2930
12657SOL    HW244833   5.082   9.911   4.653 -0.6384  0.8575  0.4777
12658SOL     OW44834   8.681   5.003   4.577  0.0048 -0.2220 -0.7071
12658SOL    HW144835   8.740   5.037   4.644 -0.4933  1.3772 -1.0262
12658SOL    HW244836   8.601   4.980   4.624 -0.3641  0.9527 -0.7285
12659SOL     OW44837   3.259  11.228   7.074 -0.1475 -0.4004 -0.4125
12659SOL    HW144838   3.184  11.284   7.056 -1.0266 -0.6375  2.0904
12659SOL    HW244839   3.228  11.168   7.142  2.7672  0.6422  2.0787
12660SOL     OW44840   8.916   4.872   6.081 -0.0395  0.6238 -0.4347
12660SOL    HW144841   8.990   4.812   6.092 -0.0663  0.8306  1.1472
12660SOL    HW244842   8.863   4.858   6.160 -0.3029  2.3758 -0.2778
12661SOL     OW44843   2.292   6.470   4.856  0.7060 -0.0380  0.1615
12661SOL    HW144844   2.197   6.460   4.851  0.3173  2.7240  0.3914
12661SOL    HW244845   2.321   6.397   4.910 -1.0986 -1.6419 -0.9110
12662SOL     OW44846  10.447  10.686   3.431  0.3391  0.0955  0.1822
12662SOL    HW144847  10.420  10.598   3.456 -1.4337  0.7250  0.6316
12662SOL    HW244848  10.526  10.673   3.379  0.1058 -1.7495  0.2299
12663SOL     OW44849  10.873   5.051  10.999 -0.3316 -0.1471 -0.3220
12663SOL    HW144850  10.917   4.969  11.025  1.3173  0.2292 -1.7297
12663SOL    HW244851  10.939   5.119  11.013 -0.7449  0.5706 -1.6906
12664SOL     OW44852   8.522   3.005   8.435  0.4756  0.4780 -0.4395
12664SOL    HW144853   8.535   2.912   8.451 -0.3748  0.5741  1.0652
12664SOL    HW244854   8.435   3.024   8.472  0.2596  1.6897 -1.4915
12665SOL     OW44855   4.699   4.666  10.427 -0.0291 -0.0230  0.3045
12665SOL    HW144856   4.746   4.734  10.475  1.0490 -0.1043 -0.5815
12665SOL    HW244857   4.732   4.584  10.463 -1.8138 -0.1253  1.8328
12666SOL     OW44858   9.114   1.832   9.544 -0.1380 -0.4224  0.1788
12666SOL    HW144859   9.078   1.895   9.606 -0.5161 -1.8082  1.4388
12666SOL    HW244860   9.204   1.817   9.573  0.2302  0.1420 -0.6265
12667SOL     OW44861   3.169   2.497   3.750  0.4311 -0.3367 -0.4582
12667SOL    HW144862   3.086   2.493   3.798  0.7636 -0.7882  0.0873
12667SOL    HW244863   3.199   2.587   3.761 -0.0182 -0.1466 -0.7252
12668SOL     OW44864   0.311   1.120  10.251 -0.2425 -0.0501  0.0555
12668SOL    HW144865   0.366   1.052  10.214  1.0558  0.4473  1.0158
12668SOL    HW244866   0.370   1.175  10.302 -1.4354  1.1758  0.1853
12669SOL     OW44867  11.362   3.598   5.432 -0.0192  0.3971 -0.3704
12669SOL    HW144868  11.342   3.674   5.377 -0.3759 -0.5078 -1.5288
12669SOL    HW244869  11.388   3.636   5.516  0.2956  1.8143 -1.0739
12670SOL     OW44870   7.467   5.205   3.179 -0.2408  0.5913 -0.2613
12670SOL    HW144871   7.562   5.210   3.193 -0.0716 -0.3953 -0.9151
12670SOL    HW244872   7.435   5.293   3.196  0.7298  0.8231  0.4337
12671SOL     OW44873   3.403   1.965   8.306 -0.0582  0.4899 -0.4736
12671SOL    HW144874   3.475   1.913   8.270  1.1255  0.5099  1.6636
12671SOL    HW244875   3.330   1.904   8.313  0.5326 -0.2184 -0.3717
12672SOL     OW44876   3.581   8.059  12.426 -0.3400 -0.1819 -0.1717
12672SOL    HW144877   3.605   7.998  12.496  0.8301 -0.5363 -0.8558
12672SOL    HW244878   3.558   8.002  12.353  0.4099  0.1965 -0.7048
12673SOL     OW44879   7.554  10.591  10.927  0.4930  0.4060 -0.3243
12673SOL    HW144880   7.615  10.566  10.858 -0.7603  1.6746 -1.9531
12673SOL    HW244881   7.568  10.685  10.940  0.3233  0.2984  0.7682
12674SOL     OW44882   3.769   5.605   4.862 -0.1954  0.1287 -0.1208
12674SOL    HW144883   3.858   5.576   4.842 -0.3742 -0.5865  0.0875
12674SOL    HW244884   3.780   5.693   4.898  0.1650  1.3305 -2.9307
12675SOL     OW44885  10.033   1.720   4.398 -0.2738  0.2282  0.0785
12675SOL    HW144886  10.011   1.807   4.432  0.9329  0.7670 -0.4538
12675SOL    HW244887  10.062   1.671   4.475 -2.5639 -0.2946  0.6829
12676SOL     OW44888   5.645  11.864   3.201  0.3041 -0.3583 -0.0376
12676SOL    HW144889   5.661  11.959   3.200 -0.0591 -0.2957 -0.9870
12676SOL    HW244890   5.634  11.843   3.294  1.1736  0.3895  0.2543
12677SOL     OW44891  10.507   1.908  10.757 -0.3063  0.5226 -0.6396
12677SOL    HW144892  10.597   1.921  10.788 -0.7766  2.2671  0.0831
12677SOL    HW244893  10.517   1.849  10.682  1.2684 -0.5848  0.3503
12678SOL     OW44894   6.170  10.556   8.776  0.1144  0.7151  0.5308
12678SOL    HW144895   6.085  10.512   8.775 -0.1764  1.2343  1.2286
12678SOL    HW244896   6.159  10.628   8.839  0.2672  2.3911 -1.2520
12679SOL     OW44897   8.634   1.545  12.236  0.6086 -0.6196 -0.6714
12679SOL    HW144898   8.593   1.605  12.173 -0.3568 -3.8798 -3.3940
12679SOL    HW244899   8.728   1.552  12.219  0.4948 -0.0522 -1.0981
12680SOL     OW44900  10.675   1.867   3.472 -0.3012 -0.3454 -0.1794
12680SOL    HW144901  10.683   1.772   3.476  0.7193 -0.2187  1.6305
12680SOL    HW244902  10.761   1.900   3.497 -1.2016  1.0472  1.2147
12681SOL     OW44903   7.479  12.195  12.172 -0.0301 -0.1362 -0.5368
12681SOL    HW144904   7.422  12.225  12.102 -2.7475  0.6872  1.8303
12681SOL    HW244905   7.458  12.103  12.184 -1.5196  0.3273  0.7863
12682SOL     OW44906  11.096   2.468   8.431 -0.1728 -0.2097  0.1654
12682SOL    HW144907  11.162   2.496   8.368  0.9282  1.0012  1.7617
12682SOL    HW244908  11.088   2.374   8.417  1.7422 -0.3652 -0.2357
12683SOL     OW44909   0.256  10.929   1.588  0.7062  0.3229 -0.1692
12683SOL    HW144910   0.300  11.008   1.620  1.6071  0.3704 -1.4492
12683SOL    HW244911   0.295  10.913   1.502 -0.2084 -0.9297 -0.3788
12684SOL     OW44912  12.194   2.823  11.930 -0.1515  0.2356  0.0400
12684SOL    HW144913  12.139   2.769  11.986 -2.0514  1.2629 -0.7700
12684SOL    HW244914  12.149   2.907  11.924  2.0144  1.5049  0.1377
12685SOL     OW44915   5.890  11.585   2.499 -0.0090  0.6258 -0.1179
12685SOL    HW144916   5.883  11.644   2.423 -0.5119 -0.9413 -1.3575
12685SOL    HW244917   5.821  11.613   2.558 -1.6648 -0.0075 -1.6580
12686SOL     OW44918   8.997   0.246   5.722  0.1145 -0.1147  0.3219
12686SOL    HW144919   9.026   0.172   5.775  0.0702 -0.6217 -0.3440
12686SOL    HW244920   8.991   0.319   5.783 -2.1060 -1.1785  1.4971
12687SOL     OW44921   4.204   2.354   9.599 -0.5949 -0.3266 -0.4142
12687SOL    HW144922   4.267   2.330   9.531 -0.6171  0.3288 -0.6728
12687SOL    HW244923   4.212   2.449   9.606  0.4684 -0.5208  1.5556
12688SOL     OW44924   0.909   4.869   1.534 -0.3173  0.5665  0.0976
12688SOL    HW144925   0.990   4.881   1.484 -1.5794  0.4298 -2.0908
12688SOL    HW244926   0.939   4.848   1.623  2.0406  0.5185 -0.6358
12689SOL     OW44927   4.195   0.848   7.501  0.6364 -0.4675 -0.1313
12689SOL    HW144928   4.191   0.867   7.595  0.5479  1.0528 -0.4133
12689SOL    HW244929   4.238   0.763   7.496  0.7375 -0.5295  1.2837
12690SOL     OW44930   7.570   2.435   3.425 -0.3665 -0.1557 -0.6414
12690SOL    HW144931   7.569   2.339   3.419 -1.0626 -0.1149 -1.3210
12690SOL    HW244932   7.633   2.463   3.360  0.6291 -0.1805  0.2821
12691SOL     OW44933  11.435  10.963   3.444  0.0587  0.1064  0.3883
12691SOL    HW144934  11.372  10.945   3.375 -0.0486  0.5421  0.3677
12691SOL    HW244935  11.520  10.942   3.406  0.0706  1.0497 -0.1314
12692SOL     OW44936   3.558   1.752  11.716  0.0307  0.2377  0.2346
12692SOL    HW144937   3.652   1.770  11.717  0.0233  0.2606  0.6022
12692SOL    HW244938   3.552   1.657  11.720  0.0569  0.1695 -1.0252
12693SOL     OW44939  10.132   4.602  11.599 -0.5603 -0.0498 -0.0999
12693SOL    HW144940  10.192   4.606  11.674  0.7732  1.1686 -1.1494
12693SOL    HW244941  10.129   4.693  11.568 -1.5752 -0.4308 -1.1441
12694SOL     OW44942   4.552   2.636   3.649 -0.5576  0.3984 -0.2442
12694SOL    HW144943   4.526   2.567   3.710  3.1590  0.3949  1.6279
12694SOL    HW244944   4.522   2.717   3.691 -2.1669  0.1767 -0.8869
12695SOL     OW44945   8.690   3.171   6.284 -0.0477 -0.2436 -0.2863
12695SOL    HW144946   8.778   3.134   6.275 -0.0401 -0.6737  1.2007
12695SOL    HW244947   8.702   3.265   6.276  0.6046 -0.2759  0.2225
12696SOL     OW44948   7.633   5.941   3.604 -0.0056 -0.0078  0.2114
12696SOL    HW144949   7.642   6.031   3.573  0.2644  0.2794  1.0804
12696SOL    HW244950   7.713   5.897   3.575  1.6993  1.0265  2.9422
12697SOL     OW44951   6.089   5.891   6.296  0.0632 -0.2351  0.0172
12697SOL    HW144952   5.997   5.865   6.290 -0.4219  1.6124 -1.2110
12697SOL    HW244953   6.137   5.808   6.297 -1.6206 -1.3039  1.9050
12698SOL     OW44954   7.661   0.202   5.696 -0.1955 -0.3392  0.4384
12698SOL    HW144955   7.699   0.178   5.781 -0.5373 -0.1318  0.6540
12698SOL    HW244956   7.637   0.118   5.656  1.3210 -0.5542 -0.1153
12699SOL     OW44957   0.580   5.238   2.767  0.0293 -0.0224 -0.3199
12699SOL    HW144958   0.597   5.329   2.791  0.2574 -0.2694  0.5056
12699SOL    HW244959   0.621   5.187   2.837 -0.7626 -0.7413 -0.3612
12700SOL     OW44960   1.445   8.136   9.391  0.4115  0.1437  0.7293
12700SOL    HW144961   1.462   8.125   9.298  1.3535 -0.8364  0.9824
12700SOL    HW244962   1.491   8.216   9.415  1.2931 -0.2974  0.5835
12701SOL     OW44963   1.843  11.834   9.742  0.5199 -0.2030 -0.5529
12701SOL    HW144964   1.842  11.883   9.660  0.7894 -0.2900 -0.6102
12701SOL    HW244965   1.755  11.795   9.748  0.3798  0.1044 -0.6155
12702SOL     OW44966   9.844   2.047   3.879 -0.6097  0.1361  0.3064
12702SOL    HW144967   9.847   1.965   3.928 -1.4800  0.6929  1.3428
12702SOL    HW244968   9.756   2.082   3.895 -0.0484  1.5913  0.4430
12703SOL     OW44969   2.000   5.774   8.249 -0.8174 -0.2451 -0.0963
12703SOL    HW144970   1.915   5.793   8.211  0.0336 -1.0424 -2.5697
12703SOL    HW244971   2.012   5.680   8.236  0.2820 -0.2212  0.6031
12704SOL     OW44972   5.229   8.920   1.311  0.0401  0.7385 -0.3395
12704SOL    HW144973   5.146   8.967   1.322 -0.6945 -0.4257 -0.6599
12704SOL    HW244974   5.240   8.873   1.394 -0.1539  0.0881 -0.6804
12705SOL     OW44975  10.291   0.478   0.090 -0.0632 -0.0922 -0.5064
12705SOL    HW144976  10.334   0.475   0.004  0.1644 -0.1324 -0.3903
12705SOL    HW244977  10.303   0.390   0.125  0.4784  0.1378 -0.1182
12706SOL     OW44978   2.278   8.329   8.454 -0.2819  0.1039  0.2181
12706SOL    HW144979   2.262   8.270   8.380  0.3500 -1.1449  1.0432
12706SOL    HW244980   2.285   8.415   8.414  1.0532 -0.6632 -1.3330
12707SOL     OW44981   6.454   2.659   3.623  0.3276 -0.0172 -0.5605
12707SOL    HW144982   6.543   2.632   3.601 -0.1325 -1.6874 -0.5460
12707SOL    HW244983   6.402   2.579   3.614 -1.3714  1.1354 -1.5712
12708SOL     OW44984   6.198   3.102   6.816 -0.7069 -0.0869  0.3458
12708SOL    HW144985   6.174   3.194   6.803 -2.4182 -0.0388  3.0330
12708SOL    HW244986   6.132   3.053   6.767  1.3387 -0.0034 -2.7338
12709SOL     OW44987   2.883   7.826   3.645  0.3028 -0.1638  0.0166
12709SOL    HW144988   2.806   7.878   3.665  0.2935  0.4460 -1.4873
12709SOL    HW244989   2.850   7.736   3.639 -0.2157  0.0373 -0.1918
12710SOL     OW44990   2.285   7.849   7.560  0.2842  0.1858 -0.0512
12710SOL    HW144991   2.374   7.814   7.557  0.8137  1.5427 -2.3106
12710SOL    HW244992   2.296   7.942   7.544 -1.4793  0.5615  0.7684
12711SOL     OW44993   0.008  12.276   2.417  0.2289 -0.0948 -0.4551
12711SOL    HW144994   0.085  12.224   2.394 -0.8608 -1.5367 -1.0007
12711SOL    HW244995  -0.060  12.211   2.433 -1.2200  1.1738 -1.2289
12712SOL     OW44996   4.674  12.046   0.700  0.2268 -0.4279  0.1524
12712SOL    HW144997   4.679  11.999   0.783 -2.0005 -0.9257  0.0803
12712SOL    HW244998   4.720  11.990   0.638 -0.4418 -1.4172  0.5220
12713SOL     OW44999   2.552   0.454   9.725  0.0930  0.2634  0.4543
12713SOL    HW145000   2.470   0.431   9.681  1.3017  0.3014 -2.0066
12713SOL    HW245001   2.596   0.371   9.741 -1.1527  0.0754  3.5366
12714SOL     OW45002   7.141   0.914   7.685 -0.4227 -0.2100 -0.6250
12714SOL    HW145003   7.183   0.990   7.646 -1.2143 -0.9162 -2.9922
12714SOL    HW245004   7.097   0.948   7.763  0.0671  1.5483 -1.0896
12715SOL     OW45005   3.791  10.442   3.092  0.0118  0.0216  0.6440
12715SOL    HW145006   3.732  10.502   3.138  0.7142  1.1235  0.1474
12715SOL    HW245007   3.872  10.492   3.082 -0.4363  0.2854 -2.7740
12716SOL     OW45008  11.930   1.468  11.555  0.1553  0.3517  0.2787
12716SOL    HW145009  11.848   1.436  11.591 -0.8515  1.3978 -0.9978
12716SOL    HW245010  11.905   1.525  11.482  2.0060  0.6841 -0.1719
12717SOL     OW45011   8.651   7.679  11.375 -0.1640 -0.2126 -0.1529
12717SOL    HW145012   8.597   7.627  11.315 -1.9818  1.0035  0.3459
12717SOL    HW245013   8.706   7.615  11.421 -0.0203 -1.3313 -1.8152
12718SOL     OW45014   2.011   3.510   6.707 -0.1615 -0.0118  0.0816
12718SOL    HW145015   2.104   3.533   6.718 -0.3750  1.1612 -0.3403
12718SOL    HW245016   2.000   3.506   6.612 -0.9762  1.8987  0.0508
12719SOL     OW45017  10.353   0.484  10.027 -0.4961  0.9401  0.5616
12719SOL    HW145018  10.295   0.459  10.099 -0.8367 -0.3093 -0.1230
12719SOL    HW245019  10.309   0.451   9.949  0.2450  1.6034 -0.1543
12720SOL     OW45020   2.147   9.526   7.681 -0.2811  0.0439  0.5544
12720SOL    HW145021   2.196   9.465   7.626 -0.0216  0.0836  0.7385
12720SOL    HW245022   2.195   9.609   7.673  1.1052 -0.4842  2.6090
12721SOL     OW45023  12.328  12.379   7.649 -0.1659  0.0757 -0.3135
12721SOL    HW145024  12.421  12.372   7.672  0.1942 -0.4123 -1.8081
12721SOL    HW245025  12.310  12.299   7.599 -2.1741 -1.3412  2.4176
12722SOL     OW45026   4.237   6.530   3.556 -0.4529 -0.1359  0.4551
12722SOL    HW145027   4.208   6.551   3.646 -0.4215  1.3419  0.1508
12722SOL    HW245028   4.220   6.610   3.507 -0.2110 -0.8436 -0.8100
12723SOL     OW45029   5.813  11.897   2.758  0.2607 -0.4218 -0.1882
12723SOL    HW145030   5.758  11.830   2.718 -0.0444  0.2108 -0.8474
12723SOL    HW245031   5.755  11.943   2.818  0.6374 -1.1610  0.7646
12724SOL     OW45032   1.455   8.319   1.846 -0.1974 -0.4459  0.6597
12724SOL    HW145033   1.470   8.414   1.843  0.9220 -0.5971  1.1310
12724SOL    HW245034   1.543   8.281   1.841 -0.5852 -1.4397  1.2747
12725SOL     OW45035   8.130   8.216   2.298  0.2058 -0.2342  0.2264
12725SOL    HW145036   8.038   8.214   2.269  0.5036 -1.2934 -0.6909
12725SOL    HW245037   8.146   8.309   2.318 -0.7568  0.1347 -0.6092
12726SOL     OW45038   0.324  11.802   9.926 -0.2773 -0.0708 -0.0785
12726SOL    HW145039   0.266  11.800   9.850 -1.1478  0.2316  0.5558
12726SOL    HW245040   0.267  11.781  10.000  0.7864 -1.5700  0.3651
12727SOL     OW45041   4.817   2.960   6.954 -0.4428 -0.1063  0.1143
12727SOL    HW145042   4.734   3.006   6.943  0.2692  1.4453  0.8476
12727SOL    HW245043   4.859   3.004   7.028  0.7075 -1.3595  0.2483
12728SOL     OW45044   8.128   0.998   2.167  0.6038  0.4578  0.0611
12728SOL    HW145045   8.131   0.912   2.126  1.6899  1.2478 -1.5933
12728SOL    HW245046   8.202   0.998   2.228  0.0733 -0.0612  0.7318
12729SOL     OW45047  10.016   6.569   9.715 -0.6579  0.8180  0.5117
12729SOL    HW145048   9.922   6.577   9.731 -1.2851 -2.3707 -0.8291
12729SOL    HW245049  10.027   6.593   9.623 -0.4043 -0.0602  0.3038
12730SOL     OW45050   0.522   1.015   1.882  0.0305  0.1087  0.4454
12730SOL    HW145051   0.460   1.086   1.862 -0.4620 -0.1985  0.8595
12730SOL    HW245052   0.543   1.027   1.975  0.7638  0.3390  0.2549
12731SOL     OW45053   3.369   6.871   7.931  0.1454  0.3547 -0.1998
12731SOL    HW145054   3.285   6.832   7.907  0.0247  0.3876  0.1522
12731SOL    HW245055   3.355   6.965   7.921  0.3311  0.3269 -0.7271
12732SOL     OW45056   0.282   8.993   7.250  0.3280 -0.9125  0.5120
12732SOL    HW145057   0.301   9.081   7.281 -0.2689 -0.9769  1.0791
12732SOL    HW245058   0.358   8.969   7.197  1.1018 -0.5819  1.4474
12733SOL     OW45059   4.466   8.176   1.338  0.5955 -0.3229  0.3037
12733SOL    HW145060   4.512   8.142   1.414  1.3126 -0.6289 -0.2581
12733SOL    HW245061   4.534   8.191   1.273 -0.0158 -0.1413 -0.3089
12734SOL     OW45062   1.169   7.246   5.418 -0.1995 -0.4882 -0.0821
12734SOL    HW145063   1.086   7.274   5.458 -1.1947 -2.5964 -0.5783
12734SOL    HW245064   1.235   7.271   5.482 -1.2999  0.3017  0.7974
12735SOL     OW45065  11.570   1.087   2.193  0.0791  0.4276 -0.2412
12735SOL    HW145066  11.579   1.183   2.187  3.7492  0.3614  1.3752
12735SOL    HW245067  11.594   1.056   2.106 -1.3664  0.9453 -0.8490
12736SOL     OW45068   0.215   0.054   2.834 -0.1903  0.4375 -0.5563
12736SOL    HW145069   0.310   0.050   2.826  0.0953  0.5441  1.9604
12736SOL    HW245070   0.182   0.024   2.749  2.0791 -0.0279 -1.3293
12737SOL     OW45071   3.686   4.867   7.884 -0.1634  0.2682  0.1479
12737SOL    HW145072   3.690   4.777   7.917  1.6902  0.6121  1.0096
12737SOL    HW245073   3.777   4.890   7.867 -0.5355  2.1852  0.5293
12738SOL     OW45074   9.147   8.752   0.406 -0.1739 -0.1208 -0.5140
12738SOL    HW145075   9.123   8.813   0.475  2.8733 -1.4967  1.9825
12738SOL    HW245076   9.073   8.690   0.401 -0.1610 -0.4512  2.1592
12739SOL     OW45077   7.617  12.447   7.825  0.4052  0.0163  0.1493
12739SOL    HW145078   7.543  12.413   7.875  0.8301  0.3073  0.9908
12739SOL    HW245079   7.598  12.540   7.812  1.1165  0.3575  1.3332
12740SOL     OW45080   8.998   2.099   7.466  0.0452  0.1955  0.0880
12740SOL    HW145081   9.000   2.097   7.370  2.5667 -3.3938  0.0108
12740SOL    HW245082   8.933   2.033   7.490 -1.5294  1.9610  1.0124
12741SOL     OW45083   6.356   9.052  10.121 -0.0718  0.3162 -0.4540
12741SOL    HW145084   6.339   8.958  10.117 -0.1506  0.2853  0.3911
12741SOL    HW245085   6.385   9.075  10.033  0.2784 -0.5650 -0.5823
12742SOL     OW45086   3.977  10.287   0.367 -0.1626 -0.0623 -0.1843
12742SOL    HW145087   4.043  10.307   0.300 -2.3032  0.1372 -2.3576
12742SOL    HW245088   3.931  10.370   0.381  0.9248  0.2156  2.4897
12743SOL     OW45089   6.809  11.530   2.357 -0.2009  0.3292 -0.0111
12743SOL    HW145090   6.885  11.576   2.392 -0.2311  2.2476 -2.2386
12743SOL    HW245091   6.752  11.599   2.324 -3.1046 -1.0123  1.7276
12744SOL     OW45092   7.232  11.415   4.892  0.1618  0.4902 -0.2235
12744SOL    HW145093   7.280  11.496   4.877 -0.7379  0.8936 -1.0506
12744SOL    HW245094   7.271  11.378   4.971 -0.0806  2.2588  0.7806
12745SOL     OW45095   7.484   8.493   4.320 -0.0853 -0.5650 -0.1725
12745SOL    HW145096   7.441   8.409   4.302 -0.4618 -0.4023 -0.0499
12745SOL    HW245097   7.474   8.543   4.239 -0.9720 -0.1771  0.1551
12746SOL     OW45098  11.026   6.988   5.651 -0.0385 -0.6390 -0.2073
12746SOL    HW145099  10.960   6.965   5.585 -1.3632  1.3655  0.3366
12746SOL    HW245100  11.098   7.025   5.599 -0.6531  0.0092 -0.6245
12747SOL     OW45101   0.670   6.137  11.530  0.1414  0.1452 -0.1657
12747SOL    HW145102   0.724   6.065  11.496 -0.5691 -0.7474  0.5191
12747SOL    HW245103   0.671   6.124  11.625 -1.0817  0.2329 -0.1294
12748SOL     OW45104   7.228   3.795   3.575 -0.1093 -0.4183 -0.5226
12748SOL    HW145105   7.187   3.753   3.650  0.3925 -1.6216 -0.8880
12748SOL    HW245106   7.177   3.875   3.561 -0.9294 -0.7614  0.3713
12749SOL     OW45107   0.066   6.209   4.174 -0.1297 -0.0519  0.3892
12749SOL    HW145108   0.104   6.240   4.092  1.3006 -2.3330  0.0778
12749SOL    HW245109   0.137   6.160   4.215 -1.6063 -1.1527  1.7375
12750SOL     OW45110   0.449   6.701   1.046  0.0295 -0.2879 -0.5629
12750SOL    HW145111   0.435   6.782   1.095  2.6479  0.3861 -0.7895
12750SOL    HW245112   0.401   6.713   0.964 -2.9312 -0.6972  0.9768
12751SOL     OW45113   0.367   4.946   6.014  0.1001 -0.2502 -0.0108
12751SOL    HW145114   0.302   5.014   5.993  3.0080  2.8298  0.2757
12751SOL    HW245115   0.411   4.930   5.931  0.8422 -0.2014  0.3716
12752SOL     OW45116   3.086   7.352   2.986 -0.1298  0.2165  0.4263
12752SOL    HW145117   3.143   7.300   3.043 -0.2701  0.9476  1.2580
12752SOL    HW245118   3.100   7.316   2.898  0.6112 -0.4804  0.8207
12753SOL     OW45119   6.104   6.968  11.650 -0.3452 -0.1024 -0.0106
12753SOL    HW145120   6.171   7.035  11.659  0.7336 -1.0832 -0.5092
12753SOL    HW245121   6.076   6.948  11.740  0.8586 -0.4861  0.2902
12754SOL     OW45122   4.399   2.795  12.103  0.5536 -0.2569 -0.2202
12754SOL    HW145123   4.372   2.873  12.151  1.9624 -0.2492  0.6314
12754SOL    HW245124   4.336   2.727  12.127 -0.9166  0.6704 -1.2682
12755SOL     OW45125   8.559   7.782   8.146 -0.7921 -0.5663  0.6930
12755SOL    HW145126   8.469   7.809   8.129 -0.9304 -0.8282  0.9896
12755SOL    HW245127   8.586   7.834   8.221  0.1206  1.2439 -0.8177
12756SOL     OW45128   2.339  11.097   3.480  0.5231  0.4056  0.1685
12756SOL    HW145129   2.402  11.163   3.509  1.2891 -0.7617  1.2820
12756SOL    HW245130   2.286  11.141   3.414  1.4308  1.9246  0.4161
12757SOL     OW45131   8.249   8.657   5.119  0.7395  0.3475 -0.6794
12757SOL    HW145132   8.315   8.669   5.188  0.5685 -0.4302 -0.3654
12757SOL    HW245133   8.167   8.646   5.167  0.8468 -1.8979 -0.8794
12758SOL     OW45134   6.310   1.266   7.572  0.5137  0.1424 -0.3635
12758SOL    HW145135   6.363   1.262   7.652  1.5748 -1.5796 -1.0905
12758SOL    HW245136   6.225   1.298   7.601  1.9664  3.3312  0.8128
12759SOL     OW45137   8.435  11.166   7.073  0.3609  0.1648  0.1035
12759SOL    HW145138   8.392  11.179   7.158 -1.4440 -0.4418 -0.6622
12759SOL    HW245139   8.365  11.179   7.009  1.6995  0.6373 -1.3098
12760SOL     OW45140  12.173   7.202   0.373 -0.6012 -0.1578  0.7681
12760SOL    HW145141  12.236   7.147   0.418 -0.7157  1.1154  2.5944
12760SOL    HW245142  12.200   7.199   0.281 -0.5811 -3.1350  0.7841
12761SOL     OW45143   4.058   8.588  12.014 -0.6045 -0.3099  0.6169
12761SOL    HW145144   3.997   8.521  11.983 -1.0532  0.2448  0.2746
12761SOL    HW245145   4.082   8.561  12.102 -1.9067 -0.1589  1.0331
12762SOL     OW45146   1.821   0.737   0.936  0.3650  0.3028  0.0011
12762SOL    HW145147   1.862   0.691   1.009 -2.2674  0.1570  1.5020
12762SOL    HW245148   1.758   0.675   0.901 -0.6263  1.4637 -0.3378
12763SOL     OW45149   1.573  12.139   0.063  0.1878 -0.2459  0.3422
12763SOL    HW145150   1.594  12.067   0.123  0.7822  0.6706  1.2835
12763SOL    HW245151   1.500  12.107   0.012 -0.9715 -0.7510  2.2080
12764SOL     OW45152   7.450  10.840  11.450  0.6649  0.3682  0.1566
12764SOL    HW145153   7.523  10.788  11.483  1.3798  0.9701 -0.4493
12764SOL    HW245154   7.442  10.815  11.358  0.2640  0.4803  0.1588
12765SOL     OW45155   8.855   7.461   2.839 -0.3530  0.0712 -0.2273
12765SOL    HW145156   8.908   7.384   2.860 -0.2121  0.1929 -0.1327
12765SOL    HW245157   8.776   7.451   2.893  0.3339  0.7602  0.9524
12766SOL     OW45158  12.238   9.945   0.862 -0.3051  0.1095 -0.3348
12766SOL    HW145159  12.290   9.868   0.883  1.6004  1.4728  0.2705
12766SOL    HW245160  12.297  10.001   0.810 -2.0260  0.6640 -1.8058
12767SOL     OW45161   1.704   6.273   6.747 -0.2391  0.5568 -0.5377
12767SOL    HW145162   1.671   6.337   6.684 -1.3428 -0.5692 -1.1337
12767SOL    HW245163   1.725   6.196   6.696  0.5708  0.2287  0.2507
12768SOL     OW45164   1.591   8.561   7.025 -0.4307 -0.0738 -0.2704
12768SOL    HW145165   1.637   8.484   7.059 -0.6884 -0.2784 -0.3778
12768SOL    HW245166   1.626   8.634   7.076  1.1389  0.0080 -1.4079
12769SOL     OW45167   4.075   5.191   8.738  0.2547  0.1719 -0.3417
12769SOL    HW145168   4.008   5.135   8.778 -1.4374  2.6640  0.6141
12769SOL    HW245169   4.158   5.151   8.762 -0.8154 -2.6477 -0.9386
12770SOL     OW45170   0.276  11.562   9.279 -0.0282 -0.1162 -0.0834
12770SOL    HW145171   0.364  11.600   9.280  0.6125 -1.4895 -0.8662
12770SOL    HW245172   0.286  11.478   9.323 -0.8874 -0.3976 -0.4113
12771SOL     OW45173   9.087   2.506   4.604  0.4900  0.2477 -0.2605
12771SOL    HW145174   9.153   2.564   4.566  1.4952 -0.8576 -0.2666
12771SOL    HW245175   9.134   2.456   4.670 -1.2418  2.2771  2.7329
12772SOL     OW45176   3.143   3.538  12.481  0.1373  0.1045  0.1850
12772SOL    HW145177   3.136   3.577  12.394  3.5276  2.1714  0.6647
12772SOL    HW245178   3.201   3.463  12.470  0.4239  0.2555  0.6193
12773SOL     OW45179   1.485   3.618  12.154  0.5044 -0.3967  0.1141
12773SOL    HW145180   1.569   3.629  12.199 -0.1116  1.6724  0.8743
12773SOL    HW245181   1.506   3.629  12.061  1.0629  0.3104  0.3141
12774SOL     OW45182   8.285   1.346   3.134  0.0914  0.5018  0.1926
12774SOL    HW145183   8.243   1.265   3.106  1.7368  0.3394 -2.0691
12774SOL    HW245184   8.246   1.414   3.078 -0.8976  1.2574  1.7153
12775SOL     OW45185   3.314   1.837   3.141  0.7251 -0.1091 -0.3537
12775SOL    HW145186   3.242   1.804   3.087  0.8630 -0.6767 -0.1934
12775SOL    HW245187   3.286   1.925   3.166 -0.4353 -0.7189  0.6451
12776SOL     OW45188   8.463   0.058   1.792 -0.0659  0.5236  0.0005
12776SOL    HW145189   8.427   0.147   1.794  0.7978  0.8963 -0.5531
12776SOL    HW245190   8.528   0.061   1.722 -1.2303 -0.9991 -1.2067
12777SOL     OW45191   9.058   2.244  11.171 -0.1197 -0.4956  0.4078
12777SOL    HW145192   9.042   2.306  11.099 -1.4759 -1.0508  0.2185
12777SOL    HW245193   9.010   2.166  11.147 -1.8949 -0.1841  2.6273
12778SOL     OW45194   8.501   6.306  11.891 -0.0042 -0.1746 -0.4107
12778SOL    HW145195   8.509   6.218  11.853 -0.1709 -0.1657 -0.4702
12778SOL    HW245196   8.483   6.291  11.984  0.1861 -0.1999 -0.3774
12779SOL     OW45197   4.622   6.554   6.293  0.2265  0.1220 -0.7186
12779SOL    HW145198   4.617   6.487   6.225  0.7044 -0.3838 -0.2605
12779SOL    HW245199   4.693   6.525   6.350  0.2583  0.8793 -0.3668
12780SOL     OW45200   5.373   9.104  11.999  0.4799  0.2783  0.3841
12780SOL    HW145201   5.422   9.110  11.917 -0.5755  0.5447 -0.2496
12780SOL    HW245202   5.288   9.067  11.974  0.4418 -0.4270  1.4961
12781SOL     OW45203   4.865   2.957   8.982 -0.1370  0.0887 -0.0816
12781SOL    HW145204   4.840   2.961   8.890 -0.2778  1.1086 -0.0103
12781SOL    HW245205   4.857   2.865   9.005 -0.8129 -0.0660 -0.8941
12782SOL     OW45206   0.574   7.711   8.776 -0.0160 -0.3423  0.1235
12782SOL    HW145207   0.510   7.762   8.827 -0.7458 -1.1075  0.0033
12782SOL    HW245208   0.628   7.777   8.733 -0.9719  0.3469 -0.0768
12783SOL     OW45209   2.149   6.368   1.506 -0.1174 -0.2906  0.1775
12783SOL    HW145210   2.121   6.312   1.578 -2.0571  0.8920  0.4000
12783SOL    HW245211   2.189   6.307   1.443  0.8992 -1.4490  1.8356
12784SOL     OW45212   6.132   6.841  10.945  0.3009 -0.0580 -0.5850
12784SOL    HW145213   6.191   6.855  10.871 -1.4628 -1.1561 -2.2789
12784SOL    HW245214   6.051   6.887  10.921  0.1785  0.8745  1.3909
12785SOL     OW45215   4.739   9.478  11.848 -0.1318  0.1268 -0.0195
12785SOL    HW145216   4.763   9.387  11.828  0.3565 -0.0161  1.1669
12785SOL    HW245217   4.811   9.511  11.902 -2.2413 -0.1406  3.2143
12786SOL     OW45218   5.634  11.019   9.452  0.3519 -0.2282  0.0130
12786SOL    HW145219   5.636  11.107   9.414 -2.3537 -0.9836 -2.2059
12786SOL    HW245220   5.597  11.032   9.539  0.1817  0.8741 -0.2059
12787SOL     OW45221  10.168   2.767   9.371  0.3821 -0.1703  0.2333
12787SOL    HW145222  10.251   2.737   9.409  0.5606 -1.1636 -0.8719
12787SOL    HW245223  10.108   2.693   9.381  0.0529  0.0275 -0.2340
12788SOL     OW45224   1.105   6.782   7.901 -0.8243 -0.2180  0.2216
12788SOL    HW145225   1.120   6.870   7.937  0.8594 -1.0181  1.6087
12788SOL    HW245226   1.018   6.758   7.933 -0.2124 -0.0793  2.1334
12789SOL     OW45227   5.310   1.841   2.817 -0.5001  0.2122  0.3120
12789SOL    HW145228   5.394   1.799   2.802 -1.2309 -0.9105 -0.8991
12789SOL    HW245229   5.263   1.782   2.876 -0.8744  0.2106  0.0212
12790SOL     OW45230   0.054   5.877   4.637  0.0391 -0.0656 -0.0188
12790SOL    HW145231  -0.015   5.810   4.637  0.4929 -0.5403  0.4984
12790SOL    HW245232   0.124   5.839   4.585 -0.0535  0.3924 -0.4909
12791SOL     OW45233   1.199   7.998  10.688 -0.3162 -0.3375 -0.0665
12791SOL    HW145234   1.285   8.027  10.658 -0.3703 -1.8240 -1.8264
12791SOL    HW245235   1.151   8.080  10.704  0.8610  0.5229 -0.7369
12792SOL     OW45236   3.456   8.893  12.073 -0.0155 -0.0253  0.1765
12792SOL    HW145237   3.518   8.821  12.082  0.0479 -0.3410 -2.2432
12792SOL    HW245238   3.494   8.965  12.124  0.2443 -1.4507  2.0886
12793SOL     OW45239  11.888  11.880   8.920  0.4910  0.5960  0.0151
12793SOL    HW145240  11.943  11.871   8.998 -0.0670  1.4824  0.5322
12793SOL    HW245241  11.803  11.908   8.954  0.2211  0.9270 -0.9064
12794SOL     OW45242   5.743   5.432   4.376  0.0206  0.4497  0.2099
12794SOL    HW145243   5.686   5.507   4.393  0.1030  0.4012  0.7073
12794SOL    HW245244   5.799   5.426   4.454 -1.4350 -1.4737  1.2093
12795SOL     OW45245  11.850   4.927   5.263 -0.2174  0.6016 -0.0044
12795SOL    HW145246  11.917   4.943   5.329  2.6219 -1.8147 -2.0486
12795SOL    HW245247  11.791   5.002   5.270  1.7888  2.0891  2.9544
12796SOL     OW45248   6.553   8.752   4.826  0.2779 -0.0902 -0.0020
12796SOL    HW145249   6.581   8.833   4.783 -0.7419  0.2261 -0.1041
12796SOL    HW245250   6.574   8.765   4.919  0.9396 -0.0829 -0.1514
12797SOL     OW45251   7.203  12.196   6.019 -0.6990  0.2724  0.6916
12797SOL    HW145252   7.240  12.108   6.019  0.4009  0.7082  1.5604
12797SOL    HW245253   7.204  12.223   5.928 -0.6031 -0.4320  0.4815
12798SOL     OW45254   8.055   2.237   1.101 -0.6526  0.5565 -0.6285
12798SOL    HW145255   8.142   2.276   1.103 -0.4870  0.2029  1.9899
12798SOL    HW245256   8.066   2.151   1.142 -1.9430 -0.1909 -1.7797
12799SOL     OW45257  10.356   4.790   5.682 -0.0429  0.1628  0.1257
12799SOL    HW145258  10.415   4.833   5.620  0.1912  1.6515  1.3362
12799SOL    HW245259  10.396   4.806   5.768 -1.3197 -0.2692  0.8141
12800SOL     OW45260  10.749   4.540  10.920  0.6227  0.2055  0.3561
12800SOL    HW145261  10.746   4.621  10.870 -2.3624  0.3534  0.6265
12800SOL    HW245262  10.666   4.497  10.902  1.0538 -1.5765  2.2037
12801SOL     OW45263  10.052   3.939  12.389  0.3049  0.1578 -0.2271
12801SOL    HW145264  10.014   3.875  12.449  0.4708 -0.9121 -1.2229
12801SOL    HW245265  10.008   3.922  12.306  1.4460  0.3237 -0.8807
12802SOL     OW45266   9.283   5.244  10.387  0.1538 -0.3715  0.4260
12802SOL    HW145267   9.373   5.276  10.385  0.5310 -1.4576 -1.1015
12802SOL    HW245268   9.243   5.279  10.307 -1.3500  1.5173  1.8719
12803SOL     OW45269   8.921   4.056   8.952 -0.2304 -0.0616  0.4578
12803SOL    HW145270   8.904   4.103   9.033 -0.4821  1.5510 -0.4745
12803SOL    HW245271   8.850   3.993   8.945 -2.7077  2.6022 -0.5012
12804SOL     OW45272   9.073   8.356  10.876 -0.9599 -0.6059 -0.1431
12804SOL    HW145273   9.073   8.260  10.875  0.1396 -0.6088 -0.7586
12804SOL    HW245274   9.076   8.381  10.784 -2.0292  0.0414 -0.0224
12805SOL     OW45275   6.359   0.506   3.126 -0.2883  0.0717  1.1019
12805SOL    HW145276   6.390   0.432   3.074  2.1106 -0.1219  2.6747
12805SOL    HW245277   6.276   0.477   3.162 -0.3455 -1.0740  0.1253
12806SOL     OW45278   8.244   5.853  10.948  0.1046 -0.1453  0.3741
12806SOL    HW145279   8.158   5.880  10.981 -0.4515  0.1365 -1.2419
12806SOL    HW245280   8.235   5.853  10.853  1.4282 -1.6938  0.2025
12807SOL     OW45281   2.178  12.385   6.120  0.1060 -0.3684 -0.3951
12807SOL    HW145282   2.263  12.428   6.134 -1.0610  1.9682 -0.0986
12807SOL    HW245283   2.122  12.419   6.190 -0.8821 -2.5354 -0.0722
12808SOL     OW45284   1.103   0.236   3.044 -0.2053 -0.0264 -0.1180
12808SOL    HW145285   1.072   0.178   2.975  0.2894 -0.6040  0.1437
12808SOL    HW245286   1.079   0.193   3.126 -0.8853  0.7072  0.0803
12809SOL     OW45287  10.439   8.097  10.636  0.2963  0.3903 -0.3113
12809SOL    HW145288  10.514   8.062  10.684 -0.8740 -1.3593  0.3754
12809SOL    HW245289  10.475   8.127  10.553  1.6201 -1.5087 -0.4963
12810SOL     OW45290   2.725   2.206   1.712  0.2567 -0.6800 -0.2706
12810SOL    HW145291   2.790   2.138   1.731 -1.4526 -2.5978 -0.9679
12810SOL    HW245292   2.641   2.168   1.739 -0.9233  0.6022 -1.9172
12811SOL     OW45293   6.949   4.663   1.844 -0.6305  0.3754  0.7284
12811SOL    HW145294   6.934   4.569   1.850 -0.0178  0.2765  0.7908
12811SOL    HW245295   6.874   4.696   1.794 -0.8316 -0.1496  0.6752
12812SOL     OW45296   8.033   2.860   2.053  0.1570 -0.7425  0.2768
12812SOL    HW145297   7.956   2.899   2.013 -1.3478 -2.9812  0.7736
12812SOL    HW245298   8.056   2.919   2.125 -1.7939 -0.5662  0.8078
12813SOL     OW45299   6.544   1.761   5.027 -0.5859  0.1843  0.8318
12813SOL    HW145300   6.526   1.854   5.018  0.2786  0.3865  1.1120
12813SOL    HW245301   6.636   1.756   5.053 -0.8961 -0.6975  1.8478
12814SOL     OW45302   7.121  11.761   3.035  0.7666  0.1209  0.1614
12814SOL    HW145303   7.120  11.774   3.129 -1.3653 -2.5469  0.6294
12814SOL    HW245304   7.048  11.814   3.003  1.3028  0.7896  0.0263
12815SOL     OW45305   3.517   1.997   9.287  0.3123  0.3794 -0.0569
12815SOL    HW145306   3.607   2.026   9.271  0.4114  0.9162  1.3112
12815SOL    HW245307   3.526   1.913   9.332  0.0432 -1.1036 -2.6169
12816SOL     OW45308   5.644  11.142   7.506 -0.3215  0.0528  0.0780
12816SOL    HW145309   5.708  11.101   7.447  1.1212 -0.9678  2.2235
12816SOL    HW245310   5.692  11.212   7.549 -1.3200  0.7302  0.1178
12817SOL     OW45311   4.810   5.398   8.268  0.2895 -0.2131 -0.4582
12817SOL    HW145312   4.744   5.437   8.211  0.7207 -0.3666 -1.0789
12817SOL    HW245313   4.882   5.462   8.269  0.3739 -0.3092 -0.2575
12818SOL     OW45314   3.505   5.693   3.987  0.1906 -0.6309 -0.3332
12818SOL    HW145315   3.569   5.640   3.940 -0.5055  0.6071 -2.9271
12818SOL    HW245316   3.421   5.653   3.965 -0.1605  0.0757 -0.2973
12819SOL     OW45317  11.996   0.466   6.762 -0.4030 -0.5972  0.0261
12819SOL    HW145318  11.904   0.444   6.775 -0.7063  0.4448 -0.2533
12819SOL    HW245319  12.017   0.526   6.834 -0.2222 -0.0511 -0.4788
12820SOL     OW45320   3.328   3.114  12.055 -0.2335 -0.5193  0.3724
12820SOL    HW145321   3.293   3.134  11.968 -1.2666 -0.6642  0.7381
12820SOL    HW245322   3.386   3.039  12.040  5.2751  3.4187 -1.3736
12821SOL     OW45323   0.603   4.134   2.500 -0.0633  0.5844 -0.6137
12821SOL    HW145324   0.647   4.187   2.567 -2.0352  0.8866  0.5360
12821SOL    HW245325   0.610   4.044   2.533 -0.6989  0.6897 -0.1637
12822SOL     OW45326   3.159   5.247   5.566 -0.4775  0.4741  0.2068
12822SOL    HW145327   3.080   5.210   5.527  0.3990 -1.0906 -0.1837
12822SOL    HW245328   3.131   5.331   5.601 -2.4731 -0.3442  0.7228
12823SOL     OW45329   4.520   7.274  10.745  0.0795  0.6134  0.2026
12823SOL    HW145330   4.499   7.209  10.678 -0.0016  0.2553  0.5699
12823SOL    HW245331   4.472   7.244  10.822  0.7988  0.5823  0.6450
12824SOL     OW45332   6.417   8.058   0.950  0.0412 -0.2449  0.0341
12824SOL    HW145333   6.494   8.082   1.002 -1.6803  1.2963  2.0829
12824SOL    HW245334   6.377   7.986   0.998 -0.6956  0.1161 -0.0222
12825SOL     OW45335  10.181   6.771   2.187  0.2550 -0.1577  0.4533
12825SOL    HW145336  10.118   6.794   2.255 -1.2441 -1.3229 -0.4803
12825SOL    HW245337  10.158   6.682   2.161 -0.6598  0.9297 -3.0062
12826SOL     OW45338   6.231   9.114  10.898  0.1332  0.8441  0.0364
12826SOL    HW145339   6.299   9.171  10.861 -0.4571  0.8131 -1.1431
12826SOL    HW245340   6.165   9.109  10.830 -0.5453 -0.0275  0.7401
12827SOL     OW45341   1.052  11.228   2.182  0.3129  0.1743  0.7789
12827SOL    HW145342   1.021  11.304   2.133 -2.0287 -0.5163  1.0671
12827SOL    HW245343   1.116  11.187   2.123 -1.4370  0.0957 -1.2062
12828SOL     OW45344   8.608   8.172  10.121  0.2528  0.0407  0.1497
12828SOL    HW145345   8.675   8.138  10.060 -1.1590 -1.1398 -0.8042
12828SOL    HW245346   8.615   8.116  10.198  0.4986  0.0485  0.1351
12829SOL     OW45347   6.172   4.782   4.192  1.0442  0.1296 -0.7797
12829SOL    HW145348   6.132   4.697   4.175 -1.8313  1.2900 -0.3977
12829SOL    HW245349   6.205   4.811   4.107  1.8079 -1.1991 -0.9689
12830SOL     OW45350   5.330   6.674   4.777  0.5623 -0.4773 -0.1716
12830SOL    HW145351   5.330   6.754   4.725  0.6087 -0.7865 -0.6571
12830SOL    HW245352   5.276   6.694   4.853 -1.2488 -0.6530 -1.3513
12831SOL     OW45353   8.068  10.180   4.048  0.3748  0.2506  0.7464
12831SOL    HW145354   8.153  10.136   4.047 -0.4183 -1.3733 -0.9296
12831SOL    HW245355   8.088  10.270   4.074  2.4504 -0.3367  1.3893
12832SOL     OW45356   5.792   4.176   1.071 -0.7363  0.0073  0.5531
12832SOL    HW145357   5.783   4.080   1.075  2.4867 -0.4412 -0.1391
12832SOL    HW245358   5.838   4.192   0.989  0.5604  1.9453  1.6012
12833SOL     OW45359   6.340  10.717  11.882  0.6053  0.8808 -0.0830
12833SOL    HW145360   6.285  10.754  11.813  0.5888  0.3381 -0.3672
12833SOL    HW245361   6.430  10.726  11.848  0.6121  0.8078 -0.0855
12834SOL     OW45362  11.896  10.726   1.104 -0.0702  0.4645 -0.2353
12834SOL    HW145363  11.822  10.681   1.063  0.8038 -0.4881 -0.8213
12834SOL    HW245364  11.867  10.744   1.193 -0.4660 -1.3162  0.0385
12835SOL     OW45365   5.162   4.891   6.814  0.3578 -0.4177 -0.3549
12835SOL    HW145366   5.201   4.847   6.738 -0.0117  1.5538 -1.7778
12835SOL    HW245367   5.102   4.826   6.852  1.2414 -1.7596 -1.1849
12836SOL     OW45368   0.018   1.439   1.987 -0.2216 -0.4945  0.0560
12836SOL    HW145369   0.020   1.503   1.916  0.9945  0.2964  0.7706
12836SOL    HW245370   0.090   1.379   1.967  0.4166 -0.0069  0.8293
12837SOL     OW45371   8.876  11.478   1.313  0.4100 -0.2169  0.0222
12837SOL    HW145372   8.866  11.478   1.408  0.6491 -1.3788  0.0721
12837SOL    HW245373   8.968  11.452   1.299  1.2764  2.7333 -0.5057
12838SOL     OW45374  10.571   7.606   7.892  0.7886  0.0949  0.2224
12838SOL    HW145375  10.570   7.580   7.984  1.3066 -0.8878 -0.0325
12838SOL    HW245376  10.480   7.623   7.870  0.4382 -1.3109  0.4798
12839SOL     OW45377   3.916   6.105   7.847 -0.0246  0.6024 -0.5285
12839SOL    HW145378   3.905   6.015   7.816  0.2505  0.8787 -1.4854
12839SOL    HW245379   3.998   6.134   7.807  0.4090  0.9571  0.5777
12840SOL     OW45380   2.426   4.571   9.965 -0.5857  0.0158  0.3669
12840SOL    HW145381   2.342   4.613   9.945 -0.7981 -0.5729 -0.0267
12840SOL    HW245382   2.438   4.584  10.059 -1.2659 -0.1471  0.4805
12841SOL     OW45383   3.058   8.956   8.388  0.0471 -0.0855  0.0303
12841SOL    HW145384   3.045   8.867   8.422  1.7023 -0.4086 -0.0780
12841SOL    HW245385   2.973   8.980   8.351 -1.2404 -0.5087  2.5276
12842SOL     OW45386  10.546   0.141   3.222  0.1017  0.4722 -0.1423
12842SOL    HW145387  10.468   0.144   3.167  0.5141  2.4842 -0.7072
12842SOL    HW245388  10.585   0.228   3.213  1.2684  0.2102  1.7950
12843SOL     OW45389  10.523  11.436   8.507  0.9248 -0.1270 -0.4029
12843SOL    HW145390  10.541  11.342   8.517  2.9528  0.3477  0.9496
12843SOL    HW245391  10.608  11.475   8.486 -0.0377  1.3463 -1.8834
12844SOL     OW45392   4.147   3.206   6.899  0.2457  0.2836 -0.4299
12844SOL    HW145393   4.060   3.245   6.893 -0.4158 -1.3495 -3.9183
12844SOL    HW245394   4.131   3.112   6.912  1.4959  0.0724 -0.2762
12845SOL     OW45395   3.314  12.369  11.834  0.6052  0.6895  0.7441
12845SOL    HW145396   3.225  12.343  11.857  1.0537 -1.7082  0.0958
12845SOL    HW245397   3.322  12.458  11.867 -1.8631  0.8196  1.2339
12846SOL     OW45398  10.671   9.738  10.439 -0.1132 -0.9836 -0.2243
12846SOL    HW145399  10.746   9.681  10.459 -0.3543 -1.2060  0.0493
12846SOL    HW245400  10.671   9.744  10.343  2.0334  1.3958 -0.1960
12847SOL     OW45401   6.884   9.389   6.957 -0.2395  0.0552  0.1463
12847SOL    HW145402   6.871   9.478   6.989 -1.5607 -0.3404  0.8115
12847SOL    HW245403   6.917   9.400   6.868 -0.0818  1.2028  0.3299
12848SOL     OW45404   8.847   9.070   4.624  0.1214 -0.3230  0.2510
12848SOL    HW145405   8.799   9.152   4.613  0.0244 -0.3174  0.7149
12848SOL    HW245406   8.930   9.096   4.664  0.6678 -0.2894 -0.8545
12849SOL     OW45407  10.292   2.284  12.187  0.1104  0.1209  0.0889
12849SOL    HW145408  10.283   2.367  12.234 -0.4543 -0.2371  0.6281
12849SOL    HW245409  10.346   2.305  12.111  2.0773  0.4713  1.5067
12850SOL     OW45410   6.473   4.062  11.525 -0.2599  0.2627 -0.2176
12850SOL    HW145411   6.399   4.084  11.583 -0.6522 -1.1225 -0.1657
12850SOL    HW245412   6.520   3.994  11.572  2.2891  2.4853  0.7009
12851SOL     OW45413   6.631   7.979   5.603  0.3007  0.1268  0.1350
12851SOL    HW145414   6.686   7.973   5.524  1.1524  0.5044  0.6766
12851SOL    HW245415   6.663   7.908   5.659 -0.1204  0.0256  0.2467
12852SOL     OW45416  10.894   0.291   2.278  0.1204  0.2397 -0.2828
12852SOL    HW145417  10.910   0.383   2.295 -0.0553  0.3223 -0.5569
12852SOL    HW245418  10.977   0.259   2.242  0.4623  0.0837  0.6308
12853SOL     OW45419  12.271   0.846   4.917  0.0211 -0.0759 -0.2282
12853SOL    HW145420  12.215   0.782   4.960 -0.2966  0.7726  0.6625
12853SOL    HW245421  12.357   0.834   4.958  0.0760 -0.2371 -0.3881
12854SOL     OW45422   5.666   7.912  12.158  0.1710  0.1462  0.1728
12854SOL    HW145423   5.738   7.849  12.167  0.7842  0.2755 -2.8269
12854SOL    HW245424   5.611   7.896  12.234  1.3394 -2.6593  0.5583
12855SOL     OW45425   1.384   5.899   6.418 -0.4612  0.3704  0.2460
12855SOL    HW145426   1.424   5.830   6.365  2.7557  1.7162  0.7260
12855SOL    HW245427   1.328   5.853   6.480 -0.3188 -1.5963 -1.0093
12856SOL     OW45428   8.183   6.102   2.070 -0.0448  0.2048  0.0893
12856SOL    HW145429   8.229   6.097   1.986 -1.3840  0.0076 -0.6642
12856SOL    HW245430   8.092   6.121   2.047 -0.7287 -1.2126  1.4108
12857SOL     OW45431   6.135  11.539   0.441  1.1706 -0.2952  0.2657
12857SOL    HW145432   6.179  11.562   0.523  1.3378 -0.5572  0.2508
12857SOL    HW245433   6.144  11.443   0.435  1.6775 -0.2143 -0.3531
12858SOL     OW45434   9.996   3.160   9.335 -0.1504  0.0508  0.3276
12858SOL    HW145435  10.086   3.127   9.342  0.0681  0.3558 -0.9609
12858SOL    HW245436   9.942   3.081   9.323  0.0410 -0.0647  0.2282
12859SOL     OW45437   0.181  11.230   8.931  0.2704  0.2605 -0.1513
12859SOL    HW145438   0.184  11.320   8.899  0.0654  1.7776  3.5289
12859SOL    HW245439   0.261  11.220   8.983 -1.6191 -0.0928  2.9423
12860SOL     OW45440   3.375   8.994  11.514  0.6904 -0.5067  1.0133
12860SOL    HW145441   3.405   9.065  11.571 -0.1262 -0.5275  1.4740
12860SOL    HW245442   3.446   8.930  11.517  1.8938  0.7135 -0.2023
12861SOL     OW45443   0.043   4.629   5.022  0.5189  0.1087  0.1642
12861SOL    HW145444   0.037   4.536   5.046 -0.0980  0.2866  0.7484
12861SOL    HW245445   0.136   4.651   5.032  0.6113 -0.3604  0.3596
12862SOL     OW45446   7.041   2.366   7.727  0.0603  0.4831 -0.2566
12862SOL    HW145447   7.040   2.354   7.632 -1.0429  0.2853 -0.2382
12862SOL    HW245448   7.039   2.277   7.762 -1.9304  0.5454 -0.0856
12863SOL     OW45449   6.829   2.488   3.970 -0.2081  0.2859 -0.2752
12863SOL    HW145450   6.808   2.405   3.927 -0.9146 -0.2023  0.9477
12863SOL    HW245451   6.912   2.516   3.930 -1.5460  0.6792 -3.0313
12864SOL     OW45452   5.312   8.885   4.478  0.2246  0.0953  0.3188
12864SOL    HW145453   5.350   8.799   4.494 -1.6442 -0.7904  0.2921
12864SOL    HW245454   5.282   8.914   4.564  0.4014  0.4904  0.2479
12865SOL     OW45455   3.335   5.274   0.824 -0.2755  0.3730  0.1682
12865SOL    HW145456   3.317   5.206   0.759 -2.4021  0.6319  0.4242
12865SOL    HW245457   3.263   5.268   0.886  0.6340  1.4812  1.4028
12866SOL     OW45458   7.067   6.257   7.011  0.1693  0.3498 -0.3212
12866SOL    HW145459   7.091   6.173   7.051 -1.4255 -0.4061 -0.8740
12866SOL    HW245460   7.150   6.294   6.983  0.8628 -1.4450 -0.8165
12867SOL     OW45461   0.950   4.554   1.392 -0.9365  0.3739  0.0842
12867SOL    HW145462   1.023   4.491   1.396 -1.2110  0.0035 -0.6223
12867SOL    HW245463   0.927   4.568   1.484 -1.0592 -0.7828  0.2535
12868SOL     OW45464   8.155  10.787   7.648  0.2341  0.2113  0.5197
12868SOL    HW145465   8.208  10.718   7.608  0.2780 -0.1211  1.1371
12868SOL    HW245466   8.189  10.795   7.737  0.6017  1.4261  0.2902
12869SOL     OW45467   8.447   1.995   3.707  0.2403 -0.4329 -0.0300
12869SOL    HW145468   8.480   2.055   3.640  0.2238  0.1955  0.5082
12869SOL    HW245469   8.444   2.048   3.787 -1.1091 -0.7639  0.1520
12870SOL     OW45470   1.091   5.065   1.084 -0.6195  0.7862  0.4814
12870SOL    HW145471   1.025   5.053   1.151 -0.4729 -0.0272  0.4969
12870SOL    HW245472   1.105   5.160   1.080  0.0139  0.8076  2.2293
12871SOL     OW45473   9.659  12.058  11.881 -0.2493  0.2657  0.0739
12871SOL    HW145474   9.722  12.130  11.875  0.8191 -0.6042  0.5086
12871SOL    HW245475   9.711  11.979  11.865 -1.1055 -0.5144  1.0077
12872SOL     OW45476   4.793   0.052   0.721 -0.1051 -0.5462  0.4917
12872SOL    HW145477   4.719   0.096   0.763  0.8214 -0.9907  2.7117
12872SOL    HW245478   4.788  -0.038   0.752  1.0037 -0.7262  0.1698
12873SOL     OW45479  10.726   5.618   1.505 -0.0047  0.4629 -0.1582
12873SOL    HW145480  10.809   5.570   1.509 -1.2350 -1.8516 -0.3930
12873SOL    HW245481  10.677   5.575   1.435 -2.1586  0.4315  1.2702
12874SOL     OW45482   4.955   3.297   3.486  0.0095 -0.2175 -0.7030
12874SOL    HW145483   4.905   3.219   3.460  1.8506 -1.9333  0.5654
12874SOL    HW245484   4.988   3.333   3.404  0.5404 -1.8242 -1.2478
12875SOL     OW45485   9.936   6.556   6.431 -0.0904 -0.0077  0.3772
12875SOL    HW145486  10.030   6.549   6.415 -0.1889 -2.0376  0.4580
12875SOL    HW245487   9.916   6.649   6.417  1.4610  0.0311 -2.2098
12876SOL     OW45488   4.373   8.709   3.689 -0.1110  0.1932  0.3067
12876SOL    HW145489   4.332   8.645   3.630  1.6170 -0.9643  0.2892
12876SOL    HW245490   4.300   8.741   3.743 -0.8682 -3.1146  1.5190
12877SOL     OW45491   9.764   1.112  11.677 -0.3397  0.4605  0.0066
12877SOL    HW145492   9.786   1.022  11.653 -3.1317 -0.3020 -0.0739
12877SOL    HW245493   9.806   1.125  11.762  0.5524 -0.6908 -0.2246
12878SOL     OW45494   5.169   8.955   4.697  0.1724 -0.4642 -0.2145
12878SOL    HW145495   5.168   8.992   4.786  0.7871  0.2723 -0.5018
12878SOL    HW245496   5.125   8.871   4.706 -0.2327 -0.1774  0.6940
12879SOL     OW45497   6.657   3.335   8.992 -0.9001 -0.5799 -0.3529
12879SOL    HW145498   6.665   3.378   8.907  0.7507 -0.8752 -0.3708
12879SOL    HW245499   6.747   3.321   9.021 -1.4285 -0.9473  1.2189
12880SOL     OW45500   9.229  11.123   0.799  0.1895  0.2593 -0.1333
12880SOL    HW145501   9.151  11.101   0.851 -0.5709  0.7151 -1.0422
12880SOL    HW245502   9.267  11.199   0.843 -1.0353  1.2868 -0.7750
12881SOL     OW45503  10.300   9.612   3.395 -0.0853  0.2586 -0.0333
12881SOL    HW145504  10.282   9.602   3.302  0.5677 -1.5854  0.0085
12881SOL    HW245505  10.231   9.670   3.427 -0.3512  0.8645 -1.6389
12882SOL     OW45506   2.847   5.104   7.425  0.8000 -0.1023  0.5838
12882SOL    HW145507   2.895   5.165   7.481  0.4894  0.5360  0.1708
12882SOL    HW245508   2.895   5.104   7.342  0.1506  0.4813  0.1943
12883SOL     OW45509   6.566   5.760   1.682  0.5741 -0.3917 -0.1081
12883SOL    HW145510   6.577   5.855   1.686 -0.0301 -0.2642 -1.1088
12883SOL    HW245511   6.600   5.729   1.766  0.8408  0.6972  0.2121
12884SOL     OW45512   0.164   4.720   2.566 -0.0117 -0.0381 -0.2380
12884SOL    HW145513   0.189   4.787   2.630 -1.0293  0.1832 -0.0574
12884SOL    HW245514   0.110   4.659   2.615 -1.0960  0.3255 -0.9525
12885SOL     OW45515   5.441  10.148   9.770 -0.1927 -0.4227  0.2756
12885SOL    HW145516   5.512  10.108   9.721  0.1649 -1.0653  1.2857
12885SOL    HW245517   5.427  10.089   9.844 -1.8297 -0.3444  0.0608
12886SOL     OW45518   6.868   9.017   1.420  0.2575  0.0972  0.0886
12886SOL    HW145519   6.861   8.936   1.471  0.7926 -0.2802 -0.4270
12886SOL    HW245520   6.778   9.037   1.395 -0.0231  0.2943  1.1732
12887SOL     OW45521  11.271   1.839   3.521 -0.0961 -0.3491  0.3811
12887SOL    HW145522  11.346   1.887   3.557 -1.6623  0.4379  2.8776
12887SOL    HW245523  11.305   1.751   3.503  1.4178 -0.0142  1.3906
12888SOL     OW45524   5.728   1.819   6.300 -0.1084 -0.1988  0.2591
12888SOL    HW145525   5.734   1.744   6.240  1.5627  1.6962 -2.1437
12888SOL    HW245526   5.638   1.851   6.288  0.0329 -0.1685 -0.8973
12889SOL     OW45527   5.964   2.030   8.914 -0.3020  0.1063  0.0810
12889SOL    HW145528   5.981   2.095   8.846 -1.2318  0.8619  0.5543
12889SOL    HW245529   5.923   2.079   8.985  1.0852 -0.5684  1.4127
12890SOL     OW45530  11.330   4.944  10.413 -0.0763 -0.0579 -0.7224
12890SOL    HW145531  11.280   4.865  10.434  0.8321 -0.5704 -0.4390
12890SOL    HW245532  11.386   4.919  10.340  0.7801  0.0834 -0.1274
12891SOL     OW45533   5.627   9.602   9.609  0.2410  0.3455  0.4283
12891SOL    HW145534   5.611   9.549   9.686  2.1433 -1.2782 -0.1956
12891SOL    HW245535   5.714   9.574   9.578 -0.4710  0.8339 -2.3408
12892SOL     OW45536   2.141   2.552   0.289 -0.5505  0.6939 -0.3401
12892SOL    HW145537   2.195   2.488   0.335 -1.7764 -0.5156 -0.5184
12892SOL    HW245538   2.108   2.505   0.212 -2.6312  1.0376  0.2738
12893SOL     OW45539   9.725   8.546   0.346 -0.4260 -0.4961 -0.3133
12893SOL    HW145540   9.735   8.516   0.256 -0.2952  0.8448 -0.7568
12893SOL    HW245541   9.800   8.604   0.361 -1.2414  0.4484  0.1726
12894SOL     OW45542   7.997   5.560   1.226 -0.0374  0.6674  0.1457
12894SOL    HW145543   7.907   5.580   1.250 -0.5540 -0.7827 -0.4140
12894SOL    HW245544   8.002   5.464   1.232  1.3098  0.6857 -0.3361
12895SOL     OW45545  11.665  10.657  10.393  0.0441 -0.1653 -0.4074
12895SOL    HW145546  11.610  10.595  10.441  0.0119  0.4975  0.4366
12895SOL    HW245547  11.736  10.603  10.358  0.3200 -0.6192  0.7808
12896SOL     OW45548  10.128   7.598   9.069 -0.0182 -0.0554  0.8846
12896SOL    HW145549  10.157   7.653   8.996  1.7953  2.1468  3.0791
12896SOL    HW245550  10.046   7.639   9.097 -1.4520 -1.7155 -0.6214
12897SOL     OW45551   9.517   4.569  10.246  1.4217 -0.2910  0.1336
12897SOL    HW145552   9.581   4.640  10.244  0.2243  0.8951  1.7122
12897SOL    HW245553   9.437   4.608  10.209  1.1453 -1.2548 -0.3055
12898SOL     OW45554   3.539  11.430   7.105  0.3927 -0.4103  0.2919
12898SOL    HW145555   3.633  11.415   7.117  0.2191 -0.2393  2.2307
12898SOL    HW245556   3.502  11.420   7.193 -1.7669 -2.8969 -0.7533
12899SOL     OW45557  10.962  10.831   4.443  0.2673  0.2130 -0.2754
12899SOL    HW145558  11.024  10.902   4.430 -0.8615  1.1903 -0.4528
12899SOL    HW245559  10.880  10.862   4.404 -0.6607 -0.5613  0.9525
12900SOL     OW45560   2.817  11.245   7.404  0.4993  0.4066 -0.2929
12900SOL    HW145561   2.788  11.211   7.320 -0.2485 -0.9309  0.4676
12900SOL    HW245562   2.880  11.314   7.382 -0.4159  0.7724 -1.9345
12901SOL     OW45563  10.900  12.405   4.611  0.2832  0.0016 -0.7535
12901SOL    HW145564  10.837  12.475   4.594  0.3591 -0.2858 -2.4067
12901SOL    HW245565  10.853  12.325   4.589  0.2763 -0.4841  0.8996
12902SOL     OW45566  10.374   0.202   0.156 -0.5204  0.5998 -0.0360
12902SOL    HW145567  10.309   0.161   0.213 -2.0021  0.8032 -1.4925
12902SOL    HW245568  10.396   0.134   0.092  1.0139  0.4144  0.6534
12903SOL     OW45569   3.374   9.780  11.478 -0.4906 -0.1870 -0.7223
12903SOL    HW145570   3.311   9.747  11.414 -1.0573 -0.6684  0.0507
12903SOL    HW245571   3.396   9.868  11.448  0.5491 -0.9904 -2.4810
12904SOL     OW45572   2.740   6.288   2.908  0.0525  0.1262 -0.0396
12904SOL    HW145573   2.724   6.235   2.986  1.4338 -2.0234 -1.1275
12904SOL    HW245574   2.783   6.367   2.942  0.8189 -0.8432  1.3986
12905SOL     OW45575   8.062   9.419   6.150  0.0431  0.5135  0.1250
12905SOL    HW145576   8.099   9.507   6.146  2.7082 -0.3799  2.0400
12905SOL    HW245577   8.083   9.380   6.065  1.1841  0.9357  0.1939
12906SOL     OW45578   8.582   8.674   2.637  0.1579  0.5619  0.0039
12906SOL    HW145579   8.540   8.710   2.559  1.4780  0.5265 -0.7541
12906SOL    HW245580   8.622   8.592   2.607  1.2078  0.8605  0.5543
12907SOL     OW45581  11.744   3.942   0.214  0.3801 -0.2387  0.4617
12907SOL    HW145582  11.816   3.933   0.151  0.3219 -1.2197  0.5248
12907SOL    HW245583  11.788   3.946   0.300  0.4206  0.4194  0.4150
12908SOL     OW45584  10.055   2.796   7.496 -0.5361 -0.2565 -0.3893
12908SOL    HW145585  10.130   2.803   7.555 -0.6857  0.8827 -0.3168
12908SOL    HW245586  10.001   2.726   7.534  0.0957 -0.5461 -0.0111
12909SOL     OW45587   7.717   5.938   5.356  0.5175 -0.1145 -0.0979
12909SOL    HW145588   7.721   5.991   5.276 -0.3296 -0.7610 -0.5852
12909SOL    HW245589   7.779   5.867   5.341  1.5603  0.6411  0.5046
12910SOL     OW45590   6.640   0.167  10.867 -0.4984 -0.1510  0.3819
12910SOL    HW145591   6.584   0.096  10.899 -0.4182 -0.5010 -0.2275
12910SOL    HW245592   6.709   0.122  10.818  0.8003  0.2189  1.7990
12911SOL     OW45593   5.579   5.818  11.005  0.0019  0.0640 -0.0077
12911SOL    HW145594   5.543   5.744  10.956  2.2188 -1.0576 -0.0963
12911SOL    HW245595   5.655   5.781  11.051 -0.8652  1.5112  2.8020
12912SOL     OW45596   1.370   9.429   9.108  0.1532  0.0325  0.3193
12912SOL    HW145597   1.447   9.449   9.160 -0.1850  1.3815  0.3324
12912SOL    HW245598   1.398   9.358   9.049  0.4807 -1.6693  2.4107
12913SOL     OW45599   9.234   9.381   7.546 -0.8269  0.7379 -0.2101
12913SOL    HW145600   9.218   9.287   7.553  0.6889  0.5973  3.4421
12913SOL    HW245601   9.203   9.404   7.458  0.5779 -3.4719 -2.0558
12914SOL     OW45602   2.811  10.556   3.614 -0.1104  0.3618  0.5477
12914SOL    HW145603   2.870  10.602   3.673  2.2399 -0.9778 -0.6480
12914SOL    HW245604   2.778  10.482   3.665  1.8413 -0.7431  0.2962
12915SOL     OW45605  11.445   3.065   4.242 -0.0268 -0.1253  0.6154
12915SOL    HW145606  11.415   3.153   4.263 -0.8351 -0.2781  0.1350
12915SOL    HW245607  11.441   3.018   4.326  1.4490  0.5729  1.0950
12916SOL     OW45608   1.944   4.455   7.922 -0.0935  0.3993 -0.2290
12916SOL    HW145609   1.865   4.439   7.975  1.1232 -0.7416  1.3312
12916SOL    HW245610   1.965   4.547   7.937 -0.3306  0.3414  0.4996
12917SOL     OW45611   7.880  11.258   3.489 -0.3055 -0.2719 -0.0884
12917SOL    HW145612   7.900  11.176   3.444 -0.4964 -1.1313  1.3307
12917SOL    HW245613   7.879  11.235   3.582 -1.0829  1.1871  0.3004
12918SOL     OW45614   4.069   6.798   5.489 -0.2666  0.2397  0.1698
12918SOL    HW145615   4.119   6.876   5.465 -1.6245  0.6634 -1.4580
12918SOL    HW245616   4.074   6.741   5.413 -1.3202 -0.1944  0.4098
12919SOL     OW45617   0.853   7.957   9.889 -0.4668  0.3694 -0.1641
12919SOL    HW145618   0.871   7.987   9.799  1.0886  0.6422  0.1993
12919SOL    HW245619   0.870   8.034   9.943  3.0478 -0.8459  0.7401
12920SOL     OW45620  11.485   2.157  12.014 -0.2141  0.5239  0.3911
12920SOL    HW145621  11.463   2.224  11.950 -2.6496  0.6033  1.1922
12920SOL    HW245622  11.444   2.077  11.980  0.4869  0.0158  0.7100
12921SOL     OW45623   1.684   3.445   1.307  0.2928 -0.0721  0.1939
12921SOL    HW145624   1.746   3.409   1.371  0.8535  1.0453  0.3012
12921SOL    HW245625   1.598   3.426   1.344  0.4351 -3.3551 -0.8598
12922SOL     OW45626   2.821   2.136  10.357 -0.0876 -0.0653 -0.0385
12922SOL    HW145627   2.851   2.205  10.296  1.3538 -0.6727 -0.0634
12922SOL    HW245628   2.836   2.054  10.309  0.8757 -0.5373  1.0288
12923SOL     OW45629   5.043  12.463   7.894  0.3013  0.6222  0.6999
12923SOL    HW145630   5.108  12.505   7.838  0.2869  0.0158  0.2188
12923SOL    HW245631   5.084  12.458   7.980  0.9488  0.1264  0.3672
12924SOL     OW45632  11.871   0.255   2.353 -0.6998 -0.3570 -0.6797
12924SOL    HW145633  11.869   0.347   2.327 -0.4719 -0.7114 -2.0403
12924SOL    HW245634  11.956   0.223   2.321 -0.0154 -0.6404  1.2789
12925SOL     OW45635  10.002   9.655  10.996  0.0177  0.4966  0.6180
12925SOL    HW145636   9.982   9.746  10.977  1.7557  0.7934  0.0132
12925SOL    HW245637  10.084   9.658  11.044  1.9256 -0.8362 -2.2715
12926SOL     OW45638   7.433   1.554   5.070  0.0757  0.1995 -0.5878
12926SOL    HW145639   7.352   1.533   5.116  1.3965 -1.0995  1.3033
12926SOL    HW245640   7.430   1.502   4.990 -1.5867  1.3335 -1.3283
12927SOL     OW45641   5.824   3.239   4.884  0.2194  0.5568  0.1709
12927SOL    HW145642   5.812   3.197   4.969 -0.3404 -0.2747 -0.2967
12927SOL    HW245643   5.745   3.291   4.872  0.2046  0.5101  0.0666
12928SOL     OW45644   2.091   1.349   3.268  0.3965 -0.7487 -0.0598
12928SOL    HW145645   1.999   1.355   3.243  0.4513  1.5589  0.0640
12928SOL    HW245646   2.139   1.376   3.190  0.7890  1.1347  0.7776
12929SOL     OW45647   3.586   2.864  10.501  0.0802  0.3677  0.3990
12929SOL    HW145648   3.657   2.877  10.438 -0.8909  0.6592 -0.6807
12929SOL    HW245649   3.614   2.789  10.553 -0.3591 -1.9019 -2.3568
12930SOL     OW45650   7.592   1.848   1.990  0.0303 -0.8429 -0.1151
12930SOL    HW145651   7.686   1.833   2.004  0.7554  1.1630 -2.2337
12930SOL    HW245652   7.575   1.933   2.031 -0.3509 -0.2481 -1.4389
12931SOL     OW45653   2.793   4.249   6.205 -0.3390  0.7589  0.1923
12931SOL    HW145654   2.886   4.266   6.224 -0.7697  1.5115  1.7936
12931SOL    HW245655   2.777   4.162   6.242 -0.4463  0.9461  0.5905
12932SOL     OW45656   3.551   9.011   3.967  0.8714  0.1192 -0.2979
12932SOL    HW145657   3.521   8.999   3.877  0.7292  0.4002 -0.2923
12932SOL    HW245658   3.626   9.070   3.960 -1.0414  2.8171 -0.0167
12933SOL     OW45659   5.508   4.159  10.210 -0.0607 -0.0466 -0.0241
12933SOL    HW145660   5.580   4.146  10.148 -0.5630 -1.7066 -0.3206
12933SOL    HW245661   5.532   4.238  10.259  1.7517 -0.3166 -0.4056
12934SOL     OW45662   8.141   4.372   6.057  0.1924 -0.0791  0.0196
12934SOL    HW145663   8.194   4.446   6.087  0.2841  0.1034 -0.5841
12934SOL    HW245664   8.205   4.310   6.020  0.0445 -0.1300 -0.1503
12935SOL     OW45665   4.573   1.040   7.810 -0.1494 -0.2625 -0.3671
12935SOL    HW145666   4.652   1.092   7.797 -0.2435 -0.5047 -2.1368
12935SOL    HW245667   4.586   0.997   7.894 -0.3239  3.0201  1.5098
12936SOL     OW45668  12.334   3.119   6.136 -0.0553 -0.4211 -0.0231
12936SOL    HW145669  12.267   3.065   6.178 -0.5499 -0.0009 -0.2662
12936SOL    HW245670  12.296   3.207   6.134  1.4710  0.3951  2.1136
12937SOL     OW45671  10.746   9.303   0.984  0.1861 -0.5541  0.1326
12937SOL    HW145672  10.677   9.296   1.049 -0.4821  1.0628 -0.3459
12937SOL    HW245673  10.819   9.344   1.031 -0.0926  0.0779  0.0249
12938SOL     OW45674  11.028  10.970   7.386  0.7558  0.1993 -0.2360
12938SOL    HW145675  10.993  11.058   7.402 -0.0993  0.1123 -1.4367
12938SOL    HW245676  11.117  10.985   7.354  0.6514  0.6378 -0.3282
12939SOL     OW45677  10.813  10.003   5.271 -0.0653 -0.1886  0.1607
12939SOL    HW145678  10.784  10.093   5.256 -0.7280 -0.4895 -0.3955
12939SOL    HW245679  10.778   9.953   5.198 -1.8368 -1.3609  1.6988
12940SOL     OW45680   0.068   5.527   6.640 -0.1333  0.4581  0.1148
12940SOL    HW145681   0.000   5.553   6.577 -1.5960 -1.3180  0.8714
12940SOL    HW245682   0.063   5.593   6.708 -0.9439  0.5039  0.0268
12941SOL     OW45683   5.090   6.121   0.195 -0.3027  0.3114 -0.0530
12941SOL    HW145684   5.063   6.130   0.286  1.5079 -0.5489  0.6090
12941SOL    HW245685   5.154   6.050   0.196  2.2008  2.3835 -1.4365
12942SOL     OW45686   9.055   8.401   9.474  0.1904 -0.1320  0.0351
12942SOL    HW145687   9.114   8.339   9.516  0.6324  1.3368  1.7119
12942SOL    HW245688   9.106   8.441   9.404  0.5140 -0.3186  0.1660
12943SOL     OW45689  10.982  12.175   5.415 -0.0489 -0.0872  0.3691
12943SOL    HW145690  11.007  12.265   5.396  1.8340 -0.6341  0.0978
12943SOL    HW245691  10.963  12.175   5.509  1.1232  0.3491  0.6186
12944SOL     OW45692   3.339   8.395   2.066 -0.1823 -0.1719 -0.4105
12944SOL    HW145693   3.298   8.409   2.152 -0.1791  0.5700 -0.5245
12944SOL    HW245694   3.267   8.373   2.008 -0.4823  1.3947 -0.6699
12945SOL     OW45695   2.092   7.664   8.572  0.8447  1.0314 -0.4371
12945SOL    HW145696   2.055   7.749   8.549  0.1745  0.7876 -0.3053
12945SOL    HW245697   2.092   7.664   8.668 -0.3686  0.3957 -0.4132
12946SOL     OW45698   1.845  12.294   1.200 -0.3794 -0.4716 -0.2264
12946SOL    HW145699   1.765  12.291   1.146 -1.3806 -0.6604  1.2168
12946SOL    HW245700   1.890  12.212   1.180 -1.7182 -1.4593  0.6359
12947SOL     OW45701   7.341   0.722   9.775 -0.6135 -0.0536 -0.0581
12947SOL    HW145702   7.410   0.664   9.808 -1.2789 -0.6385  0.3353
12947SOL    HW245703   7.315   0.774   9.850 -1.3541 -0.6052  0.0838
12948SOL     OW45704   3.501   0.039   6.591 -0.3824  0.1924 -0.7582
12948SOL    HW145705   3.516  -0.050   6.560 -0.2695 -0.2777  0.5717
12948SOL    HW245706   3.552   0.045   6.672  0.3513  1.7736 -1.2863
12949SOL     OW45707   8.840   6.541   9.252  0.7021  1.0364 -0.8106
12949SOL    HW145708   8.840   6.508   9.162 -0.5111 -0.0334 -0.4525
12949SOL    HW245709   8.931   6.534   9.281  0.9622  0.6636 -1.6920
12950SOL     OW45710  12.476   8.577   0.668  0.0905  0.1810  0.0806
12950SOL    HW145711  12.385   8.548   0.680  0.7358 -1.1886  2.1030
12950SOL    HW245712  12.471   8.638   0.594 -2.1394 -1.4617 -1.2837
12951SOL     OW45713   9.233   4.372   5.877 -0.2439  0.3754 -0.6551
12951SOL    HW145714   9.283   4.290   5.876  1.9218  1.5022  2.1416
12951SOL    HW245715   9.267   4.420   5.953 -2.9142  2.9830 -0.9392
12952SOL     OW45716   4.261  10.676   3.445  0.2650 -1.0467 -0.1050
12952SOL    HW145717   4.286  10.639   3.361 -2.9003  0.3096 -1.7950
12952SOL    HW245718   4.167  10.694   3.437  0.3508  1.5566  2.7851
12953SOL     OW45719   4.825   5.827   3.095 -0.4228  0.0428 -0.1781
12953SOL    HW145720   4.846   5.850   3.004 -1.5238  1.0144 -0.1979
12953SOL    HW245721   4.904   5.851   3.144 -0.7020  1.7787 -0.5335
12954SOL     OW45722   8.202   9.169   5.462  0.3039 -0.6622  0.0033
12954SOL    HW145723   8.164   9.257   5.472  0.5093 -0.4371 -1.1043
12954SOL    HW245724   8.178   9.124   5.543  0.4326  0.5006  0.7144
12955SOL     OW45725  10.104  10.025   2.069 -0.1230  0.0831 -0.4629
12955SOL    HW145726  10.012  10.049   2.060  0.2231  1.4681 -0.5188
12955SOL    HW245727  10.147  10.106   2.096  1.2885 -0.2197 -1.6821
12956SOL     OW45728   3.068   4.392   7.190  0.0790 -0.3680  0.4675
12956SOL    HW145729   3.156   4.425   7.209 -0.7233  1.9652  0.3367
12956SOL    HW245730   3.046   4.429   7.105 -1.1255 -0.7195  0.6079
12957SOL     OW45731   1.351   4.787   3.333  0.0197 -0.2677 -0.9359
12957SOL    HW145732   1.258   4.771   3.346  0.3384 -1.2628  0.2667
12957SOL    HW245733   1.393   4.757   3.414  1.5071 -1.0765 -1.9367
12958SOL     OW45734  12.196   2.172  10.302 -0.0567 -0.3602 -0.3818
12958SOL    HW145735  12.158   2.133  10.381  0.7765 -1.1591 -0.3508
12958SOL    HW245736  12.125   2.223  10.263 -0.2714  0.6754  1.2748
12959SOL     OW45737  11.710  10.571   6.320  0.0601 -0.4314  0.4937
12959SOL    HW145738  11.753  10.648   6.359  0.0740 -0.5913  0.7959
12959SOL    HW245739  11.640  10.549   6.381 -1.3542  0.6537 -0.6778
12960SOL     OW45740   8.605   2.317   3.057 -0.5133 -0.2425  0.3070
12960SOL    HW145741   8.601   2.239   3.113 -1.4964  0.5365  1.3754
12960SOL    HW245742   8.556   2.384   3.106 -0.4195  0.8017 -0.9798
12961SOL     OW45743   2.499   3.246   8.547  0.8145  0.6222 -0.6062
12961SOL    HW145744   2.529   3.226   8.636 -0.9551 -0.5108 -0.2205
12961SOL    HW245745   2.437   3.318   8.558  0.1946  0.1335 -0.8345
12962SOL     OW45746   5.223  12.400   0.431  0.4900 -0.5880 -0.0154
12962SOL    HW145747   5.228  12.442   0.516  1.6600  0.3662 -0.5359
12962SOL    HW245748   5.143  12.347   0.435  0.5164 -0.5419  1.6473
12963SOL     OW45749   9.881   0.124   0.464  0.0820 -0.2784 -0.1409
12963SOL    HW145750   9.813   0.182   0.430  0.2029 -0.3961 -0.5841
12963SOL    HW245751   9.864   0.120   0.558 -0.6304 -0.4403 -0.2701
12964SOL     OW45752   1.047   3.816   3.334  0.0154  0.7243 -0.3185
12964SOL    HW145753   1.128   3.783   3.373  0.0434  0.7805 -0.3279
12964SOL    HW245754   0.980   3.803   3.401  0.4221  2.5864  0.5279
12965SOL     OW45755   0.109   7.557  10.333 -0.1493  0.0675  0.3126
12965SOL    HW145756   0.154   7.591  10.410 -0.7005  0.7330  0.3506
12965SOL    HW245757   0.159   7.591  10.258 -0.0347  0.0194  0.3681
12966SOL     OW45758  11.709   6.193  10.391  0.3978  0.5473  0.0395
12966SOL    HW145759  11.665   6.109  10.378  2.1054 -0.3934  0.0618
12966SOL    HW245760  11.667   6.230  10.469  0.5309 -0.9179  0.8305
12967SOL     OW45761   0.088   3.037   3.700  0.3950 -0.0896 -0.7503
12967SOL    HW145762   0.178   3.065   3.713  0.4637  1.0832 -3.2013
12967SOL    HW245763   0.096   2.948   3.664  0.6636  0.4320 -2.0254
12968SOL     OW45764   8.978   5.455   3.396 -0.0311  0.3478  0.4053
12968SOL    HW145765   8.946   5.406   3.320 -1.8443 -0.9536  1.9082
12968SOL    HW245766   9.038   5.396   3.440 -0.8454  0.1262  1.2550
12969SOL     OW45767  10.203   7.597   4.855 -0.0284  0.1498  0.1421
12969SOL    HW145768  10.200   7.692   4.839 -2.1694 -0.0025 -0.6823
12969SOL    HW245769  10.181   7.558   4.771  0.4787 -1.0849  0.5671
12970SOL     OW45770  11.516   7.042   9.693 -0.4971 -0.1221 -0.2932
12970SOL    HW145771  11.422   7.043   9.674 -0.2905 -0.7453 -1.4703
12970SOL    HW245772  11.538   7.133   9.712 -1.0814  0.2815 -1.4423
12971SOL     OW45773   0.734   3.940   5.398  0.5405 -0.1119  0.3233
12971SOL    HW145774   0.661   3.890   5.435 -0.0421  0.7388  0.3439
12971SOL    HW245775   0.743   3.906   5.309 -0.4269  0.3273  0.0418
12972SOL     OW45776   8.932   7.660  11.542  0.4904  0.1918  1.0312
12972SOL    HW145777   9.016   7.617  11.554  0.3619 -0.1694  0.6732
12972SOL    HW245778   8.953   7.746  11.505  0.7396  0.3756  1.6012
12973SOL     OW45779   4.738   1.940   2.140  0.6334 -0.1190 -0.8163
12973SOL    HW145780   4.799   1.991   2.086 -1.1074 -0.5018 -3.3140
12973SOL    HW245781   4.719   1.998   2.215  1.5928  1.3143 -1.6256
12974SOL     OW45782   5.660   7.495   7.498 -0.1087 -0.0853 -0.1302
12974SOL    HW145783   5.601   7.461   7.431 -0.2479  1.8341 -1.0522
12974SOL    HW245784   5.745   7.500   7.454  0.0044  0.3131  0.1283
12975SOL     OW45785  11.090   5.539   8.759 -0.0728 -0.1325  0.4133
12975SOL    HW145786  11.178   5.531   8.797  0.8133 -0.2441 -1.5753
12975SOL    HW245787  11.096   5.614   8.700 -1.5797  0.3749  0.8568
12976SOL     OW45788  12.036   1.829  11.723 -0.1323 -0.2395 -0.5335
12976SOL    HW145789  12.110   1.862  11.774 -0.1127  0.5101 -1.0357
12976SOL    HW245790  12.018   1.898  11.659 -2.4219  0.4186  0.7014
12977SOL     OW45791  10.261   9.318   5.408  0.5386  0.9512 -0.5232
12977SOL    HW145792  10.186   9.376   5.417 -0.6462 -0.6688  0.5335
12977SOL    HW245793  10.313   9.334   5.487 -1.3902 -1.5127  1.4102
12978SOL     OW45794   8.661   1.247  10.085 -0.0433 -1.2006  0.4746
12978SOL    HW145795   8.572   1.213  10.078  0.1716 -1.6040 -0.5008
12978SOL    HW245796   8.704   1.218  10.004 -0.3530  2.9585 -1.4220
12979SOL     OW45797  11.489   7.686   2.832 -0.4094 -0.4072 -0.1388
12979SOL    HW145798  11.440   7.763   2.861  1.8015  0.8776  0.4337
12979SOL    HW245799  11.548   7.666   2.905  2.1014  0.0907 -1.8951
12980SOL     OW45800   6.667  11.975  10.676 -0.1057 -0.0354  0.0731
12980SOL    HW145801   6.579  11.953  10.647 -0.1553 -0.2581  0.3861
12980SOL    HW245802   6.683  12.063  10.642  0.1709 -0.6150 -1.3740
12981SOL     OW45803   8.205  11.033   1.748 -0.1900  0.3100  0.0390
12981SOL    HW145804   8.212  11.016   1.654 -1.4121 -1.0810  0.1620
12981SOL    HW245805   8.172  10.951   1.785  0.1549  0.8654  1.6764
12982SOL     OW45806   2.705   6.803   6.116 -0.4506  0.3662 -0.6953
12982SOL    HW145807   2.626   6.851   6.094 -0.0921  0.8742 -0.9005
12982SOL    HW245808   2.697   6.721   6.067 -0.9063  0.3589 -0.6116
12983SOL     OW45809  12.043   9.071   3.128  0.3622 -0.6361  0.2946
12983SOL    HW145810  12.063   9.018   3.205  0.5508 -0.3502  0.4484
12983SOL    HW245811  11.951   9.094   3.137  1.2102  2.7736  2.6220
12984SOL     OW45812   7.670   0.598   7.678 -0.5788  0.5491  0.5485
12984SOL    HW145813   7.665   0.603   7.582 -0.3718 -0.4946  0.4720
12984SOL    HW245814   7.721   0.518   7.695  1.3654  1.8947  1.4851
12985SOL     OW45815  11.724  11.539  11.062  0.0103 -0.1971  0.8773
12985SOL    HW145816  11.788  11.471  11.083 -1.2025 -0.9402  2.3218
12985SOL    HW245817  11.639  11.496  11.067 -0.6515  0.6829 -1.3683
12986SOL     OW45818   0.969   9.919   0.755  0.2410 -0.5198 -0.0197
12986SOL    HW145819   0.938   9.849   0.697  0.5979 -0.6892 -0.0094
12986SOL    HW245820   0.945  10.000   0.710 -1.7214 -0.6078  0.7613
12987SOL     OW45821   4.729   7.236   0.232  0.4585  0.8018  0.0044
12987SOL    HW145822   4.796   7.202   0.292 -0.2092  0.8113  0.7694
12987SOL    HW245823   4.677   7.296   0.286 -0.4280  0.4665 -0.4689
12988SOL     OW45824   0.762  10.335   1.668  0.1031  0.5184  0.3740
12988SOL    HW145825   0.767  10.387   1.588  1.3522 -0.5768 -0.2948
12988SOL    HW245826   0.837  10.364   1.720  0.4407 -0.1453  0.2713
12989SOL     OW45827   2.205   2.370   9.840  0.1346 -0.1325  0.1326
12989SOL    HW145828   2.120   2.346   9.804  0.2573  1.2634 -1.2040
12989SOL    HW245829   2.231   2.295   9.893 -0.6807 -1.7382 -1.6318
12990SOL     OW45830   8.647   0.935   0.317 -0.4302 -0.5045  0.0107
12990SOL    HW145831   8.722   0.884   0.288 -0.1898  0.5556 -1.3299
12990SOL    HW245832   8.683   0.996   0.382 -0.0809  0.1014 -0.7368
12991SOL     OW45833   1.930   2.891   9.370 -0.3064  0.1862  0.0439
12991SOL    HW145834   2.014   2.846   9.377 -1.0638 -1.0379  2.3935
12991SOL    HW245835   1.869   2.825   9.337 -0.9392  0.0937  1.2996
12992SOL     OW45836   2.792  10.037  10.039  0.2608  0.3013 -0.4091
12992SOL    HW145837   2.746   9.985  10.105 -1.4437  2.3926  0.1580
12992SOL    HW245838   2.871  10.069  10.084  0.4451 -0.3674 -0.2413
12993SOL     OW45839   3.724   8.706   5.850  0.0999  0.2775  0.3876
12993SOL    HW145840   3.724   8.611   5.867  1.1698  0.1343 -0.3232
12993SOL    HW245841   3.646   8.721   5.798 -0.2638 -0.1572  0.7960
12994SOL     OW45842  10.570   8.535   4.794  0.0548  0.4943 -0.4100
12994SOL    HW145843  10.548   8.466   4.857  0.2533 -0.7117 -1.6139
12994SOL    HW245844  10.663   8.553   4.811 -0.1058  0.7781  0.1911
12995SOL     OW45845   8.894   4.820  10.275 -0.5272 -0.3998 -0.3868
12995SOL    HW145846   8.929   4.872  10.348 -1.1771 -0.9067  0.2954
12995SOL    HW245847   8.885   4.883  10.203  0.2369  0.0820 -0.0759
12996SOL     OW45848   0.198   8.904   3.323  0.1774 -0.3953 -0.1328
12996SOL    HW145849   0.145   8.983   3.330  0.1862 -0.4440  0.4760
12996SOL    HW245850   0.184   8.858   3.405  2.8268  0.6219  0.9910
12997SOL     OW45851  11.756   5.577   2.115 -0.0669 -0.0412 -0.6774
12997SOL    HW145852  11.730   5.669   2.119 -1.8468 -0.4503 -1.5306
12997SOL    HW245853  11.849   5.577   2.136 -0.2866  1.8035  0.5372
12998SOL     OW45854   2.642   9.301   4.061 -0.2138 -0.0232  0.3694
12998SOL    HW145855   2.584   9.262   3.995 -0.2226 -2.3831  1.6731
12998SOL    HW245856   2.681   9.226   4.106  2.9070  1.4796  0.4240
12999SOL     OW45857   7.009   1.754  11.255  0.3581  0.4649  0.6695
12999SOL    HW145858   6.965   1.836  11.231  1.2249  0.5168 -0.8898
12999SOL    HW245859   7.102   1.774  11.247  0.5825 -0.6493  0.3407
13000SOL     OW45860   3.898  10.799   6.243 -0.1020 -0.5741 -0.6544
13000SOL    HW145861   3.804  10.799   6.222 -0.2936 -0.0148  0.1629
13000SOL    HW245862   3.915  10.710   6.274 -0.8543 -0.1234  1.1879
13001SOL     OW45863   0.273   3.238   6.556  0.2925  0.6245  0.4534
13001SOL    HW145864   0.186   3.201   6.573  1.7639 -2.8067  1.3825
13001SOL    HW245865   0.288   3.297   6.629  0.5994 -2.6695  3.3297
13002SOL     OW45866  10.233   5.942   0.193 -0.0373  0.4166  0.3532
13002SOL    HW145867  10.256   6.031   0.221 -1.3910  1.4103 -1.5290
13002SOL    HW245868  10.277   5.931   0.109 -0.6877 -0.3491  0.1022
13003SOL     OW45869  10.683   9.677   1.993  0.6627  0.3334  0.3103
13003SOL    HW145870  10.627   9.614   2.037  1.6942 -0.5914  0.3526
13003SOL    HW245871  10.772   9.654   2.023  1.1508  1.1417 -0.4827
13004SOL     OW45872   4.546  11.621  12.196 -0.0512  0.1595  0.4900
13004SOL    HW145873   4.608  11.606  12.268 -0.7539 -2.3394  0.6804
13004SOL    HW245874   4.500  11.701  12.221  1.5716  0.8471  1.4436
13005SOL     OW45875   3.271  11.808   7.983  0.1052 -0.2183 -0.0847
13005SOL    HW145876   3.306  11.720   7.971 -0.5653 -0.4246 -0.5432
13005SOL    HW245877   3.240  11.809   8.074 -0.0068 -0.4951 -0.1212
13006SOL     OW45878   6.167   1.196   5.220  0.1797  0.2305 -0.6560
13006SOL    HW145879   6.220   1.198   5.140  0.8530 -1.7612 -0.3252
13006SOL    HW245880   6.118   1.277   5.219  2.3571  1.6274 -1.6090
13007SOL     OW45881   6.073  11.262  10.510  0.3623  0.5051 -0.3833
13007SOL    HW145882   6.140  11.304  10.564 -0.0726  0.9574 -0.1866
13007SOL    HW245883   6.011  11.333  10.489  0.4573  0.3042 -1.3672
13008SOL     OW45884   7.983   4.535   1.991 -0.8281 -0.4507 -0.2902
13008SOL    HW145885   8.078   4.532   2.005 -0.7893 -0.9232 -0.6435
13008SOL    HW245886   7.946   4.513   2.077 -0.6141 -0.9140 -0.3186
13009SOL     OW45887   4.995   4.076  11.727  0.0133  0.3329 -0.4993
13009SOL    HW145888   4.914   4.026  11.731 -1.4743  2.5834 -0.9155
13009SOL    HW245889   4.975   4.158  11.772  2.8467  0.0421  1.6006
13010SOL     OW45890  12.142   0.750   3.198  0.8612  0.2769 -0.2286
13010SOL    HW145891  12.109   0.733   3.286 -0.6268  0.7704 -0.6460
13010SOL    HW245892  12.108   0.837   3.176  1.4743  0.2965 -1.1689
13011SOL     OW45893   7.197   5.146   1.317  0.2088  0.8171 -0.2157
13011SOL    HW145894   7.277   5.107   1.282  0.8139  0.5255  1.4014
13011SOL    HW245895   7.163   5.080   1.377 -2.3745  0.0850 -2.2920
13012SOL     OW45896   1.040   4.648   6.043 -0.1126  0.4070 -0.5583
13012SOL    HW145897   1.038   4.736   6.079 -2.2952  0.1936 -0.0335
13012SOL    HW245898   0.989   4.654   5.962 -1.5952 -0.6491  0.2565
13013SOL     OW45899   1.449   9.260   5.921  0.3032  0.1052  0.0058
13013SOL    HW145900   1.476   9.242   6.011  0.0987 -0.1004  0.0279
13013SOL    HW245901   1.428   9.174   5.885  2.6147 -0.1114 -0.9825
13014SOL     OW45902  11.504   5.175   8.327 -0.1921 -0.5708  0.4291
13014SOL    HW145903  11.496   5.080   8.339  0.6927 -0.8245 -0.8095
13014SOL    HW245904  11.418   5.203   8.295  0.6896 -1.7164 -3.4789
13015SOL     OW45905   1.572   2.528   1.692 -0.1792  0.2787 -0.3026
13015SOL    HW145906   1.499   2.586   1.712 -0.6086 -0.4488  0.2904
13015SOL    HW245907   1.552   2.493   1.606 -0.0375  0.8205 -0.5599
13016SOL     OW45908   5.155   3.314   1.440  0.0232  0.3427  0.4844
13016SOL    HW145909   5.131   3.405   1.426  1.4066  0.8304  1.0949
13016SOL    HW245910   5.214   3.316   1.516  0.0418 -1.0617  0.5356
13017SOL     OW45911  10.868  10.458   8.694  0.3945  0.1395  0.0474
13017SOL    HW145912  10.927  10.473   8.620  0.6817 -0.9691  0.0380
13017SOL    HW245913  10.855  10.363   8.696 -0.3538  0.2414  0.8548
13018SOL     OW45914   3.750  11.219   3.167  0.1565 -0.1470 -0.6717
13018SOL    HW145915   3.838  11.204   3.132  0.2688 -0.3500 -0.3041
13018SOL    HW245916   3.761  11.214   3.262 -0.3999 -1.0467 -0.6424
13019SOL     OW45917  10.494   7.920   9.645 -0.2195 -0.2578  0.0424
13019SOL    HW145918  10.558   7.984   9.673 -1.3553  0.1812  1.7936
13019SOL    HW245919  10.454   7.958   9.566 -0.6501  1.0589  0.8717
13020SOL     OW45920   2.049  10.904   6.893 -0.5898  0.1343 -0.3408
13020SOL    HW145921   2.119  10.907   6.958  0.0997  0.2998 -1.0632
13020SOL    HW245922   1.984  10.968   6.922  0.0248  0.6836 -0.1625
13021SOL     OW45923   9.778   2.354   5.512  0.1615  0.3037  0.3726
13021SOL    HW145924   9.850   2.390   5.460 -0.4057 -0.0843 -0.7000
13021SOL    HW245925   9.701   2.360   5.455 -0.6219  0.5003  1.4177
13022SOL     OW45926  10.543   8.344   2.583  0.3512 -0.5798  0.4174
13022SOL    HW145927  10.589   8.423   2.557 -0.1771 -0.7933 -1.2879
13022SOL    HW245928  10.598   8.272   2.550 -1.1787 -0.8381 -1.8177
13023SOL     OW45929   6.708   8.104  11.906 -0.1970 -0.0191 -0.5248
13023SOL    HW145930   6.663   8.028  11.869 -3.3172 -0.1223  2.9043
13023SOL    HW245931   6.653   8.179  11.882  0.7165  0.6197 -0.6562
13024SOL     OW45932   0.408   6.645   2.324  0.3108  0.2132 -0.2670
13024SOL    HW145933   0.343   6.692   2.378  0.7161  0.5863 -0.0952
13024SOL    HW245934   0.401   6.686   2.238  0.0644  0.0059 -0.3464
13025SOL     OW45935   3.006   4.919  11.543  0.4173  0.1878  0.1322
13025SOL    HW145936   2.994   4.999  11.594 -0.2737 -0.7771  1.5281
13025SOL    HW245937   2.947   4.929  11.468 -0.2471  0.6624  0.7085
13026SOL     OW45938   6.300   4.289   1.699 -0.0920  0.4109 -0.1745
13026SOL    HW145939   6.279   4.251   1.785  1.9562 -1.1953 -0.3102
13026SOL    HW245940   6.229   4.351   1.682  0.2641  2.0791  3.4549
13027SOL     OW45941   4.407   5.630   1.977  0.2439  0.3066 -0.3274
13027SOL    HW145942   4.370   5.542   1.974 -0.2093  0.4754  0.1619
13027SOL    HW245943   4.498   5.617   2.002 -0.4418  0.1194  2.3302
13028SOL     OW45944  11.928   1.229   2.773  0.5072  0.2807 -0.1661
13028SOL    HW145945  11.851   1.286   2.782 -0.0302 -0.3108 -0.9129
13028SOL    HW245946  11.916   1.162   2.840 -0.1250 -0.3492 -0.8899
13029SOL     OW45947   5.401   2.803   9.780  0.3037  0.0636 -0.1299
13029SOL    HW145948   5.436   2.874   9.834  2.5285 -0.7261 -0.4101
13029SOL    HW245949   5.447   2.724   9.811 -2.2017 -1.3480  0.2894
13030SOL     OW45950  10.983   3.115   5.242  0.2966 -0.1635  0.7525
13030SOL    HW145951  10.998   3.187   5.303 -2.3700  2.0553 -0.9504
13030SOL    HW245952  10.914   3.062   5.282 -0.1072  0.1900  0.5320
13031SOL     OW45953   7.430  10.415   0.266  0.3032  0.2144 -0.0033
13031SOL    HW145954   7.375  10.364   0.325  0.1923  0.2958 -0.0352
13031SOL    HW245955   7.475  10.478   0.323  0.1451  0.3371 -0.0125
13032SOL     OW45956  10.428   2.045   8.596  0.6335  0.5024  0.5253
13032SOL    HW145957  10.498   2.071   8.537 -0.8981  1.0829 -1.1108
13032SOL    HW245958  10.381   1.976   8.549 -0.0056  0.2536  1.5027
13033SOL     OW45959   6.186   0.004  10.918 -0.0502 -0.0359 -0.1955
13033SOL    HW145960   6.259  -0.046  10.955 -0.2849 -0.7064 -0.6146
13033SOL    HW245961   6.176   0.079  10.976 -0.1088 -0.8167  0.8193
13034SOL     OW45962   5.942   9.725   5.518  0.0739 -0.5735  0.2332
13034SOL    HW145963   6.002   9.780   5.468 -0.0441 -0.0746  0.6366
13034SOL    HW245964   5.931   9.647   5.464  0.7452 -0.4823 -0.0443
13035SOL     OW45965   5.726   1.533   7.399  0.0549  0.6066 -0.0656
13035SOL    HW145966   5.681   1.573   7.474 -0.9522  1.2315 -0.9535
13035SOL    HW245967   5.812   1.509   7.431 -0.0803  1.5923  1.0794
13036SOL     OW45968   5.744   0.594   7.366  0.2233  0.4262 -0.3567
13036SOL    HW145969   5.763   0.539   7.290 -0.2180  0.3084 -0.3837
13036SOL    HW245970   5.763   0.683   7.336  0.5075  0.3352 -0.4542
13037SOL     OW45971   3.684   0.962   0.572  0.5427  0.1047  0.2813
13037SOL    HW145972   3.737   1.038   0.597  0.7831  0.4687 -1.2251
13037SOL    HW245973   3.745   0.888   0.575  0.2737 -0.1026  1.8998
13038SOL     OW45974   8.565   6.755  11.368 -0.0658  0.0495 -0.1210
13038SOL    HW145975   8.488   6.795  11.329 -0.5205 -1.0634 -0.4166
13038SOL    HW245976   8.540   6.663  11.381  1.1076 -0.2612  0.0509
13039SOL     OW45977   9.590   0.851   7.080  0.5556  0.1333  0.1318
13039SOL    HW145978   9.564   0.866   7.170  1.0976  0.4508  0.2406
13039SOL    HW245979   9.597   0.938   7.041 -0.8754 -0.0432 -0.5744
13040SOL     OW45980   6.086   7.766   3.648 -0.2985  0.6806  0.2005
13040SOL    HW145981   6.099   7.708   3.723  0.2357  0.7782  0.1901
13040SOL    HW245982   6.174   7.781   3.614  0.1998  4.5632  2.5079
13041SOL     OW45983   3.615   1.125  10.190  0.0185  0.3432  0.0460
13041SOL    HW145984   3.637   1.117  10.282  0.4230 -0.8566 -0.1350
13041SOL    HW245985   3.646   1.212  10.165  1.0131  0.2073  0.7538
13042SOL     OW45986   2.817   1.160   1.868 -0.4685 -0.1416  0.0613
13042SOL    HW145987   2.848   1.208   1.792 -0.5904 -0.2348 -0.0478
13042SOL    HW245988   2.787   1.075   1.834  0.3523 -0.5538  0.3435
13043SOL     OW45989   9.812   5.017   9.194 -0.7352 -0.0178  0.7026
13043SOL    HW145990   9.896   5.026   9.151 -1.8648  1.8150 -1.2923
13043SOL    HW245991   9.785   4.927   9.174  0.7248 -0.6586  1.4470
13044SOL     OW45992   4.921   7.309  12.146  0.6184  0.4348  0.0881
13044SOL    HW145993   4.996   7.344  12.195  2.4474  0.0127 -2.2663
13044SOL    HW245994   4.917   7.364  12.068 -0.8050 -0.3317 -0.3959
13045SOL     OW45995   6.461   6.714   2.862  0.1114  0.5077 -0.2159
13045SOL    HW145996   6.549   6.686   2.840 -0.2479 -0.8592 -0.0440
13045SOL    HW245997   6.461   6.720   2.958 -0.6341 -2.0875  0.0341
13046SOL     OW45998  11.938  11.562  11.762 -0.9884  0.3601 -0.2730
13046SOL    HW145999  11.965  11.480  11.804 -0.0730  1.7793  2.0916
13046SOL    HW246000  11.971  11.554  11.672 -1.0959 -1.9107 -0.1761
13047SOL     OW46001   8.380   4.379   7.984 -0.1225 -0.1483  0.3495
13047SOL    HW146002   8.297   4.424   7.976 -0.0522 -0.1467 -0.3771
13047SOL    HW246003   8.356   4.287   8.001 -0.2617  0.0551  1.3038
13048SOL     OW46004   5.228  10.301   3.036  0.0335 -0.2663  0.3042
13048SOL    HW146005   5.235  10.240   3.110 -1.9189 -0.1309  0.6449
13048SOL    HW246006   5.182  10.252   2.969 -1.0612  0.6309  0.3788
13049SOL     OW46007   6.741   2.011   5.210 -0.0286 -0.0582 -0.0503
13049SOL    HW146008   6.786   1.953   5.148  0.8746  0.9372 -0.3475
13049SOL    HW246009   6.704   1.951   5.275 -1.5647 -1.1801 -1.8720
13050SOL     OW46010   7.798   2.235   6.554 -0.1506 -0.0495  1.1219
13050SOL    HW146011   7.891   2.232   6.530 -0.8779 -0.7644 -2.0497
13050SOL    HW246012   7.787   2.320   6.596  1.5579  1.0159 -0.4108
13051SOL     OW46013   3.301  12.341   9.299  0.4857  0.7875  0.4717
13051SOL    HW146014   3.222  12.374   9.257  1.1007  0.1928 -1.2516
13051SOL    HW246015   3.281  12.250   9.320  1.0867  0.2453 -1.1357
13052SOL     OW46016  11.827   8.296   9.448  0.0525  0.3877  0.1681
13052SOL    HW146017  11.846   8.251   9.365  0.1329 -0.3568  0.5867
13052SOL    HW246018  11.889   8.369   9.450  0.8785 -0.3033  0.1377
13053SOL     OW46019  10.876   8.713   0.257 -0.4829 -0.1348 -0.1913
13053SOL    HW146020  10.845   8.778   0.320 -0.1706 -1.0081  0.8962
13053SOL    HW246021  10.883   8.632   0.307  2.8387 -0.2021 -0.5029
13054SOL     OW46022   3.903   0.646   8.315 -0.5299 -0.0633 -0.0169
13054SOL    HW146023   3.814   0.612   8.315 -0.6143  0.1584  0.4491
13054SOL    HW246024   3.925   0.658   8.407 -0.9579  2.3439 -0.1703
13055SOL     OW46025   5.906   3.751   6.573 -0.4041  0.0537  0.3721
13055SOL    HW146026   5.989   3.785   6.539 -0.5806 -0.1565 -0.2832
13055SOL    HW246027   5.904   3.779   6.665  0.0893  0.6205  0.2126
13056SOL     OW46028  12.097   3.698   7.168 -0.0408 -0.0813  0.0579
13056SOL    HW146029  12.159   3.697   7.094 -0.3601 -0.3216 -0.2048
13056SOL    HW246030  12.077   3.791   7.180 -0.3876 -0.0799 -0.4945
13057SOL     OW46031   7.197   4.873  11.416 -0.2071 -0.0892  0.6201
13057SOL    HW146032   7.107   4.901  11.396 -0.1426 -0.8352 -0.8213
13057SOL    HW246033   7.241   4.953  11.445 -1.4964  0.1650  2.0648
13058SOL     OW46034  11.707   4.675   9.430  0.1813  0.3147  0.0557
13058SOL    HW146035  11.628   4.700   9.478  1.7783  0.9437  2.5795
13058SOL    HW246036  11.675   4.627   9.354 -2.6179  0.7153  0.8692
13059SOL     OW46037  10.184   2.239   9.761  0.2422 -0.3114  0.1000
13059SOL    HW146038  10.145   2.262   9.845 -0.6026 -0.5738 -0.2071
13059SOL    HW246039  10.176   2.320   9.709  0.1055 -0.3652  0.0371
13060SOL     OW46040   1.234   9.250   0.866  0.1231  0.4313 -0.3974
13060SOL    HW146041   1.245   9.160   0.834  0.0921  0.7981 -1.4372
13060SOL    HW246042   1.323   9.280   0.882  0.1766  0.5115 -0.8543
13061SOL     OW46043  12.010   1.282   4.124 -0.4652 -0.0395  0.4413
13061SOL    HW146044  12.015   1.370   4.087  0.2428  0.8787  2.5260
13061SOL    HW246045  11.957   1.292   4.203 -0.7438 -1.5951  0.4864
13062SOL     OW46046  12.013   6.961   5.453 -0.7691 -0.2435  0.3246
13062SOL    HW146047  11.955   6.887   5.436  0.3856 -0.9809 -0.5697
13062SOL    HW246048  11.972   7.035   5.409 -0.1914 -1.1302 -1.8133
13063SOL     OW46049   1.561   6.593  11.797 -0.3462 -0.0707 -0.1926
13063SOL    HW146050   1.550   6.656  11.726 -1.0316  0.0026 -0.0332
13063SOL    HW246051   1.601   6.517  11.756  0.7179  0.5555 -0.3370
13064SOL     OW46052   7.070   0.626   3.560  0.0481  0.1616  0.4748
13064SOL    HW146053   7.142   0.686   3.542  1.5465 -1.8399 -0.7415
13064SOL    HW246054   6.994   0.666   3.518  0.1530  2.7322  2.4961
13065SOL     OW46055   8.845   0.928  10.187 -0.1590 -0.0005 -0.2651
13065SOL    HW146056   8.823   1.005  10.240  0.9304 -1.4046  2.4236
13065SOL    HW246057   8.938   0.936  10.171  0.5452 -1.8336  2.2004
13066SOL     OW46058   0.549   0.288   0.961  0.6209 -0.1426  0.1697
13066SOL    HW146059   0.614   0.220   0.946 -0.0700 -0.7025 -0.3281
13066SOL    HW246060   0.567   0.354   0.894  0.6175 -0.3441 -0.0308
13067SOL     OW46061   3.744  11.826   8.665  0.8354 -0.3538 -0.1672
13067SOL    HW146062   3.745  11.855   8.574  0.0393 -1.4375 -0.5455
13067SOL    HW246063   3.746  11.730   8.659 -1.6511 -0.5352  0.8452
13068SOL     OW46064   2.281   6.894   4.353  0.0133  0.1360 -0.1541
13068SOL    HW146065   2.227   6.899   4.432 -0.8423 -0.9505 -0.6494
13068SOL    HW246066   2.370   6.909   4.385 -0.5853  2.6158  0.5879
13069SOL     OW46067   0.825  10.376  10.459 -0.2082 -0.1558 -0.2239
13069SOL    HW146068   0.901  10.358  10.514 -1.6076 -2.6980  1.1011
13069SOL    HW246069   0.849  10.341  10.373 -0.2095 -1.9957  0.4716
13070SOL     OW46070   1.085   0.765   2.586 -0.3194  0.2262 -0.2535
13070SOL    HW146071   1.137   0.716   2.650 -0.3634 -1.5714 -1.5132
13070SOL    HW246072   1.094   0.856   2.613  2.5364 -0.1134  0.2571
13071SOL     OW46073   9.318   0.298   6.562  0.1952 -0.6914 -0.4356
13071SOL    HW146074   9.231   0.319   6.529 -0.5142 -2.1064  0.4206
13071SOL    HW246075   9.376   0.359   6.518 -1.3577  1.0257 -0.2118
13072SOL     OW46076  10.158   6.826   7.662  0.0770 -0.6095  0.4302
13072SOL    HW146077  10.237   6.834   7.608  0.2138 -1.4230  0.5016
13072SOL    HW246078  10.115   6.747   7.631 -0.5057 -0.3954  0.6677
13073SOL     OW46079   3.393  11.849   9.480 -0.1184 -0.2080 -0.0185
13073SOL    HW146080   3.437  11.873   9.398  2.7482  1.0350  1.7440
13073SOL    HW246081   3.329  11.919   9.495  0.8489  0.7269 -0.1604
13074SOL     OW46082   6.107   2.123   4.212 -0.7176  0.0046  0.1851
13074SOL    HW146083   6.056   2.132   4.132 -0.4998  0.1336  0.0587
13074SOL    HW246084   6.198   2.132   4.183 -0.5391 -1.5026  0.1965
13075SOL     OW46085  11.754   0.273   7.550 -0.4223 -0.3379 -0.2424
13075SOL    HW146086  11.759   0.197   7.608  1.0075 -0.7530 -0.8473
13075SOL    HW246087  11.823   0.331   7.582 -0.5386  0.0396 -0.6724
13076SOL     OW46088   0.818   2.345   0.196  0.6264  0.1114 -0.3389
13076SOL    HW146089   0.732   2.352   0.155  1.0691  1.0767 -1.1485
13076SOL    HW246090   0.874   2.307   0.128  0.6685 -1.3947  0.4825
13077SOL     OW46091   8.941  10.943   0.241 -0.1498 -0.2768 -0.4852
13077SOL    HW146092   8.901  10.981   0.319 -0.3990  1.7988 -1.5530
13077SOL    HW246093   9.035  10.942   0.261 -0.2436 -0.1058 -0.0196
13078SOL     OW46094   7.126   6.540   8.477 -0.3097 -0.0790  0.4957
13078SOL    HW146095   7.090   6.454   8.452 -1.8358  0.5608  0.3677
13078SOL    HW246096   7.049   6.596   8.485  0.6598  1.2544  0.7131
13079SOL     OW46097   0.566   6.484   1.231 -0.3259 -0.1317  0.1117
13079SOL    HW146098   0.576   6.577   1.248 -1.2250  0.4336 -2.1108
13079SOL    HW246099   0.474   6.465   1.250 -0.5543 -0.1693 -0.9373
13080SOL     OW46100   2.312   5.767  11.921  0.4133 -0.4377 -0.6365
13080SOL    HW146101   2.388   5.779  11.977 -0.3625 -0.1271  0.3981
13080SOL    HW246102   2.272   5.686  11.952 -0.2371 -0.0611 -0.4653
13081SOL     OW46103   6.082   9.132  11.781 -0.3998  0.3056  0.3893
13081SOL    HW146104   6.094   9.039  11.760  1.0095  0.4181  0.6096
13081SOL    HW246105   6.170   9.163  11.805 -0.5694  2.0332 -1.0097
13082SOL     OW46106  10.519   9.922  10.158 -0.0141  0.2165 -0.0744
13082SOL    HW146107  10.599   9.874  10.137 -0.8708 -0.1996 -2.7919
13082SOL    HW246108  10.473   9.867  10.222  0.3605 -1.1905 -0.9871
13083SOL     OW46109   6.132   4.011   4.160  0.6991 -0.2303  0.1282
13083SOL    HW146110   6.222   4.028   4.188  0.3594  1.0728  0.4644
13083SOL    HW246111   6.084   4.090   4.184 -0.6608 -1.1287  0.4458
13084SOL     OW46112   1.095   7.688   5.523  0.0369 -0.4111 -0.4385
13084SOL    HW146113   1.109   7.650   5.610  1.8270 -0.7807 -0.8556
13084SOL    HW246114   1.168   7.749   5.512 -0.7924  0.4545 -1.2488
13085SOL     OW46115  11.213   7.037  12.440 -0.4151  0.1491  0.3541
13085SOL    HW146116  11.154   6.962  12.435 -0.5947  0.3641 -1.1792
13085SOL    HW246117  11.221   7.068  12.350  0.8788  1.0358  0.7407
13086SOL     OW46118   4.549   3.080   1.513  0.2699 -0.5010 -0.3848
13086SOL    HW146119   4.511   3.004   1.468  2.7115 -1.2004 -1.4156
13086SOL    HW246120   4.508   3.156   1.471  1.7152 -1.1683 -3.1845
13087SOL     OW46121   3.876   3.885   8.301  0.1723  0.0722 -0.4590
13087SOL    HW146122   3.947   3.896   8.237  0.4340 -1.7636 -0.5445
13087SOL    HW246123   3.911   3.921   8.382  1.4622 -1.2896 -0.3569
13088SOL     OW46124  11.395   7.903   0.768 -0.0704  0.2767  0.0636
13088SOL    HW146125  11.415   7.963   0.840  0.1711  0.7062 -0.3562
13088SOL    HW246126  11.466   7.916   0.705 -0.1147 -0.3172 -0.1166
13089SOL     OW46127  10.087   7.938   9.378  0.4172 -0.6059  0.6943
13089SOL    HW146128  10.141   7.910   9.304  2.2875 -1.8503  2.4137
13089SOL    HW246129  10.087   8.033   9.373  0.2749 -0.6704 -1.0340
13090SOL     OW46130   1.230   7.776  11.437  0.1219  0.2424 -0.0716
13090SOL    HW146131   1.141   7.741  11.423  0.3771 -0.9793  1.1080
13090SOL    HW246132   1.216   7.857  11.487 -0.3012 -1.0052  1.9642
13091SOL     OW46133  10.029   1.708   4.142 -0.3962  0.0934 -0.0350
13091SOL    HW146134  10.116   1.720   4.104 -0.8947  1.2538 -0.8496
13091SOL    HW246135  10.043   1.714   4.236  0.1894  1.9554 -0.2005
13092SOL     OW46136   5.217   7.744   7.993  0.3639  0.4800 -0.0107
13092SOL    HW146137   5.135   7.704   7.966 -0.7724  1.0884  2.3388
13092SOL    HW246138   5.272   7.741   7.914 -1.1729 -1.7278 -1.0895
13093SOL     OW46139   9.063   4.133  11.706 -0.8974 -0.2069 -0.3484
13093SOL    HW146140   9.030   4.158  11.793  0.4871  1.8036 -0.3248
13093SOL    HW246141   9.135   4.073  11.724 -1.1961 -0.5146 -0.1615
13094SOL     OW46142   9.205  11.193  10.538  0.4620 -0.3565 -0.3017
13094SOL    HW146143   9.120  11.187  10.495 -0.3363 -0.2284  1.2065
13094SOL    HW246144   9.268  11.187  10.467 -0.8100  1.8145 -1.7042
13095SOL     OW46145  11.828   8.090   1.434 -1.0143  0.1750  0.8261
13095SOL    HW146146  11.896   8.022   1.432  0.8774  1.9047  2.2112
13095SOL    HW246147  11.755   8.049   1.479  0.5151 -0.6283  2.7235
13096SOL     OW46148   9.325   2.479   8.709  0.2736 -0.1418  0.5945
13096SOL    HW146149   9.240   2.524   8.710  0.9650  1.4628 -2.2325
13096SOL    HW246150   9.313   2.405   8.651  0.7743  0.0857  0.1889
13097SOL     OW46151   5.791  10.348   0.906 -0.0492  0.0927 -0.4969
13097SOL    HW146152   5.766  10.260   0.934  0.0874  0.1898 -0.0612
13097SOL    HW246153   5.805  10.340   0.812  5.1491 -1.6797  0.1219
13098SOL     OW46154   3.995   0.915   6.533 -0.9607 -0.2506 -0.5620
13098SOL    HW146155   3.962   0.982   6.593 -0.7399 -0.2740 -0.4140
13098SOL    HW246156   4.068   0.876   6.580 -1.4536 -1.0010 -0.4002
13099SOL     OW46157   0.017   3.558   5.127 -0.3093 -0.7457  0.4925
13099SOL    HW146158  -0.016   3.589   5.212 -1.4188  0.2967 -0.2907
13099SOL    HW246159  -0.036   3.480   5.108  1.3149 -2.2227  1.6537
13100SOL     OW46160   4.244  10.171   7.565  0.7787 -0.2134  0.4943
13100SOL    HW146161   4.165  10.129   7.533  0.4994  0.2475  0.5713
13100SOL    HW246162   4.313  10.143   7.504  0.1755  1.0147 -0.8144
13101SOL     OW46163   7.125   5.983  11.075 -0.5216  0.2404  0.1954
13101SOL    HW146164   7.097   5.989  11.167  0.6620  1.2352  0.5105
13101SOL    HW246165   7.189   5.912  11.075  0.1819  0.8626  0.3396
13102SOL     OW46166   6.602   3.366   0.706  0.2439  0.1611 -0.2913
13102SOL    HW146167   6.683   3.399   0.746  0.5981  0.1068 -0.9443
13102SOL    HW246168   6.532   3.401   0.762  0.6716  1.0063 -0.2568
13103SOL     OW46169   1.035   5.799   2.078  0.4545 -0.0855  0.3792
13103SOL    HW146170   1.008   5.750   2.155 -0.0793  0.5093  0.5778
13103SOL    HW246171   1.075   5.733   2.021 -0.9321 -0.9069  0.3055
13104SOL     OW46172   0.163   2.305   0.214 -0.2021 -0.5485 -0.2651
13104SOL    HW146173   0.214   2.225   0.204 -0.4449 -1.1675  2.5165
13104SOL    HW246174   0.162   2.345   0.127  2.4278 -2.0374 -1.0666
13105SOL     OW46175  12.256  11.458   8.191 -0.2931  0.4291  0.2219
13105SOL    HW146176  12.293  11.516   8.257 -0.9901  1.1387  0.0028
13105SOL    HW246177  12.282  11.370   8.219  0.4695  0.8145  0.7508
13106SOL     OW46178   9.382  10.697   4.214  0.2173 -0.2155  0.1226
13106SOL    HW146179   9.303  10.723   4.259 -0.4347  1.0525 -1.6480
13106SOL    HW246180   9.379  10.601   4.212 -2.1390 -0.1799 -1.3007
13107SOL     OW46181   8.313   8.229  12.144 -0.3516 -0.4951  0.1023
13107SOL    HW146182   8.345   8.250  12.057 -1.2410 -0.2998 -0.1939
13107SOL    HW246183   8.221   8.205  12.131 -0.4444 -0.6697  0.9587
13108SOL     OW46184  11.305   6.348   6.884  0.2762  0.0448  0.4077
13108SOL    HW146185  11.319   6.426   6.830 -1.9691  0.5430  0.4447
13108SOL    HW246186  11.354   6.366   6.964  1.1144  0.6919 -0.2329
13109SOL     OW46187   9.684  10.479   1.359 -0.1998  0.2312  0.4579
13109SOL    HW146188   9.703  10.452   1.269 -1.8854  0.1368  0.1080
13109SOL    HW246189   9.651  10.400   1.401 -2.7250  1.0404  0.1466
13110SOL     OW46190  10.421   0.388   1.084 -0.9945 -0.1749  0.2851
13110SOL    HW146191  10.508   0.364   1.117 -0.8323 -0.4405 -0.3265
13110SOL    HW246192  10.436   0.468   1.033 -0.8637 -0.9821 -0.9813
13111SOL     OW46193   4.955  11.338  10.270  0.1064 -0.3637  0.4162
13111SOL    HW146194   4.950  11.324  10.364  2.0386 -0.8335  0.4886
13111SOL    HW246195   5.014  11.414  10.260 -0.2767 -0.1558 -0.4114
13112SOL     OW46196   1.389   6.291   1.600 -0.3530 -0.2015 -0.2130
13112SOL    HW146197   1.465   6.269   1.655 -0.2651  0.5474 -0.0239
13112SOL    HW246198   1.316   6.297   1.662 -0.0039  2.0032  0.0769
13113SOL     OW46199   9.971   3.319  11.320 -0.0804 -0.3492 -0.1697
13113SOL    HW146200  10.055   3.282  11.347  1.3964  3.0286  0.4466
13113SOL    HW246201   9.913   3.300  11.394  1.2041  0.3511  1.0859
13114SOL     OW46202   3.939   8.932   4.860 -0.5581 -0.1852 -0.4662
13114SOL    HW146203   3.911   8.842   4.875 -0.5522 -0.3760 -1.4779
13114SOL    HW246204   3.927   8.976   4.944  0.9187 -1.4939  0.4798
13115SOL     OW46205  10.698   9.376  11.760 -0.4279 -0.3936 -0.2359
13115SOL    HW146206  10.678   9.385  11.853  1.0975 -0.9420  0.1918
13115SOL    HW246207  10.662   9.291  11.735 -2.4349  0.5314 -0.6453
13116SOL     OW46208  12.376   8.101   5.552  0.0726  0.0671  0.3175
13116SOL    HW146209  12.381   8.136   5.641 -1.5428  0.4394  0.3000
13116SOL    HW246210  12.463   8.065   5.535  0.5316  0.3569  1.8889
13117SOL     OW46211   0.568  11.072   5.206  0.2489 -0.2635  0.6809
13117SOL    HW146212   0.581  11.064   5.112 -2.2170  0.0434  0.2431
13117SOL    HW246213   0.497  11.010   5.226 -0.9211  1.3597  1.8724
13118SOL     OW46214   0.457   2.291   0.709 -0.6006  0.0706  0.4706
13118SOL    HW146215   0.415   2.367   0.669 -0.1066  1.1180  1.8448
13118SOL    HW246216   0.444   2.303   0.803 -0.9247 -1.8143  0.7025
13119SOL     OW46217  10.092  11.796   9.699  0.3843 -0.2560 -0.5506
13119SOL    HW146218  10.180  11.830   9.682  0.7476 -0.9956 -0.1553
13119SOL    HW246219  10.086  11.794   9.795  0.4929 -1.6073 -0.5571
13120SOL     OW46220   5.280   4.091   1.119  0.4638  0.0429 -0.0267
13120SOL    HW146221   5.186   4.110   1.113  0.8524  2.2232 -0.1616
13120SOL    HW246222   5.292   4.011   1.068 -0.8236  1.6097 -3.0344
13121SOL     OW46223   1.033   6.982   6.399  0.6614 -0.0115 -0.4126
13121SOL    HW146224   1.098   6.912   6.406 -0.0927 -0.6628  0.3215
13121SOL    HW246225   1.066   7.039   6.330  0.7007 -1.7527 -1.9005
13122SOL     OW46226   3.388   7.347   5.867 -0.2128 -0.3910  0.0077
13122SOL    HW146227   3.378   7.406   5.942 -0.4347  0.9073 -1.0045
13122SOL    HW246228   3.299   7.316   5.850 -0.6253  1.3055 -1.2342
13123SOL     OW46229   6.780   2.488   7.487  0.5082 -0.0214  0.7923
13123SOL    HW146230   6.750   2.503   7.577  0.8611  0.3450  0.8498
13123SOL    HW246231   6.835   2.563   7.467  0.8647 -0.3652  0.4594
13124SOL     OW46232   5.044  11.263  11.922 -0.6207  0.9604 -0.1379
13124SOL    HW146233   5.056  11.223  11.836 -0.2858  0.5024  0.1133
13124SOL    HW246234   4.957  11.236  11.950  0.1738 -1.0020  0.7187
13125SOL     OW46235   9.325   7.673   9.969 -0.8118  0.5057  0.0875
13125SOL    HW146236   9.268   7.597   9.967 -2.0984  1.3806  1.6761
13125SOL    HW246237   9.361   7.678   9.880 -0.3827 -2.1222  0.0354
13126SOL     OW46238  10.881   0.234   0.668  0.3965 -0.3424 -0.1048
13126SOL    HW146239  10.905   0.179   0.742 -0.3700 -0.5513 -0.0053
13126SOL    HW246240  10.922   0.192   0.592 -0.4974 -1.2777 -0.0873
13127SOL     OW46241   7.061   2.437   6.533 -0.3187  0.0184  0.5434
13127SOL    HW146242   7.060   2.352   6.488 -0.3301  0.4678 -0.3143
13127SOL    HW246243   6.971   2.450   6.561 -0.1253 -0.7121  1.5815
13128SOL     OW46244   1.099   0.452   6.271 -0.2424 -0.8576 -0.4960
13128SOL    HW146245   1.131   0.407   6.192 -0.9985 -0.9588 -0.7528
13128SOL    HW246246   1.174   0.453   6.329 -0.2945 -2.8768 -0.2985
13129SOL     OW46247   0.197   7.720  10.523 -0.0685  0.1596  0.0340
13129SOL    HW146248   0.158   7.804  10.499 -0.2768  0.1635  0.3857
13129SOL    HW246249   0.291   7.733  10.513 -0.1758 -0.1974 -1.9953
13130SOL     OW46250  11.435  12.368   9.595  0.3452 -0.3778  0.2784
13130SOL    HW146251  11.497  12.435   9.569 -0.4126 -0.0899 -0.8814
13130SOL    HW246252  11.354  12.415   9.613 -0.0193 -0.9181  0.0875
13131SOL     OW46253   8.358  11.041   0.522 -0.5162  0.0935 -0.4913
13131SOL    HW146254   8.343  10.958   0.477 -3.7641  0.7091 -0.7399
13131SOL    HW246255   8.298  11.039   0.597  0.9284  1.3508  0.7775
13132SOL     OW46256  11.327   6.452  10.505  0.6022 -0.1424 -0.1215
13132SOL    HW146257  11.401   6.478  10.450  0.4417  0.7653  0.0707
13132SOL    HW246258  11.310   6.361  10.481  1.0711 -0.0202 -0.9643
13133SOL     OW46259   0.340   6.368   1.421 -0.2331  0.3139 -0.2961
13133SOL    HW146260   0.312   6.446   1.373 -1.7818 -0.3528 -0.5458
13133SOL    HW246261   0.355   6.302   1.354 -0.2077  0.0247 -0.0078
13134SOL     OW46262  11.424   2.376  10.314  0.2226  0.0145  0.1122
13134SOL    HW146263  11.343   2.427  10.321  0.6088  0.5138  1.2332
13134SOL    HW246264  11.452   2.388  10.224 -1.0018 -0.2467 -0.3267
13135SOL     OW46265   7.617  11.043  11.928  0.4930  0.0253  0.1474
13135SOL    HW146266   7.601  11.044  12.022 -0.5302  1.1452 -0.0139
13135SOL    HW246267   7.652  10.956  11.910 -0.0603 -0.4804  1.4360
13136SOL     OW46268   2.273   6.230   5.286 -0.1144  0.1623 -0.0266
13136SOL    HW146269   2.328   6.297   5.327 -0.0119  0.8092 -1.1706
13136SOL    HW246270   2.322   6.204   5.208 -0.3602 -0.9491  0.1741
13137SOL     OW46271   9.156  12.320   7.236  0.3010 -0.2902 -0.4640
13137SOL    HW146272   9.137  12.268   7.158  1.1217 -1.9085  0.3663
13137SOL    HW246273   9.148  12.411   7.207 -0.1563 -0.8519 -2.2246
13138SOL     OW46274   8.591  12.185   9.199  0.4943  0.3580 -0.2057
13138SOL    HW146275   8.533  12.165   9.126 -0.6242  2.4775  0.0170
13138SOL    HW246276   8.629  12.270   9.177  1.0193  0.4971  1.1344
13139SOL     OW46277   6.859  11.395   8.401  0.0677  0.7586 -0.0661
13139SOL    HW146278   6.770  11.395   8.437  0.0817  2.6305  0.0982
13139SOL    HW246279   6.914  11.359   8.472 -0.5229 -0.2655 -0.1148
13140SOL     OW46280   0.715   3.811   6.993  0.0802  0.6579  0.2884
13140SOL    HW146281   0.692   3.736   7.049  0.2224 -0.4898 -1.1303
13140SOL    HW246282   0.804   3.833   7.020 -0.7736  1.9081  2.3546
13141SOL     OW46283  11.686  12.166  10.680  0.0408  0.1276  0.0739
13141SOL    HW146284  11.780  12.156  10.668 -0.3414 -1.0057 -2.6628
13141SOL    HW246285  11.655  12.079  10.705 -0.4884 -0.0354 -1.0749
13142SOL     OW46286  11.213   8.330  12.438  0.1742 -0.2034 -0.2182
13142SOL    HW146287  11.192   8.371  12.355  3.4780 -0.1156 -1.1358
13142SOL    HW246288  11.134   8.282  12.462 -2.5041  3.4048 -1.0271
13143SOL     OW46289   3.570   6.010   2.650  0.4491 -0.6198 -0.4849
13143SOL    HW146290   3.608   5.925   2.676  0.3387 -0.6384 -0.3822
13143SOL    HW246291   3.611   6.030   2.566  0.5689 -0.7163 -0.4500
13144SOL     OW46292  11.770  10.254   2.808  0.4318 -0.4191  0.6723
13144SOL    HW146293  11.775  10.306   2.727  0.9833 -0.9972  0.3251
13144SOL    HW246294  11.850  10.202   2.807  0.4248 -0.4568  1.5833
13145SOL     OW46295   2.087   7.267   5.308 -0.3394  0.8008  0.2663
13145SOL    HW146296   2.115   7.297   5.222  1.1334 -0.4918  0.2516
13145SOL    HW246297   2.122   7.178   5.315 -0.6474  0.7794  2.0961
13146SOL     OW46298   8.695  10.290   7.335  0.7393 -0.2610 -0.1780
13146SOL    HW146299   8.632  10.345   7.382 -1.2561 -0.5904 -2.2696
13146SOL    HW246300   8.653  10.204   7.330  0.9859 -0.3162 -2.1909
13147SOL     OW46301   1.617   8.389  12.359 -0.7070 -0.2544 -0.3073
13147SOL    HW146302   1.673   8.433  12.423 -0.4730 -0.6696 -0.2283
13147SOL    HW246303   1.622   8.296  12.382  0.2364 -0.5428 -1.5894
13148SOL     OW46304   8.933   9.168   3.351  0.2028  0.2945  0.6998
13148SOL    HW146305   8.850   9.134   3.387 -0.3594  0.8641 -0.0217
13148SOL    HW246306   8.964   9.098   3.294 -0.1634  0.3655  0.4081
13149SOL     OW46307   6.825   1.389   4.415  0.2354 -0.5973  0.0541
13149SOL    HW146308   6.887   1.421   4.350 -0.5817 -1.8636 -1.4143
13149SOL    HW246309   6.804   1.300   4.387 -1.6338 -0.4813  0.9348
13150SOL     OW46310   8.853   9.642   1.701 -0.5697 -0.0197 -0.1159
13150SOL    HW146311   8.924   9.633   1.765  0.5108  0.4825 -1.2143
13150SOL    HW246312   8.813   9.555   1.698 -0.4297 -0.1405  0.9859
13151SOL     OW46313   6.056   8.928   2.514 -0.8426 -0.5135 -0.2579
13151SOL    HW146314   6.088   8.912   2.425  0.3027 -1.5887  0.3185
13151SOL    HW246315   6.024   8.843   2.544 -0.4650 -0.3472  0.6494
13152SOL     OW46316   5.761   9.349   2.437  0.0310 -0.7679 -0.3018
13152SOL    HW146317   5.775   9.258   2.461  0.7888 -0.6392 -0.2393
13152SOL    HW246318   5.802   9.399   2.507  1.6125 -0.3904 -1.4569
13153SOL     OW46319   7.572   3.344  12.167  0.1685 -0.3856  0.0620
13153SOL    HW146320   7.656   3.303  12.188  0.5714  1.0206  1.3653
13153SOL    HW246321   7.594   3.423  12.119 -0.3817  0.0607  0.5236
13154SOL     OW46322   9.155   4.318   8.528 -0.2694  0.1752  0.6752
13154SOL    HW146323   9.126   4.301   8.618 -0.3399 -1.0897  0.4318
13154SOL    HW246324   9.203   4.400   8.534 -0.8766  0.4726  1.7381
13155SOL     OW46325   7.293  10.455   7.399 -0.1259  0.6381 -0.0520
13155SOL    HW146326   7.370  10.510   7.410 -1.7157  3.1705 -0.5999
13155SOL    HW246327   7.256  10.483   7.315 -1.4532 -0.7050  0.0462
13156SOL     OW46328   4.767   3.611   4.309  0.1034 -0.0812 -0.4169
13156SOL    HW146329   4.856   3.646   4.307 -0.2002  0.6924 -0.9055
13156SOL    HW246330   4.762   3.563   4.391  0.7106  0.5785  0.0209
13157SOL     OW46331  11.529   9.282   8.627 -0.2631 -0.1162  0.1802
13157SOL    HW146332  11.621   9.301   8.614 -0.4241  0.3737 -0.2924
13157SOL    HW246333  11.520   9.265   8.721  0.5479 -1.5616  0.0186
13158SOL     OW46334   0.792  11.171   8.213  0.1737 -0.4838  0.5442
13158SOL    HW146335   0.863  11.140   8.269  0.2969  0.2656  0.8269
13158SOL    HW246336   0.714  11.127   8.246  0.2825 -0.2284  1.1719
13159SOL     OW46337  11.846   6.052   2.967  0.5212  0.0996 -0.0030
13159SOL    HW146338  11.861   6.143   2.940 -1.4972  0.3536 -0.4882
13159SOL    HW246339  11.888   6.045   3.053  1.3124  1.2705 -0.2698
13160SOL     OW46340   3.635   5.080   5.490  0.1117 -0.6325  0.0807
13160SOL    HW146341   3.589   5.151   5.445 -0.5390 -0.4084  1.0696
13160SOL    HW246342   3.725   5.113   5.500 -0.3787  0.4523  1.2964
13161SOL     OW46343   5.573   9.281   9.224 -0.4071  0.6112 -0.0625
13161SOL    HW146344   5.515   9.294   9.299 -0.1390 -2.8753  0.9294
13161SOL    HW246345   5.521   9.230   9.162  0.5705  0.2137 -0.5814
13162SOL     OW46346   9.688  12.310   8.913  0.3215 -0.6101  0.4669
13162SOL    HW146347   9.747  12.373   8.954  0.1193  0.8361 -1.3349
13162SOL    HW246348   9.746  12.250   8.866  0.4482 -0.1761  0.0533
13163SOL     OW46349   3.549   1.461  11.725  0.2115  0.1136  0.4375
13163SOL    HW146350   3.464   1.417  11.720 -0.9386  1.9914  1.9220
13163SOL    HW246351   3.612   1.391  11.738 -1.5430 -1.1609  2.7864
13164SOL     OW46352   1.130   6.394   2.053 -0.1513  0.0610 -0.1126
13164SOL    HW146353   1.109   6.476   2.096 -1.1632  0.1672 -0.7568
13164SOL    HW246354   1.087   6.327   2.107 -0.0095  0.0359 -0.0317
13165SOL     OW46355  11.520   0.138   9.259  0.2872 -0.1159  0.6235
13165SOL    HW146356  11.495   0.047   9.275 -0.0348 -0.1678 -0.1112
13165SOL    HW246357  11.491   0.155   9.169 -0.2618  0.9156  0.9773
13166SOL     OW46358   9.733  10.243   3.899  0.0969 -0.3849 -0.3765
13166SOL    HW146359   9.691  10.325   3.925  0.6382  0.1306 -1.0775
13166SOL    HW246360   9.701  10.179   3.962 -0.9113  0.2050 -0.2623
13167SOL     OW46361   9.585  11.594   2.119  0.0112  0.4363  0.1881
13167SOL    HW146362   9.586  11.502   2.093 -0.2535  0.9993 -1.9852
13167SOL    HW246363   9.666  11.606   2.168  1.0062 -0.5464 -1.1402
13168SOL     OW46364  11.339   6.022  10.121  0.2914 -0.1425 -0.0267
13168SOL    HW146365  11.349   6.083  10.048  2.1988 -1.3293 -0.8236
13168SOL    HW246366  11.407   6.048  10.183  1.4271 -1.6873 -0.5775
13169SOL     OW46367   7.177   5.605   0.387 -0.2312 -0.2665 -0.4222
13169SOL    HW146368   7.198   5.684   0.337 -1.1525 -0.0844 -0.5354
13169SOL    HW246369   7.087   5.618   0.417 -0.1530 -0.9649  0.1571
13170SOL     OW46370   2.724   7.438   0.621 -0.0357 -0.2060 -0.1062
13170SOL    HW146371   2.733   7.420   0.527  1.5651 -0.9588  0.1497
13170SOL    HW246372   2.631   7.429   0.638 -0.1519 -1.8186 -1.3106
13171SOL     OW46373  10.904   2.225   7.547 -0.0093 -0.0012  0.5158
13171SOL    HW146374  10.932   2.207   7.458  1.0022  3.2715  0.0496
13171SOL    HW246375  10.963   2.174   7.602  1.2592  0.1874 -0.6404
13172SOL     OW46376   7.137   4.951   6.996 -0.1394 -0.3720 -0.1548
13172SOL    HW146377   7.083   4.950   6.917  0.6675  0.5252 -0.7407
13172SOL    HW246378   7.103   4.879   7.050 -0.4335 -1.2769 -1.4948
13173SOL     OW46379   9.397   6.288   2.947  0.3271  0.1462  0.3323
13173SOL    HW146380   9.490   6.300   2.967  0.0252  0.2464  1.7771
13173SOL    HW246381   9.377   6.201   2.982  0.6572 -1.5077 -3.1021
13174SOL     OW46382   2.728   9.950  10.333  0.3615 -0.4205  0.3159
13174SOL    HW146383   2.647   9.940  10.382 -0.5780 -0.0917 -1.0943
13174SOL    HW246384   2.774  10.023  10.374 -0.1401 -0.5038  1.0208
13175SOL     OW46385   3.925   3.854   3.805  0.5143  0.0897  0.4214
13175SOL    HW146386   3.988   3.814   3.863 -0.1282 -0.4613  0.7550
13175SOL    HW246387   3.841   3.844   3.850  0.1631  0.6512 -0.0877
13176SOL     OW46388  11.090   9.222   0.847 -0.3607 -0.2596  0.3659
13176SOL    HW146389  11.070   9.256   0.934  0.2914 -0.1560  0.4782
13176SOL    HW246390  11.178   9.187   0.854 -0.1363  0.1314 -0.3655
13177SOL     OW46391   5.122   3.524  10.557 -0.4713 -0.4873 -0.1286
13177SOL    HW146392   5.050   3.478  10.600 -0.7154 -1.3386 -1.3784
13177SOL    HW246393   5.119   3.493  10.466  2.4386 -1.7255  0.1186
13178SOL     OW46394   8.209   8.876   3.077  1.0550 -0.1547 -0.3037
13178SOL    HW146395   8.200   8.785   3.107 -0.8625  0.1048  0.0543
13178SOL    HW246396   8.257   8.869   2.995  1.4186 -1.4427 -0.0123
13179SOL     OW46397   7.385  10.340   9.932 -0.2015  0.3264 -0.3741
13179SOL    HW146398   7.481  10.342   9.922 -0.2546 -0.4189 -1.1007
13179SOL    HW246399   7.362  10.248   9.921 -1.2434  0.7873 -2.3879
13180SOL     OW46400   2.559  11.222   1.498  0.2150 -0.4742 -0.1275
13180SOL    HW146401   2.517  11.216   1.583 -0.3244  0.6970 -0.2964
13180SOL    HW246402   2.652  11.203   1.516  0.0022 -0.8662  0.5994
13181SOL     OW46403   2.659   9.873   0.987 -0.0155 -0.1888  0.5085
13181SOL    HW146404   2.649   9.874   1.082 -0.2673  1.2055  0.4944
13181SOL    HW246405   2.608   9.797   0.958  1.7439 -1.8732  1.6123
13182SOL     OW46406   7.201   0.656   7.612  0.2114 -0.6083  0.1537
13182SOL    HW146407   7.281   0.632   7.658  0.7612  0.9014  0.0369
13182SOL    HW246408   7.170   0.735   7.656 -0.2238 -0.1464 -0.9288
13183SOL     OW46409   3.338   4.414  10.611 -0.0386 -0.5391  0.1310
13183SOL    HW146410   3.309   4.429  10.521 -0.1624 -0.3097  0.2092
13183SOL    HW246411   3.426   4.453  10.615 -0.3495  0.1572  0.3262
13184SOL     OW46412   5.717   8.526   8.590  0.0390 -0.5164  0.0741
13184SOL    HW146413   5.779   8.545   8.519  0.7574  2.9458  1.4155
13184SOL    HW246414   5.653   8.598   8.585 -2.5465 -2.6445  0.2599
13185SOL     OW46415   2.770   3.823   5.395 -0.1180  0.5150  0.3568
13185SOL    HW146416   2.675   3.814   5.392 -0.0868  0.0972  0.6531
13185SOL    HW246417   2.793   3.861   5.309 -0.3140 -1.5731 -0.6782
13186SOL     OW46418   5.741   9.305  10.687 -0.9036  0.7554  0.1606
13186SOL    HW146419   5.724   9.391  10.649  0.6607  0.7660 -0.6393
13186SOL    HW246420   5.690   9.244  10.633 -1.9669  1.1667  0.6918
13187SOL     OW46421   4.729   2.157   3.055 -0.0917  0.1322 -0.0178
13187SOL    HW146422   4.684   2.227   3.008  1.4784  1.4624  0.3718
13187SOL    HW246423   4.672   2.137   3.129  0.1931  2.2462  0.8391
13188SOL     OW46424   8.853   3.514   9.181  0.0264  0.7418  0.0329
13188SOL    HW146425   8.942   3.527   9.149  0.2087  1.1498  0.6875
13188SOL    HW246426   8.854   3.428   9.224 -0.1851  0.2515 -0.9197
13189SOL     OW46427   7.162  10.696   5.165  0.3113 -0.3528  0.0409
13189SOL    HW146428   7.152  10.761   5.096  0.4420  1.1072  1.3453
13189SOL    HW246429   7.229  10.732   5.223 -1.3492 -0.4335  2.1285
13190SOL     OW46430   9.606   2.099  11.324 -0.0084 -0.7524  0.1870
13190SOL    HW146431   9.511   2.103  11.309  0.1148  1.3906 -0.4264
13190SOL    HW246432   9.624   2.177  11.377  1.3793 -1.3104  0.5694
13191SOL     OW46433   5.538   3.613   0.732 -0.2412 -0.4045 -0.0380
13191SOL    HW146434   5.444   3.603   0.746 -0.1188 -0.6569  0.6654
13191SOL    HW246435   5.560   3.696   0.773 -0.2969  0.0951 -0.9827
13192SOL     OW46436   7.788  10.170  11.048  0.1204 -0.0611  0.0195
13192SOL    HW146437   7.847  10.132  11.113 -0.0128 -0.2366  0.0379
13192SOL    HW246438   7.814  10.129  10.965  0.3602  0.2409 -0.0567
13193SOL     OW46439  11.078   1.793   5.227 -0.0157  0.5115  0.2681
13193SOL    HW146440  11.075   1.759   5.316  0.8359  1.3368  0.6316
13193SOL    HW246441  11.104   1.717   5.173 -3.2747 -0.7694  0.2290
13194SOL     OW46442  12.115   8.069   8.239  0.1806  0.0857  0.4539
13194SOL    HW146443  12.192   8.083   8.184  0.1246 -1.2566 -0.0007
13194SOL    HW246444  12.149   8.025   8.317 -0.1563 -0.8627  0.0815
13195SOL     OW46445   4.224   0.930   4.384 -0.2853  0.0479 -0.5839
13195SOL    HW146446   4.136   0.943   4.420 -0.0837  0.9434 -0.3920
13195SOL    HW246447   4.247   0.841   4.409 -0.6457  0.2333  0.4522
13196SOL     OW46448  11.752   7.525  11.688  0.5907  0.3742 -0.4894
13196SOL    HW146449  11.805   7.452  11.657 -0.8606 -0.5922 -0.8049
13196SOL    HW246450  11.814   7.582  11.734  2.1658  0.0974 -2.1490
13197SOL     OW46451   2.528   5.373  10.927  0.0282 -0.0910 -0.3188
13197SOL    HW146452   2.590   5.396  10.858 -0.4404 -0.4663 -0.8617
13197SOL    HW246453   2.583   5.367  11.006  1.0141 -2.1396 -1.0907
13198SOL     OW46454  11.312  11.894  11.732  0.2455  0.1008 -0.2305
13198SOL    HW146455  11.291  11.987  11.730 -0.1338  0.0967  1.6757
13198SOL    HW246456  11.336  11.872  11.642 -2.9148  1.2744 -1.4585
13199SOL     OW46457   4.789   0.782  12.407 -0.0407 -0.4682 -0.2586
13199SOL    HW146458   4.754   0.724  12.474  1.0412 -0.4877  0.3150
13199SOL    HW246459   4.785   0.869  12.447  1.9200 -0.6470  0.4392
13200SOL     OW46460   4.257   4.381   5.215  0.1465 -0.7377 -0.4840
13200SOL    HW146461   4.302   4.427   5.286 -0.1926  0.6408 -1.1157
13200SOL    HW246462   4.269   4.438   5.139 -0.9116 -1.3545 -1.1355
13201SOL     OW46463   0.634  11.437   3.825  0.2842 -0.4784  0.1761
13201SOL    HW146464   0.614  11.415   3.734 -0.3545  0.8248 -0.0180
13201SOL    HW246465   0.622  11.355   3.872  1.2000 -1.3285 -0.9821
13202SOL     OW46466   5.518   1.118  12.458  0.0492 -0.1200 -0.2544
13202SOL    HW146467   5.536   1.043  12.514 -1.8264 -1.7162 -1.6405
13202SOL    HW246468   5.581   1.110  12.386  0.7417  0.4237  0.2901
13203SOL     OW46469  11.797   2.738   5.399  0.1583 -0.0619  0.3679
13203SOL    HW146470  11.758   2.672   5.456 -0.1566  0.6713  1.0244
13203SOL    HW246471  11.870   2.693   5.357 -0.7888 -1.1785 -0.1484
13204SOL     OW46472   0.321   5.966  11.289 -0.2252 -0.0388 -0.0681
13204SOL    HW146473   0.313   6.011  11.373 -0.0532 -0.3136  0.0959
13204SOL    HW246474   0.401   6.002  11.251 -1.4808  1.7952 -1.1580
13205SOL     OW46475   8.635   1.210   0.170  0.5560 -0.2859 -0.5099
13205SOL    HW146476   8.626   1.118   0.197  1.5494 -0.6914 -1.4914
13205SOL    HW246477   8.602   1.260   0.244 -1.0842 -1.4492 -0.3934
13206SOL     OW46478   9.547   2.737  10.529 -0.4248 -0.0603 -0.4191
13206SOL    HW146479   9.504   2.663  10.571  1.6004 -0.9611  0.1889
13206SOL    HW246480   9.534   2.810  10.590 -0.3783 -0.5290  0.1585
13207SOL     OW46481   6.626   5.207   4.848  0.7143  0.1401  0.5249
13207SOL    HW146482   6.555   5.145   4.831 -1.5363  3.0602 -1.6084
13207SOL    HW246483   6.687   5.158   4.903 -3.1834 -2.3707  3.1085
13208SOL     OW46484   8.218   4.399   2.323 -0.4939  0.1111  0.1885
13208SOL    HW146485   8.155   4.380   2.393 -1.5387  2.0947 -0.1201
13208SOL    HW246486   8.221   4.320   2.271 -1.0474 -0.7971  1.4725
13209SOL     OW46487   3.555  10.148  10.123  0.0353 -0.2504  0.1429
13209SOL    HW146488   3.499  10.099  10.064 -2.0499 -0.5351  2.2146
13209SOL    HW246489   3.637  10.098  10.126 -0.8414 -1.7591 -0.3242
13210SOL     OW46490   5.703   5.028  10.089  0.0399 -0.2068  0.7448
13210SOL    HW146491   5.724   5.093  10.156  1.0035  0.1791  0.1033
13210SOL    HW246492   5.623   5.060  10.048 -0.2599 -0.1668  1.3541
13211SOL     OW46493  12.445   9.913   9.468 -0.1046  0.2349 -0.3810
13211SOL    HW146494  12.534   9.939   9.447 -0.9587  3.4029 -0.5162
13211SOL    HW246495  12.413   9.871   9.388  0.4935  1.3675 -1.2436
13212SOL     OW46496   0.517   5.393   4.289 -0.6102  0.3162 -0.3122
13212SOL    HW146497   0.588   5.341   4.328 -0.4209  2.0186  1.7678
13212SOL    HW246498   0.471   5.430   4.364 -2.8174  0.4743 -1.6639
13213SOL     OW46499   9.284  11.376   5.862 -0.2702 -0.3508 -0.6731
13213SOL    HW146500   9.225  11.383   5.787 -1.5647  1.6254  0.4314
13213SOL    HW246501   9.300  11.467   5.889  1.5659 -0.9354  0.3850
13214SOL     OW46502   4.709  12.070   5.333 -0.5907 -0.1352  0.2588
13214SOL    HW146503   4.780  12.010   5.310 -1.2033 -1.1754  0.9711
13214SOL    HW246504   4.749  12.157   5.330  0.7259 -0.6949  0.6606
13215SOL     OW46505   7.050   0.760   5.378  0.4972 -0.0592  0.1609
13215SOL    HW146506   7.118   0.813   5.420  0.2858  0.6437 -0.3596
13215SOL    HW246507   6.985   0.745   5.447 -0.7349  2.5967 -0.2754
13216SOL     OW46508   6.601  11.817   0.897  0.1641  0.0403 -0.2344
13216SOL    HW146509   6.573  11.815   0.989  1.3452  0.1161  0.1461
13216SOL    HW246510   6.697  11.821   0.902  0.1906  1.8694 -1.4396
13217SOL     OW46511  11.251   0.597   6.026  0.0771  0.1536 -0.0776
13217SOL    HW146512  11.161   0.602   6.058 -0.0881 -1.2984 -0.2707
13217SOL    HW246513  11.244   0.552   5.942  0.7179  2.2671 -1.3299
13218SOL     OW46514   5.296   7.717  11.693  0.3867 -0.1415 -0.3590
13218SOL    HW146515   5.210   7.746  11.721  0.2506 -0.7774 -0.1030
13218SOL    HW246516   5.297   7.622  11.710  1.1339 -0.1427 -0.3388
13219SOL     OW46517   1.315   0.812   0.455 -0.5432 -0.2516  0.3187
13219SOL    HW146518   1.317   0.894   0.504  0.0789  0.0021 -0.1219
13219SOL    HW246519   1.253   0.829   0.384  0.4300  0.2471 -0.4476
13220SOL     OW46520   6.654   9.087   1.696  0.1728  0.2134  0.4393
13220SOL    HW146521   6.690   9.152   1.635 -0.7053 -0.6304 -1.0483
13220SOL    HW246522   6.593   9.137   1.750 -1.8181  0.4354 -1.8226
13221SOL     OW46523   1.134  11.244   5.132 -0.0718  0.1648 -0.0958
13221SOL    HW146524   1.136  11.195   5.050  0.9813 -0.7656  0.4680
13221SOL    HW246525   1.041  11.243   5.158 -0.1907 -0.8629 -0.5045
13222SOL     OW46526   0.042  10.988   6.688 -0.1641 -0.2413  0.3953
13222SOL    HW146527   0.003  11.076   6.693 -1.9721 -1.0578  3.1764
13222SOL    HW246528   0.137  11.004   6.690 -0.4447  1.6745  0.2248
13223SOL     OW46529   6.825   7.310   1.908 -0.0552  0.6101 -0.3910
13223SOL    HW146530   6.906   7.342   1.869 -1.2288  0.3824 -3.2814
13223SOL    HW246531   6.836   7.215   1.911  0.2019  0.6594  0.2542
13224SOL     OW46532   8.151   8.981  10.202 -0.2220  0.3609  0.0342
13224SOL    HW146533   8.146   8.886  10.199  2.6344  0.1412 -1.0205
13224SOL    HW246534   8.132   9.009  10.112  0.9606  0.5909 -0.1586
13225SOL     OW46535   3.672  10.778   6.568  0.3640 -0.1324 -0.1862
13225SOL    HW146536   3.601  10.750   6.509  1.1011 -2.0345 -0.2511
13225SOL    HW246537   3.636  10.853   6.615 -1.5199 -0.7406 -0.5632
13226SOL     OW46538   9.987   5.569   0.542  0.4944  0.0641 -0.4612
13226SOL    HW146539  10.081   5.571   0.529  0.3250 -0.0277 -1.7796
13226SOL    HW246540   9.975   5.592   0.635  1.8839 -1.6733  0.2019
13227SOL     OW46541   4.726   7.586  10.224  0.5635 -0.2108  0.5374
13227SOL    HW146542   4.719   7.491  10.225 -1.3361 -0.1280  2.3708
13227SOL    HW246543   4.643   7.616  10.188  1.1861  0.7872 -0.1374
13228SOL     OW46544   4.516   5.946   4.347 -0.2061  0.0256 -0.3397
13228SOL    HW146545   4.448   5.996   4.302 -1.1140  0.0366  0.9908
13228SOL    HW246546   4.487   5.942   4.438  0.6507 -1.5470 -0.0947
13229SOL     OW46547   6.563  11.282  10.742  0.0930 -0.5072 -0.0792
13229SOL    HW146548   6.536  11.193  10.717 -2.4209  0.0568  0.3877
13229SOL    HW246549   6.585  11.275  10.835  0.7892 -0.7990 -0.2578
13230SOL     OW46550   6.881   1.997   1.190 -0.1999  0.3487  0.1546
13230SOL    HW146551   6.834   2.054   1.251 -1.4777  0.4884 -0.9315
13230SOL    HW246552   6.946   2.055   1.149  1.0956  0.1166  1.7724
13231SOL     OW46553  11.036   2.747  11.114 -0.0645  0.8740 -0.7570
13231SOL    HW146554  11.044   2.655  11.140  0.2887  0.9341 -0.6497
13231SOL    HW246555  11.103   2.792  11.165  0.5304  1.0184 -1.6390
13232SOL     OW46556   3.991   2.357   8.938 -0.7001  0.2118  0.4312
13232SOL    HW146557   3.914   2.385   8.987 -0.7305  0.0841  0.4580
13232SOL    HW246558   3.959   2.287   8.880 -0.4494 -0.4088  1.0201
13233SOL     OW46559   8.691   8.165   2.430 -0.2105  0.7952  0.4124
13233SOL    HW146560   8.662   8.084   2.472  0.2293  0.2525 -0.3178
13233SOL    HW246561   8.692   8.229   2.501 -1.2274  0.3349  0.8579
13234SOL     OW46562   2.960   0.833   3.943 -0.2887 -0.2189  0.1734
13234SOL    HW146563   3.048   0.860   3.969  0.4799 -1.4434 -1.0325
13234SOL    HW246564   2.974   0.767   3.874 -2.1494 -0.1975 -0.2840
13235SOL     OW46565   1.812   4.630   1.590 -0.6137 -0.2615  0.3564
13235SOL    HW146566   1.777   4.633   1.501 -0.7930  0.5177  0.4414
13235SOL    HW246567   1.753   4.687   1.640  1.1655  1.6856  0.3601
13236SOL     OW46568   0.085   5.857   8.655  0.4277 -0.5310 -0.5359
13236SOL    HW146569   0.117   5.888   8.571 -1.9503  0.0411 -1.3210
13236SOL    HW246570   0.141   5.899   8.720  2.2465 -0.9030 -1.7959
13237SOL     OW46571  12.201   4.218   6.385  0.3595  0.2566  0.2072
13237SOL    HW146572  12.152   4.234   6.305  1.5024 -2.4633 -1.1769
13237SOL    HW246573  12.290   4.247   6.365  0.6806 -0.5378  0.4266
13238SOL     OW46574   5.852  10.678   1.699  0.6301  0.2516 -0.4495
13238SOL    HW146575   5.821  10.736   1.630  0.3521  1.5218  0.7055
13238SOL    HW246576   5.947  10.689   1.698  0.5641  0.9572 -0.0763
13239SOL     OW46577   3.568  11.302  12.042 -0.5615  0.3240  0.9246
13239SOL    HW146578   3.522  11.374  12.085  0.7285  1.6483  0.1841
13239SOL    HW246579   3.576  11.330  11.950  0.4532 -0.4905  0.7400
13240SOL     OW46580   4.124   9.900   5.305 -0.1395  0.2083  0.2039
13240SOL    HW146581   4.124   9.812   5.267  0.1921 -0.5080  1.7447
13240SOL    HW246582   4.215   9.930   5.294 -0.2689  0.3917 -0.3850
13241SOL     OW46583  11.336  11.265   3.864  0.4355  0.3215  0.2277
13241SOL    HW146584  11.267  11.298   3.922 -0.4066 -1.6945  0.4544
13241SOL    HW246585  11.346  11.332   3.797 -0.8889  1.2057  0.8911
13242SOL     OW46586  10.971   7.400   1.401  0.4868 -0.0045 -0.3078
13242SOL    HW146587  10.891   7.451   1.385 -0.2708  0.1384  3.2733
13242SOL    HW246588  11.042   7.459   1.377 -0.4049  0.6669 -1.4410
13243SOL     OW46589   4.514  12.311   7.375  0.1303  0.1529 -0.0559
13243SOL    HW146590   4.547  12.366   7.446 -2.1685  0.3011  0.9736
13243SOL    HW246591   4.433  12.352   7.347 -0.6018 -1.5964 -0.6648
13244SOL     OW46592   8.452   2.446   4.023  0.2352  0.1638  0.0510
13244SOL    HW146593   8.356   2.447   4.032 -0.0581 -1.1267 -2.0888
13244SOL    HW246594   8.476   2.539   4.020 -0.8779  0.5161  1.0760
13245SOL     OW46595   8.526   6.199   9.633  0.4011 -0.2241  0.3822
13245SOL    HW146596   8.591   6.251   9.585  0.0380 -2.0389 -2.2771
13245SOL    HW246597   8.574   6.122   9.663  0.5337  0.7097  2.8202
13246SOL     OW46598   6.123   3.224  11.733 -0.0009 -0.0205 -0.3155
13246SOL    HW146599   6.195   3.270  11.776 -0.1169 -0.5830  0.5210
13246SOL    HW246600   6.048   3.282  11.742 -0.0958 -0.2552  0.5392
13247SOL     OW46601   1.918   5.497   2.525  0.1499  0.5435  1.1316
13247SOL    HW146602   1.998   5.547   2.507  1.8525 -2.0068  1.1476
13247SOL    HW246603   1.896   5.456   2.442 -2.4248  2.7471  0.5761
13248SOL     OW46604  11.540   5.659   0.897  0.1206  0.1004 -0.0166
13248SOL    HW146605  11.550   5.564   0.908  0.2432  0.2872  1.9167
13248SOL    HW246606  11.446   5.672   0.886  0.2244 -0.3284 -1.5429
13249SOL     OW46607   5.569   4.547  11.616 -0.0395 -0.3014  0.8727
13249SOL    HW146608   5.611   4.604  11.680 -0.3892 -0.9689  1.7172
13249SOL    HW246609   5.641   4.502  11.573  0.3636  2.0074 -1.0566
13250SOL     OW46610   5.012   8.784   6.369  0.2458 -0.1675  0.4978
13250SOL    HW146611   5.007   8.846   6.441 -1.0794  0.3147  0.0279
13250SOL    HW246612   5.101   8.750   6.371  1.1471  2.0716  0.5057
13251SOL     OW46613   3.083  11.027  10.235 -0.3025 -0.0782  0.5434
13251SOL    HW146614   3.040  11.103  10.196 -1.0992 -0.7849  0.0368
13251SOL    HW246615   3.096  11.052  10.326  0.9257  1.3053  0.0308
13252SOL     OW46616   9.255   1.041   2.526 -0.4978  0.2796 -0.0473
13252SOL    HW146617   9.164   1.047   2.555  0.2418  0.7955  2.3877
13252SOL    HW246618   9.274   0.947   2.525 -0.9936  0.1794 -0.4062
13253SOL     OW46619   1.894   5.463   7.593  0.2839 -0.5844 -0.3075
13253SOL    HW146620   1.838   5.386   7.601 -0.0419 -0.1255  2.8372
13253SOL    HW246621   1.835   5.537   7.608  1.6527 -0.1256  4.2578
13254SOL     OW46622   0.339   0.706   3.385 -0.5768  0.3082  0.3915
13254SOL    HW146623   0.421   0.748   3.358 -0.6431  0.0688 -0.2025
13254SOL    HW246624   0.271   0.757   3.343 -0.6729 -0.1908 -0.0677
13255SOL     OW46625   5.130   7.483   2.837  0.1216  0.1407 -0.0749
13255SOL    HW146626   5.134   7.403   2.784  1.9271  0.2709 -0.2053
13255SOL    HW246627   5.131   7.554   2.773 -1.4695  0.3024  0.0427
13256SOL     OW46628   4.792  10.496   0.307 -0.0437  0.2200  0.4446
13256SOL    HW146629   4.876  10.481   0.351 -0.1471  0.2888  0.6645
13256SOL    HW246630   4.740  10.419   0.329 -0.2850  0.5046  0.8924
13257SOL     OW46631   4.685   7.939   9.819  0.5093 -0.0100 -0.2145
13257SOL    HW146632   4.698   8.022   9.773 -2.4652 -0.1127 -1.4610
13257SOL    HW246633   4.680   7.963   9.912  1.6287  0.8831 -0.3657
13258SOL     OW46634   6.626   1.862   8.473  0.3956 -0.0667  0.6031
13258SOL    HW146635   6.543   1.815   8.473  1.4069 -1.9818  1.7434
13258SOL    HW246636   6.683   1.810   8.416  1.3656  0.0630  1.4143
13259SOL     OW46637   7.268   9.311  12.442  0.1513 -0.1261 -0.0835
13259SOL    HW146638   7.249   9.303  12.535  1.4174 -1.1285  0.1108
13259SOL    HW246639   7.292   9.403  12.430  1.6789 -0.3645  0.9311
13260SOL     OW46640  10.925   2.531   1.704 -0.6246 -0.5509 -0.3265
13260SOL    HW146641  10.974   2.613   1.704 -0.2545 -0.7442  1.3003
13260SOL    HW246642  10.876   2.532   1.786  0.7782 -2.7452  0.6216
13261SOL     OW46643   8.452   5.760   7.157 -0.1387  0.3218  0.4729
13261SOL    HW146644   8.505   5.680   7.153 -0.9242 -0.2723  1.5736
13261SOL    HW246645   8.383   5.747   7.092  1.3193  1.3487 -1.3989
13262SOL     OW46646   0.257   7.852   7.862 -0.1485  0.3933  0.4041
13262SOL    HW146647   0.169   7.883   7.884 -0.3611 -0.6042  1.0333
13262SOL    HW246648   0.261   7.860   7.766 -0.4469  1.6336  0.4802
13263SOL     OW46649   6.693   9.874  11.275 -0.2059 -0.0138 -0.3729
13263SOL    HW146650   6.734   9.811  11.217 -0.0916 -0.3776  0.0932
13263SOL    HW246651   6.715   9.960  11.238  0.4308 -0.2238 -0.4835
13264SOL     OW46652   0.874   2.839   5.335 -0.0784 -0.1574 -0.4629
13264SOL    HW146653   0.878   2.877   5.247  0.8257  0.0188 -0.3593
13264SOL    HW246654   0.965   2.819   5.356 -0.4109 -1.3052 -0.0416
13265SOL     OW46655  10.707   1.993   9.750  0.2578  0.6300  0.4234
13265SOL    HW146656  10.646   2.014   9.821 -1.2981 -0.4232 -0.5487
13265SOL    HW246657  10.779   2.056   9.761 -1.1571  2.1595  1.3991
13266SOL     OW46658   1.567   5.302   6.111 -0.4766 -0.4283 -0.5960
13266SOL    HW146659   1.545   5.212   6.087 -0.3081 -0.8251  0.6263
13266SOL    HW246660   1.628   5.292   6.184  0.8883  0.6679 -1.5293
13267SOL     OW46661   3.697   5.654   5.479 -0.3330  0.4664 -0.2481
13267SOL    HW146662   3.791   5.635   5.467 -0.1481  1.9000 -1.4240
13267SOL    HW246663   3.684   5.653   5.573  1.0274  0.9126 -0.0333
13268SOL     OW46664   3.120   7.920   5.073  0.1033 -0.1772  0.6138
13268SOL    HW146665   3.044   7.871   5.042 -0.0357 -1.1550  2.3430
13268SOL    HW246666   3.098   7.943   5.164  1.7417 -0.2546  1.0655
13269SOL     OW46667   3.822   9.872   3.311  0.2595  0.1515  0.3768
13269SOL    HW146668   3.873   9.895   3.234 -0.6923 -1.2639 -0.7344
13269SOL    HW246669   3.886   9.864   3.381  1.2347  0.7683 -0.4245
13270SOL     OW46670  10.221  10.664  10.255  0.1388 -0.3484 -0.4580
13270SOL    HW146671  10.307  10.655  10.297  0.3242 -1.5840 -1.0591
13270SOL    HW246672  10.238  10.716  10.177  0.4084 -0.8399 -0.7325
13271SOL     OW46673   9.149   1.794  11.960 -0.0134  0.2285 -0.1762
13271SOL    HW146674   9.064   1.750  11.958 -0.2477  0.6578  0.0816
13271SOL    HW246675   9.130   1.880  11.997  0.7035 -0.0343  0.8545
13272SOL     OW46676   7.788   4.404  11.055  0.6301  0.0797 -0.1014
13272SOL    HW146677   7.748   4.388  11.141 -0.2280  1.5356 -0.1904
13272SOL    HW246678   7.822   4.319  11.028 -2.4343 -1.2904 -0.0034
13273SOL     OW46679   8.472   9.963   8.017  0.3102 -0.2942  0.0132
13273SOL    HW146680   8.384   9.928   8.027  0.4642 -0.6116  0.2777
13273SOL    HW246681   8.530   9.887   8.031  0.6454  0.0536  0.5468
13274SOL     OW46682   8.502   5.084   6.418 -0.1046  0.1541  0.1935
13274SOL    HW146683   8.493   5.141   6.341  0.7597  0.5687  0.3828
13274SOL    HW246684   8.418   5.089   6.462 -0.1553  0.9996  0.0063
13275SOL     OW46685   0.198   7.732   1.972 -0.2440 -0.0282  0.1487
13275SOL    HW146686   0.214   7.638   1.972 -3.8883 -0.8003 -0.8141
13275SOL    HW246687   0.140   7.747   2.047 -1.7432  0.9525 -1.1459
13276SOL     OW46688   3.634   7.437   5.413  0.0118 -0.5453 -0.0282
13276SOL    HW146689   3.564   7.433   5.479 -0.2572  2.8523  0.0641
13276SOL    HW246690   3.706   7.388   5.452 -1.0895 -1.0488  1.4907
13277SOL     OW46691   6.053   6.185   5.195 -0.3465  0.4060  0.0002
13277SOL    HW146692   6.045   6.264   5.248 -0.6965 -1.0005  2.1676
13277SOL    HW246693   5.969   6.177   5.150  0.2306  2.0365 -1.4877
13278SOL     OW46694   7.615   0.162  11.497  0.4857  0.5015  0.1831
13278SOL    HW146695   7.634   0.251  11.466 -1.2079  1.2246  1.1203
13278SOL    HW246696   7.583   0.173  11.586  1.3510 -1.1892  0.7591
13279SOL     OW46697  12.108   0.958   0.182 -0.2985  0.5637  0.1986
13279SOL    HW146698  12.048   1.033   0.185  1.3815  2.1826 -2.1240
13279SOL    HW246699  12.135   0.953   0.090  1.4327 -1.4534  0.7342
13280SOL     OW46700   7.947   3.114   4.471 -0.0188  0.2555  0.3268
13280SOL    HW146701   7.952   3.025   4.507  2.4628  0.1706 -0.0257
13280SOL    HW246702   7.915   3.101   4.381  0.3473 -0.2845  0.2683
13281SOL     OW46703   7.503   8.028   4.767  0.0987 -0.5553 -0.3115
13281SOL    HW146704   7.577   8.021   4.706  1.1418 -0.8133  0.9294
13281SOL    HW246705   7.543   8.057   4.850 -1.0762 -1.4533  0.6038
13282SOL     OW46706   6.116  10.164   3.695 -0.6820  0.5806 -0.5705
13282SOL    HW146707   6.097  10.094   3.758 -1.7196  0.2253 -1.2488
13282SOL    HW246708   6.199  10.201   3.725  0.5012 -1.6707 -0.8266
13283SOL     OW46709   5.035   5.544   0.322 -0.0151 -0.7361  0.2610
13283SOL    HW146710   5.102   5.476   0.314 -0.1188 -0.7228 -0.8627
13283SOL    HW246711   5.073   5.608   0.383  0.3283 -1.5007  0.8702
13284SOL     OW46712   5.646  11.663   9.499 -0.1766  0.3512  0.1598
13284SOL    HW146713   5.715  11.623   9.552 -0.0571  1.8846  1.2354
13284SOL    HW246714   5.687  11.742   9.463 -1.2360  1.0803  0.5046
13285SOL     OW46715  10.830   6.742   2.336  0.5110 -0.0595  0.6504
13285SOL    HW146716  10.830   6.775   2.426  0.3002  2.8950 -0.3241
13285SOL    HW246717  10.744   6.703   2.324 -0.1253  1.1383  1.2164
13286SOL     OW46718   9.178   0.074   9.143 -0.5775 -0.3890 -0.3094
13286SOL    HW146719   9.130   0.106   9.220  0.8595  0.0014  0.4503
13286SOL    HW246720   9.112   0.027   9.092 -1.7253 -0.0338  0.7953
13287SOL     OW46721   6.341   7.500   1.783 -0.0368 -0.2671 -0.1204
13287SOL    HW146722   6.398   7.423   1.781 -0.5166 -0.6195 -0.4505
13287SOL    HW246723   6.286   7.487   1.859 -0.5787 -0.5899 -0.5630
13288SOL     OW46724  11.400   0.971   8.043  0.6818  0.2531 -0.1848
13288SOL    HW146725  11.413   0.935   7.955 -2.7418 -1.0423 -0.3158
13288SOL    HW246726  11.351   1.052   8.028 -1.2384 -0.7192  0.4918
13289SOL     OW46727  11.906   8.418   3.869 -0.3199 -0.0613 -0.0728
13289SOL    HW146728  11.952   8.460   3.796  1.0786  1.1526  1.4317
13289SOL    HW246729  11.825   8.468   3.878  0.0557  0.5717 -0.0716
13290SOL     OW46730   0.984   1.036   0.541 -0.1652  0.6154  0.3249
13290SOL    HW146731   1.021   1.021   0.454  0.5516  0.4253  0.6566
13290SOL    HW246732   0.935   0.956   0.561 -0.4602  0.7210  0.0377
13291SOL     OW46733  12.444   0.305   2.568  0.1748 -0.0987  0.5455
13291SOL    HW146734  12.403   0.274   2.648 -0.3222  1.0644  0.7611
13291SOL    HW246735  12.427   0.235   2.504 -1.7581  0.1381  0.7481
13292SOL     OW46736   7.912   1.991   5.939  0.0935  0.0057 -0.4279
13292SOL    HW146737   7.885   2.045   6.013 -0.3987 -1.0160  0.1605
13292SOL    HW246738   7.861   1.911   5.948 -0.4966  0.1343 -2.2971
13293SOL     OW46739   0.326   2.124   9.500  0.6781  0.1714 -0.3183
13293SOL    HW146740   0.362   2.077   9.425 -0.4865  1.7429 -1.9631
13293SOL    HW246741   0.344   2.068   9.575  0.5785 -2.1894 -1.9653
13294SOL     OW46742   9.599   8.175   0.154  0.4958  0.4056  0.2186
13294SOL    HW146743   9.653   8.217   0.087  0.9442  0.2303  0.4670
13294SOL    HW246744   9.640   8.201   0.237 -0.3577  1.0586  0.4584
13295SOL     OW46745   2.577   8.214   2.621 -0.1201  0.4206  0.0374
13295SOL    HW146746   2.512   8.251   2.560 -0.8943  1.0829  1.2065
13295SOL    HW246747   2.598   8.129   2.585 -2.0071 -0.0159 -0.1723
13296SOL     OW46748   6.895  10.196   5.476 -0.4492  0.1597 -0.4556
13296SOL    HW146749   6.805  10.203   5.509 -0.6252  1.2219 -1.1278
13296SOL    HW246750   6.905  10.103   5.455 -1.2223 -0.0576  0.0778
13297SOL     OW46751   6.927   9.956   4.477 -0.1406  0.3700 -0.6258
13297SOL    HW146752   6.837   9.925   4.484  0.0034 -0.0913 -0.7974
13297SOL    HW246753   6.980   9.878   4.492  0.3069  1.1068  2.3754
13298SOL     OW46754   8.587   8.889  11.712 -0.3068 -0.1304 -0.8444
13298SOL    HW146755   8.611   8.855  11.798 -0.7608  0.2390 -0.5686
13298SOL    HW246756   8.657   8.952  11.691 -1.5189  1.7443  0.4268
13299SOL     OW46757   2.583   7.380   5.026  0.4584  0.1308 -0.3958
13299SOL    HW146758   2.582   7.313   4.958 -0.7687 -0.4334  0.1485
13299SOL    HW246759   2.623   7.338   5.101  1.5567  0.6685 -0.6552
13300SOL     OW46760   4.861  11.432   8.188 -0.5791  0.0310  0.4000
13300SOL    HW146761   4.922  11.383   8.243  0.8831  1.3331  0.0188
13300SOL    HW246762   4.903  11.436   8.102 -2.2427 -0.8930 -0.5038
13301SOL     OW46763   8.294   8.581   1.696 -0.3212 -0.3631  0.0622
13301SOL    HW146764   8.257   8.669   1.687 -1.8806 -1.1161 -1.2909
13301SOL    HW246765   8.228   8.523   1.658  1.5625 -1.9413 -0.9455
13302SOL     OW46766   5.577  11.686  12.021 -0.6031  0.0189 -0.0903
13302SOL    HW146767   5.601  11.632  12.095  0.6430 -0.5515 -0.8785
13302SOL    HW246768   5.487  11.660  12.000 -0.3934 -0.9837  0.2113
13303SOL     OW46769   4.288  10.949   5.249  0.4900 -0.4126  0.2017
13303SOL    HW146770   4.194  10.968   5.240  0.7188 -0.2392 -2.7094
13303SOL    HW246771   4.291  10.857   5.277 -0.6216 -1.0486 -1.5642
13304SOL     OW46772  10.780  12.212   0.142 -0.4132 -0.1109  0.6312
13304SOL    HW146773  10.710  12.278   0.139  0.6878  1.0711 -0.9625
13304SOL    HW246774  10.846  12.249   0.200 -0.5106 -0.6074  1.0669
13305SOL     OW46775   7.595   7.355   4.352  0.0123 -0.3421  0.5289
13305SOL    HW146776   7.673   7.325   4.399  0.6994  0.6815  0.0919
13305SOL    HW246777   7.523   7.335   4.411  0.6805 -0.7053  1.2444
13306SOL     OW46778   0.867   9.181   2.371 -0.2471 -0.4174  0.9604
13306SOL    HW146779   0.821   9.102   2.401  0.1978 -0.4646  1.5377
13306SOL    HW246780   0.941   9.147   2.319 -0.7049 -0.3497  0.2590
13307SOL     OW46781   1.139  10.431  12.180 -0.1942  0.3700 -0.0903
13307SOL    HW146782   1.232  10.426  12.201 -0.1613 -1.5503 -0.5570
13307SOL    HW246783   1.097  10.372  12.243 -0.6439 -1.6105 -2.1290
13308SOL     OW46784   3.791   4.765   2.239  0.5684  0.5302  0.5316
13308SOL    HW146785   3.762   4.837   2.183 -2.0013 -0.1568  0.8491
13308SOL    HW246786   3.806   4.804   2.324 -2.1218  0.5862  1.0628
13309SOL     OW46787   6.925   1.547  11.796 -0.1701 -0.2591  0.2560
13309SOL    HW146788   6.860   1.617  11.804 -0.6951 -0.8032  0.8531
13309SOL    HW246789   7.009   1.593  11.795 -0.5867  0.6494 -2.8626
13310SOL     OW46790  10.495   8.843   7.851  0.4023 -0.1508  0.3067
13310SOL    HW146791  10.410   8.876   7.823  1.3780  0.8850 -1.6332
13310SOL    HW246792  10.521   8.900   7.924 -1.2555 -1.5484  2.0698
13311SOL     OW46793   6.216   0.675   0.189 -0.3967 -0.7052 -0.1161
13311SOL    HW146794   6.175   0.722   0.116 -0.4441 -0.6675 -0.0653
13311SOL    HW246795   6.198   0.730   0.265  0.9899  0.0799 -0.3037
13312SOL     OW46796   8.916   6.098   9.343  0.1179  0.2328  0.3547
13312SOL    HW146797   8.989   6.127   9.397 -1.3635  1.6197  1.7289
13312SOL    HW246798   8.941   6.123   9.254  1.2347  0.8305  0.8148
13313SOL     OW46799   8.462   2.200   8.455  0.2453  0.3783 -0.0534
13313SOL    HW146800   8.417   2.274   8.413 -2.6638 -0.6865  0.9010
13313SOL    HW246801   8.448   2.214   8.549  1.2232 -0.4496  0.2303
13314SOL     OW46802   0.937   2.102   0.662  0.6107 -0.0748 -0.0806
13314SOL    HW146803   0.871   2.120   0.728  0.8861  0.4359  0.0620
13314SOL    HW246804   0.888   2.073   0.585  0.3640 -2.5186  0.9010
13315SOL     OW46805   3.307   9.929   7.937  0.6930 -0.3535 -0.0816
13315SOL    HW146806   3.352   9.913   8.020  1.2846 -0.4495 -0.4236
13315SOL    HW246807   3.353  10.002   7.898 -0.0924  0.2178  0.0389
13316SOL     OW46808   5.791   9.526   0.949  0.8163  0.7016 -0.5211
13316SOL    HW146809   5.815   9.549   1.039  0.9341  0.9853 -0.6238
13316SOL    HW246810   5.736   9.598   0.920 -1.0617 -0.4203  0.0655
13317SOL     OW46811  12.186   7.100   9.847 -0.1096 -0.4450 -0.4923
13317SOL    HW146812  12.243   7.046   9.902  1.6049 -0.6643 -2.3262
13317SOL    HW246813  12.233   7.183   9.838 -0.6019 -0.2266 -1.1641
13318SOL     OW46814  12.399  11.088  12.114 -0.6707  0.1584 -0.3937
13318SOL    HW146815  12.422  11.083  12.021 -1.5425  1.5443 -0.7085
13318SOL    HW246816  12.306  11.111  12.115 -0.5331  0.7382  0.8141
13319SOL     OW46817  11.421   1.671  12.086  0.2273 -0.1773 -0.2139
13319SOL    HW146818  11.381   1.607  12.145  0.1380 -0.2181 -0.3180
13319SOL    HW246819  11.434   1.623  12.004 -2.4278  0.6663 -1.2318
13320SOL     OW46820  11.470  10.923   1.617 -0.2447  0.5844 -0.4776
13320SOL    HW146821  11.531  10.958   1.551  1.8128  0.2295  1.1244
13320SOL    HW246822  11.477  10.828   1.607  1.5886  0.4465  1.4147
13321SOL     OW46823   1.227   4.932   8.997  0.5211  0.2076  0.1045
13321SOL    HW146824   1.149   4.894   9.039  1.3825 -1.3812  0.3333
13321SOL    HW246825   1.287   4.858   8.989  1.0105  0.8272 -2.4699
13322SOL     OW46826  11.743   1.119   5.737 -0.4822 -0.3909  0.2241
13322SOL    HW146827  11.698   1.036   5.727  3.7917 -3.0028  0.3087
13322SOL    HW246828  11.734   1.141   5.830 -1.1207 -1.0456  0.3224
13323SOL     OW46829   8.603  11.701  11.352  0.9509 -0.0642  0.0580
13323SOL    HW146830   8.593  11.674  11.444 -1.1181 -0.7620 -0.3344
13323SOL    HW246831   8.530  11.760  11.336  2.1617  1.2814 -0.7549
13324SOL     OW46832   8.949  11.845  10.417 -0.4998 -0.7057 -0.9412
13324SOL    HW146833   8.883  11.776  10.424 -0.1841 -1.3599 -3.4696
13324SOL    HW246834   8.946  11.871  10.325 -0.0522  2.1503 -0.2220
13325SOL     OW46835  11.407   6.463   5.351 -0.0162 -0.1115  0.6825
13325SOL    HW146836  11.366   6.413   5.422  0.1730 -1.5002 -0.1361
13325SOL    HW246837  11.465   6.400   5.308 -0.3902  0.5865 -0.9205
13326SOL     OW46838   3.909   6.656   6.126  0.0336 -0.3724 -0.0048
13326SOL    HW146839   4.002   6.675   6.116  0.4961 -2.2582  0.2880
13326SOL    HW246840   3.872   6.675   6.040  0.3102  2.0612  0.3402
13327SOL     OW46841   5.450   0.366   6.317  0.6804 -0.1302 -0.0314
13327SOL    HW146842   5.475   0.389   6.407  0.6422 -0.5803  0.0951
13327SOL    HW246843   5.392   0.291   6.327 -1.6216  1.5308 -0.2459
13328SOL     OW46844   6.995   4.945  10.666 -0.2910  0.0607 -0.3599
13328SOL    HW146845   6.903   4.937  10.640 -0.9514  1.4933  1.3461
13328SOL    HW246846   7.015   4.862  10.708 -0.9193 -0.1186 -0.3983
13329SOL     OW46847   7.782  12.252   8.401  0.6505 -0.5588  0.2507
13329SOL    HW146848   7.832  12.333   8.411 -1.5107  1.0263 -0.7594
13329SOL    HW246849   7.786  12.233   8.307 -0.4307 -0.4967  0.1757
13330SOL     OW46850   0.026   8.798   7.070 -0.4547 -0.0893 -0.0463
13330SOL    HW146851   0.012   8.707   7.098 -1.3407  0.0913  0.1083
13330SOL    HW246852   0.077   8.837   7.141 -1.1343 -0.1356  0.4793
13331SOL     OW46853   3.534   1.564   1.210  0.0434  0.3822  0.0687
13331SOL    HW146854   3.457   1.516   1.240 -1.6200  2.2129 -1.0001
13331SOL    HW246855   3.531   1.647   1.258  0.6856  0.9427 -0.8082
13332SOL     OW46856   5.808   8.646   4.222 -0.4856 -0.5472  0.4127
13332SOL    HW146857   5.812   8.740   4.241 -1.5589 -0.4384  0.1678
13332SOL    HW246858   5.871   8.634   4.151 -3.4094  0.8558 -2.6982
13333SOL     OW46859   8.125   7.756  10.811 -0.4764 -0.2158 -0.4710
13333SOL    HW146860   8.145   7.824  10.746 -1.3129 -1.1316 -1.7274
13333SOL    HW246861   8.070   7.693  10.764 -1.0970 -0.9219  1.1325
13334SOL     OW46862   9.397   7.020   5.547 -0.0526  0.2504 -0.1474
13334SOL    HW146863   9.347   7.009   5.628 -1.5330  0.2511 -1.0170
13334SOL    HW246864   9.479   7.060   5.574 -0.6878  0.6252  1.3031
13335SOL     OW46865   0.886   0.767   1.847  0.0622 -0.3726  0.0961
13335SOL    HW146866   0.839   0.745   1.766 -0.6466  1.4057 -0.0303
13335SOL    HW246867   0.865   0.860   1.861  2.6796  0.1998  0.6300
13336SOL     OW46868   8.707   0.985   5.395 -0.0747 -0.2378  0.2957
13336SOL    HW146869   8.731   1.067   5.353 -1.5185  0.1845  0.2501
13336SOL    HW246870   8.791   0.941   5.412  0.7071  1.1817  0.2296
13337SOL     OW46871  11.212  11.171   2.862 -0.3244 -0.1097  0.3051
13337SOL    HW146872  11.178  11.258   2.837  0.6634  0.7804  1.8970
13337SOL    HW246873  11.200  11.167   2.956  2.7600 -0.2364  0.7977
13338SOL     OW46874   9.181   9.977   6.143 -0.8397 -0.7440  0.4910
13338SOL    HW146875   9.247   9.969   6.211 -1.7235  0.4653  1.5229
13338SOL    HW246876   9.168   9.888   6.111  1.8570 -0.9391 -0.3448
13339SOL     OW46877   5.578  10.241   4.826  0.2769  0.5207 -0.3718
13339SOL    HW146878   5.559  10.275   4.913 -1.4015  0.0368 -0.5150
13339SOL    HW246879   5.596  10.148   4.840 -1.6892  0.0490 -0.6856
13340SOL     OW46880  11.598   2.029   4.760 -0.5812 -0.0267  0.2030
13340SOL    HW146881  11.513   2.048   4.720  0.1661 -0.3280 -1.6265
13340SOL    HW246882  11.651   2.107   4.743 -0.1197 -0.3293  0.2308
13341SOL     OW46883   0.529   2.001   0.699  0.0037  0.0374 -0.3123
13341SOL    HW146884   0.496   1.933   0.759  0.4276 -0.1728 -0.3134
13341SOL    HW246885   0.460   2.067   0.698 -0.4691 -0.4466 -0.3964
13342SOL     OW46886   0.075   4.475   8.025  0.2762  1.1616  0.4280
13342SOL    HW146887   0.133   4.417   8.075 -0.4162  0.6175  0.6082
13342SOL    HW246888   0.133   4.517   7.961  0.6067 -0.6173 -0.5115
13343SOL     OW46889   8.319   7.285   2.735  0.3677  0.7064  0.0938
13343SOL    HW146890   8.229   7.272   2.705  0.6203  1.9697 -1.3298
13343SOL    HW246891   8.368   7.211   2.697 -0.2449 -0.7591  1.9886
13344SOL     OW46892   0.410   8.032   4.370  0.0965 -0.3691  0.0390
13344SOL    HW146893   0.491   8.032   4.320  0.3695 -2.0978  0.4335
13344SOL    HW246894   0.433   8.077   4.452  0.2536  0.4025 -0.4128
13345SOL     OW46895   6.810   3.391   3.686  0.0559 -0.1911 -0.3980
13345SOL    HW146896   6.723   3.431   3.686 -1.2955 -2.8701 -1.2128
13345SOL    HW246897   6.828   3.372   3.594  1.3992  0.0552 -0.2024
13346SOL     OW46898  11.542   6.506   4.069  0.4101  0.3530 -0.4183
13346SOL    HW146899  11.571   6.454   3.994  1.9111 -0.5958  0.7636
13346SOL    HW246900  11.623   6.535   4.111 -0.3826  0.4625  1.0980
13347SOL     OW46901  11.686   7.455   8.747  0.1883 -0.3426 -0.3677
13347SOL    HW146902  11.682   7.431   8.655 -0.6599 -0.6204 -0.2679
13347SOL    HW246903  11.659   7.376   8.794  1.6508 -0.5546  0.1883
13348SOL     OW46904   1.929   2.341   1.709 -0.0841  0.5929 -0.4385
13348SOL    HW146905   1.871   2.287   1.762  2.9489 -1.0771  1.5003
13348SOL    HW246906   1.948   2.417   1.765  0.1891  0.7380 -0.7289
13349SOL     OW46907  12.107   0.740   7.916 -0.5411  0.2434 -0.1326
13349SOL    HW146908  12.116   0.807   7.848 -1.8968 -0.5360 -1.1324
13349SOL    HW246909  12.188   0.746   7.967  0.6443  0.6974 -1.9719
13350SOL     OW46910   3.163   2.205   0.523  0.4188  0.4313 -0.1900
13350SOL    HW146911   3.197   2.115   0.521  1.2084  0.7180 -0.1032
13350SOL    HW246912   3.071   2.196   0.497 -0.0947 -0.6629  1.7510
13351SOL     OW46913   1.466   6.373   9.857  0.0002 -0.1192  0.3256
13351SOL    HW146914   1.468   6.467   9.839 -0.9776 -0.0412  0.5874
13351SOL    HW246915   1.387   6.342   9.812  0.1492 -0.7654  0.5033
13352SOL     OW46916  10.681   7.574  10.642  0.3441  0.5738  0.1229
13352SOL    HW146917  10.727   7.539  10.565  1.9511  2.2431  0.2414
13352SOL    HW246918  10.731   7.540  10.716 -0.9526 -0.6881  0.4551
13353SOL     OW46919   1.453   8.394   7.379  0.3882  0.1207  0.0761
13353SOL    HW146920   1.422   8.318   7.330 -0.7980 -0.0189  1.0200
13353SOL    HW246921   1.402   8.393   7.460  1.3646  1.1174  0.7229
13354SOL     OW46922  11.280   1.970   5.560 -0.1130 -0.4128 -0.0653
13354SOL    HW146923  11.375   1.957   5.561 -0.0737 -0.0882  0.4322
13354SOL    HW246924  11.269   2.060   5.530 -0.2076  0.0346  1.2627
13355SOL     OW46925   5.056   5.206   1.750 -0.3205  0.3738 -0.0608
13355SOL    HW146926   5.111   5.244   1.682  1.0628 -0.4807  0.5456
13355SOL    HW246927   4.999   5.278   1.778 -0.5803  0.8695 -1.7481
13356SOL     OW46928  11.598   4.122  12.141 -0.0695  0.4569 -0.2104
13356SOL    HW146929  11.634   4.158  12.221 -0.1896  1.2549 -0.5095
13356SOL    HW246930  11.672   4.117  12.081 -0.3508  1.7645 -0.7066
13357SOL     OW46931   4.066   7.112   7.980  0.5489 -0.0259 -0.1535
13357SOL    HW146932   4.029   7.104   8.068  0.8871  0.0280 -0.0005
13357SOL    HW246933   4.156   7.141   7.996  0.2304  1.2352 -0.5602
13358SOL     OW46934   1.485  11.193   7.626  0.2430 -0.1640  0.5333
13358SOL    HW146935   1.483  11.106   7.667 -3.7552 -0.6935 -0.3304
13358SOL    HW246936   1.482  11.254   7.699  1.4465 -0.7634  1.1178
13359SOL     OW46937   6.792   6.070   1.696 -0.0235  0.7350  0.4135
13359SOL    HW146938   6.809   6.054   1.603 -0.9007 -0.5914  0.4496
13359SOL    HW246939   6.846   6.005   1.741 -0.7324  0.3764  0.7563
13360SOL     OW46940   4.416   0.923   2.264 -0.4091  0.2691  0.0458
13360SOL    HW146941   4.435   1.015   2.285 -0.5039  0.2068  0.4007
13360SOL    HW246942   4.460   0.909   2.180 -1.5718  1.0512 -0.7311
13361SOL     OW46943   4.952   2.201  10.308 -0.2389  0.3134  0.0008
13361SOL    HW146944   5.010   2.275  10.290  0.8979 -0.2896  1.0537
13361SOL    HW246945   5.001   2.124  10.278 -0.6534 -0.1716  0.5495
13362SOL     OW46946  11.683   5.969   7.841  0.4921  0.2401 -0.2896
13362SOL    HW146947  11.774   5.983   7.864  0.6652 -1.6703  0.3382
13362SOL    HW246948  11.685   5.937   7.751  0.6572 -1.6096  0.3199
13363SOL     OW46949   7.279   3.477   5.767  0.9271 -0.4682  0.2659
13363SOL    HW146950   7.345   3.423   5.723  1.7301  1.0630 -0.5184
13363SOL    HW246951   7.329   3.553   5.799 -0.7563  2.0504 -2.5964
13364SOL     OW46952   8.501   9.915  11.473  0.3784  0.1906 -0.5310
13364SOL    HW146953   8.585   9.939  11.434  1.1811 -1.0859  0.3102
13364SOL    HW246954   8.524   9.888  11.562 -1.2278  1.8933  0.4625
13365SOL     OW46955   9.216  10.708   4.721 -0.5848  0.0204 -0.2376
13365SOL    HW146956   9.169  10.645   4.665  0.4296  1.3424 -2.7437
13365SOL    HW246957   9.306  10.705   4.689 -0.3211  2.0101  0.2331
13366SOL     OW46958   8.530   2.770   2.134 -0.6531 -0.4814  0.3623
13366SOL    HW146959   8.442   2.800   2.158 -0.3225  1.7039 -0.9485
13366SOL    HW246960   8.579   2.776   2.216 -1.4945 -0.8570  0.9115
13367SOL     OW46961   4.311   1.577   3.178 -0.2200 -0.0812 -0.0646
13367SOL    HW146962   4.315   1.494   3.226 -1.6550  0.2385  0.6606
13367SOL    HW246963   4.336   1.643   3.242 -0.4376  0.1841 -0.2548
13368SOL     OW46964   5.712  10.347   4.236  0.4856 -0.4716 -0.1288
13368SOL    HW146965   5.658  10.282   4.282 -1.5241 -0.1433 -1.8509
13368SOL    HW246966   5.695  10.330   4.143  1.0517  1.5927 -0.6531
13369SOL     OW46967   7.168   4.381   7.521 -0.0624 -0.1610 -0.6532
13369SOL    HW146968   7.212   4.301   7.549  0.2603  0.8043  1.8257
13369SOL    HW246969   7.220   4.452   7.559 -1.6859  1.1337 -0.7303
13370SOL     OW46970   9.439   8.091   2.451  0.0980 -0.1366  0.7046
13370SOL    HW146971   9.532   8.092   2.429 -0.0475 -0.1687  0.0749
13370SOL    HW246972   9.409   8.004   2.426  0.2350 -0.7268  2.4044
13371SOL     OW46973   3.220  11.019   0.642 -0.1766 -0.0175  0.2596
13371SOL    HW146974   3.301  10.969   0.630 -0.9941 -1.2578 -0.2244
13371SOL    HW246975   3.222  11.046   0.733  0.0027 -1.4419  0.7011
13372SOL     OW46976   5.192   9.791  10.606 -0.8862 -0.3088 -0.6867
13372SOL    HW146977   5.157   9.880  10.612 -1.1452 -0.3538 -1.4524
13372SOL    HW246978   5.145   9.743  10.674 -0.5720  0.1895 -0.1086
13373SOL     OW46979   5.568   7.210  11.127  0.2540 -0.7527  0.1668
13373SOL    HW146980   5.490   7.221  11.181 -0.5814  0.2321 -1.1602
13373SOL    HW246981   5.639   7.197  11.189 -0.8424 -0.8692  1.4410
13374SOL     OW46982   2.919   9.596   6.870 -0.2506  0.4313 -0.3357
13374SOL    HW146983   2.968   9.533   6.816  1.6449  1.4567  0.0883
13374SOL    HW246984   2.944   9.573   6.960 -1.6905  0.1037  0.0043
13375SOL     OW46985   7.963   7.410   8.866 -0.0156 -0.2457 -0.2883
13375SOL    HW146986   7.995   7.348   8.800  1.8437  1.1934 -0.7980
13375SOL    HW246987   7.871   7.423   8.844 -0.6219 -3.1262  0.1126
13376SOL     OW46988   9.214  11.997   1.015  0.1756 -0.0684 -0.0549
13376SOL    HW146989   9.168  12.041   0.943  0.7651 -0.3032 -0.5796
13376SOL    HW246990   9.238  12.068   1.074 -0.0615  0.1595 -0.2265
13377SOL     OW46991   1.101   3.290   2.512 -0.8005 -0.2477 -0.2560
13377SOL    HW146992   1.142   3.359   2.565  2.3362 -1.9666 -0.2086
13377SOL    HW246993   1.172   3.254   2.460 -1.5783 -5.0321  1.4674
13378SOL     OW46994  11.191   7.713   0.875 -0.0114  0.0558 -0.1282
13378SOL    HW146995  11.195   7.659   0.797 -1.2351  1.2512 -1.0629
13378SOL    HW246996  11.230   7.796   0.849  0.9072  0.0083  0.9825
13379SOL     OW46997   6.676   6.990   3.455 -0.7227  0.3150 -0.1620
13379SOL    HW146998   6.700   7.068   3.404 -0.1853  0.4691  0.3198
13379SOL    HW246999   6.707   6.917   3.402  0.1878  0.4888  0.1166
13380SOL     OW47000   9.758   4.577   3.454  0.1273 -0.1343 -0.5481
13380SOL    HW147001   9.752   4.560   3.548 -0.0821 -0.1357 -0.5614
13380SOL    HW247002   9.824   4.645   3.446 -1.3785  1.4199 -0.2201
13381SOL     OW47003   5.777   3.326   1.801  0.5085 -0.2346  0.1169
13381SOL    HW147004   5.828   3.399   1.767 -0.5310  0.2571 -0.4166
13381SOL    HW247005   5.741   3.283   1.723  2.1019 -2.1144  0.3090
13382SOL     OW47006   3.038  12.206   9.812  0.0547  0.7350  0.1162
13382SOL    HW147007   2.981  12.146   9.861  0.9738 -0.1360  0.1318
13382SOL    HW247008   3.094  12.245   9.878  1.2622 -0.4028 -0.2030
13383SOL     OW47009   1.955   2.848  11.471 -0.0702  0.3932  0.0575
13383SOL    HW147010   2.014   2.906  11.518 -1.4615  0.5474  1.6672
13383SOL    HW247011   1.936   2.777  11.532  0.6654 -1.2012 -1.4495
13384SOL     OW47012   6.853  11.020   9.842  0.2859  0.4343  0.1644
13384SOL    HW147013   6.898  10.938   9.862 -0.7485 -0.2486 -0.2376
13384SOL    HW247014   6.822  11.009   9.752  0.6138  1.4957 -0.0928
13385SOL     OW47015   6.479   9.096   8.312  0.1830 -0.4283  0.6583
13385SOL    HW147016   6.453   9.079   8.221  0.6512 -0.6536  0.5652
13385SOL    HW247017   6.492   9.191   8.316 -0.4735 -0.3342  0.6621
13386SOL     OW47018   0.156  11.366   1.378  0.0848  0.5028 -0.2138
13386SOL    HW147019   0.105  11.442   1.408  0.0359  0.3022  0.2160
13386SOL    HW247020   0.095  11.292   1.385  0.6571  0.1216  1.0548
13387SOL     OW47021   0.203   6.450   3.403 -0.6442  0.4278 -0.2451
13387SOL    HW147022   0.155   6.508   3.462  0.8957  0.3922  1.0896
13387SOL    HW247023   0.293   6.450   3.436 -0.1487 -1.0762 -1.4692
13388SOL     OW47024   6.497   8.917   1.529  0.0869 -0.2996 -0.1975
13388SOL    HW147025   6.419   8.937   1.581 -1.3889 -2.4599 -1.4277
13388SOL    HW247026   6.569   8.958   1.577 -1.7753  1.8345  0.9642
13389SOL     OW47027   9.826   3.849  10.596 -0.4634  0.0112 -0.3535
13389SOL    HW147028   9.904   3.810  10.635 -0.8577 -1.1214 -0.6640
13389SOL    HW247029   9.758   3.837  10.661 -0.3628  1.1805  0.0024
13390SOL     OW47030   2.311   2.339   0.417 -0.0141  0.3012 -0.0048
13390SOL    HW147031   2.317   2.292   0.500 -2.9178  0.5490  0.4252
13390SOL    HW247032   2.322   2.271   0.351  0.9343 -0.1197  0.5634
13391SOL     OW47033   4.392  11.755   1.401  0.0074 -0.0803  0.1809
13391SOL    HW147034   4.342  11.834   1.382  0.9046  0.1948 -1.2320
13391SOL    HW247035   4.340  11.684   1.363  0.6195  0.1972 -1.2322
13392SOL     OW47036   4.206   9.439   6.549 -0.6209  0.0395  0.2468
13392SOL    HW147037   4.203   9.534   6.561  0.7298 -0.0046  1.1164
13392SOL    HW247038   4.298   9.420   6.530 -0.4296 -1.3033  2.2053
13393SOL     OW47039   9.712   9.457   8.918 -0.0722 -0.0287 -0.2115
13393SOL    HW147040   9.635   9.400   8.927  0.2639 -0.7390 -1.5606
13393SOL    HW247041   9.755   9.426   8.838  1.2094  0.8525  0.1161
13394SOL     OW47042  10.882   5.422   3.182  0.2217  0.3830  0.0548
13394SOL    HW147043  10.866   5.463   3.097  0.1528 -0.8233 -0.5400
13394SOL    HW247044  10.963   5.372   3.170  0.5098  0.6483  0.8674
13395SOL     OW47045  11.117  10.597  10.577 -0.4515  0.3569  0.2204
13395SOL    HW147046  11.135  10.539  10.502  0.2902  0.4256  0.3395
13395SOL    HW247047  11.030  10.571  10.607  0.6743 -2.2016  1.5990
13396SOL     OW47048  12.034   3.418   1.380  0.0278  0.0356  0.3941
13396SOL    HW147049  12.110   3.417   1.322 -0.3625  1.7159 -0.1913
13396SOL    HW247050  12.067   3.387   1.464  1.2424  0.2714  0.0160
13397SOL     OW47051   6.936   9.678   3.476 -0.6152 -0.6155  0.3215
13397SOL    HW147052   6.908   9.749   3.534 -0.6168 -0.6125  0.3173
13397SOL    HW247053   6.857   9.655   3.426  0.0176  1.2593 -1.6796
13398SOL     OW47054  10.871   0.127   6.574  0.6948 -0.3522 -0.3696
13398SOL    HW147055  10.863   0.174   6.657 -1.5241 -0.1295 -0.6391
13398SOL    HW247056  10.847   0.037   6.594  0.6510 -0.4079 -0.6614
13399SOL     OW47057   9.232   1.590   5.246 -0.3699  0.0324  0.1603
13399SOL    HW147058   9.303   1.536   5.212  0.3603  1.2617 -0.3703
13399SOL    HW247059   9.197   1.635   5.168  0.8894  2.3853  0.8509
13400SOL     OW47060   7.890   2.010   3.355  0.0969  0.1066  0.3933
13400SOL    HW147061   7.953   1.946   3.322  2.0961  1.1213  2.0029
13400SOL    HW247062   7.822   1.958   3.397  0.4539 -0.9934 -0.3367
13401SOL     OW47063   3.860   9.626   1.412  0.5117  0.3080  0.1813
13401SOL    HW147064   3.874   9.555   1.350  0.7968 -1.3372  2.0608
13401SOL    HW247065   3.912   9.699   1.377  1.3024 -0.8159 -1.0760
13402SOL     OW47066   4.338   9.306   7.632 -0.0594 -0.4281 -0.3532
13402SOL    HW147067   4.373   9.218   7.619  3.0165  0.4064  1.4482
13402SOL    HW247068   4.400   9.363   7.587 -0.5178  0.9792  0.7278
13403SOL     OW47069   2.018   1.656  10.005  0.4159  0.4807  0.3758
13403SOL    HW147070   1.986   1.670  10.094 -0.8055 -1.3386  0.2804
13403SOL    HW247071   1.939   1.631   9.956  1.4465 -0.7963 -0.6811
13404SOL     OW47072   0.375  12.403   3.820  0.1582 -0.0545  0.5480
13404SOL    HW147073   0.466  12.373   3.825  0.7748  1.2160 -1.6028
13404SOL    HW247074   0.381  12.498   3.807 -1.2280 -0.2893 -3.1077
13405SOL     OW47075  10.731   8.866   1.895 -0.3659 -0.5824 -0.2247
13405SOL    HW147076  10.750   8.787   1.844 -0.0567 -0.4659 -0.2945
13405SOL    HW247077  10.722   8.835   1.985 -0.0239 -0.6697 -0.2186
13406SOL     OW47078   4.840   0.109  11.378  0.9004  0.3477  0.4495
13406SOL    HW147079   4.882   0.142  11.299  1.4484 -0.8316  0.2264
13406SOL    HW247080   4.756   0.156  11.382  1.0685  0.7569 -0.5712
13407SOL     OW47081  11.524   9.446  11.919 -0.2179  0.2109  0.2968
13407SOL    HW147082  11.452   9.483  11.868  1.2484  0.9230 -1.3806
13407SOL    HW247083  11.578   9.522  11.942  0.8612 -0.4613  0.0648
13408SOL     OW47084   1.420   0.611   1.959 -0.4036  0.3379  0.0360
13408SOL    HW147085   1.473   0.676   1.913  0.0405 -0.8705 -1.2494
13408SOL    HW247086   1.329   0.637   1.941 -0.2398 -0.0215 -1.4751
13409SOL     OW47087   0.225   1.895   9.099 -0.1921 -0.0697 -0.4663
13409SOL    HW147088   0.246   1.869   9.009 -0.4103 -0.8889 -0.2917
13409SOL    HW247089   0.235   1.814   9.149 -2.5728 -0.2390 -0.1664
13410SOL     OW47090   3.810  10.015   1.488 -0.7958 -0.3929 -0.0803
13410SOL    HW147091   3.734  10.072   1.473  0.3600  1.2221  0.0093
13410SOL    HW247092   3.790   9.971   1.571 -0.1486  2.7029  1.8798
13411SOL     OW47093   3.949  11.999   3.004 -0.1020 -0.3686 -0.2031
13411SOL    HW147094   3.872  11.943   3.000 -0.3978 -0.1241  1.3463
13411SOL    HW247095   4.023  11.940   2.988 -0.3894 -1.2692  1.5658
13412SOL     OW47096   4.887  11.773   8.082  0.4351  0.0148 -0.0325
13412SOL    HW147097   4.882  11.808   7.993 -1.4502  1.2833  0.5069
13412SOL    HW247098   4.955  11.706   8.078  1.1639  0.8027 -2.1514
13413SOL     OW47099   0.077   1.226   9.435 -0.0095  0.1533 -0.3403
13413SOL    HW147100   0.027   1.156   9.394 -0.7879  0.4397  0.1004
13413SOL    HW247101   0.120   1.184   9.509 -2.2078  0.5422  1.2491
13414SOL     OW47102   2.366   3.093   4.384 -0.4301  0.2337 -0.5057
13414SOL    HW147103   2.456   3.067   4.361 -0.5038 -2.1582  1.4462
13414SOL    HW247104   2.314   3.066   4.309  0.0201 -2.1931 -0.0341
13415SOL     OW47105   9.396  10.252   8.578  0.2442 -0.3463 -0.7927
13415SOL    HW147106   9.353  10.248   8.663  0.5550 -0.2089 -0.6291
13415SOL    HW247107   9.325  10.273   8.517  0.0059 -0.5320 -0.5813
13416SOL     OW47108   4.513   6.841   1.546  0.4000  0.2418  0.5586
13416SOL    HW147109   4.477   6.754   1.530 -3.1735  1.8120 -0.7430
13416SOL    HW247110   4.538   6.839   1.639 -0.1971 -1.9178  0.7339
13417SOL     OW47111   1.945   5.311   5.968 -0.3711 -0.2377  0.3771
13417SOL    HW147112   1.886   5.243   5.935 -3.3092  1.8964  0.9031
13417SOL    HW247113   2.016   5.263   6.011 -0.5480 -2.9640 -2.0896
13418SOL     OW47114   7.994  11.201   0.009 -0.5113  0.3098  0.5203
13418SOL    HW147115   8.045  11.132   0.053  0.6637  0.4475 -0.5712
13418SOL    HW247116   8.060  11.258  -0.030 -1.4858 -0.0042 -1.7504
13419SOL     OW47117   9.498   6.254   4.542  0.4836  0.0840  0.3505
13419SOL    HW147118   9.580   6.289   4.574 -0.5817  2.4148  0.7154
13419SOL    HW247119   9.509   6.250   4.446  0.9080  0.6536  0.3732
13420SOL     OW47120   5.045   4.966   5.884 -0.4779  0.2799  0.0991
13420SOL    HW147121   5.090   4.943   5.965 -0.3149 -0.4814 -0.1950
13420SOL    HW247122   5.116   4.992   5.824 -0.6109  0.9968  0.2420
13421SOL     OW47123   2.187   5.026   3.520 -0.1269 -0.6702  0.0857
13421SOL    HW147124   2.223   4.977   3.594  0.5820 -2.1728 -1.1889
13421SOL    HW247125   2.214   4.976   3.443 -3.1410 -0.7103 -1.0921
13422SOL     OW47126  11.007  10.132   9.945  0.0491  0.1551  0.0407
13422SOL    HW147127  11.097  10.100   9.940 -0.3049 -0.6933 -2.5147
13422SOL    HW247128  11.015  10.227   9.933  0.6174  0.0474 -0.5126
13423SOL     OW47129   0.239  10.853   4.942  1.0094  0.4370  0.2163
13423SOL    HW147130   0.306  10.828   4.877  1.1464  2.4261 -0.4820
13423SOL    HW247131   0.184  10.917   4.896  0.6241  1.3072  1.8140
13424SOL     OW47132   3.861   1.469  10.998  0.3388 -0.3664  0.2328
13424SOL    HW147133   3.851   1.551  11.046 -0.0503 -1.8443  2.8718
13424SOL    HW247134   3.943   1.432  11.031  0.7862 -0.8422 -1.3113
13425SOL     OW47135   2.524  10.857   9.287 -0.5421  0.4420 -0.0612
13425SOL    HW147136   2.545  10.851   9.380 -1.4171  0.2393  0.1345
13425SOL    HW247137   2.457  10.790   9.273 -0.7491  0.7784 -0.7319
13426SOL     OW47138   3.368  11.716   1.860 -0.3107  0.2473  0.0286
13426SOL    HW147139   3.424  11.755   1.928 -1.5143 -0.6565  1.5882
13426SOL    HW247140   3.281  11.750   1.879 -0.8888 -1.0424 -0.2760
13427SOL     OW47141   2.760   6.779   3.862 -0.2875 -0.6024  0.0905
13427SOL    HW147142   2.738   6.867   3.831 -2.1281 -0.9787  0.2248
13427SOL    HW247143   2.819   6.744   3.795  1.5818  1.1749  0.6955
13428SOL     OW47144   0.855  10.941   6.943  0.3737  0.7059 -0.8191
13428SOL    HW147145   0.834  10.897   6.861  0.3823 -0.3457 -0.2870
13428SOL    HW247146   0.897  11.023   6.917 -1.6081  1.4311 -1.8697
13429SOL     OW47147  12.274  12.112   2.318  0.0840 -0.1553  0.0758
13429SOL    HW147148  12.241  12.192   2.279 -1.9997 -0.7890  0.4228
13429SOL    HW247149  12.364  12.105   2.286  0.6945  2.7976  0.8308
13430SOL     OW47150  10.780  11.651   1.750  0.2488  0.3493  0.9145
13430SOL    HW147151  10.716  11.722   1.758  0.6034  0.7645  0.1295
13430SOL    HW247152  10.765  11.615   1.662  0.7272  0.0912  0.9384
13431SOL     OW47153   7.607  11.591   5.739  0.1281 -0.4331  0.5275
13431SOL    HW147154   7.557  11.672   5.734 -0.5847 -0.8553  0.6440
13431SOL    HW247155   7.695  11.615   5.709 -0.2386  0.2433 -0.0341
13432SOL     OW47156   8.529   0.465   5.231 -0.0596 -0.0020  0.0498
13432SOL    HW147157   8.460   0.528   5.210  0.3477  0.6461  0.5940
13432SOL    HW247158   8.487   0.380   5.223 -0.2363  0.2343 -2.1970
13433SOL     OW47159   2.911  11.269   6.366 -0.5425 -0.1070 -0.0433
13433SOL    HW147160   2.855  11.197   6.392  0.7743 -1.5408 -1.0118
13433SOL    HW247161   2.990  11.227   6.331  0.1825  1.7925 -0.8304
13434SOL     OW47162   1.604   6.072  12.088  0.5288  0.0661  0.2250
13434SOL    HW147163   1.595   6.006  12.156 -2.4131 -1.4485 -1.4524
13434SOL    HW247164   1.698   6.080  12.074  1.0588 -1.9297  2.1879
13435SOL     OW47165   4.045   2.987  11.409 -0.1181  0.0483  0.0508
13435SOL    HW147166   3.963   3.026  11.438 -0.1802 -0.1456  0.1387
13435SOL    HW247167   4.112   3.028  11.463 -0.1680  0.1302  0.0504
13436SOL     OW47168  12.342   7.698  11.660 -0.4631  0.3671  0.0115
13436SOL    HW147169  12.302   7.679  11.745 -1.3033 -0.5285 -0.5818
13436SOL    HW247170  12.365   7.791  11.666 -0.5271  0.3282  1.2086
13437SOL     OW47171   5.876   1.310   3.509 -0.3825 -0.0170  0.1944
13437SOL    HW147172   5.868   1.401   3.539 -1.5527  0.5533 -1.7044
13437SOL    HW247173   5.902   1.318   3.418  1.9478 -1.6706  0.6287
13438SOL     OW47174   1.067   6.601   9.044 -0.2310  0.1592  0.4094
13438SOL    HW147175   1.004   6.564   8.982  0.3480 -0.5120  0.2184
13438SOL    HW247176   1.103   6.526   9.089 -1.2057  0.6757  2.1379
13439SOL     OW47177   7.629   2.358   9.815 -0.2921  0.3260  0.5835
13439SOL    HW147178   7.686   2.434   9.820  0.3504 -0.1620  0.9431
13439SOL    HW247179   7.564   2.379   9.748 -0.6256  1.5149  1.2553
13440SOL     OW47180   5.188   9.365   8.145 -0.5682  0.3267  0.1677
13440SOL    HW147181   5.175   9.400   8.232 -0.5257 -0.3414  0.4503
13440SOL    HW247182   5.119   9.405   8.092 -0.6837  0.6198  0.5393
13441SOL     OW47183   8.165  10.075  11.000  0.0575  0.0733  0.4060
13441SOL    HW147184   8.099  10.103  10.937  0.6208  1.2872  0.3201
13441SOL    HW247185   8.246  10.115  10.969  1.1299 -2.3488 -0.1668
13442SOL     OW47186   5.284  11.476  11.386 -0.5764  0.2689  0.4690
13442SOL    HW147187   5.256  11.386  11.369 -0.4055  0.1624  0.7353
13442SOL    HW247188   5.259  11.524  11.307 -1.6649  0.2163  0.7578
13443SOL     OW47189   8.972   4.351   5.778 -0.0912 -0.0364 -0.0031
13443SOL    HW147190   8.941   4.269   5.815  2.5565 -0.6202  1.1363
13443SOL    HW247191   9.050   4.373   5.829  0.5850  2.0083 -1.7479
13444SOL     OW47192   5.043  11.247   1.164 -0.3930  0.0745 -0.2087
13444SOL    HW147193   4.985  11.320   1.142 -0.1167  1.0113  1.9153
13444SOL    HW247194   4.986  11.184   1.209 -0.2931 -0.2144 -0.4897
13445SOL     OW47195  10.666   8.032   7.691 -0.4863 -0.6424 -0.1401
13445SOL    HW147196  10.637   8.064   7.776 -0.0477 -1.3111  0.2789
13445SOL    HW247197  10.750   7.989   7.709 -0.2744 -0.5917 -0.9516
13446SOL     OW47198   6.963  10.147   1.059  0.1724 -0.4455  0.1835
13446SOL    HW147199   7.009  10.077   1.107  0.7742 -1.0145 -1.1505
13446SOL    HW247200   7.017  10.161   0.981 -0.4693  0.8441 -0.0523
13447SOL     OW47201   8.971   5.682   3.253 -0.1286 -0.0407  0.6746
13447SOL    HW147202   8.896   5.643   3.209  0.5758 -0.3462 -0.2996
13447SOL    HW247203   9.008   5.611   3.305  0.0552 -0.1636  0.3789
13448SOL     OW47204   6.569   8.314   8.021 -0.3221  0.5574 -0.3879
13448SOL    HW147205   6.549   8.290   7.930  0.7512  0.8630 -0.7155
13448SOL    HW247206   6.527   8.399   8.033  0.1363  0.8494 -0.8276
13449SOL     OW47207  12.067   8.355   2.268  0.2690  0.5633 -0.4176
13449SOL    HW147208  12.094   8.412   2.195  1.6358  0.6918  0.1643
13449SOL    HW247209  12.080   8.409   2.346 -0.8482  0.3006 -0.0248
13450SOL     OW47210   2.476   9.083   4.371 -0.0879  0.1265  0.2853
13450SOL    HW147211   2.453   9.119   4.286  1.8926  0.0562 -0.3434
13450SOL    HW247212   2.566   9.113   4.386 -0.1772 -0.3908  2.0611
13451SOL     OW47213   9.005  11.160   9.835  0.4865  0.4002  0.2931
13451SOL    HW147214   9.061  11.124   9.766  0.0333  0.0284  0.1152
13451SOL    HW247215   8.932  11.201   9.788  0.6354  0.9444  0.5213
13452SOL     OW47216   2.696   3.477  12.450  0.0773  0.3781  0.4903
13452SOL    HW147217   2.615   3.465  12.500 -0.0457  0.1553  0.2439
13452SOL    HW247218   2.701   3.399  12.394  0.0678  0.7481 -0.0363
13453SOL     OW47219   9.875   8.604   6.113  0.1736 -0.0242  0.2223
13453SOL    HW147220   9.934   8.657   6.167  0.8372 -1.3151  0.8145
13453SOL    HW247221   9.928   8.577   6.038 -0.5815  1.2943 -0.8385
13454SOL     OW47222   1.621  10.376   2.131  0.0537 -1.1160 -0.1269
13454SOL    HW147223   1.670  10.324   2.195  1.0326  1.8934  1.7991
13454SOL    HW247224   1.689  10.419   2.079 -0.5511  0.6124  0.4440
13455SOL     OW47225   7.984   9.178   1.284 -0.2776  0.0779 -0.4355
13455SOL    HW147226   7.949   9.259   1.246  2.0600  0.4704 -1.9760
13455SOL    HW247227   7.981   9.115   1.211  1.9185  0.0910 -0.5979
13456SOL     OW47228   7.200   2.798   7.966 -0.2111 -0.2546 -0.2058
13456SOL    HW147229   7.235   2.709   7.967 -0.5255 -0.3830 -0.4911
13456SOL    HW247230   7.219   2.831   7.878  0.7117  0.2877  0.1852
13457SOL     OW47231   7.564   6.279   9.004 -0.2148 -0.2518  0.9982
13457SOL    HW147232   7.543   6.243   9.091 -0.2174  1.6459  1.8321
13457SOL    HW247233   7.556   6.374   9.015 -1.4723 -0.0002 -1.4343
13458SOL     OW47234   7.360   4.689   5.467 -0.0076 -0.9810 -0.5132
13458SOL    HW147235   7.283   4.704   5.522  1.0500 -0.4922  0.8853
13458SOL    HW247236   7.345   4.745   5.390 -0.2905  0.4478  0.5246
13459SOL     OW47237   9.001   4.941  12.468  0.0668 -0.1041  0.2847
13459SOL    HW147238   9.082   4.983  12.497 -0.7317  0.2646  2.0784
13459SOL    HW247239   9.016   4.848  12.483 -0.2144  0.0555  1.6259
13460SOL     OW47240   8.670   7.877   2.508 -0.4811 -0.2094  0.9609
13460SOL    HW147241   8.697   7.796   2.464 -0.1016  0.9382 -1.0186
13460SOL    HW247242   8.574   7.875   2.504 -0.4780  0.7882 -1.8477
13461SOL     OW47243  12.323   5.158   8.660 -0.8854 -0.1665  0.3865
13461SOL    HW147244  12.359   5.071   8.675 -1.9797 -0.6927  0.0807
13461SOL    HW247245  12.383   5.199   8.598  0.3142 -0.2215  1.4544
13462SOL     OW47246   2.547  10.012   8.078  0.1272 -0.3283  0.5281
13462SOL    HW147247   2.505  10.006   7.992 -0.3711 -0.2733  0.7685
13462SOL    HW247248   2.479  10.046   8.136  0.7475  0.6204  0.7329
13463SOL     OW47249  11.843   9.053   7.240  0.0703  0.0372 -0.0795
13463SOL    HW147250  11.877   8.973   7.282 -0.2300 -0.6955 -1.1794
13463SOL    HW247251  11.920   9.092   7.198  0.1074 -0.0203 -0.0658
13464SOL     OW47252   5.738   9.484   3.557  0.6308 -0.0907  0.4971
13464SOL    HW147253   5.664   9.431   3.589  0.6220  0.7112  1.8719
13464SOL    HW247254   5.768   9.532   3.634  0.1614  2.4843 -0.7993
13465SOL     OW47255   1.728  11.832  10.584 -0.8097  0.3370 -0.2634
13465SOL    HW147256   1.734  11.853  10.491 -0.3330 -1.8190 -0.7776
13465SOL    HW247257   1.801  11.878  10.625  1.2890 -1.6262 -1.6050
13466SOL     OW47258   7.246  10.945   0.381 -0.1243 -0.0851 -0.3109
13466SOL    HW147259   7.226  10.876   0.317 -0.4307  0.4565 -0.8154
13466SOL    HW247260   7.197  10.921   0.459 -0.4827 -0.2755 -0.5926
13467SOL     OW47261  12.370   4.028  10.473 -0.6552  0.6911 -0.4429
13467SOL    HW147262  12.329   3.944  10.452 -0.7591  0.9718 -1.4259
13467SOL    HW247263  12.370   4.032  10.569 -1.3039 -0.1095 -0.3996
13468SOL     OW47264   4.483   8.483   2.040  0.2549 -0.0850  0.2149
13468SOL    HW147265   4.531   8.559   2.008 -1.6714  0.9972 -0.2877
13468SOL    HW247266   4.485   8.491   2.136  2.4657 -1.0295  0.3102
13469SOL     OW47267  12.373   0.926   6.096 -0.1227 -0.1748  0.9650
13469SOL    HW147268  12.418   0.886   6.170  3.2603  0.7942 -0.4038
13469SOL    HW247269  12.386   0.864   6.024  0.2089  0.7516  0.2167
13470SOL     OW47270   6.609   7.275   6.171  0.2511 -0.1504 -0.0124
13470SOL    HW147271   6.600   7.320   6.256  0.6936 -0.1673  0.0473
13470SOL    HW247272   6.547   7.320   6.114  1.1224  0.9758 -0.1277
13471SOL     OW47273   1.177   4.746  10.778 -0.0348 -0.5791  0.2150
13471SOL    HW147274   1.128   4.786  10.849 -0.4817 -0.0755 -0.3702
13471SOL    HW247275   1.164   4.652  10.790 -0.0035 -0.5060  0.8642
13472SOL     OW47276  10.605  10.176   0.790  0.1099  0.1647  0.8547
13472SOL    HW147277  10.673  10.112   0.812  0.0084  0.4210  1.9848
13472SOL    HW247278  10.605  10.237   0.863 -2.3437 -0.6730  1.6575
13473SOL     OW47279   5.054   6.663  10.958 -0.5307  0.2630  0.3325
13473SOL    HW147280   5.014   6.590  10.909 -0.6300  0.5076  0.0460
13473SOL    HW247281   5.022   6.741  10.914  0.3916  0.4650  0.0024
13474SOL     OW47282   6.231   4.030   2.086  0.4036 -0.5560 -0.5412
13474SOL    HW147283   6.232   3.935   2.090 -0.9320 -0.5347  0.7609
13474SOL    HW247284   6.323   4.054   2.073  1.3206 -1.9030  2.5760
13475SOL     OW47285   9.815   0.204  10.475 -0.5539 -0.4834 -0.2093
13475SOL    HW147286   9.825   0.298  10.490 -1.7940 -0.1936 -1.0242
13475SOL    HW247287   9.803   0.196  10.380 -0.1774 -1.4957 -0.1835
13476SOL     OW47288   0.881   3.338   1.471 -0.4549 -0.4627 -0.2789
13476SOL    HW147289   0.839   3.268   1.420  1.4522 -2.5303  0.8375
13476SOL    HW247290   0.850   3.325   1.560  0.7437 -0.6170  0.1385
13477SOL     OW47291   0.637  10.962   9.137 -0.0371  0.0896 -0.5411
13477SOL    HW147292   0.664  10.882   9.182 -1.9576 -0.2821  0.0592
13477SOL    HW247293   0.629  10.937   9.045  0.1586 -0.1905 -0.4830
13478SOL     OW47294   9.175   2.731   2.094  1.1758 -0.0370  0.0909
13478SOL    HW147295   9.139   2.657   2.144  0.7703 -0.4397 -0.7729
13478SOL    HW247296   9.189   2.696   2.006 -0.0028  1.1636 -0.6231
13479SOL     OW47297   6.908  10.674   0.796  0.4794  0.2767  0.0273
13479SOL    HW147298   6.814  10.682   0.785  0.6447  1.2742 -0.7747
13479SOL    HW247299   6.928  10.586   0.764 -0.2273 -0.1055  0.6127
13480SOL     OW47300   2.328   2.355   3.692  0.2549  0.7063  0.2374
13480SOL    HW147301   2.336   2.445   3.660  2.6137  0.6080  0.3712
13480SOL    HW247302   2.297   2.364   3.782 -0.0692  1.3521  0.0649
13481SOL     OW47303   5.074   8.216   1.633 -0.0072 -0.0997  0.3858
13481SOL    HW147304   5.118   8.264   1.703  0.4817  0.1617 -0.0917
13481SOL    HW247305   4.992   8.186   1.672  0.5187 -0.4542  1.2444
13482SOL     OW47306   8.777   9.400   3.106 -0.4695 -0.3267  0.3579
13482SOL    HW147307   8.725   9.325   3.132 -0.1221 -0.0517  1.9390
13482SOL    HW247308   8.843   9.409   3.174  1.1967 -0.1962 -1.1838
13483SOL     OW47309  11.835  10.982   9.602  0.1495  0.0242 -0.0539
13483SOL    HW147310  11.797  10.895   9.619 -0.1986 -0.3473 -2.4348
13483SOL    HW247311  11.917  10.964   9.556  0.4555  0.9527  0.1106
13484SOL     OW47312   5.398   7.743   5.682  0.1812  0.0613 -0.0520
13484SOL    HW147313   5.354   7.793   5.613  1.2900 -0.2755 -1.0432
13484SOL    HW247314   5.483   7.720   5.644  0.7030 -0.3927  1.3297
13485SOL     OW47315   9.285   4.691  10.206  0.0514 -0.1950  0.5824
13485SOL    HW147316   9.320   4.754  10.268  1.3062  1.9387 -2.0687
13485SOL    HW247317   9.236   4.743  10.142 -1.2212 -2.2396 -0.2487
13486SOL     OW47318   7.595  11.063   2.412  0.5570 -0.2624  0.6545
13486SOL    HW147319   7.671  11.035   2.360  0.2639 -0.0738  0.1118
13486SOL    HW247320   7.541  10.984   2.420  0.6875 -0.3347  0.8241
13487SOL     OW47321  11.594   8.224  10.716 -0.5419  0.4597 -0.6245
13487SOL    HW147322  11.683   8.241  10.746 -1.3080 -0.1160  2.2950
13487SOL    HW247323  11.605   8.180  10.632  1.8395  1.8101 -1.1021
13488SOL     OW47324   7.977   0.529   4.361  0.0552  0.2279  0.0346
13488SOL    HW147325   8.012   0.442   4.343 -0.1867  0.0758  0.3034
13488SOL    HW247326   7.883   0.516   4.368  0.1218  0.2945  1.3105
13489SOL     OW47327   3.644   7.665   0.491  0.2914  0.5438 -0.0116
13489SOL    HW147328   3.557   7.687   0.525 -0.8880 -0.7286 -2.0290
13489SOL    HW247329   3.681   7.605   0.556 -2.1627 -2.3513 -1.0436
13490SOL     OW47330   1.291   3.033   1.822 -0.1360 -0.2351  0.1901
13490SOL    HW147331   1.226   2.969   1.848 -2.4991  2.1487  0.5378
13490SOL    HW247332   1.355   2.983   1.771 -2.0777 -2.7307  0.0292
13491SOL     OW47333   1.575   8.823   2.968  0.0437  0.2831  0.0323
13491SOL    HW147334   1.631   8.775   2.907  1.1348  1.0940  0.3658
13491SOL    HW247335   1.530   8.755   3.018  1.3751 -0.3902  0.3335
13492SOL     OW47336   0.900   6.889   0.716  0.1125 -0.5609 -0.6112
13492SOL    HW147337   0.961   6.821   0.687  0.9331 -0.0050 -0.2105
13492SOL    HW247338   0.953   6.969   0.719 -0.2879 -0.3260  1.0714
13493SOL     OW47339   9.717   8.932  11.369 -0.8767 -0.2835 -0.9753
13493SOL    HW147340   9.804   8.944  11.330  0.6668 -0.7530  2.0265
13493SOL    HW247341   9.669   9.011  11.344  2.0212  2.3664  1.0176
13494SOL     OW47342   5.493   0.967   1.226 -0.3764 -0.4314 -0.3285
13494SOL    HW147343   5.446   1.042   1.262  1.3075  0.1800  0.7259
13494SOL    HW247344   5.457   0.891   1.273  0.5128  0.1646  1.4230
13495SOL     OW47345   2.048   7.462   3.607 -0.1993 -0.0842  0.6422
13495SOL    HW147346   1.986   7.495   3.673  0.8145 -0.0694  1.6191
13495SOL    HW247347   2.114   7.530   3.600 -1.9142  1.4685 -2.8501
13496SOL     OW47348   5.578   7.083   6.032  0.5432 -0.3342 -0.2651
13496SOL    HW147349   5.604   7.055   6.120  1.1717 -0.0324 -0.3470
13496SOL    HW247350   5.553   7.175   6.042  2.6319  0.3334 -0.7574
13497SOL     OW47351  10.817   9.757   2.289  0.3802  0.0793  0.0540
13497SOL    HW147352  10.744   9.713   2.332 -0.3830  1.0844 -0.1683
13497SOL    HW247353  10.854   9.691   2.232 -0.5380 -0.3779 -0.0390
13498SOL     OW47354   1.496  11.436   1.836 -0.1928  0.3674  0.0617
13498SOL    HW147355   1.481  11.440   1.741  1.7008 -3.6780 -0.6364
13498SOL    HW247356   1.520  11.525   1.860 -0.9745  1.6143 -3.1835
13499SOL     OW47357  10.843   3.614  10.999  0.4169  0.3141 -0.0449
13499SOL    HW147358  10.765   3.670  10.996 -0.2952 -0.5848  0.8845
13499SOL    HW247359  10.915   3.674  11.019 -0.3372  0.9127  0.9957
13500SOL     OW47360  10.649   0.989   3.965 -0.2120  0.6091 -0.3737
13500SOL    HW147361  10.598   1.001   4.045  1.4035  0.3635  0.7235
13500SOL    HW247362  10.613   0.910   3.925 -1.2213  0.8967 -0.0573
13501SOL     OW47363   8.244   1.931   1.403  0.2363 -0.0088 -0.0075
13501SOL    HW147364   8.302   1.871   1.356 -0.6744 -2.4544  1.7754
13501SOL    HW247365   8.247   1.901   1.494 -1.5499  1.6468  0.6678
13502SOL     OW47366   3.413  10.005   4.954  0.8292  0.1109 -0.5901
13502SOL    HW147367   3.339   9.947   4.971  0.6080  1.0442  2.1277
13502SOL    HW247368   3.489   9.957   4.987  0.7979  0.8725  0.6350
13503SOL     OW47369   8.293   3.138   2.456  0.1660 -0.4281  0.1827
13503SOL    HW147370   8.227   3.207   2.457  1.3878  0.7780  1.4000
13503SOL    HW247371   8.368   3.177   2.411  1.0028 -0.8372  1.1957
13504SOL     OW47372  10.656  12.240  10.963 -0.1547 -0.1610 -0.4016
13504SOL    HW147373  10.692  12.152  10.949  3.0556  1.2897 -2.4327
13504SOL    HW247374  10.706  12.274  11.038 -0.4989  0.3595 -0.4069
13505SOL     OW47375   9.628   3.505   4.601 -0.1626  0.5031  0.0375
13505SOL    HW147376   9.702   3.562   4.622  0.8502 -0.0207 -1.9031
13505SOL    HW247377   9.644   3.477   4.511 -1.6823 -1.2410  0.2555
13506SOL     OW47378   3.120   6.580   6.955 -0.1940 -0.2250 -0.5200
13506SOL    HW147379   3.108   6.563   7.049 -1.8723 -0.2880 -0.7137
13506SOL    HW247380   3.091   6.500   6.912 -0.0727  0.0473 -1.1161
13507SOL     OW47381   4.269  12.472   0.466  0.3611  0.2138  0.3357
13507SOL    HW147382   4.361  12.480   0.492  0.5250 -1.5702  0.4384
13507SOL    HW247383   4.225  12.544   0.511  1.6860  1.0467  0.3494
13508SOL     OW47384   0.599   8.400  11.408  0.6185 -0.0081  0.1459
13508SOL    HW147385   0.528   8.401  11.472  0.2796  2.6343 -0.1545
13508SOL    HW247386   0.677   8.381  11.460 -0.1483 -2.1782  0.6061
13509SOL     OW47387   6.961  11.141   1.993 -0.1034  0.3379  0.7545
13509SOL    HW147388   7.004  11.214   1.949 -1.6341  0.3676 -0.8097
13509SOL    HW247389   6.873  11.173   2.013 -1.1224 -1.3230 -0.8083
13510SOL     OW47390   9.274   5.540  10.493  0.0239 -0.2081  0.1189
13510SOL    HW147391   9.361   5.518  10.460  0.8809 -1.3681  2.8197
13510SOL    HW247392   9.226   5.458  10.489 -0.0903 -0.1926  0.9230
13511SOL     OW47393   1.393   9.375  10.157 -0.6963  0.5210 -0.5518
13511SOL    HW147394   1.446   9.452  10.137 -0.3868  0.7570  1.0533
13511SOL    HW247395   1.318   9.409  10.206 -0.4812 -0.1889  0.3067
13512SOL     OW47396  10.028   4.537  10.908  0.1515  0.4800 -0.1425
13512SOL    HW147397  10.021   4.620  10.861 -0.4027  0.9185  0.6860
13512SOL    HW247398   9.948   4.490  10.887  1.3015 -0.7332 -2.1784
13513SOL     OW47399   3.706   3.736   3.937  0.4395  0.2075  0.0281
13513SOL    HW147400   3.629   3.788   3.959  0.9988  1.0775 -0.0005
13513SOL    HW247401   3.680   3.683   3.862 -0.1527  0.4403  0.0696
13514SOL     OW47402   9.038   1.864   8.345  0.6320  0.7237  0.0814
13514SOL    HW147403   9.020   1.855   8.251  0.0180  0.2208  0.2420
13514SOL    HW247404   8.955   1.890   8.383  0.6513  0.0595  0.6042
13515SOL     OW47405   4.026   0.783   0.952 -0.5311  0.4981 -0.4461
13515SOL    HW147406   4.048   0.691   0.940  0.2705  0.6997 -0.6392
13515SOL    HW247407   4.106   0.822   0.988 -0.6420  1.2321 -0.9578
13516SOL     OW47408   3.381   4.166   3.558  0.3403  0.2382  0.1523
13516SOL    HW147409   3.465   4.186   3.516 -0.1412  0.0462 -0.9533
13516SOL    HW247410   3.344   4.096   3.504 -0.7781  0.7035  0.2943
13517SOL     OW47411   4.841   0.219   1.915 -0.0039  0.0574 -0.4044
13517SOL    HW147412   4.922   0.190   1.957  0.1539  0.6176 -0.3117
13517SOL    HW247413   4.810   0.142   1.867 -0.5078 -0.8037  1.2161
13518SOL     OW47414   6.921   9.376   5.266 -0.1012  0.2411  0.3238
13518SOL    HW147415   7.000   9.340   5.306  0.2470 -1.0244 -1.3641
13518SOL    HW247416   6.850   9.343   5.321  0.3046 -2.0944 -0.4075
13519SOL     OW47417   6.616   5.653   8.609 -0.1447  0.0551 -0.5799
13519SOL    HW147418   6.553   5.642   8.539 -0.7690 -0.6552  0.0760
13519SOL    HW247419   6.642   5.745   8.604  0.1633 -0.0895 -2.0071
13520SOL     OW47420   0.113   2.543  11.858  1.1015  0.0576 -0.2350
13520SOL    HW147421   0.025   2.554  11.895  1.0994  0.6511 -0.4156
13520SOL    HW247422   0.142   2.632  11.839  2.2945 -0.0039  1.1076
13521SOL     OW47423   9.482   3.434   3.230 -0.4902  0.2836 -0.3320
13521SOL    HW147424   9.530   3.357   3.199 -1.5186 -0.5898  0.1768
13521SOL    HW247425   9.406   3.440   3.172 -1.2032  0.0130  0.5449
13522SOL     OW47426   3.482  10.836   6.847 -0.0734 -0.2925 -0.1249
13522SOL    HW147427   3.483  10.868   6.937 -0.2370 -1.9606  0.5055
13522SOL    HW247428   3.569  10.855   6.813 -0.1442  0.7154  0.2407
13523SOL     OW47429  12.210   7.738  10.205  0.4429 -0.3495  0.3667
13523SOL    HW147430  12.271   7.731  10.132  0.2374  0.5018  0.1038
13523SOL    HW247431  12.235   7.667  10.264  0.5434 -1.1252 -0.5759
13524SOL     OW47432   2.635   2.023   9.208 -0.1337 -0.0227 -0.1160
13524SOL    HW147433   2.639   1.943   9.261  0.8404  0.1400  0.0835
13524SOL    HW247434   2.685   2.087   9.258 -0.6758  0.6371 -0.4089
13525SOL     OW47435   6.357  11.745   1.723 -0.3155 -0.4547 -0.1352
13525SOL    HW147436   6.440  11.740   1.771 -0.3673 -0.9624 -0.0964
13525SOL    HW247437   6.350  11.837   1.698 -0.9020  0.1122  1.9181
13526SOL     OW47438  12.446   8.132  10.827 -0.1109  0.1346  0.0572
13526SOL    HW147439  12.360   8.169  10.844 -1.0771 -1.6049 -0.7894
13526SOL    HW247440  12.466   8.156  10.737  0.9545  1.7227  0.6852
13527SOL     OW47441   6.059   2.095   7.008 -0.4454 -0.0063  0.7254
13527SOL    HW147442   6.051   2.036   6.933  0.8868 -0.6555  1.0538
13527SOL    HW247443   5.973   2.135   7.016 -0.6894 -0.1061 -0.9898
13528SOL     OW47444   9.237   4.444  12.351  0.0843 -0.6725  0.2495
13528SOL    HW147445   9.321   4.489  12.361  0.6264 -1.3385 -1.0613
13528SOL    HW247446   9.172   4.511  12.370  0.8914  0.0907  0.4140
13529SOL     OW47447   8.421   3.541   4.941  0.4870  0.0136 -0.5200
13529SOL    HW147448   8.367   3.482   4.888 -0.4005  0.0365  0.3130
13529SOL    HW247449   8.504   3.546   4.895  0.4557 -1.5869 -0.8231
13530SOL     OW47450   0.054   0.899   0.728  0.0588  0.1054  0.7803
13530SOL    HW147451  -0.028   0.853   0.744  0.3507 -0.9040 -0.4376
13530SOL    HW247452   0.117   0.829   0.707  0.6989  0.9906 -0.3762
13531SOL     OW47453   5.027   3.741   6.970  0.1086  0.5456 -0.4509
13531SOL    HW147454   5.029   3.647   6.988 -1.4885 -0.0312 -2.7958
13531SOL    HW247455   5.014   3.781   7.056 -1.8893 -1.5865  0.3714
13532SOL     OW47456  11.540   6.606   9.625  0.3025 -0.7438 -0.1105
13532SOL    HW147457  11.543   6.525   9.574  1.1213  0.0995 -1.4650
13532SOL    HW247458  11.491   6.583   9.704  0.3136 -2.4895 -0.5717
13533SOL     OW47459   9.020   2.973  11.751  0.5710 -0.5382 -0.3204
13533SOL    HW147460   9.001   3.066  11.764 -0.0786 -0.6596 -0.3664
13533SOL    HW247461   8.939   2.937  11.715 -0.0878 -1.6352  2.0941
13534SOL     OW47462   5.398  11.141   2.833  0.6997 -0.2792  0.6358
13534SOL    HW147463   5.491  11.142   2.808  0.2711  2.3945 -1.3381
13534SOL    HW247464   5.355  11.096   2.761  0.2270  0.8132  0.2129
13535SOL     OW47465  12.480  11.179   6.168 -0.5165 -0.6594  0.2069
13535SOL    HW147466  12.445  11.257   6.127  1.5352  0.8480  1.1546
13535SOL    HW247467  12.509  11.124   6.095  0.2086  0.5504 -0.4326
13536SOL     OW47468   1.627   5.330   7.388 -0.3118 -0.2084  0.2975
13536SOL    HW147469   1.563   5.390   7.427  0.5050  1.3490 -0.6749
13536SOL    HW247470   1.658   5.376   7.310  3.3127 -0.0719  1.6563
13537SOL     OW47471   5.065  12.027   2.509  0.5010  0.1228  0.1193
13537SOL    HW147472   5.125  12.085   2.556  0.2395 -0.4829  1.2411
13537SOL    HW247473   5.106  12.013   2.424  1.1693  0.9671  0.2931
13538SOL     OW47474   4.700   6.586   6.718  0.4482  0.0111 -0.4631
13538SOL    HW147475   4.712   6.681   6.724  1.1454  0.0063 -1.5866
13538SOL    HW247476   4.711   6.566   6.626 -0.1435 -1.1221 -0.3095
13539SOL     OW47477   3.753  10.260   8.077 -0.1218 -0.0647  0.2389
13539SOL    HW147478   3.686  10.236   8.141  0.4510 -1.5246  0.3238
13539SOL    HW247479   3.706  10.263   7.994 -0.5509  0.2499  0.4883
13540SOL     OW47480   5.494  11.072   8.153  0.1394 -0.2219 -0.5294
13540SOL    HW147481   5.562  11.047   8.216 -0.1464 -2.0573 -0.8979
13540SOL    HW247482   5.425  11.008   8.166 -1.6451  1.6780 -0.0680
13541SOL     OW47483   1.228   1.034   0.026  0.1033 -0.2759 -0.0809
13541SOL    HW147484   1.152   1.051   0.082  0.8194  0.4411  0.6997
13541SOL    HW247485   1.228   1.106  -0.037  0.9473  0.5675  0.8385
13542SOL     OW47486   9.686   2.449   1.933 -0.1455  0.2026 -0.7737
13542SOL    HW147487   9.780   2.457   1.917 -0.1650  0.0780 -0.9507
13542SOL    HW247488   9.655   2.539   1.942  0.0562  0.2304 -0.3438
13543SOL     OW47489   7.561   3.654  10.121  0.2084  0.1410  0.2047
13543SOL    HW147490   7.612   3.731  10.147 -1.5771  0.8801  1.6824
13543SOL    HW247491   7.488   3.651  10.182 -0.2748 -2.2453 -0.3796
13544SOL     OW47492   7.788  10.111   3.159  0.4513  0.3766 -0.4048
13544SOL    HW147493   7.730  10.096   3.233  0.6620  0.8154 -0.1540
13544SOL    HW247494   7.745  10.179   3.107  1.0286  1.1406  0.0988
13545SOL     OW47495  11.359  11.089   9.196  0.0196  0.0533  0.6669
13545SOL    HW147496  11.315  11.138   9.265  0.6489  0.7423  0.5872
13545SOL    HW247497  11.448  11.078   9.227  1.5305  3.8436 -1.6475
13546SOL     OW47498  12.474  10.559   0.636  0.1396 -0.3452 -0.7534
13546SOL    HW147499  12.466  10.647   0.673 -0.8035 -0.5602 -0.3999
13546SOL    HW247500  12.451  10.570   0.543  0.1318 -0.1946 -0.7339
13547SOL     OW47501   8.711   0.292  10.829  0.1092  0.4610  0.5109
13547SOL    HW147502   8.631   0.305  10.880  0.3129  1.7383  0.5519
13547SOL    HW247503   8.779   0.280  10.895 -0.1210 -1.2885  0.4699
13548SOL     OW47504   7.439   8.190   9.846  0.6565  0.4659 -0.2071
13548SOL    HW147505   7.391   8.109   9.860 -0.2490  1.0206 -0.0164
13548SOL    HW247506   7.460   8.221   9.934  0.0153  1.0039 -0.2339
13549SOL     OW47507  12.247   5.139  11.818  0.1244 -0.0593  0.0171
13549SOL    HW147508  12.247   5.049  11.787 -1.3309  0.5604 -2.0490
13549SOL    HW247509  12.174   5.144  11.880  0.3544 -0.3542  0.3115
13550SOL     OW47510   0.924   0.883  10.094  0.3837  0.7873 -0.0178
13550SOL    HW147511   0.975   0.804  10.075  2.5660  2.2242 -0.5718
13550SOL    HW247512   0.870   0.859  10.169  0.2769 -1.4796 -0.7419
13551SOL     OW47513   3.639   7.198   2.151  0.0905 -0.1664  0.0969
13551SOL    HW147514   3.683   7.134   2.094 -1.4342 -2.4380  1.3081
13551SOL    HW247515   3.594   7.257   2.090 -0.4474 -1.7450 -1.1330
13552SOL     OW47516  12.318   7.313   0.809  0.3656 -0.1316 -0.7683
13552SOL    HW147517  12.403   7.339   0.844  0.0227  0.6905 -0.5399
13552SOL    HW247518  12.287   7.246   0.869 -0.1191  1.1123  0.4113
13553SOL     OW47519   5.344   1.045   0.549  0.1657  0.0050  0.0076
13553SOL    HW147520   5.422   1.093   0.578  0.7519 -1.0976  0.2923
13553SOL    HW247521   5.278   1.114   0.536  1.2476  0.9869 -0.4884
13554SOL     OW47522   5.336   6.099   3.347 -0.1604  0.0327  0.0638
13554SOL    HW147523   5.314   6.099   3.440  0.4162  0.7664  0.2057
13554SOL    HW247524   5.264   6.053   3.305 -0.5416 -0.0905  0.8466
13555SOL     OW47525   7.161  11.193   6.769 -0.1812 -0.2823  0.5082
13555SOL    HW147526   7.254  11.195   6.790  0.1436 -3.1351 -0.2873
13555SOL    HW247527   7.154  11.240   6.686  0.2560  1.2860  1.3205
13556SOL     OW47528   0.790   3.857   4.076 -0.7085  0.2570 -0.4444
13556SOL    HW147529   0.884   3.846   4.091 -0.6156 -0.9265 -1.6474
13556SOL    HW247530   0.749   3.818   4.152 -0.2262 -1.0550 -0.8322
13557SOL     OW47531   2.671   4.177   8.426 -0.4272  0.0858 -0.1039
13557SOL    HW147532   2.680   4.115   8.498 -0.9450 -0.9358 -0.8935
13557SOL    HW247533   2.583   4.214   8.437 -1.1217 -1.2329 -1.0921
13558SOL     OW47534  11.030   4.650   6.092  0.3471 -0.4157  0.4311
13558SOL    HW147535  11.054   4.692   6.009  0.0262 -2.5433 -0.8296
13558SOL    HW247536  11.113   4.616   6.126  0.2843 -0.7046  0.2937
13559SOL     OW47537  10.321  11.589  12.457  0.0728  0.1268  0.3486
13559SOL    HW147538  10.253  11.564  12.394  1.5726 -0.2911 -1.1839
13559SOL    HW247539  10.346  11.507  12.499  0.9597 -0.0388 -0.4874
13560SOL     OW47540   0.457   2.868  10.881 -0.5248  0.1882  0.3338
13560SOL    HW147541   0.517   2.841  10.812 -0.8695 -1.2222  0.5559
13560SOL    HW247542   0.380   2.899  10.835  0.0926  1.3932  0.0624
13561SOL     OW47543   7.371   0.740   9.317 -0.5149 -0.1055 -0.1884
13561SOL    HW147544   7.292   0.718   9.268 -1.7505 -1.3094  2.1840
13561SOL    HW247545   7.344   0.739   9.409  1.7227  1.8075  0.6092
13562SOL     OW47546   6.318   6.089   4.799  0.5439 -0.4462  0.2874
13562SOL    HW147547   6.271   6.150   4.856 -0.8197 -1.1496 -0.0287
13562SOL    HW247548   6.263   6.083   4.721  1.7140 -0.5093 -0.5563
13563SOL     OW47549   0.428   7.256   0.669 -0.0174 -0.1080  0.6115
13563SOL    HW147550   0.487   7.239   0.743 -0.1496 -1.1300  0.5061
13563SOL    HW247551   0.463   7.334   0.627  2.3473 -1.6612 -0.4946
13564SOL     OW47552   4.682  11.090   7.308 -0.1064  0.0194  0.1660
13564SOL    HW147553   4.667  11.018   7.248  0.5967 -1.0830  1.2809
13564SOL    HW247554   4.775  11.112   7.297 -0.4472  1.2186 -0.6225
13565SOL     OW47555   7.424  10.464   8.227 -0.1450 -0.4051 -0.4568
13565SOL    HW147556   7.423  10.553   8.193 -1.3231  0.1855  1.0216
13565SOL    HW247557   7.458  10.411   8.154  3.6275  1.5929 -0.3904
13566SOL     OW47558   1.346   8.088   4.852 -0.0937  0.0780 -0.4996
13566SOL    HW147559   1.287   8.015   4.835  0.0487 -0.0861 -0.2988
13566SOL    HW247560   1.433   8.054   4.830  0.6366 -1.3291  3.6320
13567SOL     OW47561   3.666   8.847   1.889  0.0396  0.4837  0.2812
13567SOL    HW147562   3.590   8.792   1.908 -0.3738  0.6319 -0.8503
13567SOL    HW247563   3.667   8.912   1.959  0.1021 -0.5021  1.2284
13568SOL     OW47564   6.344   7.216  12.089 -0.2571  0.2563 -0.5079
13568SOL    HW147565   6.254   7.247  12.099  0.0718  0.7870  0.9645
13568SOL    HW247566   6.335   7.131  12.046 -1.4375  0.4312 -0.6432
13569SOL     OW47567   9.166   1.559   3.653 -0.4790 -0.6701  0.2248
13569SOL    HW147568   9.082   1.585   3.693 -0.1980  1.0382 -0.1867
13569SOL    HW247569   9.164   1.464   3.652 -1.8350 -0.6944  1.4619
13570SOL     OW47570   4.471   1.865   1.181  0.2332 -0.0344 -0.3580
13570SOL    HW147571   4.431   1.823   1.257  0.6815  1.8334  0.9954
13570SOL    HW247572   4.481   1.957   1.207  3.4497  0.0336 -1.4026
13571SOL     OW47573   2.573   0.558   8.648  0.3840 -0.1708  0.3546
13571SOL    HW147574   2.597   0.477   8.603  0.8135  0.6913 -1.0495
13571SOL    HW247575   2.646   0.617   8.631 -0.7981  1.1543 -0.4081
13572SOL     OW47576   6.605   9.414   9.197 -0.7705 -0.2552  0.0423
13572SOL    HW147577   6.580   9.438   9.107 -0.5889 -1.3701 -0.3264
13572SOL    HW247578   6.589   9.493   9.248 -2.2594 -0.0215 -0.7064
13573SOL     OW47579   5.132   0.500  11.582 -0.4531 -0.5543 -0.0218
13573SOL    HW147580   5.157   0.424  11.528 -3.7548 -1.6767 -0.2104
13573SOL    HW247581   5.139   0.468  11.672 -2.7317 -1.4855 -0.1268
13574SOL     OW47582   7.235  11.799   9.988  0.8183  0.3553 -0.2821
13574SOL    HW147583   7.292  11.824  10.061  0.9795  0.9626 -0.6155
13574SOL    HW247584   7.294  11.783   9.915  0.7078 -0.8154 -0.1458
13575SOL     OW47585   7.413   8.463   3.300  0.1517  0.4277 -0.8394
13575SOL    HW147586   7.480   8.506   3.246  0.1217 -1.0460 -2.0997
13575SOL    HW247587   7.452   8.379   3.325 -0.6746  0.1770 -0.3448
13576SOL     OW47588   6.812   8.341  11.053  0.4970 -0.6305  0.5332
13576SOL    HW147589   6.803   8.344  10.957 -1.5764  2.0575  0.6966
13576SOL    HW247590   6.742   8.281  11.081 -0.0355 -0.0697  0.4286
13577SOL     OW47591   9.919   7.739   6.341  0.6299  0.1196 -0.3897
13577SOL    HW147592   9.920   7.752   6.247 -0.8840  1.1069 -0.3058
13577SOL    HW247593  10.003   7.773   6.372  1.3793 -0.7453 -1.4138
13578SOL     OW47594   9.253   4.800   0.580  0.0910 -0.4641  0.2685
13578SOL    HW147595   9.286   4.710   0.579 -2.4895 -1.5054  0.3167
13578SOL    HW247596   9.235   4.820   0.488 -0.4995 -0.5085  0.3652
13579SOL     OW47597   2.657   1.893   3.454  0.3985  0.5911  0.3032
13579SOL    HW147598   2.730   1.834   3.471 -0.5778 -0.2942  1.6558
13579SOL    HW247599   2.584   1.856   3.504 -0.6562  2.1213 -0.0243
13580SOL     OW47600  11.571   4.690   7.693 -0.4863 -0.5798 -0.4881
13580SOL    HW147601  11.603   4.719   7.608  1.0062 -1.9443 -0.4415
13580SOL    HW247602  11.480   4.718   7.695  0.8322  4.6130 -0.1319
13581SOL     OW47603  10.135   7.130   5.447  0.6558  0.1284  0.0290
13581SOL    HW147604  10.143   7.158   5.538 -0.5744 -1.5823  0.7142
13581SOL    HW247605  10.187   7.193   5.398  1.6607  0.8679  1.9481
13582SOL     OW47606   3.282   0.936   9.403 -0.3000  0.2052  0.5540
13582SOL    HW147607   3.248   0.906   9.487 -1.3945 -1.5064 -0.4529
13582SOL    HW247608   3.354   0.876   9.384  0.8055  1.3834  0.8119
13583SOL     OW47609   3.006   5.429   8.286  0.0558  0.2535  0.4186
13583SOL    HW147610   3.075   5.492   8.267 -0.5703  1.2028  1.1831
13583SOL    HW247611   2.925   5.480   8.282 -0.6208 -0.8320 -0.4601
13584SOL     OW47612   4.290   0.617   4.630 -0.0815  0.2001  0.6367
13584SOL    HW147613   4.202   0.602   4.664  0.8158 -3.1132  1.9339
13584SOL    HW247614   4.294   0.564   4.550  0.6095  0.6085  0.3936
13585SOL     OW47615  11.706   9.381   6.543  0.3054  0.1142 -0.5433
13585SOL    HW147616  11.793   9.414   6.567  0.0759  0.6170 -0.3808
13585SOL    HW247617  11.718   9.287   6.531  0.7359  0.0773  0.1327
13586SOL     OW47618   6.912   2.985   7.355 -0.0132 -0.0198  0.0602
13586SOL    HW147619   6.950   3.008   7.440  0.9612  0.7808 -0.5706
13586SOL    HW247620   6.959   3.040   7.292 -1.8944  0.6493 -0.8309
13587SOL     OW47621  11.780   2.907   5.821  0.1069 -0.1306 -0.9445
13587SOL    HW147622  11.742   2.991   5.794 -0.4024 -0.8269 -2.5489
13587SOL    HW247623  11.768   2.905   5.916 -0.3953  1.3484 -0.9375
13588SOL     OW47624   1.336  11.165   4.307  0.4332  0.5232 -0.5686
13588SOL    HW147625   1.331  11.078   4.267 -0.1553  0.5285 -0.5134
13588SOL    HW247626   1.429  11.175   4.330  0.2357 -0.8009  0.9822
13589SOL     OW47627   1.441   7.228   6.759  0.7156 -0.6531 -0.3111
13589SOL    HW147628   1.358   7.268   6.734 -0.1922 -1.7728  0.7374
13589SOL    HW247629   1.501   7.301   6.773 -0.5362  0.2738  0.3750
13590SOL     OW47630   0.120  11.921   1.168 -0.5657  0.1589 -0.0865
13590SOL    HW147631   0.094  11.845   1.116  1.0977 -0.6713  0.2418
13590SOL    HW247632   0.040  11.945   1.215 -1.3578 -0.8249 -0.8669
13591SOL     OW47633   8.425   2.272   6.130  0.5360  0.0450  0.3679
13591SOL    HW147634   8.492   2.272   6.198 -1.1550 -1.1443  2.1267
13591SOL    HW247635   8.465   2.225   6.057  1.3445 -1.3580  1.6679
13592SOL     OW47636   0.021  10.656   4.099  0.0008  0.3069  0.3062
13592SOL    HW147637  -0.070  10.668   4.072  0.6035  1.4217 -1.4235
13592SOL    HW247638   0.052  10.744   4.118  0.9880  0.0597 -0.1029
13593SOL     OW47639  11.681   4.709   3.544 -0.3433 -0.0115  0.4843
13593SOL    HW147640  11.726   4.657   3.477 -0.8182 -0.6071  0.6211
13593SOL    HW247641  11.709   4.799   3.527  1.7582 -0.4736  1.2541
13594SOL     OW47642   5.217   5.614   4.094 -0.7076  0.0873 -0.2298
13594SOL    HW147643   5.257   5.605   4.007  1.2765 -1.0019  0.7251
13594SOL    HW247644   5.248   5.538   4.142 -0.0065  1.7563  2.1081
13595SOL     OW47645   7.411   4.797   9.694  0.6425  0.4692 -0.3128
13595SOL    HW147646   7.333   4.847   9.671  1.1813  1.1926 -0.5768
13595SOL    HW247647   7.392   4.708   9.664 -0.1924  0.5772 -0.1246
13596SOL     OW47648   9.616   1.702   3.461 -0.2613  0.7587 -0.1522
13596SOL    HW147649   9.595   1.626   3.406  0.3072  1.9861 -2.1579
13596SOL    HW247650   9.552   1.697   3.533 -0.7070 -1.1927 -0.6049
13597SOL     OW47651   4.475   7.398   2.036  0.2088  0.1458  0.1508
13597SOL    HW147652   4.480   7.350   1.954  1.2378  0.5039 -0.0111
13597SOL    HW247653   4.381   7.403   2.056 -0.0717  0.2968 -1.1396
13598SOL     OW47654   9.953   9.348   0.411  0.1565 -0.2871  0.3631
13598SOL    HW147655   9.889   9.409   0.374  2.0077  2.0118  0.7219
13598SOL    HW247656   9.961   9.279   0.346 -2.9695 -0.9065  0.5226
13599SOL     OW47657   9.206   5.776   7.097  0.7074 -0.6075 -0.5475
13599SOL    HW147658   9.235   5.811   7.182 -1.3425  0.1047 -0.0834
13599SOL    HW247659   9.285   5.738   7.059  1.9429  0.0993  1.1611
13600SOL     OW47660   4.631   2.356   1.990  0.0153  0.1333 -0.5466
13600SOL    HW147661   4.630   2.285   2.054 -0.0894 -0.1841 -0.9016
13600SOL    HW247662   4.539   2.376   1.974  0.0235  1.6013  0.9252
13601SOL     OW47663  11.672   3.968   2.203 -0.7689  0.1593 -0.5896
13601SOL    HW147664  11.708   4.042   2.251 -0.7264 -1.1026  1.4890
13601SOL    HW247665  11.736   3.949   2.134  1.9628 -1.0966  2.0570
13602SOL     OW47666   2.598  12.238  10.931  0.5034  0.5446  0.1189
13602SOL    HW147667   2.577  12.209  10.843  0.0839 -0.3260  0.4958
13602SOL    HW247668   2.672  12.299  10.919 -0.8181  2.0109 -1.0098
13603SOL     OW47669   9.844  10.080   4.186  0.0547 -0.0128  0.1484
13603SOL    HW147670   9.832  10.171   4.213 -0.2200  0.4476 -1.4164
13603SOL    HW247671   9.765  10.060   4.135 -0.4753 -1.5383  1.4673
13604SOL     OW47672   3.593   1.049   0.173 -0.1694  0.5300  0.3344
13604SOL    HW147673   3.560   0.972   0.127  0.1486 -0.5563  1.8599
13604SOL    HW247674   3.683   1.058   0.142  0.1229 -0.3451  0.8878
13605SOL     OW47675   5.454   4.992   2.585  0.5152 -0.5577  0.3567
13605SOL    HW147676   5.439   5.009   2.678 -0.7207 -2.8934  0.6699
13605SOL    HW247677   5.523   4.926   2.583  1.4689  0.4266 -0.4852
13606SOL     OW47678   3.677   0.082  12.005 -0.3066  0.6076 -0.0463
13606SOL    HW147679   3.771   0.093  11.987 -0.4197 -0.5977 -1.5081
13606SOL    HW247680   3.633   0.130  11.935 -0.7940  0.9216  0.4689
13607SOL     OW47681   9.176  11.549  12.045  0.4649  0.4834  0.3200
13607SOL    HW147682   9.096  11.600  12.050 -0.3078 -0.6035 -0.5217
13607SOL    HW247683   9.148  11.458  12.056  1.4501  0.0081 -0.8756
13608SOL     OW47684  11.020   0.725   9.088  0.5134  0.1411 -0.2830
13608SOL    HW147685  10.942   0.735   9.034  0.8727 -1.0721 -1.0746
13608SOL    HW247686  11.092   0.715   9.025  1.1704  0.2683  0.4245
13609SOL     OW47687  10.186  11.097  10.564  0.0115  0.2390 -0.2879
13609SOL    HW147688  10.157  11.035  10.497  0.2385 -0.3033  0.1198
13609SOL    HW247689  10.107  11.115  10.615 -0.2234  0.8502 -0.8475
13610SOL     OW47690  12.363   2.704  11.232  0.3797  0.5875 -0.1683
13610SOL    HW147691  12.312   2.775  11.270  1.5774  1.4489 -0.1162
13610SOL    HW247692  12.453   2.724  11.254  0.9905  0.3475 -2.2003
13611SOL     OW47693   7.016   9.971  11.020 -0.0842 -0.3779 -0.2730
13611SOL    HW147694   7.070  10.050  11.015  2.2291 -1.8743 -0.3721
13611SOL    HW247695   6.984   9.958  10.931 -2.7106  1.7938  0.2146
13612SOL     OW47696  10.923   1.932   3.624 -1.0611 -0.3972  0.0839
13612SOL    HW147697  10.966   2.017   3.622 -1.6071 -0.0885  0.8240
13612SOL    HW247698  10.974   1.880   3.687 -0.1479 -0.9590 -1.0853
13613SOL     OW47699   9.167   5.793   9.727  0.4978 -0.0498  0.1627
13613SOL    HW147700   9.218   5.850   9.784 -1.5562 -0.4186  2.5195
13613SOL    HW247701   9.094   5.848   9.697 -0.7161 -0.9722  1.3114
13614SOL     OW47702   4.178   4.778   9.572 -0.2883 -0.2695 -0.0314
13614SOL    HW147703   4.137   4.802   9.489 -2.4769 -0.0001  1.0561
13614SOL    HW247704   4.107   4.781   9.636  1.3957 -0.0548  1.9524
13615SOL     OW47705  11.497   9.261   4.863  0.4306 -0.1552  0.1892
13615SOL    HW147706  11.537   9.346   4.842  0.9731  0.2181  2.5051
13615SOL    HW247707  11.407   9.269   4.832  0.0768  1.8169  1.5280
13616SOL     OW47708   7.133   5.041   7.684 -0.5694  0.2361  0.3013
13616SOL    HW147709   7.118   5.059   7.591 -2.0411  1.7992  0.7973
13616SOL    HW247710   7.047   5.045   7.724 -0.1415 -1.6916  1.5878
13617SOL     OW47711   7.273   8.315   4.897 -0.1312 -0.6223 -0.1307
13617SOL    HW147712   7.236   8.229   4.879  0.6757 -1.6325  2.5274
13617SOL    HW247713   7.367   8.304   4.881 -0.3154  0.7686 -2.8629
13618SOL     OW47714  11.310   1.137  10.018  0.3239 -0.6258  0.4817
13618SOL    HW147715  11.229   1.168   9.978  0.5570 -0.5668  0.0474
13618SOL    HW247716  11.286   1.054  10.059  0.0997 -0.7331  0.1413
13619SOL     OW47717   9.741   4.896  10.034 -0.5460  0.2351  0.2157
13619SOL    HW147718   9.768   4.941   9.954 -0.4151 -0.1758  0.0233
13619SOL    HW247719   9.682   4.957  10.078 -0.3277  0.6136 -0.0103
13620SOL     OW47720   5.633   1.069   6.006  0.2488 -0.0685 -0.0759
13620SOL    HW147721   5.599   1.059   6.095  0.7176 -0.2681  0.0863
13620SOL    HW247722   5.726   1.049   6.014  0.0069 -1.7327 -0.8903
13621SOL     OW47723   3.379  12.148   2.682  0.4452  0.6036  0.0563
13621SOL    HW147724   3.394  12.192   2.598 -3.3269  1.3983 -0.4045
13621SOL    HW247725   3.385  12.055   2.662  2.9513  0.7550 -0.2332
13622SOL     OW47726   8.791  12.110   1.189  0.4424 -0.0721  0.2576
13622SOL    HW147727   8.725  12.121   1.258 -1.8342 -2.6762 -1.2927
13622SOL    HW247728   8.847  12.039   1.221  0.7690  0.2303  0.3611
13623SOL     OW47729   3.640   4.507   8.970 -0.0268 -0.0758 -0.2189
13623SOL    HW147730   3.643   4.414   8.994  0.5623 -0.0304 -0.0956
13623SOL    HW247731   3.686   4.510   8.886 -0.4297  0.0408 -0.4334
13624SOL     OW47732  11.731   2.255  11.009  0.9678  0.5307 -0.2921
13624SOL    HW147733  11.646   2.212  11.020  2.2202 -2.2226 -0.3952
13624SOL    HW247734  11.747   2.252  10.914  1.3092  0.6770 -0.2416
13625SOL     OW47735   2.861   5.722   0.779  0.1579  0.3191  0.2101
13625SOL    HW147736   2.930   5.714   0.713  0.3614  1.1449  0.3112
13625SOL    HW247737   2.898   5.683   0.858 -0.5823 -1.9270 -0.4845
13626SOL     OW47738  12.348   2.576  11.957 -0.2758  0.4020 -0.0422
13626SOL    HW147739  12.318   2.519  12.027 -0.6058  0.6257 -0.0029
13626SOL    HW247740  12.327   2.664  11.986  0.2027  0.5470 -0.1174
13627SOL     OW47741   0.767   5.381   5.441  0.3170  0.5258 -0.0935
13627SOL    HW147742   0.807   5.297   5.419 -1.6508 -0.4474 -0.1400
13627SOL    HW247743   0.760   5.427   5.357  0.7817  0.4636 -0.1685
13628SOL     OW47744   0.472   9.867   0.036  0.1512  0.5774  0.5587
13628SOL    HW147745   0.489   9.961   0.036  2.2912  0.2617  0.5467
13628SOL    HW247746   0.556   9.828   0.009 -0.9848 -1.2926 -0.5035
13629SOL     OW47747   1.966   3.545   7.560  0.1580  0.2126 -0.5119
13629SOL    HW147748   2.000   3.559   7.472 -1.9997 -0.3546 -1.5240
13629SOL    HW247749   1.964   3.632   7.600  0.0536  0.6634 -1.4726
13630SOL     OW47750   9.493   1.196   0.878 -0.3488  0.3414  0.4250
13630SOL    HW147751   9.463   1.218   0.790  0.2028 -0.8788 -0.1050
13630SOL    HW247752   9.416   1.159   0.922 -0.0698 -1.3674 -0.4160
13631SOL     OW47753   7.100   0.056  11.339 -0.6674 -0.0364  0.3991
13631SOL    HW147754   7.063   0.144  11.345 -1.4744 -0.3759  0.4728
13631SOL    HW247755   7.024  -0.001  11.331 -0.1321 -0.6986 -0.0059
13632SOL     OW47756   7.429   4.842   9.379 -0.1963  0.8171  0.1348
13632SOL    HW147757   7.497   4.826   9.444 -0.9011  0.2037  0.7570
13632SOL    HW247758   7.441   4.773   9.314 -0.3688  0.5474  0.3822
13633SOL     OW47759   1.476   7.900   4.718 -0.2055 -0.3001  0.5433
13633SOL    HW147760   1.462   7.884   4.624  1.9612 -0.6456  0.2200
13633SOL    HW247761   1.450   7.818   4.760 -1.1208 -0.1703  0.2379
13634SOL     OW47762   6.656   4.162  10.949  0.4538  0.1785  0.1196
13634SOL    HW147763   6.577   4.141  10.999  0.5974 -1.6328 -0.3436
13634SOL    HW247764   6.623   4.192  10.864  0.2628 -0.0435  0.1160
13635SOL     OW47765  10.319   8.156  10.307 -0.4329 -0.1310  0.6642
13635SOL    HW147766  10.374   8.079  10.299 -0.6707 -0.1247 -1.6671
13635SOL    HW247767  10.249   8.143  10.243 -0.0650  2.3117 -0.3760
13636SOL     OW47768   8.484   2.997   7.955 -0.4114  0.1073  0.7364
13636SOL    HW147769   8.516   2.951   8.033  0.6070 -0.4964 -0.0276
13636SOL    HW247770   8.501   3.089   7.973 -1.2795  0.1004  1.7240
13637SOL     OW47771   7.206  10.633   8.010 -0.1484 -0.1902  0.1002
13637SOL    HW147772   7.147  10.592   8.073 -1.3888  0.6118 -0.4851
13637SOL    HW247773   7.271  10.679   8.064 -2.3184  2.1288  0.9375
13638SOL     OW47774   4.873   5.328   3.636  0.3649 -0.3034 -0.4074
13638SOL    HW147775   4.789   5.372   3.650 -0.5417 -2.4203  1.2556
13638SOL    HW247776   4.939   5.396   3.653 -0.9611  0.5026  1.9204
13639SOL     OW47777   0.351   4.248   9.369  0.4101 -0.0435  0.8776
13639SOL    HW147778   0.335   4.218   9.458  1.1421 -1.0433  0.6906
13639SOL    HW247779   0.394   4.332   9.378 -1.2204  0.7807  1.4275
13640SOL     OW47780   9.420   8.511   3.280 -0.5328 -0.2894  0.2429
13640SOL    HW147781   9.404   8.589   3.227 -0.5195 -0.3843  0.1006
13640SOL    HW247782   9.472   8.454   3.224 -1.3585 -0.8114 -0.0068
13641SOL     OW47783   2.965   8.312   7.316  0.1605 -0.3149 -0.1320
13641SOL    HW147784   2.985   8.387   7.261  3.2007 -0.5190  0.5376
13641SOL    HW247785   2.872   8.295   7.301 -0.3423  2.8198 -1.1807
13642SOL     OW47786   4.592   4.324  12.321 -0.1266  0.3256  0.1142
13642SOL    HW147787   4.572   4.416  12.303 -0.6375  0.3106  0.6082
13642SOL    HW247788   4.591   4.317  12.416 -2.4437 -0.6969  0.0749
13643SOL     OW47789   1.707   9.853  11.095 -0.1146  0.6387 -0.4099
13643SOL    HW147790   1.777   9.805  11.139  0.3669  0.7947 -0.9791
13643SOL    HW247791   1.630   9.797  11.103  0.5108 -0.4335 -1.3774
13644SOL     OW47792   7.655   6.921   9.396 -0.2639 -0.6578 -0.1067
13644SOL    HW147793   7.564   6.914   9.424 -0.7843 -1.0130 -1.7537
13644SOL    HW247794   7.687   7.001   9.438 -1.3316 -0.5212  0.4868
13645SOL     OW47795  12.011   5.958   5.383  0.1235 -0.2947  0.0564
13645SOL    HW147796  11.943   6.025   5.370  1.3076  1.0228  0.4083
13645SOL    HW247797  12.093   6.004   5.365  0.9614 -1.7070  0.1906
13646SOL     OW47798  11.750   4.398   8.669 -0.0327 -0.1487 -0.2701
13646SOL    HW147799  11.811   4.425   8.738 -0.1925 -1.6158  0.4692
13646SOL    HW247800  11.805   4.388   8.591  0.4276 -0.0719  0.0397
13647SOL     OW47801   2.893  11.969   1.877 -0.2401 -0.8517 -0.5224
13647SOL    HW147802   2.861  12.010   1.957 -2.1194  1.2807 -2.2269
13647SOL    HW247803   2.824  11.909   1.851 -0.4492 -0.2681 -1.3775
13648SOL     OW47804   8.997   9.532  11.836  0.8861  0.1413  0.5852
13648SOL    HW147805   8.929   9.586  11.877  0.5334  0.3720 -0.2762
13648SOL    HW247806   9.069   9.531  11.900 -0.0543 -0.4161  1.6837
13649SOL     OW47807   3.620   5.138   1.742  0.0755 -0.3600  0.1130
13649SOL    HW147808   3.656   5.066   1.690  0.4580 -1.3546  1.6628
13649SOL    HW247809   3.575   5.094   1.815  0.1112  0.9683  0.9711
13650SOL     OW47810   9.903   7.075   8.912  0.1711 -0.2893 -0.1202
13650SOL    HW147811   9.842   7.062   8.984 -0.4175  4.6987  0.6682
13650SOL    HW247812   9.989   7.084   8.955  0.0933  0.8791 -0.1657
13651SOL     OW47813   5.389  11.397  11.616  0.6226  0.2088  0.3743
13651SOL    HW147814   5.455  11.450  11.661  2.4273  0.4630 -2.3526
13651SOL    HW247815   5.356  11.454  11.547 -0.9549 -0.6614  0.3690
13652SOL     OW47816   5.622   1.645   1.078  0.1669 -0.3534  0.5648
13652SOL    HW147817   5.584   1.670   1.162  0.5561  0.9480  0.3636
13652SOL    HW247818   5.592   1.713   1.017  0.7463 -0.7130 -0.1329
13653SOL     OW47819  10.733   0.237   6.341  0.4327 -0.3072 -0.1512
13653SOL    HW147820  10.698   0.154   6.310  2.4915 -0.5875 -1.9284
13653SOL    HW247821  10.769   0.217   6.427  2.9906 -1.9584 -1.4699
13654SOL     OW47822   7.072   5.834   8.189  0.6659  0.1804  0.1053
13654SOL    HW147823   6.995   5.782   8.211  0.4931 -0.0077 -0.9099
13654SOL    HW247824   7.037   5.915   8.153  0.9429  0.1472 -0.2442
13655SOL     OW47825   1.567  11.737   8.326  0.2395 -0.3812  0.9689
13655SOL    HW147826   1.557  11.763   8.234  1.9296 -1.6691  0.3677
13655SOL    HW247827   1.522  11.653   8.331  2.5123 -1.6846  0.5620
13656SOL     OW47828   9.623  11.219   8.866 -0.1569 -0.1981  0.1937
13656SOL    HW147829   9.683  11.291   8.885  0.6750 -0.5249 -1.1215
13656SOL    HW247830   9.561  11.220   8.939 -0.1547  1.8340  0.2124
13657SOL     OW47831   9.296   1.123   1.123 -0.4228  0.1438 -0.0504
13657SOL    HW147832   9.341   1.208   1.124  1.9143 -0.9977  0.8669
13657SOL    HW247833   9.367   1.059   1.130 -1.9672 -1.9767 -2.2780
13658SOL     OW47834   6.069   3.505  12.144  0.0648 -0.4984  0.2354
13658SOL    HW147835   5.991   3.468  12.103  1.2929 -2.2362 -0.6510
13658SOL    HW247836   6.117   3.429  12.177  0.7873  0.6247  1.9036
13659SOL     OW47837   4.011   6.765   4.356  0.6076  0.0026  0.3958
13659SOL    HW147838   4.008   6.743   4.263  1.1641  0.4765  0.2625
13659SOL    HW247839   3.993   6.682   4.400  1.1253 -0.4014 -0.1254
13660SOL     OW47840   3.139   7.451   7.382 -0.6536  0.0873 -0.3510
13660SOL    HW147841   3.202   7.453   7.310 -0.6623 -0.4865 -0.3798
13660SOL    HW247842   3.168   7.520   7.442  1.0868 -1.3041  0.5230
13661SOL     OW47843   2.945  11.478   8.224 -0.1265  0.0124  0.1524
13661SOL    HW147844   3.021  11.422   8.237 -0.2919 -0.1734  0.3522
13661SOL    HW247845   2.918  11.502   8.313 -1.6766 -1.8097  0.2523
13662SOL     OW47846   5.156   2.066   2.874 -0.5622  0.0405  0.7247
13662SOL    HW147847   5.224   2.006   2.845 -1.1681 -0.7134  0.8094
13662SOL    HW247848   5.176   2.083   2.966  0.3022  0.9504  0.3773
13663SOL     OW47849   4.079   2.544   3.755 -0.0141  0.0188 -0.0404
13663SOL    HW147850   4.115   2.528   3.842 -0.5019 -2.9702 -0.3086
13663SOL    HW247851   4.156   2.554   3.699  0.3010  0.4514  0.4505
13664SOL     OW47852   3.131   8.116   8.876  0.2347  0.0653 -0.3158
13664SOL    HW147853   3.039   8.099   8.854  0.3086 -1.2538  0.2391
13664SOL    HW247854   3.131   8.121   8.972  0.7506 -0.0692 -0.3082
13665SOL     OW47855   7.227   4.167   3.098 -0.0668 -0.7100 -0.4980
13665SOL    HW147856   7.178   4.207   3.026 -0.1012 -0.3333 -0.2645
13665SOL    HW247857   7.271   4.240   3.141 -0.8029 -0.8010  0.4526
13666SOL     OW47858   0.071   0.500   0.898 -0.1514 -0.1778  0.4017
13666SOL    HW147859   0.137   0.433   0.912 -0.5377 -0.6816 -0.1587
13666SOL    HW247860  -0.006   0.452   0.868  0.0023  0.6300 -1.4369
13667SOL     OW47861   0.277   9.239   0.925 -0.2127 -0.3091  0.5944
13667SOL    HW147862   0.252   9.296   0.997  1.6792  0.7542  0.4587
13667SOL    HW247863   0.344   9.181   0.961 -0.0610 -0.5187 -0.0024
13668SOL     OW47864   1.190   9.382   4.913 -0.1986  0.1287  0.0433
13668SOL    HW147865   1.266   9.336   4.949  0.1176  0.1150 -0.6159
13668SOL    HW247866   1.209   9.474   4.928 -1.8248  0.0658  3.3386
13669SOL     OW47867   0.560   7.712   5.401  0.3699 -0.2031 -0.0872
13669SOL    HW147868   0.564   7.660   5.321  0.3475 -0.2885 -0.0329
13669SOL    HW247869   0.569   7.648   5.472  1.8165  0.0059 -0.0372
13670SOL     OW47870  11.072   3.708  12.225  0.1954  0.4780  0.3655
13670SOL    HW147871  11.106   3.700  12.313  0.0939  1.5414  0.5150
13670SOL    HW247872  11.137   3.760  12.178  0.4114 -0.3611 -0.2835
13671SOL     OW47873   0.494  11.876   6.722 -0.1937  0.0434 -0.2334
13671SOL    HW147874   0.542  11.931   6.659 -0.5885 -2.2807 -2.7750
13671SOL    HW247875   0.407  11.915   6.726 -0.0397  0.4627 -0.8193
13672SOL     OW47876   7.937   4.471   5.899 -0.3534 -0.0347  0.3854
13672SOL    HW147877   8.011   4.459   5.957  0.5813  0.7606 -0.5926
13672SOL    HW247878   7.930   4.388   5.851  0.8388  0.3758 -0.5358
13673SOL     OW47879   8.058   6.038  10.703  0.4154 -0.6732  0.4089
13673SOL    HW147880   8.097   6.123  10.725  1.2111 -1.2091  1.1426
13673SOL    HW247881   7.974   6.038  10.750 -0.9199  0.8080 -1.8026
13674SOL     OW47882   9.881   3.859   6.927  0.0761 -0.6146  0.3893
13674SOL    HW147883   9.888   3.795   6.998  0.8810 -0.8756  0.0816
13674SOL    HW247884   9.877   3.943   6.972  1.3231 -0.7224  0.7490
13675SOL     OW47885   3.223  11.894  11.587 -0.4088  0.3607  0.0350
13675SOL    HW147886   3.174  11.814  11.570 -0.6837  1.0230 -2.8454
13675SOL    HW247887   3.163  11.965  11.560  0.8024  1.3692 -0.1006
13676SOL     OW47888   7.817   7.681   8.081 -0.0916 -0.3511  0.0587
13676SOL    HW147889   7.744   7.619   8.088  0.2907 -0.7738  0.3241
13676SOL    HW247890   7.781   7.764   8.112 -1.1531  0.0349 -1.9890
13677SOL     OW47891   5.413   6.459  11.583 -0.3816  0.2287 -0.4246
13677SOL    HW147892   5.499   6.423  11.604 -0.4725  0.5144  0.4933
13677SOL    HW247893   5.361   6.445  11.662 -0.8417  1.0459 -0.5654
13678SOL     OW47894   6.546   1.228   5.808 -0.3590  0.4734  0.0996
13678SOL    HW147895   6.561   1.308   5.859  0.4552  0.6078 -0.3218
13678SOL    HW247896   6.634   1.197   5.787 -0.6754 -0.2955 -0.1130
13679SOL     OW47897   2.922   5.995   4.386 -0.1254 -0.1641  0.2068
13679SOL    HW147898   2.901   6.034   4.301 -2.1299 -1.9228 -0.1954
13679SOL    HW247899   2.951   5.906   4.366 -0.5523 -0.5808  1.3354
13680SOL     OW47900   6.391   0.315   5.490 -0.1449 -0.1194 -0.1140
13680SOL    HW147901   6.433   0.299   5.406  0.8824  0.9634  0.1513
13680SOL    HW247902   6.298   0.328   5.469 -0.2351 -1.6817 -0.8247
13681SOL     OW47903   3.154   9.356   2.191  0.4932  0.0416 -0.6993
13681SOL    HW147904   3.223   9.320   2.136  0.2350 -1.3735 -0.1382
13681SOL    HW247905   3.199   9.380   2.272  0.5269  0.2534 -0.7796
13682SOL     OW47906  12.274   7.706  10.950 -0.6541 -0.1644  0.0122
13682SOL    HW147907  12.322   7.740  10.875 -1.1068 -0.2662 -0.3264
13682SOL    HW247908  12.278   7.611  10.940 -1.5153 -0.1601 -0.3923
13683SOL     OW47909  11.598  11.826   9.534  0.6508 -0.4520  0.2013
13683SOL    HW147910  11.598  11.863   9.623  0.8743  1.0745 -0.4086
13683SOL    HW247911  11.505  11.809   9.516  0.3680  1.2748 -0.0721
13684SOL     OW47912   1.982   6.280   5.787 -0.3891 -0.2496 -0.3164
13684SOL    HW147913   1.920   6.234   5.731 -0.7356 -0.0254 -0.1209
13684SOL    HW247914   1.928   6.319   5.856 -0.0890  0.3837 -0.4352
13685SOL     OW47915   2.847  10.105   8.826 -0.1264 -0.1362  0.6178
13685SOL    HW147916   2.868  10.047   8.899 -1.6341  0.2959  1.4492
13685SOL    HW247917   2.761  10.141   8.848  0.3275  1.6762 -0.3324
13686SOL     OW47918   7.416   0.246   4.473  0.5269  0.1988  0.3783
13686SOL    HW147919   7.328   0.218   4.497  0.6538  0.3860  1.0663
13686SOL    HW247920   7.413   0.342   4.476  1.3194  0.1953  2.5308
13687SOL     OW47921   2.453   6.502   4.247 -0.1016 -0.0302  0.2571
13687SOL    HW147922   2.403   6.541   4.176  0.8523  1.1316  0.1903
13687SOL    HW247923   2.544   6.515   4.221  0.2485 -0.1665  1.3872
13688SOL     OW47924   2.181   4.262   0.514  0.3256  0.1960 -0.2280
13688SOL    HW147925   2.215   4.286   0.600 -0.4701  1.5577 -0.2597
13688SOL    HW247926   2.143   4.175   0.527  2.2140 -0.6221  0.2116
13689SOL     OW47927   1.596  11.099  10.827 -0.6158  0.1126  0.3479
13689SOL    HW147928   1.603  11.187  10.791 -1.7240  0.0489 -0.0695
13689SOL    HW247929   1.502  11.078  10.821 -0.3253 -1.2100  0.1668
13690SOL     OW47930   0.010   8.196   2.796 -0.1221  0.3844  0.4908
13690SOL    HW147931   0.087   8.241   2.831  0.5971  0.1961 -0.7753
13690SOL    HW247932  -0.020   8.140   2.868  2.2591 -1.2062  0.3495
13691SOL     OW47933   8.194   3.904   2.470  0.0070  0.6127 -0.1850
13691SOL    HW147934   8.245   3.833   2.509  0.6228  0.2062 -1.6566
13691SOL    HW247935   8.123   3.920   2.533 -0.1804 -1.3437  0.1590
13692SOL     OW47936   2.107   5.387   5.468  0.6182  0.0939 -0.0784
13692SOL    HW147937   2.186   5.415   5.422  0.7099 -1.7769 -1.1451
13692SOL    HW247938   2.131   5.305   5.511 -0.3887  0.1584  0.6565
13693SOL     OW47939   6.188   9.482   4.065  0.8209 -0.0394  0.9067
13693SOL    HW147940   6.267   9.481   4.120  1.2009 -0.1972  0.3645
13693SOL    HW247941   6.216   9.524   3.984  0.0693  0.8779  1.1083
13694SOL     OW47942  11.562   0.400   6.969 -0.4633  0.3833  0.3286
13694SOL    HW147943  11.645   0.394   7.015 -0.4486  0.9549  0.3910
13694SOL    HW247944  11.585   0.397   6.877 -0.3967  0.2798  0.3487
13695SOL     OW47945   2.400  12.104   1.578  0.1811  0.2929 -0.4154
13695SOL    HW147946   2.478  12.066   1.537  0.0065  0.0618 -0.5316
13695SOL    HW247947   2.435  12.175   1.632  0.6686 -0.8269  0.8223
13696SOL     OW47948   2.832   0.560   0.300 -0.3545  0.2386  0.4684
13696SOL    HW147949   2.855   0.645   0.263 -1.5171  0.8895  1.1700
13696SOL    HW247950   2.874   0.559   0.387  0.6968 -0.4527 -0.0152
13697SOL     OW47951   6.932   3.903   8.662 -0.4982 -0.0696 -0.6211
13697SOL    HW147952   6.909   3.937   8.575 -1.5220  0.2291 -0.2452
13697SOL    HW247953   6.887   3.961   8.723 -0.3753 -0.7152  0.0941
13698SOL     OW47954   7.515   6.190   1.163 -0.3132  0.2369  0.0947
13698SOL    HW147955   7.503   6.283   1.183 -2.2332 -0.3531  2.0128
13698SOL    HW247956   7.433   6.163   1.121 -0.7153 -1.0784  1.6461
13699SOL     OW47957  12.223   3.581   9.254  0.3414  0.0351  0.5831
13699SOL    HW147958  12.313   3.614   9.261 -0.0722  1.2151  0.5562
13699SOL    HW247959  12.225   3.496   9.298  1.4305  0.1121  0.7130
13700SOL     OW47960   2.536   3.802   9.258  0.6587 -0.0030 -0.2114
13700SOL    HW147961   2.587   3.724   9.280  0.4787 -0.0160  0.1779
13700SOL    HW247962   2.452   3.789   9.303  0.5105  0.2628 -0.4128
13701SOL     OW47963   8.700   0.767   1.020  0.7700 -0.0591 -0.3916
13701SOL    HW147964   8.711   0.687   0.969  1.7873  0.2834 -0.7313
13701SOL    HW247965   8.622   0.809   0.982  0.7369 -0.4657 -0.7822
13702SOL     OW47966  10.207  11.660   3.300 -0.0289 -0.9701  0.0412
13702SOL    HW147967  10.245  11.742   3.268  0.1062 -1.1115 -0.1536
13702SOL    HW247968  10.244  11.592   3.244 -1.2256 -1.0302 -0.7204
13703SOL     OW47969   5.417  11.036   9.233  0.1222  0.1933 -0.1543
13703SOL    HW147970   5.500  11.003   9.200 -0.1885 -0.1508 -0.6054
13703SOL    HW247971   5.400  10.986   9.313  0.7593  0.8580  0.4082
13704SOL     OW47972  10.287  11.906   6.035 -0.7142 -0.2743  0.0535
13704SOL    HW147973  10.278  11.961   6.113 -2.6760 -4.0611  2.8533
13704SOL    HW247974  10.268  11.964   5.962 -1.8585  2.8736  2.6199
13705SOL     OW47975   7.162   5.752   2.246 -0.5352 -0.3535  0.3380
13705SOL    HW147976   7.169   5.674   2.302 -1.2776 -1.3947 -0.9578
13705SOL    HW247977   7.093   5.804   2.286 -0.6293 -0.7711  0.7317
13706SOL     OW47978   7.979   3.817   4.325 -0.0754  0.0896  0.1349
13706SOL    HW147979   8.030   3.767   4.388  1.0236  0.3958 -0.4870
13706SOL    HW247980   8.002   3.780   4.239  1.7079  2.3648 -0.4690
13707SOL     OW47981  11.755   1.986   3.594  0.0176  0.0359 -0.0299
13707SOL    HW147982  11.796   1.957   3.675  2.1448 -1.6755 -1.5945
13707SOL    HW247983  11.827   2.025   3.544 -0.5724 -1.5203 -2.2046
13708SOL     OW47984   2.435   1.248   9.950  0.4395 -0.0446  0.4994
13708SOL    HW147985   2.468   1.237   9.861 -3.3773  1.8177 -1.3941
13708SOL    HW247986   2.438   1.342   9.966 -2.2061  0.0960  0.7425
13709SOL     OW47987   7.673   1.580  10.753  0.0226 -0.2284  0.6453
13709SOL    HW147988   7.613   1.616  10.818  0.3130 -0.8222  1.2529
13709SOL    HW247989   7.616   1.542  10.686 -0.2816  0.7671  0.3085
13710SOL     OW47990   9.152   8.642   3.179 -0.2560  0.0635 -0.1437
13710SOL    HW147991   9.136   8.653   3.273  2.6541  0.1408  0.4316
13710SOL    HW247992   9.146   8.731   3.144  0.3037  0.2897  0.3062
13711SOL     OW47993   3.489   2.970   7.705 -0.2728 -0.2733 -0.3316
13711SOL    HW147994   3.561   2.956   7.766  2.2306  1.3633 -2.6928
13711SOL    HW247995   3.436   3.038   7.746 -0.6997 -1.6490  1.5520
13712SOL     OW47996  11.283   3.787   7.697 -0.2365 -0.3744 -0.1185
13712SOL    HW147997  11.360   3.844   7.702 -2.0622  2.3734 -1.0587
13712SOL    HW247998  11.215   3.835   7.744 -1.7773 -2.0618 -0.5080
13713SOL     OW47999   3.023   8.358   9.082 -0.6401 -0.1328  0.3325
13713SOL    HW148000   3.070   8.399   9.154 -2.2579 -0.0967  1.4239
13713SOL    HW248001   3.046   8.409   9.005 -0.7903  1.3836  1.2640
13714SOL     OW48002   3.042   2.936   4.006 -0.1487  0.3488  0.1402
13714SOL    HW148003   2.956   2.903   3.981  0.6148 -0.8675 -1.0279
13714SOL    HW248004   3.069   2.990   3.931 -0.7919  2.5823  1.4395
13715SOL     OW48005   2.827   6.039   6.947 -0.3715  0.3755 -0.3920
13715SOL    HW148006   2.778   6.053   6.866 -0.9245 -0.8980 -0.3017
13715SOL    HW248007   2.916   6.017   6.918 -1.3199 -3.5052 -0.9136
13716SOL     OW48008  10.529   1.820   0.402  0.5227 -0.3810  0.7017
13716SOL    HW148009  10.519   1.820   0.498  2.0333 -2.7197  0.9404
13716SOL    HW248010  10.448   1.781   0.370  0.3703 -0.3906  1.0899
13717SOL     OW48011   0.854   4.422   6.459  0.2007 -0.1210  0.3144
13717SOL    HW148012   0.872   4.492   6.396  1.2945 -2.0186 -1.6477
13717SOL    HW248013   0.762   4.433   6.483  0.6352  2.6541  1.0527
13718SOL     OW48014   1.154   5.152   6.193 -0.4422  0.1932 -0.5068
13718SOL    HW148015   1.103   5.177   6.270  2.0739 -0.7626  1.6091
13718SOL    HW248016   1.193   5.235   6.163 -1.2633  0.5338 -0.6713
13719SOL     OW48017   5.171   7.969  12.474 -0.2741  0.9794  0.7362
13719SOL    HW148018   5.080   7.981  12.500 -0.3839  0.3495  0.6497
13719SOL    HW248019   5.219   8.035  12.524 -0.5283  0.0255  2.3070
13720SOL     OW48020  10.222   6.926   4.294  0.1337  0.0310  0.4333
13720SOL    HW148021  10.186   6.887   4.374 -1.1159 -2.9240 -1.4004
13720SOL    HW248022  10.316   6.913   4.300  0.0235 -0.3869  1.3452
13721SOL     OW48023  11.060   9.839   2.453  0.2358 -0.3163  0.0912
13721SOL    HW148024  11.030   9.926   2.480  0.9310 -0.1160  0.2268
13721SOL    HW248025  10.992   9.808   2.394  0.5369  0.7983 -0.8654
13722SOL     OW48026   9.984  11.934   6.564 -0.3077 -0.0436  0.0614
13722SOL    HW148027   9.936  11.989   6.502 -0.1874  0.0029  0.0099
13722SOL    HW248028  10.054  11.990   6.597 -0.4865 -0.0070  0.3805
13723SOL     OW48029   9.078   0.744   5.787 -0.0803 -0.4960 -0.1982
13723SOL    HW148030   9.010   0.800   5.824  0.9498  1.2404 -0.7735
13723SOL    HW248031   9.041   0.711   5.705 -0.2212  0.5183 -0.5588
13724SOL     OW48032   4.270   3.862   7.792  0.5095 -0.5347  0.3183
13724SOL    HW148033   4.240   3.951   7.810  2.2728  0.1121  0.2384
13724SOL    HW248034   4.217   3.834   7.718  1.7143  1.4899 -1.4271
13725SOL     OW48035   7.370   4.795  10.784  0.0589  0.7012 -0.2237
13725SOL    HW148036   7.331   4.777  10.698  1.9318 -0.4291 -0.8811
13725SOL    HW248037   7.341   4.722  10.839 -1.3412  1.5513  0.2198
13726SOL     OW48038  10.525   1.856   9.391  0.2843  0.5395  0.0706
13726SOL    HW148039  10.522   1.852   9.486  1.1131  1.8326  0.1857
13726SOL    HW248040  10.510   1.949   9.371  1.5608  0.5545 -0.9597
13727SOL     OW48041   7.085   3.067  11.452  0.2648  0.2296 -0.0467
13727SOL    HW148042   7.167   3.109  11.478  0.4151  0.1236 -0.3417
13727SOL    HW248043   7.040   3.134  11.401 -0.0660  0.4652  0.5471
13728SOL     OW48044   8.134   0.739  10.418 -0.3360 -0.0552  0.0036
13728SOL    HW148045   8.194   0.691  10.474 -0.7616  1.4737  1.8708
13728SOL    HW248046   8.190   0.792  10.362  0.0914  0.4672  0.9103
13729SOL     OW48047   9.888   5.686   4.421 -0.0811 -0.0122  0.1603
13729SOL    HW148048   9.809   5.688   4.367 -0.0104  0.9248  0.0898
13729SOL    HW248049   9.959   5.708   4.361 -0.1370  2.2452  0.8391
13730SOL     OW48050   3.709   7.418   3.142 -0.0181  0.0376  0.1548
13730SOL    HW148051   3.619   7.450   3.152  0.2148  0.7398  0.0989
13730SOL    HW248052   3.701   7.323   3.145 -0.8324  0.0693 -0.3864
13731SOL     OW48053  11.801   1.091   7.336  0.2149 -0.1573  0.6648
13731SOL    HW148054  11.814   1.016   7.278  2.2313  1.3869 -1.0700
13731SOL    HW248055  11.858   1.073   7.411  3.0480  0.8066 -1.0807
13732SOL     OW48056   5.047   1.133   0.038 -0.6561  0.2654  0.1788
13732SOL    HW148057   4.984   1.205   0.041 -1.2000 -0.1315 -1.0527
13732SOL    HW248058   5.013   1.075  -0.030  0.3477 -0.6193  0.4163
13733SOL     OW48059   0.911   4.123   0.207  0.2452  0.6746 -0.1033
13733SOL    HW148060   0.860   4.181   0.264  1.7697  3.1043 -1.0582
13733SOL    HW248061   1.001   4.132   0.239  0.6518 -0.4872 -0.8623
13734SOL     OW48062   6.087  11.524   1.319 -0.0540  0.5537  0.3963
13734SOL    HW148063   6.005  11.491   1.356  0.0411  0.1452  0.2486
13734SOL    HW248064   6.068  11.615   1.295 -1.3616 -0.3378 -2.3535
13735SOL     OW48065   7.005   0.310   4.592 -0.2881 -0.1150 -0.1871
13735SOL    HW148066   6.929   0.363   4.571 -0.7235 -1.1116 -1.2619
13735SOL    HW248067   7.077   0.352   4.545  0.2008  1.7270  2.0575
13736SOL     OW48068   4.343   8.250   6.192  0.1789 -0.0772 -0.1776
13736SOL    HW148069   4.390   8.186   6.139  0.4261  1.2454 -1.6164
13736SOL    HW248070   4.272   8.280   6.136  0.7890  1.7737 -0.0337
13737SOL     OW48071  11.812   7.898   0.455 -0.1536  0.1227  0.1593
13737SOL    HW148072  11.830   7.903   0.549 -0.8965  0.5087  0.2891
13737SOL    HW248073  11.892   7.862   0.417 -1.1311 -3.7654  1.3701
13738SOL     OW48074   1.799   9.918  10.834  1.1499 -0.0221  0.2454
13738SOL    HW148075   1.756   9.902  10.918  1.3194 -2.7610 -0.0879
13738SOL    HW248076   1.889   9.887  10.847  0.6209 -2.5801 -1.4611
13739SOL     OW48077  12.198  11.295   3.920  0.6951  0.5716 -0.3725
13739SOL    HW148078  12.157  11.220   3.964  0.8707  0.3685 -0.5559
13739SOL    HW248079  12.168  11.290   3.830  0.3450  0.9835 -0.2820
13740SOL     OW48080   3.743   7.616   5.745  0.5308  0.1722 -0.0124
13740SOL    HW148081   3.672   7.553   5.756  1.2107 -0.2288  2.9277
13740SOL    HW248082   3.700   7.701   5.743 -0.0999 -0.0860  1.3726
13741SOL     OW48083   1.885   5.319   3.217  0.1449  0.5857  0.3853
13741SOL    HW148084   1.927   5.370   3.287  0.0104  0.3133  0.6658
13741SOL    HW248085   1.797   5.302   3.250 -0.2299  1.2591 -0.2524
13742SOL     OW48086   1.371   2.807   8.844  0.1026 -0.3015  0.4878
13742SOL    HW148087   1.305   2.804   8.775 -0.7482 -0.0048  1.2732
13742SOL    HW248088   1.336   2.751   8.913  1.2380 -1.0985  0.4413
13743SOL     OW48089   9.395   5.165   4.493 -0.5412 -0.3494  0.4908
13743SOL    HW148090   9.309   5.155   4.533 -0.1977 -0.4224  1.2375
13743SOL    HW248091   9.391   5.250   4.449 -0.8874 -0.2011  0.7994
13744SOL     OW48092   4.158   6.724   0.734 -0.5638 -0.1003 -0.3995
13744SOL    HW148093   4.132   6.741   0.824  1.6851  1.9292 -0.0391
13744SOL    HW248094   4.210   6.643   0.740 -0.6700 -0.1387  0.0771
13745SOL     OW48095   4.426   5.323   9.325  0.3908 -0.1482  0.5794
13745SOL    HW148096   4.485   5.393   9.351 -0.2148  0.1087  1.3173
13745SOL    HW248097   4.479   5.244   9.329  0.4274 -0.0775  2.3347
13746SOL     OW48098   4.423   5.777  10.113  0.6065 -1.4568 -0.0999
13746SOL    HW148099   4.410   5.698  10.061 -0.2009 -1.6108  0.3164
13746SOL    HW248100   4.348   5.832  10.091  1.4810 -0.5200 -0.8665
13747SOL     OW48101   2.604   5.801   9.994 -0.4489 -0.1023  0.5360
13747SOL    HW148102   2.680   5.858  10.008 -0.6003  0.1930  0.1611
13747SOL    HW248103   2.536   5.860   9.960  0.2366 -0.9601 -2.6395
13748SOL     OW48104   1.914   3.993   6.903 -0.0025 -0.2795  0.5866
13748SOL    HW148105   1.895   4.004   6.996  0.0445  0.2193  0.5367
13748SOL    HW248106   1.987   3.931   6.900 -0.5636 -0.9635  0.8467
13749SOL     OW48107   0.700   9.911  11.031 -0.0554 -0.2302  0.3828
13749SOL    HW148108   0.681   9.836  10.975  0.7857 -0.7722  0.8088
13749SOL    HW248109   0.760   9.965  10.980 -1.1619  0.5165 -0.1903
13750SOL     OW48110   5.112   1.358   4.383  0.1044  0.2314  0.1195
13750SOL    HW148111   5.078   1.439   4.422  2.9986  2.0426 -0.7176
13750SOL    HW248112   5.158   1.314   4.455  0.1090  0.3235  0.1731
13751SOL     OW48113   1.463   5.772   6.890  0.2095 -0.0899 -0.3927
13751SOL    HW148114   1.541   5.787   6.943 -1.3079 -0.6460  2.1750
13751SOL    HW248115   1.397   5.832   6.926 -1.2779 -1.4359 -0.7294
13752SOL     OW48116   7.977   9.362   8.777 -0.1936 -0.3042  0.2217
13752SOL    HW148117   7.898   9.406   8.807 -0.6655  0.1509 -1.5683
13752SOL    HW248118   8.041   9.432   8.762 -1.3520  0.1473 -3.8805
13753SOL     OW48119   8.052   9.408   5.455 -0.5482 -0.3141 -0.2224
13753SOL    HW148120   8.094   9.480   5.502  2.1748 -1.9287  0.0512
13753SOL    HW248121   7.992   9.451   5.394 -0.1679  2.0753  0.9723
13754SOL     OW48122  10.201   4.166   3.368  0.1631  0.0026  0.5297
13754SOL    HW148123  10.124   4.222   3.363 -0.0436 -0.1105  2.0018
13754SOL    HW248124  10.269   4.216   3.321  0.2005  1.9349  2.4410
13755SOL     OW48125   6.857   8.607  11.006 -0.2930  0.0415 -0.1503
13755SOL    HW148126   6.817   8.522  11.025 -0.9641  0.9521  3.2260
13755SOL    HW248127   6.946   8.587  10.978 -1.0493 -1.7986 -1.3673
13756SOL     OW48128   9.140   1.782   3.959 -0.2362  0.2268 -0.2049
13756SOL    HW148129   9.136   1.688   3.971  0.1696  0.0787 -1.1221
13756SOL    HW248130   9.101   1.819   4.038 -0.6993 -0.7123  0.0096
13757SOL     OW48131   5.211   6.473   3.831  0.2236 -0.9925 -0.0850
13757SOL    HW148132   5.301   6.480   3.863  0.3562  3.5127 -0.7954
13757SOL    HW248133   5.217   6.500   3.739 -2.0445  1.5805  0.4256
13758SOL     OW48134   3.838   7.458   5.168  0.4998  0.0509 -0.1890
13758SOL    HW148135   3.890   7.380   5.185  0.3372 -0.3962 -1.6308
13758SOL    HW248136   3.752   7.438   5.205  0.8871  0.1779  0.8153
13759SOL     OW48137  10.367   8.570  11.002 -0.2244 -0.1519  0.3398
13759SOL    HW148138  10.423   8.551  10.926  0.4490 -0.1817  0.8393
13759SOL    HW248139  10.362   8.665  11.004 -0.9003 -0.1632 -0.2045
13760SOL     OW48140  12.441   5.533   8.167  0.6777 -0.1507 -0.2753
13760SOL    HW148141  12.495   5.601   8.209  0.5329  0.5267 -1.1579
13760SOL    HW248142  12.362   5.579   8.141 -0.1282 -1.0274  0.5359
13761SOL     OW48143   2.757  12.057   9.567  0.1281  0.3892 -0.2368
13761SOL    HW148144   2.835  12.007   9.543  1.7749  1.9886  1.4374
13761SOL    HW248145   2.765  12.138   9.518  0.1450  1.0249  0.7850
13762SOL     OW48146   1.693   0.883  10.062 -0.4158 -0.2262  0.0322
13762SOL    HW148147   1.725   0.906  10.149 -1.9104 -0.6640  0.7288
13762SOL    HW248148   1.708   0.961  10.009  1.1723 -0.2032  0.4722
13763SOL     OW48149   3.469  10.823   7.979  0.7483  0.2064  0.7217
13763SOL    HW148150   3.503  10.835   8.068  1.5326 -0.0472  0.4643
13763SOL    HW248151   3.546  10.832   7.923 -0.0861  2.8523 -0.1457
13764SOL     OW48152   5.374   0.377   0.540 -0.4878  0.5158  0.0322
13764SOL    HW148153   5.396   0.314   0.609  1.1160 -0.0409 -0.9132
13764SOL    HW248154   5.304   0.335   0.491  0.8937 -0.8481 -0.8865
13765SOL     OW48155   0.258   5.804   6.020  0.1189 -0.1584 -0.2114
13765SOL    HW148156   0.299   5.736   5.967  3.7039 -0.6473  2.7628
13765SOL    HW248157   0.298   5.886   5.991  0.5409 -0.1657  0.3334
13766SOL     OW48158   0.308   8.925  11.910  0.0547  0.1693 -0.3191
13766SOL    HW148159   0.319   8.960  11.999  0.2834 -1.5267  0.3440
13766SOL    HW248160   0.216   8.941  11.890  0.0551  0.7725  0.1208
13767SOL     OW48161  11.171   3.711  11.889 -0.1983  0.0432  0.2487
13767SOL    HW148162  11.103   3.779  11.894 -0.2126 -0.0138  0.9337
13767SOL    HW248163  11.201   3.701  11.979 -2.1094 -2.8341  0.6980
13768SOL     OW48164   2.881   0.176  11.563 -0.3099  0.4433  0.3994
13768SOL    HW148165   2.934   0.097  11.569  0.3367  0.9067  0.8280
13768SOL    HW248166   2.792   0.144  11.545  0.0188 -0.3543  0.1765
13769SOL     OW48167   9.837   6.244   4.906  0.1513 -0.1984 -0.5573
13769SOL    HW148168   9.797   6.275   4.988 -1.9336  0.8069 -1.8832
13769SOL    HW248169   9.779   6.173   4.877  1.9655 -1.9066 -0.2397
13770SOL     OW48170   8.023  10.785   1.749  0.9569  0.0787 -0.2519
13770SOL    HW148171   7.937  10.745   1.762  1.3723 -1.3466 -1.5229
13770SOL    HW248172   8.064  10.782   1.836  0.9290 -2.2942 -0.2569
13771SOL     OW48173  10.897   2.707   0.182  0.2239  0.7370  0.2987
13771SOL    HW148174  10.836   2.748   0.120  0.1317  0.7757  0.4140
13771SOL    HW248175  10.984   2.728   0.148  0.1761  0.9754  0.3207
13772SOL     OW48176   5.802   6.874  11.295 -0.1434 -0.0808 -0.2813
13772SOL    HW148177   5.809   6.784  11.262  2.4135  0.0680 -0.3533
13772SOL    HW248178   5.720   6.875  11.343 -2.8491 -1.0451 -4.3330
13773SOL     OW48179   5.580   8.603   4.800  0.8832  0.1638 -0.2143
13773SOL    HW148180   5.491   8.596   4.766  0.9246  1.9173 -0.7777
13773SOL    HW248181   5.636   8.570   4.729  0.7701  0.7048 -0.5633
13774SOL     OW48182   4.732  11.242   8.464  0.1072 -0.6283  0.0493
13774SOL    HW148183   4.780  11.170   8.424 -0.7505 -1.2177  0.0673
13774SOL    HW248184   4.735  11.225   8.558 -1.7410 -1.7375 -0.0365
13775SOL     OW48185   9.943   0.881   3.495  0.3370  0.5708 -0.0269
13775SOL    HW148186   9.940   0.968   3.535 -1.9039  0.9633 -0.8938
13775SOL    HW248187   9.861   0.840   3.521 -0.7503  0.4633 -3.2510
13776SOL     OW48188   0.623   9.890   4.387 -0.4925 -0.1170 -0.2573
13776SOL    HW148189   0.561   9.962   4.382  0.2947  0.5828 -0.1188
13776SOL    HW248190   0.631   9.872   4.481 -2.1863 -1.7403 -0.3560
13777SOL     OW48191  11.699   5.222   6.531  0.3596  0.3452 -0.1449
13777SOL    HW148192  11.678   5.183   6.616  1.4052 -2.2158 -0.9556
13777SOL    HW248193  11.615   5.252   6.497 -0.5978 -1.4518  0.4877
13778SOL     OW48194   5.367   7.546   4.994  0.1716  0.2303  0.0213
13778SOL    HW148195   5.330   7.634   5.003 -0.0863  0.2680 -1.3005
13778SOL    HW248196   5.437   7.556   4.930  1.4639 -0.1605  1.3305
13779SOL     OW48197   5.548   5.139   2.370 -0.8471 -0.3169  0.4540
13779SOL    HW148198   5.556   5.077   2.443 -2.1310 -0.9047  0.1095
13779SOL    HW248199   5.537   5.224   2.413  1.0882 -0.2514  0.9315
13780SOL     OW48200   9.960   3.804   1.319  0.2725 -0.6636 -0.2648
13780SOL    HW148201   9.869   3.832   1.308  0.4219 -0.0770 -0.0304
13780SOL    HW248202   9.958   3.752   1.400  0.0326 -1.1761 -0.5952
13781SOL     OW48203   2.392   7.731   2.135 -0.6618 -0.3156 -0.3542
13781SOL    HW148204   2.446   7.730   2.056 -0.7203  0.4328 -0.4072
13781SOL    HW248205   2.429   7.800   2.189 -1.3274 -0.0559 -0.2217
13782SOL     OW48206   5.000   9.957   2.259  0.1643 -0.1166  0.7637
13782SOL    HW148207   4.953  10.035   2.289  0.1764 -0.0930  0.7204
13782SOL    HW248208   5.069   9.990   2.202 -0.3343 -0.2151  0.0910
13783SOL     OW48209  10.721  10.907   1.039 -0.1348  0.3253 -0.5685
13783SOL    HW148210  10.656  10.842   1.011 -1.2576  1.7317 -1.3831
13783SOL    HW248211  10.695  10.929   1.129  0.6860 -0.8350 -0.0209
13784SOL     OW48212   1.000   0.274   1.508  0.4174  0.3319 -0.3330
13784SOL    HW148213   1.014   0.185   1.476  0.1030 -0.0791  0.6354
13784SOL    HW248214   1.029   0.330   1.436  0.2224 -0.5491 -1.1177
13785SOL     OW48215   7.874   1.400   3.071  0.1159  0.4721 -0.0989
13785SOL    HW148216   7.885   1.490   3.102 -0.8891 -0.0918  2.1088
13785SOL    HW248217   7.888   1.406   2.977  0.9287  2.7837  0.0855
13786SOL     OW48218   3.694   2.906   1.967  0.2476 -0.0271 -0.3587
13786SOL    HW148219   3.763   2.970   1.949 -1.3410  1.4146 -1.6861
13786SOL    HW248220   3.616   2.958   1.984 -1.1108 -1.5679 -1.4716
13787SOL     OW48221   4.872   5.896   0.088  0.5850 -0.3285 -0.5017
13787SOL    HW148222   4.878   5.963   0.020  0.8410 -1.0027 -1.1468
13787SOL    HW248223   4.842   5.817   0.043 -0.7517 -0.3946  0.4368
13788SOL     OW48224   1.492   5.711  10.853 -0.0482 -0.0768 -0.0525
13788SOL    HW148225   1.532   5.652  10.789  0.1137  0.5000 -0.4972
13788SOL    HW248226   1.550   5.708  10.929  0.7983  0.6579 -0.6446
13789SOL     OW48227  12.123   7.755   4.887  0.7020  0.1926  0.6491
13789SOL    HW148228  12.216   7.762   4.865  0.6542 -2.9176 -1.1877
13789SOL    HW248229  12.077   7.783   4.808  0.0548  0.9397  1.2669
13790SOL     OW48230   6.912   8.970   8.008 -0.2787 -0.5986 -0.1080
13790SOL    HW148231   6.852   8.979   8.082 -0.9120  0.9608 -0.7880
13790SOL    HW248232   6.893   8.883   7.973 -0.5625 -1.0205  1.0375
13791SOL     OW48233   5.650  12.406   0.108  0.0078  0.4336  0.1951
13791SOL    HW148234   5.653  12.440   0.197  0.8630 -0.9580  0.7343
13791SOL    HW248235   5.740  12.378   0.090 -0.2671  0.2034 -0.8993
13792SOL     OW48236   5.326   6.822   7.008 -0.4255 -0.1743 -0.3189
13792SOL    HW148237   5.272   6.808   7.086  0.1779  0.1342  0.1651
13792SOL    HW248238   5.272   6.790   6.936 -0.6463 -1.3181  0.3187
13793SOL     OW48239   6.471   5.846   9.733  0.5766 -0.4799  0.2094
13793SOL    HW148240   6.521   5.800   9.801 -0.3984  0.1235  1.3602
13793SOL    HW248241   6.519   5.827   9.652  1.4496 -1.6815  0.9665
13794SOL     OW48242   0.447   0.505  11.505 -0.3701 -0.5070  0.1332
13794SOL    HW148243   0.534   0.539  11.524  0.2837 -1.5817 -0.8065
13794SOL    HW248244   0.425   0.450  11.580 -0.8040  0.7332  0.9571
13795SOL     OW48245  11.338   2.297   2.857 -0.6093  0.0107  0.6702
13795SOL    HW148246  11.336   2.382   2.901  0.6221  1.7460 -2.3602
13795SOL    HW248247  11.342   2.318   2.764  1.6480 -3.3236 -0.1600
13796SOL     OW48248  11.020   0.101   3.887 -0.4195  0.1946  0.3150
13796SOL    HW148249  11.094   0.040   3.877 -0.6561 -0.2016  0.9045
13796SOL    HW248250  11.010   0.141   3.801 -0.0115 -0.3240  0.0193
13797SOL     OW48251   8.715  11.424   0.811  0.1427 -0.0421  0.5704
13797SOL    HW148252   8.756  11.338   0.812  0.9871  0.3155  3.0621
13797SOL    HW248253   8.785  11.484   0.785 -0.0698  0.0811  0.2666
13798SOL     OW48254  11.882  11.768  11.376  0.2446  0.3220  0.3595
13798SOL    HW148255  11.899  11.839  11.439  0.3502  0.6753 -0.0619
13798SOL    HW248256  11.937  11.696  11.407  1.1042  0.8382  0.0867
13799SOL     OW48257   3.234   0.850   0.175 -0.0856  0.0991  0.4989
13799SOL    HW148258   3.258   0.903   0.252  1.7073 -1.2223  0.9015
13799SOL    HW248259   3.315   0.841   0.126 -0.6295 -1.2801 -0.1796
13800SOL     OW48260   4.873  11.387  10.740  0.0491 -0.1540 -0.1107
13800SOL    HW148261   4.951  11.360  10.789 -0.2678  2.3020  1.9869
13800SOL    HW248262   4.800  11.347  10.787 -0.1180 -0.0440 -0.2748
13801SOL     OW48263   3.652   5.406   9.805 -0.2609  0.2067  0.2896
13801SOL    HW148264   3.730   5.387   9.752  0.5930  1.8691  0.8609
13801SOL    HW248265   3.674   5.488   9.849 -2.7321  1.2814 -0.3297
13802SOL     OW48266   7.834   6.471   3.809 -0.5102 -0.9674 -0.0891
13802SOL    HW148267   7.917   6.444   3.768  0.1640  0.4548  0.2968
13802SOL    HW248268   7.777   6.493   3.735 -0.1279 -0.7713 -0.3302
13803SOL     OW48269   2.702   5.833   4.085  0.6449 -0.2658 -0.2889
13803SOL    HW148270   2.758   5.908   4.104  0.8347 -0.3509 -0.5008
13803SOL    HW248271   2.761   5.769   4.044  0.7944 -1.0709  1.1168
13804SOL     OW48272   9.958   0.905   1.288  0.1560 -0.3455 -0.1523
13804SOL    HW148273   9.939   0.855   1.209  0.9996 -1.1401  0.1369
13804SOL    HW248274  10.054   0.902   1.296  0.1784  0.7818  0.2155
13805SOL     OW48275  12.348   5.609   4.263  0.5489  0.2645 -0.3178
13805SOL    HW148276  12.353   5.530   4.210 -1.2240  0.3157 -0.6092
13805SOL    HW248277  12.310   5.580   4.346 -1.5555  0.9959 -0.9583
13806SOL     OW48278   6.232   1.838   8.700 -0.1267 -0.1478 -0.3327
13806SOL    HW148279   6.189   1.817   8.783 -1.4807 -1.5442 -1.3335
13806SOL    HW248280   6.164   1.882   8.649  0.6827  0.6702 -0.7327
13807SOL     OW48281   6.969   4.767   4.952  0.2408 -0.2714  0.2531
13807SOL    HW148282   6.882   4.775   4.912  0.0554 -0.8330  0.5366
13807SOL    HW248283   7.028   4.758   4.878  0.3048  2.0855 -0.0419
13808SOL     OW48284   8.664   3.473  10.177 -0.1444 -0.1506 -0.2083
13808SOL    HW148285   8.657   3.435  10.265 -0.4542 -1.9744 -0.9990
13808SOL    HW248286   8.669   3.568  10.193  2.5858 -0.5335  1.9327
13809SOL     OW48287   8.413   8.633   1.409 -0.5685  0.6732 -0.5691
13809SOL    HW148288   8.479   8.605   1.346  0.2176  1.1042  0.0499
13809SOL    HW248289   8.463   8.669   1.482 -1.4994  2.3350 -0.6950
13810SOL     OW48290   1.807   6.286   1.112  0.0967 -0.0819  0.2120
13810SOL    HW148291   1.716   6.269   1.086 -0.4402 -0.7687  2.3332
13810SOL    HW248292   1.815   6.246   1.199  1.7826  1.9134  1.0483
13811SOL     OW48293   5.347   8.283   9.679  0.2085  0.2598  0.7784
13811SOL    HW148294   5.357   8.376   9.662  0.5621  0.0791 -0.0691
13811SOL    HW248295   5.287   8.278   9.753 -2.6984  1.0865 -1.3641
13812SOL     OW48296   3.585   3.039   4.802  0.4454  0.7272 -0.1619
13812SOL    HW148297   3.519   2.971   4.817  1.7144 -0.0808  2.5813
13812SOL    HW248298   3.595   3.044   4.707 -0.9328 -1.7150 -0.5027
13813SOL     OW48299   7.183   8.752   9.364  0.0544 -0.4366 -0.4543
13813SOL    HW148300   7.201   8.839   9.399 -1.1485 -1.1109  2.0056
13813SOL    HW248301   7.203   8.760   9.270  0.4453  2.3149 -0.2239
13814SOL     OW48302   8.122   0.754   1.796 -0.1389 -0.2516 -0.1935
13814SOL    HW148303   8.033   0.749   1.761  0.0647  0.0318 -0.7722
13814SOL    HW248304   8.171   0.799   1.728  0.5565 -0.8397 -0.0877
13815SOL     OW48305  11.047   8.032   5.904  0.5657 -0.9738  0.1942
13815SOL    HW148306  11.087   8.049   5.818  1.1877 -0.2308  0.6302
13815SOL    HW248307  10.992   7.955   5.889 -0.4702 -0.0116 -1.2353
13816SOL     OW48308   0.269   5.570   3.964 -0.1170  0.4441  0.2986
13816SOL    HW148309   0.331   5.497   3.970 -0.4310  0.3037  2.2596
13816SOL    HW248310   0.296   5.617   3.885 -0.1025 -1.9516 -1.2387
13817SOL     OW48311   8.722  10.856   6.103  0.0494 -0.1396 -0.4001
13817SOL    HW148312   8.667  10.782   6.126  0.0470  0.1719  0.6632
13817SOL    HW248313   8.779  10.868   6.179  2.5760 -1.3069 -1.9617
13818SOL     OW48314   6.334  10.312   3.757  0.2814 -0.3534  0.0631
13818SOL    HW148315   6.399  10.243   3.742 -1.4984 -2.2087  0.4183
13818SOL    HW248316   6.337  10.365   3.677  0.8990 -1.5493 -0.7435
13819SOL     OW48317  11.652   8.320  10.152 -0.2928 -0.7856 -0.4155
13819SOL    HW148318  11.670   8.407  10.117 -0.3513 -0.8388 -0.5815
13819SOL    HW248319  11.561   8.324  10.182 -0.0909 -0.5988  0.1693
13820SOL     OW48320   3.292  10.145   2.066  0.0539  0.0220  0.0225
13820SOL    HW148321   3.291  10.226   2.117  0.0624 -0.4123  0.7234
13820SOL    HW248322   3.200  10.132   2.041 -0.2271 -0.5821  1.2693
13821SOL     OW48323   4.323   7.612   7.635 -0.0591 -0.6670  0.0856
13821SOL    HW148324   4.416   7.604   7.612 -0.5529 -1.6224 -1.7040
13821SOL    HW248325   4.300   7.701   7.608  0.1140 -0.7500 -0.3467
13822SOL     OW48326   7.584   1.204   4.747 -0.0466 -0.0921 -0.1862
13822SOL    HW148327   7.589   1.135   4.814 -1.4154  0.1760  0.2366
13822SOL    HW248328   7.583   1.156   4.664  2.0840 -0.4127 -0.0778
13823SOL     OW48329   8.195   1.923   9.582  0.1895 -0.0944  0.4836
13823SOL    HW148330   8.276   1.873   9.576  1.6645  1.8826  2.3625
13823SOL    HW248331   8.188   1.968   9.498  0.7972 -0.6372  0.1367
13824SOL     OW48332   7.757  10.003   0.946  0.0658  0.4050  0.1578
13824SOL    HW148333   7.666   9.975   0.958  0.0872  0.0491 -0.4582
13824SOL    HW248334   7.751  10.084   0.896  0.0243  1.3159  1.5721
13825SOL     OW48335   4.100  11.374   0.693  0.3506  0.0063 -0.2382
13825SOL    HW148336   4.021  11.404   0.648  2.3066 -0.2720 -4.3436
13825SOL    HW248337   4.128  11.449   0.746 -2.6664 -0.0084  1.6276
13826SOL     OW48338   2.717   1.951  11.996  0.2904  0.5146  0.0655
13826SOL    HW148339   2.684   2.018  11.936  2.1353  0.8912 -0.5956
13826SOL    HW248340   2.662   1.874  11.980 -1.4327  1.6250  0.3626
13827SOL     OW48341  10.042   4.444   3.051 -0.4223  0.2831 -0.1086
13827SOL    HW148342  10.015   4.467   2.962  0.1199  0.6498 -0.1832
13827SOL    HW248343  10.019   4.522   3.103 -2.9607 -0.7942  0.5627
13828SOL     OW48344   9.209   5.619   0.692  0.2116  0.3240  0.1537
13828SOL    HW148345   9.236   5.537   0.734  0.9503  1.3358  1.7746
13828SOL    HW248346   9.117   5.628   0.715  0.5187  0.6903  1.3379
13829SOL     OW48347   4.812   5.230  11.382  0.3790  0.3654  0.5328
13829SOL    HW148348   4.852   5.316  11.389  3.6644 -0.9878  0.2341
13829SOL    HW248349   4.842   5.182  11.459 -1.4178 -0.5427  0.7334
13830SOL     OW48350   2.966   0.498   9.886  0.3629  0.1728 -0.0897
13830SOL    HW148351   2.884   0.537   9.857  0.8531 -0.3362 -2.3584
13830SOL    HW248352   2.952   0.478   9.979 -2.4494 -0.8384 -0.6393
13831SOL     OW48353   8.100   6.238   4.331  0.6393  0.3721 -0.5376
13831SOL    HW148354   8.012   6.253   4.295  0.9589 -0.0549 -1.5449
13831SOL    HW248355   8.134   6.326   4.346 -0.7971  0.5795  2.1036
13832SOL     OW48356   6.280  11.353  10.666 -0.0684 -0.2820 -0.1935
13832SOL    HW148357   6.328  11.315  10.739  0.7214  2.1038  0.6470
13832SOL    HW248358   6.296  11.447  10.674 -3.2629  0.4694 -1.0440
13833SOL     OW48359  12.253   3.977   5.385  0.0625 -0.1354 -0.0138
13833SOL    HW148360  12.319   4.040   5.414  0.6163 -0.8844  0.3545
13833SOL    HW248361  12.183   3.985   5.450  0.6278 -0.7042  0.6823
13834SOL     OW48362   6.232  10.813   6.345  0.4454  0.1513  0.3839
13834SOL    HW148363   6.202  10.813   6.436 -0.2102  0.4323  0.1738
13834SOL    HW248364   6.304  10.750   6.343 -1.8750 -2.7195  0.3111
13835SOL     OW48365   2.497   7.047   5.739  0.2397 -0.1049  0.2765
13835SOL    HW148366   2.454   7.130   5.720 -2.0866 -1.1670  0.5373
13835SOL    HW248367   2.580   7.071   5.779 -0.8960  2.0983  1.4636
13836SOL     OW48368   8.583   8.145  11.316  0.3974  0.0297  0.4059
13836SOL    HW148369   8.604   8.095  11.395  0.5954 -0.4250  0.0707
13836SOL    HW248370   8.488   8.154  11.317  0.4643  0.8125  1.1610
13837SOL     OW48371  11.418   6.433   1.307 -0.1263  0.1907  0.1839
13837SOL    HW148372  11.435   6.347   1.346 -0.4025  0.0302 -0.0509
13837SOL    HW248373  11.499   6.482   1.322 -0.2577  0.1601  1.0413
13838SOL     OW48374   1.793   2.723   2.259 -0.0778  0.0790 -0.3396
13838SOL    HW148375   1.854   2.727   2.185  0.5298  1.7761  0.1977
13838SOL    HW248376   1.711   2.690   2.221 -0.0625  1.7656 -1.9731
13839SOL     OW48377   4.992   4.154   1.392 -0.2888  0.3551 -0.4201
13839SOL    HW148378   5.012   4.132   1.300 -2.4746  0.6715 -1.0256
13839SOL    HW248379   4.903   4.122   1.405 -0.5314  1.5870  1.1906
13840SOL     OW48380   1.064   5.601   0.194 -0.2309 -0.0540 -0.0468
13840SOL    HW148381   1.135   5.636   0.249 -0.0193 -0.8890  0.2147
13840SOL    HW248382   1.101   5.599   0.106  0.4565 -1.4603  0.2401
13841SOL     OW48383  10.574  10.102   2.331 -0.5340 -0.0592  0.3547
13841SOL    HW148384  10.667  10.126   2.331 -0.5827  0.2080  1.6142
13841SOL    HW248385  10.560  10.060   2.247  0.6227  0.3199 -0.0452
13842SOL     OW48386   7.424  11.151   2.105 -0.3602 -0.3190 -0.4619
13842SOL    HW148387   7.429  11.180   2.196  1.4864  1.0767 -0.9512
13842SOL    HW248388   7.340  11.105   2.099 -0.9333  0.3309  1.7093
13843SOL     OW48389  12.113   9.949   3.188  0.1549  0.4305 -0.3173
13843SOL    HW148390  12.171   9.879   3.157  0.9470  1.2089 -0.6107
13843SOL    HW248391  12.028   9.906   3.198  0.0049 -0.0386 -2.9171
13844SOL     OW48392   6.925   9.174   0.128 -0.1024 -0.3505 -0.3783
13844SOL    HW148393   6.916   9.269   0.119  1.1215 -0.2987 -1.3228
13844SOL    HW248394   6.848   9.138   0.085  0.4531  0.1948 -1.8999
13845SOL     OW48395  11.579   8.945  10.149  0.2902 -0.1642  0.0624
13845SOL    HW148396  11.596   8.987  10.233 -0.3924  1.0283 -0.3771
13845SOL    HW248397  11.495   8.901  10.161 -0.5060  1.1762 -0.3952
13846SOL     OW48398   7.468   2.265   4.889 -0.3853  0.1329  0.1039
13846SOL    HW148399   7.510   2.327   4.948  1.7992 -1.5814  0.4810
13846SOL    HW248400   7.539   2.235   4.832 -1.5024 -1.5059 -0.4826
13847SOL     OW48401   9.450  10.425   2.517 -0.2320 -0.2919  0.0959
13847SOL    HW148402   9.485  10.469   2.439 -0.7283 -0.2701 -0.1179
13847SOL    HW248403   9.400  10.351   2.483  0.1408 -0.7073  0.4303
13848SOL     OW48404   6.124   1.367   9.027  0.0132 -0.0385  0.0992
13848SOL    HW148405   6.141   1.314   8.949  0.6007  0.5173 -0.1640
13848SOL    HW248406   6.113   1.304   9.098 -0.1806 -0.5389 -0.3689
13849SOL     OW48407   4.360   3.410   8.586 -0.4304 -0.3988  0.7155
13849SOL    HW148408   4.280   3.372   8.622 -0.3957  0.6703  1.9994
13849SOL    HW248409   4.332   3.495   8.551  0.1320 -0.0464  1.1135
13850SOL     OW48410   6.449  11.709  11.933  0.1012  0.1796  0.3304
13850SOL    HW148411   6.473  11.681  12.021  2.0919  1.2192  0.1654
13850SOL    HW248412   6.525  11.689  11.880 -1.2695 -0.9372 -1.3248
13851SOL     OW48413   9.100  10.445  10.042 -0.2995 -1.0398  0.6500
13851SOL    HW148414   9.032  10.470  10.105 -0.7203 -0.2575 -0.0980
13851SOL    HW248415   9.183  10.462  10.087 -0.5681 -2.3439  1.7105
13852SOL     OW48416   1.417   9.374   8.132 -0.2757  0.6029 -0.2611
13852SOL    HW148417   1.469   9.345   8.057 -0.7102 -0.5002 -0.1560
13852SOL    HW248418   1.466   9.345   8.208 -0.1671  1.1365 -0.1236
13853SOL     OW48419   8.384   2.426   8.324  0.1506 -0.2588  0.4095
13853SOL    HW148420   8.332   2.429   8.243  1.8570 -0.7243 -0.7561
13853SOL    HW248421   8.456   2.487   8.308 -0.1917  0.6666  2.1491
13854SOL     OW48422   2.466   9.757   5.204 -0.1614 -0.5107  0.2847
13854SOL    HW148423   2.518   9.816   5.149 -0.8390  0.2595  0.4460
13854SOL    HW248424   2.504   9.766   5.291 -0.0147 -0.6209  0.2337
13855SOL     OW48425  10.158   4.131   5.524 -0.6911 -0.1577  0.1664
13855SOL    HW148426  10.100   4.088   5.462 -1.5949 -0.8071  1.4179
13855SOL    HW248427  10.100   4.168   5.590  0.2208  0.8934  0.4240
13856SOL     OW48428   1.581  10.220   4.105 -0.3444  0.2997  0.4663
13856SOL    HW148429   1.523  10.288   4.071  1.7897  2.3786  0.7160
13856SOL    HW248430   1.610  10.172   4.027 -0.9150  0.4797  0.1396
13857SOL     OW48431   9.622   9.852   7.630  0.1021 -0.1929 -0.3744
13857SOL    HW148432   9.634   9.946   7.638  1.0772 -0.2524 -0.9636
13857SOL    HW248433   9.635   9.834   7.537 -0.3153 -0.8822 -0.3078
13858SOL     OW48434   2.060   8.380   4.797 -0.9732 -0.0136  0.0383
13858SOL    HW148435   2.066   8.356   4.890  1.9955 -0.2432 -0.0964
13858SOL    HW248436   2.040   8.297   4.753 -2.6129  0.1367  0.4513
13859SOL     OW48437   9.815   4.652   1.412 -0.2302 -0.2745 -0.3311
13859SOL    HW148438   9.850   4.583   1.469  0.5960 -0.0439 -0.5398
13859SOL    HW248439   9.725   4.625   1.394 -0.9666  0.2999  2.1175
13860SOL     OW48440   5.660   4.847   7.930  0.1279  0.3088  0.0028
13860SOL    HW148441   5.674   4.798   8.011  0.6501  1.0475  0.3799
13860SOL    HW248442   5.735   4.907   7.925 -0.3640  0.8994 -0.5575
13861SOL     OW48443   8.514   5.339   1.818 -0.2842  0.3845  0.5856
13861SOL    HW148444   8.563   5.417   1.792 -0.0751  1.0686  2.8445
13861SOL    HW248445   8.466   5.314   1.739  0.1430  2.4095 -0.3877
13862SOL     OW48446   8.183  11.029   5.286 -0.4505  0.3272 -0.6329
13862SOL    HW148447   8.158  10.958   5.227 -0.0938 -0.4964  0.1800
13862SOL    HW248448   8.113  11.032   5.351  1.0610 -1.4280  1.1680
13863SOL     OW48449   0.755   2.774   2.670  0.9112 -0.1292  0.2298
13863SOL    HW148450   0.717   2.790   2.584  0.0930 -0.7693  0.4523
13863SOL    HW248451   0.827   2.714   2.654  2.0160  1.2653 -0.2243
13864SOL     OW48452   6.266   8.617  10.882  0.1766 -0.5329 -0.2982
13864SOL    HW148453   6.258   8.553  10.811  0.0007 -1.0267  0.1548
13864SOL    HW248454   6.320   8.687  10.846  0.4755 -0.9985 -0.7648
13865SOL     OW48455   5.600   4.250   4.434  0.3136 -0.7138 -0.3720
13865SOL    HW148456   5.627   4.159   4.423 -1.0047 -1.2183  0.3022
13865SOL    HW248457   5.512   4.245   4.471  0.1934  0.8425 -0.3496
13866SOL     OW48458  11.769   2.179   2.335  0.2868 -0.0811  0.2154
13866SOL    HW148459  11.677   2.177   2.308  0.1185  0.0527  0.7540
13866SOL    HW248460  11.767   2.161   2.429  0.5862  2.3204  0.7525
13867SOL     OW48461   0.718  11.834   9.052  0.4875  0.0561  0.1765
13867SOL    HW148462   0.627  11.840   9.084  1.2936  0.9692  2.4839
13867SOL    HW248463   0.709  11.821   8.958 -2.0538 -0.5430  0.4214
13868SOL     OW48464   5.206   2.222   9.305  0.7584  0.2143  0.5625
13868SOL    HW148465   5.169   2.135   9.320  2.7973 -0.8033  0.0172
13868SOL    HW248466   5.289   2.222   9.353  0.8471  1.8308  0.4683
13869SOL     OW48467   3.974   2.227   2.126  0.1962 -0.4289 -0.3441
13869SOL    HW148468   3.925   2.146   2.114 -0.1138 -0.3881  0.5329
13869SOL    HW248469   4.028   2.211   2.203  0.6496 -0.0453 -0.5808
13870SOL     OW48470   8.186  10.188   4.881 -0.2195  0.2924  0.1421
13870SOL    HW148471   8.187  10.265   4.938  1.2254  1.1797 -1.0273
13870SOL    HW248472   8.239  10.123   4.928  0.3173  0.7509  0.1754
13871SOL     OW48473   9.517   8.017   3.897 -0.0510  0.8541 -0.0926
13871SOL    HW148474   9.469   8.096   3.871  0.9447  1.8770  1.0801
13871SOL    HW248475   9.481   7.993   3.982  1.4150  1.5929  0.7713
13872SOL     OW48476   7.029   3.369   1.701 -0.2004 -0.1719 -0.1511
13872SOL    HW148477   7.068   3.315   1.631  0.8314  0.6445 -0.2364
13872SOL    HW248478   6.935   3.350   1.696  0.0176 -1.1799 -0.8439
13873SOL     OW48479   1.456   2.330  12.365  0.0688  0.3762  0.2991
13873SOL    HW148480   1.416   2.278  12.294  0.3428  0.2348  0.2469
13873SOL    HW248481   1.386   2.341  12.429 -0.0771  0.1958  0.1722
13874SOL     OW48482   0.042   5.181   1.065 -0.3139  0.1876  0.0388
13874SOL    HW148483   0.028   5.212   1.155  0.0446 -0.1920  0.2302
13874SOL    HW248484  -0.037   5.131   1.044 -0.1965 -0.1211  0.3202
13875SOL     OW48485   4.816   4.194   5.514  0.2931 -0.5138 -0.7618
13875SOL    HW148486   4.779   4.278   5.540  0.4043 -0.8006  0.3541
13875SOL    HW248487   4.835   4.204   5.420 -0.6044  0.3585 -0.8625
13876SOL     OW48488   0.008   1.973  12.418  0.6013 -0.1328  0.2919
13876SOL    HW148489   0.008   1.877  12.424 -0.3208 -0.2485 -0.9862
13876SOL    HW248490   0.063   1.992  12.342 -2.7001  0.0131 -2.2916
13877SOL     OW48491   1.913   3.236   0.411  0.3470  0.4968 -0.3250
13877SOL    HW148492   2.001   3.271   0.401  0.0560  0.9619 -1.2797
13877SOL    HW248493   1.909   3.162   0.351 -0.1039  0.8387 -0.7209
13878SOL     OW48494  12.031   7.400   1.694 -0.1917 -0.3133 -0.3627
13878SOL    HW148495  12.124   7.384   1.678 -0.1803 -0.9672  0.2962
13878SOL    HW248496  12.025   7.411   1.789 -0.9273 -1.3170 -0.2798
13879SOL     OW48497   9.041  12.217  11.938 -0.3386 -0.5582  0.3779
13879SOL    HW148498   9.129  12.244  11.965 -0.5947 -1.5227  2.3141
13879SOL    HW248499   9.003  12.296  11.899  0.7464  0.3865  1.1696
13880SOL     OW48500   8.018   0.102   7.943  0.4873  0.1538 -0.1727
13880SOL    HW148501   8.047   0.016   7.913 -1.1720 -0.5162  0.0023
13880SOL    HW248502   8.053   0.109   8.032  1.0147 -0.1501 -0.3559
13881SOL     OW48503   1.068   2.171   0.352 -0.2569  0.2412  0.1347
13881SOL    HW148504   0.994   2.120   0.384 -0.2370  0.4832  0.5713
13881SOL    HW248505   1.140   2.148   0.410  0.2634 -0.6887 -0.8503
13882SOL     OW48506  11.166   3.842   4.361  0.1958 -0.6955 -0.7957
13882SOL    HW148507  11.071   3.832   4.355  0.0305  0.6235 -0.8120
13882SOL    HW248508  11.178   3.922   4.413  1.3068 -1.0422 -0.4846
13883SOL     OW48509   0.033  11.859   5.155  0.2887 -0.3200  0.5612
13883SOL    HW148510   0.048  11.796   5.085  2.8217  0.0132  0.7125
13883SOL    HW248511  -0.062  11.863   5.164 -0.0384 -1.7303 -1.5875
13884SOL     OW48512   1.183   4.777   2.058 -0.5840 -0.5162  0.1602
13884SOL    HW148513   1.200   4.683   2.067  0.1030 -0.3239  1.0020
13884SOL    HW248514   1.264   4.813   2.024 -0.1210  0.0443  1.7651
13885SOL     OW48515  11.823   7.036   0.171  0.0364 -0.1610 -0.4805
13885SOL    HW148516  11.890   6.990   0.221 -0.4478 -1.7387 -1.2060
13885SOL    HW248517  11.871   7.106   0.125  1.1884 -1.1980 -0.9167
13886SOL     OW48518   9.644   6.409   9.955  0.3307 -0.5386 -0.1274
13886SOL    HW148519   9.594   6.345  10.006 -0.4930 -0.4949 -0.8691
13886SOL    HW248520   9.584   6.483   9.944  0.4056 -0.6452 -1.3722
13887SOL     OW48521  10.191   3.144   2.205  0.1747 -0.4787 -0.3687
13887SOL    HW148522  10.235   3.112   2.283 -0.0337 -2.2122 -0.9180
13887SOL    HW248523  10.118   3.197   2.238  2.4424  2.3333  0.5547
13888SOL     OW48524   2.028   7.428   1.059 -0.3180  0.0701  0.6881
13888SOL    HW148525   2.003   7.452   0.970 -1.1285 -3.3034 -0.1770
13888SOL    HW248526   2.115   7.390   1.051 -0.5846 -0.6935  1.1835
13889SOL     OW48527   4.340   0.533  10.008  0.2857  0.2167 -0.6903
13889SOL    HW148528   4.289   0.469  10.058  2.0588 -0.0031  0.9806
13889SOL    HW248529   4.310   0.523   9.918 -0.7108 -1.7655 -0.2004
13890SOL     OW48530   3.385   4.616  11.997  0.6495 -0.0728  0.1736
13890SOL    HW148531   3.423   4.670  11.927 -1.1518  0.8843 -0.1515
13890SOL    HW248532   3.321   4.561  11.952 -1.1434  1.1518  1.0991
13891SOL     OW48533   8.207   2.304   7.125 -0.0077 -1.2506 -0.5474
13891SOL    HW148534   8.180   2.220   7.162  0.3938 -1.2686 -0.2882
13891SOL    HW248535   8.303   2.298   7.121  0.4014  0.5862  2.9193
13892SOL     OW48536   8.572   9.760   6.726 -0.2320 -0.2282  0.0437
13892SOL    HW148537   8.588   9.803   6.810 -0.0272  0.6761 -0.4460
13892SOL    HW248538   8.647   9.784   6.672 -0.9197  0.1609 -0.7689
13893SOL     OW48539   4.050   0.899   1.934  0.4138  0.3214 -0.3623
13893SOL    HW148540   4.089   0.854   2.008 -1.8195  1.2302  1.4935
13893SOL    HW248541   4.064   0.992   1.952 -0.5567  0.5706 -0.8149
13894SOL     OW48542  10.363   2.438   9.328  0.9797 -0.4223  0.1518
13894SOL    HW148543  10.281   2.390   9.319 -0.5216  1.3255  3.0500
13894SOL    HW248544  10.364   2.498   9.253 -0.3694 -0.5456  0.0126
13895SOL     OW48545   9.912   6.072   4.436 -0.2782 -0.3898  0.3685
13895SOL    HW148546  10.006   6.054   4.437 -0.3196 -0.6164  0.4185
13895SOL    HW248547   9.874   6.002   4.490 -0.5336 -0.6461 -0.1311
13896SOL     OW48548  11.618   8.486  12.065 -0.4403  0.0323  0.3629
13896SOL    HW148549  11.561   8.521  11.996  0.1841  0.1213 -0.1230
13896SOL    HW248550  11.660   8.563  12.102 -0.5188 -0.0451  0.6102
13897SOL     OW48551   0.002  11.220   9.627 -0.3136 -0.3039  0.3779
13897SOL    HW148552   0.014  11.266   9.710 -0.1237 -0.1987  0.2901
13897SOL    HW248553   0.069  11.152   9.628  0.4159  0.3958 -0.1876
13898SOL     OW48554   8.157   6.933   8.636  0.7356 -0.3951  0.0897
13898SOL    HW148555   8.133   6.922   8.544 -0.2134 -2.0234  0.4938
13898SOL    HW248556   8.251   6.912   8.640  0.9451  0.3681 -0.5944
13899SOL     OW48557   3.880   1.001   2.805  0.6020  0.0864  0.3567
13899SOL    HW148558   3.843   1.049   2.879  0.2728 -1.1123  0.9750
13899SOL    HW248559   3.804   0.968   2.757  0.8372 -0.1550  0.1458
13900SOL     OW48560   6.325   9.944   7.999 -0.5723  0.0350 -0.2453
13900SOL    HW148561   6.260   9.886   8.040  0.2796  0.2020  1.3985
13900SOL    HW248562   6.291  10.032   8.014  0.1261  0.1348  0.8298
13901SOL     OW48563  11.665   7.919   1.557 -0.2797  0.0952 -0.0963
13901SOL    HW148564  11.710   7.872   1.627  0.7413  0.7788 -0.2684
13901SOL    HW248565  11.621   7.851   1.507 -0.8504 -0.4236  1.0754
13902SOL     OW48566   7.982   7.792   0.669 -0.0028  0.2173 -0.2078
13902SOL    HW148567   8.030   7.739   0.605 -1.2844  0.0362 -1.0664
13902SOL    HW248568   8.050   7.840   0.717  1.0755 -0.8200 -0.6561
13903SOL     OW48569   6.139   8.918   2.243 -0.4873 -0.3064  0.3651
13903SOL    HW148570   6.061   8.877   2.206  0.1421 -2.5682  1.3504
13903SOL    HW248571   6.212   8.865   2.209  0.3506 -0.3326  2.1095
13904SOL     OW48572   8.297  10.034   1.326 -0.0898  0.4965  0.0754
13904SOL    HW148573   8.352   9.964   1.362  0.3330  0.0187 -1.4388
13904SOL    HW248574   8.264  10.080   1.403  0.9119 -0.3798  1.0657
13905SOL     OW48575   0.630  10.130   6.870  0.3126  0.0217 -0.3886
13905SOL    HW148576   0.579  10.112   6.950 -1.4287  1.0728 -1.1930
13905SOL    HW248577   0.569  10.179   6.814  2.2375  1.3527 -1.4253
13906SOL     OW48578   0.743  11.281   9.820  0.1723 -0.2883  0.3148
13906SOL    HW148579   0.785  11.271   9.735 -2.5826 -0.3683 -1.1409
13906SOL    HW248580   0.734  11.192   9.853 -0.3539 -0.4103 -0.1505
13907SOL     OW48581   2.118   6.551  10.043 -0.4292  0.1985 -0.0653
13907SOL    HW148582   2.078   6.611   9.980 -1.3497 -0.5089 -0.1679
13907SOL    HW248583   2.182   6.605  10.090  0.7284  0.5951 -1.9976
13908SOL     OW48584   2.852   3.695   4.686 -0.2409  0.0459  0.4858
13908SOL    HW148585   2.861   3.790   4.697  2.1058 -0.1482  0.7087
13908SOL    HW248586   2.836   3.663   4.775 -0.3017  0.1648  0.5187
13909SOL     OW48587   8.725   6.328  10.649 -0.2684  0.5632 -0.7365
13909SOL    HW148588   8.643   6.377  10.658 -1.5857 -1.4639 -1.0446
13909SOL    HW248589   8.794   6.394  10.654 -1.9728  2.5657 -2.1386
13910SOL     OW48590   3.132   4.018   1.207 -0.7034 -0.2417  0.5816
13910SOL    HW148591   3.130   4.061   1.121  3.9118 -0.1260  0.2932
13910SOL    HW248592   3.111   3.927   1.188 -0.2447 -0.1199 -0.5997
13911SOL     OW48593   9.622   3.778   0.212  0.1951  0.1572 -0.0716
13911SOL    HW148594   9.670   3.748   0.289 -0.5058  2.5042  1.4084
13911SOL    HW248595   9.532   3.789   0.244 -0.4381 -0.2177 -1.6552
13912SOL     OW48596   0.386   6.981   7.387 -0.1413  0.2966  0.0291
13912SOL    HW148597   0.299   7.011   7.361  0.1118  0.8098 -0.2276
13912SOL    HW248598   0.441   7.058   7.380  0.3645 -0.0603  0.0570
13913SOL     OW48599   7.349  11.126   0.810 -0.2499  0.2498 -0.6946
13913SOL    HW148600   7.355  11.191   0.879 -2.8857 -0.4156  0.2767
13913SOL    HW248601   7.407  11.055   0.838 -2.3783 -0.6876  1.7479
13914SOL     OW48602   8.349   1.686   8.078 -0.0583  0.0467  0.2455
13914SOL    HW148603   8.287   1.632   8.029 -0.8703  1.1926 -0.0234
13914SOL    HW248604   8.340   1.656   8.169  0.9443 -1.5955 -0.1609
13915SOL     OW48605   8.473   5.233   8.450  0.0394 -0.3283 -0.4585
13915SOL    HW148606   8.554   5.218   8.401  0.4198 -0.4022  0.1865
13915SOL    HW248607   8.408   5.254   8.382  0.4910 -0.6956 -1.0176
13916SOL     OW48608   0.051   8.917   7.851 -0.0642  0.1913  0.1308
13916SOL    HW148609   0.087   8.996   7.890 -1.7144  0.5471  1.0045
13916SOL    HW248610   0.085   8.846   7.906  2.2398  0.1140 -1.2421
13917SOL     OW48611   8.368  12.079   0.720 -0.6026 -0.3177 -0.5932
13917SOL    HW148612   8.308  12.081   0.646  0.4580 -0.9685 -1.5032
13917SOL    HW248613   8.447  12.123   0.688  1.1289 -3.4299 -1.0623
13918SOL     OW48614   8.623   3.940   3.332  0.0258 -0.0689  0.3617
13918SOL    HW148615   8.694   3.916   3.391  0.4001  1.5648  0.6194
13918SOL    HW248616   8.631   4.035   3.322 -2.2416  0.1959  0.5479
13919SOL     OW48617   3.811   0.395   0.386 -0.3149 -0.5387 -0.3384
13919SOL    HW148618   3.905   0.390   0.369  0.0874  2.0474  0.6330
13919SOL    HW248619   3.775   0.446   0.313 -0.4884  0.6894  0.5676
13920SOL     OW48620   5.787   2.961   7.733  0.1120  0.1272 -0.3776
13920SOL    HW148621   5.753   3.050   7.724  1.0756  0.8269  2.1243
13920SOL    HW248622   5.879   2.967   7.711 -0.2006 -0.6829 -2.0387
13921SOL     OW48623   2.718   0.772  11.762 -0.2570 -0.5376  0.3421
13921SOL    HW148624   2.808   0.783  11.730  0.1462 -0.2621  1.5218
13921SOL    HW248625   2.685   0.696  11.714  1.0889 -1.5159  0.9089
13922SOL     OW48626   7.439  12.337   9.126  0.3545  0.3624 -0.1672
13922SOL    HW148627   7.496  12.319   9.201  0.9545  0.8735 -0.4884
13922SOL    HW248628   7.352  12.342   9.163  0.3937 -1.2527  0.2131
13923SOL     OW48629   9.806   0.908   5.695  0.2295 -0.7361  0.0387
13923SOL    HW148630   9.722   0.872   5.722 -0.5077 -0.3842 -1.7020
13923SOL    HW248631   9.870   0.861   5.748 -1.0330 -1.0885  1.3232
13924SOL     OW48632   8.662   6.738   7.735 -0.4165 -0.0389  0.5548
13924SOL    HW148633   8.634   6.680   7.664  0.2080  0.6710 -0.3056
13924SOL    HW248634   8.696   6.815   7.690  1.5163 -0.2428  1.5881
13925SOL     OW48635   2.304  12.236   1.825 -0.0023  0.4745 -0.3094
13925SOL    HW148636   2.231  12.175   1.824  1.7749 -1.8637  1.0482
13925SOL    HW248637   2.292  12.290   1.747 -1.9337 -1.3302 -1.3560
13926SOL     OW48638  11.952   3.360   2.180 -0.3307 -0.2302 -0.3801
13926SOL    HW148639  11.938   3.320   2.267 -0.5208  0.8412  0.0938
13926SOL    HW248640  12.026   3.312   2.144  0.7832  0.3421  1.0474
13927SOL     OW48641   4.580  11.718  11.837 -0.1717 -0.2078  0.5952
13927SOL    HW148642   4.649  11.749  11.779 -0.1365  0.2600  0.8765
13927SOL    HW248643   4.626  11.668  11.904  0.2083  1.9646  2.0746
13928SOL     OW48644   8.725   9.933  11.336  0.1293  0.3632  0.0814
13928SOL    HW148645   8.712   9.918  11.243  2.1732 -0.3650 -0.1244
13928SOL    HW248646   8.815   9.964  11.344  0.1287  0.0363  1.8451
13929SOL     OW48647   2.655   3.927   1.167  0.0517  0.2079 -0.6946
13929SOL    HW148648   2.659   3.957   1.076  1.0888 -0.4004 -0.8701
13929SOL    HW248649   2.613   3.999   1.214 -0.2232  0.6599 -1.5986
13930SOL     OW48650   5.482  10.632  11.311  0.0826 -0.1751  0.2740
13930SOL    HW148651   5.413  10.645  11.376 -0.9373 -1.4165 -0.5177
13930SOL    HW248652   5.502  10.720  11.280 -1.1088  0.2227  0.5700
13931SOL     OW48653   8.437   0.680   6.918  0.2487  0.1905  0.0545
13931SOL    HW148654   8.381   0.723   6.983 -0.7556  2.0579 -1.8973
13931SOL    HW248655   8.400   0.593   6.907 -0.3980  0.3401  0.9707
13932SOL     OW48656   4.488   6.819   3.708  0.8248  0.2113  0.8093
13932SOL    HW148657   4.410   6.846   3.659  2.6717  2.9604 -0.9306
13932SOL    HW248658   4.460   6.742   3.758 -3.1957  1.5684  0.9930
13933SOL     OW48659   2.896   7.880   2.066  0.3662  0.5378  0.1849
13933SOL    HW148660   2.967   7.936   2.035 -0.5786  0.9384 -1.3516
13933SOL    HW248661   2.850   7.853   1.987  1.0653 -2.8766  0.7649
13934SOL     OW48662   3.024  11.671   4.824 -0.3501  0.2390 -1.1092
13934SOL    HW148663   3.072  11.745   4.861  0.0609 -0.9501  0.8998
13934SOL    HW248664   3.090  11.603   4.809 -0.8847 -0.1559 -1.7567
13935SOL     OW48665  11.473   7.654   5.756  0.4059 -0.2500  0.2366
13935SOL    HW148666  11.407   7.723   5.754 -0.2378 -0.7912 -3.3540
13935SOL    HW248667  11.557   7.700   5.747  0.1738  0.1767  0.2297
13936SOL     OW48668   5.900   6.063   6.051  0.1855 -0.1754 -0.7790
13936SOL    HW148669   5.875   5.988   6.105 -1.4807  0.4717 -0.5765
13936SOL    HW248670   5.926   6.025   5.967 -0.6920 -0.9887 -0.7042
13937SOL     OW48671   9.127   1.431  12.165  0.1794  0.0667  1.1892
13937SOL    HW148672   9.034   1.453  12.176 -0.0186 -0.2343  0.2137
13937SOL    HW248673   9.136   1.413  12.072  1.4558  1.1677  1.0781
13938SOL     OW48674   8.996   7.207   8.545 -0.1488  0.9000  0.4287
13938SOL    HW148675   8.986   7.191   8.638 -0.2681 -2.5433 -0.0389
13938SOL    HW248676   9.032   7.125   8.510  0.6452  2.3336 -2.4518
13939SOL     OW48677   5.117   2.711  11.242  0.3124  0.0149 -0.4376
13939SOL    HW148678   5.154   2.731  11.329  0.7058  2.8296 -1.1546
13939SOL    HW248679   5.121   2.615  11.236  3.1796 -0.1171  1.4222
13940SOL     OW48680   0.960   6.655   1.210  0.0265  0.4795 -0.2513
13940SOL    HW148681   0.938   6.726   1.150 -1.1051  0.1974 -0.1814
13940SOL    HW248682   0.894   6.660   1.279 -0.5175 -1.0926 -0.6228
13941SOL     OW48683   3.490   3.234   2.799 -0.7213 -0.4667 -0.0073
13941SOL    HW148684   3.399   3.232   2.827 -0.6335  0.2682  0.3548
13941SOL    HW248685   3.537   3.184   2.865 -0.3881  1.9597  1.7325
13942SOL     OW48686  12.086   9.167   5.834 -0.1136 -0.1057  0.6417
13942SOL    HW148687  12.029   9.124   5.898  1.3023  0.4524  2.3555
13942SOL    HW248688  12.148   9.099   5.807  0.7345  0.2306  1.6665
13943SOL     OW48689  10.178  11.660   0.758 -0.1487  0.0197 -1.1928
13943SOL    HW148690  10.205  11.602   0.829 -2.4366 -1.3247 -1.3322
13943SOL    HW248691  10.224  11.626   0.681 -1.3512 -1.5517 -1.2422
13944SOL     OW48692   6.726   5.147   7.411 -0.5676 -0.1065  0.1603
13944SOL    HW148693   6.762   5.235   7.415 -1.0726  0.0951  3.1281
13944SOL    HW248694   6.795   5.094   7.372  0.9405  1.1227  1.0490
13945SOL     OW48695   0.260   6.268   9.566  0.3258  0.3460 -0.3554
13945SOL    HW148696   0.312   6.346   9.586  0.1851 -0.2084  2.5386
13945SOL    HW248697   0.317   6.214   9.511  2.0399  0.6624  1.0529
13946SOL     OW48698   9.753   6.037  11.438 -0.2140  0.1737  0.0896
13946SOL    HW148699   9.818   6.097  11.475 -0.8122  0.7827  0.1679
13946SOL    HW248700   9.749   5.964  11.500  1.0987 -0.3609 -0.4000
13947SOL     OW48701   8.681   9.604  10.684 -0.0253 -0.0329 -0.0527
13947SOL    HW148702   8.586   9.605  10.676  0.0032  1.9698 -0.8951
13947SOL    HW248703   8.709   9.532  10.628 -1.0080 -0.1819 -0.3761
13948SOL     OW48704   4.762   4.114   7.835  0.1774  0.4960  0.3285
13948SOL    HW148705   4.810   4.196   7.821 -0.2642  1.2656  2.8648
13948SOL    HW248706   4.827   4.054   7.872 -0.2479  0.8357  1.6842
13949SOL     OW48707  11.029   5.146   6.549  0.2115 -0.3810  0.1223
13949SOL    HW148708  11.080   5.154   6.629  1.9904  0.0611 -0.9876
13949SOL    HW248709  10.939   5.163   6.575  0.9676  1.4950  1.7185
13950SOL     OW48710   4.174  10.349   5.225 -0.5389 -0.0811  0.2891
13950SOL    HW148711   4.165  10.287   5.152 -0.9283  1.0559 -0.6519
13950SOL    HW248712   4.090  10.345   5.271 -0.8694  0.3565 -0.2691
13951SOL     OW48713   7.731   0.418   6.505 -0.0817 -0.1960 -0.3247
13951SOL    HW148714   7.781   0.499   6.492  1.6614 -0.9812  1.0192
13951SOL    HW248715   7.724   0.409   6.601 -1.2046 -1.0751 -0.4646
13952SOL     OW48716  10.740   6.452   6.862 -0.2086  0.3063  0.5057
13952SOL    HW148717  10.726   6.401   6.942 -1.3361 -2.0692 -1.0954
13952SOL    HW248718  10.832   6.437   6.840 -0.1114  0.2871  0.9252
13953SOL     OW48719   7.389  10.122   3.038 -0.3651 -0.2010  0.2816
13953SOL    HW148720   7.458  10.187   3.025 -1.0822  0.6512  0.6347
13953SOL    HW248721   7.386  10.074   2.955 -0.9998  1.3718 -0.6449
13954SOL     OW48722   6.971   2.404   3.722  0.0767  0.4320 -0.2742
13954SOL    HW148723   6.924   2.325   3.695 -0.2935  0.8723 -0.9574
13954SOL    HW248724   7.044   2.372   3.774 -0.4884 -0.3174  0.0798
13955SOL     OW48725   6.581   1.269   1.822 -0.1409  0.7076  0.0329
13955SOL    HW148726   6.652   1.333   1.826 -1.2107  1.9526 -0.4917
13955SOL    HW248727   6.594   1.224   1.739  0.6029  0.2341  0.3928
13956SOL     OW48728   9.469   6.101   1.476  0.2952  0.3898  0.4523
13956SOL    HW148729   9.483   6.150   1.558 -1.0838  0.3347  0.7525
13956SOL    HW248730   9.455   6.011   1.504  1.0648  0.1326  0.0379
13957SOL     OW48731   3.100   3.745  10.932 -0.0516  0.5066  0.3993
13957SOL    HW148732   3.103   3.691  10.853  2.2259  0.0050  0.7437
13957SOL    HW248733   3.056   3.825  10.905 -0.7730 -0.2945 -0.9296
13958SOL     OW48734  12.287   1.164   1.367  0.0854  0.4058  0.3450
13958SOL    HW148735  12.272   1.101   1.438 -0.7587  0.2354  0.0272
13958SOL    HW248736  12.341   1.116   1.304 -0.4338  0.0299  0.1721
13959SOL     OW48737   5.668  12.240  10.332 -0.4683 -0.0128  0.0167
13959SOL    HW148738   5.731  12.295  10.284 -2.2547  1.7555 -0.4482
13959SOL    HW248739   5.695  12.247  10.424  2.0165 -2.1173 -0.4473
13960SOL     OW48740   8.531  10.477   1.742  0.3303  0.4038 -0.3073
13960SOL    HW148741   8.577  10.518   1.669  1.9889  1.5459  1.2797
13960SOL    HW248742   8.447  10.522   1.746 -0.0235 -0.0689 -1.8175
13961SOL     OW48743  10.178   3.577   8.828 -0.1326  0.6700  0.1170
13961SOL    HW148744  10.194   3.516   8.756 -0.2715  2.1642 -1.2365
13961SOL    HW248745  10.192   3.525   8.908  0.7964 -0.8209 -0.9767
13962SOL     OW48746   1.710   5.356   0.179 -0.3683  0.0613 -0.4318
13962SOL    HW148747   1.772   5.415   0.221 -0.4341  1.1188 -1.7558
13962SOL    HW248748   1.734   5.269   0.213 -0.1235  0.7876  1.3597
13963SOL     OW48749   3.803  10.716   0.731 -0.3245  0.0116 -0.0812
13963SOL    HW148750   3.834  10.637   0.687  1.8622 -0.2649  1.7609
13963SOL    HW248751   3.855  10.786   0.692 -0.6528  0.2180 -0.1474
13964SOL     OW48752  10.695   9.553  10.857  0.4107  0.0301 -0.7381
13964SOL    HW148753  10.624   9.515  10.909  0.6430 -0.9322 -1.1151
13964SOL    HW248754  10.662   9.639  10.831  0.8835  1.2771  2.3299
13965SOL     OW48755  11.590   1.933   1.362  0.3595  0.3955  0.8317
13965SOL    HW148756  11.558   2.002   1.421 -1.6796 -1.4673  2.0262
13965SOL    HW248757  11.512   1.902   1.317  1.2289 -1.1143  0.3040
13966SOL     OW48758   8.305  11.544  12.443 -0.0919  0.6349  0.3024
13966SOL    HW148759   8.376  11.536  12.508 -0.5472 -0.0098  0.7351
13966SOL    HW248760   8.259  11.623  12.469  0.7082  1.2940 -0.2326
13967SOL     OW48761   2.863   4.804   0.807  0.4210  0.5954  0.3149
13967SOL    HW148762   2.805   4.772   0.877  1.0382 -0.7704  0.2313
13967SOL    HW248763   2.832   4.893   0.790 -1.3077  0.1084  0.6601
13968SOL     OW48764   4.917  12.399  11.763  0.2118  0.4288 -0.0001
13968SOL    HW148765   4.852  12.379  11.831 -0.3388  0.9334 -0.3617
13968SOL    HW248766   4.966  12.473  11.798  0.0905  0.5319 -0.0450
13969SOL     OW48767   8.409   7.986   6.247 -0.0180  0.0761  0.3386
13969SOL    HW148768   8.442   8.011   6.333  0.6100  2.0998 -0.4271
13969SOL    HW248769   8.470   8.026   6.186 -2.0387  1.1507 -1.0935
13970SOL     OW48770   5.042   2.217   5.818  0.0391 -0.0400 -0.2379
13970SOL    HW148771   5.092   2.268   5.754  0.8620  0.0324  0.4444
13970SOL    HW248772   5.074   2.127   5.807 -0.5045 -0.1971 -0.5737
13971SOL     OW48773  11.247  11.844   4.490 -0.2869  0.0762 -0.2268
13971SOL    HW148774  11.227  11.867   4.580  2.1498 -0.2992  0.4870
13971SOL    HW248775  11.294  11.920   4.455 -0.6103 -0.0504 -0.9610
13972SOL     OW48776   2.255   6.116   9.184 -0.2793  0.0002 -0.0699
13972SOL    HW148777   2.206   6.040   9.215  0.0946 -0.1196  0.2462
13972SOL    HW248778   2.346   6.086   9.180 -0.1834  0.3151 -0.3204
13973SOL     OW48779   9.506   0.507   6.212  0.2632 -0.3466 -0.1059
13973SOL    HW148780   9.593   0.535   6.182  0.6937 -1.6210 -0.0805
13973SOL    HW248781   9.471   0.584   6.257  0.3083  1.0522 -2.2993
13974SOL     OW48782   6.792   5.264   0.242  0.0287 -0.4848 -0.9950
13974SOL    HW148783   6.796   5.354   0.209  3.5593 -0.0247  0.2908
13974SOL    HW248784   6.734   5.269   0.319  2.2857  1.3979  0.7033
13975SOL     OW48785  12.256   8.049  11.375 -0.7406  0.0528  0.1317
13975SOL    HW148786  12.347   8.024  11.389 -0.7492  0.0964  0.2643
13975SOL    HW248787  12.209   7.966  11.372 -0.8419  0.0734  1.0826
13976SOL     OW48788   2.198   7.583   9.427  0.2767  0.3123  0.1876
13976SOL    HW148789   2.285   7.622   9.436 -0.4240  1.6429  2.1168
13976SOL    HW248790   2.207   7.494   9.460  0.5884  1.0355  2.2113
13977SOL     OW48791  12.224  11.581  11.005 -0.2978 -0.5182 -0.2018
13977SOL    HW148792  12.162  11.600  10.935  0.3849  2.7460 -0.0965
13977SOL    HW248793  12.173  11.592  11.086  0.2717  2.4058 -0.1060
13978SOL     OW48794  10.634   4.929   6.502  0.0214 -0.2607  0.2064
13978SOL    HW148795  10.671   4.981   6.430 -0.9165  2.9309  1.8691
13978SOL    HW248796  10.545   4.909   6.473  0.1507 -0.3691 -0.1354
13979SOL     OW48797   0.804  12.222   8.431 -0.5708  0.0866 -0.0806
13979SOL    HW148798   0.846  12.308   8.428 -1.4930  0.5539  0.1038
13979SOL    HW248799   0.864  12.164   8.383  1.3537  0.2466  1.9589
13980SOL     OW48800   7.501   9.211  10.535 -0.1625  0.3970 -0.7300
13980SOL    HW148801   7.528   9.301  10.520 -0.2525  0.3141 -1.4119
13980SOL    HW248802   7.454   9.186  10.456 -0.2505 -0.2089 -0.4945
13981SOL     OW48803   2.991   8.333   3.630 -0.5513  0.9277  0.3559
13981SOL    HW148804   3.006   8.411   3.683  1.6230  1.0644 -0.3603
13981SOL    HW248805   2.979   8.263   3.693 -0.3648  1.4738  1.0118
13982SOL     OW48806   0.501   5.231   6.773  0.5534 -0.1416 -0.0607
13982SOL    HW148807   0.583   5.209   6.728  1.7022 -0.9583  2.2904
13982SOL    HW248808   0.507   5.186   6.857 -1.9786  0.4511  0.5055
13983SOL     OW48809   5.328  11.697   9.216  0.3980  0.4766  0.4856
13983SOL    HW148810   5.375  11.651   9.285 -0.1150 -0.3366  0.3109
13983SOL    HW248811   5.319  11.632   9.146 -2.2056  0.1066  1.0592
13984SOL     OW48812   2.935   2.391   4.148  0.2466 -0.3374 -0.5508
13984SOL    HW148813   2.943   2.306   4.106  0.7045 -0.7865  0.4092
13984SOL    HW248814   2.962   2.376   4.239 -0.1940  0.7104 -0.2239
13985SOL     OW48815  11.395   4.921   8.314 -0.2562 -0.2883  0.1207
13985SOL    HW148816  11.432   4.833   8.311  2.9791  0.9025 -3.1295
13985SOL    HW248817  11.363   4.937   8.225  0.5912  2.2616  0.1848
13986SOL     OW48818   5.401   5.176   5.487 -0.3573 -0.3521  0.3965
13986SOL    HW148819   5.432   5.099   5.439  2.6359  1.8412 -1.6387
13986SOL    HW248820   5.333   5.213   5.430  1.9369  1.2558 -1.5168
13987SOL     OW48821   5.845  11.787   7.856 -0.3882 -0.2174 -0.4735
13987SOL    HW148822   5.922  11.748   7.897 -0.0095 -0.4246 -1.3537
13987SOL    HW248823   5.837  11.741   7.772 -1.4620 -0.1879 -0.4014
13988SOL     OW48824   7.146   6.294   1.895 -0.0207 -0.1598  0.2389
13988SOL    HW148825   7.167   6.201   1.893 -1.7075 -0.5798  0.5856
13988SOL    HW248826   7.067   6.302   1.842  0.8373  1.3080 -0.8934
13989SOL     OW48827  12.358   1.337   3.588 -0.1023 -0.2177  0.2534
13989SOL    HW148828  12.268   1.309   3.608  0.0326 -1.2043 -0.4588
13989SOL    HW248829  12.386   1.385   3.666 -1.7447  1.3583 -0.0495
13990SOL     OW48830   6.438   0.518   6.799  0.4206 -0.7825  0.2298
13990SOL    HW148831   6.358   0.468   6.818  0.7824 -1.5375 -0.1718
13990SOL    HW248832   6.487   0.517   6.882  1.1464 -2.4825 -0.1717
13991SOL     OW48833   0.855  12.380   9.953 -0.1396  0.4164 -0.2249
13991SOL    HW148834   0.933  12.326   9.968  1.2120  2.2181 -0.3637
13991SOL    HW248835   0.877  12.431   9.875 -1.0469  1.6895  0.3242
13992SOL     OW48836   2.231   0.214  10.307  0.6191  0.1793 -0.4316
13992SOL    HW148837   2.262   0.139  10.359  0.4822 -0.5916 -1.4281
13992SOL    HW248838   2.157   0.179  10.257 -0.3793  1.3778  0.1639
13993SOL     OW48839  10.332   6.364   2.167 -1.1037  0.7383  0.4254
13993SOL    HW148840  10.257   6.347   2.110 -0.5766  0.0037 -0.0637
13993SOL    HW248841  10.312   6.448   2.208 -0.5434  2.4338 -2.4710
13994SOL     OW48842   9.236   5.158   2.085 -0.1215  0.3053  0.6616
13994SOL    HW148843   9.180   5.133   2.012  0.1220 -0.0053  0.5801
13994SOL    HW248844   9.309   5.095   2.083  1.5680  2.1659 -0.7546
13995SOL     OW48845   4.324   0.949   6.517 -0.3942  0.1994 -0.4279
13995SOL    HW148846   4.274   0.869   6.537 -0.7567 -0.0159 -2.0068
13995SOL    HW248847   4.272   1.020   6.554 -0.2291 -0.2669  0.7238
13996SOL     OW48848   4.355  10.357   1.123  0.2558  0.4601  0.4874
13996SOL    HW148849   4.303  10.434   1.098  0.5921  0.6255  0.2921
13996SOL    HW248850   4.389  10.323   1.040  0.5456  0.4135  0.6243
13997SOL     OW48851   0.077   9.118   0.784 -0.2921  0.1203 -0.8015
13997SOL    HW148852   0.135   9.052   0.746 -1.3295 -1.6429  0.5027
13997SOL    HW248853   0.127   9.155   0.856 -1.1008 -2.2443  1.0847
13998SOL     OW48854   0.155   2.082  12.167  0.2816  0.2910 -0.1959
13998SOL    HW148855   0.134   1.990  12.150 -0.0932  0.2708  0.3476
13998SOL    HW248856   0.167   2.121  12.080 -1.8517  0.2560 -0.5583
13999SOL     OW48857   9.738   6.154   6.119  0.2005  0.1123  0.3769
13999SOL    HW148858   9.788   6.089   6.169  0.5784  0.1137  0.0071
13999SOL    HW248859   9.802   6.193   6.060 -0.2168  0.1862 -0.0344
14000SOL     OW48860   6.446   2.977   7.224 -0.0090 -0.6523  0.1872
14000SOL    HW148861   6.426   2.937   7.308 -0.0236 -2.5828 -0.6609
14000SOL    HW248862   6.370   3.031   7.203  1.3559  2.6825  2.8770
14001SOL     OW48863  10.392   6.334   4.124 -0.9088  0.6556 -0.3392
14001SOL    HW148864  10.446   6.340   4.045  1.2688  1.4979  1.1013
14001SOL    HW248865  10.339   6.414   4.123 -2.5864 -0.3884 -1.9934
14002SOL     OW48866  10.558   7.207   6.956  0.1610 -0.3346  0.0148
14002SOL    HW148867  10.596   7.295   6.954  0.7217 -0.5913 -0.7945
14002SOL    HW248868  10.602   7.160   6.886 -0.1669 -1.2568  0.4169
14003SOL     OW48869  10.592   5.824   4.954  0.0366  0.0474  0.0839
14003SOL    HW148870  10.653   5.870   5.012  0.1397  0.9017 -0.6774
14003SOL    HW248871  10.642   5.807   4.875 -0.8345  1.3022 -0.8005
14004SOL     OW48872   0.588   9.220   2.838  0.1533 -0.2824  0.7919
14004SOL    HW148873   0.624   9.232   2.750  3.2286 -2.0377  1.6445
14004SOL    HW248874   0.521   9.152   2.828 -0.3921  0.3875 -0.3331
14005SOL     OW48875   3.089   9.637   8.402 -0.0868 -0.1185  0.2792
14005SOL    HW148876   3.005   9.656   8.360 -0.9255 -1.2507  1.3878
14005SOL    HW248877   3.095   9.700   8.473  1.1357  1.5108 -1.1671
14006SOL     OW48878   3.215  10.592   1.988  0.0013  0.0278  0.0994
14006SOL    HW148879   3.256  10.566   2.070 -0.8859 -1.6029  0.0727
14006SOL    HW248880   3.262  10.543   1.920  0.0320  0.5471 -0.2682
14007SOL     OW48881   7.379  12.055   0.773  0.7351 -0.7576 -0.5027
14007SOL    HW148882   7.440  12.123   0.745  0.9829  0.0328  1.8094
14007SOL    HW248883   7.430  11.974   0.770  1.4133 -0.3484 -0.1766
14008SOL     OW48884   7.724   6.471   1.550 -0.3433 -0.5365  0.3175
14008SOL    HW148885   7.778   6.530   1.604 -0.8445 -0.5633  0.8613
14008SOL    HW248886   7.751   6.383   1.577 -0.5242 -0.5497  0.4590
14009SOL     OW48887  11.783  11.602   2.076 -0.6442  0.8641 -0.4181
14009SOL    HW148888  11.780  11.696   2.091  1.9415  0.7798  1.1759
14009SOL    HW248889  11.759  11.564   2.160  0.8902  0.1663 -0.2698
14010SOL     OW48890   4.789   6.551   0.559  0.0310  0.2752  0.2723
14010SOL    HW148891   4.882   6.533   0.549  0.0110  0.0739  0.4171
14010SOL    HW248892   4.763   6.595   0.478 -0.3636 -2.2168 -1.0590
14011SOL     OW48893   2.316   9.060  12.256 -0.3637 -0.3150 -0.6160
14011SOL    HW148894   2.369   9.088  12.181 -1.7010 -1.3190 -1.9868
14011SOL    HW248895   2.380   9.027  12.320  0.8677  1.4044 -0.8960
14012SOL     OW48896   6.689  12.237   9.698 -0.2134 -0.3029  0.4772
14012SOL    HW148897   6.758  12.229   9.764  0.0485  0.0293  0.2433
14012SOL    HW248898   6.733  12.216   9.616 -0.5374 -0.7065  0.4014
14013SOL     OW48899   8.733  11.024   3.282 -0.1270  0.2945  0.3306
14013SOL    HW148900   8.791  11.098   3.299 -0.2773  0.5325 -0.1521
14013SOL    HW248901   8.654  11.063   3.244  0.5587 -0.2465 -1.7849
14014SOL     OW48902   3.455   0.444   2.800  0.1686 -0.4404  0.0658
14014SOL    HW148903   3.407   0.460   2.881  1.0659  0.3709  0.4508
14014SOL    HW248904   3.401   0.380   2.753 -0.2743 -1.0684  1.3746
14015SOL     OW48905   2.015   7.016   0.011  0.1790  0.2335 -0.6806
14015SOL    HW148906   1.953   6.977  -0.051 -0.1050 -1.5256  0.6216
14015SOL    HW248907   2.066   7.077  -0.041 -0.4400 -0.7411 -2.5196
14016SOL     OW48908   3.403   5.819   7.207 -0.0469  0.0595  0.3469
14016SOL    HW148909   3.488   5.812   7.250  0.8197 -2.2349 -1.4691
14016SOL    HW248910   3.402   5.907   7.170  1.6938  0.0572  0.1911
14017SOL     OW48911   9.586   9.320   3.230  0.7824  0.5370 -0.2540
14017SOL    HW148912   9.671   9.363   3.240  0.4242  0.7543  4.4267
14017SOL    HW248913   9.607   9.228   3.217  2.0823  0.0952  3.5168
14018SOL     OW48914   1.860   2.724   4.542 -0.3643  0.0538 -0.2497
14018SOL    HW148915   1.765   2.726   4.556 -0.2054  0.5534  0.9147
14018SOL    HW248916   1.887   2.638   4.574 -0.3384  0.1888  0.0969
14019SOL     OW48917   5.699   2.127   4.648  0.0533  0.0224  0.0092
14019SOL    HW148918   5.712   2.181   4.570 -0.7053  0.0671 -0.0940
14019SOL    HW248919   5.692   2.038   4.615  1.2585 -0.1458  0.1757
14020SOL     OW48920  10.073   1.823   5.280  0.2712  0.2356 -0.8020
14020SOL    HW148921  10.154   1.875   5.279  0.6370 -0.3267 -0.8606
14020SOL    HW248922  10.076   1.774   5.198  0.3882 -0.5623 -0.3303
14021SOL     OW48923   0.438   7.261   3.102  0.1793 -0.0236  0.6950
14021SOL    HW148924   0.462   7.245   3.010  1.1920  0.5928  0.8371
14021SOL    HW248925   0.396   7.180   3.130  2.5094 -1.3451  0.5444
14022SOL     OW48926   3.091   8.253   4.191  0.0126  0.0469  0.0487
14022SOL    HW148927   3.015   8.283   4.240 -1.4017 -0.4633 -1.7332
14022SOL    HW248928   3.152   8.327   4.193 -1.3352  1.1924 -0.1017
14023SOL     OW48929   0.836   9.188   2.924  0.1877 -0.4009  0.3395
14023SOL    HW148930   0.828   9.215   3.015 -0.3604  1.2716 -0.1740
14023SOL    HW248931   0.747   9.164   2.898  0.4450 -1.4702  0.3960
14024SOL     OW48932   2.164   9.645   4.279  0.2213 -0.3898  0.3538
14024SOL    HW148933   2.089   9.586   4.286  0.4646 -0.8470 -0.6647
14024SOL    HW248934   2.136   9.714   4.219  0.9515 -1.1372 -0.8831
14025SOL     OW48935   1.274   7.688   0.288 -0.3301  0.1409 -0.3806
14025SOL    HW148936   1.184   7.713   0.269 -1.1089 -0.2805  2.2708
14025SOL    HW248937   1.304   7.754   0.352  0.3369 -1.1129  0.6486
14026SOL     OW48938  12.340   3.492  11.905 -0.1592  0.0412  0.2725
14026SOL    HW148939  12.261   3.438  11.905  0.1980 -0.5174 -0.7039
14026SOL    HW248940  12.309   3.582  11.901 -0.7499 -0.1657  0.1881
14027SOL     OW48941  10.492   2.251   5.425 -0.3941  0.3698 -0.0078
14027SOL    HW148942  10.417   2.305   5.400 -1.3685 -0.0478  1.7990
14027SOL    HW248943  10.562   2.314   5.442 -0.6279  0.8378 -0.7200
14028SOL     OW48944   2.164   7.714   3.519 -0.9776  0.3033  0.1305
14028SOL    HW148945   2.146   7.656   3.445  0.6587  0.1357 -0.1757
14028SOL    HW248946   2.141   7.801   3.487 -2.5769 -0.0339  0.2802
14029SOL     OW48947   8.503   3.266   7.935 -0.2395 -0.4367  0.0200
14029SOL    HW148948   8.544   3.343   7.897  2.9327 -2.2253 -0.5741
14029SOL    HW248949   8.469   3.217   7.859 -1.2925 -0.1702  0.3010
14030SOL     OW48950  10.778   2.612   1.938  0.9064  0.3886  0.9632
14030SOL    HW148951  10.781   2.563   2.020  0.6541 -1.6869 -0.1938
14030SOL    HW248952  10.702   2.669   1.946  0.6809 -0.0405  2.0193
14031SOL     OW48953   9.754  10.133   5.940  0.0914 -0.3466 -0.0032
14031SOL    HW148954   9.811  10.092   6.005  1.5054 -3.2000 -2.7947
14031SOL    HW248955   9.812  10.193   5.892 -0.3790  0.0500 -0.0859
14032SOL     OW48956   8.959   2.257   3.843 -0.6622 -0.3302 -0.0488
14032SOL    HW148957   8.977   2.253   3.937  0.3082 -3.3516 -0.2552
14032SOL    HW248958   9.014   2.188   3.805 -0.7339  1.0348 -2.9093
14033SOL     OW48959   6.675   5.818   5.010 -0.1942  0.4537  0.0333
14033SOL    HW148960   6.637   5.902   4.985  0.1928  0.4111 -0.7213
14033SOL    HW248961   6.691   5.773   4.927  1.0629  0.2813  0.3503
14034SOL     OW48962   8.380   3.420   1.267  0.2461 -0.0521  0.2505
14034SOL    HW148963   8.292   3.409   1.303  0.1891 -0.8939 -0.1363
14034SOL    HW248964   8.413   3.500   1.309 -1.0079  0.7480 -0.2189
14035SOL     OW48965  11.142   8.183   7.503  0.1887 -0.9045 -0.2073
14035SOL    HW148966  11.130   8.182   7.408 -0.2237  0.7226 -0.2004
14035SOL    HW248967  11.159   8.275   7.524  0.9290 -1.3424  1.2228
14036SOL     OW48968   2.481   9.616  11.524 -0.1813 -0.8883 -0.5754
14036SOL    HW148969   2.438   9.683  11.579  2.5165 -0.0947  0.7211
14036SOL    HW248970   2.497   9.543  11.584  1.6619 -0.5268 -0.5938
14037SOL     OW48971  10.289  12.233   8.914 -0.0291 -0.2815 -0.5579
14037SOL    HW148972  10.277  12.200   8.825 -1.3326 -0.6212 -0.2773
14037SOL    HW248973  10.315  12.157   8.965 -0.7768 -0.4135 -0.3620
14038SOL     OW48974   4.317   8.387   3.275 -0.5465 -0.1250  0.5401
14038SOL    HW148975   4.275   8.406   3.192 -1.7599 -0.2126  1.1051
14038SOL    HW248976   4.375   8.461   3.291  0.6185 -0.6798 -0.9405
14039SOL     OW48977   6.500   4.424  12.016 -0.7334 -1.0688 -0.3947
14039SOL    HW148978   6.529   4.374  11.940  0.6205 -1.1355  0.1334
14039SOL    HW248979   6.513   4.365  12.090  0.4951 -0.1139  0.1862
14040SOL     OW48980   0.505   7.124   9.021 -0.0551 -0.5549 -0.6131
14040SOL    HW148981   0.410   7.128   9.013  0.0670  0.5742 -2.0630
14040SOL    HW248982   0.525   7.172   9.101 -0.6545  0.2976 -0.9542
14041SOL     OW48983   6.975   4.381   0.371 -0.2765  0.1201 -0.0808
14041SOL    HW148984   6.922   4.338   0.304  1.1773 -0.4055 -0.9475
14041SOL    HW248985   7.044   4.425   0.321  0.0299  0.8997  0.9968
14042SOL     OW48986   9.635   7.636   4.847 -0.4531 -0.2013  0.4779
14042SOL    HW148987   9.684   7.712   4.877  1.1101 -0.8025 -0.4215
14042SOL    HW248988   9.630   7.646   4.752 -0.3964 -1.1204  0.3653
14043SOL     OW48989   8.876   4.378   1.951 -0.1933 -0.5664  0.4036
14043SOL    HW148990   8.925   4.395   2.031  1.8726  0.9678 -1.0888
14043SOL    HW248991   8.824   4.458   1.938  2.8378  1.2503 -1.9705
14044SOL     OW48992   9.791   9.348   5.305  0.4157 -0.3381 -0.2853
14044SOL    HW148993   9.731   9.323   5.235  0.4957  1.4652 -1.0468
14044SOL    HW248994   9.795   9.444   5.301  2.2417 -0.3216  0.6626
14045SOL     OW48995   1.941   7.169   3.906  0.0437 -0.2448  0.2527
14045SOL    HW148996   1.967   7.134   3.991 -0.2024 -2.4301 -0.5264
14045SOL    HW248997   1.852   7.136   3.892 -0.7150  1.7465 -0.0145
14046SOL     OW48998  11.619   2.503   6.337 -0.2771  0.0314 -0.7091
14046SOL    HW148999  11.679   2.509   6.262 -0.3530  0.1196 -0.7635
14046SOL    HW249000  11.642   2.578   6.392  0.2466 -0.4170 -0.2941
14047SOL     OW49001   2.403  10.056   1.284  0.1146  0.2759 -0.2103
14047SOL    HW149002   2.483  10.068   1.232 -0.2154  1.1260 -0.5472
14047SOL    HW249003   2.351   9.993   1.234  0.9593 -1.0181  0.4860
14048SOL     OW49004   1.614   8.250   0.634 -0.0151  0.0482  0.3539
14048SOL    HW149005   1.610   8.278   0.725 -1.5268 -0.8889  0.6120
14048SOL    HW249006   1.706   8.229   0.620  0.1511 -0.3440  1.8335
14049SOL     OW49007   0.656   8.814  11.517  0.0507 -0.0788  0.0690
14049SOL    HW149008   0.680   8.900  11.483  2.2071 -0.4933  0.3652
14049SOL    HW249009   0.592   8.833  11.586  0.2575  1.2678 -0.0716
14050SOL     OW49010   7.608   7.262   2.425 -0.4228 -0.1682 -0.0362
14050SOL    HW149011   7.533   7.322   2.426 -0.3052 -0.0213  0.7754
14050SOL    HW249012   7.612   7.230   2.335 -0.8145  0.6334 -0.3480
14051SOL     OW49013   1.975  10.299   3.027  0.1515 -0.0173 -0.5820
14051SOL    HW149014   1.940  10.258   3.106  1.7812 -0.3656 -0.0054
14051SOL    HW249015   2.023  10.229   2.983  0.6104  0.5723 -1.0387
14052SOL     OW49016   8.582   2.096  10.377 -0.1894  0.0140  0.1307
14052SOL    HW149017   8.572   2.190  10.364  1.5737  0.2336  0.0662
14052SOL    HW249018   8.629   2.066  10.299 -0.6152 -0.9012  0.2100
14053SOL     OW49019  11.673   9.521   5.428 -0.1600 -0.2541  0.2671
14053SOL    HW149020  11.588   9.503   5.470 -0.4231  0.7688  0.1951
14053SOL    HW249021  11.657   9.504   5.335 -0.6326  1.0377  0.0886
14054SOL     OW49022  10.064   7.515  10.078  0.0317  0.3044 -0.2679
14054SOL    HW149023  10.099   7.597  10.111  1.4490 -0.4775  0.2549
14054SOL    HW249024  10.091   7.513   9.986  2.2159 -0.6929  0.3501
14055SOL     OW49025  12.471   3.073  11.464 -0.0308 -0.1707  0.4560
14055SOL    HW149026  12.414   3.121  11.525 -0.3362 -0.1187  0.1322
14055SOL    HW249027  12.504   3.140  11.404 -0.6600 -0.3921 -0.1558
14056SOL     OW49028   0.601  10.840  11.445  0.1853  0.5185 -0.0336
14056SOL    HW149029   0.563  10.833  11.533 -1.6779  0.9451 -0.7626
14056SOL    HW249030   0.584  10.930  11.419 -0.6768 -0.0064 -1.4151
14057SOL     OW49031   0.672   7.631   9.943 -0.0366 -0.2007  0.1475
14057SOL    HW149032   0.687   7.546   9.985 -1.0916 -0.2505  0.4494
14057SOL    HW249033   0.602   7.671   9.995  0.2258  0.7136 -0.1963
14058SOL     OW49034   5.534  11.580  10.773 -0.4312 -0.3364  0.5567
14058SOL    HW149035   5.591  11.638  10.822  0.6820  0.5603 -1.6537
14058SOL    HW249036   5.477  11.639  10.723  0.2551 -1.0917 -1.2091
14059SOL     OW49037   8.427   0.106   2.414  0.2053  0.3836  0.6212
14059SOL    HW149038   8.514   0.134   2.384 -0.7673  1.4319 -1.4054
14059SOL    HW249039   8.407   0.030   2.360 -1.1271  1.6485 -0.7663
14060SOL     OW49040   5.908  12.176   0.596  0.0926  0.1321  0.3944
14060SOL    HW149041   5.992  12.132   0.579  0.2022 -0.3807  2.1269
14060SOL    HW249042   5.843  12.107   0.590 -0.3802  0.6758 -1.8051
14061SOL     OW49043   8.465  10.128   3.646  0.1993 -0.1940  0.1199
14061SOL    HW149044   8.447  10.198   3.583 -1.3297 -0.3119  0.3935
14061SOL    HW249045   8.398  10.138   3.713  1.1703 -0.7135  1.2048
14062SOL     OW49046   6.298   3.104   1.036 -0.4247  0.0320  0.2463
14062SOL    HW149047   6.259   3.187   1.011 -0.4906  0.2657  1.0969
14062SOL    HW249048   6.390   3.113   1.011 -0.3578  0.4994  0.6278
14063SOL     OW49049   1.263   6.096   1.289 -0.4203 -0.1900 -0.1676
14063SOL    HW149050   1.186   6.076   1.237 -0.8473 -2.9868  1.3444
14063SOL    HW249051   1.228   6.120   1.375  0.3557  0.8245 -0.1186
14064SOL     OW49052  12.195  11.404   1.140 -0.6580  0.8763 -0.1665
14064SOL    HW149053  12.141  11.482   1.153 -2.0936  0.1417 -1.3036
14064SOL    HW249054  12.141  11.332   1.173  0.1849  0.2541 -0.1190
14065SOL     OW49055   7.150   6.448   3.833  0.6407  0.0970 -0.1626
14065SOL    HW149056   7.072   6.395   3.822  0.3125  0.0993  1.6952
14065SOL    HW249057   7.169   6.443   3.927  0.9926  2.6976 -0.0245
14066SOL     OW49058  12.070   3.670   2.079 -0.3349  0.1955 -0.1018
14066SOL    HW149059  12.123   3.747   2.064  0.8705 -1.0508 -2.8070
14066SOL    HW249060  12.011   3.695   2.151  0.1554  3.4917 -0.7035
14067SOL     OW49061   7.727   2.132   6.919 -0.1775  0.3338  0.0602
14067SOL    HW149062   7.654   2.088   6.875  0.1375 -0.8068  0.6367
14067SOL    HW249063   7.803   2.110   6.865 -0.0251  0.2176  0.3229
14068SOL     OW49064   0.787   0.250   2.601  0.5165  0.2853  0.0354
14068SOL    HW149065   0.747   0.241   2.515 -0.9528 -1.2784  0.8259
14068SOL    HW249066   0.881   0.253   2.583  0.2355  0.3002 -1.6289
14069SOL     OW49067   0.684   5.488   5.674  0.0164  0.1178  0.0708
14069SOL    HW149068   0.734   5.411   5.702  0.3026  0.6259  0.9959
14069SOL    HW249069   0.686   5.483   5.578  1.2116 -0.2807  0.0918
14070SOL     OW49070  11.649   3.191   3.901 -0.2147 -0.2806  0.1223
14070SOL    HW149071  11.673   3.119   3.843 -0.7778 -0.7182  0.4171
14070SOL    HW249072  11.689   3.169   3.985 -1.0676 -0.6823  0.4383
14071SOL     OW49073   7.395  10.209  11.562  0.7843 -0.6643  0.0651
14071SOL    HW149074   7.429  10.289  11.602 -0.6200  0.4577 -0.8956
14071SOL    HW249075   7.381  10.150  11.636 -0.5265  0.8983  1.1316
14072SOL     OW49076  12.460   2.876   2.287  0.2838 -0.5356 -0.0860
14072SOL    HW149077  12.394   2.888   2.219  2.7517  1.3096 -2.3700
14072SOL    HW249078  12.431   2.932   2.359 -1.0154 -0.3208 -0.7513
14073SOL     OW49079  11.803   9.804   3.578  0.3655 -0.2067 -0.8484
14073SOL    HW149080  11.754   9.828   3.657 -0.5482  3.4105 -2.3326
14073SOL    HW249081  11.893   9.793   3.609 -0.2986 -0.9851  0.9791
14074SOL     OW49082  11.297   6.158   4.878  0.7288  0.6089  0.0865
14074SOL    HW149083  11.203   6.168   4.896  0.7460 -1.3147  1.6469
14074SOL    HW249084  11.301   6.094   4.807  0.7686 -2.3936  2.5407
14075SOL     OW49085   7.791   5.526   3.029 -0.1969  0.5560 -0.7368
14075SOL    HW149086   7.832   5.608   2.999 -1.1927  1.7363  0.9414
14075SOL    HW249087   7.821   5.517   3.119  0.2148 -1.1983 -1.0168
14076SOL     OW49088  11.530  12.461  11.292  0.1554 -0.5046  0.1309
14076SOL    HW149089  11.581  12.404  11.234 -0.8422 -0.4312 -0.8563
14076SOL    HW249090  11.595  12.506  11.345  1.1174 -0.5469 -0.9729
14077SOL     OW49091   8.163  12.267  10.450  0.3670  0.1475  0.1085
14077SOL    HW149092   8.126  12.219  10.524 -1.9943  0.0871 -1.0251
14077SOL    HW249093   8.169  12.357  10.480  0.6573 -0.0904  0.7842
14078SOL     OW49094   4.324   6.675   7.694  0.0797  0.0516 -0.1475
14078SOL    HW149095   4.365   6.590   7.707  1.3007  0.8743  1.9441
14078SOL    HW249096   4.396   6.732   7.666  0.1100  1.1192  1.8613
14079SOL     OW49097   1.852  11.508   0.156  0.4209  0.1365 -0.0070
14079SOL    HW149098   1.935  11.517   0.110 -0.0197 -0.5001 -0.9750
14079SOL    HW249099   1.851  11.417   0.186 -0.3339 -0.1451 -0.8506
14080SOL     OW49100  11.858   4.975   8.691  0.3252  0.3431  0.2561
14080SOL    HW149101  11.829   5.037   8.624 -1.5411 -0.0944  0.6187
14080SOL    HW249102  11.954   4.976   8.684  0.2074 -0.1113 -2.8284
14081SOL     OW49103   8.271  11.191   9.444  0.3660 -0.4068 -0.1308
14081SOL    HW149104   8.270  11.152   9.531  0.7203 -0.0116  0.0544
14081SOL    HW249105   8.241  11.121   9.385  0.5436 -0.8049  0.2519
14082SOL     OW49106   9.367   1.927   8.968  0.1197 -0.4282 -0.4209
14082SOL    HW149107   9.295   1.867   8.989 -0.6538  0.4834 -0.3659
14082SOL    HW249108   9.366   1.932   8.872  1.7179 -2.2821 -0.6010
14083SOL     OW49109   8.909   1.417   0.876  0.1164  0.5993  0.3560
14083SOL    HW149110   8.831   1.409   0.820  0.3811  1.3899 -0.1376
14083SOL    HW249111   8.923   1.328   0.910 -0.6767  0.3345  0.0141
14084SOL     OW49112   8.669   7.577   2.475 -0.5899  0.1306  0.4549
14084SOL    HW149113   8.699   7.570   2.384 -0.2533  0.4269  0.5400
14084SOL    HW249114   8.591   7.521   2.479  0.4051 -1.3333  0.4147
14085SOL     OW49115  11.293   7.997   8.095  0.1272  0.0900 -0.4058
14085SOL    HW149116  11.366   8.058   8.103  0.6782 -0.1615 -2.6153
14085SOL    HW249117  11.229   8.027   8.159  0.7430  2.4256 -0.7802
14086SOL     OW49118   6.999   3.451   9.916  0.7635 -0.1377  0.7225
14086SOL    HW149119   6.992   3.411   9.830 -0.0664  1.1337  0.1703
14086SOL    HW249120   7.072   3.512   9.910 -0.5043  1.3919  0.2825
14087SOL     OW49121   1.779   1.860   9.843  0.4230 -0.0413  0.0185
14087SOL    HW149122   1.705   1.813   9.805  0.0792  0.6423 -0.1715
14087SOL    HW249123   1.739   1.930   9.894  0.9557  1.4374 -1.5195
14088SOL     OW49124   7.405   1.410   6.785  0.2203  0.6161  0.1331
14088SOL    HW149125   7.401   1.505   6.775  1.1376  0.7075  0.5401
14088SOL    HW249126   7.491   1.386   6.750 -0.5250 -0.2309 -1.1687
14089SOL     OW49127   8.073   3.238   3.135 -0.0465  0.6843 -0.0809
14089SOL    HW149128   8.111   3.190   3.208  0.8095  1.0918 -0.2483
14089SOL    HW249129   8.141   3.301   3.109 -0.4944  0.8290 -0.9548
14090SOL     OW49130   2.694   3.989   6.215  0.1964 -0.3165  0.0192
14090SOL    HW149131   2.739   3.929   6.274 -1.0728 -0.2786  1.0600
14090SOL    HW249132   2.601   3.965   6.222  0.0791 -1.0609 -2.8245
14091SOL     OW49133   5.471   1.396   0.559 -0.6852 -0.2215  0.3918
14091SOL    HW149134   5.408   1.401   0.486  0.7362 -0.3672 -0.9075
14091SOL    HW249135   5.552   1.430   0.521 -0.0699  0.3431  2.1437
14092SOL     OW49136   3.149  11.505   9.765  0.4029 -0.5114  0.3006
14092SOL    HW149137   3.199  11.572   9.812 -0.2664 -0.1644  0.5297
14092SOL    HW249138   3.167  11.521   9.672 -2.6179  2.4154  0.0362
14093SOL     OW49139   7.210   8.904   1.600  0.6546  0.3126  0.1289
14093SOL    HW149140   7.177   8.887   1.511  0.7570 -0.6937  0.2772
14093SOL    HW249141   7.144   8.961   1.639 -0.1903 -0.5011 -0.0742
14094SOL     OW49142  10.346   1.023  11.081  0.0023 -0.1782  0.0459
14094SOL    HW149143  10.403   0.971  11.024  1.8944  1.5142  0.3015
14094SOL    HW249144  10.377   1.004  11.169 -0.9897 -0.5279  0.3407
14095SOL     OW49145   5.630   6.860   0.744  0.1635  0.3137  0.4054
14095SOL    HW149146   5.561   6.906   0.792  1.1837 -0.0431  2.2930
14095SOL    HW249147   5.675   6.929   0.695 -0.5626  0.7738  0.3678
14096SOL     OW49148   2.107   9.605   2.578  0.3193 -0.1594  0.0281
14096SOL    HW149149   2.093   9.614   2.672  1.0311 -0.7568  0.2030
14096SOL    HW249150   2.075   9.518   2.557  1.5641 -0.6422  0.0191
14097SOL     OW49151   4.843   4.372   7.179 -0.1914 -0.1601 -0.0059
14097SOL    HW149152   4.774   4.318   7.141 -0.4008  1.4115 -2.0469
14097SOL    HW249153   4.918   4.313   7.187 -1.3336 -1.5471  1.0056
14098SOL     OW49154  10.621   2.492  12.034  0.2768  0.2944  0.1071
14098SOL    HW149155  10.559   2.433  11.990  1.3617 -0.5508 -0.3441
14098SOL    HW249156  10.627   2.568  11.977 -1.5118  1.0963  0.9354
14099SOL     OW49157   7.683   8.938   4.480 -0.4547 -0.3766 -0.0213
14099SOL    HW149158   7.685   8.926   4.385  1.5385 -0.6449  0.0179
14099SOL    HW249159   7.618   8.874   4.511 -2.1575  0.6411 -1.2749
14100SOL     OW49160   0.054   4.337   6.839 -0.3321 -0.3624  1.1987
14100SOL    HW149161  -0.035   4.329   6.874 -0.7047 -0.6165  0.2304
14100SOL    HW249162   0.111   4.329   6.916 -1.0984 -1.4368  1.6730
14101SOL     OW49163   9.703   2.437  10.832 -0.5696  0.3451  0.4145
14101SOL    HW149164   9.713   2.342  10.824  0.8498  0.3115  2.0942
14101SOL    HW249165   9.612   2.453  10.808 -1.5513 -1.7614  2.3665
14102SOL     OW49166   1.646   7.449   4.516  0.4647  0.5963 -0.0190
14102SOL    HW149167   1.612   7.398   4.589 -1.2306  0.1398 -1.0491
14102SOL    HW249168   1.644   7.389   4.441  0.7653  1.4471 -0.7376
14103SOL     OW49169   5.808   1.885   5.227 -0.0787 -0.0161 -0.0868
14103SOL    HW149170   5.868   1.841   5.167  1.4563  1.2971  0.4436
14103SOL    HW249171   5.845   1.972   5.240 -1.6482  0.5493  0.9422
14104SOL     OW49172   7.430   8.120   2.748  0.4983 -0.1197  0.2285
14104SOL    HW149173   7.444   8.029   2.775  1.7432 -0.7519 -2.2676
14104SOL    HW249174   7.379   8.158   2.820 -0.4590 -2.8828  1.1642
14105SOL     OW49175   5.174   8.562   3.876 -0.1442  0.6075 -0.2543
14105SOL    HW149176   5.196   8.584   3.785  0.6337 -0.2681 -0.2922
14105SOL    HW249177   5.093   8.609   3.893 -0.6026  0.3325 -1.5884
14106SOL     OW49178   3.649   1.254   7.445 -0.6592 -0.6065 -0.7764
14106SOL    HW149179   3.589   1.283   7.376 -1.2365 -1.0262 -0.4551
14106SOL    HW249180   3.633   1.315   7.517  0.0427 -0.0817 -1.0463
14107SOL     OW49181  10.246   2.232   6.693  0.2523  0.4329 -0.2727
14107SOL    HW149182  10.239   2.326   6.711 -0.9611  0.7739 -2.2974
14107SOL    HW249183  10.160   2.197   6.713  0.7258 -0.3206  0.5592
14108SOL     OW49184   7.829  10.739   4.596 -0.2357  0.1613  0.0470
14108SOL    HW149185   7.737  10.748   4.569 -0.2249 -1.9905 -0.9369
14108SOL    HW249186   7.825  10.716   4.689 -0.8305 -1.6754 -0.4031
14109SOL     OW49187   8.541   0.741  11.140  0.2232  0.8226  0.0820
14109SOL    HW149188   8.539   0.678  11.212 -0.6077  1.4980  0.6703
14109SOL    HW249189   8.601   0.702  11.076 -0.1964 -0.5186  0.4653
14110SOL     OW49190   4.698   7.957   7.161 -0.4149 -0.4968  0.3175
14110SOL    HW149191   4.636   8.007   7.108 -0.2458  0.1048  0.6765
14110SOL    HW249192   4.785   7.986   7.132 -0.2990 -1.0779  0.0614
14111SOL     OW49193   3.257   1.625   1.956 -0.8809  0.3214 -0.4119
14111SOL    HW149194   3.245   1.709   2.000  0.3197 -0.1516  0.8752
14111SOL    HW249195   3.190   1.568   1.992 -1.0251  0.4335 -0.5048
14112SOL     OW49196  10.973   3.930   0.558  0.1572  0.4031 -0.7068
14112SOL    HW149197  10.886   3.901   0.530  0.1805  0.6855 -1.0725
14112SOL    HW249198  11.025   3.850   0.562  0.1105  0.3427 -1.3080
14113SOL     OW49199   3.672   5.524   7.704  0.0030  0.4331 -0.1725
14113SOL    HW149200   3.664   5.614   7.736  3.1640  0.9046 -0.3948
14113SOL    HW249201   3.709   5.476   7.777  0.2355 -0.2173 -0.7096
14114SOL     OW49202  11.501   3.696   1.674  0.1890 -0.3931 -0.5309
14114SOL    HW149203  11.502   3.603   1.652 -0.6844 -0.6322  0.3664
14114SOL    HW249204  11.581   3.709   1.726 -0.0162 -0.7867 -0.1123
14115SOL     OW49205  10.072   2.501   3.125  0.0109  0.3605 -0.8052
14115SOL    HW149206  10.156   2.487   3.081  0.3433 -0.3484  0.0208
14115SOL    HW249207  10.007   2.474   3.061  0.3014  2.5676 -2.1042
14116SOL     OW49208   1.829  11.247   1.985 -0.1333 -0.1405  0.0942
14116SOL    HW149209   1.909  11.259   2.036  0.7804  0.9430 -1.5093
14116SOL    HW249210   1.821  11.152   1.975  0.9355 -0.2684  0.3098
14117SOL     OW49211  12.121   0.319   6.543 -0.3458  0.1993 -0.0900
14117SOL    HW149212  12.196   0.358   6.498  2.6065 -1.1498  3.1698
14117SOL    HW249213  12.099   0.382   6.611 -1.1146 -0.1382 -0.0191
14118SOL     OW49214   8.306  10.010   0.006 -0.0156 -0.3432  0.1969
14118SOL    HW149215   8.354  10.085   0.043 -1.1532  1.4948 -1.8105
14118SOL    HW249216   8.350   9.993  -0.077 -0.0079 -1.7310  0.4621
14119SOL     OW49217   2.711   0.913   0.355 -0.1207 -0.2086 -0.1378
14119SOL    HW149218   2.740   0.914   0.264 -0.9428  0.6636 -0.4032
14119SOL    HW249219   2.648   0.840   0.358 -0.6635  0.2364 -0.4638
14120SOL     OW49220   1.278   6.758   8.920  0.1327 -0.7331  0.0696
14120SOL    HW149221   1.232   6.679   8.948 -0.7942  0.0676  0.8818
14120SOL    HW249222   1.269   6.819   8.993  0.2092  0.3745 -0.8063
14121SOL     OW49223   9.965   5.357   7.713 -0.6489  0.1155  0.0597
14121SOL    HW149224   9.901   5.299   7.752 -0.4436 -0.6284 -0.6893
14121SOL    HW249225   9.917   5.406   7.646 -0.5562 -0.0467 -0.1256
14122SOL     OW49226   2.442   9.704  11.884 -0.1508 -0.5468 -0.8548
14122SOL    HW149227   2.391   9.737  11.810 -1.6585 -1.0824 -0.0908
14122SOL    HW249228   2.393   9.732  11.961  0.4234 -1.5555 -0.1033
14123SOL     OW49229  12.262   1.698  12.188  0.1492 -0.0378  0.3123
14123SOL    HW149230  12.282   1.632  12.254  0.6319 -1.2382 -0.9717
14123SOL    HW249231  12.174   1.728  12.210  0.4662 -0.0865  1.7275
14124SOL     OW49232  11.670   0.588   0.204  0.3145  0.2124 -0.0463
14124SOL    HW149233  11.715   0.672   0.218 -1.6178  1.3614 -0.3794
14124SOL    HW249234  11.706   0.530   0.271  1.7284  1.2698  0.1635
14125SOL     OW49235   3.722   2.763  12.168 -0.2109  0.1424 -0.1925
14125SOL    HW149236   3.742   2.752  12.261 -3.0045 -1.1062  0.3514
14125SOL    HW249237   3.636   2.806  12.167 -0.7019 -0.7981 -2.1585
14126SOL     OW49238   1.730   7.758   3.930  0.3674  0.3624 -0.4882
14126SOL    HW149239   1.744   7.704   3.852  0.3370  0.9207 -0.8820
14126SOL    HW249240   1.816   7.796   3.948  0.4244  0.0604 -0.1166
14127SOL     OW49241   1.119  10.146   5.098 -0.2203  0.6881  0.0984
14127SOL    HW149242   1.125  10.057   5.133 -0.1561  0.5788 -0.1878
14127SOL    HW249243   1.107  10.201   5.175 -1.6169  0.2989  0.1710
14128SOL     OW49244  11.064   7.217   4.796 -0.1901 -0.1503 -0.1478
14128SOL    HW149245  11.157   7.214   4.818 -0.2973  0.4766  0.4584
14128SOL    HW249246  11.030   7.133   4.826 -0.2154  0.4539  1.6957
14129SOL     OW49247  10.024   2.335   6.990  0.1138  0.1475  0.0722
14129SOL    HW149248  10.118   2.317   6.995  0.6008  2.6549  2.0434
14129SOL    HW249249   9.990   2.309   7.076 -0.3422  2.2028  0.5532
14130SOL     OW49250   2.270  11.816   9.220  0.5041  0.6410  0.2587
14130SOL    HW149251   2.279  11.738   9.275  1.0060 -0.5643 -1.4088
14130SOL    HW249252   2.350  11.816   9.167  0.4120  2.2022  0.0795
14131SOL     OW49253   8.532  11.476  11.179 -0.1906  0.2292 -0.0434
14131SOL    HW149254   8.591  11.407  11.209 -2.0527 -1.0353  0.9248
14131SOL    HW249255   8.572  11.557  11.211  1.0784 -0.5639  0.4525
14132SOL     OW49256   4.398  11.275   3.287 -0.0829 -0.4841  0.0144
14132SOL    HW149257   4.399  11.179   3.285  0.5333 -0.4793 -1.6039
14132SOL    HW249258   4.486  11.299   3.315 -0.3333 -0.3750  0.7321
14133SOL     OW49259   0.459  10.705   8.277 -0.1706 -0.3414 -0.2380
14133SOL    HW149260   0.415  10.744   8.202  0.5948  0.7969 -0.1261
14133SOL    HW249261   0.537  10.664   8.241  0.7107  1.0475  0.0224
14134SOL     OW49262   9.212   1.251  10.226  0.5628  0.3175 -0.1295
14134SOL    HW149263   9.134   1.266  10.280  0.4055 -0.3833 -0.1572
14134SOL    HW249264   9.178   1.249  10.136  0.8645  1.7859 -0.2959
14135SOL     OW49265   8.028   1.091  12.112 -0.0806 -0.5334 -0.0765
14135SOL    HW149266   8.057   1.008  12.148 -1.5044 -0.9865  0.1149
14135SOL    HW249267   7.936   1.075  12.088 -0.4676  1.0647  0.2440
14136SOL     OW49268   6.992   0.860   0.373 -0.1794 -0.4819 -0.3352
14136SOL    HW149269   6.974   0.885   0.463 -0.7625  0.5757 -0.7260
14136SOL    HW249270   6.905   0.845   0.334  0.0646 -0.9551 -0.7055
14137SOL     OW49271  10.040   7.112   3.607  0.3947 -0.1339 -0.0434
14137SOL    HW149272  10.064   7.203   3.590  0.1201 -0.2465 -1.1499
14137SOL    HW249273   9.981   7.115   3.681 -0.0493  0.6537 -0.4220
14138SOL     OW49274   4.412  12.100   0.753 -0.2006  0.0167  0.3366
14138SOL    HW149275   4.395  12.098   0.847 -1.6303 -0.5576  0.0904
14138SOL    HW249276   4.503  12.070   0.744 -0.6656 -1.9092  1.4201
14139SOL     OW49277   8.746  10.223   9.200  0.1193  0.6803 -0.4166
14139SOL    HW149278   8.769  10.315   9.215 -1.7513  1.3134 -1.1799
14139SOL    HW249279   8.715  10.220   9.109 -1.6698 -0.2889  0.1771
14140SOL     OW49280   2.361   0.646   2.434  0.2370 -0.0484 -0.2088
14140SOL    HW149281   2.385   0.556   2.411 -0.0305  0.0998 -1.1057
14140SOL    HW249282   2.341   0.687   2.350  0.0595  0.7635  0.2271
14141SOL     OW49283   9.927   0.557   5.145 -0.0792  0.0605  0.2171
14141SOL    HW149284   9.952   0.644   5.175 -1.2148  0.7132 -0.6679
14141SOL    HW249285   9.842   0.540   5.187  0.1770 -0.6644  0.4622
14142SOL     OW49286   7.878   7.372   5.662 -0.5911 -0.9131 -0.5158
14142SOL    HW149287   7.826   7.311   5.609 -0.2558 -2.0201  0.3884
14142SOL    HW249288   7.957   7.323   5.684  0.1008  0.1701 -0.4956
14143SOL     OW49289   2.487   6.018   9.850 -0.1260 -0.0523 -0.5155
14143SOL    HW149290   2.411   6.065   9.816 -1.3927 -1.4620  0.2843
14143SOL    HW249291   2.503   6.056   9.936  0.9052  1.0983 -1.1714
14144SOL     OW49292  12.462   3.089   5.854  0.4620  0.0660  0.3107
14144SOL    HW149293  12.382   3.086   5.907 -0.5369 -1.1930 -1.1619
14144SOL    HW249294  12.459   3.175   5.812 -0.1888  0.0024  0.2032
14145SOL     OW49295   5.679   4.787   5.856 -0.2714  0.1006  0.0359
14145SOL    HW149296   5.625   4.742   5.921  1.4376 -1.5830  0.3655
14145SOL    HW249297   5.736   4.719   5.821  0.2287  1.3931 -1.7977
14146SOL     OW49298   8.146   8.892   7.866  0.3644 -0.2433  0.1097
14146SOL    HW149299   8.151   8.932   7.779 -1.1083  2.2170  1.0295
14146SOL    HW249300   8.177   8.961   7.925  0.5557 -1.5592  1.6135
14147SOL     OW49301  11.189   9.158   1.579 -0.0171 -0.6140  0.1192
14147SOL    HW149302  11.166   9.212   1.654  0.1234 -1.7475  1.0129
14147SOL    HW249303  11.212   9.220   1.510  0.0846  0.4502  1.0885
14148SOL     OW49304   3.507   6.312  11.339  0.2248 -0.5691 -0.4944
14148SOL    HW149305   3.571   6.316  11.410  0.7265 -0.6231 -0.9336
14148SOL    HW249306   3.560   6.298  11.260 -0.3561 -0.9626 -0.8203
14149SOL     OW49307   3.179   6.637  10.587  0.2956 -0.2924 -0.2843
14149SOL    HW149308   3.103   6.629  10.529  1.0858 -0.6147 -1.2975
14149SOL    HW249309   3.145   6.682  10.665 -0.7324  0.3626 -1.0866
14150SOL     OW49310   4.573  12.294   2.765  0.3978 -0.5939  0.5595
14150SOL    HW149311   4.571  12.208   2.723 -0.6102  0.0834 -0.8544
14150SOL    HW249312   4.521  12.283   2.845  0.1374 -1.2615  0.3050
14151SOL     OW49313   3.889   3.707  11.181 -0.6099 -0.3871 -0.2330
14151SOL    HW149314   3.975   3.666  11.187 -0.3004  0.4060  3.2553
14151SOL    HW249315   3.828   3.640  11.215 -0.7364  0.3952  1.1543
14152SOL     OW49316   4.329   9.291  11.475 -0.1286 -0.0368  0.2462
14152SOL    HW149317   4.289   9.276  11.561 -0.7940 -0.5151 -0.1377
14152SOL    HW249318   4.421   9.308  11.494 -0.5768  1.5043  1.1921
14153SOL     OW49319   2.124   3.462   1.374  0.3724 -0.1316  0.1340
14153SOL    HW149320   2.056   3.508   1.422  0.7982 -0.5755  1.1910
14153SOL    HW249321   2.198   3.456   1.435  0.6332 -1.4350 -0.2621
14154SOL     OW49322   5.755   0.611  11.941  0.7010  0.7080 -0.0933
14154SOL    HW149323   5.735   0.530  11.895 -0.5696  1.9986 -1.9911
14154SOL    HW249324   5.706   0.605  12.023 -0.8921  0.3059 -1.0296
14155SOL     OW49325   9.467  10.867   8.417  0.3495 -0.3823 -0.2686
14155SOL    HW149326   9.392  10.905   8.461 -0.8041 -1.6675 -1.0494
14155SOL    HW249327   9.518  10.943   8.388 -0.7081  0.5219  0.1486
14156SOL     OW49328   5.779   6.789   8.354 -0.1064  0.6267  0.0040
14156SOL    HW149329   5.871   6.786   8.378 -0.5373  1.3230  1.9769
14156SOL    HW249330   5.752   6.878   8.376 -1.2645  0.4087 -0.4716
14157SOL     OW49331   4.840   4.492   0.791  0.4167 -0.0276 -0.8442
14157SOL    HW149332   4.834   4.531   0.704 -1.2460  0.2841 -0.6018
14157SOL    HW249333   4.816   4.400   0.777  2.5693 -0.6083 -1.1018
14158SOL     OW49334   1.466   8.591   4.808 -0.1928 -0.2750 -0.4063
14158SOL    HW149335   1.438   8.503   4.781  0.9375 -0.6234 -0.5015
14158SOL    HW249336   1.462   8.643   4.727 -1.0564 -0.1811 -0.3078
14159SOL     OW49337   4.196   6.278   8.671  0.8197  0.5566  0.0008
14159SOL    HW149338   4.176   6.299   8.580 -1.7079 -0.4311  0.2720
14159SOL    HW249339   4.194   6.182   8.675  0.1434  0.6058  1.2459
14160SOL     OW49340   6.459   4.642   1.559  0.3542  0.1365 -0.0466
14160SOL    HW149341   6.413   4.666   1.639  0.3311 -0.6712  0.1883
14160SOL    HW249342   6.392   4.645   1.491  0.1446 -0.1872  0.1436
14161SOL     OW49343   8.126   4.840  11.075 -0.0580 -0.3135 -0.3433
14161SOL    HW149344   8.087   4.909  11.021 -1.2671 -0.2174  0.6037
14161SOL    HW249345   8.053   4.806  11.127  0.7450 -1.5347  0.0279
14162SOL     OW49346   1.098  10.951   5.885  0.1666 -0.1495  0.5756
14162SOL    HW149347   1.130  10.880   5.831 -2.2737 -2.2895  1.7158
14162SOL    HW249348   1.136  10.936   5.971  0.1459  0.3067  0.6705
14163SOL     OW49349   9.767  11.808   9.824 -0.1438 -0.1943  0.5840
14163SOL    HW149350   9.822  11.825   9.747 -2.3048 -0.7472 -1.1741
14163SOL    HW249351   9.715  11.732   9.799 -2.3422  0.8319  1.8159
14164SOL     OW49352   2.318   2.957   8.588  0.0425 -0.0318 -0.1625
14164SOL    HW149353   2.305   2.862   8.583 -0.3173  0.0767 -1.8170
14164SOL    HW249354   2.383   2.976   8.520  1.1385  0.7653  1.0531
14165SOL     OW49355   6.804   1.802   3.197 -0.5830 -0.2092  0.1611
14165SOL    HW149356   6.737   1.818   3.130  0.4517  0.9996 -0.6209
14165SOL    HW249357   6.832   1.890   3.224 -0.6275 -0.6772  1.8429
14166SOL     OW49358  10.928   3.222   0.138  0.9056 -0.2117  0.2765
14166SOL    HW149359  10.847   3.176   0.162  1.5243 -1.2220  0.4619
14166SOL    HW249360  10.946   3.193   0.049  0.5661  0.7583 -0.1275
14167SOL     OW49361  11.731   3.346  11.093 -0.1867  0.0813  0.1877
14167SOL    HW149362  11.650   3.380  11.131 -0.2973  0.2635 -0.2080
14167SOL    HW249363  11.702   3.288  11.023  0.0243  0.3173 -0.0989
14168SOL     OW49364   3.400   5.929  12.163 -0.2435 -0.0584  0.2061
14168SOL    HW149365   3.478   5.922  12.219 -1.0085 -0.7440  1.2214
14168SOL    HW249366   3.348   5.998  12.204 -1.0254 -0.8851  0.6334
14169SOL     OW49367   0.199   9.825   5.902  0.6723 -0.2167 -0.4233
14169SOL    HW149368   0.225   9.914   5.881  0.1141  0.3207  1.0382
14169SOL    HW249369   0.242   9.807   5.986 -1.4879 -0.2372  0.7633
14170SOL     OW49370   7.651   3.453   1.335 -0.2595  0.0734 -0.1394
14170SOL    HW149371   7.662   3.364   1.368 -1.9898 -0.3137 -0.5283
14170SOL    HW249372   7.581   3.490   1.389 -0.5390  0.7163 -0.9265
14171SOL     OW49373  10.237   4.735   8.425  0.4923  0.3534  0.4390
14171SOL    HW149374  10.329   4.730   8.398  0.3593 -0.6315  0.1431
14171SOL    HW249375  10.229   4.822   8.466  1.0920  1.2231 -1.1900
14172SOL     OW49376   6.243   4.986   8.668 -1.0443 -0.0064 -0.1203
14172SOL    HW149377   6.201   4.951   8.589  1.3523  0.7283 -1.8325
14172SOL    HW249378   6.227   5.080   8.664  1.5075  0.4870 -1.4672
14173SOL     OW49379   3.149  11.328   8.943 -0.2736  0.0258  0.8479
14173SOL    HW149380   3.144  11.254   8.882  1.2971 -0.0714  0.8098
14173SOL    HW249381   3.095  11.396   8.902  0.9236  0.0370 -0.7809
14174SOL     OW49382  10.614   3.342   4.354 -0.3307  0.0186  0.3262
14174SOL    HW149383  10.595   3.431   4.327 -0.7633 -0.4291 -0.9043
14174SOL    HW249384  10.531   3.308   4.387 -0.3678 -0.1860  0.0293
14175SOL     OW49385   0.533   1.156  11.829 -0.2824 -0.4207  0.5245
14175SOL    HW149386   0.558   1.098  11.900  1.1500 -0.2739  0.1727
14175SOL    HW249387   0.501   1.235  11.872 -0.8113 -0.8799  0.9908
14176SOL     OW49388   5.973   5.880  10.365 -0.3061  0.0968 -0.0234
14176SOL    HW149389   5.968   5.957  10.422  1.2620 -1.7857  2.9552
14176SOL    HW249390   6.053   5.892  10.315  0.2457  0.1983  0.8509
14177SOL     OW49391   1.782   5.362  10.855  0.0741  0.3110  0.7790
14177SOL    HW149392   1.858   5.304  10.859 -0.4936 -0.4407  0.7791
14177SOL    HW249393   1.774   5.385  10.763  1.3291  1.7946  1.0017
14178SOL     OW49394  11.603   5.512  12.154  0.4887 -0.3692  0.0293
14178SOL    HW149395  11.575   5.440  12.098  3.9031 -1.0577 -0.9790
14178SOL    HW249396  11.628   5.470  12.236 -1.7117  0.3068  1.1328
14179SOL     OW49397   6.047  11.608   4.037 -0.6600  0.5042 -0.3782
14179SOL    HW149398   6.075  11.645   4.121 -1.5931  0.3767  0.0010
14179SOL    HW249399   6.126  11.568   4.001 -0.5152 -0.5069  1.0042
14180SOL     OW49400   8.283   4.558  10.979 -0.1478 -0.7106 -0.4562
14180SOL    HW149401   8.349   4.608  10.931 -0.6158 -0.7695 -1.1697
14180SOL    HW249402   8.303   4.574  11.071  1.7536 -1.8486 -0.6123
14181SOL     OW49403  11.348   3.792   1.041 -0.0040  0.1902 -0.3449
14181SOL    HW149404  11.389   3.705   1.042 -0.4294 -0.0158 -0.4994
14181SOL    HW249405  11.378   3.834   1.122  2.9792  1.2155 -1.8225
14182SOL     OW49406   5.752  10.740   4.635 -0.4767  0.5939  0.3662
14182SOL    HW149407   5.732  10.716   4.544 -1.8087  0.8459  0.5624
14182SOL    HW249408   5.733  10.834   4.639  0.3052  0.7411  0.7256
14183SOL     OW49409   8.586   7.312   4.224  0.2895  0.5452 -0.5377
14183SOL    HW149410   8.521   7.246   4.248  0.2891  0.8249  0.2664
14183SOL    HW249411   8.539   7.395   4.230  0.5930  0.7086 -0.4263
14184SOL     OW49412   7.755   3.246  11.623 -0.2128  0.7946 -0.0412
14184SOL    HW149413   7.796   3.285  11.546 -1.5405 -0.3148 -1.3651
14184SOL    HW249414   7.684   3.192  11.588 -0.4661 -0.2428  1.9178
14185SOL     OW49415   5.969   6.797   0.635  0.1247  0.3604 -0.0668
14185SOL    HW149416   5.896   6.774   0.577 -0.9264 -0.6350  1.5701
14185SOL    HW249417   5.991   6.715   0.678  1.2337  0.9730  0.5619
14186SOL     OW49418   6.426   2.730  10.814  0.2768  0.7586 -0.2708
14186SOL    HW149419   6.344   2.769  10.784  0.8078  2.8937  0.8182
14186SOL    HW249420   6.429   2.750  10.908  1.2697 -0.7615  0.0630
14187SOL     OW49421   7.623   7.652   3.132 -0.0064 -1.0325  0.0677
14187SOL    HW149422   7.662   7.722   3.183 -0.4580 -1.1363  0.5560
14187SOL    HW249423   7.696   7.618   3.080  0.8842 -2.0228  1.8492
14188SOL     OW49424   9.954   8.168   6.386  0.0423  0.3442  0.2170
14188SOL    HW149425   9.973   8.261   6.397  1.2496  0.3400 -1.4701
14188SOL    HW249426   9.859   8.163   6.383 -0.0827  1.3437  1.5164
14189SOL     OW49427   6.171   6.652   5.102  0.1856  0.2642  0.2053
14189SOL    HW149428   6.257   6.684   5.130  0.2308  0.7117 -0.4255
14189SOL    HW249429   6.136   6.721   5.046 -0.8742  0.3588  0.9658
14190SOL     OW49430  11.802   9.678   9.520  0.2925 -0.1297 -0.4261
14190SOL    HW149431  11.880   9.638   9.558  1.1193  0.1372 -1.7612
14190SOL    HW249432  11.770   9.737   9.588  1.5417  0.1219 -0.0208
14191SOL     OW49433   2.648   4.101  11.815 -0.1945  0.0457 -0.3144
14191SOL    HW149434   2.630   4.189  11.781  1.2722  0.4002 -0.2227
14191SOL    HW249435   2.731   4.076  11.775 -0.3811 -1.1264  0.0013
14192SOL     OW49436   7.485  11.774   0.749 -0.4885  0.1242  0.1881
14192SOL    HW149437   7.501  11.769   0.655 -0.6319 -0.6154  0.1949
14192SOL    HW249438   7.528  11.696   0.785  0.6808  1.0506  0.9047
14193SOL     OW49439   8.264  11.591  11.203 -0.0401 -0.0180 -0.9445
14193SOL    HW149440   8.228  11.522  11.258 -0.5100 -0.4013 -1.7048
14193SOL    HW249441   8.341  11.552  11.162  0.6115  0.4337 -0.1824
14194SOL     OW49442   8.131   6.463   9.606  0.2249 -0.2129 -0.2784
14194SOL    HW149443   8.189   6.518   9.658  1.0368 -1.4007  0.1094
14194SOL    HW249444   8.092   6.522   9.542  1.6747  0.6692 -0.3873
14195SOL     OW49445  11.557  11.544   0.711 -0.3357 -0.2062  0.6384
14195SOL    HW149446  11.614  11.470   0.693 -1.0535 -0.8830  1.0547
14195SOL    HW249447  11.517  11.524   0.795  0.2065  1.1433  1.2414
14196SOL     OW49448   9.182   9.339   0.691  0.2699  0.5251 -0.2225
14196SOL    HW149449   9.275   9.359   0.695  0.3049  0.5736 -1.1566
14196SOL    HW249450   9.139   9.414   0.731  0.5103  1.5939 -1.8815
14197SOL     OW49451   9.227   7.623   0.327 -0.3445  0.3625 -0.3130
14197SOL    HW149452   9.242   7.598   0.418 -1.2454 -1.3862 -0.6137
14197SOL    HW249453   9.307   7.597   0.282 -0.4558 -0.0769 -0.2604
14198SOL     OW49454  11.440   8.657   4.779 -0.5403  0.0102  0.0156
14198SOL    HW149455  11.498   8.687   4.849 -0.0606 -2.7139  0.9014
14198SOL    HW249456  11.354   8.651   4.819 -0.0605 -2.6411  0.8132
14199SOL     OW49457   3.544   8.279   7.939 -0.1263 -0.1148 -0.4780
14199SOL    HW149458   3.601   8.325   7.878 -0.3257  0.0966 -0.5046
14199SOL    HW249459   3.512   8.347   7.998  1.1197 -0.5094  0.7025
14200SOL     OW49460   1.705   2.553  11.817 -0.1098 -0.1689  0.0666
14200SOL    HW149461   1.695   2.462  11.845  0.5450  0.1050  1.2375
14200SOL    HW249462   1.695   2.605  11.897 -3.8592  1.0888 -1.0049
14201SOL     OW49463   8.508  12.280   3.220  0.2058  0.1526  0.1983
14201SOL    HW149464   8.503  12.235   3.135  1.8727 -0.4128  0.3698
14201SOL    HW249465   8.475  12.368   3.201  2.6822  0.8074 -1.6506
14202SOL     OW49466   8.221   1.249  10.238  0.4075 -0.0876  0.2943
14202SOL    HW149467   8.276   1.214  10.169  0.6047  0.4498  0.1724
14202SOL    HW249468   8.258   1.335  10.257 -1.2380  0.9159 -0.8036
14203SOL     OW49469   5.707   2.755   7.337  0.3582 -0.5953  0.8199
14203SOL    HW149470   5.616   2.746   7.366 -0.2452 -0.9059 -0.9907
14203SOL    HW249471   5.721   2.850   7.333 -1.5535 -0.2400 -3.2453
14204SOL     OW49472   6.985   2.306   1.327  0.5492 -0.2335  0.3192
14204SOL    HW149473   6.980   2.395   1.361  2.5191 -0.0902  0.3686
14204SOL    HW249474   7.057   2.265   1.376  0.9591 -1.2149 -1.0338
14205SOL     OW49475   1.976   7.654  10.073  0.1952  0.2402  0.3025
14205SOL    HW149476   1.910   7.652  10.004  0.6800 -0.6582 -0.1380
14205SOL    HW249477   1.928   7.684  10.151 -0.2763  1.6112 -0.4767
14206SOL     OW49478   9.435   3.456  11.675  0.2462 -0.3917 -0.6355
14206SOL    HW149479   9.401   3.537  11.715  0.1035 -1.5224  1.6957
14206SOL    HW249480   9.520   3.443  11.718  0.4894 -1.2186 -1.3610
14207SOL     OW49481  12.280   7.062   1.656 -0.2194 -0.1773  0.4513
14207SOL    HW149482  12.227   7.055   1.735 -0.5516 -0.5458  0.1990
14207SOL    HW249483  12.229   7.118   1.598 -0.5524 -0.8988  0.0368
14208SOL     OW49484   6.263   9.643   4.575 -0.3413  0.2161 -0.1032
14208SOL    HW149485   6.355   9.647   4.601 -0.4902  0.8654  0.3400
14208SOL    HW249486   6.232   9.733   4.580 -1.1021 -0.0447  0.1269
14209SOL     OW49487  10.822   4.043  10.286  0.0641  0.4186 -0.6935
14209SOL    HW149488  10.898   4.036  10.344  0.4749  0.7674 -1.1736
14209SOL    HW249489  10.749   4.062  10.345  0.4686  0.7539 -0.2845
14210SOL     OW49490   4.078   4.325   7.942 -0.6506  0.2550 -0.1220
14210SOL    HW149491   4.018   4.397   7.925 -1.2363 -0.5974 -1.8618
14210SOL    HW249492   4.033   4.270   8.006 -0.9491  0.5346 -0.0910
14211SOL     OW49493   4.813  12.365   8.790 -0.2238 -0.4018 -0.1125
14211SOL    HW149494   4.770  12.386   8.873  1.7844  0.5059  0.7608
14211SOL    HW249495   4.792  12.273   8.775 -0.8025 -0.5227  1.2910
14212SOL     OW49496   0.370   3.336   6.932 -0.5076 -0.3510  0.0001
14212SOL    HW149497   0.379   3.372   6.843 -2.4630  0.9153  0.2668
14212SOL    HW249498   0.453   3.290   6.947 -0.3589 -1.1599 -2.7193
14213SOL     OW49499   8.744   0.639   1.277  0.5151 -1.1189  0.1455
14213SOL    HW149500   8.833   0.674   1.272  0.2511 -0.5067 -0.6693
14213SOL    HW249501   8.702   0.671   1.197 -0.2844 -1.8299  0.2655
14214SOL     OW49502   1.421  11.518  12.087  0.1815 -0.0216 -0.1851
14214SOL    HW149503   1.349  11.515  12.024 -0.7052 -0.4337  0.8129
14214SOL    HW249504   1.494  11.476  12.041 -0.3719 -0.1122 -1.0202
14215SOL     OW49505  11.681  10.870   2.545 -1.2210 -0.0030  0.2008
14215SOL    HW149506  11.603  10.836   2.590 -1.2715  0.4379  0.4509
14215SOL    HW249507  11.652  10.883   2.454 -2.0089  1.9083  0.6729
14216SOL     OW49508   3.307   5.834   3.166 -0.3251  0.0813  0.0343
14216SOL    HW149509   3.286   5.811   3.075  1.0104 -3.0513  0.3918
14216SOL    HW249510   3.222   5.835   3.210 -0.9754  1.4870 -1.1436
14217SOL     OW49511   8.331   8.829  12.109 -0.0408  0.0218  0.1236
14217SOL    HW149512   8.254   8.786  12.073 -1.2425  2.2869 -0.2215
14217SOL    HW249513   8.402   8.805  12.049 -0.9021 -0.5199 -0.7121
14218SOL     OW49514   7.516   2.047   9.824  0.7869  0.1670 -0.4444
14218SOL    HW149515   7.523   1.978   9.890 -1.8034  1.4089  1.2993
14218SOL    HW249516   7.512   2.000   9.740  1.8064 -1.5986  0.4344
14219SOL     OW49517  11.864   7.631   8.865  0.2467 -0.0405 -1.0604
14219SOL    HW149518  11.884   7.580   8.944  1.1178  0.5813 -0.8553
14219SOL    HW249519  11.784   7.592   8.831  0.6919 -1.3149 -0.7186
14220SOL     OW49520  10.975   9.824   0.620 -0.0303  0.0096 -0.3865
14220SOL    HW149521  11.068   9.840   0.634 -0.1270 -0.4721  1.0535
14220SOL    HW249522  10.968   9.728   0.617 -0.5317  0.0293  0.0187
14221SOL     OW49523   0.340   5.380   3.447 -0.0667  0.0989  0.1168
14221SOL    HW149524   0.350   5.458   3.392  0.7629 -0.0058  0.1055
14221SOL    HW249525   0.332   5.308   3.385 -0.4754  0.1296  0.1302
14222SOL     OW49526   3.474  10.744   8.261  0.0076  0.5244  0.2475
14222SOL    HW149527   3.544  10.807   8.279 -1.1456  2.1619 -0.6850
14222SOL    HW249528   3.453  10.706   8.346  1.4169  0.6363  0.6720
14223SOL     OW49529  10.086  12.282  10.215  0.2100  0.0954  0.0510
14223SOL    HW149530   9.999  12.275  10.175  0.5948  1.3282 -1.0901
14223SOL    HW249531  10.145  12.294  10.142  1.4979 -1.6226  0.7589
14224SOL     OW49532   1.634   5.419   2.062  0.6381 -0.1492 -0.2263
14224SOL    HW149533   1.616   5.509   2.089  0.5797 -0.3272  0.3391
14224SOL    HW249534   1.549   5.382   2.039  0.2698 -0.8389  1.9812
14225SOL     OW49535   6.387   1.154   2.300 -0.5392 -0.3686 -0.6006
14225SOL    HW149536   6.334   1.110   2.366  0.0438 -0.6754 -0.3235
14225SOL    HW249537   6.424   1.083   2.248  0.1334 -0.1963 -0.3703
14226SOL     OW49538   0.505   3.238   9.170 -0.4142 -0.2694  0.7692
14226SOL    HW149539   0.442   3.310   9.179 -1.9319 -1.6153  1.4091
14226SOL    HW249540   0.506   3.220   9.076 -0.9356 -0.1855  0.7415
14227SOL     OW49541   3.124   7.892   3.568  0.1138 -0.1038 -0.0195
14227SOL    HW149542   3.180   7.869   3.642 -1.1290 -1.7222  0.4830
14227SOL    HW249543   3.038   7.855   3.590 -0.2070 -0.9816 -2.3896
14228SOL     OW49544   8.273   8.024   3.922  0.5996  0.2860  0.3416
14228SOL    HW149545   8.189   7.980   3.907  0.4309  1.5380 -3.6986
14228SOL    HW249546   8.250   8.116   3.932  1.3948  0.3593  1.6566
14229SOL     OW49547  10.806   4.862   9.560  0.2856  0.0776  0.9897
14229SOL    HW149548  10.742   4.886   9.493  1.6002  1.0248  0.0282
14229SOL    HW249549  10.875   4.928   9.553  2.0451 -1.6450  1.0680
14230SOL     OW49550   7.063   2.623   3.597 -0.0667  0.4711 -0.0063
14230SOL    HW149551   7.022   2.547   3.638  0.4514 -0.0033 -0.3603
14230SOL    HW249552   6.996   2.657   3.538  0.2161 -0.6314 -0.9968
14231SOL     OW49553   3.978  11.878   1.576  0.8413  0.2267  0.7869
14231SOL    HW149554   4.036  11.948   1.606 -0.9373  2.3885 -0.5171
14231SOL    HW249555   3.892  11.919   1.569  0.3811 -0.9222 -3.7289
14232SOL     OW49556   9.601   5.935   1.273 -0.3424 -0.2733  0.1753
14232SOL    HW149557   9.580   5.989   1.349 -3.5289  0.4917 -1.0981
14232SOL    HW249558   9.581   5.845   1.301 -0.4745 -0.1287  0.5554
14233SOL     OW49559   1.311   7.900   6.968 -0.1002 -0.2141  0.7148
14233SOL    HW149560   1.303   7.824   7.026  0.6765  1.4648  3.1507
14233SOL    HW249561   1.358   7.965   7.019  0.3215  1.5385 -1.7129
14234SOL     OW49562   3.538   9.412  11.977 -0.5121  0.4524  0.2865
14234SOL    HW149563   3.533   9.506  11.993  0.7273  0.5825  0.0540
14234SOL    HW249564   3.454   9.389  11.938 -0.5377  1.6172 -0.3814
14235SOL     OW49565   2.220   2.727   3.644  0.3608  0.2550 -0.6636
14235SOL    HW149566   2.196   2.711   3.736 -0.5667 -0.5883 -1.0360
14235SOL    HW249567   2.147   2.778   3.609  0.9510  1.0149 -0.8181
14236SOL     OW49568   6.516   5.508   9.212 -0.2449 -0.1128  0.2286
14236SOL    HW149569   6.516   5.459   9.130  0.9975 -1.5584  1.0351
14236SOL    HW249570   6.585   5.574   9.200 -1.0229  0.6187 -0.3733
14237SOL     OW49571   1.529  12.275   0.710  0.4004 -0.1210  0.2721
14237SOL    HW149572   1.587  12.349   0.727 -0.1236  0.4498 -0.3994
14237SOL    HW249573   1.458  12.284   0.773 -0.7521  1.1452 -1.1408
14238SOL     OW49574   2.065   6.047   4.311 -0.0370  0.4113  0.0555
14238SOL    HW149575   2.078   6.129   4.265  0.7633  0.0609 -0.3825
14238SOL    HW249576   1.993   6.063   4.372 -0.6534  1.0842 -0.8350
14239SOL     OW49577   5.844   0.311   7.969  0.1540  0.1090 -0.1180
14239SOL    HW149578   5.780   0.244   7.994  1.1131 -0.3028  1.3337
14239SOL    HW249579   5.797   0.366   7.905 -0.8378 -1.5880 -0.9145
14240SOL     OW49580   5.468   8.467   9.056  0.3106  0.2958 -0.4333
14240SOL    HW149581   5.399   8.475   8.990 -2.5422  0.9295  2.4110
14240SOL    HW249582   5.469   8.374   9.078 -0.7724  0.5156  0.6035
14241SOL     OW49583   4.704   5.682   5.361  0.3731  0.3189 -0.0141
14241SOL    HW149584   4.756   5.697   5.282  2.4260  1.0071  1.3807
14241SOL    HW249585   4.766   5.689   5.433 -1.3793 -0.4836  1.6914
14242SOL     OW49586   6.596   7.288  10.704  0.5451 -0.6230  0.1251
14242SOL    HW149587   6.559   7.204  10.731  0.4601 -1.1113 -1.3699
14242SOL    HW249588   6.683   7.290  10.742 -0.5270  0.0060  2.7120
14243SOL     OW49589   9.645   6.225   5.503  0.1588 -0.3277  0.4745
14243SOL    HW149590   9.662   6.313   5.470 -1.0464 -0.4010 -0.4275
14243SOL    HW249591   9.576   6.236   5.568 -0.6489 -0.6762 -0.2949
14244SOL     OW49592   2.512   9.236  11.263 -0.5175  0.0812  0.6845
14244SOL    HW149593   2.591   9.185  11.278 -0.7810  0.1955  2.7783
14244SOL    HW249594   2.529   9.284  11.182  1.2220 -0.4991  0.6639
14245SOL     OW49595   0.775   6.228   3.441 -0.1221  0.0701  0.1836
14245SOL    HW149596   0.864   6.259   3.454 -0.2925 -0.3276  2.8332
14245SOL    HW249597   0.734   6.235   3.528 -2.3898 -0.6240 -0.7521
14246SOL     OW49598  12.037   8.338   8.265  0.0494 -0.3659 -0.4491
14246SOL    HW149599  12.061   8.245   8.263 -1.3592 -0.7519 -1.3146
14246SOL    HW249600  11.943   8.339   8.247 -0.0724  1.2072  0.0908
14247SOL     OW49601   0.357   8.645   8.628 -0.2602 -0.1218  0.2008
14247SOL    HW149602   0.340   8.686   8.713  0.9803 -1.5255  1.1753
14247SOL    HW249603   0.424   8.579   8.646 -1.0866 -1.5403 -1.5658
14248SOL     OW49604   9.246   5.253  11.635  0.1726  0.2902 -0.4487
14248SOL    HW149605   9.327   5.302  11.651 -0.1973  1.1559 -1.1066
14248SOL    HW249606   9.177   5.312  11.664 -0.4194  1.1433 -3.2370
14249SOL     OW49607   1.209   5.068   7.814 -0.2078  0.5698 -0.6412
14249SOL    HW149608   1.275   5.046   7.879 -1.4881  1.0422  0.8551
14249SOL    HW249609   1.130   5.022   7.841 -0.6723  0.4297 -2.1072
14250SOL     OW49610  10.341   4.490   8.590 -0.2872 -0.6924 -0.4429
14250SOL    HW149611  10.283   4.565   8.577 -1.0656 -0.5942  2.7897
14250SOL    HW249612  10.284   4.414   8.577 -1.6179 -0.6036  3.4599
14251SOL     OW49613   7.795   7.354   0.130  0.9553 -0.3013 -0.1867
14251SOL    HW149614   7.843   7.427   0.092 -2.0880  2.0214  0.0329
14251SOL    HW249615   7.853   7.319   0.198  2.5448  1.8873 -0.3249
14252SOL     OW49616   0.418   1.060   0.623 -0.5217 -0.3659  0.0260
14252SOL    HW149617   0.460   0.997   0.681 -0.1529  0.4502  0.6559
14252SOL    HW249618   0.461   1.143   0.641  0.0698 -0.2011 -1.8913
14253SOL     OW49619   6.915   7.031   3.928 -0.1852 -0.9204 -0.1739
14253SOL    HW149620   6.938   6.990   3.844  2.3129  0.9095 -0.5214
14253SOL    HW249621   6.870   7.112   3.903 -0.3247 -0.8610  0.2777
14254SOL     OW49622  10.376   2.507   7.012  0.3178  0.4190 -0.3540
14254SOL    HW149623  10.326   2.548   7.083  0.9676  2.4816 -1.0310
14254SOL    HW249624  10.361   2.563   6.936  2.9528  0.6366 -0.7930
14255SOL     OW49625   1.334   1.114   9.916  0.4905  0.3993 -0.0759
14255SOL    HW149626   1.339   1.026   9.879 -1.7309  0.7274 -1.3119
14255SOL    HW249627   1.248   1.118   9.956  2.1052  0.6518  3.8893
14256SOL     OW49628   0.305   9.073   1.379  0.4253 -0.4387  0.1818
14256SOL    HW149629   0.284   9.035   1.294  0.4690  0.8825 -0.4489
14256SOL    HW249630   0.234   9.135   1.395  0.3419 -0.7700  1.1870
14257SOL     OW49631  10.103   6.203   5.182  0.0154 -0.0774  0.6773
14257SOL    HW149632  10.102   6.290   5.140 -2.1056  0.1348  1.0624
14257SOL    HW249633  10.148   6.147   5.119 -1.1790  0.7059 -0.9455
14258SOL     OW49634   2.568   8.166   3.626  0.1909  0.1510 -0.3062
14258SOL    HW149635   2.483   8.186   3.586  1.1686  0.4816 -2.3571
14258SOL    HW249636   2.546   8.111   3.702 -1.9868  2.1796  0.6514
14259SOL     OW49637   9.230   1.191  10.679  0.1436  0.2981  0.5464
14259SOL    HW149638   9.279   1.218  10.601 -0.4941 -2.5758 -0.9743
14259SOL    HW249639   9.201   1.102  10.660 -2.5799  0.5357  2.8831
14260SOL     OW49640   4.376   6.315   9.154 -0.1290 -0.1762 -0.8090
14260SOL    HW149641   4.342   6.405   9.152 -0.5907 -0.2461  1.2231
14260SOL    HW249642   4.322   6.267   9.092 -0.9238  0.6303 -0.7565
14261SOL     OW49643  11.236   3.750   7.426 -0.1320 -0.2274 -0.0247
14261SOL    HW149644  11.220   3.767   7.519  0.7464 -0.5370  0.1897
14261SOL    HW249645  11.166   3.691   7.400  0.9532 -2.0633  1.0557
14262SOL     OW49646   0.622   8.041   4.191  0.1844  0.2664 -0.0958
14262SOL    HW149647   0.687   7.972   4.173 -0.0005 -0.6146  2.2140
14262SOL    HW249648   0.560   8.036   4.119  1.1235 -0.8365 -0.8554
14263SOL     OW49649   8.437   6.894   5.756  0.2716 -0.2303  0.0381
14263SOL    HW149650   8.456   6.939   5.674  0.4575 -1.2625 -0.4903
14263SOL    HW249651   8.343   6.878   5.754  0.0209  0.9655  0.6757
14264SOL     OW49652   9.297  12.347  12.034  0.6814  0.0367  0.2672
14264SOL    HW149653   9.387  12.374  12.049 -0.1087  2.0592  1.9211
14264SOL    HW249654   9.248  12.429  12.024 -0.8541 -1.0187 -1.5974
14265SOL     OW49655   9.243   1.610   8.439 -0.0300  0.0486  0.0598
14265SOL    HW149656   9.220   1.592   8.348  0.6323  1.7320 -0.4669
14265SOL    HW249657   9.319   1.668   8.435  0.2131 -0.0844  1.6936
14266SOL     OW49658   7.766  10.478   8.093 -0.6964 -0.8636  0.0672
14266SOL    HW149659   7.816  10.412   8.045 -1.0479 -1.5275  0.5985
14266SOL    HW249660   7.724  10.430   8.164  0.2614  0.1632  1.4088
14267SOL     OW49661   7.526  10.085  11.222  0.2240 -1.2007  0.8450
14267SOL    HW149662   7.561  10.173  11.214  1.0111 -1.5530  0.3027
14267SOL    HW249663   7.571  10.049  11.299 -0.3217 -1.0283  1.2470
14268SOL     OW49664   4.742  12.477   0.154  0.4518 -0.3100 -0.1290
14268SOL    HW149665   4.747  12.528   0.235  0.8330  0.4331 -0.6093
14268SOL    HW249666   4.833  12.466   0.126  0.2625  0.6305 -1.1807
14269SOL     OW49667   1.903   7.767  11.441  0.3414 -0.0611  0.2599
14269SOL    HW149668   1.860   7.716  11.510 -0.2355 -0.7386 -0.5687
14269SOL    HW249669   1.964   7.705  11.400  0.2694  0.1690 -0.1985
14270SOL     OW49670   8.836   6.728   0.073 -0.3080  0.4410  0.6694
14270SOL    HW149671   8.857   6.705  -0.017  0.8407  0.1794  0.9901
14270SOL    HW249672   8.772   6.798   0.065 -1.5102 -0.7181 -0.3321
14271SOL     OW49673   4.902   0.361  10.943  0.4182  0.6284 -0.1683
14271SOL    HW149674   4.934   0.273  10.923  0.4372  0.4606  0.5731
14271SOL    HW249675   4.977   0.406  10.982  0.1454  0.6731  0.3123
14272SOL     OW49676   1.466   2.391   3.474  0.2170 -0.1493 -0.5584
14272SOL    HW149677   1.462   2.396   3.378  1.0379 -1.3106 -0.6642
14272SOL    HW249678   1.427   2.306   3.495  0.5222 -0.1295  0.1043
14273SOL     OW49679   2.438   4.247   9.534  0.5989  0.0141  0.0533
14273SOL    HW149680   2.419   4.326   9.586 -0.4601  1.0615 -1.7938
14273SOL    HW249681   2.514   4.208   9.576  0.8323  1.7371  1.3488
14274SOL     OW49682   6.674   9.038   4.760  0.0392  0.1098  0.2018
14274SOL    HW149683   6.762   9.022   4.727  0.6391 -1.2504  2.2207
14274SOL    HW249684   6.686   9.108   4.825 -0.7132  1.2003 -0.8061
14275SOL     OW49685   3.178   8.540   9.226 -0.4475 -0.2019 -0.8094
14275SOL    HW149686   3.189   8.591   9.146  1.7335  4.0827  1.8168
14275SOL    HW249687   3.267   8.532   9.261 -1.5311  1.4038  2.8160
14276SOL     OW49688  11.327   2.612   5.449  0.4345 -0.3545 -0.2718
14276SOL    HW149689  11.355   2.703   5.440 -0.0744 -0.2774 -1.1937
14276SOL    HW249690  11.238   2.617   5.485  0.8776 -0.5389  0.8867
14277SOL     OW49691   4.123  11.459   8.006 -0.0850  0.2885  0.0438
14277SOL    HW149692   4.050  11.415   8.049  1.5314 -2.0409  0.6162
14277SOL    HW249693   4.176  11.495   8.078  0.0224  0.7993 -0.2841
14278SOL     OW49694  10.839   4.060   4.011 -0.0037 -0.4550  0.5594
14278SOL    HW149695  10.893   4.039   4.087  1.1107  2.5999  0.7434
14278SOL    HW249696  10.785   4.134   4.040 -1.0751 -0.5738 -0.9956
14279SOL     OW49697   3.454   8.589   1.389  0.1344  0.0844  0.1323
14279SOL    HW149698   3.421   8.511   1.345 -0.2541 -0.5178  1.4493
14279SOL    HW249699   3.546   8.593   1.364  0.2663 -1.0440  0.3979
14280SOL     OW49700   4.844   2.554   2.756 -0.2043 -0.3769  0.0036
14280SOL    HW149701   4.834   2.598   2.672  3.0479 -1.8943 -1.3638
14280SOL    HW249702   4.878   2.621   2.814  1.2497 -0.1541 -1.0431
14281SOL     OW49703   7.819   8.377   8.649 -0.5151 -0.1453  0.6185
14281SOL    HW149704   7.876   8.446   8.614 -3.4001  2.0705 -0.1576
14281SOL    HW249705   7.798   8.323   8.573 -0.1410 -0.4488  0.7290
14282SOL     OW49706   3.518   5.174   7.939  0.2780  0.6991  0.4845
14282SOL    HW149707   3.475   5.123   7.871 -0.2912 -1.2101  2.1939
14282SOL    HW249708   3.587   5.222   7.893 -0.8360  0.4108 -1.6014
14283SOL     OW49709   2.432   4.948   8.835  0.1548  0.2777 -0.2363
14283SOL    HW149710   2.465   4.903   8.912 -2.2838  0.3465  0.9189
14283SOL    HW249711   2.379   5.020   8.869 -0.1884  0.9203 -1.9877
14284SOL     OW49712   6.270   8.978   4.128 -0.1089  0.0471 -0.1636
14284SOL    HW149713   6.231   8.912   4.186 -1.6142  1.3822  0.4383
14284SOL    HW249714   6.363   8.975   4.147 -0.4300 -0.3201  1.5772
14285SOL     OW49715  12.212  11.673   0.079  0.4572  0.4271  0.3203
14285SOL    HW149716  12.199  11.673  -0.016 -0.7452  0.0119  0.4738
14285SOL    HW249717  12.271  11.599   0.095  0.5337  0.4001 -0.0880
14286SOL     OW49718   8.101   9.146   7.182 -0.1410  0.3191 -0.7865
14286SOL    HW149719   8.184   9.164   7.138  1.1663 -1.2399  0.8995
14286SOL    HW249720   8.110   9.187   7.268 -0.4883 -1.1373 -0.0322
14287SOL     OW49721   9.105   2.140   9.802  0.3615  0.1108 -0.2736
14287SOL    HW149722   9.107   2.191   9.883 -1.9009  0.2369 -0.2429
14287SOL    HW249723   9.187   2.163   9.758  0.0542  2.7620  0.3558
14288SOL     OW49724   6.717   6.728   9.975  0.4975 -0.0801 -0.2288
14288SOL    HW149725   6.732   6.774   9.892  0.3247  1.2909  0.4719
14288SOL    HW249726   6.741   6.637   9.957 -0.1410  0.0653 -1.9569
14289SOL     OW49727  12.213   7.397   6.700  0.2848 -0.2965  0.8287
14289SOL    HW149728  12.192   7.358   6.615  1.8965  1.0463 -0.2608
14289SOL    HW249729  12.128   7.413   6.741 -0.5571 -0.3958 -0.8112
14290SOL     OW49730   5.200   2.327   0.395  0.1063 -0.3549 -0.3651
14290SOL    HW149731   5.284   2.346   0.436  0.3720  0.3114 -1.1808
14290SOL    HW249732   5.200   2.379   0.314 -1.8497  1.1826  0.5066
14291SOL     OW49733   8.371   8.015   0.347  0.2207 -0.5345 -0.0794
14291SOL    HW149734   8.420   8.096   0.356  0.5147 -0.4013 -2.3060
14291SOL    HW249735   8.279   8.041   0.356  0.2811  0.1592 -1.3054
14292SOL     OW49736   3.155   7.225   6.285 -0.1157 -0.2318 -0.7273
14292SOL    HW149737   3.219   7.290   6.313 -3.5070  2.7483  0.9410
14292SOL    HW249738   3.135   7.175   6.364 -1.1455  0.1683 -0.7133
14293SOL     OW49739   3.488   8.664   7.727  0.2600  0.5641  0.3158
14293SOL    HW149740   3.544   8.615   7.787  0.2859  0.7817  0.4683
14293SOL    HW249741   3.537   8.744   7.707 -0.2782  1.0760  0.9770
14294SOL     OW49742   3.331   4.140   8.652  0.3884  0.3153 -0.6788
14294SOL    HW149743   3.328   4.049   8.682 -0.4605 -0.2293 -2.2609
14294SOL    HW249744   3.244   4.174   8.671  0.0899  0.1937 -1.7375
14295SOL     OW49745   9.459  11.582  11.279 -0.3642 -0.2596  0.7536
14295SOL    HW149746   9.430  11.583  11.188  1.3580  2.4573  0.0970
14295SOL    HW249747   9.384  11.611  11.330 -0.2913  1.9239 -0.3081
14296SOL     OW49748   6.773  11.949   5.645 -0.6697  0.2106  0.3114
14296SOL    HW149749   6.704  11.924   5.584 -0.3234  2.7493 -1.2623
14296SOL    HW249750   6.774  12.045   5.642  1.0754  0.3362  2.4274
14297SOL     OW49751   9.204  10.280   5.277  0.3919 -0.2971  0.1929
14297SOL    HW149752   9.246  10.277   5.363  1.5371  0.3067 -0.3220
14297SOL    HW249753   9.216  10.370   5.248 -0.2231 -0.4262 -0.4841
14298SOL     OW49754  11.795   2.088   1.167  0.1207 -0.0826  0.1573
14298SOL    HW149755  11.864   2.077   1.101  0.5451 -2.7548  0.9316
14298SOL    HW249756  11.834   2.145   1.233  0.5803  0.6495 -0.7230
14299SOL     OW49757   6.154   2.549  11.915  0.3917 -0.4929 -0.4809
14299SOL    HW149758   6.226   2.541  11.853  1.2645 -0.7624  0.5498
14299SOL    HW249759   6.185   2.612  11.980 -0.6645  0.0819 -0.5067
14300SOL     OW49760   3.928  11.700   3.654  0.1624 -0.1009 -0.2206
14300SOL    HW149761   3.955  11.619   3.611  0.3197  0.7509 -1.8290
14300SOL    HW249762   3.834  11.689   3.670  0.5705 -1.4081  1.5521
14301SOL     OW49763   0.050   9.844   4.118 -0.2973  0.0560 -0.1137
14301SOL    HW149764  -0.040   9.878   4.115 -0.3075  0.3402  2.1590
14301SOL    HW249765   0.100   9.907   4.066 -1.0276  1.2131  0.5315
14302SOL     OW49766   6.808   4.142   7.073 -0.2204  0.0569 -0.0352
14302SOL    HW149767   6.827   4.173   7.162  0.1579 -0.0176 -0.0902
14302SOL    HW249768   6.842   4.053   7.071  0.4227  0.3088 -0.4807
14303SOL     OW49769   3.680   3.486   3.793  0.3363  0.1522  0.7606
14303SOL    HW149770   3.774   3.474   3.801  0.4808  0.3742 -0.4458
14303SOL    HW249771   3.668   3.532   3.710 -0.9349 -1.2446  0.1274
14304SOL     OW49772   0.536   4.685   9.162  0.1002 -0.2701  0.2423
14304SOL    HW149773   0.531   4.777   9.187  1.9680 -0.8212  2.9635
14304SOL    HW249774   0.465   4.643   9.211 -0.2591 -0.4146 -0.3927
14305SOL     OW49775   5.777   5.592   6.351 -0.1789  0.1591  0.6868
14305SOL    HW149776   5.809   5.566   6.438 -0.7095  0.2889  0.9229
14305SOL    HW249777   5.833   5.543   6.290 -0.6935 -0.9986  1.1162
14306SOL     OW49778   8.172  10.864  10.409  0.2542  0.5619  0.1437
14306SOL    HW149779   8.101  10.878  10.347  0.4643  1.3998  0.0814
14306SOL    HW249780   8.130  10.826  10.486 -0.3678  1.5956  0.3370
14307SOL     OW49781   4.979   5.237   7.480  0.7131  0.3915  0.1847
14307SOL    HW149782   5.036   5.254   7.555  0.5577  2.5332 -0.1337
14307SOL    HW249783   4.891   5.231   7.517  0.5762  1.9327  0.1474
14308SOL     OW49784   8.971  10.050   5.778 -0.1204 -0.5381 -0.1893
14308SOL    HW149785   9.034  10.038   5.707 -0.4387 -0.9639 -0.4053
14308SOL    HW249786   8.957  10.144   5.781 -0.0550 -0.5100 -0.6504
14309SOL     OW49787   1.549   8.483   1.124  0.0759  0.1028 -0.0659
14309SOL    HW149788   1.611   8.444   1.186  2.7534 -1.2503 -3.2599
14309SOL    HW249789   1.591   8.564   1.096  1.9037 -1.9420 -4.0044
14310SOL     OW49790  11.270   5.103   7.035 -0.1759  0.1182  0.2637
14310SOL    HW149791  11.274   5.186   7.083 -0.4644  1.1051 -1.3262
14310SOL    HW249792  11.309   5.123   6.950 -1.7707 -0.9081 -0.7732
14311SOL     OW49793   6.169   5.928  10.174 -0.2983 -0.3528  0.3242
14311SOL    HW149794   6.176   6.018  10.208  1.1845 -0.7221  1.0545
14311SOL    HW249795   6.198   5.935  10.083 -0.9025  0.0194  0.1492
14312SOL     OW49796   7.534   8.532   8.622 -0.2199 -0.3538 -0.2853
14312SOL    HW149797   7.460   8.553   8.566  2.7998  0.7975 -4.3302
14312SOL    HW249798   7.527   8.437   8.637 -1.2769 -0.6820 -2.5523
14313SOL     OW49799   2.699  12.119   3.100 -0.3784 -0.1053 -0.0074
14313SOL    HW149800   2.604  12.129   3.087 -0.4641 -0.7875  0.0602
14313SOL    HW249801   2.710  12.028   3.130  0.2195  0.2174  0.7887
14314SOL     OW49802  11.019   3.544   1.824 -0.1230 -0.3433  0.4929
14314SOL    HW149803  11.109   3.515   1.843  0.3804  0.7112 -0.1805
14314SOL    HW249804  11.006   3.524   1.732  0.0905  1.1486  0.1220
14315SOL     OW49805   0.832   6.574  10.527  0.2176  0.3108 -0.2409
14315SOL    HW149806   0.765   6.614  10.473  0.2541  0.4454 -0.1862
14315SOL    HW249807   0.810   6.481  10.528 -0.6029  0.4985  0.6864
14316SOL     OW49808   9.081  11.294   8.108  0.5345  0.0598  0.2856
14316SOL    HW149809   9.087  11.390   8.105 -0.2441  0.1075 -0.0375
14316SOL    HW249810   9.171  11.264   8.112  0.8100  0.7875 -0.3291
14317SOL     OW49811   1.142   2.857   5.306 -0.0026 -0.0022 -0.0984
14317SOL    HW149812   1.156   2.819   5.219  0.6521 -0.6308  0.2673
14317SOL    HW249813   1.120   2.949   5.289 -1.2274 -0.4315 -0.9858
14318SOL     OW49814   5.967  10.935  12.402 -0.5074  0.0799  0.0016
14318SOL    HW149815   5.928  10.860  12.356 -0.2067 -1.3479  1.9652
14318SOL    HW249816   6.003  10.990  12.332 -0.9224 -1.4959 -1.5131
14319SOL     OW49817   0.110   3.945  11.637 -0.6758 -0.1573  0.2823
14319SOL    HW149818   0.118   4.009  11.566 -3.9373  0.6681  0.5073
14319SOL    HW249819   0.058   3.990  11.704  0.4916 -1.6609  2.3054
14320SOL     OW49820   1.078   8.856   8.141  0.0937 -0.2201  0.0236
14320SOL    HW149821   1.098   8.949   8.139  1.9563 -0.5737 -0.9818
14320SOL    HW249822   1.164   8.813   8.142 -0.6923 -1.9239 -0.7478
14321SOL     OW49823   1.958   5.882   3.479 -0.1959  0.4807  0.2265
14321SOL    HW149824   1.901   5.937   3.425 -2.2853 -0.0810  1.7074
14321SOL    HW249825   1.962   5.928   3.563 -0.4691 -0.6817  0.9007
14322SOL     OW49826   9.112  10.987   3.519  0.1888 -0.3996 -0.7079
14322SOL    HW149827   9.190  10.938   3.491  2.0238  1.6250  0.5924
14322SOL    HW249828   9.113  10.983   3.614 -1.7211 -0.8822 -0.6681
14323SOL     OW49829  10.384  11.673   7.873 -0.2117 -0.4908  0.1447
14323SOL    HW149830  10.449  11.742   7.857 -0.6834 -0.3126 -1.1484
14323SOL    HW249831  10.308  11.719   7.908 -0.5968 -0.2994 -0.9001
14324SOL     OW49832  10.001   0.475   6.714 -0.4201 -0.1221  0.0661
14324SOL    HW149833   9.985   0.474   6.619 -1.4196  1.0102  0.1974
14324SOL    HW249834  10.068   0.408   6.727 -1.1389 -1.1663 -1.2831
14325SOL     OW49835   9.101   8.046   8.271 -0.0897 -0.1565  0.2757
14325SOL    HW149836   9.169   7.984   8.247 -0.9799 -1.2870  0.5789
14325SOL    HW249837   9.118   8.067   8.362  0.0733 -0.1390  0.2406
14326SOL     OW49838   0.128   8.115   9.986  0.9162 -0.5827 -0.3221
14326SOL    HW149839   0.072   8.190  10.009 -0.6216 -1.6862 -0.3604
14326SOL    HW249840   0.186   8.149   9.917 -0.3603  0.3425 -0.9778
14327SOL     OW49841   7.118   8.010   9.774  0.6297  0.2102  0.0417
14327SOL    HW149842   7.110   8.101   9.746  1.4187 -0.0631 -1.1692
14327SOL    HW249843   7.133   8.015   9.868  0.1921  1.3064  0.0668
14328SOL     OW49844   1.833   9.877   3.039  0.3204  0.3393 -0.6099
14328SOL    HW149845   1.914   9.871   3.089 -0.2558 -1.8093  0.1999
14328SOL    HW249846   1.780   9.804   3.072 -2.0827  1.8712 -0.8742
14329SOL     OW49847  11.889   7.538  12.375  0.2777 -0.2492  0.0165
14329SOL    HW149848  11.957   7.504  12.317  0.2251  2.1924 -1.6136
14329SOL    HW249849  11.930   7.611  12.420 -1.5135  2.2597 -2.1042
14330SOL     OW49850   9.779   1.145   0.597  0.0782  0.0177 -0.3564
14330SOL    HW149851   9.773   1.072   0.660 -0.3646  1.4496  1.3477
14330SOL    HW249852   9.718   1.121   0.527 -0.0673 -1.2327  0.1636
14331SOL     OW49853   2.912   3.937  10.918 -0.3159  0.1737 -0.4611
14331SOL    HW149854   2.938   4.015  10.966  0.4556 -0.1782 -0.2858
14331SOL    HW249855   2.857   3.970  10.846 -0.5430  0.8030 -0.0067
14332SOL     OW49856   3.531   7.176   8.144 -0.3060  0.2164  0.1326
14332SOL    HW149857   3.571   7.098   8.104  1.7374  2.0164 -1.6213
14332SOL    HW249858   3.449   7.188   8.096 -0.3117 -0.4763 -0.0401
14333SOL     OW49859   5.743   1.484   0.886  0.0443  0.3626 -0.2099
14333SOL    HW149860   5.714   1.532   0.963  0.5321 -1.8630  1.4712
14333SOL    HW249861   5.676   1.416   0.874  1.2280 -0.8473 -0.1910
14334SOL     OW49862   5.005   7.238   0.939  0.1918  0.3098 -0.0287
14334SOL    HW149863   4.968   7.269   1.022  0.2491  2.4696 -0.7498
14334SOL    HW249864   4.968   7.150   0.928 -0.8176  0.4754  1.6607
14335SOL     OW49865   2.577   3.000   1.710 -0.0172 -0.8297 -0.0323
14335SOL    HW149866   2.656   2.969   1.667  0.3319 -0.0104 -0.0095
14335SOL    HW249867   2.568   2.944   1.787  0.4479 -1.0360 -0.1225
14336SOL     OW49868   0.762   8.776   4.313  0.2341 -0.3047 -0.0711
14336SOL    HW149869   0.719   8.769   4.399  1.0399 -0.7086  0.3060
14336SOL    HW249870   0.791   8.687   4.293  0.1999 -0.1823 -0.6938
14337SOL     OW49871   6.527   6.871   6.625  0.1843  0.0042 -0.2214
14337SOL    HW149872   6.453   6.811   6.630  1.9802 -2.3597 -0.0146
14337SOL    HW249873   6.527   6.918   6.709 -0.5793 -0.5821  0.1103
14338SOL     OW49874  11.129  11.583   2.128 -0.1085  0.1520  0.3629
14338SOL    HW149875  11.057  11.526   2.155 -0.7936  0.8958  0.1434
14338SOL    HW249876  11.091  11.638   2.059  0.9539 -0.1264 -0.4665
14339SOL     OW49877   7.711   7.035   5.300  0.0389 -0.5321  0.2319
14339SOL    HW149878   7.714   7.095   5.226  0.4349 -1.0463 -0.1733
14339SOL    HW249879   7.803   7.013   5.318  0.2560  1.8775  2.7814
14340SOL     OW49880   4.705  11.849   8.607  0.4209  0.0282  0.0534
14340SOL    HW149881   4.763  11.818   8.676  0.1610  0.8094  0.6403
14340SOL    HW249882   4.739  11.808   8.527  2.7402  1.6182  0.1174
14341SOL     OW49883   1.185   8.948  12.420 -0.3322 -0.1455 -0.2153
14341SOL    HW149884   1.113   9.002  12.454 -0.7486 -1.1235  0.5156
14341SOL    HW249885   1.204   8.887  12.491  0.7701 -0.3450 -0.6683
14342SOL     OW49886   8.121   0.242   8.539  0.2073 -0.4986 -0.3756
14342SOL    HW149887   8.143   0.210   8.452 -1.2993  1.2620 -1.4732
14342SOL    HW249888   8.095   0.333   8.526  0.0379 -0.1393  1.9410
14343SOL     OW49889  10.182   9.004  11.135  0.3680  0.4393 -0.0023
14343SOL    HW149890  10.213   9.044  11.216 -1.1277  2.0013 -0.1525
14343SOL    HW249891  10.093   8.976  11.155  0.0266  0.7204 -1.0731
14344SOL     OW49892  10.458   2.534   3.528 -0.3945 -0.1414 -0.0504
14344SOL    HW149893  10.470   2.449   3.487 -2.5708 -1.7787  2.3689
14344SOL    HW249894  10.461   2.516   3.622 -2.1521  2.1764  0.5562
14345SOL     OW49895   8.512   6.796   0.033  0.1539 -0.3652 -0.3312
14345SOL    HW149896   8.591   6.850   0.037  0.2862 -0.6068  0.4265
14345SOL    HW249897   8.508   6.753   0.118 -1.6987  0.8941  0.2743
14346SOL     OW49898   7.958   6.654   7.367 -0.2320 -0.2039  0.3697
14346SOL    HW149899   8.033   6.631   7.312 -0.1468 -1.1235  0.8430
14346SOL    HW249900   7.997   6.694   7.445 -0.2641 -0.2211  0.3947
14347SOL     OW49901   4.108   4.125   4.082 -0.1577 -0.3855 -0.0792
14347SOL    HW149902   4.089   4.151   3.991  0.6815 -1.3951 -0.5576
14347SOL    HW249903   4.070   4.195   4.135  0.1185  0.6861 -1.2500
14348SOL     OW49904  10.376  10.658   3.072 -0.6116  0.0469  0.7085
14348SOL    HW149905  10.329  10.600   3.132 -0.9290 -0.3970  0.0377
14348SOL    HW249906  10.324  10.657   2.992  2.1305 -3.0458 -1.2788
14349SOL     OW49907   1.918   7.347  12.273  0.0384 -0.1422 -0.3689
14349SOL    HW149908   1.972   7.330  12.350 -1.5208 -0.9759  0.6023
14349SOL    HW249909   1.888   7.260  12.246 -1.2886  0.3272 -0.4907
14350SOL     OW49910   0.545   9.533   3.176 -0.2717 -0.7802 -0.0152
14350SOL    HW149911   0.613   9.595   3.149  0.2233 -1.0165  0.6685
14350SOL    HW249912   0.500   9.510   3.094 -1.7387  1.9330 -0.0710
14351SOL     OW49913   5.444  10.068   8.891  0.2247  0.0147  0.0705
14351SOL    HW149914   5.493   9.988   8.872 -2.1217 -1.7995  1.1384
14351SOL    HW249915   5.477  10.132   8.828  0.6458 -2.4108 -2.3551
14352SOL     OW49916   6.204   9.870  11.324  0.3462 -0.0397  0.1685
14352SOL    HW149917   6.139   9.807  11.294  2.0654 -1.0050 -1.8033
14352SOL    HW249918   6.245   9.829  11.400 -0.7620  0.2202  0.9223
14353SOL     OW49919   7.642   4.114  11.037 -0.4552  0.1571  0.6200
14353SOL    HW149920   7.647   4.140  10.945 -0.3141 -1.6662  0.0767
14353SOL    HW249921   7.552   4.132  11.062 -0.6548  0.1316 -0.0584
14354SOL     OW49922  11.240   8.158   2.312  0.3679  0.1030 -0.5169
14354SOL    HW149923  11.264   8.067   2.330  0.8336 -0.1806 -2.4075
14354SOL    HW249924  11.145   8.156   2.300  0.3406 -0.0744 -0.2839
14355SOL     OW49925   8.176   7.616   4.990 -0.0736 -0.3723 -0.3501
14355SOL    HW149926   8.231   7.660   4.926 -1.5655  0.3131 -1.2303
14355SOL    HW249927   8.141   7.687   5.045 -2.6590 -0.3329 -1.9085
14356SOL     OW49928   8.237   5.966   3.094 -0.4109 -0.6589 -0.4839
14356SOL    HW149929   8.313   6.011   3.057 -1.1523  1.4083  0.3323
14356SOL    HW249930   8.162   6.014   3.059 -1.2059 -0.3840  1.4451
14357SOL     OW49931   5.849   4.107  11.462  0.2643 -0.9023 -0.3576
14357SOL    HW149932   5.822   4.142  11.546  0.6119 -0.7506 -0.3053
14357SOL    HW249933   5.922   4.163  11.435 -0.8150  0.0116 -1.4883
14358SOL     OW49934   1.272   1.547   2.716 -0.3241 -0.3635 -0.2902
14358SOL    HW149935   1.347   1.522   2.769  0.7966  0.4746 -1.4113
14358SOL    HW249936   1.204   1.571   2.779  0.2508 -1.3683  0.7503
14359SOL     OW49937   0.024   5.388   3.351 -0.2903 -1.0279 -0.4601
14359SOL    HW149938   0.105   5.398   3.302  0.3332  0.5418  0.7933
14359SOL    HW249939   0.010   5.294   3.356  1.8787 -1.3720 -0.0538
14360SOL     OW49940   6.153   8.272   0.575  0.0120 -0.1310 -0.0168
14360SOL    HW149941   6.213   8.217   0.626  1.0388  2.4982  1.8201
14360SOL    HW249942   6.069   8.226   0.582  0.7472 -1.3715  1.6272
14361SOL     OW49943   8.599   7.097  10.763  0.4231  0.4720 -0.6758
14361SOL    HW149944   8.508   7.125  10.767  0.1905 -0.4574  1.2248
14361SOL    HW249945   8.632   7.107  10.852  1.6960 -0.7981 -0.9676
14362SOL     OW49946   5.990   2.294   8.765 -0.2119  0.1323 -0.3960
14362SOL    HW149947   5.905   2.331   8.789  0.5460  2.0254 -0.4856
14362SOL    HW249948   6.004   2.323   8.675  0.5525 -0.1072 -0.3614
14363SOL     OW49949  11.375   5.260   5.935 -0.8496  0.2561 -0.1551
14363SOL    HW149950  11.450   5.234   5.882 -1.3680 -0.0164 -0.7619
14363SOL    HW249951  11.326   5.321   5.880 -1.4401 -0.0938 -0.0247
14364SOL     OW49952   9.720  11.949   2.786 -0.3493 -0.0046  0.2396
14364SOL    HW149953   9.639  11.968   2.834 -1.0347  1.3028 -1.3436
14364SOL    HW249954   9.784  11.927   2.854 -2.1556 -1.7224  1.5213
14365SOL     OW49955   8.844  11.649   8.259  0.2559 -0.1954  0.0805
14365SOL    HW149956   8.824  11.559   8.286  0.6900  0.2551  2.0605
14365SOL    HW249957   8.769  11.676   8.207 -0.3501 -1.3657  0.3167
14366SOL     OW49958   2.971   5.763   5.881  0.1059  0.9525 -0.4134
14366SOL    HW149959   2.932   5.695   5.827  1.0226  2.4011 -3.0745
14366SOL    HW249960   3.018   5.716   5.950 -1.8832 -0.9413 -0.2766
14367SOL     OW49961   5.357  12.469   5.071  0.3000  0.3976  0.6818
14367SOL    HW149962   5.428  12.444   5.129  1.6062  1.4172 -0.4120
14367SOL    HW249963   5.299  12.393   5.069  1.2116 -0.3449  1.8166
14368SOL     OW49964   6.244  12.012   7.166  0.7259  0.0088  0.3501
14368SOL    HW149965   6.255  12.088   7.224 -1.8157 -0.1474  1.1486
14368SOL    HW249966   6.330  12.001   7.126  1.4870  2.6503  1.0049
14369SOL     OW49967   0.226   6.282   6.165  0.3084  0.1700 -0.1958
14369SOL    HW149968   0.267   6.198   6.182  2.4746  0.7667 -1.9357
14369SOL    HW249969   0.169   6.266   6.090  1.6885  0.4341 -1.3550
14370SOL     OW49970   1.847   1.813   1.681  0.1648  0.0403  0.1056
14370SOL    HW149971   1.877   1.837   1.593  0.6891 -2.4557 -0.4845
14370SOL    HW249972   1.896   1.871   1.739  1.0505  0.6555 -1.1930
14371SOL     OW49973   2.973   5.452   6.450 -0.2642  0.2537  0.8177
14371SOL    HW149974   2.966   5.400   6.530  0.7647  1.2113  1.5641
14371SOL    HW249975   3.040   5.518   6.470 -0.7782  1.2037 -0.4549
14372SOL     OW49976   6.845   9.610   4.111 -0.1522  0.0825  0.1855
14372SOL    HW149977   6.764   9.629   4.065  1.2691  1.5049 -1.9450
14372SOL    HW249978   6.830   9.637   4.201 -1.4008  2.2941 -0.6256
14373SOL     OW49979   1.558   7.614   9.461  0.5228  0.3301 -0.7645
14373SOL    HW149980   1.489   7.671   9.426 -1.0712 -1.6723 -1.1031
14373SOL    HW249981   1.618   7.602   9.387 -0.9221 -1.0138 -1.7945
14374SOL     OW49982   2.676   0.588   9.026 -0.0532  0.0983 -0.5090
14374SOL    HW149983   2.711   0.517   8.973 -0.6416  0.7130 -1.7428
14374SOL    HW249984   2.597   0.616   8.981 -0.8063  0.3588  0.9293
14375SOL     OW49985   6.264   6.991   8.225  0.3100 -0.1014 -0.1645
14375SOL    HW149986   6.281   7.031   8.311 -1.7970 -0.4715  0.4997
14375SOL    HW249987   6.232   7.064   8.171  0.6261 -0.0665 -0.3042
14376SOL     OW49988   8.231   7.872  12.277  0.3666  0.3080 -0.7128
14376SOL    HW149989   8.174   7.941  12.241 -0.0214 -0.5660 -1.8390
14376SOL    HW249990   8.235   7.891  12.371 -1.0715  0.8998 -0.7383
14377SOL     OW49991   1.616   2.172   8.683 -0.1982 -0.6905 -0.0100
14377SOL    HW149992   1.602   2.112   8.609 -0.5425 -0.4018 -0.1827
14377SOL    HW249993   1.531   2.215   8.695 -0.0335 -0.4506  0.3013
14378SOL     OW49994   4.822   5.588  10.387 -0.0409 -0.0797 -0.2290
14378SOL    HW149995   4.776   5.522  10.440 -0.5819 -0.5243 -1.2348
14378SOL    HW249996   4.756   5.656  10.371  0.9931  1.6742  2.3297
14379SOL     OW49997   3.929   8.836  11.062 -0.0542 -0.0947  0.5669
14379SOL    HW149998   3.868   8.907  11.085 -0.9431 -1.2372  1.8909
14379SOL    HW249999   4.016   8.875  11.071 -0.5265  0.8852  1.1044
14380SOL     OW50000   4.685   4.316   9.249  0.2910 -0.2289 -0.7863
14380SOL    HW150001   4.781   4.314   9.246  0.3566  0.7497  0.0805
14380SOL    HW250002   4.659   4.362   9.169  0.5463 -0.3951 -0.9651
14381SOL     OW50003   7.452  11.982   0.013 -0.6153  0.2489 -0.3175
14381SOL    HW150004   7.383  11.918   0.032 -0.6805  0.6845  1.0318
14381SOL    HW250005   7.493  11.951  -0.067 -3.3433  0.7790 -2.0374
14382SOL     OW50006   5.204   1.223   6.052  0.0168 -0.3639  0.2318
14382SOL    HW150007   5.167   1.242   6.138  0.6980 -0.2559  0.5063
14382SOL    HW250008   5.217   1.128   6.052 -1.2842 -0.5576 -0.2874
14383SOL     OW50009   4.375   0.012   7.175 -0.6790  0.0074 -0.2230
14383SOL    HW150010   4.368  -0.069   7.125 -1.7347  1.0053 -1.7800
14383SOL    HW250011   4.294   0.017   7.225 -0.2950 -0.2416  0.4303
14384SOL     OW50012   5.052   8.995   3.085  0.2106  0.0056  0.0051
14384SOL    HW150013   5.007   9.063   3.135 -0.5556 -0.0853 -0.5545
14384SOL    HW250014   5.125   8.968   3.142  0.9270  1.7309 -0.0271
14385SOL     OW50015   8.492   3.536   9.246 -0.2618 -0.3253 -0.0301
14385SOL    HW150016   8.397   3.526   9.253 -0.5524  1.5669 -0.6256
14385SOL    HW250017   8.511   3.617   9.295  0.8263  0.1180 -1.1342
14386SOL     OW50018   2.880   8.893  10.053 -0.0975 -0.2265  0.2174
14386SOL    HW150019   2.863   8.941   9.973  0.1691 -0.8948 -0.2493
14386SOL    HW250020   2.886   8.960  10.121 -0.2601  0.3476 -0.3301
14387SOL     OW50021  10.002   6.317   0.417 -0.3453 -0.0356  0.3772
14387SOL    HW150022  10.013   6.410   0.397 -0.7034 -0.2958 -1.1533
14387SOL    HW250023   9.907   6.304   0.419 -0.4111  0.1530  3.4086
14388SOL     OW50024   1.270   6.046   9.175  0.7917  0.3887 -0.1437
14388SOL    HW150025   1.187   6.029   9.220  1.0193  1.1609  0.5944
14388SOL    HW250026   1.307   5.959   9.159 -1.1421 -0.0975 -2.4141
14389SOL     OW50027   1.999   0.765  10.205  0.0496 -0.0919  0.7360
14389SOL    HW150028   2.088   0.758  10.240  0.2880 -0.1127  0.1350
14389SOL    HW250029   1.965   0.675  10.208  0.1662 -0.1385  0.6515
14390SOL     OW50030  12.298  10.069   2.225  0.2347  0.3976 -0.1389
14390SOL    HW150031  12.259  10.102   2.307  0.3463 -2.9017  1.4202
14390SOL    HW250032  12.376  10.123   2.212  0.3754  0.8496  2.1126
14391SOL     OW50033   1.304   6.005  11.061 -0.4273 -0.1048 -0.1514
14391SOL    HW150034   1.214   5.974  11.076 -0.8073 -0.4587 -2.7570
14391SOL    HW250035   1.311   6.084  11.114 -2.2719 -0.0928  0.1358
14392SOL     OW50036  10.820   9.878  10.846 -0.1904 -0.1040  0.4665
14392SOL    HW150037  10.849   9.912  10.761 -1.9897  2.2549  0.7052
14392SOL    HW250038  10.731   9.848  10.830  0.6008 -2.8690  0.8092
14393SOL     OW50039  12.119   5.079   3.135  0.2737 -0.1608  0.1857
14393SOL    HW150040  12.187   5.013   3.120 -0.2341 -0.5257 -0.5981
14393SOL    HW250041  12.167   5.156   3.166  0.9169 -0.7665  0.7466
14394SOL     OW50042   7.349  11.349   4.204  0.2863  0.3223  0.0779
14394SOL    HW150043   7.303  11.301   4.273 -0.2796  1.7945  0.7747
14394SOL    HW250044   7.280  11.370   4.140  0.2586  1.3391  0.4354
14395SOL     OW50045  10.477   2.039   4.731 -0.0924 -0.3253  0.1086
14395SOL    HW150046  10.560   2.045   4.780 -0.8580  0.1011  1.4083
14395SOL    HW250047  10.441   1.954   4.758  0.1534 -0.7602 -0.8797
14396SOL     OW50048   5.691   3.683   5.260  0.1399  0.1709 -0.6724
14396SOL    HW150049   5.665   3.659   5.171 -0.6390  1.1816 -0.7356
14396SOL    HW250050   5.783   3.707   5.253  0.5207 -1.2319 -0.8896
14397SOL     OW50051   5.305   6.152   4.419 -0.1970 -1.1417  0.0557
14397SOL    HW150052   5.389   6.158   4.372 -0.7185 -0.0521 -0.7749
14397SOL    HW250053   5.303   6.062   4.453  1.6574 -0.9689  0.7777
14398SOL     OW50054   5.409   2.844   3.432 -0.2494  0.2685  0.1685
14398SOL    HW150055   5.355   2.920   3.413 -1.7537 -1.0333 -1.0451
14398SOL    HW250056   5.428   2.806   3.346  1.1320 -0.2990  0.6996
14399SOL     OW50057   1.476  10.716   9.646 -0.6272  0.3944 -0.5834
14399SOL    HW150058   1.545  10.661   9.611  0.0268  0.0875  1.0741
14399SOL    HW250059   1.400  10.699   9.590  0.0392 -0.8959 -1.1297
14400SOL     OW50060   0.418   3.014   9.678  0.1144 -0.0596 -0.1023
14400SOL    HW150061   0.347   3.042   9.621  0.0310 -0.9711 -0.4575
14400SOL    HW250062   0.483   2.976   9.620  0.3158 -0.4151  0.3447
14401SOL     OW50063   9.171  10.414   3.727 -0.1601  0.1737  0.1291
14401SOL    HW150064   9.166  10.506   3.754  0.6113  0.7027 -1.4341
14401SOL    HW250065   9.241  10.412   3.662 -0.6260 -1.4074 -0.3620
14402SOL     OW50066   9.410  12.156   9.833  0.5120  0.5425  0.0245
14402SOL    HW150067   9.325  12.130   9.870  0.4403  0.6468 -0.0668
14402SOL    HW250068   9.474  12.112   9.888  0.3760 -1.6095 -1.3915
14403SOL     OW50069   2.413   4.440   3.332 -0.6748 -0.6076 -0.3555
14403SOL    HW150070   2.425   4.353   3.370  0.2698 -0.7004 -0.8508
14403SOL    HW250071   2.348   4.482   3.388 -0.8454 -1.4915  0.1169
14404SOL     OW50072   6.202   1.481   8.077  0.1799 -0.3554  0.3579
14404SOL    HW150073   6.226   1.544   8.145  2.7035 -0.7997 -0.0398
14404SOL    HW250074   6.263   1.498   8.005 -2.0420 -0.2766 -1.6448
14405SOL     OW50075   2.908   9.215   9.962 -0.1454 -0.0684  0.2823
14405SOL    HW150076   2.985   9.239   9.911 -1.2226  0.0879 -1.3287
14405SOL    HW250077   2.944   9.174  10.041  1.5764  0.0553 -0.3921
14406SOL     OW50078   6.085  11.550   2.685  0.0769  0.2606 -0.3209
14406SOL    HW150079   6.120  11.636   2.663  1.1977 -0.1534 -0.1911
14406SOL    HW250080   6.018  11.533   2.619 -0.7086  1.5511  0.1063
14407SOL     OW50081   5.441  10.316   7.419 -0.1750 -0.0933 -0.4483
14407SOL    HW150082   5.395  10.310   7.503  1.3169 -0.3636  0.3899
14407SOL    HW250083   5.374  10.296   7.353 -1.1997 -0.6532  0.7283
14408SOL     OW50084   7.891   0.883  10.384 -0.1611  0.2409 -0.3874
14408SOL    HW150085   7.970   0.828  10.387 -0.8121 -0.6642  0.5424
14408SOL    HW250086   7.923   0.971  10.406  0.6582 -0.0288 -0.4622
14409SOL     OW50087   1.362   9.862   8.735  0.5574 -0.5002 -0.1769
14409SOL    HW150088   1.319   9.913   8.666 -1.0359 -1.7200 -0.1558
14409SOL    HW250089   1.300   9.863   8.808  0.1553 -2.9406 -0.4089
14410SOL     OW50090   3.210   9.797   4.557 -0.3735  0.7898 -0.2072
14410SOL    HW150091   3.171   9.741   4.624 -0.3277  0.8490 -0.1309
14410SOL    HW250092   3.139   9.854   4.528 -0.5889  0.2547 -0.7484
14411SOL     OW50093   1.051   1.131   6.075  0.2049  0.0575 -0.0086
14411SOL    HW150094   1.038   1.184   6.154  1.5919 -0.4502  0.5839
14411SOL    HW250095   1.131   1.082   6.091  1.1999  0.8170 -2.2105
14412SOL     OW50096   7.199  10.504   0.747  0.2683 -0.0055  0.0293
14412SOL    HW150097   7.117  10.485   0.701  0.9147 -2.0545 -0.3683
14412SOL    HW250098   7.185  10.471   0.836  0.1507  1.0430  0.4171
14413SOL     OW50099   6.600  11.740   9.261  0.3682 -0.1742 -0.4427
14413SOL    HW150100   6.561  11.744   9.174  0.6328 -0.4160 -0.5728
14413SOL    HW250101   6.609  11.832   9.288 -1.3941 -0.1066  0.0872
14414SOL     OW50102   6.134  12.276   2.067 -0.2173  0.0016  0.0149
14414SOL    HW150103   6.076  12.279   1.991 -0.3413 -2.0422 -0.0256
14414SOL    HW250104   6.124  12.361   2.109 -1.7437  0.3926 -1.0916
14415SOL     OW50105  12.090  10.685   9.586 -0.0709  0.0465 -0.4279
14415SOL    HW150106  12.119  10.762   9.538  0.0731  1.1374  1.3039
14415SOL    HW250107  12.141  10.687   9.667  0.9421 -2.6489 -0.8909
14416SOL     OW50108  10.861   5.300   2.127 -0.6215 -0.0936 -0.1520
14416SOL    HW150109  10.796   5.266   2.067 -0.1906  0.6800 -1.0928
14416SOL    HW250110  10.890   5.383   2.087  0.3166 -0.0015  0.6634
14417SOL     OW50111   1.245   7.313   7.930  0.7615 -0.3995  0.9636
14417SOL    HW150112   1.185   7.388   7.928  0.3683 -0.6857  1.9064
14417SOL    HW250113   1.291   7.321   8.013  1.6133 -0.5203  0.5105
14418SOL     OW50114  10.246   2.648   8.935 -0.6165  0.2252  0.6433
14418SOL    HW150115  10.308   2.624   9.004 -0.5427 -1.0528  0.1623
14418SOL    HW250116  10.207   2.730   8.965  0.0115  0.1196  1.8030
14419SOL     OW50117   4.694   5.573   0.879  0.7617 -0.2430 -0.2177
14419SOL    HW150118   4.765   5.623   0.918  0.1926  1.8732 -1.6976
14419SOL    HW250119   4.619   5.591   0.936  0.9966 -1.0187  0.3425
14420SOL     OW50120   4.966   0.614   0.409  0.2885  0.1574  0.0582
14420SOL    HW150121   4.992   0.700   0.378  1.5784 -0.2046  0.0911
14420SOL    HW250122   4.936   0.569   0.330 -2.9680  1.4497  0.3956
14421SOL     OW50123   5.901   9.281   1.230 -0.0742  0.0569 -0.4174
14421SOL    HW150124   5.867   9.220   1.164  0.0431 -0.1194 -0.3162
14421SOL    HW250125   5.829   9.291   1.292  0.8195 -2.1750  1.1051
14422SOL     OW50126   0.983   4.716   3.559  0.1999  0.7229 -0.3014
14422SOL    HW150127   0.931   4.787   3.595  1.5665  0.8019  1.6837
14422SOL    HW250128   1.009   4.664   3.635 -0.4810 -1.7534 -1.6513
14423SOL     OW50129   8.692   8.555   0.122  0.9673 -0.2456 -0.1761
14423SOL    HW150130   8.769   8.521   0.075  1.0295 -0.4691  0.0872
14423SOL    HW250131   8.727   8.628   0.174  1.0377 -0.4598  0.0806
14424SOL     OW50132  10.593  10.494   0.173  0.1936  0.1383  0.0234
14424SOL    HW150133  10.607  10.400   0.164 -0.8726  0.1678 -3.1881
14424SOL    HW250134  10.645  10.532   0.102 -1.0317  1.7715 -0.0401
14425SOL     OW50135   6.169   5.835  11.827  0.2359 -0.0382 -0.0120
14425SOL    HW150136   6.086   5.857  11.784 -0.6473 -0.1003  1.5837
14425SOL    HW250137   6.209   5.919  11.847  0.1773  0.0054 -0.0768
14426SOL     OW50138   7.651  10.895   4.929 -0.4885 -0.2021  0.4190
14426SOL    HW150139   7.628  10.878   4.838 -2.0148 -1.0774  0.9274
14426SOL    HW250140   7.677  10.810   4.963 -1.5529 -0.2357  1.2112
14427SOL     OW50141   0.848   9.556   5.979 -0.5225 -0.3320  0.1777
14427SOL    HW150142   0.773   9.616   5.985  0.8903  1.5100  0.4325
14427SOL    HW250143   0.868   9.534   6.069 -0.2723 -0.1833  0.1583
14428SOL     OW50144   7.078   9.411   4.785 -0.4572 -0.4191  0.0176
14428SOL    HW150145   7.097   9.489   4.837  1.9272 -2.1363  1.9741
14428SOL    HW250146   7.045   9.347   4.848  0.5236 -1.9424 -0.9492
14429SOL     OW50147   6.087  10.015   6.028  0.2204  0.7404 -0.2307
14429SOL    HW150148   6.058   9.953   5.961  1.8648 -1.2318  0.7489
14429SOL    HW250149   6.016  10.017   6.092 -0.0234  0.1395 -0.4744
14430SOL     OW50150   4.364   6.677   6.242 -0.1995  0.3402  0.2758
14430SOL    HW150151   4.388   6.762   6.204 -0.5801 -0.3127 -1.5082
14430SOL    HW250152   4.448   6.638   6.266  0.0735  0.6866 -0.0990
14431SOL     OW50153   9.146   6.952   3.591 -0.4350  0.0274  0.0227
14431SOL    HW150154   9.130   7.018   3.659  1.0776 -0.5396  0.9822
14431SOL    HW250155   9.234   6.971   3.559  0.0900 -1.5593  0.4000
14432SOL     OW50156   9.216   3.102  10.199 -0.1990 -0.3789 -0.6070
14432SOL    HW150157   9.127   3.068  10.202 -0.5949  0.5882  2.1041
14432SOL    HW250158   9.264   3.041  10.144 -2.0847 -2.0942 -0.4455
14433SOL     OW50159   3.929   3.760   8.861  0.0145 -0.5448  0.6104
14433SOL    HW150160   4.014   3.772   8.819  0.0483  0.5867  0.9755
14433SOL    HW250161   3.906   3.669   8.842  1.9306 -1.3211  1.6565
14434SOL     OW50162   0.555   7.518   7.511  0.3143  0.2234  0.2691
14434SOL    HW150163   0.548   7.425   7.534  0.9994  0.0952 -0.0273
14434SOL    HW250164   0.568   7.518   7.416 -2.4193  0.7434 -0.1727
14435SOL     OW50165   0.540   9.450   9.797 -0.3450  0.1397 -0.1141
14435SOL    HW150166   0.451   9.439   9.763 -0.6256  1.5697  0.1093
14435SOL    HW250167   0.528   9.463   9.891  0.0126  1.2617 -0.2115
14436SOL     OW50168   5.690   7.422  10.980  0.3613 -0.8939  0.2445
14436SOL    HW150169   5.629   7.484  10.940  1.7799  1.3232  1.3579
14436SOL    HW250170   5.634   7.355  11.019 -1.2555  0.0708 -0.3441
14437SOL     OW50171  11.783   6.230   8.394 -0.3090  0.4283 -0.0004
14437SOL    HW150172  11.787   6.136   8.378 -0.0882  1.0019 -4.7964
14437SOL    HW250173  11.875   6.257   8.402 -0.2085  0.4609 -1.0787
14438SOL     OW50174   4.295   7.874   9.503  0.1208 -0.3202 -0.7439
14438SOL    HW150175   4.388   7.890   9.485  0.2827  2.6506  1.8970
14438SOL    HW250176   4.249   7.912   9.428  0.9939  0.7922 -0.7497
14439SOL     OW50177   2.959   8.713  11.524 -0.4924  0.7081  0.5338
14439SOL    HW150178   2.864   8.710  11.536 -0.5179 -0.5243  0.1151
14439SOL    HW250179   2.972   8.684  11.434  0.2938  0.8993  0.5790
14440SOL     OW50180   5.827   8.556   3.707  0.1317  0.3960 -0.1591
14440SOL    HW150181   5.897   8.562   3.771 -0.2396 -0.1702  0.3173
14440SOL    HW250182   5.747   8.578   3.756 -0.4614 -2.1943  0.1797
14441SOL     OW50183   9.969   3.497   7.053  0.3037 -0.1693  0.7846
14441SOL    HW150184  10.025   3.522   6.979  0.9960 -0.3484  1.2385
14441SOL    HW250185   9.891   3.552   7.044  0.3717 -0.2046 -0.0899
14442SOL     OW50186   7.219  12.319   7.417 -0.2316  0.4686  0.3309
14442SOL    HW150187   7.155  12.301   7.348 -0.5467 -0.2200  0.7850
14442SOL    HW250188   7.168  12.364   7.485 -0.6268 -1.4082  1.3489
14443SOL     OW50189   7.273   4.306   8.143  0.4152  0.0220  0.0557
14443SOL    HW150190   7.263   4.273   8.054 -1.3294 -2.3314  1.0361
14443SOL    HW250191   7.233   4.393   8.141  0.9568  0.2615 -1.5627
14444SOL     OW50192   2.802   4.949   6.865  0.5912 -0.5779 -0.0927
14444SOL    HW150193   2.780   4.969   6.774 -1.5009 -1.4288  0.1784
14444SOL    HW250194   2.788   4.854   6.872  2.3893 -0.8397  0.7218
14445SOL     OW50195   2.964   5.763   7.495  0.6960  0.2872 -0.1644
14445SOL    HW150196   2.907   5.690   7.474  0.1279 -0.0451  2.2293
14445SOL    HW250197   2.978   5.808   7.412 -1.2578 -0.8822 -1.1811
14446SOL     OW50198   6.079   4.560   0.797 -0.0154 -0.2304 -0.4650
14446SOL    HW150199   6.122   4.560   0.712 -0.9721 -0.2240 -0.9637
14446SOL    HW250200   6.110   4.639   0.840  0.2124 -0.0581 -0.9408
14447SOL     OW50201   0.909   6.328   4.981  0.2236  0.1014  0.0142
14447SOL    HW150202   0.847   6.347   4.912  1.4608  2.1950 -0.6132
14447SOL    HW250203   0.858   6.282   5.048 -1.4534 -0.1629 -1.3898
14448SOL     OW50204   6.010   0.472   5.524  0.0190 -0.9576 -0.1619
14448SOL    HW150205   6.027   0.463   5.618  0.2388  0.4728 -0.0331
14448SOL    HW250206   6.015   0.383   5.490 -1.1162 -1.6402  1.3503
14449SOL     OW50207   1.232   0.125   1.290 -0.1725  0.3333  0.2052
14449SOL    HW150208   1.272   0.212   1.294  1.3483 -0.3431  0.0548
14449SOL    HW250209   1.256   0.091   1.204 -0.6621 -0.2980  0.3076
14450SOL     OW50210  10.672   6.163   5.756  0.1814  0.0367  0.2058
14450SOL    HW150211  10.588   6.119   5.741 -0.0614  0.8174 -0.8348
14450SOL    HW250212  10.726   6.097   5.801 -0.2910 -1.2047 -0.9821
14451SOL     OW50213   4.966   2.775  10.672 -0.2744 -0.1829  0.3316
14451SOL    HW150214   5.041   2.742  10.623 -0.7522 -0.8604  0.0349
14451SOL    HW250215   4.988   2.758  10.763 -0.7126 -1.8406  0.1670
14452SOL     OW50216   4.573   3.016   7.728  1.1359  0.0878  0.4934
14452SOL    HW150217   4.556   3.028   7.821  0.8761 -1.0954  0.6054
14452SOL    HW250218   4.652   3.069   7.712  3.3620 -2.4360  2.1798
14453SOL     OW50219  10.035   3.006   5.177  0.2949  0.1540  0.4325
14453SOL    HW150220  10.106   2.947   5.152 -0.6154 -1.1381  0.8523
14453SOL    HW250221   9.956   2.955   5.166 -0.8022  2.1241 -1.8237
14454SOL     OW50222   6.882  10.079   2.320  0.0714 -0.1807 -0.1663
14454SOL    HW150223   6.835  10.038   2.247 -0.5565  0.8603 -0.3720
14454SOL    HW250224   6.861  10.172   2.313  1.4098  0.1822  0.3194
14455SOL     OW50225   8.613  10.326   0.880  0.8445  0.0758  0.3732
14455SOL    HW150226   8.544  10.291   0.823  0.0823  0.2010  1.1874
14455SOL    HW250227   8.643  10.405   0.836 -0.3350  0.6380  0.5575
14456SOL     OW50228   3.115  11.569  11.172  0.3194 -0.0948  0.0396
14456SOL    HW150229   3.132  11.635  11.240 -1.3909  1.2371 -0.7424
14456SOL    HW250230   3.062  11.503  11.217 -0.9347  0.8550  0.0371
14457SOL     OW50231   4.895   9.526   1.937  1.1530 -0.0692 -0.2373
14457SOL    HW150232   4.858   9.507   1.851  2.4808  1.7150 -1.2832
14457SOL    HW250233   4.892   9.621   1.944  0.9447 -0.1749  1.7873
14458SOL     OW50234  10.012   2.819  11.378  0.3558 -0.6210 -0.1557
14458SOL    HW150235  10.080   2.849  11.438 -0.5611 -1.3619  1.2858
14458SOL    HW250236   9.937   2.876  11.395 -0.4744 -1.8999  0.6535
14459SOL     OW50237   9.360   7.437   3.138  0.1171 -0.4703  0.1561
14459SOL    HW150238   9.340   7.361   3.192 -1.9734 -0.4808 -0.5298
14459SOL    HW250239   9.322   7.417   3.053 -1.5962  1.7927  0.3010
14460SOL     OW50240   2.345   5.240   3.026  0.4123 -0.6285 -0.1572
14460SOL    HW150241   2.255   5.208   3.035  0.5986 -1.0583  0.2401
14460SOL    HW250242   2.339   5.335   3.034 -0.2355 -0.4770 -1.9360
14461SOL     OW50243   6.799   6.870   5.291 -0.4138 -0.1664 -0.6152
14461SOL    HW150244   6.704   6.866   5.297 -0.3306 -2.3461  0.5141
14461SOL    HW250245   6.828   6.889   5.380  0.2194 -0.6377 -0.7136
14462SOL     OW50246   8.202  10.244   5.647 -0.6121  0.1781  0.0228
14462SOL    HW150247   8.267  10.282   5.588  0.3569 -0.7561  0.4583
14462SOL    HW250248   8.189  10.155   5.614 -0.3052 -0.2450  0.9911
14463SOL     OW50249   7.393   7.272   4.544 -0.4683  0.6956 -0.1333
14463SOL    HW150250   7.438   7.292   4.626  0.5884  0.1191 -0.5500
14463SOL    HW250251   7.302   7.259   4.569 -0.3650  1.6189  0.7810
14464SOL     OW50252   2.100   6.400  11.959 -0.2343 -0.6279  0.4078
14464SOL    HW150253   2.057   6.348  11.891 -0.1174  0.1242 -0.2628
14464SOL    HW250254   2.073   6.490  11.941  0.3206 -0.3413  0.9683
14465SOL     OW50255   2.134   8.745  11.919  0.2023 -0.5205  0.1004
14465SOL    HW150256   2.215   8.698  11.941  0.2212 -0.7028 -0.3660
14465SOL    HW250257   2.070   8.713  11.983 -0.5648 -3.3277 -1.8932
14466SOL     OW50258   6.530   2.786   1.015 -0.1666 -0.0949  0.5333
14466SOL    HW150259   6.511   2.696   1.043 -2.1926  0.0086 -0.3592
14466SOL    HW250260   6.585   2.821   1.085 -0.9314 -1.4362  1.8763
14467SOL     OW50261   3.199   1.647  11.834  0.1703  0.5490  0.1581
14467SOL    HW150262   3.245   1.656  11.917  1.9268  1.3274 -0.8486
14467SOL    HW250263   3.119   1.700  11.846  1.3734  2.3490  0.7063
14468SOL     OW50264   1.306   5.821  11.577  0.3915 -0.3187 -0.3286
14468SOL    HW150265   1.392   5.813  11.618 -0.3744  0.4811  1.5832
14468SOL    HW250266   1.249   5.766  11.630 -0.6812  0.8930 -0.1619
14469SOL     OW50267   1.344   7.998   9.922  0.2229  0.1305  0.5497
14469SOL    HW150268   1.351   7.933   9.852  0.8487 -0.1355  0.8431
14469SOL    HW250269   1.354   7.947  10.002  0.0160  0.4984  0.8097
14470SOL     OW50270   2.181   7.344   5.563 -0.5766 -0.3063 -0.1606
14470SOL    HW150271   2.241   7.418   5.556 -0.3687 -0.4920 -0.3826
14470SOL    HW250272   2.162   7.319   5.472 -1.7456  0.3503 -0.1224
14471SOL     OW50273   4.229   8.062   7.814 -0.1233  0.1323 -0.1684
14471SOL    HW150274   4.242   7.989   7.875  0.6851  0.0702 -0.4051
14471SOL    HW250275   4.317   8.090   7.791 -0.4163  1.6258  0.4299
14472SOL     OW50276   3.295   8.516  10.198 -0.2777  0.2472  0.5227
14472SOL    HW150277   3.354   8.454  10.241 -0.2848  0.5846  1.0324
14472SOL    HW250278   3.223   8.463  10.165  0.7289 -0.2991 -0.8876
14473SOL     OW50279   0.427   6.699  12.000 -0.3352  0.1076  0.1895
14473SOL    HW150280   0.350   6.645  12.019 -0.8423 -0.0068 -1.9416
14473SOL    HW250281   0.492   6.636  11.969  0.0790  0.4079  0.4415
14474SOL     OW50282   0.802   2.920  11.178  0.1310 -0.3056  0.2508
14474SOL    HW150283   0.803   2.849  11.113  1.4753 -1.2170  1.2253
14474SOL    HW250284   0.878   2.974  11.155  0.1640 -0.2021  0.6078
14475SOL     OW50285   4.109   2.974   0.466  0.1984 -0.0945 -0.0915
14475SOL    HW150286   4.152   3.046   0.420 -0.2204 -0.9764 -1.9677
14475SOL    HW250287   4.037   3.016   0.514 -1.4138  0.5969 -2.8740
14476SOL     OW50288   4.989   2.575  12.410 -0.3858  0.4574  0.2926
14476SOL    HW150289   4.982   2.613  12.322 -1.0805  1.5543  0.7961
14476SOL    HW250290   5.068   2.522  12.407  0.2242  1.3808 -0.6754
14477SOL     OW50291   3.578   6.989   3.715 -0.3276  0.3849 -0.4182
14477SOL    HW150292   3.652   7.045   3.692 -0.7072  0.5753 -1.2242
14477SOL    HW250293   3.596   6.906   3.671  0.2074 -0.1207  0.7302
14478SOL     OW50294  10.631   0.476   2.099 -0.1419 -0.0570  0.0729
14478SOL    HW150295  10.585   0.452   2.179 -0.9214 -0.5784 -0.5212
14478SOL    HW250296  10.601   0.565   2.079 -1.7168 -0.7670 -0.8701
14479SOL     OW50297  11.100   3.407  11.270  0.0950 -0.5021 -0.1336
14479SOL    HW150298  11.134   3.488  11.308  1.4922 -0.4590 -1.3896
14479SOL    HW250299  11.116   3.341  11.338 -1.8698  0.3632  1.2695
14480SOL     OW50300   8.313   8.515   7.619  0.2831 -0.2625  0.1961
14480SOL    HW150301   8.238   8.551   7.570  1.2747  2.2356  0.3445
14480SOL    HW250302   8.390   8.549   7.572  1.2783  0.7092  2.4071
14481SOL     OW50303  11.621   7.313   9.767  0.0655 -0.2099  0.1229
14481SOL    HW150304  11.546   7.374   9.765  1.2657  1.3223 -1.9743
14481SOL    HW250305  11.640   7.301   9.860 -0.2019  2.7095  0.6321
14482SOL     OW50306   2.094  11.184   9.327 -0.0669 -0.3279 -0.0015
14482SOL    HW150307   2.176  11.183   9.377  0.3019  0.2861 -0.5793
14482SOL    HW250308   2.051  11.101   9.350  0.9692 -0.9161 -0.1017
14483SOL     OW50309   1.274   8.019   6.459  0.6555 -0.1824 -0.5680
14483SOL    HW150310   1.332   8.063   6.397  1.0966 -0.3737 -0.3011
14483SOL    HW250311   1.301   8.052   6.545 -0.6163  0.8403 -0.5402
14484SOL     OW50312  12.180   1.860   3.316 -0.1432 -0.4875 -0.2656
14484SOL    HW150313  12.241   1.934   3.315 -1.5555  0.7243 -0.3173
14484SOL    HW250314  12.213   1.801   3.248  2.4476 -1.1799  1.4329
14485SOL     OW50315   3.311  10.463   7.849  0.1908 -0.7003 -0.2420
14485SOL    HW150316   3.278  10.462   7.759  0.1300  1.7434 -0.3228
14485SOL    HW250317   3.232  10.458   7.904  0.2004 -1.7302 -0.2984
14486SOL     OW50318   8.846   7.056   5.949  0.1879  0.2343 -0.1541
14486SOL    HW150319   8.817   7.083   5.862  2.7142 -0.1273 -1.1868
14486SOL    HW250320   8.848   7.137   6.000 -2.9331  0.2235  0.1847
14487SOL     OW50321   1.872   3.628   4.807 -0.2324 -0.6022 -0.4447
14487SOL    HW150322   1.848   3.651   4.897  1.4444 -2.1487  0.4487
14487SOL    HW250323   1.906   3.709   4.770  1.3043 -0.4802  1.1190
14488SOL     OW50324   4.584  12.214   4.918  0.2532  0.4867 -0.9138
14488SOL    HW150325   4.558  12.122   4.923  0.2829  0.4835 -0.8328
14488SOL    HW250326   4.501  12.261   4.904  0.3935  0.3135 -2.5933
14489SOL     OW50327   3.487   0.073   3.644  0.0172  0.1869 -0.6234
14489SOL    HW150328   3.548   0.102   3.712 -1.6657  1.6087  0.3764
14489SOL    HW250329   3.530  -0.003   3.604  1.2028 -0.5893  1.8760
14490SOL     OW50330   2.980   2.895   2.262 -0.2109 -0.3504 -0.0339
14490SOL    HW150331   2.972   2.896   2.358 -2.0028  0.0131 -0.1514
14490SOL    HW250332   3.057   2.949   2.244 -0.1693  0.0238  1.1771
14491SOL     OW50333  10.371   3.493  11.002 -0.4245  0.0982 -0.0134
14491SOL    HW150334  10.377   3.492  11.097  0.3085 -0.7959 -0.0551
14491SOL    HW250335  10.462   3.498  10.972 -0.6297  0.0421 -0.6695
14492SOL     OW50336   0.827   0.866  11.494  0.4753  0.5606  0.0501
14492SOL    HW150337   0.735   0.890  11.496  0.3190  0.1144 -1.0078
14492SOL    HW250338   0.830   0.774  11.520  0.8461  1.0661  1.9559
14493SOL     OW50339   0.263   9.890   8.477  0.2713  0.7932 -0.1351
14493SOL    HW150340   0.292   9.808   8.437 -1.7902 -0.4298  0.6934
14493SOL    HW250341   0.178   9.869   8.515  0.2220  3.0270  1.1669
14494SOL     OW50342   5.128   6.122   4.977  0.1438 -0.6815 -0.7194
14494SOL    HW150343   5.131   6.033   5.012  0.2583 -0.1482  0.7221
14494SOL    HW250344   5.166   6.176   5.047 -0.1709  0.5282 -1.4573
14495SOL     OW50345   1.855   1.610   3.088 -0.0353  0.3073 -0.1435
14495SOL    HW150346   1.797   1.557   3.144 -1.2396  0.8997 -0.7987
14495SOL    HW250347   1.802   1.631   3.011  0.1923  2.9267  0.3176
14496SOL     OW50348   7.569   3.971   9.992 -0.6872  0.1690  0.6658
14496SOL    HW150349   7.485   3.933   9.966 -0.6759  0.2029  0.5800
14496SOL    HW250350   7.611   3.995   9.910 -0.5375  0.0316  0.7009
14497SOL     OW50351  12.430  11.067   5.147 -0.3990  0.0649 -0.0275
14497SOL    HW150352  12.371  11.132   5.108  0.3687  0.6967 -0.1664
14497SOL    HW250353  12.517  11.102   5.130  0.1972 -2.1899 -2.3616
14498SOL     OW50354   5.460   5.232   7.432  0.2148 -0.0705 -0.5611
14498SOL    HW150355   5.541   5.200   7.391  1.6949  1.6248  0.9102
14498SOL    HW250356   5.443   5.169   7.501 -0.5808 -1.2324 -1.7639
14499SOL     OW50357  10.906   4.670   1.357  0.5372 -0.5306 -0.0980
14499SOL    HW150358  10.827   4.619   1.376 -0.0838  1.0814  2.0436
14499SOL    HW250359  10.978   4.614   1.384 -0.1585 -0.0988  2.9868
14500SOL     OW50360   7.906   9.732   5.804  0.3663 -0.0514  0.1251
14500SOL    HW150361   7.941   9.785   5.876 -0.3374  0.2530  0.2481
14500SOL    HW250362   7.865   9.796   5.745 -0.0535 -0.4107  0.0224
14501SOL     OW50363  12.052   1.947   4.971 -0.1319 -0.3332  0.4914
14501SOL    HW150364  11.968   1.903   4.985 -0.5868 -0.5635 -2.3645
14501SOL    HW250365  12.116   1.888   5.011 -1.2527 -0.1969  2.6374
14502SOL     OW50366   8.118   2.730   3.942  0.5431  0.4980  0.1453
14502SOL    HW150367   8.180   2.702   3.874  0.6821  1.8151 -0.3150
14502SOL    HW250368   8.071   2.803   3.902 -0.7340  0.0612  0.7996
14503SOL     OW50369   5.574   5.297   3.414 -0.2288  0.7226 -0.2062
14503SOL    HW150370   5.525   5.215   3.410  1.7552 -0.5822  0.5250
14503SOL    HW250371   5.648   5.278   3.472  1.7220  2.2402 -2.0290
14504SOL     OW50372   2.827   4.381   2.231  0.3191  0.0086  0.5972
14504SOL    HW150373   2.905   4.431   2.258  0.0405  0.3267  0.8248
14504SOL    HW250374   2.794   4.429   2.155  0.1266  0.0962  0.7356
14505SOL     OW50375   6.322   0.336   4.350  0.0808 -0.1625 -0.1132
14505SOL    HW150376   6.376   0.303   4.277 -0.6252 -2.4935  0.3263
14505SOL    HW250377   6.232   0.325   4.319 -0.2176  2.1072 -0.1802
14506SOL     OW50378   8.456  11.545   4.507 -0.3660 -0.3408  0.1420
14506SOL    HW150379   8.440  11.545   4.412  2.5824  2.1848 -0.4950
14506SOL    HW250380   8.518  11.473   4.520  2.1084  1.5297 -0.5837
14507SOL     OW50381   0.725  11.355  12.085 -0.3673 -0.0981  0.0873
14507SOL    HW150382   0.640  11.349  12.042  0.1279 -1.0742 -0.7914
14507SOL    HW250383   0.760  11.440  12.057 -1.3511  0.6713  1.0778
14508SOL     OW50384  11.886   5.565   2.540 -0.0211 -0.4296  0.1635
14508SOL    HW150385  11.883   5.658   2.563 -0.8135 -0.1583 -0.9750
14508SOL    HW250386  11.799   5.547   2.504  0.2627 -1.5215  0.0188
14509SOL     OW50387   0.181   9.036   7.608 -0.5777  0.0573  0.2667
14509SOL    HW150388   0.147   8.985   7.682 -1.9681  0.4545 -0.0682
14509SOL    HW250389   0.271   9.004   7.596 -0.5536 -0.4949  1.6820
14510SOL     OW50390   6.006   7.103   1.699 -0.0096  0.0823 -0.5116
14510SOL    HW150391   6.093   7.072   1.725 -0.9768 -0.9219  1.7757
14510SOL    HW250392   5.993   7.067   1.611  1.6222 -0.2693 -0.6445
14511SOL     OW50393   0.700   4.448  10.597 -0.7262 -0.2053 -0.0938
14511SOL    HW150394   0.678   4.476  10.686  2.1464  1.1376  0.3038
14511SOL    HW250395   0.700   4.352  10.600 -0.0261 -0.1772  1.5554
14512SOL     OW50396   3.394   6.733   1.541  0.6140  0.1703  0.1359
14512SOL    HW150397   3.329   6.798   1.567  1.1620  0.1798  1.5830
14512SOL    HW250398   3.432   6.702   1.623 -0.1473 -2.5720 -0.4413
14513SOL     OW50399   9.251  11.460   2.241  0.0819  0.1552 -0.3664
14513SOL    HW150400   9.255  11.555   2.233 -1.0474  0.1227 -1.7400
14513SOL    HW250401   9.316  11.439   2.308  1.1778  1.7849 -0.8450
14514SOL     OW50402   7.216   1.222   3.440  0.3682  0.0309  0.2106
14514SOL    HW150403   7.300   1.184   3.469 -0.2661 -0.1701  1.9450
14514SOL    HW250404   7.240   1.307   3.403  1.5635 -0.9909 -1.5069
14515SOL     OW50405  11.781   5.927   0.153  0.3079  0.5608 -0.2802
14515SOL    HW150406  11.731   5.845   0.151  1.9131 -0.4469 -1.4528
14515SOL    HW250407  11.784   5.951   0.246 -0.5067 -0.4974  0.0386
14516SOL     OW50408  10.261   2.587   0.361 -0.4422  0.4894  0.2790
14516SOL    HW150409  10.214   2.652   0.309 -1.2491  0.2641  0.7225
14516SOL    HW250410  10.284   2.634   0.442 -0.9651  0.2511  0.5703
14517SOL     OW50411   7.090   0.011   3.563 -0.4354  0.2092 -0.2295
14517SOL    HW150412   7.162   0.041   3.509  0.9104 -1.6805  0.4355
14517SOL    HW250413   7.100  -0.084   3.568 -0.8663  0.2178  2.7470
14518SOL     OW50414   9.441   2.790   8.971 -0.6048 -0.3872  0.3447
14518SOL    HW150415   9.365   2.843   8.947 -0.4190 -0.0586  0.4830
14518SOL    HW250416   9.460   2.739   8.892 -1.3695 -0.9619  0.5193
14519SOL     OW50417   8.624   0.375   0.437 -0.3759  0.4492 -0.4298
14519SOL    HW150418   8.719   0.389   0.435 -0.6658  2.7883 -0.8953
14519SOL    HW250419   8.593   0.424   0.513 -1.3353  0.7197 -0.9700
14520SOL     OW50420  11.228   4.334  12.277 -0.3708  0.0935  0.0634
14520SOL    HW150421  11.161   4.390  12.238 -0.0482  0.2362 -0.2936
14520SOL    HW250422  11.207   4.333  12.370 -1.1419 -0.2381 -0.1064
14521SOL     OW50423   3.307   5.647   1.430  0.1436  0.8460  0.1497
14521SOL    HW150424   3.259   5.603   1.359 -0.2449  1.7470 -0.1528
14521SOL    HW250425   3.293   5.591   1.506  1.5183 -0.7774 -0.7086
14522SOL     OW50426   7.670   9.184   6.929  0.0881 -0.2520 -0.5608
14522SOL    HW150427   7.726   9.232   6.990  1.1079 -1.0418 -0.8432
14522SOL    HW250428   7.724   9.111   6.898 -0.4673 -0.0068 -2.2436
14523SOL     OW50429  11.934   7.517   9.389  0.3700  0.5137  0.5842
14523SOL    HW150430  12.021   7.543   9.357 -0.0856  1.8082  0.3298
14523SOL    HW250431  11.952   7.459   9.463  1.4405 -0.4800 -0.4176
14524SOL     OW50432   5.044   9.953  11.726 -0.1742 -0.3311 -0.0825
14524SOL    HW150433   4.953   9.969  11.752 -0.1821  1.1653 -0.9146
14524SOL    HW250434   5.051   9.991  11.639  1.6300  1.0184  0.5765
14525SOL     OW50435   5.107   0.496  12.057  0.4799 -0.2030 -0.2101
14525SOL    HW150436   5.178   0.433  12.041  0.4220 -0.4897  0.6404
14525SOL    HW250437   5.130   0.538  12.139  1.1164  1.7502 -1.3313
14526SOL     OW50438   5.068  10.131   6.969 -0.0258  0.1346  0.1066
14526SOL    HW150439   5.081  10.222   6.943  0.1353  0.9645  2.8206
14526SOL    HW250440   4.987  10.132   7.019  0.1346 -1.1797  0.4202
14527SOL     OW50441   8.592   4.963   5.914  0.1449 -0.0471  0.9169
14527SOL    HW150442   8.591   4.867   5.914  1.1398 -0.0830 -0.1108
14527SOL    HW250443   8.656   4.987   5.981  0.1396 -0.1110  0.9441
14528SOL     OW50444   6.076   7.215   6.467 -0.0260 -1.0769  0.3579
14528SOL    HW150445   6.018   7.150   6.428 -0.5051 -0.8251  0.6346
14528SOL    HW250446   6.018   7.271   6.519  0.5936 -1.4712  1.5136
14529SOL     OW50447  10.599  11.086   6.659  0.2228  0.1138 -0.4254
14529SOL    HW150448  10.597  11.145   6.734  1.4315 -0.3767  0.0282
14529SOL    HW250449  10.579  11.000   6.696  0.1288 -0.0239 -0.7913
14530SOL     OW50450   7.828   9.321   1.091 -0.0030  0.2364  0.1312
14530SOL    HW150451   7.739   9.333   1.124  0.0503  0.2881  0.2546
14530SOL    HW250452   7.817   9.267   1.012 -0.1254  0.0727  0.2581
14531SOL     OW50453  10.765   7.841  10.655  0.2082  0.2529  0.0035
14531SOL    HW150454  10.724   7.755  10.668  0.1707  0.0092 -1.5814
14531SOL    HW250455  10.713   7.900  10.709 -0.2321 -0.5953  0.5373
14532SOL     OW50456   4.587   6.674   3.474 -0.6319 -0.7321  0.3420
14532SOL    HW150457   4.556   6.679   3.383  0.2276 -1.1442  0.0165
14532SOL    HW250458   4.623   6.586   3.481  0.6242 -0.2100  0.6521
14533SOL     OW50459  10.361   7.665   5.068  0.4644 -0.8049 -0.1253
14533SOL    HW150460  10.301   7.618   5.009  0.7283 -0.2512 -0.8515
14533SOL    HW250461  10.400   7.596   5.121 -1.0824 -1.1364  0.6297
14534SOL     OW50462   2.075   3.287   3.866 -0.1435  0.0025 -0.4024
14534SOL    HW150463   2.141   3.218   3.862 -1.1583 -0.9592 -0.6651
14534SOL    HW250464   2.031   3.285   3.781  0.0103  1.1844 -0.5353
14535SOL     OW50465   6.553   4.419   5.315  0.0188 -0.0174 -0.0505
14535SOL    HW150466   6.546   4.514   5.320  0.6574  0.0585 -0.4768
14535SOL    HW250467   6.593   4.402   5.229  3.1818 -0.4460  1.3518
14536SOL     OW50468  11.694   0.708   0.524 -0.0093 -0.1411 -0.1237
14536SOL    HW150469  11.601   0.716   0.506 -0.4542 -1.6426  1.2399
14536SOL    HW250470  11.719   0.625   0.484  1.0484  0.7786 -1.4716
14537SOL     OW50471   8.371   6.178   6.129  0.8693 -0.0297 -0.2519
14537SOL    HW150472   8.329   6.259   6.102  1.9150  0.4876 -0.3813
14537SOL    HW250473   8.346   6.115   6.062  0.9619  0.4755 -0.7708
14538SOL     OW50474  11.859   1.675   9.565 -0.3928 -0.7760  0.6027
14538SOL    HW150475  11.935   1.706   9.615 -1.2702 -0.4844  1.8231
14538SOL    HW250476  11.878   1.699   9.475 -0.3220  2.0146  1.2578
14539SOL     OW50477   7.700   3.546   7.658 -0.1726 -0.1450 -0.4157
14539SOL    HW150478   7.688   3.622   7.601  0.0566 -1.0149 -1.6424
14539SOL    HW250479   7.795   3.536   7.664 -0.1317  0.8318  1.3701
14540SOL     OW50480   7.912  10.925   8.301  0.4223  0.1531  0.5967
14540SOL    HW150481   7.922  10.903   8.209 -0.9476 -3.3620  1.1441
14540SOL    HW250482   7.834  10.981   8.304 -0.2727 -0.7462 -0.2738
14541SOL     OW50483   8.607  11.454   2.666 -0.3133  0.0147 -0.5235
14541SOL    HW150484   8.650  11.445   2.582 -0.2209 -0.7227 -0.4012
14541SOL    HW250485   8.612  11.367   2.706 -2.6115 -0.3294 -0.8494
14542SOL     OW50486  11.690   5.376   7.162 -0.6655 -0.3964  0.2552
14542SOL    HW150487  11.741   5.430   7.102 -0.8654  0.2076  0.6191
14542SOL    HW250488  11.609   5.425   7.177  0.1037  0.3635  2.3876
14543SOL     OW50489   4.102   1.338  10.474 -0.6397  0.0828  0.1154
14543SOL    HW150490   4.071   1.279  10.542 -0.1823 -0.4030 -0.0884
14543SOL    HW250491   4.159   1.284  10.420  1.1001  1.0712  0.8623
14544SOL     OW50492   7.430   0.406   4.993 -0.1741  0.0221  0.4240
14544SOL    HW150493   7.416   0.452   5.075  0.3762 -0.8003  0.9953
14544SOL    HW250494   7.486   0.331   5.016  1.0092  0.4454 -0.8896
14545SOL     OW50495   1.713   9.343   6.498  0.6652 -0.0097 -0.6224
14545SOL    HW150496   1.728   9.412   6.434  0.1104  0.6748 -0.0316
14545SOL    HW250497   1.732   9.383   6.583  2.1682 -1.1275 -0.3814
14546SOL     OW50498  10.638  11.796   8.094 -0.3722 -0.3740 -0.2263
14546SOL    HW150499  10.723  11.821   8.057 -0.0532 -2.0393 -0.6868
14546SOL    HW250500  10.593  11.880   8.110  0.8589  0.4875 -1.1144
14547SOL     OW50501  12.041   1.827  10.273  0.2560 -0.2797  0.1994
14547SOL    HW150502  11.980   1.851  10.342 -1.4695  0.4232 -1.4946
14547SOL    HW250503  12.005   1.747  10.235  0.2918  0.1979 -0.8901
14548SOL     OW50504   0.740   8.788   2.233  0.1213 -0.2688  0.1082
14548SOL    HW150505   0.662   8.796   2.287  0.4592 -0.7525  0.6830
14548SOL    HW250506   0.746   8.872   2.186 -0.6274 -0.1618  0.2028
14549SOL     OW50507   7.569   2.590   5.748 -0.5935 -0.3627  0.5991
14549SOL    HW150508   7.560   2.515   5.689  0.3595  0.5991 -0.8505
14549SOL    HW250509   7.663   2.606   5.752 -0.7988  1.1986  0.2334
14550SOL     OW50510   2.814  10.784  11.192 -0.0178 -0.2882 -0.1078
14550SOL    HW150511   2.731  10.824  11.219  0.1139  0.2787 -0.5263
14550SOL    HW250512   2.801  10.691  11.208 -0.4225 -0.1160  0.6449
14551SOL     OW50513   4.486   6.085   7.142 -0.0827  0.6590  0.2697
14551SOL    HW150514   4.431   6.007   7.152  2.3737 -1.3608 -0.7278
14551SOL    HW250515   4.501   6.091   7.048 -0.1940  2.3724  0.3401
14552SOL     OW50516  10.562   1.408  10.350 -0.2837 -0.2276 -0.0487
14552SOL    HW150517  10.604   1.493  10.351  0.1798 -0.4392 -0.7157
14552SOL    HW250518  10.633   1.346  10.330 -0.4981 -0.8359  1.0252
14553SOL     OW50519   9.618   6.551  10.304  0.1166 -0.0088  0.6709
14553SOL    HW150520   9.681   6.480  10.293  1.6999  1.4181 -0.0109
14553SOL    HW250521   9.669   6.621  10.344 -0.8176  1.4565 -0.5869
14554SOL     OW50522   6.149   5.713   7.797  0.3385  0.3178  0.2262
14554SOL    HW150523   6.116   5.697   7.709  0.6802  1.3922 -0.1172
14554SOL    HW250524   6.095   5.784   7.831 -1.2195 -1.4962  1.7419
14555SOL     OW50525  11.300  12.404   7.607 -0.2730 -0.0472  0.1965
14555SOL    HW150526  11.270  12.474   7.664 -3.0609  1.8827 -3.2494
14555SOL    HW250527  11.380  12.438   7.566 -0.2998  0.1177  0.2828
14556SOL     OW50528   7.239   6.358  11.983  0.3701  0.5030  0.2931
14556SOL    HW150529   7.221   6.387  11.893  1.4706 -1.6238 -0.6988
14556SOL    HW250530   7.203   6.269  11.986  2.0896 -0.1979  1.3099
14557SOL     OW50531  10.001   9.508   8.733  0.0598  0.3013 -0.0837
14557SOL    HW150532  10.044   9.548   8.809 -1.9282  0.2588  1.1235
14557SOL    HW250533   9.968   9.583   8.683 -1.3598  0.2958  0.7894
14558SOL     OW50534   9.295   6.140   5.982 -0.2179  0.0691  0.0801
14558SOL    HW150535   9.263   6.054   5.957 -0.7480  0.5163 -0.8314
14558SOL    HW250536   9.215   6.193   5.993  0.0822  0.3639  0.9701
14559SOL     OW50537   3.674   6.137   9.080 -0.1455  0.2756  0.1071
14559SOL    HW150538   3.598   6.152   9.137  0.0750  0.6073  0.3213
14559SOL    HW250539   3.718   6.063   9.120  0.6057  1.1774  1.0227
14560SOL     OW50540   8.568  10.505   1.079 -0.2983 -0.5815  0.4796
14560SOL    HW150541   8.656  10.536   1.097 -0.4169 -0.5134  0.9525
14560SOL    HW250542   8.575  10.460   0.995 -0.2912  1.4784 -0.6905
14561SOL     OW50543  12.454   8.402   5.559  0.4345  0.0180 -0.7511
14561SOL    HW150544  12.453   8.310   5.533  0.9788  0.1906 -1.4301
14561SOL    HW250545  12.425   8.449   5.481 -2.3366  0.2845  0.3501
14562SOL     OW50546   3.319   0.620   8.264 -0.3023  0.0694 -0.0019
14562SOL    HW150547   3.325   0.679   8.189  1.2761  0.7683  0.6061
14562SOL    HW250548   3.363   0.540   8.235 -1.7139 -0.5343 -0.5518
14563SOL     OW50549   1.141   1.573  12.007  0.1040  0.0494  0.0215
14563SOL    HW150550   1.079   1.569  12.080 -1.1285  0.0245 -0.9762
14563SOL    HW250551   1.216   1.621  12.041  0.4097 -1.6483  1.8815
14564SOL     OW50552  10.945   2.991   3.933  0.1926 -0.3407 -0.4065
14564SOL    HW150553  11.018   3.041   3.970  1.4455 -0.9299 -1.9626
14564SOL    HW250554  10.897   3.054   3.880  0.0343 -0.1355 -0.0235
14565SOL     OW50555   0.437   7.314  11.125  0.0606  0.1923  0.7448
14565SOL    HW150556   0.497   7.388  11.122  1.1517 -0.6917  0.2972
14565SOL    HW250557   0.491   7.240  11.152 -1.2777 -0.1971  2.5984
14566SOL     OW50558   7.861   1.215   6.255  0.1916 -0.0298  1.1560
14566SOL    HW150559   7.929   1.149   6.248  0.5342  0.3756  0.6475
14566SOL    HW250560   7.835   1.234   6.165  0.8124  1.2511  1.2175
14567SOL     OW50561   9.004   8.721   0.098 -0.3844  0.0264 -0.1260
14567SOL    HW150562   8.965   8.686   0.179  0.3898 -0.4391  0.0616
14567SOL    HW250563   9.031   8.810   0.121  0.6955 -0.4281  0.4361
14568SOL     OW50564   6.139   9.477  11.917 -0.1270  0.0730 -0.0892
14568SOL    HW150565   6.068   9.421  11.948  1.1487 -1.1300  0.8102
14568SOL    HW250566   6.110   9.566  11.936 -1.0273 -0.4372  1.0659
14569SOL     OW50567   5.504   6.087   8.261  0.3773 -0.3895 -0.4669
14569SOL    HW150568   5.469   6.101   8.349 -0.0349  1.1387 -0.8373
14569SOL    HW250569   5.599   6.083   8.274  0.2987 -0.5692  0.0932
14570SOL     OW50570  10.126   8.156   0.160 -0.2137 -0.7156 -0.3952
14570SOL    HW150571  10.173   8.211   0.097 -1.1084  0.8690  0.2665
14570SOL    HW250572  10.055   8.117   0.110 -0.4663 -0.0705 -0.5441
14571SOL     OW50573  10.936  11.301   1.740  0.5405 -0.2367  0.3769
14571SOL    HW150574  10.925  11.206   1.741 -0.2218 -0.1563  1.8073
14571SOL    HW250575  10.932  11.324   1.647  1.7796 -1.6856 -0.0744
14572SOL     OW50576   9.738   3.619   7.041  0.4612  0.1617  0.0636
14572SOL    HW150577   9.657   3.586   7.002  1.3303 -1.1589 -0.6733
14572SOL    HW250578   9.730   3.598   7.134  0.4870 -1.1086 -0.2034
14573SOL     OW50579   9.977   9.188  11.320 -0.3695  0.5673 -0.0442
14573SOL    HW150580   9.991   9.099  11.288 -0.1805  0.9843 -1.1507
14573SOL    HW250581   9.986   9.181  11.415  0.1562 -0.4992 -0.1615
14574SOL     OW50582  10.833   0.281   4.360  0.8903 -0.1568 -0.1210
14574SOL    HW150583  10.843   0.369   4.398  0.3272 -0.4120  0.6546
14574SOL    HW250584  10.900   0.276   4.292 -0.4608  1.6933 -1.7103
14575SOL     OW50585   9.003   1.668   2.483  0.0043  0.1100  0.1334
14575SOL    HW150586   8.908   1.663   2.483 -0.2040  2.6728  1.0689
14575SOL    HW250587   9.028   1.655   2.392 -1.1399 -1.5020  0.0217
14576SOL     OW50588   0.523   3.815   8.330 -0.1391  0.1623 -0.0883
14576SOL    HW150589   0.547   3.726   8.356  0.5914  0.3003 -0.2530
14576SOL    HW250590   0.589   3.871   8.372  0.5414  0.4614 -1.4869
14577SOL     OW50591   6.119   9.407   4.523 -0.4099  0.0727  0.1301
14577SOL    HW150592   6.160   9.487   4.556 -0.6649  0.0876  0.4164
14577SOL    HW250593   6.092   9.360   4.602 -0.5593 -0.1400 -0.0462
14578SOL     OW50594   3.524   2.058   5.434 -0.0940  0.3766 -0.8242
14578SOL    HW150595   3.604   2.044   5.485 -0.0608  0.1846 -0.9310
14578SOL    HW250596   3.490   2.142   5.467 -0.1389  0.1928 -0.3961
14579SOL     OW50597   8.593  11.418   9.605  0.3726  0.2676 -0.1584
14579SOL    HW150598   8.581  11.396   9.513  2.5575 -0.9609 -0.1984
14579SOL    HW250599   8.508  11.402   9.645 -0.4333  0.2069 -1.8274
14580SOL     OW50600  10.457   3.116   2.753  0.6663  0.5079 -0.1018
14580SOL    HW150601  10.382   3.148   2.801 -0.6334 -0.7577 -1.1659
14580SOL    HW250602  10.531   3.130   2.811 -0.3931  1.6937  1.0269
14581SOL     OW50603  11.588   8.742   1.316  0.1973 -0.9017  0.1221
14581SOL    HW150604  11.669   8.756   1.268 -0.9926  2.8149 -1.1060
14581SOL    HW250605  11.529   8.702   1.251 -0.5077  1.3920 -0.7272
14582SOL     OW50606   2.492   7.321   8.134  0.4333 -0.1158  0.0613
14582SOL    HW150607   2.569   7.271   8.159  1.6691  1.2550 -0.8570
14582SOL    HW250608   2.448   7.342   8.217  0.4405 -1.7913  0.5167
14583SOL     OW50609   8.410   6.697  10.539 -0.1514  0.1698 -0.8245
14583SOL    HW150610   8.499   6.703  10.505  0.5920 -0.5639  0.8610
14583SOL    HW250611   8.400   6.773  10.596  0.3694 -1.0338  0.9847
14584SOL     OW50612   4.272  10.310   3.226  0.0823  0.1098  0.0146
14584SOL    HW150613   4.246  10.278   3.140 -1.3077  0.4717  0.2875
14584SOL    HW250614   4.318  10.392   3.209  3.2684 -1.6419 -0.6606
14585SOL     OW50615   9.153  10.627   7.156 -0.5836 -0.6925 -0.2941
14585SOL    HW150616   9.169  10.709   7.203 -1.2404 -0.9874  0.4549
14585SOL    HW250617   9.152  10.653   7.064  0.0466  0.0014 -0.1218
14586SOL     OW50618   9.477   4.654   0.815 -0.2276  0.4377  0.3689
14586SOL    HW150619   9.451   4.688   0.729  1.1079 -0.3450 -0.3934
14586SOL    HW250620   9.565   4.689   0.829  0.2182 -0.7206  0.6467
14587SOL     OW50621  10.933   7.396  10.647 -0.0714  0.2622  0.8036
14587SOL    HW150622  10.889   7.339  10.710  0.1636 -0.2531  0.5068
14587SOL    HW250623  10.962   7.337  10.578  1.4089  0.5337  1.1685
14588SOL     OW50624   2.931   4.475  12.358  0.0858  0.0022  0.5225
14588SOL    HW150625   3.023   4.499  12.349  0.1409  0.0108  1.0731
14588SOL    HW250626   2.886   4.556  12.383  0.1389 -0.2715  1.5382
14589SOL     OW50627  11.676  11.126  11.321  0.2589  0.4188 -0.2694
14589SOL    HW150628  11.696  11.213  11.358 -0.9557 -0.0815  1.7666
14589SOL    HW250629  11.581  11.128  11.307  0.1561 -0.7056  0.1932
14590SOL     OW50630   3.686   9.343   3.479 -0.3222  0.1366  0.4778
14590SOL    HW150631   3.698   9.420   3.423 -1.4408 -0.3565 -0.5047
14590SOL    HW250632   3.717   9.370   3.565 -0.1385  1.4931  0.0137
14591SOL     OW50633  11.928   1.043   7.583  0.0672 -0.2363  0.3831
14591SOL    HW150634  11.916   1.119   7.640 -0.6006  0.0842 -0.1757
14591SOL    HW250635  11.854   0.985   7.604 -0.8220  0.3811 -0.9183
14592SOL     OW50636   1.865   0.421   9.480  0.9430 -0.0930 -0.0923
14592SOL    HW150637   1.803   0.363   9.524  2.2105  0.1043  2.0521
14592SOL    HW250638   1.912   0.363   9.420 -0.0530 -0.5965 -0.4073
14593SOL     OW50639   0.530   3.026  11.232 -0.3534 -0.5903  0.7653
14593SOL    HW150640   0.612   2.991  11.199 -0.9641 -2.3301  0.9960
14593SOL    HW250641   0.528   2.999  11.324 -0.5594  0.6487  1.1473
14594SOL     OW50642  10.448   8.085   5.341 -0.1734 -0.0064  0.3577
14594SOL    HW150643  10.440   8.031   5.420 -2.4350  0.6009  0.6172
14594SOL    HW250644  10.401   8.036   5.274 -0.3448  0.6096  0.0199
14595SOL     OW50645   3.030   0.973   9.214 -0.3292 -0.5129  0.1297
14595SOL    HW150646   3.077   0.982   9.131 -2.1876  1.3727 -0.7742
14595SOL    HW250647   3.096   0.994   9.280  0.9663 -1.2196 -0.8735
14596SOL     OW50648   8.945   3.308   7.468 -0.1602 -0.1551  0.0355
14596SOL    HW150649   8.921   3.343   7.382 -1.3149 -0.9351  0.0153
14596SOL    HW250650   8.861   3.289   7.510  0.3518  0.9174  1.6591
14597SOL     OW50651   4.018   0.924   7.717 -0.4023  0.1866 -0.6456
14597SOL    HW150652   3.968   0.943   7.637 -1.2435  1.2124  0.1038
14597SOL    HW250653   4.029   1.009   7.759 -1.0858 -0.4872  0.9673
14598SOL     OW50654   6.828   7.336   8.263 -0.0513  0.1402 -0.1354
14598SOL    HW150655   6.863   7.386   8.189 -0.0801  1.5918  0.7817
14598SOL    HW250656   6.753   7.387   8.293  0.3132 -0.0907  1.2473
14599SOL     OW50657   0.169   1.948   1.982 -0.2100 -0.0334  0.1459
14599SOL    HW150658   0.221   1.909   1.912  0.7611 -1.9161  1.7965
14599SOL    HW250659   0.126   1.874   2.024 -0.6461  0.9961  1.6168
14600SOL     OW50660   9.716   9.404   9.931 -0.0168 -0.5697 -0.0365
14600SOL    HW150661   9.747   9.374  10.016 -1.0447  0.5481  0.7657
14600SOL    HW250662   9.648   9.341   9.907  0.0778 -0.7234  0.0967
14601SOL     OW50663   2.031   7.954   2.367  0.6933  0.8007 -0.1150
14601SOL    HW150664   1.939   7.945   2.391  0.0108  1.2468 -2.3029
14601SOL    HW250665   2.053   7.871   2.324  0.5478  1.5379 -1.7175
14602SOL     OW50666  10.677   9.776   7.639  0.4426 -0.3417  0.3263
14602SOL    HW150667  10.769   9.798   7.624 -0.1119  1.4089 -0.7294
14602SOL    HW250668  10.642   9.848   7.691 -0.5991 -0.4105 -0.2377
14603SOL     OW50669  12.239  10.697   2.784  0.0072 -0.2748  0.8336
14603SOL    HW150670  12.180  10.715   2.712  0.2641 -1.5385  0.2747
14603SOL    HW250671  12.317  10.750   2.767 -0.1484 -0.1657  0.4784
14604SOL     OW50672   2.540   1.362   1.502  0.2177 -0.0067  0.2230
14604SOL    HW150673   2.576   1.432   1.448  1.0003  0.8367  1.7659
14604SOL    HW250674   2.495   1.407   1.573 -1.6753 -1.0804 -0.2293
14605SOL     OW50675   4.730  10.189   0.212  0.3695 -0.0367  0.3810
14605SOL    HW150676   4.815  10.201   0.169  0.2402  1.4086  0.4700
14605SOL    HW250677   4.748  10.129   0.285  0.6918 -2.1111 -1.2952
14606SOL     OW50678   2.140   8.479   6.667  0.0581 -0.4594  0.1465
14606SOL    HW150679   2.067   8.418   6.657 -0.7833  0.4829  0.4305
14606SOL    HW250680   2.170   8.496   6.577 -0.1625 -0.7241  0.0217
14607SOL     OW50681   5.267   0.442   8.688  0.1165 -0.5314 -0.1470
14607SOL    HW150682   5.219   0.477   8.612  0.5131  0.6576  0.1328
14607SOL    HW250683   5.201   0.392   8.736 -0.1902 -1.1381 -1.1529
14608SOL     OW50684   6.233   9.460   1.085  0.3198  0.1557 -0.0826
14608SOL    HW150685   6.287   9.533   1.113  1.5569 -0.6091 -0.4189
14608SOL    HW250686   6.226   9.469   0.990 -0.7800  0.6616  0.0293
14609SOL     OW50687   9.042   8.849   9.622 -0.1458 -0.1153 -0.3191
14609SOL    HW150688   9.131   8.879   9.643 -0.1643 -1.1614  1.4239
14609SOL    HW250689   8.987   8.925   9.636  0.3405  0.2383 -0.3074
14610SOL     OW50690   6.177   5.326   8.952  0.0651 -0.1147  0.5573
14610SOL    HW150691   6.245   5.366   8.898  0.8575 -0.6755  1.1105
14610SOL    HW250692   6.178   5.377   9.033 -0.6160  0.2703  0.3284
14611SOL     OW50693   7.386  11.348   7.866 -0.1586 -0.0895  0.1701
14611SOL    HW150694   7.459  11.293   7.892 -0.4942 -1.0573 -0.8524
14611SOL    HW250695   7.333  11.357   7.945 -0.9441 -2.6252  0.0050
14612SOL     OW50696   4.944   2.791   1.218  0.3591 -0.4515 -0.1665
14612SOL    HW150697   4.894   2.865   1.253 -0.5353 -0.5115 -1.2331
14612SOL    HW250698   5.021   2.785   1.274 -0.1912  0.4737  0.7325
14613SOL     OW50699   1.965   3.478   0.685 -0.1751  0.2640 -0.0893
14613SOL    HW150700   2.005   3.482   0.598  1.9173  1.5920  0.8455
14613SOL    HW250701   1.888   3.535   0.678  0.5750  1.2336 -0.8189
14614SOL     OW50702  11.913   0.360   5.088  0.3656 -0.2365  0.9121
14614SOL    HW150703  11.906   0.268   5.061  1.2472  0.4483 -2.0376
14614SOL    HW250704  11.890   0.360   5.180  0.2087 -3.4028  0.9732
14615SOL     OW50705   7.628  11.973   2.114 -0.1041  0.1786  0.1936
14615SOL    HW150706   7.611  12.036   2.044  2.0312  0.2853 -0.3274
14615SOL    HW250707   7.546  11.925   2.125 -0.6955  0.6017 -1.9242
14616SOL     OW50708   0.723   6.114   6.664  1.2813 -0.0250  0.4582
14616SOL    HW150709   0.752   6.033   6.705  0.0581  0.3848  2.3017
14616SOL    HW250710   0.641   6.135   6.710  1.5257  2.1918 -0.0214
14617SOL     OW50711   8.875  10.155   3.441  0.2022 -0.3209  0.3131
14617SOL    HW150712   8.926  10.200   3.509  0.3420 -1.1263  0.7606
14617SOL    HW250713   8.804  10.112   3.490 -0.6982  0.4675 -0.2550
14618SOL     OW50714   9.809   2.611   7.291  0.1175 -0.0147  0.2112
14618SOL    HW150715   9.786   2.703   7.299 -0.2002 -0.1615  1.0608
14618SOL    HW250716   9.850   2.588   7.374 -0.7433 -0.8959  0.4159
14619SOL     OW50717   2.057  11.470  12.454 -0.0119  0.6189  0.0640
14619SOL    HW150718   2.145  11.450  12.485 -1.1310  0.2134  3.4406
14619SOL    HW250719   2.040  11.404  12.387  1.7987 -0.1004  0.2525
14620SOL     OW50720   5.428   4.090   4.723 -0.1588  0.5395  0.1099
14620SOL    HW150721   5.441   4.158   4.789  0.9664 -0.1867  0.6736
14620SOL    HW250722   5.498   4.026   4.740 -1.9362 -1.4398  0.4452
14621SOL     OW50723   0.841   1.298   0.757 -0.2742  0.3366 -0.0714
14621SOL    HW150724   0.766   1.245   0.729 -0.3596  0.5400 -0.2336
14621SOL    HW250725   0.819   1.326   0.846 -1.2966  1.9898 -0.7802
14622SOL     OW50726   6.002   2.896   8.090  0.1077 -0.1355  0.0687
14622SOL    HW150727   6.070   2.835   8.063 -0.5823 -0.9791  0.1665
14622SOL    HW250728   5.998   2.961   8.019  1.4595  0.3247  0.3877
14623SOL     OW50729   1.198   4.391   0.501 -0.3908 -0.5390 -0.1670
14623SOL    HW150730   1.265   4.455   0.522  0.9548 -1.9136 -0.1005
14623SOL    HW250731   1.141   4.390   0.578  0.1674 -0.1780  0.2614
14624SOL     OW50732   2.973   4.384   3.302 -0.6084  0.0684  0.3207
14624SOL    HW150733   3.026   4.461   3.278  1.2110 -0.8452  1.2078
14624SOL    HW250734   2.919   4.413   3.375 -0.0060  0.5479  0.5834
14625SOL     OW50735   8.407   5.736  11.503 -0.3201 -0.0932 -0.7634
14625SOL    HW150736   8.342   5.705  11.565  0.7459 -0.4326  0.2268
14625SOL    HW250737   8.489   5.738  11.553  0.0133  2.5997 -1.2659
14626SOL     OW50738   3.833   7.455  12.083  0.1984 -0.2268 -0.4882
14626SOL    HW150739   3.900   7.394  12.053  0.8867  0.4121 -0.2679
14626SOL    HW250740   3.751   7.421  12.046  0.9150  0.1448 -2.5132
14627SOL     OW50741   5.778   2.704   5.451 -0.2286 -0.3821 -0.3986
14627SOL    HW150742   5.841   2.643   5.411  1.2437  0.9893 -0.2848
14627SOL    HW250743   5.781   2.684   5.544  0.9028  0.3871 -0.2495
14628SOL     OW50744   9.867  11.456   9.299  0.2481 -0.0428  0.0174
14628SOL    HW150745   9.801  11.392   9.327  0.0824 -0.2366 -0.7974
14628SOL    HW250746   9.880  11.512   9.376 -1.0289  0.1348  0.1273
14629SOL     OW50747   4.547   2.807   9.181 -0.5530 -0.3555  0.1354
14629SOL    HW150748   4.553   2.750   9.258  0.4214 -0.7668 -0.2257
14629SOL    HW250749   4.455   2.806   9.157 -0.7610 -0.7292  0.9191
14630SOL     OW50750   0.623   3.670  10.752  0.5804 -1.5168 -0.2147
14630SOL    HW150751   0.705   3.622  10.742  1.0845 -0.3348 -2.7285
14630SOL    HW250752   0.567   3.635  10.683 -0.4145 -1.1065  0.3672
14631SOL     OW50753   6.138   9.417   7.402 -0.1501  0.2928 -0.3232
14631SOL    HW150754   6.046   9.426   7.426  0.2170  0.1756  1.2092
14631SOL    HW250755   6.165   9.335   7.443  1.3613  1.7285  1.7728
14632SOL     OW50756   0.567   1.792   2.026 -0.2399 -0.5509 -0.6452
14632SOL    HW150757   0.496   1.837   1.981  0.5376  0.3431 -1.0268
14632SOL    HW250758   0.569   1.831   2.113 -0.1777 -0.5108 -0.6638
14633SOL     OW50759   7.644   1.716  11.292  0.1274 -0.3383 -0.4210
14633SOL    HW150760   7.561   1.690  11.332 -1.0160  2.7438 -0.5297
14633SOL    HW250761   7.681   1.780  11.352 -0.2623  2.3184 -2.7799
14634SOL     OW50762   2.085   3.156  10.799 -0.0053  0.0570  0.2991
14634SOL    HW150763   2.093   3.103  10.720  2.6942 -1.3191  1.3850
14634SOL    HW250764   2.157   3.128  10.855 -0.2670  2.7904  2.2155
14635SOL     OW50765  10.732   2.995   8.621 -0.3396 -0.3852 -0.3635
14635SOL    HW150766  10.794   2.923   8.607  0.9855  0.6344  0.0738
14635SOL    HW250767  10.667   2.985   8.551  0.4272 -1.3530 -0.9623
14636SOL     OW50768  10.323   0.493   7.491  0.6438 -0.3731  0.0503
14636SOL    HW150769  10.409   0.532   7.505  0.6862 -0.1076 -0.8937
14636SOL    HW250770  10.300   0.517   7.401 -1.1863  1.0932  0.8307
14637SOL     OW50771   0.868   2.707   2.045 -0.3814  0.8302 -0.6485
14637SOL    HW150772   0.780   2.675   2.061  0.3413 -1.7142 -1.2626
14637SOL    HW250773   0.881   2.694   1.951  0.4095  1.8508 -0.6964
14638SOL     OW50774   7.501   2.180  12.234  0.4956 -0.4456  0.2885
14638SOL    HW150775   7.572   2.232  12.271  0.0223  1.1306 -0.9012
14638SOL    HW250776   7.543   2.126  12.166  0.4853  1.1769 -1.0760
14639SOL     OW50777  12.447   1.602   4.022  0.1260 -0.3477  0.1544
14639SOL    HW150778  12.541   1.612   4.011 -0.0064 -0.3266 -1.0343
14639SOL    HW250779  12.414   1.692   4.031  0.2870 -0.3854  1.3630
14640SOL     OW50780  11.729   2.879   3.471 -0.2376  0.2987  0.4351
14640SOL    HW150781  11.656   2.934   3.442  0.6554  1.3323  0.1073
14640SOL    HW250782  11.739   2.814   3.401 -0.8159  0.1567  0.4749
14641SOL     OW50783   6.500   2.351   9.963  0.5806 -0.4062 -0.5018
14641SOL    HW150784   6.502   2.257   9.985 -0.6965 -0.4456 -0.4611
14641SOL    HW250785   6.469   2.353   9.872 -2.5467  0.0323  0.4436
14642SOL     OW50786   5.544   6.679  11.413  0.3748  0.2339 -0.2533
14642SOL    HW150787   5.523   6.591  11.443 -0.3858 -0.3796 -2.4085
14642SOL    HW250788   5.603   6.665  11.339  0.2825  1.5318 -0.5909
14643SOL     OW50789   4.549  12.176   5.603 -0.2530 -0.2847  0.1267
14643SOL    HW150790   4.570  12.084   5.586 -0.4037 -0.6769  1.9121
14643SOL    HW250791   4.569  12.221   5.521  0.1998 -1.8429 -0.6458
14644SOL     OW50792   7.314   7.834   6.779  0.5878  0.1022 -0.0725
14644SOL    HW150793   7.398   7.833   6.826  1.2924  3.0984 -1.0572
14644SOL    HW250794   7.252   7.869   6.843  0.0502 -1.8055  0.5458
14645SOL     OW50795   2.500   9.727   4.708 -0.5819 -0.4129 -0.1314
14645SOL    HW150796   2.418   9.702   4.750 -0.4186 -0.2138  0.3100
14645SOL    HW250797   2.475   9.749   4.618 -1.2421  0.9746  0.3655
14646SOL     OW50798   0.208   3.424   5.457  0.6041 -0.7928  0.1312
14646SOL    HW150799   0.233   3.436   5.549 -0.6374  2.4856  0.1703
14646SOL    HW250800   0.242   3.502   5.413 -0.9439 -1.0797 -1.6943
14647SOL     OW50801  10.791   5.830   6.419 -0.1041  0.3988 -0.0547
14647SOL    HW150802  10.886   5.836   6.427 -0.0587  0.4170 -0.5327
14647SOL    HW250803  10.770   5.742   6.450  0.0791  0.3664 -0.0243
14648SOL     OW50804  11.563   5.288   5.704 -0.1027  0.5443  0.1036
14648SOL    HW150805  11.534   5.316   5.617 -0.9395  0.0353  0.2125
14648SOL    HW250806  11.566   5.369   5.755 -1.1653  0.6378  0.0345
14649SOL     OW50807  11.083   8.134   7.894 -0.1558 -0.1326  1.1641
14649SOL    HW150808  11.147   8.191   7.850  0.6961 -0.9180  1.3465
14649SOL    HW250809  11.137   8.069   7.940 -1.1006 -0.9712  1.1129
14650SOL     OW50810   3.901   3.090   1.914 -0.6122 -0.1528 -0.2922
14650SOL    HW150811   3.983   3.069   1.869  0.8868  0.0127  2.1680
14650SOL    HW250812   3.864   3.162   1.863  2.1240  1.5548 -0.1121
14651SOL     OW50813   2.368   7.491   5.425 -0.0240 -0.1702 -0.1490
14651SOL    HW150814   2.449   7.525   5.386 -0.4856 -0.1415 -1.1064
14651SOL    HW250815   2.375   7.396   5.415 -0.2402 -0.1513 -0.5305
14652SOL     OW50816   3.386   9.396   9.381 -1.0904  0.4553  0.4885
14652SOL    HW150817   3.305   9.431   9.344 -1.3796  0.0128  0.6937
14652SOL    HW250818   3.419   9.336   9.315 -2.2450 -1.2716  1.4048
14653SOL     OW50819   5.395   9.742  11.084  0.1187  0.3621 -0.2564
14653SOL    HW150820   5.316   9.726  11.135  1.3527 -1.5651  1.1971
14653SOL    HW250821   5.423   9.656  11.055  2.4894  0.7518  0.6025
14654SOL     OW50822   9.529   0.856   7.340 -0.3820 -0.4368  0.1068
14654SOL    HW150823   9.511   0.941   7.381  0.4313  0.4815 -1.3492
14654SOL    HW250824   9.621   0.839   7.358 -0.6803 -1.3093  0.8761
14655SOL     OW50825  10.212  11.327   3.501  0.5810 -0.3798 -0.3086
14655SOL    HW150826  10.171  11.318   3.587 -0.0288 -1.8954 -0.7195
14655SOL    HW250827  10.294  11.373   3.519  1.4039 -2.3378  1.4304
14656SOL     OW50828  11.104   3.950   2.919  0.0845 -0.5439 -0.2146
14656SOL    HW150829  11.178   3.970   2.976 -0.0216 -2.6265  0.7158
14656SOL    HW250830  11.091   4.031   2.869  1.9118  0.4267  0.7599
14657SOL     OW50831   8.803   6.430   4.720  0.2568  0.7636  0.1665
14657SOL    HW150832   8.758   6.502   4.765 -0.7448 -0.4032  1.1158
14657SOL    HW250833   8.845   6.380   4.790 -1.3168 -1.0785 -0.1188
14658SOL     OW50834  11.883   5.992  10.894  0.3691 -0.5899 -0.2183
14658SOL    HW150835  11.833   6.024  10.819  1.3247 -0.6720 -0.9198
14658SOL    HW250836  11.831   6.017  10.971  0.0090  0.6761 -0.8474
14659SOL     OW50837  12.129   5.842   8.659  0.2999  0.1881 -0.0797
14659SOL    HW150838  12.157   5.836   8.751 -0.1621 -0.6809  0.0170
14659SOL    HW250839  12.208   5.866   8.612  0.1565  2.6011  0.7532
14660SOL     OW50840   7.352   4.590  10.041 -0.4888 -0.1807  0.0009
14660SOL    HW150841   7.320   4.510  10.000  3.2667 -3.2917  2.5300
14660SOL    HW250842   7.408   4.631   9.975 -0.3922 -1.0440 -0.4584
14661SOL     OW50843   6.233  10.421   6.826 -0.0390 -0.4383  0.2583
14661SOL    HW150844   6.155  10.437   6.773 -0.0733 -0.6532  0.2438
14661SOL    HW250845   6.267  10.337   6.795  0.2634 -0.2920  0.1859
14662SOL     OW50846   1.202   0.778  11.761 -0.2057  0.3356  0.0621
14662SOL    HW150847   1.178   0.695  11.803 -1.9952  0.9748  0.3738
14662SOL    HW250848   1.119   0.824  11.749  0.5111  1.1954 -2.0630
14663SOL     OW50849  10.861   8.175   8.227 -0.1726 -0.3638  0.2001
14663SOL    HW150850  10.810   8.247   8.263 -0.5776 -0.4622 -0.1680
14663SOL    HW250851  10.842   8.177   8.133 -0.4948 -1.1927  0.2431
14664SOL     OW50852  10.457   4.481   6.061  0.1022  0.1561  0.7095
14664SOL    HW150853  10.478   4.394   6.093  0.7151 -0.6716 -1.7287
14664SOL    HW250854  10.448   4.471   5.966 -0.0693  2.6989  0.3705
14665SOL     OW50855   4.375   3.949   2.290  0.0963 -0.2316 -0.4200
14665SOL    HW150856   4.371   3.859   2.324  1.2740 -0.8564 -1.8265
14665SOL    HW250857   4.392   4.003   2.367 -1.5457 -1.0686  0.6053
14666SOL     OW50858  11.675   3.801  11.578  0.0599  0.7251 -0.0509
14666SOL    HW150859  11.625   3.843  11.648  0.5621  0.0722  0.7229
14666SOL    HW250860  11.610   3.764  11.520 -0.4018 -0.6664  1.2753
14667SOL     OW50861  11.408   8.476   5.706  0.0793 -0.1674 -0.1644
14667SOL    HW150862  11.450   8.545   5.758  0.9697 -1.1352  0.4398
14667SOL    HW250863  11.436   8.494   5.616 -1.1927  1.3160 -0.3111
14668SOL     OW50864  10.400   2.608  12.235  0.5758 -0.0919  0.6296
14668SOL    HW150865  10.483   2.568  12.207  0.5266 -0.7015  1.3212
14668SOL    HW250866  10.415   2.702  12.227  1.0837 -0.2197  0.0435
14669SOL     OW50867   2.462  12.093   9.409 -0.3091 -0.1158 -0.4523
14669SOL    HW150868   2.428  12.006   9.427  1.0241 -0.5667 -0.0318
14669SOL    HW250869   2.550  12.093   9.445  0.4447  0.7550 -2.1820
14670SOL     OW50870   8.505   7.999   0.579  0.0619 -0.6038  0.1463
14670SOL    HW150871   8.442   8.054   0.625  0.6037 -0.4147  0.6803
14670SOL    HW250872   8.460   7.973   0.498 -1.1574 -1.5160  1.0846
14671SOL     OW50873   4.687   8.400   1.627  0.1169  0.1774 -0.7533
14671SOL    HW150874   4.599   8.436   1.613  0.4866  1.2380 -0.4773
14671SOL    HW250875   4.737   8.431   1.551  0.6831  1.0983 -0.0310
14672SOL     OW50876   1.601   7.631   8.429  0.0700  0.0581 -0.0539
14672SOL    HW150877   1.582   7.541   8.402 -1.6934  0.3849 -0.0214
14672SOL    HW250878   1.629   7.674   8.348 -3.6043  0.6043 -1.2697
14673SOL     OW50879  10.370  11.986   3.802 -0.5504 -0.4229 -0.2733
14673SOL    HW150880  10.287  11.940   3.794 -0.4844 -0.6779  0.4184
14673SOL    HW250881  10.347  12.068   3.846 -0.3204 -0.8519  0.6544
14674SOL     OW50882   1.063   3.006  11.145  0.3457 -0.3043  0.0368
14674SOL    HW150883   1.130   2.956  11.191 -0.0829  0.8320  2.0061
14674SOL    HW250884   1.102   3.027  11.061  1.2851 -2.1995 -0.0561
14675SOL     OW50885   4.229   2.006   3.169 -0.2433  0.6688  0.3328
14675SOL    HW150886   4.164   1.972   3.108 -0.3055 -0.3969  0.9569
14675SOL    HW250887   4.178   2.053   3.235 -0.4293 -0.2699  0.8893
14676SOL     OW50888   5.663   8.961  12.453  0.1377 -0.8222 -0.0837
14676SOL    HW150889   5.749   8.970  12.493  0.2315  0.7540 -0.5651
14676SOL    HW250890   5.604   8.942  12.525  0.3768  1.4546  0.8007
14677SOL     OW50891   1.618   4.123   4.122 -0.2596  0.2619 -0.6893
14677SOL    HW150892   1.690   4.161   4.172  0.1021  0.9497 -1.6955
14677SOL    HW250893   1.660   4.063   4.060 -0.6560 -0.2038 -0.5162
14678SOL     OW50894   1.205  10.283   3.206  0.0979 -0.2255  0.2221
14678SOL    HW150895   1.246  10.201   3.177  1.1460  0.3108  0.1435
14678SOL    HW250896   1.274  10.348   3.196 -1.2860  1.0596 -1.6302
14679SOL     OW50897   7.930   2.093   1.577 -0.5101 -0.4136  0.1768
14679SOL    HW150898   7.849   2.048   1.601  0.7254 -3.1962 -0.3993
14679SOL    HW250899   7.992   2.068   1.646 -0.0414  1.4882  0.4896
14680SOL     OW50900   7.568   4.295   7.039  0.0246 -0.4272  0.5492
14680SOL    HW150901   7.660   4.319   7.048 -0.3426  0.2124  4.5253
14680SOL    HW250902   7.569   4.205   7.009  1.7750  0.3603 -2.1145
14681SOL     OW50903   8.414   9.052   3.833 -0.4320  0.3284 -0.6822
14681SOL    HW150904   8.390   8.996   3.759  3.7484 -0.0071 -2.0470
14681SOL    HW250905   8.455   8.993   3.895  2.2386  1.4562 -1.2511
14682SOL     OW50906   8.168   6.931  10.741 -0.2966 -0.0959 -0.3431
14682SOL    HW150907   8.086   6.933  10.791  1.6887  0.1896  3.2445
14682SOL    HW250908   8.202   6.842  10.755  1.5749  0.7943  1.1864
14683SOL     OW50909   1.555   1.949  11.310 -0.2496 -0.5426 -0.4049
14683SOL    HW150910   1.605   1.942  11.229 -0.0184  0.8699 -0.3978
14683SOL    HW250911   1.615   1.919  11.378  0.4256  0.6323 -0.4623
14684SOL     OW50912  10.547   3.189  11.051  0.2796 -0.3280  0.3735
14684SOL    HW150913  10.576   3.222  10.966 -0.7806  0.8343  0.4438
14684SOL    HW250914  10.619   3.210  11.110  0.4621  0.0461  0.0203
14685SOL     OW50915   8.628   3.211   1.560 -0.1633  0.1782 -0.0648
14685SOL    HW150916   8.552   3.245   1.512 -0.3671 -0.7203 -0.3912
14685SOL    HW250917   8.623   3.116   1.550  0.5574  0.0562  0.5933
14686SOL     OW50918  10.012   2.439   9.181  0.3392  0.0285 -0.8548
14686SOL    HW150919   9.927   2.479   9.164  0.4869  1.8927  2.0602
14686SOL    HW250920   9.994   2.370   9.244  0.8801 -0.3392 -1.0909
14687SOL     OW50921   9.524   4.313   8.552  0.3850 -0.0337 -0.7234
14687SOL    HW150922   9.527   4.271   8.467 -0.3442  0.2274 -0.8863
14687SOL    HW250923   9.615   4.314   8.582  0.3962 -1.9031 -0.6191
14688SOL     OW50924   1.507   3.663  11.348  0.1397 -0.1143  0.1131
14688SOL    HW150925   1.414   3.659  11.369 -0.3536  0.9466 -1.6583
14688SOL    HW250926   1.518   3.603  11.274  0.5410  0.8369 -0.6293
14689SOL     OW50927   4.546   5.185  11.663  0.3392  0.7383  0.6317
14689SOL    HW150928   4.631   5.170  11.622  0.9343 -0.6035  2.2302
14689SOL    HW250929   4.496   5.107  11.642  0.5528  0.1657  2.1138
14690SOL     OW50930   0.468   1.751   1.247 -0.2712  0.2366  0.8606
14690SOL    HW150931   0.443   1.828   1.299 -1.6610 -0.5069  1.3415
14690SOL    HW250932   0.389   1.697   1.245  0.9333 -1.6237  1.3146
14691SOL     OW50933  10.014   3.913   9.336  0.4608 -0.0793  0.7557
14691SOL    HW150934   9.955   3.988   9.327  0.0997 -0.3005  1.2069
14691SOL    HW250935   9.956   3.838   9.353  0.9261  0.0312  3.3357
14692SOL     OW50936   1.857   8.711   4.905  0.1067  0.1322  0.1273
14692SOL    HW150937   1.841   8.761   4.824 -1.4845 -0.5935 -0.0324
14692SOL    HW250938   1.894   8.776   4.965  2.5236  0.4310 -1.5160
14693SOL     OW50939  10.667   3.489   2.269 -0.2815 -0.3767 -0.0973
14693SOL    HW150940  10.664   3.581   2.293  0.1482 -0.1059 -1.0516
14693SOL    HW250941  10.734   3.483   2.201 -1.0885 -1.1986 -0.8668
14694SOL     OW50942   3.570  10.068   5.313 -0.2944 -0.5051 -0.3700
14694SOL    HW150943   3.510  10.143   5.313  1.3901  0.9777 -2.3554
14694SOL    HW250944   3.642  10.095   5.370 -0.2486 -1.1143 -0.1391
14695SOL     OW50945  11.419  10.975   3.856 -0.4094 -0.1316  0.5032
14695SOL    HW150946  11.373  10.963   3.773  1.0977 -1.6973 -0.1757
14695SOL    HW250947  11.411  11.069   3.875  0.4247  0.5649 -2.1739
14696SOL     OW50948   9.104  10.978   4.507 -0.3895 -0.0660  0.0260
14696SOL    HW150949   9.147  11.063   4.497 -2.0924  0.8379 -0.0874
14696SOL    HW250950   9.172  10.920   4.541  0.5000  1.6610  1.3523
14697SOL     OW50951   3.880   8.109   0.796  0.2472  0.0601 -0.0228
14697SOL    HW150952   3.801   8.057   0.779 -0.2986  0.9808 -0.3611
14697SOL    HW250953   3.950   8.044   0.800 -0.2722 -0.6342 -1.3486
14698SOL     OW50954   7.786   4.474   7.121  0.6716 -0.0282  0.1462
14698SOL    HW150955   7.700   4.504   7.095 -0.6224 -3.3285  0.1429
14698SOL    HW250956   7.805   4.520   7.203 -0.6551  1.4121 -0.3330
14699SOL     OW50957   2.588   5.988   1.874  0.1506  0.4849  0.1267
14699SOL    HW150958   2.535   6.060   1.840  2.2176  2.0302 -0.0675
14699SOL    HW250959   2.556   5.910   1.827 -3.3329  0.8516  1.6070
14700SOL     OW50960   4.022   8.345   2.345 -0.0420 -0.0442 -0.0704
14700SOL    HW150961   3.968   8.340   2.266 -2.9501  2.2029  1.5484
14700SOL    HW250962   3.999   8.266   2.394 -2.9561  1.3418  1.0616
14701SOL     OW50963  10.965  11.180   2.260  0.0180 -0.1694  0.1386
14701SOL    HW150964  10.950  11.274   2.260 -2.3018 -0.4629  0.0998
14701SOL    HW250965  10.989  11.159   2.350 -0.4912  0.3572  0.4033
14702SOL     OW50966   0.380   4.626   1.883 -0.4568 -0.3224 -0.1511
14702SOL    HW150967   0.289   4.602   1.864 -1.4166  1.6739  1.5053
14702SOL    HW250968   0.385   4.626   1.979  1.5319 -1.1346 -0.2181
14703SOL     OW50969  11.403   6.135  10.988 -0.2552 -0.4117  0.2692
14703SOL    HW150970  11.421   6.072  10.919 -1.3697 -0.5289  0.0644
14703SOL    HW250971  11.336   6.093  11.042  0.1798 -0.0810  1.0968
14704SOL     OW50972   9.903   6.560  11.653 -0.0080 -0.2209  0.5642
14704SOL    HW150973   9.859   6.554  11.568 -0.7158  1.3097  0.7828
14704SOL    HW250974   9.864   6.637  11.694  1.6500  0.1658  1.5031
14705SOL     OW50975   7.450   3.659  11.641 -0.6687  0.0300 -0.2962
14705SOL    HW150976   7.443   3.754  11.632  1.3410  0.3324  0.7190
14705SOL    HW250977   7.412   3.640  11.727  0.6041  0.2146  0.3408
14706SOL     OW50978   3.542   0.525   0.680 -0.3544 -0.0742  0.1488
14706SOL    HW150979   3.586   0.540   0.597  0.6039 -0.1335  0.6334
14706SOL    HW250980   3.593   0.575   0.744 -1.5610  0.6626  0.5816
14707SOL     OW50981   8.040   0.544   5.764  0.0333 -0.3259 -0.0919
14707SOL    HW150982   8.077   0.469   5.812 -0.9464  0.0706  1.3189
14707SOL    HW250983   7.945   0.533   5.771 -0.1229  0.4137 -0.8933
14708SOL     OW50984  11.044   6.720   2.191 -0.3375  0.1489 -0.8315
14708SOL    HW150985  11.096   6.648   2.229 -0.6827  0.3458  0.0495
14708SOL    HW250986  10.967   6.725   2.247  0.2109  1.9438 -0.1648
14709SOL     OW50987  10.373   7.610   9.199 -0.1367  0.3567  0.1843
14709SOL    HW150988  10.294   7.632   9.149 -0.3862  0.7669  0.7574
14709SOL    HW250989  10.417   7.693   9.213 -0.7400  0.4430  1.7783
14710SOL     OW50990  11.747   5.368   1.449 -0.3036  0.2084  0.1464
14710SOL    HW150991  11.757   5.392   1.541  2.1457 -0.7358  0.2094
14710SOL    HW250992  11.758   5.451   1.402  0.5243  0.3936  0.6420
14711SOL     OW50993  11.092   5.056  11.519 -0.2156  0.6430 -0.3229
14711SOL    HW150994  11.157   5.105  11.469 -1.3905  3.3980  0.6532
14711SOL    HW250995  11.106   4.965  11.493  3.0305  1.2584 -1.2091
14712SOL     OW50996   1.128   8.788  11.855 -0.6682 -0.2057  0.1248
14712SOL    HW150997   1.140   8.711  11.911 -2.8870 -1.0976 -0.5066
14712SOL    HW250998   1.109   8.752  11.769 -3.1794  0.9291  0.1051
14713SOL     OW50999   9.898   6.640   1.926 -0.3457 -0.5240  0.1632
14713SOL    HW151000   9.937   6.557   1.951 -0.2522 -0.9877 -1.3810
14713SOL    HW251001   9.865   6.677   2.007 -2.6333 -3.1970  0.5836
14714SOL     OW51002   1.985   3.276   3.612  0.4030  0.1102 -0.0417
14714SOL    HW151003   2.038   3.213   3.565  0.1424 -0.5683  0.5560
14714SOL    HW251004   1.951   3.335   3.544  1.6770  0.3920 -0.4512
14715SOL     OW51005   0.951   0.616  11.483 -0.1851  0.1581  0.0300
14715SOL    HW151006   0.903   0.573  11.412 -0.6562  2.4092 -1.1087
14715SOL    HW251007   1.031   0.649  11.441  0.5707 -0.3094  1.0611
14716SOL     OW51008   7.588  12.169   8.919 -0.1410 -0.1659 -0.6894
14716SOL    HW151009   7.509  12.195   8.966 -0.3172 -0.2938 -0.9145
14716SOL    HW251010   7.621  12.092   8.966  0.2368  0.2965 -0.1782
14717SOL     OW51011   9.554   4.070   2.440  0.1904  0.2576  0.1078
14717SOL    HW151012   9.628   4.030   2.485 -1.3960  1.3972  4.1509
14717SOL    HW251013   9.550   4.159   2.475 -3.3671  0.0504  0.5479
14718SOL     OW51014   7.059   2.496  10.439  0.2059  0.5747  0.0972
14718SOL    HW151015   7.059   2.592  10.449  0.2662  0.5571  0.2742
14718SOL    HW251016   7.010   2.481  10.358 -2.6541  0.6077  1.6711
14719SOL     OW51017   8.825   9.510   3.971 -0.4215 -0.1011 -0.0070
14719SOL    HW151018   8.856   9.593   4.008  0.8905 -0.0832 -1.0775
14719SOL    HW251019   8.812   9.528   3.878 -0.8523 -0.9007 -0.1128
14720SOL     OW51020   6.919  11.372   4.626 -0.1636 -0.2179 -0.7410
14720SOL    HW151021   6.845  11.361   4.567  0.5497  1.4760 -2.0500
14720SOL    HW251022   6.881  11.411   4.705 -1.1982 -2.9144  0.2050
14721SOL     OW51023  10.798   4.495   1.888  0.1821 -0.4367  0.4200
14721SOL    HW151024  10.871   4.435   1.906  1.5707  1.0446 -0.0712
14721SOL    HW251025  10.825   4.578   1.927 -0.2006  0.7645 -1.7275
14722SOL     OW51026   0.719  11.898   1.455  0.0097  0.3971 -0.5126
14722SOL    HW151027   0.689  11.950   1.381  1.0932 -2.1961 -2.9255
14722SOL    HW251028   0.679  11.812   1.443  0.4279 -0.1967  1.8034
14723SOL     OW51029  11.508   5.628  10.737  0.2738  0.0046 -0.2611
14723SOL    HW151030  11.570   5.556  10.749  0.6234  0.3021 -0.2632
14723SOL    HW251031  11.480   5.621  10.646 -0.5763 -0.8219  0.0365
14724SOL     OW51032   8.695   9.081  10.687  0.2742  0.2341 -0.1767
14724SOL    HW151033   8.671   9.054  10.598 -0.0514 -1.5574  0.4086
14724SOL    HW251034   8.791   9.074  10.689  0.3827  1.4181 -0.7142
14725SOL     OW51035   1.348   3.280   1.119 -0.0843 -0.3575 -0.3281
14725SOL    HW151036   1.355   3.239   1.205  0.1920 -2.1157 -1.1502
14725SOL    HW251037   1.285   3.226   1.071  0.9772 -0.3843 -1.7599
14726SOL     OW51038   8.971   0.814  11.088  0.2785 -0.3149 -0.0526
14726SOL    HW151039   8.939   0.758  11.017  0.3036 -0.5244  0.1015
14726SOL    HW251040   9.061   0.786  11.102  0.7731  0.7307 -0.9478
14727SOL     OW51041   8.372   5.846   5.490 -0.4510 -0.3534  0.8284
14727SOL    HW151042   8.374   5.892   5.574 -1.8201 -1.5349  1.5616
14727SOL    HW251043   8.419   5.765   5.507  1.4812  0.4754 -0.3048
14728SOL     OW51044   2.756  11.814   1.560  0.4576 -0.0431  0.2417
14728SOL    HW151045   2.695  11.744   1.539  1.3037 -0.8184  0.3399
14728SOL    HW251046   2.769  11.808   1.654  0.2994  0.4445  0.2986
14729SOL     OW51047   8.016  11.327   6.686  0.4540 -0.0217  0.0994
14729SOL    HW151048   7.956  11.312   6.759 -0.7308 -1.6561 -1.1338
14729SOL    HW251049   7.960  11.358   6.615  1.1785 -0.7241 -0.8109
14730SOL     OW51050  12.035   1.659   0.466 -0.5595  0.0536  0.2718
14730SOL    HW151051  12.003   1.655   0.556 -1.5096  0.2913 -0.0423
14730SOL    HW251052  11.993   1.585   0.422  1.4129 -1.2752  0.4542
14731SOL     OW51053  10.413   7.901   5.565  0.5155 -0.2167  0.0977
14731SOL    HW151054  10.433   7.819   5.520  4.8389  1.4139 -1.4335
14731SOL    HW251055  10.408   7.876   5.657 -0.2622 -2.4066 -0.4558
14732SOL     OW51056   8.311   4.694  11.277  0.7290 -0.2339 -0.4606
14732SOL    HW151057   8.247   4.761  11.253 -0.5671 -1.6863 -1.2443
14732SOL    HW251058   8.382   4.743  11.319 -0.8928  1.4445  0.5048
14733SOL     OW51059  12.212   1.275   2.506  0.9018  0.0869  0.3669
14733SOL    HW151060  12.134   1.330   2.512  0.6038 -0.2630 -0.2511
14733SOL    HW251061  12.188   1.205   2.446  0.8109 -1.5183  2.1669
14734SOL     OW51062   1.704   1.568   8.103 -0.0269  0.0540 -0.4683
14734SOL    HW151063   1.730   1.660   8.097 -0.1964  0.1236 -0.1548
14734SOL    HW251064   1.638   1.558   8.034 -1.3634  0.6472  0.6665
14735SOL     OW51065   9.143  12.327  10.572 -0.1780 -0.0786 -0.1196
14735SOL    HW151066   9.184  12.242  10.553  0.6058  0.3101 -0.2020
14735SOL    HW251067   9.060  12.325  10.524  0.5069 -0.2193 -1.3244
14736SOL     OW51068   9.222   1.928  11.283 -0.4011  0.4512 -0.1300
14736SOL    HW151069   9.253   2.018  11.293  1.4538  0.0622 -1.7253
14736SOL    HW251070   9.255   1.882  11.360 -0.5915  0.9442  0.2488
14737SOL     OW51071   9.537   1.234  11.607  0.1372 -0.1950  0.2138
14737SOL    HW151072   9.622   1.192  11.621 -0.4366 -1.2338  0.7323
14737SOL    HW251073   9.549   1.325  11.634  0.8339 -0.5672  1.1808
14738SOL     OW51074   1.186   2.937  10.124  0.0911 -0.4215 -0.1019
14738SOL    HW151075   1.137   3.019  10.121  1.2679  0.2821 -2.7813
14738SOL    HW251076   1.244   2.947  10.200  1.4671  2.0415 -1.3743
14739SOL     OW51077   8.385   9.750   9.663  0.1458 -0.2630  0.2863
14739SOL    HW151078   8.325   9.805   9.613 -1.7983 -1.5335  1.1213
14739SOL    HW251079   8.452   9.811   9.696 -0.9941  1.2984 -0.1827
14740SOL     OW51080   2.702   5.295   7.849 -0.3202  0.0019 -0.7126
14740SOL    HW151081   2.617   5.309   7.891  0.7169 -1.1098  2.0137
14740SOL    HW251082   2.684   5.238   7.775 -1.9927  0.0131 -0.3511
14741SOL     OW51083   8.845  10.528   5.615 -0.0105  0.2025 -0.0992
14741SOL    HW151084   8.881  10.555   5.530 -0.0398 -1.0849 -0.5565
14741SOL    HW251085   8.914  10.474   5.653 -0.7591 -0.8897 -0.2261
14742SOL     OW51086   6.797   6.284   0.139  0.3004  0.5969  0.2423
14742SOL    HW151087   6.810   6.369   0.180  1.7230 -0.1394  1.4124
14742SOL    HW251088   6.771   6.304   0.049 -0.6509  2.2441  0.8411
14743SOL     OW51089   2.840   2.599  10.626  0.1556 -0.3802 -0.0840
14743SOL    HW151090   2.774   2.534  10.603 -1.2701  0.6749  0.8247
14743SOL    HW251091   2.880   2.564  10.706  0.1886 -0.6630 -0.2203
14744SOL     OW51092  10.909   7.440  12.190  0.3939  0.3957 -0.2855
14744SOL    HW151093  10.941   7.457  12.101  0.6624 -0.3724 -0.3443
14744SOL    HW251094  10.913   7.525  12.234 -2.1804  1.3781 -1.7339
14745SOL     OW51095  11.347   3.419   3.372  0.4310 -0.2809  0.4370
14745SOL    HW151096  11.262   3.404   3.413 -0.3075  1.8207 -0.2244
14745SOL    HW251097  11.349   3.513   3.355  3.0065 -0.2397  0.6504
14746SOL     OW51098  10.176   4.320  10.824 -0.8214 -0.9014  0.7077
14746SOL    HW151099  10.221   4.363  10.751 -0.4196  1.6133  2.3027
14746SOL    HW251100  10.107   4.382  10.848 -0.4187 -1.2638  2.9447
14747SOL     OW51101   6.668   4.992  10.276  0.1300 -0.3318 -0.1189
14747SOL    HW151102   6.716   5.074  10.262  0.6143 -0.4518  0.7736
14747SOL    HW251103   6.708   4.929  10.217  1.1692 -0.4680  0.7189
14748SOL     OW51104   1.768   7.207  10.930 -0.0549  0.7013  0.0093
14748SOL    HW151105   1.748   7.301  10.922  0.9715  1.0341  1.0196
14748SOL    HW251106   1.778   7.193  11.024  3.5646  0.4467 -0.2764
14749SOL     OW51107  12.028   8.894  12.271  0.0520  0.3738  0.3336
14749SOL    HW151108  12.085   8.823  12.302 -0.2363 -0.1605 -0.3262
14749SOL    HW251109  11.983   8.924  12.350 -0.6385 -0.9339  0.4723
14750SOL     OW51110   2.012   2.353   3.592 -0.2132  0.1199 -0.1493
14750SOL    HW151111   2.106   2.343   3.609  0.1161  0.8682 -1.4057
14750SOL    HW251112   2.008   2.394   3.506 -1.6674  1.6153  0.5950
14751SOL     OW51113  10.052   1.798   6.645  0.2375  0.2601  0.1329
14751SOL    HW151114  10.041   1.729   6.579  0.4032  0.1024  0.2700
14751SOL    HW251115  10.060   1.878   6.595 -0.6789  0.2783 -0.0139
14752SOL     OW51116  10.745   1.664   1.485  0.3684 -0.4564 -0.5077
14752SOL    HW151117  10.798   1.733   1.445 -1.6867  2.7863  1.8298
14752SOL    HW251118  10.763   1.672   1.579 -2.2068 -0.9722  0.1122
14753SOL     OW51119   2.245   4.823   0.425  0.0803 -0.2428  0.0267
14753SOL    HW151120   2.206   4.827   0.338 -1.1633  0.5577  0.6004
14753SOL    HW251121   2.271   4.732   0.435 -0.9655 -0.6295 -0.6624
14754SOL     OW51122   9.008  10.470   2.178  0.7212 -0.0518  0.8411
14754SOL    HW151123   9.039  10.411   2.247  2.0790 -0.8320 -0.3762
14754SOL    HW251124   8.918  10.492   2.203  0.6886 -1.4879  2.0854
14755SOL     OW51125  10.330   0.330   1.942  0.5672  0.3691 -0.1760
14755SOL    HW151126  10.409   0.353   1.991  0.3508  1.5512 -0.3498
14755SOL    HW251127  10.344   0.240   1.914  1.5274  0.3193  0.4259
14756SOL     OW51128  11.303   6.090   8.576  0.3247 -0.4662 -0.5829
14756SOL    HW151129  11.383   6.123   8.535  0.1623  0.1455 -0.4243
14756SOL    HW251130  11.323   5.999   8.599  0.4769 -0.7666 -1.8471
14757SOL     OW51131   6.270   8.767   6.304  0.2221 -0.1387  0.0610
14757SOL    HW151132   6.199   8.811   6.352  0.8556  2.3175 -1.0841
14757SOL    HW251133   6.246   8.674   6.307 -2.2621  0.4294  0.9586
14758SOL     OW51134   7.011   2.599   0.785 -0.8593  0.3324  0.3444
14758SOL    HW151135   7.056   2.672   0.742  0.6608 -1.0938 -0.6005
14758SOL    HW251136   7.042   2.603   0.875  0.8176 -0.2810 -0.1576
14759SOL     OW51137   6.065  10.340   2.558 -0.5984  0.1131  0.1202
14759SOL    HW151138   6.072  10.429   2.525  1.6969 -0.3225 -0.7381
14759SOL    HW251139   5.979  10.310   2.529 -1.4474  2.0558  0.5166
14760SOL     OW51140   6.525   9.430  12.321  0.3453  0.5181  0.3896
14760SOL    HW151141   6.613   9.393  12.316 -0.1748 -0.6742 -0.2124
14760SOL    HW251142   6.502   9.451  12.230 -0.9027 -1.4406  0.1855
14761SOL     OW51143   5.149  12.086   1.540  0.2814  0.2165  0.4562
14761SOL    HW151144   5.085  12.155   1.527 -1.0605 -1.2360 -1.1584
14761SOL    HW251145   5.234  12.131   1.539 -0.5516  1.8406 -0.2658
14762SOL     OW51146  12.335   4.629   7.999 -0.2513  0.1772 -0.3840
14762SOL    HW151147  12.406   4.570   8.020 -1.7901 -1.4130  0.6030
14762SOL    HW251148  12.364   4.715   8.030  1.1877 -0.4339  0.0118
14763SOL     OW51149  11.760  12.033   6.763 -0.8243 -0.2007  0.1299
14763SOL    HW151150  11.745  12.012   6.671 -0.0764  0.2201 -0.0976
14763SOL    HW251151  11.678  12.072   6.793 -0.6837  0.7356 -0.6755
14764SOL     OW51152   5.598  12.268   4.560 -0.6298 -0.5053 -0.4206
14764SOL    HW151153   5.636  12.351   4.587 -1.6872 -0.3262  0.6259
14764SOL    HW251154   5.618  12.208   4.631 -0.4113 -0.9820 -0.8805
14765SOL     OW51155   5.151   4.145   3.867 -0.0308 -0.0979  0.2859
14765SOL    HW151156   5.132   4.116   3.778  0.6556 -0.9474  0.3970
14765SOL    HW251157   5.219   4.212   3.857  1.3905 -1.4911  0.2549
14766SOL     OW51158  11.382  10.562   8.061  0.6371  0.3543  0.0845
14766SOL    HW151159  11.386  10.656   8.073 -1.3659  0.4372  0.5806
14766SOL    HW251160  11.288  10.542   8.059  0.9943 -1.7468  1.0930
14767SOL     OW51161   1.958   8.902   0.032  0.1975 -0.5977 -0.1919
14767SOL    HW151162   2.038   8.954   0.036  0.2121 -0.6373  3.2467
14767SOL    HW251163   1.890   8.964   0.009  0.4469  0.7857  2.3781
14768SOL     OW51164   6.965   6.502   6.946 -0.4365 -0.3981  0.1147
14768SOL    HW151165   6.977   6.413   6.978 -2.1059 -1.1692 -1.2541
14768SOL    HW251166   6.906   6.493   6.871  0.6954  1.6818 -1.1209
14769SOL     OW51167   0.793  11.240   2.705  0.3669 -0.3601  0.2840
14769SOL    HW151168   0.870  11.205   2.658 -0.2661 -1.6247  0.1349
14769SOL    HW251169   0.719  11.200   2.661 -0.3072 -0.5636  1.5676
14770SOL     OW51170  10.705   7.948   6.966 -0.1458 -0.3597 -0.3555
14770SOL    HW151171  10.733   7.939   7.057 -0.6149  0.2342 -0.1472
14770SOL    HW251172  10.620   7.991   6.972  0.7237  1.5480 -1.1782
14771SOL     OW51173   5.263   3.778   5.970  0.6122 -0.2584  0.1776
14771SOL    HW151174   5.292   3.832   5.897  0.5667  0.6181  0.7883
14771SOL    HW251175   5.197   3.831   6.014 -0.6016 -1.4649 -0.1136
14772SOL     OW51176  10.302   3.246   0.180  0.2060 -0.3400  0.2740
14772SOL    HW151177  10.378   3.300   0.203  0.5018 -0.9017  0.6501
14772SOL    HW251178  10.328   3.157   0.204 -1.3286 -0.3045  2.3371
14773SOL     OW51179   7.051   1.172  11.306 -0.0273  0.1403 -0.5526
14773SOL    HW151180   7.080   1.236  11.240 -0.6249 -0.7066 -1.6806
14773SOL    HW251181   6.971   1.210  11.342  0.4602  0.7467 -0.0895
14774SOL     OW51182   1.195   2.603   4.803 -0.6395  0.1479  0.1827
14774SOL    HW151183   1.236   2.528   4.759  1.9543  1.6946 -0.2416
14774SOL    HW251184   1.103   2.597   4.778  0.1175 -0.8886 -2.8634
14775SOL     OW51185  12.473   4.726   2.075 -0.3300  0.3084  0.1630
14775SOL    HW151186  12.518   4.771   2.004 -0.5656  1.2058  0.5739
14775SOL    HW251187  12.540   4.715   2.143  0.4182 -2.1903 -0.8455
14776SOL     OW51188  11.758   5.543   8.070  0.5950 -0.6420  0.8675
14776SOL    HW151189  11.736   5.637   8.075 -1.8264 -1.1444  1.3005
14776SOL    HW251190  11.716   5.505   8.147 -3.0471 -2.7801 -1.8561
14777SOL     OW51191   8.180   1.855   6.062  0.2339  0.0687  0.2121
14777SOL    HW151192   8.088   1.834   6.078  0.3605 -1.6336 -1.0056
14777SOL    HW251193   8.187   1.949   6.080 -1.3712 -0.0641  1.8236
14778SOL     OW51194   6.870  12.058   7.880  0.1909 -0.5539  0.1847
14778SOL    HW151195   6.897  12.034   7.792 -0.1241 -2.8988  0.6413
14778SOL    HW251196   6.774  12.051   7.879  0.2116 -1.0488  0.8140
14779SOL     OW51197   1.907   6.875   8.141  0.3294  0.1911 -0.0647
14779SOL    HW151198   1.947   6.805   8.089  1.2781 -0.8491  1.9676
14779SOL    HW251199   1.827   6.836   8.176 -0.0206  0.6988 -0.2881
14780SOL     OW51200   1.184   7.593  12.006 -0.4927  0.1733  0.1073
14780SOL    HW151201   1.224   7.609  12.092 -0.7285  1.2881  0.0150
14780SOL    HW251202   1.234   7.648  11.945  1.3507 -2.4523 -0.9602
14781SOL     OW51203   4.691  11.336   0.353 -0.2833  0.1184 -0.2136
14781SOL    HW151204   4.766  11.390   0.328  1.3645 -1.4213  1.0903
14781SOL    HW251205   4.615  11.381   0.317  1.3336  1.2732 -2.3885
14782SOL     OW51206  12.302   1.942   1.449  0.1927 -0.2472  0.2140
14782SOL    HW151207  12.388   1.962   1.486  1.6653 -1.5857 -2.2057
14782SOL    HW251208  12.272   2.026   1.413  1.3866 -0.1152 -0.5434
14783SOL     OW51209   9.712   7.495  12.173 -0.1364 -0.0054 -0.4282
14783SOL    HW151210   9.796   7.452  12.157 -0.2808  0.0483 -1.3963
14783SOL    HW251211   9.691   7.475  12.264  0.6492 -0.4967 -0.3505
14784SOL     OW51212   8.210  10.502   2.553  0.1070  0.0316  0.4593
14784SOL    HW151213   8.134  10.558   2.568  0.6425  0.7684  0.4627
14784SOL    HW251214   8.190  10.421   2.600 -1.5884 -0.6052 -1.2138
14785SOL     OW51215   8.865   4.546  10.212  0.1404 -0.0855  0.2079
14785SOL    HW151216   8.926   4.500  10.270 -0.6160  0.7308  1.7158
14785SOL    HW251217   8.832   4.619  10.265 -1.1558  0.2497 -1.0052
14786SOL     OW51218   9.940   4.404   4.961  0.6077 -0.0121 -0.1916
14786SOL    HW151219   9.845   4.390   4.965  0.7819 -1.3296 -0.0738
14786SOL    HW251220   9.952   4.476   4.899 -0.4126 -0.6058 -1.1032
14787SOL     OW51221   7.699   9.903   8.641  0.2321 -0.6408  0.4676
14787SOL    HW151222   7.615   9.877   8.602  0.5932  0.0908 -0.8793
14787SOL    HW251223   7.702   9.998   8.629  0.4050 -0.3947  2.2773
14788SOL     OW51224   8.766   0.079   4.232  0.0365 -0.0423 -0.0599
14788SOL    HW151225   8.802   0.073   4.143  0.4615 -0.1474  0.1137
14788SOL    HW251226   8.774   0.172   4.254 -2.5606  0.5332 -1.1269
14789SOL     OW51227   6.732   3.535   8.212 -0.5262  0.3876 -0.1669
14789SOL    HW151228   6.806   3.577   8.168 -0.3778  0.6758  0.3388
14789SOL    HW251229   6.656   3.588   8.188 -0.2884  1.1687  0.7381
14790SOL     OW51230   8.758   6.358   3.369 -0.0001 -0.0595 -0.3125
14790SOL    HW151231   8.824   6.405   3.420  1.0522 -2.6959  0.9653
14790SOL    HW251232   8.801   6.275   3.346 -2.8913 -1.9948  0.7723
14791SOL     OW51233   0.682   7.075   4.620  0.1120  0.1482  0.3197
14791SOL    HW151234   0.625   7.002   4.598  0.4430 -0.0976  0.2845
14791SOL    HW251235   0.623   7.150   4.625 -0.3981 -0.2874  1.3242
14792SOL     OW51236   4.408   3.986  10.843  0.1703  0.2997  0.1029
14792SOL    HW151237   4.354   3.955  10.915 -1.0878 -0.9597 -1.3014
14792SOL    HW251238   4.440   3.906  10.801  0.0009  0.9615 -1.3445
14793SOL     OW51239   9.874   4.842  12.380  0.0078  0.3009 -0.0200
14793SOL    HW151240   9.835   4.926  12.358  0.9804  1.1908  1.4818
14793SOL    HW251241   9.845   4.783  12.311  0.9361  2.3127 -2.2588
14794SOL     OW51242  10.100   6.771  10.266  0.3053  0.3730  0.8547
14794SOL    HW151243  10.120   6.856  10.227  0.7666 -0.5583 -1.0085
14794SOL    HW251244  10.166   6.760  10.335  0.2612  1.4793  1.0931
14795SOL     OW51245   4.713   0.331   3.703  1.1884 -0.0826  0.1824
14795SOL    HW151246   4.652   0.305   3.634  1.4631 -0.8095  0.1972
14795SOL    HW251247   4.702   0.425   3.712  0.6966 -0.0813 -0.4174
14796SOL     OW51248   8.332   4.865   3.203  0.1721  0.1090 -0.4233
14796SOL    HW151249   8.239   4.861   3.184 -0.0871 -1.0335  0.9350
14796SOL    HW251250   8.373   4.813   3.133 -0.2365  0.3383 -0.8359
14797SOL     OW51251   0.934   3.544   4.034  0.1408  0.5381 -0.6256
14797SOL    HW151252   1.022   3.512   4.052  1.0628  2.6440 -0.9710
14797SOL    HW251253   0.925   3.535   3.939 -0.5472 -0.8515 -0.4443
14798SOL     OW51254  10.518   1.218   9.551 -0.7965  0.2933  0.3355
14798SOL    HW151255  10.585   1.260   9.498 -0.2142 -0.1850  0.6739
14798SOL    HW251256  10.485   1.287   9.608  0.2948  0.2694  1.0282
14799SOL     OW51257  10.640  12.349  10.221  0.2494  0.1899 -0.3735
14799SOL    HW151258  10.566  12.289  10.228  1.5726 -1.3822  0.8435
14799SOL    HW251259  10.653  12.383  10.309  0.3246  1.3187 -0.7973
14800SOL     OW51260   1.842   0.711  10.742 -0.1386  0.0059  0.3293
14800SOL    HW151261   1.798   0.782  10.789  0.8049 -0.1025  1.4234
14800SOL    HW251262   1.858   0.645  10.809  0.8770 -0.3375 -0.2413
14801SOL     OW51263   2.952  10.764   2.049  0.0202  0.3028  0.2799
14801SOL    HW151264   3.018  10.696   2.059 -1.5483 -1.6389 -1.4039
14801SOL    HW251265   3.001  10.845   2.037  2.1942 -1.2020 -2.0144
14802SOL     OW51266   6.751   1.076   2.354  0.2194  0.9721  0.0157
14802SOL    HW151267   6.827   1.065   2.296  0.5786  0.9660  0.4816
14802SOL    HW251268   6.714   1.160   2.328 -0.2381  0.4989 -0.9204
14803SOL     OW51269   3.252   4.798  10.695  0.1594 -0.1817  0.3278
14803SOL    HW151270   3.206   4.882  10.688  2.3590  1.4966  3.5637
14803SOL    HW251271   3.336   4.813  10.651  0.0326 -1.2113 -0.3072
14804SOL     OW51272   0.183  10.016   7.989  0.0413 -0.2319  0.4195
14804SOL    HW151273   0.155   9.942   7.936 -1.4061  0.0475  0.7345
14804SOL    HW251274   0.168   9.988   8.079  3.1939 -0.9920  0.8274
14805SOL     OW51275   5.138   5.762   4.288  0.3150 -0.5141 -0.4910
14805SOL    HW151276   5.165   5.704   4.217  0.5884 -0.1595 -0.6823
14805SOL    HW251277   5.073   5.820   4.249 -0.7198 -1.3294 -0.0441
14806SOL     OW51278  11.101   7.835   9.284 -0.0430  0.0571 -0.1921
14806SOL    HW151279  11.124   7.922   9.251  0.5430  0.1165  0.3627
14806SOL    HW251280  11.016   7.847   9.327  0.1949  0.4305  0.1791
14807SOL     OW51281  12.013   9.534   3.907  0.6691 -0.3495 -0.0359
14807SOL    HW151282  12.047   9.523   3.818 -0.2637  0.1672 -0.4655
14807SOL    HW251283  12.088   9.515   3.963  0.9625 -1.9129 -0.8936
14808SOL     OW51284   9.224   4.377   4.503  0.6806  0.1703 -0.1239
14808SOL    HW151285   9.247   4.299   4.453 -0.4680 -0.9702  1.0759
14808SOL    HW251286   9.309   4.417   4.524  1.3391 -1.1505 -0.1476
14809SOL     OW51287   8.763   5.785   4.203  0.2463  0.2037  0.2882
14809SOL    HW151288   8.669   5.771   4.194  0.4086  0.1712 -2.3470
14809SOL    HW251289   8.802   5.698   4.194  0.5935  0.4621 -0.9105
14810SOL     OW51290  11.259   1.373   6.802  0.1248 -0.1991 -0.1459
14810SOL    HW151291  11.200   1.389   6.729 -0.9397  1.3465  0.9901
14810SOL    HW251292  11.265   1.457   6.848  2.5432 -0.5418  0.2910
14811SOL     OW51293  12.245  12.346   1.323  0.1186 -0.2050 -0.2289
14811SOL    HW151294  12.219  12.437   1.313  1.8747  0.5635  1.5544
14811SOL    HW251295  12.183  12.297   1.268 -1.8124  1.8927 -0.0572
14812SOL     OW51296   4.053  11.188   4.061 -0.1394  0.2845  0.4111
14812SOL    HW151297   4.100  11.271   4.071  1.1058  0.3333 -3.8075
14812SOL    HW251298   3.971  11.212   4.017 -0.2620 -0.5870  0.1391
14813SOL     OW51299   8.296   1.531  11.032  0.0977 -0.2089  0.0750
14813SOL    HW151300   8.234   1.503  10.965 -1.6587  0.5074  1.3266
14813SOL    HW251301   8.382   1.514  10.994 -0.8458 -0.7223 -1.9482
14814SOL     OW51302  11.462   4.615   5.255  0.3666  0.3480  0.6183
14814SOL    HW151303  11.430   4.602   5.166  0.2017 -0.0681  0.7370
14814SOL    HW251304  11.555   4.635   5.245  0.1166  1.3927  0.2811
14815SOL     OW51305   7.449   6.300  10.532 -0.4578 -0.2743  0.0736
14815SOL    HW151306   7.499   6.372  10.572 -0.0779 -0.2985 -0.3516
14815SOL    HW251307   7.461   6.312  10.438 -0.7058 -0.6750 -0.0096
14816SOL     OW51308   3.649   2.994   0.822  1.0747  0.2389  0.0625
14816SOL    HW151309   3.625   3.035   0.905  0.2942 -0.6691  0.3024
14816SOL    HW251310   3.565   2.975   0.780  1.3926 -1.3941  0.1118
14817SOL     OW51311  11.397   9.799   3.664 -0.3365  0.2115  0.1195
14817SOL    HW151312  11.316   9.756   3.635 -1.6384  2.0171  0.9036
14817SOL    HW251313  11.370   9.888   3.686  1.8408  0.7850  0.6542
14818SOL     OW51314   7.463   2.995   4.161  0.3401 -0.1098 -0.1528
14818SOL    HW151315   7.410   2.968   4.236 -0.0926  0.3288 -0.2954
14818SOL    HW251316   7.468   2.918   4.105 -0.2437 -0.1228 -0.1922
14819SOL     OW51317   7.125   2.112   7.110 -0.4583  0.3662  0.1780
14819SOL    HW151318   7.100   2.202   7.089 -0.4197  0.1608 -0.8015
14819SOL    HW251319   7.055   2.058   7.074  0.1527 -0.0694 -0.3894
14820SOL     OW51320   4.313   6.005   4.174  0.1466  0.1543  1.0982
14820SOL    HW151321   4.341   6.045   4.092 -0.6708 -0.1056  0.6770
14820SOL    HW251322   4.299   5.913   4.152 -4.5190  0.7988  0.2518
14821SOL     OW51323   6.892   9.245  10.057 -0.0252  0.5501 -0.1968
14821SOL    HW151324   6.855   9.224   9.971 -1.9838 -0.5286  0.8280
14821SOL    HW251325   6.928   9.162  10.088  0.9142  0.9974 -0.0584
14822SOL     OW51326   8.203   6.650  10.369 -0.0050 -0.1500  0.3688
14822SOL    HW151327   8.246   6.665  10.453 -0.6096  0.0560  0.6458
14822SOL    HW251328   8.229   6.561  10.344  1.9281  0.5473 -0.2885
14823SOL     OW51329   3.336   7.359   0.700 -0.6740 -0.5338 -0.2750
14823SOL    HW151330   3.358   7.324   0.786  1.7775  0.2465 -0.5210
14823SOL    HW251331   3.310   7.282   0.649 -1.6030 -1.0759  0.9724
14824SOL     OW51332   4.741   4.411   2.246 -0.3187  0.1195  0.0062
14824SOL    HW151333   4.729   4.433   2.338 -2.4152  1.0899 -0.4510
14824SOL    HW251334   4.830   4.440   2.226 -0.2701  1.0047  1.4103
14825SOL     OW51335   4.775   6.216   2.830 -0.1308 -0.5491  0.6978
14825SOL    HW151336   4.821   6.270   2.895 -0.9645  1.2000 -0.1054
14825SOL    HW251337   4.722   6.156   2.882  0.0702  0.0765  1.6491
14826SOL     OW51338  12.151   8.538  10.377 -0.4191  0.1846 -0.0153
14826SOL    HW151339  12.196   8.585  10.447 -2.1342  0.7536  0.7591
14826SOL    HW251340  12.171   8.588  10.298  1.5010 -0.4366  0.0386
14827SOL     OW51341   0.151   2.648  12.459  0.0691  1.2172 -0.5995
14827SOL    HW151342   0.226   2.670  12.405  1.0192 -0.8765 -0.2359
14827SOL    HW251343   0.076   2.658  12.401  0.9224  0.4509 -1.8768
14828SOL     OW51344   6.922   4.080   6.809  0.3120  0.0459  0.3805
14828SOL    HW151345   6.882   4.085   6.895 -0.9765  2.1288 -0.2798
14828SOL    HW251346   7.014   4.102   6.824 -0.3289  2.6446  1.0083
14829SOL     OW51347   9.892   4.744   4.235  0.2028 -0.4263  0.1761
14829SOL    HW151348   9.883   4.651   4.213 -0.8938 -0.3460  0.2275
14829SOL    HW251349   9.835   4.756   4.311 -0.5613  0.5218 -0.5285
14830SOL     OW51350   4.245   4.049   5.733 -0.0434 -0.2318 -0.2612
14830SOL    HW151351   4.297   4.062   5.653 -0.1932 -0.1166 -0.3395
14830SOL    HW251352   4.240   4.136   5.772  0.7268 -0.4281  0.3053
14831SOL     OW51353   9.699   3.953   3.386  0.1595  0.0584  0.6437
14831SOL    HW151354   9.671   3.887   3.450  1.6750  0.8611  2.2352
14831SOL    HW251355   9.682   4.036   3.430  0.7462  0.6500 -0.2331
14832SOL     OW51356   4.242   3.718   9.767 -0.5197 -0.6911  0.2466
14832SOL    HW151357   4.147   3.724   9.759 -0.3564  0.3851 -1.4780
14832SOL    HW251358   4.274   3.802   9.734  1.0221 -0.6979  1.5828
14833SOL     OW51359   3.631   8.568  12.458 -0.1255  0.7665 -0.4411
14833SOL    HW151360   3.691   8.619  12.514  0.2401  0.6416 -0.7142
14833SOL    HW251361   3.665   8.479  12.464 -1.4176  0.3264  0.9306
14834SOL     OW51362  10.332   8.903   4.566  0.1742 -0.0103  0.1875
14834SOL    HW151363  10.351   8.977   4.508  0.6350 -0.4903 -0.2792
14834SOL    HW251364  10.257   8.860   4.525  0.4499 -0.3022 -0.0198
14835SOL     OW51365   0.958   9.860   2.039 -0.6489  0.8236 -0.0107
14835SOL    HW151366   0.922   9.820   1.960 -0.4796 -2.1237  1.2921
14835SOL    HW251367   0.882   9.887   2.089 -1.0036 -1.4324  0.7740
14836SOL     OW51368   8.766   9.042   1.500 -0.2644 -0.5790  0.0899
14836SOL    HW151369   8.798   8.986   1.429 -0.1624 -1.3318  0.7235
14836SOL    HW251370   8.672   9.052   1.482 -0.0045  0.3163 -0.8742
14837SOL     OW51371   5.253   4.394   0.549  0.4514  0.4196 -0.0243
14837SOL    HW151372   5.289   4.307   0.528  0.1077  0.3846 -0.4951
14837SOL    HW251373   5.236   4.433   0.463  1.7749  1.4581  0.1528
14838SOL     OW51374   1.397   3.374  10.251 -0.0460  0.5859  0.5754
14838SOL    HW151375   1.305   3.377  10.222  0.6405  0.4505 -1.8693
14838SOL    HW251376   1.429   3.289  10.221  1.0887  0.9627  0.6634
14839SOL     OW51377  10.619   0.195   9.845 -0.9755  0.0194  0.8071
14839SOL    HW151378  10.588   0.209   9.935  1.6305  2.4143  1.4886
14839SOL    HW251379  10.585   0.271   9.797  0.3227  0.5179  0.6271
14840SOL     OW51380   4.065   8.224   4.102 -0.2723 -0.4259  0.3754
14840SOL    HW151381   4.081   8.131   4.086 -0.9484 -0.5874  0.5854
14840SOL    HW251382   4.151   8.260   4.123  0.4668 -0.4524 -2.3210
14841SOL     OW51383   6.720  11.123   2.802 -0.0101 -0.1462 -0.2193
14841SOL    HW151384   6.683  11.147   2.717 -2.4370  1.9431  1.2827
14841SOL    HW251385   6.649  11.079   2.848  0.6620  0.2971  1.3101
14842SOL     OW51386   0.442   9.897   1.849  0.2001  0.0770 -0.0542
14842SOL    HW151387   0.425   9.854   1.933  0.2245  0.8918  0.3803
14842SOL    HW251388   0.516   9.956   1.867 -0.0630  0.5674 -0.5386
14843SOL     OW51389   8.535   4.164  12.481  0.1683  0.9289 -0.1004
14843SOL    HW151390   8.553   4.257  12.463  0.2065  0.5417 -2.3492
14843SOL    HW251391   8.544   4.121  12.396 -1.0978 -0.9635  0.6615
14844SOL     OW51392   7.107   4.959   6.509 -0.1886  0.0640 -0.0168
14844SOL    HW151393   7.116   4.883   6.451  1.1655 -0.0292  0.2955
14844SOL    HW251394   7.088   5.032   6.450  0.6631 -0.1206 -0.5395
14845SOL     OW51395   6.952   8.420   7.359  0.5954 -0.6794  0.3184
14845SOL    HW151396   7.025   8.462   7.313  0.0006  0.4835  0.4005
14845SOL    HW251397   6.888   8.401   7.290  0.3053 -0.2251  0.4556
14846SOL     OW51398   6.304   6.962   1.194  0.4079 -0.1850 -0.1423
14846SOL    HW151399   6.378   6.960   1.255  0.9882 -1.1645 -0.8425
14846SOL    HW251400   6.342   6.985   1.110 -0.2809  0.4655 -0.2870
14847SOL     OW51401   8.537   1.050   7.281  0.4342  0.0124 -0.3290
14847SOL    HW151402   8.582   0.975   7.319 -1.1768 -0.5964  0.4626
14847SOL    HW251403   8.540   1.117   7.349 -2.1559 -0.9640  0.8667
14848SOL     OW51404   8.052  11.257   8.517 -0.5368 -0.3174 -0.0673
14848SOL    HW151405   7.965  11.281   8.549  0.1932 -1.2052  2.9225
14848SOL    HW251406   8.109  11.325   8.551  0.2504 -1.0814  0.1808
14849SOL     OW51407  12.015   5.703   1.483 -0.3933 -0.1581 -0.4318
14849SOL    HW151408  11.941   5.760   1.464 -0.5908 -0.6705 -1.2800
14849SOL    HW251409  12.092   5.755   1.461 -0.5129  0.2352  0.0651
14850SOL     OW51410   8.542  10.128   0.121  0.3927 -0.2163  0.5207
14850SOL    HW151411   8.536  10.166   0.209 -0.5679 -0.9049  0.7630
14850SOL    HW251412   8.631  10.091   0.118  0.0858 -1.1135  1.6019
14851SOL     OW51413   3.453  11.149   1.680  0.1767 -0.0885  0.2810
14851SOL    HW151414   3.484  11.191   1.760 -0.4674 -2.2566  1.7722
14851SOL    HW251415   3.484  11.059   1.688 -3.4269 -1.4724  0.2027
14852SOL     OW51416   5.106   8.156   2.904  0.0306 -0.1627 -0.0435
14852SOL    HW151417   5.085   8.062   2.896  1.4015 -0.4358 -0.7268
14852SOL    HW251418   5.124   8.168   2.997 -0.5602 -0.4805  0.1209
14853SOL     OW51419   2.128   8.488   2.172  0.1185 -0.4788  0.2380
14853SOL    HW151420   2.129   8.552   2.243  1.6025  1.3519 -1.3352
14853SOL    HW251421   2.185   8.525   2.105 -2.8607 -1.0453 -2.8782
14854SOL     OW51422  10.893   4.397   5.017  0.3980  0.7270  1.2151
14854SOL    HW151423  10.832   4.408   5.090  0.2962 -0.6919  1.3774
14854SOL    HW251424  10.951   4.326   5.045 -0.9105 -1.2988 -0.8694
14855SOL     OW51425   7.512   5.156   3.524  0.2847 -0.0485 -0.0742
14855SOL    HW151426   7.439   5.117   3.476  0.7568 -1.0524 -0.0053
14855SOL    HW251427   7.579   5.087   3.526  0.1754 -0.1800  2.2881
14856SOL     OW51428  10.056   4.886   7.284 -0.2719 -0.1938 -0.1397
14856SOL    HW151429  10.131   4.832   7.259  0.3007  0.4685  0.1047
14856SOL    HW251430  10.090   4.975   7.287 -0.9169  0.0480  0.5892
14857SOL     OW51431   2.230   8.969   3.067 -0.0011  0.1514  0.3817
14857SOL    HW151432   2.159   8.973   3.003 -0.2468 -0.8452  0.5784
14857SOL    HW251433   2.293   9.035   3.037 -0.4800  0.2471 -0.4380
14858SOL     OW51434   6.863   1.679  12.218 -0.1718  0.1494 -0.0018
14858SOL    HW151435   6.918   1.658  12.294 -0.0090 -1.4565 -0.5324
14858SOL    HW251436   6.774   1.658  12.247 -0.0960 -0.5809 -0.2761
14859SOL     OW51437   7.788   4.159   4.051  0.2968 -0.1205  0.5113
14859SOL    HW151438   7.770   4.250   4.031 -0.2873 -0.1320  0.9582
14859SOL    HW251439   7.805   4.118   3.966  1.1529  0.5222  0.3638
14860SOL     OW51440   4.894   7.851   3.724 -0.0195  0.1420 -0.3211
14860SOL    HW151441   4.801   7.869   3.717 -0.1022 -0.1337  0.0356
14860SOL    HW251442   4.924   7.840   3.633 -0.5424 -0.8043 -0.3965
14861SOL     OW51443   9.906   5.164   8.156 -0.2258  0.1758  0.1030
14861SOL    HW151444   9.895   5.144   8.063  1.5299 -1.2249  0.1353
14861SOL    HW251445   9.975   5.230   8.159 -0.9797  0.9853  0.4027
14862SOL     OW51446   2.322   2.233   9.450  0.0215  0.3171  0.3764
14862SOL    HW151447   2.232   2.208   9.470  0.5080 -1.5597  0.4056
14862SOL    HW251448   2.315   2.285   9.370 -0.9554 -1.5309 -0.8186
14863SOL     OW51449   8.525   2.045   2.057 -0.1898 -0.2477 -0.4615
14863SOL    HW151450   8.476   2.125   2.040  1.5340  0.6980 -1.1723
14863SOL    HW251451   8.508   2.026   2.150 -1.7586  0.0965 -0.6426
14864SOL     OW51452   8.693  11.844   8.424  0.4806  0.2552  0.3904
14864SOL    HW151453   8.623  11.785   8.400  1.0095 -1.0310  1.8508
14864SOL    HW251454   8.654  11.904   8.487 -0.0539  1.5374 -1.0876
14865SOL     OW51455   8.907  11.625   0.733 -0.3959 -0.1429 -0.2530
14865SOL    HW151456   8.992  11.595   0.700 -0.9210 -1.2736 -0.6172
14865SOL    HW251457   8.928  11.672   0.814  0.5639 -0.5552 -0.2489
14866SOL     OW51458   3.970   7.879   7.699 -0.0683  0.8028  0.1935
14866SOL    HW151459   3.998   7.963   7.663 -1.3832  1.4485  0.6176
14866SOL    HW251460   3.918   7.902   7.776 -0.1077 -0.4182  0.5494
14867SOL     OW51461   6.437   2.124   6.313 -0.0368  0.0005  0.2175
14867SOL    HW151462   6.427   2.159   6.402  0.8032 -0.6795  0.5997
14867SOL    HW251463   6.423   2.199   6.256 -3.0967 -0.0112  0.7692
14868SOL     OW51464   9.520   1.401   3.693 -0.5522  0.1226 -0.3213
14868SOL    HW151465   9.496   1.349   3.770  2.3743 -0.2017  0.4700
14868SOL    HW251466   9.505   1.492   3.719 -2.2450 -0.0753 -0.4414
14869SOL     OW51467   3.590   1.217   2.311 -0.2720  0.2729  0.4343
14869SOL    HW151468   3.501   1.188   2.333 -0.2120 -0.0514  0.2599
14869SOL    HW251469   3.625   1.146   2.257 -0.6081  1.2858 -1.1875
14870SOL     OW51470   6.022  12.302   6.779 -0.2325 -0.5207  0.0816
14870SOL    HW151471   5.968  12.246   6.724 -1.3059 -0.2255  0.8154
14870SOL    HW251472   5.963  12.337   6.845  1.1762 -1.5938  2.0222
14871SOL     OW51473   6.926  12.288  11.929  0.3634 -0.8713  0.3130
14871SOL    HW151474   6.834  12.274  11.955  0.8925 -2.0556  1.6835
14871SOL    HW251475   6.974  12.291  12.011  1.6385 -0.8512 -0.4088
14872SOL     OW51476   2.897   2.458   1.162  0.1625 -0.0452 -0.2799
14872SOL    HW151477   2.895   2.363   1.153  2.9490 -0.3106  0.9227
14872SOL    HW251478   2.937   2.473   1.248  0.1856  2.2205 -0.6299
14873SOL     OW51479   0.289   7.655   0.747  0.7850 -0.7178 -0.2177
14873SOL    HW151480   0.288   7.572   0.794  1.0154 -0.9745 -0.6630
14873SOL    HW251481   0.382   7.673   0.731  0.7258 -0.4762 -0.3034
14874SOL     OW51482   3.950   3.904   4.182 -0.6548  0.3738  0.3096
14874SOL    HW151483   4.013   3.968   4.150 -0.4582 -0.5882 -1.3512
14874SOL    HW251484   4.002   3.843   4.234  0.2143 -1.3558 -2.3841
14875SOL     OW51485  11.509   2.350   8.041 -0.0796 -0.5171 -0.3833
14875SOL    HW151486  11.487   2.257   8.038  0.5172 -0.7059  0.6304
14875SOL    HW251487  11.603   2.352   8.062 -0.2984  0.3096  0.6112
14876SOL     OW51488   0.217   6.318   7.932  0.3811  0.3021  0.3146
14876SOL    HW151489   0.219   6.412   7.950 -0.1333  0.4513 -0.3498
14876SOL    HW251490   0.256   6.310   7.844  0.0841 -0.0610  0.2142
14877SOL     OW51491   0.760   5.815   7.863 -0.4982  0.6127  0.0116
14877SOL    HW151492   0.724   5.900   7.836 -0.7461  0.4129 -0.2951
14877SOL    HW251493   0.852   5.834   7.883 -0.4202  0.8550 -0.5490
14878SOL     OW51494   1.675   1.991   3.482 -0.3591  0.7105  0.1562
14878SOL    HW151495   1.689   2.063   3.544  1.6439 -0.4441  1.1565
14878SOL    HW251496   1.749   1.995   3.422  0.1575 -0.8526  0.6268
14879SOL     OW51497   3.633   6.186   7.970 -0.0172 -0.3567  0.3532
14879SOL    HW151498   3.666   6.128   7.902 -0.2248 -0.1750  0.0962
14879SOL    HW251499   3.578   6.131   8.024 -1.7595 -0.0090 -0.9830
14880SOL     OW51500   4.152   9.572   4.606 -0.3632  0.1117  0.3892
14880SOL    HW151501   4.110   9.658   4.614 -1.2509 -0.2499 -0.1907
14880SOL    HW251502   4.105   9.530   4.534  1.2748 -0.1675 -0.5575
14881SOL     OW51503   3.571  10.811   0.088  0.2655  0.4610 -0.3703
14881SOL    HW151504   3.557  10.774   0.174  1.0441  0.5388 -0.2081
14881SOL    HW251505   3.552  10.740   0.027 -0.0899  0.3508 -0.1324
14882SOL     OW51506   4.865   1.437   3.850  0.4787 -0.4869  0.1093
14882SOL    HW151507   4.904   1.490   3.779  1.4477 -1.5832 -0.2179
14882SOL    HW251508   4.804   1.378   3.805 -1.3849  1.0049  0.5889
14883SOL     OW51509  12.337   7.802   9.756  0.0464 -0.1343  0.0891
14883SOL    HW151510  12.325   7.897   9.769  0.6508  0.0646 -0.7776
14883SOL    HW251511  12.315   7.764   9.841 -1.6567  0.6505  0.0477
14884SOL     OW51512   4.587  10.793   8.524 -0.3848 -0.3804 -0.1637
14884SOL    HW151513   4.564  10.759   8.437  3.0116 -1.9011 -0.6221
14884SOL    HW251514   4.576  10.718   8.582  0.4637 -0.3109  0.0991
14885SOL     OW51515   9.843   0.582  11.676  0.0749  0.4754 -0.3284
14885SOL    HW151516   9.849   0.665  11.723  0.6142  0.3369 -0.1415
14885SOL    HW251517   9.810   0.605  11.589  0.5818  0.9346 -0.4039
14886SOL     OW51518   2.620   4.856   9.223 -0.5286  0.2047 -0.0422
14886SOL    HW151519   2.588   4.867   9.313 -1.6678  0.9040 -0.5030
14886SOL    HW251520   2.545   4.817   9.177  0.5380 -1.5418 -0.3789
14887SOL     OW51521   0.019   3.841   0.661  0.3554 -0.1391 -0.2527
14887SOL    HW151522   0.017   3.919   0.607  1.4305  0.2315  0.1961
14887SOL    HW251523   0.095   3.854   0.718 -0.1781 -0.9443  0.6809
14888SOL     OW51524  10.856   5.533   7.605 -0.6613  0.1831 -0.1355
14888SOL    HW151525  10.812   5.613   7.634  1.8869  0.9219  2.0140
14888SOL    HW251526  10.786   5.467   7.602 -2.5258  2.0599 -0.3964
14889SOL     OW51527   0.749   7.245   2.685  0.1636  0.2325  0.4984
14889SOL    HW151528   0.798   7.285   2.613 -0.5643 -0.5389 -0.4453
14889SOL    HW251529   0.708   7.168   2.647  0.4348 -0.6708  1.9535
14890SOL     OW51530   1.558   0.491   0.090 -0.5719  0.4589  0.1881
14890SOL    HW151531   1.544   0.526   0.178 -1.0249 -1.0252  0.7362
14890SOL    HW251532   1.652   0.473   0.086 -0.6320  0.0330  0.5744
14891SOL     OW51533   2.879  10.146  10.793  0.2475  0.2315 -0.6049
14891SOL    HW151534   2.960  10.117  10.835 -0.1721  0.3184  0.2863
14891SOL    HW251535   2.878  10.241  10.807 -1.8446 -0.1548  2.8066
14892SOL     OW51536  11.339   5.117  11.322  0.2449 -0.0476 -0.3542
14892SOL    HW151537  11.330   5.030  11.284 -0.6996  0.4646 -1.3340
14892SOL    HW251538  11.370   5.101  11.412 -1.0922 -1.4526 -0.1132
14893SOL     OW51539   1.400   2.775   7.597 -0.2332  0.1741 -0.0443
14893SOL    HW151540   1.482   2.798   7.639 -0.3681  0.3021  0.1499
14893SOL    HW251541   1.392   2.680   7.609 -0.9041  0.3800  1.3781
14894SOL     OW51542   7.021   3.070  10.652  0.1009  0.1714  0.5087
14894SOL    HW151543   7.054   3.056  10.740  0.5959 -0.0118  0.2951
14894SOL    HW251544   7.098   3.068  10.596 -0.1417  0.8461  0.1305
14895SOL     OW51545  10.119   5.155   5.224  0.0803 -0.8221  0.1152
14895SOL    HW151546  10.038   5.162   5.274  0.8323  1.8784  1.1417
14895SOL    HW251547  10.179   5.107   5.281 -0.6323 -2.6326 -0.5595
14896SOL     OW51548   2.957  11.458   7.329  0.0395 -0.7224  0.4478
14896SOL    HW151549   2.977  11.447   7.236 -0.1298  0.0127  0.3159
14896SOL    HW251550   3.021  11.523   7.359 -1.2369  0.6531  0.3320
14897SOL     OW51551   4.727   2.538  11.311  0.3649 -0.2467 -0.2553
14897SOL    HW151552   4.730   2.522  11.406  2.8872  0.2446 -0.1870
14897SOL    HW251553   4.731   2.633  11.302  1.8128 -0.3426 -0.8456
14898SOL     OW51554   5.208   0.425   6.986  0.4083 -0.1944 -0.5789
14898SOL    HW151555   5.198   0.448   7.078 -1.6087 -1.2569 -0.4758
14898SOL    HW251556   5.229   0.508   6.943  2.4976  0.1396  0.9268
14899SOL     OW51557   2.871   2.451  12.320  0.2556 -0.6489  0.2515
14899SOL    HW151558   2.863   2.356  12.335  0.5089 -0.6048  0.6947
14899SOL    HW251559   2.868   2.489  12.408 -0.2694 -0.2087  0.0507
14900SOL     OW51560  10.532   3.794   6.941 -0.6332  0.4695 -0.1423
14900SOL    HW151561  10.606   3.795   7.001 -0.4741 -1.6414 -0.2369
14900SOL    HW251562  10.460   3.834   6.990  0.4995  2.5425 -0.0451
14901SOL     OW51563   3.115   3.761   0.852  0.8603 -0.2637 -0.1606
14901SOL    HW151564   3.022   3.767   0.831  0.6835 -1.3161  0.2470
14901SOL    HW251565   3.118   3.747   0.947  1.3881 -0.9853 -0.2725
14902SOL     OW51566   4.380   1.112   8.083  0.1686  0.3717  0.0091
14902SOL    HW151567   4.380   1.018   8.102  0.8394  0.3694  0.0526
14902SOL    HW251568   4.469   1.129   8.052  0.5347  1.2675  1.4666
14903SOL     OW51569   3.844   8.576   6.831 -0.1025 -0.0462  0.0655
14903SOL    HW151570   3.811   8.488   6.815  1.1648 -0.4287 -0.5677
14903SOL    HW251571   3.857   8.613   6.743 -0.3597  0.6654  0.3224
14904SOL     OW51572  10.111  10.441   2.611 -0.1536  0.4448 -0.6202
14904SOL    HW151573  10.018  10.426   2.595 -0.1955 -2.3734  1.4775
14904SOL    HW251574  10.113  10.513   2.675 -0.7859  1.3240 -1.5681
14905SOL     OW51575   2.399   9.310   4.913  0.4140  0.7674  0.1337
14905SOL    HW151576   2.460   9.306   4.986  1.2616  0.5846 -0.5676
14905SOL    HW251577   2.335   9.242   4.931  0.6721  0.6573  0.6542
14906SOL     OW51578   6.537   3.241   7.980 -0.4612  0.0050 -0.0384
14906SOL    HW151579   6.527   3.306   8.049  1.6732 -2.1279  2.4933
14906SOL    HW251580   6.589   3.285   7.913  0.9309  0.9981  1.5961
14907SOL     OW51581   1.169  10.341   4.615 -0.6238 -0.0699  0.4851
14907SOL    HW151582   1.214  10.264   4.648 -1.9946  0.2023  3.3504
14907SOL    HW251583   1.197  10.412   4.672 -0.6180  1.2484 -1.0712
14908SOL     OW51584   0.983   3.557   8.837  0.8178 -0.4436 -0.2215
14908SOL    HW151585   1.004   3.647   8.862  1.1809 -0.5426 -0.1714
14908SOL    HW251586   0.936   3.522   8.912  1.7648 -0.6896  0.2766
14909SOL     OW51587   7.300   5.735   9.642  0.3326  0.1177  0.0745
14909SOL    HW151588   7.326   5.727   9.733  2.0111 -0.1305 -0.3940
14909SOL    HW251589   7.241   5.661   9.627  0.2589  0.0048  0.8750
14910SOL     OW51590  12.417  10.180   1.818 -0.0047  0.1614  0.3958
14910SOL    HW151591  12.356  10.253   1.831 -1.8017 -0.9223 -1.3241
14910SOL    HW251592  12.464  10.202   1.738 -0.0460 -0.2251  0.2634
14911SOL     OW51593   1.386   3.776   2.998  0.2735 -0.3899 -0.8990
14911SOL    HW151594   1.374   3.762   3.092  0.7680 -0.4631 -0.8445
14911SOL    HW251595   1.309   3.827   2.972 -1.1909 -2.5261 -0.9626
14912SOL     OW51596   0.789  10.704   3.304 -0.1361 -0.4869 -0.4710
14912SOL    HW151597   0.880  10.683   3.324 -0.6556 -2.0466  0.4174
14912SOL    HW251598   0.791  10.737   3.214  1.1644 -1.6492 -0.9052
14913SOL     OW51599   4.048   1.179   2.005  0.2654 -0.0233  0.2416
14913SOL    HW151600   4.012   1.236   1.937  1.1682  0.2096 -0.0573
14913SOL    HW251601   4.137   1.160   1.976  0.3194 -0.7518  0.8567
14914SOL     OW51602   6.236   5.729   6.762 -0.9791  0.5746  0.3170
14914SOL    HW151603   6.219   5.639   6.789  0.5042  0.4186  0.8018
14914SOL    HW251604   6.232   5.780   6.842  2.3131  0.2774  0.7686
14915SOL     OW51605  11.787   0.127   9.247  0.0732  0.0376 -1.0521
14915SOL    HW151606  11.820   0.215   9.264 -0.1802 -0.3014  1.8085
14915SOL    HW251607  11.691   0.137   9.244 -0.0602 -0.2773  0.8639
14916SOL     OW51608   7.619   5.408  11.368 -0.0288  0.2830 -0.2465
14916SOL    HW151609   7.700   5.428  11.321 -0.1910 -0.7759 -1.0158
14916SOL    HW251610   7.632   5.445  11.455  0.2832  2.2934 -1.0930
14917SOL     OW51611   5.584   6.095   0.154 -0.0442  0.0915  0.4365
14917SOL    HW151612   5.501   6.114   0.111  0.1189  2.5105  1.0960
14917SOL    HW251613   5.570   6.010   0.195 -2.2431  0.5105  0.6724
14918SOL     OW51614  10.664   7.725   9.531 -0.0171 -0.6526  0.0683
14918SOL    HW151615  10.601   7.795   9.548  2.5845  1.6079  1.0803
14918SOL    HW251616  10.680   7.686   9.617  0.2640 -0.9535 -0.1156
14919SOL     OW51617   9.548  10.616   8.464  0.5841  0.6995 -0.0785
14919SOL    HW151618   9.511  10.694   8.421 -2.2603  0.0890  0.9899
14919SOL    HW251619   9.497  10.543   8.428 -0.0317 -0.1050  2.2453
14920SOL     OW51620   3.866   7.000   0.481  0.5702  0.1034  0.4490
14920SOL    HW151621   3.882   6.968   0.392 -0.2055 -0.6548  0.5630
14920SOL    HW251622   3.859   6.921   0.534  3.3682  0.5627  1.6597
14921SOL     OW51623   3.716   5.592   2.417  0.5101 -0.6994 -0.2490
14921SOL    HW151624   3.731   5.676   2.374 -0.5815  0.7899  2.0559
14921SOL    HW251625   3.795   5.578   2.469  0.0819 -0.2954  0.5324
14922SOL     OW51626   4.985   0.930  12.306  0.1760 -0.3994 -0.7440
14922SOL    HW151627   4.921   0.866  12.338 -0.7162  0.0951 -1.5014
14922SOL    HW251628   5.050   0.877  12.260 -1.1811 -0.7034 -2.4146
14923SOL     OW51629   8.646   2.266   3.567 -0.3563  0.1307 -0.4829
14923SOL    HW151630   8.695   2.242   3.488  1.7028 -1.0976  1.0831
14923SOL    HW251631   8.708   2.316   3.620 -1.1695 -0.4094  1.0276
14924SOL     OW51632  10.793   8.631  11.703  0.4844 -0.0055 -0.0306
14924SOL    HW151633  10.861   8.646  11.769  1.0186  0.5615 -0.6956
14924SOL    HW251634  10.729   8.700  11.717 -0.6306 -1.2576  1.4034
14925SOL     OW51635  10.981  10.281   2.045  0.1068  0.4177  0.2530
14925SOL    HW151636  11.040  10.249   2.113 -0.4476  1.1811  1.1178
14925SOL    HW251637  10.979  10.375   2.057 -1.1981  0.4170  0.1844
14926SOL     OW51638   5.073   7.610   1.850 -0.0654  0.1920 -0.0931
14926SOL    HW151639   5.024   7.577   1.925  0.7387 -0.8222  0.0079
14926SOL    HW251640   5.155   7.560   1.850  0.0334  0.2891 -1.5410
14927SOL     OW51641  10.052   9.195  12.228  0.5364  0.0291 -0.1236
14927SOL    HW151642  10.130   9.149  12.260  1.4114  1.8950  0.5726
14927SOL    HW251643  10.007   9.223  12.307  0.0194  0.3653 -0.5353
14928SOL     OW51644  11.914   3.350   4.416 -0.0337  0.3035 -0.4670
14928SOL    HW151645  11.905   3.366   4.322 -0.2097  3.0806 -0.0445
14928SOL    HW251646  11.909   3.437   4.456  1.2083 -0.6805  2.0392
14929SOL     OW51647   9.151   1.508   4.029 -0.5969 -0.1662 -0.3683
14929SOL    HW151648   9.229   1.495   4.082 -1.1891  0.7228  0.7601
14929SOL    HW251649   9.122   1.419   4.007 -0.0980 -0.5386  0.4539
14930SOL     OW51650   4.013   9.549  10.815  0.1737  0.0355  0.0452
14930SOL    HW151651   3.931   9.501  10.827 -2.7702  3.9095 -2.1122
14930SOL    HW251652   4.028   9.592  10.899  0.3326 -1.0943  0.6131
14931SOL     OW51653   9.762   3.188   4.586  0.6597  0.2338  0.1404
14931SOL    HW151654   9.771   3.259   4.522 -0.8363  0.2540 -0.0988
14931SOL    HW251655   9.801   3.112   4.544 -1.1748 -0.0076 -1.2968
14932SOL     OW51656   5.483  12.286   9.298 -0.3694  0.1704  0.4967
14932SOL    HW151657   5.407  12.304   9.354  0.2330  0.7510  1.1524
14932SOL    HW251658   5.558  12.310   9.352  0.3419 -1.4370  0.2636
14933SOL     OW51659  11.272   2.359   9.202 -0.4031  0.2286  0.1462
14933SOL    HW151660  11.201   2.331   9.143  0.6693 -1.0235 -0.6156
14933SOL    HW251661  11.351   2.322   9.163  0.4430 -0.0594  2.0165
14934SOL     OW51662   9.386   0.718   7.607 -0.1738  0.4712 -0.2425
14934SOL    HW151663   9.443   0.788   7.638  0.2755  0.0004  0.0208
14934SOL    HW251664   9.303   0.761   7.586  0.4741  1.2910 -1.2506
14935SOL     OW51665   8.205   2.701   1.892 -0.2599 -0.7535 -0.2768
14935SOL    HW151666   8.164   2.732   1.973 -0.4166  0.3013 -0.7432
14935SOL    HW251667   8.174   2.761   1.825 -0.1494 -1.6292 -1.1343
14936SOL     OW51668  12.183   0.111   0.554 -0.4496 -0.0240 -0.4540
14936SOL    HW151669  12.201   0.017   0.557 -1.1565 -0.2631 -2.4602
14936SOL    HW251670  12.259   0.150   0.512 -0.0569  0.3734  0.5704
14937SOL     OW51671   7.176   9.295   0.217  1.0997  0.6202  0.1769
14937SOL    HW151672   7.196   9.256   0.302  2.5810  0.4005 -0.2338
14937SOL    HW251673   7.086   9.269   0.199  1.1902 -0.4147  1.1106
14938SOL     OW51674   5.841   5.167  11.591 -0.5571 -0.0977 -0.4594
14938SOL    HW151675   5.794   5.133  11.667 -0.2664  0.2750 -0.1066
14938SOL    HW251676   5.921   5.115  11.587  0.1081  0.8061  0.3548
14939SOL     OW51677   3.222   3.556   8.938  0.4098  0.2940 -0.0107
14939SOL    HW151678   3.147   3.586   8.989 -0.1324 -0.9930 -0.0182
14939SOL    HW251679   3.190   3.552   8.848  0.1361 -1.2268  0.1189
14940SOL     OW51680   4.432   6.831   2.125 -0.4131  0.2229  0.0865
14940SOL    HW151681   4.375   6.754   2.123 -2.0084  1.3265  0.8117
14940SOL    HW251682   4.372   6.904   2.141  1.0717  1.6043 -0.4351
14941SOL     OW51683   7.867   3.447  10.310 -0.1928 -0.1003  0.3509
14941SOL    HW151684   7.851   3.526  10.257 -0.6498  0.2315  0.9643
14941SOL    HW251685   7.854   3.375  10.249 -0.0305  0.2940 -0.1590
14942SOL     OW51686   0.508   5.122   9.069 -0.1059 -0.1817  0.0645
14942SOL    HW151687   0.446   5.174   9.120 -1.3766  0.0401 -1.6348
14942SOL    HW251688   0.527   5.175   8.992  1.8671 -0.4612  0.3055
14943SOL     OW51689   1.522   5.440   9.068  0.1065 -0.1768 -0.5808
14943SOL    HW151690   1.428   5.437   9.052 -0.2023 -1.5424  1.1979
14943SOL    HW251691   1.532   5.498   9.143  0.4696 -1.4464  0.3833
14944SOL     OW51692  12.311   3.643  10.750  0.0563 -0.1828 -0.1683
14944SOL    HW151693  12.326   3.560  10.705 -0.1402  0.3093 -1.1781
14944SOL    HW251694  12.234   3.627  10.804  1.8627 -1.6010  2.1626
14945SOL     OW51695   9.506   6.287   6.056 -0.4055 -0.7270 -0.0222
14945SOL    HW151696   9.532   6.222   6.122 -2.4695 -2.3827 -0.7122
14945SOL    HW251697   9.428   6.249   6.015 -0.0299  0.9144 -2.4418
14946SOL     OW51698   1.249  11.501  10.358  0.0274 -0.3004  0.0590
14946SOL    HW151699   1.279  11.477  10.270  0.9778  0.5983  0.1268
14946SOL    HW251700   1.181  11.566  10.343  1.2426  0.9884  0.0089
14947SOL     OW51701  11.040   4.300   1.635  0.0943 -0.1553  0.1606
14947SOL    HW151702  10.948   4.282   1.617  0.5474 -0.8671 -1.5977
14947SOL    HW251703  11.088   4.257   1.565  1.8772 -0.9809  1.7791
14948SOL     OW51704   0.807   7.487   4.852 -0.2705  0.3480  0.4562
14948SOL    HW151705   0.796   7.394   4.871  2.0771  0.1289  1.0382
14948SOL    HW251706   0.727   7.511   4.806 -0.2765 -2.3674 -1.2289
14949SOL     OW51707   2.076   7.871   8.332 -0.4718 -0.4146 -0.6022
14949SOL    HW151708   2.048   7.870   8.241 -1.0947  1.0345 -0.4390
14949SOL    HW251709   2.162   7.829   8.331  0.3513  1.1940 -2.1405
14950SOL     OW51710   0.175   6.043   6.706 -0.4749 -0.0895  0.1502
14950SOL    HW151711   0.180   6.023   6.612 -0.2250  0.9256 -0.0739
14950SOL    HW251712   0.110   6.113   6.711  0.4815  0.7953  0.5521
14951SOL     OW51713   5.590   5.375   6.098 -0.6390 -0.0680  0.5886
14951SOL    HW151714   5.513   5.323   6.122 -1.1153 -0.7178 -2.0434
14951SOL    HW251715   5.558   5.465   6.095 -0.2579  0.2442  3.3522
14952SOL     OW51716   6.772   3.964   9.245 -0.7470  0.2099 -0.1464
14952SOL    HW151717   6.849   4.003   9.286 -0.4659 -0.2190 -0.2748
14952SOL    HW251718   6.715   3.941   9.319 -1.2100  1.4583 -0.0872
14953SOL     OW51719   6.234  11.850   6.818  0.2540 -0.0783  0.1495
14953SOL    HW151720   6.301  11.883   6.758 -1.5122 -0.8382 -2.4028
14953SOL    HW251721   6.180  11.927   6.838 -0.1633 -0.1444 -0.6794
14954SOL     OW51722   4.808   4.638   0.566 -0.6614 -0.1548 -0.4010
14954SOL    HW151723   4.876   4.667   0.504 -0.3384  0.9436  0.4216
14954SOL    HW251724   4.794   4.714   0.623 -1.7261 -0.7747  0.2008
14955SOL     OW51725   4.212  11.141   0.138 -0.3175  0.6099  0.0327
14955SOL    HW151726   4.182  11.193   0.064 -1.0775 -2.5331 -2.0940
14955SOL    HW251727   4.133  11.126   0.190 -0.6996 -0.4434 -0.7934
14956SOL     OW51728   9.290  10.877   0.720 -0.2181 -0.1260  0.0572
14956SOL    HW151729   9.261  10.920   0.640 -1.6595 -0.9189  0.1320
14956SOL    HW251730   9.261  10.936   0.790 -0.1782 -0.1030  0.0548
14957SOL     OW51731   9.825  11.825  11.834  0.5001  0.0915 -0.3920
14957SOL    HW151732   9.822  11.844  11.740 -3.0706  0.4082 -0.3220
14957SOL    HW251733   9.798  11.733  11.840 -0.5657  0.4429  0.3735
14958SOL     OW51734   2.250   9.626  12.344  0.1007 -0.1152  0.1489
14958SOL    HW151735   2.271   9.566  12.272 -0.7100 -0.8851  0.5375
14958SOL    HW251736   2.171   9.672  12.316 -0.6704 -0.9753  0.8461
14959SOL     OW51737  12.414  11.114   9.031 -0.1981  0.0147 -0.2889
14959SOL    HW151738  12.394  11.039   8.974 -1.4751  1.2894 -1.5835
14959SOL    HW251739  12.492  11.153   8.993 -0.3284  0.1417 -0.4246
14960SOL     OW51740   4.647   2.140   1.085 -0.5661  0.0613 -1.0093
14960SOL    HW151741   4.579   2.147   1.018 -0.9996  0.6805 -0.5173
14960SOL    HW251742   4.599   2.148   1.168  0.0063 -0.3420 -0.6342
14961SOL     OW51743   9.400   6.624   3.999 -0.2006 -0.1452 -0.0253
14961SOL    HW151744   9.365   6.549   3.952  0.9213 -0.8562  0.2290
14961SOL    HW251745   9.439   6.679   3.930  0.7074 -0.7793 -0.0410
14962SOL     OW51746   3.235   6.723   0.410 -0.2552  0.0414  0.2032
14962SOL    HW151747   3.227   6.663   0.485  0.3821 -2.6152 -1.6939
14962SOL    HW251748   3.146   6.754   0.395 -0.2689  1.4209  2.5555
14963SOL     OW51749   9.847   1.946   6.130 -0.1410  0.0431 -0.0240
14963SOL    HW151750   9.860   2.040   6.123  1.6797 -0.1187  0.6497
14963SOL    HW251751   9.887   1.910   6.051 -1.2462 -0.1611 -0.5108
14964SOL     OW51752  11.766   8.647   7.134  0.1553  0.1212  0.2943
14964SOL    HW151753  11.708   8.607   7.070  1.0157 -2.3733  0.9726
14964SOL    HW251754  11.854   8.626   7.102  0.6123  0.2612  1.4258
14965SOL     OW51755   7.908   5.663   2.485  0.0340  0.6715  0.4890
14965SOL    HW151756   7.936   5.754   2.480  1.0381  0.3596  0.0215
14965SOL    HW251757   7.980   5.614   2.445 -1.0640 -0.2148 -0.4927
14966SOL     OW51758   8.758   4.730   4.633 -0.3561 -0.3344  0.1376
14966SOL    HW151759   8.756   4.782   4.553  1.8843 -0.4945 -0.1054
14966SOL    HW251760   8.789   4.644   4.604 -0.0759 -0.5645  1.1000
14967SOL     OW51761   6.395   2.789   4.747 -0.4298  0.6591 -0.0019
14967SOL    HW151762   6.308   2.810   4.714 -0.5061  0.3275 -0.0167
14967SOL    HW251763   6.444   2.870   4.738 -0.7228  0.8337 -0.0401
14968SOL     OW51764   3.406   4.999   7.748 -0.2000 -0.1675 -0.2908
14968SOL    HW151765   3.490   4.963   7.777 -0.4258 -0.0574  0.5320
14968SOL    HW251766   3.343   4.930   7.768 -0.1895 -0.6587 -1.8229
14969SOL     OW51767   7.801   4.917   8.017  0.2121 -0.3698 -0.1604
14969SOL    HW151768   7.814   4.826   8.044  0.5904  0.0776  1.2075
14969SOL    HW251769   7.705   4.927   8.014  0.0846 -0.0629  2.4933
14970SOL     OW51770   7.149   6.024   5.892 -0.0180  0.3565  0.0405
14970SOL    HW151771   7.139   5.984   5.806  1.6543 -2.6575  1.0885
14970SOL    HW251772   7.092   6.101   5.890  1.0131  1.2696 -4.1963
14971SOL     OW51773   6.401   2.265  10.783 -0.1223 -0.5186 -0.2031
14971SOL    HW151774   6.479   2.320  10.780 -0.5643  0.2395  1.2711
14971SOL    HW251775   6.329   2.325  10.764 -0.4651 -0.9618 -0.3349
14972SOL     OW51776   0.505   4.251   7.740  0.0555 -0.3974 -0.2632
14972SOL    HW151777   0.465   4.164   7.740 -0.1619 -0.3250  1.5025
14972SOL    HW251778   0.479   4.289   7.656 -3.0090 -0.6389  0.4443
14973SOL     OW51779   9.454   2.573   9.906 -0.4691  0.2954 -0.0395
14973SOL    HW151780   9.420   2.659   9.878 -2.0207  0.0950  1.1228
14973SOL    HW251781   9.377   2.517   9.909  0.0339 -0.3670  2.0222
14974SOL     OW51782   1.330  11.856  11.496 -0.8837 -0.1559 -0.4339
14974SOL    HW151783   1.296  11.909  11.423  1.4562  1.9805 -0.0974
14974SOL    HW251784   1.271  11.875  11.569 -0.9539  0.8309 -0.7346
14975SOL     OW51785   5.929   2.474   2.069 -0.1909  0.4976 -0.2444
14975SOL    HW151786   6.010   2.492   2.021  0.4625 -1.1901  0.1553
14975SOL    HW251787   5.952   2.491   2.161 -0.6369  1.0899 -0.2335
14976SOL     OW51788  10.718   6.708  12.385  0.4895  0.3742  0.0058
14976SOL    HW151789  10.755   6.777  12.329 -0.5393 -0.1875 -1.4254
14976SOL    HW251790  10.690   6.754  12.464 -0.4330  1.6858 -1.0223
14977SOL     OW51791   3.230   9.771   5.019 -0.4827  0.4338  0.0870
14977SOL    HW151792   3.142   9.809   5.014 -0.4648  0.4191 -0.3062
14977SOL    HW251793   3.215   9.677   5.026 -0.6208  0.5521  3.1557
14978SOL     OW51794  10.526   2.140   5.103 -0.1978 -0.2700 -0.0671
14978SOL    HW151795  10.543   2.083   5.178 -1.4659  0.3810  0.7614
14978SOL    HW251796  10.552   2.227   5.133  0.0636 -0.1341 -0.6807
14979SOL     OW51797  12.313   0.163   8.931 -0.1802  0.4997  0.3681
14979SOL    HW151798  12.220   0.140   8.931 -0.0620 -0.0178  0.8194
14979SOL    HW251799  12.325   0.216   8.853 -1.2342  2.1877  1.2860
14980SOL     OW51800   2.024   3.638   5.370 -0.0335 -0.3583 -0.0961
14980SOL    HW151801   2.022   3.570   5.302  3.3475 -1.2728  0.5489
14980SOL    HW251802   2.019   3.589   5.452 -2.5638  0.6405  0.4339
14981SOL     OW51803  11.734   8.658   6.301  0.1305 -0.0866  0.2369
14981SOL    HW151804  11.710   8.740   6.258 -1.5761  0.3010  1.7557
14981SOL    HW251805  11.824   8.670   6.329 -0.6066  2.0859  2.0128
14982SOL     OW51806   8.371   5.848   3.775 -0.2229  0.3726  0.4826
14982SOL    HW151807   8.407   5.889   3.696  1.3069 -0.2115  0.8281
14982SOL    HW251808   8.369   5.918   3.840  0.3168  0.4291  0.4463
14983SOL     OW51809   6.271  11.607   8.680 -0.4092 -0.1381 -0.7850
14983SOL    HW151810   6.335  11.678   8.687 -0.1398 -0.4901  0.6250
14983SOL    HW251811   6.187  11.649   8.698 -0.2229 -0.1883  0.2902
14984SOL     OW51812   3.021   9.077  12.327  0.0027  0.2749 -0.7385
14984SOL    HW151813   2.952   9.144  12.331 -0.0727  0.2658 -1.5417
14984SOL    HW251814   3.087   9.116  12.269 -0.7281 -0.9262 -2.4638
14985SOL     OW51815   5.873  10.565   8.293  0.2685  0.5825  0.3208
14985SOL    HW151816   5.841  10.650   8.325 -0.7886  0.1368  0.4983
14985SOL    HW251817   5.802  10.504   8.313  0.7337 -0.2205 -0.4132
14986SOL     OW51818   2.556  11.495  11.304  0.1958  0.0410  0.0466
14986SOL    HW151819   2.645  11.505  11.268 -0.4130  0.2395 -1.4903
14986SOL    HW251820   2.515  11.581  11.291 -0.1550  0.0232  0.9699
14987SOL     OW51821  11.048   2.806  11.901  0.0460 -0.2244  0.0178
14987SOL    HW151822  11.006   2.769  11.824 -2.1704 -0.2007  1.1469
14987SOL    HW251823  11.034   2.740  11.970  0.5377  0.4815  0.8158
14988SOL     OW51824   8.333   9.928   6.335 -0.0354  1.0988  0.3239
14988SOL    HW151825   8.275   9.939   6.259 -0.1129  0.3526  0.2714
14988SOL    HW251826   8.312   9.841   6.369  0.2673  1.2736  0.9799
14989SOL     OW51827   9.765   2.884   7.237  0.1891 -0.3010 -0.5717
14989SOL    HW151828   9.759   2.878   7.142 -0.7807 -1.9225 -0.4284
14989SOL    HW251829   9.676   2.901   7.267  0.2662 -1.0309  0.1173
14990SOL     OW51830   4.775   8.716  12.018 -0.4454 -0.4092 -0.0066
14990SOL    HW151831   4.793   8.627  11.990  0.8534 -0.0126 -0.5468
14990SOL    HW251832   4.744   8.708  12.108 -0.0690 -1.3808  0.0415
14991SOL     OW51833   2.138   4.150   8.468  0.1470  0.2540  0.1484
14991SOL    HW151834   2.063   4.161   8.409 -0.6196  1.2527  1.2830
14991SOL    HW251835   2.195   4.225   8.448  0.2138  0.2177  0.2037
14992SOL     OW51836   1.375  11.136   6.690 -0.5887  0.0546  0.0556
14992SOL    HW151837   1.317  11.203   6.655  0.0163  0.2238 -0.6370
14992SOL    HW251838   1.376  11.067   6.624  1.3139  0.8007 -0.7777
14993SOL     OW51839   2.546  10.533   9.798  0.4239  0.0451  0.6515
14993SOL    HW151840   2.568  10.462   9.738 -0.4864 -0.1682  0.5518
14993SOL    HW251841   2.496  10.491   9.868  0.7959  0.4199  1.1512
14994SOL     OW51842  12.451   6.496   5.204 -0.2431 -0.5907  0.5839
14994SOL    HW151843  12.458   6.579   5.157  0.0502 -1.9745 -2.0328
14994SOL    HW251844  12.363   6.496   5.240 -0.3071  0.7797  0.4867
14995SOL     OW51845   1.930   2.947   2.703  0.1672 -0.2927  0.6236
14995SOL    HW151846   1.941   3.042   2.696 -2.1620  0.0280  0.4373
14995SOL    HW251847   1.839   2.936   2.732  0.0418 -2.4948 -0.4164
14996SOL     OW51848   8.447  11.348   7.682 -0.2553  0.1171 -0.1484
14996SOL    HW151849   8.458  11.442   7.700  1.3944 -0.0245 -0.3034
14996SOL    HW251850   8.534  11.311   7.690 -1.0862 -1.7036  1.3503
14997SOL     OW51851  12.339   2.484   0.981  0.4030 -0.7077  0.3700
14997SOL    HW151852  12.319   2.549   0.913  0.2941  0.0632  1.1173
14997SOL    HW251853  12.415   2.520   1.028 -0.7409 -0.1967  1.9310
14998SOL     OW51854   3.328   7.570   2.931  0.4849 -0.2106  0.1650
14998SOL    HW151855   3.364   7.636   2.872  1.6694 -1.5330 -0.6686
14998SOL    HW251856   3.236   7.562   2.903  0.4315  0.7870  0.0212
14999SOL     OW51857   5.990   6.612  10.723 -0.1047  0.0471  0.3298
14999SOL    HW151858   6.084   6.601  10.711 -0.0605  2.5674 -3.4004
14999SOL    HW251859   5.975   6.706  10.712 -3.0535 -0.2094  1.2057
15000SOL     OW51860  11.013   8.910   8.518 -0.4800 -0.0087 -0.3892
15000SOL    HW151861  10.920   8.892   8.529 -0.6848  0.7127 -0.8998
15000SOL    HW251862  11.054   8.824   8.514 -0.8369 -0.3567  2.0874
15001SOL     OW51863   6.474   8.490   0.367 -0.1674 -0.0874  0.0355
15001SOL    HW151864   6.399   8.434   0.348 -0.0813 -0.3453  0.4371
15001SOL    HW251865   6.544   8.457   0.311 -0.3677  0.1972 -0.3897
15002SOL     OW51866   8.383   0.152   8.510  0.0582  0.1190  0.3609
15002SOL    HW151867   8.330   0.157   8.590 -0.5717 -0.4937 -0.0016
15002SOL    HW251868   8.319   0.155   8.439  0.5106 -0.5970 -0.0923
15003SOL     OW51869   2.997   8.898   5.504  0.4995  0.0606 -0.1762
15003SOL    HW151870   3.020   8.957   5.432  0.7257  0.9576  0.6088
15003SOL    HW251871   2.902   8.887   5.498  0.6529 -0.8303 -1.3106
15004SOL     OW51872  11.737   8.824  10.627  0.0782  0.1056  0.7781
15004SOL    HW151873  11.830   8.845  10.613  0.1557  0.4105  1.6650
15004SOL    HW251874  11.725   8.739  10.585  0.3296  0.8306 -0.8488
15005SOL     OW51875   1.090   1.279   9.677 -0.0978  0.1922  0.1346
15005SOL    HW151876   1.118   1.367   9.654 -0.5969 -0.3170 -2.7154
15005SOL    HW251877   1.165   1.242   9.725  0.1551  2.0587  1.2869
15006SOL     OW51878   2.677   8.175   3.359 -0.9879 -1.0877  0.2644
15006SOL    HW151879   2.769   8.156   3.382 -0.5201 -0.3965 -0.9671
15006SOL    HW251880   2.631   8.174   3.443  0.1975 -1.1583  0.9390
15007SOL     OW51881   3.474   8.293   5.525 -0.1006 -0.6088  0.4159
15007SOL    HW151882   3.482   8.217   5.583 -1.2475  0.3553  1.9150
15007SOL    HW251883   3.391   8.334   5.551  0.8652  1.6066  0.2362
15008SOL     OW51884   2.296   6.997   4.006  0.1697  0.7317  0.5280
15008SOL    HW151885   2.356   6.925   4.026 -0.3227 -0.3977 -1.7204
15008SOL    HW251886   2.276   7.037   4.091  1.7882 -0.7032  1.6390
15009SOL     OW51887   1.170   8.173   7.913 -0.3850  0.2472  0.3854
15009SOL    HW151888   1.088   8.159   7.962 -1.2281 -1.2771 -1.3441
15009SOL    HW251889   1.142   8.183   7.822  1.3691 -0.3817 -0.2487
15010SOL     OW51890   9.169   2.823  11.390 -0.0957  0.1511 -0.6021
15010SOL    HW151891   9.202   2.905  11.353  0.8765 -0.4715 -1.1733
15010SOL    HW251892   9.203   2.821  11.479 -2.0028  1.4055  0.2227
15011SOL     OW51893   0.668   9.422   5.584  0.2839 -0.0589 -0.2011
15011SOL    HW151894   0.701   9.429   5.495  2.2250 -3.5978  0.0594
15011SOL    HW251895   0.595   9.361   5.578  0.5209 -0.4376  0.6371
15012SOL     OW51896   5.103   5.016   5.075  0.0256  0.4191  0.5582
15012SOL    HW151897   5.107   4.928   5.036  2.5143  0.8814 -0.3907
15012SOL    HW251898   5.023   5.054   5.039  0.1480 -0.6156 -0.9009
15013SOL     OW51899  11.218   4.473   9.891 -0.1573 -0.0645  0.4385
15013SOL    HW151900  11.178   4.513   9.813  3.2483  2.7048 -0.1637
15013SOL    HW251901  11.264   4.396   9.858  1.4134  1.1933 -0.4551
15014SOL     OW51902  10.583   0.023   6.241  0.2254 -0.0249 -0.4029
15014SOL    HW151903  10.573   0.074   6.161 -0.4902  0.9004  0.2482
15014SOL    HW251904  10.608  -0.065   6.211 -1.3539 -0.0809 -1.7174
15015SOL     OW51905   9.716   3.380   3.763 -0.1055 -0.0537  0.2619
15015SOL    HW151906   9.678   3.331   3.690 -0.1887 -1.8906  1.4725
15015SOL    HW251907   9.810   3.377   3.747 -0.1225 -0.4286  0.2053
15016SOL     OW51908   8.589   3.355   2.489  0.2345  0.4537  0.2238
15016SOL    HW151909   8.609   3.268   2.454  0.1290  0.8592 -0.8712
15016SOL    HW251910   8.529   3.394   2.426  0.6279  1.4971  0.4640
15017SOL     OW51911   1.773  11.439   1.179  0.2328 -0.5092  0.7309
15017SOL    HW151912   1.691  11.409   1.219 -0.4561 -0.6320 -0.6897
15017SOL    HW251913   1.745  11.492   1.105  1.4554  1.1602  1.4024
15018SOL     OW51914  12.025   8.996   1.335 -0.1539 -0.3468  0.0761
15018SOL    HW151915  12.064   9.058   1.275  1.0420 -0.9997  0.1513
15018SOL    HW251916  12.053   8.910   1.303 -0.4909 -0.7638  0.8597
15019SOL     OW51917   1.867  10.257   1.547 -0.6677 -0.4147 -0.0360
15019SOL    HW151918   1.771  10.258   1.545 -0.6537 -0.1703 -1.7578
15019SOL    HW251919   1.893  10.276   1.457  1.0164  0.5477  0.6108
15020SOL     OW51920  12.310   1.709   0.410 -0.0629 -0.1969  0.1830
15020SOL    HW151921  12.216   1.694   0.418  0.0011 -2.0326 -1.6142
15020SOL    HW251922  12.324   1.795   0.450 -2.3410 -0.2478  1.2696
15021SOL     OW51923  11.876   0.618  12.023  0.2470 -0.2788  0.4305
15021SOL    HW151924  11.797   0.669  12.043  0.1745 -0.6357  1.0830
15021SOL    HW251925  11.869   0.598  11.930  0.2679  0.8843  0.1711
15022SOL     OW51926   0.412  11.991  11.620  0.4691  0.2871  0.3556
15022SOL    HW151927   0.365  12.071  11.643 -0.4084 -0.6940  2.1481
15022SOL    HW251928   0.376  11.966  11.535  0.5008  1.5778 -0.0566
15023SOL     OW51929   8.410   0.839   2.003  0.6342 -0.1311 -0.3368
15023SOL    HW151930   8.319   0.822   2.027 -0.0846  3.5214  0.1169
15023SOL    HW251931   8.461   0.790   2.067 -1.0678 -0.3977  0.8814
15024SOL     OW51932  10.457   3.074   0.766 -0.5814 -0.1850  0.2665
15024SOL    HW151933  10.452   3.123   0.849 -1.3568  0.3614 -0.0913
15024SOL    HW251934  10.367   3.070   0.736 -0.4021 -1.0716 -0.1669
15025SOL     OW51935   9.582   3.687   1.128 -0.5447  0.1665 -0.2004
15025SOL    HW151936   9.563   3.734   1.209 -1.7107 -0.7650  0.0950
15025SOL    HW251937   9.605   3.755   1.065  2.1984  0.8225  1.3426
15026SOL     OW51938   6.764   5.041   3.917  0.0139 -0.2588 -0.3588
15026SOL    HW151939   6.765   5.047   3.821  0.4582 -2.6690 -0.5568
15026SOL    HW251940   6.674   5.015   3.938  0.4817 -1.9698 -0.3434
15027SOL     OW51941   4.737   9.481   5.541 -0.7729  0.3818 -0.0448
15027SOL    HW151942   4.688   9.422   5.599  1.4532  0.3267  1.9344
15027SOL    HW251943   4.673   9.546   5.514 -1.9349  0.5439  2.7328
15028SOL     OW51944   1.380   2.114  11.480 -0.0043  0.0597 -0.1396
15028SOL    HW151945   1.462   2.091  11.437  0.3641  0.6119  0.2547
15028SOL    HW251946   1.361   2.203  11.451 -1.5259 -0.7452 -1.8030
15029SOL     OW51947   2.562   9.109   7.259  0.9036  0.1883  0.3855
15029SOL    HW151948   2.482   9.069   7.294  1.5320 -0.7058  0.8446
15029SOL    HW251949   2.533   9.193   7.224 -0.8925 -1.4376 -2.4657
15030SOL     OW51950   8.334   4.126   6.204 -0.0723  0.7186  0.7307
15030SOL    HW151951   8.388   4.204   6.209  0.7439  0.2266 -0.1603
15030SOL    HW251952   8.388   4.062   6.159 -1.2017  0.0387  0.3038
15031SOL     OW51953   8.608   1.399   8.746 -0.0026  0.2980  0.3909
15031SOL    HW151954   8.680   1.337   8.738 -0.0637  0.3834 -1.2139
15031SOL    HW251955   8.638   1.463   8.810  1.3405  0.3146 -0.2341
15032SOL     OW51956   1.402   4.539   9.158 -0.2519 -0.1449  0.0751
15032SOL    HW151957   1.371   4.596   9.088 -3.6937 -2.7145 -0.7809
15032SOL    HW251958   1.372   4.581   9.239  1.7764  1.7002 -0.0520
15033SOL     OW51959   7.753   9.445  10.989  0.0161 -0.0391  0.2224
15033SOL    HW151960   7.704   9.468  10.909  0.4633  1.8248  0.4385
15033SOL    HW251961   7.825   9.390  10.958 -2.2174 -3.0700 -0.0804
15034SOL     OW51962   6.742  12.103   8.507 -0.0645  0.6031  0.8988
15034SOL    HW151963   6.650  12.114   8.482 -0.1570 -0.9708  0.4383
15034SOL    HW251964   6.778  12.192   8.503 -0.7689  0.8757 -2.2046
15035SOL     OW51965   4.826  12.246   6.790  0.3784 -0.4867  0.4982
15035SOL    HW151966   4.788  12.161   6.810  0.9458 -0.4445  1.8689
15035SOL    HW251967   4.786  12.306   6.853  2.3125 -0.3584  1.7058
15036SOL     OW51968  12.034   8.526   6.324 -0.9585  0.4661 -0.6047
15036SOL    HW151969  11.984   8.545   6.403 -0.2469  0.5299 -0.1564
15036SOL    HW251970  11.982   8.459   6.279 -1.0768 -0.0212  0.2252
15037SOL     OW51971   5.626   1.011   4.647  0.1888  0.6299 -0.2202
15037SOL    HW151972   5.537   1.037   4.625  0.3191  1.4494  0.1749
15037SOL    HW251973   5.681   1.074   4.600  0.5746 -0.1784 -0.8647
15038SOL     OW51974   4.190   6.242   2.788  0.6979  0.4782  0.0100
15038SOL    HW151975   4.260   6.207   2.844 -0.3519 -1.0226  0.4473
15038SOL    HW251976   4.110   6.224   2.836 -0.1959 -0.3662 -1.7117
15039SOL     OW51977   3.014  11.583   2.204  0.3974 -0.4370  0.2599
15039SOL    HW151978   2.957  11.659   2.197 -1.1804 -1.4616  1.2682
15039SOL    HW251979   3.039  11.581   2.297  2.0715 -0.0497 -0.1471
15040SOL     OW51980   5.987   5.261   3.327  0.0275 -0.3417  0.1199
15040SOL    HW151981   6.044   5.232   3.256  1.8156  0.2585  1.2480
15040SOL    HW251982   5.944   5.339   3.293 -0.1605 -0.8170 -0.7536
15041SOL     OW51983   0.307   8.830   5.652 -0.6860 -0.7694 -0.1095
15041SOL    HW151984   0.221   8.865   5.677 -0.3775 -0.4306  0.5090
15041SOL    HW251985   0.290   8.778   5.573 -1.0577  1.3965 -1.5515
15042SOL     OW51986   7.188   1.775  12.365 -0.3036 -0.1529 -0.1517
15042SOL    HW151987   7.258   1.822  12.410 -0.7724  0.7324 -0.3261
15042SOL    HW251988   7.151   1.839  12.304 -1.6491 -0.4126  0.3605
15043SOL     OW51989   1.626   5.190   9.370  0.3602  0.2884 -0.1031
15043SOL    HW151990   1.700   5.144   9.411 -0.9303  0.3004  2.4262
15043SOL    HW251991   1.601   5.135   9.296  3.0402  0.4437 -1.2293
15044SOL     OW51992   6.865   2.297   8.272  0.0037  0.2115 -1.0231
15044SOL    HW151993   6.787   2.318   8.221 -0.5977 -0.3864 -0.3759
15044SOL    HW251994   6.831   2.275   8.359  1.0063  1.2850 -0.3263
15045SOL     OW51995   0.180   3.482   7.972 -0.5576 -0.0894  0.2409
15045SOL    HW151996   0.105   3.536   7.948 -1.3355 -1.0804  0.3845
15045SOL    HW251997   0.228   3.468   7.890  1.1897  2.9904  0.5832
15046SOL     OW51998   2.513  10.175  12.050  0.1562  0.1972 -0.3534
15046SOL    HW151999   2.600  10.195  12.018 -0.0238  0.9022 -0.4052
15046SOL    HW252000   2.512  10.204  12.141  0.9699 -2.6444  0.6836
15047SOL     OW52001   8.955  10.231   9.501  0.0487  0.5060  0.6924
15047SOL    HW152002   8.960  10.200   9.591  0.0855  0.3907  0.6513
15047SOL    HW252003   8.862  10.232   9.480 -0.0381  1.4717  1.0545
15048SOL     OW52004   8.775   8.435   0.571 -0.1851 -0.0933  1.1141
15048SOL    HW152005   8.772   8.340   0.566  4.2801 -0.4206 -4.5093
15048SOL    HW252006   8.701   8.464   0.517 -2.3130 -0.0253  3.8189
15049SOL     OW52007  12.139   1.209  11.635  0.4798  0.1881  0.1450
15049SOL    HW152008  12.061   1.220  11.689  0.6540 -1.0472  0.6910
15049SOL    HW252009  12.176   1.297  11.628 -0.5076  0.6548  0.5570
15050SOL     OW52010  11.630  10.956   6.948  0.3368 -0.2417  0.0346
15050SOL    HW152011  11.599  10.870   6.920  1.2909 -0.4771 -0.3491
15050SOL    HW252012  11.712  10.938   6.995  0.9615  0.4939 -0.7272
15051SOL     OW52013  12.470   2.599  12.235  0.2284 -0.4704  0.4482
15051SOL    HW152014  12.473   2.504  12.243 -0.3814 -0.5402 -0.0962
15051SOL    HW252015  12.526   2.620  12.161  1.4466 -0.2826  1.3985
15052SOL     OW52016   0.420   7.650   6.818 -0.7150 -0.1310 -0.3748
15052SOL    HW152017   0.436   7.572   6.766  1.6159 -0.0436  0.1238
15052SOL    HW252018   0.391   7.616   6.903 -0.6241 -0.4060 -0.4522
15053SOL     OW52019   4.259   3.481  11.646  0.4352 -0.3897  0.1588
15053SOL    HW152020   4.249   3.484  11.551 -0.0654  0.5579  0.2367
15053SOL    HW252021   4.290   3.392  11.663  1.0681 -0.4057 -0.9388
15054SOL     OW52022   5.558   3.401   8.537  0.3126  0.4669 -0.1551
15054SOL    HW152023   5.555   3.492   8.506 -1.5699  1.5683  2.8456
15054SOL    HW252024   5.598   3.407   8.624  2.1669 -1.9440 -0.7442
15055SOL     OW52025  11.370   7.650  11.298  0.3620  0.0604  0.1905
15055SOL    HW152026  11.365   7.745  11.298  0.1168  0.0562 -1.2006
15055SOL    HW252027  11.431   7.630  11.370  2.0900  1.3714 -0.8287
15056SOL     OW52028   1.997   5.121   2.780 -0.4245 -0.0731 -0.0705
15056SOL    HW152029   1.909   5.117   2.817 -0.7572  1.6089 -0.6052
15056SOL    HW252030   2.054   5.140   2.854 -0.9271  1.9577 -0.1459
15057SOL     OW52031  10.944  11.842   6.339 -0.3571 -0.0674 -0.2976
15057SOL    HW152032  10.954  11.831   6.244 -1.6447 -1.3689 -0.3353
15057SOL    HW252033  10.853  11.868   6.350  0.4301  2.6277  0.4673
15058SOL     OW52034   4.126   3.748  11.629 -0.1631  0.2910  0.1688
15058SOL    HW152035   4.103   3.779  11.542  1.1780  1.4062  0.1776
15058SOL    HW252036   4.165   3.662  11.615  1.3710  1.0742 -0.5044
15059SOL     OW52037   7.891  10.196  10.319 -0.3171  0.7410 -0.1499
15059SOL    HW152038   7.975  10.170  10.281 -0.4235 -0.3223  0.3170
15059SOL    HW252039   7.913  10.228  10.406 -0.2783  1.4837 -0.4290
15060SOL     OW52040   8.073   3.228   3.663 -0.3427  0.2223 -0.4714
15060SOL    HW152041   8.147   3.279   3.629  0.4393  0.4665  1.4869
15060SOL    HW252042   8.004   3.292   3.676  0.4648  0.7600  1.4830
15061SOL     OW52043   6.276   8.637   0.525 -0.3922  0.2721 -0.7017
15061SOL    HW152044   6.188   8.600   0.517 -0.3279  0.3544 -2.0171
15061SOL    HW252045   6.334   8.570   0.489  0.1464  0.0581  0.5032
15062SOL     OW52046   2.681   7.007   8.625 -0.3758  0.5316 -0.3089
15062SOL    HW152047   2.668   7.102   8.614 -1.5610  0.3542 -0.6369
15062SOL    HW252048   2.758   7.000   8.681 -1.1333  1.7565  0.9796
15063SOL     OW52049  11.061  10.710   8.766  0.3222 -0.2744  0.5594
15063SOL    HW152050  11.015  10.780   8.720  1.9612  0.1608 -0.5266
15063SOL    HW252051  11.082  10.646   8.698  0.5649 -0.8735  1.1792
15064SOL     OW52052  11.580   0.121   1.337 -0.1368  0.3055 -0.5985
15064SOL    HW152053  11.502   0.093   1.288 -0.5974 -1.6820  1.0749
15064SOL    HW252054  11.551   0.199   1.384 -0.8470  0.1167 -0.6987
15065SOL     OW52055   5.948   3.041  11.625  0.3832 -0.2166  0.4128
15065SOL    HW152056   5.866   3.056  11.671 -1.2624  2.9101 -2.9785
15065SOL    HW252057   6.013   3.091  11.674 -0.7419  0.9240  0.7917
15066SOL     OW52058   7.141   9.119   3.815  0.4639 -0.3411  0.3172
15066SOL    HW152059   7.084   9.161   3.751  0.0887 -1.0151  0.2009
15066SOL    HW252060   7.149   9.183   3.886  1.9058  0.9541 -0.9154
15067SOL     OW52061   4.789   0.852   1.952 -0.3071  0.0267  0.2468
15067SOL    HW152062   4.855   0.921   1.952  0.0025 -0.2188  1.9749
15067SOL    HW252063   4.829   0.780   1.902  0.7498 -0.0974  1.2187
15068SOL     OW52064   9.726  11.047  11.518 -0.3211  0.0161  0.0263
15068SOL    HW152065   9.811  11.066  11.559  0.4080  0.0358 -1.4385
15068SOL    HW252066   9.673  11.124  11.538 -0.9059 -1.0145  3.0894
15069SOL     OW52067  12.255   7.798   5.436 -0.2590  0.3882  0.0057
15069SOL    HW152068  12.254   7.811   5.341 -2.4837  1.7013  0.1419
15069SOL    HW252069  12.288   7.881   5.471 -0.1881  0.1911  0.4113
15070SOL     OW52070   6.259   8.290  11.295 -0.0199  0.4031 -0.1018
15070SOL    HW152071   6.164   8.291  11.300  0.0454  1.2969  1.4294
15070SOL    HW252072   6.284   8.205  11.332 -0.1893  0.8373  1.0700
15071SOL     OW52073  10.262   0.278   4.783  0.1330 -0.0757  0.1864
15071SOL    HW152074  10.204   0.259   4.856 -0.3634 -0.4104 -0.2941
15071SOL    HW252075  10.262   0.198   4.730  1.2790 -0.2080  0.3396
15072SOL     OW52076   6.413   0.493   0.125 -0.5633 -0.4959 -0.4574
15072SOL    HW152077   6.354   0.568   0.130 -0.1660 -0.2166  0.3415
15072SOL    HW252078   6.469   0.511   0.050 -1.9974 -1.1667 -1.7364
15073SOL     OW52079   4.389   8.451   6.948 -0.7079 -0.3980 -0.1828
15073SOL    HW152080   4.299   8.454   6.914 -0.8624 -0.1777  0.2309
15073SOL    HW252081   4.416   8.543   6.952 -0.9591 -0.3460  0.9416
15074SOL     OW52082   6.003   0.583   3.350  0.9155  0.1455  0.4923
15074SOL    HW152083   5.972   0.672   3.367  1.0624  0.4756 -0.8363
15074SOL    HW252084   6.098   0.589   3.355  1.0240  0.4863 -1.3220
15075SOL     OW52085   0.568   6.036   7.854  0.9235 -0.6833 -0.2978
15075SOL    HW152086   0.486   6.086   7.844  0.9485 -0.4675  0.4987
15075SOL    HW252087   0.610   6.043   7.769  0.4602 -0.1564 -0.4948
15076SOL     OW52088   4.862   1.120   2.230 -0.5190 -0.4099  0.2134
15076SOL    HW152089   4.796   1.103   2.298 -1.3923 -0.9811 -0.7335
15076SOL    HW252090   4.927   1.175   2.272 -1.4170 -0.1442  1.3052
15077SOL     OW52091   2.512   3.666   5.541  0.8160 -0.0377  0.0550
15077SOL    HW152092   2.518   3.691   5.633  1.9248 -2.2084  0.6390
15077SOL    HW252093   2.426   3.699   5.513  0.1444  0.0619  2.0694
15078SOL     OW52094  11.527   2.097   2.736  0.2388  0.5934  0.5894
15078SOL    HW152095  11.571   2.018   2.704 -2.4402 -0.7284 -0.0941
15078SOL    HW252096  11.493   2.140   2.658  0.1880  1.5150  1.1008
15079SOL     OW52097  11.621   2.518   5.476 -1.3086 -0.1848 -1.1810
15079SOL    HW152098  11.547   2.578   5.489 -0.0554  1.0186  0.6835
15079SOL    HW252099  11.625   2.466   5.556  0.8450  0.8995 -0.5267
15080SOL     OW52100   4.113   0.465   0.579  0.6417 -0.1966  0.4007
15080SOL    HW152101   4.169   0.389   0.566  0.0746 -0.2978 -1.8258
15080SOL    HW252102   4.029   0.429   0.607  1.0131 -0.1854  1.6115
15081SOL     OW52103   6.981   5.445   0.706 -0.0104 -0.1460  0.4888
15081SOL    HW152104   6.891   5.423   0.681 -0.4893  0.4794  1.6057
15081SOL    HW252105   6.971   5.504   0.780  1.3531 -1.0889  1.4488
15082SOL     OW52106   9.375   7.840   2.413  0.1436  0.0400 -0.3675
15082SOL    HW152107   9.360   7.801   2.328 -1.6254  0.6101 -0.3615
15082SOL    HW252108   9.302   7.809   2.467 -0.7618  2.4515 -0.0878
15083SOL     OW52109   9.925   2.702  11.077  0.5220  0.1199  0.2823
15083SOL    HW152110   9.843   2.750  11.064  0.9523  0.6789 -0.4395
15083SOL    HW252111   9.963   2.741  11.156  1.1713  1.4488 -0.6392
15084SOL     OW52112  12.040  12.055   9.564 -0.1591 -0.3024  0.0951
15084SOL    HW152113  12.021  12.145   9.592  1.9634  0.9070 -1.9746
15084SOL    HW252114  12.000  12.000   9.631 -3.7577  2.0594  0.1844
15085SOL     OW52115   1.088   4.153   4.920 -0.9291 -0.2164 -0.0252
15085SOL    HW152116   1.042   4.071   4.900  0.4055 -1.0036  0.0695
15085SOL    HW252117   1.114   4.187   4.834 -1.2290 -0.0261 -0.0444
15086SOL     OW52118   8.196  10.640   6.132  0.0179  0.6345 -0.0635
15086SOL    HW152119   8.280  10.656   6.089  0.0141 -0.1247 -0.3623
15086SOL    HW252120   8.168  10.554   6.100  0.6956 -0.6630  2.5553
15087SOL     OW52121   5.556  10.166   7.796 -0.1969  0.0665  0.0341
15087SOL    HW152122   5.582  10.243   7.845  1.3553  0.9319 -1.9916
15087SOL    HW252123   5.483  10.195   7.742 -0.4738 -0.2546  0.2327
15088SOL     OW52124   6.831  12.228   6.439  0.4305 -0.6098 -0.5631
15088SOL    HW152125   6.885  12.224   6.361 -2.0019 -0.9864 -2.3329
15088SOL    HW252126   6.813  12.321   6.451 -1.2345 -0.7007 -2.0178
15089SOL     OW52127   6.758   3.277  12.399  0.0254 -0.0259  0.1084
15089SOL    HW152128   6.674   3.310  12.367 -0.5449 -1.3101  0.2255
15089SOL    HW252129   6.824   3.331  12.355 -0.8494  1.4377  0.5012
15090SOL     OW52130   4.052   3.540   5.276 -0.5265  0.6445  0.3901
15090SOL    HW152131   4.112   3.467   5.260  2.2933  3.2104 -1.9266
15090SOL    HW252132   4.077   3.573   5.362  1.3205  1.5229 -0.4388
15091SOL     OW52133   1.302   1.894   2.046 -0.1769  0.1617 -0.0085
15091SOL    HW152134   1.224   1.949   2.055 -1.1961 -1.1905 -0.1979
15091SOL    HW252135   1.323   1.867   2.135 -0.4498 -0.1566 -0.0383
15092SOL     OW52136   7.380  10.435  11.317  0.2760 -0.2880 -0.6807
15092SOL    HW152137   7.419  10.453  11.402 -1.2933 -2.9470  0.7273
15092SOL    HW252138   7.454  10.408  11.262  1.2119  0.8546 -0.0471
15093SOL     OW52139   8.970   2.948   7.258 -0.2982  0.0091  0.1417
15093SOL    HW152140   8.998   3.030   7.298  0.5105 -0.0237 -0.3284
15093SOL    HW252141   8.883   2.966   7.223 -0.2125  0.5998  0.2322
15094SOL     OW52142   4.924   2.068   4.512 -0.2109 -0.3038 -0.9292
15094SOL    HW152143   4.892   2.028   4.431 -0.8391  0.7992 -1.2405
15094SOL    HW252144   4.885   2.155   4.513 -0.4203 -0.3848  0.6915
15095SOL     OW52145   6.678   5.473  11.865 -0.5214 -0.0104 -0.2488
15095SOL    HW152146   6.682   5.406  11.796 -1.4741  0.6451 -0.9726
15095SOL    HW252147   6.769   5.499  11.878 -0.2770 -0.5095 -0.8912
15096SOL     OW52148   4.977  11.650   2.346 -0.1300  0.3905 -0.1846
15096SOL    HW152149   4.991  11.566   2.301 -1.0000 -0.6734  1.4107
15096SOL    HW252150   4.910  11.694   2.295 -0.4824 -0.3952 -0.4168
15097SOL     OW52151   1.675   6.455   5.216 -0.4776 -0.2438 -0.0274
15097SOL    HW152152   1.769   6.461   5.235 -0.5246 -1.2995  0.6276
15097SOL    HW252153   1.639   6.537   5.249  0.2258  0.2207 -0.3819
15098SOL     OW52154   3.351   8.042   0.207 -0.0702  0.1183 -0.3638
15098SOL    HW152155   3.343   8.122   0.156  0.5299 -0.1756 -0.9280
15098SOL    HW252156   3.439   8.009   0.188  1.8715  2.0966  3.9545
15099SOL     OW52157  11.036   7.759  10.683 -0.2199 -0.1078 -0.1479
15099SOL    HW152158  11.073   7.799  10.761  0.8228  0.1618 -0.7515
15099SOL    HW252159  10.956   7.809  10.665  0.0083  0.3997  0.2371
15100SOL     OW52160  11.617   5.589   2.493 -0.6302 -0.2223 -0.3355
15100SOL    HW152161  11.596   5.628   2.578 -1.8432 -1.5979  0.0273
15100SOL    HW252162  11.538   5.542   2.468  0.4242 -1.5863 -1.2295
15101SOL     OW52163   6.023   6.385   5.595  0.3742 -0.3039  0.2012
15101SOL    HW152164   6.020   6.298   5.555  0.0336  0.1408 -0.7751
15101SOL    HW252165   5.985   6.373   5.682 -0.1764 -1.0189 -0.1320
15102SOL     OW52166   3.465   2.520   1.581  0.5493  0.3717  0.6105
15102SOL    HW152167   3.380   2.525   1.538  1.0501  0.0548 -0.4463
15102SOL    HW252168   3.506   2.605   1.565  1.5369 -0.3948 -1.3192
15103SOL     OW52169   0.740   9.948   5.641 -0.6202  0.1448  0.2663
15103SOL    HW152170   0.684   9.888   5.690 -0.8711 -0.5363 -0.8197
15103SOL    HW252171   0.684  10.024   5.624 -1.7001 -1.0381 -1.8853
15104SOL     OW52172   1.742   3.702   7.027  0.5432  0.3011  0.2846
15104SOL    HW152173   1.778   3.782   7.065  0.0946 -0.0237  1.4409
15104SOL    HW252174   1.729   3.644   7.102  2.0840 -1.3697 -0.6680
15105SOL     OW52175   2.910   9.089  10.220  0.1201  0.6172  0.1678
15105SOL    HW152176   2.857   9.097  10.299  0.9323  0.5285  0.7406
15105SOL    HW252177   2.993   9.131  10.243 -0.0325  1.6401 -1.0321
15106SOL     OW52178   9.701   9.896   8.740 -0.2606 -0.3730  0.1674
15106SOL    HW152179   9.607   9.910   8.730 -0.5457 -2.8250 -1.6025
15106SOL    HW252180   9.717   9.812   8.697  2.4978 -0.8470  1.8877
15107SOL     OW52181   3.064   4.636   8.349 -0.9564 -0.1517 -0.0316
15107SOL    HW152182   2.978   4.667   8.323 -0.2297  0.7923 -1.4566
15107SOL    HW252183   3.049   4.587   8.429 -2.8701 -0.3626 -0.4724
15108SOL     OW52184  10.026   5.520  12.393 -0.4980  0.6879  0.3264
15108SOL    HW152185   9.989   5.607  12.410 -1.5801  0.1633  0.6941
15108SOL    HW252186  10.089   5.506  12.463  1.0513  1.9174 -0.7391
15109SOL     OW52187  12.139   4.285   0.189 -0.0567 -0.0648 -0.4086
15109SOL    HW152188  12.099   4.313   0.271  0.4482  1.5272 -0.6692
15109SOL    HW252189  12.230   4.266   0.212 -0.3775 -1.4882 -0.2486
15110SOL     OW52190   4.721   4.648   2.780 -0.3742 -0.0490  0.1523
15110SOL    HW152191   4.626   4.642   2.795 -0.8567  1.5262 -1.8132
15110SOL    HW252192   4.758   4.664   2.866 -1.9916  0.2306  0.8438
15111SOL     OW52193  12.211  10.817   7.342  0.3051  0.1455 -0.0674
15111SOL    HW152194  12.144  10.825   7.274 -0.5761  1.9843  0.9753
15111SOL    HW252195  12.173  10.758   7.407 -0.2569  1.0475  0.4374
15112SOL     OW52196   5.705   6.672   7.548  0.2352 -0.6970 -0.3117
15112SOL    HW152197   5.724   6.615   7.622 -0.7595  1.4363  1.7440
15112SOL    HW252198   5.618   6.645   7.519  0.2080 -0.9221 -0.0280
15113SOL     OW52199  10.555   3.845   0.236  0.5036 -0.4752  0.0217
15113SOL    HW152200  10.568   3.768   0.181  0.7853  0.3346 -1.0973
15113SOL    HW252201  10.464   3.872   0.219 -0.1800 -1.5293  1.7396
15114SOL     OW52202   1.473   4.157   6.901  0.2445 -0.3813 -0.3473
15114SOL    HW152203   1.440   4.240   6.868  0.4381 -0.5656 -1.0268
15114SOL    HW252204   1.400   4.120   6.951  0.8440  1.1541  1.7760
15115SOL     OW52205  10.767   6.335   4.742  0.0370 -0.1696 -0.1949
15115SOL    HW152206  10.700   6.403   4.751  0.7616  0.5739 -0.2172
15115SOL    HW252207  10.834   6.375   4.687 -0.6639 -1.8202 -2.3650
15116SOL     OW52208   0.318  10.918   8.975  0.2062 -0.1359  0.3471
15116SOL    HW152209   0.411  10.899   8.957 -0.0416 -1.3056  0.2366
15116SOL    HW252210   0.321  10.980   9.048  1.0745 -0.5726  0.7095
15117SOL     OW52211  11.770   9.961   9.879  0.4811  0.0425 -0.6894
15117SOL    HW152212  11.790  10.042   9.832 -0.9345  0.5981 -0.3909
15117SOL    HW252213  11.803   9.976   9.967 -1.6538  1.2191 -0.0104
15118SOL     OW52214   6.928   5.910   8.534 -0.3455 -0.1257 -0.7773
15118SOL    HW152215   6.936   5.945   8.445 -0.4783 -0.0012 -0.7422
15118SOL    HW252216   6.835   5.920   8.556 -0.1570  0.6778 -0.2892
15119SOL     OW52217   5.164   7.509   9.576 -0.3778 -0.3393  0.0486
15119SOL    HW152218   5.144   7.538   9.664  0.4748  3.1171 -0.7358
15119SOL    HW252219   5.093   7.543   9.522  0.4890  0.0263 -0.9165
15120SOL     OW52220   7.629   4.422   3.055  0.1566  0.6715  0.0178
15120SOL    HW152221   7.625   4.345   2.998  1.7447  0.5068  0.1100
15120SOL    HW252222   7.668   4.391   3.136 -0.0693  1.3810  0.4094
15121SOL     OW52223  12.137  11.121  12.080  0.0228 -0.4227 -0.2686
15121SOL    HW152224  12.062  11.166  12.119  0.2802 -1.1093  1.0728
15121SOL    HW252225  12.107  11.030  12.068  0.0770 -0.3101 -1.3578
15122SOL     OW52226  12.348   9.558   8.085  0.0412 -0.1251  1.0725
15122SOL    HW152227  12.291   9.482   8.069 -1.2583  0.8868  0.7630
15122SOL    HW252228  12.436   9.522   8.079 -0.5262 -1.4798  0.2190
15123SOL     OW52229   0.185   0.134   1.008 -0.2272  0.3277  0.2348
15123SOL    HW152230   0.245   0.066   1.038 -1.2351 -1.0912 -0.8421
15123SOL    HW252231   0.210   0.211   1.058  1.7154 -0.5097  0.6711
15124SOL     OW52232   3.911  11.995   3.561 -0.0837  0.0725 -0.4414
15124SOL    HW152233   3.825  11.974   3.596 -0.1734  1.2009  0.0644
15124SOL    HW252234   3.954  11.910   3.548 -1.1829 -0.4829 -0.4933
15125SOL     OW52235   2.346   6.074   7.751 -0.5247 -0.2386  0.2447
15125SOL    HW152236   2.273   6.135   7.766 -0.9778 -0.8322  0.5116
15125SOL    HW252237   2.355   6.028   7.835  1.2193  0.9317  0.7528
15126SOL     OW52238   8.178   2.858   9.984  0.0871  0.9094  0.2364
15126SOL    HW152239   8.195   2.791  10.049 -1.4846 -0.5902 -0.8225
15126SOL    HW252240   8.177   2.811   9.900 -1.3204  2.1825 -0.5154
15127SOL     OW52241  10.607   6.449   7.630  0.1393  0.1389  0.4720
15127SOL    HW152242  10.662   6.501   7.688  0.2734  1.8799 -1.1314
15127SOL    HW252243  10.622   6.485   7.543 -1.7259 -0.9171 -0.3603
15128SOL     OW52244   4.279  11.862   0.700  0.3274  0.2244  0.2389
15128SOL    HW152245   4.193  11.893   0.671 -0.2845 -0.4176  1.3091
15128SOL    HW252246   4.337  11.937   0.689 -0.6783  1.1049  0.7992
15129SOL     OW52247   7.845   0.054   3.660 -0.3341  0.4135 -0.6224
15129SOL    HW152248   7.895   0.048   3.578 -0.8002  1.5098 -1.0022
15129SOL    HW252249   7.755   0.032   3.636 -0.1013 -1.5078  0.0538
15130SOL     OW52250   7.716   0.673   4.909  0.1430 -0.0235 -0.1830
15130SOL    HW152251   7.801   0.712   4.928  0.3804 -0.8709  0.5770
15130SOL    HW252252   7.729   0.629   4.825  0.1512  0.6943 -0.5666
15131SOL     OW52253   7.770   8.744   5.615 -0.1559 -0.1802 -0.7513
15131SOL    HW152254   7.752   8.757   5.708 -0.5808 -0.3555 -0.8052
15131SOL    HW252255   7.832   8.671   5.613 -0.6159 -0.5829 -0.6322
15132SOL     OW52256   0.400  11.459   7.789 -0.9121  0.4617 -0.2238
15132SOL    HW152257   0.412  11.374   7.747 -0.0389 -0.1025  1.0680
15132SOL    HW252258   0.411  11.523   7.719  0.1381 -0.4370 -0.9200
15133SOL     OW52259   3.715  12.361   8.596  0.1419  0.3979  0.1503
15133SOL    HW152260   3.786  12.340   8.534  0.9667  1.5496  0.6740
15133SOL    HW252261   3.671  12.277   8.611 -0.0211  0.0586 -1.8987
15134SOL     OW52262  10.004   5.790   0.107  0.0546 -0.3556  0.0049
15134SOL    HW152263  10.083   5.838   0.134  0.6208  0.1600 -2.2761
15134SOL    HW252264   9.950   5.785   0.186  1.4891  1.0606  1.1486
15135SOL     OW52265   0.640   4.956   4.189 -0.1647 -0.0874  1.0489
15135SOL    HW152266   0.570   4.998   4.240 -1.1231 -2.2522  1.6188
15135SOL    HW252267   0.604   4.949   4.101 -0.0393  0.1931  0.9747
15136SOL     OW52268   4.918   9.678   8.226  0.1178 -0.3696  0.3087
15136SOL    HW152269   4.964   9.639   8.152  0.4657  0.0010  0.3247
15136SOL    HW252270   4.916   9.609   8.292 -0.7255 -0.9031 -0.2620
15137SOL     OW52271   1.284   2.858   3.211 -0.0029 -0.4511 -0.0898
15137SOL    HW152272   1.225   2.787   3.187 -0.4837 -0.4381  1.0047
15137SOL    HW252273   1.303   2.844   3.303  1.6288 -0.3836 -0.3779
15138SOL     OW52274   3.355  11.589   0.072 -0.0717  0.1300  0.3916
15138SOL    HW152275   3.338  11.501   0.039 -1.3185  0.9783 -1.3603
15138SOL    HW252276   3.337  11.583   0.166  1.3379 -1.8172  0.5880
15139SOL     OW52277   5.187   9.612   3.671  0.1813  0.0650 -1.0878
15139SOL    HW152278   5.245   9.682   3.639  2.0932  0.8234  3.2042
15139SOL    HW252279   5.243   9.535   3.676 -0.5911 -0.5286 -1.4423
15140SOL     OW52280   5.364  10.355   8.545 -0.7143  0.3739 -0.3142
15140SOL    HW152281   5.340  10.410   8.470 -0.3096 -0.4779 -1.0910
15140SOL    HW252282   5.306  10.279   8.538 -0.4242  0.1169  0.0393
15141SOL     OW52283   1.699  12.062   7.388 -0.3906 -0.8535  0.4329
15141SOL    HW152284   1.774  12.112   7.419 -1.9380  1.4156  0.7357
15141SOL    HW252285   1.663  12.022   7.466 -1.3602  0.7635  0.8613
15142SOL     OW52286   5.625   3.415   8.786 -0.1241  0.0656  0.1896
15142SOL    HW152287   5.671   3.489   8.824 -0.1108 -0.1817  0.6666
15142SOL    HW252288   5.681   3.340   8.803 -1.2311 -0.4459  1.8872
15143SOL     OW52289  11.327  10.300   4.529  0.6315 -0.5046 -0.3135
15143SOL    HW152290  11.380  10.253   4.464  3.1574  1.2170  0.3423
15143SOL    HW252291  11.335  10.392   4.504 -2.5335 -0.1602 -0.4115
15144SOL     OW52292   8.938   1.952   4.134 -0.5553  0.1802  0.2358
15144SOL    HW152293   8.883   1.900   4.193 -1.3452  1.5934  0.7793
15144SOL    HW252294   8.878   1.983   4.066 -0.7048  2.5206  1.3464
15145SOL     OW52295   1.355   4.452   1.974 -0.4434 -0.8366  0.0926
15145SOL    HW152296   1.350   4.401   1.893  2.3946 -2.0616  0.5531
15145SOL    HW252297   1.301   4.405   2.036  0.2086 -1.9563 -0.1641
15146SOL     OW52298   4.173   5.299   9.478 -0.0762  0.2234  0.2762
15146SOL    HW152299   4.262   5.299   9.442 -0.0531  0.5594  0.3302
15146SOL    HW252300   4.117   5.298   9.400 -0.0269 -0.0483  0.2419
15147SOL     OW52301   6.883   7.249   9.501 -0.2028 -0.2486 -0.6476
15147SOL    HW152302   6.937   7.290   9.433 -0.3760  0.3972 -0.3997
15147SOL    HW252303   6.934   7.173   9.528  0.8313  0.6125 -0.0724
15148SOL     OW52304   0.289   3.222   3.159  0.5651  0.2614 -0.2784
15148SOL    HW152305   0.246   3.171   3.090  0.0685 -0.4748  0.5575
15148SOL    HW252306   0.382   3.200   3.150  0.6137  0.7961 -1.2136
15149SOL     OW52307   3.910   4.615  11.704 -0.0008  0.4868 -0.4224
15149SOL    HW152308   3.857   4.539  11.681  0.7373  0.1076 -0.8858
15149SOL    HW252309   3.897   4.626  11.798  0.2793 -0.5256 -0.2550
15150SOL     OW52310   3.242   3.576   2.503  0.5975 -0.0224  0.2482
15150SOL    HW152311   3.279   3.490   2.524  0.6026 -0.0641  0.0684
15150SOL    HW252312   3.303   3.614   2.441  0.8439  0.3117  0.6934
15151SOL     OW52313  10.224   4.140   9.907  0.3344 -0.8244  0.1910
15151SOL    HW152314  10.276   4.159   9.829  0.8734  1.5576  1.0450
15151SOL    HW252315  10.178   4.058   9.886  1.6420 -1.0815 -1.9850
15152SOL     OW52316   4.490   6.801   2.865  0.4652  0.0767 -0.5432
15152SOL    HW152317   4.554   6.731   2.854 -1.0693 -1.3200 -1.1258
15152SOL    HW252318   4.541   6.877   2.892  2.5321 -0.5595 -2.3884
15153SOL     OW52319   4.076   9.037   7.393  0.7152  0.0787  0.4197
15153SOL    HW152320   3.981   9.031   7.400  0.5781  1.8024  0.5832
15153SOL    HW252321   4.103   8.956   7.349 -0.7985 -0.5028  0.5233
15154SOL     OW52322  11.711   1.241  10.728 -0.0651 -0.3189 -0.4209
15154SOL    HW152323  11.633   1.218  10.779  0.4138 -0.8227  0.0923
15154SOL    HW252324  11.727   1.332  10.749 -1.0453  0.0725 -1.2422
15155SOL     OW52325   2.009   4.254   8.681  0.4105  0.2642 -0.3418
15155SOL    HW152326   2.028   4.347   8.695 -0.2508  0.4667 -0.7315
15155SOL    HW252327   2.080   4.224   8.625  1.7008  0.0460  1.3382
15156SOL     OW52328  11.215  10.725   3.640 -0.6626 -0.0821 -0.4080
15156SOL    HW152329  11.123  10.700   3.649 -0.3792 -1.3149 -0.7164
15156SOL    HW252330  11.215  10.799   3.579 -1.4223 -0.2879 -0.6657
15157SOL     OW52331   8.532   1.373   7.962 -0.8153  0.2167  0.1301
15157SOL    HW152332   8.564   1.463   7.972 -4.2144  1.5441  0.3303
15157SOL    HW252333   8.585   1.322   8.023  1.2342  2.0335 -0.0004
15158SOL     OW52334   9.412   3.048  10.010 -0.1338 -0.1611 -0.2169
15158SOL    HW152335   9.505   3.049  10.034 -0.0661 -0.5099 -0.4456
15158SOL    HW252336   9.407   3.106   9.934  0.2571 -1.5777 -1.3998
15159SOL     OW52337  12.164   9.916   0.284 -0.2252  0.3966  0.4576
15159SOL    HW152338  12.165   9.824   0.312  0.1920  0.4323  0.5588
15159SOL    HW252339  12.254   9.946   0.296 -0.2064  0.6265 -0.2145
15160SOL     OW52340  11.024   8.483   6.717 -0.0996  0.3131 -0.2304
15160SOL    HW152341  11.014   8.430   6.638 -1.1823  1.6703 -1.0597
15160SOL    HW252342  10.986   8.431   6.787 -2.0612  0.3531 -1.1957
15161SOL     OW52343   8.634   9.194   8.679  0.0018 -0.2247  0.1352
15161SOL    HW152344   8.670   9.221   8.594 -0.2874  0.6137  0.2688
15161SOL    HW252345   8.580   9.118   8.658  0.3539 -0.3489 -0.3538
15162SOL     OW52346   8.615  12.166   6.609 -0.0335 -0.0905  0.2550
15162SOL    HW152347   8.680  12.237   6.607  2.1189 -1.9113 -2.3331
15162SOL    HW252348   8.545  12.197   6.551  1.4290 -0.3908 -1.8044
15163SOL     OW52349   1.560   6.350   0.507 -0.8993  0.1068  0.3155
15163SOL    HW152350   1.598   6.281   0.451 -4.3927 -1.1536 -0.8008
15163SOL    HW252351   1.555   6.426   0.450 -2.0704 -0.4161 -0.3216
15164SOL     OW52352   6.080   2.794   3.266  0.0473  0.4019  0.3233
15164SOL    HW152353   6.062   2.780   3.359  2.0338  0.2493  0.7301
15164SOL    HW252354   6.082   2.889   3.255 -2.6765  0.4730 -0.1440
15165SOL     OW52355   2.892   8.465   2.612  0.3135 -0.0627  0.2170
15165SOL    HW152356   2.833   8.474   2.537 -1.5451  2.7526  1.8342
15165SOL    HW252357   2.883   8.373   2.638 -0.7977 -0.5217 -1.5673
15166SOL     OW52358   7.667   7.764   9.233  0.5562 -0.0998 -0.1907
15166SOL    HW152359   7.708   7.747   9.319  0.7212  0.0038 -0.2496
15166SOL    HW252360   7.712   7.704   9.173 -1.0608 -1.7845  0.1869
15167SOL     OW52361   5.066   1.833  11.927 -0.3489  0.1721 -0.3046
15167SOL    HW152362   5.004   1.840  12.000 -0.8876  1.7052 -0.8621
15167SOL    HW252363   5.148   1.803  11.968 -1.3157 -1.5397  0.5022
15168SOL     OW52364   4.839   2.358   1.719  0.5394  0.3422  0.8035
15168SOL    HW152365   4.781   2.352   1.795  1.4769 -1.0446  1.4353
15168SOL    HW252366   4.917   2.309   1.743  0.9357  0.0124 -0.9927
15169SOL     OW52367   9.400  12.137   0.543  0.1232 -0.0764  0.3388
15169SOL    HW152368   9.402  12.153   0.449  0.6490  1.8592  0.6401
15169SOL    HW252369   9.307  12.126   0.563  0.0101 -0.5481 -0.4045
15170SOL     OW52370  11.799   5.979   2.328 -0.0419 -0.3152  0.3943
15170SOL    HW152371  11.785   6.037   2.254 -1.5178 -0.6015  0.4321
15170SOL    HW252372  11.851   5.906   2.293  0.1033  0.0334 -0.1150
15171SOL     OW52373   1.790  11.551   0.943  0.2921 -0.0807  0.5732
15171SOL    HW152374   1.720  11.537   0.878  0.4329 -1.6545  0.7133
15171SOL    HW252375   1.824  11.638   0.923 -0.2576 -0.1707 -0.9102
15172SOL     OW52376   8.944   6.903   9.132  0.4517  0.2501  0.4144
15172SOL    HW152377   9.005   6.974   9.113  1.4276 -0.8170 -0.5854
15172SOL    HW252378   8.858   6.942   9.116  0.9719  1.1492 -0.3260
15173SOL     OW52379   3.061   7.149   4.119  0.7733 -0.5958 -0.0342
15173SOL    HW152380   3.027   7.223   4.169  2.4315  0.1895 -0.0175
15173SOL    HW252381   2.986   7.091   4.109 -1.5424  2.4970 -2.8576
15174SOL     OW52382   8.592  11.651   5.205 -0.0833 -0.1034 -0.1823
15174SOL    HW152383   8.659  11.597   5.246 -0.3305  1.0309  1.8616
15174SOL    HW252384   8.603  11.737   5.245 -3.2698 -0.0712  0.9466
15175SOL     OW52385  11.708   3.684   2.466 -0.1328  0.6782  0.2958
15175SOL    HW152386  11.768   3.661   2.537 -0.6798 -0.5102  0.3960
15175SOL    HW252387  11.745   3.640   2.389 -0.8706 -0.0793  0.3639
15176SOL     OW52388  10.404   1.480   5.992 -0.0113  0.0407 -0.1074
15176SOL    HW152389  10.423   1.423   6.067 -0.0991  0.6800  0.4165
15176SOL    HW252390  10.323   1.446   5.955  1.1261 -1.5754 -1.2207
15177SOL     OW52391   0.179   8.162   3.525 -0.1170  0.2551 -0.0518
15177SOL    HW152392   0.231   8.226   3.476  0.2970 -0.5052 -0.6162
15177SOL    HW252393   0.244   8.104   3.564 -0.4024  1.1771  1.9197
15178SOL     OW52394   5.911   6.979   6.714  0.0278 -0.0204  0.0428
15178SOL    HW152395   5.845   6.978   6.783 -0.1538 -1.6514 -0.1074
15178SOL    HW252396   5.909   7.069   6.680 -2.1029 -0.0146  0.0490
15179SOL     OW52397   3.717   5.461   0.664 -0.2122 -0.1032 -0.2633
15179SOL    HW152398   3.667   5.420   0.735  0.1421  0.4516  0.3223
15179SOL    HW252399   3.757   5.388   0.617 -2.5256 -0.6567 -1.5150
15180SOL     OW52400   8.386   1.642  11.274  0.1287 -0.1315 -0.0398
15180SOL    HW152401   8.343   1.618  11.192 -1.7025  0.4784  0.6864
15180SOL    HW252402   8.403   1.736  11.266 -1.4441  0.2641  0.8208
15181SOL     OW52403   0.491   2.246   8.813  0.0658 -0.1258  0.1329
15181SOL    HW152404   0.463   2.262   8.902 -0.3559  0.0571 -0.0324
15181SOL    HW252405   0.570   2.193   8.822  0.9977  1.2722  0.6720
15182SOL     OW52406  10.911   5.175   9.221  0.4487 -0.3852 -0.5050
15182SOL    HW152407  10.976   5.229   9.265  1.2201 -0.8970 -1.0037
15182SOL    HW252408  10.828   5.199   9.263  1.0253 -0.1284  0.5243
15183SOL     OW52409   0.315   6.715   1.544  0.1294 -0.1491  0.1910
15183SOL    HW152410   0.306   6.806   1.573  0.0924 -0.4633  1.2164
15183SOL    HW252411   0.405   6.710   1.511  0.8097 -0.1805  1.9026
15184SOL     OW52412  10.567   9.123   2.032 -0.0262  0.1580  0.7719
15184SOL    HW152413  10.637   9.145   1.970 -0.3541  1.8869  0.9700
15184SOL    HW252414  10.605   9.140   2.118 -0.9530  2.0491  0.8481
15185SOL     OW52415   1.664   4.237   5.403 -0.6882  0.0922 -0.1441
15185SOL    HW152416   1.729   4.198   5.344  0.2768  0.1350  0.8557
15185SOL    HW252417   1.581   4.227   5.357  0.1080  0.6888 -1.7811
15186SOL     OW52418   3.980   8.744   7.566  0.0689 -0.2571  0.3285
15186SOL    HW152419   3.962   8.663   7.517  0.1256 -0.6937  1.0199
15186SOL    HW252420   3.901   8.797   7.556  0.3014 -0.0854 -0.7307
15187SOL     OW52421  11.199   8.143  11.425 -0.9051 -0.2622 -0.4235
15187SOL    HW152422  11.272   8.153  11.486  0.7952 -1.1096 -2.2046
15187SOL    HW252423  11.186   8.231  11.390 -1.5259  0.1181  0.7121
15188SOL     OW52424   3.309   8.620   0.573  0.1758 -0.0994 -0.4500
15188SOL    HW152425   3.242   8.590   0.635 -1.2641  4.3321  0.5083
15188SOL    HW252426   3.259   8.656   0.500  1.6688 -0.0357 -1.4661
15189SOL     OW52427   0.752   3.185   9.974  0.3452 -0.4977 -0.2324
15189SOL    HW152428   0.755   3.100  10.017 -1.4297 -0.9243 -0.8604
15189SOL    HW252429   0.686   3.175   9.906  1.3430  0.8802 -1.4736
15190SOL     OW52430   9.748   2.239  12.276 -0.4555 -0.4122 -0.1163
15190SOL    HW152431   9.752   2.324  12.320 -1.3055 -1.0614  1.2845
15190SOL    HW252432   9.674   2.195  12.316  0.3808 -2.0931 -0.3342
15191SOL     OW52433   9.637   2.164   4.023 -0.1890  0.2959 -0.1651
15191SOL    HW152434   9.613   2.245   3.978  0.5686  0.6800  0.1050
15191SOL    HW252435   9.661   2.192   4.111 -3.9416 -0.6846  1.3710
15192SOL     OW52436   6.813  11.703   2.086 -0.4460  0.1075  0.0922
15192SOL    HW152437   6.761  11.732   2.161  0.9473  0.8886  0.7864
15192SOL    HW252438   6.756  11.716   2.011 -0.5364  3.0850  0.5524
15193SOL     OW52439  10.000   3.237   7.137 -0.1856  0.1132 -0.1048
15193SOL    HW152440   9.990   3.331   7.121  0.6222  0.1472 -0.4452
15193SOL    HW252441   9.912   3.201   7.124 -0.4178  0.7629 -0.3639
15194SOL     OW52442  11.513   3.469   4.422 -0.3924  0.3733  0.0509
15194SOL    HW152443  11.557   3.386   4.403  2.3066  1.7114 -0.0537
15194SOL    HW252444  11.502   3.511   4.337 -1.4187  0.2777  0.1325
15195SOL     OW52445   0.198   2.840   0.795  0.0550 -0.5327 -0.3362
15195SOL    HW152446   0.188   2.797   0.880 -0.5477 -2.2713 -1.2304
15195SOL    HW252447   0.291   2.832   0.774  0.5072  1.2335  0.7771
15196SOL     OW52448  11.572   6.030  11.526  0.6335 -0.8183  0.2725
15196SOL    HW152449  11.559   6.040  11.620 -3.1897 -1.2916 -0.0417
15196SOL    HW252450  11.537   6.110  11.488  0.3641 -1.4224 -0.8172
15197SOL     OW52451  10.129   5.062   1.619  0.7719 -0.2109 -0.1821
15197SOL    HW152452  10.224   5.052   1.617  0.9463  0.4753  1.8303
15197SOL    HW252453  10.094   4.973   1.620  1.3379 -0.4672 -1.4816
15198SOL     OW52454   7.713   5.231   1.534  0.1843 -0.1079 -0.0833
15198SOL    HW152455   7.641   5.169   1.519 -2.5029  2.3455  1.5559
15198SOL    HW252456   7.708   5.291   1.459  0.0864  0.4294  0.3486
15199SOL     OW52457  10.005   2.065   3.441  0.5355 -0.2900 -0.0205
15199SOL    HW152458   9.958   1.999   3.390 -0.6318  1.7604 -1.7851
15199SOL    HW252459  10.064   2.106   3.378  1.0019  0.5417  0.9361
15200SOL     OW52460   3.080   1.285   1.021 -0.0988 -0.3575 -0.0040
15200SOL    HW152461   3.056   1.226   0.950 -1.1503 -0.0085  0.0371
15200SOL    HW252462   3.086   1.229   1.098  1.8841 -0.8791 -0.4929
15201SOL     OW52463   1.326   8.993   9.169 -0.4229 -0.0489 -0.5862
15201SOL    HW152464   1.243   8.996   9.121 -0.2517  0.5328 -0.8568
15201SOL    HW252465   1.301   8.984   9.261 -0.7914  0.3891 -0.6442
15202SOL     OW52466   1.361   4.355   9.627 -0.4096  0.0758  0.3861
15202SOL    HW152467   1.336   4.336   9.537 -0.3755 -2.4935  0.8575
15202SOL    HW252468   1.453   4.382   9.620 -0.5029  0.2417 -0.3609
15203SOL     OW52469   9.519   9.948  10.002  0.4378 -0.2385 -0.2817
15203SOL    HW152470   9.588   9.898  10.044 -0.8734 -1.1703  0.8240
15203SOL    HW252471   9.565  10.004   9.939  2.2274 -0.4579  0.7748
15204SOL     OW52472   7.489   5.513   5.231  0.8789  0.0155 -0.0754
15204SOL    HW152473   7.490   5.439   5.292 -0.4041 -0.0325 -0.0916
15204SOL    HW252474   7.490   5.473   5.145  1.3719  0.0502 -0.0868
15205SOL     OW52475  10.208   0.288   4.175 -0.0736  0.2515 -0.3728
15205SOL    HW152476  10.116   0.289   4.202  0.1623 -0.4948  0.5106
15205SOL    HW252477  10.206   0.316   4.084 -1.2540 -0.3185 -0.5509
15206SOL     OW52478  11.972   8.205   7.970 -0.0888 -0.0682 -0.7618
15206SOL    HW152479  11.974   8.298   7.948 -0.4897 -0.0867 -0.8708
15206SOL    HW252480  11.952   8.202   8.064 -0.0315 -0.0444 -0.7489
15207SOL     OW52481  11.543   7.522   9.124 -0.7403 -0.1443  0.2759
15207SOL    HW152482  11.543   7.593   9.060 -0.9720 -1.0622 -0.7868
15207SOL    HW252483  11.451   7.512   9.149 -0.9040 -0.8770 -0.5466
15208SOL     OW52484   7.774   3.327   7.451  0.2260 -0.5433 -0.0479
15208SOL    HW152485   7.679   3.330   7.440  0.3125  0.2680 -0.7647
15208SOL    HW252486   7.798   3.236   7.434 -0.2068 -0.3238 -2.2209
15209SOL     OW52487   7.712   5.734   9.573  0.0074  0.5841  0.7450
15209SOL    HW152488   7.745   5.822   9.557  0.8171 -0.1080 -2.0546
15209SOL    HW252489   7.645   5.744   9.640  0.4190  3.2370  0.8420
15210SOL     OW52490  10.706   3.875   7.313  0.1360  0.1223 -0.4456
15210SOL    HW152491  10.692   3.793   7.360  0.0845 -0.0487 -0.7543
15210SOL    HW252492  10.801   3.882   7.306  0.1540 -1.1963 -2.5984
15211SOL     OW52493   5.367   6.482   8.752 -0.2615 -0.4397  0.2436
15211SOL    HW152494   5.382   6.574   8.774  1.7922 -1.0543  1.7908
15211SOL    HW252495   5.299   6.454   8.812 -0.7950  0.0230 -0.1353
15212SOL     OW52496   3.692  11.613   6.905  0.3412 -0.2120  0.0218
15212SOL    HW152497   3.631  11.564   6.960 -1.9397  0.1412 -2.0010
15212SOL    HW252498   3.690  11.566   6.821  0.9671  1.2223 -0.8206
15213SOL     OW52499   2.748   9.382   8.767  0.6209  0.3821 -0.0688
15213SOL    HW152500   2.741   9.289   8.745  0.2696  0.3462  0.1872
15213SOL    HW252501   2.801   9.419   8.696 -0.0906  0.1775 -0.7339
15214SOL     OW52502   4.045   0.976  11.440 -0.0273  0.2319 -0.0513
15214SOL    HW152503   4.026   1.028  11.518  1.0976  0.0824  0.3453
15214SOL    HW252504   4.066   1.041  11.372  0.2153  0.3345  0.1196
15215SOL     OW52505   3.671  10.081   3.390 -0.0818 -0.0916  0.1251
15215SOL    HW152506   3.681  10.149   3.323  0.2283 -0.1772  0.0804
15215SOL    HW252507   3.731  10.012   3.362 -1.1431 -0.8330 -0.3788
15216SOL     OW52508   5.321   4.048   4.168 -0.2043  0.2565 -0.1827
15216SOL    HW152509   5.348   3.991   4.096  0.1146 -0.7533  0.7122
15216SOL    HW252510   5.396   4.050   4.227 -0.2425  1.5492 -0.1447
15217SOL     OW52511  11.005   9.986  12.119 -0.9317  0.1278  0.0407
15217SOL    HW152512  11.094   9.951  12.116 -0.8822  0.2431  0.1445
15217SOL    HW252513  10.955   9.920  12.165 -1.0782 -0.3127 -0.7411
15218SOL     OW52514  11.225   4.753   4.036  0.0970  0.2001  0.0481
15218SOL    HW152515  11.172   4.702   3.975  0.7325  0.2112 -0.5230
15218SOL    HW252516  11.183   4.839   4.038 -0.1674  0.0757 -0.0553
15219SOL     OW52517  12.093   7.909   9.203  0.0103  0.6093  0.0379
15219SOL    HW152518  12.152   7.983   9.192 -0.3113  0.8423 -0.1519
15219SOL    HW252519  12.149   7.832   9.195  0.3962  0.8328  0.5270
15220SOL     OW52520   5.775  11.523   5.452  0.5207  0.1183 -0.2149
15220SOL    HW152521   5.809  11.546   5.365  0.8765  0.2324 -0.0483
15220SOL    HW252522   5.813  11.436   5.469 -0.6299 -0.5062 -0.7444
15221SOL     OW52523   4.123   6.173   2.465  0.4228 -0.0639  0.8529
15221SOL    HW152524   4.098   6.159   2.557 -1.5157 -1.9012  0.1309
15221SOL    HW252525   4.175   6.096   2.443 -0.7647 -0.6356 -0.0847
15222SOL     OW52526   3.160  10.724   2.301  0.3566  0.1071  0.1366
15222SOL    HW152527   3.189  10.811   2.328  0.3252  0.0034  0.5099
15222SOL    HW252528   3.067  10.722   2.325  0.2043  0.1853 -0.4187
15223SOL     OW52529   6.288   7.276   0.793  0.3551  0.2442 -0.0081
15223SOL    HW152530   6.194   7.270   0.775  0.3790  1.2369 -0.4941
15223SOL    HW252531   6.303   7.211   0.862 -0.9418  0.9903  1.0241
15224SOL     OW52532   1.159   9.184   9.955 -0.3747  0.1470 -0.8048
15224SOL    HW152533   1.203   9.126  10.017 -0.9570  1.1130  0.5778
15224SOL    HW252534   1.163   9.139   9.871 -0.4069 -1.6687  0.1374
15225SOL     OW52535  12.085   4.946   0.170 -0.3562 -0.0197  0.3819
15225SOL    HW152536  12.128   5.028   0.147 -0.1123 -0.7057 -1.8876
15225SOL    HW252537  12.064   4.954   0.263  2.9231  1.1244  1.1224
15226SOL     OW52538   3.587  12.480   2.131 -0.2211 -0.0320  0.3971
15226SOL    HW152539   3.540  12.491   2.214 -0.5350  1.5919  0.0438
15226SOL    HW252540   3.640  12.559   2.124  1.4554 -1.1454  0.0606
15227SOL     OW52541  10.521   7.351   1.055  0.0322 -0.0497  0.1072
15227SOL    HW152542  10.591   7.375   0.995  2.0380 -0.2680  2.2422
15227SOL    HW252543  10.481   7.434   1.081  0.3891  0.1843 -0.0896
15228SOL     OW52544   3.191   0.741   2.029  0.0560  0.3048 -0.4292
15228SOL    HW152545   3.116   0.737   1.970  0.2399  1.1503 -0.7256
15228SOL    HW252546   3.153   0.760   2.115 -0.3273 -2.0251 -0.0053
15229SOL     OW52547   6.935   1.744   6.717  0.0404 -0.1141  0.2389
15229SOL    HW152548   6.937   1.708   6.806  0.9633 -0.5754  0.0433
15229SOL    HW252549   7.011   1.705   6.674  0.0875  0.7694 -0.4988
15230SOL     OW52550   9.727   8.296   1.753  0.1358 -0.1424 -0.0646
15230SOL    HW152551   9.715   8.391   1.740  1.8085 -0.0379 -1.1602
15230SOL    HW252552   9.642   8.265   1.783 -0.3551  1.7677  0.6633
15231SOL     OW52553   6.807  11.714   7.341 -0.1376 -0.0963 -0.2206
15231SOL    HW152554   6.824  11.749   7.253 -2.2841 -0.6782 -0.9147
15231SOL    HW252555   6.742  11.645   7.327 -1.2849  0.4733  1.9351
15232SOL     OW52556   5.245   2.133   1.375 -0.5457 -0.0523 -0.1074
15232SOL    HW152557   5.305   2.205   1.356  0.1600 -0.3326  0.9675
15232SOL    HW252558   5.237   2.132   1.470 -2.3758  0.0477 -0.2149
15233SOL     OW52559   9.747   0.516   1.042  0.7815  0.0903 -0.0727
15233SOL    HW152560   9.708   0.481   1.122  0.2849  0.7711 -0.0062
15233SOL    HW252561   9.718   0.456   0.973  0.1906  0.1843  0.0858
15234SOL     OW52562   9.363   1.890   3.831  0.3297 -0.3081  0.0352
15234SOL    HW152563   9.387   1.966   3.885  0.5917 -1.4531  1.6071
15234SOL    HW252564   9.280   1.860   3.868  0.6589 -1.2843  0.0072
15235SOL     OW52565   4.805  11.106  11.999  0.5972 -0.3278  0.0514
15235SOL    HW152566   4.806  11.054  12.079 -1.1597 -1.0310 -0.3341
15235SOL    HW252567   4.716  11.139  11.993  0.9894  0.5916 -1.0759
15236SOL     OW52568   1.304   7.971   4.267 -0.4237  0.2153  0.4437
15236SOL    HW152569   1.210   7.957   4.257 -0.3451 -0.5043  0.6795
15236SOL    HW252570   1.341   7.948   4.182 -0.4905  0.8437  0.2367
15237SOL     OW52571  11.974   7.439   6.887  0.1336 -0.6079  1.1252
15237SOL    HW152572  11.911   7.396   6.945  0.7813 -1.8530  0.9649
15237SOL    HW252573  12.036   7.481   6.947 -0.4998  0.1212  1.2872
15238SOL     OW52574  12.305   6.745   5.667  0.2823  0.3437  0.1994
15238SOL    HW152575  12.344   6.833   5.666  0.9893  0.0441  0.3958
15238SOL    HW252576  12.379   6.687   5.687 -0.0800 -0.3422 -0.4317
15239SOL     OW52577   7.581  11.936   0.434 -0.1000 -0.1509 -0.2639
15239SOL    HW152578   7.565  11.899   0.347 -1.0560 -1.6478  0.5144
15239SOL    HW252579   7.654  11.885   0.469  0.2198  0.3833 -0.1334
15240SOL     OW52580   4.709   7.741   4.685  0.6799 -0.0579  0.6944
15240SOL    HW152581   4.695   7.770   4.595  0.1106  0.7918  1.0466
15240SOL    HW252582   4.679   7.814   4.739  0.2301 -0.8884  1.5972
15241SOL     OW52583   2.444  10.456   4.565 -0.0090  0.0011 -0.2321
15241SOL    HW152584   2.457  10.551   4.564  1.2453 -0.1543 -0.2890
15241SOL    HW252585   2.423  10.434   4.475 -0.6308  0.2548 -0.1565
15242SOL     OW52586   7.494   7.496   2.122 -0.5653 -0.1064 -0.0278
15242SOL    HW152587   7.575   7.457   2.156 -0.2272 -0.3586 -1.0603
15242SOL    HW252588   7.519   7.583   2.093 -1.1608  0.6371  1.6061
15243SOL     OW52589  10.962   0.914   5.815 -0.1794 -0.7202  0.0568
15243SOL    HW152590  11.039   0.922   5.759 -1.7694  0.6988 -2.0967
15243SOL    HW252591  10.901   0.980   5.781 -1.4427 -0.1126  3.2096
15244SOL     OW52592  12.093   9.761   9.358 -0.0973 -0.1855  0.5060
15244SOL    HW152593  12.066   9.669   9.357 -0.1584 -0.1963  1.6996
15244SOL    HW252594  12.012   9.810   9.345 -0.0227 -0.2987 -0.4210
15245SOL     OW52595  12.233   6.700   3.440 -0.4753  0.2735  0.2805
15245SOL    HW152596  12.142   6.718   3.460 -0.0785  2.6601  0.2360
15245SOL    HW252597  12.257   6.766   3.374  1.1675 -0.5254  0.0149
15246SOL     OW52598   0.051   1.909   0.905  0.2061  0.0025 -0.2040
15246SOL    HW152599  -0.008   1.979   0.932  0.3210 -0.2921  0.8818
15246SOL    HW252600  -0.006   1.835   0.886  0.1575  0.0322 -0.1746
15247SOL     OW52601   8.195   2.856   5.424 -0.5454 -0.0003  0.4194
15247SOL    HW152602   8.258   2.883   5.492 -0.5336  1.4913 -0.1425
15247SOL    HW252603   8.137   2.794   5.468  0.6766 -0.6188  1.2328
15248SOL     OW52604   0.532   7.298   0.931 -0.8114 -0.6375  0.3816
15248SOL    HW152605   0.556   7.390   0.946  0.5424 -0.7509 -0.8759
15248SOL    HW252606   0.602   7.248   0.972 -0.6635 -1.0671 -0.3810
15249SOL     OW52607  10.696   8.711   5.387  0.3288  0.0644  0.9487
15249SOL    HW152608  10.602   8.702   5.373  0.4653 -1.7786  0.9694
15249SOL    HW252609  10.704   8.781   5.452 -1.1621 -0.9610  2.3239
15250SOL     OW52610   1.937   6.591   7.325 -0.6016 -0.1886  0.0821
15250SOL    HW152611   1.849   6.556   7.310 -0.3370 -1.5251  1.3692
15250SOL    HW252612   1.925   6.686   7.329 -1.5075 -0.1320 -2.5266
15251SOL     OW52613   0.544   0.009  11.809 -0.2280  0.0199  0.1673
15251SOL    HW152614   0.593   0.020  11.891 -1.2435  1.2934  0.6450
15251SOL    HW252615   0.609  -0.019  11.745  0.8117  0.1596  1.1416
15252SOL     OW52616   6.091   5.685   7.520  0.1667  0.3081 -0.0369
15252SOL    HW152617   6.069   5.655   7.431  0.0878 -0.4565  0.2344
15252SOL    HW252618   6.184   5.708   7.514 -0.1010  1.3231 -0.5892
15253SOL     OW52619   9.964   1.951   0.443 -0.0143  0.0917  0.4110
15253SOL    HW152620   9.932   1.898   0.517 -0.0243 -0.2304  0.1809
15253SOL    HW252621  10.002   1.887   0.383 -0.1541  0.3349  0.0597
15254SOL     OW52622   1.081   6.728   6.491  0.3902 -0.2061 -0.0248
15254SOL    HW152623   0.991   6.760   6.479  0.2615 -0.3388  0.5692
15254SOL    HW252624   1.071   6.640   6.527  0.7414 -1.0819 -1.9344
15255SOL     OW52625  12.314   2.792   1.111 -0.2436  0.2045 -0.2387
15255SOL    HW152626  12.375   2.850   1.067 -0.1698  0.0149 -0.3903
15255SOL    HW252627  12.370   2.730   1.159 -0.3252  0.7068  0.5187
15256SOL     OW52628   3.566  11.623   3.916 -0.1917 -0.0049  0.3181
15256SOL    HW152629   3.625  11.651   3.847 -0.6613  0.2615  0.0196
15256SOL    HW252630   3.479  11.626   3.876 -0.3077 -1.4901  0.3887
15257SOL     OW52631   3.371   3.345   1.118 -0.2536 -0.1778  0.7149
15257SOL    HW152632   3.322   3.326   1.038 -0.2883  0.0831  0.6733
15257SOL    HW252633   3.319   3.412   1.163 -0.7343 -1.0169  1.4371
15258SOL     OW52634  12.285   0.786   0.748 -0.5161 -0.3405 -0.1096
15258SOL    HW152635  12.255   0.752   0.832 -1.9309  0.2917 -0.3226
15258SOL    HW252636  12.204   0.813   0.703  0.3593  1.1277 -0.8740
15259SOL     OW52637   2.385   8.558   7.297 -0.8027  0.0518  0.4805
15259SOL    HW152638   2.292   8.539   7.303 -1.6662  3.2426 -0.9580
15259SOL    HW252639   2.403   8.610   7.375 -0.7314  1.1347 -0.2434
15260SOL     OW52640   1.792  11.894   1.216 -0.1068 -0.5663 -0.0274
15260SOL    HW152641   1.790  11.817   1.273  1.5718 -1.0654 -0.6012
15260SOL    HW252642   1.884  11.907   1.196 -0.3875  1.4136 -0.2151
15261SOL     OW52643  11.044   1.647   9.567 -0.2806  0.0881  0.1824
15261SOL    HW152644  11.136   1.621   9.562 -0.3370 -0.0105 -0.4077
15261SOL    HW252645  11.020   1.633   9.659  0.4797  0.7723  0.4940
15262SOL     OW52646   1.263   1.776   0.666  0.2304 -0.2858  0.4777
15262SOL    HW152647   1.313   1.715   0.611  0.2235  0.0624  0.0786
15262SOL    HW252648   1.177   1.735   0.676 -0.1375  0.1640 -0.6982
15263SOL     OW52649   3.092  11.130  11.599  0.2991  0.4019  0.1198
15263SOL    HW152650   3.135  11.184  11.666  0.9524  0.8049 -0.6085
15263SOL    HW252651   3.001  11.160  11.601  0.4052  0.7259  0.5187
15264SOL     OW52652  11.210   2.911   3.384  0.6136  0.0774  0.0703
15264SOL    HW152653  11.148   2.882   3.451  0.7269 -2.8764 -0.9468
15264SOL    HW252654  11.279   2.845   3.385  1.8270  1.2518 -1.3696
15265SOL     OW52655   3.333   6.888   7.204  0.4800  0.1894  0.0329
15265SOL    HW152656   3.278   6.963   7.223  0.3344  0.5335 -1.5648
15265SOL    HW252657   3.277   6.830   7.152  1.1697 -0.1118 -0.3983
15266SOL     OW52658  12.216  11.195   4.988  0.0215  0.4717 -0.8922
15266SOL    HW152659  12.280  11.236   4.930  1.0786 -1.5237 -1.2005
15266SOL    HW252660  12.211  11.105   4.958 -2.5979  0.4257 -0.5534
15267SOL     OW52661   9.753   3.625   0.594 -0.4100  0.4396 -0.4978
15267SOL    HW152662   9.682   3.623   0.530  1.3708 -0.8509 -2.5861
15267SOL    HW252663   9.768   3.532   0.614 -0.3611  0.7890  1.1701
15268SOL     OW52664   8.668   5.730   9.712  0.3952  0.2173 -0.2526
15268SOL    HW152665   8.707   5.706   9.796  0.1288 -0.8990 -0.4277
15268SOL    HW252666   8.591   5.673   9.704 -0.4897  1.4065 -0.5465
15269SOL     OW52667   2.011  10.742   1.238 -0.5569  0.6581  0.3806
15269SOL    HW152668   2.060  10.740   1.320 -1.3077 -0.0274  0.8316
15269SOL    HW252669   1.941  10.677   1.251 -0.1549 -0.1055 -1.1401
15270SOL     OW52670   1.093   9.698  12.183  0.5501 -0.0181 -0.2117
15270SOL    HW152671   1.113   9.643  12.107  2.0873  0.6967 -0.3714
15270SOL    HW252672   1.004   9.673  12.208  1.4268 -3.1753  0.2582
15271SOL     OW52673   5.233   3.892  10.763  0.0807  0.0328 -0.2551
15271SOL    HW152674   5.204   3.824  10.824  0.9636 -0.3061 -0.1909
15271SOL    HW252675   5.202   3.862  10.678  1.4024 -1.0468 -0.3926
15272SOL     OW52676  11.607   4.432  11.363  0.0863  0.1746 -0.3501
15272SOL    HW152677  11.586   4.522  11.339  0.1711  0.5397  0.8761
15272SOL    HW252678  11.610   4.385  11.280 -0.4696  1.1910 -0.9629
15273SOL     OW52679  10.653   0.045   1.904  0.1586 -0.2060  0.2155
15273SOL    HW152680  10.647   0.048   1.999  1.4837 -2.0282  0.4069
15273SOL    HW252681  10.576   0.092   1.873 -0.0228  0.8708  2.1679
15274SOL     OW52682   2.970   7.006  11.221  0.2931 -0.0108 -0.0196
15274SOL    HW152683   3.028   7.022  11.295  1.2591 -1.6202 -0.3862
15274SOL    HW252684   3.026   6.966  11.154 -0.6454  1.0108 -1.4718
15275SOL     OW52685  10.103   8.746   0.096 -0.1776  0.2759  0.5561
15275SOL    HW152686  10.122   8.671   0.040  1.1900  1.0737 -0.0885
15275SOL    HW252687  10.023   8.783   0.059 -0.1348 -0.0984  0.0685
15276SOL     OW52688   2.055  11.545   1.245  0.3423  0.0643  0.7291
15276SOL    HW152689   1.964  11.519   1.235  0.4985  0.3380 -1.9571
15276SOL    HW252690   2.054  11.605   1.320 -1.4725 -0.7646  1.4271
15277SOL     OW52691   0.680   7.362   6.668  0.0166  0.2685 -0.5788
15277SOL    HW152692   0.695   7.455   6.648  1.3128 -0.0294 -1.0909
15277SOL    HW252693   0.631   7.328   6.593 -0.7925  0.6045 -0.2194
15278SOL     OW52694  12.261   9.936   3.603  0.7134  0.3857  0.3661
15278SOL    HW152695  12.349   9.950   3.638 -0.0470 -0.2329  2.6993
15278SOL    HW252696  12.231  10.023   3.576  1.8023  0.6860  0.0927
15279SOL     OW52697   1.739   2.257  11.514  0.3229 -0.2714  0.4091
15279SOL    HW152698   1.798   2.277  11.442  0.2970  1.6179  0.8525
15279SOL    HW252699   1.687   2.337  11.525 -1.5509 -1.4648  0.7711
15280SOL     OW52700   0.288   0.026  11.626  0.3953 -0.1732 -0.0064
15280SOL    HW152701   0.291   0.114  11.663  1.1519 -0.4037  0.4952
15280SOL    HW252702   0.369   0.018  11.576 -0.4250 -0.0148 -1.3948
15281SOL     OW52703   7.560   9.067   5.895 -0.5286 -0.2470 -0.1941
15281SOL    HW152704   7.606   9.108   5.969  0.9325 -0.2298 -1.0758
15281SOL    HW252705   7.505   9.137   5.859  0.2802  0.3201 -0.3462
15282SOL     OW52706   2.812   5.881   5.009 -0.0551 -0.3990  0.1405
15282SOL    HW152707   2.766   5.927   5.080 -1.8396 -1.1415 -0.4688
15282SOL    HW252708   2.779   5.921   4.929  0.3185 -1.0113 -0.3264
15283SOL     OW52709   7.072   8.606  11.631 -0.3591 -0.7334 -0.0740
15283SOL    HW152710   7.071   8.626  11.537  0.0982 -0.9901 -0.1340
15283SOL    HW252711   6.985   8.570  11.648 -0.6499 -0.1358 -0.2796
15284SOL     OW52712  11.792   5.525   1.824 -0.1134 -0.1674 -0.5993
15284SOL    HW152713  11.793   5.430   1.817 -2.4012 -0.2273 -1.0741
15284SOL    HW252714  11.778   5.542   1.917 -1.9095 -0.4045 -0.7938
15285SOL     OW52715  10.393   4.912   2.585  0.0208 -0.2527 -0.0268
15285SOL    HW152716  10.473   4.964   2.577 -0.2100 -0.1012 -1.7944
15285SOL    HW252717  10.422   4.822   2.567 -0.1347 -0.2644 -0.2147
15286SOL     OW52718   3.399   2.404   2.981 -0.4146  0.7599  0.0866
15286SOL    HW152719   3.441   2.415   3.067  1.1094  2.1666 -0.7767
15286SOL    HW252720   3.325   2.465   2.982  0.0755  1.3613  0.1296
15287SOL     OW52721   3.856   1.362   1.295  0.4430  0.2582  0.4989
15287SOL    HW152722   3.860   1.429   1.227 -1.9320 -1.7379 -1.8608
15287SOL    HW252723   3.893   1.403   1.373 -0.2666  4.0291 -0.9640
15288SOL     OW52724   3.031   8.732   9.891  0.3787  0.1852  0.0459
15288SOL    HW152725   2.993   8.751   9.977 -1.6389 -0.2389 -0.7063
15288SOL    HW252726   2.987   8.792   9.832 -1.1218 -2.1013 -1.2873
15289SOL     OW52727  11.166   7.255   6.460  0.0586  0.0844  0.6739
15289SOL    HW152728  11.114   7.333   6.440  0.5608  0.3394  0.3494
15289SOL    HW252729  11.239   7.287   6.513 -0.2717 -0.3195  1.3943
15290SOL     OW52730  10.451   0.962   0.343  0.1627 -0.9154 -0.3974
15290SOL    HW152731  10.508   0.891   0.372  0.9785  0.2167  0.8944
15290SOL    HW252732  10.511   1.029   0.311 -0.5451 -0.4099 -0.6996
15291SOL     OW52733   8.914   0.027   5.621  0.0368  0.0456 -0.5786
15291SOL    HW152734   8.824   0.022   5.654 -0.2978  1.6887 -1.1823
15291SOL    HW252735   8.942   0.116   5.639  1.0991 -0.0608 -1.5690
15292SOL     OW52736   7.059   3.231   1.482 -0.0189  0.5673 -0.1146
15292SOL    HW152737   7.013   3.162   1.530 -1.9280  1.7603 -0.1261
15292SOL    HW252738   7.107   3.184   1.413 -0.2918 -0.8264  0.5934
15293SOL     OW52739   5.057   1.194   1.541 -0.2710 -0.6520  0.2106
15293SOL    HW152740   5.011   1.165   1.619 -0.9277 -0.9398 -0.2713
15293SOL    HW252741   5.027   1.284   1.526 -0.7846 -0.8813 -0.1725
15294SOL     OW52742   7.830   6.085   6.962  0.2210 -0.6530  0.1543
15294SOL    HW152743   7.815   6.094   6.868 -1.8234  1.9078  0.5889
15294SOL    HW252744   7.742   6.069   6.998  0.6270  0.4447  1.7483
15295SOL     OW52745   3.447   4.233   1.656  0.1161 -0.2071 -0.4111
15295SOL    HW152746   3.437   4.258   1.564 -0.2654  0.1131 -0.2853
15295SOL    HW252747   3.368   4.184   1.676  0.8661 -1.5484 -0.6573
15296SOL     OW52748   9.300   2.087   3.207 -0.1111  0.0627 -0.2130
15296SOL    HW152749   9.285   2.042   3.290  1.4646 -0.2150 -0.0495
15296SOL    HW252750   9.268   2.176   3.222  0.2978  0.0588  0.7373
15297SOL     OW52751   0.667   0.146  11.315 -0.1171 -0.2179 -0.4079
15297SOL    HW152752   0.600   0.200  11.274  1.0210  0.3935 -1.5514
15297SOL    HW252753   0.682   0.075  11.254 -0.4195 -0.9149  0.3138
15298SOL     OW52754   8.594  10.954   7.978  0.2097  0.2139  0.0865
15298SOL    HW152755   8.525  11.017   7.997 -0.1161 -0.0386 -0.2424
15298SOL    HW252756   8.645  10.949   8.059  0.4102  1.1049  0.0172
15299SOL     OW52757   0.019  10.174   8.343  0.1710  0.8707 -0.2477
15299SOL    HW152758   0.009  10.105   8.276  2.5958 -0.4133  0.6022
15299SOL    HW252759  -0.019  10.252   8.302 -2.2627 -0.7909 -1.4448
15300SOL     OW52760  12.217  11.095   9.735  0.1753 -0.7326  0.4397
15300SOL    HW152761  12.183  11.150   9.663  0.0904 -1.8391 -0.3875
15300SOL    HW252762  12.143  11.040   9.759  1.1002 -2.6309 -0.8545
15301SOL     OW52763   3.973   2.718   8.579  0.2702 -0.0123  0.0123
15301SOL    HW152764   4.048   2.721   8.519 -0.0555  0.5007 -0.3739
15301SOL    HW252765   3.901   2.756   8.529  0.4303  2.2184  1.3493
15302SOL     OW52766  10.638   3.593   3.206  0.1218 -0.4336  0.0127
15302SOL    HW152767  10.618   3.501   3.222  0.7333 -0.5229  0.2948
15302SOL    HW252768  10.576   3.641   3.260  0.4843 -0.7011  0.6847
15303SOL     OW52769  12.095   9.262   1.234 -0.3898  0.1662  0.1551
15303SOL    HW152770  12.003   9.285   1.248 -0.7252 -2.0376  2.1566
15303SOL    HW252771  12.128   9.332   1.177 -2.3822  2.9833  2.1614
15304SOL     OW52772  11.707   4.034   5.094 -0.3785  0.7079 -0.0828
15304SOL    HW152773  11.785   4.041   5.148  0.0507 -0.1487 -0.5796
15304SOL    HW252774  11.654   4.110   5.119 -1.1418 -0.7159  3.0295
15305SOL     OW52775   6.639   7.317   1.073 -0.4656  0.0599  0.5440
15305SOL    HW152776   6.544   7.317   1.065 -0.5080 -2.5323  0.2041
15305SOL    HW252777   6.670   7.355   0.991 -1.2031  0.5468  0.4867
15306SOL     OW52778   0.074   5.523  10.110 -0.2103  1.1688  0.0507
15306SOL    HW152779   0.120   5.596  10.152  0.6264  0.9370 -0.4557
15306SOL    HW252780   0.116   5.445  10.144  0.2170  0.9680 -0.9064
15307SOL     OW52781   3.275   1.664   9.040  0.0042 -0.0770  0.3654
15307SOL    HW152782   3.275   1.570   9.020  0.1840  0.1328 -0.6953
15307SOL    HW252783   3.256   1.706   8.956  3.8635  0.9959 -0.1548
15308SOL     OW52784   3.692  10.992   0.407 -0.3331 -0.5560  0.4520
15308SOL    HW152785   3.673  11.070   0.355  1.1030 -1.9573 -2.4359
15308SOL    HW252786   3.613  10.939   0.400 -1.8354  1.0159  3.5218
15309SOL     OW52787   4.583   1.007  11.568  0.0792 -0.4913 -0.6737
15309SOL    HW152788   4.543   0.973  11.648 -0.1055 -1.3634 -1.1198
15309SOL    HW252789   4.677   0.993  11.581  0.1738  0.6947 -0.0171
15310SOL     OW52790   0.199  10.120   5.873  0.0814 -0.3751  0.5055
15310SOL    HW152791   0.136  10.174   5.826  0.2078 -0.7540 -0.1051
15310SOL    HW252792   0.264  10.182   5.905 -0.2632 -0.0563  0.6049
15311SOL     OW52793   4.751   9.357   0.844 -0.2501  0.0191 -0.1077
15311SOL    HW152794   4.686   9.330   0.779  0.3546 -0.6175 -0.4664
15311SOL    HW252795   4.746   9.453   0.844  0.6726  0.1186 -2.1105
15312SOL     OW52796  12.481  10.489   3.783  0.5257 -0.1024  0.4779
15312SOL    HW152797  12.502  10.518   3.694  0.7423 -0.8127  0.2921
15312SOL    HW252798  12.465  10.570   3.831  0.0896  0.2845 -0.2842
15313SOL     OW52799   2.727   2.697  10.900  1.2655  0.0001  0.4074
15313SOL    HW152800   2.656   2.750  10.936  0.7591 -1.1240  1.1259
15313SOL    HW252801   2.708   2.608  10.931  0.9762 -1.0100 -2.3810
15314SOL     OW52802   8.008   1.961  10.311  0.3678 -0.0168  0.0255
15314SOL    HW152803   7.954   1.888  10.281 -0.1904 -0.1597  1.3345
15314SOL    HW252804   8.097   1.926  10.312  0.3333 -0.1627 -0.9208
15315SOL     OW52805   5.179   4.479   4.806  0.1527  0.4388  0.3392
15315SOL    HW152806   5.148   4.502   4.718  1.3180  2.0423  0.3017
15315SOL    HW252807   5.273   4.492   4.802  0.4186 -0.9331  1.4369
15316SOL     OW52808   2.519   7.153   3.366  0.6795  0.2638 -0.0831
15316SOL    HW152809   2.543   7.200   3.286  1.3338  0.2954  0.1228
15316SOL    HW252810   2.424   7.142   3.360  0.8612 -0.9248 -1.5135
15317SOL     OW52811   3.538   0.736   1.501 -0.0260  0.1012  0.1223
15317SOL    HW152812   3.478   0.806   1.474 -1.6764 -0.4361  2.2205
15317SOL    HW252813   3.515   0.716   1.591  1.7639 -1.7940  0.2551
15318SOL     OW52814   0.873   2.983   3.859 -0.1836  0.1821  0.6529
15318SOL    HW152815   0.792   2.948   3.821  0.0396  1.2497 -0.8388
15318SOL    HW252816   0.898   2.917   3.924 -1.4737 -0.8703  0.1334
15319SOL     OW52817   8.881   8.450  12.408  0.1293  0.0010 -0.0916
15319SOL    HW152818   8.792   8.430  12.381 -0.3230  1.0086  0.5828
15319SOL    HW252819   8.899   8.536  12.369  0.5012  0.1689  0.4365
15320SOL     OW52820   4.156   4.462   8.767 -0.2816  0.4165 -0.1101
15320SOL    HW152821   4.071   4.483   8.806 -0.5691 -0.3865 -0.2732
15320SOL    HW252822   4.138   4.459   8.673  0.0834  0.9047 -0.1989
15321SOL     OW52823  10.018   2.172   0.966  0.9222 -0.3645  0.0220
15321SOL    HW152824  10.072   2.228   0.910 -1.5300  0.4596 -1.6828
15321SOL    HW252825   9.970   2.233   1.022 -1.2114 -0.7001 -1.3321
15322SOL     OW52826   0.679   3.416   0.351  0.4275  0.4042 -0.3805
15322SOL    HW152827   0.699   3.496   0.303  1.7827 -0.1409 -0.7791
15322SOL    HW252828   0.693   3.346   0.286  0.2543 -0.2171  0.2420
15323SOL     OW52829   6.551   8.323   8.349  0.0502 -0.2458 -0.2554
15323SOL    HW152830   6.608   8.254   8.314 -0.0109  0.0107 -0.8733
15323SOL    HW252831   6.462   8.291   8.332  0.0213 -0.0456 -0.4783
15324SOL     OW52832  10.762   9.520   4.798 -0.2180  0.0132  0.2248
15324SOL    HW152833  10.678   9.521   4.843 -0.6386 -0.2427 -0.5356
15324SOL    HW252834  10.747   9.466   4.720  0.5672  0.2161 -0.0778
15325SOL     OW52835  10.921   7.350   3.252 -0.1622 -0.3535 -0.0191
15325SOL    HW152836  10.828   7.355   3.273 -0.1470  2.7388 -0.2897
15325SOL    HW252837  10.924   7.324   3.160 -0.7412 -0.3757 -0.0337
15326SOL     OW52838   4.857   5.063  10.754  0.4418  0.1128  0.6962
15326SOL    HW152839   4.811   5.143  10.777  1.5535  0.1573  3.0231
15326SOL    HW252840   4.850   5.007  10.831  1.2815 -1.2903 -0.1883
15327SOL     OW52841   8.166   2.756  12.440  0.5497 -0.3816 -1.1101
15327SOL    HW152842   8.153   2.700  12.516 -4.3766  1.0298 -0.5381
15327SOL    HW252843   8.115   2.714  12.370  0.2252  1.1902 -1.8691
15328SOL     OW52844   3.085   7.909  10.428  0.4679  0.6922  0.2432
15328SOL    HW152845   3.049   7.981  10.481 -3.7977 -1.7423  1.0771
15328SOL    HW252846   3.115   7.952  10.348  0.2340  3.6350  1.5943
15329SOL     OW52847   9.295   9.355   1.475 -0.4308  0.2055 -0.1056
15329SOL    HW152848   9.301   9.442   1.516  0.3038 -0.1983  0.6729
15329SOL    HW252849   9.241   9.304   1.537  0.3769 -0.3061  0.1948
15330SOL     OW52850   2.146   8.273  10.489 -0.0788  0.2839 -0.1762
15330SOL    HW152851   2.073   8.329  10.463  0.3923  1.0698  0.1726
15330SOL    HW252852   2.186   8.317  10.564  1.1850  0.2405 -0.7919
15331SOL     OW52853   9.875   2.293  11.506 -0.0339 -0.3811  0.1744
15331SOL    HW152854   9.783   2.277  11.527 -0.3875  0.2090 -0.8415
15331SOL    HW252855   9.881   2.387  11.491  1.2471 -0.0240  2.4744
15332SOL     OW52856   3.600   6.239  11.963  0.4418 -0.3137  0.1085
15332SOL    HW152857   3.659   6.165  11.946 -0.3718 -0.8613 -0.4113
15332SOL    HW252858   3.513   6.202  11.952  0.0342  0.8759 -0.7519
15333SOL     OW52859  11.015  12.039   7.790  0.3432  0.0790 -0.3226
15333SOL    HW152860  10.994  12.131   7.774  0.3508  0.4456  1.5433
15333SOL    HW252861  11.085  12.019   7.728  0.1734  1.2596 -0.9176
15334SOL     OW52862   8.306   8.505   6.006  0.1441 -0.0124 -0.2742
15334SOL    HW152863   8.308   8.574   5.939 -0.8118 -0.4519 -0.7689
15334SOL    HW252864   8.277   8.427   5.959 -1.4274 -0.1268  0.8143
15335SOL     OW52865   8.298   8.340   7.075  0.2932  0.6866 -0.1256
15335SOL    HW152866   8.286   8.314   6.983  1.0439  1.7695 -0.5548
15335SOL    HW252867   8.364   8.409   7.071 -0.3665  1.4176  1.1339
15336SOL     OW52868   0.938   7.476   8.270 -0.3117 -0.3426 -0.2133
15336SOL    HW152869   0.854   7.484   8.316  0.4619  2.4674  0.9162
15336SOL    HW252870   0.930   7.535   8.195  0.9750  0.8555  0.5363
15337SOL     OW52871  10.670   5.334   0.377 -0.0442 -0.5326  0.5871
15337SOL    HW152872  10.740   5.383   0.419 -0.3249  0.2169  0.2045
15337SOL    HW252873  10.714   5.276   0.316  0.2248  0.5864 -0.3278
15338SOL     OW52874  10.306   9.354   5.067  0.1146  0.2299  0.1549
15338SOL    HW152875  10.232   9.306   5.032  0.2956 -0.7349  1.0517
15338SOL    HW252876  10.291   9.356   5.161  1.7391 -0.9208  0.4792
15339SOL     OW52877  10.790  10.180   6.244 -0.3054 -0.2303 -0.1957
15339SOL    HW152878  10.881  10.199   6.266  0.0502 -0.3466 -1.5114
15339SOL    HW252879  10.746  10.173   6.329  1.4518 -2.9443  0.6256
15340SOL     OW52880   3.843   1.503   7.383 -0.1532 -0.0721  0.4217
15340SOL    HW152881   3.885   1.581   7.348 -0.9499 -0.0062 -0.4054
15340SOL    HW252882   3.893   1.430   7.345 -0.7483  0.0048 -0.5281
15341SOL     OW52883   7.007   5.250   3.096 -0.5449 -0.4108 -0.0791
15341SOL    HW152884   7.041   5.314   3.033 -0.3223 -1.2911 -0.8684
15341SOL    HW252885   6.916   5.237   3.069  0.1733 -2.5513 -1.7506
15342SOL     OW52886   0.780  10.419   0.739  0.3568  0.1380 -0.0155
15342SOL    HW152887   0.782  10.331   0.776 -0.4305  0.5459  1.0704
15342SOL    HW252888   0.755  10.406   0.648 -1.7033 -0.6790  0.5988
15343SOL     OW52889   0.333   7.407   3.796 -0.2604  0.2157  0.0203
15343SOL    HW152890   0.398   7.418   3.866 -0.0105  1.1586 -0.3440
15343SOL    HW252891   0.381   7.425   3.716 -0.9284  0.7357 -0.2701
15344SOL     OW52892   8.717   0.238   9.380 -0.3826  0.4795 -0.1068
15344SOL    HW152893   8.774   0.200   9.446  1.7419 -0.7613 -2.4711
15344SOL    HW252894   8.646   0.174   9.369  1.0287 -0.9632 -1.2584
15345SOL     OW52895   8.594   3.062   4.613 -0.9775 -0.4814 -0.1057
15345SOL    HW152896   8.662   3.118   4.574 -0.5864 -0.1775  0.9694
15345SOL    HW252897   8.521   3.066   4.551 -0.3381 -0.1194 -0.8595
15346SOL     OW52898   5.806   7.161   2.013  0.1510 -0.0136  0.3263
15346SOL    HW152899   5.732   7.102   2.025  0.9751 -1.0072  0.6364
15346SOL    HW252900   5.774   7.246   2.045 -0.6457 -0.5599  1.0377
15347SOL     OW52901   0.368   4.538   9.388 -0.1393 -0.3038 -0.7212
15347SOL    HW152902   0.287   4.585   9.403  0.1030  0.0333 -0.4502
15347SOL    HW252903   0.428   4.570   9.455  0.2706 -0.4229 -1.0213
15348SOL     OW52904   2.953   0.243   2.193  0.4207 -0.5540 -0.0397
15348SOL    HW152905   2.907   0.208   2.270  0.7855  0.5783  0.7150
15348SOL    HW252906   2.897   0.220   2.119 -0.9970  0.1453  0.7791
15349SOL     OW52907  10.557   4.798   5.265 -0.3005  0.2128  0.3890
15349SOL    HW152908  10.640   4.779   5.222 -1.8550 -1.4276 -2.2072
15349SOL    HW252909  10.517   4.712   5.278 -1.6512  0.9622  1.4641
15350SOL     OW52910   1.932   5.934   7.240 -0.0844  0.4653 -0.5820
15350SOL    HW152911   1.917   5.842   7.260  0.8985  0.7415  1.6993
15350SOL    HW252912   2.025   5.938   7.216 -0.3347  0.7473 -1.5282
15351SOL     OW52913  11.786   3.899   4.071 -0.0704 -0.4641 -0.3672
15351SOL    HW152914  11.831   3.943   3.998  0.3051 -0.5543 -0.1954
15351SOL    HW252915  11.857   3.867   4.126 -0.3524 -0.3570  0.0626
15352SOL     OW52916   9.847   6.812   7.037 -0.0295  0.3672  0.4032
15352SOL    HW152917   9.883   6.855   7.114 -0.6031  1.4687  0.0677
15352SOL    HW252918   9.752   6.811   7.051 -0.1248  0.3884 -0.1906
15353SOL     OW52919   9.346   5.762   4.073 -0.2603 -0.0347  0.0323
15353SOL    HW152920   9.382   5.764   4.162  1.5455  0.3616 -0.6672
15353SOL    HW252921   9.346   5.669   4.049 -0.1760 -0.0839  0.2201
15354SOL     OW52922   9.896   3.272  10.694 -0.0858  0.1120  0.1798
15354SOL    HW152923   9.807   3.256  10.662 -0.0273  2.2176 -1.2347
15354SOL    HW252924   9.900   3.367  10.707  1.4923 -0.1222  1.7545
15355SOL     OW52925  12.303   3.136   1.291 -0.2258 -0.4055  0.2417
15355SOL    HW152926  12.217   3.108   1.258 -1.0045  2.0611 -0.0493
15355SOL    HW252927  12.314   3.087   1.373 -0.5173 -2.9350 -1.1242
15356SOL     OW52928   3.244   8.227   7.163  0.1244 -0.8603 -0.5604
15356SOL    HW152929   3.188   8.273   7.226  0.9686  0.7788 -0.9524
15356SOL    HW252930   3.255   8.140   7.200 -0.3928 -0.3129  0.9566
15357SOL     OW52931  10.815   4.415   5.491 -0.1828  0.4069 -0.3358
15357SOL    HW152932  10.765   4.485   5.531  0.8994 -0.5315  2.9676
15357SOL    HW252933  10.749   4.356   5.455 -1.1966  1.6946 -0.6598
15358SOL     OW52934   6.221   7.064   4.745  0.4065  0.2010 -0.8416
15358SOL    HW152935   6.252   7.036   4.658 -0.2737 -0.3077 -0.9300
15358SOL    HW252936   6.126   7.066   4.736  0.2463 -1.0882  0.2371
15359SOL     OW52937   4.761  12.001   8.178 -0.0369  0.8689 -0.2162
15359SOL    HW152938   4.828  12.040   8.121 -0.5010 -0.3786 -1.6815
15359SOL    HW252939   4.753  11.911   8.147 -1.4510  0.6080  0.8165
15360SOL     OW52940  11.074   8.820   3.413  0.0663 -0.5604 -0.5137
15360SOL    HW152941  11.068   8.793   3.505 -0.9386 -0.0581 -0.4193
15360SOL    HW252942  11.008   8.767   3.369 -1.0858  0.8457 -0.5334
15361SOL     OW52943   1.150   5.193   9.041  0.2178 -0.0826 -0.0988
15361SOL    HW152944   1.189   5.106   9.051 -0.9715 -0.8949 -1.9612
15361SOL    HW252945   1.190   5.229   8.962 -0.9378  0.0825 -0.6297
15362SOL     OW52946   3.427  10.345   5.905  0.3523  0.3798 -0.2639
15362SOL    HW152947   3.421  10.392   5.988  0.1835 -0.0988  0.0020
15362SOL    HW252948   3.503  10.288   5.915 -1.8350 -2.5674  1.1180
15363SOL     OW52949   8.507   3.150   4.010  1.2179 -0.1216  0.2566
15363SOL    HW152950   8.435   3.203   3.975  0.9286 -1.6319 -1.6398
15363SOL    HW252951   8.468   3.099   4.080  0.9170  0.4562  0.5137
15364SOL     OW52952   7.957   0.305   3.811 -0.6467 -0.2504  0.4717
15364SOL    HW152953   7.910   0.338   3.887 -0.7160  0.8116 -0.0077
15364SOL    HW252954   7.895   0.247   3.767 -1.1448  0.3265  0.4016
15365SOL     OW52955  12.292   1.061   1.606  0.4969 -0.4937  0.5117
15365SOL    HW152956  12.293   1.156   1.595 -2.1155 -0.4089  0.4158
15365SOL    HW252957  12.224   1.046   1.672  0.9191 -2.2941  0.5781
15366SOL     OW52958   8.980   2.284   4.111  0.3789 -0.3887  0.2056
15366SOL    HW152959   8.960   2.315   4.199  0.4612 -0.5402  0.2787
15366SOL    HW252960   9.044   2.213   4.124 -0.2440 -0.9789  0.0839
15367SOL     OW52961   1.138  11.493   3.619 -0.2851 -0.0077  0.2320
15367SOL    HW152962   1.167  11.408   3.652  1.2947  0.4633  0.1361
15367SOL    HW252963   1.186  11.504   3.537 -2.4055 -0.1353 -1.1006
15368SOL     OW52964   3.092   3.962   8.120  0.2215 -0.0192  0.2573
15368SOL    HW152965   3.006   3.923   8.135 -0.8709  1.9498 -0.4657
15368SOL    HW252966   3.109   4.014   8.199  0.2485  0.4353 -0.0450
15369SOL     OW52967   0.733   4.200   8.527  0.8407 -0.2395 -0.1938
15369SOL    HW152968   0.684   4.243   8.457  0.7529 -0.9826 -0.5977
15369SOL    HW252969   0.705   4.245   8.607  0.8775  0.5524 -0.6257
15370SOL     OW52970   5.838   7.891   0.294  0.1832 -0.0699 -0.3372
15370SOL    HW152971   5.808   7.917   0.207  0.6791 -0.2270 -0.5609
15370SOL    HW252972   5.930   7.918   0.296 -0.1866  1.1850  0.6513
15371SOL     OW52973  11.171   9.399  10.363 -0.3782 -0.7397  0.1029
15371SOL    HW152974  11.158   9.494  10.362  0.4933 -0.5866  1.4637
15371SOL    HW252975  11.242   9.385  10.424 -1.1974 -2.3609  0.7417
15372SOL     OW52976   0.076  12.278   8.170 -0.1525 -0.3383 -0.0101
15372SOL    HW152977   0.008  12.214   8.150  0.1360 -0.7073  0.1847
15372SOL    HW252978   0.032  12.363   8.163 -0.4998 -0.5484 -0.4163
15373SOL     OW52979   5.287   7.750   3.716 -0.1035 -0.0388  0.5988
15373SOL    HW152980   5.303   7.715   3.629  0.0978  0.3183  0.4878
15373SOL    HW252981   5.341   7.829   3.720 -0.0349 -0.1057  1.0804
15374SOL     OW52982   9.711   8.214   0.903 -0.1164 -0.3791  0.0766
15374SOL    HW152983   9.671   8.152   0.842  0.9227 -1.8422  0.8236
15374SOL    HW252984   9.805   8.196   0.899  0.0620  0.0589  1.4808
15375SOL     OW52985   8.580  10.879   0.590  0.2065 -0.9475  0.4602
15375SOL    HW152986   8.547  10.790   0.577 -1.0475 -0.4380 -0.0307
15375SOL    HW252987   8.503  10.935   0.578  0.9381  0.1968  0.9272
15376SOL     OW52988   7.074  11.269   7.399  0.4153  0.5700 -0.9214
15376SOL    HW152989   7.120  11.266   7.483  1.3068  1.9853 -1.3225
15376SOL    HW252990   7.015  11.193   7.401  0.2530  0.6976  1.0546
15377SOL     OW52991   8.643   6.726   8.482 -0.5359 -0.1015 -0.3482
15377SOL    HW152992   8.620   6.781   8.407 -0.6158  1.8908  1.0534
15377SOL    HW252993   8.670   6.643   8.443  1.4485  1.4932 -2.7317
15378SOL     OW52994   9.776   5.097  12.297 -0.2185 -0.1330 -0.0959
15378SOL    HW152995   9.716   5.139  12.235  0.9314  1.2630 -0.3095
15378SOL    HW252996   9.798   5.167  12.359  0.1393 -0.9975  0.7765
15379SOL     OW52997   5.396   9.523   3.988  1.2098 -0.1141 -0.0515
15379SOL    HW152998   5.342   9.504   3.911  0.1555  0.6970  0.4500
15379SOL    HW252999   5.365   9.462   4.055  0.0302  1.1441  0.6005
15380SOL     OW53000   4.018  12.365   9.893  0.0555  0.6041  0.0257
15380SOL    HW153001   3.980  12.451   9.910  1.5431  1.5315 -1.0202
15380SOL    HW253002   3.954  12.321   9.836 -0.1378  1.5504 -0.5158
15381SOL     OW53003   8.316   7.351   5.989  0.2129  0.1543 -0.2994
15381SOL    HW153004   8.248   7.374   6.052 -0.8630 -0.3886 -1.2232
15381SOL    HW253005   8.398   7.355   6.039 -0.6149 -0.4645  1.1804
15382SOL     OW53006   0.680  10.240   8.019  0.5698 -0.2948 -0.4382
15382SOL    HW153007   0.667  10.217   8.111 -0.1254 -3.4126 -1.1995
15382SOL    HW253008   0.591  10.241   7.983  0.8707  0.5144 -1.1640
15383SOL     OW53009   7.968  11.847   0.273 -0.2871  0.1905  0.6446
15383SOL    HW153010   7.896  11.910   0.262 -1.6573 -1.4305 -0.2751
15383SOL    HW253011   7.944  11.797   0.351 -1.2359 -1.5867 -0.6950
15384SOL     OW53012   7.090   3.733   4.466 -0.5797  0.2901 -0.5023
15384SOL    HW153013   7.168   3.677   4.461  1.4240  2.6379  1.7610
15384SOL    HW253014   7.021   3.674   4.498  1.2395 -1.1110  1.1324
15385SOL     OW53015   2.568  10.043   2.432  0.4228 -0.5944 -0.2956
15385SOL    HW153016   2.620  10.091   2.496 -0.2553  0.9312 -0.8461
15385SOL    HW253017   2.628  10.027   2.359  0.3914  0.3514 -0.5434
15386SOL     OW53018   2.554   0.724   1.021 -0.2502 -0.5559  0.3354
15386SOL    HW153019   2.504   0.760   1.095 -1.7496 -1.5472 -0.1635
15386SOL    HW253020   2.571   0.800   0.966  0.7747  0.1793  1.6064
15387SOL     OW53021   2.948  10.480   6.304  0.3473  0.2195  0.1582
15387SOL    HW153022   2.931  10.480   6.210  1.8448 -2.0213 -0.1907
15387SOL    HW253023   2.862  10.473   6.344 -0.1997 -0.9446 -1.1460
15388SOL     OW53024   3.498   6.920  11.115 -0.3561 -0.1236 -0.1259
15388SOL    HW153025   3.423   6.957  11.070 -2.0818 -0.2364  2.4093
15388SOL    HW253026   3.480   6.936  11.208  3.0390  0.3185  0.5737
15389SOL     OW53027   7.221   9.973   0.890  0.3730 -0.9108 -0.3929
15389SOL    HW153028   7.174  10.052   0.863  0.3883 -0.5676  0.5326
15389SOL    HW253029   7.210   9.913   0.817 -2.0803 -1.0865  0.0240
15390SOL     OW53030   4.282   7.088   6.712  0.5669 -0.1903  0.4208
15390SOL    HW153031   4.195   7.073   6.748  0.2689  0.3065 -0.0880
15390SOL    HW253032   4.283   7.180   6.686  1.1903 -0.2263  0.2862
15391SOL     OW53033   8.827   7.542  11.751  0.2609 -0.2076  0.7568
15391SOL    HW153034   8.902   7.524  11.807  1.5451 -0.5249 -0.9736
15391SOL    HW253035   8.864   7.588  11.675 -1.0560 -1.5600 -0.7878
15392SOL     OW53036   8.809   9.367  12.425  0.1838  0.2232 -0.2242
15392SOL    HW153037   8.869   9.318  12.369  0.3205  0.7411 -0.5293
15392SOL    HW253038   8.846   9.359  12.513 -0.0603 -0.6362 -0.1896
15393SOL     OW53039   8.784   1.202  10.807  0.1729  0.1719  0.2609
15393SOL    HW153040   8.717   1.161  10.863 -0.9034  2.5082  0.7882
15393SOL    HW253041   8.867   1.174  10.846 -0.4309 -2.2883 -0.0267
15394SOL     OW53042  11.896  12.176   3.088  0.1762 -0.0639 -0.7474
15394SOL    HW153043  11.921  12.260   3.127 -0.4137 -0.1127 -0.2695
15394SOL    HW253044  11.883  12.197   2.995  0.3384  0.3056 -0.6918
15395SOL     OW53045   9.038  11.038   3.805 -0.2068  0.0305  1.0484
15395SOL    HW153046   9.133  11.045   3.814 -0.1077  0.8486 -0.3681
15395SOL    HW253047   9.012  11.118   3.761 -1.2962 -1.0842 -0.4272
15396SOL     OW53048   5.404   1.288   6.960  0.0359  0.4071  0.2657
15396SOL    HW153049   5.401   1.375   7.001 -1.2568 -0.1751  1.4724
15396SOL    HW253050   5.313   1.266   6.944  0.4047 -0.3953 -0.8011
15397SOL     OW53051  10.682   5.329   7.957  0.0833 -0.5272 -0.0124
15397SOL    HW153052  10.764   5.281   7.962 -0.0760 -0.7772  0.2047
15397SOL    HW253053  10.632   5.284   7.889  0.4149  0.0714 -0.6688
15398SOL     OW53054   6.870   6.017  10.172 -0.0640 -0.5426  0.2982
15398SOL    HW153055   6.823   6.079  10.117  1.0856 -0.0754 -0.1912
15398SOL    HW253056   6.819   6.013  10.253 -0.8515  0.0556 -0.1568
15399SOL     OW53057   7.869   8.755  11.902  0.3871 -0.4949  0.0524
15399SOL    HW153058   7.909   8.841  11.885 -1.1276  0.3102  0.4222
15399SOL    HW253059   7.808   8.771  11.974 -1.4682 -1.3957 -1.2573
15400SOL     OW53060  10.460   8.889   3.721  0.0035  0.1257 -0.0925
15400SOL    HW153061  10.429   8.936   3.643  1.3687  0.9238 -0.1934
15400SOL    HW253062  10.389   8.900   3.784 -0.9401 -0.1566 -1.0581
15401SOL     OW53063   1.476  11.453   1.242 -0.1674  0.1421  0.1121
15401SOL    HW153064   1.468  11.527   1.302  0.3862  0.0070  0.3588
15401SOL    HW253065   1.491  11.493   1.157 -1.4509  0.3505 -0.0453
15402SOL     OW53066   4.734   1.393   8.798 -0.2003 -0.0819 -0.1470
15402SOL    HW153067   4.641   1.404   8.779 -0.1586 -0.5421 -0.6762
15402SOL    HW253068   4.767   1.340   8.725  0.5084  0.2029 -0.0470
15403SOL     OW53069   3.609  10.002  10.433 -0.3169 -0.4673 -0.2229
15403SOL    HW153070   3.698  10.023  10.406 -0.7646  1.1801 -0.5680
15403SOL    HW253071   3.618   9.927  10.491  1.4303  0.3538  0.6659
15404SOL     OW53072   6.245  10.647  10.244 -0.2311  0.0220 -0.3984
15404SOL    HW153073   6.154  10.636  10.272  0.0496 -1.2886  0.0501
15404SOL    HW253074   6.278  10.719  10.297 -0.3013 -1.1111  1.2511
15405SOL     OW53075  11.800   9.443   9.284 -0.2029 -0.5019  0.1243
15405SOL    HW153076  11.882   9.485   9.311 -1.1662  2.7776 -1.4931
15405SOL    HW253077  11.757   9.420   9.366  1.9069 -1.5850  1.0250
15406SOL     OW53078   8.161   1.369   3.431 -0.0418  0.2047 -0.6613
15406SOL    HW153079   8.071   1.392   3.412 -0.2104  1.8401  1.6699
15406SOL    HW253080   8.174   1.285   3.388 -3.6165 -1.5748  1.2605
15407SOL     OW53081   0.686   0.180   2.361  0.0933  0.3186 -0.1309
15407SOL    HW153082   0.692   0.166   2.267 -3.8976  1.2658 -0.7160
15407SOL    HW253083   0.664   0.094   2.398 -0.1904  0.3150 -0.3125
15408SOL     OW53084   7.059   3.858   0.356  0.0669 -0.0323 -0.0888
15408SOL    HW153085   6.997   3.913   0.308 -0.1451  1.1817  1.5186
15408SOL    HW253086   7.050   3.771   0.316 -1.6778  0.4347 -0.7879
15409SOL     OW53087   0.421   0.427   4.002 -0.1804 -0.3958 -0.0041
15409SOL    HW153088   0.387   0.420   3.913  0.1358  0.9024 -0.2465
15409SOL    HW253089   0.360   0.484   4.047  0.4655  0.1573  0.1842
15410SOL     OW53090   7.558   3.475  10.430  0.2618 -0.1932 -0.6528
15410SOL    HW153091   7.628   3.470  10.364 -0.5847 -0.6008 -1.5497
15410SOL    HW253092   7.489   3.525  10.387 -0.3006 -0.4536 -0.0637
15411SOL     OW53093  10.289  11.368  10.561 -0.5564 -0.2393  0.6291
15411SOL    HW153094  10.275  11.419  10.481 -1.2299 -0.1828  0.7724
15411SOL    HW253095  10.281  11.277  10.534 -1.0814 -0.2129  0.6769
15412SOL     OW53096   0.221   4.358   5.846 -0.2102  0.2240 -0.7846
15412SOL    HW153097   0.182   4.270   5.844 -0.2348  0.2268 -0.4889
15412SOL    HW253098   0.150   4.416   5.820 -0.8047  0.3627  1.0021
15413SOL     OW53099   0.283  11.463  10.368 -0.0070 -0.5043 -0.6211
15413SOL    HW153100   0.334  11.382  10.376  0.7363  0.0810  0.9486
15413SOL    HW253101   0.257  11.484  10.458 -0.4857  0.8303 -1.0437
15414SOL     OW53102  11.616   0.255   4.581 -0.1390  0.3160 -0.3105
15414SOL    HW153103  11.618   0.340   4.626 -1.5431 -0.0483  0.4926
15414SOL    HW253104  11.708   0.236   4.563  0.3162  1.3347  0.7937
15415SOL     OW53105   7.152   0.842   3.392  0.1177  0.2179  0.4614
15415SOL    HW153106   7.166   0.871   3.302  1.1270  2.6932  1.3149
15415SOL    HW253107   7.058   0.852   3.406 -0.2542 -1.4149 -0.6521
15416SOL     OW53108  10.713   2.524  12.292 -0.6024  0.2848 -0.0238
15416SOL    HW153109  10.659   2.451  12.321  1.0996 -0.9855  0.0998
15416SOL    HW253110  10.713   2.517  12.197 -0.1568 -0.1036  0.0018
15417SOL     OW53111   2.399  11.995  12.167  0.4748 -0.0059  0.1761
15417SOL    HW153112   2.454  11.994  12.089  0.5151 -2.2760  0.1588
15417SOL    HW253113   2.330  11.931  12.149 -1.9965  2.3874  0.3769
15418SOL     OW53114   2.066   5.269   4.144 -0.4278 -0.3392  0.5832
15418SOL    HW153115   2.051   5.292   4.236  2.8301  1.1814  0.8419
15418SOL    HW253116   2.048   5.350   4.096 -1.2572 -0.8906 -0.0651
15419SOL     OW53117   6.885   4.867   8.660 -0.6271 -0.2525 -0.5198
15419SOL    HW153118   6.830   4.863   8.581 -1.5585 -1.5816  0.1443
15419SOL    HW253119   6.822   4.865   8.732  0.2673 -1.8392  0.2719
15420SOL     OW53120   6.504   8.501   1.088  0.2490 -0.7114 -0.1633
15420SOL    HW153121   6.525   8.427   1.144 -0.1286 -0.5489  0.2004
15420SOL    HW253122   6.588   8.533   1.056  0.8318  1.1322  2.7509
15421SOL     OW53123   0.112  11.327   5.203 -0.0908 -0.0089 -0.1731
15421SOL    HW153124   0.051  11.391   5.167  0.4727  1.6052  1.5626
15421SOL    HW253125   0.193  11.340   5.153 -0.3069 -0.1488 -0.5629
15422SOL     OW53126   0.323  11.538   2.486 -0.1825  0.7388 -0.4858
15422SOL    HW153127   0.313  11.447   2.514 -0.7702  0.4993 -1.4232
15422SOL    HW253128   0.234  11.565   2.461 -0.4474  2.2826  1.8208
15423SOL     OW53129  12.123  10.138   4.179  0.3089 -0.3984  0.4165
15423SOL    HW153130  12.116  10.143   4.083  1.9968 -2.4126  0.1109
15423SOL    HW253131  12.040  10.097   4.206  0.4673 -1.3088 -0.3938
15424SOL     OW53132  12.387   3.996   4.045 -0.7594 -0.0625  0.3069
15424SOL    HW153133  12.392   4.078   3.997  0.0475 -0.5640 -0.4943
15424SOL    HW253134  12.456   3.942   4.008 -2.3648 -1.7476 -0.4197
15425SOL     OW53135   8.438   7.802   1.642 -0.2390  0.0470 -0.3232
15425SOL    HW153136   8.515   7.859   1.641 -0.3548  0.2014 -0.4138
15425SOL    HW253137   8.363   7.862   1.635 -0.4918  0.1060  2.0532
15426SOL     OW53138   3.292   3.224   8.549 -0.2711 -0.0585  0.1735
15426SOL    HW153139   3.292   3.129   8.565  0.8036  0.3128  2.9223
15426SOL    HW253140   3.359   3.237   8.482  0.8499 -1.1065  1.0413
15427SOL     OW53141   4.802   5.068   3.762  0.1427 -0.5407  0.2232
15427SOL    HW153142   4.818   5.159   3.788 -2.0970  0.2500 -0.8854
15427SOL    HW253143   4.882   5.043   3.715  0.7292  0.9076  0.3786
15428SOL     OW53144   8.004  10.502   8.942 -0.2937  0.6952  0.0193
15428SOL    HW153145   7.968  10.470   8.860 -0.8830  1.2771  0.0364
15428SOL    HW253146   7.978  10.437   9.007  0.3801  0.1107 -0.2904
15429SOL     OW53147   3.154   0.577   0.648  0.3052 -0.0638 -0.7311
15429SOL    HW153148   3.074   0.609   0.606 -0.6853  0.2370  1.2477
15429SOL    HW253149   3.198   0.657   0.678 -0.3073 -0.3418  0.9900
15430SOL     OW53150  11.064  11.955   9.719  0.3012 -0.4028  0.2884
15430SOL    HW153151  11.088  12.005   9.641  0.8215 -1.8480 -0.5227
15430SOL    HW253152  11.045  11.867   9.686  0.2639 -0.9743  1.7645
15431SOL     OW53153   4.903   0.464   7.478 -0.3202 -0.6630  0.0925
15431SOL    HW153154   4.923   0.557   7.477 -1.3996 -0.4211  0.0310
15431SOL    HW253155   4.809   0.459   7.498 -0.7301 -1.6534 -1.8423
15432SOL     OW53156   6.043   4.410   1.670 -0.1389 -0.0269  0.4927
15432SOL    HW153157   6.002   4.368   1.747 -1.1746  0.9929  0.5196
15432SOL    HW253158   5.969   4.444   1.620  0.4259 -1.5943 -1.5558
15433SOL     OW53159   2.409   9.358   9.939 -0.2864  0.0633 -0.1036
15433SOL    HW153160   2.390   9.334   9.849  1.2333  0.0914 -0.4591
15433SOL    HW253161   2.495   9.319   9.957 -1.2013 -1.2084  1.8257
15434SOL     OW53162  11.812   3.514  12.462 -0.2608 -0.5112  0.5203
15434SOL    HW153163  11.746   3.581  12.450  0.1654 -0.2382 -0.4451
15434SOL    HW253164  11.875   3.552  12.524 -0.6593 -0.5158  0.9315
15435SOL     OW53165   1.511   9.221   1.134  0.1930 -0.0800 -0.8098
15435SOL    HW153166   1.526   9.268   1.216  1.2016 -0.2543 -0.8784
15435SOL    HW253167   1.580   9.154   1.131 -0.3722 -0.6592 -1.3776
15436SOL     OW53168   9.266   8.397   7.346 -0.2806 -0.0806 -0.1096
15436SOL    HW153169   9.336   8.345   7.307 -0.9228  0.6722 -2.3997
15436SOL    HW253170   9.185   8.363   7.307 -1.0439  0.3090  1.0661
15437SOL     OW53171   5.326   0.662   4.682 -0.4005 -0.1827  0.3466
15437SOL    HW153172   5.279   0.731   4.728 -1.9438 -0.7844 -0.2484
15437SOL    HW253173   5.331   0.692   4.591  1.1621  0.2568  0.5549
15438SOL     OW53174   5.615   2.078   1.846 -0.3407  0.4627 -0.0601
15438SOL    HW153175   5.628   2.154   1.902 -1.4801  0.4936  0.1937
15438SOL    HW253176   5.660   2.100   1.765 -1.8179  2.0202 -0.5032
15439SOL     OW53177   6.205   5.459   0.385  0.0014  0.4134  0.3900
15439SOL    HW153178   6.290   5.501   0.375  0.5013 -0.6916 -0.2377
15439SOL    HW253179   6.225   5.365   0.390 -1.1953  0.1036 -0.2019
15440SOL     OW53180   5.455   1.764   6.718 -0.3098 -0.1493 -1.0488
15440SOL    HW153181   5.468   1.733   6.808 -0.3266  0.5328 -0.7967
15440SOL    HW253182   5.529   1.728   6.669  0.9288  1.2175 -0.2884
15441SOL     OW53183   3.861   6.549  10.998  0.1654 -0.3451 -0.0546
15441SOL    HW153184   3.775   6.577  11.031  0.5034 -0.4848  0.9921
15441SOL    HW253185   3.842   6.480  10.936 -0.4866 -0.3309  0.1214
15442SOL     OW53186  10.709   8.054   9.962 -0.5486 -0.2012  0.2850
15442SOL    HW153187  10.648   8.085  10.028 -0.7745  2.4791 -1.0672
15442SOL    HW253188  10.677   8.090   9.880  1.6127 -0.5352 -0.7916
15443SOL     OW53189   3.247   5.436  10.658  0.4224 -0.1821  0.8072
15443SOL    HW153190   3.183   5.408  10.722 -0.5468 -0.5481 -0.2826
15443SOL    HW253191   3.320   5.469  10.710 -0.3343 -0.4365  2.0808
15444SOL     OW53192   3.497   6.279  10.940  0.7783 -0.4878  0.3116
15444SOL    HW153193   3.448   6.210  10.987 -0.1767 -0.2028 -0.2337
15444SOL    HW253194   3.453   6.360  10.965 -0.3111 -0.3980 -1.7044
15445SOL     OW53195   6.622   4.661  11.642  0.3460 -0.1998  0.9010
15445SOL    HW153196   6.633   4.626  11.731  0.6123 -2.6332 -0.0122
15445SOL    HW253197   6.705   4.642  11.598  0.8236  2.4003  0.4999
15446SOL     OW53198   0.303   9.018   0.480 -0.2168  0.3599  0.2546
15446SOL    HW153199   0.213   8.999   0.455 -0.5527  2.3121 -0.0996
15446SOL    HW253200   0.342   9.061   0.404  0.9740 -0.2760  0.4711
15447SOL     OW53201   5.948   8.116   4.599  0.5061  0.4224 -0.3660
15447SOL    HW153202   5.985   8.088   4.682 -0.4189  1.9229  0.5911
15447SOL    HW253203   5.997   8.195   4.575 -0.9895  1.5558  0.1600
15448SOL     OW53204   6.609   8.525   4.649 -0.0876  0.4713 -0.4552
15448SOL    HW153205   6.693   8.526   4.694 -0.8582  0.3283  1.0337
15448SOL    HW253206   6.554   8.586   4.698 -0.6731  1.1229 -1.8320
15449SOL     OW53207   0.726   2.325  11.845  0.3524  0.0208  0.1133
15449SOL    HW153208   0.750   2.416  11.829 -1.0630  0.0443 -2.2518
15449SOL    HW253209   0.631   2.324  11.841  0.3520 -2.0892 -3.7587
15450SOL     OW53210   6.074   0.774  12.476  0.1740 -0.0838  0.0421
15450SOL    HW153211   6.055   0.767  12.383 -0.4482 -0.5071  0.1977
15450SOL    HW253212   5.992   0.802  12.516  0.5141  0.3865  0.4338
15451SOL     OW53213  12.359   5.580  10.372 -0.2672 -0.1815 -0.6117
15451SOL    HW153214  12.352   5.551  10.463  1.5038 -0.8867 -0.6540
15451SOL    HW253215  12.345   5.500  10.320 -0.6973  0.1040 -0.9453
15452SOL     OW53216   0.964   8.188   1.383 -0.7847  0.4109 -0.0999
15452SOL    HW153217   0.875   8.201   1.349 -0.4640  2.9730 -0.1133
15452SOL    HW253218   1.021   8.231   1.320  0.4857 -1.0872 -0.0192
15453SOL     OW53219   1.477   3.060  11.227  0.4851 -0.0681  0.2610
15453SOL    HW153220   1.413   3.062  11.155  0.4265  1.4337  0.3265
15453SOL    HW253221   1.550   3.009  11.193  0.3207  0.3546 -0.7678
15454SOL     OW53222   9.854   3.536  12.390  0.0964  0.3210  0.1666
15454SOL    HW153223   9.779   3.578  12.349  0.5150  1.0765  0.1402
15454SOL    HW253224   9.900   3.493  12.318 -0.2727 -0.0951  0.1753
15455SOL     OW53225  10.610   7.152   0.274 -0.5490  0.0272 -0.1458
15455SOL    HW153226  10.563   7.139   0.192 -2.2320 -0.5271  0.8463
15455SOL    HW253227  10.562   7.097   0.337  0.9004  0.1757  1.1281
15456SOL     OW53228   5.377  11.639   2.581 -0.3329  0.1126 -0.2131
15456SOL    HW153229   5.310  11.578   2.612  0.7624 -1.3925 -0.6495
15456SOL    HW253230   5.336  11.684   2.507 -0.3841 -2.0220 -1.5969
15457SOL     OW53231   2.288  10.541   7.194  0.5576  0.0163  0.7350
15457SOL    HW153232   2.296  10.629   7.230  0.7401 -0.1049  0.9947
15457SOL    HW253233   2.264  10.486   7.269  0.9381 -0.2372  0.6729
15458SOL     OW53234   5.242   0.272   9.901 -0.5495 -0.0929 -0.1549
15458SOL    HW153235   5.255   0.328   9.824 -1.6984 -1.1096 -1.1202
15458SOL    HW253236   5.318   0.213   9.901 -0.1620  0.4008 -0.0609
15459SOL     OW53237   0.536   3.984   7.856 -0.0456  0.0126  0.0136
15459SOL    HW153238   0.572   3.981   7.944  0.4946 -0.6626 -0.2199
15459SOL    HW253239   0.603   3.942   7.801 -0.1644  0.8535 -0.7886
15460SOL     OW53240   6.279   1.923   9.311 -0.7535  0.0231  0.0023
15460SOL    HW153241   6.337   1.850   9.334 -0.5659  0.8625  2.4159
15460SOL    HW253242   6.194   1.881   9.295 -0.0689 -0.9622 -1.2165
15461SOL     OW53243   1.630   8.945   5.058 -0.5168  0.6122  0.0549
15461SOL    HW153244   1.710   8.892   5.054  0.0089  1.4661 -2.1166
15461SOL    HW253245   1.559   8.883   5.041 -0.2254  0.0752  0.7394
15462SOL     OW53246   4.750   3.817   7.267  0.5026 -0.8943 -0.5027
15462SOL    HW153247   4.780   3.875   7.198 -0.2045 -0.4863 -0.4822
15462SOL    HW253248   4.829   3.793   7.315  0.8896 -0.5066 -0.9380
15463SOL     OW53249   0.668   5.384  11.257 -0.0850 -0.4318  0.0654
15463SOL    HW153250   0.584   5.411  11.221  0.0326  0.4958  0.4678
15463SOL    HW253251   0.708   5.465  11.290  0.6677 -0.9589  0.4867
15464SOL     OW53252   3.184  10.635   9.683  0.2816 -0.2515  0.0102
15464SOL    HW153253   3.204  10.680   9.766 -0.7393  0.8163 -0.3012
15464SOL    HW253254   3.219  10.547   9.695  0.6833  0.0648  1.3529
15465SOL     OW53255   1.935   3.805   0.168 -0.3515 -0.0413 -0.1402
15465SOL    HW153256   1.888   3.870   0.115 -1.1907  0.6532  1.3959
15465SOL    HW253257   1.871   3.737   0.185  0.3194 -0.9507 -1.1313
15466SOL     OW53258  12.131   3.013   3.586  0.0964 -0.2443 -0.7964
15466SOL    HW153259  12.139   2.940   3.647 -1.3024 -1.0725 -1.5442
15466SOL    HW253260  12.221   3.031   3.556  0.8076  0.1799  1.4358
15467SOL     OW53261   4.441   0.905  11.257  0.5128 -0.2853  0.5810
15467SOL    HW153262   4.534   0.925  11.255  0.5066 -0.2930 -0.0176
15467SOL    HW253263   4.398   0.990  11.247  0.4122 -0.0530  2.5085
15468SOL     OW53264   6.995   9.138   6.941  0.2471 -0.0198 -0.3657
15468SOL    HW153265   7.021   9.153   6.850  0.3447  1.3085 -0.1374
15468SOL    HW253266   6.923   9.199   6.956  0.8004  0.3924  0.6937
15469SOL     OW53267  12.252  10.885   1.548  0.4162  0.3635 -0.5416
15469SOL    HW153268  12.315  10.943   1.593 -1.9322  0.6951  2.6436
15469SOL    HW253269  12.300  10.804   1.534  1.8141  0.8535  1.0866
15470SOL     OW53270  11.161   0.901   4.850  0.7975 -0.1506 -0.5084
15470SOL    HW153271  11.094   0.853   4.897  0.5666  1.1439  0.5542
15470SOL    HW253272  11.122   0.923   4.766 -0.5668  1.5112  0.4969
15471SOL     OW53273   9.830   8.892   9.311 -0.2499  0.0266  0.0063
15471SOL    HW153274   9.840   8.799   9.292 -1.6424 -0.4283  1.2761
15471SOL    HW253275   9.878   8.905   9.393  2.0486  1.0186 -1.3955
15472SOL     OW53276   7.623   2.684   7.413  0.0215  0.3443 -0.4101
15472SOL    HW153277   7.638   2.670   7.506 -0.8152 -0.3794 -0.3738
15472SOL    HW253278   7.556   2.752   7.408  0.1851  0.5009 -0.4866
15473SOL     OW53279   7.573   7.939  11.985 -0.4055  0.7462 -0.2068
15473SOL    HW153280   7.558   8.016  11.930 -0.9706  0.8095  0.0301
15473SOL    HW253281   7.486   7.918  12.020 -0.2564 -0.0156 -0.2963
15474SOL     OW53282  10.510   8.138   7.015 -0.8513  0.2992 -0.5598
15474SOL    HW153283  10.437   8.198   6.998  0.7073  1.7902 -2.4173
15474SOL    HW253284  10.586   8.196   7.024  0.1045 -1.1761  1.6959
15475SOL     OW53285   8.849  11.913  11.444 -0.0166  0.5728 -0.2427
15475SOL    HW153286   8.849  11.986  11.383  2.0204  1.5565  0.8340
15475SOL    HW253287   8.840  11.835  11.388  1.7654  1.4259 -1.8289
15476SOL     OW53288   7.887   9.167   9.873  0.5406  0.4386  0.0108
15476SOL    HW153289   7.830   9.108   9.924  0.6865  0.8117  0.6209
15476SOL    HW253290   7.861   9.152   9.782  1.9768 -2.0818 -0.0715
15477SOL     OW53291   5.227   0.686   9.830 -0.2265  0.0203  0.0944
15477SOL    HW153292   5.302   0.643   9.789 -0.6191 -0.6979  0.1180
15477SOL    HW253293   5.252   0.779   9.833  0.3369 -0.0987 -0.5976
15478SOL     OW53294  10.616   4.429   2.487 -0.3876  0.2506  0.3415
15478SOL    HW153295  10.558   4.356   2.508 -1.2803  0.6003 -0.7806
15478SOL    HW253296  10.688   4.391   2.438  1.1208 -0.3986  2.8853
15479SOL     OW53297   8.495   5.862   5.241 -0.1069 -0.3159  0.2880
15479SOL    HW153298   8.411   5.823   5.219 -0.8669  1.2120  0.3157
15479SOL    HW253299   8.480   5.905   5.325  0.3477  0.9315 -0.2431
15480SOL     OW53300   9.975   5.251   7.118 -0.3464 -0.6541 -0.0713
15480SOL    HW153301  10.064   5.220   7.137  1.0183  1.3144 -2.6254
15480SOL    HW253302   9.958   5.318   7.184  0.6408 -0.1306 -0.3287
15481SOL     OW53303   5.262   9.893   7.976  0.7170  0.7104  0.5578
15481SOL    HW153304   5.244   9.852   7.891 -0.0651  1.3515  0.4082
15481SOL    HW253305   5.261   9.820   8.038 -1.3049  0.5361  0.3971
15482SOL     OW53306  11.257   6.707   0.490 -0.1500  0.0682 -0.8744
15482SOL    HW153307  11.186   6.648   0.513  0.1459 -0.7249 -1.9160
15482SOL    HW253308  11.213   6.789   0.464 -0.6991 -0.4517 -1.6185
15483SOL     OW53309  12.465   4.362   9.609  0.9018  0.2984  0.2822
15483SOL    HW153310  12.469   4.347   9.703 -1.6246  0.3493  0.4515
15483SOL    HW253311  12.461   4.275   9.570 -0.1628  0.2900  0.3843
15484SOL     OW53312   6.754   8.115   7.771  0.0387  0.1861 -0.1014
15484SOL    HW153313   6.764   8.159   7.687  1.7318  1.4741  0.7269
15484SOL    HW253314   6.843   8.109   7.806 -0.5395 -1.0052  1.2699
15485SOL     OW53315  11.187   1.535   5.080  0.7324 -0.0478 -0.5483
15485SOL    HW153316  11.111   1.518   5.024  0.8228 -0.6501 -0.4917
15485SOL    HW253317  11.203   1.452   5.124  0.0999  0.6452  1.0652
15486SOL     OW53318   8.836   9.274   1.641 -0.7797  0.1691 -0.5854
15486SOL    HW153319   8.795   9.339   1.584 -1.5712  0.1167 -0.0999
15486SOL    HW253320   8.810   9.189   1.603 -0.9036  0.1385 -0.4356
15487SOL     OW53321   1.621   2.001  10.186 -0.3601  0.2828  0.2105
15487SOL    HW153322   1.590   2.034  10.101 -0.9040 -0.6794  0.0163
15487SOL    HW253323   1.716   2.012  10.183 -0.4820  1.4703  0.0187
15488SOL     OW53324  11.531   2.571   7.503  0.1198 -0.6195 -0.0974
15488SOL    HW153325  11.483   2.582   7.585 -0.8052 -1.5962 -0.4861
15488SOL    HW253326  11.587   2.649   7.498  0.0132 -0.4248  1.3246
15489SOL     OW53327   9.331   5.571   1.765  0.4229 -0.1992  0.5588
15489SOL    HW153328   9.314   5.515   1.689  0.7572 -0.3819  0.6155
15489SOL    HW253329   9.263   5.546   1.828 -1.4013  1.6576 -0.5590
15490SOL     OW53330   4.935   9.671   5.638  0.5034  0.1609 -0.0346
15490SOL    HW153331   4.891   9.754   5.616  0.4072  0.6082  1.6657
15490SOL    HW253332   4.879   9.604   5.600  0.6108  0.8689 -1.4964
15491SOL     OW53333   5.607  11.626  11.658  0.1660  0.1427  0.3612
15491SOL    HW153334   5.534  11.681  11.629  1.1339  1.4608  0.3435
15491SOL    HW253335   5.678  11.688  11.676  0.3138 -0.7424  3.4931
15492SOL     OW53336   4.740   1.351   7.509 -0.3237 -0.2837  0.2290
15492SOL    HW153337   4.681   1.276   7.508 -1.5610  0.6407  0.9495
15492SOL    HW253338   4.696   1.417   7.456  0.7961 -0.0751 -0.4872
15493SOL     OW53339   2.876   5.935   9.925 -0.0013  0.6622 -0.0232
15493SOL    HW153340   2.915   5.893   9.848  1.0946  0.8770  0.4046
15493SOL    HW253341   2.855   6.024   9.896 -1.7119  0.0783 -0.7299
15494SOL     OW53342   7.706   0.750   9.640  0.1668  0.7203 -0.1885
15494SOL    HW153343   7.779   0.747   9.578  1.5990  1.0276  1.4093
15494SOL    HW253344   7.670   0.661   9.638  1.4797  0.1610  0.0163
15495SOL     OW53345   7.033  12.205  12.446 -0.1566  0.1005  0.1969
15495SOL    HW153346   6.996  12.293  12.451  1.8053  1.0653 -1.0439
15495SOL    HW253347   6.994  12.159  12.520 -1.4572  1.9172  0.7202
15496SOL     OW53348   4.022   0.940   6.274 -0.0782  0.2315  0.3951
15496SOL    HW153349   4.013   0.935   6.369 -0.0339 -0.2066  0.3830
15496SOL    HW253350   3.943   0.983   6.244 -0.0795  0.3978  0.6339
15497SOL     OW53351   4.392   5.653   9.325  0.1206  0.3316  0.3717
15497SOL    HW153352   4.356   5.723   9.380  0.0530  0.5473  0.0527
15497SOL    HW253353   4.315   5.607   9.292  0.1708 -0.1024  0.8448
15498SOL     OW53354   7.100   9.185   0.972  0.4097  0.2421 -0.0880
15498SOL    HW153355   7.026   9.222   1.020  0.5646  0.1568  0.2123
15498SOL    HW253356   7.109   9.242   0.895 -0.4336 -0.1793 -0.5099
15499SOL     OW53357  11.024   3.856   9.113 -0.0251  0.0767  0.5334
15499SOL    HW153358  10.934   3.885   9.123 -0.4811 -1.3198  0.5923
15499SOL    HW253359  11.061   3.917   9.049 -1.0112  0.6348  0.4756
15500SOL     OW53360   6.385  11.846  11.463 -0.2851 -0.2700  0.7925
15500SOL    HW153361   6.420  11.920  11.512  1.2603  1.5270 -2.6943
15500SOL    HW253362   6.452  11.779  11.468  0.6897  0.5868 -0.2139
15501SOL     OW53363   6.398   3.686   2.668  0.1898  0.2138 -0.4719
15501SOL    HW153364   6.464   3.747   2.638  3.4625 -1.0035  3.4083
15501SOL    HW253365   6.340   3.738   2.724  1.8991  0.2300  1.3807
15502SOL     OW53366   3.462  10.926   0.785  0.4658  0.1678  0.2568
15502SOL    HW153367   3.392  10.973   0.831  0.8839  1.3833 -0.3121
15502SOL    HW253368   3.543  10.961   0.821  0.8294 -1.5238  1.2000
15503SOL     OW53369   6.514   2.534   6.191 -0.1887  0.2269 -0.1223
15503SOL    HW153370   6.540   2.476   6.263 -1.0395 -1.1121 -0.8412
15503SOL    HW253371   6.597   2.557   6.148  0.1639 -0.6855  0.0366
15504SOL     OW53372   3.892   7.511   9.109 -0.0680  0.0474 -0.0513
15504SOL    HW153373   3.826   7.479   9.048  1.9989 -1.3043 -1.7234
15504SOL    HW253374   3.920   7.434   9.157  2.0184  0.0283 -1.1707
15505SOL     OW53375   3.216   5.322   4.901 -0.1934 -0.1948 -0.0061
15505SOL    HW153376   3.310   5.326   4.881 -0.7266  0.4726 -2.7859
15505SOL    HW253377   3.208   5.365   4.986  2.1050 -1.1855  0.7995
15506SOL     OW53378  10.693   8.134   0.295  0.5040  0.3718 -0.1197
15506SOL    HW153379  10.786   8.148   0.276  1.0827 -2.6931 -0.0871
15506SOL    HW253380  10.688   8.131   0.390  0.8761 -1.7794 -0.1187
15507SOL     OW53381   9.187   5.289   6.724  0.1033 -0.0499  0.3407
15507SOL    HW153382   9.114   5.307   6.664  0.6660 -1.6971 -0.8959
15507SOL    HW253383   9.151   5.226   6.787  0.3467 -0.5929 -0.0587
15508SOL     OW53384   8.090   3.850   8.760  0.2394 -0.0973 -0.2520
15508SOL    HW153385   8.030   3.776   8.749 -0.3319  0.3260 -0.0320
15508SOL    HW253386   8.120   3.870   8.671 -0.9425  0.5019 -0.5386
15509SOL     OW53387   3.577   8.819   6.054  0.1660  0.1735 -0.0744
15509SOL    HW153388   3.552   8.753   6.118  0.8713  0.6200  0.6863
15509SOL    HW253389   3.617   8.770   5.982  0.0853 -0.2751  0.1885
15510SOL     OW53390  11.813   7.360   2.768  0.0495  0.7590  0.2611
15510SOL    HW153391  11.818   7.362   2.673  0.2582 -0.1258  0.2410
15510SOL    HW253392  11.904   7.369   2.797 -0.0835  1.7327  0.4038
15511SOL     OW53393   6.743  11.533   3.066  0.6484  0.1435  0.1330
15511SOL    HW153394   6.779  11.472   3.130 -0.1022 -0.4589 -0.0035
15511SOL    HW253395   6.651  11.508   3.059  0.7550  0.0804 -1.3095
15512SOL     OW53396   2.468   9.090   5.555  0.4259 -0.0625  0.0254
15512SOL    HW153397   2.548   9.092   5.502 -0.1652  2.9508 -1.0081
15512SOL    HW253398   2.397   9.098   5.491 -0.5801 -0.5326  1.0500
15513SOL     OW53399   2.661   4.015   3.268  0.0361  0.0167  0.4134
15513SOL    HW153400   2.684   4.105   3.245  0.3317 -0.2528 -0.4021
15513SOL    HW253401   2.746   3.973   3.284 -0.1293  0.0072  1.2917
15514SOL     OW53402  11.278   8.110   3.660 -0.0675  0.1242 -0.4490
15514SOL    HW153403  11.344   8.178   3.671  0.5890 -0.5823 -0.0083
15514SOL    HW253404  11.304   8.063   3.581 -0.9280  0.8258 -1.1738
15515SOL     OW53405   9.577  10.219   6.485 -0.2855  0.1053  0.3297
15515SOL    HW153406   9.519  10.270   6.542 -0.0478 -0.2780  0.9271
15515SOL    HW253407   9.557  10.128   6.505  0.1262 -0.0299  0.1389
15516SOL     OW53408   1.913   0.793   9.773 -0.3914 -0.3144 -0.2940
15516SOL    HW153409   1.939   0.840   9.852 -0.2480 -0.6916 -0.1153
15516SOL    HW253410   1.850   0.727   9.803  0.8368 -1.5112 -0.2315
15517SOL     OW53411   6.189   6.268  11.620  0.4233  0.0009 -0.4887
15517SOL    HW153412   6.191   6.179  11.654 -0.2601  0.3194  0.4368
15517SOL    HW253413   6.153   6.260  11.532 -0.1378 -0.5815 -0.2132
15518SOL     OW53414  11.217  12.379   1.947 -0.2604 -0.1956 -0.1050
15518SOL    HW153415  11.299  12.331   1.949 -0.2063 -0.1702 -0.9982
15518SOL    HW253416  11.163  12.339   2.015  1.1710  1.0746  1.9088
15519SOL     OW53417   3.820   2.263   0.420  0.8066  0.5169 -0.3640
15519SOL    HW153418   3.875   2.320   0.475  2.6304 -1.7753  0.3606
15519SOL    HW253419   3.766   2.215   0.483  0.7518  0.0129 -0.7901
15520SOL     OW53420   6.474   5.365   8.957 -0.5660  0.4763  0.3327
15520SOL    HW153421   6.501   5.453   8.932 -1.0134  0.5644  0.1380
15520SOL    HW253422   6.507   5.308   8.887  0.8548  0.3028  1.1087
15521SOL     OW53423  10.167   5.584   9.166 -0.2834  0.1447  0.4482
15521SOL    HW153424  10.156   5.553   9.256  0.9854 -1.3920  0.1417
15521SOL    HW253425  10.230   5.656   9.173  2.3103 -1.9618  0.5967
15522SOL     OW53426   9.239   1.740   0.252  0.1538 -0.2819 -0.6979
15522SOL    HW153427   9.150   1.775   0.245 -0.9066 -2.7479 -0.3726
15522SOL    HW253428   9.246   1.677   0.181  1.1636 -1.0762  0.0674
15523SOL     OW53429   6.301   7.822   4.282 -0.1703 -0.0997  0.5281
15523SOL    HW153430   6.330   7.875   4.209  0.4303  0.0264  0.8502
15523SOL    HW253431   6.243   7.757   4.243 -2.7425  2.1330  0.4138
15524SOL     OW53432   3.035   4.523   5.378 -0.2951 -0.4279 -0.1249
15524SOL    HW153433   2.979   4.502   5.452 -0.0333  0.4386  0.3284
15524SOL    HW253434   3.062   4.613   5.393 -0.1034 -0.2947 -1.1889
15525SOL     OW53435   1.751   5.461  10.025  0.1186  0.0210  0.2668
15525SOL    HW153436   1.819   5.419   9.972 -0.2267 -0.4492  0.1876
15525SOL    HW253437   1.687   5.392  10.041 -0.9945  0.7872 -0.7449
15526SOL     OW53438   5.527  12.052   8.832  1.1371 -0.0938  0.0510
15526SOL    HW153439   5.468  11.979   8.851  1.4766 -0.1762  0.8754
15526SOL    HW253440   5.574  12.066   8.915  0.1402  1.9255  0.3398
15527SOL     OW53441   7.201  11.963   9.264 -0.0595  0.3885  0.1826
15527SOL    HW153442   7.229  12.049   9.295 -2.0991  1.0796  0.2773
15527SOL    HW253443   7.204  11.969   9.169  0.2533  0.3930  0.1920
15528SOL     OW53444   5.617   2.276   6.360  0.6990 -0.0549  0.3977
15528SOL    HW153445   5.683   2.212   6.335 -0.4684 -0.7020 -1.2642
15528SOL    HW253446   5.656   2.360   6.337  0.7966 -0.4606 -1.0882
15529SOL     OW53447   0.029   6.848   3.644 -0.0312  0.1421  0.5512
15529SOL    HW153448   0.094   6.918   3.641 -0.7549  0.7841 -0.6673
15529SOL    HW253449  -0.011   6.857   3.730  0.2147  0.9203  0.5936
15530SOL     OW53450   6.600   1.805  11.619 -0.1964 -0.0056 -0.3297
15530SOL    HW153451   6.506   1.822  11.610 -0.6878 -1.5606  1.2425
15530SOL    HW253452   6.608   1.763  11.705  1.8346 -0.6139 -0.7770
15531SOL     OW53453   3.277   9.641   9.972  0.2501 -0.3422  0.0004
15531SOL    HW153454   3.272   9.735   9.988 -0.6142 -0.2671 -0.6575
15531SOL    HW253455   3.253   9.631   9.880 -1.6182 -1.3772  0.5513
15532SOL     OW53456   6.743   0.754   0.279  0.3988  0.2712 -0.1048
15532SOL    HW153457   6.779   0.735   0.193  0.6444 -0.9647  0.2478
15532SOL    HW253458   6.656   0.789   0.261  0.0677 -0.8686 -0.8551
15533SOL     OW53459   9.907  11.667   1.406 -0.0790 -0.4080 -0.0166
15533SOL    HW153460   9.863  11.748   1.383 -1.2093 -0.5989  1.2992
15533SOL    HW253461   9.860  11.599   1.358 -0.4826 -0.4903  0.4876
15534SOL     OW53462   2.860  10.558   6.050 -0.6499  0.5397 -0.0443
15534SOL    HW153463   2.792  10.494   6.028  1.4026 -2.0159  0.5393
15534SOL    HW253464   2.911  10.567   5.970 -0.5458  0.9845  0.0687
15535SOL     OW53465   4.574   9.909   4.807  0.4099 -0.2182  0.1795
15535SOL    HW153466   4.504   9.969   4.833  0.4941 -0.1357  0.2157
15535SOL    HW253467   4.574   9.912   4.711  1.1340  0.6788  0.1923
15536SOL     OW53468   2.047  10.956   8.507  0.2227 -0.3287 -0.0815
15536SOL    HW153469   2.117  10.893   8.492 -0.3547 -1.4189  1.4918
15536SOL    HW253470   1.977  10.928   8.448  0.7259  0.1516 -0.9239
15537SOL     OW53471   7.903   5.237   4.215 -0.2991 -0.5364 -0.0319
15537SOL    HW153472   7.860   5.301   4.273  1.2423 -0.7320  1.4139
15537SOL    HW253473   7.831   5.197   4.167 -1.4414  1.2448  0.0885
15538SOL     OW53474   3.962   8.270   8.637  0.2247  0.6536 -0.1670
15538SOL    HW153475   4.031   8.223   8.589  2.7063  4.1334 -0.3686
15538SOL    HW253476   3.972   8.239   8.727 -0.1522 -1.2154 -0.7256
15539SOL     OW53477   1.192   0.705   1.873  0.3013  0.0521  1.0619
15539SOL    HW153478   1.109   0.724   1.918 -0.3442 -0.2793  0.0488
15539SOL    HW253479   1.167   0.690   1.782  1.5420  0.3768  0.6459
15540SOL     OW53480  12.068   2.167   8.344  0.3222 -0.0001  0.5254
15540SOL    HW153481  12.154   2.167   8.302 -1.1221  2.3182 -2.9145
15540SOL    HW253482  12.020   2.096   8.301  0.2734 -0.8260  1.9140
15541SOL     OW53483   6.101  12.277  12.213  0.3489  0.2543 -0.1297
15541SOL    HW153484   6.020  12.323  12.190 -1.1993 -2.6237 -0.9444
15541SOL    HW253485   6.092  12.256  12.306 -0.5197 -1.2181 -0.5233
15542SOL     OW53486  10.977   0.988   6.077 -1.2812  1.4344 -0.3129
15542SOL    HW153487  11.012   0.918   6.131 -0.0203  2.5233  0.3484
15542SOL    HW253488  10.996   0.961   5.987 -0.5412  1.0516 -0.0506
15543SOL     OW53489   2.356  10.630   2.908  0.0084 -0.2771 -0.1657
15543SOL    HW153490   2.313  10.546   2.923  1.1981 -0.6231  1.4595
15543SOL    HW253491   2.396  10.653   2.992  1.8369  0.6878 -1.2320
15544SOL     OW53492   1.161   9.309   1.248 -0.2569 -0.3834 -0.3649
15544SOL    HW153493   1.196   9.232   1.204  1.9758  0.0649  0.5103
15544SOL    HW253494   1.127   9.277   1.332 -0.7296 -0.6162 -0.6410
15545SOL     OW53495   5.690   2.980   3.290  0.2670 -0.6534  0.6784
15545SOL    HW153496   5.762   2.978   3.227 -0.0126 -1.1148  0.3650
15545SOL    HW253497   5.625   2.920   3.253 -0.8799  0.8065  0.2200
15546SOL     OW53498   5.096   9.403  10.298 -0.1111  0.3602  0.0583
15546SOL    HW153499   5.118   9.492  10.325  1.4690  0.0969 -0.2883
15546SOL    HW253500   5.000   9.403  10.294 -0.1370  2.4351 -1.1998
15547SOL     OW53501   0.543  10.849   7.601 -0.3897  0.4110  0.4391
15547SOL    HW153502   0.508  10.864   7.514 -0.4614  0.6661  0.5101
15547SOL    HW253503   0.637  10.837   7.587 -0.4067  0.4093  0.3239
15548SOL     OW53504   2.139   8.022   8.028 -0.0802 -0.6625  0.2974
15548SOL    HW153505   2.131   8.096   7.968  1.7216  0.4173  1.3127
15548SOL    HW253506   2.053   7.979   8.023 -0.6962  0.6125 -1.4114
15549SOL     OW53507   1.741   8.212   7.943  0.0650 -0.0281  0.5291
15549SOL    HW153508   1.771   8.169   7.864 -1.4038  0.4983 -0.3626
15549SOL    HW253509   1.734   8.142   8.008 -0.3219 -0.7793 -0.3057
15550SOL     OW53510   6.843   7.061  11.765 -0.0076  0.3705  0.3667
15550SOL    HW153511   6.767   7.039  11.818 -0.1786 -1.4073 -0.5372
15550SOL    HW253512   6.816   7.139  11.717 -0.2835  1.2906  1.9513
15551SOL     OW53513   3.863  10.326   0.773  0.0745  0.2585 -0.3318
15551SOL    HW153514   3.793  10.263   0.791  0.4785  0.2182  1.2502
15551SOL    HW253515   3.845  10.399   0.832 -0.1681  1.4993 -1.8784
15552SOL     OW53516   1.457  11.932  11.145  0.4240  0.0012  0.5172
15552SOL    HW153517   1.495  11.878  11.214  1.9474  0.7759  0.3171
15552SOL    HW253518   1.401  11.872  11.096  1.3876 -1.1878  0.8271
15553SOL     OW53519   3.611  10.793  10.096 -0.1196  0.0797  0.5981
15553SOL    HW153520   3.678  10.858  10.117  0.1312 -0.0231  0.1258
15553SOL    HW253521   3.537  10.845  10.063  0.9956  0.0378 -2.2733
15554SOL     OW53522   3.632   3.112   1.071 -0.0269  0.0349  0.1319
15554SOL    HW153523   3.725   3.130   1.082 -0.1334 -0.2072  1.6160
15554SOL    HW253524   3.592   3.144   1.152 -1.1514 -0.4254 -0.2302
15555SOL     OW53525  11.928  12.021   4.670  0.2490  0.3903 -0.4299
15555SOL    HW153526  11.835  12.013   4.649 -0.1608 -1.3589  1.7038
15555SOL    HW253527  11.934  12.099   4.725 -0.3634 -0.5536  1.0592
15556SOL     OW53528   9.736   0.902   9.764 -0.4220  0.1949 -0.1461
15556SOL    HW153529   9.767   0.991   9.779 -1.3749  0.6102 -0.5725
15556SOL    HW253530   9.787   0.871   9.689 -0.9622  0.8466 -0.8034
15557SOL     OW53531   4.359   2.404   6.493  0.2885  0.1912  0.4400
15557SOL    HW153532   4.368   2.470   6.423 -1.9557  0.3795  0.2286
15557SOL    HW253533   4.371   2.454   6.574 -0.4205  0.6979  0.2512
15558SOL     OW53534   8.064   2.288   8.643 -0.2524  0.3864  0.6149
15558SOL    HW153535   7.969   2.287   8.648 -0.2252 -1.0893  1.6239
15558SOL    HW253536   8.087   2.199   8.615  0.9130 -0.2759  3.4044
15559SOL     OW53537   3.081   6.065   3.070 -0.0272  1.1306  0.2663
15559SOL    HW153538   3.046   6.098   3.153 -1.9660  0.6741 -0.3181
15559SOL    HW253539   3.134   5.989   3.095  0.1218  1.5054  1.1374
15560SOL     OW53540   8.833   4.255   9.664  0.1279 -0.2071 -0.0858
15560SOL    HW153541   8.798   4.178   9.710 -1.0185  1.7798  2.7068
15560SOL    HW253542   8.876   4.306   9.733 -3.5149  4.0421 -0.4789
15561SOL     OW53543   4.419  10.052   2.742 -0.1250  0.4991  0.2063
15561SOL    HW153544   4.339  10.000   2.751  0.3656 -0.1388  1.0653
15561SOL    HW253545   4.486   9.989   2.715  0.6891  0.4369  2.1476
15562SOL     OW53546   7.190   4.090  11.290 -0.5815 -0.3199 -0.1534
15562SOL    HW153547   7.111   4.135  11.321 -1.4383 -1.3720 -0.7493
15562SOL    HW253548   7.158   4.008  11.253  0.9944 -1.8004  1.5621
15563SOL     OW53549   7.923   3.777   9.915  0.8269 -0.2369  0.0192
15563SOL    HW153550   8.005   3.825   9.903  0.2345  1.0575  0.9507
15563SOL    HW253551   7.855   3.837   9.887  0.0756 -0.6121  0.9798
15564SOL     OW53552  11.842   6.418   3.755  0.4166  0.2442  0.3075
15564SOL    HW153553  11.768   6.367   3.788  0.3546 -0.7692 -1.2951
15564SOL    HW253554  11.805   6.473   3.686  1.2689 -1.0703 -1.2870
15565SOL     OW53555  10.490   0.414   2.340 -0.3595  0.1675 -0.3211
15565SOL    HW153556  10.419   0.358   2.309  0.5519  0.1947 -2.6037
15565SOL    HW253557  10.530   0.364   2.411 -3.5396  0.8306  2.1990
15566SOL     OW53558   2.782   4.170   0.960  0.4927 -0.0365 -0.5611
15566SOL    HW153559   2.727   4.153   0.884 -0.7662 -3.2161  0.8473
15566SOL    HW253560   2.732   4.232   1.013 -0.7530 -1.1624 -0.3608
15567SOL     OW53561   5.381   1.641  11.133 -0.6602  0.2271 -0.4027
15567SOL    HW153562   5.294   1.680  11.139 -0.1421  1.6623 -1.4602
15567SOL    HW253563   5.410   1.631  11.224 -1.5926  0.5041 -0.0694
15568SOL     OW53564  11.491   4.651   9.131  0.3691 -0.1609 -0.2886
15568SOL    HW153565  11.437   4.660   9.053 -0.1591  0.5037  0.1368
15568SOL    HW253566  11.528   4.563   9.125 -0.3751 -0.4452 -0.8370
15569SOL     OW53567  10.847  11.088   0.140 -0.1542  0.2820 -0.4210
15569SOL    HW153568  10.777  11.073   0.204 -0.6967  2.0693 -0.5502
15569SOL    HW253569  10.856  11.004   0.094 -1.2504 -0.3820  0.5209
15570SOL     OW53570   1.838  10.725  11.079  0.4609 -0.1140  0.9813
15570SOL    HW153571   1.831  10.631  11.097  0.1424 -0.6910 -1.7555
15570SOL    HW253572   1.750  10.759  11.097  0.0446 -0.7242  0.1629
15571SOL     OW53573   3.884   5.010   8.032  0.0893 -0.1460  0.4976
15571SOL    HW153574   3.795   4.990   8.063  0.9655 -2.9118  1.6206
15571SOL    HW253575   3.923   4.924   8.018  2.6921  0.9887  0.2871
15572SOL     OW53576  10.050  12.289   9.613  0.0529 -0.0036  0.0224
15572SOL    HW153577  10.023  12.380   9.607  1.9764  0.7245  1.3780
15572SOL    HW253578  10.106  12.285   9.690 -0.3652 -2.4615  0.2891
15573SOL     OW53579  10.198   5.293  11.845  0.0029  0.1033  0.4531
15573SOL    HW153580  10.277   5.275  11.896 -0.8406 -1.4053  1.3136
15573SOL    HW253581  10.184   5.213  11.794 -1.3891  0.0311  0.9156
15574SOL     OW53582   8.412   4.711   4.743 -0.0959 -0.0450  0.5801
15574SOL    HW153583   8.357   4.635   4.724 -1.7769  0.8844  1.5188
15574SOL    HW253584   8.377   4.780   4.685  1.0917  0.1639  0.0889
15575SOL     OW53585   7.546   8.311   4.923  0.3009 -0.1360  0.1951
15575SOL    HW153586   7.559   8.231   4.974 -1.5805 -0.3595  0.4100
15575SOL    HW253587   7.594   8.378   4.971 -0.6949 -0.5196  1.8099
15576SOL     OW53588  10.704   9.079   4.021  0.0810 -0.0594 -0.2966
15576SOL    HW153589  10.616   9.114   4.034  0.4274  1.3109 -1.4111
15576SOL    HW253590  10.690   8.997   3.973 -0.5544  0.6345 -1.3387
15577SOL     OW53591   4.458  11.879   6.051  0.3416  0.0127 -0.0741
15577SOL    HW153592   4.413  11.909   6.130  0.5163 -0.6791  0.2955
15577SOL    HW253593   4.550  11.873   6.077  0.6183  1.0990 -0.7301
15578SOL     OW53594   6.540   9.222   3.177  0.1742  0.0125  0.1106
15578SOL    HW153595   6.501   9.152   3.124 -1.5131  1.5019 -0.7069
15578SOL    HW253596   6.570   9.177   3.256 -1.1069 -1.5936 -0.2531
15579SOL     OW53597   3.894   9.389   5.651 -0.3336 -0.2513  0.0174
15579SOL    HW153598   3.818   9.446   5.644  0.7614  1.2674 -0.0182
15579SOL    HW253599   3.891   9.334   5.573 -0.2339  1.3126 -1.1412
15580SOL     OW53600   0.976   3.075  12.185 -0.3197  0.1004 -0.0178
15580SOL    HW153601   1.022   3.158  12.196  0.3898  0.0638 -2.1881
15580SOL    HW253602   1.041   3.008  12.206 -1.2007  0.0062  2.8224
15581SOL     OW53603   3.524   1.773  10.260 -0.0836 -0.0203 -0.5414
15581SOL    HW153604   3.616   1.749  10.245 -0.4382 -0.1754 -2.7476
15581SOL    HW253605   3.500   1.725  10.339  1.6971 -0.0780  0.0108
15582SOL     OW53606  11.281   7.459   9.110  0.4413  0.6232 -0.1329
15582SOL    HW153607  11.283   7.441   9.017  0.9973  0.0145 -0.0030
15582SOL    HW253608  11.210   7.523   9.120  0.6758  1.0387 -1.0238
15583SOL     OW53609   5.489   3.873  10.183 -0.1465 -0.4535  0.3614
15583SOL    HW153610   5.575   3.834  10.170  0.3982  0.8297 -0.0625
15583SOL    HW253611   5.506   3.967  10.187 -1.3037 -0.2627  2.1756
15584SOL     OW53612   2.967  11.621   1.324  0.1257  0.1561 -0.6613
15584SOL    HW153613   2.894  11.683   1.335  0.3743  0.4866 -0.8570
15584SOL    HW253614   2.926  11.535   1.327 -0.1369  0.2972  0.3895
15585SOL     OW53615  11.643   9.856   9.658  0.1257 -0.0189 -0.6243
15585SOL    HW153616  11.584   9.926   9.631  0.7823  0.3792 -1.0470
15585SOL    HW253617  11.682   9.887   9.740 -1.7185 -1.1421  0.7707
15586SOL     OW53618  10.413   3.055   9.089 -0.3642  0.0552 -0.8758
15586SOL    HW153619  10.370   2.973   9.063 -0.6503 -0.4254  0.9740
15586SOL    HW253620  10.506   3.035   9.089 -0.5126 -0.7894  1.1216
15587SOL     OW53621   3.659  10.955   1.943  0.1191  0.4603  0.2117
15587SOL    HW153622   3.688  10.876   1.898  0.3864  0.6427  0.0571
15587SOL    HW253623   3.567  10.939   1.963  0.1711  0.1109  0.1820
15588SOL     OW53624   5.035   5.272   5.771 -0.0751  0.2573 -0.0867
15588SOL    HW153625   5.084   5.343   5.812 -0.8251  1.0160 -0.4705
15588SOL    HW253626   5.100   5.203   5.757  0.9029  1.2506 -0.6099
15589SOL     OW53627   0.322   5.736   2.175 -0.1609  0.3676 -0.5950
15589SOL    HW153628   0.253   5.670   2.166 -0.1839  0.2753  0.1718
15589SOL    HW253629   0.277   5.815   2.204 -0.2312  0.9559 -2.1786
15590SOL     OW53630   7.899   8.020   3.385  0.3321 -0.4489 -0.2787
15590SOL    HW153631   7.991   8.043   3.367 -0.3147  4.7505  1.3633
15590SOL    HW253632   7.895   8.011   3.480 -0.7722 -1.3229 -0.3925
15591SOL     OW53633   4.436   2.065   2.102 -0.4422  0.1517 -0.3205
15591SOL    HW153634   4.514   2.063   2.047 -0.0695 -0.4066  0.2172
15591SOL    HW253635   4.405   1.975   2.102 -0.6157  0.2114  0.1424
15592SOL     OW53636   9.938   4.480   4.217 -0.1862  0.1861 -0.0675
15592SOL    HW153637   9.875   4.423   4.172  0.4171 -0.3058 -0.3094
15592SOL    HW253638  10.007   4.494   4.152  0.6591 -0.4729  0.6772
15593SOL     OW53639   9.226   4.680   7.677 -0.3123  0.4725  0.4021
15593SOL    HW153640   9.308   4.658   7.722 -0.2514 -1.2896 -0.4945
15593SOL    HW253641   9.248   4.756   7.623  0.8462 -0.1770 -0.0756
15594SOL     OW53642   1.210  10.502   8.120  0.5397 -1.2261  0.1527
15594SOL    HW153643   1.290  10.517   8.171  1.1911 -2.2382 -0.5233
15594SOL    HW253644   1.144  10.555   8.163  2.1822  1.9885 -0.9813
15595SOL     OW53645   7.035   4.246   8.515 -0.5548 -0.2020  0.2202
15595SOL    HW153646   7.085   4.325   8.494 -0.6580 -0.1881  0.0284
15595SOL    HW253647   7.100   4.187   8.554 -0.1902 -0.5318 -0.8565
15596SOL     OW53648   9.217   3.247   0.113 -0.3380 -0.2413 -0.1032
15596SOL    HW153649   9.198   3.191   0.188 -2.4992  1.3560  0.6340
15596SOL    HW253650   9.153   3.317   0.118  0.9335  1.1962 -2.1646
15597SOL     OW53651  12.369   1.615   2.694  0.4420  0.4851  0.1988
15597SOL    HW153652  12.424   1.690   2.716  1.2495 -0.0247 -0.0434
15597SOL    HW253653  12.351   1.573   2.778  0.3130  0.7165  0.2891
15598SOL     OW53654   6.841   2.491   3.220 -0.0324  0.2815  0.0332
15598SOL    HW153655   6.862   2.564   3.278 -2.1921  0.1329  1.1000
15598SOL    HW253656   6.898   2.420   3.251  0.4277  0.8438  0.5037
15599SOL     OW53657   5.982   3.342  10.761  0.2769 -0.3958  0.7393
15599SOL    HW153658   6.005   3.376  10.674  0.2521  0.1307  0.9336
15599SOL    HW253659   5.894   3.307  10.749 -1.2988  2.9344  1.3480
15600SOL     OW53660   3.883   4.394   8.546 -0.0259  0.0935  0.2528
15600SOL    HW153661   3.899   4.335   8.620 -0.3568  0.6052  0.7435
15600SOL    HW253662   3.912   4.345   8.469 -1.2117 -1.1030  0.5311
15601SOL     OW53663   6.365   7.999   1.727  0.4428  0.3289 -0.1388
15601SOL    HW153664   6.296   8.063   1.715 -0.0862 -0.3740 -1.0027
15601SOL    HW253665   6.327   7.932   1.784  0.1161 -0.4506 -1.2389
15602SOL     OW53666  10.062   7.238   4.983  0.1403  0.0779 -0.1922
15602SOL    HW153667   9.995   7.260   4.918 -0.5235 -0.3412  0.3447
15602SOL    HW253668  10.144   7.239   4.934 -0.2056  0.9836 -0.7779
15603SOL     OW53669   9.631   6.061   2.725 -0.1691  0.3711 -0.2241
15603SOL    HW153670   9.598   6.150   2.734  1.2864  0.8622  0.5406
15603SOL    HW253671   9.726   6.070   2.725  0.0649 -1.3121  1.5777
15604SOL     OW53672   6.956   2.622   0.364 -0.1942 -0.1350  0.2733
15604SOL    HW153673   6.895   2.692   0.340 -0.0941  0.4601  1.6119
15604SOL    HW253674   7.006   2.605   0.285  0.3027  1.8751  0.0811
15605SOL     OW53675   4.871  10.638   7.314 -0.1323  0.6856 -0.0247
15605SOL    HW153676   4.907  10.725   7.330 -1.5046  1.4405 -0.9006
15605SOL    HW253677   4.842  10.608   7.400 -2.0259  2.2099 -0.0635
15606SOL     OW53678   7.035  10.842   9.491 -0.0934  0.1360 -0.2345
15606SOL    HW153679   7.004  10.793   9.567  1.9059 -2.7658 -1.0835
15606SOL    HW253680   6.976  10.816   9.420 -0.9205  1.5056 -0.0802
15607SOL     OW53681   4.032   7.390   4.713  0.1649  0.3391  0.2346
15607SOL    HW153682   3.993   7.395   4.800 -0.5909  0.7156 -0.1142
15607SOL    HW253683   4.108   7.333   4.724 -0.9260 -1.0785  0.7907
15608SOL     OW53684   2.021   3.891   6.312 -0.4640  0.3883  0.2742
15608SOL    HW153685   2.066   3.976   6.314 -1.4321  0.9066  0.4908
15608SOL    HW253686   2.063   3.844   6.240  0.4749  0.8167  0.5129
15609SOL     OW53687   1.753   6.781  11.645  0.0162  0.1539 -0.0004
15609SOL    HW153688   1.804   6.851  11.685 -1.4766  1.2122  0.1207
15609SOL    HW253689   1.818   6.729  11.596  1.2584  1.1607  0.5197
15610SOL     OW53690   9.829   7.624   5.814 -0.1062  0.1228 -0.0910
15610SOL    HW153691   9.881   7.668   5.747  0.8098  1.2595  1.3126
15610SOL    HW253692   9.751   7.594   5.768  1.8297 -1.8510 -2.3234
15611SOL     OW53693   4.159  10.770   5.732 -0.4401  0.1919 -0.8575
15611SOL    HW153694   4.082  10.823   5.751 -0.7881 -0.4140 -0.5222
15611SOL    HW253695   4.219  10.829   5.686 -0.8012  0.8751 -0.4691
15612SOL     OW53696  12.143   0.344   7.331 -0.3906 -0.2027 -0.0148
15612SOL    HW153697  12.090   0.289   7.274 -0.0459 -0.0895 -0.4503
15612SOL    HW253698  12.233   0.315   7.317 -0.1087  1.0059 -0.8862
15613SOL     OW53699   4.177   9.101   6.120 -0.1609  0.1121  0.2984
15613SOL    HW153700   4.095   9.147   6.140 -0.1016  1.0874 -1.5268
15613SOL    HW253701   4.246   9.160   6.151 -0.1219  0.5504 -0.5803
15614SOL     OW53702   2.241   6.401  12.455  0.2202  0.6870  0.1738
15614SOL    HW153703   2.166   6.443  12.497  1.5644  0.5884  2.9044
15614SOL    HW253704   2.256   6.453  12.376 -0.8508  2.6380  1.1662
15615SOL     OW53705   2.524   1.473   0.020  0.1694  0.7664  0.7811
15615SOL    HW153706   2.572   1.446  -0.058  1.3438  0.6587  1.5274
15615SOL    HW253707   2.590   1.478   0.089 -1.1792 -1.4879  2.3859
15616SOL     OW53708  12.441  10.021   0.303 -0.0388  0.0955 -0.3803
15616SOL    HW153709  12.446  10.061   0.390  0.0310  0.3011 -0.4796
15616SOL    HW253710  12.505  10.068   0.251  1.0451 -1.0619 -0.1332
15617SOL     OW53711   6.662   3.046   3.993 -0.4293 -0.3373  0.3501
15617SOL    HW153712   6.638   2.984   3.925 -0.6704 -0.5189  0.5949
15617SOL    HW253713   6.594   3.114   3.989  0.1884  0.2567 -0.3422
15618SOL     OW53714   8.515   2.900  11.430  0.4691 -0.0736  0.5233
15618SOL    HW153715   8.552   2.818  11.398  1.1088 -0.0593  1.1910
15618SOL    HW253716   8.515   2.891  11.525  0.3698  0.6253  0.5955
15619SOL     OW53717   5.196  12.374   8.156  0.1344  0.1752  0.4530
15619SOL    HW153718   5.291  12.365   8.164  0.5761  0.1829 -3.3001
15619SOL    HW253719   5.163  12.284   8.150  0.3550  0.1964 -1.5655
15620SOL     OW53720   2.509   7.802   5.420  0.1673 -0.4158 -0.2546
15620SOL    HW153721   2.459   7.760   5.351 -2.6111 -0.3898  1.5794
15620SOL    HW253722   2.547   7.730   5.470 -0.4008 -0.5681 -0.0336
15621SOL     OW53723   5.624   8.269   4.066  0.2442 -0.0176 -0.1747
15621SOL    HW153724   5.567   8.305   3.997  1.0936 -0.0307 -0.9000
15621SOL    HW253725   5.573   8.198   4.104 -1.3020  1.6261  0.9944
15622SOL     OW53726   5.019  11.035   5.091  0.1339  0.0258  0.1426
15622SOL    HW153727   5.010  11.010   4.999  0.3186  0.9151 -0.1316
15622SOL    HW253728   4.931  11.062   5.117  0.1267 -0.0067  0.1517
15623SOL     OW53729   5.530   9.581   3.153 -0.1223  0.4955 -0.1909
15623SOL    HW153730   5.599   9.581   3.086 -2.3088  3.7565 -2.8135
15623SOL    HW253731   5.562   9.643   3.219 -0.4944  2.0991 -1.4573
15624SOL     OW53732   4.675   0.301  11.795  0.0331 -0.2570  0.2233
15624SOL    HW153733   4.747   0.339  11.743 -0.1845 -1.1296 -0.7541
15624SOL    HW253734   4.715   0.281  11.880  0.6848  0.1899  0.0376
15625SOL     OW53735   4.636   7.636   5.262 -0.0446 -0.1634 -0.4183
15625SOL    HW153736   4.561   7.664   5.210 -0.9383 -1.2359  0.2381
15625SOL    HW253737   4.704   7.617   5.198 -0.5141  0.3118 -1.0688
15626SOL     OW53738   4.472   7.691  10.010  1.1007 -0.0679  0.4397
15626SOL    HW153739   4.489   7.624   9.943  0.2366  0.8658 -0.7734
15626SOL    HW253740   4.382   7.720   9.992  1.4711  1.4538  0.8870
15627SOL     OW53741   9.829   5.667   1.947 -0.3513 -0.1668  0.1529
15627SOL    HW153742   9.786   5.640   2.028 -0.9705 -2.8853 -0.9945
15627SOL    HW253743   9.759   5.663   1.881  0.8009 -1.0220 -1.0618
15628SOL     OW53744   8.717   8.779  10.984 -0.1605 -0.1979 -0.2095
15628SOL    HW153745   8.652   8.846  10.968  0.5181 -0.0008 -2.4522
15628SOL    HW253746   8.685   8.732  11.061 -1.0620  2.1331  0.9135
15629SOL     OW53747   5.213   1.123   8.792 -0.0396 -0.0953  0.3921
15629SOL    HW153748   5.224   1.052   8.856 -0.1783 -1.8549 -1.4471
15629SOL    HW253749   5.301   1.160   8.782  0.3190 -0.9312  0.3726
15630SOL     OW53750   6.602   8.666  10.493  0.2236 -0.3943 -0.0921
15630SOL    HW153751   6.582   8.735  10.430 -0.4157  0.1593  0.6966
15630SOL    HW253752   6.690   8.635  10.468  1.1590  1.7041  0.4107
15631SOL     OW53753  11.693  10.731   7.382 -0.3760  0.1120  0.2624
15631SOL    HW153754  11.663  10.643   7.405  0.8022 -0.5498 -0.6288
15631SOL    HW253755  11.702  10.776   7.466  1.3925 -1.4252  0.9595
15632SOL     OW53756   5.679   1.335  12.108  0.3678 -0.0607  0.5213
15632SOL    HW153757   5.714   1.420  12.134 -0.5009  0.1302  1.0886
15632SOL    HW253758   5.663   1.343  12.014 -0.1764  0.5718  0.6622
15633SOL     OW53759   4.209  10.533   6.206  1.0420 -0.2638 -0.1628
15633SOL    HW153760   4.258  10.454   6.182 -1.1463 -1.4943 -0.9168
15633SOL    HW253761   4.194  10.578   6.123 -1.5194 -1.4621 -0.4450
15634SOL     OW53762   1.469   9.866   4.182  0.3437 -0.1836 -0.3499
15634SOL    HW153763   1.400   9.810   4.217  1.4646 -0.8641  0.8874
15634SOL    HW253764   1.449   9.953   4.215 -0.3035 -0.2339 -0.5962
15635SOL     OW53765  11.354   5.002   7.491 -0.9243 -0.6251 -0.0421
15635SOL    HW153766  11.356   5.065   7.420 -2.5286 -0.3487  0.1222
15635SOL    HW253767  11.392   5.048   7.566 -2.0769  0.1829  0.0780
15636SOL     OW53768   7.590   2.819   1.813  0.0541 -0.0359  0.0054
15636SOL    HW153769   7.527   2.888   1.835  1.7494  0.9409  2.0664
15636SOL    HW253770   7.572   2.749   1.876  1.5254  0.6032  1.1864
15637SOL     OW53771  10.009  10.027   0.275  0.0747 -0.3436  0.4197
15637SOL    HW153772   9.919  10.058   0.277  0.9043  2.4234  0.1453
15637SOL    HW253773  10.027  10.000   0.365 -1.8582 -3.9829 -0.1373
15638SOL     OW53774   1.641  11.464  10.292  0.1288  0.3720 -0.3825
15638SOL    HW153775   1.562  11.411  10.294 -1.5900  2.7925 -0.4894
15638SOL    HW253776   1.710  11.405  10.321 -1.6461 -1.8877 -0.5022
15639SOL     OW53777   9.637   2.063   9.006  0.5975 -0.5345 -0.2116
15639SOL    HW153778   9.571   1.997   9.024  1.3322 -1.3705 -0.4760
15639SOL    HW253779   9.588   2.139   8.976 -0.5112  0.1659  3.0504
15640SOL     OW53780   6.044   5.507   8.556 -0.0416  0.4530 -0.1834
15640SOL    HW153781   5.963   5.556   8.563 -1.2409 -1.5429  0.7481
15640SOL    HW253782   6.066   5.483   8.647  1.4921  0.7579 -0.4352
15641SOL     OW53783  12.130  10.334   4.643 -0.6262 -0.0122  0.0488
15641SOL    HW153784  12.156  10.265   4.582  0.2119  0.9292 -0.6909
15641SOL    HW253785  12.069  10.388   4.594 -0.4186  0.3988  0.2367
15642SOL     OW53786   9.926   3.437  11.721 -0.0709 -0.4517 -0.0187
15642SOL    HW153787   9.970   3.516  11.752 -2.0314 -0.1628  2.3376
15642SOL    HW253788   9.967   3.366  11.769 -1.0250 -0.3560  0.9799
15643SOL     OW53789   1.250   3.629  11.438  0.0272 -0.5473 -0.5186
15643SOL    HW153790   1.206   3.656  11.358  0.2847  0.4444 -0.3321
15643SOL    HW253791   1.180   3.603  11.497 -0.1973 -0.6349 -0.8198
15644SOL     OW53792   5.706  10.807  12.243 -0.0148 -0.5742 -0.4434
15644SOL    HW153793   5.730  10.886  12.195  0.9867  0.2078  1.2504
15644SOL    HW253794   5.782  10.750  12.235  0.8167  0.1843  1.3964
15645SOL     OW53795   5.207   8.883   5.807  0.1071  0.1955 -0.3908
15645SOL    HW153796   5.248   8.969   5.798 -1.0888  0.7762 -0.5262
15645SOL    HW253797   5.114   8.902   5.819  0.1592 -0.9218  2.9434
15646SOL     OW53798   2.814   8.154   8.192 -0.0955 -0.7153 -0.1408
15646SOL    HW153799   2.726   8.122   8.174 -0.2432 -0.0666 -0.6474
15646SOL    HW253800   2.812   8.245   8.162 -0.0985  0.2068  2.4425
15647SOL     OW53801   7.357   6.667   4.837 -0.4530 -0.3197  0.0128
15647SOL    HW153802   7.419   6.739   4.844  0.7849 -1.4115  0.7069
15647SOL    HW253803   7.411   6.592   4.810 -1.5858 -1.1348 -0.0420
15648SOL     OW53804   7.028   3.390   5.405  0.4037  0.0614 -0.4020
15648SOL    HW153805   6.963   3.447   5.364  0.3490 -0.6164 -1.2812
15648SOL    HW253806   7.005   3.390   5.498 -0.8579 -0.1802 -0.7052
15649SOL     OW53807  11.079   4.354   4.799  0.3277  0.1643  0.4172
15649SOL    HW153808  11.027   4.279   4.771 -0.8712  1.4796 -1.0993
15649SOL    HW253809  11.020   4.402   4.858  0.2562  1.0025 -0.3154
15650SOL     OW53810   9.747   8.000   4.307 -0.2144 -0.3223  0.3278
15650SOL    HW153811   9.771   7.907   4.303 -1.7417 -0.7189 -0.5584
15650SOL    HW253812   9.690   8.006   4.384  1.8818  0.4414  1.9199
15651SOL     OW53813  11.409   7.605   9.992 -0.1663  0.3233  0.0175
15651SOL    HW153814  11.324   7.583  10.032 -0.0981  1.1477  0.6372
15651SOL    HW253815  11.406   7.564   9.905 -0.2806 -1.5805  0.8808
15652SOL     OW53816   5.468   3.302   6.107  0.1373 -0.5296  0.1991
15652SOL    HW153817   5.492   3.243   6.035  0.2202  0.2451 -0.4247
15652SOL    HW253818   5.409   3.366   6.068  0.6699  0.2751  0.6589
15653SOL     OW53819   0.679   6.300   7.901 -0.6532 -0.4872 -0.2622
15653SOL    HW153820   0.679   6.207   7.921 -1.4595 -0.2597  0.9043
15653SOL    HW253821   0.743   6.338   7.962 -1.3825 -0.0985  0.2766
15654SOL     OW53822  11.584   8.242   9.056  0.9567 -0.4590 -0.0550
15654SOL    HW153823  11.636   8.177   9.008  0.6535 -0.2400 -0.6821
15654SOL    HW253824  11.602   8.324   9.011 -0.0995 -0.4150 -0.4201
15655SOL     OW53825  10.022   4.691   5.104  0.4928  0.2174 -0.6688
15655SOL    HW153826   9.927   4.693   5.114  0.7851  0.3685  5.1510
15655SOL    HW253827  10.044   4.779   5.072 -1.2365  0.8538 -0.2199
15656SOL     OW53828   3.684  10.774   0.993 -0.9294 -0.1315 -0.1771
15656SOL    HW153829   3.737  10.742   0.921 -0.5809  0.3185 -0.1286
15656SOL    HW253830   3.597  10.739   0.977 -1.2952  1.3570 -1.7711
15657SOL     OW53831  12.467   7.269   1.482 -0.3653 -0.7577 -0.7034
15657SOL    HW153832  12.515   7.229   1.555  0.4445 -1.8019 -1.7837
15657SOL    HW253833  12.375   7.253   1.503 -0.2606  0.6158  1.0226
15658SOL     OW53834   8.466   2.539   3.166  0.9239 -0.0602 -0.0514
15658SOL    HW153835   8.503   2.607   3.110 -0.2336  0.7266  0.0851
15658SOL    HW253836   8.492   2.564   3.255  0.0486  0.5478  0.0546
15659SOL     OW53837  11.249   2.304   0.473  0.5753  0.1235 -0.0870
15659SOL    HW153838  11.269   2.212   0.457  0.9457  0.4669 -1.7828
15659SOL    HW253839  11.232   2.341   0.386 -3.6771  0.7734  0.7860
15660SOL     OW53840   1.930  10.398   3.696  0.2965 -0.6403  0.0454
15660SOL    HW153841   1.950  10.457   3.768 -0.1839 -1.2143  0.6591
15660SOL    HW253842   1.836  10.385   3.701  0.0701  0.1873 -1.3773
15661SOL     OW53843   2.198   5.561   0.212  0.4531 -0.2810  0.2272
15661SOL    HW153844   2.210   5.599   0.125 -0.5336  0.9347  0.5842
15661SOL    HW253845   2.283   5.523   0.234  0.7193 -0.5751 -1.2392
15662SOL     OW53846   7.229   6.183   1.595  0.2612 -0.2200  0.1605
15662SOL    HW153847   7.196   6.182   1.685 -1.4382  0.7238 -0.4061
15662SOL    HW253848   7.260   6.094   1.580 -2.0477 -1.2131  0.7970
15663SOL     OW53849   6.785   0.359   2.764  0.3524 -0.2951 -0.2081
15663SOL    HW153850   6.755   0.418   2.833  0.1540  1.0624 -1.4115
15663SOL    HW253851   6.711   0.301   2.748  0.4032 -0.6335  0.7100
15664SOL     OW53852   1.530   4.946   8.285  0.8458 -0.0749 -0.3579
15664SOL    HW153853   1.450   4.910   8.323  1.8661 -0.3137  1.6931
15664SOL    HW253854   1.579   4.870   8.255  1.3690 -0.1391  0.6247
15665SOL     OW53855   9.688   4.657   2.985  0.0185  0.4259 -0.9215
15665SOL    HW153856   9.610   4.667   3.039  0.0077 -0.1519 -0.8242
15665SOL    HW253857   9.697   4.562   2.973  1.6191  0.3580  0.4399
15666SOL     OW53858  12.424   8.812  11.140 -1.0563  0.6134  0.0969
15666SOL    HW153859  12.354   8.833  11.079 -0.9640  1.4034  0.2545
15666SOL    HW253860  12.505   8.830  11.092 -0.9605  0.0923  0.0527
15667SOL     OW53861   4.243  12.083   3.837  0.0747  0.2055  0.1338
15667SOL    HW153862   4.184  12.125   3.774 -1.8497 -2.2492  0.1378
15667SOL    HW253863   4.239  12.139   3.914 -0.5207  1.2416 -0.6208
15668SOL     OW53864   0.733   1.616  10.863 -0.4207 -0.1963  0.2328
15668SOL    HW153865   0.701   1.704  10.879  0.3896  0.1846 -0.1981
15668SOL    HW253866   0.654   1.563  10.856 -1.1187  1.0127 -2.5660
15669SOL     OW53867   6.916   3.951  10.410  0.3347  0.1526 -0.3547
15669SOL    HW153868   6.857   3.976  10.481  1.6588 -0.5905  1.0549
15669SOL    HW253869   6.927   4.032  10.360 -0.7212  0.6630  0.1942
15670SOL     OW53870   0.585   6.019   6.043  0.0934  0.3357  0.1645
15670SOL    HW153871   0.633   5.954   5.991 -2.1369 -0.5901 -0.8431
15670SOL    HW253872   0.535   5.967   6.106 -2.2897  0.9329 -1.1286
15671SOL     OW53873   0.099   8.762   4.782 -0.0062 -0.2492  0.0115
15671SOL    HW153874   0.060   8.683   4.745  1.3602 -0.0604 -1.9721
15671SOL    HW253875   0.176   8.779   4.728  1.5455  0.6820  2.3413
15672SOL     OW53876   0.075   8.288  11.146 -0.3515  0.5070 -0.2944
15672SOL    HW153877   0.152   8.329  11.108  1.1146  0.6999  2.6658
15672SOL    HW253878   0.001   8.333  11.105  1.1023  1.7582 -1.6732
15673SOL     OW53879   4.596   3.113   4.852 -0.2072 -0.2652 -0.0231
15673SOL    HW153880   4.555   3.139   4.769 -0.9359 -1.4839 -0.0523
15673SOL    HW253881   4.524   3.083   4.907  0.2223  0.8322  1.2090
15674SOL     OW53882   8.835   3.186   5.397  0.1826 -0.0130  0.2662
15674SOL    HW153883   8.855   3.155   5.308 -4.0767  1.0922 -1.2908
15674SOL    HW253884   8.854   3.280   5.394 -0.3887  0.1068  0.3891
15675SOL     OW53885   7.695   5.766   1.104  0.5248 -0.3452  0.4446
15675SOL    HW153886   7.638   5.701   1.063 -0.2161  0.3543  0.3433
15675SOL    HW253887   7.731   5.721   1.181 -1.5272 -0.2635  1.5159
15676SOL     OW53888   3.488   2.422  10.848  0.2615 -0.2237 -0.3414
15676SOL    HW153889   3.577   2.417  10.883  0.5942  0.7778 -1.0083
15676SOL    HW253890   3.483   2.350  10.785  0.0907 -1.2157  0.7672
15677SOL     OW53891  10.190   3.976   9.109  0.0907  0.0584 -0.5566
15677SOL    HW153892  10.138   3.907   9.151  0.3911  0.6691  0.8841
15677SOL    HW253893  10.131   4.051   9.105  0.7245  0.6727  0.8371
15678SOL     OW53894   3.586   3.010   3.089 -0.2636  0.5247 -0.4146
15678SOL    HW153895   3.673   2.989   3.057 -0.3495  0.7779 -0.8205
15678SOL    HW253896   3.526   2.974   3.023 -0.5015 -0.4002  0.2812
15679SOL     OW53897   6.369   0.801   6.117 -0.4340  0.3050 -0.0835
15679SOL    HW153898   6.388   0.860   6.190  1.0751  0.4472 -0.5591
15679SOL    HW253899   6.302   0.847   6.066 -0.4416  0.8737  0.4215
15680SOL     OW53900   9.686   6.384   1.843 -0.0245  0.5717 -0.1510
15680SOL    HW153901   9.708   6.477   1.844 -0.9544  0.8005  0.5498
15680SOL    HW253902   9.684   6.361   1.750  0.7247  1.1136 -0.3128
15681SOL     OW53903  10.988   8.089   2.894  0.0559 -0.3692 -0.1918
15681SOL    HW153904  11.077   8.124   2.899  0.0231 -0.3489  0.2666
15681SOL    HW253905  10.931   8.161   2.921 -0.1931 -0.0296 -1.5355
15682SOL     OW53906   4.924   8.754   1.426 -0.7097  0.5793  0.2231
15682SOL    HW153907   4.891   8.843   1.433 -1.2933  0.4165 -0.3749
15682SOL    HW253908   4.847   8.699   1.432 -0.5363  0.1811 -0.8602
15683SOL     OW53909  10.802   9.204   3.151  0.2974 -0.7724  0.0062
15683SOL    HW153910  10.779   9.233   3.062 -0.1886 -1.3222 -0.0492
15683SOL    HW253911  10.719   9.174   3.189  0.7070 -1.6148  0.2413
15684SOL     OW53912   6.895   8.592   0.473 -0.0826 -0.0692  0.0671
15684SOL    HW153913   6.899   8.619   0.381  4.9950 -0.9454 -0.2598
15684SOL    HW253914   6.931   8.667   0.521  0.4917 -0.8602  0.8978
15685SOL     OW53915   3.333   9.257   1.618  0.4783 -0.2608 -0.4714
15685SOL    HW153916   3.397   9.187   1.629 -1.0006 -2.4710 -3.8634
15685SOL    HW253917   3.376   9.319   1.559  0.5182 -0.2919 -0.4748
15686SOL     OW53918   6.410   9.898   0.256  0.2463 -0.3381 -0.2586
15686SOL    HW153919   6.448   9.835   0.195 -1.1480 -1.1180 -0.3681
15686SOL    HW253920   6.481   9.919   0.316  1.6926  0.5162 -2.1661
15687SOL     OW53921   7.583   8.379   6.031 -0.6155  0.2933  0.2597
15687SOL    HW153922   7.648   8.410   5.967 -0.8498  0.5707  0.1549
15687SOL    HW253923   7.590   8.440   6.104 -0.7786  0.3433  0.2348
15688SOL     OW53924   9.990   3.596  11.329  0.2715  0.3938 -0.2317
15688SOL    HW153925   9.995   3.509  11.288 -1.6742  0.1334 -0.0213
15688SOL    HW253926   9.998   3.578  11.423  0.4926  0.5104 -0.2285
15689SOL     OW53927  11.535   8.448   1.323 -0.2367 -0.2736  0.9279
15689SOL    HW153928  11.564   8.504   1.396 -0.0490 -0.5298  1.0536
15689SOL    HW253929  11.440   8.445   1.332 -0.3270  0.6981  0.4232
15690SOL     OW53930  11.479   1.564   7.455 -0.6231  0.0920  0.2145
15690SOL    HW153931  11.498   1.549   7.362 -2.9227  0.1647 -0.3386
15690SOL    HW253932  11.403   1.508   7.472  0.3533 -0.6551  2.3386
15691SOL     OW53933   9.978   8.067   2.037  0.2339 -0.4363  0.0346
15691SOL    HW153934  10.070   8.083   2.017  0.5901 -0.6768  1.4026
15691SOL    HW253935   9.951   8.002   1.972  1.7124 -2.1615  1.0417
15692SOL     OW53936   1.062   9.422  10.040  0.2307  0.1626  0.5093
15692SOL    HW153937   1.001   9.380  10.101 -0.1841  0.6893  0.4528
15692SOL    HW253938   1.119   9.350  10.012 -1.5859 -0.7907 -0.9980
15693SOL     OW53939   9.756   5.449   0.667 -0.1981  0.0722 -0.3755
15693SOL    HW153940   9.668   5.445   0.630 -0.6913  0.3141  0.7270
15693SOL    HW253941   9.814   5.456   0.591 -1.1867  0.8666 -1.0872
15694SOL     OW53942   5.291   8.722   8.682  0.1003 -1.1693 -0.3435
15694SOL    HW153943   5.259   8.675   8.605  1.3140 -1.7043 -0.5502
15694SOL    HW253944   5.385   8.706   8.682  0.3139 -0.0339  0.4893
15695SOL     OW53945   2.236   0.317   2.211  0.3889  0.1633 -0.5548
15695SOL    HW153946   2.206   0.407   2.202 -1.5138 -0.3946 -0.2949
15695SOL    HW253947   2.235   0.300   2.305  1.7785  0.1768 -0.5234
15696SOL     OW53948   9.151   9.071   6.668 -0.8917 -0.4670  0.8996
15696SOL    HW153949   9.222   9.129   6.695  0.0051 -1.2380  0.2436
15696SOL    HW253950   9.194   9.002   6.619 -2.1999 -0.5060 -0.2375
15697SOL     OW53951  11.690   1.336   6.514 -0.2101  0.3733 -0.3415
15697SOL    HW153952  11.699   1.285   6.433  0.1674  1.5543 -1.0545
15697SOL    HW253953  11.687   1.427   6.485  1.5169  0.9373  1.0626
15698SOL     OW53954   3.698   2.170   0.665  0.5191  0.0693  0.0111
15698SOL    HW153955   3.742   2.194   0.746  0.4249  2.3290 -0.5610
15698SOL    HW253956   3.746   2.092   0.634  1.5666  0.1396  1.3890
15699SOL     OW53957  10.936   7.593  10.477 -0.3354 -0.2907  0.9661
15699SOL    HW153958  10.958   7.513  10.525  0.2121  0.0994  1.3608
15699SOL    HW253959  10.964   7.664  10.534  2.9097  0.2206 -1.0290
15700SOL     OW53960   0.631   5.558   3.388  0.3596  0.8639  0.4322
15700SOL    HW153961   0.674   5.625   3.441  2.7694  0.6462 -1.1059
15700SOL    HW253962   0.626   5.596   3.301  1.9840 -0.9254 -0.5256
15701SOL     OW53963   8.764  11.589   6.169  0.2251  0.3452  0.3283
15701SOL    HW153964   8.795  11.674   6.200 -2.8120  1.9738 -0.6859
15701SOL    HW253965   8.690  11.569   6.226 -0.1781 -0.7660 -0.5628
15702SOL     OW53966   1.380   9.623   0.303 -0.0408 -0.3592 -0.6794
15702SOL    HW153967   1.405   9.666   0.221 -1.6271  1.2692 -0.3938
15702SOL    HW253968   1.334   9.691   0.352 -1.1741 -1.9335  0.5665
15703SOL     OW53969   1.168  10.370  10.830  0.0664  0.1258  0.1206
15703SOL    HW153970   1.134  10.287  10.797 -1.3141  0.4115  0.7684
15703SOL    HW253971   1.209  10.347  10.913  0.2069  0.0097  0.0213
15704SOL     OW53972   0.966   9.269   5.201  0.4159 -0.2985  0.4749
15704SOL    HW153973   0.994   9.262   5.292 -0.4863 -2.4461  0.6430
15704SOL    HW253974   1.009   9.348   5.169  1.5117 -0.0122  2.4786
15705SOL     OW53975   8.618   4.855  11.729  0.2678  0.3727  0.2324
15705SOL    HW153976   8.555   4.899  11.785 -1.3446 -0.6183 -0.7257
15705SOL    HW253977   8.626   4.767  11.766 -0.3709 -0.1049 -0.7197
15706SOL     OW53978   4.478   2.649  10.352  0.5527 -0.1084  0.2192
15706SOL    HW153979   4.552   2.607  10.396  0.9998  0.6559  0.2193
15706SOL    HW253980   4.514   2.678  10.268  0.6299  1.4457  0.7650
15707SOL     OW53981   9.145   1.746  12.435 -1.0712  0.2099 -0.2729
15707SOL    HW153982   9.169   1.744  12.342 -0.1409 -1.7134 -0.0433
15707SOL    HW253983   9.141   1.653  12.460 -0.3651  0.7157  1.8483
15708SOL     OW53984   8.344   8.015   8.486  0.1807 -0.2330 -0.0404
15708SOL    HW153985   8.424   7.963   8.483  0.3370 -0.2350  2.3465
15708SOL    HW253986   8.350   8.064   8.568 -1.2021  1.5701 -0.9315
15709SOL     OW53987  10.697   9.793   7.137 -0.4766 -0.1546  0.3282
15709SOL    HW153988  10.780   9.840   7.125 -0.0270  0.0644  3.3842
15709SOL    HW253989  10.630   9.860   7.124 -0.2057 -0.2303 -1.7146
15710SOL     OW53990   5.991   4.734  11.803 -0.1954 -0.3273  0.0676
15710SOL    HW153991   6.011   4.694  11.888 -0.5279 -2.5282 -0.8482
15710SOL    HW253992   6.044   4.814  11.802 -0.2786 -0.1654  2.3808
15711SOL     OW53993   0.787   6.848   4.026  0.3073 -0.6028  0.2200
15711SOL    HW153994   0.749   6.799   3.954 -0.4349 -0.6592  0.6433
15711SOL    HW253995   0.717   6.907   4.055  1.0579  0.4659 -0.0468
15712SOL     OW53996   1.303  10.635   0.143 -0.4066 -0.0280 -0.3933
15712SOL    HW153997   1.245  10.651   0.068 -0.7498 -0.5550 -0.2507
15712SOL    HW253998   1.366  10.571   0.112  1.2530  1.8649 -1.1070
15713SOL     OW53999   7.175  11.859   0.808 -0.3355  0.6163 -0.3344
15713SOL    HW154000   7.192  11.835   0.899  1.0213  0.6260 -0.5527
15713SOL    HW254001   7.250  11.914   0.784 -1.3266  1.6895 -1.0709
15714SOL     OW54002   2.134   2.818  10.874 -0.0177 -0.0282  0.2559
15714SOL    HW154003   2.177   2.858  10.798 -0.4944  0.5783  0.2979
15714SOL    HW254004   2.047   2.858  10.875 -0.7457 -1.5455 -0.0805
15715SOL     OW54005   9.528  11.892   9.052  0.6182 -0.0053 -0.2093
15715SOL    HW154006   9.512  11.857   9.140 -0.1350  2.0523  0.5575
15715SOL    HW254007   9.474  11.972   9.049 -0.4835 -0.7490 -3.0676
15716SOL     OW54008   8.220   8.134  11.767 -0.6868  0.1346 -0.2526
15716SOL    HW154009   8.222   8.168  11.678  0.2116  1.3511  0.2045
15716SOL    HW254010   8.290   8.181  11.812 -2.4533  1.1172  1.6378
15717SOL     OW54011   7.030   9.820   8.792 -0.1180 -0.1159 -0.4287
15717SOL    HW154012   7.120   9.843   8.814 -0.4084  0.7622 -0.1169
15717SOL    HW254013   7.037   9.770   8.710  0.7724 -1.4176  0.3930
15718SOL     OW54014   6.091   2.611  10.884  0.3797  0.1533 -0.2594
15718SOL    HW154015   6.075   2.531  10.935 -0.4622  0.1351 -0.5444
15718SOL    HW254016   6.010   2.625  10.836  0.8993  0.6021 -1.0121
15719SOL     OW54017   5.110   4.552   3.253 -0.1718  0.0550  0.3867
15719SOL    HW154018   5.040   4.487   3.251  0.5422 -0.7116  0.0197
15719SOL    HW254019   5.190   4.503   3.233  0.2600  1.1972 -0.8234
15720SOL     OW54020  11.620   1.412  11.337  0.1610 -0.2115  0.3933
15720SOL    HW154021  11.592   1.444  11.423 -0.6705  2.6071 -0.8095
15720SOL    HW254022  11.695   1.468  11.315 -0.3271 -0.1345 -1.1501
15721SOL     OW54023   2.092   9.255   7.588 -0.2255  0.1766 -0.3725
15721SOL    HW154024   2.144   9.241   7.667 -1.8958  0.0287  0.7406
15721SOL    HW254025   2.021   9.191   7.594  0.4504 -0.9488 -2.8130
15722SOL     OW54026   2.888   4.249   7.319 -0.0517  0.0711 -0.0494
15722SOL    HW154027   2.914   4.213   7.404 -0.5944 -0.4444 -0.0886
15722SOL    HW254028   2.968   4.287   7.283  0.2480  0.0373  0.5633
15723SOL     OW54029  12.309  10.317   3.839  0.4533  0.2459  0.3375
15723SOL    HW154030  12.306  10.272   3.755 -0.1836 -0.9815  0.9849
15723SOL    HW254031  12.366  10.392   3.824  1.0478 -0.4264 -0.9593
15724SOL     OW54032   2.625   3.235   5.519 -0.2767 -0.3557 -0.5309
15724SOL    HW154033   2.612   3.327   5.496 -0.6388  0.5154  2.6273
15724SOL    HW254034   2.697   3.206   5.464 -0.5027  1.6462 -1.9979
15725SOL     OW54035   1.295   1.872   8.495  0.0422  0.1843  0.2416
15725SOL    HW154036   1.231   1.867   8.566 -0.0425 -0.0449  0.1478
15725SOL    HW254037   1.274   1.798   8.438  0.9540 -0.4373  0.6809
15726SOL     OW54038   0.296   5.416   9.529  0.1254  0.0128 -0.3221
15726SOL    HW154039   0.297   5.364   9.610  0.8717 -0.7759 -0.8168
15726SOL    HW254040   0.209   5.456   9.527 -1.1123 -2.4929 -0.6957
15727SOL     OW54041   9.586   1.784   8.875  0.3928  0.0011  0.6752
15727SOL    HW154042   9.662   1.842   8.873  0.6183 -0.3082  0.1752
15727SOL    HW254043   9.525   1.827   8.935  1.3873 -0.3083  1.9552
15728SOL     OW54044   7.538   8.075   0.949  0.2232  0.1460 -0.2987
15728SOL    HW154045   7.496   8.056   1.033  0.6503 -1.0199 -0.3279
15728SOL    HW254046   7.607   8.009   0.942 -0.4742 -0.4573 -2.0226
15729SOL     OW54047   6.415   0.851   1.061 -0.1454  0.5555  0.5302
15729SOL    HW154048   6.329   0.842   1.103 -0.2751  0.0837  0.1641
15729SOL    HW254049   6.476   0.812   1.123  0.1991  3.3246  2.0811
15730SOL     OW54050  11.272  12.014  11.190  0.1920  0.0091  0.3303
15730SOL    HW154051  11.307  12.085  11.243 -1.3309  0.9013  0.1865
15730SOL    HW254052  11.347  11.958  11.172  1.1746  0.9201  1.4862
15731SOL     OW54053   9.475   4.385  11.182  0.3197  0.1377  0.0234
15731SOL    HW154054   9.494   4.301  11.224 -0.8726  0.2838  0.9300
15731SOL    HW254055   9.396   4.369  11.130  0.2719  0.5995 -0.0510
15732SOL     OW54056   4.241   7.224   3.993  0.0038 -0.0128 -0.1733
15732SOL    HW154057   4.151   7.253   3.975  0.4829  0.2993 -2.1917
15732SOL    HW254058   4.281   7.213   3.907  2.5737  1.9039  0.6524
15733SOL     OW54059   7.701   1.357   9.628  0.0663  0.0490 -0.3361
15733SOL    HW154060   7.723   1.395   9.713  0.8763 -0.3503 -0.3560
15733SOL    HW254061   7.758   1.280   9.622 -2.2218 -1.7764  0.1513
15734SOL     OW54062   0.792   4.549   2.210 -0.6529 -0.0569 -0.0097
15734SOL    HW154063   0.805   4.488   2.283  2.2060  0.1029 -0.2824
15734SOL    HW254064   0.795   4.494   2.132 -1.5526  0.0416 -0.1233
15735SOL     OW54065   4.515   2.345  12.118  0.0485 -0.4856  0.0257
15735SOL    HW154066   4.509   2.434  12.083 -0.3483 -0.8535 -0.8695
15735SOL    HW254067   4.428   2.330  12.156 -0.1234 -0.7508 -0.4700
15736SOL     OW54068   6.367   9.652   5.350 -0.6226  0.3406 -0.1757
15736SOL    HW154069   6.340   9.618   5.436 -0.2802 -1.0484 -0.5909
15736SOL    HW254070   6.459   9.624   5.342 -0.1972  1.7363 -0.3839
15737SOL     OW54071   5.540   3.757  10.675  0.6671 -0.0609  0.4370
15737SOL    HW154072   5.467   3.698  10.693  1.0756 -0.3302  1.2368
15737SOL    HW254073   5.498   3.840  10.650  0.0645 -0.9556 -1.8544
15738SOL     OW54074   3.544   5.882   0.811 -0.1249  0.0669  0.1120
15738SOL    HW154075   3.556   5.830   0.732  0.4941  1.0433 -0.4478
15738SOL    HW254076   3.544   5.973   0.781  2.2232  0.5741  1.4306
15739SOL     OW54077   0.422   1.132   9.091 -0.3423  0.3207 -0.9381
15739SOL    HW154078   0.346   1.163   9.042 -1.0683  0.5425  0.2964
15739SOL    HW254079   0.385   1.087   9.167  0.7320  1.3760  0.2673
15740SOL     OW54080   8.194   2.579   8.797 -0.2311 -0.1936 -0.4805
15740SOL    HW154081   8.168   2.496   8.756 -0.2567 -0.6125  0.3601
15740SOL    HW254082   8.182   2.564   8.890 -0.4107  0.8279 -0.3292
15741SOL     OW54083   1.588   6.049   3.541 -0.1170  0.2965 -0.7713
15741SOL    HW154084   1.569   6.131   3.495  0.8516  0.5847 -0.6647
15741SOL    HW254085   1.632   5.995   3.475 -1.1261 -0.3138 -0.9700
15742SOL     OW54086  12.020   5.314   6.237  0.4650 -0.0626  0.2199
15742SOL    HW154087  11.962   5.302   6.162  2.1219 -0.7892 -0.9985
15742SOL    HW254088  11.985   5.253   6.303 -0.8041  0.3299 -0.0590
15743SOL     OW54089  10.613   0.707   3.775 -0.0559  0.7339  0.5976
15743SOL    HW154090  10.695   0.667   3.805 -0.0149  0.0352 -0.4096
15743SOL    HW254091  10.614   0.697   3.680 -1.5268  0.2821  0.6030
15744SOL     OW54092   5.156   2.070   6.881  0.4345 -0.2412 -0.6036
15744SOL    HW154093   5.231   2.094   6.935 -0.9369 -1.0493  1.7933
15744SOL    HW254094   5.102   2.148   6.878 -0.3351 -0.7014  0.7288
15745SOL     OW54095   9.349  10.239   0.260  0.2118  0.3253  0.1147
15745SOL    HW154096   9.378  10.261   0.171  0.1155  2.3155  0.5438
15745SOL    HW254097   9.258  10.209   0.249  0.0851  0.8971 -0.4182
15746SOL     OW54098   5.799   5.624   5.673 -0.3324 -0.5166 -0.1022
15746SOL    HW154099   5.832   5.656   5.757 -1.1142 -0.7798  0.3139
15746SOL    HW254100   5.871   5.570   5.639 -0.9733 -2.6948  1.7041
15747SOL     OW54101   7.817  10.583   7.576  0.0772 -0.2314  0.2570
15747SOL    HW154102   7.860  10.663   7.605  0.4329 -0.3040 -0.0725
15747SOL    HW254103   7.747  10.570   7.640  0.6601 -0.2223  0.9103
15748SOL     OW54104   4.212   8.318  11.794  0.1872 -0.2882 -0.5365
15748SOL    HW154105   4.238   8.410  11.786 -1.5910  0.2724 -0.3439
15748SOL    HW254106   4.270   8.283  11.862 -0.0648  1.0845  0.4313
15749SOL     OW54107   9.600   8.014   0.747  0.1434 -0.0706  0.9128
15749SOL    HW154108   9.536   7.943   0.734  0.4387 -0.0213 -1.1606
15749SOL    HW254109   9.579   8.078   0.679  2.9219 -0.4527 -0.4308
15750SOL     OW54110  11.106   0.216  11.321 -1.1129  0.1926 -0.1824
15750SOL    HW154111  11.038   0.233  11.256 -1.3275  1.6157  0.3863
15750SOL    HW254112  11.082   0.271  11.395 -0.1896 -0.4763  0.6309
15751SOL     OW54113  12.207   1.718   1.561  0.3003  0.0334 -0.4136
15751SOL    HW154114  12.233   1.803   1.526  2.3261  0.1547  1.1874
15751SOL    HW254115  12.122   1.734   1.602 -0.7463  0.5378 -2.6421
15752SOL     OW54116   1.619   6.924  10.600  0.0351  0.4844  0.1054
15752SOL    HW154117   1.536   6.888  10.632  0.6478 -1.5369 -0.4463
15752SOL    HW254118   1.658   6.966  10.677  0.0620 -1.5968  1.3193
15753SOL     OW54119  10.172   8.200   8.613  0.6900 -0.0311  0.4219
15753SOL    HW154120  10.117   8.230   8.540  1.3598 -1.4242 -0.7274
15753SOL    HW254121  10.261   8.208   8.579  0.9899 -6.4830 -1.6084
15754SOL     OW54122   1.361   6.914  11.769 -0.0828  0.2515 -0.0112
15754SOL    HW154123   1.336   6.823  11.751  0.1328  0.2953 -0.5465
15754SOL    HW254124   1.449   6.908  11.805 -0.3953  0.1880  0.7665
15755SOL     OW54125   5.517   2.465  10.688 -0.1688  0.2574 -0.0933
15755SOL    HW154126   5.473   2.521  10.623  0.0827  1.6566  0.8956
15755SOL    HW254127   5.602   2.507  10.702  0.0200 -0.3659  0.6974
15756SOL     OW54128   2.477   0.738   1.521 -0.2210  0.4033  0.3713
15756SOL    HW154129   2.517   0.819   1.553 -1.8782  0.1082  3.5359
15756SOL    HW254130   2.445   0.695   1.599  0.9145 -3.5944 -1.1438
15757SOL     OW54131  10.246   0.426   3.047 -0.0251 -0.3792  0.0858
15757SOL    HW154132  10.283   0.434   2.959  1.2579 -1.6355  0.4776
15757SOL    HW254133  10.168   0.371   3.035  0.1377 -0.5357 -0.2745
15758SOL     OW54134  10.397   3.423   9.568 -0.2173 -0.6126 -0.1130
15758SOL    HW154135  10.357   3.377   9.642  0.5309  1.0959  1.4359
15758SOL    HW254136  10.491   3.416   9.585 -0.0119 -0.5400 -1.1602
15759SOL     OW54137   0.142   3.106   5.603  0.0221 -0.4830  0.3921
15759SOL    HW154138   0.092   3.133   5.681  1.3451  0.1097  1.0561
15759SOL    HW254139   0.109   3.163   5.533 -0.6680 -0.5288  0.6673
15760SOL     OW54140   4.178   5.294   0.744  0.0540 -0.1687 -0.1073
15760SOL    HW154141   4.169   5.337   0.659  1.2421  1.1749  0.4049
15760SOL    HW254142   4.233   5.218   0.727  0.8183  0.4477 -0.4445
15761SOL     OW54143   5.511   8.050   7.588  0.0519 -0.9689  0.2641
15761SOL    HW154144   5.584   8.023   7.532  0.7610  0.2391  0.5802
15761SOL    HW254145   5.550   8.059   7.675 -0.4892 -0.3621  0.4453
15762SOL     OW54146   2.335  10.546  12.404  0.8908 -0.2012 -0.5518
15762SOL    HW154147   2.289  10.630  12.409  0.1259 -0.6085 -0.6104
15762SOL    HW254148   2.376  10.536  12.490  1.3976  0.4643 -0.7153
15763SOL     OW54149   6.689   1.143   3.710 -0.2270 -0.5409  0.2275
15763SOL    HW154150   6.737   1.191   3.642 -1.3550 -0.1449 -0.3042
15763SOL    HW254151   6.677   1.207   3.780  0.5158 -0.8110  0.6129
15764SOL     OW54152   4.550   1.280   9.561  0.6040  0.1120  0.1104
15764SOL    HW154153   4.558   1.300   9.655  1.6623 -0.3688  0.1326
15764SOL    HW254154   4.591   1.194   9.551 -0.9086 -0.5706 -0.5442
15765SOL     OW54155  10.081  12.436  11.017 -0.2127  0.7559  0.3707
15765SOL    HW154156  10.022  12.487  11.073 -1.5046  1.0239 -1.1704
15765SOL    HW254157  10.122  12.501  10.960  1.3897  0.5348  1.1842
15766SOL     OW54158   8.900   6.553   1.622 -0.5168  0.5365  0.1369
15766SOL    HW154159   8.852   6.518   1.696  0.2718  0.5677  0.6828
15766SOL    HW254160   8.952   6.625   1.659 -0.0013  0.4569 -0.4141
15767SOL     OW54161   8.612  10.696   2.972  0.1943  0.0776 -0.0619
15767SOL    HW154162   8.564  10.719   2.892  2.0294 -0.1963 -1.2851
15767SOL    HW254163   8.670  10.625   2.947  1.0103  0.1505  1.4591
15768SOL     OW54164  10.997  10.843   8.994 -0.2501 -0.1403  0.2164
15768SOL    HW154165  11.030  10.795   8.918 -0.4570  1.7565 -1.1502
15768SOL    HW254166  10.903  10.823   8.997 -0.1750 -0.4952  0.1947
15769SOL     OW54167  11.123  11.444  11.672  0.0876 -0.0228  0.0093
15769SOL    HW154168  11.185  11.372  11.679 -0.3595 -0.2780  1.8441
15769SOL    HW254169  11.127  11.487  11.758 -1.1950  0.8417 -0.3376
15770SOL     OW54170  11.016  11.741  11.707  0.3639 -0.0323 -0.2956
15770SOL    HW154171  10.991  11.829  11.678  3.4109  0.3636 -2.1481
15770SOL    HW254172  11.057  11.755  11.792 -1.7077 -0.1374  0.7828
15771SOL     OW54173   2.615   5.229   4.471 -0.2310  0.4562  0.0938
15771SOL    HW154174   2.697   5.272   4.445 -1.5946  2.1562 -1.7515
15771SOL    HW254175   2.643   5.157   4.528  2.5531  0.7214 -0.7526
15772SOL     OW54176   9.310  11.515   7.692  0.2552  0.1066  0.2355
15772SOL    HW154177   9.278  11.451   7.629 -0.7921  1.9675 -1.2572
15772SOL    HW254178   9.231  11.555   7.728  0.8045  2.1851 -0.7033
15773SOL     OW54179   3.177   0.139   9.669  0.1641 -0.3223  0.2854
15773SOL    HW154180   3.165   0.197   9.745  0.9789 -0.2292  0.3462
15773SOL    HW254181   3.261   0.164   9.632 -0.9198  0.7308 -1.6247
15774SOL     OW54182   7.257   8.172   4.595 -0.1498  0.3163 -0.0107
15774SOL    HW154183   7.321   8.129   4.652  0.5159  1.7737  0.4137
15774SOL    HW254184   7.176   8.172   4.645 -0.4701 -1.3630 -0.4643
15775SOL     OW54185  10.778   2.921   5.315  0.6869 -0.2111  0.1710
15775SOL    HW154186  10.765   2.905   5.222 -0.6500 -0.4850  0.3770
15775SOL    HW254187  10.699   2.885   5.356  0.6140  1.1245  1.2745
15776SOL     OW54188   4.790   4.319   6.196  0.6190 -0.0375 -0.0274
15776SOL    HW154189   4.780   4.302   6.103 -1.0311 -0.2880  0.1610
15776SOL    HW254190   4.751   4.406   6.209 -0.4274 -0.5720  0.6105
15777SOL     OW54191  12.208  11.068   6.519  0.1670 -0.4729  0.0433
15777SOL    HW154192  12.186  11.150   6.563 -1.9886 -1.1733  0.3964
15777SOL    HW254193  12.300  11.078   6.493  0.2089  1.6805  0.8472
15778SOL     OW54194   5.279   3.349   5.449 -0.9053 -0.2610  0.4081
15778SOL    HW154195   5.237   3.389   5.373 -0.3476  0.6397  0.5601
15778SOL    HW254196   5.289   3.421   5.511 -0.5625 -0.8042  0.9916
15779SOL     OW54197   9.120   9.842   2.124  0.0823 -0.1010  0.6938
15779SOL    HW154198   9.202   9.855   2.075  1.0260 -0.7331  2.0544
15779SOL    HW254199   9.076   9.926   2.119  0.4230  0.0201 -0.7471
15780SOL     OW54200   2.284   9.688   9.721  0.3539 -0.4875  0.3046
15780SOL    HW154201   2.208   9.743   9.736  0.1428 -0.6949  0.0087
15780SOL    HW254202   2.268   9.610   9.774 -0.3644 -1.1958 -0.8993
15781SOL     OW54203   6.014   4.652   9.314  0.1481 -0.4976 -0.1659
15781SOL    HW154204   6.036   4.655   9.221  0.3750  0.9386 -0.0939
15781SOL    HW254205   6.022   4.560   9.338 -0.4906 -0.9683 -1.6959
15782SOL     OW54206  12.403   1.463   2.935  0.0231  0.3122  0.4301
15782SOL    HW154207  12.490   1.477   2.973  0.1624 -0.5411  0.4389
15782SOL    HW254208  12.356   1.413   3.001 -0.3065  0.3179  0.1995
15783SOL     OW54209   7.583   9.857  12.319 -0.0732  0.3100 -0.7934
15783SOL    HW154210   7.594   9.769  12.283 -2.0793 -0.6261  0.7394
15783SOL    HW254211   7.489   9.874  12.314 -0.3449  0.5759  2.8402
15784SOL     OW54212   1.298   2.140  11.751 -0.5150 -0.1848 -0.4590
15784SOL    HW154213   1.308   2.154  11.657 -1.6134 -0.9947 -0.7155
15784SOL    HW254214   1.240   2.064  11.758  0.9637 -1.2303  0.8772
15785SOL     OW54215   6.239   7.394   8.335  0.0841  0.4887 -0.2568
15785SOL    HW154216   6.260   7.312   8.380 -0.0984  1.0818  0.9507
15785SOL    HW254217   6.159   7.375   8.287  1.2821 -0.7056 -1.8891
15786SOL     OW54218  10.089   3.137   5.616 -0.0990  1.0175 -0.2155
15786SOL    HW154219  10.170   3.130   5.565  1.1077  2.3459  1.3829
15786SOL    HW254220  10.023   3.093   5.563  1.6883 -0.2399 -1.5379
15787SOL     OW54221   0.320  11.055   2.510  0.0896  0.1031  0.1299
15787SOL    HW154222   0.356  11.020   2.428 -0.1535 -0.4542  0.2518
15787SOL    HW254223   0.284  10.978   2.554 -0.9758  0.5936  0.1459
15788SOL     OW54224   2.540   2.053  11.762 -0.8602  0.2782 -0.0586
15788SOL    HW154225   2.466   2.076  11.820 -1.0797  0.4691 -0.4123
15788SOL    HW254226   2.526   2.105  11.683 -1.0895 -0.7022 -0.6793
15789SOL     OW54227   0.453   6.342  12.408 -0.2865 -0.0507 -0.4970
15789SOL    HW154228   0.539   6.358  12.370 -0.9647  0.6257 -1.8292
15789SOL    HW254229   0.446   6.247  12.414 -0.1938 -0.2009 -2.2360
15790SOL     OW54230   5.325  11.950   9.115 -0.0692 -0.1429 -0.5669
15790SOL    HW154231   5.323  11.865   9.160  0.5199  0.0439 -0.1666
15790SOL    HW254232   5.312  11.929   9.023 -2.2358 -0.4571 -0.2478
15791SOL     OW54233   3.189   5.207   3.386  0.1237  0.1236  0.9358
15791SOL    HW154234   3.206   5.280   3.445 -0.0230  1.8622 -1.0536
15791SOL    HW254235   3.100   5.179   3.407 -0.3377  1.4554  0.8103
15792SOL     OW54236   3.962   2.101  11.029  0.5162  0.1535 -0.9306
15792SOL    HW154237   3.968   2.149  10.947 -1.1700 -0.8037 -1.6603
15792SOL    HW254238   4.016   2.023  11.016  1.4826  0.7452 -0.5479
15793SOL     OW54239  11.755   2.530   1.673  0.5669  0.2141  0.0832
15793SOL    HW154240  11.665   2.521   1.705  0.5189  1.9686  0.5017
15793SOL    HW254241  11.749   2.509   1.580 -0.3466  0.6290  0.0357
15794SOL     OW54242   3.546   5.703   9.261  0.5417 -0.1385 -0.1170
15794SOL    HW154243   3.581   5.624   9.302 -1.4277 -0.5946  0.7939
15794SOL    HW254244   3.579   5.700   9.172 -1.0229 -3.0757 -0.7267
15795SOL     OW54245   3.606   8.287   0.720 -0.4271  0.7162 -0.2675
15795SOL    HW154246   3.630   8.278   0.812 -0.2244 -1.0104 -0.4600
15795SOL    HW254247   3.667   8.352   0.686  0.8291 -0.0767  0.3825
15796SOL     OW54248   8.333   0.208   5.144  0.1689 -0.5979  0.1118
15796SOL    HW154249   8.297   0.207   5.232 -2.3496 -1.2425 -0.8430
15796SOL    HW254250   8.419   0.166   5.152 -0.2036 -1.0504  2.1417
15797SOL     OW54251   4.118  10.756   3.974 -0.1362  0.3706 -0.0923
15797SOL    HW154252   4.115  10.666   4.006 -1.5276  0.3665 -0.1798
15797SOL    HW254253   4.085  10.809   4.046 -0.0067  0.7329 -0.2949
15798SOL     OW54254   6.868   9.796  10.522  0.1902  0.1971  0.6927
15798SOL    HW154255   6.792   9.742  10.502 -0.2857  0.9696  0.3770
15798SOL    HW254256   6.929   9.780  10.450 -1.1590  2.3004 -1.0198
15799SOL     OW54257   3.311   3.922   9.577 -0.1910 -0.0018 -0.0048
15799SOL    HW154258   3.364   4.002   9.573 -1.0943  0.5705 -1.1399
15799SOL    HW254259   3.361   3.859   9.525 -0.7656  0.6631 -1.4342
15800SOL     OW54260  11.237   8.422   3.264  0.0045 -0.6386  0.1116
15800SOL    HW154261  11.143   8.440   3.260 -0.4722 -2.9648 -0.5038
15800SOL    HW254262  11.253   8.399   3.356 -0.3811 -1.7157 -0.0683
15801SOL     OW54263   6.214   0.770   1.279  0.4105 -0.2745  0.4641
15801SOL    HW154264   6.149   0.735   1.218  0.5565  0.9286 -0.4115
15801SOL    HW254265   6.207   0.714   1.357 -3.1844  1.0670  1.2788
15802SOL     OW54266   4.421   8.061   8.305  0.3489  0.4074  0.6444
15802SOL    HW154267   4.400   8.100   8.220  0.4197  0.1051  0.4859
15802SOL    HW254268   4.412   7.967   8.291 -0.0638  0.3789  1.0893
15803SOL     OW54269   2.590   3.787  11.407  0.3775  0.0257 -0.4743
15803SOL    HW154270   2.643   3.728  11.461  0.1391 -0.1342 -0.4092
15803SOL    HW254271   2.502   3.779  11.445  0.6202  1.5469  0.4832
15804SOL     OW54272   7.293   1.155   0.626 -0.0214 -0.3060 -0.0249
15804SOL    HW154273   7.239   1.120   0.696 -0.0663 -2.0380 -0.8688
15804SOL    HW254274   7.380   1.164   0.665 -0.5895  1.3182  0.9762
15805SOL     OW54275   3.679   4.645   6.152  0.2866 -0.2187 -0.5788
15805SOL    HW154276   3.692   4.660   6.246 -3.0888 -0.5514  0.0671
15805SOL    HW254277   3.750   4.693   6.111  0.3409  2.2975  2.0864
15806SOL     OW54278   0.352   5.615  10.607 -0.3212  0.2741  0.2135
15806SOL    HW154279   0.397   5.550  10.660 -0.5938 -0.3029 -0.2592
15806SOL    HW254280   0.268   5.575  10.585  0.0599  0.2156 -1.2311
15807SOL     OW54281   4.260  11.952  10.176  0.3536  0.2247 -0.5196
15807SOL    HW154282   4.332  11.951  10.240  0.9724 -0.3466 -1.2170
15807SOL    HW254283   4.304  11.963  10.092 -0.4925  1.4766 -0.8202
15808SOL     OW54284   7.700   5.578   7.652  0.0663  0.6558  0.0560
15808SOL    HW154285   7.638   5.506   7.644  2.6305 -1.6783 -0.3929
15808SOL    HW254286   7.714   5.587   7.747 -1.2977  1.5674  0.1885
15809SOL     OW54287   6.960   4.569   0.633  0.3388  0.7655 -0.0393
15809SOL    HW154288   6.938   4.646   0.581  0.3625 -0.0960 -1.3754
15809SOL    HW254289   7.000   4.508   0.571 -1.8536 -1.3110  0.4273
15810SOL     OW54290   8.125   8.535  12.242  0.4029  0.1980  0.0777
15810SOL    HW154291   8.112   8.500  12.153 -1.8093  0.0302  0.4114
15810SOL    HW254292   8.046   8.586  12.259  1.5277  1.5872  1.3646
15811SOL     OW54293   9.955   8.525   9.551  0.8142 -0.0734 -0.0470
15811SOL    HW154294  10.017   8.541   9.480  2.4027 -0.2483  1.2545
15811SOL    HW254295   9.871   8.512   9.506  2.1146 -2.2805 -2.0682
15812SOL     OW54296   4.725  10.043  12.046 -0.1948  0.0071 -0.0384
15812SOL    HW154297   4.686   9.968  12.091 -1.1223  1.3384  1.4691
15812SOL    HW254298   4.707  10.117  12.104  0.6931  1.3978 -1.4902
15813SOL     OW54299   4.887   1.449   5.639  0.6393 -0.0190  0.1308
15813SOL    HW154300   4.854   1.539   5.643 -2.4016 -0.8540 -2.1622
15813SOL    HW254301   4.930   1.443   5.554  0.2393 -0.8911 -0.0137
15814SOL     OW54302   2.590   3.869   2.752 -0.0236 -0.1226  0.0131
15814SOL    HW154303   2.549   3.956   2.749  0.6926  0.2439  0.3801
15814SOL    HW254304   2.595   3.848   2.845  0.5749 -0.1727 -0.0251
15815SOL     OW54305   6.136  11.296   7.576  0.0587 -0.3361  0.7871
15815SOL    HW154306   6.227  11.307   7.605  0.7212 -1.6197 -0.6328
15815SOL    HW254307   6.136  11.212   7.530 -1.1688  0.9580 -1.7942
15816SOL     OW54308  11.207   7.422   0.383 -0.2160 -0.4094  0.2458
15816SOL    HW154309  11.290   7.383   0.413 -0.3021 -0.5720  0.2754
15816SOL    HW254310  11.221   7.440   0.291  0.6182  1.5785  0.7191
15817SOL     OW54311  11.617  11.507   1.616 -0.1996  0.4521  0.0354
15817SOL    HW154312  11.567  11.504   1.698 -1.5213  1.4239 -0.6950
15817SOL    HW254313  11.616  11.416   1.585 -0.9492  0.3293  0.3801
15818SOL     OW54314   5.025  10.455   7.175 -0.0695 -0.4763  0.7620
15818SOL    HW154315   5.109  10.501   7.172 -0.3523  0.0166 -1.1384
15818SOL    HW254316   4.965  10.519   7.213  0.2395 -0.5529  1.3958
15819SOL     OW54317   3.215   0.311   3.202  0.1437  0.2832  0.1523
15819SOL    HW154318   3.182   0.280   3.117 -0.1334  0.2596  0.2668
15819SOL    HW254319   3.217   0.233   3.257 -1.7498  0.6516  0.8207
15820SOL     OW54320   7.199   6.122   9.367  0.6226 -0.5969  0.2351
15820SOL    HW154321   7.135   6.099   9.300  1.0491  0.2154 -0.4723
15820SOL    HW254322   7.277   6.147   9.318  0.8869  0.1839  1.0304
15821SOL     OW54323   3.347  11.583   4.461  0.3509  0.1130 -0.2867
15821SOL    HW154324   3.342  11.507   4.403  0.8365  1.7605 -2.6956
15821SOL    HW254325   3.431  11.624   4.438  0.0892  1.3799  0.9108
15822SOL     OW54326   8.875   5.802   8.210  0.3469 -0.5624 -0.3103
15822SOL    HW154327   8.962   5.828   8.181  0.4752  0.2109  0.6967
15822SOL    HW254328   8.830   5.885   8.228 -0.1562 -0.9847  0.4317
15823SOL     OW54329   5.030   0.379   4.146 -0.2745 -0.1759  0.3688
15823SOL    HW154330   5.085   0.456   4.156 -1.3704  0.6105  0.4999
15823SOL    HW254331   5.081   0.308   4.185 -0.1537  0.8840  2.2555
15824SOL     OW54332   8.424   2.829   9.569  0.1442  0.1853 -0.0507
15824SOL    HW154333   8.395   2.775   9.643  2.1267 -0.9125 -0.0140
15824SOL    HW254334   8.376   2.911   9.580 -1.2515 -0.7410  1.1979
15825SOL     OW54335  11.967  11.638   0.472  0.0859 -0.3025  0.5379
15825SOL    HW154336  11.900  11.700   0.499 -1.0907 -1.1184 -0.3976
15825SOL    HW254337  11.974  11.650   0.377  1.0547 -0.4349  0.5814
15826SOL     OW54338   9.937   1.670   9.445  0.5731 -0.1299 -0.6878
15826SOL    HW154339   9.857   1.655   9.394  0.0300 -0.2960  0.2017
15826SOL    HW254340   9.988   1.730   9.391 -0.7787  1.1237 -0.6543
15827SOL     OW54341   2.845   7.769   8.673  0.4108  0.1211 -0.1720
15827SOL    HW154342   2.851   7.846   8.729  0.4594 -0.6464  0.9326
15827SOL    HW254343   2.936   7.747   8.653  0.4869 -0.4280  0.6772
15828SOL     OW54344  12.294   4.357   6.973  0.0458  0.0116 -0.1068
15828SOL    HW154345  12.334   4.426   7.026  0.7579  1.0381 -1.8651
15828SOL    HW254346  12.238   4.309   7.033  0.9721  0.9718  1.5890
15829SOL     OW54347   3.624   3.568  10.629  0.1656  0.1062 -0.0353
15829SOL    HW154348   3.695   3.629  10.608 -0.1523  0.1754 -0.9426
15829SOL    HW254349   3.561   3.620  10.679  0.0125  0.4635 -0.5906
15830SOL     OW54350   5.229  11.079  10.083 -0.2273 -0.0654 -0.3633
15830SOL    HW154351   5.206  10.986  10.076 -0.8930  0.2014 -2.5511
15830SOL    HW254352   5.316  11.085  10.043  0.4126  0.0776  1.0034
15831SOL     OW54353   7.984   8.315   0.962 -0.3080  0.3577 -0.0897
15831SOL    HW154354   7.906   8.342   1.009  0.8357 -0.0181  2.1236
15831SOL    HW254355   7.960   8.231   0.923 -0.6075 -0.4806  1.7951
15832SOL     OW54356   7.067   0.417   9.479 -0.2694 -0.3082 -0.0186
15832SOL    HW154357   7.030   0.475   9.545  2.3996  0.6206  0.7761
15832SOL    HW254358   7.026   0.446   9.397 -0.5494  1.3115  0.6497
15833SOL     OW54359   3.704   9.036   1.106 -0.2938 -0.2738 -0.0779
15833SOL    HW154360   3.658   9.072   1.030  0.9930  0.2667 -0.6362
15833SOL    HW254361   3.640   9.040   1.177 -0.5902  2.1044 -0.3839
15834SOL     OW54362   1.957   4.017  10.880 -0.0430 -0.3459  0.0665
15834SOL    HW154363   1.953   3.936  10.828 -1.1274 -0.7641  0.7613
15834SOL    HW254364   1.951   3.987  10.971  2.7949  0.2965  0.5473
15835SOL     OW54365   3.579  11.435   2.767 -0.4079 -0.1828 -0.0368
15835SOL    HW154366   3.616  11.440   2.855  2.4876 -3.9924 -0.7482
15835SOL    HW254367   3.498  11.384   2.777  0.8357 -2.2063  0.3850
15836SOL     OW54368   0.530   1.281  11.574  0.4539  0.2865 -0.2623
15836SOL    HW154369   0.608   1.337  11.575  0.6304  0.0416  0.9874
15836SOL    HW254370   0.513   1.262  11.666 -2.3510  2.1123 -0.2523
15837SOL     OW54371   7.877   9.346   7.671 -0.7723 -0.0750 -0.0835
15837SOL    HW154372   7.961   9.300   7.675 -0.3595  0.5068 -1.4795
15837SOL    HW254373   7.811   9.277   7.681 -0.1464 -0.5773  0.7086
15838SOL     OW54374   5.249   8.673   1.804 -0.3892  0.3459 -0.2944
15838SOL    HW154375   5.306   8.635   1.737  0.9430  1.8395 -0.0792
15838SOL    HW254376   5.309   8.720   1.862 -1.7735  1.3126  0.4087
15839SOL     OW54377  12.346   6.564   2.344  0.0072 -0.3489  0.1100
15839SOL    HW154378  12.376   6.484   2.300  0.7845  0.5365 -1.0418
15839SOL    HW254379  12.279   6.599   2.285  0.2185  0.2456  0.2256
15840SOL     OW54380   2.382   2.108   3.116 -0.4818  0.0055  0.0771
15840SOL    HW154381   2.462   2.056   3.101 -0.3431  0.0805  0.5453
15840SOL    HW254382   2.414   2.197   3.131 -0.7394  0.3125 -1.0844
15841SOL     OW54383  12.359   0.464  10.457 -0.4452  0.6626  0.4164
15841SOL    HW154384  12.283   0.438  10.510  1.1828 -1.2125  1.9779
15841SOL    HW254385  12.420   0.500  10.521  0.9144 -0.0573 -0.4427
15842SOL     OW54386  10.810   8.401   4.241 -0.3048  0.0093 -0.6711
15842SOL    HW154387  10.779   8.372   4.155 -1.5051  1.8153 -0.8913
15842SOL    HW254388  10.892   8.447   4.223 -0.3296  0.0103 -0.7801
15843SOL     OW54389   5.805   4.990   2.499 -0.4807  0.1010  0.1520
15843SOL    HW154390   5.827   5.052   2.429  0.1485  0.8340  0.9731
15843SOL    HW254391   5.800   4.905   2.455 -0.4771  0.6030 -0.8452
15844SOL     OW54392   9.147   7.482   6.583 -0.3377 -0.0853  0.0590
15844SOL    HW154393   9.204   7.438   6.646 -1.5265  0.2678  1.4428
15844SOL    HW254394   9.063   7.489   6.628 -1.5214 -0.6722 -1.9578
15845SOL     OW54395  10.355   3.776   4.404 -0.0979 -0.5304  0.1117
15845SOL    HW154396  10.307   3.850   4.366  1.0456 -0.6191 -1.6047
15845SOL    HW254397  10.422   3.816   4.459  0.3207 -0.2632 -0.5739
15846SOL     OW54398  12.272   1.557  10.433  0.0995 -0.3483 -0.0376
15846SOL    HW154399  12.284   1.577  10.340 -1.3707  0.3719 -0.1004
15846SOL    HW254400  12.341   1.607  10.477  0.8114 -0.6964 -0.7212
15847SOL     OW54401   5.334   1.522   7.473 -0.4491 -0.1653  0.0362
15847SOL    HW154402   5.240   1.531   7.485 -0.2431 -0.0042  1.7068
15847SOL    HW254403   5.349   1.427   7.472 -0.5610 -0.1842  0.2867
15848SOL     OW54404   3.072   4.966   0.447  0.6820 -0.0361 -0.3741
15848SOL    HW154405   3.146   4.991   0.391 -0.0998  0.3235 -1.2867
15848SOL    HW254406   3.052   4.876   0.421 -0.9291  0.7495 -2.1831
15849SOL     OW54407   1.706  12.001  10.060  0.2916  0.2679 -0.4209
15849SOL    HW154408   1.623  11.977  10.019  1.5409 -3.3512 -1.2780
15849SOL    HW254409   1.771  11.986   9.992  1.9664 -1.0496  1.3516
15850SOL     OW54410   4.480   3.927  12.078 -0.1693  0.0815 -0.5639
15850SOL    HW154411   4.427   3.960  12.006 -0.1697  0.0449 -0.5799
15850SOL    HW254412   4.545   3.996  12.093 -0.5157  0.3389 -0.2344
15851SOL     OW54413   1.508   5.071   1.770  0.5914 -0.0549  0.0625
15851SOL    HW154414   1.450   4.996   1.756 -0.3742  0.6479  0.1387
15851SOL    HW254415   1.550   5.054   1.854  1.1100 -0.9607 -0.3732
15852SOL     OW54416  11.401  12.220   2.249  0.8617  0.4721  0.1065
15852SOL    HW154417  11.429  12.203   2.339  2.1773 -1.9568 -0.6569
15852SOL    HW254418  11.360  12.139   2.221  1.2280  0.8852 -1.7503
15853SOL     OW54419  11.256   5.020   5.513  0.2052  0.3514 -0.0609
15853SOL    HW154420  11.210   5.099   5.542  0.7284  0.7082 -0.1969
15853SOL    HW254421  11.212   4.995   5.432 -0.8312 -0.2692  0.6605
15854SOL     OW54422   6.551   9.729   5.873 -0.4400 -0.9738 -0.1199
15854SOL    HW154423   6.609   9.670   5.921  1.0936  0.6874  0.1814
15854SOL    HW254424   6.497   9.769   5.941  0.9495  0.5316  0.1544
15855SOL     OW54425  11.859   6.285   0.473  0.1494 -0.4187  0.5413
15855SOL    HW154426  11.884   6.205   0.519  2.6455  1.2876  2.4862
15855SOL    HW254427  11.918   6.288   0.398  0.4179 -0.2251  0.7519
15856SOL     OW54428   8.122   7.868   4.404 -0.8122  0.2654 -0.4542
15856SOL    HW154429   8.126   7.904   4.315 -0.5800  2.2385  0.3008
15856SOL    HW254430   8.050   7.914   4.446  1.1253  1.8933  1.3534
15857SOL     OW54431   0.067   5.891   5.566 -0.2430 -0.5268  0.2876
15857SOL    HW154432   0.123   5.937   5.503 -0.6926 -0.0261  0.2432
15857SOL    HW254433  -0.018   5.933   5.557 -0.4972 -0.9439  0.7143
15858SOL     OW54434   9.593  11.305   4.064  0.2056  0.5954 -0.2637
15858SOL    HW154435   9.637  11.323   4.148 -0.9219  1.3538  0.1965
15858SOL    HW254436   9.629  11.221   4.036 -2.3208 -1.8874  3.0688
15859SOL     OW54437   2.188   1.475   1.465  0.1910 -0.2934 -0.0353
15859SOL    HW154438   2.204   1.567   1.486  2.2945 -0.6915  0.3609
15859SOL    HW254439   2.150   1.439   1.546  0.0053  0.0705  0.0445
15860SOL     OW54440  12.370   5.860   4.363 -0.1608  0.2348 -0.0498
15860SOL    HW154441  12.346   5.778   4.321 -0.2370  0.8022 -1.1649
15860SOL    HW254442  12.466   5.863   4.359 -0.1638  0.2455 -0.1110
15861SOL     OW54443   6.110   0.004   5.802 -0.3468  0.1794  0.4451
15861SOL    HW154444   6.198   0.022   5.834 -0.9369  1.8123  1.3244
15861SOL    HW254445   6.111  -0.087   5.775  1.1625 -0.2926  1.9544
15862SOL     OW54446   2.639   9.647   2.545  0.7570 -0.3596 -0.5356
15862SOL    HW154447   2.703   9.668   2.612 -1.0227  1.0546  0.8373
15862SOL    HW254448   2.675   9.684   2.464  0.7799  2.3140  0.5925
15863SOL     OW54449   6.642  11.842   9.624 -0.3558  0.2791 -0.4282
15863SOL    HW154450   6.602  11.790   9.553 -0.8412  0.8255 -0.5620
15863SOL    HW254451   6.734  11.850   9.598 -0.4075 -0.0069 -0.7124
15864SOL     OW54452   3.110   3.152   6.409  0.5918 -0.0921 -0.3387
15864SOL    HW154453   3.019   3.122   6.407 -0.0253  1.6517 -0.1531
15864SOL    HW254454   3.140   3.142   6.318  0.2613 -0.7742 -0.3798
15865SOL     OW54455   6.134   3.262  10.966 -0.3072 -0.2874 -0.3957
15865SOL    HW154456   6.186   3.340  10.988 -0.7007 -0.7492  2.5704
15865SOL    HW254457   6.080   3.290  10.892  1.1996  1.4888 -0.9268
15866SOL     OW54458   8.024   7.962   6.896  0.3435  0.2208 -0.6234
15866SOL    HW154459   7.945   7.908   6.890 -0.3386  1.0103  0.7398
15866SOL    HW254460   8.082   7.926   6.829 -1.6588  0.4967 -2.6292
15867SOL     OW54461  11.496   5.229   0.294  0.3630  0.0408  0.6671
15867SOL    HW154462  11.530   5.307   0.339  1.1565 -0.8540  1.6951
15867SOL    HW254463  11.559   5.213   0.224  0.6349 -0.1213  0.9455
15868SOL     OW54464  11.803   8.140   3.139 -0.5799  0.1252 -0.3492
15868SOL    HW154465  11.833   8.229   3.157 -1.6755  0.8561 -1.8134
15868SOL    HW254466  11.853   8.085   3.199  1.6090  1.5041 -0.7644
15869SOL     OW54467   1.533  11.983   9.467  0.3305 -0.7685  0.5567
15869SOL    HW154468   1.515  12.051   9.402  0.4065 -0.5352  0.7808
15869SOL    HW254469   1.629  11.982   9.474  0.3705 -1.3584  0.0631
15870SOL     OW54470   4.735   2.493   0.004  0.2850 -0.6849 -0.2765
15870SOL    HW154471   4.828   2.509  -0.015 -0.5951  1.8053 -3.4182
15870SOL    HW254472   4.710   2.424  -0.058 -0.2417 -0.2503 -0.5630
15871SOL     OW54473   9.718   2.336  11.969 -0.4574 -0.3631  0.3574
15871SOL    HW154474   9.791   2.391  11.943 -1.0484  0.2444 -0.0351
15871SOL    HW254475   9.655   2.396  12.008 -0.5480 -0.9507  1.1274
15872SOL     OW54476   5.498   2.040   6.069 -0.0874 -0.1169  0.8019
15872SOL    HW154477   5.584   2.009   6.039 -0.4800  0.5937 -1.1969
15872SOL    HW254478   5.479   1.986   6.146  1.2875 -1.6453  0.1330
15873SOL     OW54479   8.359   0.544  12.158 -0.0091 -0.1555 -0.0655
15873SOL    HW154480   8.402   0.524  12.241 -0.9703  0.5482  0.6299
15873SOL    HW254481   8.430   0.556  12.096  0.7140 -1.4378  0.4672
15874SOL     OW54482  10.173   1.726   1.764 -0.3959 -0.8367 -0.3670
15874SOL    HW154483  10.227   1.668   1.819 -0.8383 -1.4946 -0.6202
15874SOL    HW254484  10.134   1.668   1.699 -1.7134 -0.4320  0.0400
15875SOL     OW54485   2.281   4.125   3.985  0.0272  0.2263 -0.1134
15875SOL    HW154486   2.234   4.057   3.936 -0.9052  1.3103 -0.7872
15875SOL    HW254487   2.361   4.082   4.016 -0.5134 -1.1526 -0.5477
15876SOL     OW54488   1.542   9.517   1.101  0.6715  0.1865  0.1475
15876SOL    HW154489   1.555   9.513   1.196  0.7741  0.3283  0.1394
15876SOL    HW254490   1.461   9.468   1.086  1.2979 -0.8843  0.1691
15877SOL     OW54491   0.582  10.725   0.027 -0.1395  0.1247 -0.3956
15877SOL    HW154492   0.510  10.758  -0.027 -0.2905 -0.6212 -0.6585
15877SOL    HW254493   0.657  10.722  -0.033  0.1387  0.9945 -0.0967
15878SOL     OW54494  10.934   7.282   6.939  0.4554  0.3459  0.2270
15878SOL    HW154495  10.979   7.210   6.894  0.7045  0.6099  0.0480
15878SOL    HW254496  10.963   7.275   7.030 -0.8816 -0.8489  0.6029
15879SOL     OW54497   8.010  11.287   4.631  0.4372 -0.3241 -0.3731
15879SOL    HW154498   8.025  11.355   4.697  0.5079 -0.6551 -0.0463
15879SOL    HW254499   7.947  11.326   4.570  0.5163  0.0535 -0.2152
15880SOL     OW54500   9.056   3.602   2.285  0.1074  0.7017 -0.0526
15880SOL    HW154501   9.061   3.534   2.218  1.0419  0.8717 -0.1630
15880SOL    HW254502   9.114   3.671   2.253  3.0375 -0.4432  2.3100
15881SOL     OW54503   3.086  12.467   2.342  0.1074  0.6322 -0.3310
15881SOL    HW154504   3.004  12.516   2.338  0.0885  0.6533  0.2896
15881SOL    HW254505   3.077  12.401   2.273 -2.3895 -2.3190  2.4800
15882SOL     OW54506  10.767   5.158  12.401 -0.3138 -0.4291  0.1739
15882SOL    HW154507  10.768   5.063  12.386  0.1465 -0.6304  1.3214
15882SOL    HW254508  10.676   5.178  12.420 -0.2990 -0.7916  0.6677
15883SOL     OW54509  10.475   4.766   3.776  0.3272 -0.5140  0.2285
15883SOL    HW154510  10.418   4.784   3.851  1.7215 -2.5588  1.8904
15883SOL    HW254511  10.535   4.841   3.774 -0.2167 -0.0531  0.6285
15884SOL     OW54512   0.209   1.446  10.756  0.1304 -0.5245 -0.1375
15884SOL    HW154513   0.123   1.487  10.761 -0.7909 -2.4350  1.3987
15884SOL    HW254514   0.222   1.428  10.663 -0.9031  0.2274 -0.4498
15885SOL     OW54515   7.329   0.441   7.320  0.1924  0.1086 -0.0410
15885SOL    HW154516   7.355   0.438   7.228 -1.3615 -0.0218 -0.5048
15885SOL    HW254517   7.393   0.385   7.364  0.7121 -0.1615 -1.0896
15886SOL     OW54518   4.928  10.479   9.369  0.3147  0.0942  0.5486
15886SOL    HW154519   4.956  10.387   9.371 -0.2773 -0.1123 -0.0630
15886SOL    HW254520   4.959  10.515   9.452 -0.1358 -0.8691  1.1604
15887SOL     OW54521   0.750  10.950   4.660  0.2374  0.5151  0.1833
15887SOL    HW154522   0.711  10.994   4.584  1.3653 -2.1706 -2.1090
15887SOL    HW254523   0.812  11.014   4.695 -1.5938  2.4946  0.0470
15888SOL     OW54524   7.736   7.212   1.976 -0.1728 -0.3396 -0.0831
15888SOL    HW154525   7.741   7.270   1.900 -0.8423 -1.5923 -1.1156
15888SOL    HW254526   7.811   7.237   2.030  0.3854  0.4982 -1.2106
15889SOL     OW54527   1.014   3.802  10.647  0.0452 -0.2607  0.3159
15889SOL    HW154528   0.954   3.792  10.573  0.7151 -1.5086 -0.0832
15889SOL    HW254529   1.091   3.751  10.623  0.8894  0.5265  1.2415
15890SOL     OW54530   7.229   7.968   5.073 -0.2186  0.3478 -0.1073
15890SOL    HW154531   7.245   7.918   4.993  2.8532  1.2565 -0.2178
15890SOL    HW254532   7.217   7.902   5.141  0.3343 -0.5102 -0.8151
15891SOL     OW54533   9.981   8.258   8.420 -0.1721  0.7000 -0.4135
15891SOL    HW154534   9.956   8.334   8.368  0.9468 -1.5897 -4.7972
15891SOL    HW254535   9.944   8.183   8.372  3.2828 -1.8358  0.4841
15892SOL     OW54536   1.096   0.661   2.834 -0.4905  0.1728 -0.0081
15892SOL    HW154537   1.025   0.598   2.823  0.5614 -1.1001  0.2677
15892SOL    HW254538   1.156   0.620   2.896  0.8297  0.9026 -0.7376
15893SOL     OW54539  11.126   6.174   5.403  0.2207 -0.0169  0.2121
15893SOL    HW154540  11.041   6.173   5.447 -0.2143 -0.9823 -0.6194
15893SOL    HW254541  11.108   6.214   5.318  0.5949 -0.2448  0.0238
15894SOL     OW54542   4.160   8.943  11.148  0.1745 -0.8629  0.0913
15894SOL    HW154543   4.243   8.920  11.108  0.0964 -2.0530  0.5692
15894SOL    HW254544   4.177   8.940  11.242 -0.9079 -3.3067  0.2785
15895SOL     OW54545   7.245   2.204   2.392  0.7350  0.1389 -0.2955
15895SOL    HW154546   7.227   2.235   2.303 -1.8699  0.5784  0.2882
15895SOL    HW254547   7.274   2.114   2.381  1.2794  0.4605 -1.6354
15896SOL     OW54548   0.970   2.596   3.397  0.1240  0.1485  0.1775
15896SOL    HW154549   0.983   2.505   3.423  1.1273 -0.1998 -1.4343
15896SOL    HW254550   0.962   2.643   3.480 -1.5723 -1.5362  1.0531
15897SOL     OW54551   2.030   1.715  11.811  0.5985  0.2732  0.0309
15897SOL    HW154552   1.992   1.655  11.747 -1.7539 -0.5629  2.0587
15897SOL    HW254553   2.071   1.784  11.758 -1.2625 -0.3240 -2.3556
15898SOL     OW54554   6.012   9.665   1.893 -0.2931  0.1258  0.3417
15898SOL    HW154555   6.006   9.696   1.983  0.6123  0.2701  0.3643
15898SOL    HW254556   5.950   9.720   1.845 -0.1112  0.6737  0.7207
15899SOL     OW54557   7.371   6.522   7.309 -0.2005  0.4992  0.5289
15899SOL    HW154558   7.382   6.617   7.316 -0.5132  0.4517  1.9760
15899SOL    HW254559   7.286   6.511   7.267 -0.9344  0.8851  1.8617
15900SOL     OW54560   7.746   4.977   5.633  0.0156  0.2391 -0.3715
15900SOL    HW154561   7.768   4.896   5.586  1.4269  0.1166  0.4497
15900SOL    HW254562   7.673   4.952   5.690 -0.0837 -0.2439 -0.7050
15901SOL     OW54563   9.822   9.596   7.451  0.6084  0.1583 -0.1858
15901SOL    HW154564   9.792   9.655   7.382  2.3402 -0.2371 -1.3576
15901SOL    HW254565   9.745   9.581   7.505 -0.2795  2.1740 -0.7927
15902SOL     OW54566   4.760   1.119   6.925 -0.7781  0.0110 -0.0737
15902SOL    HW154567   4.781   1.196   6.977  2.0131 -1.0144  0.4859
15902SOL    HW254568   4.713   1.153   6.849 -0.0058  2.1921  0.3702
15903SOL     OW54569  11.383  11.836  10.532 -0.3117 -0.1258  0.4035
15903SOL    HW154570  11.385  11.884  10.615  0.3390  1.6054 -0.5757
15903SOL    HW254571  11.351  11.899  10.468 -0.7820 -1.4261 -0.6905
15904SOL     OW54572  11.816   0.816  10.040  0.0868  0.0650  0.0938
15904SOL    HW154573  11.831   0.863   9.958  2.2461  1.8499  1.3868
15904SOL    HW254574  11.833   0.724  10.020 -2.4916 -0.0616 -2.0971
15905SOL     OW54575   1.347   2.833   5.475  0.0405 -0.2146  0.4576
15905SOL    HW154576   1.342   2.738   5.488  1.0359 -0.1706  1.2215
15905SOL    HW254577   1.271   2.853   5.420  0.1405 -1.5314 -0.1933
15906SOL     OW54578   1.389   4.535   2.856 -0.4582 -0.7048 -0.5036
15906SOL    HW154579   1.394   4.602   2.925 -1.3334 -0.9910 -0.1447
15906SOL    HW254580   1.296   4.533   2.832 -0.4321 -1.7360 -0.5487
15907SOL     OW54581   5.536   9.182   5.943 -0.2723 -0.4487  0.2536
15907SOL    HW154582   5.492   9.206   6.024 -0.2204  0.1467  0.1069
15907SOL    HW254583   5.590   9.106   5.967  0.5302  0.3463  1.0221
15908SOL     OW54584   0.774   5.970  12.332  0.5171  0.1233  0.4077
15908SOL    HW154585   0.797   6.062  12.340 -0.4758  0.4268 -0.1298
15908SOL    HW254586   0.829   5.937  12.261  1.0898  0.2123  0.7978
15909SOL     OW54587  10.676   1.258   3.384 -0.1578  0.1221 -0.1168
15909SOL    HW154588  10.623   1.337   3.376  0.2826  0.4908  0.5694
15909SOL    HW254589  10.650   1.220   3.468 -0.3330 -0.4481 -0.4203
15910SOL     OW54590   6.301   5.837   8.253  0.2770  0.3056 -0.1427
15910SOL    HW154591   6.310   5.851   8.159 -0.6584 -0.3739 -0.3513
15910SOL    HW254592   6.299   5.926   8.290 -0.4828  0.6189 -0.8890
15911SOL     OW54593   9.277   0.732   3.542 -0.3703 -0.1116  0.2366
15911SOL    HW154594   9.214   0.739   3.614  0.3976  0.5807  0.8621
15911SOL    HW254595   9.272   0.816   3.497  0.0629 -0.0728  0.2563
15912SOL     OW54596   9.815   2.924   0.804  0.1123 -0.3607  0.4920
15912SOL    HW154597   9.844   2.856   0.742 -0.6961 -0.3819  0.1270
15912SOL    HW254598   9.855   3.004   0.770 -1.1281 -0.1989 -0.6523
15913SOL     OW54599  11.521   3.007   8.950  0.2528  0.5654 -0.2274
15913SOL    HW154600  11.605   2.993   8.906 -0.0838 -0.6676 -0.5090
15913SOL    HW254601  11.461   2.946   8.907 -0.2496 -0.1852  1.4831
15914SOL     OW54602   4.992  11.283   9.437 -0.1177 -0.0542 -0.2708
15914SOL    HW154603   5.057  11.324   9.381 -1.0693  0.5458 -0.9589
15914SOL    HW254604   4.981  11.195   9.401  0.0088 -0.0142 -0.4083
15915SOL     OW54605  10.510   3.225  10.701 -0.4014  0.0097 -0.1134
15915SOL    HW154606  10.417   3.212  10.721 -0.8750  0.0454 -2.0916
15915SOL    HW254607  10.514   3.228  10.606  1.4414  1.5793 -0.0442
15916SOL     OW54608   0.451   2.374  11.902 -0.0135 -0.0851  0.9046
15916SOL    HW154609   0.366   2.418  11.903  0.5714  1.1467 -0.3658
15916SOL    HW254610   0.446   2.311  11.974 -1.6738  0.5650  1.4103
15917SOL     OW54611   4.447  11.172  10.614 -0.0398 -0.6556 -0.5307
15917SOL    HW154612   4.418  11.082  10.627  0.2057 -0.5491  0.9929
15917SOL    HW254613   4.528  11.165  10.563  0.9952 -1.4854  1.1158
15918SOL     OW54614   8.570   8.693   0.627 -0.2269  0.2493 -0.0097
15918SOL    HW154615   8.560   8.781   0.589  0.3579  0.3816  0.1247
15918SOL    HW254616   8.579   8.636   0.551 -0.2623  0.3547 -0.0942
15919SOL     OW54617  11.225  12.321  11.369  0.2666 -0.4081  0.4153
15919SOL    HW154618  11.210  12.363  11.453  1.3349 -1.7528  1.3039
15919SOL    HW254619  11.307  12.273  11.379  0.6096 -0.3334 -1.5032
15920SOL     OW54620   1.945   8.733   1.410 -0.2634  0.0136 -0.2445
15920SOL    HW154621   1.928   8.689   1.493 -0.1318 -1.5341 -0.9997
15920SOL    HW254622   2.038   8.718   1.394 -0.4240 -0.2571 -0.9648
15921SOL     OW54623   4.905   4.241   1.672  0.4288 -0.2245  0.3171
15921SOL    HW154624   4.924   4.237   1.578  1.0443 -0.6838  0.4556
15921SOL    HW254625   4.830   4.301   1.679  1.6738  1.4906 -0.2842
15922SOL     OW54626   9.483   4.936  11.714  0.0774  0.7590  0.1940
15922SOL    HW154627   9.421   4.982  11.771  0.0743  2.6938 -1.2404
15922SOL    HW254628   9.428   4.875  11.664 -0.1922  0.3656  0.9495
15923SOL     OW54629   4.413   9.652   7.854  0.0921  0.1879  0.4258
15923SOL    HW154630   4.508   9.662   7.843  0.0443  1.3160  0.8971
15923SOL    HW254631   4.377   9.673   7.768  0.2670 -0.3444  0.2164
15924SOL     OW54632   3.158   5.629  10.483  0.0279 -0.3386  0.3941
15924SOL    HW154633   3.173   5.540  10.517 -0.2190 -0.7372 -0.5152
15924SOL    HW254634   3.148   5.683  10.561 -0.5494 -1.2362  0.9590
15925SOL     OW54635  11.330   3.468   4.006  0.0195  0.1447 -0.7606
15925SOL    HW154636  11.319   3.394   3.947 -0.6467 -0.3377 -0.0522
15925SOL    HW254637  11.256   3.461   4.067  0.0378  1.2932 -0.5850
15926SOL     OW54638  10.190   0.068  11.797  0.3155  0.3170  0.8111
15926SOL    HW154639  10.256  -0.000  11.810 -0.4277 -0.6249 -0.1354
15926SOL    HW254640  10.234   0.133  11.743  0.0147 -1.1497 -1.3546
15927SOL     OW54641  10.779   8.698   1.044 -0.2127  0.1161 -0.1616
15927SOL    HW154642  10.858   8.751   1.032  0.0609 -0.3131 -0.2898
15927SOL    HW254643  10.780   8.675   1.137  1.3987 -2.2952 -0.6762
15928SOL     OW54644   5.310   8.795  12.439  0.0643  0.0990  0.2754
15928SOL    HW154645   5.339   8.875  12.395  1.8475 -0.6027  0.0652
15928SOL    HW254646   5.307   8.730  12.369 -2.6219  0.1995  0.1925
15929SOL     OW54647   6.608   1.005   5.564 -0.3228  0.3612  0.2638
15929SOL    HW154648   6.629   0.971   5.651  1.5747  1.6424  0.3613
15929SOL    HW254649   6.513   0.997   5.558 -0.3908 -0.7918  1.9906
15930SOL     OW54650   5.071   4.477   3.578 -0.1255 -0.5094 -0.2460
15930SOL    HW154651   5.055   4.485   3.672  0.7034 -0.2999 -0.1168
15930SOL    HW254652   4.984   4.465   3.540 -0.6589  1.2083  0.3528
15931SOL     OW54653   7.345  10.780   5.743 -0.7992  0.1692 -0.2451
15931SOL    HW154654   7.257  10.818   5.744 -0.9447 -0.1445 -0.6347
15931SOL    HW254655   7.334  10.696   5.697 -0.2968  0.1315 -0.2999
15932SOL     OW54656  10.382   1.080   5.390 -0.1134  0.3553  0.8254
15932SOL    HW154657  10.402   1.045   5.303 -0.5986  0.6242  0.6039
15932SOL    HW254658  10.344   1.166   5.373 -0.0434  0.4869  1.3147
15933SOL     OW54659   1.851   6.198  12.009 -0.4228  0.0184 -0.2527
15933SOL    HW154660   1.926   6.217  11.953  1.1169 -0.8212  1.4131
15933SOL    HW254661   1.787   6.266  11.988  1.5579  1.9492 -0.3830
15934SOL     OW54662   1.589   6.509   4.429 -0.3403 -0.3053 -0.3671
15934SOL    HW154663   1.559   6.423   4.458 -0.8850 -0.4577 -1.3450
15934SOL    HW254664   1.550   6.521   4.343  1.4513  0.0230 -1.1762
15935SOL     OW54665   5.112   4.204   9.237  0.0214 -0.5563  0.1781
15935SOL    HW154666   5.077   4.286   9.202  0.7143  0.2727  1.3946
15935SOL    HW254667   5.035   4.149   9.251 -0.3444 -0.6673 -1.9434
15936SOL     OW54668   1.395   3.172   5.369 -0.7286  0.1015  0.5068
15936SOL    HW154669   1.424   3.082   5.387  1.4457  0.5792 -0.3278
15936SOL    HW254670   1.366   3.205   5.454  2.3643 -0.1068  1.7815
15937SOL     OW54671   5.274  11.094   5.149 -0.6534  0.3764 -0.1343
15937SOL    HW154672   5.179  11.099   5.136 -0.3802  1.1302 -2.0349
15937SOL    HW254673   5.310  11.075   5.063  1.1625  3.4033 -0.2006
15938SOL     OW54674  11.232   8.919   1.719 -0.0492 -0.2251  0.6482
15938SOL    HW154675  11.203   8.981   1.652  0.2444 -0.6771  0.0975
15938SOL    HW254676  11.279   8.851   1.671  0.6203 -0.2886  1.3667
15939SOL     OW54677   9.131   7.443   1.676 -0.3387  0.1180  0.7238
15939SOL    HW154678   9.193   7.516   1.685 -1.4568  1.0656  0.9679
15939SOL    HW254679   9.095   7.452   1.587  1.0924 -1.4579 -0.0764
15940SOL     OW54680  10.841   0.819   4.223  0.6251  0.4675  0.0978
15940SOL    HW154681  10.861   0.729   4.196  1.1627  0.1247  1.5367
15940SOL    HW254682  10.746   0.819   4.236 -0.0986  1.2984 -3.9077
15941SOL     OW54683   6.027   8.133  10.459  0.4901  0.0710  0.5269
15941SOL    HW154684   5.974   8.212  10.451 -0.2943 -0.5748 -1.1395
15941SOL    HW254685   5.965   8.067  10.492  0.7284 -0.2460  0.3378
15942SOL     OW54686   5.570  11.734   2.959  0.5161 -0.0497  0.2015
15942SOL    HW154687   5.656  11.695   2.974  0.0849 -1.0862  0.0160
15942SOL    HW254688   5.547  11.775   3.043 -0.0266 -2.1946  1.1700
15943SOL     OW54689   3.387   9.729   7.041 -0.2800 -0.3395 -0.2326
15943SOL    HW154690   3.452   9.726   6.971  0.7617  0.1589  0.6960
15943SOL    HW254691   3.314   9.677   7.007  0.5465 -0.8290 -1.3336
15944SOL     OW54692   5.294   2.978   3.701  0.5157 -0.4974  0.4239
15944SOL    HW154693   5.296   2.883   3.716  0.9172 -0.2690  1.9777
15944SOL    HW254694   5.273   3.015   3.786  1.6585  0.8812  0.1359
15945SOL     OW54695   9.896   8.257  11.533  0.1574 -0.0737 -0.1439
15945SOL    HW154696   9.930   8.333  11.487  2.3246 -0.7305  0.2800
15945SOL    HW254697   9.801   8.263  11.522  0.4008  1.5490 -1.8605
15946SOL     OW54698   3.505   2.707  11.319  0.9058 -1.0132 -0.2083
15946SOL    HW154699   3.455   2.661  11.387  0.3939  0.2965  0.3357
15946SOL    HW254700   3.471   2.672  11.237 -0.8534 -0.2579  0.1504
15947SOL     OW54701   1.439   5.031   0.411 -0.2178  0.5053  0.4247
15947SOL    HW154702   1.358   5.078   0.397  0.2197  0.3615 -4.0839
15947SOL    HW254703   1.500   5.097   0.445 -1.2982  1.5014  0.4815
15948SOL     OW54704  11.573   0.454   5.842  0.2211 -0.2056 -0.5441
15948SOL    HW154705  11.523   0.386   5.887  0.0270 -0.4119 -1.0711
15948SOL    HW254706  11.661   0.447   5.880 -0.7226  1.9649  2.4126
15949SOL     OW54707   2.105   5.240   1.526 -0.0109  0.8052  0.1482
15949SOL    HW154708   2.140   5.187   1.454 -1.2203 -1.5962  1.2152
15949SOL    HW254709   2.026   5.280   1.490 -0.2844  0.1046 -0.0528
15950SOL     OW54710  10.830   6.960   3.634  0.3312  0.1403 -0.6570
15950SOL    HW154711  10.863   6.874   3.661 -0.1024  0.2677  0.3070
15950SOL    HW254712  10.902   7.020   3.653  0.6038  0.0052 -1.2543
15951SOL     OW54713   3.980  11.080  11.360  0.1695 -0.0287 -0.1302
15951SOL    HW154714   4.004  11.173  11.353  0.7210 -0.0830  0.9317
15951SOL    HW254715   4.012  11.042  11.278 -1.0009  0.8926 -1.0707
15952SOL     OW54716   4.900   1.768   2.283  0.0719  0.3601 -0.4005
15952SOL    HW154717   4.961   1.837   2.311  2.3229 -0.9527 -1.7638
15952SOL    HW254718   4.838   1.813   2.226 -0.5073  1.8087  1.3030
15953SOL     OW54719   1.711   6.845   7.924 -0.5825  0.7478 -0.3603
15953SOL    HW154720   1.620   6.860   7.900 -1.8782 -1.5793  2.5434
15953SOL    HW254721   1.736   6.923   7.975 -2.1815 -0.0526  1.7686
15954SOL     OW54722   8.393   9.168   9.255  0.3782 -0.5850 -0.0170
15954SOL    HW154723   8.337   9.200   9.185  0.0928 -0.2849  0.3415
15954SOL    HW254724   8.445   9.245   9.281  1.3067 -0.9683 -0.6638
15955SOL     OW54725  10.461   2.450   1.865 -0.3103 -0.2165  0.1473
15955SOL    HW154726  10.409   2.371   1.855 -0.4778  0.0470 -1.3118
15955SOL    HW254727  10.552   2.419   1.873 -0.3392 -0.5521 -0.7433
15956SOL     OW54728   6.089  11.322   6.456  0.3731  0.0360  0.1434
15956SOL    HW154729   6.003  11.354   6.482 -0.0966  1.2612 -2.5979
15956SOL    HW254730   6.074  11.231   6.429  0.0445  0.1051  0.0978
15957SOL     OW54731  11.681   9.455   1.160 -0.6036 -0.1451 -0.0864
15957SOL    HW154732  11.588   9.479   1.155 -0.5133  0.2731  0.1923
15957SOL    HW254733  11.727   9.538   1.151 -0.1778 -0.5771 -2.5001
15958SOL     OW54734   6.318   9.519   4.304  0.0719  0.0797  0.0540
15958SOL    HW154735   6.335   9.457   4.374 -0.2548 -1.3865 -1.1104
15958SOL    HW254736   6.264   9.586   4.344 -0.2432 -0.8029  1.1592
15959SOL     OW54737   7.588  10.105   5.448  0.2741 -0.1262  0.3468
15959SOL    HW154738   7.663  10.165   5.439  0.2737 -0.3113 -1.1026
15959SOL    HW254739   7.512  10.158   5.424  0.3803 -0.9332 -1.9546
15960SOL     OW54740   0.519   2.556   0.360  0.2329 -0.1746 -0.2222
15960SOL    HW154741   0.529   2.475   0.410  1.1961  1.6498  2.8290
15960SOL    HW254742   0.425   2.562   0.342  0.1591 -1.9596 -0.6064
15961SOL     OW54743   5.618   8.455   9.529  0.7204  0.1429  0.2041
15961SOL    HW154744   5.625   8.362   9.508  0.3045  0.3919 -1.1762
15961SOL    HW254745   5.528   8.478   9.503  0.7700  0.8928  0.6760
15962SOL     OW54746   8.009   1.234   5.777  0.4371  0.3737  0.5446
15962SOL    HW154747   7.955   1.282   5.713  2.4472 -0.0990 -1.6477
15962SOL    HW254748   8.071   1.184   5.723 -0.0462 -2.9325  2.7893
15963SOL     OW54749   6.726   1.306  10.897  0.1369 -0.2750 -0.3250
15963SOL    HW154750   6.764   1.383  10.854 -1.0376  1.9687  2.3702
15963SOL    HW254751   6.631   1.318  10.888 -0.0742 -0.9848  0.8049
15964SOL     OW54752   1.507   8.691  11.957  0.1720  0.5086  0.6680
15964SOL    HW154753   1.555   8.611  11.974 -1.0529 -0.3000  0.4302
15964SOL    HW254754   1.572   8.752  11.922  0.9347 -0.6712 -0.0152
15965SOL     OW54755  10.048   5.313   0.288 -0.4766 -0.1269  0.0664
15965SOL    HW154756  10.094   5.285   0.367 -1.3735 -0.5082  0.4648
15965SOL    HW254757  10.112   5.366   0.241  0.3955 -0.6986  0.5696
15966SOL     OW54758   7.261  10.314   4.692 -0.1544 -0.8717 -0.4217
15966SOL    HW154759   7.235  10.365   4.768 -2.8401 -3.1586  0.4167
15966SOL    HW254760   7.193  10.332   4.627  0.5677 -1.0441 -1.2421
15967SOL     OW54761   6.979   9.694   1.089  0.0496 -0.1571  0.1251
15967SOL    HW154762   6.980   9.635   1.014 -1.1841  0.5432 -0.4826
15967SOL    HW254763   6.886   9.707   1.107  0.3304  0.3238  1.2643
15968SOL     OW54764   3.203   5.042   3.640  0.3334  0.2125  0.5342
15968SOL    HW154765   3.245   5.022   3.557 -1.0062 -0.6419  0.0334
15968SOL    HW254766   3.193   5.137   3.639  2.8646  0.5780  1.0225
15969SOL     OW54767  12.259   5.865   8.902  0.5048  0.0197 -0.1428
15969SOL    HW154768  12.320   5.791   8.902 -0.2354 -0.6508 -2.5959
15969SOL    HW254769  12.206   5.852   8.981  0.3444 -2.1258 -0.5552
15970SOL     OW54770   3.632  10.139   3.656  0.6781  0.2270  0.5078
15970SOL    HW154771   3.726  10.150   3.671  0.4494  0.2267  2.1346
15970SOL    HW254772   3.625  10.124   3.562  2.4918 -1.6552  0.5946
15971SOL     OW54773  10.248   4.905   1.384  0.4277 -0.3843  0.6153
15971SOL    HW154774  10.214   4.878   1.470 -0.2737 -0.0340  0.4593
15971SOL    HW254775  10.343   4.896   1.392  0.3474 -0.7533  1.2913
15972SOL     OW54776   2.565   7.261   2.478 -0.2143  0.0156  0.1085
15972SOL    HW154777   2.558   7.309   2.396 -0.0571 -0.2600 -0.0675
15972SOL    HW254778   2.503   7.188   2.469  2.0084 -1.8774 -1.0707
15973SOL     OW54779   8.870  11.992   6.569  0.1476  0.3942  0.0068
15973SOL    HW154780   8.807  12.060   6.548 -0.3270 -0.1510 -0.3491
15973SOL    HW254781   8.948  12.040   6.599  0.2962  1.1312 -1.4912
15974SOL     OW54782   7.219   8.727   4.257 -0.3154 -0.5540 -0.2747
15974SOL    HW154783   7.216   8.817   4.223  0.8025 -0.7424 -0.9113
15974SOL    HW254784   7.127   8.700   4.260 -0.7568  0.8752  0.6828
15975SOL     OW54785  10.447   1.309   7.293 -0.0957  0.0556 -0.4068
15975SOL    HW154786  10.517   1.346   7.239 -0.4252  0.2024 -0.7338
15975SOL    HW254787  10.491   1.245   7.350  0.8179  2.1992  1.4558
15976SOL     OW54788   0.586   1.667  11.850 -0.0455  0.2016 -0.1486
15976SOL    HW154789   0.538   1.588  11.825  1.6938 -0.4318 -1.7548
15976SOL    HW254790   0.605   1.655  11.943  0.1726 -1.3014 -0.3512
15977SOL     OW54791  11.384   1.993   9.234 -1.0431 -0.7231  0.0328
15977SOL    HW154792  11.380   2.024   9.325  0.2804  1.4352 -0.5595
15977SOL    HW254793  11.401   2.072   9.183 -0.5177 -2.0582 -1.9692
15978SOL     OW54794   8.504   3.939  10.329  0.7997 -0.8021 -0.3669
15978SOL    HW154795   8.573   3.980  10.382  1.1800 -1.2321 -0.5253
15978SOL    HW254796   8.424   3.952  10.380  1.0311 -0.4996 -0.0743
15979SOL     OW54797  10.164   3.237   0.924 -0.0929  0.4010 -1.2875
15979SOL    HW154798  10.172   3.178   0.999  0.8099  0.2239 -1.5170
15979SOL    HW254799  10.187   3.183   0.848  1.3977  1.2000 -1.4348
15980SOL     OW54800   4.641   1.400   1.602  0.3337  0.2875 -0.0646
15980SOL    HW154801   4.722   1.450   1.590 -0.0064  0.9606  0.3593
15980SOL    HW254802   4.670   1.310   1.613  0.9628  0.3766 -0.9013
15981SOL     OW54803   6.204  10.111  11.105 -0.2326  0.6011  0.2758
15981SOL    HW154804   6.152  10.190  11.121 -0.3603  0.7309 -0.7422
15981SOL    HW254805   6.234  10.085  11.192  0.2807  2.0893  0.5698
15982SOL     OW54806   5.270   9.160   5.355 -0.2386 -0.2661  0.4494
15982SOL    HW154807   5.305   9.204   5.278  1.3583 -1.1381  0.6231
15982SOL    HW254808   5.303   9.070   5.348 -1.8214 -0.9327  1.0747
15983SOL     OW54809   8.068  11.147   1.953  0.2279  0.6451  0.3697
15983SOL    HW154810   8.005  11.209   1.915  1.5763  1.8810  0.0766
15983SOL    HW254811   8.109  11.107   1.876 -0.0415 -0.0058  0.5617
15984SOL     OW54812   2.842   5.879   2.185 -0.1181 -0.4920  0.1602
15984SOL    HW154813   2.856   5.895   2.091 -1.6909  1.3067  0.1754
15984SOL    HW254814   2.927   5.898   2.225  0.1107  0.4511 -0.7292
15985SOL     OW54815   9.281   2.099  11.933 -0.2057 -0.1648  0.8520
15985SOL    HW154816   9.196   2.068  11.966 -1.2817  2.2026  0.5153
15985SOL    HW254817   9.259   2.175  11.880  2.0456 -0.3606 -0.4718
15986SOL     OW54818   1.987   0.015   3.058  0.2106 -0.0141  0.2982
15986SOL    HW154819   1.932   0.023   3.136  0.5620  1.1660  0.4357
15986SOL    HW254820   2.072   0.048   3.085  1.0513 -1.8844  0.1034
15987SOL     OW54821   1.829   0.374   6.568 -0.1651 -0.4678  0.3482
15987SOL    HW154822   1.750   0.373   6.624 -1.8382  0.6410 -1.8299
15987SOL    HW254823   1.837   0.285   6.536 -0.1835 -0.7166  1.0162
15988SOL     OW54824   7.085  10.487   2.790 -0.0861  0.7126 -0.0560
15988SOL    HW154825   7.026  10.549   2.833 -1.9000 -0.4108 -0.8211
15988SOL    HW254826   7.106  10.423   2.858  0.5913  1.3012  0.3145
15989SOL     OW54827  11.465   6.502  11.654 -0.6320 -0.2299 -0.3271
15989SOL    HW154828  11.536   6.484  11.716 -0.2639 -0.6267 -0.8542
15989SOL    HW254829  11.419   6.577  11.691  0.6081  0.6080 -0.4468
15990SOL     OW54830   6.346   6.110   5.450 -0.5129 -0.4773 -0.3463
15990SOL    HW154831   6.333   6.048   5.378  2.3706 -1.8124  0.1285
15990SOL    HW254832   6.409   6.174   5.416  0.8963 -1.1311  0.9121
15991SOL     OW54833   8.453   8.550   8.037 -0.1487 -0.0381 -0.0279
15991SOL    HW154834   8.513   8.507   7.976 -0.8220 -0.0439 -0.7051
15991SOL    HW254835   8.373   8.564   7.986 -0.9826 -0.6660  1.0547
15992SOL     OW54836   7.298   8.404   5.484  0.5927  0.2669  0.5997
15992SOL    HW154837   7.299   8.473   5.551  0.4563  0.1043  0.7687
15992SOL    HW254838   7.206   8.380   5.476  0.8011 -1.0283  1.7060
15993SOL     OW54839   4.224   6.499   2.717  0.2307  0.3019  0.0954
15993SOL    HW154840   4.318   6.508   2.729  0.3170 -1.2121  0.6853
15993SOL    HW254841   4.206   6.407   2.732 -1.3069  0.4973 -0.3664
15994SOL     OW54842   6.731  11.965   4.018 -0.0534 -0.6536 -0.4022
15994SOL    HW154843   6.772  11.885   4.050  2.2184  0.4644 -0.3372
15994SOL    HW254844   6.802  12.013   3.974 -1.9163  0.1567 -2.7709
15995SOL     OW54845   3.424   8.091   6.287 -0.3889  0.2978 -0.1202
15995SOL    HW154846   3.452   8.008   6.248 -0.6575 -0.0699  0.4658
15995SOL    HW254847   3.494   8.113   6.349 -2.0679 -1.4616  2.5800
15996SOL     OW54848   8.118   1.185  11.285 -0.2173  0.2264 -0.4085
15996SOL    HW154849   8.198   1.185  11.233 -0.0021  0.8036 -0.0864
15996SOL    HW254850   8.091   1.277  11.287  0.1534  0.3282  1.0763
15997SOL     OW54851   7.142   0.355   0.844 -0.3736  0.0605 -0.4229
15997SOL    HW154852   7.106   0.436   0.806  0.6098  0.5529 -0.3524
15997SOL    HW254853   7.073   0.290   0.833 -0.9721  0.7769 -0.9917
15998SOL     OW54854   6.886   3.706   9.243  0.2696 -0.3220 -0.1941
15998SOL    HW154855   6.889   3.667   9.330  3.9871 -0.5386 -0.2899
15998SOL    HW254856   6.873   3.800   9.260 -1.2086 -0.6041  0.4130
15999SOL     OW54857   5.020   6.359   2.251  0.0790  0.9960 -0.7596
15999SOL    HW154858   5.070   6.418   2.307 -0.4849 -0.0489  0.9187
15999SOL    HW254859   5.065   6.275   2.259 -3.0263 -0.6473  2.7319
16000SOL     OW54860   9.857  10.300  12.168 -0.1522 -0.0407 -0.0331
16000SOL    HW154861   9.929  10.354  12.138  1.8451 -1.3967  1.9886
16000SOL    HW254862   9.898  10.220  12.202 -2.6012 -0.9424  1.1269
16001SOL     OW54863   2.632   7.168   4.864  0.1701 -0.1825  0.0453
16001SOL    HW154864   2.624   7.163   4.769  1.3988 -1.7787 -0.0140
16001SOL    HW254865   2.721   7.137   4.882 -0.3386 -0.7539  1.7748
16002SOL     OW54866   9.891   6.133   0.221  0.1811  0.0861 -0.2785
16002SOL    HW154867   9.985   6.154   0.222 -0.0313  1.0617  0.0907
16002SOL    HW254868   9.858   6.167   0.304 -0.8690  1.5635 -1.2645
16003SOL     OW54869   2.230   1.740   1.564  0.4959 -0.0437 -0.2206
16003SOL    HW154870   2.163   1.806   1.547  0.6616 -0.1638 -1.3852
16003SOL    HW254871   2.236   1.736   1.660 -0.5954  0.5279 -0.1192
16004SOL     OW54872   0.065   5.757   8.314 -0.1944  1.0141 -0.3128
16004SOL    HW154873   0.000   5.737   8.382  1.1278 -0.2193  0.6428
16004SOL    HW254874   0.030   5.834   8.269 -1.4954  1.3739  1.2441
16005SOL     OW54875   2.981   9.467   4.212  0.5342 -0.1754  0.7469
16005SOL    HW154876   3.059   9.417   4.189  0.5640  0.1256  0.1905
16005SOL    HW254877   2.933   9.477   4.130  1.7147  2.8010  0.2843
16006SOL     OW54878   2.124   5.403  12.273  0.1650  0.3052  0.0459
16006SOL    HW154879   2.059   5.441  12.214  1.4721  0.0499 -1.6584
16006SOL    HW254880   2.160   5.478  12.320 -0.2735  0.6369 -0.1376
16007SOL     OW54881   0.507   7.324   4.591  0.1732 -0.2508 -0.4072
16007SOL    HW154882   0.415   7.319   4.564 -0.1563 -0.0859  0.6185
16007SOL    HW254883   0.518   7.416   4.617  0.2811 -0.5279  0.5827
16008SOL     OW54884   0.231   2.724  11.294 -0.0507  0.4170 -0.3030
16008SOL    HW154885   0.216   2.638  11.333  0.2132  0.4370 -0.1498
16008SOL    HW254886   0.301   2.708  11.230 -0.4939  0.3807 -0.7836
16009SOL     OW54887   5.474   8.386   0.765 -0.0751 -0.3871  0.0905
16009SOL    HW154888   5.496   8.302   0.805  1.5330  0.1001  0.2783
16009SOL    HW254889   5.513   8.382   0.677  0.7036  0.4572  0.3861
16010SOL     OW54890   6.862   9.485   1.422  0.2593  0.1301  0.0644
16010SOL    HW154891   6.928   9.554   1.424 -2.3540  3.0400 -2.7248
16010SOL    HW254892   6.803   9.506   1.493  1.2541 -1.4140  1.4140
16011SOL     OW54893  11.555   6.249   8.251  0.3548 -0.6330  0.7237
16011SOL    HW154894  11.561   6.332   8.203  0.3292 -0.9628  0.1459
16011SOL    HW254895  11.640   6.239   8.293  1.1710 -1.3920 -1.0087
16012SOL     OW54896   0.531  11.294   1.555  0.4746  0.6240  0.1728
16012SOL    HW154897   0.531  11.331   1.467  0.1699  1.5666  0.5529
16012SOL    HW254898   0.439  11.271   1.571  0.4176  1.0608  0.4852
16013SOL     OW54899  11.281   4.353   8.401 -0.2412 -0.0196  0.6069
16013SOL    HW154900  11.187   4.361   8.385 -0.4557 -0.1792  1.6687
16013SOL    HW254901  11.294   4.260   8.420  0.5887 -0.5216 -2.0340
16014SOL     OW54902   8.205   7.678   9.590  0.0987  0.2497  0.3470
16014SOL    HW154903   8.275   7.663   9.527 -0.1553 -0.4783  0.2215
16014SOL    HW254904   8.233   7.754   9.640  0.2634  0.8975 -0.7002
16015SOL     OW54905   1.763   5.642   4.583 -0.2023  0.0890  0.4008
16015SOL    HW154906   1.817   5.579   4.631 -2.3395 -2.3705 -0.2146
16015SOL    HW254907   1.674   5.624   4.611 -0.9912  2.3173 -0.4768
16016SOL     OW54908  10.699   3.616   7.451 -0.2611 -0.1464  0.3540
16016SOL    HW154909  10.779   3.612   7.504 -1.1399 -1.3721  1.6791
16016SOL    HW254910  10.671   3.524   7.444 -0.3109  0.0009 -2.0976
16017SOL     OW54911   8.755   7.065   8.310  0.1669 -0.8336  0.6225
16017SOL    HW154912   8.699   7.121   8.257 -0.5036 -1.0840  1.0669
16017SOL    HW254913   8.841   7.071   8.268 -0.6887 -2.3386 -1.5589
16018SOL     OW54914   2.274   0.836   2.274  0.2639  0.1988 -0.1342
16018SOL    HW154915   2.215   0.856   2.201  1.4816  0.8192 -0.9852
16018SOL    HW254916   2.309   0.921   2.299 -0.8436  0.1264  1.8472
16019SOL     OW54917  12.438   6.695   8.543 -0.1534  0.0049 -0.6211
16019SOL    HW154918  12.529   6.717   8.522  0.4136 -0.6085  0.9855
16019SOL    HW254919  12.419   6.617   8.491  1.2574 -1.5746  1.0727
16020SOL     OW54920  11.466   3.755   8.574  0.3210  0.6853 -0.3746
16020SOL    HW154921  11.516   3.813   8.516 -0.7480  0.5133 -1.5035
16020SOL    HW254922  11.533   3.708   8.623  1.2287  1.9564 -0.3418
16021SOL     OW54923  10.073   4.837   1.175 -0.6734  0.2742 -0.5055
16021SOL    HW154924  10.136   4.859   1.244  0.3730 -0.0781 -1.3333
16021SOL    HW254925  10.024   4.763   1.211 -1.1258  1.0009  0.4300
16022SOL     OW54926   2.914   2.222   1.454  0.6016  0.5246  0.1160
16022SOL    HW154927   2.833   2.227   1.505 -0.0712  0.6281 -0.9287
16022SOL    HW254928   2.957   2.142   1.486 -0.3682 -0.0455  0.0461
16023SOL     OW54929   0.949   0.224   1.137  0.1095  0.3217 -0.4878
16023SOL    HW154930   1.037   0.196   1.163  0.6075  1.9388 -0.3148
16023SOL    HW254931   0.963   0.270   1.054 -0.5066  0.9702 -0.2329
16024SOL     OW54932   5.181   7.243   6.572 -0.1444 -0.6994 -0.1963
16024SOL    HW154933   5.268   7.278   6.590 -0.5978  0.7510 -0.6635
16024SOL    HW254934   5.197   7.158   6.532  1.1732  0.2810 -1.9237
16025SOL     OW54935   8.484  10.208   8.159 -0.3304  0.7061  0.3648
16025SOL    HW154936   8.419  10.278   8.155 -1.2129 -0.1650 -1.1152
16025SOL    HW254937   8.439  10.131   8.125  1.0902 -0.2261  0.5260
16026SOL     OW54938   7.802   1.503   0.579  0.1566  0.1066 -0.2405
16026SOL    HW154939   7.856   1.528   0.654 -0.3957  1.8700 -0.3667
16026SOL    HW254940   7.780   1.411   0.594  0.7219  0.1953  1.3359
16027SOL     OW54941   4.261   6.811   4.536 -0.1510  0.4447  0.4155
16027SOL    HW154942   4.245   6.744   4.603  0.0247 -0.6433 -0.5985
16027SOL    HW254943   4.190   6.799   4.473  0.0762  0.9939  0.0519
16028SOL     OW54944   7.306   1.371   3.938  0.0617  0.4977  0.0935
16028SOL    HW154945   7.333   1.294   3.887 -0.6911  0.7735 -0.7583
16028SOL    HW254946   7.235   1.338   3.994 -1.0625  0.7967 -1.1083
16029SOL     OW54947  10.536   5.798   9.578  0.2780  0.2669  0.1563
16029SOL    HW154948  10.560   5.842   9.497  1.5124 -1.0138 -0.2235
16029SOL    HW254949  10.447   5.766   9.562 -0.4626  2.1270  0.2740
16030SOL     OW54950   3.315   4.033   6.025  0.3067 -0.1939 -0.7388
16030SOL    HW154951   3.396   4.080   6.004 -0.5290  1.1908 -1.0382
16030SOL    HW254952   3.343   3.943   6.042  1.9634  0.3503 -0.3405
16031SOL     OW54953  12.092   7.640   0.670 -0.3192 -0.2210  0.1110
16031SOL    HW154954  12.144   7.568   0.633  0.9391  0.9804 -0.5392
16031SOL    HW254955  12.001   7.613   0.654  0.1372 -0.8220 -1.8543
16032SOL     OW54956   8.165   5.490   2.683  0.3361  0.6266 -0.6026
16032SOL    HW154957   8.239   5.450   2.636  0.1932  0.3085 -0.5618
16032SOL    HW254958   8.104   5.418   2.696  0.3441  0.7263  0.0161
16033SOL     OW54959   4.011   9.498  10.119 -0.5062  0.3927 -0.2771
16033SOL    HW154960   3.939   9.495  10.056 -1.0253  0.1738  0.3267
16033SOL    HW254961   3.976   9.459  10.199 -0.3088  1.9658  0.6172
16034SOL     OW54962   6.693   4.481  10.486 -0.2994 -0.1196 -0.6595
16034SOL    HW154963   6.678   4.474  10.392 -0.7466 -0.3634 -0.5730
16034SOL    HW254964   6.693   4.576  10.503 -1.0314 -0.0954 -0.7764
16035SOL     OW54965   3.493  11.774  11.940  0.0683  0.5285 -0.2347
16035SOL    HW154966   3.482  11.862  11.977 -0.9043  0.1311  0.4870
16035SOL    HW254967   3.514  11.788  11.848 -0.2149  1.5145 -0.1570
16036SOL     OW54968   2.186   3.659   8.498 -0.0645 -0.5556  0.4280
16036SOL    HW154969   2.251   3.607   8.453  1.5226  0.0753  1.8638
16036SOL    HW254970   2.216   3.750   8.489 -0.2667 -0.3202  1.7912
16037SOL     OW54971   8.194   2.907   2.283 -0.4654  0.4586  0.3875
16037SOL    HW154972   8.177   2.966   2.356 -2.0096  2.4711 -1.4347
16037SOL    HW254973   8.259   2.954   2.230 -1.4208  0.3812 -0.9008
16038SOL     OW54974   1.915   7.889   7.972 -0.3265  0.3639 -0.1441
16038SOL    HW154975   1.836   7.893   8.025 -1.2401  1.9751 -1.5375
16038SOL    HW254976   1.884   7.889   7.881  1.2241 -1.2201 -0.7524
16039SOL     OW54977   1.128  10.411   3.986 -0.4153 -0.0187 -0.2532
16039SOL    HW154978   1.223  10.419   3.999 -0.5175 -0.5767  0.9425
16039SOL    HW254979   1.116  10.322   3.956 -0.7374 -0.6786  1.7007
16040SOL     OW54980   9.007   5.578   5.501  0.0897 -0.5558  0.0024
16040SOL    HW154981   9.068   5.631   5.450 -0.1412 -0.3463 -0.0570
16040SOL    HW254982   9.063   5.531   5.563  0.2160  0.3812  0.6095
16041SOL     OW54983   1.778   5.251   5.302  0.4564  0.0158  0.8665
16041SOL    HW154984   1.735   5.301   5.371  0.5234 -0.1217  1.0091
16041SOL    HW254985   1.721   5.260   5.226  1.1941  1.5213  0.4613
16042SOL     OW54986  11.661   1.869   0.186  0.2943 -0.5275 -0.2255
16042SOL    HW154987  11.678   1.827   0.102  2.3234 -1.2180  0.4836
16042SOL    HW254988  11.715   1.948   0.185 -0.9602  0.3591 -0.2123
16043SOL     OW54989  11.630   4.525  10.812 -0.1271 -0.3114 -0.2225
16043SOL    HW154990  11.624   4.433  10.840 -0.3914 -0.1607  0.2361
16043SOL    HW254991  11.570   4.531  10.738  0.7180 -0.7616 -0.9606
16044SOL     OW54992   2.130   6.695   4.239  0.0682  0.2697  0.3039
16044SOL    HW154993   2.208   6.741   4.270  0.3957 -1.1900  1.8126
16044SOL    HW254994   2.079   6.679   4.319 -1.6777  0.9511 -0.6207
16045SOL     OW54995   9.749   1.369  11.479 -0.3001 -0.3172 -0.2392
16045SOL    HW154996   9.772   1.284  11.441 -0.5348 -0.1147 -0.8527
16045SOL    HW254997   9.796   1.372  11.562  2.6023  0.4537 -1.7935
16046SOL     OW54998   5.706   9.548   1.769  0.2616 -0.0483  0.8476
16046SOL    HW154999   5.676   9.546   1.860 -1.8867 -1.1703  0.1795
16046SOL    HW255000   5.712   9.456   1.743  3.3634  0.1353  0.5498
16047SOL     OW55001  11.766  10.147   6.525  0.2364 -0.2687 -0.0154
16047SOL    HW155002  11.840  10.144   6.585  0.7856 -1.0508 -0.7033
16047SOL    HW255003  11.796  10.204   6.454 -0.4347  0.7108  0.4676
16048SOL     OW55004   3.997   5.501   7.216 -0.3135 -0.1413  0.1751
16048SOL    HW155005   4.000   5.588   7.254  0.0879  0.1829 -0.5750
16048SOL    HW255006   4.043   5.510   7.132  0.5134 -1.2647  0.4841
16049SOL     OW55007   6.102   7.935   9.265 -0.0575 -0.2192 -0.2916
16049SOL    HW155008   6.127   7.843   9.271 -1.5608 -0.5268  2.2025
16049SOL    HW255009   6.137   7.963   9.180  1.5182 -2.7225 -0.5723
16050SOL     OW55010   4.690   5.615   4.212  0.0430  0.3454 -0.5005
16050SOL    HW155011   4.647   5.530   4.201 -1.0725  0.7710  0.3555
16050SOL    HW255012   4.703   5.647   4.123 -0.3156 -0.3428 -0.8082
16051SOL     OW55013   2.013   9.145   7.933  0.6209  0.0429 -0.0058
16051SOL    HW155014   1.948   9.172   7.868 -1.0903 -0.5565  1.3937
16051SOL    HW255015   1.997   9.203   8.008  0.5176 -1.2395  0.9939
16052SOL     OW55016   9.610   5.516   0.345  0.0094 -0.1934 -0.1104
16052SOL    HW155017   9.683   5.457   0.361 -0.1298 -0.8148 -1.6092
16052SOL    HW255018   9.649   5.604   0.346  0.8889 -0.5423 -1.3798
16053SOL     OW55019   2.904   9.719   6.225 -0.9017  0.6256 -0.5558
16053SOL    HW155020   2.964   9.753   6.158 -0.3486  1.3688  0.2977
16053SOL    HW255021   2.905   9.785   6.294 -0.1069 -0.9259  0.9828
16054SOL     OW55022   5.238  11.373   5.492 -0.1127  0.3660  0.1751
16054SOL    HW155023   5.327  11.385   5.525  0.2443 -2.2647  0.3166
16054SOL    HW255024   5.183  11.416   5.558  0.8119 -1.7407  2.4640
16055SOL     OW55025   1.070   0.633  10.119 -0.4086  0.0959  0.8575
16055SOL    HW155026   1.139   0.602  10.061  0.0058  2.4545 -0.0327
16055SOL    HW255027   1.015   0.557  10.134  1.6228 -1.5354  0.5165
16056SOL     OW55028  11.789   8.949   9.340  0.0654  0.1442 -0.1234
16056SOL    HW155029  11.854   9.019   9.341  0.1008  0.1180  1.5657
16056SOL    HW255030  11.714   8.987   9.295  0.5768  0.7820 -0.4650
16057SOL     OW55031   1.562   7.882   9.223  0.0676 -0.1806 -0.7243
16057SOL    HW155032   1.629   7.934   9.267 -1.8011 -0.5473  2.9672
16057SOL    HW255033   1.604   7.797   9.208  0.9091  0.0846  0.0458
16058SOL     OW55034  12.046   9.606   2.958  0.0453  0.4110 -0.0009
16058SOL    HW155035  11.963   9.623   3.002  0.0222 -1.7860  0.9124
16058SOL    HW255036  12.109   9.592   3.029  0.3526 -1.6388 -0.6079
16059SOL     OW55037   9.771   2.911  11.656 -0.2161  0.2143  0.2656
16059SOL    HW155038   9.787   2.932  11.564 -0.3807  1.4251  0.4962
16059SOL    HW255039   9.684   2.947  11.674 -0.3760 -0.4157  0.7802
16060SOL     OW55040   5.185   3.044   2.209  0.2821  0.3517 -0.1431
16060SOL    HW155041   5.268   3.088   2.192 -0.8197  2.1465 -1.1880
16060SOL    HW255042   5.154   3.082   2.291  0.7539 -0.7856  0.5877
16061SOL     OW55043   2.177  12.113   9.239  0.3176 -0.5878  0.6436
16061SOL    HW155044   2.210  12.138   9.325  2.0181  1.7631 -0.5921
16061SOL    HW255045   2.207  12.023   9.227  1.0401 -0.5578  2.0430
16062SOL     OW55046   3.570   9.991   5.690  0.2327  0.3839  0.0982
16062SOL    HW155047   3.536   9.903   5.707 -0.1143  0.4571 -0.2173
16062SOL    HW255048   3.563  10.036   5.774 -1.2496  0.6716 -0.1539
16063SOL     OW55049   4.870   2.753   8.718  0.0999  0.6723 -0.3253
16063SOL    HW155050   4.799   2.767   8.655 -1.1843  0.7366  1.1019
16063SOL    HW255051   4.947   2.738   8.663 -0.6668  2.2188 -1.9258
16064SOL     OW55052   9.694  11.806   6.032  0.1010  0.3819 -0.4231
16064SOL    HW155053   9.707  11.718   5.996 -0.4507  0.9091 -2.0159
16064SOL    HW255054   9.721  11.799   6.123  0.0035 -1.4528 -0.4956
16065SOL     OW55055   0.990   3.146  10.083 -0.0086 -0.2242 -0.1865
16065SOL    HW155056   0.973   3.155   9.990 -0.7301 -0.4543 -0.0830
16065SOL    HW255057   0.905   3.162  10.125  0.2088 -0.5547  0.3996
16066SOL     OW55058   3.609   8.504   9.225  0.5159  0.1708 -0.1902
16066SOL    HW155059   3.551   8.449   9.173 -0.6568 -0.0672  1.3062
16066SOL    HW255060   3.550   8.560   9.277  1.6235  0.5438  0.7280
16067SOL     OW55061   9.024  11.492   4.140  0.3380 -0.3935  0.3132
16067SOL    HW155062   9.076  11.497   4.060  0.9054  2.1154  0.7416
16067SOL    HW255063   8.971  11.572   4.139 -0.5866 -0.9488  1.8048
16068SOL     OW55064  11.234   4.633   5.431  0.3958  0.0203 -0.5440
16068SOL    HW155065  11.311   4.596   5.388  0.3721 -0.1204 -0.4665
16068SOL    HW255066  11.161   4.578   5.402  0.3643 -0.0119 -0.4089
16069SOL     OW55067   5.796   9.247   9.869  0.1525 -0.3364  0.7335
16069SOL    HW155068   5.873   9.290   9.906  0.7212 -1.2521  0.6641
16069SOL    HW255069   5.818   9.235   9.776 -0.3199 -0.0883  0.5856
16070SOL     OW55070  11.400   2.823   8.239 -0.1287 -0.0855 -0.0310
16070SOL    HW155071  11.493   2.818   8.217 -0.2461  0.7888 -0.7815
16070SOL    HW255072  11.393   2.779   8.324  0.8470 -0.7908 -0.3056
16071SOL     OW55073   8.387   2.087   1.059 -0.0209 -0.3486  0.0517
16071SOL    HW155074   8.399   2.123   0.971  1.3686 -1.0485 -0.0778
16071SOL    HW255075   8.309   2.033   1.052  1.6119 -2.7546 -1.6181
16072SOL     OW55076   7.626  12.185   9.299  0.8053  0.2682 -0.6926
16072SOL    HW155077   7.569  12.170   9.375  0.9757  1.2006 -0.3696
16072SOL    HW255078   7.611  12.109   9.242  1.0403 -0.6953  0.4871
16073SOL     OW55079   1.441  10.785   6.922 -0.3488  0.6544 -0.2144
16073SOL    HW155080   1.485  10.719   6.868  0.1100  0.4833  0.3454
16073SOL    HW255081   1.462  10.868   6.881 -0.0102  0.5257 -0.3098
16074SOL     OW55082   4.849  10.529   2.565  0.1121  0.0578  0.1554
16074SOL    HW155083   4.903  10.607   2.553  0.4928 -0.0468  1.1437
16074SOL    HW255084   4.912  10.458   2.580 -0.2726 -0.2221  0.4669
16075SOL     OW55085   7.208   5.339   1.683  0.6534  0.1046 -0.0374
16075SOL    HW155086   7.150   5.399   1.637 -2.3434 -0.7128  2.3224
16075SOL    HW255087   7.217   5.264   1.625 -1.7330 -0.2407 -0.0579
16076SOL     OW55088  10.628   7.783   0.524  0.2600  0.2023 -0.3228
16076SOL    HW155089  10.570   7.782   0.448  0.0051 -0.4404 -0.1197
16076SOL    HW255090  10.709   7.823   0.491  1.2419 -2.6674 -1.7359
16077SOL     OW55091   8.220   9.764  10.776 -0.2537 -0.2208  0.1025
16077SOL    HW155092   8.136   9.794  10.743 -0.6810  0.5535  1.7788
16077SOL    HW255093   8.216   9.669  10.768 -2.1597 -0.3743  1.9941
16078SOL     OW55094   6.423   1.101   9.056 -0.0070 -0.0230 -0.5872
16078SOL    HW155095   6.332   1.122   9.036 -0.7076 -1.3826  0.9140
16078SOL    HW255096   6.437   1.136   9.144  0.9201  0.1504 -0.7933
16079SOL     OW55097  10.085   5.642   0.874  0.8076  0.5608  0.3209
16079SOL    HW155098  10.158   5.583   0.858 -0.0538 -0.6971  0.8619
16079SOL    HW255099  10.066   5.634   0.967 -0.9017 -0.2424 -0.0451
16080SOL     OW55100   6.833   5.930   9.423  0.2440 -0.4117  0.0727
16080SOL    HW155101   6.861   6.011   9.466  0.5773 -0.0258 -0.8442
16080SOL    HW255102   6.907   5.907   9.365 -0.0436 -1.1100 -0.0229
16081SOL     OW55103   9.897   8.130  10.653 -0.6859  0.0280  0.2825
16081SOL    HW155104   9.894   8.097  10.563  2.4822 -0.2756  0.1711
16081SOL    HW255105   9.915   8.224  10.644  0.3784 -0.1326  0.5468
16082SOL     OW55106   0.450   1.513   9.084  0.8872  0.8043 -0.6673
16082SOL    HW155107   0.391   1.582   9.114 -0.1883  0.0394 -0.9630
16082SOL    HW255108   0.475   1.466   9.164  0.5797  0.7359 -0.6109
16083SOL     OW55109  11.237   4.104   9.156 -0.0693 -0.3589 -0.0313
16083SOL    HW155110  11.153   4.140   9.128 -0.1422 -0.5025  0.0002
16083SOL    HW255111  11.299   4.130   9.088  0.2367  1.2834  0.8230
16084SOL     OW55112  12.238   0.036  11.607 -0.3762  0.2050 -0.2196
16084SOL    HW155113  12.239   0.033  11.703  1.3051  3.1557 -0.0243
16084SOL    HW255114  12.152   0.072  11.586 -0.8548 -0.7001  0.1502
16085SOL     OW55115   7.788  12.125   2.515  0.1247 -0.3571  0.0079
16085SOL    HW155116   7.847  12.170   2.577 -0.2973 -0.6991  0.6642
16085SOL    HW255117   7.706  12.116   2.562 -1.0329  1.6367 -1.5004
16086SOL     OW55118   6.692  12.002   1.623  0.2839 -0.6023  0.5177
16086SOL    HW155119   6.735  11.919   1.642  0.9288 -1.0129 -2.3155
16086SOL    HW255120   6.733  12.032   1.542 -2.7736  0.3831 -0.8038
16087SOL     OW55121   9.718   5.797  10.994  0.2678  0.1179  0.0646
16087SOL    HW155122   9.773   5.751  10.930  0.4882  0.9699 -0.3691
16087SOL    HW255123   9.666   5.728  11.035  0.9536 -0.5842 -0.2152
16088SOL     OW55124   4.918   4.103  10.624  0.1261  0.2023 -0.4545
16088SOL    HW155125   4.846   4.079  10.565 -0.5918 -1.5079  0.9994
16088SOL    HW255126   4.879   4.102  10.711  2.1612 -2.4620  0.5956
16089SOL     OW55127  10.604   3.776  10.928  1.1789  0.1292 -0.2234
16089SOL    HW155128  10.560   3.843  10.877 -1.8813 -0.2450  1.6535
16089SOL    HW255129  10.602   3.698  10.873  2.9275  0.9843 -1.5993
16090SOL     OW55130   7.485   9.246   0.254  0.0326 -0.7498 -0.1303
16090SOL    HW155131   7.503   9.172   0.195 -1.0778 -1.3081  0.2099
16090SOL    HW255132   7.449   9.206   0.333 -2.4188  0.2368 -0.6650
16091SOL     OW55133   8.757   3.096   4.200  0.1832  0.1599  0.3730
16091SOL    HW155134   8.764   3.045   4.119 -2.5501 -0.0117  0.1265
16091SOL    HW255135   8.773   3.033   4.270  0.8873 -0.0837  0.0002
16092SOL     OW55136   6.644   0.547   2.170  0.2622  0.6598 -0.6192
16092SOL    HW155137   6.666   0.471   2.116 -0.6766  0.4139 -0.6841
16092SOL    HW255138   6.724   0.566   2.219  0.7553  0.1311 -1.1972
16093SOL     OW55139   9.112   3.102  10.716 -0.1317  0.2538  0.0809
16093SOL    HW155140   9.026   3.092  10.677 -0.1615  2.9643 -0.7358
16093SOL    HW255141   9.173   3.093  10.643  0.2028 -0.0719  0.3898
16094SOL     OW55142   8.502   3.573   1.782  0.0138 -0.0949  0.1336
16094SOL    HW155143   8.508   3.538   1.692  1.8508 -1.0768  0.5915
16094SOL    HW255144   8.466   3.661   1.771 -0.6703 -0.5336 -1.4764
16095SOL     OW55145   5.856   1.472  12.424  0.1114  0.4944  0.6476
16095SOL    HW155146   5.913   1.547  12.444 -0.4124  1.5579 -1.5373
16095SOL    HW255147   5.891   1.437  12.342 -1.5455  0.2949 -0.0011
16096SOL     OW55148   9.027   8.767   6.357 -0.2730  0.1168 -0.4303
16096SOL    HW155149   8.953   8.712   6.333 -0.0118 -0.7178  0.5711
16096SOL    HW255150   9.004   8.854   6.328 -2.4679  0.2525  1.4511
16097SOL     OW55151   0.141   6.023   5.029 -0.3449  0.0285  0.6635
16097SOL    HW155152   0.067   6.043   4.971  0.4347 -1.7693 -1.0520
16097SOL    HW255153   0.211   5.996   4.970  0.9615 -0.5137  2.3880
16098SOL     OW55154   5.944   6.883  10.698  0.3496 -1.3331  0.3823
16098SOL    HW155155   5.951   6.916  10.608  1.0134 -0.3317  0.7819
16098SOL    HW255156   5.897   6.951  10.745 -1.1276 -2.4180  0.5450
16099SOL     OW55157   9.024   2.356   2.458 -0.0210  0.1493  0.4576
16099SOL    HW155158   8.985   2.437   2.492 -2.2686 -1.5447  2.2724
16099SOL    HW255159   9.093   2.335   2.521  0.0701  0.2802  0.4021
16100SOL     OW55160   9.253   0.851   8.473  0.3126  0.3550 -0.4267
16100SOL    HW155161   9.159   0.846   8.485  0.3867 -1.1931 -0.3119
16100SOL    HW255162   9.272   0.945   8.473 -1.4361  0.7839 -2.3005
16101SOL     OW55163   3.229   4.117   9.166  0.0508 -0.2817  0.8114
16101SOL    HW155164   3.217   4.203   9.206  0.4514 -0.6024  1.6537
16101SOL    HW255165   3.291   4.133   9.094 -1.5465  0.5021 -0.4601
16102SOL     OW55166  10.780  10.380   8.046 -0.0086  0.2619 -0.2095
16102SOL    HW155167  10.729  10.460   8.058  0.3568  0.7243 -1.6323
16102SOL    HW255168  10.715  10.310   8.049 -0.6071  0.7688 -1.0178
16103SOL     OW55169   6.272   2.196  12.107  0.2170 -0.3116  0.1824
16103SOL    HW155170   6.292   2.136  12.035 -0.1741 -0.2106 -0.0089
16103SOL    HW255171   6.303   2.282  12.076 -0.3290 -0.1919 -0.0327
16104SOL     OW55172   6.042   2.382   2.965  0.1242 -0.1850  0.0981
16104SOL    HW155173   6.056   2.473   2.992 -0.5195 -0.1828  0.4507
16104SOL    HW255174   6.030   2.334   3.047  2.1540 -0.9201  0.0391
16105SOL     OW55175   0.634   6.636   6.871  0.3555  0.4840  0.6502
16105SOL    HW155176   0.712   6.583   6.886 -1.0964 -1.7523  0.8386
16105SOL    HW255177   0.562   6.582   6.905 -1.2639  2.5244  0.6471
16106SOL     OW55178   0.074   7.122  10.187 -0.5265 -0.0075 -0.0131
16106SOL    HW155179  -0.005   7.115  10.240  0.6819 -0.1484  1.8500
16106SOL    HW255180   0.081   7.215  10.168 -0.6481  0.1410  0.6305
16107SOL     OW55181  10.222   5.067   1.049  0.4402  0.4894 -0.0386
16107SOL    HW155182  10.232   5.156   1.017  2.0851 -0.4052 -2.2924
16107SOL    HW255183  10.135   5.040   1.019  0.2199  1.1018  0.0475
16108SOL     OW55184  10.998   7.655   4.078 -0.3943 -1.0479 -0.1413
16108SOL    HW155185  10.997   7.560   4.068 -2.0434 -0.8869 -2.0221
16108SOL    HW255186  10.972   7.669   4.169 -0.3227 -2.3867  0.1071
16109SOL     OW55187   5.614  10.606   0.108 -0.6281  0.9906  0.1196
16109SOL    HW155188   5.532  10.625   0.154 -0.2034  1.2919  0.7591
16109SOL    HW255189   5.648  10.692   0.084 -1.1838  0.8161 -1.3811
16110SOL     OW55190   3.395   8.257   6.904  0.1678  0.1603 -0.1124
16110SOL    HW155191   3.330   8.230   6.969 -0.0551  0.5624 -0.1627
16110SOL    HW255192   3.352   8.243   6.820 -0.4729  1.9071 -0.1204
16111SOL     OW55193   9.108   8.826   8.264  0.5513  0.1549  0.1459
16111SOL    HW155194   9.053   8.869   8.329  1.6307 -0.4152  1.5042
16111SOL    HW255195   9.056   8.751   8.234  0.4587 -0.2233  1.2071
16112SOL     OW55196   8.117   9.299   3.416  0.4482 -0.1664  0.2782
16112SOL    HW155197   8.061   9.378   3.413 -0.3939 -0.6921  1.3002
16112SOL    HW255198   8.179   9.318   3.486  0.4354 -0.2882  0.3212
16113SOL     OW55199   4.276   2.930   8.762 -0.4477  0.0778  0.1883
16113SOL    HW155200   4.225   2.850   8.774 -0.2781  0.0197  0.5380
16113SOL    HW255201   4.265   2.977   8.845 -0.9323  0.6378 -0.1821
16114SOL     OW55202   4.668  11.951  10.133 -0.0050  0.2979 -0.2653
16114SOL    HW155203   4.628  11.923  10.216 -0.2379  0.0510 -0.4564
16114SOL    HW255204   4.660  11.874  10.076 -0.2187  0.5970 -0.6444
16115SOL     OW55205   1.532   7.257  10.330  0.0227  0.0206  0.1956
16115SOL    HW155206   1.585   7.336  10.339 -0.9731  0.5933  1.3837
16115SOL    HW255207   1.478   7.255  10.409 -1.2396 -0.8980 -0.6440
16116SOL     OW55208   7.918   4.532  12.399  0.8311  0.2574  0.3397
16116SOL    HW155209   7.881   4.462  12.346 -0.0942  0.5715  0.5368
16116SOL    HW255210   7.933   4.493  12.485 -1.8242  0.7928  1.1573
16117SOL     OW55211   7.914   6.785   3.927 -0.2434  0.2652 -0.0255
16117SOL    HW155212   8.007   6.765   3.916 -0.2237  0.4862 -0.2783
16117SOL    HW255213   7.905   6.876   3.898 -0.6178  0.0998 -0.4556
16118SOL     OW55214  10.235  10.850   2.401  0.0395  0.2708 -0.1525
16118SOL    HW155215  10.323  10.883   2.381  0.0699 -0.0746 -0.6022
16118SOL    HW255216  10.224  10.775   2.344 -0.6541  0.4582 -0.2725
16119SOL     OW55217  10.693   6.411   8.766 -0.4807 -0.2831 -0.3023
16119SOL    HW155218  10.757   6.466   8.721  2.1557 -0.8106  2.4723
16119SOL    HW255219  10.717   6.321   8.742 -2.7333 -0.4598 -2.2592
16120SOL     OW55220   7.674   4.142   9.354  0.6934  0.1497 -0.4391
16120SOL    HW155221   7.718   4.057   9.363  0.8465  0.0234 -2.0468
16120SOL    HW255222   7.742   4.207   9.370  0.7916 -0.0305 -0.1182
16121SOL     OW55223   8.779   6.630   6.511 -0.0335  0.5035  0.4398
16121SOL    HW155224   8.794   6.722   6.532  0.1165  0.3748  0.9246
16121SOL    HW255225   8.832   6.582   6.575  0.1868  0.0832 -0.0487
16122SOL     OW55226   1.874  10.186   4.321 -0.0703 -0.7403  0.0983
16122SOL    HW155227   1.799  10.126   4.323  0.4064 -1.3825 -0.5328
16122SOL    HW255228   1.891  10.200   4.227  0.5283 -0.5163  0.2343
16123SOL     OW55229  10.402   2.600   6.201 -0.0876 -0.5209 -0.2526
16123SOL    HW155230  10.493   2.609   6.231 -0.4476 -0.7455  0.9584
16123SOL    HW255231  10.351   2.649   6.265 -1.0901 -2.6699  0.6934
16124SOL     OW55232   1.109   3.856   2.948  0.6532  0.2154  0.2320
16124SOL    HW155233   1.029   3.873   2.897 -0.7354  0.4218  2.3721
16124SOL    HW255234   1.109   3.762   2.964  0.5385  0.2919  0.6970
16125SOL     OW55235   9.091   6.401   6.094 -0.3662  0.3614  0.3277
16125SOL    HW155236   9.012   6.443   6.129 -0.6576  0.1726 -0.0857
16125SOL    HW255237   9.163   6.453   6.128 -0.6807  0.6619  0.5462
16126SOL     OW55238   8.106  11.367   4.154  0.2701  0.2887  0.0997
16126SOL    HW155239   8.101  11.319   4.072  0.6859  0.9084 -0.3038
16126SOL    HW255240   8.016  11.390   4.175  0.1631  0.1294 -0.1925
16127SOL     OW55241   5.733   7.575   8.447 -0.0460  0.0638 -0.0407
16127SOL    HW155242   5.672   7.644   8.421  0.4045  0.2789 -0.5414
16127SOL    HW255243   5.681   7.494   8.441 -0.2123  0.2135 -0.7478
16128SOL     OW55244   7.917   8.950   7.669 -0.3271  0.3264  0.2001
16128SOL    HW155245   7.931   9.019   7.734 -0.6583 -0.0854  0.7124
16128SOL    HW255246   7.870   8.993   7.597  1.3144  1.1435 -0.4509
16129SOL     OW55247   5.501   6.927   7.496 -0.5758  0.1071  0.2693
16129SOL    HW155248   5.502   6.921   7.592  0.9305 -0.2801  0.2534
16129SOL    HW255249   5.514   6.837   7.466  0.0179  0.3640 -0.2676
16130SOL     OW55250  10.523   6.161   2.245 -1.0074 -0.2040  0.3617
16130SOL    HW155251  10.591   6.150   2.177 -1.4742 -0.1076 -0.1295
16130SOL    HW255252  10.465   6.229   2.209 -2.5507 -1.7454 -0.2022
16131SOL     OW55253   5.244   8.380   8.847 -0.5179 -0.3166 -0.3178
16131SOL    HW155254   5.165   8.331   8.868 -0.4255 -0.4910 -0.3661
16131SOL    HW255255   5.213   8.458   8.800 -0.5752 -1.1355 -1.7015
16132SOL     OW55256  11.320  11.265   4.560  0.0416 -0.2566 -0.4320
16132SOL    HW155257  11.275  11.341   4.522  0.9470 -0.0156 -1.0388
16132SOL    HW255258  11.252  11.221   4.611 -0.3284  1.3607  0.5551
16133SOL     OW55259  10.130   4.210   1.337  0.3406 -0.0134  0.4476
16133SOL    HW155260  10.091   4.250   1.259  0.6494  1.3121  0.9519
16133SOL    HW255261  10.153   4.121   1.309 -0.5873  0.0594 -0.6326
16134SOL     OW55262  11.366   7.874   4.560  0.0397  0.5520  0.9494
16134SOL    HW155263  11.347   7.941   4.494 -1.1819 -0.1658  0.5281
16134SOL    HW255264  11.458   7.887   4.582  0.4610  0.8713 -0.8490
16135SOL     OW55265  10.761   2.655   9.351 -0.3191 -0.0377  0.0725
16135SOL    HW155266  10.831   2.674   9.289 -1.1693  0.5108 -0.7456
16135SOL    HW255267  10.693   2.719   9.331 -2.2058 -2.2211 -0.9862
16136SOL     OW55268   0.375   9.811   6.413  0.1554 -0.1184 -0.4367
16136SOL    HW155269   0.390   9.838   6.322  0.9917  0.1614 -0.2238
16136SOL    HW255270   0.421   9.728   6.421  0.3920  0.0379 -0.1689
16137SOL     OW55271   1.676   0.467   9.777 -0.2942  0.7211  0.1738
16137SOL    HW155272   1.706   0.380   9.803 -1.3862  0.3098  0.1116
16137SOL    HW255273   1.705   0.524   9.848  0.2079  0.2614  0.3434
16138SOL     OW55274   0.897   6.137   9.112  0.1647  0.2881 -0.2519
16138SOL    HW155275   0.928   6.049   9.132 -1.2687  0.1467  1.6491
16138SOL    HW255276   0.852   6.129   9.028 -0.4942 -0.9415  0.2022
16139SOL     OW55277   0.451   8.090   2.705  0.0845 -1.0223 -0.3884
16139SOL    HW155278   0.488   8.169   2.745 -0.2057  1.0358 -3.7731
16139SOL    HW255279   0.402   8.049   2.776  0.4392  1.6882  1.6299
16140SOL     OW55280   6.281   5.573   3.613  0.7531 -0.1630  0.1440
16140SOL    HW155281   6.287   5.514   3.538 -0.3442 -0.1243  0.0052
16140SOL    HW255282   6.314   5.656   3.581 -1.2916  0.3179 -0.8481
16141SOL     OW55283   5.865   7.713  12.151  0.0793 -0.7983  0.7102
16141SOL    HW155284   5.799   7.649  12.125 -0.1651 -0.7476  1.1885
16141SOL    HW255285   5.936   7.701  12.088 -0.9584  0.0989 -0.6914
16142SOL     OW55286   8.169   1.034   1.638  0.0893  0.6246  0.0898
16142SOL    HW155287   8.197   0.959   1.587 -1.4232  0.4001 -0.4649
16142SOL    HW255288   8.224   1.106   1.608 -1.4330  0.7585 -2.6830
16143SOL     OW55289   9.734  12.268  11.009 -0.1591 -0.2552 -0.0839
16143SOL    HW155290   9.784  12.323  11.069  1.6825 -1.0492 -0.8344
16143SOL    HW255291   9.651  12.314  10.999 -0.1826  0.3663  2.3314
16144SOL     OW55292   5.576   5.534   7.371  0.2081 -0.9239 -0.1798
16144SOL    HW155293   5.533   5.562   7.451 -0.4919  0.4226 -0.9979
16144SOL    HW255294   5.655   5.489   7.401  0.7699  0.9033  1.2495
16145SOL     OW55295  11.313   0.438   7.098  0.1648  0.3196  0.4915
16145SOL    HW155296  11.390   0.434   7.040  0.1897  2.0081  0.3504
16145SOL    HW255297  11.349   0.426   7.186  0.3483 -0.6040  0.2984
16146SOL     OW55298  10.498   7.239   3.599  0.2711  0.2915 -0.1101
16146SOL    HW155299  10.411   7.201   3.592 -0.4299  1.8176 -0.0359
16146SOL    HW255300  10.540   7.189   3.669  0.4743 -2.2439 -1.8917
16147SOL     OW55301   9.227   9.278   8.038  0.2866  0.0400  0.0118
16147SOL    HW155302   9.220   9.183   8.032  0.2085 -0.1268  2.0314
16147SOL    HW255303   9.315   9.293   8.072  0.5455  0.7488 -0.9352
16148SOL     OW55304   9.930   5.921   5.604  0.2881 -0.8313 -0.1790
16148SOL    HW155305   9.937   6.008   5.643 -1.5892 -0.9720  0.5569
16148SOL    HW255306  10.008   5.914   5.549  0.2067  1.5595 -0.7313
16149SOL     OW55307   8.789  11.022  10.599  0.2595 -0.1750 -0.5337
16149SOL    HW155308   8.714  11.032  10.658  1.1792  1.3099  0.4465
16149SOL    HW255309   8.859  10.986  10.653  1.4433  2.1959 -0.3456
16150SOL     OW55310   4.504   8.799   2.134 -0.1485 -0.6481  0.0114
16150SOL    HW155311   4.454   8.874   2.164  0.8994 -0.2815  0.9060
16150SOL    HW255312   4.518   8.814   2.041  0.6357  0.6335  0.3116
16151SOL     OW55313   5.106  10.200   0.425  0.2684  0.5218 -0.1464
16151SOL    HW155314   5.158  10.194   0.506  0.2510  0.7116 -0.1205
16151SOL    HW255315   5.045  10.271   0.441  1.1400  1.4566 -0.8098
16152SOL     OW55316   2.263   3.977  11.201  0.2448  0.0855  0.1995
16152SOL    HW155317   2.335   3.937  11.153  0.6342  1.2046 -0.1857
16152SOL    HW255318   2.305   4.035  11.265 -0.2894 -0.6722  1.2667
16153SOL     OW55319   4.225   2.218  10.920 -0.0344 -0.1420 -0.5990
16153SOL    HW155320   4.215   2.201  10.826  1.8047 -0.3652 -0.7723
16153SOL    HW255321   4.318   2.236  10.932  0.1976 -2.3152  1.5356
16154SOL     OW55322   1.263   3.367   6.316 -0.1764 -0.3518  0.1769
16154SOL    HW155323   1.275   3.292   6.258  0.7039  1.6333 -2.3784
16154SOL    HW255324   1.352   3.397   6.336 -0.4756  1.2600 -0.6822
16155SOL     OW55325   1.563  10.397   5.261  0.1595  0.1946  0.4438
16155SOL    HW155326   1.652  10.366   5.282  0.3145  0.7560  0.6262
16155SOL    HW255327   1.550  10.372   5.170 -0.1985 -1.5221  0.9277
16156SOL     OW55328   3.036  12.402   9.179 -0.0564 -0.6503  0.4519
16156SOL    HW155329   3.041  12.469   9.112 -0.0290 -2.1906 -1.1439
16156SOL    HW255330   2.968  12.433   9.239 -0.1091  0.7327 -0.2859
16157SOL     OW55331   9.714   4.080   6.561 -0.5497 -0.3216 -0.2896
16157SOL    HW155332   9.657   4.148   6.596  1.9513  1.9988 -0.4535
16157SOL    HW255333   9.790   4.079   6.620 -0.0881 -2.3779 -0.8159
16158SOL     OW55334  11.166   3.244   1.923  0.8273  0.5145  0.6499
16158SOL    HW155335  11.170   3.185   1.847  1.7603  1.6031 -0.1801
16158SOL    HW255336  11.097   3.207   1.978 -0.4242  0.1259 -1.0884
16159SOL     OW55337   5.583  11.366  12.461  0.0217  0.4552  0.4442
16159SOL    HW155338   5.599  11.409  12.377 -1.2428  0.7397  0.3238
16159SOL    HW255339   5.496  11.396  12.487 -1.2352 -2.5057  0.0271
16160SOL     OW55340   7.082  10.092  10.375 -0.0069  0.4669  0.4441
16160SOL    HW155341   7.156  10.038  10.404  0.5223  1.0754  0.2457
16160SOL    HW255342   7.007  10.056  10.421  0.0746 -1.3500 -0.7362
16161SOL     OW55343  11.997   7.161   8.223 -0.2783 -0.5700  0.4838
16161SOL    HW155344  12.074   7.130   8.271  1.3905  0.5066 -1.3533
16161SOL    HW255345  11.959   7.082   8.184  0.1696 -1.0532  1.0196
16162SOL     OW55346  10.762   9.885   2.585  0.0719 -0.4180 -0.3421
16162SOL    HW155347  10.740   9.798   2.554 -0.1055 -0.9462  1.1737
16162SOL    HW255348  10.723   9.890   2.673  1.1162  0.7294  0.0936
16163SOL     OW55349   2.732   3.280   9.325  0.2216 -0.2174  0.2022
16163SOL    HW155350   2.781   3.254   9.248 -1.4569 -1.5719 -0.4749
16163SOL    HW255351   2.663   3.214   9.334  0.0733  0.1504  2.6006
16164SOL     OW55352   6.381   8.493   4.262 -0.1350  0.2801 -0.3264
16164SOL    HW155353   6.402   8.466   4.172 -0.8307  0.6499 -0.6012
16164SOL    HW255354   6.287   8.479   4.270 -0.2231  1.0786  0.0600
16165SOL     OW55355   0.078   0.210   1.466  0.0096  0.2678  0.0962
16165SOL    HW155356   0.026   0.238   1.391  2.5972 -0.1555 -1.9994
16165SOL    HW255357   0.059   0.117   1.475 -0.3439  0.3305  0.0085
16166SOL     OW55358   7.274   8.577   6.563  0.3783 -0.0352  0.2566
16166SOL    HW155359   7.336   8.642   6.529 -1.8773  0.6177 -3.1469
16166SOL    HW255360   7.283   8.502   6.505 -0.6814 -0.6551  0.8553
16167SOL     OW55361   8.879   1.915   9.005  0.6840 -0.0877  0.0154
16167SOL    HW155362   8.909   1.846   8.946  2.0446  0.6319 -0.1897
16167SOL    HW255363   8.882   1.875   9.092 -0.9880 -1.0421 -0.3245
16168SOL     OW55364   7.774   0.764   4.498  0.0975  0.3202  0.2492
16168SOL    HW155365   7.756   0.785   4.406 -2.8457  1.5925  1.0063
16168SOL    HW255366   7.831   0.834   4.529 -0.2210  0.7809 -0.2050
16169SOL     OW55367   2.775   5.662   8.196 -0.1419  0.0666 -0.0671
16169SOL    HW155368   2.720   5.734   8.226 -0.9646  0.1739 -1.7435
16169SOL    HW255369   2.859   5.703   8.174 -0.6473  0.5517 -1.1359
16170SOL     OW55370   9.876  12.315  10.596 -0.1784 -0.5847 -0.4756
16170SOL    HW155371   9.842  12.385  10.651  1.5901  0.3054 -0.4433
16170SOL    HW255372   9.918  12.360  10.522  0.2795 -1.6327 -0.8778
16171SOL     OW55373   7.655   1.948   4.173 -0.2700  0.4918 -0.6028
16171SOL    HW155374   7.697   1.967   4.257 -1.0841 -1.0544  0.2083
16171SOL    HW255375   7.727   1.922   4.115  0.4424  2.6942 -0.7877
16172SOL     OW55376   4.667   5.172   8.052 -0.0894  0.1317 -0.2243
16172SOL    HW155377   4.745   5.117   8.057 -0.6860 -0.6758  0.6200
16172SOL    HW255378   4.606   5.133   8.115 -1.4926  0.2446 -1.4348
16173SOL     OW55379  11.389   9.322   4.065 -0.0500 -0.2323 -0.3225
16173SOL    HW155380  11.325   9.265   4.109 -1.6174  1.2205 -0.6357
16173SOL    HW255381  11.350   9.341   3.980  1.5811 -0.6072 -1.1926
16174SOL     OW55382   7.987  11.484   2.299  0.1183  0.0168  0.8903
16174SOL    HW155383   8.047  11.496   2.373  0.5832  2.2213  0.2306
16174SOL    HW255384   7.996  11.565   2.247 -0.7105 -1.1572 -1.2058
16175SOL     OW55385   6.940   0.394   1.518  0.3037  0.1005 -0.0412
16175SOL    HW155386   6.964   0.452   1.591  1.0451 -0.9576  0.5776
16175SOL    HW255387   6.858   0.430   1.485  0.0795  0.7432  1.1630
16176SOL     OW55388   3.539   3.913   0.814  0.4314  0.2227  0.7475
16176SOL    HW155389   3.596   3.920   0.737  0.2974 -1.4887  0.4501
16176SOL    HW255390   3.496   3.998   0.819  0.9900  0.6232 -0.6434
16177SOL     OW55391   0.187  12.080  12.164  0.3220 -0.3492  0.2125
16177SOL    HW155392   0.181  12.092  12.069 -0.1488  0.1779  0.3045
16177SOL    HW255393   0.107  12.120  12.198  2.0011  2.4295  1.1202
16178SOL     OW55394   3.634   2.484   8.792  0.2297 -0.3296  0.0669
16178SOL    HW155395   3.617   2.536   8.713 -1.2165 -1.6375 -0.5168
16178SOL    HW255396   3.550   2.445   8.815  0.2659  1.0884  3.1092
16179SOL     OW55397  11.847   2.239  10.166  0.2922  0.3595 -0.2843
16179SOL    HW155398  11.779   2.278  10.110  1.2552  1.0775 -0.9862
16179SOL    HW255399  11.804   2.165  10.209 -1.1037  1.1626 -0.2470
16180SOL     OW55400  10.615   8.904   8.200  1.2955 -0.1623  1.0118
16180SOL    HW155401  10.672   8.900   8.124 -0.6955 -0.8045 -0.5333
16180SOL    HW255402  10.582   8.994   8.201  0.8487 -0.3207  0.7388
16181SOL     OW55403   5.043   2.201  12.306 -0.6087  0.3840 -0.1061
16181SOL    HW155404   5.092   2.250  12.240  0.5424 -2.1720 -1.2713
16181SOL    HW255405   4.957   2.244  12.309  0.0411  1.9143 -1.6479
16182SOL     OW55406   7.847  11.650  11.879 -0.8517  0.2390  0.0081
16182SOL    HW155407   7.909  11.723  11.877  0.7915 -1.0523  1.0183
16182SOL    HW255408   7.840  11.622  11.788  2.4517 -1.4324  0.1040
16183SOL     OW55409  10.435   0.817  11.834 -0.4999 -0.3510  0.0512
16183SOL    HW155410  10.468   0.738  11.792  2.1525  0.2986  0.7767
16183SOL    HW255411  10.491   0.830  11.910 -0.6758  2.3503 -0.1892
16184SOL     OW55412   9.185   0.616   6.099 -0.0721 -0.5699  0.0981
16184SOL    HW155413   9.215   0.705   6.085 -1.6357 -0.0392 -0.0624
16184SOL    HW255414   9.153   0.615   6.189  0.1557 -1.0535  0.1803
16185SOL     OW55415   6.354   3.471   3.952 -0.4291  0.5962  0.1566
16185SOL    HW155416   6.426   3.471   4.015 -0.0386 -0.1122 -0.2703
16185SOL    HW255417   6.326   3.563   3.947  0.6465  0.9409  0.1117
16186SOL     OW55418   1.674   1.838  11.958  0.7496 -1.3156  0.4889
16186SOL    HW155419   1.746   1.898  11.980 -0.7682  0.6610  0.3341
16186SOL    HW255420   1.658   1.790  12.039 -0.1026  0.8412  1.6894
16187SOL     OW55421  11.805   0.052   1.165 -0.3421  0.2420 -0.5915
16187SOL    HW155422  11.723   0.049   1.214  0.1020 -0.3480  0.1323
16187SOL    HW255423  11.832   0.143   1.169 -0.3949  0.2286  0.1136
16188SOL     OW55424  10.668   4.031   3.361 -0.1584 -0.0296  0.3699
16188SOL    HW155425  10.577   4.007   3.344  0.1482 -0.8836 -0.1246
16188SOL    HW255426  10.684   4.003   3.451 -0.2214 -0.4122  0.2640
16189SOL     OW55427   3.449   6.255   5.799 -0.0046  0.0798  0.3490
16189SOL    HW155428   3.356   6.240   5.784  0.0600  0.5392 -0.6238
16189SOL    HW255429   3.475   6.188   5.863 -0.7059 -0.9164 -0.3821
16190SOL     OW55430  12.380   4.419   3.170 -0.1899  0.3415  0.1460
16190SOL    HW155431  12.303   4.396   3.118 -0.2092  3.0986 -1.2319
16190SOL    HW255432  12.347   4.423   3.260 -0.8866 -1.4917  0.0208
16191SOL     OW55433   6.133   6.690   2.534  0.3164 -0.2949  0.3674
16191SOL    HW155434   6.201   6.658   2.474 -3.4808 -4.3297 -2.3993
16191SOL    HW255435   6.093   6.763   2.487 -0.6021 -1.3947 -0.6128
16192SOL     OW55436   8.638  11.428   4.226 -0.2449  0.4110 -0.5544
16192SOL    HW155437   8.657  11.385   4.143  1.1082 -0.8225  0.3452
16192SOL    HW255438   8.546  11.407   4.243  0.6422 -3.5603  0.5176
16193SOL     OW55439   7.327   9.442   6.725  0.3427 -0.3405  0.4087
16193SOL    HW155440   7.280   9.425   6.644 -0.3273  0.8182  0.5265
16193SOL    HW255441   7.325   9.359   6.773  1.0721 -1.1475 -0.9049
16194SOL     OW55442   1.524   5.191   8.102 -0.1492 -0.6102  0.0106
16194SOL    HW155443   1.430   5.208   8.090 -0.1078 -1.3608 -1.5795
16194SOL    HW255444   1.527   5.109   8.152 -0.3459 -0.7196 -0.1528
16195SOL     OW55445   1.482   9.744   4.769  0.2469 -0.3480 -0.3788
16195SOL    HW155446   1.412   9.690   4.807 -0.2452  0.5439  0.0253
16195SOL    HW255447   1.453   9.760   4.679  0.2034 -0.4406 -0.3816
16196SOL     OW55448   4.662   1.770   0.976  0.3215 -0.5795 -0.6147
16196SOL    HW155449   4.614   1.828   0.916  1.9834  0.6370 -0.8569
16196SOL    HW255450   4.621   1.785   1.061  1.2308  1.6812 -0.4949
16197SOL     OW55451  11.995  10.433   2.140  0.4364  0.0409  0.3821
16197SOL    HW155452  12.081  10.454   2.178  1.4428 -1.6684 -0.7996
16197SOL    HW255453  12.000  10.339   2.120 -0.3336  0.5866 -3.0093
16198SOL     OW55454   6.304   2.035   6.735 -0.5540  0.2258 -0.3321
16198SOL    HW155455   6.319   2.114   6.682 -1.3511  3.0725  3.2932
16198SOL    HW255456   6.209   2.028   6.741 -0.4777 -0.3612  0.2833
16199SOL     OW55457  12.012   1.036   3.497  0.3351 -0.0395  0.4241
16199SOL    HW155458  11.956   1.068   3.569 -1.0467 -0.8023 -0.2672
16199SOL    HW255459  11.975   1.077   3.419  0.2062 -1.2061 -0.1443
16200SOL     OW55460   3.710   6.884   4.898  0.1631  0.3890  0.1475
16200SOL    HW155461   3.727   6.942   4.973 -0.3313  0.7180  0.0082
16200SOL    HW255462   3.678   6.942   4.830 -0.5525 -0.0770  0.0771
16201SOL     OW55463   4.099   5.934   3.676 -0.0685  0.1271  0.2420
16201SOL    HW155464   4.171   5.982   3.634 -1.2132  0.7882 -1.0545
16201SOL    HW255465   4.022   5.956   3.623 -0.9094 -1.9740  0.5035
16202SOL     OW55466   2.662  12.054   1.456 -0.0094 -0.1396  0.1762
16202SOL    HW155467   2.694  11.984   1.512 -1.5790 -0.8566  0.2492
16202SOL    HW255468   2.672  12.020   1.367 -0.0674 -0.1471  0.1723
16203SOL     OW55469  12.343   9.454   5.446  0.3122  0.1377  0.0454
16203SOL    HW155470  12.251   9.478   5.433 -0.0275 -1.3630 -0.5423
16203SOL    HW255471  12.372   9.509   5.519 -0.9947  0.7698  0.1200
16204SOL     OW55472   2.664   2.092  12.232 -0.2835 -0.1276  1.1482
16204SOL    HW155473   2.612   2.152  12.177 -0.7624  0.0372  1.7640
16204SOL    HW255474   2.723   2.049  12.171 -1.9884 -1.2385  0.1975
16205SOL     OW55475  10.222   4.365  11.097 -0.1963 -0.1057  0.1828
16205SOL    HW155476  10.302   4.365  11.150 -1.0541 -0.7779  1.5182
16205SOL    HW255477  10.252   4.345  11.009  1.0632 -0.7474  0.7350
16206SOL     OW55478  11.538   0.799  10.838  0.2597 -0.1697 -0.4237
16206SOL    HW155479  11.530   0.707  10.811  1.8870 -0.0847 -1.2690
16206SOL    HW255480  11.497   0.848  10.767  2.0047 -0.1100 -1.4412
16207SOL     OW55481   3.680  11.689   2.740  0.2071  0.1312  0.1989
16207SOL    HW155482   3.774  11.669   2.740  0.6033  1.8381 -0.2231
16207SOL    HW255483   3.638  11.607   2.711  1.3276 -1.4474  2.7245
16208SOL     OW55484   1.504   6.313  12.199 -0.1420  0.1817 -0.5661
16208SOL    HW155485   1.428   6.317  12.142 -0.3357 -0.1529 -0.3365
16208SOL    HW255486   1.540   6.225  12.185 -0.5449 -0.1321  0.2649
16209SOL     OW55487   1.220  11.209  10.328 -0.2247  0.5433  0.1876
16209SOL    HW155488   1.231  11.286  10.383 -0.7144 -0.6295  1.9903
16209SOL    HW255489   1.141  11.166  10.361  0.4702 -1.1530 -0.2423
16210SOL     OW55490   6.528   1.952   9.012 -0.3138  0.2565 -0.1075
16210SOL    HW155491   6.433   1.944   9.003 -0.1122 -1.2677 -1.2611
16210SOL    HW255492   6.561   1.953   8.922  0.7123  1.9975  0.2416
16211SOL     OW55493   2.443  11.877   2.070  0.5634 -0.6089  0.1885
16211SOL    HW155494   2.375  11.817   2.098  0.0175 -0.7862 -1.4497
16211SOL    HW255495   2.515  11.821   2.042  0.6857 -0.4593  0.2008
16212SOL     OW55496   9.206   6.325   7.298  0.1334  0.1738  0.1275
16212SOL    HW155497   9.247   6.372   7.371 -0.7633  0.0371  0.7318
16212SOL    HW255498   9.146   6.264   7.340 -0.3026  0.0086 -0.7305
16213SOL     OW55499   6.477  12.071   4.063 -0.4260  0.5006 -0.4808
16213SOL    HW155500   6.460  12.127   3.987  0.2203  2.5318  0.8006
16213SOL    HW255501   6.572  12.057   4.062 -0.4289  0.4325 -0.1198
16214SOL     OW55502   5.916   5.528   7.005 -0.2020  0.3564  0.0757
16214SOL    HW155503   5.849   5.483   6.954 -0.4523  1.5238 -0.6510
16214SOL    HW255504   5.868   5.565   7.079 -0.3444  1.0850 -0.3774
16215SOL     OW55505   5.343   1.947   3.312 -0.5130  0.0559 -0.2702
16215SOL    HW155506   5.316   1.870   3.262 -0.2292 -1.2909  1.5461
16215SOL    HW255507   5.320   1.926   3.402 -1.0614  2.4245  0.2046
16216SOL     OW55508   5.253   4.580   7.283  0.3538  0.5348 -0.2758
16216SOL    HW155509   5.325   4.623   7.331  1.0674  0.6713 -1.4261
16216SOL    HW255510   5.265   4.609   7.193 -0.8371  0.1099 -0.5779
16217SOL     OW55511   9.295   8.853  10.862 -0.1372 -0.0811 -0.3129
16217SOL    HW155512   9.345   8.934  10.848  0.1340  0.4782  3.1001
16217SOL    HW255513   9.211   8.883  10.898  0.7432 -1.2547  3.0572
16218SOL     OW55514   4.752   2.294  10.480  0.0562  0.4584 -0.4588
16218SOL    HW155515   4.729   2.226  10.544 -0.6743  1.4688  0.3859
16218SOL    HW255516   4.794   2.246  10.409  1.2462 -0.6881  0.9327
16219SOL     OW55517   1.079  11.277  12.475  0.3056 -0.3126  0.2468
16219SOL    HW155518   1.104  11.300  12.386  0.6580 -0.1455  0.3887
16219SOL    HW255519   1.069  11.361  12.520 -1.3727 -0.3205 -0.0321
16220SOL     OW55520  11.846   1.374   4.319 -0.0332 -0.0180 -0.5760
16220SOL    HW155521  11.799   1.422   4.387 -0.8197  0.2911 -1.3158
16220SOL    HW255522  11.819   1.415   4.237  2.0142  0.5582 -1.0150
16221SOL     OW55523   8.268   8.466  10.668 -0.3511  0.6417  0.0600
16221SOL    HW155524   8.223   8.412  10.734  0.9076 -0.0802  0.3539
16221SOL    HW255525   8.325   8.405  10.621  1.7768  1.8096  0.9849
16222SOL     OW55526   8.997   2.614   1.607 -0.0603 -0.1082 -0.8421
16222SOL    HW155527   9.045   2.555   1.548  2.2869  0.5664  0.2682
16222SOL    HW255528   8.971   2.687   1.551 -2.2951 -1.7052 -2.0570
16223SOL     OW55529   3.257   4.611  11.550  0.3211 -0.0403 -0.1524
16223SOL    HW155530   3.167   4.578  11.547  0.1793  0.2168  0.8815
16223SOL    HW255531   3.287   4.608  11.459 -0.2704 -1.3922 -0.3334
16224SOL     OW55532  10.500   4.637   4.087  0.6766 -0.1949 -0.2354
16224SOL    HW155533  10.431   4.679   4.035  1.9715  1.0500 -1.0057
16224SOL    HW255534  10.566   4.611   4.023  2.6390  1.9845  0.7461
16225SOL     OW55535  10.935  10.664   9.961 -0.1480  0.0282 -0.2652
16225SOL    HW155536  10.974  10.740   9.918  0.8465 -0.0108  0.5301
16225SOL    HW255537  10.934  10.687  10.054 -2.4697  0.2056 -0.2720
16226SOL     OW55538   0.787   9.347   0.466 -0.0973 -0.7935 -0.3581
16226SOL    HW155539   0.822   9.436   0.455  0.1223 -0.6806  1.1207
16226SOL    HW255540   0.841   9.293   0.407  2.7526 -0.6389  1.8840
16227SOL     OW55541   5.083   5.841  11.298  0.0161  0.4697 -0.1322
16227SOL    HW155542   5.052   5.931  11.289 -0.7157  0.4511  1.8093
16227SOL    HW255543   5.178   5.849  11.305 -0.1659  1.3362  2.0638
16228SOL     OW55544   9.313   2.655   5.357 -0.5835 -0.1956  0.0856
16228SOL    HW155545   9.354   2.720   5.415  1.6750  1.9766 -3.5318
16228SOL    HW255546   9.234   2.698   5.324 -0.5135 -0.3581 -0.3024
16229SOL     OW55547   6.500  11.935   7.073  0.1125 -0.0814  0.1251
16229SOL    HW155548   6.554  11.949   6.995  1.4921 -4.0116  0.1603
16229SOL    HW255549   6.546  11.979   7.144  1.8617 -1.0864 -0.3472
16230SOL     OW55550   1.482   5.161   3.006 -0.1823 -0.1339 -0.0898
16230SOL    HW155551   1.399   5.194   3.041  0.2339  1.3489 -0.4077
16230SOL    HW255552   1.530   5.129   3.082  0.1066  1.6784  0.5410
16231SOL     OW55553  11.717   2.315  12.151 -0.2986 -0.0229  0.5095
16231SOL    HW155554  11.666   2.288  12.075 -0.2275  0.9631  0.0987
16231SOL    HW255555  11.808   2.293  12.129 -0.3769 -0.5474  0.6865
16232SOL     OW55556   3.105  10.515  10.296  0.7078 -0.5128 -0.1873
16232SOL    HW155557   3.166  10.450  10.260 -0.8719 -1.6698 -0.8918
16232SOL    HW255558   3.073  10.562  10.220  1.1017  0.4572  0.2331
16233SOL     OW55559  12.387   4.452   1.527  0.0677  0.8386  0.0074
16233SOL    HW155560  12.351   4.382   1.473 -2.0774  1.3268  0.6830
16233SOL    HW255561  12.473   4.471   1.489  0.2413 -1.3974 -0.8387
16234SOL     OW55562  10.414   0.269   0.594  0.5689 -0.0426  0.8716
16234SOL    HW155563  10.342   0.326   0.565  1.2755 -0.1779 -1.3392
16234SOL    HW255564  10.406   0.267   0.689 -3.9985 -2.1417  0.7079
16235SOL     OW55565   4.995   5.065   5.441  0.4877  0.2807  0.3175
16235SOL    HW155566   4.927   5.062   5.374  0.3838  2.5398  0.2404
16235SOL    HW255567   4.957   5.116   5.512  1.5198  0.1716  0.9736
16236SOL     OW55568   8.477   2.982   7.238  0.4761  0.0774 -0.2236
16236SOL    HW155569   8.515   2.896   7.216  1.5650 -0.0474  1.8339
16236SOL    HW255570   8.527   3.044   7.187  0.4208 -0.4276 -0.9085
16237SOL     OW55571   7.987   4.574   1.156  0.2326  0.3421 -0.2440
16237SOL    HW155572   7.968   4.667   1.152  0.7185  0.3787 -2.3342
16237SOL    HW255573   8.080   4.569   1.178  0.2265  0.3403 -0.2199
16238SOL     OW55574   2.515   7.905   1.121 -0.0490 -0.3735  0.1448
16238SOL    HW155575   2.483   7.985   1.079 -0.1573 -1.2896 -1.6475
16238SOL    HW255576   2.440   7.871   1.169 -0.2917  0.0982  0.0993
16239SOL     OW55577   1.008   9.171   4.183 -0.2828  0.2595  0.0377
16239SOL    HW155578   1.093   9.160   4.226 -0.5591 -1.9201  0.1185
16239SOL    HW255579   0.945   9.133   4.244 -1.2844  1.4560 -0.2213
16240SOL     OW55580  11.224   1.363  10.319  0.3725  0.7077 -0.8795
16240SOL    HW155581  11.215   1.286  10.262 -0.8167 -0.4826  0.8128
16240SOL    HW255582  11.295   1.339  10.379 -0.1384  0.8160 -0.2180
16241SOL     OW55583   9.348  10.527   3.486 -0.5768  0.0328 -0.0171
16241SOL    HW155584   9.407  10.478   3.544 -1.8054 -2.6018 -0.8163
16241SOL    HW255585   9.353  10.480   3.403 -3.6577 -0.2353 -0.1583
16242SOL     OW55586   2.648  12.381   2.515  0.2159 -0.3113  0.2924
16242SOL    HW155587   2.555  12.381   2.538  0.4081 -0.5344  1.1008
16242SOL    HW255588   2.651  12.343   2.427 -0.5960  1.1714 -0.4124
16243SOL     OW55589   2.841   9.286   2.778 -0.4826  0.4913  0.0385
16243SOL    HW155590   2.754   9.315   2.751 -0.3250  0.5978 -0.3628
16243SOL    HW255591   2.833   9.191   2.787 -0.0668  0.1642 -2.2850
16244SOL     OW55592  10.468   2.818  12.479  0.0561 -0.4338  0.3272
16244SOL    HW155593  10.477   2.749  12.544 -2.0613 -0.0124  1.1344
16244SOL    HW255594  10.550   2.816  12.430  0.2561 -3.1647  0.6592
16245SOL     OW55595   6.037   8.791   8.231  0.3407 -0.4758 -0.3428
16245SOL    HW155596   6.132   8.794   8.246 -0.0005  1.0799  2.0402
16245SOL    HW255597   6.028   8.804   8.137  2.5170 -2.5302 -0.9442
16246SOL     OW55598   1.636   5.698  11.971  0.1563  0.5708 -0.2708
16246SOL    HW155599   1.724   5.736  11.982  0.4748  0.2435 -1.5651
16246SOL    HW255600   1.647   5.606  11.995 -0.0333  0.7102  0.3719
16247SOL     OW55601   4.875   9.545   0.146  0.0578  0.3795 -0.0395
16247SOL    HW155602   4.781   9.549   0.130  0.0339 -0.4763 -0.1460
16247SOL    HW255603   4.883   9.547   0.242 -0.1862 -1.4179  0.0460
16248SOL     OW55604   4.260   7.501   6.441  0.1443 -0.0252 -0.3387
16248SOL    HW155605   4.169   7.482   6.417 -0.3421  1.2417  0.3692
16248SOL    HW255606   4.280   7.582   6.394 -0.0461  1.2177  1.6222
16249SOL     OW55607   7.625   8.661  12.161  0.7333 -0.3067 -0.5098
16249SOL    HW155608   7.667   8.584  12.123 -0.4065 -0.9932 -0.4326
16249SOL    HW255609   7.539   8.665  12.118  0.1766  0.0105  0.5953
16250SOL     OW55610   6.985   5.915   4.119 -0.3533 -0.1394 -0.1882
16250SOL    HW155611   6.965   5.976   4.190 -2.4800  0.1318 -0.9239
16250SOL    HW255612   7.079   5.924   4.103 -0.6416  3.3599 -0.6023
16251SOL     OW55613   5.319   1.547   3.569  0.4418 -0.4754  0.2295
16251SOL    HW155614   5.334   1.595   3.487 -2.8618  0.6357  0.1150
16251SOL    HW255615   5.341   1.456   3.547  1.0556  0.0172 -1.4119
16252SOL     OW55616   8.933   4.093   5.288 -0.2275 -0.4354 -0.0126
16252SOL    HW155617   8.852   4.099   5.339 -0.3958 -1.9431 -0.0553
16252SOL    HW255618   8.904   4.076   5.199  0.1158  0.5777 -0.3343
16253SOL     OW55619  11.257   7.638   3.898  0.0468  0.2219  0.2237
16253SOL    HW155620  11.215   7.641   3.812 -1.1726  2.6862  0.8162
16253SOL    HW255621  11.189   7.606   3.957  0.4090 -0.0279  0.5070
16254SOL     OW55622   8.530  12.119   0.089  0.0810  0.0796 -0.1489
16254SOL    HW155623   8.527  12.178   0.014 -2.6649  0.8457  0.4593
16254SOL    HW255624   8.583  12.166   0.154 -0.1144  0.8243 -0.5147
16255SOL     OW55625   6.340   1.603   5.194 -0.1123  0.2163 -0.3792
16255SOL    HW155626   6.400   1.657   5.142  0.4134 -1.3190 -1.4627
16255SOL    HW255627   6.389   1.523   5.210 -1.5848 -0.7632 -0.5922
16256SOL     OW55628   8.893   4.675   3.747 -0.0910  0.0517  0.0176
16256SOL    HW155629   8.893   4.722   3.663  1.5953 -0.3181 -0.2354
16256SOL    HW255630   8.807   4.633   3.751 -0.7732  1.3024 -0.8103
16257SOL     OW55631  11.274   3.106   6.388 -0.1965 -0.6153  0.6057
16257SOL    HW155632  11.309   3.194   6.375 -0.6749 -0.4276  0.5722
16257SOL    HW255633  11.342   3.047   6.354 -0.2701 -0.2319 -0.2255
16258SOL     OW55634   4.035   5.222  10.931  0.0681  0.3544  0.3221
16258SOL    HW155635   4.100   5.292  10.935  0.0950  0.3114  0.6369
16258SOL    HW255636   4.059   5.162  11.002 -0.2897  0.3173  0.4147
16259SOL     OW55637   2.141   5.463   1.131 -0.4040 -0.4778 -0.1355
16259SOL    HW155638   2.074   5.525   1.161 -0.3054  0.7413 -2.1870
16259SOL    HW255639   2.180   5.429   1.211 -2.7767 -0.4836  1.1262
16260SOL     OW55640   9.606  10.890   2.611 -0.0399  0.4324  0.4101
16260SOL    HW155641   9.640  10.948   2.679  0.1114 -0.4302  1.0800
16260SOL    HW255642   9.677  10.829   2.594 -0.0115  0.7421 -0.6641
16261SOL     OW55643   6.537   3.019   0.461  0.2774 -0.0709  0.1774
16261SOL    HW155644   6.626   2.986   0.450  0.2174  0.1235 -0.9721
16261SOL    HW255645   6.501   2.968   0.534  1.8068  0.8620  1.6387
16262SOL     OW55646   6.889   0.716   0.030 -0.1674  0.5336  0.2945
16262SOL    HW155647   6.827   0.714  -0.043 -0.8819 -0.6079  0.8950
16262SOL    HW255648   6.929   0.629   0.030  2.2206  1.5492 -0.6923
16263SOL     OW55649   2.443  11.595  12.111 -0.1838  0.2087  0.3163
16263SOL    HW155650   2.508  11.629  12.049  0.2469 -2.1031 -0.5943
16263SOL    HW255651   2.366  11.649  12.097 -0.6242 -1.1213 -3.4082
16264SOL     OW55652   2.777   5.519   7.462  0.2976 -0.4006  0.4313
16264SOL    HW155653   2.733   5.440   7.429 -2.3533  1.3881 -0.6261
16264SOL    HW255654   2.713   5.589   7.450  1.5480  1.5208  3.7108
16265SOL     OW55655   0.208   2.943   2.534  0.3450  0.3969  0.5251
16265SOL    HW155656   0.177   2.863   2.493  2.2399 -0.8069  1.3090
16265SOL    HW255657   0.275   2.977   2.475 -0.4153  1.3970  0.2186
16266SOL     OW55658   1.037   6.594   3.542 -0.3510 -0.5031  0.4461
16266SOL    HW155659   1.108   6.533   3.519  0.7566  1.0071 -0.3014
16266SOL    HW255660   1.079   6.660   3.597 -1.3236  0.0594  0.5305
16267SOL     OW55661   2.783   1.551   8.697 -0.6496 -0.0300  0.2337
16267SOL    HW155662   2.707   1.497   8.716  0.0496 -0.9280  0.5387
16267SOL    HW255663   2.795   1.544   8.602 -1.5523  0.9644  0.0226
16268SOL     OW55664   9.105   3.636   3.780 -0.7251 -0.4479  0.0916
16268SOL    HW155665   9.195   3.644   3.747 -0.0885  0.5870  1.9204
16268SOL    HW255666   9.056   3.600   3.706  0.9144  0.1944 -1.3965
16269SOL     OW55667  10.157   9.589   0.124  0.5730 -0.1839  0.4885
16269SOL    HW155668  10.115   9.673   0.143 -0.0713 -0.5222  0.5880
16269SOL    HW255669  10.235   9.612   0.074  0.3439  0.4710  0.4220
16270SOL     OW55670  12.229  11.775   6.418  0.1546  0.8703 -0.0289
16270SOL    HW155671  12.189  11.784   6.331 -0.0774  3.4077  0.2677
16270SOL    HW255672  12.282  11.696   6.411 -3.0867 -1.4393 -1.1391
16271SOL     OW55673   1.369   2.500   8.551 -0.0169 -0.2275  0.2315
16271SOL    HW155674   1.284   2.543   8.549 -0.2533 -0.6011  1.3696
16271SOL    HW255675   1.355   2.416   8.508 -0.4493 -0.6320  1.1248
16272SOL     OW55676   9.476   1.099   9.227  0.2384  0.0867  0.5048
16272SOL    HW155677   9.443   1.167   9.285  1.8679  1.2572  0.1363
16272SOL    HW255678   9.425   1.108   9.147  1.1519  1.6530  0.0504
16273SOL     OW55679  11.790   3.119  11.905  0.4783  0.6027 -0.2363
16273SOL    HW155680  11.880   3.143  11.881  0.2357  0.9101 -0.8881
16273SOL    HW255681  11.768   3.048  11.844 -0.3673  1.8094 -1.4116
16274SOL     OW55682  10.295   3.185   7.133 -0.2526 -0.1291 -0.0505
16274SOL    HW155683  10.214   3.236   7.140 -1.2706 -1.4631 -1.2217
16274SOL    HW255684  10.345   3.229   7.064 -0.0603  0.5828  0.5331
16275SOL     OW55685  12.411   3.350  10.067  0.4279 -0.8698 -0.2230
16275SOL    HW155686  12.492   3.398  10.050  0.0015 -0.5348 -1.4044
16275SOL    HW255687  12.425   3.265  10.025  0.8717 -1.5322  1.1862
16276SOL     OW55688   7.975   8.941   8.216 -0.8274 -0.5832  0.0292
16276SOL    HW155689   8.053   8.917   8.167  0.0164  0.5127  0.7806
16276SOL    HW255690   7.903   8.926   8.155  0.0768 -0.4253 -1.1176
16277SOL     OW55691   7.122   3.859   2.447 -0.1968 -0.7667 -0.1675
16277SOL    HW155692   7.170   3.933   2.483  0.6568  0.4678 -3.4833
16277SOL    HW255693   7.142   3.787   2.507  0.1316  1.2671  2.3633
16278SOL     OW55694  11.718   8.710   2.645  0.2384 -0.0746 -0.1147
16278SOL    HW155695  11.717   8.704   2.549  1.2545 -1.7977 -0.0516
16278SOL    HW255696  11.779   8.780   2.664 -1.4316  1.6421 -0.7185
16279SOL     OW55697   7.980   6.183  12.481  0.4051 -0.3994  0.1709
16279SOL    HW155698   7.994   6.161  12.389  0.3035  2.4469 -0.6180
16279SOL    HW255699   8.067   6.211  12.512  0.1115  0.1883  0.4686
16280SOL     OW55700   4.441   0.020  12.302  0.3294  0.6328  0.3141
16280SOL    HW155701   4.361  -0.025  12.276 -1.0346  1.5705  2.6511
16280SOL    HW255702   4.460   0.079  12.228 -0.9179  0.1518 -0.4152
16281SOL     OW55703   0.849   3.603   2.092 -0.1640 -0.6407 -0.0991
16281SOL    HW155704   0.929   3.588   2.142 -0.4448  1.1627  0.9694
16281SOL    HW255705   0.840   3.525   2.037  2.8318 -0.4876 -0.9786
16282SOL     OW55706   8.829   4.228  10.620 -0.5447  0.2802  0.3579
16282SOL    HW155707   8.746   4.273  10.603 -0.0756  1.5292  1.1888
16282SOL    HW255708   8.892   4.270  10.560 -0.0872  0.8352  1.1941
16283SOL     OW55709   6.925   8.291   1.553 -0.4000  0.1874 -0.0701
16283SOL    HW155710   6.962   8.206   1.530  1.9620  0.8163  1.0482
16283SOL    HW255711   6.885   8.277   1.639 -0.2756  0.1328 -0.0209
16284SOL     OW55712   5.080   9.671   3.996  0.0561  0.5167 -0.0359
16284SOL    HW155713   5.090   9.709   3.909 -0.4367  2.4945  0.7226
16284SOL    HW255714   5.145   9.716   4.050 -1.8610  1.8370  1.3286
16285SOL     OW55715  11.486   5.275   3.075  0.7219  0.0783  0.0978
16285SOL    HW155716  11.551   5.231   3.020  1.1519 -0.3099  0.9036
16285SOL    HW255717  11.449   5.343   3.019  1.0953 -0.3638 -0.6954
16286SOL     OW55718  10.009   8.459   9.918  0.4617  0.1070 -0.0679
16286SOL    HW155719   9.923   8.483   9.952  0.1378 -0.0211 -0.7842
16286SOL    HW255720  10.058   8.541   9.916  0.5521  0.0837  0.8827
16287SOL     OW55721   2.131   6.066   5.865  0.3639  0.0252 -0.7601
16287SOL    HW155722   2.080   6.139   5.828  1.3273  1.0240 -0.1907
16287SOL    HW255723   2.120   5.995   5.803 -1.1660  0.4298 -0.9884
16288SOL     OW55724  11.683   4.973  10.145  0.3026 -0.2058  0.0743
16288SOL    HW155725  11.759   4.914  10.139 -0.2392 -0.9559  0.3328
16288SOL    HW255726  11.685   5.023  10.063  0.6308 -0.7708 -0.2728
16289SOL     OW55727   8.586   4.630   2.922 -0.2401  0.0786  0.8524
16289SOL    HW155728   8.585   4.668   2.834 -1.6524  0.0822  0.8516
16289SOL    HW255729   8.608   4.538   2.908  2.0303  0.5820  0.7490
16290SOL     OW55730  11.725   1.992   5.877 -1.0570  0.1875 -0.5133
16290SOL    HW155731  11.788   2.023   5.942 -1.1513  2.3083 -1.3527
16290SOL    HW255732  11.731   2.055   5.806 -3.3971 -0.1200 -1.0741
16291SOL     OW55733   5.762  10.380  12.402 -0.5095 -0.5811  0.2242
16291SOL    HW155734   5.730  10.469  12.418 -0.4263 -0.5715  0.3366
16291SOL    HW255735   5.802  10.354  12.485  0.5724 -0.2619 -0.1906
16292SOL     OW55736   7.877   6.284   3.165 -0.1370 -0.8723 -0.3069
16292SOL    HW155737   7.880   6.212   3.102  0.3372 -0.2269 -1.0399
16292SOL    HW255738   7.815   6.346   3.128 -0.8743 -1.0792  0.5393
16293SOL     OW55739   7.163   6.765   3.534  0.2804  0.6642  0.6935
16293SOL    HW155740   7.212   6.703   3.480  1.1308  1.1097  0.9329
16293SOL    HW255741   7.177   6.736   3.624 -0.2218  0.5696  0.7442
16294SOL     OW55742   5.620   8.853   9.136  0.1054  0.3928  0.7586
16294SOL    HW155743   5.577   8.914   9.195 -1.2213 -0.2480  0.4826
16294SOL    HW255744   5.594   8.881   9.048  0.0535 -0.1369  0.6003
16295SOL     OW55745   1.817   4.260   4.972 -0.4979  0.3466  0.2798
16295SOL    HW155746   1.758   4.189   4.949 -2.0015  1.5731  0.2252
16295SOL    HW255747   1.841   4.243   5.063 -1.6042  0.2673  0.5693
16296SOL     OW55748   7.303   8.410   6.326 -0.0913 -0.2739 -0.2035
16296SOL    HW155749   7.322   8.463   6.250  0.1970  0.4551  0.3654
16296SOL    HW255750   7.349   8.327   6.310  0.3230  0.0327 -0.6214
16297SOL     OW55751  12.222   2.092   3.136 -0.4333  0.4543  0.1573
16297SOL    HW155752  12.305   2.070   3.094 -1.5131 -2.6092 -0.6874
16297SOL    HW255753  12.244   2.161   3.198  3.2224 -1.5617  1.4415
16298SOL     OW55754   4.890   0.319   5.525 -0.0406  0.5684  0.0634
16298SOL    HW155755   4.850   0.275   5.600 -2.5127 -1.5457 -2.3089
16298SOL    HW255756   4.876   0.412   5.542 -0.2471  0.1793  2.3362
16299SOL     OW55757  11.191   1.385   2.653 -0.2200 -0.8788 -0.2473
16299SOL    HW155758  11.192   1.420   2.743 -1.7954 -0.8806 -0.1971
16299SOL    HW255759  11.279   1.402   2.620 -0.1674  0.8549  0.6465
16300SOL     OW55760   8.286   1.585   8.341 -0.3209  0.1230  0.1045
16300SOL    HW155761   8.202   1.611   8.379 -0.0155 -0.8229  1.4934
16300SOL    HW255762   8.337   1.552   8.415  1.8435  1.9812 -0.4703
16301SOL     OW55763   1.457   9.922  11.652 -0.1945 -0.0823 -0.2554
16301SOL    HW155764   1.380   9.975  11.670 -0.1930 -0.2437  0.2253
16301SOL    HW255765   1.517   9.942  11.724  0.3281  0.2674 -0.7822
16302SOL     OW55766   3.251   1.911  12.302  0.4670 -0.0918 -0.4321
16302SOL    HW155767   3.298   1.835  12.266  1.0673  0.6890 -1.3655
16302SOL    HW255768   3.321   1.971  12.329 -0.0037  0.2478  0.0369
16303SOL     OW55769   0.756  11.649  11.373 -0.0655 -0.0371 -0.7157
16303SOL    HW155770   0.683  11.644  11.435 -0.9420  0.0743 -1.7086
16303SOL    HW255771   0.754  11.565  11.327 -0.3412  0.4319 -1.5817
16304SOL     OW55772   3.192   7.254  12.104 -0.3597  0.7420  0.1181
16304SOL    HW155773   3.144   7.182  12.063 -0.5006 -0.0348  1.5704
16304SOL    HW255774   3.135   7.282  12.176  0.7761  0.6750  1.0655
16305SOL     OW55775   9.606   7.347   0.773  0.4630  0.4727 -0.0311
16305SOL    HW155776   9.559   7.264   0.778 -0.0200  0.7952  1.2023
16305SOL    HW255777   9.659   7.350   0.853  0.8438  1.1419 -0.2934
16306SOL     OW55778   6.368   4.482  11.685 -0.4358 -0.1745  0.4367
16306SOL    HW155779   6.431   4.410  11.689 -1.2684 -0.9394  0.1700
16306SOL    HW255780   6.413   4.556  11.727  0.2172 -1.0134  1.2667
16307SOL     OW55781  11.272   4.543   7.410 -0.1870 -0.0962  0.2384
16307SOL    HW155782  11.295   4.629   7.443  0.7979 -0.1337 -0.3182
16307SOL    HW255783  11.187   4.556   7.368 -1.2192  0.0629  2.2440
16308SOL     OW55784   6.581  11.199   6.982 -0.7534 -0.3456 -0.3736
16308SOL    HW155785   6.596  11.130   7.046  0.3582 -0.0215 -0.2648
16308SOL    HW255786   6.595  11.157   6.897  2.4403  0.2160 -0.2771
16309SOL     OW55787   6.904   0.846   0.867 -0.3214  0.1950 -1.0195
16309SOL    HW155788   6.867   0.805   0.946 -2.8985 -0.4695 -2.4795
16309SOL    HW255789   6.994   0.814   0.865  0.0681  0.7421  1.9590
16310SOL     OW55790   8.289   7.764   4.799 -0.4506 -0.6201  0.8848
16310SOL    HW155791   8.342   7.833   4.839 -1.5015  1.6861 -1.4423
16310SOL    HW255792   8.332   7.746   4.716 -0.9305 -1.8613  0.8850
16311SOL     OW55793   3.318   7.716   9.988 -0.2802 -0.0554  0.1256
16311SOL    HW155794   3.307   7.691  10.079  0.5887  2.1477  0.9132
16311SOL    HW255795   3.324   7.812   9.990 -0.5301  0.0808 -2.2767
16312SOL     OW55796   4.749   7.764   3.261 -0.4836  0.3400 -0.1530
16312SOL    HW155797   4.685   7.745   3.193 -0.0999  0.2144 -0.4885
16312SOL    HW255798   4.704   7.823   3.322 -1.9845 -2.1462  1.3128
16313SOL     OW55799   2.825   4.729  12.345  0.6065 -0.0665 -0.1853
16313SOL    HW155800   2.827   4.715  12.440  2.1295  0.8447 -0.0465
16313SOL    HW255801   2.875   4.809  12.332 -0.9559  0.7100 -1.6501
16314SOL     OW55802   6.757  12.109  12.276  0.2963 -0.3956  0.7152
16314SOL    HW155803   6.847  12.140  12.274 -0.3210  1.4699 -1.0290
16314SOL    HW255804   6.708  12.179  12.319 -0.7449 -0.0347 -0.9783
16315SOL     OW55805   4.667   1.890   9.530 -0.5212  0.0263 -0.0671
16315SOL    HW155806   4.673   1.873   9.624 -0.9281  0.2723  0.0059
16315SOL    HW255807   4.755   1.917   9.505  0.2150 -2.3062 -0.2216
16316SOL     OW55808   7.194   0.186   3.102 -0.1848  0.3458 -0.4929
16316SOL    HW155809   7.103   0.203   3.126 -0.6844 -2.2676 -0.3171
16316SOL    HW255810   7.244   0.245   3.159 -1.7324  1.7079 -0.4699
16317SOL     OW55811   0.836   9.508   9.879 -0.6826 -0.2400 -0.4152
16317SOL    HW155812   0.866   9.546   9.961 -0.1688 -1.9960  0.2582
16317SOL    HW255813   0.915   9.468   9.841 -0.8572  0.7650 -1.9015
16318SOL     OW55814   9.220  10.128  11.323  0.2547  0.1185 -0.3408
16318SOL    HW155815   9.211  10.155  11.232  0.5426 -2.9338 -1.3907
16318SOL    HW255816   9.295  10.068  11.323  0.7056  0.5782  2.0626
16319SOL     OW55817   5.405   3.462  11.615  0.0672  0.2402  0.0810
16319SOL    HW155818   5.456   3.382  11.631 -1.1194 -0.2122  1.9800
16319SOL    HW255819   5.471   3.530  11.604  1.1017 -0.8551 -0.8012
16320SOL     OW55820   3.133   6.095   1.376  0.0498 -0.3713  0.2927
16320SOL    HW155821   3.059   6.080   1.435  0.1432  0.0585  0.5194
16320SOL    HW255822   3.207   6.051   1.419  0.0584 -0.2922  0.3577
16321SOL     OW55823   1.925   2.174  11.738 -0.5346  0.0645 -0.3509
16321SOL    HW155824   1.871   2.236  11.786  0.3488 -1.3007  2.6074
16321SOL    HW255825   1.865   2.132  11.677 -1.7190  1.8331 -0.4774
16322SOL     OW55826   7.914   8.473   3.714 -0.4470 -0.1060  0.3245
16322SOL    HW155827   7.964   8.442   3.639  0.4069 -0.5628  1.0729
16322SOL    HW255828   7.898   8.395   3.767 -2.2482 -0.0327 -0.0466
16323SOL     OW55829   2.903   2.441   1.709 -0.0084  0.3850 -0.1513
16323SOL    HW155830   2.827   2.383   1.711  0.0176  0.3711  0.5640
16323SOL    HW255831   2.968   2.398   1.764  2.3516 -2.0592 -4.3826
16324SOL     OW55832   1.968   1.609  11.128  0.1495  0.2886 -0.4663
16324SOL    HW155833   1.896   1.546  11.123  0.0088  0.2905  1.1220
16324SOL    HW255834   2.045   1.559  11.099 -0.0645 -0.4602  0.2102
16325SOL     OW55835   8.517  10.913   1.668 -0.3234 -0.3330  0.3868
16325SOL    HW155836   8.533  11.008   1.668 -1.8126 -0.0415 -0.5975
16325SOL    HW255837   8.604  10.874   1.665  0.2918  1.0377 -0.9520
16326SOL     OW55838   7.944   2.177   9.371  0.4832  0.5247 -0.5270
16326SOL    HW155839   7.853   2.146   9.377  0.3029  0.8232 -1.5242
16326SOL    HW255840   7.945   2.256   9.426  0.0721  0.6452 -0.6840
16327SOL     OW55841   3.803   3.101   6.453 -0.5471  0.6209 -0.4743
16327SOL    HW155842   3.879   3.067   6.501 -0.5812 -0.0219 -0.8609
16327SOL    HW255843   3.727   3.067   6.502 -0.5842 -0.2926 -1.1315
16328SOL     OW55844  11.858   7.775   5.889 -0.4263  0.3550 -0.1738
16328SOL    HW155845  11.906   7.856   5.873  1.4881 -0.6800 -0.0818
16328SOL    HW255846  11.926   7.707   5.885 -1.8008 -1.1272  0.7254
16329SOL     OW55847   7.711  11.599   1.300 -0.2721  0.1378  0.0808
16329SOL    HW155848   7.729  11.547   1.378  2.8496  1.7020  0.5480
16329SOL    HW255849   7.673  11.680   1.334 -1.1579 -0.1208 -0.2698
16330SOL     OW55850   5.071   0.812  10.186  0.3782  0.2360 -0.1192
16330SOL    HW155851   5.082   0.847  10.275 -0.3075  0.7287 -0.2242
16330SOL    HW255852   4.977   0.794  10.179  0.6605 -1.3285 -0.1871
16331SOL     OW55853   4.468   8.016   6.066 -0.1593 -0.4040  0.0966
16331SOL    HW155854   4.523   7.959   6.120 -0.4161 -1.2329 -0.4877
16331SOL    HW255855   4.529   8.065   6.011  0.0978  0.3819  1.0687
16332SOL     OW55856   8.356   3.913   6.704 -0.0328  0.1137 -0.2424
16332SOL    HW155857   8.305   3.979   6.751 -0.8577 -0.0795 -0.8359
16332SOL    HW255858   8.363   3.945   6.615  0.5602 -0.0558 -0.2641
16333SOL     OW55859   4.803   1.430   3.524  0.0807 -0.0156 -0.2479
16333SOL    HW155860   4.897   1.438   3.540 -0.1846  1.8447  0.6591
16333SOL    HW255861   4.783   1.502   3.464 -0.3330 -2.0938 -2.7430
16334SOL     OW55862   7.213   2.549  11.940  0.7521 -0.0058 -0.3882
16334SOL    HW155863   7.134   2.510  11.979  0.3062 -0.1656 -1.4321
16334SOL    HW255864   7.186   2.639  11.917  1.2691  0.3724  0.4416
16335SOL     OW55865   6.618  12.422   7.211  0.3961 -0.3254  0.2774
16335SOL    HW155866   6.664  12.413   7.294 -0.4957  2.1175  1.1310
16335SOL    HW255867   6.674  12.481   7.159 -1.3783  2.3438  1.1765
16336SOL     OW55868   4.117  12.061  12.161 -0.6109 -0.6964  0.4194
16336SOL    HW155869   4.047  12.004  12.129 -1.5938  0.2357  0.8534
16336SOL    HW255870   4.133  12.033  12.251 -0.6766 -0.6626  0.4411
16337SOL     OW55871   2.883   4.487   0.533  1.1115  0.2630 -0.1333
16337SOL    HW155872   2.962   4.443   0.501  0.9053  0.8886 -1.5613
16337SOL    HW255873   2.811   4.445   0.487  0.8725  1.7584 -1.1938
16338SOL     OW55874   6.866   8.296  10.221  0.1660 -0.2814 -0.1720
16338SOL    HW155875   6.930   8.225  10.221  0.2357 -0.2644  1.3867
16338SOL    HW255876   6.783   8.254  10.199  0.5369 -0.4872 -1.1995
16339SOL     OW55877   8.516   4.906  12.361  0.5501 -0.2292 -0.0765
16339SOL    HW155878   8.453   4.881  12.294  0.1768 -0.4457  0.3486
16339SOL    HW255879   8.467   4.901  12.443  1.1836 -0.6323  0.2884
16340SOL     OW55880   7.990  11.997  11.048 -0.5538 -0.0448 -0.5053
16340SOL    HW155881   7.991  11.924  10.987 -0.0464  1.3866 -2.3205
16340SOL    HW255882   8.010  12.074  10.994 -0.6582  1.3928  1.3726
16341SOL     OW55883  11.352   6.683   0.014 -0.5369 -0.7936 -0.0176
16341SOL    HW155884  11.314   6.624  -0.051 -0.6698 -0.3053 -0.3856
16341SOL    HW255885  11.437   6.707  -0.022  0.1247 -1.8381  0.7794
16342SOL     OW55886  11.070   4.037   6.586 -0.1143 -0.2252  0.1681
16342SOL    HW155887  11.042   4.124   6.559  0.3240 -0.5315 -1.3432
16342SOL    HW255888  10.991   3.983   6.578 -0.4654  0.0648  1.4017
16343SOL     OW55889   7.947   7.231   6.780  0.6416  0.1527  0.3688
16343SOL    HW155890   8.025   7.209   6.831  0.2200  0.0549  0.9877
16343SOL    HW255891   7.951   7.326   6.769  1.4677  0.0166 -0.6461
16344SOL     OW55892  10.022  10.611  11.148  0.2321  0.0983 -0.0049
16344SOL    HW155893  10.007  10.596  11.241  0.4118  1.5225  0.2750
16344SOL    HW255894  10.065  10.696  11.144  0.0358  0.1571 -1.4097
16345SOL     OW55895   8.412   6.759   0.315  0.1156  0.2674  0.1483
16345SOL    HW155896   8.418   6.852   0.335 -1.1970  0.0070  2.0187
16345SOL    HW255897   8.328   6.749   0.269  0.0934 -0.0518  0.2547
16346SOL     OW55898  11.198   6.961   1.919 -0.3639 -0.3218 -0.1914
16346SOL    HW155899  11.133   6.953   1.849 -0.8937  0.6137  0.1720
16346SOL    HW255900  11.147   6.950   2.000 -0.2083  1.0010  0.1203
16347SOL     OW55901  11.363   1.612   6.923  0.1132  0.7798  0.6637
16347SOL    HW155902  11.390   1.695   6.883 -1.9315  2.3390  2.2816
16347SOL    HW255903  11.403   1.614   7.010  1.5120 -0.8362  0.1035
16348SOL     OW55904   6.582   8.173   1.722 -0.0963 -0.1712 -0.2631
16348SOL    HW155905   6.670   8.162   1.759 -0.1633 -2.3849 -0.6818
16348SOL    HW255906   6.524   8.127   1.782 -0.8030  0.0385 -0.7664
16349SOL     OW55907  10.077   7.933   6.470  0.1649 -0.3053 -0.6783
16349SOL    HW155908  10.036   8.007   6.424  0.9465 -1.0167 -2.6362
16349SOL    HW255909  10.098   7.968   6.556 -1.1267  1.2014 -0.9237
16350SOL     OW55910   7.609   4.410   0.771  0.3348 -0.9579  0.4231
16350SOL    HW155911   7.677   4.348   0.743 -0.6513 -1.8158 -0.1461
16350SOL    HW255912   7.606   4.475   0.702  0.3411 -1.1044  0.2844
16351SOL     OW55913   6.635   3.777   6.977 -0.5706 -0.5239  0.0371
16351SOL    HW155914   6.685   3.798   7.056 -1.7777 -3.4000  1.7096
16351SOL    HW255915   6.694   3.800   6.905  2.2976 -1.6147  1.8690
16352SOL     OW55916   5.472   1.802  12.408 -0.4601  0.5902 -0.0242
16352SOL    HW155917   5.482   1.707  12.402 -1.4106  0.4976 -0.3102
16352SOL    HW255918   5.443   1.817  12.498  0.0396  0.6392  0.1262
16353SOL     OW55919   9.690  12.009   5.227 -0.2379  0.2522 -0.0288
16353SOL    HW155920   9.719  12.099   5.246  1.1855 -0.3868  1.0178
16353SOL    HW255921   9.629  11.989   5.298 -0.2723  0.2774 -0.0518
16354SOL     OW55922   2.002   9.210   6.285  0.1164  0.1113  0.4092
16354SOL    HW155923   1.980   9.297   6.318 -2.3460 -0.7822  1.3419
16354SOL    HW255924   2.077   9.183   6.338  2.7724  2.6135 -1.7135
16355SOL     OW55925   6.264   6.356   3.672  0.2498 -0.0423 -0.0168
16355SOL    HW155926   6.224   6.304   3.741  0.4825 -1.8355 -1.1513
16355SOL    HW255927   6.354   6.372   3.702  0.6168 -1.5332 -0.2182
16356SOL     OW55928   1.477   8.918   7.251 -0.3722 -0.0165 -0.2185
16356SOL    HW155929   1.392   8.918   7.207 -0.9265 -1.1722  0.7723
16356SOL    HW255930   1.457   8.942   7.341  0.6830  1.9086 -0.4494
16357SOL     OW55931   2.127  11.866   2.583 -0.6434 -0.3628 -0.2432
16357SOL    HW155932   2.144  11.834   2.495  0.0400 -0.7572  0.0216
16357SOL    HW255933   2.104  11.787   2.633 -0.2667 -0.2570  0.1037
16358SOL     OW55934   2.200   5.165   2.253  0.1179 -0.2927  0.3763
16358SOL    HW155935   2.168   5.242   2.206 -0.1990 -0.8918 -0.4118
16358SOL    HW255936   2.146   5.161   2.332 -0.5325 -0.2694 -0.0631
16359SOL     OW55937   5.373   7.315   7.557 -0.1026  0.0881 -0.2134
16359SOL    HW155938   5.462   7.279   7.558 -0.3270 -0.4727 -0.1296
16359SOL    HW255939   5.368   7.367   7.637 -0.4662 -1.4442  0.8152
16360SOL     OW55940  11.537  12.310   1.415 -0.1831  0.4922  0.4271
16360SOL    HW155941  11.507  12.291   1.504 -0.0002 -0.4898  0.2861
16360SOL    HW255942  11.576  12.397   1.421 -0.1735  0.4311  1.3155
16361SOL     OW55943   1.056   8.301   9.356  0.1604  0.6475  0.2576
16361SOL    HW155944   1.109   8.233   9.398 -1.4902  0.0098  1.3727
16361SOL    HW255945   1.121   8.360   9.316  1.6992 -0.2441  1.3204
16362SOL     OW55946   1.413  10.883   7.588 -0.2796 -0.2858 -0.1015
16362SOL    HW155947   1.492  10.837   7.616 -1.4454 -2.1951  0.2226
16362SOL    HW255948   1.365  10.819   7.535 -1.8254  0.6589  0.0931
16363SOL     OW55949   1.838   2.282   9.089 -0.1427 -0.3620 -0.2417
16363SOL    HW155950   1.831   2.189   9.110 -0.9798  0.0268  1.4010
16363SOL    HW255951   1.863   2.285   8.997  1.6295 -2.2284  0.1109
16364SOL     OW55952   6.467   8.523   3.941  0.1584 -0.3037  0.0641
16364SOL    HW155953   6.498   8.459   3.877 -1.2052 -1.4062  0.4362
16364SOL    HW255954   6.546   8.567   3.972  1.0953 -1.5170 -0.5198
16365SOL     OW55955   4.494   4.630   2.265 -0.0005  0.3520  0.4611
16365SOL    HW155956   4.566   4.615   2.326 -0.4371  1.1374  1.1765
16365SOL    HW255957   4.419   4.588   2.305 -0.3169  0.9741  0.5360
16366SOL     OW55958   3.383   6.690   4.538 -0.1452 -0.0708  0.1772
16366SOL    HW155959   3.295   6.657   4.553  0.3535 -0.8626  1.5235
16366SOL    HW255960   3.441   6.619   4.567  0.9617  1.5226  2.1026
16367SOL     OW55961   5.390   5.936   3.770 -0.1463 -0.3641  0.0694
16367SOL    HW155962   5.373   5.921   3.863 -2.2373  0.7351 -0.0748
16367SOL    HW255963   5.341   5.868   3.725 -0.0241 -0.2372 -0.2629
16368SOL     OW55964   6.770   8.273   2.124  0.3958  0.6980 -0.2737
16368SOL    HW155965   6.833   8.283   2.053  0.6800  1.9259  0.1320
16368SOL    HW255966   6.718   8.354   2.122 -0.2457  0.3109  0.2812
16369SOL     OW55967   4.871  11.035   1.246  0.1341  0.7203 -0.1580
16369SOL    HW155968   4.810  11.090   1.195  2.0302  0.4298 -2.9657
16369SOL    HW255969   4.815  10.968   1.285 -1.6192  1.6764 -0.8783
16370SOL     OW55970   7.604   7.755   5.631 -1.0957  0.3729  0.0018
16370SOL    HW155971   7.552   7.767   5.711  0.3419  2.0238  0.7594
16370SOL    HW255972   7.667   7.827   5.633 -0.1516 -0.3382 -1.9563
16371SOL     OW55973   0.720   7.445   4.407 -0.3512  0.0734 -0.8894
16371SOL    HW155974   0.681   7.376   4.460  0.6852 -0.6114 -0.9941
16371SOL    HW255975   0.785   7.401   4.352  0.2082  1.0929 -1.0869
16372SOL     OW55976   5.142   5.952   9.818 -0.0351  0.0674  0.0445
16372SOL    HW155977   5.185   5.917   9.740  2.2674 -0.8893  1.6388
16372SOL    HW255978   5.055   5.911   9.819 -0.0987  0.0886 -1.9595
16373SOL     OW55979   0.127  12.333   2.991 -0.1206  0.4918 -0.0031
16373SOL    HW155980   0.081  12.269   2.937 -0.3936  1.8734 -1.5006
16373SOL    HW255981   0.137  12.409   2.933  1.8250  1.1351  1.0986
16374SOL     OW55982   6.645   0.121   6.777  0.1703 -0.0624  0.0926
16374SOL    HW155983   6.612   0.175   6.848  1.4861  0.2180  0.5041
16374SOL    HW255984   6.584   0.137   6.705 -0.7890  0.1592  0.9235
16375SOL     OW55985   7.169  10.398   0.982 -0.3287 -1.1319 -0.3379
16375SOL    HW155986   7.105  10.466   1.006 -2.4058 -3.0093 -0.2554
16375SOL    HW255987   7.212  10.376   1.064 -0.8545 -1.1089 -0.0540
16376SOL     OW55988   0.955   8.190   8.095 -0.2405  0.1774  0.5733
16376SOL    HW155989   0.924   8.256   8.032  1.4650  0.3754 -0.1072
16376SOL    HW255990   0.889   8.121   8.091 -2.1490  1.8470  1.3936
16377SOL     OW55991   3.814   0.634   3.091  0.1619  0.8200  0.1977
16377SOL    HW155992   3.845   0.553   3.132  2.6618  0.5032 -1.9881
16377SOL    HW255993   3.894   0.677   3.061 -1.2118  3.3502 -0.1404
16378SOL     OW55994   4.529   8.927   8.535 -0.1027 -0.5277  0.1819
16378SOL    HW155995   4.570   8.954   8.617  1.6571 -0.3407 -0.6958
16378SOL    HW255996   4.476   8.851   8.558 -0.6393  0.2564  1.6852
16379SOL     OW55997   2.641   1.156   0.032 -0.1865 -0.6858  0.1056
16379SOL    HW155998   2.640   1.226  -0.033  0.8295 -0.6553  0.1153
16379SOL    HW255999   2.556   1.112   0.021 -1.4623  1.4031  1.0673
16380SOL     OW56000  10.199   4.192   6.484 -0.2331  0.1490 -0.4939
16380SOL    HW156001  10.263   4.124   6.462 -1.7899 -1.3567 -0.6287
16380SOL    HW256002  10.242   4.244   6.552  0.5600 -1.8122  0.6169
16381SOL     OW56003   2.114   9.807   2.015 -0.0114  0.3959 -0.1674
16381SOL    HW156004   2.144   9.726   2.057 -1.8685 -0.3382 -0.1887
16381SOL    HW256005   2.157   9.806   1.929  1.0166  0.1205  0.3268
16382SOL     OW56006   9.932   2.214   8.049 -0.1589 -0.1252  0.1420
16382SOL    HW156007   9.920   2.303   8.081  0.8588  0.7530 -1.7631
16382SOL    HW256008  10.006   2.180   8.099 -0.3424  0.2131  0.6497
16383SOL     OW56009   3.298  11.478   1.493 -0.1447  0.0846  0.4082
16383SOL    HW156010   3.367  11.476   1.559  0.8329 -1.2486 -0.6072
16383SOL    HW256011   3.255  11.563   1.507  1.0429  0.5255  1.7003
16384SOL     OW56012   5.291   1.518  11.664 -0.1118  0.1006 -0.3235
16384SOL    HW156013   5.215   1.573  11.680 -1.6120 -1.4061 -1.8749
16384SOL    HW256014   5.329   1.503  11.751  0.0856  3.0792  0.2035
16385SOL     OW56015   1.217   1.809   9.390  0.3527  0.1451  0.0629
16385SOL    HW156016   1.233   1.890   9.439 -0.4269  0.2560  0.1471
16385SOL    HW256017   1.225   1.835   9.298  0.4118  0.2501  0.0970
16386SOL     OW56018   5.987   4.305   7.734  0.1030  0.0924  0.3725
16386SOL    HW156019   5.965   4.379   7.791 -1.5920 -0.4637  0.5067
16386SOL    HW256020   5.913   4.299   7.673  0.6945 -0.8729 -0.2832
16387SOL     OW56021   9.646   3.106  10.306 -0.4955 -0.0630 -0.0212
16387SOL    HW156022   9.654   3.196  10.275 -2.4078 -0.3716 -1.6392
16387SOL    HW256023   9.697   3.054  10.243 -1.1971 -0.3124 -0.3940
16388SOL     OW56024   9.497   0.526   5.110  0.7197 -0.2311 -0.7918
16388SOL    HW156025   9.421   0.487   5.154  0.2914  0.9106 -0.4935
16388SOL    HW256026   9.491   0.494   5.020  0.4019 -0.8734 -0.5524
16389SOL     OW56027   0.525   9.611   3.576  0.2390  0.0102  0.5378
16389SOL    HW156028   0.471   9.535   3.554  0.7821 -0.8050  1.8552
16389SOL    HW256029   0.577   9.628   3.498 -1.6528  0.6075 -0.6446
16390SOL     OW56030  11.180   7.467  11.342  0.0488  0.6013 -1.2259
16390SOL    HW156031  11.234   7.540  11.311  0.0213  0.8282 -0.7501
16390SOL    HW256032  11.236   7.421  11.405 -0.5658  1.2897 -0.1453
16391SOL     OW56033   7.542   5.472   4.217 -0.3027 -0.3836 -0.2674
16391SOL    HW156034   7.575   5.422   4.142 -0.2926 -0.6604 -0.0832
16391SOL    HW256035   7.446   5.467   4.209 -0.3097 -0.9939  0.1073
16392SOL     OW56036   8.148   5.149   0.125 -0.5719  0.7935 -0.0916
16392SOL    HW156037   8.181   5.219   0.068  0.7560  0.6469  0.4749
16392SOL    HW256038   8.189   5.069   0.093 -0.4494  0.5876  0.5620
16393SOL     OW56039   2.356   0.138   0.803  0.8856  0.4494 -0.0725
16393SOL    HW156040   2.284   0.136   0.866  0.4519  0.6947 -0.5540
16393SOL    HW256041   2.373   0.046   0.783 -0.3292  0.4287 -1.1127
16394SOL     OW56042   6.502   7.824   3.913 -0.1859 -0.1544  0.1700
16394SOL    HW156043   6.465   7.875   3.985 -0.0921 -0.3384  0.3501
16394SOL    HW256044   6.505   7.734   3.946  0.0016 -0.2143 -0.0056
16395SOL     OW56045   2.429   4.182   1.040  0.1424 -0.0346 -0.4724
16395SOL    HW156046   2.456   4.126   0.967 -0.5190  1.7502 -2.1856
16395SOL    HW256047   2.338   4.158   1.056  0.7577 -1.5907  0.9643
16396SOL     OW56048   1.807  11.731   0.328 -0.1353  0.2588  0.1493
16396SOL    HW156049   1.869  11.667   0.363  0.5820  0.3387 -0.9447
16396SOL    HW256050   1.770  11.688   0.251 -1.8354  0.0103  1.0530
16397SOL     OW56051  10.538   7.282   7.970  0.3890  0.1317  0.0686
16397SOL    HW156052  10.616   7.332   7.950  0.5291 -0.6025 -1.2846
16397SOL    HW256053  10.569   7.211   8.027  0.0855  1.8571  2.5500
16398SOL     OW56054   0.249   9.297   8.957  0.2886 -0.5432 -0.2195
16398SOL    HW156055   0.214   9.313   8.869 -0.7256 -2.3531 -0.2037
16398SOL    HW256056   0.194   9.350   9.015 -0.7963 -1.3536 -0.4612
16399SOL     OW56057   8.099   6.401   3.711 -0.0474 -0.1266 -0.2375
16399SOL    HW156058   8.146   6.327   3.671 -2.6405 -1.7219 -0.5499
16399SOL    HW256059   8.118   6.392   3.805 -0.1846 -1.0977 -0.2896
16400SOL     OW56060  10.292   1.370   5.405 -0.3799  0.0559 -0.1506
16400SOL    HW156061  10.237   1.306   5.450 -1.5735  0.1199 -1.4638
16400SOL    HW256062  10.298   1.444   5.466 -0.3215 -0.6356  0.7040
16401SOL     OW56063  10.517   9.192   2.350  0.4083 -0.3717  0.1455
16401SOL    HW156064  10.585   9.182   2.418  0.1965  0.3857  0.4791
16401SOL    HW256065  10.455   9.255   2.387  0.3118  0.0876 -0.7742
16402SOL     OW56066   3.957   1.423   4.629  0.1843 -0.3766  0.1713
16402SOL    HW156067   3.865   1.419   4.603  0.7901 -0.6741 -2.1704
16402SOL    HW256068   4.000   1.356   4.576  1.9580  0.5867  0.3137
16403SOL     OW56069   7.100   8.024   4.177  0.3168  0.1494 -0.3549
16403SOL    HW156070   7.059   8.072   4.249  2.1125  0.9226  0.1884
16403SOL    HW256071   7.084   7.932   4.199  0.4795  0.3865  0.8175
16404SOL     OW56072  12.056   3.825   0.818  0.6479 -0.6937 -0.2636
16404SOL    HW156073  12.027   3.916   0.833 -1.1141 -0.9303 -1.8682
16404SOL    HW256074  12.014   3.800   0.736 -0.7234 -3.6980  1.2207
16405SOL     OW56075   0.350  11.946   8.717  0.0466  0.5395 -0.1310
16405SOL    HW156076   0.280  11.958   8.652 -0.7803 -0.6958  0.4850
16405SOL    HW256077   0.376  12.034   8.741 -1.1107  1.0279 -0.5950
16406SOL     OW56078   9.372   8.263   2.925 -0.3073  0.2187 -0.5239
16406SOL    HW156079   9.289   8.292   2.962 -0.2897  0.6701 -0.8311
16406SOL    HW256080   9.348   8.204   2.854 -0.3435 -0.6250  0.1689
16407SOL     OW56081   2.542  12.434   2.869  0.3907  0.0277  0.3010
16407SOL    HW156082   2.498  12.399   2.792  1.5756  1.3736 -1.0759
16407SOL    HW256083   2.611  12.371   2.889 -0.1417 -0.4989  0.4741
16408SOL     OW56084   2.212   0.288  12.101  0.3542 -0.2636 -0.2574
16408SOL    HW156085   2.293   0.324  12.135  1.9267 -1.6564 -2.3100
16408SOL    HW256086   2.163   0.260  12.179  1.7018  0.7719  1.0201
16409SOL     OW56087   5.551  10.115  11.388  0.2283 -0.0076  0.4550
16409SOL    HW156088   5.538  10.122  11.483 -2.5577 -0.6435  0.1905
16409SOL    HW256089   5.532  10.023  11.368 -0.4386  0.4005 -0.8723
16410SOL     OW56090   9.523   0.468   6.488  0.4556 -0.2319 -0.0109
16410SOL    HW156091   9.527   0.459   6.393 -1.3837 -0.0394 -0.1307
16410SOL    HW256092   9.585   0.538   6.508 -3.1637  3.9413 -1.7638
16411SOL     OW56093   8.928   3.092   6.475 -0.0718 -0.3072 -0.3829
16411SOL    HW156094   8.977   3.129   6.402  0.7631 -0.7821 -0.0794
16411SOL    HW256095   8.908   3.166   6.532  0.2688 -0.1051 -0.5258
16412SOL     OW56096   8.336  10.131  11.455  0.3772  0.2550 -0.5399
16412SOL    HW156097   8.299  10.098  11.373 -0.3780 -1.0367  0.2864
16412SOL    HW256098   8.380  10.056  11.494 -1.1067  0.2263  1.2343
16413SOL     OW56099   6.617   5.168   1.118 -0.5375  0.2587  0.0936
16413SOL    HW156100   6.637   5.110   1.192 -0.5703 -0.3469 -0.3612
16413SOL    HW256101   6.671   5.135   1.046  1.3948  2.3535  0.4635
16414SOL     OW56102   0.588   7.028   2.595  0.7309 -0.4939  0.2916
16414SOL    HW156103   0.529   7.054   2.524  1.2529  3.1566  1.0136
16414SOL    HW256104   0.534   6.974   2.652 -1.5586  1.4420  0.1338
16415SOL     OW56105   6.453   4.068  11.894 -0.3303 -0.3943  0.2386
16415SOL    HW156106   6.399   4.068  11.974  2.8111 -0.0164  2.5624
16415SOL    HW256107   6.482   3.977  11.885 -0.4013 -0.3670 -0.2779
16416SOL     OW56108   4.922   4.067  11.420  0.0429 -0.1670 -0.1974
16416SOL    HW156109   4.865   4.117  11.479 -1.0125  0.1511 -1.4336
16416SOL    HW256110   4.926   3.980  11.459  1.2071  0.6121  1.5281
16417SOL     OW56111   8.470   8.550   6.235 -0.4172  0.1855 -0.7253
16417SOL    HW156112   8.432   8.495   6.167 -1.0440  0.2865 -0.4683
16417SOL    HW256113   8.499   8.629   6.189  0.4796 -0.3450 -1.0907
16418SOL     OW56114   6.405   6.898   7.702 -0.4751 -0.3770  0.1733
16418SOL    HW156115   6.403   6.985   7.663  0.8135 -0.5012 -0.2215
16418SOL    HW256116   6.452   6.909   7.785  1.4844 -1.0003 -0.7955
16419SOL     OW56117   6.439   7.354   0.009 -0.3477 -0.4531  0.0916
16419SOL    HW156118   6.412   7.422   0.070 -0.9411 -0.0674 -0.5836
16419SOL    HW256119   6.394   7.376  -0.073  1.0826 -0.4731 -0.7340
16420SOL     OW56120   3.179   4.329   5.762 -0.2730  0.0364  0.0308
16420SOL    HW156121   3.181   4.235   5.743  1.1822  0.2020 -0.7857
16420SOL    HW256122   3.216   4.337   5.850 -1.9709 -0.2714  0.8099
16421SOL     OW56123   6.534   9.350   8.331  0.6212 -0.2571 -0.2325
16421SOL    HW156124   6.477   9.419   8.366 -0.1435 -0.3328 -1.2645
16421SOL    HW256125   6.519   9.353   8.236  1.2186 -1.2810 -0.3706
16422SOL     OW56126   2.165   7.351   6.952  0.3888 -0.0251  0.2851
16422SOL    HW156127   2.180   7.429   6.899  0.9423 -0.6984 -0.5775
16422SOL    HW256128   2.229   7.288   6.921  0.3258 -0.6480  1.3604
16423SOL     OW56129   0.548   2.191   1.032  0.3595 -0.4129 -0.2437
16423SOL    HW156130   0.574   2.123   1.094 -0.4100 -1.9198 -1.4932
16423SOL    HW256131   0.477   2.151   0.981 -0.7884  1.6886 -0.3888
16424SOL     OW56132   9.275   1.637   9.859 -0.1673 -0.4358  0.0944
16424SOL    HW156133   9.185   1.633   9.891 -0.3513  2.5388  0.2823
16424SOL    HW256134   9.328   1.650   9.938  0.2270 -0.5489 -0.1497
16425SOL     OW56135   4.848   9.763  10.631 -0.0299  0.1654 -0.1351
16425SOL    HW156136   4.777   9.812  10.589 -1.6275 -0.7631  1.3563
16425SOL    HW256137   4.901   9.829  10.674 -1.2405  0.7348  0.5299
16426SOL     OW56138   8.573   5.929   4.956  0.1656  0.0700 -0.2205
16426SOL    HW156139   8.544   5.900   5.043  3.5973  2.3470  1.9621
16426SOL    HW256140   8.663   5.898   4.949  0.9269  2.3649 -1.6534
16427SOL     OW56141   6.685   8.674   4.066 -0.2166  0.7318  0.5315
16427SOL    HW156142   6.693   8.697   4.158  1.3315  0.4191  0.5027
16427SOL    HW256143   6.764   8.623   4.047 -0.6831  0.4864 -0.8792
16428SOL     OW56144   8.187   1.353   2.704  0.3594  0.5372 -0.6827
16428SOL    HW156145   8.096   1.380   2.714  0.1023 -0.7498  0.8852
16428SOL    HW256146   8.216   1.395   2.623 -1.9678  0.0593 -1.8488
16429SOL     OW56147   0.475   4.770   3.142 -0.0946 -0.0530 -0.2948
16429SOL    HW156148   0.545   4.828   3.173 -1.5293  1.9392 -0.6092
16429SOL    HW256149   0.486   4.690   3.193  1.1180  1.0095  1.1997
16430SOL     OW56150   6.812   3.110   6.092 -0.2291  0.3210 -0.2027
16430SOL    HW156151   6.741   3.158   6.050 -0.9229 -1.0059 -0.5965
16430SOL    HW256152   6.768   3.042   6.143  0.6936  0.6179  1.0179
16431SOL     OW56153   5.907   0.964   0.139 -0.7239 -0.0359  0.0222
16431SOL    HW156154   5.823   0.938   0.101 -0.4602  0.2696 -0.7884
16431SOL    HW256155   5.944   1.025   0.075  0.5315 -0.8811 -0.0722
16432SOL     OW56156   7.035   9.880   5.399  0.3976  0.2827 -0.6989
16432SOL    HW156157   6.956   9.889   5.346 -0.2005 -0.6143  0.0185
16432SOL    HW256158   7.100   9.844   5.338 -0.7149 -2.2087 -0.5320
16433SOL     OW56159   6.753   5.735   1.059 -0.1681 -0.8219 -0.8685
16433SOL    HW156160   6.730   5.644   1.041 -0.7842 -0.8888  0.1613
16433SOL    HW256161   6.775   5.736   1.152 -0.7001  0.1843 -0.7387
16434SOL     OW56162   2.065  12.011   9.899  0.9189  0.8786  0.1418
16434SOL    HW156163   1.993  11.961   9.859  0.5089  1.8837 -0.4057
16434SOL    HW256164   2.115  11.945   9.947  0.8114 -0.2146 -1.1517
16435SOL     OW56165   9.728  10.490   5.618  0.6253 -0.2583  0.1092
16435SOL    HW156166   9.812  10.456   5.588  0.2198 -1.1965  0.0136
16435SOL    HW256167   9.702  10.432   5.689  0.4621  0.5540  0.7336
16436SOL     OW56168  11.361   5.284   6.813  0.1327 -0.1462  0.0153
16436SOL    HW156169  11.280   5.250   6.776 -0.1712  0.3350  0.2245
16436SOL    HW256170  11.341   5.375   6.837  1.1088  0.4008 -1.1375
16437SOL     OW56171   3.912  11.084   9.285 -0.4562 -1.1671 -0.1429
16437SOL    HW156172   3.997  11.062   9.248 -0.2566 -0.5337 -0.0636
16437SOL    HW256173   3.864  11.123   9.212 -0.4392 -0.9026 -0.0139
16438SOL     OW56174   8.154   5.760   8.484  0.2463  0.5898 -0.1750
16438SOL    HW156175   8.176   5.667   8.481 -1.5604  0.0436  1.4584
16438SOL    HW256176   8.229   5.801   8.528  0.5907 -0.2583  0.0541
16439SOL     OW56177   5.512   9.864   9.759 -0.7297 -0.6482 -0.1858
16439SOL    HW156178   5.547   9.805   9.693 -1.6154 -0.0591 -1.2015
16439SOL    HW256179   5.582   9.871   9.824  0.3268 -0.9047 -1.2650
16440SOL     OW56180   0.367   6.897   4.348  0.2874 -0.0691 -0.8052
16440SOL    HW156181   0.361   6.974   4.291  1.3526  0.2178 -0.5570
16440SOL    HW256182   0.408   6.830   4.292  0.2195 -0.1676 -0.7375
16441SOL     OW56183   7.841   9.298   3.935 -0.1981  0.1860  0.4019
16441SOL    HW156184   7.855   9.366   3.869  1.2332  1.9140  2.3508
16441SOL    HW256185   7.768   9.331   3.987 -1.9911 -1.6443 -0.7926
16442SOL     OW56186   0.588   5.099   1.695 -0.7122 -0.1421  0.1750
16442SOL    HW156187   0.613   5.078   1.785  1.3566 -0.5502 -0.4220
16442SOL    HW256188   0.607   5.193   1.686 -0.9546 -0.0929  0.1693
16443SOL     OW56189  11.694   2.672   2.847  0.1314  0.5834  0.1989
16443SOL    HW156190  11.790   2.665   2.849  0.2218  0.7802 -1.5197
16443SOL    HW256191  11.675   2.712   2.762 -1.5649 -1.2848 -0.3853
16444SOL     OW56192   6.842   6.791   8.764  0.6239  0.2820  0.5393
16444SOL    HW156193   6.827   6.819   8.855  1.4988 -0.6850  1.0069
16444SOL    HW256194   6.925   6.833   8.740  0.3099  0.6687  0.1206
16445SOL     OW56195   9.179   6.172  11.975 -0.1130 -0.3175  0.4537
16445SOL    HW156196   9.090   6.197  11.949 -0.7837 -1.8950  1.1327
16445SOL    HW256197   9.216   6.131  11.897  0.0147  0.3024  0.1827
16446SOL     OW56198  11.941   5.129   6.410  0.0742 -0.2458 -0.1999
16446SOL    HW156199  12.002   5.165   6.474  1.1002  1.0607 -1.8431
16446SOL    HW256200  11.855   5.162   6.437  0.6491  1.2808 -0.1544
16447SOL     OW56201   1.534  12.349   9.552  0.4625 -0.5716  0.0133
16447SOL    HW156202   1.488  12.355   9.636 -0.0316 -0.7614 -0.2378
16447SOL    HW256203   1.464  12.341   9.487  0.8788 -2.2771 -0.2737
16448SOL     OW56204   2.876   1.675   1.682  0.1660 -0.3908  0.1609
16448SOL    HW156205   2.936   1.709   1.616  0.6558 -2.4723 -0.5570
16448SOL    HW256206   2.796   1.653   1.633  0.0743 -0.7909  0.4801
16449SOL     OW56207   8.837  10.991  12.316  0.2516 -0.0048 -0.0114
16449SOL    HW156208   8.909  10.942  12.275  0.8708  0.6945  0.2229
16449SOL    HW256209   8.779  10.924  12.350  0.7088 -0.5846 -0.3553
16450SOL     OW56210   6.703   9.122   9.855  0.1143  0.0734 -0.2681
16450SOL    HW156211   6.608   9.132   9.860 -0.1077 -1.2817 -1.2062
16450SOL    HW256212   6.717   9.066   9.778  1.6157 -0.3690  0.2993
16451SOL     OW56213  10.655   1.026   8.798  0.6825  0.0406  0.0127
16451SOL    HW156214  10.741   1.028   8.756  0.0058 -0.5453 -1.4610
16451SOL    HW256215  10.658   0.950   8.856  0.6254 -0.9869 -1.2877
16452SOL     OW56216   1.895   3.955   8.684  0.5419 -0.2819 -0.6102
16452SOL    HW156217   1.866   3.905   8.607  0.6362 -1.3529  0.0228
16452SOL    HW256218   1.970   3.906   8.717  0.8136  0.4511 -0.1159
16453SOL     OW56219   7.734   7.860   0.909  0.1501  0.2036 -0.2474
16453SOL    HW156220   7.716   7.859   0.815  1.3716 -0.0844 -0.4912
16453SOL    HW256221   7.727   7.769   0.937 -0.4503  0.3185  0.0019
16454SOL     OW56222   3.597   4.077  11.528  0.1050  0.5080 -0.3884
16454SOL    HW156223   3.685   4.054  11.556 -0.1950  1.6674  1.7691
16454SOL    HW256224   3.541   4.052  11.602 -1.3954 -0.2109 -1.7175
16455SOL     OW56225   5.560   8.787   8.619 -0.4029 -0.3108 -0.0235
16455SOL    HW156226   5.546   8.861   8.559 -0.2342 -0.5001 -0.2972
16455SOL    HW256227   5.583   8.828   8.702  0.0492 -0.0591 -0.2709
16456SOL     OW56228  12.068   6.983  12.476 -0.0656  0.2888  0.1303
16456SOL    HW156229  12.026   6.935  12.405 -0.7354  1.0932 -0.0376
16456SOL    HW256230  12.118   6.917  12.524  1.4202 -0.0764 -1.8051
16457SOL     OW56231   9.439   3.198   5.953 -0.1992  0.4590 -0.0626
16457SOL    HW156232   9.495   3.275   5.957  0.1657  0.2329 -0.7058
16457SOL    HW256233   9.385   3.210   5.875  0.5406 -0.3796 -0.7265
16458SOL     OW56234   6.141   9.177   1.252 -0.1795  0.1937  0.6349
16458SOL    HW156235   6.058   9.222   1.238 -1.7422 -2.5408  0.3857
16458SOL    HW256236   6.117   9.097   1.299  2.1103 -1.3499 -0.6474
16459SOL     OW56237   9.638   0.491   8.553 -0.1153  0.1491  0.2937
16459SOL    HW156238   9.662   0.442   8.632 -1.9195 -0.3410  0.5878
16459SOL    HW256239   9.570   0.552   8.583 -0.8292 -0.0498 -0.8728
16460SOL     OW56240   6.261   0.318   3.427  0.2489  0.2384  0.1207
16460SOL    HW156241   6.274   0.247   3.490  0.3839  0.3548  0.2258
16460SOL    HW256242   6.173   0.303   3.392 -0.2485  0.7752  1.1043
16461SOL     OW56243   6.277  11.989   9.234 -0.1710  0.3117 -0.1076
16461SOL    HW156244   6.365  12.012   9.261 -0.2003  1.7464 -1.1136
16461SOL    HW256245   6.266  11.898   9.261  0.7258  0.8319  2.1687
16462SOL     OW56246  10.940  10.586   5.915  0.1702  0.0953  0.2436
16462SOL    HW156247  10.988  10.504   5.903 -1.2181 -0.8466  0.7878
16462SOL    HW256248  10.852  10.558   5.941 -0.5266  1.7484 -0.1961
16463SOL     OW56249   8.901   8.836   8.034  0.0915 -0.0247 -0.2504
16463SOL    HW156250   8.939   8.750   8.015  1.1821  0.0531  1.3702
16463SOL    HW256251   8.816   8.816   8.073 -0.8067 -0.2540 -2.2196
16464SOL     OW56252   0.427   7.538   3.086  0.5153 -0.7505  0.0406
16464SOL    HW156253   0.494   7.520   3.020  0.5140 -0.1908 -0.1151
16464SOL    HW256254   0.389   7.452   3.105  0.7786 -0.9687 -0.4056
16465SOL     OW56255   8.964   6.728   7.244 -0.0794  0.3352 -0.3890
16465SOL    HW156256   8.900   6.665   7.212 -0.3200  0.6077 -0.4483
16465SOL    HW256257   8.915   6.782   7.306  0.3367 -0.0779  0.3114
16466SOL     OW56258   2.259  11.619   1.489 -0.3882 -0.2065  0.0611
16466SOL    HW156259   2.168  11.647   1.500 -0.7425 -1.5791  0.7037
16466SOL    HW256260   2.254  11.526   1.470  0.8662 -0.1938 -0.4255
16467SOL     OW56261   3.809   4.334   1.184  0.0614  0.1163  0.4418
16467SOL    HW156262   3.868   4.318   1.258 -1.4729 -1.2174  1.4645
16467SOL    HW256263   3.817   4.255   1.130 -0.6064 -0.0025  0.4996
16468SOL     OW56264   3.564   2.461  10.116  0.2708 -0.0187 -0.0277
16468SOL    HW156265   3.628   2.391  10.102 -1.4818 -2.1915  1.9742
16468SOL    HW256266   3.569   2.478  10.210 -3.2166 -1.5967  0.5921
16469SOL     OW56267   8.852   2.835   2.579  0.3169 -0.5274  0.0269
16469SOL    HW156268   8.922   2.809   2.638 -0.1682 -0.9743  0.4253
16469SOL    HW256269   8.809   2.909   2.623  0.1653 -0.6442  0.0789
16470SOL     OW56270   7.428   2.008   0.497  0.2472  0.1885 -0.0789
16470SOL    HW156271   7.473   2.047   0.572  1.0652  0.7855 -0.8571
16470SOL    HW256272   7.368   2.077   0.467  0.6928  0.3453 -0.6154
16471SOL     OW56273   0.950   3.353   0.031 -0.3529 -0.3644 -0.8762
16471SOL    HW156274   0.867   3.400   0.039  0.7094  1.6596 -0.9915
16471SOL    HW256275   1.016   3.422   0.030  1.4062 -1.9448  0.0048
16472SOL     OW56276  10.460   8.881   2.692  0.2822 -0.5080  0.3475
16472SOL    HW156277  10.463   8.897   2.597  1.8465 -0.8106  0.3235
16472SOL    HW256278  10.502   8.958   2.730 -1.8467  0.4338  0.9534
16473SOL     OW56279   0.864   4.765   4.713  0.3438  0.2637  0.2427
16473SOL    HW156280   0.769   4.753   4.723  0.3418 -0.4984 -0.5652
16473SOL    HW256281   0.880   4.855   4.741 -0.4944  0.1329  1.1905
16474SOL     OW56282   2.061  11.085   9.762 -0.9180 -0.1582 -0.3564
16474SOL    HW156283   2.036  11.050   9.848 -0.9564  0.5169 -0.0871
16474SOL    HW256284   1.979  11.087   9.712 -0.5257 -2.8142 -1.2641
16475SOL     OW56285   9.872   7.663   1.168 -0.0169  0.1209  0.2808
16475SOL    HW156286   9.851   7.756   1.160 -1.1963 -0.0840  0.6797
16475SOL    HW256287   9.790   7.619   1.145  1.0015 -0.8907 -1.6374
16476SOL     OW56288   1.384   2.142   1.460 -0.4767 -0.0509  0.3573
16476SOL    HW156289   1.292   2.164   1.441 -0.3657  2.3604  2.1889
16476SOL    HW256290   1.432   2.223   1.444  1.1320 -0.8740  0.8488
16477SOL     OW56291   8.347  11.637   3.097  0.0939  0.0638 -0.6201
16477SOL    HW156292   8.295  11.677   3.167  0.3634 -0.9182  0.1638
16477SOL    HW256293   8.315  11.678   3.016 -1.0170  0.3934 -0.0295
16478SOL     OW56294   8.236   6.959   7.326  0.0604  0.3317 -0.2742
16478SOL    HW156295   8.302   6.892   7.342 -0.7902 -0.6801 -0.9070
16478SOL    HW256296   8.205   6.942   7.237 -2.0600 -0.1392  0.5041
16479SOL     OW56297   6.198   8.426   8.612  0.0319  0.4918  0.1037
16479SOL    HW156298   6.147   8.439   8.692 -3.1621 -1.1784 -1.4678
16479SOL    HW256299   6.246   8.345   8.628  1.3884  1.4533  1.1571
16480SOL     OW56300   9.328   9.927   4.326 -0.3118 -0.0247  0.0782
16480SOL    HW156301   9.244   9.954   4.362 -1.1591 -0.1910 -1.6689
16480SOL    HW256302   9.306   9.870   4.252  1.3546 -0.8165  0.1284
16481SOL     OW56303   8.396   2.139   1.491  0.4199 -0.5245 -0.8175
16481SOL    HW156304   8.348   2.075   1.439  0.6392 -1.3911  0.0104
16481SOL    HW256305   8.457   2.086   1.542  0.7656  0.3792 -0.2793
16482SOL     OW56306   7.763   4.140   8.405 -0.1082 -0.0510 -0.0799
16482SOL    HW156307   7.668   4.137   8.417 -0.0951 -1.9331 -0.0916
16482SOL    HW256308   7.775   4.168   8.314 -0.6491  0.3306 -0.0381
16483SOL     OW56309  12.456   0.690   3.436 -0.4678 -0.2403 -0.2368
16483SOL    HW156310  12.514   0.649   3.499 -0.5632  0.8913  0.6367
16483SOL    HW256311  12.442   0.624   3.368 -1.8730 -2.2401  1.8561
16484SOL     OW56312   6.027   7.737   5.300 -0.5797  0.0897  0.0819
16484SOL    HW156313   6.071   7.802   5.355 -0.3076 -2.6954  3.5695
16484SOL    HW256314   6.098   7.687   5.260 -0.5001 -1.5466  2.0806
16485SOL     OW56315   2.472   9.003   0.807 -0.0816  0.0411  0.3355
16485SOL    HW156316   2.378   9.015   0.795  0.3092  1.7656 -1.6063
16485SOL    HW256317   2.493   8.927   0.754 -0.3400 -0.2409  0.6306
16486SOL     OW56318   1.536   9.222   7.161 -0.1871 -0.9383  0.0821
16486SOL    HW156319   1.548   9.291   7.226 -2.6677  1.1354 -1.4445
16486SOL    HW256320   1.522   9.143   7.212 -0.3087  0.2563  2.0107
16487SOL     OW56321  10.647   1.756   4.858 -0.3232  0.3848  0.2560
16487SOL    HW156322  10.685   1.694   4.920 -0.3462  0.5143  0.4008
16487SOL    HW256323  10.697   1.743   4.777  0.6014  1.1546  0.6977
16488SOL     OW56324  11.263   7.848   3.545  0.2376  0.4560 -0.5022
16488SOL    HW156325  11.217   7.881   3.467  0.3108  1.1140 -0.2711
16488SOL    HW256326  11.214   7.769   3.570 -1.0236  1.3543 -0.0332
16489SOL     OW56327   7.295   6.940   7.099 -0.5818 -0.4153  0.4463
16489SOL    HW156328   7.352   7.017   7.105 -0.3178 -0.6324  0.7917
16489SOL    HW256329   7.355   6.865   7.097 -0.7958 -0.5663 -1.1622
16490SOL     OW56330   5.810  10.039   2.241 -0.3402 -0.0173  0.3306
16490SOL    HW156331   5.817  10.013   2.332  0.3873  0.3227  0.3787
16490SOL    HW256332   5.761  10.121   2.243 -0.0783  0.1358  0.4394
16491SOL     OW56333   8.967  12.429   8.542  0.0785 -0.4243 -0.0128
16491SOL    HW156334   9.056  12.464   8.534  0.1988 -0.9555 -1.2124
16491SOL    HW256335   8.943  12.404   8.453 -0.5974 -1.9289  0.5549
16492SOL     OW56336   8.766   1.741   7.339 -0.3370 -0.2570  0.5874
16492SOL    HW156337   8.847   1.782   7.312 -0.0210 -1.3292 -0.1621
16492SOL    HW256338   8.780   1.647   7.323 -1.4881 -0.5209  1.0278
16493SOL     OW56339   0.730   5.728  11.176 -0.6966 -0.5421  0.2772
16493SOL    HW156340   0.763   5.737  11.087 -0.0392 -1.2590  0.4350
16493SOL    HW256341   0.808   5.714  11.229 -0.9609  1.0416  1.1557
16494SOL     OW56342   7.804   2.798   9.228 -0.0740 -0.2342  0.4418
16494SOL    HW156343   7.850   2.833   9.304  1.7985 -1.2484 -0.1525
16494SOL    HW256344   7.760   2.719   9.261  0.0310 -0.2029  0.6564
16495SOL     OW56345  10.377   9.010  10.212  0.6206  0.0110  1.2587
16495SOL    HW156346  10.400   9.042  10.299 -1.3638  0.9016  1.5098
16495SOL    HW256347  10.419   9.071  10.152  0.9594  0.1414  1.6288
16496SOL     OW56348   8.150   4.771  11.963  0.3790 -0.3004  0.1926
16496SOL    HW156349   8.087   4.739  11.898  0.3811 -1.5274  0.7727
16496SOL    HW256350   8.112   4.747  12.047  0.1998  1.5963  0.7084
16497SOL     OW56351   8.256   2.380   3.192  0.4672  0.2479 -0.5981
16497SOL    HW156352   8.228   2.418   3.276 -2.0118  1.1922 -1.7599
16497SOL    HW256353   8.341   2.420   3.175  1.8866 -1.2527  2.2120
16498SOL     OW56354   5.902   7.802   1.354  0.1460  0.1346  0.6980
16498SOL    HW156355   5.986   7.847   1.346  0.1327  0.4688  2.1705
16498SOL    HW256356   5.925   7.709   1.358  0.3003  0.0986 -0.6439
16499SOL     OW56357  12.264   6.912  11.705  0.2365 -0.0249 -0.6632
16499SOL    HW156358  12.239   6.996  11.666  1.3141 -0.0097 -1.3769
16499SOL    HW256359  12.317   6.936  11.781 -0.3864 -0.0622 -0.2125
16500SOL     OW56360   0.364   8.142   7.075  0.0408  0.2178 -0.0121
16500SOL    HW156361   0.458   8.134   7.094 -0.0833 -0.2665  0.4272
16500SOL    HW256362   0.324   8.069   7.123 -0.5340  0.2792 -0.3933
16501SOL     OW56363   2.940   2.147  10.965  0.4112 -0.3194 -0.2151
16501SOL    HW156364   2.983   2.185  10.889  0.9362 -0.9576 -0.2406
16501SOL    HW256365   3.011   2.121  11.023  0.1393 -2.5091 -0.7939
16502SOL     OW56366  11.686   3.166  10.882 -0.1624 -0.1406 -0.5965
16502SOL    HW156367  11.659   3.215  10.804  0.7102 -0.0263 -0.8359
16502SOL    HW256368  11.611   3.110  10.902 -0.6572  0.3224 -1.1135
16503SOL     OW56369   0.608   4.085  11.674  0.5225  0.4350  0.0263
16503SOL    HW156370   0.640   4.045  11.755 -2.6926 -1.4476  0.5118
16503SOL    HW256371   0.648   4.033  11.604  1.1021  0.2633  0.4784
16504SOL     OW56372   1.874   5.976   1.105  0.1630 -0.1789  0.0223
16504SOL    HW156373   1.967   5.958   1.091  0.2483  0.2559  0.0191
16504SOL    HW256374   1.872   6.045   1.171 -0.1832 -0.6709  0.5394
16505SOL     OW56375   9.753   5.691   5.414  0.5262 -0.4639 -0.5866
16505SOL    HW156376   9.720   5.780   5.407  0.4971 -0.2071  2.0893
16505SOL    HW256377   9.680   5.636   5.384  0.3341  0.3383 -1.6574
16506SOL     OW56378   0.296  11.888   1.691  0.0416 -0.0532 -0.1333
16506SOL    HW156379   0.377  11.903   1.740 -0.1831 -0.3948  0.3547
16506SOL    HW256380   0.234  11.856   1.757 -0.2140 -0.7069 -0.6760
16507SOL     OW56381   0.910   4.652   3.014  0.0667 -0.1849 -0.9425
16507SOL    HW156382   0.876   4.600   3.087  1.1431  0.0354 -0.2660
16507SOL    HW256383   0.982   4.600   2.978  0.2585  0.2150 -1.1418
16508SOL     OW56384   8.037   6.279   1.574  0.4680 -0.9822 -0.5492
16508SOL    HW156385   7.953   6.265   1.618  0.7115 -0.2814  0.1672
16508SOL    HW256386   8.060   6.193   1.538  0.5217 -1.7293  1.1674
16509SOL     OW56387   5.875  11.642   9.152  0.2278  0.4790  0.8114
16509SOL    HW156388   5.954  11.631   9.098 -0.2547  1.8824 -0.2583
16509SOL    HW256389   5.908  11.647   9.241  1.1887 -0.5508  0.5377
16510SOL     OW56390  11.639   2.484   5.749 -0.1315  0.2856  0.2840
16510SOL    HW156391  11.603   2.501   5.836 -0.3113  1.9906 -0.1061
16510SOL    HW256392  11.732   2.466   5.765 -0.4190 -0.7431  0.9357
16511SOL     OW56393   6.068  10.771   9.586 -0.1850  0.1098 -0.2127
16511SOL    HW156394   6.027  10.855   9.565 -0.9199 -0.7974 -2.8879
16511SOL    HW256395   5.997  10.718   9.621 -0.2828 -0.0922 -0.7057
16512SOL     OW56396   7.590  10.779   3.976 -0.0048  0.0340 -0.4939
16512SOL    HW156397   7.635  10.771   3.892  1.1655  0.3829  0.0791
16512SOL    HW256398   7.612  10.699   4.024  2.2925  1.3571  0.8259
16513SOL     OW56399   0.837  10.599   7.293  0.2658  0.1090 -0.8352
16513SOL    HW156400   0.760  10.557   7.255 -1.0404  1.9908 -0.4436
16513SOL    HW256401   0.879  10.644   7.219  0.8877 -0.7153 -1.0018
16514SOL     OW56402   9.523   7.196  10.403  0.0168 -0.2903  0.0864
16514SOL    HW156403   9.428   7.204  10.402 -0.0111 -0.1445  1.6048
16514SOL    HW256404   9.556   7.285  10.388 -0.1160 -0.0972  0.8873
16515SOL     OW56405   3.789  12.168   0.382 -0.1827 -0.0090 -0.2143
16515SOL    HW156406   3.830  12.211   0.457  0.5889 -2.3355  0.7953
16515SOL    HW256407   3.724  12.230   0.351  1.2427  2.0861  0.7700
16516SOL     OW56408   6.843   1.051   5.153  0.3546 -0.0751 -0.4777
16516SOL    HW156409   6.839   0.958   5.177  0.1841  0.1293  0.3150
16516SOL    HW256410   6.786   1.094   5.217  0.3174  0.5572 -0.9367
16517SOL     OW56411  11.036   2.818   1.959  0.7173  0.3154  0.4061
16517SOL    HW156412  10.968   2.882   1.979 -1.7534 -2.3053  1.1328
16517SOL    HW256413  11.036   2.812   1.863  0.4396  0.8792  0.3680
16518SOL     OW56414   0.656   4.470   0.069 -0.1821  0.1023 -0.2850
16518SOL    HW156415   0.632   4.532   0.138  1.0397  0.3040 -0.0118
16518SOL    HW256416   0.751   4.480   0.060  0.0075 -1.5654 -0.4077
16519SOL     OW56417  10.250  12.244   0.030  0.1298  0.1140  0.0032
16519SOL    HW156418  10.290  12.167   0.072  0.0146  0.1971  0.2677
16519SOL    HW256419  10.158  12.220   0.019  0.2652 -0.1109 -0.6821
16520SOL     OW56420   6.537   7.452   9.524  0.1386 -0.1797 -0.2076
16520SOL    HW156421   6.540   7.420   9.614 -0.3212  0.1940 -0.0536
16520SOL    HW256422   6.536   7.547   9.532 -1.3164 -0.1300 -0.5292
16521SOL     OW56423   0.469   2.972   8.667  0.2002  0.0692  0.5890
16521SOL    HW156424   0.437   3.062   8.674 -2.3057 -0.7714  1.1248
16521SOL    HW256425   0.405   2.920   8.715  1.5710 -2.0276  0.2919
16522SOL     OW56426   6.300  10.158   8.900 -0.1439 -0.3195 -0.0897
16522SOL    HW156427   6.380  10.106   8.902  0.1343  0.1130  0.8678
16522SOL    HW256428   6.322  10.236   8.850  0.4643  0.4249  1.2743
16523SOL     OW56429  11.163   3.357  12.352  0.2195 -0.0430  0.1001
16523SOL    HW156430  11.134   3.375  12.262 -1.4097  1.4369  0.8459
16523SOL    HW256431  11.139   3.437  12.400  0.8173 -0.9124  1.8980
16524SOL     OW56432   4.228   6.354   7.791  0.3576 -0.0863 -0.9030
16524SOL    HW156433   4.318   6.389   7.790  0.3622 -0.0993 -1.0120
16524SOL    HW256434   4.187   6.395   7.867  0.6030 -0.4519 -0.5744
16525SOL     OW56435   3.240   6.189   9.073  0.6771  0.1141  0.3842
16525SOL    HW156436   3.288   6.106   9.068 -1.3643 -1.0595 -1.6326
16525SOL    HW256437   3.306   6.256   9.052  2.0907 -1.1016  0.7396
16526SOL     OW56438   3.148   3.080   3.798  0.0570 -0.0056 -0.4023
16526SOL    HW156439   3.234   3.055   3.833  0.2657  1.7331  0.4642
16526SOL    HW256440   3.167   3.111   3.710  0.2254 -0.1929 -0.4330
16527SOL     OW56441  12.317   0.791   4.638  0.6342 -0.1279 -0.7102
16527SOL    HW156442  12.379   0.722   4.617 -1.0810 -1.4961 -1.5983
16527SOL    HW256443  12.303   0.784   4.732 -0.0357 -1.4793 -0.8936
16528SOL     OW56444   9.761  10.385   8.835  0.2186 -0.3159 -0.0882
16528SOL    HW156445   9.854  10.365   8.822 -0.0293 -0.8979 -0.9990
16528SOL    HW256446   9.719  10.362   8.753 -0.7463 -0.0489  0.3102
16529SOL     OW56447   5.335   9.468  10.589 -0.3557  0.2625 -1.0178
16529SOL    HW156448   5.289   9.522  10.653 -0.3405 -0.7880 -0.0710
16529SOL    HW256449   5.365   9.529  10.522  2.4269  1.9922  1.5452
16530SOL     OW56450   2.535   9.612   1.638  0.0869  0.1427  0.0032
16530SOL    HW156451   2.511   9.696   1.677  1.4013  0.2618  0.5784
16530SOL    HW256452   2.618   9.589   1.678  0.6970 -0.5056 -1.5648
16531SOL     OW56453   9.784   6.574   3.545  0.1019 -0.3612 -0.0170
16531SOL    HW156454   9.740   6.521   3.611 -0.4729 -0.3281 -0.3693
16531SOL    HW256455   9.872   6.537   3.539  1.6269  2.0629  3.6656
16532SOL     OW56456   0.077   5.315   4.793  0.1650  0.2407  0.6897
16532SOL    HW156457  -0.011   5.338   4.822  0.2693  0.3321  0.9474
16532SOL    HW256458   0.064   5.258   4.718 -0.0987  1.4838 -0.2394
16533SOL     OW56459  12.346   9.943   4.974  0.1595 -0.0327  0.0033
16533SOL    HW156460  12.267   9.971   5.021  1.1835  1.2113  1.0914
16533SOL    HW256461  12.319   9.934   4.883 -0.9656  1.5729  0.1475
16534SOL     OW56462  11.568   7.431   5.299 -0.0071 -0.0136  0.3092
16534SOL    HW156463  11.648   7.443   5.350 -0.2408 -2.3340  1.4008
16534SOL    HW256464  11.499   7.467   5.354  0.0644  0.0787  0.3379
16535SOL     OW56465   3.722  12.017   1.622  0.3157  0.0390  0.3216
16535SOL    HW156466   3.649  12.053   1.672 -0.0668  0.6702 -0.6455
16535SOL    HW256467   3.761  12.093   1.579  1.9717 -0.1920  1.3267
16536SOL     OW56468  11.307   1.350   8.103  0.5727 -0.5354 -0.0717
16536SOL    HW156469  11.220   1.367   8.140  1.4390 -0.0285  1.8351
16536SOL    HW256470  11.289   1.324   8.012 -1.4857  0.6600 -0.0724
16537SOL     OW56471  11.208  10.967  11.980 -0.3044  0.1532 -0.0468
16537SOL    HW156472  11.217  11.057  12.012  1.5929 -0.6726  2.0086
16537SOL    HW256473  11.291  10.949  11.935 -0.9529 -0.3802 -1.0834
16538SOL     OW56474   1.402   7.529   0.494  0.1983 -0.1855 -0.2617
16538SOL    HW156475   1.329   7.549   0.434 -0.7612  0.6582  1.1439
16538SOL    HW256476   1.359   7.509   0.577  1.4373 -2.4597 -0.0757
16539SOL     OW56477   2.578   2.723   0.131 -0.0080  1.1066 -0.0736
16539SOL    HW156478   2.669   2.734   0.157  0.1971 -0.3334 -0.0931
16539SOL    HW256479   2.528   2.729   0.212  0.0280  2.3943 -0.1221
16540SOL     OW56480   4.642   8.098   8.887 -0.0563 -0.9366 -0.5038
16540SOL    HW156481   4.670   8.007   8.878  1.4080 -0.6520  0.7310
16540SOL    HW256482   4.663   8.121   8.978 -0.2648  0.6708 -0.8248
16541SOL     OW56483   2.826   5.787   1.136  0.1402  0.4023 -0.3934
16541SOL    HW156484   2.758   5.853   1.144 -0.5767 -0.0254 -2.4714
16541SOL    HW256485   2.784   5.705   1.162 -0.7325 -0.1462 -3.1891
16542SOL     OW56486   5.108   1.163  10.095 -0.1759 -0.6818 -0.4110
16542SOL    HW156487   5.135   1.255  10.095 -0.3501 -0.6278 -0.7935
16542SOL    HW256488   5.180   1.117  10.137 -0.6585 -0.2126  0.9723
16543SOL     OW56489  10.475   0.412   3.709 -0.4961 -0.0612 -0.3963
16543SOL    HW156490  10.487   0.503   3.738 -0.9592  0.4511 -1.7402
16543SOL    HW256491  10.398   0.415   3.653 -0.3786 -1.2570 -0.6442
16544SOL     OW56492   5.683   8.381   8.876  0.4718 -0.0756 -0.0030
16544SOL    HW156493   5.602   8.334   8.896  1.8134 -1.6221  2.2718
16544SOL    HW256494   5.662   8.432   8.797 -1.7609 -2.7757 -1.3465
16545SOL     OW56495   3.661   5.799   0.216  0.4565 -0.8245 -0.3622
16545SOL    HW156496   3.610   5.875   0.245 -0.4263 -1.6120  0.2380
16545SOL    HW256497   3.752   5.823   0.234  0.1741 -0.0016  0.0397
16546SOL     OW56498   1.885   2.760  10.423  0.7290  0.0055 -0.5500
16546SOL    HW156499   1.869   2.698  10.352  1.1031 -0.4738 -0.2283
16546SOL    HW256500   1.835   2.838  10.399  3.3741  1.0913 -2.9615
16547SOL     OW56501   1.106   1.590   3.926 -0.1554 -0.2905  0.0970
16547SOL    HW156502   1.067   1.668   3.966 -1.1253  0.1607 -1.6083
16547SOL    HW256503   1.043   1.520   3.944  0.3753 -0.5432  1.0261
16548SOL     OW56504   0.088  10.037   1.975  0.0612 -0.2037  0.0029
16548SOL    HW156505   0.021  10.097   1.943  0.4483 -0.4111 -1.2277
16548SOL    HW256506   0.110   9.981   1.900 -0.6382 -2.2343  1.2228
16549SOL     OW56507   2.583   4.363  10.617  0.0733  0.0463  0.1584
16549SOL    HW156508   2.505   4.306  10.620  0.2528 -0.2913 -1.1061
16549SOL    HW256509   2.657   4.302  10.614  0.4289  0.3648  1.6332
16550SOL     OW56510   0.511   3.300   5.448 -0.2728  0.5758 -0.1067
16550SOL    HW156511   0.526   3.378   5.502 -1.3874 -0.3503  1.6286
16550SOL    HW256512   0.422   3.310   5.415 -1.2792 -0.9108  1.9301
16551SOL     OW56513   8.623   2.916  12.464 -0.3086  0.4154 -0.6338
16551SOL    HW156514   8.670   2.848  12.512 -0.0996  2.2501  1.9146
16551SOL    HW256515   8.545   2.872  12.430 -0.6738 -0.9151  1.7591
16552SOL     OW56516   4.734   4.258   2.027  0.1548 -0.6177  0.3228
16552SOL    HW156517   4.729   4.341   2.075 -0.8485  0.3450 -1.3356
16552SOL    HW256518   4.828   4.240   2.020  0.4111  0.5835  0.3960
16553SOL     OW56519   6.580   3.423   2.292 -0.3106 -0.1946 -0.0615
16553SOL    HW156520   6.520   3.353   2.317 -1.4728  0.6144 -0.5157
16553SOL    HW256521   6.530   3.504   2.305  0.9030  0.5410  0.1581
16554SOL     OW56522   9.159   0.673   4.462 -0.2180  0.2604 -0.2302
16554SOL    HW156523   9.158   0.726   4.382  1.2558  0.7776  0.0773
16554SOL    HW256524   9.213   0.722   4.523  1.0652 -1.5111  0.1213
16555SOL     OW56525  12.011   8.524   7.547 -0.7577  0.3390  0.1359
16555SOL    HW156526  12.018   8.609   7.590  3.1567  0.4351 -0.3220
16555SOL    HW256527  12.004   8.544   7.454 -2.1839  0.1250  0.1836
16556SOL     OW56528   3.027  11.749   0.996 -0.4368 -0.6089  0.4771
16556SOL    HW156529   3.023  11.784   0.907  1.1915 -1.3624  0.0683
16556SOL    HW256530   2.979  11.667   0.992 -0.6970 -0.4540  0.3976
16557SOL     OW56531   8.056  11.936   5.757 -0.0180  0.9881 -1.1638
16557SOL    HW156532   8.110  11.980   5.822 -0.9617 -0.3715  0.6062
16557SOL    HW256533   8.118  11.907   5.690  1.5167 -0.5527  0.8136
16558SOL     OW56534  10.073   3.933   3.843  0.1633 -0.5506  0.2109
16558SOL    HW156535  10.056   3.967   3.755 -0.8413 -2.1411 -0.2565
16558SOL    HW256536  10.048   4.004   3.902 -0.2619  0.1208 -0.7630
16559SOL     OW56537   5.795   1.080   0.726 -0.4152  0.1546  0.4533
16559SOL    HW156538   5.852   1.155   0.745 -1.1930  0.9302 -0.1987
16559SOL    HW256539   5.769   1.047   0.812  0.7687 -0.0441  0.7645
16560SOL     OW56540   7.787   3.206   3.964 -0.1943 -0.6094 -0.3422
16560SOL    HW156541   7.739   3.225   3.883  0.7941  0.7347 -0.6569
16560SOL    HW256542   7.762   3.277   4.023  0.1010 -0.8512  0.0741
16561SOL     OW56543   3.243  10.256   2.360 -0.3123  0.0675 -0.4949
16561SOL    HW156544   3.204  10.287   2.442 -0.8532 -1.2970 -0.2053
16561SOL    HW256545   3.255  10.335   2.307 -1.5657  0.7677  0.2293
16562SOL     OW56546   4.069   8.770   1.901  0.4958  0.5283 -0.3252
16562SOL    HW156547   4.135   8.702   1.909  0.4215  0.6150  1.3899
16562SOL    HW256548   4.099   8.824   1.827  0.6788 -1.1698 -1.5585
16563SOL     OW56549  10.115   4.357  11.494 -0.1739  0.1505  0.0966
16563SOL    HW156550  10.072   4.389  11.415  2.8127  2.3022 -0.8310
16563SOL    HW256551  10.120   4.434  11.552  1.6312 -0.1898  0.4583
16564SOL     OW56552   1.819   3.688   1.970  0.1120 -0.4227 -0.0196
16564SOL    HW156553   1.801   3.633   2.046 -2.0699  1.4413  0.9296
16564SOL    HW256554   1.802   3.777   2.000  0.4195  0.5005 -2.3623
16565SOL     OW56555   4.190   1.822   7.382 -0.7150 -0.0307 -0.3117
16565SOL    HW156556   4.256   1.883   7.413 -0.4508  0.0275 -0.9841
16565SOL    HW256557   4.192   1.751   7.446  3.5966 -2.6089 -2.8457
16566SOL     OW56558   3.656  12.101   0.657 -0.0806  0.5602 -0.4936
16566SOL    HW156559   3.697  12.158   0.722 -1.4592  1.0177  0.0115
16566SOL    HW256560   3.608  12.161   0.599 -0.0858  0.0363 -1.0481
16567SOL     OW56561   6.564   4.071   6.051  0.2929 -0.3758  0.4766
16567SOL    HW156562   6.629   4.035   6.111  0.2713 -1.2166  0.0087
16567SOL    HW256563   6.486   4.016   6.064  0.5714 -1.1718 -0.9619
16568SOL     OW56564   1.052   1.707   9.656 -0.2665  0.2973  0.5223
16568SOL    HW156565   0.961   1.732   9.640  0.0347  1.0642 -0.0687
16568SOL    HW256566   1.101   1.749   9.585  0.4429 -0.8464  0.3133
16569SOL     OW56567   4.251   6.911   5.806 -0.4074  0.2237  0.3750
16569SOL    HW156568   4.277   6.988   5.754 -0.7925 -0.4046 -0.7850
16569SOL    HW256569   4.156   6.918   5.814 -0.4559 -0.1883  0.1719
16570SOL     OW56570   9.300  11.254   3.213 -0.4251  0.4608  0.4242
16570SOL    HW156571   9.252  11.311   3.153 -0.1396  0.1949 -0.0719
16570SOL    HW256572   9.262  11.271   3.299 -0.2863  1.4617  0.3000
16571SOL     OW56573  11.005  10.526   7.779  0.0171  0.6241  0.6362
16571SOL    HW156574  11.013  10.484   7.694  2.5349  3.6592 -0.8295
16571SOL    HW256575  10.955  10.606   7.762 -1.1994  0.3393  2.4897
16572SOL     OW56576   5.468   7.242   0.359  0.7768  0.0585 -0.2706
16572SOL    HW156577   5.560   7.221   0.343  1.0261  0.7127  0.2497
16572SOL    HW256578   5.458   7.240   0.454  0.3324  0.3113 -0.3049
16573SOL     OW56579   3.949   9.468  12.007 -0.0966 -0.3717  0.6365
16573SOL    HW156580   3.953   9.524  12.084 -0.8122 -0.7189  0.9357
16573SOL    HW256581   3.876   9.502  11.956  0.0353 -0.4764  0.3772
16574SOL     OW56582   2.983   4.695   1.951 -0.4663  0.5335 -0.4230
16574SOL    HW156583   2.941   4.778   1.973 -0.4313  0.2464  0.7731
16574SOL    HW256584   3.070   4.701   1.991 -0.8944 -0.5556  0.7254
16575SOL     OW56585   5.592   7.344   5.437  0.8433 -0.0082 -0.3767
16575SOL    HW156586   5.671   7.310   5.479  0.1446 -2.2883 -0.7374
16575SOL    HW256587   5.606   7.438   5.430  2.4770 -0.0290  1.7510
16576SOL     OW56588   4.310  11.092   2.845  0.5660  0.5419  0.1774
16576SOL    HW156589   4.247  11.153   2.809 -0.4672 -0.1954  0.6865
16576SOL    HW256590   4.320  11.025   2.777  1.2295  0.9360 -0.1256
16577SOL     OW56591  11.093   4.483   1.341  0.0813 -0.0781  0.1500
16577SOL    HW156592  11.132   4.456   1.424 -1.1341 -2.1189  0.1023
16577SOL    HW256593  11.119   4.416   1.279 -1.3798 -0.1173 -0.4552
16578SOL     OW56594   4.323  11.617  10.392  0.5701 -0.2453 -0.5666
16578SOL    HW156595   4.353  11.526  10.392  2.0820  0.2187 -1.0854
16578SOL    HW256596   4.334  11.646  10.482 -0.4343 -0.7228 -0.2791
16579SOL     OW56597  10.010   3.104   0.224  0.5202 -0.3823 -0.1479
16579SOL    HW156598   9.950   3.178   0.233  0.3161 -0.3737 -1.4517
16579SOL    HW256599  10.032   3.102   0.131  1.9239 -0.8769  0.1752
16580SOL     OW56600  11.284   2.235   5.983  0.2614 -0.6257 -0.0083
16580SOL    HW156601  11.359   2.189   6.021  0.9651 -0.1160 -0.7324
16580SOL    HW256602  11.234   2.167   5.939  1.3757 -0.7217 -1.1986
16581SOL     OW56603   1.112  10.289   0.240 -0.1914 -0.0116 -0.3691
16581SOL    HW156604   1.036  10.278   0.183 -0.4864  1.6517 -0.3519
16581SOL    HW256605   1.079  10.338   0.315  1.1558  2.1172 -1.0789
16582SOL     OW56606   5.523   5.755   7.578  0.1140  0.2095 -0.1559
16582SOL    HW156607   5.585   5.814   7.535 -0.5230  2.2666  1.5750
16582SOL    HW256608   5.448   5.751   7.518  1.2551 -1.1268 -1.5722
16583SOL     OW56609   1.413   9.024   9.529 -0.0995  0.2604 -0.1415
16583SOL    HW156610   1.455   9.047   9.446  0.4354 -1.9560 -0.5498
16583SOL    HW256611   1.348   8.958   9.505 -0.4316  0.1165  1.1073
16584SOL     OW56612   7.813   3.495   0.260 -0.2359  0.0025  0.3137
16584SOL    HW156613   7.808   3.470   0.352  0.7252  0.8031  0.6056
16584SOL    HW256614   7.857   3.421   0.217 -1.3181 -0.6792  0.3518
16585SOL     OW56615   1.285   9.713   4.283 -0.4370  0.2616  0.3112
16585SOL    HW156616   1.300   9.620   4.297  0.4584  0.1103 -1.4329
16585SOL    HW256617   1.190   9.723   4.284 -0.5456 -0.7207  0.2173
16586SOL     OW56618   5.239   1.638   6.124  0.0387  0.4398  0.6607
16586SOL    HW156619   5.207   1.728   6.123  0.5482  0.6245  0.2738
16586SOL    HW256620   5.207   1.602   6.206 -0.5652  0.8294  0.6036
16587SOL     OW56621  10.818   7.359   7.940  0.0524 -0.0036 -0.3023
16587SOL    HW156622  10.864   7.440   7.959 -2.0296  0.8419  1.5534
16587SOL    HW256623  10.825   7.307   8.020 -2.8805  0.5816  0.4514
16588SOL     OW56624   2.456  11.498   7.529 -1.1159  0.2321  0.4418
16588SOL    HW156625   2.416  11.574   7.488  0.2541  0.2722 -0.9311
16588SOL    HW256626   2.407  11.423   7.495  0.4269  0.1994 -2.0223
16589SOL     OW56627   1.615   1.527   9.338 -0.2912 -0.2246 -0.2269
16589SOL    HW156628   1.553   1.465   9.301 -1.9005  1.8736 -1.2105
16589SOL    HW256629   1.567   1.570   9.409  0.2848  0.8971 -0.4997
16590SOL     OW56630   9.958   1.375   9.524  0.2263  0.0740  0.4008
16590SOL    HW156631  10.005   1.296   9.497  0.6763  0.8187 -1.1289
16590SOL    HW256632  10.025   1.443   9.526 -0.3408  0.6276  0.7122
16591SOL     OW56633  10.053  12.155   5.345 -0.2397  0.2461  0.1747
16591SOL    HW156634  10.031  12.248   5.342  0.1735  0.3619  0.7444
16591SOL    HW256635  10.131  12.149   5.400 -0.3109 -0.4474  0.2188
16592SOL     OW56636   2.254   3.737   5.451 -0.5176  0.5119 -0.3872
16592SOL    HW156637   2.169   3.718   5.411 -0.7958 -1.5558  1.0162
16592SOL    HW256638   2.233   3.773   5.537 -0.0483 -1.5165  0.6278
16593SOL     OW56639   0.834   3.732   4.573  0.7582 -0.1400  0.2513
16593SOL    HW156640   0.859   3.646   4.541  1.2502  0.0470  0.1284
16593SOL    HW256641   0.853   3.792   4.501 -0.5266 -0.0461 -0.0416
16594SOL     OW56642   7.298   7.085   0.600  0.1793 -0.9338 -0.0209
16594SOL    HW156643   7.374   7.134   0.570  0.7371 -1.6294  0.2201
16594SOL    HW256644   7.225   7.147   0.592  0.6823 -0.4087 -0.6937
16595SOL     OW56645   4.648   9.889  10.477 -0.6900  0.2631  0.3594
16595SOL    HW156646   4.615   9.973  10.444 -0.2877 -0.3491 -1.7491
16595SOL    HW256647   4.628   9.826  10.408 -0.2899 -1.2469  1.5660
16596SOL     OW56648   9.950   3.756   6.670  0.1232 -0.6756  0.2444
16596SOL    HW156649   9.910   3.790   6.750  0.3537  0.9522 -0.3010
16596SOL    HW256650   9.907   3.672   6.655 -1.7864  0.1858  0.6571
16597SOL     OW56651  12.297   2.855   0.535  0.4946 -0.3528 -0.1134
16597SOL    HW156652  12.230   2.919   0.559  0.1244 -0.7631 -0.0361
16597SOL    HW256653  12.250   2.789   0.485  0.1475 -2.3157  2.5938
16598SOL     OW56654   5.047  12.446   6.993 -0.0079  0.3534  0.1708
16598SOL    HW156655   4.990  12.394   6.937 -1.0031  0.8513  0.6871
16598SOL    HW256656   5.013  12.535   6.985  0.1586  0.5166  1.1511
16599SOL     OW56657   1.089   6.276   4.307 -0.1756 -0.4183  0.0093
16599SOL    HW156658   1.167   6.292   4.254  0.2956  0.2312  0.8765
16599SOL    HW256659   1.035   6.354   4.294 -0.9674 -1.1060 -1.0333
16600SOL     OW56660   2.811   2.981   0.128  0.7500  0.0813 -0.2893
16600SOL    HW156661   2.782   3.061   0.170  0.1651 -0.1818 -0.1809
16600SOL    HW256662   2.812   2.916   0.198 -1.6931 -0.7342 -0.9125
16601SOL     OW56663   3.844   9.451   3.702 -0.0843  0.0737  0.8237
16601SOL    HW156664   3.931   9.491   3.694  0.3733 -1.1273 -0.5061
16601SOL    HW256665   3.845   9.408   3.788  0.1025  1.2347  1.4280
16602SOL     OW56666  10.653   0.385   3.248  0.0051  0.5304  1.2028
16602SOL    HW156667  10.565   0.420   3.264  0.3004  0.9179  1.9977
16602SOL    HW256668  10.709   0.462   3.239  0.0196  0.3344 -0.9218
16603SOL     OW56669   4.384   5.602  12.224 -0.5656 -0.0971 -0.2815
16603SOL    HW156670   4.318   5.588  12.292  0.3859 -1.0315  0.4831
16603SOL    HW256671   4.407   5.695  12.232 -1.6233  0.1898 -0.4300
16604SOL     OW56672   3.104   3.327   3.924 -0.1221 -0.1421  0.2403
16604SOL    HW156673   3.115   3.247   3.872  0.1388 -0.5290  0.8686
16604SOL    HW256674   3.011   3.330   3.944 -0.2097 -0.0334 -0.1862
16605SOL     OW56675  11.163   3.783   0.094 -0.7449  0.0902  0.0173
16605SOL    HW156676  11.230   3.750   0.033 -1.8874  1.5977 -2.2243
16605SOL    HW256677  11.117   3.705   0.125  1.3260 -0.9003  0.8184
16606SOL     OW56678  12.260   4.328   2.792 -0.3838  0.1220  0.6957
16606SOL    HW156679  12.229   4.301   2.705 -0.7581  1.1046  0.5147
16606SOL    HW256680  12.226   4.417   2.804  1.5359  0.9004  0.8797
16607SOL     OW56681  10.086   7.411   9.820 -0.3934 -0.0869 -0.2721
16607SOL    HW156682  10.080   7.316   9.818 -0.7994 -0.0495 -1.0178
16607SOL    HW256683  10.153   7.433   9.755 -0.7113  0.1655 -0.5178
16608SOL     OW56684  10.590  10.447   3.206 -0.2100  0.0101 -0.3108
16608SOL    HW156685  10.529  10.373   3.208 -1.7989  1.2657 -0.2151
16608SOL    HW256686  10.639  10.440   3.288 -0.1917 -1.0406 -0.3984
16609SOL     OW56687   0.680   3.036  12.385 -0.1656  0.1056  0.1468
16609SOL    HW156688   0.699   3.009  12.295  1.1212  1.4385 -0.0201
16609SOL    HW256689   0.627   3.115  12.375  0.0292  0.2876  0.5653
16610SOL     OW56690   9.198   7.065   4.809 -0.2090 -0.5164 -0.1017
16610SOL    HW156691   9.217   7.142   4.757 -1.6408  1.1711  1.7291
16610SOL    HW256692   9.159   7.003   4.748 -1.0542  1.0441 -1.2092
16611SOL     OW56693  10.511   2.555   4.598  0.0279 -0.6985  0.3502
16611SOL    HW156694  10.485   2.499   4.525 -0.9216 -0.4005  0.4499
16611SOL    HW256695  10.534   2.639   4.557 -1.4549 -0.2146  0.4629
16612SOL     OW56696   5.202   7.145   8.375  0.3411 -0.6212  0.1390
16612SOL    HW156697   5.182   7.165   8.283 -0.6275 -1.9411  0.0376
16612SOL    HW256698   5.290   7.108   8.373 -0.1347 -1.7613 -0.4355
16613SOL     OW56699   1.701   3.390   0.344  0.3652 -0.0135 -0.0029
16613SOL    HW156700   1.632   3.335   0.307 -1.1520  0.3278  2.1181
16613SOL    HW256701   1.777   3.333   0.351 -0.4358 -1.1177 -0.1449
16614SOL     OW56702   2.126   9.930   1.412  0.4300  0.2026 -0.3025
16614SOL    HW156703   2.137   9.848   1.461  2.0417  0.6742  0.1856
16614SOL    HW256704   2.174   9.915   1.330 -0.5627  0.1336 -0.8819
16615SOL     OW56705   3.547  10.708   9.460  0.4437 -0.6314 -0.1108
16615SOL    HW156706   3.629  10.744   9.426 -0.0765 -0.6649 -1.4199
16615SOL    HW256707   3.517  10.774   9.523  1.5538 -0.6999  0.5179
16616SOL     OW56708   3.447   5.349   4.268  0.1152  0.2894  0.2254
16616SOL    HW156709   3.360   5.343   4.307  0.7668  0.5496  1.8066
16616SOL    HW256710   3.483   5.261   4.278  0.4288  0.4548  0.5492
16617SOL     OW56711   2.114   7.469   7.572 -0.2976 -0.5179  0.5499
16617SOL    HW156712   2.127   7.544   7.513  1.2786 -0.0531  1.4354
16617SOL    HW256713   2.070   7.507   7.648 -2.4684 -1.1446 -0.3028
16618SOL     OW56714   4.375   4.546   0.294 -0.0074 -0.6572 -0.0340
16618SOL    HW156715   4.462   4.584   0.302 -0.9206  1.6474 -0.3039
16618SOL    HW256716   4.329   4.604   0.233 -1.5640 -2.1667 -0.3829
16619SOL     OW56717  12.426   0.314   3.594  0.1041  0.1780 -0.1280
16619SOL    HW156718  12.392   0.392   3.638 -0.0130  0.7870 -1.2518
16619SOL    HW256719  12.391   0.319   3.505 -1.0720 -1.9157  0.1490
16620SOL     OW56720   8.649   3.728   3.997 -0.5429 -0.1368 -0.1217
16620SOL    HW156721   8.585   3.799   3.995 -1.1223 -0.6347  0.4515
16620SOL    HW256722   8.723   3.764   4.045 -0.4473  0.3857 -0.6462
16621SOL     OW56723   5.894   8.896   1.151  0.3855  0.4684 -0.6176
16621SOL    HW156724   5.941   8.840   1.089 -0.3248 -0.4862 -0.3274
16621SOL    HW256725   5.853   8.834   1.212  2.9242  1.3498  2.2736
16622SOL     OW56726   7.224   9.086   7.793 -0.4907  0.2472 -0.5956
16622SOL    HW156727   7.189   9.006   7.831 -0.2209 -0.6885 -2.2006
16622SOL    HW256728   7.215   9.073   7.698  0.0423  1.8956 -0.9076
16623SOL     OW56729  11.066   4.555   6.982  0.5963 -0.2762  0.2819
16623SOL    HW156730  11.040   4.644   6.958 -0.4791 -0.4915  0.6080
16623SOL    HW256731  11.106   4.519   6.903  0.0463  0.1268 -0.1824
16624SOL     OW56732   6.652   5.795   5.281 -0.4534  0.1590  0.5863
16624SOL    HW156733   6.680   5.806   5.190 -0.2778  0.7610  0.7076
16624SOL    HW256734   6.731   5.768   5.328 -0.4058  0.4280  0.6639
16625SOL     OW56735   4.993   6.878   8.909  0.1181  0.0188 -0.1178
16625SOL    HW156736   5.055   6.875   8.836 -0.0311  0.2501 -0.2527
16625SOL    HW256737   5.028   6.815   8.972 -1.1873 -2.2264 -1.5158
16626SOL     OW56738  12.444  10.126   7.287 -0.2301  0.4446 -0.3487
16626SOL    HW156739  12.441  10.094   7.197  1.1883  2.2413 -1.0995
16626SOL    HW256740  12.388  10.205   7.286 -2.5062 -1.0097  1.0955
16627SOL     OW56741   4.707   6.682   9.035 -0.4077  0.3781 -0.5318
16627SOL    HW156742   4.735   6.614   8.974  2.2286  0.6589  0.2703
16627SOL    HW256743   4.749   6.660   9.118 -1.5914  1.5865  0.4491
16628SOL     OW56744   1.118   2.169   3.816 -0.4385  0.3438 -0.6254
16628SOL    HW156745   1.169   2.249   3.808  2.6519 -1.4270 -0.4047
16628SOL    HW256746   1.148   2.130   3.898 -0.0442 -2.1389 -1.8623
16629SOL     OW56747  10.157   0.688   7.691 -0.7327 -0.9400  0.0566
16629SOL    HW156748  10.205   0.725   7.766  0.1884 -1.4142 -0.2857
16629SOL    HW256749  10.216   0.700   7.617 -0.8781 -2.0964 -0.2611
16630SOL     OW56750   0.790   7.669   6.994  0.3419  0.2504  0.8550
16630SOL    HW156751   0.747   7.703   7.072  0.1703  2.4150 -0.1136
16630SOL    HW256752   0.818   7.747   6.946  0.8362 -1.0163 -1.0368
16631SOL     OW56753   1.267  10.016   3.073 -0.2832 -0.5311 -0.1998
16631SOL    HW156754   1.362  10.021   3.062  0.0548 -1.5527  1.7819
16631SOL    HW256755   1.255   9.968   3.155 -2.5039  0.3678  0.0689
16632SOL     OW56756   7.773   1.966   9.928  0.1101 -0.1022  0.0540
16632SOL    HW156757   7.752   1.881   9.888 -1.6901  0.2452  0.2048
16632SOL    HW256758   7.850   1.948   9.982  2.3249 -0.7220 -3.0482
16633SOL     OW56759   3.937   2.998   2.180 -0.8632  0.0837 -0.0157
16633SOL    HW156760   3.969   3.065   2.240 -0.2747 -0.1177 -0.1029
16633SOL    HW256761   3.928   3.043   2.096 -0.9103  0.1654  0.0331
16634SOL     OW56762  10.091  11.427  11.547  0.3339 -0.7212 -0.6899
16634SOL    HW156763  10.140  11.420  11.628  0.1470 -2.3600 -0.6877
16634SOL    HW256764  10.112  11.514  11.513 -1.4632  1.0222  2.2993
16635SOL     OW56765   6.477  11.072   9.639 -0.8528 -0.2836 -0.1719
16635SOL    HW156766   6.562  11.105   9.611 -1.6905  1.7824 -0.4667
16635SOL    HW256767   6.451  11.130   9.710 -0.7595 -2.6969  1.9915
16636SOL     OW56768   6.790   9.094   1.087 -0.0414 -0.3241 -0.0575
16636SOL    HW156769   6.745   9.141   1.156  1.1529 -0.5833  0.9339
16636SOL    HW256770   6.803   9.006   1.122  1.7435 -0.0978 -0.0509
16637SOL     OW56771   4.449   0.208   3.641  0.2391  0.4727 -1.1754
16637SOL    HW156772   4.361   0.246   3.652  0.4271  0.7610 -0.6527
16637SOL    HW256773   4.433   0.127   3.592 -0.4241  0.0594 -0.3031
16638SOL     OW56774   5.908   9.224   8.985  0.1716  0.3235 -0.2186
16638SOL    HW156775   5.878   9.229   9.075 -0.9139  2.2691 -0.6275
16638SOL    HW256776   5.930   9.314   8.962  1.3992 -0.2820 -1.6008
16639SOL     OW56777  11.139  11.727   3.874  0.3378  0.0646  0.1141
16639SOL    HW156778  11.180  11.740   3.959 -1.6997 -1.2505  1.3504
16639SOL    HW256779  11.105  11.814   3.851 -0.0946  0.1877  1.1758
16640SOL     OW56780   5.722   3.670   2.021 -0.5718 -0.5996  0.5810
16640SOL    HW156781   5.638   3.650   2.062  0.1982 -0.4992  2.3230
16640SOL    HW256782   5.706   3.750   1.971 -1.1832  0.2857  2.1191
16641SOL     OW56783  10.424   1.528   6.332  0.0093 -0.0850 -0.0482
16641SOL    HW156784  10.436   1.443   6.289  0.2595 -0.0968  0.0473
16641SOL    HW256785  10.383   1.507   6.416  1.2340 -0.2243  0.5264
16642SOL     OW56786  11.177   6.488   5.199 -0.3545  0.2391  0.5761
16642SOL    HW156787  11.159   6.577   5.231  1.0454  0.6504  0.2952
16642SOL    HW256788  11.253   6.459   5.249  1.8874  0.8928 -2.1946
16643SOL     OW56789  12.421   5.914   0.037  0.5406 -0.1797 -0.5712
16643SOL    HW156790  12.331   5.931   0.012  0.7963 -1.3595 -2.4829
16643SOL    HW256791  12.456   6.000   0.059 -1.2788  0.1766  1.1786
16644SOL     OW56792   2.825   1.833   3.043 -0.1349  0.3465 -0.1812
16644SOL    HW156793   2.850   1.900   3.107 -0.7838  2.0656 -1.6326
16644SOL    HW256794   2.771   1.772   3.092 -0.3732  1.4473  0.9853
16645SOL     OW56795   5.396  12.383  10.443 -0.5972  0.6819  0.6740
16645SOL    HW156796   5.460  12.403  10.375 -0.8352 -2.8285 -0.7588
16645SOL    HW256797   5.447  12.349  10.516 -0.6215 -2.8832 -0.7603
16646SOL     OW56798   3.831   3.631   1.432  0.4431 -0.2333 -0.3068
16646SOL    HW156799   3.915   3.587   1.420  0.6844  0.2314 -0.3605
16646SOL    HW256800   3.845   3.687   1.509  0.3348  0.2083 -0.6078
16647SOL     OW56801   4.424   0.063  10.323  0.0796 -0.3685 -0.1826
16647SOL    HW156802   4.412   0.088  10.231 -0.5870 -2.0435 -0.6045
16647SOL    HW256803   4.501   0.112  10.352 -0.0217  0.6042 -1.4715
16648SOL     OW56804   1.221   3.024   1.008 -0.0298 -0.9049  0.1904
16648SOL    HW156805   1.298   3.041   0.954 -0.3647  1.5620  0.3589
16648SOL    HW256806   1.171   2.959   0.959  0.9722 -0.7295 -1.1174
16649SOL     OW56807   7.077   6.508   4.941 -0.3909  0.4580  0.0463
16649SOL    HW156808   7.125   6.563   5.003  1.3009 -0.5041 -0.3663
16649SOL    HW256809   7.084   6.420   4.977 -0.0895  0.0066 -1.0737
16650SOL     OW56810  12.350   9.028  12.204 -0.0608  0.4441  0.1732
16650SOL    HW156811  12.378   9.098  12.263 -1.1726 -0.2265  1.5651
16650SOL    HW256812  12.292   9.070  12.142 -1.9105  0.5736  1.8900
16651SOL     OW56813   8.986   3.574  12.018 -0.2911  0.2142 -0.0879
16651SOL    HW156814   8.960   3.655  12.061 -0.3578  0.6326 -0.8941
16651SOL    HW256815   9.015   3.517  12.089  0.8808  1.3575  0.3891
16652SOL     OW56816   9.187   6.011   1.886 -0.4996  0.6855 -0.0129
16652SOL    HW156817   9.126   5.962   1.941 -0.4884  1.0421  0.3234
16652SOL    HW256818   9.229   5.944   1.832  0.4810  0.1390  1.3530
16653SOL     OW56819   6.943  10.423   0.678 -0.8209 -0.0578 -0.4029
16653SOL    HW156820   6.974  10.370   0.605  1.2511  1.5492 -0.8090
16653SOL    HW256821   6.868  10.375   0.713 -0.2864 -2.1764 -1.9538
16654SOL     OW56822   9.647   3.528  11.439  0.3797  0.1580  0.0190
16654SOL    HW156823   9.716   3.594  11.437  1.0140 -0.4345  1.1566
16654SOL    HW256824   9.569   3.573  11.409  1.3799  0.6806 -1.9712
16655SOL     OW56825  12.231   9.920   4.619  0.2645 -0.4723 -0.5730
16655SOL    HW156826  12.275   9.937   4.535  0.4786 -1.5175 -0.6784
16655SOL    HW256827  12.268   9.838   4.650 -4.5431 -3.9301 -2.7656
16656SOL     OW56828   3.132   1.848   3.461  0.1008  0.0198 -0.3970
16656SOL    HW156829   3.052   1.843   3.513  0.8165 -0.6353  0.6798
16656SOL    HW256830   3.162   1.938   3.472  0.3953 -0.1920  0.5611
16657SOL     OW56831   4.403   6.159  11.884  0.2279 -0.5500  0.3648
16657SOL    HW156832   4.452   6.083  11.851 -0.0511 -0.6660  0.2134
16657SOL    HW256833   4.392   6.215  11.807 -2.1062 -1.7051 -0.2346
16658SOL     OW56834   1.291  11.315   9.483 -0.1023  0.7193  0.0844
16658SOL    HW156835   1.278  11.374   9.557  0.8775 -0.6734  1.4470
16658SOL    HW256836   1.202  11.291   9.457 -0.4746  1.0408  0.9870
16659SOL     OW56837   4.126   5.483   2.833  0.0235 -0.1900  0.0171
16659SOL    HW156838   4.081   5.559   2.870 -1.0311 -1.3914  1.3036
16659SOL    HW256839   4.057   5.419   2.818  1.0186 -1.2970 -0.0143
16660SOL     OW56840  10.452   0.594   0.467  0.1690 -0.2153 -0.7814
16660SOL    HW156841  10.478   0.506   0.438 -2.0344 -1.3956  0.4937
16660SOL    HW256842  10.356   0.592   0.463  0.0513  1.8393  0.1427
16661SOL     OW56843   8.424   4.946   5.714 -0.1074  0.5622  0.4341
16661SOL    HW156844   8.454   4.945   5.805  0.2975  1.4159  0.3167
16661SOL    HW256845   8.471   5.019   5.674  0.6028 -0.5174 -0.7626
16662SOL     OW56846   7.568  10.258   4.039 -0.2767  0.4246 -0.0367
16662SOL    HW156847   7.622  10.216   4.107 -1.1149 -1.7979 -0.6399
16662SOL    HW256848   7.493  10.293   4.086 -0.1493  0.1808  0.3500
16663SOL     OW56849   0.322  11.929   2.095  0.1118 -0.2887  0.1791
16663SOL    HW156850   0.314  12.002   2.034  1.2611 -0.5290 -0.2791
16663SOL    HW256851   0.336  11.971   2.180 -1.0094  0.0373  0.2195
16664SOL     OW56852   3.317  11.001   7.729 -0.2458 -0.3417 -0.1885
16664SOL    HW156853   3.343  10.911   7.745 -0.1765 -0.3860 -0.5518
16664SOL    HW256854   3.371  11.053   7.789 -0.4569 -0.5542  0.1945
16665SOL     OW56855   5.045  10.301   3.751 -0.1967 -0.2605 -0.4207
16665SOL    HW156856   5.011  10.264   3.670  0.8489 -0.1787 -0.9184
16665SOL    HW256857   5.041  10.228   3.813 -1.5730 -0.1539 -0.3493
16666SOL     OW56858  12.313   6.423  11.406  0.4003  0.5383 -0.3732
16666SOL    HW156859  12.367   6.380  11.339 -0.1233 -1.0133  0.1665
16666SOL    HW256860  12.265   6.491  11.358 -1.3540 -1.7062 -2.0220
16667SOL     OW56861  10.933   1.062   9.027  0.2390  0.1066  0.5461
16667SOL    HW156862  10.897   0.978   8.997 -0.3627  0.4448  0.3003
16667SOL    HW256863  10.957   1.107   8.946  2.1111 -0.4788  0.7296
16668SOL     OW56864   3.679   7.838  11.266 -0.1996 -0.5648 -0.2160
16668SOL    HW156865   3.711   7.752  11.293 -0.8823 -0.4334  1.0435
16668SOL    HW256866   3.730   7.858  11.187 -0.6774 -2.5103 -1.0671
16669SOL     OW56867  10.828   0.695   7.881  0.4682  0.3258  0.3868
16669SOL    HW156868  10.908   0.652   7.910  0.7314  0.6736  0.1836
16669SOL    HW256869  10.776   0.705   7.961 -0.2473 -1.6844  0.2185
16670SOL     OW56870   5.854   6.878   9.964  0.6646  0.7147  0.1117
16670SOL    HW156871   5.882   6.787   9.956 -0.7735  0.2151  0.4760
16670SOL    HW256872   5.782   6.876  10.028  0.7793  2.1391  0.3188
16671SOL     OW56873  11.673   9.996   8.698 -0.0869  0.2961 -0.2798
16671SOL    HW156874  11.748   9.997   8.757  0.0194 -0.4372 -0.3925
16671SOL    HW256875  11.625  10.076   8.718  0.0804  0.1768  0.6290
16672SOL     OW56876  10.285   2.966  11.932 -0.3682 -0.0479 -0.1702
16672SOL    HW156877  10.237   2.906  11.875  0.7730 -0.5030 -0.6783
16672SOL    HW256878  10.334   2.910  11.991 -0.8929  0.4201  0.7284
16673SOL     OW56879  10.558   2.208   3.217  0.0941 -0.3934 -0.2270
16673SOL    HW156880  10.565   2.114   3.201 -0.8677 -0.3973 -0.6954
16673SOL    HW256881  10.635   2.245   3.174 -1.0960 -0.6719 -2.7934
16674SOL     OW56882   1.782  11.444  12.077  0.0223  0.1289 -0.5704
16674SOL    HW156883   1.720  11.384  12.035  1.5414 -1.8104 -0.2317
16674SOL    HW256884   1.846  11.386  12.120  0.8486  2.0184  0.9310
16675SOL     OW56885   6.576   8.532   2.060  0.4003 -0.6791  0.1322
16675SOL    HW156886   6.554   8.599   2.125 -2.5820  0.5286 -1.9008
16675SOL    HW256887   6.509   8.465   2.072  0.0124 -0.5906 -1.4145
16676SOL     OW56888   6.153   3.767   6.897  0.0813  0.2519  0.7684
16676SOL    HW156889   6.061   3.739   6.893  0.3846 -0.7603  0.5761
16676SOL    HW256890   6.159   3.819   6.977 -0.6211  0.1885  0.8668
16677SOL     OW56891   6.227   0.280   7.351 -0.1369  0.0809  0.1002
16677SOL    HW156892   6.279   0.349   7.309  0.8686 -0.7822 -0.1318
16677SOL    HW256893   6.276   0.200   7.334 -0.3247 -0.4699  1.8928
16678SOL     OW56894   7.241  12.239   3.160 -0.6558 -0.1842 -0.2423
16678SOL    HW156895   7.267  12.176   3.093  0.0492  0.2808 -0.4109
16678SOL    HW256896   7.184  12.189   3.218  0.5028 -1.2007  0.0594
16679SOL     OW56897   9.337   5.513   0.353 -0.0831 -0.6125  0.2038
16679SOL    HW156898   9.328   5.608   0.345  0.5405 -0.5882 -0.2625
16679SOL    HW256899   9.431   5.497   0.356 -0.1512 -1.2780 -0.5990
16680SOL     OW56900   9.832   7.319  11.078  0.0957  0.0519 -0.1743
16680SOL    HW156901   9.884   7.389  11.118 -0.0699 -0.2330  0.5666
16680SOL    HW256902   9.872   7.305  10.992 -0.4730  1.7051 -0.7338
16681SOL     OW56903   4.666  10.999  11.452 -0.0328 -0.0950 -0.5503
16681SOL    HW156904   4.689  10.979  11.542 -1.3493  0.3233 -0.0891
16681SOL    HW256905   4.688  11.091  11.441 -1.8326  0.4423  0.0486
16682SOL     OW56906   7.276  10.003   1.366 -0.7848  0.1579  0.0857
16682SOL    HW156907   7.334  10.071   1.331 -0.9167  0.2247 -0.0032
16682SOL    HW256908   7.274   9.936   1.297 -0.4408 -0.0611  0.2850
16683SOL     OW56909  10.362  11.860   6.673 -0.1106  0.1960 -0.0178
16683SOL    HW156910  10.455  11.843   6.664 -0.4683 -2.6600  0.6918
16683SOL    HW256911  10.325  11.839   6.587 -0.2265  0.3322 -0.0017
16684SOL     OW56912   5.907   2.987  10.559 -0.0381 -0.2924  0.2806
16684SOL    HW156913   5.910   3.001  10.654  0.0198 -0.0227  0.2410
16684SOL    HW256914   5.886   2.894  10.548  1.4616 -0.6958  0.5610
16685SOL     OW56915   1.287   2.007   0.044  0.3139 -0.0779 -0.2877
16685SOL    HW156916   1.195   2.024   0.064 -0.2662 -1.6595 -1.3973
16685SOL    HW256917   1.298   2.039  -0.045  0.7713 -0.1163 -0.2438
16686SOL     OW56918   6.928   3.510   3.019 -0.1166  0.5078 -0.8254
16686SOL    HW156919   6.850   3.542   3.063 -0.6919 -0.6031 -0.9868
16686SOL    HW256920   6.918   3.537   2.928 -0.1527  0.6378 -0.7829
16687SOL     OW56921  11.299   7.719   6.959 -0.1466 -0.2549 -0.1751
16687SOL    HW156922  11.231   7.653   6.954  1.1171 -1.5144 -2.1176
16687SOL    HW256923  11.378   7.671   6.985  0.1910  1.0534  1.3949
16688SOL     OW56924   1.917   5.132   4.700  0.2308  0.3310 -0.3004
16688SOL    HW156925   1.843   5.181   4.664 -0.0055 -0.0263 -0.3004
16688SOL    HW256926   1.878   5.070   4.761  0.5299  0.1314 -0.3099
16689SOL     OW56927  10.677   8.069  10.765 -0.1990 -0.2885 -0.3961
16689SOL    HW156928  10.705   8.047  10.854  0.4186 -1.4131 -0.8456
16689SOL    HW256929  10.748   8.124  10.731  0.0232 -0.6475 -0.5146
16690SOL     OW56930   5.608   2.765   3.605  0.1299 -0.0390  0.4781
16690SOL    HW156931   5.628   2.857   3.623  1.1560  0.3371 -2.1387
16690SOL    HW256932   5.530   2.767   3.550 -0.3620 -0.8399  1.1045
16691SOL     OW56933   3.951   2.679  10.600  0.3177 -0.1695  0.8049
16691SOL    HW156934   4.021   2.648  10.657  1.2999  0.7583  0.1360
16691SOL    HW256935   3.994   2.697  10.516 -0.6496  0.7351  0.4795
16692SOL     OW56936   7.075   1.641   9.704 -0.2030  0.6900 -0.5316
16692SOL    HW156937   7.057   1.697   9.779 -0.6100 -0.2976  0.1290
16692SOL    HW256938   6.992   1.597   9.686 -0.0864  0.8527 -1.5150
16693SOL     OW56939   2.188   2.795   2.447 -0.8201  0.2300 -0.0114
16693SOL    HW156940   2.138   2.800   2.528 -0.6864 -0.3779  0.1078
16693SOL    HW256941   2.261   2.737   2.467 -0.5094  0.4741 -0.4228
16694SOL     OW56942   9.614   3.747   3.562  0.4676 -0.1673  0.0180
16694SOL    HW156943   9.546   3.681   3.576  0.7553  0.0731  3.7138
16694SOL    HW256944   9.686   3.699   3.519 -0.2825 -1.6095  0.2982
16695SOL     OW56945   7.588  10.315   2.997  0.5846 -0.0209  0.0338
16695SOL    HW156946   7.652  10.386   2.999 -0.0958  0.5983  0.3203
16695SOL    HW256947   7.586  10.286   2.906  0.0416  1.1008 -0.3199
16696SOL     OW56948   2.227   7.551   2.945  0.2348  0.0695 -0.4410
16696SOL    HW156949   2.188   7.465   2.962 -0.7852  0.7209  0.6886
16696SOL    HW256950   2.153   7.611   2.943  1.0607  1.1872  0.6314
16697SOL     OW56951   3.683   3.489   6.588 -0.0397  0.2175 -0.1909
16697SOL    HW156952   3.613   3.531   6.539  1.2007  0.4578 -1.8631
16697SOL    HW256953   3.640   3.449   6.663 -1.9561  0.3372 -1.1744
16698SOL     OW56954   1.875   9.269   2.037  0.2908 -0.5417  0.3168
16698SOL    HW156955   1.934   9.341   2.019  0.8127 -0.7978  0.9518
16698SOL    HW256956   1.905   9.198   1.981 -1.1520  0.1710 -1.4344
16699SOL     OW56957   5.962   4.510   7.929  0.0453 -0.1037  0.6164
16699SOL    HW156958   5.927   4.460   8.003 -1.7171  1.7105  1.1271
16699SOL    HW256959   6.048   4.540   7.958  0.7037 -1.9545  0.6718
16700SOL     OW56960   1.645   0.220   2.117  0.3443 -0.0188  0.1061
16700SOL    HW156961   1.567   0.269   2.090  0.6015  1.2843  1.6015
16700SOL    HW256962   1.610   0.142   2.160 -0.2000  0.9239  1.4581
16701SOL     OW56963  10.672  11.285   6.276 -0.3494 -0.1439  0.0829
16701SOL    HW156964  10.602  11.227   6.246  0.0080  0.1089 -1.3020
16701SOL    HW256965  10.687  11.344   6.202 -0.3080  1.3567  1.2380
16702SOL     OW56966  11.010   0.445  11.542 -0.1263 -0.0516 -0.0350
16702SOL    HW156967  11.043   0.534  11.547  1.0652 -0.2144 -3.0062
16702SOL    HW256968  10.925   0.453  11.498  0.7447 -0.4584 -1.8721
16703SOL     OW56969  12.340   2.624   6.556 -0.1066 -0.2437  0.2429
16703SOL    HW156970  12.412   2.649   6.614 -0.0439 -0.5421  0.2952
16703SOL    HW256971  12.264   2.673   6.589  0.2406  0.6911 -0.2995
16704SOL     OW56972   3.704  11.056   0.824  0.0960 -0.5451  0.5278
16704SOL    HW156973   3.757  11.005   0.763  0.4009 -0.7094  0.9329
16704SOL    HW256974   3.755  11.135   0.840  0.0684 -0.5543  0.6612
16705SOL     OW56975   0.426   4.941   9.294 -0.0383  0.2692  0.5524
16705SOL    HW156976   0.365   4.934   9.367  0.6464 -1.0483  1.0547
16705SOL    HW256977   0.452   5.033   9.291 -1.3259  0.6525  0.9100
16706SOL     OW56978   2.336   8.513   8.163  0.3349  0.1702  0.6730
16706SOL    HW156979   2.271   8.580   8.183  0.3013  0.2663  0.2394
16706SOL    HW256980   2.401   8.557   8.109 -0.4713 -0.5100 -0.9152
16707SOL     OW56981   6.178   9.382  11.481  0.6723  0.6051 -0.0124
16707SOL    HW156982   6.123   9.460  11.489 -0.4825 -0.1806 -0.0925
16707SOL    HW256983   6.137   9.330  11.411  1.6746  0.1233 -0.2640
16708SOL     OW56984  10.542  11.267   4.935 -0.5762 -0.3504  0.3108
16708SOL    HW156985  10.606  11.257   5.005 -0.6796  0.0141  0.4596
16708SOL    HW256986  10.465  11.303   4.978  0.0428  1.8945 -0.3059
16709SOL     OW56987   1.677   1.007  11.482  0.3558 -0.2767 -0.2763
16709SOL    HW156988   1.670   0.916  11.453  0.6436 -0.1402 -0.7791
16709SOL    HW256989   1.710   1.000  11.572 -0.1727 -0.6853 -0.1078
16710SOL     OW56990  10.300  12.333   2.186  0.2365 -0.4161  0.3908
16710SOL    HW156991  10.363  12.327   2.115  0.2187 -0.2408  0.3592
16710SOL    HW256992  10.224  12.283   2.156 -0.9111  1.9755 -0.9283
16711SOL     OW56993   3.716   4.774   8.818 -0.7148 -0.0254 -0.5300
16711SOL    HW156994   3.719   4.697   8.762 -0.8316  0.1997 -0.8478
16711SOL    HW256995   3.672   4.745   8.898 -0.7519 -0.2850 -0.6467
16712SOL     OW56996   6.080   0.814  10.654  0.4041  0.0685  0.0379
16712SOL    HW156997   6.024   0.820  10.577 -2.0439 -1.0894  1.6150
16712SOL    HW256998   6.098   0.720  10.663 -0.4640  0.0291  1.6035
16713SOL     OW56999  10.700   0.606   8.666 -0.2406  0.0685  0.3653
16713SOL    HW157000  10.689   0.687   8.615 -1.1773  0.2527  0.8461
16713SOL    HW257001  10.789   0.577   8.644  0.2574  1.4133  0.4438
16714SOL     OW57002  10.970   8.666   2.389 -0.0094 -0.4239 -0.0759
16714SOL    HW157003  10.987   8.728   2.459  0.3258  0.8478 -1.2288
16714SOL    HW257004  11.057   8.646   2.353 -0.3435  2.0120 -2.5990
16715SOL     OW57005   0.969   6.688   2.963 -0.2013  0.3460  0.3558
16715SOL    HW157006   0.995   6.617   2.904  0.2873  0.0120  0.9664
16715SOL    HW257007   1.045   6.746   2.964  0.4109 -0.4319  1.8458
16716SOL     OW57008   7.567   1.947   6.827 -0.1977 -0.0216 -0.0710
16716SOL    HW157009   7.491   2.002   6.845  1.6039  3.3995 -1.7563
16716SOL    HW257010   7.566   1.935   6.732  0.8301 -0.7224 -0.0076
16717SOL     OW57011  12.212   5.433   4.511  0.0729  0.0726 -0.0291
16717SOL    HW157012  12.235   5.340   4.506 -0.7651 -0.0915 -3.3174
16717SOL    HW257013  12.119   5.434   4.531  0.0292  0.1749 -0.2333
16718SOL     OW57014  11.944   1.102   9.231 -0.1330 -0.1995 -0.0268
16718SOL    HW157015  11.851   1.122   9.240 -0.7234 -2.3172 -0.8464
16718SOL    HW257016  11.988   1.186   9.245 -2.1053  0.7297  1.0312
16719SOL     OW57017   8.282   5.514   0.655  0.0315 -0.0683 -0.0390
16719SOL    HW157018   8.238   5.443   0.609 -1.0353  0.6480 -0.1593
16719SOL    HW257019   8.212   5.575   0.678  0.9501  1.0931 -0.1995
16720SOL     OW57020   6.643   4.438   5.721  0.2235  0.4001  0.0730
16720SOL    HW157021   6.718   4.435   5.780 -1.3897  3.9070  2.7012
16720SOL    HW257022   6.654   4.520   5.673 -0.1812 -0.8162 -2.2287
16721SOL     OW57023   5.545   0.752   4.501  0.1729 -0.0713 -0.3973
16721SOL    HW157024   5.536   0.658   4.487  1.2074 -0.2309 -0.0823
16721SOL    HW257025   5.561   0.761   4.595  1.4875  0.2891 -0.6348
16722SOL     OW57026   2.743   3.955   8.575  0.1368  0.1237  0.1010
16722SOL    HW157027   2.837   3.937   8.571  0.0036 -0.3686 -1.7083
16722SOL    HW257028   2.721   3.949   8.668  1.5139 -1.6997  0.3519
16723SOL     OW57029   2.045   5.947   2.784 -0.7624  0.5590  0.3156
16723SOL    HW157030   2.001   5.922   2.703 -0.6433 -0.8306  0.6625
16723SOL    HW257031   1.974   5.979   2.841 -1.0496  0.1557  0.1858
16724SOL     OW57032   3.539   4.891   4.624  0.0811  0.6526  0.6096
16724SOL    HW157033   3.459   4.840   4.614 -0.3151  1.4979 -0.8540
16724SOL    HW257034   3.563   4.881   4.716 -1.1957 -0.3539  0.8552
16725SOL     OW57035   8.438   9.950   5.479 -0.7653 -0.4432 -0.2666
16725SOL    HW157036   8.496   9.959   5.555  1.0478 -2.8591 -1.2472
16725SOL    HW257037   8.460   9.865   5.442 -4.2867 -1.0445 -1.3227
16726SOL     OW57038  12.139   6.030   6.741 -0.2455  0.2131 -0.4113
16726SOL    HW157039  12.191   6.098   6.698  1.7080 -1.3108 -0.6012
16726SOL    HW257040  12.110   5.974   6.669  0.2468 -0.5006 -0.0687
16727SOL     OW57041   0.252   8.618   3.528  0.6373  0.3586  0.5965
16727SOL    HW157042   0.322   8.584   3.584 -0.4128 -1.0677  1.1168
16727SOL    HW257043   0.282   8.601   3.439  1.4754  0.8690  0.7682
16728SOL     OW57044   6.761   2.117  10.758 -0.0348 -0.1187 -0.1929
16728SOL    HW157045   6.704   2.168  10.815  1.3935  0.0522  1.1269
16728SOL    HW257046   6.706   2.045  10.727 -1.0960  0.3168  0.6244
16729SOL     OW57047   7.978  10.096   9.913 -0.7853 -0.2591 -0.4435
16729SOL    HW157048   8.026  10.035   9.970  0.2879 -0.6027 -1.6616
16729SOL    HW257049   7.969  10.175   9.966  0.9066 -0.2789 -0.0409
16730SOL     OW57050   5.784   7.622   5.630  0.5230 -0.4126  0.1711
16730SOL    HW157051   5.736   7.599   5.551 -0.5097 -1.2648  1.0116
16730SOL    HW257052   5.809   7.713   5.618  1.2853 -0.8199 -1.5645
16731SOL     OW57053  10.540  10.166   3.996 -0.3022  0.2938  0.3264
16731SOL    HW157054  10.556  10.136   3.907  2.0028  0.3824  0.6628
16731SOL    HW257055  10.453  10.206   3.992 -0.6686 -0.5859 -1.6240
16732SOL     OW57056   1.022   1.040   4.049 -0.3265  0.1141  0.3077
16732SOL    HW157057   1.117   1.046   4.060 -0.2090 -0.3951 -0.3467
16732SOL    HW257058   1.007   1.060   3.957 -0.8677  0.2875  0.4284
16733SOL     OW57059   9.330   2.902   6.716  0.4433  0.5049  0.4060
16733SOL    HW157060   9.292   2.983   6.750  1.2362  1.6816 -1.3352
16733SOL    HW257061   9.297   2.896   6.627  0.3903 -1.1252  0.5149
16734SOL     OW57062  12.002   8.727   1.549  0.0523 -0.7068  0.0958
16734SOL    HW157063  11.934   8.794   1.550  0.4678 -0.2323  2.4928
16734SOL    HW257064  12.003   8.695   1.459 -2.9332 -0.3617 -0.1357
16735SOL     OW57065  10.405   7.467  12.274  0.3221 -0.0725 -0.7151
16735SOL    HW157066  10.490   7.475  12.317  0.1755 -1.0657 -0.2274
16735SOL    HW257067  10.347   7.433  12.341 -0.4679  0.5605 -1.0558
16736SOL     OW57068   4.534  10.514   6.887 -0.4186 -0.1924 -0.3689
16736SOL    HW157069   4.551  10.577   6.817  3.9403  1.3099  1.6356
16736SOL    HW257070   4.489  10.566   6.954  1.4407  0.3646  0.5083
16737SOL     OW57071   0.688  10.755  11.743  0.2429  0.2316 -0.6820
16737SOL    HW157072   0.758  10.794  11.690  0.7701 -1.5735 -1.3975
16737SOL    HW257073   0.672  10.670  11.703 -0.6559 -0.4302  0.9698
16738SOL     OW57074   2.683   2.719  11.486 -0.1226  0.1228 -0.1365
16738SOL    HW157075   2.691   2.635  11.440 -1.9250  0.1990 -0.6549
16738SOL    HW257076   2.606   2.709  11.541  1.2137  0.5241  1.9182
16739SOL     OW57077  10.417   6.322   1.424 -0.4200 -0.3978  0.0662
16739SOL    HW157078  10.430   6.394   1.362 -1.7148 -1.2126 -1.2354
16739SOL    HW257079  10.505   6.298   1.453  0.0710  1.2514  0.0124
16740SOL     OW57080   9.193  12.430   1.337 -0.0381  0.0462 -0.0077
16740SOL    HW157081   9.205  12.495   1.268  1.0299 -1.1803 -1.0397
16740SOL    HW257082   9.119  12.377   1.307  0.6309 -0.6865 -0.3954
16741SOL     OW57083   5.979   2.130   5.517  0.0552 -0.3175  0.1414
16741SOL    HW157084   6.067   2.118   5.552 -0.2205  0.5892  1.2047
16741SOL    HW257085   5.923   2.080   5.576 -0.2078 -0.3930 -0.1731
16742SOL     OW57086   0.840   9.690  11.878 -0.3967  0.4297 -0.2651
16742SOL    HW157087   0.766   9.750  11.867  1.1466  2.1242 -1.9158
16742SOL    HW257088   0.812   9.609  11.835 -1.4973  0.8344 -0.3435
16743SOL     OW57089   4.657   8.904   1.325  0.4535 -0.1327 -0.2237
16743SOL    HW157090   4.586   8.862   1.277  1.6048 -2.0641 -0.3435
16743SOL    HW257091   4.707   8.950   1.259 -1.2528  2.2316  0.0085
16744SOL     OW57092  11.139   6.513   3.642  0.8342  0.0163 -0.4242
16744SOL    HW157093  11.226   6.485   3.616  1.9185  0.5499  2.2711
16744SOL    HW257094  11.112   6.449   3.708  0.1503  1.0896  0.3742
16745SOL     OW57095   3.465   9.172   6.021 -0.1824 -0.7284 -0.1021
16745SOL    HW157096   3.530   9.240   6.037 -1.7909  0.8434 -0.0289
16745SOL    HW257097   3.386   9.202   6.066 -1.1737 -2.2812 -0.7037
16746SOL     OW57098   1.189   5.659   5.252  0.3153 -0.2589 -0.4054
16746SOL    HW157099   1.167   5.598   5.323 -0.1734  0.6130  0.2030
16746SOL    HW257100   1.106   5.674   5.206  0.2638  0.5757 -0.0491
16747SOL     OW57101  10.336   4.921   9.172  0.1739  0.4598 -0.3640
16747SOL    HW157102  10.401   4.890   9.109  0.3303  0.8783 -0.4162
16747SOL    HW257103  10.383   4.986   9.225  0.5799 -1.2282  1.4421
16748SOL     OW57104   0.087   3.692  10.678 -0.1697  0.0648 -0.1285
16748SOL    HW157105   0.123   3.726  10.761 -1.1844 -1.0289  0.7937
16748SOL    HW257106  -0.007   3.694  10.691 -0.2892 -1.8140 -0.5644
16749SOL     OW57107   4.149  10.196   9.949 -0.0440 -0.6434  0.5661
16749SOL    HW157108   4.225  10.194  10.007  0.1594 -1.9411  0.2746
16749SOL    HW257109   4.074  10.205  10.008  0.3288  1.3223  0.8216
16750SOL     OW57110   4.359   1.568  11.036 -0.3941 -0.6383  0.7180
16750SOL    HW157111   4.384   1.594  10.947  0.6596 -0.5039  1.0314
16750SOL    HW257112   4.404   1.484  11.049  2.6408  1.0762  2.4174
16751SOL     OW57113   8.602   9.626   0.144 -0.0010  0.3501  0.2610
16751SOL    HW157114   8.533   9.687   0.171  1.1476  1.0572  1.7215
16751SOL    HW257115   8.681   9.680   0.139  0.6998 -0.6883 -0.1813
16752SOL     OW57116   5.564   9.092   4.064  0.0316  0.0124 -0.6730
16752SOL    HW157117   5.617   9.161   4.025 -2.4340  0.8504 -2.8773
16752SOL    HW257118   5.542   9.035   3.991 -1.3390 -0.7883  0.3203
16753SOL     OW57119   3.459   8.178  10.836  0.6463  0.5413  0.1561
16753SOL    HW157120   3.377   8.218  10.866  0.6559  1.5222 -1.0556
16753SOL    HW257121   3.501   8.147  10.916 -1.7178 -1.6406  0.6860
16754SOL     OW57122  11.485   9.721   6.690  0.2178 -0.0727  0.3002
16754SOL    HW157123  11.475   9.634   6.653 -1.1347 -0.0792  0.6381
16754SOL    HW257124  11.564   9.756   6.649  1.2917 -1.7805  0.8320
16755SOL     OW57125  10.169   4.592   5.725  0.3418  0.0322 -0.6075
16755SOL    HW157126  10.097   4.563   5.670  0.5301 -1.7431  0.0266
16755SOL    HW257127  10.189   4.681   5.694 -1.9711  0.5062 -0.9008
16756SOL     OW57128   9.813   2.798  10.534  0.3964  0.3252  0.3001
16756SOL    HW157129   9.870   2.734  10.576  1.5954 -0.5876 -2.4962
16756SOL    HW257130   9.731   2.750  10.518 -0.0668  0.6784  1.4862
16757SOL     OW57131   8.392   7.007   5.535 -0.1574  0.4628  0.5616
16757SOL    HW157132   8.305   7.029   5.500 -0.5572 -2.3031 -0.3858
16757SOL    HW257133   8.452   7.060   5.483 -1.0740 -0.0698 -1.1090
16758SOL     OW57134   4.352   9.020   0.484  0.0851  0.0333  0.2135
16758SOL    HW157135   4.315   9.082   0.420 -1.1394 -0.9526 -0.0818
16758SOL    HW257136   4.378   8.944   0.431 -0.5640 -0.6255  0.8102
16759SOL     OW57137   2.239   4.385   0.140  0.1827  0.4259 -0.2018
16759SOL    HW157138   2.162   4.442   0.145 -0.1760 -0.0347 -0.3874
16759SOL    HW257139   2.312   4.441   0.164 -0.3557  0.5662  1.2415
16760SOL     OW57140   5.776   2.589   8.140 -0.0783 -0.2480  0.1340
16760SOL    HW157141   5.752   2.549   8.056 -0.1276  0.3995 -0.1650
16760SOL    HW257142   5.748   2.680   8.132 -0.9270 -0.3871  1.1944
16761SOL     OW57143   9.279  12.276   9.207 -0.1489 -0.0471  0.1152
16761SOL    HW157144   9.265  12.246   9.297 -0.3088  0.5629  0.2944
16761SOL    HW257145   9.195  12.265   9.164 -0.0975 -0.2494  0.0660
16762SOL     OW57146   3.828  11.341   9.471  1.0302 -0.3037  0.1511
16762SOL    HW157147   3.799  11.346   9.562  1.1789 -2.0410  0.3249
16762SOL    HW257148   3.854  11.250   9.459 -0.5865 -0.5584 -2.1013
16763SOL     OW57149  11.659   8.468   4.526 -0.3456  0.1473 -0.1358
16763SOL    HW157150  11.640   8.515   4.445 -0.7021  2.8172  1.3794
16763SOL    HW257151  11.633   8.378   4.508 -1.0257  0.7792 -2.7429
16764SOL     OW57152   9.549   3.271   0.867  0.2071  0.4035 -0.4168
16764SOL    HW157153   9.532   3.177   0.855 -3.3096  1.0446 -1.6982
16764SOL    HW257154   9.492   3.295   0.940 -1.6936  2.0793 -2.3246
16765SOL     OW57155   7.406   6.853   3.202  0.3681  0.4334 -0.5270
16765SOL    HW157156   7.407   6.764   3.237  0.9955  0.4095 -0.5896
16765SOL    HW257157   7.372   6.845   3.113 -0.7092  0.4190 -0.1242
16766SOL     OW57158  12.151   7.241  12.386 -0.5143 -0.1610  0.6093
16766SOL    HW157159  12.112   7.156  12.406 -0.0523 -0.4167  0.4211
16766SOL    HW257160  12.197   7.266  12.466  0.6511 -0.8096  0.1659
16767SOL     OW57161   6.780   0.693   2.551 -0.1658 -0.2869 -0.0807
16767SOL    HW157162   6.818   0.734   2.628  0.1852 -0.1755 -0.3110
16767SOL    HW257163   6.842   0.624   2.527  1.3305  1.6210 -2.0661
16768SOL     OW57164   9.656   2.884   9.335  0.0122  0.0039  0.1785
16768SOL    HW157165   9.608   2.824   9.391  1.1474 -1.7206 -0.6116
16768SOL    HW257166   9.738   2.902   9.383 -0.0156  0.3759  0.0935
16769SOL     OW57167   1.089  11.222   8.733 -0.3999  0.3275 -0.2395
16769SOL    HW157168   1.006  11.184   8.764  0.4960 -0.1533  1.6897
16769SOL    HW257169   1.062  11.295   8.677 -2.1282 -0.6529 -0.7624
16770SOL     OW57170   2.551   8.368  10.656  0.1667  0.4354  0.1653
16770SOL    HW157171   2.568   8.458  10.631 -0.4310 -0.1964 -2.8283
16770SOL    HW257172   2.604   8.315  10.597 -0.5812 -1.2189  0.8845
16771SOL     OW57173   4.123  10.820  11.493 -0.4872 -0.0638 -0.4794
16771SOL    HW157174   4.135  10.908  11.527 -0.1801 -0.7392  1.3309
16771SOL    HW257175   4.030  10.814  11.471 -1.2401 -0.1577  2.3049
16772SOL     OW57176   2.175   6.208   3.008  0.8439  0.1279  0.5229
16772SOL    HW157177   2.131   6.172   2.931 -0.4659  0.6013  1.0218
16772SOL    HW257178   2.184   6.134   3.068 -1.2973  0.4505  1.3045
16773SOL     OW57179   5.330   5.870   9.137 -0.1613 -0.6108 -0.0846
16773SOL    HW157180   5.251   5.904   9.094  0.4978  1.0969 -0.0263
16773SOL    HW257181   5.297   5.804   9.198 -1.8265  1.3518  1.3096
16774SOL     OW57182   4.653   9.652   1.479 -0.4852 -0.2395  0.0161
16774SOL    HW157183   4.632   9.745   1.490 -1.1651 -0.3729 -0.0791
16774SOL    HW257184   4.622   9.630   1.391  1.4442 -0.1044 -0.7448
16775SOL     OW57185   5.656   0.107   8.844 -0.3277 -0.3189 -0.3944
16775SOL    HW157186   5.628   0.053   8.918 -0.1141  1.7436  1.2847
16775SOL    HW257187   5.590   0.177   8.840  0.6151  0.5493 -1.0484
16776SOL     OW57188  11.143  10.592   9.156  0.6598 -0.5325  0.2001
16776SOL    HW157189  11.193  10.672   9.171 -2.4224  1.7288 -0.5646
16776SOL    HW257190  11.118  10.563   9.243  1.5877 -0.5293  0.4767
16777SOL     OW57191  10.529   2.660   3.974 -0.5088  0.0747 -0.3405
16777SOL    HW157192  10.505   2.580   3.927 -0.4010  0.8715 -1.8182
16777SOL    HW257193  10.500   2.644   4.064 -0.4797 -1.6178 -0.5935
16778SOL     OW57194   2.575   4.333   1.515  0.2656 -0.6780  0.1505
16778SOL    HW157195   2.546   4.249   1.480  0.6663 -0.4438 -0.7907
16778SOL    HW257196   2.519   4.398   1.472  0.2083 -0.4367  0.5843
16779SOL     OW57197   8.053   0.315   7.790 -0.0985 -0.1772 -0.5530
16779SOL    HW157198   8.042   0.247   7.857  0.4957  0.7329  0.4974
16779SOL    HW257199   8.109   0.380   7.831 -0.4502  0.8349 -1.6294
16780SOL     OW57200   3.032  10.790  10.182  0.3417  0.1403  0.1969
16780SOL    HW157201   2.996  10.785  10.271  1.4603 -1.3154  0.6075
16780SOL    HW257202   3.054  10.883  10.171 -1.3478  0.6544  0.7792
16781SOL     OW57203   4.616   9.091   6.107  0.1781  0.2920  0.2062
16781SOL    HW157204   4.672   9.023   6.144  1.9401  1.0657 -0.8935
16781SOL    HW257205   4.678   9.154   6.069 -1.4451  1.5776 -0.3971
16782SOL     OW57206  12.260  11.802   6.959 -0.1847 -0.1769 -0.0555
16782SOL    HW157207  12.340  11.750   6.965 -0.5785 -0.7477  0.3803
16782SOL    HW257208  12.265  11.845   6.874 -0.4560 -1.9498 -1.0166
16783SOL     OW57209  10.340   4.414   1.783  0.6789  0.3998  0.0749
16783SOL    HW157210  10.436   4.410   1.782  0.6577 -2.4868 -0.3784
16783SOL    HW257211  10.313   4.357   1.711 -1.4511  2.9147 -1.2906
16784SOL     OW57212   7.275  11.621  12.482  0.6175  0.0420  0.0172
16784SOL    HW157213   7.278  11.532  12.517  2.5348  0.1049  0.0759
16784SOL    HW257214   7.252  11.676  12.556  0.1169 -0.3188  0.1330
16785SOL     OW57215   0.886   4.097   0.592  0.7607 -0.0766 -0.6635
16785SOL    HW157216   0.966   4.075   0.639  0.5111  0.8722  0.2381
16785SOL    HW257217   0.896   4.188   0.566 -0.7875  0.7200  1.2164
16786SOL     OW57218   5.812   2.089   6.417  0.5555 -0.0082 -0.1639
16786SOL    HW157219   5.799   1.995   6.402 -0.9154  0.2473 -0.6221
16786SOL    HW257220   5.776   2.105   6.504  1.1891  0.0669  0.0905
16787SOL     OW57221   8.049   1.897  11.462  0.3270 -0.0324  0.3254
16787SOL    HW157222   8.096   1.826  11.506  1.4446  0.7235  0.4110
16787SOL    HW257223   8.079   1.892  11.371  0.9777  0.7548  0.4825
16788SOL     OW57224   3.376   1.751   2.559 -0.3620 -0.5144  0.4534
16788SOL    HW157225   3.428   1.672   2.576 -0.6758 -1.0642 -0.9930
16788SOL    HW257226   3.435   1.809   2.512 -0.2357  0.0036  1.2260
16789SOL     OW57227   8.950   1.642   2.166  0.0424  0.1541 -0.5325
16789SOL    HW157228   8.856   1.658   2.161  0.0218 -0.0966 -0.9995
16789SOL    HW257229   8.990   1.722   2.133  0.0941  1.6945  2.9181
16790SOL     OW57230   6.612   1.718   9.269  0.1035  0.4384  0.2099
16790SOL    HW157231   6.538   1.709   9.328 -0.1773 -1.3832 -0.3668
16790SOL    HW257232   6.577   1.765   9.193 -0.4195 -0.2520  0.0215
16791SOL     OW57233   4.356   8.266   3.581 -0.2098 -0.5453  0.2708
16791SOL    HW157234   4.431   8.257   3.523 -1.2240 -0.0922 -1.1677
16791SOL    HW257235   4.309   8.343   3.548 -1.1610 -0.6566  1.2982
16792SOL     OW57236  11.955  11.653   0.188 -0.1245  0.0791 -0.3947
16792SOL    HW157237  11.911  11.604   0.118  0.4355  0.4171 -0.9989
16792SOL    HW257238  12.043  11.671   0.153  0.7702 -1.2146  1.0777
16793SOL     OW57239   1.918   4.654   0.410 -0.0523  0.0029 -0.5774
16793SOL    HW157240   1.834   4.621   0.377 -1.2292  0.0337  2.1139
16793SOL    HW257241   1.944   4.590   0.475  0.1641  1.7628  1.1666
16794SOL     OW57242   3.676  10.719   6.122  0.0333  0.0518 -0.2271
16794SOL    HW157243   3.657  10.667   6.044  0.5465  0.7886 -0.8585
16794SOL    HW257244   3.663  10.810   6.094  3.2291  0.5666 -0.3924
16795SOL     OW57245  11.136   2.020   6.326 -0.4175 -1.0007 -0.2017
16795SOL    HW157246  11.226   2.011   6.358 -0.6896 -1.1779  0.5306
16795SOL    HW257247  11.082   2.010   6.404 -0.9736  2.0602 -0.0695
16796SOL     OW57248  11.910  12.307   0.309 -0.2012  0.1714 -0.1485
16796SOL    HW157249  11.831  12.327   0.259 -0.9854  0.4038  1.1268
16796SOL    HW257250  11.887  12.326   0.400  0.6408 -1.7237  0.5354
16797SOL     OW57251   5.718   5.863   0.086 -0.2888 -0.4148  0.1875
16797SOL    HW157252   5.780   5.917   0.135 -0.4992 -0.5033  0.5573
16797SOL    HW257253   5.669   5.816   0.153 -1.1807  0.1148 -0.0641
16798SOL     OW57254   6.843   8.453   8.471 -0.0831 -0.7431 -0.3340
16798SOL    HW157255   6.833   8.463   8.566  2.0423 -2.0336  0.0929
16798SOL    HW257256   6.786   8.520   8.434 -0.3546  0.3457  1.8680
16799SOL     OW57257   4.973   1.475  10.322  0.1032  0.1250  0.3337
16799SOL    HW157258   4.957   1.552  10.376  0.5569  1.2580 -1.0829
16799SOL    HW257259   4.895   1.469  10.266  0.6726  0.4025 -0.5122
16800SOL     OW57260   6.298   2.455  10.143  0.4096  0.0134 -0.2241
16800SOL    HW157261   6.316   2.449  10.237  2.7518  1.7770 -0.4645
16800SOL    HW257262   6.379   2.425  10.102 -0.2122  0.2639 -1.6790
16801SOL     OW57263  11.712  11.104  12.273  0.7998 -0.5339  0.1004
16801SOL    HW157264  11.639  11.129  12.330  1.1366 -0.8271  0.6660
16801SOL    HW257265  11.717  11.009  12.279  2.2129 -0.4200  1.3220
16802SOL     OW57266   3.304  11.608   9.551 -0.0408  0.3763 -0.0425
16802SOL    HW157267   3.287  11.569   9.466  0.6792 -0.7119  0.3007
16802SOL    HW257268   3.333  11.697   9.532  1.1398 -0.1995 -0.9821
16803SOL     OW57269   6.799   8.582  11.620  0.4015  0.4268 -0.6296
16803SOL    HW157270   6.803   8.627  11.536 -1.5319 -0.4943 -1.2721
16803SOL    HW257271   6.774   8.492  11.598 -2.1053  0.6371  0.9925
16804SOL     OW57272   3.876  12.373   7.050 -0.2634  0.0118 -0.3367
16804SOL    HW157273   3.846  12.435   7.116 -1.2417  3.0752 -3.3580
16804SOL    HW257274   3.802  12.313   7.038 -0.5548  0.2038  0.4476
16805SOL     OW57275   6.882   7.652   9.345  0.3965 -0.0715 -0.3593
16805SOL    HW157276   6.845   7.647   9.433  0.5365  2.7426 -0.0680
16805SOL    HW257277   6.809   7.675   9.289  0.5722 -0.5418 -0.7967
16806SOL     OW57278   2.184   9.768   5.905 -0.1951  0.0526 -0.3764
16806SOL    HW157279   2.270   9.739   5.934  0.2090  0.4459 -1.1468
16806SOL    HW257280   2.140   9.687   5.878  0.1221 -0.0934 -0.4613
16807SOL     OW57281   2.843   5.221   2.382  0.0496  0.4212 -0.8408
16807SOL    HW157282   2.788   5.248   2.309  0.5832 -1.1445 -1.8637
16807SOL    HW257283   2.784   5.173   2.440 -0.3160  1.4395 -0.3452
16808SOL     OW57284   3.455   9.016   4.270  0.2772  0.2924 -0.1188
16808SOL    HW157285   3.518   8.979   4.209  1.1104  0.7690  0.4272
16808SOL    HW257286   3.412   9.087   4.221  0.0813 -0.1053 -0.5252
16809SOL     OW57287   4.040  10.497   1.449  0.3122 -0.4482  0.0240
16809SOL    HW157288   4.096  10.451   1.512 -0.7559 -1.5531  0.2066
16809SOL    HW257289   4.061  10.456   1.365  1.0298  0.3547 -0.2031
16810SOL     OW57290   7.701   0.686   2.310 -0.6190 -0.0695 -0.5765
16810SOL    HW157291   7.723   0.670   2.401 -0.7502 -0.9983 -0.6995
16810SOL    HW257292   7.611   0.718   2.312 -1.1514 -1.5061 -0.4724
16811SOL     OW57293   8.283  11.066   6.600 -0.0599  0.1796  0.4537
16811SOL    HW157294   8.344  10.995   6.621  0.3132  0.0750 -0.8638
16811SOL    HW257295   8.215  11.024   6.548 -1.1341  0.3547  1.6567
16812SOL     OW57296   4.860   6.775   2.102 -0.4379 -0.0502 -0.2944
16812SOL    HW157297   4.925   6.805   2.165 -0.1878  1.0837 -1.0513
16812SOL    HW257298   4.912   6.734   2.032 -0.5622  0.3422 -0.6238
16813SOL     OW57299   9.783  10.558   7.261  0.4089  0.2073  0.0246
16813SOL    HW157300   9.747  10.475   7.230 -0.1010  0.8479 -1.1915
16813SOL    HW257301   9.739  10.624   7.207  1.4261  1.2072  0.3866
16814SOL     OW57302   5.065   7.181   0.306 -0.6219  0.2047 -0.1829
16814SOL    HW157303   5.024   7.108   0.353  0.2872 -0.1704  0.0485
16814SOL    HW257304   5.145   7.143   0.270  0.5541  1.4114  1.0541
16815SOL     OW57305   5.015   9.320   1.163  1.0438 -0.0480  0.3803
16815SOL    HW157306   4.965   9.393   1.198  0.2837 -0.3599 -0.0404
16815SOL    HW257307   4.951   9.251   1.150  1.2018  0.1690 -1.9369
16816SOL     OW57308   2.928  11.538   0.639 -0.5808  0.9331  0.2369
16816SOL    HW157309   2.865  11.466   0.637 -2.3271  2.2712  2.2447
16816SOL    HW257310   2.912  11.587   0.559  0.0441 -0.3889 -0.7303
16817SOL     OW57311   7.787   4.020   9.812  0.5965 -0.5389  0.0344
16817SOL    HW157312   7.809   4.010   9.720 -1.4753  1.3713 -0.7582
16817SOL    HW257313   7.770   4.113   9.823 -1.9762 -1.1005  1.6553
16818SOL     OW57314  10.338   5.393   3.212  0.2682 -0.2501  0.5166
16818SOL    HW157315  10.425   5.374   3.247 -0.0114  0.1960  1.4838
16818SOL    HW257316  10.336   5.349   3.127  2.7037  2.5781 -1.2047
16819SOL     OW57317   9.555   3.995   8.346 -0.0419  0.0642 -0.0154
16819SOL    HW157318   9.491   3.928   8.321  0.8609 -1.0676  0.5778
16819SOL    HW257319   9.621   3.992   8.276 -0.2950  0.7614 -0.2886
16820SOL     OW57320   2.820   4.603  11.958 -0.4042  0.4231  0.5585
16820SOL    HW157321   2.863   4.518  11.964 -0.1236  0.6061  1.2024
16820SOL    HW257322   2.837   4.632  11.868 -1.2205 -0.5717  0.0456
16821SOL     OW57323   3.825   5.870  10.627 -0.0237  0.6913 -0.2059
16821SOL    HW157324   3.918   5.875  10.603 -0.1157 -0.1145 -0.7649
16821SOL    HW257325   3.795   5.960  10.623  0.6646  0.9268 -0.3236
16822SOL     OW57326   3.191   5.837   1.839 -0.3552  0.1197 -0.1797
16822SOL    HW157327   3.133   5.783   1.892 -0.1903 -1.8093 -1.8418
16822SOL    HW257328   3.222   5.905   1.899 -0.3427 -1.7746  2.1260
16823SOL     OW57329  11.610  12.416   3.266 -0.9585  0.1992  0.5695
16823SOL    HW157330  11.693  12.456   3.290 -0.4487 -0.4148 -0.1521
16823SOL    HW257331  11.631  12.325   3.246 -1.4003  0.5776 -1.8428
16824SOL     OW57332   2.891   4.148   9.776  0.3499  0.2261  0.6829
16824SOL    HW157333   2.842   4.067   9.790 -0.6982  0.8504  0.7965
16824SOL    HW257334   2.955   4.127   9.709 -0.2058 -0.5817  0.3976
16825SOL     OW57335   6.657   1.863   2.184 -0.0392 -0.4192 -0.0857
16825SOL    HW157336   6.648   1.955   2.208 -1.7969 -0.7091  0.5185
16825SOL    HW257337   6.570   1.837   2.154  1.1685 -1.0448 -3.5180
16826SOL     OW57338  10.508   2.311   2.628 -0.2970  0.4308 -0.4561
16826SOL    HW157339  10.443   2.378   2.608 -1.0605 -0.1959 -0.1488
16826SOL    HW257340  10.592   2.357   2.628 -0.6049  1.0593 -1.9311
16827SOL     OW57341   9.807   7.574  11.216  0.3680  0.6290 -0.0257
16827SOL    HW157342   9.838   7.515  11.285 -1.2425 -0.1260  0.0991
16827SOL    HW257343   9.752   7.638  11.262 -1.5833 -0.5023 -0.6680
16828SOL     OW57344   5.810   4.737   6.165 -0.0840  0.2531  0.4622
16828SOL    HW157345   5.862   4.656   6.167  0.4519  0.5956  0.6758
16828SOL    HW257346   5.733   4.715   6.112 -0.4005 -0.6602  1.2799
16829SOL     OW57347   0.140   8.069   4.487 -0.6690 -0.8339 -0.1831
16829SOL    HW157348   0.218   8.051   4.434 -0.3227  0.4794 -0.1460
16829SOL    HW257349   0.091   8.134   4.438 -1.2691 -0.9375  0.2598
16830SOL     OW57350   1.672   6.951   9.009 -0.0292  0.0420 -0.7455
16830SOL    HW157351   1.615   6.929   8.936 -1.8069 -0.5550  0.7475
16830SOL    HW257352   1.653   6.884   9.076  1.3694  0.6864  0.3582
16831SOL     OW57353   3.643  10.113   4.292 -0.2557 -0.3187 -0.3271
16831SOL    HW157354   3.726  10.147   4.327  0.6837 -1.9468 -0.8520
16831SOL    HW257355   3.617  10.179   4.227 -0.7514  1.4885  1.6160
16832SOL     OW57356  12.113   4.684   9.463 -0.0805 -0.2329  0.6278
16832SOL    HW157357  12.045   4.618   9.473  0.4842 -0.9829 -0.2656
16832SOL    HW257358  12.189   4.636   9.431  0.2641  0.8818 -0.3170
16833SOL     OW57359   7.514   5.684  10.542 -0.4319  0.0743 -0.1214
16833SOL    HW157360   7.455   5.723  10.606 -0.9167 -0.5302 -0.1819
16833SOL    HW257361   7.594   5.736  10.546 -0.8640  0.7152  0.1843
16834SOL     OW57362   4.362   3.518   2.954  0.5838  0.6708  0.5644
16834SOL    HW157363   4.293   3.470   3.000  1.9552 -0.9946  1.0107
16834SOL    HW257364   4.442   3.469   2.974  1.6339  1.4821 -1.4027
16835SOL     OW57365   7.022   2.569   1.351  0.0647 -0.2837 -0.3632
16835SOL    HW157366   6.971   2.649   1.363  0.0016 -0.1552 -1.4230
16835SOL    HW257367   7.113   2.600   1.343  0.2099 -0.4360  0.5280
16836SOL     OW57368   5.744   7.230   0.324  0.1466 -0.0894 -0.3912
16836SOL    HW157369   5.754   7.166   0.253  0.1494  1.1997 -1.5825
16836SOL    HW257370   5.824   7.221   0.375  1.3048  0.6657 -1.9926
16837SOL     OW57371  11.455   7.593   6.355 -0.0835 -0.2403  0.1988
16837SOL    HW157372  11.407   7.669   6.322 -0.0244 -1.0883 -2.0409
16837SOL    HW257373  11.451   7.601   6.450 -0.2067  2.4615  0.0321
16838SOL     OW57374   5.867   2.879   3.874 -0.4894  0.4418 -0.0970
16838SOL    HW157375   5.844   2.831   3.954 -0.7939 -0.1801 -0.5437
16838SOL    HW257376   5.828   2.965   3.885  2.2187  1.5328  1.8568
16839SOL     OW57377   7.957  12.266   7.596 -0.4020 -0.0233  0.3704
16839SOL    HW157378   7.935  12.183   7.637  1.4936 -0.5547  0.4054
16839SOL    HW257379   7.977  12.243   7.505 -1.3662  0.6559 -0.0359
16840SOL     OW57380   1.663   6.602  11.430 -0.1066  0.5599  0.0161
16840SOL    HW157381   1.697   6.517  11.459  0.1213  0.9571  0.9291
16840SOL    HW257382   1.696   6.611  11.340 -1.0034 -0.7842 -0.5000
16841SOL     OW57383   0.824   8.284   7.661 -0.3914  0.1811  0.2318
16841SOL    HW157384   0.780   8.215   7.710  0.4075  1.1968  2.5688
16841SOL    HW257385   0.798   8.271   7.570 -0.1819 -3.2194  0.5508
16842SOL     OW57386  12.033   3.264   8.852 -0.5653  0.2708  0.4139
16842SOL    HW157387  12.113   3.281   8.903  0.4651 -1.9957 -0.3182
16842SOL    HW257388  12.019   3.345   8.803  2.4401  0.1413 -0.8806
16843SOL     OW57389   0.327   9.166   8.191  0.6396  0.2666  0.0215
16843SOL    HW157390   0.238   9.135   8.204 -0.3773  2.7633 -0.4903
16843SOL    HW257391   0.374   9.091   8.155 -0.6577 -1.7468  2.2706
16844SOL     OW57392   7.105   4.760   0.782  0.2533  0.1046 -0.6839
16844SOL    HW157393   7.077   4.687   0.727 -2.2174 -0.0277  0.5982
16844SOL    HW257394   7.134   4.719   0.863  1.0017  0.4528 -0.7685
16845SOL     OW57395   7.695   5.953   1.457  1.1059 -0.4090 -0.2357
16845SOL    HW157396   7.687   5.966   1.363  0.7118  1.2941 -0.0096
16845SOL    HW257397   7.620   6.000   1.494  1.4839 -0.7006  0.9359
16846SOL     OW57398   5.083   8.559   1.531 -0.2142 -0.1535  0.0068
16846SOL    HW157399   5.158   8.532   1.478 -0.5560  0.3818 -0.7708
16846SOL    HW257400   5.043   8.631   1.481 -0.3324  0.6164  1.1680
16847SOL     OW57401   2.207   2.635  11.571  0.3179  0.2414  0.0722
16847SOL    HW157402   2.131   2.670  11.617  0.9960  1.5316  0.2453
16847SOL    HW257403   2.173   2.562  11.520 -0.7400 -0.1982  1.3679
16848SOL     OW57404   8.569   5.448   6.576  0.7749 -0.0399  0.2110
16848SOL    HW157405   8.636   5.380   6.574  0.8427  0.0368 -1.2573
16848SOL    HW257406   8.617   5.529   6.556  0.7520  0.5237  2.2542
16849SOL     OW57407   9.413   9.147   6.243  0.0670  0.0987 -0.2996
16849SOL    HW157408   9.501   9.127   6.277 -0.2225 -0.8463 -0.0791
16849SOL    HW257409   9.374   9.204   6.309  0.1565 -0.2958  0.1013
16850SOL     OW57410   5.548   1.940   3.570 -0.5212 -0.1318 -0.0695
16850SOL    HW157411   5.496   1.913   3.646 -1.3217  1.6441  0.0797
16850SOL    HW257412   5.522   2.031   3.555  1.4742  0.3470 -0.9322
16851SOL     OW57413   5.080   7.409   1.402 -0.2132  0.1922 -0.0915
16851SOL    HW157414   5.090   7.490   1.353  0.6332 -0.3452 -0.8404
16851SOL    HW257415   5.113   7.341   1.344 -0.9441 -0.7086  0.4994
16852SOL     OW57416   9.560  10.426   7.654  0.6830  0.7358  0.3543
16852SOL    HW157417   9.589  10.516   7.667  1.0197  0.9921 -1.7590
16852SOL    HW257418   9.578  10.383   7.737  0.4839  2.6082  1.4283
16853SOL     OW57419   6.000   2.361   3.654  0.0921  0.0902 -0.0670
16853SOL    HW157420   5.961   2.280   3.623  2.4929 -0.9810 -0.5319
16853SOL    HW257421   5.986   2.424   3.583  0.3180 -0.6262 -0.7536
16854SOL     OW57422   3.931   9.862   2.207  0.6307 -0.4783 -0.7448
16854SOL    HW157423   3.855   9.817   2.243  0.0685 -0.4278 -1.8376
16854SOL    HW257424   4.002   9.798   2.216 -0.2053 -1.7246 -2.4997
16855SOL     OW57425  12.446   7.601   2.404 -0.1313 -0.0552  0.3031
16855SOL    HW157426  12.360   7.611   2.446 -0.7333  2.8374 -1.3941
16855SOL    HW257427  12.505   7.583   2.477 -1.7687  0.4924  1.8518
16856SOL     OW57428   8.745   9.207   2.661  0.2145 -0.2827 -0.0878
16856SOL    HW157429   8.819   9.223   2.719  0.2941  0.2838 -0.3432
16856SOL    HW257430   8.734   9.112   2.662  1.8729 -0.5289 -1.2060
16857SOL     OW57431  10.868   9.167   4.231 -0.5065 -0.3204 -0.5618
16857SOL    HW157432  10.812   9.125   4.165 -0.6901 -1.3551  0.2307
16857SOL    HW257433  10.955   9.132   4.214 -0.7098 -1.2599  0.2757
16858SOL     OW57434   0.261   1.904   4.708 -0.3149  0.4652 -0.1194
16858SOL    HW157435   0.204   1.931   4.636 -0.6737  0.0061 -0.0181
16858SOL    HW257436   0.204   1.906   4.785  0.3175  1.9443  0.3476
16859SOL     OW57437   8.842   3.451   7.263 -0.0917  0.4631  0.1509
16859SOL    HW157438   8.862   3.426   7.173 -1.5761  0.8518 -0.3145
16859SOL    HW257439   8.747   3.455   7.267 -0.1030 -0.5101  2.0218
16860SOL     OW57440  10.808   0.198  11.988  0.2253  0.2869 -0.6029
16860SOL    HW157441  10.763   0.141  11.925 -0.3304 -0.0555  0.0903
16860SOL    HW257442  10.791   0.287  11.957  3.5097  0.1635 -3.4006
16861SOL     OW57443   0.425   1.154   6.504 -0.3320  0.1703 -0.1812
16861SOL    HW157444   0.393   1.066   6.526 -0.9624  0.5420  0.4433
16861SOL    HW257445   0.502   1.139   6.450  1.2982 -0.8460  2.2276
16862SOL     OW57446   7.688  12.388   2.161 -0.4022  1.1026 -0.4246
16862SOL    HW157447   7.752  12.410   2.228 -1.3499  0.1860  0.8351
16862SOL    HW257448   7.611  12.439   2.183 -1.0575  0.0446 -0.2025
16863SOL     OW57449   2.651   0.805   3.590 -0.0806 -0.1596 -0.2069
16863SOL    HW157450   2.735   0.806   3.543  0.4933  0.0483  0.7943
16863SOL    HW257451   2.665   0.747   3.664 -0.1090  1.5288  1.1947
16864SOL     OW57452   3.022   2.853   0.195  0.2458 -0.2346  0.3148
16864SOL    HW157453   3.108   2.891   0.210  1.2176 -1.7679 -1.0038
16864SOL    HW257454   2.967   2.926   0.166  1.0032  0.8184  1.4570
16865SOL     OW57455   0.576   4.083   3.062  0.5824 -0.4643 -0.7588
16865SOL    HW157456   0.543   4.092   2.973  0.9598  0.2749 -0.8265
16865SOL    HW257457   0.653   4.138   3.066  0.4905 -0.3723  0.0707
16866SOL     OW57458   7.779   1.607   2.706 -0.5459  0.0264  0.2882
16866SOL    HW157459   7.743   1.695   2.708  1.0889  0.7267  1.8743
16866SOL    HW257460   7.713   1.553   2.750 -1.2409  0.5844 -0.0551
16867SOL     OW57461   2.472   7.372   1.441  0.0746  0.3150  0.0572
16867SOL    HW157462   2.560   7.360   1.475  0.0921  0.9082  0.2319
16867SOL    HW257463   2.480   7.439   1.373 -0.4515  1.4323  1.0586
16868SOL     OW57464  11.981   0.912  10.556  0.4064 -0.0816 -0.4366
16868SOL    HW157465  11.991   0.917  10.461 -1.3079 -0.3222 -0.6552
16868SOL    HW257466  12.018   0.826  10.580  0.3216 -0.2657 -0.9594
16869SOL     OW57467   1.473   9.439  11.167  0.3004 -0.0176 -0.1313
16869SOL    HW157468   1.495   9.346  11.176  0.9366  0.2723  1.6940
16869SOL    HW257469   1.379   9.443  11.187  0.3089 -0.2270 -0.0468
16870SOL     OW57470  12.196   3.400   6.792  0.1654 -0.3748  0.4923
16870SOL    HW157471  12.190   3.488   6.757  0.2549 -0.3149  0.6270
16870SOL    HW257472  12.247   3.351   6.727  0.7198 -0.1527  0.7485
16871SOL     OW57473   6.649   1.869   0.270  0.2839 -0.3558  0.2990
16871SOL    HW157474   6.719   1.809   0.247 -0.4060 -1.0370 -0.0857
16871SOL    HW257475   6.649   1.935   0.201 -1.3622 -2.0348 -1.4191
16872SOL     OW57476   7.572   9.239   9.547 -0.0253  0.4039 -0.5301
16872SOL    HW157477   7.526   9.321   9.559  0.2813  0.4664  0.2710
16872SOL    HW257478   7.649   9.262   9.494  0.4017  0.7581  0.2285
16873SOL     OW57479   4.930   8.416   5.050 -0.2191 -0.0221 -0.1787
16873SOL    HW157480   4.912   8.406   4.957  0.0810 -0.4352 -0.1956
16873SOL    HW257481   4.844   8.414   5.091 -0.3354 -0.1179 -0.4241
16874SOL     OW57482   0.432   9.579   4.276 -0.3398 -0.4767 -0.0070
16874SOL    HW157483   0.440   9.674   4.285 -0.2832 -0.6664  2.8772
16874SOL    HW257484   0.341   9.560   4.300 -0.1080 -1.2356  0.2931
16875SOL     OW57485   9.996   5.908   1.080  0.5836 -0.3828  0.8759
16875SOL    HW157486   9.955   5.979   1.031 -1.6834  0.0412  3.1894
16875SOL    HW257487  10.003   5.836   1.017 -4.1411 -0.5993  0.2364
16876SOL     OW57488   8.145   0.551   3.306  0.1618 -0.3403 -0.4328
16876SOL    HW157489   8.203   0.626   3.294 -0.9971  1.3539  3.2462
16876SOL    HW257490   8.174   0.510   3.387 -2.6766 -0.4254  0.6597
16877SOL     OW57491  11.564   8.898  12.259 -0.2216  0.6573  0.1034
16877SOL    HW157492  11.480   8.922  12.297  0.5214  0.5081  1.9249
16877SOL    HW257493  11.625   8.898  12.333  1.2723  0.2202 -1.0758
16878SOL     OW57494   8.014  12.433   7.221 -0.1621  0.2968 -0.5434
16878SOL    HW157495   8.045  12.352   7.261 -0.2148  0.1766 -0.7460
16878SOL    HW257496   7.968  12.479   7.291 -0.7934 -0.1990 -0.6183
16879SOL     OW57497   0.923  10.225   2.889 -0.1442 -0.0656 -0.4021
16879SOL    HW157498   1.004  10.270   2.866 -0.0682 -0.4855 -0.9704
16879SOL    HW257499   0.867  10.293   2.926  0.9579 -0.0132  1.2827
16880SOL     OW57500  10.254   3.689  10.393  0.4118  0.1933  0.3704
16880SOL    HW157501  10.261   3.771  10.442 -2.0439  0.8586 -0.2417
16880SOL    HW257502  10.182   3.642  10.434 -0.0957 -0.3246 -1.0424
16881SOL     OW57503   9.238   5.678  11.280 -0.1505  0.4170 -0.3966
16881SOL    HW157504   9.211   5.595  11.320  0.1274  0.7191  0.4426
16881SOL    HW257505   9.333   5.671  11.270 -0.1758  0.4782 -0.6920
16882SOL     OW57506  10.151   2.613   5.159  0.4792  0.3230  0.0789
16882SOL    HW157507  10.204   2.536   5.139 -0.3660 -0.8967  2.1774
16882SOL    HW257508  10.199   2.658   5.228  0.0380  0.5981  0.2135
16883SOL     OW57509   8.427   1.449   0.245  0.3170  0.1426 -0.1589
16883SOL    HW157510   8.456   1.536   0.270 -0.7143  0.1087  1.3581
16883SOL    HW257511   8.407   1.455   0.152 -2.6971  2.4379  0.4949
16884SOL     OW57512  10.869   0.921   2.455  0.4471  0.1368  0.2821
16884SOL    HW157513  10.915   0.845   2.420 -0.7117 -0.9098  0.9808
16884SOL    HW257514  10.878   0.913   2.550 -2.1281 -0.7603  0.5232
16885SOL     OW57515   1.389  10.465   2.228 -0.5038 -0.4270  0.7121
16885SOL    HW157516   1.471  10.427   2.195  0.0458 -0.9989  2.5798
16885SOL    HW257517   1.386  10.552   2.189  1.1910 -0.2714  0.8381
16886SOL     OW57518   2.725   7.935   4.680 -0.3631 -0.0566 -0.5700
16886SOL    HW157519   2.774   7.963   4.603  2.4427  1.4393  1.5760
16886SOL    HW257520   2.728   7.839   4.677  0.3281 -0.0123 -1.9073
16887SOL     OW57521  11.722   8.293   0.848 -0.1589 -0.2339 -0.5671
16887SOL    HW157522  11.763   8.377   0.830  0.5990 -0.6766 -0.9537
16887SOL    HW257523  11.704   8.256   0.762  0.3179 -0.8490 -0.4117
16888SOL     OW57524   4.689   3.370   7.965  0.3842  0.5912  0.1393
16888SOL    HW157525   4.742   3.448   7.954  0.2214  0.5543 -1.0952
16888SOL    HW257526   4.598   3.401   7.959  0.3276  0.1232 -2.0670
16889SOL     OW57527   6.755   1.607   1.464  0.5774  0.0735 -0.3749
16889SOL    HW157528   6.681   1.576   1.413  0.9013 -2.2518  0.4591
16889SOL    HW257529   6.807   1.658   1.401 -1.0211  0.6339 -1.2984
16890SOL     OW57530  12.399   3.110   2.758  0.2695 -0.1892  0.1349
16890SOL    HW157531  12.393   3.073   2.846  0.6998 -0.3398  0.1024
16890SOL    HW257532  12.373   3.039   2.700 -0.8232  0.1601  0.1835
16891SOL     OW57533   8.307  10.198  12.183  0.0601 -0.2231  0.0001
16891SOL    HW157534   8.377  10.253  12.148  0.5721  0.0226  1.3541
16891SOL    HW257535   8.227  10.250  12.171  0.6925  1.5836  2.5797
16892SOL     OW57536   0.342   5.764  11.530  0.0001  0.0027 -0.3446
16892SOL    HW157537   0.338   5.838  11.470  1.0398  0.3007 -0.0770
16892SOL    HW257538   0.371   5.802  11.613  0.3019 -0.6570 -0.1368
16893SOL     OW57539   0.004   5.223  11.435  0.0221 -0.0287  0.1950
16893SOL    HW157540   0.064   5.293  11.407  0.1422 -0.3692 -0.4152
16893SOL    HW257541  -0.007   5.169  11.357  0.3951 -1.0286  0.8241
16894SOL     OW57542   4.676   5.921   7.579 -0.4405 -0.0703 -0.3257
16894SOL    HW157543   4.681   5.897   7.486  0.3944  0.4518 -0.4278
16894SOL    HW257544   4.698   6.014   7.581 -0.8005  0.0071  0.3667
16895SOL     OW57545   7.491   2.361   2.302  0.3366 -0.1463  0.8603
16895SOL    HW157546   7.411   2.342   2.253  0.1438 -0.4015  1.2684
16895SOL    HW257547   7.562   2.331   2.245  0.2658  1.7824 -0.3375
16896SOL     OW57548  11.753   3.901   3.758 -0.3718  0.4252  0.6150
16896SOL    HW157549  11.737   3.808   3.772  0.2719  0.1106 -0.6171
16896SOL    HW257550  11.849   3.908   3.751 -0.3511  1.3110  1.5170
16897SOL     OW57551   0.944   9.010  12.243 -0.3372  0.2319  0.5015
16897SOL    HW157552   0.875   8.944  12.243  0.1690 -0.3103  0.1487
16897SOL    HW257553   1.024   8.961  12.262  0.2172  0.5504 -0.8710
16898SOL     OW57554   2.207  10.595   0.438 -0.3899  0.1319 -0.0929
16898SOL    HW157555   2.171  10.577   0.351 -1.4520  1.8057 -0.0529
16898SOL    HW257556   2.139  10.647   0.481  0.4652  0.0243  1.4510
16899SOL     OW57557   5.770   7.440   2.061 -0.0427  0.2410 -0.5913
16899SOL    HW157558   5.750   7.516   2.114 -1.0518 -0.3332 -0.1218
16899SOL    HW257559   5.811   7.475   1.982  0.2222  1.1967 -0.0402
16900SOL     OW57560  12.328  11.240   7.404 -0.5284  0.3529  0.4047
16900SOL    HW157561  12.408  11.291   7.399  0.6983 -1.4865  0.1433
16900SOL    HW257562  12.265  11.288   7.350  0.1796  2.1335  1.0836
16901SOL     OW57563  11.178   3.929   6.230 -0.6145 -0.0553  0.0639
16901SOL    HW157564  11.184   3.837   6.203 -4.0036 -0.6789  1.0177
16901SOL    HW257565  11.237   3.935   6.306 -0.7611 -1.5973  0.3356
16902SOL     OW57566   8.740   2.781   5.535  0.2129  0.1143  1.0084
16902SOL    HW157567   8.689   2.719   5.588 -1.2855  0.5595  0.1520
16902SOL    HW257568   8.819   2.732   5.510  0.2460 -0.5903  2.3991
16903SOL     OW57569   5.809  11.448   6.106  0.3528 -0.1606  0.2348
16903SOL    HW157570   5.903  11.464   6.112  0.6574 -0.9965 -1.5481
16903SOL    HW257571   5.791  11.383   6.174  1.2676 -0.7400 -0.0674
16904SOL     OW57572   6.311  11.179   5.742  0.0780  0.2437  0.2144
16904SOL    HW157573   6.262  11.117   5.795  0.1707 -0.1321 -0.1373
16904SOL    HW257574   6.385  11.129   5.708 -1.3318 -0.2788 -2.3785
16905SOL     OW57575   5.476   9.045  10.116 -0.0424 -0.5133  0.5225
16905SOL    HW157576   5.482   9.009  10.204 -2.1427 -1.6984  0.2419
16905SOL    HW257577   5.455   8.969  10.060 -1.0155  0.5502 -0.6260
16906SOL     OW57578   3.318   0.534   3.020  0.3510 -0.6991  0.1574
16906SOL    HW157579   3.262   0.468   3.061  0.1048 -0.8562 -0.4138
16906SOL    HW257580   3.393   0.541   3.078 -0.7506  0.3199  1.5270
16907SOL     OW57581  12.467   7.533   6.738 -0.1371  0.2106 -0.5968
16907SOL    HW157582  12.373   7.517   6.751 -0.4719  2.1566 -0.2493
16907SOL    HW257583  12.472   7.580   6.655  0.2192  2.1253  0.4376
16908SOL     OW57584   7.349   3.416  11.225 -0.2272 -0.1023  0.2091
16908SOL    HW157585   7.429   3.379  11.189  0.1316  1.1376 -0.3221
16908SOL    HW257586   7.374   3.449  11.311 -0.6165 -1.2990  0.8100
16909SOL     OW57587   2.871   5.259   6.282  0.3929 -0.4107  0.4412
16909SOL    HW157588   2.787   5.241   6.322  0.1081  0.1450  0.1146
16909SOL    HW257589   2.920   5.308   6.348  0.0069  0.3099  0.2107
16910SOL     OW57590   7.383   5.889  10.069 -0.4056 -0.3370  0.0537
16910SOL    HW157591   7.473   5.889  10.102 -0.6338 -3.4638  0.9823
16910SOL    HW257592   7.331   5.923  10.141 -0.1312  0.2959 -0.0353
16911SOL     OW57593   1.326   2.605   4.514  0.0019  0.0413  0.4048
16911SOL    HW157594   1.298   2.654   4.592  0.0881 -1.0109  1.1148
16911SOL    HW257595   1.353   2.520   4.547  0.3793 -0.3080 -0.7458
16912SOL     OW57596   6.610   8.461   2.574 -0.0038  0.2100  0.1115
16912SOL    HW157597   6.575   8.549   2.558  0.8309  0.2022 -2.0885
16912SOL    HW257598   6.666   8.443   2.498  1.9339 -1.1934  1.7728
16913SOL     OW57599   8.672  10.096  10.556 -0.1261  0.2567  0.5039
16913SOL    HW157600   8.695  10.050  10.476  0.2927  0.8351  0.2819
16913SOL    HW257601   8.750  10.090  10.611 -0.9456 -1.5269  1.5528
16914SOL     OW57602   1.594   4.255   4.602  0.0258  0.4464  0.0419
16914SOL    HW157603   1.623   4.185   4.543 -1.1166 -0.0454  0.0472
16914SOL    HW257604   1.518   4.293   4.558 -1.4547 -0.5564  1.6005
16915SOL     OW57605   0.848   7.863  11.133 -0.5557 -0.2141  0.6479
16915SOL    HW157606   0.930   7.873  11.085 -1.0089 -1.0695 -0.3187
16915SOL    HW257607   0.784   7.913  11.082 -1.1298 -1.4806  0.1068
16916SOL     OW57608   4.497   0.176  11.306  0.2698  0.3299  0.1779
16916SOL    HW157609   4.538   0.206  11.225 -1.2809 -0.2775 -0.8922
16916SOL    HW257610   4.404   0.168  11.284  0.0258 -1.2884  1.5975
16917SOL     OW57611   4.618   7.855   6.444  0.4536  0.3416 -0.2281
16917SOL    HW157612   4.605   7.927   6.505  1.2249 -0.0226  0.3835
16917SOL    HW257613   4.668   7.790   6.493  0.1877 -0.4114 -0.9158
16918SOL     OW57614  11.693   8.837   4.510 -0.1635  0.6752 -0.0906
16918SOL    HW157615  11.622   8.827   4.445 -0.8675  0.2017  0.7358
16918SOL    HW257616  11.693   8.931   4.530  0.5077  0.9462 -1.2536
16919SOL     OW57617   8.127   0.948   8.959 -0.3052  0.2545  0.0628
16919SOL    HW157618   8.191   0.878   8.951 -2.7089 -1.9038 -2.7691
16919SOL    HW257619   8.159   1.018   8.901  0.4112  0.0660  0.2242
16920SOL     OW57620   1.820   2.257   6.989  0.2743  0.2517 -0.2901
16920SOL    HW157621   1.778   2.183   6.946  0.0359 -0.0793  0.4901
16920SOL    HW257622   1.784   2.334   6.947 -0.2385 -0.0588 -0.4192
16921SOL     OW57623   0.661   8.279  12.346  0.1379 -0.0189  0.1164
16921SOL    HW157624   0.611   8.230  12.280  0.9837  0.1756 -0.6845
16921SOL    HW257625   0.675   8.216  12.416 -1.0933 -0.1225  0.2983
16922SOL     OW57626   8.542   0.699   2.191  0.0285  0.0452  0.0045
16922SOL    HW157627   8.610   0.655   2.139  0.1958 -0.5917  0.7382
16922SOL    HW257628   8.585   0.718   2.274 -0.3774  0.6359  0.0841
16923SOL     OW57629   7.325   4.788  10.234  0.1058  0.6364  0.2316
16923SOL    HW157630   7.369   4.751  10.311 -0.7382  1.1457  0.9720
16923SOL    HW257631   7.312   4.712  10.176  1.5136  0.3952  0.1860
16924SOL     OW57632   8.799   4.650   1.819  0.3009  0.6393  0.3521
16924SOL    HW157633   8.832   4.734   1.788  1.1881  0.3757  0.5530
16924SOL    HW257634   8.705   4.652   1.800  0.3961  1.4866 -0.0538
16925SOL     OW57635   4.593   5.937   5.118 -0.5314 -0.5572 -0.0912
16925SOL    HW157636   4.602   5.995   5.193 -0.3360 -3.7022  2.5212
16925SOL    HW257637   4.682   5.910   5.097 -0.8016 -2.6713  1.1886
16926SOL     OW57638  12.403   5.682   2.484  0.0344  0.0650  0.3243
16926SOL    HW157639  12.453   5.601   2.497  0.8974  0.6680  0.8569
16926SOL    HW257640  12.333   5.677   2.550  2.0370  1.2447  2.6964
16927SOL     OW57641   1.140  10.509   8.945  0.6506  0.0472  0.1712
16927SOL    HW157642   1.102  10.478   8.862 -0.0339  1.0615  0.0862
16927SOL    HW257643   1.234  10.509   8.929  0.6094 -1.0191 -0.1555
16928SOL     OW57644   9.912   6.915   9.661  0.8300 -0.7218  0.0704
16928SOL    HW157645   9.862   6.834   9.679  0.5679 -1.2139 -2.4344
16928SOL    HW257646   9.928   6.911   9.567  2.7842  1.0855  0.2860
16929SOL     OW57647   1.721   3.403   2.754  0.0015 -0.3237  0.9291
16929SOL    HW157648   1.706   3.495   2.776  0.1493 -0.4120  1.4123
16929SOL    HW257649   1.664   3.387   2.679  1.0715  0.5474 -0.0955
16930SOL     OW57650  10.300   9.370   2.363  0.2368  0.1416 -0.2014
16930SOL    HW157651  10.225   9.389   2.306 -0.7208  0.3829  1.1131
16930SOL    HW257652  10.353   9.449   2.359 -0.4368  0.6168  0.1788
16931SOL     OW57653   3.260   6.131   8.026  0.6761 -0.4845  0.2256
16931SOL    HW157654   3.256   6.055   8.083  2.5745 -2.7373 -2.3864
16931SOL    HW257655   3.354   6.149   8.016  0.3297  1.1503 -0.5738
16932SOL     OW57656   9.974   6.739   7.430  0.1883  0.7588 -0.0585
16932SOL    HW157657  10.056   6.689   7.430 -0.2562  0.0064  0.3476
16932SOL    HW257658   9.908   6.677   7.463  0.0346  2.2935  2.7224
16933SOL     OW57659   4.757   7.250   3.838  0.4082 -0.7192  0.4970
16933SOL    HW157660   4.721   7.174   3.885  0.5349 -2.1599 -1.5704
16933SOL    HW257661   4.682   7.288   3.794  0.4841 -0.1017  0.8905
16934SOL     OW57662   4.372   5.173   3.759 -0.3284  0.2433 -0.3707
16934SOL    HW157663   4.294   5.193   3.812 -0.2255  0.4598 -0.2960
16934SOL    HW257664   4.440   5.152   3.824 -0.0327  1.1078 -0.3768
16935SOL     OW57665   3.403   7.342   5.076  0.3312  0.1031 -0.1510
16935SOL    HW157666   3.440   7.430   5.064  0.7250  0.1058  0.9774
16935SOL    HW257667   3.428   7.317   5.165  0.7146 -1.3956 -0.6455
16936SOL     OW57668   6.317   7.287   4.895 -0.1742  0.0331 -0.0863
16936SOL    HW157669   6.238   7.335   4.921 -0.6876 -0.3448 -0.9074
16936SOL    HW257670   6.284   7.213   4.844  0.6016 -1.2601  1.2443
16937SOL     OW57671  11.885  12.201  10.284  0.2344  0.0464 -0.1473
16937SOL    HW157672  11.814  12.214  10.346  0.2821 -1.0757  0.1528
16937SOL    HW257673  11.939  12.280  10.292 -1.6463  1.5391 -1.3184
16938SOL     OW57674   0.740   1.520   2.868 -0.2520  0.5183 -0.0620
16938SOL    HW157675   0.661   1.476   2.839  0.0586 -0.9498  1.2033
16938SOL    HW257676   0.811   1.458   2.851  0.8671  2.2661 -2.3201
16939SOL     OW57677   8.690   6.082  12.279 -0.0403 -0.2395 -0.5933
16939SOL    HW157678   8.673   6.169  12.243  1.2230 -0.2242 -1.1828
16939SOL    HW257679   8.782   6.083  12.306 -0.1599 -1.2093 -0.0671
16940SOL     OW57680  11.260  11.720   3.621  1.1571  0.2870  0.4724
16940SOL    HW157681  11.218  11.719   3.706 -0.4949  4.7609 -0.0391
16940SOL    HW257682  11.190  11.700   3.559  1.2866  1.3488 -0.0351
16941SOL     OW57683   9.957   2.709   4.341  0.0093 -0.2358  0.3189
16941SOL    HW157684  10.046   2.686   4.367  1.1897  2.8626 -0.5849
16941SOL    HW257685   9.944   2.661   4.259 -0.3730 -2.9776  1.8439
16942SOL     OW57686   1.546   5.546   5.998  0.2049 -0.7739  0.2728
16942SOL    HW157687   1.555   5.473   6.059  0.0550 -0.3450  0.8114
16942SOL    HW257688   1.630   5.551   5.954  0.8772 -0.1024  1.5632
16943SOL     OW57689   4.759   4.743   7.477 -0.0587  0.3877 -0.4790
16943SOL    HW157690   4.705   4.819   7.460 -1.2503 -0.5129 -0.8561
16943SOL    HW257691   4.764   4.738   7.573  0.2107  1.0528 -0.4568
16944SOL     OW57692   2.477   8.571   4.605 -0.0472 -0.0417  0.1301
16944SOL    HW157693   2.528   8.507   4.556  2.3169  1.6999  0.1841
16944SOL    HW257694   2.421   8.612   4.539 -2.6215 -2.9035  0.2893
16945SOL     OW57695  10.160   7.913   1.587 -0.3128  0.0983  0.2374
16945SOL    HW157696  10.118   7.837   1.546  2.0184 -2.0211  1.5478
16945SOL    HW257697  10.251   7.909   1.558  0.0199  2.0457  0.8726
16946SOL     OW57698   0.352   8.179   0.398  0.1363 -0.0084  0.3897
16946SOL    HW157699   0.397   8.120   0.338  0.5140  0.5565  0.1062
16946SOL    HW257700   0.378   8.267   0.370 -1.5336  0.3707 -0.0887
16947SOL     OW57701   1.549   8.576  10.119 -0.1726 -0.5808  0.1575
16947SOL    HW157702   1.456   8.600  10.125 -1.7490 -5.5754 -0.0404
16947SOL    HW257703   1.577   8.611  10.035 -2.1454  0.3196 -0.1845
16948SOL     OW57704   9.989   2.884   4.779  0.3542  0.4395  0.4697
16948SOL    HW157705  10.029   2.932   4.706 -2.3460  1.3821 -0.4947
16948SOL    HW257706  10.005   2.792   4.758  0.3401  0.7191 -0.8894
16949SOL     OW57707   5.772   2.703   1.818 -0.5303 -0.1308 -0.0482
16949SOL    HW157708   5.723   2.626   1.790  0.2079 -1.7060  2.6305
16949SOL    HW257709   5.860   2.690   1.782 -0.1717 -1.0418  1.0906
16950SOL     OW57710   1.290   5.015   5.510  0.0360  0.5503  0.1285
16950SOL    HW157711   1.292   4.926   5.546  0.8705  0.4651 -0.1084
16950SOL    HW257712   1.356   5.063   5.561  1.3977  0.3763 -1.3843
16951SOL     OW57713   4.608  10.484   3.115  0.5050  0.3661 -0.2045
16951SOL    HW157714   4.668  10.468   3.187 -0.2271  0.3293  0.4060
16951SOL    HW257715   4.616  10.406   3.059  0.0863 -0.2105  0.5352
16952SOL     OW57716   1.333   0.748   0.742  0.1397 -0.3065  0.0960
16952SOL    HW157717   1.308   0.675   0.685 -0.1925 -0.8819  0.9663
16952SOL    HW257718   1.291   0.825   0.702 -2.3122 -1.0881  0.9689
16953SOL     OW57719  11.218  10.038  12.464 -0.3044 -0.5704  0.4336
16953SOL    HW157720  11.137  10.087  12.483 -0.0462 -0.4670  1.2794
16953SOL    HW257721  11.234  10.055  12.371 -0.6130  0.3756  0.5418
16954SOL     OW57722   5.184  10.934   3.027 -0.0794  0.3012  0.7263
16954SOL    HW157723   5.118  11.001   3.048 -0.8582 -1.0699  3.0636
16954SOL    HW257724   5.137  10.851   3.033  1.4292 -0.6132  0.4577
16955SOL     OW57725   9.775   1.884   3.024  0.1151  0.0206  0.0919
16955SOL    HW157726   9.705   1.896   2.960  0.8338 -0.6758 -0.8480
16955SOL    HW257727   9.852   1.923   2.984  0.7382 -1.0505  0.2053
16956SOL     OW57728  10.096   8.869   4.391 -0.5781 -0.5288  0.3699
16956SOL    HW157729  10.058   8.946   4.435 -0.1454 -0.0760 -0.0351
16956SOL    HW257730  10.020   8.820   4.360 -0.8579  0.2298 -0.1895
16957SOL     OW57731   1.729   4.857   0.146 -0.4280 -0.5108 -0.2833
16957SOL    HW157732   1.804   4.906   0.109 -0.7187 -0.8855 -1.4072
16957SOL    HW257733   1.652   4.904   0.114 -0.7170  0.3840  1.5661
16958SOL     OW57734   9.754  10.176   9.091  0.2699  0.6261 -0.4020
16958SOL    HW157735   9.809  10.235   9.040 -0.0081  1.0873 -0.1774
16958SOL    HW257736   9.715  10.232   9.159  1.7090 -0.2270  1.1928
16959SOL     OW57737   0.974   7.063   9.091 -0.3657 -0.0759 -0.2001
16959SOL    HW157738   0.913   7.010   9.142 -0.1703 -0.5122 -0.4150
16959SOL    HW257739   0.958   7.038   9.000 -0.1961  0.1552 -0.2962
16960SOL     OW57740   2.608   8.362   7.525  0.2163  0.3313 -0.3787
16960SOL    HW157741   2.602   8.423   7.451 -0.4215 -0.1820 -0.7591
16960SOL    HW257742   2.542   8.296   7.507  0.4221 -0.0960  0.3890
16961SOL     OW57743   5.815   9.984   4.648 -0.1557 -0.4460 -0.3019
16961SOL    HW157744   5.849   9.894   4.645  3.0244  0.5630  0.8324
16961SOL    HW257745   5.779   9.993   4.736 -0.1265 -0.5048 -0.2833
16962SOL     OW57746   4.263   0.862   0.578  0.3320 -0.4753 -0.3017
16962SOL    HW157747   4.311   0.848   0.660  1.2488  0.4260 -0.6518
16962SOL    HW257748   4.198   0.929   0.600 -2.0920 -2.9698  0.6373
16963SOL     OW57749   0.447   2.089   4.785 -0.0340  0.1015 -0.1552
16963SOL    HW157750   0.361   2.054   4.763  0.2497  0.4489 -1.9904
16963SOL    HW257751   0.495   2.087   4.702  1.6236  0.2040  0.7733
16964SOL     OW57752   0.540   6.775   9.209 -0.0815 -0.3496  0.0749
16964SOL    HW157753   0.579   6.689   9.227  1.3732  0.2410 -0.0758
16964SOL    HW257754   0.447   6.764   9.228 -0.2853 -2.4676 -1.7319
16965SOL     OW57755   7.412   9.098   8.190 -0.1324 -0.0960  0.3584
16965SOL    HW157756   7.418   9.170   8.252 -0.7602 -0.1186  0.4587
16965SOL    HW257757   7.323   9.104   8.154 -0.2002 -0.8217  0.3777
16966SOL     OW57758  11.873   9.758  10.121 -0.2397  0.5700  0.1208
16966SOL    HW157759  11.901   9.719  10.204  0.1267  0.3180 -0.1219
16966SOL    HW257760  11.785   9.721  10.106  0.7540 -1.5425 -0.9665
16967SOL     OW57761   4.087   1.466  11.771 -0.4334 -0.3287 -0.4816
16967SOL    HW157762   4.114   1.505  11.688  0.9936  3.4253  1.5188
16967SOL    HW257763   4.169   1.443  11.815 -0.9551  0.5563  1.0391
16968SOL     OW57764   6.225   3.198   0.292  0.2779  0.0611  0.0090
16968SOL    HW157765   6.150   3.251   0.321 -0.0431 -1.3869  1.9938
16968SOL    HW257766   6.295   3.262   0.277 -1.3213  1.4884 -2.1039
16969SOL     OW57767  11.324   2.533   3.346 -0.1781 -0.0469  0.4866
16969SOL    HW157768  11.277   2.534   3.429 -1.9434 -1.6822 -0.4082
16969SOL    HW257769  11.263   2.493   3.284  0.6996  1.9748 -1.8630
16970SOL     OW57770   8.327   4.090   3.795 -0.0218  0.9364 -0.3124
16970SOL    HW157771   8.323   4.128   3.708 -1.2173 -0.5500 -0.9519
16970SOL    HW257772   8.235   4.083   3.822  0.3141  1.1101  0.9585
16971SOL     OW57773   9.175   0.890   6.379 -0.1169 -0.1321 -0.0268
16971SOL    HW157774   9.179   0.831   6.454 -0.8412 -0.4542 -0.2324
16971SOL    HW257775   9.166   0.977   6.418 -1.0040 -0.3417  0.2696
16972SOL     OW57776   9.417   6.096   1.133 -0.0380 -0.0121  0.8197
16972SOL    HW157777   9.406   6.065   1.043 -1.6817 -0.0856  1.0079
16972SOL    HW257778   9.479   6.036   1.173  1.5355  0.6420 -0.5400
16973SOL     OW57779   8.210   4.112   5.009  0.0793 -0.0014 -0.6582
16973SOL    HW157780   8.140   4.060   5.049  0.9034 -1.0897 -0.5874
16973SOL    HW257781   8.218   4.078   4.920  2.8703 -2.4506  0.3557
16974SOL     OW57782   6.387   9.222   4.471  0.5571  0.5568 -0.1061
16974SOL    HW157783   6.374   9.165   4.548  0.4441 -2.2191 -2.0172
16974SOL    HW257784   6.299   9.256   4.452 -0.7259 -3.2053 -2.0531
16975SOL     OW57785   7.039   7.416   9.364 -0.1945  0.2124 -0.0441
16975SOL    HW157786   7.102   7.410   9.292  1.4062 -1.3897  1.3879
16975SOL    HW257787   6.989   7.495   9.345  1.5328  0.9740 -1.8339
16976SOL     OW57788   7.390   6.669   8.447  0.4505  0.0294 -0.2873
16976SOL    HW157789   7.326   6.640   8.512  1.0158  1.0490  0.7665
16976SOL    HW257790   7.396   6.597   8.385 -1.0912 -0.4249  0.0531
16977SOL     OW57791   3.455   2.647   3.517  0.2575  0.0062  0.5895
16977SOL    HW157792   3.532   2.682   3.470  0.1314 -0.4370  0.0479
16977SOL    HW257793   3.381   2.670   3.461  0.1191 -0.6470  0.5049
16978SOL     OW57794   1.168   6.242   0.347  0.3448  0.3414  0.2074
16978SOL    HW157795   1.104   6.310   0.326 -0.4706  0.0464  1.5657
16978SOL    HW257796   1.232   6.246   0.276 -1.2264  0.5908 -1.2586
16979SOL     OW57797   5.720   3.411   6.711 -0.3061 -0.4926  0.4683
16979SOL    HW157798   5.649   3.363   6.752  0.3262 -1.2963  0.6518
16979SOL    HW257799   5.783   3.343   6.684  0.1983  0.1637 -0.0566
16980SOL     OW57800   3.469   9.674  10.436 -0.2267  0.2053 -0.7876
16980SOL    HW157801   3.426   9.590  10.422  0.9915 -0.7729  0.9900
16980SOL    HW257802   3.503   9.698  10.350 -1.3873 -0.6228 -1.5163
16981SOL     OW57803   4.676  12.140   8.595 -0.0059 -0.3850 -0.2393
16981SOL    HW157804   4.668  12.144   8.690  1.4873  0.1276 -0.1172
16981SOL    HW257805   4.679  12.047   8.575  3.0717 -0.5688  0.5821
16982SOL     OW57806   7.859   1.311  10.805 -0.3663 -0.2261 -0.2701
16982SOL    HW157807   7.791   1.268  10.753 -0.8473 -0.8102  0.8039
16982SOL    HW257808   7.810   1.356  10.874  0.2578  0.5467 -0.3240
16983SOL     OW57809   5.534   5.368   4.129  0.0017 -0.9112  0.1413
16983SOL    HW157810   5.468   5.308   4.095 -1.1443 -0.0905  0.8395
16983SOL    HW257811   5.509   5.454   4.096  1.1098 -0.6658 -0.1191
16984SOL     OW57812   6.913   8.798   9.470 -0.4892  0.1187 -0.3919
16984SOL    HW157813   6.973   8.804   9.544 -1.6269  0.1455  0.5628
16984SOL    HW257814   6.966   8.764   9.398  0.2025 -1.7803  0.9638
16985SOL     OW57815  12.098  10.823   4.139 -0.2766  0.3043  0.8849
16985SOL    HW157816  12.059  10.910   4.132 -0.3101  0.1782 -0.8136
16985SOL    HW257817  12.024  10.766   4.161 -0.1868  0.7334  2.3989
16986SOL     OW57818   8.354   3.091  11.708 -0.0038  0.3549 -0.8498
16986SOL    HW157819   8.425   3.143  11.745  0.9376 -0.2237 -1.7845
16986SOL    HW257820   8.297   3.072  11.782  1.6874 -0.5779  0.2776
16987SOL     OW57821   9.155  10.539   1.966  0.1383  0.1690  0.3895
16987SOL    HW157822   9.088  10.548   2.034 -1.2808 -3.0239 -0.3781
16987SOL    HW257823   9.236  10.520   2.013 -0.3868  0.0190  1.2485
16988SOL     OW57824   5.749   5.486   2.268 -0.5989 -0.5268 -0.2221
16988SOL    HW157825   5.755   5.538   2.348 -0.7232  0.3972 -0.7938
16988SOL    HW257826   5.655   5.482   2.250 -0.5013  0.7018 -1.1992
16989SOL     OW57827   8.310   5.638   2.210 -0.4893 -0.0845 -0.1707
16989SOL    HW157828   8.399   5.666   2.230  0.2009 -2.2375 -0.0280
16989SOL    HW257829   8.313   5.608   2.119 -1.8670  2.6921 -1.2436
16990SOL     OW57830   4.521  11.785   3.963 -0.0721  0.6369  0.7568
16990SOL    HW157831   4.586  11.845   4.000  0.3759 -0.3322  1.6092
16990SOL    HW257832   4.452  11.783   4.029 -1.7155  2.7711 -0.7848
16991SOL     OW57833   0.920   8.745   2.659 -0.4637  0.3380 -0.3593
16991SOL    HW157834   0.889   8.835   2.662 -0.9536  0.1594 -0.0287
16991SOL    HW257835   0.935   8.728   2.566  3.9294  2.2005 -0.2364
16992SOL     OW57836   4.131   7.941   3.147 -0.4672 -0.4066  0.3649
16992SOL    HW157837   4.179   7.985   3.217  0.3824 -0.9112  0.1249
16992SOL    HW257838   4.129   7.849   3.174  0.4423 -0.7212 -0.5512
16993SOL     OW57839   0.475   8.611   4.175  0.0347  0.2790  0.1272
16993SOL    HW157840   0.425   8.590   4.253 -0.6819 -1.2495 -0.6938
16993SOL    HW257841   0.522   8.530   4.154  0.8791  0.9195 -0.5558
16994SOL     OW57842   6.435   1.482   7.398 -0.2558  0.0744 -0.0282
16994SOL    HW157843   6.470   1.468   7.310  0.0452 -0.0082  0.1056
16994SOL    HW257844   6.424   1.394   7.434  0.3856  0.1353  0.3178
16995SOL     OW57845   2.880   6.663   8.797 -0.1000 -0.3573 -0.2370
16995SOL    HW157846   2.800   6.714   8.809  0.3819  0.3308  0.1330
16995SOL    HW257847   2.949   6.718   8.834  0.7058 -0.4476 -1.5459
16996SOL     OW57848   4.810   8.835  10.737  0.7363 -0.2222 -0.1277
16996SOL    HW157849   4.765   8.919  10.727  0.3774 -0.4089 -0.0810
16996SOL    HW257850   4.887   8.843  10.680  1.2364  0.5014  0.6156
16997SOL     OW57851  10.142   4.751   1.612 -0.2546  0.3695 -0.0312
16997SOL    HW157852  10.202   4.705   1.671 -1.5810  0.5484  1.5132
16997SOL    HW257853  10.106   4.681   1.557 -1.2684 -0.3103  1.4262
16998SOL     OW57854  10.288   2.638   2.253 -0.3501  0.3021 -0.3696
16998SOL    HW157855  10.275   2.555   2.207  0.8278  0.2353 -0.5940
16998SOL    HW257856  10.247   2.625   2.338 -1.9043  0.1722 -1.0960
16999SOL     OW57857   7.118   8.427   8.633  0.2963 -0.5227  0.0643
16999SOL    HW157858   7.025   8.450   8.636  0.4282  0.2255 -1.0926
16999SOL    HW257859   7.158   8.484   8.698 -0.1036 -1.2155  0.9486
17000SOL     OW57860   6.060   1.028   6.991 -0.2990 -0.3952  0.3406
17000SOL    HW157861   6.093   1.118   6.981 -0.0814 -0.4836  0.2589
17000SOL    HW257862   5.975   1.029   6.949  1.2032 -1.1651 -3.0224
17001SOL     OW57863   1.381   2.930   4.985 -0.2964  0.0502 -0.1543
17001SOL    HW157864   1.421   2.943   5.070 -0.9901  0.0901  0.1778
17001SOL    HW257865   1.290   2.905   5.005 -0.4457 -0.0118 -0.8744
17002SOL     OW57866   8.657   9.586  11.424 -0.2179  0.2375  0.1589
17002SOL    HW157867   8.679   9.665  11.374  0.5145 -0.1305 -0.1115
17002SOL    HW257868   8.740   9.541  11.436 -0.3624  0.3266  1.7664
17003SOL     OW57869   5.081  10.070  11.474 -0.0062  0.0424 -0.7149
17003SOL    HW157870   5.011  10.094  11.413  0.8580  0.2738 -1.6389
17003SOL    HW257871   5.139  10.014  11.423  0.9934  0.6223 -0.2456
17004SOL     OW57872   4.705  10.329   8.760  0.3173  0.2437  0.0177
17004SOL    HW157873   4.752  10.250   8.734  1.3273  1.1793 -1.1632
17004SOL    HW257874   4.732  10.344   8.851  0.7318 -0.3459 -0.0053
17005SOL     OW57875   1.010  10.718   0.356 -0.4784  0.1635  0.1572
17005SOL    HW157876   0.915  10.711   0.342 -0.2897 -0.9199 -0.7642
17005SOL    HW257877   1.047  10.644   0.308  0.8005  0.2088  1.0051
17006SOL     OW57878   6.468  10.933   3.943  0.5325 -0.3021  0.4086
17006SOL    HW157879   6.455  10.911   4.036 -1.3871  0.5584  0.3917
17006SOL    HW257880   6.435  10.856   3.896  0.2582 -0.1914  0.4211
17007SOL     OW57881   4.298  11.249   5.650 -0.0724 -0.5487  0.0704
17007SOL    HW157882   4.308  11.312   5.578  1.9686  1.5453  1.9996
17007SOL    HW257883   4.289  11.304   5.728  1.1749 -2.6285  1.7936
17008SOL     OW57884   5.122   3.239  11.830 -0.9820 -0.9652 -0.3175
17008SOL    HW157885   5.072   3.238  11.911 -1.2832 -2.4346 -0.4924
17008SOL    HW257886   5.103   3.154  11.789  0.7730 -1.1001 -0.9316
17009SOL     OW57887   7.553   4.639   7.028  0.0357 -0.1993 -0.0704
17009SOL    HW157888   7.551   4.697   7.104  0.5082 -0.6746  0.3048
17009SOL    HW257889   7.614   4.681   6.967 -0.1198  0.0316 -0.0669
17010SOL     OW57890   3.664   7.336   4.324  0.2922 -0.1494  0.0036
17010SOL    HW157891   3.741   7.304   4.371  0.1557  1.2165  1.2331
17010SOL    HW257892   3.689   7.424   4.295 -0.2092 -0.3594 -1.1251
17011SOL     OW57893  11.056   5.710   8.551 -0.5191  0.1471  0.1423
17011SOL    HW157894  10.992   5.643   8.525  0.7663 -0.6674 -1.0906
17011SOL    HW257895  11.122   5.708   8.481 -0.0994  2.2678  0.4082
17012SOL     OW57896   7.889   1.772   6.803 -0.2508  0.3092  0.8577
17012SOL    HW157897   7.871   1.707   6.736  0.0641  0.5588  0.5267
17012SOL    HW257898   7.852   1.853   6.770 -0.9374  0.2348  1.4211
17013SOL     OW57899   7.867   5.706   5.600  0.4200  0.2443 -0.6889
17013SOL    HW157900   7.796   5.704   5.535 -0.4273  0.4685  0.1978
17013SOL    HW257901   7.831   5.661   5.676  1.1345  0.6072 -0.1220
17014SOL     OW57902   9.901   7.734  10.676  0.0569 -0.6930 -0.2927
17014SOL    HW157903   9.996   7.722  10.683  0.0829  0.2346  1.5785
17014SOL    HW257904   9.881   7.804  10.738 -1.8202 -0.6321 -0.9052
17015SOL     OW57905   9.658  10.673   3.390  0.2503 -0.1764 -0.1654
17015SOL    HW157906   9.640  10.733   3.462  2.1453 -1.2216  1.2727
17015SOL    HW257907   9.741  10.631   3.414  0.2302 -1.5739 -2.2971
17016SOL     OW57908  10.211  11.109   6.257 -0.0077  0.3446 -0.0496
17016SOL    HW157909  10.242  11.019   6.250  0.3458  0.5061 -0.6160
17016SOL    HW257910  10.137  11.114   6.197 -0.8606  0.0815  0.9630
17017SOL     OW57911   6.684   9.778  11.839  0.0868 -0.3561  0.1956
17017SOL    HW157912   6.610   9.795  11.898  0.5884 -1.7787  1.2767
17017SOL    HW257913   6.660   9.698  11.793  0.8942 -0.7441  0.4454
17018SOL     OW57914  10.967   4.728   0.045  0.1906  0.0284 -0.3419
17018SOL    HW157915  10.893   4.670   0.065 -0.8200  1.3559 -0.1045
17018SOL    HW257916  11.044   4.678   0.072 -0.7434 -0.6480  1.2031
17019SOL     OW57917   9.082   6.789   6.966  0.1057 -0.2036 -1.0688
17019SOL    HW157918   9.060   6.744   7.048  1.4607 -0.3444 -0.7644
17019SOL    HW257919   9.057   6.727   6.898 -0.0654 -0.5159 -0.7286
17020SOL     OW57920   0.604   8.905   8.324 -0.5244  0.3147 -0.1635
17020SOL    HW157921   0.511   8.903   8.344 -0.7339  1.9153 -0.7969
17020SOL    HW257922   0.640   8.829   8.369 -2.1210 -0.3154  0.1181
17021SOL     OW57923   6.334  10.349  10.812 -0.6778  0.4308  0.0451
17021SOL    HW157924   6.303  10.290  10.744 -0.4984  1.8010 -1.2948
17021SOL    HW257925   6.369  10.292  10.880  0.1167 -0.9887 -1.4754
17022SOL     OW57926   7.216  10.896   5.454  0.2246  0.0774  0.1675
17022SOL    HW157927   7.184  10.976   5.495 -1.6087  0.2349 -1.4209
17022SOL    HW257928   7.239  10.922   5.365  3.6871 -0.3546  0.7805
17023SOL     OW57929   0.330  11.800   0.765 -0.4442 -0.2959  0.1233
17023SOL    HW157930   0.283  11.796   0.682  0.1271  0.3850 -0.2515
17023SOL    HW257931   0.401  11.863   0.749  0.2119 -0.8283  0.8576
17024SOL     OW57932   0.853   5.135   4.128  0.0643 -0.6197 -0.1651
17024SOL    HW157933   0.934   5.133   4.178  0.0407  0.5487 -0.0521
17024SOL    HW257934   0.797   5.069   4.169  0.2788 -0.1297  0.9570
17025SOL     OW57935   1.067   7.119   5.855 -0.3507  0.1153  0.1737
17025SOL    HW157936   1.078   7.104   5.761 -1.9871  1.2973 -0.2504
17025SOL    HW257937   1.139   7.177   5.880 -0.5200  0.6685 -0.5990
17026SOL     OW57938   6.948   9.230   8.958 -0.1305  0.0903 -0.3727
17026SOL    HW157939   7.018   9.188   8.908  2.6155  0.9792  2.4450
17026SOL    HW257940   6.915   9.298   8.899 -0.0415 -1.5639 -2.4796
17027SOL     OW57941   1.371   9.099   2.160 -0.0411  0.6537 -0.0106
17027SOL    HW157942   1.366   9.051   2.077  0.3060  1.9197 -0.7901
17027SOL    HW257943   1.366   9.031   2.227  0.3338 -0.4645 -1.0710
17028SOL     OW57944  10.883   5.486   2.355  0.5301 -0.5123  0.0168
17028SOL    HW157945  10.878   5.459   2.263  0.2741 -0.0900 -0.0947
17028SOL    HW257946  10.843   5.413   2.404  2.5539 -1.7193 -0.0042
17029SOL     OW57947  12.109   7.578   8.720  0.3139 -0.7705  0.0139
17029SOL    HW157948  12.196   7.598   8.755 -0.2111  0.2397  0.7807
17029SOL    HW257949  12.050   7.591   8.794 -0.5867 -0.6682 -0.7103
17030SOL     OW57950   2.639   3.665   1.459 -0.2899  0.3479 -0.0097
17030SOL    HW157951   2.557   3.706   1.487 -1.0236  0.4858 -2.1518
17030SOL    HW257952   2.626   3.572   1.476 -1.0920  0.3136 -0.7443
17031SOL     OW57953   1.955   5.519   7.111 -0.2897 -0.1446  0.0447
17031SOL    HW157954   2.010   5.441   7.102  0.4661  0.4258 -0.4023
17031SOL    HW257955   1.942   5.550   7.022  1.6947  1.7658  0.3392
17032SOL     OW57956   9.003  10.365  10.682  0.5061  0.1950  0.0366
17032SOL    HW157957   9.050  10.447  10.669  1.7440 -0.0323  2.5453
17032SOL    HW257958   8.912  10.386  10.660  1.1317  1.6344 -1.3812
17033SOL     OW57959  11.232  11.653   8.895 -0.1992  0.0971 -0.3098
17033SOL    HW157960  11.327  11.658   8.883  0.0395 -0.9957  0.8464
17033SOL    HW257961  11.196  11.660   8.806  0.9515  0.5542 -0.7617
17034SOL     OW57962   2.828   9.676   2.783 -0.5018 -0.3821  0.6733
17034SOL    HW157963   2.820   9.624   2.863 -1.9165  0.5402  1.1776
17034SOL    HW257964   2.810   9.766   2.811  1.4983  0.3684 -0.2423
17035SOL     OW57965   0.781   3.652   0.737 -0.0091 -0.3860  0.2211
17035SOL    HW157966   0.778   3.572   0.684  0.0841 -1.5797  1.9187
17035SOL    HW257967   0.697   3.695   0.720 -0.7186 -1.6384  0.4132
17036SOL     OW57968  10.370  12.476   7.189 -0.2661  0.1035  0.1751
17036SOL    HW157969  10.401  12.458   7.101  0.9928 -2.0334  0.9921
17036SOL    HW257970  10.345  12.569   7.187  1.0993  0.4956 -2.0064
17037SOL     OW57971   0.714   7.191  10.970  0.2262  0.1010  0.4393
17037SOL    HW157972   0.714   7.105  10.927 -1.5367  0.1220  0.3379
17037SOL    HW257973   0.685   7.173  11.059 -0.9162  0.6639  0.2021
17038SOL     OW57974   8.918  11.091   6.886 -0.2310 -0.1382  0.1737
17038SOL    HW157975   8.885  11.160   6.942 -0.4439 -0.3194  0.2723
17038SOL    HW257976   8.907  11.011   6.937  0.3353 -0.2057  0.2016
17039SOL     OW57977   9.870   9.759   5.474 -0.3013  0.1023 -0.4344
17039SOL    HW157978   9.808   9.773   5.545 -0.6427 -2.1184 -0.2368
17039SOL    HW257979   9.834   9.686   5.424  1.2448 -0.0908 -1.3507
17040SOL     OW57980   4.267   1.581  11.583  0.7492  0.1701 -0.0944
17040SOL    HW157981   4.225   1.565  11.499 -0.1764 -1.1083  0.5738
17040SOL    HW257982   4.361   1.583  11.562  0.5132  0.3500 -1.2123
17041SOL     OW57983   9.426   3.600   2.170  0.3216  0.3315  0.0007
17041SOL    HW157984   9.351   3.651   2.138 -0.2566  0.5734  1.6442
17041SOL    HW257985   9.388   3.518   2.200  0.6280  0.5729  1.1301
17042SOL     OW57986   9.668  11.727   5.009 -0.0094 -0.0402 -0.1948
17042SOL    HW157987   9.746  11.721   5.066  1.6265  0.7551 -2.2194
17042SOL    HW257988   9.664  11.642   4.966 -1.6505 -0.8881  1.4874
17043SOL     OW57989   2.181   9.406   0.786 -0.3759  0.0189 -0.3020
17043SOL    HW157990   2.267   9.367   0.776 -0.3991 -0.0029 -0.4119
17043SOL    HW257991   2.121   9.347   0.740 -0.4216  0.1408 -0.4013
17044SOL     OW57992   4.851   2.515   5.567 -0.2616 -0.4139 -0.0031
17044SOL    HW157993   4.945   2.531   5.567  0.0124 -1.8891  0.5892
17044SOL    HW257994   4.812   2.599   5.543  1.2153  0.1154 -0.6349
17045SOL     OW57995   1.238   6.401   4.631 -0.5845 -0.0727 -0.6017
17045SOL    HW157996   1.320   6.360   4.601  0.0962  1.4607 -0.9728
17045SOL    HW257997   1.262   6.442   4.714 -1.1128 -0.0567 -0.4598
17046SOL     OW57998  10.246   3.036   9.320  0.8064 -0.5422  0.6623
17046SOL    HW157999  10.300   3.054   9.243  0.3673 -0.1835  0.4356
17046SOL    HW258000  10.224   2.944   9.313  2.0335 -0.8880  1.1672
17047SOL     OW58001   9.156   2.405   1.478 -0.7526  0.2496  0.2137
17047SOL    HW158002   9.197   2.343   1.537 -0.6689 -0.7943 -0.9000
17047SOL    HW258003   9.224   2.471   1.462 -0.1778 -0.3855 -0.0364
17048SOL     OW58004   2.882  12.307   1.613 -0.5896  0.2691  0.5369
17048SOL    HW158005   2.931  12.262   1.544 -1.9834  1.1747 -1.1160
17048SOL    HW258006   2.869  12.396   1.579 -1.7682  0.5865  1.7310
17049SOL     OW58007   3.989   3.493   2.002 -0.0896 -0.0631  0.0227
17049SOL    HW158008   3.957   3.452   1.922 -0.1078  0.5213 -0.2728
17049SOL    HW258009   3.928   3.565   2.019  0.6475  0.6067 -0.1449
17050SOL     OW58010   6.625   2.290   3.117 -0.0622  0.7723  0.5561
17050SOL    HW158011   6.685   2.355   3.153  0.9815 -0.7290  1.6959
17050SOL    HW258012   6.681   2.218   3.089 -1.1974  0.1675 -0.2532
17051SOL     OW58013  10.108   4.021   9.555  0.0763 -0.2816  1.1654
17051SOL    HW158014  10.032   4.077   9.569  1.0422  1.6518 -0.7974
17051SOL    HW258015  10.084   3.966   9.480  0.9624  1.1385 -0.2091
17052SOL     OW58016   6.280   5.750  10.361 -0.1334 -0.0454  0.5065
17052SOL    HW158017   6.371   5.775  10.344 -0.0241 -1.4240 -1.2605
17052SOL    HW258018   6.230   5.803  10.299 -0.2179 -1.4791 -0.6981
17053SOL     OW58019   9.594   1.806   2.343 -0.2667 -0.3895  0.1225
17053SOL    HW158020   9.576   1.826   2.251  1.1268 -2.7078 -0.7600
17053SOL    HW258021   9.685   1.834   2.356  0.0438 -1.4472  0.3147
17054SOL     OW58022   3.252   7.696   7.289  0.0311 -0.7449 -0.2324
17054SOL    HW158023   3.333   7.727   7.330  0.1963  0.8745 -1.6868
17054SOL    HW258024   3.188   7.764   7.308 -1.2892 -2.4165  1.6429
17055SOL     OW58025   7.257   6.207  10.985  0.0484  0.4982  0.1331
17055SOL    HW158026   7.288   6.152  10.913  0.7630 -1.9095  2.1122
17055SOL    HW258027   7.189   6.154  11.027 -1.3927  2.4668  0.4042
17056SOL     OW58028   8.979   7.873  12.436 -0.2140  0.7198 -0.1474
17056SOL    HW158029   8.944   7.794  12.478  1.2534 -0.3612 -0.8687
17056SOL    HW258030   8.914   7.895  12.369 -0.7297  0.2572  0.1822
17057SOL     OW58031   5.842   9.267  11.380  0.5431 -0.2561 -0.6230
17057SOL    HW158032   5.875   9.341  11.329 -1.0278  0.7518 -0.2341
17057SOL    HW258033   5.859   9.292  11.471  0.0462 -0.3923 -0.4913
17058SOL     OW58034   8.595   0.977   4.524  0.8564  0.2644 -0.5373
17058SOL    HW158035   8.551   0.906   4.571  0.1022  0.6646 -0.6188
17058SOL    HW258036   8.678   0.989   4.570  1.7618 -1.7697 -1.4960
17059SOL     OW58037   3.376   2.782   2.448 -0.4083  0.0317  0.1852
17059SOL    HW158038   3.422   2.755   2.369 -0.7547 -0.0947  0.0222
17059SOL    HW258039   3.303   2.720   2.456  1.6237 -2.2754  2.5967
17060SOL     OW58040   5.272   9.340   4.834  0.7786  0.2955  0.5202
17060SOL    HW158041   5.321   9.407   4.785 -1.0870 -0.0203 -1.9437
17060SOL    HW258042   5.310   9.257   4.806 -0.4047  0.1054 -0.6497
17061SOL     OW58043  10.561   4.601   0.829  0.5311 -0.1643 -0.4083
17061SOL    HW158044  10.606   4.543   0.768 -0.0087  0.8655 -1.8358
17061SOL    HW258045  10.627   4.665   0.855  0.8432 -0.7847  0.3340
17062SOL     OW58046   1.542   1.770   9.745 -0.1158 -0.7751 -0.7773
17062SOL    HW158047   1.506   1.859   9.743  2.3753  0.3184 -2.7950
17062SOL    HW258048   1.516   1.731   9.661  0.8908 -0.9991 -1.0026
17063SOL     OW58049   0.982  10.767   7.121  0.0088  0.4027  0.4224
17063SOL    HW158050   0.926  10.822   7.066  0.8002 -0.3585 -1.2463
17063SOL    HW258051   1.050  10.737   7.061 -0.1651 -2.0644  1.3659
17064SOL     OW58052   5.427   8.158   3.182  0.4458 -0.2785  0.0728
17064SOL    HW158053   5.497   8.222   3.176  0.3430 -0.3000 -1.6814
17064SOL    HW258054   5.458   8.096   3.249  1.9608 -0.1211 -0.4391
17065SOL     OW58055   7.161  12.231   9.589  0.1195  0.1968 -0.0466
17065SOL    HW158056   7.136  12.292   9.660  1.3843 -0.0565  0.6445
17065SOL    HW258057   7.102  12.157   9.601  0.2456  0.2003  0.6948
17066SOL     OW58058   1.402  10.345  10.698 -0.2578 -0.1268 -0.1944
17066SOL    HW158059   1.455  10.283  10.749  0.5253  1.1636  0.6177
17066SOL    HW258060   1.329  10.366  10.755  0.2854  0.8387  0.1637
17067SOL     OW58061   8.619   9.674   8.760  0.3097 -0.5259  0.2486
17067SOL    HW158062   8.649   9.630   8.681  0.9446  0.3147  0.0224
17067SOL    HW258063   8.688   9.658   8.824  0.4642  0.0066  0.2153
17068SOL     OW58064   5.064   0.413   8.390  0.0656 -0.6815  0.1796
17068SOL    HW158065   5.019   0.425   8.307  0.3890 -1.1276 -0.0637
17068SOL    HW258066   5.100   0.499   8.411 -1.1313 -0.2424  0.5283
17069SOL     OW58067   5.771   9.520  12.266  0.0746 -0.4712 -0.3243
17069SOL    HW158068   5.698   9.578  12.246 -0.2704 -0.7969 -0.0316
17069SOL    HW258069   5.746   9.477  12.347  1.3111  0.6041  0.6789
17070SOL     OW58070   4.093   7.514  11.549 -0.5563 -0.4458  0.0749
17070SOL    HW158071   4.004   7.543  11.570  0.2264  1.0021  1.6286
17070SOL    HW258072   4.131   7.490  11.634  1.2487  1.1453 -0.2097
17071SOL     OW58073   8.057   9.294   9.144  0.8682  0.4260  0.0011
17071SOL    HW158074   8.083   9.205   9.121  1.5938  1.0501 -1.7969
17071SOL    HW258075   7.996   9.284   9.217 -0.7557 -1.6758 -1.5400
17072SOL     OW58076   8.141   2.625   2.483 -0.2418 -0.4602 -0.1657
17072SOL    HW158077   8.185   2.558   2.536 -1.0871 -0.5582  0.4211
17072SOL    HW258078   8.162   2.707   2.527  0.2577 -0.3895 -0.5192
17073SOL     OW58079   8.184  10.259  10.528 -0.2360 -1.1208  0.1395
17073SOL    HW158080   8.191  10.203  10.451  1.5452 -1.5568  0.5484
17073SOL    HW258081   8.244  10.218  10.592  0.6304  0.8641  0.6856
17074SOL     OW58082   7.559   0.738   3.786  0.0363  0.4328  0.1068
17074SOL    HW158083   7.574   0.688   3.706 -0.5846  1.5463 -0.7321
17074SOL    HW258084   7.631   0.801   3.789  0.1825  0.2495  0.5528
17075SOL     OW58085   9.920   4.206   2.037 -0.2986 -0.0787  0.8414
17075SOL    HW158086   9.989   4.141   2.053  0.0046  0.0339  0.0292
17075SOL    HW258087   9.846   4.155   2.005 -0.3731 -0.1298  1.0986
17076SOL     OW58088  10.107   9.582  12.031  0.2668 -0.3452 -0.1739
17076SOL    HW158089  10.058   9.662  12.051  0.7118  0.1729 -1.0865
17076SOL    HW258090  10.068   9.550  11.950  0.3123 -0.8726  0.0090
17077SOL     OW58091  12.440   4.181   5.494  0.4324  0.2396 -0.6716
17077SOL    HW158092  12.439   4.200   5.587 -1.6308  0.9364 -0.7719
17077SOL    HW258093  12.532   4.188   5.468  1.0270  0.1271  1.2580
17078SOL     OW58094   7.166   4.773   5.943  0.5725 -0.3238 -0.1509
17078SOL    HW158095   7.192   4.698   5.996 -0.9412 -0.8377 -0.0762
17078SOL    HW258096   7.107   4.823   6.000  1.3095  0.7717 -0.3118
17079SOL     OW58097   6.746   7.236  11.587 -0.1308  0.1895 -0.1519
17079SOL    HW158098   6.655   7.261  11.573  0.2620  1.2376 -0.8996
17079SOL    HW258099   6.776   7.204  11.502  0.5515  1.0248 -0.2435
17080SOL     OW58100   4.598   1.850   3.219  0.3508 -0.0739 -0.2094
17080SOL    HW158101   4.648   1.893   3.289  1.2877 -3.8564  1.7497
17080SOL    HW258102   4.516   1.825   3.261 -0.2795  0.0558 -1.3452
17081SOL     OW58103  11.428   1.226   3.868  0.2784 -0.2340  0.6305
17081SOL    HW158104  11.403   1.303   3.919 -0.7407  0.4023 -0.7514
17081SOL    HW258105  11.523   1.230   3.863  0.3157  0.3065  1.5042
17082SOL     OW58106   7.545  11.029   4.148  0.5885 -0.3300 -0.4264
17082SOL    HW158107   7.620  11.042   4.206  0.4773  0.0486 -0.3610
17082SOL    HW258108   7.580  10.977   4.076  0.6909 -0.9383  0.0519
17083SOL     OW58109   4.604   5.501   7.610  0.3954  0.0916  0.1981
17083SOL    HW158110   4.686   5.509   7.562  0.9982 -0.8259  1.0450
17083SOL    HW258111   4.629   5.471   7.697 -0.9505 -2.2954 -0.1421
17084SOL     OW58112   4.719   7.059   1.996 -0.2612 -0.2160 -0.4383
17084SOL    HW158113   4.676   7.079   2.079  1.4215  1.4010  0.1005
17084SOL    HW258114   4.749   6.968   2.006 -0.4959 -0.2009  0.5271
17085SOL     OW58115   2.534   9.892  10.531 -0.0322 -0.2554  0.3888
17085SOL    HW158116   2.521   9.809  10.577  0.8972 -0.5354  0.1738
17085SOL    HW258117   2.495   9.958  10.588 -0.3857 -0.7901  0.7729
17086SOL     OW58118   1.563   8.238   3.300  0.1442 -0.0335  0.1889
17086SOL    HW158119   1.509   8.255   3.223  1.7707  0.2496 -0.9484
17086SOL    HW258120   1.597   8.324   3.325  1.7967 -0.4532 -0.4939
17087SOL     OW58121  10.059   0.055   8.293 -0.2941  0.0497 -0.2165
17087SOL    HW158122   9.966   0.073   8.281 -0.2662  1.1962  1.0093
17087SOL    HW258123  10.062  -0.023   8.349 -0.5343  0.3392  0.2051
17088SOL     OW58124  10.810   1.956   8.969  0.0104 -0.8258  0.1019
17088SOL    HW158125  10.747   2.023   8.995  0.3852 -0.2798 -0.3734
17088SOL    HW258126  10.835   1.980   8.880 -0.0336 -1.7383 -0.1662
17089SOL     OW58127   1.241   1.305   0.415 -0.4497  0.1835  0.2000
17089SOL    HW158128   1.242   1.214   0.388 -1.0823 -0.2321  1.5101
17089SOL    HW258129   1.221   1.303   0.508  1.4020  1.5575  0.7065
17090SOL     OW58130   1.657   8.024   8.806  0.0482 -1.0305  0.2127
17090SOL    HW158131   1.725   7.984   8.752 -0.0301 -0.3162 -0.4281
17090SOL    HW258132   1.576   8.015   8.755  0.1839  0.7797 -0.4294
17091SOL     OW58133   1.032   8.083   4.182  0.4340  0.4640  0.1509
17091SOL    HW158134   1.044   8.003   4.131 -2.1267  2.5056 -4.1661
17091SOL    HW258135   0.996   8.052   4.265  0.2323 -2.9092 -1.0052
17092SOL     OW58136   7.450   5.488   9.524 -0.8302 -0.0570  0.2447
17092SOL    HW158137   7.462   5.393   9.523  0.4147  0.0903 -0.4057
17092SOL    HW258138   7.480   5.515   9.611  0.6268 -0.0624 -0.2342
17093SOL     OW58139   6.854   9.669   0.055  0.3520  0.3210  0.2714
17093SOL    HW158140   6.793   9.711  -0.006 -1.3560 -0.3413  1.4753
17093SOL    HW258141   6.935   9.660   0.004 -0.0299  2.6175 -0.8803
17094SOL     OW58142   3.263   0.418   9.724 -0.9383  0.1569  0.0993
17094SOL    HW158143   3.326   0.364   9.677 -0.6954  1.0353 -0.6316
17094SOL    HW258144   3.270   0.390   9.815 -0.4698 -0.6857 -0.1877
17095SOL     OW58145  10.456  11.515   1.274 -0.0636 -0.4171  0.2940
17095SOL    HW158146  10.488  11.437   1.317  0.9279  0.5136  1.2967
17095SOL    HW258147  10.416  11.567   1.344 -1.6585 -0.4726 -0.5293
17096SOL     OW58148  11.271   3.327  10.466  0.3901 -0.2255  0.6198
17096SOL    HW158149  11.286   3.287  10.552  0.5271 -1.2747  0.1328
17096SOL    HW258150  11.342   3.390  10.455  0.8995 -0.7475  0.8962
17097SOL     OW58151   0.255   0.249   4.339 -0.9875  0.4528  0.4503
17097SOL    HW158152   0.265   0.342   4.355  1.1183  0.2969  0.2384
17097SOL    HW258153   0.230   0.243   4.246  0.5785  0.7561 -0.0098
17098SOL     OW58154   5.991   8.989   9.948 -0.0976 -0.2751  0.0817
17098SOL    HW158155   6.028   9.065   9.903  0.5906 -0.3290  0.5388
17098SOL    HW258156   6.010   8.915   9.891 -0.3017 -0.1800 -0.1123
17099SOL     OW58157  10.350  10.046   9.111 -0.3418  0.0364  1.1993
17099SOL    HW158158  10.380   9.955   9.102  1.0035  0.4918  0.8779
17099SOL    HW258159  10.305  10.065   9.028  0.8473  0.1745  0.5632
17100SOL     OW58160   5.770   2.444   8.735 -0.3998 -0.2077 -0.0960
17100SOL    HW158161   5.844   2.465   8.678 -0.6347 -0.1427 -0.3808
17100SOL    HW258162   5.729   2.529   8.752 -1.6080 -0.4580 -1.6007
17101SOL     OW58163   4.881  11.296   2.951  0.1787 -0.1402  0.2235
17101SOL    HW158164   4.842  11.347   2.880  0.0743  0.3101  0.6026
17101SOL    HW258165   4.938  11.358   2.997  0.7609 -0.5955  0.1398
17102SOL     OW58166   2.774   4.812   7.469  0.0316  0.7719  0.1069
17102SOL    HW158167   2.686   4.839   7.497 -0.3823  0.5639 -0.9376
17102SOL    HW258168   2.811   4.890   7.427 -0.4098  0.3243 -1.1603
17103SOL     OW58169  10.454   3.158   3.583 -0.0879 -0.1982 -0.1272
17103SOL    HW158170  10.375   3.104   3.588  0.3470 -0.7151  2.0950
17103SOL    HW258171  10.428   3.241   3.623  0.3872 -0.2641  0.3269
17104SOL     OW58172  12.207  12.275   7.882  0.0930 -0.4655  0.2580
17104SOL    HW158173  12.226  12.340   7.949 -0.5551 -0.9083  0.8871
17104SOL    HW258174  12.232  12.317   7.800  1.0122  0.0412  0.7802
17105SOL     OW58175   0.437   9.124   6.983 -0.3636 -0.0607 -0.3899
17105SOL    HW158176   0.518   9.120   6.932 -0.7574  2.1096 -1.2881
17105SOL    HW258177   0.383   9.053   6.949  0.2901 -0.0908 -1.4006
17106SOL     OW58178   0.085   2.692   0.577  0.6330 -0.3749  0.1157
17106SOL    HW158179   0.100   2.770   0.629  2.2871  0.5255 -1.6211
17106SOL    HW258180  -0.004   2.702   0.544  0.9364  0.9685 -0.3562
17107SOL     OW58181   3.624   0.912   4.524 -0.0619 -0.1741  0.4544
17107SOL    HW158182   3.674   0.862   4.459  0.3764  1.9361 -0.9344
17107SOL    HW258183   3.538   0.923   4.486  0.2790  1.3171  0.0292
17108SOL     OW58184  10.860  12.131  12.228  0.2549 -0.2121  0.0835
17108SOL    HW158185  10.813  12.079  12.293 -0.0429  2.0150  1.7583
17108SOL    HW258186  10.941  12.083  12.213 -0.6535 -1.9148  0.3884
17109SOL     OW58187   0.787   0.578   3.450 -0.0656 -0.1129 -0.7801
17109SOL    HW158188   0.731   0.639   3.498  0.1237  0.2205 -0.9799
17109SOL    HW258189   0.727   0.519   3.405 -0.2857 -1.3335  0.9539
17110SOL     OW58190   1.708   0.467  10.215  0.0538 -0.3699 -0.7073
17110SOL    HW158191   1.803   0.468  10.204  0.3695 -0.7481  1.4532
17110SOL    HW258192   1.694   0.510  10.299 -1.7275 -0.0402 -1.1440
17111SOL     OW58193   5.241   0.584   6.698 -0.2362 -0.0366  0.3082
17111SOL    HW158194   5.277   0.657   6.648  2.2342 -1.0861  0.4312
17111SOL    HW258195   5.216   0.623   6.782 -1.4482  1.1275 -0.5542
17112SOL     OW58196   3.902   9.791   7.323 -0.1090 -0.0181 -0.3274
17112SOL    HW158197   3.834   9.852   7.351  0.2160 -0.2131  0.9212
17112SOL    HW258198   3.859   9.736   7.257 -1.2547 -0.3313  0.6461
17113SOL     OW58199   1.637   2.676   0.969  0.5509  0.7389  0.9427
17113SOL    HW158200   1.609   2.584   0.967 -0.2409  0.8995  2.9634
17113SOL    HW258201   1.635   2.703   0.877 -0.9410 -0.7505  0.4827
17114SOL     OW58202   6.670  11.760   6.301 -0.2205  0.4740 -0.0525
17114SOL    HW158203   6.751  11.796   6.265 -1.0186  3.0020  0.4912
17114SOL    HW258204   6.681  11.665   6.294  2.3038  0.7572 -0.9924
17115SOL     OW58205   7.286   0.970   2.827  0.4669 -0.2738  0.1339
17115SOL    HW158206   7.221   0.939   2.889  2.7996 -1.4260  2.1813
17115SOL    HW258207   7.311   0.893   2.776 -1.4979  0.6705 -2.4987
17116SOL     OW58208   1.891   6.335   3.485 -0.2119 -0.3800 -0.1838
17116SOL    HW158209   1.966   6.292   3.527  0.6589 -0.0816 -1.3608
17116SOL    HW258210   1.924   6.358   3.398 -0.8266  2.1274  0.1889
17117SOL     OW58211   5.634  10.262   2.292 -0.2234  0.4301 -0.3175
17117SOL    HW158212   5.601  10.305   2.212  1.4005 -0.7924 -1.7166
17117SOL    HW258213   5.564  10.202   2.317 -1.0241  1.2886 -0.4351
17118SOL     OW58214   8.857   4.124   4.769  0.2583  0.0935  0.8265
17118SOL    HW158215   8.875   4.176   4.691  1.0073  1.4514  1.8645
17118SOL    HW258216   8.927   4.059   4.771 -0.1554 -0.3997  0.0212
17119SOL     OW58217   0.710  11.434   9.173 -0.3030 -0.2238  0.9142
17119SOL    HW158218   0.800  11.455   9.146 -0.1550 -0.1525  1.4383
17119SOL    HW258219   0.655  11.487   9.117 -0.1315 -1.9232 -0.9887
17120SOL     OW58220   1.396   5.250   1.248  0.0837  0.3704 -0.5042
17120SOL    HW158221   1.486   5.250   1.214 -0.0270  0.2574 -0.8008
17120SOL    HW258222   1.404   5.215   1.337  0.0891 -1.4072 -1.1783
17121SOL     OW58223  11.688   4.090   3.183  0.0077 -0.4451 -0.0279
17121SOL    HW158224  11.758   4.026   3.195 -0.9905 -2.0403 -2.1030
17121SOL    HW258225  11.608   4.042   3.202 -0.7245  0.4080 -0.8745
17122SOL     OW58226   8.292   0.834   1.524 -0.4013  0.1165 -0.2038
17122SOL    HW158227   8.306   0.887   1.446 -4.0971 -1.4889 -2.1527
17122SOL    HW258228   8.356   0.763   1.517  0.4343  0.9041 -0.8076
17123SOL     OW58229  10.996  10.437   6.211 -0.1109 -0.1580  0.4246
17123SOL    HW158230  11.013  10.397   6.126 -1.8063 -0.3095  0.1292
17123SOL    HW258231  11.063  10.505   6.220  1.0383 -1.1486 -0.3262
17124SOL     OW58232   0.369  11.150   5.657 -0.2139 -0.5980 -0.0333
17124SOL    HW158233   0.385  11.109   5.742 -1.3408 -0.9921 -0.0064
17124SOL    HW258234   0.283  11.190   5.666  0.0823  0.2127 -0.6762
17125SOL     OW58235   2.935   5.738   4.324 -0.1556  0.3206  0.0610
17125SOL    HW158236   2.880   5.681   4.270 -0.8206  1.5408 -0.6091
17125SOL    HW258237   3.012   5.685   4.346 -1.1541 -1.1148  0.2307
17126SOL     OW58238  10.966   3.625   2.627 -0.6286  0.1459 -0.1779
17126SOL    HW158239  10.994   3.560   2.563 -0.2242  1.1554 -1.0681
17126SOL    HW258240  11.041   3.635   2.686 -0.1118  0.8650 -0.9320
17127SOL     OW58241   9.079   0.189   0.114  0.1815 -0.1405  0.1563
17127SOL    HW158242   9.104   0.245   0.041  0.3753 -2.9166 -2.0794
17127SOL    HW258243   9.157   0.185   0.169  1.1032 -0.3842 -1.1314
17128SOL     OW58244   5.633   4.102   9.603  0.0129 -0.1772 -0.0486
17128SOL    HW158245   5.543   4.080   9.624 -0.9363  2.3057 -1.1840
17128SOL    HW258246   5.656   4.171   9.665  0.9962 -0.4759 -0.0610
17129SOL     OW58247   9.948   4.390   9.323  0.5151  0.2470 -0.2372
17129SOL    HW158248   9.860   4.421   9.340  0.6770  0.2026  0.7130
17129SOL    HW258249  10.005   4.450   9.371  1.1091  1.1331 -1.9606
17130SOL     OW58250   3.232   6.997   0.174 -0.6273  0.6646  0.5217
17130SOL    HW158251   3.255   7.067   0.113  0.2284 -0.3319 -0.3593
17130SOL    HW258252   3.302   6.932   0.163 -0.4914  0.4074  2.5183
17131SOL     OW58253   9.799   4.854  11.393  0.0108  0.1106  0.4877
17131SOL    HW158254   9.856   4.823  11.323  0.5488 -0.3203  1.1095
17131SOL    HW258255   9.748   4.924  11.352  0.8686  0.4010 -0.1124
17132SOL     OW58256   0.176  10.286   1.249 -0.0436 -0.0196 -0.1978
17132SOL    HW158257   0.103  10.227   1.229 -0.1102  0.5324 -1.7597
17132SOL    HW258258   0.139  10.374   1.240  0.1256  0.2942  1.8372
17133SOL     OW58259  12.464   3.845   5.916 -0.4538 -0.1752 -0.1080
17133SOL    HW158260  12.473   3.779   5.985 -0.0288 -0.6601 -0.6084
17133SOL    HW258261  12.411   3.803   5.849  1.0260 -0.5827 -1.0835
17134SOL     OW58262   8.310   3.341   4.406  0.0587 -0.2958  0.7600
17134SOL    HW158263   8.367   3.397   4.353  1.1346 -2.2683 -0.3055
17134SOL    HW258264   8.230   3.333   4.355  1.1518 -2.3267 -0.7865
17135SOL     OW58265   8.602   3.098   2.458 -0.4172 -0.4798 -0.3256
17135SOL    HW158266   8.670   3.045   2.415  1.0486  0.4690  0.7144
17135SOL    HW258267   8.552   3.035   2.510  0.7933 -0.9850  0.2615
17136SOL     OW58268   8.792   6.667   1.392  0.0109  0.0629  0.5952
17136SOL    HW158269   8.711   6.617   1.388  0.0932 -0.3026  2.3797
17136SOL    HW258270   8.850   6.615   1.448  0.9707  0.9899  0.5018
17137SOL     OW58271   6.264   7.896   6.326 -0.2625  0.0177 -0.3679
17137SOL    HW158272   6.189   7.867   6.378  0.4770 -0.3058  0.5367
17137SOL    HW258273   6.320   7.942   6.388  0.2784  0.2968 -1.0466
17138SOL     OW58274   2.562   7.694  11.965  0.3675  0.2743  0.1146
17138SOL    HW158275   2.482   7.715  12.014  0.1791  1.8891 -0.7996
17138SOL    HW258276   2.624   7.663  12.031 -1.7194 -3.5150  0.5721
17139SOL     OW58277  11.492   3.041   4.529 -0.5713 -0.0308  0.1888
17139SOL    HW158278  11.492   2.964   4.586 -2.5900  0.1703  0.5313
17139SOL    HW258279  11.465   3.113   4.585  1.9153  1.1331  0.0280
17140SOL     OW58280   5.536  10.894   4.506 -0.2874 -0.1339  0.2473
17140SOL    HW158281   5.607  10.944   4.545 -0.7518  1.1654 -0.5302
17140SOL    HW258282   5.578  10.841   4.439  0.2079 -0.8352  1.0856
17141SOL     OW58283  11.475   7.169   3.619  0.4746  0.3886  0.3683
17141SOL    HW158284  11.543   7.196   3.681  0.6795 -0.5910  0.5878
17141SOL    HW258285  11.525   7.134   3.544  0.2130  0.5963  0.0930
17142SOL     OW58286   9.795   4.575   0.440 -0.3665 -0.2852 -0.2400
17142SOL    HW158287   9.838   4.561   0.356  0.1608  0.0698 -0.0372
17142SOL    HW258288   9.859   4.623   0.492 -1.6073  1.8066 -0.5128
17143SOL     OW58289   1.776  11.502   8.377  0.0780 -0.0910  0.4018
17143SOL    HW158290   1.870  11.502   8.359 -0.2147 -2.0831 -1.4719
17143SOL    HW258291   1.765  11.572   8.441  2.4564  1.9997 -1.2567
17144SOL     OW58292   2.839  12.354   3.571  0.0165  0.1438 -0.0423
17144SOL    HW158293   2.783  12.277   3.559  2.1497 -1.3151 -1.4592
17144SOL    HW258294   2.860  12.383   3.482  0.9425  1.0497  0.4489
17145SOL     OW58295  10.344   9.631   2.241 -0.3707 -0.1190  0.3366
17145SOL    HW158296  10.262   9.634   2.191 -1.4663  1.2251  2.1026
17145SOL    HW258297  10.384   9.717   2.224 -0.2652 -0.0445  0.9639
17146SOL     OW58298   6.176   3.491   5.082 -0.1317  0.1514 -0.2074
17146SOL    HW158299   6.188   3.397   5.072 -0.8230  0.0415 -0.0757
17146SOL    HW258300   6.168   3.524   4.992  0.9613  0.2104 -0.2901
17147SOL     OW58301   1.722   5.033   8.739  0.1412 -0.0227 -0.1684
17147SOL    HW158302   1.710   5.061   8.830 -0.0850  0.5481 -0.3740
17147SOL    HW258303   1.675   4.950   8.734 -0.2339  0.1684  0.1169
17148SOL     OW58304   1.723   2.786   9.242 -0.4521 -0.5620  0.1970
17148SOL    HW158305   1.671   2.724   9.191  0.2969 -0.6521 -0.4831
17148SOL    HW258306   1.762   2.844   9.177  1.9030 -1.7271  0.4447
17149SOL     OW58307   3.402   6.032   5.996  0.2247 -0.1986 -0.2976
17149SOL    HW158308   3.469   6.034   6.065  0.9095 -0.7522 -0.9265
17149SOL    HW258309   3.319   6.029   6.043  0.5941  1.1767  0.5159
17150SOL     OW58310   3.838   0.733  11.536 -0.8081 -0.3384 -0.5522
17150SOL    HW158311   3.873   0.785  11.463 -0.4117  1.0194  0.5646
17150SOL    HW258312   3.913   0.719  11.594 -0.3309 -4.1034 -1.7985
17151SOL     OW58313   2.200  10.160   2.717  0.3229  0.0503  0.4242
17151SOL    HW158314   2.224  10.116   2.636 -1.1988  0.3216 -0.2226
17151SOL    HW258315   2.161  10.243   2.689  0.2729  0.4057  1.4647
17152SOL     OW58316   6.815   3.131   1.938 -0.1153 -0.4181  0.2760
17152SOL    HW158317   6.861   3.118   1.856 -0.3923 -1.6054  0.2922
17152SOL    HW258318   6.738   3.184   1.915  0.7488  0.8088  0.1040
17153SOL     OW58319   6.921   1.625   8.590 -0.2292 -0.2087  0.0987
17153SOL    HW158320   6.969   1.651   8.511  0.2730 -2.4911 -0.4490
17153SOL    HW258321   6.857   1.562   8.558  1.4946 -2.9856  1.6885
17154SOL     OW58322   4.341   7.488   3.050 -0.2357  0.0011 -0.2273
17154SOL    HW158323   4.280   7.552   3.089 -0.2827  0.1433 -0.5319
17154SOL    HW258324   4.291   7.407   3.045 -0.7142  0.3530 -1.3447
17155SOL     OW58325  11.614  11.424   3.229 -0.4284 -0.2510  0.0637
17155SOL    HW158326  11.594  11.456   3.141  0.6429 -0.2858 -0.2106
17155SOL    HW258327  11.661  11.497   3.271  0.6866 -0.8872 -0.0429
17156SOL     OW58328  10.891   3.035   8.987  0.3145  0.1973  0.0318
17156SOL    HW158329  10.890   3.131   8.981 -0.2141  0.2079  0.2523
17156SOL    HW258330  10.958   3.008   8.924 -0.8763  0.6198 -1.4858
17157SOL     OW58331   3.935   2.698   9.599  0.6577 -0.1206  0.4291
17157SOL    HW158332   3.958   2.789   9.616  0.1317  0.5104 -1.9574
17157SOL    HW258333   4.017   2.650   9.605  1.2626  0.8261 -0.2037
17158SOL     OW58334   1.690   6.182   8.432 -0.0061  0.2716  0.1230
17158SOL    HW158335   1.777   6.209   8.461  0.1002  1.1012 -0.9070
17158SOL    HW258336   1.706   6.115   8.365 -0.1778 -0.0063  0.3581
17159SOL     OW58337   6.495   0.441   9.976 -0.2883 -0.2019  0.4551
17159SOL    HW158338   6.569   0.488  10.014  0.2726 -1.1051  0.4937
17159SOL    HW258339   6.421   0.502   9.986  0.3238  0.4922  0.8983
17160SOL     OW58340   3.963   6.474   4.386  0.2879 -0.0393 -0.1308
17160SOL    HW158341   3.875   6.464   4.348  0.3380  0.4620 -0.3901
17160SOL    HW258342   4.000   6.386   4.386  0.4011 -0.0004 -1.5312
17161SOL     OW58343  10.905   8.041   6.331  0.4638 -0.4937 -0.2556
17161SOL    HW158344  10.878   8.065   6.420  1.7215 -1.3314  0.3820
17161SOL    HW258345  10.867   7.955   6.316  0.9618 -0.7346 -0.1788
17162SOL     OW58346  10.473   6.892   0.320  0.6000 -0.3346 -0.7152
17162SOL    HW158347  10.448   6.816   0.267 -1.3429 -1.0663  1.1212
17162SOL    HW258348  10.521   6.855   0.394  1.4425  0.4646 -0.8392
17163SOL     OW58349   1.817  11.691   7.906  0.5542 -0.3363  0.2241
17163SOL    HW158350   1.811  11.598   7.885 -0.8570  0.3535 -2.9393
17163SOL    HW258351   1.731  11.713   7.942  0.0830  0.1431 -1.1361
17164SOL     OW58352   1.894   2.321   0.398 -0.0196  0.2116  0.3779
17164SOL    HW158353   1.956   2.305   0.469  0.0152  2.1795  0.8601
17164SOL    HW258354   1.897   2.416   0.385 -2.0779  0.2252 -0.3780
17165SOL     OW58355   3.256  10.935   8.204  0.0642  0.2082  0.0694
17165SOL    HW158356   3.222  10.893   8.125  0.2904 -0.4314  0.3073
17165SOL    HW258357   3.312  10.869   8.245 -2.8029 -0.8426  2.6892
17166SOL     OW58358  10.218   9.535   1.724  0.3641  0.7178 -0.1441
17166SOL    HW158359  10.171   9.457   1.755  0.1304  0.3412 -1.3904
17166SOL    HW258360  10.311   9.514   1.738  0.2994  0.2291 -0.4125
17167SOL     OW58361   9.242   8.151   6.537 -0.2842  0.7861  0.1914
17167SOL    HW158362   9.240   8.089   6.464 -1.5328  0.5227  0.4233
17167SOL    HW258363   9.198   8.104   6.609 -1.3979  1.9748  0.3200
17168SOL     OW58364   6.291  11.269   6.254  0.1902 -0.3320 -0.6017
17168SOL    HW158365   6.207  11.285   6.297  1.0158 -0.0977  0.9979
17168SOL    HW258366   6.284  11.316   6.171 -1.1031  0.0480 -0.3049
17169SOL     OW58367   5.770   9.107   1.076 -0.0024  0.2168 -0.2519
17169SOL    HW158368   5.680   9.085   1.099  0.0105  0.7542  0.3502
17169SOL    HW258369   5.822   9.032   1.104 -0.3397 -0.3983 -1.2424
17170SOL     OW58370   4.259   3.325   8.203  0.0239 -0.2309 -0.2532
17170SOL    HW158371   4.184   3.348   8.259  0.6955 -1.0780  1.0490
17170SOL    HW258372   4.330   3.307   8.265  0.4628 -2.4479 -1.3235
17171SOL     OW58373   6.238  11.910   9.537 -0.1464 -0.2285 -0.5833
17171SOL    HW158374   6.314  11.953   9.576 -0.6308 -1.4697  1.9620
17171SOL    HW258375   6.185  11.981   9.502  0.2888  1.0455  1.2169
17172SOL     OW58376  10.079   6.835  12.120  0.5983 -0.0054 -0.3968
17172SOL    HW158377  10.080   6.763  12.056 -2.5395 -0.7772  0.2835
17172SOL    HW258378  10.108   6.795  12.202 -0.6725 -0.4149 -0.1307
17173SOL     OW58379  11.037   9.307   2.376  0.3978 -0.3226 -0.4489
17173SOL    HW158380  11.076   9.256   2.446  1.9400  0.4355 -0.7137
17173SOL    HW258381  11.007   9.388   2.418 -1.3393 -1.0758 -0.1694
17174SOL     OW58382   8.193   6.726  11.937  0.6882  0.0344  0.7194
17174SOL    HW158383   8.148   6.797  11.984 -0.7620 -0.4340  0.0709
17174SOL    HW258384   8.192   6.653  11.999 -0.3341 -0.2750  0.3537
17175SOL     OW58385   1.810   7.855   2.085  0.1771  0.0328  0.0837
17175SOL    HW158386   1.881   7.824   2.028 -0.9118  0.5786 -1.6275
17175SOL    HW258387   1.792   7.780   2.142  2.5555  0.0978  1.0581
17176SOL     OW58388   3.374  11.094  10.155 -0.3794  0.0121  0.2690
17176SOL    HW158389   3.279  11.091  10.152 -0.3910  0.1016  0.5375
17176SOL    HW258390   3.402  11.063  10.069 -0.6744  1.0801 -0.2218
17177SOL     OW58391   7.280   3.558   1.156  0.6854  0.4028 -0.1751
17177SOL    HW158392   7.327   3.488   1.202 -0.9298 -0.1781  0.6898
17177SOL    HW258393   7.347   3.604   1.107  2.1243 -0.4363  0.9283
17178SOL     OW58394   9.571   5.942   3.835  0.1078  0.2940 -0.1686
17178SOL    HW158395   9.581   5.847   3.839 -0.5881  0.2477  0.9425
17178SOL    HW258396   9.616   5.968   3.755  2.2232 -0.7141  0.6324
17179SOL     OW58397   4.321   6.729  10.063 -0.1373  0.0045 -0.1836
17179SOL    HW158398   4.313   6.642  10.023  1.2014 -0.3657  0.2926
17179SOL    HW258399   4.294   6.716  10.154 -0.0253  0.1084 -0.1359
17180SOL     OW58400   6.758   5.045   2.183  0.7297 -0.0557 -0.2947
17180SOL    HW158401   6.820   4.986   2.140  1.2680  0.5031 -0.3010
17180SOL    HW258402   6.711   5.087   2.111 -0.4733 -1.3087 -0.2789
17181SOL     OW58403   8.424   0.227  12.281  0.2502 -0.2027  0.3532
17181SOL    HW158404   8.381   0.153  12.324  0.3051  0.0537  0.8591
17181SOL    HW258405   8.418   0.299  12.344  2.4834 -0.4773  0.9751
17182SOL     OW58406   6.014   9.186   7.306  0.2577  0.4785  0.4826
17182SOL    HW158407   6.033   9.093   7.317  0.6073  0.4352 -0.4357
17182SOL    HW258408   5.926   9.196   7.342 -0.4383 -0.5342 -0.8212
17183SOL     OW58409   5.300   3.025  12.255  0.1673  0.1190 -0.0129
17183SOL    HW158410   5.206   3.026  12.237  0.2427 -0.2286 -0.4546
17183SOL    HW258411   5.333   3.107  12.218 -0.2813  1.3123  2.0508
17184SOL     OW58412   7.903  12.434   0.264  0.1979 -0.3788  0.0885
17184SOL    HW158413   7.888  12.475   0.349  0.9159 -1.3696  0.7107
17184SOL    HW258414   7.985  12.386   0.275 -1.4003 -3.3684 -0.0382
17185SOL     OW58415  11.477   2.304   5.030 -0.0889 -0.0392 -0.3305
17185SOL    HW158416  11.472   2.327   5.123 -1.0780  1.4612 -0.7132
17185SOL    HW258417  11.409   2.357   4.989  0.8220 -0.1186 -2.0301
17186SOL     OW58418   6.759  12.448   6.098 -0.0303 -0.7263  0.3021
17186SOL    HW158419   6.680  12.441   6.151  1.2912 -2.2066  2.1973
17186SOL    HW258420   6.726  12.461   6.009 -2.3571  0.2958  1.2154
17187SOL     OW58421  10.617   9.427   0.531  0.2962  0.8072  0.2014
17187SOL    HW158422  10.644   9.338   0.509  2.1524  1.8312 -2.2265
17187SOL    HW258423  10.680   9.456   0.596  1.2376  1.0880 -0.7962
17188SOL     OW58424   6.156   6.247   4.949  0.0448 -0.0801  0.0503
17188SOL    HW158425   6.130   6.218   5.036  0.4559 -1.5156 -0.2795
17188SOL    HW258426   6.113   6.332   4.938 -0.2953 -0.0393  1.4993
17189SOL     OW58427   3.217  12.471   0.239 -0.2776 -0.1264 -0.3500
17189SOL    HW158428   3.193  12.512   0.322  0.1914  0.1949 -0.3710
17189SOL    HW258429   3.305  12.504   0.221 -0.3206 -0.3110 -0.8991
17190SOL     OW58430   2.969   7.317  10.951 -0.3353  0.3055 -0.0917
17190SOL    HW158431   2.929   7.402  10.931 -1.6451 -0.3706 -0.4857
17190SOL    HW258432   3.063   7.331  10.938 -0.3812  2.0339  1.1640
17191SOL     OW58433  11.767   0.610   1.832  0.0416  0.0715  0.9460
17191SOL    HW158434  11.818   0.570   1.762  1.8075  2.3612  0.7756
17191SOL    HW258435  11.774   0.549   1.905 -0.5226 -1.6113 -0.3587
17192SOL     OW58436   6.326   5.031   2.149  0.0292  0.2666  0.3338
17192SOL    HW158437   6.302   4.967   2.216 -2.0750  0.2349 -0.3859
17192SOL    HW258438   6.377   4.982   2.085 -2.6528 -1.1156 -0.8854
17193SOL     OW58439   0.549   1.349   8.545 -0.4522  0.3088  0.3144
17193SOL    HW158440   0.463   1.374   8.578 -0.2726 -0.3097  1.2717
17193SOL    HW258441   0.546   1.253   8.540  0.0894  0.3006  0.0998
17194SOL     OW58442   3.486   9.530   2.082  0.0017  0.3701  0.1506
17194SOL    HW158443   3.458   9.594   2.147  2.0903  0.2333  1.2650
17194SOL    HW258444   3.571   9.561   2.053  0.1061 -0.7950 -0.8611
17195SOL     OW58445   8.338   0.163   9.173 -0.1444  0.1292  0.4297
17195SOL    HW158446   8.387   0.244   9.163  0.5081  0.2920  3.9093
17195SOL    HW258447   8.250   0.191   9.199 -0.4781 -0.2736 -0.2292
17196SOL     OW58448  10.302   5.411   6.237  0.7186 -0.2747 -0.3459
17196SOL    HW158449  10.395   5.411   6.213  1.5311  0.8583  2.3965
17196SOL    HW258450  10.268   5.330   6.200  2.2151  0.3224 -3.3179
17197SOL     OW58451   7.856   4.687   7.295 -0.1586  0.4127 -0.2583
17197SOL    HW158452   7.843   4.643   7.379  1.6160 -0.7786 -0.5664
17197SOL    HW258453   7.884   4.776   7.318 -2.1270  0.9148  0.3652
17198SOL     OW58454   5.021   0.325   0.065  0.1555 -0.5843  0.0470
17198SOL    HW158455   5.091   0.382   0.031  0.1300 -0.1184  0.7503
17198SOL    HW258456   5.067   0.261   0.119  0.1282 -0.8947 -0.2925
17199SOL     OW58457   4.006   5.739   7.323  0.1005 -0.2301 -0.8246
17199SOL    HW158458   3.958   5.775   7.398 -0.3459 -1.8455 -0.2972
17199SOL    HW258459   4.002   5.807   7.257 -0.8281  0.6240  0.0811
17200SOL     OW58460   2.635  10.524   1.484 -0.0611  0.1747  0.3917
17200SOL    HW158461   2.556  10.566   1.448 -1.2940 -0.1510  2.5476
17200SOL    HW258462   2.706  10.554   1.427 -1.8051 -0.1195 -2.0987
17201SOL     OW58463  12.235  10.193   4.415  0.0966  0.7017 -0.4640
17201SOL    HW158464  12.173  10.190   4.342 -1.6256  0.7341  0.9389
17201SOL    HW258465  12.280  10.109   4.412 -1.3075 -0.0784 -0.4440
17202SOL     OW58466   3.561   1.433  10.251 -0.0581  0.0653  0.3941
17202SOL    HW158467   3.507   1.359  10.281  1.3898 -1.1402  0.1394
17202SOL    HW258468   3.596   1.472  10.331  0.5691 -0.6222  0.4593
17203SOL     OW58469  10.559   9.602   9.166 -0.5194 -0.1781  0.1590
17203SOL    HW158470  10.508   9.657   9.106  0.4900  0.8975  0.2591
17203SOL    HW258471  10.523   9.619   9.252 -1.2052 -0.8480  0.0179
17204SOL     OW58472   3.905   4.934   5.194  0.5553 -0.0137  0.1116
17204SOL    HW158473   3.896   5.016   5.144 -0.4074 -2.0270 -3.3931
17204SOL    HW258474   3.821   4.925   5.240 -0.1662  0.0334 -1.1468
17205SOL     OW58475   1.585   6.946  11.496 -0.2597 -0.1253  0.1223
17205SOL    HW158476   1.581   6.996  11.577  0.0740 -2.1241  1.4468
17205SOL    HW258477   1.646   6.874  11.515  0.3867 -0.2673 -2.1404
17206SOL     OW58478   9.413   0.218   9.827  0.4810  0.5168  0.1564
17206SOL    HW158479   9.382   0.269   9.902 -1.6285 -1.2256  0.5845
17206SOL    HW258480   9.494   0.177   9.857 -0.8878 -1.0139  1.9525
17207SOL     OW58481   6.621  11.822   5.403 -0.0519  0.4627 -0.0908
17207SOL    HW158482   6.714  11.823   5.379 -0.1550  0.0172 -0.5450
17207SOL    HW258483   6.603  11.730   5.423 -1.1766 -0.1243 -3.2502
17208SOL     OW58484   7.770   0.869   0.670 -0.2290  0.1387  0.3990
17208SOL    HW158485   7.718   0.900   0.596  0.4338  0.1164 -0.0880
17208SOL    HW258486   7.836   0.937   0.683 -0.1286 -0.0220  0.7518
17209SOL     OW58487   8.936  10.904  10.370 -0.0900 -0.0602 -0.2596
17209SOL    HW158488   8.860  10.932  10.422 -1.0488  0.0838 -1.6724
17209SOL    HW258489   8.963  10.821  10.410 -2.4239 -1.3048 -1.0604
17210SOL     OW58490   7.035   1.928   9.440  0.0689  0.0610 -0.1400
17210SOL    HW158491   7.063   1.973   9.360  2.0117  1.5535  1.2682
17210SOL    HW258492   7.103   1.949   9.505 -0.9954 -1.7537  1.7029
17211SOL     OW58493   0.324   3.942  10.318  0.0338 -0.1592 -0.3108
17211SOL    HW158494   0.316   3.878  10.388  0.2504  0.1512  0.0038
17211SOL    HW258495   0.233   3.961  10.292 -0.0031 -1.9537 -1.6899
17212SOL     OW58496  10.327   9.430   8.404 -0.0860  0.6882  0.3340
17212SOL    HW158497  10.347   9.341   8.376 -0.2293  0.3676  1.2302
17212SOL    HW258498  10.394   9.450   8.469  1.4025  2.1167 -1.5099
17213SOL     OW58499   6.862  11.717   4.536  0.1045  0.3405 -0.5237
17213SOL    HW158500   6.783  11.756   4.575  0.9534  0.7539  0.8767
17213SOL    HW258501   6.909  11.791   4.498 -0.4410  0.0128 -1.8974
17214SOL     OW58502   7.687   0.513   0.143  0.2995  0.3416  0.6185
17214SOL    HW158503   7.632   0.584   0.175 -0.2660 -0.1080  0.6575
17214SOL    HW258504   7.698   0.531   0.049  0.9357  0.9814  0.8078
17215SOL     OW58505  10.173  10.506   5.969  0.3335  0.4438 -0.1505
17215SOL    HW158506  10.138  10.586   6.009  0.0893  0.6303 -0.7329
17215SOL    HW258507  10.253  10.534   5.924  0.0668  0.4288 -0.6398
17216SOL     OW58508   7.123   9.632   6.507 -0.3362 -0.2093 -0.0071
17216SOL    HW158509   7.130   9.727   6.497 -1.0592 -0.2099 -0.6832
17216SOL    HW258510   7.188   9.597   6.447  1.2392 -0.1533  1.5793
17217SOL     OW58511   0.387   4.621  10.055  0.0779 -0.1906  0.3456
17217SOL    HW158512   0.403   4.635  10.149  4.3883 -0.8644 -0.0897
17217SOL    HW258513   0.385   4.526  10.046  1.7946 -0.1847 -0.4328
17218SOL     OW58514   0.127   4.557   0.559 -0.1126 -0.0013 -0.1417
17218SOL    HW158515   0.144   4.484   0.618  0.3917  0.0738 -0.1921
17218SOL    HW258516   0.193   4.548   0.490  0.5910  1.0661  0.3628
17219SOL     OW58517   9.656   4.985   6.943  0.2789 -0.1687  0.3957
17219SOL    HW158518   9.663   4.890   6.938  1.9718 -0.0019 -2.7116
17219SOL    HW258519   9.687   5.007   7.030  3.1330 -2.2890  0.0418
17220SOL     OW58520  11.591  10.315   1.204 -0.6120 -0.0608  0.3168
17220SOL    HW158521  11.660  10.378   1.226 -0.9548  0.5405 -0.2567
17220SOL    HW258522  11.621  10.232   1.240  1.0104 -0.0808 -0.9550
17221SOL     OW58523   9.986   4.589   0.664 -0.4128 -0.4540 -0.1143
17221SOL    HW158524   9.954   4.499   0.672 -0.0278 -0.4953  1.1847
17221SOL    HW258525   9.932   4.639   0.725  2.4176 -0.6863  2.8529
17222SOL     OW58526  11.539   4.974   3.683 -0.1939  0.2958  0.2321
17222SOL    HW158527  11.547   5.054   3.735 -1.1595  1.3375 -1.1493
17222SOL    HW258528  11.619   4.971   3.630 -0.0720  0.2437  0.4182
17223SOL     OW58529   2.105  12.459  11.676  0.1428  0.0934  0.7014
17223SOL    HW158530   2.134  12.524  11.613 -0.7159 -2.3844 -2.4835
17223SOL    HW258531   2.185  12.412  11.700  0.1783 -0.4171 -0.3750
17224SOL     OW58532   1.439   5.902   1.137  0.4957  0.1449  0.4641
17224SOL    HW158533   1.413   5.881   1.047  0.8149  0.3351  0.3220
17224SOL    HW258534   1.358   5.927   1.181  0.1593 -1.0050  0.5399
17225SOL     OW58535   2.665   9.936   7.277 -0.0589 -0.2274  0.1958
17225SOL    HW158536   2.738   9.932   7.215 -0.2971 -0.6062 -0.0619
17225SOL    HW258537   2.651   9.845   7.304  1.1095  0.0795  2.0760
17226SOL     OW58538   6.077   4.855  10.712 -0.0672 -0.7019  0.6858
17226SOL    HW158539   6.152   4.877  10.658 -0.3677 -1.4413 -0.0531
17226SOL    HW258540   6.064   4.932  10.768  0.4178 -0.0440 -0.0926
17227SOL     OW58541  10.445  10.198  12.254  0.1608  0.0090  0.1490
17227SOL    HW158542  10.525  10.249  12.266  0.9370 -0.9094 -1.0483
17227SOL    HW258543  10.474  10.112  12.225 -1.2465 -0.4884  0.1298
17228SOL     OW58544   2.370   9.528   2.466 -0.2654 -0.3619 -0.2516
17228SOL    HW158545   2.376   9.603   2.526  0.1555 -0.4573 -0.1718
17228SOL    HW258546   2.449   9.534   2.412  0.2578 -1.2740  0.3789
17229SOL     OW58547   2.749   2.238   8.784 -0.0635  0.1787 -0.5392
17229SOL    HW158548   2.773   2.318   8.831 -0.3041 -0.1864  0.2261
17229SOL    HW258549   2.684   2.196   8.841 -0.2315 -0.3637 -1.1232
17230SOL     OW58550   3.803   8.923  12.287 -0.0532 -0.5831  0.3331
17230SOL    HW158551   3.898   8.925  12.277 -0.0604  0.4082  0.3813
17230SOL    HW258552   3.786   8.971  12.368 -0.6912  0.7566 -0.5593
17231SOL     OW58553   8.190   0.803  12.092  0.0368 -0.1683 -0.5233
17231SOL    HW158554   8.111   0.827  12.044 -0.2164  0.1147  0.0225
17231SOL    HW258555   8.226   0.729  12.044 -0.3091 -0.0076 -1.0409
17232SOL     OW58556  10.853   8.841   9.652  0.3426  0.5118 -0.2851
17232SOL    HW158557  10.866   8.825   9.746  1.0040 -3.9222 -0.8940
17232SOL    HW258558  10.942   8.845   9.617  0.0928  1.7033 -0.8234
17233SOL     OW58559   1.644   4.364   1.401 -0.0857  0.2989  0.2141
17233SOL    HW158560   1.623   4.445   1.354  1.4457  0.5188 -0.1563
17233SOL    HW258561   1.584   4.299   1.365 -0.6785  1.0386 -0.1852
17234SOL     OW58562   4.835   9.029   7.066 -0.4303 -0.4713 -0.0114
17234SOL    HW158563   4.755   9.007   7.115  0.7622  0.1521  2.3655
17234SOL    HW258564   4.847   9.123   7.081  0.1382 -0.3196 -1.3271
17235SOL     OW58565   7.263   1.207   7.687  0.0800  0.4922 -0.0196
17235SOL    HW158566   7.204   1.265   7.735 -1.6017 -0.1944 -1.1317
17235SOL    HW258567   7.257   1.236   7.596  0.2074 -0.5752 -0.3905
17236SOL     OW58568  10.348   5.267   1.490  0.1620  0.0456  0.9323
17236SOL    HW158569  10.286   5.249   1.420 -1.4046  3.1400  1.3609
17236SOL    HW258570  10.433   5.242   1.454 -1.0147 -2.1250 -0.5433
17237SOL     OW58571   3.254   4.337  11.382 -0.3345  0.0858  0.5095
17237SOL    HW158572   3.347   4.343  11.360 -0.9521  1.0309 -2.3175
17237SOL    HW258573   3.232   4.245  11.371 -0.1859  0.2259 -1.3712
17238SOL     OW58574   6.079  11.290   4.591  0.1166 -0.8198  0.1296
17238SOL    HW158575   6.037  11.204   4.596 -0.0067 -0.8250 -0.8302
17238SOL    HW258576   6.142  11.291   4.663 -1.4037 -0.8740  1.5122
17239SOL     OW58577  10.895   0.476   6.290 -0.2897 -0.3115 -0.0267
17239SOL    HW158578  10.834   0.403   6.290  0.0673 -0.6417 -1.6612
17239SOL    HW258579  10.957   0.455   6.360 -0.3454 -1.4390 -0.3053
17240SOL     OW58580   1.757   6.416   9.311  0.5783  0.0383 -0.2715
17240SOL    HW158581   1.732   6.327   9.338  0.1783 -0.1573 -1.2240
17240SOL    HW258582   1.674   6.464   9.308  0.8012  0.4726  0.3077
17241SOL     OW58583   9.742   7.685   3.605  0.2548 -0.2537 -0.4771
17241SOL    HW158584   9.664   7.713   3.653  1.2080  0.2540  0.8324
17241SOL    HW258585   9.726   7.713   3.515 -0.6936  0.6075 -0.0589
17242SOL     OW58586   3.390   1.635   0.431  0.2806  0.9996 -0.0284
17242SOL    HW158587   3.480   1.602   0.434  0.5187  1.3834 -1.8055
17242SOL    HW258588   3.381   1.672   0.343 -1.5160  1.2671  0.2316
17243SOL     OW58589   6.689  10.291   5.640  0.2957  0.0082  0.2811
17243SOL    HW158590   6.719  10.281   5.730 -0.3498  2.5119  0.8644
17243SOL    HW258591   6.601  10.329   5.648  0.8148  1.7393 -1.3685
17244SOL     OW58592   4.361   6.777   1.001  0.1184 -0.4949  0.2846
17244SOL    HW158593   4.386   6.841   0.935  0.0996 -0.0390  0.7143
17244SOL    HW258594   4.269   6.758   0.982 -0.3409  0.7876  1.0955
17245SOL     OW58595   1.620  10.990  11.274 -0.3462  0.4787  0.0649
17245SOL    HW158596   1.688  10.992  11.341 -0.6740 -0.7557  0.4590
17245SOL    HW258597   1.646  11.057  11.211  0.3834  1.1111  1.0171
17246SOL     OW58598  12.080  10.778   8.025  0.6299  0.0371 -0.3945
17246SOL    HW158599  12.041  10.801   8.109 -1.0941 -0.8465 -0.9059
17246SOL    HW258600  12.157  10.725   8.049 -0.3233 -0.9458  0.6378
17247SOL     OW58601   1.161   5.380   7.552  0.6222  0.3284 -0.2117
17247SOL    HW158602   1.124   5.433   7.481 -0.2324  1.0051  0.6996
17247SOL    HW258603   1.094   5.384   7.621  1.0983 -0.9370  0.3461
17248SOL     OW58604   7.222   5.419   8.378 -0.1819  0.6340 -0.1720
17248SOL    HW158605   7.215   5.325   8.394  0.5761  0.7955  1.3392
17248SOL    HW258606   7.312   5.440   8.402 -0.7162  1.9507  0.8028
17249SOL     OW58607   0.792   6.068   4.617  0.0966 -0.8775 -0.4035
17249SOL    HW158608   0.825   6.043   4.703 -0.2287  1.4260  0.4560
17249SOL    HW258609   0.868   6.105   4.572 -0.7361  2.8811  0.9626
17250SOL     OW58610   3.573   1.767   9.785  0.6604  0.4599  0.4570
17250SOL    HW158611   3.542   1.856   9.799  3.4557  1.8161 -1.2109
17250SOL    HW258612   3.534   1.741   9.701  2.4758  1.5182 -0.7881
17251SOL     OW58613  10.738   1.152   4.338 -0.0221 -0.6152 -0.4081
17251SOL    HW158614  10.738   1.097   4.417 -1.9295 -0.0445  0.0377
17251SOL    HW258615  10.830   1.153   4.310  0.9280 -0.0807  2.3433
17252SOL     OW58616   7.821   6.487   5.064  0.2392  0.0907  0.0391
17252SOL    HW158617   7.760   6.557   5.089  0.0601  0.6387 -1.7855
17252SOL    HW258618   7.819   6.487   4.968  0.2756 -2.3835 -0.0304
17253SOL     OW58619   2.333   5.373   5.291 -0.6211 -0.1164 -0.1527
17253SOL    HW158620   2.316   5.344   5.201 -1.4964  1.9488 -0.7280
17253SOL    HW258621   2.423   5.347   5.308 -0.7382 -1.3490 -1.2904
17254SOL     OW58622   5.585   7.638   8.821  0.0957  0.0964  0.2812
17254SOL    HW158623   5.529   7.704   8.862  0.2770  0.2454  0.2900
17254SOL    HW258624   5.553   7.632   8.731  0.1536  0.2825  0.2463
17255SOL     OW58625   7.434  10.273   6.050 -0.0847 -0.1149 -0.1798
17255SOL    HW158626   7.476  10.258   6.135 -0.8257 -1.4463 -0.0220
17255SOL    HW258627   7.506  10.302   5.993  1.1981 -2.6520 -0.0168
17256SOL     OW58628   0.346   0.485  12.087  0.7150  0.0063  0.5626
17256SOL    HW158629   0.396   0.553  12.133 -0.4093  2.7278 -1.9972
17256SOL    HW258630   0.257   0.494  12.121  0.5514 -0.1768  0.1777
17257SOL     OW58631  10.166   6.691   8.884  0.1170 -0.1175 -0.3844
17257SOL    HW158632  10.148   6.705   8.977  0.1932  0.7206 -0.4844
17257SOL    HW258633  10.146   6.599   8.869  0.3609 -0.3249  0.5170
17258SOL     OW58634   2.591   8.427   2.793 -0.2975 -0.4362  0.7133
17258SOL    HW158635   2.561   8.377   2.869 -1.2116  0.5504  1.0222
17258SOL    HW258636   2.594   8.362   2.722 -3.0344 -0.6780  0.6882
17259SOL     OW58637   0.111   4.684  10.079 -0.7226  0.1691  0.1525
17259SOL    HW158638   0.107   4.776  10.106  0.1500  0.1824  0.2598
17259SOL    HW258639   0.203   4.670  10.054 -0.2447 -1.3265  2.4684
17260SOL     OW58640  10.772   9.108   4.639 -0.0863  0.2559 -0.5202
17260SOL    HW158641  10.720   9.065   4.571  3.6657 -0.7478 -3.0195
17260SOL    HW258642  10.794   9.037   4.700  0.9265 -0.0289 -1.2052
17261SOL     OW58643   1.320   7.310  12.207  0.1641  0.6179  0.1186
17261SOL    HW158644   1.228   7.292  12.224  0.2964  0.0772  0.2731
17261SOL    HW258645   1.344   7.375  12.273 -0.0358  0.5532  0.2562
17262SOL     OW58646   3.218   8.697   7.715  0.0271 -0.8082  0.3951
17262SOL    HW158647   3.176   8.677   7.799  0.8906 -0.1895  0.9889
17262SOL    HW258648   3.311   8.681   7.730  0.2354 -0.3351 -0.3350
17263SOL     OW58649   6.456   1.273   9.544 -0.2626  0.3992  0.1590
17263SOL    HW158650   6.432   1.185   9.573  0.4580 -0.7894 -2.6063
17263SOL    HW258651   6.394   1.330   9.589 -1.4521 -1.5983  1.2019
17264SOL     OW58652   1.445   9.832   7.171  0.3213  0.1278  0.5936
17264SOL    HW158653   1.402   9.762   7.121  0.2024  0.4712  0.2182
17264SOL    HW258654   1.413   9.913   7.133 -0.2297  0.4082  1.6061
17265SOL     OW58655   8.815  11.093  11.864 -0.4079 -0.2167 -0.2028
17265SOL    HW158656   8.906  11.117  11.847 -0.0413  0.1782  2.0391
17265SOL    HW258657   8.767  11.176  11.855 -0.4961 -0.3386 -0.9308
17266SOL     OW58658   0.990   7.165   9.901 -0.1414  0.0602 -0.2774
17266SOL    HW158659   1.064   7.220   9.926  0.3027 -0.2228 -0.9436
17266SOL    HW258660   1.021   7.075   9.915 -0.8714 -0.0449  0.8399
17267SOL     OW58661   3.693   4.991   8.426  0.0709 -0.7659 -0.3090
17267SOL    HW158662   3.762   4.926   8.414  0.5492 -0.3548  0.1562
17267SOL    HW258663   3.688   5.037   8.343 -0.4075 -1.5223 -0.7083
17268SOL     OW58664  12.131   8.772   6.054 -0.3540 -0.6506  0.3878
17268SOL    HW158665  12.186   8.799   5.980  0.9600  1.2042  1.9435
17268SOL    HW258666  12.080   8.699   6.020 -2.2986  2.1449 -3.4022
17269SOL     OW58667   7.530   8.537   5.699 -0.4078  0.6397 -0.1630
17269SOL    HW158668   7.533   8.604   5.768 -2.0775  1.1223 -0.4935
17269SOL    HW258669   7.528   8.588   5.617 -2.5806  0.3021 -0.3962
17270SOL     OW58670  10.131   1.978   9.443  0.3347  0.0376 -0.0932
17270SOL    HW158671  10.040   2.008   9.435  0.8336  1.3744 -1.2483
17270SOL    HW258672  10.165   1.983   9.354  1.3013 -1.3204  0.1723
17271SOL     OW58673   6.993   7.295   9.854  0.2921 -0.2288 -0.0365
17271SOL    HW158674   6.986   7.200   9.842  0.1679 -0.1892 -0.2880
17271SOL    HW258675   7.062   7.306   9.920 -3.2506 -0.7285  4.2315
17272SOL     OW58676   1.441  10.714   2.586  0.0176 -0.3542  0.0140
17272SOL    HW158677   1.500  10.658   2.636 -0.8859  1.1436  2.9586
17272SOL    HW258678   1.495  10.750   2.516  1.8201 -1.2611  0.8904
17273SOL     OW58679   2.508   4.292   2.904  0.0520  0.1573  0.1660
17273SOL    HW158680   2.529   4.299   2.811 -0.0973 -0.2722  0.0965
17273SOL    HW258681   2.560   4.361   2.946  0.1192  0.3536 -0.2333
17274SOL     OW58682   4.606  11.147   7.710  0.1218  0.1310 -0.2204
17274SOL    HW158683   4.567  11.215   7.656  2.9859  1.4028 -0.8645
17274SOL    HW258684   4.652  11.194   7.780 -2.4065 -1.4088  2.7531
17275SOL     OW58685   1.235   9.883   5.950 -0.0550  0.3766 -0.3793
17275SOL    HW158686   1.286   9.871   5.870 -0.3089  1.3951 -0.7034
17275SOL    HW258687   1.210   9.794   5.975  1.5752 -0.1303 -0.3979
17276SOL     OW58688   0.302   2.966   0.436 -0.3014 -0.8240  0.1464
17276SOL    HW158689   0.339   3.023   0.504  0.1727  0.1044 -0.8564
17276SOL    HW258690   0.209   2.987   0.436 -0.3404 -0.9848  0.6574
17277SOL     OW58691   6.479  11.189   7.695  0.2446 -0.5164  0.1234
17277SOL    HW158692   6.451  11.110   7.742  1.5559 -0.5491  0.9004
17277SOL    HW258693   6.574  11.180   7.688  0.3989  0.9336  0.1063
17278SOL     OW58694   7.659  11.680   8.289  0.4521 -0.0577 -0.1340
17278SOL    HW158695   7.732  11.621   8.267  0.7053  0.6062 -1.1206
17278SOL    HW258696   7.644  11.664   8.382  0.5001 -1.6891 -0.3709
17279SOL     OW58697   6.017   6.588   1.237 -0.4814  0.1165 -0.0769
17279SOL    HW158698   5.964   6.514   1.209 -0.6002 -0.3009  1.1865
17279SOL    HW258699   6.034   6.572   1.330  0.7682  0.9034 -0.1388
17280SOL     OW58700   0.103   2.354   1.598  0.0078 -0.4015  0.1978
17280SOL    HW158701   0.145   2.410   1.532 -0.4726 -0.2321  0.0324
17280SOL    HW258702   0.138   2.266   1.581 -0.5057 -0.4577 -0.6248
17281SOL     OW58703   6.350   8.597  12.213 -1.0773 -0.6113 -0.0355
17281SOL    HW158704   6.265   8.570  12.176 -0.4014 -0.3328 -1.9340
17281SOL    HW258705   6.339   8.690  12.232 -1.4493 -0.7653  0.5230
17282SOL     OW58706   7.417   6.118   5.340 -0.2539  0.2183 -0.1176
17282SOL    HW158707   7.465   6.201   5.339  0.7740 -0.3461  0.4642
17282SOL    HW258708   7.414   6.094   5.432  1.7971 -1.6664 -0.4556
17283SOL     OW58709   3.090   0.238   7.072  0.6286  0.0019 -0.1581
17283SOL    HW158710   3.107   0.213   7.162  0.1836 -0.3186 -0.1623
17283SOL    HW258711   3.074   0.333   7.076 -0.9094 -0.2565  0.3256
17284SOL     OW58712   9.004   9.324   6.927  0.2259 -0.5751 -0.3366
17284SOL    HW158713   8.980   9.416   6.923 -0.8230 -0.8770 -1.7845
17284SOL    HW258714   8.924   9.277   6.900  0.7978 -1.8874  0.1754
17285SOL     OW58715   2.590   8.657   9.839  0.4254 -0.3751 -0.1490
17285SOL    HW158716   2.651   8.702   9.781 -0.7894  0.4285 -0.8450
17285SOL    HW258717   2.646   8.605   9.896  1.9064  1.8877  0.6105
17286SOL     OW58718   4.982   1.568   4.480 -0.5228 -0.3661  0.0454
17286SOL    HW158719   4.969   1.663   4.483  0.6061 -0.0846 -2.2210
17286SOL    HW258720   4.912   1.533   4.535 -0.1685  1.8073  2.0542
17287SOL     OW58721   3.357   7.329  11.664 -0.0311  0.0163 -0.1628
17287SOL    HW158722   3.344   7.250  11.715  0.8747 -0.3087 -0.4026
17287SOL    HW258723   3.308   7.315  11.583  1.0090 -0.7976 -0.6854
17288SOL     OW58724  11.749  11.692  10.035  0.2187  0.8094 -0.4558
17288SOL    HW158725  11.671  11.743  10.014 -1.0539 -0.3838  1.0633
17288SOL    HW258726  11.769  11.715  10.126 -0.6136 -1.5363  0.4166
17289SOL     OW58727   4.815   7.266   5.018 -0.1120 -0.3380  0.0130
17289SOL    HW158728   4.750   7.289   4.951 -0.6639  1.2181  1.0233
17289SOL    HW258729   4.801   7.173   5.035 -0.1138 -0.7200 -1.8423
17290SOL     OW58730   9.597   4.704   8.353 -0.3615  0.1233 -0.3733
17290SOL    HW158731   9.551   4.620   8.347 -0.4272  0.2433 -3.2128
17290SOL    HW258732   9.526   4.769   8.352 -0.2910  0.2571  1.3150
17291SOL     OW58733   6.241   0.364   0.280  0.3713 -0.3012 -0.1790
17291SOL    HW158734   6.304   0.414   0.228  2.7241 -1.4646  1.3234
17291SOL    HW258735   6.213   0.293   0.222 -0.3734  0.7955 -1.2019
17292SOL     OW58736   3.165   7.654   6.281  0.0728 -0.2841  0.1296
17292SOL    HW158737   3.164   7.576   6.337 -0.0861 -0.0172  0.5101
17292SOL    HW258738   3.098   7.711   6.319  0.9327  0.4954  0.5200
17293SOL     OW58739   3.160   6.611   4.880 -0.0081  0.1353  0.0944
17293SOL    HW158740   3.220   6.539   4.863  2.6575  2.1158  0.5446
17293SOL    HW258741   3.137   6.644   4.793  0.0920 -0.2185 -0.0676
17294SOL     OW58742  12.256   5.965   2.995  0.4642 -0.2771  0.0520
17294SOL    HW158743  12.240   5.982   2.903  1.5033  0.6513  0.0126
17294SOL    HW258744  12.169   5.961   3.035 -0.0066 -1.0393 -1.0076
17295SOL     OW58745   1.259   1.141  10.296 -0.0682 -0.2230 -0.1251
17295SOL    HW158746   1.178   1.181  10.327  0.0351  0.7878 -1.1183
17295SOL    HW258747   1.302   1.111  10.376 -2.7329 -3.4888  0.3184
17296SOL     OW58748   8.139  10.677   9.987 -0.2918 -0.3077 -0.1946
17296SOL    HW158749   8.215  10.716  10.030 -1.2829 -0.1470  1.5294
17296SOL    HW258750   8.065  10.705  10.041 -1.3996 -1.7785 -0.8833
17297SOL     OW58751   0.814   8.885   6.997 -0.7269 -0.3616  0.3819
17297SOL    HW158752   0.756   8.943   6.948  0.1192 -1.0135 -1.4998
17297SOL    HW258753   0.898   8.931   7.000 -0.8832 -0.1323  1.6628
17298SOL     OW58754   4.939   9.154   4.858  0.8840  0.0622 -0.2144
17298SOL    HW158755   5.019   9.112   4.890  0.8258  0.0226 -0.1200
17298SOL    HW258756   4.868   9.102   4.896  0.7523  1.7242  2.0073
17299SOL     OW58757   2.683   5.864   6.205 -0.1102  0.3685  0.0118
17299SOL    HW158758   2.722   5.950   6.221  0.6759  0.1622 -0.7198
17299SOL    HW258759   2.729   5.805   6.264  1.2632 -0.0053 -1.3558
17300SOL     OW58760   6.332   5.841   3.458 -0.5507  0.3387  0.1727
17300SOL    HW158761   6.241   5.872   3.460  0.0834  2.4475 -0.9310
17300SOL    HW258762   6.358   5.851   3.366  0.7620 -0.3759  0.4546
17301SOL     OW58763   6.264   7.299   6.281  0.1262 -0.2266  0.2799
17301SOL    HW158764   6.223   7.275   6.363 -1.3528  0.2163 -0.3039
17301SOL    HW258765   6.309   7.382   6.300  1.1338 -0.9108  1.0164
17302SOL     OW58766   9.519   1.150  10.751  0.3073  0.2845 -0.0505
17302SOL    HW158767   9.449   1.215  10.751  0.0716  0.0481 -0.8198
17302SOL    HW258768   9.525   1.122  10.659  1.5130  0.4133 -0.0226
17303SOL     OW58769  10.451   6.347   7.280  0.0882  0.7594 -0.8616
17303SOL    HW158770  10.528   6.309   7.238 -0.1859  1.0399 -1.6437
17303SOL    HW258771  10.481   6.431   7.314 -0.3372  1.8868 -3.0619
17304SOL     OW58772   3.852   9.004   3.844 -0.3899 -0.1444  0.2891
17304SOL    HW158773   3.945   8.993   3.864  1.0169 -0.2744 -4.8211
17304SOL    HW258774   3.831   9.092   3.874  1.5506  0.1001  1.1021
17305SOL     OW58775   2.159   6.476   3.018  0.1723 -0.3254 -0.5650
17305SOL    HW158776   2.154   6.383   2.994  1.2216 -0.2808 -1.0321
17305SOL    HW258777   2.229   6.511   2.962  1.4803  0.2109  1.3062
17306SOL     OW58778   0.560   8.877   0.815 -0.6389  0.4645 -0.1810
17306SOL    HW158779   0.647   8.905   0.845 -0.6751  0.2670  0.1143
17306SOL    HW258780   0.543   8.796   0.863 -0.4286 -0.2078 -1.2215
17307SOL     OW58781   8.715   8.039   5.380 -0.7968  0.1016  0.0786
17307SOL    HW158782   8.733   8.108   5.316 -0.9405 -0.1067 -0.1879
17307SOL    HW258783   8.714   8.085   5.465  1.1435  0.1027  0.1490
17308SOL     OW58784   8.746   0.521   0.859  0.6290 -0.5579  0.0329
17308SOL    HW158785   8.746   0.433   0.897  1.7414 -0.9879 -0.8897
17308SOL    HW258786   8.723   0.507   0.767  1.7294 -0.0220 -0.3449
17309SOL     OW58787   7.149   5.308   5.377 -0.0134  0.6641  0.2424
17309SOL    HW158788   7.181   5.283   5.290 -0.3403  2.4483 -0.4260
17309SOL    HW258789   7.207   5.262   5.438  0.8313  0.1367 -0.9236
17310SOL     OW58790   9.330   4.650   1.637  0.0087 -0.8583 -0.6854
17310SOL    HW158791   9.318   4.629   1.729  1.1292  1.0663 -0.0527
17310SOL    HW258792   9.405   4.708   1.635 -1.2320  0.8251 -2.5674
17311SOL     OW58793   4.393   6.132   2.917  0.1850  0.1076 -0.6547
17311SOL    HW158794   4.484   6.162   2.924  0.2065  0.0751 -0.7947
17311SOL    HW258795   4.367   6.110   3.006 -0.6833  3.0871 -0.0443
17312SOL     OW58796   7.382   1.049  10.162 -0.1941  0.9792 -0.6378
17312SOL    HW158797   7.299   1.091  10.138 -0.1406 -0.0987 -2.9591
17312SOL    HW258798   7.356   0.979  10.223 -0.6425  2.2103  0.6498
17313SOL     OW58799   0.449  12.403   0.038 -0.0270  0.5659 -0.0322
17313SOL    HW158800   0.404  12.347  -0.025  2.1718 -1.1765 -0.1503
17313SOL    HW258801   0.511  12.453  -0.014  0.6684  0.3083  0.5365
17314SOL     OW58802   3.719   3.867   1.865  0.1802  0.0492  0.6890
17314SOL    HW158803   3.634   3.869   1.909 -0.7297 -2.1513 -0.8056
17314SOL    HW258804   3.779   3.828   1.929 -0.4879 -0.6018  0.9291
17315SOL     OW58805   1.427   9.458   2.733 -0.1643 -0.2502  0.2959
17315SOL    HW158806   1.478   9.388   2.773 -0.1581  0.2787  1.2238
17315SOL    HW258807   1.448   9.536   2.784 -0.5926  0.3255 -0.3804
17316SOL     OW58808   8.891  10.579  10.969 -0.1481  0.1009  0.4856
17316SOL    HW158809   8.956  10.601  11.036  0.0567  0.7473  0.0892
17316SOL    HW258810   8.808  10.575  11.016  0.1064 -0.2759  0.9188
17317SOL     OW58811   4.078   8.717  11.588 -0.3114  0.2297  0.1094
17317SOL    HW158812   4.109   8.630  11.612  0.4538  0.8031  1.2269
17317SOL    HW258813   3.992   8.701  11.547  0.8422 -1.2625 -1.9469
17318SOL     OW58814  10.142   2.389   9.994  0.2514 -0.1987 -0.5996
17318SOL    HW158815  10.068   2.441  10.024  0.0913 -0.6682 -0.1648
17318SOL    HW258816  10.218   2.446  10.003  0.1546 -0.2122  0.3795
17319SOL     OW58817   5.609   7.535  12.082  0.5403  0.1813  0.1823
17319SOL    HW158818   5.565   7.452  12.099  0.0553 -0.2234 -2.6567
17319SOL    HW258819   5.540   7.591  12.046  1.7637  0.3731 -1.9617
17320SOL     OW58820   1.758   1.090   9.895  0.2999 -0.6780  0.3232
17320SOL    HW158821   1.701   1.065   9.823  0.3985 -0.5475  0.1984
17320SOL    HW258822   1.715   1.165   9.936  0.4763 -0.4582  0.1101
17321SOL     OW58823   2.802   2.211   8.170  0.7818  0.1999  0.7153
17321SOL    HW158824   2.767   2.214   8.081  1.2574 -0.1117  0.5095
17321SOL    HW258825   2.725   2.209   8.227  0.3941 -2.0130  0.2196
17322SOL     OW58826   1.040   5.907   7.102 -0.3895  0.1888 -0.2840
17322SOL    HW158827   1.090   5.935   7.179 -0.7449 -1.0191  0.4202
17322SOL    HW258828   0.981   5.981   7.084  0.3881  0.8911 -0.0248
17323SOL     OW58829   6.523  11.589   5.919  0.0284  0.4672 -0.6684
17323SOL    HW158830   6.494  11.634   5.999  0.1603 -0.6271  0.0199
17323SOL    HW258831   6.618  11.588   5.926  0.0370  0.3077 -0.8173
17324SOL     OW58832   7.745   5.574   5.799 -0.1309  0.2835 -0.4992
17324SOL    HW158833   7.793   5.554   5.880  0.3669 -1.4784 -1.1661
17324SOL    HW258834   7.665   5.617   5.828 -0.2287 -0.8235  0.9941
17325SOL     OW58835   4.513   2.415   9.677  0.9865 -0.2830  0.1553
17325SOL    HW158836   4.532   2.506   9.653 -1.2377  0.5620  1.3795
17325SOL    HW258837   4.494   2.372   9.593 -1.1773  1.2229 -0.1954
17326SOL     OW58838   0.011   0.537   3.749  0.2028  0.1581  0.2201
17326SOL    HW158839   0.088   0.592   3.738  0.3239  0.9836  3.8542
17326SOL    HW258840  -0.059   0.599   3.772 -0.9061 -0.8096 -0.4465
17327SOL     OW58841   9.014   9.261   5.491 -0.5906  0.4085 -0.2995
17327SOL    HW158842   9.004   9.261   5.396  0.5455  0.6754 -0.4345
17327SOL    HW258843   8.940   9.313   5.523  0.3795  2.4581 -1.2161
17328SOL     OW58844   6.690   4.750   4.890  0.0600 -0.3589 -0.2024
17328SOL    HW158845   6.721   4.661   4.872 -0.1742 -0.4065 -0.3700
17328SOL    HW258846   6.685   4.792   4.805  0.9421  0.0771 -0.0571
17329SOL     OW58847   7.488  10.510   5.342 -0.3353  0.0100  0.1444
17329SOL    HW158848   7.462  10.588   5.390 -1.2586 -0.4218  0.3692
17329SOL    HW258849   7.454  10.437   5.394 -2.1983 -0.4526 -1.5964
17330SOL     OW58850   3.808   3.828   5.862 -0.1937  0.0858 -0.0362
17330SOL    HW158851   3.749   3.772   5.914  0.4337 -0.4670  0.0893
17330SOL    HW258852   3.750   3.872   5.801 -0.9183  0.5302  0.9336
17331SOL     OW58853   0.872   8.185   8.603  0.1427 -0.1372  0.0836
17331SOL    HW158854   0.906   8.136   8.528  2.5461 -2.0928  2.2503
17331SOL    HW258855   0.782   8.155   8.613  0.0494 -0.4514 -1.5162
17332SOL     OW58856   0.369   8.363   7.334  0.3698 -0.1027 -0.1509
17332SOL    HW158857   0.290   8.351   7.282  0.4843 -0.1583 -0.3136
17332SOL    HW258858   0.408   8.276   7.338 -0.0886 -0.2700  0.7580
17333SOL     OW58859   0.891   5.105  10.126  0.3029  0.5409 -0.1269
17333SOL    HW158860   0.903   5.056  10.207  0.8101  2.2369  0.8705
17333SOL    HW258861   0.924   5.193  10.145  0.1517  1.0791 -2.0812
17334SOL     OW58862   3.628   1.366   9.640  0.1943 -0.0795 -0.3219
17334SOL    HW158863   3.599   1.366   9.548 -1.4787  1.1152  0.1621
17334SOL    HW258864   3.585   1.289   9.678  0.3241 -0.1748 -0.3661
17335SOL     OW58865   3.651   0.359   6.498 -0.1086 -0.8576  0.0232
17335SOL    HW158866   3.674   0.341   6.589 -0.3109  1.9370  0.7362
17335SOL    HW258867   3.557   0.343   6.492 -0.3316  0.1563  0.6783
17336SOL     OW58868  11.203   7.836   6.660 -0.1285  0.4845  0.7592
17336SOL    HW158869  11.224   7.930   6.664 -1.4251  0.7525  1.7506
17336SOL    HW258870  11.132   7.824   6.723 -2.3489 -0.5231 -1.7509
17337SOL     OW58871   5.433   3.602   3.313  0.0638 -0.2462 -0.1663
17337SOL    HW158872   5.371   3.625   3.244 -0.4321  0.1658  0.3975
17337SOL    HW258873   5.481   3.684   3.330  0.4208 -0.4351 -0.2608
17338SOL     OW58874  10.693   0.701   0.164  0.3630 -0.7537  0.1667
17338SOL    HW158875  10.714   0.612   0.134 -3.7637 -1.9117  0.1529
17338SOL    HW258876  10.634   0.688   0.238  0.7823  2.0674  1.1194
17339SOL     OW58877   2.160   4.858   1.415 -0.1799  0.2763 -0.1056
17339SOL    HW158878   2.137   4.925   1.350  1.0382  0.5059 -0.3281
17339SOL    HW258879   2.117   4.779   1.384 -0.1487  0.5338 -0.8368
17340SOL     OW58880   7.278   9.792   4.177 -0.2472 -0.1378  0.1531
17340SOL    HW158881   7.355   9.843   4.203 -0.2919  1.7739 -3.0299
17340SOL    HW258882   7.307   9.740   4.103 -1.8978  0.3270 -0.8616
17341SOL     OW58883   4.580   5.511   7.177 -0.4246  0.1460 -0.8178
17341SOL    HW158884   4.541   5.556   7.101 -1.2988 -0.1333 -0.5473
17341SOL    HW258885   4.505   5.489   7.232  0.1454 -0.2740 -0.2042
17342SOL     OW58886  11.483   9.137   3.447  0.0598  0.6063  0.3778
17342SOL    HW158887  11.549   9.095   3.503 -0.8215 -1.5157 -0.0922
17342SOL    HW258888  11.404   9.139   3.500 -0.5954 -0.7761 -0.5004
17343SOL     OW58889   6.050   2.289   0.701  0.4702  0.0581  0.6588
17343SOL    HW158890   6.117   2.226   0.727 -0.8730 -1.5362  0.3658
17343SOL    HW258891   5.984   2.284   0.770 -0.9795 -0.9500 -0.7440
17344SOL     OW58892   9.223   5.579   8.693  0.4291 -0.2299 -0.4028
17344SOL    HW158893   9.200   5.493   8.657 -0.3234  0.1072 -0.7447
17344SOL    HW258894   9.169   5.641   8.643 -0.4131  0.2722  1.0626
17345SOL     OW58895   5.811  10.639   9.663 -0.3426  0.2772  0.0037
17345SOL    HW158896   5.796  10.719   9.713  0.4352  0.2705  0.2709
17345SOL    HW258897   5.758  10.572   9.707 -0.7178  0.5661 -0.0068
17346SOL     OW58898   8.285  11.890   1.566 -0.0718 -0.0885 -0.0660
17346SOL    HW158899   8.379  11.905   1.577 -0.1324  1.8923 -1.7628
17346SOL    HW258900   8.276  11.859   1.477 -1.1942  2.0967 -0.7833
17347SOL     OW58901  12.374   7.821   6.775 -0.5015  0.0906 -0.0270
17347SOL    HW158902  12.386   7.841   6.868 -2.2013  2.1407 -0.1599
17347SOL    HW258903  12.462   7.813   6.740  0.2467  2.1051  1.2484
17348SOL     OW58904   5.328   1.496   9.485 -0.1303 -0.0767 -0.1638
17348SOL    HW158905   5.249   1.508   9.539  1.2918  5.0987  1.3669
17348SOL    HW258906   5.384   1.438   9.538 -1.5393 -1.0319  0.3451
17349SOL     OW58907  11.172   9.272   2.626 -0.1452  0.1318  0.2131
17349SOL    HW158908  11.180   9.284   2.721 -1.0044 -0.2660  0.3495
17349SOL    HW258909  11.255   9.233   2.600  0.9149  2.0536  0.4631
17350SOL     OW58910   6.413   9.405  11.381 -0.4835 -0.1665  0.1613
17350SOL    HW158911   6.386   9.432  11.293 -0.9764  0.3049  0.4460
17350SOL    HW258912   6.331   9.386  11.426 -0.2665  0.0874  0.6721
17351SOL     OW58913   3.427  10.703   3.019 -0.4088  0.2640  0.5161
17351SOL    HW158914   3.495  10.695   2.952 -2.1370 -1.1584 -1.1927
17351SOL    HW258915   3.475  10.711   3.101  1.8048  0.0521 -0.6809
17352SOL     OW58916   5.087  11.226   5.948 -0.1517 -0.2132 -0.0366
17352SOL    HW158917   5.143  11.300   5.929  1.1124 -1.3519 -0.9250
17352SOL    HW258918   5.095  11.169   5.872 -2.5968 -0.3975 -0.2332
17353SOL     OW58919   2.709   9.076   4.223  0.1925 -0.3702  0.1222
17353SOL    HW158920   2.779   9.039   4.276 -0.6687 -0.3329  1.3221
17353SOL    HW258921   2.671   9.001   4.177  0.7067 -0.4575 -0.1611
17354SOL     OW58922   3.059   4.930   7.588 -0.0373  0.8353  0.2614
17354SOL    HW158923   2.992   4.929   7.656 -0.4576 -0.4306 -0.1360
17354SOL    HW258924   3.013   4.902   7.509  1.2294 -1.6827  0.2947
17355SOL     OW58925   5.139  11.631   6.280  0.4990 -0.0076  0.2923
17355SOL    HW158926   5.093  11.615   6.363  1.4601  0.2346  0.8909
17355SOL    HW258927   5.125  11.725   6.264  1.4155  0.2401  0.8831
17356SOL     OW58928   0.276   7.069   7.667  0.0534  0.9466 -0.1754
17356SOL    HW158929   0.306   7.008   7.600  0.7205 -0.1769  1.0781
17356SOL    HW258930   0.348   7.132   7.676  0.2341  0.7310 -0.0915
17357SOL     OW58931   1.014  11.918   3.210  0.3856  0.5523 -0.3292
17357SOL    HW158932   0.921  11.901   3.227  0.7896 -1.2918  0.3141
17357SOL    HW258933   1.053  11.831   3.205  2.1816  1.3056 -0.0793
17358SOL     OW58934  12.367  10.132  10.758 -0.2805 -0.1801 -0.1248
17358SOL    HW158935  12.449  10.180  10.761 -0.4288  0.0539  0.3918
17358SOL    HW258936  12.387  10.051  10.712 -0.2915  0.8934 -2.1457
17359SOL     OW58937   1.751  12.366  10.942  0.0851  0.1147 -0.4434
17359SOL    HW158938   1.669  12.402  10.978 -0.9221 -1.4860 -1.0260
17359SOL    HW258939   1.793  12.323  11.016 -0.0038  0.2455 -0.3164
17360SOL     OW58940   7.657   9.472   7.952 -0.9139  0.1244  0.5347
17360SOL    HW158941   7.674   9.406   7.885 -0.9077 -0.6077  1.2491
17360SOL    HW258942   7.562   9.484   7.952 -0.9893 -0.4300  0.9050
17361SOL     OW58943  11.145   3.533   4.209 -0.5118  0.4659  0.1979
17361SOL    HW158944  11.220   3.579   4.247  0.1934  1.4577 -2.2206
17361SOL    HW258945  11.071   3.592   4.222 -1.0520 -0.6904  2.9559
17362SOL     OW58946   4.648   9.021   9.855 -0.8032  0.6663  0.2478
17362SOL    HW158947   4.736   9.048   9.879  0.0497 -0.8557 -1.0062
17362SOL    HW258948   4.593   9.047   9.930  0.7954  1.0584  1.3216
17363SOL     OW58949  10.727   7.754   6.163  0.0707 -0.2114 -0.3051
17363SOL    HW158950  10.764   7.762   6.251  3.1435 -1.0538 -1.3721
17363SOL    HW258951  10.696   7.841   6.142  1.6103  0.6286  0.6998
17364SOL     OW58952   7.914   9.120   5.843  0.3773  0.2266 -0.2128
17364SOL    HW158953   7.901   9.155   5.931  1.1906  1.4200 -0.5399
17364SOL    HW258954   7.852   9.169   5.788  1.0079  0.6644 -0.5529
17365SOL     OW58955   9.437   0.579   9.746  0.4387  0.2859 -0.2604
17365SOL    HW158956   9.464   0.590   9.837  0.5721  1.3217 -0.4184
17365SOL    HW258957   9.415   0.667   9.716 -1.1179 -0.2534 -0.7771
17366SOL     OW58958   8.593  10.858   6.945 -0.1610  0.5924 -0.1630
17366SOL    HW158959   8.664  10.807   6.983 -0.1165  0.7424 -0.0459
17366SOL    HW258960   8.514  10.825   6.989 -0.3382 -0.5337 -1.2672
17367SOL     OW58961   0.669   2.301   1.341 -0.0623 -0.0255 -0.4905
17367SOL    HW158962   0.730   2.358   1.295 -0.3583  0.5478 -0.1916
17367SOL    HW258963   0.703   2.297   1.431 -0.3149  0.0844 -0.3884
17368SOL     OW58964   6.188   7.221   0.095  0.1421  0.4861 -0.2981
17368SOL    HW158965   6.180   7.314   0.075  1.2097  0.4864 -0.8335
17368SOL    HW258966   6.282   7.203   0.086  0.0721 -0.4522  0.6684
17369SOL     OW58967   8.932  10.329   4.847  0.2767  0.6641 -0.5899
17369SOL    HW158968   9.019  10.324   4.806  0.7932  1.8580  0.3202
17369SOL    HW258969   8.946  10.302   4.937 -0.4607  0.1523 -0.6168
17370SOL     OW58970   9.876   3.570   3.966 -0.0520 -0.0085  0.1570
17370SOL    HW158971   9.864   3.656   3.925  1.6563  0.4158  0.4947
17370SOL    HW258972   9.879   3.509   3.893  0.8624  0.4929 -0.2432
17371SOL     OW58973   6.384   4.634   1.935  0.4301 -0.1585 -0.4927
17371SOL    HW158974   6.335   4.652   2.015  1.5010 -0.5637  0.2798
17371SOL    HW258975   6.323   4.655   1.864  0.1017  2.0695  0.3788
17372SOL     OW58976   5.126   7.003   1.989 -0.4125  0.2529 -0.1381
17372SOL    HW158977   5.110   7.081   1.937 -0.1258 -0.8250 -1.9527
17372SOL    HW258978   5.064   6.938   1.954 -0.3437 -0.4720  1.0117
17373SOL     OW58979   3.537   6.116   9.931  0.1866  0.2225 -0.9449
17373SOL    HW158980   3.518   6.026   9.959  1.7179 -0.0970 -0.8742
17373SOL    HW258981   3.459   6.165   9.956  0.8572 -0.2734  2.7444
17374SOL     OW58982   2.187   8.699   1.262 -0.7559 -0.2301  0.1086
17374SOL    HW158983   2.225   8.723   1.347 -1.0519 -0.7255  0.3855
17374SOL    HW258984   2.174   8.783   1.217 -0.5125  0.0304  0.5141
17375SOL     OW58985  11.756  12.426  10.428 -0.6618  0.3089 -0.0891
17375SOL    HW158986  11.662  12.429  10.410 -1.0125  1.5708  1.6448
17375SOL    HW258987  11.795  12.485  10.363 -1.2348  0.7199 -0.0698
17376SOL     OW58988   8.232   0.278   2.500 -0.3113  0.7878 -0.0608
17376SOL    HW158989   8.309   0.286   2.444  1.3228 -0.8301  1.7969
17376SOL    HW258990   8.213   0.184   2.502 -0.8139  0.8872  1.3892
17377SOL     OW58991   6.311   4.594   9.786  0.1493 -0.1860  0.1169
17377SOL    HW158992   6.308   4.601   9.691  1.6954 -0.9375 -0.0095
17377SOL    HW258993   6.247   4.526   9.807  0.4965 -0.7034 -0.4705
17378SOL     OW58994   0.999   7.578  11.247  0.1697 -0.4244 -0.0106
17378SOL    HW158995   1.018   7.655  11.193 -2.2674 -1.6253 -2.9039
17378SOL    HW258996   1.039   7.505  11.200 -0.9779 -1.3787  0.4399
17379SOL     OW58997   0.666   3.884   0.000  0.5377  0.0636 -0.1840
17379SOL    HW158998   0.579   3.858  -0.030 -0.3094  0.8851  1.4534
17379SOL    HW258999   0.658   3.977   0.019  1.8854  0.2291 -0.3701
17380SOL     OW59000   0.876   3.858   9.957  0.1091 -0.0644 -0.4808
17380SOL    HW159001   0.906   3.882  10.045  0.2057 -1.8529  0.0189
17380SOL    HW259002   0.882   3.938   9.907 -2.3323  1.7086  1.7678
17381SOL     OW59003   5.962   9.485   4.959 -0.4115  0.6010 -0.2217
17381SOL    HW159004   5.883   9.522   4.998 -1.0368  1.6905 -2.3881
17381SOL    HW259005   6.029   9.492   5.028 -1.8923  0.6906  1.2596
17382SOL     OW59006   0.523   2.194  11.248  0.0323 -0.0136  0.0534
17382SOL    HW159007   0.440   2.236  11.222 -0.0358  0.9142  1.6296
17382SOL    HW259008   0.589   2.263  11.237  0.2465 -0.0997  0.7668
17383SOL     OW59009   6.657  11.341  12.272  0.5508 -0.2723  0.0405
17383SOL    HW159010   6.649  11.296  12.188 -0.8752 -0.0944  0.0467
17383SOL    HW259011   6.568  11.339  12.308  0.3786  2.5806 -0.0024
17384SOL     OW59012   5.218   9.450   5.867 -0.2949 -0.3234 -0.4951
17384SOL    HW159013   5.179   9.534   5.844  0.9748  1.1703  2.3640
17384SOL    HW259014   5.294   9.442   5.811  0.0116  0.8418 -0.2696
17385SOL     OW59015  10.583   4.944   3.396 -0.2945 -0.2434  0.1605
17385SOL    HW159016  10.540   4.875   3.344 -1.6882 -0.4230  1.5046
17385SOL    HW259017  10.519   5.015   3.399 -0.2506 -0.2503  1.6393
17386SOL     OW59018   4.775   6.026   7.943  0.4782  0.3804 -0.3742
17386SOL    HW159019   4.692   6.016   7.989  0.4326  2.1752 -0.0092
17386SOL    HW259020   4.841   6.016   8.012  0.6363 -1.5656 -0.7475
17387SOL     OW59021   2.850   4.967   3.218 -0.1738 -0.2930  0.4090
17387SOL    HW159022   2.801   5.012   3.150 -1.5347 -1.3960  0.6120
17387SOL    HW259023   2.942   4.978   3.194 -0.6068 -0.1649 -1.2776
17388SOL     OW59024   3.579   8.165   5.771 -0.0407  0.1245 -0.5117
17388SOL    HW159025   3.550   8.246   5.812 -0.7723 -0.1934 -0.3797
17388SOL    HW259026   3.587   8.103   5.845  1.1998  0.2561 -0.5100
17389SOL     OW59027   6.202  12.413  11.939  0.2868 -0.3857 -0.0948
17389SOL    HW159028   6.189  12.464  12.020  0.7351 -2.0771  1.1020
17389SOL    HW259029   6.115  12.409  11.899  0.0542  0.4654  0.3007
17390SOL     OW59030   9.234   6.775   7.297  0.2887  0.2690 -0.7138
17390SOL    HW159031   9.268   6.695   7.257 -2.5349 -1.5341  0.1661
17390SOL    HW259032   9.139   6.770   7.283 -0.2598  2.1360  1.6552
17391SOL     OW59033  12.258   6.944  12.213  0.2936  0.2256  0.3213
17391SOL    HW159034  12.163   6.952  12.209  0.1103 -0.9130  1.5856
17391SOL    HW259035  12.274   6.849  12.215  1.4738  0.3975 -0.2079
17392SOL     OW59036   4.160   5.155  11.781  0.5636  0.2567  0.0203
17392SOL    HW159037   4.082   5.192  11.823  0.4977  0.7796 -0.5601
17392SOL    HW259038   4.131   5.069  11.748  0.8302 -0.5326  1.7320
17393SOL     OW59039  12.178   1.582  10.902  0.6550 -0.4302 -0.2148
17393SOL    HW159040  12.174   1.588  10.997  2.1245  1.1913 -0.1955
17393SOL    HW259041  12.179   1.674  10.873  1.3631 -0.8806 -1.7038
17394SOL     OW59042   3.630   5.527   6.601  0.4371 -0.3331 -0.4098
17394SOL    HW159043   3.591   5.542   6.687  1.2773 -2.6711  0.4616
17394SOL    HW259044   3.713   5.575   6.603 -0.0391  0.5171 -0.3763
17395SOL     OW59045  11.999   7.972   3.841  0.4057  0.3040 -0.2919
17395SOL    HW159046  11.913   8.007   3.817  0.1184 -0.0767  0.1460
17395SOL    HW259047  12.039   8.039   3.895  0.6281  0.7282 -0.9729
17396SOL     OW59048   8.493   4.356   6.335 -0.1855 -0.1318  0.1369
17396SOL    HW159049   8.543   4.411   6.275  0.8363 -1.9535 -0.7669
17396SOL    HW259050   8.417   4.408   6.358  0.6008  1.5393 -0.8657
17397SOL     OW59051   1.647   8.580   2.269  0.5711 -0.6118  0.0755
17397SOL    HW159052   1.581   8.558   2.203  2.7665 -1.5997 -1.9184
17397SOL    HW259053   1.687   8.661   2.237  1.0562 -0.5981  0.6970
17398SOL     OW59054   4.851   1.870   6.145  0.1238 -0.0113  0.4629
17398SOL    HW159055   4.853   1.846   6.052 -0.4016  0.8687  0.2066
17398SOL    HW259056   4.940   1.896   6.166  0.3111 -0.5104  0.2860
17399SOL     OW59057   3.649   3.577   7.001 -0.5307  0.1470 -0.1713
17399SOL    HW159058   3.612   3.539   6.921 -1.0260  0.4936 -0.1093
17399SOL    HW259059   3.587   3.553   7.070  0.2659 -0.7989  0.2597
17400SOL     OW59060   1.028   9.178   4.904 -0.0398  0.3996  0.4718
17400SOL    HW159061   1.063   9.267   4.912 -1.5392  1.0049  0.6171
17400SOL    HW259062   0.993   9.175   4.815 -0.9286  0.3288  0.8122
17401SOL     OW59063   4.413   9.555   8.277 -0.1720 -1.0997 -0.1213
17401SOL    HW159064   4.494   9.587   8.238  0.6147  1.1904  3.0788
17401SOL    HW259065   4.344   9.591   8.222  0.9038  0.1562 -0.6880
17402SOL     OW59066   2.035   5.171   5.165 -0.1577 -0.8229 -0.4612
17402SOL    HW159067   2.064   5.090   5.207 -0.7793 -1.0760 -0.5080
17402SOL    HW259068   1.948   5.187   5.201 -0.2105 -0.4027 -0.7665
17403SOL     OW59069   6.864   0.790   3.478 -0.0661  0.1172  0.1995
17403SOL    HW159070   6.816   0.723   3.526  1.6228 -0.6690  0.8591
17403SOL    HW259071   6.818   0.871   3.498 -1.1877 -0.6207  0.6879
17404SOL     OW59072   3.230   4.194  11.700 -0.3173 -0.2145  0.4596
17404SOL    HW159073   3.213   4.166  11.610  0.8596  0.6780 -0.0622
17404SOL    HW259074   3.315   4.237  11.696  0.3858 -1.3361  2.2615
17405SOL     OW59075  10.195   7.899   9.137 -0.5326  1.0410  0.0346
17405SOL    HW159076  10.173   7.964   9.071  0.8112  2.4548  0.8989
17405SOL    HW259077  10.285   7.920   9.162 -0.0045 -1.2566  0.2593
17406SOL     OW59078   8.324   2.114   2.264 -0.1570  0.2895 -0.8745
17406SOL    HW159079   8.318   2.060   2.343  0.4533 -0.4731 -1.3239
17406SOL    HW259080   8.390   2.180   2.286 -1.4850  1.3947 -0.0384
17407SOL     OW59081   0.888   8.488   0.150  0.1377 -0.0511  0.4855
17407SOL    HW159082   0.812   8.543   0.171 -0.0842 -0.8827  1.9881
17407SOL    HW259083   0.902   8.436   0.229  0.6089 -1.8589 -0.7381
17408SOL     OW59084   4.092   4.671   7.286  0.3310  0.0596 -0.0854
17408SOL    HW159085   4.116   4.610   7.215 -0.2377 -0.4977  0.1854
17408SOL    HW259086   4.073   4.614   7.361 -0.3580  0.5566  0.1301
17409SOL     OW59087   7.182   4.469   4.882 -0.0867 -0.6092  0.3639
17409SOL    HW159088   7.143   4.435   4.963 -2.2673 -0.2418 -0.4650
17409SOL    HW259089   7.143   4.415   4.813  0.8991 -0.2003 -0.5209
17410SOL     OW59090   8.848   8.203   9.376 -0.0145  0.1847  0.2617
17410SOL    HW159091   8.772   8.174   9.425  2.3430 -2.0278  2.9349
17410SOL    HW259092   8.868   8.290   9.411  0.0304 -0.2154  1.2475
17411SOL     OW59093  11.134   9.175   7.147 -0.4074 -0.4432  0.0621
17411SOL    HW159094  11.176   9.089   7.152  0.4794 -0.0335 -0.2557
17411SOL    HW259095  11.206   9.237   7.155 -1.1196  0.2888  1.0533
17412SOL     OW59096   5.678   8.278   3.144  0.1647  0.3896 -0.1048
17412SOL    HW159097   5.761   8.231   3.155 -0.5294 -1.1211 -0.9977
17412SOL    HW259098   5.697   8.345   3.078  0.3379 -0.9029 -1.4068
17413SOL     OW59099  11.127   6.627  11.017 -0.3635  0.2674  0.2629
17413SOL    HW159100  11.189   6.647  10.947 -0.9853  2.3173  0.2029
17413SOL    HW259101  11.121   6.709  11.067 -1.8489 -0.3517  1.1717
17414SOL     OW59102   7.002   4.006   6.295  0.1310 -0.1402 -0.6893
17414SOL    HW159103   7.010   3.916   6.328 -0.7435 -0.2854 -0.8327
17414SOL    HW259104   7.064   4.057   6.346 -0.3533 -0.5770  0.3547
17415SOL     OW59105   8.096  10.059   6.559 -0.1310  0.1128  0.0812
17415SOL    HW159106   8.128  10.119   6.492 -1.3084  1.1892  0.4574
17415SOL    HW259107   8.175  10.036   6.609  0.1122  2.7671  1.0519
17416SOL     OW59108   2.682   4.551  10.410 -0.4267  0.3440 -0.1564
17416SOL    HW159109   2.648   4.480  10.464 -1.5970 -0.0860 -1.3976
17416SOL    HW259110   2.730   4.507  10.340  1.8147  0.9194  0.9361
17417SOL     OW59111   5.716  10.890   9.750  0.2098 -0.0461 -0.5378
17417SOL    HW159112   5.785  10.951   9.780  1.6270 -0.1268 -3.3289
17417SOL    HW259113   5.643  10.947   9.726  0.8419  0.4276 -1.3951
17418SOL     OW59114  11.167   5.270   5.599 -0.2270  0.4133  0.1639
17418SOL    HW159115  11.184   5.323   5.677 -1.4919  0.1337  0.6566
17418SOL    HW259116  11.141   5.334   5.532  2.7687  0.8953 -0.7142
17419SOL     OW59117   8.030  10.928   9.513 -0.4369 -0.7463 -0.2723
17419SOL    HW159118   7.995  10.935   9.602  0.6693 -0.3779  0.1606
17419SOL    HW259119   8.008  10.840   9.484 -2.8746 -0.1097 -0.5585
17420SOL     OW59120   5.324   2.570   6.757 -0.2530 -0.3769  0.4867
17420SOL    HW159121   5.389   2.626   6.715 -0.4794 -1.5518 -1.5627
17420SOL    HW259122   5.243   2.620   6.753 -0.3899 -0.6582 -1.0726
17421SOL     OW59123   0.390  10.118  10.594 -0.3495  0.3942  0.1188
17421SOL    HW159124   0.326  10.171  10.641  0.4247 -0.2769  1.9994
17421SOL    HW259125   0.475  10.154  10.620  0.1381 -0.8220  0.3019
17422SOL     OW59126  12.185   9.325  10.620  0.2840  0.1687 -0.3947
17422SOL    HW159127  12.273   9.348  10.650  0.2480  0.0218 -0.1710
17422SOL    HW259128  12.140   9.296  10.700  0.4675 -1.1159 -0.7425
17423SOL     OW59129   7.497   6.677  11.909  0.1103  0.1919  0.1704
17423SOL    HW159130   7.516   6.603  11.967 -1.1128 -0.7804 -0.6211
17423SOL    HW259131   7.563   6.743  11.932  0.8481 -0.8995  1.3176
17424SOL     OW59132   9.792  11.327   6.135  0.2500 -0.1734 -0.5093
17424SOL    HW159133   9.837  11.411   6.138  3.4139 -1.7444  0.4393
17424SOL    HW259134   9.700  11.349   6.124  0.8647  3.3954  0.3827
17425SOL     OW59135   7.106   5.771   1.129  0.6543  0.0721  0.4085
17425SOL    HW159136   7.154   5.799   1.051 -2.3000 -0.4624 -1.7608
17425SOL    HW259137   7.053   5.847   1.153 -0.0154 -0.4496  0.6018
17426SOL     OW59138   0.735   1.221  10.678  0.3255  0.2226 -1.1043
17426SOL    HW159139   0.686   1.139  10.677  1.0540 -0.2850  0.8436
17426SOL    HW259140   0.735   1.249  10.587 -3.4629  0.2108 -1.2928
17427SOL     OW59141   1.308   8.118   1.717  0.1788  0.4509  0.0435
17427SOL    HW159142   1.358   8.199   1.729  3.0894 -0.6341 -2.9634
17427SOL    HW259143   1.355   8.053   1.770 -1.1243  0.3669  1.1256
17428SOL     OW59144   6.892   4.777   4.391 -0.2429 -0.3342  0.2919
17428SOL    HW159145   6.829   4.714   4.356  0.0880 -0.2841 -0.4142
17428SOL    HW259146   6.876   4.857   4.341 -0.3691  0.0197  0.8867
17429SOL     OW59147   0.622   3.820   2.371  0.3938  0.0619  0.0232
17429SOL    HW159148   0.699   3.812   2.314  0.0940 -0.1832 -0.3508
17429SOL    HW259149   0.657   3.810   2.460  0.5509 -1.9115 -0.2200
17430SOL     OW59150   1.362   0.232   0.004  0.3515 -0.2118 -0.7369
17430SOL    HW159151   1.377   0.185   0.086  0.7233 -0.2446 -0.8212
17430SOL    HW259152   1.268   0.253   0.005 -0.1441 -2.1124 -1.3038
17431SOL     OW59153   9.419   3.871   8.705  0.0324  0.0298 -0.4893
17431SOL    HW159154   9.457   3.783   8.711 -0.5476 -0.2209 -0.3903
17431SOL    HW259155   9.361   3.866   8.629 -0.7106  0.0457  0.0658
17432SOL     OW59156   2.074   6.786   0.339  0.5760 -0.2887 -0.2596
17432SOL    HW159157   2.086   6.695   0.367  1.2384 -0.3137 -0.5850
17432SOL    HW259158   2.008   6.822   0.399  0.4724 -0.9209  0.0094
17433SOL     OW59159   3.670   6.456   7.917  0.1992  0.3503  0.3992
17433SOL    HW159160   3.696   6.440   7.826 -1.4409  0.3731 -0.0949
17433SOL    HW259161   3.663   6.368   7.954  0.7183  0.3354  0.4797
17434SOL     OW59162   9.038   4.333   3.564  0.3455  0.6918 -0.5156
17434SOL    HW159163   8.975   4.401   3.539 -1.3404 -0.2817  0.8068
17434SOL    HW259164   9.118   4.380   3.586 -1.0175  2.4001  1.1704
17435SOL     OW59165   9.857  11.055   5.939  0.5043  0.2127 -0.3527
17435SOL    HW159166   9.840  11.138   5.894 -0.5895 -0.2123 -0.7677
17435SOL    HW259167   9.772  11.032   5.978  0.4913 -1.2516 -1.1806
17436SOL     OW59168   7.766   3.540  10.996 -0.4721 -0.0817 -0.3718
17436SOL    HW159169   7.722   3.623  11.016  1.0313  0.3488  1.4424
17436SOL    HW259170   7.765   3.492  11.079  2.4913  0.0129 -0.1819
17437SOL     OW59171   8.505  11.859   4.415 -0.0643  0.5741  0.1511
17437SOL    HW159172   8.563  11.804   4.362 -1.7733 -0.7488 -0.4310
17437SOL    HW259173   8.503  11.817   4.501 -2.2507 -1.0764 -0.6018
17438SOL     OW59174   3.070   0.524  11.203  0.0576 -0.3907 -0.0334
17438SOL    HW159175   3.104   0.495  11.118  0.3026  1.9512 -0.8080
17438SOL    HW259176   3.025   0.448  11.238 -0.8123 -1.1852 -2.6604
17439SOL     OW59177  11.157   2.454   5.162  0.6592 -0.4190  0.4701
17439SOL    HW159178  11.137   2.454   5.069  0.7787 -0.1175  0.4437
17439SOL    HW259179  11.123   2.538   5.194 -0.6576 -1.1104  0.9787
17440SOL     OW59180   7.227   7.878   3.723 -0.0640  0.2168 -0.4032
17440SOL    HW159181   7.172   7.847   3.794 -1.0282  0.4543 -1.0203
17440SOL    HW259182   7.249   7.969   3.746  0.7888 -0.1484  0.2541
17441SOL     OW59183  11.187  10.390   9.826 -0.1472 -0.3429 -0.0016
17441SOL    HW159184  11.126  10.401   9.899  1.4176  1.0519  1.1502
17441SOL    HW259185  11.149  10.443   9.755 -0.8852 -0.4594  0.2979
17442SOL     OW59186   7.218   9.161   0.431  0.2169 -0.4902 -0.4789
17442SOL    HW159187   7.292   9.152   0.491 -0.9658  1.9049  1.5620
17442SOL    HW259188   7.196   9.072   0.405  2.4947 -1.3963  0.4805
17443SOL     OW59189   7.228   3.934   1.275  0.6183  0.2086 -0.2485
17443SOL    HW159190   7.209   3.951   1.182 -0.1362  0.5001 -0.0454
17443SOL    HW259191   7.232   4.021   1.314  0.3984  0.0616  0.0993
17444SOL     OW59192   7.929   5.521  11.361  0.4486 -0.3969  0.3265
17444SOL    HW159193   7.872   5.539  11.287 -1.7860 -0.1708  1.9991
17444SOL    HW259194   7.999   5.585  11.354 -0.5377  0.5977 -0.7733
17445SOL     OW59195   8.786   4.551   9.277  0.4483  0.0340  0.1322
17445SOL    HW159196   8.786   4.645   9.297 -0.4551  0.1968 -0.5297
17445SOL    HW259197   8.827   4.545   9.190 -0.8585  0.0117 -0.5112
17446SOL     OW59198  10.446  10.452   2.879  0.2994  0.1174 -0.2002
17446SOL    HW159199  10.457  10.364   2.916 -1.4650 -0.2769 -0.5100
17446SOL    HW259200  10.534  10.480   2.855  1.1676 -0.7029  1.8247
17447SOL     OW59201   0.444   9.568   7.424  0.7586  0.4151  0.8711
17447SOL    HW159202   0.509   9.633   7.450  2.4475 -1.5070  1.7213
17447SOL    HW259203   0.450   9.564   7.328  1.1571  0.9744  0.8733
17448SOL     OW59204   5.123  11.821   8.666 -0.3186 -0.5180 -0.0622
17448SOL    HW159205   5.033  11.811   8.633 -0.0628  1.0906 -1.3705
17448SOL    HW259206   5.133  11.750   8.730 -2.7316 -0.3417  0.6102
17449SOL     OW59207   6.837   8.810   1.083  0.0512  0.1351 -0.2388
17449SOL    HW159208   6.799   8.766   1.007  2.5727 -2.1453 -0.3060
17449SOL    HW259209   6.784   8.781   1.157 -0.1849 -0.5938 -0.6864
17450SOL     OW59210   7.100   8.315   2.801 -0.2759  0.6396 -0.0649
17450SOL    HW159211   7.037   8.263   2.850 -1.1555 -1.2753 -2.9509
17450SOL    HW259212   7.049   8.386   2.763  0.2668  1.7190  1.1501
17451SOL     OW59213   2.935   5.940   7.937  0.8109 -0.0440  0.0695
17451SOL    HW159214   3.023   5.931   7.901  0.9330 -1.0110  0.5670
17451SOL    HW259215   2.879   5.893   7.876  0.9652 -1.3550  0.9007
17452SOL     OW59216   2.033   3.454   5.568 -0.2511  0.0781 -0.1719
17452SOL    HW159217   2.050   3.479   5.659 -1.4487 -0.0333  0.0942
17452SOL    HW259218   2.028   3.359   5.570  2.7952 -0.2075 -0.9264
17453SOL     OW59219   8.548   6.097   1.138 -0.3639 -0.2051 -0.1072
17453SOL    HW159220   8.591   6.128   1.059  0.1533  0.2942  0.3634
17453SOL    HW259221   8.587   6.012   1.155  1.3742  0.7660  1.0057
17454SOL     OW59222   4.971  11.490   4.676  0.7097 -0.2787 -0.1324
17454SOL    HW159223   4.925  11.407   4.688  0.6669 -0.2679 -0.2239
17454SOL    HW259224   5.009  11.509   4.762 -1.9938  1.2511  0.8455
17455SOL     OW59225   9.655   5.701   7.753 -0.1186  0.1993  0.2302
17455SOL    HW159226   9.747   5.729   7.752 -0.3322  1.1001  1.6026
17455SOL    HW259227   9.655   5.621   7.805 -0.3045  1.2154  1.8845
17456SOL     OW59228   6.754   0.623  11.641 -0.3800  0.1195 -0.5153
17456SOL    HW159229   6.759   0.694  11.578 -1.0779  1.8074  1.2497
17456SOL    HW259230   6.795   0.549  11.597  3.1403  2.3553 -1.3649
17457SOL     OW59231   6.360   7.565  11.487  0.0803 -0.4945 -0.0463
17457SOL    HW159232   6.383   7.472  11.478  0.4894 -0.4128  0.1397
17457SOL    HW259233   6.311   7.585  11.407 -2.3434 -1.5458  1.0612
17458SOL     OW59234   4.014   7.094   9.362  0.5599  0.1672  0.9924
17458SOL    HW159235   3.965   7.103   9.444 -3.1815  0.2720 -1.0199
17458SOL    HW259236   4.070   7.017   9.376 -0.8078 -0.5106  3.2810
17459SOL     OW59237   4.618   6.143   0.518  0.9417  0.1945  0.0947
17459SOL    HW159238   4.555   6.120   0.449 -0.7278  1.2120  1.2047
17459SOL    HW259239   4.702   6.147   0.473  0.1868 -0.8359 -1.5371
17460SOL     OW59240   0.943  10.716   4.984 -0.3052 -0.1850  0.2850
17460SOL    HW159241   0.973  10.676   4.903  0.0553 -0.8406  0.7419
17460SOL    HW259242   0.926  10.643   5.043  0.8436  0.3309  1.2996
17461SOL     OW59243   0.305   2.336   1.967  0.1153 -0.4941  0.4812
17461SOL    HW159244   0.376   2.272   1.959  0.0672 -0.6842  1.4469
17461SOL    HW259245   0.228   2.284   1.990 -0.0333 -0.1410  0.7888
17462SOL     OW59246   7.022   8.604   3.487 -0.0084 -0.0975 -0.3611
17462SOL    HW159247   7.076   8.670   3.531  1.3736 -0.9433 -0.7206
17462SOL    HW259248   7.052   8.521   3.523 -0.0206 -0.6882 -1.6483
17463SOL     OW59249   2.487  10.030   7.648 -0.2071 -0.1249 -0.7754
17463SOL    HW159250   2.520   9.940   7.648  2.4320  0.7667 -0.6213
17463SOL    HW259251   2.564  10.084   7.630 -1.1146  2.2972  1.9293
17464SOL     OW59252   8.454   7.547  12.080  0.0255 -0.2230 -0.1494
17464SOL    HW159253   8.516   7.566  12.009  0.0665 -1.4573 -0.4751
17464SOL    HW259254   8.428   7.632  12.114 -0.0046  0.3899 -1.6664
17465SOL     OW59255   6.520  11.017   1.696  0.0600 -0.2410 -0.2601
17465SOL    HW159256   6.565  11.096   1.667  0.1591 -0.5851 -1.0539
17465SOL    HW259257   6.447  11.007   1.634 -1.3044  0.4624  1.1547
17466SOL     OW59258   0.044   5.453   9.285  0.1497 -0.3470  0.0619
17466SOL    HW159259   0.089   5.369   9.292  0.2809 -0.2760  0.0742
17466SOL    HW259260   0.057   5.494   9.370  0.9288  0.1062 -0.2702
17467SOL     OW59261   5.362  12.262   1.541  0.6096  0.3024 -0.1879
17467SOL    HW159262   5.424  12.254   1.614  1.4580 -0.7142 -0.9875
17467SOL    HW259263   5.330  12.352   1.546  1.9582  0.7686  0.4018
17468SOL     OW59264   1.710   5.189   5.845  0.0519 -0.7995 -0.6505
17468SOL    HW159265   1.678   5.099   5.847  0.8393 -1.0827  0.5812
17468SOL    HW259266   1.645   5.240   5.893  0.8444 -1.1922  0.9229
17469SOL     OW59267   5.794   9.125   8.127  0.1300  0.4803  0.5145
17469SOL    HW159268   5.880   9.110   8.089 -0.2356 -0.4331  0.0383
17469SOL    HW259269   5.745   9.172   8.060 -0.3377 -0.6495  0.0471
17470SOL     OW59270   4.320   0.465   1.440  0.2960 -0.1806 -0.1614
17470SOL    HW159271   4.362   0.530   1.496  0.1253 -0.1670 -0.0498
17470SOL    HW259272   4.258   0.515   1.388 -0.1703 -0.3220  0.2538
17471SOL     OW59273  12.445  12.354  10.499  0.0318  0.5635  0.7491
17471SOL    HW159274  12.455  12.318  10.587 -0.4541  0.5027  0.7831
17471SOL    HW259275  12.490  12.293  10.442  3.1672  2.2024  1.2672
17472SOL     OW59276   8.259   8.193   7.673 -0.4379 -0.4935  0.4801
17472SOL    HW159277   8.173   8.186   7.715 -1.4106 -0.2300 -1.3445
17472SOL    HW259278   8.262   8.282   7.639  0.0568 -0.8551 -0.4600
17473SOL     OW59279  11.320   9.503   6.051  0.1480  0.1135 -0.3526
17473SOL    HW159280  11.224   9.506   6.045 -0.2469 -2.3023  2.6045
17473SOL    HW259281  11.345   9.591   6.080 -1.1607  0.7198 -0.9860
17474SOL     OW59282   8.985   7.374   3.197 -0.1285 -0.2204 -0.2634
17474SOL    HW159283   8.974   7.348   3.106 -0.3004 -0.6108 -0.1299
17474SOL    HW259284   8.913   7.434   3.214 -0.1247 -0.1854 -0.3691
17475SOL     OW59285   4.756   1.620   8.965 -0.7238  0.2361 -0.2169
17475SOL    HW159286   4.762   1.535   8.922  1.2268  1.0885 -1.7985
17475SOL    HW259287   4.679   1.613   9.021 -2.6180 -1.4169 -2.8006
17476SOL     OW59288   1.332  12.214   0.511 -0.5291  0.3285 -0.2545
17476SOL    HW159289   1.375  12.259   0.583 -1.0151  2.0409 -0.9744
17476SOL    HW259290   1.240  12.212   0.536 -0.5503 -0.0039 -0.3599
17477SOL     OW59291   7.325   0.177   6.323  0.1615 -1.3785  0.7115
17477SOL    HW159292   7.323   0.107   6.257 -0.8390  0.8639 -1.8436
17477SOL    HW259293   7.411   0.218   6.311 -0.4559 -0.2635 -0.0467
17478SOL     OW59294   5.204   2.465   8.081  0.3557  0.2996  0.4076
17478SOL    HW159295   5.286   2.416   8.083 -1.2209 -2.6509  0.0292
17478SOL    HW259296   5.158   2.438   8.161 -0.5154  1.3960  0.3092
17479SOL     OW59297   5.781   5.747   4.314  0.3276 -0.0566 -0.5192
17479SOL    HW159298   5.737   5.735   4.230 -0.0506 -0.8239 -0.2213
17479SOL    HW259299   5.710   5.773   4.374  0.8064  1.8272 -0.7131
17480SOL     OW59300   0.673   7.453  11.735 -0.2635  0.2512 -0.0055
17480SOL    HW159301   0.653   7.502  11.656 -0.5088  0.9190  0.4579
17480SOL    HW259302   0.588   7.438  11.776 -0.2278 -0.8937 -0.3260
17481SOL     OW59303   4.672   5.340   0.223 -0.0549  0.0865  0.9774
17481SOL    HW159304   4.695   5.412   0.283  1.0949  2.3316 -1.9415
17481SOL    HW259305   4.580   5.321   0.244 -0.1596  1.8558  2.3915
17482SOL     OW59306   3.236   0.931  10.883  0.1363 -0.6632 -0.0295
17482SOL    HW159307   3.297   0.866  10.848  0.9254  0.2240 -0.3564
17482SOL    HW259308   3.284   0.974  10.954 -0.2031 -0.1319 -0.1156
17483SOL     OW59309   6.004   1.035   1.837  0.0109 -0.5812  0.0424
17483SOL    HW159310   6.048   0.961   1.795  0.4740 -0.9165  1.0776
17483SOL    HW259311   6.044   1.039   1.924 -0.3574  0.5885  0.1613
17484SOL     OW59312   1.257   3.785   0.954  0.8078  0.2004  0.6691
17484SOL    HW159313   1.200   3.797   0.878 -0.7095  0.0615  1.7311
17484SOL    HW259314   1.239   3.861   1.010 -0.7852 -1.4033  2.4799
17485SOL     OW59315   5.414  11.515   1.894  0.4590 -0.7288  0.2478
17485SOL    HW159316   5.510  11.522   1.888  0.4087 -0.0566  0.1628
17485SOL    HW259317   5.396  11.504   1.987  0.4556  2.2363  0.6977
17486SOL     OW59318  12.202  10.374   5.183 -0.1838 -0.2646 -0.1952
17486SOL    HW159319  12.151  10.408   5.109  0.1169 -0.6485 -0.5805
17486SOL    HW259320  12.202  10.446   5.246 -0.3893  0.0925 -0.5938
17487SOL     OW59321   7.438   6.544   9.046  0.3516  0.0681  0.5049
17487SOL    HW159322   7.445   6.637   9.021 -0.1584 -0.4120 -1.6179
17487SOL    HW259323   7.345   6.530   9.061  0.1985 -0.4581 -0.8212
17488SOL     OW59324   1.182   9.538   7.835 -0.1955 -0.4357  0.0164
17488SOL    HW159325   1.163   9.629   7.810  0.2769 -0.0805  0.9037
17488SOL    HW259326   1.233   9.546   7.916 -1.0377 -1.5102  0.6857
17489SOL     OW59327   4.679  12.393   3.403  0.3463  0.0325 -0.2607
17489SOL    HW159328   4.614  12.322   3.397  0.3084  0.0147  0.2909
17489SOL    HW259329   4.761  12.353   3.372  0.1884 -0.0662 -0.5575
17490SOL     OW59330   9.257   1.199   5.282  0.7033 -0.2618  0.0765
17490SOL    HW159331   9.304   1.273   5.244 -0.5049  1.0947  1.1036
17490SOL    HW259332   9.215   1.234   5.360 -0.4996 -1.8623  0.2165
17491SOL     OW59333   8.438  11.868   6.414 -0.6605  0.6083  0.2631
17491SOL    HW159334   8.487  11.883   6.494  0.3051 -0.7759 -0.0424
17491SOL    HW259335   8.354  11.913   6.428  0.7936  3.4376  0.6090
17492SOL     OW59336  12.481   3.612  10.418  0.1233 -0.2623 -0.4989
17492SOL    HW159337  12.407   3.667  10.442  1.3270  1.1210  0.2096
17492SOL    HW259338  12.538   3.613  10.495  0.7623 -1.5162 -0.9254
17493SOL     OW59339   0.180   7.660   8.694  0.2705  0.1243 -0.2384
17493SOL    HW159340   0.163   7.636   8.602  0.1462  1.0077 -0.4565
17493SOL    HW259341   0.257   7.609   8.718 -0.6025 -1.2936 -0.3436
17494SOL     OW59342   9.055   5.635   1.288 -0.4463 -0.1092 -0.4974
17494SOL    HW159343   9.134   5.581   1.286  0.1179  0.6307  0.4656
17494SOL    HW259344   9.069   5.694   1.362 -1.4545  0.7248 -0.9492
17495SOL     OW59345   5.319   3.254  12.102  0.7622  0.2213 -0.7849
17495SOL    HW159346   5.297   3.347  12.101  0.1248  0.1113  0.4318
17495SOL    HW259347   5.381   3.242  12.030  0.4561  1.4819 -1.2714
17496SOL     OW59348   5.258   1.821   0.235  0.1858 -0.4371  0.0686
17496SOL    HW159349   5.204   1.745   0.256 -0.7520  0.9640  3.4494
17496SOL    HW259350   5.340   1.806   0.282  0.0242  0.5301  0.7102
17497SOL     OW59351  11.668   2.561  10.363 -0.0289 -0.1259 -0.9377
17497SOL    HW159352  11.693   2.504  10.436 -1.7081 -0.5724 -0.6746
17497SOL    HW259353  11.588   2.522  10.328 -0.7165  1.5511 -1.3307
17498SOL     OW59354   2.767  11.481  11.155  0.0517  0.6414  0.2353
17498SOL    HW159355   2.805  11.504  11.071 -0.6591  0.8682 -0.0356
17498SOL    HW259356   2.749  11.387  11.149 -1.8215  1.0074 -0.6429
17499SOL     OW59357   0.585   3.939   1.217  0.8161  0.8614  0.2336
17499SOL    HW159358   0.658   3.884   1.190  0.5402  0.7021 -0.1976
17499SOL    HW259359   0.509   3.903   1.171  0.6465  1.6478 -0.1250
17500SOL     OW59360   4.173  10.963   2.050  0.1760  0.1974  0.4424
17500SOL    HW159361   4.175  10.882   2.101  1.3282 -0.1778 -0.1705
17500SOL    HW259362   4.207  11.029   2.110  1.4649 -0.2306  0.2196
17501SOL     OW59363   9.599   6.404   8.325  0.6429 -0.3313  0.7917
17501SOL    HW159364   9.662   6.348   8.280  1.0254  0.5946  0.1628
17501SOL    HW259365   9.648   6.439   8.400  0.8980  0.4058  0.2901
17502SOL     OW59366   2.376  10.253  11.611 -0.0912 -0.1021  0.5617
17502SOL    HW159367   2.316  10.289  11.676  0.9722  0.3989  1.2947
17502SOL    HW259368   2.382  10.322  11.544  0.7304  0.4570  1.1875
17503SOL     OW59369   0.867   1.037   5.386  0.3707 -0.0032 -0.0193
17503SOL    HW159370   0.887   1.088   5.464 -1.7057 -1.5873  1.6622
17503SOL    HW259371   0.938   0.973   5.380  0.1344 -0.3927  1.0850
17504SOL     OW59372  11.825   4.285   0.149  0.1656 -0.3270  0.2710
17504SOL    HW159373  11.894   4.219   0.138 -1.9285 -2.6296  0.1759
17504SOL    HW259374  11.830   4.338   0.069  0.5612 -1.7087 -0.6646
17505SOL     OW59375   0.277   0.368   1.777 -0.1147  0.7110  0.9916
17505SOL    HW159376   0.303   0.283   1.743  0.2891  0.2403  2.4389
17505SOL    HW259377   0.187   0.356   1.807 -0.1570  0.8804  0.9354
17506SOL     OW59378  10.853  11.433   1.160 -0.1303 -0.6965 -0.5448
17506SOL    HW159379  10.767  11.407   1.128 -1.4656  0.5647  1.7837
17506SOL    HW259380  10.836  11.507   1.219  2.5576 -0.3533 -0.0561
17507SOL     OW59381   9.450   9.506  11.453  0.7842  0.0498 -0.0282
17507SOL    HW159382   9.544   9.525  11.460  0.8189 -0.1180 -0.0529
17507SOL    HW259383   9.427   9.465  11.536  0.4520  1.2982  0.5232
17508SOL     OW59384  11.337   3.678   3.326 -0.1938 -0.1270 -0.2016
17508SOL    HW159385  11.308   3.708   3.412 -0.3785  0.2678 -0.3978
17508SOL    HW259386  11.260   3.686   3.270 -0.2563 -1.0085 -0.2552
17509SOL     OW59387   2.496   4.065  12.030  0.1523  0.3294  1.0555
17509SOL    HW159388   2.420   4.122  12.020  1.4467  2.1639  1.0795
17509SOL    HW259389   2.552   4.087  11.955  0.6007 -1.1197  0.9336
17510SOL     OW59390  10.297   2.708   4.812  0.7622 -0.2606 -0.7645
17510SOL    HW159391  10.209   2.733   4.784 -0.7410  0.1504  3.5608
17510SOL    HW259392  10.316   2.628   4.763 -2.7401 -1.2304 -0.8036
17511SOL     OW59393   6.743   2.611   0.807 -0.1593 -0.2479  0.3068
17511SOL    HW159394   6.836   2.612   0.783 -0.1573 -0.1675  0.3156
17511SOL    HW259395   6.743   2.603   0.902 -0.1874 -1.8596  0.2000
17512SOL     OW59396   7.603  10.414   1.891  0.0662  0.1820  0.1974
17512SOL    HW159397   7.514  10.406   1.857 -0.0364 -2.7107  0.8932
17512SOL    HW259398   7.592  10.452   1.978 -0.3448  0.9236 -0.1657
17513SOL     OW59399   6.580   4.847   0.854 -0.6512  0.1606  0.2064
17513SOL    HW159400   6.668   4.821   0.883 -0.5804 -0.4113 -0.4658
17513SOL    HW259401   6.552   4.774   0.799 -0.2337  1.7274 -2.2520
17514SOL     OW59402   9.230   6.808  11.003 -0.8036  0.1573  0.0049
17514SOL    HW159403   9.161   6.836  11.064 -0.1378 -2.1335  1.9773
17514SOL    HW259404   9.214   6.714  10.992  1.5051 -0.2670 -0.1144
17515SOL     OW59405   5.378   1.529   7.114 -0.4096 -0.2773 -0.1317
17515SOL    HW159406   5.299   1.574   7.084  1.0739  1.6060 -1.4293
17515SOL    HW259407   5.408   1.580   7.189 -0.4359 -1.0149  0.3900
17516SOL     OW59408   1.030   5.368   2.177  0.4798  0.0787 -0.1889
17516SOL    HW159409   0.979   5.316   2.239  0.5317 -0.2897 -0.4506
17516SOL    HW259410   0.976   5.370   2.098  0.1427  1.0510  0.0626
17517SOL     OW59411   0.039   7.525   8.171  0.3901 -0.3568 -0.2091
17517SOL    HW159412   0.069   7.494   8.085  1.7376  0.9739 -0.2706
17517SOL    HW259413   0.036   7.620   8.162 -0.9352 -0.2774  0.7794
17518SOL     OW59414   8.129   2.807   7.401  0.0866 -0.4334 -0.4726
17518SOL    HW159415   8.162   2.772   7.484 -0.1965 -0.0229 -0.1835
17518SOL    HW259416   8.180   2.887   7.387  0.6492 -0.8816 -1.0719
17519SOL     OW59417   1.532  10.865   4.631 -0.5820  0.4978 -0.2756
17519SOL    HW159418   1.614  10.858   4.680 -0.6638  1.0068 -0.0591
17519SOL    HW259419   1.500  10.775   4.625 -0.0082  0.2953 -0.3630
17520SOL     OW59420   5.704   1.471   0.401 -0.0451 -0.8526 -0.6146
17520SOL    HW159421   5.735   1.529   0.332 -0.0125  0.0331  0.1213
17520SOL    HW259422   5.693   1.386   0.358 -0.3587 -0.2481 -1.7823
17521SOL     OW59423   4.522   0.857   1.953  0.5635 -0.3727  0.0877
17521SOL    HW159424   4.517   0.938   1.901  0.7078  1.1242  2.2612
17521SOL    HW259425   4.616   0.844   1.966  0.5076 -0.4419  0.4106
17522SOL     OW59426  10.208   1.851   0.883  0.0537  0.2338 -0.3189
17522SOL    HW159427  10.209   1.902   0.964 -1.5733 -0.1168 -0.0330
17522SOL    HW259428  10.220   1.916   0.814  1.0977  0.5813  0.1669
17523SOL     OW59429   9.315   4.001   0.001 -0.3731 -0.6594  0.2719
17523SOL    HW159430   9.334   4.094   0.017  2.4367 -1.2077  0.6252
17523SOL    HW259431   9.399   3.964  -0.024 -1.4427 -3.1410  0.1267
17524SOL     OW59432   8.430  11.597   1.560 -0.2074  0.1676  0.2033
17524SOL    HW159433   8.517  11.601   1.602 -0.9162 -2.2669  2.1741
17524SOL    HW259434   8.449  11.577   1.468  1.3501 -0.6187  0.6515
17525SOL     OW59435   3.647   7.875   1.641  0.2531 -0.5713  0.2014
17525SOL    HW159436   3.612   7.962   1.621  0.8475 -0.5264 -0.6829
17525SOL    HW259437   3.673   7.839   1.557  2.3799 -0.5754  0.8164
17526SOL     OW59438  11.190   7.028   3.294  0.3907  0.4713 -0.1702
17526SOL    HW159439  11.103   6.994   3.315  0.4068  0.9287  0.6526
17526SOL    HW259440  11.222   6.970   3.225 -0.4104  0.0685 -0.2160
17527SOL     OW59441   6.299   5.648   8.893  0.1757 -0.4080 -0.4028
17527SOL    HW159442   6.330   5.598   8.817  0.2365  1.7469 -1.8919
17527SOL    HW259443   6.226   5.700   8.859 -0.5877 -0.2563  1.3464
17528SOL     OW59444   5.042   0.058   3.603 -0.1763  0.4559  0.4723
17528SOL    HW159445   4.951   0.033   3.617  0.0110  0.7315  2.3440
17528SOL    HW259446   5.037   0.144   3.560 -0.7811  0.0293 -0.3315
17529SOL     OW59447  11.130   7.908   0.654 -0.1907  0.1919  0.4704
17529SOL    HW159448  11.088   7.909   0.740  0.8042  0.3722  0.9687
17529SOL    HW259449  11.217   7.945   0.669 -0.2549  0.9046 -0.7505
17530SOL     OW59450   4.182  11.545   1.690 -0.1896  0.7217  0.3875
17530SOL    HW159451   4.151  11.620   1.741 -0.1236  0.5560  0.6742
17530SOL    HW259452   4.104  11.490   1.679 -0.1622  0.6676  0.4659
17531SOL     OW59453   1.892  11.396   3.438  0.5838  0.1482  0.4587
17531SOL    HW159454   1.907  11.438   3.354  1.5927  0.6957  0.8864
17531SOL    HW259455   1.971  11.416   3.489  0.2276 -0.6191  1.3465
17532SOL     OW59456   5.367   0.650   8.851 -0.5168  0.2477  0.1387
17532SOL    HW159457   5.339   0.579   8.792  1.1390 -1.4588  1.3030
17532SOL    HW259458   5.457   0.628   8.875 -0.0410  2.6208  0.8028
17533SOL     OW59459   7.749   2.994   6.922  0.0198  0.1818  0.1337
17533SOL    HW159460   7.723   3.081   6.891 -0.5933  0.6692  1.9011
17533SOL    HW259461   7.784   3.010   7.010  1.1650 -1.1976 -0.0473
17534SOL     OW59462  11.694   7.226   8.325  0.0000  0.1811  0.3775
17534SOL    HW159463  11.675   7.132   8.314  0.9080 -0.0277  0.4781
17534SOL    HW259464  11.752   7.247   8.251 -1.1651  0.9670 -0.3467
17535SOL     OW59465   2.862  11.339   7.007  0.2547 -0.1845 -0.4306
17535SOL    HW159466   2.896  11.301   6.926  0.0011  0.0719 -0.6608
17535SOL    HW259467   2.818  11.419   6.979  1.0157  0.4328  0.0728
17536SOL     OW59468   1.081   0.982   2.027 -0.1913  0.1956 -0.3523
17536SOL    HW159469   1.017   0.966   1.958 -2.1070 -1.8016  1.7142
17536SOL    HW259470   1.029   0.984   2.108  1.8865  2.7286  1.0948
17537SOL     OW59471   9.109  11.239   4.216  0.7773 -0.5814 -0.3456
17537SOL    HW159472   9.076  11.329   4.210  0.8606 -0.5934 -1.1483
17537SOL    HW259473   9.157  11.236   4.299 -1.0337 -0.5110  0.7388
17538SOL     OW59474   7.794   1.131   1.990  0.1532 -0.1281  0.0649
17538SOL    HW159475   7.854   1.142   1.916 -1.1106  0.4421 -0.9106
17538SOL    HW259476   7.793   1.037   2.006  0.6336 -0.2319 -0.4865
17539SOL     OW59477   6.525   0.195   6.014  0.4838  0.1466  0.6564
17539SOL    HW159478   6.483   0.280   6.027  2.9026  1.2242  2.0585
17539SOL    HW259479   6.566   0.202   5.928  1.0741  0.6383  0.9611
17540SOL     OW59480  11.896   4.312   1.140 -0.4190 -0.1846 -0.0726
17540SOL    HW159481  11.990   4.304   1.130 -0.4774 -0.7336 -0.1997
17540SOL    HW259482  11.884   4.354   1.225 -0.0715 -0.6065  0.1886
17541SOL     OW59483   5.674   4.980   8.982  0.1626  0.0853  0.5717
17541SOL    HW159484   5.739   4.957   8.916 -2.0704 -0.2958 -1.6632
17541SOL    HW259485   5.725   5.007   9.058  2.9098  0.7358 -1.3544
17542SOL     OW59486   7.411   1.268   8.740 -0.3636 -0.1091 -0.1410
17542SOL    HW159487   7.432   1.352   8.780 -2.7185  2.2991 -3.3744
17542SOL    HW259488   7.492   1.239   8.699  0.4806  0.5334  1.0249
17543SOL     OW59489   5.392   5.906   4.872 -0.4906  0.5858 -0.2536
17543SOL    HW159490   5.340   5.984   4.891 -1.8863  0.1379 -1.9200
17543SOL    HW259491   5.444   5.930   4.795 -0.0414  0.2459 -0.0584
17544SOL     OW59492   6.770   1.078  10.476 -0.5328  0.2206  0.7206
17544SOL    HW159493   6.833   1.126  10.529 -2.0009  1.4909  1.3786
17544SOL    HW259494   6.717   1.029  10.539 -0.7746 -0.1402  0.2510
17545SOL     OW59495   9.142   3.141   7.381  0.2342  0.1984  0.0851
17545SOL    HW159496   9.089   3.202   7.432 -0.5118 -2.3678  2.6217
17545SOL    HW259497   9.226   3.137   7.427  1.4099  1.4707 -1.8037
17546SOL     OW59498  10.156   7.828  11.030  0.0459 -0.0634 -0.1216
17546SOL    HW159499  10.139   7.733  11.030 -0.3820 -0.0117  1.2584
17546SOL    HW259500  10.072   7.867  11.005  0.7161 -0.0634 -2.6435
17547SOL     OW59501   1.442   8.463   1.473 -0.5422  0.1328 -0.4220
17547SOL    HW159502   1.474   8.551   1.490  1.4777 -0.3834 -1.2751
17547SOL    HW259503   1.507   8.405   1.514 -0.7042 -0.9658 -1.6287
17548SOL     OW59504   0.141   5.989   2.985  0.2122 -0.2735  0.1998
17548SOL    HW159505   0.096   6.068   3.015  1.7203  0.2410  1.2442
17548SOL    HW259506   0.099   5.917   3.033 -0.6392 -0.0280 -0.1630
17549SOL     OW59507   6.337  10.612  10.641 -0.1640 -0.0248  0.7095
17549SOL    HW159508   6.242  10.601  10.641 -0.0571 -1.9090 -2.3884
17549SOL    HW259509   6.372  10.524  10.653  1.1258  0.2189 -0.8593
17550SOL     OW59510  10.663   7.837   0.932 -0.0209 -0.1004  0.2434
17550SOL    HW159511  10.638   7.754   0.892  1.2650  0.0412 -0.9112
17550SOL    HW259512  10.603   7.901   0.895  0.4783 -0.1462 -0.6582
17551SOL     OW59513   4.677  10.266   2.949  0.1846  0.1061 -0.0005
17551SOL    HW159514   4.708  10.178   2.930  1.2355  0.5199 -0.2640
17551SOL    HW259515   4.593  10.272   2.902  0.6602 -0.3662 -0.9410
17552SOL     OW59516   9.634   1.277   4.460 -0.4267 -1.1883 -0.3217
17552SOL    HW159517   9.647   1.213   4.390 -0.8939 -0.6664 -0.8966
17552SOL    HW259518   9.624   1.360   4.415 -0.9002 -0.8639  0.3598
17553SOL     OW59519   7.133   5.484   3.945  0.5217  0.0208 -0.5153
17553SOL    HW159520   7.093   5.473   4.031 -0.1664 -0.3669 -0.8667
17553SOL    HW259521   7.226   5.470   3.959  0.4215  0.0236  0.1776
17554SOL     OW59522   9.313   5.015  12.182 -0.7861 -0.2322 -0.4596
17554SOL    HW159523   9.399   4.973  12.180 -0.5723  0.1569  0.2020
17554SOL    HW259524   9.330   5.107  12.163 -1.1676 -0.3098 -1.1943
17555SOL     OW59525   6.793   4.217   7.322 -0.5560 -0.1038 -0.0690
17555SOL    HW159526   6.705   4.200   7.355 -0.6428  0.1192 -0.1858
17555SOL    HW259527   6.821   4.296   7.369 -0.1848 -0.5207  0.4159
17556SOL     OW59528   7.471   1.180   6.150  0.3319  0.0041 -0.2468
17556SOL    HW159529   7.395   1.146   6.197 -0.1494  0.5148 -0.6462
17556SOL    HW259530   7.512   1.241   6.211 -1.6314  2.4966 -1.2539
17557SOL     OW59531   6.664  10.766   6.665  0.4829  0.5799 -0.0757
17557SOL    HW159532   6.625  10.695   6.715  0.1425 -0.0742 -1.2168
17557SOL    HW259533   6.757  10.765   6.689  0.1809  0.8458  1.1629
17558SOL     OW59534  12.165   2.558   8.720  0.1308 -0.2065 -0.1410
17558SOL    HW159535  12.170   2.623   8.790  1.1589 -0.2964 -0.1220
17558SOL    HW259536  12.117   2.485   8.759 -1.1773  0.5724 -0.2097
17559SOL     OW59537   8.385   1.670  10.759  0.1569 -0.3953  0.2462
17559SOL    HW159538   8.407   1.588  10.804  2.5986  0.7171  1.2593
17559SOL    HW259539   8.454   1.680  10.693 -1.2467 -0.1113 -1.2193
17560SOL     OW59540   4.327   0.717  12.421  0.6392  0.1083  0.0652
17560SOL    HW159541   4.299   0.645  12.477  0.0468  0.7100  0.5600
17560SOL    HW259542   4.405   0.684  12.376 -0.5575 -1.4540 -0.9875
17561SOL     OW59543  11.406  12.174   2.778 -0.0010 -0.0623 -0.2745
17561SOL    HW159544  11.353  12.155   2.856 -2.5262 -1.4877 -2.1758
17561SOL    HW259545  11.411  12.269   2.775 -3.2647  0.2174 -0.3765
17562SOL     OW59546   3.619   7.991   7.391 -0.8609  0.4185  0.2456
17562SOL    HW159547   3.610   8.034   7.306  0.9563 -0.6001 -0.5294
17562SOL    HW259548   3.714   7.989   7.407 -1.2105  1.7183  2.9360
17563SOL     OW59549   2.653   9.234   9.860  0.4391 -0.1177 -0.6031
17563SOL    HW159550   2.633   9.143   9.838 -0.9019 -0.1833  0.7364
17563SOL    HW259551   2.743   9.230   9.893 -0.0936 -1.2551  0.8469
17564SOL     OW59552   3.293  10.221   8.069  0.3944  0.3670  0.2356
17564SOL    HW159553   3.219  10.177   8.109  0.8363 -0.1007  0.5519
17564SOL    HW259554   3.264  10.312   8.059 -0.0080  0.3196  0.8933
17565SOL     OW59555   9.130   3.527   9.119 -0.0847 -0.4392  0.0193
17565SOL    HW159556   9.168   3.440   9.133  0.2961 -0.1891  0.5865
17565SOL    HW259557   9.196   3.573   9.067  0.1628 -0.1703  0.5666
17566SOL     OW59558  12.384   4.786   1.648  0.1865  0.4535 -0.0234
17566SOL    HW159559  12.311   4.846   1.665 -0.6294 -0.5363  0.0554
17566SOL    HW259560  12.412   4.808   1.559 -0.5822  0.4625 -0.2696
17567SOL     OW59561   9.133  11.872   7.198 -0.4980  0.2922  0.0129
17567SOL    HW159562   9.050  11.918   7.185 -0.0365  1.1233 -0.1118
17567SOL    HW259563   9.113  11.780   7.181 -1.1309  0.6364 -1.2187
17568SOL     OW59564   3.758   7.348   7.496  0.0872 -0.3653  0.3085
17568SOL    HW159565   3.803   7.263   7.494  0.8526 -0.0079  1.5305
17568SOL    HW259566   3.720   7.352   7.584  0.7894  0.9333  0.5621
17569SOL     OW59567   6.178   3.530   9.733 -0.3732  0.4196  0.2012
17569SOL    HW159568   6.114   3.508   9.666 -1.5804 -0.4417  1.5718
17569SOL    HW259569   6.193   3.447   9.779 -1.4932  1.4342  2.5633
17570SOL     OW59570   0.356   5.281   4.103  0.0810  0.9216 -0.2595
17570SOL    HW159571   0.409   5.321   4.171  0.7149 -0.4089  0.0691
17570SOL    HW259572   0.291   5.229   4.150  0.1556  0.4498 -0.6661
17571SOL     OW59573   8.622   8.764   8.050 -0.3668  0.0089  0.1922
17571SOL    HW159574   8.578   8.685   8.082 -1.5064  0.3244 -0.5299
17571SOL    HW259575   8.563   8.836   8.076  0.4324  0.5890  0.4509
17572SOL     OW59576   3.195   9.491   3.094 -0.0133 -0.5451  0.8458
17572SOL    HW159577   3.224   9.447   3.173 -3.1343  0.3448  2.6453
17572SOL    HW259578   3.155   9.422   3.041 -0.0642 -0.7516  1.1534
17573SOL     OW59579  11.713   9.397  12.113 -0.5757  0.8406 -0.8054
17573SOL    HW159580  11.671   9.381  12.198  0.7165 -0.2355 -0.3365
17573SOL    HW259581  11.640   9.405  12.051 -1.4984 -1.5501 -0.1263
17574SOL     OW59582   7.727   3.850   5.790  0.4596  0.6276  0.2668
17574SOL    HW159583   7.663   3.868   5.859  1.3779 -0.9098  1.6010
17574SOL    HW259584   7.799   3.910   5.809  0.6654  0.2806  0.6149
17575SOL     OW59585  12.036   5.590   2.031 -0.1547 -0.1369  0.7534
17575SOL    HW159586  12.099   5.522   2.056 -3.1167 -3.7287 -0.5690
17575SOL    HW259587  12.056   5.609   1.940 -0.7541 -1.1344  0.3926
17576SOL     OW59588   0.688  10.798   2.090 -0.4541 -0.0248 -0.2027
17576SOL    HW159589   0.697  10.894   2.094 -0.2683 -0.0536  0.1220
17576SOL    HW259590   0.777  10.766   2.085 -0.5260 -0.1747 -0.5020
17577SOL     OW59591   9.546   4.216   9.005  0.0879  0.1680 -0.1133
17577SOL    HW159592   9.492   4.199   8.928  0.2688  0.0325 -0.2107
17577SOL    HW259593   9.484   4.244   9.072 -0.1169 -0.1052 -0.1872
17578SOL     OW59594  10.026   8.305   1.768  0.2475 -0.0981  0.4699
17578SOL    HW159595   9.937   8.338   1.760  0.6607  0.6428 -1.9404
17578SOL    HW259596  10.060   8.305   1.678  2.5075 -0.8447  1.2451
17579SOL     OW59597  11.913  10.543   5.698  0.1055  0.6036  0.5848
17579SOL    HW159598  12.007  10.531   5.686  0.2374 -2.0264  3.0427
17579SOL    HW259599  11.900  10.541   5.793 -2.6113 -2.1601  0.3544
17580SOL     OW59600  12.215   3.340   7.081 -0.1636  0.5839 -0.1944
17580SOL    HW159601  12.192   3.315   6.992  0.4446  0.9010 -0.4450
17580SOL    HW259602  12.302   3.377   7.074 -0.1275  0.6550  0.5299
17581SOL     OW59603   3.702  12.188  11.379 -0.5074 -0.0054 -0.5765
17581SOL    HW159604   3.612  12.160  11.396  0.5727 -2.0799  2.4880
17581SOL    HW259605   3.736  12.122  11.319 -0.6846  0.2514 -0.9739
17582SOL     OW59606   2.656   5.281   3.575  0.4089 -0.2312  0.1795
17582SOL    HW159607   2.683   5.207   3.628 -0.7546 -1.2696 -0.6368
17582SOL    HW259608   2.724   5.290   3.508  0.4289 -0.7257  0.1341
17583SOL     OW59609   6.129  10.620   1.701 -0.0158 -0.7478  0.5367
17583SOL    HW159610   6.148  10.683   1.770 -1.4537 -1.0338  1.2267
17583SOL    HW259611   6.122  10.535   1.745 -1.1349 -0.9084  0.1001
17584SOL     OW59612   1.012   5.327  10.281  0.4635  0.4592  0.0567
17584SOL    HW159613   0.940   5.318  10.344 -0.9405  0.9466 -1.4274
17584SOL    HW259614   1.003   5.415  10.247  0.9530  0.0680 -1.1118
17585SOL     OW59615   9.027   0.591  12.131  0.3720  0.6139 -0.1034
17585SOL    HW159616   9.014   0.677  12.171  2.1684  1.4971 -1.2735
17585SOL    HW259617   8.942   0.569  12.094 -0.3898  1.3834  1.1002
17586SOL     OW59618   5.379   2.898   6.056  0.3635  0.0453  0.5118
17586SOL    HW159619   5.439   2.835   6.096 -1.1942  0.0159  2.9644
17586SOL    HW259620   5.364   2.963   6.123 -0.4053  1.4434 -0.9573
17587SOL     OW59621   9.516  11.229   5.265 -0.0305  0.3124 -0.0929
17587SOL    HW159622   9.459  11.305   5.256  1.0833  1.3288  1.0719
17587SOL    HW259623   9.476  11.178   5.336 -1.8028 -1.2200 -2.0539
17588SOL     OW59624   0.652   8.465  11.062  0.5399  0.5451 -0.4178
17588SOL    HW159625   0.640   8.465  11.157 -0.4677  3.3308 -0.4611
17588SOL    HW259626   0.746   8.464  11.049  0.6941 -1.3049  0.5232
17589SOL     OW59627  10.321   7.161   2.869  0.1329  0.2327 -0.4161
17589SOL    HW159628  10.337   7.225   2.939 -0.2791  0.7192 -0.7602
17589SOL    HW259629  10.408   7.129   2.845  0.3673  0.8722 -0.4269
17590SOL     OW59630  11.901   0.906  10.290 -1.0066 -0.0226  0.2550
17590SOL    HW159631  11.863   0.851  10.221 -2.4061 -0.2838  1.1826
17590SOL    HW259632  11.959   0.966  10.244  0.2414 -1.9673 -0.8539
17591SOL     OW59633   9.100   6.207   9.147  0.0809 -0.5507 -0.4383
17591SOL    HW159634   9.101   6.300   9.168 -0.8722 -0.4430 -0.7885
17591SOL    HW259635   9.190   6.178   9.157  0.4214  0.4606 -0.5254
17592SOL     OW59636   1.261   2.766  10.753 -0.2750 -0.0540  0.0545
17592SOL    HW159637   1.220   2.746  10.837  1.3758 -2.3169  0.4042
17592SOL    HW259638   1.323   2.836  10.774 -0.6798  0.1942  0.4600
17593SOL     OW59639   5.007  11.531   7.603 -0.4042 -0.1405 -0.3593
17593SOL    HW159640   4.998  11.613   7.554  0.6892 -0.3022 -0.8621
17593SOL    HW259641   4.953  11.544   7.681  0.6683  1.5229  0.1546
17594SOL     OW59642   2.582   7.672   5.115  0.2954  0.1122 -0.1029
17594SOL    HW159643   2.603   7.590   5.161 -0.3209 -0.2446 -0.4524
17594SOL    HW259644   2.487   7.680   5.123  0.3892  0.9477  0.1777
17595SOL     OW59645   0.361   8.331  11.031 -0.0417  0.0150  0.2747
17595SOL    HW159646   0.413   8.360  10.956  1.0740  1.6347  1.6072
17595SOL    HW259647   0.329   8.244  11.006  2.0464 -0.3953 -1.2133
17596SOL     OW59648  10.439  11.144   2.773  0.3462 -0.6525 -0.4676
17596SOL    HW159649  10.480  11.155   2.858  2.3353  2.5517 -1.6741
17596SOL    HW259650  10.512  11.130   2.713 -1.0200 -3.2608 -1.7027
17597SOL     OW59651   4.572   9.773   2.725 -0.3655  0.2166 -0.0077
17597SOL    HW159652   4.553   9.724   2.805  1.7027  0.5050  0.7079
17597SOL    HW259653   4.580   9.707   2.657 -1.2743 -0.1062  0.1858
17598SOL     OW59654   8.260   1.230   8.233  0.2019 -0.3645  0.0714
17598SOL    HW159655   8.344   1.247   8.276 -0.3723  0.0482  1.0512
17598SOL    HW259656   8.277   1.250   8.141  1.0049  0.3370  0.3556
17599SOL     OW59657   5.599   0.658   2.537  0.0064 -0.5322 -0.0193
17599SOL    HW159658   5.533   0.723   2.512 -0.9785 -1.1218  0.9445
17599SOL    HW259659   5.682   0.696   2.509 -0.6042  0.8528 -0.0336
17600SOL     OW59660   8.897   6.572   6.244 -0.1467 -0.2078  0.3984
17600SOL    HW159661   8.857   6.609   6.323  2.1094 -0.7852  1.9377
17600SOL    HW259662   8.931   6.648   6.196  1.2178  0.0438  1.6610
17601SOL     OW59663   4.794   4.267   0.501  0.0386 -0.0700  0.2978
17601SOL    HW159664   4.763   4.181   0.472 -1.5635  0.7277 -0.4727
17601SOL    HW259665   4.833   4.305   0.423  0.1016  0.1964  0.4593
17602SOL     OW59666   6.756  12.085   4.795  0.2064 -0.0188  0.7193
17602SOL    HW159667   6.790  12.146   4.729  0.9495 -1.1129  0.0731
17602SOL    HW259668   6.719  12.013   4.744 -1.4548  0.2643  1.4591
17603SOL     OW59669   8.453   6.570   0.540 -0.1609  0.3456 -0.3491
17603SOL    HW159670   8.425   6.621   0.463  0.8220  1.3539 -0.0706
17603SOL    HW259671   8.513   6.505   0.505 -1.1100 -0.3865 -0.6567
17604SOL     OW59672   9.211  10.215   3.124  0.1591  0.2481  0.3499
17604SOL    HW159673   9.214  10.292   3.068 -2.8687  0.4935  0.3483
17604SOL    HW259674   9.144  10.159   3.085  0.3981 -1.1675  1.8175
17605SOL     OW59675   5.655   0.780  10.231 -0.1419  0.1087 -0.1085
17605SOL    HW159676   5.721   0.823  10.175 -2.4429  1.2829 -2.1280
17605SOL    HW259677   5.596   0.738  10.169 -1.0192 -1.3877  1.6573
17606SOL     OW59678   7.103   3.209  12.306 -0.6382  0.1339  0.5707
17606SOL    HW159679   7.052   3.283  12.275  1.2308  1.3346  0.1694
17606SOL    HW259680   7.038   3.145  12.335 -2.3502  1.0477 -1.0474
17607SOL     OW59681   8.338  11.915   8.176  0.3540 -0.4354  0.6848
17607SOL    HW159682   8.351  11.834   8.128  2.7077 -0.0688  0.5604
17607SOL    HW259683   8.294  11.973   8.114 -1.2613 -1.5401  0.7471
17608SOL     OW59684   6.179   1.484   5.791  0.1286  0.3533  0.2737
17608SOL    HW159685   6.179   1.568   5.835 -0.2056  0.5364 -0.0703
17608SOL    HW259686   6.091   1.475   5.755  0.2342 -0.0309  0.0974
17609SOL     OW59687   2.154   0.782   1.004 -0.3385  0.0506 -0.5568
17609SOL    HW159688   2.145   0.712   0.939 -2.6273  0.7684 -1.1388
17609SOL    HW259689   2.099   0.853   0.969  1.1979  1.8005  0.4561
17610SOL     OW59690   6.891   8.778  11.931 -0.6281 -0.0964 -0.0406
17610SOL    HW159691   6.951   8.848  11.904 -0.8985  0.6752  1.2604
17610SOL    HW259692   6.816   8.786  11.872 -0.7116  0.8191  0.1734
17611SOL     OW59693   1.499   1.596   9.964  0.1361 -0.2064  0.0374
17611SOL    HW159694   1.546   1.631  10.039 -1.5295  1.4069  0.4204
17611SOL    HW259695   1.528   1.651   9.890  0.9126 -1.0382 -0.2898
17612SOL     OW59696   4.565   0.303   6.831 -0.2746 -0.0781  0.3150
17612SOL    HW159697   4.569   0.297   6.735 -3.4803  1.0933 -0.0011
17612SOL    HW259698   4.581   0.395   6.850  2.1614 -0.5949  1.1614
17613SOL     OW59699   4.962   4.693  11.561 -0.2773  0.1728  0.4439
17613SOL    HW159700   4.981   4.612  11.513  0.9699  0.3945  0.5075
17613SOL    HW259701   4.878   4.723  11.526  0.4827  0.2179 -1.4839
17614SOL     OW59702   6.618   5.010   8.171  0.3336  0.3244  0.4064
17614SOL    HW159703   6.712   5.001   8.188  0.2901  0.8703  0.9761
17614SOL    HW259704   6.581   5.032   8.256 -0.3724 -0.3083  0.2651
17615SOL     OW59705   8.069   2.964   5.762  0.1730  0.2794  0.0258
17615SOL    HW159706   8.034   3.043   5.720  0.6757  0.7572  0.4866
17615SOL    HW259707   8.157   2.989   5.790 -0.0057 -0.1508  1.0016
17616SOL     OW59708   3.954   4.375   6.488 -0.1114 -0.1976  0.0128
17616SOL    HW159709   4.042   4.341   6.505  0.1093  1.0192  1.5633
17616SOL    HW259710   3.952   4.393   6.394  0.9072 -1.2560 -0.2291
17617SOL     OW59711   4.930   4.411  10.957  0.4981  0.2085 -0.1299
17617SOL    HW159712   4.983   4.410  10.878 -1.1460 -0.7119 -1.2745
17617SOL    HW259713   4.882   4.328  10.955 -1.2951  1.1697  0.6143
17618SOL     OW59714  11.913   8.010   5.560 -0.7861  0.2695 -0.1269
17618SOL    HW159715  11.886   8.065   5.487 -3.2246 -0.0422  0.4575
17618SOL    HW259716  11.920   7.922   5.522 -0.4251  0.3720 -0.3068
17619SOL     OW59717   4.406   5.598   3.360 -0.4839 -0.1028  0.1202
17619SOL    HW159718   4.337   5.655   3.325 -1.4641 -1.5393 -0.3493
17619SOL    HW259719   4.372   5.509   3.348  1.8459 -0.9126 -1.0102
17620SOL     OW59720   4.288   2.695   3.458  0.4816  0.0239 -0.0203
17620SOL    HW159721   4.348   2.623   3.481  1.5985  0.7884 -0.4588
17620SOL    HW259722   4.284   2.694   3.363 -1.0236 -0.6320  0.0122
17621SOL     OW59723  10.564   8.912   1.037 -0.7254  0.3856  0.1224
17621SOL    HW159724  10.578   8.818   1.049 -0.5966  0.0352 -2.3805
17621SOL    HW259725  10.624   8.952   1.101  1.5443 -1.2360 -0.8328
17622SOL     OW59726   1.126   3.331   9.382  0.3995 -0.0696  0.2984
17622SOL    HW159727   1.111   3.245   9.420 -1.8056  0.8253  1.5924
17622SOL    HW259728   1.192   3.315   9.314  1.0333 -2.5171  1.3682
17623SOL     OW59729   9.443   5.231  12.080  0.1635  0.4072 -0.2712
17623SOL    HW159730   9.514   5.244  12.143  0.8116  0.6553 -1.0391
17623SOL    HW259731   9.487   5.220  11.996 -0.6222 -1.2640 -0.5123
17624SOL     OW59732   9.305   9.821   7.605 -0.1341 -0.2789 -0.5367
17624SOL    HW159733   9.275   9.825   7.515 -2.0166  1.9462  0.1071
17624SOL    HW259734   9.397   9.793   7.598 -0.1819 -0.0288 -3.1247
17625SOL     OW59735  12.030   5.038   6.070  0.1449 -0.0467  0.2502
17625SOL    HW159736  11.948   5.084   6.052  0.0360 -0.8620 -1.5254
17625SOL    HW259737  12.008   4.975   6.139 -1.1482 -1.2599 -1.1930
17626SOL     OW59738   1.618   2.893   8.760 -0.5486  0.2267 -0.0123
17626SOL    HW159739   1.647   2.836   8.688 -1.2444 -0.5382  0.2969
17626SOL    HW259740   1.533   2.858   8.785 -1.1774  1.6481 -0.0581
17627SOL     OW59741   8.580   8.241   8.077 -0.1312 -0.5012  0.4098
17627SOL    HW159742   8.596   8.165   8.022 -2.4111  0.4435 -1.7403
17627SOL    HW259743   8.485   8.250   8.080  0.0397  2.1862  0.6593
17628SOL     OW59744   8.050   5.293   9.858 -0.1238 -0.0276 -0.2223
17628SOL    HW159745   8.076   5.371   9.906 -4.3238  0.1411  2.3679
17628SOL    HW259746   7.974   5.320   9.806  0.5667 -1.6448 -2.2308
17629SOL     OW59747  12.050   4.145   4.050  0.1894  0.1684  0.5752
17629SOL    HW159748  11.971   4.191   4.024 -0.7894 -2.0656 -0.7223
17629SOL    HW259749  12.119   4.180   3.993 -0.5360  0.0526 -0.4062
17630SOL     OW59750   4.954   7.665   6.358 -0.3069 -0.1001  0.0319
17630SOL    HW159751   4.923   7.710   6.279 -0.6683 -0.9380 -0.3114
17630SOL    HW259752   4.895   7.695   6.427 -0.0713  0.5339 -0.0310
17631SOL     OW59753   2.627   3.090  10.550  0.1844  0.2667 -1.0156
17631SOL    HW159754   2.647   3.014  10.603  2.9873  2.2746  1.0922
17631SOL    HW259755   2.683   3.082  10.473  0.0899 -0.0285 -1.0536
17632SOL     OW59756   9.325  11.238   9.711 -0.4023 -0.2202  0.4757
17632SOL    HW159757   9.269  11.311   9.738  1.0753  1.4761 -0.7809
17632SOL    HW259758   9.349  11.260   9.621  1.7497 -1.1914  0.7743
17633SOL     OW59759   1.895  10.776   9.655 -0.3184  0.0936  0.0327
17633SOL    HW159760   1.823  10.805   9.599 -0.0596 -0.0637 -0.3867
17633SOL    HW259761   1.854  10.755   9.738 -0.5340  1.5743  0.3247
17634SOL     OW59762  10.813   1.416   1.782  0.0418 -0.1200  0.6593
17634SOL    HW159763  10.736   1.403   1.727 -0.4675  0.1059  1.3017
17634SOL    HW259764  10.794   1.497   1.831  1.1056  0.4736  0.1327
17635SOL     OW59765   4.868   4.196   5.249 -0.4447 -0.0659 -0.0579
17635SOL    HW159766   4.946   4.141   5.241 -2.2287 -2.8900  0.5777
17635SOL    HW259767   4.877   4.261   5.179  2.6807  0.0702  0.3393
17636SOL     OW59768   9.477   7.670   1.406  0.4126  0.3196  0.3217
17636SOL    HW159769   9.394   7.623   1.398  0.1166  0.8828  0.0367
17636SOL    HW259770   9.541   7.613   1.364 -0.0124  0.3385 -0.3698
17637SOL     OW59771   7.378   8.675  10.846 -0.0425  0.3183 -0.1832
17637SOL    HW159772   7.387   8.584  10.874 -0.7377  0.3639  0.2091
17637SOL    HW259773   7.462   8.715  10.867 -0.4140  0.2611  1.5565
17638SOL     OW59774   0.828  11.002   0.712 -0.4743  0.5481 -0.2801
17638SOL    HW159775   0.766  11.071   0.690 -0.3737  0.8094  0.2485
17638SOL    HW259776   0.909  11.048   0.735 -0.9499  0.4028  1.9746
17639SOL     OW59777   6.440  12.004   0.555  0.3154 -0.4928 -0.3648
17639SOL    HW159778   6.448  11.915   0.521 -1.2155 -0.6851 -0.2874
17639SOL    HW259779   6.346  12.023   0.550  0.6527  1.2320 -0.6665
17640SOL     OW59780   1.683   9.250   4.509  0.1977  0.4239  0.0252
17640SOL    HW159781   1.720   9.269   4.595  0.5704  1.8956 -0.4376
17640SOL    HW259782   1.639   9.330   4.482 -1.9885 -0.7485 -0.1717
17641SOL     OW59783   1.890  12.440  11.394  0.5287  0.4282 -0.6134
17641SOL    HW159784   1.939  12.461  11.474  0.8930  0.9595 -0.9650
17641SOL    HW259785   1.806  12.408  11.425  1.4418 -1.5003  0.0452
17642SOL     OW59786   1.288   7.494   1.774  0.6892 -0.1479 -0.3884
17642SOL    HW159787   1.368   7.524   1.730 -0.1000 -0.7274 -2.3311
17642SOL    HW259788   1.219   7.502   1.707 -0.9847  0.6996  1.3284
17643SOL     OW59789   5.130   2.735   9.860 -0.4047 -0.1026  0.8436
17643SOL    HW159790   5.085   2.653   9.837  0.5403  0.2680 -2.9651
17643SOL    HW259791   5.202   2.742   9.797 -0.3783  3.5953  1.0572
17644SOL     OW59792   6.572   4.879   6.102 -0.2477  0.2633  0.1684
17644SOL    HW159793   6.621   4.911   6.177 -0.2298  0.0218  0.2613
17644SOL    HW259794   6.603   4.790   6.089 -0.6179  0.1263  0.1908
17645SOL     OW59795   9.523   9.393   5.910  0.4058  0.2806  0.1908
17645SOL    HW159796   9.523   9.399   6.006  1.3064 -0.8779  0.2828
17645SOL    HW259797   9.579   9.465   5.881  1.6746 -0.4803  0.6548
17646SOL     OW59798   6.267   5.583  12.123 -0.2472  0.2388 -0.4249
17646SOL    HW159799   6.281   5.665  12.171  0.9813  0.2110 -0.7032
17646SOL    HW259800   6.243   5.519  12.190  2.0875  0.0391  0.3376
17647SOL     OW59801   6.850   6.356   0.624 -0.4491 -0.1038 -0.3591
17647SOL    HW159802   6.802   6.411   0.562  0.9396  1.4009 -0.1627
17647SOL    HW259803   6.941   6.386   0.618  0.2154 -1.8042  0.4110
17648SOL     OW59804  11.399  11.286   0.383 -0.3317  0.4702  0.6525
17648SOL    HW159805  11.349  11.269   0.303  0.5000 -1.2826  0.4392
17648SOL    HW259806  11.484  11.317   0.352 -1.1734  3.4761  1.0132
17649SOL     OW59807   1.880   3.862   1.514  0.1948 -0.2000  0.2006
17649SOL    HW159808   1.784   3.868   1.521  0.1524  1.1337 -0.8556
17649SOL    HW259809   1.905   3.946   1.475  1.9309 -0.0245  1.6031
17650SOL     OW59810   2.252   8.625   1.983  0.3517 -0.0456 -0.1233
17650SOL    HW159811   2.186   8.663   1.925  0.8154 -0.8358 -1.1975
17650SOL    HW259812   2.325   8.685   1.980 -0.5912  1.3046  1.7664
17651SOL     OW59813  10.266   5.621   0.553 -0.7176  0.2395 -0.0650
17651SOL    HW159814  10.298   5.697   0.602  0.4513  1.1703 -2.1332
17651SOL    HW259815  10.342   5.563   0.548 -1.0799 -0.2369 -0.0493
17652SOL     OW59816   3.058  10.586   8.456 -0.4004  0.0773  0.1911
17652SOL    HW159817   2.978  10.534   8.463  0.2151 -0.7337  2.0867
17652SOL    HW259818   3.031  10.667   8.413 -2.1266 -0.4128  0.2833
17653SOL     OW59819   6.427   5.392   1.871  0.3396 -0.3028  0.3520
17653SOL    HW159820   6.391   5.369   1.956 -2.8487 -0.6743 -0.9644
17653SOL    HW259821   6.380   5.337   1.809  3.1775 -0.7152 -1.6583
17654SOL     OW59822   7.530   7.823   3.488  0.0866 -0.4632  0.1848
17654SOL    HW159823   7.537   7.915   3.513 -0.6510 -0.2770 -0.2690
17654SOL    HW259824   7.488   7.824   3.402 -0.7569 -1.2588  0.5651
17655SOL     OW59825   9.877  10.385   7.717 -0.1461  0.6835  0.4493
17655SOL    HW159826   9.959  10.433   7.715 -0.6914  1.6428 -0.3598
17655SOL    HW259827   9.820  10.437   7.773 -0.6508  0.8464 -0.1956
17656SOL     OW59828   2.268   2.093   2.099  0.1847  0.5138  0.1496
17656SOL    HW159829   2.194   2.052   2.054 -1.0773  3.2045 -0.4227
17656SOL    HW259830   2.345   2.065   2.049 -0.7380 -0.0890 -0.9837
17657SOL     OW59831  10.814   8.655   5.976  0.0258  0.4349 -0.4339
17657SOL    HW159832  10.831   8.575   6.026 -0.3776 -0.6150 -1.9315
17657SOL    HW259833  10.893   8.708   5.989  0.7651 -0.6591 -0.2741
17658SOL     OW59834   4.134   5.680  10.189  0.1550  0.2620  0.2606
17658SOL    HW159835   4.056   5.651  10.141  1.0431 -0.3318 -0.8622
17658SOL    HW259836   4.129   5.776  10.188 -0.4089  0.2310 -0.0389
17659SOL     OW59837   3.804   5.294   1.224  0.3432  0.1124  0.2783
17659SOL    HW159838   3.839   5.220   1.174  0.9308 -0.4850  1.5289
17659SOL    HW259839   3.725   5.259   1.265  0.0757  0.4876  0.0882
17660SOL     OW59840   6.205   8.386   0.339  0.0078  0.0633 -0.2237
17660SOL    HW159841   6.177   8.358   0.426 -0.4166 -0.2536 -0.4596
17660SOL    HW259842   6.169   8.321   0.280  1.6746 -0.6609 -0.5069
17661SOL     OW59843   9.349  11.225   0.294  0.2805 -0.5060  0.0644
17661SOL    HW159844   9.440  11.228   0.266  0.5205  1.4444  0.8845
17661SOL    HW259845   9.306  11.166   0.232  1.9088 -0.7855 -0.8456
17662SOL     OW59846  12.230   9.110   9.658  0.2579 -0.0950 -0.2952
17662SOL    HW159847  12.314   9.147   9.632  1.2156 -1.5736  0.5309
17662SOL    HW259848  12.227   9.121   9.753 -0.8120  0.5534 -0.3835
17663SOL     OW59849  11.867   2.821   8.957 -0.7381  0.1988 -0.7400
17663SOL    HW159850  11.850   2.730   8.932 -1.6646  0.0774  0.2816
17663SOL    HW259851  11.789   2.869   8.930 -1.6272  0.1226  1.4937
17664SOL     OW59852  11.211   5.022   3.262  0.2636  0.3024  0.0696
17664SOL    HW159853  11.294   5.005   3.218  0.0927 -0.4908  0.0319
17664SOL    HW259854  11.234   5.028   3.355  0.7320  2.7065 -0.1421
17665SOL     OW59855  11.283  11.639  10.368  0.2414  0.4560  0.2039
17665SOL    HW159856  11.332  11.704  10.418  1.3142  0.3227 -0.6346
17665SOL    HW259857  11.346  11.569  10.351  0.1402  0.7996 -1.8892
17666SOL     OW59858   5.737   0.599  10.594  0.9455 -0.0914 -0.5140
17666SOL    HW159859   5.768   0.530  10.653  1.8338 -0.0554 -0.9176
17666SOL    HW259860   5.748   0.680  10.644 -0.6272 -0.2711  0.1690
17667SOL     OW59861   9.091   9.023  11.598  0.3642 -0.0072 -0.1362
17667SOL    HW159862   9.110   9.082  11.670 -0.8164 -0.8076  0.8832
17667SOL    HW259863   9.050   9.078  11.531  1.0903  0.6650 -0.0334
17668SOL     OW59864   8.450   0.943   7.922  0.1882 -0.3565 -0.0768
17668SOL    HW159865   8.407   1.028   7.922 -2.6944 -1.6474  1.8541
17668SOL    HW259866   8.523   0.952   7.983 -0.5407  0.5482  0.6888
17669SOL     OW59867   6.854   7.008   1.961 -0.3080 -0.2827 -0.1452
17669SOL    HW159868   6.843   7.051   2.046 -3.1354 -0.4216 -0.3423
17669SOL    HW259869   6.858   6.914   1.983 -1.0003 -0.3162 -0.1190
17670SOL     OW59870   9.663   2.598   5.693 -0.0012 -0.4237 -0.5957
17670SOL    HW159871   9.728   2.669   5.694 -0.6571  0.2327 -1.7321
17670SOL    HW259872   9.690   2.542   5.621  1.4000 -2.2603  1.2373
17671SOL     OW59873   2.378  10.658  10.624 -0.2102  0.0902 -0.3475
17671SOL    HW159874   2.297  10.684  10.667  0.6663 -0.9244  2.1617
17671SOL    HW259875   2.355  10.649  10.532 -2.9641 -0.2238  0.2752
17672SOL     OW59876   5.472  10.106   2.788  0.2799  0.0006 -0.1942
17672SOL    HW159877   5.413  10.045   2.832 -0.5199  0.1605 -1.0095
17672SOL    HW259878   5.538  10.127   2.854 -0.5400 -0.2259  0.7288
17673SOL     OW59879   5.010   0.299   5.097 -0.1452 -0.1119  0.6764
17673SOL    HW159880   4.947   0.264   5.160  1.5361  0.5528  2.8394
17673SOL    HW259881   5.091   0.253   5.117 -0.0151 -1.6221 -2.6437
17674SOL     OW59882   9.555  12.189   6.742  0.4076 -0.4380  0.1362
17674SOL    HW159883   9.584  12.198   6.833  4.0551 -1.3791 -0.7746
17674SOL    HW259884   9.573  12.275   6.703 -1.8223  0.1973  0.3694
17675SOL     OW59885   7.364   2.075   5.050  0.0607 -0.1843 -0.5224
17675SOL    HW159886   7.378   1.993   5.003 -0.6015 -0.2673 -0.5820
17675SOL    HW259887   7.421   2.138   5.006 -0.6917 -0.2154 -1.5536
17676SOL     OW59888   0.614   3.624   6.756  0.7959  0.3428 -0.1211
17676SOL    HW159889   0.614   3.692   6.823  1.1629  0.7293 -0.5039
17676SOL    HW259890   0.696   3.576   6.771  1.6739  1.4064 -1.2389
17677SOL     OW59891   7.551   7.192   7.403  0.7908 -0.6120  0.0892
17677SOL    HW159892   7.491   7.157   7.468  0.2579  0.8069  0.3915
17677SOL    HW259893   7.551   7.287   7.418  0.1337 -0.1502 -2.4038
17678SOL     OW59894   8.739   4.574   6.699 -0.4697  0.1584  0.1155
17678SOL    HW159895   8.671   4.641   6.703  0.2715  0.9351 -0.1610
17678SOL    HW259896   8.698   4.502   6.651 -0.6966  1.1244 -1.2113
17679SOL     OW59897   6.514   4.748   4.110 -0.3692 -0.3095  0.5168
17679SOL    HW159898   6.506   4.834   4.068  0.4678 -0.8019 -0.7310
17679SOL    HW259899   6.444   4.696   4.072 -0.2655 -0.4526  0.5186
17680SOL     OW59900   7.666   6.584  11.623  0.1473  0.5153 -0.1267
17680SOL    HW159901   7.590   6.642  11.612 -0.5370 -0.2374  0.4764
17680SOL    HW259902   7.628   6.496  11.623  1.2002  0.0294 -1.3080
17681SOL     OW59903   7.013   8.049  10.270  0.3239  0.0863 -0.2545
17681SOL    HW159904   7.081   7.998  10.314  0.4691  0.6570  0.2031
17681SOL    HW259905   6.955   7.984  10.232  0.9826 -0.4134 -0.4291
17682SOL     OW59906   9.625  12.443   6.672  0.3296  0.6856  0.1586
17682SOL    HW159907   9.655  12.525   6.712  0.3931  1.2091 -0.9003
17682SOL    HW259908   9.561  12.471   6.606  2.1621  0.1398 -1.9735
17683SOL     OW59909   1.288  11.193   6.042  0.3035  0.0380 -0.4073
17683SOL    HW159910   1.250  11.124   5.988  2.4461 -1.2519 -0.3611
17683SOL    HW259911   1.379  11.168   6.054  0.7285  1.9913  1.0917
17684SOL     OW59912   3.134   2.811   0.778 -0.2190 -0.9719  0.5981
17684SOL    HW159913   3.190   2.796   0.702  1.4883 -1.2828  1.8491
17684SOL    HW259914   3.115   2.905   0.777  0.2520 -0.8797  0.0985
17685SOL     OW59915   7.944   2.455   3.939  0.0489  0.0159  0.0991
17685SOL    HW159916   7.904   2.532   3.978  1.3546  0.2505  1.0318
17685SOL    HW259917   7.976   2.485   3.854  0.4948  0.4889  0.4320
17686SOL     OW59918   2.457   8.088  12.353 -0.6464 -0.1802 -0.0886
17686SOL    HW159919   2.393   8.130  12.296 -0.4348 -0.3531 -0.4605
17686SOL    HW259920   2.423   8.101  12.441 -0.7423  0.5049 -0.2174
17687SOL     OW59921   9.832   4.531  10.063 -0.0275 -0.6759 -0.3811
17687SOL    HW159922   9.902   4.508  10.001 -1.7462 -1.6762 -2.0607
17687SOL    HW259923   9.818   4.450  10.113  1.0350 -0.0077  1.0549
17688SOL     OW59924   7.593   6.045   7.081 -0.0034  0.1123 -0.1327
17688SOL    HW159925   7.574   6.115   7.143  2.7487 -0.0002  0.9990
17688SOL    HW259926   7.578   5.964   7.129  1.1287  0.0134  0.0839
17689SOL     OW59927  10.906   9.584   8.098  0.4916 -0.0361  0.2260
17689SOL    HW159928  10.811   9.598   8.094  0.5512  0.1000 -0.9668
17689SOL    HW259929  10.941   9.668   8.129  0.1849 -0.2970  1.3193
17690SOL     OW59930   9.602   2.539   0.634 -0.2374 -0.0913  0.1295
17690SOL    HW159931   9.687   2.496   0.626 -1.8471 -3.5424 -0.2436
17690SOL    HW259932   9.572   2.516   0.722 -1.4469 -0.3203 -0.3171
17691SOL     OW59933   9.364   9.171   5.843 -0.4123 -0.2003 -0.2431
17691SOL    HW159934   9.328   9.233   5.780 -0.2583 -0.6913 -0.8187
17691SOL    HW259935   9.403   9.225   5.911 -1.0343  0.3331 -0.3006
17692SOL     OW59936   8.477   9.897  10.765  0.4551  0.1934  0.8595
17692SOL    HW159937   8.542   9.877  10.697 -0.0211  1.9389 -0.1612
17692SOL    HW259938   8.404   9.839  10.746 -0.1681  1.4659 -0.9342
17693SOL     OW59939   8.554   4.785   4.182  0.2830  0.3322  0.8541
17693SOL    HW159940   8.646   4.758   4.173  0.1984  0.3214 -0.0653
17693SOL    HW259941   8.504   4.706   4.165  0.0432  0.9007 -1.5803
17694SOL     OW59942   8.277  11.043   9.679  0.2672 -0.7458  0.3463
17694SOL    HW159943   8.333  10.972   9.708  0.4522 -1.0288 -0.6910
17694SOL    HW259944   8.192  11.025   9.720  0.7758 -0.5795  1.5169
17695SOL     OW59945   1.428   6.009  10.815  0.6925  0.3007  0.2243
17695SOL    HW159946   1.429   5.927  10.766  1.3368  0.3614  0.1160
17695SOL    HW259947   1.390   5.987  10.899 -0.9650  0.3139 -0.4957
17696SOL     OW59948  10.874   0.015   3.474 -0.0077  0.3809  0.0697
17696SOL    HW159949  10.899  -0.060   3.528  1.4853 -0.0945 -1.2215
17696SOL    HW259950  10.879   0.089   3.533 -1.1381 -0.4510  1.2790
17697SOL     OW59951   6.901  11.293   9.022  0.0738  0.9620 -0.0826
17697SOL    HW159952   6.856  11.322   8.942 -0.1228  0.0366 -0.3133
17697SOL    HW259953   6.832  11.260   9.079  0.4450 -0.6740 -0.5282
17698SOL     OW59954   2.553  11.703   0.957 -0.2889 -0.0450  0.3223
17698SOL    HW159955   2.590  11.712   1.044 -0.2389 -1.6546  0.4884
17698SOL    HW259956   2.482  11.640   0.966  1.4967 -2.4626 -1.2461
17699SOL     OW59957   6.353  10.846   9.557  0.5441 -0.0364 -0.1845
17699SOL    HW159958   6.384  10.915   9.615  1.2566 -0.7550  0.3106
17699SOL    HW259959   6.263  10.829   9.586  0.2365  0.8914 -0.5320
17700SOL     OW59960   7.714   8.470   5.105 -0.1771 -0.1912 -0.0013
17700SOL    HW159961   7.790   8.420   5.133  1.2273  1.9829  0.2737
17700SOL    HW259962   7.641   8.430   5.152  1.0333 -1.2833  1.0200
17701SOL     OW59963   3.301   4.830   2.949  0.1241 -0.4007  0.2694
17701SOL    HW159964   3.219   4.785   2.932 -0.9030  1.2423  0.7152
17701SOL    HW259965   3.310   4.830   3.044  0.6795 -0.5875  0.2259
17702SOL     OW59966   3.508   5.706   4.967  0.2879  0.1293  0.4831
17702SOL    HW159967   3.499   5.614   4.942  1.4826 -0.3030  1.5269
17702SOL    HW259968   3.601   5.726   4.953 -0.2015  1.6025 -1.0163
17703SOL     OW59969   9.041   5.038   0.437  0.1874 -0.3237 -0.5429
17703SOL    HW159970   9.002   5.126   0.429 -0.8440 -0.8009 -0.9420
17703SOL    HW259971   9.135   5.053   0.430  0.0102  0.7241 -0.9003
17704SOL     OW59972  12.306   1.900  11.842 -0.3750  0.2033  0.1382
17704SOL    HW159973  12.373   1.964  11.821  1.0351 -0.7544  1.5157
17704SOL    HW259974  12.264   1.934  11.922  1.5354 -1.3217  1.8935
17705SOL     OW59975   8.526   2.721  10.078 -0.1365  0.1817 -0.2308
17705SOL    HW159976   8.505   2.650  10.017 -1.0881  0.2760 -0.0208
17705SOL    HW259977   8.621   2.729  10.073  0.0103 -1.2288 -0.1402
17706SOL     OW59978   0.123   9.609   1.285  0.3339 -0.5969 -0.0486
17706SOL    HW159979   0.180   9.552   1.233 -1.3671  0.2326 -3.0925
17706SOL    HW259980   0.173   9.690   1.295  0.9031 -0.9612  0.1002
17707SOL     OW59981   4.166   5.991   5.850  0.2024  0.2611  0.8267
17707SOL    HW159982   4.081   5.947   5.845  0.3082  0.1199  0.2552
17707SOL    HW259983   4.177   6.009   5.944 -0.4223  0.2163  0.9164
17708SOL     OW59984  11.697   7.272   4.918  0.2749 -0.2243 -0.5404
17708SOL    HW159985  11.657   7.335   4.857  0.1551  0.6382  0.3913
17708SOL    HW259986  11.700   7.190   4.870  0.8605  0.5997 -1.9771
17709SOL     OW59987  11.732   4.371   7.600  0.4453  0.1432  0.1969
17709SOL    HW159988  11.651   4.345   7.645 -1.4057  2.0587 -1.7736
17709SOL    HW259989  11.768   4.441   7.654  0.1423  0.0889  0.4733
17710SOL     OW59990   2.719   7.869  11.273  0.4265  0.0562  0.6429
17710SOL    HW159991   2.646   7.931  11.279  0.3003 -0.2080  2.5702
17710SOL    HW259992   2.680   7.789  11.238  0.1410  0.4284  0.1083
17711SOL     OW59993   0.450   7.821   2.168  0.3496  0.3065 -0.0448
17711SOL    HW159994   0.426   7.741   2.121  0.8524 -0.1761  0.5080
17711SOL    HW259995   0.535   7.801   2.208 -0.0648  0.6917  1.0759
17712SOL     OW59996   4.638  12.426   7.615  0.0056 -0.2984 -0.2795
17712SOL    HW159997   4.703  12.474   7.666  2.5153 -2.6582 -0.9668
17712SOL    HW259998   4.648  12.335   7.644 -1.5903 -1.0371 -1.8595
17713SOL     OW59999   9.425  11.473  12.019 -0.1942 -0.1727  0.0231
17713SOL    HW160000   9.463  11.514  11.940  0.2543 -0.8376 -0.1186
17713SOL    HW260001   9.337  11.508  12.024 -0.1634  0.0274 -0.6778
17714SOL     OW60002  10.520  11.067   6.385  0.2607 -0.3271  0.1397
17714SOL    HW160003  10.550  11.104   6.468  0.5008  2.3832 -1.0446
17714SOL    HW260004  10.425  11.062   6.394  0.2967 -0.1447  0.6219
17715SOL     OW60005   0.452   8.981   7.773 -0.6526 -0.8543  0.1327
17715SOL    HW160006   0.494   8.897   7.756 -0.0814 -0.6115  0.3263
17715SOL    HW260007   0.460   8.993   7.868 -2.1837 -1.3392  0.3575
17716SOL     OW60008   1.923   7.155   8.659  0.0326  0.1785  0.3350
17716SOL    HW160009   1.841   7.142   8.708 -0.7411 -2.3588 -1.4653
17716SOL    HW260010   1.992   7.130   8.720 -0.7311 -0.5247  0.9234
17717SOL     OW60011   7.775   7.057   4.128  0.1340  0.6874  0.2840
17717SOL    HW160012   7.704   7.115   4.101 -0.2625 -0.1305 -0.4795
17717SOL    HW260013   7.839   7.063   4.057  0.7460  1.2662  0.8720
17718SOL     OW60014  10.329   9.728   9.871 -0.0099  0.4916 -0.2927
17718SOL    HW160015  10.246   9.774   9.856 -0.2686 -0.0967 -0.7021
17718SOL    HW260016  10.392   9.798   9.891 -0.9597  0.8505  1.7287
17719SOL     OW60017   4.969   3.205   8.472 -0.3848  0.2213 -0.5537
17719SOL    HW160018   5.058   3.230   8.445  0.2972  0.9778  2.0579
17719SOL    HW260019   4.981   3.129   8.529 -1.2303  1.0044  0.7405
17720SOL     OW60020   7.994   1.781   4.340 -0.1304 -0.0673 -0.2823
17720SOL    HW160021   8.068   1.840   4.337  0.6365 -0.9609  0.2923
17720SOL    HW260022   7.942   1.802   4.263  0.0186  1.4653  0.0170
17721SOL     OW60023   6.592   5.478   4.680 -0.1930 -0.9706 -0.4814
17721SOL    HW160024   6.542   5.557   4.660  0.6897 -0.3571 -0.2817
17721SOL    HW260025   6.524   5.411   4.697 -0.9427 -0.6356 -2.0201
17722SOL     OW60026   6.896   8.076  12.095 -0.0634  0.5641  0.3571
17722SOL    HW160027   6.831   8.096  12.027  0.4781  0.1623 -0.2862
17722SOL    HW260028   6.856   8.108  12.176 -0.3007  1.9462 -0.2762
17723SOL     OW60029   8.167   4.533   3.718 -0.0424 -0.5014  0.2444
17723SOL    HW160030   8.146   4.454   3.767 -2.6198  0.8123  1.4560
17723SOL    HW260031   8.158   4.604   3.781  2.3417  0.8345 -0.7555
17724SOL     OW60032  12.068   6.943   7.583 -0.1603 -0.1688  0.4493
17724SOL    HW160033  12.024   6.867   7.544 -0.3046 -0.6452  1.5107
17724SOL    HW260034  12.003   7.014   7.578 -0.4963 -0.4599  0.6095
17725SOL     OW60035   2.803  11.300   8.428  0.1510  0.4820 -0.1916
17725SOL    HW160036   2.854  11.380   8.436 -0.1183  0.4884  1.7709
17725SOL    HW260037   2.718  11.329   8.394 -0.6976  1.4170  2.4694
17726SOL     OW60038   4.285   3.093   6.592 -0.3361 -0.2726 -0.4650
17726SOL    HW160039   4.310   3.180   6.624 -2.5673  0.8461 -1.5213
17726SOL    HW260040   4.340   3.032   6.641  1.2249  1.7179  0.3831
17727SOL     OW60041  11.462   3.013   3.558 -0.0206 -0.6189 -0.1226
17727SOL    HW160042  11.443   2.919   3.556 -2.8145 -0.1455  0.0490
17727SOL    HW260043  11.468   3.034   3.651  2.3282 -0.8462 -0.1592
17728SOL     OW60044   9.495   7.669   3.143  0.1751 -0.1009  0.0275
17728SOL    HW160045   9.526   7.666   3.233 -2.7157  0.3191  1.1595
17728SOL    HW260046   9.465   7.580   3.125  0.4168 -0.0991 -0.3919
17729SOL     OW60047   7.711  10.165   2.769 -0.4317 -1.3008 -0.6011
17729SOL    HW160048   7.711  10.069   2.768  0.5659 -1.3246 -2.5771
17729SOL    HW260049   7.687  10.190   2.680  2.9536  0.2043 -1.2254
17730SOL     OW60050   6.856   3.941  11.627  0.1418  0.1428  0.5764
17730SOL    HW160051   6.884   3.937  11.535  1.8001  2.2357  0.9183
17730SOL    HW260052   6.763   3.921  11.624  0.4880 -1.5559 -1.3319
17731SOL     OW60053   6.862   7.824   4.193 -0.1711 -0.4141  0.2124
17731SOL    HW160054   6.839   7.799   4.104  1.7553  2.4420 -1.2401
17731SOL    HW260055   6.812   7.904   4.209  1.7468  0.7984  0.4522
17732SOL     OW60056   4.456   4.998   3.311  0.0397  0.1669 -0.6602
17732SOL    HW160057   4.525   5.007   3.377  1.4241 -0.4256 -1.9776
17732SOL    HW260058   4.420   5.086   3.303 -1.0799  0.0145  1.7930
17733SOL     OW60059  11.344   8.899   8.352  0.1698  0.4249  0.1604
17733SOL    HW160060  11.337   8.920   8.445 -2.7689  0.0751  0.1313
17733SOL    HW260061  11.355   8.985   8.309 -0.8218  0.8501  0.7174
17734SOL     OW60062   1.647   8.545   0.550 -0.1181  0.6336  0.0487
17734SOL    HW160063   1.600   8.461   0.542  0.4634  0.2849  0.2379
17734SOL    HW260064   1.695   8.538   0.632 -1.5699  1.9232  1.0562
17735SOL     OW60065   8.784   5.531   3.096  0.1105  0.1559 -0.2956
17735SOL    HW160066   8.776   5.446   3.139 -3.8014 -0.7512 -2.3706
17735SOL    HW260067   8.849   5.518   3.027  2.3173  0.0770  1.6679
17736SOL     OW60068  11.043   0.851   0.031 -0.2356 -0.2441 -0.1330
17736SOL    HW160069  11.077   0.819  -0.053  0.4881 -0.0810  0.0966
17736SOL    HW260070  10.967   0.903   0.007  0.6512  0.7843 -0.7907
17737SOL     OW60071  11.094   6.158   4.417  0.4116 -0.6341 -0.8712
17737SOL    HW160072  11.029   6.150   4.347 -0.8069  2.8826 -0.3118
17737SOL    HW260073  11.066   6.095   4.483 -1.3278 -0.5286 -1.4565
17738SOL     OW60074   3.309   8.755   1.604  0.2756  0.4179  0.5141
17738SOL    HW160075   3.362   8.728   1.529  2.8570  0.1300  2.3120
17738SOL    HW260076   3.359   8.825   1.646 -0.9230  0.3731  2.1522
17739SOL     OW60077  10.276   0.066   8.079 -0.0891  0.0408  0.5039
17739SOL    HW160078  10.245   0.111   8.000 -0.7113 -1.0087  0.1291
17739SOL    HW260079  10.202   0.071   8.140  0.3990  0.8725  1.0438
17740SOL     OW60080   7.318   2.849   4.380  0.0515 -0.1776  0.4704
17740SOL    HW160081   7.395   2.853   4.436 -1.8721  2.1987  3.2559
17740SOL    HW260082   7.246   2.825   4.439 -2.1055  2.4384 -0.8653
17741SOL     OW60083   3.291   9.721   5.470  0.0825  0.3930  0.4923
17741SOL    HW160084   3.196   9.724   5.457  0.1641 -0.3309 -0.3511
17741SOL    HW260085   3.323   9.803   5.433 -0.2013  0.5990  0.7008
17742SOL     OW60086   6.451   4.803   0.519 -0.3742 -0.4061  0.4147
17742SOL    HW160087   6.527   4.861   0.514 -0.0973 -0.8365 -0.6056
17742SOL    HW260088   6.462   4.755   0.601 -0.0814  0.2596  0.7716
17743SOL     OW60089   4.150   2.718   7.928  0.2386  0.0982 -0.0752
17743SOL    HW160090   4.076   2.745   7.874  0.2295 -1.2650 -0.7818
17743SOL    HW260091   4.153   2.783   7.999 -2.9188 -0.8795  1.1389
17744SOL     OW60092   6.968   1.143   3.548 -0.0864  0.1512  0.0921
17744SOL    HW160093   6.981   1.113   3.638  1.9367  0.6145  0.0160
17744SOL    HW260094   7.057   1.158   3.515 -0.8565  2.1850 -1.2394
17745SOL     OW60095  10.215  12.068   6.242 -0.6133 -0.1064  0.4285
17745SOL    HW160096  10.236  12.070   6.335 -0.3616  0.2346  0.3654
17745SOL    HW260097  10.138  12.012   6.236 -1.4240  0.9228  0.9984
17746SOL     OW60098   7.545  11.665   7.425  0.3233 -0.2094 -0.1436
17746SOL    HW160099   7.451  11.678   7.432  0.1351 -0.8621 -1.1975
17746SOL    HW260100   7.567  11.695   7.337  0.9328 -0.9981 -0.2693
17747SOL     OW60101   3.400   4.768   1.769  0.5208  0.1809 -0.2438
17747SOL    HW160102   3.432   4.699   1.712  0.2839  1.8237 -2.4792
17747SOL    HW260103   3.336   4.725   1.826  0.2194 -1.3923 -1.7187
17748SOL     OW60104   5.361   7.240  10.246 -0.1334 -0.1863  0.1163
17748SOL    HW160105   5.417   7.163  10.241 -1.6077 -1.2740 -0.1961
17748SOL    HW260106   5.281   7.209  10.289 -0.9777  1.0375 -0.5092
17749SOL     OW60107   5.945   6.335   2.229 -0.1221 -0.6845 -0.0359
17749SOL    HW160108   5.869   6.389   2.209  0.3019  0.6209  1.6696
17749SOL    HW260109   5.909   6.259   2.275 -0.7008 -1.8350 -2.2783
17750SOL     OW60110  10.919   2.970   9.638 -0.0120  0.1405  0.2937
17750SOL    HW160111  10.851   2.970   9.706 -0.0072 -0.9157  0.3096
17750SOL    HW260112  10.948   2.879   9.632 -1.6540 -0.3288 -2.7375
17751SOL     OW60113   5.754  12.413  11.491 -0.5836  0.8296  0.0439
17751SOL    HW160114   5.729  12.498  11.529 -0.3320 -0.0808  2.4194
17751SOL    HW260115   5.674  12.362  11.492 -0.6449  0.8783 -1.0315
17752SOL     OW60116   2.433   6.185   1.773 -0.3557 -0.5371  0.3023
17752SOL    HW160117   2.431   6.280   1.760  0.3331 -0.2240  2.2235
17752SOL    HW260118   2.373   6.170   1.846  0.5272 -1.4132  0.8642
17753SOL     OW60119   0.831  10.276   1.301  0.2758  0.4788  0.2102
17753SOL    HW160120   0.923  10.252   1.313  0.0385 -0.3145  0.5098
17753SOL    HW260121   0.833  10.342   1.232  1.0252  0.0679 -0.1885
17754SOL     OW60122  10.043  10.649   1.708  0.1118 -0.0419 -0.2557
17754SOL    HW160123  10.035  10.700   1.789 -2.6900 -0.5078 -0.1462
17754SOL    HW260124   9.954  10.645   1.673  0.9776 -1.2428 -2.5225
17755SOL     OW60125   5.649   9.533   4.419 -0.2749  0.3981  0.4349
17755SOL    HW160126   5.639   9.503   4.328 -2.3020  1.1711  0.3399
17755SOL    HW260127   5.566   9.509   4.460  0.3645  0.6511  1.9311
17756SOL     OW60128   9.718   1.631   5.907 -0.2797  0.3154 -0.2663
17756SOL    HW160129   9.813   1.631   5.920 -0.4738  0.5155  1.3804
17756SOL    HW260130   9.684   1.680   5.982 -1.6840  0.3670 -0.9114
17757SOL     OW60131   4.834   8.374   3.943 -0.2878 -0.4286  0.0979
17757SOL    HW160132   4.829   8.279   3.937 -0.3296 -0.5084  1.2740
17757SOL    HW260133   4.867   8.401   3.857 -1.4730 -1.3903 -0.6951
17758SOL     OW60134  10.702   2.009   0.735 -0.3900  0.4927  0.5082
17758SOL    HW160135  10.623   1.958   0.718  0.5533 -0.6811 -0.5331
17758SOL    HW260136  10.771   1.944   0.745  0.1944  1.3692  3.2494
17759SOL     OW60137   9.863   3.126   7.684 -0.2275  0.0530 -0.2588
17759SOL    HW160138   9.958   3.117   7.684 -0.2368 -0.0729 -0.7278
17759SOL    HW260139   9.835   3.094   7.598 -0.8031 -0.9744  0.2895
17760SOL     OW60140   4.334   4.642   8.948 -0.4834 -0.0747  0.1745
17760SOL    HW160141   4.414   4.682   8.916 -0.8794  2.1615  1.7640
17760SOL    HW260142   4.279   4.632   8.871 -0.6968  3.3785 -0.2447
17761SOL     OW60143  11.998   8.816   6.298 -0.4379 -0.0757 -0.2070
17761SOL    HW160144  12.046   8.780   6.222  0.6987  2.4457 -0.7888
17761SOL    HW260145  12.038   8.772   6.373 -0.7904 -1.7839 -0.9462
17762SOL     OW60146   9.364   8.841   2.654 -0.0910  0.1440  0.1411
17762SOL    HW160147   9.294   8.906   2.651  1.0369  1.4319  0.7847
17762SOL    HW260148   9.445   8.891   2.640  0.7846 -1.1740  0.2769
17763SOL     OW60149   6.978   2.829   6.868  0.2796 -0.1038 -0.3607
17763SOL    HW160150   6.940   2.875   6.793 -1.3696 -0.7119  0.0402
17763SOL    HW260151   6.995   2.898   6.932 -1.5350  0.0770 -0.0190
17764SOL     OW60152   2.981   3.556   9.081 -0.2641 -0.2473  0.0885
17764SOL    HW160153   2.917   3.505   9.031 -0.7965  0.4694  0.0216
17764SOL    HW260154   2.928   3.605   9.144  0.0005  1.7184 -1.1367
17765SOL     OW60155   1.894   9.725  10.072  0.5561  0.4639 -0.3581
17765SOL    HW160156   1.844   9.648  10.100  0.5051  0.9000  0.7970
17765SOL    HW260157   1.962   9.734  10.139  0.4200  1.5642 -0.3552
17766SOL     OW60158   3.788   9.993   1.155 -0.8182 -0.1487 -0.2754
17766SOL    HW160159   3.851  10.043   1.206 -1.4501 -1.3180  1.7405
17766SOL    HW260160   3.841   9.931   1.106 -0.3003 -0.1488  0.2756
17767SOL     OW60161   0.032   8.270   6.036 -0.2355  0.2114  0.4106
17767SOL    HW160162   0.092   8.338   6.067  2.1219 -1.9138  0.8482
17767SOL    HW260163   0.088   8.193   6.024 -2.0824 -0.7375 -3.5515
17768SOL     OW60164   9.403   7.116   6.737 -0.0060  0.0907 -0.1761
17768SOL    HW160165   9.316   7.077   6.751 -0.8831  1.8187 -0.5450
17768SOL    HW260166   9.463   7.042   6.741 -1.4194 -1.0741  0.7695
17769SOL     OW60167   2.548   7.094   4.206  0.3482 -0.0717  0.4547
17769SOL    HW160168   2.514   7.183   4.220 -2.0142 -0.7842 -0.3581
17769SOL    HW260169   2.528   7.048   4.287 -0.2737 -0.3910  0.1226
17770SOL     OW60170  10.606   0.167   6.009  0.0539 -0.2768  0.7467
17770SOL    HW160171  10.553   0.138   5.935  0.2623 -0.4264  0.6536
17770SOL    HW260172  10.694   0.179   5.972 -0.3919  2.3401  0.3282
17771SOL     OW60173   6.255   1.797   7.749  0.4269 -0.1892 -0.1702
17771SOL    HW160174   6.344   1.766   7.765  1.0151  1.5675  0.1641
17771SOL    HW260175   6.266   1.876   7.697 -0.9561  0.0065 -0.2054
17772SOL     OW60176   9.218   8.977   8.027  0.0424 -0.5035  0.3190
17772SOL    HW160177   9.164   8.993   7.949  0.1592  2.0691  0.6666
17772SOL    HW260178   9.164   8.920   8.082 -1.6802  0.7038 -0.0396
17773SOL     OW60179   1.908   8.156   6.362  0.0429 -0.4266 -0.5820
17773SOL    HW160180   1.958   8.081   6.392 -0.1808 -0.6233 -0.6983
17773SOL    HW260181   1.816   8.128   6.368 -0.0498 -0.1071 -0.4683
17774SOL     OW60182   0.302   5.080   1.750  0.5271  0.1879 -0.0769
17774SOL    HW160183   0.275   5.069   1.841  0.5809  1.4935  0.1132
17774SOL    HW260184   0.397   5.089   1.754  0.4037  1.8626 -0.0542
17775SOL     OW60185   8.304  11.693   2.821 -0.1191 -0.4980 -0.1606
17775SOL    HW160186   8.354  11.614   2.800 -2.1888 -1.9258 -0.0698
17775SOL    HW260187   8.237  11.697   2.752 -1.1070  0.1868  0.8059
17776SOL     OW60188   8.559   3.188   5.471 -0.0993  0.3246 -0.4516
17776SOL    HW160189   8.580   3.217   5.560  1.9523 -0.9015 -0.4695
17776SOL    HW260190   8.644   3.181   5.427 -0.7110 -2.4951 -1.4150
17777SOL     OW60191   4.404  10.287   2.060  0.5063  0.5651  0.2447
17777SOL    HW160192   4.469  10.218   2.048  0.2620  0.3468  0.1552
17777SOL    HW260193   4.450  10.368   2.037  0.2474  0.2351 -1.6578
17778SOL     OW60194   2.275   1.565   0.266 -0.7317 -0.0738 -0.8317
17778SOL    HW160195   2.261   1.634   0.331 -0.6195 -0.7032 -0.1263
17778SOL    HW260196   2.352   1.593   0.217  1.9275 -1.5502  2.0873
17779SOL     OW60197   1.893   3.860   7.664  0.1926 -0.4017  0.6315
17779SOL    HW160198   1.886   3.955   7.650  0.5596 -0.5362 -0.5851
17779SOL    HW260199   1.841   3.843   7.742 -2.4288  0.4001 -0.8305
17780SOL     OW60200  10.877  10.754   1.857  0.2191 -0.2376  0.8897
17780SOL    HW160201  10.971  10.749   1.878  0.4694  1.1363  0.2775
17780SOL    HW260202  10.836  10.780   1.939  0.2869 -1.3934  1.3038
17781SOL     OW60203   8.282   1.533   1.722 -0.4158  0.2954 -1.0341
17781SOL    HW160204   8.354   1.487   1.766 -0.4741  0.6710 -0.5394
17781SOL    HW260205   8.221   1.555   1.792 -0.9376  0.1159 -1.4337
17782SOL     OW60206   9.312   9.649   5.312  0.3683  0.4961 -0.0836
17782SOL    HW160207   9.270   9.648   5.398 -0.2293  0.0649 -0.3742
17782SOL    HW260208   9.377   9.719   5.318 -0.9181  1.7129  0.1210
17783SOL     OW60209   5.493   7.296  12.148  0.1153 -0.0185  0.3122
17783SOL    HW160210   5.494   7.252  12.233  2.3139 -2.1050 -0.6676
17783SOL    HW260211   5.430   7.245  12.096 -0.2168  0.4111  0.2914
17784SOL     OW60212   4.497  10.734   0.705  0.3194 -0.1003 -0.4901
17784SOL    HW160213   4.521  10.663   0.646  0.0911 -0.2937 -0.3516
17784SOL    HW260214   4.402  10.726   0.714  0.4096 -0.3799  0.2937
17785SOL     OW60215   6.762   6.843   6.928  0.0279 -0.6495  0.0911
17785SOL    HW160216   6.726   6.755   6.934  0.4255 -0.7585  1.1028
17785SOL    HW260217   6.852   6.834   6.958 -0.4999  0.4213  2.2230
17786SOL     OW60218   6.923  11.659  10.312  0.0373 -0.5048 -0.0219
17786SOL    HW160219   6.954  11.663  10.222  0.2181 -0.4126  0.0439
17786SOL    HW260220   6.915  11.565  10.331  1.8791 -0.6034  0.5016
17787SOL     OW60221   0.067  10.475   9.250  0.3163  0.1769 -0.1183
17787SOL    HW160222   0.143  10.532   9.239 -0.1030  0.5341 -1.3581
17787SOL    HW260223   0.082  10.402   9.189 -0.2990  0.2216 -0.3344
17788SOL     OW60224   9.746   8.916   7.970  0.1709 -0.0580 -0.5782
17788SOL    HW160225   9.755   8.822   7.985  1.7246  0.3812  1.8393
17788SOL    HW260226   9.668   8.940   8.020  0.7260  0.1706  0.1929
17789SOL     OW60227   8.862   6.248   9.654  0.1680  0.1989  0.3034
17789SOL    HW160228   8.938   6.257   9.596  0.5462  0.5780  0.8448
17789SOL    HW260229   8.797   6.308   9.618 -0.0697 -0.4980 -0.4591
17790SOL     OW60230  10.012   2.847   1.858 -0.1971  0.1369 -0.9218
17790SOL    HW160231  10.041   2.934   1.831 -0.1672  0.6757  0.7081
17790SOL    HW260232  10.092   2.802   1.883 -0.3037 -0.0438 -0.9069
17791SOL     OW60233   2.371   6.793   9.431  0.0656  0.3664  0.0167
17791SOL    HW160234   2.359   6.822   9.521  0.1582  0.0652  0.1287
17791SOL    HW260235   2.283   6.788   9.395 -0.1328 -1.2660  0.6487
17792SOL     OW60236  10.460   6.224   6.821 -0.4720  0.0971 -0.0189
17792SOL    HW160237  10.436   6.281   6.894 -0.6366  1.9951 -1.4694
17792SOL    HW260238  10.388   6.233   6.759  0.4576 -0.0872 -1.1577
17793SOL     OW60239   6.570   0.902   4.018 -0.0246 -0.5613  0.0315
17793SOL    HW160240   6.551   0.822   4.067 -0.2587 -0.5401 -0.0236
17793SOL    HW260241   6.534   0.972   4.073  1.6235 -0.3407  0.8861
17794SOL     OW60242  12.159   2.856   9.370 -0.0869 -0.1767 -0.0217
17794SOL    HW160243  12.113   2.803   9.435 -0.5294 -0.3403 -0.4621
17794SOL    HW260244  12.091   2.884   9.309  0.4397 -0.6428 -0.8407
17795SOL     OW60245   7.356   4.192   4.012  0.4012  0.7177 -0.0651
17795SOL    HW160246   7.310   4.247   4.075  1.5356  0.0557  1.4151
17795SOL    HW260247   7.409   4.133   4.066 -0.0359 -1.1881 -1.5935
17796SOL     OW60248   5.366   4.131   8.495  0.3271 -0.2466  0.5993
17796SOL    HW160249   5.379   4.182   8.575  1.7595 -1.4182  1.1672
17796SOL    HW260250   5.453   4.129   8.453 -0.3500  0.1659 -0.8907
17797SOL     OW60251   6.050   8.023   6.166  0.7466 -0.2079  0.0558
17797SOL    HW160252   5.998   7.944   6.178  0.4148  0.1671  1.1610
17797SOL    HW260253   6.130   8.008   6.217  1.1020 -0.2016 -0.4849
17798SOL     OW60254  11.134   8.350   4.681  0.3930 -0.0140 -0.1283
17798SOL    HW160255  11.111   8.301   4.760  0.3002  0.5972  0.2293
17798SOL    HW260256  11.229   8.364   4.689  0.1166  1.5723  0.7729
17799SOL     OW60257   6.616   4.111   2.160 -0.3907 -0.5070  0.1231
17799SOL    HW160258   6.612   4.032   2.107  1.8814 -0.2167 -0.5838
17799SOL    HW260259   6.576   4.179   2.105 -2.4029 -1.1093  0.7592
17800SOL     OW60260   5.197  11.910  11.714 -0.5905 -0.4301  0.4823
17800SOL    HW160261   5.167  11.990  11.671 -1.1209 -0.8498  0.0666
17800SOL    HW260262   5.141  11.903  11.792  0.5140  0.4447  1.3783
17801SOL     OW60263   0.312  10.315   8.868  0.3077  0.4312 -0.0967
17801SOL    HW160264   0.274  10.239   8.824 -0.1457  0.0686  0.8900
17801SOL    HW260265   0.258  10.389   8.839  0.1808  0.2381 -0.3555
17802SOL     OW60266   1.407   5.919   3.744 -0.2220  0.3340  0.5242
17802SOL    HW160267   1.327   5.915   3.691  0.0126  0.6011  0.1500
17802SOL    HW260268   1.475   5.948   3.683  0.2701 -0.3938  0.7142
17803SOL     OW60269   7.338   7.802   4.845  0.0762  0.0708 -0.1099
17803SOL    HW160270   7.359   7.746   4.919  0.1056 -1.2851 -1.0980
17803SOL    HW260271   7.414   7.860   4.836 -0.2965  0.8325  1.4083
17804SOL     OW60272   6.231  12.367   0.504  0.1640 -0.3045  0.0795
17804SOL    HW160273   6.321  12.371   0.472  0.1297  0.6178  0.0629
17804SOL    HW260274   6.238  12.379   0.599 -0.0089  1.0579 -0.0528
17805SOL     OW60275   3.451   1.404   2.687  0.1592  0.2978  0.3187
17805SOL    HW160276   3.509   1.458   2.633  1.2848 -1.4093 -0.2842
17805SOL    HW260277   3.378   1.383   2.630  0.1014  0.5663  0.2955
17806SOL     OW60278   3.216   2.738   9.164 -0.0364 -0.1203 -0.1425
17806SOL    HW160279   3.257   2.823   9.179  0.0295 -0.1089 -0.3834
17806SOL    HW260280   3.278   2.692   9.107 -1.3473  0.6984 -2.3459
17807SOL     OW60281   7.589  10.077  10.702 -0.0843 -0.1856 -0.0134
17807SOL    HW160282   7.541  10.115  10.775  2.7484  0.3046  1.7623
17807SOL    HW260283   7.593  10.147  10.637  0.2728  0.6188  0.8459
17808SOL     OW60284   4.764   2.724   7.166  0.1278 -0.2330  0.0797
17808SOL    HW160285   4.802   2.647   7.208  0.7829  1.3986  2.6954
17808SOL    HW260286   4.821   2.742   7.091  0.7547 -1.4896  0.2351
17809SOL     OW60287   3.361   3.378   6.397  0.1292 -0.4492  0.5247
17809SOL    HW160288   3.453   3.356   6.386  0.4876  1.2354 -0.1012
17809SOL    HW260289   3.314   3.308   6.352  1.0512 -1.7493  1.5191
17810SOL     OW60290   2.686   4.742  11.414  0.0355 -0.1888  0.2622
17810SOL    HW160291   2.747   4.814  11.398  0.2484 -0.1165  1.3425
17810SOL    HW260292   2.599   4.780  11.402  0.1681 -0.0809 -0.4313
17811SOL     OW60293   6.510  10.147   2.958  0.6867 -0.0190  0.0400
17811SOL    HW160294   6.442  10.126   3.023  1.8631  0.7428  1.6029
17811SOL    HW260295   6.578  10.081   2.973  0.1795 -1.0432 -1.8049
17812SOL     OW60296   7.002   4.995  11.920 -0.1202 -0.1071 -0.7733
17812SOL    HW160297   6.979   4.923  11.979  2.1079 -1.5612 -1.5265
17812SOL    HW260298   6.946   5.067  11.948 -2.3880 -2.0483  0.1174
17813SOL     OW60299   4.218   4.413   3.102 -0.4014 -0.2394  0.2535
17813SOL    HW160300   4.160   4.449   3.035 -0.4043 -1.8987 -0.6905
17813SOL    HW260301   4.224   4.319   3.081 -0.7958 -0.9300  2.8592
17814SOL     OW60302  11.500   7.651   8.888  0.1359 -0.0015  0.1509
17814SOL    HW160303  11.414   7.663   8.847 -0.7346 -0.1992  1.8516
17814SOL    HW260304  11.554   7.613   8.819 -1.2974 -0.4050 -0.7962
17815SOL     OW60305   4.199   8.609   2.215 -0.0237  0.3784 -0.4027
17815SOL    HW160306   4.120   8.660   2.195 -2.2220 -2.5331  0.1960
17815SOL    HW260307   4.213   8.554   2.138  1.7156  1.0989 -0.6465
17816SOL     OW60308  11.111   5.824   3.127  0.4632  0.0778  0.3245
17816SOL    HW160309  11.121   5.762   3.055  0.6468  1.2422 -0.6818
17816SOL    HW260310  11.038   5.880   3.100  1.0826  1.0565  0.6575
17817SOL     OW60311   2.055  11.282  11.584 -0.2386 -0.1909  0.0027
17817SOL    HW160312   2.108  11.297  11.662  1.5012 -1.0055 -0.9827
17817SOL    HW260313   2.033  11.370  11.553  1.3783  0.1958 -0.1068
17818SOL     OW60314   2.562   7.464   4.032  0.1555 -0.4468 -0.1870
17818SOL    HW160315   2.619   7.536   4.004 -1.0314  0.4088 -0.5232
17818SOL    HW260316   2.592   7.388   3.982  0.0885  0.3332 -1.4678
17819SOL     OW60317   1.534  10.739   9.354  0.3179 -0.6939 -0.3025
17819SOL    HW160318   1.590  10.702   9.423  1.2028  0.4885 -0.3569
17819SOL    HW260319   1.488  10.663   9.319 -1.3279 -1.1857  2.5537
17820SOL     OW60320   6.853  10.928   4.740 -0.1504 -0.0263  0.3421
17820SOL    HW160321   6.844  10.966   4.827  1.6667  0.7020  0.2497
17820SOL    HW260322   6.897  10.845   4.754  0.2429  0.1396  0.1327
17821SOL     OW60323  12.067   4.665   7.908 -0.3639  0.3892  0.3205
17821SOL    HW160324  12.018   4.746   7.897 -1.1315 -0.2822 -1.6048
17821SOL    HW260325  12.141   4.689   7.965 -0.2580  2.5595 -0.6307
17822SOL     OW60326  10.544  11.388   0.090 -0.4704  0.0331 -0.2741
17822SOL    HW160327  10.590  11.397   0.006  0.6184  0.3125  0.3254
17822SOL    HW260328  10.556  11.296   0.115 -0.5568  0.0163 -0.2929
17823SOL     OW60329   9.812   9.848   9.973  0.4016  0.0149 -0.2570
17823SOL    HW160330   9.763   9.787   9.918 -0.6060  0.9909 -0.4850
17823SOL    HW260331   9.848   9.912   9.911 -0.1940  0.7510  0.1347
17824SOL     OW60332   4.425  11.974   3.514  0.1994 -0.0803  0.2371
17824SOL    HW160333   4.416  11.925   3.596  0.5904 -0.2464  0.1829
17824SOL    HW260334   4.498  12.034   3.530 -0.4484  0.6830  0.3952
17825SOL     OW60335   7.268   2.321  11.775  0.3101  0.0740  0.0461
17825SOL    HW160336   7.263   2.401  11.827  0.7736 -0.4776  0.9478
17825SOL    HW260337   7.361   2.305  11.763  0.2113  0.2577 -1.0693
17826SOL     OW60338   8.919   4.037  12.175  0.3447 -0.7393  0.0750
17826SOL    HW160339   8.946   4.090  12.251 -1.3080  0.3101 -0.0374
17826SOL    HW260340   8.938   3.947  12.202  1.6277 -0.2495  0.9374
17827SOL     OW60341   3.796   9.561   7.655 -0.1547  0.0036 -0.6017
17827SOL    HW160342   3.731   9.605   7.709  0.0391 -1.1509  0.6176
17827SOL    HW260343   3.875   9.614   7.666 -0.0387 -0.3707  0.5051
17828SOL     OW60344   8.490   3.183  12.402  0.1614 -0.5949 -0.0061
17828SOL    HW160345   8.529   3.096  12.396  0.8774 -0.1915 -2.3298
17828SOL    HW260346   8.456   3.200  12.314 -0.8636  1.0711  0.6677
17829SOL     OW60347   2.321   0.867   6.798 -0.0035  0.4039  0.9590
17829SOL    HW160348   2.264   0.907   6.732  0.3854  0.0027  0.3635
17829SOL    HW260349   2.270   0.792   6.830  1.1194 -1.5334 -1.4302
17830SOL     OW60350   3.716   0.743  10.810 -0.4214 -0.2676  0.0961
17830SOL    HW160351   3.664   0.671  10.845  0.3301 -0.7562  0.2263
17830SOL    HW260352   3.701   0.815  10.871 -1.1085 -0.3284  0.0120
17831SOL     OW60353   6.772  10.728  11.445 -0.6939 -0.1233 -0.0446
17831SOL    HW160354   6.807  10.653  11.493  2.0649  1.8726  1.3644
17831SOL    HW260355   6.834  10.742  11.373 -1.0264  0.9389 -0.1423
17832SOL     OW60356  12.353  10.030   8.054  0.1389 -0.2332 -0.5938
17832SOL    HW160357  12.374   9.948   8.010 -2.5283 -0.1900 -2.0902
17832SOL    HW260358  12.288  10.007   8.120  0.5952  0.4465  0.1176
17833SOL     OW60359   0.989   6.217   6.673 -0.4462 -0.3645  0.2981
17833SOL    HW160360   0.905   6.171   6.663 -1.2953  1.2324 -0.3300
17833SOL    HW260361   1.026   6.183   6.754 -2.2653 -0.2862  1.2082
17834SOL     OW60362   0.533   4.605  11.855 -0.3147  0.3406 -0.2231
17834SOL    HW160363   0.507   4.603  11.763 -0.7514 -1.1292 -0.1001
17834SOL    HW260364   0.629   4.597  11.853 -0.0607  2.8362 -0.5882
17835SOL     OW60365   0.660   5.353   1.300 -0.3686  0.0001 -0.1939
17835SOL    HW160366   0.740   5.405   1.290  0.7747 -1.5254  0.5980
17835SOL    HW260367   0.680   5.291   1.370 -2.4341 -0.1186  0.3585
17836SOL     OW60368   3.266   2.653   3.332 -0.7570  0.1381 -0.1901
17836SOL    HW160369   3.323   2.698   3.270 -1.1537 -2.4527 -2.6024
17836SOL    HW260370   3.180   2.653   3.291 -0.4351 -4.2407 -1.3228
17837SOL     OW60371   8.489  10.147   2.829 -0.0238 -0.0435 -0.7267
17837SOL    HW160372   8.455  10.097   2.755 -0.3872  0.8746 -1.1983
17837SOL    HW260373   8.519  10.081   2.891  0.2342 -0.8332 -1.6677
17838SOL     OW60374  12.330   8.119   8.072 -0.4869 -0.2570  0.2283
17838SOL    HW160375  12.380   8.058   8.017  0.0136 -0.2239  0.6412
17838SOL    HW260376  12.336   8.202   8.026  0.5812 -0.0522  0.7054
17839SOL     OW60377  10.253   0.723   9.354  0.2167 -0.7152  0.1143
17839SOL    HW160378  10.324   0.771   9.313 -1.0257  0.7929 -0.3472
17839SOL    HW260379  10.182   0.786   9.362 -1.2373 -2.2776  0.1707
17840SOL     OW60380   5.936   9.444   6.665  0.1799  0.4751 -0.1501
17840SOL    HW160381   5.916   9.492   6.746 -1.1726  0.1738 -0.2783
17840SOL    HW260382   5.943   9.512   6.598  2.5000  0.8443  0.3801
17841SOL     OW60383  12.274  10.562  10.736 -0.4362  0.1849 -0.3485
17841SOL    HW160384  12.211  10.615  10.687 -1.8391  0.2635  1.4511
17841SOL    HW260385  12.346  10.548  10.675 -1.0497  2.2541 -1.6394
17842SOL     OW60386   1.142   7.341   2.568 -0.2699 -0.4381  0.9036
17842SOL    HW160387   1.063   7.315   2.520 -0.7060  0.7456  0.9619
17842SOL    HW260388   1.197   7.384   2.504  1.5139 -3.4325  0.2345
17843SOL     OW60389   3.577   7.973   9.873  0.0400  0.5768  0.1010
17843SOL    HW160390   3.512   7.968   9.944  0.2132  1.0499  0.2950
17843SOL    HW260391   3.654   7.929   9.909 -1.1113 -2.9042 -1.2389
17844SOL     OW60392   4.434   9.006   6.735 -0.1943  0.2355  0.4256
17844SOL    HW160393   4.365   8.940   6.725 -0.3632  0.0586  2.3669
17844SOL    HW260394   4.439   9.049   6.650 -1.1517 -1.2434 -0.4202
17845SOL     OW60395   5.715   9.488   7.075 -0.2091 -0.5186  0.3306
17845SOL    HW160396   5.774   9.413   7.081 -0.0747 -0.4788 -0.4524
17845SOL    HW260397   5.716   9.526   7.163  1.4780 -0.1035  0.1496
17846SOL     OW60398   8.203   5.373   8.850 -0.6294  0.6155  0.1099
17846SOL    HW160399   8.167   5.368   8.761 -0.4303 -0.3113  0.0740
17846SOL    HW260400   8.144   5.434   8.896 -1.2334  0.4444 -0.4207
17847SOL     OW60401   9.800   8.327   7.316  0.2606 -0.3621  0.0440
17847SOL    HW160402   9.728   8.288   7.366  0.7798 -4.7179 -2.1700
17847SOL    HW260403   9.758   8.360   7.237  0.1954  1.2610  0.7235
17848SOL     OW60404   4.392   2.286   5.021  0.2153  0.2386  0.1589
17848SOL    HW160405   4.430   2.347   4.958 -0.2693 -0.0188 -0.3906
17848SOL    HW260406   4.342   2.225   4.968 -2.2737  1.4711  0.9163
17849SOL     OW60407   8.378  11.954   9.619  0.7612  0.2063  0.2886
17849SOL    HW160408   8.322  11.906   9.558 -0.0567  1.4274  0.0475
17849SOL    HW260409   8.436  11.887   9.655  0.2847 -0.7949 -0.7293
17850SOL     OW60410  10.204   3.584   5.086 -0.3475 -0.8939 -0.2987
17850SOL    HW160411  10.135   3.576   5.021  0.3334  1.2965 -1.4096
17850SOL    HW260412  10.166   3.637   5.156  0.1056  0.2548 -0.8790
17851SOL     OW60413  12.299   8.854   4.567 -0.7382  0.7748  0.4739
17851SOL    HW160414  12.274   8.816   4.651 -0.2131  0.2554  0.4000
17851SOL    HW260415  12.215   8.877   4.525 -1.1072 -0.7358  0.3193
17852SOL     OW60416   1.292   1.553   8.086 -0.6899 -0.5446  0.5018
17852SOL    HW160417   1.235   1.484   8.052 -1.2023  0.1332 -0.0350
17852SOL    HW260418   1.373   1.543   8.036 -1.7666  1.0654 -1.7511
17853SOL     OW60419  11.460   0.846   6.364  0.6114 -0.0821 -0.6184
17853SOL    HW160420  11.397   0.781   6.333  0.2669 -1.1917  2.1002
17853SOL    HW260421  11.524   0.795   6.414  2.0358  1.3733 -0.8534
17854SOL     OW60422   7.936   1.948   5.057  0.1880 -0.2311 -0.2122
17854SOL    HW160423   7.969   2.031   5.022 -0.7193 -0.6242 -2.1431
17854SOL    HW260424   7.841   1.957   5.054  0.0027 -0.0649  2.9018
17855SOL     OW60425   7.739  11.638   2.102  0.2698  0.1617 -0.0536
17855SOL    HW160426   7.819  11.677   2.067  0.6824  0.5990  1.3416
17855SOL    HW260427   7.735  11.667   2.193 -1.6857  0.4693 -0.1939
17856SOL     OW60428   9.572   1.522   1.006  0.0068  0.4931 -0.6382
17856SOL    HW160429   9.609   1.472   0.934  0.4622  0.4972 -0.4128
17856SOL    HW260430   9.642   1.524   1.072 -0.8169 -0.5621  0.3128
17857SOL     OW60431  10.243   2.087   0.502 -0.2820 -0.2734  0.3169
17857SOL    HW160432  10.149   2.068   0.496 -0.5883  1.3019 -0.1095
17857SOL    HW260433  10.255   2.167   0.452  1.5297 -1.1432 -0.7469
17858SOL     OW60434  11.914   5.071   9.558 -0.1982  0.0833 -0.3631
17858SOL    HW160435  11.971   5.138   9.519  0.8849 -1.1861 -1.0793
17858SOL    HW260436  11.974   4.999   9.580 -1.5578 -1.6081 -1.7852
17859SOL     OW60437   7.762   7.541   2.238 -0.1071  0.7646  0.5384
17859SOL    HW160438   7.785   7.627   2.272  0.4255  0.0513  2.0609
17859SOL    HW260439   7.844   7.506   2.202 -0.3834  0.9908 -0.3367
17860SOL     OW60440   8.307   9.341   8.166  0.1875 -0.1186 -0.0428
17860SOL    HW160441   8.239   9.405   8.148 -0.7090 -0.7632  0.8916
17860SOL    HW260442   8.356   9.378   8.239  0.4093  0.0238 -0.2615
17861SOL     OW60443   1.840   7.458   9.029 -0.3789  0.4197  0.0010
17861SOL    HW160444   1.904   7.389   9.048 -1.7544 -0.5613  1.3335
17861SOL    HW260445   1.757   7.412   9.018 -1.3824  1.8405  1.1367
17862SOL     OW60446   1.726   5.877   4.395 -0.5345  0.2429  0.1732
17862SOL    HW160447   1.735   5.796   4.344  0.6316 -0.0517  0.8109
17862SOL    HW260448   1.715   5.946   4.330 -1.8839 -0.4515 -0.3736
17863SOL     OW60449   9.660   7.747   3.347 -0.3718  0.2839  0.2795
17863SOL    HW160450   9.622   7.835   3.343  1.4257  1.1298  0.3910
17863SOL    HW260451   9.732   7.750   3.284  0.1917 -0.8555  0.8476
17864SOL     OW60452   0.168   2.602   1.735 -0.0438 -0.7366 -0.4214
17864SOL    HW160453   0.174   2.518   1.689 -0.9222 -0.7355 -0.5626
17864SOL    HW260454   0.099   2.589   1.800  1.5586 -0.9002  1.2987
17865SOL     OW60455   1.082   6.551  11.712  0.3417 -0.4229  0.0466
17865SOL    HW160456   1.027   6.473  11.721 -0.8297 -0.2473 -3.6913
17865SOL    HW260457   1.167   6.517  11.682  0.9848 -0.4041  1.7367
17866SOL     OW60458   0.272   9.052   2.039  0.5564  0.0414 -0.1686
17866SOL    HW160459   0.218   9.085   2.112 -1.1666  1.5584 -2.0010
17866SOL    HW260460   0.261   8.957   2.043 -0.1075  0.1382  1.0855
17867SOL     OW60461   3.292   9.897  10.077 -0.4887 -0.2484 -0.2746
17867SOL    HW160462   3.220   9.942  10.032 -0.7724 -0.3810  0.0383
17867SOL    HW260463   3.307   9.948  10.156 -2.2178 -1.7890  1.1696
17868SOL     OW60464   7.118   6.549   5.806  0.4339  0.3959  0.2918
17868SOL    HW160465   7.027   6.528   5.789  0.2455  0.4355  1.2018
17868SOL    HW260466   7.161   6.464   5.815  0.2658  0.3684  0.9279
17869SOL     OW60467  10.867   4.660   3.773  0.4170 -0.0935 -0.3392
17869SOL    HW160468  10.903   4.745   3.800  1.1631 -0.2276 -0.8782
17869SOL    HW260469  10.848   4.672   3.680 -0.7477 -0.0984 -0.1174
17870SOL     OW60470   5.832   7.146   5.107  0.4369  0.2321  0.0472
17870SOL    HW160471   5.856   7.056   5.127  1.2292  0.5055  0.3604
17870SOL    HW260472   5.752   7.138   5.055 -0.0607 -0.6053  0.9044
17871SOL     OW60473   9.982   3.159   2.564 -0.0597  0.5815  0.1125
17871SOL    HW160474   9.911   3.218   2.539 -0.3677  0.0744 -0.2331
17871SOL    HW260475  10.061   3.212   2.557  0.1566 -0.0275 -3.9382
17872SOL     OW60476   4.647   6.891   1.028  0.5093  0.4359 -0.3739
17872SOL    HW160477   4.615   6.827   0.965  1.1542  1.1032 -1.4113
17872SOL    HW260478   4.634   6.850   1.113 -1.5323  0.0077 -0.8384
17873SOL     OW60479   3.004   9.934   3.415 -0.1128  0.1540  0.4607
17873SOL    HW160480   3.078   9.899   3.366 -0.5571  1.0401 -0.9223
17873SOL    HW260481   3.031   9.930   3.506  1.3816 -0.1269  0.0302
17874SOL     OW60482   0.182   3.435   9.953 -0.6744 -0.6218  0.1584
17874SOL    HW160483   0.233   3.367   9.997 -1.6248 -0.9482  0.7854
17874SOL    HW260484   0.205   3.426   9.860  1.6488  0.3194  0.5792
17875SOL     OW60485  12.270   3.554  11.102 -0.1095  0.3904  0.3346
17875SOL    HW160486  12.203   3.512  11.047  1.1496 -0.1872 -0.8070
17875SOL    HW260487  12.352   3.539  11.055  0.9706  0.2037  2.2029
17876SOL     OW60488   2.739   6.213   5.601  0.3702 -0.4557  0.7387
17876SOL    HW160489   2.731   6.199   5.696 -1.3119  0.0511  0.7031
17876SOL    HW260490   2.656   6.253   5.576  1.3948  0.8726 -0.7002
17877SOL     OW60491   1.893   0.873  12.101  0.6252 -0.4071 -0.6391
17877SOL    HW160492   1.808   0.834  12.122 -0.0492 -0.0896 -2.5729
17877SOL    HW260493   1.924   0.824  12.025  1.3661  0.5608 -0.9861
17878SOL     OW60494   0.039   9.217   9.757  0.0607  0.0848 -0.0321
17878SOL    HW160495  -0.010   9.194   9.836  2.3781 -0.8885  1.2158
17878SOL    HW260496   0.099   9.285   9.785  0.7020 -0.0455 -1.0445
17879SOL     OW60497   6.953   7.223  12.056  0.1297  0.3348 -0.3777
17879SOL    HW160498   6.920   7.313  12.053  0.0360  0.3694  1.0185
17879SOL    HW260499   7.007   7.220  12.135  2.5632 -0.0518 -1.9336
17880SOL     OW60500   2.968  10.540   0.088  0.1092  0.0302 -0.0056
17880SOL    HW160501   2.937  10.554  -0.001 -3.1842 -0.7689  0.8592
17880SOL    HW260502   2.904  10.586   0.143  0.7753 -1.2858  1.9938
17881SOL     OW60503   3.775   7.957   6.202  0.3992 -0.1721 -0.0054
17881SOL    HW160504   3.776   8.052   6.209  0.6493 -0.0069 -1.8238
17881SOL    HW260505   3.820   7.927   6.281 -0.4895  1.1617  1.0542
17882SOL     OW60506   1.723   7.854   3.360 -0.8395  0.5230 -0.1405
17882SOL    HW160507   1.721   7.814   3.273 -2.0522 -0.2124  0.2104
17882SOL    HW260508   1.632   7.881   3.376 -0.4815  1.3392  0.5906
17883SOL     OW60509  11.073   4.980   7.151  0.1766 -0.4883  0.1576
17883SOL    HW160510  10.996   5.004   7.100 -0.0242 -1.8363 -0.2034
17883SOL    HW260511  11.146   5.023   7.106 -0.1741 -0.4922 -0.4256
17884SOL     OW60512   8.754  10.174   9.969 -0.0170 -0.2612 -0.0359
17884SOL    HW160513   8.824  10.137  10.022 -0.1043 -1.3432 -0.6534
17884SOL    HW260514   8.674  10.153  10.017 -0.0570 -0.7773 -0.3239
17885SOL     OW60515   5.727   9.931   7.002  0.3372  0.2413  0.1425
17885SOL    HW160516   5.756   9.913   7.092 -1.3903 -0.1811  0.6591
17885SOL    HW260517   5.632   9.924   7.006  0.2496 -0.4102 -1.8604
17886SOL     OW60518   1.073   2.310   3.318  0.2554 -0.4302 -0.2497
17886SOL    HW160519   1.076   2.332   3.411 -0.3164 -0.3834 -0.2427
17886SOL    HW260520   1.152   2.257   3.303  1.7118  1.6470 -0.2937
17887SOL     OW60521   8.651   2.899   8.715 -0.1579 -0.3385  0.1008
17887SOL    HW160522   8.612   2.984   8.694 -1.0069 -0.8006 -0.2443
17887SOL    HW260523   8.593   2.862   8.781  0.4901 -0.4506  0.6218
17888SOL     OW60524  11.930   5.830   2.814  0.7612 -1.0793 -0.3929
17888SOL    HW160525  11.891   5.908   2.853  1.6219 -0.3630 -0.9300
17888SOL    HW260526  11.875   5.812   2.737  0.6054 -0.9549 -0.3109
17889SOL     OW60527   1.789   5.544   5.849 -0.5985  0.1616 -0.1310
17889SOL    HW160528   1.845   5.615   5.818 -0.1967 -0.2783 -0.4383
17889SOL    HW260529   1.849   5.479   5.885 -1.0096  0.3001  0.8453
17890SOL     OW60530   1.811   7.146   3.270  0.3241 -0.4121  0.1627
17890SOL    HW160531   1.878   7.174   3.333 -0.6041 -0.8342  1.3655
17890SOL    HW260532   1.739   7.208   3.283  1.2514  1.4750 -2.7043
17891SOL     OW60533  11.458   5.223  10.997  0.1824 -0.5475 -0.0929
17891SOL    HW160534  11.388   5.161  11.018  0.2079 -0.6570 -0.3277
17891SOL    HW260535  11.538   5.171  11.004  0.1968 -0.5631 -0.3779
17892SOL     OW60536   6.525   1.406   2.591  0.0039  0.0310 -0.0095
17892SOL    HW160537   6.567   1.328   2.628 -1.1193 -1.4157 -1.6576
17892SOL    HW260538   6.557   1.478   2.645  1.0036 -1.5706  1.6404
17893SOL     OW60539   1.582   5.204   4.886 -0.0883  0.3583  0.1877
17893SOL    HW160540   1.624   5.160   4.960  0.3042  1.3506  0.5616
17893SOL    HW260541   1.583   5.139   4.816  0.7756 -0.1177  0.6344
17894SOL     OW60542  12.045   4.771   6.647 -0.1782  0.1433  0.6929
17894SOL    HW160543  12.095   4.841   6.606  1.0093 -0.7696  0.5175
17894SOL    HW260544  12.080   4.765   6.736  1.1354 -1.4906  0.1123
17895SOL     OW60545   2.267   9.639   4.817 -0.6435  0.5464  0.1656
17895SOL    HW160546   2.209   9.712   4.798 -1.0636 -0.5016 -3.0788
17895SOL    HW260547   2.218   9.561   4.791  1.4973 -0.5134 -0.9669
17896SOL     OW60548   2.071   0.150   1.478 -0.2941 -0.1279 -0.0103
17896SOL    HW160549   2.114   0.196   1.406 -0.2233 -0.9342 -0.4947
17896SOL    HW260550   2.067   0.214   1.549 -0.2758  0.6447 -0.6978
17897SOL     OW60551   3.585   3.610  11.570 -0.2191 -0.2896  0.1067
17897SOL    HW160552   3.528   3.624  11.494 -0.0863 -0.6287 -0.0542
17897SOL    HW260553   3.655   3.674  11.558  0.2029 -0.8429 -0.4549
17898SOL     OW60554   5.396   5.444   8.711  0.7256  0.1548  0.4448
17898SOL    HW160555   5.427   5.521   8.663  2.0505  0.0995  1.1806
17898SOL    HW260556   5.428   5.369   8.660 -2.3227 -0.0567 -1.4661
17899SOL     OW60557   3.489   8.240   4.544  0.5959 -0.5554  0.3685
17899SOL    HW160558   3.450   8.162   4.583  0.4776 -0.5905  0.1801
17899SOL    HW260559   3.578   8.242   4.580  0.7511 -1.0290  0.0275
17900SOL     OW60560   3.595   0.646  10.407 -0.0452  0.7398 -0.0703
17900SOL    HW160561   3.639   0.690  10.480  0.2792  0.1796  0.0816
17900SOL    HW260562   3.608   0.705  10.332 -0.0722  1.1471  0.2447
17901SOL     OW60563   7.252   6.284   4.473 -0.0021 -0.0873 -0.7936
17901SOL    HW160564   7.215   6.351   4.417 -0.5437  0.9345  0.7241
17901SOL    HW260565   7.251   6.323   4.561  2.8537 -0.7754 -0.3817
17902SOL     OW60566   6.967   5.964   7.013  0.0959 -0.1007 -0.1685
17902SOL    HW160567   6.937   5.936   6.927 -0.4433  1.0969 -0.3803
17902SOL    HW260568   7.000   5.884   7.054 -1.8568 -1.1540 -0.5480
17903SOL     OW60569   1.674   0.243   0.017 -0.0843 -0.1064  0.2485
17903SOL    HW160570   1.592   0.291   0.004  0.0824  1.6451  4.1976
17903SOL    HW260571   1.743   0.306  -0.005  0.2637 -0.9435 -1.2051
17904SOL     OW60572   4.233   5.933   9.976 -0.4328 -0.2589 -0.0181
17904SOL    HW160573   4.163   5.885   9.933 -0.6605  0.3905 -0.3806
17904SOL    HW260574   4.191   5.975  10.051 -0.5758  0.6563 -0.6042
17905SOL     OW60575  11.090   3.658  11.586  0.1241  0.3803 -0.1683
17905SOL    HW160576  11.125   3.662  11.497  0.2477 -1.4554 -0.2407
17905SOL    HW260577  10.999   3.685  11.576  0.1765  0.3460 -0.8275
17906SOL     OW60578   3.139  11.526   7.083  0.3744 -0.6496 -0.0958
17906SOL    HW160579   3.115  11.612   7.049  1.4711 -0.6565 -0.9833
17906SOL    HW260580   3.194  11.545   7.159  0.1475 -0.5718  0.0477
17907SOL     OW60581   1.498   5.601   4.366 -0.0919  0.5018  0.4045
17907SOL    HW160582   1.425   5.538   4.362 -0.8826  1.4017  0.2175
17907SOL    HW260583   1.501   5.628   4.458 -0.3781  0.8869  0.3051
17908SOL     OW60584   0.090   4.214   3.197  0.1824 -0.1596  0.4595
17908SOL    HW160585   0.083   4.216   3.292 -2.5116  0.7264  0.3371
17908SOL    HW260586   0.029   4.282   3.167 -0.0394 -1.2899 -1.9281
17909SOL     OW60587  11.446   2.349   0.665 -0.1573  0.2281 -0.5813
17909SOL    HW160588  11.401   2.385   0.741  0.5110 -0.3439  0.0993
17909SOL    HW260589  11.375   2.330   0.603 -0.8258 -0.2901  0.3123
17910SOL     OW60590   2.631   3.582   4.534 -0.1872 -0.3280 -0.3189
17910SOL    HW160591   2.720   3.617   4.542  0.2884 -1.1707 -1.5971
17910SOL    HW260592   2.575   3.659   4.537  0.3763  0.0909  2.6309
17911SOL     OW60593   4.290   0.401   2.047 -0.0592  0.3045  0.5883
17911SOL    HW160594   4.351   0.360   2.109  0.8633 -0.8161 -0.9859
17911SOL    HW260595   4.338   0.475   2.011  2.2483 -2.7667 -3.5981
17912SOL     OW60596   6.847   0.514   0.573 -0.7576 -0.0470 -0.1936
17912SOL    HW160597   6.895   0.435   0.547  0.6627  0.2489  1.4255
17912SOL    HW260598   6.758   0.499   0.540 -0.3927 -2.0893 -0.3753
17913SOL     OW60599  12.122  10.767   0.687  0.3663 -0.7484 -0.1049
17913SOL    HW160600  12.059  10.804   0.749 -0.5304 -0.3762 -1.2003
17913SOL    HW260601  12.121  10.673   0.706 -1.0526 -0.8474 -0.5428
17914SOL     OW60602   6.496   6.462   4.251 -0.3673 -0.4549  0.3712
17914SOL    HW160603   6.543   6.383   4.225  0.5631 -0.0536  0.8017
17914SOL    HW260604   6.519   6.475   4.343  1.1826  1.4504 -0.2205
17915SOL     OW60605   0.970   8.357  11.916 -0.4095  0.4949 -0.0900
17915SOL    HW160606   0.948   8.447  11.894  1.6095  1.1369  0.3262
17915SOL    HW260607   1.065   8.356  11.923 -0.4293 -1.5033  0.6596
17916SOL     OW60608  10.936   5.999   2.725 -0.0797  0.3865  0.1782
17916SOL    HW160609  10.872   6.069   2.711  0.5362  0.9710  0.2646
17916SOL    HW260610  10.971   6.015   2.812 -0.9676 -0.8808  0.8037
17917SOL     OW60611   1.733   4.718   2.233  0.1514  0.3156  0.1089
17917SOL    HW160612   1.669   4.773   2.279 -0.3500  1.1528 -1.5039
17917SOL    HW260613   1.708   4.628   2.256 -0.4993  0.6823  0.9007
17918SOL     OW60614   2.663   9.359   0.479  0.2500  0.7206  0.2906
17918SOL    HW160615   2.683   9.417   0.406  0.4789 -0.9304 -1.0147
17918SOL    HW260616   2.680   9.412   0.557  2.6512  1.7256 -0.8055
17919SOL     OW60617   0.542   4.680   6.117  0.3393 -0.4270  0.7579
17919SOL    HW160618   0.467   4.625   6.136 -0.6830  0.4478 -0.5715
17919SOL    HW260619   0.613   4.619   6.097 -0.7422 -1.2780 -0.6055
17920SOL     OW60620   0.430   3.926   6.394 -0.5202 -0.6309 -0.1209
17920SOL    HW160621   0.354   3.868   6.387 -0.1395 -1.2019  0.4219
17920SOL    HW260622   0.504   3.871   6.371 -0.2017 -0.2385 -0.0410
17921SOL     OW60623   0.657   9.836   2.115  0.0510  0.0649  0.0473
17921SOL    HW160624   0.694   9.772   2.055 -0.5440 -0.3237  0.0814
17921SOL    HW260625   0.562   9.831   2.100 -0.0170  0.7854  0.1997
17922SOL     OW60626   5.531  10.557   8.646  0.3881 -0.3028  0.0104
17922SOL    HW160627   5.573  10.609   8.578 -2.4867  2.1976 -0.0924
17922SOL    HW260628   5.510  10.473   8.604  2.3435 -0.4078 -0.8338
17923SOL     OW60629   4.827  10.911   0.947  0.8593 -0.0610  0.2261
17923SOL    HW160630   4.754  10.957   0.990  1.2976 -0.0348  0.9538
17923SOL    HW260631   4.903  10.930   1.003  1.2928 -0.6224 -0.1734
17924SOL     OW60632   3.429   2.918   2.841 -0.0271  0.0190 -0.5949
17924SOL    HW160633   3.457   2.838   2.797 -0.8167 -0.0779 -0.9406
17924SOL    HW260634   3.424   2.983   2.770  1.0095  0.4946 -0.2543
17925SOL     OW60635   9.162  11.395   3.023 -0.0891  0.1054  0.1702
17925SOL    HW160636   9.203  11.471   3.066  1.6768  0.3780 -1.8399
17925SOL    HW260637   9.085  11.431   2.980  0.1758  0.5770  0.0748
17926SOL     OW60638   1.595   4.311   3.840 -0.1256  0.1525 -0.1113
17926SOL    HW160639   1.653   4.337   3.768  1.8089 -0.7865  1.0110
17926SOL    HW260640   1.507   4.322   3.806  0.7184  0.7101 -2.2597
17927SOL     OW60641   1.849   9.797   5.986  0.0592 -0.0923  0.1231
17927SOL    HW160642   1.935   9.835   6.004  0.2705 -0.8118  0.7183
17927SOL    HW260643   1.805   9.795   6.071  0.3124 -1.7374  0.2639
17928SOL     OW60644   9.851   0.580  11.400 -0.1310  0.3756  0.2149
17928SOL    HW160645   9.902   0.649  11.356  0.0304 -0.1500 -0.4393
17928SOL    HW260646   9.917   0.517  11.429 -0.3141  0.3009  0.4758
17929SOL     OW60647   8.325   4.368   9.275  0.2247  0.1011 -0.2297
17929SOL    HW160648   8.405   4.419   9.290  1.2607 -1.5016 -0.1170
17929SOL    HW260649   8.355   4.289   9.231 -1.3099 -0.5396 -0.1786
17930SOL     OW60650   0.908   2.509   3.875 -0.7673  0.3043  0.1515
17930SOL    HW160651   0.874   2.561   3.948  1.1846  0.4054  1.0291
17930SOL    HW260652   0.888   2.418   3.900 -0.9074  0.3947  0.3765
17931SOL     OW60653   8.992   4.274   2.477  0.2505 -0.0900  0.3134
17931SOL    HW160654   8.997   4.350   2.419 -0.7057 -0.7545 -0.6752
17931SOL    HW260655   9.077   4.232   2.470  0.9723  1.1561  1.2738
17932SOL     OW60656   4.454   7.277   3.541  0.2210 -0.8686 -0.4358
17932SOL    HW160657   4.377   7.262   3.595 -0.7439 -2.4464 -2.1335
17932SOL    HW260658   4.422   7.328   3.467  1.1828 -0.0913 -0.3337
17933SOL     OW60659  11.128   1.920   2.293 -0.2618 -0.3102 -0.0513
17933SOL    HW160660  11.145   1.833   2.257 -1.6969 -0.6181 -0.0765
17933SOL    HW260661  11.036   1.916   2.320  0.0404  0.7549  1.2265
17934SOL     OW60662   6.324   4.402  12.434  0.2484 -0.4768 -0.0928
17934SOL    HW160663   6.409   4.360  12.449  0.7147 -0.4752 -2.3732
17934SOL    HW260664   6.340   4.464  12.363 -1.5135  0.0473 -0.0782
17935SOL     OW60665   6.157   1.431   8.585  0.5650 -0.6133  0.1977
17935SOL    HW160666   6.159   1.375   8.507 -0.6414  1.9163 -1.8512
17935SOL    HW260667   6.141   1.519   8.550  0.8992  0.8166  3.2933
17936SOL     OW60668   2.457   4.542   7.005  0.2269 -0.3435  0.3732
17936SOL    HW160669   2.420   4.457   7.027 -0.2990 -0.3878 -0.6291
17936SOL    HW260670   2.411   4.604   7.063 -0.0985 -0.6229  0.4161
17937SOL     OW60671   8.909   8.551   1.050 -0.5652  0.1104 -0.4582
17937SOL    HW160672   8.996   8.528   1.017 -0.9879 -0.0250 -1.5467
17937SOL    HW260673   8.903   8.646   1.037 -0.2306  0.2716  0.5135
17938SOL     OW60674   0.097   9.134   9.483  0.1769 -0.0644  0.2439
17938SOL    HW160675   0.187   9.163   9.491  0.0605  0.3127  0.1836
17938SOL    HW260676   0.061   9.140   9.571 -0.3341  1.5779 -0.0525
17939SOL     OW60677   7.633   2.459   3.694  0.1570 -0.2178 -0.2044
17939SOL    HW160678   7.604   2.438   3.605  0.2736 -0.2877 -0.2250
17939SOL    HW260679   7.728   2.467   3.688  0.2765 -1.2756  0.1285
17940SOL     OW60680  11.958   8.887   5.686 -0.8294 -0.3087  0.4181
17940SOL    HW160681  12.051   8.877   5.666 -1.0422  0.6276 -1.1768
17940SOL    HW260682  11.956   8.908   5.780  0.8073  2.2209 -0.0163
17941SOL     OW60683   4.804   3.756   7.679  0.1169 -0.1675 -0.0472
17941SOL    HW160684   4.846   3.816   7.742  0.1158  0.9272 -1.0497
17941SOL    HW260685   4.738   3.710   7.730  0.0888  0.7285  0.7479
17942SOL     OW60686   7.751   4.844   4.793 -0.0794 -0.1868  0.0005
17942SOL    HW160687   7.732   4.804   4.879 -0.3107 -1.2216 -0.5113
17942SOL    HW260688   7.812   4.782   4.752  0.9865  0.9108 -0.1178
17943SOL     OW60689   7.764   8.175   1.262  0.2989  0.2024  0.2050
17943SOL    HW160690   7.736   8.234   1.192  1.1297 -0.2681 -0.5467
17943SOL    HW260691   7.858   8.188   1.269  0.2562  0.0800  1.0991
17944SOL     OW60692   2.100   7.695   7.424 -0.4437  0.2010  0.2538
17944SOL    HW160693   2.173   7.749   7.453  0.2179  1.4248 -3.2032
17944SOL    HW260694   2.025   7.756   7.422  0.1090  0.9588 -2.7930
17945SOL     OW60695   3.939   9.488   9.650  0.1853  0.7856 -0.0429
17945SOL    HW160696   4.029   9.509   9.627  0.3343 -0.1594 -0.3687
17945SOL    HW260697   3.945   9.441   9.733 -0.1042  1.6417  0.4712
17946SOL     OW60698   4.213   3.116   3.226  0.0081 -0.5340 -0.5681
17946SOL    HW160699   4.304   3.126   3.199 -0.1620  2.5745 -0.3519
17946SOL    HW260700   4.168   3.082   3.149  0.9104  0.5088 -1.5755
17947SOL     OW60701  10.591  10.839   6.759 -0.2764  0.2742  0.2564
17947SOL    HW160702  10.626  10.784   6.689 -2.7672  1.1587 -1.8360
17947SOL    HW260703  10.617  10.795   6.840  1.1952 -1.7650 -1.2267
17948SOL     OW60704  10.163   4.770  10.523 -0.0081 -0.0385 -0.2237
17948SOL    HW160705  10.160   4.763  10.428  0.2119  0.7132 -0.2894
17948SOL    HW260706  10.253   4.748  10.547 -0.2826 -1.1231 -0.0965
17949SOL     OW60707   0.255   5.522   4.504  0.2417  0.8381 -0.0750
17949SOL    HW160708   0.213   5.550   4.423  0.3805 -0.0679 -0.4707
17949SOL    HW260709   0.243   5.427   4.506 -1.0621  0.9861  1.7063
17950SOL     OW60710   5.257   9.718   6.848  0.3329  0.4167 -0.6183
17950SOL    HW160711   5.345   9.728   6.810  1.1657  4.6879  1.7948
17950SOL    HW260712   5.208   9.793   6.815 -0.5491  1.2719  2.3539
17951SOL     OW60713   3.877   4.719   2.716 -0.4587  0.2123  0.1356
17951SOL    HW160714   3.790   4.708   2.755 -0.2439  1.0413  0.8820
17951SOL    HW260715   3.918   4.789   2.768 -0.4035  1.8694 -2.0036
17952SOL     OW60716   9.746  10.798   0.150  0.2336  0.3309  0.0300
17952SOL    HW160717   9.718  10.858   0.081 -0.4279  0.2526  0.2213
17952SOL    HW260718   9.754  10.713   0.106 -3.4433 -0.4799  0.6359
17953SOL     OW60719   7.698   2.570   0.691 -0.3549  0.2389 -0.3743
17953SOL    HW160720   7.765   2.510   0.658 -0.0983  0.2353  0.1428
17953SOL    HW260721   7.633   2.574   0.621 -0.0025 -0.0559 -0.7229
17954SOL     OW60722   2.124   2.604   0.973  0.0061 -0.1680 -0.3114
17954SOL    HW160723   2.050   2.659   0.948  0.1281  0.6776  1.1247
17954SOL    HW260724   2.086   2.538   1.031  0.4676  0.6789  0.9809
17955SOL     OW60725  11.749   1.569   8.742 -0.4760 -0.2646  0.1277
17955SOL    HW160726  11.715   1.502   8.683  1.9531 -0.9397 -0.6247
17955SOL    HW260727  11.816   1.614   8.691  1.8237 -0.9562  2.3336
17956SOL     OW60728  11.093   7.549   7.532 -0.2281 -0.0296  0.5487
17956SOL    HW160729  11.142   7.612   7.584  0.0308 -0.2751  0.6010
17956SOL    HW260730  11.120   7.463   7.565  0.2012 -0.1991 -0.2262
17957SOL     OW60731   8.062   1.859   9.147 -0.1921 -0.2888 -0.4007
17957SOL    HW160732   8.045   1.767   9.124 -0.4796 -0.3712  0.1384
17957SOL    HW260733   7.985   1.886   9.197 -0.0209  0.1936 -0.3964
17958SOL     OW60734   9.765  10.580   5.043  0.3195  0.3649  0.4756
17958SOL    HW160735   9.730  10.490   5.036  0.1074  0.5457 -1.1979
17958SOL    HW260736   9.776  10.593   5.137  0.9466 -1.6435  0.7430
17959SOL     OW60737   1.416   7.297   3.938  0.1862 -0.5663 -0.1661
17959SOL    HW160738   1.408   7.246   3.857 -1.1264 -1.8639  0.7217
17959SOL    HW260739   1.452   7.381   3.910 -0.2140 -0.9805 -2.0868
17960SOL     OW60740   4.567   9.167   2.319  0.4364 -0.0853 -0.1842
17960SOL    HW160741   4.561   9.146   2.412  1.6527  0.7075  0.1056
17960SOL    HW260742   4.496   9.119   2.278 -0.7374  0.3348  1.2883
17961SOL     OW60743  10.640   8.324   5.023 -0.2475 -0.2744  0.8170
17961SOL    HW160744  10.583   8.261   4.980 -1.4878  0.5965  1.1191
17961SOL    HW260745  10.722   8.320   4.974 -0.7410 -1.1901  0.0412
17962SOL     OW60746  10.705   6.420   2.382 -0.4785  0.0702  0.2307
17962SOL    HW160747  10.652   6.406   2.460 -0.9016 -0.4182 -0.1415
17962SOL    HW260748  10.656   6.484   2.330  0.3894  1.3257  0.9131
17963SOL     OW60749   7.255  11.646   3.669 -0.1655  0.0459 -0.1532
17963SOL    HW160750   7.301  11.575   3.623  1.1224 -0.1227  1.3025
17963SOL    HW260751   7.235  11.609   3.755 -0.4425  1.1109  0.2502
17964SOL     OW60752   9.852   6.929   2.920  0.3045 -0.1240 -0.0513
17964SOL    HW160753   9.926   6.942   2.861  1.6118  1.6850  1.8112
17964SOL    HW260754   9.795   7.004   2.904  0.0007 -0.3260  0.0693
17965SOL     OW60755   5.471   7.363   6.082 -0.3064 -0.1032  0.0076
17965SOL    HW160756   5.562   7.394   6.085  0.3665 -1.6598 -2.1665
17965SOL    HW260757   5.428   7.422   6.020 -0.9450  0.8987  1.3548
17966SOL     OW60758   0.247  12.022   9.594  0.2283  0.1439 -0.2323
17966SOL    HW160759   0.234  12.111   9.561 -1.3177 -0.6779 -2.0042
17966SOL    HW260760   0.337  12.000   9.568 -0.4897  0.0185 -2.9125
17967SOL     OW60761   1.990   8.455   5.409 -0.5086  0.4422 -0.5870
17967SOL    HW160762   2.030   8.420   5.489 -0.4679 -0.5739 -1.0314
17967SOL    HW260763   1.916   8.507   5.441 -0.9539 -0.5652  0.1056
17968SOL     OW60764   1.534   2.776  11.341  0.4511 -0.4911  0.4221
17968SOL    HW160765   1.602   2.712  11.324  1.0444  0.5874 -1.5136
17968SOL    HW260766   1.550   2.804  11.432  2.7584 -0.1014 -0.0381
17969SOL     OW60767   9.409   7.764  11.964  0.3602 -0.0530  0.0857
17969SOL    HW160768   9.483   7.753  12.022 -0.7763  0.1331  1.6244
17969SOL    HW260769   9.385   7.675  11.939 -0.9451 -0.3947  2.3112
17970SOL     OW60770   5.420   2.461   0.166 -0.1571 -0.1679  0.2247
17970SOL    HW160771   5.481   2.388   0.161 -0.0071 -0.2550  2.4827
17970SOL    HW260772   5.475   2.539   0.167 -0.3348  0.2371 -3.5973
17971SOL     OW60773   0.934   7.126   1.625 -0.4198  0.7522 -0.4108
17971SOL    HW160774   0.909   7.109   1.535 -0.9415  1.0893 -0.3376
17971SOL    HW260775   0.891   7.209   1.646  0.1695  0.9717 -0.0367
17972SOL     OW60776   7.922   0.630   6.120  0.6002  1.0063 -0.8019
17972SOL    HW160777   7.846   0.672   6.079  0.0281 -0.0954 -0.9189
17972SOL    HW260778   7.997   0.664   6.072 -0.1137 -1.3052 -3.8852
17973SOL     OW60779  11.584   1.520   3.185  0.1449  0.2440  0.3738
17973SOL    HW160780  11.497   1.480   3.188  0.7062 -1.0312  0.5652
17973SOL    HW260781  11.593   1.553   3.096 -0.5140  0.3418  0.3414
17974SOL     OW60782   2.936   3.760  10.656  0.2522  0.1323 -0.1531
17974SOL    HW160783   2.906   3.774  10.566  1.5466 -1.6696 -0.9156
17974SOL    HW260784   2.890   3.827  10.707  1.8122  3.3017 -2.5759
17975SOL     OW60785   6.534   8.880   5.373  0.0279 -0.3152  0.1588
17975SOL    HW160786   6.529   8.968   5.335  1.0383 -0.9225 -1.4426
17975SOL    HW260787   6.577   8.894   5.458  3.4430  0.3916 -1.5200
17976SOL     OW60788   1.153   9.039   5.130  0.0143 -0.2048  0.8911
17976SOL    HW160789   1.239   9.080   5.124 -0.5192  0.8806  0.2249
17976SOL    HW260790   1.162   8.957   5.081  1.1070 -0.9221  2.2589
17977SOL     OW60791   1.078  11.661   3.830 -0.3438 -0.6851  0.3536
17977SOL    HW160792   1.111  11.607   3.759 -0.2985 -0.4374  0.1858
17977SOL    HW260793   1.120  11.626   3.909 -1.7381 -2.1042  0.5139
17978SOL     OW60794   5.790   2.998   7.297  0.1043  0.5839 -0.0037
17978SOL    HW160795   5.788   3.091   7.277  1.5787  0.7580  0.5461
17978SOL    HW260796   5.880   2.972   7.279 -0.3313 -0.7844 -0.3242
17979SOL     OW60797  10.415  12.085   1.581  0.2602  0.8197 -0.2884
17979SOL    HW160798  10.383  12.111   1.495  1.2739  0.3843 -0.8125
17979SOL    HW260799  10.495  12.135   1.594  0.5206  0.3249  0.0683
17980SOL     OW60800   5.131   2.221   5.392  0.1333  0.4447  0.0154
17980SOL    HW160801   5.151   2.179   5.308  0.6007  0.9043 -0.1056
17980SOL    HW260802   5.215   2.223   5.438  0.3556  2.1648 -0.3994
17981SOL     OW60803   3.733   7.020   5.511  0.8906 -0.0969  0.8162
17981SOL    HW160804   3.714   6.943   5.564 -2.3813  0.5275  0.7304
17981SOL    HW260805   3.695   7.093   5.560  1.5880  1.1057 -0.3654
17982SOL     OW60806   5.852   7.928  10.501  0.4219  0.1264  0.0708
17982SOL    HW160807   5.909   7.878  10.443  0.0690 -0.4112  0.1837
17982SOL    HW260808   5.814   7.863  10.560  0.7271  0.6587  0.8664
17983SOL     OW60809  11.203   1.967   1.424  0.6910  0.2322 -0.5739
17983SOL    HW160810  11.247   1.923   1.351  1.1637  0.5575 -0.4910
17983SOL    HW260811  11.258   1.947   1.500  0.5070  0.3546 -0.4075
17984SOL     OW60812   4.258  10.294  10.758 -0.4771  0.4177 -0.3879
17984SOL    HW160813   4.255  10.305  10.853 -1.5424 -1.1423 -0.2027
17984SOL    HW260814   4.317  10.219  10.746 -0.6563  0.3634 -0.9214
17985SOL     OW60815   1.905   8.882  11.359 -0.0096  0.6750  0.6157
17985SOL    HW160816   1.913   8.791  11.329 -0.8782  0.5067  0.8763
17985SOL    HW260817   1.932   8.880  11.450 -0.4635  0.5903  0.7504
17986SOL     OW60818  10.454  10.534   3.872 -0.2633  0.3116  0.3309
17986SOL    HW160819  10.414  10.450   3.894 -0.4702  0.7678  1.8121
17986SOL    HW260820  10.388  10.599   3.896 -1.0896  0.9024 -2.9610
17987SOL     OW60821   8.846   0.094   7.457  0.0143  0.4418  0.2030
17987SOL    HW160822   8.833   0.188   7.469 -3.0614  0.2853 -0.9785
17987SOL    HW260823   8.839   0.081   7.362  2.5360 -0.7824  0.1198
17988SOL     OW60824   6.586   1.792  11.136  0.2939  0.1532 -0.0336
17988SOL    HW160825   6.599   1.882  11.105  0.0308  0.3456  0.4092
17988SOL    HW260826   6.642   1.785  11.214 -0.3568  0.2132  0.4468
17989SOL     OW60827   7.722   4.847  10.235  0.6345  0.0240  0.3386
17989SOL    HW160828   7.663   4.812  10.168  2.6726 -2.1648 -0.4322
17989SOL    HW260829   7.706   4.942  10.234 -2.8402 -0.4536  0.2327
17990SOL     OW60830   9.608   1.844  11.883 -0.0511  0.1473 -0.5775
17990SOL    HW160831   9.597   1.939  11.876  0.3067  0.1611 -0.9958
17990SOL    HW260832   9.520   1.808  11.872 -0.4990  0.5210  1.4250
17991SOL     OW60833   7.024   5.920   4.801  0.5373 -0.8400 -0.2410
17991SOL    HW160834   6.978   5.862   4.861  0.8685  0.4556  1.3496
17991SOL    HW260835   7.113   5.886   4.798  0.5655 -0.8159  0.1765
17992SOL     OW60836   0.578  11.155   4.543 -0.2625  0.2566  0.2844
17992SOL    HW160837   0.509  11.196   4.595 -0.3424  1.1271 -0.4916
17992SOL    HW260838   0.659  11.198   4.572 -0.4663  1.8249 -1.3055
17993SOL     OW60839  12.031  11.304   7.747  0.6573 -0.3785 -0.3221
17993SOL    HW160840  12.061  11.370   7.810  0.3455 -1.1842  0.6966
17993SOL    HW260841  12.107  11.285   7.694  0.8434  0.5555 -0.4169
17994SOL     OW60842   5.447   0.916  11.861  0.3533  0.2873 -0.9874
17994SOL    HW160843   5.471   0.877  11.945 -0.6911 -1.3775 -1.4211
17994SOL    HW260844   5.427   1.008  11.882 -2.7315 -0.7069  1.2045
17995SOL     OW60845  11.254   8.419   4.449  0.0462  0.6779 -0.1129
17995SOL    HW160846  11.310   8.478   4.499 -1.3185  0.6799  1.4893
17995SOL    HW260847  11.183   8.396   4.509 -0.6022 -0.9153 -1.4065
17996SOL     OW60848   1.769   5.402  11.811  0.2537 -0.4530 -0.9894
17996SOL    HW160849   1.763   5.352  11.893  1.7909  1.0797  0.1184
17996SOL    HW260850   1.678   5.410  11.781 -0.4140 -0.4575  0.9300
17997SOL     OW60851   7.182   2.849   8.910  0.3570  0.0988 -0.1949
17997SOL    HW160852   7.218   2.762   8.891 -1.2636 -0.5406 -0.4639
17997SOL    HW260853   7.166   2.888   8.824  0.9253  0.6244 -0.0763
17998SOL     OW60854   8.189   2.097   6.162 -0.0812 -0.8908 -0.7509
17998SOL    HW160855   8.111   2.150   6.149  1.0470  0.2537 -3.7915
17998SOL    HW260856   8.262   2.160   6.160  1.0360 -2.0240  1.0157
17999SOL     OW60857   3.942   8.143   7.830  0.0185 -0.2115 -1.4384
17999SOL    HW160858   3.923   8.093   7.910  0.9142  0.2632 -0.9072
17999SOL    HW260859   4.038   8.151   7.830 -0.1133  1.6764 -1.3826
18000SOL     OW60860   3.704   5.143  12.276  0.0754  0.2097  0.1413
18000SOL    HW160861   3.712   5.228  12.232  4.2497 -0.7941 -1.4923
18000SOL    HW260862   3.677   5.083  12.207 -1.5092 -0.0952  0.9825
18001SOL     OW60863   4.494  10.303   5.962  0.1609 -0.0888  0.0438
18001SOL    HW160864   4.464  10.220   5.926  1.9787 -1.3003  1.1870
18001SOL    HW260865   4.512  10.357   5.885  1.2443 -1.6148 -0.8255
18002SOL     OW60866   2.029   2.335   2.891 -0.2833  0.0061  0.8533
18002SOL    HW160867   2.092   2.320   2.820 -0.2949 -0.0814  0.8618
18002SOL    HW260868   2.023   2.431   2.897 -0.9080  0.0215  0.1769
18003SOL     OW60869   2.517   4.411   0.797  0.3411  0.3370 -0.2812
18003SOL    HW160870   2.513   4.421   0.892  1.7759 -0.9080 -0.0500
18003SOL    HW260871   2.570   4.485   0.767  2.1589 -0.6994  0.2307
18004SOL     OW60872   8.096  11.728   2.617  0.2005 -0.1302 -0.1782
18004SOL    HW160873   8.108  11.653   2.560 -0.0692 -0.0703 -0.3161
18004SOL    HW260874   8.012  11.713   2.660 -0.5000  0.7303 -1.2003
18005SOL     OW60875   0.807   9.991   2.678 -0.1659  0.8880 -0.2239
18005SOL    HW160876   0.831  10.063   2.736  0.9442  0.9536 -0.7485
18005SOL    HW260877   0.719  10.015   2.647 -0.2079  1.5294  0.3394
18006SOL     OW60878  10.285   6.922   6.446  0.5547 -0.2860 -0.7652
18006SOL    HW160879  10.197   6.952   6.465  0.9800  0.0992  0.7343
18006SOL    HW260880  10.336   6.945   6.524  1.9213 -0.7338 -1.4834
18007SOL     OW60881   8.866   6.156   4.385  0.0250 -0.3156  0.6654
18007SOL    HW160882   8.854   6.127   4.295 -1.1295 -0.5538  0.8807
18007SOL    HW260883   8.859   6.077   4.438  1.6234 -0.3150  0.9095
18008SOL     OW60884   5.356   9.552   2.752  0.2611 -0.0455  0.3583
18008SOL    HW160885   5.406   9.632   2.738  0.4275 -0.0855  0.7224
18008SOL    HW260886   5.268   9.582   2.775  0.1738  0.0262 -0.0612
18009SOL     OW60887   1.857  10.446   9.317 -0.7337 -0.1143 -0.1151
18009SOL    HW160888   1.910  10.367   9.311 -0.2089  0.2757 -0.8061
18009SOL    HW260889   1.783  10.429   9.259 -1.6182 -0.8235  1.1664
18010SOL     OW60890   4.517   3.751   4.513 -0.7014 -0.0627 -0.8098
18010SOL    HW160891   4.564   3.834   4.507 -1.8987  0.5483 -2.2769
18010SOL    HW260892   4.493   3.730   4.423 -0.5686 -1.9348 -0.4437
18011SOL     OW60893   9.615   2.318   6.650  0.1392 -0.1605  0.3563
18011SOL    HW160894   9.703   2.343   6.623  0.2204  0.6049  1.2408
18011SOL    HW260895   9.621   2.312   6.746 -0.6237 -0.7042  0.3784
18012SOL     OW60896  11.983  10.826   4.598  0.0791 -0.0569 -0.4056
18012SOL    HW160897  12.049  10.802   4.532 -0.1437 -1.0314 -0.2959
18012SOL    HW260898  12.018  10.793   4.680 -0.0794  0.3256 -0.1826
18013SOL     OW60899   8.101   3.691   3.461 -0.2699 -0.1589 -0.2757
18013SOL    HW160900   8.156   3.769   3.458  1.6484 -1.3296  1.9602
18013SOL    HW260901   8.025   3.717   3.514 -0.0814  0.4138 -0.2849
18014SOL     OW60902   6.358  11.370   8.779 -0.1279  0.3210  0.4456
18014SOL    HW160903   6.277  11.324   8.762 -0.5184  0.8388  0.8717
18014SOL    HW260904   6.348  11.454   8.735 -0.1805  0.7255  1.2155
18015SOL     OW60905   5.611   3.968   9.145 -0.3981  0.0184  0.0517
18015SOL    HW160906   5.534   4.025   9.142 -2.4020 -2.4832  0.8435
18015SOL    HW260907   5.609   3.920   9.063 -0.8725 -1.4545  0.8913
18016SOL     OW60908   2.544   0.152   0.107 -0.0284 -0.1057  0.3634
18016SOL    HW160909   2.577   0.173   0.019  0.6079  1.6654  0.9804
18016SOL    HW260910   2.622   0.153   0.163 -0.6019  0.2571  1.1817
18017SOL     OW60911   9.082   1.312   4.677  0.0907 -0.1438  0.3199
18017SOL    HW160912   9.009   1.254   4.655  1.2615 -1.0810 -1.3602
18017SOL    HW260913   9.064   1.341   4.766 -2.5448  0.0399 -0.2013
18018SOL     OW60914   0.199   6.979   0.543  0.2598  0.3190  0.3017
18018SOL    HW160915   0.172   7.070   0.557 -0.2560 -0.0083  1.5919
18018SOL    HW260916   0.118   6.929   0.552  0.7365 -0.3755  0.8151
18019SOL     OW60917   1.775   3.717  11.597  0.1416 -0.4232 -0.3308
18019SOL    HW160918   1.865   3.728  11.626  1.1816 -1.2001 -2.9912
18019SOL    HW260919   1.760   3.623  11.598 -0.7318 -0.2893  0.2722
18020SOL     OW60920   9.500   1.694  10.007 -0.6205  0.0120 -0.1591
18020SOL    HW160921   9.468   1.782  10.025 -1.8769 -0.1155 -1.5261
18020SOL    HW260922   9.544   1.701   9.922 -1.2615 -0.7569 -0.5827
18021SOL     OW60923  10.280   2.535   6.685 -0.4847  0.4251  0.1282
18021SOL    HW160924  10.224   2.610   6.703 -0.4782  0.3118  0.6355
18021SOL    HW260925  10.353   2.570   6.635 -0.5560  0.7284  0.2376
18022SOL     OW60926   6.756  11.013   9.589  0.3559  0.0150 -0.0198
18022SOL    HW160927   6.692  10.978   9.527  0.6297 -0.3245 -0.1133
18022SOL    HW260928   6.813  11.068   9.536  0.9635 -0.7622 -0.1901
18023SOL     OW60929   5.511   0.237   4.227  0.0991 -0.5623 -0.1283
18023SOL    HW160930   5.506   0.154   4.180 -1.1909  0.5777 -2.1345
18023SOL    HW260931   5.429   0.242   4.276 -0.8029  0.3846 -1.6460
18024SOL     OW60932   4.872  12.308   5.370 -0.4502  0.2794 -0.6494
18024SOL    HW160933   4.824  12.371   5.424 -1.0386 -1.0130  0.3981
18024SOL    HW260934   4.921  12.362   5.307  0.0918  1.8297  1.0187
18025SOL     OW60935  11.502  11.935   8.935  0.2099  0.0723 -0.4493
18025SOL    HW160936  11.533  12.022   8.959 -0.8352  0.7298 -1.3678
18025SOL    HW260937  11.408  11.946   8.923  0.0844 -1.1550 -0.6996
18026SOL     OW60938   2.480   8.906   2.894 -0.6264  0.0280 -0.2256
18026SOL    HW160939   2.410   8.861   2.847  0.0615  0.4722 -1.7156
18026SOL    HW260940   2.522   8.961   2.828  0.3156  0.7435  0.9352
18027SOL     OW60941  10.956  11.776   6.880 -0.2039 -0.2718 -0.1281
18027SOL    HW160942  10.926  11.702   6.933  0.3673 -1.5019 -1.4613
18027SOL    HW260943  11.014  11.737   6.815 -1.4790  1.0584 -2.1573
18028SOL     OW60944   4.494   8.119  11.552 -0.1888  0.2500  0.0090
18028SOL    HW160945   4.423   8.182  11.541  0.6278  1.1400 -0.3393
18028SOL    HW260946   4.454   8.046  11.600 -1.1251  1.0914  0.5540
18029SOL     OW60947   6.341   8.507   6.537  0.0658  0.1983  0.0945
18029SOL    HW160948   6.266   8.452   6.512 -0.0277  0.4947 -0.3004
18029SOL    HW260949   6.301   8.583   6.578  0.1614  0.2538  0.0848
18030SOL     OW60950  12.072   8.645   8.886  0.3291  0.0780 -0.0740
18030SOL    HW160951  12.040   8.611   8.802  1.7223  0.0830 -0.6489
18030SOL    HW260952  12.166   8.659   8.871  0.7721 -0.6777  1.7457
18031SOL     OW60953   5.314   4.570   9.499 -0.6770  0.3821  0.7046
18031SOL    HW160954   5.375   4.587   9.428 -2.2033  1.0628 -0.4876
18031SOL    HW260955   5.332   4.638   9.564 -0.4522  0.8196  0.1860
18032SOL     OW60956   3.823   7.620   3.809 -1.0372  0.3759 -0.9944
18032SOL    HW160957   3.842   7.609   3.903 -0.0147 -0.0911 -1.2428
18032SOL    HW260958   3.793   7.710   3.801 -0.5110  0.6189 -0.3135
18033SOL     OW60959   7.669   7.940   4.589 -0.0037  0.0506  0.5088
18033SOL    HW160960   7.658   7.962   4.496 -0.4817  0.6290  0.6970
18033SOL    HW260961   7.643   7.848   4.595 -1.7382  0.5035  0.3816
18034SOL     OW60962   4.009   3.534   2.744 -0.2842  0.2915  0.2038
18034SOL    HW160963   3.938   3.580   2.789  0.0819  1.7538 -0.6668
18034SOL    HW260964   3.965   3.491   2.670 -0.8429 -1.9119  1.7018
18035SOL     OW60965   5.339   7.658  12.010 -0.3141 -0.8875  0.3107
18035SOL    HW160966   5.350   7.729  11.947 -0.1864 -0.6649  0.5827
18035SOL    HW260967   5.254   7.674  12.051 -0.3911 -1.0242  0.2060
18036SOL     OW60968  11.409   4.107  11.835  0.3442  0.0685  0.2546
18036SOL    HW160969  11.453   4.028  11.868  0.3538  0.1523  0.4421
18036SOL    HW260970  11.394   4.160  11.913  0.3485  0.2579  0.1262
18037SOL     OW60971   8.750   1.611   2.432  0.1089  0.8322  0.7811
18037SOL    HW160972   8.722   1.520   2.444  0.8945  0.7498  2.3196
18037SOL    HW260973   8.727   1.632   2.342  1.6192 -1.5110 -0.2461
18038SOL     OW60974  11.783   9.951  10.396  0.2901 -0.3085  0.4040
18038SOL    HW160975  11.817  10.029  10.440 -0.4657  0.4578 -0.3424
18038SOL    HW260976  11.852   9.926  10.335 -0.4484  1.2883 -1.1613
18039SOL     OW60977   7.545  10.161   1.574 -0.1062  0.3075 -0.0709
18039SOL    HW160978   7.573  10.243   1.613  1.3649 -0.8139  1.3365
18039SOL    HW260979   7.487  10.121   1.639  0.8883 -0.7322  0.2031
18040SOL     OW60980   1.601   8.634   0.857 -0.5407  0.4541  0.0318
18040SOL    HW160981   1.532   8.570   0.876  0.6547 -0.8664  0.0665
18040SOL    HW260982   1.674   8.582   0.824  0.8705  1.6717  1.0890
18041SOL     OW60983   7.473   3.961   8.611  0.2579 -0.2995  0.5630
18041SOL    HW160984   7.499   4.042   8.655 -0.1032 -0.1223  0.4609
18041SOL    HW260985   7.555   3.920   8.586  0.4479  0.6165 -0.4083
18042SOL     OW60986   3.110   9.295   9.325  0.5694 -0.4001 -0.2978
18042SOL    HW160987   3.159   9.212   9.323  1.3757  0.0708 -0.7624
18042SOL    HW260988   3.027   9.273   9.366  0.0895 -1.7986 -1.9081
18043SOL     OW60989   6.729   5.116  11.130 -0.7920  0.4920  0.1046
18043SOL    HW160990   6.679   5.193  11.103  0.1913  0.2733 -2.7323
18043SOL    HW260991   6.803   5.114  11.069  0.4880 -1.4011  1.6197
18044SOL     OW60992   2.607   7.067   8.260 -0.1797  0.2957 -0.1109
18044SOL    HW160993   2.650   6.985   8.284 -0.4540  0.2196  0.1359
18044SOL    HW260994   2.538   7.040   8.199  0.2739  0.4445 -0.6963
18045SOL     OW60995   7.932   3.816   6.318  0.6147  0.5346  0.3550
18045SOL    HW160996   8.027   3.830   6.321  1.0015 -1.9356  1.5713
18045SOL    HW260997   7.911   3.775   6.402 -1.4444  0.4920 -0.1418
18046SOL     OW60998   2.356   3.418   0.118 -0.0797  0.2096  0.4865
18046SOL    HW160999   2.352   3.487   0.185 -0.1367 -0.4013  1.1283
18046SOL    HW261000   2.353   3.336   0.168 -1.9323 -0.2824 -0.3424
18047SOL     OW61001   4.298   8.312  11.464  0.4143  0.8570  0.4891
18047SOL    HW161002   4.203   8.328  11.461  0.0953 -0.6387  1.4852
18047SOL    HW261003   4.330   8.371  11.531 -0.0815  0.3133  1.2308
18048SOL     OW61004   1.404   0.853   7.138 -0.3923  0.0650 -0.1065
18048SOL    HW161005   1.461   0.808   7.076 -0.9547  0.3692 -0.8661
18048SOL    HW261006   1.461   0.879   7.210  0.3226 -0.0508 -0.6301
18049SOL     OW61007   1.842  10.218   6.084 -0.4155  0.2000  0.6534
18049SOL    HW161008   1.793  10.180   6.157 -2.3453  0.5543 -0.3814
18049SOL    HW261009   1.839  10.313   6.099 -0.1071  0.2306  0.5365
18050SOL     OW61010   7.338   6.874   6.180  0.1610  0.2522  0.0754
18050SOL    HW161011   7.291   6.832   6.108  0.5093 -0.3945  0.2169
18050SOL    HW261012   7.312   6.825   6.257  0.8262  0.0853  0.1972
18051SOL     OW61013   2.548  10.800  12.120 -0.4712  0.0029 -0.3351
18051SOL    HW161014   2.456  10.780  12.103  0.6729 -3.9025 -3.2685
18051SOL    HW261015   2.581  10.833  12.036  0.9252  1.0368  0.5747
18052SOL     OW61016   8.060   8.879   6.031  0.0633 -0.3386 -0.0546
18052SOL    HW161017   8.126   8.946   6.011  0.1585 -0.7872 -1.3451
18052SOL    HW261018   8.005   8.920   6.097  1.8414 -0.0870  1.3545
18053SOL     OW61019  10.355   1.153   1.082  0.2250  0.1533 -0.0573
18053SOL    HW161020  10.374   1.075   1.135 -0.3833  0.4671  0.6312
18053SOL    HW261021  10.368   1.226   1.141  2.5059  0.7432 -1.1391
18054SOL     OW61022   2.887   5.413   5.358  0.1216 -0.3580  0.9644
18054SOL    HW161023   2.835   5.485   5.392  1.4477  0.7248  0.7945
18054SOL    HW261024   2.973   5.451   5.342  0.5803 -1.7359 -0.0879
18055SOL     OW61025   7.545   2.675   9.311  0.0152  0.0446 -0.6597
18055SOL    HW161026   7.497   2.687   9.392 -1.4161  0.5667 -1.5502
18055SOL    HW261027   7.610   2.608   9.332 -0.8364 -0.4039  0.7086
18056SOL     OW61028   3.995   8.866   7.869  0.1602 -0.0729 -0.0726
18056SOL    HW161029   4.014   8.796   7.806  0.3253 -0.4168  0.3578
18056SOL    HW261030   4.079   8.908   7.884  0.1838 -0.2002  0.1637
18057SOL     OW61031   0.866   3.104   4.209 -0.3130  0.7250  0.0612
18057SOL    HW161032   0.890   3.022   4.167  3.8558  1.5048  0.4279
18057SOL    HW261033   0.826   3.156   4.140  1.6659  0.1433 -1.6300
18058SOL     OW61034   7.496   4.645   2.945  0.0119  0.7854 -0.0436
18058SOL    HW161035   7.533   4.561   2.972 -2.0794  0.1803  1.2294
18058SOL    HW261036   7.570   4.705   2.944  1.3505 -0.7873  0.2775
18059SOL     OW61037  11.538   1.506  10.484 -0.2368 -0.5394 -0.0839
18059SOL    HW161038  11.624   1.515  10.526 -0.6194  1.1881  0.4095
18059SOL    HW261039  11.554   1.528  10.392 -0.4177  1.5103  0.3365
18060SOL     OW61040   6.538   2.557   9.280  0.5058 -0.3698  0.3659
18060SOL    HW161041   6.447   2.526   9.272 -0.1676  1.4801  0.3117
18060SOL    HW261042   6.581   2.526   9.200 -0.8362  1.0105 -0.9606
18061SOL     OW61043   5.795   5.925  10.718 -0.0724 -0.1851 -0.1220
18061SOL    HW161044   5.714   5.874  10.721  0.2958 -0.7270  0.7900
18061SOL    HW261045   5.782   5.986  10.645 -1.1561 -0.5052 -0.2103
18062SOL     OW61046   4.782   3.015   2.574 -0.1043 -1.2363  0.4989
18062SOL    HW161047   4.783   3.044   2.666 -0.2123 -0.3213  0.2208
18062SOL    HW261048   4.872   3.026   2.544  0.1621 -2.4904  0.7647
18063SOL     OW61049  11.582   9.630   3.539 -0.1946  0.7458 -0.4759
18063SOL    HW161050  11.651   9.696   3.544 -0.9710  1.5429 -0.0432
18063SOL    HW261051  11.516   9.660   3.602  0.1984 -1.3348  1.0423
18064SOL     OW61052   0.503   8.443   9.880  0.4246  0.4705  0.8282
18064SOL    HW161053   0.590   8.418   9.912  1.3436  0.3529 -1.5266
18064SOL    HW261054   0.473   8.510   9.941  2.3353  0.7916  1.4992
18065SOL     OW61055   5.119   3.154   5.426 -0.5487 -0.3571  0.4622
18065SOL    HW161056   5.166   3.096   5.366 -1.0756 -0.3039 -0.0092
18065SOL    HW261057   5.178   3.228   5.439 -0.8932  0.1936 -0.9217
18066SOL     OW61058   9.528   4.422   7.165 -0.1654 -1.3468  0.0835
18066SOL    HW161059   9.575   4.498   7.199  1.0163 -0.7849 -2.5163
18066SOL    HW261060   9.522   4.362   7.239  2.6127 -0.4631  1.1667
18067SOL     OW61061   8.286   6.359  10.315  0.1831  0.1618  0.0078
18067SOL    HW161062   8.342   6.352  10.393  1.7671  0.3593 -1.0682
18067SOL    HW261063   8.267   6.268  10.291  2.7457 -0.0912 -1.4308
18068SOL     OW61064   2.321   0.405   9.195 -0.1788  1.1342 -0.2485
18068SOL    HW161065   2.379   0.454   9.253 -0.8680  1.1491  0.4497
18068SOL    HW261066   2.336   0.313   9.216  0.2840  1.0954 -0.7457
18069SOL     OW61067   0.209   7.249   8.470 -0.4732 -0.2245 -0.6961
18069SOL    HW161068   0.126   7.207   8.492 -0.4843  0.3536  0.3909
18069SOL    HW261069   0.261   7.244   8.550  0.1525  0.3673 -1.0538
18070SOL     OW61070   9.416  12.212   7.148 -0.0588  0.0619 -0.0085
18070SOL    HW161071   9.487  12.245   7.093 -0.9907  1.0462 -0.6380
18070SOL    HW261072   9.381  12.289   7.193 -1.1125 -0.3121 -0.1519
18071SOL     OW61073   5.277   7.793   4.939 -0.7555  0.3533  0.0874
18071SOL    HW161074   5.196   7.843   4.937 -1.2907 -0.4929 -0.2628
18071SOL    HW261075   5.343   7.853   4.904 -1.4195  0.7423 -0.5282
18072SOL     OW61076   0.818   6.714   7.949 -0.2051 -0.5269 -0.3339
18072SOL    HW161077   0.812   6.747   8.038 -1.1062 -1.3766 -0.0583
18072SOL    HW261078   0.729   6.688   7.927 -0.0681  0.0218 -1.6265
18073SOL     OW61079   3.488   7.780   1.290 -0.4721  0.0724  0.1529
18073SOL    HW161080   3.397   7.771   1.260 -0.5525 -1.1709  0.7253
18073SOL    HW261081   3.487   7.859   1.344 -0.4214  2.0887 -2.6055
18074SOL     OW61082   3.695  10.267   5.885 -0.0486  0.5965 -0.2138
18074SOL    HW161083   3.747  10.273   5.965 -0.8305  1.1013  0.2720
18074SOL    HW261084   3.751  10.220   5.823 -0.3570 -2.0750  1.4005
18075SOL     OW61085  11.874   9.089   4.214  0.0828 -0.5554  0.0498
18075SOL    HW161086  11.797   9.117   4.262  0.6197  0.6884  0.2220
18075SOL    HW261087  11.845   9.082   4.123 -0.0195  0.8585 -0.0455
18076SOL     OW61088   2.399   9.513   4.190 -0.6617  0.9421 -0.4135
18076SOL    HW161089   2.310   9.529   4.220 -0.8578  2.3655 -1.6837
18076SOL    HW261090   2.390   9.489   4.098  0.0829 -1.5349  0.0755
18077SOL     OW61091   5.143   6.588   5.565 -0.1244 -0.2458  0.1928
18077SOL    HW161092   5.092   6.668   5.581 -0.1784 -0.4599  1.1558
18077SOL    HW261093   5.082   6.517   5.583 -0.1282 -0.5145 -0.8481
18078SOL     OW61094   3.229   4.567   6.259 -0.7194 -0.1394 -0.7543
18078SOL    HW161095   3.256   4.590   6.170  0.8690  2.2164  0.2575
18078SOL    HW261096   3.148   4.616   6.273 -1.5800 -1.3732 -1.2253
18079SOL     OW61097   3.984  10.059  10.154 -0.2510 -0.2700 -0.3425
18079SOL    HW161098   3.893  10.038  10.133 -0.5988 -2.8060  2.9096
18079SOL    HW261099   4.030   9.975  10.149  0.9155  0.1144  2.2292
18080SOL     OW61100   9.421   7.737  11.082 -0.2189 -0.1735  0.4070
18080SOL    HW161101   9.447   7.784  11.003 -1.0577  1.2466  0.9299
18080SOL    HW261102   9.496   7.747  11.142 -0.1293 -0.0837  0.2798
18081SOL     OW61103   2.092   6.983   3.604 -0.1984  0.2405  0.3523
18081SOL    HW161104   2.040   6.992   3.684 -0.4520  1.9697  0.0317
18081SOL    HW261105   2.165   7.043   3.616  1.3631 -1.5767  0.4528
18082SOL     OW61106  12.186  10.942   0.458 -0.0439  0.0357  0.2485
18082SOL    HW161107  12.241  11.011   0.497  1.2583 -0.1001 -1.2310
18082SOL    HW261108  12.163  10.886   0.531 -1.2323  2.0644  1.5317
18083SOL     OW61109   0.603   3.695   6.303  0.5559 -0.1236 -0.1432
18083SOL    HW161110   0.641   3.705   6.216 -1.7303  0.8568 -1.0983
18083SOL    HW261111   0.548   3.617   6.297  2.1390 -1.4251  1.1655
18084SOL     OW61112   2.307   8.515   5.522 -0.0731 -0.0893 -0.4546
18084SOL    HW161113   2.361   8.453   5.473  1.5143  0.3616  0.6395
18084SOL    HW261114   2.301   8.592   5.465  0.1086 -0.2796 -0.7335
18085SOL     OW61115   1.615  11.851  11.573 -0.4228  0.7538  0.2412
18085SOL    HW161116   1.526  11.885  11.559 -0.2377  0.7494 -1.0698
18085SOL    HW261117   1.666  11.928  11.596 -0.5863  0.9046  0.1068
18086SOL     OW61118  12.056  11.634   7.441 -0.6721  0.3294 -0.2950
18086SOL    HW161119  12.067  11.720   7.401  0.0381  0.0292 -0.7693
18086SOL    HW261120  12.060  11.573   7.367 -0.5051 -0.1516  0.1060
18087SOL     OW61121  11.348   6.887   3.046 -0.2906  0.0100  0.3114
18087SOL    HW161122  11.307   6.805   3.075 -0.9953 -0.4245 -1.7538
18087SOL    HW261123  11.360   6.875   2.952  1.8298  1.3531  0.3516
18088SOL     OW61124   4.965   1.815   9.758 -0.0345 -0.2049 -0.4852
18088SOL    HW161125   4.881   1.819   9.803 -0.0099  1.4678 -0.5072
18088SOL    HW261126   4.995   1.725   9.769 -1.2204 -0.4851  0.6217
18089SOL     OW61127   7.788   8.072   9.318  0.2502 -0.1339 -0.3467
18089SOL    HW161128   7.705   8.056   9.362  0.5845 -0.4168  0.1916
18089SOL    HW261129   7.844   8.110   9.385  0.1513  1.3319 -1.0538
18090SOL     OW61130   8.996   2.875   0.518  0.1801 -0.3215 -0.0965
18090SOL    HW161131   9.007   2.916   0.604 -0.5078 -2.2700  0.9628
18090SOL    HW261132   9.082   2.840   0.498  0.3159  0.0478 -0.1746
18091SOL     OW61133   0.759   0.942  10.780  0.0283 -0.0873 -0.7041
18091SOL    HW161134   0.767   0.889  10.701 -0.0181 -1.4372  0.1657
18091SOL    HW261135   0.808   0.894  10.846  1.0122  1.5786 -0.1515
18092SOL     OW61136   4.348   9.925   9.393 -0.5172 -0.1236  0.1792
18092SOL    HW161137   4.387   9.869   9.325  1.6391  1.0262  0.3593
18092SOL    HW261138   4.414   9.994   9.407 -1.1512  0.0185  3.0282
18093SOL     OW61139   0.573   4.151   3.676  0.0315  0.3421 -0.1858
18093SOL    HW161140   0.534   4.098   3.745  0.4204 -0.0367 -0.2554
18093SOL    HW261141   0.507   4.219   3.658  0.0952  0.6982  0.8407
18094SOL     OW61142   4.812   0.893   1.236 -0.0065  0.0785 -0.6468
18094SOL    HW161143   4.744   0.828   1.255  0.5682 -0.6679 -1.0868
18094SOL    HW261144   4.833   0.880   1.143  1.3009 -0.2574 -0.3250
18095SOL     OW61145  12.118  11.091   8.564  0.2673  0.4874  0.3138
18095SOL    HW161146  12.057  11.159   8.535  0.2596  0.5822  0.5515
18095SOL    HW261147  12.064  11.013   8.574  0.3593  0.3310 -0.4014
18096SOL     OW61148   2.724  10.824   8.690 -0.1585 -0.0561  0.7242
18096SOL    HW161149   2.723  10.733   8.718  0.4858 -1.2657 -2.6642
18096SOL    HW261150   2.816  10.849   8.691 -0.2055  0.1372  0.4267
18097SOL     OW61151   4.306  10.286  12.308 -0.2289  0.3651 -0.7276
18097SOL    HW161152   4.230  10.310  12.255  0.2229  0.3197 -1.4195
18097SOL    HW261153   4.338  10.369  12.344 -0.3846  0.4309 -0.7425
18098SOL     OW61154   4.948   9.517  12.027  0.0407 -0.1796 -0.6828
18098SOL    HW161155   5.020   9.458  12.003 -1.3263 -1.4041 -1.9987
18098SOL    HW261156   4.980   9.604  12.005  0.7512 -0.8034 -2.2669
18099SOL     OW61157   2.697   4.076   8.180  0.4821  0.1050 -0.4255
18099SOL    HW161158   2.642   4.140   8.135  0.3777  0.0022 -0.4421
18099SOL    HW261159   2.687   4.097   8.273 -0.1783 -0.3929 -0.3761
18100SOL     OW61160   7.823   7.603   1.265  0.1155  0.0823 -0.4579
18100SOL    HW161161   7.771   7.638   1.193 -0.5656 -0.8767 -0.4482
18100SOL    HW261162   7.759   7.582   1.333  0.9035  2.8531  1.3048
18101SOL     OW61163   4.231   4.320   0.850  0.3941  0.5525 -0.7203
18101SOL    HW161164   4.212   4.338   0.942 -1.8839  2.0691 -1.4134
18101SOL    HW261165   4.259   4.404   0.815 -2.0394  0.8849 -2.1011
18102SOL     OW61166   7.375   3.000   8.045  0.8192  0.5640 -0.1560
18102SOL    HW161167   7.313   2.931   8.024 -0.8063  1.8045  0.3701
18102SOL    HW261168   7.443   2.994   7.978  0.4617 -1.1973 -0.3996
18103SOL     OW61169  11.284  10.543   1.503 -0.3135  0.0182  0.0352
18103SOL    HW161170  11.264  10.522   1.412  1.0856 -1.0541 -0.0634
18103SOL    HW261171  11.367  10.590   1.499 -0.5143  0.4433  0.7296
18104SOL     OW61172   2.088   4.956   6.229  0.3181  0.0259 -0.1385
18104SOL    HW161173   2.053   4.881   6.277  0.5987 -0.0725 -0.0876
18104SOL    HW261174   2.179   4.934   6.212 -0.5563 -1.5380 -3.8038
18105SOL     OW61175   8.102   4.085   1.951 -0.0764 -0.0521  0.4104
18105SOL    HW161176   8.081   4.116   1.863 -0.1322  2.9710  1.3647
18105SOL    HW261177   8.183   4.036   1.941 -2.1186 -3.3140 -1.8365
18106SOL     OW61178  12.272  11.681   4.309 -0.5456 -0.2038 -0.6684
18106SOL    HW161179  12.187  11.683   4.266  0.2435  0.0889 -2.2970
18106SOL    HW261180  12.318  11.758   4.276  0.1783 -0.0616  0.5913
18107SOL     OW61181   0.937   3.391  12.022  0.7035  0.3470 -0.2564
18107SOL    HW161182   0.996   3.384  12.097 -0.5968  0.1387  0.7981
18107SOL    HW261183   0.862   3.440  12.056  0.1530  0.3818 -1.4748
18108SOL     OW61184   7.924  12.361   9.985 -0.0298 -0.1353  0.0428
18108SOL    HW161185   7.956  12.449  10.001  1.6867 -0.5095 -1.1555
18108SOL    HW261186   7.995  12.304  10.014 -1.8347 -1.2903  2.6635
18109SOL     OW61187   4.425   9.364   2.679  0.1062 -0.4155 -0.2045
18109SOL    HW161188   4.408   9.327   2.765 -1.8151  2.0488  0.5876
18109SOL    HW261189   4.363   9.319   2.621  1.8678 -2.5718 -0.5469
18110SOL     OW61190   2.704   8.197  11.926  0.5395  0.3462  0.0614
18110SOL    HW161191   2.760   8.170  11.999 -2.2820 -1.0874  1.8948
18110SOL    HW261192   2.716   8.127  11.861 -1.1228 -1.5742  1.6623
18111SOL     OW61193   0.535   5.590  10.413 -0.1982 -0.1851 -0.0362
18111SOL    HW161194   0.542   5.675  10.369 -0.5823  0.4755  1.1328
18111SOL    HW261195   0.468   5.603  10.480  0.6669 -1.0187  1.0432
18112SOL     OW61196   5.805   4.672   6.851 -0.0199 -0.6072 -0.0222
18112SOL    HW161197   5.748   4.707   6.782 -0.8758  0.1956  1.0431
18112SOL    HW261198   5.893   4.678   6.815 -0.0725  2.7386  0.0497
18113SOL     OW61199   9.642   5.918   0.651 -0.5566  0.0891  0.3836
18113SOL    HW161200   9.570   5.859   0.629 -0.4149 -1.1900  2.9390
18113SOL    HW261201   9.718   5.860   0.663  0.0441  0.9874  1.1031
18114SOL     OW61202   9.931   0.224   5.317 -0.0759 -0.4131 -0.3084
18114SOL    HW161203   9.875   0.235   5.241 -0.7339 -0.4588  0.1565
18114SOL    HW261204   9.872   0.232   5.392  0.6996  0.5097  0.2242
18115SOL     OW61205   6.100   0.792   3.075  0.3160  0.9002 -0.1901
18115SOL    HW161206   6.144   0.787   3.159 -0.3023 -1.1156  0.0622
18115SOL    HW261207   6.162   0.754   3.013  0.4298  1.6081 -0.5300
18116SOL     OW61208   1.088   3.831   7.483 -0.0605  0.2358  0.2073
18116SOL    HW161209   1.006   3.873   7.458 -0.2621  0.7871  1.7455
18116SOL    HW261210   1.123   3.797   7.400 -1.0790  1.3130 -0.7003
18117SOL     OW61211   4.478  12.099  11.094 -0.6724 -0.2072  0.1671
18117SOL    HW161212   4.546  12.112  11.161 -0.7345  0.0809  0.1747
18117SOL    HW261213   4.517  12.131  11.013 -0.7823 -0.0853  0.1620
18118SOL     OW61214  11.824  10.749   1.394  0.3728  0.0274 -0.2643
18118SOL    HW161215  11.898  10.775   1.448 -0.6525  2.9736 -0.0954
18118SOL    HW261216  11.770  10.694   1.451  1.4764 -0.5900  0.2097
18119SOL     OW61217   4.017  11.315   5.601  0.2632  0.3461  0.4063
18119SOL    HW161218   4.039  11.309   5.507  0.4539  0.4137  0.4458
18119SOL    HW261219   4.070  11.388   5.633  1.2110 -0.5225  0.8576
18120SOL     OW61220   5.894  10.767   7.469  0.3888 -0.0878 -0.3548
18120SOL    HW161221   5.841  10.689   7.451 -0.1467  0.2948 -0.4694
18120SOL    HW261222   5.985  10.736   7.466  0.1489 -1.2548  2.1043
18121SOL     OW61223   9.814   7.848  12.448 -0.6970 -0.1798  0.0247
18121SOL    HW161224   9.906   7.846  12.420 -0.2593  1.5292  1.1954
18121SOL    HW261225   9.796   7.758  12.477  0.2640 -0.7940 -1.1890
18122SOL     OW61226   2.042   7.295   9.122  0.3159 -0.3800 -0.1216
18122SOL    HW161227   2.124   7.250   9.144  1.0418  0.8691 -0.1482
18122SOL    HW261228   1.974   7.239   9.158  1.2364 -0.9184  0.8714
18123SOL     OW61229   1.196   8.485   3.106  0.3507 -0.0016 -0.1451
18123SOL    HW161230   1.109   8.450   3.126  0.6168 -0.3370  0.4587
18123SOL    HW261231   1.180   8.577   3.085 -0.3176 -0.3676 -1.3959
18124SOL     OW61232   8.107   8.459   2.874 -0.5282  0.2030 -0.3921
18124SOL    HW161233   8.142   8.544   2.845 -2.1870  1.3295  0.7078
18124SOL    HW261234   8.127   8.456   2.968 -0.1768 -0.8038 -0.4885
18125SOL     OW61235   8.732   9.602   9.584 -0.6325  0.0024 -0.1730
18125SOL    HW161236   8.787   9.564   9.652  1.0584 -0.4475 -1.7067
18125SOL    HW261237   8.754   9.553   9.505 -2.0363  0.9436 -1.1993
18126SOL     OW61238   4.534   8.112   4.130 -0.4749  0.5851  0.1517
18126SOL    HW161239   4.512   8.031   4.085  0.2614  0.1143  0.6244
18126SOL    HW261240   4.542   8.177   4.061  2.7060 -0.5547 -0.7010
18127SOL     OW61241   4.216   2.823   3.881 -0.1098 -0.0234  0.0840
18127SOL    HW161242   4.177   2.818   3.794  0.5079 -0.1164 -0.1949
18127SOL    HW261243   4.146   2.794   3.940 -0.0902 -1.3956 -0.5154
18128SOL     OW61244   6.695  11.055   8.200 -0.3470  0.0955 -0.1342
18128SOL    HW161245   6.626  11.070   8.136 -0.9766 -0.1117  0.4885
18128SOL    HW261246   6.650  11.016   8.275  0.3288  0.6312  0.5593
18129SOL     OW61247   9.187   1.354   2.579  0.2087  0.2260  0.2612
18129SOL    HW161248   9.158   1.317   2.496  0.5686 -1.2409  0.7611
18129SOL    HW261249   9.106   1.367   2.629 -0.4974  4.6654 -1.5692
18130SOL     OW61250   8.605   7.216   3.278 -0.7986 -0.2610 -0.2456
18130SOL    HW161251   8.652   7.235   3.197  0.8351  0.1543  0.7517
18130SOL    HW261252   8.630   7.126   3.300  0.0875  0.1808  0.6239
18131SOL     OW61253   7.921   4.567   0.394  0.1834 -0.1551 -0.0177
18131SOL    HW161254   7.857   4.575   0.323 -0.7375 -0.3887  0.7558
18131SOL    HW261255   7.957   4.479   0.383  1.3800  0.4627 -1.2556
18132SOL     OW61256   9.848  11.200   1.221  0.5481 -0.7246 -0.2501
18132SOL    HW161257   9.795  11.129   1.259  0.0846 -0.2893 -0.0728
18132SOL    HW261258   9.872  11.168   1.134 -0.7777 -0.5710 -0.6989
18133SOL     OW61259   0.469   2.498  11.158 -0.1939 -0.0666  0.0672
18133SOL    HW161260   0.498   2.519  11.247 -1.8884 -1.9265  1.1447
18133SOL    HW261261   0.459   2.583  11.116 -1.5172  1.0549  2.4255
18134SOL     OW61262   4.709   6.116   4.727  0.6864  0.1935 -0.1814
18134SOL    HW161263   4.623   6.076   4.732  0.8794 -0.1240  0.8150
18134SOL    HW261264   4.730   6.117   4.634 -1.0338  1.6675 -0.5949
18135SOL     OW61265   9.592   3.613   9.683 -0.3779  0.0675 -0.1375
18135SOL    HW161266   9.549   3.683   9.634  0.0699 -0.8610 -1.9510
18135SOL    HW261267   9.521   3.556   9.712 -0.6075  0.2662 -0.3092
18136SOL     OW61268   7.802   3.827   6.772  0.2625  0.1968  0.2377
18136SOL    HW161269   7.714   3.839   6.807  0.0284 -0.1619 -0.2358
18136SOL    HW261270   7.835   3.917   6.760  0.2608  0.3290  1.1505
18137SOL     OW61271   8.796   2.855   0.806  0.0031  0.6495 -0.1624
18137SOL    HW161272   8.853   2.914   0.854 -1.9251  1.2296  1.6018
18137SOL    HW261273   8.747   2.911   0.746 -0.1285  0.4833 -0.2124
18138SOL     OW61274   2.232   1.886   3.749 -0.7546 -0.5096  0.6272
18138SOL    HW161275   2.256   1.810   3.696  1.5955  1.0453 -0.6902
18138SOL    HW261276   2.155   1.922   3.705 -0.4302 -0.7492 -0.1406
18139SOL     OW61277   5.217   9.497  12.478 -0.1963  0.7649 -0.1743
18139SOL    HW161278   5.163   9.450  12.541  2.3318  0.4692  1.9383
18139SOL    HW261279   5.272   9.429  12.438 -0.9804  1.1141 -1.9474
18140SOL     OW61280   5.690   1.965  10.398  0.1511 -0.3076  0.4088
18140SOL    HW161281   5.606   1.990  10.361 -0.3912 -1.4494  0.8089
18140SOL    HW261282   5.693   2.006  10.484  1.1746  1.9025 -0.6265
18141SOL     OW61283   1.397   8.755   8.045 -0.6007  0.3178  0.5127
18141SOL    HW161284   1.384   8.718   7.958 -1.6628  3.0836 -0.6025
18141SOL    HW261285   1.492   8.758   8.056 -0.4404 -2.2570  0.5615
18142SOL     OW61286   9.328   2.405   9.623 -0.6014  0.6351  0.2245
18142SOL    HW161287   9.285   2.466   9.683 -1.6808  1.3684 -1.2291
18142SOL    HW261288   9.382   2.350   9.679  1.4948  3.7262  1.5383
18143SOL     OW61289   6.716   3.970   1.103 -0.0053  0.4981 -0.2344
18143SOL    HW161290   6.708   3.968   1.008  1.0753  1.7254 -0.3765
18143SOL    HW261291   6.630   3.941   1.135 -0.0606 -0.9160 -1.5481
18144SOL     OW61292   2.481   5.965  11.433  0.4073 -0.6582  0.3757
18144SOL    HW161293   2.511   5.880  11.400  2.9322 -0.7116  2.5400
18144SOL    HW261294   2.560   6.011  11.459 -1.0795  1.2237  1.9195
18145SOL     OW61295   9.975   1.363  11.136 -0.0174 -0.6142  0.1912
18145SOL    HW161296   9.971   1.298  11.207 -2.2337 -1.1769 -0.3606
18145SOL    HW261297   9.902   1.422  11.154  1.8776  1.7736  0.6263
18146SOL     OW61298   3.892   5.339   2.784  0.0884 -0.2901 -0.3264
18146SOL    HW161299   3.922   5.323   2.694 -0.5786 -2.3500 -0.2567
18146SOL    HW261300   3.882   5.251   2.821 -0.3662  0.4983  1.5332
18147SOL     OW61301   8.735  11.721   1.196 -0.0567  0.3123 -0.6958
18147SOL    HW161302   8.680  11.791   1.232  2.3257  1.5598  0.7602
18147SOL    HW261303   8.738  11.655   1.265  1.3206  0.8871 -0.1723
18148SOL     OW61304   2.873   6.284   0.013  0.6414 -0.2954  0.2254
18148SOL    HW161305   2.902   6.337   0.087 -1.8400  1.6731 -0.1201
18148SOL    HW261306   2.789   6.248   0.040 -0.7341  1.1454 -1.8628
18149SOL     OW61307   2.430   3.448   3.343  0.4895 -0.2068  0.1776
18149SOL    HW161308   2.396   3.411   3.424 -0.0598 -2.2688 -0.9123
18149SOL    HW261309   2.521   3.471   3.362  0.4720 -0.9960  1.2765
18150SOL     OW61310   3.146   9.960   1.040  0.3781 -0.2782 -0.2874
18150SOL    HW161311   3.172  10.018   1.111  0.0560  0.1303 -0.5022
18150SOL    HW261312   3.069   9.914   1.074 -0.5365  0.8168 -0.8145
18151SOL     OW61313   1.250   4.952   9.847  0.0306 -0.3569 -0.1948
18151SOL    HW161314   1.203   5.028   9.879  1.0914 -0.0860  0.7968
18151SOL    HW261315   1.182   4.887   9.830 -0.9287  0.9207 -1.4694
18152SOL     OW61316   6.278   5.695  10.944  0.5429  0.0744 -0.1847
18152SOL    HW161317   6.243   5.650  11.021  1.6221 -1.8384 -0.7414
18152SOL    HW261318   6.202   5.707  10.886  0.1034 -0.3833  0.2910
18153SOL     OW61319   6.190   1.577   7.294  0.2671  0.0833 -0.2934
18153SOL    HW161320   6.280   1.565   7.324  1.2133 -1.1346 -3.3249
18153SOL    HW261321   6.192   1.659   7.245 -0.8342  1.0975  1.2314
18154SOL     OW61322   1.785   1.512   0.494 -0.3119  0.1412 -0.4305
18154SOL    HW161323   1.737   1.532   0.574 -1.8768  0.0218 -1.3070
18154SOL    HW261324   1.800   1.598   0.453 -0.2412  0.1324 -0.4238
18155SOL     OW61325   4.859   8.129  12.279 -0.3640 -0.6414  0.3048
18155SOL    HW161326   4.934   8.107  12.223 -0.1907  0.5733  0.0418
18155SOL    HW261327   4.812   8.046  12.289 -0.5913 -0.8495 -1.9410
18156SOL     OW61328   1.775   7.286   0.978 -0.7567  0.7516 -0.0854
18156SOL    HW161329   1.787   7.299   0.884  0.6535  0.3413  0.0063
18156SOL    HW261330   1.846   7.337   1.018 -1.3477  0.9364  0.7693
18157SOL     OW61331   7.356   7.348   0.460 -0.0943  0.1882  0.0617
18157SOL    HW161332   7.380   7.441   0.455 -1.8311  0.6980  0.5098
18157SOL    HW261333   7.285   7.338   0.396  0.5645 -1.0274 -0.5273
18158SOL     OW61334   3.171   3.153   3.529 -0.8524  0.4088  0.4800
18158SOL    HW161335   3.167   3.207   3.450 -1.2599  0.3932  0.4872
18158SOL    HW261336   3.254   3.106   3.522 -0.6076  0.8533  0.3545
18159SOL     OW61337   9.609   4.125   7.153 -0.0016  0.0682 -0.5770
18159SOL    HW161338   9.629   4.104   7.061  0.8224  0.3849 -0.4810
18159SOL    HW261339   9.627   4.044   7.200  0.1679  0.0849 -0.6126
18160SOL     OW61340   8.923   1.851  10.420 -0.4081 -0.0831  0.5546
18160SOL    HW161341   8.874   1.902  10.485 -0.7708  0.1381  0.1156
18160SOL    HW261342   8.985   1.912  10.383 -0.9148  0.0776 -0.0476
18161SOL     OW61343   6.235   9.979   6.260 -0.1834 -0.4884 -0.2436
18161SOL    HW161344   6.190  10.032   6.326 -0.3892  0.3742 -1.0589
18161SOL    HW261345   6.166   9.922   6.225  0.0519 -1.3745  0.6787
18162SOL     OW61346  10.372   0.319   6.081 -0.3584  0.6538  0.1438
18162SOL    HW161347  10.457   0.282   6.056 -0.8152 -0.7362  0.5736
18162SOL    HW261348  10.309   0.249   6.064 -1.5921  1.9839 -1.1302
18163SOL     OW61349   6.098   8.591   9.031 -0.0178 -0.1989  0.2642
18163SOL    HW161350   6.136   8.673   9.002  0.8946 -0.5249  0.4933
18163SOL    HW261351   6.156   8.561   9.101  0.1795 -1.4646 -0.4087
18164SOL     OW61352  12.371   2.236   9.309 -0.0138  0.2846  0.1773
18164SOL    HW161353  12.359   2.143   9.329  0.4404 -0.1920 -1.5529
18164SOL    HW261354  12.294   2.259   9.257 -0.6925  1.2159  1.5389
18165SOL     OW61355   1.487   7.915  11.868 -0.2604  0.1014  0.9170
18165SOL    HW161356   1.475   7.870  11.951 -1.7984  1.1934  1.3425
18165SOL    HW261357   1.447   8.001  11.881 -0.9781  0.1456 -1.0960
18166SOL     OW61358   2.627   1.332  12.286  0.7452  0.1634  0.3951
18166SOL    HW161359   2.554   1.325  12.224  0.5611 -0.0001  0.6235
18166SOL    HW261360   2.703   1.350  12.232  0.1629  2.8156  0.3328
18167SOL     OW61361   1.549   3.236   3.796  0.4096 -0.4798  0.2756
18167SOL    HW161362   1.591   3.322   3.796  0.5177 -0.5278  1.3096
18167SOL    HW261363   1.573   3.198   3.711  0.9036  0.2412  0.0852
18168SOL     OW61364   4.628   9.792   7.764 -0.2649 -0.2424 -0.2170
18168SOL    HW161365   4.585   9.854   7.705 -2.0440 -2.5878 -1.5569
18168SOL    HW261366   4.699   9.755   7.712 -0.4739 -0.7669 -0.1315
18169SOL     OW61367  12.377  11.263   1.396 -0.3428 -0.0725  0.0238
18169SOL    HW161368  12.309  11.241   1.333  0.4191  0.7660 -1.1185
18169SOL    HW261369  12.345  11.226   1.479 -0.9773 -1.8998 -0.9887
18170SOL     OW61370   5.572  11.069   1.127  0.4116  0.2780  0.3515
18170SOL    HW161371   5.550  11.162   1.128  1.1804  0.5061  2.9539
18170SOL    HW261372   5.492  11.024   1.154 -0.3964 -0.0275 -2.2591
18171SOL     OW61373   1.374   8.583   7.207 -0.4930  0.0574  0.0999
18171SOL    HW161374   1.395   8.503   7.256 -0.8281 -1.2308 -1.7418
18171SOL    HW261375   1.433   8.582   7.131  1.2390  2.9150  1.2458
18172SOL     OW61376  11.944   9.701  10.585  0.0188 -0.1730  0.3760
18172SOL    HW161377  11.940   9.613  10.623  1.2857 -0.4631 -0.1184
18172SOL    HW261378  11.901   9.757  10.650 -0.9981 -1.1724  0.6066
18173SOL     OW61379   0.094  10.389  11.400  0.0773 -0.2962  0.0833
18173SOL    HW161380   0.079  10.457  11.334  0.5435 -0.1256  0.1456
18173SOL    HW261381   0.046  10.313  11.367 -1.7008  0.4830  0.7684
18174SOL     OW61382   2.042   3.587   6.442  0.3154  0.0764  0.4039
18174SOL    HW161383   2.075   3.545   6.363 -0.8632  0.6191 -0.4011
18174SOL    HW261384   2.109   3.652   6.465  2.1146 -2.0398  1.5928
18175SOL     OW61385   6.145   8.244   9.197  0.3662 -0.3710  0.4367
18175SOL    HW161386   6.185   8.212   9.278  1.0184 -0.3055  0.1448
18175SOL    HW261387   6.217   8.284   9.149 -0.5150  2.3520  1.1547
18176SOL     OW61388   1.011   8.405   2.146 -0.4922  0.3502  0.4606
18176SOL    HW161389   1.040   8.487   2.106  2.0944 -0.0933  1.2691
18176SOL    HW261390   0.919   8.398   2.121 -0.3921  2.7320 -0.8846
18177SOL     OW61391   5.587   7.814   0.396  0.0973 -0.0193  0.1312
18177SOL    HW161392   5.668   7.824   0.346 -1.2166  1.6960 -1.8643
18177SOL    HW261393   5.572   7.720   0.399  1.1349 -0.2604 -1.2134
18178SOL     OW61394   3.982   5.826   2.345 -0.0614  0.0943 -0.5544
18178SOL    HW161395   3.964   5.810   2.252  1.2044 -0.5807 -0.7082
18178SOL    HW261396   3.911   5.884   2.374  0.2430  1.3739 -2.2476
18179SOL     OW61397  10.359   3.328   1.934  0.5152 -0.2190 -0.1141
18179SOL    HW161398  10.324   3.341   2.022  0.5694  0.2081 -0.1548
18179SOL    HW261399  10.397   3.413   1.911  2.1517 -0.8455  0.1761
18180SOL     OW61400  12.245   7.649  11.921  0.0643  0.0220 -0.0481
18180SOL    HW161401  12.244   7.732  11.969 -3.8901 -1.1641  2.3383
18180SOL    HW261402  12.303   7.593  11.972 -0.5241  0.1249  0.7534
18181SOL     OW61403   1.476   4.346  10.504  0.5090 -0.2319  0.5462
18181SOL    HW161404   1.519   4.350  10.589 -0.3168  1.6959  0.9239
18181SOL    HW261405   1.404   4.284  10.515  1.5839 -1.4979  0.6474
18182SOL     OW61406   6.664   4.083   6.653  0.0064  0.2008 -0.2442
18182SOL    HW161407   6.751   4.068   6.689  0.1801  0.3947 -0.5781
18182SOL    HW261408   6.667   4.173   6.621 -0.4143  0.3134  0.0189
18183SOL     OW61409   9.442   4.263   6.941 -0.0778 -0.1647  0.0735
18183SOL    HW161410   9.488   4.179   6.930 -1.1914 -0.8844  0.7762
18183SOL    HW261411   9.481   4.301   7.020 -1.0729 -1.0612  1.0259
18184SOL     OW61412   9.144   3.462   4.494 -0.1282 -0.6630 -0.3023
18184SOL    HW161413   9.048   3.460   4.489 -0.1012 -1.4342 -4.5442
18184SOL    HW261414   9.172   3.380   4.454  2.3058  0.2397 -0.6201
18185SOL     OW61415  10.513   2.919   4.318 -0.0439  0.0986  0.0051
18185SOL    HW161416  10.434   2.966   4.342 -0.1327  0.0355 -0.1606
18185SOL    HW261417  10.546   2.966   4.241 -0.6399 -0.6513 -0.7366
18186SOL     OW61418  10.272   0.613   3.832 -0.0033 -0.5088 -0.2396
18186SOL    HW161419  10.322   0.683   3.874  0.8131 -0.6878 -0.9004
18186SOL    HW261420  10.212   0.659   3.773  0.6714 -0.3611 -0.8241
18187SOL     OW61421   8.026  11.501   5.697 -0.1651 -0.0851 -0.4268
18187SOL    HW161422   7.970  11.425   5.684 -0.9791  0.4350  0.0117
18187SOL    HW261423   7.999  11.537   5.781 -0.3030  1.1146 -0.9681
18188SOL     OW61424   5.315   1.864  10.116  0.1235 -0.1297  0.0576
18188SOL    HW161425   5.326   1.957  10.097  2.3037 -0.6473 -1.6675
18188SOL    HW261426   5.352   1.852  10.204 -1.1784  0.7493  0.7618
18189SOL     OW61427   1.930  10.418   8.548 -0.0517  0.2337 -0.2449
18189SOL    HW161428   1.944  10.490   8.610 -0.1136 -0.4991  0.6475
18189SOL    HW261429   2.018  10.387   8.526 -0.0449 -0.1024  0.2205
18190SOL     OW61430   8.806   4.716   4.181  0.1762  0.1009  0.9351
18190SOL    HW161431   8.815   4.689   4.273 -0.2549  0.3812  1.0621
18190SOL    HW261432   8.788   4.635   4.134 -1.9953  0.2215  1.4339
18191SOL     OW61433  10.627   2.539   7.188 -0.4001  0.3090 -0.7193
18191SOL    HW161434  10.617   2.511   7.279  3.1746  0.5505 -0.1327
18191SOL    HW261435  10.543   2.517   7.148 -1.8088 -0.6246  2.3839
18192SOL     OW61436   4.227   0.984   8.737  0.4361  0.3039  0.2511
18192SOL    HW161437   4.145   0.982   8.786 -0.1290 -2.2219 -0.6552
18192SOL    HW261438   4.275   1.058   8.773 -2.4293  2.1901  0.4764
18193SOL     OW61439   5.580   9.164   8.425 -0.1350  0.5358 -0.0391
18193SOL    HW161440   5.637   9.241   8.422 -0.6934  0.9283 -2.5699
18193SOL    HW261441   5.500   9.192   8.382 -0.8393 -1.1063  0.1422
18194SOL     OW61442   4.756   6.324   7.863 -0.6208 -0.5836  0.0763
18194SOL    HW161443   4.765   6.229   7.871 -2.1512 -0.7399  0.1410
18194SOL    HW261444   4.814   6.347   7.790 -0.1051 -1.5287  0.1685
18195SOL     OW61445   7.654   9.928   6.522  0.2536 -0.2497 -0.1570
18195SOL    HW161446   7.674   9.850   6.470 -1.6268  0.3889 -1.9405
18195SOL    HW261447   7.579   9.902   6.575  0.0724  0.1321 -0.2283
18196SOL     OW61448   8.720   1.835  10.953 -0.1127 -0.0627 -0.2755
18196SOL    HW161449   8.713   1.743  10.930 -0.9805  0.0821 -0.6576
18196SOL    HW261450   8.710   1.881  10.869  1.8585  0.3507 -0.3265
18197SOL     OW61451   4.643   4.849   9.077 -0.4536  0.1464  0.1953
18197SOL    HW161452   4.699   4.791   9.129  0.9991  0.7892 -0.6073
18197SOL    HW261453   4.604   4.909   9.142  1.7074  1.2460  0.5577
18198SOL     OW61454   0.980   6.416   8.777  0.3018  0.1330  0.3096
18198SOL    HW161455   1.076   6.422   8.781  0.2680  0.5834  0.5371
18198SOL    HW261456   0.963   6.356   8.704  0.7512  0.4708 -0.0822
18199SOL     OW61457   6.324   0.649   2.830 -0.0993 -0.2180 -0.1836
18199SOL    HW161458   6.376   0.574   2.801 -0.3977 -0.2898 -0.5355
18199SOL    HW261459   6.236   0.614   2.842  0.0646 -0.2414  1.0451
18200SOL     OW61460   2.981   3.060  10.069 -0.2670  0.3403 -0.1569
18200SOL    HW161461   3.005   2.991  10.131 -2.2620 -0.0195  0.2641
18200SOL    HW261462   3.008   3.141  10.112  0.5547 -0.0462  0.0870
18201SOL     OW61463   8.885   8.021   1.140  0.0498 -0.2215 -0.2021
18201SOL    HW161464   8.967   7.975   1.122  1.2703  1.4289  0.7757
18201SOL    HW261465   8.853   8.048   1.053 -0.1062 -1.8657 -0.6828
18202SOL     OW61466   8.416   4.473   6.581 -0.6973  0.5076  0.0685
18202SOL    HW161467   8.505   4.447   6.556 -0.6005 -0.1007  0.9805
18202SOL    HW261468   8.425   4.565   6.609 -0.1746  0.2075  0.9405
18203SOL     OW61469   9.879   4.984   2.486  0.6106  0.0171  0.1693
18203SOL    HW161470   9.864   4.968   2.393  0.6487  1.3638 -0.0977
18203SOL    HW261471   9.955   4.932   2.508 -0.8716 -2.3332  0.0945
18204SOL     OW61472   4.910   3.899   4.864  0.8679 -0.0357 -0.2443
18204SOL    HW161473   4.977   3.945   4.814  0.6638  0.0190 -0.4711
18204SOL    HW261474   4.839   3.884   4.801  0.7164 -0.1971 -0.0389
18205SOL     OW61475   1.610   9.271   9.992  0.1446  0.1781  0.4249
18205SOL    HW161476   1.523   9.264  10.032  0.4899  1.2683  1.4310
18205SOL    HW261477   1.650   9.186  10.008 -1.3496 -1.0059 -1.6501
18206SOL     OW61478   5.517   6.367   4.563  0.2656  0.4637 -0.4522
18206SOL    HW161479   5.536   6.327   4.478 -0.2747  0.4609 -0.5714
18206SOL    HW261480   5.422   6.373   4.566  0.2772  0.3331  0.2182
18207SOL     OW61481   0.737   3.168   0.216 -0.3325 -0.2032 -0.8454
18207SOL    HW161482   0.811   3.142   0.161 -0.8252  0.2673 -1.7570
18207SOL    HW261483   0.669   3.102   0.197 -0.3682 -0.2703 -0.4919
18208SOL     OW61484   8.535   0.979   5.846 -0.0980  0.0076  0.1542
18208SOL    HW161485   8.541   1.034   5.768 -0.9954 -0.2266 -0.0867
18208SOL    HW261486   8.551   0.890   5.814  0.0043 -0.0348  0.3193
18209SOL     OW61487   1.714   1.464  11.105  0.1960 -0.5158 -0.6335
18209SOL    HW161488   1.690   1.381  11.063 -1.2684 -0.9698  0.9787
18209SOL    HW261489   1.647   1.526  11.077 -1.2541 -1.0139  1.4980
18210SOL     OW61490   3.649   6.799   0.285  0.2579 -0.0096  0.1542
18210SOL    HW161491   3.589   6.874   0.292  0.4859  0.2037 -0.1282
18210SOL    HW261492   3.600   6.732   0.238  0.5670  0.5232 -0.9685
18211SOL     OW61493   1.700  10.942   9.493  0.2367 -0.3160  0.5170
18211SOL    HW161494   1.690  10.942   9.397  1.5291  3.1033  0.2693
18211SOL    HW261495   1.610  10.942   9.526 -0.2792  0.8012 -0.7759
18212SOL     OW61496  10.739  12.228   4.152 -0.1845 -0.2309 -0.2817
18212SOL    HW161497  10.729  12.312   4.107  0.8196 -0.3585 -0.7703
18212SOL    HW261498  10.680  12.168   4.106 -1.5436  0.3855  0.6006
18213SOL     OW61499  11.118   3.001   4.286 -0.6833 -0.3221  0.2809
18213SOL    HW161500  11.051   3.069   4.280 -0.0735  0.3285  0.7860
18213SOL    HW261501  11.201   3.047   4.275 -0.2445 -0.9420  0.8978
18214SOL     OW61502   7.357  10.561   3.825  0.1398 -0.8195 -0.0135
18214SOL    HW161503   7.301  10.485   3.832  0.1297 -0.8219 -0.1131
18214SOL    HW261504   7.308  10.623   3.771  0.4717 -1.0500 -0.6028
18215SOL     OW61505  10.965   7.233   2.700  0.3391 -0.0817 -0.3930
18215SOL    HW161506  10.965   7.314   2.650 -1.7330  0.0428 -0.2553
18215SOL    HW261507  10.878   7.228   2.739  0.9842 -1.5375  0.9803
18216SOL     OW61508   4.078   4.235   4.460  0.1959  0.3511 -0.1842
18216SOL    HW161509   4.000   4.203   4.415  0.2082  0.0250  0.0169
18216SOL    HW261510   4.114   4.302   4.403  0.1518  0.0207 -0.6013
18217SOL     OW61511   1.402   8.217   4.055  0.4827  0.2266 -0.1417
18217SOL    HW161512   1.466   8.146   4.046  0.4789  0.3387 -1.2213
18217SOL    HW261513   1.370   8.232   3.966  0.8922  1.9629 -0.0387
18218SOL     OW61514   6.783   5.491   2.046 -0.0814  0.1182 -0.2178
18218SOL    HW161515   6.854   5.469   2.106 -0.4793 -0.3019  0.1039
18218SOL    HW261516   6.824   5.487   1.959  0.0819 -1.0193 -0.1075
18219SOL     OW61517   9.537   6.611   7.953  0.2689  0.8919  0.1052
18219SOL    HW161518   9.601   6.668   7.910  0.4479 -0.1738 -1.1129
18219SOL    HW261519   9.585   6.529   7.967 -0.3123  0.6668  0.8286
18220SOL     OW61520   9.535   8.469  11.045 -0.3531  0.0100 -0.5534
18220SOL    HW161521   9.448   8.500  11.021 -0.6165  0.7005  1.1358
18220SOL    HW261522   9.542   8.383  11.003 -1.9769 -0.1946 -0.4868
18221SOL     OW61523   1.843   7.701   9.760 -0.2311 -0.2068  0.1319
18221SOL    HW161524   1.884   7.759   9.696  0.8991 -0.8003  0.2946
18221SOL    HW261525   1.750   7.702   9.737  0.0513  0.1377 -1.0828
18222SOL     OW61526   8.193   5.988   9.790 -0.1655 -0.1422  0.2689
18222SOL    HW161527   8.176   5.906   9.743  1.6133  0.3388 -1.3386
18222SOL    HW261528   8.123   6.046   9.762  0.3559 -0.1521 -1.0913
18223SOL     OW61529   5.448   0.010   4.071  0.6225  0.6344  0.0231
18223SOL    HW161530   5.446  -0.082   4.096  4.0693  0.6992  1.1058
18223SOL    HW261531   5.538   0.024   4.039  0.0581  3.5021 -0.5902
18224SOL     OW61532   7.785  11.995  12.252  0.3475  0.0721  0.4319
18224SOL    HW161533   7.879  12.013  12.246  0.6046 -1.4244 -0.6894
18224SOL    HW261534   7.779  11.899  12.255 -1.2170 -0.0071 -2.3068
18225SOL     OW61535  11.326   0.127   1.583  0.0451  0.4337  0.1127
18225SOL    HW161536  11.257   0.107   1.519  1.6141 -0.6762 -1.3297
18225SOL    HW261537  11.334   0.046   1.634  0.1091  0.6548  0.4517
18226SOL     OW61538   5.201  12.420   8.854 -0.6665 -0.2504 -0.3290
18226SOL    HW161539   5.114  12.379   8.862  0.1775 -1.9196  0.9762
18226SOL    HW261540   5.249  12.364   8.793 -0.5921  0.8995 -1.3705
18227SOL     OW61541   8.043   9.780   7.488 -0.4680 -0.1586 -0.8249
18227SOL    HW161542   8.099   9.857   7.495 -1.0375  0.1406  1.3669
18227SOL    HW261543   7.957   9.810   7.519 -1.0233 -1.3733 -1.1141
18228SOL     OW61544   2.753   8.555  10.309 -0.2399 -0.0353  0.1852
18228SOL    HW161545   2.671   8.522  10.274 -0.2139  0.3848 -0.2852
18228SOL    HW261546   2.766   8.639  10.265  0.5414 -0.1850  0.1058
18229SOL     OW61547  10.321   0.752   1.832 -0.0280  0.3481  1.3410
18229SOL    HW161548  10.274   0.672   1.854  0.4871 -0.6468 -0.9178
18229SOL    HW261549  10.253   0.813   1.803 -0.2454  0.0608  1.2487
18230SOL     OW61550   6.833   6.515   0.278  0.4326 -0.1043  0.0566
18230SOL    HW161551   6.852   6.602   0.313 -1.0304  1.5862 -2.9625
18230SOL    HW261552   6.919   6.476   0.264  1.4592  2.7420 -2.6746
18231SOL     OW61553   7.243   2.305   5.681  0.4939 -0.6096 -0.0234
18231SOL    HW161554   7.213   2.278   5.594 -1.4068  3.0515 -0.7107
18231SOL    HW261555   7.318   2.363   5.663 -0.1683  0.4936  0.6858
18232SOL     OW61556   7.391   5.716   1.798 -0.0607  0.3103 -0.4998
18232SOL    HW161557   7.330   5.740   1.867  2.3073  1.1070  1.4910
18232SOL    HW261558   7.401   5.621   1.807  0.2965  0.4187  0.3632
18233SOL     OW61559   0.336   8.368   8.917  0.4809 -0.5135  0.4246
18233SOL    HW161560   0.381   8.301   8.967 -1.3235 -2.1236  0.0271
18233SOL    HW261561   0.297   8.321   8.843 -0.2944  1.0884 -0.2411
18234SOL     OW61562   2.254   9.893  10.958 -0.5327  0.2400  0.2478
18234SOL    HW161563   2.299   9.886  11.042  0.3600 -2.8824 -0.3432
18234SOL    HW261564   2.321   9.929  10.899 -1.0060  1.9580  0.7072
18235SOL     OW61565   1.064   3.504   4.868 -0.0478 -0.3725  0.3041
18235SOL    HW161566   1.124   3.442   4.910  0.5325 -0.3519 -0.4782
18235SOL    HW261567   1.025   3.455   4.796  1.2072  0.4263 -0.9983
18236SOL     OW61568  10.638   1.368  11.015 -0.2444 -0.4221  0.3104
18236SOL    HW161569  10.674   1.280  11.002  1.3438  0.1197  0.8249
18236SOL    HW261570  10.625   1.402  10.926  0.8950 -0.5006  0.0986
18237SOL     OW61571   7.164   7.719   8.189 -0.2510  0.1108  0.8375
18237SOL    HW161572   7.192   7.651   8.250  1.7749 -1.1891 -1.3749
18237SOL    HW261573   7.068   7.716   8.192 -0.2213 -2.1901  1.5061
18238SOL     OW61574   9.339   5.403   2.628  1.2820 -0.5294  0.2938
18238SOL    HW161575   9.435   5.407   2.632  1.3438 -0.0181 -1.0463
18238SOL    HW261576   9.317   5.446   2.546 -0.1482 -0.0348  0.8987
18239SOL     OW61577   0.718   9.034   9.358 -0.2973  0.3479 -0.0505
18239SOL    HW161578   0.794   9.048   9.414 -0.7046 -2.7516  1.4621
18239SOL    HW261579   0.752   9.047   9.269  1.1280  2.2806  0.6910
18240SOL     OW61580   6.633   6.034   3.322  0.0467 -0.7804 -0.0784
18240SOL    HW161581   6.603   6.056   3.234  0.9975 -1.3603 -0.5713
18240SOL    HW261582   6.614   6.111   3.374 -1.3159 -0.7434 -0.5840
18241SOL     OW61583  10.604   5.961   1.495 -0.6836 -0.3707 -0.4261
18241SOL    HW161584  10.695   5.982   1.513 -0.3009 -0.8111 -1.7236
18241SOL    HW261585  10.592   5.982   1.402 -2.3660  1.2428  0.0654
18242SOL     OW61586   2.037   9.770   9.852 -0.3506 -0.7055 -0.6501
18242SOL    HW161587   1.963   9.761   9.792 -0.4443 -3.1707 -0.2579
18242SOL    HW261588   2.004   9.742   9.937  0.6775 -0.4989 -0.1614
18243SOL     OW61589  10.531   9.967   7.779  1.0216  0.1342 -0.4925
18243SOL    HW161590  10.520  10.056   7.748 -0.7609 -0.1164 -0.6837
18243SOL    HW261591  10.581   9.976   7.860  2.6927  1.0847 -1.5768
18244SOL     OW61592   6.771   4.550  12.206 -0.0952  0.1938  0.7240
18244SOL    HW161593   6.706   4.621  12.205 -2.6312 -2.0094  0.1193
18244SOL    HW261594   6.787   4.535  12.299 -0.7742  0.4931  0.9017
18245SOL     OW61595   0.942  11.657   1.161 -0.2417  0.3553 -0.0738
18245SOL    HW161596   0.870  11.649   1.223  0.2546  1.4395  0.6592
18245SOL    HW261597   0.942  11.749   1.135 -0.4338 -0.0641 -1.6912
18246SOL     OW61598   9.502   4.631  11.823  0.2549 -0.1698  0.0773
18246SOL    HW161599   9.550   4.685  11.886 -1.9555  2.0730  0.0023
18246SOL    HW261600   9.518   4.541  11.851  1.5995  0.6355  2.1196
18247SOL     OW61601  12.262   6.786   5.405  0.2947 -0.5152  0.3833
18247SOL    HW161602  12.210   6.864   5.389  2.3161  0.4707 -2.1013
18247SOL    HW261603  12.270   6.781   5.500 -0.9562  1.5534  0.6422
18248SOL     OW61604   3.847   7.811   9.163  1.0507 -0.0234 -0.2782
18248SOL    HW161605   3.858   7.721   9.192  1.8702 -0.2359 -1.2048
18248SOL    HW261606   3.803   7.855   9.236 -0.7142 -1.5053 -0.3689
18249SOL     OW61607   7.579  11.356  11.644  0.2197 -0.3537 -0.0592
18249SOL    HW161608   7.604  11.317  11.560 -0.2858 -1.1389  0.1444
18249SOL    HW261609   7.592  11.450  11.632  2.8901 -0.6570 -0.1015
18250SOL     OW61610   4.580  10.933   5.294 -0.2390  0.4820 -0.1900
18250SOL    HW161611   4.566  10.843   5.322  0.0682  0.0644 -1.3414
18250SOL    HW261612   4.673  10.939   5.273 -0.0078  1.4020  0.9862
18251SOL     OW61613  11.044   7.693   2.716  0.6061 -0.4840  0.3596
18251SOL    HW161614  11.039   7.731   2.803  0.3417  2.5606 -0.8382
18251SOL    HW261615  11.132   7.713   2.685  0.7424 -1.6308 -0.0467
18252SOL     OW61616   5.389   6.314   4.903 -0.1904 -0.0093  0.0141
18252SOL    HW161617   5.327   6.292   4.972 -0.4619 -0.0169 -0.2286
18252SOL    HW261618   5.363   6.403   4.875 -1.1061 -0.6095 -1.1647
18253SOL     OW61619   8.985   4.353   0.517  0.0353  0.0206  0.3146
18253SOL    HW161620   9.035   4.370   0.437  0.6904  0.4200  0.8085
18253SOL    HW261621   8.948   4.438   0.541 -0.2164 -0.1122  0.4036
18254SOL     OW61622   5.852   6.938   5.715 -0.2163 -0.3307 -0.2283
18254SOL    HW161623   5.918   6.966   5.779 -2.3318  0.7587  1.6323
18254SOL    HW261624   5.855   7.004   5.646  1.5644 -1.0797 -0.9095
18255SOL     OW61625   9.065   1.296   8.284 -0.7060 -0.2886 -0.2331
18255SOL    HW161626   9.052   1.375   8.336 -1.0870 -2.7095  3.7942
18255SOL    HW261627   9.153   1.304   8.248 -0.1416  1.3068  1.3756
18256SOL     OW61628   0.674   7.734  11.320 -0.1715 -0.0413 -0.1824
18256SOL    HW161629   0.623   7.807  11.354 -0.1525  0.2840 -0.8350
18256SOL    HW261630   0.728   7.772  11.252 -0.0724 -0.6399 -0.4484
18257SOL     OW61631   9.725   4.161   4.397  0.3852  0.7046 -0.5805
18257SOL    HW161632   9.785   4.167   4.322  0.1892  0.0622 -0.7987
18257SOL    HW261633   9.782   4.141   4.471  0.3015 -2.1905 -1.1484
18258SOL     OW61634   1.497   4.144  10.042  0.2833  0.3049 -0.1138
18258SOL    HW161635   1.453   4.101  10.116 -0.4466  0.9173 -0.1780
18258SOL    HW261636   1.580   4.174  10.078  1.2632 -1.9709 -0.3083
18259SOL     OW61637   3.841  11.311   9.730  0.0263  0.0670  0.5251
18259SOL    HW161638   3.832  11.369   9.806 -0.1966  0.5991  0.0900
18259SOL    HW261639   3.934  11.316   9.708  0.1086 -0.1512  0.8042
18260SOL     OW61640   4.629   1.114   3.549 -0.1376 -0.2571 -0.1153
18260SOL    HW161641   4.601   1.085   3.462  2.3652 -2.6303 -0.2535
18260SOL    HW261642   4.568   1.071   3.609 -0.0899 -1.0084 -0.5906
18261SOL     OW61643   6.689   3.378   7.273 -0.3668  0.3419 -0.4221
18261SOL    HW161644   6.626   3.377   7.202  1.6901 -0.2730 -2.3467
18261SOL    HW261645   6.748   3.451   7.252  0.0480  0.4181  0.8937
18262SOL     OW61646   7.628   4.882   5.307  0.1606 -0.1647 -0.1784
18262SOL    HW161647   7.582   4.802   5.283  1.8913 -1.4860  0.6212
18262SOL    HW261648   7.717   4.853   5.328  0.6326  1.8604  0.9324
18263SOL     OW61649   9.530   3.991   6.307  0.7756  0.1388  0.1260
18263SOL    HW161650   9.546   3.924   6.374  2.5336  0.2218 -0.1668
18263SOL    HW261651   9.572   3.956   6.228 -0.1427  0.6367 -0.5926
18264SOL     OW61652   3.050   9.458   1.058  0.0230  0.2138  0.2130
18264SOL    HW161653   3.028   9.374   1.018  0.7715 -0.1352  0.5270
18264SOL    HW261654   3.095   9.507   0.989  0.0858  0.1432  0.2038
18265SOL     OW61655   2.429   0.929  10.697  0.4568  0.1220  0.4012
18265SOL    HW161656   2.467   0.888  10.774 -1.0790 -0.7781  0.7068
18265SOL    HW261657   2.403   1.017  10.726  0.3752 -0.0218  0.7629
18266SOL     OW61658   5.130   8.113  10.839 -0.1088 -0.3633 -0.2106
18266SOL    HW161659   5.180   8.155  10.908  0.3382  1.2273 -1.4354
18266SOL    HW261660   5.178   8.033  10.820  1.1024  0.3428 -0.2652
18267SOL     OW61661   0.007   6.601   6.859 -0.1396  0.2566  0.1299
18267SOL    HW161662  -0.065   6.587   6.797  0.0445 -0.8346  0.1307
18267SOL    HW261663   0.086   6.595   6.805  0.2014 -3.4075  0.7202
18268SOL     OW61664   1.288   3.398   3.163  0.1128 -0.0205 -0.5076
18268SOL    HW161665   1.223   3.328   3.157  0.7295 -0.9528  2.0456
18268SOL    HW261666   1.237   3.477   3.182 -0.4558 -0.1524 -1.4577
18269SOL     OW61667   1.050   4.326   5.755  0.2847  0.4395  0.0659
18269SOL    HW161668   1.106   4.333   5.833 -0.4801  0.4424  0.6294
18269SOL    HW261669   1.106   4.355   5.683  1.7281 -1.6483  0.2644
18270SOL     OW61670   2.600   7.803   3.756 -0.0680  0.1589 -0.0090
18270SOL    HW161671   2.543   7.763   3.690 -0.5388 -0.1736  0.5802
18270SOL    HW261672   2.557   7.887   3.776 -0.1203  0.1007  0.1252
18271SOL     OW61673   5.065   1.554   6.790  0.1812 -0.2055 -0.3207
18271SOL    HW161674   4.984   1.509   6.765 -0.4721 -0.0812  1.4257
18271SOL    HW261675   5.078   1.620   6.721 -1.3354 -0.0636 -0.5158
18272SOL     OW61676   4.958  11.105   6.166  0.0596  0.3451  0.7911
18272SOL    HW161677   5.032  11.080   6.221  0.6511 -0.5845 -0.3775
18272SOL    HW261678   4.997  11.162   6.099 -0.6138  1.3084  1.2058
18273SOL     OW61679   6.138   8.075  10.725 -0.4293  0.3891 -0.3615
18273SOL    HW161680   6.104   8.093  10.637 -1.2958 -0.9653 -0.3391
18273SOL    HW261681   6.061   8.081  10.781 -0.4049 -1.3543 -0.0945
18274SOL     OW61682  12.433   6.026   8.270  0.2608  0.3630 -0.2571
18274SOL    HW161683  12.494   6.096   8.248 -0.8045  1.2120 -0.6206
18274SOL    HW261684  12.365   6.031   8.202 -1.1490  0.6182  1.1095
18275SOL     OW61685   4.381   9.070   3.273 -0.7839  0.0003  0.3170
18275SOL    HW161686   4.329   9.097   3.349  0.6019  1.2937  0.8426
18275SOL    HW261687   4.386   8.975   3.280 -0.9989  0.0701  1.6480
18276SOL     OW61688   4.654   8.531   8.646 -0.0877  0.0085  0.2454
18276SOL    HW161689   4.681   8.455   8.698 -1.0301 -0.8272 -0.4540
18276SOL    HW261690   4.559   8.533   8.653 -0.2659 -0.2354 -1.5708
18277SOL     OW61691   2.979   2.822  10.805 -0.3742  0.2335  0.4938
18277SOL    HW161692   3.044   2.891  10.798 -1.1033  0.8109 -1.3247
18277SOL    HW261693   3.023   2.752  10.852  1.1184  1.1024  0.4611
18278SOL     OW61694   7.137   3.288  10.228 -0.4914  0.6472 -0.5807
18278SOL    HW161695   7.085   3.225  10.177  0.2071 -2.1778  1.8589
18278SOL    HW261696   7.228   3.261  10.213 -0.0086  2.3674 -0.9455
18279SOL     OW61697   0.331   8.976   0.742 -0.5461 -0.0969 -0.3373
18279SOL    HW161698   0.418   8.948   0.771 -0.0316  2.6107  1.0260
18279SOL    HW261699   0.340   8.991   0.648  0.9604  1.7099  0.0521
18280SOL     OW61700  11.163   3.753   3.143  0.1706  0.3510 -0.1377
18280SOL    HW161701  11.110   3.829   3.168  1.6335  0.9448  1.3145
18280SOL    HW261702  11.107   3.704   3.084 -1.0041  2.3100 -0.7454
18281SOL     OW61703   7.933  10.701  12.352  0.3407  0.1235  0.2499
18281SOL    HW161704   7.861  10.640  12.335 -1.0698  1.1693  2.1397
18281SOL    HW261705   7.986  10.658  12.419  0.8341 -0.1069 -0.2698
18282SOL     OW61706   9.863   3.081   3.540 -0.2723 -0.0304  0.3099
18282SOL    HW161707   9.950   3.105   3.572 -0.0621  0.2443 -0.4595
18282SOL    HW261708   9.860   2.986   3.552 -0.5402  0.1439  1.9482
18283SOL     OW61709  12.145   0.175   2.308 -0.2115  0.0030 -0.4495
18283SOL    HW161710  12.169   0.267   2.313 -3.3499  0.8792  2.0433
18283SOL    HW261711  12.219   0.129   2.348  1.6778  1.2845 -2.2698
18284SOL     OW61712  10.128   6.864   1.845  0.3522 -0.2592  0.5247
18284SOL    HW161713  10.108   6.940   1.900  0.8282 -0.1653  0.5700
18284SOL    HW261714  10.062   6.799   1.869  0.1065  0.0439  0.6788
18285SOL     OW61715   1.872   8.743   0.510  0.1810  0.5138  0.0410
18285SOL    HW161716   1.927   8.782   0.441 -1.5448 -0.4996 -2.0075
18285SOL    HW261717   1.783   8.747   0.475 -0.7358 -0.2413  2.1499
18286SOL     OW61718   9.693   4.350   3.305 -0.3165  0.5785 -0.4351
18286SOL    HW161719   9.666   4.280   3.364 -0.3109 -0.0270 -1.1333
18286SOL    HW261720   9.715   4.423   3.362 -1.1369  0.2943  0.2718
18287SOL     OW61721   4.147   8.848   6.227  0.0620 -0.1016  0.0413
18287SOL    HW161722   4.150   8.930   6.179  3.1853  0.0519  0.2927
18287SOL    HW261723   4.175   8.782   6.164  0.6778 -0.4571  0.6762
18288SOL     OW61724   9.945   1.793   7.020 -0.2870 -0.0978  0.2046
18288SOL    HW161725  10.036   1.801   7.050  0.3711 -1.0410 -1.3702
18288SOL    HW261726   9.938   1.857   6.949 -0.9961  0.2561  0.5867
18289SOL     OW61727   0.895  10.140   0.590 -0.0322  0.1607 -0.5355
18289SOL    HW161728   0.815  10.179   0.556 -0.1579 -0.4498 -0.9686
18289SOL    HW261729   0.902  10.056   0.543 -0.1160 -0.6320  0.8057
18290SOL     OW61730   2.486  10.385   3.841 -0.0427 -0.3043  0.0383
18290SOL    HW161731   2.421  10.385   3.771  1.2889  0.2918 -1.2514
18290SOL    HW261732   2.531  10.469   3.834  1.4633 -1.0371  0.2973
18291SOL     OW61733   1.363   6.214   2.007  0.7462 -0.5521  0.2015
18291SOL    HW161734   1.302   6.285   2.025  0.7014 -0.9640  1.8432
18291SOL    HW261735   1.437   6.229   2.067  0.8979 -1.6569  0.3212
18292SOL     OW61736   5.740   1.368  11.838 -0.6992  0.2563  0.3359
18292SOL    HW161737   5.708   1.314  11.765 -1.3608  1.0424  0.0165
18292SOL    HW261738   5.811   1.420  11.800  1.3670 -1.8200  1.1639
18293SOL     OW61739   8.539  11.879   5.757 -0.2251  0.0346  0.0172
18293SOL    HW161740   8.534  11.911   5.848  0.8119  0.5298 -0.0884
18293SOL    HW261741   8.447  11.874   5.729 -0.5006  1.4206  0.5753
18294SOL     OW61742  10.625   4.404  10.415  0.3957  0.4124 -0.3935
18294SOL    HW161743  10.719   4.400  10.436  1.0608  0.2250 -3.1127
18294SOL    HW261744  10.621   4.445  10.329 -1.9549 -0.5644 -0.8222
18295SOL     OW61745   7.176   1.309   0.425  0.6896 -1.0574 -0.7030
18295SOL    HW161746   7.225   1.256   0.488 -1.2402  0.5151  2.2856
18295SOL    HW261747   7.090   1.266   0.420 -0.4391  0.9051  0.7300
18296SOL     OW61748   5.617   4.314   5.330  0.4169  0.1270  0.3533
18296SOL    HW161749   5.648   4.328   5.419  0.5286 -1.9837  0.6921
18296SOL    HW261750   5.522   4.324   5.336  0.3892 -0.3765  0.7931
18297SOL     OW61751  12.021   7.311   3.885 -0.4088  0.4756 -0.3322
18297SOL    HW161752  11.926   7.326   3.879 -0.4194  0.0177 -1.5798
18297SOL    HW261753  12.035   7.227   3.842  0.6635  0.9560 -0.9654
18298SOL     OW61754  10.435   5.255   0.171 -0.1025 -0.2055  0.2146
18298SOL    HW161755  10.498   5.309   0.218 -1.0185  1.4471 -0.4067
18298SOL    HW261756  10.484   5.220   0.097  0.5777 -0.5445  0.8015
18299SOL     OW61757   9.871  11.983   4.247  0.1525 -0.5221 -0.0540
18299SOL    HW161758   9.805  12.011   4.184 -0.6056  1.0485  1.3631
18299SOL    HW261759   9.923  11.918   4.200 -0.2488  0.7034 -2.3502
18300SOL     OW61760   9.617   6.586   6.385  0.1194 -0.1615  0.3169
18300SOL    HW161761   9.698   6.538   6.401  0.1461 -0.0039  0.6772
18300SOL    HW261762   9.571   6.585   6.470  0.6005  1.3283  0.6275
18301SOL     OW61763   8.350   7.512   9.053 -0.4915 -0.4230  0.3641
18301SOL    HW161764   8.265   7.493   9.094 -0.2216 -3.4002 -0.2365
18301SOL    HW261765   8.414   7.486   9.119 -0.0206  0.4749  0.2772
18302SOL     OW61766   6.361   9.209   0.097 -0.8535 -0.1918 -0.3391
18302SOL    HW161767   6.397   9.146   0.159  0.0765  0.9664  0.3456
18302SOL    HW261768   6.322   9.277   0.152  1.4699  1.7168 -0.8979
18303SOL     OW61769   1.277  11.423  11.586 -0.0808 -0.4241  0.3257
18303SOL    HW161770   1.244  11.499  11.634 -1.6812 -0.2326 -0.9795
18303SOL    HW261771   1.331  11.460  11.517 -0.1306 -0.5198  0.2353
18304SOL     OW61772   8.463   5.905   4.616 -0.6635  0.0121  0.2976
18304SOL    HW161773   8.431   5.908   4.706 -0.2429  0.6056  0.4357
18304SOL    HW261774   8.536   5.843   4.618  0.3506  1.1614  0.7207
18305SOL     OW61775   8.796   8.433   8.944 -0.1846 -0.0654  0.4090
18305SOL    HW161776   8.712   8.391   8.924  0.6588 -1.7895  0.3186
18305SOL    HW261777   8.827   8.465   8.859 -0.6573  0.4169  0.4126
18306SOL     OW61778   0.085   2.049  11.704  0.0707  0.4121  0.2899
18306SOL    HW161779   0.158   2.085  11.653 -0.6629  2.8291  0.8215
18306SOL    HW261780   0.117   1.964  11.735  1.7516  0.3552 -1.4209
18307SOL     OW61781   3.537   5.064   6.828  0.0470  0.4832 -0.2484
18307SOL    HW161782   3.596   5.128   6.789  0.5314  0.7336  0.8637
18307SOL    HW261783   3.464   5.116   6.861 -0.0895  0.3320 -0.3084
18308SOL     OW61784   8.750   1.656   9.520  0.0676 -0.4796 -0.1314
18308SOL    HW161785   8.800   1.627   9.596 -1.1111  0.0082  0.8514
18308SOL    HW261786   8.702   1.578   9.492 -0.5927 -0.3109  0.5102
18309SOL     OW61787   8.066   8.879   2.650 -0.2477  0.0471 -0.3240
18309SOL    HW161788   7.973   8.902   2.652 -0.3163 -0.2404 -0.2249
18309SOL    HW261789   8.111   8.963   2.664 -0.3745  0.8491 -3.8724
18310SOL     OW61790   1.606   6.860  10.233 -0.1636  0.1649  0.2838
18310SOL    HW161791   1.541   6.825  10.172 -0.9715  0.3799  1.0025
18310SOL    HW261792   1.565   6.852  10.319  1.2647 -0.8727  0.9072
18311SOL     OW61793   6.428  12.302   0.346 -0.4665  0.7054 -0.0560
18311SOL    HW161794   6.388  12.224   0.307 -2.3737  0.5100  2.0416
18311SOL    HW261795   6.499  12.268   0.400  1.0022  0.8141 -1.8325
18312SOL     OW61796   9.912   6.246  11.931 -0.1243 -0.4652 -0.0522
18312SOL    HW161797   9.939   6.296  12.007  0.3858  0.7461 -0.9872
18312SOL    HW261798   9.921   6.155  11.957  1.9082 -0.1026  0.7128
18313SOL     OW61799   0.790   0.743  11.223  0.0088  0.3444 -0.4432
18313SOL    HW161800   0.756   0.664  11.181 -1.2508  1.0026 -0.7189
18313SOL    HW261801   0.752   0.815  11.172 -0.3073  1.1494  0.8824
18314SOL     OW61802   4.581   2.583   3.181 -0.4698  0.0848  0.5864
18314SOL    HW161803   4.598   2.538   3.098  1.1803 -0.7072  1.3213
18314SOL    HW261804   4.600   2.518   3.249  1.8150  1.7539  1.6877
18315SOL     OW61805   7.172   0.509   5.490 -0.2991  0.1924  0.2278
18315SOL    HW161806   7.134   0.495   5.404  0.3649  1.4583 -0.3003
18315SOL    HW261807   7.104   0.479   5.551 -0.6767 -0.9690 -0.7074
18316SOL     OW61808   4.821   5.046   9.555 -0.0354  0.2408  0.7205
18316SOL    HW161809   4.897   5.099   9.531  0.8237 -0.5513  1.6292
18316SOL    HW261810   4.834   5.025   9.647 -0.1976 -1.8011  0.3181
18317SOL     OW61811  11.888  12.385  10.648  0.2778  0.1000 -0.1429
18317SOL    HW161812  11.835  12.399  10.570 -1.4018  0.9675  1.0826
18317SOL    HW261813  11.897  12.290  10.655  0.0231 -0.0058 -1.0924
18318SOL     OW61814   2.858  11.903   8.088 -0.2576 -0.1943 -0.7067
18318SOL    HW161815   2.845  11.808   8.081  0.7249 -0.5780  1.6704
18318SOL    HW261816   2.787  11.932   8.145  1.9446 -0.3432  2.3562
18319SOL     OW61817   4.229  11.412   6.523  0.0928  0.6976  0.1088
18319SOL    HW161818   4.214  11.470   6.448  0.8885  1.7472  0.7337
18319SOL    HW261819   4.223  11.469   6.599 -0.0029 -0.2235  0.8014
18320SOL     OW61820   2.032  11.744  11.130  0.1620 -0.3560  0.4434
18320SOL    HW161821   1.952  11.796  11.142 -0.2393 -0.7590 -0.4364
18320SOL    HW261822   2.005  11.654  11.148  0.6534 -0.3868  1.0912
18321SOL     OW61823  10.881   5.474   5.153 -0.2664  0.0276 -0.3863
18321SOL    HW161824  10.944   5.482   5.081  1.5817  0.8505  1.2114
18321SOL    HW261825  10.800   5.444   5.112  1.3417 -1.7580 -2.4741
18322SOL     OW61826  10.195   0.602   5.096 -0.1053 -0.0828  0.4047
18322SOL    HW161827  10.172   0.650   5.016 -2.1770 -0.0951  0.9280
18322SOL    HW261828  10.111   0.569   5.129  0.9677 -2.1531  1.2956
18323SOL     OW61829   8.140   2.709   3.232  0.2721  0.2920  0.4417
18323SOL    HW161830   8.218   2.742   3.278  0.2174 -1.0889  1.5861
18323SOL    HW261831   8.098   2.651   3.295 -0.6102 -0.5338 -0.8597
18324SOL     OW61832   0.344   1.912  12.408  0.1777 -0.5708 -0.4755
18324SOL    HW161833   0.301   1.883  12.328 -0.4699 -1.7887  0.2962
18324SOL    HW261834   0.365   1.832  12.456  2.0412  0.0491 -0.1551
18325SOL     OW61835   7.959   8.618   9.247  0.0401  0.3374  0.0559
18325SOL    HW161836   7.919   8.695   9.288  0.8058  0.9018 -0.2363
18325SOL    HW261837   7.956   8.636   9.153  0.5558  0.1825  0.0042
18326SOL     OW61838   3.355  11.553  11.799 -0.0422  0.0299  0.4536
18326SOL    HW161839   3.399  11.527  11.718 -0.7638  0.0209  0.0629
18326SOL    HW261840   3.421  11.606  11.845  0.5390 -0.3575  0.0877
18327SOL     OW61841   6.374   0.546   7.319  0.7773  0.0670 -0.0500
18327SOL    HW161842   6.346   0.520   7.232 -0.0085 -0.5602  0.3787
18327SOL    HW261843   6.312   0.614   7.346 -1.0234 -1.9882  1.2810
18328SOL     OW61844   7.046  10.688   2.370 -0.1144  0.1185  0.5289
18328SOL    HW161845   7.047  10.749   2.444  1.3522  1.0189 -0.1817
18328SOL    HW261846   7.055  10.602   2.409 -1.6731  0.3639  1.5192
18329SOL     OW61847   5.703   8.543   4.539 -0.1638 -0.2990  0.1181
18329SOL    HW161848   5.792   8.575   4.526  0.4635 -1.6220  0.9318
18329SOL    HW261849   5.691   8.476   4.472 -0.8526  0.3951 -0.4827
18330SOL     OW61850  12.292   3.801   5.668  0.0229  0.5659 -0.2438
18330SOL    HW161851  12.224   3.860   5.633 -1.4972 -0.9330  0.0515
18330SOL    HW261852  12.284   3.722   5.614  1.0851  0.1086  0.2555
18331SOL     OW61853   0.543   5.107   5.345  0.0633 -0.2590 -0.3005
18331SOL    HW161854   0.604   5.038   5.318 -0.2829 -0.3807 -0.7750
18331SOL    HW261855   0.509   5.143   5.264 -0.7729 -0.4399 -0.0460
18332SOL     OW61856  10.114   6.961   5.886 -0.2232 -0.3863 -0.1940
18332SOL    HW161857  10.148   7.005   5.964 -0.6871 -1.0087  0.3798
18332SOL    HW261858  10.059   6.890   5.921  1.0850 -1.9001 -1.0519
18333SOL     OW61859  11.249   8.268   5.744 -0.5730 -0.1333  0.0289
18333SOL    HW161860  11.325   8.321   5.720 -1.9702  1.7234 -0.5042
18333SOL    HW261861  11.217   8.233   5.660 -1.6553  1.0177 -0.0539
18334SOL     OW61862   6.746   3.132   1.208  0.4181  0.2319  0.1517
18334SOL    HW161863   6.795   3.051   1.194 -2.4591 -1.7326  0.5418
18334SOL    HW261864   6.751   3.148   1.303 -0.5623 -0.6260  0.3662
18335SOL     OW61865  11.980   2.846   8.421  0.4115  1.2735  0.0053
18335SOL    HW161866  12.034   2.768   8.429  0.5265  1.5000  1.8945
18335SOL    HW261867  12.043   2.918   8.415  0.3104  1.2513 -1.9635
18336SOL     OW61868   0.329   8.549   0.409 -0.4228  0.2501  0.2340
18336SOL    HW161869   0.393   8.614   0.379  0.8600 -0.1193  2.0094
18336SOL    HW261870   0.316   8.568   0.502 -1.3487 -0.9705  0.3873
18337SOL     OW61871  10.108   1.157   6.652 -0.0042 -0.6825  0.3670
18337SOL    HW161872  10.071   1.173   6.739 -0.1931 -1.0009  0.3481
18337SOL    HW261873  10.033   1.128   6.600  0.1583 -0.7462  0.1682
18338SOL     OW61874   3.497   3.852   7.252  0.1770 -0.4687 -0.1072
18338SOL    HW161875   3.425   3.913   7.272  0.8258  0.1706  0.3000
18338SOL    HW261876   3.482   3.827   7.161  0.6590  1.3727 -0.7393
18339SOL     OW61877   4.147   6.249   0.632  0.5279  0.5722 -0.0251
18339SOL    HW161878   4.215   6.191   0.667 -0.7497 -0.5885  0.6737
18339SOL    HW261879   4.065   6.212   0.667 -0.3947  2.4037 -0.1582
18340SOL     OW61880  10.719   4.476   7.661  0.3869 -0.6734  0.3210
18340SOL    HW161881  10.685   4.416   7.727 -0.7202 -1.9610 -1.3487
18340SOL    HW261882  10.692   4.439   7.578  1.2794  1.1813 -0.8750
18341SOL     OW61883  12.385  12.288   1.059 -0.6130 -0.1957  0.6003
18341SOL    HW161884  12.363  12.309   1.150 -0.1325 -1.3940  1.0128
18341SOL    HW261885  12.338  12.206   1.041 -0.1060 -0.3737  0.0302
18342SOL     OW61886   1.377   2.592   9.387  0.2793  0.2294  0.2386
18342SOL    HW161887   1.317   2.666   9.396  0.6437  0.7740 -1.4900
18342SOL    HW261888   1.321   2.518   9.363 -0.0841 -0.0940  1.9564
18343SOL     OW61889   3.756  11.611   9.335  0.0512  0.3612  0.6908
18343SOL    HW161890   3.807  11.534   9.311 -0.1282  0.7182 -0.9666
18343SOL    HW261891   3.731  11.596   9.426  0.6108 -1.2026  0.6182
18344SOL     OW61892   8.351   0.773  12.323 -1.0216  0.3869  0.3977
18344SOL    HW161893   8.307   0.723  12.255 -2.0958  0.9087  0.6870
18344SOL    HW261894   8.335   0.865  12.300 -1.3788  0.5714  1.3204
18345SOL     OW61895   0.372   6.501   6.198  0.5359  0.1469  0.2374
18345SOL    HW161896   0.416   6.487   6.282  0.8956  0.6275  0.1354
18345SOL    HW261897   0.308   6.430   6.192 -0.0411  0.5612  1.2746
18346SOL     OW61898   0.162  10.944   7.417  0.5582 -0.2191  0.1948
18346SOL    HW161899   0.094  10.946   7.351  0.4514  0.5896  0.3267
18346SOL    HW261900   0.243  10.966   7.370  0.5963 -0.3397  0.2023
18347SOL     OW61901   2.372   8.375   4.063 -0.1462  0.2559 -0.2047
18347SOL    HW161902   2.286   8.410   4.038 -0.3071 -0.2803 -0.4307
18347SOL    HW261903   2.367   8.282   4.040  0.4981  0.2206 -0.2159
18348SOL     OW61904   8.935   0.712   0.737 -0.0244  0.4156  0.1747
18348SOL    HW161905   8.896   0.728   0.651  1.2443  1.0710 -0.3011
18348SOL    HW261906   8.870   0.658   0.783  0.1459 -1.7111 -1.9142
18349SOL     OW61907   7.572  10.924   5.684 -0.4416 -0.0905  0.3088
18349SOL    HW161908   7.574  10.952   5.592  1.7810  1.2597  0.6897
18349SOL    HW261909   7.490  10.876   5.693 -1.7934  1.6469 -1.8217
18350SOL     OW61910  11.048   4.775   7.356  0.3389 -0.4581  0.0292
18350SOL    HW161911  11.079   4.841   7.294 -0.5491 -1.1407 -1.1962
18350SOL    HW261912  10.977   4.730   7.309 -1.2969 -0.1153  2.0375
18351SOL     OW61913  11.669   0.418   1.297 -0.2328  0.3188  0.4825
18351SOL    HW161914  11.667   0.470   1.216 -1.0294  0.8824  0.8521
18351SOL    HW261915  11.748   0.364   1.289 -1.1069 -0.7627 -1.3749
18352SOL     OW61916   3.594   0.072   6.950  0.0798 -0.0567 -0.7517
18352SOL    HW161917   3.585  -0.000   7.012  1.8278  1.6158  1.6503
18352SOL    HW261918   3.505   0.103   6.935 -0.4874 -1.2927 -0.0827
18353SOL     OW61919   9.936   1.418   2.666 -0.0256 -0.5810  0.0824
18353SOL    HW161920   9.907   1.461   2.585 -5.1688 -2.8773  0.3060
18353SOL    HW261921   9.971   1.334   2.637 -0.6052 -0.8452  0.1325
18354SOL     OW61922   8.805  11.993  12.409 -0.0376  0.5736 -0.1249
18354SOL    HW161923   8.763  11.919  12.365  1.1074 -0.5109  0.5484
18354SOL    HW261924   8.740  12.064  12.405 -1.0760 -0.3976 -0.9571
18355SOL     OW61925   4.504   7.268   3.176  1.0814  0.0928  0.2488
18355SOL    HW161926   4.594   7.298   3.188  1.0340 -0.2239  1.5366
18355SOL    HW261927   4.451   7.346   3.189  1.0849 -0.0603  1.2113
18356SOL     OW61928  11.117   2.956   4.640  0.9312 -0.1237  0.0516
18356SOL    HW161929  11.117   3.046   4.609  1.8645 -0.4879 -1.0655
18356SOL    HW261930  11.207   2.926   4.627  1.4761 -0.2606  3.3159
18357SOL     OW61931   7.365   3.489   3.783  0.5878 -0.2582  0.4277
18357SOL    HW161932   7.387   3.577   3.815 -0.1991 -0.2214  0.8806
18357SOL    HW261933   7.426   3.431   3.828  1.2744  0.0701 -0.0564
18358SOL     OW61934   4.391   8.915  10.167 -0.6923  0.1027 -0.0703
18358SOL    HW161935   4.353   8.973  10.232 -1.3343  0.0430 -0.3869
18358SOL    HW261936   4.434   8.846  10.218 -2.6812 -0.9236  0.3248
18359SOL     OW61937   3.770   2.372   4.318 -0.9943 -0.3941  0.2035
18359SOL    HW161938   3.689   2.417   4.294 -1.8736 -2.6469 -1.2978
18359SOL    HW261939   3.778   2.385   4.413 -2.0666  1.4472  0.0825
18360SOL     OW61940   2.499   3.424   7.486 -0.3168  0.4930 -0.0408
18360SOL    HW161941   2.567   3.383   7.433 -0.0833 -1.1350  1.4089
18360SOL    HW261942   2.418   3.387   7.453 -0.1469 -0.7897  0.9013
18361SOL     OW61943   3.167  11.369  11.733  0.5282 -0.0050  0.0782
18361SOL    HW161944   3.107  11.443  11.717 -0.3101 -0.0220  2.6571
18361SOL    HW261945   3.248  11.410  11.762  0.4647 -0.0566  0.3329
18362SOL     OW61946  10.080  10.998   8.479 -0.3970  0.5725  0.3807
18362SOL    HW161947  10.059  10.922   8.532  2.4375  0.6992  1.9169
18362SOL    HW261948  10.046  11.073   8.528  0.2616  0.5262  0.9276
18363SOL     OW61949   3.157   7.139   1.416 -0.1626  0.1573 -0.2448
18363SOL    HW161950   3.159   7.128   1.321 -1.7197  2.5565 -0.6509
18363SOL    HW261951   3.249   7.151   1.440  0.1720  0.5024 -1.5877
18364SOL     OW61952   9.640   9.805   3.776  0.3997 -0.1732 -0.0532
18364SOL    HW161953   9.665   9.741   3.709  2.3044 -0.3506  0.7553
18364SOL    HW261954   9.612   9.752   3.851  1.2853 -0.0945  0.3592
18365SOL     OW61955   4.943   9.357   5.801  0.3308 -0.0006 -0.5363
18365SOL    HW161956   5.027   9.397   5.824 -0.1916  1.3358 -0.8661
18365SOL    HW261957   4.962   9.304   5.723  0.7969  0.5560 -0.8033
18366SOL     OW61958   2.595   7.715   0.617 -0.3673 -0.1106  0.1597
18366SOL    HW161959   2.621   7.794   0.663 -1.1996 -0.3046  1.0145
18366SOL    HW261960   2.664   7.699   0.554 -1.2989  2.6331 -1.7219
18367SOL     OW61961   7.361   7.464   2.485  0.2229  0.6688 -0.1791
18367SOL    HW161962   7.370   7.492   2.576 -1.2247  3.6597 -0.8205
18367SOL    HW261963   7.267   7.455   2.471  0.4729 -0.7837 -1.1431
18368SOL     OW61964   8.606   5.971   1.734  0.3984  0.1392 -0.4907
18368SOL    HW161965   8.517   5.943   1.714  0.2856  0.1813 -0.0551
18368SOL    HW261966   8.634   5.913   1.805  0.5510  0.4225 -0.3178
18369SOL     OW61967   1.555   8.842  11.242  0.7268  0.5402  1.0892
18369SOL    HW161968   1.612   8.915  11.266  0.9398 -0.2987  3.3818
18369SOL    HW261969   1.549   8.789  11.322 -3.6137  0.7802  1.1355
18370SOL     OW61970   8.885  11.208   8.829  0.4881  0.3325  0.4971
18370SOL    HW161971   8.800  11.212   8.873 -0.9281 -1.0804 -1.8471
18370SOL    HW261972   8.929  11.133   8.868  0.9832  1.4649  2.1868
18371SOL     OW61973  11.045   7.215  10.979  0.4459  0.5081 -0.6209
18371SOL    HW161974  11.124   7.206  11.033 -0.8159  0.2444  1.2776
18371SOL    HW261975  11.053   7.303  10.940  0.6758  1.4110  1.3214
18372SOL     OW61976   8.786   5.157   8.734 -0.1112  0.9603 -0.0912
18372SOL    HW161977   8.803   5.208   8.655 -0.6178  1.3393  0.0391
18372SOL    HW261978   8.692   5.163   8.747 -0.0880  0.5497  0.3079
18373SOL     OW61979   8.048   6.930   0.525 -0.0484  0.3713 -0.2049
18373SOL    HW161980   8.004   6.957   0.445  0.7939  1.6468 -0.2627
18373SOL    HW261981   7.981   6.884   0.576 -0.9575  0.7710 -1.0286
18374SOL     OW61982   1.504   9.616   5.113  0.5066  0.0595  0.2739
18374SOL    HW161983   1.586   9.580   5.080 -0.4005 -0.9550 -0.9331
18374SOL    HW261984   1.478   9.557   5.184  0.9823  0.6000  0.9190
18375SOL     OW61985   5.650   0.261   0.128 -0.2975  0.2742 -0.1316
18375SOL    HW161986   5.603   0.222   0.202 -1.1651  1.9304  0.2445
18375SOL    HW261987   5.739   0.230   0.137 -0.4508  0.2206  1.4750
18376SOL     OW61988   4.002   7.151   5.490  0.7737 -0.1449  0.3888
18376SOL    HW161989   3.974   7.081   5.549  0.9283  0.5336  1.2850
18376SOL    HW261990   3.955   7.229   5.519  1.1942  0.3068 -0.1013
18377SOL     OW61991   9.125   9.227   8.985  0.2933 -0.1282 -0.5212
18377SOL    HW161992   9.047   9.173   8.999  0.5422 -0.8671 -1.8043
18377SOL    HW261993   9.192   9.185   9.037 -0.1901  0.6144  0.7318
18378SOL     OW61994  10.866   8.991  10.803  0.3312 -0.5775  0.1078
18378SOL    HW161995  10.843   8.906  10.766  0.5003 -0.7696  0.4442
18378SOL    HW261996  10.860   9.051  10.729  0.3717 -0.9106 -0.1680
18379SOL     OW61997   3.953   6.239   0.127  0.2369  0.6078  1.2360
18379SOL    HW161998   4.045   6.231   0.151  0.6679  0.7527 -0.2540
18379SOL    HW261999   3.925   6.322   0.165  0.9562  0.9522  1.0256
18380SOL     OW62000   9.923  11.186   3.333 -0.7364  0.0787  0.5000
18380SOL    HW162001   9.921  11.277   3.302 -2.5135 -0.3865 -0.9115
18380SOL    HW262002   9.831  11.162   3.341 -0.2915 -1.6437  0.7220
18381SOL     OW62003   9.492   9.724   0.070 -0.6292  0.8212 -0.3096
18381SOL    HW162004   9.518   9.647   0.018 -0.8363 -0.5310  1.4931
18381SOL    HW262005   9.574   9.767   0.091 -0.2168 -0.4766  0.9335
18382SOL     OW62006   6.655   7.735  10.415  0.5155  0.0076 -0.1354
18382SOL    HW162007   6.695   7.747  10.501  0.7773 -1.1827 -0.0792
18382SOL    HW262008   6.662   7.641  10.398  1.6526  0.3759 -2.0298
18383SOL     OW62009  11.254   2.522   2.981 -0.1370 -0.0192  0.1665
18383SOL    HW162010  11.191   2.591   2.959 -0.0551  0.2961  0.9004
18383SOL    HW262011  11.206   2.462   3.038  0.3508  0.4844  1.1361
18384SOL     OW62012  10.977   0.967  10.743  0.2247 -0.1545  0.0532
18384SOL    HW162013  10.947   1.054  10.720  1.3136 -0.0066 -0.8454
18384SOL    HW262014  11.064   0.980  10.780 -0.1197 -0.7445  1.1521
18385SOL     OW62015   4.429  11.109   4.385 -0.1497  0.4260  0.3119
18385SOL    HW162016   4.377  11.178   4.426 -0.1257  0.9290 -0.4891
18385SOL    HW262017   4.377  11.030   4.397 -1.7433  1.1175 -1.5746
18386SOL     OW62018   3.041   4.847   9.626  0.0810  0.0666 -0.0057
18386SOL    HW162019   3.113   4.871   9.567 -1.5965  1.2813 -1.6947
18386SOL    HW262020   3.038   4.752   9.622  1.8997 -0.0563  0.5440
18387SOL     OW62021   7.622   8.465   7.925  0.8613  0.7250  0.0403
18387SOL    HW162022   7.614   8.462   8.021  0.4097  2.3830  0.0881
18387SOL    HW262023   7.614   8.558   7.904 -1.6767  0.1611 -1.8327
18388SOL     OW62024   0.083   3.721   6.856 -0.2693  0.3620  0.8303
18388SOL    HW162025   0.037   3.804   6.868 -1.4091 -0.5748  3.6287
18388SOL    HW262026   0.060   3.669   6.933  4.9031 -0.5064  2.1570
18389SOL     OW62027   1.184   8.744   7.108  0.2627  0.4846 -0.5805
18389SOL    HW162028   1.254   8.690   7.144 -0.6450 -0.3826 -0.0569
18389SOL    HW262029   1.168   8.709   7.021  0.1787  0.3972 -0.5297
18390SOL     OW62030   9.417   9.326   4.671 -0.3406 -0.3259 -0.0693
18390SOL    HW162031   9.420   9.420   4.650 -0.9263 -0.4522 -0.7699
18390SOL    HW262032   9.345   9.292   4.618  0.7071 -1.4351 -0.8374
18391SOL     OW62033   3.926   7.676  11.958 -0.3540  0.0244  0.0975
18391SOL    HW162034   3.897   7.593  11.996 -1.5163  1.1839  1.9067
18391SOL    HW262035   3.850   7.734  11.966  1.2551  2.0755  1.4343
18392SOL     OW62036   4.278   0.008   3.889  0.2739  0.5190 -0.5483
18392SOL    HW162037   4.310  -0.063   3.944 -0.3182 -1.4146 -2.5474
18392SOL    HW262038   4.347   0.074   3.891 -0.0703  0.9588  3.0847
18393SOL     OW62039   7.970   2.169   5.718  0.2351  0.1520  1.1295
18393SOL    HW162040   7.965   2.122   5.801 -2.3760 -0.3261  0.7656
18393SOL    HW262041   7.977   2.100   5.652 -0.2498  0.4096  0.8036
18394SOL     OW62042   7.738   3.967   3.548  0.9327  0.2469 -0.0901
18394SOL    HW162043   7.648   3.949   3.521  0.9138 -0.0557  0.1735
18394SOL    HW262044   7.781   3.881   3.545  1.0384  0.2809  0.4325
18395SOL     OW62045   8.525   2.457   0.358 -0.3065  0.2135 -0.1632
18395SOL    HW162046   8.546   2.550   0.367 -2.1574  0.4527  2.6587
18395SOL    HW262047   8.607   2.412   0.379  0.0738  1.1700  0.4632
18396SOL     OW62048   4.135   8.940  11.455  0.2148 -0.3895 -0.0777
18396SOL    HW162049   4.129   8.868  11.517  0.6323  1.0784  1.7314
18396SOL    HW262050   4.108   9.017  11.504 -2.1838  0.4835 -2.5080
18397SOL     OW62051   8.556   5.425   2.082  0.6767 -0.1539  0.4478
18397SOL    HW162052   8.536   5.410   1.990  2.1055  3.1846 -0.5336
18397SOL    HW262053   8.471   5.416   2.127 -0.1162 -1.3985 -1.1864
18398SOL     OW62054   6.617   3.123   2.970  0.1587 -0.4047  0.4158
18398SOL    HW162055   6.607   3.209   2.928 -0.2821  0.4362  2.1386
18398SOL    HW262056   6.710   3.118   2.991  0.2679 -0.5546 -0.0953
18399SOL     OW62057   8.488   3.306   8.637  0.3955 -0.6601  0.1848
18399SOL    HW162058   8.520   3.378   8.692  1.1430 -1.5099  0.8688
18399SOL    HW262059   8.496   3.228   8.692 -1.4832 -1.1247 -0.1384
18400SOL     OW62060   6.205   2.606   4.398  0.2305 -0.1582  0.4495
18400SOL    HW162061   6.247   2.579   4.317 -0.9112 -0.1829 -0.1503
18400SOL    HW262062   6.130   2.659   4.370  0.2346  0.4298  1.5040
18401SOL     OW62063   7.415   1.829   4.581 -0.5865 -0.3671 -0.4906
18401SOL    HW162064   7.407   1.914   4.537 -0.7238 -0.6669 -1.0449
18401SOL    HW262065   7.378   1.766   4.519 -1.7050 -0.6683  0.4419
18402SOL     OW62066   8.874   6.649   4.898 -0.1592 -0.2460 -0.2286
18402SOL    HW162067   8.816   6.704   4.844  2.4330  1.2508 -1.6672
18402SOL    HW262068   8.960   6.658   4.857  2.4462  2.2806  4.9068
18403SOL     OW62069   6.466   4.466   2.811  0.1734  0.2192  0.2555
18403SOL    HW162070   6.470   4.510   2.727  1.3164 -1.1857 -0.4791
18403SOL    HW262071   6.398   4.400   2.800 -0.0201  0.3607  0.6032
18404SOL     OW62072  10.994   8.140   4.214 -0.7889  0.4465 -0.2327
18404SOL    HW162073  10.956   8.215   4.168 -0.4067  0.0636 -1.2016
18404SOL    HW262074  10.920   8.100   4.260 -2.3979 -2.0420 -4.4320
18405SOL     OW62075   8.586   3.454   4.547 -0.4273 -0.1132  0.3221
18405SOL    HW162076   8.593   3.403   4.466 -0.2500  0.9614 -0.3550
18405SOL    HW262077   8.527   3.526   4.526 -0.5063  0.0911  1.1999
18406SOL     OW62078   0.143   0.739   0.498  0.6853  0.1333 -0.1121
18406SOL    HW162079   0.053   0.746   0.528  1.3520  0.8102  1.8474
18406SOL    HW262080   0.154   0.647   0.475  0.1824 -0.5110  2.0300
18407SOL     OW62081  10.988  12.323   9.190  0.2202  0.0021  0.5245
18407SOL    HW162082  11.008  12.391   9.126  1.6075  0.5136  1.4700
18407SOL    HW262083  10.985  12.242   9.138 -2.0781  0.7766 -0.7126
18408SOL     OW62084   7.118   7.455  10.261 -0.4610 -0.0896  0.2879
18408SOL    HW162085   7.110   7.519  10.331 -1.6819  0.6773 -0.5133
18408SOL    HW262086   7.030   7.418  10.252 -0.3882  0.0096 -1.0010
18409SOL     OW62087   5.554  10.755   8.858  0.2846  0.1279 -0.1641
18409SOL    HW162088   5.547  10.664   8.829  1.4523 -1.4948  3.9896
18409SOL    HW262089   5.648  10.769   8.866  0.0875  1.5637 -0.1936
18410SOL     OW62090   2.532   5.861  10.532 -0.3894  0.4114 -0.3794
18410SOL    HW162091   2.586   5.940  10.524 -2.0701  1.9476  2.0433
18410SOL    HW262092   2.530   5.825  10.443 -0.3541  3.6651 -1.8502
18411SOL     OW62093   2.524   6.760   2.620  0.0754  0.3817  0.0576
18411SOL    HW162094   2.545   6.844   2.580  1.1305  0.2053  0.2043
18411SOL    HW262095   2.532   6.776   2.714  1.2754 -0.1137  0.0569
18412SOL     OW62096   7.551   6.080   8.640 -0.1171  0.0948  0.2602
18412SOL    HW162097   7.542   6.034   8.557  0.9589  0.1128  0.1198
18412SOL    HW262098   7.465   6.118   8.656 -1.1786 -2.2996  0.6004
18413SOL     OW62099   1.223   0.021   9.177  0.0029 -0.2306 -0.3089
18413SOL    HW162100   1.183   0.094   9.224  0.8168 -1.0056  1.6877
18413SOL    HW262101   1.150  -0.037   9.156 -0.3300 -0.1004  0.4510
18414SOL     OW62102   7.116   2.932   1.224 -0.5343  0.7984  0.2635
18414SOL    HW162103   7.041   2.919   1.167 -0.8613  1.2800  0.5703
18414SOL    HW262104   7.141   3.024   1.211  1.7163  0.0027 -1.8620
18415SOL     OW62105   0.971   1.174   8.404 -0.2814 -0.0176  0.0372
18415SOL    HW162106   0.967   1.153   8.310  0.3622 -0.0150  0.0008
18415SOL    HW262107   0.966   1.269   8.407  1.3165  0.1106 -0.1285
18416SOL     OW62108   3.040   8.615   5.678 -0.1270  0.1629  0.6241
18416SOL    HW162109   2.946   8.626   5.661 -0.5333 -1.3020  1.7145
18416SOL    HW262110   3.081   8.690   5.634 -1.5418 -0.5279 -2.1491
18417SOL     OW62111   5.948   7.048   4.731  0.1800 -0.1408 -0.5897
18417SOL    HW162112   5.911   6.960   4.731  0.7612 -0.4360  1.2604
18417SOL    HW262113   5.883   7.101   4.779  0.3057  0.2128 -0.8084
18418SOL     OW62114   7.773   2.420  11.528 -0.2791  0.1433  0.0491
18418SOL    HW162115   7.701   2.384  11.477  1.2112 -3.2625  0.0181
18418SOL    HW262116   7.838   2.447  11.463  0.1914 -0.9035  0.0613
18419SOL     OW62117   8.749   6.642   3.926  0.2639 -0.6340  0.1785
18419SOL    HW162118   8.794   6.658   4.009  1.1099 -1.1002 -0.1780
18419SOL    HW262119   8.657   6.661   3.945  0.7447  1.5542  0.5896
18420SOL     OW62120   0.548   5.358  10.268  0.0153 -0.1687 -0.2203
18420SOL    HW162121   0.533   5.435  10.322  0.2421  0.1821 -0.6526
18420SOL    HW262122   0.574   5.290  10.330 -2.2298 -0.5141  0.4436
18421SOL     OW62123   1.271   1.439   9.916  0.5395 -0.4238 -0.0014
18421SOL    HW162124   1.315   1.479   9.991 -0.3983 -1.1584  0.9789
18421SOL    HW262125   1.193   1.398   9.953 -0.1151 -0.5451 -1.4398
18422SOL     OW62126  11.208   9.937  10.047  0.5349  0.3586  0.4056
18422SOL    HW162127  11.262   9.877   9.996  0.6310  1.0262 -0.3088
18422SOL    HW262128  11.151   9.881  10.099  0.9582 -0.3437  0.1185
18423SOL     OW62129  10.800   1.750   2.780  0.0449 -0.0385  0.2975
18423SOL    HW162130  10.738   1.791   2.719  0.0466  1.6656  1.3734
18423SOL    HW262131  10.865   1.818   2.797 -0.7480  0.1080  3.2947
18424SOL     OW62132   5.425   3.882   3.333  0.0636 -0.1026  0.5496
18424SOL    HW162133   5.422   3.867   3.238  0.6822 -1.2902  0.7026
18424SOL    HW262134   5.347   3.934   3.351 -0.9749 -1.2824 -0.3715
18425SOL     OW62135   0.303   4.856   6.869  0.1658  0.6062  0.4104
18425SOL    HW162136   0.386   4.836   6.825  0.1300 -0.0233  0.6197
18425SOL    HW262137   0.259   4.772   6.876  1.0262  0.2588  3.4226
18426SOL     OW62138   7.311   7.875  12.034 -0.2766  0.0330 -0.4428
18426SOL    HW162139   7.249   7.853  11.964 -1.0358 -0.5834  0.3954
18426SOL    HW262140   7.279   7.827  12.110  0.6656  0.5113  0.2769
18427SOL     OW62141  11.650   0.582   0.777  0.6517  0.9663 -0.1787
18427SOL    HW162142  11.560   0.610   0.797  0.5263  0.6854 -0.3433
18427SOL    HW262143  11.672   0.629   0.697  1.3953  2.6028  0.9157
18428SOL     OW62144   2.082   9.057   1.894  0.3163  0.1270  0.0850
18428SOL    HW162145   2.069   9.021   1.981 -0.5188 -1.4365 -0.6380
18428SOL    HW262146   2.146   9.127   1.906 -0.0313  0.1688  1.9825
18429SOL     OW62147   8.415  10.139  10.643 -0.0587 -0.3767 -0.2605
18429SOL    HW162148   8.493  10.133  10.588  2.8637 -1.4260  3.5630
18429SOL    HW262149   8.418  10.061  10.698 -2.8641  0.4408  1.2276
18430SOL     OW62150   7.670   8.693  10.072 -0.0807  0.1885 -0.4687
18430SOL    HW162151   7.620   8.638  10.132 -0.2276  0.1954 -0.5873
18430SOL    HW262152   7.637   8.672   9.985 -0.7679  1.1082 -0.4465
18431SOL     OW62153  10.574   4.546   0.330  0.0815 -0.1462 -0.2465
18431SOL    HW162154  10.534   4.630   0.352 -0.7522 -0.4428 -0.5662
18431SOL    HW262155  10.597   4.507   0.414  2.9468  1.5067 -0.1255
18432SOL     OW62156  10.889   2.319  11.032 -0.1210 -0.1321  0.1501
18432SOL    HW162157  10.865   2.295  10.943  0.4975  1.2395 -0.4274
18432SOL    HW262158  10.806   2.318  11.081 -0.6027 -0.0720 -0.6484
18433SOL     OW62159   7.239   1.481   5.279 -0.0989  0.0578 -0.4946
18433SOL    HW162160   7.163   1.453   5.329 -1.1492  1.1608 -1.3958
18433SOL    HW262161   7.314   1.452   5.331 -1.1244 -0.5150  0.7320
18434SOL     OW62162  10.302   3.488   7.030 -0.2600 -0.0807  0.1131
18434SOL    HW162163  10.256   3.516   6.951  0.0812 -0.8333 -0.3720
18434SOL    HW262164  10.374   3.434   6.997  1.9682  2.3369  0.7396
18435SOL     OW62165  10.913  11.791  10.886  0.1087  0.0205 -0.7060
18435SOL    HW162166  10.924  11.710  10.935  0.2226 -1.1247 -2.5358
18435SOL    HW262167  11.002  11.824  10.873  0.2133 -0.5550 -1.5198
18436SOL     OW62168   1.695   1.055   2.956 -0.3021 -0.1965 -0.3168
18436SOL    HW162169   1.641   0.976   2.947 -1.5715  0.5354  0.5744
18436SOL    HW262170   1.664   1.113   2.886 -1.3871  0.6004  0.7883
18437SOL     OW62171   0.748   3.157   5.262  0.1340  0.1452 -0.0124
18437SOL    HW162172   0.664   3.133   5.223 -0.9607  1.3675  1.4734
18437SOL    HW262173   0.736   3.139   5.355  2.3406 -1.8028 -0.0129
18438SOL     OW62174   5.550   5.792  10.657  0.2985  0.0334 -0.0272
18438SOL    HW162175   5.562   5.746  10.574 -1.5774 -1.5442  0.5001
18438SOL    HW262176   5.478   5.853  10.640  1.0549  0.9591  0.0037
18439SOL     OW62177   7.034  11.515   7.296  0.0947 -0.5526 -0.0469
18439SOL    HW162178   7.027  11.430   7.340 -0.6484 -0.1489  0.6357
18439SOL    HW262179   6.944  11.543   7.283  0.3131 -0.2849 -1.1249
18440SOL     OW62180   1.025   9.113   3.184  0.7443 -0.5286  0.3801
18440SOL    HW162181   0.958   9.046   3.181 -0.1551  0.4011 -1.4178
18440SOL    HW262182   1.084   9.092   3.112 -0.8043  1.7917 -1.6986
18441SOL     OW62183   3.844   7.354   5.589  0.0315  0.1853  0.0977
18441SOL    HW162184   3.809   7.351   5.678  0.5638  0.1942  0.3100
18441SOL    HW262185   3.912   7.422   5.592 -0.4725  0.7358 -0.5106
18442SOL     OW62186  12.008   2.425   8.229  0.1461  0.3682  0.2213
18442SOL    HW162187  11.988   2.425   8.322  1.4208 -0.3914  0.5233
18442SOL    HW262188  12.046   2.511   8.212 -0.3167  0.5978  0.3457
18443SOL     OW62189   2.518   8.618   3.837  0.0397  0.0494  0.1320
18443SOL    HW162190   2.576   8.588   3.766 -0.2348  0.4895 -0.2847
18443SOL    HW262191   2.561   8.588   3.917  1.0192  0.6456 -0.1464
18444SOL     OW62192   3.779   6.701   0.007 -0.4076 -0.0132 -0.4420
18444SOL    HW162193   3.741   6.770  -0.046 -1.6961  0.0778  0.5660
18444SOL    HW262194   3.713   6.682   0.073  1.2421  0.0533  1.3011
18445SOL     OW62195   4.961  12.436   3.965  0.3022 -0.2494 -0.1979
18445SOL    HW162196   4.894  12.504   3.965  0.2642 -0.2877 -0.5801
18445SOL    HW262197   4.942  12.384   4.043  0.8101  0.6447  0.5527
18446SOL     OW62198   5.789   2.222   0.065  0.0638 -0.4668  0.0914
18446SOL    HW162199   5.711   2.190   0.020  0.7818 -1.5701 -0.4060
18446SOL    HW262200   5.856   2.228  -0.004  0.6896 -0.4888  0.6865
18447SOL     OW62201   6.009   6.096   6.822 -0.2980 -0.1404 -0.6247
18447SOL    HW162202   5.953   6.078   6.898 -0.4580 -1.6736 -1.0561
18447SOL    HW262203   6.013   6.012   6.776  2.5219 -0.1234 -0.5274
18448SOL     OW62204  12.399   6.261  10.421  0.5574  0.2649 -0.2345
18448SOL    HW162205  12.411   6.353  10.442 -0.5100  0.2620  0.4942
18448SOL    HW262206  12.349   6.261  10.340 -1.1724  0.3832  0.7859
18449SOL     OW62207   9.771   1.590   6.546 -0.5033 -0.6582  0.3946
18449SOL    HW162208   9.686   1.621   6.577  0.2642  1.1567  0.8455
18449SOL    HW262209   9.823   1.670   6.535  1.1391 -1.7116  0.0930
18450SOL     OW62210   9.686   5.021   7.443  0.1280 -0.2788  0.3687
18450SOL    HW162211   9.614   4.988   7.496  0.3393 -2.6719 -0.7334
18450SOL    HW262212   9.760   4.963   7.461  0.6612 -0.2130 -1.3359
18451SOL     OW62213  11.915   6.970   4.557  0.4191 -0.2730  0.5057
18451SOL    HW162214  11.936   6.883   4.523 -1.6949 -0.0724 -1.5978
18451SOL    HW262215  11.857   7.008   4.491  0.2614  2.2595  1.9727
18452SOL     OW62216   8.510  12.087   1.693  0.3775  0.1405 -0.6296
18452SOL    HW162217   8.587  12.072   1.639 -0.6371  2.3134 -2.8465
18452SOL    HW262218   8.542  12.080   1.783  2.5070 -1.7531 -1.4498
18453SOL     OW62219   6.874   7.731   9.790 -0.6095  0.5839 -0.0405
18453SOL    HW162220   6.850   7.815   9.750 -0.4944  0.1304 -1.1030
18453SOL    HW262221   6.874   7.669   9.717 -1.0794 -0.4264  0.7920
18454SOL     OW62222   7.045  10.431  10.071 -0.2224 -0.1325  0.2758
18454SOL    HW162223   6.980  10.452  10.004 -0.3512 -0.7027  0.2209
18454SOL    HW262224   7.064  10.515  10.113 -1.6343 -0.0728  0.8624
18455SOL     OW62225   9.192   0.577  10.056 -0.3756 -0.3022 -0.1757
18455SOL    HW162226   9.115   0.569  10.111 -0.5292  0.4648 -0.2702
18455SOL    HW262227   9.196   0.670  10.033  0.6078 -0.3158 -0.1232
18456SOL     OW62228   8.637   7.561   5.253  0.1274 -0.4983  1.1539
18456SOL    HW162229   8.710   7.611   5.218 -0.9884 -0.6540 -1.6517
18456SOL    HW262230   8.677   7.499   5.314  2.1627  0.2582  0.6670
18457SOL     OW62231   5.560  11.564  10.276  0.4514 -0.0847  0.1558
18457SOL    HW162232   5.591  11.644  10.318 -1.6231  1.1093 -0.3930
18457SOL    HW262233   5.624  11.547  10.207  0.1472  2.0753 -0.7554
18458SOL     OW62234   8.781   5.267   6.584 -0.3532 -0.6259  0.0406
18458SOL    HW162235   8.742   5.182   6.604  1.7330 -1.0147  3.1648
18458SOL    HW262236   8.815   5.298   6.668  1.7868  1.8179 -1.5661
18459SOL     OW62237   9.923   2.378   4.848 -0.7129 -0.3480 -0.9631
18459SOL    HW162238   9.916   2.328   4.929  0.1988  0.0487 -0.6227
18459SOL    HW262239   9.909   2.314   4.779  0.1970 -1.0459 -0.5255
18460SOL     OW62240   6.179   6.445   7.588  0.5454  0.6431  0.9155
18460SOL    HW162241   6.137   6.520   7.545 -0.8995 -0.9524 -0.5861
18460SOL    HW262242   6.134   6.437   7.672 -0.4303  0.5001  0.3950
18461SOL     OW62243  11.751   4.547   9.159 -0.0077  0.3236 -0.3369
18461SOL    HW162244  11.825   4.608   9.159 -1.6157  2.3943  0.3908
18461SOL    HW262245  11.771   4.485   9.089  1.9701  1.3552 -0.7620
18462SOL     OW62246   0.013   6.187   3.766 -0.0338  0.4858  0.7649
18462SOL    HW162247  -0.049   6.116   3.784 -0.5198  0.4989 -0.7312
18462SOL    HW262248  -0.033   6.244   3.704  0.8259  1.4375  0.9773
18463SOL     OW62249   3.823   6.238   1.323  0.3578 -0.2553  0.0558
18463SOL    HW162250   3.808   6.158   1.373  1.2582  0.5294  1.6536
18463SOL    HW262251   3.737   6.279   1.315  0.1382 -0.6049  0.5998
18464SOL     OW62252  12.160  12.140   3.313  0.4247 -0.3444 -0.1613
18464SOL    HW162253  12.243  12.132   3.267  0.0238 -0.8322 -0.8048
18464SOL    HW262254  12.095  12.152   3.244 -0.0228  0.2512  0.3455
18465SOL     OW62255  12.477   3.193   3.917 -0.3817 -0.1498 -0.0565
18465SOL    HW162256  12.504   3.136   3.844  0.8957  0.4394 -0.0675
18465SOL    HW262257  12.423   3.260   3.875  1.9790  1.3811 -0.8964
18466SOL     OW62258  10.496  10.629  10.319  0.2376 -0.3639 -0.3889
18466SOL    HW162259  10.547  10.549  10.323  1.3887  0.2642 -1.8273
18466SOL    HW262260  10.550  10.695  10.363  0.3537  0.1374 -1.2670
18467SOL     OW62261   4.669   9.283   7.540  0.6542  0.1136  0.2815
18467SOL    HW162262   4.693   9.256   7.628  0.6876 -0.4901  0.0893
18467SOL    HW262263   4.638   9.374   7.550  0.0602 -0.1579  1.0058
18468SOL     OW62264  11.801   3.446  10.433  0.1023  0.0500 -0.4264
18468SOL    HW162265  11.861   3.495  10.488 -0.5283  0.3756 -0.0099
18468SOL    HW262266  11.839   3.448  10.345  0.1003  1.2552 -0.4040
18469SOL     OW62267  10.638   5.514   0.869 -0.1471  0.0197 -0.9931
18469SOL    HW162268  10.668   5.590   0.919 -1.9288 -0.4545  0.9658
18469SOL    HW262269  10.711   5.452   0.872 -0.6863 -0.6489  2.5972
18470SOL     OW62270  10.941   9.867   7.030 -0.1525 -0.1404  0.7626
18470SOL    HW162271  10.979   9.780   7.019 -5.1063 -2.5873  0.1441
18470SOL    HW262272  10.972   9.917   6.955  0.1451 -2.5641 -0.8381
18471SOL     OW62273   4.002   7.286   0.197 -0.2013  0.3988  0.1329
18471SOL    HW162274   3.949   7.241   0.131 -0.7105  0.0864  0.7561
18471SOL    HW262275   4.039   7.217   0.251 -0.5220  0.6993  0.7413
18472SOL     OW62276  11.321   0.464   2.853 -0.2363  0.0564  0.4760
18472SOL    HW162277  11.321   0.427   2.764 -1.9727  1.6044 -0.2392
18472SOL    HW262278  11.351   0.392   2.909  0.5946 -1.0630 -1.3045
18473SOL     OW62279  10.898   6.705   0.236  0.2180  0.4492 -0.7729
18473SOL    HW162280  10.989   6.734   0.223  0.1088  0.9461 -0.4668
18473SOL    HW262281  10.845   6.774   0.196 -0.0571  0.8736  0.2712
18474SOL     OW62282   7.249   0.191  12.447 -0.5851  0.7427 -0.2501
18474SOL    HW162283   7.178   0.229  12.395  0.3794  1.6064 -0.9951
18474SOL    HW262284   7.271   0.259  12.510 -3.1963 -1.0747  2.9007
18475SOL     OW62285  10.998  11.557   7.187  0.2554  0.2431  0.0111
18475SOL    HW162286  10.981  11.465   7.165 -1.5013  0.4116  0.4623
18475SOL    HW262287  11.087  11.558   7.221  0.3769 -1.2543 -0.1986
18476SOL     OW62288   0.124   1.261   9.774  0.1801 -0.3884 -0.0049
18476SOL    HW162289   0.149   1.246   9.865 -2.6059 -1.1416  0.7437
18476SOL    HW262290   0.152   1.182   9.728  0.4075 -0.5900  0.4736
18477SOL     OW62291   1.038   8.672   4.460  0.2131 -0.4055  0.2331
18477SOL    HW162292   1.067   8.583   4.441 -0.0566 -0.2095 -1.2160
18477SOL    HW262293   0.957   8.682   4.409  0.0131  0.5275  0.7147
18478SOL     OW62294  11.066   9.667   6.110  0.1141 -0.1520 -0.2551
18478SOL    HW162295  11.140   9.718   6.143  0.3490 -0.3688 -0.4512
18478SOL    HW262296  11.007   9.660   6.186  0.3640 -0.1152 -0.0559
18479SOL     OW62297   1.364  11.076   7.330  0.1417 -0.1537  1.0198
18479SOL    HW162298   1.381  11.026   7.410 -1.2576 -2.8200 -0.2238
18479SOL    HW262299   1.269  11.089   7.331  0.2840  1.0360  0.4487
18480SOL     OW62300  12.168   1.356   1.733 -0.6305 -0.1400 -0.4027
18480SOL    HW162301  12.236   1.422   1.731  0.4062 -1.1753 -0.4607
18480SOL    HW262302  12.136   1.357   1.824  0.5219 -0.6707  0.0290
18481SOL     OW62303   9.380  12.156   8.980  0.5646 -0.7369 -0.8535
18481SOL    HW162304   9.428  12.213   8.920  2.1554 -2.5864 -1.4209
18481SOL    HW262305   9.378  12.204   9.063  2.1511  0.0162 -1.2176
18482SOL     OW62306   6.650  11.245   1.570 -0.1487  0.0917  0.4718
18482SOL    HW162307   6.685  11.302   1.638  0.9173 -0.6644  0.5926
18482SOL    HW262308   6.728  11.213   1.524 -0.7667 -0.6338 -0.0890
18483SOL     OW62309   0.718   5.145  11.406 -0.2758 -0.1543  0.3193
18483SOL    HW162310   0.715   5.228  11.358  1.0070 -0.5970 -0.6012
18483SOL    HW262311   0.640   5.146  11.461 -1.2093  0.8979 -0.9516
18484SOL     OW62312   9.872   5.444   2.929 -0.2459  0.2482  0.0641
18484SOL    HW162313   9.785   5.482   2.913 -0.2190  0.4439  0.3843
18484SOL    HW262314   9.930   5.520   2.939 -0.2572  0.1250  1.0763
18485SOL     OW62315   1.254   5.343   3.433 -0.0433 -0.2595  0.5957
18485SOL    HW162316   1.237   5.257   3.472 -0.2787 -0.9699 -1.0125
18485SOL    HW262317   1.182   5.398   3.465  0.6707 -0.3236  2.4803
18486SOL     OW62318   9.691   0.935  10.858  0.5328 -0.2901 -0.3600
18486SOL    HW162319   9.773   0.985  10.862 -0.7564  1.8665  1.3397
18486SOL    HW262320   9.627   0.997  10.823 -0.4808 -1.8482 -1.3853
18487SOL     OW62321  10.305   8.342   6.276 -0.2334  0.7960 -1.3192
18487SOL    HW162322  10.307   8.378   6.188  1.4131 -1.2332 -2.2086
18487SOL    HW262323  10.252   8.262   6.268 -0.5886  0.9120 -0.3158
18488SOL     OW62324   4.211   7.012  10.959  0.1140  0.2395 -0.0945
18488SOL    HW162325   4.214   6.918  10.977  0.0996 -0.2226 -2.1889
18488SOL    HW262326   4.303   7.039  10.957  0.1656  0.0328 -0.5561
18489SOL     OW62327  11.403  10.495   0.981  0.5856  0.5776 -0.3564
18489SOL    HW162328  11.322  10.543   0.963 -0.2518  0.3539  2.3428
18489SOL    HW262329  11.436  10.469   0.895 -1.3121  2.1174 -1.6204
18490SOL     OW62330   8.228   4.891  11.589  0.1114 -0.0754 -0.0411
18490SOL    HW162331   8.149   4.942  11.607 -0.3139 -0.7559  0.0348
18490SOL    HW262332   8.214   4.855  11.501  0.5150  0.1318 -0.1923
18491SOL     OW62333   2.236  11.337   1.175  0.4165  0.0218  0.2426
18491SOL    HW162334   2.186  11.413   1.206 -1.2273 -1.2876  0.9779
18491SOL    HW262335   2.232  11.275   1.249 -1.1395 -2.0702 -1.4650
18492SOL     OW62336   5.640  12.240   9.560  0.0688 -0.1976 -0.1119
18492SOL    HW162337   5.675  12.155   9.531  0.2803 -0.2266  0.2142
18492SOL    HW262338   5.617  12.225   9.652  1.1471  0.3996  0.2760
18493SOL     OW62339   7.518  10.772   1.446  0.1060 -0.5140  0.3916
18493SOL    HW162340   7.537  10.728   1.363 -0.1696 -0.4524  0.2954
18493SOL    HW262341   7.604  10.787   1.485  0.2004 -1.3741  0.5483
18494SOL     OW62342   8.340   8.389   3.797 -0.3150  0.1834 -0.0041
18494SOL    HW162343   8.432   8.389   3.825  0.0985 -0.6881 -1.2634
18494SOL    HW262344   8.291   8.368   3.877  0.6082  0.2727  0.6022
18495SOL     OW62345   9.348   9.734  11.013  0.1041 -0.2667 -0.7362
18495SOL    HW162346   9.387   9.725  11.100 -0.1505 -0.6793 -0.6627
18495SOL    HW262347   9.378   9.820  10.982  0.7540 -0.4145 -0.5253
18496SOL     OW62348  10.361   3.476  10.553  0.0013 -0.6030  0.0319
18496SOL    HW162349  10.393   3.397  10.508 -0.5928 -1.7161  1.4828
18496SOL    HW262350  10.434   3.538  10.546 -0.2877 -0.4476 -2.9719
18497SOL     OW62351   2.158   7.051   9.822  0.3047  0.3879 -0.4292
18497SOL    HW162352   2.076   7.093   9.798 -0.7568 -1.2649  0.1757
18497SOL    HW262353   2.176   7.085   9.910  0.2446  0.6825 -0.5272
18498SOL     OW62354   8.240  11.740  11.568  0.1168 -0.2829  0.4638
18498SOL    HW162355   8.182  11.664  11.569  0.2535 -0.4007 -0.3881
18498SOL    HW262356   8.272  11.746  11.659 -0.0001 -1.1602  0.5749
18499SOL     OW62357   2.733  11.260  11.925 -0.0257 -0.2160  0.5352
18499SOL    HW162358   2.724  11.298  11.838 -1.3015 -0.6211  0.4609
18499SOL    HW262359   2.774  11.329  11.977  1.4510 -0.2418 -0.5415
18500SOL     OW62360   2.753   1.919   1.374 -0.1281 -0.1440 -0.7927
18500SOL    HW162361   2.731   1.862   1.449  2.1682 -0.4729 -0.2932
18500SOL    HW262362   2.711   2.002   1.395  2.4707  0.6223  2.2852
18501SOL     OW62363   4.076   2.327   8.616  0.4578  0.2868  0.2473
18501SOL    HW162364   3.990   2.351   8.583  0.5353  0.6942  0.3296
18501SOL    HW262365   4.111   2.266   8.551 -0.4318 -0.9580  0.8915
18502SOL     OW62366   3.478   2.865   1.753 -0.0399 -0.1400 -0.0196
18502SOL    HW162367   3.408   2.870   1.818  0.7756 -0.5717  0.9232
18502SOL    HW262368   3.527   2.787   1.777  1.3647  0.7133 -0.0416
18503SOL     OW62369  10.621   7.198   1.283 -0.2864 -0.3409  0.5583
18503SOL    HW162370  10.557   7.182   1.213 -0.1434 -1.2592  0.6348
18503SOL    HW262371  10.606   7.289   1.307 -0.0923  0.1233 -0.9331
18504SOL     OW62372   7.850   9.453   4.712 -0.0640 -0.0300 -0.0472
18504SOL    HW162373   7.783   9.399   4.753  1.0515  0.2749  2.4007
18504SOL    HW262374   7.805   9.532   4.685 -1.0590 -0.7154 -0.4525
18505SOL     OW62375   9.767   6.782  11.720  0.1012  0.9966  1.2397
18505SOL    HW162376   9.852   6.824  11.733  0.4679  0.6818  0.0238
18505SOL    HW262377   9.715   6.808  11.796  1.2586  1.2530  1.9686
18506SOL     OW62378   3.019  10.239   8.185  0.2026 -0.2434  0.2305
18506SOL    HW162379   3.003  10.330   8.160  1.6046  0.6443  2.3178
18506SOL    HW262380   2.970  10.188   8.120 -0.2598  1.9538 -1.2805
18507SOL     OW62381  10.254   5.567   5.539  0.1725 -0.0784 -0.3908
18507SOL    HW162382  10.206   5.495   5.582  0.8693 -1.0252 -1.1511
18507SOL    HW262383  10.268   5.631   5.609  0.1301 -0.9892  0.4908
18508SOL     OW62384   9.098  10.705   0.765  0.4745 -0.1594  0.1419
18508SOL    HW162385   9.160  10.777   0.761  0.8459 -0.5285 -1.1214
18508SOL    HW262386   9.046  10.713   0.685 -1.5628  0.5155  1.4726
18509SOL     OW62387   9.340   1.154   0.342  0.6783  0.6675  0.6243
18509SOL    HW162388   9.287   1.078   0.318 -1.0078  1.6665  0.9538
18509SOL    HW262389   9.292   1.228   0.304  0.5037  1.8495  2.9828
18510SOL     OW62390   3.570   1.495  11.432  0.6756 -0.0825  0.3410
18510SOL    HW162391   3.593   1.588  11.439 -0.1091  0.0353  1.5744
18510SOL    HW262392   3.487   1.487  11.480  0.0099 -1.1644 -0.9167
18511SOL     OW62393   2.732   1.425   5.489  0.0634  0.0442 -0.2174
18511SOL    HW162394   2.737   1.458   5.400  2.4576  1.6628  0.4095
18511SOL    HW262395   2.665   1.479   5.531 -1.5660 -1.1740 -1.1250
18512SOL     OW62396   7.806   6.874   0.674 -0.0840 -0.0094 -0.1662
18512SOL    HW162397   7.725   6.835   0.642  0.6812 -1.0883 -0.8607
18512SOL    HW262398   7.830   6.823   0.751 -0.0899  0.3411  0.0716
18513SOL     OW62399   4.818   3.856   9.216 -0.1749  0.5559  0.7373
18513SOL    HW162400   4.880   3.913   9.262  0.2763 -0.2115  1.1128
18513SOL    HW262401   4.767   3.915   9.161  0.9539  1.2109  0.3475
18514SOL     OW62402  12.293   0.274  11.019  0.3378 -0.2598 -0.2930
18514SOL    HW162403  12.287   0.368  11.005  0.8345 -0.3365 -1.0749
18514SOL    HW262404  12.310   0.265  11.113 -1.5695  0.3354  0.1649
18515SOL     OW62405   0.194   7.693  11.849  0.3746  0.5502 -0.0546
18515SOL    HW162406   0.124   7.741  11.805 -0.6224 -0.0706  0.8059
18515SOL    HW262407   0.257   7.761  11.874 -0.3371  1.2377 -0.0827
18516SOL     OW62408  10.128   0.957   8.284 -0.6781 -0.6183  0.0314
18516SOL    HW162409  10.167   0.992   8.364 -0.0583  0.2601 -0.6312
18516SOL    HW262410  10.134   0.862   8.294  2.1536 -0.5708 -0.2319
18517SOL     OW62411   5.652   1.486   1.615  0.2383  0.0107  0.1044
18517SOL    HW162412   5.685   1.402   1.583  0.8577 -0.0380  0.8257
18517SOL    HW262413   5.564   1.494   1.578  0.3764 -0.7149 -0.3870
18518SOL     OW62414  10.352   7.932   8.771  0.4225 -0.0354 -0.5421
18518SOL    HW162415  10.371   7.993   8.842  1.5563 -1.2577  0.2449
18518SOL    HW262416  10.429   7.939   8.714 -1.0798  2.0145 -2.5285
18519SOL     OW62417   7.845   2.394   7.293 -0.5113 -0.6549  0.4079
18519SOL    HW162418   7.814   2.316   7.248  1.3010 -1.5805  0.6510
18519SOL    HW262419   7.782   2.462   7.271 -1.0042 -1.6742 -1.5072
18520SOL     OW62420   3.023  11.814   9.049  0.4177  0.2034 -0.2651
18520SOL    HW162421   3.038  11.792   8.957 -0.4602  1.3246 -0.7007
18520SOL    HW262422   2.953  11.755   9.077 -0.0946  0.6211 -0.6513
18521SOL     OW62423   5.668   8.375   2.108 -0.0154 -0.5050 -0.2025
18521SOL    HW162424   5.753   8.390   2.150 -0.5170  0.4597  0.5049
18521SOL    HW262425   5.621   8.319   2.170 -0.1991 -0.3537 -0.2065
18522SOL     OW62426   0.099  11.240  10.881 -0.0567  0.4577  0.0843
18522SOL    HW162427   0.075  11.279  10.797 -0.9370  0.2396  0.2257
18522SOL    HW262428   0.059  11.297  10.946  0.5461  0.5732  0.3556
18523SOL     OW62429   4.747   3.179   1.731  0.0906  0.3193 -0.2578
18523SOL    HW162430   4.679   3.129   1.686  0.7123 -0.6844 -0.0958
18523SOL    HW262431   4.798   3.114   1.778  2.0386  0.8754 -1.4959
18524SOL     OW62432   7.318   9.907   3.676 -0.0383 -0.2408  0.3483
18524SOL    HW162433   7.365   9.988   3.653 -0.4495 -0.3927 -1.1458
18524SOL    HW262434   7.368   9.871   3.749  1.3859  0.3129 -0.2953
18525SOL     OW62435  11.807   9.276   5.784 -0.0076 -0.6151 -0.8032
18525SOL    HW162436  11.741   9.245   5.845 -0.9353  0.4824 -1.2028
18525SOL    HW262437  11.890   9.240   5.816 -0.3703  0.4229  1.4564
18526SOL     OW62438   3.572   2.015   9.620  0.5763 -0.1683  0.5895
18526SOL    HW162439   3.484   2.030   9.653  0.3741  0.7469 -0.3336
18526SOL    HW262440   3.561   1.947   9.554  0.3724  0.7618 -0.3477
18527SOL     OW62441   3.326   5.912   8.172 -0.2656 -0.1072 -0.1676
18527SOL    HW162442   3.237   5.892   8.201 -0.1910  0.1648  0.2567
18527SOL    HW262443   3.382   5.883   8.243 -0.0023 -0.3990 -0.4917
18528SOL     OW62444   6.998  10.038  11.302 -0.2863  0.1787  0.3273
18528SOL    HW162445   7.093  10.051  11.309 -0.2265 -0.6851  1.3920
18528SOL    HW262446   6.984  10.016  11.210  0.6087 -0.1151  0.2428
18529SOL     OW62447  11.968  10.859  11.778  0.0843  0.2502 -0.9026
18529SOL    HW162448  11.999  10.950  11.776  1.0109  0.0499  1.5071
18529SOL    HW262449  11.994  10.824  11.692  0.5420  1.9815 -1.5200
18530SOL     OW62450   5.949   4.921   4.922 -0.1305  0.1657  0.1872
18530SOL    HW162451   5.860   4.949   4.944 -0.0303  1.5342 -1.0425
18530SOL    HW262452   5.944   4.896   4.830  0.6830 -0.1150  0.2111
18531SOL     OW62453  10.456   7.441   5.211 -0.0179  0.0570 -0.2977
18531SOL    HW162454  10.505   7.480   5.282 -0.2747 -0.5003  0.1979
18531SOL    HW262455  10.384   7.394   5.254  0.0666 -0.6380 -0.8936
18532SOL     OW62456   4.791   2.437   8.147  0.2995  0.1760 -0.3348
18532SOL    HW162457   4.829   2.476   8.068 -1.7449  0.3255 -1.3066
18532SOL    HW262458   4.814   2.344   8.142 -0.8612 -0.0662 -1.8042
18533SOL     OW62459   8.634   2.629  10.339  0.2409  0.0569  0.3471
18533SOL    HW162460   8.614   2.691  10.270  0.5183  0.3927  0.5655
18533SOL    HW262461   8.708   2.668  10.386 -0.8252  0.5328  1.7023
18534SOL     OW62462  10.535   9.722   5.407  0.0544 -0.3774 -0.2959
18534SOL    HW162463  10.474   9.745   5.477  0.1156 -2.9949  0.7125
18534SOL    HW262464  10.621   9.738   5.445  0.0633 -0.2459 -0.3715
18535SOL     OW62465   3.072   8.105   9.167 -0.6246 -0.3998  0.1653
18535SOL    HW162466   3.125   8.077   9.241  0.8238  0.4910 -0.4841
18535SOL    HW262467   3.072   8.200   9.171 -0.3894 -0.3268 -1.0573
18536SOL     OW62468   6.011   4.372   6.674 -0.2695 -0.0781 -0.4843
18536SOL    HW162469   5.982   4.435   6.609 -0.2211  1.7624  1.1837
18536SOL    HW262470   6.070   4.313   6.627 -2.0921 -0.3235 -2.6006
18537SOL     OW62471   6.576   4.244   0.573  0.0706  0.2740 -0.0781
18537SOL    HW162472   6.581   4.287   0.658 -0.6137 -1.7420  1.0652
18537SOL    HW262473   6.543   4.311   0.514  1.1342  1.9030  1.0818
18538SOL     OW62474   7.913   1.099   3.149  0.6914 -0.0608  0.2681
18538SOL    HW162475   7.822   1.089   3.177  1.2179 -0.7572  1.7963
18538SOL    HW262476   7.920   1.192   3.124 -0.4389 -0.0140  0.0741
18539SOL     OW62477   3.672   4.951  11.347  0.5584 -0.3172  0.1397
18539SOL    HW162478   3.689   4.906  11.264 -3.5139 -0.4261 -0.8579
18539SOL    HW262479   3.700   5.042  11.331  1.1787 -0.6601 -0.8087
18540SOL     OW62480   3.529   3.480   9.960  0.4498 -0.0068 -0.2801
18540SOL    HW162481   3.488   3.394   9.946  1.5305 -0.3922 -1.2806
18540SOL    HW262482   3.620   3.459   9.982  0.8866  0.8913 -1.1846
18541SOL     OW62483  12.046   0.343   5.724 -0.4179  0.0240  0.0465
18541SOL    HW162484  12.015   0.267   5.773 -0.0063 -0.6918 -0.7787
18541SOL    HW262485  11.999   0.339   5.641 -1.1697  1.2673  0.3810
18542SOL     OW62486   7.592   7.752   6.210 -0.3688  0.6122 -0.3697
18542SOL    HW162487   7.655   7.729   6.142  1.5147  1.2805  1.0545
18542SOL    HW262488   7.506   7.733   6.171  0.6651  0.0863 -2.5469
18543SOL     OW62489   7.966   8.122   0.415 -0.5264 -0.3237 -0.4555
18543SOL    HW162490   7.948   8.029   0.406  3.1106 -1.2714  0.4398
18543SOL    HW262491   7.956   8.140   0.509  0.3586 -0.2668 -0.3578
18544SOL     OW62492   5.688   7.195   9.387 -0.0057 -0.2015  0.4651
18544SOL    HW162493   5.631   7.247   9.330 -1.0606 -1.7561  0.0268
18544SOL    HW262494   5.636   7.181   9.466  0.0506 -0.9772  0.3745
18545SOL     OW62495   6.230   1.578   4.272  0.0683 -0.1837  0.4185
18545SOL    HW162496   6.287   1.555   4.345 -0.0358  2.3205  1.3760
18545SOL    HW262497   6.206   1.669   4.287  0.9128  0.8488 -3.3254
18546SOL     OW62498  11.692   1.886   8.121  0.8009 -0.6073 -0.2759
18546SOL    HW162499  11.677   1.792   8.116 -0.2661 -0.3807 -1.9337
18546SOL    HW262500  11.630   1.924   8.059  1.0218  1.2221  0.5556
18547SOL     OW62501   2.328   6.858   9.700 -0.2385 -0.2506 -0.0487
18547SOL    HW162502   2.290   6.918   9.763 -1.2381 -0.3523 -0.5331
18547SOL    HW262503   2.383   6.800   9.752  0.3920  0.7943  0.4771
18548SOL     OW62504   1.695   0.178   2.655 -0.6491  0.8252  0.5179
18548SOL    HW162505   1.727   0.178   2.745 -0.8344 -0.4220  0.6105
18548SOL    HW262506   1.717   0.264   2.621  2.9854  0.0466  0.5311
18549SOL     OW62507  10.393   1.912   2.504  0.1491 -0.0263  0.6549
18549SOL    HW162508  10.448   1.947   2.434  0.2525  0.9082  1.1873
18549SOL    HW262509  10.446   1.844   2.545  0.5538  0.2470  0.5856
18550SOL     OW62510   0.177   2.901  11.092  0.2388  0.1733  0.3672
18550SOL    HW162511   0.173   2.838  11.164 -0.1547  0.6909  0.7976
18550SOL    HW262512   0.178   2.846  11.013  0.5043 -0.3892  0.7528
18551SOL     OW62513   9.521  11.959   3.509 -0.4431 -0.0246  0.3192
18551SOL    HW162514   9.462  12.031   3.487 -0.9035 -0.0068  1.5411
18551SOL    HW262515   9.567  11.989   3.587 -0.0855 -0.7521  0.3943
18552SOL     OW62516   0.923   5.680   5.539 -0.2116  0.0846 -0.2991
18552SOL    HW162517   0.884   5.611   5.593 -1.3434 -0.3315 -1.5833
18552SOL    HW262518   1.017   5.668   5.549 -0.3901 -0.4775  0.9299
18553SOL     OW62519   5.055   4.370   2.855 -0.1438  0.2392  0.4135
18553SOL    HW162520   5.024   4.291   2.900  0.1813  0.8732  1.7846
18553SOL    HW262521   4.977   4.407   2.814 -0.4172 -0.4191  0.3240
18554SOL     OW62522  11.015   3.151   2.477  0.0305  0.1770 -0.2594
18554SOL    HW162523  11.071   3.093   2.425 -0.3368 -1.1303  0.7222
18554SOL    HW262524  10.932   3.103   2.485 -0.2298  0.7605  0.7198
18555SOL     OW62525   2.477   8.764   1.916  0.1749  0.4459  1.0727
18555SOL    HW162526   2.570   8.751   1.896  0.6020  2.4439  1.5085
18555SOL    HW262527   2.442   8.808   1.838 -0.5486 -0.7484  0.7016
18556SOL     OW62528   4.827   4.388   5.926 -0.1287  0.4444 -0.1948
18556SOL    HW162529   4.893   4.425   5.868  0.5958  0.6063  0.7068
18556SOL    HW262530   4.746   4.433   5.901  0.0160 -0.0044 -1.5415
18557SOL     OW62531   2.749   3.119  10.297  0.4584 -0.0942 -0.0470
18557SOL    HW162532   2.833   3.164  10.295  0.0667  0.6544  0.0457
18557SOL    HW262533   2.690   3.175  10.247  0.0610 -0.7149 -0.2869
18558SOL     OW62534   1.658   8.400  10.367 -0.2025 -0.2773  0.2681
18558SOL    HW162535   1.701   8.356  10.294 -1.8147 -1.7551  0.1299
18558SOL    HW262536   1.569   8.416  10.336 -0.9998 -1.1432  1.9486
18559SOL     OW62537  11.009   1.957   3.961 -0.0640 -0.0963 -0.3265
18559SOL    HW162538  11.059   2.035   3.985 -1.3557  0.4860  0.6149
18559SOL    HW262539  11.071   1.902   3.913  2.2172 -0.5081  2.7954
18560SOL     OW62540  10.464   3.858   8.540 -0.4084 -0.5398  0.1644
18560SOL    HW162541  10.542   3.913   8.547  0.2032 -1.4300  0.4218
18560SOL    HW262542  10.402   3.897   8.602 -0.4138  0.5404 -0.4929
18561SOL     OW62543   7.378   7.187   1.044 -0.0249  0.2722  0.2284
18561SOL    HW162544   7.423   7.193   1.128  0.2322  1.3805  0.0232
18561SOL    HW262545   7.287   7.210   1.063 -0.0538  0.1209  0.2734
18562SOL     OW62546   6.955   2.474   8.674 -0.1486  0.7745 -0.6926
18562SOL    HW162547   7.012   2.415   8.625  0.8457  0.8138  0.3408
18562SOL    HW262548   6.949   2.553   8.620  2.3137  1.4818 -0.0669
18563SOL     OW62549   9.783  11.188   1.609 -0.2283  0.0390 -0.2937
18563SOL    HW162550   9.693  11.209   1.635  0.3186  1.1374  0.8477
18563SOL    HW262551   9.833  11.267   1.631  0.9886 -0.4918 -1.0623
18564SOL     OW62552   7.018   8.508   7.648 -0.4405 -0.2824  0.0155
18564SOL    HW162553   6.980   8.422   7.632 -1.3924  0.2719 -0.7731
18564SOL    HW262554   7.112   8.493   7.645 -0.5931 -1.1653 -0.8254
18565SOL     OW62555   6.047  11.582  11.280  0.0087 -0.2983 -0.2020
18565SOL    HW162556   6.121  11.617  11.329  1.6032 -1.9860 -1.2989
18565SOL    HW262557   6.064  11.488  11.274 -3.0085 -1.0178  0.7865
18566SOL     OW62558  10.758   9.195   0.505  0.2260 -0.2477  0.0394
18566SOL    HW162559  10.841   9.220   0.546  0.2061  0.0615 -0.1003
18566SOL    HW262560  10.763   9.100   0.496  1.3219 -0.0925 -1.5409
18567SOL     OW62561  12.128  10.179   0.132  0.1429 -0.0195 -0.4425
18567SOL    HW162562  12.042  10.216   0.149 -0.4048 -1.3173 -0.3342
18567SOL    HW262563  12.111  10.097   0.087  1.3118 -0.5643  0.0684
18568SOL     OW62564  10.854   1.486   7.275  0.2488  0.5506 -0.0619
18568SOL    HW162565  10.950   1.489   7.274  0.3180 -0.7953 -1.5602
18568SOL    HW262566  10.831   1.489   7.368  1.8481 -0.9249  0.4451
18569SOL     OW62567   0.487   8.009   3.898 -0.3426 -0.4198  0.1938
18569SOL    HW162568   0.465   7.979   3.809 -0.8163 -2.9038  1.0660
18569SOL    HW262569   0.403   8.024   3.940 -0.1312  2.6042 -0.2489
18570SOL     OW62570   1.094   2.871   9.183 -0.0564 -0.4054 -0.2511
18570SOL    HW162571   1.184   2.842   9.172  0.5374  1.7202 -1.5066
18570SOL    HW262572   1.047   2.833   9.108  0.4322  0.7365 -1.1606
18571SOL     OW62573  10.932   7.848  12.118  0.2377  0.0295  0.0050
18571SOL    HW162574  10.876   7.924  12.138 -0.1763 -0.6156  1.4214
18571SOL    HW262575  10.871   7.780  12.091  0.3507 -0.5312  1.0942
18572SOL     OW62576   0.053  10.816  10.626  0.4497 -0.3844  0.2689
18572SOL    HW162577   0.012  10.739  10.585 -0.4865 -0.3821  1.1735
18572SOL    HW262578  -0.019  10.876  10.643  1.0891  0.4287  0.1876
18573SOL     OW62579  12.129   5.299   2.035  0.2554 -0.6654  0.4593
18573SOL    HW162580  12.211   5.332   1.999  0.0197  0.3108  0.8075
18573SOL    HW262581  12.150   5.210   2.064  0.8542 -0.8887 -0.6145
18574SOL     OW62582  12.386   2.155   3.738  0.5040 -0.2095  0.1250
18574SOL    HW162583  12.341   2.225   3.785  0.3985 -1.2813  1.6849
18574SOL    HW262584  12.342   2.074   3.765  0.6510 -0.9167 -1.5930
18575SOL     OW62585  12.257   6.059   7.155 -0.1270 -0.1670 -0.3757
18575SOL    HW162586  12.336   6.044   7.103  0.0952  0.7312 -0.3080
18575SOL    HW262587  12.215   6.135   7.114  0.5845  1.2211  1.3515
18576SOL     OW62588   4.712   9.233  10.393 -0.1211 -0.2210  0.4408
18576SOL    HW162589   4.739   9.316  10.432 -1.0782  0.9035 -1.1750
18576SOL    HW262590   4.655   9.193  10.458  1.9937 -0.6934  2.1420
18577SOL     OW62591   6.878   8.403   0.658 -0.1794 -0.1117 -0.2459
18577SOL    HW162592   6.782   8.402   0.665 -0.2950 -2.3042 -1.1990
18577SOL    HW262593   6.896   8.447   0.575 -0.2753  1.2160  0.4147
18578SOL     OW62594   1.968   8.474   6.005 -0.4932 -0.2208  0.2294
18578SOL    HW162595   1.876   8.475   5.977 -0.9735 -1.6565  1.6572
18578SOL    HW262596   1.964   8.473   6.100  1.0270  0.0197  0.3155
18579SOL     OW62597   5.763   2.241   6.686  0.1998  0.3266  0.1326
18579SOL    HW162598   5.720   2.327   6.687  1.2179  0.8506 -0.2030
18579SOL    HW262599   5.690   2.179   6.682 -0.5373  1.2027 -0.7461
18580SOL     OW62600  10.610  11.280   8.033  0.4256  0.6852  0.2398
18580SOL    HW162601  10.591  11.343   8.102 -0.0281  0.8544 -0.0370
18580SOL    HW262602  10.586  11.325   7.952  0.2677  0.2287  0.0282
18581SOL     OW62603   1.809   5.679   3.824  0.3155  0.5552  0.3985
18581SOL    HW162604   1.726   5.711   3.859  0.5722  0.0814  1.4644
18581SOL    HW262605   1.874   5.742   3.857  0.6275 -0.1944  1.2688
18582SOL     OW62606   4.663  11.213   2.024  0.4872 -0.0490  0.2773
18582SOL    HW162607   4.691  11.304   2.014  2.2667 -0.1865  3.0801
18582SOL    HW262608   4.569  11.219   2.044  0.7783  1.2420  1.3709
18583SOL     OW62609   7.753  12.288   9.762  0.4153 -0.4322  0.6926
18583SOL    HW162610   7.781  12.321   9.848 -0.8642 -0.0762  0.9877
18583SOL    HW262611   7.746  12.367   9.708  0.2590 -0.5465  0.5473
18584SOL     OW62612  10.364  11.015   1.266  0.0380 -0.3086  0.5472
18584SOL    HW162613  10.358  11.030   1.360 -0.6842  0.6170  0.3716
18584SOL    HW262614  10.383  11.102   1.229 -1.3808 -0.3249 -0.2886
18585SOL     OW62615   0.365   3.500   9.063 -0.2373 -0.3473 -0.3587
18585SOL    HW162616   0.376   3.539   9.150 -0.3859  0.2761 -0.6133
18585SOL    HW262617   0.420   3.553   9.006  0.8502 -1.5279 -0.4510
18586SOL     OW62618   2.697   1.965   5.498 -0.0305  0.4032 -0.4472
18586SOL    HW162619   2.775   2.014   5.525 -0.5019  1.9655 -1.7260
18586SOL    HW262620   2.674   2.003   5.413 -1.5691 -0.7552 -0.5822
18587SOL     OW62621  11.080   4.772   2.708  0.1684 -0.5963  0.0508
18587SOL    HW162622  11.071   4.759   2.803 -0.9178 -0.9046 -0.0889
18587SOL    HW262623  11.038   4.696   2.669 -2.4826  1.1228 -0.7335
18588SOL     OW62624   5.052  10.568   2.831  0.7756 -0.8440  0.3572
18588SOL    HW162625   5.111  10.503   2.867  1.2182 -1.4912 -1.4166
18588SOL    HW262626   5.019  10.617   2.907  2.4887 -1.3849  1.4882
18589SOL     OW62627   2.086   5.777   3.975 -0.2591 -0.8712 -0.3636
18589SOL    HW162628   2.145   5.701   3.974  1.8420  0.6017  0.9290
18589SOL    HW262629   2.079   5.800   4.068 -0.4828  0.7550 -0.7473
18590SOL     OW62630   9.936   7.447   3.324  0.5991  0.4968  0.3368
18590SOL    HW162631   9.868   7.386   3.349  0.4127  0.6739  0.2664
18590SOL    HW262632   9.924   7.460   3.230  1.1713 -0.0164  0.1849
18591SOL     OW62633   9.136   0.132   3.824  0.4908 -0.2562  0.1049
18591SOL    HW162634   9.162   0.194   3.756 -0.1201 -0.0521  0.0549
18591SOL    HW262635   9.085   0.184   3.886 -2.7517 -1.2340 -1.5031
18592SOL     OW62636   8.251   6.933   6.027  0.7503 -0.0929  0.3743
18592SOL    HW162637   8.199   6.989   5.970  1.1991 -0.5052 -0.4519
18592SOL    HW262638   8.209   6.847   6.021 -0.3101  0.2638  2.1213
18593SOL     OW62639   3.850   7.162   9.555 -0.5771  0.6083 -0.3780
18593SOL    HW162640   3.875   7.178   9.646 -1.3407 -1.9271  0.3562
18593SOL    HW262641   3.754   7.160   9.556 -0.6386  1.7743 -1.5059
18594SOL     OW62642   3.792  11.266   6.928  0.1393 -0.2644  0.2337
18594SOL    HW162643   3.854  11.200   6.958  0.4103  0.2186  0.7518
18594SOL    HW262644   3.823  11.291   6.842  1.1589  0.5731  0.8208
18595SOL     OW62645   6.882  10.660   7.382 -0.6257 -0.1220  0.2126
18595SOL    HW162646   6.808  10.720   7.379 -0.4772  0.1083  0.8860
18595SOL    HW262647   6.949  10.707   7.431 -0.0340 -0.3316 -0.3946
18596SOL     OW62648   4.615  11.751   7.687  0.2193 -0.1818  0.9189
18596SOL    HW162649   4.686  11.741   7.752  1.9318  0.2326 -0.7870
18596SOL    HW262650   4.623  11.673   7.632 -1.6309 -0.8474  1.5433
18597SOL     OW62651  11.641   9.029   8.527  0.1425  0.1722 -0.3587
18597SOL    HW162652  11.597   9.093   8.584  0.3500  0.0200 -0.0251
18597SOL    HW262653  11.626   9.062   8.439 -2.1849 -0.8119 -0.3954
18598SOL     OW62654   4.601   3.771  11.115  0.2251  0.0263 -0.1203
18598SOL    HW162655   4.626   3.706  11.049 -0.2478 -0.5473  0.2586
18598SOL    HW262656   4.582   3.720  11.194 -1.7471  0.4503 -0.2631
18599SOL     OW62657  10.897  11.081   6.131  0.0567  0.0649  0.0628
18599SOL    HW162658  10.979  11.130   6.128  0.5377 -0.7441 -1.0590
18599SOL    HW262659  10.924  10.989   6.122 -0.8886 -0.3339  1.0446
18600SOL     OW62660   9.459   4.830   1.894 -0.2233  0.3795  0.0293
18600SOL    HW162661   9.469   4.871   1.980  1.9082 -0.5323  0.2947
18600SOL    HW262662   9.410   4.749   1.911  0.9409 -0.2349  0.5748
18601SOL     OW62663   0.394  11.196   7.761 -0.3204 -0.3069  0.5686
18601SOL    HW162664   0.335  11.131   7.724  0.1121 -0.1061 -0.5012
18601SOL    HW262665   0.404  11.169   7.853 -0.3260 -1.6172  0.2117
18602SOL     OW62666  10.274   4.027   8.689  0.2237 -0.5495 -0.4867
18602SOL    HW162667  10.317   4.095   8.742 -0.8641 -0.8404  0.8179
18602SOL    HW262668  10.260   3.955   8.750 -1.3196 -0.7911 -1.1029
18603SOL     OW62669   4.655  10.716   9.592 -0.5333  0.3549  0.3637
18603SOL    HW162670   4.656  10.663   9.513 -1.1603  0.0272  0.5719
18603SOL    HW262671   4.653  10.653   9.664  1.0644  0.6295  0.6851
18604SOL     OW62672  12.217  10.862   6.960  0.3337  0.1983 -0.0305
18604SOL    HW162673  12.198  10.815   6.879  0.1968  0.8873 -0.4037
18604SOL    HW262674  12.312  10.875   6.959  0.2504  0.7671 -0.3883
18605SOL     OW62675   8.976   0.029   4.593  0.1826 -0.1513  0.7164
18605SOL    HW162676   8.890  -0.012   4.582  0.1817  0.2722 -1.1689
18605SOL    HW262677   8.958   0.110   4.641 -0.7716  0.8527 -1.2370
18606SOL     OW62678   9.721   4.934   7.727  0.2150 -0.8073 -0.2805
18606SOL    HW162679   9.786   4.883   7.679 -0.0104  0.5971 -2.2041
18606SOL    HW262680   9.637   4.893   7.706  0.2421 -1.0182  0.0272
18607SOL     OW62681   1.475   1.310   1.375 -0.1061  0.1648  0.8654
18607SOL    HW162682   1.446   1.386   1.426 -0.3190  1.2403 -0.7565
18607SOL    HW262683   1.395   1.280   1.331  0.2808  0.0043  0.2674
18608SOL     OW62684   9.236   2.505   5.607  0.0590 -0.4391 -0.1489
18608SOL    HW162685   9.181   2.564   5.659 -0.9375 -0.3596 -1.2578
18608SOL    HW262686   9.253   2.553   5.526  3.6013  0.4523  0.9269
18609SOL     OW62687   9.132   5.379   7.094 -0.4337 -0.4039  0.0185
18609SOL    HW162688   9.161   5.396   7.004  0.6283  0.1016  0.4367
18609SOL    HW262689   9.211   5.389   7.147 -1.0427 -0.7123  1.0130
18610SOL     OW62690  11.168   6.743   6.871  0.1775  0.0599 -0.0979
18610SOL    HW162691  11.241   6.788   6.913  0.4471 -0.3817 -0.0883
18610SOL    HW262692  11.094   6.804   6.880  0.3496  0.1767  0.5728
18611SOL     OW62693   9.778   3.088   9.708 -0.3300  0.1616  0.4964
18611SOL    HW162694   9.754   2.998   9.728  2.9335 -1.2749 -1.2230
18611SOL    HW262695   9.732   3.107   9.626  0.1625 -0.5043  0.0645
18612SOL     OW62696  10.380   1.781   4.838  0.0322 -0.4515 -0.1187
18612SOL    HW162697  10.355   1.844   4.906 -0.5901 -0.7781 -0.0347
18612SOL    HW262698  10.476   1.779   4.842  0.0871  0.7536 -0.3759
18613SOL     OW62699   9.441   1.736   7.041  0.0095  0.7650 -0.4007
18613SOL    HW162700   9.377   1.705   6.977 -1.1009 -0.5799  1.2874
18613SOL    HW262701   9.419   1.828   7.054 -1.4108  0.3905 -0.0612
18614SOL     OW62702   6.698   2.879   5.841 -0.1196 -0.1085 -0.2264
18614SOL    HW162703   6.683   2.968   5.808  1.1853  0.4764  0.6856
18614SOL    HW262704   6.638   2.871   5.915  1.1409  0.7737  0.9386
18615SOL     OW62705   0.531  11.193   3.270 -0.3590 -0.1156 -0.2465
18615SOL    HW162706   0.473  11.199   3.346 -2.5178 -1.6613 -1.6755
18615SOL    HW262707   0.598  11.130   3.297 -0.7051 -0.1476  0.5843
18616SOL     OW62708   9.625   2.784   2.154 -0.4158  0.3951 -0.0935
18616SOL    HW162709   9.594   2.792   2.064  0.5220 -0.0717 -0.4645
18616SOL    HW262710   9.591   2.700   2.183  0.8343 -0.3299 -0.6532
18617SOL     OW62711   5.124   2.079  11.745  0.5329  0.5318  0.2095
18617SOL    HW162712   5.102   2.063  11.653 -0.9464  2.5443  0.1581
18617SOL    HW262713   5.089   2.003  11.792 -0.8726  0.6294 -0.6302
18618SOL     OW62714   9.125   7.606   3.033 -0.2753 -0.3896  0.4563
18618SOL    HW162715   9.208   7.650   3.014 -0.1705 -0.5465  0.5461
18618SOL    HW262716   9.142   7.514   3.015 -0.1617 -0.5513  1.3364
18619SOL     OW62717   2.788   0.157   6.696 -0.0655 -0.1436 -0.3588
18619SOL    HW162718   2.848   0.121   6.761 -0.6435  0.2257  0.4057
18619SOL    HW262719   2.789   0.251   6.712 -1.0650 -0.1554 -0.1204
18620SOL     OW62720   0.332   8.355   0.934  0.1438 -0.1961 -0.5624
18620SOL    HW162721   0.320   8.278   0.988  0.0643  0.8132  0.9280
18620SOL    HW262722   0.284   8.425   0.980  1.0138  0.9565 -1.3339
18621SOL     OW62723  11.391   9.002   6.048 -0.2890 -0.4793 -0.7956
18621SOL    HW162724  11.446   9.079   6.038 -0.9259  0.2765  1.1852
18621SOL    HW262725  11.329   9.025   6.116 -0.8403 -2.5707 -0.5205
18622SOL     OW62726   7.368  10.304   0.650 -0.3901 -0.1156 -0.2043
18622SOL    HW162727   7.386  10.296   0.744  0.9503 -0.6788 -0.4841
18622SOL    HW262728   7.291  10.362   0.645 -0.8113 -0.5051  1.2497
18623SOL     OW62729   7.640   6.329   4.699  0.4394  0.0577 -0.2823
18623SOL    HW162730   7.547   6.328   4.676 -0.4243 -1.5738  2.7824
18623SOL    HW262731   7.677   6.253   4.654  0.2585  0.4701 -1.1629
18624SOL     OW62732   1.096  10.650  10.669 -0.1451  0.2510 -0.1786
18624SOL    HW162733   1.050  10.692  10.742  0.1221  1.6856 -0.7949
18624SOL    HW262734   1.095  10.557  10.691  0.2189  0.6640  1.8116
18625SOL     OW62735  11.175   0.832   9.373 -0.0365 -0.5395  0.1041
18625SOL    HW162736  11.142   0.829   9.283  0.9513  0.5227 -0.3123
18625SOL    HW262737  11.097   0.819   9.427 -0.7005 -0.8412 -0.8921
18626SOL     OW62738   8.555   5.446   8.968  0.1267 -0.1502 -0.3475
18626SOL    HW162739   8.619   5.483   9.029  0.8372 -0.0788 -1.1339
18626SOL    HW262740   8.471   5.484   8.996  0.3826 -0.3882  0.8021
18627SOL     OW62741   0.291   4.407  11.670  0.4178  0.2937 -0.4657
18627SOL    HW162742   0.286   4.358  11.588  1.8793 -2.0346  0.7101
18627SOL    HW262743   0.244   4.352  11.733  0.6145  1.2843  0.5674
18628SOL     OW62744   4.289  11.605   7.327 -0.5186  0.1168 -0.1872
18628SOL    HW162745   4.365  11.546   7.320  0.8240  1.8650 -1.2577
18628SOL    HW262746   4.215  11.551   7.301  0.5518 -1.2920 -0.4671
18629SOL     OW62747   4.341   4.505   5.000 -0.3409  0.3072 -0.1856
18629SOL    HW162748   4.318   4.495   4.908 -0.9312 -0.6115  0.0441
18629SOL    HW262749   4.423   4.456   5.010  0.2777  1.2764 -0.4303
18630SOL     OW62750   4.145  11.042  11.639 -0.0819  0.0099  0.4100
18630SOL    HW162751   4.120  11.134  11.629 -2.0700 -0.3289  1.6944
18630SOL    HW262752   4.158  11.031  11.733  0.3645 -0.9758  0.2466
18631SOL     OW62753  12.402   4.554   7.137  0.2844 -0.4221 -0.0656
18631SOL    HW162754  12.432   4.595   7.057 -1.5974 -0.2278 -0.7186
18631SOL    HW262755  12.351   4.621   7.182  0.9578 -0.6585  1.1181
18632SOL     OW62756   3.263   9.313   6.137  0.5206 -0.0883  0.3185
18632SOL    HW162757   3.327   9.344   6.200  1.3029  0.7166 -0.8325
18632SOL    HW262758   3.195   9.380   6.136  1.7098  1.1882 -1.4201
18633SOL     OW62759   1.788   6.810   7.644 -0.1951  0.1091 -0.5455
18633SOL    HW162760   1.750   6.790   7.729 -1.6447 -0.5338 -1.3131
18633SOL    HW262761   1.873   6.766   7.645  0.4957  1.3487  1.1003
18634SOL     OW62762   4.503  10.162   3.782  0.2076  0.5716  1.1741
18634SOL    HW162763   4.408  10.171   3.789  0.0180 -0.2863  0.0136
18634SOL    HW262764   4.537  10.224   3.846 -1.1467 -0.5471  3.0661
18635SOL     OW62765   1.059   3.628   3.057 -0.1673 -0.0927  0.3018
18635SOL    HW162766   1.008   3.611   3.135 -2.0523 -1.0917 -1.0653
18635SOL    HW262767   1.060   3.545   3.010 -0.4785  0.8535 -1.4739
18636SOL     OW62768  12.041   8.114   2.158  0.1689  0.7734 -0.7078
18636SOL    HW162769  12.059   8.190   2.214  0.5901  2.2553 -2.7599
18636SOL    HW262770  12.079   8.136   2.073  0.0666 -1.6417 -1.4758
18637SOL     OW62771   9.564   6.047  10.973 -0.2310  0.3113 -0.4654
18637SOL    HW162772   9.555   6.057  11.068 -0.9538 -2.1280 -0.2240
18637SOL    HW262773   9.609   5.964  10.961 -0.9152  0.1453 -2.2727
18638SOL     OW62774   5.621   9.578   2.041  0.6396  0.5860 -0.0673
18638SOL    HW162775   5.662   9.662   2.064 -0.7604  1.9217 -2.0809
18638SOL    HW262776   5.587   9.544   2.124  0.7155  2.3232  0.7152
18639SOL     OW62777   9.510  10.900   2.325 -0.6675  0.6032  0.6928
18639SOL    HW162778   9.532  10.989   2.297 -0.7645  0.2529 -0.5342
18639SOL    HW262779   9.545  10.894   2.414  0.4163  1.4646  0.3474
18640SOL     OW62780  10.188   9.157   2.494  0.2856  0.3505  0.1694
18640SOL    HW162781  10.167   9.103   2.418  2.7091  0.6121 -0.7561
18640SOL    HW262782  10.228   9.236   2.458  1.2147  0.6087  1.6930
18641SOL     OW62783   7.860   2.970   5.948 -0.4540  0.4015 -0.3136
18641SOL    HW162784   7.930   2.971   5.884  0.2071 -1.6512  0.3119
18641SOL    HW262785   7.853   3.061   5.978  0.9363  0.8988 -1.4347
18642SOL     OW62786   4.741   6.213  12.195  0.2269 -0.4035 -0.1012
18642SOL    HW162787   4.725   6.119  12.193 -1.1029 -0.2344  0.7921
18642SOL    HW262788   4.662   6.252  12.157  0.8184  0.3507 -0.5856
18643SOL     OW62789   8.681   0.661  10.909 -0.3709  0.1974 -0.2561
18643SOL    HW162790   8.676   0.745  10.864  1.5894  0.6122  0.2312
18643SOL    HW262791   8.740   0.609  10.856  0.3095 -0.0333  0.6977
18644SOL     OW62792   9.416  10.554   1.375 -0.4836  0.1436 -0.0152
18644SOL    HW162793   9.399  10.642   1.342  1.6385  0.9891  0.9603
18644SOL    HW262794   9.512  10.548   1.380 -0.6118 -1.3614  2.1415
18645SOL     OW62795  10.396   2.198   7.304 -0.3385 -0.7632  0.6545
18645SOL    HW162796  10.454   2.151   7.364 -1.4454 -1.1160  1.4990
18645SOL    HW262797  10.409   2.290   7.324 -1.2413 -0.9009  2.0137
18646SOL     OW62798  11.987  11.862   6.445 -0.0147 -0.4543  0.5905
18646SOL    HW162799  12.071  11.823   6.466  1.1304  1.3094 -0.4165
18646SOL    HW262800  12.006  11.924   6.374 -1.7503  1.5182  1.7146
18647SOL     OW62801   9.177   2.395   4.937  0.7294 -0.1077 -0.8597
18647SOL    HW162802   9.249   2.408   4.999  1.3224 -2.0742 -1.0900
18647SOL    HW262803   9.115   2.465   4.959  1.4901  0.0296  1.0970
18648SOL     OW62804   8.092   5.336   7.099  0.0485 -0.8926 -0.0071
18648SOL    HW162805   8.174   5.365   7.057  0.2408 -1.0145  0.2782
18648SOL    HW262806   8.030   5.407   7.081  0.1615 -0.8871 -0.3912
18649SOL     OW62807   8.364   6.254   3.171 -0.3015 -0.0731 -0.0891
18649SOL    HW162808   8.432   6.318   3.190  2.2557 -2.2171 -1.3768
18649SOL    HW262809   8.299   6.302   3.120  0.5599  1.8995  0.5896
18650SOL     OW62810   0.639   0.940   8.570 -0.3375 -0.4076 -0.3595
18650SOL    HW162811   0.572   0.927   8.637  0.1947 -2.0135 -0.1004
18650SOL    HW262812   0.590   0.945   8.488 -0.8142 -1.1581 -0.1294
18651SOL     OW62813   3.686  11.430   0.812  0.0899  0.1738 -0.3990
18651SOL    HW162814   3.719  11.361   0.869 -1.5679  0.1406  0.5655
18651SOL    HW262815   3.763  11.483   0.792  0.9707 -0.6521  0.6699
18652SOL     OW62816   8.233   1.744  11.723 -0.4744 -0.3377  0.0964
18652SOL    HW162817   8.297   1.690  11.677 -0.6345 -0.8238  0.4259
18652SOL    HW262818   8.239   1.715  11.814 -1.5931 -0.8309  0.0334
18653SOL     OW62819   0.228   8.544  11.384 -0.0817  0.2221 -0.8243
18653SOL    HW162820   0.216   8.518  11.293  1.2656 -0.4610 -0.8405
18653SOL    HW262821   0.157   8.605  11.402 -1.6141 -1.2423 -1.6890
18654SOL     OW62822  10.217   0.435   0.490 -0.6899  0.1137 -0.2429
18654SOL    HW162823  10.170   0.424   0.573 -1.0828 -1.7828 -0.6605
18654SOL    HW262824  10.155   0.403   0.424  0.5420 -0.8211 -0.9786
18655SOL     OW62825  10.782   9.667   1.382  0.0144 -0.0347  0.4140
18655SOL    HW162826  10.766   9.584   1.427  3.3398 -2.6895 -2.6810
18655SOL    HW262827  10.851   9.710   1.434 -0.2282 -0.2472  0.9130
18656SOL     OW62828  11.258   5.921   3.340  0.5292 -0.0760 -0.3513
18656SOL    HW162829  11.221   5.874   3.266  2.0087 -2.0154  0.0572
18656SOL    HW262830  11.327   5.976   3.302  1.3243 -1.1094 -0.4570
18657SOL     OW62831   7.664   0.958  10.854  0.3870  0.4657 -0.2433
18657SOL    HW162832   7.652   1.049  10.827  0.1836  0.6246  0.3647
18657SOL    HW262833   7.617   0.951  10.937  1.7814  0.2400  0.5515
18658SOL     OW62834   3.653   9.311   0.494  0.5086 -1.0330  0.1081
18658SOL    HW162835   3.705   9.354   0.426  0.8824  0.6395  1.4083
18658SOL    HW262836   3.718   9.278   0.556  0.1318 -1.8721  0.0712
18659SOL     OW62837   7.540   1.525   0.429  0.2475  0.3748  0.1784
18659SOL    HW162838   7.629   1.532   0.464  1.3490 -3.2417 -1.4207
18659SOL    HW262839   7.542   1.580   0.351  1.6303 -0.7799 -0.6578
18660SOL     OW62840   1.522  10.861   2.998  0.0519 -0.0269  0.7136
18660SOL    HW162841   1.436  10.819   2.992  0.0094 -0.3991  3.0576
18660SOL    HW262842   1.523  10.901   3.085  2.2546  0.0055  0.7220
18661SOL     OW62843   5.032   8.733   8.885  0.2138 -0.0571  0.7475
18661SOL    HW162844   5.067   8.765   8.969 -2.9217  0.2977  2.0452
18661SOL    HW262845   4.946   8.698   8.907 -0.1486 -1.2493 -2.1550
18662SOL     OW62846   3.879  10.102   2.304  0.6053  0.5167  0.5916
18662SOL    HW162847   3.844  10.095   2.393 -0.8006 -1.0498 -0.0429
18662SOL    HW262848   3.907  10.013   2.282 -0.0178  0.6654 -0.9011
18663SOL     OW62849  11.641   6.492   3.530  0.1916  0.6358  0.1552
18663SOL    HW162850  11.551   6.492   3.564  0.7996 -1.0101  1.9560
18663SOL    HW262851  11.658   6.583   3.506 -1.3256  1.3193  1.4901
18664SOL     OW62852   6.649   9.388   7.186 -0.1527  0.5082 -0.2878
18664SOL    HW162853   6.596   9.407   7.264  2.0762 -0.9914  1.7257
18664SOL    HW262854   6.690   9.304   7.205  2.1138  1.0917 -2.1934
18665SOL     OW62855   5.868   3.839   7.348 -0.2749  0.0767  0.4005
18665SOL    HW162856   5.883   3.923   7.392  0.0020 -0.9937  2.4749
18665SOL    HW262857   5.805   3.859   7.279 -1.3292  1.7415  1.7697
18666SOL     OW62858   3.495   4.632   5.338 -0.2102  0.7665 -0.3159
18666SOL    HW162859   3.540   4.557   5.376 -0.2528  0.9302  0.0637
18666SOL    HW262860   3.558   4.704   5.345  0.0038  0.6621 -1.1010
18667SOL     OW62861   6.470   3.402   5.148  0.3477 -0.6117  0.0176
18667SOL    HW162862   6.443   3.333   5.209  0.6672 -1.5624 -0.8855
18667SOL    HW262863   6.455   3.484   5.195 -1.5735 -1.2208  0.5192
18668SOL     OW62864   3.313   6.896   3.172 -0.9944 -0.2071 -0.3248
18668SOL    HW162865   3.307   6.802   3.186 -1.5864 -0.2749 -0.9693
18668SOL    HW262866   3.298   6.908   3.078 -2.1474  0.6207 -0.0575
18669SOL     OW62867   9.779   9.732   8.243 -1.0527 -0.4062  0.1192
18669SOL    HW162868   9.739   9.653   8.207  2.1306 -2.0483 -0.1951
18669SOL    HW262869   9.801   9.785   8.166 -0.4687 -0.6700  0.0976
18670SOL     OW62870   0.177  10.128   2.412  0.5071 -0.6682  0.0234
18670SOL    HW162871   0.238  10.076   2.359 -1.4957 -1.6337 -1.5091
18670SOL    HW262872   0.192  10.218   2.383  1.0542 -0.9091 -0.4922
18671SOL     OW62873   3.861   1.073   3.325 -0.3213 -0.2952  0.3737
18671SOL    HW162874   3.940   1.023   3.348  0.0470  0.9381  1.9228
18671SOL    HW262875   3.800   1.007   3.292  1.1773 -1.3475 -0.4325
18672SOL     OW62876  10.257  12.426   7.767  0.1994  0.1422  0.2971
18672SOL    HW162877  10.200  12.352   7.787 -1.8821  1.6459  0.1458
18672SOL    HW262878  10.339  12.385   7.738 -1.6507 -2.1664 -2.1487
18673SOL     OW62879   9.347   7.375   8.128 -0.9504 -0.5478  0.2525
18673SOL    HW162880   9.381   7.321   8.058  2.5008 -0.9055  1.9937
18673SOL    HW262881   9.384   7.337   8.208 -2.5444  1.3816  2.0275
18674SOL     OW62882  12.234   4.546   3.825  0.1884  0.0657 -0.3307
18674SOL    HW162883  12.221   4.515   3.914  1.6908  1.4752  0.4450
18674SOL    HW262884  12.183   4.487   3.770  0.4184 -1.7538  1.3267
18675SOL     OW62885   3.575   4.113   8.467 -0.3003 -0.3365 -0.0906
18675SOL    HW162886   3.607   4.201   8.483 -3.0995  0.5328  1.5664
18675SOL    HW262887   3.531   4.089   8.548 -3.3784 -1.4504 -1.9115
18676SOL     OW62888   6.516   9.441   6.593  0.4121  0.3414 -0.2725
18676SOL    HW162889   6.572   9.518   6.593  2.0596 -0.7156  2.5125
18676SOL    HW262890   6.429   9.475   6.613  0.9172  1.5587 -0.0617
18677SOL     OW62891   2.635   7.299   8.679 -0.4616  0.4233  0.9146
18677SOL    HW162892   2.622   7.315   8.585 -0.4083  0.8058  0.9720
18677SOL    HW262893   2.661   7.384   8.715  0.8886 -0.0227  1.0404
18678SOL     OW62894   3.279   0.169   6.886 -0.1946 -0.2144 -0.4545
18678SOL    HW162895   3.268   0.075   6.899  1.8683 -0.3292  0.9393
18678SOL    HW262896   3.212   0.209   6.941 -0.3395 -0.8488 -0.1623
18679SOL     OW62897   9.102   2.222   8.987 -0.3848 -0.0956 -0.0489
18679SOL    HW162898   9.102   2.317   8.999 -1.1297 -0.1755  0.7014
18679SOL    HW262899   9.138   2.187   9.068 -1.3214 -0.4891  0.2171
18680SOL     OW62900   7.561   5.088   5.467 -0.6883 -0.2112 -0.0609
18680SOL    HW162901   7.600   5.078   5.554 -0.5738  0.9783  0.0372
18680SOL    HW262902   7.586   5.009   5.420  1.4851  0.2936  0.1370
18681SOL     OW62903   1.659   1.814   2.631 -0.1732  0.2576  0.4156
18681SOL    HW162904   1.733   1.872   2.612  0.9432 -1.4585 -0.8401
18681SOL    HW262905   1.666   1.797   2.725  0.7349  0.5252  0.4102
18682SOL     OW62906   2.062  11.663   9.692 -0.3282 -0.1981  0.1689
18682SOL    HW162907   1.989  11.723   9.702 -0.5051 -0.5976  1.3917
18682SOL    HW262908   2.101  11.656   9.779  3.1165  2.3613 -0.9267
18683SOL     OW62909   1.976  10.762   4.956 -0.1487  0.0316  0.3319
18683SOL    HW162910   2.045  10.828   4.964  0.9596 -0.5466 -2.8806
18683SOL    HW262911   1.999  10.695   5.020 -0.5147  1.9847  2.6688
18684SOL     OW62912  12.141   7.074   2.262  0.6214 -0.6400  0.6010
18684SOL    HW162913  12.151   7.076   2.167  1.4629  2.4321  0.6753
18684SOL    HW262914  12.214   7.020   2.292  1.1812 -0.4759 -0.4231
18685SOL     OW62915   0.788   3.639   1.789 -0.3368 -0.8197 -0.3082
18685SOL    HW162916   0.764   3.621   1.880 -0.1520 -0.0158 -0.0962
18685SOL    HW262917   0.782   3.553   1.746 -1.5808 -1.0107  0.1862
18686SOL     OW62918   3.913   4.710   6.689  0.0877  0.2931  0.3066
18686SOL    HW162919   3.969   4.690   6.614 -0.1864  3.0027 -0.7244
18686SOL    HW262920   3.973   4.707   6.765  0.7829 -0.5691 -0.2532
18687SOL     OW62921   9.090   2.063   8.740 -0.4393  0.2418 -0.3982
18687SOL    HW162922   9.185   2.056   8.747 -0.2637  2.0387 -0.4097
18687SOL    HW262923   9.065   2.122   8.811 -1.5770 -0.3345 -0.2917
18688SOL     OW62924   7.050   3.797   6.458 -0.1693  0.4844  0.0513
18688SOL    HW162925   6.972   3.770   6.508 -0.1047  1.8826  0.9712
18688SOL    HW262926   7.107   3.837   6.524  2.0058 -1.7736 -0.3122
18689SOL     OW62927   4.460   9.608   6.913  0.1172 -0.1848  0.4083
18689SOL    HW162928   4.396   9.653   6.859 -0.5061 -0.6786  0.7260
18689SOL    HW262929   4.534   9.668   6.918 -0.2287  0.2940 -0.1478
18690SOL     OW62930   6.990  11.025   7.613 -0.2756  0.1092  1.1320
18690SOL    HW162931   7.007  10.956   7.548 -0.5583  0.0245  1.1501
18690SOL    HW262932   7.049  11.004   7.685  2.4008  1.9296 -0.3284
18691SOL     OW62933   1.221   2.903   9.649 -0.0556  0.2043 -0.2744
18691SOL    HW162934   1.288   2.902   9.717  0.8720 -0.2026 -1.1655
18691SOL    HW262935   1.271   2.912   9.567 -1.1774  1.5574 -0.8549
18692SOL     OW62936  12.371   7.268   4.129  0.1608  0.1297  0.2686
18692SOL    HW162937  12.430   7.253   4.203 -0.8426  1.0686  1.2996
18692SOL    HW262938  12.285   7.281   4.169 -0.4881  0.2668 -1.0977
18693SOL     OW62939   6.990  10.891   3.380 -0.1010  0.0572 -0.0214
18693SOL    HW162940   6.908  10.906   3.428 -0.3095 -0.6817 -0.1439
18693SOL    HW262941   7.014  10.801   3.401  1.0514  0.4832  0.5686
18694SOL     OW62942   1.630   6.109  11.034  0.7119  0.7899 -0.4212
18694SOL    HW162943   1.662   6.199  11.026  0.6247  0.7831 -0.8896
18694SOL    HW262944   1.584   6.093  10.952  0.0010  0.6016  0.0037
18695SOL     OW62945   5.769   4.456   3.217 -0.2026 -0.1405  0.4855
18695SOL    HW162946   5.813   4.428   3.137  1.6227  3.6674 -0.0536
18695SOL    HW262947   5.804   4.399   3.285  2.0806 -0.2328 -0.6757
18696SOL     OW62948   4.017   6.341   6.990 -0.0368 -0.2056 -0.1605
18696SOL    HW162949   4.083   6.295   7.041 -1.0632 -1.8443 -0.2269
18696SOL    HW262950   3.980   6.405   7.050 -0.8021 -1.6917  1.0107
18697SOL     OW62951   5.034   3.364  10.317 -0.3877 -0.2401  0.2109
18697SOL    HW162952   4.940   3.362  10.331 -0.5285 -0.4683 -0.6930
18697SOL    HW262953   5.044   3.384  10.224  0.4696  0.4546  0.4433
18698SOL     OW62954   9.051  11.032   9.575 -0.8027  0.1525 -0.1993
18698SOL    HW162955   8.977  10.990   9.619  0.3177 -0.2014  1.4600
18698SOL    HW262956   9.128  10.983   9.606  0.2942  1.7116 -0.3298
18699SOL     OW62957   7.506   8.639   9.478 -0.7027 -0.3271 -0.7862
18699SOL    HW162958   7.451   8.619   9.554 -0.2052 -0.2888 -0.4116
18699SOL    HW262959   7.567   8.566   9.473  0.6705  0.6941  0.1643
18700SOL     OW62960   3.586   0.017   1.507 -0.4285  0.0881  0.3242
18700SOL    HW162961   3.532  -0.012   1.580  0.4746 -0.1752  0.8995
18700SOL    HW262962   3.672  -0.021   1.524  0.3126  1.6164  0.1395
18701SOL     OW62963   9.623   5.859   5.708  0.0062 -0.0898 -0.0355
18701SOL    HW162964   9.635   5.885   5.616  0.9560  1.4653  0.4912
18701SOL    HW262965   9.710   5.832   5.736 -0.0587  0.4322  0.6857
18702SOL     OW62966   0.067   1.755   1.211  0.1937 -0.5462  0.3595
18702SOL    HW162967  -0.027   1.741   1.196 -0.4711  1.3405  2.1952
18702SOL    HW262968   0.079   1.849   1.202  2.0790 -0.8150 -0.4300
18703SOL     OW62969   8.443  11.071   0.965 -0.5056 -0.3607 -0.2434
18703SOL    HW162970   8.498  11.121   1.025  0.1075 -0.3564 -0.8053
18703SOL    HW262971   8.409  11.136   0.904  1.7213 -0.8090 -2.0921
18704SOL     OW62972   9.211   2.524  10.497 -0.3605  0.1803  0.0786
18704SOL    HW162973   9.291   2.510  10.548 -0.4914  1.3221  0.6383
18704SOL    HW262974   9.195   2.619  10.503 -1.8638 -0.0482  0.1498
18705SOL     OW62975   0.541   8.041  11.675 -0.2226  0.3674  1.1847
18705SOL    HW162976   0.610   7.974  11.670  1.2382  1.8908 -1.0688
18705SOL    HW262977   0.558   8.086  11.757  3.1110  2.1987 -0.2876
18706SOL     OW62978   3.501   4.962   5.697 -0.2325 -0.3353  0.7252
18706SOL    HW162979   3.524   4.995   5.611 -0.7666 -0.4594  0.5301
18706SOL    HW262980   3.434   5.023   5.729 -0.3536 -0.5438  0.8684
18707SOL     OW62981   8.879   9.046  12.017  0.4290  0.1402 -0.1842
18707SOL    HW162982   8.892   9.117  11.955  0.2493 -0.9737 -1.5261
18707SOL    HW262983   8.806   8.996  11.982 -0.2919 -0.0111  1.4182
18708SOL     OW62984   8.146   6.485   9.068  0.2129 -0.6216 -0.3849
18708SOL    HW162985   8.062   6.456   9.035 -1.6469  0.7452  2.6702
18708SOL    HW262986   8.160   6.571   9.028 -0.6280 -0.2011  0.1941
18709SOL     OW62987   7.828  10.376   0.376 -0.3076 -0.0168 -0.0648
18709SOL    HW162988   7.770  10.340   0.444 -1.4883  2.8853  0.6108
18709SOL    HW262989   7.810  10.470   0.377  1.1423  0.3971 -3.0357
18710SOL     OW62990   4.266   8.375   8.117 -0.2665  0.0732  0.2274
18710SOL    HW162991   4.229   8.413   8.038 -1.4417 -1.3307  0.0777
18710SOL    HW262992   4.332   8.438   8.145 -0.0147  0.7159 -1.7133
18711SOL     OW62993   1.868   1.748   1.176 -0.3916  0.1689 -0.6206
18711SOL    HW162994   1.808   1.792   1.237 -1.7312 -0.5366 -1.3850
18711SOL    HW262995   1.927   1.698   1.233 -0.1764  1.2716  0.1700
18712SOL     OW62996   5.593   4.400   0.496 -0.0082  0.5478  0.2339
18712SOL    HW162997   5.561   4.327   0.442  0.9156  1.2621 -1.3435
18712SOL    HW262998   5.681   4.373   0.522 -0.2913  0.3969  1.0690
18713SOL     OW62999   1.770   4.949   9.217  0.1451  0.1827  0.6542
18713SOL    HW163000   1.806   4.958   9.306  1.4378 -0.7722  0.2567
18713SOL    HW263001   1.805   5.024   9.169  1.9127 -0.8780  0.2015
18714SOL     OW63002   9.404   1.148  11.387 -0.0599  0.0072  0.0977
18714SOL    HW163003   9.463   1.088  11.340 -0.3687 -1.0119  0.9671
18714SOL    HW263004   9.460   1.189  11.454 -0.2736 -0.8306  0.8089
18715SOL     OW63005   7.104   3.284   5.044 -0.2144 -0.1082 -0.3906
18715SOL    HW163006   7.100   3.372   5.082 -0.0896 -1.0232  1.8998
18715SOL    HW263007   7.154   3.296   4.963  0.3465  1.8273  0.1704
18716SOL     OW63008   2.069   4.343   3.839  0.5160  0.3626  0.0793
18716SOL    HW163009   2.029   4.418   3.794  1.7720  0.0593 -1.6761
18716SOL    HW263010   2.158   4.373   3.860  0.3899  0.0136  1.1786
18717SOL     OW63011   3.891   6.755   0.584 -0.3145  0.4961 -0.6162
18717SOL    HW163012   3.899   6.699   0.662  0.1562  0.6114 -0.5803
18717SOL    HW263013   3.841   6.702   0.522  0.2050 -0.0015 -0.6149
18718SOL     OW63014   4.619   4.842   9.565  0.4588  0.0900 -0.4031
18718SOL    HW163015   4.703   4.884   9.576  0.9263 -0.6508 -0.9934
18718SOL    HW263016   4.604   4.843   9.470 -1.2229  2.1269 -0.1852
18719SOL     OW63017   8.128  10.149  10.230  0.1766 -0.1968 -0.5075
18719SOL    HW163018   8.107  10.058  10.210  0.1045 -0.2193 -0.3356
18719SOL    HW263019   8.209  10.167  10.182  1.8201 -1.2220  1.7134
18720SOL     OW63020   4.756   7.306   5.459  0.1153  0.2638  0.6226
18720SOL    HW163021   4.824   7.371   5.477  1.2109 -0.7412  0.2887
18720SOL    HW263022   4.803   7.235   5.415 -1.5417  0.4747 -1.6425
18721SOL     OW63023   8.770   5.397   4.743  0.1616  0.0238  0.2075
18721SOL    HW163024   8.847   5.344   4.720  1.0297  1.4755 -0.4005
18721SOL    HW263025   8.702   5.369   4.682  0.5307 -0.5403  0.0477
18722SOL     OW63026   3.007   4.956   8.589  0.0046  0.0841  0.4140
18722SOL    HW163027   2.939   5.006   8.635 -0.1987 -0.1419  0.3578
18722SOL    HW263028   2.994   4.978   8.497 -3.0658 -3.5416 -0.2428
18723SOL     OW63029   1.282   1.115   2.761  0.3788  0.6388  0.2435
18723SOL    HW163030   1.220   1.047   2.791 -0.4266  1.1625 -0.1928
18723SOL    HW263031   1.234   1.163   2.694  1.5135  0.6412 -0.5954
18724SOL     OW63032  12.248   7.444  11.225 -0.1767 -0.3243 -0.1134
18724SOL    HW163033  12.295   7.447  11.142  1.2504 -2.0030  0.5757
18724SOL    HW263034  12.161   7.412  11.202  0.7069 -2.3700 -0.8164
18725SOL     OW63035   5.087   7.327   3.257 -0.1152 -0.3433 -0.1774
18725SOL    HW163036   5.054   7.389   3.322  0.3895 -1.2100  0.9119
18725SOL    HW263037   5.028   7.253   3.261 -0.0702 -0.4177 -0.7131
18726SOL     OW63038   8.434   4.652  10.553 -0.8535 -0.1573  0.0577
18726SOL    HW163039   8.429   4.742  10.522 -1.1136 -0.0986  0.2670
18726SOL    HW263040   8.522   4.645  10.589 -0.7965 -0.0166 -0.0506
18727SOL     OW63041   6.027   4.395   9.994 -0.4017 -0.5415  0.6524
18727SOL    HW163042   6.073   4.464  10.041  0.2502 -0.2603 -0.3630
18727SOL    HW263043   6.092   4.360   9.934 -1.5927  0.1920 -1.1623
18728SOL     OW63044  11.575   7.581   2.069  0.0246 -0.6572 -0.0152
18728SOL    HW163045  11.597   7.591   1.976 -0.0257 -0.0983  0.0275
18728SOL    HW263046  11.583   7.487   2.086  2.3402 -0.5112 -0.0008
18729SOL     OW63047   7.203   9.105  11.449  0.8490  0.3639 -0.6607
18729SOL    HW163048   7.113   9.073  11.442  0.6888  0.7531 -0.4190
18729SOL    HW263049   7.257   9.030  11.425  0.4801 -0.0782 -0.1480
18730SOL     OW63050   9.208   0.243   6.834 -0.4444  0.1655 -0.2835
18730SOL    HW163051   9.239   0.300   6.905  0.7869 -1.0223  0.1805
18730SOL    HW263052   9.260   0.269   6.758 -0.6079  0.3512 -0.3308
18731SOL     OW63053   2.760   8.376  10.852  0.1340 -0.8539 -0.4915
18731SOL    HW163054   2.727   8.461  10.880 -1.1754 -0.9269 -1.7278
18731SOL    HW263055   2.695   8.344  10.790 -0.3422 -3.5481  1.2317
18732SOL     OW63056   6.217  10.812   2.757  0.0474 -0.0237  0.4101
18732SOL    HW163057   6.189  10.880   2.817  0.8032 -0.0030  0.7493
18732SOL    HW263058   6.313  10.819   2.755  0.0062  2.1699 -3.3317
18733SOL     OW63059   1.209   0.989   5.821 -0.2853 -0.0026 -0.1625
18733SOL    HW163060   1.241   0.915   5.872  0.2341  0.3767  0.0775
18733SOL    HW263061   1.114   0.981   5.824 -0.3797  0.9938  2.3952
18734SOL     OW63062   2.251  12.263   9.445 -0.8493  0.6179 -0.0739
18734SOL    HW163063   2.342  12.235   9.435 -0.4038  2.1316 -0.4820
18734SOL    HW263064   2.218  12.212   9.520  0.1427 -0.3659 -0.2921
18735SOL     OW63065   4.434  11.956   6.842  0.7908 -0.1424 -0.0926
18735SOL    HW163066   4.428  12.051   6.850 -2.9177 -0.2878  0.6375
18735SOL    HW263067   4.471  11.942   6.755 -0.8826  2.0720 -1.2900
18736SOL     OW63068   3.576   4.505   7.183 -0.0413 -0.2893 -0.1964
18736SOL    HW163069   3.547   4.584   7.229 -1.5208 -0.6602 -0.4368
18736SOL    HW263070   3.671   4.514   7.177  0.0220  0.5712  1.4494
18737SOL     OW63071  10.068   9.430  11.327  0.5427  0.1988 -0.2450
18737SOL    HW163072  10.094   9.431  11.419  0.0477  2.1478 -0.0673
18737SOL    HW263073  10.032   9.343  11.313 -1.9053  0.6798  2.1909
18738SOL     OW63074   5.536   2.292   5.049  0.0433 -0.0283 -0.5694
18738SOL    HW163075   5.558   2.276   4.957 -0.7936  1.4741 -1.0541
18738SOL    HW263076   5.563   2.212   5.094 -2.5462 -2.2270 -2.5889
18739SOL     OW63077   0.765   9.152   5.000  1.1723  0.2727  0.0216
18739SOL    HW163078   0.778   9.241   5.033  0.6534 -0.0190  1.0779
18739SOL    HW263079   0.697   9.161   4.933  1.5390  0.7449 -0.2921
18740SOL     OW63080   7.519   8.105   3.547  0.2675  0.2285  0.1310
18740SOL    HW163081   7.551   8.193   3.526  0.3342  0.2400  0.2818
18740SOL    HW263082   7.491   8.110   3.638 -0.0895  0.1941  0.0251
18741SOL     OW63083   7.022   4.466   6.783  0.0950 -0.3410 -0.0299
18741SOL    HW163084   7.072   4.428   6.710 -0.3115  0.5565 -0.7921
18741SOL    HW263085   7.076   4.448   6.860  0.9232 -0.6040 -0.6529
18742SOL     OW63086   5.690   4.451  12.154  0.7448 -0.6393  0.5362
18742SOL    HW163087   5.738   4.523  12.194  0.8356 -2.0990  3.3308
18742SOL    HW263088   5.757   4.398  12.110  0.9073  0.0481 -0.0632
18743SOL     OW63089   9.731   1.925  10.933  0.3010 -0.3407  0.1506
18743SOL    HW163090   9.755   1.948  10.843 -0.0785 -1.9433 -0.3982
18743SOL    HW263091   9.668   1.992  10.959  0.3172  0.0717 -0.8285
18744SOL     OW63092   3.397  10.713  10.276  0.4140  0.4565  0.3756
18744SOL    HW163093   3.307  10.690  10.297 -1.0379  2.9105 -2.3435
18744SOL    HW263094   3.404  10.806  10.301  1.0273  1.2324 -2.3478
18745SOL     OW63095   8.406  11.503   5.101  0.1673 -0.4866  0.0028
18745SOL    HW163096   8.476  11.568   5.104  0.7041 -1.0508 -0.0767
18745SOL    HW263097   8.345  11.531   5.169 -1.1042  1.7421 -1.9258
18746SOL     OW63098   9.555   7.306   9.980 -0.6056 -0.1764  0.1302
18746SOL    HW163099   9.553   7.307   9.884 -1.5547 -0.2801  0.1397
18746SOL    HW263100   9.628   7.363  10.003  0.5464 -1.2661 -0.6710
18747SOL     OW63101   2.575  11.400   2.085  0.4569  0.0579 -0.0283
18747SOL    HW163102   2.495  11.379   2.133  0.8792 -1.8746 -0.0864
18747SOL    HW263103   2.625  11.318   2.083  2.3003  1.1148 -0.2869
18748SOL     OW63104   2.148   8.120   7.691 -0.1192  0.4923 -0.7894
18748SOL    HW163105   2.102   8.050   7.644 -0.3315 -0.7711  1.1921
18748SOL    HW263106   2.081   8.184   7.712 -0.8272 -0.7545  1.0072
18749SOL     OW63107   7.048  11.887  11.714 -0.0982  0.0612  0.0359
18749SOL    HW163108   7.143  11.897  11.721 -0.2304  1.6124 -0.0660
18749SOL    HW263109   7.031  11.886  11.620 -0.1559 -0.5940  0.0497
18750SOL     OW63110   8.271   1.948   4.050  0.1603 -0.1160 -0.7736
18750SOL    HW163111   8.267   2.025   3.993 -0.6921 -0.8686 -1.7652
18750SOL    HW263112   8.207   1.887   4.013  1.5144 -1.7207 -0.6320
18751SOL     OW63113   6.842   5.834   6.821  0.0191  0.7643 -0.3633
18751SOL    HW163114   6.747   5.828   6.826  0.1571 -1.6539  0.7519
18751SOL    HW263115   6.863   5.805   6.732 -0.1847 -2.7767  0.5931
18752SOL     OW63116   0.250   1.663   0.387 -0.2865  0.3542 -0.5585
18752SOL    HW163117   0.260   1.746   0.433 -1.3468 -0.4258  1.2059
18752SOL    HW263118   0.192   1.682   0.314  2.9788  2.0615 -2.9693
18753SOL     OW63119   7.750   5.212   7.185  0.7740 -0.3454  0.1567
18753SOL    HW163120   7.772   5.194   7.093  0.3080  0.2103 -0.0704
18753SOL    HW263121   7.801   5.148   7.234  0.7028 -0.9384 -0.5135
18754SOL     OW63122   6.006   0.219   4.525 -0.1829 -0.2764 -0.1598
18754SOL    HW163123   5.919   0.255   4.510 -0.6069 -1.2894 -0.1531
18754SOL    HW263124   6.050   0.227   4.440  0.7223  2.7741  0.4452
18755SOL     OW63125  10.774   5.093   6.316 -0.1425 -0.2430 -0.4681
18755SOL    HW163126  10.695   5.096   6.262 -0.3413  0.1517 -0.1627
18755SOL    HW263127  10.845   5.080   6.254 -0.3904 -0.0378 -0.8012
18756SOL     OW63128   6.746   5.593   1.545 -0.0161 -0.0780  0.2069
18756SOL    HW163129   6.707   5.519   1.499  2.3994 -0.9526 -0.5941
18756SOL    HW263130   6.672   5.639   1.584 -1.6980 -2.2915 -0.1732
18757SOL     OW63131   1.366   8.701   5.938  0.2489 -0.1694  0.0188
18757SOL    HW163132   1.280   8.684   5.977  0.7709 -2.1495  0.4125
18757SOL    HW263133   1.428   8.660   5.998  1.5144  1.3116 -0.2031
18758SOL     OW63134   2.739   6.420   2.153 -0.3517  0.7014 -0.1519
18758SOL    HW163135   2.777   6.333   2.136  0.0081  1.0200 -1.0614
18758SOL    HW263136   2.778   6.448   2.235  0.3366  0.4387 -0.3779
18759SOL     OW63137  11.765   2.984   4.473 -0.1657  0.5425 -0.8017
18759SOL    HW163138  11.677   3.018   4.459 -0.0518  0.8062 -0.8847
18759SOL    HW263139  11.752   2.905   4.525 -0.3091  1.6957  0.9800
18760SOL     OW63140   1.577  10.138  10.422  0.5296  0.3563  0.4340
18760SOL    HW163141   1.621  10.128  10.338 -1.7740 -1.7764 -0.6449
18760SOL    HW263142   1.515  10.210  10.409 -1.6398 -1.5954 -0.6520
18761SOL     OW63143   5.169   0.253   7.809  0.1060 -0.0818 -0.0293
18761SOL    HW163144   5.115   0.268   7.731  0.0553 -0.4522 -0.0674
18761SOL    HW263145   5.244   0.311   7.797  0.0298 -0.0338 -0.2893
18762SOL     OW63146   2.279   7.094   9.064  0.2243 -0.2818 -0.3373
18762SOL    HW163147   2.267   7.028   9.132 -0.8762 -1.3175 -1.4855
18762SOL    HW263148   2.366   7.076   9.027  0.3583 -0.4120  0.0364
18763SOL     OW63149  10.546   6.760   8.344  0.2108  0.3426 -0.1487
18763SOL    HW163150  10.598   6.703   8.288 -1.4285 -0.9886 -0.3773
18763SOL    HW263151  10.487   6.805   8.283  0.7626  1.5371  0.1564
18764SOL     OW63152  12.025   9.993  10.826 -0.2625 -0.1379 -0.2534
18764SOL    HW163153  12.071  10.034  10.900  1.5918 -0.1953 -1.2942
18764SOL    HW263154  12.011   9.903  10.854 -1.9770  0.4639  1.0187
18765SOL     OW63155  10.563   2.519   5.746  0.4373 -0.3364 -0.0095
18765SOL    HW163156  10.645   2.538   5.792 -0.2670  2.7403  0.2297
18765SOL    HW263157  10.590   2.498   5.657  1.5255  1.9449 -0.2954
18766SOL     OW63158   6.603   6.823   0.524 -0.3104  0.0553  0.1209
18766SOL    HW163159   6.571   6.911   0.506 -1.6403 -0.6676 -1.2767
18766SOL    HW263160   6.698   6.830   0.517 -0.3797  1.4121  0.2664
18767SOL     OW63161  11.809  11.919   1.202 -0.0617 -0.3257 -0.3943
18767SOL    HW163162  11.899  11.915   1.170 -0.6972  0.3277 -2.4663
18767SOL    HW263163  11.778  12.005   1.176 -1.7267 -1.0813 -1.0808
18768SOL     OW63164   4.960   5.230  12.296  0.3409 -0.4531  0.2789
18768SOL    HW163165   4.931   5.318  12.319  2.0021 -0.0999  1.0939
18768SOL    HW263166   5.037   5.243  12.241 -0.0167 -1.4114 -0.4995
18769SOL     OW63167  12.047   4.526   8.167  0.0267  0.1296 -0.1848
18769SOL    HW163168  11.967   4.475   8.184  0.2194 -0.0486  0.1919
18769SOL    HW263169  12.051   4.533   8.072  0.1215 -0.7687 -0.2580
18770SOL     OW63170   1.717  11.024   0.303  0.2885  0.0187 -0.3556
18770SOL    HW163171   1.652  10.953   0.303  0.3584 -0.0455 -0.6565
18770SOL    HW263172   1.730  11.043   0.396 -1.0526  0.8592 -0.3102
18771SOL     OW63173   0.420   4.024   3.900  0.4208  0.1642 -0.3600
18771SOL    HW163174   0.353   3.972   3.945 -0.0357  0.1561 -1.0297
18771SOL    HW263175   0.500   3.973   3.910 -0.1790 -1.1309 -1.7085
18772SOL     OW63176   1.631   6.650   1.101  0.2268  0.2803 -0.0893
18772SOL    HW163177   1.579   6.586   1.053  0.6044 -1.3183  1.5355
18772SOL    HW263178   1.657   6.605   1.181  2.9383  1.4606 -0.1772
18773SOL     OW63179   6.960  10.152   3.352 -0.2980  0.0954  0.5380
18773SOL    HW163180   7.050  10.164   3.321 -0.9488 -0.3517 -1.7608
18773SOL    HW263181   6.924  10.085   3.293 -2.1813  0.4022  1.2834
18774SOL     OW63182   8.948   4.161   4.322  0.3651  0.3834  0.4747
18774SOL    HW163183   8.864   4.117   4.334  0.5829 -0.1262  0.1813
18774SOL    HW263184   8.944   4.195   4.232  1.2185 -1.3393 -0.2714
18775SOL     OW63185   6.965  11.242   2.731 -0.1495  0.4897 -0.0717
18775SOL    HW163186   6.951  11.335   2.748 -1.7612  0.6162 -1.7052
18775SOL    HW263187   6.886  11.200   2.766 -0.1561 -0.0637 -0.7402
18776SOL     OW63188   9.570   5.789   8.082  0.1176 -0.2235 -0.4531
18776SOL    HW163189   9.476   5.798   8.064 -0.0845  1.6863  1.1771
18776SOL    HW263190   9.585   5.694   8.085 -1.9656 -0.5871  0.2431
18777SOL     OW63191   6.596  10.938   7.154  0.2291 -0.3426  0.4884
18777SOL    HW163192   6.629  10.865   7.101  0.8255  1.3523 -1.6155
18777SOL    HW263193   6.658  10.945   7.226  0.8677 -1.1136  0.0310
18778SOL     OW63194  11.760   9.033   3.487 -0.5355  0.0435  0.3007
18778SOL    HW163195  11.779   9.115   3.442  1.9986 -0.0841  0.9980
18778SOL    HW263196  11.778   8.965   3.422 -1.6870 -0.0137  0.0246
18779SOL     OW63197  12.250  11.968   1.587 -0.4480  0.3272 -0.0517
18779SOL    HW163198  12.344  11.958   1.574 -0.3868  1.1329 -0.2969
18779SOL    HW263199  12.212  11.893   1.541  0.0945 -0.3912  0.6397
18780SOL     OW63200  10.561  10.201   7.423  0.0068  0.0854  0.0958
18780SOL    HW163201  10.520  10.200   7.509 -0.1585 -1.2247  0.0311
18780SOL    HW263202  10.504  10.256   7.369 -0.2614  0.3461  0.6432
18781SOL     OW63203   1.565   4.862   2.389 -0.3196 -0.5110 -0.2041
18781SOL    HW163204   1.522   4.808   2.456  0.1780  0.3419  0.8280
18781SOL    HW263205   1.585   4.945   2.433  2.6025 -0.9245 -0.5519
18782SOL     OW63206   6.760   3.460  11.582  0.1560  0.3553  0.4250
18782SOL    HW163207   6.845   3.497  11.608  0.8993  0.5510 -2.0394
18782SOL    HW263208   6.773   3.365  11.587  0.4238  0.3884  0.4012
18783SOL     OW63209  11.240  11.132   6.573  0.0496  0.3498 -0.0282
18783SOL    HW163210  11.205  11.122   6.485  0.0676  1.4464 -0.1622
18783SOL    HW263211  11.334  11.141   6.562  0.0994  0.0652  0.1397
18784SOL     OW63212  11.168   9.851   3.296 -0.5564 -0.2047  0.0863
18784SOL    HW163213  11.225   9.780   3.267 -0.1109 -0.5279  1.6765
18784SOL    HW263214  11.088   9.808   3.324 -1.4636  0.2119 -1.7240
18785SOL     OW63215   5.492  12.198   3.691  0.4704  0.2990  0.5376
18785SOL    HW163216   5.401  12.172   3.674 -0.1160  1.8272  1.1858
18785SOL    HW263217   5.525  12.131   3.751 -0.8942  0.8096  1.9284
18786SOL     OW63218   8.395   2.534  11.448 -0.0467 -0.3998  0.3666
18786SOL    HW163219   8.338   2.458  11.451  1.1265 -1.2746  1.5584
18786SOL    HW263220   8.455   2.523  11.522  0.9431  1.0542 -0.1577
18787SOL     OW63221   4.225   9.682   8.026  0.2676  0.1992 -0.3223
18787SOL    HW163222   4.298   9.688   7.964  0.7402  0.6519  0.2713
18787SOL    HW263223   4.211   9.771   8.056  0.2950 -0.0682  0.5159
18788SOL     OW63224  10.173   0.501  11.898  0.6102 -0.4084  0.5453
18788SOL    HW163225  10.164   0.525  11.806 -0.7408 -0.4090  0.6502
18788SOL    HW263226  10.214   0.415  11.897 -0.5376 -0.9609 -0.1154
18789SOL     OW63227  11.921  11.262   2.368  0.1961 -1.3589  0.7619
18789SOL    HW163228  11.936  11.229   2.279  0.6165 -0.9395  0.6760
18789SOL    HW263229  11.930  11.185   2.424 -0.5859 -1.7239  0.3930
18790SOL     OW63230   7.654   6.297   5.198 -0.1774  0.4031 -0.3957
18790SOL    HW163231   7.712   6.372   5.189 -2.3886  2.0966 -1.5870
18790SOL    HW263232   7.705   6.222   5.168  2.0021  1.4411  0.5551
18791SOL     OW63233   6.240   2.706  12.122  0.4054 -0.4999  0.0798
18791SOL    HW163234   6.312   2.763  12.097 -0.4575  1.9335  2.5535
18791SOL    HW263235   6.210   2.741  12.206 -0.7853 -4.1463  1.3819
18792SOL     OW63236   5.791   8.328   5.984 -0.3574 -0.1477 -0.3654
18792SOL    HW163237   5.851   8.255   5.971  2.0411  1.5627  0.4123
18792SOL    HW263238   5.708   8.287   6.012  1.4848 -2.5047  2.1828
18793SOL     OW63239   2.446   8.318   7.151 -0.3224  0.4840 -0.3466
18793SOL    HW163240   2.415   8.392   7.203 -1.5430 -1.5760  2.1116
18793SOL    HW263241   2.399   8.326   7.068  0.1690  2.8295 -0.4560
18794SOL     OW63242   8.315   6.387  10.051  0.0107 -0.7366 -0.5885
18794SOL    HW163243   8.404   6.366  10.024  0.4074  1.6518 -1.3382
18794SOL    HW263244   8.309   6.356  10.141  2.2168  0.6742  0.1093
18795SOL     OW63245   2.960   8.141   6.260  0.0207  0.7176  0.4337
18795SOL    HW163246   2.942   8.220   6.311  2.2766  1.7355 -0.2123
18795SOL    HW263247   2.945   8.168   6.169 -1.4611 -0.3227  0.3397
18796SOL     OW63248   7.102   4.284   2.451  0.9286  0.3321  0.4573
18796SOL    HW163249   7.147   4.204   2.478  0.7316  0.2633  0.5799
18796SOL    HW263250   7.009   4.264   2.460  0.8702  0.4411  0.1060
18797SOL     OW63251   5.590   9.909  10.603  0.1591  0.2596 -0.3459
18797SOL    HW163252   5.546   9.993  10.590 -1.6130 -0.2451  1.7219
18797SOL    HW263253   5.542   9.869  10.676  4.8900  0.2520  3.2856
18798SOL     OW63254   9.463   0.187   4.887 -0.0797 -0.2970 -0.0951
18798SOL    HW163255   9.416   0.268   4.865  1.4354  0.3873 -0.9879
18798SOL    HW263256   9.491   0.152   4.802  2.0198 -0.0249  0.4231
18799SOL     OW63257   7.778   2.058  10.401  0.1100  0.0316  0.0138
18799SOL    HW163258   7.713   2.006  10.352 -1.3330  0.4151  1.4373
18799SOL    HW263259   7.862   2.028  10.368 -0.7611 -0.9849 -1.4219
18800SOL     OW63260   2.985   3.206   7.182 -0.0151 -0.3954  0.3783
18800SOL    HW163261   3.062   3.153   7.160 -0.2780 -0.0814 -1.4629
18800SOL    HW263262   3.016   3.297   7.173 -0.9735 -0.2419 -2.0802
18801SOL     OW63263   5.362   1.241   7.525  0.3626 -0.3363 -0.0030
18801SOL    HW163264   5.400   1.187   7.456 -1.0564 -0.4915 -0.7180
18801SOL    HW263265   5.297   1.184   7.567 -0.7595  0.6021 -0.3983
18802SOL     OW63266   8.382   7.070   8.413 -0.2336 -0.3794  1.0914
18802SOL    HW163267   8.386   6.992   8.357 -0.0869  0.2422  0.2271
18802SOL    HW263268   8.404   7.037   8.501  1.1109 -1.0932  0.5131
18803SOL     OW63269   3.778  11.343   5.713  0.1273  0.1718  0.1917
18803SOL    HW163270   3.860  11.336   5.664 -0.2348  2.0329 -0.7779
18803SOL    HW263271   3.710  11.326   5.649 -0.3251  1.9107  0.1474
18804SOL     OW63272   9.188   4.636   8.121 -0.7690 -0.3657  0.0779
18804SOL    HW163273   9.214   4.725   8.097 -0.5772 -0.3458  0.3606
18804SOL    HW263274   9.267   4.598   8.160 -0.2816 -1.2663 -1.6895
18805SOL     OW63275   3.019   8.906   5.780 -0.1116  0.2021  0.2494
18805SOL    HW163276   3.112   8.917   5.761  0.0219  0.1534  0.8771
18805SOL    HW263277   2.979   8.892   5.694  0.8048 -2.2953  0.1526
18806SOL     OW63278  11.307   7.798   2.612  0.5869  0.1316  0.0107
18806SOL    HW163279  11.397   7.768   2.600  0.5810 -1.1927  2.5944
18806SOL    HW263280  11.314   7.866   2.678 -0.1706  1.1696 -0.9562
18807SOL     OW63281   9.872   7.888   6.867  0.5751 -0.0856  0.6991
18807SOL    HW163282   9.939   7.941   6.822 -0.5055  2.2340  1.6654
18807SOL    HW263283   9.791   7.905   6.819  0.4959 -2.4394 -0.1261
18808SOL     OW63284  10.766  11.426   2.634 -0.1623  0.2873 -0.0619
18808SOL    HW163285  10.763  11.461   2.723  1.5748  1.5685 -0.4600
18808SOL    HW263286  10.691  11.466   2.590 -0.2226  0.7614  0.4587
18809SOL     OW63287   5.574   9.320   3.737  0.1352  0.1025  0.0402
18809SOL    HW163288   5.631   9.332   3.813 -0.1529 -0.5900  0.3774
18809SOL    HW263289   5.573   9.225   3.722 -1.8017 -0.0465  0.7519
18810SOL     OW63290  11.736   8.242   4.228 -0.3237  0.2278 -0.2767
18810SOL    HW163291  11.685   8.171   4.188 -0.2956 -0.9934  1.7270
18810SOL    HW263292  11.700   8.322   4.189  0.2253 -0.8309 -3.2615
18811SOL     OW63293   6.266   0.199  10.653  1.2319 -0.2763  0.1289
18811SOL    HW163294   6.308   0.280  10.682  1.4812 -0.9768  1.8828
18811SOL    HW263295   6.236   0.158  10.734 -3.7312  0.5999 -0.9473
18812SOL     OW63296   8.673   5.623   8.187  0.1663 -0.1708  0.0025
18812SOL    HW163297   8.754   5.671   8.171 -0.9733  1.4455 -1.2518
18812SOL    HW263298   8.697   5.531   8.177  1.5038  0.3423 -2.0028
18813SOL     OW63299   6.155  10.253   5.105 -0.0200 -0.0952 -0.0927
18813SOL    HW163300   6.153  10.274   5.199 -0.1933 -2.8524  0.5941
18813SOL    HW263301   6.248  10.243   5.085  0.0801  1.3581 -0.4824
18814SOL     OW63302   6.259   8.489   5.693 -0.4542  0.4488  0.2201
18814SOL    HW163303   6.324   8.431   5.734 -1.3019 -0.0085  0.9412
18814SOL    HW263304   6.176   8.441   5.701 -1.3807  2.2172  1.8172
18815SOL     OW63305   3.492  12.007  12.072  0.6725  0.0706 -0.1967
18815SOL    HW163306   3.476  12.005  12.166  1.3741 -0.1248 -0.0765
18815SOL    HW263307   3.562  12.071  12.061  1.4281 -0.7707 -0.4464
18816SOL     OW63308   3.036   1.958   1.518  0.1518  0.2668  0.5073
18816SOL    HW163309   3.131   1.963   1.516  0.2487 -1.2861  0.6062
18816SOL    HW263310   3.011   1.933   1.430 -0.1762  0.6461  0.4869
18817SOL     OW63311   1.926  10.142   8.340 -0.4990 -0.2253  0.6959
18817SOL    HW163312   2.015  10.107   8.330 -0.8678 -0.8126 -0.9250
18817SOL    HW263313   1.870  10.065   8.339 -1.1077  0.2137  0.2860
18818SOL     OW63314   4.638   9.363   9.098 -0.2123  0.0589 -0.1053
18818SOL    HW163315   4.599   9.325   9.176 -1.1996  0.6703 -0.2820
18818SOL    HW263316   4.720   9.317   9.087  0.5198  0.7612  1.9609
18819SOL     OW63317   0.174   1.443   2.993  0.4941 -0.2826 -0.9200
18819SOL    HW163318   0.204   1.474   3.078 -1.0596 -0.6443 -0.2211
18819SOL    HW263319   0.229   1.367   2.975  0.8366 -0.2043 -0.2461
18820SOL     OW63320   7.915   8.441   6.684  0.0594  0.7206  0.0913
18820SOL    HW163321   7.921   8.375   6.753  1.5395  0.3997 -0.3140
18820SOL    HW263322   7.823   8.441   6.659 -0.1179 -0.6000  0.6630
18821SOL     OW63323  11.185  11.120   7.039 -0.9757 -0.0369  0.6252
18821SOL    HW163324  11.261  11.166   7.073 -1.2747  0.5925  0.4505
18821SOL    HW263325  11.182  11.143   6.946 -1.8104  0.5642  0.7897
18822SOL     OW63326   8.319   7.782   6.509 -0.0276 -0.6521  0.1871
18822SOL    HW163327   8.345   7.698   6.546 -1.7301 -0.9277  0.8538
18822SOL    HW263328   8.293   7.761   6.419  0.6736 -0.6175 -0.0292
18823SOL     OW63329   4.228   4.940  11.972  0.1509 -0.0252 -0.2871
18823SOL    HW163330   4.298   4.886  12.008  0.2794 -0.8048 -1.6549
18823SOL    HW263331   4.264   5.029  11.971 -0.0246  0.1307  1.8757
18824SOL     OW63332   7.283   9.169  11.985 -0.6695  0.3122 -0.3894
18824SOL    HW163333   7.348   9.101  11.970 -0.9714 -0.2046  0.5224
18824SOL    HW263334   7.216   9.153  11.918  0.0130  0.7028 -1.1808
18825SOL     OW63335  11.850  10.466   3.401  0.1093  0.5761  0.1437
18825SOL    HW163336  11.781  10.422   3.352 -1.3169  1.0163  1.6810
18825SOL    HW263337  11.809  10.545   3.436  1.1311  0.4251  1.7928
18826SOL     OW63338   3.476   0.968   9.085 -0.2696 -0.2891  0.1282
18826SOL    HW163339   3.460   1.017   9.005  0.1664 -0.0564  0.1775
18826SOL    HW263340   3.406   0.995   9.144 -1.0187 -1.0113 -0.4106
18827SOL     OW63341   0.834   6.480   0.417 -0.1994  0.1330 -0.0225
18827SOL    HW163342   0.801   6.560   0.374 -0.0763 -0.5779 -1.5175
18827SOL    HW263343   0.866   6.426   0.345 -1.0407 -1.6367  0.8758
18828SOL     OW63344   5.686   5.043  11.797  0.0762  0.4811 -0.1650
18828SOL    HW163345   5.657   4.965  11.750  2.3618 -0.6420  0.1581
18828SOL    HW263346   5.654   5.031  11.886 -0.8160  0.6503 -0.4499
18829SOL     OW63347   6.549   9.684   9.294  0.2085  0.0918  0.0108
18829SOL    HW163348   6.463   9.690   9.336  0.8492  0.4539  1.3094
18829SOL    HW263349   6.594   9.764   9.320  1.9536 -1.3259  1.7148
18830SOL     OW63350   9.131   4.152   1.194 -0.3835  0.4466 -0.0114
18830SOL    HW163351   9.185   4.223   1.160  1.9112 -1.8514 -1.5643
18830SOL    HW263352   9.136   4.162   1.289  1.1566  1.5104 -0.1655
18831SOL     OW63353   4.742   9.604   6.792 -0.5017  0.3936 -0.0056
18831SOL    HW163354   4.795   9.584   6.715 -1.5930  0.8580 -0.8915
18831SOL    HW263355   4.654   9.619   6.758 -1.1571 -0.0726  1.4096
18832SOL     OW63356   7.046  12.217  10.411 -0.2129 -0.3013  0.0564
18832SOL    HW163357   7.050  12.122  10.422 -0.3475 -0.4658 -1.1924
18832SOL    HW263358   7.137  12.246  10.423 -0.2878 -0.4767  1.1894
18833SOL     OW63359   4.632   9.012   7.813  0.2567 -0.6085 -0.0636
18833SOL    HW163360   4.570   9.006   7.886 -0.8139 -0.1864 -0.9099
18833SOL    HW263361   4.658   9.104   7.811 -0.3471 -0.4417 -0.6989
18834SOL     OW63362   2.710  11.202   0.275 -0.2247 -0.0337 -0.4215
18834SOL    HW163363   2.766  11.128   0.295  1.9949  1.4306 -0.9172
18834SOL    HW263364   2.681  11.188   0.185 -1.3745 -1.1814  0.0904
18835SOL     OW63365   8.838   3.593   1.688  0.0081 -0.6915 -0.0116
18835SOL    HW163366   8.826   3.569   1.595 -0.6291 -0.2411 -0.0497
18835SOL    HW263367   8.926   3.564   1.708  0.5420  0.1241 -1.0534
18836SOL     OW63368   7.257  11.234   1.696 -0.2415 -0.6914 -0.4330
18836SOL    HW163369   7.233  11.147   1.666  0.3781 -1.3455  0.9237
18836SOL    HW263370   7.351  11.231   1.710 -0.3109 -0.0045  0.2691
18837SOL     OW63371   3.941  10.294   5.371 -0.6237  1.0288  0.2584
18837SOL    HW163372   3.886  10.309   5.294 -0.5923 -1.5446 -0.3354
18837SOL    HW263373   3.904  10.215   5.411  1.1854  0.6195  1.1945
18838SOL     OW63374   1.837   5.070   6.185  0.0564 -0.0623  0.2120
18838SOL    HW163375   1.918   5.022   6.203  0.4498 -0.0312 -1.3049
18838SOL    HW263376   1.824   5.061   6.091 -1.9348 -0.3840  0.4731
18839SOL     OW63377   9.072  11.930   5.047 -0.4660  0.5021 -0.8525
18839SOL    HW163378   9.058  11.980   5.127  2.0365  0.1045 -0.0983
18839SOL    HW263379   9.165  11.938   5.029 -0.9904  0.9190 -3.9941
18840SOL     OW63380   1.180   8.820   7.818  0.0937  0.1639 -0.4557
18840SOL    HW163381   1.106   8.880   7.827  0.4208  0.4331  0.5239
18840SOL    HW263382   1.255   8.877   7.802  0.7027  0.1915  2.1306
18841SOL     OW63383   8.870   1.088   8.679 -0.1570  0.2338 -0.4469
18841SOL    HW163384   8.894   1.181   8.676 -0.7338  0.5674  2.4580
18841SOL    HW263385   8.785   1.083   8.636 -0.2821  1.1249 -0.3119
18842SOL     OW63386   2.759   1.139   3.508  0.7757 -0.5639  0.0915
18842SOL    HW163387   2.804   1.058   3.531  1.3910 -0.1525  0.3512
18842SOL    HW263388   2.717   1.168   3.589  0.2825 -0.7902 -0.0792
18843SOL     OW63389   7.044   6.999   9.786  0.3552 -0.3918  0.2720
18843SOL    HW163390   7.059   6.991   9.691  1.2121  2.0015  0.1400
18843SOL    HW263391   7.125   7.035   9.820 -0.6369  0.6812  1.5976
18844SOL     OW63392   2.055   5.001   5.614  0.1297  0.3175  0.1256
18844SOL    HW163393   2.066   4.973   5.523  2.4252  1.6326 -0.0780
18844SOL    HW263394   2.021   5.090   5.607 -1.3642 -0.1827  0.6400
18845SOL     OW63395   1.608  10.872   2.741  0.5845  0.0352 -0.0205
18845SOL    HW163396   1.538  10.856   2.677  0.3188  1.4598 -0.1158
18845SOL    HW263397   1.566  10.855   2.825 -0.3016  2.0580  0.0125
18846SOL     OW63398   8.541   7.690   4.142  0.3705 -0.3069 -0.1274
18846SOL    HW163399   8.625   7.689   4.189  1.4138 -2.3199 -1.8110
18846SOL    HW263400   8.535   7.778   4.104  2.3190 -0.4425 -0.8729
18847SOL     OW63401  10.742   8.819   2.827 -0.1859  0.1822  0.5611
18847SOL    HW163402  10.649   8.806   2.845  0.0941  0.5599  2.5781
18847SOL    HW263403  10.774   8.733   2.801 -0.9761 -0.1037  0.5131
18848SOL     OW63404   8.549   7.363   6.139 -0.9742 -0.2570 -0.3391
18848SOL    HW163405   8.584   7.427   6.077 -3.1537  0.6288 -0.7707
18848SOL    HW263406   8.579   7.279   6.106  2.8410  0.4447  0.8137
18849SOL     OW63407   4.544   1.558   6.160 -0.0147  0.2738 -0.3631
18849SOL    HW163408   4.506   1.593   6.079 -0.9157 -1.5987 -0.8020
18849SOL    HW263409   4.488   1.483   6.183  1.4695 -0.5283  0.8273
18850SOL     OW63410   8.369   9.216   4.874  0.0864 -0.0099 -0.5591
18850SOL    HW163411   8.317   9.270   4.814  0.2526 -0.6177 -1.2717
18850SOL    HW263412   8.403   9.145   4.819  2.7607  1.0626 -0.4522
18851SOL     OW63413   4.126   1.178   8.139  0.0740  0.8370  0.1293
18851SOL    HW163414   4.218   1.161   8.160  0.0465  0.7044  0.1413
18851SOL    HW263415   4.123   1.175   8.044  0.2911  1.9073  0.0768
18852SOL     OW63416  11.942   5.546   3.880 -0.2524 -0.2306 -0.2292
18852SOL    HW163417  11.988   5.575   3.959 -1.3826 -1.2227  0.8300
18852SOL    HW263418  11.859   5.593   3.883 -0.1797 -0.0447 -1.0059
18853SOL     OW63419  11.113   7.926   1.361 -0.1743 -0.3242 -0.1391
18853SOL    HW163420  11.133   7.833   1.375  1.5583 -0.2880 -1.8902
18853SOL    HW263421  11.168   7.972   1.425 -1.5959 -0.4833  1.2459
18854SOL     OW63422   9.680   5.836  11.621  0.3392  0.0842 -0.4556
18854SOL    HW163423   9.712   5.746  11.625  1.6733  0.5775  0.3736
18854SOL    HW263424   9.612   5.840  11.689 -0.7652 -0.6625 -1.4770
18855SOL     OW63425   3.224   4.746   4.231 -0.5287 -0.2881 -0.1654
18855SOL    HW163426   3.299   4.804   4.220  0.7181 -1.4797  1.5888
18855SOL    HW263427   3.258   4.658   4.216 -1.6011 -0.8518  0.5408
18856SOL     OW63428  10.660  11.142   9.495  0.0670  0.1188  0.4049
18856SOL    HW163429  10.575  11.184   9.509 -0.2792 -0.7622  1.0959
18856SOL    HW263430  10.724  11.213   9.499 -0.8222  1.2861 -3.0595
18857SOL     OW63431   8.768  10.945   3.791 -0.3452 -0.0118  0.0713
18857SOL    HW163432   8.845  10.977   3.838 -0.7916  0.1528  0.7099
18857SOL    HW263433   8.781  10.972   3.700  0.2720  0.1457  0.2048
18858SOL     OW63434   9.874   4.733   7.132 -0.2039 -0.2465  0.3119
18858SOL    HW163435   9.915   4.810   7.170 -0.0319 -0.3793  0.3966
18858SOL    HW263436   9.783   4.737   7.163 -0.4554  0.4389 -0.4706
18859SOL     OW63437  12.329   4.964   8.155 -0.3053 -0.4726 -0.3390
18859SOL    HW163438  12.386   4.905   8.105 -0.3429 -0.3118 -0.5696
18859SOL    HW263439  12.322   4.922   8.241  0.0127 -0.5873 -0.3663
18860SOL     OW63440  12.131  10.861   6.702  0.3559  0.6296 -0.2861
18860SOL    HW163441  12.142  10.926   6.633  0.2699  0.9119 -0.0380
18860SOL    HW263442  12.218  10.822   6.713  0.3221  0.4423 -0.6907
18861SOL     OW63443  11.324   6.812   0.829 -0.1951 -0.3675 -0.0235
18861SOL    HW163444  11.276   6.730   0.824 -1.2052  0.1353  0.9509
18861SOL    HW263445  11.401   6.799   0.774  0.0914 -2.2605  0.7677
18862SOL     OW63446  10.470  12.291   5.842 -0.0836  0.9509 -0.1203
18862SOL    HW163447  10.480  12.209   5.795 -0.2075  0.5467  0.5349
18862SOL    HW263448  10.402  12.273   5.907  0.6842  1.2209  0.7867
18863SOL     OW63449   4.174  10.753   2.217  0.5161  0.1384  0.6018
18863SOL    HW163450   4.150  10.716   2.302 -0.6853  0.8533  0.5965
18863SOL    HW263451   4.185  10.677   2.160  1.4200 -0.3523  1.3992
18864SOL     OW63452   5.126   7.639  11.239  0.0136 -0.2797  0.2902
18864SOL    HW163453   5.198   7.675  11.291  0.1933 -0.5562  0.2374
18864SOL    HW263454   5.085   7.574  11.296 -0.7147  0.4552  0.6231
18865SOL     OW63455  10.500   0.170  10.085  0.0945 -0.1567 -0.1990
18865SOL    HW163456  10.461   0.085  10.104 -0.9322  0.3389 -0.0222
18865SOL    HW263457  10.433   0.234  10.110  0.1336  0.6626 -1.9848
18866SOL     OW63458   0.948   6.922   4.213  0.1090  0.0158  1.0165
18866SOL    HW163459   0.880   6.903   4.148 -0.4214  3.0020  0.5712
18866SOL    HW263460   1.029   6.929   4.162  0.4042 -1.3152  1.2521
18867SOL     OW63461   5.820   8.372   6.734 -0.3479  0.0658 -0.3035
18867SOL    HW163462   5.841   8.452   6.686  2.0620 -0.1635  0.2290
18867SOL    HW263463   5.905   8.328   6.745 -1.4054 -1.8440  0.6756
18868SOL     OW63464   4.582   3.146   8.964 -0.2170  0.4385  0.1682
18868SOL    HW163465   4.496   3.114   8.937 -0.6154  1.3197  0.3382
18868SOL    HW263466   4.584   3.131   9.059 -0.6074  1.3455  0.3287
18869SOL     OW63467  11.868  11.168   4.397 -0.2956  0.2918  0.1375
18869SOL    HW163468  11.917  11.193   4.476  0.8861 -1.9822  0.2109
18869SOL    HW263469  11.777  11.182   4.421  0.1163  1.1218  1.3419
18870SOL     OW63470   9.048   0.751   1.217  0.6591  0.1692 -0.2581
18870SOL    HW163471   9.065   0.716   1.129  1.0884  2.3668 -1.1280
18870SOL    HW263472   9.125   0.726   1.268 -0.3080 -2.5431  0.0398
18871SOL     OW63473   0.998   1.946  11.407  0.1428 -0.9707  0.4946
18871SOL    HW163474   1.034   1.864  11.374 -0.5795 -1.1713  0.1785
18871SOL    HW263475   0.924   1.965  11.349  0.3470 -0.0600  0.5247
18872SOL     OW63476   0.202   2.704   4.828 -0.0380 -0.0117 -0.7716
18872SOL    HW163477   0.294   2.679   4.821  0.4771  1.6428 -0.3694
18872SOL    HW263478   0.198   2.792   4.791 -0.9683  0.9302  1.3886
18873SOL     OW63479  10.906   4.014   5.255 -0.0174  0.1802  0.3406
18873SOL    HW163480  10.839   4.013   5.323  1.0122  1.7925  1.4368
18873SOL    HW263481  10.976   4.068   5.291  1.5428 -0.8112 -1.0988
18874SOL     OW63482   4.784   0.677   9.853 -0.1064  0.5725  0.4740
18874SOL    HW163483   4.739   0.681   9.937 -0.2204 -1.8055  0.6034
18874SOL    HW263484   4.715   0.660   9.789  0.2548 -0.4246  0.3191
18875SOL     OW63485   7.814  12.100   3.006 -0.6399 -0.0168  0.1925
18875SOL    HW163486   7.835  12.037   2.937  2.7549  1.2403 -0.0949
18875SOL    HW263487   7.769  12.171   2.961 -1.7262 -0.7897 -0.0029
18876SOL     OW63488   9.871   8.639   2.408  0.5354 -0.0483 -0.6553
18876SOL    HW163489   9.850   8.679   2.493  0.2233 -1.0844 -0.2339
18876SOL    HW263490   9.965   8.654   2.398  0.5886  0.0235 -0.0957
18877SOL     OW63491   3.945   9.868  11.330  0.4689  0.5918  0.3495
18877SOL    HW163492   3.851   9.877  11.345  0.5919  0.5188  1.2325
18877SOL    HW263493   3.958   9.774  11.315  0.3969  0.6119  0.1494
18878SOL     OW63494   1.058   9.382   4.668 -0.1702 -0.0404  0.3768
18878SOL    HW163495   1.100   9.368   4.752  1.9975 -0.9637 -0.7688
18878SOL    HW263496   0.991   9.314   4.662  0.6963 -0.9543  0.7440
18879SOL     OW63497   8.958   1.672   0.984 -0.2402  0.3283 -0.9662
18879SOL    HW163498   8.918   1.674   1.071 -1.4203  3.3977 -1.4312
18879SOL    HW263499   8.943   1.583   0.953 -1.4659 -0.3184  1.2186
18880SOL     OW63500   9.672   0.219   9.023  0.1833 -0.2202  0.2088
18880SOL    HW163501   9.704   0.279   9.091 -0.1574 -0.2851  0.4304
18880SOL    HW263502   9.742   0.155   9.013  1.5059  1.3841 -1.5316
18881SOL     OW63503   5.555   1.107   2.477 -0.2648  0.1760 -0.2343
18881SOL    HW163504   5.586   1.198   2.476  0.8346 -0.1132  1.5694
18881SOL    HW263505   5.635   1.055   2.490 -1.0740 -0.9099  0.5598
18882SOL     OW63506   5.887   8.455   1.456  0.0262  0.4907  0.0240
18882SOL    HW163507   5.952   8.442   1.386  0.4172  1.9126  0.0955
18882SOL    HW263508   5.905   8.384   1.518  1.2249  0.6058 -0.1717
18883SOL     OW63509   3.935   1.930  11.288  0.1209  0.0963  0.3186
18883SOL    HW163510   3.959   1.983  11.212  0.4757 -0.9394 -0.3194
18883SOL    HW263511   3.873   1.984  11.337  1.4444  1.6012  0.3850
18884SOL     OW63512   8.830   4.866   2.609  0.5035 -0.3643 -0.2226
18884SOL    HW163513   8.880   4.799   2.561  0.1402 -1.4419  0.8595
18884SOL    HW263514   8.888   4.893   2.680 -0.2155 -1.2165  0.7095
18885SOL     OW63515  10.473   5.618   7.504 -0.0058  0.0465  0.6142
18885SOL    HW163516  10.445   5.568   7.581  2.9170 -0.5329  1.4336
18885SOL    HW263517  10.487   5.707   7.537  0.1214  0.0738  0.4882
18886SOL     OW63518  10.290   9.830   7.743 -0.2566  0.0380  0.3995
18886SOL    HW163519  10.273   9.839   7.837 -0.2816  0.4061  0.3632
18886SOL    HW263520  10.357   9.896   7.725 -0.6205  0.3144  0.0613
18887SOL     OW63521   2.415  11.464   0.671  0.2581  0.1681 -0.0575
18887SOL    HW163522   2.468  11.543   0.685 -0.6325  0.8816 -0.6185
18887SOL    HW263523   2.438  11.435   0.582  2.0830 -1.4056  0.8410
18888SOL     OW63524   9.720   6.466   3.824  0.1682  0.0888  0.1893
18888SOL    HW163525   9.803   6.418   3.830  0.0195 -0.3212 -0.8995
18888SOL    HW263526   9.690   6.474   3.915  1.8691  1.0883  0.7106
18889SOL     OW63527   9.487   6.323   3.524  0.1162  0.0790  0.0074
18889SOL    HW163528   9.411   6.374   3.494 -0.1487  0.5218  1.3705
18889SOL    HW263529   9.559   6.355   3.469 -0.4328  0.5240 -0.4799
18890SOL     OW63530   4.776   6.287   2.147 -0.2961 -0.0026  0.1104
18890SOL    HW163531   4.818   6.281   2.061 -0.8910 -2.2032 -0.0711
18890SOL    HW263532   4.844   6.324   2.204  1.0340 -1.0821 -0.7213
18891SOL     OW63533   1.036   8.746   8.410  0.0768 -0.2028 -0.1756
18891SOL    HW163534   1.005   8.821   8.360 -0.7519 -1.2413 -1.2785
18891SOL    HW263535   1.016   8.768   8.501  1.1186  1.4851 -0.3090
18892SOL     OW63536   8.976   7.520   1.427 -0.3439 -0.3236  0.3024
18892SOL    HW163537   8.896   7.469   1.439  0.3753 -2.0251 -1.5038
18892SOL    HW263538   8.947   7.601   1.385 -1.2040 -0.5967  0.3531
18893SOL     OW63539   5.234   8.038  11.404  0.8690  0.5493 -0.0516
18893SOL    HW163540   5.188   8.089  11.338 -0.3076  0.7388  0.8759
18893SOL    HW263541   5.226   7.947  11.375  0.7127  0.6654 -0.3746
18894SOL     OW63542   3.729   7.797   8.690  0.1851 -0.1532  0.2199
18894SOL    HW163543   3.798   7.778   8.754  0.2435 -0.6106  0.0261
18894SOL    HW263544   3.708   7.712   8.652 -0.6955 -0.0713  0.4921
18895SOL     OW63545   9.204   8.007  12.264 -0.6013 -1.0199 -0.8402
18895SOL    HW163546   9.197   8.038  12.354  0.1659  1.1669 -1.4667
18895SOL    HW263547   9.226   8.085  12.213  0.0064 -2.3801 -2.7934
18896SOL     OW63548   8.242   1.402   6.845  0.5659 -0.4299  0.6640
18896SOL    HW163549   8.259   1.494   6.824 -0.8570 -0.0912  0.8760
18896SOL    HW263550   8.288   1.388   6.928  1.9317 -0.3156 -0.0505
18897SOL     OW63551   2.381   7.081   8.089 -0.2720  0.2915 -0.1579
18897SOL    HW163552   2.408   7.172   8.098  0.8470 -0.1659  1.4942
18897SOL    HW263553   2.288   7.081   8.113 -0.4828  1.0900 -0.9238
18898SOL     OW63554   3.241   0.191   3.739  0.4891  0.3789 -0.4013
18898SOL    HW163555   3.197   0.113   3.706  1.4457 -0.6656  0.6681
18898SOL    HW263556   3.335   0.173   3.728  0.7854  0.6831  1.2780
18899SOL     OW63557   8.537   5.968   8.893  0.2874  0.8467 -0.0966
18899SOL    HW163558   8.584   6.034   8.842 -1.2315 -0.2301 -3.1377
18899SOL    HW263559   8.582   5.886   8.875  1.2357  0.7074  2.4385
18900SOL     OW63560   4.385   3.796   2.886  0.1090  0.0283  0.0177
18900SOL    HW163561   4.374   3.708   2.923  0.4026 -0.9592 -2.0573
18900SOL    HW263562   4.462   3.831   2.930 -2.2704  0.9852  3.8423
18901SOL     OW63563   9.862   1.808   8.337  0.0843  0.3663 -0.0602
18901SOL    HW163564   9.787   1.857   8.371  0.7405  1.0952  0.3633
18901SOL    HW263565   9.844   1.717   8.362 -1.0904  0.3852 -0.7514
18902SOL     OW63566   6.375   3.213   5.447  0.1656 -0.0592  0.2316
18902SOL    HW163567   6.364   3.254   5.532 -1.3906  1.6975 -0.7501
18902SOL    HW263568   6.287   3.212   5.409  0.8712 -0.5215 -1.4856
18903SOL     OW63569   3.808   7.287   7.149  0.3666  0.3469 -0.7857
18903SOL    HW163570   3.876   7.240   7.100  2.9234  1.9702  1.0037
18903SOL    HW263571   3.787   7.229   7.222  2.8410  1.4180  0.8928
18904SOL     OW63572   9.524   4.230   9.836  0.0122 -0.1545 -0.5235
18904SOL    HW163573   9.469   4.152   9.846  1.3838 -1.0052  0.7154
18904SOL    HW263574   9.498   4.267   9.751 -1.1248 -1.5748 -0.8295
18905SOL     OW63575   5.741  12.108   3.190 -0.4257  0.3217  0.2225
18905SOL    HW163576   5.682  12.158   3.135 -0.7373 -0.2240  0.0553
18905SOL    HW263577   5.810  12.078   3.131 -0.7775 -0.2918  0.1165
18906SOL     OW63578   9.058   6.113   7.439 -0.0425  0.1845  0.2367
18906SOL    HW163579   8.963   6.109   7.445 -0.0171 -0.3967  0.3613
18906SOL    HW263580   9.080   6.060   7.362  0.2649 -1.0122  1.1154
18907SOL     OW63581   5.247   8.288   6.559 -0.1137  0.5035 -0.1235
18907SOL    HW163582   5.188   8.333   6.620  0.2871 -0.1028  0.7384
18907SOL    HW263583   5.304   8.357   6.526 -1.8772  1.2958 -1.7422
18908SOL     OW63584   2.723   9.311   1.211  0.4582 -0.0652  0.2508
18908SOL    HW163585   2.672   9.283   1.287 -0.4411  0.8688  0.0186
18908SOL    HW263586   2.690   9.399   1.191  1.0844 -0.0626 -0.8603
18909SOL     OW63587  10.077   4.448   3.371  0.3857  0.1710 -0.2533
18909SOL    HW163588  10.068   4.423   3.462  1.8821  2.8390  0.7587
18909SOL    HW263589   9.992   4.485   3.347  0.1466 -0.0618  0.2447
18910SOL     OW63590  12.228   6.450   6.815 -0.5594  0.0156  0.4588
18910SOL    HW163591  12.168   6.376   6.821  0.3036 -0.7868 -0.4143
18910SOL    HW263592  12.282   6.431   6.738  0.9386  0.5920  1.3140
18911SOL     OW63593  10.342   0.962   9.561  0.1522  0.3650 -0.1769
18911SOL    HW163594  10.405   1.028   9.589  0.6633 -0.7430  1.3889
18911SOL    HW263595  10.394   0.896   9.516 -0.3159  0.8523 -1.4726
18912SOL     OW63596  11.993  10.982  10.610  0.2963 -0.4918 -0.5738
18912SOL    HW163597  12.048  11.007  10.684 -1.1540  0.4849  0.2336
18912SOL    HW263598  12.009  11.048  10.543 -0.4189  0.2211 -0.0545
18913SOL     OW63599   8.752   9.066   3.549 -0.1303  0.2066 -0.4527
18913SOL    HW163600   8.682   9.131   3.544 -0.1515  0.0979 -1.6645
18913SOL    HW263601   8.719   8.990   3.501  1.1636  0.5005 -1.8905
18914SOL     OW63602   8.504   3.174   3.190 -0.3137  0.0436 -0.3228
18914SOL    HW163603   8.454   3.100   3.158  0.3115  0.0344 -1.3001
18914SOL    HW263604   8.437   3.239   3.214 -0.8185  0.4179 -2.5188
18915SOL     OW63605   8.966   7.880   2.373  0.1003  0.0676 -0.2009
18915SOL    HW163606   8.883   7.908   2.333 -0.4301  0.4843  1.1391
18915SOL    HW263607   9.012   7.833   2.303 -0.8801  0.5960 -1.2245
18916SOL     OW63608   6.379   4.231   1.012  0.9283 -0.2763  0.3804
18916SOL    HW163609   6.377   4.212   1.106  1.0197 -0.1223  0.4131
18916SOL    HW263610   6.288   4.253   0.990  1.0429  0.4297  0.5857
18917SOL     OW63611   2.480   7.966   8.465  0.2161 -0.0965  0.7030
18917SOL    HW163612   2.481   7.921   8.380  1.6016 -0.2028  0.7430
18917SOL    HW263613   2.542   8.038   8.454  0.0321  0.1831  1.4740
18918SOL     OW63614   7.061   5.386   1.930  0.3647 -0.0600 -0.1065
18918SOL    HW163615   7.082   5.390   1.836 -1.8980  1.1038 -0.6656
18918SOL    HW263616   7.064   5.293   1.952  2.0151 -0.2637 -1.0268
18919SOL     OW63617   1.930   7.259   0.473 -0.3629  0.5176 -0.2274
18919SOL    HW163618   1.877   7.209   0.411  0.3381 -1.5355  0.7479
18919SOL    HW263619   2.018   7.258   0.437  0.0074 -0.5023  0.6559
18920SOL     OW63620   8.742   7.397   0.102  0.0600 -0.1929 -0.1926
18920SOL    HW163621   8.659   7.438   0.078 -0.5341 -1.5441 -0.5706
18920SOL    HW263622   8.767   7.347   0.024  1.7205  0.9188 -0.4174
18921SOL     OW63623  10.005   3.543   6.159  0.2421 -0.3291 -0.2222
18921SOL    HW163624   9.954   3.543   6.077 -1.6195 -0.8368  0.8773
18921SOL    HW263625  10.082   3.489   6.139  1.6111  2.2274 -2.5926
18922SOL     OW63626   1.694   8.481   5.929 -0.2764 -0.4915 -0.2169
18922SOL    HW163627   1.662   8.456   6.016 -1.9723  0.0263 -0.6573
18922SOL    HW263628   1.699   8.399   5.881  0.2322 -0.7240  0.2198
18923SOL     OW63629   2.993   3.358   3.612  0.2009  0.2031  0.6974
18923SOL    HW163630   3.063   3.323   3.558  1.0949  1.1618  1.2033
18923SOL    HW263631   2.959   3.283   3.660 -0.7094 -0.7079 -1.2551
18924SOL     OW63632   0.396   8.726  11.145  0.7439 -0.3809  0.4521
18924SOL    HW163633   0.478   8.680  11.161 -0.1976 -1.9040  1.1465
18924SOL    HW263634   0.385   8.784  11.221  0.7130 -0.8789  0.8265
18925SOL     OW63635   8.056   3.192  11.226 -0.1096 -0.0763 -0.2215
18925SOL    HW163636   8.074   3.106  11.263  0.2476 -0.7675 -1.9154
18925SOL    HW263637   8.139   3.219  11.187 -0.1305  1.1913  0.5672
18926SOL     OW63638   5.399   6.527   2.921 -0.2946  0.0657  0.7637
18926SOL    HW163639   5.435   6.595   2.978  0.6264  0.2965 -0.0504
18926SOL    HW263640   5.366   6.460   2.980  0.8228  0.2052  1.5783
18927SOL     OW63641   7.424   2.767   2.640 -0.1486  0.0429  0.4068
18927SOL    HW163642   7.473   2.846   2.619 -1.0439  0.4865 -0.0657
18927SOL    HW263643   7.414   2.721   2.557  0.2114 -0.4848  0.6474
18928SOL     OW63644   1.685   5.616   8.910  0.0444  0.6984  0.0639
18928SOL    HW163645   1.731   5.533   8.913 -0.7147  0.2781  2.6733
18928SOL    HW263646   1.598   5.598   8.946  0.4893  2.9062  2.5629
18929SOL     OW63647   7.146  11.066   2.818 -0.6947  0.0119 -0.4268
18929SOL    HW163648   7.103  11.138   2.772  0.8272  0.9855 -0.3786
18929SOL    HW263649   7.239  11.089   2.817 -0.2929 -1.4655  0.4747
18930SOL     OW63650   1.351   8.723  12.192  0.1076 -0.0129  0.2531
18930SOL    HW163651   1.357   8.818  12.193 -1.5739  0.1354 -0.8335
18930SOL    HW263652   1.394   8.697  12.110 -0.7756 -0.0654 -0.1976
18931SOL     OW63653   4.720   1.631   3.354 -0.1074 -0.7565 -0.0212
18931SOL    HW163654   4.704   1.723   3.331 -1.5976 -0.2979  2.5091
18931SOL    HW263655   4.646   1.584   3.315  1.1814 -1.1249 -2.1938
18932SOL     OW63656   7.438  10.874   0.951  0.3623  0.2632  0.2227
18932SOL    HW163657   7.416  10.784   0.976 -0.2448  0.1699 -0.6205
18932SOL    HW263658   7.528  10.869   0.920  0.0918 -0.2005 -0.5092
18933SOL     OW63659   8.929   5.184  11.483 -0.5701 -0.2112  0.1468
18933SOL    HW163660   8.927   5.258  11.544 -1.9238  0.1521 -0.3189
18933SOL    HW263661   8.935   5.107  11.540 -1.5116  0.1381  0.7373
18934SOL     OW63662  11.872   6.747  11.240  0.4401 -0.3579 -0.4706
18934SOL    HW163663  11.792   6.749  11.294 -0.6805  2.1379 -2.0476
18934SOL    HW263664  11.941   6.718  11.301 -1.2011 -0.1753  1.5989
18935SOL     OW63665   7.621   2.260  10.847  0.6761  0.3629 -0.5485
18935SOL    HW163666   7.655   2.264  10.758  1.7105  1.3886 -0.1313
18935SOL    HW263667   7.566   2.337  10.856  1.6023  0.9742  0.0806
18936SOL     OW63668   4.311   5.004   2.140 -0.5353  0.3332 -0.0546
18936SOL    HW163669   4.250   5.057   2.191 -0.3184  2.5980 -1.9364
18936SOL    HW263670   4.263   4.924   2.120 -1.5181  0.5000  1.5272
18937SOL     OW63671   4.153   9.996  10.795 -0.3108 -0.2176  0.0061
18937SOL    HW163672   4.235  10.005  10.747  0.0539  0.1551  0.6838
18937SOL    HW263673   4.168   9.924  10.856 -0.1431  0.4736  0.8007
18938SOL     OW63674   7.546   9.567   8.377  0.4675 -0.3127  0.4425
18938SOL    HW163675   7.519   9.479   8.405  0.8890 -0.3027  0.9094
18938SOL    HW263676   7.470   9.603   8.331  0.2746 -0.9009  0.2982
18939SOL     OW63677   3.405   7.234   9.792 -0.1633  0.0544 -0.4836
18939SOL    HW163678   3.421   7.325   9.815  0.2835 -0.6816  2.5884
18939SOL    HW263679   3.398   7.189   9.876  2.2416 -3.1861 -1.7947
18940SOL     OW63680   8.187   9.871   7.202 -0.2848 -0.4653  0.2452
18940SOL    HW163681   8.117   9.852   7.139 -0.3944 -0.7199  0.4445
18940SOL    HW263682   8.155   9.946   7.252  0.1745  0.3007 -0.5821
18941SOL     OW63683   6.029   3.506   9.481 -0.3038  0.0496 -0.3227
18941SOL    HW163684   6.013   3.433   9.422  0.1571 -0.6534  0.4062
18941SOL    HW263685   6.063   3.576   9.425 -1.8944  0.1448 -1.2255
18942SOL     OW63686   7.077   4.665   1.510 -0.3440 -0.5690 -0.4421
18942SOL    HW163687   7.109   4.718   1.583  2.1330 -0.2923 -1.6275
18942SOL    HW263688   6.986   4.648   1.531  0.3658 -0.8861  2.9351
18943SOL     OW63689   6.325   7.827  11.075  0.1108  0.0695 -0.2537
18943SOL    HW163690   6.303   7.852  10.986 -0.4575 -1.3273 -0.5428
18943SOL    HW263691   6.271   7.749  11.091  2.1588 -1.2941  0.3335
18944SOL     OW63692   8.034   0.397   7.520  0.0920 -0.4214  0.0904
18944SOL    HW163693   8.049   0.491   7.513  2.1146 -0.7070 -0.1886
18944SOL    HW263694   8.024   0.381   7.614  0.5329 -0.0206  0.2087
18945SOL     OW63695  11.856   8.800   3.370  0.5435 -0.0048 -0.1853
18945SOL    HW163696  11.818   8.781   3.284  2.7683 -1.1041 -1.0055
18945SOL    HW263697  11.848   8.718   3.418 -1.0231  0.7117  0.8486
18946SOL     OW63698   6.210   8.812   3.716  0.7806 -0.0109 -0.4119
18946SOL    HW163699   6.167   8.854   3.642 -1.2680 -0.8678  0.2194
18946SOL    HW263700   6.252   8.734   3.679  0.5560  0.0611 -0.8198
18947SOL     OW63701   8.017   0.640   7.715 -0.2749 -0.1797  0.0321
18947SOL    HW163702   8.110   0.660   7.715 -0.2197 -0.3524 -1.4897
18947SOL    HW263703   7.989   0.653   7.806  0.8729  1.5040  0.1664
18948SOL     OW63704  10.145   0.408   4.544 -0.3683 -0.3696 -0.5212
18948SOL    HW163705  10.173   0.378   4.631 -0.7657  0.2687 -0.1634
18948SOL    HW263706  10.067   0.357   4.525 -1.0637  0.4339  0.0998
18949SOL     OW63707  11.813   1.440   1.883 -0.0444 -0.5736 -0.7150
18949SOL    HW163708  11.790   1.510   1.822 -1.5463 -0.5524 -0.1527
18949SOL    HW263709  11.900   1.465   1.916  0.4129 -0.1279 -2.1469
18950SOL     OW63710   7.763  10.789   1.590 -0.4403 -0.1716 -0.4758
18950SOL    HW163711   7.842  10.754   1.548  0.1657  0.5482  0.0280
18950SOL    HW263712   7.782  10.782   1.684 -1.3691 -0.8423 -0.3242
18951SOL     OW63713   0.453   2.769  11.141 -0.2303  0.1959  0.2258
18951SOL    HW163714   0.477   2.790  11.050  3.6286 -0.5846  0.8868
18951SOL    HW263715   0.470   2.849  11.190 -1.3934  0.3322  0.4237
18952SOL     OW63716   4.632   2.699   5.282 -0.4069 -0.2708 -0.5013
18952SOL    HW163717   4.646   2.606   5.264 -1.8378 -1.2109  2.6130
18952SOL    HW263718   4.548   2.719   5.241 -0.0588 -0.2895 -1.2454
18953SOL     OW63719   1.364   4.704   8.935 -0.0014 -0.4122  0.0599
18953SOL    HW163720   1.453   4.721   8.902 -0.3739 -1.2887 -1.4840
18953SOL    HW263721   1.335   4.627   8.886 -1.3354 -0.5983  1.1014
18954SOL     OW63722   6.893   7.333   3.121 -0.5921 -0.4187  0.4028
18954SOL    HW163723   6.840   7.400   3.163 -0.1828 -0.2774  0.7023
18954SOL    HW263724   6.852   7.319   3.035 -0.6384  0.2625  0.3113
18955SOL     OW63725   5.771  10.436   4.757  0.4083  0.3857  0.2961
18955SOL    HW163726   5.720  10.366   4.798  0.4223 -0.5318 -1.1866
18955SOL    HW263727   5.710  10.477   4.696  1.0706  0.0452 -0.6241
18956SOL     OW63728  11.508   4.992   5.564  0.0705  0.1385  0.4239
18956SOL    HW163729  11.415   5.015   5.565 -0.3866 -1.5096 -0.9351
18956SOL    HW263730  11.553   5.076   5.576 -1.5675  0.9790  1.0401
18957SOL     OW63731  11.990   6.429   1.550  0.3461  0.4725  0.7570
18957SOL    HW163732  11.976   6.479   1.469  0.3662 -1.4628 -0.5151
18957SOL    HW263733  11.919   6.456   1.608  0.4535  2.0665  0.1825
18958SOL     OW63734   9.406   9.969   0.531 -0.4832  0.0020 -0.8456
18958SOL    HW163735   9.336  10.032   0.548 -0.7655 -0.1768 -1.3247
18958SOL    HW263736   9.465   9.978   0.606 -1.1709 -0.0567 -0.2862
18959SOL     OW63737   3.545   4.048  10.587  0.0629 -0.6145  0.6671
18959SOL    HW163738   3.532   3.974  10.646 -1.6741 -0.6751  0.2536
18959SOL    HW263739   3.457   4.072  10.559  0.4897  2.1122  1.3734
18960SOL     OW63740   3.784  12.259  11.628 -0.1009 -0.3912  0.9009
18960SOL    HW163741   3.823  12.344  11.612 -0.3529 -0.3866  0.2746
18960SOL    HW263742   3.739  12.237  11.546  0.0270 -1.1595  1.0246
18961SOL     OW63743   6.442   5.626   4.935 -0.2935 -0.3734 -0.2250
18961SOL    HW163744   6.434   5.721   4.949 -0.4001 -0.3293 -0.5812
18961SOL    HW263745   6.388   5.588   5.005 -0.2055 -0.1739 -0.0457
18962SOL     OW63746   1.530   9.973   1.067 -0.5912  0.3074 -0.6384
18962SOL    HW163747   1.569   9.924   1.140 -0.1305 -0.0115 -1.0863
18962SOL    HW263748   1.501   9.905   1.006  1.2955  0.5605 -1.9167
18963SOL     OW63749   7.955   4.039   4.666  0.4249 -0.1929 -0.3826
18963SOL    HW163750   7.897   4.038   4.590 -0.5172  2.1859  0.2297
18963SOL    HW263751   7.951   3.950   4.701 -3.6800  0.0480  0.2096
18964SOL     OW63752   4.598  12.045   9.792  0.4669 -0.7989 -0.2092
18964SOL    HW163753   4.665  12.112   9.803 -1.1800  1.0708 -0.9414
18964SOL    HW263754   4.557  12.038   9.878 -1.1787  1.2595 -0.7546
18965SOL     OW63755   1.676  11.462   0.419 -0.2391 -0.7195  0.6101
18965SOL    HW163756   1.731  11.475   0.341 -0.8140  0.8148  0.4304
18965SOL    HW263757   1.610  11.398   0.391 -0.7478  0.1978 -0.3555
18966SOL     OW63758   2.371   4.560   5.775  0.2450 -0.8032 -0.2432
18966SOL    HW163759   2.464   4.537   5.779  0.3681 -0.2348  0.4158
18966SOL    HW263760   2.326   4.477   5.760  0.9049 -0.9837 -1.2574
18967SOL     OW63761   3.667  11.337   4.648 -0.0621  0.0637 -0.1266
18967SOL    HW163762   3.732  11.305   4.585  0.1973 -0.1940  0.2685
18967SOL    HW263763   3.712  11.407   4.695 -0.1649  0.0735 -0.0438
18968SOL     OW63764   0.968   8.961  11.009 -0.0278 -0.4228 -0.5859
18968SOL    HW163765   1.010   8.899  11.068  0.5881 -0.0473 -0.6268
18968SOL    HW263766   0.876   8.933  11.007  0.2245 -1.3028 -0.5657
18969SOL     OW63767   5.553   6.943   5.279 -0.3964  0.2517 -0.0257
18969SOL    HW163768   5.530   6.942   5.371  0.2009 -0.2829  0.1217
18969SOL    HW263769   5.506   7.019   5.243  0.1536  1.0591  0.9130
18970SOL     OW63770  10.269   1.418  12.094 -0.1730  0.0125 -0.2626
18970SOL    HW163771  10.286   1.324  12.108  1.3904  0.5088  1.6466
18970SOL    HW263772  10.177   1.429  12.119 -0.5613 -1.0973 -1.1217
18971SOL     OW63773  10.578   1.274   3.101  0.1249 -0.4710  0.1129
18971SOL    HW163774  10.599   1.365   3.081  0.0432 -0.6577 -0.9066
18971SOL    HW263775  10.508   1.252   3.040 -0.1004 -1.1164  0.5892
18972SOL     OW63776   1.758   2.108   0.319  0.2636 -0.5649  0.2648
18972SOL    HW163777   1.695   2.154   0.264  0.8124 -2.0366 -1.6794
18972SOL    HW263778   1.820   2.176   0.347 -1.6085  0.7368  1.4787
18973SOL     OW63779   1.661   7.656   8.182  0.0614  0.2769 -0.2119
18973SOL    HW163780   1.573   7.645   8.147 -0.1227  0.6111  0.1381
18973SOL    HW263781   1.710   7.581   8.149 -0.3484  0.1034 -0.4255
18974SOL     OW63782   4.923   8.166  11.690 -0.1392  0.4922 -0.4587
18974SOL    HW163783   4.995   8.193  11.633 -0.2653 -0.3470 -1.0273
18974SOL    HW263784   4.881   8.094  11.643 -0.2123 -0.2521  0.7134
18975SOL     OW63785  12.042   1.398   9.186 -0.5144  0.4339 -0.0135
18975SOL    HW163786  12.003   1.419   9.271 -0.4157 -0.3401  0.2332
18975SOL    HW263787  11.969   1.407   9.124 -0.7952  0.1741  0.2749
18976SOL     OW63788   5.615   9.180   5.415 -0.5627  0.4030 -0.4827
18976SOL    HW163789   5.545   9.235   5.451  0.2805  0.5447  1.0180
18976SOL    HW263790   5.657   9.235   5.349 -2.2164  0.1031 -1.8290
18977SOL     OW63791   4.327   4.161   9.380  1.1057 -0.3144  0.0679
18977SOL    HW163792   4.401   4.104   9.399  1.1132 -1.0523 -1.9025
18977SOL    HW263793   4.259   4.101   9.349 -0.5967  0.2677  2.3655
18978SOL     OW63794   9.548  11.791  10.140 -0.3294  0.4419 -0.4275
18978SOL    HW163795   9.463  11.824  10.171 -1.5073 -3.2924  0.7799
18978SOL    HW263796   9.540  11.696  10.145  3.4399 -0.0918 -1.8060
18979SOL     OW63797   1.126   2.311   4.693 -0.4459  0.3180  0.5665
18979SOL    HW163798   1.036   2.290   4.670 -0.1250 -0.4310 -0.0761
18979SOL    HW263799   1.170   2.323   4.608  0.3306 -0.5569  0.8218
18980SOL     OW63800   5.224   9.079   9.660 -0.5782  0.2860  0.3462
18980SOL    HW163801   5.296   9.142   9.664  0.2819 -0.6637  0.4787
18980SOL    HW263802   5.200   9.064   9.752 -1.8244  1.5451  0.2497
18981SOL     OW63803  11.466   2.249   6.300  0.1910 -0.2275  0.3080
18981SOL    HW163804  11.462   2.236   6.206  1.0536  0.0212  0.2271
18981SOL    HW263805  11.537   2.311   6.313  1.5883 -1.9308  1.2812
18982SOL     OW63806   8.551   0.001  11.116  0.2265 -0.4707  0.3798
18982SOL    HW163807   8.517  -0.084  11.089 -0.2138 -1.1258  2.7087
18982SOL    HW263808   8.642  -0.016  11.139  0.3941 -0.1078 -0.0161
18983SOL     OW63809   0.617   5.484   0.532  0.6114 -0.3825 -1.3397
18983SOL    HW163810   0.707   5.470   0.502  1.1281 -1.8217  0.7236
18983SOL    HW263811   0.599   5.576   0.512  2.1284 -0.3598 -2.7801
18984SOL     OW63812   1.976  12.479   9.146  0.0753 -0.4901  0.1694
18984SOL    HW163813   1.982  12.383   9.144 -0.1040 -0.4857 -0.6857
18984SOL    HW263814   1.890  12.499   9.111  0.1300 -0.0083  0.2990
18985SOL     OW63815   0.365   5.251   2.584 -0.5060 -0.5286 -0.0959
18985SOL    HW163816   0.442   5.232   2.638 -0.5660  1.5107  0.7976
18985SOL    HW263817   0.291   5.241   2.644 -0.6952  0.2145 -0.1898
18986SOL     OW63818  11.812   6.187   4.876 -0.0004  0.2471 -0.0803
18986SOL    HW163819  11.746   6.168   4.810  0.4984 -1.9058 -0.0141
18986SOL    HW263820  11.882   6.232   4.828 -0.0356 -0.4901 -0.8374
18987SOL     OW63821   4.049   8.825   0.189  0.0238 -0.0063  0.0477
18987SOL    HW163822   3.987   8.777   0.244  1.2905 -0.0950  1.4587
18987SOL    HW263823   4.129   8.774   0.193  0.7942  1.1590 -0.0691
18988SOL     OW63824   3.958   4.454   6.164 -0.1336  0.1413  0.1899
18988SOL    HW163825   3.987   4.540   6.134  0.5009  0.2183  0.9931
18988SOL    HW263826   3.914   4.415   6.089 -1.2932  1.5582  0.1033
18989SOL     OW63827   5.420  12.342   8.431  0.2077 -0.0504 -1.0481
18989SOL    HW163828   5.404  12.314   8.521  0.6265 -0.0536 -0.9720
18989SOL    HW263829   5.350  12.301   8.380 -0.4835  0.5815 -0.6192
18990SOL     OW63830   4.934   8.616   0.648 -0.0727 -0.1260  0.0490
18990SOL    HW163831   4.998   8.577   0.590  0.1667  1.6405 -0.9614
18990SOL    HW263832   4.980   8.624   0.732  0.9281  0.7410 -0.5514
18991SOL     OW63833  10.984   2.533   3.680  0.4923  0.2047  0.3118
18991SOL    HW163834  10.994   2.611   3.734 -1.5570  0.5447  0.2778
18991SOL    HW263835  10.894   2.504   3.696  0.5283 -0.9184 -1.2923
18992SOL     OW63836   0.221  10.693   3.061  0.2027  0.5315  0.2624
18992SOL    HW163837   0.159  10.723   2.994 -1.2118 -1.5157  0.5514
18992SOL    HW263838   0.167  10.682   3.139  1.2575  0.1450  0.9509
18993SOL     OW63839   9.059   7.707   7.391  0.2885  0.6478 -0.0025
18993SOL    HW163840   9.122   7.659   7.444  0.1059 -0.6129 -0.8671
18993SOL    HW263841   9.112   7.747   7.321  0.3658  1.2508  0.3926
18994SOL     OW63842   3.979  10.454  10.824 -0.2510  0.0512 -0.3365
18994SOL    HW163843   4.060  10.414  10.792  0.3018 -0.2432  1.3575
18994SOL    HW263844   4.001  10.490  10.910 -0.9432  3.3307 -1.3694
18995SOL     OW63845  11.535   3.967  10.629 -0.1598  0.1646 -0.3486
18995SOL    HW163846  11.602   3.965  10.560  0.3458  0.8109  0.1194
18995SOL    HW263847  11.455   3.940  10.584  0.4759 -1.0249 -0.8303
18996SOL     OW63848  11.882   0.822   0.962 -0.4123 -0.0251 -0.1953
18996SOL    HW163849  11.879   0.913   0.932  1.4719  0.5927  1.2976
18996SOL    HW263850  11.815   0.818   1.031  1.8440  1.3572  2.3012
18997SOL     OW63851   1.718   6.826   5.577 -0.0663  0.3444  0.2736
18997SOL    HW163852   1.627   6.798   5.565 -0.0909  0.5534 -0.0355
18997SOL    HW263853   1.760   6.751   5.619 -0.7972  0.9120  2.1470
18998SOL     OW63854   6.097  12.208   4.766  0.2728 -0.1944 -0.2362
18998SOL    HW163855   6.172  12.177   4.716 -0.7139  0.1384 -2.0024
18998SOL    HW263856   6.127  12.290   4.805  1.4817 -1.1103  0.8724
18999SOL     OW63857   7.082   2.653  11.544 -0.4831  0.0234 -0.0933
18999SOL    HW163858   7.135   2.575  11.526 -2.5341 -1.6051  0.5396
18999SOL    HW263859   7.009   2.621  11.598 -1.4115  2.3975  0.2065
19000SOL     OW63860   3.481  11.629   8.013  0.6329  0.0487  0.9283
19000SOL    HW163861   3.540  11.692   8.055  1.0855  0.0784  0.2640
19000SOL    HW263862   3.513  11.543   8.040 -0.4815  0.0817  2.5093
19001SOL     OW63863   4.727  10.232   0.527  0.2806 -0.4447 -0.3010
19001SOL    HW163864   4.760  10.231   0.617 -3.5498 -0.6996  1.3209
19001SOL    HW263865   4.724  10.141   0.500 -0.5480 -0.5688  0.1865
19002SOL     OW63866  11.506   5.702   3.117  0.0051  0.5397 -0.1800
19002SOL    HW163867  11.421   5.659   3.104  0.3871  0.1675 -1.7555
19002SOL    HW263868  11.562   5.633   3.153  0.4389 -0.1665 -2.0812
19003SOL     OW63869   9.818  11.459   1.732  0.4423  0.2659 -1.1604
19003SOL    HW163870   9.872  11.538   1.727 -0.0339  0.5427 -2.2937
19003SOL    HW263871   9.728  11.491   1.726  0.1975 -0.2889 -0.5883
19004SOL     OW63872   3.802   5.282   3.889 -0.0981 -0.0542  0.2376
19004SOL    HW163873   3.825   5.292   3.981 -1.1655  1.2715  0.4002
19004SOL    HW263874   3.740   5.210   3.887 -1.1216  0.7751  0.7908
19005SOL     OW63875   4.337   5.892  10.422  0.5371  0.6160 -0.5080
19005SOL    HW163876   4.272   5.822  10.434 -0.3971  1.5975  0.4435
19005SOL    HW263877   4.406   5.852  10.369 -0.6149 -0.6111 -1.1557
19006SOL     OW63878  12.461   7.983   1.264 -0.0317  0.0521 -0.0201
19006SOL    HW163879  12.479   7.889   1.264  0.2913  0.1126 -0.5061
19006SOL    HW263880  12.512   8.017   1.338  0.0895 -0.1130 -0.0273
19007SOL     OW63881   3.676   5.861   2.281  0.7250  0.0299 -0.2442
19007SOL    HW163882   3.684   5.957   2.286  0.7878 -0.0191  0.9702
19007SOL    HW263883   3.639   5.845   2.195  0.4802  1.1695 -0.3748
19008SOL     OW63884   8.087   9.004   6.757  0.1847  0.3902  0.1267
19008SOL    HW163885   8.042   9.021   6.674  0.7017  0.6930 -0.0983
19008SOL    HW263886   8.175   8.976   6.732  0.7069  1.5346  0.5702
19009SOL     OW63887   1.444   0.332   1.970 -0.1535 -0.0721  0.4633
19009SOL    HW163888   1.363   0.284   1.985 -0.3428 -0.1385 -0.7489
19009SOL    HW263889   1.415   0.422   1.952 -0.1736 -0.5695 -2.4122
19010SOL     OW63890   3.718   9.129   5.234 -0.4385 -0.2843  0.0939
19010SOL    HW163891   3.724   9.224   5.238 -0.3417 -0.2481 -0.7000
19010SOL    HW263892   3.775   9.098   5.304  2.1556  0.2041 -1.6567
19011SOL     OW63893   0.989   1.603  12.274  0.9651 -0.2824 -0.5308
19011SOL    HW163894   1.056   1.586  12.340  0.5946  1.0114  0.2158
19011SOL    HW263895   0.960   1.693  12.292  0.3576 -0.1550 -2.0181
19012SOL     OW63896   2.100   8.887  12.205  0.4895 -0.1533 -0.7107
19012SOL    HW163897   2.171   8.952  12.204 -2.2091  3.1087 -0.6508
19012SOL    HW263898   2.093   8.861  12.297  0.6936  0.6539 -0.4578
19013SOL     OW63899   5.856   3.460   4.331  0.6099  1.0147 -0.1907
19013SOL    HW163900   5.949   3.477   4.347  0.4955  0.3406  1.4357
19013SOL    HW263901   5.834   3.514   4.255  2.0184  2.1385  0.1622
19014SOL     OW63902   9.742   4.850  11.052  0.4044 -0.4500  0.2571
19014SOL    HW163903   9.687   4.838  10.974  0.3464 -0.8581  0.3598
19014SOL    HW263904   9.702   4.923  11.099  0.5932 -0.0207 -0.2270
19015SOL     OW63905   9.999   7.043   2.517  0.0308 -0.4287  0.3634
19015SOL    HW163906  10.022   7.104   2.447 -1.6673  0.4220  0.4912
19015SOL    HW263907   9.982   6.960   2.472 -0.3580 -0.0754 -0.1459
19016SOL     OW63908   5.644   6.011   1.230 -0.2784  0.2822 -0.0248
19016SOL    HW163909   5.719   6.004   1.170 -0.4871 -0.0431 -0.2533
19016SOL    HW263910   5.604   6.095   1.207 -1.0331 -0.3646 -1.1485
19017SOL     OW63911  10.283   0.830   6.498 -0.3603  0.5102 -0.2758
19017SOL    HW163912  10.340   0.897   6.537  1.8781 -1.3186 -0.1482
19017SOL    HW263913  10.228   0.877   6.437  1.9904  2.3606 -1.1347
19018SOL     OW63914   3.424  10.354   6.604  0.5074  0.4239 -0.1259
19018SOL    HW163915   3.392  10.396   6.683  0.3645  0.0532  0.0155
19018SOL    HW263916   3.519  10.369   6.606  0.2632  2.2175 -0.9647
19019SOL     OW63917   7.893   9.300   4.314 -0.1564 -0.3524 -0.2661
19019SOL    HW163918   7.945   9.378   4.295  0.3828 -0.5394  0.4128
19019SOL    HW263919   7.814   9.334   4.357 -0.4538 -0.0975 -0.9935
19020SOL     OW63920   8.435   4.990  11.900 -0.1660 -0.0122 -0.5328
19020SOL    HW163921   8.344   5.010  11.880 -0.0990 -0.6347 -1.5216
19020SOL    HW263922   8.481   5.073  11.891 -0.6748  0.3718  0.2881
19021SOL     OW63923   5.733  10.687   6.391 -0.5476 -0.1712 -0.2606
19021SOL    HW163924   5.808  10.731   6.350 -0.6046 -0.1345 -0.3250
19021SOL    HW263925   5.699  10.751   6.454 -1.3883  0.3559 -1.2208
19022SOL     OW63926  10.358   8.147   7.316 -0.3552 -0.0254  0.0915
19022SOL    HW163927  10.439   8.158   7.266  0.4330  3.7277  1.9100
19022SOL    HW263928  10.385   8.100   7.395 -0.2602 -0.1045  0.0121
19023SOL     OW63929   6.811  12.248   5.324 -0.0956 -0.5147  0.2287
19023SOL    HW163930   6.811  12.159   5.288 -0.6999 -1.1584  1.7286
19023SOL    HW263931   6.847  12.238   5.412  2.5743  1.2202 -0.5617
19024SOL     OW63932   0.273   7.491   6.142 -0.4202  0.0108 -0.0431
19024SOL    HW163933   0.212   7.484   6.070 -0.9834  0.2923  0.3993
19024SOL    HW263934   0.274   7.584   6.164  0.1470  0.0050 -0.0312
19025SOL     OW63935   9.221  12.476   6.923  0.4138  0.0108  0.0226
19025SOL    HW163936   9.206  12.547   6.860 -0.1082  0.0438  0.1788
19025SOL    HW263937   9.210  12.518   7.009  2.1022  0.1928  0.1839
19026SOL     OW63938  10.384   5.241   2.990  0.2017  0.2099  0.3784
19026SOL    HW163939  10.436   5.316   2.962 -1.4962  1.0207 -0.7599
19026SOL    HW263940  10.332   5.217   2.913 -0.7157 -0.8983  1.3001
19027SOL     OW63941   6.901   1.306   5.208  0.4223  0.1040  1.0648
19027SOL    HW163942   6.841   1.378   5.188 -0.3478 -0.2628  1.9829
19027SOL    HW263943   6.875   1.235   5.150 -1.0314 -0.5534  2.4381
19028SOL     OW63944   4.314   1.220   1.923 -0.0145  0.1175 -0.0773
19028SOL    HW163945   4.407   1.205   1.906  0.2145  1.8206 -0.4901
19028SOL    HW263946   4.305   1.315   1.926 -1.8051 -0.0099 -0.3256
19029SOL     OW63947   8.883   1.642  11.679 -0.3188 -0.1258 -0.6459
19029SOL    HW163948   8.804   1.639  11.625 -0.3492 -0.7501 -0.5720
19029SOL    HW263949   8.951   1.674  11.620 -0.4865 -0.2125 -0.8859
19030SOL     OW63950   7.586   2.886   8.768  0.0258 -0.0094 -0.2422
19030SOL    HW163951   7.614   2.859   8.680  0.2399  1.9610 -0.8288
19030SOL    HW263952   7.521   2.954   8.752 -0.6986 -0.3516  1.1418
19031SOL     OW63953   7.159  10.937   2.011 -0.1860 -0.1034 -0.1036
19031SOL    HW163954   7.072  10.965   2.038  0.3835 -0.0351  1.8424
19031SOL    HW263955   7.160  10.950   1.916 -1.7572  1.3798  0.0197
19032SOL     OW63956  11.958   4.852   1.503 -0.4407  0.4238  0.1362
19032SOL    HW163957  11.895   4.793   1.546  0.3467 -0.1013  0.5906
19032SOL    HW263958  11.942   4.839   1.410 -1.6188  0.9671  0.2436
19033SOL     OW63959   2.087   6.789   3.404 -0.2746  0.0917  0.2029
19033SOL    HW163960   2.094   6.867   3.459  0.4591 -0.7655  1.3752
19033SOL    HW263961   2.025   6.732   3.450  0.0119 -0.4591 -0.0783
19034SOL     OW63962   1.901   2.004   0.500 -0.1456 -0.6136  0.1021
19034SOL    HW163963   1.837   2.036   0.436 -0.2959  0.0588  0.5818
19034SOL    HW263964   1.863   2.025   0.585  0.9160  0.2042  0.3952
19035SOL     OW63965   5.114  12.407   2.441  0.0911  0.3045 -0.1975
19035SOL    HW163966   5.052  12.378   2.373  0.0639  2.0729 -0.9819
19035SOL    HW263967   5.163  12.478   2.400  1.7704 -0.1985  0.8529
19036SOL     OW63968   2.287   1.322  12.452  0.4783  0.2576 -0.5905
19036SOL    HW163969   2.374   1.363  12.450  0.1799  1.1018  1.3989
19036SOL    HW263970   2.226   1.394  12.433  0.1756 -0.4641 -2.6896
19037SOL     OW63971   4.529   6.160   0.999 -0.0758  0.5330 -0.0705
19037SOL    HW163972   4.531   6.070   1.030 -0.3183  0.2404 -0.8938
19037SOL    HW263973   4.621   6.189   1.003  0.3041 -0.4002 -1.6762
19038SOL     OW63974   1.074   5.516  10.822  0.4068 -0.1912 -0.0868
19038SOL    HW163975   1.088   5.566  10.742  0.5468  1.5526  0.9810
19038SOL    HW263976   0.979   5.506  10.827  0.3881 -0.1785 -0.3793
19039SOL     OW63977   1.549   2.326  11.168  0.1099 -0.1795  0.1828
19039SOL    HW163978   1.545   2.270  11.090 -0.2293 -0.2560  0.2519
19039SOL    HW263979   1.638   2.316  11.201  0.4321  0.3005 -0.5237
19040SOL     OW63980   2.119   5.901   5.641  0.3338 -0.8798  0.3345
19040SOL    HW163981   2.084   5.959   5.573  0.0788  0.8699  1.8698
19040SOL    HW263982   2.181   5.844   5.594 -0.9016 -0.7456 -1.5824
19041SOL     OW63983   8.423   0.118   0.145  0.4262  0.3245 -0.2058
19041SOL    HW163984   8.486   0.049   0.122  1.3281  1.4040 -1.0796
19041SOL    HW263985   8.357   0.114   0.077  0.5850  0.4470 -0.3683
19042SOL     OW63986   7.815  12.308  11.740 -0.2767  0.2501  0.0351
19042SOL    HW163987   7.822  12.220  11.703  0.5242  0.1660  0.3614
19042SOL    HW263988   7.801  12.365  11.664 -0.3309 -0.1038 -0.2220
19043SOL     OW63989   2.203   3.988   6.906 -0.0153  0.1024 -0.3681
19043SOL    HW163990   2.234   4.006   6.817  0.4630  0.5032 -0.1214
19043SOL    HW263991   2.199   4.073   6.948  0.0596 -0.1227  0.0962
19044SOL     OW63992  10.627   9.915   8.873 -0.7827 -0.0445  0.7461
19044SOL    HW163993  10.679   9.986   8.908 -1.4862 -0.4830  2.8296
19044SOL    HW263994  10.662   9.836   8.916 -1.2481 -0.7095 -0.0615
19045SOL     OW63995   7.732   0.946   6.306 -0.2556  0.4758 -0.0136
19045SOL    HW163996   7.788   0.989   6.371  0.2415 -1.9932  1.3470
19045SOL    HW263997   7.645   0.982   6.321  0.0906  0.8657  1.1826
19046SOL     OW63998   2.426   9.636   7.943  0.3337  0.4942 -0.1446
19046SOL    HW163999   2.392   9.718   7.909 -1.8019  0.2493  1.1308
19046SOL    HW264000   2.490   9.661   8.010 -0.6356  1.1771  0.5559
19047SOL     OW64001   5.425   7.707   8.224 -0.2590  0.3501  0.5766
19047SOL    HW164002   5.381   7.766   8.164 -0.7709  0.2398  0.8418
19047SOL    HW264003   5.503   7.756   8.253  0.9388 -0.2249 -1.4536
19048SOL     OW64004   5.028   6.443   0.591  0.7965 -0.6728  0.2885
19048SOL    HW164005   4.999   6.366   0.541  1.0105 -0.1567 -0.6608
19048SOL    HW264006   5.100   6.411   0.644 -0.0465 -1.4534  0.9946
19049SOL     OW64007  11.944   6.518   5.201 -0.6277  0.4751  0.0529
19049SOL    HW164008  11.932   6.429   5.168  0.3561  0.2879  0.1654
19049SOL    HW264009  11.856   6.546   5.229 -0.5556 -1.4957  2.6276
19050SOL     OW64010   5.851  11.346   2.031 -0.1350 -0.2514  0.1906
19050SOL    HW164011   5.826  11.427   2.076  0.2297  0.3827 -0.7089
19050SOL    HW264012   5.929  11.370   1.981 -0.9699 -0.6999 -1.3947
19051SOL     OW64013   3.416   6.100  11.125 -0.1443 -0.3724  0.5532
19051SOL    HW164014   3.462   6.054  11.195 -0.0436  1.4454  1.7550
19051SOL    HW264015   3.326   6.107  11.155  0.2105  1.7618  1.3091
19052SOL     OW64016   9.115   9.130   0.840 -0.4508  0.5232  0.6257
19052SOL    HW164017   9.135   9.205   0.785 -1.3109  0.2158 -0.1281
19052SOL    HW264018   9.048   9.161   0.901  0.3747  0.8135  1.4155
19053SOL     OW64019   5.292   1.744  12.091  0.4915  0.1301  0.4049
19053SOL    HW164020   5.305   1.788  12.175  1.6654  2.0167 -0.7006
19053SOL    HW264021   5.379   1.709  12.069  0.5382  0.8417 -0.6253
19054SOL     OW64022   2.897   5.328   4.402  0.0678  0.0143 -0.0481
19054SOL    HW164023   2.941   5.356   4.482  0.2368 -0.9188  0.2002
19054SOL    HW264024   2.965   5.336   4.334  0.1010  0.2492  0.0137
19055SOL     OW64025  11.355   7.214  11.207 -0.2446  0.0757 -0.0743
19055SOL    HW164026  11.395   7.265  11.277  0.3033  1.6970 -1.5043
19055SOL    HW264027  11.427   7.160  11.173 -0.5982 -0.9863  0.8211
19056SOL     OW64028   1.345   7.458   7.459 -0.0254  0.3534 -0.0960
19056SOL    HW164029   1.413   7.395   7.436 -0.1703  0.2772 -0.3227
19056SOL    HW264030   1.288   7.409   7.519  1.8017  1.3441  2.6580
19057SOL     OW64031   8.249   6.075  10.254  0.3276  0.1730  0.9461
19057SOL    HW164032   8.342   6.052  10.259  0.1735 -0.3713  1.4796
19057SOL    HW264033   8.208   6.000  10.210  0.5051  1.5550 -1.8247
19058SOL     OW64034  11.006   1.236   4.287  0.6131 -0.2569 -0.0278
19058SOL    HW164035  11.074   1.303   4.279  0.4372 -0.3013 -2.7715
19058SOL    HW264036  11.044   1.159   4.243 -1.6926  0.1967 -3.1020
19059SOL     OW64037   0.738   4.160   0.019 -0.1152  0.1138  0.1463
19059SOL    HW164038   0.811   4.138   0.077  0.3168  0.1800 -0.3780
19059SOL    HW264039   0.718   4.252   0.039 -0.5609 -0.1165  0.8306
19060SOL     OW64040   4.400   9.948   1.214 -0.4140  0.2853  0.2812
19060SOL    HW164041   4.414  10.041   1.193 -0.4258  0.0156 -0.9579
19060SOL    HW264042   4.476   9.925   1.268  0.9317  0.3901 -1.4727
19061SOL     OW64043   1.449   3.926   8.355 -0.4013 -0.4655 -0.6688
19061SOL    HW164044   1.362   3.896   8.380 -0.8446  0.0464 -1.5577
19061SOL    HW264045   1.505   3.849   8.365 -0.4595 -0.2360  2.1323
19062SOL     OW64046   5.238   0.780   4.454  0.0134  0.6274 -0.0208
19062SOL    HW164047   5.254   0.848   4.388 -1.0320 -1.2783 -2.4271
19062SOL    HW264048   5.144   0.786   4.473 -0.4256 -0.9513 -1.3857
19063SOL     OW64049   2.565   2.314  12.094 -0.0435 -0.1908  0.3010
19063SOL    HW164050   2.502   2.266  12.042  0.7648 -3.0475  1.7641
19063SOL    HW264051   2.628   2.349  12.030 -2.0517  1.2327 -0.9995
19064SOL     OW64052   3.755  11.886   9.195 -0.8153 -0.0751 -0.5857
19064SOL    HW164053   3.741  11.803   9.240  1.1569  0.7925  1.8506
19064SOL    HW264054   3.680  11.940   9.218  0.3803  0.5232  2.3166
19065SOL     OW64055   8.630  11.708   4.223  0.1307 -0.1442  0.1339
19065SOL    HW164056   8.616  11.615   4.241  0.0961 -0.3089 -0.7150
19065SOL    HW264057   8.718  11.713   4.186  1.1730  0.4973  2.5184
19066SOL     OW64058   5.182   8.039   2.242 -0.2017 -0.9776 -0.0167
19066SOL    HW164059   5.259   7.984   2.252  0.3273 -0.4075 -0.7751
19066SOL    HW264060   5.193   8.109   2.307  0.0934 -0.7175 -0.3417
19067SOL     OW64061  11.557   6.285  12.287  0.4170  0.4579 -0.7803
19067SOL    HW164062  11.466   6.304  12.263 -0.3713  0.2894  1.8148
19067SOL    HW264063  11.603   6.367  12.273 -1.1790  2.0501  2.2380
19068SOL     OW64064   9.451   9.040   0.534 -0.2041 -0.6051  0.0036
19068SOL    HW164065   9.510   9.086   0.474 -2.2995  1.0186 -0.9543
19068SOL    HW264066   9.498   9.039   0.618  0.9843  1.0454 -0.5917
19069SOL     OW64067   7.735   6.464   6.418  0.5212 -0.1607  0.0335
19069SOL    HW164068   7.759   6.379   6.455 -0.4178 -0.1789  0.6277
19069SOL    HW264069   7.752   6.526   6.488  1.4077  0.1932 -0.4696
19070SOL     OW64070   7.393   6.539   6.175 -0.0430  0.4512 -0.1466
19070SOL    HW164071   7.435   6.587   6.104  1.4884 -0.6457 -0.0309
19070SOL    HW264072   7.416   6.589   6.254 -0.1811  0.6466 -0.2290
19071SOL     OW64073   9.586  10.070   4.082 -0.4748 -0.6129 -0.5237
19071SOL    HW164074   9.555  10.101   4.167 -0.4891  0.6193 -0.9570
19071SOL    HW264075   9.543   9.985   4.071 -0.9338 -0.5232  0.4408
19072SOL     OW64076   0.249   1.341   0.079 -0.0036  0.3997  0.2995
19072SOL    HW164077   0.193   1.372   0.150  0.8295  1.3326  0.5749
19072SOL    HW264078   0.326   1.304   0.122  0.1167  0.1746 -0.0969
19073SOL     OW64079  10.495   5.652   9.914 -0.7192  0.2179 -0.3857
19073SOL    HW164080  10.492   5.740   9.877 -0.3589  0.4834  0.2194
19073SOL    HW264081  10.469   5.662  10.005 -1.4583 -0.4189 -0.5057
19074SOL     OW64082   3.062   9.460   6.378  0.2254  0.3143  0.4352
19074SOL    HW164083   3.007   9.506   6.314  1.6833  0.6783 -0.6310
19074SOL    HW264084   3.027   9.371   6.380 -0.8527  0.7216  0.3552
19075SOL     OW64085   4.143   4.892  11.671 -0.0685 -0.2657 -0.1116
19075SOL    HW164086   4.056   4.870  11.638  0.6092 -0.3055 -1.9797
19075SOL    HW264087   4.176   4.811  11.709 -0.4588 -0.5229 -0.3192
19076SOL     OW64088   5.892   5.996   4.417 -0.3784 -0.6072 -0.2010
19076SOL    HW164089   5.913   5.911   4.378 -2.2050 -1.8515  1.3124
19076SOL    HW264090   5.843   6.042   4.349 -0.7121 -1.4253 -0.5343
19077SOL     OW64091   1.244   5.576   8.486  0.1950 -0.0427 -0.1183
19077SOL    HW164092   1.318   5.638   8.482 -0.3569  0.5824 -0.9167
19077SOL    HW264093   1.263   5.512   8.418  0.4425 -0.3978  0.2788
19078SOL     OW64094   7.507   1.742   4.223  0.3603 -0.1612  0.5420
19078SOL    HW164095   7.544   1.830   4.216 -0.2455 -0.0518 -1.9960
19078SOL    HW264096   7.570   1.695   4.278  1.7799  1.2830  0.2447
19079SOL     OW64097  12.007   1.355   9.789 -0.1434  0.2271 -0.3562
19079SOL    HW164098  12.000   1.337   9.696  0.7776  1.0155 -0.5998
19079SOL    HW264099  11.919   1.343   9.823 -0.7475  1.1023 -1.5473
19080SOL     OW64100   2.526   7.418   2.256  0.0848  0.1076  0.2201
19080SOL    HW164101   2.562   7.400   2.169 -0.1361 -1.5002  0.4270
19080SOL    HW264102   2.567   7.500   2.282  2.5073 -0.8763 -0.1748
19081SOL     OW64103   8.806   9.622   2.954  0.2746  0.0266  0.4032
19081SOL    HW164104   8.808   9.541   3.006 -1.7453 -0.4401 -0.1632
19081SOL    HW264105   8.842   9.597   2.869 -2.9193 -1.1681 -0.7774
19082SOL     OW64106   9.134   8.692   9.214  0.5272  0.0175  0.1785
19082SOL    HW164107   9.039   8.693   9.216  0.4904  0.9073 -0.9281
19082SOL    HW264108   9.160   8.688   9.306 -0.5791  0.9198  0.5554
19083SOL     OW64109   1.732   4.371   8.717  0.5432  0.0088  0.2256
19083SOL    HW164110   1.790   4.312   8.669  1.8944  0.7632  0.8954
19083SOL    HW264111   1.742   4.347   8.809  0.1601  0.4664  0.3941
19084SOL     OW64112   7.076   4.645  12.469 -0.6084 -0.4586  0.1045
19084SOL    HW164113   7.049   4.731  12.501 -2.1547 -1.1835  0.8523
19084SOL    HW264114   7.160   4.661  12.427  0.0108  1.1013  1.7860
19085SOL     OW64115  10.033   5.751   7.481 -1.0090 -0.1952 -0.4743
19085SOL    HW164116   9.944   5.777   7.504 -0.6405  2.4701 -1.6737
19085SOL    HW264117  10.068   5.825   7.432  2.5393 -0.2749  1.5657
19086SOL     OW64118  12.215   8.373  11.023  0.2958  0.1257  1.2594
19086SOL    HW164119  12.230   8.299  11.083 -0.0508  0.1350  1.3613
19086SOL    HW264120  12.204   8.332  10.937  1.9207  0.1894  0.9959
19087SOL     OW64121   8.289   8.963   0.944 -0.2563 -0.2431  0.1303
19087SOL    HW164122   8.284   9.053   0.976 -1.0099 -0.5008  0.7993
19087SOL    HW264123   8.268   8.909   1.021  0.0060 -0.9796 -0.3010
19088SOL     OW64124  11.203   7.335   4.413  0.4068 -0.4480 -0.1991
19088SOL    HW164125  11.240   7.327   4.325  0.7650 -1.3366  0.0189
19088SOL    HW264126  11.206   7.429   4.432 -0.0125 -0.2053 -1.2703
19089SOL     OW64127   2.982   6.902   0.580 -0.5957  0.1979  0.6679
19089SOL    HW164128   2.997   6.872   0.491  1.0518  0.8499  0.7001
19089SOL    HW264129   2.898   6.947   0.576 -1.3876 -1.2685 -0.1470
19090SOL     OW64130  11.287   6.819   1.435  0.1413 -0.6027 -0.6386
19090SOL    HW164131  11.358   6.808   1.372  1.0800 -1.4155  0.5141
19090SOL    HW264132  11.252   6.731   1.448  0.8993 -0.7065  0.9839
19091SOL     OW64133  11.840  11.211   9.051  0.4015  0.8229  0.5884
19091SOL    HW164134  11.891  11.201   8.970  0.2143  0.2358  0.5384
19091SOL    HW264135  11.751  11.227   9.020  0.7214  2.9416  0.6638
19092SOL     OW64136   1.574  10.506  10.596 -0.2435  0.3791  0.3466
19092SOL    HW164137   1.630  10.510  10.674 -0.6511 -1.3185  0.7698
19092SOL    HW264138   1.496  10.460  10.625 -0.7417  0.4110 -0.8865
19093SOL     OW64139   2.368  11.241   9.040  0.1684 -0.0472 -0.7682
19093SOL    HW164140   2.351  11.158   9.084 -1.2614  0.2856 -0.6511
19093SOL    HW264141   2.303  11.245   8.970 -1.7213  2.2051  0.9593
19094SOL     OW64142   8.025   8.227   1.270 -0.4512  0.6486  0.0791
19094SOL    HW164143   8.104   8.211   1.218 -1.6586  0.8033 -1.9304
19094SOL    HW264144   8.001   8.317   1.250 -0.3215  1.1157  1.8869
19095SOL     OW64145   2.947   9.800   5.014  0.3195 -0.2297 -0.9555
19095SOL    HW164146   2.869   9.857   5.017  1.2047  1.0071 -0.1975
19095SOL    HW264147   2.926   9.734   4.949 -2.3605 -1.4145  0.9119
19096SOL     OW64148   9.810   9.977   2.088 -0.4287 -0.5582 -0.6363
19096SOL    HW164149   9.771  10.043   2.031 -0.5879 -0.5848 -0.5590
19096SOL    HW264150   9.742   9.958   2.153 -0.7515 -1.5187 -1.2434
19097SOL     OW64151   4.937   3.261   1.293  0.1271 -0.1916 -0.6316
19097SOL    HW164152   5.009   3.257   1.356 -0.6718  0.0763  0.3356
19097SOL    HW264153   4.906   3.170   1.286  0.3594 -0.2578 -0.8178
19098SOL     OW64154   5.987   4.871   9.940 -0.2138 -0.0562 -0.4767
19098SOL    HW164155   6.055   4.804   9.946  0.3718  0.6409  1.5832
19098SOL    HW264156   6.022   4.934   9.876 -1.1858 -2.0485 -3.1602
19099SOL     OW64157   0.298   9.048   5.457 -0.1716 -0.5050  0.2984
19099SOL    HW164158   0.223   9.005   5.416 -0.3312 -0.4431  0.5246
19099SOL    HW264159   0.323   8.989   5.527  1.2364 -1.5166 -1.0000
19100SOL     OW64160  10.151  11.767   1.345 -0.6372  0.5003  0.0182
19100SOL    HW164161  10.067  11.721   1.348 -1.3582  1.7741  0.4203
19100SOL    HW264162  10.171  11.785   1.437  0.2703 -0.1215 -0.0545
19101SOL     OW64163   2.459  10.267  12.316 -0.0328 -0.2915 -0.1884
19101SOL    HW164164   2.446  10.344  12.372 -0.2147 -0.1880 -0.3722
19101SOL    HW264165   2.531  10.220  12.357 -1.5936 -1.4023  1.4484
19102SOL     OW64166   6.720   8.648   0.884  0.0621 -0.5093  0.0927
19102SOL    HW164167   6.759   8.562   0.903  1.4399 -0.2317 -1.2295
19102SOL    HW264168   6.637   8.628   0.840 -0.2397 -1.1452  0.9392
19103SOL     OW64169   8.713   7.954   7.006 -0.4138 -0.4554 -0.0863
19103SOL    HW164170   8.663   8.006   7.070 -0.7768 -0.8099 -0.0795
19103SOL    HW264171   8.783   7.914   7.057  0.6933  1.0753 -0.3178
19104SOL     OW64172   6.995   3.911   4.074 -0.7892  0.3386  0.1527
19104SOL    HW164173   7.048   3.976   4.119 -0.4834 -0.8540  1.5745
19104SOL    HW264174   6.979   3.950   3.987 -0.7813  2.3573  0.9974
19105SOL     OW64175   2.853   9.753   9.267 -0.3875 -0.2806  0.0490
19105SOL    HW164176   2.809   9.833   9.296  1.5202  0.2541  1.6687
19105SOL    HW264177   2.829   9.687   9.332 -0.3663 -0.5098 -0.1727
19106SOL     OW64178   2.528   9.780   4.188  0.4782  0.1867 -0.6489
19106SOL    HW164179   2.505   9.694   4.154 -1.0145  0.9968 -1.8168
19106SOL    HW264180   2.446   9.828   4.190  1.5372  2.2340 -1.9726
19107SOL     OW64181  11.575  12.397   4.023 -0.3094 -0.0450 -0.2995
19107SOL    HW164182  11.487  12.375   3.991  0.9058 -3.1004 -1.9425
19107SOL    HW264183  11.593  12.331   4.089  1.5409 -0.8485 -1.5410
19108SOL     OW64184   9.479   0.802   0.145  0.4693  0.4846 -0.7198
19108SOL    HW164185   9.546   0.769   0.085  0.5412  1.3575 -1.1265
19108SOL    HW264186   9.427   0.862   0.093  0.0071  0.6065 -0.1273
19109SOL     OW64187  11.719   3.947  11.005  0.0608 -0.2023  0.4955
19109SOL    HW164188  11.786   4.013  11.021  0.6148 -0.8022  0.7006
19109SOL    HW264189  11.710   3.901  11.089 -0.6533 -0.0873  0.4905
19110SOL     OW64190   2.311   7.852   4.757 -0.4126 -0.2179  0.5225
19110SOL    HW164191   2.259   7.914   4.808 -0.1000 -0.2596  0.8984
19110SOL    HW264192   2.266   7.846   4.673 -0.9969 -0.2381  0.8350
19111SOL     OW64193   3.405   7.840   4.980  0.3553 -0.3315  0.4553
19111SOL    HW164194   3.490   7.861   5.017 -0.0328  1.7136  0.3283
19111SOL    HW264195   3.344   7.851   5.053 -0.1367  1.4687 -0.1647
19112SOL     OW64196   5.400   0.087   1.325  0.0735  0.3508 -0.3169
19112SOL    HW164197   5.331   0.051   1.269 -0.6530  1.2818 -0.0408
19112SOL    HW264198   5.418   0.174   1.287  1.3147  0.0091 -0.5663
19113SOL     OW64199   9.075   2.295   7.002  0.6886  0.4850  0.1391
19113SOL    HW164200   9.117   2.380   6.989  3.4315 -0.8056 -0.1878
19113SOL    HW264201   9.059   2.263   6.914  1.2757 -0.0370  0.2138
19114SOL     OW64202  10.077   2.612   5.487  0.1195  0.0126 -0.0523
19114SOL    HW164203  10.128   2.679   5.442 -0.0443  0.0581 -0.1707
19114SOL    HW264204  10.046   2.656   5.567 -0.3389  0.2114 -0.3347
19115SOL     OW64205   3.929   2.490  12.305 -0.0141  0.1180  0.3491
19115SOL    HW164206   3.946   2.583  12.324  0.9908 -0.1359  0.7586
19115SOL    HW264207   3.977   2.473  12.225 -1.1264  0.2184 -0.3610
19116SOL     OW64208   0.604   7.118  11.222  0.4054  0.0305 -0.2540
19116SOL    HW164209   0.677   7.157  11.271  1.0138 -0.5360 -0.6950
19116SOL    HW264210   0.607   7.025  11.245  0.3950 -0.1539 -0.9814
19117SOL     OW64211   0.327   8.803   4.592  0.2992  0.4842 -0.4677
19117SOL    HW164212   0.334   8.759   4.508 -1.7321  0.4877 -0.6920
19117SOL    HW264213   0.355   8.893   4.575 -1.0815  0.7704 -1.4378
19118SOL     OW64214   1.320  12.027   0.319  0.2466 -0.3204 -0.8688
19118SOL    HW164215   1.324  12.106   0.373 -1.0190 -0.1092 -1.0540
19118SOL    HW264216   1.409  11.993   0.319  0.6260  0.6430 -0.0879
19119SOL     OW64217   9.258   5.406   9.900 -0.0238  0.4190 -0.7057
19119SOL    HW164218   9.232   5.484   9.851 -0.4176  1.4389  1.0297
19119SOL    HW264219   9.346   5.426   9.931  0.1597 -0.1496 -0.8406
19120SOL     OW64220   9.060   3.509   9.653 -0.3276 -0.0221 -0.4352
19120SOL    HW164221   9.099   3.539   9.571 -0.5156  1.6329  0.0406
19120SOL    HW264222   9.012   3.430   9.629  1.4871 -0.8931 -1.4547
19121SOL     OW64223   7.467  10.312   7.689 -0.1040  0.4019 -0.1015
19121SOL    HW164224   7.477  10.398   7.730  0.8410 -0.4675  1.6061
19121SOL    HW264225   7.552  10.293   7.651  0.3667 -0.6082  1.3393
19122SOL     OW64226  11.848   1.543   0.291 -0.0523  0.6914 -0.4151
19122SOL    HW164227  11.761   1.582   0.300 -0.8603 -1.0204 -0.3238
19122SOL    HW264228  11.863   1.539   0.196  0.3420  1.8374 -0.4055
19123SOL     OW64229   2.762   8.032  10.144 -0.3366 -0.0997 -0.0616
19123SOL    HW164230   2.756   7.964  10.076 -0.7281 -0.6351  0.4944
19123SOL    HW264231   2.676   8.029  10.187  0.0934 -0.1304  0.8019
19124SOL     OW64232  11.439  11.073   4.877 -0.4507 -0.1096 -0.6780
19124SOL    HW164233  11.464  11.069   4.785  1.6864 -0.9711 -0.1106
19124SOL    HW264234  11.412  10.984   4.899  1.3388 -0.4988  0.0882
19125SOL     OW64235   7.540   0.713  12.024 -0.4785  0.4606 -0.0105
19125SOL    HW164236   7.618   0.701  12.079  0.2128  2.2288 -0.5409
19125SOL    HW264237   7.468   0.722  12.086 -0.4215 -1.8002  0.4799
19126SOL     OW64238   1.068  11.798   0.905 -0.5514 -0.2789  0.0177
19126SOL    HW164239   1.094  11.885   0.937 -1.9902 -0.3087  1.4054
19126SOL    HW264240   1.123  11.737   0.954  1.3501 -0.1667 -1.8593
19127SOL     OW64241   1.741   9.818   4.805  0.3961  0.1015  0.5250
19127SOL    HW164242   1.659   9.773   4.784  0.7803 -0.6019  0.4939
19127SOL    HW264243   1.714   9.896   4.854 -0.3360  0.2948 -0.1730
19128SOL     OW64244   6.429   2.889   2.669 -0.0455  0.6967 -0.3731
19128SOL    HW164245   6.433   2.898   2.574 -0.9455 -2.2423 -0.7819
19128SOL    HW264246   6.398   2.974   2.699  1.3937  2.1109 -2.5436
19129SOL     OW64247   9.839   9.990   5.683 -0.3360 -0.6492  0.6457
19129SOL    HW164248   9.890   9.936   5.744  2.6908  1.6495  0.3897
19129SOL    HW264249   9.782  10.042   5.740  0.9392 -0.0249  1.3935
19130SOL     OW64250   0.777   6.850   2.122 -0.0617 -0.4552  0.1132
19130SOL    HW164251   0.701   6.902   2.150  0.1948  0.0898 -0.1902
19130SOL    HW264252   0.792   6.876   2.031  0.4980 -0.5478  0.1753
19131SOL     OW64253  12.287   6.761   0.050 -0.1438 -0.2379 -0.0420
19131SOL    HW164254  12.318   6.721   0.132 -0.7400  0.4584  0.5444
19131SOL    HW264255  12.229   6.695   0.012  0.6107 -0.8127 -0.2201
19132SOL     OW64256  10.170   4.294   2.268 -0.0296  0.2389 -0.2265
19132SOL    HW164257  10.231   4.317   2.198 -0.6936  0.1793 -0.8409
19132SOL    HW264258  10.124   4.217   2.235 -1.8380  1.4335 -0.6918
19133SOL     OW64259   4.786   6.853   0.726  0.2018 -0.2007  0.2628
19133SOL    HW164260   4.815   6.761   0.720  0.2914 -0.3228  2.0329
19133SOL    HW264261   4.701   6.854   0.683  0.4734 -0.9780 -0.3277
19134SOL     OW64262  12.168   4.450   4.102 -0.2464 -0.0335 -0.3854
19134SOL    HW164263  12.227   4.381   4.133  0.4004  0.5115 -0.3951
19134SOL    HW264264  12.091   4.442   4.159  0.8564  0.8360  1.2966
19135SOL     OW64265   3.082   3.944   7.210  0.0076  0.3731  0.1093
19135SOL    HW164266   3.042   3.997   7.279 -0.3302  0.5215 -0.1992
19135SOL    HW264267   3.177   3.954   7.224 -0.0575  0.7201  0.3052
19136SOL     OW64268  10.272   0.907   7.103 -0.2526  0.2757  0.4775
19136SOL    HW164269  10.347   0.960   7.077 -0.0794  0.3736  1.1803
19136SOL    HW264270  10.196   0.965   7.091 -0.4752 -0.4257 -2.1391
19137SOL     OW64271   1.360   2.283  11.998 -0.1066  0.1126  0.0649
19137SOL    HW164272   1.335   2.223  11.928  0.8840 -0.7895  0.4556
19137SOL    HW264273   1.419   2.232  12.053 -0.1756  1.0890  1.0671
19138SOL     OW64274   1.952   1.732   2.289 -0.6277 -0.3369 -1.1803
19138SOL    HW164275   1.881   1.735   2.225 -1.3632 -2.4494 -0.5594
19138SOL    HW264276   1.924   1.790   2.360 -1.1335 -0.1773 -1.5082
19139SOL     OW64277   2.245   7.531   7.127  0.2267  0.2482 -0.3239
19139SOL    HW164278   2.225   7.452   7.077  1.0965 -1.0618  1.3031
19139SOL    HW264279   2.329   7.560   7.092  1.3007 -1.1993  0.8916
19140SOL     OW64280   3.070   5.392   8.596 -0.1007 -0.1270  0.2420
19140SOL    HW164281   3.154   5.393   8.643 -0.7187 -2.4029  1.5702
19140SOL    HW264282   3.093   5.409   8.505  1.7720 -0.3407  0.6338
19141SOL     OW64283   4.637   3.669   9.161  0.6466  0.4076  0.4786
19141SOL    HW164284   4.567   3.706   9.216  0.6101  0.1843  0.5831
19141SOL    HW264285   4.716   3.716   9.188  0.8855 -0.6416  1.6904
19142SOL     OW64286  11.789   9.323   8.686 -0.0452  0.2680 -0.3090
19142SOL    HW164287  11.808   9.417   8.682 -0.8012  0.4984  0.9113
19142SOL    HW264288  11.841   9.291   8.760 -0.3114 -0.1423 -0.2971
19143SOL     OW64289   0.413  11.957  10.322 -0.2601 -0.2513  0.2827
19143SOL    HW164290   0.502  11.943  10.290 -0.4149  1.6076 -1.0896
19143SOL    HW264291   0.371  11.871  10.313  1.0293 -0.8534 -0.2425
19144SOL     OW64292   4.595   1.092   6.462 -0.1879  0.0752  0.4646
19144SOL    HW164293   4.604   1.126   6.373  0.2116 -0.7141  0.1964
19144SOL    HW264294   4.515   1.039   6.460  0.6835 -1.2508  0.1444
19145SOL     OW64295   7.061   4.458   4.485 -0.0386  0.1396  0.4541
19145SOL    HW164296   7.070   4.509   4.405 -0.3312 -1.1877 -0.4703
19145SOL    HW264297   7.139   4.479   4.536  0.8502 -0.0189 -0.8017
19146SOL     OW64298  10.286   9.607   4.113  0.1856  0.1004 -0.1087
19146SOL    HW164299  10.227   9.674   4.148 -0.0709 -0.0807 -0.1900
19146SOL    HW264300  10.296   9.545   4.185 -2.7550 -1.8992 -1.2197
19147SOL     OW64301  11.621   0.910  11.546 -0.5785 -0.0704 -0.2341
19147SOL    HW164302  11.682   0.890  11.474 -2.5419 -3.4425 -1.1681
19147SOL    HW264303  11.574   0.988  11.516  0.6216  0.3017 -1.2546
19148SOL     OW64304   6.462   1.583   2.409  0.4434 -0.1059 -0.2645
19148SOL    HW164305   6.410   1.546   2.337  1.1543  0.6278 -1.1771
19148SOL    HW264306   6.473   1.510   2.470  0.6751 -1.0561 -1.3905
19149SOL     OW64307   8.707   3.864   8.890 -0.4072  0.1486 -0.0485
19149SOL    HW164308   8.634   3.926   8.895 -1.5232 -1.0362 -0.8537
19149SOL    HW264309   8.671   3.782   8.926  0.9880 -0.0870  0.8844
19150SOL     OW64310  11.520   9.771   8.979 -0.3931 -0.0767 -0.1393
19150SOL    HW164311  11.556   9.849   8.937  1.6237  0.7648  2.8251
19150SOL    HW264312  11.597   9.722   9.009 -1.6358 -0.9974  1.7984
19151SOL     OW64313   2.186   5.621   2.856 -0.3435 -0.3683 -0.4519
19151SOL    HW164314   2.208   5.540   2.811  1.2677 -0.3414  0.2260
19151SOL    HW264315   2.244   5.687   2.818 -1.2936  0.3721 -0.6526
19152SOL     OW64316  10.597   6.747   1.378 -0.2767 -0.2316 -0.6509
19152SOL    HW164317  10.689   6.759   1.398 -0.4620  0.4320 -0.1861
19152SOL    HW264318  10.590   6.768   1.285 -0.5426  3.3057  0.0338
19153SOL     OW64319   9.764  11.116  10.007 -0.5502  0.1275 -0.5400
19153SOL    HW164320   9.778  11.095   9.915 -2.1517  1.9115 -1.2602
19153SOL    HW264321   9.837  11.173  10.030  0.0131 -0.5551 -0.5888
19154SOL     OW64322  10.455   7.238  11.725 -0.1019  0.1125 -0.0011
19154SOL    HW164323  10.541   7.269  11.755  0.4473 -1.1737 -0.1805
19154SOL    HW264324  10.393   7.279  11.785  0.8289 -0.8256  1.7055
19155SOL     OW64325   4.936   1.047   8.814  0.3928  0.4144  0.4527
19155SOL    HW164326   4.921   0.991   8.737  1.2006 -1.0031  1.2811
19155SOL    HW264327   5.025   1.080   8.801 -0.0432  1.4407  0.0222
19156SOL     OW64328   1.870   3.235   2.422 -0.2524 -0.1425 -0.3443
19156SOL    HW164329   1.785   3.192   2.412  0.1668 -1.1209  0.1135
19156SOL    HW264330   1.933   3.170   2.389  0.3127  0.5891 -0.7211
19157SOL     OW64331   0.708   8.484  10.461 -0.0888  0.1471  0.2760
19157SOL    HW164332   0.744   8.497  10.373  0.8320 -0.2545  0.5839
19157SOL    HW264333   0.751   8.550  10.515  1.3206 -1.2654  0.9458
19158SOL     OW64334   0.914   3.874   4.346  0.5996 -0.1903 -0.6519
19158SOL    HW164335   1.007   3.889   4.332  0.3094  2.6951 -0.1368
19158SOL    HW264336   0.875   3.962   4.349 -1.9924 -1.2439  0.1262
19159SOL     OW64337   8.294   1.442  10.531  0.3044 -0.1537  0.5526
19159SOL    HW164338   8.212   1.490  10.545 -1.4415 -1.7751 -2.9309
19159SOL    HW264339   8.278   1.355  10.568  0.4467 -0.4460 -0.0506
19160SOL     OW64340   0.414   6.693  11.138 -0.3695 -0.2698 -0.4046
19160SOL    HW164341   0.428   6.698  11.043 -2.5083 -1.1427 -0.8424
19160SOL    HW264342   0.351   6.763  11.156 -1.4404 -1.2982 -0.0044
19161SOL     OW64343   8.349   8.141   2.126  0.0068  0.6306 -0.5487
19161SOL    HW164344   8.302   8.058   2.129  1.3154 -0.1334  2.6477
19161SOL    HW264345   8.291   8.203   2.170  0.3845  0.6038 -0.0083
19162SOL     OW64346   4.322   2.812   0.488  0.0802 -0.6994  0.0961
19162SOL    HW164347   4.254   2.877   0.507  2.3594  1.6252  0.8053
19162SOL    HW264348   4.290   2.767   0.410 -2.9057 -0.7375  1.2183
19163SOL     OW64349   9.439   1.800   8.385 -0.5256 -0.0002 -0.6780
19163SOL    HW164350   9.461   1.732   8.321  0.3225 -0.8633  0.4894
19163SOL    HW264351   9.523   1.834   8.415 -0.9453  1.9734 -1.6260
19164SOL     OW64352   9.293   2.254  10.407 -0.3159 -0.4132  0.6966
19164SOL    HW164353   9.332   2.308  10.338 -0.1117 -1.6024 -0.1561
19164SOL    HW264354   9.230   2.311  10.449  0.0374  0.5569 -0.0402
19165SOL     OW64355  10.725   0.670   9.969 -0.5981  0.0759  0.3463
19165SOL    HW164356  10.680   0.694   9.888 -0.4407  0.2019  0.2951
19165SOL    HW264357  10.665   0.610  10.013 -0.0617 -1.1502 -0.5486
19166SOL     OW64358   7.693   0.281   4.846 -0.6878 -0.0843 -0.1842
19166SOL    HW164359   7.683   0.288   4.751 -1.3799 -0.2304 -0.1231
19166SOL    HW264360   7.774   0.329   4.865 -0.2975 -0.4544 -0.8985
19167SOL     OW64361   5.343  12.472   7.811  0.0572 -0.2002 -0.3153
19167SOL    HW164362   5.358  12.552   7.861 -0.0890 -0.2108 -0.2552
19167SOL    HW264363   5.379  12.403   7.865  0.2514 -0.1674 -0.4008
19168SOL     OW64364   6.797  10.693   9.360 -0.6974  0.4430 -0.3705
19168SOL    HW164365   6.756  10.752   9.423 -3.4347 -1.2275 -0.3964
19168SOL    HW264366   6.733  10.623   9.349  1.8325 -1.8986 -1.2738
19169SOL     OW64367   1.237   2.730  11.023 -0.1960  0.3088 -0.1184
19169SOL    HW164368   1.223   2.756  11.114  1.3014 -1.9774  0.8219
19169SOL    HW264369   1.233   2.635  11.023 -0.1067  0.2280 -2.4706
19170SOL     OW64370   9.463  10.435   2.779 -0.2258 -0.1643  0.1678
19170SOL    HW164371   9.388  10.402   2.828 -1.1788  0.7724 -0.6160
19170SOL    HW264372   9.438  10.427   2.688  0.1432  1.2646 -0.0752
19171SOL     OW64373   6.661   5.946   8.608  0.1422  0.1859 -0.3317
19171SOL    HW164374   6.573   5.963   8.642  0.3431  1.4951 -0.4126
19171SOL    HW264375   6.716   6.009   8.653  0.9988 -0.4316 -0.5027
19172SOL     OW64376   6.928   7.476   1.503  0.1145 -0.1910 -0.3628
19172SOL    HW164377   6.868   7.540   1.540  1.0949  0.7891 -0.4339
19172SOL    HW264378   6.888   7.451   1.420 -0.1654  0.5113 -0.4441
19173SOL     OW64379   1.681  12.157   8.431  0.0431 -0.8171 -0.7047
19173SOL    HW164380   1.691  12.239   8.383  0.8143 -0.5792 -0.1517
19173SOL    HW264381   1.672  12.090   8.363 -0.3084 -0.3152 -1.1628
19174SOL     OW64382   2.748   5.827   7.771  0.1479 -0.0626 -0.0279
19174SOL    HW164383   2.689   5.754   7.752 -1.0660  0.2588  2.2282
19174SOL    HW264384   2.723   5.895   7.708 -0.3241 -0.7469 -0.5888
19175SOL     OW64385   3.959   8.214  11.594  0.4595 -0.0968 -0.1162
19175SOL    HW164386   4.023   8.196  11.663 -0.4998  2.2868  1.5189
19175SOL    HW264387   3.967   8.308  11.578 -1.8970  0.0794 -0.6002
19176SOL     OW64388  11.810   8.307  12.145  0.2544  0.1385  0.4815
19176SOL    HW164389  11.742   8.349  12.093  0.4781  2.6438  2.0176
19176SOL    HW264390  11.786   8.327  12.236  2.8319  0.9182  1.0845
19177SOL     OW64391  11.137   2.548   9.794 -0.3626 -0.0306 -0.3059
19177SOL    HW164392  11.109   2.507   9.875 -1.2793  1.0052 -0.0770
19177SOL    HW264393  11.183   2.627   9.821 -0.0651 -0.0362 -0.7755
19178SOL     OW64394   9.292  12.355  11.425 -0.4105 -0.2076 -0.6975
19178SOL    HW164395   9.334  12.386  11.345 -0.0308 -0.7345 -0.7105
19178SOL    HW264396   9.200  12.380  11.416  0.3053  3.6247  0.6198
19179SOL     OW64397  12.073   5.726   4.033 -0.0813 -0.3437 -0.2603
19179SOL    HW164398  12.020   5.804   4.013 -0.8710 -0.2028  2.0988
19179SOL    HW264399  12.159   5.745   3.995 -0.0403  2.0166  0.8303
19180SOL     OW64400  12.399   4.714   5.989 -0.3047 -0.1846  0.0031
19180SOL    HW164401  12.493   4.726   5.972  0.2171  3.4553  3.7828
19180SOL    HW264402  12.357   4.788   5.946 -0.4623  1.7509  3.1429
19181SOL     OW64403  11.764   6.534  11.135 -0.2678  0.4471  0.4531
19181SOL    HW164404  11.670   6.543  11.148 -0.4706  3.0566 -1.9957
19181SOL    HW264405  11.803   6.603  11.189  0.2166 -0.0081  0.7087
19182SOL     OW64406   9.989   2.527   6.145  0.2789 -0.6115 -0.2071
19182SOL    HW164407   9.931   2.542   6.071 -1.6244 -0.4913  1.2372
19182SOL    HW264408   9.999   2.432   6.149 -0.3063 -0.6686 -0.1123
19183SOL     OW64409  11.413   4.929   9.451  0.3637 -0.2033 -0.5372
19183SOL    HW164410  11.437   4.887   9.368  0.4884  0.6811 -0.9558
19183SOL    HW264411  11.496   4.964   9.485  0.6408 -2.0186  0.8328
19184SOL     OW64412   4.278   9.661   1.446  0.8154 -0.4021 -0.0500
19184SOL    HW164413   4.203   9.639   1.501 -1.4813  0.6904 -2.5309
19184SOL    HW264414   4.277   9.757   1.442 -0.8482 -0.3919 -3.9589
19185SOL     OW64415  10.119   0.913   7.996  0.2994 -0.2270  0.5530
19185SOL    HW164416  10.113   0.955   8.082 -1.0952 -0.1937  0.4659
19185SOL    HW264417  10.028   0.905   7.967  0.6951 -1.0338 -0.5383
19186SOL     OW64418   1.322   9.065  11.411 -0.0449 -0.7327  0.6066
19186SOL    HW164419   1.247   9.124  11.411 -0.0998 -0.8042  0.9872
19186SOL    HW264420   1.376   9.094  11.484  1.0141  0.2195 -0.4898
19187SOL     OW64421   4.141   5.045   6.571  0.1257 -0.4062  0.2610
19187SOL    HW164422   4.163   4.957   6.602  1.8130  0.8648  3.0698
19187SOL    HW264423   4.221   5.076   6.528  0.6325  0.7343  1.9123
19188SOL     OW64424  11.876   0.506   8.544  0.0011 -0.0005  0.1002
19188SOL    HW164425  11.824   0.511   8.625 -1.1886 -2.4064 -0.4329
19188SOL    HW264426  11.965   0.488   8.574 -0.4155 -0.8139  0.9199
19189SOL     OW64427   5.200   7.972   9.818  0.2660  0.0517  0.2044
19189SOL    HW164428   5.246   7.891   9.796  0.0847  0.3671 -1.5018
19189SOL    HW264429   5.156   7.997   9.737  0.0086  1.6620  0.8028
19190SOL     OW64430  10.300   3.727   2.573 -0.2205  0.2559  0.6474
19190SOL    HW164431  10.227   3.708   2.632 -1.3647  0.2580 -0.7256
19190SOL    HW264432  10.354   3.648   2.573 -1.3942 -0.5643  0.0318
19191SOL     OW64433   8.395   2.098   2.709  0.0190  0.0047 -0.4369
19191SOL    HW164434   8.345   2.078   2.787 -0.1947  1.7186 -0.0787
19191SOL    HW264435   8.487   2.097   2.738 -0.0792  0.9964 -0.0424
19192SOL     OW64436   0.864   1.106   8.174 -0.0188 -0.0408 -0.2297
19192SOL    HW164437   0.905   1.026   8.142  0.5200 -0.7618  2.0904
19192SOL    HW264438   0.770   1.092   8.162  0.0126 -1.4063  0.9098
19193SOL     OW64439   5.172   6.338  10.121 -0.2225 -0.0604  0.4397
19193SOL    HW164440   5.227   6.266  10.091 -0.2104  0.4447 -0.7977
19193SOL    HW264441   5.084   6.314  10.094 -0.3027  0.1150  0.5432
19194SOL     OW64442   4.949   1.797   6.929 -0.7828  0.2547  0.1624
19194SOL    HW164443   5.027   1.853   6.932 -0.2111 -0.3206 -1.9800
19194SOL    HW264444   4.934   1.782   6.836 -0.2183 -4.0319  0.5190
19195SOL     OW64445   3.203   6.802  11.464 -0.0849 -0.0771 -0.0620
19195SOL    HW164446   3.278   6.786  11.522 -0.0649  0.1430 -0.0276
19195SOL    HW264447   3.128   6.765  11.511  0.0378 -0.5065 -0.1991
19196SOL     OW64448   0.406   5.964   9.433  0.4476  0.0066  0.1197
19196SOL    HW164449   0.464   5.971   9.357  1.4051 -0.3611  0.7943
19196SOL    HW264450   0.327   5.923   9.398  0.6937  0.2628 -0.7719
19197SOL     OW64451   1.559   7.283   7.409  0.2932 -0.4204  0.5379
19197SOL    HW164452   1.623   7.262   7.477  0.4833 -0.3557  0.3835
19197SOL    HW264453   1.565   7.210   7.347  0.0155 -0.5502  0.6684
19198SOL     OW64454   7.523   8.481   0.366  0.1002 -0.2057  0.1084
19198SOL    HW164455   7.588   8.435   0.419  0.2698  0.0377  0.1123
19198SOL    HW264456   7.485   8.545   0.425  0.5973  0.3611 -0.1761
19199SOL     OW64457   2.354   8.200   7.535 -0.4551 -0.0553  0.8598
19199SOL    HW164458   2.427   8.145   7.563 -0.1464 -0.9085 -1.4488
19199SOL    HW264459   2.277   8.159   7.576  0.0265 -0.9152  0.9273
19200SOL     OW64460   5.573  11.907   5.485  0.1824  0.6229  0.2193
19200SOL    HW164461   5.627  11.865   5.552  3.3065  0.7769 -1.9854
19200SOL    HW264462   5.592  12.001   5.494 -1.6886  0.9697  0.9398
19201SOL     OW64463  12.010   5.786   7.669 -0.2360 -0.2227  0.2087
19201SOL    HW164464  11.972   5.873   7.677  0.7202  0.0921  1.7664
19201SOL    HW264465  11.938   5.726   7.690 -0.7381  0.2082 -0.2666
19202SOL     OW64466   2.869   4.567   7.544 -0.0106 -0.2943 -0.5725
19202SOL    HW164467   2.848   4.654   7.510 -1.9102 -0.8170 -0.8999
19202SOL    HW264468   2.875   4.512   7.465  0.6797 -0.5591 -0.3404
19203SOL     OW64469   5.266   1.069   1.395  0.0253 -0.6184  0.0193
19203SOL    HW164470   5.212   1.019   1.334 -0.9145  0.0898  0.2450
19203SOL    HW264471   5.203   1.112   1.453  0.8509 -0.1025  0.5528
19204SOL     OW64472   4.563   3.103   7.994  0.0154  0.0360 -0.1522
19204SOL    HW164473   4.477   3.127   8.027  0.4637 -0.3223  1.3697
19204SOL    HW264474   4.617   3.181   8.010  0.8743 -0.9817  2.5352
19205SOL     OW64475   6.359   1.997   4.502  0.1467 -0.5203 -0.7395
19205SOL    HW164476   6.420   2.035   4.564 -0.4528 -0.5340 -0.1236
19205SOL    HW264477   6.307   2.071   4.470  0.5355 -0.4940 -1.3325
19206SOL     OW64478   2.087   1.667   3.568 -0.2011  0.1836 -0.2836
19206SOL    HW164479   2.004   1.682   3.612 -0.0867 -1.7370  0.6852
19206SOL    HW264480   2.073   1.696   3.478 -1.5032  1.0326  0.1693
19207SOL     OW64481   1.457   5.114   1.487  0.4496  0.4073 -0.7476
19207SOL    HW164482   1.434   5.085   1.575  0.4012  1.3202 -0.4564
19207SOL    HW264483   1.506   5.040   1.450 -1.0686 -0.7008 -0.6187
19208SOL     OW64484   5.928   1.530   6.051  0.1060 -0.0897  0.0193
19208SOL    HW164485   5.903   1.476   5.976  1.0477  0.9096 -1.0397
19208SOL    HW264486   5.982   1.472   6.105 -0.4957 -0.7850 -0.0982
19209SOL     OW64487  11.746  11.058   2.997 -0.2277  0.3640  0.3163
19209SOL    HW164488  11.746  10.966   3.026  0.6336 -0.1103 -1.1032
19209SOL    HW264489  11.723  11.054   2.905 -0.3689  1.6096  0.2879
19210SOL     OW64490   0.070  12.189  11.435 -0.1108  0.2968  0.9470
19210SOL    HW164491   0.010  12.260  11.461  0.6431  1.5036 -0.4626
19210SOL    HW264492   0.016  12.110  11.436 -1.3329  1.1082  1.1873
19211SOL     OW64493   6.611   0.019   9.343 -0.5381 -0.1403 -0.0674
19211SOL    HW164494   6.676   0.089   9.345 -1.0914  0.3771  0.3564
19211SOL    HW264495   6.653  -0.053   9.295  0.1348  0.3827 -0.2682
19212SOL     OW64496  10.481   4.207   0.961 -0.3107  0.8092  0.0481
19212SOL    HW164497  10.496   4.113   0.961 -3.6632  0.1518  0.5048
19212SOL    HW264498  10.558   4.244   0.917  2.1173 -1.8780  1.7439
19213SOL     OW64499   2.460   8.638   2.367  0.2148 -0.3231  0.0336
19213SOL    HW164500   2.533   8.582   2.394  0.4156 -0.5330 -0.9065
19213SOL    HW264501   2.491   8.682   2.288 -0.7423 -0.5666 -0.4965
19214SOL     OW64502   2.893   3.370   1.433  0.3959  0.6231  0.7139
19214SOL    HW164503   2.807   3.403   1.457  0.2632  1.0276 -0.2823
19214SOL    HW264504   2.904   3.395   1.341  1.2792 -0.0412  0.6255
19215SOL     OW64505  10.496   9.569   2.816 -0.0051  0.7639 -0.3300
19215SOL    HW164506  10.435   9.504   2.851  1.9121 -1.6528 -1.1127
19215SOL    HW264507  10.447   9.614   2.747 -1.1926 -0.4620 -0.3175
19216SOL     OW64508  10.244   4.663   7.917  0.1411  0.4991 -0.3692
19216SOL    HW164509  10.252   4.568   7.915 -0.8658  0.3384  1.1864
19216SOL    HW264510  10.163   4.679   7.966  2.2886  2.1766  2.9723
19217SOL     OW64511   4.799   5.114   5.185 -0.3449 -0.0502 -0.3563
19217SOL    HW164512   4.796   5.206   5.214  0.7761  0.5841 -2.0879
19217SOL    HW264513   4.840   5.118   5.099 -0.4950 -2.1815 -0.5657
19218SOL     OW64514   9.406   5.837   7.795 -0.0623  0.2865  0.3678
19218SOL    HW164515   9.483   5.781   7.808  0.0366  0.2976 -0.1643
19218SOL    HW264516   9.333   5.787   7.831 -0.1099 -0.5566 -0.8485
19219SOL     OW64517   5.419  11.320   9.960  0.1258 -0.0706 -0.2334
19219SOL    HW164518   5.337  11.285   9.927 -0.6178 -0.4088  1.7967
19219SOL    HW264519   5.401  11.340  10.052  1.8570  1.3775 -0.1481
19220SOL     OW64520  10.761   5.168   0.191  0.8093 -0.0646 -0.1553
19220SOL    HW164521  10.738   5.076   0.179  0.5566 -0.0981  0.5540
19220SOL    HW264522  10.796   5.195   0.106 -1.5207 -0.0861 -1.1962
19221SOL     OW64523   7.813   3.156   7.818 -0.6031 -0.0275  0.6134
19221SOL    HW164524   7.863   3.235   7.795  0.3684 -0.0336  2.4608
19221SOL    HW264525   7.728   3.189   7.845 -0.6934  0.2484  0.0059
19222SOL     OW64526   3.885   1.610   8.754  0.1279  0.2956 -0.5553
19222SOL    HW164527   3.873   1.516   8.744 -1.8200  0.6890 -2.4965
19222SOL    HW264528   3.843   1.630   8.838  1.6280 -0.6729  0.4837
19223SOL     OW64529   8.488   8.567   4.811 -0.2742 -0.5390  0.1416
19223SOL    HW164530   8.429   8.639   4.791  0.6490  0.5039  1.0181
19223SOL    HW264531   8.432   8.498   4.846 -1.0055  0.3822  0.8388
19224SOL     OW64532  11.296  10.561  11.432  0.0931  0.4349  0.0198
19224SOL    HW164533  11.330  10.651  11.438 -0.9433  0.7591  1.8019
19224SOL    HW264534  11.331  10.517  11.509 -0.1510 -0.4319 -0.3559
19225SOL     OW64535   4.313   6.650   5.831  0.4492 -0.4915  0.1121
19225SOL    HW164536   4.267   6.726   5.794  1.9169 -0.7184 -2.3359
19225SOL    HW264537   4.405   6.668   5.817  0.9840 -1.6657  1.7485
19226SOL     OW64538   0.890   7.192   2.021  0.5087  0.1946 -0.1457
19226SOL    HW164539   0.973   7.177   2.066  0.2862 -2.1464 -0.3933
19226SOL    HW264540   0.887   7.126   1.952 -1.5268  0.2565 -0.1908
19227SOL     OW64541   1.883   5.508   5.577  0.2562  0.2060  0.0428
19227SOL    HW164542   1.972   5.496   5.543  0.4727  2.9272 -0.6428
19227SOL    HW264543   1.884   5.595   5.617 -2.0381  0.2123  0.2466
19228SOL     OW64544   5.206   7.677   8.693  0.7909  0.5168  0.0821
19228SOL    HW164545   5.238   7.685   8.604  1.5056  0.3035  0.3158
19228SOL    HW264546   5.247   7.750   8.740  1.8744 -0.4237  0.6438
19229SOL     OW64547   7.235  11.722   7.363  0.6292  0.3286 -0.0066
19229SOL    HW164548   7.197  11.734   7.450  0.1495  1.4141 -0.3504
19229SOL    HW264549   7.169  11.671   7.315  0.0794  1.2692 -0.2687
19230SOL     OW64550   6.104   2.804  11.072 -0.4624  0.3907  0.5939
19230SOL    HW164551   6.107   2.740  11.001 -1.0444  0.3275  0.6289
19230SOL    HW264552   6.119   2.888  11.028  1.9542  0.1158  0.7448
19231SOL     OW64553   7.220   2.347   4.961 -0.0356  0.0615  0.1258
19231SOL    HW164554   7.177   2.307   4.886 -0.6754 -0.3239  0.6890
19231SOL    HW264555   7.313   2.329   4.949 -0.3048 -1.5469  0.3385
19232SOL     OW64556   6.790   0.480   6.407  0.4580  0.2987 -0.3794
19232SOL    HW164557   6.784   0.450   6.498  0.3853 -0.0218 -0.4885
19232SOL    HW264558   6.756   0.407   6.355 -0.7749  0.9805 -0.5822
19233SOL     OW64559  10.393   6.937   2.278  0.2260 -0.3453  0.4039
19233SOL    HW164560  10.315   6.916   2.227  0.2018 -0.3097  0.4248
19233SOL    HW264561  10.375   6.902   2.366 -0.5593  1.2540  0.9340
19234SOL     OW64562   3.563   4.148   7.201 -0.7528  0.6560  0.7170
19234SOL    HW164563   3.485   4.114   7.157  0.8189 -1.5616 -0.5862
19234SOL    HW264564   3.553   4.121   7.292 -1.3516  0.0471  0.4820
19235SOL     OW64565   0.579   2.377   9.212  0.4964  0.1419 -0.9357
19235SOL    HW164566   0.626   2.297   9.236 -0.7434 -0.1118  0.8212
19235SOL    HW264567   0.611   2.398   9.124  1.4100 -1.8492 -1.1335
19236SOL     OW64568  10.812   1.385   8.639  0.0700 -0.5586 -0.2587
19236SOL    HW164569  10.877   1.399   8.570  0.7804 -0.4676  0.4185
19236SOL    HW264570  10.732   1.424   8.604  0.4991 -0.2274 -0.8985
19237SOL     OW64571   2.325   2.507  11.898 -0.1176  0.2044  0.1337
19237SOL    HW164572   2.327   2.479  11.990  1.3772  1.3076  0.4673
19237SOL    HW264573   2.232   2.508  11.875 -0.4211 -1.8189  1.0677
19238SOL     OW64574   6.293  11.905  11.840  0.3152 -0.6442  0.5536
19238SOL    HW164575   6.354  11.841  11.876 -1.1146 -1.4204  1.7168
19238SOL    HW264576   6.287  11.973  11.908 -1.2654 -1.3665  1.1915
19239SOL     OW64577   3.542   1.480  12.028 -0.3875 -0.6708  0.8761
19239SOL    HW164578   3.532   1.460  11.935 -1.1268 -0.5947  0.9345
19239SOL    HW264579   3.577   1.399  12.066 -0.2953 -0.7776  0.5691
19240SOL     OW64580   6.764  10.010   1.882 -0.4029  0.1839 -0.4244
19240SOL    HW164581   6.680  10.052   1.864  0.0537  1.3978  0.2025
19240SOL    HW264582   6.827  10.081   1.881  0.7145 -0.7799 -1.3643
19241SOL     OW64583   8.786   7.740   6.757  0.0930 -0.0821 -0.7104
19241SOL    HW164584   8.738   7.704   6.831  0.1851 -0.7922 -0.9851
19241SOL    HW264585   8.728   7.806   6.721  0.8708  1.7519  1.2039
19242SOL     OW64586   4.121   0.018   2.668 -0.1434  0.7308  0.1931
19242SOL    HW164587   4.106   0.057   2.754 -0.8330  2.5663 -0.6998
19242SOL    HW264588   4.142   0.093   2.611  1.2216 -0.5351 -1.0559
19243SOL     OW64589   0.221   5.254   4.439 -0.4526  0.2392  0.4311
19243SOL    HW164590   0.304   5.221   4.473 -1.2682 -1.7253  0.6789
19243SOL    HW264591   0.154   5.206   4.488 -1.7012 -0.7056 -2.0302
19244SOL     OW64592  11.466   7.617   1.643 -0.5202 -0.3170 -0.1145
19244SOL    HW164593  11.502   7.603   1.730 -0.2788 -2.8402 -0.5503
19244SOL    HW264594  11.387   7.563   1.640 -1.4261  0.9660 -0.9632
19245SOL     OW64595   6.053   7.003   3.813 -0.3743 -0.3554 -0.2861
19245SOL    HW164596   6.099   7.086   3.822  0.3174 -0.7125 -0.5030
19245SOL    HW264597   6.116   6.937   3.840 -0.5451 -0.9023 -1.2026
19246SOL     OW64598   1.175   7.310   6.759 -0.3574  0.1512  0.2986
19246SOL    HW164599   1.173   7.267   6.845 -0.0033 -1.6253 -0.5355
19246SOL    HW264600   1.131   7.248   6.701  0.5852  0.7174 -1.0538
19247SOL     OW64601   1.772   3.671   3.196  0.3368  0.0260 -0.2544
19247SOL    HW164602   1.795   3.751   3.243  1.7382 -1.6276  2.1172
19247SOL    HW264603   1.855   3.641   3.157 -0.5629  0.7159 -2.9512
19248SOL     OW64604  11.508  11.917   3.857  0.0966  0.1418 -0.3823
19248SOL    HW164605  11.575  11.958   3.912  1.4990 -1.4688 -0.8123
19248SOL    HW264606  11.444  11.881   3.919  1.2021 -0.8938  0.1937
19249SOL     OW64607   2.627  12.047   8.749 -0.7315  0.4591  0.2752
19249SOL    HW164608   2.680  11.983   8.797  0.2872  1.7468  0.9379
19249SOL    HW264609   2.547  12.056   8.802 -1.0904 -0.5896 -0.0742
19250SOL     OW64610  11.334   7.583  12.126 -0.2435  0.0663  0.3746
19250SOL    HW164611  11.355   7.593  12.033 -0.0623 -0.1208  0.3936
19250SOL    HW264612  11.408   7.534  12.161  1.1702  2.5877  1.2042
19251SOL     OW64613  12.356   0.979   0.342  0.0948  0.3598  0.3434
19251SOL    HW164614  12.281   0.992   0.284  0.2490  1.4885  0.3704
19251SOL    HW264615  12.357   0.885   0.360 -1.6294  0.4050  0.7941
19252SOL     OW64616   6.722   6.172   6.774 -0.0304  0.3457 -0.1381
19252SOL    HW164617   6.708   6.237   6.706 -2.7193 -0.6139 -0.6375
19252SOL    HW264618   6.777   6.105   6.734  1.4610  1.5237 -0.1161
19253SOL     OW64619   6.789   0.144   3.536 -0.6372 -0.3557  0.2189
19253SOL    HW164620   6.840   0.216   3.498 -1.0714 -0.7071 -1.0965
19253SOL    HW264621   6.829   0.128   3.621  0.6064  0.2440 -0.2293
19254SOL     OW64622   1.471  11.897   3.007 -0.3852 -0.1789  0.0222
19254SOL    HW164623   1.421  11.874   3.085  1.0747  0.8788  1.3450
19254SOL    HW264624   1.529  11.967   3.036 -0.3999  0.8707 -2.2595
19255SOL     OW64625   9.384   7.496   2.252 -0.4995  0.2943 -0.4887
19255SOL    HW164626   9.370   7.506   2.346 -0.1091 -1.1883 -0.2501
19255SOL    HW264627   9.470   7.456   2.244 -0.6006  0.2401 -1.4660
19256SOL     OW64628   2.034   7.802   4.968 -1.0379 -0.1965 -0.2405
19256SOL    HW164629   1.979   7.879   4.957 -2.0297 -0.7402  0.6846
19256SOL    HW264630   2.046   7.768   4.879 -0.5093  1.0416 -0.6728
19257SOL     OW64631   6.815   0.017   3.282  0.4209 -0.2529  0.2237
19257SOL    HW164632   6.820   0.073   3.360 -2.1260 -1.0474  1.0816
19257SOL    HW264633   6.793   0.077   3.211 -0.1931  0.1384  0.7297
19258SOL     OW64634   6.316   9.966   7.225  0.0645  0.2683  0.1541
19258SOL    HW164635   6.382  10.024   7.188  3.3446 -1.9004  2.0968
19258SOL    HW264636   6.346   9.878   7.203 -1.7637 -0.8421  1.7630
19259SOL     OW64637   4.701   5.120   1.182 -0.6099  0.4485 -0.4013
19259SOL    HW164638   4.686   5.045   1.124  0.0661  0.3190 -0.4092
19259SOL    HW264639   4.792   5.144   1.168 -0.4375  0.4246  0.6081
19260SOL     OW64640   7.897   9.808   3.299 -0.1274 -0.1560 -0.6427
19260SOL    HW164641   7.912   9.902   3.307 -1.2960  0.0564 -0.6966
19260SOL    HW264642   7.980   9.772   3.268  0.1822  0.9259 -1.0987
19261SOL     OW64643   1.263   1.188   3.906  0.0902 -0.3588  0.5896
19261SOL    HW164644   1.331   1.252   3.928 -1.1044  0.3126  2.6103
19261SOL    HW264645   1.309   1.104   3.902  0.9299 -0.0528  2.7812
19262SOL     OW64646  10.389   4.107   9.267  0.6693  0.3593  0.0339
19262SOL    HW164647  10.415   4.030   9.318  0.4489  0.3492  0.1354
19262SOL    HW264648  10.322   4.074   9.207  0.5023  0.4912  0.1470
19263SOL     OW64649   3.642   6.478  12.171  0.1707 -0.3840  0.1441
19263SOL    HW164650   3.623   6.457  12.080 -2.3529  0.7151  0.3317
19263SOL    HW264651   3.732   6.511  12.171  0.0145  0.1649 -2.0424
19264SOL     OW64652   3.375   7.815   6.354 -0.4730  0.4317 -0.2542
19264SOL    HW164653   3.288   7.780   6.332 -0.3105  0.3423 -0.7611
19264SOL    HW264654   3.363   7.856   6.440 -0.5480 -1.3289  0.6286
19265SOL     OW64655   1.214   8.063   8.471 -0.0345  0.0505 -0.6011
19265SOL    HW164656   1.148   8.104   8.416 -2.1775 -0.5028  1.3734
19265SOL    HW264657   1.190   7.970   8.472 -0.1586  0.0622  1.3015
19266SOL     OW64658   7.942   9.791   3.794  0.3811  0.2916 -0.2455
19266SOL    HW164659   8.029   9.829   3.788  0.0782  0.9135 -0.7567
19266SOL    HW264660   7.884   9.856   3.755 -0.2527 -0.3218 -0.3514
19267SOL     OW64661   8.565   4.295  11.024 -0.4857  0.3989 -0.5693
19267SOL    HW164662   8.492   4.254  10.978 -0.9582  0.1787  0.3415
19267SOL    HW264663   8.628   4.315  10.956 -0.0062 -2.2845 -1.0324
19268SOL     OW64664  12.097   4.366  12.259 -0.6310 -0.3501  0.1758
19268SOL    HW164665  12.138   4.358  12.173 -1.2736  0.1734 -0.1846
19268SOL    HW264666  12.140   4.441  12.299 -0.8542 -0.1353  0.0139
19269SOL     OW64667   2.136   5.095   1.272 -0.2256 -0.4445  0.0377
19269SOL    HW164668   2.050   5.121   1.239 -0.4837  0.7669  1.5611
19269SOL    HW264669   2.193   5.100   1.195 -1.1088  0.7702 -0.5771
19270SOL     OW64670   4.059   7.082   6.470  0.0356 -0.2717  0.1276
19270SOL    HW164671   4.131   7.133   6.431 -0.0471 -0.0927  0.2069
19270SOL    HW264672   4.060   6.999   6.423  0.4091 -0.3361  0.2508
19271SOL     OW64673   3.716   6.863   1.646 -0.7569 -0.3527  0.2939
19271SOL    HW164674   3.637   6.898   1.687 -1.1450 -0.1724 -0.5870
19271SOL    HW264675   3.743   6.929   1.583 -1.0631 -1.2787 -0.8444
19272SOL     OW64676  11.500   5.803   7.217  0.3073  0.2967 -0.1697
19272SOL    HW164677  11.481   5.827   7.127 -1.2974 -0.8402 -0.1812
19272SOL    HW264678  11.415   5.802   7.260  0.2244 -4.0362  0.0824
19273SOL     OW64679   8.973   2.128   5.101 -0.3606  0.1233 -0.3967
19273SOL    HW164680   8.959   2.166   5.014 -0.0981  1.5511  0.1590
19273SOL    HW264681   9.043   2.064   5.088  0.6477  1.2992 -1.0062
19274SOL     OW64682   5.344  12.072   3.165  0.6235 -0.0036 -0.1818
19274SOL    HW164683   5.301  12.023   3.095 -0.3307 -0.4554  0.7030
19274SOL    HW264684   5.337  12.164   3.137 -2.1081  0.0909  0.4924
19275SOL     OW64685   9.626   7.748   7.128 -0.1729 -0.0519  0.4728
19275SOL    HW164686   9.591   7.741   7.217  0.6805 -2.8258  0.6728
19275SOL    HW264687   9.558   7.711   7.072  0.1121 -0.1918  0.2139
19276SOL     OW64688   7.710   7.131   0.624 -0.0131  0.6426  0.2960
19276SOL    HW164689   7.659   7.146   0.704  0.9657 -0.1878  1.1198
19276SOL    HW264690   7.766   7.056   0.646  2.0344  1.9126 -0.3094
19277SOL     OW64691   4.130   3.580   2.352 -0.0844  0.0055 -0.0611
19277SOL    HW164692   4.089   3.667   2.355  2.6806  1.4284 -0.2356
19277SOL    HW264693   4.091   3.538   2.275 -3.1026  0.0936  1.2491
19278SOL     OW64694   1.431   5.019   5.280  0.2028  0.5896 -0.3042
19278SOL    HW164695   1.420   5.107   5.244 -1.0860  1.0703  1.1504
19278SOL    HW264696   1.372   5.017   5.356  1.7337 -0.8379  0.9066
19279SOL     OW64697  10.897  11.943   0.168 -0.0770 -0.8339  0.6148
19279SOL    HW164698  10.979  11.921   0.123  0.7430  0.4687  1.4157
19279SOL    HW264699  10.922  11.949   0.261 -0.5758  1.7284  0.6463
19280SOL     OW64700   4.505   2.294  11.170  0.2780 -0.3237  0.1198
19280SOL    HW164701   4.529   2.280  11.261  2.1941  1.0132 -0.1154
19280SOL    HW264702   4.589   2.294  11.123 -0.5963 -0.0927 -1.4993
19281SOL     OW64703   9.650   9.083   5.176  0.8333  0.2405  0.3085
19281SOL    HW164704   9.661   9.137   5.098 -2.0824  0.3288 -0.1278
19281SOL    HW264705   9.558   9.094   5.201  1.2832 -0.9807  2.8914
19282SOL     OW64706   3.300   0.689   2.767 -0.0317  0.0334 -0.1334
19282SOL    HW164707   3.348   0.606   2.772  0.8244  0.5428  0.3400
19282SOL    HW264708   3.260   0.700   2.853 -1.8438 -0.8505 -0.8058
19283SOL     OW64709   5.283  11.383   0.053 -0.4735 -0.0383 -0.2264
19283SOL    HW164710   5.322  11.461   0.092  0.9055 -1.5064  1.4827
19283SOL    HW264711   5.240  11.338   0.125  2.6592 -3.1389 -0.0114
19284SOL     OW64712   1.283   7.218   1.875 -0.0866  0.3689  0.5168
19284SOL    HW164713   1.256   7.307   1.857 -0.0274  0.0214 -1.4250
19284SOL    HW264714   1.238   7.196   1.957 -0.9906  1.7865  0.4376
19285SOL     OW64715  11.123   1.672   0.308  0.0098  0.1867 -0.2957
19285SOL    HW164716  11.031   1.693   0.290 -0.2531 -0.0980  0.6440
19285SOL    HW264717  11.148   1.612   0.239 -0.1088  1.2773 -1.3176
19286SOL     OW64718   8.267   4.077  11.621  0.1185 -0.1699 -0.0275
19286SOL    HW164719   8.303   4.162  11.647  1.9298 -0.8870 -0.0801
19286SOL    HW264720   8.205   4.056  11.691 -0.0733  1.0107  0.1843
19287SOL     OW64721   6.206   1.196   8.422 -0.1279 -0.1935 -0.3006
19287SOL    HW164722   6.224   1.202   8.328 -0.8008 -0.5514 -0.4624
19287SOL    HW264723   6.176   1.106   8.435 -1.7303  0.3389 -0.0640
19288SOL     OW64724  11.382  11.853   7.245 -0.1600  0.1619 -0.1996
19288SOL    HW164725  11.335  11.824   7.167  0.1245 -0.8285 -0.0171
19288SOL    HW264726  11.322  11.836   7.317  0.4953 -1.2179  0.0465
19289SOL     OW64727   3.405  10.466   1.060  0.2242  0.3514 -0.1795
19289SOL    HW164728   3.428  10.442   1.150 -0.4553  1.7183  0.3834
19289SOL    HW264729   3.372  10.555   1.067 -0.6014  0.1877 -1.6815
19290SOL     OW64730   7.248   6.814  11.995  0.5809  0.2945 -0.7298
19290SOL    HW164731   7.169   6.762  11.983 -0.3414  2.0220 -2.8159
19290SOL    HW264732   7.316   6.767  11.947 -0.3637  1.1536 -3.0605
19291SOL     OW64733   2.051   3.150   1.429 -0.4020  0.2374 -0.0606
19291SOL    HW164734   1.993   3.076   1.410 -0.6597  0.5700 -0.6399
19291SOL    HW264735   1.994   3.227   1.422  0.1934  0.6145 -1.1541
19292SOL     OW64736   3.937  10.924  12.150 -0.7360  0.5029 -0.2023
19292SOL    HW164737   3.847  10.897  12.133 -0.0781  0.1527 -3.7557
19292SOL    HW264738   3.934  11.020  12.149 -0.9030  0.4937 -1.5534
19293SOL     OW64739   5.543  11.816   3.485 -0.1444 -0.3946 -0.5339
19293SOL    HW164740   5.569  11.726   3.502 -0.3033 -0.5733 -1.2212
19293SOL    HW264741   5.483  11.837   3.557 -0.3017 -0.9186 -0.5039
19294SOL     OW64742   1.061   7.970   5.256  0.3756 -0.0822 -0.4104
19294SOL    HW164743   1.071   7.981   5.161 -0.5507  2.3783 -0.2806
19294SOL    HW264744   1.148   7.991   5.291  0.1198  1.3521 -0.5867
19295SOL     OW64745  11.332  12.417   0.621  0.2175 -0.2701 -0.3445
19295SOL    HW164746  11.318  12.393   0.713  0.6424  0.2999 -0.1195
19295SOL    HW264747  11.379  12.343   0.583 -0.0314 -0.5429 -0.1237
19296SOL     OW64748   3.660   4.686   7.544 -0.4960  0.0867  0.6572
19296SOL    HW164749   3.742   4.698   7.591 -0.3577  1.7726  0.0665
19296SOL    HW264750   3.662   4.595   7.515  1.7828  0.3930 -0.4192
19297SOL     OW64751   2.919  10.779  11.749 -0.4615  0.0738  0.5628
19297SOL    HW164752   2.991  10.833  11.715  0.3806  0.9207  3.3792
19297SOL    HW264753   2.963  10.707  11.795 -1.4504 -0.3681  0.8293
19298SOL     OW64754  12.416   8.778   4.074  0.1408  0.2677  0.5716
19298SOL    HW164755  12.450   8.696   4.036 -1.0616 -0.9624  2.0143
19298SOL    HW264756  12.367   8.819   4.003 -3.2626 -2.6641  0.9236
19299SOL     OW64757   8.545   8.435  10.109 -0.8513 -0.3476 -0.1227
19299SOL    HW164758   8.561   8.341  10.115 -0.8859 -0.3492 -0.0572
19299SOL    HW264759   8.513   8.460  10.196 -0.1466 -0.1384  0.0815
19300SOL     OW64760   5.801   6.527  12.455 -0.1599  0.0199 -0.3341
19300SOL    HW164761   5.765   6.537  12.367 -2.2619  1.7511  0.6371
19300SOL    HW264762   5.757   6.451  12.491 -2.4424  1.6551  0.5591
19301SOL     OW64763   6.698  10.675   9.820 -0.1358 -0.3613  0.4706
19301SOL    HW164764   6.653  10.721   9.891 -0.7495 -1.5885  0.9029
19301SOL    HW264765   6.628  10.639   9.766  0.2341  2.2242 -2.0050
19302SOL     OW64766   9.481   6.843   3.244  0.6793 -0.1461 -0.0944
19302SOL    HW164767   9.481   6.752   3.272  1.7380 -0.2121 -0.2516
19302SOL    HW264768   9.410   6.849   3.180  0.8485 -0.9644 -0.3750
19303SOL     OW64769   4.272   2.794   7.056 -0.0895 -0.1955 -0.0513
19303SOL    HW164770   4.218   2.715   7.052 -1.0101  0.4531 -0.6426
19303SOL    HW264771   4.213   2.866   7.035  0.6050  0.7380  1.0192
19304SOL     OW64772  11.607   4.672   6.276  0.1863 -0.1410 -0.3382
19304SOL    HW164773  11.696   4.647   6.299 -0.1745  0.8780  2.5130
19304SOL    HW264774  11.551   4.623   6.336 -0.9630  1.3957 -0.0657
19305SOL     OW64775  11.767  10.351   8.913  0.0141  0.0555 -0.0641
19305SOL    HW164776  11.701  10.377   8.978  0.0507  1.8545 -0.6886
19305SOL    HW264777  11.721  10.358   8.829 -0.0755 -2.3810 -0.2806
19306SOL     OW64778   7.716   8.013   8.787 -0.0442 -0.1440  0.2510
19306SOL    HW164779   7.798   8.053   8.758 -0.9020  1.3365 -0.2256
19306SOL    HW264780   7.696   7.949   8.718  0.7298 -0.5832  0.4118
19307SOL     OW64781   3.108   7.331   5.721 -0.5414 -0.1454  0.5002
19307SOL    HW164782   3.043   7.358   5.786 -1.4676 -0.8507 -0.1178
19307SOL    HW264783   3.077   7.368   5.639 -0.5406 -1.0456  0.0800
19308SOL     OW64784   0.311   8.631   5.443 -0.3761  0.3571  0.5950
19308SOL    HW164785   0.360   8.697   5.393  0.0052 -0.0015  0.4925
19308SOL    HW264786   0.283   8.568   5.377  1.3329 -0.8806  0.9949
19309SOL     OW64787   8.930   0.256   1.531  0.1003 -0.1777 -0.3271
19309SOL    HW164788   8.920   0.346   1.560  2.2090 -0.2514  0.8187
19309SOL    HW264789   9.019   0.251   1.496 -0.7978 -1.2572 -2.6352
19310SOL     OW64790   4.539   9.205   0.316  0.8115  0.3535  0.1328
19310SOL    HW164791   4.527   9.203   0.411 -0.8012 -0.4185 -0.0489
19310SOL    HW264792   4.485   9.278   0.286  0.3235 -0.1654 -0.2866
19311SOL     OW64793   7.319  10.294  10.187 -0.2458 -0.4512 -0.3847
19311SOL    HW164794   7.308  10.340  10.104 -0.5597  1.0989  0.4806
19311SOL    HW264795   7.391  10.340  10.230  0.0907 -1.4162  0.1013
19312SOL     OW64796   0.557   3.762   3.596 -0.4561 -0.3676 -0.2639
19312SOL    HW164797   0.545   3.834   3.534 -1.2385 -0.0371  0.2669
19312SOL    HW264798   0.580   3.804   3.678  0.0672 -0.7806 -0.1912
19313SOL     OW64799   3.177  10.501   3.746  0.0130  0.6612 -0.3493
19313SOL    HW164800   3.116  10.574   3.754 -0.9944 -0.0917 -0.9179
19313SOL    HW264801   3.205  10.503   3.654 -0.1107  0.2695 -0.3982
19314SOL     OW64802   9.076   0.211   1.159  0.1415 -0.9725 -0.3753
19314SOL    HW164803   9.075   0.246   1.070 -3.2469 -0.5185 -0.2820
19314SOL    HW264804   9.124   0.275   1.210 -2.3306  1.5679 -1.0043
19315SOL     OW64805  10.637   3.267   0.231  0.2124  0.6334  0.1537
19315SOL    HW164806  10.590   3.228   0.305 -2.0807  1.2557 -0.8896
19315SOL    HW264807  10.661   3.354   0.261 -0.2811  0.7063  0.3460
19316SOL     OW64808   7.488   4.461  12.416 -0.2873 -0.1543 -0.3774
19316SOL    HW164809   7.446   4.387  12.372 -0.6928 -0.0049 -0.2467
19316SOL    HW264810   7.482   4.533  12.353 -0.1982 -0.1411 -0.3710
19317SOL     OW64811   7.810   3.188   2.679 -0.1903 -0.0434  0.0405
19317SOL    HW164812   7.818   3.146   2.594 -2.5901 -1.9048  0.6184
19317SOL    HW264813   7.782   3.278   2.659  3.0404  0.8482 -1.1425
19318SOL     OW64814   7.668   3.967   1.383 -0.4167  0.0471 -1.1673
19318SOL    HW164815   7.672   4.042   1.324 -0.4187 -0.0364 -1.2738
19318SOL    HW264816   7.724   3.901   1.342  2.1710  1.0724  0.4501
19319SOL     OW64817   4.294   0.627   4.183 -0.0131  0.0344  0.3149
19319SOL    HW164818   4.372   0.675   4.210  0.1705  0.4509 -0.8865
19319SOL    HW264819   4.263   0.673   4.105 -1.8715  0.2933  1.1545
19320SOL     OW64820   5.277   7.220   6.248 -1.0446  0.4318 -0.2574
19320SOL    HW164821   5.284   7.288   6.314  0.9690  0.9790 -0.9545
19320SOL    HW264822   5.308   7.261   6.167  1.6002 -1.5827 -0.4297
19321SOL     OW64823  11.262  11.750   1.623  0.0930 -0.1383 -0.6332
19321SOL    HW164824  11.289  11.822   1.565 -0.6259 -0.3445 -1.2324
19321SOL    HW264825  11.168  11.762   1.634  0.4319  0.9152  1.9125
19322SOL     OW64826  10.423   5.700   6.364  0.6625 -0.2514  0.2886
19322SOL    HW164827  10.433   5.628   6.426 -0.0886  1.4172  2.4569
19322SOL    HW264828  10.345   5.678   6.314  0.4836 -0.9841  0.8740
19323SOL     OW64829   8.769  10.104   2.302 -0.1294 -0.3482 -0.0656
19323SOL    HW164830   8.707  10.072   2.237  1.5474 -1.1287 -1.3636
19323SOL    HW264831   8.854  10.098   2.259  0.8324  1.0143  1.5163
19324SOL     OW64832  12.034   9.025   0.646 -0.1425  0.0146 -0.5450
19324SOL    HW164833  12.018   8.987   0.560  0.3989  1.1473 -1.1639
19324SOL    HW264834  12.125   9.055   0.643  1.0426 -2.9125  1.5868
19325SOL     OW64835   8.254   3.075   0.071  0.5071  0.1465  0.2832
19325SOL    HW164836   8.283   2.989   0.102  1.8481  0.6807  0.5836
19325SOL    HW264837   8.329   3.132   0.085 -0.2008  1.2741 -0.3507
19326SOL     OW64838  11.331   1.097   9.397 -0.4088 -0.2235  0.2189
19326SOL    HW164839  11.285   1.014   9.405 -0.3575 -0.4003 -1.0946
19326SOL    HW264840  11.356   1.120   9.486  0.8733 -2.3621  0.4798
19327SOL     OW64841   9.773  12.428   7.082 -0.2030  0.9666  0.6540
19327SOL    HW164842   9.686  12.463   7.103 -1.2766 -1.0002 -0.2175
19327SOL    HW264843   9.831  12.467   7.148 -2.2506  0.1168  3.1481
19328SOL     OW64844   6.619   2.662  12.276  0.5141 -0.0121 -0.2472
19328SOL    HW164845   6.556   2.691  12.341  1.6539 -0.7527  1.2646
19328SOL    HW264846   6.704   2.673  12.319  1.3046 -0.4346 -1.6512
19329SOL     OW64847  12.217   5.525   5.684  0.1981 -0.2780  0.5931
19329SOL    HW164848  12.268   5.470   5.743  0.6567 -0.4842  0.0145
19329SOL    HW264849  12.152   5.566   5.740  1.0786  0.0890  1.3651
19330SOL     OW64850   3.275   5.537   9.454  0.1710 -0.2198 -0.2751
19330SOL    HW164851   3.341   5.548   9.523 -0.7266  0.0076  0.5663
19330SOL    HW264852   3.194   5.521   9.501 -0.5712  0.5344 -1.2672
19331SOL     OW64853  10.610   5.216   7.167  0.6456  0.1649  0.1056
19331SOL    HW164854  10.607   5.128   7.206  0.2718 -0.5536 -1.4592
19331SOL    HW264855  10.697   5.248   7.187  1.2956 -1.1582 -0.4958
19332SOL     OW64856   5.864   8.325  10.180  0.8718 -0.0434 -0.6778
19332SOL    HW164857   5.774   8.310  10.150  0.8952 -0.1587 -0.6912
19332SOL    HW264858   5.856   8.394  10.246  0.5189 -1.3605  0.7171
19333SOL     OW64859   8.726   0.944  11.195 -0.0229  0.1047 -0.4887
19333SOL    HW164860   8.659   0.877  11.183  0.5951 -0.8055  0.9608
19333SOL    HW264861   8.720   0.969  11.287  1.1583  0.5221 -0.5064
19334SOL     OW64862   3.512  11.319   2.399  0.5522  0.3702  0.3650
19334SOL    HW164863   3.528  11.225   2.413  0.8575  0.3642 -0.0156
19334SOL    HW264864   3.452  11.343   2.470  2.2060  0.3873  1.8367
19335SOL     OW64865   1.576   8.410  11.982  0.1183 -0.3406  0.4251
19335SOL    HW164866   1.566   8.344  11.913 -1.4593  0.1053  0.1904
19335SOL    HW264867   1.650   8.379  12.034  0.3365 -1.5167 -0.5454
19336SOL     OW64868   8.529   5.315   0.995  0.1648 -0.1078  0.5166
19336SOL    HW164869   8.501   5.255   0.926  2.3706  0.5593 -1.0459
19336SOL    HW264870   8.466   5.386   0.993  0.4698  0.1412 -1.1850
19337SOL     OW64871   1.516   2.071  10.606  0.1052  0.0084 -0.3004
19337SOL    HW164872   1.573   2.148  10.602 -1.4710  1.3099  0.9681
19337SOL    HW264873   1.463   2.076  10.527 -0.9189  1.0508  0.4064
19338SOL     OW64874   6.784   3.762   4.096 -0.3430  0.2389 -0.7252
19338SOL    HW164875   6.868   3.808   4.089  0.2157 -0.6602 -0.1837
19338SOL    HW264876   6.724   3.826   4.134  0.6732  0.2187  0.9816
19339SOL     OW64877   4.720   6.614   9.985 -0.5616 -0.1221 -0.8397
19339SOL    HW164878   4.648   6.561  10.021 -0.0378 -0.2717  0.0122
19339SOL    HW264879   4.769   6.552   9.930  0.3094 -0.6767  0.5065
19340SOL     OW64880   4.232   1.240   5.625 -0.2494  0.1139  0.8791
19340SOL    HW164881   4.312   1.207   5.584  0.8072  1.7406  1.5238
19340SOL    HW264882   4.163   1.219   5.563  1.0535  0.9736 -0.9820
19341SOL     OW64883   5.620   4.304   6.254  0.3399  0.2831  0.3638
19341SOL    HW164884   5.538   4.256   6.242 -0.4251  1.5906  0.0352
19341SOL    HW264885   5.644   4.290   6.346 -1.1585  1.1684  0.9366
19342SOL     OW64886   1.507   6.192  11.875  0.1785  0.1746 -0.1884
19342SOL    HW164887   1.467   6.266  11.919 -2.7929 -2.2761  1.6322
19342SOL    HW264888   1.542   6.138  11.945 -1.0971 -1.9111 -1.0617
19343SOL     OW64889   0.258   0.426   2.599  0.3196  0.0805  0.0402
19343SOL    HW164890   0.172   0.386   2.608  1.1809 -2.0549 -0.5909
19343SOL    HW264891   0.305   0.399   2.678  0.8027  0.1853 -0.2101
19344SOL     OW64892   9.445   8.740   4.350 -0.0859  0.1880  0.6954
19344SOL    HW164893   9.380   8.778   4.291 -0.1457  1.1660  1.3703
19344SOL    HW264894   9.453   8.804   4.421  1.2587 -0.1306  0.8620
19345SOL     OW64895   7.480   2.862  10.941  0.2763  0.4139 -0.3754
19345SOL    HW164896   7.433   2.925  10.887  2.3862  1.3986 -1.1694
19345SOL    HW264897   7.509   2.794  10.880  1.7562  0.9758 -0.3286
19346SOL     OW64898   5.887   2.723   7.545 -0.2029  0.0585  0.1306
19346SOL    HW164899   5.832   2.717   7.466 -1.1323  0.2890  0.7435
19346SOL    HW264900   5.903   2.817   7.555 -0.9362  0.1282  0.7696
19347SOL     OW64901   5.633   1.002   3.156 -0.0327  0.0866 -0.0642
19347SOL    HW164902   5.621   1.083   3.106  0.4988  0.6404  0.6769
19347SOL    HW264903   5.703   0.956   3.111  0.6951  0.7529  0.3573
19348SOL     OW64904  11.531   2.710   1.834  0.2814 -0.3124 -0.1506
19348SOL    HW164905  11.508   2.692   1.925  1.9395  1.4851  0.7108
19348SOL    HW264906  11.447   2.720   1.790 -0.5652 -0.9471  1.2507
19349SOL     OW64907   2.595   8.630   4.320  0.0814  0.0991 -0.0044
19349SOL    HW164908   2.506   8.646   4.353 -0.4435 -2.6803  0.1857
19349SOL    HW264909   2.633   8.568   4.382  1.3369 -0.5076 -1.3217
19350SOL     OW64910   3.344   2.776   5.114  0.3294 -0.1089  1.2327
19350SOL    HW164911   3.430   2.769   5.155  0.7275  1.8160  0.8473
19350SOL    HW264912   3.324   2.870   5.117  0.6516  0.3484 -3.4137
19351SOL     OW64913   9.475   5.066   1.280 -0.0410  0.5137 -0.2644
19351SOL    HW164914   9.566   5.045   1.299 -0.1747  0.8663  0.8499
19351SOL    HW264915   9.451   5.006   1.209  0.6819 -0.4771  0.2982
19352SOL     OW64916   4.986   8.633   1.169  0.5096 -0.6551  0.4410
19352SOL    HW164917   5.080   8.613   1.175  1.0599  1.5937  0.4104
19352SOL    HW264918   4.968   8.685   1.247 -0.5848 -0.5529  0.1315
19353SOL     OW64919   0.715   6.196   0.130 -0.1940  0.4928 -0.1274
19353SOL    HW164920   0.646   6.151   0.081 -1.9904  0.2083  2.4376
19353SOL    HW264921   0.787   6.134   0.131 -1.7426 -1.4285  1.2533
19354SOL     OW64922  10.826   4.738   2.001  0.0750 -0.6586  0.0379
19354SOL    HW164923  10.889   4.778   2.061 -0.1097 -0.5362  0.1490
19354SOL    HW264924  10.782   4.812   1.960  0.0981 -0.7436 -0.1411
19355SOL     OW64925   9.986   3.388   5.714 -0.1851 -0.1923  0.4732
19355SOL    HW164926   9.997   3.407   5.620 -0.9275 -1.5457  0.0862
19355SOL    HW264927  10.031   3.305   5.726 -0.8767 -0.4755  1.1263
19356SOL     OW64928   6.429  11.899   3.219  1.3706 -0.0765  0.4091
19356SOL    HW164929   6.466  11.957   3.285  0.1527  0.3738  0.7341
19356SOL    HW264930   6.500  11.838   3.197  1.9185  0.0075  1.8510
19357SOL     OW64931   7.902   7.969   2.132  0.1152  0.0053 -0.4228
19357SOL    HW164932   7.880   8.054   2.171  0.9487 -0.1209  0.3427
19357SOL    HW264933   7.926   7.991   2.042 -0.0426  0.5374 -0.3439
19358SOL     OW64934  10.583   6.623   2.710  0.6085  0.6562  0.0060
19358SOL    HW164935  10.549   6.564   2.643 -0.7379  0.2897  0.9693
19358SOL    HW264936  10.519   6.694   2.715  0.7130  0.7040  0.8461
19359SOL     OW64937   4.550   1.104   2.466  0.7846  0.6243 -0.0339
19359SOL    HW164938   4.472   1.128   2.516 -1.1503 -0.1110 -2.5002
19359SOL    HW264939   4.612   1.174   2.484 -1.1743  2.3555  0.4429
19360SOL     OW64940   4.134   3.625   4.631  0.1216  0.4791  0.4747
19360SOL    HW164941   4.156   3.665   4.547  0.5209  1.0029  0.8178
19360SOL    HW264942   4.067   3.682   4.669 -1.0472 -0.4983 -0.0700
19361SOL     OW64943  10.099   4.389   5.896 -0.2688  0.5004  0.3319
19361SOL    HW164944  10.121   4.459   5.835 -1.1464 -0.3147 -0.9664
19361SOL    HW264945  10.028   4.341   5.853  1.9407 -2.7288 -0.0419
19362SOL     OW64946   9.312  11.837   7.828 -0.2040  0.3038  0.2033
19362SOL    HW164947   9.270  11.775   7.888  0.4406  0.8538  1.2662
19362SOL    HW264948   9.262  11.918   7.837 -0.6744  0.1290 -0.7245
19363SOL     OW64949   0.436   3.795   7.491  0.5815 -0.1042  0.1873
19363SOL    HW164950   0.415   3.704   7.468 -0.2658  0.3124 -0.7921
19363SOL    HW264951   0.394   3.847   7.422  1.9970  0.9810  0.0845
19364SOL     OW64952   2.291   5.737   8.880  0.5519  0.2416 -0.2795
19364SOL    HW164953   2.308   5.677   8.807  0.7029  1.5244 -1.3248
19364SOL    HW264954   2.369   5.731   8.935 -0.1425 -1.7932  0.5716
19365SOL     OW64955   6.972   6.673   9.790  0.7025 -0.1297 -0.2110
19365SOL    HW164956   6.979   6.697   9.698 -0.4219  0.0720 -0.2592
19365SOL    HW264957   6.934   6.585   9.790  0.2654  0.0525  0.0562
19366SOL     OW64958   9.894   6.807   3.875  0.0996 -0.7371  0.5034
19366SOL    HW164959   9.919   6.868   3.944  0.1373  0.5941 -0.6512
19366SOL    HW264960   9.919   6.721   3.909  1.7280  0.0538  1.4106
19367SOL     OW64961   9.820   9.350   7.008 -0.1176  0.1956 -0.3848
19367SOL    HW164962   9.822   9.399   7.090  2.2332  0.0555 -0.2767
19367SOL    HW264963   9.887   9.283   7.018 -1.6312 -1.5743 -1.4411
19368SOL     OW64964   2.004   8.292   1.574  0.4591 -0.2916  0.2785
19368SOL    HW164965   1.994   8.218   1.634  1.6249 -0.4690  0.2764
19368SOL    HW264966   2.005   8.252   1.487  0.8831 -0.2631  0.2666
19369SOL     OW64967   6.934   0.550   1.744  0.3391 -0.1383  0.3442
19369SOL    HW164968   6.927   0.645   1.752  0.7349 -0.0326 -0.4661
19369SOL    HW264969   6.979   0.522   1.824  1.0085  0.4507  0.1806
19370SOL     OW64970  11.072  11.257   6.064  0.1678  0.0567 -0.0538
19370SOL    HW164971  11.087  11.223   5.976 -1.1713  0.6144 -0.5219
19370SOL    HW264972  11.066  11.352   6.051  2.1496  0.3806  0.9803
19371SOL     OW64973   1.767   9.552   7.273 -0.4657  0.0377  0.0042
19371SOL    HW164974   1.830   9.528   7.340 -1.8322 -0.8720  1.0155
19371SOL    HW264975   1.754   9.646   7.286 -0.2143 -0.0018  0.5699
19372SOL     OW64976  10.635   9.613   2.440 -0.0325 -0.8628 -0.4163
19372SOL    HW164977  10.647   9.528   2.482 -0.2637 -1.0054 -0.6330
19372SOL    HW264978  10.540   9.621   2.429  0.0763 -1.7264 -2.7162
19373SOL     OW64979   5.350   5.087  12.185 -0.0040 -0.2222  0.1731
19373SOL    HW164980   5.346   5.162  12.243 -1.7824 -0.8500  0.9395
19373SOL    HW264981   5.286   5.025  12.221  0.0385 -1.3151 -1.4940
19374SOL     OW64982   4.572   1.571   4.202 -0.3390 -0.0349  0.6593
19374SOL    HW164983   4.658   1.600   4.173 -0.9247  0.9672 -0.1865
19374SOL    HW264984   4.554   1.493   4.150  0.2175 -0.4723  1.1224
19375SOL     OW64985   1.871   6.845   7.343  0.2160 -0.1361 -0.1652
19375SOL    HW164986   1.864   6.931   7.302  0.3920 -0.0286  0.0253
19375SOL    HW264987   1.798   6.843   7.406  0.9702  0.3931  0.7557
19376SOL     OW64988   6.848   5.464   3.829 -0.1981  0.5629 -0.1170
19376SOL    HW164989   6.932   5.465   3.783 -0.1117  0.6579  0.0409
19376SOL    HW264990   6.853   5.538   3.890  0.0549 -0.0985  0.6912
19377SOL     OW64991   8.734   4.490   3.210 -0.2234 -0.1376 -0.0701
19377SOL    HW164992   8.769   4.491   3.120  1.7670  1.7519  0.6297
19377SOL    HW264993   8.671   4.562   3.211  0.0264  0.0776  0.1400
19378SOL     OW64994   3.612   7.017   5.826 -0.2364  0.2108  0.0829
19378SOL    HW164995   3.643   6.939   5.780  0.0481  0.3508  0.0377
19378SOL    HW264996   3.691   7.066   5.847 -0.5054  1.4186 -1.5281
19379SOL     OW64997   7.110  10.984  11.899 -0.2872 -0.0960 -0.0104
19379SOL    HW164998   7.187  10.961  11.846  0.8265  0.0057  1.4752
19379SOL    HW264999   7.090  10.903  11.946 -0.5688  0.1154  0.2271
19380SOL     OW65000   7.696   8.389   6.511 -0.3238  0.8519 -0.0283
19380SOL    HW165001   7.695   8.420   6.421 -0.3105 -0.0170 -0.3361
19380SOL    HW265002   7.609   8.351   6.524 -0.3298  0.9836  0.3350
19381SOL     OW65003   5.533   6.341   8.552 -0.0918  0.5015 -0.2963
19381SOL    HW165004   5.492   6.398   8.618 -2.2823  2.1905 -2.8711
19381SOL    HW265005   5.612   6.389   8.526 -0.1134  0.6614 -0.0803
19382SOL     OW65006   7.208   7.616   0.460 -0.3279  0.4055 -0.2066
19382SOL    HW165007   7.151   7.540   0.473  0.4571  0.0763  1.5782
19382SOL    HW265008   7.187   7.647   0.372 -1.3463 -1.3014 -0.6061
19383SOL     OW65009   3.173   3.044  11.520 -0.3811  0.1513  0.0954
19383SOL    HW165010   3.227   3.060  11.598 -1.7794  1.1070  0.9022
19383SOL    HW265011   3.185   2.951  11.501  0.6685  0.1038  0.9146
19384SOL     OW65012   9.558  11.535   0.989  0.2676  0.3401 -0.0274
19384SOL    HW165013   9.564  11.592   1.066 -2.8372  1.4284 -0.4316
19384SOL    HW265014   9.575  11.592   0.915 -0.7312  0.2621 -0.3273
19385SOL     OW65015   7.471   8.680   9.122 -0.0269  0.5190 -0.4758
19385SOL    HW165016   7.520   8.673   9.041  2.0392 -0.3835  0.7615
19385SOL    HW265017   7.401   8.615   9.115  0.8219 -0.3367 -1.0802
19386SOL     OW65018   5.117  10.816  10.133  0.1971 -0.3270  0.0652
19386SOL    HW165019   5.184  10.749  10.146 -1.0839 -1.9795 -1.3720
19386SOL    HW265020   5.108  10.859  10.218  1.1317 -1.9080  0.9993
19387SOL     OW65021   9.576   1.160   8.161 -0.0249  0.3484  0.2498
19387SOL    HW165022   9.625   1.187   8.083 -0.8855  0.4737 -0.2493
19387SOL    HW265023   9.576   1.064   8.157 -2.3947  0.3393 -1.4124
19388SOL     OW65024   6.183   9.855   4.915 -0.1098  0.0544  0.1021
19388SOL    HW165025   6.094   9.887   4.930  0.2390  0.0056  2.7984
19388SOL    HW265026   6.189   9.775   4.968  0.0823 -2.8442 -3.8508
19389SOL     OW65027   7.732  12.125   5.028  0.0870  0.3184 -0.4399
19389SOL    HW165028   7.810  12.176   5.046 -0.3926  0.3076  2.0301
19389SOL    HW265029   7.762  12.034   5.027  0.6321  0.4706 -3.0035
19390SOL     OW65030   3.885   0.195  10.331  0.2150 -0.0037 -0.4765
19390SOL    HW165031   3.900   0.249  10.253  0.0697  0.8788  0.0845
19390SOL    HW265032   3.870   0.259  10.401 -0.5239 -0.7912  0.1006
19391SOL     OW65033   0.417   6.133   3.399 -0.4950  0.8155  0.0918
19391SOL    HW165034   0.393   6.225   3.403 -0.0911  0.8867  2.6133
19391SOL    HW265035   0.380   6.094   3.478 -1.2505 -1.3900 -1.2255
19392SOL     OW65036   0.001   0.202  10.819 -0.1000 -0.2881  0.4110
19392SOL    HW165037  -0.057   0.202  10.895 -0.9566  2.5584 -0.1225
19392SOL    HW265038  -0.054   0.174  10.746 -0.7329  1.8175  0.0163
19393SOL     OW65039   2.227   4.160   4.546  0.4088  0.1349 -0.3999
19393SOL    HW165040   2.244   4.189   4.635  0.2371  1.5925 -0.8263
19393SOL    HW265041   2.148   4.208   4.519 -0.5618 -1.5675 -0.7530
19394SOL     OW65042  11.527   9.770  10.664  0.1035  0.0178 -0.0788
19394SOL    HW165043  11.604   9.824  10.682 -0.4933  1.0974 -0.6480
19394SOL    HW265044  11.479   9.818  10.597 -0.7273 -0.9793 -0.2319
19395SOL     OW65045   5.710   8.311  11.179  0.0551  0.2118  0.0645
19395SOL    HW165046   5.678   8.236  11.128 -0.4730  1.1179 -0.9636
19395SOL    HW265047   5.794   8.333  11.139 -0.7028  1.3916 -0.9383
19396SOL     OW65048   2.912   3.182   9.730  0.6289  0.0146 -0.1277
19396SOL    HW165049   2.879   3.240   9.799 -0.3105 -0.2288 -0.3684
19396SOL    HW265050   2.849   3.111   9.726  2.5959 -1.9454  1.2749
19397SOL     OW65051  12.161  10.080   2.479 -0.0201 -0.0415  0.3389
19397SOL    HW165052  12.130  10.170   2.487 -0.5110 -0.2947  1.7651
19397SOL    HW265053  12.248  10.081   2.518 -0.5047 -0.3874  1.4803
19398SOL     OW65054   3.480   3.153   4.140  0.2548  0.4921  0.0306
19398SOL    HW165055   3.513   3.238   4.112 -0.2396  1.0623  1.0841
19398SOL    HW265056   3.387   3.168   4.157  0.4362  0.0893  1.5071
19399SOL     OW65057   7.951   3.805   3.255 -0.0193  0.0102  0.2771
19399SOL    HW165058   7.930   3.729   3.202  1.1032  0.5553 -1.0090
19399SOL    HW265059   8.026   3.777   3.309 -0.0963 -0.0299  0.3629
19400SOL     OW65060   2.931   4.361  11.285  0.6668  0.1449  0.0193
19400SOL    HW165061   2.918   4.383  11.193 -1.4632  0.1099  0.2811
19400SOL    HW265062   2.974   4.276  11.283  0.2246 -0.0695 -0.9393
19401SOL     OW65063  12.096   8.181   6.673  0.5684 -0.0031 -0.3743
19401SOL    HW165064  12.173   8.227   6.639  0.3345 -0.5808 -1.7659
19401SOL    HW265065  12.126   8.092   6.690  0.6147  0.2128  0.7145
19402SOL     OW65066   5.446  11.822   7.190 -0.3653 -0.3917 -0.1498
19402SOL    HW165067   5.527  11.873   7.194 -0.6352  0.1549 -1.3220
19402SOL    HW265068   5.377  11.888   7.200 -0.6981 -0.6470 -0.7436
19403SOL     OW65069  12.340  10.564  10.171 -0.0868  0.5817 -0.1813
19403SOL    HW165070  12.395  10.611  10.108  0.3137  0.1947 -0.1198
19403SOL    HW265071  12.281  10.511  10.117 -0.1149  0.6718 -0.2404
19404SOL     OW65072   2.247   9.109   5.419  0.0438 -0.2932 -0.9315
19404SOL    HW165073   2.177   9.059   5.459  0.6488 -1.3693 -1.1767
19404SOL    HW265074   2.222   9.117   5.327 -1.3714  2.2248 -0.4232
19405SOL     OW65075  10.759   6.900   8.428 -0.1925  0.2103 -0.3439
19405SOL    HW165076  10.684   6.842   8.414  0.4446 -1.1212  1.3349
19405SOL    HW265077  10.834   6.850   8.397  0.3612  0.1344  1.0487
19406SOL     OW65078   2.723   3.985   8.837 -0.0378 -0.5284 -0.0800
19406SOL    HW165079   2.755   3.911   8.889  0.8142 -0.7780 -0.9228
19406SOL    HW265080   2.664   4.032   8.896  1.1273 -0.6144  1.2169
19407SOL     OW65081   2.271   5.559   3.920  0.2407  0.4906 -0.5601
19407SOL    HW165082   2.258   5.566   3.826  1.3903 -0.2613 -0.7904
19407SOL    HW265083   2.344   5.497   3.930  0.6977  1.1987  0.7768
19408SOL     OW65084   4.307   5.924   6.824  0.2928  0.2681 -0.3736
19408SOL    HW165085   4.250   5.969   6.761 -0.3098 -1.0769 -0.8259
19408SOL    HW265086   4.368   5.875   6.770 -0.6468 -1.4309  0.0391
19409SOL     OW65087   2.139   8.485   3.947 -0.3760  0.3436  0.1044
19409SOL    HW165088   2.054   8.528   3.936 -0.2738  0.1132 -2.0246
19409SOL    HW265089   2.128   8.399   3.907 -0.0753 -1.0672  2.8055
19410SOL     OW65090  12.005  10.758   7.748 -0.6001  0.0628  0.1109
19410SOL    HW165091  11.987  10.712   7.830 -0.2750 -0.9157 -0.3576
19410SOL    HW265092  12.085  10.807   7.765 -0.1622 -0.6641  0.1766
19411SOL     OW65093   6.374   0.595   0.469 -0.7884 -0.2004  1.2338
19411SOL    HW165094   6.360   0.688   0.490  0.2364  0.2301  0.1801
19411SOL    HW265095   6.318   0.579   0.393  0.6005  0.1659  0.0951
19412SOL     OW65096   9.829   7.367   6.668 -0.3466 -0.0155 -0.1080
19412SOL    HW165097   9.756   7.407   6.716  1.2533  0.5264  2.0402
19412SOL    HW265098   9.882   7.441   6.638  0.8016 -0.4034  0.8714
19413SOL     OW65099   4.600   2.657   0.848  0.0002  0.1761  0.4270
19413SOL    HW165100   4.647   2.709   0.913 -1.3285 -0.8047  2.2756
19413SOL    HW265101   4.531   2.715   0.816  1.1184  0.9158 -0.7369
19414SOL     OW65102   8.498   1.375   4.683 -0.1282 -0.0174 -0.1696
19414SOL    HW165103   8.583   1.336   4.703  0.4060  0.9661 -0.4838
19414SOL    HW265104   8.442   1.349   4.756 -0.1666 -2.4444 -0.9763
19415SOL     OW65105   4.687   7.277  11.088 -0.0428  0.6016  0.0760
19415SOL    HW165106   4.707   7.310  11.000  0.9300  0.4210  0.2225
19415SOL    HW265107   4.664   7.356  11.138 -0.6882  0.6944 -0.3545
19416SOL     OW65108   5.371   3.580   9.152  0.1405 -0.0731  0.7106
19416SOL    HW165109   5.299   3.547   9.206 -1.3462 -2.2126 -2.3133
19416SOL    HW265110   5.436   3.510   9.154  0.5070  0.2593  0.4904
19417SOL     OW65111   7.912   1.636  11.247  0.4576  0.3935 -0.4751
19417SOL    HW165112   7.817   1.633  11.252  0.4705 -0.3764 -0.5234
19417SOL    HW265113   7.940   1.644  11.339  0.3699 -0.3965 -0.3762
19418SOL     OW65114   8.343   4.023  12.180  0.1099 -0.6723 -0.0787
19418SOL    HW165115   8.403   4.068  12.121 -0.7244  0.4640 -0.0895
19418SOL    HW265116   8.333   3.936  12.141  1.7463 -0.9011 -0.0599
19419SOL     OW65117  10.719   7.474   6.950  0.1162  0.1691  0.1771
19419SOL    HW165118  10.733   7.528   7.027 -0.3473  1.0992 -0.3792
19419SOL    HW265119  10.795   7.415   6.948  0.6023  0.7613  0.8111
19420SOL     OW65120   8.960   4.078   3.576 -0.2264 -0.2637 -0.0242
19420SOL    HW165121   8.990   4.168   3.562 -1.9900  0.4068  0.2404
19420SOL    HW265122   9.009   4.047   3.652  2.3821 -0.5342 -1.6786
19421SOL     OW65123  10.419   5.191   3.960 -0.1550  0.3234  0.2081
19421SOL    HW165124  10.363   5.242   4.018  0.2268 -0.0471  0.9165
19421SOL    HW265125  10.416   5.237   3.876 -1.2889  0.4638  0.3089
19422SOL     OW65126   0.702   6.393   5.995  0.3311  0.0298  0.2609
19422SOL    HW165127   0.624   6.355   6.036  0.7435 -0.6455  0.4463
19422SOL    HW265128   0.668   6.457   5.933 -0.5036 -1.7823 -1.2733
19423SOL     OW65129   8.112  10.390   1.449  0.5872 -0.5309 -0.2181
19423SOL    HW165130   8.080  10.338   1.376 -0.5528  0.4336 -0.4446
19423SOL    HW265131   8.049  10.463   1.456  1.5473  0.2465  0.7186
19424SOL     OW65132   5.033   9.952   0.292 -0.0095 -0.2258  0.0824
19424SOL    HW165133   5.014  10.017   0.224 -1.3359 -0.4918  0.1810
19424SOL    HW265134   5.064  10.004   0.366 -0.3234  0.2354 -0.1000
19425SOL     OW65135   4.381   7.483   9.166  0.8736 -0.4343  0.4468
19425SOL    HW165136   4.333   7.418   9.218  0.2018 -0.5900 -0.3483
19425SOL    HW265137   4.470   7.449   9.161  0.6461 -1.0408  0.4532
19426SOL     OW65138   9.614   5.896  12.110 -0.1024 -0.3421  0.1252
19426SOL    HW165139   9.704   5.892  12.079 -0.2823 -0.4955 -0.3815
19426SOL    HW265140   9.621   5.884  12.205  0.5188  0.9585  0.2659
19427SOL     OW65141   5.993   0.548   4.983  0.0961 -0.2980 -0.5239
19427SOL    HW165142   6.076   0.523   4.941  1.3318  0.1248  1.5268
19427SOL    HW265143   5.980   0.482   5.051  0.2209  1.1291  0.9574
19428SOL     OW65144   1.727  10.859  12.309  0.4761  0.2925  0.0447
19428SOL    HW165145   1.658  10.835  12.370  1.2434  0.7425  1.1192
19428SOL    HW265146   1.698  10.942  12.271 -0.4846 -0.4955 -0.9943
19429SOL     OW65147   2.075   6.287   0.536 -0.0617  0.5014  0.3598
19429SOL    HW165148   2.130   6.222   0.582  0.3823  0.2667 -0.4824
19429SOL    HW265149   1.997   6.238   0.511 -0.9435  0.9752  2.0547
19430SOL     OW65150   2.433   7.689   2.559  0.4201 -0.4584  0.3393
19430SOL    HW165151   2.340   7.690   2.539  0.0287  1.4137  2.0375
19430SOL    HW265152   2.445   7.614   2.618 -0.2152 -0.0654  0.9720
19431SOL     OW65153  10.598   4.877  11.655  0.1162  0.2103  0.1353
19431SOL    HW165154  10.674   4.926  11.624  0.8862  0.4839  2.2786
19431SOL    HW265155  10.624   4.785  11.650 -0.0710  0.2001 -0.7416
19432SOL     OW65156   9.085   1.487   7.392  0.1251  0.4336  0.3120
19432SOL    HW165157   9.104   1.510   7.483 -0.8716  2.0646  0.1506
19432SOL    HW265158   9.059   1.570   7.352 -0.8581 -0.5288 -1.0981
19433SOL     OW65159   1.643   0.712   0.563  0.3039  0.5376 -0.0419
19433SOL    HW165160   1.658   0.652   0.637  1.2664  0.1749 -0.5100
19433SOL    HW265161   1.613   0.793   0.604 -0.6881 -0.1487  0.6246
19434SOL     OW65162  10.056   7.496   1.250  0.1288 -0.1723 -0.0492
19434SOL    HW165163  10.010   7.413   1.241 -0.9776  0.2081  1.5436
19434SOL    HW265164   9.997   7.560   1.209  0.7576 -0.0914 -0.8543
19435SOL     OW65165   9.777  10.170   0.340  0.0944  0.0851  0.0358
19435SOL    HW165166   9.751  10.176   0.248 -0.3156  0.5880  0.1779
19435SOL    HW265167   9.822  10.253   0.357  0.9874 -0.3941  0.0408
19436SOL     OW65168  11.743  11.965   6.501  0.2231  0.6546  0.7366
19436SOL    HW165169  11.828  11.934   6.471  0.3056  0.2373  1.3706
19436SOL    HW265170  11.680  11.929   6.439  0.1774 -1.9658  2.1697
19437SOL     OW65171  11.120   0.598   9.907  0.2454  0.5858 -0.1126
19437SOL    HW165172  11.068   0.673   9.875 -0.4802  0.0246 -0.2774
19437SOL    HW265173  11.059   0.548   9.961 -0.0583 -1.2371 -2.0128
19438SOL     OW65174   2.309  11.631   2.127 -0.3454  0.4134  0.0075
19438SOL    HW165175   2.320  11.537   2.114 -0.3218  0.2704  1.0456
19438SOL    HW265176   2.244  11.656   2.060 -0.3498 -0.3294 -0.2793
19439SOL     OW65177   2.126  10.714   8.738 -0.6581 -0.2028  0.0664
19439SOL    HW165178   2.135  10.657   8.815 -1.1697 -0.5416 -0.1115
19439SOL    HW265179   2.034  10.703   8.711 -0.8828  1.0221  0.2658
19440SOL     OW65180   7.355   8.321   9.435  0.3569  0.0368  0.3169
19440SOL    HW165181   7.338   8.255   9.368  0.6731 -0.7947  1.0388
19440SOL    HW265182   7.437   8.362   9.409 -1.2035  2.1652 -1.6843
19441SOL     OW65183   0.126   2.841   5.794  0.7390 -0.3733  0.9270
19441SOL    HW165184   0.188   2.848   5.720 -1.3350 -1.7625 -1.0753
19441SOL    HW265185   0.090   2.929   5.803  1.2244 -0.1202  0.4954
19442SOL     OW65186   0.364  10.356  10.121  0.0912  0.1483  0.0137
19442SOL    HW165187   0.326  10.278  10.161 -2.6418  1.7385  0.8060
19442SOL    HW265188   0.438  10.379  10.178 -0.6701 -0.4226  1.2774
19443SOL     OW65189   5.139  10.664   2.296  0.2030  0.1709 -0.1974
19443SOL    HW165190   5.058  10.636   2.252 -1.4584  2.1170  1.4172
19443SOL    HW265191   5.150  10.755   2.268  0.3814  0.7150  1.5462
19444SOL     OW65192   3.296   7.571   0.256 -0.5855  0.1516  0.2229
19444SOL    HW165193   3.352   7.642   0.225 -0.0713 -0.5636 -0.5246
19444SOL    HW265194   3.228   7.615   0.308  0.6197  1.0436  1.1024
19445SOL     OW65195   1.105  10.299   0.667  0.7208  0.2090 -0.1010
19445SOL    HW165196   1.047  10.227   0.642 -2.2501  2.1268  0.7412
19445SOL    HW265197   1.138  10.274   0.753 -0.1668 -0.2360  0.1255
19446SOL     OW65198   6.642  10.225   0.442  0.0728 -0.2336 -0.4077
19446SOL    HW165199   6.572  10.264   0.389  1.0287  0.3792 -1.2478
19446SOL    HW265200   6.604  10.145   0.477 -0.9329 -0.0919 -1.1398
19447SOL     OW65201   7.507   4.350   9.731 -0.3608 -0.5931  0.3740
19447SOL    HW165202   7.517   4.336   9.825  0.2094  3.4108  1.1031
19447SOL    HW265203   7.597   4.350   9.697 -0.1721  1.8866  0.6758
19448SOL     OW65204  10.699  11.334   8.856 -0.0628  0.8160  0.3090
19448SOL    HW165205  10.744  11.288   8.928 -0.8699  0.5066  0.6327
19448SOL    HW265206  10.737  11.422   8.856  0.6241  0.5297  0.4904
19449SOL     OW65207   7.623   5.074   2.958 -0.2471 -0.6277 -0.2256
19449SOL    HW165208   7.657   4.984   2.954 -0.6525 -0.7401 -1.3699
19449SOL    HW265209   7.535   5.065   2.994 -0.4444 -0.7351 -0.7337
19450SOL     OW65210   8.950  12.465   7.954  0.0383 -0.0144 -0.1934
19450SOL    HW165211   9.030  12.505   7.922  0.6241 -0.9298  0.0851
19450SOL    HW265212   8.886  12.536   7.955  0.1087  0.1864 -2.8975
19451SOL     OW65213   6.567   7.490   2.368 -0.2907  0.0970  0.4273
19451SOL    HW165214   6.636   7.464   2.307  0.5934  1.1451  0.9426
19451SOL    HW265215   6.610   7.548   2.431 -1.5240  0.3438  1.0971
19452SOL     OW65216  11.780   3.178  10.135 -0.2025  0.1596 -0.2881
19452SOL    HW165217  11.740   3.092  10.121  1.9799 -0.4675 -4.1968
19452SOL    HW265218  11.720   3.240  10.094 -0.7711  0.2368  0.6522
19453SOL     OW65219   7.215   4.143  12.022 -0.0965 -0.4136 -0.2106
19453SOL    HW165220   7.178   4.231  12.028 -0.7052 -0.6222 -0.7596
19453SOL    HW265221   7.179   4.096  12.098  1.0500  0.0934  0.6669
19454SOL     OW65222   5.152  12.313   9.755 -0.0332  0.1572  0.1326
19454SOL    HW165223   5.077  12.351   9.799 -1.8316 -1.5718 -1.2790
19454SOL    HW265224   5.141  12.218   9.765  1.1544 -0.1769 -1.3519
19455SOL     OW65225   5.054   0.843   5.266  0.0045  0.0694  0.1053
19455SOL    HW165226   4.974   0.792   5.275 -0.5947  0.9014 -0.3568
19455SOL    HW265227   5.121   0.792   5.313 -0.5721 -1.1097 -0.3132
19456SOL     OW65228   3.799   8.804   3.675 -0.2583 -0.0319  0.0666
19456SOL    HW165229   3.874   8.835   3.625 -0.1099 -1.3129 -0.5673
19456SOL    HW265230   3.793   8.862   3.750  0.4726  0.9765 -0.6395
19457SOL     OW65231   7.400  10.871   5.199 -0.5265  0.4218 -0.0838
19457SOL    HW165232   7.411  10.957   5.159 -3.8491  1.3432  0.6133
19457SOL    HW265233   7.424  10.809   5.129 -1.4792  1.9622 -1.8840
19458SOL     OW65234   8.927   3.900   8.017 -0.6268 -0.5588 -0.2680
19458SOL    HW165235   8.998   3.837   8.007 -0.2657 -0.1955 -0.0332
19458SOL    HW265236   8.920   3.942   7.931  1.4390  1.4764  0.4632
19459SOL     OW65237   0.871   1.029   1.861 -0.1319 -0.0696  0.1209
19459SOL    HW165238   0.833   1.020   1.773 -0.6445  0.8541  0.2287
19459SOL    HW265239   0.816   1.096   1.903  0.1019 -0.5163  1.1496
19460SOL     OW65240   7.045   2.700   7.297 -0.1891  0.3088 -0.6894
19460SOL    HW165241   7.109   2.633   7.321  0.5655  1.9292  2.3195
19460SOL    HW265242   7.092   2.758   7.238  0.1070 -0.1937 -0.9529
19461SOL     OW65243   4.853   9.188   3.195 -0.6597  0.3417  0.1170
19461SOL    HW165244   4.763   9.215   3.214 -1.2568 -0.3153 -1.5638
19461SOL    HW265245   4.906   9.231   3.262 -2.2123  0.7861  1.1166
19462SOL     OW65246   7.845   3.813   2.159  0.1179  0.0843 -0.1208
19462SOL    HW165247   7.887   3.760   2.091  0.1620 -1.3974  1.0172
19462SOL    HW265248   7.757   3.829   2.127  0.0016 -0.9639 -0.3461
19463SOL     OW65249  10.176   6.744   0.168  0.0848 -0.7335 -0.1365
19463SOL    HW165250  10.152   6.668   0.114  1.7910 -0.0951 -1.8876
19463SOL    HW265251  10.223   6.802   0.108  0.9800  0.5937  1.7702
19464SOL     OW65252  12.291  10.431   0.066  0.1751  0.2253  0.0286
19464SOL    HW165253  12.229  10.501   0.046  0.0754 -0.5538 -2.9182
19464SOL    HW265254  12.239  10.351   0.055  1.3970 -0.4057 -1.4811
19465SOL     OW65255   0.842   8.063   3.377 -0.0362  0.1837  0.2245
19465SOL    HW165256   0.816   8.034   3.289 -1.3290 -2.0706  1.2745
19465SOL    HW265257   0.761   8.093   3.418  0.2146 -0.5500  1.2791
19466SOL     OW65258  11.103   3.058  10.648  0.2976 -0.1281  0.3037
19466SOL    HW165259  11.148   2.992  10.595 -2.1593 -0.2024 -1.8734
19466SOL    HW265260  11.029   3.011  10.688  0.6655  0.5176  1.8337
19467SOL     OW65261   7.607   2.473  11.822  0.1212  0.0917 -0.3255
19467SOL    HW165262   7.609   2.525  11.742 -1.6042 -1.2910 -1.3390
19467SOL    HW265263   7.544   2.517  11.878  0.4594  0.4109 -0.1926
19468SOL     OW65264   8.165  11.552   1.572  0.2253 -0.1557 -0.2251
19468SOL    HW165265   8.119  11.635   1.567  0.2130 -0.1835 -0.6318
19468SOL    HW265266   8.258  11.575   1.562  0.3736 -0.0290  1.2452
19469SOL     OW65267   1.843   5.296   6.866 -0.4534 -0.0342 -0.0850
19469SOL    HW165268   1.925   5.256   6.895 -0.9553 -0.8448  0.2453
19469SOL    HW265269   1.782   5.281   6.938 -1.0188  0.1557 -0.5176
19470SOL     OW65270   7.165   9.634   6.861 -0.7918 -0.0640  0.7344
19470SOL    HW165271   7.189   9.605   6.948 -0.4545 -1.0650  0.3193
19470SOL    HW265272   7.227   9.591   6.802 -3.1544 -2.3427 -0.3305
19471SOL     OW65273   1.772   7.419   3.853  0.3186  0.5945  0.2487
19471SOL    HW165274   1.746   7.471   3.929  0.0037  0.7040  0.0707
19471SOL    HW265275   1.811   7.340   3.889 -0.8886  0.1066  0.5457
19472SOL     OW65276   3.575  11.057   2.462 -0.0454  0.2802 -0.0198
19472SOL    HW165277   3.618  10.985   2.416  1.2120  0.6250  0.5733
19472SOL    HW265278   3.578  11.031   2.554  0.7346  1.2419  0.2353
19473SOL     OW65279   9.511   7.328   2.685 -0.3001  0.2440 -0.3467
19473SOL    HW165280   9.541   7.363   2.769  1.4392  0.0542 -0.8455
19473SOL    HW265281   9.591   7.320   2.632 -1.2721 -0.1879 -1.8229
19474SOL     OW65282   0.816  11.320   4.637 -0.0798 -0.3010  0.8649
19474SOL    HW165283   0.881  11.258   4.671  2.3896  1.6455  0.0222
19474SOL    HW265284   0.826  11.398   4.692 -0.4477  0.6690 -0.4004
19475SOL     OW65285   4.503   7.561   0.615  0.1249  0.0376 -0.1316
19475SOL    HW165286   4.558   7.571   0.693 -0.2939 -1.3762  0.3820
19475SOL    HW265287   4.422   7.521   0.648 -0.3338  0.0558 -1.1946
19476SOL     OW65288   7.220   7.487   3.659 -0.3401  0.3055  0.2121
19476SOL    HW165289   7.210   7.488   3.564 -0.1612  0.4301  0.1940
19476SOL    HW265290   7.311   7.511   3.674 -0.4379  0.5456  0.4248
19477SOL     OW65291   2.423   4.769   1.444 -0.4435  0.4537 -0.5474
19477SOL    HW165292   2.399   4.713   1.517 -0.8682  1.7439  0.3410
19477SOL    HW265293   2.340   4.809   1.417 -0.3682 -0.3314 -2.0389
19478SOL     OW65294   9.485   6.588   0.697  0.0965  0.2310 -0.4581
19478SOL    HW165295   9.444   6.534   0.764  1.0813  0.4007  0.3152
19478SOL    HW265296   9.579   6.570   0.707  0.4233  1.8215 -0.3990
19479SOL     OW65297  11.200   8.334   4.199 -0.3098  0.4159 -0.5530
19479SOL    HW165298  11.163   8.246   4.187 -0.7055  0.4396  0.3933
19479SOL    HW265299  11.203   8.346   4.294  0.6506  1.0526 -0.6490
19480SOL     OW65300   6.509  10.685   3.458 -0.4986 -0.2994 -0.2179
19480SOL    HW165301   6.433  10.635   3.489 -1.1397  1.9189  2.2459
19480SOL    HW265302   6.520  10.754   3.524  3.0597  0.1115 -1.0555
19481SOL     OW65303   1.107   5.818   6.252 -0.6315 -0.5758  0.6669
19481SOL    HW165304   1.169   5.765   6.201 -0.4099  1.3814 -1.2387
19481SOL    HW265305   1.142   5.817   6.341  0.4566 -1.9649  0.2626
19482SOL     OW65306  10.849   6.564   9.535 -0.4860 -0.3029  0.1562
19482SOL    HW165307  10.812   6.506   9.602  1.6934 -1.6358  0.2823
19482SOL    HW265308  10.848   6.651   9.576 -0.1778 -0.9153  1.5109
19483SOL     OW65309   8.280   0.877   4.216  0.2371 -0.1424  0.0455
19483SOL    HW165310   8.199   0.829   4.235 -0.1677  0.8180  0.8578
19483SOL    HW265311   8.264   0.965   4.252  1.2504  0.3645 -0.7073
19484SOL     OW65312  10.872   6.689   1.652 -0.0271 -0.4675 -0.3203
19484SOL    HW165313  10.788   6.665   1.689  0.4580  0.7060  1.7256
19484SOL    HW265314  10.932   6.620   1.681  0.3041  0.3223  0.9456
19485SOL     OW65315   0.550   9.630   9.187 -0.0711 -0.1137  0.4578
19485SOL    HW165316   0.558   9.693   9.258  1.9605  0.3185 -0.0982
19485SOL    HW265317   0.456   9.626   9.170 -0.4364  1.1643  1.9097
19486SOL     OW65318   6.014   2.452   6.665 -0.0089 -0.1777 -0.2933
19486SOL    HW165319   5.926   2.483   6.686 -0.1557 -1.4285  1.1824
19486SOL    HW265320   6.072   2.524   6.690 -0.5051 -0.0397  0.4836
19487SOL     OW65321   2.088   5.603  11.169 -0.4234  0.3510 -0.0035
19487SOL    HW165322   2.174   5.580  11.205 -0.3734 -0.0562 -0.3700
19487SOL    HW265323   2.028   5.594  11.243 -0.0669  1.2483  0.4160
19488SOL     OW65324   7.155   2.978   0.834  0.2403 -0.0777 -0.1197
19488SOL    HW165325   7.233   2.986   0.890 -1.5711 -1.4945  2.8366
19488SOL    HW265326   7.161   2.890   0.798  1.2409  0.7245 -2.0762
19489SOL     OW65327   7.381   5.530   0.609  0.1946 -0.6283  0.9820
19489SOL    HW165328   7.305   5.509   0.555 -0.3373 -1.0608  1.8744
19489SOL    HW265329   7.348   5.525   0.699  0.5951  1.8477  1.3425
19490SOL     OW65330  10.254  12.234   4.251 -0.2459  0.5023  0.2109
19490SOL    HW165331  10.164  12.226   4.218 -0.3538  1.7279  0.1570
19490SOL    HW265332  10.271  12.328   4.249  1.2909  0.2318 -0.4357
19491SOL     OW65333  11.435   5.715  12.251 -0.4875  0.4154  0.2487
19491SOL    HW165334  11.492   5.651  12.208 -0.8660  0.3098 -0.1094
19491SOL    HW265335  11.474   5.800  12.229 -0.5727  0.3524 -0.1574
19492SOL     OW65336  11.104   6.788   4.993  0.0518 -0.1601  0.0423
19492SOL    HW165337  11.085   6.851   5.062 -0.0865 -0.0809 -0.0697
19492SOL    HW265338  11.194   6.759   5.012  0.5090  0.8458 -0.5109
19493SOL     OW65339  12.321  10.643  11.991  0.0729 -0.1692  0.3548
19493SOL    HW165340  12.359  10.573  11.939 -1.2589 -0.2903 -0.5084
19493SOL    HW265341  12.352  10.627  12.080  0.0139 -1.6898  0.1227
19494SOL     OW65342   1.435   2.701  12.193  0.4191  0.2569 -0.4074
19494SOL    HW165343   1.379   2.625  12.211 -0.4722  0.4842 -2.0530
19494SOL    HW265344   1.469   2.726  12.279 -0.9215 -0.7305  0.4528
19495SOL     OW65345   3.763   8.978  10.870  0.2329 -0.1567  0.1770
19495SOL    HW165346   3.693   8.950  10.812  0.5836 -0.0982 -0.2787
19495SOL    HW265347   3.785   8.899  10.920 -0.2747 -0.1311  0.4499
19496SOL     OW65348   1.431   3.436   1.414 -0.3585  0.7603 -0.2648
19496SOL    HW165349   1.384   3.355   1.396 -0.8745  0.6813  1.3061
19496SOL    HW265350   1.396   3.467   1.498  0.8754  1.8321 -0.0985
19497SOL     OW65351   5.534   6.221   6.073 -0.0527  0.5291  0.3495
19497SOL    HW165352   5.445   6.253   6.060 -0.0816  0.7539  1.0411
19497SOL    HW265353   5.582   6.249   5.995 -0.4498  0.9255  0.2445
19498SOL     OW65354   5.079   6.025   7.449 -0.2833  0.1848  0.6318
19498SOL    HW165355   5.049   5.950   7.501  1.1111 -0.5166  0.4621
19498SOL    HW265356   5.159   6.054   7.492 -0.0957  0.7494 -0.0730
19499SOL     OW65357   3.870   7.991   2.704  0.0825  0.0434 -0.5548
19499SOL    HW165358   3.913   8.013   2.786  0.0826 -0.7041 -0.3514
19499SOL    HW265359   3.894   7.900   2.688 -2.8912 -1.0341  0.5060
19500SOL     OW65360   8.312   1.198   0.318 -0.0503 -0.4114 -0.3230
19500SOL    HW165361   8.241   1.197   0.255 -0.5143  1.3668  0.1118
19500SOL    HW265362   8.352   1.284   0.307 -0.5468  0.2205  2.1980
19501SOL     OW65363   3.605  11.026   5.084  0.6198 -0.0964  0.1650
19501SOL    HW165364   3.645  11.064   5.006  0.7472  1.9042  1.1553
19501SOL    HW265365   3.530  11.082   5.103  1.4594  0.3896  2.3162
19502SOL     OW65366   2.416   7.752   8.624 -0.1680  0.2773 -0.4439
19502SOL    HW165367   2.418   7.693   8.699 -1.3445  2.3734  1.3704
19502SOL    HW265368   2.496   7.733   8.575 -0.0037 -2.0232  0.6227
19503SOL     OW65369   0.837  10.016   1.613  0.0765  0.5406  0.1308
19503SOL    HW165370   0.773  10.041   1.680 -2.1432 -1.5872 -1.0274
19503SOL    HW265371   0.792  10.034   1.530  0.5296 -1.8703 -0.7176
19504SOL     OW65372   2.904   4.978  10.564  0.7870  0.1784  0.1753
19504SOL    HW165373   2.954   5.003  10.642  2.1634 -0.0465 -0.5972
19504SOL    HW265374   2.962   4.998  10.491 -1.0377  1.7917 -0.9347
19505SOL     OW65375  12.130   7.510  10.396 -0.1024  0.0376 -0.4240
19505SOL    HW165376  12.047   7.555  10.413 -0.8614 -1.5202  0.1161
19505SOL    HW265377  12.114   7.462  10.315  0.1663 -0.5200 -0.1474
19506SOL     OW65378   3.307   7.924   2.571 -0.0716  0.4177 -0.1498
19506SOL    HW165379   3.333   8.010   2.602 -2.2481  0.9072  0.4453
19506SOL    HW265380   3.324   7.866   2.646 -0.6123  0.7203  0.2156
19507SOL     OW65381   0.894  11.090  12.219 -0.1186 -0.4057  0.0561
19507SOL    HW165382   0.802  11.082  12.195 -0.0273 -0.8042 -0.1786
19507SOL    HW265383   0.932  11.005  12.197  0.4662  0.0067 -0.5753
19508SOL     OW65384   6.823   0.269   7.643  0.8779  0.4811  0.5003
19508SOL    HW165385   6.892   0.334   7.633  1.6275 -0.4182 -0.4881
19508SOL    HW265386   6.808   0.236   7.554 -0.7005  0.5186  0.7226
19509SOL     OW65387   6.674  12.137   2.626 -0.6669  0.0562  0.0475
19509SOL    HW165388   6.718  12.067   2.577  0.0971 -0.8995  2.0079
19509SOL    HW265389   6.628  12.188   2.559 -0.9866 -2.1152 -1.4699
19510SOL     OW65390   3.674   6.268   4.658  0.2700  0.1434 -0.3672
19510SOL    HW165391   3.685   6.174   4.643  1.6366  0.2280 -0.0048
19510SOL    HW265392   3.763   6.301   4.671 -0.3308  1.0796  1.8645
19511SOL     OW65393   2.525   2.846   1.126  0.3674  0.1204  0.2833
19511SOL    HW165394   2.466   2.799   1.067 -1.5179 -0.8790  2.7988
19511SOL    HW265395   2.593   2.782   1.148  0.2926  0.0269  0.2449
19512SOL     OW65396   7.547   7.773   7.657 -0.4489  0.1995  0.0294
19512SOL    HW165397   7.519   7.682   7.657  0.4746 -0.0949 -0.0280
19512SOL    HW265398   7.468   7.823   7.677 -0.8033 -0.6592  0.8090
19513SOL     OW65399   5.922  12.316   7.936 -0.5222 -0.2442 -0.2436
19513SOL    HW165400   5.948  12.226   7.914 -0.1080 -0.1682 -0.0689
19513SOL    HW265401   6.004  12.358   7.964 -0.4351  0.5767 -1.6149
19514SOL     OW65402   8.389   5.903   1.447  0.2784  0.1249 -0.2835
19514SOL    HW165403   8.361   5.894   1.538  0.7368  0.0869 -0.1441
19514SOL    HW265404   8.336   5.976   1.413  0.1242  0.1542  0.0174
19515SOL     OW65405   8.581   0.130   5.201  0.5556  0.0513 -0.0533
19515SOL    HW165406   8.607   0.118   5.292 -0.5061  1.3087  0.4390
19515SOL    HW265407   8.661   0.112   5.151  1.0983 -0.8752  1.0902
19516SOL     OW65408   3.270   5.148  10.514  0.1646 -0.3312 -0.4641
19516SOL    HW165409   3.364   5.163  10.515  0.4507 -2.0497  0.1722
19516SOL    HW265410   3.234   5.226  10.471  1.5973  1.7559  1.8527
19517SOL     OW65411   8.978   7.552   4.274  0.5495  0.0554 -0.0573
19517SOL    HW165412   9.002   7.644   4.266  0.6177 -0.0075 -0.6156
19517SOL    HW265413   9.020   7.509   4.199 -0.4870 -0.2102 -0.5108
19518SOL     OW65414   8.922   6.532   7.516  0.6192 -0.3093 -0.2075
19518SOL    HW165415   8.872   6.467   7.565 -0.2733  0.2068 -0.4191
19518SOL    HW265416   8.908   6.509   7.424 -1.3533  1.3070 -0.3902
19519SOL     OW65417   0.705  10.487   5.620 -0.4100  0.3598 -0.4156
19519SOL    HW165418   0.724  10.563   5.675  0.1522  0.7885 -1.1904
19519SOL    HW265419   0.699  10.522   5.531  1.4183 -0.7001 -1.0042
19520SOL     OW65420   9.413  11.543   6.137  0.3141  0.5237 -0.3419
19520SOL    HW165421   9.342  11.479   6.138  0.7366  0.0256 -1.1329
19520SOL    HW265422   9.469  11.520   6.211 -0.1760  0.7301  0.0996
19521SOL     OW65423   8.786   2.115   6.222  0.1118 -0.0130 -0.4514
19521SOL    HW165424   8.783   2.117   6.127  2.4346 -1.2695 -0.6343
19521SOL    HW265425   8.764   2.025   6.245  0.2915  0.0866  0.1437
19522SOL     OW65426   7.026   2.200   0.077  0.3544 -0.1108 -0.2196
19522SOL    HW165427   7.059   2.229  -0.008  1.7892 -1.0737 -0.0426
19522SOL    HW265428   7.094   2.226   0.139 -1.0643  1.3517  0.8051
19523SOL     OW65429   2.207   6.156   2.686 -0.2853 -0.0020 -0.5250
19523SOL    HW165430   2.251   6.158   2.600 -0.4013 -1.8795 -0.6790
19523SOL    HW265431   2.124   6.112   2.669 -0.9915  0.9895  0.2927
19524SOL     OW65432   8.682   3.318   6.591  0.1225 -0.1964 -0.5663
19524SOL    HW165433   8.647   3.398   6.552  0.8575  0.0408 -0.7587
19524SOL    HW265434   8.775   3.336   6.602 -0.0971 -0.1251  1.6227
19525SOL     OW65435   5.301   2.798  12.413 -0.2877  0.0269 -0.2147
19525SOL    HW165436   5.298   2.863  12.343  1.2875  0.2009 -0.1456
19525SOL    HW265437   5.226   2.819  12.468 -0.2735  1.2770 -0.6361
19526SOL     OW65438  10.497   6.366  10.970 -0.2877 -0.1926  0.0475
19526SOL    HW165439  10.419   6.381  10.916 -0.3483 -0.0036  0.1894
19526SOL    HW265440  10.542   6.294  10.926  0.1954  0.6220 -0.8267
19527SOL     OW65441   1.853   1.173   3.129  0.1272 -0.3154  0.1232
19527SOL    HW165442   1.810   1.120   3.062 -1.0489  0.9269 -0.1550
19527SOL    HW265443   1.785   1.187   3.195  1.6745 -2.8030  2.4348
19528SOL     OW65444  10.433  10.018   2.599  0.1846 -0.5709  0.1378
19528SOL    HW165445  10.419  10.109   2.624  0.0455 -0.5370 -0.0574
19528SOL    HW265446  10.484  10.023   2.518 -0.2398 -0.6563 -0.1343
19529SOL     OW65447   7.711   5.297  12.315 -0.5919 -0.1698  0.2983
19529SOL    HW165448   7.742   5.386  12.303 -1.5901  0.0691 -0.8094
19529SOL    HW265449   7.661   5.299  12.397  1.4624 -0.3550  1.6151
19530SOL     OW65450   4.295   4.455  10.746  0.1841 -0.2098 -0.0637
19530SOL    HW165451   4.252   4.377  10.713 -1.0981  0.1475  0.7031
19530SOL    HW265452   4.357   4.423  10.811  0.0355 -0.6169 -0.1229
19531SOL     OW65453   2.629   4.398   7.353  0.4013  0.4067  0.0061
19531SOL    HW165454   2.704   4.339   7.364 -0.2528  0.1114  4.2745
19531SOL    HW265455   2.669   4.482   7.331  2.0337  0.1679  1.7732
19532SOL     OW65456   0.763   6.503   9.280  0.0086  0.3467  0.0938
19532SOL    HW165457   0.718   6.428   9.318 -0.6840  0.5616 -0.2840
19532SOL    HW265458   0.752   6.494   9.186 -1.2859  1.6321  0.0875
19533SOL     OW65459   5.957   6.255  10.248  0.0913  0.3811 -0.5529
19533SOL    HW165460   6.039   6.305  10.238  0.3568  0.3134  0.9584
19533SOL    HW265461   5.890   6.310  10.207  0.7297  0.9518 -0.8474
19534SOL     OW65462   4.707   7.453   2.810 -0.3378  0.3532 -0.2506
19534SOL    HW165463   4.619   7.438   2.776 -0.1428  1.2312 -1.1965
19534SOL    HW265464   4.743   7.523   2.755  2.5113 -2.7290 -2.7736
19535SOL     OW65465  11.805   2.056  11.910 -0.0547  0.7829  0.1504
19535SOL    HW165466  11.739   2.022  11.850  0.2120  1.3779 -0.4857
19535SOL    HW265467  11.833   2.138  11.871 -0.2471  1.4409  1.3525
19536SOL     OW65468   3.675   6.939   8.029 -0.0665  0.3930  0.2299
19536SOL    HW165469   3.725   6.858   8.042  0.7722  1.0264  1.0099
19536SOL    HW265470   3.598   6.911   7.980  1.0185 -0.6052 -0.9594
19537SOL     OW65471   7.576   5.065   9.034  0.2131  0.2947 -0.1876
19537SOL    HW165472   7.539   5.128   8.972  2.8296  1.2949 -0.8646
19537SOL    HW265473   7.661   5.041   8.997  0.3960 -1.7279  1.3338
19538SOL     OW65474   0.488   8.352   9.308  0.1668 -0.1353  0.4030
19538SOL    HW165475   0.463   8.434   9.264  0.5862  0.3443  1.0315
19538SOL    HW265476   0.414   8.293   9.294 -0.5266  0.6456  0.6830
19539SOL     OW65477   5.617   8.601  10.892 -0.3023 -0.1921 -0.2494
19539SOL    HW165478   5.669   8.523  10.872 -0.8758 -0.3322 -1.2373
19539SOL    HW265479   5.542   8.596  10.833  0.0756  1.5569 -0.9474
19540SOL     OW65480  12.450   8.498  12.367 -0.1796 -0.2865  0.2005
19540SOL    HW165481  12.375   8.471  12.313 -0.6337 -0.3708  0.8658
19540SOL    HW265482  12.516   8.431  12.350 -1.9376 -3.1459  3.2915
19541SOL     OW65483   7.257   1.590   7.358  0.0583  0.1316 -0.8389
19541SOL    HW165484   7.270   1.496   7.369 -0.3359  0.3414  2.3228
19541SOL    HW265485   7.163   1.603   7.367  0.0604  0.8086 -1.6383
19542SOL     OW65486   7.011   2.136   4.962 -0.4483 -0.0131  0.0797
19542SOL    HW165487   7.088   2.176   5.001  0.8779 -3.4965  1.4691
19542SOL    HW265488   6.937   2.175   5.009  0.7716  0.2272  1.9022
19543SOL     OW65489   9.680   5.677   8.723  0.0699 -0.5012 -0.9597
19543SOL    HW165490   9.675   5.739   8.796  0.0624  0.6684 -1.9148
19543SOL    HW265491   9.773   5.655   8.717  0.2159  0.1320 -1.1661
19544SOL     OW65492   5.768   2.875   6.990  0.8161  0.5103 -0.0914
19544SOL    HW165493   5.730   2.799   7.033  1.6299 -0.2396 -0.6635
19544SOL    HW265494   5.831   2.909   7.053  0.3896  0.7682  0.1996
19545SOL     OW65495   6.258   6.596   2.260  0.1245 -0.4192  0.0107
19545SOL    HW165496   6.349   6.565   2.258 -0.1817 -1.4170  0.7730
19545SOL    HW265497   6.229   6.592   2.169  1.7558  2.8703 -0.8192
19546SOL     OW65498   7.614  11.786   2.827  0.3176  0.0379  0.0288
19546SOL    HW165499   7.632  11.808   2.918  1.5708  0.6802 -0.3488
19546SOL    HW265500   7.589  11.694   2.829 -0.4708  0.2505  1.1024
19547SOL     OW65501   8.098   2.536   7.275  0.4477  0.0973  0.1851
19547SOL    HW165502   8.156   2.477   7.227  1.4287 -0.0559  1.4983
19547SOL    HW265503   8.013   2.492   7.275  0.2762  0.3324 -1.7774
19548SOL     OW65504   9.247   5.135  11.003 -0.1113 -0.9324 -0.3153
19548SOL    HW165505   9.343   5.130  11.011 -0.1158 -1.0506 -0.3296
19548SOL    HW265506   9.215   5.096  11.085 -0.1612 -1.9369 -0.8027
19549SOL     OW65507   5.011  12.240  10.657 -0.5609  0.4578  0.7017
19549SOL    HW165508   5.056  12.209  10.735  0.2679  1.4230  0.6301
19549SOL    HW265509   5.065  12.312  10.625 -1.3589  0.6574 -0.2600
19550SOL     OW65510   0.393   3.105   5.730 -0.1288 -0.0464  0.4752
19550SOL    HW165511   0.319   3.131   5.676 -0.0037 -1.1822 -0.2783
19550SOL    HW265512   0.397   3.010   5.722  0.6025 -0.1350  1.5768
19551SOL     OW65513  12.026   7.861  10.044  0.7161  0.3331 -0.0234
19551SOL    HW165514  12.082   7.798  10.090 -0.5291  0.1836  1.3453
19551SOL    HW265515  12.029   7.833   9.953  1.5005 -0.7126  0.3000
19552SOL     OW65516   9.762  10.041   8.435 -0.2426  0.0103 -0.1588
19552SOL    HW165517   9.698  10.037   8.364 -2.3625  0.6538  1.5937
19552SOL    HW265518   9.800   9.953   8.438  1.0710  0.3630 -2.9878
19553SOL     OW65519   7.639   1.770   2.402  0.1717 -0.2793  0.1613
19553SOL    HW165520   7.569   1.722   2.446  1.5979 -0.7229  2.1391
19553SOL    HW265521   7.694   1.702   2.363  1.2365 -0.2327  1.4665
19554SOL     OW65522  10.371   3.752   2.042 -0.5908 -0.3476  0.0821
19554SOL    HW165523  10.359   3.804   1.963  4.6987  1.6402  0.1958
19554SOL    HW265524  10.411   3.670   2.012  1.3767  0.3851  0.5622
19555SOL     OW65525   5.786   4.879  10.979  0.6745 -0.1667  0.1240
19555SOL    HW165526   5.806   4.839  10.895  1.4542 -3.8046  1.8272
19555SOL    HW265527   5.691   4.877  10.985  0.5966  0.4381 -0.7623
19556SOL     OW65528   4.300   4.241   1.643  0.2053 -0.5781  0.0489
19556SOL    HW165529   4.350   4.169   1.604  0.8091  0.1345 -0.5099
19556SOL    HW265530   4.301   4.223   1.737  1.0101 -0.8838 -0.0144
19557SOL     OW65531   4.485   4.272  10.943 -0.6438  0.1912  0.0444
19557SOL    HW165532   4.539   4.237  11.014  0.8396 -0.5543 -1.3807
19557SOL    HW265533   4.444   4.194  10.905 -0.7630  0.4949 -0.4494
19558SOL     OW65534   8.528   2.662   1.734  0.5475  0.2092  0.4069
19558SOL    HW165535   8.464   2.635   1.800  0.6796 -0.3576  0.3072
19558SOL    HW265536   8.583   2.584   1.721  0.4603  0.2839 -0.4476
19559SOL     OW65537   9.981   8.875   2.556  0.0388 -0.0562  0.7120
19559SOL    HW165538   9.980   8.909   2.466  0.3615 -1.2693  0.2259
19559SOL    HW265539  10.043   8.932   2.602 -0.2132  0.6463  0.1926
19560SOL     OW65540   6.431   5.565   1.520 -0.5504 -0.2752 -0.6249
19560SOL    HW165541   6.451   5.635   1.583 -0.8449 -0.9341  0.2232
19560SOL    HW265542   6.393   5.611   1.445 -0.9983  0.4656  0.0286
19561SOL     OW65543   8.517   3.622   1.477  0.2217  0.3262  0.8248
19561SOL    HW165544   8.596   3.619   1.423 -0.3206  0.9610 -0.0291
19561SOL    HW265545   8.527   3.702   1.529 -1.4549  2.4871 -1.8953
19562SOL     OW65546  10.632   4.930  12.200  0.1275 -0.1071 -0.1920
19562SOL    HW165547  10.620   4.857  12.261 -1.6113  0.4852  0.2270
19562SOL    HW265548  10.727   4.938  12.191  0.3937 -1.0264  1.4517
19563SOL     OW65549   7.847   5.415  10.519  0.8085 -0.1287  0.4096
19563SOL    HW165550   7.792   5.453  10.587  1.7615  0.8807  0.6438
19563SOL    HW265551   7.905   5.355  10.565  0.8106 -0.1672  0.3575
19564SOL     OW65552   4.563   9.524  11.196 -0.1542  0.1661  0.4050
19564SOL    HW165553   4.484   9.575  11.213  0.1710  0.6876  0.3595
19564SOL    HW265554   4.616   9.534  11.275 -0.3519 -0.6054  0.6468
19565SOL     OW65555   9.555   7.962   1.120 -0.1456  0.4265  0.2097
19565SOL    HW165556   9.483   7.911   1.157 -0.4289  1.0112  0.4882
19565SOL    HW265557   9.548   7.949   1.026 -0.6072  0.4579  0.2342
19566SOL     OW65558   1.740   4.303   8.986  0.0767  0.3337 -0.4619
19566SOL    HW165559   1.658   4.289   9.033  0.5746 -0.5134  0.1842
19566SOL    HW265560   1.806   4.309   9.055  0.4970  1.5256 -0.9486
19567SOL     OW65561  11.444   7.226  10.052 -0.1659  0.7336  0.2589
19567SOL    HW165562  11.411   7.300  10.103 -0.7630  0.5580  0.1342
19567SOL    HW265563  11.422   7.149  10.105 -0.3614  0.5851 -0.0349
19568SOL     OW65564   7.160  10.600   0.068 -0.6321  0.2194  0.0150
19568SOL    HW165565   7.117  10.522   0.103 -0.5982  0.3351  0.3193
19568SOL    HW265566   7.250  10.572   0.050 -0.7755  0.0308 -0.4346
19569SOL     OW65567   5.382   9.498   4.557 -0.2435  0.6760  0.4336
19569SOL    HW165568   5.300   9.545   4.571 -0.6325  0.5283 -1.1825
19569SOL    HW265569   5.356   9.410   4.530  0.4813  0.0454  1.6747
19570SOL     OW65570   1.657   8.943  11.709  0.2976 -0.4475 -0.7505
19570SOL    HW165571   1.668   8.892  11.789 -1.5861 -1.7648 -1.2559
19570SOL    HW265572   1.741   8.934  11.664  1.6781  0.9943  1.3846
19571SOL     OW65573   6.285   5.112   7.300  0.0890 -0.0599 -0.6093
19571SOL    HW165574   6.334   5.162   7.366  0.7049 -2.0076  0.4851
19571SOL    HW265575   6.332   5.030   7.293 -1.9323 -1.2430 -0.9543
19572SOL     OW65576  11.896   9.763   3.248  0.3470 -0.0150  0.0734
19572SOL    HW165577  11.861   9.767   3.337 -0.0209 -1.2738 -0.0034
19572SOL    HW265578  11.868   9.678   3.214 -0.6710  0.9775 -1.7350
19573SOL     OW65579   1.134   9.631   1.794  0.1860  0.0484  0.2526
19573SOL    HW165580   1.117   9.551   1.843 -1.4740 -0.9932 -1.8727
19573SOL    HW265581   1.061   9.638   1.733  0.9431  2.5200 -0.4845
19574SOL     OW65582   5.692  10.409   6.700  0.3057  0.7230  0.0240
19574SOL    HW165583   5.695  10.379   6.791 -1.8140 -0.0513 -0.1070
19574SOL    HW265584   5.667  10.501   6.705 -0.3355  0.5394  0.2093
19575SOL     OW65585   1.778   5.792   9.323 -0.0783  0.0259  0.1900
19575SOL    HW165586   1.702   5.735   9.311  0.2007 -0.3458  0.1879
19575SOL    HW265587   1.806   5.812   9.234  1.0928 -1.5363  0.1683
19576SOL     OW65588   8.606  11.112   2.497 -0.3490 -0.1058 -0.1866
19576SOL    HW165589   8.629  11.028   2.536 -1.4314 -0.4174 -0.1957
19576SOL    HW265590   8.539  11.148   2.555 -0.7498  0.1952 -0.8205
19577SOL     OW65591  11.547  10.168   8.167  0.7051 -0.0581  0.6527
19577SOL    HW165592  11.515  10.109   8.235  1.5008 -1.0532  0.1947
19577SOL    HW265593  11.514  10.255   8.192  1.0914 -0.3723  2.3625
19578SOL     OW65594  10.187   6.849   4.028 -0.0172 -0.2043 -0.4071
19578SOL    HW165595  10.130   6.907   4.077  0.1638 -0.2327 -0.1627
19578SOL    HW265596  10.270   6.896   4.021  0.1258 -0.4254 -0.2181
19579SOL     OW65597   2.518   4.357   7.595  0.0914 -0.2130 -0.0655
19579SOL    HW165598   2.578   4.383   7.665  1.8197  0.2097 -1.6381
19579SOL    HW265599   2.560   4.386   7.514 -0.5205 -3.0502 -1.5344
19580SOL     OW65600   9.051   1.546   0.479 -0.1371 -0.1311  0.4841
19580SOL    HW165601   9.073   1.638   0.493  0.9862 -0.0863 -1.2492
19580SOL    HW265602   9.084   1.501   0.556 -1.1729  0.9457  1.6130
19581SOL     OW65603   5.266   5.555   9.566 -0.1120  0.1891 -0.3495
19581SOL    HW165604   5.178   5.593   9.562 -0.4940 -0.6649 -0.5461
19581SOL    HW265605   5.325   5.626   9.542 -0.7798  0.6917 -0.5321
19582SOL     OW65606   6.155  11.609   0.989 -0.5089 -0.3467 -0.5775
19582SOL    HW165607   6.127  11.528   1.032  0.0805 -0.0303  0.4508
19582SOL    HW265608   6.177  11.668   1.062  1.2123 -0.0228 -1.3176
19583SOL     OW65609   8.551   9.910   0.850 -0.5685 -0.1174 -0.0451
19583SOL    HW165610   8.547  10.005   0.864  0.1744  0.0462 -0.9127
19583SOL    HW265611   8.518   9.897   0.761  0.9328 -0.4860 -0.5780
19584SOL     OW65612  12.179   9.687   7.284 -0.5635  0.2819 -0.2068
19584SOL    HW165613  12.259   9.639   7.306 -2.2176 -1.9769  1.3068
19584SOL    HW265614  12.183   9.698   7.189  0.7578 -1.2716 -0.3773
19585SOL     OW65615  10.195   2.635   1.923 -0.2291  0.0019 -0.0331
19585SOL    HW165616  10.286   2.662   1.912 -0.5550  1.1905  0.0805
19585SOL    HW265617  10.171   2.597   1.838  0.5392 -0.8623  0.1253
19586SOL     OW65618   8.863   2.196   0.152  1.0034 -0.0207  0.3859
19586SOL    HW165619   8.943   2.214   0.102 -0.8583  0.9465 -2.5333
19586SOL    HW265620   8.795   2.190   0.085 -1.5806  0.3529  2.8151
19587SOL     OW65621   2.345   3.179   6.328  0.0533  0.3225 -0.2060
19587SOL    HW165622   2.278   3.114   6.349 -0.0658  0.3540 -0.4736
19587SOL    HW265623   2.306   3.231   6.257  0.2109  0.5818 -0.1038
19588SOL     OW65624  12.164   2.151   8.647  0.2016 -0.1585  0.2208
19588SOL    HW165625  12.179   2.183   8.558 -3.3393  0.5228 -0.2987
19588SOL    HW265626  12.171   2.056   8.639 -1.3302 -0.2133 -1.1834
19589SOL     OW65627  11.810   8.748   1.170  0.1277  0.6717  0.5220
19589SOL    HW165628  11.903   8.767   1.165  0.3360 -0.5819 -1.2119
19589SOL    HW265629  11.777   8.761   1.081 -0.8208 -1.2544  0.5164
19590SOL     OW65630   8.192   7.349   9.706  0.3852  0.7320  0.1658
19590SOL    HW165631   8.199   7.444   9.699 -0.1163  0.7308 -0.4196
19590SOL    HW265632   8.098   7.332   9.704  0.5156  0.1104 -1.3711
19591SOL     OW65633   9.101   9.334   3.115 -0.2310 -0.2533 -0.5750
19591SOL    HW165634   9.059   9.249   3.128  0.0487 -0.4558 -0.9896
19591SOL    HW265635   9.138   9.330   3.027  0.4070  0.0329 -0.3249
19592SOL     OW65636   4.749   9.559   5.858 -0.1235 -0.1652 -0.1584
19592SOL    HW165637   4.796   9.637   5.828 -2.3484  2.3661  2.2906
19592SOL    HW265638   4.814   9.489   5.855  1.8166  1.5165 -3.2164
19593SOL     OW65639   7.641   3.278   3.224 -0.1466  0.5058  0.0382
19593SOL    HW165640   7.686   3.258   3.306 -2.3485  2.9768  2.0426
19593SOL    HW265641   7.711   3.298   3.162  1.6468  2.9777  2.6049
19594SOL     OW65642   6.473   9.446   8.085  0.8001  0.2477  0.1917
19594SOL    HW165643   6.506   9.491   8.007 -1.6520  0.7176 -0.6948
19594SOL    HW265644   6.385   9.416   8.059  0.3410 -0.5478  2.4484
19595SOL     OW65645   7.904   3.785   4.710 -0.2931 -0.2754 -0.1926
19595SOL    HW165646   7.954   3.706   4.727 -1.4005 -1.3591 -1.7380
19595SOL    HW265647   7.814   3.762   4.730 -0.4790  1.0406  0.6354
19596SOL     OW65648   0.779   6.084   1.537  0.2438  0.9640  0.4118
19596SOL    HW165649   0.734   6.122   1.613 -1.3662  0.8706 -0.4609
19596SOL    HW265650   0.828   6.158   1.500  1.2440  0.9611  1.6441
19597SOL     OW65651  11.272   5.988   1.546  0.3043  0.2680  0.6430
19597SOL    HW165652  11.316   5.921   1.494 -2.4729 -0.8906 -0.4054
19597SOL    HW265653  11.221   6.039   1.483 -1.3789  0.2689  1.9331
19598SOL     OW65654  10.758   6.414   9.751 -0.1760 -0.1515 -0.0571
19598SOL    HW165655  10.692   6.346   9.742 -1.5547  1.0449  0.6981
19598SOL    HW265656  10.745   6.449   9.839  0.5865  1.0051 -0.3807
19599SOL     OW65657   1.987   1.836   0.705 -0.1878 -0.1151  0.0243
19599SOL    HW165658   1.972   1.893   0.629 -1.3533  1.1324  1.1374
19599SOL    HW265659   2.047   1.886   0.760 -4.6520  2.4626  3.2415
19600SOL     OW65660   6.265   4.386  11.310  0.0111 -0.3374  0.1693
19600SOL    HW165661   6.268   4.448  11.382  0.5178 -0.4377  0.2327
19600SOL    HW265662   6.348   4.339  11.314  0.3593  0.1421 -0.9130
19601SOL     OW65663   5.810  11.141   8.532  0.0901 -0.3202 -0.0579
19601SOL    HW165664   5.803  11.099   8.446 -2.9266  0.0405 -0.0903
19601SOL    HW265665   5.855  11.223   8.515  0.2506 -0.6212 -1.1679
19602SOL     OW65666   4.119   5.904   4.786  0.3620  0.1315 -0.2196
19602SOL    HW165667   4.059   5.959   4.836  0.6331 -0.6160  0.9484
19602SOL    HW265668   4.205   5.924   4.821  1.0317  2.1789 -2.7776
19603SOL     OW65669   2.858  11.393   9.069 -0.3913  0.4411 -1.1404
19603SOL    HW165670   2.890  11.431   9.151 -1.5453 -1.2434  0.1571
19603SOL    HW265671   2.937  11.373   9.019  0.4227  0.1034  0.2313
19604SOL     OW65672   5.445   1.108   2.112 -0.8904 -0.2182 -0.0534
19604SOL    HW165673   5.508   1.122   2.041  0.2513 -1.9885  0.5381
19604SOL    HW265674   5.423   1.015   2.107 -1.3141 -0.2306  1.4760
19605SOL     OW65675   0.053   9.588   3.006  0.2209  0.3928 -0.4104
19605SOL    HW165676   0.122   9.617   2.947 -0.0132  0.6857 -0.5474
19605SOL    HW265677   0.093   9.588   3.093  0.2397  1.0939 -0.4112
19606SOL     OW65678   4.681   1.753   9.280  0.1719 -0.2753 -0.1685
19606SOL    HW165679   4.643   1.810   9.348 -2.6279 -0.2282 -1.6066
19606SOL    HW265680   4.646   1.666   9.300  0.7681 -0.6116 -0.5733
19607SOL     OW65681   5.745   2.634   1.463  0.0276 -0.0916 -0.3376
19607SOL    HW165682   5.710   2.576   1.530 -1.8213  0.4603 -0.7567
19607SOL    HW265683   5.679   2.703   1.455  2.1316  2.1152  0.1512
19608SOL     OW65684   7.642  10.843  10.290 -0.4150 -0.0599  0.4608
19608SOL    HW165685   7.638  10.926  10.338  0.8161  0.1246  0.2817
19608SOL    HW265686   7.724  10.848  10.241  0.2132 -1.8350  1.2579
19609SOL     OW65687   5.327   0.054   1.601 -0.4674  0.3386  0.1403
19609SOL    HW165688   5.372   0.117   1.544  1.2355 -0.2933  0.7052
19609SOL    HW265689   5.240   0.091   1.614 -0.6934  0.8448 -2.3018
19610SOL     OW65690   8.608   1.974   1.640 -0.3470 -0.2714  0.1428
19610SOL    HW165691   8.677   2.031   1.607  0.3269 -1.2975 -0.2427
19610SOL    HW265692   8.568   2.024   1.712  2.2208 -0.5292  1.8598
19611SOL     OW65693   9.198  10.283   3.412 -0.3441 -0.0337 -0.3024
19611SOL    HW165694   9.279  10.295   3.361 -0.6269  1.2620 -0.4872
19611SOL    HW265695   9.134  10.339   3.368 -1.7457 -2.0410 -0.9571
19612SOL     OW65696  10.542   0.783   9.478 -0.3909  0.1210  0.2331
19612SOL    HW165697  10.620   0.832   9.505 -1.5487  2.4255 -0.3125
19612SOL    HW265698  10.571   0.730   9.404  1.7276 -2.8038  2.9109
19613SOL     OW65699   7.517   9.829   7.208 -0.5479  0.9416 -0.1040
19613SOL    HW165700   7.523   9.756   7.146 -0.8736 -0.3352  1.3123
19613SOL    HW265701   7.449   9.885   7.172 -0.2416  0.5947 -1.2664
19614SOL     OW65702   3.389   7.640   3.646 -0.4861 -0.0407 -0.3109
19614SOL    HW165703   3.335   7.700   3.697 -0.9089  0.5044 -1.3584
19614SOL    HW265704   3.447   7.698   3.595 -0.9772 -0.5009 -1.4199
19615SOL     OW65705   8.968  11.782   7.929 -0.1121  0.4432 -0.3292
19615SOL    HW165706   8.938  11.777   7.838 -1.0191 -1.6753  0.0039
19615SOL    HW265707   8.926  11.861   7.963 -1.9459 -0.1317 -1.0773
19616SOL     OW65708   7.601   5.742   3.079 -0.0124  0.2895 -0.0461
19616SOL    HW165709   7.569   5.762   2.992 -0.3246  1.1839  0.2577
19616SOL    HW265710   7.640   5.655   3.072  0.7216  0.7000 -1.2659
19617SOL     OW65711   1.274   6.302  12.069  0.4667  0.1018 -0.5123
19617SOL    HW165712   1.192   6.254  12.075  0.8257 -0.5891 -1.0418
19617SOL    HW265713   1.251   6.385  12.026  0.2581 -0.6302 -1.8577
19618SOL     OW65714  10.905   1.545   2.945  0.5139 -0.1861 -0.1305
19618SOL    HW165715  10.848   1.473   2.920 -1.1045  1.0538 -0.1539
19618SOL    HW265716  10.893   1.611   2.877 -1.0204  1.6570  1.7683
19619SOL     OW65717   8.231  11.669   5.279  0.0071 -0.0988 -0.0149
19619SOL    HW165718   8.279  11.751   5.294  1.0748 -0.9012  1.0870
19619SOL    HW265719   8.239  11.621   5.361 -1.1695 -1.0400 -0.4277
19620SOL     OW65720   7.475   0.222   7.469  0.0345  0.2699  0.2983
19620SOL    HW165721   7.566   0.200   7.492  0.0564  0.8538  0.7996
19620SOL    HW265722   7.427   0.210   7.551  0.1356  2.5413  0.7584
19621SOL     OW65723   0.425   6.277   1.131  0.3128  0.6629  0.3650
19621SOL    HW165724   0.434   6.305   1.040 -0.1360  0.2688  0.1968
19621SOL    HW265725   0.506   6.308   1.173  0.4254  1.0398 -0.1114
19622SOL     OW65726  11.593   2.023   8.952  0.4586 -0.2248 -0.0297
19622SOL    HW165727  11.576   1.929   8.963 -1.3238  0.0450 -0.1266
19622SOL    HW265728  11.621   2.032   8.861  1.6721 -0.7795  0.2758
19623SOL     OW65729   5.070   7.629   2.398 -0.0130 -0.1668 -0.0166
19623SOL    HW165730   5.058   7.542   2.436  0.6546  0.6092  2.1021
19623SOL    HW265731   5.160   7.628   2.364 -0.2237 -0.4983 -0.5719
19624SOL     OW65732   1.216   9.986   2.065 -0.3692 -0.0553 -0.1114
19624SOL    HW165733   1.280   9.925   2.028 -1.1293  0.3756 -2.2991
19624SOL    HW265734   1.132   9.943   2.051 -0.8283  1.0299 -0.7661
19625SOL     OW65735   7.400  11.135   6.915 -0.5053 -0.2438 -0.0683
19625SOL    HW165736   7.435  11.141   6.826 -1.7365  2.5536 -0.4858
19625SOL    HW265737   7.361  11.048   6.920 -1.3572 -0.1087 -2.6851
19626SOL     OW65738   3.469  11.202   0.485 -0.1886  0.1176  0.4235
19626SOL    HW165739   3.492  11.194   0.393 -0.3930  0.2030  0.3656
19626SOL    HW265740   3.499  11.120   0.525  0.2033  0.2197  0.3448
19627SOL     OW65741   7.658   0.005  10.331 -0.2272 -0.7211  0.3816
19627SOL    HW165742   7.650   0.081  10.389 -0.6857 -1.0410  0.7456
19627SOL    HW265743   7.752  -0.005  10.317 -0.0807 -0.8939  1.4148
19628SOL     OW65744   0.562   9.937  10.510  0.1018  0.2689  0.1215
19628SOL    HW165745   0.562   9.886  10.591  0.9727 -1.0030 -0.6359
19628SOL    HW265746   0.495  10.004  10.523 -0.7312 -0.7718  1.3550
19629SOL     OW65747   9.457   8.264   5.409 -0.3075 -0.6246  0.1196
19629SOL    HW165748   9.529   8.230   5.357 -1.1414 -0.2681 -1.3200
19629SOL    HW265749   9.499   8.302   5.486  1.2268  1.0173 -1.4188
19630SOL     OW65750  12.413  11.832  11.153  0.1853  0.1215 -0.2388
19630SOL    HW165751  12.439  11.816  11.062 -3.8091  2.3019 -1.9934
19630SOL    HW265752  12.377  11.749  11.182 -0.6738  0.0092 -1.5333
19631SOL     OW65753   7.645   2.038   5.524 -0.2260  0.5430 -0.4440
19631SOL    HW165754   7.696   1.969   5.566  2.2555  1.6948 -1.3195
19631SOL    HW265755   7.594   1.992   5.457 -0.3396 -0.6688  0.4283
19632SOL     OW65756   2.375   9.823   7.353  0.0255 -0.0099  0.0065
19632SOL    HW165757   2.456   9.857   7.390 -0.4885  0.7303  0.4803
19632SOL    HW265758   2.372   9.859   7.265  0.8558 -1.1222 -0.4954
19633SOL     OW65759   5.567   1.619   3.010 -0.3556  0.3469  0.7150
19633SOL    HW165760   5.512   1.613   2.932 -1.0344 -0.2061  1.2224
19633SOL    HW265761   5.575   1.528   3.041  0.0611  0.5370  1.1837
19634SOL     OW65762   8.643   2.743   4.079 -0.3596 -0.7246 -0.2654
19634SOL    HW165763   8.723   2.759   4.030 -0.2319  2.9210  0.8446
19634SOL    HW265764   8.668   2.680   4.146  0.7585 -1.8532 -1.6689
19635SOL     OW65765  12.201   4.920   2.524 -0.0066 -0.1825  1.1279
19635SOL    HW165766  12.266   4.942   2.590  2.7105 -1.5051 -0.8908
19635SOL    HW265767  12.185   5.002   2.478  1.5817 -0.1199  0.6135
19636SOL     OW65768   8.189   3.990   9.245  0.3848 -0.1394  0.2513
19636SOL    HW165769   8.205   3.916   9.186  0.0598  1.2757 -1.6985
19636SOL    HW265770   8.274   4.009   9.284  0.6251 -1.0330  0.1777
19637SOL     OW65771   3.911   2.545   7.266 -0.2996 -0.2633  0.1113
19637SOL    HW165772   3.855   2.562   7.342 -1.2895 -2.0506 -0.1618
19637SOL    HW265773   3.854   2.560   7.191  0.3156  0.2781 -0.2544
19638SOL     OW65774  10.743   1.386   6.169 -0.2818 -0.3372 -0.2356
19638SOL    HW165775  10.741   1.480   6.150  1.7099  0.0820  1.2397
19638SOL    HW265776  10.763   1.345   6.085  1.2321  0.8060 -0.4898
19639SOL     OW65777  10.920   5.811   9.747  0.3788  0.1493 -0.4651
19639SOL    HW165778  10.996   5.869   9.743  0.9810 -0.7027 -3.3980
19639SOL    HW265779  10.939   5.741   9.684 -1.7197 -1.5145  0.6243
19640SOL     OW65780   6.804   6.840   9.448 -0.3087 -0.3977  0.1626
19640SOL    HW165781   6.816   6.834   9.354  2.3500  0.3134  0.3821
19640SOL    HW265782   6.836   6.757   9.482 -0.8298 -0.4755  0.4793
19641SOL     OW65783  11.812   7.103   7.647 -0.1189 -0.4422 -0.2181
19641SOL    HW165784  11.738   7.124   7.591 -0.0462  0.4837  0.0147
19641SOL    HW265785  11.869   7.180   7.642  1.8719 -1.9051 -2.0109
19642SOL     OW65786  10.971   7.429   8.801  0.1495 -0.1672  0.2787
19642SOL    HW165787  10.979   7.392   8.714  2.2172  0.5845  0.0830
19642SOL    HW265788  10.892   7.482   8.798  0.1594 -0.1990 -1.1265
19643SOL     OW65789   3.787   4.475   3.626 -0.6177  0.0319  0.0304
19643SOL    HW165790   3.743   4.428   3.556 -1.6858  0.3448  0.4800
19643SOL    HW265791   3.858   4.523   3.582  0.3557 -1.7616 -0.4642
19644SOL     OW65792  10.655  10.377  10.283 -0.0529 -0.2184 -0.3835
19644SOL    HW165793  10.713  10.301  10.291  1.1218  0.6929  0.1609
19644SOL    HW265794  10.656  10.398  10.189  0.1588 -0.4576 -0.4360
19645SOL     OW65795   8.844  10.414  12.380  0.6778  0.0431  0.4853
19645SOL    HW165796   8.762  10.391  12.425  0.2118  1.1014  0.1887
19645SOL    HW265797   8.838  10.508  12.366  1.2672 -0.1109 -0.9164
19646SOL     OW65798   9.783   1.591  10.192 -0.3517 -0.6720 -0.0573
19646SOL    HW165799   9.846   1.548  10.250 -0.5352  1.8495  2.2295
19646SOL    HW265800   9.714   1.526  10.180  0.3447 -1.7778  1.5223
19647SOL     OW65801   3.143   6.041   3.693 -0.4698 -0.3840 -0.0948
19647SOL    HW165802   3.067   6.093   3.667 -1.7498 -2.5651 -1.0517
19647SOL    HW265803   3.200   6.043   3.617 -0.4489 -0.2680 -0.0766
19648SOL     OW65804   9.074   1.249   6.327  0.3265  0.4811 -0.5310
19648SOL    HW165805   9.048   1.231   6.236  0.6323  1.6533 -0.8689
19648SOL    HW265806   9.006   1.307   6.361  1.7934  2.6540 -1.0698
19649SOL     OW65807  11.470   4.800   0.088  0.3192  0.5169 -0.7046
19649SOL    HW165808  11.457   4.825   0.180  0.2329 -1.2697 -0.2066
19649SOL    HW265809  11.396   4.839   0.042  0.4092  1.5064 -0.0467
19650SOL     OW65810   6.387   1.855   5.603 -0.3441  0.2381  0.0581
19650SOL    HW165811   6.318   1.892   5.657  1.1469  2.6167  0.4410
19650SOL    HW265812   6.450   1.818   5.665  0.0714  0.5643 -0.1659
19651SOL     OW65813   7.774  12.467   1.441 -0.7741 -0.0270 -0.2817
19651SOL    HW165814   7.834  12.438   1.372 -0.3054  1.2234 -0.4323
19651SOL    HW265815   7.748  12.387   1.486  0.3150 -0.6847 -0.7849
19652SOL     OW65816   7.838  11.232   0.462 -0.0224  0.1128  0.1867
19652SOL    HW165817   7.906  11.256   0.399 -0.1744 -0.1261 -0.0725
19652SOL    HW265818   7.756  11.257   0.420 -0.1316 -0.1457  0.2395
19653SOL     OW65819   9.294   7.229   0.761 -0.2551  0.5843 -0.3978
19653SOL    HW165820   9.271   7.296   0.825 -0.7822 -0.7741  0.8786
19653SOL    HW265821   9.248   7.255   0.681 -1.0674  1.3248  0.2975
19654SOL     OW65822   9.310   4.591   1.915  0.7533 -0.4860 -0.4022
19654SOL    HW165823   9.297   4.498   1.896  0.8127 -0.1023 -2.5785
19654SOL    HW265824   9.224   4.623   1.941  0.0070 -0.5981 -2.5038
19655SOL     OW65825   5.432  11.402   7.959  0.0328 -0.1156  0.8512
19655SOL    HW165826   5.357  11.425   7.905  1.3948  0.2096 -1.0127
19655SOL    HW265827   5.428  11.463   8.033 -0.9335  0.6103  0.2219
19656SOL     OW65828  10.585   5.627   2.398  0.0779 -0.0139  0.3592
19656SOL    HW165829  10.665   5.678   2.388 -0.5029  0.8441  0.0149
19656SOL    HW265830  10.535   5.644   2.319 -0.0696 -1.2639  0.1500
19657SOL     OW65831   9.907   4.312   0.702 -0.4125 -0.0305  0.1236
19657SOL    HW165832   9.894   4.269   0.617 -1.2074 -1.0834  0.7375
19657SOL    HW265833   9.950   4.245   0.756  0.6132  0.8263  0.3872
19658SOL     OW65834  12.368   5.584  11.772 -0.0690 -0.0593  0.4180
19658SOL    HW165835  12.402   5.560  11.858 -0.5116 -0.0152  0.6123
19658SOL    HW265836  12.427   5.543  11.709  0.3263  0.0088  0.7435
19659SOL     OW65837   3.657  11.428   3.430  0.5586 -0.7505 -0.4705
19659SOL    HW165838   3.731  11.376   3.462  1.2681 -0.0407 -0.9153
19659SOL    HW265839   3.591  11.363   3.405  0.8389 -1.3814  0.3683
19660SOL     OW65840   9.348  12.159   3.443  1.0053  0.4898 -0.2742
19660SOL    HW165841   9.391  12.238   3.411 -0.2703  1.6693  0.8000
19660SOL    HW265842   9.327  12.179   3.534  1.6951 -1.5604  0.3930
19661SOL     OW65843  10.785   7.720  11.931 -0.9219 -0.3656  0.0443
19661SOL    HW165844  10.824   7.801  11.897  0.4520 -0.5029  1.1715
19661SOL    HW265845  10.691   7.729  11.912 -0.8312  1.5472  0.2173
19662SOL     OW65846   6.178   7.197   9.503  0.3391  1.0433 -0.4704
19662SOL    HW165847   6.202   7.283   9.466 -0.2099  0.3872 -2.4767
19662SOL    HW265848   6.197   7.135   9.433 -1.9942 -0.1364 -0.1610
19663SOL     OW65849   6.158   1.240   0.981 -0.0882 -0.9251  0.1030
19663SOL    HW165850   6.199   1.164   0.939  0.9207  0.3827 -1.3796
19663SOL    HW265851   6.100   1.276   0.915 -0.9639 -0.6830  0.9754
19664SOL     OW65852   1.823  10.209  10.669  0.2362 -0.3009 -0.0529
19664SOL    HW165853   1.730  10.210  10.649  0.5902 -0.4864 -1.9135
19664SOL    HW265854   1.847  10.117  10.674 -0.0580 -0.3009  2.6434
19665SOL     OW65855   1.647   9.845   7.336  0.2961  0.5637  0.2375
19665SOL    HW165856   1.616   9.818   7.423  1.5252 -0.7745  0.2920
19665SOL    HW265857   1.569   9.841   7.281 -0.3913  0.9116  1.1568
19666SOL     OW65858  10.988   0.410   8.892 -0.0342  0.3892  0.0314
19666SOL    HW165859  10.992   0.318   8.867  2.1435  0.1323  1.1022
19666SOL    HW265860  10.991   0.410   8.988 -0.7799  1.5724  0.0893
19667SOL     OW65861  10.422  11.862   1.886  0.0366 -0.0681  0.0615
19667SOL    HW165862  10.508  11.878   1.847  0.0926  2.2124  0.9565
19667SOL    HW265863  10.366  11.840   1.812  0.8328  0.9722 -0.8927
19668SOL     OW65864   4.837   5.609   2.582 -0.0509  0.0912  0.8388
19668SOL    HW165865   4.811   5.654   2.501 -1.2865  1.0165  1.6969
19668SOL    HW265866   4.803   5.520   2.572  0.3294  0.0184  0.1052
19669SOL     OW65867  10.882  12.412   2.257 -0.3863  0.3793  0.1410
19669SOL    HW165868  10.874  12.460   2.339 -1.5152  0.4011  0.0459
19669SOL    HW265869  10.812  12.346   2.262 -0.3888  0.2995 -0.7410
19670SOL     OW65870   4.400   2.636   8.009  0.1094  0.6123 -0.0330
19670SOL    HW165871   4.448   2.711   8.044  1.6498  0.8892 -2.5139
19670SOL    HW265872   4.316   2.672   7.981  0.4106  1.1840 -0.2109
19671SOL     OW65873   9.155   8.043   9.082 -0.0654 -0.1799  0.1547
19671SOL    HW165874   9.120   8.102   9.149 -1.6490  0.1322 -0.8847
19671SOL    HW265875   9.219   8.096   9.034 -2.0885  1.0868 -1.3262
19672SOL     OW65876   6.042   3.455   0.301  0.2027  0.8508  0.1126
19672SOL    HW165877   5.961   3.504   0.287 -1.1323 -1.5053 -0.9637
19672SOL    HW265878   6.081   3.445   0.214  1.1627  1.1192  0.4934
19673SOL     OW65879  11.564   4.260   4.302  0.1480  0.0908 -0.2812
19673SOL    HW165880  11.476   4.292   4.323 -0.3576 -0.8520 -0.8999
19673SOL    HW265881  11.614   4.339   4.282  0.2357  0.9346  2.7584
19674SOL     OW65882   9.243   4.283   0.574  0.2671  0.3128 -0.5432
19674SOL    HW165883   9.242   4.252   0.665 -0.0538  3.2687  0.5617
19674SOL    HW265884   9.159   4.326   0.562 -0.2056 -1.0510 -2.7091
19675SOL     OW65885   6.156   2.802   8.381  0.9702 -0.0696 -0.1864
19675SOL    HW165886   6.161   2.743   8.456  0.4350  0.1997  0.0606
19675SOL    HW265887   6.090   2.763   8.324  0.2344  0.5478  0.2177
19676SOL     OW65888  10.214   1.047   6.053  0.4725  0.2340 -0.5223
19676SOL    HW165889  10.248   1.065   5.965 -0.0680 -0.2727 -0.8392
19676SOL    HW265890  10.276   0.984   6.090  0.2092 -0.2514 -0.8871
19677SOL     OW65891   1.925   0.611  12.270  0.3732 -0.3538  0.9117
19677SOL    HW165892   1.936   0.552  12.195 -0.1208  0.1239  0.4561
19677SOL    HW265893   2.014   0.635  12.294  0.5817 -1.2135  1.0542
19678SOL     OW65894   7.035   8.713   6.583  0.3153  0.0868 -0.1922
19678SOL    HW165895   7.102   8.646   6.565 -0.7972 -0.5989 -2.0928
19678SOL    HW265896   7.076   8.795   6.557  0.1688 -0.4368 -2.3197
19679SOL     OW65897   0.006  12.257  10.115  0.1142 -0.0174 -0.5528
19679SOL    HW165898   0.064  12.273  10.190  0.9590  2.2701 -1.5747
19679SOL    HW265899   0.054  12.195  10.060 -0.5191 -1.7238  0.7685
19680SOL     OW65900   2.257   6.276   1.020  0.1793 -0.6387  0.5117
19680SOL    HW165901   2.244   6.183   1.000 -2.0879 -0.3185  0.3089
19680SOL    HW265902   2.184   6.299   1.077  0.3029  1.2017 -0.0279
19681SOL     OW65903   2.844   0.005   9.843  0.4941  0.3548 -0.0169
19681SOL    HW165904   2.936   0.031   9.836  0.7266 -0.0996  1.1869
19681SOL    HW265905   2.800   0.056   9.775  1.4718  1.3224  0.0428
19682SOL     OW65906  11.914  11.407  11.219  0.0789 -0.3713  0.0479
19682SOL    HW165907  11.952  11.338  11.274  0.7794  0.9779  1.3131
19682SOL    HW265908  11.935  11.488  11.264  1.9539  0.9666 -2.9026
19683SOL     OW65909  10.121   6.684   5.376 -0.0861  0.3918 -0.6735
19683SOL    HW165910  10.066   6.605   5.371  0.8838 -0.5681  2.1417
19683SOL    HW265911  10.210   6.651   5.365  0.5239  0.6637  2.6298
19684SOL     OW65912   1.788   8.797   3.714 -0.3824  0.3136  0.0879
19684SOL    HW165913   1.866   8.813   3.767  0.3097  1.7754 -1.2807
19684SOL    HW265914   1.812   8.723   3.658 -1.1126 -1.2290  1.6945
19685SOL     OW65915   6.353  10.196   0.953  0.4444 -0.5391 -0.1238
19685SOL    HW165916   6.384  10.184   0.863 -1.1296 -4.0765 -0.3639
19685SOL    HW265917   6.427  10.169   1.007  1.9233  2.9646 -0.1266
19686SOL     OW65918   1.524   7.983   3.977 -0.0791  0.0670  0.1141
19686SOL    HW165919   1.530   7.924   4.053  0.9472 -0.2183 -0.1757
19686SOL    HW265920   1.594   7.954   3.919 -0.2759  0.8730 -0.5373
19687SOL     OW65921   1.191   3.272   5.000 -0.0291  0.0233  0.2663
19687SOL    HW165922   1.158   3.238   5.083 -2.4409  0.9557 -0.2468
19687SOL    HW265923   1.282   3.242   4.997 -0.4287 -1.6310  2.3436
19688SOL     OW65924   9.005   0.567   9.096  0.8036 -0.4679  0.1280
19688SOL    HW165925   9.080   0.509   9.111  0.7761 -0.0279  2.2568
19688SOL    HW265926   8.966   0.580   9.183 -0.6397  0.8058 -0.6496
19689SOL     OW65927  10.601   4.970   2.850  0.3580  0.0892 -0.1382
19689SOL    HW165928  10.630   5.017   2.928  1.7070  0.8155 -1.0430
19689SOL    HW265929  10.681   4.947   2.804 -0.2370 -3.2584  0.2822
19690SOL     OW65930   7.542   1.364   9.363 -0.2361  0.0256  0.5118
19690SOL    HW165931   7.612   1.388   9.424 -0.3463  1.1803  0.1931
19690SOL    HW265932   7.524   1.272   9.384  1.1976 -0.2267  0.7575
19691SOL     OW65933   0.448  12.390  10.595  0.3021  0.4656 -0.0581
19691SOL    HW165934   0.410  12.312  10.555  1.1183 -0.3332  0.6659
19691SOL    HW265935   0.485  12.438  10.521  2.5136 -1.3877 -0.2862
19692SOL     OW65936   0.205   5.672   6.259  0.1162  0.1709  0.0300
19692SOL    HW165937   0.202   5.719   6.176  0.3972  1.0006  0.4865
19692SOL    HW265938   0.152   5.593   6.244  0.3716  0.1885 -1.0080
19693SOL     OW65939  10.951   6.313   2.052 -0.0668  0.2183  0.2687
19693SOL    HW165940  10.966   6.347   2.140  1.6186  0.2743 -0.0064
19693SOL    HW265941  11.026   6.255   2.036 -1.2628 -1.1721 -0.4710
19694SOL     OW65942  11.620  10.652   4.933  0.0890 -0.4245  0.3726
19694SOL    HW165943  11.572  10.633   5.014 -0.7499 -1.6463 -0.3897
19694SOL    HW265944  11.664  10.570   4.911  2.4933  0.6122  0.9648
19695SOL     OW65945   1.068  12.092   0.620 -0.1785 -0.1547  0.3415
19695SOL    HW165946   1.135  12.026   0.633 -0.8170 -0.8388  0.2576
19695SOL    HW265947   1.074  12.148   0.698  0.8756  0.1569  0.0488
19696SOL     OW65948   1.671   7.239   9.736 -0.0116  0.5457 -1.1258
19696SOL    HW165949   1.620   7.304   9.688 -0.2095  0.4164 -1.0899
19696SOL    HW265950   1.611   7.205   9.803  0.4244  1.1033 -0.4472
19697SOL     OW65951   1.413   6.010  10.444  0.3706  0.2151 -1.0238
19697SOL    HW165952   1.484   5.976  10.499 -1.4002 -0.8037  0.7821
19697SOL    HW265953   1.385   6.090  10.488 -1.8110 -1.1929  0.3803
19698SOL     OW65954   9.305   1.856  10.817 -0.6038  0.0216  0.3552
19698SOL    HW165955   9.388   1.826  10.779 -0.1877  0.8441  0.5834
19698SOL    HW265956   9.269   1.915  10.751 -1.6772 -1.3174 -0.3233
19699SOL     OW65957  12.453   2.757   1.501 -0.0878  0.2878  0.5231
19699SOL    HW165958  12.416   2.680   1.544 -0.9722  0.5111  0.1724
19699SOL    HW265959  12.388   2.826   1.515  0.8784  1.0821  1.1810
19700SOL     OW65960   8.044   9.903  10.138  0.4322  0.0325  0.2097
19700SOL    HW165961   7.970   9.857  10.177 -0.0450 -0.3667 -1.0812
19700SOL    HW265962   8.081   9.841  10.075  0.3470  1.0598 -0.9011
19701SOL     OW65963   0.941   9.433   2.469 -0.4124 -0.3684 -0.5622
19701SOL    HW165964   0.923   9.416   2.562 -2.1044 -1.7448 -1.0829
19701SOL    HW265965   0.945   9.346   2.429  0.6410  0.1926 -1.7368
19702SOL     OW65966   5.218   6.384  10.963 -0.1748  0.1958  1.0044
19702SOL    HW165967   5.267   6.465  10.947  0.5429 -0.6359 -1.6708
19702SOL    HW265968   5.150   6.384  10.896 -0.6187 -1.0821  1.4284
19703SOL     OW65969   2.517  12.138   0.175  0.1761 -0.3192  0.2496
19703SOL    HW165970   2.470  12.116   0.095  2.3822  0.8454 -1.5129
19703SOL    HW265971   2.564  12.219   0.153  1.4825 -0.3999  2.4560
19704SOL     OW65972  10.947  10.379   3.738 -0.0143  0.1222 -0.1307
19704SOL    HW165973  10.964  10.394   3.831 -2.4366 -0.4359  0.4654
19704SOL    HW265974  10.933  10.466   3.701 -2.1192  0.1989  0.7341
19705SOL     OW65975  11.490  10.727   6.917 -0.0070  0.2762 -0.0961
19705SOL    HW165976  11.427  10.776   6.970 -1.6012  0.0993 -1.7327
19705SOL    HW265977  11.456  10.638   6.915  0.3900  0.1335 -0.8701
19706SOL     OW65978   7.139   7.537  11.828 -0.2248 -0.1298  0.1875
19706SOL    HW165979   7.185   7.514  11.909  0.2964 -0.3272 -0.1615
19706SOL    HW265980   7.126   7.632  11.835  2.1829  0.3270 -0.6725
19707SOL     OW65981   4.753   7.651   6.559  0.4927 -0.0374 -0.0180
19707SOL    HW165982   4.689   7.595   6.514 -0.0874  1.5666 -1.2643
19707SOL    HW265983   4.819   7.590   6.591  0.2492 -1.3905 -1.9248
19708SOL     OW65984   1.534   7.927  11.538  0.0146 -0.1213 -0.7754
19708SOL    HW165985   1.533   7.860  11.606  3.6471  1.7341  1.4232
19708SOL    HW265986   1.480   7.998  11.573  0.2918  0.0592 -0.7073
19709SOL     OW65987  10.687   3.877   6.709 -0.2548 -0.1679  0.1138
19709SOL    HW165988  10.626   3.847   6.777 -0.0466  1.3122  1.0002
19709SOL    HW265989  10.721   3.960   6.742  0.5545  0.1449 -1.4050
19710SOL     OW65990  10.204   3.060   0.714  0.1963 -0.4804  0.0585
19710SOL    HW165991  10.115   3.095   0.723  0.1202 -0.3097 -1.1731
19710SOL    HW265992  10.216   3.050   0.620  0.9902 -1.8119  0.2849
19711SOL     OW65993   5.400   2.816  10.864 -1.0584 -0.1284  0.8125
19711SOL    HW165994   5.404   2.859  10.950 -3.0371 -0.5540  1.1753
19711SOL    HW265995   5.424   2.884  10.802 -0.4425  0.4249  1.6322
19712SOL     OW65996   2.383   5.205  11.394 -0.1244 -0.2709  0.3195
19712SOL    HW165997   2.436   5.284  11.402 -2.5852  1.4444  0.5717
19712SOL    HW265998   2.420   5.159  11.318  0.5131  1.8283 -0.6932
19713SOL     OW65999   5.160   0.004  10.557  0.2682  0.8109 -0.1413
19713SOL    HW166000   5.188   0.078  10.611  0.6263 -0.2361  1.1524
19713SOL    HW266001   5.242  -0.032  10.522  0.0603  1.3023 -1.1634
19714SOL     OW66002   7.561   9.371   1.503 -0.2901 -0.0821  0.2085
19714SOL    HW166003   7.533   9.444   1.558 -0.4912 -0.9630  1.3186
19714SOL    HW266004   7.542   9.293   1.555 -0.8304 -0.9788 -1.2755
19715SOL     OW66005   8.794  11.998   7.998  0.1165 -0.5114 -0.5861
19715SOL    HW166006   8.725  12.062   7.986  0.2453 -0.2144  0.1688
19715SOL    HW266007   8.820  12.008   8.090  1.2053 -0.5730 -0.8712
19716SOL     OW66008   0.054   7.889   5.721 -0.1176  0.5518 -0.2176
19716SOL    HW166009   0.148   7.883   5.735 -0.1968 -0.3529 -0.0149
19716SOL    HW266010   0.043   7.877   5.627 -0.0239  0.8246 -0.2654
19717SOL     OW66011   4.677   9.470   8.372 -0.1488  0.2260  0.5312
19717SOL    HW166012   4.761   9.482   8.416  1.8418 -3.3705 -1.8299
19717SOL    HW266013   4.616   9.450   8.443  1.9010 -1.0572  2.0582
19718SOL     OW66014   6.359  12.245   1.778 -0.0020  0.1533  0.1556
19718SOL    HW166015   6.305  12.322   1.761  1.3977  1.0424 -0.4299
19718SOL    HW266016   6.402  12.264   1.862  0.5853  0.1737 -0.1416
19719SOL     OW66017   9.865   4.105   4.608 -0.1621  0.7998 -0.4914
19719SOL    HW166018   9.935   4.041   4.590  0.2431  1.2348 -0.4836
19719SOL    HW266019   9.833   4.081   4.695 -0.0538  0.5653 -0.5146
19720SOL     OW66020   0.479   3.218  10.509  0.1034  0.3547  0.2074
19720SOL    HW166021   0.452   3.128  10.522  2.4464 -0.7532 -1.8237
19720SOL    HW266022   0.552   3.230  10.570  2.3141 -0.4951 -2.0933
19721SOL     OW66023   6.936   0.562  10.884  0.0570 -0.2417 -0.0565
19721SOL    HW166024   6.887   0.482  10.864  0.0859 -0.6813  1.5359
19721SOL    HW266025   6.899   0.594  10.966  2.7192 -0.8773  1.5092
19722SOL     OW66026  10.116   5.971   7.332  0.1238  0.2159  0.2947
19722SOL    HW166027  10.191   6.030   7.326 -0.2731  0.6217 -0.8614
19722SOL    HW266028  10.040   6.027   7.319 -0.2321 -0.6012 -1.4712
19723SOL     OW66029   5.325   0.333  12.001  0.2986 -0.4087 -0.1777
19723SOL    HW166030   5.383   0.399  12.040 -1.5700  0.6836  0.8769
19723SOL    HW266031   5.348   0.252  12.045  0.6660  0.1068  0.6094
19724SOL     OW66032   6.827   0.029  10.666 -0.0356  0.6424  0.2094
19724SOL    HW166033   6.895  -0.038  10.662 -1.8528 -1.3819  0.6688
19724SOL    HW266034   6.793   0.034  10.577 -0.9520 -0.3105  0.4719
19725SOL     OW66035   0.907   1.565   1.076 -0.0919  0.1004 -0.6162
19725SOL    HW166036   0.827   1.513   1.087  0.4657 -0.5621  0.5394
19725SOL    HW266037   0.879   1.655   1.086 -0.5747 -0.1760  0.6697
19726SOL     OW66038   9.733   8.396   6.844 -0.0068 -0.1260  0.3856
19726SOL    HW166039   9.667   8.437   6.901 -1.7873 -1.0133 -0.9270
19726SOL    HW266040   9.763   8.320   6.893 -1.5800 -0.9250  0.1640
19727SOL     OW66041   8.029   1.310   1.528 -0.0272 -0.2531 -0.0229
19727SOL    HW166042   8.045   1.320   1.434  1.1834  1.3246  0.3177
19727SOL    HW266043   8.103   1.258   1.560 -0.7954 -1.3899 -0.0211
19728SOL     OW66044   8.650   0.854   7.430  0.1470  0.0814 -0.0472
19728SOL    HW166045   8.608   0.897   7.504  0.4114  0.3868 -0.0710
19728SOL    HW266046   8.616   0.764   7.431 -1.1378  0.5336 -0.5532
19729SOL     OW66047   4.936   0.358   9.668  0.0790  0.6104 -1.1770
19729SOL    HW166048   4.861   0.373   9.725  1.0148 -1.3453  0.7452
19729SOL    HW266049   4.988   0.438   9.674 -0.6333  1.0359 -0.5388
19730SOL     OW66050  10.530   7.110   0.005 -0.5163 -0.4377  0.2530
19730SOL    HW166051  10.559   7.174  -0.061  1.7788 -0.7712  0.8436
19730SOL    HW266052  10.559   7.025  -0.030  1.4014 -0.5525  1.9268
19731SOL     OW66053   2.753  10.928   1.680 -0.1401  0.1228 -0.5835
19731SOL    HW166054   2.739  10.834   1.663 -1.6902  0.4840 -1.5539
19731SOL    HW266055   2.839  10.946   1.643 -0.6832 -0.5246 -2.2633
19732SOL     OW66056  11.890  10.126   8.356 -0.1796  0.3443 -0.3143
19732SOL    HW166057  11.984  10.122   8.339 -0.6514 -1.1337 -3.2204
19732SOL    HW266058  11.879  10.205   8.408  2.5211  1.2828 -0.9767
19733SOL     OW66059   5.585   8.744   6.180 -0.0114  0.1060  0.2882
19733SOL    HW166060   5.548   8.750   6.092 -1.7941 -1.0118  0.9229
19733SOL    HW266061   5.679   8.755   6.167 -0.3475  1.1505 -1.6101
19734SOL     OW66062   5.228   6.156   1.292  0.4051  0.3988  0.1167
19734SOL    HW166063   5.283   6.081   1.314 -0.4712  0.1595  1.6440
19734SOL    HW266064   5.139   6.128   1.315 -0.0641  1.5794 -0.1660
19735SOL     OW66065   2.535   3.744   3.637  0.2460 -0.6963  0.3758
19735SOL    HW166066   2.528   3.837   3.660 -0.2659 -0.6902  0.2114
19735SOL    HW266067   2.597   3.709   3.700  1.5299  0.0469 -0.4274
19736SOL     OW66068   8.880   3.839   2.522 -0.2956  0.4095 -0.2812
19736SOL    HW166069   8.933   3.837   2.442 -1.3587 -0.0643 -1.0051
19736SOL    HW266070   8.835   3.754   2.523 -1.4429  0.9992  0.0081
19737SOL     OW66071   3.184   6.886   4.009 -0.1683  0.5017 -0.4212
19737SOL    HW166072   3.260   6.835   4.036 -0.6176  0.7852  1.5135
19737SOL    HW266073   3.219   6.973   3.989 -0.0215  0.8351  1.1271
19738SOL     OW66074   0.387   5.685   7.414 -0.0189 -0.5424  0.3311
19738SOL    HW166075   0.394   5.607   7.358  1.3014  1.1353 -2.0003
19738SOL    HW266076   0.303   5.723   7.391 -0.1401 -0.6297  0.6181
19739SOL     OW66077   6.027   3.553  10.573  0.7132 -0.6951 -0.0833
19739SOL    HW166078   6.058   3.504  10.497  1.0883  0.0603 -0.4312
19739SOL    HW266079   5.939   3.581  10.549  0.0537 -2.1043  0.5576
19740SOL     OW66080  10.378   4.205   7.666  1.1997 -0.1184 -0.4781
19740SOL    HW166081  10.428   4.280   7.635 -0.0110  0.4475 -1.1426
19740SOL    HW266082  10.436   4.130   7.654  1.1237  0.1695 -3.4568
19741SOL     OW66083   0.561   2.811  11.961 -0.7187  0.0121  0.3832
19741SOL    HW166084   0.566   2.868  12.038 -1.6964 -0.3387  0.7175
19741SOL    HW266085   0.649   2.814  11.923 -0.3074  0.4127  1.3482
19742SOL     OW66086   6.152  11.788   1.232 -0.0587 -0.2023  0.1865
19742SOL    HW166087   6.195  11.854   1.287 -0.6517 -1.3111  2.0972
19742SOL    HW266088   6.061  11.817   1.226  0.0569  0.0449 -0.4566
19743SOL     OW66089   7.024   4.539   3.674 -0.1289  0.3193  0.0390
19743SOL    HW166090   7.068   4.623   3.671  0.8130 -0.1226  1.0037
19743SOL    HW266091   7.006   4.518   3.582  0.0575  1.3254 -0.2408
19744SOL     OW66092  10.870  11.025   1.719 -0.0751 -0.1006  0.4232
19744SOL    HW166093  10.861  10.979   1.803  0.8182  1.3902  1.3859
19744SOL    HW266094  10.892  10.957   1.656  1.5783 -0.9723  1.8604
19745SOL     OW66095   7.602  10.720  12.479  0.3242  0.4039  0.4296
19745SOL    HW166096   7.691  10.746  12.455  0.7986 -0.1207  1.5526
19745SOL    HW266097   7.598  10.731  12.574 -0.1683 -1.4286  0.6627
19746SOL     OW66098   2.456   6.043   4.193 -0.8663  0.1146  0.0194
19746SOL    HW166099   2.518   6.075   4.127 -1.3939  0.5372 -0.2829
19746SOL    HW266100   2.409   6.121   4.222 -0.3717 -0.0132  1.1935
19747SOL     OW66101  11.838   9.270   8.388  0.2026  0.0641  0.5714
19747SOL    HW166102  11.795   9.284   8.304 -0.0763  2.9482  1.0707
19747SOL    HW266103  11.766   9.271   8.452  0.4795 -1.3397  0.9227
19748SOL     OW66104   1.605   6.898   4.285  0.0725  0.3719 -0.8121
19748SOL    HW166105   1.637   6.895   4.195  2.3567 -0.7372 -0.0445
19748SOL    HW266106   1.637   6.981   4.319  1.8048 -0.4937 -0.2094
19749SOL     OW66107  12.466   8.783   0.475  0.1881 -0.1065 -0.3635
19749SOL    HW166108  12.384   8.825   0.501  0.2059 -0.4805  0.3208
19749SOL    HW266109  12.515   8.851   0.429 -0.1394  0.3760 -0.0071
19750SOL     OW66110   8.341   4.232   9.695 -0.1305  0.1961 -0.0611
19750SOL    HW166111   8.260   4.228   9.645 -0.1111 -1.4321  0.0001
19750SOL    HW266112   8.322   4.293   9.766 -1.8305 -1.2926  0.8336
19751SOL     OW66113   2.654   4.924   8.535  0.0349 -0.1371 -0.1596
19751SOL    HW166114   2.742   4.957   8.519  0.6646 -2.3001 -1.5909
19751SOL    HW266115   2.639   4.939   8.629  2.1487 -0.2170  0.2261
19752SOL     OW66116   6.361   7.651  12.466  0.3237  0.1729 -0.1657
19752SOL    HW166117   6.319   7.663  12.551  0.2553 -0.1091 -0.1582
19752SOL    HW266118   6.399   7.737  12.445 -1.8454  0.9958 -1.0446
19753SOL     OW66119   9.358   4.927   2.140 -0.3161 -0.2349  0.4843
19753SOL    HW166120   9.417   4.857   2.167  1.0637  0.0759 -1.4477
19753SOL    HW266121   9.270   4.889   2.146  0.2757 -1.5532  1.0961
19754SOL     OW66122  11.637  11.680   4.509 -0.5041  0.6466 -0.1378
19754SOL    HW166123  11.622  11.602   4.562  1.0581 -1.0572 -2.0022
19754SOL    HW266124  11.699  11.733   4.559 -1.4366  0.6346  1.0634
19755SOL     OW66125   7.958   7.566   9.643  0.4547 -0.2863 -0.0841
19755SOL    HW166126   7.947   7.590   9.736  0.3031 -0.4635 -0.0548
19755SOL    HW266127   8.040   7.608   9.617  0.5792 -0.3647  0.1746
19756SOL     OW66128   1.618  11.103  12.201  0.0108  0.6670 -0.1098
19756SOL    HW166129   1.639  11.165  12.271  1.6601  0.2139 -0.1497
19756SOL    HW266130   1.523  11.096  12.202  0.0178  0.3020  2.4173
19757SOL     OW66131  11.824   3.644   6.735  0.0319 -0.0793 -0.4039
19757SOL    HW166132  11.853   3.604   6.653 -0.5793  0.9080 -1.1274
19757SOL    HW266133  11.735   3.675   6.716 -0.0426  0.3452  0.5745
19758SOL     OW66134   2.854  10.707   6.505  0.2090 -0.1287  0.0833
19758SOL    HW166135   2.803  10.690   6.584  2.0314 -2.8725  0.8015
19758SOL    HW266136   2.937  10.662   6.519  0.9124 -0.1077 -3.0997
19759SOL     OW66137   9.139   8.415   5.638 -0.2842  0.7322  0.2631
19759SOL    HW166138   9.095   8.354   5.697  1.9653 -1.0060  0.3121
19759SOL    HW266139   9.166   8.488   5.693 -0.0501  0.1206  0.9711
19760SOL     OW66140   8.415   2.571   6.438  0.1750 -0.6197 -0.1123
19760SOL    HW166141   8.459   2.515   6.503 -0.1163 -0.7662 -0.0389
19760SOL    HW266142   8.322   2.557   6.455  0.1013 -0.3624 -0.3122
19761SOL     OW66143   9.299  10.988   1.451  0.4189  0.1491 -0.0804
19761SOL    HW166144   9.308  11.078   1.482 -0.2234  0.3637 -0.4823
19761SOL    HW266145   9.362  10.938   1.502 -0.0631  0.6214  1.0054
19762SOL     OW66146  11.591  10.409   7.940  0.5772  0.0411 -0.4601
19762SOL    HW166147  11.661  10.432   8.001  0.4095 -0.4159 -0.0868
19762SOL    HW266148  11.515  10.458   7.972  0.4962 -0.1774 -0.3163
19763SOL     OW66149   9.215   9.275   4.503  0.4337 -0.1332 -0.0728
19763SOL    HW166150   9.254   9.233   4.426  0.1332  1.1481 -0.9637
19763SOL    HW266151   9.171   9.353   4.468 -0.8974 -0.2499  1.2170
19764SOL     OW66152  11.564   7.231  10.409 -0.6711  0.0184 -0.5823
19764SOL    HW166153  11.550   7.326  10.400 -0.0094  0.0531 -1.3334
19764SOL    HW266154  11.476   7.196  10.426 -0.8292  0.8313  0.4047
19765SOL     OW66155   8.859   7.203   1.213  0.0573 -0.0081 -0.3923
19765SOL    HW166156   8.817   7.200   1.299  1.4442  3.2390  0.5261
19765SOL    HW266157   8.936   7.146   1.222 -0.5370 -0.7777  0.0156
19766SOL     OW66158   8.170  11.334  12.291 -0.0503  0.2774  0.1721
19766SOL    HW166159   8.123  11.397  12.237  1.4340  1.3319  0.0390
19766SOL    HW266160   8.243  11.384  12.327  0.9275 -1.2669  0.4231
19767SOL     OW66161   4.467  11.804   9.444  0.0809 -0.0404 -0.2797
19767SOL    HW166162   4.450  11.860   9.369 -0.9604  1.0425  0.7196
19767SOL    HW266163   4.385  11.755   9.456  0.7055 -1.2145 -0.6550
19768SOL     OW66164  12.448   3.782   8.710  0.1494  0.0267  0.1331
19768SOL    HW166165  12.537   3.809   8.733  0.3292  1.0374 -1.6068
19768SOL    HW266166  12.392   3.849   8.747  0.2943  0.6104 -0.6852
19769SOL     OW66167   9.053   3.117   8.791 -0.0306  0.4957  0.4117
19769SOL    HW166168   9.092   3.098   8.705 -1.6847 -0.4078 -0.1898
19769SOL    HW266169   8.967   3.152   8.770  0.0391  1.5059  1.7118
19770SOL     OW66170   5.311   7.926   7.044 -0.2754  0.2002 -0.1254
19770SOL    HW166171   5.391   7.874   7.036  0.2089  1.0544 -0.9770
19770SOL    HW266172   5.299   7.938   7.138  1.2578  1.0470 -0.0114
19771SOL     OW66173   4.420   6.350   3.663  0.2952 -0.4131  0.4680
19771SOL    HW166174   4.386   6.273   3.616 -1.1601  0.3690  0.1588
19771SOL    HW266175   4.364   6.422   3.633  0.4452  0.4313  2.1042
19772SOL     OW66176   4.223   2.667  10.766  0.3195 -0.3341 -0.1244
19772SOL    HW166177   4.278   2.691  10.691 -0.2386 -1.2094 -0.8332
19772SOL    HW266178   4.283   2.629  10.830  0.8379  0.6452 -0.0120
19773SOL     OW66179   1.759   8.995   2.414 -0.1195  0.3036 -0.5794
19773SOL    HW166180   1.756   8.999   2.510 -0.9241 -0.5536 -0.5622
19773SOL    HW266181   1.738   9.084   2.386 -1.0629  0.2842  0.0277
19774SOL     OW66182   8.777   4.719   5.767 -0.1184  0.0080 -0.2405
19774SOL    HW166183   8.713   4.738   5.698 -1.5233 -1.6570  0.5162
19774SOL    HW266184   8.725   4.714   5.847  1.2430  0.2644  0.7018
19775SOL     OW66185   3.765   2.664   1.821  0.6220 -0.5400 -0.1478
19775SOL    HW166186   3.720   2.736   1.865 -0.2600 -0.6469 -0.8479
19775SOL    HW266187   3.765   2.593   1.885 -0.6448 -0.6936 -0.2937
19776SOL     OW66188  12.215  11.499   3.334 -0.3582 -0.3277 -0.6806
19776SOL    HW166189  12.238  11.421   3.384  0.9364  0.7079  0.4355
19776SOL    HW266190  12.120  11.501   3.334 -0.4262 -2.2772 -1.3622
19777SOL     OW66191   4.410  11.145   8.772  0.5574  0.8030 -0.0291
19777SOL    HW166192   4.351  11.081   8.814  0.4014  1.2652  0.4665
19777SOL    HW266193   4.417  11.114   8.682  0.9419 -0.2429  0.3368
19778SOL     OW66194  11.264   4.750   1.262 -0.3850  0.5570  0.6691
19778SOL    HW166195  11.321   4.678   1.289  0.6386  2.2103  3.3037
19778SOL    HW266196  11.180   4.732   1.306 -1.2705 -0.7028 -1.4037
19779SOL     OW66197  10.294   9.754  10.844 -0.2964  0.1354  0.2557
19779SOL    HW166198  10.303   9.849  10.845 -1.1611  0.2235  0.1582
19779SOL    HW266199  10.227   9.735  10.910  0.3656 -0.4650  0.7818
19780SOL     OW66200   8.953  10.088   6.061  0.0866 -0.5159 -0.3152
19780SOL    HW166201   8.959  10.055   5.971  0.8701  0.5369 -0.6638
19780SOL    HW266202   9.030  10.052   6.105  1.1813  1.1375 -0.8123
19781SOL     OW66203   6.447  10.865   5.006  0.4642 -0.1839  0.3166
19781SOL    HW166204   6.433  10.958   5.023 -0.3069 -0.1723 -0.3441
19781SOL    HW266205   6.419  10.821   5.086 -0.4134  0.0639  0.1491
19782SOL     OW66206   1.788   6.187   3.088  0.6754 -0.0636  0.0114
19782SOL    HW166207   1.722   6.131   3.047  1.9094 -0.3878 -1.6118
19782SOL    HW266208   1.837   6.225   3.015  0.6269  2.2713  1.0863
19783SOL     OW66209  11.880  11.711   6.070 -0.1015 -0.0336 -0.3357
19783SOL    HW166210  11.838  11.642   6.122 -0.4941 -1.1891 -2.0844
19783SOL    HW266211  11.807  11.768   6.044 -0.1628 -0.3744 -0.9313
19784SOL     OW66212   3.490   7.389   1.096 -0.0740 -0.1780  0.4111
19784SOL    HW166213   3.521   7.466   1.049 -0.6421  0.6954  1.4162
19784SOL    HW266214   3.428   7.424   1.160  0.3649 -1.3659  1.5210
19785SOL     OW66215  10.070   9.498   4.862  0.3007  0.0534 -0.8214
19785SOL    HW166216  10.040   9.445   4.936  1.6583 -1.1375 -1.0868
19785SOL    HW266217  10.076   9.587   4.898 -0.7921 -0.1726 -0.0188
19786SOL     OW66218   3.539   2.154   1.261  0.1553 -0.2593  0.1777
19786SOL    HW166219   3.610   2.093   1.282  1.4784  1.4198  0.8265
19786SOL    HW266220   3.568   2.238   1.298 -2.0355  0.5556  0.1789
19787SOL     OW66221   0.171   9.869   1.767 -0.5724  0.1186 -0.0897
19787SOL    HW166222   0.172   9.793   1.708 -0.5921 -2.3063  2.7746
19787SOL    HW266223   0.263   9.881   1.791 -0.8434 -1.2621  1.9595
19788SOL     OW66224  10.638  10.250  11.887 -0.1162  0.4121  0.8899
19788SOL    HW166225  10.659  10.312  11.957  0.5616  0.7269  0.4163
19788SOL    HW266226  10.678  10.167  11.915 -1.1838  0.1181  1.6135
19789SOL     OW66227  11.369   9.759   6.173  0.4553 -0.1980 -0.9111
19789SOL    HW166228  11.412   9.828   6.122  1.1727 -1.3176 -1.8557
19789SOL    HW266229  11.383   9.785   6.264 -1.8115  2.4531 -1.1624
19790SOL     OW66230   0.575   7.440   3.928 -0.5020  0.1091 -0.0766
19790SOL    HW166231   0.572   7.532   3.953 -0.0083  0.3236 -0.7931
19790SOL    HW266232   0.657   7.407   3.966 -0.8790 -0.1463  0.5327
19791SOL     OW66233   6.034   3.148   6.390  0.6879 -0.3647  0.4355
19791SOL    HW166234   5.941   3.128   6.380  0.8436 -0.1744 -2.3362
19791SOL    HW266235   6.069   3.139   6.301  2.9629  1.3273  1.0826
19792SOL     OW66236  10.174   5.376   7.882 -0.4554  0.0664 -0.1691
19792SOL    HW166237  10.198   5.331   7.963  0.8715  2.1782  0.7129
19792SOL    HW266238  10.097   5.330   7.850 -2.1779  0.2471  3.2852
19793SOL     OW66239   9.272   5.013   1.004 -0.5156 -0.0772  0.2867
19793SOL    HW166240   9.354   5.033   0.959 -0.6916  2.3225  0.9123
19793SOL    HW266241   9.279   4.920   1.026  0.9956 -0.4943 -1.7129
19794SOL     OW66242   9.553   6.918  11.267  0.1561 -0.3780 -0.0904
19794SOL    HW166243   9.624   6.982  11.270  0.3235 -0.5871  1.0080
19794SOL    HW266244   9.570   6.859  11.341 -0.5824 -1.0548 -0.4387
19795SOL     OW66245  11.993  12.212   4.852  0.4018 -0.0167 -0.0249
19795SOL    HW166246  11.980  12.306   4.840 -0.4804  0.0132  1.0125
19795SOL    HW266247  11.913  12.183   4.896  1.3771 -0.9599  1.1662
19796SOL     OW66248  11.866   0.959   5.528  0.1209  0.4224  0.0367
19796SOL    HW166249  11.786   0.936   5.480 -0.3446  0.2600  0.8823
19796SOL    HW266250  11.835   1.009   5.603  0.8851  1.0394 -0.0573
19797SOL     OW66251  12.147   4.609   6.421  0.8621  0.1290 -0.6676
19797SOL    HW166252  12.231   4.565   6.410 -0.3243 -2.5429 -0.0491
19797SOL    HW266253  12.136   4.615   6.516 -0.6992 -2.0341 -0.6153
19798SOL     OW66254   4.379   1.189  11.209  0.2942  0.3165 -0.0049
19798SOL    HW166255   4.380   1.238  11.291 -1.3384  2.5531 -1.2154
19798SOL    HW266256   4.447   1.231  11.156  0.7260 -0.5264 -0.1237
19799SOL     OW66257   5.410   7.506  10.533  0.1795  0.3748  0.0841
19799SOL    HW166258   5.382   7.492  10.624 -0.0796 -0.2908 -0.0966
19799SOL    HW266259   5.329   7.522  10.486  0.2458 -0.0080 -0.1620
19800SOL     OW66260  12.135   0.895   4.119  0.0929 -0.4308 -0.3923
19800SOL    HW166261  12.218   0.899   4.168 -0.3612 -1.1829  0.4693
19800SOL    HW266262  12.071   0.937   4.175 -0.0883  0.3265 -1.1447
19801SOL     OW66263   9.637  12.405   7.409 -0.3322  0.1837 -0.3856
19801SOL    HW166264   9.648  12.313   7.432  0.7881  0.5660  0.6786
19801SOL    HW266265   9.551  12.408   7.365 -1.5294 -0.9890  1.6985
19802SOL     OW66266   3.549   1.287   0.305 -0.8517 -0.0297  0.2717
19802SOL    HW166267   3.540   1.340   0.226  1.4288 -0.6596 -0.5011
19802SOL    HW266268   3.541   1.196   0.274 -0.6407 -0.2540  0.8624
19803SOL     OW66269   8.273   0.976   8.337  0.1492  0.1551 -0.3212
19803SOL    HW166270   8.283   1.059   8.289  0.3887  1.0953  1.2854
19803SOL    HW266271   8.344   0.921   8.305  1.4190  1.4070  0.2205
19804SOL     OW66272   0.541   5.894   7.353  0.3749  0.7580  0.5227
19804SOL    HW166273   0.622   5.854   7.322  1.0328  0.1382  2.8580
19804SOL    HW266274   0.485   5.820   7.376 -0.9107  1.1793 -1.0639
19805SOL     OW66275   4.462   8.399   2.896 -0.0630  0.0905 -0.4571
19805SOL    HW166276   4.463   8.481   2.846 -1.5591 -0.0479 -0.7753
19805SOL    HW266277   4.380   8.403   2.946  0.7741 -0.3587  1.0079
19806SOL     OW66278   9.974   3.763   8.040  0.2983 -0.0282 -0.3439
19806SOL    HW166279   9.961   3.670   8.063  1.1138 -0.2535 -0.7666
19806SOL    HW266280   9.889   3.791   8.007 -0.1601 -0.4257  0.4650
19807SOL     OW66281   6.044   4.937   7.553  0.1570  0.0654  0.2079
19807SOL    HW166282   6.084   4.893   7.479 -3.4583  0.5177 -2.3030
19807SOL    HW266283   6.003   5.015   7.515 -1.9029  0.3060  2.6221
19808SOL     OW66284   2.111   8.069   0.205 -0.3726  0.3077 -0.4217
19808SOL    HW166285   2.092   8.162   0.217  0.5445  0.7232 -1.9211
19808SOL    HW266286   2.091   8.052   0.113  0.7822 -0.6357 -0.5216
19809SOL     OW66287   2.896   7.945   4.149 -0.3297 -0.4844  0.3451
19809SOL    HW166288   2.943   7.864   4.130  1.7367  1.0023 -1.4389
19809SOL    HW266289   2.962   8.013   4.141 -2.0618  1.4298  1.4365
19810SOL     OW66290   0.008   0.869   0.153 -0.0404 -0.2090 -0.0975
19810SOL    HW166291   0.102   0.884   0.164  0.3389 -3.1053  1.7604
19810SOL    HW266292  -0.034   0.935   0.208  1.0072 -0.0134  0.4883
19811SOL     OW66293   8.992   1.326  10.352 -0.4513 -0.7473 -0.3082
19811SOL    HW166294   8.995   1.422  10.357 -2.1448 -0.6662 -0.4945
19811SOL    HW266295   8.920   1.301  10.410  0.3901 -1.9714  0.2534
19812SOL     OW66296  11.959  10.459   4.907  0.5373  0.0062 -0.4642
19812SOL    HW166297  12.006  10.509   4.973 -0.8954  0.6480  0.1109
19812SOL    HW266298  12.008  10.473   4.826  0.5246  1.8344 -0.1868
19813SOL     OW66299   9.465   9.212   5.467  0.7984  0.0456 -0.0472
19813SOL    HW166300   9.436   9.259   5.389  0.2781  1.1451  0.7917
19813SOL    HW266301   9.464   9.120   5.441  2.6466  0.4942 -1.9884
19814SOL     OW66302   4.761   4.040   0.084 -1.0084  0.4614 -0.4305
19814SOL    HW166303   4.813   4.055   0.005 -0.9927 -0.7272 -0.6578
19814SOL    HW266304   4.702   4.115   0.089  0.8981  2.0047 -0.0148
19815SOL     OW66305   5.279   6.260  12.167 -0.2042 -0.2105  0.6404
19815SOL    HW166306   5.313   6.347  12.149  1.0780 -0.4221  1.9356
19815SOL    HW266307   5.184   6.272  12.171 -0.1360  0.8826 -0.3581
19816SOL     OW66308  10.189   6.577   7.472 -0.0862  0.2101  0.3845
19816SOL    HW166309  10.247   6.634   7.423  0.9901  0.8731  2.3329
19816SOL    HW266310  10.246   6.531   7.533 -1.5630  0.8373  2.3304
19817SOL     OW66311   6.598   9.899   7.430 -0.4164 -0.1491  0.2384
19817SOL    HW166312   6.611   9.991   7.455  1.2462 -0.1700 -0.4184
19817SOL    HW266313   6.601   9.900   7.334  2.0963 -1.1607  0.2470
19818SOL     OW66314   7.705  10.213   6.565 -0.3352 -0.1188 -0.4301
19818SOL    HW166315   7.660  10.131   6.587  0.8072 -0.6684 -0.0866
19818SOL    HW266316   7.702  10.264   6.646 -1.3374  0.3446 -0.7349
19819SOL     OW66317   2.452   3.531   1.777  0.4398 -0.6965 -0.4991
19819SOL    HW166318   2.460   3.526   1.873  1.4617 -0.5662 -0.5677
19819SOL    HW266319   2.472   3.622   1.757 -1.4250 -0.2904 -0.7124
19820SOL     OW66320   4.731   9.309   5.092 -0.0840 -0.4614 -0.0013
19820SOL    HW166321   4.728   9.389   5.039  1.5598 -0.9983 -0.9981
19820SOL    HW266322   4.764   9.337   5.177 -0.4827  0.0608 -0.0155
19821SOL     OW66323   5.667   4.543   6.382 -0.2996  0.3894 -0.0451
19821SOL    HW166324   5.758   4.525   6.408 -0.5210 -1.4996 -0.4386
19821SOL    HW266325   5.639   4.464   6.336 -1.7783  1.4108 -0.9884
19822SOL     OW66326   1.782   1.511  10.550 -0.0610 -0.4103  0.0636
19822SOL    HW166327   1.751   1.472  10.468  0.1240 -0.2200 -0.0982
19822SOL    HW266328   1.723   1.585  10.565 -1.1269 -1.4069  0.9630
19823SOL     OW66329  12.022   6.809   5.734  0.2711 -0.4125 -0.0220
19823SOL    HW166330  11.964   6.787   5.662  0.7376 -0.9563 -0.2320
19823SOL    HW266331  12.110   6.793   5.701  0.6118  1.2330 -0.0029
19824SOL     OW66332   2.576   7.749   3.057 -0.2000 -0.0396  0.3778
19824SOL    HW166333   2.564   7.661   3.021 -0.5871  0.7126 -1.4563
19824SOL    HW266334   2.655   7.782   3.013 -1.4006  1.3849 -0.8214
19825SOL     OW66335   6.008  11.184   6.884 -0.0656 -0.2105 -0.0860
19825SOL    HW166336   5.971  11.236   6.813  0.6262 -0.1093 -0.3830
19825SOL    HW266337   6.041  11.249   6.947 -1.1747 -0.2947  0.6111
19826SOL     OW66338   9.591   5.982   6.823 -0.0199  0.4284  0.1395
19826SOL    HW166339   9.507   5.935   6.831 -0.2667  1.0734  1.7696
19826SOL    HW266340   9.645   5.925   6.768 -1.7298  0.3119 -1.5108
19827SOL     OW66341  11.932   4.057   8.754 -0.3707  0.7099 -0.1288
19827SOL    HW166342  11.908   3.968   8.728  1.3521 -0.0707  0.7841
19827SOL    HW266343  11.904   4.064   8.845  0.6475  0.6070  0.2105
19828SOL     OW66344  11.265   8.805  11.286 -0.0621 -0.1454 -0.2966
19828SOL    HW166345  11.316   8.726  11.302  0.1504  0.1355  0.4312
19828SOL    HW266346  11.289   8.831  11.197  0.1897 -0.6604 -0.3815
19829SOL     OW66347   1.692   5.748   1.068 -0.4523 -0.1217 -0.1807
19829SOL    HW166348   1.747   5.827   1.068 -0.1830 -0.2886  0.9997
19829SOL    HW266349   1.606   5.779   1.096 -1.0793  0.1918 -2.3285
19830SOL     OW66350  10.205   1.781  12.285  0.2155  0.0618 -0.6348
19830SOL    HW166351  10.141   1.743  12.225 -1.7240 -0.1733  1.4561
19830SOL    HW266352  10.238   1.707  12.334  2.2854  0.1666 -1.7630
19831SOL     OW66353  10.342   4.316   8.270  0.0038  0.0738  0.0638
19831SOL    HW166354  10.347   4.251   8.200 -1.1412  1.2172 -1.1393
19831SOL    HW266355  10.288   4.275   8.338  0.1417 -0.6145 -0.2425
19832SOL     OW66356   7.396   1.670   6.693  0.2315 -0.5377  0.3220
19832SOL    HW166357   7.461   1.627   6.638 -0.5814 -1.2056 -0.1543
19832SOL    HW266358   7.375   1.751   6.647 -1.9224 -1.9990 -1.5386
19833SOL     OW66359   9.804  10.125   5.070  0.3915 -0.3703 -0.0433
19833SOL    HW166360   9.836  10.065   5.137 -0.6827 -1.1797 -0.2082
19833SOL    HW266361   9.837  10.088   4.988  1.1005  0.2099 -0.0293
19834SOL     OW66362   1.314   3.952   0.453  0.6007  0.0516  0.3556
19834SOL    HW166363   1.372   3.891   0.408  0.3687  0.2030 -0.1515
19834SOL    HW266364   1.270   4.000   0.383  1.5661  1.5692  0.7378
19835SOL     OW66365   9.572   1.189   5.309  0.3290 -0.1545  0.1924
19835SOL    HW166366   9.602   1.147   5.390  0.5353  1.3566  0.9394
19835SOL    HW266367   9.525   1.267   5.339  2.4145  1.7472 -1.1317
19836SOL     OW66368   3.817   5.250  10.246  0.0718 -0.1624 -0.1017
19836SOL    HW166369   3.727   5.276  10.226 -0.9278 -3.0826  0.0425
19836SOL    HW266370   3.830   5.274  10.337 -0.5987  0.2361 -0.1054
19837SOL     OW66371  10.829  10.909   3.511  0.5692  0.2079 -0.8934
19837SOL    HW166372  10.805  10.876   3.598  2.4148 -0.4421 -0.5818
19837SOL    HW266373  10.753  10.960   3.483  1.0884  3.1265  2.4193
19838SOL     OW66374   1.591  12.446   3.033 -0.1812  0.1281  0.2725
19838SOL    HW166375   1.501  12.443   3.001 -0.3323 -0.6467  0.7438
19838SOL    HW266376   1.592  12.387   3.108  1.0901 -1.1490 -0.6840
19839SOL     OW66377   0.925   4.397   9.549  0.3536  0.1979  0.6338
19839SOL    HW166378   0.898   4.318   9.595 -1.8416 -0.5156 -1.6282
19839SOL    HW266379   0.934   4.369   9.458 -1.4695  2.6883 -0.4258
19840SOL     OW66380   3.526  11.236   1.924  0.3493 -0.4579  0.5197
19840SOL    HW166381   3.587  11.287   1.978  0.1018  0.8467 -0.3947
19840SOL    HW266382   3.445  11.233   1.975  0.3706  0.0605  0.5882
19841SOL     OW66383   1.035   9.243  10.964  0.4855 -0.1676 -0.0208
19841SOL    HW166384   1.011   9.150  10.962  3.0749 -0.8999  0.2546
19841SOL    HW266385   1.093   9.252  11.039  2.1729  1.1591 -1.4054
19842SOL     OW66386   0.178   0.859   4.150  0.3658 -1.0661 -0.1142
19842SOL    HW166387   0.130   0.845   4.069 -0.3714 -0.2014  0.1467
19842SOL    HW266388   0.255   0.909   4.125 -2.1838  3.5498  0.1637
19843SOL     OW66389   7.459  11.149   6.666  0.1990 -0.0360  0.6411
19843SOL    HW166390   7.551  11.129   6.685  0.5678 -0.4774 -1.3633
19843SOL    HW266391   7.461  11.191   6.580 -1.6332 -2.0431 -0.4840
19844SOL     OW66392   2.712  11.250   6.627 -0.2966  0.3092 -0.1743
19844SOL    HW166393   2.694  11.324   6.569 -0.3649  2.4801  2.4034
19844SOL    HW266394   2.808  11.252   6.638 -0.3839  0.6810  0.6332
19845SOL     OW66395   8.983  11.891  10.997  0.1630  0.7643 -0.0490
19845SOL    HW166396   9.072  11.894  11.033 -0.4338  0.6966  1.5524
19845SOL    HW266397   8.927  11.881  11.075 -1.2682  1.2022 -0.9930
19846SOL     OW66398   2.999   8.227  11.828 -0.2106 -0.2213 -0.2222
19846SOL    HW166399   2.922   8.171  11.818  0.0751 -0.9169  1.2448
19846SOL    HW266400   2.965   8.310  11.859 -0.3558 -0.6626  0.8354
19847SOL     OW66401   6.541   4.209   9.625  0.6350  0.3379  0.5127
19847SOL    HW166402   6.463   4.164   9.658  1.3311 -1.1903  0.1544
19847SOL    HW266403   6.557   4.278   9.689  0.4470 -0.9224  2.0016
19848SOL     OW66404   6.856   0.857  12.244 -0.4582 -0.2855 -0.2509
19848SOL    HW166405   6.826   0.944  12.221  0.6504  0.8230  2.1296
19848SOL    HW266406   6.949   0.856  12.219 -0.8791 -1.4767 -1.9284
19849SOL     OW66407   6.674  10.806   1.082  0.0457  0.8822 -0.7651
19849SOL    HW166408   6.767  10.801   1.060  0.6820  0.8644  1.7253
19849SOL    HW266409   6.644  10.887   1.040  1.2168  0.9908 -1.4452
19850SOL     OW66410   8.537   4.010   6.011  0.2398  0.1618  0.7658
19850SOL    HW166411   8.485   3.984   5.934  0.0826 -1.1641  1.2981
19850SOL    HW266412   8.618   4.046   5.974 -0.2258  0.4049 -0.0343
19851SOL     OW66413   2.898   2.746  11.704  0.3064 -0.7527  0.0361
19851SOL    HW166414   2.852   2.829  11.712  1.2304 -0.2099 -0.0899
19851SOL    HW266415   2.875   2.714  11.617 -1.5538 -1.5905  0.7775
19852SOL     OW66416   7.958  11.858   5.262  0.6035  0.4148  0.2241
19852SOL    HW166417   8.027  11.795   5.284  2.0762  1.4748 -1.1020
19852SOL    HW266418   8.003  11.942   5.256 -1.6223  2.0915  3.8989
19853SOL     OW66419   3.520   7.699  12.441 -0.1729  0.1512  0.0488
19853SOL    HW166420   3.555   7.682  12.528  0.7297  0.7401 -0.1864
19853SOL    HW266421   3.596   7.696  12.383 -0.6148  0.7701 -0.5784
19854SOL     OW66422   3.824   7.871   4.963 -0.1202 -0.1873 -0.3018
19854SOL    HW166423   3.746   7.850   5.014  0.0874 -2.7949 -0.9449
19854SOL    HW266424   3.854   7.787   4.929  1.5868  1.0638 -2.0845
19855SOL     OW66425   3.196   5.086   0.068 -0.1606 -0.5826 -0.4232
19855SOL    HW166426   3.271   5.098   0.009  2.3326 -0.0801  2.5693
19855SOL    HW266427   3.153   5.171   0.070  0.6882 -0.1479 -0.3253
19856SOL     OW66428   4.475   7.102   8.109 -0.1302  0.4161  0.2824
19856SOL    HW166429   4.461   7.157   8.187 -0.1373 -0.1152  0.6652
19856SOL    HW266430   4.537   7.151   8.056 -0.0272  0.7333  0.6850
19857SOL     OW66431  11.010   9.933   3.007 -0.2074  0.1053  0.0413
19857SOL    HW166432  10.976  10.011   2.964 -0.1620  0.5906  0.8639
19857SOL    HW266433  11.021   9.959   3.099  0.5733 -0.6154  0.1671
19858SOL     OW66434   3.368   1.510   2.212  0.2532 -0.0631 -0.4383
19858SOL    HW166435   3.377   1.469   2.126  0.7593 -0.1461 -0.3455
19858SOL    HW266436   3.451   1.555   2.227  0.0303  0.2660 -0.1531
19859SOL     OW66437   9.942   3.501   9.960 -0.0299  0.5967 -0.0150
19859SOL    HW166438   9.876   3.566   9.937  0.0753  0.5861 -0.3488
19859SOL    HW266439   9.936   3.493  10.055  1.6356  2.9239  0.3801
19860SOL     OW66440  11.951   4.348  10.540  0.0825  0.0535 -0.1317
19860SOL    HW166441  12.008   4.292  10.488 -0.8511  0.0058 -1.1387
19860SOL    HW266442  12.010   4.406  10.586  1.1348 -2.0807  1.3859
19861SOL     OW66443   0.358  10.349  11.484  0.3882 -0.3736 -0.2335
19861SOL    HW166444   0.274  10.382  11.452  0.3420 -0.5564 -0.3004
19861SOL    HW266445   0.343  10.332  11.577  0.2589 -0.7079 -0.3144
19862SOL     OW66446   9.883   0.118   4.902 -0.7791  0.4013 -0.3987
19862SOL    HW166447   9.836   0.118   4.985 -0.6817  1.3100 -0.3230
19862SOL    HW266448   9.968   0.157   4.923 -0.1115 -0.8893 -0.6052
19863SOL     OW66449  11.808   0.552   9.982  0.1392 -0.0472 -0.4166
19863SOL    HW166450  11.854   0.481  10.027  0.8681 -0.5181 -1.8265
19863SOL    HW266451  11.716   0.538  10.004  0.0602 -2.3951 -1.8229
19864SOL     OW66452   5.382   1.115  10.197  0.0560  0.4327 -0.1153
19864SOL    HW166453   5.465   1.092  10.154 -0.1866 -1.0543  0.1761
19864SOL    HW266454   5.406   1.125  10.290  0.1071  1.1487 -0.1981
19865SOL     OW66455  12.180   5.657  10.769  0.3124  0.3051  0.4630
19865SOL    HW166456  12.145   5.741  10.740 -0.1592  0.7222  2.1762
19865SOL    HW266457  12.272   5.659  10.743 -0.3515  0.0394 -2.2508
19866SOL     OW66458   2.775   8.644   5.575  0.0125 -0.2435 -0.2362
19866SOL    HW166459   2.707   8.685   5.521 -0.8618  1.8805  2.2112
19866SOL    HW266460   2.738   8.560   5.600 -1.0083  0.1718 -0.2912
19867SOL     OW66461   2.462   9.056  12.015 -0.6168 -0.0823 -0.0585
19867SOL    HW166462   2.401   9.046  11.943 -0.1926 -1.9344 -0.2011
19867SOL    HW266463   2.532   9.112  11.980 -0.1364 -1.4129 -1.3024
19868SOL     OW66464  10.908   1.844  10.265  0.0155 -0.3345 -0.4978
19868SOL    HW166465  10.953   1.788  10.201 -0.4366 -2.4821  0.9276
19868SOL    HW266466  10.940   1.813  10.350  0.6248  2.4471  0.3794
19869SOL     OW66467   9.128   0.668   1.802 -0.3430  0.2837  0.4618
19869SOL    HW166468   9.162   0.680   1.891  1.0872  0.3935 -0.0745
19869SOL    HW266469   9.169   0.738   1.751 -0.0120 -0.6431 -0.5750
19870SOL     OW66470  10.568   5.636   8.243  0.0857 -0.7946  0.2529
19870SOL    HW166471  10.554   5.709   8.304  0.8557 -1.9183  1.8509
19870SOL    HW266472  10.660   5.613   8.255  0.3625 -0.8309 -1.6451
19871SOL     OW66473  11.158   0.467   9.561  0.1567 -0.2572  0.1771
19871SOL    HW166474  11.244   0.425   9.566  0.5901  0.6025  0.1397
19871SOL    HW266475  11.133   0.481   9.652 -0.3013 -1.1960  0.2068
19872SOL     OW66476  12.326   3.701   3.707 -0.2533 -0.2216 -0.5767
19872SOL    HW166477  12.261   3.661   3.649 -0.2355 -1.8322  0.4642
19872SOL    HW266478  12.356   3.778   3.659 -0.0521 -1.6255 -2.8387
19873SOL     OW66479   4.444   7.799   1.793  0.5429 -0.6139 -0.4309
19873SOL    HW166480   4.446   7.763   1.704  0.1470 -3.0395  0.4906
19873SOL    HW266481   4.517   7.758   1.838  0.3148  0.0510  0.5877
19874SOL     OW66482  12.381   1.541   1.692 -0.1246  0.3196 -0.1469
19874SOL    HW166483  12.469   1.578   1.698 -0.2628  0.5621  0.3985
19874SOL    HW266484  12.329   1.608   1.648 -0.8645  1.6990  2.6245
19875SOL     OW66485   2.241   3.632   9.202  0.1480 -0.0221 -0.3002
19875SOL    HW166486   2.171   3.568   9.217  0.5354 -0.9235 -2.0311
19875SOL    HW266487   2.318   3.579   9.180  1.1457  0.9825  0.6559
19876SOL     OW66488   1.356   7.768   9.352 -0.0770  0.3485 -0.5012
19876SOL    HW166489   1.326   7.718   9.276 -1.0717  0.8590 -0.4730
19876SOL    HW266490   1.415   7.834   9.315  0.8620 -0.5165 -0.5936
19877SOL     OW66491   8.257   4.394   7.122 -0.3162  0.0801 -0.2131
19877SOL    HW166492   8.340   4.382   7.075 -0.2488 -0.7050  0.0897
19877SOL    HW266493   8.234   4.486   7.107  0.4960  0.2488 -0.4837
19878SOL     OW66494  10.355  10.952   2.024  0.2398 -0.1678  0.2328
19878SOL    HW166495  10.307  10.908   2.095  0.7283 -2.0543 -0.5445
19878SOL    HW266496  10.290  11.009   1.984  0.0052  1.1423  2.3132
19879SOL     OW66497  12.473   6.327  11.218 -0.5339  0.0119 -0.2569
19879SOL    HW166498  12.485   6.233  11.207  2.5527  0.3030 -0.2869
19879SOL    HW266499  12.464   6.360  11.128  0.3408 -0.0753 -0.3838
19880SOL     OW66500  11.642   8.359   1.972  0.1108  0.3018  0.5289
19880SOL    HW166501  11.578   8.406   2.026  1.7538  1.7928  1.2350
19880SOL    HW266502  11.720   8.353   2.027  1.2868  0.3823 -1.0793
19881SOL     OW66503   6.819  11.627   2.806 -0.2435 -0.1225 -0.0359
19881SOL    HW166504   6.805  11.580   2.888  0.6075  0.5067  0.4924
19881SOL    HW266505   6.802  11.562   2.738  0.3122 -1.0348  0.6647
19882SOL     OW66506   8.745   4.852  12.231  0.3902  0.3187 -0.2964
19882SOL    HW166507   8.810   4.786  12.257 -0.1940 -0.0721  0.1897
19882SOL    HW266508   8.673   4.840  12.292 -0.2789  0.5448 -1.0279
19883SOL     OW66509   8.120  10.462   3.508  0.5074 -0.3270  0.0653
19883SOL    HW166510   8.130  10.550   3.543 -0.3132  0.3551 -1.3083
19883SOL    HW266511   8.062  10.417   3.569  1.1048  0.0075  0.8855
19884SOL     OW66512   7.091   6.480   0.642  0.0140 -0.5033  0.4379
19884SOL    HW166513   7.049   6.563   0.664 -0.8780 -0.5278 -1.0561
19884SOL    HW266514   7.182   6.490   0.671 -0.5037  0.3052  1.9039
19885SOL     OW66515  11.022   9.233   4.577 -0.6037  0.2059  0.2953
19885SOL    HW166516  10.937   9.194   4.562  0.5115 -1.6532 -1.6961
19885SOL    HW266517  11.040   9.216   4.670 -1.8978 -0.3392  0.4633
19886SOL     OW66518   7.139   3.982   3.272  0.8509  0.3116  0.1227
19886SOL    HW166519   7.086   4.019   3.343  1.0587  0.4978  0.1802
19886SOL    HW266520   7.164   4.058   3.220  0.6613  0.1688 -0.1749
19887SOL     OW66521  10.936  10.110  11.176  0.4950 -0.0306 -0.3443
19887SOL    HW166522  10.976  10.150  11.099 -1.0169  2.1074 -0.1056
19887SOL    HW266523  10.974  10.157  11.250 -0.6188  0.3763 -0.0072
19888SOL     OW66524  10.570   7.565   8.157 -0.0435  0.6998 -0.1617
19888SOL    HW166525  10.490   7.513   8.152 -0.0542  0.5881  0.8986
19888SOL    HW266526  10.636   7.504   8.190  0.0741  1.1996  0.5537
19889SOL     OW66527  10.015   6.492   9.149 -0.3118 -0.1976 -0.3532
19889SOL    HW166528  10.043   6.581   9.170 -1.6638  0.3524 -0.7876
19889SOL    HW266529  10.010   6.448   9.234  0.9891 -0.0696 -0.1924
19890SOL     OW66530  11.772   8.290   8.231  0.0021  0.0912 -0.3401
19890SOL    HW166531  11.718   8.215   8.257  0.1942  0.3317  0.7863
19890SOL    HW266532  11.722   8.332   8.161 -1.5244  0.5941  0.9982
19891SOL     OW66533   7.202   9.552  10.424  0.4824 -0.0538 -0.0490
19891SOL    HW166534   7.136   9.604  10.378  0.0683 -1.5575 -1.2328
19891SOL    HW266535   7.195   9.580  10.515  0.8935  2.5694 -0.7673
19892SOL     OW66536   8.236   7.097   1.865 -0.0374 -0.1901  0.1326
19892SOL    HW166537   8.302   7.165   1.853  1.0574 -1.1484  0.5619
19892SOL    HW266538   8.227   7.057   1.778 -0.9718  0.7193 -0.2161
19893SOL     OW66539   5.471  10.540   4.655 -0.0283 -0.4013 -0.2579
19893SOL    HW166540   5.543  10.603   4.658  0.3979 -0.8545 -0.9243
19893SOL    HW266541   5.425  10.553   4.738  0.3755  0.4067 -0.1494
19894SOL     OW66542   9.088   7.136   9.193 -0.9602  0.0680 -0.5812
19894SOL    HW166543   9.014   7.105   9.244  0.3105  0.2976  1.5127
19894SOL    HW266544   9.074   7.231   9.185 -0.3841  0.3033  0.8131
19895SOL     OW66545   8.464   5.123   0.798  0.0942  0.5494 -0.6232
19895SOL    HW166546   8.444   5.034   0.768 -1.1101 -0.0540  1.7683
19895SOL    HW266547   8.502   5.165   0.721 -1.6374 -1.2370 -2.6254
19896SOL     OW66548   1.732   4.907   5.928  0.2350 -0.0914 -0.1055
19896SOL    HW166549   1.746   4.868   5.842  0.6111  0.8024 -0.4719
19896SOL    HW266550   1.784   4.854   5.988 -1.1974 -1.6235 -0.1647
19897SOL     OW66551   7.066   7.182   1.623 -0.0292  0.3593  0.6062
19897SOL    HW166552   7.129   7.200   1.693  0.6811  0.5782 -0.0785
19897SOL    HW266553   7.114   7.130   1.560 -0.6293  0.2689  0.2122
19898SOL     OW66554   2.689   6.591   7.309  0.1893  0.4412  0.0186
19898SOL    HW166555   2.621   6.527   7.328  0.5813 -0.0471 -0.2089
19898SOL    HW266556   2.646   6.657   7.255 -0.1267  0.1790 -0.0526
19899SOL     OW66557  11.398   5.475   2.815 -0.0858  0.2551  0.4409
19899SOL    HW166558  11.420   5.413   2.745 -0.6517  0.5021  0.0380
19899SOL    HW266559  11.413   5.561   2.777 -1.5297  0.4220  0.2262
19900SOL     OW66560   5.972   6.365   5.861 -0.3265 -0.5352 -0.9683
19900SOL    HW166561   5.997   6.295   5.920  0.1743  0.1223 -0.3907
19900SOL    HW266562   6.040   6.432   5.872 -0.5777 -0.1255 -1.8018
19901SOL     OW66563  11.590  12.153  11.036  0.1267 -0.0682 -0.1691
19901SOL    HW166564  11.563  12.212  10.966  3.5727  0.2973 -1.3532
19901SOL    HW266565  11.526  12.082  11.033 -1.7079  1.5374 -1.4452
19902SOL     OW66566   0.270   5.976   1.662  0.3429  0.6408  0.4445
19902SOL    HW166567   0.248   6.026   1.583 -2.1868  0.2045  0.7991
19902SOL    HW266568   0.323   6.035   1.714  0.9027  1.4298 -0.9747
19903SOL     OW66569   7.070   8.246   4.012 -0.2002  0.6354  0.6126
19903SOL    HW166570   7.021   8.214   3.937  0.0547  0.6416  0.4442
19903SOL    HW266571   7.091   8.167   4.062 -2.2299  0.7891  1.8345
19904SOL     OW66572  12.279   4.210  11.463  0.3655 -0.0101 -0.2613
19904SOL    HW166573  12.210   4.195  11.398  0.6660  3.0111 -1.4233
19904SOL    HW266574  12.354   4.240  11.412  1.4100  0.1063  1.2827
19905SOL     OW66575  11.925   5.144   1.566  0.2653 -0.4047 -0.0385
19905SOL    HW166576  11.895   5.067   1.517 -0.3263  0.5808 -1.2774
19905SOL    HW266577  11.920   5.216   1.503 -0.0558  0.8199  1.3312
19906SOL     OW66578   0.200   2.478   1.376 -1.2308  0.8637 -0.6365
19906SOL    HW166579   0.239   2.564   1.394 -0.2617  0.6863 -1.8173
19906SOL    HW266580   0.251   2.443   1.304 -1.0274 -1.1142  0.4150
19907SOL     OW66581   6.327   8.636   7.770 -0.1660  0.2571  0.1956
19907SOL    HW166582   6.290   8.722   7.789 -0.0975  1.0145 -2.6542
19907SOL    HW266583   6.392   8.652   7.702  1.6515 -1.7604  1.3183
19908SOL     OW66584   8.911   0.501  11.750 -0.0185  0.0341 -0.0135
19908SOL    HW166585   8.895   0.443  11.676 -0.3708  0.1515 -0.0270
19908SOL    HW266586   8.961   0.574  11.713  0.1595 -0.1051 -0.0537
19909SOL     OW66587   7.465  10.617   9.007 -0.2236 -0.1695 -0.3569
19909SOL    HW166588   7.518  10.653   9.078  0.7294 -0.4706 -0.8975
19909SOL    HW266589   7.379  10.602   9.046  0.9371 -2.7473  1.4987
19910SOL     OW66590  11.659   1.954   3.253 -0.1831  0.1764  0.5670
19910SOL    HW166591  11.675   1.951   3.158 -0.8093  0.9245  0.4290
19910SOL    HW266592  11.606   2.033   3.266 -1.2547 -0.6482  1.3682
19911SOL     OW66593   4.963  11.465   6.944  0.2201 -0.4630 -0.5389
19911SOL    HW166594   4.986  11.497   7.031 -0.6514  0.6694 -0.7142
19911SOL    HW266595   4.904  11.391   6.960  0.3912 -0.5199 -0.1658
19912SOL     OW66596  12.012   7.631  11.759  0.2908 -0.2187  0.0403
19912SOL    HW166597  12.008   7.723  11.784  0.7880 -0.8609  2.9286
19912SOL    HW266598  12.081   7.594  11.815  0.6992 -2.1844 -1.6431
19913SOL     OW66599   6.097   3.783   0.295  0.0952  0.1529  0.2457
19913SOL    HW166600   6.157   3.718   0.329 -0.1886  0.3656  1.1651
19913SOL    HW266601   6.015   3.736   0.279 -0.2929  0.3805  1.4610
19914SOL     OW66602   8.780   6.769   3.117 -0.1343  0.3388  0.2350
19914SOL    HW166603   8.862   6.815   3.136  1.1603 -2.3451  1.7444
19914SOL    HW266604   8.807   6.681   3.091 -2.5373 -0.5177  0.3629
19915SOL     OW66605  12.223   8.010   0.452 -0.0088  0.0937  0.2771
19915SOL    HW166606  12.296   7.965   0.494  1.2888  0.7804 -1.1624
19915SOL    HW266607  12.165   8.034   0.524  0.8673 -1.0146  1.3889
19916SOL     OW66608   5.495   2.321   7.378 -0.3864  0.1932 -0.3522
19916SOL    HW166609   5.453   2.388   7.324 -0.0508  1.3561  0.7915
19916SOL    HW266610   5.545   2.370   7.443 -1.5141 -1.1498  1.6047
19917SOL     OW66611   8.333   2.739   0.821  0.2030  0.5669 -0.5274
19917SOL    HW166612   8.289   2.718   0.904 -0.0235  0.5896 -0.6407
19917SOL    HW266613   8.344   2.834   0.823 -0.3843  0.6512 -0.8035
19918SOL     OW66614   2.450   6.637   7.085  0.0007 -0.3558  0.4179
19918SOL    HW166615   2.440   6.708   7.022  0.7838  0.0727  0.7572
19918SOL    HW266616   2.425   6.558   7.037  0.6595 -0.0496 -0.4636
19919SOL     OW66617   5.208   7.886  12.228  0.2036 -0.5686  0.2178
19919SOL    HW166618   5.206   7.945  12.304  1.2341 -0.7223  0.3730
19919SOL    HW266619   5.266   7.928  12.166 -1.6424  0.2078 -1.0738
19920SOL     OW66620  12.040   8.032   4.467 -0.6611  0.0994  0.3946
19920SOL    HW166621  12.131   8.022   4.494 -0.7236  2.1388  1.5514
19920SOL    HW266622  12.041   8.103   4.404 -1.3105 -0.7490 -0.6053
19921SOL     OW66623  10.720   7.076   4.095 -0.2186  0.3063 -0.1914
19921SOL    HW166624  10.658   7.096   4.165 -0.1135  0.1572 -0.0559
19921SOL    HW266625  10.805   7.069   4.138  0.1328  1.9310 -0.5836
19922SOL     OW66626  12.415  11.942   0.590 -0.2081  0.2026  0.0223
19922SOL    HW166627  12.397  12.025   0.546  0.6804  1.7238  2.3171
19922SOL    HW266628  12.329  11.901   0.601 -0.9113  1.7887  0.6224
19923SOL     OW66629  11.548  12.431   7.899 -0.3759  0.6151 -0.0413
19923SOL    HW166630  11.592  12.429   7.984 -2.7392  1.1799  1.2821
19923SOL    HW266631  11.498  12.349   7.896  0.7376 -0.0514 -1.5376
19924SOL     OW66632   2.715   3.671   3.206  0.1621  0.0055 -0.0438
19924SOL    HW166633   2.776   3.678   3.132  0.8853  1.0204  0.6233
19924SOL    HW266634   2.730   3.584   3.241 -0.1400 -0.4631 -1.0511
19925SOL     OW66635   5.239   1.913   6.669 -0.0298 -0.6188 -0.3871
19925SOL    HW166636   5.323   1.870   6.686 -0.7129 -1.2649  1.5767
19925SOL    HW266637   5.203   1.930   6.756 -1.3605  0.8194 -1.1790
19926SOL     OW66638   9.596   8.662   5.450  0.0679 -0.5632  0.2523
19926SOL    HW166639   9.576   8.684   5.359  0.4313 -1.2591 -0.0033
19926SOL    HW266640   9.668   8.599   5.444 -0.4289 -1.2165  0.9926
19927SOL     OW66641   5.313   3.718   7.422  0.0015  0.0767  0.4442
19927SOL    HW166642   5.244   3.698   7.485  0.9299 -0.0276  1.4546
19927SOL    HW266643   5.378   3.649   7.434 -0.7379 -1.2352 -2.1635
19928SOL     OW66644   1.880   5.250   1.825 -0.0615  0.2756 -0.4791
19928SOL    HW166645   1.873   5.310   1.750  1.4676  0.7956 -0.2396
19928SOL    HW266646   1.802   5.267   1.877 -0.6818  0.5736 -1.4807
19929SOL     OW66647   5.319   5.239  12.386 -0.2823  0.2763 -0.0339
19929SOL    HW166648   5.236   5.206  12.422  0.5951 -0.4232  1.4440
19929SOL    HW266649   5.302   5.331  12.367 -1.5306  0.0284 -0.2036
19930SOL     OW66650   7.298   5.509  10.468 -0.1051 -0.2014 -0.2257
19930SOL    HW166651   7.370   5.572  10.459  0.1963 -0.3216  1.0966
19930SOL    HW266652   7.326   5.451  10.539 -1.7609  0.1072  0.7320
19931SOL     OW66653   7.229   4.345   9.176  0.1105  0.6356  0.0030
19931SOL    HW166654   7.204   4.401   9.250 -0.7384 -0.4386  0.5518
19931SOL    HW266655   7.147   4.307   9.146  0.5635  0.4132 -0.9680
19932SOL     OW66656   9.072   4.321  10.815 -0.1483 -0.0975  0.3247
19932SOL    HW166657   9.124   4.319  10.895  1.5581 -0.1721 -0.7407
19932SOL    HW266658   9.084   4.234  10.776 -1.9793 -0.5095  0.5712
19933SOL     OW66659   6.629  10.731   0.745 -0.6850 -0.1355  0.6300
19933SOL    HW166660   6.594  10.675   0.676 -1.9297  1.2620  0.0747
19933SOL    HW266661   6.570  10.719   0.818 -0.0319 -0.7344  1.0717
19934SOL     OW66662   5.215   5.885  11.826  0.8216 -0.5525  0.6148
19934SOL    HW166663   5.131   5.842  11.808  0.7211 -0.3246  0.5368
19934SOL    HW266664   5.207   5.916  11.916  0.1059  1.1035  0.0058
19935SOL     OW66665   0.614  12.242   1.866  0.0452 -0.1504 -0.1552
19935SOL    HW166666   0.703  12.209   1.868 -0.2996 -1.4561 -2.5906
19935SOL    HW266667   0.623  12.335   1.846  0.8718 -0.1262  0.3020
19936SOL     OW66668  11.959   3.856   5.914  0.4089 -0.3113 -0.3005
19936SOL    HW166669  11.935   3.794   5.844 -1.3762  0.4934 -0.4502
19936SOL    HW266670  11.985   3.936   5.867  3.0768 -0.9704 -0.1229
19937SOL     OW66671  12.160   6.357   3.420 -0.2371  0.0873  0.2922
19937SOL    HW166672  12.166   6.303   3.341 -1.5531  0.1348  0.1356
19937SOL    HW266673  12.127   6.441   3.388 -0.8732  0.0782  0.8988
19938SOL     OW66674   0.239  10.510   6.344 -0.5974  0.0345 -0.3389
19938SOL    HW166675   0.292  10.431   6.337  1.3105  1.2206 -0.0785
19938SOL    HW266676   0.289  10.577   6.298 -2.1986  1.1089 -0.6289
19939SOL     OW66677   6.920   3.417   9.140 -0.1382  0.3134  0.6077
19939SOL    HW166678   6.972   3.441   9.062 -0.0811 -0.5516  0.3706
19939SOL    HW266679   6.887   3.501   9.173  0.8293  0.8116  0.3524
19940SOL     OW66680   0.886   7.870   5.652 -0.3965 -0.4831  0.9880
19940SOL    HW166681   0.813   7.929   5.672 -1.4935 -1.6089  0.4584
19940SOL    HW266682   0.955   7.928   5.619 -0.2267  0.8624  3.4625
19941SOL     OW66683   3.630   7.160   2.664  0.3778 -0.1472  0.3839
19941SOL    HW166684   3.711   7.147   2.712 -1.0775 -2.2041  2.5093
19941SOL    HW266685   3.599   7.071   2.645 -1.8830  0.5444  0.5542
19942SOL     OW66686   0.368   7.307   8.233 -0.0803  0.0499  0.1665
19942SOL    HW166687   0.388   7.213   8.239  1.5420  0.4006  0.5802
19942SOL    HW266688   0.298   7.320   8.296  0.1754 -0.7590  0.6331
19943SOL     OW66689   3.748   0.985   7.847 -0.5789  0.5569  0.5489
19943SOL    HW166690   3.820   0.946   7.797 -2.0014  0.3400 -1.4633
19943SOL    HW266691   3.760   1.079   7.837  0.0222  0.5471  1.1409
19944SOL     OW66692   7.742   9.688   9.523 -0.5751 -0.0276  0.2347
19944SOL    HW166693   7.652   9.656   9.521 -0.7497  0.4905 -0.6444
19944SOL    HW266694   7.735   9.782   9.541 -0.3309  0.3598 -1.5218
19945SOL     OW66695   8.034   1.147  10.417  0.0440 -0.0478 -0.0103
19945SOL    HW166696   7.983   1.225  10.437  2.3690  0.9853  2.6286
19945SOL    HW266697   8.065   1.161  10.328 -0.9275  1.2275 -0.1757
19946SOL     OW66698   2.414   2.447   1.128 -0.0348  0.2458  0.0616
19946SOL    HW166699   2.391   2.358   1.154 -1.6465 -0.0630 -2.1074
19946SOL    HW266700   2.488   2.436   1.068  0.2002  0.4416  0.3130
19947SOL     OW66701   8.882   3.744   4.162 -0.3593 -0.2446  0.3585
19947SOL    HW166702   8.943   3.730   4.089 -0.8164 -0.8894  0.0887
19947SOL    HW266703   8.934   3.789   4.229  0.8027 -1.9536  0.6745
19948SOL     OW66704   9.637   7.065   3.977 -0.3530 -0.7194 -0.2314
19948SOL    HW166705   9.618   6.990   4.034 -2.3779 -0.2393 -0.2343
19948SOL    HW266706   9.589   7.046   3.896 -0.0135  0.1051 -0.6359
19949SOL     OW66707   3.459  10.433   8.947 -0.8957  0.1941 -0.2301
19949SOL    HW166708   3.537  10.384   8.922 -0.5946  0.2799  0.5378
19949SOL    HW266709   3.455  10.505   8.884 -0.9819 -0.4297 -0.9662
19950SOL     OW66710   2.166  10.636  11.599 -0.3213  0.2745  0.3900
19950SOL    HW166711   2.139  10.578  11.670 -0.5211  0.8451  0.7824
19950SOL    HW266712   2.095  10.700  11.591  0.4122  1.1595  0.7351
19951SOL     OW66713   6.129   2.854   5.308  0.2611  0.5422  0.5706
19951SOL    HW166714   6.223   2.843   5.297  0.1543 -0.1468  0.3133
19951SOL    HW266715   6.116   2.861   5.403  0.2833 -2.4571  0.9015
19952SOL     OW66716   1.869  10.883   2.716  0.7201  0.0583 -0.0257
19952SOL    HW166717   1.899  10.885   2.806  1.0373  0.7843 -0.1418
19952SOL    HW266718   1.774  10.885   2.722  0.7476  2.1427  0.2701
19953SOL     OW66719   0.997   3.880   2.301 -0.3163 -0.1277 -0.4135
19953SOL    HW166720   0.983   3.785   2.302 -1.2107 -0.0131 -0.8519
19953SOL    HW266721   0.987   3.907   2.392 -0.8417 -0.3578 -0.3976
19954SOL     OW66722   5.242   4.018   6.445 -0.0614  0.5357 -1.0407
19954SOL    HW166723   5.227   3.930   6.410  1.2445  0.9473 -2.7565
19954SOL    HW266724   5.275   4.003   6.534  2.0990 -0.8358 -1.9978
19955SOL     OW66725   1.432   8.425   9.579  0.3059 -0.0831  0.1424
19955SOL    HW166726   1.508   8.379   9.616  1.0088  0.6944 -0.3130
19955SOL    HW266727   1.457   8.443   9.488 -1.5531 -2.3326 -0.9353
19956SOL     OW66728   0.986   5.638   8.484 -0.3359 -0.1634  0.7290
19956SOL    HW166729   1.074   5.604   8.499 -0.2868  0.1091  1.0708
19956SOL    HW266730   0.929   5.562   8.492 -0.3434  0.0004  2.5803
19957SOL     OW66731   2.231   0.000  10.499 -0.2543 -0.0336 -0.0561
19957SOL    HW166732   2.162  -0.017  10.563 -0.6548  3.8469  0.8246
19957SOL    HW266733   2.312  -0.024  10.543 -0.7510 -0.4632  0.6346
19958SOL     OW66734  11.117   6.996   4.153  0.2663 -0.1181 -0.5535
19958SOL    HW166735  11.152   6.908   4.145  1.7300  0.4305 -0.3522
19958SOL    HW266736  11.111   7.027   4.062 -1.7325 -0.9458 -0.7589
19959SOL     OW66737   7.261   2.900   6.066 -0.8854  0.0768  0.4729
19959SOL    HW166738   7.183   2.950   6.040 -0.2176  0.9482  0.0869
19959SOL    HW266739   7.332   2.937   6.013 -0.4912 -1.8303 -0.4269
19960SOL     OW66740   2.334   4.339   6.213 -0.1255  0.2781 -0.0477
19960SOL    HW166741   2.373   4.365   6.297  1.1967 -2.1295  0.1594
19960SOL    HW266742   2.401   4.362   6.149  0.8369 -1.9800  0.0857
19961SOL     OW66743   0.873   5.851   4.331 -0.0433 -0.0942 -0.2868
19961SOL    HW166744   0.871   5.764   4.291 -0.1477  0.3828 -1.3520
19961SOL    HW266745   0.957   5.855   4.376  0.2118 -0.5376 -0.7132
19962SOL     OW66746  11.459   8.120  10.947  0.3450 -0.0123  0.2037
19962SOL    HW166747  11.366   8.107  10.926  0.7905 -1.3056 -1.1293
19962SOL    HW266748  11.494   8.165  10.870  1.0360 -0.5158  0.2153
19963SOL     OW66749  11.303   2.514   6.179 -0.6691 -0.4290  0.1779
19963SOL    HW166750  11.244   2.443   6.154 -0.2795 -1.4554  2.0022
19963SOL    HW266751  11.284   2.530   6.272  0.1845  0.9500  0.1486
19964SOL     OW66752   1.525   5.675   1.812  0.6955 -0.0931  0.0286
19964SOL    HW166753   1.586   5.615   1.854 -0.4619 -1.4415 -0.1435
19964SOL    HW266754   1.461   5.618   1.768 -0.0673  1.2631 -0.6946
19965SOL     OW66755   3.227   4.310   2.165 -0.0814  0.1586 -0.0651
19965SOL    HW166756   3.252   4.272   2.081  1.4977  1.6590 -0.3402
19965SOL    HW266757   3.308   4.347   2.200 -0.6897 -0.4653  2.1607
19966SOL     OW66758  11.987   2.348   6.430  0.0780  0.1304  0.4890
19966SOL    HW166759  11.933   2.389   6.498  0.3768  0.6323  0.4292
19966SOL    HW266760  12.001   2.259   6.462 -0.0952  0.2479  0.9045
19967SOL     OW66761   5.747  10.799   1.929 -0.3481  0.4070 -0.5332
19967SOL    HW166762   5.801  10.736   1.881  0.3893  0.9418 -0.4275
19967SOL    HW266763   5.660  10.792   1.889 -0.7069 -1.7684  0.4626
19968SOL     OW66764   1.971   5.669   1.204 -0.2247  0.0776  0.0810
19968SOL    HW166765   1.916   5.674   1.125 -2.7744 -4.7086  1.1383
19968SOL    HW266766   1.914   5.698   1.275  0.3360 -0.2059  0.6565
19969SOL     OW66767   9.639   6.061   4.808 -0.3802  0.1227  0.1998
19969SOL    HW166768   9.678   6.021   4.731  0.6341  0.7787  0.3531
19969SOL    HW266769   9.547   6.035   4.804 -0.6172  1.0454 -1.8428
19970SOL     OW66770   6.197   6.034  11.394  0.1695  0.1588 -0.2736
19970SOL    HW166771   6.186   6.128  11.375 -0.2114  0.1516 -0.0817
19970SOL    HW266772   6.276   6.030  11.448 -0.7870  0.5543  1.2106
19971SOL     OW66773   3.202   3.202   0.472  0.6366 -0.0290  0.2074
19971SOL    HW166774   3.210   3.220   0.565  0.3764 -1.7281  0.5892
19971SOL    HW266775   3.112   3.225   0.450  1.3591  2.8148 -0.2664
19972SOL     OW66776   4.026   8.576  10.716 -0.2732 -0.5730 -0.2611
19972SOL    HW166777   4.023   8.662  10.674 -0.8705 -0.9042 -0.9073
19972SOL    HW266778   4.092   8.528  10.666 -0.7429 -0.8581 -0.6041
19973SOL     OW66779  11.439   0.719   9.297 -0.1706 -0.3793  0.2772
19973SOL    HW166780  11.457   0.660   9.371 -0.5496 -0.2587  0.4690
19973SOL    HW266781  11.354   0.758   9.318  0.5732  1.0728  0.7065
19974SOL     OW66782   9.230  11.085   8.501  0.3165  0.6052  0.0846
19974SOL    HW166783   9.216  11.067   8.408  0.6829  2.5439 -0.4054
19974SOL    HW266784   9.164  11.151   8.522  0.8436  0.8751  0.9302
19975SOL     OW66785   4.733   5.280  10.558 -0.0933  0.3933  0.5289
19975SOL    HW166786   4.749   5.280  10.653 -1.5119  0.2120  0.7773
19975SOL    HW266787   4.647   5.320  10.548 -0.6121 -0.9484 -0.5753
19976SOL     OW66788   4.094  11.797   5.504  0.3132  0.3268  0.3306
19976SOL    HW166789   3.999  11.785   5.492  0.3055  0.4709  0.2401
19976SOL    HW266790   4.131  11.775   5.418  0.3304  0.6085  0.2658
19977SOL     OW66791   0.365   9.799   1.080  0.1455 -0.9458  0.1232
19977SOL    HW166792   0.342   9.774   1.169  0.5718 -0.3174  0.4214
19977SOL    HW266793   0.373   9.716   1.032 -1.4078 -1.2372  0.3162
19978SOL     OW66794   6.333   8.694   2.812  0.0425 -0.2887 -0.4395
19978SOL    HW166795   6.356   8.664   2.724 -0.1815 -0.7379 -0.3437
19978SOL    HW266796   6.291   8.779   2.797 -0.4077 -0.5729 -0.8039
19979SOL     OW66797   7.195   0.936   3.135  0.3827  0.0955  0.2161
19979SOL    HW166798   7.180   1.027   3.107  0.6799 -0.0698 -0.4969
19979SOL    HW266799   7.117   0.889   3.107  1.2565 -0.3413 -1.5920
19980SOL     OW66800   1.734   7.817   1.686 -0.5114  0.0629  0.9518
19980SOL    HW166801   1.815   7.783   1.649 -0.4073  0.9855  0.2946
19980SOL    HW266802   1.665   7.762   1.648 -0.3551  0.6253 -0.1627
19981SOL     OW66803   9.674   1.167   8.416 -0.2081  0.2096  0.2628
19981SOL    HW166804   9.737   1.238   8.402 -0.7186  1.1628  2.4597
19981SOL    HW266805   9.625   1.163   8.334  1.4193  0.7168 -0.7997
19982SOL     OW66806  11.050   4.043   3.238 -0.2965  0.1488  0.5801
19982SOL    HW166807  11.061   4.028   3.332 -1.6531  1.8231  1.0560
19982SOL    HW266808  11.131   4.088   3.212 -0.7861  1.6187  1.4563
19983SOL     OW66809   1.283   5.454   5.745  0.1923  0.1588  0.3466
19983SOL    HW166810   1.286   5.358   5.737 -1.2273  0.1154  0.0274
19983SOL    HW266811   1.220   5.470   5.815  0.4490  0.8684  0.4180
19984SOL     OW66812   8.770   4.312   4.985 -0.1302  0.2239  0.4698
19984SOL    HW166813   8.770   4.364   5.065 -1.5321 -0.0071  0.6470
19984SOL    HW266814   8.839   4.351   4.931  1.6244 -0.3334  2.2059
19985SOL     OW66815  10.941   1.866   0.730 -0.3117  0.5935  0.0764
19985SOL    HW166816  11.004   1.795   0.745  0.6831  1.4900  0.2361
19985SOL    HW266817  10.971   1.907   0.649 -0.3652  1.3897  0.4580
19986SOL     OW66818   0.450   8.373   0.179  0.3178  0.0931  0.2488
19986SOL    HW166819   0.408   8.431   0.243  0.6736  0.5050  0.1192
19986SOL    HW266820   0.490   8.433   0.115 -0.2763 -0.3146 -0.5218
19987SOL     OW66821   0.822   0.473   1.243  0.2394  0.1523 -0.0471
19987SOL    HW166822   0.872   0.411   1.190 -0.4996  0.1159 -0.7298
19987SOL    HW266823   0.737   0.431   1.255  0.5408 -0.0436  1.5950
19988SOL     OW66824  12.271   7.449   0.559  0.2048 -0.4620  0.3792
19988SOL    HW166825  12.264   7.412   0.647 -0.8554  0.5678  0.7599
19988SOL    HW266826  12.254   7.375   0.500  0.4214 -1.0497  1.0384
19989SOL     OW66827   3.419   0.563   5.088 -0.1399 -0.4298 -0.1339
19989SOL    HW166828   3.417   0.521   5.002  1.0887 -1.0103  0.0925
19989SOL    HW266829   3.510   0.555   5.116 -0.8745 -2.0666  2.0944
19990SOL     OW66830   0.100  10.753   3.301 -0.1290  0.6682 -0.0170
19990SOL    HW166831   0.134  10.732   3.388  0.4603  0.3941 -0.3075
19990SOL    HW266832   0.143  10.835   3.277 -1.3092  1.4735  0.4971
19991SOL     OW66833   8.657  11.836  10.270 -0.4901 -0.3645 -0.1476
19991SOL    HW166834   8.575  11.883  10.258 -0.8367 -1.0408 -0.5017
19991SOL    HW266835   8.704  11.848  10.187 -0.9038 -1.2484 -0.5203
19992SOL     OW66836   1.884   1.955   3.815  0.2855 -0.1594 -0.7731
19992SOL    HW166837   1.798   1.995   3.824  0.7087  0.9057 -1.2876
19992SOL    HW266838   1.945   2.022   3.846  1.0048 -0.4316 -1.5619
19993SOL     OW66839  10.632   2.008   4.256 -0.1716  0.8281 -0.3035
19993SOL    HW166840  10.580   1.977   4.182  0.2015  2.2274 -1.1850
19993SOL    HW266841  10.721   1.977   4.238 -0.2312  0.4963 -0.0318
19994SOL     OW66842   1.725   7.163  10.023 -0.4667 -0.7694 -0.0467
19994SOL    HW166843   1.649   7.167  10.081 -0.8840  0.1575 -0.6263
19994SOL    HW266844   1.707   7.230   9.956  0.6463 -0.8561 -0.4473
19995SOL     OW66845   6.602   0.901   6.775 -0.1320  0.1160 -0.0134
19995SOL    HW166846   6.651   0.858   6.846 -4.6495 -2.2048  2.1057
19995SOL    HW266847   6.650   0.877   6.696  1.9848 -2.1732  1.7815
19996SOL     OW66848   2.218  11.204   6.649  0.3221  0.0084 -0.5052
19996SOL    HW166849   2.248  11.231   6.562 -3.6410 -1.9117 -2.7583
19996SOL    HW266850   2.172  11.281   6.683  1.5225  0.6289 -0.2278
19997SOL     OW66851   8.728  11.303   7.717  0.0856 -0.3875 -0.3409
19997SOL    HW166852   8.754  11.212   7.706 -0.9455 -0.9540  1.4303
19997SOL    HW266853   8.784  11.335   7.789 -1.7951 -0.6916  1.3564
19998SOL     OW66854   5.056   4.941  11.838  0.3081  0.0531  0.1433
19998SOL    HW166855   5.113   5.016  11.819  0.0815 -0.1809 -1.7048
19998SOL    HW266856   5.095   4.868  11.790 -0.3519 -0.6259  0.6129
19999SOL     OW66857   4.928   5.604   1.539  0.4003  0.4035 -0.4108
19999SOL    HW166858   4.895   5.669   1.478  0.8090  1.9545  0.9657
19999SOL    HW266859   4.896   5.632   1.625  0.8046 -1.0638  0.2704
20000SOL     OW66860   6.480   8.303   2.759 -0.0371 -0.4173 -0.3439
20000SOL    HW166861   6.492   8.356   2.680 -0.2323 -0.0783 -0.1502
20000SOL    HW266862   6.549   8.331   2.818  0.5595 -1.1900 -0.6601
20001SOL     OW66863   1.974   5.476   4.716  0.5119  0.2354 -0.0744
20001SOL    HW166864   1.947   5.449   4.804 -1.7981  3.3565  0.3428
20001SOL    HW266865   2.030   5.405   4.685 -1.0301 -2.4049  2.7014
20002SOL     OW66866   1.338   1.849  10.317 -0.3892 -0.5998  0.5587
20002SOL    HW166867   1.245   1.872  10.318 -0.2567 -0.0617  1.3363
20002SOL    HW266868   1.339   1.755  10.334 -0.7666 -0.4789  1.3130
20003SOL     OW66869   7.129  10.455   1.928 -0.5681  0.2924 -0.6360
20003SOL    HW166870   7.058  10.419   1.874  0.7260  0.5168 -2.6201
20003SOL    HW266871   7.092  10.535   1.965 -2.1909 -0.9603  0.6036
20004SOL     OW66872   3.399  10.475   6.161 -0.0369 -0.0481 -0.1791
20004SOL    HW166873   3.403  10.549   6.100  1.2965 -0.7159 -0.9502
20004SOL    HW266874   3.466  10.495   6.227 -0.1914 -0.2075  0.0239
20005SOL     OW66875   4.264   3.095  11.546  0.9270  0.1197  0.2359
20005SOL    HW166876   4.303   3.095  11.459  1.2281  2.3026  0.3197
20005SOL    HW266877   4.332   3.131  11.603  1.1734 -2.3528  1.6528
20006SOL     OW66878   7.032   9.024  10.127 -0.1269  0.2557  0.0827
20006SOL    HW166879   7.069   8.950  10.174  1.6066  0.4480 -0.8720
20006SOL    HW266880   7.105   9.086  10.120 -1.6487  2.3117  1.3118
20007SOL     OW66881   0.687  10.754  10.918  0.6248  0.2958  0.6834
20007SOL    HW166882   0.661  10.776  11.008  2.6395  1.6169  1.0361
20007SOL    HW266883   0.630  10.807  10.863 -0.3035 -0.1437  1.2078
20008SOL     OW66884   3.406   9.673  12.071 -0.0506 -0.4547  0.4473
20008SOL    HW166885   3.429   9.760  12.104 -0.2531  0.0388 -0.6487
20008SOL    HW266886   3.370   9.627  12.146 -1.5395  0.9844  0.6697
20009SOL     OW66887   6.039   4.569   1.277  0.4338 -0.2701 -0.5091
20009SOL    HW166888   5.995   4.606   1.353 -0.9590 -1.9914 -0.3970
20009SOL    HW266889   5.990   4.603   1.202  0.6404 -0.0379 -0.5400
20010SOL     OW66890   0.331   6.037  11.552 -0.6571 -0.5998 -0.2930
20010SOL    HW166891   0.292   6.081  11.628 -0.0885 -2.6067  1.2681
20010SOL    HW266892   0.419   6.073  11.546  0.2451 -2.2355  1.7480
20011SOL     OW66893   8.854   4.458  12.018  0.6723 -0.5917  0.1831
20011SOL    HW166894   8.883   4.510  11.943  1.6383  2.2531  2.3029
20011SOL    HW266895   8.775   4.503  12.048  0.9639 -0.9390  1.5282
20012SOL     OW66896   6.247  10.186  10.589 -0.2472  0.2209 -0.6500
20012SOL    HW166897   6.299  10.240  10.529 -0.3127  1.8940  0.7014
20012SOL    HW266898   6.304  10.113  10.613  0.6702  0.8470 -0.8924
20013SOL     OW66899   6.503   4.186   7.338  0.4140 -0.3508 -0.3286
20013SOL    HW166900   6.480   4.096   7.318  0.1318  0.0067 -1.7188
20013SOL    HW266901   6.471   4.236   7.263 -0.3319  1.0402  0.8775
20014SOL     OW66902   5.740   7.350  10.706  0.0310  0.5743  0.3694
20014SOL    HW166903   5.827   7.385  10.688  0.4405 -0.5814 -0.0345
20014SOL    HW266904   5.720   7.378  10.795  1.1103  0.2915  0.7128
20015SOL     OW66905  10.895   5.577  11.369 -0.7740  0.6952 -0.2582
20015SOL    HW166906  10.937   5.551  11.451  0.0360  0.7594 -0.6390
20015SOL    HW266907  10.905   5.672  11.366 -0.6097  0.6728 -0.5229
20016SOL     OW66908   5.644   2.991   1.598  0.0403  0.3366  0.2887
20016SOL    HW166909   5.591   2.935   1.655 -0.9504  1.9394  1.0250
20016SOL    HW266910   5.624   2.961   1.510 -3.1903  1.6292  0.4296
20017SOL     OW66911  12.121   8.784   7.630  0.3362 -0.3297 -0.3554
20017SOL    HW166912  12.123   8.738   7.714  0.3435  0.9206  0.3520
20017SOL    HW266913  12.200   8.839   7.631 -1.1028  1.8755  0.1249
20018SOL     OW66914   1.838  12.051  11.355  0.2786 -0.0755 -0.0379
20018SOL    HW166915   1.820  11.973  11.303 -1.4506 -0.3400  0.8877
20018SOL    HW266916   1.813  12.124  11.299 -1.2866 -0.3444  0.2740
20019SOL     OW66917   9.389   4.234   3.507  0.5295  0.4803  0.0792
20019SOL    HW166918   9.339   4.156   3.486 -0.5653  1.0116  0.6621
20019SOL    HW266919   9.370   4.252   3.599 -1.0833  2.7083 -0.5952
20020SOL     OW66920   5.375   9.968   0.041  0.1720 -0.0626 -0.1575
20020SOL    HW166921   5.334  10.042   0.086  2.4609  0.5840  0.9922
20020SOL    HW266922   5.455   9.951   0.090  2.3198 -0.0329 -3.3434
20021SOL     OW66923   9.528   4.988   6.103 -0.0858  0.0358  0.3130
20021SOL    HW166924   9.529   5.078   6.137 -1.2153 -0.1011  0.7586
20021SOL    HW266925   9.442   4.979   6.062  0.1197 -0.7587  0.0463
20022SOL     OW66926   9.092   5.545   6.468 -0.6618  0.3061 -0.3642
20022SOL    HW166927   9.037   5.616   6.436 -1.3178  0.8830  1.8476
20022SOL    HW266928   9.180   5.566   6.436 -1.1596  1.1154 -1.2580
20023SOL     OW66929   2.991   9.508   3.288 -0.2796  0.3447 -0.2512
20023SOL    HW166930   2.999   9.421   3.249 -1.3492 -0.6202  1.5631
20023SOL    HW266931   3.075   9.550   3.270 -0.3606 -0.3642 -2.6933
20024SOL     OW66932   9.923   3.339   0.487  0.7307  0.0228 -0.0404
20024SOL    HW166933   9.974   3.393   0.548 -1.0414  1.8314 -0.0593
20024SOL    HW266934   9.966   3.352   0.402  1.6972 -0.4836  0.3541
20025SOL     OW66935   7.699   5.106   5.164  0.3268 -0.1928 -0.1517
20025SOL    HW166936   7.678   5.043   5.233 -2.0993  2.4119  1.7305
20025SOL    HW266937   7.643   5.082   5.090 -1.1799  0.1361  0.8394
20026SOL     OW66938   8.763   4.915   0.165  0.7131 -0.2340 -0.3537
20026SOL    HW166939   8.706   4.877   0.099  0.7019  1.3112 -1.2827
20026SOL    HW266940   8.852   4.901   0.132  0.7275  0.1353 -0.4721
20027SOL     OW66941   4.575   5.506   2.534 -0.9376  0.2524 -0.0836
20027SOL    HW166942   4.507   5.454   2.490 -0.6765  0.0659 -0.2673
20027SOL    HW266943   4.579   5.469   2.622 -0.2507 -0.5317 -0.4232
20028SOL     OW66944   0.393  10.023   5.713 -0.3356  0.3020  0.0153
20028SOL    HW166945   0.454  10.079   5.762 -0.7654 -1.5401  2.8480
20028SOL    HW266946   0.307  10.048   5.745 -0.6609 -0.7900  0.0157
20029SOL     OW66947   9.325   8.941  11.488  0.1730  0.6717 -0.3539
20029SOL    HW166948   9.236   8.970  11.509  0.3867  0.7913  0.4117
20029SOL    HW266949   9.374   9.021  11.474 -0.0765  0.6015 -1.9076
20030SOL     OW66950   4.092  10.006   6.729  0.2629  0.3798 -0.2875
20030SOL    HW166951   4.179   9.978   6.756  0.0660 -1.3163 -1.2840
20030SOL    HW266952   4.042   9.925   6.718 -1.0896  1.2512 -0.8972
20031SOL     OW66953   9.563   9.957   6.553  0.0171 -0.2315 -0.4041
20031SOL    HW166954   9.597   9.884   6.502 -0.8911 -0.0483 -1.3191
20031SOL    HW266955   9.493   9.918   6.607  1.6552 -0.6335  1.5557
20032SOL     OW66956   5.512   8.661   3.662 -0.4392  0.0446 -0.1973
20032SOL    HW166957   5.447   8.731   3.671 -1.0242 -0.2981 -1.4824
20032SOL    HW266958   5.595   8.702   3.687 -0.9061  0.9442 -0.0643
20033SOL     OW66959  11.328   4.917   8.591 -0.3411 -0.1988  0.4071
20033SOL    HW166960  11.372   4.979   8.649 -1.3603  0.0600  0.9253
20033SOL    HW266961  11.364   4.937   8.504 -3.3761  3.9327 -0.2225
20034SOL     OW66962   4.731   0.149   1.534  0.2977 -1.0978 -0.1511
20034SOL    HW166963   4.767   0.236   1.551  2.6427 -1.9100 -0.5848
20034SOL    HW266964   4.638   0.157   1.554  0.6562  1.2050  0.8878
20035SOL     OW66965   1.350   6.538   1.911  0.0203 -0.1385 -0.0303
20035SOL    HW166966   1.432   6.495   1.885 -0.4088 -0.7707 -0.3771
20035SOL    HW266967   1.284   6.469   1.901 -0.8984  0.9236 -1.8001
20036SOL     OW66968   9.875   2.964   4.482  0.1118 -0.2715  0.3323
20036SOL    HW166969   9.919   2.966   4.397  1.2929  3.7770  0.8074
20036SOL    HW266970   9.942   2.937   4.544 -0.4374 -2.0767  0.1993
20037SOL     OW66971   3.870   7.996   5.266  0.0337 -0.1653  0.1712
20037SOL    HW166972   3.901   7.950   5.344 -3.5422 -1.4548  1.0702
20037SOL    HW266973   3.829   8.076   5.300  1.3988  1.0184 -0.8296
20038SOL     OW66974   6.715  10.676   7.095 -0.6053  0.8008 -0.0168
20038SOL    HW166975   6.708  10.598   7.040 -1.2495  0.9782 -0.1946
20038SOL    HW266976   6.679  10.650   7.179  1.2992  0.2299  0.6610
20039SOL     OW66977   7.918   8.737   7.978 -0.5555  0.1248  0.0895
20039SOL    HW166978   7.836   8.722   7.930 -1.2600  0.2324  1.2206
20039SOL    HW266979   7.982   8.760   7.910 -1.6983  1.0283 -0.7264
20040SOL     OW66980   5.201  10.438   1.009  0.2332  0.3675  0.0072
20040SOL    HW166981   5.163  10.372   1.067 -0.6037 -0.5793 -1.5391
20040SOL    HW266982   5.291  10.409   0.995  0.1110  0.0022 -0.0202
20041SOL     OW66983   2.032   8.158   0.992 -0.3417 -0.0787  0.1178
20041SOL    HW166984   2.080   8.090   0.944 -1.7582  0.2349 -1.8829
20041SOL    HW266985   2.049   8.238   0.942 -1.3110  0.4072  0.5428
20042SOL     OW66986   7.127   0.868   4.001  0.0661  0.1495  0.3020
20042SOL    HW166987   7.131   0.806   3.928 -0.7108  0.2599  0.1662
20042SOL    HW266988   7.218   0.896   4.013  0.2012  0.1581 -0.6479
20043SOL     OW66989  11.795   3.553   2.237 -0.1995  0.2537  0.3675
20043SOL    HW166990  11.850   3.479   2.214 -0.1200 -0.2063  1.9194
20043SOL    HW266991  11.730   3.557   2.167  1.6219  0.6798 -1.3935
20044SOL     OW66992   3.157   0.154   8.726 -0.3756 -0.0742  0.0820
20044SOL    HW166993   3.114   0.095   8.664  0.5441 -1.2182  0.5070
20044SOL    HW266994   3.217   0.206   8.673 -1.1718  0.4946 -0.2881
20045SOL     OW66995   2.111  11.937  10.938  0.1097 -0.2211 -0.2231
20045SOL    HW166996   2.063  11.872  10.989 -1.3200 -0.7234 -2.1028
20045SOL    HW266997   2.105  12.017  10.990  0.5614 -1.2004  1.3924
20046SOL     OW66998   8.943   6.828  10.038 -0.0878  0.4470  0.1097
20046SOL    HW166999   8.957   6.784   9.954 -0.4857  0.4921  0.0160
20046SOL    HW267000   8.902   6.912  10.014 -0.5544  0.2980  0.3699
20047SOL     OW67001   7.464   8.970   7.230  0.4224 -0.2129  0.3496
20047SOL    HW167002   7.374   8.979   7.200  0.4317  1.8832  0.8366
20047SOL    HW267003   7.497   8.893   7.182 -0.8604  0.4105 -1.6714
20048SOL     OW67004   8.637   2.016   7.282 -0.0210 -0.4847  0.4177
20048SOL    HW167005   8.562   1.957   7.279 -1.3315  1.0652  1.1886
20048SOL    HW267006   8.638   2.049   7.372 -0.5031  2.0653 -0.4337
20049SOL     OW67007  11.761  11.047   0.546 -0.2283  0.1397 -0.1285
20049SOL    HW167008  11.726  10.960   0.528 -1.2793  0.4460  0.3756
20049SOL    HW267009  11.829  11.059   0.479  0.3642 -1.2947  0.1672
20050SOL     OW67010  11.190   8.064   3.936  0.0779 -0.3891 -0.3449
20050SOL    HW167011  11.242   8.073   3.856 -0.6102 -0.1516 -0.7722
20050SOL    HW267012  11.123   8.000   3.914 -0.7648  0.4562 -0.3117
20051SOL     OW67013   5.258   2.003   1.634  0.1244 -0.1322  0.0024
20051SOL    HW167014   5.316   1.972   1.564  1.4261  0.8586  0.5774
20051SOL    HW267015   5.300   1.973   1.715 -0.0209  0.7961  0.4416
20052SOL     OW67016   0.069  12.232   0.845 -0.4740 -0.0905 -0.4170
20052SOL    HW167017   0.116  12.150   0.855  1.2329  0.8873  0.0313
20052SOL    HW267018   0.007  12.234   0.919  0.3095 -0.4449  0.2644
20053SOL     OW67019  11.027  10.473  11.504 -0.0430 -0.0234 -0.5010
20053SOL    HW167020  11.112  10.459  11.462  0.1691 -1.1491  0.2430
20053SOL    HW267021  10.977  10.395  11.482 -0.1535 -0.3308  0.7560
20054SOL     OW67022   4.905   3.595  10.995  0.0387 -0.1620  0.6013
20054SOL    HW167023   4.911   3.671  11.054  0.2198  0.4651 -0.2113
20054SOL    HW267024   4.818   3.601  10.958  0.3081  0.0595 -0.0041
20055SOL     OW67025   0.257   3.489   8.736  0.5839  0.1219  0.2772
20055SOL    HW167026   0.339   3.539   8.731  1.2484 -0.9617 -0.3743
20055SOL    HW267027   0.209   3.527   8.809  0.2175  2.8827 -1.2837
20056SOL     OW67028   5.194   2.721   3.211  0.0701 -0.1289 -0.3145
20056SOL    HW167029   5.148   2.773   3.277  0.2612 -1.6127  1.0261
20056SOL    HW267030   5.263   2.779   3.179 -0.1625  0.6852  0.6208
20057SOL     OW67031   8.305   7.303   6.812 -0.5143 -0.3096  0.0755
20057SOL    HW167032   8.400   7.296   6.807 -0.1960  2.3771  0.6450
20057SOL    HW267033   8.285   7.296   6.906 -0.7763  0.0151  0.0445
20058SOL     OW67034   3.934   4.194   8.326 -0.6302 -0.3701 -0.3836
20058SOL    HW167035   3.847   4.227   8.302 -0.8807  0.5859  1.6593
20058SOL    HW267036   3.917   4.127   8.392  0.2046  0.7241  0.9920
20059SOL     OW67037   9.865   6.615   5.070 -0.0616  0.7334  0.3379
20059SOL    HW167038   9.947   6.645   5.108  0.1548 -1.2172  1.5064
20059SOL    HW267039   9.888   6.588   4.981  0.7295 -0.4137  0.8734
20060SOL     OW67040   1.257   2.811  11.990 -0.4242  0.3176  0.1021
20060SOL    HW167041   1.307   2.778  11.915  0.2566  0.8802  0.2980
20060SOL    HW267042   1.294   2.766  12.065 -1.1306 -0.2712  0.1150
20061SOL     OW67043   7.457   5.225   4.694  0.2286  0.2402  0.1529
20061SOL    HW167044   7.476   5.135   4.717  0.7038  0.7243  1.8144
20061SOL    HW267045   7.362   5.233   4.705  0.1708 -0.0774 -0.1022
20062SOL     OW67046   9.281   7.904   7.736  0.3027  0.3617  0.5286
20062SOL    HW167047   9.340   7.828   7.734 -0.5327 -0.2843 -0.0834
20062SOL    HW267048   9.233   7.895   7.818 -0.7311 -0.5079 -0.1594
20063SOL     OW67049   9.805   3.382   4.405 -0.3299 -0.3534 -0.3353
20063SOL    HW167050   9.838   3.450   4.463 -0.8978 -0.2498 -0.1239
20063SOL    HW267051   9.855   3.392   4.324 -0.0719 -0.0002 -0.1341
20064SOL     OW67052   8.061   7.465   2.269  0.3372 -0.3794 -0.2713
20064SOL    HW167053   8.032   7.387   2.221 -0.1299 -1.0053  0.9743
20064SOL    HW267054   8.152   7.446   2.294  0.5034 -0.1526 -0.6952
20065SOL     OW67055   7.525   9.361   9.141  0.0579 -0.0221  0.2545
20065SOL    HW167056   7.444   9.377   9.093 -0.2234 -0.2034  0.6614
20065SOL    HW267057   7.541   9.443   9.189  0.1964  0.0649  0.0625
20066SOL     OW67058  10.053   5.975   9.407  0.3850 -0.1125  0.5593
20066SOL    HW167059  10.025   5.910   9.342 -0.6722  0.3382  0.5430
20066SOL    HW267060  10.148   5.980   9.396  0.3508 -0.8568 -0.1906
20067SOL     OW67061   1.323   0.668   8.429 -0.0576 -0.2006 -0.8574
20067SOL    HW167062   1.320   0.603   8.499  2.0575  0.3246 -0.2169
20067SOL    HW267063   1.347   0.617   8.351  0.0579 -0.4161 -0.6826
20068SOL     OW67064   4.925   7.491  11.933  0.0418  0.1549 -0.3729
20068SOL    HW167065   5.010   7.529  11.953  0.1697 -0.1525 -0.3241
20068SOL    HW267066   4.872   7.565  11.903 -0.3148  0.7480  1.5493
20069SOL     OW67067   7.834   8.904   0.581 -1.0504 -0.3868  0.5511
20069SOL    HW167068   7.875   8.837   0.635  1.5274  0.9160  0.3801
20069SOL    HW267069   7.847   8.874   0.491 -0.7898 -0.1397  0.5054
20070SOL     OW67070   9.583  11.320  11.083  0.2633  0.5109  0.1933
20070SOL    HW167071   9.519  11.390  11.084  0.4788  0.6986  0.9007
20070SOL    HW267072   9.533  11.242  11.059  0.2962  1.1466 -2.1805
20071SOL     OW67073  11.107   0.112   1.413 -0.2492  0.0522 -0.0907
20071SOL    HW167074  11.092   0.035   1.358  0.2025 -1.2306  1.5104
20071SOL    HW267075  11.020   0.135   1.446 -0.2038 -0.6785  0.5636
20072SOL     OW67076   5.425   0.543   4.976  0.5570  0.5134 -0.6061
20072SOL    HW167077   5.396   0.567   5.064  0.7265  0.7297 -0.6077
20072SOL    HW267078   5.363   0.476   4.948 -0.2968  1.3788 -0.8420
20073SOL     OW67079   2.744   3.332   9.871  1.0503  0.2364 -0.1520
20073SOL    HW167080   2.743   3.427   9.861 -1.5355  0.2534 -0.3513
20073SOL    HW267081   2.721   3.317   9.963 -3.4031 -0.1102 -1.1071
20074SOL     OW67082   4.654  10.893   7.142  0.2647 -0.1156 -0.2793
20074SOL    HW167083   4.571  10.885   7.094  0.3996  1.9420 -0.9479
20074SOL    HW267084   4.713  10.832   7.097 -0.2800 -0.0018 -1.1787
20075SOL     OW67085  10.869  11.138  11.797 -0.5639  0.5733 -0.0033
20075SOL    HW167086  10.833  11.208  11.744  0.5011 -0.8073 -2.7245
20075SOL    HW267087  10.843  11.057  11.752  2.8121 -0.5908 -0.1641
20076SOL     OW67088   8.942   9.672  10.088  0.5930  1.5170 -0.1063
20076SOL    HW167089   8.864   9.641  10.042  0.4992  0.7809  0.5198
20076SOL    HW267090   9.012   9.666  10.023  1.0934 -2.3369  0.5034
20077SOL     OW67091   0.388   2.631   2.328 -0.3784 -0.6269  0.8634
20077SOL    HW167092   0.424   2.589   2.406  0.8965  1.3239  1.3921
20077SOL    HW267093   0.301   2.661   2.355  0.3288  0.6463  1.7851
20078SOL     OW67094   2.495   5.237   7.193  0.1290  0.4184  0.4506
20078SOL    HW167095   2.494   5.215   7.100  0.7867 -0.2851  0.5897
20078SOL    HW267096   2.404   5.231   7.221 -0.1649  1.2923 -0.2848
20079SOL     OW67097   9.964   9.919   9.703  0.4284 -0.0244  0.3304
20079SOL    HW167098   9.888   9.893   9.652  0.1902  0.5314  0.3924
20079SOL    HW267099  10.030   9.943   9.638  1.1786 -2.1391  0.2266
20080SOL     OW67100   4.321   4.374   1.405  0.0100  0.0196 -0.3117
20080SOL    HW167101   4.314   4.355   1.498  3.9573 -1.0189 -0.0772
20080SOL    HW267102   4.357   4.463   1.401  1.3601 -0.5154 -0.7194
20081SOL     OW67103   9.984   0.283   7.446 -0.0161  0.4499  0.1194
20081SOL    HW167104   9.973   0.319   7.358  0.4311 -1.4705 -0.7815
20081SOL    HW267105   9.904   0.234   7.462 -0.1867  0.9593  0.9062
20082SOL     OW67106   7.248   7.276   3.984  0.1172 -0.4339  0.2870
20082SOL    HW167107   7.207   7.252   3.901  0.0501 -1.5230  0.6087
20082SOL    HW267108   7.238   7.198   4.038  1.5265 -0.2866  0.8000
20083SOL     OW67109   6.286  11.061   4.386  0.3875 -0.4860  0.1700
20083SOL    HW167110   6.224  11.049   4.459 -2.3377  1.5805 -1.6344
20083SOL    HW267111   6.327  11.145   4.403  0.1145 -0.2322 -0.4067
20084SOL     OW67112   5.448   9.286  12.187 -0.9818 -0.4521 -0.0130
20084SOL    HW167113   5.407   9.206  12.153 -2.7416  0.8574 -1.1417
20084SOL    HW267114   5.465   9.339  12.110  2.2185 -0.5461  0.4842
20085SOL     OW67115   3.444  10.168   0.778  0.7578 -0.0492  0.2162
20085SOL    HW167116   3.428  10.079   0.810  0.7259  1.0393  3.5997
20085SOL    HW267117   3.540  10.174   0.774  0.7546 -0.4043 -0.6935
20086SOL     OW67118   4.496  12.377   0.075  0.0321  0.5221 -0.1430
20086SOL    HW167119   4.577  12.428   0.080 -1.1787  2.6176 -0.5533
20086SOL    HW267120   4.450  12.414   0.000 -1.4828 -0.3651  0.3188
20087SOL     OW67121  12.387   2.391   0.054  0.0197  0.4136 -0.2619
20087SOL    HW167122  12.461   2.374  -0.004 -0.6181 -1.0675 -0.7073
20087SOL    HW267123  12.366   2.305   0.092 -2.3359  0.4709 -1.2235
20088SOL     OW67124   5.459   7.197   5.220  0.0970 -0.6595  0.1865
20088SOL    HW167125   5.494   7.251   5.290  0.4224 -0.2433 -0.2919
20088SOL    HW267126   5.367   7.224   5.212  0.7562  1.3166 -1.4176
20089SOL     OW67127   7.995   5.040   9.712 -0.0139 -0.0909 -0.3013
20089SOL    HW167128   8.012   4.993   9.794  3.0951  0.7829 -0.3027
20089SOL    HW267129   8.007   5.132   9.735  0.1506  0.2170 -1.5588
20090SOL     OW67130   5.330   4.632  12.279 -0.4393 -0.2485 -0.2409
20090SOL    HW167131   5.286   4.635  12.195 -0.3224  0.5508 -0.2811
20090SOL    HW267132   5.405   4.690  12.269 -1.1153  0.8434  0.7946
20091SOL     OW67133  11.227   3.562   4.498  0.2792  0.3358  0.1752
20091SOL    HW167134  11.317   3.529   4.502  0.5073  0.9249 -0.0131
20091SOL    HW267135  11.227   3.623   4.424 -0.2636  0.3718  0.2032
20092SOL     OW67136   0.003   2.069   9.000  0.1353  0.5486  0.5919
20092SOL    HW167137   0.089   2.058   9.041  0.8429  1.1266 -0.6616
20092SOL    HW267138  -0.004   1.995   8.939 -0.5382  0.1537  1.1451
20093SOL     OW67139   8.340  12.359  10.220 -0.2110  0.3571 -0.5645
20093SOL    HW167140   8.279  12.318  10.281  0.1508 -1.6163 -1.4509
20093SOL    HW267141   8.326  12.453  10.231  0.0807  0.1194  2.7873
20094SOL     OW67142   7.123   7.212  12.276  0.1104 -0.2199  0.0351
20094SOL    HW167143   7.213   7.195  12.302 -0.1057 -1.8381 -0.1676
20094SOL    HW267144   7.074   7.216  12.358  0.3972  1.0627  0.1699
20095SOL     OW67145   8.397   9.886   2.657  0.0791  0.5273 -0.3449
20095SOL    HW167146   8.303   9.867   2.651 -0.3113  2.1390  0.1448
20095SOL    HW267147   8.436   9.838   2.583 -1.5034  1.8923 -2.1822
20096SOL     OW67148   4.224   8.512   1.925  0.0181  0.5510  0.1452
20096SOL    HW167149   4.217   8.440   1.863 -2.3421  0.2269  0.6732
20096SOL    HW267150   4.313   8.508   1.958  0.1026 -1.8126 -0.2461
20097SOL     OW67151   7.837   1.633  11.963 -0.5103  0.1600  0.0649
20097SOL    HW167152   7.830   1.538  11.964  0.6924  0.0654  0.1322
20097SOL    HW267153   7.834   1.659  12.055  0.2050  0.0959  0.1116
20098SOL     OW67154   3.140   3.626   8.651 -0.1385 -0.1674 -0.1580
20098SOL    HW167155   3.051   3.652   8.676  0.0063 -0.5486  0.7997
20098SOL    HW267156   3.129   3.543   8.606 -0.1645 -0.9147  1.1757
20099SOL     OW67157   4.106  10.364   0.656  0.0750 -0.0856  0.0839
20099SOL    HW167158   4.048  10.304   0.704 -0.2620  0.5398  0.4745
20099SOL    HW267159   4.174  10.307   0.619 -0.4933 -0.7634  0.0567
20100SOL     OW67160   4.293  11.552   3.030  0.2560  0.0751 -0.3108
20100SOL    HW167161   4.335  11.594   3.105 -1.1743  0.3742  0.3502
20100SOL    HW267162   4.254  11.472   3.065 -0.7887  0.4306 -0.6199
20101SOL     OW67163  10.733   2.420   7.921  0.1707  0.0816  0.3763
20101SOL    HW167164  10.819   2.434   7.881  0.6377 -1.3508  0.8097
20101SOL    HW267165  10.726   2.488   7.987  1.7800 -0.8338  1.5719
20102SOL     OW67166   4.390   4.553   4.106 -0.9240  0.4274 -0.0266
20102SOL    HW167167   4.430   4.514   4.183 -1.6972 -3.8935 -1.5490
20102SOL    HW267168   4.460   4.556   4.041 -1.1290  0.6425 -0.2403
20103SOL     OW67169   5.998   5.855   1.283 -0.2290 -0.2007 -0.3511
20103SOL    HW167170   5.965   5.909   1.355 -1.5441 -1.3857 -0.0082
20103SOL    HW267171   6.091   5.874   1.279 -0.1951  0.1947  1.4239
20104SOL     OW67172   8.334   1.006   2.370  0.0290  0.6196 -0.1102
20104SOL    HW167173   8.336   0.918   2.406  2.1415 -0.2302 -2.0252
20104SOL    HW267174   8.354   1.063   2.443  0.6614 -0.6840  0.7630
20105SOL     OW67175  10.405   5.897  11.901  0.4339 -0.3583  0.1815
20105SOL    HW167176  10.403   5.844  11.822 -1.5442 -0.0246 -0.0456
20105SOL    HW267177  10.480   5.955  11.889  0.9943 -1.2568 -0.7895
20106SOL     OW67178   1.164   8.378   0.422  0.1598 -0.1974  0.0393
20106SOL    HW167179   1.202   8.410   0.340  0.0779  1.5726  0.6566
20106SOL    HW267180   1.225   8.311   0.452  0.7768 -0.0786 -0.9086
20107SOL     OW67181  11.004   2.355   2.018 -0.0763  0.1911  0.0630
20107SOL    HW167182  10.985   2.448   2.004 -0.7823 -0.3225 -3.4639
20107SOL    HW267183  11.074   2.336   1.955  1.4152 -1.3418  2.0401
20108SOL     OW67184  11.015  12.014   2.849  0.1964  0.2088 -0.9685
20108SOL    HW167185  11.031  11.977   2.936 -0.8551  1.6581 -0.1085
20108SOL    HW267186  10.986  12.104   2.866 -0.2055  0.4765 -2.8173
20109SOL     OW67187   0.590   2.814   0.474 -0.4222  0.5269  0.0047
20109SOL    HW167188   0.502   2.843   0.499 -0.4922 -1.1636  1.9815
20109SOL    HW267189   0.575   2.738   0.419 -0.2185 -0.1459  0.8627
20110SOL     OW67190   1.740   8.375   1.287  0.2918  0.1071  0.4519
20110SOL    HW167191   1.828   8.349   1.314  0.5710  1.8975  1.4546
20110SOL    HW267192   1.690   8.380   1.368 -0.7372 -0.8272 -0.1020
20111SOL     OW67193   8.765   9.691  11.920  0.3322 -0.0742 -0.2407
20111SOL    HW167194   8.711   9.745  11.978  1.0073 -1.3951  1.6979
20111SOL    HW267195   8.724   9.604  11.923  0.3911 -0.1854 -1.7641
20112SOL     OW67196   0.549   9.472  10.729  0.1318  0.1387 -0.0275
20112SOL    HW167197   0.569   9.428  10.812 -1.7222 -2.0868 -0.6423
20112SOL    HW267198   0.552   9.565  10.750 -0.2645 -0.3433  2.5694
20113SOL     OW67199   7.685   3.655   2.709 -0.2711 -0.0445  0.0473
20113SOL    HW167200   7.776   3.654   2.738  0.0025  0.8470 -0.7126
20113SOL    HW267201   7.634   3.660   2.789  0.3963  0.5825  0.4438
20114SOL     OW67202  11.550   7.725   1.101 -0.4665 -0.3118 -0.2823
20114SOL    HW167203  11.462   7.756   1.120 -0.8967 -1.0775 -0.9743
20114SOL    HW267204  11.598   7.804   1.074 -0.4139  0.4258  1.7569
20115SOL     OW67205   5.158  11.916   0.433 -0.1148  0.3943 -0.1768
20115SOL    HW167206   5.212  11.911   0.354 -0.4979  0.2165 -0.4282
20115SOL    HW267207   5.213  11.961   0.497  0.0952  0.7833 -0.6314
20116SOL     OW67208   9.772   3.211   6.978  0.0875 -0.0535  0.2546
20116SOL    HW167209   9.816   3.139   6.935 -1.4052 -1.0674  0.3720
20116SOL    HW267210   9.679   3.202   6.954 -0.7767 -0.4696  3.2910
20117SOL     OW67211   8.205   4.065   6.842 -0.0615  0.3013  0.0411
20117SOL    HW167212   8.152   4.066   6.923 -2.1223 -1.2616 -1.1879
20117SOL    HW267213   8.223   4.158   6.825 -1.3088  0.8049  1.2190
20118SOL     OW67214  11.754   3.540   2.922  0.5675  0.2468 -0.0940
20118SOL    HW167215  11.836   3.490   2.919  1.0557  0.9816  0.6406
20118SOL    HW267216  11.772   3.612   2.982 -0.1205  1.3378 -1.1608
20119SOL     OW67217   2.530  10.167   5.411  0.4008  0.0050 -0.5087
20119SOL    HW167218   2.615  10.123   5.405  0.7074  0.4511  0.4164
20119SOL    HW267219   2.519  10.209   5.326  2.6566  2.7136  0.3820
20120SOL     OW67220   6.792   2.239   3.873  0.3147  0.5146  0.2014
20120SOL    HW167221   6.717   2.181   3.869  0.5611 -0.2663  3.6112
20120SOL    HW267222   6.867   2.181   3.883  0.8766  1.3130  0.8476
20121SOL     OW67223   0.119   4.604   9.506  0.1295  0.7815 -0.0572
20121SOL    HW167224   0.137   4.670   9.573  1.5752 -0.7787  1.1482
20121SOL    HW267225   0.105   4.523   9.554 -0.0820 -0.1346 -1.5894
20122SOL     OW67226   0.813   9.653   3.677  0.7286  0.2271 -0.2546
20122SOL    HW167227   0.724   9.662   3.712  1.1600 -1.4221  1.4036
20122SOL    HW267228   0.805   9.586   3.609  0.7283 -0.0405  0.0080
20123SOL     OW67229   8.046   9.040   3.477 -0.2730  0.2072  0.3737
20123SOL    HW167230   8.131   8.997   3.488 -0.9828 -1.8287 -1.4510
20123SOL    HW267231   8.068   9.125   3.440  0.9758 -0.6981 -1.0984
20124SOL     OW67232   7.016   5.438   6.938 -0.4478  0.5217 -0.2854
20124SOL    HW167233   7.030   5.372   7.005  2.7174  0.2034 -1.1077
20124SOL    HW267234   6.981   5.389   6.863  1.4359 -0.2311 -0.7304
20125SOL     OW67235  11.090   8.123   9.490  0.4741 -0.5541 -0.2268
20125SOL    HW167236  11.144   8.180   9.436  2.2347 -0.4487  1.5668
20125SOL    HW267237  11.147   8.048   9.511  0.3503  0.0280  2.5275
20126SOL     OW67238   6.236   5.299  11.519  0.1403 -0.6643  0.0786
20126SOL    HW167239   6.167   5.257  11.468 -0.8732  0.8353  0.1475
20126SOL    HW267240   6.198   5.314  11.605  0.1648  1.0646 -0.1734
20127SOL     OW67241   0.775   3.098  10.283 -0.3492  0.4991  0.0132
20127SOL    HW167242   0.785   3.086  10.377  0.1100  1.9510  0.1869
20127SOL    HW267243   0.735   3.017  10.251  0.3119 -0.3598  1.3143
20128SOL     OW67244   6.632  12.164   3.691 -0.2972  0.0012 -0.1542
20128SOL    HW167245   6.619  12.227   3.620 -1.0655 -0.0910 -0.1015
20128SOL    HW267246   6.712  12.117   3.666  1.6379  2.4416  0.8992
20129SOL     OW67247   4.524   2.227   8.500  0.4969  0.1662 -0.2434
20129SOL    HW167248   4.570   2.256   8.579  1.0248 -0.2489 -0.3897
20129SOL    HW267249   4.578   2.260   8.428 -0.1463  0.8044 -0.4381
20130SOL     OW67250   7.121  10.155  10.053  0.0032 -0.2833 -0.1584
20130SOL    HW167251   7.083  10.182   9.970  0.2734 -0.7666 -0.4460
20130SOL    HW267252   7.214  10.142  10.034  0.0936 -0.2544  0.2506
20131SOL     OW67253   7.577   2.816   4.554  0.0569 -0.8361  0.3208
20131SOL    HW167254   7.588   2.910   4.541 -0.4399 -0.7405  0.5945
20131SOL    HW267255   7.636   2.776   4.489  1.0310 -0.3361  0.8699
20132SOL     OW67256  10.562   7.371   6.006 -0.0076  0.4665  0.0622
20132SOL    HW167257  10.585   7.284   5.975  1.8112  1.6907 -2.2957
20132SOL    HW267258  10.623   7.388   6.078 -2.2159 -1.1693  2.5281
20133SOL     OW67259   1.335   4.045   7.113  0.3639 -0.1702  0.0566
20133SOL    HW167260   1.261   4.090   7.073 -0.4404 -1.7428 -0.3160
20133SOL    HW267261   1.365   4.104   7.182 -2.2469 -0.1339  1.2839
20134SOL     OW67262   6.618   0.627   1.143 -0.6180 -0.2522  0.6875
20134SOL    HW167263   6.541   0.604   1.194 -1.4996  0.7688 -0.1427
20134SOL    HW267264   6.607   0.583   1.060 -1.2880  1.3905 -0.1399
20135SOL     OW67265   4.437   4.956  11.569 -0.6942  0.0122 -0.0658
20135SOL    HW167266   4.342   4.942  11.574 -0.8537  0.5769 -1.1126
20135SOL    HW267267   4.460   4.930  11.480 -0.1828  1.5042 -0.4096
20136SOL     OW67268  11.662   7.747   2.284  0.1772 -0.1036  0.6614
20136SOL    HW167269  11.609   7.689   2.229 -1.2050  1.3332  0.4172
20136SOL    HW267270  11.624   7.833   2.273  2.5159  1.0098  0.5957
20137SOL     OW67271   8.632   2.663   0.517 -0.0742 -0.8452 -0.0363
20137SOL    HW167272   8.713   2.651   0.566 -0.7405 -0.4373  1.2033
20137SOL    HW267273   8.645   2.744   0.467 -0.3641  0.2195  1.5546
20138SOL     OW67274   6.079  12.477   5.503 -0.4607  0.0596 -0.2628
20138SOL    HW167275   6.089  12.568   5.528  1.6942 -0.1877 -0.0591
20138SOL    HW267276   6.137  12.429   5.561  0.0749 -1.1984 -1.7547
20139SOL     OW67277   5.737   1.920  11.560 -0.5529  0.1987 -0.6854
20139SOL    HW167278   5.808   1.978  11.534  0.4444 -0.7201 -0.1351
20139SOL    HW267279   5.677   1.920  11.486  0.2814  0.6017 -1.3769
20140SOL     OW67280   7.537   3.323   7.308  0.1875  0.1196 -0.4761
20140SOL    HW167281   7.524   3.418   7.310 -0.2375  0.0513  0.1092
20140SOL    HW267282   7.490   3.295   7.229  2.1575  0.6429 -1.9399
20141SOL     OW67283  12.388  11.976   4.842  0.2219 -0.3994 -0.0787
20141SOL    HW167284  12.466  12.030   4.828  0.3527 -0.1844  1.2701
20141SOL    HW267285  12.315  12.038   4.836  0.2028 -0.4810 -0.6985
20142SOL     OW67286   4.769   5.962  10.246 -0.0611  0.3125  0.0693
20142SOL    HW167287   4.855   5.999  10.268  0.0733 -0.4448  0.8779
20142SOL    HW267288   4.733   5.935  10.330  0.0244 -1.7480 -0.5103
20143SOL     OW67289   8.222   0.815   0.508 -0.1445 -0.0255  0.4313
20143SOL    HW167290   8.192   0.801   0.598  0.6342  0.3322  0.7538
20143SOL    HW267291   8.250   0.906   0.506 -0.2864  0.0090 -0.2176
20144SOL     OW67292   3.567   3.923   3.493 -0.1644 -0.1660  0.5014
20144SOL    HW167293   3.580   3.863   3.420 -1.0273 -1.1323  1.1169
20144SOL    HW267294   3.474   3.948   3.487  0.2641  1.4690  0.0092
20145SOL     OW67295  11.398   9.002   2.733  0.2240  0.2419 -0.1903
20145SOL    HW167296  11.412   8.914   2.768  0.2657 -0.1974 -1.2637
20145SOL    HW267297  11.447   9.003   2.650 -0.2785  1.0690 -0.4928
20146SOL     OW67298   6.921  12.177  11.649  0.1440  0.0637  0.4789
20146SOL    HW167299   6.877  12.092  11.643 -1.2603  0.8633 -2.6223
20146SOL    HW267300   6.897  12.211  11.735 -1.8751 -1.3724  0.5468
20147SOL     OW67301   0.915   3.565   8.562 -0.4550  0.4985 -0.1516
20147SOL    HW167302   0.949   3.557   8.651  0.7277  0.0289 -0.6306
20147SOL    HW267303   0.875   3.480   8.543  1.1763 -0.1606 -0.8065
20148SOL     OW67304   8.865  12.173   5.235 -0.5526  0.3694  0.2752
20148SOL    HW167305   8.942  12.202   5.187 -1.2867 -0.2809 -1.3902
20148SOL    HW267306   8.891  12.174   5.327  1.5940 -0.3333 -0.2840
20149SOL     OW67307   2.074   9.438   7.146  0.8641 -0.7133  0.0836
20149SOL    HW167308   1.997   9.417   7.094  0.1444 -1.5628  1.4401
20149SOL    HW267309   2.148   9.425   7.086 -0.0515  1.1873 -1.5609
20150SOL     OW67310  10.585   8.156  10.184  0.4146  0.0979 -0.4204
20150SOL    HW167311  10.648   8.201  10.241 -0.3594  2.3009 -1.1803
20150SOL    HW267312  10.532   8.103  10.243  1.1358  0.4832  0.6013
20151SOL     OW67313   0.188   5.985   0.977 -0.5930  0.1147  0.2127
20151SOL    HW167314   0.111   6.039   0.963 -0.4333  0.1229 -0.6987
20151SOL    HW267315   0.214   6.002   1.068  0.2564  2.6335 -0.4290
20152SOL     OW67316   1.693  11.017   7.838 -0.0321  0.3574  0.3124
20152SOL    HW167317   1.691  11.090   7.899 -0.2726 -0.7239  1.6405
20152SOL    HW267318   1.640  10.949   7.880 -1.5185  0.0983 -1.7961
20153SOL     OW67319   4.831   5.167  11.656 -0.4183 -0.4972  0.2543
20153SOL    HW167320   4.792   5.182  11.742 -0.7691  1.6975 -0.2377
20153SOL    HW267321   4.907   5.112  11.673 -0.0275  0.5540  2.0839
20154SOL     OW67322  12.427   2.186   9.801  0.2627  0.4038 -0.0870
20154SOL    HW167323  12.483   2.137   9.861 -0.1734 -1.3824 -1.0812
20154SOL    HW267324  12.484   2.207   9.727  0.1454  0.3622 -0.1892
20155SOL     OW67325   7.488   7.945   1.672 -0.1598 -0.1469  0.6457
20155SOL    HW167326   7.519   7.915   1.587 -1.9004 -1.6337  0.4683
20155SOL    HW267327   7.475   7.865   1.722 -2.4784  0.4377  1.0895
20156SOL     OW67328   9.483   5.067   0.819  0.2564  0.3473  0.0705
20156SOL    HW167329   9.556   5.108   0.864  0.3584  1.9493 -1.4551
20156SOL    HW267330   9.505   5.074   0.726 -0.2459 -2.2605 -0.3119
20157SOL     OW67331  11.976  11.454   8.202  0.0631  0.2768  0.1698
20157SOL    HW167332  12.071  11.441   8.202  0.3891  2.2727 -1.0768
20157SOL    HW267333  11.948  11.420   8.116 -0.4712 -0.7955  0.7395
20158SOL     OW67334   4.214  11.757   8.040 -0.5193 -0.1163  0.0339
20158SOL    HW167335   4.136  11.746   7.986 -0.1271  0.8969 -0.7704
20158SOL    HW267336   4.287  11.737   7.982 -0.0717  1.3725  0.0257
20159SOL     OW67337  11.825   7.421   5.395 -0.7038 -0.0631 -0.1770
20159SOL    HW167338  11.870   7.414   5.311 -1.2529 -1.6034 -0.3792
20159SOL    HW267339  11.884   7.377   5.457 -0.1526  1.3411  0.3306
20160SOL     OW67340   5.509   6.129  11.581  0.0677 -0.0687 -0.1915
20160SOL    HW167341   5.433   6.107  11.527 -0.1788 -1.5306  0.6965
20160SOL    HW267342   5.561   6.049  11.584  0.7826  0.4016  0.6163
20161SOL     OW67343   6.788   3.244   2.214 -0.2526  0.2516  0.1714
20161SOL    HW167344   6.709   3.294   2.234 -0.1934  0.5590 -0.3345
20161SOL    HW267345   6.779   3.222   2.121 -0.0115 -0.1969  0.2529
20162SOL     OW67346   5.148   4.336   9.914 -0.5715  0.0254 -0.2893
20162SOL    HW167347   5.127   4.313   9.823 -0.5779 -0.3345 -0.1975
20162SOL    HW267348   5.063   4.358   9.953 -0.4807  0.9117 -0.5725
20163SOL     OW67349   4.033   3.878  10.070  0.0211 -0.2480 -0.2325
20163SOL    HW167350   3.976   3.927  10.129 -3.7779 -1.8691 -2.2359
20163SOL    HW267351   4.069   3.943  10.011 -2.0492  0.5792 -0.6420
20164SOL     OW67352   2.688  10.132  12.353  0.0983 -0.6396  0.0116
20164SOL    HW167353   2.748  10.143  12.428  0.2736 -0.3985 -0.1616
20164SOL    HW267354   2.743  10.148  12.277  0.3295 -2.4899 -0.2683
20165SOL     OW67355  10.939   0.990   3.950 -0.8051  0.3181 -0.0278
20165SOL    HW167356  10.942   0.993   3.854 -0.6963 -0.2200 -0.0439
20165SOL    HW267357  10.851   0.959   3.970 -0.2647 -1.2753 -0.0063
20166SOL     OW67358  12.270   2.649   4.673  0.0459 -0.0930 -0.0037
20166SOL    HW167359  12.277   2.650   4.577  0.9802 -0.2703  0.0541
20166SOL    HW267360  12.318   2.727   4.701  0.1883 -0.3058  0.3433
20167SOL     OW67361   8.332   9.279   1.821 -0.2408  0.1730  0.2055
20167SOL    HW167362   8.238   9.278   1.802 -0.1029  0.2648 -0.5229
20167SOL    HW267363   8.368   9.210   1.766  0.0769 -0.1083  0.7574
20168SOL     OW67364   2.496   2.492   9.458 -0.3497  0.7807 -0.0211
20168SOL    HW167365   2.459   2.530   9.537  0.3128  0.5715  0.3986
20168SOL    HW267366   2.455   2.406   9.451 -0.9572  1.0888 -0.3149
20169SOL     OW67367   7.320   5.928   6.690 -0.2920  0.4683  0.7654
20169SOL    HW167368   7.255   5.871   6.648 -1.9657  1.0512  2.3902
20169SOL    HW267369   7.287   6.016   6.676  2.2585  1.1546 -1.6732
20170SOL     OW67370   2.496   6.376   5.630 -0.4625 -0.1913  0.0852
20170SOL    HW167371   2.423   6.398   5.572  0.7859  2.2993 -0.6619
20170SOL    HW267372   2.538   6.460   5.649  1.4645 -1.4036  1.5334
20171SOL     OW67373   5.921   4.450   5.180 -0.4739 -0.2256 -0.2057
20171SOL    HW167374   5.935   4.367   5.226  0.1127 -0.5227 -0.8895
20171SOL    HW267375   6.010   4.480   5.158 -0.7548 -0.9563 -2.6225
20172SOL     OW67376   3.028  11.765   6.924 -0.3079 -0.1772 -0.2704
20172SOL    HW167377   3.078  11.832   6.970 -0.9563 -0.4701  0.9049
20172SOL    HW267378   3.070  11.757   6.839  1.5885 -0.3344  0.6293
20173SOL     OW67379   3.374   5.243   3.902  0.5305 -0.4093  0.7829
20173SOL    HW167380   3.337   5.283   3.824  1.8763 -1.6555 -0.5631
20173SOL    HW267381   3.420   5.314   3.947  0.4307  0.1594  0.0036
20174SOL     OW67382   8.830   3.049  12.240  0.0258  0.3208  0.1559
20174SOL    HW167383   8.913   3.068  12.282  0.3331  0.7330 -0.6161
20174SOL    HW267384   8.772   3.023  12.311  0.4640  1.2121  0.8477
20175SOL     OW67385   9.492  10.152   4.314 -0.2499  0.0714 -0.4003
20175SOL    HW167386   9.461  10.062   4.327  0.0718 -0.2303 -1.6326
20175SOL    HW267387   9.534  10.175   4.397 -1.0894 -0.5972  0.2314
20176SOL     OW67388  10.206   8.117   1.833  0.5856 -0.2882 -0.0460
20176SOL    HW167389  10.208   8.048   1.766  2.7935 -1.0189  0.6935
20176SOL    HW267390  10.140   8.179   1.801  1.4461 -0.6555 -2.8741
20177SOL     OW67391   4.092   4.914   0.794  0.2649 -0.0618 -0.6134
20177SOL    HW167392   4.095   4.956   0.708 -1.2941 -1.0063 -1.1787
20177SOL    HW267393   4.064   4.984   0.854 -0.8091  0.0899 -1.2694
20178SOL     OW67394   4.197   8.184   1.528 -0.0973  0.7934 -0.7215
20178SOL    HW167395   4.164   8.127   1.598 -1.7494  2.6111  0.0849
20178SOL    HW267396   4.229   8.262   1.574  2.3234  0.4908 -1.7723
20179SOL     OW67397   5.251   1.706   2.572  0.3290 -0.0626  0.0646
20179SOL    HW167398   5.269   1.770   2.641 -1.2902  0.4862  0.0041
20179SOL    HW267399   5.210   1.756   2.502  1.8540 -0.6292 -1.2978
20180SOL     OW67400  12.457  10.154  11.303  0.7359 -0.4705 -0.5476
20180SOL    HW167401  12.493  10.104  11.230  1.0491  1.0157 -1.4541
20180SOL    HW267402  12.378  10.194  11.267  1.0097  0.4557 -0.1358
20181SOL     OW67403   1.625   3.410   6.949  0.3577  0.8153 -0.0042
20181SOL    HW167404   1.639   3.419   6.854 -1.8304 -0.4740 -0.5012
20181SOL    HW267405   1.650   3.495   6.984 -0.2937  1.8793 -1.9376
20182SOL     OW67406   7.510   2.875   1.024 -0.1734  0.5251 -0.1559
20182SOL    HW167407   7.533   2.967   1.011 -1.4342  1.2444  2.2241
20182SOL    HW267408   7.537   2.856   1.114  1.2947 -1.8758 -1.0098
20183SOL     OW67409   1.097  10.609  12.442 -0.0222  0.2330 -0.3624
20183SOL    HW167410   1.026  10.602  12.506 -2.3206  2.3565 -2.4821
20183SOL    HW267411   1.109  10.519  12.410  0.2948 -0.6375  2.0232
20184SOL     OW67412   9.290   3.527   2.812 -0.1977  0.5389  0.1585
20184SOL    HW167413   9.219   3.531   2.748  0.0737  1.1671 -0.1190
20184SOL    HW267414   9.308   3.619   2.833 -0.1393  0.3498  0.9842
20185SOL     OW67415   0.401   7.308   7.946  0.1159 -0.2229 -0.1343
20185SOL    HW167416   0.350   7.386   7.922  2.6105  1.1653 -1.3430
20185SOL    HW267417   0.390   7.301   8.041  0.0914  1.8454  0.0695
20186SOL     OW67418   0.982  11.795   4.173  0.1567 -0.0410 -0.4298
20186SOL    HW167419   1.043  11.760   4.108  1.0111  0.1839  0.2217
20186SOL    HW267420   1.036  11.854   4.226 -0.4731 -0.3498  0.5818
20187SOL     OW67421   3.130   1.089   8.238  0.0406  0.1949 -0.2224
20187SOL    HW167422   3.156   1.030   8.308 -1.7275 -0.6909 -0.2356
20187SOL    HW267423   3.188   1.164   8.245  0.2692 -0.1382  1.8193
20188SOL     OW67424   4.539   3.364   4.503 -0.7005 -0.5018  0.5447
20188SOL    HW167425   4.595   3.416   4.561  0.5588  0.5084 -1.4749
20188SOL    HW267426   4.599   3.326   4.439 -1.8066 -3.1061  0.9151
20189SOL     OW67427   5.748  10.556   1.424  0.5353 -0.4225  0.2131
20189SOL    HW167428   5.749  10.540   1.329  0.4013 -0.6452  0.2491
20189SOL    HW267429   5.833  10.525   1.454  0.2543 -1.1284  0.2915
20190SOL     OW67430   4.489   3.598   4.746  0.4367  0.4302  0.6503
20190SOL    HW167431   4.491   3.662   4.675  1.1527  1.0468  1.2142
20190SOL    HW267432   4.574   3.553   4.741 -0.5330 -1.4219 -0.5528
20191SOL     OW67433  11.539   8.096  11.194 -0.0230 -0.4371 -0.6920
20191SOL    HW167434  11.555   8.181  11.235 -0.6736 -1.2057  1.2545
20191SOL    HW267435  11.515   8.117  11.103 -2.6836  1.6667  0.3787
20192SOL     OW67436   4.313   4.761   9.201  0.1458  0.0954  0.5104
20192SOL    HW167437   4.221   4.787   9.204 -0.1259 -0.9263  1.0711
20192SOL    HW267438   4.328   4.738   9.109 -0.8022 -1.9406  0.8080
20193SOL     OW67439   0.181   6.521  12.017 -0.2669 -0.2021 -0.2306
20193SOL    HW167440   0.176   6.437  12.062 -2.8422  1.8100  3.8645
20193SOL    HW267441   0.144   6.505  11.931 -1.1498 -3.1554  0.5740
20194SOL     OW67442   7.552   7.184   2.163  0.1056  0.1789 -0.3195
20194SOL    HW167443   7.483   7.122   2.138 -0.9221  0.9090  0.6120
20194SOL    HW267444   7.595   7.205   2.081  0.1888 -1.4134 -0.7241
20195SOL     OW67445   8.432   1.523   3.328  0.3494  0.0502  0.0458
20195SOL    HW167446   8.374   1.486   3.395 -0.1908  1.2158  0.2593
20195SOL    HW267447   8.394   1.495   3.245  0.7997 -1.0789  0.2036
20196SOL     OW67448   2.552   1.835  12.415  0.0444 -0.2462 -0.0858
20196SOL    HW167449   2.617   1.882  12.362  0.6412  0.5038  1.2538
20196SOL    HW267450   2.496   1.792  12.351 -0.0427  1.6419 -1.3752
20197SOL     OW67451   0.094   0.039   5.251 -0.2021  0.0156  0.0010
20197SOL    HW167452   0.011   0.034   5.204 -0.9102 -0.6966  1.2616
20197SOL    HW267453   0.135  -0.046   5.237 -1.2132 -0.8679  1.9969
20198SOL     OW67454  12.247   8.408   5.970  0.0570 -0.3431 -0.1470
20198SOL    HW167455  12.289   8.492   5.949  0.5172 -0.4954  0.1520
20198SOL    HW267456  12.318   8.353   6.001 -0.6537  0.0839  2.5057
20199SOL     OW67457   8.772   6.523   1.856 -0.1027 -0.0855  0.4392
20199SOL    HW167458   8.714   6.594   1.884 -2.7293 -2.1095  0.5219
20199SOL    HW267459   8.808   6.489   1.938  0.0596  0.2512  0.5109
20200SOL     OW67460   7.350   7.504   9.311  0.2785 -0.1386  0.6896
20200SOL    HW167461   7.376   7.521   9.220  0.5813 -0.5670  0.6899
20200SOL    HW267462   7.429   7.468   9.351  0.5988  1.4412  1.5280
20201SOL     OW67463   7.650   1.622   4.413  0.1181 -0.7541  0.0320
20201SOL    HW167464   7.721   1.564   4.386  0.0524 -0.8139 -0.0124
20201SOL    HW267465   7.589   1.565   4.460  0.7324 -0.4610  1.2235
20202SOL     OW67466   0.768   6.241   0.513  0.5282 -0.1020 -0.4835
20202SOL    HW167467   0.774   6.334   0.491  0.6295 -0.1116 -0.4946
20202SOL    HW267468   0.707   6.238   0.587 -0.7487 -0.1832 -1.4917
20203SOL     OW67469   9.979  10.044   3.770  0.2075 -0.2755 -0.2329
20203SOL    HW167470   9.899   9.996   3.750 -0.5614  1.1486 -0.7842
20203SOL    HW267471  10.033   9.983   3.821 -0.0056 -2.2483 -2.2385
20204SOL     OW67472   9.041   3.938   5.486  0.0873 -0.0868  0.7412
20204SOL    HW167473   8.996   3.985   5.416 -1.0659 -2.5206 -0.2595
20204SOL    HW267474   9.005   3.975   5.567 -1.6592 -0.0534 -0.0121
20205SOL     OW67475   1.900   7.027   5.112  0.6795  0.5607  0.3559
20205SOL    HW167476   1.992   7.048   5.100  0.5391  1.2342  0.3784
20205SOL    HW267477   1.899   6.959   5.180  1.2371 -0.5470 -0.7069
20206SOL     OW67478  11.873   0.815   2.151 -0.6438  0.4053 -0.3356
20206SOL    HW167479  11.945   0.761   2.183 -0.5971  0.8730  0.3789
20206SOL    HW267480  11.896   0.836   2.061  0.6278  1.3978  0.1949
20207SOL     OW67481   5.067   3.381   6.070  0.4681 -0.0785  0.3693
20207SOL    HW167482   4.978   3.363   6.099 -0.0457  0.8397 -0.5811
20207SOL    HW267483   5.090   3.305   6.015  0.2227 -0.2525  0.5088
20208SOL     OW67484   4.637   5.728   6.349 -0.6572  0.2304  0.3938
20208SOL    HW167485   4.674   5.661   6.291  0.7523  1.2614  0.0366
20208SOL    HW267486   4.546   5.737   6.320 -0.9724 -1.6977  0.6372
20209SOL     OW67487   6.973   7.197  10.600  0.2971 -0.0574 -0.0994
20209SOL    HW167488   7.028   7.120  10.608  0.5537  0.2400  1.2791
20209SOL    HW267489   6.930   7.205  10.686 -0.8745  0.4760 -0.7062
20210SOL     OW67490   5.997   5.218   4.504 -0.1724  0.3995 -0.0870
20210SOL    HW167491   5.948   5.152   4.455  2.4876 -0.6721 -1.5440
20210SOL    HW267492   5.933   5.257   4.563 -2.4930 -1.5288 -1.1546
20211SOL     OW67493  11.015   4.940  12.119 -0.4195 -0.3422 -0.4065
20211SOL    HW167494  11.032   5.034  12.133  1.4952 -0.5746 -0.8400
20211SOL    HW267495  10.967   4.936  12.036 -2.7728  0.3702  0.8303
20212SOL     OW67496   0.482   6.148   2.334 -0.5846 -0.1366 -0.2844
20212SOL    HW167497   0.457   6.228   2.380 -0.0435  0.5834 -1.2111
20212SOL    HW267498   0.430   6.079   2.377 -0.7830  0.6364  0.7733
20213SOL     OW67499   7.334   4.738   9.009  0.9897  0.6325  0.0052
20213SOL    HW167500   7.268   4.671   8.990  1.5020  0.7468 -2.5725
20213SOL    HW267501   7.287   4.803   9.061  0.4347 -1.5842  2.4807
20214SOL     OW67502   2.749  11.159   7.174 -0.2926  0.5900 -0.6669
20214SOL    HW167503   2.801  11.229   7.135  1.2534 -0.5863 -0.7976
20214SOL    HW267504   2.782  11.079   7.133 -2.2898 -0.2123 -0.8272
20215SOL     OW67505  11.157   9.986  10.806  0.1278  0.0875 -0.2443
20215SOL    HW167506  11.139  10.038  10.885 -1.7894  0.0959 -0.6398
20215SOL    HW267507  11.238  10.023  10.771 -0.5483  2.0431  0.1259
20216SOL     OW67508   7.322   9.251   0.713 -0.2464  0.3525  0.2902
20216SOL    HW167509   7.376   9.313   0.663 -0.6430 -1.0745 -2.1024
20216SOL    HW267510   7.237   9.294   0.721 -0.4459  0.2602 -1.1186
20217SOL     OW67511   5.490   8.938   1.614  0.2217 -0.0268  0.1226
20217SOL    HW167512   5.404   8.942   1.657  0.5194 -2.0085  1.0240
20217SOL    HW267513   5.501   8.846   1.592  2.5498 -0.0080  0.9618
20218SOL     OW67514   0.825   2.955   0.964  0.0114 -0.3544  0.4238
20218SOL    HW167515   0.850   2.864   0.951 -1.6067 -0.6822 -0.7821
20218SOL    HW267516   0.839   2.996   0.878  0.4518  0.4574  0.8784
20219SOL     OW67517   8.106   4.768   5.778  0.2411  0.3008 -0.6304
20219SOL    HW167518   8.092   4.687   5.730 -0.3159 -0.6663  1.0790
20219SOL    HW267519   8.120   4.834   5.710 -0.4179 -1.0045 -2.0970
20220SOL     OW67520   4.059   8.462   0.290  0.1181  0.0978  0.1361
20220SOL    HW167521   4.089   8.374   0.266 -1.5044 -0.1488 -1.1997
20220SOL    HW267522   4.066   8.465   0.385  0.7322 -1.2810  0.1543
20221SOL     OW67523   0.274   3.854   8.823 -0.7614  0.0275  0.2110
20221SOL    HW167524   0.309   3.940   8.801 -3.6678  1.2357 -0.1642
20221SOL    HW267525   0.312   3.795   8.758  2.4704  0.6222  1.3728
20222SOL     OW67526  10.183   6.676   6.317 -0.0683  0.0922  0.2526
20222SOL    HW167527  10.167   6.671   6.223  0.2509 -0.0506  0.2028
20222SOL    HW267528  10.219   6.763   6.330 -0.3477  0.2036  0.2798
20223SOL     OW67529   2.206   6.055   1.910 -0.6248  0.1926 -0.2221
20223SOL    HW167530   2.266   5.992   1.952 -0.3265  0.1590 -0.7005
20223SOL    HW267531   2.128   6.003   1.890 -0.2830 -0.0925 -0.8427
20224SOL     OW67532   0.108   0.516   9.887  0.5938 -0.4513  0.0040
20224SOL    HW167533   0.057   0.514   9.807 -1.5460  0.3904  1.2534
20224SOL    HW267534   0.074   0.443   9.939  0.8489 -0.0440  0.7611
20225SOL     OW67535   3.592   8.712   8.928  0.5566 -0.3320  0.1099
20225SOL    HW167536   3.589   8.702   8.833 -0.6360  0.0507  0.0897
20225SOL    HW267537   3.664   8.773   8.943  1.2606 -0.9973 -0.4802
20226SOL     OW67538  11.352   3.429   1.708  0.0704  0.2555 -0.1356
20226SOL    HW167539  11.309   3.463   1.787 -0.9463  0.2733 -0.6750
20226SOL    HW267540  11.374   3.339   1.729  0.4830  0.4886  0.4313
20227SOL     OW67541   7.579   6.306  10.283  0.0344  0.1541  0.3298
20227SOL    HW167542   7.576   6.261  10.199  0.8443 -0.5580  0.6676
20227SOL    HW267543   7.670   6.337  10.291  0.1165 -0.2735  1.1833
20228SOL     OW67544   0.633   7.156   5.258  0.2987  0.0614  0.9080
20228SOL    HW167545   0.641   7.216   5.184 -2.8386  1.8187  1.7961
20228SOL    HW267546   0.615   7.071   5.219  2.8226  0.0102 -0.3336
20229SOL     OW67547   0.036   4.139   4.956 -0.3080  0.0433 -0.4340
20229SOL    HW167548   0.096   4.113   4.886  0.0164  0.0325 -0.1499
20229SOL    HW267549  -0.040   4.082   4.944 -0.8287  0.9226 -1.5940
20230SOL     OW67550  10.070  10.962  11.407  0.3831  0.0795  0.2255
20230SOL    HW167551  10.093  10.954  11.500 -0.9714 -0.5130  0.5436
20230SOL    HW267552  10.046  11.054  11.396 -0.8420 -0.1497  0.8313
20231SOL     OW67553   4.182  11.794  11.281 -0.0932  0.5667 -0.0701
20231SOL    HW167554   4.210  11.882  11.253 -0.9292  0.4283 -1.4396
20231SOL    HW267555   4.090  11.790  11.256  0.0342 -0.8352 -0.3431
20232SOL     OW67556   8.980   3.630   7.407 -0.3603  0.1931 -0.6936
20232SOL    HW167557   8.924   3.565   7.364 -1.0206  0.2786  0.0065
20232SOL    HW267558   8.959   3.712   7.362 -1.6240  0.4270  0.2610
20233SOL     OW67559   9.932   9.952   6.621 -0.3998 -0.1592  0.0619
20233SOL    HW167560   9.990   9.884   6.655  0.0430 -0.0592 -0.4653
20233SOL    HW267561   9.869   9.969   6.691  0.3827 -0.0718  0.7563
20234SOL     OW67562   5.699   7.022   8.073 -0.1331  0.6009 -0.0514
20234SOL    HW167563   5.758   7.086   8.034 -0.3557 -0.1358 -1.6400
20234SOL    HW267564   5.744   6.994   8.153  0.1359  2.4388  0.5020
20235SOL     OW67565   5.946   2.723   4.638 -0.9523 -0.3119 -0.0829
20235SOL    HW167566   6.008   2.772   4.691  2.3725 -2.6486 -1.4941
20235SOL    HW267567   5.955   2.632   4.667  0.4285 -1.5858 -3.8714
20236SOL     OW67568   8.910   5.109   2.797 -0.4225 -0.4577  0.4720
20236SOL    HW167569   8.861   5.131   2.876 -0.9490 -1.7069  0.5186
20236SOL    HW267570   8.865   5.158   2.727  0.0328  0.6316  0.9176
20237SOL     OW67571   1.010   0.887   9.114 -0.3165  0.0847 -0.1261
20237SOL    HW167572   1.055   0.833   9.179  0.9847  0.2964 -0.8255
20237SOL    HW267573   0.917   0.873   9.133  0.0097  0.2033  1.8170
20238SOL     OW67574  10.100   1.034   2.777 -0.4629  0.2943 -0.2323
20238SOL    HW167575  10.183   1.029   2.730 -0.0311 -1.4698  0.6351
20238SOL    HW267576  10.123   1.058   2.866 -0.6019 -2.0803  0.5181
20239SOL     OW67577   4.672   3.169   8.644  0.4398 -0.2964 -0.0184
20239SOL    HW167578   4.639   3.081   8.625  0.0865  0.4118 -3.2928
20239SOL    HW267579   4.747   3.179   8.584  0.5460  1.5693  0.3850
20240SOL     OW67580   0.030  12.322   0.584  0.0968 -0.0336 -0.8600
20240SOL    HW167581   0.069  12.297   0.668 -0.0515  1.5304 -0.2787
20240SOL    HW267582  -0.064  12.310   0.597  0.1028 -0.1544 -0.9328
20241SOL     OW67583   9.781  12.337  10.251 -0.5270  0.5812  0.4200
20241SOL    HW167584   9.758  12.322  10.159  0.5491  1.6714 -0.0621
20241SOL    HW267585   9.736  12.268  10.299 -0.6461 -0.3679 -0.9960
20242SOL     OW67586   6.887   8.131   8.729  0.1748  0.3856 -0.0543
20242SOL    HW167587   6.907   8.198   8.663  0.4744  1.3340  0.9652
20242SOL    HW267588   6.797   8.150   8.755  0.2675  0.4050  0.2517
20243SOL     OW67589   3.647   7.994   6.685 -0.0073  0.3577  0.0926
20243SOL    HW167590   3.599   7.916   6.657  1.4735  0.2909 -2.5843
20243SOL    HW267591   3.735   7.963   6.704  0.2451  1.1680  0.2955
20244SOL     OW67592   5.403   2.029  10.694  0.1458  0.1889  0.3755
20244SOL    HW167593   5.488   2.048  10.654  0.6801 -0.3538  1.2207
20244SOL    HW267594   5.348   2.103  10.670  1.0118  0.8083  0.2512
20245SOL     OW67595   2.288   6.136   9.740 -0.7255  0.3988 -0.1026
20245SOL    HW167596   2.228   6.210   9.750 -1.4638 -0.1609 -0.2815
20245SOL    HW267597   2.287   6.119   9.646  0.1821  0.7563 -0.1832
20246SOL     OW67598  10.959   5.511  11.828  0.0340 -0.0287 -0.0048
20246SOL    HW167599  10.988   5.426  11.859  0.7288  0.7482  1.6177
20246SOL    HW267600  10.958   5.503  11.732  3.8459 -0.7359 -0.1396
20247SOL     OW67601   1.810  10.429   5.051  0.6603  0.3165  0.4383
20247SOL    HW167602   1.802  10.376   5.131  0.0270  0.0693  0.2194
20247SOL    HW267603   1.901  10.455   5.049  1.5682 -2.5117 -0.5253
20248SOL     OW67604  11.655   1.016   6.859  0.1946 -0.3682  1.2042
20248SOL    HW167605  11.677   0.923   6.854  1.9323  0.0583  0.1014
20248SOL    HW267606  11.636   1.041   6.769 -2.1371 -0.0202  1.7253
20249SOL     OW67607   0.117   0.150   4.092  0.0171 -0.3365 -0.2197
20249SOL    HW167608   0.139   0.060   4.065 -0.3321 -0.4080 -0.2713
20249SOL    HW267609   0.067   0.185   4.018 -0.3900 -0.3145  0.0647
20250SOL     OW67610   4.684   5.090  12.208  0.3364 -0.1166  0.0202
20250SOL    HW167611   4.668   5.147  12.283 -0.6955 -0.1720 -0.1389
20250SOL    HW267612   4.779   5.091  12.196  0.3113  1.9940 -0.3098
20251SOL     OW67613   6.471   0.465   2.712  0.0425  0.3264 -0.2596
20251SOL    HW167614   6.429   0.488   2.629 -0.5686 -0.9876 -0.3439
20251SOL    HW267615   6.549   0.519   2.716  0.1460  0.3176 -1.7587
20252SOL     OW67616   0.406   6.488   9.655  0.0479  0.1238 -0.4795
20252SOL    HW167617   0.464   6.485   9.731 -0.3279 -3.1975 -0.1914
20252SOL    HW267618   0.454   6.537   9.589  1.6576  0.4952  0.9118
20253SOL     OW67619   5.661   7.406   6.673  0.7470 -0.2688  0.3585
20253SOL    HW167620   5.595   7.466   6.708  0.0678 -0.9249  0.2305
20253SOL    HW267621   5.745   7.443   6.700  0.2703 -0.3092  1.9533
20254SOL     OW67622   4.642   8.299   6.050  0.0207 -0.2879 -0.6496
20254SOL    HW167623   4.665   8.385   6.014 -0.1331  0.5608  1.1618
20254SOL    HW267624   4.599   8.319   6.133 -3.2916 -1.9559 -1.7763
20255SOL     OW67625   9.486   9.757   3.197 -0.0171  0.5109  0.5414
20255SOL    HW167626   9.491   9.783   3.289 -0.5457 -1.9149  1.3336
20255SOL    HW267627   9.399   9.787   3.169 -0.0878  0.7626  1.0197
20256SOL     OW67628   8.835   6.146   4.090 -0.4923 -0.0131  0.1568
20256SOL    HW167629   8.775   6.116   4.022 -1.5101  0.5957  0.7708
20256SOL    HW267630   8.913   6.091   4.078 -0.7512 -0.1118 -1.3019
20257SOL     OW67631   7.109  10.257   1.377 -0.2700 -0.2549  0.0091
20257SOL    HW167632   7.017  10.234   1.389 -0.3567  0.6720  1.1833
20257SOL    HW267633   7.158  10.184   1.417 -0.5172  0.1054  0.9855
20258SOL     OW67634   7.935   7.398  11.361  0.2626 -0.2156  0.2396
20258SOL    HW167635   7.970   7.482  11.333  0.3665 -0.1565  0.5484
20258SOL    HW267636   7.842   7.402  11.340 -0.1212  0.7137  1.9884
20259SOL     OW67637   9.467   2.445   0.402 -0.3988  0.4481 -0.8261
20259SOL    HW167638   9.460   2.349   0.402 -1.1521  0.4936 -0.3350
20259SOL    HW267639   9.510   2.466   0.485 -0.0003  0.5256 -1.0491
20260SOL     OW67640  10.116   1.278   5.129 -0.7733  0.5357  0.4151
20260SOL    HW167641  10.049   1.248   5.190 -0.8752 -0.3362 -0.1178
20260SOL    HW267642  10.083   1.255   5.043  0.5015 -0.5525  0.1766
20261SOL     OW67643   6.953  11.072   2.498  0.3723  0.2302  0.0120
20261SOL    HW167644   6.933  10.994   2.550  1.1650 -0.6554 -0.9453
20261SOL    HW267645   6.978  11.138   2.562 -1.5820  0.1434  0.9412
20262SOL     OW67646   5.665   0.623   3.117 -0.4510 -0.5527 -0.0312
20262SOL    HW167647   5.749   0.602   3.076 -0.0411  1.3935 -0.3123
20262SOL    HW267648   5.625   0.538   3.134  0.7438 -1.5051 -1.6033
20263SOL     OW67649   9.075   5.126   6.920 -0.1548  0.9097  0.2461
20263SOL    HW167650   9.056   5.032   6.929  0.8968  0.7560  1.0612
20263SOL    HW267651   9.008   5.169   6.973 -0.0304  0.5631  0.6858
20264SOL     OW67652   1.015   0.667   0.017  0.3147  0.0677  0.0383
20264SOL    HW167653   0.951   0.692   0.084  0.5013  1.2813 -0.2179
20264SOL    HW267654   0.979   0.586  -0.021 -0.4348  0.0599  0.7334
20265SOL     OW67655   4.332  11.701   0.036 -0.0776  0.1436  0.3607
20265SOL    HW167656   4.264  11.686  -0.030  0.1111  0.3631  0.1133
20265SOL    HW267657   4.294  11.767   0.094  0.1291  0.6785 -0.0955
20266SOL     OW67658   7.112  10.670   6.177 -0.2621  0.3365  0.1155
20266SOL    HW167659   7.117  10.576   6.157 -0.9436  0.4352 -0.5621
20266SOL    HW267660   7.102  10.673   6.272 -2.3971 -0.3899 -0.0195
20267SOL     OW67661   7.000  11.754   0.168 -0.7444 -1.1055 -0.0539
20267SOL    HW167662   6.974  11.674   0.124 -2.8657 -0.8461  0.5967
20267SOL    HW267663   6.918  11.790   0.203  0.1453  1.2883 -0.2297
20268SOL     OW67664   8.806   5.167   1.622  0.3683 -0.7716 -0.0067
20268SOL    HW167665   8.739   5.221   1.580 -1.2624 -1.5978  1.4318
20268SOL    HW267666   8.873   5.155   1.554 -0.2664  1.2033 -1.0415
20269SOL     OW67667  11.643  12.335   6.537 -0.0728  0.3138 -0.1039
20269SOL    HW167668  11.613  12.395   6.468  1.6357  0.8419 -0.4410
20269SOL    HW267669  11.715  12.287   6.496  0.0560 -0.3508  0.8968
20270SOL     OW67670   8.954   2.763   9.043 -0.4120 -0.3105 -0.3441
20270SOL    HW167671   8.983   2.853   9.030 -0.0669 -0.3390  0.2239
20270SOL    HW267672   8.913   2.763   9.130  1.7307 -1.2260  0.7411
20271SOL     OW67673   0.190   6.700   0.518 -0.3992  0.5639  0.3137
20271SOL    HW167674   0.268   6.680   0.466 -0.4901  0.3469  0.2612
20271SOL    HW267675   0.210   6.785   0.559 -0.3071  0.7106 -0.0309
20272SOL     OW67676   3.515  11.088   8.222 -0.1229 -0.0447 -0.3781
20272SOL    HW167677   3.535  11.008   8.271  0.6622 -0.3869 -1.2055
20272SOL    HW267678   3.422  11.082   8.203 -0.6892  0.6301  1.9632
20273SOL     OW67679   0.858  11.358  10.356  0.3049 -0.4144  0.3743
20273SOL    HW167680   0.900  11.420  10.296 -0.2647 -1.0959 -0.7503
20273SOL    HW267681   0.769  11.391  10.367  0.3993 -0.3054  0.8382
20274SOL     OW67682   3.328  11.977   9.207  0.5465  0.7275  0.1986
20274SOL    HW167683   3.342  11.940   9.120 -0.4686  0.0508  0.3033
20274SOL    HW267684   3.255  11.927   9.243 -0.1323  2.0850  0.7951
20275SOL     OW67685  12.474   1.043  12.346  0.3661 -0.0934 -0.6090
20275SOL    HW167686  12.457   0.975  12.411  0.8494 -0.2530 -0.6429
20275SOL    HW267687  12.388   1.063  12.309  0.0443  0.2166  0.2840
20276SOL     OW67688   4.049   3.027  10.144  0.2326 -0.0076  0.0660
20276SOL    HW167689   4.100   3.105  10.122 -1.1582  0.1071 -3.5659
20276SOL    HW267690   4.110   2.955  10.132  0.4783  0.3224 -0.7958
20277SOL     OW67691  12.050   6.912  10.298 -0.3719  0.5557  0.5036
20277SOL    HW167692  11.998   6.833  10.282 -1.1033  0.7847  1.6581
20277SOL    HW267693  12.081   6.902  10.388  1.0825  0.7261  0.0446
20278SOL     OW67694   9.183   6.701  11.403 -0.2081  0.1575  0.4258
20278SOL    HW167695   9.259   6.701  11.461 -0.3218 -1.1357  0.6179
20278SOL    HW267696   9.199   6.628  11.343 -0.6981  0.6777 -0.3596
20279SOL     OW67697   5.518   7.376   3.524  0.2159 -0.5754  0.1439
20279SOL    HW167698   5.495   7.422   3.443  1.9831  0.6239  0.2596
20279SOL    HW267699   5.607   7.344   3.509 -0.1981 -2.2018  0.8620
20280SOL     OW67700   7.686  11.626   0.116  0.1002 -1.1050  0.2387
20280SOL    HW167701   7.702  11.669   0.032  2.1867 -1.9923  0.1157
20280SOL    HW267702   7.756  11.561   0.124  0.3195 -0.6730  2.9147
20281SOL     OW67703  12.087   1.023   4.751  0.1106  0.0533 -0.0376
20281SOL    HW167704  12.037   1.054   4.827  1.4597  0.8549  0.5737
20281SOL    HW267705  12.152   0.963   4.789  0.0934 -0.3997 -0.7111
20282SOL     OW67706  10.202   6.693  12.316 -0.0398 -0.2533 -0.3413
20282SOL    HW167707  10.295   6.673  12.323  0.3346  1.4684  0.0613
20282SOL    HW267708  10.158   6.619  12.359  1.1548 -0.7659  0.0394
20283SOL     OW67709   4.958   6.419  12.072 -0.5464  0.0015 -0.5507
20283SOL    HW167710   4.987   6.358  12.005 -0.5930 -0.1877 -0.4004
20283SOL    HW267711   5.022   6.491  12.068  0.0291 -0.4765 -0.1311
20284SOL     OW67712   5.513   4.395  10.362 -0.2724  0.0758  0.3247
20284SOL    HW167713   5.536   4.456  10.291  0.2114 -3.0719 -2.4798
20284SOL    HW267714   5.460   4.447  10.422 -1.3194  2.8353 -2.6951
20285SOL     OW67715   5.755   7.959   7.430  0.2100  0.0870  0.2778
20285SOL    HW167716   5.844   7.939   7.460 -0.0142 -0.6085  0.5196
20285SOL    HW267717   5.766   8.024   7.362  1.0521 -1.2357 -0.9036
20286SOL     OW67718   6.294   5.981   2.498  0.0249 -0.1610 -0.8146
20286SOL    HW167719   6.344   5.912   2.542  0.0219 -0.0112 -0.5750
20286SOL    HW267720   6.266   6.038   2.569 -0.0108  0.0623 -1.0099
20287SOL     OW67721   4.502  12.316   4.611  0.5983  0.0978  0.4170
20287SOL    HW167722   4.467  12.283   4.693  0.7091 -0.7590  0.1321
20287SOL    HW267723   4.478  12.409   4.610  0.6241  0.1241  1.4219
20288SOL     OW67724   3.619   9.097  12.183  0.1555 -0.0093  0.0935
20288SOL    HW167725   3.697   9.045  12.205 -0.5223 -2.3520 -2.4157
20288SOL    HW267726   3.654   9.184  12.162  1.4312  0.5394  3.6911
20289SOL     OW67727   9.070  11.287   1.943  0.5163 -0.1436 -0.2883
20289SOL    HW167728   8.980  11.319   1.944  0.9806  1.2146 -0.1299
20289SOL    HW267729   9.063  11.197   1.912 -1.2202 -1.1219  2.5465
20290SOL     OW67730   6.647  11.270   9.185 -0.8966 -0.4962  0.7435
20290SOL    HW167731   6.668  11.310   9.269  0.7430  0.6489 -0.1373
20290SOL    HW267732   6.576  11.323   9.150  1.1098  1.6614 -0.3115
20291SOL     OW67733   4.345   1.099   2.881  0.2316 -0.2133  0.8558
20291SOL    HW167734   4.428   1.052   2.871  0.4773 -0.0572  2.0316
20291SOL    HW267735   4.283   1.047   2.830  0.7513 -1.1667  1.1484
20292SOL     OW67736   9.136  12.267   6.353  0.3417 -0.1385  0.1791
20292SOL    HW167737   9.194  12.191   6.344 -0.0892 -0.6963  1.7467
20292SOL    HW267738   9.054  12.240   6.311 -1.4687 -2.4929  4.5124
20293SOL     OW67739   5.456   5.707   5.181 -0.0781  0.5528  0.0349
20293SOL    HW167740   5.491   5.630   5.226 -0.4342  0.0583 -0.5205
20293SOL    HW267741   5.365   5.713   5.211 -0.1361  0.5849 -0.1449
20294SOL     OW67742   5.372   1.000   4.020  0.7397 -0.3350 -0.3562
20294SOL    HW167743   5.304   0.955   3.969 -2.8438  2.1361  1.7616
20294SOL    HW267744   5.385   1.083   3.974  0.6812  0.1053  0.4109
20295SOL     OW67745   7.756  12.292  12.170  0.3214  0.1189 -0.0504
20295SOL    HW167746   7.807  12.236  12.228 -0.6496 -2.2554 -1.3555
20295SOL    HW267747   7.665  12.273  12.192 -0.0803  1.8985  0.0521
20296SOL     OW67748  10.876   4.861  11.502 -0.8728 -0.2251 -0.2152
20296SOL    HW167749  10.931   4.931  11.536 -0.2041 -1.0427  0.4452
20296SOL    HW267750  10.806   4.905  11.455 -0.8007  0.8882  0.7002
20297SOL     OW67751  10.077  11.884  11.991  0.1510 -0.0352 -0.0347
20297SOL    HW167752   9.984  11.875  11.973  0.2253 -0.1172 -0.3739
20297SOL    HW267753  10.091  11.978  11.998  0.0063 -0.0302  0.2254
20298SOL     OW67754   3.920   8.696   5.098 -0.4414  0.9884  0.3639
20298SOL    HW167755   3.896   8.670   5.010 -0.4315  0.3142  0.5556
20298SOL    HW267756   4.005   8.655   5.113 -1.4349 -0.7692  1.4881
20299SOL     OW67757   2.461  10.605   5.223 -0.4432 -0.5782 -0.8226
20299SOL    HW167758   2.465  10.688   5.176  0.1178 -0.2597 -0.2294
20299SOL    HW267759   2.532  10.610   5.287 -0.7277 -1.3035 -0.4344
20300SOL     OW67760  10.451   4.403  12.299  0.2699 -0.0969  0.0600
20300SOL    HW167761  10.480   4.338  12.235  0.8681  0.4684 -0.2718
20300SOL    HW267762  10.369   4.437  12.263  0.2546 -0.2671 -0.0667
20301SOL     OW67763   9.921   0.605   2.261  0.0885  0.4297 -0.3988
20301SOL    HW167764   9.843   0.627   2.210  0.8823  1.0612 -1.3512
20301SOL    HW267765   9.946   0.518   2.230  0.6563  0.8753 -1.1959
20302SOL     OW67766   5.341  11.278   6.781 -0.3441 -0.1438  0.2596
20302SOL    HW167767   5.259  11.231   6.769 -1.5286  1.4425  1.6000
20302SOL    HW267768   5.401  11.213   6.817 -1.1461 -1.2127 -0.2821
20303SOL     OW67769   5.485  10.469  10.452 -0.2576  0.2334 -0.5166
20303SOL    HW167770   5.470  10.554  10.492 -1.0318 -0.6395  1.1192
20303SOL    HW267771   5.579  10.453  10.464 -0.6971 -0.6244  2.3270
20304SOL     OW67772   0.016   2.278  10.910 -0.1245 -0.1497  0.6662
20304SOL    HW167773   0.031   2.344  10.977  0.3664 -2.8565  3.4328
20304SOL    HW267774   0.090   2.218  10.918 -1.4911 -2.0993 -0.3944
20305SOL     OW67775   0.611   7.858   9.766  0.7504  0.2592  0.2023
20305SOL    HW167776   0.596   7.775   9.811  2.4985 -1.4431 -2.1030
20305SOL    HW267777   0.686   7.897   9.811  1.2284 -0.4372  0.0200
20306SOL     OW67778   1.509   2.145   6.874  0.4968  0.7436  0.5715
20306SOL    HW167779   1.460   2.078   6.922  0.5384  0.2228 -0.1018
20306SOL    HW267780   1.599   2.112   6.872  0.2077 -0.0872 -1.2810
20307SOL     OW67781   8.822   6.018   5.331  0.3448  0.0048 -0.4609
20307SOL    HW167782   8.908   5.999   5.370 -0.4445 -0.0192  1.3959
20307SOL    HW267783   8.795   5.934   5.293  0.7541 -0.2307 -0.2509
20308SOL     OW67784   9.096   3.601   2.648  0.6017  0.2791  0.4565
20308SOL    HW167785   9.056   3.669   2.702  0.5391  1.0770 -0.5797
20308SOL    HW267786   9.048   3.603   2.566  2.4877  1.0208 -0.6894
20309SOL     OW67787   5.828   3.695   4.149 -0.3334  0.9235 -0.0034
20309SOL    HW167788   5.874   3.761   4.201  0.0529 -0.0965  0.9724
20309SOL    HW267789   5.893   3.668   4.083 -0.2927  1.0744 -0.0268
20310SOL     OW67790   3.927   8.051   9.274  0.2434 -0.4363 -0.0202
20310SOL    HW167791   3.875   8.129   9.295  0.8272  0.2445 -0.9970
20310SOL    HW267792   3.893   8.022   9.190  0.4853 -0.8358  0.0179
20311SOL     OW67793  11.477   7.834   4.214  0.9292  0.1640  0.1095
20311SOL    HW167794  11.494   7.803   4.125 -0.9550 -2.6421  0.5657
20311SOL    HW267795  11.384   7.854   4.216  0.6301 -1.0967  1.7138
20312SOL     OW67796  11.107   5.921   8.731  0.3843  0.9836  0.7618
20312SOL    HW167797  11.150   5.999   8.694  1.2484  0.5289  0.7831
20312SOL    HW267798  11.091   5.865   8.656  1.1602  0.5244  0.9314
20313SOL     OW67799   6.980   6.918   2.425 -0.2706  0.2691  0.3067
20313SOL    HW167800   7.065   6.896   2.388 -0.1329  1.1084  0.1095
20313SOL    HW267801   6.941   6.833   2.447  0.3153 -0.1561 -0.2558
20314SOL     OW67802   8.844   8.787   3.229 -0.7581 -0.0566 -0.3937
20314SOL    HW167803   8.840   8.692   3.220  0.4399 -0.3439  1.5614
20314SOL    HW267804   8.910   8.814   3.165 -1.0757 -0.5285 -0.9360
20315SOL     OW67805   7.615   3.392   2.324 -0.5841 -0.2765 -0.2854
20315SOL    HW167806   7.673   3.465   2.305  0.1262 -0.8543 -0.3607
20315SOL    HW267807   7.545   3.400   2.258  0.8211 -1.1154 -1.9593
20316SOL     OW67808   5.497   6.961   3.350  0.2532 -0.0799  0.5230
20316SOL    HW167809   5.451   6.938   3.431 -0.9494  0.5100  0.0265
20316SOL    HW267810   5.437   7.019   3.304  1.6569  1.0470  0.0304
20317SOL     OW67811   0.524   9.358  11.803  0.1659  0.0142 -0.1157
20317SOL    HW167812   0.450   9.337  11.747 -1.2115 -1.6549  2.1293
20317SOL    HW267813   0.503   9.317  11.887  2.8435  0.9746  1.1578
20318SOL     OW67814   0.360   5.654   9.670  0.0290 -0.1869 -0.0768
20318SOL    HW167815   0.331   5.587   9.608  1.7774 -1.6429  0.5970
20318SOL    HW267816   0.318   5.630   9.752 -0.8815  0.7164 -0.2571
20319SOL     OW67817   9.409  11.156   5.573 -0.0977 -0.3152 -0.2816
20319SOL    HW167818   9.336  11.096   5.588 -0.4244  0.5090  1.8547
20319SOL    HW267819   9.474  11.132   5.639  0.1035  1.1130  0.0832
20320SOL     OW67820  11.566   3.374   9.527 -0.0663  0.0459 -0.2678
20320SOL    HW167821  11.516   3.405   9.602  0.0143 -0.6483  0.0819
20320SOL    HW267822  11.649   3.421   9.531 -1.0836  2.0581 -1.4874
20321SOL     OW67823   5.163  11.995   6.703  0.1748 -0.3751 -0.5312
20321SOL    HW167824   5.154  11.989   6.798  0.6531 -1.3936 -0.5366
20321SOL    HW267825   5.257  11.981   6.688  0.6684  2.5935 -0.9732
20322SOL     OW67826   2.775   5.305   3.962  0.1833  0.8326 -0.3190
20322SOL    HW167827   2.829   5.365   3.910  0.4593  0.8612 -0.0044
20322SOL    HW267828   2.839   5.254   4.012 -0.1162  1.5553  0.8216
20323SOL     OW67829  10.393   8.413   4.620 -0.1245 -0.3212 -0.3872
20323SOL    HW167830  10.408   8.370   4.536 -1.8142  2.8618 -2.5232
20323SOL    HW267831  10.470   8.468   4.633 -0.7870  0.7973 -1.0219
20324SOL     OW67832   5.637   1.296   5.825 -0.3678  0.2431  0.0978
20324SOL    HW167833   5.546   1.274   5.847 -0.2639 -0.0893  0.1988
20324SOL    HW267834   5.688   1.223   5.860 -0.0881  0.2916 -0.2065
20325SOL     OW67835  10.626   5.135  10.058 -0.3031  0.0747 -0.2397
20325SOL    HW167836  10.590   5.221  10.079 -1.1674 -0.1223 -0.8760
20325SOL    HW267837  10.607   5.122   9.965  2.4235  0.4411 -0.9412
20326SOL     OW67838  11.864   3.528   6.243 -0.0233  0.3663  0.2023
20326SOL    HW167839  11.773   3.547   6.224  0.0249  0.1683 -0.2217
20326SOL    HW267840  11.873   3.434   6.229  0.8116  0.7286 -2.1766
20327SOL     OW67841  12.197   6.235   9.114  0.7469 -0.0536 -0.3352
20327SOL    HW167842  12.210   6.140   9.119 -1.8464 -0.4311  2.8169
20327SOL    HW267843  12.135   6.247   9.042  1.0007 -0.7609 -0.6858
20328SOL     OW67844   9.199   3.538   8.575  0.0707  0.5994 -0.5477
20328SOL    HW167845   9.189   3.631   8.555 -1.6454  0.4579 -0.5360
20328SOL    HW267846   9.115   3.513   8.614  0.2443 -1.1081 -1.1798
20329SOL     OW67847   7.476  10.219   8.970  0.2720  0.3051  0.1355
20329SOL    HW167848   7.453  10.177   8.888 -1.8598  1.7721 -0.1091
20329SOL    HW267849   7.393  10.228   9.017  1.5675 -1.8419  3.2165
20330SOL     OW67850   6.520   6.579   0.580 -0.1966 -0.2803  0.2083
20330SOL    HW167851   6.506   6.543   0.493  0.2957 -1.3541  0.5510
20330SOL    HW267852   6.550   6.669   0.565  1.3707 -0.9197 -0.7944
20331SOL     OW67853   9.954  10.719   3.153 -0.9831 -0.0402 -0.2129
20331SOL    HW167854   9.992  10.805   3.175 -1.3962 -0.2076  1.2297
20331SOL    HW267855   9.921  10.685   3.236 -1.9974 -1.0376 -0.9967
20332SOL     OW67856   3.822   2.312   0.856 -0.2650  0.2448 -0.2976
20332SOL    HW167857   3.759   2.332   0.925 -3.0911 -0.5043 -2.4755
20332SOL    HW267858   3.840   2.396   0.814 -0.1610  0.3995  0.0590
20333SOL     OW67859  11.501   0.095   8.597  0.6150 -0.7738 -0.0655
20333SOL    HW167860  11.578   0.059   8.642 -0.5474 -1.7406  1.2355
20333SOL    HW267861  11.515   0.073   8.505  3.2385  1.5718 -0.3661
20334SOL     OW67862   7.106   6.503   4.337 -0.2412 -0.5313  0.1481
20334SOL    HW167863   7.017   6.534   4.319  0.0580  0.2382 -0.0503
20334SOL    HW267864   7.124   6.535   4.426  0.0061 -0.2790  0.0086
20335SOL     OW67865  10.798  11.031   3.196  0.1567 -0.0490  0.0806
20335SOL    HW167866  10.883  11.073   3.207  0.0901 -0.1387  0.9900
20335SOL    HW267867  10.745  11.063   3.269 -1.5333  2.2217 -1.9811
20336SOL     OW67868   8.167   8.332   0.414 -0.8510  0.0220 -0.0420
20336SOL    HW167869   8.089   8.327   0.360 -2.2512  0.1249  1.8694
20336SOL    HW267870   8.134   8.349   0.503  1.4019  1.6714  0.5768
20337SOL     OW67871  12.212   6.912   3.275 -0.3205 -0.6320 -0.5245
20337SOL    HW167872  12.226   6.924   3.181  0.6270 -1.9568 -0.5863
20337SOL    HW267873  12.121   6.885   3.283 -0.5318 -0.0715 -1.0194
20338SOL     OW67874   6.953   6.818  11.805  0.0852 -0.1507  0.6385
20338SOL    HW167875   6.916   6.902  11.778  2.3024  0.8593  0.5558
20338SOL    HW267876   6.962   6.825  11.900  1.6120  0.3240  0.4826
20339SOL     OW67877   0.248   2.334  10.715 -0.1546  0.2817 -0.2558
20339SOL    HW167878   0.215   2.269  10.778 -0.9976 -0.7376 -1.6961
20339SOL    HW267879   0.338   2.307  10.698 -0.1259  0.1939  0.0199
20340SOL     OW67880   2.977   7.880   9.687  0.0274  0.1849  0.5889
20340SOL    HW167881   3.032   7.839   9.753  0.8972 -0.0242 -0.2361
20340SOL    HW267882   2.928   7.947   9.734 -1.1172 -1.4813  1.9069
20341SOL     OW67883   7.649   9.419   4.406  0.0116  0.2616  0.1543
20341SOL    HW167884   7.577   9.386   4.460 -0.9305 -0.0604 -1.2683
20341SOL    HW267885   7.622   9.507   4.381 -0.1771 -0.0825 -0.8817
20342SOL     OW67886   4.415  11.220  11.186 -0.3414  0.5266 -0.5473
20342SOL    HW167887   4.437  11.313  11.192 -2.0715  0.9459 -0.1791
20342SOL    HW267888   4.348  11.216  11.117 -1.4034 -0.2110  0.4933
20343SOL     OW67889   3.342   4.355   7.230  0.0236  0.3643 -0.0122
20343SOL    HW167890   3.313   4.397   7.312  0.4125  0.7158 -0.0520
20343SOL    HW267891   3.432   4.384   7.219 -0.6274  2.0036 -1.6310
20344SOL     OW67892   5.798  11.872   5.738 -0.1604  0.0064  0.2355
20344SOL    HW167893   5.847  11.893   5.818 -2.0166  1.0808  1.1647
20344SOL    HW267894   5.846  11.800   5.699  0.4503 -1.0382  2.7035
20345SOL     OW67895   9.787   0.882  11.508 -0.1724  0.0550  0.3901
20345SOL    HW167896   9.761   0.902  11.418  0.2084 -0.9486  0.0450
20345SOL    HW267897   9.715   0.829  11.543  0.8972 -1.9619 -0.2759
20346SOL     OW67898   7.113  11.664   5.141 -0.1444 -0.0439  0.1151
20346SOL    HW167899   7.075  11.577   5.128 -0.4586  0.2167 -0.8017
20346SOL    HW267900   7.042  11.725   5.122  0.3797  0.4260 -0.4208
20347SOL     OW67901  12.163   9.593   8.777 -0.0873  0.5254  0.1510
20347SOL    HW167902  12.135   9.530   8.844 -0.7592  0.9999  0.3266
20347SOL    HW267903  12.114   9.566   8.699 -0.6218  1.0145  0.3109
20348SOL     OW67904   7.833   1.845   5.358 -0.2834  0.2222 -0.4345
20348SOL    HW167905   7.808   1.786   5.429  1.2810 -0.3874 -0.3375
20348SOL    HW267906   7.767   1.831   5.290 -0.5115 -0.9122  0.0061
20349SOL     OW67907  10.276   6.201   2.424 -0.4722  0.3216 -0.2441
20349SOL    HW167908  10.328   6.199   2.344 -0.0652 -0.4317  0.0351
20349SOL    HW267909  10.332   6.162   2.491 -0.4343  1.8397  0.6517
20350SOL     OW67910   9.920   7.401   0.862  0.1616  0.8823  0.5654
20350SOL    HW167911   9.926   7.491   0.830 -0.8258  0.5810 -0.5372
20350SOL    HW267912   9.972   7.350   0.799  0.0011  0.5590  0.6911
20351SOL     OW67913   5.974   6.057   3.789 -0.3498  0.4895  0.1913
20351SOL    HW167914   5.905   6.080   3.851  1.2616  0.5273  2.0935
20351SOL    HW267915   6.045   6.119   3.809 -0.0061  0.9725 -2.2289
20352SOL     OW67916   9.844   1.504   0.274  0.3037 -0.4682 -0.4006
20352SOL    HW167917   9.766   1.448   0.279  1.2621 -1.7361  1.2844
20352SOL    HW267918   9.812   1.587   0.237 -1.9036 -0.8366  0.5499
20353SOL     OW67919   7.288  10.114   2.605  0.2773 -0.5780  0.4872
20353SOL    HW167920   7.334  10.043   2.559  1.5558  0.4004  0.2071
20353SOL    HW267921   7.239  10.160   2.537 -1.7088 -1.9804  0.8694
20354SOL     OW67922   0.801   3.696   6.087 -0.1885 -0.1345 -0.0750
20354SOL    HW167923   0.778   3.648   6.008 -1.1292 -0.4712  0.3922
20354SOL    HW267924   0.873   3.754   6.060  0.1514 -0.9291 -0.9337
20355SOL     OW67925   6.967   5.228   3.974 -0.1411 -0.2877 -0.7220
20355SOL    HW167926   6.887   5.177   3.958 -0.6890  0.6263 -1.0092
20355SOL    HW267927   6.949   5.313   3.933 -0.7356  1.4692  2.8395
20356SOL     OW67928  10.626   6.913   9.640 -0.2269  0.2839 -0.2605
20356SOL    HW167929  10.645   7.002   9.612  1.9803  0.2991  1.0879
20356SOL    HW267930  10.711   6.875   9.661 -1.3287 -1.0732  2.2688
20357SOL     OW67931   2.563   6.335   9.747  0.4693  0.1552  0.1213
20357SOL    HW167932   2.581   6.343   9.841 -1.2331  2.5100  0.3356
20357SOL    HW267933   2.475   6.298   9.742 -0.1292  1.5619 -0.4412
20358SOL     OW67934   1.350   8.655  11.446 -0.1636 -0.2734  0.2658
20358SOL    HW167935   1.408   8.607  11.388 -2.4139 -1.2419 -1.3311
20358SOL    HW267936   1.408   8.711  11.497  2.1628 -1.4638 -0.9238
20359SOL     OW67937   8.147  11.180   7.103 -0.4683  0.6197  0.2419
20359SOL    HW167938   8.131  11.085   7.104  1.7774  0.1866  0.5863
20359SOL    HW267939   8.180  11.197   7.015  2.1799  0.4112  1.0770
20360SOL     OW67940   2.274  10.008   9.047 -0.2453 -0.0356  0.0728
20360SOL    HW167941   2.276   9.999   9.142 -2.0862 -0.0878  0.1578
20360SOL    HW267942   2.362  10.036   9.023 -0.3083  2.1670  2.0229
20361SOL     OW67943   5.182   3.783  11.299 -0.5832 -0.3281 -0.6163
20361SOL    HW167944   5.184   3.875  11.324  0.1586 -0.3843 -0.4412
20361SOL    HW267945   5.271   3.765  11.268 -0.2569 -1.3904  0.8444
20362SOL     OW67946   2.069   5.414   9.099  0.3623 -0.3031 -0.3774
20362SOL    HW167947   2.152   5.453   9.126  0.7956 -1.4099 -0.0292
20362SOL    HW267948   2.005   5.444   9.163  0.3373  1.0898 -1.0206
20363SOL     OW67949   8.070   1.773   5.206 -0.7854  0.2262  0.3544
20363SOL    HW167950   8.004   1.727   5.259 -0.5279 -1.0800 -0.4149
20363SOL    HW267951   8.019   1.823   5.143 -1.0575 -0.4987 -0.0113
20364SOL     OW67952   3.942   7.587   9.932  0.3470 -0.4975  0.0009
20364SOL    HW167953   3.902   7.529   9.868  0.5132 -1.6247  0.8999
20364SOL    HW267954   4.013   7.630   9.885  0.4859 -1.3374 -0.5625
20365SOL     OW67955   5.908   6.217   0.677 -0.0309  0.3602 -0.4592
20365SOL    HW167956   5.871   6.254   0.757  2.4733  3.1455 -0.4294
20365SOL    HW267957   5.949   6.135   0.705  0.0064  0.8354  0.9407
20366SOL     OW67958   0.355   6.824   6.357  0.3026  0.3545  0.4538
20366SOL    HW167959   0.273   6.779   6.339  0.9184  0.1815 -2.5973
20366SOL    HW267960   0.340   6.913   6.325  1.0634  0.5311  0.5779
20367SOL     OW67961   0.895  12.322   1.634 -0.4435  0.8086  0.2690
20367SOL    HW167962   0.936  12.281   1.558 -0.2286 -0.5491  1.0712
20367SOL    HW267963   0.951  12.397   1.654 -0.3136  0.9805 -0.6895
20368SOL     OW67964   6.916  10.560  12.357 -0.2708  0.7220  0.1459
20368SOL    HW167965   6.914  10.608  12.275  1.7462  0.4960 -0.0819
20368SOL    HW267966   6.907  10.627  12.425  0.2809  1.1513 -0.2090
20369SOL     OW67967  11.266   8.389   1.758 -0.3210  0.1320 -0.5866
20369SOL    HW167968  11.323   8.356   1.827  0.2940  2.0451 -0.1282
20369SOL    HW267969  11.210   8.315   1.736  2.6453 -2.0521 -1.4431
20370SOL     OW67970   5.932   1.444   2.740  0.8374 -0.3812  0.0560
20370SOL    HW167971   6.004   1.411   2.685  0.2927 -1.1176 -0.2389
20370SOL    HW267972   5.897   1.518   2.691 -0.5499 -1.8833 -1.3455
20371SOL     OW67973   6.000   5.340  10.898  0.4258 -0.3171 -0.6117
20371SOL    HW167974   6.016   5.345  10.803 -1.2625  0.0715 -0.9125
20371SOL    HW267975   5.938   5.268  10.908 -0.5462  0.5787  0.0095
20372SOL     OW67976  11.403  11.639   5.997  0.1277  0.1393 -0.3387
20372SOL    HW167977  11.327  11.696   5.982  0.0518  0.2708  0.4921
20372SOL    HW267978  11.430  11.659   6.087 -1.1649 -2.5962  0.7784
20373SOL     OW67979  12.013   5.234  11.974 -0.5434 -0.7866  0.0546
20373SOL    HW167980  11.943   5.214  12.036 -1.1238 -0.2097 -0.4005
20373SOL    HW267981  11.985   5.315  11.932  0.7820 -0.1053  0.4324
20374SOL     OW67982   3.726   6.181   5.075 -0.5945 -0.4383  0.3367
20374SOL    HW167983   3.770   6.217   5.151 -0.1014 -0.6539  0.1569
20374SOL    HW267984   3.634   6.206   5.086 -0.3921  0.2108  0.5975
20375SOL     OW67985  10.066   3.394   0.277  0.0748  0.4720  0.1164
20375SOL    HW167986  10.070   3.483   0.241 -1.5441 -0.0927 -1.6560
20375SOL    HW267987  10.131   3.345   0.227 -0.7105  0.1584 -0.6329
20376SOL     OW67988   4.329   9.269  11.200  0.3987  0.5755 -0.0013
20376SOL    HW167989   4.353   9.271  11.293  1.6286 -0.1086 -0.2777
20376SOL    HW267990   4.410   9.244  11.156  0.0737  1.7875 -1.3484
20377SOL     OW67991   6.374   4.868   9.803 -0.0659  0.1986 -0.1977
20377SOL    HW167992   6.347   4.777   9.817  0.1089  0.3557  1.3237
20377SOL    HW267993   6.468   4.862   9.787 -0.2155  0.0427 -1.0852
20378SOL     OW67994   6.027   3.318   9.272 -0.4627 -0.1521 -0.3056
20378SOL    HW167995   6.062   3.241   9.228 -0.3346 -0.2202 -0.0845
20378SOL    HW267996   6.037   3.389   9.208 -1.2108 -0.4544 -0.7692
20379SOL     OW67997   5.966   9.684   4.718  0.2386  0.1245 -0.5962
20379SOL    HW167998   5.974   9.679   4.623  2.0192  1.7744 -0.6021
20379SOL    HW267999   6.056   9.684   4.750 -0.2137  1.8760  0.9006
20380SOL     OW68000   0.005   8.783  12.457  0.2271  0.0420 -0.0085
20380SOL    HW168001   0.066   8.752  12.390 -0.2738 -0.7300 -0.1217
20380SOL    HW268002   0.053   8.774  12.540 -0.5168 -2.9913  0.2318
20381SOL     OW68003   1.912  11.260   0.527 -0.3670  0.0879  0.0447
20381SOL    HW168004   1.995  11.278   0.571  1.4749 -3.1111 -1.6663
20381SOL    HW268005   1.904  11.330   0.462  0.9445  0.5708  0.3647
20382SOL     OW68006   1.031   2.213   7.236  0.2711  0.3817  0.3051
20382SOL    HW168007   1.030   2.193   7.142  1.9659 -1.5736  0.6196
20382SOL    HW268008   1.066   2.302   7.241 -1.4952  1.2158 -0.9421
20383SOL     OW68009   8.780   2.019   4.734  0.0849  0.1843 -0.1485
20383SOL    HW168010   8.831   2.083   4.784 -0.4339  0.1823  0.3938
20383SOL    HW268011   8.705   2.069   4.702 -0.4246 -0.1848  0.4401
20384SOL     OW68012   6.953  10.711  11.248 -0.5812 -0.6722  0.5804
20384SOL    HW168013   6.941  10.720  11.153 -0.2643 -0.0977  0.5926
20384SOL    HW268014   7.047  10.696  11.259 -0.8975 -2.8133  0.6590
20385SOL     OW68015   3.044   8.555   2.191  0.0380 -0.2151 -0.1212
20385SOL    HW168016   2.959   8.559   2.148 -0.4933  2.5903  0.9383
20385SOL    HW268017   3.039   8.479   2.249 -2.7092  1.1513  1.6307
20386SOL     OW68018  12.132   8.439   3.324 -0.3861 -0.0530  0.3858
20386SOL    HW168019  12.186   8.395   3.258 -0.6888  1.4601 -0.9368
20386SOL    HW268020  12.185   8.515   3.351 -1.6442  1.2760 -0.7066
20387SOL     OW68021   8.655  10.368   9.685 -0.1705  0.3769  0.2888
20387SOL    HW168022   8.648  10.380   9.591 -1.2975 -0.8147  0.1876
20387SOL    HW268023   8.663  10.273   9.697 -1.1753  0.3970  1.4204
20388SOL     OW68024   3.713   3.718   9.964  0.3924  0.3153 -0.1497
20388SOL    HW168025   3.638   3.660   9.973  2.0258 -2.1436 -1.1730
20388SOL    HW268026   3.735   3.743  10.054 -1.4311  0.8487  0.1727
20389SOL     OW68027   5.560  11.247  10.351 -0.0079  0.1087  0.2295
20389SOL    HW168028   5.596  11.299  10.423 -0.9737 -0.3771  1.0811
20389SOL    HW268029   5.480  11.292  10.326  0.9632  1.0166 -1.4686
20390SOL     OW68030   6.863   6.873   1.446 -0.0427  0.1768  0.1358
20390SOL    HW168031   6.876   6.958   1.489 -3.2767 -0.2272  2.3019
20390SOL    HW268032   6.862   6.810   1.518  0.7447 -1.5118 -1.2677
20391SOL     OW68033   0.869  10.747   9.621 -0.2294  0.0936 -0.5030
20391SOL    HW168034   0.920  10.674   9.585 -0.2260  0.2150 -0.7435
20391SOL    HW268035   0.813  10.706   9.688 -0.2376 -0.1330 -0.6464
20392SOL     OW68036   3.840   5.715  12.334  1.0581 -0.1868  0.5690
20392SOL    HW168037   3.892   5.649  12.288 -2.4922 -1.2429 -2.4380
20392SOL    HW268038   3.759   5.721  12.283 -0.8485  2.9698  3.5587
20393SOL     OW68039   4.672  10.854   4.971 -0.5417  0.4362 -0.2437
20393SOL    HW168040   4.658  10.801   5.050 -1.8083 -0.3989 -0.9853
20393SOL    HW268041   4.625  10.935   4.988 -0.3318  0.4928  0.0838
20394SOL     OW68042  11.227   1.048   0.130 -0.3316  0.2449 -0.1496
20394SOL    HW168043  11.221   1.062   0.225 -1.1959  2.3051 -0.4537
20394SOL    HW268044  11.157   0.987   0.110 -0.3156  0.0066  0.5063
20395SOL     OW68045   7.851   0.478   4.000 -0.0238  0.1761 -0.1120
20395SOL    HW168046   7.925   0.538   4.007  0.5383 -0.4976 -0.2237
20395SOL    HW268047   7.813   0.477   4.088 -0.7385  1.5653 -0.3793
20396SOL     OW68048   3.575   8.998  11.860 -0.4140 -0.1559  0.0542
20396SOL    HW168049   3.527   8.993  11.942  1.2353  0.9666  1.1371
20396SOL    HW268050   3.568   8.910  11.822 -1.2627 -0.6610  1.3480
20397SOL     OW68051   5.863   7.581   9.080 -0.0654  0.0078  0.0142
20397SOL    HW168052   5.944   7.530   9.083 -0.6939 -1.0370 -0.4635
20397SOL    HW268053   5.793   7.516   9.079 -1.0912  0.8666  3.1901
20398SOL     OW68054  12.298   4.322   8.745 -0.3054 -0.1645 -0.6757
20398SOL    HW168055  12.316   4.411   8.774 -0.0458  0.3046 -2.1725
20398SOL    HW268056  12.333   4.318   8.655 -3.3764 -0.6771 -1.9858
20399SOL     OW68057   9.005   2.104   2.874  0.2631 -0.1747 -0.4319
20399SOL    HW168058   8.956   2.137   2.799 -0.3724 -0.7872 -0.2956
20399SOL    HW268059   9.085   2.156   2.875  0.7943 -0.8951 -2.2014
20400SOL     OW68060   5.263  11.746   0.796 -0.0431  0.2034  0.0868
20400SOL    HW168061   5.246  11.653   0.783 -0.9100  0.3654 -0.0252
20400SOL    HW268062   5.358  11.754   0.791  0.0485 -0.6900  0.2267
20401SOL     OW68063   8.163   9.496   0.643 -0.3467 -0.3050  0.3945
20401SOL    HW168064   8.084   9.533   0.683  0.0804  0.8689  0.1715
20401SOL    HW268065   8.163   9.528   0.553  0.0618 -0.8127  0.2050
20402SOL     OW68066   8.700   8.422   5.151 -0.5615 -0.5278  0.2748
20402SOL    HW168067   8.712   8.493   5.087 -1.5839  0.4548  1.1297
20402SOL    HW268068   8.746   8.453   5.229 -1.0617 -0.7635  0.6699
20403SOL     OW68069   9.423   1.041   2.101 -0.2498  0.3740  0.3066
20403SOL    HW168070   9.493   1.090   2.145 -0.4268  1.2468 -0.3614
20403SOL    HW268071   9.348   1.049   2.159 -0.1777  0.5866  0.3718
20404SOL     OW68072   4.245   5.838   1.897 -0.0731  0.0406  0.4767
20404SOL    HW168073   4.227   5.782   1.821 -0.7015  0.0427  0.6176
20404SOL    HW268074   4.309   5.788   1.948  0.6886  0.2335 -0.2640
20405SOL     OW68075   6.975   4.909   6.757  0.4759 -0.7103  0.2474
20405SOL    HW168076   6.913   4.839   6.736 -1.3085  0.6736  0.7064
20405SOL    HW268077   7.010   4.936   6.672  1.3221 -2.2375  0.0752
20406SOL     OW68078   2.874   2.316   2.614  0.0789  0.1273  0.3990
20406SOL    HW168079   2.823   2.326   2.533 -0.4778 -0.1203  0.7103
20406SOL    HW268080   2.965   2.312   2.585 -0.2348 -2.5100 -0.4635
20407SOL     OW68081  10.861  11.528   4.867  0.5017 -0.2601  0.2050
20407SOL    HW168082  10.808  11.568   4.936  1.9755  0.6663  0.8600
20407SOL    HW268083  10.809  11.453   4.837 -0.2612 -0.6063  2.2290
20408SOL     OW68084   8.029  10.142   8.759 -0.6076 -0.3139  0.4963
20408SOL    HW168085   7.943  10.142   8.717 -0.1430  1.3004 -0.5391
20408SOL    HW268086   8.010  10.148   8.852 -1.6370  1.2766  0.2197
20409SOL     OW68087   1.797   6.672  10.055  0.0830  0.3418  0.0963
20409SOL    HW168088   1.857   6.655   9.983 -0.1979 -0.3368  0.0118
20409SOL    HW268089   1.851   6.711  10.124 -0.2931  4.9370 -1.8495
20410SOL     OW68090   7.545   0.540   1.761 -0.0689 -0.0803  0.3819
20410SOL    HW168091   7.484   0.544   1.687  1.4088 -0.3833 -0.9175
20410SOL    HW268092   7.602   0.466   1.741  0.8622  0.3227  1.4330
20411SOL     OW68093   5.208   5.258   4.258  0.0108 -0.2917  0.9080
20411SOL    HW168094   5.201   5.181   4.203  0.3095  0.6382 -0.4851
20411SOL    HW268095   5.150   5.323   4.216  1.3996  0.9244  0.7805
20412SOL     OW68096   7.478   6.950  10.465 -0.4896  1.1070 -0.2194
20412SOL    HW168097   7.530   6.899  10.527  0.1358 -0.0992 -1.6823
20412SOL    HW268098   7.407   6.987  10.518  0.9288  1.4835  1.5105
20413SOL     OW68099   6.104   8.573   7.903 -0.5208  0.4799  0.1674
20413SOL    HW168100   6.122   8.483   7.932 -1.3202  0.3103  0.1636
20413SOL    HW268101   6.180   8.597   7.850  0.6371  0.5320  1.7850
20414SOL     OW68102   3.615   8.888   7.665  0.1615 -0.0772 -0.6333
20414SOL    HW168103   3.699   8.935   7.667  1.6743 -2.3033 -3.5901
20414SOL    HW268104   3.573   8.918   7.585 -0.3788 -1.2277 -0.8027
20415SOL     OW68105   9.204  11.110  11.248 -0.5335 -0.0645 -0.5402
20415SOL    HW168106   9.235  11.197  11.222 -1.5203  0.7228  0.7861
20415SOL    HW268107   9.121  11.127  11.293 -0.0007 -1.5486  1.0874
20416SOL     OW68108   7.913   0.343   7.038  0.3012  0.0896 -0.3298
20416SOL    HW168109   8.001   0.330   7.073 -0.6929  0.0055  2.4295
20416SOL    HW268110   7.910   0.435   7.014  1.1242  0.0992 -0.4205
20417SOL     OW68111   1.730   6.708   6.661  0.2763  0.3609 -0.6006
20417SOL    HW168112   1.706   6.800   6.676 -0.7624  0.0118 -0.0398
20417SOL    HW268113   1.798   6.712   6.594  2.2491  1.7297  1.3678
20418SOL     OW68114  11.945   2.661  10.305  0.5225 -0.2959 -0.3795
20418SOL    HW168115  11.850   2.659  10.317  0.6801 -0.2931  1.0664
20418SOL    HW268116  11.964   2.753  10.288  0.4484  0.1088  1.4381
20419SOL     OW68117   5.970   2.127   1.519  0.4915  0.0696 -0.1535
20419SOL    HW168118   6.008   2.086   1.442 -0.3403  0.3454 -0.7143
20419SOL    HW268119   5.897   2.179   1.486  0.5632  0.7650  0.7269
20420SOL     OW68120   9.650   2.180   3.357  0.0455 -0.3274  0.4333
20420SOL    HW168121   9.648   2.089   3.385 -1.9987  0.0074  1.6184
20420SOL    HW268122   9.579   2.188   3.293  1.5149  0.0320 -1.2380
20421SOL     OW68123   3.905   1.192   7.746 -0.1055  0.0807 -0.0937
20421SOL    HW168124   3.880   1.270   7.696  0.2978  1.4394  1.7032
20421SOL    HW268125   3.984   1.219   7.793 -2.2433  0.1768  3.8997
20422SOL     OW68126   1.818   9.568   5.619 -0.0418 -0.6545 -0.3773
20422SOL    HW168127   1.763   9.517   5.560 -1.6043 -1.5613  1.7365
20422SOL    HW268128   1.899   9.516   5.628  0.5289 -0.1420 -2.1997
20423SOL     OW68129   2.853  12.459  12.347 -0.5896 -0.1817 -0.6848
20423SOL    HW168130   2.839  12.410  12.266  0.6228  0.0499 -1.0544
20423SOL    HW268131   2.944  12.440  12.371 -0.6912  0.3922  0.1872
20424SOL     OW68132   6.935   2.039   4.734 -0.0807  0.2900 -0.3559
20424SOL    HW168133   6.881   1.960   4.746 -0.4607  0.2134 -2.2979
20424SOL    HW268134   6.963   2.062   4.823 -0.6580 -1.5362  0.3501
20425SOL     OW68135   4.784  10.487   4.735 -0.0907 -0.4421  0.8621
20425SOL    HW168136   4.852  10.469   4.669 -1.9892  0.3109 -1.4673
20425SOL    HW268137   4.815  10.566   4.780 -0.7200  1.8409 -2.3375
20426SOL     OW68138   7.258  12.209   5.010 -0.4832 -1.0672 -0.1731
20426SOL    HW168139   7.206  12.138   4.971 -0.8071 -1.1350  0.3663
20426SOL    HW268140   7.325  12.164   5.061  1.6408 -1.0263 -2.7197
20427SOL     OW68141  11.658   0.334   8.174 -0.4507 -0.1013  0.5153
20427SOL    HW168142  11.702   0.403   8.124 -0.1930 -0.3545  0.3882
20427SOL    HW268143  11.565   0.357   8.171 -0.3847  0.1418  0.3223
20428SOL     OW68144   9.204   3.924   6.768  0.3803 -0.2157  0.7048
20428SOL    HW168145   9.220   3.990   6.835  1.8686 -0.7593  0.9166
20428SOL    HW268146   9.268   3.942   6.700 -0.8264  0.0561 -0.4179
20429SOL     OW68147   3.196   4.605   4.913  0.0364 -0.1925  0.4272
20429SOL    HW168148   3.283   4.580   4.884  0.0580 -0.3350  0.6136
20429SOL    HW268149   3.156   4.645   4.836  0.7653  1.1698  0.7243
20430SOL     OW68150   2.042   7.008   5.425  0.5961  0.1781 -0.3110
20430SOL    HW168151   1.983   7.072   5.464  0.9297  1.4933 -1.8608
20430SOL    HW268152   1.985   6.946   5.381  0.3117  0.1340  0.1151
20431SOL     OW68153   5.890   4.183   1.322 -0.3025  0.5355 -0.7550
20431SOL    HW168154   5.814   4.146   1.367 -0.1148  0.5014 -0.4625
20431SOL    HW268155   5.866   4.183   1.229  0.7679 -3.0414 -1.1876
20432SOL     OW68156   4.793   5.883   9.375 -0.2542 -0.3397  0.0141
20432SOL    HW168157   4.717   5.917   9.327  0.2834 -0.2060 -0.7458
20432SOL    HW268158   4.785   5.923   9.462 -1.3850 -0.8003  0.1488
20433SOL     OW68159   4.806  12.409   1.814 -0.0790  0.0257  0.0229
20433SOL    HW168160   4.828  12.316   1.819  0.6179  0.1407 -0.6482
20433SOL    HW268161   4.721  12.412   1.771  0.1404 -0.2801 -0.4396
20434SOL     OW68162   2.344   8.765  11.451 -0.0758 -0.1986 -0.2566
20434SOL    HW168163   2.334   8.694  11.388 -0.2789  0.2056 -0.6819
20434SOL    HW268164   2.306   8.841  11.408  1.7490  0.5963 -0.5231
20435SOL     OW68165   7.946   2.958   1.181  0.0489  0.0583 -0.3755
20435SOL    HW168166   7.855   2.940   1.155  0.0023  1.3961 -1.2474
20435SOL    HW268167   7.976   2.877   1.221 -2.0350  0.0725  1.3949
20436SOL     OW68168  11.484  11.844   5.601  0.5451  0.1945 -0.3240
20436SOL    HW168169  11.454  11.769   5.548  0.6578 -1.8591  2.2964
20436SOL    HW268170  11.415  11.855   5.667  2.1805  0.0663  1.4668
20437SOL     OW68171   3.652   8.540   5.232  0.0316  0.0871  0.5171
20437SOL    HW168172   3.678   8.499   5.150 -0.0941  2.1898 -0.6437
20437SOL    HW268173   3.694   8.487   5.300 -1.1047 -2.6103 -0.7644
20438SOL     OW68174   4.036   4.195  10.107 -0.4795  0.6480 -0.1297
20438SOL    HW168175   4.025   4.290  10.106 -1.7790  0.5098 -0.4635
20438SOL    HW268176   3.970   4.162  10.167 -1.4573 -0.1832 -1.5877
20439SOL     OW68177   1.542   5.959  12.328  0.6078 -0.1179  0.0174
20439SOL    HW168178   1.541   5.878  12.379  2.9951  0.5438  1.2755
20439SOL    HW268179   1.458   5.960  12.283 -0.4101 -2.1886  1.6921
20440SOL     OW68180   1.569   2.952   3.144 -0.3441 -0.3915 -0.3761
20440SOL    HW168181   1.551   3.044   3.122 -0.3568 -1.0029 -3.3146
20440SOL    HW268182   1.485   2.919   3.176 -0.6712  0.3089 -0.4798
20441SOL     OW68183   3.092  11.800   9.780 -0.1164  0.1517  0.3512
20441SOL    HW168184   3.044  11.775   9.701  0.7203 -0.1989 -0.0607
20441SOL    HW268185   3.033  11.778   9.852 -0.4079 -0.6480 -0.1241
20442SOL     OW68186  10.463   4.628  11.273 -0.3218  0.5988  0.6182
20442SOL    HW168187  10.410   4.665  11.203 -1.1853  0.0001  0.9270
20442SOL    HW268188  10.453   4.689  11.346 -1.0438  0.2151  0.8497
20443SOL     OW68189   6.509   8.886  11.305  0.3937  0.9620  0.3945
20443SOL    HW168190   6.563   8.964  11.316  0.4761  0.9048  0.3936
20443SOL    HW268191   6.508   8.870  11.211 -0.4759  1.5720  0.2834
20444SOL     OW68192   2.011   5.892  10.813  0.2221 -0.0496  0.2375
20444SOL    HW168193   1.940   5.906  10.876 -0.4650  0.4892 -0.6420
20444SOL    HW268194   2.037   5.980  10.787 -1.7596 -0.1912 -2.7035
20445SOL     OW68195   4.606   4.606  12.025 -0.1264  0.4236 -0.4340
20445SOL    HW168196   4.650   4.691  12.021  1.9050 -0.4677  1.0752
20445SOL    HW268197   4.604   4.585  12.118 -1.5568 -0.7530 -0.6919
20446SOL     OW68198   5.769   4.830   0.852  0.4755  0.0377 -0.0998
20446SOL    HW168199   5.842   4.835   0.791 -0.4214  1.3592 -1.1466
20446SOL    HW268200   5.751   4.921   0.875 -0.2267 -0.3326  0.8848
20447SOL     OW68201   6.617   9.140  10.909 -0.3932  0.2732  0.3358
20447SOL    HW168202   6.665   9.219  10.932 -0.3377  0.0061  1.1863
20447SOL    HW268203   6.628   9.131  10.814 -0.3105  1.2181  0.2481
20448SOL     OW68204   7.990   8.502   4.180  0.5817  0.2743  0.1512
20448SOL    HW168205   7.915   8.528   4.233  0.1734  0.0020 -0.2951
20448SOL    HW268206   8.011   8.413   4.209  0.3046  0.0926 -0.1990
20449SOL     OW68207   3.004   6.268   6.555  0.4318  0.0149 -0.5967
20449SOL    HW168208   2.949   6.339   6.589  0.5993 -0.2225  0.1982
20449SOL    HW268209   2.980   6.261   6.463  0.6713  1.3483 -0.7845
20450SOL     OW68210   8.986   4.590  10.804 -0.2499 -0.1741  0.8085
20450SOL    HW168211   8.965   4.624  10.890 -1.6015 -2.1584  1.3426
20450SOL    HW268212   9.042   4.514  10.821 -0.8113 -0.7890 -0.0192
20451SOL     OW68213  11.206   9.176  12.318  0.0395  0.9263 -1.2364
20451SOL    HW168214  11.250   9.261  12.324  1.7830  0.0332 -0.8067
20451SOL    HW268215  11.277   9.113  12.306 -0.7717 -0.9034  2.1768
20452SOL     OW68216   0.133   3.426   2.966 -0.7504  0.3077 -0.0644
20452SOL    HW168217   0.192   3.397   2.897  0.1406  2.2174 -0.1747
20452SOL    HW268218   0.162   3.380   3.044 -0.9565 -0.9119 -0.6886
20453SOL     OW68219   4.427   6.102  10.007  0.2002  0.1734 -0.4390
20453SOL    HW168220   4.376   6.033   9.964  0.6352  0.5527 -1.5894
20453SOL    HW268221   4.365   6.143  10.067 -0.8179  0.5030 -1.6738
20454SOL     OW68222   9.110  10.689   4.958 -0.0976  0.1327 -0.4173
20454SOL    HW168223   9.074  10.772   4.989  2.5509  1.3533 -0.4103
20454SOL    HW268224   9.152  10.711   4.875 -1.3255 -1.7418 -1.6299
20455SOL     OW68225   1.598  10.836   2.405  0.4183 -0.0886 -0.7259
20455SOL    HW168226   1.619  10.923   2.373  2.1438  0.7516  2.2595
20455SOL    HW268227   1.642  10.776   2.345  2.9650  1.3270 -0.3811
20456SOL     OW68228  11.781   1.873   4.989 -0.3943  0.0388 -0.5901
20456SOL    HW168229  11.743   1.958   4.968 -0.3007 -0.6074 -3.9005
20456SOL    HW268230  11.711   1.826   5.034 -0.9084  1.3647  0.0466
20457SOL     OW68231   4.377  11.406  12.088 -0.2218 -0.2020 -0.7466
20457SOL    HW168232   4.349  11.442  12.003 -1.8311  1.2089  0.3008
20457SOL    HW268233   4.398  11.484  12.140 -3.1122 -0.6500  1.3731
20458SOL     OW68234   1.405  11.515   2.154 -0.1034  0.3137  0.3187
20458SOL    HW168235   1.464  11.441   2.167 -1.1699 -0.7492 -0.6204
20458SOL    HW268236   1.457  11.578   2.104 -0.3867 -1.6152 -2.6840
20459SOL     OW68237   0.214  11.766   3.819  0.1875  0.4466  0.0900
20459SOL    HW168238   0.265  11.797   3.745  2.1473  0.2174  1.2730
20459SOL    HW268239   0.270  11.703   3.864 -2.5388 -2.7403 -0.5529
20460SOL     OW68240   2.943  10.841  10.439 -0.3830  0.6131 -0.3451
20460SOL    HW168241   2.974  10.919  10.485 -1.0700 -0.1584  1.5184
20460SOL    HW268242   2.849  10.854  10.431 -0.5014 -0.0088 -0.0114
20461SOL     OW68243   8.521   8.473   4.291 -0.4729  0.5221  0.3193
20461SOL    HW168244   8.527   8.517   4.206 -2.0565  1.1608  0.5073
20461SOL    HW268245   8.611   8.472   4.323  0.2667 -0.2272 -1.5862
20462SOL     OW68246  10.632   8.575   3.178  0.5236  0.0880  0.8826
20462SOL    HW168247  10.642   8.500   3.120 -0.4010 -0.5937  1.5643
20462SOL    HW268248  10.557   8.552   3.234  2.1254  0.1334  3.1886
20463SOL     OW68249  12.045   6.088   9.967  0.2702 -0.0863 -0.0460
20463SOL    HW168250  12.064   6.005   9.923  0.7877 -0.0951  0.1924
20463SOL    HW268251  12.016   6.062  10.055  0.3079 -0.0193 -0.0139
20464SOL     OW68252   4.033   6.750  10.976 -0.3524 -0.6526 -0.3514
20464SOL    HW168253   3.972   6.677  10.965 -0.5345 -0.6583  0.6353
20464SOL    HW268254   3.983   6.827  10.949  0.3264 -1.0167 -2.9142
20465SOL     OW68255   1.455   6.358   8.426 -0.1488  0.0866 -0.3408
20465SOL    HW168256   1.524   6.292   8.423  1.3191  1.5682 -0.9735
20465SOL    HW268257   1.490   6.426   8.485 -1.7348  0.1881  0.5416
20466SOL     OW68258   9.285   1.428  11.342  0.2933 -0.2054 -0.7069
20466SOL    HW168259   9.377   1.437  11.318  0.0797  0.5478 -1.2936
20466SOL    HW268260   9.277   1.338  11.372  0.9557 -0.6753 -1.8684
20467SOL     OW68261   6.167   5.492  11.104  0.1326 -0.7341  0.3008
20467SOL    HW168262   6.112   5.493  11.183 -1.2988  0.6334 -0.6631
20467SOL    HW268263   6.128   5.426  11.048 -0.4057  0.0846 -0.2978
20468SOL     OW68264   6.651   6.974   4.243 -0.7698 -0.0756  0.0795
20468SOL    HW168265   6.602   6.947   4.165  1.1394 -1.0143 -0.8766
20468SOL    HW268266   6.603   6.936   4.316 -1.7818 -0.4456 -0.7551
20469SOL     OW68267   5.538   3.078   4.761 -0.5307  0.7658 -0.4219
20469SOL    HW168268   5.577   3.115   4.682  0.2621  0.4639 -0.1776
20469SOL    HW268269   5.610   3.077   4.825 -1.0608  0.6480  0.1821
20470SOL     OW68270   6.710   7.638   7.897  0.2800  0.6474 -0.2602
20470SOL    HW168271   6.672   7.715   7.853  0.0190  1.5044  1.3942
20470SOL    HW268272   6.652   7.566   7.872  0.9978  0.7665 -2.5080
20471SOL     OW68273   8.045   9.844   2.402 -0.1773 -0.6916 -0.2244
20471SOL    HW168274   8.077   9.925   2.363 -1.7297 -0.7497 -1.7717
20471SOL    HW268275   8.104   9.776   2.368  0.9184 -0.2859  0.8056
20472SOL     OW68276  12.078   6.220   6.945 -0.9795  0.2757 -0.1210
20472SOL    HW168277  11.992   6.190   6.973 -0.3011 -1.1801  0.5063
20472SOL    HW268278  12.106   6.154   6.880 -0.6413  1.1459 -0.8819
20473SOL     OW68279   4.591  10.433   7.564  0.2890  0.4170 -0.1994
20473SOL    HW168280   4.616  10.507   7.619 -0.6840  0.4169  0.2765
20473SOL    HW268281   4.583  10.470   7.476  2.1361  0.3564 -0.4272
20474SOL     OW68282   1.131   1.961   9.167  0.7220  0.2059  0.1848
20474SOL    HW168283   1.061   2.008   9.214  0.0799 -0.9732  0.4455
20474SOL    HW268284   1.122   1.991   9.076 -0.4588 -0.2766  0.1172
20475SOL     OW68285   2.154   6.540  12.217  0.1674  0.1707  0.0001
20475SOL    HW168286   2.062   6.515  12.226 -0.1403  1.3130  0.2475
20475SOL    HW268287   2.182   6.502  12.134 -0.9482  0.9880 -0.7698
20476SOL     OW68288   2.707   5.807  11.944  0.6368 -0.8969  0.1530
20476SOL    HW168289   2.711   5.863  12.021 -2.0525  0.2459 -0.4112
20476SOL    HW268290   2.685   5.720  11.978 -1.1585 -0.2724  0.6991
20477SOL     OW68291   7.114   9.917   0.286 -0.0813 -0.8559  0.2280
20477SOL    HW168292   7.157   9.932   0.370 -1.2155 -0.3356  0.7398
20477SOL    HW268293   7.171   9.959   0.222 -0.3705  0.8590  1.0310
20478SOL     OW68294   3.377   6.401   6.505  0.1361  0.2889 -0.0049
20478SOL    HW168295   3.370   6.456   6.427 -2.0471  0.2030  0.0476
20478SOL    HW268296   3.298   6.422   6.555  1.2790  0.0497  2.0142
20479SOL     OW68297   4.642   2.163   3.980 -0.2406 -0.0331 -0.3315
20479SOL    HW168298   4.708   2.232   3.973 -0.9692  0.6791 -0.2444
20479SOL    HW268299   4.572   2.201   4.032 -1.6488 -0.0487 -2.1135
20480SOL     OW68300   7.391   7.043   9.670  0.4707 -0.1169 -0.2669
20480SOL    HW168301   7.338   7.074   9.744 -0.6113 -0.8114 -0.7147
20480SOL    HW268302   7.388   7.115   9.607  0.4107  0.0204 -0.1072
20481SOL     OW68303   7.277   2.126   2.858  0.3525  0.1075  0.3694
20481SOL    HW168304   7.217   2.051   2.859  1.0504 -0.4579  0.9292
20481SOL    HW268305   7.345   2.101   2.795 -0.1634  0.8886 -0.5152
20482SOL     OW68306   0.791   1.483   1.476  0.1566 -0.3359 -0.2582
20482SOL    HW168307   0.792   1.416   1.408  2.4377 -0.0734 -0.5516
20482SOL    HW268308   0.712   1.535   1.457  0.3466 -0.7030 -2.2660
20483SOL     OW68309   0.074   9.167   3.279 -0.4501 -0.6249 -0.0021
20483SOL    HW168310   0.007   9.102   3.300  0.3889 -1.4950  0.0916
20483SOL    HW268311   0.067   9.178   3.184 -1.1306 -0.2312  0.0865
20484SOL     OW68312   4.471  10.371   9.541  0.0698 -0.1780  0.5248
20484SOL    HW168313   4.479  10.276   9.549 -0.8308 -0.2174  1.1556
20484SOL    HW268314   4.387  10.391   9.583  0.1245  0.8645  0.1571
20485SOL     OW68315   1.639   8.417   5.447 -0.8891  0.2820  0.3622
20485SOL    HW168316   1.578   8.368   5.503 -0.0239 -0.3872  0.7375
20485SOL    HW268317   1.625   8.509   5.470  0.4542 -0.0309  2.7662
20486SOL     OW68318   2.918   3.577   0.300  0.0887 -0.3005 -0.2037
20486SOL    HW168319   2.910   3.621   0.385  0.5074 -1.8604  0.6768
20486SOL    HW268320   2.977   3.504   0.316  0.0635 -0.7230 -1.8248
20487SOL     OW68321   3.568  10.899   4.079 -0.3930  0.0785 -0.1189
20487SOL    HW168322   3.640  10.861   4.129 -0.2054  0.8503  0.2180
20487SOL    HW268323   3.610  10.942   4.005 -0.3770  1.4981  0.6786
20488SOL     OW68324   6.948   1.241   4.669  0.1193  0.3942  0.2909
20488SOL    HW168325   6.971   1.157   4.631 -0.2384  0.2091  0.4731
20488SOL    HW268326   6.974   1.305   4.603 -3.9871 -0.0882 -2.1490
20489SOL     OW68327  12.130  10.833  11.995 -0.0414  0.0444 -0.1087
20489SOL    HW168328  12.192  10.761  11.993  0.9783  0.8474  1.0320
20489SOL    HW268329  12.086  10.830  11.910  0.3037 -1.6112 -0.2509
20490SOL     OW68330   3.487   4.772  11.429 -0.0150 -0.4554 -0.1791
20490SOL    HW168331   3.398   4.802  11.413  0.4300 -0.1148 -2.3015
20490SOL    HW268332   3.539   4.851  11.430  0.0382 -0.3952  3.5386
20491SOL     OW68333   3.688  11.901   0.306 -0.0923  0.1711  0.5128
20491SOL    HW168334   3.696  11.995   0.326 -0.2908  0.2532  0.2135
20491SOL    HW268335   3.599  11.879   0.332  0.7503 -0.5733  3.1636
20492SOL     OW68336   1.581  11.795   2.167  0.4031 -0.0521  0.1942
20492SOL    HW168337   1.668  11.754   2.176  0.0294 -0.9869 -0.3612
20492SOL    HW268338   1.588  11.876   2.218  1.8977  0.3638 -0.5972
20493SOL     OW68339  11.532   7.037   2.152  0.0879  0.2643  0.1532
20493SOL    HW168340  11.615   7.006   2.187  0.6411  0.4143 -0.9719
20493SOL    HW268341  11.545   7.038   2.057 -0.5322  2.1469  0.0450
20494SOL     OW68342   5.830   8.946   3.702  0.1001 -0.3818  0.3559
20494SOL    HW168343   5.782   8.947   3.619 -0.2321 -0.5305  0.5417
20494SOL    HW268344   5.915   8.909   3.680  0.4406  0.6636 -0.1393
20495SOL     OW68345  11.243  11.946   8.369  0.7427  0.4949  0.3337
20495SOL    HW168346  11.315  11.989   8.415  1.6311  0.0559 -0.6010
20495SOL    HW268347  11.274  11.858   8.351  0.7129  0.8344 -1.6507
20496SOL     OW68348   9.774   4.399   6.789  0.6833 -0.2275  0.2981
20496SOL    HW168349   9.838   4.385   6.719 -1.0870 -2.3367 -1.0051
20496SOL    HW268350   9.795   4.331   6.854 -0.4380 -1.1948 -0.3251
20497SOL     OW68351   2.647   5.758   1.496 -0.3040  0.0118 -0.0955
20497SOL    HW168352   2.628   5.852   1.503  1.3240  0.3406  0.1624
20497SOL    HW268353   2.742   5.751   1.506 -0.4138 -1.6903  0.0940
20498SOL     OW68354   8.648   8.419   1.957  0.3752 -0.0905 -0.1851
20498SOL    HW168355   8.589   8.453   2.025  0.8513 -0.5966  0.4895
20498SOL    HW268356   8.600   8.434   1.875  0.0517  1.0824  0.1940
20499SOL     OW68357  12.419   6.818   7.687 -0.5532 -0.0991 -0.4282
20499SOL    HW168358  12.436   6.729   7.656  0.2131 -0.6689  1.4752
20499SOL    HW268359  12.325   6.821   7.702 -0.4567 -1.0067  0.5407
20500SOL     OW68360  12.077   6.691   6.870 -0.1145 -0.2931  0.0343
20500SOL    HW168361  12.096   6.599   6.891  1.3825 -0.1111 -0.4197
20500SOL    HW268362  12.156   6.723   6.828 -0.0781  1.6077  1.4254
20501SOL     OW68363   1.641   7.982   8.085 -0.2889  0.9376 -0.2697
20501SOL    HW168364   1.573   8.025   8.136  1.6631  2.5400  1.1781
20501SOL    HW268365   1.625   7.888   8.098 -1.2076  1.2846  1.4727
20502SOL     OW68366  10.321   3.176   5.192 -0.0025  0.1825 -0.5321
20502SOL    HW168367  10.256   3.126   5.143 -1.4585  2.4639 -1.0836
20502SOL    HW268368  10.401   3.171   5.139 -1.0370  1.0590 -2.2641
20503SOL     OW68369   6.487  11.005   1.960 -0.4272  0.5101 -0.4482
20503SOL    HW168370   6.410  10.949   1.964 -1.0074  1.3199  0.0055
20503SOL    HW268371   6.506  11.012   1.866  0.3871 -1.3921 -0.4631
20504SOL     OW68372   5.554   0.617  10.023 -0.3108 -0.0509 -0.7064
20504SOL    HW168373   5.466   0.581  10.033 -0.5787  0.9601  0.8446
20504SOL    HW268374   5.611   0.540  10.015 -1.1136 -0.7689  0.2794
20505SOL     OW68375   3.935   5.121  12.446 -0.3749  0.5490  0.1880
20505SOL    HW168376   3.977   5.035  12.449 -1.8112 -0.1526  1.3796
20505SOL    HW268377   3.863   5.110  12.383 -0.2419  1.0279 -0.0473
20506SOL     OW68378   9.941   5.193   4.611  0.0791  0.1310  0.3181
20506SOL    HW168379  10.014   5.217   4.554 -0.4179  1.1850  0.0923
20506SOL    HW268380   9.969   5.218   4.699  0.7677 -1.3146  0.5385
20507SOL     OW68381   3.472   7.831   1.870 -0.2296  0.3023  0.9612
20507SOL    HW168382   3.515   7.824   1.955 -1.2047  1.6300  1.5884
20507SOL    HW268383   3.544   7.841   1.808  0.4320  1.1739  1.8385
20508SOL     OW68384   8.474   0.291   1.181 -0.1376 -0.2539  0.3831
20508SOL    HW168385   8.517   0.371   1.209 -0.1073 -0.2884  0.4331
20508SOL    HW268386   8.384   0.319   1.160  0.5072  0.2839 -1.9401
20509SOL     OW68387  11.542  11.251   6.838 -0.4153 -0.2538  0.1221
20509SOL    HW168388  11.504  11.229   6.923  0.3431  1.6718  1.0176
20509SOL    HW268389  11.494  11.329   6.810 -1.0775 -1.2204 -1.5447
20510SOL     OW68390   7.968   5.380   1.857 -0.0147 -0.3383 -0.0594
20510SOL    HW168391   7.900   5.431   1.900  0.3324 -1.3579  1.8313
20510SOL    HW268392   7.937   5.290   1.860 -0.3178 -0.4084 -2.7415
20511SOL     OW68393   3.375  11.886   0.067 -0.1766 -0.0033 -0.5255
20511SOL    HW168394   3.399  11.895   0.160 -0.3799 -0.3924 -0.4332
20511SOL    HW268395   3.379  11.792   0.051 -3.2304 -0.3106 -0.0587
20512SOL     OW68396   3.814   7.725   6.933 -0.4815 -0.4378 -0.5468
20512SOL    HW168397   3.846   7.649   6.982 -0.5828 -0.6438 -0.7980
20512SOL    HW268398   3.838   7.800   6.987  0.3533 -0.5889 -0.6990
20513SOL     OW68399   6.588   7.443   8.800 -0.1849 -0.5543 -0.5012
20513SOL    HW168400   6.555   7.477   8.717  0.8259  0.2699 -0.5742
20513SOL    HW268401   6.633   7.362   8.777 -0.1039 -0.4460 -0.7180
20514SOL     OW68402   6.593   6.235   8.982 -0.0007 -0.0019 -0.0415
20514SOL    HW168403   6.638   6.166   9.032 -0.0105  1.1254  1.6028
20514SOL    HW268404   6.528   6.270   9.043 -0.6726  0.7955 -1.1878
20515SOL     OW68405   9.285  11.105  12.217  0.0941 -0.1042  0.6167
20515SOL    HW168406   9.241  11.072  12.139  2.1108 -0.4863 -0.4331
20515SOL    HW268407   9.217  11.152  12.266 -0.9388  1.3675 -2.0514
20516SOL     OW68408  11.111   9.750   4.246 -0.0328  0.4439  0.1198
20516SOL    HW168409  11.162   9.713   4.174 -2.0829  1.8073 -2.1830
20516SOL    HW268410  11.020   9.741   4.217 -0.8677  1.9964  2.0982
20517SOL     OW68411   4.617  12.175   6.437 -0.5376  0.0855  0.1810
20517SOL    HW168412   4.580  12.247   6.488  0.9950  0.6454  0.5676
20517SOL    HW268413   4.549  12.153   6.374 -2.4248 -0.4614  2.2571
20518SOL     OW68414   3.974   8.767   2.881 -0.1892 -0.2337 -0.2545
20518SOL    HW168415   3.907   8.793   2.944  2.5469  2.7966  1.7485
20518SOL    HW268416   3.970   8.833   2.812  1.0857  0.4481  0.2730
20519SOL     OW68417  12.099   6.464   0.353 -0.2254 -0.1749  0.3097
20519SOL    HW168418  12.079   6.376   0.319  1.6567  0.1674 -1.9405
20519SOL    HW268419  12.186   6.455   0.392 -0.6922  0.3630  1.5060
20520SOL     OW68420   8.440   6.240   4.667  0.8343 -0.3947 -0.3582
20520SOL    HW168421   8.477   6.262   4.753  0.5382  0.0811 -0.3437
20520SOL    HW268422   8.507   6.187   4.624  1.4024  0.2059 -0.2246
20521SOL     OW68423   7.459   9.299   8.360 -0.7084 -0.5970 -0.0967
20521SOL    HW168424   7.548   9.266   8.373  0.0791  1.0794 -0.8833
20521SOL    HW268425   7.412   9.273   8.439  0.9528 -0.0363  1.1437
20522SOL     OW68426  10.678  11.330  10.865 -0.5265  0.0275 -1.0987
20522SOL    HW168427  10.642  11.360  10.782 -0.1878 -0.2724 -1.3609
20522SOL    HW268428  10.700  11.410  10.912  1.1356  0.2261 -2.1313
20523SOL     OW68429   2.314   9.403   1.698  0.5063 -0.0263  0.0626
20523SOL    HW168430   2.374   9.454   1.751 -0.2208  0.1836  0.7082
20523SOL    HW268431   2.308   9.451   1.615  0.7262  0.2986  0.2324
20524SOL     OW68432   1.972   4.249   3.042  0.3681  0.3768  0.4926
20524SOL    HW168433   2.066   4.264   3.053  0.5733  0.1843 -0.9048
20524SOL    HW268434   1.959   4.161   3.077  0.7398  0.3326  0.5305
20525SOL     OW68435   4.922   4.121   3.524 -0.6458 -0.6312  0.3800
20525SOL    HW168436   4.893   4.212   3.525 -4.1658 -1.5842 -0.5268
20525SOL    HW268437   4.983   4.115   3.451 -0.5029  0.9467  0.3406
20526SOL     OW68438   4.424   3.459   2.005 -0.0653  0.3050  0.2547
20526SOL    HW168439   4.382   3.390   2.056  1.3252 -0.3965  0.4957
20526SOL    HW268440   4.352   3.510   1.969 -1.0951 -0.2627  1.4592
20527SOL     OW68441   4.476   2.593   7.146 -0.1558  0.0864 -0.3015
20527SOL    HW168442   4.551   2.584   7.087 -1.6403  0.8296 -2.4206
20527SOL    HW268443   4.409   2.636   7.093 -1.1084  2.1781  2.4224
20528SOL     OW68444   6.254   3.328   4.647  0.3261  0.2812 -0.2503
20528SOL    HW168445   6.274   3.262   4.582 -0.3216 -1.5000  1.2755
20528SOL    HW268446   6.326   3.324   4.709  0.1743  0.8696 -0.0225
20529SOL     OW68447   7.833   4.458   1.796  0.8464  0.6390  0.4279
20529SOL    HW168448   7.816   4.541   1.753  1.6631  0.8006  0.4036
20529SOL    HW268449   7.890   4.479   1.869 -1.1829  0.4906  2.1632
20530SOL     OW68450   5.721   5.589   9.552  0.4064 -0.0140 -0.9330
20530SOL    HW168451   5.717   5.537   9.632  2.7872 -0.5684 -1.1136
20530SOL    HW268452   5.693   5.529   9.483 -1.1875  0.3280 -0.6293
20531SOL     OW68453   2.865  12.035  10.903  0.1066 -0.1807  0.1225
20531SOL    HW168454   2.850  12.061  10.812  1.8703 -0.2659 -0.2267
20531SOL    HW268455   2.782  11.995  10.931 -1.0167  1.3222 -0.8998
20532SOL     OW68456   3.431  12.260   8.282 -0.4987  0.3119 -0.3417
20532SOL    HW168457   3.378  12.288   8.356  1.7203 -0.3905  1.6347
20532SOL    HW268458   3.519  12.292   8.302  0.6700 -1.9510 -1.4369
20533SOL     OW68459   2.422   9.648   5.993  0.5179  0.4864  0.1324
20533SOL    HW168460   2.496   9.629   5.936  0.2865  0.1536 -0.0624
20533SOL    HW268461   2.453   9.628   6.081  0.6157  0.2174  0.0365
20534SOL     OW68462   3.031   9.925   7.918 -0.1312 -0.5632 -0.0763
20534SOL    HW168463   3.011  10.017   7.900 -0.9714 -0.5302  0.9253
20534SOL    HW268464   3.127   9.921   7.919 -0.0669  0.6163  1.2724
20535SOL     OW68465   7.258  11.399  11.604  0.1459 -0.0281  0.4243
20535SOL    HW168466   7.240  11.419  11.696  1.8132  1.8421  0.4070
20535SOL    HW268467   7.341  11.352  11.605  0.8375  1.1458 -0.1892
20536SOL     OW68468   2.121   9.812   4.029  0.4670  0.2733  0.4760
20536SOL    HW168469   2.125   9.788   3.937  2.3018  0.3026  0.5094
20536SOL    HW268470   2.033   9.848   4.040 -0.5703 -1.7327 -0.7186
20537SOL     OW68471   3.356   7.700  11.607 -0.1102  0.4762  0.1430
20537SOL    HW168472   3.449   7.678  11.594  0.0967  1.5789 -0.3422
20537SOL    HW268473   3.328   7.641  11.677  0.6006 -0.7982 -0.5894
20538SOL     OW68474   8.051   3.457   6.799 -0.4789  0.0579 -0.6363
20538SOL    HW168475   8.071   3.384   6.741  1.1320 -1.4595  1.6527
20538SOL    HW268476   8.106   3.529   6.768  0.2571 -0.6831 -1.0615
20539SOL     OW68477   3.274   5.280   2.323 -0.5767 -1.2322  1.2260
20539SOL    HW168478   3.320   5.363   2.337 -0.9365 -0.7107 -0.5259
20539SOL    HW268479   3.184   5.298   2.349 -0.6447 -1.0844  0.8904
20540SOL     OW68480   9.766   7.695  10.953 -0.0992 -0.4783 -0.3160
20540SOL    HW168481   9.795   7.649  11.032  4.2833  0.6193 -1.0185
20540SOL    HW268482   9.754   7.625  10.889 -1.0703 -1.1765  0.5929
20541SOL     OW68483   1.145  11.119   9.068  0.2558 -0.4102  0.8434
20541SOL    HW168484   1.196  11.115   9.150  1.0720 -1.9864  0.2938
20541SOL    HW268485   1.181  11.050   9.014 -0.4063  0.4867 -0.8118
20542SOL     OW68486   7.839   5.606  12.087  0.0125 -0.1203 -0.5130
20542SOL    HW168487   7.792   5.650  12.158  0.8847 -0.8856  0.5919
20542SOL    HW268488   7.900   5.672  12.054  0.0355  0.0663 -0.1090
20543SOL     OW68489   6.285  11.958   5.586 -0.2404 -0.0799 -0.3312
20543SOL    HW168490   6.325  11.936   5.502 -0.5028 -0.1098 -0.4500
20543SOL    HW268491   6.253  11.874   5.621  1.5256 -0.3789  0.6910
20544SOL     OW68492   2.875   6.655   5.542 -0.1837 -0.3988 -0.5270
20544SOL    HW168493   2.904   6.583   5.598 -0.3534  0.0740  0.1787
20544SOL    HW268494   2.909   6.633   5.455 -1.6366 -2.1810 -0.7068
20545SOL     OW68495   2.944   0.343   0.588  0.1439  0.0818  0.4733
20545SOL    HW168496   2.962   0.426   0.631 -0.9507  0.4079  0.3450
20545SOL    HW268497   3.027   0.317   0.548  0.0019  2.3309 -1.5344
20546SOL     OW68498   8.167   2.519   4.676 -0.3595 -0.3455 -0.2244
20546SOL    HW168499   8.187   2.425   4.675 -0.3814 -0.3654  0.5515
20546SOL    HW268500   8.073   2.523   4.655 -0.8338 -0.6562  1.6413
20547SOL     OW68501  12.070   8.903   9.218  0.4939 -0.4094 -0.1318
20547SOL    HW168502  12.005   8.957   9.264  0.4771 -0.3858 -0.1830
20547SOL    HW268503  12.136   8.884   9.284 -1.2329 -3.3380  0.9544
20548SOL     OW68504  11.825   4.288   5.611 -0.2143  0.7343  0.3149
20548SOL    HW168505  11.827   4.377   5.578 -0.4346  0.3701 -0.7160
20548SOL    HW268506  11.806   4.297   5.704 -0.8555  1.7276  0.0988
20549SOL     OW68507  11.405   2.089   9.750 -0.3695 -0.0302 -0.4218
20549SOL    HW168508  11.427   2.089   9.843 -0.1267 -0.1396 -0.4764
20549SOL    HW268509  11.385   2.180   9.729 -0.2381  0.0257 -0.3043
20550SOL     OW68510  11.842   0.517   7.315  0.1939 -0.3614  0.3087
20550SOL    HW168511  11.867   0.437   7.360  1.9301 -0.1091 -0.1476
20550SOL    HW268512  11.818   0.489   7.227 -1.4760 -0.6271  0.8020
20551SOL     OW68513   6.177   3.734  10.038  0.4984 -0.2562 -0.2767
20551SOL    HW168514   6.207   3.650  10.074 -0.3247  0.2717  1.7736
20551SOL    HW268515   6.116   3.709   9.969  0.7961 -1.3494 -0.1731
20552SOL     OW68516   0.733   9.466   5.321 -0.0713 -0.2945  0.3129
20552SOL    HW168517   0.790   9.408   5.270 -0.7539  0.9478 -2.0050
20552SOL    HW268518   0.744   9.552   5.281 -2.7040  0.2091  0.4874
20553SOL     OW68519  11.063  10.386  12.345 -0.9047 -0.4569 -0.0443
20553SOL    HW168520  11.034  10.336  12.269 -0.2037  0.4054 -0.9096
20553SOL    HW268521  11.053  10.326  12.419 -3.6944 -0.6218 -0.4447
20554SOL     OW68522  11.642   0.422   3.616 -0.0395 -0.4116  0.2786
20554SOL    HW168523  11.631   0.328   3.630  1.5661 -0.6781 -0.1493
20554SOL    HW268524  11.690   0.452   3.692 -1.6680  0.3484  1.0664
20555SOL     OW68525  10.455   9.757   8.170 -0.0792 -0.3837  0.2418
20555SOL    HW168526  10.540   9.766   8.128  0.0115 -4.1168 -0.7761
20555SOL    HW268527  10.394   9.804   8.113  0.8471 -0.5997 -0.9625
20556SOL     OW68528   4.314   6.386   3.986  0.4639  0.4640  0.0464
20556SOL    HW168529   4.408   6.381   3.969  0.8153 -0.5927  2.0874
20556SOL    HW268530   4.279   6.305   3.950  0.7731 -0.3949  1.5872
20557SOL     OW68531   7.850  12.277   3.220 -0.3087 -0.1348 -0.0391
20557SOL    HW168532   7.944  12.279   3.204 -0.2326  1.9320  0.3269
20557SOL    HW268533   7.816  12.214   3.157  0.8687  2.0948 -3.1712
20558SOL     OW68534  10.629   5.088  11.978  0.2011 -0.5173  0.4327
20558SOL    HW168535  10.554   5.058  11.927  0.9113 -1.1160 -0.3000
20558SOL    HW268536  10.614   5.052  12.065 -1.4467  1.2159  0.9242
20559SOL     OW68537   0.101   0.927   9.374 -0.3505  0.1851  0.1097
20559SOL    HW168538   0.016   0.954   9.339 -0.3345 -1.5701 -1.5169
20559SOL    HW268539   0.080   0.873   9.450 -0.5941  0.9145  0.5705
20560SOL     OW68540   0.888   7.204   3.270  0.5164  0.4067  0.3314
20560SOL    HW168541   0.909   7.270   3.204  1.2372  0.0485  0.1966
20560SOL    HW268542   0.914   7.121   3.231 -0.6263 -0.0026  0.3955
20561SOL     OW68543   8.634   3.410   3.946  0.0882  0.1411 -0.4722
20561SOL    HW168544   8.588   3.336   3.985 -0.6497  0.4711 -0.7128
20561SOL    HW268545   8.636   3.476   4.016  3.1909 -1.0452  0.7573
20562SOL     OW68546   3.688   1.490   2.214 -0.3269  0.4586 -0.0173
20562SOL    HW168547   3.689   1.522   2.304 -2.1472 -0.9790  0.5820
20562SOL    HW268548   3.690   1.395   2.223  2.5016  0.2732 -1.6412
20563SOL     OW68549   8.803   7.056   4.036  0.1981  0.2903 -0.1881
20563SOL    HW168550   8.784   6.993   3.966 -0.8406 -0.7079  0.9341
20563SOL    HW268551   8.768   7.139   4.004  2.0170  0.4687 -1.9019
20564SOL     OW68552   8.479  11.675   6.922 -0.0260  0.4535 -0.1146
20564SOL    HW168553   8.396  11.657   6.966  0.4169  1.2214  1.0907
20564SOL    HW268554   8.466  11.646   6.832 -1.9143  1.4685 -0.2023
20565SOL     OW68555  11.180   9.093   8.844 -0.0443 -0.1613  0.5804
20565SOL    HW168556  11.112   9.037   8.805  0.0421  1.0599 -1.4830
20565SOL    HW268557  11.131   9.167   8.881  0.0923  0.3132 -0.1765
20566SOL     OW68558   7.116   6.797   5.318  0.3812 -0.2126  0.5105
20566SOL    HW168559   7.064   6.741   5.375  1.5947  0.4404  2.3550
20566SOL    HW268560   7.052   6.856   5.277 -0.5302 -0.6584  1.2481
20567SOL     OW68561  12.115  10.387   6.246 -0.2490  0.2548  0.0690
20567SOL    HW168562  12.134  10.471   6.204  0.3855  0.8696  1.5081
20567SOL    HW268563  12.134  10.322   6.179  1.9441  1.1361 -0.2707
20568SOL     OW68564   3.520   8.276  12.241 -0.3076 -0.7732 -0.2626
20568SOL    HW168565   3.504   8.203  12.301  2.3725 -2.6069 -1.5550
20568SOL    HW268566   3.605   8.310  12.268 -0.6292  0.6056 -0.9312
20569SOL     OW68567  10.314   1.574   1.926  0.1169 -0.0942 -0.8754
20569SOL    HW168568  10.398   1.545   1.960  0.1114 -0.7154 -1.3856
20569SOL    HW268569  10.249   1.522   1.974  0.1004 -0.8254 -1.6732
20570SOL     OW68570   5.767   2.604  10.723 -0.7628  0.3225 -0.4326
20570SOL    HW168571   5.766   2.672  10.790 -0.3947  1.0215 -1.1168
20570SOL    HW268572   5.808   2.529  10.766 -2.3105  0.0825  0.7248
20571SOL     OW68573   8.451   0.873   2.694  0.3183 -0.0911 -0.2479
20571SOL    HW168574   8.365   0.847   2.726  0.3422 -1.7257 -1.4172
20571SOL    HW268575   8.446   0.969   2.688 -1.2926 -0.1354  0.0137
20572SOL     OW68576   5.325   4.305   7.308  0.6164 -0.5565 -0.2710
20572SOL    HW168577   5.280   4.387   7.284 -0.4689 -1.4866 -1.5891
20572SOL    HW268578   5.417   4.329   7.315  0.1074  1.1485  1.1968
20573SOL     OW68579   0.809   4.558  11.788 -0.3061 -1.3083  0.1243
20573SOL    HW168580   0.813   4.472  11.745 -1.7926  0.0608 -3.0402
20573SOL    HW268581   0.880   4.608  11.749  0.7304 -1.0828  2.1610
20574SOL     OW68582  11.586   7.800  10.048  0.5491 -0.0422  0.4664
20574SOL    HW168583  11.534   7.724  10.025  1.2151 -0.4144  0.1730
20574SOL    HW268584  11.585   7.855   9.970 -0.8398  0.7983  1.0238
20575SOL     OW68585   6.748   6.280   4.817 -0.1186 -0.0491 -0.2486
20575SOL    HW168586   6.793   6.273   4.732  1.0109  0.9583  0.2339
20575SOL    HW268587   6.805   6.233   4.878  0.6998  1.8302  0.5022
20576SOL     OW68588   1.196   3.810   7.196  0.2052 -0.2073 -0.1313
20576SOL    HW168589   1.253   3.878   7.162  0.5764 -0.9976 -1.1282
20576SOL    HW268590   1.244   3.728   7.181 -0.4450 -0.7354  0.5832
20577SOL     OW68591   3.229   1.403  11.267 -0.2325 -0.1803  0.0831
20577SOL    HW168592   3.152   1.346  11.271 -2.1447  2.2721  1.1469
20577SOL    HW268593   3.234   1.442  11.354  0.6503  1.6129 -0.7168
20578SOL     OW68594   1.998   7.761   6.142  0.2176  0.1520 -0.4025
20578SOL    HW168595   2.075   7.805   6.178 -0.1686  1.5645 -1.2126
20578SOL    HW268596   2.007   7.769   6.047  0.1553 -1.6250 -0.5847
20579SOL     OW68597   2.309   6.222  10.736 -0.0051 -0.0668  0.0528
20579SOL    HW168598   2.366   6.178  10.800 -1.1066 -1.9126 -0.1653
20579SOL    HW268599   2.221   6.195  10.760 -0.5187  0.0103 -1.6331
20580SOL     OW68600   8.474   4.791  10.936  0.2816 -0.1563 -0.0505
20580SOL    HW168601   8.458   4.867  10.992 -0.0900  0.3511 -0.8206
20580SOL    HW268602   8.396   4.786  10.880  0.0173 -1.4755  0.3907
20581SOL     OW68603   1.400  10.423   4.803  0.0834  0.1223  0.2296
20581SOL    HW168604   1.476  10.463   4.761  1.5603 -0.5652  2.0800
20581SOL    HW268605   1.367  10.491   4.862  0.7951 -0.3443  1.2060
20582SOL     OW68606  10.249   1.893   0.086  0.4703  0.0744  0.0532
20582SOL    HW168607  10.286   1.822   0.138  0.6980 -0.5321 -0.9061
20582SOL    HW268608  10.314   1.909   0.018  0.3287  1.0840  0.1469
20583SOL     OW68609   3.135   3.119   2.620  0.0700  0.3658 -0.1928
20583SOL    HW168610   3.197   3.046   2.618 -0.3612 -0.0034 -0.2362
20583SOL    HW268611   3.056   3.084   2.580 -0.4864  0.5346  0.7330
20584SOL     OW68612   4.142  11.149   6.085 -0.0595 -0.1634  0.3165
20584SOL    HW168613   4.086  11.213   6.128 -0.9088 -0.9555  0.4260
20584SOL    HW268614   4.168  11.089   6.155 -0.0000 -0.4461  0.0556
20585SOL     OW68615   0.859   9.845   7.861 -0.0200  0.1742 -0.0582
20585SOL    HW168616   0.784   9.849   7.921 -0.1655  0.3525 -0.2505
20585SOL    HW268617   0.933   9.872   7.915 -0.3158  1.3902 -0.2185
20586SOL     OW68618   1.587  10.147   4.363  0.3255 -0.2514 -0.1969
20586SOL    HW168619   1.496  10.118   4.364 -0.1440  1.1504 -0.8293
20586SOL    HW268620   1.598  10.190   4.278  1.3873  0.1781  0.1397
20587SOL     OW68621   9.791   8.207   7.024 -0.2874 -0.5047  0.1196
20587SOL    HW168622   9.840   8.142   7.076  0.3274  0.1315  0.3664
20587SOL    HW268623   9.721   8.236   7.082 -0.1449 -0.4526  0.2681
20588SOL     OW68624   4.294   8.271   5.056 -0.0428 -0.0578 -0.3933
20588SOL    HW168625   4.377   8.295   5.014 -0.3751 -0.3161 -1.2265
20588SOL    HW268626   4.250   8.354   5.071 -0.1497  0.0150 -1.0659
20589SOL     OW68627   8.365   2.918  10.196 -0.0169  0.0362 -0.4059
20589SOL    HW168628   8.404   2.847  10.145 -0.0512  0.4019 -0.9532
20589SOL    HW268629   8.352   2.881  10.283  2.0286  0.0547 -0.0524
20590SOL     OW68630   8.069   6.363  11.171  0.5148 -0.1085  0.4544
20590SOL    HW168631   8.033   6.441  11.216  1.0305  0.0785  0.5457
20590SOL    HW268632   8.081   6.299  11.241 -0.4680 -0.4868  0.2919
20591SOL     OW68633   3.458   4.197   9.598 -0.3135  0.5705 -0.0233
20591SOL    HW168634   3.464   4.228   9.508 -1.1733 -0.2538 -0.3894
20591SOL    HW268635   3.547   4.173   9.622 -0.3022 -0.7572 -1.2500
20592SOL     OW68636   3.667   8.211   1.586  0.2053  0.5349 -0.7707
20592SOL    HW168637   3.574   8.234   1.583 -0.1531 -0.6733  0.0695
20592SOL    HW268638   3.713   8.291   1.560 -1.0988  0.8203 -2.4113
20593SOL     OW68639  10.024   1.025   5.530  0.1918 -0.4568  0.1918
20593SOL    HW168640   9.944   0.978   5.556 -0.0371  0.3740  1.0705
20593SOL    HW268641  10.000   1.071   5.450 -0.8148  1.2280  1.4020
20594SOL     OW68642   6.935   3.094   6.362  0.0230  0.6517  0.4524
20594SOL    HW168643   6.884   3.094   6.280 -1.6354  1.3230  1.4352
20594SOL    HW268644   7.026   3.089   6.333 -0.5815 -1.2099 -1.3760
20595SOL     OW68645   1.085   2.783  12.319 -0.0309  0.4120 -0.1147
20595SOL    HW168646   1.032   2.731  12.259  0.3648 -0.7665  0.5183
20595SOL    HW268647   1.141   2.718  12.362  0.1249  1.3142  1.0645
20596SOL     OW68648   5.434  12.073  11.805  0.4216  0.0575 -0.6494
20596SOL    HW168649   5.383  11.996  11.781  0.2371 -0.2213  0.5773
20596SOL    HW268650   5.507  12.038  11.855 -0.1393  0.7343  0.6839
20597SOL     OW68651   9.455   3.170   8.522  0.1952 -0.1765  0.3129
20597SOL    HW168652   9.455   3.157   8.616 -1.6828 -0.1223  0.3557
20597SOL    HW268653   9.505   3.250   8.508  0.1552  0.0229  1.2891
20598SOL     OW68654   5.060  10.517  11.151  0.3136  0.2502 -0.8465
20598SOL    HW168655   5.088  10.462  11.224 -0.0859  1.4114  0.2198
20598SOL    HW268656   4.967  10.530  11.165  0.8505  3.4365  0.5444
20599SOL     OW68657   9.840   4.822   6.602  0.2314 -0.0666 -0.0334
20599SOL    HW168658   9.797   4.906   6.587  1.2147  0.4013 -0.3483
20599SOL    HW268659   9.788   4.780   6.670 -0.7862  0.4105 -0.4926
20600SOL     OW68660   0.034  11.353   4.351  0.0882  0.5656  0.1965
20600SOL    HW168661  -0.034  11.380   4.290 -0.3778 -0.4759  0.2276
20600SOL    HW268662   0.110  11.334   4.296 -0.4743 -0.8408 -0.1547
20601SOL     OW68663  10.037  11.489   5.897 -0.2578 -0.3009  0.1732
20601SOL    HW168664  10.115  11.448   5.934 -1.1698 -0.3208  2.2422
20601SOL    HW268665   9.971  11.420   5.899 -0.2521 -0.4332 -2.0185
20602SOL     OW68666   6.835  12.077   6.658 -0.3209  0.3023  0.7599
20602SOL    HW168667   6.866  12.111   6.574 -0.2395 -1.2851  0.1170
20602SOL    HW268668   6.793  12.152   6.701 -0.9420  0.9847 -0.9778
20603SOL     OW68669   8.758  11.353   1.098  0.2281 -0.1642  0.3144
20603SOL    HW168670   8.813  11.375   1.174  1.5181  1.1641 -0.9478
20603SOL    HW268671   8.817  11.303   1.040 -0.7982 -1.3376  0.2329
20604SOL     OW68672  10.439   6.625   0.170  0.4030 -0.3729  0.1406
20604SOL    HW168673  10.530   6.595   0.171  0.6390  0.3217 -0.1092
20604SOL    HW268674  10.407   6.599   0.083 -0.6293 -3.4472  1.2931
20605SOL     OW68675  12.077   6.231   4.737 -0.5497  0.5173  0.3292
20605SOL    HW168676  12.135   6.159   4.710  1.3767  1.4491  1.7534
20605SOL    HW268677  12.041   6.264   4.655  1.3450  0.1916 -0.6944
20606SOL     OW68678   8.515   6.839   5.136 -0.1627  0.1361 -0.0730
20606SOL    HW168679   8.437   6.894   5.130 -1.2717 -1.4021 -0.2483
20606SOL    HW268680   8.566   6.862   5.058 -1.8907 -0.9372 -1.5822
20607SOL     OW68681   9.065   2.542   8.390  0.0639 -0.0661 -0.2016
20607SOL    HW168682   9.057   2.494   8.472  0.8609  1.6006  0.9136
20607SOL    HW268683   9.045   2.477   8.322  1.0026 -1.9359  1.2037
20608SOL     OW68684   6.172   5.995  10.920 -0.4842 -0.0794 -0.3443
20608SOL    HW168685   6.259   5.955  10.925  0.1885  1.2692 -0.8526
20608SOL    HW268686   6.182   6.079  10.964 -1.8389 -0.3708  0.5901
20609SOL     OW68687   6.046   9.138   2.694 -0.6191  0.2600  0.1715
20609SOL    HW168688   6.068   9.102   2.608 -1.5422  0.6459 -0.2375
20609SOL    HW268689   6.106   9.213   2.704 -0.2541 -0.0099  0.0364
20610SOL     OW68690   1.091   8.189   7.649  0.6649 -0.3481 -0.0855
20610SOL    HW168691   1.001   8.216   7.627  0.5773  1.0514  1.7772
20610SOL    HW268692   1.087   8.094   7.653 -0.7783 -0.3027  0.0752
20611SOL     OW68693   2.531   6.497  11.672 -0.4359  0.3872 -0.1953
20611SOL    HW168694   2.593   6.494  11.599  1.5676  1.2623  1.3854
20611SOL    HW268695   2.523   6.405  11.700 -0.0711  0.2297 -0.5969
20612SOL     OW68696  11.966   2.540   2.206 -0.0326  0.4464 -0.1768
20612SOL    HW168697  11.973   2.616   2.148 -0.2838  0.3409 -0.3440
20612SOL    HW268698  11.905   2.569   2.275  0.2449  0.5621  0.0218
20613SOL     OW68699   6.588   1.464   9.158  0.6209  0.0705 -0.3670
20613SOL    HW168700   6.517   1.522   9.129  0.6111  1.1805  1.6511
20613SOL    HW268701   6.647   1.521   9.207  0.1497 -1.6749  2.5173
20614SOL     OW68702  10.465   0.745   6.949 -0.0001 -0.4370 -0.7459
20614SOL    HW168703  10.462   0.654   6.979 -0.4986 -0.6882 -1.5092
20614SOL    HW268704  10.383   0.783   6.980  0.2743 -0.2046 -0.3021
20615SOL     OW68705  11.783   6.901   7.847  0.2309 -0.1663 -0.2952
20615SOL    HW168706  11.804   6.967   7.782  1.2697  0.1283  0.3210
20615SOL    HW268707  11.848   6.912   7.916  1.0157 -2.4075 -0.5843
20616SOL     OW68708  10.846  10.617   4.593 -0.2319 -0.5505 -0.5390
20616SOL    HW168709  10.890  10.688   4.546 -1.1951 -0.3600 -1.1981
20616SOL    HW268710  10.762  10.655   4.619 -0.1923 -1.0335  0.3075
20617SOL     OW68711   9.634   4.052   6.902  0.1490 -0.0304  0.4380
20617SOL    HW168712   9.612   3.959   6.888  0.7848 -0.3737  1.6371
20617SOL    HW268713   9.720   4.062   6.862 -0.6726  0.4974 -1.2700
20618SOL     OW68714   6.261   2.458   7.681 -0.0540  0.6284  0.2321
20618SOL    HW168715   6.282   2.506   7.762 -0.8859  0.3310  0.6373
20618SOL    HW268716   6.328   2.390   7.675  1.3449  1.9955 -0.5177
20619SOL     OW68717   9.988   3.648   9.564  0.1995  0.4771  0.2072
20619SOL    HW168718  10.046   3.642   9.640  0.3729  1.0446  0.1254
20619SOL    HW268719   9.916   3.704   9.592 -0.9501 -1.1865  0.6919
20620SOL     OW68720   7.545   2.270   9.039  0.3926 -0.5439 -0.1011
20620SOL    HW168721   7.587   2.314   8.964 -0.4488 -0.0313 -0.2955
20620SOL    HW268722   7.456   2.306   9.039  0.7884  0.5727  2.0339
20621SOL     OW68723  12.257   7.514   6.324 -0.7144  0.3388  0.5763
20621SOL    HW168724  12.234   7.593   6.275  1.8244  0.5703 -0.4357
20621SOL    HW268725  12.299   7.458   6.259 -1.5508 -1.4522  1.5071
20622SOL     OW68726   9.450   3.089   4.567 -0.1261  0.0011 -0.0633
20622SOL    HW168727   9.376   3.131   4.522 -0.7010  0.5444  1.3280
20622SOL    HW268728   9.527   3.115   4.516 -0.5693  1.9940  0.1916
20623SOL     OW68729   9.549   7.299   6.178  0.1105 -0.1927  0.1284
20623SOL    HW168730   9.459   7.313   6.207 -0.5505 -0.8367 -1.4908
20623SOL    HW268731   9.602   7.314   6.256 -1.4447 -0.4797  1.2886
20624SOL     OW68732   9.982  11.146   7.479 -0.3443 -0.2507  0.0637
20624SOL    HW168733  10.002  11.180   7.392  4.2147  2.1633  1.7319
20624SOL    HW268734   9.990  11.051   7.470  1.0334 -0.0014 -1.9673
20625SOL     OW68735  11.503   5.545   7.512  0.1302  0.7152 -0.3190
20625SOL    HW168736  11.560   5.468   7.512  0.4431  0.8500  2.1348
20625SOL    HW268737  11.479   5.556   7.604 -2.0581  2.0058 -0.9843
20626SOL     OW68738   2.204   8.726   2.291  0.1398  0.0418  0.1892
20626SOL    HW168739   2.284   8.679   2.314 -0.3225 -0.3069  1.1860
20626SOL    HW268740   2.176   8.766   2.373 -0.1096  1.0853 -0.3977
20627SOL     OW68741  12.192   1.614   5.943 -0.4823 -0.2796  0.4005
20627SOL    HW168742  12.136   1.553   5.895 -1.4940  0.9206 -0.0096
20627SOL    HW268743  12.136   1.690   5.960  0.3562  0.0274  2.0256
20628SOL     OW68744  10.660   4.602  11.668 -0.0712 -0.5396 -0.2065
20628SOL    HW168745  10.738   4.607  11.723  0.2009  0.0567 -0.6376
20628SOL    HW268746  10.689   4.558  11.589  0.3424  1.4312 -1.2055
20629SOL     OW68747  10.685   8.549  10.008  0.0807  0.5071 -0.0765
20629SOL    HW168748  10.773   8.527  10.038 -0.3474 -1.4178 -0.1061
20629SOL    HW268749  10.695   8.635   9.965  2.1480 -0.1717 -1.0987
20630SOL     OW68750   2.494   9.001   5.091  0.1454  0.1162  0.4575
20630SOL    HW168751   2.456   8.913   5.084  1.5995 -0.4986 -0.1661
20630SOL    HW268752   2.502   9.017   5.185  0.2212 -0.5844  0.5762
20631SOL     OW68753  10.864   4.813   6.595  0.5875 -0.0333 -0.1403
20631SOL    HW168754  10.918   4.792   6.518  1.1390  0.1612  0.1923
20631SOL    HW268755  10.782   4.846   6.558 -0.3700 -2.7651 -0.7120
20632SOL     OW68756   5.790  12.205   4.846  0.3418 -0.1050 -0.1778
20632SOL    HW168757   5.876  12.186   4.883  0.8443 -0.5652 -1.5243
20632SOL    HW268758   5.759  12.121   4.812  0.0728  0.3492 -1.1037
20633SOL     OW68759   4.101   8.662  11.190  0.4969 -0.2016  0.2430
20633SOL    HW168760   4.036   8.729  11.213  0.4084  0.1285 -0.9006
20633SOL    HW268761   4.155   8.704  11.123  0.4591 -1.2700 -0.4639
20634SOL     OW68762   7.519   0.146   3.170 -0.5125  0.0513 -0.2948
20634SOL    HW168763   7.585   0.172   3.106 -0.4104 -0.4698 -0.4089
20634SOL    HW268764   7.503   0.225   3.222  1.4526 -0.2134  0.8419
20635SOL     OW68765   3.011  10.930   3.896  0.0900  0.6496  0.0864
20635SOL    HW168766   3.052  10.959   3.815  2.9077 -2.2589  0.2960
20635SOL    HW268767   3.066  10.967   3.965  0.6135 -0.7892  0.4724
20636SOL     OW68768   9.209  10.261   9.152 -0.0395  0.2950 -0.1656
20636SOL    HW168769   9.137  10.313   9.118  0.4386  0.8446 -0.3479
20636SOL    HW268770   9.259  10.235   9.075 -2.0214 -3.1878 -0.4780
20637SOL     OW68771   1.968  11.725   1.470  0.3585  0.6515  0.3872
20637SOL    HW168772   1.942  11.811   1.502 -1.9148  1.1810 -2.5008
20637SOL    HW268773   1.902  11.665   1.504  0.7058  0.3931  0.6193
20638SOL     OW68774   6.578   0.103   4.576  0.0267  0.2255 -0.0795
20638SOL    HW168775   6.611   0.157   4.505 -1.3120  1.2463  0.0213
20638SOL    HW268776   6.631   0.127   4.652  1.6422 -1.0643 -0.7246
20639SOL     OW68777   3.804   2.841   6.937  0.4359  0.1925 -0.1672
20639SOL    HW168778   3.751   2.863   7.014 -0.1932 -2.8723  0.3939
20639SOL    HW268779   3.763   2.889   6.865  0.9428  3.0180  1.2886
20640SOL     OW68780   3.283   4.954   7.130  0.4462  0.4185  0.2846
20640SOL    HW168781   3.351   4.979   7.192  2.3099  0.1414 -1.5424
20640SOL    HW268782   3.288   5.021   7.061 -2.2186  1.2751  0.7895
20641SOL     OW68783   6.241   4.807   3.002  1.1073  0.1211 -0.1924
20641SOL    HW168784   6.148   4.783   3.004  0.9354  0.6888 -1.0138
20641SOL    HW268785   6.256   4.836   2.913  2.5850 -1.8556 -0.6381
20642SOL     OW68786   5.294   9.910   7.524  0.2085  0.9479  0.1956
20642SOL    HW168787   5.326   9.829   7.484  1.6804  1.4895  0.1960
20642SOL    HW268788   5.235   9.948   7.458 -2.2588 -1.1324  1.0507
20643SOL     OW68789   4.859   8.140  11.390 -0.1793 -0.1207  0.2672
20643SOL    HW168790   4.910   8.216  11.363 -0.6255  0.2937  0.5646
20643SOL    HW268791   4.768   8.170  11.389 -0.4487 -0.9224 -0.5063
20644SOL     OW68792   7.170   3.656   9.251  0.7380 -0.8616  0.2359
20644SOL    HW168793   7.191   3.703   9.332 -0.0171  1.4545 -0.8341
20644SOL    HW268794   7.077   3.671   9.238  0.8088 -1.3795 -0.9504
20645SOL     OW68795   0.577   5.888   5.584  0.0230 -0.0202  0.0497
20645SOL    HW168796   0.622   5.819   5.536  0.2303 -0.0333  0.2565
20645SOL    HW268797   0.622   5.968   5.559 -0.0853  0.0150 -0.0343
20646SOL     OW68798   6.113   8.606   0.158 -0.0574 -0.2480 -0.3542
20646SOL    HW168799   6.105   8.529   0.214  0.2413 -0.7980 -1.0456
20646SOL    HW268800   6.185   8.656   0.195 -1.1976  0.4735  0.9761
20647SOL     OW68801  11.849  10.313   6.340 -0.1603 -0.1947  0.4150
20647SOL    HW168802  11.936  10.323   6.302  0.1758 -1.9726  0.6533
20647SOL    HW268803  11.816  10.403   6.346  1.7962  0.5571  0.7197
20648SOL     OW68804   0.935   7.593  11.517 -0.0456  0.0190 -0.3059
20648SOL    HW168805   0.968   7.594  11.428 -0.3065 -1.7292 -0.4676
20648SOL    HW268806   0.842   7.569  11.508  0.3834 -2.2106  0.4783
20649SOL     OW68807   1.778   3.601   6.287  0.1613  0.2334  0.1609
20649SOL    HW168808   1.816   3.562   6.208 -1.1932 -0.7104 -0.0698
20649SOL    HW268809   1.849   3.603   6.350  1.6029  2.0757 -1.3998
20650SOL     OW68810   5.118   6.971  10.015  0.4295  0.0985 -0.1341
20650SOL    HW168811   5.180   6.913   9.970  0.0289  1.4917 -2.7043
20650SOL    HW268812   5.047   6.913  10.044  1.4284 -1.0721  0.0353
20651SOL     OW68813  11.479   3.532   8.934 -0.4961 -0.4392 -0.5287
20651SOL    HW168814  11.397   3.567   8.900 -0.3035  1.4994  0.7844
20651SOL    HW268815  11.460   3.441   8.955 -2.3951  0.0254 -0.0389
20652SOL     OW68816  10.297   1.569   5.163  0.3694 -0.0424 -0.1540
20652SOL    HW168817  10.272   1.516   5.088 -0.8271  1.0460 -0.5598
20652SOL    HW268818  10.299   1.507   5.236 -1.3117 -0.6031 -0.5435
20653SOL     OW68819   1.794   7.444   3.398 -0.4152 -0.4835  0.0846
20653SOL    HW168820   1.704   7.458   3.367 -0.6951  1.1034  1.4740
20653SOL    HW268821   1.844   7.516   3.361 -0.4430  0.5635  1.9486
20654SOL     OW68822   2.215  11.466   3.085 -0.1034  0.2101  0.7625
20654SOL    HW168823   2.138  11.480   3.029 -0.5111 -1.0445  0.9845
20654SOL    HW268824   2.222  11.547   3.136 -1.6044  0.1485  1.1167
20655SOL     OW68825   2.785  11.933  11.264 -0.2984 -0.2577  0.0296
20655SOL    HW168826   2.754  12.016  11.226  1.8282  0.3650 -0.5190
20655SOL    HW268827   2.862  11.911  11.211  0.6717 -1.2386  1.7692
20656SOL     OW68828   5.317   8.017   7.306  0.6854  0.1539  0.0205
20656SOL    HW168829   5.264   8.061   7.372  0.8666 -1.0373  1.0058
20656SOL    HW268830   5.400   8.000   7.350  2.4663  3.0440 -1.8330
20657SOL     OW68831   9.711  12.027   4.021 -0.0249 -0.6610 -0.6909
20657SOL    HW168832   9.701  12.024   3.926 -1.3104  0.9665 -0.6508
20657SOL    HW268833   9.637  11.976   4.054  0.6402 -1.5530 -0.5475
20658SOL     OW68834   2.607  11.718   1.285 -0.5350 -0.8703  0.4657
20658SOL    HW168835   2.533  11.747   1.340  0.4237  0.0528  1.3150
20658SOL    HW268836   2.608  11.623   1.295 -1.0202 -0.8074  1.2129
20659SOL     OW68837   8.083   4.537   7.466  0.0454 -0.1873 -0.6999
20659SOL    HW168838   8.092   4.566   7.375  2.0242  0.1707 -0.4279
20659SOL    HW268839   8.092   4.616   7.518 -1.1704 -0.3791 -0.1705
20660SOL     OW68840   4.727  11.806  10.936 -0.3337 -0.4965 -0.3474
20660SOL    HW168841   4.740  11.901  10.931 -0.5752 -0.3529  1.2597
20660SOL    HW268842   4.800  11.769  10.887  0.5404  0.5053  0.1511
20661SOL     OW68843   7.181   6.720   6.001  0.0126  0.0275 -0.0194
20661SOL    HW168844   7.235   6.641   6.010  2.1366  1.3655 -0.3807
20661SOL    HW268845   7.120   6.700   5.929  0.5850 -1.2257 -0.1786
20662SOL     OW68846   8.577   9.607   5.914  0.1134  0.3801  0.6314
20662SOL    HW168847   8.530   9.688   5.934 -0.7598  0.2300 -0.7029
20662SOL    HW268848   8.538   9.576   5.833  0.3333 -1.4666  1.1806
20663SOL     OW68849   1.564   5.500   2.411 -0.2149 -0.0693  0.3441
20663SOL    HW168850   1.637   5.445   2.439 -0.1529 -0.2186 -0.1013
20663SOL    HW268851   1.605   5.581   2.380 -0.1999 -0.3103 -0.2876
20664SOL     OW68852   5.091   6.018   8.466  0.0313 -0.4429  0.3646
20664SOL    HW168853   5.048   6.100   8.441  0.6199 -0.9106 -2.5046
20664SOL    HW268854   5.177   6.045   8.498 -0.3639  0.1283  0.9795
20665SOL     OW68855   0.066   9.794   3.720 -0.0101 -0.3266 -0.2184
20665SOL    HW168856   0.083   9.778   3.813  1.4846 -1.6233 -0.6683
20665SOL    HW268857   0.056   9.889   3.714 -0.9794 -0.2914  1.3694
20666SOL     OW68858   5.517   2.760   5.435  0.2268 -0.1902  0.1307
20666SOL    HW168859   5.512   2.793   5.525 -1.1954 -0.4719  0.1912
20666SOL    HW268860   5.604   2.721   5.428  1.0482  1.4607  0.7871
20667SOL     OW68861   3.839   1.067   7.139  0.4742  0.2777  0.8489
20667SOL    HW168862   3.896   1.079   7.062  1.3953  0.6858  1.5643
20667SOL    HW268863   3.869   0.986   7.179 -0.6855 -0.4783  0.2342
20668SOL     OW68864   6.391   4.271   8.009  0.6568 -0.1497 -0.4932
20668SOL    HW168865   6.411   4.180   7.987 -0.2554 -0.4979  0.1033
20668SOL    HW268866   6.355   4.307   7.928  1.7690 -0.0723 -0.9791
20669SOL     OW68867  10.567   4.304   1.955 -0.0426  0.0825  0.6523
20669SOL    HW168868  10.620   4.241   2.003  3.0729  1.6872 -0.3745
20669SOL    HW268869  10.624   4.380   1.943 -2.0739  1.4040 -1.8957
20670SOL     OW68870   4.184   9.272  12.405  0.2800 -0.0214  0.1243
20670SOL    HW168871   4.274   9.252  12.380  0.2295  0.0622 -0.1242
20670SOL    HW268872   4.151   9.192  12.445  0.5896  0.0656  0.5681
20671SOL     OW68873   3.837   9.162   2.925  0.5237 -0.6818 -0.3229
20671SOL    HW168874   3.743   9.172   2.909  0.4664  0.5907  0.5985
20671SOL    HW268875   3.843   9.136   3.017  1.0982  1.0000  0.1618
20672SOL     OW68876   7.951   2.086   3.940  0.8366  0.5788 -0.8416
20672SOL    HW168877   7.875   2.143   3.948  0.8521  0.3635  1.4116
20672SOL    HW268878   7.915   1.997   3.948  1.1932  0.4348 -0.7970
20673SOL     OW68879  12.328  10.554   7.769  0.0753 -0.2697  0.3076
20673SOL    HW168880  12.393  10.528   7.704  1.4000  0.9453  1.0841
20673SOL    HW268881  12.276  10.475   7.784  0.4763 -0.8835 -1.3558
20674SOL     OW68882   9.232   6.814  10.091  0.7818 -0.0266 -0.0446
20674SOL    HW168883   9.137   6.824  10.096  0.8043 -0.4290  2.3682
20674SOL    HW268884   9.249   6.726  10.125  1.9635 -0.4666 -1.6476
20675SOL     OW68885   3.687   9.462   4.642  0.4004 -0.1984 -0.1550
20675SOL    HW168886   3.613   9.404   4.624  0.4716 -0.0586 -0.9407
20675SOL    HW268887   3.693   9.465   4.737 -1.6043  1.0127 -0.0026
20676SOL     OW68888  11.068   0.774  11.866 -0.0130  0.1688 -0.1307
20676SOL    HW168889  11.159   0.748  11.879  0.2880  0.6354 -1.2226
20676SOL    HW268890  11.073   0.866  11.840 -0.8217  0.2755  0.0513
20677SOL     OW68891   3.287   6.069   3.454  0.0368 -0.4064 -0.0279
20677SOL    HW168892   3.315   5.978   3.446 -0.5250 -0.6027  0.2054
20677SOL    HW268893   3.368   6.120   3.446  0.4492 -0.9600  0.5755
20678SOL     OW68894  10.461   7.382  11.293  0.2238  0.0669  0.0124
20678SOL    HW168895  10.534   7.420  11.341 -0.4580  0.6583  0.5908
20678SOL    HW268896  10.463   7.289  11.317  0.7707  0.0816  0.0355
20679SOL     OW68897   7.245   5.643   9.350  0.2725  0.7819  0.4842
20679SOL    HW168898   7.259   5.689   9.433 -0.9011 -0.7022  1.5662
20679SOL    HW268899   7.258   5.550   9.371 -0.5758  0.3256 -0.8668
20680SOL     OW68900   1.334   4.151   4.252 -0.5754 -0.0601 -0.4304
20680SOL    HW168901   1.427   4.175   4.242 -0.4683 -0.7220 -1.1672
20680SOL    HW268902   1.286   4.221   4.208 -0.3484 -0.3871 -1.2132
20681SOL     OW68903   2.817   1.333  10.033  0.3814  0.0840  0.1759
20681SOL    HW168904   2.895   1.336   9.977  0.6899 -1.3372  0.4913
20681SOL    HW268905   2.802   1.240  10.048 -0.2279  0.4065  1.7323
20682SOL     OW68906   6.221   8.039   8.551 -0.4183 -0.2477 -0.0351
20682SOL    HW168907   6.143   8.042   8.496  1.6352  0.9258 -3.1801
20682SOL    HW268908   6.255   7.950   8.541  0.4532  0.2204 -1.5678
20683SOL     OW68909   2.961  11.261   6.712  0.0063 -0.0515  0.3036
20683SOL    HW168910   3.026  11.317   6.670  0.3101 -1.3162 -0.9903
20683SOL    HW268911   3.004  11.176   6.722 -1.3888 -0.8841 -0.4710
20684SOL     OW68912   7.543   5.769   2.812 -0.0132 -0.1569  0.1671
20684SOL    HW168913   7.455   5.742   2.784  0.3157  0.1852 -1.2521
20684SOL    HW268914   7.602   5.706   2.770  0.6298  1.5427 -1.6272
20685SOL     OW68915   0.599   9.508   4.065 -0.4081 -0.5128 -0.2443
20685SOL    HW168916   0.527   9.534   4.123  0.4977 -0.1373  0.7580
20685SOL    HW268917   0.656   9.455   4.121  2.2464  2.5933  0.3074
20686SOL     OW68918  10.894   4.759  10.113 -0.0239 -0.2665 -0.0021
20686SOL    HW168919  10.985   4.773  10.140 -0.3731 -1.6852  2.1297
20686SOL    HW268920  10.899   4.748  10.018  2.0599 -0.5425  0.0889
20687SOL     OW68921  12.288  11.569   8.456  0.1993 -0.1018  0.0904
20687SOL    HW168922  12.286  11.480   8.490  0.6695  0.1386  0.7723
20687SOL    HW268923  12.316  11.622   8.530  0.6902  0.5131 -0.5202
20688SOL     OW68924  11.897  11.514   3.144 -0.3304 -0.3802 -0.0819
20688SOL    HW168925  11.945  11.595   3.124 -2.2938  0.9413  0.1929
20688SOL    HW268926  11.826  11.512   3.079 -1.3248 -0.9316  0.9854
20689SOL     OW68927   2.921  11.134   0.673  0.6228 -0.4479  0.3839
20689SOL    HW168928   3.005  11.104   0.706 -0.4173 -2.8749  1.0101
20689SOL    HW268929   2.899  11.073   0.602 -0.7598 -0.0767  0.4506
20690SOL     OW68930   7.493   7.780   0.246 -0.4116  0.1283 -0.5669
20690SOL    HW168931   7.506   7.685   0.238  0.4167  0.2711 -1.0289
20690SOL    HW268932   7.496   7.812   0.155  0.0825  0.6935 -0.3552
20691SOL     OW68933   1.220   0.571   9.901 -0.1657 -0.2050  0.0613
20691SOL    HW168934   1.230   0.533   9.814 -0.9681 -1.2776  0.4251
20691SOL    HW268935   1.307   0.605   9.922  0.4388 -1.3388 -0.5143
20692SOL     OW68936   5.722   5.577  10.734  0.5071 -0.0497 -0.1207
20692SOL    HW168937   5.682   5.498  10.771  0.9729  1.0339  3.0081
20692SOL    HW268938   5.651   5.642  10.736  0.4505 -0.0151 -1.6104
20693SOL     OW68939  10.667   8.928   1.526  0.1536  0.9722 -0.2239
20693SOL    HW168940  10.598   8.907   1.463 -0.1344 -0.2276  0.4531
20693SOL    HW268941  10.687   8.845   1.569  1.4748  1.4523  0.1525
20694SOL     OW68942   0.740   1.498   3.439  0.1256  0.0245 -0.3099
20694SOL    HW168943   0.765   1.566   3.377  0.2304  1.7324  1.5075
20694SOL    HW268944   0.646   1.510   3.452 -0.0909 -0.9690 -0.8491
20695SOL     OW68945   5.016   3.783  12.288  0.3078 -0.2374  0.2766
20695SOL    HW168946   5.012   3.878  12.277  1.9067  0.0270  1.6646
20695SOL    HW268947   5.100   3.767  12.330 -0.2636 -2.2075  0.7627
20696SOL     OW68948   4.342   8.212  12.040 -0.1292 -0.2230  0.2626
20696SOL    HW168949   4.256   8.213  12.082 -0.1524 -1.3312  0.2579
20696SOL    HW268950   4.402   8.240  12.109 -0.0960 -2.5475  1.2545
20697SOL     OW68951   2.798   4.123   5.447  0.3338 -0.2223 -0.3707
20697SOL    HW168952   2.887   4.112   5.481  0.6088 -1.4785 -1.4318
20697SOL    HW268953   2.773   4.036   5.418 -1.1645  0.1713 -0.3068
20698SOL     OW68954   0.826   9.405   8.459  0.0450  0.2511  0.1859
20698SOL    HW168955   0.867   9.451   8.385  0.9670 -2.1332 -0.9040
20698SOL    HW268956   0.783   9.330   8.419 -0.1239 -0.6665  1.9971
20699SOL     OW68957   4.640   1.161   6.193  0.6052 -0.2078 -0.5521
20699SOL    HW168958   4.617   1.079   6.149  0.6028 -1.5810  1.8161
20699SOL    HW268959   4.736   1.156   6.202  0.4375 -0.9084  1.2307
20700SOL     OW68960   6.338  11.981   1.383  0.0161  0.6241  0.4538
20700SOL    HW168961   6.382  11.896   1.374 -0.0926  0.6311 -0.1479
20700SOL    HW268962   6.317  11.987   1.476  2.8229  1.3678  1.1440
20701SOL     OW68963   3.973   9.087   5.847 -0.1884 -0.1942 -0.2548
20701SOL    HW168964   3.945   9.029   5.776  1.2203 -0.8359 -0.3330
20701SOL    HW268965   4.019   9.030   5.908 -1.5144  0.3334  1.2801
20702SOL     OW68966   4.021   7.409   6.408 -0.0402  0.2561  0.1841
20702SOL    HW168967   3.989   7.401   6.318 -0.9473 -0.9245  0.5845
20702SOL    HW268968   3.987   7.331   6.452 -0.5258  1.3498  1.8182
20703SOL     OW68969   9.483   8.783   6.378 -0.0020  0.1369 -0.1172
20703SOL    HW168970   9.500   8.689   6.383  0.1091  0.1119 -0.8574
20703SOL    HW268971   9.568   8.824   6.390 -0.2320  0.2119  1.5768
20704SOL     OW68972  11.297  10.810   9.227 -0.4505  0.1719  0.2822
20704SOL    HW168973  11.386  10.782   9.209 -0.3322  1.4990 -1.5284
20704SOL    HW268974  11.302  10.854   9.312  0.3466 -0.8144  0.7594
20705SOL     OW68975   8.296   9.407   4.471  0.2541 -0.0748 -0.4945
20705SOL    HW168976   8.377   9.373   4.509 -0.5021 -0.4661  0.8550
20705SOL    HW268977   8.232   9.336   4.485 -0.3423  0.2616 -1.4450
20706SOL     OW68978   9.690   0.727   3.842 -0.2641  0.0041 -0.3794
20706SOL    HW168979   9.719   0.818   3.842  4.4842 -1.2157 -2.4301
20706SOL    HW268980   9.753   0.681   3.898 -1.9967 -2.2344 -0.0881
20707SOL     OW68981   3.167  10.855   3.306 -0.1687 -0.4038 -0.7084
20707SOL    HW168982   3.101  10.839   3.373 -1.9584  1.4423 -1.9093
20707SOL    HW268983   3.129  10.820   3.225  0.9377 -0.5404 -1.1927
20708SOL     OW68984  11.953   6.739   8.375 -0.2927 -0.0482 -0.2613
20708SOL    HW168985  12.034   6.775   8.410  0.3258 -1.7545  0.1353
20708SOL    HW268986  11.889   6.810   8.386  0.3783  0.2691  2.3137
20709SOL     OW68987  10.795   7.183   9.035 -0.5851 -0.2401 -0.3711
20709SOL    HW168988  10.712   7.232   9.027  0.8455  3.2756  3.1633
20709SOL    HW268989  10.770   7.102   9.079 -2.2844  0.1819 -0.4562
20710SOL     OW68990  11.066   4.128  11.962  0.1571 -0.0884 -0.2473
20710SOL    HW168991  11.156   4.127  11.996 -0.0860  1.1780  0.4926
20710SOL    HW268992  11.064   4.201  11.900  0.1522 -1.3645 -1.8232
20711SOL     OW68993  10.995   5.429   7.333  0.0132  0.0981  0.2125
20711SOL    HW168994  10.969   5.371   7.405 -0.2262 -1.4054 -1.0197
20711SOL    HW268995  11.059   5.377   7.283  0.0713  1.0474 -0.7278
20712SOL     OW68996  12.169   7.829  12.215  0.4223  0.2683 -0.8241
20712SOL    HW168997  12.081   7.867  12.223 -0.7376 -2.5059  1.0048
20712SOL    HW268998  12.204   7.868  12.135 -2.7927  0.9155 -2.0971
20713SOL     OW68999  10.532   8.621  11.523 -0.1554  0.0885  0.5980
20713SOL    HW169000  10.450   8.571  11.525  0.2144 -0.5797 -0.1567
20713SOL    HW269001  10.571   8.606  11.609 -0.8110  0.4097  0.9637
20714SOL     OW69002  11.214  10.300   9.412 -0.2530 -0.3423 -0.6689
20714SOL    HW169003  11.245  10.224   9.363  2.2193 -0.3108  0.6486
20714SOL    HW269004  11.294  10.349   9.432 -1.4940  1.2303  0.7628
20715SOL     OW69005   6.628   2.977   6.724 -0.4629 -0.9427 -0.2086
20715SOL    HW169006   6.582   3.014   6.649  0.3043 -0.2696 -0.3627
20715SOL    HW269007   6.595   3.026   6.800  2.4546  2.1037 -0.6675
20716SOL     OW69008   3.935   9.765   6.722  0.1343 -0.4980 -0.7895
20716SOL    HW169009   3.963   9.762   6.813 -1.0970 -0.7202 -0.3979
20716SOL    HW269010   3.915   9.674   6.700 -1.1024 -0.2494 -0.7616
20717SOL     OW69011   8.072   1.625  11.479 -0.5094  0.7239  0.1059
20717SOL    HW169012   8.053   1.556  11.543  1.8419  0.9827  1.1600
20717SOL    HW269013   8.139   1.587  11.422 -0.1334  1.6925 -0.1109
20718SOL     OW69014   5.544   4.387  11.069  0.0239  0.3465  0.3813
20718SOL    HW169015   5.569   4.474  11.102  1.1023 -0.3131  1.4068
20718SOL    HW269016   5.600   4.327  11.118  0.5450 -0.8263 -1.5571
20719SOL     OW69017   2.374   1.870   2.300 -0.1968  0.1856  0.2510
20719SOL    HW169018   2.432   1.883   2.225 -0.7565  1.2344 -0.0219
20719SOL    HW269019   2.426   1.900   2.375  0.0550 -0.0523  0.1745
20720SOL     OW69020   5.034   2.419   8.898  0.9654 -0.0769  0.2078
20720SOL    HW169021   5.050   2.402   8.991  0.9236  0.5116  0.3242
20720SOL    HW269022   4.959   2.364   8.876  0.4656  0.3919  0.7205
20721SOL     OW69023   7.383   0.001   3.638 -0.0075  0.2819  0.2769
20721SOL    HW169024   7.316  -0.049   3.684  0.5585 -0.6134  0.1477
20721SOL    HW269025   7.367  -0.015   3.545 -0.9173  1.7845  0.1358
20722SOL     OW69026   4.935   5.804  11.820  0.4858 -0.5698 -0.4587
20722SOL    HW169027   4.879   5.858  11.764  0.3873 -0.9653 -0.7554
20722SOL    HW269028   4.875   5.769  11.887  0.6345  0.0290 -0.0076
20723SOL     OW69029   3.044   0.906   1.670 -0.3711 -0.2127 -0.1719
20723SOL    HW169030   3.009   0.869   1.751  0.3583 -0.1802  0.1719
20723SOL    HW269031   3.125   0.857   1.655 -0.7795 -0.5944 -1.1876
20724SOL     OW69032  11.735   3.821  10.754  0.8762  0.4014 -0.1430
20724SOL    HW169033  11.718   3.727  10.752 -2.2646  0.8623 -0.5134
20724SOL    HW269034  11.724   3.845  10.846 -1.0961  0.7262 -0.4073
20725SOL     OW69035   9.052   9.481   4.358  0.0685 -0.4041  0.3539
20725SOL    HW169036   9.003   9.563   4.360  1.9153  0.8801 -1.8254
20725SOL    HW269037   9.001   9.424   4.301 -0.6159 -0.3752  0.9172
20726SOL     OW69038   2.549   8.390   1.396 -0.2145 -0.0082 -0.0109
20726SOL    HW169039   2.492   8.315   1.378 -0.3204  0.2822 -0.9615
20726SOL    HW269040   2.513   8.429   1.476 -1.4529  0.2530 -0.6658
20727SOL     OW69041   0.762   7.740   2.200 -0.0306 -0.2641 -0.2425
20727SOL    HW169042   0.820   7.775   2.132  0.0548  0.2551  0.0888
20727SOL    HW269043   0.744   7.815   2.257 -0.4732 -0.5846  0.0483
20728SOL     OW69044  10.989   2.002   9.766 -0.1806 -0.4956 -0.7314
20728SOL    HW169045  11.038   2.029   9.689  0.5101 -0.6979 -0.3639
20728SOL    HW269046  11.008   2.069   9.831 -0.5696 -0.4563 -0.6560
20729SOL     OW69047  12.101   7.147  11.287  0.2166  0.2294  0.2602
20729SOL    HW169048  12.105   7.228  11.236 -1.1810 -0.2174 -0.6050
20729SOL    HW269049  12.061   7.083  11.229  0.1997 -0.7808  1.3315
20730SOL     OW69050   3.259   7.642  10.268 -0.2431  0.3886  0.3714
20730SOL    HW169051   3.348   7.637  10.304 -1.1096  0.9557  2.8132
20730SOL    HW269052   3.221   7.556  10.286 -1.2482  1.2026  2.6652
20731SOL     OW69053   7.157   3.216  11.028  0.0892 -0.3000 -0.1786
20731SOL    HW169054   7.069   3.180  11.040  0.1061 -0.2411  0.1245
20731SOL    HW269055   7.159   3.294  11.083 -0.7174  1.5036 -2.4934
20732SOL     OW69056  11.506   9.132  10.649 -0.2393 -0.3056  0.5249
20732SOL    HW169057  11.446   9.079  10.597 -0.2196 -0.4855  0.6871
20732SOL    HW269058  11.459   9.148  10.731 -0.7136  0.8644  0.0624
20733SOL     OW69059   0.642  12.270   1.490 -0.0316  0.6132 -0.3914
20733SOL    HW169060   0.721  12.274   1.544 -0.6475  0.5519  0.5321
20733SOL    HW269061   0.600  12.355   1.503 -0.0855  0.6809 -0.9515
20734SOL     OW69062   5.142  12.039  12.368 -0.5906 -0.6725  0.0048
20734SOL    HW169063   5.081  12.081  12.428 -1.5835 -0.3067 -1.2121
20734SOL    HW269064   5.091  11.971  12.325  0.5054 -1.9092  0.6025
20735SOL     OW69065  10.509   5.345   3.754  0.6096  0.1262  0.6934
20735SOL    HW169066  10.598   5.379   3.761  0.3806  0.6672  1.0676
20735SOL    HW269067  10.482   5.366   3.664  1.2974 -1.1780  0.1468
20736SOL     OW69068  12.244   4.127   7.937 -0.0230  0.1241  0.2551
20736SOL    HW169069  12.320   4.092   7.891  1.6309  0.0036  2.8898
20736SOL    HW269070  12.245   4.221   7.917  0.6361  0.0742  0.0544
20737SOL     OW69071   4.544   0.248   0.090 -0.4846  0.2924 -0.2809
20737SOL    HW169072   4.629   0.258   0.046 -0.5830 -0.3499 -0.6327
20737SOL    HW269073   4.566   0.242   0.183 -0.0687 -0.6626 -0.4323
20738SOL     OW69074   4.802   7.057  10.491  0.0836  0.0650 -0.2309
20738SOL    HW169075   4.855   7.003  10.549 -0.6516  0.4275  0.8068
20738SOL    HW269076   4.819   7.022  10.403 -0.2082 -1.7128  0.3835
20739SOL     OW69077   7.578   8.108   5.834  0.6140 -0.2969  0.5998
20739SOL    HW169078   7.598   8.176   5.770  0.1478 -0.0938  0.6682
20739SOL    HW269079   7.506   8.144   5.886 -0.5982 -1.3974 -0.2483
20740SOL     OW69080   7.763   6.268   8.184 -0.0454 -0.7793  0.8803
20740SOL    HW169081   7.839   6.230   8.139  0.7160 -0.8160  2.1495
20740SOL    HW269082   7.788   6.270   8.276 -0.8988  0.8381  1.1221
20741SOL     OW69083  10.628   1.928   6.031 -0.1268 -0.0135 -0.3164
20741SOL    HW169084  10.673   2.004   6.068  0.0262 -0.8161  1.2486
20741SOL    HW269085  10.541   1.930   6.070 -0.3870 -0.2103 -0.8746
20742SOL     OW69086   7.623   2.100   3.661 -0.4431 -0.0768  0.0787
20742SOL    HW169087   7.642   2.074   3.571 -0.9629  0.7864 -0.2953
20742SOL    HW269088   7.601   2.019   3.706  1.2141 -0.7250 -0.1958
20743SOL     OW69089   2.912  11.939   9.301  0.4777  0.0016 -0.1992
20743SOL    HW169090   2.936  11.916   9.211  2.0963  1.0189 -0.0611
20743SOL    HW269091   2.964  12.016   9.321  0.7574 -0.6561  1.8869
20744SOL     OW69092  11.097   5.291   8.569  0.0498  0.0886 -0.4863
20744SOL    HW169093  11.076   5.359   8.633 -1.6471 -0.5720 -0.2797
20744SOL    HW269094  11.037   5.219   8.589 -0.0260 -0.4359 -2.3381
20745SOL     OW69095  10.261   4.934   5.970 -0.2042  0.1765 -0.3591
20745SOL    HW169096  10.316   5.009   5.946  1.8812 -1.1913 -0.1192
20745SOL    HW269097  10.323   4.863   5.983 -2.1124 -1.5654 -0.3962
20746SOL     OW69098   7.071   2.632   1.049  0.2516  0.3398 -0.4171
20746SOL    HW169099   7.020   2.709   1.074  0.9508 -0.3802  3.9405
20746SOL    HW269100   7.161   2.653   1.074  0.5336 -1.6861  0.4614
20747SOL     OW69101  11.114   5.878   2.181  0.1704  0.4419  0.0736
20747SOL    HW169102  11.055   5.811   2.216 -2.0872  1.7271 -1.0713
20747SOL    HW269103  11.070   5.961   2.199  0.5132  1.3308 -2.7134
20748SOL     OW69104   3.548   1.174   9.842 -0.0165 -0.0587  0.0675
20748SOL    HW169105   3.544   1.089   9.886 -2.7866 -0.4583 -0.7556
20748SOL    HW269106   3.496   1.232   9.897 -1.0844  0.1662 -1.1283
20749SOL     OW69107   6.780   4.297   8.676 -0.2142 -0.8055 -0.4910
20749SOL    HW169108   6.740   4.210   8.671 -0.2384 -1.0091  1.8533
20749SOL    HW269109   6.870   4.284   8.646 -0.4148 -1.4967 -0.8069
20750SOL     OW69110   7.587   9.218   2.921  0.0255  0.2792 -0.1411
20750SOL    HW169111   7.613   9.242   2.832 -0.3000 -0.4221 -0.4329
20750SOL    HW269112   7.492   9.233   2.923  0.0815  0.6043  0.1897
20751SOL     OW69113  12.203   9.171   2.129 -0.1657  0.6753 -0.4227
20751SOL    HW169114  12.249   9.087   2.133  0.5788  1.0680 -0.4005
20751SOL    HW269115  12.170   9.185   2.217  0.4290  0.7890 -0.2133
20752SOL     OW69116   6.683  11.451   7.285 -0.2755 -0.0707  0.1447
20752SOL    HW169117   6.611  11.441   7.347  0.5754 -1.9865  0.9101
20752SOL    HW269118   6.725  11.365   7.283  4.3127  1.7837  2.6124
20753SOL     OW69119   7.336  11.421   3.191 -0.3295 -0.4568  0.1346
20753SOL    HW169120   7.263  11.433   3.130 -0.7126  0.3199  0.7170
20753SOL    HW269121   7.376  11.508   3.197  0.3282 -0.7636  0.2087
20754SOL     OW69122  11.002   5.698   1.791 -0.3048 -0.8423 -0.3869
20754SOL    HW169123  11.039   5.710   1.703  0.1480  2.5361  0.1283
20754SOL    HW269124  11.033   5.774   1.840 -2.0571 -1.6765  2.1919
20755SOL     OW69125   9.527  10.943   4.458  0.1791 -0.1266  0.4681
20755SOL    HW169126   9.502  11.009   4.393 -1.6801  1.0494  2.2300
20755SOL    HW269127   9.612  10.911   4.429 -1.8114 -1.9715 -4.2549
20756SOL     OW69128   3.084   6.268   9.559 -0.3710 -0.2785 -0.0293
20756SOL    HW169129   3.028   6.238   9.488  1.4721 -1.7290 -0.9385
20756SOL    HW269130   3.166   6.292   9.517  1.2182 -2.3851  1.6600
20757SOL     OW69131   7.879   7.435   7.087  0.3290 -0.3939  0.0730
20757SOL    HW169132   7.896   7.475   7.002  1.3139 -0.1806  0.3593
20757SOL    HW269133   7.928   7.352   7.086  0.0139 -0.5880  0.2793
20758SOL     OW69134   7.787   3.427   6.229 -0.1023 -0.0476 -0.5748
20758SOL    HW169135   7.783   3.424   6.325  3.3300  0.3085 -0.3072
20758SOL    HW269136   7.754   3.341   6.201 -0.6353 -0.3639  0.9330
20759SOL     OW69137  10.384   3.556  11.273 -0.2763  0.5139 -0.0452
20759SOL    HW169138  10.443   3.619  11.315  0.1032  0.7820 -0.9601
20759SOL    HW269139  10.369   3.489  11.339  1.5980  0.0825 -0.0092
20760SOL     OW69140   3.145   8.295   0.576  0.1099 -0.1896 -0.3062
20760SOL    HW169141   3.224   8.253   0.611 -0.1449 -0.4493 -0.0392
20760SOL    HW269142   3.096   8.322   0.653  0.9568  1.9412 -0.4565
20761SOL     OW69143   2.264   2.981  10.658  0.6231 -0.2378 -0.2383
20761SOL    HW169144   2.299   2.950  10.575  0.3295  1.1182 -0.8998
20761SOL    HW269145   2.321   3.053  10.683  0.3739 -0.2696  0.4545
20762SOL     OW69146   9.615   0.480  11.287  0.7343  0.2450  0.4435
20762SOL    HW169147   9.700   0.522  11.299  0.3448  0.8556  1.2283
20762SOL    HW269148   9.626   0.392  11.323  1.9527 -0.8753 -2.4601
20763SOL     OW69149   0.547  11.847   1.942 -0.8170  0.3495 -0.1489
20763SOL    HW169150   0.477  11.882   1.997  0.9884  0.9758  1.8701
20763SOL    HW269151   0.544  11.901   1.862 -1.7789  1.2302  0.4597
20764SOL     OW69152   9.462   9.237   9.894 -0.3856 -0.0042  0.1748
20764SOL    HW169153   9.508   9.199   9.819  0.8025  1.5883  0.0367
20764SOL    HW269154   9.434   9.162   9.946  3.0415 -1.1363  0.6347
20765SOL     OW69155   0.625  10.957   8.412  0.2016 -0.0417 -0.7529
20765SOL    HW169156   0.690  10.894   8.445  3.3296  1.3958 -3.5845
20765SOL    HW269157   0.569  10.905   8.355  0.4573 -0.8549 -0.2824
20766SOL     OW69158   9.380  11.527   9.120  0.2420 -0.6603 -0.1853
20766SOL    HW169159   9.390  11.541   9.026 -2.0539  3.8188 -0.0469
20766SOL    HW269160   9.453  11.576   9.159 -1.5789  1.8808  0.2731
20767SOL     OW69161   4.964  12.357   9.069  0.0546  0.0508  0.3114
20767SOL    HW169162   4.924  12.295   9.008 -1.2486  0.8813  0.2712
20767SOL    HW269163   4.980  12.306   9.148 -0.7944 -0.3970  0.2026
20768SOL     OW69164   1.609   6.729   1.421 -0.3832  0.0566 -0.0258
20768SOL    HW169165   1.660   6.650   1.403  0.6546  0.6889  0.0882
20768SOL    HW269166   1.599   6.730   1.516 -1.8624 -0.8126 -0.1375
20769SOL     OW69167   9.519  11.562   4.046 -0.2905  0.4414  0.5719
20769SOL    HW169168   9.528  11.468   4.059 -0.6662  0.3291  0.0526
20769SOL    HW269169   9.574  11.581   3.970 -0.6510  0.5471  0.3368
20770SOL     OW69170   6.962   3.435   7.153 -0.0743  0.3941 -0.8759
20770SOL    HW169171   7.041   3.435   7.099  1.6784 -0.1477  1.5248
20770SOL    HW269172   6.964   3.519   7.199 -1.1125  0.5245 -1.0382
20771SOL     OW69173   1.262   1.968  11.020  0.4603  0.4505  0.7143
20771SOL    HW169174   1.181   1.934  10.983  0.7536  1.1739 -0.6514
20771SOL    HW269175   1.300   1.893  11.067 -0.2084 -0.3527  0.0197
20772SOL     OW69176   5.941   4.199   4.725  0.0304 -0.2386  0.6137
20772SOL    HW169177   5.922   4.106   4.717  1.1248 -0.4580  0.3970
20772SOL    HW269178   5.944   4.215   4.820  0.7705 -0.6429  0.6697
20773SOL     OW69179  12.223  10.600   2.203 -0.3950 -0.2520 -0.0873
20773SOL    HW169180  12.214  10.596   2.298 -0.8692  0.0100 -0.1218
20773SOL    HW269181  12.310  10.564   2.186 -0.3507 -0.3966  0.4373
20774SOL     OW69182   7.474   3.296   4.550 -0.1346  0.0134  0.2563
20774SOL    HW169183   7.379   3.305   4.552 -0.0769  2.5748 -2.0763
20774SOL    HW269184   7.506   3.376   4.593  0.9957 -0.6187  0.6436
20775SOL     OW69185  10.656   5.654   2.697  0.3740 -0.7727  0.4492
20775SOL    HW169186  10.614   5.607   2.625  2.1269 -0.8602 -0.5854
20775SOL    HW269187  10.740   5.682   2.661  0.9522 -0.0916  2.2228
20776SOL     OW69188   3.788  10.982  10.118  0.1783  0.1775 -0.2533
20776SOL    HW169189   3.876  10.968  10.154  1.2103  0.5133 -2.4292
20776SOL    HW269190   3.802  11.046  10.048 -1.7040 -0.2349 -1.0510
20777SOL     OW69191   6.646  11.490  11.808 -0.4436 -0.2911 -0.9306
20777SOL    HW169192   6.718  11.553  11.813 -0.0530 -0.7380 -0.8338
20777SOL    HW269193   6.673  11.429  11.740 -0.3680 -0.9065 -0.3603
20778SOL     OW69194  10.315   3.929   7.040 -0.6107  0.0656 -0.9086
20778SOL    HW169195  10.259   4.005   7.050 -0.1946  0.3570 -0.7523
20778SOL    HW269196  10.273   3.877   6.971 -1.1252  0.2188 -0.7133
20779SOL     OW69197  11.143   8.935   9.627 -0.3789 -0.1124 -0.0602
20779SOL    HW169198  11.189   8.851   9.631 -0.1388 -0.0053 -0.4659
20779SOL    HW269199  11.194   8.993   9.683  1.9892  0.9323 -2.9956
20780SOL     OW69200   9.634   4.659   3.954 -0.5514  0.0675 -0.2069
20780SOL    HW169201   9.602   4.727   3.895  0.0506  1.9253  1.5013
20780SOL    HW269202   9.614   4.692   4.042 -0.6858 -2.2234  0.6805
20781SOL     OW69203   2.019   9.569   8.506 -0.0210  0.1923  0.3476
20781SOL    HW169204   1.941   9.620   8.526  1.0223  1.7573  0.6335
20781SOL    HW269205   2.046   9.598   8.419 -1.1961 -2.2826 -0.9492
20782SOL     OW69206   7.803   1.887   9.289 -0.6084 -0.2993 -0.3363
20782SOL    HW169207   7.761   1.945   9.226 -2.1092 -1.3936 -0.3849
20782SOL    HW269208   7.777   1.921   9.374 -2.0058 -1.2201 -0.3682
20783SOL     OW69209   6.862   3.683   9.531  0.1302  0.0295  0.0502
20783SOL    HW169210   6.903   3.728   9.605  2.5503 -1.0964 -0.5030
20783SOL    HW269211   6.877   3.590   9.549 -1.0238 -0.3539 -0.8878
20784SOL     OW69212  11.141   4.105   6.036  0.4647 -0.4698  0.1795
20784SOL    HW169213  11.178   4.057   6.110  0.4138 -0.0660  0.4683
20784SOL    HW269214  11.050   4.120   6.060  1.0925  2.1318  1.3450
20785SOL     OW69215  10.970  11.571  11.052 -0.1461  0.4676  0.3010
20785SOL    HW169216  10.934  11.561  11.141  1.5184 -1.4768  0.8386
20785SOL    HW269217  11.063  11.587  11.066  0.3908 -1.1608 -1.0755
20786SOL     OW69218   5.129   9.006  11.886  0.0707 -0.5159  0.0584
20786SOL    HW169219   5.044   8.999  11.928 -0.3291 -1.1922 -0.8141
20786SOL    HW269220   5.114   8.972  11.797  0.5639  1.9886 -1.0807
20787SOL     OW69221  10.160   4.215   6.832  0.5980 -0.1496  0.0860
20787SOL    HW169222  10.255   4.215   6.820  0.8698 -2.6412  1.5750
20787SOL    HW269223  10.147   4.211   6.927 -0.8499 -2.5888 -0.1135
20788SOL     OW69224   9.904   0.974  11.185 -0.0006  0.1663 -0.4932
20788SOL    HW169225   9.947   0.997  11.267  1.0549 -0.9104 -0.7305
20788SOL    HW269226   9.956   1.018  11.117  0.4000 -0.6770 -0.7387
20789SOL     OW69227   1.347   3.600  11.082  0.0737 -0.6687  0.1117
20789SOL    HW169228   1.389   3.655  11.015  1.1756 -1.3139  0.2510
20789SOL    HW269229   1.409   3.529  11.097 -1.2249 -1.8210  0.1315
20790SOL     OW69230  10.453   2.961  10.125 -0.0278 -0.0794  0.3926
20790SOL    HW169231  10.363   2.982  10.098  0.5916  0.1516 -1.6340
20790SOL    HW269232  10.506   3.031  10.088  1.1229 -0.8421  0.5614
20791SOL     OW69233   5.019   3.447   6.978  0.0061 -0.0450 -0.0164
20791SOL    HW169234   5.085   3.463   6.910  0.4092 -1.7543 -0.0836
20791SOL    HW269235   4.940   3.423   6.930  0.1165 -0.6457  0.0886
20792SOL     OW69236   1.219   7.632  10.050 -0.0701  0.1443  1.0331
20792SOL    HW169237   1.164   7.598   9.980 -0.3141  1.2533  0.6682
20792SOL    HW269238   1.266   7.555  10.083  0.3554 -0.3278 -0.6133
20793SOL     OW69239   8.837   6.032   3.004 -0.1711  0.4990 -0.2927
20793SOL    HW169240   8.792   5.948   3.000  0.4459  0.1283  0.2872
20793SOL    HW269241   8.858   6.044   3.096 -0.2921  1.3192 -0.3618
20794SOL     OW69242   4.829   5.143   8.611 -0.2848  0.5647 -0.4960
20794SOL    HW169243   4.872   5.223   8.641  0.1203  0.6942 -1.3874
20794SOL    HW269244   4.773   5.171   8.539 -1.8252  0.3748  0.5731
20795SOL     OW69245  10.647   8.171   9.733 -0.4024  0.1188  0.2874
20795SOL    HW169246  10.721   8.180   9.673 -0.8391 -0.6396 -0.3847
20795SOL    HW269247  10.626   8.261   9.759 -1.9956  0.7921 -2.9165
20796SOL     OW69248   6.977  10.709  10.245 -0.7982 -0.9322  0.2252
20796SOL    HW169249   6.947  10.800  10.253 -1.3028 -1.2544  2.6559
20796SOL    HW269250   6.926  10.661  10.310 -0.6069 -3.0236 -1.0600
20797SOL     OW69251  10.100  12.063   4.953 -0.2629  0.3829 -0.1388
20797SOL    HW169252  10.170  12.023   4.901 -0.0518  0.3538  0.1678
20797SOL    HW269253  10.029  11.998   4.952 -0.5584  0.6996 -1.0294
20798SOL     OW69254   3.264   9.140   0.171 -0.0183 -0.0056 -0.6347
20798SOL    HW169255   3.347   9.138   0.123  1.3997 -0.6363  1.7044
20798SOL    HW269256   3.234   9.049   0.171  0.0716 -0.0363 -0.1829
20799SOL     OW69257   5.768   6.788   6.507 -0.3942  0.0191  0.1386
20799SOL    HW169258   5.847   6.835   6.533  0.5261 -1.0551 -0.6235
20799SOL    HW269259   5.737   6.747   6.588  1.5105 -1.9446 -0.0228
20800SOL     OW69260   1.723   3.167   2.941 -0.0495  0.7246 -0.2992
20800SOL    HW169261   1.670   3.230   2.989 -0.1829  1.0156 -0.8192
20800SOL    HW269262   1.762   3.217   2.869 -1.3375 -0.0663 -1.6186
20801SOL     OW69263   7.601   4.227  10.789  0.5232 -0.0499  0.2905
20801SOL    HW169264   7.507   4.212  10.779  0.1952  0.7960  1.8352
20801SOL    HW269265   7.608   4.318  10.818  1.7745 -0.2689  0.7572
20802SOL     OW69266   1.691   7.219   5.216  0.0765  0.0695  0.3581
20802SOL    HW169267   1.604   7.235   5.180  0.7281  0.9007 -0.8955
20802SOL    HW269268   1.733   7.159   5.154  1.0624  1.1767 -0.0792
20803SOL     OW69269   6.931   8.107   3.781 -0.3946  0.5208  0.1830
20803SOL    HW169270   6.863   8.042   3.796 -0.7752  0.5489 -1.3031
20803SOL    HW269271   6.962   8.090   3.692  1.4283  0.6291  0.7392
20804SOL     OW69272   1.212   1.898   2.361 -0.1778 -0.7778 -0.4374
20804SOL    HW169273   1.153   1.827   2.337  0.5197 -1.1388 -1.1660
20804SOL    HW269274   1.280   1.856   2.415 -1.1164 -0.1783  1.2961
20805SOL     OW69275   7.040   8.216   4.742 -0.7225  0.2786  0.2793
20805SOL    HW169276   6.996   8.297   4.771 -3.5591 -1.2153  0.5127
20805SOL    HW269277   6.969   8.152   4.736  0.9291 -1.4434 -2.8573
20806SOL     OW69278   4.278   3.467   9.594  0.4258 -0.0739 -0.0636
20806SOL    HW169279   4.274   3.545   9.649  0.9388  1.5817 -2.2480
20806SOL    HW269280   4.370   3.442   9.594  0.9203  1.4805 -2.0911
20807SOL     OW69281  10.264  12.168   4.662 -0.4687 -0.3515  0.0356
20807SOL    HW169282  10.287  12.093   4.608 -1.3688 -3.0822  3.0783
20807SOL    HW269283  10.345  12.191   4.707  0.2561  1.8522 -2.1657
20808SOL     OW69284   2.937  10.977   1.225 -0.0197 -0.1000  0.1164
20808SOL    HW169285   2.883  10.974   1.303 -0.6619 -2.1200 -0.3492
20808SOL    HW269286   2.875  10.981   1.152  0.5379  0.4736 -0.3457
20809SOL     OW69287  12.381   7.114   3.916  0.5203  0.3178 -0.8065
20809SOL    HW169288  12.435   7.156   3.850 -0.4200  0.7197 -1.3422
20809SOL    HW269289  12.377   7.177   3.988 -1.5743  1.5717 -1.9485
20810SOL     OW69290   9.217   6.819   5.000 -0.2105 -0.3265 -0.4271
20810SOL    HW169291   9.191   6.902   4.960  2.0365  1.2404  1.1375
20810SOL    HW269292   9.306   6.803   4.967 -0.0038 -1.2905  0.5299
20811SOL     OW69293   9.870  10.771   3.702 -0.0256  0.0076 -0.4169
20811SOL    HW169294   9.779  10.777   3.732  0.1384  0.0851  0.0706
20811SOL    HW269295   9.908  10.856   3.724  1.0306 -1.0583  2.2706
20812SOL     OW69296  10.286   8.863   4.202 -0.1975 -0.3647 -0.0806
20812SOL    HW169297  10.232   8.862   4.281 -0.1523  1.5728  0.0346
20812SOL    HW269298  10.343   8.939   4.213  0.6510 -0.7637 -1.4463
20813SOL     OW69299   3.251  10.440   3.468  0.2548  0.3838  0.4767
20813SOL    HW169300   3.281  10.357   3.431  1.5373  1.2023 -0.3822
20813SOL    HW269301   3.171  10.460   3.419  0.5451  0.1991 -0.0807
20814SOL     OW69302   0.416  10.500   4.586 -0.0660 -0.9984  0.1490
20814SOL    HW169303   0.505  10.475   4.561 -0.0811  0.1738 -1.1992
20814SOL    HW269304   0.384  10.425   4.636  2.4725 -0.5277  2.8011
20815SOL     OW69305   1.485  11.719   7.635  0.7926  0.1799 -0.2386
20815SOL    HW169306   1.487  11.641   7.690  0.0254  0.8461  0.7797
20815SOL    HW269307   1.397  11.719   7.597  1.4337 -0.4636 -1.7863
20816SOL     OW69308   5.177   8.800   6.082  0.4576  0.1364  0.3206
20816SOL    HW169309   5.120   8.730   6.114  1.0023 -1.0337 -1.1885
20816SOL    HW269310   5.188   8.782   5.989 -1.1604  3.4626 -0.6801
20817SOL     OW69311   2.809  10.393   0.963 -0.5583  0.0417 -0.0057
20817SOL    HW169312   2.719  10.419   0.943 -0.5257 -0.6463 -1.1243
20817SOL    HW269313   2.835  10.451   1.034 -1.9037  0.2198  0.3736
20818SOL     OW69314   0.547  11.695   1.389 -0.4600  0.2746  0.9088
20818SOL    HW169315   0.493  11.707   1.310  0.5949  0.4636  0.2040
20818SOL    HW269316   0.485  11.662   1.455 -1.0323 -1.4871 -0.4425
20819SOL     OW69317   0.969   8.568   5.942 -0.1875 -0.2952  0.3202
20819SOL    HW169318   0.897   8.542   6.000  2.4612 -3.3398  2.6009
20819SOL    HW269319   0.997   8.653   5.974 -1.1154 -0.2519  1.0506
20820SOL     OW69320   4.143   8.303   4.582 -0.3429 -0.9804 -0.0593
20820SOL    HW169321   4.089   8.275   4.508 -1.3548 -0.4293  0.4539
20820SOL    HW269322   4.151   8.226   4.637 -2.3029 -0.6068  0.8550
20821SOL     OW69323   7.847   5.524   4.913  0.1534  0.3237 -0.4927
20821SOL    HW169324   7.799   5.442   4.919  2.4050 -1.1740 -1.3656
20821SOL    HW269325   7.925   5.503   4.861  1.3759  2.7420  0.1685
20822SOL     OW69326   7.251   5.562   4.909  0.7342 -0.3277  0.3200
20822SOL    HW169327   7.222   5.539   4.821  0.8924 -1.0998  0.4686
20822SOL    HW269328   7.263   5.657   4.906 -0.4821 -0.1709 -0.1249
20823SOL     OW69329   6.765  11.737   3.464 -0.0828 -0.1609  0.1838
20823SOL    HW169330   6.708  11.717   3.539 -0.8581  0.1894 -0.3000
20823SOL    HW269331   6.830  11.667   3.465 -0.0414 -0.1329  1.2182
20824SOL     OW69332   9.523   2.139   8.201  0.1714  0.2386 -0.3904
20824SOL    HW169333   9.550   2.146   8.293  0.1598  0.3348 -0.3938
20824SOL    HW269334   9.428   2.123   8.205  0.4362 -1.5198 -0.3411
20825SOL     OW69335   0.568   6.613   2.776  0.0479 -0.1609 -0.2572
20825SOL    HW169336   0.612   6.529   2.761  0.5055 -0.0931  0.6227
20825SOL    HW269337   0.639   6.676   2.784 -0.0948 -0.2001  2.1163
20826SOL     OW69338   4.667   9.856  10.986 -0.2704  0.1285  0.2906
20826SOL    HW169339   4.687   9.930  10.928  0.8800 -0.2031  0.2572
20826SOL    HW269340   4.699   9.884  11.072 -0.1434 -0.1941  0.3478
20827SOL     OW69341  10.221   5.293   0.508  0.5964 -0.1972  0.0314
20827SOL    HW169342  10.295   5.351   0.490  0.9966 -0.7892 -0.2355
20827SOL    HW269343  10.256   5.225   0.564  0.4082 -0.8325 -0.6129
20828SOL     OW69344   5.369   6.619   1.863  0.1772 -0.2958 -0.5296
20828SOL    HW169345   5.345   6.692   1.805 -0.6813 -0.8402 -0.8690
20828SOL    HW269346   5.330   6.542   1.822  0.3118 -0.8183  0.3156
20829SOL     OW69347   3.114  11.485   1.974  0.3189  0.9754  0.5932
20829SOL    HW169348   3.067  11.502   2.056  1.1730  0.6029  1.1742
20829SOL    HW269349   3.206  11.504   1.995  0.6069  0.4233 -0.1441
20830SOL     OW69350   7.736   5.619   1.334  0.3596  0.4313 -0.4266
20830SOL    HW169351   7.750   5.602   1.427  1.3007 -0.0561 -0.6454
20830SOL    HW269352   7.649   5.583   1.315  0.8225 -0.9448 -0.0757
20831SOL     OW69353  11.359   0.479   8.921  0.6461  0.3051  0.2954
20831SOL    HW169354  11.422   0.544   8.952 -0.1793  1.5912 -0.6237
20831SOL    HW269355  11.383   0.464   8.830  0.1460  0.1731  0.1815
20832SOL     OW69356   5.283   4.783   7.711  0.1070  0.4703 -0.0059
20832SOL    HW169357   5.312   4.845   7.778  2.8910 -3.0342  2.4628
20832SOL    HW269358   5.195   4.757   7.738  0.4122  0.5975  1.1625
20833SOL     OW69359  10.252   8.470   8.867 -0.4930 -0.3468 -0.3595
20833SOL    HW169360  10.332   8.521   8.853  1.8298 -4.0041 -1.9292
20833SOL    HW269361  10.207   8.474   8.783 -0.2116 -0.9902 -0.5435
20834SOL     OW69362   6.556   3.055   9.470 -0.4557 -0.3712 -0.7928
20834SOL    HW169363   6.550   2.992   9.398 -1.1409 -1.1704 -0.0659
20834SOL    HW269364   6.618   3.014   9.531 -2.2294 -1.2240  0.5044
20835SOL     OW69365   3.408   6.772  10.632  0.5513  0.0081 -0.5609
20835SOL    HW169366   3.346   6.842  10.655  1.5069  0.4146  0.9457
20835SOL    HW269367   3.355   6.707  10.586 -1.0385  0.2549  0.8221
20836SOL     OW69368   0.486  12.270  10.258 -0.2010  0.2616 -0.5087
20836SOL    HW169369   0.504  12.188  10.304  1.3452  0.9484  0.1638
20836SOL    HW269370   0.520  12.256  10.170  1.9789  0.8445  0.1856
20837SOL     OW69371   7.336  11.120   3.221 -0.6692  0.1876  0.2125
20837SOL    HW169372   7.320  11.214   3.234 -2.1050 -0.1921  1.3600
20837SOL    HW269373   7.258  11.088   3.176  0.3110 -0.2753 -1.2419
20838SOL     OW69374  11.961   5.253   0.033 -0.1366 -0.1668  0.2046
20838SOL    HW169375  11.961   5.286  -0.057 -2.7390  0.3261  0.3069
20838SOL    HW269376  12.044   5.206   0.042  1.7726  2.6120 -1.3376
20839SOL     OW69377   0.695  12.348  11.602  0.4959 -0.3677  0.2747
20839SOL    HW169378   0.659  12.288  11.668 -0.0544  0.1305  0.4350
20839SOL    HW269379   0.771  12.302  11.567  0.5327 -0.8293  0.9460
20840SOL     OW69380  11.496   3.587   0.998  0.0802  0.3895  0.2929
20840SOL    HW169381  11.525   3.523   1.063  1.8143  0.3258 -0.4878
20840SOL    HW269382  11.468   3.534   0.923 -1.0106  0.4894  0.6175
20841SOL     OW69383   1.063   1.276   3.318  0.1765  0.1431  0.3182
20841SOL    HW169384   1.041   1.360   3.277  0.2827 -0.3462 -0.7846
20841SOL    HW269385   0.987   1.220   3.299 -0.1840  0.1593  1.6043
20842SOL     OW69386  12.454   3.199   7.982  0.1498 -0.6584 -0.2147
20842SOL    HW169387  12.537   3.239   8.008 -0.2770 -0.3532  0.7105
20842SOL    HW269388  12.411   3.177   8.064 -0.3870 -1.4533 -0.6956
20843SOL     OW69389  12.119   1.040   3.161 -0.5423 -0.1874 -0.3786
20843SOL    HW169390  12.172   1.056   3.238  1.7945  0.1019 -1.9465
20843SOL    HW269391  12.060   1.115   3.156 -0.0121  0.2947  0.5369
20844SOL     OW69392   7.253   4.148   5.051  0.6953  0.1920 -0.7309
20844SOL    HW169393   7.218   4.066   5.087  0.1375  0.5135 -0.5274
20844SOL    HW269394   7.177   4.206   5.044  1.3184  1.2535  0.6764
20845SOL     OW69395   1.927  12.261   9.917  0.3767 -0.1737  0.7218
20845SOL    HW169396   1.942  12.260  10.012  1.4777  0.8623  0.5736
20845SOL    HW269397   1.990  12.198   9.882  1.6995  1.2092  0.4854
20846SOL     OW69398   3.420  12.415  12.358  0.0411 -0.3346 -0.3096
20846SOL    HW169399   3.337  12.376  12.386  0.3006 -0.1121  0.8057
20846SOL    HW269400   3.487  12.350  12.381  0.2174 -0.3733 -0.9082
20847SOL     OW69401   1.034   3.911  11.779 -0.4753 -0.2145 -0.0963
20847SOL    HW169402   1.076   3.887  11.696 -1.5046 -1.8550 -0.1818
20847SOL    HW269403   1.086   3.866  11.846  0.5289  1.3368  0.2279
20848SOL     OW69404   2.046   8.527  10.761 -0.0377  0.0361 -0.0531
20848SOL    HW169405   2.110   8.456  10.754  0.9295  0.8970 -0.1554
20848SOL    HW269406   1.977   8.491  10.817  1.0255 -0.5571  0.9193
20849SOL     OW69407   9.312   8.103  10.979  0.2247 -0.5725 -0.1554
20849SOL    HW169408   9.290   8.044  11.051 -0.0711 -0.6606 -0.3165
20849SOL    HW269409   9.266   8.067  10.903  1.8711 -1.4523 -0.7798
20850SOL     OW69410   8.612   9.649   0.702  0.3429  0.0212 -0.5682
20850SOL    HW169411   8.685   9.588   0.714  0.8493  0.6345 -0.4523
20850SOL    HW269412   8.599   9.652   0.607  0.6517  0.1188 -0.6083
20851SOL     OW69413  10.905   5.385   1.162 -0.0785 -0.1118 -0.4448
20851SOL    HW169414  10.863   5.366   1.246 -0.4220 -1.0202 -0.8072
20851SOL    HW269415  10.855   5.459   1.126  0.5880  0.8121  0.5097
20852SOL     OW69416   5.302   2.885  11.844  0.2024 -0.0396 -0.2412
20852SOL    HW169417   5.333   2.930  11.766  1.5070 -1.0119 -0.3169
20852SOL    HW269418   5.364   2.909  11.913  0.7260 -1.4131 -0.2064
20853SOL     OW69419   6.752   1.438   4.123 -0.6868 -0.1524  0.5440
20853SOL    HW169420   6.695   1.504   4.084 -2.3371 -1.3400  0.8726
20853SOL    HW269421   6.718   1.425   4.211 -0.6719 -1.7347  0.3407
20854SOL     OW69422   5.037   4.532   5.758  0.4290 -0.2126 -0.3227
20854SOL    HW169423   4.987   4.604   5.722 -2.9175 -0.6473  2.8566
20854SOL    HW269424   5.122   4.570   5.781 -1.3108  2.9754  1.5789
20855SOL     OW69425  11.826  10.927   1.871  0.2114  0.4399  0.1768
20855SOL    HW169426  11.851  11.020   1.868  0.0408  0.5306  1.2804
20855SOL    HW269427  11.886  10.885   1.809  0.2143  1.2958 -0.4280
20856SOL     OW69428   2.049  10.707   9.032 -0.3826 -0.2485 -0.0243
20856SOL    HW169429   2.006  10.621   9.031 -0.5249 -0.2022  1.1284
20856SOL    HW269430   2.142  10.687   9.038 -0.3452 -0.3264 -0.7699
20857SOL     OW69431   6.799   5.194  10.860  0.0336 -0.6876 -0.3211
20857SOL    HW169432   6.789   5.159  10.771 -0.1822  0.9732 -0.9833
20857SOL    HW269433   6.721   5.249  10.873  1.8365  2.1495 -0.6178
20858SOL     OW69434  11.083   7.389   3.490 -0.3846 -0.5709  0.3632
20858SOL    HW169435  11.022   7.352   3.426  0.5697 -0.8774 -0.3881
20858SOL    HW269436  11.169   7.363   3.459  0.1140 -0.5388  1.6672
20859SOL     OW69437   4.834   3.926   5.216  0.4247  0.4693 -0.4467
20859SOL    HW169438   4.829   4.021   5.231  1.0558  0.5001 -0.3820
20859SOL    HW269439   4.850   3.889   5.303 -2.1274  0.0728 -0.0676
20860SOL     OW69440   8.185  12.081   2.811  0.1272 -0.8937  0.0225
20860SOL    HW169441   8.209  12.152   2.751  0.6964 -1.6063 -0.6224
20860SOL    HW269442   8.264  12.065   2.862  0.7555 -2.5161 -1.3560
20861SOL     OW69443   7.233   8.984   7.537  0.6237 -0.0610  0.3324
20861SOL    HW169444   7.268   8.895   7.533  0.1529 -0.3601  2.0484
20861SOL    HW269445   7.150   8.979   7.490  1.4916 -0.0218 -1.2815
20862SOL     OW69446   3.407   2.364   2.360  0.2073 -0.4046  0.2533
20862SOL    HW169447   3.338   2.316   2.316  1.1963 -0.8226 -0.8944
20862SOL    HW269448   3.368   2.392   2.443 -1.3481 -0.5431 -0.4026
20863SOL     OW69449   1.274   6.243   5.219 -0.1733  0.0245  0.0284
20863SOL    HW169450   1.335   6.274   5.285  0.1772 -2.6836  1.1013
20863SOL    HW269451   1.187   6.256   5.257 -0.3643  3.3578 -1.2698
20864SOL     OW69452   9.765   7.519   4.015  0.3072 -0.2070  0.5207
20864SOL    HW169453   9.824   7.555   3.949  2.6988 -1.5008  1.8131
20864SOL    HW269454   9.713   7.594   4.044  2.1373  1.3034  0.1173
20865SOL     OW69455   4.561   3.663   6.044 -0.6251  0.1506  0.4446
20865SOL    HW169456   4.583   3.756   6.047  0.8834 -0.1566 -0.1220
20865SOL    HW269457   4.624   3.626   5.982 -2.4108 -0.9410 -0.7999
20866SOL     OW69458   8.704  10.460   7.781  0.2331  0.5833  0.6321
20866SOL    HW169459   8.657  10.389   7.826  0.2533 -0.4023 -0.8238
20866SOL    HW269460   8.796  10.445   7.804  0.1776  0.4852  0.7967
20867SOL     OW69461   7.173   1.929   8.857 -0.2316  0.1394  0.0530
20867SOL    HW169462   7.217   1.849   8.885  0.9740  0.6053 -0.4576
20867SOL    HW269463   7.158   1.978   8.938  1.7158  0.7262  0.0944
20868SOL     OW69464  10.487   7.693   4.574 -0.1867  0.1946  0.5404
20868SOL    HW169465  10.544   7.764   4.547  0.5552 -0.8240 -0.6585
20868SOL    HW269466  10.399   7.732   4.576 -0.1576  0.6483 -2.3528
20869SOL     OW69467   3.565  10.982   6.282 -0.3631 -0.2079 -0.1076
20869SOL    HW169468   3.594  10.966   6.372 -0.8710 -1.7466 -0.1797
20869SOL    HW269469   3.609  11.063   6.257  0.5024 -0.2266  1.2183
20870SOL     OW69470   1.789  10.693  12.094 -0.2458 -0.4642 -0.1241
20870SOL    HW169471   1.882  10.682  12.112 -0.0455  0.8042 -0.2957
20870SOL    HW269472   1.763  10.769  12.146 -1.3539 -1.1975  0.4543
20871SOL     OW69473  11.580   1.465  10.196  0.0932 -0.6648  0.5056
20871SOL    HW169474  11.555   1.425  10.113 -0.6467 -0.7012  0.7383
20871SOL    HW269475  11.661   1.421  10.221  0.3074 -0.6676 -0.1797
20872SOL     OW69476  11.637   5.505   4.077 -0.5226  0.2058 -0.2051
20872SOL    HW169477  11.654   5.544   3.991 -1.0749  0.1691 -0.3381
20872SOL    HW269478  11.588   5.425   4.057  0.7492 -0.6587  0.0581
20873SOL     OW69479   2.461   6.889  10.753  0.0257 -0.1128  0.2745
20873SOL    HW169480   2.549   6.870  10.720 -0.4079 -1.4507 -0.1740
20873SOL    HW269481   2.440   6.975  10.718  0.9300 -0.0245 -0.0805
20874SOL     OW69482   0.741   9.234   1.673  0.1749 -0.3296  0.3946
20874SOL    HW169483   0.661   9.199   1.633  1.9653 -2.6444 -1.3671
20874SOL    HW269484   0.750   9.322   1.635  0.4981 -1.5362 -2.5103
20875SOL     OW69485   7.759   3.091   4.975 -0.3744  0.5734  0.2022
20875SOL    HW169486   7.843   3.067   4.936 -0.7718  0.4876 -0.6154
20875SOL    HW269487   7.695   3.079   4.904 -1.0725  0.6598  0.8086
20876SOL     OW69488   9.007   9.444   7.998  0.1968  0.3201 -0.4091
20876SOL    HW169489   9.007   9.418   8.090  0.4020 -0.2419 -0.5593
20876SOL    HW269490   9.095   9.423   7.967  0.4200  1.3578 -0.5142
20877SOL     OW69491   3.110  12.384  11.606 -0.5257 -0.1364 -0.3262
20877SOL    HW169492   3.199  12.360  11.583 -0.4504 -0.4692  0.2941
20877SOL    HW269493   3.119  12.457  11.668 -0.6904 -0.0434 -0.4091
20878SOL     OW69494   4.639  11.018   4.203  0.5032  0.1897  0.5653
20878SOL    HW169495   4.687  10.948   4.159  1.0524  0.5966  0.5030
20878SOL    HW269496   4.661  11.008   4.295  0.8497  0.4712  0.5190
20879SOL     OW69497   6.556   5.422  11.337  0.1081 -0.0519  0.4352
20879SOL    HW169498   6.547   5.354  11.403  1.0095 -0.2161  0.4002
20879SOL    HW269499   6.497   5.396  11.267 -1.2617  0.4030  1.3815
20880SOL     OW69500   1.004   4.919  11.849 -0.3836  0.5836 -0.0070
20880SOL    HW169501   1.065   4.845  11.842  0.1414  1.0041  0.0500
20880SOL    HW269502   0.934   4.887  11.906 -0.1168  0.1617  0.0917
20881SOL     OW69503   8.638   8.171   4.990  0.7503 -0.1946 -0.1316
20881SOL    HW169504   8.606   8.261   4.993  0.2776 -0.3752  0.5144
20881SOL    HW269505   8.732   8.178   5.006  0.7758  0.2169 -0.4610
20882SOL     OW69506  12.320   1.720   0.852  0.1197 -0.5070 -0.3212
20882SOL    HW169507  12.300   1.718   0.946  1.1772 -0.3411 -0.0768
20882SOL    HW269508  12.261   1.656   0.813 -0.0722 -0.8444  0.5097
20883SOL     OW69509   8.016   2.036   1.284 -0.4078  0.3720  0.8490
20883SOL    HW169510   8.103   2.031   1.325  0.0378 -0.4705 -0.1478
20883SOL    HW269511   7.964   2.089   1.344  1.0806  1.7744  0.9416
20884SOL     OW69512   0.064   8.995   0.351  0.2611  0.0403 -0.5850
20884SOL    HW169513   0.117   8.967   0.276  0.1190  1.4090 -1.2267
20884SOL    HW269514   0.027   9.079   0.325  0.0788  0.4844  0.9676
20885SOL     OW69515  12.473   5.802  11.423 -0.4669 -0.3649 -0.1256
20885SOL    HW169516  12.508   5.881  11.382 -0.2484 -0.0029  0.7319
20885SOL    HW269517  12.390   5.830  11.460 -0.4558 -0.5766  0.0562
20886SOL     OW69518   5.082   8.394   6.342  0.2529 -0.4008  0.2144
20886SOL    HW169519   5.004   8.412   6.395  0.4784  1.1956  0.0654
20886SOL    HW269520   5.138   8.341   6.399 -0.3940 -0.4774  0.7944
20887SOL     OW69521   3.876   9.581   4.357 -0.1793 -0.4917  0.7449
20887SOL    HW169522   3.821   9.653   4.387  1.8851  0.9118  1.4048
20887SOL    HW269523   3.847   9.506   4.408 -2.5983 -0.2680 -0.1816
20888SOL     OW69524   1.777   1.443   1.438 -0.0909  0.0683  0.0405
20888SOL    HW169525   1.705   1.465   1.380 -0.1336 -2.9367 -1.2515
20888SOL    HW269526   1.755   1.485   1.521 -2.8416  0.0342 -0.5704
20889SOL     OW69527   6.244   8.680  11.301 -0.0827 -0.6330 -0.1178
20889SOL    HW169528   6.239   8.768  11.263  1.4091 -0.7335 -0.6063
20889SOL    HW269529   6.297   8.630  11.239  0.8181 -1.3210  1.1684
20890SOL     OW69530  10.690   6.814   4.742  0.3571  0.1997 -0.3230
20890SOL    HW169531  10.613   6.864   4.714  0.2630  1.4181  1.9082
20890SOL    HW269532  10.764   6.858   4.700  0.0489  0.5252 -0.5318
20891SOL     OW69533  11.952   4.556  11.424  0.7022  0.6373  0.0047
20891SOL    HW169534  11.884   4.533  11.361  0.8137  0.7988 -0.1752
20891SOL    HW269535  11.919   4.522  11.508  0.5312  0.4704 -0.1302
20892SOL     OW69536   1.974   3.917  11.147  0.2618  0.1955  0.0753
20892SOL    HW169537   1.954   3.833  11.188  1.2610  0.8600  2.0920
20892SOL    HW269538   2.068   3.929  11.163  0.5151  0.9145 -1.7180
20893SOL     OW69539   6.548   9.431   3.769  0.0832  0.0950 -0.3664
20893SOL    HW169540   6.541   9.342   3.734 -0.6041 -0.2774  0.6517
20893SOL    HW269541   6.551   9.487   3.692  0.8358 -0.8216 -1.0344
20894SOL     OW69542   8.020   1.866  12.117 -0.2278 -0.0743 -0.8019
20894SOL    HW169543   7.962   1.809  12.168  0.1732  0.1547 -0.0769
20894SOL    HW269544   7.986   1.861  12.028 -1.5136  0.2633 -0.3458
20895SOL     OW69545  12.172  12.071   7.482  0.4627 -0.6402  0.1271
20895SOL    HW169546  12.194  12.018   7.559  3.1241  0.0556 -0.0506
20895SOL    HW269547  12.154  12.007   7.413 -0.7015 -1.2687  0.9950
20896SOL     OW69548  10.975   4.208   8.927  0.8075 -0.3195 -0.2034
20896SOL    HW169549  10.924   4.189   8.848 -0.4470  0.0705  0.4815
20896SOL    HW269550  10.933   4.156   8.995  0.0262  1.5356  0.7951
20897SOL     OW69551   4.693  11.112  10.464  0.0979 -0.2307  0.4281
20897SOL    HW169552   4.786  11.118  10.444 -0.1529 -0.8161 -0.9769
20897SOL    HW269553   4.649  11.116  10.379 -1.2054  0.5999  1.0974
20898SOL     OW69554   1.089   7.821   1.800  0.7610 -0.8249 -0.4319
20898SOL    HW169555   1.075   7.887   1.731  1.5320  0.1756  0.3277
20898SOL    HW269556   1.183   7.802   1.796  0.7519 -1.0010  0.1296
20899SOL     OW69557  12.163  11.956  12.369  0.3441  0.1487 -0.6084
20899SOL    HW169558  12.079  11.936  12.411 -0.4564  0.9135 -1.7749
20899SOL    HW269559  12.139  12.007  12.291  1.9514  1.3770 -0.3592
20900SOL     OW69560   7.041   8.419   6.384  0.5976  0.1035 -0.1498
20900SOL    HW169561   7.056   8.328   6.410 -0.7334 -0.6897 -1.9981
20900SOL    HW269562   7.129   8.457   6.379  1.1095 -0.6637  1.9124
20901SOL     OW69563  10.886   3.783   3.435 -0.2306  0.5606  0.0173
20901SOL    HW169564  10.939   3.842   3.489 -0.6459 -0.6124  1.7718
20901SOL    HW269565  10.947   3.714   3.407 -0.4688  0.0327  0.7704
20902SOL     OW69566   9.723  10.120  10.390  0.1124 -0.2304  0.0634
20902SOL    HW169567   9.653  10.098  10.451 -0.0912  1.3173  0.4350
20902SOL    HW269568   9.783  10.175  10.440  0.8175 -0.3108 -0.6616
20903SOL     OW69569   1.777   3.740  11.302 -0.3027 -0.2768 -0.0960
20903SOL    HW169570   1.750   3.697  11.220  0.3844 -0.1658 -0.3829
20903SOL    HW269571   1.695   3.755  11.349 -1.1290  2.5179 -2.1474
20904SOL     OW69572   2.861   8.798   3.844 -0.1191 -0.5335 -0.0787
20904SOL    HW169573   2.858   8.886   3.805 -3.1670 -0.6280 -0.3018
20904SOL    HW269574   2.928   8.804   3.911  2.0352  0.9832 -2.2016
20905SOL     OW69575   0.802   7.685   9.273  0.1894  0.5848 -0.0174
20905SOL    HW169576   0.765   7.646   9.193 -0.7336  2.2505 -0.4576
20905SOL    HW269577   0.881   7.634   9.290  0.6092  0.3936 -2.1910
20906SOL     OW69578  10.418   9.344   7.533  0.0285  0.2762 -0.1708
20906SOL    HW169579  10.335   9.342   7.580 -0.2490  0.2198 -0.6601
20906SOL    HW269580  10.438   9.438   7.524  0.7681  0.2729  1.2495
20907SOL     OW69581   6.853   0.909   6.261  0.0792 -0.1181 -0.2586
20907SOL    HW169582   6.839   0.958   6.181 -0.9868 -1.2757 -0.8216
20907SOL    HW269583   6.899   0.830   6.234  1.6959  0.4747  0.6183
20908SOL     OW69584   5.720  10.195   9.672  0.1079  0.6818 -0.0280
20908SOL    HW169585   5.704  10.192   9.578 -1.2071  2.0565  0.1127
20908SOL    HW269586   5.799  10.249   9.681  0.0578  0.8059 -0.3322
20909SOL     OW69587  11.188   6.765   3.815  0.1914 -0.1934  0.2629
20909SOL    HW169588  11.196   6.860   3.821  4.3455 -0.1652 -2.2025
20909SOL    HW269589  11.144   6.750   3.731  2.1548 -0.2984 -0.8202
20910SOL     OW69590   5.824  10.211   6.363 -0.0174 -0.0127  0.0674
20910SOL    HW169591   5.832  10.306   6.352  1.0571 -0.1603 -0.6501
20910SOL    HW269592   5.766  10.200   6.438 -0.3522  1.2108  0.0085
20911SOL     OW69593   8.466   3.539   0.675 -0.4738  0.5826 -0.3848
20911SOL    HW169594   8.521   3.616   0.680  1.1370 -0.5980  1.1266
20911SOL    HW269595   8.414   3.540   0.755  0.0510 -0.2271 -0.0183
20912SOL     OW69596   9.036   5.162  11.926  0.0237 -0.1396  0.3395
20912SOL    HW169597   8.965   5.148  11.863  0.5096 -0.6158 -0.1075
20912SOL    HW269598   9.018   5.248  11.963  1.2218  1.4366 -2.4478
20913SOL     OW69599   1.565   7.352  11.879  0.5222  0.6204 -0.0056
20913SOL    HW169600   1.599   7.441  11.886 -0.0590  0.8982 -0.5685
20913SOL    HW269601   1.469   7.363  11.878  0.3356 -0.2156  2.6822
20914SOL     OW69602  11.804   6.019   6.708  0.6695  0.3133 -0.0339
20914SOL    HW169603  11.863   5.983   6.642  0.8949  0.2379  0.2070
20914SOL    HW269604  11.818   6.114   6.704  1.0546  0.2667  0.2605
20915SOL     OW69605   4.657   5.349   1.731 -0.3144 -0.2506 -0.0227
20915SOL    HW169606   4.637   5.317   1.819 -3.0207  0.0767 -0.4399
20915SOL    HW269607   4.605   5.429   1.722 -0.6911 -0.6882 -2.1824
20916SOL     OW69608   9.289   6.534  12.231 -0.5769 -0.3349 -0.4471
20916SOL    HW169609   9.239   6.484  12.296  0.6889  0.2171  0.9844
20916SOL    HW269610   9.255   6.623  12.238 -0.1688 -0.1929 -0.2614
20917SOL     OW69611   4.398  12.272  11.553 -0.1260 -0.2579  0.2586
20917SOL    HW169612   4.311  12.232  11.550  0.4701 -1.5762 -0.9815
20917SOL    HW269613   4.438  12.236  11.632 -0.3748 -0.3937  0.3235
20918SOL     OW69614   9.845   8.852   0.630  0.2878 -0.4168  0.4470
20918SOL    HW169615   9.772   8.819   0.683 -0.5167 -0.3619 -0.5745
20918SOL    HW269616   9.832   8.947   0.628  0.7813 -0.3387  0.8027
20919SOL     OW69617   0.703   8.125  11.957  0.3384  0.5776 -0.1420
20919SOL    HW169618   0.656   8.043  11.971 -0.8859  1.3146  0.1613
20919SOL    HW269619   0.792   8.107  11.988 -0.4047 -0.0609  1.7398
20920SOL     OW69620   1.271   4.606   9.381 -0.4090 -0.9410 -0.4386
20920SOL    HW169621   1.257   4.626   9.473 -0.9543 -0.2659 -0.6642
20920SOL    HW269622   1.252   4.512   9.374 -2.7363 -0.5509 -0.2869
20921SOL     OW69623  12.070   2.181   4.101 -0.2913 -0.0162 -0.3665
20921SOL    HW169624  12.158   2.212   4.126 -0.3424  1.5002 -1.8655
20921SOL    HW269625  12.032   2.148   4.182  0.5080  2.2388  1.0069
20922SOL     OW69626   5.738  10.757   9.426 -0.2871 -0.0410 -0.3806
20922SOL    HW169627   5.734  10.698   9.501 -3.3897  1.6033  0.9567
20922SOL    HW269628   5.754  10.844   9.465 -2.4395  0.9205 -1.4597
20923SOL     OW69629   4.895   3.805   9.809 -0.6569 -0.6876  0.4770
20923SOL    HW169630   4.876   3.714   9.784  1.7651 -0.6500 -1.9304
20923SOL    HW269631   4.987   3.804   9.836 -0.2152  1.2182 -0.7951
20924SOL     OW69632   8.652   4.129   4.230 -0.5756  0.4351 -0.5662
20924SOL    HW169633   8.565   4.100   4.255 -0.6352  1.4149  0.4468
20924SOL    HW269634   8.652   4.127   4.135 -1.1245 -1.1920 -0.5665
20925SOL     OW69635   1.524  11.519  10.952 -0.2337  0.1706 -0.5305
20925SOL    HW169636   1.526  11.553  10.863 -0.0287  1.3495 -0.0987
20925SOL    HW269637   1.442  11.470  10.958 -0.4584  0.4547 -1.2332
20926SOL     OW69638   8.404   9.516   7.557  0.3709  0.1082 -0.3278
20926SOL    HW169639   8.461   9.507   7.481 -0.0805  1.1219 -0.8111
20926SOL    HW269640   8.424   9.603   7.591 -0.0349 -0.0035  0.2133
20927SOL     OW69641   2.019   6.411  10.545 -0.1330 -0.5483 -0.8378
20927SOL    HW169642   1.960   6.341  10.573 -1.3810  0.8773  0.3284
20927SOL    HW269643   2.012   6.477  10.615  1.4266  0.4866 -1.6026
20928SOL     OW69644  10.602   6.864   6.579  0.0670  0.1054  0.3153
20928SOL    HW169645  10.660   6.861   6.503 -0.8665  0.9659 -0.4597
20928SOL    HW269646  10.613   6.779   6.622  1.9640  0.2821  0.2637
20929SOL     OW69647   0.106  11.294   8.571 -0.1063  0.0894 -0.1124
20929SOL    HW169648   0.143  11.381   8.583  2.3634 -0.8543 -0.3738
20929SOL    HW269649   0.012  11.307   8.580  0.2560  2.5946  0.9308
20930SOL     OW69650   2.558   7.623   6.135 -0.1516  0.7263 -0.2946
20930SOL    HW169651   2.531   7.713   6.152  0.0854  0.5905  0.9126
20930SOL    HW269652   2.546   7.578   6.219 -0.1553 -0.3409 -0.8459
20931SOL     OW69653  11.429   8.476  11.093 -0.2773  0.1686 -0.3706
20931SOL    HW169654  11.337   8.450  11.100 -0.2473 -0.1158 -1.0077
20931SOL    HW269655  11.425   8.567  11.064 -0.3629 -0.0664 -1.1340
20932SOL     OW69656   0.972   3.853   7.026  0.1164 -0.9048  0.1917
20932SOL    HW169657   1.047   3.866   6.968  1.2563  0.2467  1.8082
20932SOL    HW269658   1.011   3.847   7.113 -1.4802 -3.1165  0.8311
20933SOL     OW69659   3.085   2.547   9.718  0.1678 -0.0408 -0.1770
20933SOL    HW169660   3.172   2.567   9.684  0.1661 -0.0157 -0.1663
20933SOL    HW269661   3.063   2.463   9.678  1.0581 -1.0727  1.3864
20934SOL     OW69662   5.771   7.422   6.403 -0.3541  0.3004 -0.3134
20934SOL    HW169663   5.703   7.419   6.471  0.6176 -0.0301  0.6809
20934SOL    HW269664   5.853   7.433   6.452  0.2736  1.1300 -1.5137
20935SOL     OW69665   4.100  11.983   7.660  0.1270 -0.3871 -0.0869
20935SOL    HW169666   4.117  11.941   7.575 -0.3088 -0.0274 -0.3551
20935SOL    HW269667   4.072  11.912   7.717  0.8783 -0.7133 -0.1062
20936SOL     OW69668   8.595   1.263   2.816 -0.0259  0.0975 -0.4120
20936SOL    HW169669   8.684   1.234   2.837  0.5898  0.8777 -1.8077
20936SOL    HW269670   8.557   1.285   2.901  0.9729 -0.6105  0.2497
20937SOL     OW69671   9.934  10.720  12.319 -0.0990  0.5393  0.9983
20937SOL    HW169672   9.966  10.656  12.383  1.3977  1.0247  0.7523
20937SOL    HW269673   9.839  10.722  12.334 -0.1543 -1.4964  1.2170
20938SOL     OW69674  12.130   5.317   0.894 -0.2398  0.2025 -0.7401
20938SOL    HW169675  12.125   5.223   0.909  1.6002  0.3220  1.1547
20938SOL    HW269676  12.223   5.337   0.902 -0.5457  2.1331 -1.5337
20939SOL     OW69677   4.970   6.362   3.063  0.2720  0.4744 -0.2300
20939SOL    HW169678   4.983   6.427   2.994  0.4445 -0.5424 -1.1844
20939SOL    HW269679   5.040   6.298   3.048 -0.4103 -0.3680  0.1518
20940SOL     OW69680   9.974   1.624   5.983 -0.0883  0.2909  0.6406
20940SOL    HW169681  10.052   1.585   5.944 -0.5524  0.3759 -0.3934
20940SOL    HW269682   9.971   1.587   6.072  0.3099 -0.8753  0.1906
20941SOL     OW69683   9.118   0.861   4.246 -0.4807  0.6590 -0.6197
20941SOL    HW169684   9.028   0.880   4.273 -1.3584  0.0373 -2.8532
20941SOL    HW269685   9.119   0.881   4.153  1.9138  1.2430 -0.5277
20942SOL     OW69686   6.244   9.562  12.376 -0.2436 -0.6623  0.6310
20942SOL    HW169687   6.207   9.608  12.452 -1.2799  0.3283 -0.4337
20942SOL    HW269688   6.330   9.533  12.406  0.0094  1.0406  1.7140
20943SOL     OW69689  10.514  11.188   7.221 -0.4085  0.1814 -0.3863
20943SOL    HW169690  10.527  11.173   7.315 -0.9614  1.2504 -0.1242
20943SOL    HW269691  10.431  11.145   7.201  0.7007 -1.8892 -0.8802
20944SOL     OW69692   0.859   7.104   8.347  0.5882 -0.4762  0.3801
20944SOL    HW169693   0.800   7.164   8.392  0.6855 -0.5654  0.6308
20944SOL    HW269694   0.807   7.069   8.275  0.7898  0.5538 -0.2968
20945SOL     OW69695   4.495  10.380  10.385 -0.0300 -0.2660 -0.3484
20945SOL    HW169696   4.563  10.443  10.411 -1.5121  1.6237 -0.7723
20945SOL    HW269697   4.413  10.423  10.409 -1.1062 -2.6694  0.5737
20946SOL     OW69698  10.378   3.471   3.491 -0.3973 -0.4523  0.3602
20946SOL    HW169699  10.421   3.540   3.440  1.6334 -2.0710 -0.2684
20946SOL    HW269700  10.289   3.466   3.456 -0.0614  0.7054 -0.7086
20947SOL     OW69701   7.052   9.218   1.369 -0.3345  0.0959  0.0657
20947SOL    HW169702   7.012   9.132   1.381  0.5075 -0.5613 -1.5154
20947SOL    HW269703   7.129   9.201   1.314 -0.6389  1.9546 -1.0179
20948SOL     OW69704   9.694   0.802   8.692 -0.0686  0.4900 -0.5585
20948SOL    HW169705   9.632   0.741   8.652  2.3194 -2.4534 -0.1674
20948SOL    HW269706   9.738   0.844   8.618  0.0902 -0.3431 -0.9570
20949SOL     OW69707  10.582  11.420   1.632 -0.5713  0.0355 -0.1255
20949SOL    HW169708  10.660  11.458   1.592  1.0676  2.4500  4.5620
20949SOL    HW269709  10.512  11.483   1.613 -0.4074 -0.0420 -1.0124
20950SOL     OW69710   0.940   9.501   0.034  0.5086  0.3063  0.6264
20950SOL    HW169711   1.034   9.517   0.038  0.3652  1.3819  0.0383
20950SOL    HW269712   0.932   9.407   0.015  1.4593  0.2718  0.3725
20951SOL     OW69713   5.726   5.583   5.363 -0.6184  0.9163  0.0361
20951SOL    HW169714   5.791   5.554   5.427  0.9096  1.0699 -1.4028
20951SOL    HW269715   5.703   5.672   5.391 -0.1228  0.9109  0.4840
20952SOL     OW69716   0.286   3.190   8.657 -0.4358  0.2510 -0.7531
20952SOL    HW169717   0.260   3.282   8.668  0.4289  0.7469 -2.4085
20952SOL    HW269718   0.203   3.142   8.659 -1.1007  1.2913 -1.6639
20953SOL     OW69719   3.461   6.815   1.292  0.0211  0.0014 -0.9749
20953SOL    HW169720   3.454   6.776   1.379  1.0490 -0.4669 -1.0855
20953SOL    HW269721   3.371   6.838   1.269 -0.2688  0.1766  0.2235
20954SOL     OW69722  11.328   6.297   5.561  0.6766  0.0498 -0.5214
20954SOL    HW169723  11.265   6.253   5.504  1.7140  1.1316 -2.6242
20954SOL    HW269724  11.274   6.335   5.630 -1.2350  1.8494 -2.7951
20955SOL     OW69725  11.491   7.755   9.552  0.4905  0.1378  0.4793
20955SOL    HW169726  11.487   7.811   9.475 -0.1969 -1.4322 -0.6834
20955SOL    HW269727  11.550   7.684   9.527 -0.9618 -1.2339  0.7812
20956SOL     OW69728   2.698   5.232   8.438  0.6849  0.2698  0.8875
20956SOL    HW169729   2.702   5.257   8.346  0.8318  0.0488  0.8327
20956SOL    HW269730   2.605   5.219   8.456  0.7296 -0.6800  0.4972
20957SOL     OW69731   3.743   9.995   3.991  0.4453  0.2108  0.3624
20957SOL    HW169732   3.672   9.979   4.053  2.5598 -4.3128  1.9785
20957SOL    HW269733   3.726   9.935   3.919  2.7677 -1.4237  1.0597
20958SOL     OW69734   8.421   0.542   5.851 -0.1474  0.5658  0.3123
20958SOL    HW169735   8.326   0.527   5.857 -0.1199  0.2543 -0.0195
20958SOL    HW269736   8.447   0.565   5.940 -0.8251  2.3763  0.0903
20959SOL     OW69737   7.404   3.791   1.840 -0.0673  0.2653  0.4960
20959SOL    HW169738   7.468   3.799   1.769 -1.7737 -0.6121 -1.2496
20959SOL    HW269739   7.348   3.718   1.813 -2.6094  1.8108  1.2405
20960SOL     OW69740   1.934  11.505   6.766  0.0017  0.0261 -0.1665
20960SOL    HW169741   1.939  11.598   6.785  2.3600  0.0583 -0.5731
20960SOL    HW269742   2.020  11.470   6.793 -0.8466 -2.0420  0.0766
20961SOL     OW69743  10.077   1.185  10.407  0.0039  0.2316 -0.4341
20961SOL    HW169744  10.142   1.189  10.336  0.8158 -0.3491  0.2557
20961SOL    HW269745  10.126   1.213  10.485 -0.8758  0.8532 -0.0945
20962SOL     OW69746   8.036   9.861   0.529 -0.6100 -0.2105  0.0406
20962SOL    HW169747   7.985   9.816   0.597 -0.8209 -1.2184 -0.7618
20962SOL    HW269748   8.087   9.791   0.487 -0.4073  0.4126 -0.7758
20963SOL     OW69749   6.828   0.222   4.061 -0.3131  0.0742  0.2758
20963SOL    HW169750   6.891   0.160   4.023  0.9110  1.4234  0.0125
20963SOL    HW269751   6.855   0.230   4.153  0.8079  1.6665 -0.1457
20964SOL     OW69752   4.504   3.373   5.751  0.3485 -0.3622  0.1988
20964SOL    HW169753   4.430   3.433   5.751 -0.4472 -1.3213 -0.1505
20964SOL    HW269754   4.555   3.398   5.674 -0.6046 -0.8715 -0.6183
20965SOL     OW69755   8.554  11.158   8.335  0.0410 -0.0127  0.2502
20965SOL    HW169756   8.517  11.245   8.317  0.3550 -0.1909 -1.4586
20965SOL    HW269757   8.564  11.155   8.430  0.1086  1.8526  0.3360
20966SOL     OW69758   8.672  10.662   6.639 -0.7107 -0.1054  0.4698
20966SOL    HW169759   8.639  10.642   6.551  0.0802  1.6702 -0.2829
20966SOL    HW269760   8.715  10.747   6.629  1.7875 -1.0897  1.9662
20967SOL     OW69761   5.608  11.657   7.057  0.2062 -0.0817  0.0748
20967SOL    HW169762   5.547  11.720   7.096  2.8031  0.8615  3.1038
20967SOL    HW269763   5.552  11.591   7.017 -2.7159  1.9360  0.5138
20968SOL     OW69764   9.011   4.942   6.492  0.3083 -0.3382 -0.0714
20968SOL    HW169765   8.924   4.962   6.459  0.1073  1.0415  1.1920
20968SOL    HW269766   9.002   4.857   6.535  0.3686 -1.7091 -2.6271
20969SOL     OW69767   3.378   4.081   7.632 -0.2648 -0.3425 -0.1567
20969SOL    HW169768   3.465   4.109   7.604 -0.5285 -0.9533 -1.7179
20969SOL    HW269769   3.391   4.045   7.719  1.1840 -1.0323 -0.6277
20970SOL     OW69770  12.356   0.953   2.569  0.0155  0.3242  0.5244
20970SOL    HW169771  12.340   0.986   2.481  3.8503 -0.2108 -0.5661
20970SOL    HW269772  12.372   1.031   2.622 -2.8165  0.6807  1.0003
20971SOL     OW69773   6.301   7.412   4.564 -0.9266  0.0425 -0.7520
20971SOL    HW169774   6.295   7.505   4.543  2.1680 -0.0748 -2.8142
20971SOL    HW269775   6.335   7.410   4.653 -1.1288  0.8880 -0.6450
20972SOL     OW69776   2.139   0.144   0.969 -0.3761 -0.4248 -0.5360
20972SOL    HW169777   2.172   0.099   1.046  0.2392  0.0304 -0.5259
20972SOL    HW269778   2.086   0.078   0.923 -0.5947 -0.7510  0.1691
20973SOL     OW69779   7.039  10.637   3.449 -0.0538 -0.3129  0.3511
20973SOL    HW169780   7.043  10.569   3.381 -1.0860  2.2631 -2.5250
20973SOL    HW269781   6.976  10.603   3.513  0.8252 -2.7855  0.0057
20974SOL     OW69782  10.029   1.208   4.885 -0.1368 -0.2838 -0.5867
20974SOL    HW169783   9.998   1.274   4.824 -0.9999 -0.2767 -0.1569
20974SOL    HW269784  10.076   1.145   4.830 -2.6219 -1.3774 -1.6256
20975SOL     OW69785   2.047   4.105   8.928  0.7694  0.4521  0.2263
20975SOL    HW169786   2.033   4.128   8.836 -1.5808 -0.2793  0.3331
20975SOL    HW269787   2.073   4.187   8.969  0.2195  1.1729 -0.8129
20976SOL     OW69788   3.447   4.520   1.608  0.2694  0.3148  0.3966
20976SOL    HW169789   3.390   4.524   1.531 -1.9054 -0.8472  1.8201
20976SOL    HW269790   3.505   4.446   1.592 -0.1653  0.0805 -0.1141
20977SOL     OW69791  10.083   6.060   5.867  0.3298 -0.3701  0.0838
20977SOL    HW169792  10.148   6.130   5.872 -0.0292  0.4838 -3.7641
20977SOL    HW269793  10.000   6.105   5.853 -0.5081 -1.5240  1.2009
20978SOL     OW69794   3.453   5.865   5.812 -0.0649 -0.4825  0.1093
20978SOL    HW169795   3.435   5.775   5.841 -0.9057 -0.2015  0.5003
20978SOL    HW269796   3.404   5.920   5.873  0.4446  0.2435 -0.1271
20979SOL     OW69797  10.982   8.523   4.062  0.8302 -0.6971  0.1672
20979SOL    HW169798  10.906   8.549   4.009 -0.2930 -2.0231  1.0380
20979SOL    HW269799  11.005   8.436   4.029  1.7477 -0.4506  0.1538
20980SOL     OW69800   2.858   0.141   2.447  0.3395  0.4071  0.0563
20980SOL    HW169801   2.838   0.231   2.472  2.8202  1.1479 -0.3467
20980SOL    HW269802   2.819   0.088   2.516  1.5652  2.0120  2.1083
20981SOL     OW69803   8.319   0.162  10.187 -0.0085  0.3733 -0.0568
20981SOL    HW169804   8.413   0.176  10.191 -0.2010  1.3358  2.0481
20981SOL    HW269805   8.281   0.238  10.229 -1.9260  1.3660 -3.2017
20982SOL     OW69806   4.942   2.896   6.575 -0.1599  0.6629 -0.3015
20982SOL    HW169807   4.966   2.910   6.483  0.2546  2.0391 -0.0122
20982SOL    HW269808   4.846   2.905   6.576  0.0155  3.1393 -0.2508
20983SOL     OW69809  12.069   0.146  12.145  0.0974  0.0234  0.2447
20983SOL    HW169810  12.164   0.147  12.156  0.3710  0.3900 -1.7631
20983SOL    HW269811  12.040   0.230  12.179  0.3830 -0.3431  1.4558
20984SOL     OW69812   1.840   8.101  10.601  0.3836  0.0414  0.0282
20984SOL    HW169813   1.793   8.078  10.521 -0.1772  1.5792 -0.1101
20984SOL    HW269814   1.843   8.196  10.601 -0.4777  0.1423  2.3237
20985SOL     OW69815   1.935  10.483   5.576 -0.5964 -0.2158  0.2354
20985SOL    HW169816   1.997  10.430   5.526 -0.6084  0.8947 -1.0384
20985SOL    HW269817   1.900  10.545   5.512  0.7957  2.5686  1.9531
20986SOL     OW69818   5.393   9.330   6.145 -0.0761 -0.1705  0.6201
20986SOL    HW169819   5.384   9.423   6.126 -1.6533 -0.6607 -1.3213
20986SOL    HW269820   5.473   9.324   6.198  0.2959  2.2100  0.4272
20987SOL     OW69821   9.604   4.510   4.415 -0.1311  0.6808 -0.2862
20987SOL    HW169822   9.614   4.598   4.450 -0.0266 -0.1562  1.9038
20987SOL    HW269823   9.686   4.493   4.368  0.2691  1.3608  0.1580
20988SOL     OW69824  10.738   1.651   5.710  0.3080  0.2355 -0.0930
20988SOL    HW169825  10.791   1.666   5.788 -0.5665  2.2151  0.1793
20988SOL    HW269826  10.801   1.631   5.642  1.1804 -0.2733  0.8321
20989SOL     OW69827   9.747   3.111   2.932 -0.4740  0.0864 -0.1578
20989SOL    HW169828   9.763   3.088   3.023  0.1308 -0.3945 -0.3840
20989SOL    HW269829   9.756   3.029   2.884  0.7699  0.6077 -0.8534
20990SOL     OW69830   1.659  12.065   1.370 -0.5757 -0.1641 -0.3972
20990SOL    HW169831   1.597  12.001   1.406 -1.8285  0.3219 -1.6263
20990SOL    HW269832   1.720  12.013   1.318  0.1593 -0.6565  0.8934
20991SOL     OW69833  11.994   3.093   4.409 -0.3680  0.7513 -0.3513
20991SOL    HW169834  11.954   3.181   4.409 -2.5685 -0.1799 -0.4748
20991SOL    HW269835  11.922   3.035   4.433  1.3453 -0.9274  0.9555
20992SOL     OW69836   0.249   4.033   9.223  0.1464 -0.3865 -0.0598
20992SOL    HW169837   0.301   4.101   9.266 -1.5401  0.2394  1.0940
20992SOL    HW269838   0.220   3.976   9.295  3.0210 -3.5344 -1.1338
20993SOL     OW69839   7.973   5.018   1.625 -0.4425  0.3901  0.5242
20993SOL    HW169840   7.914   5.000   1.552  1.0659  1.5123 -1.0526
20993SOL    HW269841   8.012   4.933   1.646  1.0010  0.4015 -1.7542
20994SOL     OW69842   0.364   2.452   4.517  0.3466  0.2639  0.2726
20994SOL    HW169843   0.304   2.419   4.450 -1.8670 -0.6740  2.5344
20994SOL    HW269844   0.390   2.539   4.485  1.0397 -0.9009 -2.6835
20995SOL     OW69845   2.321  12.116   3.958  0.4511  0.6585 -0.1102
20995SOL    HW169846   2.329  12.107   4.053 -0.0194 -1.6442 -0.2324
20995SOL    HW269847   2.251  12.179   3.946 -0.6192 -0.2408  1.1195
20996SOL     OW69848   5.305   5.614   2.782 -0.0775  0.1992  0.2391
20996SOL    HW169849   5.317   5.528   2.822  1.6575  0.5499  0.5218
20996SOL    HW269850   5.259   5.665   2.849 -1.0909 -0.4666  0.0799
20997SOL     OW69851   7.954   6.952   8.830 -0.2192  0.0397 -0.2052
20997SOL    HW169852   7.874   6.954   8.778 -0.1169  0.4598 -0.3533
20997SOL    HW269853   8.024   6.936   8.765 -0.1595 -0.0729 -0.1125
20998SOL     OW69854   8.878  12.241   7.749 -0.1936 -0.0226  0.2075
20998SOL    HW169855   8.886  12.295   7.670  1.0241  0.1527  0.4231
20998SOL    HW269856   8.862  12.305   7.819  0.3767 -0.0109  0.3334
20999SOL     OW69857   2.433   6.933   3.185 -0.8437  0.1415  0.4542
20999SOL    HW169858   2.381   6.962   3.110 -1.4933  0.4856  1.0230
20999SOL    HW269859   2.431   7.007   3.246  1.5957  0.7837 -0.1197
21000SOL     OW69860   6.060   3.957   1.375 -0.0205 -0.5722 -1.0162
21000SOL    HW169861   6.138   4.005   1.404  0.3510 -1.0394 -1.2280
21000SOL    HW269862   6.018   4.015   1.312 -0.5436  0.2294  0.0319
21001SOL     OW69863  11.776   3.647   3.323  0.3699  0.3133 -0.5866
21001SOL    HW169864  11.748   3.568   3.275  1.9399  0.3370 -1.5998
21001SOL    HW269865  11.793   3.616   3.412 -1.2647 -0.0019 -0.3451
21002SOL     OW69866   1.128  10.438   2.158  0.7236  0.2935 -0.1012
21002SOL    HW169867   1.081  10.364   2.198  1.0684 -0.4027 -0.9548
21002SOL    HW269868   1.218  10.428   2.189  0.4297  1.3795  1.1873
21003SOL     OW69869   0.448   5.335  12.448 -0.0739 -0.1613 -0.1161
21003SOL    HW169870   0.542   5.342  12.464 -0.2129  2.5965 -0.0921
21003SOL    HW269871   0.442   5.280  12.370  1.6054  0.1320 -0.5076
21004SOL     OW69872  11.744   9.668   4.033  0.1880  0.6975  0.2822
21004SOL    HW169873  11.660   9.651   4.074 -1.0860 -2.1378 -2.9519
21004SOL    HW269874  11.801   9.597   4.063 -0.5228 -0.9316 -1.9043
21005SOL     OW69875   5.439  11.677   7.667 -0.2541  0.1959 -0.2166
21005SOL    HW169876   5.431  11.766   7.632 -0.0295 -0.4439 -2.0251
21005SOL    HW269877   5.516  11.641   7.622  0.4744 -0.4843  1.5007
21006SOL     OW69878  10.033   2.122   2.065 -0.2144 -0.4180 -0.3414
21006SOL    HW169879  10.045   2.037   2.022  0.4452 -0.8241  0.6045
21006SOL    HW269880   9.938   2.136   2.065 -0.2035 -0.0570 -2.5454
21007SOL     OW69881   5.442   9.058   1.184 -0.3301 -0.1860 -0.5192
21007SOL    HW169882   5.354   9.042   1.219 -1.2051  1.9353 -1.5270
21007SOL    HW269883   5.436   9.027   1.093  0.5171 -1.5124 -0.1558
21008SOL     OW69884  12.408   5.668   7.763  0.1125  0.4107  0.1485
21008SOL    HW169885  12.365   5.650   7.847 -0.8862 -1.5721 -0.7343
21008SOL    HW269886  12.385   5.594   7.707  1.3062  1.3458 -1.6938
21009SOL     OW69887   2.110   4.617   3.152  0.4574 -0.0365 -0.6398
21009SOL    HW169888   2.192   4.617   3.103  1.3805  0.2129  0.8644
21009SOL    HW269889   2.080   4.708   3.150  0.5953  0.0098 -0.5799
21010SOL     OW69890   9.596   9.983   8.983  0.6924 -0.3215  0.2583
21010SOL    HW169891   9.637   9.976   8.897  1.3763 -1.7741  0.6882
21010SOL    HW269892   9.638  10.059   9.024 -0.5229  1.1857 -1.1166
21011SOL     OW69893   4.415   2.489   5.238 -0.0379  0.1854  0.8364
21011SOL    HW169894   4.494   2.460   5.283  1.1434  1.7975 -0.1002
21011SOL    HW269895   4.395   2.418   5.177  1.8947  0.5695 -0.3358
21012SOL     OW69896   1.322   8.352   7.626  0.1810 -0.0780 -0.3496
21012SOL    HW169897   1.239   8.308   7.610  0.3329 -1.1219  1.5045
21012SOL    HW269898   1.358   8.310   7.704  1.3766  1.8803  0.2472
21013SOL     OW69899  10.560   3.580  12.301 -0.6021  0.1035 -0.0975
21013SOL    HW169900  10.650   3.547  12.308 -0.6505  0.1715  1.1275
21013SOL    HW269901  10.560   3.661  12.351 -1.1752  0.4959 -0.7219
21014SOL     OW69902   9.755   7.851   9.686 -0.2273  0.1652 -0.1354
21014SOL    HW169903   9.719   7.766   9.708 -0.7389  0.1677 -0.9310
21014SOL    HW269904   9.850   7.841   9.696 -0.1671 -0.8947 -1.5380
21015SOL     OW69905   3.436   4.392  11.651  0.0008  0.2424  0.0974
21015SOL    HW169906   3.445   4.355  11.563  1.2715 -0.5217  0.5101
21015SOL    HW269907   3.401   4.480  11.637 -1.9500 -0.6591 -1.0056
21016SOL     OW69908   3.421   5.071  12.027  0.1118  0.0951 -0.2018
21016SOL    HW169909   3.366   5.143  11.997  0.9250  0.7630 -0.1277
21016SOL    HW269910   3.510   5.097  12.002  0.7360  0.3154  2.0663
21017SOL     OW69911   2.655   0.115   3.051 -0.0316 -0.1245 -0.5281
21017SOL    HW169912   2.726   0.158   3.004 -0.0040 -0.3257 -0.6750
21017SOL    HW269913   2.618   0.053   2.987  0.9843 -1.5039  0.1518
21018SOL     OW69914  11.596   1.653   5.512  0.4157 -0.3483  0.0316
21018SOL    HW169915  11.624   1.695   5.593  0.0818 -0.7950  0.3886
21018SOL    HW269916  11.612   1.718   5.444 -0.0088  0.3207  0.5567
21019SOL     OW69917   3.462   7.355   6.328  0.0770 -0.7348  0.0640
21019SOL    HW169918   3.470   7.317   6.240 -1.6299 -2.2334  0.4942
21019SOL    HW269919   3.478   7.449   6.315 -1.9298 -0.6017 -2.2143
21020SOL     OW69920   9.605   7.364   4.896 -0.7499 -0.0669  0.0486
21020SOL    HW169921   9.625   7.450   4.858 -0.7487  0.3791  1.0195
21020SOL    HW269922   9.670   7.353   4.965 -0.3848 -1.1222 -0.4508
21021SOL     OW69923  10.076  11.618   8.419  0.4103 -0.6409 -0.3904
21021SOL    HW169924  10.142  11.592   8.354 -0.4277 -1.9749 -0.7240
21021SOL    HW269925  10.117  11.598   8.503  1.0009 -0.0856 -0.5346
21022SOL     OW69926   2.679   2.324   3.383  0.3528 -0.0472 -0.3368
21022SOL    HW169927   2.651   2.415   3.374 -0.5377 -0.4499 -2.3761
21022SOL    HW269928   2.707   2.299   3.295  0.2669 -1.8377  0.1056
21023SOL     OW69929   3.737  10.058   0.279 -0.1263 -0.0422  0.0460
21023SOL    HW169930   3.706  10.057   0.370  0.4658 -0.8229  0.2528
21023SOL    HW269931   3.802   9.987   0.276 -0.5911 -0.4325 -1.1375
21024SOL     OW69932  10.412   3.682   7.747  0.0418 -0.4954  0.5270
21024SOL    HW169933  10.436   3.722   7.663 -2.1276  1.3213  0.6785
21024SOL    HW269934  10.430   3.589   7.736  1.7906 -0.0235 -1.1855
21025SOL     OW69935   3.258  12.153   1.554 -0.7073 -0.2200 -0.1554
21025SOL    HW169936   3.240  12.247   1.552 -1.1098 -0.0566  3.4186
21025SOL    HW269937   3.175  12.113   1.580 -0.3557 -1.5031 -0.9282
21026SOL     OW69938   9.027   4.873   2.874  0.3473 -1.0485 -0.3176
21026SOL    HW169939   9.103   4.893   2.930 -1.9629  0.0304  2.7093
21026SOL    HW269940   9.007   4.956   2.831  0.1128 -0.9847 -0.0859
21027SOL     OW69941  11.705   4.109   3.553 -0.0826 -0.6160  0.0491
21027SOL    HW169942  11.706   4.021   3.516  0.1497 -0.7768  0.4258
21027SOL    HW269943  11.669   4.097   3.641 -0.2427 -0.3024  0.0256
21028SOL     OW69944   7.033   6.813  11.079  0.5536  0.2391  0.2069
21028SOL    HW169945   6.958   6.823  11.138  0.2031 -1.1431  0.0273
21028SOL    HW269946   7.096   6.878  11.110 -0.6266  1.3001  0.4812
21029SOL     OW69947   2.032   8.593   4.628  0.0720 -0.0938 -0.2190
21029SOL    HW169948   2.027   8.566   4.720 -0.3452  1.2849  0.1893
21029SOL    HW269949   2.030   8.688   4.631 -1.5207 -0.0327 -1.7454
21030SOL     OW69950   7.563   6.477   1.297 -0.1510 -0.3354 -0.2631
21030SOL    HW169951   7.608   6.451   1.377  0.4245  0.2045 -0.4094
21030SOL    HW269952   7.485   6.525   1.328 -0.9840 -1.7986 -0.0017
21031SOL     OW69953  12.392  11.770   2.736  0.4060  0.1254 -0.4040
21031SOL    HW169954  12.304  11.751   2.704  0.7319 -1.3964 -0.4861
21031SOL    HW269955  12.434  11.819   2.666 -0.2019  0.3876 -0.5857
21032SOL     OW69956   2.963   8.990   7.998  0.0532 -0.2710 -0.6113
21032SOL    HW169957   3.048   9.028   8.020 -0.4019  1.2792 -1.4340
21032SOL    HW269958   2.975   8.956   7.909 -0.6696  1.5764 -1.4528
21033SOL     OW69959   6.380  10.406   7.487  0.2609 -0.4174 -0.5496
21033SOL    HW169960   6.454  10.467   7.491  0.1501 -0.3197  0.1668
21033SOL    HW269961   6.319  10.446   7.426 -0.0826  0.5115  0.3732
21034SOL     OW69962  10.467   0.019   4.492  0.1290 -0.0695 -0.2792
21034SOL    HW169963  10.398  -0.027   4.540 -0.3919 -0.7859 -1.6513
21034SOL    HW269964  10.426   0.042   4.408  2.3123 -3.0151 -2.3441
21035SOL     OW69965   0.346  10.338   5.947 -0.0002 -0.2755 -0.0943
21035SOL    HW169966   0.385  10.425   5.940  1.9620 -1.2091 -2.0893
21035SOL    HW269967   0.363  10.311   6.037  1.6003  0.4689 -0.1426
21036SOL     OW69968  11.257   1.521  10.010  0.0616  0.2094  0.3117
21036SOL    HW169969  11.312   1.444   9.994  1.5202  1.3275 -0.1959
21036SOL    HW269970  11.178   1.505   9.958  1.5735  0.3530 -2.1902
21037SOL     OW69971   3.255  11.234   1.423 -0.0614  0.1910  0.0088
21037SOL    HW169972   3.280  11.255   1.334 -0.4325  0.5911 -0.0038
21037SOL    HW269973   3.242  11.319   1.465  0.7503  0.0213  0.6288
21038SOL     OW69974   5.885  10.210  11.350  0.1308 -0.6829  0.2733
21038SOL    HW169975   5.961  10.248  11.306  1.1245 -2.3335  0.4572
21038SOL    HW269976   5.921  10.174  11.431 -1.2941  0.4862  1.4843
21039SOL     OW69977   9.192   2.965   6.468 -0.1071 -0.2037  0.4506
21039SOL    HW169978   9.200   2.875   6.438 -1.5801  0.3583 -1.9413
21039SOL    HW269979   9.103   2.972   6.502 -0.3447  0.5373 -0.2698
21040SOL     OW69980  10.868  10.431  11.138  0.0751 -0.0750 -0.6704
21040SOL    HW169981  10.866  10.342  11.101  0.4417 -0.6464  0.6184
21040SOL    HW269982  10.848  10.419  11.230  2.2054  0.9235 -0.0108
21041SOL     OW69983   1.771   8.196  10.884 -0.2566  0.8393  0.1894
21041SOL    HW169984   1.854   8.241  10.899 -0.3203  1.1137 -0.2397
21041SOL    HW269985   1.768   8.183  10.789 -1.0221  1.4630  0.1130
21042SOL     OW69986   2.040   2.085   0.255 -0.2437  0.1740 -0.4301
21042SOL    HW169987   2.096   2.023   0.303 -0.0776  0.9187  0.3589
21042SOL    HW269988   1.954   2.044   0.255 -0.4617  0.5462  1.3078
21043SOL     OW69989   9.604   8.077  12.110 -0.0583  0.3095  0.2795
21043SOL    HW169990   9.583   7.986  12.133 -1.4736  0.6928  0.5813
21043SOL    HW269991   9.696   8.074  12.082 -0.2319 -1.3060 -0.2156
21044SOL     OW69992   5.157   1.864   1.383 -0.5571 -0.6085  0.1244
21044SOL    HW169993   5.211   1.942   1.372  1.0657 -1.5755  1.0088
21044SOL    HW269994   5.161   1.820   1.298  0.0392 -0.6672  0.1826
21045SOL     OW69995   3.471   5.581   6.117 -0.4620 -0.1446 -0.3414
21045SOL    HW169996   3.529   5.642   6.162  2.3018 -1.7080 -1.5148
21045SOL    HW269997   3.460   5.508   6.178 -1.4722  0.2544 -0.0241
21046SOL     OW69998   8.513   1.476   7.037  0.0460 -0.0314  0.4133
21046SOL    HW169999   8.520   1.570   7.056 -1.4075 -0.1527  1.7475
21046SOL    HW270000   8.562   1.465   6.955 -0.6677  2.0920 -0.3906
21047SOL     OW70001   6.211   4.423  10.289  0.6596  0.2609 -0.1321
21047SOL    HW170002   6.235   4.470  10.369 -0.9469  0.9035  0.0074
21047SOL    HW270003   6.185   4.491  10.228 -2.6881 -0.3926  0.3957
21048SOL     OW70004  11.289   3.381   6.139  0.4162 -0.5496  0.2891
21048SOL    HW170005  11.373   3.365   6.182  1.6238  0.6250 -1.5036
21048SOL    HW270006  11.301   3.351   6.049 -0.3779  1.4504 -0.5425
21049SOL     OW70007   1.126   3.595   0.434  0.2403  0.3845  0.2068
21049SOL    HW170008   1.105   3.640   0.516  0.9449  1.7790 -0.3574
21049SOL    HW270009   1.056   3.621   0.375 -0.6647 -1.1835  0.5203
21050SOL     OW70010   2.246   7.202  12.008 -0.3412 -0.3828  1.0797
21050SOL    HW170011   2.278   7.117  11.977  1.5645  0.5560  0.3081
21050SOL    HW270012   2.151   7.194  12.007 -0.3007 -1.5879 -1.6916
21051SOL     OW70013   5.137   2.272   1.702  0.5224  0.3360 -0.0749
21051SOL    HW170014   5.166   2.183   1.687 -1.5974 -0.4567  0.1612
21051SOL    HW270015   5.154   2.317   1.619  0.8486 -0.5135 -0.4763
21052SOL     OW70016   2.679   5.030   9.018  0.2305  0.4717  0.1075
21052SOL    HW170017   2.693   4.951   9.071 -1.1708 -0.1835 -0.4552
21052SOL    HW270018   2.622   5.085   9.072  2.6893  2.0186  1.3215
21053SOL     OW70019   5.631   7.296   3.803 -0.1642  0.0206 -0.0302
21053SOL    HW170020   5.583   7.275   3.722  0.5068 -0.3391 -0.3482
21053SOL    HW270021   5.590   7.376   3.835 -3.1188 -1.8755  1.4355
21054SOL     OW70022   3.731  10.246  11.321 -0.6250  0.7253 -0.1578
21054SOL    HW170023   3.714  10.179  11.386  0.7664  1.2045  0.7475
21054SOL    HW270024   3.698  10.209  11.239 -0.0746 -0.9901  0.3512
21055SOL     OW70025   8.412   9.510  10.946  0.1929  0.3273 -0.1233
21055SOL    HW170026   8.418   9.550  11.032 -2.9033  1.2507 -0.2122
21055SOL    HW270027   8.467   9.432  10.952 -0.0808  0.2447  2.7557
21056SOL     OW70028   8.174   3.484   2.745 -0.7734 -0.7489  0.4810
21056SOL    HW170029   8.115   3.409   2.752  2.0563 -3.0472  2.0163
21056SOL    HW270030   8.211   3.493   2.833  0.9385  0.7513 -0.3435
21057SOL     OW70031   1.792  11.420   7.826  0.0008 -0.2532  1.0588
21057SOL    HW170032   1.851  11.387   7.894 -0.5093  0.2747  1.7751
21057SOL    HW270033   1.837  11.401   7.744  0.8086 -0.5625  1.5592
21058SOL     OW70034   4.614   7.819   8.838 -0.6033  0.6020  0.1873
21058SOL    HW170035   4.544   7.758   8.859 -0.2361 -0.4065 -1.3376
21058SOL    HW270036   4.644   7.793   8.751  2.4314  0.2282  1.2070
21059SOL     OW70037   5.314   8.289  10.685  0.1896 -0.1365 -0.0120
21059SOL    HW170038   5.257   8.264  10.612 -0.1598 -0.7665  0.4621
21059SOL    HW270039   5.298   8.222  10.751  0.0713  0.7550  0.8727
21060SOL     OW70040   5.489   6.620   8.219  0.6014  0.4280  0.5765
21060SOL    HW170041   5.452   6.673   8.290 -0.8958 -0.5848  0.5896
21060SOL    HW270042   5.416   6.605   8.159  0.6982 -2.3808  1.0448
21061SOL     OW70043   9.757   9.295  10.193 -0.6065 -0.1671  0.2526
21061SOL    HW170044   9.730   9.207  10.166  1.1607  0.0813 -2.8320
21061SOL    HW270045   9.815   9.280  10.268 -0.9086 -1.5776  0.2394
21062SOL     OW70046   1.842   3.819   0.634  0.3932  0.2785  0.3363
21062SOL    HW170047   1.799   3.735   0.620  2.5729 -1.1055  1.3189
21062SOL    HW270048   1.870   3.845   0.546  1.7089 -1.2545  0.2367
21063SOL     OW70049  11.978   5.897   6.488  0.5179  0.6297 -0.1458
21063SOL    HW170050  12.063   5.861   6.463  0.3226  0.6967 -0.9229
21063SOL    HW270051  11.943   5.935   6.408 -0.7729 -0.4438 -0.1270
21064SOL     OW70052   6.238   2.238   1.750  0.0181  0.6124  0.2372
21064SOL    HW170053   6.148   2.260   1.728 -0.3248 -0.3900  0.5765
21064SOL    HW270054   6.250   2.271   1.839 -1.1139 -2.0845  1.5124
21065SOL     OW70055   9.810  12.047  11.560  0.5593  0.5660  0.8077
21065SOL    HW170056   9.760  12.115  11.515  0.5111 -0.6182 -1.0386
21065SOL    HW270057   9.839  12.088  11.641  0.3091  2.6840 -0.1131
21066SOL     OW70058   0.861   7.972   0.754  0.4890 -0.1134  0.7772
21066SOL    HW170059   0.853   7.903   0.689 -0.3597  1.1933 -0.5639
21066SOL    HW270060   0.835   7.931   0.836 -2.4932 -0.8216 -0.3947
21067SOL     OW70061   3.136   5.651   4.741 -0.5590 -0.6968  0.2226
21067SOL    HW170062   3.077   5.720   4.711 -0.7563 -0.4549  1.1246
21067SOL    HW270063   3.132   5.656   4.837 -1.4285 -2.6992  0.3369
21068SOL     OW70064   2.661   0.598  12.320  0.2253 -0.3378 -0.2436
21068SOL    HW170065   2.721   0.671  12.303 -0.9061  0.4449 -1.0499
21068SOL    HW270066   2.594   0.636  12.378 -0.3847 -0.7176 -0.6922
21069SOL     OW70067   3.141  10.797   7.268 -0.3667  0.3202  0.1531
21069SOL    HW170068   3.064  10.749   7.299  0.5826 -2.2094 -1.1400
21069SOL    HW270069   3.212  10.768   7.326  0.1044  0.7440 -0.2048
21070SOL     OW70070   3.094   0.961  11.475  0.4083 -0.3957 -0.3973
21070SOL    HW170071   3.039   1.038  11.462  0.7771  0.0165  0.3887
21070SOL    HW270072   3.041   0.888  11.444  0.2327  0.2181 -1.5804
21071SOL     OW70073  11.968  11.551   5.835 -0.2935 -0.2630  0.6820
21071SOL    HW170074  11.946  11.607   5.909 -0.6602 -0.2258  0.5503
21071SOL    HW270075  12.053  11.583   5.805 -1.7513  2.2029 -1.2063
21072SOL     OW70076   1.712   9.232  10.944 -0.0040  0.4249 -0.4374
21072SOL    HW170077   1.784   9.217  11.005 -0.0061  2.8984  0.2624
21072SOL    HW270078   1.737   9.183  10.866  0.8114 -1.4238  0.9076
21073SOL     OW70079  11.904   3.103   0.943  0.3968  0.1726  0.2357
21073SOL    HW170080  11.906   3.164   0.869  1.2751 -0.0781  0.0510
21073SOL    HW270081  11.987   3.056   0.938 -0.3341 -1.1736  0.2696
21074SOL     OW70082   1.026   1.626  11.778 -0.3460 -0.5868  0.7255
21074SOL    HW170083   1.074   1.603  11.858  2.6060  1.9970 -0.0771
21074SOL    HW270084   1.046   1.556  11.717 -0.2848 -1.1864  1.4213
21075SOL     OW70085   3.479   9.135   4.975 -0.6519  0.1553 -0.2723
21075SOL    HW170086   3.446   9.057   4.931  0.0803 -0.6257  0.5128
21075SOL    HW270087   3.559   9.158   4.927 -0.2936 -0.2178  0.1325
21076SOL     OW70088   0.131   9.918  12.360 -0.3268  0.2945  0.2922
21076SOL    HW170089   0.204   9.979  12.371  0.0400  0.5739 -2.8183
21076SOL    HW270090   0.054   9.968  12.387  0.3019  1.0120  0.8108
21077SOL     OW70091  10.352   0.551   4.778  0.8895 -0.2998  0.0193
21077SOL    HW170092  10.344   0.456   4.789  0.8518 -0.3340 -0.3020
21077SOL    HW270093  10.266   0.584   4.803  0.1075 -0.5565 -2.1063
21078SOL     OW70094   2.388   0.212   3.010  0.6307  0.2724 -0.7764
21078SOL    HW170095   2.363   0.128   2.971 -1.9258  0.3517  0.4823
21078SOL    HW270096   2.483   0.208   3.018  0.4912 -3.0618  0.4410
21079SOL     OW70097   5.885   8.369   9.144 -0.1484 -0.8930  0.1295
21079SOL    HW170098   5.969   8.326   9.158  0.1505 -0.5996 -0.6860
21079SOL    HW270099   5.878   8.432   9.216  1.4239  0.7192 -1.0452
21080SOL     OW70100   3.902   5.837   0.664 -0.2364  0.0050 -0.7302
21080SOL    HW170101   3.940   5.763   0.711 -2.1485 -0.2217  0.5684
21080SOL    HW270102   3.813   5.808   0.643 -1.1024  1.9860 -0.0084
21081SOL     OW70103   2.981   7.350   5.472 -0.0327 -0.5896  0.9182
21081SOL    HW170104   2.945   7.261   5.463 -1.7505  0.2103 -0.8067
21081SOL    HW270105   3.065   7.346   5.427 -0.3121 -1.2289  0.4250
21082SOL     OW70106  10.757   4.080  11.298  0.2216 -0.5162 -0.6123
21082SOL    HW170107  10.811   4.146  11.255  0.6554  0.1313  0.8317
21082SOL    HW270108  10.799   3.997  11.277  0.0414 -0.2907 -1.9312
21083SOL     OW70109  11.653   8.102   8.816 -0.2142  0.0953  0.0116
21083SOL    HW170110  11.566   8.076   8.787  0.0262 -0.4828 -0.2010
21083SOL    HW270111  11.709   8.087   8.740  0.2040 -0.2390  0.3832
21084SOL     OW70112   3.520   0.391  12.390 -0.3239 -0.7665  0.1922
21084SOL    HW170113   3.523   0.296  12.374 -1.9708 -0.8146  0.0177
21084SOL    HW270114   3.575   0.428  12.320 -1.2655 -1.4881 -0.9751
21085SOL     OW70115   3.100   5.340   1.858  0.7045  0.3343 -0.0252
21085SOL    HW170116   3.094   5.342   1.954  1.7024  0.5795  0.0454
21085SOL    HW270117   3.015   5.307   1.829  0.8880 -1.1638  1.0162
21086SOL     OW70118   0.864  11.571  10.790  0.1093  0.0599  0.0139
21086SOL    HW170119   0.951  11.584  10.752 -0.2751  0.7843 -0.6626
21086SOL    HW270120   0.834  11.488  10.754 -0.3857  0.8990 -1.5893
21087SOL     OW70121   3.603   2.128   3.146 -0.1776 -0.2059  0.2356
21087SOL    HW170122   3.575   2.038   3.159 -0.7767 -0.2654 -1.3362
21087SOL    HW270123   3.551   2.160   3.073  0.2509  1.3246  0.5559
21088SOL     OW70124   4.148  10.827  10.941  0.3636  0.2989 -0.1705
21088SOL    HW170125   4.214  10.896  10.944  0.8053 -0.1702  1.5163
21088SOL    HW270126   4.095  10.840  11.020  0.1691 -1.0069 -0.0659
21089SOL     OW70127   5.578   6.663   0.568  0.2795  0.2342 -0.6170
21089SOL    HW170128   5.585   6.720   0.644 -0.2340  0.2107 -0.5491
21089SOL    HW270129   5.486   6.637   0.565  0.1394  0.8041 -1.6514
21090SOL     OW70130   6.966   1.531   3.933 -0.2640  0.2031  0.3292
21090SOL    HW170131   6.907   1.522   4.008 -1.8131  3.0010 -0.4059
21090SOL    HW270132   6.942   1.460   3.874  0.6377 -1.7316  2.1877
21091SOL     OW70133  11.956   8.986   6.015 -0.9459  0.1119  0.3942
21091SOL    HW170134  11.923   8.996   6.104 -3.2266  1.5303 -0.5271
21091SOL    HW270135  12.013   8.909   6.020  0.7580  1.3596  3.4920
21092SOL     OW70136  11.866   0.149   6.401 -0.1014 -0.0791  0.0003
21092SOL    HW170137  11.811   0.178   6.329  0.2316 -2.4127 -1.2981
21092SOL    HW270138  11.924   0.223   6.418 -2.5045  1.8588  0.3604
21093SOL     OW70139   3.308   0.897   3.307  0.1661  0.2013 -0.1206
21093SOL    HW170140   3.268   0.984   3.318 -1.4913 -0.6483  1.1059
21093SOL    HW270141   3.288   0.873   3.216 -1.4654  0.1742  0.2018
21094SOL     OW70142   6.836  10.137   3.590  0.0033  0.3022 -0.2118
21094SOL    HW170143   6.914  10.102   3.634 -0.6489 -2.6019 -1.1495
21094SOL    HW270144   6.865  10.156   3.501  0.2835  2.0687  0.2162
21095SOL     OW70145   2.018   0.913  11.859 -0.2076 -0.1413  0.2185
21095SOL    HW170146   2.007   0.938  11.767 -0.0763  1.2006  0.5380
21095SOL    HW270147   2.019   0.997  11.906  0.2077 -0.7816  1.3896
21096SOL     OW70148   5.991   8.854  11.063 -0.2465 -0.1580 -0.3186
21096SOL    HW170149   5.932   8.907  11.116 -0.7775 -0.1233 -0.9277
21096SOL    HW270150   6.077   8.894  11.075 -0.7136  1.1864 -1.1599
21097SOL     OW70151   8.811   4.967   6.977  0.4802 -0.0708  0.1038
21097SOL    HW170152   8.748   4.984   6.906  0.5889  0.8160  0.2072
21097SOL    HW270153   8.843   4.879   6.959 -0.6201 -0.4534 -0.0846
21098SOL     OW70154  10.754   1.031  11.907  0.1641 -0.2358 -0.1979
21098SOL    HW170155  10.680   1.084  11.877  0.9558  0.9957 -0.0286
21098SOL    HW270156  10.815   1.031  11.833 -0.2202 -1.7310 -0.5569
21099SOL     OW70157  10.440   1.379   9.287 -0.3337  0.3441  0.4215
21099SOL    HW170158  10.521   1.334   9.263 -0.8465 -1.4811  1.8824
21099SOL    HW270159  10.371   1.315   9.270 -1.2901  1.2398  0.8143
21100SOL     OW70160   5.131   0.357   3.179  0.2542  0.0343  0.5993
21100SOL    HW170161   5.036   0.365   3.171  0.3171  1.0184  0.8017
21100SOL    HW270162   5.166   0.424   3.121  0.8329 -0.2496  0.6145
21101SOL     OW70163   9.709   5.350   8.600 -0.8124  0.2299  0.2231
21101SOL    HW170164   9.638   5.317   8.544  0.0148  2.9715 -2.7490
21101SOL    HW270165   9.788   5.309   8.564 -0.5530 -0.5949  1.6682
21102SOL     OW70166   9.962   2.090   7.493  0.4100 -0.7399 -0.4642
21102SOL    HW170167   9.983   2.005   7.453 -0.1156 -0.7848 -0.6556
21102SOL    HW270168   9.867   2.094   7.490  0.4661  0.2311 -1.2141
21103SOL     OW70169   5.150   3.079  11.093 -0.2771 -0.0254  0.6536
21103SOL    HW170170   5.160   3.019  11.019  0.4422  0.5453  0.2773
21103SOL    HW270171   5.145   3.022  11.169  1.5606 -0.5561  0.4332
21104SOL     OW70172  11.078   9.384   7.732  0.9233  0.4673 -0.4247
21104SOL    HW170173  11.036   9.303   7.763  1.3859  0.9496  1.6572
21104SOL    HW270174  11.127   9.358   7.654 -1.6604 -0.5073 -1.8236
21105SOL     OW70175   7.334   5.221   9.914  0.0773  0.2627  0.1492
21105SOL    HW170176   7.341   5.163   9.990 -1.1878  0.3074  0.3100
21105SOL    HW270177   7.292   5.167   9.847 -2.2944  1.2943  0.6889
21106SOL     OW70178   5.208  10.426   5.475  0.2375  0.2672  0.0115
21106SOL    HW170179   5.281  10.477   5.439  1.0840 -0.7450  0.2730
21106SOL    HW270180   5.138  10.436   5.410 -0.6355  3.9308  1.2197
21107SOL     OW70181   9.271   6.586   2.975 -0.0138 -0.1203 -0.4630
21107SOL    HW170182   9.334   6.520   3.004 -0.8826 -0.3839  0.9038
21107SOL    HW270183   9.186   6.550   3.001 -0.4357  2.1013  1.4550
21108SOL     OW70184   4.108   5.651   6.543  0.1185  0.2469  0.9131
21108SOL    HW170185   4.024   5.608   6.558  0.1663 -0.1724  0.0608
21108SOL    HW270186   4.172   5.580   6.545  0.5245  0.6308  2.0659
21109SOL     OW70187   2.447  12.029  11.883 -0.0793 -0.3605  0.2400
21109SOL    HW170188   2.393  12.107  11.895 -1.0178 -1.1489  1.4249
21109SOL    HW270189   2.396  11.972  11.825 -0.0334 -0.6557  0.4835
21110SOL     OW70190   3.638   5.178   6.100  0.1003 -0.3589 -0.1796
21110SOL    HW170191   3.597   5.111   6.155 -0.0981  0.4507  0.7003
21110SOL    HW270192   3.616   5.261   6.143  1.4551  0.1956 -0.4805
21111SOL     OW70193   5.219   6.848   1.420 -0.1075 -0.4381 -0.2607
21111SOL    HW170194   5.198   6.875   1.331 -0.3045 -1.5587 -0.5783
21111SOL    HW270195   5.305   6.805   1.412 -0.6832 -1.6455 -0.1503
21112SOL     OW70196  11.263   4.812   7.006 -0.3932  0.3165 -0.0430
21112SOL    HW170197  11.272   4.905   7.023  1.7203 -0.1987  2.1166
21112SOL    HW270198  11.184   4.786   7.054 -0.7732  0.9030 -0.3386
21113SOL     OW70199   0.523  10.937  10.707 -0.4499 -0.2699  0.7920
21113SOL    HW170200   0.463  10.863  10.697  1.1232 -1.8526  2.1384
21113SOL    HW270201   0.527  10.977  10.620 -3.9495  0.4294  0.8137
21114SOL     OW70202   6.358   8.399  11.909  0.4215 -0.1797 -0.2303
21114SOL    HW170203   6.404   8.366  11.832 -0.0101 -0.0422 -0.5531
21114SOL    HW270204   6.404   8.361  11.983  1.0942  0.0070 -0.5421
21115SOL     OW70205   0.985   8.038   3.771  0.3864  0.4910 -1.1391
21115SOL    HW170206   0.987   7.998   3.685 -0.2175 -0.8356 -0.5613
21115SOL    HW270207   0.948   8.125   3.756  1.2326  0.6583 -2.3412
21116SOL     OW70208   8.557   3.382   8.385  0.3818 -0.4162 -0.0208
21116SOL    HW170209   8.546   3.333   8.467  1.8219  0.9064  1.0132
21116SOL    HW270210   8.640   3.428   8.395 -0.8758  2.2354 -0.9356
21117SOL     OW70211   1.975   0.353  11.509 -0.1234  0.2004  0.4248
21117SOL    HW170212   1.952   0.390  11.424 -1.3047 -0.7957  0.2768
21117SOL    HW270213   1.895   0.309  11.538  0.2457  0.5449  2.0685
21118SOL     OW70214   0.405   4.404  12.469  0.0092 -0.4717  0.4923
21118SOL    HW170215   0.495   4.421  12.496 -0.3724  4.0025 -0.2951
21118SOL    HW270216   0.355   4.398  12.550  0.7840 -1.7656  0.8964
21119SOL     OW70217   7.312   3.578   0.259  0.0058  0.1919 -0.1232
21119SOL    HW170218   7.315   3.505   0.320  0.7084 -0.3614 -0.7921
21119SOL    HW270219   7.397   3.621   0.269  0.4826 -0.4223 -1.2945
21120SOL     OW70220   5.050   8.891   2.382  0.3485 -0.0130 -0.2379
21120SOL    HW170221   4.976   8.945   2.410  0.0031 -0.3527 -0.4894
21120SOL    HW270222   5.052   8.901   2.286  1.1467  0.6586 -0.1631
21121SOL     OW70223   6.423   1.188   8.095  0.1091  0.6242  0.1712
21121SOL    HW170224   6.327   1.193   8.096  0.0787  0.2225 -0.2515
21121SOL    HW270225   6.447   1.210   8.005  0.5562  2.8986  0.7823
21122SOL     OW70226   1.034   3.151   1.204  0.4042 -0.7158  0.1260
21122SOL    HW170227   1.043   3.133   1.298  2.1571 -0.6694  0.0030
21122SOL    HW270228   1.116   3.121   1.166  0.7517  1.4564 -1.0324
21123SOL     OW70229  12.471   2.937  10.431  0.3622 -0.2101 -0.6248
21123SOL    HW170230  12.498   2.981  10.351 -0.6313  2.0549  0.1917
21123SOL    HW270231  12.548   2.888  10.459  1.6877  1.3025 -1.4605
21124SOL     OW70232   5.400   6.483   7.766  0.7007 -0.1019 -0.0545
21124SOL    HW170233   5.434   6.398   7.795  0.9366  0.6439  2.0203
21124SOL    HW270234   5.439   6.546   7.826  1.6581  1.6965 -2.4009
21125SOL     OW70235   6.160   2.359   5.972  0.3519 -0.0394  0.0402
21125SOL    HW170236   6.093   2.298   5.942  1.1631 -0.6299 -0.6417
21125SOL    HW270237   6.112   2.438   5.998 -0.5256 -0.0659 -1.3885
21126SOL     OW70238   9.145   3.315   0.986 -0.7132 -0.0022 -0.4083
21126SOL    HW170239   9.222   3.323   1.042 -0.3643  1.0637 -1.0151
21126SOL    HW270240   9.077   3.281   1.044 -0.0760  0.0600  0.3970
21127SOL     OW70241   3.989   1.903  12.302  0.3751 -0.4962 -0.2563
21127SOL    HW170242   3.958   1.817  12.330  0.4120 -0.5067 -0.2470
21127SOL    HW270243   3.953   1.964  12.365  0.4248 -0.5153 -0.2093
21128SOL     OW70244   4.521   0.236   7.167 -0.4954 -0.1956 -0.0391
21128SOL    HW170245   4.475   0.153   7.164  0.3305 -0.7542  1.5821
21128SOL    HW270246   4.522   0.266   7.076 -0.0017 -2.4084 -0.8251
21129SOL     OW70247   6.414   6.337   7.736 -0.6237 -0.3859 -0.3856
21129SOL    HW170248   6.322   6.361   7.724 -1.0050 -2.5030 -2.5007
21129SOL    HW270249   6.449   6.405   7.793 -3.3185  0.8731 -0.0598
21130SOL     OW70250   2.366   6.964   4.950  0.1107 -0.6340 -1.1292
21130SOL    HW170251   2.449   6.952   4.997  0.3275  1.0959 -0.9893
21130SOL    HW270252   2.383   6.929   4.863  1.0341 -0.2654 -1.1166
21131SOL     OW70253   7.330   5.836   1.305 -0.4081  0.3437 -0.5606
21131SOL    HW170254   7.272   5.772   1.264  0.3838 -0.6345 -0.2036
21131SOL    HW270255   7.386   5.866   1.233  0.0873 -0.3615 -0.4793
21132SOL     OW70256   4.108   5.289  12.337  0.4130 -0.8001  0.6382
21132SOL    HW170257   4.099   5.248  12.250 -0.4857  1.3885 -0.3666
21132SOL    HW270258   4.036   5.252  12.388 -0.2352 -0.6763 -0.1571
21133SOL     OW70259   8.786   7.024   0.973  0.0884 -0.7301 -0.2627
21133SOL    HW170260   8.703   6.979   0.961 -1.1084  1.2667  0.1472
21133SOL    HW270261   8.776   7.072   1.055  2.5076 -2.1854  1.0197
21134SOL     OW70262   1.204   7.640   6.243  0.1515  0.3161 -0.1792
21134SOL    HW170263   1.237   7.600   6.323  0.1180 -1.3951 -0.9668
21134SOL    HW270264   1.267   7.614   6.175  0.4826  2.1852 -0.6544
21135SOL     OW70265   9.062  10.001   0.795  0.3641  0.0437  0.2366
21135SOL    HW170266   9.139   9.947   0.780  0.2995  0.0690 -0.1807
21135SOL    HW270267   9.055  10.007   0.891 -0.3509 -1.7365  0.3222
21136SOL     OW70268   4.713   4.263   4.180 -0.1907  0.0861  0.1734
21136SOL    HW170269   4.764   4.203   4.126  0.0221 -0.0970  0.5747
21136SOL    HW270270   4.628   4.268   4.136 -0.5301 -1.2471  0.6349
21137SOL     OW70271   2.631   5.111  11.475  0.5125  0.3916  0.6683
21137SOL    HW170272   2.635   5.203  11.449 -1.8753 -0.3605 -3.0448
21137SOL    HW270273   2.548   5.103  11.522  0.8728  0.1665  1.2760
21138SOL     OW70274   0.019   1.709  12.436 -0.9521 -0.2318 -0.0919
21138SOL    HW170275  -0.046   1.643  12.411 -1.1955 -0.3046  0.7107
21138SOL    HW270276   0.033   1.695  12.530 -0.5923  0.5008 -0.0261
21139SOL     OW70277   5.453   1.427   4.924 -0.2054  0.1521  0.4660
21139SOL    HW170278   5.452   1.455   4.832  1.5580 -0.7743  0.1109
21139SOL    HW270279   5.513   1.488   4.967 -0.1789 -0.0709  0.7495
21140SOL     OW70280   3.062   8.175   1.571 -0.4259 -0.0301 -0.4007
21140SOL    HW170281   3.035   8.112   1.504  0.1518 -0.8962  0.1652
21140SOL    HW270282   3.147   8.143   1.602 -1.5262 -0.7774  2.1117
21141SOL     OW70283   8.257   9.377   0.339  0.2622 -0.1209 -0.4113
21141SOL    HW170284   8.256   9.335   0.426 -1.6705  0.9794  0.1552
21141SOL    HW270285   8.194   9.326   0.288 -2.6999  2.2972  0.5071
21142SOL     OW70286   6.992   3.976  10.775 -0.3579  0.1070 -0.2365
21142SOL    HW170287   7.084   3.997  10.788 -0.5963  1.2424 -0.2381
21142SOL    HW270288   6.961   4.043  10.714 -1.7034  1.1749  1.5169
21143SOL     OW70289   0.030   6.788   5.094  0.4604 -0.2498 -0.2783
21143SOL    HW170290  -0.051   6.835   5.075 -0.4110 -1.1375  1.0512
21143SOL    HW270291   0.074   6.781   5.009 -0.7006  0.5172 -0.9723
21144SOL     OW70292   4.849   5.994   4.922  0.0866  0.4312 -0.1423
21144SOL    HW170293   4.794   6.029   4.852 -0.7054  0.6811  0.5824
21144SOL    HW270294   4.920   6.057   4.930  0.1022  0.4784 -0.6197
21145SOL     OW70295   8.191   7.334   4.107 -0.0873  0.8707  0.0607
21145SOL    HW170296   8.235   7.256   4.140  2.2573  0.7075 -3.0260
21145SOL    HW270297   8.248   7.407   4.131 -0.8343  1.3217  0.5160
21146SOL     OW70298   4.212   4.763   6.297 -0.5343  0.3173 -0.1095
21146SOL    HW170299   4.257   4.811   6.366  1.7856 -1.4854 -0.2620
21146SOL    HW270300   4.281   4.714   6.253 -1.8276  1.5281 -3.9041
21147SOL     OW70301   8.917  12.207   6.214 -0.0964 -0.3606  0.2913
21147SOL    HW170302   8.823  12.216   6.229 -0.2594  0.1098 -0.9010
21147SOL    HW270303   8.925  12.187   6.121  1.0453  1.0978  0.0304
21148SOL     OW70304   2.131  12.127   0.147 -0.2660 -0.3783 -0.4381
21148SOL    HW170305   2.160  12.051   0.097  2.9474  0.0956  0.4561
21148SOL    HW270306   2.201  12.191   0.137 -0.1596  0.3363  3.2619
21149SOL     OW70307   8.628   0.008   1.349 -0.2500 -0.2810 -0.2727
21149SOL    HW170308   8.705   0.041   1.301  0.8079  0.1510  1.6033
21149SOL    HW270309   8.563   0.077   1.339  0.7203  0.8171  0.6775
21150SOL     OW70310   2.181   8.470   9.589  0.0861 -0.2470 -0.0406
21150SOL    HW170311   2.192   8.459   9.683 -0.3608 -2.6427 -0.2143
21150SOL    HW270312   2.094   8.507   9.579  0.9971  2.2550  0.5291
21151SOL     OW70313  11.928   3.329   6.857  0.0720  0.8126 -0.6950
21151SOL    HW170314  11.922   3.372   6.942  2.4902 -0.7110  0.3683
21151SOL    HW270315  11.995   3.379   6.809 -0.6858  1.1674 -1.4122
21152SOL     OW70316   0.726   8.958   4.784 -0.2302 -0.1051 -0.1436
21152SOL    HW170317   0.662   8.902   4.828 -2.2227  1.6278 -0.6911
21152SOL    HW270318   0.801   8.900   4.767 -0.6042 -1.5870  2.7328
21153SOL     OW70319   0.494   1.330  10.039 -0.3754 -0.2436  0.2897
21153SOL    HW170320   0.464   1.248  10.000 -2.0377  0.2650  0.4152
21153SOL    HW270321   0.548   1.302  10.113  1.5284 -1.2054 -1.3669
21154SOL     OW70322   5.526   2.705   0.144  0.5730  1.1319  0.3096
21154SOL    HW170323   5.478   2.696   0.061  1.9297  1.5192 -0.5580
21154SOL    HW270324   5.480   2.774   0.191 -2.1228 -1.1712  1.3185
21155SOL     OW70325   4.153   7.034   3.065 -0.2951  0.0344 -0.4108
21155SOL    HW170326   4.066   7.035   3.025 -0.2803  0.4255 -0.4416
21155SOL    HW270327   4.190   6.949   3.042 -0.2598  0.2786 -1.3059
21156SOL     OW70328   7.773   9.330  12.478 -0.4945 -0.8007  0.1819
21156SOL    HW170329   7.815   9.340  12.393 -0.5662  0.7223  0.2913
21156SOL    HW270330   7.790   9.240  12.503 -1.0516 -1.4839 -1.7502
21157SOL     OW70331   2.961   1.166   3.263  0.5451 -0.4258  0.8148
21157SOL    HW170332   2.930   1.237   3.207  1.1579 -2.0529 -1.7923
21157SOL    HW270333   2.885   1.142   3.316 -0.8504 -0.3216 -1.0387
21158SOL     OW70334   2.904   7.346   5.038 -0.1994  0.1126 -0.1324
21158SOL    HW170335   2.839   7.348   5.107  0.2926 -0.1425  0.3514
21158SOL    HW270336   2.950   7.430   5.045 -0.1989  0.1173 -0.1928
21159SOL     OW70337   3.105   3.188  11.879  0.0313 -0.1736  0.0270
21159SOL    HW170338   3.016   3.153  11.886 -0.2872  0.4735 -0.6502
21159SOL    HW270339   3.094   3.283  11.885  0.7963 -0.1388  1.0197
21160SOL     OW70340   6.948   9.785   8.206 -0.6677 -0.4346 -0.0875
21160SOL    HW170341   6.988   9.740   8.131  0.3826  0.1540  0.1016
21160SOL    HW270342   6.862   9.813   8.174 -0.2632 -0.2534 -1.0441
21161SOL     OW70343  11.332  10.184  11.171  0.2288  0.3190 -0.0891
21161SOL    HW170344  11.382  10.232  11.236  0.8449  1.4285 -1.3409
21161SOL    HW270345  11.378  10.100  11.162  0.2620  0.2448  0.7130
21162SOL     OW70346   9.340   4.973   5.334  0.1845  0.2259 -0.4547
21162SOL    HW170347   9.303   4.905   5.278 -0.9193 -0.5235  1.1346
21162SOL    HW270348   9.425   4.938   5.362 -1.3055 -1.6499  2.1858
21163SOL     OW70349   8.054   6.066   9.080 -0.4867  0.4543  0.5922
21163SOL    HW170350   8.035   5.974   9.097 -1.6761  0.4389 -0.6354
21163SOL    HW270351   8.047   6.109   9.165 -2.1511 -0.2458  0.8488
21164SOL     OW70352  12.233  11.937   7.709 -0.2113 -0.1440  0.9225
21164SOL    HW170353  12.311  11.989   7.730  0.1243 -1.3658  2.9790
21164SOL    HW270354  12.181  11.940   7.788 -1.7009 -0.3641 -0.0181
21165SOL     OW70355   6.480   9.289   2.613 -0.0050 -0.6614 -0.1499
21165SOL    HW170356   6.415   9.315   2.548 -0.2385  0.3582  0.4811
21165SOL    HW270357   6.439   9.307   2.698  1.3062  0.5556  0.2624
21166SOL     OW70358   5.188   0.542   0.125 -0.3771  0.4902 -0.0410
21166SOL    HW170359   5.168   0.630   0.091  0.1896  0.3506 -0.7588
21166SOL    HW270360   5.282   0.542   0.139 -0.0538 -0.5840 -1.8427
21167SOL     OW70361   0.418   0.321  11.776 -0.3007  1.0589  0.2218
21167SOL    HW170362   0.502   0.277  11.788 -0.7539 -0.2205 -0.9695
21167SOL    HW270363   0.354   0.261  11.815 -0.7635  1.4796  0.1091
21168SOL     OW70364   6.486  12.474  11.028  0.5427  0.3308 -0.1035
21168SOL    HW170365   6.513  12.512  11.111  0.1526  0.9128 -0.2410
21168SOL    HW270366   6.441  12.393  11.052 -0.9184  1.2456  0.3611
21169SOL     OW70367   9.773   7.895  11.588 -0.2761 -0.7293  0.0649
21169SOL    HW170368   9.787   7.846  11.508 -1.0655 -0.8240 -0.0166
21169SOL    HW270369   9.679   7.910  11.592 -0.0754  0.6833  0.1372
21170SOL     OW70370   1.629   4.123   9.366  0.2300 -0.4823 -0.0400
21170SOL    HW170371   1.577   4.202   9.383 -0.9269 -1.0372 -0.8559
21170SOL    HW270372   1.648   4.128   9.272  1.0490 -0.6466  0.1186
21171SOL     OW70373   7.168  12.361   0.665  0.5965 -0.2708 -0.1225
21171SOL    HW170374   7.190  12.277   0.624 -1.5733 -0.3742 -1.1965
21171SOL    HW270375   7.120  12.337   0.744 -0.3893 -0.0682 -0.6459
21172SOL     OW70376  11.568   8.115   3.679  0.3947 -0.2270 -0.3087
21172SOL    HW170377  11.581   8.191   3.622  0.7529  0.3189  0.4902
21172SOL    HW270378  11.643   8.116   3.738 -0.0841 -0.6573  0.3213
21173SOL     OW70379   4.400  10.951  10.394  0.2849 -0.1155  0.1336
21173SOL    HW170380   4.405  10.911  10.307 -0.4218 -1.1849  0.5723
21173SOL    HW270381   4.337  11.023  10.384 -0.0314 -0.4328 -0.1611
21174SOL     OW70382   5.559  11.378   4.679 -0.2905  0.3328 -0.0700
21174SOL    HW170383   5.531  11.441   4.745 -0.4561 -0.5957  0.7667
21174SOL    HW270384   5.626  11.325   4.724 -0.0297  0.0239 -0.8101
21175SOL     OW70385   6.622   1.870   3.641 -0.6870  0.0677 -0.1735
21175SOL    HW170386   6.634   1.931   3.568  0.8594 -0.5024 -0.4212
21175SOL    HW270387   6.626   1.783   3.600  0.2738 -0.2602  0.5864
21176SOL     OW70388  10.468   1.269   8.379 -0.3763 -0.2751 -0.4451
21176SOL    HW170389  10.425   1.327   8.442 -0.4369  0.8990 -1.5212
21176SOL    HW270390  10.497   1.194   8.431 -0.3306  0.6993  0.9953
21177SOL     OW70391   5.932   2.561   4.003  0.0630 -0.3210 -0.1069
21177SOL    HW170392   5.912   2.646   4.043 -1.0195  0.0352 -1.3583
21177SOL    HW270393   5.901   2.568   3.913  2.5074 -1.0736 -1.0974
21178SOL     OW70394   9.691   9.117   0.404  0.4378  0.1515  0.3372
21178SOL    HW170395   9.731   9.100   0.489  0.4583 -0.0504  0.2858
21178SOL    HW270396   9.765   9.132   0.345  0.5354 -2.0068 -0.1655
21179SOL     OW70397   0.807   7.037   3.465 -0.6659  0.5591  0.1632
21179SOL    HW170398   0.807   7.122   3.421 -2.9632  1.8849  2.3924
21179SOL    HW270399   0.888   7.037   3.517 -0.2498  1.0295 -0.4802
21180SOL     OW70400   8.600   4.703   3.564 -0.0759  0.6725  0.7671
21180SOL    HW170401   8.647   4.665   3.638  1.2055  3.7985  1.7446
21180SOL    HW270402   8.533   4.758   3.604 -2.0218 -0.6311 -0.5544
21181SOL     OW70403  12.306   5.913   6.252  0.0374 -0.1895  0.2479
21181SOL    HW170404  12.218   5.921   6.215 -0.0079  0.5292  0.4895
21181SOL    HW270405  12.365   5.929   6.178 -0.0447  3.0843  0.7439
21182SOL     OW70406  10.055   6.822  10.649  0.5734  0.3260  0.2061
21182SOL    HW170407  10.029   6.854  10.735 -1.3204  1.3312 -0.6742
21182SOL    HW270408  10.003   6.743  10.636 -3.6093  3.0501 -2.1083
21183SOL     OW70409   7.272   1.472   9.826  0.2470 -0.7617  0.3251
21183SOL    HW170410   7.179   1.488   9.807 -0.2544 -0.8649  2.4764
21183SOL    HW270411   7.276   1.464   9.921  2.4304 -1.1020  0.2474
21184SOL     OW70412   1.414   2.620   2.362 -0.1941 -0.2601 -0.0313
21184SOL    HW170413   1.426   2.713   2.383  0.6994 -0.3599 -0.0958
21184SOL    HW270414   1.494   2.578   2.392 -1.3845 -1.3269  1.7878
21185SOL     OW70415   9.130   0.318   0.721  0.7408  0.6373  0.5620
21185SOL    HW170416   9.092   0.231   0.724 -1.2909  1.4866  1.1074
21185SOL    HW270417   9.101   0.360   0.803  0.7179  2.1801 -0.1952
21186SOL     OW70418   3.840   1.346   3.309  0.0533  0.1635 -0.1354
21186SOL    HW170419   3.861   1.255   3.330  2.2971  0.5406 -0.4363
21186SOL    HW270420   3.758   1.341   3.260 -0.2458 -1.6121  0.4688
21187SOL     OW70421   0.023   4.524   0.251 -0.1524 -0.3645 -0.1845
21187SOL    HW170422   0.058   4.599   0.299 -0.5037 -0.7592  0.7111
21187SOL    HW270423  -0.055   4.558   0.207  0.0731 -0.0417 -0.3367
21188SOL     OW70424   4.479   9.959   1.768  0.5167  0.5072  0.1676
21188SOL    HW170425   4.387   9.947   1.744  0.1219  1.9043  0.8568
21188SOL    HW270426   4.527   9.948   1.686 -0.4324  1.4710 -0.5487
21189SOL     OW70427  12.166   5.772   6.804 -0.3788 -0.3445  0.3682
21189SOL    HW170428  12.168   5.866   6.788 -0.1265 -0.2033  1.2364
21189SOL    HW270429  12.258   5.746   6.807 -0.4384 -0.8835 -1.3258
21190SOL     OW70430   0.984   0.272   3.448 -0.5559  0.0562 -0.1517
21190SOL    HW170431   0.990   0.318   3.532 -0.9994  1.2881 -0.7693
21190SOL    HW270432   1.039   0.323   3.388  0.7634 -1.4921 -0.3680
21191SOL     OW70433   6.916  11.423   3.895  0.2995 -0.0647  0.4256
21191SOL    HW170434   6.943  11.503   3.850  0.3952 -0.1136  0.3968
21191SOL    HW270435   6.964  11.425   3.978  1.2019 -0.6671 -0.0602
21192SOL     OW70436   6.519   3.622  11.209 -0.4350 -0.4722 -0.3227
21192SOL    HW170437   6.447   3.684  11.223 -0.1934  0.1931 -1.8528
21192SOL    HW270438   6.588   3.653  11.268 -0.4957  0.4347 -0.7065
21193SOL     OW70439  12.302   6.543   1.679 -0.1344 -0.1798 -0.0075
21193SOL    HW170440  12.347   6.540   1.763  2.0648 -0.1417 -1.1282
21193SOL    HW270441  12.353   6.486   1.622  0.8981  2.8598 -2.4025
21194SOL     OW70442   2.374   4.945   2.104  0.2485 -0.3142 -0.9041
21194SOL    HW170443   2.324   4.995   2.168  0.5855 -1.0114 -0.0748
21194SOL    HW270444   2.309   4.916   2.040 -0.1749 -0.0222 -0.6125
21195SOL     OW70445   5.959  10.764   3.120  0.8803  0.0277 -0.0619
21195SOL    HW170446   6.004  10.710   3.186 -0.6311 -0.5136  0.5887
21195SOL    HW270447   5.948  10.706   3.045  1.0471  0.0773 -0.1247
21196SOL     OW70448   5.710   9.265   0.562  0.7806  1.1749 -0.3755
21196SOL    HW170449   5.695   9.269   0.656 -0.6341  0.0260 -0.5228
21196SOL    HW270450   5.785   9.323   0.547  0.7274  1.7447  1.3787
21197SOL     OW70451   3.933   2.779   2.941  0.4437 -0.5959  0.4392
21197SOL    HW170452   3.878   2.740   3.009 -1.3686  0.7721 -0.1677
21197SOL    HW270453   3.887   2.859   2.915  1.3896 -0.7352 -1.9458
21198SOL     OW70454  11.639   0.491   2.426  0.4581  0.5277 -0.2007
21198SOL    HW170455  11.565   0.542   2.392  0.8220  0.8492 -0.5262
21198SOL    HW270456  11.598   0.419   2.473 -0.0743  1.0706  0.1940
21199SOL     OW70457   2.712   7.667   3.950 -0.7475 -0.3612  0.4457
21199SOL    HW170458   2.763   7.729   4.002 -1.0501 -0.9729  1.4916
21199SOL    HW270459   2.688   7.716   3.871 -1.0652  0.8954  1.2902
21200SOL     OW70460  12.223   7.585   9.985 -0.2624  0.5396  0.1209
21200SOL    HW170461  12.268   7.512   9.943  0.5173  1.5526 -0.8635
21200SOL    HW270462  12.138   7.548  10.012 -1.6144  0.1620 -3.8999
21201SOL     OW70463   7.971  10.367  10.908 -0.1208 -0.0812  0.4181
21201SOL    HW170464   8.023  10.356  10.988  0.0084  0.2855  0.3876
21201SOL    HW270465   7.892  10.317  10.924  0.5006 -1.1473  0.2241
21202SOL     OW70466   5.915  10.878   8.431 -0.4423  0.1095  0.3135
21202SOL    HW170467   5.857  10.901   8.358  0.1839  0.0276 -0.2238
21202SOL    HW270468   5.856  10.863   8.505 -0.9640  3.1371  0.6661
21203SOL     OW70469   5.602  12.280   3.041  0.1743 -0.4733  0.3996
21203SOL    HW170470   5.657  12.328   2.979  1.2847 -2.0310  0.1219
21203SOL    HW270471   5.567  12.348   3.099 -0.6164  0.9921 -1.6661
21204SOL     OW70472   4.233   5.614   1.719  0.6062 -0.0872 -0.2247
21204SOL    HW170473   4.317   5.587   1.681  0.8046 -0.2267  0.3066
21204SOL    HW270474   4.220   5.554   1.792 -0.8203 -1.2155 -1.3503
21205SOL     OW70475   6.732   8.666   2.924  0.4983 -0.0846 -0.3524
21205SOL    HW170476   6.737   8.736   2.858 -0.5816  0.8314  0.4896
21205SOL    HW270477   6.795   8.692   2.991 -1.0166  0.9896  0.7340
21206SOL     OW70478   6.705  10.599   1.958 -0.3481  0.5184  0.1161
21206SOL    HW170479   6.654  10.587   1.878  1.1124  1.1684 -0.9582
21206SOL    HW270480   6.686  10.690   1.985  0.3930  0.8342 -0.4096
21207SOL     OW70481   0.150  11.437   1.105  1.0602 -0.3557 -0.3973
21207SOL    HW170482   0.153  11.390   1.189  0.7848  0.6517  0.1885
21207SOL    HW270483   0.232  11.413   1.062  2.1424  0.6357  1.0042
21208SOL     OW70484   5.926   2.443   5.385  0.3106 -0.4745 -0.1477
21208SOL    HW170485   5.842   2.397   5.386  0.3947 -0.6239  1.0132
21208SOL    HW270486   5.992   2.374   5.385  0.4499 -0.3632 -1.6676
21209SOL     OW70487   8.570   9.289  11.015  0.3752 -0.1673  0.6216
21209SOL    HW170488   8.653   9.281  10.969  0.0262  0.8764 -0.2324
21209SOL    HW270489   8.593   9.318  11.103  0.8696  1.1775  0.0691
21210SOL     OW70490   2.157   5.296   4.627  0.4459 -0.0493  0.2287
21210SOL    HW170491   2.240   5.274   4.671  2.1319  0.2960 -2.5286
21210SOL    HW270492   2.115   5.211   4.612  0.8728 -0.3450  0.6622
21211SOL     OW70493   1.450   0.436   3.562 -0.0358  0.4034 -0.2989
21211SOL    HW170494   1.435   0.516   3.511 -0.9571 -0.7639 -1.9752
21211SOL    HW270495   1.428   0.365   3.502  2.6319 -1.2177  0.4840
21212SOL     OW70496   8.189   4.179   4.677  0.0950 -0.4978  0.1105
21212SOL    HW170497   8.105   4.137   4.693  0.6621 -2.0513 -0.7747
21212SOL    HW270498   8.254   4.116   4.710  0.9404  0.2025 -0.1760
21213SOL     OW70499   6.109   8.406   1.307  0.5700  0.0548 -0.0203
21213SOL    HW170500   6.173   8.338   1.329  0.4338  0.2423  1.0368
21213SOL    HW270501   6.152   8.460   1.242  1.4116  0.0429  0.5095
21214SOL     OW70502   9.337  11.182   8.116  0.3522  0.6614  0.1696
21214SOL    HW170503   9.392  11.229   8.178  1.5372 -0.6554  0.1698
21214SOL    HW270504   9.368  11.091   8.119 -0.3085  0.3269 -1.4946
21215SOL     OW70505   2.688   6.489   3.974 -0.0862  0.1299 -0.2092
21215SOL    HW170506   2.651   6.431   3.907  3.1576 -2.1782 -0.2307
21215SOL    HW270507   2.717   6.566   3.926 -0.6206 -0.1128 -0.9425
21216SOL     OW70508  11.141   8.088  11.088  0.4751  0.3722  0.4635
21216SOL    HW170509  11.116   8.139  11.165 -0.5005 -0.9761  1.0796
21216SOL    HW270510  11.135   8.150  11.016 -1.5686  0.9464  1.0506
21217SOL     OW70511   0.756  11.030   6.086  0.1527  0.4613 -0.3009
21217SOL    HW170512   0.742  10.972   6.010 -0.8880  0.5855 -0.2151
21217SOL    HW270513   0.707  10.989   6.157  1.3943  0.1601  0.4316
21218SOL     OW70514   6.017   5.136   5.162  0.7733 -0.3906 -0.0627
21218SOL    HW170515   6.016   5.056   5.109  0.5310  0.2234 -1.0166
21218SOL    HW270516   5.928   5.170   5.154  0.6384 -0.4567  1.0292
21219SOL     OW70517   9.647   4.211  11.677  0.4901  0.1430  0.2125
21219SOL    HW170518   9.589   4.228  11.603  0.7776 -1.5431 -0.4331
21219SOL    HW270519   9.725   4.172  11.639  0.2710 -1.6331  1.4602
21220SOL     OW70520   8.878   2.386   0.367  0.2463 -0.1809  0.8824
21220SOL    HW170521   8.973   2.373   0.364  0.2593 -0.0501  0.7286
21220SOL    HW270522   8.842   2.310   0.321  0.3192  0.2959  0.0284
21221SOL     OW70523   3.839  11.535   8.489  0.0091 -0.1529 -0.1309
21221SOL    HW170524   3.914  11.527   8.547  0.2149  1.0866 -0.2068
21221SOL    HW270525   3.877  11.543   8.402 -0.2913 -1.7006 -0.4414
21222SOL     OW70526   6.747   4.500  11.849  0.3202  0.4257 -0.3192
21222SOL    HW170527   6.720   4.430  11.789  3.2564  0.5457 -1.9551
21222SOL    HW270528   6.704   4.478  11.932 -2.2474 -0.8914 -1.8687
21223SOL     OW70529   3.817   7.854   9.968  0.5056 -0.0678 -0.3931
21223SOL    HW170530   3.856   7.769   9.988  1.5291  0.5424  0.3241
21223SOL    HW270531   3.876   7.918  10.008 -1.5029  0.9011  1.2397
21224SOL     OW70532   1.478   9.637  10.187  0.5994  0.5517 -0.1156
21224SOL    HW170533   1.426   9.598  10.257 -0.6190 -0.6711 -1.6259
21224SOL    HW270534   1.483   9.730  10.209  0.3866  0.1713  1.6457
21225SOL     OW70535   1.037   1.698   2.303  0.4459  0.3429 -0.1656
21225SOL    HW170536   0.959   1.682   2.355  0.1195  1.4371 -0.2998
21225SOL    HW270537   1.004   1.712   2.214  0.9551 -1.0276 -0.5950
21226SOL     OW70538   7.457   6.574  10.296  0.7247 -0.5141  0.2437
21226SOL    HW170539   7.464   6.572  10.201 -2.5981 -0.0125 -0.1256
21226SOL    HW270540   7.500   6.494  10.325  2.4392 -0.3214 -1.5633
21227SOL     OW70541   0.633  10.530   1.500  0.1311 -0.4846  0.8081
21227SOL    HW170542   0.626  10.619   1.535  1.9703 -0.0775  0.2586
21227SOL    HW270543   0.704  10.536   1.436 -0.3074 -2.1684  0.1284
21228SOL     OW70544   8.807   6.878   3.791 -0.2378 -0.0548 -0.5395
21228SOL    HW170545   8.902   6.870   3.800 -0.3015  0.8663  1.5098
21228SOL    HW270546   8.773   6.799   3.832 -0.3743 -0.1878 -0.9065
21229SOL     OW70547   8.212   0.631   1.012 -0.4630 -0.0785 -0.0065
21229SOL    HW170548   8.213   0.669   0.925 -1.1244  0.6809  0.3036
21229SOL    HW270549   8.276   0.683   1.061  0.8974 -1.3453 -0.3553
21230SOL     OW70550   8.558  10.336   4.691  0.5466 -0.1044 -0.4783
21230SOL    HW170551   8.551  10.381   4.607 -1.9894 -0.9503 -0.8124
21230SOL    HW270552   8.599  10.252   4.670  0.3214 -0.1355 -0.7959
21231SOL     OW70553   7.397   5.581  12.151 -0.0209 -0.2781  0.3886
21231SOL    HW170554   7.316   5.623  12.177 -0.1043  0.0322 -0.3741
21231SOL    HW270555   7.445   5.569  12.234 -1.1681 -1.1848  0.9428
21232SOL     OW70556   3.772  10.853   3.289  0.4372 -0.1380  0.4130
21232SOL    HW170557   3.756  10.926   3.349  0.4621 -0.4336  0.7779
21232SOL    HW270558   3.757  10.891   3.202  1.4653  0.5848  0.5317
21233SOL     OW70559  12.190  10.685   1.158 -0.3000  0.4208  0.4270
21233SOL    HW170560  12.208  10.614   1.098 -0.6332  1.8139 -1.4168
21233SOL    HW270561  12.096  10.700   1.149  0.0872  2.4370 -0.8647
21234SOL     OW70562   7.915   6.953  10.914 -0.0539 -0.2125  0.3830
21234SOL    HW170563   7.851   6.899  10.959 -0.7942 -0.3788 -0.8068
21234SOL    HW270564   7.932   7.026  10.974 -1.1333 -0.3302  0.8535
21235SOL     OW70565   7.136   3.342   6.969 -0.6062  0.1324  0.6074
21235SOL    HW170566   7.162   3.429   6.939  0.1681 -0.0989  0.5674
21235SOL    HW270567   7.068   3.314   6.908 -1.7225  1.1805  1.3221
21236SOL     OW70568  12.459  10.711   4.425 -0.4038 -0.0468  0.1233
21236SOL    HW170569  12.550  10.736   4.440 -0.3520 -0.2479  0.1575
21236SOL    HW270570  12.464  10.646   4.355 -0.5981  0.5035 -0.4063
21237SOL     OW70571   7.466  11.096   7.543 -0.4983 -0.2489  0.2091
21237SOL    HW170572   7.432  11.170   7.493 -1.5090 -0.2629  0.8569
21237SOL    HW270573   7.555  11.122   7.566 -0.7473  0.6510  0.1966
21238SOL     OW70574   4.632   8.623   6.714  0.7777  0.1478 -0.0794
21238SOL    HW170575   4.683   8.656   6.639 -0.2036  1.1586 -0.3372
21238SOL    HW270576   4.652   8.684   6.785  1.1632 -0.4055  0.2973
21239SOL     OW70577   8.775   4.982   5.017 -0.4059 -0.1639 -0.3623
21239SOL    HW170578   8.751   4.896   5.051 -1.1364  0.4889  0.8893
21239SOL    HW270579   8.806   5.030   5.094  0.7363  0.4550 -1.1763
21240SOL     OW70580  10.773   8.836   9.000 -0.0781 -0.7738 -0.1085
21240SOL    HW170581  10.683   8.863   9.019 -0.3974 -2.3686  0.7912
21240SOL    HW270582  10.821   8.919   8.993 -1.1525  0.0944  1.7885
21241SOL     OW70583   5.091  10.138   2.890  0.5409  0.1555  0.8552
21241SOL    HW170584   5.086  10.078   2.816  0.3417  1.9499 -0.6682
21241SOL    HW270585   5.066  10.085   2.966  1.7906 -2.0212 -0.1534
21242SOL     OW70586  11.978   2.908   2.405  0.6425  0.5314 -0.0152
21242SOL    HW170587  11.973   2.899   2.500  0.7757  0.3191 -0.0272
21242SOL    HW270588  12.071   2.896   2.385  0.4881 -0.2883 -0.2611
21243SOL     OW70589   6.775  10.417   8.393  0.0550  0.0547 -0.2889
21243SOL    HW170590   6.716  10.379   8.327  0.3124  1.1830 -1.1951
21243SOL    HW270591   6.836  10.346   8.414  1.1651  0.1995 -2.6902
21244SOL     OW70592   9.438  11.297   0.904 -0.3565  0.4775 -0.4619
21244SOL    HW170593   9.496  11.226   0.876  0.3896  0.6628  0.5446
21244SOL    HW270594   9.496  11.373   0.911 -0.8278  0.7932  0.0373
21245SOL     OW70595   3.966   8.811  10.584  0.2184 -0.2497  0.3441
21245SOL    HW170596   4.052   8.849  10.564  0.7658 -1.9413 -0.7867
21245SOL    HW270597   3.904   8.867  10.537  0.8174  0.2638  0.1439
21246SOL     OW70598  10.223   9.989   4.630  0.0493  0.4958  0.2679
21246SOL    HW170599  10.179   9.955   4.552  1.7333 -1.7306  0.1739
21246SOL    HW270600  10.309  10.018   4.598  0.8559 -0.6804  1.2775
21247SOL     OW70601   5.436   3.563   2.426 -0.4958  0.2161 -0.3582
21247SOL    HW170602   5.446   3.567   2.521 -1.0396  2.2924 -0.3489
21247SOL    HW270603   5.353   3.517   2.412 -0.3581 -0.1938  0.1659
21248SOL     OW70604   6.279   7.492   2.266 -0.1959  0.3065 -0.2412
21248SOL    HW170605   6.309   7.412   2.311  0.0836  1.1280  1.0847
21248SOL    HW270606   6.359   7.543   2.252  0.0899 -0.7708 -3.6248
21249SOL     OW70607   1.810   4.833   7.951 -0.3639  0.4181 -0.4129
21249SOL    HW170608   1.759   4.840   7.870 -1.0672  0.8027  0.0491
21249SOL    HW270609   1.893   4.795   7.924 -0.1792  1.5444 -1.4867
21250SOL     OW70610   1.402   7.364  10.851 -0.1136  0.0461  0.0984
21250SOL    HW170611   1.420   7.377  10.944  1.6046  3.1574 -0.5273
21250SOL    HW270612   1.383   7.451  10.818  0.0650 -0.8515 -2.6132
21251SOL     OW70613   3.019  12.127  11.516 -0.5159 -0.0807 -0.3223
21251SOL    HW170614   3.037  12.105  11.425  0.4695 -2.3939  0.3655
21251SOL    HW270615   3.078  12.199  11.536 -0.5280  0.2429 -1.4225
21252SOL     OW70616   7.603   4.841   0.666  0.0362 -0.7032  0.4998
21252SOL    HW170617   7.517   4.845   0.708  0.0749 -1.1212  0.6229
21252SOL    HW270618   7.617   4.748   0.648  1.7815 -1.1265  3.2813
21253SOL     OW70619   5.824   3.343   0.501 -0.3466  0.4269  0.2954
21253SOL    HW170620   5.846   3.429   0.466 -3.6349  0.7078 -1.5121
21253SOL    HW270621   5.751   3.360   0.561 -1.5112 -1.1026 -0.6068
21254SOL     OW70622  10.245   0.462   3.570 -0.7763 -0.0476  0.1950
21254SOL    HW170623  10.169   0.421   3.529 -0.9838 -0.0358  0.5554
21254SOL    HW270624  10.210   0.541   3.611 -0.1592  1.1913 -1.5706
21255SOL     OW70625   0.615   3.172   2.747  0.6359  0.6436 -0.0710
21255SOL    HW170626   0.699   3.173   2.702  0.0458  3.8031 -1.3842
21255SOL    HW270627   0.617   3.250   2.802 -0.5836 -0.5145  1.7122
21256SOL     OW70628   6.095   4.414   9.418  0.4951 -0.2751  0.1309
21256SOL    HW170629   6.056   4.392   9.333  0.5633  0.6614 -0.1554
21256SOL    HW270630   6.076   4.339   9.474 -1.1253 -0.1444 -0.2064
21257SOL     OW70631   1.270  10.874   4.466 -0.7087 -0.8879  0.1907
21257SOL    HW170632   1.176  10.867   4.479 -0.9345  0.6691 -0.3648
21257SOL    HW270633   1.298  10.944   4.526  0.2872 -2.0612  1.1316
21258SOL     OW70634   4.587   8.572  11.800 -0.1191  0.3995 -0.1012
21258SOL    HW170635   4.637   8.504  11.845 -0.9309 -0.9309 -1.1352
21258SOL    HW270636   4.518   8.596  11.861  1.0459  1.4069  0.8640
21259SOL     OW70637   5.288   9.909   9.266  0.5290 -0.0819 -0.4492
21259SOL    HW170638   5.197   9.883   9.278  0.7722 -0.1772  1.5199
21259SOL    HW270639   5.332   9.829   9.237 -0.1340  0.1844 -2.3389
21260SOL     OW70640   4.059   6.738   2.091 -0.4248 -0.4501  0.3802
21260SOL    HW170641   4.089   6.817   2.046  0.1706 -0.3422  0.9454
21260SOL    HW270642   3.971   6.760   2.123 -0.4603 -0.1935  0.1097
21261SOL     OW70643   6.391   3.698   1.268  0.2259 -0.1502  0.5605
21261SOL    HW170644   6.477   3.658   1.257  0.3215  0.2026  0.0457
21261SOL    HW270645   6.330   3.624   1.266  0.3509 -0.2310 -0.9732
21262SOL     OW70646   0.522   6.691   5.098  0.3756 -0.3168  0.7747
21262SOL    HW170647   0.522   6.746   5.176  0.4765  0.3046  0.3475
21262SOL    HW270648   0.436   6.648   5.099  0.8741 -1.3190  1.9090
21263SOL     OW70649   9.587  11.910   6.800 -0.6828 -0.0945 -0.0708
21263SOL    HW170650   9.543  11.995   6.802 -1.1619 -0.3488  0.7233
21263SOL    HW270651   9.587  11.881   6.891  1.4047  0.0248  0.0055
21264SOL     OW70652   5.769   7.154   7.727  0.1522 -0.2488 -0.0912
21264SOL    HW170653   5.727   7.182   7.646 -0.3688 -0.0191  0.2505
21264SOL    HW270654   5.840   7.097   7.699 -0.5957 -0.9240 -0.6734
21265SOL     OW70655   5.401   3.035  10.718 -0.2921  0.5831  0.0143
21265SOL    HW170656   5.413   3.043  10.623 -0.6294  0.7412 -0.0168
21265SOL    HW270657   5.326   3.090  10.737  0.8449  1.9838  0.6325
21266SOL     OW70658   4.781   0.723   4.725 -0.0256 -0.1583  0.0610
21266SOL    HW170659   4.689   0.723   4.701  0.1263  0.9566 -0.5810
21266SOL    HW270660   4.820   0.652   4.673 -0.6822 -1.3150  1.0943
21267SOL     OW70661   2.455  10.837   3.498 -0.1778 -0.1026 -0.0879
21267SOL    HW170662   2.394  10.911   3.495 -0.4597 -0.2432  1.3877
21267SOL    HW270663   2.540  10.877   3.515 -0.2889 -0.0817  0.4482
21268SOL     OW70664   6.792   0.984  10.835  0.2263 -0.3882 -0.0351
21268SOL    HW170665   6.809   1.013  10.925 -1.3262 -0.8663  0.4424
21268SOL    HW270666   6.786   1.066  10.785 -0.7476 -0.0209  0.6539
21269SOL     OW70667   8.228   1.606  12.359 -0.2548 -0.3660  0.0821
21269SOL    HW170668   8.202   1.662  12.432 -0.7640 -0.1785 -0.2351
21269SOL    HW270669   8.146   1.567  12.329 -0.3072  0.7523 -1.3743
21270SOL     OW70670   3.412  11.834   4.620  0.0082  0.4768 -0.9561
21270SOL    HW170671   3.327  11.796   4.641 -1.2248  3.0746 -0.9067
21270SOL    HW270672   3.433  11.801   4.533 -0.7723 -0.5956 -0.7526
21271SOL     OW70673   2.389   5.029   7.900  0.0340 -0.3422  0.5104
21271SOL    HW170674   2.387   5.111   7.851 -0.3352 -0.3767  0.4670
21271SOL    HW270675   2.368   5.054   7.990  0.4932 -0.3102  0.6126
21272SOL     OW70676  10.072   0.330   2.363 -0.5362 -0.3707  0.3681
21272SOL    HW170677  10.140   0.304   2.425 -0.0687  0.6424  0.2949
21272SOL    HW270678   9.996   0.276   2.387  0.2975 -1.5706  0.3992
21273SOL     OW70679   7.187   4.797   4.451 -0.1133  0.3214  0.5719
21273SOL    HW170680   7.093   4.814   4.459 -0.5602 -2.2383  2.1911
21273SOL    HW270681   7.227   4.883   4.449 -2.3932  1.5091  1.6507
21274SOL     OW70682   3.387  11.510   8.642 -0.6672  0.1241  0.3227
21274SOL    HW170683   3.357  11.423   8.668  0.2144 -0.1741  0.3911
21274SOL    HW270684   3.481  11.498   8.625 -0.5449  1.0534  0.3166
21275SOL     OW70685   0.643   8.186  10.435  0.1120  0.2944  1.1814
21275SOL    HW170686   0.615   8.277  10.422 -1.3347 -0.3810 -1.0748
21275SOL    HW270687   0.593   8.157  10.511 -0.0695  1.1272  1.3967
21276SOL     OW70688   4.636  12.278   1.632  0.8904  0.0885 -0.2111
21276SOL    HW170689   4.671  12.216   1.568 -1.8373 -0.7034 -1.0660
21276SOL    HW270690   4.582  12.338   1.581  1.1277  1.3860  0.9947
21277SOL     OW70691   7.927   4.882   6.975  0.5049 -0.4048 -0.1079
21277SOL    HW170692   7.918   4.977   6.977  1.4138 -0.3095  0.1692
21277SOL    HW270693   7.906   4.854   7.064 -1.2028 -0.6291 -0.5548
21278SOL     OW70694   4.900  11.053   8.861 -0.5282 -0.0128  0.2662
21278SOL    HW170695   4.955  11.005   8.923 -0.7977 -0.3310  0.2640
21278SOL    HW270696   4.824  10.996   8.847 -0.6065  0.1842 -0.1347
21279SOL     OW70697  10.623   2.062   6.559  0.1316 -0.1770  0.4055
21279SOL    HW170698  10.691   2.122   6.530  0.4874 -0.9985 -0.5051
21279SOL    HW270699  10.557   2.064   6.489 -0.9962  0.8869  1.4354
21280SOL     OW70700  10.887   2.194   2.519  0.2108  0.2256  0.0329
21280SOL    HW170701  10.823   2.260   2.547  0.8419  0.2570  1.4999
21280SOL    HW270702  10.963   2.245   2.491 -0.0287  0.1565 -0.7786
21281SOL     OW70703   1.757   7.021  10.377  0.3034 -0.3994 -0.6444
21281SOL    HW170704   1.719   6.974  10.302 -0.1302 -1.9354  0.5058
21281SOL    HW270705   1.704   6.994  10.452  1.7115 -0.1038  0.4978
21282SOL     OW70706   7.241  11.314   7.619  0.0499  0.0545 -0.0743
21282SOL    HW170707   7.304  11.341   7.553  0.5156 -0.4550  0.1578
21282SOL    HW270708   7.281  11.339   7.702  1.4841 -3.1595  0.3176
21283SOL     OW70709   5.429   7.809   1.070 -0.1261  0.2207 -0.2570
21283SOL    HW170710   5.491   7.865   1.117  0.1029 -0.0693 -0.2041
21283SOL    HW270711   5.378   7.869   1.017 -0.4986  0.5741  0.4792
21284SOL     OW70712   6.026   0.266   7.112  0.0435  0.1427  0.0550
21284SOL    HW170713   6.049   0.222   7.193  0.3680  0.1071 -0.0558
21284SOL    HW270714   5.939   0.304   7.129 -0.0886 -0.2518  0.2597
21285SOL     OW70715   4.968   9.642   4.866  0.6192 -0.3176  0.3203
21285SOL    HW170716   4.902   9.590   4.821  0.6565 -1.2749  1.3505
21285SOL    HW270717   5.025   9.578   4.909  1.8688  0.5032 -0.0320
21286SOL     OW70718   6.695   8.735   7.979 -0.2454 -0.4949  0.0071
21286SOL    HW170719   6.714   8.653   8.023 -0.5067 -0.1372  0.7963
21286SOL    HW270720   6.614   8.766   8.018  1.2617  1.5204  1.7614
21287SOL     OW70721   4.528   9.904   9.180  0.3483  0.6484 -0.8797
21287SOL    HW170722   4.537   9.956   9.100  2.6202  0.0068 -1.1056
21287SOL    HW270723   4.503   9.817   9.149  1.3986  0.3546 -0.9378
21288SOL     OW70724  11.922   2.848   6.455 -1.0796 -0.8204  0.1702
21288SOL    HW170725  11.875   2.907   6.397  1.0875  0.5630 -0.2831
21288SOL    HW270726  11.974   2.792   6.396 -0.5905 -0.9273  0.6890
21289SOL     OW70727  10.156  11.272   3.011  0.3143  0.1584  0.4163
21289SOL    HW170728  10.177  11.255   3.103  0.5377  0.1568  0.3662
21289SOL    HW270729  10.172  11.189   2.967 -0.4847 -0.0382  0.4932
21290SOL     OW70730   5.348   0.511  10.359  0.0742  0.2475  0.1602
21290SOL    HW170731   5.361   0.425  10.400  1.8470  1.6026  2.6999
21290SOL    HW270732   5.436   0.544  10.343 -0.5578  1.7609 -0.4413
21291SOL     OW70733   7.223  12.138   1.003 -0.2701  0.5117  0.5822
21291SOL    HW170734   7.273  12.111   0.926  1.1859  0.6837  1.4246
21291SOL    HW270735   7.287  12.141   1.074 -1.8295 -1.0349  2.1526
21292SOL     OW70736  10.612   8.416   6.185  0.1238  0.1991  0.2257
21292SOL    HW170737  10.590   8.504   6.216  2.7458 -0.1795  3.7388
21292SOL    HW270738  10.704   8.421   6.160  0.5331 -1.6507  1.1516
21293SOL     OW70739   8.070   3.939   5.780 -0.1278 -0.3864  0.0826
21293SOL    HW170740   8.035   3.984   5.704  1.1056 -0.5540 -0.6069
21293SOL    HW270741   7.997   3.937   5.842 -0.9765  0.2606 -0.8598
21294SOL     OW70742   3.585   4.764  10.757  0.3605  0.2336 -0.4052
21294SOL    HW170743   3.604   4.842  10.808  3.1571  0.3858 -1.5024
21294SOL    HW270744   3.583   4.794  10.666  3.4527 -1.1538 -1.0424
21295SOL     OW70745   5.079   4.306   5.567 -0.0777  0.7681  0.1181
21295SOL    HW170746   5.062   4.376   5.630 -2.5100  0.6184 -0.2739
21295SOL    HW270747   4.997   4.258   5.562  0.9857 -1.0563 -0.9617
21296SOL     OW70748   3.506   4.977   6.244  0.3383 -0.6096 -0.0526
21296SOL    HW170749   3.497   4.938   6.157  2.7839 -0.2690 -0.5406
21296SOL    HW270750   3.476   4.909   6.305 -0.7657 -1.1015 -1.1193
21297SOL     OW70751  11.718   0.031   7.682  0.7547  0.1814 -0.7204
21297SOL    HW170752  11.671  -0.009   7.755  1.8123  1.2395  0.5938
21297SOL    HW270753  11.661   0.018   7.606  0.3288 -2.3268 -0.0583
21298SOL     OW70754   1.554   5.582   0.602  0.3635  0.1336  0.6079
21298SOL    HW170755   1.627   5.545   0.651 -0.4234  0.0968  1.7980
21298SOL    HW270756   1.549   5.673   0.632 -0.0201  0.1549  0.4865
21299SOL     OW70757  12.432   9.052   6.513 -0.4306 -0.6964 -0.4266
21299SOL    HW170758  12.489   9.062   6.437 -1.3875 -2.1784 -1.3852
21299SOL    HW270759  12.470   8.980   6.563  0.0073  0.0580  0.3631
21300SOL     OW70760   2.791   5.839   3.223 -0.1681  0.0911  0.5790
21300SOL    HW170761   2.797   5.881   3.137  1.4226  0.6246  0.9133
21300SOL    HW270762   2.759   5.908   3.281 -1.1287 -0.2364  0.4558
21301SOL     OW70763  10.956   4.660   4.913  0.5113 -0.4510  0.4492
21301SOL    HW170764  10.884   4.661   4.850 -1.2883  0.3694  2.4115
21301SOL    HW270765  10.953   4.572   4.950  0.1603 -0.2445  0.9138
21302SOL     OW70766   0.315  12.378  11.943 -0.6154 -0.7399 -0.2034
21302SOL    HW170767   0.352  12.406  11.859 -0.3972 -0.2347  0.0551
21302SOL    HW270768   0.391  12.356  11.997 -0.3766  3.0327  1.3221
21303SOL     OW70769   4.777   6.811   4.784  0.4837  0.1612  0.3684
21303SOL    HW170770   4.691   6.819   4.826  0.8683  1.7785  0.8919
21303SOL    HW270771   4.757   6.778   4.696 -0.4349 -1.9713  1.2889
21304SOL     OW70772   9.246  10.523   8.572 -0.1704 -0.0955  0.4405
21304SOL    HW170773   9.241  10.476   8.656 -1.5976  1.1085  1.0725
21304SOL    HW270774   9.162  10.569   8.566  1.0837  2.2196 -0.2275
21305SOL     OW70775   6.087   4.882   8.911 -0.1829 -0.1655 -0.3828
21305SOL    HW170776   6.152   4.886   8.840 -0.4073 -0.7520 -0.6312
21305SOL    HW270777   6.113   4.952   8.971  0.1903  0.1472 -0.8925
21306SOL     OW70778  10.445   9.485   6.024 -0.0317  0.2056 -0.2973
21306SOL    HW170779  10.538   9.469   6.042 -0.4311 -1.3695  0.5019
21306SOL    HW270780  10.443   9.511   5.932  1.1063 -0.6246 -0.5810
21307SOL     OW70781   8.267   8.314   1.113 -0.1148  0.0204  0.5704
21307SOL    HW170782   8.344   8.341   1.063 -0.6215  2.0288  0.8054
21307SOL    HW270783   8.200   8.300   1.046  0.5551 -2.4331  0.2939
21308SOL     OW70784   1.857   4.329  10.982 -0.3360  1.0597  0.2239
21308SOL    HW170785   1.925   4.309  11.045 -1.0105  0.4283  0.7686
21308SOL    HW270786   1.836   4.421  10.996 -0.9303  0.7679  1.3854
21309SOL     OW70787   1.345   6.431   5.955  0.2671 -0.1349  0.6500
21309SOL    HW170788   1.404   6.402   6.024 -0.3034  1.2757  1.7698
21309SOL    HW270789   1.262   6.388   5.974  0.3589 -0.5129  0.2424
21310SOL     OW70790   9.337   8.867   9.797  0.5235  0.0427  0.6624
21310SOL    HW170791   9.389   8.910   9.729  1.2583  0.5039  1.4945
21310SOL    HW270792   9.401   8.842   9.863  0.4310 -3.8657 -0.4693
21311SOL     OW70793  11.500   0.014   7.477 -0.0642  0.6675  0.1477
21311SOL    HW170794  11.523   0.095   7.433  1.8612  0.2995  0.3723
21311SOL    HW270795  11.455  -0.038   7.410 -1.6841  2.0383  0.1239
21312SOL     OW70796   7.152   9.506   5.723  0.6694 -0.5181 -0.6341
21312SOL    HW170797   7.115   9.464   5.645 -0.2196  0.0348 -0.5189
21312SOL    HW270798   7.245   9.484   5.719  0.9991  0.8731 -2.7942
21313SOL     OW70799   6.395   6.886   2.661  0.0573  0.1451 -0.3301
21313SOL    HW170800   6.371   6.841   2.580 -0.4242  0.5567 -0.4274
21313SOL    HW270801   6.402   6.817   2.727  0.4464 -0.1892 -0.7223
21314SOL     OW70802   4.284   2.719   5.324  0.1486  0.1566 -0.4640
21314SOL    HW170803   4.198   2.719   5.281 -0.2714 -0.4652  0.3542
21314SOL    HW270804   4.325   2.639   5.292 -0.8675 -1.2768  1.5994
21315SOL     OW70805  11.495   4.442   6.755  0.2535 -0.1086 -0.0642
21315SOL    HW170806  11.572   4.420   6.703 -0.5533 -2.6582 -0.2786
21315SOL    HW270807  11.502   4.537   6.768  2.5233 -0.0056 -1.4761
21316SOL     OW70808   2.266   9.541   1.050  0.1613  0.1439  0.1973
21316SOL    HW170809   2.236   9.457   1.015 -1.7361  1.1833 -0.7746
21316SOL    HW270810   2.215   9.553   1.130 -1.3940  1.4323 -0.9181
21317SOL     OW70811   5.453   1.865   4.448 -0.2326 -0.2461 -0.4389
21317SOL    HW170812   5.404   1.785   4.469 -0.3554  0.4854  2.5739
21317SOL    HW270813   5.513   1.875   4.522  0.8012  1.6910 -1.4800
21318SOL     OW70814   9.771   1.929  12.435 -0.2808 -0.1750  0.4084
21318SOL    HW170815   9.834   1.862  12.459 -2.0088 -2.2875 -0.5451
21318SOL    HW270816   9.751   1.910  12.343  0.2453  2.6182 -0.3596
21319SOL     OW70817   0.786   2.917  10.062 -0.0886  0.2843 -0.6504
21319SOL    HW170818   0.729   2.885  10.132 -1.8352  0.4433 -1.9340
21319SOL    HW270819   0.873   2.884  10.085 -0.9839 -1.4558  0.4993
21320SOL     OW70820  11.506  11.796   3.602  0.1723 -0.4097 -0.0848
21320SOL    HW170821  11.511  11.816   3.695 -0.0688 -0.1313 -0.1296
21320SOL    HW270822  11.417  11.764   3.589 -0.4905  1.5051 -0.5865
21321SOL     OW70823   6.801   2.124   1.397  0.0961 -0.0942 -0.3506
21321SOL    HW170824   6.771   2.167   1.477 -1.8441 -0.8902 -0.5917
21321SOL    HW270825   6.886   2.164   1.379  1.4180 -1.0967  2.9966
21322SOL     OW70826   6.008   5.447   6.567 -0.1427  0.5630  0.0952
21322SOL    HW170827   6.014   5.422   6.474 -0.0262  3.2258 -0.6914
21322SOL    HW270828   5.922   5.488   6.575 -0.1164  0.4403  1.1681
21323SOL     OW70829   6.360   5.882   8.658  0.0249 -0.0446  0.0660
21323SOL    HW170830   6.268   5.883   8.686 -0.2704 -0.5035 -0.8283
21323SOL    HW270831   6.368   5.801   8.607  1.1520 -0.4453  0.8369
21324SOL     OW70832   7.829  11.803   7.493  0.5708 -0.4248 -0.1538
21324SOL    HW170833   7.897  11.775   7.432 -0.6382 -0.8101 -1.3912
21324SOL    HW270834   7.812  11.726   7.547 -1.5223 -1.7041 -2.4028
21325SOL     OW70835  11.457   9.713  12.279  0.2774 -0.7447 -0.2158
21325SOL    HW170836  11.437   9.782  12.216 -1.0273  0.2513  1.2505
21325SOL    HW270837  11.416   9.741  12.361  0.0860 -3.0375  0.5476
21326SOL     OW70838   3.595   2.777   9.116  0.3156 -0.1472 -0.0983
21326SOL    HW170839   3.530   2.826   9.167  1.1835  1.1032 -0.1674
21326SOL    HW270840   3.549   2.697   9.091 -0.5903 -0.1699  1.4644
21327SOL     OW70841  12.198  10.935   7.772  0.0611  0.2315 -0.7572
21327SOL    HW170842  12.283  10.971   7.796  0.1868  0.6753 -1.8067
21327SOL    HW270843  12.191  10.952   7.678 -0.6973 -0.8089 -0.9048
21328SOL     OW70844  10.380   7.376   9.384 -0.9016  0.0168  0.1525
21328SOL    HW170845  10.474   7.361   9.378 -0.8825 -1.2022  2.4522
21328SOL    HW270846  10.357   7.418   9.301  1.4340 -0.8317 -1.0089
21329SOL     OW70847   8.876   8.057   3.598 -0.4744 -0.3631  0.2100
21329SOL    HW170848   8.864   7.966   3.626 -0.7930  0.1929  2.0324
21329SOL    HW270849   8.959   8.083   3.637 -1.3605  0.7197  1.4556
21330SOL     OW70850   1.281   5.343   7.814 -0.2141  0.7054 -0.0130
21330SOL    HW170851   1.240   5.265   7.851  0.6946 -0.6029 -1.5988
21330SOL    HW270852   1.372   5.316   7.797 -0.4523  1.3281 -2.6680
21331SOL     OW70853  10.677  10.093   6.524 -0.0351 -0.5074 -0.4326
21331SOL    HW170854  10.674   9.999   6.543 -1.1250 -0.1220  1.6456
21331SOL    HW270855  10.757  10.123   6.566 -0.1112 -0.3738 -0.3837
21332SOL     OW70856   5.377   9.811   4.414 -0.3179 -0.2157  0.3001
21332SOL    HW170857   5.303   9.859   4.451 -1.6186 -1.3779 -0.6688
21332SOL    HW270858   5.433   9.790   4.489 -0.5817  1.3104  0.9498
21333SOL     OW70859   5.490   0.741   2.917  0.2014  0.1574 -1.0120
21333SOL    HW170860   5.529   0.697   2.992  1.5131  1.4174 -0.9127
21333SOL    HW270861   5.411   0.782   2.952  1.0342  1.1140 -0.1609
21334SOL     OW70862   0.733   4.839   2.558  0.2524 -0.1312 -0.2591
21334SOL    HW170863   0.733   4.854   2.463 -0.5151  0.6527 -0.1515
21334SOL    HW270864   0.641   4.845   2.583  0.6307  1.9691  0.8603
21335SOL     OW70865   6.105   0.182   9.104  0.0772  0.1703  0.6902
21335SOL    HW170866   6.199   0.184   9.123  0.1238 -0.2962  0.5083
21335SOL    HW270867   6.095   0.118   9.034 -0.6817 -1.7591  2.4579
21336SOL     OW70868   1.062   6.004   9.354  0.0975 -0.5752  0.4596
21336SOL    HW170869   0.999   6.022   9.424  0.6850  1.1541  0.5997
21336SOL    HW270870   1.111   5.929   9.385 -0.1345 -0.2830  1.5818
21337SOL     OW70871   9.446   8.757   9.253  0.0788  0.5393  0.2109
21337SOL    HW170872   9.511   8.828   9.247 -1.5294  1.9512 -1.7793
21337SOL    HW270873   9.447   8.732   9.346  2.3117  1.5758  0.5404
21338SOL     OW70874   3.510   2.606   2.271  0.2928 -0.4153  0.7615
21338SOL    HW170875   3.523   2.607   2.176  0.2386 -0.9785  0.7445
21338SOL    HW270876   3.482   2.516   2.290  1.7041 -0.7258  1.4935
21339SOL     OW70877   6.021   4.311   3.064  0.0716 -0.6312  0.4183
21339SOL    HW170878   6.095   4.329   3.122  0.1857 -0.0129  0.0940
21339SOL    HW270879   6.024   4.216   3.050 -1.2162 -1.1737  3.0948
21340SOL     OW70880   2.051   8.958   8.120 -0.3913  0.1051 -0.1970
21340SOL    HW170881   2.013   8.970   8.207 -4.0153 -1.3126 -1.3933
21340SOL    HW270882   2.014   9.029   8.068  0.4275 -0.0123 -0.9690
21341SOL     OW70883   4.570  10.128   9.300  0.2336  0.2831 -0.4411
21341SOL    HW170884   4.561  10.040   9.265  1.4313 -0.3682  0.7724
21341SOL    HW270885   4.659  10.154   9.275 -0.1650  1.2209 -0.9231
21342SOL     OW70886   5.410   2.094  12.137  0.1901  0.2263 -0.1852
21342SOL    HW170887   5.488   2.040  12.146  0.1493  0.3790  1.4265
21342SOL    HW270888   5.436   2.163  12.076  1.4941  0.5527  0.6902
21343SOL     OW70889   9.596   8.398   9.258  0.4352 -0.0803 -0.5914
21343SOL    HW170890   9.534   8.455   9.214  0.1358 -0.3759 -0.5562
21343SOL    HW270891   9.543   8.327   9.294  0.7048  0.0506  0.0776
21344SOL     OW70892   7.213   7.537   6.567  0.0030 -0.3192  0.5947
21344SOL    HW170893   7.287   7.544   6.627 -1.0284  1.8609  1.7172
21344SOL    HW270894   7.220   7.613   6.510 -0.0088 -1.4377 -0.9648
21345SOL     OW70895   9.605   0.538  11.832 -0.2582 -0.1520 -0.4526
21345SOL    HW170896   9.572   0.457  11.793 -0.7266 -1.2111  1.9709
21345SOL    HW270897   9.696   0.543  11.803 -0.0130 -1.9374 -0.0973
21346SOL     OW70898  12.219  10.314   7.283 -0.7186  0.5396 -0.1904
21346SOL    HW170899  12.244  10.405   7.269  0.2258  0.1390 -1.1620
21346SOL    HW270900  12.183  10.313   7.372 -1.5590  2.0210 -0.4813
21347SOL     OW70901   0.939  11.907   1.590  0.3629 -0.5676  0.0639
21347SOL    HW170902   0.890  11.850   1.649 -2.7012  2.5895  0.9026
21347SOL    HW270903   0.879  11.924   1.517  1.4675  0.8664 -0.5791
21348SOL     OW70904   7.164  12.080  11.986 -0.2328 -0.2704 -0.1342
21348SOL    HW170905   7.214  11.999  11.980  1.5104  0.8201 -1.2100
21348SOL    HW270906   7.080  12.060  11.946 -1.1762 -2.4440  2.6020
21349SOL     OW70907   5.525   2.636   0.828  1.0778 -0.3509  0.3550
21349SOL    HW170908   5.538   2.543   0.809 -0.2844 -0.4649 -0.0871
21349SOL    HW270909   5.449   2.661   0.776  1.5727  1.0792  0.2740
21350SOL     OW70910  11.887   9.345   4.580 -0.5499  0.0086 -0.3656
21350SOL    HW170911  11.979   9.371   4.584 -0.0963 -1.1734 -1.9599
21350SOL    HW270912  11.841   9.422   4.549 -0.3386  1.0226  1.6693
21351SOL     OW70913   9.503  11.691   9.503  0.3813  0.1378  0.2648
21351SOL    HW170914   9.478  11.776   9.540 -0.2295 -0.0106  0.1958
21351SOL    HW270915   9.518  11.635   9.579  0.2712  0.1601  0.3027
21352SOL     OW70916   3.286  11.746   0.772  0.4403 -0.6906  0.0839
21352SOL    HW170917   3.269  11.839   0.790  1.0183 -0.6540  0.4579
21352SOL    HW270918   3.351  11.747   0.702 -0.5624 -0.8325 -0.8870
21353SOL     OW70919  12.238   9.246   9.922 -0.0054  0.0298 -0.0860
21353SOL    HW170920  12.258   9.294  10.002  2.6615 -1.5536  0.3063
21353SOL    HW270921  12.169   9.185   9.947  0.6372 -0.2877  0.9693
21354SOL     OW70922   4.179   0.926   3.971 -0.2708 -0.4514  0.2028
21354SOL    HW170923   4.249   0.910   4.034 -1.5906 -1.1752  1.5292
21354SOL    HW270924   4.223   0.970   3.898  1.4778 -0.4870  1.1767
21355SOL     OW70925   8.619   0.524  11.319 -0.1113 -0.5721  0.1610
21355SOL    HW170926   8.616   0.432  11.294 -0.0778 -0.2614 -1.0329
21355SOL    HW270927   8.711   0.541  11.340  0.4048 -0.1825 -2.1785
21356SOL     OW70928  12.420   9.162   0.166 -0.6906 -0.1301  0.0183
21356SOL    HW170929  12.357   9.090   0.173 -1.1841  0.0664 -1.8401
21356SOL    HW270930  12.371   9.240   0.194 -0.5967 -0.3018  0.6645
21357SOL     OW70931   9.724  10.896   1.071 -0.0412  0.1671 -0.3811
21357SOL    HW170932   9.803  10.842   1.067 -1.2299 -1.9160  1.6339
21357SOL    HW270933   9.697  10.905   0.980  1.3692 -0.8806 -0.9494
21358SOL     OW70934   0.552   8.778   6.355  0.2611 -0.0675 -0.0515
21358SOL    HW170935   0.605   8.741   6.284  0.0266  0.4535 -0.5029
21358SOL    HW270936   0.497   8.843   6.313  0.5188  0.6563  0.7080
21359SOL     OW70937   9.561   0.199   9.569  0.1525  0.2808 -0.1510
21359SOL    HW170938   9.583   0.291   9.552 -0.0084  0.3185 -0.1624
21359SOL    HW270939   9.506   0.202   9.647  0.3573  0.1689 -0.0040
21360SOL     OW70940   5.539   8.047   1.753 -0.1515 -0.2099 -0.0377
21360SOL    HW170941   5.569   7.960   1.779  0.1792 -0.2880 -0.6768
21360SOL    HW270942   5.458   8.060   1.803  0.9581  0.0487  1.8067
21361SOL     OW70943   0.879   8.906   7.834 -0.0713  0.0499 -0.1535
21361SOL    HW170944   0.857   8.999   7.833  2.3089  0.6811 -0.7059
21361SOL    HW270945   0.846   8.874   7.918  0.4767  1.8001  0.7801
21362SOL     OW70946   0.031   1.857  10.284  0.0828  0.1825 -1.1552
21362SOL    HW170947   0.083   1.938  10.282 -0.9028  0.9100  0.3941
21362SOL    HW270948  -0.058   1.886  10.263 -0.0946 -0.7101 -1.7073
21363SOL     OW70949   2.239   6.697   2.636 -0.1090  0.0783  0.0933
21363SOL    HW170950   2.333   6.698   2.656  0.2051 -0.2160 -1.2702
21363SOL    HW270951   2.210   6.609   2.658  0.0032  0.0677  0.1993
21364SOL     OW70952   1.222   0.366   2.518  0.1461  0.4140  0.9426
21364SOL    HW170953   1.296   0.317   2.482 -0.3196 -0.0453  0.6011
21364SOL    HW270954   1.261   0.425   2.582  0.8418  0.3801  0.5496
21365SOL     OW70955  10.663   3.373   2.782 -0.3271  0.5825  0.4558
21365SOL    HW170956  10.743   3.339   2.743 -0.9592 -0.8596  0.3324
21365SOL    HW270957  10.644   3.312   2.854 -1.8657  0.2455 -0.1937
21366SOL     OW70958   2.243  10.084   3.120  0.3375 -0.4739  0.2799
21366SOL    HW170959   2.318  10.032   3.093  0.1728  0.4831 -2.3894
21366SOL    HW270960   2.278  10.172   3.132  0.0875 -0.5557  1.7561
21367SOL     OW70961  11.695   3.112  12.418  0.0616 -0.0836  0.2206
21367SOL    HW170962  11.681   3.033  12.367 -1.6582 -1.2472  2.3112
21367SOL    HW270963  11.759   3.162  12.368  0.7652 -2.5078 -1.4827
21368SOL     OW70964   6.556   2.062   1.020 -0.5731 -0.4753  0.1329
21368SOL    HW170965   6.580   2.155   1.027 -0.9403 -0.2399 -1.4075
21368SOL    HW270966   6.639   2.018   1.002 -0.1759 -0.6641  2.1112
21369SOL     OW70967   3.239   7.543   2.460 -0.2249 -0.6923 -0.6152
21369SOL    HW170968   3.323   7.560   2.503 -1.2382 -1.4413  1.8955
21369SOL    HW270969   3.208   7.629   2.432  0.4952 -0.1240  0.2619
21370SOL     OW70970   3.227   5.748   5.628  0.3022 -0.2306  0.5970
21370SOL    HW170971   3.272   5.764   5.711  1.7715  2.8999 -0.6255
21370SOL    HW270972   3.295   5.763   5.562 -0.9009 -2.3190 -1.2398
21371SOL     OW70973   6.843   7.026   0.828 -0.2062 -0.3686  0.0428
21371SOL    HW170974   6.938   7.036   0.822 -0.0901 -0.8192  0.9549
21371SOL    HW270975   6.827   7.000   0.919 -1.1593 -0.7737 -0.2227
21372SOL     OW70976   6.148  10.902  11.445  0.0843  0.0657 -0.2054
21372SOL    HW170977   6.191  10.901  11.359 -0.0373  2.4783 -0.3828
21372SOL    HW270978   6.081  10.971  11.437 -1.6174 -1.3478  1.0906
21373SOL     OW70979   0.600   3.859   9.109  0.3955 -1.0594 -0.0975
21373SOL    HW170980   0.653   3.877   9.187 -0.4270  0.5048  0.1523
21373SOL    HW270981   0.510   3.880   9.136  0.1118 -0.3486 -1.4801
21374SOL     OW70982   7.150  10.121   6.687 -0.3210 -0.4111 -0.1918
21374SOL    HW170983   7.069  10.101   6.641 -0.9072  0.4888  0.4195
21374SOL    HW270984   7.144  10.073   6.769 -0.0847 -0.5904 -0.2764
21375SOL     OW70985  11.972   4.780   2.202 -0.2582 -0.1118  0.6809
21375SOL    HW170986  11.964   4.687   2.182 -2.4032  0.3983 -1.2464
21375SOL    HW270987  11.884   4.816   2.188  0.5852  2.2655  0.9595
21376SOL     OW70988  10.239   2.403   4.914 -0.0003 -0.0261  0.2016
21376SOL    HW170989  10.219   2.346   4.839  2.4848  1.7612 -2.0069
21376SOL    HW270990  10.168   2.467   4.915  0.0078  0.0061 -0.7302
21377SOL     OW70991   9.515   3.183   6.875  0.0863 -0.3531 -0.0894
21377SOL    HW170992   9.517   3.119   6.804 -1.8907  0.3744 -0.8606
21377SOL    HW270993   9.428   3.174   6.913  0.4133  0.6569  0.9590
21378SOL     OW70994   6.969   9.729   2.956  0.0657 -0.8446 -0.7766
21378SOL    HW170995   7.059   9.755   2.971 -0.1800  0.0574 -0.8279
21378SOL    HW270996   6.940   9.695   3.041 -0.1390  0.6917 -0.2032
21379SOL     OW70997   8.936  12.145   2.823 -0.2835  0.4085 -0.0608
21379SOL    HW170998   8.908  12.054   2.824  0.5613  0.1477  0.1302
21379SOL    HW270999   8.916  12.177   2.911 -0.0585  0.2480  0.0486
21380SOL     OW71000   7.495   0.139   7.152 -0.1328  0.6669  0.0303
21380SOL    HW171001   7.549   0.174   7.080  2.0230  1.4338  1.8989
21380SOL    HW271002   7.498   0.206   7.219 -0.3453 -0.8655  1.6539
21381SOL     OW71003   4.195   1.891   4.702  0.4960  0.0563 -0.4090
21381SOL    HW171004   4.234   1.930   4.624  2.0459 -0.9031 -0.1516
21381SOL    HW271005   4.156   1.809   4.672 -0.1569  0.3584 -0.4131
21382SOL     OW71006   7.902   8.269   3.885  0.6004  0.7214 -0.1618
21382SOL    HW171007   7.921   8.175   3.891 -0.5469  0.3525 -1.5849
21382SOL    HW271008   7.832   8.283   3.949 -1.7376 -0.2015 -2.3639
21383SOL     OW71009  11.688   2.074   4.467 -0.0458  0.4958  0.7223
21383SOL    HW171010  11.707   2.124   4.547 -1.1681  0.9544  0.7184
21383SOL    HW271011  11.593   2.063   4.468  0.0625 -0.5974  0.0922
21384SOL     OW71012   8.188  12.135   1.678  0.4813 -0.1824 -0.4084
21384SOL    HW171013   8.184  12.085   1.596  1.8421 -1.5951  0.3258
21384SOL    HW271014   8.242  12.211   1.657 -0.4293  0.2643 -1.1897
21385SOL     OW71015   6.674   7.354   9.111 -0.4734  0.1653 -0.7676
21385SOL    HW171016   6.749   7.407   9.138 -1.8663  2.7096 -1.6629
21385SOL    HW271017   6.710   7.292   9.047  1.1048  0.2893 -0.0420
21386SOL     OW71018   1.695   7.499  11.053  0.0297  0.0215  0.4817
21386SOL    HW171019   1.603   7.477  11.066  0.2282 -0.0056  2.0194
21386SOL    HW271020   1.694   7.575  10.995 -0.9941  0.3870  0.9625
21387SOL     OW71021  12.401   8.226   8.636  0.2779 -0.0403 -0.7348
21387SOL    HW171022  12.470   8.198   8.576 -0.4916 -1.3699 -1.0339
21387SOL    HW271023  12.349   8.148   8.651 -1.0349  0.8746 -0.3317
21388SOL     OW71024  11.057   1.357   8.955 -0.3705  0.7906  0.2912
21388SOL    HW171025  11.017   1.294   8.894  1.0254  0.5265 -0.4078
21388SOL    HW271026  11.010   1.439   8.940 -1.6335  0.1462  0.5835
21389SOL     OW71027   8.097   5.163   7.299  0.4723  0.0201  0.0473
21389SOL    HW171028   8.159   5.100   7.263 -1.4315 -0.6363 -2.3416
21389SOL    HW271029   8.092   5.233   7.233 -1.2779  0.0420  0.1555
21390SOL     OW71030   4.779   2.445   2.212  0.0968  0.3130 -0.3624
21390SOL    HW171031   4.764   2.429   2.119 -1.8391 -0.7365  0.0739
21390SOL    HW271032   4.852   2.387   2.234  1.2505  1.3238 -1.4176
21391SOL     OW71033   7.311   5.084   0.554 -0.0924 -0.1550  0.0137
21391SOL    HW171034   7.247   5.145   0.518  0.6121 -0.1858 -1.4015
21391SOL    HW271035   7.369   5.138   0.608 -1.3013 -0.1404  1.3486
21392SOL     OW71036  11.521   0.043  11.808  0.0794 -0.8261  0.0942
21392SOL    HW171037  11.517   0.102  11.733 -0.3877  0.9222  1.4416
21392SOL    HW271038  11.531   0.100  11.884 -0.8432 -2.4365  1.5113
21393SOL     OW71039   6.928  11.935  11.932  0.1235  0.1754 -0.2874
21393SOL    HW171040   6.962  11.905  11.848 -0.0596  2.2213 -1.1301
21393SOL    HW271041   6.834  11.944  11.918 -0.1866 -1.1632  0.7050
21394SOL     OW71042   3.307   8.266   0.092  0.1963 -0.0498 -0.0141
21394SOL    HW171043   3.326   8.352   0.054  0.6877 -0.1338  0.0359
21394SOL    HW271044   3.212   8.257   0.085  0.3223 -0.4435 -2.0609
21395SOL     OW71045  10.804   0.628   9.612  0.1225 -0.4146 -0.0906
21395SOL    HW171046  10.756   0.648   9.532  0.9478  1.5715 -0.1631
21395SOL    HW271047  10.738   0.633   9.681  0.1435  2.6502 -0.1369
21396SOL     OW71048   4.269   5.498   4.167  0.1913 -0.4457 -0.0224
21396SOL    HW171049   4.269   5.490   4.072 -1.7955 -1.4845  0.0033
21396SOL    HW271050   4.290   5.411   4.199 -0.3041 -0.3933  0.4683
21397SOL     OW71051   9.510   8.344  12.186 -0.5737  0.0723 -0.4769
21397SOL    HW171052   9.586   8.355  12.129 -0.6152  0.7264 -0.4109
21397SOL    HW271053   9.505   8.250  12.201  0.7992  0.0885  0.2896
21398SOL     OW71054   1.112   6.836   8.705 -0.0796  1.3649 -0.1991
21398SOL    HW171055   1.167   6.808   8.779  1.6122  2.3065 -1.0344
21398SOL    HW271056   1.025   6.849   8.744  0.2774 -0.0401  1.2104
21399SOL     OW71057   9.368   1.443   9.651 -0.7340 -0.3858  0.1756
21399SOL    HW171058   9.286   1.486   9.626  0.0354  1.6209  0.9081
21399SOL    HW271059   9.373   1.455   9.746  0.6313 -0.0476  0.0811
21400SOL     OW71060  11.875   1.158  11.049 -0.5489 -0.2392 -0.0309
21400SOL    HW171061  11.873   1.197  10.962  0.5227 -0.2540 -0.0818
21400SOL    HW271062  11.786   1.127  11.064 -1.0281  0.7988 -0.6393
21401SOL     OW71063  10.517  10.118   5.829 -0.0702  0.0551 -0.0451
21401SOL    HW171064  10.483  10.131   5.740 -0.0887 -1.3668 -0.2705
21401SOL    HW271065  10.532  10.206   5.862 -1.3971  0.6571 -0.9437
21402SOL     OW71066  10.817   6.725   2.635  0.0166  0.0046  0.1704
21402SOL    HW171067  10.890   6.672   2.667 -0.0358  0.2484  0.7160
21402SOL    HW271068  10.739   6.683   2.671 -0.1909 -0.7527 -1.1071
21403SOL     OW71069  11.537   6.151   6.386 -0.0932  0.3349 -0.2568
21403SOL    HW171070  11.468   6.212   6.362 -0.3669  0.7400  1.4016
21403SOL    HW271071  11.564   6.179   6.474  0.6869 -1.1268 -0.0008
21404SOL     OW71072   9.671  12.071   3.718  0.5231 -0.2260 -0.0144
21404SOL    HW171073   9.736  12.065   3.648  0.1314 -0.0612 -0.3946
21404SOL    HW271074   9.672  12.164   3.743  1.8463 -0.5625  1.3417
21405SOL     OW71075   7.667  10.820  11.046  0.0955 -0.2715 -0.0946
21405SOL    HW171076   7.713  10.855  11.122 -0.6420  0.4440  0.0360
21405SOL    HW271077   7.736  10.797  10.984  0.6286  1.2310 -0.1047
21406SOL     OW71078  11.133   5.791   0.308 -0.0054  0.0358  0.1084
21406SOL    HW171079  11.192   5.795   0.232  0.2139  0.1041  0.2811
21406SOL    HW271080  11.190   5.772   0.382 -0.1661  0.3428  0.3164
21407SOL     OW71081   4.548   6.776   3.188  0.8374 -0.4004 -0.1897
21407SOL    HW171082   4.544   6.867   3.161  2.3961  0.3826  1.8746
21407SOL    HW271083   4.493   6.729   3.126  0.0706  1.9189 -1.3652
21408SOL     OW71084   7.652  10.411   8.342  0.8395 -0.3007 -0.3831
21408SOL    HW171085   7.569  10.417   8.296  0.8924 -1.3027 -0.6425
21408SOL    HW271086   7.671  10.500   8.370 -2.0950 -0.4794  2.9030
21409SOL     OW71087  10.267   6.800  10.888  0.6178  0.1797 -0.1920
21409SOL    HW171088  10.337   6.865  10.894  0.6176  0.3574 -1.6394
21409SOL    HW271089  10.268   6.773  10.796 -0.9222 -0.1559 -0.1380
21410SOL     OW71090  12.258   6.126  11.040  0.1498  0.7337  1.0066
21410SOL    HW171091  12.340   6.078  11.036  0.7090  1.7372 -1.1840
21410SOL    HW271092  12.233   6.124  11.132  1.0621 -2.1266  1.2720
21411SOL     OW71093   1.507  10.523   8.174 -0.4304 -0.6163 -0.3564
21411SOL    HW171094   1.585  10.529   8.119 -0.1094 -1.0149  0.0485
21411SOL    HW271095   1.513  10.437   8.216 -0.4367 -0.1482  0.6328
21412SOL     OW71096   1.921   3.034   8.577 -0.0476  0.7048  0.1378
21412SOL    HW171097   1.977   3.061   8.650 -3.1670  0.6393  2.7900
21412SOL    HW271098   1.913   3.112   8.523  1.8473  0.9379  0.0954
21413SOL     OW71099  10.237   1.510   9.878 -0.4614 -0.2367  1.0277
21413SOL    HW171100  10.213   1.516   9.971  2.1804  1.9664  1.7204
21413SOL    HW271101  10.213   1.595   9.842  0.0443 -0.4617  0.1338
21414SOL     OW71102   9.329   1.985  10.405 -0.4267  0.0576 -0.7867
21414SOL    HW171103   9.343   2.080  10.412  0.2650  0.0731 -2.1101
21414SOL    HW271104   9.414   1.949  10.382 -0.5714 -0.9660  0.2114
21415SOL     OW71105   1.060   9.627   7.212 -0.5972  0.0276  0.5609
21415SOL    HW171106   1.106   9.595   7.289 -1.7495 -0.2727  1.1452
21415SOL    HW271107   0.967   9.611   7.230 -0.9219  0.2909 -0.7272
21416SOL     OW71108  10.906   5.083   2.295  0.1785 -0.3421 -0.5797
21416SOL    HW171109  10.874   5.157   2.242  0.0439 -0.4484 -0.6476
21416SOL    HW271110  10.894   5.007   2.239 -2.1431 -0.8013  0.3980
21417SOL     OW71111  12.097  11.315   3.069 -0.0220  0.0338  0.2793
21417SOL    HW171112  12.161  11.360   3.124 -0.4862  0.3237  0.5890
21417SOL    HW271113  12.018  11.370   3.074 -1.0530 -1.4529  1.7477
21418SOL     OW71114   9.444   9.731  11.277 -0.0867 -0.3219  0.3789
21418SOL    HW171115   9.398   9.811  11.301 -1.7977 -0.9984 -0.5055
21418SOL    HW271116   9.439   9.676  11.355  1.2280  0.4420  1.0441
21419SOL     OW71117   4.717   9.951   6.688  0.4526  0.1567 -0.0150
21419SOL    HW171118   4.708   9.870   6.638  2.3084  0.3308 -0.7307
21419SOL    HW271119   4.778  10.004   6.636 -1.2864  2.3575  0.0407
21420SOL     OW71120   5.739   0.755   7.024  0.3707  0.2788  0.1052
21420SOL    HW171121   5.817   0.710   7.055 -1.3967 -3.1671 -0.0042
21420SOL    HW271122   5.758   0.776   6.933  1.3731  0.0283  0.2438
21421SOL     OW71123   3.810   2.788   1.342 -0.2304 -0.3631 -0.4370
21421SOL    HW171124   3.809   2.753   1.431  3.2248  0.6484  0.1666
21421SOL    HW271125   3.764   2.872   1.349 -0.2219 -0.4119  0.3500
21422SOL     OW71126   3.117  10.360  12.216  0.1512  0.0696 -0.1508
21422SOL    HW171127   3.137  10.286  12.273  0.6045 -0.1013 -0.5257
21422SOL    HW271128   3.030  10.389  12.244  0.8012  0.6559  1.3209
21423SOL     OW71129  10.856  11.701   1.316 -0.3941 -0.1670 -0.4678
21423SOL    HW171130  10.795  11.754   1.266  0.5007  0.7921 -0.5682
21423SOL    HW271131  10.919  11.763   1.351  1.8757 -1.3285 -2.2630
21424SOL     OW71132   3.707   3.587   8.613 -0.4180 -0.2074 -0.3968
21424SOL    HW171133   3.739   3.505   8.575 -0.1913  0.3514 -1.4778
21424SOL    HW271134   3.665   3.632   8.540  0.2165  1.0097 -0.0494
21425SOL     OW71135  11.651   4.890   9.765  0.2766 -0.0440  0.0120
21425SOL    HW171136  11.738   4.853   9.780  0.1098 -0.5961 -0.3277
21425SOL    HW271137  11.590   4.820   9.790 -0.0288 -1.2501 -3.4598
21426SOL     OW71138   6.809   1.732   5.096  0.6025 -0.1904 -0.0673
21426SOL    HW171139   6.879   1.712   5.034 -0.3061 -0.9084 -0.8775
21426SOL    HW271140   6.790   1.648   5.139 -0.1902 -0.1444 -0.3112
21427SOL     OW71141   6.689  11.819   8.531  0.1123  0.1956  0.7353
21427SOL    HW171142   6.721  11.907   8.510 -1.1049  0.8324  1.4733
21427SOL    HW271143   6.621  11.801   8.466  1.6142 -1.0132 -0.6056
21428SOL     OW71144   2.744   8.903   7.259 -0.4947  0.7322  0.2192
21428SOL    HW171145   2.668   8.961   7.269 -1.6103 -0.5340 -0.4415
21428SOL    HW271146   2.766   8.908   7.166 -0.9523 -0.2511  0.0334
21429SOL     OW71147   1.162  12.439   9.994  0.3477 -0.1208 -0.4946
21429SOL    HW171148   1.139  12.510   9.934 -1.1461 -0.7520 -0.7074
21429SOL    HW271149   1.142  12.473  10.081  1.3592  0.3498 -0.4261
21430SOL     OW71150   2.628  11.463   6.474 -0.5239 -0.1972 -0.3877
21430SOL    HW171151   2.565  11.534   6.463 -1.1778 -0.4346  1.4367
21430SOL    HW271152   2.609  11.402   6.402 -2.7245 -0.4817  0.3594
21431SOL     OW71153   5.307   8.815   4.041 -0.0587 -0.2654  0.0123
21431SOL    HW171154   5.391   8.771   4.052  0.6709  1.1829  0.4000
21431SOL    HW271155   5.248   8.769   4.101  0.0873 -2.1125 -1.1720
21432SOL     OW71156   3.037   7.896   8.511 -0.0638 -0.1031 -0.1947
21432SOL    HW171157   2.981   7.927   8.581 -0.5858 -3.5132  1.0829
21432SOL    HW271158   3.124   7.932   8.532 -0.6561  0.7767  0.8558
21433SOL     OW71159   7.787   9.760   5.360  0.8720  0.0415  0.2278
21433SOL    HW171160   7.707   9.756   5.413 -0.3616 -0.9029 -1.5804
21433SOL    HW271161   7.779   9.844   5.313  0.3644 -0.5349 -0.7503
21434SOL     OW71162  11.237   7.510   5.780 -0.4228  0.0233 -0.2318
21434SOL    HW171163  11.296   7.567   5.829 -1.3788 -0.4610  1.5738
21434SOL    HW271164  11.179   7.571   5.733 -0.2588  0.5213  0.2028
21435SOL     OW71165   0.510   6.653   6.029 -0.5953 -0.3520 -0.1967
21435SOL    HW171166   0.548   6.726   6.077  0.4244 -1.1362  0.2221
21435SOL    HW271167   0.458   6.605   6.094  1.3580 -1.8209  0.3721
21436SOL     OW71168  12.359  11.143   7.883 -0.2699  0.1427 -0.3149
21436SOL    HW171169  12.322  11.186   7.806  1.6281  1.0023 -0.8047
21436SOL    HW271170  12.437  11.194   7.905 -0.1631 -0.7097  1.5517
21437SOL     OW71171   3.098   1.065   1.968  0.0371  0.3336 -0.0733
21437SOL    HW171172   3.010   1.030   1.959 -0.6158  1.5022  1.4248
21437SOL    HW271173   3.115   1.108   1.884 -0.7907  0.0767 -0.3823
21438SOL     OW71174   4.094   2.216   1.625  0.1543  0.5050 -0.2522
21438SOL    HW171175   4.157   2.173   1.684 -0.1509  0.4531  0.0408
21438SOL    HW271176   4.103   2.169   1.542 -1.0097 -0.9507  0.3846
21439SOL     OW71177  10.033   0.258   3.020  0.1430 -0.3401  0.4461
21439SOL    HW171178   9.993   0.312   3.088 -0.2230  0.7447 -0.5977
21439SOL    HW271179   9.964   0.244   2.957  0.3147 -1.8413  0.5578
21440SOL     OW71180   0.952   4.733   2.703 -0.1655 -0.1037 -0.2509
21440SOL    HW171181   0.864   4.768   2.693  0.2890  1.1179 -0.1753
21440SOL    HW271182   1.006   4.788   2.645  1.1352  1.6342  2.3739
21441SOL     OW71183   1.806   9.092  10.228 -0.3179  0.2224 -0.0934
21441SOL    HW171184   1.760   9.070  10.147 -0.2114  0.8654 -0.3284
21441SOL    HW271185   1.816   9.008  10.273  0.7597 -0.3404 -1.3227
21442SOL     OW71186   6.781  10.727   8.141  0.1780  0.1411  0.3796
21442SOL    HW171187   6.724  10.709   8.067  0.5698 -1.3924  0.4292
21442SOL    HW271188   6.726  10.711   8.218  0.2935 -0.0661  0.4206
21443SOL     OW71189   9.191   4.718   9.166 -0.4462  0.4513  0.2414
21443SOL    HW171190   9.118   4.778   9.176 -1.8389 -1.4247  2.4097
21443SOL    HW271191   9.159   4.649   9.108  0.0447  0.2626  0.1856
21444SOL     OW71192   4.138   6.342   1.639  0.2448 -0.2117  0.2766
21444SOL    HW171193   4.165   6.255   1.667 -0.3169  0.1831  2.2495
21444SOL    HW271194   4.177   6.353   1.553  2.4759 -1.4142  1.0480
21445SOL     OW71195   5.138   9.266   2.645 -0.0960  0.3396  0.0752
21445SOL    HW171196   5.085   9.274   2.565  2.5136  1.3474 -1.6973
21445SOL    HW271197   5.127   9.350   2.689 -0.7313  0.1711  0.2461
21446SOL     OW71198   0.549   0.950  10.513 -0.2953 -0.4921  0.1145
21446SOL    HW171199   0.496   1.024  10.485  1.6674  1.6030  1.6307
21446SOL    HW271200   0.514   0.926  10.599  1.5243  1.3731  1.4565
21447SOL     OW71201   8.745   1.014   8.230 -0.3381  0.0342  0.4231
21447SOL    HW171202   8.730   0.921   8.210 -1.5387  0.5345 -1.3465
21447SOL    HW271203   8.820   1.015   8.289  0.3784 -2.0022 -0.3690
21448SOL     OW71204   3.910   8.996   4.306 -0.2449  0.5894 -0.0810
21448SOL    HW171205   3.904   8.996   4.402  2.4276 -0.0792  0.1783
21448SOL    HW271206   3.874   8.912   4.280 -1.5612  1.0278  0.2544
21449SOL     OW71207  10.652  10.839   4.661  0.2583  0.5000  1.1879
21449SOL    HW171208  10.594  10.903   4.701  0.6971 -0.9158  4.3961
21449SOL    HW271209  10.593  10.770   4.628 -0.0240  0.7165  1.2410
21450SOL     OW71210   2.405   0.938   1.787  0.4915 -0.0958 -0.1746
21450SOL    HW171211   2.396   0.965   1.878 -3.4937  2.1452 -0.9886
21450SOL    HW271212   2.350   0.859   1.780  1.1429 -0.5275 -0.5782
21451SOL     OW71213   9.512   4.519  12.107 -0.0556  0.1565 -0.3421
21451SOL    HW171214   9.453   4.450  12.076 -0.4190  0.4264 -0.2552
21451SOL    HW271215   9.479   4.541  12.194 -0.0421  0.5553 -0.4375
21452SOL     OW71216  12.346   4.337   4.621 -0.1046  0.4088  0.2818
21452SOL    HW171217  12.290   4.265   4.650  2.6275 -1.8688  0.3127
21452SOL    HW271218  12.412   4.295   4.565  1.2052  3.0265 -0.3093
21453SOL     OW71219   0.452   4.543   4.313  0.3769 -0.6375  0.1502
21453SOL    HW171220   0.425   4.571   4.401 -1.5292 -1.3308 -0.1704
21453SOL    HW271221   0.537   4.501   4.326  0.8011  0.5258  1.4206
21454SOL     OW71222   5.112   1.504   4.781  0.6881  0.2093  0.1851
21454SOL    HW171223   5.102   1.423   4.832  2.3785 -0.1491  0.0136
21454SOL    HW271224   5.025   1.520   4.743  0.2510 -1.3773  0.4548
21455SOL     OW71225  11.012   3.814   7.230 -0.2015  0.0949 -0.7228
21455SOL    HW171226  11.084   3.875   7.247  0.8326 -1.5324  1.1524
21455SOL    HW271227  11.049   3.747   7.173 -1.3183  1.0708 -2.7209
21456SOL     OW71228   7.525   8.794   2.933 -0.1008 -0.2431 -0.3466
21456SOL    HW171229   7.444   8.844   2.924 -0.8045 -0.8834  1.8863
21456SOL    HW271230   7.593   8.860   2.943 -0.4842  0.2786 -1.0654
21457SOL     OW71231   5.622   1.626   3.859  0.3770  0.7285 -0.3229
21457SOL    HW171232   5.544   1.574   3.879  0.3084  0.1317 -1.9627
21457SOL    HW271233   5.679   1.614   3.935 -1.3346  1.6355  1.1648
21458SOL     OW71234   4.186  12.316   0.777 -0.3887 -1.1006  0.1419
21458SOL    HW171235   4.157  12.236   0.821  1.0278 -1.1097  1.1559
21458SOL    HW271236   4.278  12.299   0.756  0.3712  0.7301  1.6634
21459SOL     OW71237   0.236   4.264   6.134  0.3249 -0.1301  0.5516
21459SOL    HW171238   0.269   4.196   6.075 -0.4647 -0.8585  0.9264
21459SOL    HW271239   0.263   4.235   6.221  2.6000  1.5794  0.5013
21460SOL     OW71240   4.294  10.467   0.863  0.2544 -0.0142 -0.2778
21460SOL    HW171241   4.212  10.421   0.842 -0.5486  0.8375  0.8477
21460SOL    HW271242   4.278  10.558   0.837 -0.3012  0.8055  2.5540
21461SOL     OW71243  12.154   9.553   4.382  0.2585  0.4023 -0.2748
21461SOL    HW171244  12.153   9.552   4.478 -0.1211  1.5774 -0.2484
21461SOL    HW271245  12.212   9.481   4.358  0.4974  0.2000  0.8380
21462SOL     OW71246   4.379   4.096   8.151 -0.3614  0.4715  0.0944
21462SOL    HW171247   4.459   4.083   8.202  0.2706 -0.1414 -1.0163
21462SOL    HW271248   4.384   4.187   8.123 -0.0286  0.4246 -0.0053
21463SOL     OW71249   5.917   2.968   8.982  0.1442 -0.3336 -0.0217
21463SOL    HW171250   5.876   2.936   9.062  0.6957 -0.0807  0.3725
21463SOL    HW271251   5.914   2.894   8.922  0.1728 -0.6841  0.4059
21464SOL     OW71252   5.318  11.915   3.997  0.3124 -0.0849 -0.2241
21464SOL    HW171253   5.391  11.904   4.057  1.0030 -0.9625 -1.1966
21464SOL    HW271254   5.253  11.965   4.047  0.8334 -0.8541  1.2646
21465SOL     OW71255   7.893   4.222   4.289 -0.0196  0.3833 -0.5291
21465SOL    HW171256   7.838   4.265   4.354 -0.1188  0.6260 -0.7696
21465SOL    HW271257   7.831   4.193   4.221 -0.2236 -1.8214  0.4942
21466SOL     OW71258   0.861   3.461   9.919  0.4026 -0.3995 -0.4431
21466SOL    HW171259   0.915   3.411   9.857  1.9381 -0.0342  0.5574
21466SOL    HW271260   0.794   3.398   9.947  0.6713 -1.0673 -1.2230
21467SOL     OW71261   5.065   1.658   7.683 -0.3637  0.4841  0.0217
21467SOL    HW171262   4.995   1.723   7.689  1.2114  2.2432  0.2185
21467SOL    HW271263   5.023   1.576   7.710 -2.0490  1.6958  1.3616
21468SOL     OW71264   3.173   0.269   1.664  0.6797  0.1525 -0.1411
21468SOL    HW171265   3.230   0.340   1.695 -0.8322  0.4563  2.2580
21468SOL    HW271266   3.094   0.314   1.634  0.4120 -0.4136 -0.2883
21469SOL     OW71267   2.046  10.575  12.259 -0.3206  0.1377 -0.4804
21469SOL    HW171268   2.074  10.524  12.335 -2.7479  0.1566  0.4922
21469SOL    HW271269   2.075  10.664  12.280 -0.8282  0.1154  0.3556
21470SOL     OW71270   5.087  11.096   5.691 -0.4041  0.4936 -0.3906
21470SOL    HW171271   4.999  11.134   5.688 -0.2413  0.8227 -2.4121
21470SOL    HW271272   5.072  11.002   5.704 -0.8746  0.8833  2.6377
21471SOL     OW71273   6.297  11.026   2.386  0.5415  0.1784  0.1758
21471SOL    HW171274   6.351  10.947   2.394  3.3193  2.0817  2.4468
21471SOL    HW271275   6.207  10.994   2.389  1.5425 -2.9009  1.2442
21472SOL     OW71276   3.777   9.658   8.681  0.4093  0.0523  0.1661
21472SOL    HW171277   3.703   9.710   8.652 -0.1367 -0.5545  0.4483
21472SOL    HW271278   3.774   9.579   8.628  0.3724 -0.3363  0.7392
21473SOL     OW71279  12.248   9.831   5.554 -0.1506 -0.1084  0.0287
21473SOL    HW171280  12.174   9.872   5.599  0.0756 -0.4527  0.7273
21473SOL    HW271281  12.307   9.804   5.624  0.3724 -0.3485 -0.4944
21474SOL     OW71282   3.090   4.360   6.074  0.1519  0.1180 -0.4749
21474SOL    HW171283   3.177   4.386   6.045  0.8699  0.9488  2.1219
21474SOL    HW271284   3.100   4.345   6.168 -2.2890 -0.7830 -0.2988
21475SOL     OW71285   2.843   3.106  11.447 -0.8782  0.4233 -0.3677
21475SOL    HW171286   2.936   3.087  11.457 -1.2497 -0.9842  0.6376
21475SOL    HW271287   2.837   3.201  11.454  0.1839  0.3518  2.4715
21476SOL     OW71288   3.954   6.355   1.841 -0.2552  1.1076  0.7218
21476SOL    HW171289   3.901   6.421   1.796  2.3711  2.8686 -0.0294
21476SOL    HW271290   4.019   6.329   1.776 -0.8578 -1.9025  1.2027
21477SOL     OW71291   6.942   6.075   0.660 -0.8645 -0.3731  0.3434
21477SOL    HW171292   6.904   6.034   0.738 -1.1507  1.1721  1.0586
21477SOL    HW271293   6.889   6.154   0.647  1.8544  1.7274  1.2064
21478SOL     OW71294   9.594  11.666   8.625 -0.0379  0.0274  0.1315
21478SOL    HW171295   9.601  11.615   8.544  0.2152 -0.0456  0.1958
21478SOL    HW271296   9.684  11.696   8.641  0.1488 -0.9222  1.0066
21479SOL     OW71297   7.800   5.649  12.353 -0.5537 -0.0231  0.3326
21479SOL    HW171298   7.889   5.614  12.357 -0.5273 -0.1136 -0.7892
21479SOL    HW271299   7.802   5.726  12.410  1.0889  1.7260 -1.8985
21480SOL     OW71300   5.431   1.352   0.095  0.1519 -0.1044 -0.0438
21480SOL    HW171301   5.458   1.277   0.041 -0.0525 -0.9938  1.0506
21480SOL    HW271302   5.419   1.315   0.182  1.8747  1.5736  0.9561
21481SOL     OW71303   0.417   8.804   9.700  0.0731  0.3376  0.0490
21481SOL    HW171304   0.453   8.842   9.620  0.0894  2.1770  0.8796
21481SOL    HW271305   0.383   8.879   9.749 -0.0084 -0.7533  1.7383
21482SOL     OW71306   6.646  10.115   2.631 -0.2977  0.1937 -0.2966
21482SOL    HW171307   6.725  10.066   2.610 -0.3951  0.2571 -0.8430
21482SOL    HW271308   6.577  10.073   2.580 -0.5739  0.2762  0.0053
21483SOL     OW71309   1.290  10.661   9.998  0.1765 -0.4654  0.8427
21483SOL    HW171310   1.350  10.733   9.979  0.2219 -0.3768  1.3108
21483SOL    HW271311   1.204  10.693   9.969  0.2632 -0.3807  0.6785
21484SOL     OW71312   6.405   2.209   3.002 -0.4046  0.6296 -0.1602
21484SOL    HW171313   6.352   2.189   3.080  0.0136  0.8169  0.1724
21484SOL    HW271314   6.481   2.255   3.036  0.7718 -1.0062 -0.4502
21485SOL     OW71315   2.729   0.339   8.613  0.4136 -0.4813 -0.1981
21485SOL    HW171316   2.782   0.414   8.585  0.6209 -0.3794  0.4665
21485SOL    HW271317   2.776   0.262   8.579  0.4800 -0.3395 -0.4281
21486SOL     OW71318   6.463   6.427  12.122 -0.1115  0.2504 -0.0617
21486SOL    HW171319   6.380   6.411  12.078  0.9429  1.7678 -2.9001
21486SOL    HW271320   6.523   6.362  12.086  0.4638  0.6287  0.1845
21487SOL     OW71321   4.464   8.548   8.246 -0.5351  0.0507  0.6456
21487SOL    HW171322   4.415   8.582   8.321  1.5922  0.8323  1.7596
21487SOL    HW271323   4.553   8.538   8.278  0.0813 -1.3353 -1.2926
21488SOL     OW71324   0.157   9.591   6.931 -0.5203  0.3987 -0.5805
21488SOL    HW171325   0.082   9.631   6.888 -1.2005  0.8652  0.9821
21488SOL    HW271326   0.232   9.619   6.879 -1.3383  0.5342 -1.7317
21489SOL     OW71327   8.113   3.972   9.750 -0.2807 -0.0152 -0.0885
21489SOL    HW171328   8.084   4.001   9.836 -1.0298  0.3157 -0.4474
21489SOL    HW271329   8.208   3.963   9.759 -0.5578 -2.4345  1.5071
21490SOL     OW71330   9.252   2.078   9.218  0.0931 -0.2215 -0.2738
21490SOL    HW171331   9.227   1.986   9.222  1.5570 -0.6432 -0.2829
21490SOL    HW271332   9.323   2.081   9.153  0.7444  0.7354  0.4502
21491SOL     OW71333  10.518   1.418   7.901  0.3588  0.2422 -0.1050
21491SOL    HW171334  10.522   1.348   7.966  1.2553 -0.1789 -0.5989
21491SOL    HW271335  10.591   1.400   7.842 -0.4376  0.6093 -1.2369
21492SOL     OW71336   8.329   5.545   3.884  0.1545 -0.4246  0.2258
21492SOL    HW171337   8.349   5.628   3.840 -4.3804  0.8369  0.0761
21492SOL    HW271338   8.346   5.563   3.977 -1.2294  0.9325  0.2544
21493SOL     OW71339   4.890   6.082  10.747  0.1488 -0.5281 -0.2102
21493SOL    HW171340   4.926   6.169  10.760  0.6442 -0.7377 -0.1477
21493SOL    HW271341   4.832   6.068  10.822  1.7360 -1.0920  0.9806
21494SOL     OW71342   8.943   8.698   5.530  0.1706  0.1028  0.2062
21494SOL    HW171343   8.941   8.792   5.550  0.7896  0.1790 -0.0600
21494SOL    HW271344   9.020   8.665   5.577  1.3613  0.1946 -1.5814
21495SOL     OW71345   5.905   6.554   2.455  0.2889 -0.0337 -0.3203
21495SOL    HW171346   5.981   6.594   2.499 -0.3817  1.6223 -0.5817
21495SOL    HW271347   5.943   6.505   2.382  1.2185 -0.6761  0.5560
21496SOL     OW71348   5.310   0.240  10.433  0.3699  0.3254 -0.2333
21496SOL    HW171349   5.283   0.255  10.524  0.3721  4.4296 -0.7194
21496SOL    HW271350   5.356   0.156  10.435 -0.5159 -0.2325  3.3251
21497SOL     OW71351  10.382   5.794   7.998 -0.3527  0.0711  0.3812
21497SOL    HW171352  10.402   5.706   7.966 -0.5406 -0.0494  0.5938
21497SOL    HW271353  10.467   5.836   8.008 -0.3126  0.6564 -1.7715
21498SOL     OW71354   3.124   3.008   8.111  0.2104 -0.0166 -0.0624
21498SOL    HW171355   3.154   2.962   8.032  3.4564  0.9944  0.4483
21498SOL    HW271356   3.044   3.053   8.083  0.8736 -0.2468 -2.5620
21499SOL     OW71357  12.368   0.949  10.154  0.6339  0.5831 -0.0251
21499SOL    HW171358  12.441   0.951  10.216  0.7398  0.9823 -0.1638
21499SOL    HW271359  12.400   0.894  10.082  0.3751 -0.1913  0.4304
21500SOL     OW71360   3.979  11.756   0.495  0.3238 -0.1176  0.2037
21500SOL    HW171361   4.074  11.750   0.485  0.3005 -0.3209  0.0897
21500SOL    HW271362   3.964  11.844   0.529  0.5929 -0.2596  0.7047
21501SOL     OW71363   7.195   2.557   4.676  0.7322 -0.1867  0.3351
21501SOL    HW171364   7.192   2.467   4.644  1.4167  0.0330 -0.3608
21501SOL    HW271365   7.282   2.565   4.716 -0.2113 -0.5605  2.6046
21502SOL     OW71366  12.119   4.926   1.726  0.0928  0.1578  0.5142
21502SOL    HW171367  12.070   4.905   1.805 -2.1988  1.8392 -0.3661
21502SOL    HW271368  12.073   4.879   1.656  2.8103 -2.3210  0.2164
21503SOL     OW71369   2.394   9.684  10.364 -0.1934 -0.0721 -0.1250
21503SOL    HW171370   2.431   9.615  10.308  1.5703  0.3367  0.4813
21503SOL    HW271371   2.467   9.744  10.380 -0.7816  0.1196  2.1700
21504SOL     OW71372   3.902  10.499   9.249 -0.2978 -0.4930 -0.2039
21504SOL    HW171373   3.994  10.495   9.225 -0.1191 -0.2055  0.4201
21504SOL    HW271374   3.893  10.581   9.298 -0.6907 -0.9537  0.5203
21505SOL     OW71375   0.035   0.286   3.859 -0.1159  0.4114 -0.0982
21505SOL    HW171376   0.040   0.382   3.863  2.0505  0.4135 -1.1822
21505SOL    HW271377   0.031   0.267   3.765  2.3786 -0.5709 -0.0833
21506SOL     OW71378  10.735   8.844   6.197  1.0568 -0.4053  0.9660
21506SOL    HW171379  10.792   8.854   6.122  0.9718 -1.3761  0.7636
21506SOL    HW271380  10.682   8.924   6.198  2.9309  0.8896  1.6262
21507SOL     OW71381   1.453   9.033   8.349  0.5708  0.2849  0.2965
21507SOL    HW171382   1.466   8.952   8.398 -0.0433 -1.2060 -1.8886
21507SOL    HW271383   1.358   9.041   8.340  0.6447 -1.2074 -3.1982
21508SOL     OW71384   6.986  10.316   4.194 -0.0902 -0.0618  0.2505
21508SOL    HW171385   6.939  10.293   4.274 -1.4119  0.2893 -0.3956
21508SOL    HW271386   7.014  10.232   4.157  1.6199 -0.1612  1.6899
21509SOL     OW71387   9.242   3.084   9.241  0.0759  0.8458 -0.3198
21509SOL    HW171388   9.309   3.139   9.200  2.4593 -0.7834  1.1276
21509SOL    HW271389   9.279   2.996   9.239 -1.7556 -0.0312  1.1768
21510SOL     OW71390   7.533   9.237  10.801  0.4514  0.4981  0.4985
21510SOL    HW171391   7.507   9.209  10.713 -1.1711 -2.7320  1.8461
21510SOL    HW271392   7.607   9.181  10.823  0.8383  1.2723  1.2206
21511SOL     OW71393  10.906   6.950  10.019 -0.3730  0.0070  0.1203
21511SOL    HW171394  10.940   6.899   9.946 -1.6463 -0.2208 -0.3378
21511SOL    HW271395  10.818   6.915  10.034 -0.9340  1.4537  0.3800
21512SOL     OW71396   5.110  10.226   4.473 -0.1935  0.1440  0.6747
21512SOL    HW171397   5.066  10.277   4.541 -0.9691  1.3966 -0.6891
21512SOL    HW271398   5.184  10.281   4.446 -0.5245  0.1707 -0.2096
21513SOL     OW71399   5.861   9.966  10.556  0.4950 -0.1287  0.0833
21513SOL    HW171400   5.770   9.944  10.577  0.4050 -0.2197 -0.4018
21513SOL    HW271401   5.913   9.904  10.608  0.2673 -0.5999 -0.2480
21514SOL     OW71402   3.867   0.312   3.077  0.0328  0.4887 -0.2310
21514SOL    HW171403   3.899   0.315   3.167  0.5721  0.6269 -0.4235
21514SOL    HW271404   3.772   0.297   3.085  0.3239 -1.2235  0.3115
21515SOL     OW71405   3.570   4.105   5.915  0.0320  0.1176 -0.4752
21515SOL    HW171406   3.608   4.054   5.843  1.6718  0.8488 -0.1870
21515SOL    HW271407   3.637   4.104   5.983 -1.1679  0.1204  0.7309
21516SOL     OW71408  10.147   5.091   3.908 -0.5372  0.2162  0.8587
21516SOL    HW171409  10.185   5.154   3.969 -1.2183  3.5897 -1.8169
21516SOL    HW271410  10.210   5.086   3.836 -1.9091  0.4501 -0.4359
21517SOL     OW71411  10.165   7.176   5.731  0.3755 -0.1468  0.3646
21517SOL    HW171412  10.166   7.234   5.807  1.0909  0.6880 -0.2690
21517SOL    HW271413  10.133   7.092   5.766 -3.9885  1.3775  0.7017
21518SOL     OW71414   7.855  12.228   4.317 -0.0845  0.0131 -0.3750
21518SOL    HW171415   7.804  12.155   4.353 -0.8847  0.3979 -0.6980
21518SOL    HW271416   7.903  12.191   4.243  1.2370 -0.6856  0.7806
21519SOL     OW71417   1.721   3.496   9.280  0.6391  0.1004 -0.3613
21519SOL    HW171418   1.746   3.423   9.222  1.4861  1.2713 -1.5250
21519SOL    HW271419   1.684   3.561   9.221 -0.0032  0.6619  0.6572
21520SOL     OW71420   5.560  10.756   7.529  0.0783  0.1738  0.3064
21520SOL    HW171421   5.602  10.823   7.582 -1.2319  0.3503  1.1715
21520SOL    HW271422   5.571  10.786   7.438  1.2151  0.5288  0.5426
21521SOL     OW71423  10.069   3.680   8.370  0.1441  0.0487  0.5168
21521SOL    HW171424  10.112   3.762   8.344  0.0069 -0.2099 -0.5410
21521SOL    HW271425   9.977   3.704   8.384  0.2601  0.2298  0.9996
21522SOL     OW71426  12.333   2.910  12.172 -0.5889 -0.1134 -0.5433
21522SOL    HW171427  12.306   2.851  12.242  0.0641  0.6611  0.3935
21522SOL    HW271428  12.420   2.878  12.146  0.9918  1.9275  1.8193
21523SOL     OW71429   7.886   0.995   2.260 -0.0160 -0.2685 -0.5069
21523SOL    HW171430   7.957   1.017   2.200  0.4488  0.0091  0.1446
21523SOL    HW271431   7.919   0.923   2.312  0.3656  0.8245  0.8135
21524SOL     OW71432  12.180  11.016   7.515 -0.3443  0.6205 -0.2510
21524SOL    HW171433  12.193  10.942   7.456 -1.4607  1.3402 -1.4637
21524SOL    HW271434  12.230  11.088   7.476 -1.0255  1.0833 -0.2893
21525SOL     OW71435   6.805   2.574  11.009 -0.2851 -0.3169  0.1890
21525SOL    HW171436   6.784   2.615  10.925  0.5509 -0.7824 -0.2679
21525SOL    HW271437   6.832   2.646  11.065 -1.8200  0.1224  0.3924
21526SOL     OW71438   0.988   6.035  10.626 -0.4260  0.4305  0.3828
21526SOL    HW171439   1.014   5.966  10.688 -1.2086 -0.5394 -0.3269
21526SOL    HW271440   1.044   6.109  10.647  1.0216 -0.6888  0.6624
21527SOL     OW71441   1.935   7.468   5.449 -0.1053 -0.1618 -0.2334
21527SOL    HW171442   1.859   7.416   5.476  0.5502 -1.3086 -0.4983
21527SOL    HW271443   1.997   7.403   5.416  0.6682  0.8302 -0.7878
21528SOL     OW71444   3.769   4.647   8.273 -0.1129 -0.2090  0.3769
21528SOL    HW171445   3.858   4.684   8.272 -0.7644  1.4411  0.9868
21528SOL    HW271446   3.751   4.632   8.365 -1.4024  1.9138  0.5306
21529SOL     OW71447   0.430   1.394   1.733  0.0017  0.0599 -0.0599
21529SOL    HW171448   0.472   1.477   1.754 -1.0359  0.6813 -0.3771
21529SOL    HW271449   0.501   1.338   1.701  0.7651  0.7011  0.5019
21530SOL     OW71450   7.211   1.101   0.933  0.4082  0.2321  0.3525
21530SOL    HW171451   7.198   1.131   1.023  0.2127  1.4105 -0.0467
21530SOL    HW271452   7.228   1.008   0.941  0.2565  0.2929  1.6016
21531SOL     OW71453   9.523   6.018   4.112 -0.3190  0.1274 -0.1747
21531SOL    HW171454   9.614   6.026   4.084  0.0622 -1.0423  0.6338
21531SOL    HW271455   9.478   5.976   4.039 -0.1071  0.2722 -0.3884
21532SOL     OW71456   3.393   4.367   5.379 -0.3216 -0.0864 -0.2488
21532SOL    HW171457   3.406   4.307   5.452  2.1922  0.6398 -0.0286
21532SOL    HW271458   3.428   4.321   5.303 -0.4476  0.2357 -0.5078
21533SOL     OW71459   2.569   3.884   4.784 -0.2073 -0.0084 -0.5792
21533SOL    HW171460   2.592   3.864   4.693  0.7446  0.0003 -0.3511
21533SOL    HW271461   2.565   3.799   4.827 -1.5264 -0.0836 -0.8086
21534SOL     OW71462   0.475  10.149   0.393 -0.4632  0.2493  0.5153
21534SOL    HW171463   0.428  10.141   0.310 -0.4405 -1.5180  0.6412
21534SOL    HW271464   0.519  10.234   0.388  0.5764 -0.3502 -1.8377
21535SOL     OW71465   5.181   1.025   5.125  0.1739 -0.0982  0.0126
21535SOL    HW171466   5.124   0.962   5.170 -1.0650  0.8317 -0.1962
21535SOL    HW271467   5.193   0.987   5.037  0.9496 -0.9243  0.4558
21536SOL     OW71468   9.100   2.707  10.092 -0.6659  0.0040 -0.0230
21536SOL    HW171469   9.136   2.659  10.017 -0.3569  1.5183 -0.8822
21536SOL    HW271470   9.173   2.709  10.155 -0.0152  0.9654 -0.7711
21537SOL     OW71471   0.856   0.930   2.245 -0.0344  0.2167  0.2967
21537SOL    HW171472   0.794   0.869   2.204  0.2229  0.1131  0.0610
21537SOL    HW271473   0.887   0.884   2.323  1.7170 -0.8370 -0.9461
21538SOL     OW71474  12.480   5.569   1.815 -0.7881  0.1315 -0.2414
21538SOL    HW171475  12.495   5.662   1.800 -0.5486  0.6236  2.5382
21538SOL    HW271476  12.503   5.555   1.906 -0.3620 -2.7898 -0.6897
21539SOL     OW71477  11.383  10.935   0.495  0.2473  0.4144  0.3506
21539SOL    HW171478  11.479  10.928   0.495  0.2890  0.6776  1.8440
21539SOL    HW271479  11.365  11.003   0.560 -0.9911 -0.1017  0.5574
21540SOL     OW71480   0.268  10.257   0.518 -0.6538 -0.2771 -0.3576
21540SOL    HW171481   0.339  10.199   0.490 -1.7565 -1.1252 -1.5039
21540SOL    HW271482   0.298  10.345   0.494 -0.2300 -0.6839 -1.3543
21541SOL     OW71483   8.011   3.605   2.519  0.0327  0.5587  0.5554
21541SOL    HW171484   8.031   3.699   2.523 -0.6253  0.6961  0.9212
21541SOL    HW271485   7.998   3.580   2.610 -1.6508  0.5567  0.3578
21542SOL     OW71486   7.733   2.843  10.136 -0.5989  0.1503  0.1711
21542SOL    HW171487   7.675   2.782  10.180 -1.0444 -0.0437 -0.6561
21542SOL    HW271488   7.700   2.930  10.159  0.5510  0.1565  2.0527
21543SOL     OW71489   6.327  12.241  10.257 -0.3163  0.2157 -0.3687
21543SOL    HW171490   6.381  12.287  10.322 -2.5608  2.0309  0.3405
21543SOL    HW271491   6.304  12.308  10.193 -1.4205 -0.5912 -0.8437
21544SOL     OW71492   7.832  11.547   4.982 -0.1047 -0.4740  0.2272
21544SOL    HW171493   7.885  11.543   5.063  1.9824  0.8190 -0.9796
21544SOL    HW271494   7.806  11.638   4.975  0.5944 -0.3593 -1.0606
21545SOL     OW71495   5.233  10.920   2.214  0.3732  0.0341  0.0400
21545SOL    HW171496   5.316  10.905   2.169  1.0928  1.1910  0.9308
21545SOL    HW271497   5.219  11.014   2.208  0.2861  0.1682  1.8203
21546SOL     OW71498   7.367   4.784  12.379  0.7859  0.5125  0.0161
21546SOL    HW171499   7.392   4.876  12.373  1.7896  0.2020 -0.8950
21546SOL    HW271500   7.328   4.764  12.294  1.6906 -0.1946 -0.2548
21547SOL     OW71501   7.721   8.073  10.482  0.9951 -0.0008  0.6321
21547SOL    HW171502   7.641   8.036  10.444  1.6022 -0.2565 -0.4241
21547SOL    HW271503   7.730   8.027  10.566 -0.7781  1.1228  1.5230
21548SOL     OW71504   4.934  11.910   7.845 -0.5207  0.1332  0.2803
21548SOL    HW171505   4.926  12.005   7.852  1.9358  0.2935  2.8625
21548SOL    HW271506   4.991  11.897   7.768 -1.8166  0.5995 -0.8024
21549SOL     OW71507   7.839   3.494   4.407 -0.0600 -0.8636 -0.0117
21549SOL    HW171508   7.877   3.442   4.478 -1.2631 -0.7799  0.7393
21549SOL    HW271509   7.748   3.509   4.435  0.0231  0.9545 -0.5865
21550SOL     OW71510  11.916   9.601  12.254  0.0668 -0.0277 -0.3552
21550SOL    HW171511  11.957   9.531  12.304 -0.2450  1.4678  2.1942
21550SOL    HW271512  11.830   9.566  12.229  0.6156 -1.1574 -0.7116
21551SOL     OW71513   2.941   2.808   7.392 -1.0186 -0.3911  0.5108
21551SOL    HW171514   3.026   2.766   7.405 -0.4080  1.0831  1.5803
21551SOL    HW271515   2.882   2.736   7.367  0.6020 -1.3717 -0.6304
21552SOL     OW71516  10.017   4.719   6.406  0.0194  0.1842 -0.9346
21552SOL    HW171517   9.949   4.757   6.462 -0.7686  0.1815 -1.8607
21552SOL    HW271518  10.071   4.667   6.465  0.1922  1.4866  0.0969
21553SOL     OW71519   8.834   2.990   2.870 -0.1828 -0.1397 -0.1971
21553SOL    HW171520   8.826   3.022   2.960  0.5349 -0.3280 -0.0565
21553SOL    HW271521   8.901   2.921   2.876 -0.0930 -0.1127 -0.8863
21554SOL     OW71522   5.011   4.139   8.174  0.1322 -0.6665  0.0247
21554SOL    HW171523   5.061   4.193   8.113  0.9538  1.3580  2.3379
21554SOL    HW271524   4.924   4.180   8.176  0.4189 -0.0798  0.9460
21555SOL     OW71525   6.567  11.738  10.473  0.0828 -0.4803 -0.2349
21555SOL    HW171526   6.585  11.644  10.472 -0.1008 -0.5552 -2.9092
21555SOL    HW271527   6.649  11.778  10.446 -0.1133  0.0865 -0.0043
21556SOL     OW71528  10.952   2.758  10.022 -0.5755  0.1987  0.5138
21556SOL    HW171529  11.043   2.761   9.994 -0.1065 -1.3452  1.7123
21556SOL    HW271530  10.908   2.702   9.958 -0.7164  0.9837 -0.0927
21557SOL     OW71531   9.649   2.419   6.111 -0.1486 -0.0515  0.0804
21557SOL    HW171532   9.585   2.408   6.040 -0.6918  0.6962  0.4323
21557SOL    HW271533   9.690   2.504   6.093  0.1798 -0.1643  0.2967
21558SOL     OW71534   7.974   2.026   4.626  0.6371  0.1944 -0.2300
21558SOL    HW171535   7.949   2.084   4.697  1.6192 -0.2145  0.4693
21558SOL    HW271536   7.936   1.941   4.649  1.3388 -0.0477  0.0376
21559SOL     OW71537   3.891   1.436   0.928  0.9631  0.1709  0.3694
21559SOL    HW171538   3.798   1.415   0.938  0.8604 -0.0489 -0.8004
21559SOL    HW271539   3.905   1.512   0.984 -0.4226  1.5158 -0.9987
21560SOL     OW71540  11.005   3.586   0.379  0.4168  0.5763 -0.4942
21560SOL    HW171541  10.945   3.560   0.449  1.1633  1.0541  0.3555
21560SOL    HW271542  10.967   3.664   0.341  1.1972  1.7537  1.0315
21561SOL     OW71543   6.532  11.994  10.362 -0.7181  0.2389  0.0879
21561SOL    HW171544   6.533  11.966  10.271 -3.0697  0.2935 -0.0110
21561SOL    HW271545   6.537  11.912  10.412  1.7519  0.2554  0.0183
21562SOL     OW71546   8.131   9.851   5.257 -0.1350  0.2723  0.2619
21562SOL    HW171547   8.154   9.773   5.308  0.3796  1.0419  1.2326
21562SOL    HW271548   8.162   9.832   5.168 -0.9775 -1.0596  0.2348
21563SOL     OW71549   4.761  11.992   6.240  0.6812  0.0702  0.4125
21563SOL    HW171550   4.796  12.067   6.289  1.7648  0.4459 -0.8648
21563SOL    HW271551   4.791  11.916   6.289  3.0166  0.3916 -0.3694
21564SOL     OW71552   4.984   9.117   5.146  0.3769  1.3973  0.3511
21564SOL    HW171553   4.919   9.186   5.131 -0.8939  0.2399  0.3837
21564SOL    HW271554   4.959   9.078   5.230  0.2702  0.0318 -0.2966
21565SOL     OW71555   5.159   4.388   9.629 -0.6557 -0.2976 -0.1211
21565SOL    HW171556   5.182   4.310   9.580  1.1987 -0.3132  0.6880
21565SOL    HW271557   5.206   4.459   9.585  0.4066 -0.1952  1.1194
21566SOL     OW71558   3.435  10.391  11.712 -0.4444  0.1835 -0.4334
21566SOL    HW171559   3.413  10.319  11.771 -0.4500 -0.4136 -1.1487
21566SOL    HW271560   3.530  10.401  11.722 -0.5007  0.3303 -0.0481
21567SOL     OW71561  10.675  10.828   2.078 -0.1261 -0.6042 -0.2455
21567SOL    HW171562  10.752  10.883   2.095  0.0606 -0.7983 -0.4549
21567SOL    HW271563  10.614  10.885   2.031 -0.4158 -0.2279  0.5692
21568SOL     OW71564   5.059   7.117   5.685  0.4894 -0.3208 -0.2794
21568SOL    HW171565   4.982   7.144   5.735  0.5921 -0.2492 -0.1591
21568SOL    HW271566   5.113   7.196   5.680  1.5742 -0.9121  1.4969
21569SOL     OW71567   3.055   0.503   2.816  0.1740 -0.1287 -0.1097
21569SOL    HW171568   3.018   0.547   2.739 -0.5829 -0.3490  0.1197
21569SOL    HW271569   2.985   0.444   2.845  0.7225 -0.5684  0.3242
21570SOL     OW71570   9.838  11.057   9.753  0.7471  0.0662 -0.0562
21570SOL    HW171571   9.826  11.100   9.668  1.7555  2.1451  0.7844
21570SOL    HW271572   9.931  11.033   9.754  0.2652 -1.9717 -0.3865
21571SOL     OW71573   8.268   5.094   8.975 -0.3334  0.6745 -0.3687
21571SOL    HW171574   8.194   5.063   9.026 -0.9265  0.9284 -1.0579
21571SOL    HW271575   8.232   5.165   8.921  0.3715  0.6990 -0.8202
21572SOL     OW71576   7.380   5.556   2.133  0.2883  0.2406  0.4801
21572SOL    HW171577   7.443   5.490   2.162  0.5147  0.2132 -0.0706
21572SOL    HW271578   7.349   5.524   2.048 -0.3549  0.3309  0.6715
21573SOL     OW71579   7.799  11.349  10.993  0.0235 -0.3157 -0.1516
21573SOL    HW171580   7.882  11.393  10.972  0.4374  0.5499  2.8006
21573SOL    HW271581   7.732  11.404  10.952  0.7741  0.3413 -0.5304
21574SOL     OW71582   9.556  10.231   7.414  0.7228  0.5691 -0.8480
21574SOL    HW171583   9.576  10.301   7.476 -0.6177  0.7284 -0.5680
21574SOL    HW271584   9.638  10.182   7.406  1.6419  2.0560 -0.9297
21575SOL     OW71585   3.519   5.196   2.538 -0.3846 -0.1891  0.1298
21575SOL    HW171586   3.592   5.157   2.587 -0.6037 -2.3293 -1.1148
21575SOL    HW271587   3.441   5.152   2.573 -0.5603 -1.6155 -1.8738
21576SOL     OW71588   8.852  12.291   2.308 -0.0240 -0.3542  0.0826
21576SOL    HW171589   8.848  12.248   2.393 -1.3116 -1.4782 -0.4986
21576SOL    HW271590   8.881  12.222   2.248 -2.1982 -0.5162 -0.8900
21577SOL     OW71591   2.834   6.855   5.735 -0.2727  0.5906 -0.2967
21577SOL    HW171592   2.870   6.804   5.808 -2.0645  0.5218  0.5693
21577SOL    HW271593   2.847   6.798   5.659 -0.2561 -0.2338  0.3021
21578SOL     OW71594   5.982  10.690   9.211 -0.2877 -0.2212  0.2489
21578SOL    HW171595   5.951  10.773   9.246 -0.7843 -0.2716 -0.0672
21578SOL    HW271596   5.936  10.623   9.263 -0.2748 -0.2981  0.1619
21579SOL     OW71597   9.861   8.952   5.457 -0.1700 -0.1934 -0.3295
21579SOL    HW171598   9.874   9.012   5.383 -0.2496 -1.2226 -1.2074
21579SOL    HW271599   9.925   8.980   5.522 -0.4361  1.0489 -0.5750
21580SOL     OW71600   8.966   0.930  11.482  0.5699  0.0712 -0.3387
21580SOL    HW171601   9.024   0.997  11.448  1.8417 -1.5982 -1.6238
21580SOL    HW271602   8.879   0.971  11.483  1.2438  1.5998 -1.3844
21581SOL     OW71603   7.263   4.421   3.567  1.3270 -0.7802  0.3922
21581SOL    HW171604   7.313   4.386   3.640 -0.8081 -1.6143  1.5148
21581SOL    HW271605   7.194   4.474   3.607  1.9377  1.3399 -1.1418
21582SOL     OW71606   4.231  11.740   5.215  0.0950  0.1584  0.3587
21582SOL    HW171607   4.235  11.806   5.145  0.9047 -0.0817  0.1624
21582SOL    HW271608   4.323  11.716   5.230 -0.2078 -1.2508  0.1195
21583SOL     OW71609   8.935   0.117   6.153  0.2827 -0.8258  0.2061
21583SOL    HW171610   8.962   0.209   6.158 -0.7054 -0.5748  1.2855
21583SOL    HW271611   8.977   0.075   6.228 -1.4163 -0.6385  1.3228
21584SOL     OW71612   7.544   3.811   6.836 -0.1026  0.1685  0.2323
21584SOL    HW171613   7.522   3.753   6.909 -0.2524 -1.3314 -0.9548
21584SOL    HW271614   7.521   3.761   6.758 -0.6597  2.0226 -0.8521
21585SOL     OW71615  11.370   7.845   4.889 -0.6895  0.2297 -0.0767
21585SOL    HW171616  11.375   7.876   4.798  0.1602  2.2347  0.5850
21585SOL    HW271617  11.461   7.831   4.914 -0.8625  0.3912  0.6686
21586SOL     OW71618   2.468  11.331   7.829  0.2970 -0.3854  0.5004
21586SOL    HW171619   2.374  11.337   7.847  0.2572  0.3952  0.0905
21586SOL    HW271620   2.495  11.247   7.867 -1.0087 -1.7041 -1.3184
21587SOL     OW71621   3.977   0.525   4.167  0.0010 -0.1167 -0.6307
21587SOL    HW171622   4.035   0.454   4.195 -1.5840 -1.3403 -0.2751
21587SOL    HW271623   4.027   0.571   4.100  1.0086 -1.7230 -1.0641
21588SOL     OW71624   0.690   6.270   7.368  0.0861  0.4608  0.2736
21588SOL    HW171625   0.754   6.246   7.435  0.9368  0.7672 -0.3976
21588SOL    HW271626   0.717   6.357   7.340 -1.3124  1.0608  0.7517
21589SOL     OW71627   3.094   3.794   7.582  0.3794 -0.6026  0.3711
21589SOL    HW171628   3.175   3.760   7.543  0.6837 -0.5600  0.9559
21589SOL    HW271629   3.100   3.770   7.674  0.0944  0.0962  0.5767
21590SOL     OW71630   6.000   2.000   3.285 -0.6150  0.1383 -0.4142
21590SOL    HW171631   6.087   2.010   3.246 -0.2328  0.9191  0.6016
21590SOL    HW271632   5.939   2.020   3.214 -0.0005 -1.1802 -1.3588
21591SOL     OW71633   8.788   7.252   9.303  0.3252 -0.3701  0.3777
21591SOL    HW171634   8.762   7.186   9.367 -0.1012 -0.4100  0.1709
21591SOL    HW271635   8.841   7.315   9.353  1.6201 -1.4030  0.3601
21592SOL     OW71636   9.925   7.642   3.820  0.4001 -0.3406 -0.8922
21592SOL    HW171637   9.993   7.706   3.801  1.0653 -0.9799 -0.7070
21592SOL    HW271638   9.860   7.655   3.751  0.8723  0.0487 -1.2671
21593SOL     OW71639   4.722   2.031  12.157 -0.2533  0.7575 -0.2698
21593SOL    HW171640   4.795   1.971  12.170  0.4639  1.3935 -1.1806
21593SOL    HW271641   4.645   1.984  12.189  0.2808 -0.6480 -0.9897
21594SOL     OW71642   9.369  12.438   7.338  0.1406 -0.0981  0.0232
21594SOL    HW171643   9.292  12.402   7.294 -0.0896  0.0317  0.3084
21594SOL    HW271644   9.340  12.452   7.428  0.6157 -0.4084  0.2299
21595SOL     OW71645  11.987   9.875   2.559 -0.2145 -0.1700 -0.0432
21595SOL    HW171646  11.905   9.924   2.563 -0.1527 -0.1257  1.2511
21595SOL    HW271647  12.056   9.942   2.563 -0.0627 -0.1265 -2.2073
21596SOL     OW71648   3.860   4.872  11.597  0.1320  0.1767 -0.2124
21596SOL    HW171649   3.812   4.871  11.514  0.2028  1.1010 -0.2777
21596SOL    HW271650   3.870   4.780  11.620 -0.7629 -0.0667 -0.7243
21597SOL     OW71651   2.728  10.069   3.582 -0.4617 -0.0738  0.0272
21597SOL    HW171652   2.749   9.976   3.570  0.0645 -0.1007  0.9920
21597SOL    HW271653   2.644  10.081   3.539 -0.3627 -0.9176 -0.4228
21598SOL     OW71654   6.963   3.169   8.900  0.1797 -0.0528 -0.1974
21598SOL    HW171655   6.945   3.261   8.880 -0.6895 -0.3000 -0.6118
21598SOL    HW271656   7.026   3.172   8.972  0.3844  0.8656 -0.4062
21599SOL     OW71657   6.337   8.065   0.685  0.2505 -0.2247 -0.4010
21599SOL    HW171658   6.415   8.082   0.633 -0.5635 -0.3465 -1.7358
21599SOL    HW271659   6.364   8.076   0.776  1.5786  0.6247 -0.8830
21600SOL     OW71660  11.970   2.364   4.399  0.1219  0.4242  0.3010
21600SOL    HW171661  11.936   2.293   4.345  0.8470  0.5169 -0.2934
21600SOL    HW271662  11.894   2.396   4.447 -0.1044 -1.1750  1.0759
21601SOL     OW71663   6.816  11.208   7.178  0.4753 -0.1141  0.3309
21601SOL    HW171664   6.840  11.118   7.201 -0.0747 -0.1003  0.9815
21601SOL    HW271665   6.865  11.226   7.098  0.8165 -0.8919  0.3569
21602SOL     OW71666   7.583   8.188   0.443  0.1161 -0.4536 -0.0428
21602SOL    HW171667   7.644   8.115   0.444 -0.2264 -0.7458 -0.2033
21602SOL    HW271668   7.584   8.222   0.533  0.8473 -0.1699 -0.1513
21603SOL     OW71669  12.478   0.117   7.205  0.0094 -0.1525 -0.0123
21603SOL    HW171670  12.424   0.077   7.273  0.8586  1.7078  1.8527
21603SOL    HW271671  12.560   0.068   7.207  0.6094  0.8472  1.4507
21604SOL     OW71672   0.798  11.515   9.418  0.4301  0.1165  0.3626
21604SOL    HW171673   0.856  11.576   9.372  1.2035  0.1380  1.3218
21604SOL    HW271674   0.767  11.455   9.351  0.5695  0.8686 -0.3914
21605SOL     OW71675  10.984   3.080  11.786 -0.2806 -0.7461 -0.0294
21605SOL    HW171676  11.020   3.007  11.836 -1.9449 -2.5505 -1.3090
21605SOL    HW271677  10.925   3.039  11.723 -2.2906  1.7875  0.0318
21606SOL     OW71678   3.179   2.753  12.441 -0.1513  0.6334 -0.6247
21606SOL    HW171679   3.141   2.710  12.518  1.4493  1.0124  0.4393
21606SOL    HW271680   3.104   2.789  12.394 -1.2423 -0.3453  0.3015
21607SOL     OW71681   5.895   4.784  10.190 -0.2576  0.1059 -0.2923
21607SOL    HW171682   5.911   4.847  10.120  0.0422 -0.0608 -0.3736
21607SOL    HW271683   5.869   4.838  10.265 -0.1884  0.3135 -0.4173
21608SOL     OW71684   5.072   3.803   3.471 -0.7131 -0.2291  0.4550
21608SOL    HW171685   5.066   3.826   3.378  1.5924 -2.9560 -0.4978
21608SOL    HW271686   5.133   3.867   3.508 -0.2752 -0.1831 -0.3390
21609SOL     OW71687   1.331  11.991   3.871 -0.3781  0.0371 -0.3578
21609SOL    HW171688   1.357  11.905   3.905 -1.6051  0.0962  0.8218
21609SOL    HW271689   1.377  12.053   3.927 -1.3031  0.1307  0.3266
21610SOL     OW71690  12.352   8.123   6.868  0.2841 -0.2736 -0.8634
21610SOL    HW171691  12.414   8.140   6.797 -0.1791 -0.6057 -1.3652
21610SOL    HW271692  12.290   8.059   6.830  0.3376 -0.8640  0.0110
21611SOL     OW71693   4.921   7.191   9.629  0.3739 -0.4643  0.0511
21611SOL    HW171694   4.964   7.148   9.703 -0.2738  0.0296  0.7222
21611SOL    HW271695   4.977   7.266   9.609  0.2806 -0.3039  0.3799
21612SOL     OW71696   3.588  12.222   0.004  0.3232 -0.2497 -0.4810
21612SOL    HW171697   3.667  12.274   0.017  0.7487 -0.4801 -1.9626
21612SOL    HW271698   3.615  12.132   0.020 -0.0742 -0.1760  0.6958
21613SOL     OW71699   0.901   9.199   0.679  0.2389 -0.0603 -0.3592
21613SOL    HW171700   0.830   9.258   0.657  0.1583  0.2644  0.7167
21613SOL    HW271701   0.894   9.187   0.774  0.3841 -1.6179 -0.5101
21614SOL     OW71702   9.374   9.988  10.990  0.2805  0.3035  0.5606
21614SOL    HW171703   9.419  10.055  10.938 -1.3418 -0.6586 -2.3212
21614SOL    HW271704   9.292  10.029  11.016 -0.2266 -0.1563 -0.2662
21615SOL     OW71705   5.588   2.089   2.508 -0.0222  0.2448 -0.1579
21615SOL    HW171706   5.578   2.181   2.532 -1.6835 -0.4294  2.1131
21615SOL    HW271707   5.676   2.083   2.471 -0.1288  2.8455 -1.0512
21616SOL     OW71708   7.843   9.062  12.354 -0.2902 -0.1176 -0.4594
21616SOL    HW171709   7.789   8.986  12.334 -0.1618 -0.4720  0.4689
21616SOL    HW271710   7.881   9.088  12.270  1.7894 -2.7202 -0.4755
21617SOL     OW71711   5.041   9.843   7.107 -0.0195 -0.1423  0.5606
21617SOL    HW171712   5.054   9.801   7.022  0.4941  0.7546  0.1803
21617SOL    HW271713   4.946   9.851   7.116 -0.0548  1.6393 -0.9022
21618SOL     OW71714   8.026   8.040   7.446 -0.3247 -0.6327  1.0076
21618SOL    HW171715   8.075   8.099   7.387 -1.1640  1.5903  2.4053
21618SOL    HW271716   7.952   8.010   7.393  0.6531 -1.2658 -0.0464
21619SOL     OW71717   1.932   4.022   6.007 -0.5966 -0.3954 -0.1339
21619SOL    HW171718   1.900   4.067   5.929 -3.4332  1.5495  1.9549
21619SOL    HW271719   1.897   3.933   6.000  1.1333 -0.9800 -2.0904
21620SOL     OW71720   8.698   3.573  11.352  0.4421 -0.7396  0.1023
21620SOL    HW171721   8.765   3.520  11.309 -0.7697 -1.8683 -0.4892
21620SOL    HW271722   8.624   3.571  11.292  0.2283  1.4178  0.2206
21621SOL     OW71723   5.984   5.147   0.908  0.2013  0.1349 -0.7366
21621SOL    HW171724   5.976   5.149   1.003  2.9615 -1.1900 -0.3870
21621SOL    HW271725   6.059   5.203   0.888  0.2024 -0.2947 -2.0442
21622SOL     OW71726   2.846   3.616   3.923  0.1148 -0.3972 -0.3007
21622SOL    HW171727   2.883   3.626   3.836 -0.8801  0.9070 -0.6105
21622SOL    HW271728   2.832   3.522   3.933  0.6023 -0.5930 -1.3890
21623SOL     OW71729  10.048  11.928   7.066 -0.0487  0.1275 -0.5913
21623SOL    HW171730  10.038  12.019   7.036 -1.7543  0.6339  1.3075
21623SOL    HW271731   9.970  11.883   7.032  0.1091 -0.2987 -0.3921
21624SOL     OW71732  11.877   3.654  11.026  0.1081  0.3798 -0.3580
21624SOL    HW171733  11.912   3.742  11.016 -0.2564  0.6379  0.5281
21624SOL    HW271734  11.827   3.657  11.108  0.2750 -0.7042 -0.1969
21625SOL     OW71735   2.835  10.302   5.703  0.9668  0.0055  0.0078
21625SOL    HW171736   2.793  10.386   5.718  0.0492 -0.4257 -0.1285
21625SOL    HW271737   2.856  10.302   5.610  1.1329  0.1546  0.0439
21626SOL     OW71738   9.086   5.092   3.284 -0.1313  0.0900  0.0467
21626SOL    HW171739   9.145   5.114   3.212  0.0297 -0.0406  0.1381
21626SOL    HW271740   9.139   5.105   3.363  0.5440 -2.3351  0.0555
21627SOL     OW71741   7.995  11.099   5.469  0.0861  0.1953 -0.4768
21627SOL    HW171742   7.959  11.147   5.543 -0.2298 -1.0663  0.2229
21627SOL    HW271743   7.960  11.010   5.479  1.3415 -0.4175 -1.2037
21628SOL     OW71744   1.619   5.307   7.033 -0.2180 -0.1838  0.1479
21628SOL    HW171745   1.592   5.395   7.059  0.2632 -0.0144  0.0847
21628SOL    HW271746   1.637   5.262   7.116  1.0487  0.2703  0.1483
21629SOL     OW71747   1.220   6.357   9.705 -0.3890 -0.2605 -0.0923
21629SOL    HW171748   1.240   6.342   9.612 -1.6739 -0.1378 -0.4113
21629SOL    HW271749   1.126   6.344   9.711 -0.4392  0.5243  1.0464
21630SOL     OW71750   3.938   4.180   2.847  0.7384  0.1563  0.2517
21630SOL    HW171751   4.001   4.246   2.818  0.8632  0.0568  0.2913
21630SOL    HW271752   3.954   4.171   2.941  2.2083 -1.4666 -0.1091
21631SOL     OW71753  11.686   5.142  11.100 -0.1772 -0.1779 -0.3064
21631SOL    HW171754  11.734   5.153  11.182  1.1628  1.0319 -1.1851
21631SOL    HW271755  11.737   5.077  11.050 -0.3589 -0.0973 -0.6025
21632SOL     OW71756   4.164   7.309   3.136  0.1505 -0.4117  0.0019
21632SOL    HW171757   4.153   7.218   3.108 -1.4403 -0.0678 -0.5806
21632SOL    HW271758   4.084   7.353   3.107 -0.4698  0.5327  2.8749
21633SOL     OW71759   3.456   0.036   2.751  0.0202 -0.2814 -0.3694
21633SOL    HW171760   3.541  -0.008   2.759 -0.0885 -0.1268  3.5612
21633SOL    HW271761   3.397  -0.015   2.807 -1.5017  1.7293 -0.0213
21634SOL     OW71762   5.611   8.303   7.949 -0.3382 -0.2206  0.1719
21634SOL    HW171763   5.566   8.318   8.032 -1.9122 -1.0050 -0.4880
21634SOL    HW271764   5.610   8.388   7.905 -0.9857 -0.1803  0.2597
21635SOL     OW71765   9.782   8.644   8.788  0.2922 -0.1942  0.2833
21635SOL    HW171766   9.804   8.566   8.737 -0.0292  0.0570 -0.2502
21635SOL    HW271767   9.696   8.670   8.756  0.6280  0.6889  0.0788
21636SOL     OW71768   6.007   0.714  12.109  0.2308 -0.1900  0.0291
21636SOL    HW171769   5.916   0.731  12.083 -0.1163  0.1321  1.3726
21636SOL    HW271770   6.008   0.621  12.132  0.1599 -0.1050  0.3670
21637SOL     OW71771   5.566  11.857   4.519 -0.1993  0.8390 -0.0846
21637SOL    HW171772   5.583  11.862   4.425 -1.2767  3.0272 -0.2272
21637SOL    HW271773   5.506  11.783   4.529 -2.2864  2.2112 -1.5624
21638SOL     OW71774  10.423   0.646   6.360  0.3817  0.3058  0.7118
21638SOL    HW171775  10.393   0.713   6.421  0.5077  1.7246 -0.7301
21638SOL    HW271776  10.513   0.628   6.387  1.2174  2.5670 -0.3436
21639SOL     OW71777   3.688   9.485   6.455  0.0803  0.2751  0.3373
21639SOL    HW171778   3.742   9.530   6.391 -0.8185  1.1416  0.1712
21639SOL    HW271779   3.751   9.434   6.507  0.7763 -0.9165 -1.5592
21640SOL     OW71780   8.742   0.537   3.281  0.3889 -0.0499  0.4076
21640SOL    HW171781   8.747   0.450   3.240  1.0555 -0.0665  0.5141
21640SOL    HW271782   8.833   0.559   3.300  0.0331 -0.5788  3.0192
21641SOL     OW71783   3.712  10.851   1.253 -0.4950  0.1366 -0.5139
21641SOL    HW171784   3.724  10.766   1.295 -1.3755  0.0449 -0.4115
21641SOL    HW271785   3.704  10.831   1.160 -0.9295  0.0691 -0.4676
21642SOL     OW71786   5.724   8.814   2.789 -0.6870 -0.2759  0.2170
21642SOL    HW171787   5.660   8.876   2.756 -0.8707 -0.4165  0.3057
21642SOL    HW271788   5.714   8.737   2.734  2.2602  1.1168 -2.5742
21643SOL     OW71789  11.052   3.848   5.604 -0.2586 -0.0531  0.1905
21643SOL    HW171790  11.135   3.833   5.650  1.3575  2.0118 -1.8289
21643SOL    HW271791  11.027   3.937   5.628 -0.0652  0.5775 -1.8292
21644SOL     OW71792   5.640   1.349  10.390 -0.6150 -0.1295 -0.0978
21644SOL    HW171793   5.595   1.408  10.451 -1.6789 -1.1846  0.1799
21644SOL    HW271794   5.646   1.399  10.308  1.4390  1.5765  0.9926
21645SOL     OW71795   5.184  10.297   9.232 -0.3539 -0.7168  0.0062
21645SOL    HW171796   5.184  10.234   9.303  1.7451 -1.3194 -0.4681
21645SOL    HW271797   5.220  10.249   9.157  0.8340  0.8810 -0.4979
21646SOL     OW71798   5.819   1.187   1.196  0.6328  0.0631 -0.3095
21646SOL    HW171799   5.795   1.130   1.123  1.6535 -0.2977 -0.3753
21646SOL    HW271800   5.915   1.188   1.196  0.6621 -0.1963  1.2274
21647SOL     OW71801   6.117   2.985   7.453 -0.0321 -0.9681 -0.3237
21647SOL    HW171802   6.194   2.934   7.480  0.2902 -0.9662 -1.2038
21647SOL    HW271803   6.089   2.945   7.371  0.4554  0.4747 -1.2456
21648SOL     OW71804   6.938   7.762   5.419  0.9073 -0.1636 -0.4045
21648SOL    HW171805   6.903   7.849   5.402 -0.1622 -0.3560  0.6699
21648SOL    HW271806   6.860   7.706   5.424  1.3402 -0.6631  1.7498
21649SOL     OW71807   3.388   5.666   1.721 -0.3524 -0.0747 -0.3090
21649SOL    HW171808   3.399   5.642   1.813  0.9532  1.3537 -0.0485
21649SOL    HW271809   3.319   5.731   1.721 -1.1893 -0.9401 -0.5188
21650SOL     OW71810   7.265   4.924   8.729 -0.1923 -0.0080 -0.0708
21650SOL    HW171811   7.205   4.978   8.677 -0.3300 -0.8326 -0.7867
21650SOL    HW271812   7.223   4.917   8.815 -1.3206 -0.8752 -0.6668
21651SOL     OW71813   8.826   0.620   6.386  0.2944 -0.7363  0.1232
21651SOL    HW171814   8.795   0.704   6.418  0.0203 -0.5260 -0.6700
21651SOL    HW271815   8.789   0.555   6.446  0.4815 -0.2937  0.7162
21652SOL     OW71816   0.991   5.868   9.848 -0.4112 -0.0455 -0.1742
21652SOL    HW171817   0.958   5.832   9.766  1.1588  2.1130 -1.8815
21652SOL    HW271818   1.068   5.814   9.869  2.7990  2.6981 -3.4714
21653SOL     OW71819   0.716   7.108   9.482 -0.1255 -0.5063  0.0185
21653SOL    HW171820   0.622   7.122   9.495  0.1482  0.1185  1.5183
21653SOL    HW271821   0.757   7.181   9.527  1.1551 -2.0524  1.4890
21654SOL     OW71822   7.933   1.152   8.781 -0.3795 -0.7725 -0.1357
21654SOL    HW171823   8.026   1.139   8.766 -0.1656 -0.7401  1.0257
21654SOL    HW271824   7.892   1.069   8.756  0.2257 -1.5484  1.3283
21655SOL     OW71825   0.328  10.792   4.166  0.2764  0.7559 -0.2234
21655SOL    HW171826   0.302  10.736   4.240 -1.5804  0.4479 -1.0376
21655SOL    HW271827   0.267  10.866   4.170  0.9525  1.3506 -0.7437
21656SOL     OW71828  11.244  10.858   7.758  0.2160  0.1916 -0.2665
21656SOL    HW171829  11.249  10.764   7.741  0.6773  0.3662 -1.1394
21656SOL    HW271830  11.154  10.881   7.736 -0.3753 -0.3097  1.4450
21657SOL     OW71831  11.108   8.843   0.030  0.1414  0.1750  0.1835
21657SOL    HW171832  11.148   8.756   0.034  1.4571  0.7497 -0.1695
21657SOL    HW271833  11.138   8.887   0.110 -0.2817  0.4136  0.2153
21658SOL     OW71834   8.002   8.829   9.841  0.1197 -0.3466 -0.4559
21658SOL    HW171835   8.086   8.875   9.849 -0.5070  0.6587  0.6617
21658SOL    HW271836   7.936   8.898   9.847 -0.8068 -1.1964 -0.6576
21659SOL     OW71837   4.806   8.990   1.537 -0.6681  0.0180 -0.1667
21659SOL    HW171838   4.742   8.953   1.477 -1.1333  0.3833  0.0977
21659SOL    HW271839   4.768   9.073   1.564  0.4486  0.7837 -0.8912
21660SOL     OW71840   1.908   8.188   9.283 -1.1759  0.3615  0.4148
21660SOL    HW171841   1.947   8.106   9.311 -2.9657 -0.1052  1.7094
21660SOL    HW271842   1.851   8.164   9.210  1.0809  1.0962 -1.7364
21661SOL     OW71843   9.339   6.932  11.630 -0.0699 -0.3539  0.5324
21661SOL    HW171844   9.384   6.853  11.602 -1.6360 -1.6534  1.5231
21661SOL    HW271845   9.345   6.991  11.555  0.4795 -1.6833 -0.5115
21662SOL     OW71846   5.123   2.882   7.363 -0.2000 -0.5212 -0.0378
21662SOL    HW171847   5.185   2.896   7.435 -0.3714  0.6318 -0.0923
21662SOL    HW271848   5.042   2.856   7.406 -0.4038  0.5096  0.2374
21663SOL     OW71849   0.950   4.913   7.842 -0.0501 -0.7183 -0.0277
21663SOL    HW171850   0.957   4.821   7.865 -1.9066 -1.1190 -0.8661
21663SOL    HW271851   0.881   4.947   7.899  0.6948  0.1944  0.3544
21664SOL     OW71852  12.113   0.668   8.398  0.3421 -0.1962  0.0385
21664SOL    HW171853  12.022   0.656   8.425  0.5526 -1.3278  0.3085
21664SOL    HW271854  12.109   0.735   8.330 -0.7569 -0.5596 -0.2817
21665SOL     OW71855   8.413   5.700   2.986  0.2258  0.4420  0.5121
21665SOL    HW171856   8.439   5.670   2.898 -0.9444 -0.0741  0.3273
21665SOL    HW271857   8.412   5.795   2.980  1.3213  0.4607  0.3224
21666SOL     OW71858  11.841  11.878   8.411  0.3484  0.3117  0.8068
21666SOL    HW171859  11.913  11.818   8.432 -0.2127 -0.9662 -0.7268
21666SOL    HW271860  11.878  11.939   8.348 -0.0286 -0.7375 -0.4750
21667SOL     OW71861   1.772   7.632   5.290  0.1187  0.4656 -0.2208
21667SOL    HW171862   1.832   7.578   5.342  0.0840  0.9456  0.3182
21667SOL    HW271863   1.828   7.674   5.225  0.3251  0.7059  0.1127
21668SOL     OW71864   3.445   9.562  10.815 -0.0742  0.0127 -0.0128
21668SOL    HW171865   3.453   9.603  10.900  1.4554  1.2862 -0.7128
21668SOL    HW271866   3.366   9.509  10.821  0.4891 -0.6692  2.4736
21669SOL     OW71867   9.256   7.523   0.581  0.0375 -0.6714  0.4576
21669SOL    HW171868   9.173   7.504   0.626 -0.9194  0.2045 -0.8273
21669SOL    HW271869   9.320   7.531   0.651 -1.0111 -1.1583  1.5123
21670SOL     OW71870   1.377   4.988   1.143  0.5336  0.4378  0.3078
21670SOL    HW171871   1.292   5.011   1.106  1.0529  1.1047 -0.5109
21670SOL    HW271872   1.402   5.064   1.196 -0.5627 -0.8099  2.7998
21671SOL     OW71873   3.445   6.037  11.397  0.3952 -0.1537 -0.9354
21671SOL    HW171874   3.374   6.013  11.456  1.3235 -1.1823 -0.2024
21671SOL    HW271875   3.474   6.123  11.428  0.1444 -0.1878 -0.6083
21672SOL     OW71876  10.056   5.371   4.824  0.1342 -0.0903  0.5238
21672SOL    HW171877   9.985   5.431   4.846  0.4010 -0.4257  2.5041
21672SOL    HW271878  10.110   5.369   4.903  1.2196 -1.4037 -0.2224
21673SOL     OW71879  11.222  11.939   3.182 -0.1803 -0.3756 -0.7647
21673SOL    HW171880  11.191  11.973   3.267 -0.8732 -0.0277 -1.1406
21673SOL    HW271881  11.288  11.874   3.204 -1.0707 -1.0236  0.0881
21674SOL     OW71882   5.248   4.978   0.104 -0.6017 -0.0790  0.5489
21674SOL    HW171883   5.184   5.049   0.110  2.0597  2.3716  2.5633
21674SOL    HW271884   5.234   4.927   0.184  0.4379  1.0134  1.4742
21675SOL     OW71885  11.087  10.560   8.066 -0.1701 -0.1161 -0.6571
21675SOL    HW171886  11.045  10.548   7.980 -1.3669  0.3390 -0.1554
21675SOL    HW271887  11.068  10.651   8.089 -3.2870 -1.2052  1.8124
21676SOL     OW71888   3.243   8.981   6.919 -0.1589 -0.0220 -0.0811
21676SOL    HW171889   3.215   8.936   6.839 -1.4838 -1.4169  1.1019
21676SOL    HW271890   3.339   8.983   6.912 -0.2298 -0.3129 -1.5857
21677SOL     OW71891  10.174  12.014  11.560  0.3785  0.0590 -0.2023
21677SOL    HW171892  10.224  11.950  11.509  0.7314  0.6738 -0.6487
21677SOL    HW271893  10.098  11.966  11.592 -2.1137  0.4947 -4.6176
21678SOL     OW71894   6.194  10.265   9.241 -0.0883  0.2856  0.4403
21678SOL    HW171895   6.216  10.183   9.198  0.2489  0.7442 -0.2912
21678SOL    HW271896   6.168  10.324   9.169 -0.5117  0.7554  0.9672
21679SOL     OW71897   2.649   3.488   1.111  0.5568  0.3622  0.1016
21679SOL    HW171898   2.608   3.541   1.043 -0.7564 -1.7016 -0.8064
21679SOL    HW271899   2.619   3.399   1.094 -0.2378 -0.1997  3.6829
21680SOL     OW71900   4.852   9.733  10.149 -0.2633 -0.2233 -0.3238
21680SOL    HW171901   4.934   9.725  10.100 -0.7626 -0.6044 -1.1223
21680SOL    HW271902   4.863   9.813  10.201  0.1845  0.3407 -1.2566
21681SOL     OW71903   6.014  12.025   2.666 -0.3934 -0.3975  0.4848
21681SOL    HW171904   6.027  12.114   2.701  1.6018 -0.5780  0.3117
21681SOL    HW271905   5.935  11.994   2.710 -0.8906  1.2914  0.8843
21682SOL     OW71906   5.606   1.987   7.855  0.5718  0.4190  0.1440
21682SOL    HW171907   5.571   1.952   7.773 -0.5104 -0.4867  0.9517
21682SOL    HW271908   5.601   2.082   7.845  1.3644  0.3515 -1.1940
21683SOL     OW71909   2.522   5.970   9.255  0.3286 -0.8309 -0.0241
21683SOL    HW171910   2.617   5.979   9.260  0.4174 -0.9590 -1.1864
21683SOL    HW271911   2.491   5.993   9.342  1.2423  1.5076 -0.2496
21684SOL     OW71912   1.422   5.276  10.859  0.3018 -0.2727 -0.4652
21684SOL    HW171913   1.506   5.268  10.813  1.5405  2.4687  1.1063
21684SOL    HW271914   1.436   5.345  10.924 -2.6616 -0.9840  1.1105
21685SOL     OW71915   6.814   3.089   4.607 -0.0257  0.0701 -0.0406
21685SOL    HW171916   6.810   3.027   4.534 -0.5972 -2.1776  1.7877
21685SOL    HW271917   6.907   3.097   4.627  0.3852  2.5438 -2.3801
21686SOL     OW71918   8.193  12.461   8.850  0.0753  0.3988 -0.0776
21686SOL    HW171919   8.223  12.440   8.938 -1.6606 -0.3197  0.3869
21686SOL    HW271920   8.261  12.426   8.792  0.3190 -0.8340  0.9103
21687SOL     OW71921   1.427   9.285  10.914  0.4405  0.1978 -0.2900
21687SOL    HW171922   1.518   9.262  10.929 -0.1744  0.1113  4.8840
21687SOL    HW271923   1.420   9.376  10.943 -1.2484 -0.0541  0.1770
21688SOL     OW71924  12.001   4.679   9.105  0.5547  0.1003 -0.1993
21688SOL    HW171925  12.022   4.739   9.177  1.2681 -0.7310  0.3045
21688SOL    HW271926  11.983   4.737   9.030  2.5308  0.9551 -0.0782
21689SOL     OW71927  11.274   1.078   6.428 -0.0610  0.7312 -0.2415
21689SOL    HW171928  11.306   0.990   6.408 -0.1286  0.9760 -1.5323
21689SOL    HW271929  11.188   1.082   6.387 -0.0307  1.4233 -0.2553
21690SOL     OW71930   0.710   1.214   1.002 -0.0039  0.0886 -0.3217
21690SOL    HW171931   0.625   1.170   0.995 -1.5753  2.6943  0.6688
21690SOL    HW271932   0.727   1.219   1.096  0.9205  0.2338 -0.4862
21691SOL     OW71933  11.184   9.422  11.018  0.0644 -0.1641 -0.3130
21691SOL    HW171934  11.112   9.358  11.018  0.9612 -1.2685  1.5106
21691SOL    HW271935  11.141   9.507  11.020 -1.2190 -0.7955  0.2528
21692SOL     OW71936   3.995   7.769   8.591 -0.2772 -0.5128 -0.2447
21692SOL    HW171937   3.902   7.770   8.570 -1.5016  2.3826  3.9109
21692SOL    HW271938   4.018   7.677   8.595 -2.9771 -1.3373 -1.2459
21693SOL     OW71939   7.928  11.753   8.939  0.1407  0.3236 -0.2268
21693SOL    HW171940   7.936  11.848   8.928  0.2591  0.2484 -0.8132
21693SOL    HW271941   7.984  11.733   9.014 -1.2433  0.9439  1.0446
21694SOL     OW71942  10.241   7.431   4.127 -0.0862 -0.0481 -0.1194
21694SOL    HW171943  10.164   7.417   4.073 -0.6479  1.3832  0.2671
21694SOL    HW271944  10.311   7.449   4.065 -0.0910 -1.1594 -0.4656
21695SOL     OW71945  12.081   8.213   5.875  0.0593 -0.7666  0.2169
21695SOL    HW171946  12.034   8.264   5.810  0.4958 -0.7392 -0.0860
21695SOL    HW271947  12.170   8.248   5.873  0.1714 -1.0236  0.5545
21696SOL     OW71948   1.399  10.750   8.250  0.0686  0.3395  0.2809
21696SOL    HW171949   1.328  10.768   8.189  0.6161  1.8186  0.0248
21696SOL    HW271950   1.438  10.668   8.219 -1.9497 -0.8983  0.8667
21697SOL     OW71951  10.004   4.941   0.486 -0.5078  0.4857 -0.0936
21697SOL    HW171952   9.975   4.987   0.407  0.6676 -0.2892 -1.0130
21697SOL    HW271953  10.084   4.895   0.459 -1.5253 -1.9742  0.7947
21698SOL     OW71954   1.424   3.575   1.180  0.1737  0.4994  0.0502
21698SOL    HW171955   1.331   3.596   1.182  0.5481  2.4172 -0.9947
21698SOL    HW271956   1.439   3.528   1.262 -1.8100 -0.3890 -0.0343
21699SOL     OW71957   8.632   9.017  11.344 -0.0973  0.9728  0.1345
21699SOL    HW171958   8.569   9.018  11.416  0.8456 -1.6377  1.1359
21699SOL    HW271959   8.591   8.963  11.277  0.9376 -0.6707  0.7581
21700SOL     OW71960  10.028   9.035   6.168 -0.9888 -0.1493 -0.0358
21700SOL    HW171961  10.088   9.095   6.126 -2.0273  0.8810 -0.1117
21700SOL    HW271962   9.944   9.082   6.171 -2.0756 -1.8998 -0.8815
21701SOL     OW71963  10.896   4.887   8.773  0.0881  0.3948  0.0201
21701SOL    HW171964  10.862   4.920   8.690 -1.7067  0.8350  0.8972
21701SOL    HW271965  10.922   4.965   8.821 -1.2564  0.3568  0.8569
21702SOL     OW71966   9.557   0.455   4.353  0.3389 -0.2679  0.4101
21702SOL    HW171967   9.577   0.483   4.264  0.1053  0.1972  0.5027
21702SOL    HW271968   9.563   0.534   4.405 -0.8065 -0.2774  0.5959
21703SOL     OW71969   8.228   2.805  10.643 -0.5430  0.0388 -0.6831
21703SOL    HW171970   8.318   2.809  10.611 -0.3719 -0.5595 -0.2802
21703SOL    HW271971   8.174   2.806  10.563 -0.0963 -2.5321 -1.1004
21704SOL     OW71972  11.788   1.067   4.097  0.1350 -0.0090  0.4000
21704SOL    HW171973  11.798   1.021   4.014  0.8755  2.6779 -1.1143
21704SOL    HW271974  11.871   1.114   4.108  0.2985 -0.7733  3.0109
21705SOL     OW71975   9.771   2.295   9.866  0.3706 -0.2294 -0.1678
21705SOL    HW171976   9.689   2.253   9.890  0.1196  0.6971  0.6471
21705SOL    HW271977   9.832   2.222   9.850  0.3232 -0.9206  2.4596
21706SOL     OW71978   4.236   6.753   3.393  0.0396 -0.0535  0.1959
21706SOL    HW171979   4.256   6.827   3.449  0.5376 -0.1075  0.0989
21706SOL    HW271980   4.303   6.756   3.324 -1.2535  0.7161 -1.0853
21707SOL     OW71981   6.281   6.610  11.598 -0.1440  0.1778  0.1700
21707SOL    HW171982   6.306   6.654  11.517  1.3149 -3.0042 -1.2763
21707SOL    HW271983   6.185   6.619  11.602 -0.0687  1.8586 -0.9321
21708SOL     OW71984  10.826   9.403   4.370 -0.3479 -0.0998 -0.3099
21708SOL    HW171985  10.913   9.436   4.393 -0.8721  1.1504 -0.0463
21708SOL    HW271986  10.844   9.322   4.322  0.9116 -0.7373  1.1218
21709SOL     OW71987  11.067   3.953   1.721  0.1792 -0.6050  0.0484
21709SOL    HW171988  11.131   3.924   1.787  0.6422  1.6952  0.6935
21709SOL    HW271989  11.120   3.979   1.646 -0.1440 -0.4346 -0.1218
21710SOL     OW71990   1.904   6.689   9.617 -0.6151  0.5517  0.5483
21710SOL    HW171991   1.853   6.769   9.608  1.6551  1.9512 -0.7164
21710SOL    HW271992   1.929   6.666   9.528 -1.3136 -1.6800  0.8730
21711SOL     OW71993   6.063   3.082   7.879  0.3649  0.0300 -0.1973
21711SOL    HW171994   6.045   3.116   7.791  0.1191  1.6652  0.4714
21711SOL    HW271995   6.158   3.090   7.888  0.1245  2.7728  0.7854
21712SOL     OW71996   7.285   6.314   6.647 -0.0595 -0.2422  0.2008
21712SOL    HW171997   7.369   6.317   6.600  0.1319  2.2062  0.5888
21712SOL    HW271998   7.263   6.405   6.662 -2.5548 -0.8520  0.6110
21713SOL     OW71999   4.242  10.356  11.035 -0.1744  0.1998  0.2495
21713SOL    HW172000   4.175  10.287  11.027 -0.9001  0.8149  0.9261
21713SOL    HW272001   4.269  10.352  11.126  1.5355 -0.7677 -0.2593
21714SOL     OW72002   5.127   6.069   2.179 -0.2354  0.3886  0.3944
21714SOL    HW172003   5.135   5.977   2.151 -0.0087  0.5190  0.0185
21714SOL    HW272004   5.195   6.080   2.244  0.2045  0.4777 -0.0738
21715SOL     OW72005   6.690   9.108   6.227  0.0345  0.1607 -0.0184
21715SOL    HW172006   6.617   9.080   6.283 -1.6550  0.3001 -2.0392
21715SOL    HW272007   6.717   9.028   6.182 -0.0489  0.4261 -0.5499
21716SOL     OW72008   5.186  10.936   7.761  0.0563 -0.6409  0.1067
21716SOL    HW172009   5.192  10.872   7.832 -1.0341  0.1127  0.9144
21716SOL    HW272010   5.250  11.004   7.784  1.7356 -1.7418 -1.1224
21717SOL     OW72011   9.162   1.462  12.462 -0.1210  0.4153  0.4137
21717SOL    HW172012   9.106   1.398  12.504 -1.1776  0.0679 -1.4034
21717SOL    HW272013   9.141   1.456  12.369  1.8138  1.3963 -0.1627
21718SOL     OW72014  11.677   0.061   6.058  0.0617  0.1375 -0.5154
21718SOL    HW172015  11.676   0.021   6.144  0.7656  0.9648 -0.0950
21718SOL    HW272016  11.612   0.131   6.063  1.0738  1.1002 -0.1549
21719SOL     OW72017   3.475   3.041   2.016 -0.3085  0.0283 -0.4462
21719SOL    HW172018   3.385   3.010   2.005 -0.5672  0.5991  0.0464
21719SOL    HW272019   3.478   3.124   1.969 -0.3906  0.6251  0.5865
21720SOL     OW72020  10.400   9.210   7.216  0.2127  0.1179  0.1750
21720SOL    HW172021  10.409   9.305   7.221  0.5115  0.0680  4.8106
21720SOL    HW272022  10.490   9.178   7.209  0.1353  0.0741 -0.9546
21721SOL     OW72023   5.971   7.072   8.122  0.2398 -0.4525  0.2310
21721SOL    HW172024   5.930   7.097   8.206 -0.1719 -0.2365 -0.0298
21721SOL    HW272025   6.039   7.138   8.109  1.2749 -1.3096  1.0937
21722SOL     OW72026   2.395   8.791   6.522  0.3361  0.2072 -0.0443
21722SOL    HW172027   2.415   8.883   6.543  0.5605  1.2690 -4.0911
21722SOL    HW272028   2.306   8.792   6.488  1.0202 -0.6256 -2.0287
21723SOL     OW72029   1.019   3.867   6.017  0.7121  0.7213 -0.3717
21723SOL    HW172030   1.109   3.861   5.983 -0.2755  0.1425 -3.1349
21723SOL    HW272031   0.985   3.948   5.979  0.2032  1.2299  1.1137
21724SOL     OW72032  10.937   2.162   2.188 -0.3611  0.5662 -0.1512
21724SOL    HW172033  10.945   2.230   2.121  0.1887  0.6676  0.0063
21724SOL    HW272034  11.004   2.185   2.253 -1.0715  0.6174  0.5671
21725SOL     OW72035   9.372   2.238  10.875 -0.4386 -0.4085  0.0738
21725SOL    HW172036   9.300   2.191  10.832  0.7608 -0.4473 -2.0366
21725SOL    HW272037   9.383   2.318  10.824 -0.1576  0.4939  1.4928
21726SOL     OW72038   6.439  10.442   6.556 -0.0624  0.3077  0.0611
21726SOL    HW172039   6.374  10.439   6.486 -0.3233 -0.7004  0.3252
21726SOL    HW272040   6.520  10.469   6.513  0.2517 -2.1597 -1.0421
21727SOL     OW72041   1.357   6.794   4.234  0.1132  0.1839 -0.0211
21727SOL    HW172042   1.344   6.713   4.284 -2.7744  0.0826 -0.7979
21727SOL    HW272043   1.435   6.834   4.274 -0.2734 -1.3748  2.5214
21728SOL     OW72044  10.051   4.967   5.039  0.0568  0.3722 -0.2074
21728SOL    HW172045   9.974   5.024   5.042  0.6441  1.1519  0.6724
21728SOL    HW272046  10.111   5.004   5.104  0.9167 -0.5991 -0.4175
21729SOL     OW72047   6.640   6.111   3.899 -0.0202 -0.8163 -0.2869
21729SOL    HW172048   6.567   6.049   3.892  0.3578 -1.5933  1.9190
21729SOL    HW272049   6.700   6.084   3.830 -1.5468 -0.4775 -1.8264
21730SOL     OW72050   3.342  10.058  11.814  0.2779 -0.1006  0.6598
21730SOL    HW172051   3.423  10.010  11.798 -0.0089 -0.5018  0.4188
21730SOL    HW272052   3.274   9.992  11.813 -0.0250  0.1943  1.1561
21731SOL     OW72053   7.310   5.938   5.560 -0.0459 -0.2503 -0.3504
21731SOL    HW172054   7.227   5.906   5.598 -0.2171 -0.9269 -1.2491
21731SOL    HW272055   7.322   5.884   5.481  1.2594 -0.1619 -0.2273
21732SOL     OW72056   0.074   2.624   2.983  0.5378  0.3327  0.2353
21732SOL    HW172057  -0.020   2.643   2.990 -0.2845 -2.0962 -2.1964
21732SOL    HW272058   0.096   2.645   2.892  2.2788  0.5287  0.6733
21733SOL     OW72059   0.580   2.003   8.477  0.3716 -0.4864 -0.1446
21733SOL    HW172060   0.525   1.930   8.447 -0.2212  0.0478 -0.3889
21733SOL    HW272061   0.520   2.078   8.479  1.7324  0.9458 -3.7499
21734SOL     OW72062  10.891  10.414   2.297 -0.0630  1.0031 -0.0320
21734SOL    HW172063  10.979  10.435   2.328 -0.1847  0.7198  0.5111
21734SOL    HW272064  10.836  10.420   2.375 -0.8993  3.2137 -0.6834
21735SOL     OW72065  11.921   5.755  12.287  0.2548 -0.2301 -0.2169
21735SOL    HW172066  12.000   5.716  12.325  1.5821  1.0225 -1.6080
21735SOL    HW272067  11.877   5.681  12.245  1.1260 -0.7853 -0.1821
21736SOL     OW72068   5.939  10.264   3.508  0.2019 -0.0932  0.0877
21736SOL    HW172069   5.977  10.231   3.589 -0.2839 -0.4459  0.1782
21736SOL    HW272070   5.895  10.346   3.533  0.2563 -0.0772  0.1306
21737SOL     OW72071   4.745  11.499   6.548 -0.0515 -0.4387 -0.0664
21737SOL    HW172072   4.718  11.464   6.633 -1.3190  0.1267 -0.2126
21737SOL    HW272073   4.728  11.428   6.486  1.8474 -1.2329  0.2523
21738SOL     OW72074   6.777   1.176  11.143  0.3832  0.0209  0.4242
21738SOL    HW172075   6.769   1.239  11.071 -0.6379 -0.3084  0.2393
21738SOL    HW272076   6.783   1.230  11.222  3.1373  0.4431  0.0084
21739SOL     OW72077   4.670   3.589   0.966 -0.2039  0.0962 -0.6166
21739SOL    HW172078   4.725   3.519   1.000  1.1246  0.8660 -1.1121
21739SOL    HW272079   4.730   3.662   0.950 -1.5211  1.3241 -0.2249
21740SOL     OW72080   6.101   2.151   7.483 -0.4505  0.3503 -0.1014
21740SOL    HW172081   6.052   2.232   7.499 -1.3478 -0.0686 -0.6754
21740SOL    HW272082   6.048   2.103   7.419  0.5413 -0.2717 -0.4770
21741SOL     OW72083   4.741   0.297   9.069  0.1572  0.3096  0.1546
21741SOL    HW172084   4.831   0.328   9.054  0.2142  0.7657  1.3388
21741SOL    HW272085   4.716   0.256   8.986  1.9617 -1.0523  0.2139
21742SOL     OW72086   1.262   0.947   4.827 -0.0053  0.3838  0.7776
21742SOL    HW172087   1.312   1.028   4.824  0.3446  0.2051  1.4914
21742SOL    HW272088   1.202   0.952   4.753 -1.6244  2.3573  2.1282
21743SOL     OW72089   4.722   9.402   7.161  0.0299 -0.4603  0.6234
21743SOL    HW172090   4.776   9.427   7.086 -0.5601 -0.9911  0.0046
21743SOL    HW272091   4.770   9.331   7.204  1.0163  0.7293  1.5486
21744SOL     OW72092   7.120   5.694   1.995 -0.2040  0.0533  0.4205
21744SOL    HW172093   7.138   5.710   2.087 -2.1599 -0.3707  0.9228
21744SOL    HW272094   7.101   5.600   1.990 -2.7503  0.4999  0.1454
21745SOL     OW72095  11.789   9.556  11.064  0.2208 -0.1699 -0.1906
21745SOL    HW172096  11.803   9.465  11.088 -1.2136 -0.6811 -1.1409
21745SOL    HW272097  11.712   9.555  11.008  0.6723  1.5280 -0.9351
21746SOL     OW72098   0.297   1.607   1.985 -0.1530 -0.2575  0.2036
21746SOL    HW172099   0.316   1.570   2.071 -0.8305  0.4487  0.6675
21746SOL    HW272100   0.383   1.630   1.949  0.1512 -0.7708  0.5853
21747SOL     OW72101   9.153   0.670   2.840  0.2974  0.1308 -0.2700
21747SOL    HW172102   9.087   0.740   2.842 -0.6590 -0.7613  0.9611
21747SOL    HW272103   9.179   0.660   2.931  0.2819 -1.2423 -0.3970
21748SOL     OW72104   4.336   4.314   5.564  0.0814 -0.5466 -0.3953
21748SOL    HW172105   4.298   4.238   5.519 -0.1618 -0.1643 -0.8411
21748SOL    HW272106   4.379   4.364   5.496 -0.6208  0.2389 -0.2837
21749SOL     OW72107  10.353  10.323   2.379 -0.4972  0.5300  0.2115
21749SOL    HW172108  10.331  10.318   2.472 -0.4067  2.0726  0.3483
21749SOL    HW272109  10.430  10.268   2.369  0.0106  1.0276  1.2434
21750SOL     OW72110   7.159   8.171  10.562  0.6257 -0.2419  0.1102
21750SOL    HW172111   7.179   8.188  10.654  0.3176 -1.1567  0.3568
21750SOL    HW272112   7.107   8.090  10.563  0.4508 -0.1565 -0.8509
21751SOL     OW72113   3.732   5.877   5.943  0.4510  0.0160 -0.1543
21751SOL    HW172114   3.792   5.943   5.979  0.8023 -1.3368  1.8971
21751SOL    HW272115   3.647   5.921   5.939  0.6384  0.5923  1.3477
21752SOL     OW72116  11.129   2.085   8.674 -0.2187  0.1824  0.0419
21752SOL    HW172117  11.169   2.058   8.757 -0.1629 -0.2555 -0.1248
21752SOL    HW272118  11.035   2.084   8.691 -0.2424 -0.5191 -0.0709
21753SOL     OW72119   2.340   4.381   5.280 -0.7492 -0.0052  0.0863
21753SOL    HW172120   2.393   4.333   5.217 -0.0519  0.3478  0.3957
21753SOL    HW272121   2.323   4.319   5.351  1.4539  0.6035  1.2371
21754SOL     OW72122   3.826   5.262   5.856  0.2612  0.6045  0.0594
21754SOL    HW172123   3.732   5.280   5.851  0.2785  0.8568  0.5617
21754SOL    HW272124   3.837   5.216   5.939  0.3206 -1.1830 -0.8721
21755SOL     OW72125   9.152   4.753   4.401  0.7722 -0.1106  0.2678
21755SOL    HW172126   9.102   4.795   4.471  1.9761 -1.8363  2.2822
21755SOL    HW272127   9.087   4.702   4.353  0.1730 -0.2820  1.2176
21756SOL     OW72128   6.403   7.814  10.554  0.9798 -0.0381  0.0754
21756SOL    HW172129   6.356   7.883  10.507  2.3865  0.3487 -0.8444
21756SOL    HW272130   6.464   7.778  10.489  2.1403 -0.3268  1.2615
21757SOL     OW72131   0.485   6.442   0.920 -0.2756 -0.1590  0.0209
21757SOL    HW172132   0.411   6.487   0.879  2.0533  1.6787 -2.4688
21757SOL    HW272133   0.516   6.503   0.987 -1.2008 -1.1471  1.4217
21758SOL     OW72134   8.580   6.693   8.869  0.2668  0.0564  0.2352
21758SOL    HW172135   8.496   6.680   8.825  0.2231  0.3482  0.2328
21758SOL    HW272136   8.627   6.610   8.855  0.2245  0.1172 -0.2934
21759SOL     OW72137   4.438   8.193   7.643 -0.0745  0.4188  0.3706
21759SOL    HW172138   4.406   8.191   7.553  0.8190  1.4291  0.0038
21759SOL    HW272139   4.521   8.240   7.638  0.1070  0.2868  1.6921
21760SOL     OW72140   0.513   3.168  11.774 -0.0622  0.1332 -0.3873
21760SOL    HW172141   0.579   3.136  11.835 -0.0763 -1.0765 -0.9642
21760SOL    HW272142   0.501   3.260  11.796  1.9800  0.4400 -0.4089
21761SOL     OW72143   0.357  10.419   8.305  0.5680 -0.8878 -0.0709
21761SOL    HW172144   0.296  10.421   8.232  0.0465 -2.4318  0.2799
21761SOL    HW272145   0.350  10.506   8.345 -1.2246 -0.9530 -0.1839
21762SOL     OW72146   1.403   7.813  10.821 -0.1058 -0.1277 -0.1624
21762SOL    HW172147   1.322   7.767  10.844  0.7830 -1.0126  1.4248
21762SOL    HW272148   1.390   7.902  10.852 -1.1392  0.2232 -1.5589
21763SOL     OW72149   7.513   0.423   2.345 -0.2034  0.3756  0.3446
21763SOL    HW172150   7.437   0.444   2.292  0.5491 -1.1945 -1.4834
21763SOL    HW272151   7.587   0.465   2.299  0.4905 -1.1882 -0.0225
21764SOL     OW72152  10.282   8.767  10.231  0.1083 -0.4236 -0.0337
21764SOL    HW172153  10.349   8.710  10.194 -0.4564 -0.6765 -0.6990
21764SOL    HW272154  10.320   8.855  10.229  0.1890 -0.4767 -0.9837
21765SOL     OW72155  11.794   6.420   9.590 -0.3176  0.7231  0.1030
21765SOL    HW172156  11.793   6.398   9.497  1.6462  0.5704  0.0769
21765SOL    HW272157  11.836   6.346   9.632  0.6775  1.6618  0.8270
21766SOL     OW72158  11.492   8.421   3.196  0.2430  0.3826  0.2552
21766SOL    HW172159  11.521   8.375   3.117  0.5416 -2.1536  1.7413
21766SOL    HW272160  11.411   8.378   3.221  0.1867  1.1057  1.3955
21767SOL     OW72161  11.363   5.642   8.783  0.2037  0.0457 -0.1878
21767SOL    HW172162  11.443   5.592   8.767 -0.8614 -0.9614 -3.0225
21767SOL    HW272163  11.361   5.707   8.712 -1.2349  0.3493  0.1017
21768SOL     OW72164   4.715   4.355   2.516 -0.0021 -0.3412 -0.3140
21768SOL    HW172165   4.750   4.266   2.508 -2.2748 -1.2175 -1.9782
21768SOL    HW272166   4.637   4.345   2.571  0.0988  0.7496  0.0445
21769SOL     OW72167  10.892  11.708  11.415 -0.0930 -0.1119 -0.6090
21769SOL    HW172168  10.819  11.755  11.456  1.9921  0.3488  2.9741
21769SOL    HW272169  10.935  11.773  11.360  0.3975  1.0973  1.1282
21770SOL     OW72170   0.029   6.404   6.296 -0.6374 -0.2432 -0.3147
21770SOL    HW172171   0.106   6.365   6.254  0.8807  1.3612  0.8483
21770SOL    HW272172  -0.045   6.355   6.259  0.7699 -0.6703 -2.8319
21771SOL     OW72173   8.416   2.147   9.743 -0.1801  0.0989 -0.3196
21771SOL    HW172174   8.410   2.074   9.803 -0.0329  0.7028  0.4442
21771SOL    HW272175   8.374   2.116   9.663 -0.1370 -0.8047 -0.0027
21772SOL     OW72176  11.093   8.443   3.711 -0.2227  0.0471  0.3471
21772SOL    HW172177  11.136   8.396   3.640 -1.4734 -1.9409  0.8279
21772SOL    HW272178  11.149   8.427   3.787  1.5767  2.8670 -0.2170
21773SOL     OW72179  10.648   0.128   0.893 -0.4425 -0.3251  0.3838
21773SOL    HW172180  10.724   0.071   0.884  0.7384  1.4123 -1.3101
21773SOL    HW272181  10.583   0.074   0.937  0.7259 -2.8509 -0.8086
21774SOL     OW72182   4.620   7.560   3.653  0.2699  0.2468 -0.6622
21774SOL    HW172183   4.630   7.474   3.612  1.3750  0.4384 -0.8134
21774SOL    HW272184   4.548   7.549   3.715  0.2517 -0.7272 -0.8474
21775SOL     OW72185  10.183  10.998   0.552 -0.3268 -0.1236  0.5581
21775SOL    HW172186  10.218  11.079   0.514 -1.0350  0.4119  1.0343
21775SOL    HW272187  10.094  10.992   0.517 -0.6074 -0.1933  1.2769
21776SOL     OW72188   7.392   9.248   3.787  0.1559  0.4293  0.0510
21776SOL    HW172189   7.380   9.251   3.882 -1.8767 -1.2724 -0.0831
21776SOL    HW272190   7.310   9.212   3.754  2.3051 -3.2769 -1.9705
21777SOL     OW72191   4.190   6.345   3.105 -0.9111 -0.1759  0.1787
21777SOL    HW172192   4.158   6.352   3.195  0.7451 -1.8659  0.9648
21777SOL    HW272193   4.152   6.263   3.072 -1.3351  0.3213 -0.6078
21778SOL     OW72194   3.862   7.018   4.044  0.3090 -0.9077  0.4871
21778SOL    HW172195   3.860   7.044   4.136 -0.3979 -1.8117  0.7298
21778SOL    HW272196   3.775   6.984   4.026 -0.4998  1.7208 -1.2648
21779SOL     OW72197   9.825   4.365   4.692 -0.4732  0.3924 -0.4476
21779SOL    HW172198   9.892   4.336   4.754 -0.9519 -0.5316 -0.3457
21779SOL    HW272199   9.825   4.299   4.623 -0.4433  1.0305 -1.0672
21780SOL     OW72200   7.602   4.491  10.882 -0.1136  0.4161  0.0103
21780SOL    HW172201   7.672   4.451  10.934 -0.4229  0.2209  0.2787
21780SOL    HW272202   7.552   4.543  10.945 -0.5065  0.1556 -0.0812
21781SOL     OW72203   4.878   8.615   2.479 -0.8931  0.1819  0.3567
21781SOL    HW172204   4.939   8.688   2.471  0.7688 -1.1265  0.5029
21781SOL    HW272205   4.796   8.648   2.441 -0.2837  2.1746  0.6324
21782SOL     OW72206   5.833   7.575   2.488  0.7870 -0.4187  0.8930
21782SOL    HW172207   5.802   7.614   2.570  0.6234  2.9645 -0.6338
21782SOL    HW272208   5.928   7.578   2.494  0.7746  0.1141  0.8358
21783SOL     OW72209   2.147  11.117   7.676  0.4345  0.3359 -0.2785
21783SOL    HW172210   2.053  11.134   7.677  0.6254  1.5673 -0.8579
21783SOL    HW272211   2.157  11.030   7.713 -1.1533 -0.8128 -2.3402
21784SOL     OW72212   4.321   3.747   7.331  0.3240 -0.2286 -0.1589
21784SOL    HW172213   4.364   3.831   7.345  0.5500 -0.3052 -0.3981
21784SOL    HW272214   4.289   3.751   7.241  1.4868 -0.9138 -0.6198
21785SOL     OW72215   2.875   6.588  10.247 -0.7586  0.2285  0.7211
21785SOL    HW172216   2.942   6.656  10.253  0.1744 -0.6867  0.9483
21785SOL    HW272217   2.914   6.512  10.290 -0.5208 -1.4136 -2.1080
21786SOL     OW72218   9.037   4.475   4.333  0.6659 -0.9332  0.3728
21786SOL    HW172219   9.079   4.456   4.249  0.2543 -1.4677  0.2903
21786SOL    HW272220   9.105   4.457   4.398  1.0671 -0.2787  0.1525
21787SOL     OW72221   6.541   8.969   4.141  0.0112 -0.3021  0.5067
21787SOL    HW172222   6.579   9.023   4.072  0.6886  0.5165  1.4873
21787SOL    HW272223   6.584   8.884   4.131  0.0408 -0.2166 -0.1240
21788SOL     OW72224  11.861   3.123   4.997  0.1394  0.3488  0.3750
21788SOL    HW172225  11.819   3.134   5.082  1.1532  1.2754  0.7727
21788SOL    HW272226  11.921   3.049   5.010 -0.1228  0.1181  0.2899
21789SOL     OW72227   3.376   4.344  10.905  0.2658 -0.5172  0.0047
21789SOL    HW172228   3.443   4.318  10.969  0.5922  0.9618  0.2921
21789SOL    HW272229   3.405   4.304  10.823  1.5221  0.0956  0.1292
21790SOL     OW72230  11.176   9.212   6.821  0.3273  0.4504 -0.0742
21790SOL    HW172231  11.095   9.179   6.858  0.1003 -0.0650 -1.0004
21790SOL    HW272232  11.244   9.155   6.856 -0.2126 -2.1826 -2.8707
21791SOL     OW72233   5.980   7.735   6.968  0.3712  0.2640 -0.5848
21791SOL    HW172234   6.017   7.807   6.916 -1.4436  0.7832 -1.2539
21791SOL    HW272235   5.931   7.779   7.038 -0.7816 -0.2701 -1.0160
21792SOL     OW72236  10.769   8.423  12.395  0.0836  0.0594  0.4598
21792SOL    HW172237  10.838   8.373  12.439  0.3017 -0.2848 -0.2692
21792SOL    HW272238  10.788   8.514  12.417  1.4801  0.0715 -0.7124
21793SOL     OW72239   3.755   4.301   0.426  0.2259 -0.1346 -0.1318
21793SOL    HW172240   3.812   4.312   0.503  0.3650 -0.8766 -0.1197
21793SOL    HW272241   3.779   4.374   0.368  0.6862 -0.0267  0.1857
21794SOL     OW72242  11.931   9.396   0.783  0.2059  0.5640  0.0275
21794SOL    HW172243  11.949   9.470   0.841 -0.5744 -0.3538  1.4978
21794SOL    HW272244  11.836   9.394   0.774  0.3672  1.4022 -2.2966
21795SOL     OW72245   1.778   6.687   3.747  0.1909 -0.2162  0.4447
21795SOL    HW172246   1.843   6.664   3.814  1.2289 -0.9548 -0.7687
21795SOL    HW272247   1.771   6.782   3.751  0.2340 -0.2410  1.5745
21796SOL     OW72248  12.066   6.612  11.399 -0.4929  0.2118  0.0930
21796SOL    HW172249  12.130   6.618  11.327 -1.3167  0.9886 -0.5851
21796SOL    HW272250  12.077   6.694  11.448  0.1377 -0.3562  0.9486
21797SOL     OW72251  10.730   7.619   8.759  0.1776 -0.1350  0.4806
21797SOL    HW172252  10.656   7.642   8.815 -0.5828 -0.8008 -0.2423
21797SOL    HW272253  10.764   7.703   8.729  0.9993  0.2899  2.4018
21798SOL     OW72254   8.820   1.903   7.541  0.2050 -0.2388 -0.0151
21798SOL    HW172255   8.787   1.842   7.475 -1.0180 -0.6044  0.9065
21798SOL    HW272256   8.749   1.966   7.553  0.9289  0.5970  0.0317
21799SOL     OW72257   8.308   5.325   5.517 -0.5089  0.4431  0.5595
21799SOL    HW172258   8.351   5.401   5.479  0.5413 -0.0579  0.7353
21799SOL    HW272259   8.238   5.362   5.572 -0.8392  1.2257 -0.3656
21800SOL     OW72260   6.419  12.046  12.039  0.2162  0.4187  0.1274
21800SOL    HW172261   6.433  12.129  12.086 -0.8616  1.7493 -1.7875
21800SOL    HW272262   6.499  11.996  12.057  0.2629  1.2021  2.5735
21801SOL     OW72263   7.126   4.098  12.281 -0.1937 -0.8128  0.0553
21801SOL    HW172264   7.126   4.154  12.359 -0.0101  0.5413 -0.8766
21801SOL    HW272265   7.034   4.086  12.260 -0.3037 -2.3638  1.2597
21802SOL     OW72266   9.698   6.343   3.333 -0.5979  0.3162  0.3119
21802SOL    HW172267   9.713   6.251   3.313 -0.8316  0.1771  0.7581
21802SOL    HW272268   9.785   6.378   3.351 -0.2549  0.6851 -1.8617
21803SOL     OW72269   4.598   6.973   7.228  0.5399  0.3642 -0.3789
21803SOL    HW172270   4.506   6.972   7.255  0.3585 -0.6695 -0.9924
21803SOL    HW272271   4.596   6.979   7.133  1.1229  0.7534 -0.3749
21804SOL     OW72272   0.998   0.941  12.238  0.3921 -0.3827 -0.6112
21804SOL    HW172273   0.909   0.963  12.266  0.2353 -0.3509 -1.1186
21804SOL    HW272274   1.033   1.024  12.205  0.6330 -0.3819 -0.3523
21805SOL     OW72275   2.711   7.018   5.254 -0.3176  0.6434  0.5534
21805SOL    HW172276   2.651   6.943   5.251 -0.6095  0.9025 -0.3483
21805SOL    HW272277   2.784   6.993   5.198 -0.0441  0.7267  0.8686
21806SOL     OW72278  11.728   7.849   0.760 -0.4584 -0.5568 -0.6761
21806SOL    HW172279  11.809   7.857   0.810 -1.7036  0.5977  1.3248
21806SOL    HW272280  11.699   7.759   0.776 -0.2149 -0.5756 -0.3154
21807SOL     OW72281   9.871   0.090  12.253 -0.2920  0.0633 -0.0982
21807SOL    HW172282   9.830   0.175  12.241  0.6265  0.2597 -2.1300
21807SOL    HW272283   9.841   0.061  12.340 -0.4589  2.5054  0.7217
21808SOL     OW72284   7.124   8.914   1.001 -0.1580  0.0297 -0.5213
21808SOL    HW172285   7.122   9.007   1.023  0.3513 -0.6076  2.5507
21808SOL    HW272286   7.036   8.882   1.023  0.2017 -0.5547  0.0850
21809SOL     OW72287   1.919  10.870   2.210  0.1583 -0.1968 -0.5315
21809SOL    HW172288   2.008  10.851   2.179  0.7856  1.7933 -0.0901
21809SOL    HW272289   1.880  10.920   2.138 -1.5739 -3.1414 -1.8308
21810SOL     OW72290  10.982   7.742  11.701  0.1966 -0.5938 -0.0710
21810SOL    HW172291  10.938   7.812  11.750  2.3847 -1.1208  2.9283
21810SOL    HW272292  11.055   7.785  11.658 -0.5374 -0.4882 -1.2530
21811SOL     OW72293  11.372   0.551   6.772  0.2105 -0.5402  0.6875
21811SOL    HW172294  11.323   0.469   6.773 -0.9979  0.1062 -1.1577
21811SOL    HW272295  11.464   0.524   6.769 -0.0979 -1.7936  1.7278
21812SOL     OW72296   2.152   0.648   9.949 -0.4202 -0.4865  0.1197
21812SOL    HW172297   2.220   0.662  10.015  0.4650 -0.1243 -0.8407
21812SOL    HW272298   2.095   0.725   9.957  0.8428  0.6191 -0.8639
21813SOL     OW72299   4.786   3.685   2.175 -0.2065  0.3072  0.1997
21813SOL    HW172300   4.773   3.641   2.091 -0.8672 -1.0269  0.9526
21813SOL    HW272301   4.860   3.744   2.161 -0.7531  0.6354 -1.4967
21814SOL     OW72302   1.586   2.019   3.829  0.5572 -0.2585  0.3608
21814SOL    HW172303   1.557   1.951   3.768  1.7561 -2.9334  2.5634
21814SOL    HW272304   1.537   2.001   3.910  1.2613  1.2449  1.1626
21815SOL     OW72305   6.054   8.523  10.580 -0.4812  0.1573  0.2163
21815SOL    HW172306   6.093   8.541  10.494 -1.5073 -0.8248 -0.4879
21815SOL    HW272307   6.108   8.453  10.617 -0.8247 -0.3548 -0.2293
21816SOL     OW72308   6.523   2.215   2.740 -0.3855 -0.0162  0.2486
21816SOL    HW172309   6.600   2.271   2.749 -0.1389 -0.2415 -0.3860
21816SOL    HW272310   6.500   2.190   2.830  0.4007 -0.1118  0.4258
21817SOL     OW72311  10.678  10.772   7.723  0.0256 -0.0875 -0.0232
21817SOL    HW172312  10.751  10.816   7.767  0.0221 -0.1201  0.0158
21817SOL    HW272313  10.604  10.832   7.734 -0.4079 -0.8557  1.5046
21818SOL     OW72314   3.174   3.830   9.114  0.2652 -0.5841  0.6630
21818SOL    HW172315   3.209   3.918   9.126 -0.1441 -0.2832 -0.2312
21818SOL    HW272316   3.230   3.774   9.167  0.8043  0.1543  0.8867
21819SOL     OW72317   6.200   9.962   3.153 -0.5648 -0.2863  0.4307
21819SOL    HW172318   6.209   9.980   3.059 -2.1165  1.6154  0.5906
21819SOL    HW272319   6.273   9.903   3.173 -0.7525 -1.5328 -2.1372
21820SOL     OW72320   1.007   7.886   6.832  0.2951 -0.0492  0.2990
21820SOL    HW172321   1.097   7.879   6.866  0.0866 -0.5203  0.7800
21820SOL    HW272322   1.017   7.915   6.742  0.8838  1.1056  0.7097
21821SOL     OW72323   0.004  10.344   8.636 -0.0600 -0.1787 -0.3697
21821SOL    HW172324   0.078  10.286   8.656 -2.5747 -3.4454  0.4378
21821SOL    HW272325  -0.017  10.385   8.720  0.5544  0.4249 -0.5062
21822SOL     OW72326   2.011   3.029  12.373 -0.0801 -0.0858  0.4653
21822SOL    HW172327   1.980   3.027  12.283 -0.5790 -0.1307  0.6362
21822SOL    HW272328   2.058   2.947  12.384  0.3876  0.1272  0.1078
21823SOL     OW72329  11.368   8.733   6.048 -0.0154  0.8559  0.0139
21823SOL    HW172330  11.449   8.693   6.016 -0.4487  1.8594 -2.5633
21823SOL    HW272331  11.378   8.826   6.030 -0.3448  1.5354  2.9434
21824SOL     OW72332  10.555   3.306   9.346  0.4536  0.9743 -0.2265
21824SOL    HW172333  10.478   3.335   9.396  0.9532  1.8734  0.0523
21824SOL    HW272334  10.563   3.213   9.366 -0.8100  0.7612 -0.6027
21825SOL     OW72335   6.648   7.226   7.981  0.0325 -0.0237  0.2228
21825SOL    HW172336   6.576   7.243   8.042  0.1167  1.0023  0.0563
21825SOL    HW272337   6.638   7.293   7.914  0.8043 -0.2350 -0.1090
21826SOL     OW72338   8.713   5.301   5.209  0.5400  0.3699 -0.7554
21826SOL    HW172339   8.762   5.220   5.222  0.4782  0.4438  0.0483
21826SOL    HW272340   8.638   5.275   5.156 -0.4638 -0.5226  0.9732
21827SOL     OW72341   0.006   3.139   8.507  0.1844 -0.4632 -0.2847
21827SOL    HW172342   0.020   3.116   8.599  2.0040 -1.1436 -0.6844
21827SOL    HW272343  -0.032   3.061   8.468  1.0263 -0.8012 -0.4500
21828SOL     OW72344   4.534   9.587   0.598 -0.5848  0.7083  0.7130
21828SOL    HW172345   4.494   9.551   0.519 -0.6572  0.8620  0.6800
21828SOL    HW272346   4.593   9.655   0.567 -2.8202  2.9107  0.9356
21829SOL     OW72347   0.713   8.360  11.676  0.1188 -0.6389 -0.2760
21829SOL    HW172348   0.783   8.295  11.682 -0.7878 -1.6902 -0.7497
21829SOL    HW272349   0.640   8.321  11.723 -0.3440  0.1941 -0.2797
21830SOL     OW72350   0.055   7.907  10.124 -0.1373  0.0943 -0.1524
21830SOL    HW172351  -0.011   7.943  10.184  1.0805  0.4885  0.9928
21830SOL    HW272352   0.089   7.983  10.078 -0.0814 -0.0400 -0.3309
21831SOL     OW72353  11.660   5.873   0.724 -0.3657 -0.0269  0.0067
21831SOL    HW172354  11.723   5.846   0.656 -0.3729  0.1506 -0.0702
21831SOL    HW272355  11.668   5.805   0.791 -1.1204 -0.7837 -0.6423
21832SOL     OW72356   3.535   7.552   4.073 -0.0777  0.1897  0.2446
21832SOL    HW172357   3.627   7.576   4.076 -0.2812  1.2429 -1.1202
21832SOL    HW272358   3.525   7.508   3.988 -0.0884 -3.3083  1.8930
21833SOL     OW72359   8.037   9.857   8.212 -0.3494  0.4544  0.3475
21833SOL    HW172360   7.954   9.838   8.255  1.2485 -1.8098  2.7243
21833SOL    HW272361   8.095   9.887   8.283  1.2167  0.7894 -1.0107
21834SOL     OW72362   9.614   3.222   4.235 -0.0714 -0.2411  0.4480
21834SOL    HW172363   9.628   3.246   4.143 -0.7915  0.6707  0.5533
21834SOL    HW272364   9.651   3.296   4.285 -2.6641  0.9505  0.7774
21835SOL     OW72365  10.802   5.198   9.607 -0.0742 -0.2101  0.4852
21835SOL    HW172366  10.887   5.169   9.573 -1.5438 -2.8572 -1.2449
21835SOL    HW272367  10.786   5.142   9.683 -1.6642 -2.1406 -1.1709
21836SOL     OW72368   0.470   4.437   5.814  0.0269  0.4219 -0.0804
21836SOL    HW172369   0.377   4.419   5.827  0.1084 -0.3573 -0.5491
21836SOL    HW272370   0.512   4.352   5.817  0.5185  0.5756 -1.5231
21837SOL     OW72371   4.886  10.143   9.933 -0.2236 -0.7785  0.4006
21837SOL    HW172372   4.938  10.109   9.859  0.4046  0.3224  0.3168
21837SOL    HW272373   4.946  10.140  10.007  0.3487  1.4340  0.0969
21838SOL     OW72374   7.772   0.821   0.358  0.4471  0.4473  0.3932
21838SOL    HW172375   7.756   0.732   0.390 -0.6624  0.2648 -0.5927
21838SOL    HW272376   7.861   0.817   0.321  0.3853 -0.2683  0.2961
21839SOL     OW72377   4.399  12.004   9.959 -0.3590  0.2432  0.0558
21839SOL    HW172378   4.363  12.041   9.879  0.7342 -1.3831 -1.2586
21839SOL    HW272379   4.434  11.919   9.932 -0.0212 -0.3805  2.2871
21840SOL     OW72380  12.272   8.062   9.813 -0.1978 -0.0062 -0.0314
21840SOL    HW172381  12.295   8.111   9.892 -1.1140  0.5319 -0.0820
21840SOL    HW272382  12.176   8.059   9.813 -0.1881 -1.1289 -0.4498
21841SOL     OW72383   1.441   4.565   2.219  0.2764  0.6723 -0.5483
21841SOL    HW172384   1.399   4.567   2.133  0.1065 -0.4670 -0.5090
21841SOL    HW272385   1.460   4.473   2.234 -1.0311  0.6509  1.2608
21842SOL     OW72386   3.148  10.791  11.184 -0.0661  0.2866  0.7504
21842SOL    HW172387   3.231  10.823  11.148  0.6019 -0.0984  1.9013
21842SOL    HW272388   3.171  10.755  11.270 -1.0269 -1.8435  0.1926
21843SOL     OW72389   9.458   4.107  10.490  0.7722 -0.2309 -0.1478
21843SOL    HW172390   9.478   4.091  10.397 -3.1642  1.2760 -1.4670
21843SOL    HW272391   9.525   4.058  10.538  2.3822 -1.9237 -3.7530
21844SOL     OW72392   6.537   1.403   8.201  0.0493 -0.5625 -0.0607
21844SOL    HW172393   6.580   1.436   8.122 -0.4397  1.7989  0.5619
21844SOL    HW272394   6.488   1.326   8.172  0.4197 -0.1500 -1.9024
21845SOL     OW72395  12.265   9.418  12.215  0.1699  0.0288 -0.5416
21845SOL    HW172396  12.295   9.500  12.176 -1.0309 -0.4783 -2.7053
21845SOL    HW272397  12.345   9.368  12.230  0.7699  0.7425 -1.2790
21846SOL     OW72398   7.205   2.119   9.615  0.2767 -0.1662  0.3302
21846SOL    HW172399   7.260   2.163   9.679 -1.2757 -2.0708  3.1892
21846SOL    HW272400   7.127   2.174   9.608  0.4409  0.0351  0.0392
21847SOL     OW72401   5.578  10.028   0.584 -0.5809 -0.1058 -0.5014
21847SOL    HW172402   5.541   9.958   0.529 -0.4607 -0.6644  0.1092
21847SOL    HW272403   5.670  10.031   0.560 -0.3567 -0.8907  0.2055
21848SOL     OW72404   2.792   4.024   7.634  0.0883  0.2200  0.0001
21848SOL    HW172405   2.875   4.032   7.586  0.6303  0.8702  0.9995
21848SOL    HW272406   2.818   4.027   7.726 -1.0837  0.7342  0.3261
21849SOL     OW72407   7.147   8.701   5.146 -0.4144  0.2922 -0.1301
21849SOL    HW172408   7.136   8.665   5.058 -0.1869  0.6063 -0.2933
21849SOL    HW272409   7.226   8.755   5.139  0.6187 -1.0571  0.7167
21850SOL     OW72410   3.694   7.697   2.415  0.6879 -0.0671 -0.5890
21850SOL    HW172411   3.621   7.635   2.420  1.1595 -0.6554 -0.9014
21850SOL    HW272412   3.654   7.783   2.429 -0.0238 -0.4087 -0.5048
21851SOL     OW72413  10.171  11.256   5.052 -0.5099  0.2202  0.7106
21851SOL    HW172414  10.101  11.236   5.113 -0.2403  0.9081  1.2571
21851SOL    HW272415  10.222  11.325   5.095  1.3423 -1.2374  0.9886
21852SOL     OW72416   4.857   5.333   6.787  0.1083 -0.0755 -0.5942
21852SOL    HW172417   4.843   5.356   6.695  2.0354  2.4067 -0.3546
21852SOL    HW272418   4.935   5.278   6.787  1.0696  1.2409 -0.3589
21853SOL     OW72419  11.767   0.683   3.392 -0.4801 -0.6071  0.0762
21853SOL    HW172420  11.791   0.591   3.382 -0.3892 -0.8031  1.8469
21853SOL    HW272421  11.695   0.696   3.331  0.0963 -1.6058 -0.8551
21854SOL     OW72422   6.762   1.865  10.073  0.4843  0.1987  0.5616
21854SOL    HW172423   6.847   1.859  10.030  0.2476 -0.6186  0.2022
21854SOL    HW272424   6.782   1.860  10.166  0.7855 -0.5459  0.4607
21855SOL     OW72425   0.722  11.346   0.340 -0.2032 -0.0314 -0.3665
21855SOL    HW172426   0.703  11.285   0.270  0.7295  0.5543 -1.1711
21855SOL    HW272427   0.818  11.351   0.342 -0.1569 -0.6748  1.5288
21856SOL     OW72428   8.653   6.933   4.889  0.2749 -0.1498  0.1724
21856SOL    HW172429   8.665   6.853   4.838  3.4509  0.1705  0.1865
21856SOL    HW272430   8.647   7.003   4.823 -0.0257 -0.1547  0.1933
21857SOL     OW72431   7.031   4.707   7.076 -0.5142 -0.4164 -0.0620
21857SOL    HW172432   6.954   4.712   7.019 -1.3258  0.7461  1.0842
21857SOL    HW272433   7.068   4.620   7.060 -1.5826 -0.6770 -1.2353
21858SOL     OW72434   2.546  10.441   7.921  0.1809  0.7283  0.4136
21858SOL    HW172435   2.535  10.400   7.835 -1.1500 -0.4188  1.0935
21858SOL    HW272436   2.467  10.495   7.931  0.0186  0.3695  1.1525
21859SOL     OW72437   6.582   8.685   8.718 -0.0690 -0.1083 -0.1616
21859SOL    HW172438   6.643   8.756   8.693  0.2538 -0.2830  0.1225
21859SOL    HW272439   6.583   8.626   8.643 -0.5471  0.3212 -0.5153
21860SOL     OW72440   6.591   4.477   0.230 -0.3504 -0.2022 -0.2890
21860SOL    HW172441   6.657   4.531   0.273  0.7529 -2.0212  0.4054
21860SOL    HW272442   6.523   4.465   0.296 -1.5580  1.7876 -1.0485
21861SOL     OW72443   5.290  11.106   8.962 -0.3024  0.5473  0.1794
21861SOL    HW172444   5.349  11.072   9.029 -0.5242  0.2590  0.2308
21861SOL    HW272445   5.316  11.060   8.882 -0.0544  0.8733  0.0708
21862SOL     OW72446   7.166   0.381   7.838 -0.1755  0.1358  0.2562
21862SOL    HW172447   7.243   0.402   7.891  0.3811  0.0647 -0.5011
21862SOL    HW272448   7.094   0.376   7.900  0.3742  0.5330  0.9384
21863SOL     OW72449   8.624   1.428   9.366 -0.5213 -0.5299 -0.0623
21863SOL    HW172450   8.633   1.428   9.271  0.1173 -0.1909 -0.0078
21863SOL    HW272451   8.534   1.399   9.382 -0.9553  0.3778 -0.7904
21864SOL     OW72452   2.626   2.411  10.624  0.5658  0.0058 -0.3821
21864SOL    HW172453   2.606   2.403  10.717  3.3693 -0.9515  0.2463
21864SOL    HW272454   2.553   2.461  10.588 -1.0034 -0.2746  2.1569
21865SOL     OW72455   3.337   7.687   8.397 -0.0090  0.7286 -0.4840
21865SOL    HW172456   3.280   7.630   8.345  0.1187  1.2575 -1.2212
21865SOL    HW272457   3.312   7.670   8.487  0.2849 -0.7900 -0.6576
21866SOL     OW72458  10.105  11.703   4.398  0.0868 -0.3288  0.2335
21866SOL    HW172459  10.110  11.754   4.479  2.5335 -2.1318  1.3391
21866SOL    HW272460  10.156  11.754   4.335  2.7882 -1.3806  1.4168
21867SOL     OW72461   7.269   8.781  11.763  0.2803 -0.1622  0.5344
21867SOL    HW172462   7.193   8.727  11.785 -0.3963  1.4233  2.3817
21867SOL    HW272463   7.342   8.719  11.761 -0.9931 -1.7948 -1.6191
21868SOL     OW72464   0.614   8.132   7.166 -0.2720 -0.2299  0.6015
21868SOL    HW172465   0.659   8.143   7.250  1.8651  1.0349 -0.6045
21868SOL    HW272466   0.666   8.065   7.120 -0.0753  0.6554 -0.5118
21869SOL     OW72467  11.917   6.076   0.639 -0.0732  0.2696 -0.4952
21869SOL    HW172468  11.918   6.046   0.730 -1.6915  0.3611 -0.4273
21869SOL    HW272469  12.006   6.111   0.624 -0.6265  3.2239  2.0628
21870SOL     OW72470   7.761   9.611   8.545 -0.1529  0.1132 -0.6397
21870SOL    HW172471   7.674   9.599   8.508 -0.2848  0.7992 -0.5655
21870SOL    HW272472   7.750   9.592   8.639 -0.0616 -0.5110 -0.7511
21871SOL     OW72473   0.906   5.660   5.034  0.4419  0.2523  0.3914
21871SOL    HW172474   0.880   5.737   4.984 -0.8931  0.7599  1.7705
21871SOL    HW272475   0.942   5.600   4.969 -1.4347  0.7721 -1.2332
21872SOL     OW72476   5.711   2.051   0.612  0.4869  0.6081 -0.0107
21872SOL    HW172477   5.672   1.987   0.553  0.0762  0.7731  0.0731
21872SOL    HW272478   5.713   2.132   0.561  0.3066  0.7058  0.1373
21873SOL     OW72479   5.838   8.169   5.429 -0.0369 -0.1374 -0.1535
21873SOL    HW172480   5.874   8.191   5.343 -0.1105 -2.0079 -0.6977
21873SOL    HW272481   5.791   8.087   5.415  0.1425 -0.6031  1.7217
21874SOL     OW72482   0.508   5.284   5.749 -0.9386 -0.2719  0.0924
21874SOL    HW172483   0.566   5.228   5.801  1.7011  1.0137 -1.2492
21874SOL    HW272484   0.531   5.373   5.776 -2.7077  0.2891 -0.1468
21875SOL     OW72485   6.819   2.384   2.071  0.7472 -0.4383 -0.2324
21875SOL    HW172486   6.869   2.442   2.129  0.2133  1.5675 -1.6799
21875SOL    HW272487   6.733   2.426   2.063  1.3065  0.3373 -3.7453
21876SOL     OW72488   4.497   4.309   2.706  0.0716 -0.1291 -0.1669
21876SOL    HW172489   4.519   4.233   2.759  0.3878  0.2064  0.1915
21876SOL    HW272490   4.499   4.383   2.767  1.7800  0.4691 -0.8803
21877SOL     OW72491   5.758   5.220  10.274 -0.0877 -0.4026 -0.3367
21877SOL    HW172492   5.810   5.271  10.213  2.1751 -0.2667  1.5691
21877SOL    HW272493   5.716   5.285  10.331  1.9610 -0.4966  1.4248
21878SOL     OW72494   1.318   8.682  10.227  0.0405  0.4506 -0.0157
21878SOL    HW172495   1.245   8.699  10.287 -1.2802 -2.1317 -0.7106
21878SOL    HW272496   1.305   8.745  10.156 -0.7988  0.8470  0.4697
21879SOL     OW72497   8.937  12.336   1.216 -0.0492  0.3221 -0.2011
21879SOL    HW172498   8.857  12.388   1.223 -0.6756 -0.7592  0.9045
21879SOL    HW272499   8.909  12.251   1.184  0.9549  0.5474 -1.8303
21880SOL     OW72500   0.077   8.939  10.926  0.5157 -0.0498  0.0049
21880SOL    HW172501   0.166   8.910  10.908  0.0731 -1.2456 -0.3092
21880SOL    HW272502   0.082   9.035  10.922  1.9992 -0.0562  1.0788
21881SOL     OW72503   5.919   1.378   3.253 -0.8150 -0.7731  0.6599
21881SOL    HW172504   5.936   1.471   3.240 -0.7569 -0.6738  1.4016
21881SOL    HW272505   5.851   1.357   3.189 -1.4670 -0.0193  1.0929
21882SOL     OW72506  12.138   3.795   3.409 -0.3318  0.4253  0.3108
21882SOL    HW172507  12.202   3.863   3.389 -0.5549  0.7890  0.8214
21882SOL    HW272508  12.060   3.821   3.360 -1.0305  1.5654  1.9398
21883SOL     OW72509  10.295  10.303  11.386 -0.3009 -0.1109 -0.6074
21883SOL    HW172510  10.318  10.332  11.474 -0.9619 -1.1529 -0.0630
21883SOL    HW272511  10.360  10.344  11.329  0.1458  0.5687  0.3636
21884SOL     OW72512  10.683  11.581   2.300  0.5905  0.0753  0.6925
21884SOL    HW172513  10.668  11.655   2.241 -2.1022 -0.6074  0.3693
21884SOL    HW272514  10.617  11.592   2.369  1.2552 -1.1250  1.5632
21885SOL     OW72515   1.793  11.873  10.914  0.0625  0.0435  0.0146
21885SOL    HW172516   1.703  11.903  10.901  0.1699  0.9449  1.2075
21885SOL    HW272517   1.843  11.914  10.844 -0.2466  0.5740  0.1021
21886SOL     OW72518  11.039   9.740   2.760 -0.1227  0.0099  0.0852
21886SOL    HW172519  11.045   9.783   2.846 -1.2656 -0.7019  0.5441
21886SOL    HW272520  11.025   9.812   2.698  1.1133  0.5687  0.4139
21887SOL     OW72521   1.588   0.656   1.199  0.2454 -0.3352 -0.2803
21887SOL    HW172522   1.622   0.745   1.215 -1.1519  0.2637 -0.4893
21887SOL    HW272523   1.663   0.599   1.212  1.7427  1.0393 -2.2837
21888SOL     OW72524   0.720   5.105   2.007  0.2236 -0.1513 -0.3674
21888SOL    HW172525   0.676   5.188   2.022 -0.6047 -0.3360 -1.7142
21888SOL    HW272526   0.650   5.043   1.989  0.9447 -0.7202 -1.3100
21889SOL     OW72527   5.936   2.797   2.068 -0.4543 -0.0572  0.5828
21889SOL    HW172528   6.017   2.839   2.040 -0.7021 -0.2439 -0.4312
21889SOL    HW272529   5.894   2.769   1.987 -0.8242 -1.2666  1.1706
21890SOL     OW72530   6.506  10.526   8.191 -0.4853  0.4245  0.3140
21890SOL    HW172531   6.581  10.527   8.250 -0.9568  0.8160  0.9300
21890SOL    HW272532   6.513  10.443   8.143 -0.7499 -0.4973  1.8006
21891SOL     OW72533   1.921   7.600   1.283  0.0479  0.0651  0.2836
21891SOL    HW172534   2.002   7.615   1.234 -0.9859 -0.1489 -1.5721
21891SOL    HW272535   1.901   7.508   1.269  1.1998 -0.8330  3.5719
21892SOL     OW72536   3.856   7.059   2.456  0.0253  0.1054 -0.3566
21892SOL    HW172537   3.839   7.152   2.447 -0.2356 -0.1417 -3.9753
21892SOL    HW272538   3.929   7.053   2.518 -0.8815  2.5393  1.0546
21893SOL     OW72539   8.641   1.375   5.757  0.8401 -0.3225 -0.3275
21893SOL    HW172540   8.612   1.464   5.736 -1.7157 -0.9103  0.3468
21893SOL    HW272541   8.590   1.319   5.700  1.3996 -1.4445  0.2457
21894SOL     OW72542   4.430   4.635  11.541  0.0530  0.3859 -0.0429
21894SOL    HW172543   4.379   4.657  11.620 -0.6583  0.2711 -0.4590
21894SOL    HW272544   4.369   4.649  11.469  0.5735  0.0898 -0.5463
21895SOL     OW72545  11.647   7.806   8.405  0.0280 -0.2375 -0.3410
21895SOL    HW172546  11.734   7.768   8.415 -0.0623 -0.7446 -1.3663
21895SOL    HW272547  11.591   7.753   8.462  0.4154  0.2205  0.4781
21896SOL     OW72548   6.551   1.823   9.636 -0.0574  0.4195  0.2163
21896SOL    HW172549   6.538   1.729   9.630 -0.9233  0.4927  0.8294
21896SOL    HW272550   6.641   1.836   9.606  0.2154 -0.6464  0.5118
21897SOL     OW72551  12.406   4.316  10.754  0.1471  0.7083 -0.0049
21897SOL    HW172552  12.325   4.264  10.754 -0.3135  1.3999 -0.2134
21897SOL    HW272553  12.457   4.281  10.681  0.7703 -0.8066  1.1061
21898SOL     OW72554   6.131   7.575   4.160 -0.0283  0.4071  0.0160
21898SOL    HW172555   6.060   7.622   4.117 -0.5963 -1.6028 -1.3914
21898SOL    HW272556   6.087   7.513   4.218  0.6701  0.9671  1.1804
21899SOL     OW72557  11.805   1.777   9.854  0.3826  0.8390  0.4845
21899SOL    HW172558  11.769   1.743   9.936  0.6311  0.2151  0.3446
21899SOL    HW272559  11.878   1.832   9.880  4.3042 -3.7313  0.6598
21900SOL     OW72560   6.186   1.197   0.195 -0.0517  0.4352 -0.1765
21900SOL    HW172561   6.249   1.264   0.168 -0.4276  0.1851 -1.7882
21900SOL    HW272562   6.157   1.157   0.113 -1.1139 -0.5408  0.6416
21901SOL     OW72563  12.049   4.112   3.262  0.4589  0.1396 -0.1350
21901SOL    HW172564  12.005   4.028   3.250  1.1280 -0.4050  1.0000
21901SOL    HW272565  12.138   4.088   3.289  1.2897  1.2115 -1.7932
21902SOL     OW72566   3.860   1.283   0.275 -0.0524 -0.0383 -0.2772
21902SOL    HW172567   3.817   1.205   0.311 -1.6667  0.8815 -0.0890
21902SOL    HW272568   3.952   1.271   0.297 -0.0292 -2.4808 -1.3584
21903SOL     OW72569   8.436  12.381   2.231 -0.2688 -0.3795  0.4761
21903SOL    HW172570   8.498  12.397   2.159 -1.0995 -1.4358 -0.5166
21903SOL    HW272571   8.470  12.303   2.274 -0.1144 -0.1048  0.8549
21904SOL     OW72572   6.107  11.027  11.109  0.0853  0.1750  0.3811
21904SOL    HW172573   6.172  11.012  11.040  0.6477 -0.4687  1.0436
21904SOL    HW272574   6.036  10.965  11.090  0.7175 -0.7550  0.9696
21905SOL     OW72575   9.408  10.925  11.154 -0.1441  0.1107  0.0869
21905SOL    HW172576   9.323  10.968  11.146  0.3404  0.9951 -0.5048
21905SOL    HW272577   9.392  10.848  11.209 -1.5323 -0.3181 -0.8843
21906SOL     OW72578   0.916   7.478  12.101 -0.2127  0.5120  0.4077
21906SOL    HW172579   1.004   7.504  12.075  0.5660 -1.3698  0.9852
21906SOL    HW272580   0.912   7.384  12.082 -2.0396  0.5214  0.5632
21907SOL     OW72581   8.191   7.064  11.694 -0.0851 -0.2517  0.0458
21907SOL    HW172582   8.129   7.132  11.668  0.3769  0.3863  0.5779
21907SOL    HW272583   8.149   6.982  11.668  0.0808  0.2863 -2.1293
21908SOL     OW72584   3.796   7.918  11.036  0.1023 -0.1827 -0.5617
21908SOL    HW172585   3.810   7.971  10.958  0.0464 -0.0085 -0.4538
21908SOL    HW272586   3.868   7.942  11.094  1.2473 -1.6885 -1.2887
21909SOL     OW72587   4.182   6.169   5.658 -0.3796 -0.0193 -0.6151
21909SOL    HW172588   4.168   6.109   5.732  0.1227  0.5200 -0.0814
21909SOL    HW272589   4.191   6.255   5.697  0.8208  0.1547 -1.2262
21910SOL     OW72590   3.383   9.100   3.754 -0.0048 -0.5289 -0.2435
21910SOL    HW172591   3.296   9.089   3.716 -0.2079  0.2923 -0.0225
21910SOL    HW272592   3.442   9.108   3.679 -0.2378 -0.1696 -0.3860
21911SOL     OW72593   2.063   8.032   4.612  0.6609 -0.4430 -0.2805
21911SOL    HW172594   2.015   8.020   4.694 -0.0359 -1.5216 -0.8352
21911SOL    HW272595   2.042   8.121   4.585 -0.9984 -0.8606 -0.4722
21912SOL     OW72596   9.549   3.224   2.369 -0.0316 -0.2718 -0.0431
21912SOL    HW172597   9.576   3.167   2.441  2.0109  0.6815  0.0159
21912SOL    HW272598   9.478   3.277   2.406  0.0455 -0.7468  0.8228
21913SOL     OW72599   9.539   6.249   9.471 -0.2314 -0.6622  0.2936
21913SOL    HW172600   9.475   6.299   9.522 -0.8998 -0.5745 -0.6129
21913SOL    HW272601   9.517   6.268   9.380  1.1617 -0.5431 -0.0346
21914SOL     OW72602   4.846   0.165   5.293 -0.7674 -1.0406 -0.1760
21914SOL    HW172603   4.846   0.225   5.367  0.0120 -0.7027 -0.4451
21914SOL    HW272604   4.753   0.151   5.274 -1.0089 -1.7332  1.3386
21915SOL     OW72605   5.981   7.766   1.644 -0.1634 -0.6047  0.1077
21915SOL    HW172606   5.930   7.791   1.567  1.2852 -0.6481 -0.8986
21915SOL    HW272607   6.015   7.679   1.624  0.2686 -0.6049  0.7761
21916SOL     OW72608  10.769   8.462   6.826  0.5474  0.4502 -0.0477
21916SOL    HW172609  10.812   8.493   6.747 -0.8993  2.6656 -0.0753
21916SOL    HW272610  10.710   8.394   6.796 -1.4216  2.5614 -1.3329
21917SOL     OW72611   8.665   2.521   8.336  0.2409 -0.0778  0.4867
21917SOL    HW172612   8.682   2.513   8.430 -0.3650 -1.0745  0.5257
21917SOL    HW272613   8.700   2.440   8.298  0.4766  0.3128 -0.1498
21918SOL     OW72614  10.532   1.954   1.291  0.0061  0.1761  0.2772
21918SOL    HW172615  10.575   1.887   1.237 -1.3889 -1.3570  0.9789
21918SOL    HW272616  10.568   2.037   1.260  0.1775 -0.7286 -2.1384
21919SOL     OW72617  12.305   5.219   6.074 -0.3125  0.7249 -0.4243
21919SOL    HW172618  12.218   5.204   6.110 -0.1740 -0.2023 -0.4578
21919SOL    HW272619  12.364   5.178   6.137  0.0963  1.2028 -0.4864
21920SOL     OW72620   7.321   2.249   9.837  0.3651 -0.0211 -0.1041
21920SOL    HW172621   7.325   2.303   9.916 -0.5833  0.1563 -0.1644
21920SOL    HW272622   7.399   2.194   9.841  1.2490  1.1884  0.0810
21921SOL     OW72623   6.077   8.385   3.903 -0.4001  0.2330 -0.8774
21921SOL    HW172624   6.015   8.360   3.972  0.6068 -0.4777 -0.2061
21921SOL    HW272625   6.129   8.456   3.942  0.3979 -0.4014 -0.7568
21922SOL     OW72626   6.305   0.270   5.147 -0.3760 -0.5473 -0.4383
21922SOL    HW172627   6.265   0.355   5.127  2.9924  1.2900 -0.0022
21922SOL    HW272628   6.338   0.238   5.062  2.4880  0.9760 -0.0077
21923SOL     OW72629   3.392  11.913   2.124 -0.5408  0.0362 -0.6676
21923SOL    HW172630   3.316  11.863   2.092  0.9608 -1.5610 -1.9378
21923SOL    HW272631   3.467  11.872   2.081  0.9639  2.2573 -0.3059
21924SOL     OW72632   1.757   8.107   0.977 -0.1777 -0.6772  0.1282
21924SOL    HW172633   1.671   8.148   0.980  0.1844  0.2195 -0.7551
21924SOL    HW272634   1.816   8.173   1.014  0.1973 -1.0353  0.1716
21925SOL     OW72635   1.313   9.092   7.828 -0.3558  0.4000 -0.0396
21925SOL    HW172636   1.377   9.059   7.766  1.0379  1.4188  0.7796
21925SOL    HW272637   1.267   9.162   7.781 -1.0297 -0.4668 -0.6957
21926SOL     OW72638   3.936   2.509   3.493  0.1751 -0.6942 -0.3956
21926SOL    HW172639   3.940   2.501   3.589  1.1926 -0.8206 -0.4379
21926SOL    HW272640   3.863   2.454   3.468 -0.6531  0.0146  0.3812
21927SOL     OW72641   1.585   6.696   7.320 -0.6158 -0.1248 -0.2885
21927SOL    HW172642   1.621   6.718   7.234  2.4736 -0.1491  0.8725
21927SOL    HW272643   1.631   6.616   7.346 -1.7596 -0.3396  1.2340
21928SOL     OW72644   7.333   5.147  11.991 -0.5291  0.2807 -0.0657
21928SOL    HW172645   7.293   5.094  11.922 -0.2340  0.8159 -0.6586
21928SOL    HW272646   7.322   5.237  11.961  0.4470  0.4685  0.1145
21929SOL     OW72647   9.552   9.207   4.102 -0.9122  0.7488 -0.1290
21929SOL    HW172648   9.593   9.152   4.169 -1.0625 -0.8523 -1.2897
21929SOL    HW272649   9.471   9.160   4.079 -1.7556  2.1737 -0.1974
21930SOL     OW72650   6.892   7.746  11.298 -0.6325 -0.1570  0.8310
21930SOL    HW172651   6.939   7.688  11.239 -0.9798  0.5160 -0.1251
21930SOL    HW272652   6.950   7.821  11.310 -1.5871  0.8905 -0.7146
21931SOL     OW72653   2.695   7.448  11.881  0.2689  0.1062 -0.5595
21931SOL    HW172654   2.789   7.439  11.895  0.1945  1.2983  0.9832
21931SOL    HW272655   2.675   7.538  11.906 -1.6052 -0.7275  1.3742
21932SOL     OW72656   9.601   4.413   0.527 -0.0908  0.3362 -0.0509
21932SOL    HW172657   9.623   4.341   0.468  0.1667  0.4563 -0.1032
21932SOL    HW272658   9.667   4.480   0.509  1.7280 -0.6716  2.2901
21933SOL     OW72659   4.613  10.636   1.636  0.1442 -0.2276 -0.6131
21933SOL    HW172660   4.695  10.618   1.590  1.0899  2.2365 -0.0348
21933SOL    HW272661   4.559  10.683   1.573  0.1365  0.2483 -0.2609
21934SOL     OW72662   7.303   3.771   8.366 -0.2274  0.3587 -0.0192
21934SOL    HW172663   7.267   3.741   8.450 -0.3163  0.6276  0.0423
21934SOL    HW272664   7.320   3.691   8.317  0.3224  0.1740  0.4582
21935SOL     OW72665   4.359   0.949  12.251 -0.0366  0.6461  0.1584
21935SOL    HW172666   4.448   0.922  12.230  0.1421  1.7730 -0.6045
21935SOL    HW272667   4.312   0.867  12.267  0.5127 -0.1233 -1.9473
21936SOL     OW72668   5.675  10.878   0.912  0.1014 -0.4144  0.3665
21936SOL    HW172669   5.612  10.808   0.931 -2.3046  0.6437 -2.8092
21936SOL    HW272670   5.649  10.950   0.970 -1.2732 -0.2184 -0.4409
21937SOL     OW72671   0.898   6.799   4.932 -0.1880 -0.1219 -0.2153
21937SOL    HW172672   0.947   6.776   5.012  1.5180 -1.0897 -1.4792
21937SOL    HW272673   0.931   6.886   4.909 -0.1268 -0.1591 -0.2686
21938SOL     OW72674   3.272   3.285   7.507 -0.0040 -0.0264  1.0516
21938SOL    HW172675   3.290   3.314   7.597 -1.1833 -0.2756  1.3898
21938SOL    HW272676   3.176   3.283   7.502  0.0414 -1.7694  0.3655
21939SOL     OW72677   6.265   0.049   6.917 -0.6679 -0.2090 -0.3336
21939SOL    HW172678   6.286  -0.030   6.867  0.1017 -1.6032  2.0384
21939SOL    HW272679   6.342   0.064   6.972 -1.9762  0.3981  1.4327
21940SOL     OW72680   3.571  10.216   1.058 -0.4721  0.0688  0.2645
21940SOL    HW172681   3.564  10.292   1.001 -2.1655 -0.1394  0.1258
21940SOL    HW272682   3.624  10.246   1.132 -1.3790  1.5053  0.3725
21941SOL     OW72683   2.518   4.290   0.218 -0.1264 -0.1829  0.5453
21941SOL    HW172684   2.527   4.195   0.223  1.2076 -0.2714 -1.7715
21941SOL    HW272685   2.502   4.307   0.125 -0.6550  1.8551  0.9591
21942SOL     OW72686   5.821   3.016   3.554  0.2506  0.3793  0.1556
21942SOL    HW172687   5.784   2.970   3.479 -0.7069  1.1231  0.1571
21942SOL    HW272688   5.749   3.067   3.589  0.7047  0.0986  1.5528
21943SOL     OW72689   2.058   5.798   4.598  0.0527 -0.8190 -0.1451
21943SOL    HW172690   2.131   5.823   4.541 -0.4174  1.0471 -0.0046
21943SOL    HW272691   2.101   5.761   4.675  0.7162 -2.7152 -1.3553
21944SOL     OW72692   2.079   9.290   0.581 -0.1806 -0.1630  0.2039
21944SOL    HW172693   2.115   9.335   0.504  0.7691  0.5268  1.0231
21944SOL    HW272694   2.103   9.198   0.568 -0.3970 -0.1242 -0.5228
21945SOL     OW72695   1.187   8.974   3.568  0.3604  0.1798 -0.2560
21945SOL    HW172696   1.184   8.915   3.493  0.7911  0.6911 -0.6806
21945SOL    HW272697   1.096   8.980   3.597  0.2529 -0.3541 -0.4674
21946SOL     OW72698   7.947  11.725   1.287  0.4707 -0.3264  0.0091
21946SOL    HW172699   7.856  11.699   1.273  0.5323  0.5200 -2.4422
21946SOL    HW272700   7.949  11.759   1.377 -1.7113 -0.0549  0.0032
21947SOL     OW72701   5.160   6.186   3.030 -0.1077  0.8567 -0.0199
21947SOL    HW172702   5.171   6.109   3.087 -0.0116  0.5403 -0.4658
21947SOL    HW272703   5.220   6.171   2.957 -0.1653  1.3069 -0.1613
21948SOL     OW72704   3.466   4.389   8.597  0.0757 -0.0810 -0.3072
21948SOL    HW172705   3.411   4.313   8.616  1.0374 -0.7762 -0.2717
21948SOL    HW272706   3.418   4.436   8.528  0.1935 -1.5165 -1.4085
21949SOL     OW72707  10.226   5.462   6.618 -0.4096 -0.3546  0.5299
21949SOL    HW172708  10.178   5.439   6.538 -1.2246 -0.1457  0.9449
21949SOL    HW272709  10.186   5.544   6.647  1.3832  0.8005 -0.0539
21950SOL     OW72710   0.949   5.163  10.888  0.1727  0.3711 -0.0974
21950SOL    HW172711   0.986   5.082  10.924 -0.2230 -0.3359 -1.2291
21950SOL    HW272712   1.023   5.208  10.848  0.0309 -0.6154 -1.5729
21951SOL     OW72713   6.367   8.351  12.352  0.0310  0.1116  0.5194
21951SOL    HW172714   6.328   8.287  12.292 -0.8566  1.3326 -0.2482
21951SOL    HW272715   6.369   8.433  12.302  0.2562  0.9147  1.8035
21952SOL     OW72716   5.406   8.016   8.174 -1.1039 -0.1435  0.0338
21952SOL    HW172717   5.438   7.971   8.253 -1.9473  0.2998  0.6498
21952SOL    HW272718   5.478   8.073   8.148 -0.0212 -1.8035 -0.7514
21953SOL     OW72719   5.917  11.983  10.729  0.0063 -0.6041 -0.2038
21953SOL    HW172720   5.849  12.040  10.766  0.6225  0.7124 -1.0387
21953SOL    HW272721   5.898  11.897  10.767 -0.9733  0.1226  1.0723
21954SOL     OW72722   9.709   1.663  10.514 -0.3822 -0.1031 -0.0148
21954SOL    HW172723   9.790   1.700  10.481 -1.1884  1.4118 -0.3935
21954SOL    HW272724   9.651   1.659  10.438 -0.1549 -2.7633 -0.1183
21955SOL     OW72725  11.834   6.246  11.183 -0.0631 -0.1418  0.2890
21955SOL    HW172726  11.919   6.266  11.144  0.0014 -1.7226 -0.4377
21955SOL    HW272727  11.781   6.324  11.166  0.1931 -0.4636 -2.3394
21956SOL     OW72728  10.417   7.107   8.634 -0.0413  0.1856  0.4979
21956SOL    HW172729  10.385   7.018   8.624  0.6141  0.0517 -0.6456
21956SOL    HW272730  10.446   7.113   8.725  0.8299 -1.0976  0.3303
21957SOL     OW72731   0.615   5.624   2.480  0.4278 -0.7628  0.2760
21957SOL    HW172732   0.697   5.577   2.493  1.3112  0.8281  0.7775
21957SOL    HW272733   0.627   5.707   2.527 -0.9163  0.1117 -0.8329
21958SOL     OW72734   7.503  10.113   6.925 -0.1511  0.1711  0.2005
21958SOL    HW172735   7.443  10.105   6.998 -2.9248 -4.1120 -2.1418
21958SOL    HW272736   7.556  10.033   6.928  0.4920  0.4626 -1.7625
21959SOL     OW72737   9.612  10.083   7.862 -0.4372 -0.5998 -0.7213
21959SOL    HW172738   9.578  10.171   7.879  0.4719 -0.0623 -1.5499
21959SOL    HW272739   9.534  10.029   7.849 -1.0085  0.4877 -2.0629
21960SOL     OW72740   1.712   9.084   8.182 -0.0459  0.0453  0.0792
21960SOL    HW172741   1.765   9.004   8.180 -0.4839 -0.2400 -0.8511
21960SOL    HW272742   1.634   9.060   8.231 -0.6398 -0.4249 -1.0474
21961SOL     OW72743   4.479   5.557   5.114  0.0890 -0.1433  0.5226
21961SOL    HW172744   4.445   5.621   5.176  1.2288  1.4681 -0.4284
21961SOL    HW272745   4.434   5.577   5.032 -1.0189 -1.9076  0.6346
21962SOL     OW72746  11.376   9.638  11.647  0.2410  0.5881  0.1507
21962SOL    HW172747  11.427   9.717  11.667  1.3928  0.4061 -1.7795
21962SOL    HW272748  11.340   9.610  11.732  0.6728  2.5718  1.0410
21963SOL     OW72749   5.168   5.572   8.887 -1.1892 -0.1949 -0.4938
21963SOL    HW172750   5.215   5.619   8.819 -1.1524  1.0659  0.3749
21963SOL    HW272751   5.079   5.563   8.853 -1.4560  1.3858 -0.2920
21964SOL     OW72752   7.311   3.843  10.010 -0.3242  0.3138 -0.5790
21964SOL    HW172753   7.286   3.857  10.101  0.5548  0.4362 -0.3412
21964SOL    HW272754   7.291   3.751   9.993  1.4442 -0.3104  0.4236
21965SOL     OW72755   6.517   5.533  10.134  0.0294 -0.2972 -0.2464
21965SOL    HW172756   6.579   5.602  10.159 -0.7669  0.1762  0.4612
21965SOL    HW272757   6.570   5.453  10.135  0.1058 -0.3419  3.0241
21966SOL     OW72758   7.208  11.008  10.879  0.4272  0.5589 -0.0676
21966SOL    HW172759   7.253  11.073  10.825  0.5319  0.6590  0.1363
21966SOL    HW272760   7.244  11.021  10.967  2.0519 -1.1865 -0.3974
21967SOL     OW72761   3.884   5.122   2.297 -0.0598  0.1381  0.4008
21967SOL    HW172762   3.847   5.208   2.274 -0.8831 -0.2168  0.3635
21967SOL    HW272763   3.860   5.066   2.224  1.5080  0.1448 -0.1419
21968SOL     OW72764   3.149   4.490  10.806  0.0695 -0.2744  0.2093
21968SOL    HW172765   3.208   4.432  10.757  1.0398  2.0488 -1.5643
21968SOL    HW272766   3.089   4.525  10.740 -0.6373  0.5671  1.2549
21969SOL     OW72767   5.509   2.297   4.774 -0.3222 -0.2747 -0.4764
21969SOL    HW172768   5.532   2.368   4.714 -3.3920 -0.0708 -1.5493
21969SOL    HW272769   5.558   2.222   4.741  0.7037  0.6206 -1.0968
21970SOL     OW72770  10.689   0.630  11.177  0.0037 -0.2722  0.6659
21970SOL    HW172771  10.750   0.704  11.174  1.3326 -1.3537 -0.0466
21970SOL    HW272772  10.677   0.605  11.085 -1.6986  0.0364  0.7783
21971SOL     OW72773   3.468   2.916   8.476 -0.1615 -0.1241 -0.2787
21971SOL    HW172774   3.435   2.918   8.386 -1.8564 -1.2990  0.2638
21971SOL    HW272775   3.389   2.923   8.530  0.9730  3.8957  1.2441
21972SOL     OW72776   0.358  11.258  11.572 -0.1267 -0.0130  0.3227
21972SOL    HW172777   0.279  11.206  11.558  0.4648 -0.6791 -0.6701
21972SOL    HW272778   0.334  11.320  11.642 -1.2436 -0.7640  0.6350
21973SOL     OW72779   2.519   6.681   1.284 -0.2399 -0.4620  0.6153
21973SOL    HW172780   2.470   6.699   1.204  2.0100 -1.2751 -1.0846
21973SOL    HW272781   2.455   6.688   1.354 -1.5030  4.9349 -0.5980
21974SOL     OW72782  11.613   0.446  11.534  0.2533  0.2543  0.5338
21974SOL    HW172783  11.605   0.510  11.463 -0.9293 -0.5168 -0.0623
21974SOL    HW272784  11.699   0.463  11.572  0.6101  1.1646 -0.6195
21975SOL     OW72785   4.178  11.144   2.270  0.2542  0.3454  0.4390
21975SOL    HW172786   4.213  11.135   2.358  0.8856  1.1804  0.2819
21975SOL    HW272787   4.100  11.199   2.280  1.0871  1.5749  0.3128
21976SOL     OW72788  11.580   1.634   2.098  0.4601  0.5472 -0.1005
21976SOL    HW172789  11.576   1.730   2.097  0.0667  0.5629  0.9447
21976SOL    HW272790  11.511   1.606   2.038 -1.3997  0.9373  1.7308
21977SOL     OW72791   7.898   3.682  10.192  0.0859 -0.8511 -0.4077
21977SOL    HW172792   7.830   3.743  10.220 -0.0509 -1.8241  1.5107
21977SOL    HW272793   7.894   3.685  10.096 -2.5611 -0.7571 -0.3641
21978SOL     OW72794   0.800   2.720  11.013 -0.0376  0.2000 -0.1423
21978SOL    HW172795   0.712   2.695  10.987  0.0654  0.6718 -0.9683
21978SOL    HW272796   0.858   2.661  10.966  0.0780 -0.6630  1.0420
21979SOL     OW72797   6.493   5.382  10.580 -0.0689  0.0676 -0.4582
21979SOL    HW172798   6.571   5.438  10.575 -0.7686  1.0187 -1.1618
21979SOL    HW272799   6.462   5.393  10.670  0.6303 -0.3634 -0.1545
21980SOL     OW72800   1.952  11.791   9.244 -0.0558  0.4526  0.4128
21980SOL    HW172801   1.934  11.851   9.316  2.4745 -0.1607  1.6602
21980SOL    HW272802   2.046  11.798   9.229 -0.0990 -1.3498 -1.1250
21981SOL     OW72803   0.809   4.609   5.835  0.2921 -0.1372 -0.0649
21981SOL    HW172804   0.731   4.587   5.783  0.8790  1.5026 -1.7497
21981SOL    HW272805   0.801   4.555   5.914 -1.5030 -1.4922 -1.0974
21982SOL     OW72806   5.815   0.894  11.400  0.2135  0.8384  0.3846
21982SOL    HW172807   5.731   0.933  11.375  1.2528  1.7051 -1.9955
21982SOL    HW272808   5.791   0.824  11.460 -2.4822 -0.5947 -2.1056
21983SOL     OW72809   0.868   1.489   0.526  0.3439 -0.1063 -0.2732
21983SOL    HW172810   0.888   1.403   0.562  0.9519  0.5001  0.9214
21983SOL    HW272811   0.773   1.495   0.528  0.2773 -0.9190 -0.8008
21984SOL     OW72812  10.874   6.161   7.411 -0.3713 -0.1388  0.8315
21984SOL    HW172813  10.916   6.075   7.409 -0.5872 -0.2309  0.3212
21984SOL    HW272814  10.905   6.204   7.332 -1.4826 -0.3166  0.2945
21985SOL     OW72815   2.765   6.939   6.374 -0.0196 -0.3346  0.2858
21985SOL    HW172816   2.769   7.033   6.356  0.5092 -0.4618 -0.3513
21985SOL    HW272817   2.793   6.898   6.291  1.8420 -0.9943  1.1847
21986SOL     OW72818   9.887   5.285   0.008  0.7727 -0.3680  0.2163
21986SOL    HW172819   9.801   5.315   0.038  1.6264  0.8208  1.6054
21986SOL    HW272820   9.929   5.363  -0.027  0.9297 -1.1578 -1.4842
21987SOL     OW72821   9.182   2.351  11.884  0.5705 -0.2401 -0.2236
21987SOL    HW172822   9.203   2.387  11.798 -0.3102 -2.9850 -1.6748
21987SOL    HW272823   9.090   2.324  11.877  0.8733 -1.7468  1.0974
21988SOL     OW72824   4.039   8.501   9.952 -0.3846 -0.0668  0.4711
21988SOL    HW172825   4.066   8.535  10.038 -0.7947  0.0817  0.5439
21988SOL    HW272826   3.949   8.473   9.965 -0.0240 -1.2742  0.4350
21989SOL     OW72827   4.342   1.212   0.954 -0.3401  0.9751  0.1367
21989SOL    HW172828   4.366   1.175   0.869 -0.7924  1.4261 -0.1955
21989SOL    HW272829   4.364   1.143   1.017  1.1231  1.0931 -0.2168
21990SOL     OW72830   7.640   9.549   3.895  0.0170  0.2666  0.8960
21990SOL    HW172831   7.598   9.496   3.963 -1.9011 -0.3646 -0.7005
21990SOL    HW272832   7.647   9.490   3.820  1.0167  1.2975  0.1486
21991SOL     OW72833   3.313   3.936   4.509 -0.1477 -0.1115 -0.1453
21991SOL    HW172834   3.283   3.921   4.419 -0.3421 -0.8345  0.0306
21991SOL    HW272835   3.236   3.971   4.554 -0.2051 -0.2544 -0.1317
21992SOL     OW72836  10.881   2.344   9.598  0.0227 -0.1484 -0.0329
21992SOL    HW172837  10.925   2.386   9.673  2.5680 -0.9470 -0.9503
21992SOL    HW272838  10.807   2.401   9.578  2.5891  3.3591 -0.4902
21993SOL     OW72839   2.472   4.799   1.733 -0.5075  0.3245 -0.1383
21993SOL    HW172840   2.459   4.893   1.747  0.0889  0.2210  1.3020
21993SOL    HW272841   2.483   4.790   1.639  2.5376  2.1737 -0.1190
21994SOL     OW72842   3.039   9.417   6.659 -0.8789  0.4652  0.3636
21994SOL    HW172843   3.014   9.409   6.567  0.7122 -0.3167 -0.0319
21994SOL    HW272844   3.134   9.423   6.658 -0.8961  1.7072  1.9012
21995SOL     OW72845  11.449   5.344   8.030 -0.7523 -0.6023 -0.7121
21995SOL    HW172846  11.477   5.252   8.027 -0.4134 -0.5502  0.4914
21995SOL    HW272847  11.518   5.389   8.078 -0.4142  0.5008 -2.1538
21996SOL     OW72848  11.887   8.439  10.325  0.0884  0.2316 -0.4362
21996SOL    HW172849  11.954   8.507  10.338  0.7231 -0.2712 -1.0350
21996SOL    HW272850  11.928   8.359  10.358 -0.9794  0.2787  1.0898
21997SOL     OW72851   7.215   6.829   1.623 -0.1348  0.1823 -0.3394
21997SOL    HW172852   7.310   6.830   1.635  0.1303 -3.3741 -0.9650
21997SOL    HW272853   7.183   6.769   1.692 -1.6481 -0.1992 -1.3289
21998SOL     OW72854   8.722   4.693   5.369 -0.2255 -0.3411 -0.1732
21998SOL    HW172855   8.653   4.664   5.429 -0.1011 -0.6788 -0.1919
21998SOL    HW272856   8.768   4.762   5.417  2.0073 -2.8140  1.5349
21999SOL     OW72857   8.442   6.019   5.689 -0.2063  0.0725  0.2621
21999SOL    HW172858   8.490   6.074   5.627  0.9192  1.0132  1.8690
21999SOL    HW272859   8.509   5.963   5.728 -0.6912  0.2212  1.3414
22000SOL     OW72860   0.984   6.061   0.487 -0.1575  0.2706 -0.2913
22000SOL    HW172861   1.059   6.118   0.471 -0.5972  1.0697  0.4134
22000SOL    HW272862   0.907   6.117   0.474 -0.6097 -0.2676 -0.0016
22001SOL     OW72863  11.066   6.112   1.398 -0.1756 -0.4018 -0.3576
22001SOL    HW172864  11.065   6.149   1.310 -1.8127  1.4869  0.3687
22001SOL    HW272865  11.016   6.175   1.451  1.4056 -1.0584  2.0886
22002SOL     OW72866   7.697   1.855   0.700 -0.5786  0.0340 -0.5277
22002SOL    HW172867   7.637   1.793   0.659 -0.3444 -1.3353  1.1180
22002SOL    HW272868   7.640   1.915   0.748 -0.7018 -0.6190  0.1596
22003SOL     OW72869   4.606   0.611   8.298  0.2379 -0.1567  0.2070
22003SOL    HW172870   4.637   0.529   8.334 -0.1319 -0.5195 -0.2733
22003SOL    HW272871   4.511   0.606   8.306  0.0861 -0.5363 -1.3436
22004SOL     OW72872   4.453  12.344   3.677 -0.6678 -0.1253  0.0377
22004SOL    HW172873   4.462  12.325   3.770 -2.0516 -0.7131  0.0734
22004SOL    HW272874   4.525  12.297   3.636 -0.9613 -1.1589  0.6685
22005SOL     OW72875   0.772  10.578   9.893 -0.3919 -0.1513 -0.1683
22005SOL    HW172876   0.695  10.598   9.947 -0.8016 -2.0307  0.0264
22005SOL    HW272877   0.754  10.490   9.858  1.3356 -0.3173 -0.7275
22006SOL     OW72878  12.431  11.201   7.086 -0.1922 -0.4534 -0.5721
22006SOL    HW172879  12.352  11.229   7.131  0.8330  2.3383 -0.2796
22006SOL    HW272880  12.463  11.126   7.136 -0.2299  1.2394  2.1678
22007SOL     OW72881   5.488   5.207   6.894  0.1854 -0.0799  0.3994
22007SOL    HW172882   5.446   5.147   6.956  2.2550 -0.4144  1.5924
22007SOL    HW272883   5.477   5.293   6.933  0.4687 -0.1560  0.6582
22008SOL     OW72884  10.147   9.962   9.926 -0.5366 -0.1783  0.5231
22008SOL    HW172885  10.080   9.956   9.858  0.5103 -2.4138 -0.4192
22008SOL    HW272886  10.110  10.022   9.991 -3.2588 -1.0027 -0.1359
22009SOL     OW72887   5.893  10.671  11.840  0.0358  0.5447  0.4438
22009SOL    HW172888   5.871  10.756  11.802 -1.1780  0.9449  1.9397
22009SOL    HW272889   5.819  10.615  11.819  0.1536  0.2788  0.7234
22010SOL     OW72890  11.931   0.454   0.710 -0.0350 -0.1678 -0.1001
22010SOL    HW172891  11.841   0.486   0.720  0.3481  0.8512  0.2818
22010SOL    HW272892  11.922   0.369   0.668 -1.1423  0.2553 -0.7683
22011SOL     OW72893   9.994   7.429   7.848  0.2516  0.4368 -0.0450
22011SOL    HW172894   9.987   7.514   7.893 -1.4859  0.3215 -0.0107
22011SOL    HW272895  10.008   7.366   7.918 -3.4240  0.1288  0.6310
22012SOL     OW72896  12.393   7.097   0.515  0.3691  0.1793 -0.3094
22012SOL    HW172897  12.403   7.024   0.576  0.8549  0.2532 -0.2973
22012SOL    HW272898  12.471   7.150   0.529  0.2876  0.4044 -0.7170
22013SOL     OW72899   8.254   6.043   4.964  0.2980 -0.4711 -0.5502
22013SOL    HW172900   8.214   6.034   4.878  1.2010 -1.1033 -0.9188
22013SOL    HW272901   8.256   5.954   4.999  0.2070 -0.2627 -0.0049
22014SOL     OW72902  10.147   0.761   0.551  0.0169  0.4602 -0.6987
22014SOL    HW172903  10.139   0.855   0.535 -0.7045  0.3361 -1.1108
22014SOL    HW272904  10.153   0.723   0.464 -0.0858  0.0923 -0.5439
22015SOL     OW72905  11.524   9.293   0.314  0.2998 -0.1339 -0.3120
22015SOL    HW172906  11.508   9.241   0.235  0.7940  0.0816 -0.5629
22015SOL    HW272907  11.449   9.275   0.371  0.5148 -1.2006 -0.3475
22016SOL     OW72908  10.799   7.371   4.173 -0.0161  0.4901  0.8939
22016SOL    HW172909  10.829   7.394   4.261 -2.8245  1.5478  1.7007
22016SOL    HW272910  10.804   7.276   4.169  2.4382  0.5447  1.2305
22017SOL     OW72911   2.054   6.048  10.180 -0.2477 -0.2968 -0.5585
22017SOL    HW172912   2.014   6.113  10.122  0.4588 -0.0738 -0.8052
22017SOL    HW272913   1.997   6.047  10.257  1.2387  2.7451  0.7552
22018SOL     OW72914   1.345   6.393   0.163 -0.1639  0.5575 -0.1811
22018SOL    HW172915   1.274   6.446   0.128 -0.7063  1.3234  1.9413
22018SOL    HW272916   1.410   6.457   0.193 -0.0748 -0.0256  0.8998
22019SOL     OW72917  11.018  11.712   7.822 -0.2736 -0.5008  0.2336
22019SOL    HW172918  11.089  11.760   7.864 -0.9494  0.6236  0.1250
22019SOL    HW272919  11.052  11.623   7.811  0.9849 -0.0669  0.4869
22020SOL     OW72920   5.123  12.241  12.189  0.1062  0.2965 -0.0781
22020SOL    HW172921   5.144  12.188  12.266  0.1796  1.1195  0.4920
22020SOL    HW272922   5.027  12.247  12.189  0.1097  0.3644  0.0074
22021SOL     OW72923   2.634   6.129   8.713 -0.4268 -0.2267 -0.1467
22021SOL    HW172924   2.680   6.046   8.720 -1.0091 -0.5518 -0.1854
22021SOL    HW272925   2.698   6.188   8.672  0.3623 -0.3550  0.8350
22022SOL     OW72926   7.169   0.072   4.331 -0.0017  0.0720  0.3681
22022SOL    HW172927   7.218   0.016   4.272 -1.7820 -0.4632 -0.6602
22022SOL    HW272928   7.130   0.139   4.275 -0.2599  0.6289  1.1847
22023SOL     OW72929   7.168   0.902   5.810  0.1550  0.1670  0.2287
22023SOL    HW172930   7.224   0.923   5.735  1.2667  0.0261  0.9905
22023SOL    HW272931   7.079   0.917   5.779  0.6961  3.6789 -0.0851
22024SOL     OW72932   6.199  11.495   3.840  0.2094 -0.0854 -0.5655
22024SOL    HW172933   6.239  11.456   3.918  2.7117 -0.3430 -1.8640
22024SOL    HW272934   6.158  11.421   3.795  0.2004 -0.2355 -0.3156
22025SOL     OW72935   2.311   6.256   4.262  0.3603 -0.1860  0.7544
22025SOL    HW172936   2.380   6.321   4.277  0.7195 -0.3207 -0.2450
22025SOL    HW272937   2.242   6.304   4.215  0.5236 -0.4582  0.2256
22026SOL     OW72938   5.110   1.055   8.448 -0.3931  0.2371 -0.0912
22026SOL    HW172939   5.159   1.137   8.436 -1.7442  1.1934  0.6438
22026SOL    HW272940   5.177   0.987   8.452  0.7745  1.3226 -0.5442
22027SOL     OW72941   9.223   8.626   5.347  0.1728 -0.1001 -0.1571
22027SOL    HW172942   9.151   8.574   5.384  0.9398 -1.9105 -1.0788
22027SOL    HW272943   9.286   8.561   5.316  0.2930  1.3202 -3.2307
22028SOL     OW72944  10.827   1.875   9.532  0.5611  0.0561  0.0160
22028SOL    HW172945  10.772   1.951   9.515  0.1192 -0.2213  0.2055
22028SOL    HW272946  10.829   1.866   9.627  0.7851 -0.0438  0.0053
22029SOL     OW72947  11.948  10.732   2.342 -0.1223 -0.0955  0.2542
22029SOL    HW172948  11.911  10.779   2.416 -0.2216  2.1288 -1.1173
22029SOL    HW272949  11.903  10.647   2.342  0.5139 -0.5167  3.1691
22030SOL     OW72950   5.318  11.426   5.795 -0.0123  0.2839 -0.3047
22030SOL    HW172951   5.313  11.484   5.871  1.4030 -0.0964  0.1108
22030SOL    HW272952   5.235  11.439   5.749 -0.4442  1.3184  0.7239
22031SOL     OW72953   6.202  12.222   5.642 -0.6549  0.0417 -0.1038
22031SOL    HW172954   6.250  12.141   5.660 -0.6665 -0.5654 -2.4569
22031SOL    HW272955   6.114  12.205   5.677 -0.3958 -0.5801  0.2748
22032SOL     OW72956   0.195   8.728   3.097 -0.2195 -0.7931  0.5149
22032SOL    HW172957   0.165   8.792   3.161  1.3700 -0.6192  1.1484
22032SOL    HW272958   0.120   8.671   3.082 -1.0879  0.1115  1.3605
22033SOL     OW72959  11.138   2.985   2.256 -0.4260  0.0688 -0.0718
22033SOL    HW172960  11.094   2.916   2.306  0.8161 -2.4640 -2.1745
22033SOL    HW272961  11.072   3.014   2.193 -1.0006  0.9742  0.9125
22034SOL     OW72962   3.718   6.868   9.394  0.4519 -0.1238  0.4401
22034SOL    HW172963   3.641   6.848   9.446  1.7756 -3.1126  1.4789
22034SOL    HW272964   3.756   6.945   9.437 -1.5029  0.9803  0.3106
22035SOL     OW72965   4.848   1.532   2.104  0.0018 -0.0665 -0.1954
22035SOL    HW172966   4.853   1.612   2.157 -0.4900 -0.6116  0.6806
22035SOL    HW272967   4.899   1.467   2.153 -2.3683 -1.2394  0.8579
22036SOL     OW72968  11.682   0.687   6.491 -0.0287 -0.3984  0.4173
22036SOL    HW172969  11.652   0.606   6.531  0.1868 -0.3929  0.5963
22036SOL    HW272970  11.777   0.674   6.479  0.4959  0.7429  2.7131
22037SOL     OW72971   7.998  10.103   4.470  0.1562  0.2563  0.0657
22037SOL    HW172972   7.955  10.168   4.414  2.8475  1.0065 -1.2898
22037SOL    HW272973   8.052  10.154   4.530  2.9650 -0.5714 -1.5599
22038SOL     OW72974   4.785  11.426   9.170  0.2648  0.4536 -0.1799
22038SOL    HW172975   4.765  11.343   9.215 -0.4683  0.5712 -0.2635
22038SOL    HW272976   4.755  11.493   9.231 -0.2748  0.6252 -0.6204
22039SOL     OW72977   9.623  12.094   9.438  0.0839 -0.3911  0.1129
22039SOL    HW172978   9.719  12.096   9.438  0.0729  0.3306  0.4845
22039SOL    HW272979   9.601  12.049   9.520  0.1058 -0.5242  0.0448
22040SOL     OW72980   7.784   3.385  10.600  0.4149 -0.0206  0.0590
22040SOL    HW172981   7.802   3.465  10.650 -1.4002  0.0066  0.7162
22040SOL    HW272982   7.727   3.414  10.529  0.5726 -0.5765 -0.3004
22041SOL     OW72983   1.112   8.284  12.375 -0.0324  0.4442 -0.3012
22041SOL    HW172984   1.052   8.277  12.301 -0.0478  0.9655 -0.3466
22041SOL    HW272985   1.192   8.321  12.337 -0.8432  3.0795  0.3109
22042SOL     OW72986  10.976   0.518  10.865 -0.0300 -0.0224  0.4637
22042SOL    HW172987  11.064   0.535  10.832 -0.5787  1.8994 -0.1334
22042SOL    HW272988  10.990   0.488  10.955  1.2320  0.1194  0.3358
22043SOL     OW72989   5.991   9.665  12.269  0.3036 -0.1861  0.1921
22043SOL    HW172990   5.911   9.612  12.273  0.3166 -0.1391  1.5504
22043SOL    HW272991   6.058   9.609  12.308  0.5467  0.4087  0.6488
22044SOL     OW72992   1.053  10.747   5.509 -0.3973  0.2995  0.2227
22044SOL    HW172993   1.120  10.680   5.519 -0.4667  0.0522 -0.8200
22044SOL    HW272994   1.101  10.826   5.487 -0.4890 -0.1539 -1.7552
22045SOL     OW72995  11.561   1.755   7.071 -0.4469  0.3247 -0.2827
22045SOL    HW172996  11.644   1.769   7.025  0.5062  1.9160  1.7561
22045SOL    HW272997  11.568   1.666   7.105  0.5004  0.4957 -0.0048
22046SOL     OW72998   0.670   8.450   5.221 -0.0407 -0.4770  0.4392
22046SOL    HW172999   0.689   8.358   5.205  0.6499 -0.3086  0.2204
22046SOL    HW273000   0.652   8.455   5.315  1.1071 -0.6535  0.6819
22047SOL     OW73001  10.299   6.379   4.674  0.3266 -0.1103  0.0740
22047SOL    HW173002  10.333   6.457   4.717  1.5392  0.2776 -1.4831
22047SOL    HW273003  10.268   6.410   4.589  0.1430 -1.2085 -0.2750
22048SOL     OW73004  11.026  10.338   7.285  0.3219 -0.4103 -0.4345
22048SOL    HW173005  10.973  10.393   7.228 -0.1025 -0.7567 -0.3729
22048SOL    HW273006  11.018  10.250   7.248  1.7315 -0.3073 -1.0831
22049SOL     OW73007   4.878  12.163   3.047  0.3702  0.0852  0.0974
22049SOL    HW173008   4.869  12.224   3.120 -2.6990 -0.3303  0.2063
22049SOL    HW273009   4.891  12.078   3.089 -1.8398 -0.2222  0.2729
22050SOL     OW73010   9.806   4.478   1.907  0.0177  0.2120  0.0096
22050SOL    HW173011   9.855   4.433   1.975  0.9795  0.4219 -0.5199
22050SOL    HW273012   9.836   4.569   1.912  0.8879  0.0293 -1.3533
22051SOL     OW73013   3.943   6.726   4.903  0.2475 -0.0408  0.2484
22051SOL    HW173014   3.896   6.677   4.835  2.2021  0.2179 -1.3832
22051SOL    HW273015   3.884   6.798   4.925 -0.7188 -0.5257 -0.6430
22052SOL     OW73016   7.165   8.849   6.218  0.2321 -0.9400  0.6544
22052SOL    HW173017   7.084   8.797   6.210  0.4762 -1.2667  0.2979
22052SOL    HW273018   7.179   8.856   6.313 -1.1147  0.5310  0.7892
22053SOL     OW73019   7.277   8.666   0.945 -0.5361 -0.1091  0.1731
22053SOL    HW173020   7.245   8.748   0.982 -0.6831 -0.0488 -0.0852
22053SOL    HW273021   7.210   8.641   0.881 -1.2985 -1.2382  1.3449
22054SOL     OW73022   2.545  10.020   8.998 -1.0730  0.7664 -0.0231
22054SOL    HW173023   2.572   9.929   8.986 -1.9776  0.4161  0.5101
22054SOL    HW273024   2.564  10.061   8.913 -1.3115 -0.0899 -0.5103
22055SOL     OW73025  10.223   0.199   7.842  0.1564 -0.2983 -0.0926
22055SOL    HW173026  10.187   0.241   7.764 -0.5466 -0.6366  0.0468
22055SOL    HW273027  10.237   0.108   7.816 -0.6000 -0.5475  0.3287
22056SOL     OW73028   1.625  10.518   4.602 -0.2528 -0.4064  1.1656
22056SOL    HW173029   1.646  10.536   4.510  0.2777  1.0607  1.5362
22056SOL    HW273030   1.559  10.584   4.625 -0.3614 -0.7379  1.8508
22057SOL     OW73031   6.518  10.705   9.167  0.3854  0.2752 -0.2821
22057SOL    HW173032   6.530  10.755   9.248  0.8921  1.0408 -0.8202
22057SOL    HW273033   6.447  10.644   9.187  0.6173  0.3390  0.7931
22058SOL     OW73034  10.331   2.966   0.181 -0.0411  0.2904  0.1679
22058SOL    HW173035  10.380   2.944   0.102 -0.3109  0.9702 -0.1882
22058SOL    HW273036  10.248   2.918   0.173  0.3241 -0.4180  0.5099
22059SOL     OW73037   2.954   7.271   0.095 -0.5117 -0.1837  0.1061
22059SOL    HW173038   2.997   7.298   0.013 -3.1998  0.8437 -1.1018
22059SOL    HW273039   2.934   7.178   0.082  0.4339 -0.4148  0.2654
22060SOL     OW73040   1.766  11.101   9.695  0.3900  0.3430  0.0721
22060SOL    HW173041   1.759  11.033   9.629 -1.8024  0.4892  0.0871
22060SOL    HW273042   1.722  11.177   9.657 -1.1105  0.3736  1.6987
22061SOL     OW73043   8.585   4.596  11.828  0.1141 -0.2628  0.0044
22061SOL    HW173044   8.652   4.550  11.778 -0.0272 -0.4646 -0.0046
22061SOL    HW273045   8.610   4.584  11.919  1.2614  1.4821 -0.0515
22062SOL     OW73046   8.822  11.045   7.890  0.0965  0.9602 -0.5069
22062SOL    HW173047   8.751  11.003   7.939 -0.0757  1.7413 -0.0731
22062SOL    HW273048   8.859  11.109   7.951  0.8542  0.9074 -0.8998
22063SOL     OW73049  11.433   6.852   6.539 -0.1803  0.0959  0.0110
22063SOL    HW173050  11.370   6.922   6.556 -0.7045 -0.0340 -1.2917
22063SOL    HW273051  11.426   6.835   6.445  0.6906 -0.9910  0.1161
22064SOL     OW73052   5.819   0.643   9.380 -0.5559 -0.5701  0.2281
22064SOL    HW173053   5.728   0.623   9.358 -0.3738  0.8850 -2.3089
22064SOL    HW273054   5.827   0.737   9.363  1.3119 -0.5742  0.8875
22065SOL     OW73055  12.025   4.472   7.684 -0.1137 -0.2514 -0.0950
22065SOL    HW173056  12.071   4.553   7.662  0.1687  0.1871  1.8579
22065SOL    HW273057  11.954   4.500   7.742 -2.2484 -1.0403 -2.1612
22066SOL     OW73058   1.501   6.622   8.256  0.0145 -0.1414  0.0532
22066SOL    HW173059   1.457   6.541   8.283 -0.4683 -0.0813 -0.5161
22066SOL    HW273060   1.442   6.659   8.190  1.1362 -0.2838 -1.0646
22067SOL     OW73061   4.746   7.704   9.279 -0.1752 -0.4671  0.2291
22067SOL    HW173062   4.663   7.739   9.246 -0.0773  0.0017  0.4652
22067SOL    HW273063   4.811   7.733   9.216 -0.0995 -0.2444  0.4041
22068SOL     OW73064   8.897   7.637   0.108 -0.2998  0.5626 -0.2176
22068SOL    HW173065   8.841   7.560   0.114 -0.9428  1.0521  0.2357
22068SOL    HW273066   8.860   7.698   0.172  0.5268  1.0382 -0.1833
22069SOL     OW73067   9.674   6.352   2.621 -0.0616  0.2376 -0.2798
22069SOL    HW173068   9.629   6.414   2.679  2.2151  0.7258  1.0597
22069SOL    HW273069   9.720   6.406   2.558 -0.3553 -0.2269 -0.9103
22070SOL     OW73070   7.905  11.243  10.163  0.3605 -0.3291  0.2567
22070SOL    HW173071   7.986  11.289  10.185  1.3129 -1.4772 -0.6696
22070SOL    HW273072   7.934  11.169  10.110 -1.0402 -2.3809  2.1923
22071SOL     OW73073   3.199  10.179   7.693 -0.2502  0.1742  0.1822
22071SOL    HW173074   3.253  10.189   7.772  0.0523 -1.7287  0.2779
22071SOL    HW273075   3.252  10.123   7.636 -1.0430  0.4284 -0.8075
22072SOL     OW73076   3.630   0.730   8.681  0.2420  0.1808  0.2858
22072SOL    HW173077   3.652   0.722   8.773  0.4317 -1.2674  0.1372
22072SOL    HW273078   3.674   0.656   8.639  1.6659  1.8076 -1.2597
22073SOL     OW73079   4.147   3.008  12.190  0.0572  0.2553 -0.0678
22073SOL    HW173080   4.067   2.987  12.143  1.1083 -0.5902 -1.5710
22073SOL    HW273081   4.197   3.064  12.130  3.1330 -3.8870 -1.8550
22074SOL     OW73082   5.706   7.331   3.234 -0.1208  0.2580 -0.4919
22074SOL    HW173083   5.736   7.403   3.178 -1.3869  1.0123 -0.2251
22074SOL    HW273084   5.636   7.290   3.185 -0.7883  0.5030  0.2390
22075SOL     OW73085  10.431   0.783   7.804 -0.3421  0.4709 -0.0427
22075SOL    HW173086  10.406   0.754   7.892  1.8993  1.8474  1.1199
22075SOL    HW273087  10.471   0.706   7.764 -1.0089 -0.0505  0.2631
22076SOL     OW73088   1.614   1.053   9.672 -0.7499  0.3391  0.0616
22076SOL    HW173089   1.621   1.085   9.582  0.3681 -1.4352 -0.5316
22076SOL    HW273090   1.552   0.979   9.666  0.7025 -0.9582  0.3560
22077SOL     OW73091   6.378   5.282   2.100  0.3195 -0.6878  0.0730
22077SOL    HW173092   6.397   5.333   2.179 -0.8569  0.7837 -0.5386
22077SOL    HW273093   6.355   5.195   2.132  2.5190 -0.9354  1.1559
22078SOL     OW73094  11.674   7.474   1.813  0.2285  0.2502  0.1360
22078SOL    HW173095  11.747   7.416   1.788  0.3973  0.2025  0.7301
22078SOL    HW273096  11.597   7.417   1.811  0.0171  0.5382 -1.5356
22079SOL     OW73097   4.798  11.445   0.095 -0.6821  0.1760 -0.0418
22079SOL    HW173098   4.830  11.488   0.174 -1.2751  1.0664 -0.2616
22079SOL    HW273099   4.844  11.490   0.024 -1.5359  0.6753 -0.2925
22080SOL     OW73100   8.511   1.240  11.085 -0.3259  0.5381  0.0984
22080SOL    HW173101   8.561   1.159  11.099  1.4994  1.9330  2.4583
22080SOL    HW273102   8.442   1.236  11.152 -0.5701  0.6905 -0.1443
22081SOL     OW73103   4.171  10.463  12.017 -0.5471  0.0543 -0.1401
22081SOL    HW173104   4.258  10.426  12.005  0.2661  1.6279  0.5138
22081SOL    HW273105   4.118  10.392  12.053  0.2220 -1.1753 -1.3764
22082SOL     OW73106   4.011  11.466  12.195 -0.0650 -0.2207  0.2754
22082SOL    HW173107   3.921  11.500  12.198  0.2171  0.9273 -1.9485
22082SOL    HW273108   4.038  11.478  12.104  2.4039 -0.4202  0.9053
22083SOL     OW73109   8.064   8.606  11.185  0.1223  0.1263 -0.0140
22083SOL    HW173110   8.045   8.673  11.250 -1.0604  1.7682 -1.9178
22083SOL    HW273111   8.157   8.617  11.166  1.4557 -2.6661  3.6849
22084SOL     OW73112   8.401   2.746   6.912  0.1247 -0.2023 -0.4604
22084SOL    HW173113   8.340   2.714   6.845  0.7026 -2.3698 -0.0162
22084SOL    HW273114   8.466   2.796   6.863 -0.4409 -0.2419 -1.2822
22085SOL     OW73115   6.227   9.991   7.507  0.4187  0.0651 -0.4220
22085SOL    HW173116   6.297  10.042   7.467  1.5853 -0.6809  0.5885
22085SOL    HW273117   6.174   9.959   7.433  0.7671  1.1505 -1.1565
22086SOL     OW73118   5.973  10.679   5.629 -0.1307 -0.1807  0.5101
22086SOL    HW173119   5.911  10.751   5.614 -0.6877 -1.0815 -1.8582
22086SOL    HW273120   6.027  10.676   5.550  0.2721 -1.9706  0.8059
22087SOL     OW73121  10.773  11.149   8.374  0.0476  0.4479  0.1952
22087SOL    HW173122  10.748  11.058   8.389  2.3581 -0.3227 -0.2123
22087SOL    HW273123  10.790  11.184   8.462 -0.1905  0.2896  0.3064
22088SOL     OW73124  10.688   3.784  10.250 -0.1047  0.5692  0.0277
22088SOL    HW173125  10.766   3.825  10.214  1.0800 -1.5520  0.0636
22088SOL    HW273126  10.712   3.761  10.340 -1.4563  1.6202  0.6946
22089SOL     OW73127   3.759   7.588  11.364  0.2544  0.4572  0.1478
22089SOL    HW173128   3.676   7.552  11.331  0.4066 -0.8928  1.1539
22089SOL    HW273129   3.768   7.551  11.452  0.8355  2.3851  0.9461
22090SOL     OW73130   7.180   4.813   1.270 -0.0395  0.2182 -0.1905
22090SOL    HW173131   7.174   4.771   1.355  1.1194  1.0616  0.3331
22090SOL    HW273132   7.095   4.798   1.229 -0.7829  0.2401  1.3145
22091SOL     OW73133   3.980   2.913   7.803  0.0541 -0.6362 -0.0154
22091SOL    HW173134   4.016   2.979   7.863  1.2344 -2.5254  1.4664
22091SOL    HW273135   3.885   2.923   7.811  0.1982 -0.0354  1.2355
22092SOL     OW73136   2.158   4.906   8.736  0.0398  0.0320  0.4508
22092SOL    HW173137   2.184   4.978   8.793  0.3396  1.8364 -1.8150
22092SOL    HW273138   2.089   4.943   8.680 -0.1384 -1.5876 -0.4737
22093SOL     OW73139   9.875   4.168   7.785  0.6618 -0.6605 -0.3221
22093SOL    HW173140   9.827   4.235   7.834 -0.2226 -2.3638  1.2292
22093SOL    HW273141   9.942   4.137   7.846  1.1175 -1.1258 -1.0496
22094SOL     OW73142   6.053  11.876   2.431 -0.5346 -0.0189  0.1306
22094SOL    HW173143   6.048  11.918   2.517  1.0996  0.0069  0.2433
22094SOL    HW273144   6.135  11.907   2.394 -0.5518 -1.0964 -0.8668
22095SOL     OW73145   2.496   9.619   2.184 -0.5955 -0.6372  0.5931
22095SOL    HW173146   2.586   9.627   2.214 -0.8881 -1.3072  1.6961
22095SOL    HW273147   2.473   9.707   2.154  0.7778 -0.7086 -0.8157
22096SOL     OW73148   9.345   9.906  12.357 -0.4818 -0.2662  0.2929
22096SOL    HW173149   9.397   9.826  12.367 -2.3051 -1.2439  3.0522
22096SOL    HW273150   9.404   9.977  12.382  0.7640 -0.8379 -0.9132
22097SOL     OW73151   2.098  12.117  11.164  0.0812 -0.1823 -0.0997
22097SOL    HW173152   2.155  12.184  11.125 -0.0199 -0.4934 -0.8021
22097SOL    HW273153   2.157  12.051  11.198  0.1521 -0.3136 -0.4757
22098SOL     OW73154  11.193   0.233   4.723  0.0240  0.4691 -0.6390
22098SOL    HW173155  11.265   0.286   4.688  1.0974  0.4508  1.3910
22098SOL    HW273156  11.224   0.143   4.715  0.2611  0.4631  0.2726
22099SOL     OW73157   9.714   3.671   8.980  0.2833 -0.3459 -0.3016
22099SOL    HW173158   9.670   3.656   8.897  0.0485 -1.3161 -0.0109
22099SOL    HW273159   9.765   3.751   8.966  0.5559 -0.7109 -1.4931
22100SOL     OW73160   3.751   0.371   9.666 -0.0465  0.0312 -0.4079
22100SOL    HW173161   3.841   0.338   9.672  0.6483  1.6490 -1.2271
22100SOL    HW273162   3.719   0.337   9.583 -0.2418 -0.6199 -0.0749
22101SOL     OW73163  11.931   8.147   1.162 -0.4938  0.5430 -0.1900
22101SOL    HW173164  11.852   8.201   1.155 -1.6588 -0.8614  1.2579
22101SOL    HW273165  11.950   8.144   1.256  0.8588  0.2648 -0.4543
22102SOL     OW73166   1.497  10.282   2.533  0.0255  0.0441  0.9557
22102SOL    HW173167   1.508  10.205   2.588 -2.7636  0.1757  1.8629
22102SOL    HW273168   1.404  10.281   2.508  0.3281  2.1086 -0.5265
22103SOL     OW73169   5.083   0.634   3.797  0.6492 -0.3270 -0.5060
22103SOL    HW173170   5.069   0.539   3.805  2.7753 -0.5523  1.7891
22103SOL    HW273171   5.124   0.645   3.711 -1.5875 -1.1210 -1.7770
22104SOL     OW73172   2.031   3.757   2.905  0.0006  0.1736  0.1275
22104SOL    HW173173   2.124   3.758   2.928  0.2382  1.9886 -0.6895
22104SOL    HW273174   1.989   3.814   2.969 -0.5287 -0.5120  0.3994
22105SOL     OW73175   7.745  11.993  10.722 -0.0178 -0.0110  0.0721
22105SOL    HW173176   7.695  11.961  10.647 -1.5134  2.8465 -0.3151
22105SOL    HW273177   7.683  11.991  10.795  0.3105  0.5122  0.3771
22106SOL     OW73178   0.407   7.844   7.312  0.1738 -0.2372  0.4943
22106SOL    HW173179   0.337   7.888   7.265  0.4955 -2.3011 -2.1454
22106SOL    HW273180   0.363   7.779   7.367 -0.0801 -0.8209 -0.3730
22107SOL     OW73181   8.040   5.940   2.464  0.0802  0.0098  0.1156
22107SOL    HW173182   8.091   5.928   2.384 -0.7453 -1.9960 -0.1766
22107SOL    HW273183   8.103   5.928   2.535  0.5038  0.1283 -0.2397
22108SOL     OW73184   0.473  11.521   9.037 -0.6134  0.7559  0.0632
22108SOL    HW173185   0.381  11.508   9.063 -0.5734  1.4063  0.5387
22108SOL    HW273186   0.472  11.505   8.942 -1.6311  2.6883 -0.3189
22109SOL     OW73187  10.532   4.643   2.099 -0.0220 -0.0608  0.3040
22109SOL    HW173188  10.513   4.717   2.158 -1.3230 -1.5036  1.8017
22109SOL    HW273189  10.627   4.633   2.104  0.2513  1.7853 -0.3152
22110SOL     OW73190   5.033   2.743  10.950 -0.1593 -0.5730  0.2372
22110SOL    HW173191   5.056   2.762  11.041 -0.8162 -1.7852  0.6778
22110SOL    HW273192   5.111   2.699  10.914 -0.0074 -0.3541  0.2999
22111SOL     OW73193   6.398   1.884  12.101 -0.1483 -0.1993  0.3643
22111SOL    HW173194   6.414   1.791  12.085  1.2130  0.0487  0.2022
22111SOL    HW273195   6.470   1.913  12.157  0.9332  1.3179 -1.6642
22112SOL     OW73196  11.489  12.080   4.877  0.1651  0.2152 -0.0007
22112SOL    HW173197  11.410  12.030   4.858  0.2770  0.0806 -0.1111
22112SOL    HW273198  11.459  12.151   4.934  0.0176 -0.0057  0.1966
22113SOL     OW73199   8.834   6.082   1.638  0.0024  0.3445  0.9304
22113SOL    HW173200   8.797   6.124   1.560 -0.0970 -2.8717 -0.9256
22113SOL    HW273201   8.758   6.042   1.681  0.5612 -1.8394  0.0068
22114SOL     OW73202   0.140   2.249   3.583  0.2236  0.0226 -0.1000
22114SOL    HW173203   0.113   2.340   3.577  1.1593  0.6076  2.9813
22114SOL    HW273204   0.066   2.204   3.625  0.8669 -0.0123  1.0244
22115SOL     OW73205   9.941   7.339  12.167 -0.4755  0.3418  0.2359
22115SOL    HW173206   9.976   7.251  12.182 -1.2740 -0.3873 -1.8571
22115SOL    HW273207  10.002   7.397  12.213  0.9288 -1.1878  0.3891
22116SOL     OW73208   2.880   3.215   1.799  0.2982 -0.0462 -0.2686
22116SOL    HW173209   2.872   3.122   1.817 -0.1603 -0.1355 -0.8831
22116SOL    HW273210   2.792   3.250   1.817  0.3870  0.2110 -0.3367
22117SOL     OW73211   3.974   6.512  10.674 -0.0764  0.6448 -0.0753
22117SOL    HW173212   4.065   6.494  10.695  0.9700  1.8341 -3.0378
22117SOL    HW273213   3.924   6.472  10.745  2.6957 -0.6064  1.3050
22118SOL     OW73214   4.976   4.572  10.564  0.2753 -0.4291  0.4656
22118SOL    HW173215   5.021   4.572  10.649  1.8422 -1.2680 -0.3292
22118SOL    HW273216   4.980   4.481  10.534 -0.8187 -0.2676 -0.2556
22119SOL     OW73217   7.442   1.108   4.238 -0.0672 -0.0391 -0.1338
22119SOL    HW173218   7.372   1.125   4.301 -0.7390 -0.0287 -0.8776
22119SOL    HW273219   7.479   1.194   4.219  0.3021 -0.0672  0.4182
22120SOL     OW73220   4.379  12.245   1.018 -0.4588 -0.1496  0.1209
22120SOL    HW173221   4.348  12.317   0.963 -0.4312  1.3581  1.9957
22120SOL    HW273222   4.464  12.276   1.051 -0.0849 -1.3872  0.3531
22121SOL     OW73223   9.589   3.435   5.917 -0.1427 -0.0865 -0.2565
22121SOL    HW173224   9.618   3.388   5.838  0.3853 -0.1312 -0.0447
22121SOL    HW273225   9.532   3.504   5.884  1.8360  1.3142 -0.9134
22122SOL     OW73226   9.552   9.992  10.772 -0.1423  0.0735 -0.2396
22122SOL    HW173227   9.608  10.067  10.790  1.6621 -1.0213 -1.0206
22122SOL    HW273228   9.575   9.928  10.839 -0.5644 -0.3560 -0.4969
22123SOL     OW73229  11.686   6.520  12.205  0.3740 -0.3643  0.4073
22123SOL    HW173230  11.719   6.610  12.215  0.3072 -0.2844 -0.0659
22123SOL    HW273231  11.667   6.512  12.112 -1.3672 -0.2735  0.7312
22124SOL     OW73232  11.304   1.837   7.354 -0.2074 -0.6722  0.3209
22124SOL    HW173233  11.215   1.828   7.320  0.0521  0.5665 -0.7441
22124SOL    HW273234  11.355   1.870   7.281  0.6877  0.6764  1.4940
22125SOL     OW73235   0.066  10.334   5.742  0.3824  0.2990 -0.5441
22125SOL    HW173236   0.142  10.360   5.690 -0.1477  1.2148 -0.8707
22125SOL    HW273237   0.005  10.295   5.679 -0.6157  2.1706 -0.7984
22126SOL     OW73238   7.660   7.269  12.375 -0.3597  0.6223  0.0812
22126SOL    HW173239   7.719   7.294  12.446 -1.7031  2.2150  0.6956
22126SOL    HW273240   7.610   7.195  12.410 -0.0681  0.5069  0.2613
22127SOL     OW73241   1.671   6.750   0.686  0.1873  0.4161 -1.1492
22127SOL    HW173242   1.708   6.773   0.771 -2.5440 -1.1967  0.6752
22127SOL    HW273243   1.706   6.663   0.667  0.8278  0.7928 -1.7083
22128SOL     OW73244   5.132   1.887   4.477  0.3411 -0.3943 -0.1567
22128SOL    HW173245   5.064   1.952   4.496 -0.2929 -0.7783 -1.0218
22128SOL    HW273246   5.158   1.905   4.387  1.0091 -0.5982 -0.0108
22129SOL     OW73247   9.369   3.033   2.702  0.5970  0.2470  0.4179
22129SOL    HW173248   9.351   3.015   2.609 -1.0207  2.1172  0.2872
22129SOL    HW273249   9.462   3.055   2.704  0.6874  0.0663 -0.7438
22130SOL     OW73250   3.597   0.852   1.939  0.4375 -0.0236  0.4764
22130SOL    HW173251   3.524   0.894   1.986  0.1796  0.9030 -0.7072
22130SOL    HW273252   3.635   0.922   1.887 -0.2109 -1.3052 -1.8476
22131SOL     OW73253  11.474  12.149   2.517 -0.3669  0.0464  0.2072
22131SOL    HW173254  11.498  12.058   2.503  1.3910  0.6479 -1.0783
22131SOL    HW273255  11.465  12.158   2.612  0.2121 -1.2734  0.4044
22132SOL     OW73256   0.293   1.465   4.478 -0.2338 -0.0686 -0.8216
22132SOL    HW173257   0.352   1.400   4.440  0.6040 -0.2385  0.7011
22132SOL    HW273258   0.350   1.535   4.508 -0.9878  0.6305 -0.9713
22133SOL     OW73259   8.885   4.625  12.336 -0.1597 -0.0856  0.6048
22133SOL    HW173260   8.941   4.639  12.412  0.3347 -1.1713  0.4652
22133SOL    HW273261   8.945   4.602  12.266 -0.7884 -1.8651  0.6017
22134SOL     OW73262   7.688  10.005   3.915 -0.2493  0.5980  0.5161
22134SOL    HW173263   7.638  10.086   3.928 -0.6694  0.4063  0.1226
22134SOL    HW273264   7.749  10.002   3.989  1.3777  2.4441 -0.6540
22135SOL     OW73265  10.881  10.090   2.442 -0.0729 -0.2291 -0.2171
22135SOL    HW173266  10.893  10.166   2.498 -1.5502  1.2919 -1.8119
22135SOL    HW273267  10.817  10.036   2.488 -2.4583  1.7476 -0.9950
22136SOL     OW73268  11.189   1.084   1.894  0.0231  0.0699  0.0127
22136SOL    HW173269  11.133   1.161   1.893  0.0317  0.1588  1.8875
22136SOL    HW273270  11.135   1.016   1.935  0.5106 -0.4972 -0.2753
22137SOL     OW73271   8.395   9.635   8.900  0.4784  0.0892  0.4896
22137SOL    HW173272   8.463   9.645   8.833 -0.1312 -1.0513 -0.3347
22137SOL    HW273273   8.414   9.704   8.964  0.8313  1.4788 -1.0484
22138SOL     OW73274   3.479   4.005   9.292 -0.6582 -0.5733  0.4170
22138SOL    HW173275   3.398   4.021   9.244  0.3510  0.4963 -1.0460
22138SOL    HW273276   3.521   4.091   9.297  0.3455 -1.0850  1.2254
22139SOL     OW73277   2.311   7.791   1.253  0.2349 -0.6130 -0.0212
22139SOL    HW173278   2.279   7.853   1.319  2.7119  0.8747 -0.1164
22139SOL    HW273279   2.238   7.783   1.191 -0.0002  2.8096 -0.3910
22140SOL     OW73280   0.934  10.982  11.765 -0.3492 -0.2633 -0.3125
22140SOL    HW173281   0.924  11.059  11.709 -0.3604 -0.9086 -1.2266
22140SOL    HW273282   0.890  11.005  11.847 -0.0018  0.8393 -0.4323
22141SOL     OW73283   5.675   0.483   5.732  0.1920 -0.1152  0.2010
22141SOL    HW173284   5.580   0.483   5.727  0.1009 -0.8301  1.4225
22141SOL    HW273285   5.695   0.529   5.814  0.8708 -0.3615  0.1842
22142SOL     OW73286   8.797   5.753   4.867 -0.0443  0.2434 -0.0788
22142SOL    HW173287   8.828   5.664   4.882  0.0410  0.5570  1.7961
22142SOL    HW273288   8.874   5.808   4.876 -0.1793  0.5616 -0.7744
22143SOL     OW73289  11.857   0.335  10.455  0.0509 -0.2198 -0.7770
22143SOL    HW173290  11.918   0.267  10.481 -0.0048  0.1113  0.2450
22143SOL    HW273291  11.910   0.415  10.449 -0.2384  0.0323 -0.0588
22144SOL     OW73292   4.701   7.086   6.258 -0.0287 -0.2961 -0.3322
22144SOL    HW173293   4.724   7.003   6.217 -0.8117 -0.9303  0.4884
22144SOL    HW273294   4.724   7.152   6.192  0.4956 -1.1530 -1.0362
22145SOL     OW73295   6.799   4.861   1.566 -0.1549  0.1614  0.5890
22145SOL    HW173296   6.814   4.803   1.492 -0.5061 -0.4097  0.9569
22145SOL    HW273297   6.870   4.924   1.562  0.5531 -0.6335  0.5059
22146SOL     OW73298  11.793  11.416   5.694 -0.1527 -0.4666  0.4915
22146SOL    HW173299  11.771  11.334   5.737  0.0942 -0.3576  0.8295
22146SOL    HW273300  11.856  11.458   5.752 -0.1226 -0.1295  0.2235
22147SOL     OW73301   6.949   9.863   9.805 -0.4764 -0.1019 -0.5862
22147SOL    HW173302   6.960   9.936   9.745 -0.5590 -0.9822 -1.7000
22147SOL    HW273303   6.875   9.813   9.770 -0.4106 -0.7350  0.1406
22148SOL     OW73304   7.753   1.054   2.854  0.0092 -0.0199 -0.1377
22148SOL    HW173305   7.737   1.019   2.941 -1.5031  2.0984  0.5175
22148SOL    HW273306   7.672   1.098   2.830  0.5985 -0.0118 -2.3766
22149SOL     OW73307   6.838   9.515   8.207  0.2504  0.0858  0.3544
22149SOL    HW173308   6.789   9.527   8.288  0.6046 -0.5651  0.6780
22149SOL    HW273309   6.881   9.600   8.192  2.3528 -0.5154  2.3287
22150SOL     OW73310  10.905  10.829   2.555  0.0814  0.6747 -0.2137
22150SOL    HW173311  10.921  10.843   2.461  0.7274 -0.8337 -0.3534
22150SOL    HW273312  10.810  10.818   2.562  0.2008 -1.1418 -0.9990
22151SOL     OW73313   1.404   8.439   8.615  0.1984 -0.1943  0.4082
22151SOL    HW173314   1.344   8.379   8.658 -1.0958  0.7180 -0.0698
22151SOL    HW273315   1.484   8.434   8.668 -0.3800 -1.1952  1.2425
22152SOL     OW73316   0.959   6.487   5.428 -0.2709  0.2430  0.6708
22152SOL    HW173317   1.021   6.556   5.453 -0.1216  0.4170 -0.1457
22152SOL    HW273318   0.873   6.529   5.433 -0.2307  0.3165  0.7523
22153SOL     OW73319   9.575   1.124   7.028  0.4406 -0.2227 -0.2897
22153SOL    HW173320   9.479   1.130   7.035  0.5272 -0.9283  2.9110
22153SOL    HW273321   9.608   1.195   7.082  1.7527 -0.1615 -1.1281
22154SOL     OW73322  10.064   1.061   4.439 -0.2734  0.3170  0.1897
22154SOL    HW173323  10.011   0.982   4.426  2.2071 -1.1529 -1.9347
22154SOL    HW273324  10.007   1.133   4.413 -1.9971 -0.9292  0.3221
22155SOL     OW73325  12.257   7.381   5.718 -0.0219  0.0811  0.0543
22155SOL    HW173326  12.213   7.447   5.665 -1.0007 -0.6223 -0.0344
22155SOL    HW273327  12.236   7.404   5.808 -1.1197 -0.6149 -0.0131
22156SOL     OW73328  10.568   5.055   5.163  0.6014 -0.2569 -0.0174
22156SOL    HW173329  10.577   4.963   5.186 -0.8433 -0.2924  0.5145
22156SOL    HW273330  10.543   5.098   5.245 -1.6697  0.1067 -0.8359
22157SOL     OW73331   1.407   3.713   5.980 -0.0267 -0.0089  0.1376
22157SOL    HW173332   1.328   3.684   6.024 -0.8455  2.2080  0.2458
22157SOL    HW273333   1.474   3.651   6.007 -1.2855 -0.7608  1.6559
22158SOL     OW73334  12.434   3.442   9.647  0.4209  0.1189 -0.3198
22158SOL    HW173335  12.524   3.427   9.676  0.6713  0.9662 -0.6312
22158SOL    HW273336  12.403   3.356   9.619  1.1632 -0.1642 -0.2808
22159SOL     OW73337   2.835   5.030   5.084  0.3402  0.1140 -0.4131
22159SOL    HW173338   2.893   5.046   5.158 -0.1225 -1.8027  0.4251
22159SOL    HW273339   2.833   4.935   5.075 -0.8273  0.2402 -1.9178
22160SOL     OW73340  11.953  11.611   1.149  0.2011  0.3045  0.0398
22160SOL    HW173341  11.956  11.705   1.132  1.3556  0.1185 -0.8933
22160SOL    HW273342  11.865  11.596   1.183 -0.4359  1.5286 -0.9712
22161SOL     OW73343  10.137   0.130  12.195  0.7102 -0.2832 -0.0248
22161SOL    HW173344  10.134   0.151  12.102 -1.5202  3.8428  0.7507
22161SOL    HW273345  10.048   0.101  12.216  0.9942 -0.5006  0.9485
22162SOL     OW73346   4.812   3.874   4.212  0.3657 -0.2111  0.0352
22162SOL    HW173347   4.806   3.825   4.130 -3.3307 -0.4672  0.3031
22162SOL    HW273348   4.766   3.820   4.276  0.1963  1.5238  1.4606
22163SOL     OW73349   4.849   9.474   6.567  0.0254 -0.2024 -0.5680
22163SOL    HW173350   4.861   9.481   6.472 -0.7243  0.9204 -0.6102
22163SOL    HW273351   4.804   9.391   6.580  0.7804 -0.7081 -1.1210
22164SOL     OW73352   9.114   7.734   5.775 -0.2510  0.5003  0.3320
22164SOL    HW173353   9.185   7.677   5.745  0.5783  1.5875  0.1523
22164SOL    HW273354   9.067   7.757   5.695 -0.3978  0.3168  0.3654
22165SOL     OW73355   1.167   8.793   3.361 -0.7705  0.6569 -0.3104
22165SOL    HW173356   1.093   8.759   3.410  0.2817  1.1542  1.7033
22165SOL    HW273357   1.146   8.772   3.269 -2.2962 -1.2585  0.3988
22166SOL     OW73358   0.753  10.136   0.226 -0.0607  0.0417  0.2272
22166SOL    HW173359   0.724  10.047   0.246  0.0409 -0.0393  0.0222
22166SOL    HW273360   0.739  10.185   0.307  0.6856 -0.3593  0.6041
22167SOL     OW73361   8.090   5.282   4.012 -0.7430 -0.0749 -0.0557
22167SOL    HW173362   8.062   5.364   3.973  0.0491 -0.3947 -1.3627
22167SOL    HW273363   8.015   5.253   4.064 -2.8137 -0.7567 -3.1412
22168SOL     OW73364  10.232   5.406   4.613 -0.7070  0.1116 -0.1719
22168SOL    HW173365  10.170   5.425   4.684  0.3168 -0.7380  0.9966
22168SOL    HW273366  10.293   5.343   4.651  0.8338  0.8638 -1.3126
22169SOL     OW73367   2.065   7.437   1.853  0.5637 -0.4027  1.2660
22169SOL    HW173368   2.039   7.355   1.895 -0.7351 -0.0649  1.1747
22169SOL    HW273369   2.159   7.429   1.839  0.4672 -1.8293  1.3494
22170SOL     OW73370   0.770   3.572   9.682  0.1806 -0.0139  0.6397
22170SOL    HW173371   0.808   3.498   9.635 -1.0989 -0.1008 -0.3542
22170SOL    HW273372   0.817   3.576   9.765  0.3155 -1.9072  0.6947
22171SOL     OW73373   2.157   5.287  11.852  0.2393 -0.3043  0.2369
22171SOL    HW173374   2.129   5.323  11.768 -0.8851  1.2526  1.2266
22171SOL    HW273375   2.246   5.255  11.836  0.5116  1.0586 -1.2431
22172SOL     OW73376   5.235   1.610   5.845 -0.7755  0.0310  0.2867
22172SOL    HW173377   5.280   1.613   5.930  3.1247 -0.1312 -1.5360
22172SOL    HW273378   5.223   1.702   5.822  1.7134  0.2351 -0.5242
22173SOL     OW73379   9.382   2.625  12.297 -0.0154  0.6279  0.3145
22173SOL    HW173380   9.378   2.551  12.358  3.5922  0.8101  1.0117
22173SOL    HW273381   9.328   2.598  12.223  0.8550 -2.6187  0.7003
22174SOL     OW73382  11.294   6.894   5.804  0.4980 -0.1308  0.2510
22174SOL    HW173383  11.207   6.927   5.782 -0.5633 -0.9796  2.8370
22174SOL    HW273384  11.351   6.971   5.801 -0.8611  0.9385  0.9663
22175SOL     OW73385  11.804   2.241   0.423 -0.3675 -0.6001 -0.1771
22175SOL    HW173386  11.719   2.245   0.380  0.9511 -0.2402 -2.9575
22175SOL    HW273387  11.809   2.152   0.459 -1.6866 -0.7879 -0.4302
22176SOL     OW73388   1.070   3.698   0.742 -0.0944  0.1544  0.2678
22176SOL    HW173389   1.074   3.605   0.766  1.8345  0.0553 -0.2245
22176SOL    HW273390   0.977   3.717   0.732 -0.4724 -2.1347 -1.1624
22177SOL     OW73391   6.840   4.687   2.962 -0.0150 -0.0607  0.3013
22177SOL    HW173392   6.838   4.661   3.054  0.4969  0.1789  0.3824
22177SOL    HW273393   6.816   4.607   2.914 -2.4818  0.3523  0.7234
22178SOL     OW73394   2.984   8.927   4.860  0.2339 -0.3687  0.2685
22178SOL    HW173395   2.997   8.882   4.943 -0.1936 -0.5892  0.2177
22178SOL    HW273396   2.890   8.945   4.857  0.4723  1.0523  0.5613
22179SOL     OW73397   6.654   3.796   3.528  0.2282 -0.3557  0.5890
22179SOL    HW173398   6.670   3.712   3.571 -0.2676  1.1311  4.0549
22179SOL    HW273399   6.559   3.803   3.525  0.2626  0.2566  0.7882
22180SOL     OW73400   4.773   1.577   9.606  0.0847 -0.0781  0.4088
22180SOL    HW173401   4.785   1.484   9.625  3.7002  0.0585 -0.5154
22180SOL    HW273402   4.722   1.578   9.525 -3.6166 -0.9581  2.4476
22181SOL     OW73403   5.088   4.900   6.321  0.1528 -0.0439  0.0519
22181SOL    HW173404   5.114   4.815   6.355  0.9168 -0.4538 -1.5038
22181SOL    HW273405   5.135   4.910   6.238 -2.4816  0.4040 -1.5257
22182SOL     OW73406   3.024   9.694   9.071 -0.1957 -0.2866 -0.0220
22182SOL    HW173407   2.971   9.709   9.149  1.6809 -0.5985  1.3744
22182SOL    HW273408   3.028   9.599   9.062  0.2041 -0.2671 -0.0643
22183SOL     OW73409   2.307   5.041   9.968 -0.0022  0.1485 -0.1349
22183SOL    HW173410   2.399   5.030   9.995  0.4341  0.5275 -1.4000
22183SOL    HW273411   2.257   4.994  10.034  0.9337  1.7936  1.8626
22184SOL     OW73412  10.608   8.455   0.165  0.0328  0.2133 -0.0802
22184SOL    HW173413  10.607   8.362   0.190 -0.7181 -0.1435 -1.3724
22184SOL    HW273414  10.696   8.469   0.129  0.2734  0.1061  0.4502
22185SOL     OW73415   1.734   0.338  10.612  0.3444  0.0429  0.1780
22185SOL    HW173416   1.730   0.280  10.688  0.1582  0.6160  0.6125
22185SOL    HW273417   1.644   0.340  10.577  0.1342  0.7934  0.7256
22186SOL     OW73418  12.283   9.690  10.817  0.5679 -0.4391  0.1676
22186SOL    HW173419  12.262   9.719  10.906  1.0258 -0.3295  0.2440
22186SOL    HW273420  12.295   9.596  10.824 -0.5516 -0.6048 -0.0072
22187SOL     OW73421  10.354   6.063   1.004  0.5612 -0.0259 -0.1053
22187SOL    HW173422  10.296   6.099   1.071  0.3984 -1.5868  0.6371
22187SOL    HW273423  10.297   6.047   0.929  0.1775 -0.7794  0.3343
22188SOL     OW73424  10.092  10.857  10.871  0.3856  0.4954  0.1740
22188SOL    HW173425  10.088  10.866  10.966 -2.4463 -0.5462  0.2503
22188SOL    HW273426  10.170  10.906  10.845  1.8546 -0.1016  3.1005
22189SOL     OW73427   8.591   7.357  12.218 -0.2220  0.0829 -0.1035
22189SOL    HW173428   8.543   7.430  12.179  0.6425  0.6651 -0.1065
22189SOL    HW273429   8.523   7.301  12.255 -0.9088  0.8394 -0.1840
22190SOL     OW73430  12.205   0.248   3.983 -0.1973  0.2924 -0.4228
22190SOL    HW173431  12.245   0.212   3.904 -0.0049  0.9872 -0.6431
22190SOL    HW273432  12.161   0.173   4.023 -0.8251  0.0614 -1.5011
22191SOL     OW73433   6.566   2.949   7.962  0.1666  0.4298 -0.3588
22191SOL    HW173434   6.542   3.035   7.998  1.2709  0.9359 -0.7870
22191SOL    HW273435   6.610   2.969   7.879  1.5129 -0.4536  0.1006
22192SOL     OW73436   1.679  10.083   9.233  0.0331 -0.0413  0.3059
22192SOL    HW173437   1.601  10.104   9.284  1.4315  1.7829  1.8602
22192SOL    HW273438   1.671  10.137   9.154 -0.6724 -0.5519  0.0145
22193SOL     OW73439   3.781   0.578  12.314  0.0656  0.6091  0.5881
22193SOL    HW173440   3.751   0.556  12.225 -0.9608  3.0284  0.2622
22193SOL    HW273441   3.871   0.545  12.317 -0.5053 -1.2621 -0.6317
22194SOL     OW73442   8.429  11.419   8.218 -0.2483  0.1628  0.1124
22194SOL    HW173443   8.417  11.361   8.143 -0.0617  2.9863 -2.3160
22194SOL    HW273444   8.390  11.502   8.190  1.6158  1.9373  2.3602
22195SOL     OW73445   8.217   9.872   1.101 -0.0430  0.5650 -0.0959
22195SOL    HW173446   8.266   9.954   1.097 -0.1276  0.7221  1.5445
22195SOL    HW273447   8.141   9.887   1.045  0.1727  1.4338 -0.1727
22196SOL     OW73448   9.814   4.331   7.053 -0.0366  0.2610 -0.6850
22196SOL    HW173449   9.879   4.374   7.109 -0.1495  0.7666 -0.9355
22196SOL    HW273450   9.735   4.385   7.062 -0.9996 -1.2966  0.9891
22197SOL     OW73451   0.598   5.985   2.099 -0.0253  0.3067 -0.3598
22197SOL    HW173452   0.570   5.895   2.118  0.5959 -0.2082 -1.6913
22197SOL    HW273453   0.572   6.035   2.176 -0.3536 -1.0202  0.4361
22198SOL     OW73454   8.541  10.283   7.907 -0.1810 -0.0830 -0.2536
22198SOL    HW173455   8.536  10.253   7.998  0.1064  0.6293  0.0048
22198SOL    HW273456   8.599  10.219   7.864  1.0503  0.5034  0.4709
22199SOL     OW73457   6.433   5.571   9.608  0.1035  0.1470  0.3396
22199SOL    HW173458   6.364   5.579   9.674  1.0355 -0.2918  1.4122
22199SOL    HW273459   6.505   5.528   9.654  2.3034  3.3503  0.2729
22200SOL     OW73460   7.742   8.377   7.132 -0.5668  0.5322  0.0678
22200SOL    HW173461   7.715   8.286   7.123 -2.7115  1.1955 -0.9560
22200SOL    HW273462   7.728   8.415   7.045  0.0774  1.8942  0.5295
22201SOL     OW73463   2.643  11.511   9.967  0.0758 -0.1488 -0.1149
22201SOL    HW173464   2.676  11.455  10.038  0.8611  1.3707  0.7767
22201SOL    HW273465   2.618  11.450   9.898  3.2361 -1.5834 -0.2049
22202SOL     OW73466   0.950   1.995   2.505  0.3674  0.3143  0.4373
22202SOL    HW173467   0.964   2.085   2.533 -1.7791  0.5958  0.8216
22202SOL    HW273468   1.019   1.978   2.441  0.4902  2.4236 -0.0488
22203SOL     OW73469   2.351   3.461   1.102  0.4935 -0.5444 -0.2768
22203SOL    HW173470   2.279   3.432   1.158 -1.7343 -0.3057 -2.7608
22203SOL    HW273471   2.369   3.386   1.046  2.4082 -0.6696  0.4440
22204SOL     OW73472   2.943  10.509   5.072  0.3493  0.1349 -0.2954
22204SOL    HW173473   2.848  10.499   5.063  0.2270  0.8415  0.1551
22204SOL    HW273474   2.971  10.539   4.985  0.2110 -0.4114 -0.5325
22205SOL     OW73475  10.802   9.289   2.130 -0.2081  0.6392 -0.3104
22205SOL    HW173476  10.855   9.256   2.058 -0.0958  0.7108 -0.2618
22205SOL    HW273477  10.835   9.243   2.207 -1.1924 -0.4133 -0.4822
22206SOL     OW73478   7.660   8.292   5.679 -0.5193  0.8254  0.1030
22206SOL    HW173479   7.753   8.315   5.670 -0.2007  0.3878  1.8402
22206SOL    HW273480   7.614   8.376   5.677 -0.2315  0.9846 -1.8369
22207SOL     OW73481   1.766   5.348   4.316  0.2459  0.0930  0.8834
22207SOL    HW173482   1.751   5.435   4.277 -0.3291 -0.0823  0.7184
22207SOL    HW273483   1.856   5.354   4.350 -0.0523  1.0101  1.5574
22208SOL     OW73484  11.305   8.774   8.811  0.4103 -0.0273  0.2818
22208SOL    HW173485  11.346   8.716   8.748  2.0362 -1.4612  2.4936
22208SOL    HW273486  11.364   8.773   8.887 -2.4639 -0.3196  2.7413
22209SOL     OW73487   1.856  11.077   8.208  0.2242  0.5173 -0.3323
22209SOL    HW173488   1.805  11.046   8.284 -0.6235 -0.5591 -1.3068
22209SOL    HW273489   1.941  11.035   8.218  0.1312  0.4138  0.0576
22210SOL     OW73490  11.628   3.079   4.867  0.2658  0.1605 -0.5353
22210SOL    HW173491  11.698   3.100   4.928 -0.4616  3.7681 -0.7147
22210SOL    HW273492  11.581   3.162   4.855 -2.9968 -1.6669 -1.7302
22211SOL     OW73493   1.944   7.289   9.495 -0.2686 -0.0284 -0.6728
22211SOL    HW173494   1.980   7.378   9.494 -1.3997  0.4507 -0.0846
22211SOL    HW273495   1.915   7.276   9.586 -1.7329 -0.3252 -1.1627
22212SOL     OW73496   1.851   7.709   2.340  0.2829  0.6500  0.8497
22212SOL    HW173497   1.811   7.778   2.392  0.1641  2.3233 -1.3195
22212SOL    HW273498   1.777   7.658   2.307  0.3401 -0.1838  1.9576
22213SOL     OW73499   1.270   8.226  10.042  0.3503 -0.4829 -0.9973
22213SOL    HW173500   1.278   8.144   9.993  1.3844 -1.1921  0.2822
22213SOL    HW273501   1.175   8.239  10.052  0.1570 -0.9980 -2.0270
22214SOL     OW73502   0.776   4.317   7.699  0.1817  0.5495  0.1367
22214SOL    HW173503   0.690   4.287   7.730  0.0033  1.9235  1.0573
22214SOL    HW273504   0.827   4.329   7.779  0.3923  2.1667 -0.2150
22215SOL     OW73505   5.317   8.031   8.643 -0.2632  0.1274 -0.1179
22215SOL    HW173506   5.319   8.103   8.707 -0.6519 -0.9367  1.1250
22215SOL    HW273507   5.224   8.015   8.628 -0.1901  0.7152 -1.4103
22216SOL     OW73508   3.895   3.780   6.142  0.1841 -0.3486  0.4726
22216SOL    HW173509   3.943   3.835   6.204  1.9708 -0.9509 -0.3108
22216SOL    HW273510   3.963   3.737   6.090 -1.2196 -1.3143 -0.6531
22217SOL     OW73511  12.032  11.196   2.119  0.3666  0.4238 -0.7602
22217SOL    HW173512  12.001  11.234   2.037  1.8765 -0.1539 -1.6125
22217SOL    HW273513  11.983  11.114   2.128 -1.3991  1.4896  0.0651
22218SOL     OW73514  12.054   3.011   2.822 -0.8877  0.5543 -0.3493
22218SOL    HW173515  12.059   2.933   2.876  1.2661 -0.6194 -2.1100
22218SOL    HW273516  12.138   3.055   2.835 -1.7003  2.1268 -0.1069
22219SOL     OW73517  10.388   4.878   0.800  0.0084 -0.2587 -0.3386
22219SOL    HW173518  10.468   4.835   0.828  0.9126  0.9860 -0.9140
22219SOL    HW273519  10.319   4.837   0.853  0.8632 -2.0355 -0.5459
22220SOL     OW73520   8.058   1.644   4.558  0.5230  0.7428  0.2521
22220SOL    HW173521   8.142   1.611   4.527 -0.1908 -0.7781 -0.1771
22220SOL    HW273522   8.021   1.689   4.482 -0.7847 -2.1278 -0.9695
22221SOL     OW73523   1.898   8.375   8.571 -0.0208 -0.1357  0.1483
22221SOL    HW173524   1.913   8.433   8.497 -0.7254 -0.3431 -0.1664
22221SOL    HW273525   1.955   8.409   8.640 -0.7357  1.2063  0.1176
22222SOL     OW73526  10.586   3.157  11.640 -0.1255  0.4359  0.3527
22222SOL    HW173527  10.502   3.111  11.643 -0.9679  1.8972 -0.0235
22222SOL    HW273528  10.569   3.240  11.683  1.1559  0.7312  0.3099
22223SOL     OW73529   6.980   0.495   2.255 -0.3532  0.7773 -0.1278
22223SOL    HW173530   6.956   0.587   2.257 -0.4530  0.7450  1.8506
22223SOL    HW273531   6.949   0.459   2.339 -0.1933 -1.0203 -0.7793
22224SOL     OW73532   8.554   6.865   6.401 -0.1510 -0.6742 -0.3044
22224SOL    HW173533   8.527   6.785   6.356  0.6996 -1.7839  1.0550
22224SOL    HW273534   8.541   6.935   6.337 -2.0794 -1.7168 -1.1389
22225SOL     OW73535   5.502  12.243  10.093  0.2437  0.0343 -0.9157
22225SOL    HW173536   5.469  12.333  10.100  1.1498  0.4373 -1.7357
22225SOL    HW273537   5.568  12.236  10.162 -1.7412 -0.9211  1.0502
22226SOL     OW73538   5.342   4.077   9.096  0.3224 -0.3471  0.5897
22226SOL    HW173539   5.285   4.049   9.168 -0.1414  1.1773  0.8462
22226SOL    HW273540   5.281   4.110   9.029  0.8478  0.2790  0.4132
22227SOL     OW73541   7.566  10.866   9.664  0.1463  1.0023  0.4864
22227SOL    HW173542   7.597  10.806   9.732  1.4060  1.4209  0.3020
22227SOL    HW273543   7.478  10.835   9.644  0.0064  0.4486  1.8169
22228SOL     OW73544   1.950   7.502   2.525  0.1720  1.1392 -0.1466
22228SOL    HW173545   1.904   7.573   2.481 -1.3632  0.3771  0.1818
22228SOL    HW273546   1.952   7.431   2.462 -0.4933  0.6369  0.3913
22229SOL     OW73547   3.713   5.834   4.149  0.6598 -0.5912  0.9741
22229SOL    HW173548   3.764   5.792   4.218 -1.2343 -1.1888  2.0949
22229SOL    HW273549   3.663   5.762   4.109 -0.6421  0.1922  1.1407
22230SOL     OW73550   1.247   5.359   4.335  0.4186 -0.1341  0.4215
22230SOL    HW173551   1.221   5.309   4.258 -0.0907 -1.0167  1.1487
22230SOL    HW273552   1.213   5.447   4.319 -0.5751 -0.5600  0.0769
22231SOL     OW73553   2.567   9.061   6.727 -0.1882 -0.1355 -0.0678
22231SOL    HW173554   2.617   8.980   6.741 -0.0092 -0.3340 -1.6649
22231SOL    HW273555   2.568   9.074   6.632 -2.7308  0.1381 -0.1370
22232SOL     OW73556  11.988  11.058  12.325 -0.1490 -0.7310  0.6900
22232SOL    HW173557  11.967  11.047  12.418 -1.9210 -0.2930  0.3886
22232SOL    HW273558  11.910  11.100  12.288 -0.1842 -2.3913 -1.3210
22233SOL     OW73559   5.541   8.106   9.886  0.1671  0.6576  0.3288
22233SOL    HW173560   5.516   8.116   9.794 -0.9457  0.0387  0.5543
22233SOL    HW273561   5.599   8.030   9.887  0.6800  1.0370  0.0593
22234SOL     OW73562   6.788   1.062   3.126  0.1393  0.2131 -0.8906
22234SOL    HW173563   6.802   1.150   3.163  0.4488 -0.3095  0.2580
22234SOL    HW273564   6.698   1.040   3.150  1.0102 -1.0458  1.6431
22235SOL     OW73565  10.299  10.066  10.489 -0.3686  0.4463 -0.1101
22235SOL    HW173566  10.319   9.988  10.438 -0.1739  0.6789 -0.3933
22235SOL    HW273567  10.381  10.087  10.534 -0.5409  0.2377  0.3081
22236SOL     OW73568   6.159   6.554   8.278 -0.3368 -0.2923 -0.5532
22236SOL    HW173569   6.142   6.504   8.358 -1.4782 -1.7113 -1.6295
22236SOL    HW273570   6.120   6.640   8.294 -1.2140 -0.8086  0.1500
22237SOL     OW73571  11.934  12.200   5.394  0.0836  0.6126 -0.0880
22237SOL    HW173572  11.965  12.113   5.366  0.6586  0.6554  0.3899
22237SOL    HW273573  11.870  12.225   5.327 -0.0576 -0.1602 -0.2574
22238SOL     OW73574  11.783   2.384   0.097  0.3428 -0.4383 -0.9370
22238SOL    HW173575  11.809   2.293   0.084 -0.0941 -0.2714 -3.6993
22238SOL    HW273576  11.689   2.381   0.110  0.4003 -0.3967 -0.4858
22239SOL     OW73577   4.408  10.250   5.279  0.3211 -0.7450  0.1822
22239SOL    HW173578   4.326  10.277   5.237  0.9004  0.1838 -0.3817
22239SOL    HW273579   4.475  10.262   5.212  1.1475 -0.0491  1.1002
22240SOL     OW73580   1.047   9.642  10.847 -0.6757 -0.3616  0.1193
22240SOL    HW173581   1.127   9.589  10.849 -0.5017 -0.1018  0.1060
22240SOL    HW273582   1.040   9.671  10.756  0.1403  1.0014  0.4517
22241SOL     OW73583   5.923  11.711   7.615 -0.2121 -0.2979  0.1165
22241SOL    HW173584   5.986  11.777   7.643 -1.9723  1.4349  0.2131
22241SOL    HW273585   5.904  11.733   7.524  0.4436 -1.7845 -0.4213
22242SOL     OW73586   6.064   7.954   4.126  0.3157 -0.0534 -0.7629
22242SOL    HW173587   5.975   7.934   4.095  0.6287  0.3624 -1.9745
22242SOL    HW273588   6.056   7.955   4.222 -1.0454  0.2419 -0.8600
22243SOL     OW73589   6.401  11.843   4.202 -0.9153 -0.3775  0.1967
22243SOL    HW173590   6.457  11.899   4.148  2.3300 -2.2655  1.2955
22243SOL    HW273591   6.378  11.770   4.145 -1.9653  0.1874 -0.1248
22244SOL     OW73592  10.903   5.893   8.912 -0.5743 -0.0911  0.3045
22244SOL    HW173593  10.912   5.802   8.941  1.2816  0.3217  1.1401
22244SOL    HW273594  10.961   5.900   8.837  1.0820  0.9333  1.6145
22245SOL     OW73595   9.991   1.307   1.042 -0.4278 -0.2163 -0.1333
22245SOL    HW173596   9.941   1.226   1.036 -1.6983  0.6022 -1.4807
22245SOL    HW273597  10.035   1.314   0.957  0.8237 -0.1723  0.4925
22246SOL     OW73598   0.137   5.000  11.662  0.1124  0.2248  0.4292
22246SOL    HW173599   0.206   4.940  11.691  0.9447  1.2321  0.5946
22246SOL    HW273600   0.116   5.051  11.740 -0.8296 -0.0496  0.3765
22247SOL     OW73601   1.726   6.776   0.245 -0.0497 -0.0374  0.6876
22247SOL    HW173602   1.758   6.695   0.204 -0.1525 -0.8784  2.1788
22247SOL    HW273603   1.699   6.831   0.171  1.0019 -0.9317 -0.4155
22248SOL     OW73604   6.944   1.242   2.071 -0.2492  0.0292 -0.4252
22248SOL    HW173605   6.918   1.325   2.111 -1.5182  0.1606 -1.4455
22248SOL    HW273606   6.905   1.244   1.984  1.6778 -0.6231 -1.3666
22249SOL     OW73607   9.696   3.539  10.637 -0.1952  0.1714 -0.2267
22249SOL    HW173608   9.788   3.529  10.662 -0.1570  0.1941 -0.3551
22249SOL    HW273609   9.664   3.611  10.690  1.1108  3.3837 -3.3709
22250SOL     OW73610   4.388  10.907   2.662  0.9691  0.0956 -0.5091
22250SOL    HW173611   4.360  10.833   2.609 -0.1018 -0.1609  0.3693
22250SOL    HW273612   4.484  10.906   2.657  0.9122 -0.2781 -1.9101
22251SOL     OW73613  11.783   8.257   5.011  0.1027 -0.0463 -0.0479
22251SOL    HW173614  11.756   8.339   4.969  1.6024 -0.4397 -1.8886
22251SOL    HW273615  11.701   8.219   5.044 -0.4115  3.3380  3.1977
22252SOL     OW73616   6.457   7.086  12.357  0.3541  0.2713 -0.1650
22252SOL    HW173617   6.440   7.160  12.415  0.3869  0.6924 -0.6904
22252SOL    HW273618   6.464   7.124  12.270  3.0666  0.0181 -0.1271
22253SOL     OW73619   3.249   0.472  12.407  0.1400 -0.3769  0.9159
22253SOL    HW173620   3.344   0.458  12.402  0.1344 -0.3821  0.8075
22253SOL    HW273621   3.232   0.489  12.499  0.1359 -1.1508  1.0631
22254SOL     OW73622   3.886   9.497   6.668  0.2622 -0.0858  0.5558
22254SOL    HW173623   3.956   9.432   6.675  0.4681  0.1772  0.9571
22254SOL    HW273624   3.837   9.489   6.750 -0.4419 -0.5648  0.0991
22255SOL     OW73625   4.733   7.655   0.256 -0.3128 -0.0196  0.1169
22255SOL    HW173626   4.810   7.666   0.311  0.6153 -2.2143 -0.6184
22255SOL    HW273627   4.767   7.649   0.167 -1.1939 -1.7682 -0.1601
22256SOL     OW73628   0.779   5.887   8.995 -0.0344 -0.8355  0.3970
22256SOL    HW173629   0.874   5.882   9.008  0.0955  1.2113  0.5835
22256SOL    HW273630   0.767   5.959   8.934 -1.5401 -0.2059  1.3748
22257SOL     OW73631   1.040   5.533   9.553 -0.4373  0.1726 -0.3546
22257SOL    HW173632   1.105   5.487   9.500  0.4061 -0.0813  0.8683
22257SOL    HW273633   1.038   5.486   9.636 -0.5660  1.5114  0.4336
22258SOL     OW73634  11.492   6.393  11.007 -0.3453 -0.8838 -0.2245
22258SOL    HW173635  11.521   6.421  10.920  0.7934  0.7930  0.6510
22258SOL    HW273636  11.480   6.298  10.998  1.8286 -1.1004 -1.6461
22259SOL     OW73637  11.512   4.854  11.706 -0.1249  0.2742 -0.6454
22259SOL    HW173638  11.495   4.800  11.783 -0.2930  1.6866  0.3460
22259SOL    HW273639  11.440   4.833  11.646 -0.4307 -0.2708 -0.0977
22260SOL     OW73640   1.725   7.771   3.085 -0.1452  0.4876 -0.3681
22260SOL    HW173641   1.640   7.786   3.044 -0.2696 -0.2835 -0.3986
22260SOL    HW273642   1.759   7.859   3.101 -0.7224  0.8014 -0.8177
22261SOL     OW73643   8.836   1.569   2.989  0.5433  0.1638  0.3906
22261SOL    HW173644   8.857   1.500   3.051 -2.2920 -0.1785  1.1087
22261SOL    HW273645   8.892   1.553   2.914  1.2386 -1.8023  1.2867
22262SOL     OW73646   4.998   9.935  12.019  0.0900 -0.1043  0.0368
22262SOL    HW173647   4.917   9.955  12.066  0.0989  0.0156  0.0014
22262SOL    HW273648   4.996   9.994  11.943 -0.4754 -1.0684 -0.7290
22263SOL     OW73649   0.747  11.402  11.257  0.1821  0.4936 -0.0487
22263SOL    HW173650   0.684  11.359  11.315 -1.4881  0.5255 -1.7388
22263SOL    HW273651   0.817  11.338  11.246  1.1294  0.8992  2.7848
22264SOL     OW73652   3.556   7.612   6.251  0.5779  0.5781 -0.0184
22264SOL    HW173653   3.630   7.639   6.196  1.3942 -0.2112  0.6423
22264SOL    HW273654   3.523   7.694   6.289  1.1127  0.9461 -0.3316
22265SOL     OW73655   7.083   1.016   9.125 -0.5839 -0.4349 -0.9861
22265SOL    HW173656   7.121   0.999   9.211  0.3296 -0.0543 -1.2953
22265SOL    HW273657   7.089   1.111   9.114 -2.4743 -0.2479 -0.6857
22266SOL     OW73658   6.995   3.192   0.787 -0.1181  0.1526  0.4198
22266SOL    HW173659   7.041   3.112   0.813 -0.6068  0.2275  1.5781
22266SOL    HW273660   6.910   3.161   0.754  0.6561  0.0228 -1.6205
22267SOL     OW73661   0.169  12.298   9.207  0.1633 -0.1957 -0.1493
22267SOL    HW173662   0.081  12.261   9.220 -0.1680  0.6969  0.2308
22267SOL    HW273663   0.228  12.230   9.239 -0.4710  0.0477  1.6769
22268SOL     OW73664   0.638   5.629   1.875 -0.0391 -0.3598 -0.4581
22268SOL    HW173665   0.612   5.654   1.964  2.0723  0.4494 -0.0104
22268SOL    HW273666   0.578   5.676   1.818  0.3163  1.3357  0.5164
22269SOL     OW73667   1.031   8.226  11.659 -0.0060 -0.4993  0.2148
22269SOL    HW173668   1.024   8.269  11.744 -0.7846 -0.3278  0.0755
22269SOL    HW273669   1.096   8.277  11.611  1.8533 -1.6919  1.3310
22270SOL     OW73670   7.330  11.898   5.108 -0.5170  0.1008 -0.2925
22270SOL    HW173671   7.400  11.890   5.172 -1.8065  0.3634  1.2144
22270SOL    HW273672   7.282  11.815   5.114 -2.8672  1.4707  1.8882
22271SOL     OW73673   4.504   0.009   4.223  0.1486  0.0134 -0.5691
22271SOL    HW173674   4.508   0.031   4.130  1.1959  0.6515 -0.3942
22271SOL    HW273675   4.588  -0.033   4.241  0.2914  0.6315  0.2639
22272SOL     OW73676   6.632   0.304   7.840 -0.3209 -0.1605 -0.0564
22272SOL    HW173677   6.623   0.398   7.828  0.4092 -0.0572  0.1380
22272SOL    HW273678   6.689   0.275   7.769 -0.5727 -0.4628 -0.1398
22273SOL     OW73679   7.523   6.671  12.279  0.0548  0.1096 -0.1261
22273SOL    HW173680   7.593   6.646  12.218 -0.2099  0.2961 -0.5111
22273SOL    HW273681   7.443   6.636  12.240 -0.1340  0.3476  0.0452
22274SOL     OW73682   1.055   7.660   7.581  0.4739  0.0217  0.6841
22274SOL    HW173683   0.998   7.585   7.602 -0.6235  0.5410 -0.3207
22274SOL    HW273684   1.096   7.636   7.498  1.4382 -0.1759  1.2067
22275SOL     OW73685  12.147   5.104   5.254  0.1521 -0.1941 -0.4267
22275SOL    HW173686  12.239   5.087   5.273  0.4760  1.2806 -0.5574
22275SOL    HW273687  12.148   5.178   5.193 -1.0647 -1.2537 -1.8165
22276SOL     OW73688   0.611   8.885   3.197  0.1849  0.6614 -0.2445
22276SOL    HW173689   0.607   8.831   3.118 -2.0571  0.3527  0.0107
22276SOL    HW273690   0.547   8.954   3.182 -0.2582  0.6081  1.2825
22277SOL     OW73691   3.808  10.836   5.082  0.2591  0.1714 -0.2606
22277SOL    HW173692   3.737  10.900   5.079 -0.7575 -0.8576  0.7885
22277SOL    HW273693   3.783  10.775   5.151  2.0524 -0.3817 -0.0388
22278SOL     OW73694   9.498   5.827  10.337 -0.3508  0.7819  0.8638
22278SOL    HW173695   9.433   5.821  10.267  0.2824 -0.5080  0.3541
22278SOL    HW273696   9.576   5.784  10.302 -0.3085 -0.7472  2.6350
22279SOL     OW73697   7.549   2.172   6.421  0.5285  0.1139  0.1577
22279SOL    HW173698   7.610   2.190   6.493  1.7220 -0.2516 -0.7216
22279SOL    HW273699   7.510   2.257   6.401  0.0108  0.1854  1.3616
22280SOL     OW73700   8.558   0.827   8.480  0.4966  0.4028 -0.0536
22280SOL    HW173701   8.493   0.757   8.488 -0.5951  1.2555 -1.0304
22280SOL    HW273702   8.641   0.781   8.464 -0.2468 -0.6738 -1.0147
22281SOL     OW73703   3.441   0.086   9.361 -0.1581  0.0086 -0.0700
22281SOL    HW173704   3.377   0.016   9.350 -0.5278 -0.0617  1.9764
22281SOL    HW273705   3.522   0.050   9.326 -0.6652 -0.8999 -0.3575
22282SOL     OW73706   0.041   9.475   0.035 -0.2425  0.3100  0.1908
22282SOL    HW173707   0.060   9.549  -0.022  0.6129 -0.0680 -0.0439
22282SOL    HW273708   0.110   9.479   0.102 -0.1352 -0.3209  0.1214
22283SOL     OW73709   7.961   4.000  11.804  0.5908 -0.9149  0.0248
22283SOL    HW173710   7.995   3.915  11.776  0.8574 -0.4961 -0.9213
22283SOL    HW273711   7.897   4.024  11.737  0.4900 -0.3781  0.3050
22284SOL     OW73712   5.351   2.189   8.046 -0.0869 -0.4365  0.2572
22284SOL    HW173713   5.294   2.175   8.121  0.5494 -4.0274  0.2489
22284SOL    HW273714   5.418   2.120   8.053  3.8465  2.9336 -0.2244
22285SOL     OW73715   3.929  12.444  10.669  0.2084 -0.1594  0.0915
22285SOL    HW173716   3.914  12.422  10.577 -1.8296  0.1796  0.3148
22285SOL    HW273717   3.950  12.360  10.710 -0.0613 -0.5018 -0.4534
22286SOL     OW73718   9.140   0.527   3.417 -0.3382  0.4194 -0.2851
22286SOL    HW173719   9.207   0.594   3.437  0.9570 -0.2744 -2.0601
22286SOL    HW273720   9.069   0.576   3.376  0.5392  0.7653 -1.4419
22287SOL     OW73721   1.464   0.316   7.348 -0.5618  0.9584  0.0934
22287SOL    HW173722   1.379   0.330   7.390 -0.9110  1.3343 -0.7105
22287SOL    HW273723   1.528   0.329   7.418 -1.2108 -0.9302  1.1094
22288SOL     OW73724   3.055   6.068  12.422  0.2455 -0.0369 -0.2036
22288SOL    HW173725   2.998   5.993  12.407  0.4266 -0.1737 -0.2063
22288SOL    HW273726   2.995   6.141  12.439  0.0707 -0.5349  1.5283
22289SOL     OW73727   3.805  11.451  12.037  0.0844 -0.7911 -0.1520
22289SOL    HW173728   3.763  11.504  11.969  0.2377 -0.1787  0.2214
22289SOL    HW273729   3.739  11.384  12.059 -0.3089 -0.4558 -0.2857
22290SOL     OW73730  11.718   7.080   4.396 -0.5166 -0.3191  0.0271
22290SOL    HW173731  11.647   7.030   4.355 -1.3459  0.5097  0.3957
22290SOL    HW273732  11.724   7.160   4.345  0.4401 -0.5528 -0.2404
22291SOL     OW73733   5.050   7.689  12.081  0.1188  0.3636 -0.4037
22291SOL    HW173734   4.963   7.663  12.111  0.1966  0.3297 -0.2085
22291SOL    HW273735   5.077   7.757  12.143  0.1185  0.5665 -0.6249
22292SOL     OW73736   8.452   8.939   8.143 -0.2145  0.5406  0.1389
22292SOL    HW173737   8.372   8.927   8.194 -0.3730  2.6485  0.4771
22292SOL    HW273738   8.431   9.008   8.080  0.5062 -0.8188 -1.7133
22293SOL     OW73739   1.756   9.513   3.963 -0.2894 -0.6842 -0.1148
22293SOL    HW173740   1.692   9.583   3.950  0.3722 -0.5517 -4.0209
22293SOL    HW273741   1.703   9.433   3.964 -0.7805 -0.3590  0.3977
22294SOL     OW73742  12.479   3.503  10.931 -0.0807 -0.0137  0.4493
22294SOL    HW173743  12.449   3.479  10.843 -0.1826 -2.9081  1.1582
22294SOL    HW273744  12.570   3.528  10.919  0.3221 -1.6969 -0.3560
22295SOL     OW73745   9.984   1.603   7.368 -0.6218 -0.0067  0.2826
22295SOL    HW173746   9.897   1.643   7.363 -0.6812 -0.2566 -1.3332
22295SOL    HW273747   9.973   1.517   7.326  0.2789 -0.2510  0.5355
22296SOL     OW73748   6.705   4.295   4.543 -0.1782 -0.3431  0.4670
22296SOL    HW173749   6.697   4.316   4.450  1.4867  0.1035  0.3964
22296SOL    HW273750   6.691   4.201   4.547 -2.7882 -0.0509  0.1364
22297SOL     OW73751   0.272  10.681   4.424 -0.1211  0.4099 -0.0581
22297SOL    HW173752   0.285  10.601   4.476 -2.1099 -0.0115 -0.1277
22297SOL    HW273753   0.352  10.731   4.438  1.1280 -1.5056  0.1236
22298SOL     OW73754  11.693   8.117   7.596  0.7643  0.3071  0.2105
22298SOL    HW173755  11.727   8.092   7.682 -0.3708  0.3508  0.6865
22298SOL    HW273756  11.616   8.170   7.615 -0.7897 -1.4524 -0.8105
22299SOL     OW73757   7.362   1.634  11.763 -0.0753 -0.2509  0.2986
22299SOL    HW173758   7.291   1.674  11.812 -0.3749 -1.3280  0.7662
22299SOL    HW273759   7.438   1.637  11.822 -0.2147 -0.7576  0.5130
22300SOL     OW73760   4.648   8.375   7.671 -0.0980 -0.0816 -0.4946
22300SOL    HW173761   4.673   8.464   7.694  1.2398 -0.4550 -0.4327
22300SOL    HW273762   4.648   8.373   7.576  0.3984 -0.1582 -0.4924
22301SOL     OW73763   2.518   9.008  10.739 -0.3832 -0.6345  0.3814
22301SOL    HW173764   2.610   9.028  10.757  0.2826 -2.7995 -0.2998
22301SOL    HW273765   2.521   8.950  10.663 -1.9709 -3.7823  2.4756
22302SOL     OW73766  11.237   6.142  10.675  0.4980 -0.2299  0.7874
22302SOL    HW173767  11.236   6.062  10.727 -0.2794 -0.0907  0.9942
22302SOL    HW273768  11.153   6.184  10.692  0.5347  0.1975 -0.0019
22303SOL     OW73769   0.311  10.080  12.007 -0.9445  0.1791  0.2542
22303SOL    HW173770   0.245  10.057  11.942 -1.2904 -0.0061  0.6670
22303SOL    HW273771   0.333   9.997  12.050 -1.0848  0.3734  0.7103
22304SOL     OW73772   8.179   4.496   4.929 -0.4104  0.5578 -0.3040
22304SOL    HW173773   8.193   4.459   5.016 -0.4027 -1.6425 -1.1937
22304SOL    HW273774   8.191   4.591   4.941 -1.4574  0.4455  2.2873
22305SOL     OW73775  11.754   7.041   4.055  0.0740 -0.3971  0.4142
22305SOL    HW173776  11.828   7.018   3.999 -1.4543 -0.2663 -1.7800
22305SOL    HW273777  11.721   7.124   4.019 -2.1894 -1.3145  0.1992
22306SOL     OW73778  10.350   9.040   6.360 -0.0835  0.0889 -0.2607
22306SOL    HW173779  10.306   8.955   6.348 -0.5251  0.3485 -0.4876
22306SOL    HW273780  10.420   9.040   6.295  0.2280 -0.3020  0.0651
22307SOL     OW73781   7.331   1.375   5.968  0.3414  0.4876 -0.2453
22307SOL    HW173782   7.379   1.293   5.981  1.1326  0.8221 -0.9705
22307SOL    HW273783   7.271   1.356   5.896 -0.5410  0.1151  0.5627
22308SOL     OW73784   8.707   3.769   5.952  0.4385 -0.0003 -0.6489
22308SOL    HW173785   8.636   3.739   6.010 -0.6458 -0.2853 -2.0733
22308SOL    HW273786   8.746   3.842   5.999 -1.5234  0.8798 -0.2825
22309SOL     OW73787   8.258   8.683   3.956  0.2329  0.5654 -0.1597
22309SOL    HW173788   8.330   8.620   3.967  1.7653  2.0534 -1.1142
22309SOL    HW273789   8.224   8.664   3.869 -0.4495 -0.0302  0.2275
22310SOL     OW73790   7.190   5.090   2.293 -0.3000  0.6082 -0.2230
22310SOL    HW173791   7.219   5.148   2.363  1.7771 -0.2444 -0.2895
22310SOL    HW273792   7.268   5.079   2.238 -1.3052 -0.3680 -1.5178
22311SOL     OW73793   9.815   3.515   6.613 -0.6375 -0.3980 -0.1260
22311SOL    HW173794   9.734   3.467   6.628  0.3633 -2.2790 -0.3796
22311SOL    HW273795   9.874   3.450   6.573  1.1494  0.7589  0.5266
22312SOL     OW73796   1.834   6.491   9.786  0.1280  0.0739  0.2472
22312SOL    HW173797   1.864   6.548   9.715 -0.1413  1.4430  1.2011
22312SOL    HW273798   1.887   6.412   9.777 -1.2162 -0.5988 -2.6400
22313SOL     OW73799  11.601   8.886   0.706 -0.6696 -0.5305 -0.4861
22313SOL    HW173800  11.597   8.981   0.695 -1.4935 -0.3466  1.1617
22313SOL    HW273801  11.663   8.857   0.639  2.2378  1.5360  1.1183
22314SOL     OW73802   4.538   0.008   0.525 -0.4442  0.7328  0.2133
22314SOL    HW173803   4.586   0.075   0.478  0.5192  1.6594  2.3785
22314SOL    HW273804   4.605  -0.050   0.560 -1.0698  0.4848  1.0465
22315SOL     OW73805   5.314   2.025   8.311 -0.1875 -0.0092  0.3274
22315SOL    HW173806   5.328   2.025   8.405 -1.5385  0.6429  0.5546
22315SOL    HW273807   5.394   1.988   8.274  0.0146 -1.0822  1.7747
22316SOL     OW73808   4.511   8.700   6.994  0.0462  0.0144  0.1665
22316SOL    HW173809   4.562   8.768   6.951  0.7488 -1.5496 -1.6002
22316SOL    HW273810   4.573   8.659   7.055  0.4321 -0.8027 -0.7646
22317SOL     OW73811  10.698   2.014   2.296  0.2477  0.0040 -0.2152
22317SOL    HW173812  10.632   2.080   2.317  0.7787  0.3034  0.5627
22317SOL    HW273813  10.781   2.061   2.304  0.5281 -0.0847 -2.2123
22318SOL     OW73814   0.541  12.026  12.423  0.0603 -0.1991  0.1509
22318SOL    HW173815   0.564  11.936  12.401 -0.4232  0.0976 -1.7154
22318SOL    HW273816   0.581  12.040  12.509 -0.0035 -2.2305  0.5687
22319SOL     OW73817   5.075  12.302   2.173  0.5937 -0.2024 -0.2531
22319SOL    HW173818   5.092  12.371   2.110 -0.9834  0.4735 -0.0023
22319SOL    HW273819   4.979  12.295   2.176  0.6708 -1.2656  0.9280
22320SOL     OW73820   6.191   0.776   2.640 -0.5769 -0.2898 -0.3892
22320SOL    HW173821   6.246   0.720   2.695 -0.9891  0.6352  1.0131
22320SOL    HW273822   6.147   0.834   2.701 -0.3889  1.4029 -1.7884
22321SOL     OW73823   0.593   7.888  12.067 -0.6977  0.2995  0.2143
22321SOL    HW173824   0.652   7.901  12.142  0.0806 -0.7109 -0.1927
22321SOL    HW273825   0.627   7.809  12.024 -2.5004 -0.4478  0.0859
22322SOL     OW73826  12.358  11.626   6.185  0.2110 -0.1993  0.1283
22322SOL    HW173827  12.302  11.687   6.137 -0.8001  0.3881  1.9277
22322SOL    HW273828  12.445  11.665   6.182 -0.3013  1.0638  0.7259
22323SOL     OW73829  12.124   6.654   3.954  0.9329 -0.2423 -0.3016
22323SOL    HW173830  12.137   6.614   3.868  0.7493 -1.2396  0.1230
22323SOL    HW273831  12.184   6.729   3.955 -0.5495  1.0672 -2.0922
22324SOL     OW73832   3.545   0.405   3.507 -0.2671  0.7156  0.1746
22324SOL    HW173833   3.599   0.346   3.560 -1.2475  0.7575  1.2751
22324SOL    HW273834   3.607   0.455   3.454  0.7247  0.3766  0.9879
22325SOL     OW73835   6.287   6.292   1.463 -0.5839 -0.3266 -0.7130
22325SOL    HW173836   6.371   6.255   1.489 -1.1105 -0.6659  0.5814
22325SOL    HW273837   6.310   6.367   1.408  0.5316 -0.9995 -1.2002
22326SOL     OW73838   6.221   4.100   3.343  0.2646 -0.1009  0.4771
22326SOL    HW173839   6.170   4.079   3.421  0.8690 -1.9779  0.4200
22326SOL    HW273840   6.283   4.027   3.335  0.1653  0.0113 -1.7899
22327SOL     OW73841   9.730  11.547  11.914 -0.1679 -0.8788 -0.0931
22327SOL    HW173842   9.714  11.455  11.934 -1.5774 -0.8769 -1.0704
22327SOL    HW273843   9.692  11.595  11.988 -1.5811 -1.0169 -0.7043
22328SOL     OW73844   6.567  11.279   6.206 -0.4057 -0.1607 -0.1787
22328SOL    HW173845   6.471  11.273   6.205 -0.4818  0.5274 -2.2509
22328SOL    HW273846   6.584  11.368   6.238 -0.4727 -0.1493 -0.1722
22329SOL     OW73847  10.085   6.112   7.830 -0.7193  0.4859 -0.2017
22329SOL    HW173848  10.033   6.180   7.787  0.1917  0.4953 -1.3330
22329SOL    HW273849  10.020   6.054   7.870 -1.5723  0.8347 -1.0474
22330SOL     OW73850   0.555   6.323   3.254 -0.3113 -0.3079  0.1017
22330SOL    HW173851   0.573   6.406   3.298  0.4973  0.0687 -0.8934
22330SOL    HW273852   0.564   6.343   3.161 -0.9497 -1.3231 -0.1969
22331SOL     OW73853   5.636  10.659  10.771  0.1988  0.5361 -0.0563
22331SOL    HW173854   5.720  10.615  10.758 -1.0740 -1.9062 -0.6782
22331SOL    HW273855   5.622  10.656  10.865 -0.0481 -0.9028 -0.1078
22332SOL     OW73856   8.474  11.569   3.965 -0.3779 -0.0835 -0.6227
22332SOL    HW173857   8.531  11.643   3.946 -0.2580 -0.3878 -1.4773
22332SOL    HW273858   8.532  11.493   3.968 -0.4645 -0.1317  0.4875
22333SOL     OW73859   0.778   9.459   4.291 -0.1068 -0.3907 -0.1501
22333SOL    HW173860   0.750   9.510   4.368 -0.4066 -0.2287 -0.3609
22333SOL    HW273861   0.760   9.368   4.315 -2.9519 -0.1901 -1.0742
22334SOL     OW73862   8.405   1.875   1.862 -0.4615  0.2997  0.3398
22334SOL    HW173863   8.477   1.812   1.871 -0.8902 -0.0085  1.9248
22334SOL    HW273864   8.440   1.956   1.900 -0.7084  0.3616  0.4319
22335SOL     OW73865   8.112   0.321   5.889  0.5704  0.0443  0.0990
22335SOL    HW173866   8.178   0.263   5.926  0.7972 -0.7027 -1.4190
22335SOL    HW273867   8.040   0.263   5.864 -0.0476  0.6703  0.3646
22336SOL     OW73868   4.415   3.025  10.445 -0.2980  0.1770 -0.3166
22336SOL    HW173869   4.423   3.099  10.506  2.2064 -0.5653  0.3747
22336SOL    HW273870   4.430   3.064  10.359  1.9082  0.4450  0.1128
22337SOL     OW73871  12.169  11.410   2.199 -0.3408 -0.2200  0.0418
22337SOL    HW173872  12.204  11.387   2.285 -0.2830 -0.2536  0.0096
22337SOL    HW273873  12.114  11.336   2.174  1.1494 -1.0964 -0.7909
22338SOL     OW73874   7.012   7.784  12.477  0.0202  0.2795 -0.2380
22338SOL    HW173875   6.929   7.736  12.489 -0.3790  1.2018  0.8322
22338SOL    HW273876   7.025   7.785  12.382 -0.9282 -0.3196 -0.3947
22339SOL     OW73877   8.013   4.537  10.225  0.6796  0.3640 -0.0533
22339SOL    HW173878   8.051   4.534  10.137  0.5160 -0.4911 -0.1052
22339SOL    HW273879   8.089   4.542  10.283  0.9922 -2.1966 -0.1144
22340SOL     OW73880   5.748   8.977   5.865  0.0143 -0.1329 -0.0410
22340SOL    HW173881   5.785   8.988   5.953  0.2521 -0.8433 -0.0473
22340SOL    HW273882   5.765   9.061   5.822 -0.9046  0.5489  0.8777
22341SOL     OW73883   9.644   1.274  12.224 -0.5164 -0.0982  0.3278
22341SOL    HW173884   9.678   1.246  12.309 -1.3498 -0.8097  0.4325
22341SOL    HW273885   9.713   1.250  12.162 -0.7978 -1.5242  0.5345
22342SOL     OW73886   2.976   0.818   2.262  0.2928 -0.1597  0.6965
22342SOL    HW173887   2.947   0.730   2.239 -1.3021  0.7174 -0.8834
22342SOL    HW273888   2.902   0.874   2.239  1.9833  1.8270 -0.2113
22343SOL     OW73889  10.422   7.744   3.161 -0.2539 -0.0713 -0.1515
22343SOL    HW173890  10.481   7.743   3.085 -0.2714  0.1582 -0.1699
22343SOL    HW273891  10.481   7.745   3.237 -0.2383 -0.6175 -0.1575
22344SOL     OW73892   2.546   1.976   3.771  0.1621 -0.1802 -0.2838
22344SOL    HW173893   2.515   1.904   3.716  0.8524 -0.7576  0.0636
22344SOL    HW273894   2.639   1.984   3.751  0.3005 -0.0325  0.3906
22345SOL     OW73895   3.392   6.602   6.320  0.4300  0.4956  0.0779
22345SOL    HW173896   3.475   6.594   6.273 -0.5171 -2.7383 -1.3355
22345SOL    HW273897   3.348   6.676   6.279  2.0348  1.3989 -0.0722
22346SOL     OW73898   7.998   8.216   6.988  0.0956 -0.1325  0.0390
22346SOL    HW173899   8.025   8.132   6.951  0.6332  1.0114 -2.3919
22346SOL    HW273900   7.913   8.199   7.028 -0.0999 -1.7177 -0.9776
22347SOL     OW73901   6.802   8.082   0.249  0.3618 -0.4519  0.0816
22347SOL    HW173902   6.837   7.994   0.263  0.9090 -0.1633  0.6305
22347SOL    HW273903   6.864   8.123   0.189  1.0300  0.0723  1.0810
22348SOL     OW73904   6.854   4.505  10.726  0.1926 -0.7583  0.4528
22348SOL    HW173905   6.919   4.501  10.657  1.5472  2.0557  1.4166
22348SOL    HW273906   6.770   4.511  10.680  0.8962 -0.9354 -0.8922
22349SOL     OW73907   8.709   2.456   9.383 -0.0704  0.0516  0.2037
22349SOL    HW173908   8.640   2.434   9.320  0.1687 -0.4061  0.0984
22349SOL    HW273909   8.691   2.547   9.407 -0.6943 -0.0482  0.1487
22350SOL     OW73910   6.278   2.388   0.353 -0.0110 -0.3018 -0.5262
22350SOL    HW173911   6.346   2.325   0.328  1.8305  0.9510  1.0365
22350SOL    HW273912   6.307   2.423   0.437 -1.7908  1.4659 -0.5673
22351SOL     OW73913   4.253   3.118   7.509  0.0163 -0.8256  0.1861
22351SOL    HW173914   4.200   3.170   7.570 -0.4984  0.0858 -1.0158
22351SOL    HW273915   4.222   3.143   7.422  0.4030 -2.4591 -0.4637
22352SOL     OW73916   2.248   4.267   8.990  0.4299 -0.4522  0.3210
22352SOL    HW173917   2.286   4.235   8.908 -0.6523  0.6571 -0.6679
22352SOL    HW273918   2.322   4.299   9.041  0.9966  0.2068 -0.8724
22353SOL     OW73919  10.512   2.113   3.873 -0.5058 -0.2907  0.8153
22353SOL    HW173920  10.421   2.083   3.880  0.7280 -4.5252  1.4782
22353SOL    HW273921  10.523   2.135   3.780 -1.9907 -0.4262  0.5864
22354SOL     OW73922   1.787  12.286  10.411  0.4121  0.1813  0.3833
22354SOL    HW173923   1.716  12.344  10.385  0.6044  0.8486  1.3190
22354SOL    HW273924   1.779  12.278  10.506 -0.1009 -1.9767  0.2293
22355SOL     OW73925   6.011   5.882   2.623  0.7409 -0.2482 -0.0229
22355SOL    HW173926   5.968   5.914   2.544 -0.8390  0.4571  1.0561
22355SOL    HW273927   6.010   5.957   2.683  2.8257 -0.4560  0.3385
22356SOL     OW73928   3.450   7.381   2.718 -0.6499 -0.6012 -0.5990
22356SOL    HW173929   3.504   7.305   2.696 -0.5147 -0.1505 -1.8899
22356SOL    HW273930   3.457   7.389   2.813  1.1910 -0.8187 -0.6852
22357SOL     OW73931   4.680   6.045   5.945  0.3600 -0.4570 -0.3536
22357SOL    HW173932   4.603   6.073   5.895 -0.5317 -0.4100  0.9859
22357SOL    HW273933   4.663   6.077   6.034  0.4180 -3.1743  0.7099
22358SOL     OW73934   1.170   4.312   5.172 -0.2235  0.0692  0.3533
22358SOL    HW173935   1.233   4.381   5.150  0.2431 -0.5735 -0.3520
22358SOL    HW273936   1.148   4.271   5.089  1.0327 -1.9423  0.9438
22359SOL     OW73937   6.196   2.957   2.216 -0.5832  0.2106  0.1927
22359SOL    HW173938   6.164   2.983   2.130  0.0168  0.1874 -0.0386
22359SOL    HW273939   6.117   2.955   2.271 -0.9080  0.6234 -0.2511
22360SOL     OW73940  10.476   4.247   5.865  0.3396  0.2540  0.2601
22360SOL    HW173941  10.408   4.238   5.931  0.7923 -0.7807  0.6085
22360SOL    HW273942  10.462   4.333   5.826 -1.4493 -0.1259  0.0065
22361SOL     OW73943   2.625   6.561  11.198 -0.1017  0.0950  0.3652
22361SOL    HW173944   2.610   6.579  11.106 -2.5488  1.0541  0.8663
22361SOL    HW273945   2.552   6.505  11.224  1.8801 -2.2658  1.2202
22362SOL     OW73946   8.525   2.142   9.069  0.0576  0.5489  0.0586
22362SOL    HW173947   8.552   2.105   9.153  0.0082 -0.4370 -0.3502
22362SOL    HW273948   8.607   2.162   9.024  0.0890  0.5307  0.1077
22363SOL     OW73949   1.181   0.975   1.585  0.4128  0.0449 -0.2559
22363SOL    HW173950   1.261   0.990   1.634 -0.3578  0.8874  0.7804
22363SOL    HW273951   1.135   0.906   1.634 -0.1703  0.6012 -0.0052
22364SOL     OW73952   3.448   9.545   0.429  0.4151  0.2121 -0.2704
22364SOL    HW173953   3.477   9.466   0.474  0.2749  0.9067  1.0891
22364SOL    HW273954   3.383   9.514   0.365  0.4515 -0.7738  0.1534
22365SOL     OW73955   6.764   8.349   3.598  0.0051  0.0186  0.0054
22365SOL    HW173956   6.740   8.328   3.508 -0.9618 -1.7740  0.6379
22365SOL    HW273957   6.838   8.291   3.617  0.1337  0.3076  0.3975
22366SOL     OW73958   6.530   8.085   1.979  0.1466  0.7530 -0.1652
22366SOL    HW173959   6.614   8.060   2.019  0.9052  1.5577 -1.1890
22366SOL    HW273960   6.477   8.006   1.983  1.0363  0.1625  0.3150
22367SOL     OW73961   0.276   3.398   2.465  0.1803 -0.6691 -0.4449
22367SOL    HW173962   0.222   3.336   2.515 -0.2453 -1.3594 -1.7038
22367SOL    HW273963   0.215   3.437   2.402  0.9283 -0.7406 -1.2361
22368SOL     OW73964   0.250   5.250  11.760  0.4969 -0.7431 -0.0401
22368SOL    HW173965   0.236   5.325  11.702  3.5746  0.5852  0.6999
22368SOL    HW273966   0.258   5.175  11.701 -0.3624 -0.1181 -0.9851
22369SOL     OW73967   3.228   9.654   9.705  0.2224  0.4301  0.2870
22369SOL    HW173968   3.158   9.707   9.668  0.9162  2.0603  1.2082
22369SOL    HW273969   3.309   9.700   9.682  0.8773 -0.3963  0.8555
22370SOL     OW73970   7.796   4.472   9.991 -0.2246  0.4373 -0.8239
22370SOL    HW173971   7.819   4.414  10.063 -2.2988 -1.4911 -1.6145
22370SOL    HW273972   7.796   4.416   9.914 -1.1067  1.7707 -1.8317
22371SOL     OW73973   8.534   4.131   6.783 -0.0528 -0.0709  1.0002
22371SOL    HW173974   8.608   4.092   6.737  0.6227 -0.5336  2.4202
22371SOL    HW273975   8.464   4.134   6.718  0.6831 -1.2494  0.1179
22372SOL     OW73976   8.962   5.442  11.145 -0.3042  0.7017 -0.1139
22372SOL    HW173977   8.995   5.446  11.055  1.4126 -0.2895  0.4478
22372SOL    HW273978   8.929   5.531  11.161  1.9197  1.7256 -0.8028
22373SOL     OW73979   8.104  12.318   8.118 -0.1287 -0.0900 -0.2938
22373SOL    HW173980   8.012  12.291   8.113  0.2978 -1.5140 -0.9594
22373SOL    HW273981   8.104  12.394   8.176 -1.3936 -1.6478  1.8540
22374SOL     OW73982   9.936   5.021   1.905 -0.8438  0.5153  0.6524
22374SOL    HW173983   9.935   5.067   1.821 -0.5808 -1.4737 -0.5024
22374SOL    HW273984   9.964   5.087   1.968  0.3498  1.7246 -1.0529
22375SOL     OW73985   0.002   5.653   0.114  0.1483 -0.4154  0.5270
22375SOL    HW173986   0.085   5.615   0.087 -1.9115 -3.7094 -2.0891
22375SOL    HW273987   0.004   5.743   0.081  1.6285 -1.2921 -2.0132
22376SOL     OW73988  12.103   4.964   3.923  0.1405 -0.1961 -0.0975
22376SOL    HW173989  12.187   4.953   3.880  0.3213 -0.1528  0.2402
22376SOL    HW273990  12.123   4.957   4.017 -0.0037  1.2771  0.0618
22377SOL     OW73991  11.789   9.287   9.537  0.4138  0.0825  0.2012
22377SOL    HW173992  11.754   9.197   9.539 -0.4702  0.3637 -1.1973
22377SOL    HW273993  11.783   9.316   9.628  0.3942 -1.1532  0.6194
22378SOL     OW73994   7.228   6.440   7.616 -0.3243 -0.0443  0.4256
22378SOL    HW173995   7.275   6.495   7.680 -1.9287 -0.5808  2.1303
22378SOL    HW273996   7.298   6.391   7.572  0.9598  1.5368  0.5659
22379SOL     OW73997  12.225   5.753   2.714  0.0075  0.4719 -0.5370
22379SOL    HW173998  12.251   5.837   2.750  0.3547 -0.6097  1.9581
22379SOL    HW273999  12.131   5.748   2.732  0.2655 -0.2615  0.6929
22380SOL     OW74000   1.139   4.942   1.424  0.2368  0.6432 -0.2372
22380SOL    HW174001   1.140   5.037   1.409 -2.6540  1.0893  1.6036
22380SOL    HW274002   1.201   4.928   1.495 -2.1226  1.8604  2.2104
22381SOL     OW74003   0.556   6.382   0.231 -0.0570 -0.1666  0.0945
22381SOL    HW174004   0.518   6.405   0.147  0.9016 -0.2627 -0.3763
22381SOL    HW274005   0.640   6.342   0.210 -0.6982 -2.1113  0.9822
22382SOL     OW74006   1.444   2.148   0.855  0.4156  0.6065 -0.5456
22382SOL    HW174007   1.393   2.214   0.808  0.4321  0.1920 -1.1616
22382SOL    HW274008   1.437   2.173   0.947 -2.2147 -0.3180 -0.4246
22383SOL     OW74009   8.980   9.984  11.245 -0.3451 -0.3354 -0.1462
22383SOL    HW174010   9.038  10.059  11.256 -0.3825 -0.1254 -1.3428
22383SOL    HW274011   9.040   9.909  11.239 -0.2645 -0.2888  0.0551
22384SOL     OW74012   9.170   2.869   1.129  0.8038  0.0818  0.4206
22384SOL    HW174013   9.241   2.915   1.174  0.1774 -0.6366  2.2892
22384SOL    HW274014   9.162   2.786   1.177 -1.2810  0.1535  0.2993
22385SOL     OW74015   1.735   8.288   1.857  0.1177 -0.4389  0.1191
22385SOL    HW174016   1.761   8.359   1.915 -1.5023 -0.8477  1.4271
22385SOL    HW274017   1.786   8.212   1.887  0.8366 -0.1671 -0.3903
22386SOL     OW74018  10.037   1.476  10.643  0.1348  0.2396 -0.1011
22386SOL    HW174019  10.047   1.495  10.736  2.1969  1.8696 -0.5678
22386SOL    HW274020   9.948   1.442  10.634 -0.2621  0.4681  2.3747
22387SOL     OW74021   0.398  10.496   1.117 -0.8018  0.0114  0.2787
22387SOL    HW174022   0.372  10.569   1.173 -0.9799  0.7548 -0.7361
22387SOL    HW274023   0.318  10.471   1.072 -0.3899  0.3786 -0.6916
22388SOL     OW74024   9.898   6.546   8.400  0.5430  0.2108 -0.0640
22388SOL    HW174025   9.888   6.629   8.445  0.7523  0.6562 -0.8279
22388SOL    HW274026   9.987   6.517   8.422  0.9854  0.8791 -0.9213
22389SOL     OW74027   4.976  11.068   0.714  0.0308  0.1133  0.4682
22389SOL    HW174028   5.015  11.050   0.800  0.1914  1.4549  0.7048
22389SOL    HW274029   4.887  11.095   0.733  0.3336  1.2912  0.3201
22390SOL     OW74030   9.896   2.596  10.737 -0.5281  0.1289 -0.0764
22390SOL    HW174031   9.886   2.638  10.822 -0.0736 -0.4076  0.2477
22390SOL    HW274032   9.824   2.534  10.732  0.7674 -1.5251  0.9378
22391SOL     OW74033  11.148   1.624  11.867 -0.2308  0.0041  0.1518
22391SOL    HW174034  11.077   1.594  11.811 -1.2199  0.6345  1.0263
22391SOL    HW274035  11.110   1.697  11.917  1.0067  0.3057  0.6979
22392SOL     OW74036   7.031   7.232   4.303 -0.1612  0.0369  0.1836
22392SOL    HW174037   6.947   7.258   4.265 -0.2055  1.0134  0.9201
22392SOL    HW274038   7.013   7.149   4.348 -0.3120 -0.6726 -1.1176
22393SOL     OW74039  10.329  10.964  10.793 -0.1414  0.1040 -0.1836
22393SOL    HW174040  10.363  10.994  10.878 -2.0947  0.3020  0.5851
22393SOL    HW274041  10.348  11.036  10.733  3.2302 -0.9142 -0.5188
22394SOL     OW74042   4.977   3.861   2.213  0.9942  0.0031  0.7705
22394SOL    HW174043   4.926   3.885   2.290 -0.6995 -0.3401 -0.1984
22394SOL    HW274044   4.988   3.942   2.164  2.4162  0.2998  1.5292
22395SOL     OW74045   7.382  12.439   9.914 -0.0024 -0.6081 -0.5701
22395SOL    HW174046   7.439  12.513   9.893 -0.6426  0.2361  0.5702
22395SOL    HW274047   7.384  12.434  10.009 -1.5103 -0.8032 -0.5303
22396SOL     OW74048   5.282   0.180   3.963  0.1187  0.6804 -0.3315
22396SOL    HW174049   5.238   0.111   3.913 -0.0267  0.7751 -0.3364
22396SOL    HW274050   5.356   0.136   4.005 -0.3690  0.3650  0.2209
22397SOL     OW74051   3.358   9.512   8.640 -0.0084  0.0550 -0.4287
22397SOL    HW174052   3.355   9.607   8.632 -0.7024 -0.0224 -1.2603
22397SOL    HW274053   3.369   9.481   8.550  1.1778 -0.6253 -0.0757
22398SOL     OW74054   5.206   2.075  10.388  0.3343 -0.0223  0.1166
22398SOL    HW174055   5.230   1.983  10.395  0.9046  0.2122  1.4360
22398SOL    HW274056   5.287   2.120  10.365  0.8570  0.5397  2.7745
22399SOL     OW74057  10.153   7.410   7.099 -0.3185 -0.0198 -0.3027
22399SOL    HW174058  10.067   7.369   7.089 -0.6734  0.7159 -0.4013
22399SOL    HW274059  10.216   7.341   7.080 -0.8785 -0.8079  0.6578
22400SOL     OW74060   5.146   1.466   9.057  0.3078 -0.0860  0.2419
22400SOL    HW174061   5.060   1.498   9.086 -0.2120 -0.7277 -0.5547
22400SOL    HW274062   5.181   1.419   9.132  0.3139  0.8427  0.8396
22401SOL     OW74063   7.667   5.238   1.216 -0.2921 -0.7537  0.0651
22401SOL    HW174064   7.615   5.318   1.220  0.2033 -0.4786  2.1836
22401SOL    HW274065   7.617   5.175   1.269  0.3193 -1.2125  0.1022
22402SOL     OW74066   2.492   8.367   7.805  0.2593 -0.3206 -0.6288
22402SOL    HW174067   2.567   8.335   7.855  1.1661 -0.5780 -2.1209
22402SOL    HW274068   2.512   8.347   7.714 -1.4323  0.0006 -1.1123
22403SOL     OW74069   0.758   5.868   5.888 -0.5563 -0.2411  0.0675
22403SOL    HW174070   0.728   5.864   5.797 -1.2065 -0.4061  0.2880
22403SOL    HW274071   0.854   5.872   5.881 -0.4086 -2.7238 -0.6010
22404SOL     OW74072   5.182   0.777   4.913 -0.1470  0.0521 -0.3063
22404SOL    HW174073   5.272   0.756   4.941 -0.2605 -1.5985 -1.0312
22404SOL    HW274074   5.129   0.705   4.948 -0.7373 -0.4777 -2.1676
22405SOL     OW74075   9.230   5.698   7.990 -0.0154 -0.2932 -0.7239
22405SOL    HW174076   9.255   5.606   8.002 -1.0687 -0.6099 -0.8537
22405SOL    HW274077   9.227   5.734   8.078  0.1636 -0.4413 -0.6556
22406SOL     OW74078   6.549   5.434   5.296 -0.3720  0.2175 -0.7042
22406SOL    HW174079   6.593   5.433   5.211  0.2978  0.9987 -0.3846
22406SOL    HW274080   6.482   5.366   5.289  0.2599 -0.3460 -1.5420
22407SOL     OW74081   4.302   1.435  11.917 -0.2659  0.3836 -0.2656
22407SOL    HW174082   4.332   1.474  12.000  0.3686  1.7821 -1.1187
22407SOL    HW274083   4.372   1.374  11.893 -1.1490 -1.2108  0.9477
22408SOL     OW74084   4.679  12.377   5.120  0.3736  0.2531 -0.2096
22408SOL    HW174085   4.683  12.455   5.064  1.5899 -0.4443 -1.1529
22408SOL    HW274086   4.626  12.315   5.071 -0.1324  0.2726  0.2945
22409SOL     OW74087   4.436   0.530   1.170 -0.0974  0.4332  0.1437
22409SOL    HW174088   4.435   0.467   1.242  2.3750  0.8039  0.5728
22409SOL    HW274089   4.474   0.481   1.096 -0.1895  0.8037 -0.1500
22410SOL     OW74090  11.630   7.054   2.543 -0.1913 -0.4181  0.3761
22410SOL    HW174091  11.576   7.130   2.519 -0.0755  0.0345  1.4872
22410SOL    HW274092  11.659   7.018   2.459  0.4833  1.3012 -0.1718
22411SOL     OW74093   0.000  11.820   8.903 -0.0345 -0.2439  0.2122
22411SOL    HW174094   0.058  11.796   8.976 -0.9667 -2.0735  0.4009
22411SOL    HW274095   0.004  11.916   8.901  0.0153 -0.1202  2.6771
22412SOL     OW74096   7.081  10.134   8.673  0.4307  0.4629 -0.0430
22412SOL    HW174097   7.162  10.172   8.640  1.0060 -0.1221  0.6544
22412SOL    HW274098   7.109  10.070   8.738 -0.5415 -0.6578 -0.6772
22413SOL     OW74099   6.964  11.842   7.169 -0.2465 -0.1604  0.1692
22413SOL    HW174100   7.050  11.878   7.189 -0.1596  1.1424 -2.2360
22413SOL    HW274101   6.966  11.822   7.076 -2.4043 -0.5617  0.1421
22414SOL     OW74102  12.378   5.927   2.305 -0.3974  0.4113  0.1412
22414SOL    HW174103  12.294   5.965   2.330 -2.0334 -2.4328 -0.5997
22414SOL    HW274104  12.401   5.868   2.377  0.4697  0.3744 -0.1455
22415SOL     OW74105   2.534   9.329   3.040  0.2030  0.3041  0.2719
22415SOL    HW174106   2.602   9.264   3.055  1.0624  0.8632 -1.0339
22415SOL    HW274107   2.476   9.288   2.975  0.1367  0.4208  0.2568
22416SOL     OW74108  12.051   6.531   9.209 -0.1540 -0.3221 -0.3901
22416SOL    HW174109  12.124   6.470   9.202  0.2280  0.2995 -2.6994
22416SOL    HW274110  12.085   6.603   9.263  1.2570  0.3324 -2.0872
22417SOL     OW74111  10.858   6.671   5.744 -0.3286 -0.5879  0.0674
22417SOL    HW174112  10.798   6.735   5.783 -1.0390  0.1647 -2.1062
22417SOL    HW274113  10.814   6.587   5.756 -1.7071 -0.0911 -1.1712
22418SOL     OW74114   7.120   4.790   8.307  0.0875 -0.3125 -0.1257
22418SOL    HW174115   7.059   4.751   8.370  0.7260  0.9185  1.2959
22418SOL    HW274116   7.082   4.876   8.287  1.1789  0.3390  0.5422
22419SOL     OW74117   6.532   9.042  11.894  0.1747  0.2398 -0.1366
22419SOL    HW174118   6.507   8.952  11.915  2.1948  0.1892  2.6683
22419SOL    HW274119   6.626   9.037  11.875  0.7719  1.9041  1.9559
22420SOL     OW74120   3.527   9.221   4.613 -0.2775 -0.5788  0.2268
22420SOL    HW174121   3.565   9.220   4.701  0.5041 -0.5061 -0.0991
22420SOL    HW274122   3.522   9.129   4.588  2.1338 -0.5388 -0.7234
22421SOL     OW74123   6.386   0.186  12.044  0.0229  0.2780 -0.2591
22421SOL    HW174124   6.430   0.267  12.067  0.2340 -0.5077  2.5118
22421SOL    HW274125   6.294   0.200  12.068 -0.5490  0.6469 -2.5142
22422SOL     OW74126   1.405   0.595   9.074 -0.1944 -0.4073 -0.4124
22422SOL    HW174127   1.437   0.547   8.997 -0.5295 -0.9774 -0.2081
22422SOL    HW274128   1.352   0.666   9.038 -1.7476 -1.6528 -0.7197
22423SOL     OW74129   7.767   6.854   0.184  0.2844 -0.0837  0.3195
22423SOL    HW174130   7.826   6.797   0.136 -1.1489 -0.2828 -1.2947
22423SOL    HW274131   7.685   6.850   0.136 -0.8894  0.6518  2.1413
22424SOL     OW74132   7.350  11.734   1.445  0.7723  0.0777  0.0645
22424SOL    HW174133   7.384  11.647   1.462  0.0120 -0.3125 -0.3495
22424SOL    HW274134   7.261  11.733   1.479  0.5860  0.5260 -0.3843
22425SOL     OW74135   8.091   4.157   7.118  0.8552 -0.9864  0.4862
22425SOL    HW174136   8.107   4.139   7.211  1.8173 -1.1258  0.3027
22425SOL    HW274137   8.112   4.249   7.107  0.8067 -0.9857  0.3946
22426SOL     OW74138   6.571   1.720   0.913 -0.1681  0.6375 -0.3567
22426SOL    HW174139   6.520   1.733   0.993  1.1571  1.3963  0.3865
22426SOL    HW274140   6.622   1.800   0.903  1.2088 -0.2685 -0.8369
22427SOL     OW74141   9.465   2.048   3.628 -1.0037 -0.2604  0.1372
22427SOL    HW174142   9.458   1.974   3.689  1.8449  0.7504  1.9197
22427SOL    HW274143   9.556   2.043   3.596 -1.3696  1.3188 -1.2889
22428SOL     OW74144   3.800   6.043  12.314  0.0985  0.3070  0.1922
22428SOL    HW174145   3.787   5.949  12.301  0.2778  0.2877  0.1470
22428SOL    HW274146   3.725   6.071  12.366 -1.6470  0.7277 -2.3838
22429SOL     OW74147   4.039  10.987  10.257  0.5824 -0.2981  0.0548
22429SOL    HW174148   4.110  10.997  10.320  0.4195 -0.2488  0.2282
22429SOL    HW274149   4.050  10.897  10.224  2.3892  0.5369 -1.9200
22430SOL     OW74150   6.054   4.806   5.607 -0.4101  0.0432  0.0844
22430SOL    HW174151   6.033   4.750   5.533 -0.7761 -1.2867  1.1502
22430SOL    HW274152   5.981   4.868   5.612 -0.3152  0.2245 -0.7364
22431SOL     OW74153  10.347   2.585   1.307  0.5779  0.0422  0.1575
22431SOL    HW174154  10.396   2.658   1.269  1.9176 -1.5068 -1.2530
22431SOL    HW274155  10.375   2.583   1.399  0.3131  1.4282  0.2987
22432SOL     OW74156   4.495   4.533   9.889  0.3949 -0.6267 -0.3891
22432SOL    HW174157   4.553   4.548   9.814  0.5162  0.4691 -0.0853
22432SOL    HW274158   4.429   4.602   9.884 -0.1385 -1.0958  0.0021
22433SOL     OW74159   4.560  10.262   5.553  0.2172  0.4709  0.4583
22433SOL    HW174160   4.538  10.174   5.524 -1.3199  0.6294  1.0714
22433SOL    HW274161   4.513  10.320   5.494 -0.1739  0.8422  1.1168
22434SOL     OW74162   0.013   7.740   2.181 -0.4673 -0.3963 -0.5590
22434SOL    HW174163   0.011   7.685   2.259  2.9400  0.9926  0.7475
22434SOL    HW274164  -0.071   7.726   2.138 -1.1339 -3.8267  1.5331
22435SOL     OW74165  11.650   1.574   4.119  0.1333  0.3005 -0.0442
22435SOL    HW174166  11.606   1.550   4.038  0.0286 -2.3440  0.7034
22435SOL    HW274167  11.744   1.571   4.097  0.0896  0.7028 -0.3110
22436SOL     OW74168   5.632   7.719   0.079  0.0657 -1.0748  0.6366
22436SOL    HW174169   5.661   7.806   0.107  1.3940 -1.6793  1.2549
22436SOL    HW274170   5.610   7.730  -0.013 -0.6304  0.0964  0.9156
22437SOL     OW74171   8.381  10.371   5.502 -0.3601 -0.0446 -0.1378
22437SOL    HW174172   8.355  10.413   5.420 -1.6038 -0.0347  0.2331
22437SOL    HW274173   8.475  10.387   5.509 -0.4140  0.7764 -1.0851
22438SOL     OW74174   7.193   4.081   5.607  0.1779  0.2407  0.2385
22438SOL    HW174175   7.160   4.098   5.519  0.1396  1.4717  0.4666
22438SOL    HW274176   7.120   4.104   5.665 -0.5608 -2.5505  0.5639
22439SOL     OW74177   9.984   4.407   6.628 -0.0733 -0.3491  0.6757
22439SOL    HW174178  10.012   4.345   6.696 -1.4423 -0.0013  1.6039
22439SOL    HW274179  10.058   4.468   6.620 -0.2955  0.2612  2.6962
22440SOL     OW74180  11.137   1.493   7.286  0.1382  0.1003  0.0980
22440SOL    HW174181  11.190   1.452   7.218 -1.7209 -0.3144 -1.1540
22440SOL    HW274182  11.179   1.466   7.368 -0.4901 -3.7073 -0.6549
22441SOL     OW74183   1.481   6.943   2.092 -0.2691  0.1888 -0.2925
22441SOL    HW174184   1.507   6.910   2.178 -0.7447  1.6220  0.4243
22441SOL    HW274185   1.427   6.873   2.055 -0.5514 -0.2062  0.8304
22442SOL     OW74186   0.391  10.130  10.296 -0.0529 -0.0275  0.3025
22442SOL    HW174187   0.334  10.056  10.282 -0.0712 -0.1283  0.8814
22442SOL    HW274188   0.410  10.129  10.390 -1.1808  1.5161  0.5819
22443SOL     OW74189   8.792   3.781  11.747 -0.2603 -0.4156  0.0327
22443SOL    HW174190   8.791   3.817  11.836  2.4734  2.7971 -1.0306
22443SOL    HW274191   8.720   3.826  11.703  1.1025  1.4552 -0.4161
22444SOL     OW74192   7.983   8.908   7.371 -0.8621  0.2047  0.0222
22444SOL    HW174193   8.030   8.987   7.399 -0.4605  0.1086 -0.3745
22444SOL    HW274194   8.050   8.851   7.335 -1.2821  0.0668 -0.5640
22445SOL     OW74195   4.401   4.767   3.159  0.3842 -0.6109  0.5344
22445SOL    HW174196   4.421   4.847   3.207 -1.9307  0.1617  0.3494
22445SOL    HW274197   4.430   4.696   3.217  0.0265  0.3386  1.9295
22446SOL     OW74198   3.502   0.425   8.089  0.0727 -0.1484  0.6490
22446SOL    HW174199   3.495   0.329   8.088 -0.2501 -0.1280 -0.3156
22446SOL    HW274200   3.427   0.455   8.038  0.7849  0.5721 -0.0047
22447SOL     OW74201   1.670  12.265  10.179  0.3832 -0.3014  0.2751
22447SOL    HW174202   1.650  12.178  10.143  0.6244 -0.6949  1.0684
22447SOL    HW274203   1.747  12.251  10.234 -0.6614  0.0239  1.8791
22448SOL     OW74204   1.513   3.223   5.939  0.0844 -0.0473  0.3805
22448SOL    HW174205   1.461   3.252   5.865 -0.2140  0.6002  0.8334
22448SOL    HW274206   1.600   3.207   5.903 -0.7160 -2.4994 -0.6644
22449SOL     OW74207   5.942   4.652   2.703 -0.0995  0.1583  0.0860
22449SOL    HW174208   5.947   4.567   2.748 -0.2793  0.3483  0.4675
22449SOL    HW274209   5.865   4.695   2.742  0.3373  0.7382  0.3176
22450SOL     OW74210  10.126  11.275   0.121 -0.3078 -0.1078 -0.8093
22450SOL    HW174211  10.070  11.203   0.093 -0.3222  0.5338 -2.5489
22450SOL    HW274212  10.189  11.286   0.050 -0.1969  1.4784 -0.5134
22451SOL     OW74213   3.258   9.257   8.901 -0.6059  0.4429  0.2161
22451SOL    HW174214   3.168   9.267   8.931 -0.5267 -0.0871  0.6517
22451SOL    HW274215   3.297   9.195   8.963 -0.7413 -1.5244 -1.5644
22452SOL     OW74216   0.830  12.392  11.187  0.2242 -0.3848 -0.2518
22452SOL    HW174217   0.818  12.331  11.114 -0.0602 -1.0713  0.3604
22452SOL    HW274218   0.872  12.340  11.256 -0.4819 -0.0340  0.4638
22453SOL     OW74219   7.559   2.767   3.724  0.5069  0.6690 -0.0926
22453SOL    HW174220   7.468   2.758   3.696  0.2923  1.5898  0.2694
22453SOL    HW274221   7.588   2.677   3.742 -0.1198  0.3079 -0.8379
22454SOL     OW74222   7.174   3.341   3.699 -0.1344 -0.6744  0.2239
22454SOL    HW174223   7.221   3.257   3.699 -0.4267 -0.8496 -0.8530
22454SOL    HW274224   7.238   3.404   3.734 -0.0056 -1.3751  1.3197
22455SOL     OW74225   5.134   1.959   0.522 -0.0873  0.2624 -0.1285
22455SOL    HW174226   5.099   1.871   0.535  0.6221  0.0742  0.5967
22455SOL    HW274227   5.071   2.016   0.566  0.8188 -0.1314  1.7712
22456SOL     OW74228   1.032   7.591   4.238  0.2617  0.2319  1.0148
22456SOL    HW174229   1.081   7.532   4.181 -1.9472 -0.1698 -0.6270
22456SOL    HW274230   1.076   7.585   4.322  0.8104 -2.9592  0.6472
22457SOL     OW74231  11.619   9.476   0.116  0.0133 -0.2470  0.5313
22457SOL    HW174232  11.669   9.545   0.160 -1.5607  0.4384  1.3292
22457SOL    HW274233  11.568   9.436   0.186 -2.9724  1.2187 -0.6553
22458SOL     OW74234   5.604   9.007   2.661 -0.0698  0.5509  0.1914
22458SOL    HW174235   5.659   9.076   2.700  1.0607  0.3864 -1.0234
22458SOL    HW274236   5.540   9.055   2.609 -0.7492  0.7302  1.1693
22459SOL     OW74237   1.225  11.018  11.611 -0.8383  0.1548 -0.2835
22459SOL    HW174238   1.183  11.026  11.697 -1.4617  1.8077 -0.7058
22459SOL    HW274239   1.154  10.997  11.551 -0.6633  0.5002 -0.6180
22460SOL     OW74240  10.234   2.006   9.175  0.0363 -0.5139 -0.0019
22460SOL    HW174241  10.321   2.019   9.135  0.2908 -1.0268  0.3704
22460SOL    HW274242  10.174   2.049   9.114  0.6454  0.7631  0.2588
22461SOL     OW74243   9.346   1.443   4.204  0.2272 -0.0473 -0.4545
22461SOL    HW174244   9.440   1.447   4.221  0.0498  1.3099  0.3249
22461SOL    HW274245   9.310   1.393   4.277  0.3985 -1.1140 -1.0806
22462SOL     OW74246   2.597   8.568   3.393 -0.1360  0.5131  0.1256
22462SOL    HW174247   2.521   8.515   3.417  0.0116 -0.2524 -1.0243
22462SOL    HW274248   2.672   8.512   3.409 -0.0086  0.1277 -1.6277
22463SOL     OW74249   8.584  10.769   3.453  0.2809 -0.1217 -0.0416
22463SOL    HW174250   8.639  10.842   3.482  0.2583  0.5442 -1.5877
22463SOL    HW274251   8.566  10.787   3.361 -2.6101 -0.2623  0.4073
22464SOL     OW74252   6.079   6.548   2.029  0.6780  0.3389 -0.0594
22464SOL    HW174253   6.093   6.454   2.035  1.0519  0.4652  2.2551
22464SOL    HW274254   6.001   6.564   2.083  1.8000  1.5404  1.2900
22465SOL     OW74255   5.992   0.685   1.116 -0.1026 -0.1250 -0.7147
22465SOL    HW174256   6.033   0.666   1.032 -0.1200 -2.1101 -0.3236
22465SOL    HW274257   5.908   0.639   1.114 -1.0285  1.4729 -0.3646
22466SOL     OW74258   0.518   9.282   7.416 -0.9677  0.7708  0.7238
22466SOL    HW174259   0.533   9.208   7.356  0.8364  0.2050  1.7754
22466SOL    HW274260   0.444   9.329   7.378 -0.4586 -0.0460 -1.4698
22467SOL     OW74261   4.241  10.536   3.683  0.4892 -0.0160  0.0102
22467SOL    HW174262   4.257  10.577   3.598  1.1795  1.1041  0.6561
22467SOL    HW274263   4.196  10.453   3.662  1.0215  0.0408 -1.4519
22468SOL     OW74264  11.846  10.556   0.570 -0.5902  0.2857  0.1417
22468SOL    HW174265  11.843  10.545   0.665  0.3968 -1.2003  0.0361
22468SOL    HW274266  11.786  10.491   0.535  0.5524 -0.5771 -0.2959
22469SOL     OW74267   7.170  11.555   4.574  0.4406  0.2592 -0.0051
22469SOL    HW174268   7.142  11.615   4.643  2.5308 -0.7498  1.8760
22469SOL    HW274269   7.130  11.471   4.598 -0.8366  0.4237 -1.4708
22470SOL     OW74270   9.571  12.146   1.206  0.6532 -0.2413  1.0279
22470SOL    HW174271   9.635  12.156   1.135  1.4254 -0.3448  1.6976
22470SOL    HW274272   9.561  12.051   1.216  0.0972 -0.2308  0.6847
22471SOL     OW74273  10.855   8.152   6.594  0.2139 -0.1447  0.1845
22471SOL    HW174274  10.881   8.236   6.557 -0.1555 -0.6778 -1.3577
22471SOL    HW274275  10.787   8.173   6.657  1.8342  0.9262  1.6906
22472SOL     OW74276  12.142   9.057   4.862 -0.5376  0.5862  0.0501
22472SOL    HW174277  12.170   9.126   4.801 -0.1202  0.9645  0.6636
22472SOL    HW274278  12.135   9.101   4.946  0.4587 -0.2682  0.6024
22473SOL     OW74279   0.925   4.942   3.368  0.5025  0.1717  0.1918
22473SOL    HW174280   0.987   4.872   3.343  1.2123  0.3885  1.2631
22473SOL    HW274281   0.888   4.912   3.451  2.2840  1.8888  1.7344
22474SOL     OW74282  10.298   9.559   9.639  0.1081 -0.0069  0.6127
22474SOL    HW174283  10.220   9.515   9.672  0.2112 -0.1444  0.6758
22474SOL    HW274284  10.321   9.622   9.708  1.4845 -1.6567  1.7738
22475SOL     OW74285   9.554   8.507   6.365 -0.4741  0.3909  0.2116
22475SOL    HW174286   9.568   8.486   6.272 -1.3015  2.4388 -0.4234
22475SOL    HW274287   9.469   8.467   6.385 -1.2064  1.5292 -0.4885
22476SOL     OW74288   7.198   6.560   9.580 -0.5083 -0.3969 -0.5366
22476SOL    HW174289   7.172   6.561   9.488  1.4447 -3.4735 -1.2587
22476SOL    HW274290   7.239   6.646   9.594 -0.0578 -0.1691 -2.8059
22477SOL     OW74291   0.562   2.198   2.983 -0.3962 -0.6354  0.6402
22477SOL    HW174292   0.655   2.178   2.972 -0.5135 -0.1541 -1.8513
22477SOL    HW274293   0.523   2.118   3.017  0.8142 -1.0189  1.1811
22478SOL     OW74294  10.660   8.913   3.317  0.1342  0.8881  0.6746
22478SOL    HW174295  10.728   8.846   3.326 -2.9066 -2.7593 -0.7014
22478SOL    HW274296  10.619   8.918   3.404 -1.0386 -0.8408  0.2622
22479SOL     OW74297   9.329   5.006   3.455 -0.6680  0.3186  0.4992
22479SOL    HW174298   9.397   5.070   3.476  1.6251 -1.4257 -1.1807
22479SOL    HW274299   9.257   5.028   3.515  0.3894  3.7213  0.7662
22480SOL     OW74300  10.302   0.897  12.474  0.6469 -0.0912 -0.0661
22480SOL    HW174301  10.386   0.867  12.509  1.5387  1.0687 -1.1165
22480SOL    HW274302  10.297   0.858  12.387 -0.3617 -0.8967  0.3288
22481SOL     OW74303   2.146   5.404   2.056 -0.2160 -0.3635 -0.2519
22481SOL    HW174304   2.166   5.311   2.047 -0.5082 -0.3654 -0.9320
22481SOL    HW274305   2.184   5.444   1.978 -0.6219 -0.0009 -0.2654
22482SOL     OW74306   3.282   8.131   4.987  0.0332 -0.0295  0.1229
22482SOL    HW174307   3.230   8.053   5.004  1.5951 -1.2547 -0.5084
22482SOL    HW274308   3.302   8.166   5.074 -1.5967  0.3434  0.3804
22483SOL     OW74309   3.361   0.326   0.783 -0.1627 -0.0496  0.1284
22483SOL    HW174310   3.318   0.319   0.698  0.8571 -0.4453 -0.3725
22483SOL    HW274311   3.428   0.394   0.771 -0.5761  0.5074  0.8695
22484SOL     OW74312  11.224  11.173   0.779 -0.4492  0.2060  0.0264
22484SOL    HW174313  11.299  11.162   0.721 -1.0712  0.7880 -0.9277
22484SOL    HW274314  11.261  11.204   0.861  0.4349 -0.4031 -0.1327
22485SOL     OW74315   4.859   8.248   0.731 -0.1723 -0.0361  0.6075
22485SOL    HW174316   4.909   8.301   0.793 -1.0516 -1.7245  2.8957
22485SOL    HW274317   4.774   8.293   0.725 -0.4333 -0.3939  1.4564
22486SOL     OW74318  12.182   8.278  12.036 -0.3742 -0.0248  0.1251
22486SOL    HW174319  12.256   8.304  11.983  0.8279  0.7197  2.0716
22486SOL    HW274320  12.133   8.217  11.981  3.0531 -2.6303 -0.3680
22487SOL     OW74321   9.701   2.091   7.402 -0.0206  0.7873 -0.1303
22487SOL    HW174322   9.725   2.023   7.339 -1.9992 -0.9637  0.8760
22487SOL    HW274323   9.662   2.160   7.348  2.4191  1.4233 -1.2170
22488SOL     OW74324  11.671   8.455   4.873 -0.0061 -0.1827 -0.3668
22488SOL    HW174325  11.678   8.384   4.810 -0.3663  0.7707 -1.5358
22488SOL    HW274326  11.641   8.530   4.821  2.4425  1.4304  0.3384
22489SOL     OW74327   8.800  10.614   4.990  0.1886 -0.2345  0.3104
22489SOL    HW174328   8.769  10.527   5.017  1.8049 -0.0364  3.1292
22489SOL    HW274329   8.895  10.603   4.979  0.3903  1.1422  0.5353
22490SOL     OW74330   2.814   3.155   5.030 -0.3724  0.4140 -0.0212
22490SOL    HW174331   2.735   3.199   5.001 -1.6004 -1.6302 -0.0083
22490SOL    HW274332   2.810   3.069   4.989  0.3109 -0.8137  2.2833
22491SOL     OW74333   2.021   3.321  11.576 -0.5685  0.1143  0.2392
22491SOL    HW174334   2.008   3.382  11.503 -1.2753  1.5152  1.4773
22491SOL    HW274335   1.933   3.307  11.611 -0.4077 -1.6429  0.0033
22492SOL     OW74336   5.148   8.519   4.896 -0.2176 -0.2811 -0.5224
22492SOL    HW174337   5.228   8.531   4.947 -0.4040  1.7736 -0.6397
22492SOL    HW274338   5.099   8.453   4.944  0.6393 -0.0773  0.6836
22493SOL     OW74339   1.464   5.644   4.645 -0.5397  0.2535 -0.4448
22493SOL    HW174340   1.502   5.588   4.713  1.7379  0.5289 -1.4226
22493SOL    HW274341   1.369   5.634   4.656 -0.2090 -1.9893  0.8792
22494SOL     OW74342  12.392   0.439   2.200 -0.1454  0.9029 -0.3376
22494SOL    HW174343  12.367   0.519   2.152 -1.4363 -0.2544 -1.6783
22494SOL    HW274344  12.320   0.378   2.184  1.9113 -1.3879 -1.3897
22495SOL     OW74345   5.280  10.115   3.318  0.2977 -0.5093  0.0337
22495SOL    HW174346   5.364  10.145   3.282  1.1209 -0.9424  1.4841
22495SOL    HW274347   5.254  10.185   3.378  0.5763 -1.1871  0.9726
22496SOL     OW74348   0.696   2.338  10.056 -0.5347  0.1244  0.0202
22496SOL    HW174349   0.774   2.373  10.013  0.4059  0.6062  2.0076
22496SOL    HW274350   0.626   2.348   9.991  0.8855  0.3920 -1.5312
22497SOL     OW74351   2.320   0.503   0.236 -0.0363  0.2737  0.1284
22497SOL    HW174352   2.288   0.444   0.304 -1.6735  1.7990  0.7711
22497SOL    HW274353   2.285   0.467   0.154 -0.5716  0.0570  0.4460
22498SOL     OW74354   1.897   6.799   2.867  0.6392 -0.6006 -0.6181
22498SOL    HW174355   1.842   6.875   2.885  2.3337  0.8817 -1.3379
22498SOL    HW274356   1.932   6.775   2.952 -0.7893 -1.3326 -0.2090
22499SOL     OW74357   6.930   0.601   3.827 -0.0386  0.2594 -0.1251
22499SOL    HW174358   6.951   0.603   3.734  0.7471  1.1937  0.0515
22499SOL    HW274359   6.877   0.679   3.842  2.2520  1.7740  0.7030
22500SOL     OW74360   4.309   4.294   2.066  0.3305  0.0011 -0.7738
22500SOL    HW174361   4.343   4.382   2.048 -0.2339  0.2712 -0.5496
22500SOL    HW274362   4.375   4.254   2.122  1.4560 -0.3675 -2.2970
22501SOL     OW74363   2.801   8.924   6.950 -0.3626  0.2233 -0.0740
22501SOL    HW174364   2.753   8.859   6.899 -2.9306  0.8637  1.2896
22501SOL    HW274365   2.856   8.969   6.887 -1.8156 -0.3996 -1.8827
22502SOL     OW74366  12.437   7.462   1.271  0.5012 -0.4918  0.3535
22502SOL    HW174367  12.491   7.542   1.267  0.0384 -0.1864  0.1685
22502SOL    HW274368  12.468   7.417   1.350 -1.5041  1.5493  2.4773
22503SOL     OW74369   1.308   2.932   3.830 -0.8824 -0.7993  0.2953
22503SOL    HW174370   1.364   2.854   3.834 -0.3882 -0.4563  0.1974
22503SOL    HW274371   1.368   3.003   3.806 -1.8532 -0.9267 -3.0422
22504SOL     OW74372   0.348   3.461   6.694  0.0683 -0.1952  0.5507
22504SOL    HW174373   0.410   3.531   6.677 -1.4763  0.9224 -0.8823
22504SOL    HW274374   0.263   3.498   6.669 -1.0745 -1.9174  1.6500
22505SOL     OW74375   2.125   8.582   4.208 -0.1206  0.2672  0.5319
22505SOL    HW174376   2.046   8.548   4.249 -0.6956  0.0923 -0.6602
22505SOL    HW274377   2.118   8.553   4.116  1.7314 -0.4875  0.5849
22506SOL     OW74378  11.105  11.585  12.021  0.0049  0.7172 -0.3732
22506SOL    HW174379  11.099  11.681  12.017  1.2189  0.7508 -1.7832
22506SOL    HW274380  11.026  11.555  11.975 -0.8963  0.9911  0.9125
22507SOL     OW74381  10.484  11.177   3.049  0.3643 -0.1770 -0.3392
22507SOL    HW174382  10.467  11.092   3.088 -1.4480  0.5913  0.6584
22507SOL    HW274383  10.517  11.231   3.121  1.8426 -0.0822 -1.0328
22508SOL     OW74384   1.312   7.897  10.344  0.0511 -0.3128 -0.3417
22508SOL    HW174385   1.371   7.929  10.276 -0.8643  0.9749 -0.5721
22508SOL    HW274386   1.370   7.873  10.417  0.9891 -1.0684 -1.3098
22509SOL     OW74387   3.482   9.372   3.036 -0.3426 -0.4196  0.0215
22509SOL    HW174388   3.503   9.326   2.954  0.8364  1.7380 -0.9775
22509SOL    HW274389   3.397   9.413   3.019  0.2543  0.6560 -0.4396
22510SOL     OW74390   9.975   0.846   3.888 -0.9237 -0.3379 -0.3630
22510SOL    HW174391  10.064   0.864   3.919 -0.9901 -2.3251  1.2101
22510SOL    HW274392   9.939   0.932   3.869  0.9247  0.6160  0.1575
22511SOL     OW74393   8.191   7.550   7.987  0.3059 -0.4375  0.1507
22511SOL    HW174394   8.235   7.584   7.908 -1.1117  0.9741 -0.0696
22511SOL    HW274395   8.156   7.628   8.030 -2.2524 -1.5145  0.1418
22512SOL     OW74396   2.707   6.490  11.484  0.4261  0.1270 -0.3019
22512SOL    HW174397   2.697   6.565  11.426 -0.0140  0.3058 -0.0057
22512SOL    HW274398   2.740   6.420  11.429  6.3404  1.8811  0.2679
22513SOL     OW74399   6.703   2.801   4.182 -0.0546 -0.4009  0.0805
22513SOL    HW174400   6.710   2.724   4.238 -2.4338 -0.3719  0.5444
22513SOL    HW274401   6.612   2.799   4.150  0.4799  1.0036 -1.7108
22514SOL     OW74402   0.099   3.937   4.463 -0.0728  0.7538 -0.4716
22514SOL    HW174403   0.036   3.922   4.392  0.1073 -0.8923 -0.3228
22514SOL    HW274404   0.179   3.893   4.435 -0.3189 -0.8792  1.1699
22515SOL     OW74405   4.788   9.496  10.541 -0.0726 -0.5993  0.0068
22515SOL    HW174406   4.811   9.462  10.627 -1.3574 -0.5760  0.3843
22515SOL    HW274407   4.821   9.586  10.541  1.1159 -1.0250 -0.0481
22516SOL     OW74408   0.373   8.498   4.426 -0.2151  0.4079  0.3197
22516SOL    HW174409   0.461   8.465   4.446 -0.2373  0.0282 -0.1895
22516SOL    HW274410   0.315   8.447   4.483 -0.1532  0.2860  0.2748
22517SOL     OW74411  12.224   3.795  12.432  0.7399  0.0443  0.4280
22517SOL    HW174412  12.185   3.848  12.362 -0.0446  1.2820  1.7462
22517SOL    HW274413  12.251   3.859  12.497  0.6008 -1.1343  1.6761
22518SOL     OW74414  11.764   3.554   9.545 -0.0236  0.1153 -0.4724
22518SOL    HW174415  11.771   3.560   9.640 -1.2960 -3.3639 -0.0003
22518SOL    HW274416  11.854   3.565   9.514  0.3711  1.6459  1.0409
22519SOL     OW74417   4.582   3.095   0.246 -0.1551 -0.3479  0.6857
22519SOL    HW174418   4.616   3.082   0.335  0.2627 -0.2330  0.5456
22519SOL    HW274419   4.546   3.010   0.222 -0.2716 -0.3802  0.9682
22520SOL     OW74420   5.836   4.766   0.498 -0.3516  0.1088  0.6431
22520SOL    HW174421   5.863   4.856   0.515 -0.7281  0.3522 -0.0334
22520SOL    HW274422   5.865   4.718   0.576  1.1997  0.5195  0.3470
22521SOL     OW74423  11.633   2.104   5.013 -0.0791 -0.0415 -0.0467
22521SOL    HW174424  11.600   2.069   4.930  0.1332  1.2969 -0.7220
22521SOL    HW274425  11.593   2.191   5.020  1.2818  0.5885  0.3520
22522SOL     OW74426  11.214   5.813   9.395  0.5482  0.0319  0.3609
22522SOL    HW174427  11.235   5.904   9.418 -3.2555  1.2767 -0.4633
22522SOL    HW274428  11.251   5.801   9.307  2.1490  0.2792  0.9616
22523SOL     OW74429   5.016   9.081   8.831 -0.0256 -0.4367 -0.2953
22523SOL    HW174430   5.100   9.117   8.858 -0.4569  0.5284 -0.1934
22523SOL    HW274431   5.038   9.007   8.775  0.8861 -0.5914  0.2607
22524SOL     OW74432   7.307   0.106   0.687 -0.6104  0.0377 -0.1412
22524SOL    HW174433   7.269   0.024   0.721 -0.6397 -0.3273 -1.0214
22524SOL    HW274434   7.233   0.166   0.684 -1.1668 -0.6775 -1.8663
22525SOL     OW74435  10.126   6.597  10.032  0.6416  0.3833  0.2769
22525SOL    HW174436  10.038   6.603   9.995  1.2548 -0.1596 -1.3289
22525SOL    HW274437  10.125   6.658  10.106 -0.2362  2.5898 -1.4500
22526SOL     OW74438   2.495   8.048  11.032 -0.2384 -0.5069  0.0766
22526SOL    HW174439   2.456   8.024  11.116 -1.5895  0.0474 -0.3784
22526SOL    HW274440   2.438   8.008  10.966 -0.5003  0.9389 -0.6132
22527SOL     OW74441   6.129   1.486   6.456 -0.1982 -0.5694 -0.5759
22527SOL    HW174442   6.062   1.468   6.522 -0.0060 -1.3681 -0.5887
22527SOL    HW274443   6.212   1.468   6.500  0.1033  1.4998 -0.2025
22528SOL     OW74444   9.893   0.647   4.222  0.0208  0.3345 -0.5417
22528SOL    HW174445   9.917   0.625   4.132  0.8084 -2.6195  0.2654
22528SOL    HW274446   9.976   0.647   4.270 -0.7074 -3.0759  1.0050
22529SOL     OW74447   4.114   2.577   7.054 -1.0260 -0.0203 -0.1902
22529SOL    HW174448   4.166   2.500   7.076 -2.1374 -0.3472  1.4521
22529SOL    HW274449   4.048   2.582   7.123 -1.2985  2.1154 -0.5308
22530SOL     OW74450   9.029   5.894   5.986 -0.7624  0.3139  0.2070
22530SOL    HW174451   8.980   5.896   5.904  0.8664 -0.9038 -0.8631
22530SOL    HW274452   9.120   5.877   5.959 -0.3771 -1.4516  2.3271
22531SOL     OW74453   6.637   3.627   1.768 -0.3973  0.5665  0.6809
22531SOL    HW174454   6.627   3.532   1.768  3.2958  0.0436  0.6171
22531SOL    HW274455   6.587   3.656   1.844  0.1646 -1.6934  2.0144
22532SOL     OW74456   9.814   1.988   4.854 -1.0026  0.5707 -0.5420
22532SOL    HW174457   9.819   1.915   4.916  0.4087  0.3287 -0.9184
22532SOL    HW274458   9.724   2.019   4.862 -0.8525  0.5839  1.6672
22533SOL     OW74459   3.863   6.760  10.686  0.0024 -0.6271 -0.1023
22533SOL    HW174460   3.907   6.674  10.683  1.8833  0.1527  1.9386
22533SOL    HW274461   3.778   6.742  10.726 -0.4333 -1.7815 -1.4651
22534SOL     OW74462   5.805   4.181   1.646  0.2731  0.4698  0.5551
22534SOL    HW174463   5.870   4.238   1.604  1.5466 -1.2991  0.0467
22534SOL    HW274464   5.720   4.216   1.617  1.0661  0.8975 -1.3464
22535SOL     OW74465   9.662   6.147  11.825  0.1000 -0.0800 -0.0279
22535SOL    HW174466   9.660   6.057  11.857  1.8436 -0.7849 -1.7181
22535SOL    HW274467   9.744   6.182  11.858  0.2334  0.3270 -0.7727
22536SOL     OW74468   5.175  11.586   1.383 -0.1163  0.3286  0.5391
22536SOL    HW174469   5.221  11.598   1.467  1.8286  1.6241 -0.6432
22536SOL    HW274470   5.122  11.665   1.374  1.0727  1.0634 -0.2513
22537SOL     OW74471  10.187   3.373   6.052  0.3338  0.2056 -0.9367
22537SOL    HW174472  10.231   3.439   5.998 -0.8163  1.0775 -0.8564
22537SOL    HW274473  10.159   3.306   5.991 -1.7011  1.5909 -1.6249
22538SOL     OW74474   9.203   9.358  10.063  0.5448 -0.0264 -0.0502
22538SOL    HW174475   9.283   9.395  10.026  0.1265 -0.1668 -1.1247
22538SOL    HW274476   9.148   9.339   9.987 -0.9751  1.1042  0.7311
22539SOL     OW74477   3.705   2.184   9.765 -0.3835 -0.1034 -0.8198
22539SOL    HW174478   3.799   2.181   9.783 -0.7614 -2.5190  1.2476
22539SOL    HW274479   3.690   2.116   9.699 -0.9124 -1.0882  0.2904
22540SOL     OW74480   5.810  12.046  11.162 -0.5548  0.0588  0.5857
22540SOL    HW174481   5.838  12.039  11.070 -1.8717  0.3924  0.1410
22540SOL    HW274482   5.721  12.080  11.157 -0.9240 -0.6665  1.9728
22541SOL     OW74483   1.464   0.409  11.947  0.1805 -0.4862  0.0450
22541SOL    HW174484   1.414   0.393  12.026  0.7451  0.3989  0.6030
22541SOL    HW274485   1.556   0.407  11.975  0.3622  2.1041 -0.0593
22542SOL     OW74486   3.386  10.159   4.714  0.3363  0.3115  0.3577
22542SOL    HW174487   3.321  10.151   4.645 -0.8430 -0.0937  1.4719
22542SOL    HW274488   3.351  10.106   4.786  1.5607  0.6537  1.2373
22543SOL     OW74489   7.375  11.190   8.883  0.0915  0.5055 -0.1872
22543SOL    HW174490   7.436  11.238   8.939  2.6638 -0.6534 -1.7990
22543SOL    HW274491   7.407  11.100   8.883  0.1254  0.4094 -3.2522
22544SOL     OW74492   7.004  10.020   2.072  0.5137 -0.0923 -0.0745
22544SOL    HW174493   7.032   9.965   2.145  1.2161  0.0255 -0.2470
22544SOL    HW274494   7.027  10.109   2.099 -0.2423  0.0774  0.0282
22545SOL     OW74495   6.860   4.631   4.644  0.2739 -0.3499  0.1174
22545SOL    HW174496   6.922   4.576   4.595 -1.1975 -1.0414 -1.0587
22545SOL    HW274497   6.839   4.703   4.585  0.0319 -0.0673  0.5392
22546SOL     OW74498   3.603   2.427   2.052 -0.1522  0.1998  0.0479
22546SOL    HW174499   3.699   2.434   2.048 -0.1788 -0.0256 -2.1435
22546SOL    HW274500   3.586   2.338   2.080  0.3026 -0.1115 -0.6406
22547SOL     OW74501   5.229   4.881  11.052  0.9907  0.3086 -0.0755
22547SOL    HW174502   5.201   4.859  10.963  0.2607  1.6392 -0.1978
22547SOL    HW274503   5.203   4.805  11.105 -1.1083  0.6224 -0.5416
22548SOL     OW74504   6.067   9.235   4.745 -0.4166 -0.2689 -0.9028
22548SOL    HW174505   6.003   9.301   4.770  1.7470  1.4871  0.3896
22548SOL    HW274506   6.023   9.151   4.760 -2.7826  0.8381 -1.2585
22549SOL     OW74507   0.261   1.931  11.164  0.2414  0.1127 -1.1681
22549SOL    HW174508   0.265   1.951  11.071  0.0594  1.4592 -0.9000
22549SOL    HW274509   0.339   1.972  11.202 -0.6505  1.2247 -0.4581
22550SOL     OW74510  12.226   9.428   9.014 -0.5566 -0.5806  0.5085
22550SOL    HW174511  12.260   9.494   9.074 -0.0441 -0.1751 -0.2164
22550SOL    HW274512  12.303   9.396   8.968 -0.8220 -1.5634  0.7213
22551SOL     OW74513  11.286   3.664   5.154  0.5338  0.1183 -0.4698
22551SOL    HW174514  11.294   3.570   5.169  0.7450  0.3331  0.9386
22551SOL    HW274515  11.194   3.683   5.172  0.7979  0.3877  0.7000
22552SOL     OW74516   7.249   5.857   1.594  0.6126  0.0687 -0.0485
22552SOL    HW174517   7.304   5.816   1.661  0.3400  1.1385  0.8528
22552SOL    HW274518   7.298   5.846   1.513  1.1235 -0.9313  0.3767
22553SOL     OW74519  12.480   4.555   6.593 -0.2824 -0.2013  0.3452
22553SOL    HW174520  12.460   4.647   6.575 -2.5016 -0.8313 -0.6936
22553SOL    HW274521  12.455   4.542   6.684  0.0110  0.2135  0.4857
22554SOL     OW74522  11.578   8.073   0.944  0.4875  1.0679  0.0193
22554SOL    HW174523  11.622   8.034   0.869 -1.0328  1.1419 -0.9630
22554SOL    HW274524  11.610   8.163   0.946  2.0346  0.5329  0.7082
22555SOL     OW74525   8.996   9.831   2.900  0.1052 -0.3681  0.1947
22555SOL    HW174526   8.927   9.842   2.835  0.1146  0.1319  0.2618
22555SOL    HW274527   8.953   9.787   2.974 -0.2619  0.3513  0.4193
22556SOL     OW74528   9.021   7.663   6.029 -0.4672  0.5203 -0.1932
22556SOL    HW174529   9.098   7.660   6.085  0.2701  0.3238 -1.2019
22556SOL    HW274530   9.052   7.701   5.947 -1.0870 -0.9560 -1.1493
22557SOL     OW74531   3.840  10.112   8.671 -0.2748 -0.4641 -0.2093
22557SOL    HW174532   3.932  10.088   8.675 -0.0763  0.1824 -0.8105
22557SOL    HW274533   3.813  10.093   8.582 -1.0285 -1.6846  0.2496
22558SOL     OW74534   6.668  12.143   5.040  0.0695 -0.1000 -0.3894
22558SOL    HW174535   6.716  12.073   5.086 -0.0014 -1.1295 -1.8177
22558SOL    HW274536   6.686  12.127   4.948  0.9589  2.4818 -0.7410
22559SOL     OW74537   3.467  10.565   5.194 -0.5715  0.9561  0.4269
22559SOL    HW174538   3.491  10.591   5.105 -0.3964  0.8435  0.4408
22559SOL    HW274539   3.372  10.572   5.196 -0.5048  2.0612  0.5735
22560SOL     OW74540  10.638   7.240   6.309 -0.1349  0.3532  0.1733
22560SOL    HW174541  10.554   7.240   6.263 -0.2993  1.7603  0.4143
22560SOL    HW274542  10.687   7.313   6.270 -0.2337  1.5220  2.0810
22561SOL     OW74543   6.059   6.781  11.472 -0.9131  0.0638  0.0043
22561SOL    HW174544   6.117   6.805  11.399  0.4736 -2.3342  0.1916
22561SOL    HW274545   6.058   6.858  11.528 -0.5386  1.3239 -1.6397
22562SOL     OW74546   7.873   2.580   1.622 -0.1588  0.0482  0.2199
22562SOL    HW174547   7.816   2.524   1.568  1.5187 -0.2987 -1.2966
22562SOL    HW274548   7.957   2.577   1.577  1.8292 -1.4576  3.6752
22563SOL     OW74549   1.124   6.330   9.123 -0.0042  0.1404 -0.1326
22563SOL    HW174550   1.038   6.292   9.142 -0.3168  0.8640 -0.0598
22563SOL    HW274551   1.158   6.277   9.051  0.1423 -1.0964  0.8089
22564SOL     OW74552   5.229  11.521  11.115  0.1718 -0.5079 -0.7943
22564SOL    HW174553   5.216  11.574  11.036 -1.6065 -0.7032 -0.6843
22564SOL    HW274554   5.302  11.464  11.094  0.3655  0.1246 -1.9339
22565SOL     OW74555   7.873  11.275   5.655 -0.5682 -0.5106 -0.0245
22565SOL    HW174556   7.777  11.275   5.653 -0.5672 -0.5116 -0.0775
22565SOL    HW274557   7.895  11.265   5.748 -0.6187 -1.1269 -0.0747
22566SOL     OW74558   8.965   9.750   3.639  0.0892  0.4351  0.3277
22566SOL    HW174559   8.937   9.832   3.679  2.8668  1.6303  0.0285
22566SOL    HW274560   8.973   9.771   3.546 -0.0030 -0.4378  0.1143
22567SOL     OW74561   9.753   7.166   7.308 -0.5322 -0.2035 -0.3722
22567SOL    HW174562   9.788   7.207   7.229  0.7666  0.4004  0.4735
22567SOL    HW274563   9.824   7.109   7.338 -0.3188  0.8229  1.2322
22568SOL     OW74564   1.690   3.109   5.357  0.4370 -0.2764  0.5177
22568SOL    HW174565   1.661   3.186   5.308  1.1489 -1.3091 -1.6677
22568SOL    HW274566   1.785   3.111   5.352  0.4641 -1.4002  0.2128
22569SOL     OW74567   7.062   9.384   4.511 -0.1906 -0.2759  0.1028
22569SOL    HW174568   7.038   9.292   4.523  1.5064 -1.1028 -2.1108
22569SOL    HW274569   7.083   9.415   4.599  0.9514 -2.5539  0.7056
22570SOL     OW74570   8.219   8.673   9.625  0.8577  0.2876  0.5670
22570SOL    HW174571   8.233   8.717   9.541  1.4558  0.3004  0.6688
22570SOL    HW274572   8.302   8.629   9.642  0.2407 -0.9570  0.4243
22571SOL     OW74573  10.030   3.955   7.328 -0.3609  0.4382 -0.0726
22571SOL    HW174574  10.084   3.883   7.296 -1.2185 -0.7413  1.0268
22571SOL    HW274575   9.942   3.917   7.337 -1.3257  2.1870 -1.4384
22572SOL     OW74576   6.630   8.430   4.349 -0.3878  0.4250 -0.0161
22572SOL    HW174577   6.542   8.467   4.348 -0.5936 -0.0425  0.6699
22572SOL    HW274578   6.674   8.474   4.422 -0.8955 -1.2620  1.3414
22573SOL     OW74579  11.720   6.043   3.286 -0.2759 -0.1932  0.5540
22573SOL    HW174580  11.798   6.025   3.235 -1.3210 -1.8364 -0.5573
22573SOL    HW274581  11.722   6.138   3.300  0.5848  0.1808 -1.6871
22574SOL     OW74582   7.016   0.169  11.822 -0.6718  0.2101 -0.2654
22574SOL    HW174583   6.928   0.189  11.791 -0.5908 -0.2191 -0.7775
22574SOL    HW274584   7.014   0.192  11.915 -1.2596  0.4055 -0.3203
22575SOL     OW74585   5.984   4.515  11.611 -0.4794 -0.0602 -0.7936
22575SOL    HW174586   5.960   4.581  11.677  1.7019  0.9850 -0.9221
22575SOL    HW274587   6.048   4.460  11.656 -0.4609 -0.5630 -1.4304
22576SOL     OW74588   9.042  11.293   1.185  0.3165 -0.3606 -0.9491
22576SOL    HW174589   9.015  11.202   1.196  1.6096 -0.6533  0.0458
22576SOL    HW274590   9.136  11.288   1.169  0.4118  0.8090 -0.8138
22577SOL     OW74591   8.052   2.772   7.722  0.8524  0.4296  0.1726
22577SOL    HW174592   8.119   2.821   7.770  1.0815  0.2791  0.0148
22577SOL    HW274593   7.970   2.814   7.744  0.9299  0.2475  0.8413
22578SOL     OW74594  12.031  11.442   4.165  0.4570  0.0480 -0.0593
22578SOL    HW174595  11.964  11.416   4.102  0.1115  0.9459 -0.0864
22578SOL    HW274596  11.982  11.485   4.235  0.9480  0.2024  0.1936
22579SOL     OW74597   4.279   4.607   4.408 -0.2818  0.2307 -0.1689
22579SOL    HW174598   4.284   4.663   4.486 -1.8962  0.6496 -0.3265
22579SOL    HW274599   4.368   4.573   4.397 -0.2636 -0.8198  2.5472
22580SOL     OW74600   6.140   6.783   5.737  0.1972 -0.0965 -0.4936
22580SOL    HW174601   6.199   6.755   5.667 -0.0677 -0.6379 -0.4985
22580SOL    HW274602   6.075   6.838   5.693  0.5604  0.3243 -0.5223
22581SOL     OW74603   7.809  10.605   1.804 -0.2757 -0.4669 -0.5042
22581SOL    HW174604   7.788  10.651   1.885 -0.0625 -0.2088 -0.5939
22581SOL    HW274605   7.738  10.543   1.793  0.5198 -1.6780  0.7582
22582SOL     OW74606  12.000   5.642   8.274 -0.4340  0.4794 -0.1438
22582SOL    HW174607  11.954   5.576   8.222  1.5456  0.5067 -2.1373
22582SOL    HW274608  12.069   5.593   8.319  0.1182  0.9345 -0.4657
22583SOL     OW74609   2.117   6.794  11.156  0.5106  0.4632 -0.4613
22583SOL    HW174610   2.191   6.845  11.124  2.4185 -1.2428  0.9625
22583SOL    HW274611   2.155   6.710  11.183 -1.7681 -0.1090  1.3172
22584SOL     OW74612  11.781   3.216   7.209 -0.3394 -0.5466  0.2947
22584SOL    HW174613  11.875   3.225   7.223 -0.2244  0.5834 -1.0203
22584SOL    HW274614  11.746   3.304   7.219 -1.4183 -1.0706  1.5811
22585SOL     OW74615   9.117   1.347   9.926 -0.1263  0.2165 -0.4898
22585SOL    HW174616   9.089   1.430   9.964  0.6556  0.0405  0.5006
22585SOL    HW274617   9.104   1.359   9.832 -0.9264  1.1085 -0.2817
22586SOL     OW74618  11.216   5.410   0.578  0.5221 -0.1703  0.1238
22586SOL    HW174619  11.246   5.498   0.604  1.6872 -0.1690 -1.1309
22586SOL    HW274620  11.295   5.356   0.582  0.5996 -0.3669 -2.4680
22587SOL     OW74621  11.079   8.934  11.435 -0.0608  0.2234  0.4817
22587SOL    HW174622  11.043   8.994  11.370  0.1440  0.1824  0.3265
22587SOL    HW274623  11.129   8.870  11.383 -1.3953 -0.8930  0.5116
22588SOL     OW74624   1.185   9.415   0.239 -0.4437 -0.0578  0.2421
22588SOL    HW174625   1.256   9.473   0.265  0.0545  0.1665 -1.5001
22588SOL    HW274626   1.199   9.400   0.146 -3.0712  0.5654 -0.3420
22589SOL     OW74627   2.458   3.600   2.045 -0.1853 -0.3951  0.0923
22589SOL    HW174628   2.498   3.673   2.091 -0.3846 -0.7451  0.8371
22589SOL    HW274629   2.364   3.610   2.061 -0.2777 -0.4027 -0.4192
22590SOL     OW74630  12.218   4.581   4.573 -0.4875 -0.1211 -0.2538
22590SOL    HW174631  12.252   4.492   4.573 -1.6352 -0.6061 -1.7410
22590SOL    HW274632  12.140   4.576   4.518 -2.6137  1.0494  2.3971
22591SOL     OW74633   3.804   4.653   9.837  0.2048 -0.2875 -0.3938
22591SOL    HW174634   3.724   4.620   9.795 -0.7125  0.0208  1.0271
22591SOL    HW274635   3.790   4.747   9.846  1.4457  0.0346 -1.5734
22592SOL     OW74636   3.378   1.909   8.688  0.4715  0.3295 -0.6423
22592SOL    HW174637   3.330   1.940   8.612 -2.8834  0.0702  1.1589
22592SOL    HW274638   3.320   1.844   8.728  2.5825 -0.3806  1.5185
22593SOL     OW74639   0.470   8.523   8.179 -0.2392  0.0627 -0.4314
22593SOL    HW174640   0.565   8.518   8.166 -0.3967 -0.6100 -1.4915
22593SOL    HW274641   0.442   8.593   8.119 -0.5552 -0.6080 -1.0813
22594SOL     OW74642   2.089   3.114   3.415 -0.1156  0.1520 -0.0414
22594SOL    HW174643   2.174   3.075   3.434 -0.9151 -2.0990 -0.7318
22594SOL    HW274644   2.095   3.140   3.323 -0.7927 -2.0761 -0.8049
22595SOL     OW74645  11.280  11.290   0.131  0.6854 -0.0629 -0.7411
22595SOL    HW174646  11.293  11.364   0.071 -1.1306  1.0488  0.1564
22595SOL    HW274647  11.185  11.282   0.140  0.8767 -0.3393  1.7771
22596SOL     OW74648   7.228   3.919   2.806 -0.5098  0.2087 -0.0507
22596SOL    HW174649   7.259   3.996   2.759 -2.5706  0.9213 -0.3570
22596SOL    HW274650   7.226   3.850   2.740  0.4100  0.1241 -0.0073
22597SOL     OW74651   9.166   0.125   8.166  0.0860  0.2441 -0.3573
22597SOL    HW174652   9.171   0.219   8.153  0.2899  0.2523 -0.2324
22597SOL    HW274653   9.248   0.091   8.128  0.7353  0.2782  0.9442
22598SOL     OW74654   8.681   6.027   9.751  0.3523  0.2814 -0.0946
22598SOL    HW174655   8.764   6.068   9.777  1.5299 -0.6122 -2.1431
22598SOL    HW274656   8.708   5.950   9.701 -1.7598 -0.6515  0.1037
22599SOL     OW74657   4.882   1.822   3.674  0.0819  0.1654  0.6820
22599SOL    HW174658   4.941   1.765   3.624 -0.5483 -1.0412  1.2567
22599SOL    HW274659   4.936   1.897   3.700  0.9343 -0.1625 -0.1123
22600SOL     OW74660   2.431   2.402   4.372 -0.3150  0.6737 -0.1346
22600SOL    HW174661   2.514   2.438   4.342 -0.1168 -0.0804 -0.5289
22600SOL    HW274662   2.455   2.325   4.424 -0.7901 -0.7961 -1.9688
22601SOL     OW74663   6.434   6.800   8.078  0.4001 -0.0047  0.0519
22601SOL    HW174664   6.480   6.791   8.161 -0.3227 -0.1158  0.4476
22601SOL    HW274665   6.346   6.828   8.102 -0.2102 -1.2775 -0.5765
22602SOL     OW74666  10.724   4.050   8.793 -0.3595  0.5426 -0.1022
22602SOL    HW174667  10.646   4.081   8.837 -1.1013 -0.9310 -0.3295
22602SOL    HW274668  10.695   4.028   8.704  0.0173 -1.1523  0.1634
22603SOL     OW74669   4.224   5.301   6.996  0.2630  0.2909 -0.2458
22603SOL    HW174670   4.192   5.216   6.965 -0.7052  0.8898 -0.9107
22603SOL    HW274671   4.298   5.321   6.939  0.3329  0.0164 -0.2519
22604SOL     OW74672   4.351   4.870   7.530 -0.3428 -0.0761 -0.2594
22604SOL    HW174673   4.446   4.883   7.520 -0.2045  0.0301  1.0063
22604SOL    HW274674   4.325   4.823   7.451  0.7800 -0.1520 -0.6068
22605SOL     OW74675   1.968   4.055   8.180  0.1149  0.8314 -0.1238
22605SOL    HW174676   1.900   4.049   8.113 -0.4998 -0.1398  0.5569
22605SOL    HW274677   1.936   4.122   8.240 -0.4160  0.1698  0.3559
22606SOL     OW74678  11.224  12.371  11.079 -0.4888  0.2840 -0.8244
22606SOL    HW174679  11.266  12.456  11.087  1.4452 -0.6974 -0.0860
22606SOL    HW274680  11.219  12.338  11.169 -0.9784 -0.5047 -1.1309
22607SOL     OW74681   2.559  11.423   9.478 -0.1386 -0.1380 -0.1186
22607SOL    HW174682   2.524  11.337   9.455 -0.0769 -0.2589  0.2250
22607SOL    HW274683   2.497  11.459   9.541 -0.1819  0.0844 -0.2855
22608SOL     OW74684   0.046  10.351   3.217  0.5993 -0.1622 -0.1171
22608SOL    HW174685  -0.022  10.285   3.231 -1.9744  1.7455 -2.5153
22608SOL    HW274686   0.093  10.320   3.139 -0.1239  0.3731 -0.7909
22609SOL     OW74687   8.304   7.432  10.619 -0.0264 -0.3612 -0.0805
22609SOL    HW174688   8.340   7.468  10.701 -2.5328 -0.7748  1.3017
22609SOL    HW274689   8.338   7.343  10.615  1.0307  0.0187 -0.1523
22610SOL     OW74690  12.080   3.426  11.597 -0.5112 -0.2262 -0.3254
22610SOL    HW174691  12.019   3.493  11.626 -0.0502 -0.4788  1.3603
22610SOL    HW274692  12.146   3.473  11.545 -0.1428  0.6587  0.9177
22611SOL     OW74693   2.724  12.226   9.798  0.0715  0.3404  0.7531
22611SOL    HW174694   2.751  12.187   9.715 -0.0134  1.9201 -0.0590
22611SOL    HW274695   2.786  12.298   9.811 -1.3955  1.6607  0.7689
22612SOL     OW74696   3.567   5.689   8.026 -0.0621  0.0051 -0.1725
22612SOL    HW174697   3.604   5.614   8.072  0.0441  1.1202  1.6750
22612SOL    HW274698   3.472   5.680   8.037 -0.1044 -0.3541 -0.7936
22613SOL     OW74699   5.176   5.532   6.238  0.0003 -0.3244 -0.0335
22613SOL    HW174700   5.194   5.451   6.286 -0.0499 -0.7526 -0.7176
22613SOL    HW274701   5.102   5.510   6.181 -1.0861  0.6785  0.9229
22614SOL     OW74702  11.653  12.043   1.655 -0.1987 -0.2567  0.1660
22614SOL    HW174703  11.601  11.978   1.702 -1.3590  0.7441  0.3049
22614SOL    HW274704  11.644  12.018   1.562 -0.6439 -0.2886  0.2162
22615SOL     OW74705   0.926   5.398   7.928 -0.1950  0.2805  0.2470
22615SOL    HW174706   0.958   5.346   7.854 -1.1343  0.1824 -0.0978
22615SOL    HW274707   0.840   5.429   7.901  0.2481  1.8478  0.5413
22616SOL     OW74708   8.630   3.707   9.446 -0.8934 -0.1360  0.3320
22616SOL    HW174709   8.721   3.738   9.450 -0.7028 -0.7668  0.9022
22616SOL    HW274710   8.637   3.612   9.451 -1.6158 -0.1654  0.8716
22617SOL     OW74711   2.126   0.485   9.020  0.0802 -0.1565  0.1245
22617SOL    HW174712   2.118   0.433   8.941 -0.3374 -1.7538  1.1809
22617SOL    HW274713   2.194   0.442   9.071  0.5049  0.9812  0.5467
22618SOL     OW74714   4.169   8.949  10.459  0.3422 -0.5855  0.5553
22618SOL    HW174715   4.245   8.990  10.417  1.1674 -0.9529  1.6382
22618SOL    HW274716   4.095   8.978  10.407  1.1395  0.4603 -0.0486
22619SOL     OW74717   7.792   3.864   5.490 -0.1186  0.5873  0.0759
22619SOL    HW174718   7.748   3.863   5.575  1.1365  0.0172  0.7488
22619SOL    HW274719   7.752   3.792   5.441 -2.8450  2.6233 -0.9454
22620SOL     OW74720  11.328   1.218   8.369  0.0631  0.1349  0.2648
22620SOL    HW174721  11.303   1.270   8.293  0.0121  0.3980  0.4591
22620SOL    HW274722  11.289   1.264   8.443  0.8372  0.3667  0.5370
22621SOL     OW74723   4.066   6.898   7.440  0.0514  0.0075 -0.6006
22621SOL    HW174724   4.021   6.815   7.426  1.9244 -0.9033 -1.5368
22621SOL    HW274725   4.039   6.925   7.528 -1.6015 -0.8990 -0.7905
22622SOL     OW74726   8.491   1.355   5.113 -0.2694 -0.2041  0.4550
22622SOL    HW174727   8.561   1.302   5.074 -0.2316  0.4861 -0.4504
22622SOL    HW274728   8.421   1.354   5.047  0.3665  2.1874 -0.3608
22623SOL     OW74729  11.974   9.853   0.776  0.1995  0.2322  0.5660
22623SOL    HW174730  12.062   9.887   0.792  0.3528  1.1992 -1.8678
22623SOL    HW274731  11.959   9.868   0.683 -1.7460 -1.8282  0.4452
22624SOL     OW74732  12.165   0.977   2.866 -0.2840 -0.1004 -0.5243
22624SOL    HW174733  12.153   1.057   2.815 -2.2259  0.1278  0.1864
22624SOL    HW274734  12.169   1.007   2.957 -1.6188 -0.8115 -0.2017
22625SOL     OW74735   2.283  11.354   2.052 -0.4092 -0.5587  0.4498
22625SOL    HW174736   2.213  11.351   2.117 -1.2405 -0.6501 -0.4436
22625SOL    HW274737   2.310  11.262   2.043 -1.7194 -0.8417 -0.8479
22626SOL     OW74738   4.532   8.867  12.032  0.5950 -0.4000  0.2892
22626SOL    HW174739   4.625   8.845  12.030  0.6313 -0.2820 -1.7481
22626SOL    HW274740   4.488   8.787  12.004  0.2642  0.1375 -0.7913
22627SOL     OW74741   1.803  11.475  11.729 -0.0764  0.1130 -0.2369
22627SOL    HW174742   1.818  11.399  11.785  1.0263  0.6724  0.2700
22627SOL    HW274743   1.727  11.518  11.767 -0.7916 -0.7966 -0.6089
22628SOL     OW74744   6.514   4.538   9.949  0.4202  0.5691  0.1650
22628SOL    HW174745   6.446   4.548   9.882  0.3849  0.9627  0.2526
22628SOL    HW274746   6.500   4.451   9.985 -0.1899  0.7329  0.3410
22629SOL     OW74747  10.039   8.609   5.899 -0.0283  0.0390 -0.0480
22629SOL    HW174748  10.052   8.703   5.908  1.0272 -0.1905  0.9577
22629SOL    HW274749  10.070   8.589   5.810  1.2707  0.4077  0.2976
22630SOL     OW74750   1.234   2.548   2.921  0.1990  0.0120 -0.0970
22630SOL    HW174751   1.238   2.615   2.989 -1.1987  0.2341 -0.2146
22630SOL    HW274752   1.273   2.471   2.961 -0.2852  0.2460  0.8407
22631SOL     OW74753  10.222   2.900  10.715 -0.0411  0.1486 -0.3533
22631SOL    HW174754  10.295   2.893  10.777 -1.0587 -0.3613  0.8315
22631SOL    HW274755  10.192   2.990  10.723  1.1794  0.7129 -1.7269
22632SOL     OW74756   1.427   7.463   2.637  0.3527 -0.6689 -0.0459
22632SOL    HW174757   1.439   7.436   2.545 -2.4555 -1.1025 -0.3642
22632SOL    HW274758   1.498   7.418   2.684  1.4683 -0.9549 -1.8856
22633SOL     OW74759  12.142   7.943   6.742  0.3390 -0.1850  0.0398
22633SOL    HW174760  12.078   7.875   6.723 -1.3042  1.5307 -0.9991
22633SOL    HW274761  12.224   7.896   6.756 -0.2371 -2.2815 -2.6508
22634SOL     OW74762   4.847  11.784   4.872 -0.6839  0.2237  0.2213
22634SOL    HW174763   4.913  11.837   4.916 -0.1175 -0.5793  0.3581
22634SOL    HW274764   4.842  11.821   4.784  0.5481 -0.2019 -0.0505
22635SOL     OW74765   8.190   5.059   8.175  0.4419  0.5229  0.8170
22635SOL    HW174766   8.205   4.973   8.213 -1.6907 -1.0549 -1.5768
22635SOL    HW274767   8.272   5.081   8.131  0.5420 -1.0334  0.1805
22636SOL     OW74768  11.525   6.071   6.827 -0.1325 -0.1323 -0.2772
22636SOL    HW174769  11.598   6.058   6.766  1.5796  1.2839  1.3087
22636SOL    HW274770  11.521   6.167   6.837 -1.6027 -0.2526  0.4004
22637SOL     OW74771   9.789   5.390   5.138 -0.1158 -0.1157 -0.5968
22637SOL    HW174772   9.869   5.443   5.136 -0.5516  0.7043  1.3570
22637SOL    HW274773   9.725   5.443   5.091 -0.4081  0.9320  0.8953
22638SOL     OW74774   8.853   0.986   7.276  0.6165  0.2941  0.3148
22638SOL    HW174775   8.871   1.073   7.312 -1.1770  0.5410  0.7196
22638SOL    HW274776   8.792   0.947   7.338 -1.7471  0.3064 -1.8432
22639SOL     OW74777   5.348  11.565  10.515  0.0505  0.1646  0.2787
22639SOL    HW174778   5.345  11.659  10.503 -1.2016  0.1725  0.5105
22639SOL    HW274779   5.392  11.532  10.437  1.0149  0.9731  0.4702
22640SOL     OW74780   1.967   8.325   9.004 -0.2336  0.3461  0.3637
22640SOL    HW174781   1.979   8.241   8.961 -0.6790  1.0994 -1.3196
22640SOL    HW274782   1.951   8.303   9.096 -2.1367 -1.5322 -0.3304
22641SOL     OW74783   8.914   2.986   6.861 -0.1387  0.2491 -0.8711
22641SOL    HW174784   8.844   3.036   6.818 -1.4832  0.2849  1.2054
22641SOL    HW274785   8.990   3.044   6.860 -0.7360  1.0371 -1.3658
22642SOL     OW74786   7.668   1.185   8.234 -0.2869 -0.2481 -0.0193
22642SOL    HW174787   7.604   1.117   8.255 -1.3949  0.4506 -1.0049
22642SOL    HW274788   7.741   1.168   8.293  0.4738 -3.6752 -1.7038
22643SOL     OW74789   6.621  10.192   3.278  0.0390 -0.0706 -0.5894
22643SOL    HW174790   6.681  10.259   3.310 -0.4887  0.6576 -1.1021
22643SOL    HW274791   6.544  10.240   3.250 -0.8991 -1.0224  0.2833
22644SOL     OW74792   6.329   1.537   5.569  0.5888 -0.1776  0.1573
22644SOL    HW174793   6.296   1.502   5.652 -0.5656 -1.1458 -0.6587
22644SOL    HW274794   6.257   1.523   5.507  1.3308  0.7350 -0.9629
22645SOL     OW74795  12.163  11.842   2.090  0.4855  0.2118  0.2477
22645SOL    HW174796  12.109  11.896   2.148  3.4497  1.4994  2.0514
22645SOL    HW274797  12.126  11.855   2.003 -2.0275  0.9933  1.3422
22646SOL     OW74798   9.386   7.017  10.162  0.1222 -0.0698 -0.4188
22646SOL    HW174799   9.371   7.056  10.249  0.5980  0.7001 -0.6734
22646SOL    HW274800   9.312   6.958  10.150 -1.4250  1.7903 -0.6048
22647SOL     OW74801  10.337   4.505   2.769  0.4814  0.2366  0.3086
22647SOL    HW174802  10.320   4.562   2.844  0.3677  0.0555  0.4200
22647SOL    HW274803  10.404   4.444   2.800  1.7156  1.2363 -0.2644
22648SOL     OW74804   1.849   9.485  11.807 -0.0059 -0.1875 -0.2260
22648SOL    HW174805   1.794   9.556  11.772 -0.4172 -0.7583 -0.7601
22648SOL    HW274806   1.788   9.413  11.820 -0.0650  0.2403  2.5231
22649SOL     OW74807   1.830   0.192   0.281 -0.7472  0.2389  0.4885
22649SOL    HW174808   1.765   0.192   0.211  0.2019 -0.0067 -0.4057
22649SOL    HW274809   1.859   0.283   0.287 -0.1365  0.0851 -0.0942
22650SOL     OW74810   7.041  11.612   4.336 -0.0390 -0.0811  0.0856
22650SOL    HW174811   7.092  11.594   4.415 -0.0475  2.5489  0.7605
22650SOL    HW274812   6.960  11.652   4.367 -0.1522  0.7708 -1.2123
22651SOL     OW74813   4.763   5.288   2.392  0.0620  0.0405 -0.0681
22651SOL    HW174814   4.674   5.319   2.378 -0.1294 -0.5438 -0.1618
22651SOL    HW274815   4.756   5.193   2.389 -0.0059 -0.2419  3.8558
22652SOL     OW74816   0.344   9.029   2.880  0.3852 -0.1530 -0.0510
22652SOL    HW174817   0.282   8.962   2.851  0.5932  0.0679 -1.0252
22652SOL    HW274818   0.288   9.100   2.914  0.1683 -0.9115  1.2677
22653SOL     OW74819   9.210   8.497   3.597 -0.0589 -0.4785 -0.3639
22653SOL    HW174820   9.219   8.507   3.692  0.0393 -0.4986 -0.3706
22653SOL    HW274821   9.295   8.463   3.569 -0.5577 -1.8875 -0.2715
22654SOL     OW74822  11.947   1.781   5.631 -0.0952 -0.3514  0.2129
22654SOL    HW174823  11.990   1.855   5.672 -0.2307  0.9273 -1.8011
22654SOL    HW274824  11.860   1.778   5.671  0.4771 -0.5136  1.5005
22655SOL     OW74825   8.307   4.176  10.270  0.4455 -0.5098 -0.0269
22655SOL    HW174826   8.387   4.210  10.309  0.0105  1.9038 -1.0473
22655SOL    HW274827   8.323   4.178  10.175 -1.9957  3.8569 -0.6101
22656SOL     OW74828  10.448  10.677   4.517  0.0956  0.8439  0.0819
22656SOL    HW174829  10.411  10.765   4.509 -0.7849  0.3859 -1.3610
22656SOL    HW274830  10.373  10.618   4.503  0.8038 -0.1345  0.2754
22657SOL     OW74831   0.329   4.417   8.381 -0.1185  0.4304  0.5103
22657SOL    HW174832   0.319   4.340   8.436  0.0897 -2.9797 -3.7050
22657SOL    HW274833   0.290   4.392   8.297  0.9635  4.5538 -1.4873
22658SOL     OW74834  10.926   7.829   7.973  0.4774  0.4374 -0.0043
22658SOL    HW174835  10.935   7.880   7.893 -0.5589 -0.0740 -0.4593
22658SOL    HW274836  10.845   7.862   8.013  1.2839  1.0980  1.1454
22659SOL     OW74837   7.223   3.971   6.979 -0.1576 -0.4438  1.0111
22659SOL    HW174838   7.133   3.952   7.007 -0.2503  0.6741  1.5060
22659SOL    HW274839   7.278   3.914   7.033 -0.5974 -2.1105 -0.1854
22660SOL     OW74840   5.746   5.150   4.336 -0.0648  1.1621 -0.1681
22660SOL    HW174841   5.748   5.103   4.253  0.2411  0.0731  0.4401
22660SOL    HW274842   5.756   5.242   4.312  0.2194  0.8419 -1.3155
22661SOL     OW74843   3.268   5.803   6.262  0.0595  0.7975  0.4980
22661SOL    HW174844   3.363   5.793   6.255 -0.0182 -0.7814  1.1482
22661SOL    HW274845   3.232   5.740   6.199 -0.5166 -0.6941  2.2090
22662SOL     OW74846   3.818   8.764   4.165 -0.2031 -0.9356 -0.2217
22662SOL    HW174847   3.744   8.767   4.226  0.0659  0.5942  0.0709
22662SOL    HW274848   3.864   8.683   4.187 -0.2497 -0.5291  1.4544
22663SOL     OW74849   8.738   7.529   3.287 -0.0389  0.2024 -0.0788
22663SOL    HW174850   8.761   7.592   3.355 -1.6286 -0.3981  1.0852
22663SOL    HW274851   8.715   7.450   3.336  3.7801 -2.0622 -1.5153
22664SOL     OW74852  11.449  10.629   3.317 -0.1193 -0.5598  0.0891
22664SOL    HW174853  11.393  10.571   3.265  1.6316 -1.7994 -0.4887
22664SOL    HW274854  11.433  10.716   3.281 -1.4244 -0.9180 -0.2629
22665SOL     OW74855   7.541   7.736   2.278  0.1840 -0.0419  0.3924
22665SOL    HW174856   7.477   7.735   2.349 -0.6964 -1.5955 -0.3532
22665SOL    HW274857   7.546   7.644   2.250  1.3414  0.3644 -0.8112
22666SOL     OW74858   7.902   1.426   3.465  0.2861  0.1480 -0.1772
22666SOL    HW174859   7.916   1.497   3.527  0.9205 -0.2982  0.1990
22666SOL    HW274860   7.859   1.358   3.517  0.3449 -0.0269 -0.3581
22667SOL     OW74861   9.395  11.562  11.026  0.4798 -0.3035  0.2341
22667SOL    HW174862   9.330  11.630  11.012  1.5115  0.3417 -1.8211
22667SOL    HW274863   9.441  11.554  10.942  0.6549 -3.2927  0.4979
22668SOL     OW74864  11.999   2.392  10.381 -0.8519 -0.1365  0.2016
22668SOL    HW174865  11.993   2.470  10.325  0.8360 -1.6755 -2.3516
22668SOL    HW274866  11.935   2.332  10.344  0.9300 -1.5236 -0.8218
22669SOL     OW74867   4.578   0.327   9.428 -0.0811 -0.3603 -0.2500
22669SOL    HW174868   4.653   0.269   9.417 -0.8115 -1.1752 -1.1262
22669SOL    HW274869   4.614   0.415   9.419  0.8581 -0.7049 -0.0402
22670SOL     OW74870   8.077   1.590  10.523  0.6579 -0.4018  0.3971
22670SOL    HW174871   8.127   1.668  10.546 -0.0117  0.0417  0.3883
22670SOL    HW274872   7.985   1.617  10.532  0.4135 -1.0077 -0.1902
22671SOL     OW74873   8.125   3.105   8.415  0.7486  0.3792 -0.2779
22671SOL    HW174874   8.147   3.181   8.468  3.9353 -0.7405  0.2389
22671SOL    HW274875   8.116   3.139   8.326 -1.2282  1.7523  0.3621
22672SOL     OW74876   8.662  10.107   3.213 -0.4473  0.5626 -0.8008
22672SOL    HW174877   8.569  10.113   3.236  0.1469  3.3834  1.5843
22672SOL    HW274878   8.706  10.091   3.297  1.2496 -1.8897 -2.0219
22673SOL     OW74879  10.927   9.961   4.057  0.3285 -0.1156  0.4438
22673SOL    HW174880  10.873   9.904   4.002  0.0489 -1.0014  1.6178
22673SOL    HW274881  11.000   9.987   4.000  0.0888 -1.0744 -0.3241
22674SOL     OW74882  11.189   7.302   2.355  0.2105 -0.0635 -0.4904
22674SOL    HW174883  11.153   7.219   2.385  2.2203 -0.2663  1.7347
22674SOL    HW274884  11.139   7.324   2.277 -2.0644 -2.0932  0.2805
22675SOL     OW74885   4.733   1.066   0.034 -0.0532  0.6339  0.6500
22675SOL    HW174886   4.752   1.133   0.099 -1.0705  2.6196 -1.0010
22675SOL    HW274887   4.674   1.108  -0.029  0.3119 -1.3898 -1.1942
22676SOL     OW74888   8.372   7.833   0.876  0.1626 -0.1063 -0.0398
22676SOL    HW174889   8.408   7.915   0.842  1.1303 -0.7782 -0.6915
22676SOL    HW274890   8.422   7.817   0.957  0.3254 -0.3055 -0.1793
22677SOL     OW74891   8.148  10.948   4.082 -0.4015 -0.5784 -0.0676
22677SOL    HW174892   8.075  11.010   4.085 -0.4046 -0.5014 -1.1679
22677SOL    HW274893   8.226  11.001   4.097 -0.3276 -0.1300 -1.8637
22678SOL     OW74894   2.105   4.138  11.436 -0.0993  0.2590 -0.2605
22678SOL    HW174895   2.194   4.117  11.464  0.2526  0.6044 -1.0781
22678SOL    HW274896   2.084   4.071  11.370 -1.0812 -0.8129  1.0812
22679SOL     OW74897   1.849   7.869   8.587 -0.2369  0.1717  0.0294
22679SOL    HW174898   1.872   7.929   8.516 -0.4192 -0.2351 -0.3860
22679SOL    HW274899   1.847   7.783   8.545  2.2788 -0.4894  1.0620
22680SOL     OW74900  11.261   2.610   1.734  0.1300 -0.0902  0.0065
22680SOL    HW174901  11.290   2.568   1.654 -0.8611  1.4685 -1.2355
22680SOL    HW274902  11.170   2.635   1.717  0.8559  3.1853  0.3216
22681SOL     OW74903   0.052  11.246  10.530 -0.2171  0.6477 -0.3044
22681SOL    HW174904  -0.012  11.280  10.468  0.4293  1.9849 -0.2734
22681SOL    HW274905   0.066  11.317  10.592  1.4478  0.4766 -0.4253
22682SOL     OW74906   0.285   8.414   7.570  0.4181  0.1377  0.2147
22682SOL    HW174907   0.281   8.507   7.593 -2.0508  0.0814  0.2765
22682SOL    HW274908   0.317   8.413   7.479 -0.8802  1.1655 -0.2796
22683SOL     OW74909   7.194   5.783   0.640  0.2451  0.6567 -0.8988
22683SOL    HW174910   7.234   5.709   0.595  0.0410 -0.2553  0.3589
22683SOL    HW274911   7.103   5.783   0.609  0.1589  0.1727 -0.6425
22684SOL     OW74912   8.282   8.765   2.117  0.2404  0.0973 -0.7094
22684SOL    HW174913   8.246   8.854   2.123  0.3856  0.0836  0.5141
22684SOL    HW274914   8.206   8.708   2.127  0.3298  0.0801 -0.1070
22685SOL     OW74915   5.154  12.049   2.259 -0.1406 -0.3354  0.1462
22685SOL    HW174916   5.129  12.137   2.230 -3.0937 -1.0468  0.1928
22685SOL    HW274917   5.243  12.037   2.226 -0.1955  2.1114 -1.1253
22686SOL     OW74918   6.144   3.731  12.458 -0.1161 -0.4019 -0.6200
22686SOL    HW174919   6.153   3.761  12.548  2.4969  0.0376 -0.9415
22686SOL    HW274920   6.194   3.649  12.455 -0.6565 -0.7109 -1.5259
22687SOL     OW74921   2.194   0.600   2.150 -0.0008 -0.4244 -0.1662
22687SOL    HW174922   2.179   0.618   2.057 -0.5590  0.2165  0.0432
22687SOL    HW274923   2.181   0.684   2.194 -1.7934 -1.1062  0.7211
22688SOL     OW74924   4.063   7.901   8.810  0.3151 -0.5049  0.2146
22688SOL    HW174925   4.071   7.868   8.721  0.8022 -1.6545  0.6586
22688SOL    HW274926   3.983   7.860   8.844  1.4974 -2.2015  1.1275
22689SOL     OW74927   5.792   7.147  11.306  0.2748 -0.2113  0.4093
22689SOL    HW174928   5.826   7.064  11.337  0.1373 -0.5423 -0.3011
22689SOL    HW274929   5.863   7.185  11.255 -0.3163 -0.8430 -0.9637
22690SOL     OW74930  11.637  11.666   5.254 -0.2790 -0.5424  0.4381
22690SOL    HW174931  11.545  11.680   5.231  0.0376 -0.1309 -0.6273
22690SOL    HW274932  11.683  11.666   5.170  1.1265  2.3580  1.0875
22691SOL     OW74933   6.859   2.886  11.839 -0.4562 -0.1679 -0.2245
22691SOL    HW174934   6.879   2.875  11.746  0.3187 -1.8186  0.0872
22691SOL    HW274935   6.835   2.797  11.868 -1.2086  0.4227  1.0412
22692SOL     OW74936   7.716  12.248   1.604 -0.4997  0.5819  0.1400
22692SOL    HW174937   7.664  12.181   1.648 -2.0606  2.8508  2.0533
22692SOL    HW274938   7.797  12.252   1.654 -0.1847 -0.2073 -0.3000
22693SOL     OW74939   3.295   1.596   9.824 -0.1716  0.4892  0.2443
22693SOL    HW174940   3.341   1.604   9.908 -0.5999  3.1440  0.3206
22693SOL    HW274941   3.298   1.684   9.788  0.7813 -0.7404 -2.9980
22694SOL     OW74942   9.596   2.071   9.966  0.0268  0.2772 -0.5758
22694SOL    HW174943   9.630   1.998  10.018  1.3306  0.0837 -1.6467
22694SOL    HW274944   9.520   2.102  10.015  0.0405 -1.1573  0.4120
22695SOL     OW74945   4.902  10.830  11.042 -0.0007  0.1620  0.4070
22695SOL    HW174946   4.926  10.744  11.075  1.5218  0.5084  0.2946
22695SOL    HW274947   4.821  10.852  11.087 -0.2509 -1.1953  0.6469
22696SOL     OW74948  11.355   0.959   5.510 -0.0320  0.6480 -0.2804
22696SOL    HW174949  11.374   1.048   5.480  0.0337  0.6966 -0.0964
22696SOL    HW274950  11.438   0.913   5.502  0.3388  1.0182  1.0828
22697SOL     OW74951   2.402   7.869   9.080 -0.3921 -0.7622  0.0636
22697SOL    HW174952   2.439   7.957   9.089  0.3524 -0.9845 -0.6485
22697SOL    HW274953   2.468   7.812   9.121 -0.8457 -0.9988  0.4748
22698SOL     OW74954   2.229   3.426   5.383  0.2146 -0.4186  0.1105
22698SOL    HW174955   2.186   3.353   5.338 -1.6899 -0.5520  1.9383
22698SOL    HW274956   2.178   3.437   5.464  2.4768  0.7957  1.4820
22699SOL     OW74957   2.004   9.668   8.856  0.5978  0.6657 -0.4598
22699SOL    HW174958   1.993   9.689   8.763  1.0819  0.1849 -0.6351
22699SOL    HW274959   1.995   9.572   8.860  0.1538  0.7250  0.0552
22700SOL     OW74960   6.956   8.408   6.958  0.0613 -0.0378 -0.1057
22700SOL    HW174961   6.896   8.414   7.032 -0.0147 -1.4947 -0.0132
22700SOL    HW274962   6.954   8.495   6.918  1.1106  1.2320  2.3427
22701SOL     OW74963   2.036   6.943  10.572 -0.1055  0.0759 -0.0685
22701SOL    HW174964   2.011   6.878  10.507 -0.2376  1.2272 -1.1976
22701SOL    HW274965   2.117   6.981  10.539 -1.3230  2.2410 -0.7790
22702SOL     OW74966  10.652   1.493   4.371  0.1629 -0.4682 -0.3156
22702SOL    HW174967  10.585   1.429   4.392  0.0689 -1.0910 -2.2903
22702SOL    HW274968  10.730   1.461   4.417 -0.3123 -1.0135  0.1362
22703SOL     OW74969   7.405   3.443   5.520 -0.9777  0.0840  0.3525
22703SOL    HW174970   7.335   3.505   5.502 -1.0091 -0.0924 -0.1551
22703SOL    HW274971   7.360   3.363   5.547 -0.9312  0.3417  1.2198
22704SOL     OW74972   5.017  12.176   0.083  0.2424 -0.0892 -0.1370
22704SOL    HW174973   4.941  12.152   0.137  0.4063 -0.1117  0.0851
22704SOL    HW274974   5.003  12.268   0.061 -0.1868 -0.2729 -0.6560
22705SOL     OW74975   8.274   9.513   4.945  0.3311  0.0763 -0.8375
22705SOL    HW174976   8.348   9.470   4.990  0.3351  2.2848  1.4966
22705SOL    HW274977   8.196   9.474   4.985  0.3152  0.8830 -0.0616
22706SOL     OW74978   6.995   8.915  12.259 -1.0425  0.3473 -0.3529
22706SOL    HW174979   7.054   8.841  12.244 -1.4124 -0.1710  0.6261
22706SOL    HW274980   7.048   8.992  12.239 -0.5343 -0.1584 -1.0318
22707SOL     OW74981   0.396   8.999   4.406 -0.2102  0.1174 -0.4128
22707SOL    HW174982   0.353   9.073   4.362 -0.2703  0.0909 -0.3991
22707SOL    HW274983   0.345   8.923   4.378 -0.1416  0.0795 -0.4357
22708SOL     OW74984  10.319   2.013   4.986  0.1592 -0.0013  0.1495
22708SOL    HW174985  10.251   2.022   5.054 -0.0864  0.7612 -0.1937
22708SOL    HW274986  10.387   2.075   5.011  0.5031 -0.3910  0.2015
22709SOL     OW74987   8.150   2.064  12.254 -0.1456  0.6108 -0.4790
22709SOL    HW174988   8.099   1.996  12.211 -1.9768  0.9520  0.9889
22709SOL    HW274989   8.104   2.145  12.231  0.9183  1.1622 -0.7076
22710SOL     OW74990   6.614   0.956   3.518 -0.0474 -0.5964 -0.4256
22710SOL    HW174991   6.652   1.019   3.580 -0.1796 -0.3743 -0.5657
22710SOL    HW274992   6.562   0.897   3.573 -0.7976  0.0646 -0.3886
22711SOL     OW74993   9.877   2.307  10.603  0.6329 -0.5940  0.2007
22711SOL    HW174994   9.960   2.352  10.586  1.9500 -2.7238  0.7245
22711SOL    HW274995   9.895   2.249  10.677 -1.4266 -0.8792  0.5363
22712SOL     OW74996   5.904   1.548   9.809 -0.3627 -0.2880 -0.1136
22712SOL    HW174997   5.900   1.454   9.826  0.7005 -0.2809  0.2344
22712SOL    HW274998   5.995   1.572   9.827 -0.6254  0.8110 -0.1889
22713SOL     OW74999   3.186   3.506   1.237  0.0604  0.4491  0.1024
22713SOL    HW175000   3.092   3.499   1.221  0.0966 -0.8493  0.3037
22713SOL    HW275001   3.193   3.539   1.326 -0.2226  0.1843  0.2251
22714SOL     OW75002   2.209   5.469   3.346 -0.4129 -0.2755 -0.1374
22714SOL    HW175003   2.253   5.491   3.264 -0.7185  1.3860  0.1026
22714SOL    HW275004   2.260   5.396   3.382  0.5103 -0.1613 -1.1491
22715SOL     OW75005   5.105   8.311  11.556  0.5384 -0.2363 -0.1047
22715SOL    HW175006   5.062   8.306  11.470 -0.0587 -0.0945  0.1788
22715SOL    HW275007   5.143   8.399  11.558  1.3094 -0.5483 -0.5675
22716SOL     OW75008   6.552   2.944  12.038 -0.0089 -0.1254  0.1212
22716SOL    HW175009   6.594   3.004  12.100  0.8853 -1.7901  1.1832
22716SOL    HW275010   6.575   2.978  11.952  2.5735 -0.2971  0.6766
22717SOL     OW75011   1.856   6.893   0.471 -0.5118 -0.5800 -0.0304
22717SOL    HW175012   1.780   6.845   0.440  0.5847 -1.2840 -1.7810
22717SOL    HW275013   1.855   6.975   0.421  0.3121 -0.9714 -0.7367
22718SOL     OW75014  10.574   1.619   4.125 -0.0664 -0.0558 -0.2129
22718SOL    HW175015  10.609   1.570   4.200 -1.8129 -0.4561  0.3963
22718SOL    HW275016  10.584   1.711   4.150  0.1398 -0.1696  0.1358
22719SOL     OW75017   9.657  10.330   4.981 -0.0586 -0.4485 -0.8240
22719SOL    HW175018   9.579  10.323   5.036  0.0325  0.1548 -0.6035
22719SOL    HW275019   9.712  10.256   5.005 -0.0735 -0.2557 -0.1837
22720SOL     OW75020   9.919   4.314   7.369 -0.0001  0.2226  0.5339
22720SOL    HW175021  10.014   4.300   7.370 -0.0007 -0.3876 -1.6732
22720SOL    HW275022   9.887   4.261   7.442  1.1905 -1.4121 -0.0461
22721SOL     OW75023   2.924   4.278  10.001 -0.0987  0.1801  0.4146
22721SOL    HW175024   2.902   4.228   9.922  1.0930  0.8133 -0.3561
22721SOL    HW275025   3.014   4.254  10.020  0.2056  1.3661  0.5390
22722SOL     OW75026   7.708   6.718  10.885  0.2857 -0.4351  0.2729
22722SOL    HW175027   7.749   6.690  10.804 -2.1815 -0.4777 -1.0754
22722SOL    HW275028   7.739   6.656  10.951  0.2120 -2.1456 -1.2207
22723SOL     OW75029   7.659  10.931   8.876  0.4744 -0.6014 -0.0671
22723SOL    HW175030   7.686  11.023   8.869  0.2427 -0.6448 -1.8981
22723SOL    HW275031   7.564  10.933   8.866  0.2638 -0.9184  1.5499
22724SOL     OW75032   4.297   4.705   5.750  0.0941  0.0396 -0.2955
22724SOL    HW175033   4.215   4.739   5.786 -0.9751 -0.0813 -2.4479
22724SOL    HW275034   4.361   4.774   5.767 -1.2145  1.6089 -1.3712
22725SOL     OW75035  10.357   9.462   0.306  0.0670 -0.5076 -0.1831
22725SOL    HW175036  10.351   9.400   0.233  0.1735  0.2030 -0.8153
22725SOL    HW275037  10.310   9.539   0.275 -0.8313 -0.5838  0.9412
22726SOL     OW75038  12.098  11.873  10.458  0.6925 -0.0093  0.2136
22726SOL    HW175039  12.103  11.920  10.375 -0.9062 -2.2172 -1.2426
22726SOL    HW275040  12.146  11.792  10.444  0.6468 -0.3015  1.5689
22727SOL     OW75041  11.739   8.094   2.886 -0.4403  0.0237  0.4684
22727SOL    HW175042  11.767   8.100   2.977  0.5249  1.7499  0.1018
22727SOL    HW275043  11.820   8.077   2.837 -0.9639 -1.0131 -0.0725
22728SOL     OW75044   0.641   8.938   4.106 -0.2511 -0.3330 -0.1736
22728SOL    HW175045   0.685   8.880   4.169  0.4520 -0.4485 -0.7516
22728SOL    HW275046   0.626   8.882   4.029 -1.3948 -0.2849 -0.0011
22729SOL     OW75047  10.149   5.990   2.793  0.1643 -0.3435  0.2036
22729SOL    HW175048  10.140   5.922   2.727 -0.1883  0.2542 -0.3750
22729SOL    HW275049  10.062   6.000   2.831 -0.6116  1.9748 -1.9393
22730SOL     OW75050   8.067   7.174   5.673 -0.0377  0.7265 -0.0457
22730SOL    HW175051   8.139   7.238   5.675  2.2635 -1.7230  1.6725
22730SOL    HW275052   8.089   7.117   5.600  0.5609 -0.8138  1.2900
22731SOL     OW75053   7.270   0.465   2.212 -0.4272 -0.1981 -0.3111
22731SOL    HW175054   7.295   0.456   2.120 -0.4576  2.1109 -0.5881
22731SOL    HW275055   7.178   0.490   2.210 -0.1165  1.0729  0.2727
22732SOL     OW75056  12.294   5.941   5.473  0.0102  0.2396  0.2258
22732SOL    HW175057  12.253   5.861   5.440 -0.3287  0.3234  0.4445
22732SOL    HW275058  12.354   5.968   5.403 -0.2272  0.0605 -0.0475
22733SOL     OW75059   5.481   6.804   1.420 -0.2979  0.4162 -0.3551
22733SOL    HW175060   5.557   6.836   1.468  0.1576  1.3880 -1.6610
22733SOL    HW275061   5.506   6.717   1.390  0.3036  0.7245 -0.7579
22734SOL     OW75062   1.044   5.913  10.876 -0.2185 -0.1860  0.3842
22734SOL    HW175063   1.043   5.976  10.949  0.7253  0.4458 -0.1212
22734SOL    HW275064   1.129   5.869  10.885 -0.2310 -0.3178 -0.1468
22735SOL     OW75065   1.305   8.677   0.328  0.7840  0.3778 -0.0290
22735SOL    HW175066   1.240   8.713   0.268  0.8030 -0.4442 -0.5571
22735SOL    HW275067   1.259   8.607   0.375  0.3731  1.8633  1.9056
22736SOL     OW75068  10.649   4.939  10.290  0.6227 -0.0020  0.2659
22736SOL    HW175069  10.724   4.882  10.270  1.2899  1.1136 -0.5162
22736SOL    HW275070  10.646   5.001  10.217  0.6060  1.6646  1.6336
22737SOL     OW75071   1.360   5.551  10.027 -0.9757 -0.1364 -0.1567
22737SOL    HW175072   1.313   5.495   9.966  0.2495  0.4170 -1.6665
22737SOL    HW275073   1.437   5.580   9.979  0.8573 -0.8553  2.1643
22738SOL     OW75074   0.062   7.275   9.268 -0.0779 -0.4506  0.0698
22738SOL    HW175075   0.118   7.253   9.194  1.5627 -0.4245  1.2412
22738SOL    HW275076  -0.023   7.298   9.229  0.4442 -1.3982 -1.6909
22739SOL     OW75077   2.403   3.371   2.529  0.0405 -0.5075 -0.2000
22739SOL    HW175078   2.348   3.409   2.460 -1.3935 -0.8740  0.7039
22739SOL    HW275079   2.367   3.406   2.610  0.7256 -1.2825  0.4544
22740SOL     OW75080  10.739   0.092   0.282 -0.3097 -0.0935 -0.0905
22740SOL    HW175081  10.688   0.010   0.282  0.2324 -0.4317  0.5221
22740SOL    HW275082  10.719   0.133   0.365  0.5180 -0.2968  0.2197
22741SOL     OW75083   5.987   4.749   1.594 -0.2412 -0.0052  0.2076
22741SOL    HW175084   5.959   4.839   1.576 -0.5189 -0.4953 -2.2191
22741SOL    HW275085   5.907   4.698   1.589 -0.0931 -0.4162  1.6460
22742SOL     OW75086   9.064   0.422   8.014  0.1307 -0.0841 -0.5232
22742SOL    HW175087   9.029   0.393   8.099  2.2528  0.9342  0.7690
22742SOL    HW275088   9.009   0.495   7.989 -0.7977 -0.6770 -0.2667
22743SOL     OW75089   4.312   5.325  11.374 -0.0037 -0.1160 -0.8422
22743SOL    HW175090   4.350   5.357  11.456 -0.1882 -0.0183 -0.7948
22743SOL    HW275091   4.385   5.282  11.329  0.5323  1.3011 -1.3990
22744SOL     OW75092   9.694   3.036   8.877  0.0428  0.4628  0.1502
22744SOL    HW175093   9.695   2.942   8.859  0.4505  0.5430 -0.2386
22744SOL    HW275094   9.769   3.071   8.830  0.6901  0.7878  1.3756
22745SOL     OW75095   0.149   7.816   9.679  0.0424 -0.1093 -0.3534
22745SOL    HW175096   0.105   7.900   9.692 -0.8731 -0.7300  0.7139
22745SOL    HW275097   0.121   7.788   9.592  0.2048  0.5926 -0.6381
22746SOL     OW75098   3.446  10.500  12.061 -0.4381 -0.4878 -0.2347
22746SOL    HW175099   3.466  10.549  11.981 -0.4820 -0.9774 -0.5472
22746SOL    HW275100   3.531  10.479  12.098 -0.3904  1.4539  0.9279
22747SOL     OW75101  12.106   6.365   0.826 -0.3289 -0.3400  0.2725
22747SOL    HW175102  12.114   6.292   0.889  0.4383 -0.3461  0.1765
22747SOL    HW275103  12.106   6.323   0.740 -3.2854 -0.5094  0.2404
22748SOL     OW75104  11.724   8.907   3.719 -0.0979  0.1155 -0.5289
22748SOL    HW175105  11.632   8.883   3.730 -0.2497  0.7730 -0.2681
22748SOL    HW275106  11.731   8.935   3.628 -0.2212  0.3253 -0.4747
22749SOL     OW75107  10.549   5.144   1.332 -0.1234  0.1773 -0.1751
22749SOL    HW175108  10.576   5.054   1.347  1.7684  0.5244 -1.2239
22749SOL    HW275109  10.541   5.151   1.237 -0.7606  1.0054 -0.0782
22750SOL     OW75110   7.264   4.865   6.726 -0.3933  0.1893 -0.6754
22750SOL    HW175111   7.207   4.864   6.649 -0.4476  3.1532 -0.7820
22750SOL    HW275112   7.206   4.878   6.800 -0.2558 -1.7901 -0.1783
22751SOL     OW75113  12.260   6.543  11.889  0.5737 -0.0434  0.3682
22751SOL    HW175114  12.234   6.513  11.801 -1.4482  1.3708  0.4062
22751SOL    HW275115  12.302   6.466  11.928 -0.1200 -1.2975 -1.1876
22752SOL     OW75116   7.937   7.097   4.706  0.2495  0.0456  0.4553
22752SOL    HW175117   7.910   7.006   4.718  2.7958 -0.7421  0.8880
22752SOL    HW275118   8.030   7.098   4.732  0.4345  2.6636 -0.0166
22753SOL     OW75119   9.499   0.603   1.975  0.8000  0.0588  0.1142
22753SOL    HW175120   9.443   0.642   2.042  1.7506  0.7205  0.5454
22753SOL    HW275121   9.471   0.643   1.893  1.5572  1.4810  0.5072
22754SOL     OW75122   7.500   3.019   5.371 -0.1330  1.2086 -0.5051
22754SOL    HW175123   7.451   3.051   5.296 -1.0133 -0.0565 -0.5156
22754SOL    HW275124   7.571   2.967   5.333 -0.2825  0.9799 -0.4750
22755SOL     OW75125   2.956   8.620   8.207 -0.3350  0.4913  0.1434
22755SOL    HW175126   2.910   8.551   8.255  0.2278  0.9972  1.4591
22755SOL    HW275127   3.002   8.669   8.274  2.7644 -0.4169 -1.1174
22756SOL     OW75128  11.597   4.432   8.253  0.1360 -0.3400  0.3135
22756SOL    HW175129  11.637   4.380   8.323 -1.0770 -2.5112 -0.5017
22756SOL    HW275130  11.649   4.411   8.176  0.5476  0.8865  0.2320
22757SOL     OW75131   0.573   3.104   3.177 -0.3491  0.2175 -0.6066
22757SOL    HW175132   0.593   3.191   3.143 -1.6185  1.3512  1.3301
22757SOL    HW275133   0.551   3.052   3.100  0.0044  1.7213 -1.7616
22758SOL     OW75134   4.408   2.285   9.412 -0.5170 -0.3665 -0.4004
22758SOL    HW175135   4.396   2.320   9.324 -0.6855 -1.2520 -0.7350
22758SOL    HW275136   4.417   2.191   9.400  0.2222 -0.4203  0.4645
22759SOL     OW75137   5.469   8.790   1.347 -0.0935 -0.1841  0.7538
22759SOL    HW175138   5.421   8.866   1.317  0.4187  0.5324  1.6988
22759SOL    HW275139   5.464   8.728   1.274  0.0629  1.0092 -0.3118
22760SOL     OW75140   0.399   0.128   8.999 -0.0250  0.6412 -0.1446
22760SOL    HW175141   0.324   0.137   8.942 -0.3498  2.4966  0.5295
22760SOL    HW275142   0.473   0.160   8.947  0.0336  0.3722 -0.2304
22761SOL     OW75143   5.771   0.349   4.240 -0.6966 -0.7326 -0.4327
22761SOL    HW175144   5.687   0.308   4.258 -0.4935 -0.7577  0.5023
22761SOL    HW275145   5.779   0.348   4.145 -1.3298 -1.5681 -0.4819
22762SOL     OW75146   8.822   0.451  11.999  0.2327 -0.0873  0.1835
22762SOL    HW175147   8.856   0.478  11.914 -1.3225  0.3595 -0.3236
22762SOL    HW275148   8.785   0.364  11.984  0.0608 -0.0577  0.4220
22763SOL     OW75149   1.473   4.246  11.058 -0.2715  0.0851  0.3230
22763SOL    HW175150   1.566   4.224  11.067 -0.6430 -0.5674  4.2960
22763SOL    HW275151   1.446   4.202  10.978  2.8902  0.7130 -1.2616
22764SOL     OW75152   3.176   2.264   0.908 -0.3823  0.3105 -0.3220
22764SOL    HW175153   3.139   2.321   0.842  1.4862  1.6084 -0.3124
22764SOL    HW275154   3.247   2.315   0.948 -0.6053 -0.8991  1.7949
22765SOL     OW75155   3.088   6.169   7.283  0.9023 -0.0324 -0.0500
22765SOL    HW175156   3.100   6.075   7.277 -0.2434 -0.2075  0.1322
22765SOL    HW275157   3.034   6.181   7.362 -1.2587  0.5192 -1.5278
22766SOL     OW75158   8.948   5.872  10.357  0.1357  0.5392  0.2093
22766SOL    HW175159   8.981   5.893  10.444  1.8961  2.0263 -0.7436
22766SOL    HW275160   8.855   5.852  10.371  0.6637 -0.5974  2.5731
22767SOL     OW75161  10.167   6.697   5.084 -0.3883 -0.0456  0.3699
22767SOL    HW175162  10.123   6.778   5.112 -1.7179 -0.4504 -0.4578
22767SOL    HW275163  10.209   6.664   5.164  1.0519  1.9452  0.5338
22768SOL     OW75164   5.342   0.645   5.571  0.1093  0.4653 -0.3127
22768SOL    HW175165   5.404   0.695   5.517  0.8291  1.5459  1.4240
22768SOL    HW275166   5.392   0.622   5.649 -1.0383 -0.6416  0.1132
22769SOL     OW75167   0.204   9.237   3.917  0.3797 -0.4769 -0.0852
22769SOL    HW175168   0.254   9.157   3.935  0.8226 -0.4709 -1.2040
22769SOL    HW275169   0.265   9.307   3.939  1.3700 -0.4587 -2.5058
22770SOL     OW75170   0.865   4.539   6.758  0.4096 -0.3412  0.0596
22770SOL    HW175171   0.862   4.633   6.777 -1.9927 -0.1419 -0.9120
22770SOL    HW275172   0.782   4.521   6.713  1.2633 -2.7433 -0.7160
22771SOL     OW75173   1.441   1.505   2.029 -0.6857  0.2591 -0.2513
22771SOL    HW175174   1.371   1.513   2.093  0.6956 -0.7531  1.4622
22771SOL    HW275175   1.448   1.411   2.011  0.9337  0.2012  0.4758
22772SOL     OW75176   0.105   1.717  11.593  0.3051  0.6216  0.0002
22772SOL    HW175177   0.180   1.663  11.569 -1.4115 -0.8806 -2.2808
22772SOL    HW275178   0.110   1.723  11.689  2.1162 -1.2262  0.0821
22773SOL     OW75179   6.902   9.808   1.581  0.4262 -0.5773  0.3393
22773SOL    HW175180   6.967   9.770   1.521  2.4000 -0.5195  2.3210
22773SOL    HW275181   6.933   9.783   1.668  1.3308  4.5380  1.8174
22774SOL     OW75182   8.282   7.303   2.065  0.1125 -0.0068 -0.1979
22774SOL    HW175183   8.229   7.288   1.987 -1.6308  1.5059  0.6278
22774SOL    HW275184   8.293   7.398   2.069  4.6645 -0.2795 -1.3776
22775SOL     OW75185   4.487   8.987   4.020  0.3684 -0.2882 -0.2965
22775SOL    HW175186   4.544   9.008   4.094  0.6255 -2.3867  0.1758
22775SOL    HW275187   4.548   8.964   3.950  0.1296  1.7935 -1.2448
22776SOL     OW75188  10.771   8.111   0.709  0.0971 -0.3769 -0.0975
22776SOL    HW175189  10.816   8.030   0.735 -2.0866 -1.4542  0.5199
22776SOL    HW275190  10.814   8.180   0.760  0.9561 -1.3481  0.5329
22777SOL     OW75191   5.344   5.944  10.932 -0.0441  0.4927 -0.1325
22777SOL    HW175192   5.302   5.858  10.938  1.5066 -0.2593  0.4259
22777SOL    HW275193   5.435   5.928  10.957  0.1117  2.4400  0.7197
22778SOL     OW75194   3.301   9.317   9.866  0.6795 -0.3672 -0.0666
22778SOL    HW175195   3.248   9.239   9.881  2.3867 -1.3519  1.3485
22778SOL    HW275196   3.240   9.383   9.834 -1.1797 -1.7076  0.5825
22779SOL     OW75197   7.795  10.191   8.336  0.1415 -0.2838  0.2442
22779SOL    HW175198   7.840  10.188   8.252 -0.2272 -0.5183  0.0560
22779SOL    HW275199   7.734  10.264   8.328 -2.4382 -2.4179 -0.9891
22780SOL     OW75200   9.522   1.740   6.532  0.4346 -0.0132 -0.4377
22780SOL    HW175201   9.456   1.674   6.554 -1.0404  1.8281  1.0400
22780SOL    HW275202   9.500   1.767   6.442  1.6280 -2.0704 -1.4274
22781SOL     OW75203   4.032  12.145  10.610  0.1210 -0.1090 -0.2261
22781SOL    HW175204   4.062  12.107  10.528 -0.9995 -0.3974 -0.5164
22781SOL    HW275205   4.100  12.208  10.634  1.7167 -1.8147 -0.0466
22782SOL     OW75206   6.651   7.051  11.954  0.7731  0.4595 -0.6620
22782SOL    HW175207   6.649   7.027  12.047 -0.3960  2.8684  0.0253
22782SOL    HW275208   6.562   7.034  11.923  0.4335  1.9386 -0.6180
22783SOL     OW75209  11.015   3.707   5.241  0.3476  0.2165 -0.1019
22783SOL    HW175210  10.991   3.798   5.223  1.5939  1.0839  2.1895
22783SOL    HW275211  11.004   3.697   5.336  1.0276 -1.7893 -0.1737
22784SOL     OW75212   5.323   6.154  11.912 -0.0633 -0.4212 -0.2965
22784SOL    HW175213   5.291   6.192  11.994 -0.6239 -0.3635 -0.5380
22784SOL    HW275214   5.408   6.116  11.935 -0.1570 -0.2938  0.2822
22785SOL     OW75215   9.670   6.698  12.459  0.4757  0.8031  0.1424
22785SOL    HW175216   9.702   6.787  12.474 -0.2773  1.1600 -0.3514
22785SOL    HW275217   9.645   6.667  12.546  0.0317  1.3550  0.2163
22786SOL     OW75218   1.561   3.565   3.026 -0.5407 -0.0165 -0.1335
22786SOL    HW175219   1.510   3.645   3.042 -0.5603 -0.1641  0.5556
22786SOL    HW275220   1.648   3.586   3.059 -1.2825 -1.2955  2.9677
22787SOL     OW75221   4.117   1.365  11.428  0.2908  0.2069 -0.1748
22787SOL    HW175222   4.033   1.341  11.467  0.7618 -1.0029  0.1574
22787SOL    HW275223   4.098   1.442  11.375 -0.9189  0.2616  0.3021
22788SOL     OW75224  11.671   3.788   0.884 -0.1076  0.5794  0.1821
22788SOL    HW175225  11.693   3.836   0.964  0.5215 -0.2087  0.4976
22788SOL    HW275226  11.600   3.730   0.909 -1.6186  2.0683 -0.4694
22789SOL     OW75227   6.081  11.857   0.359  0.0153 -0.3536 -0.5452
22789SOL    HW175228   6.025  11.780   0.366  0.1640 -0.4087  0.0958
22789SOL    HW275229   6.107  11.859   0.267 -0.2900 -0.8563 -0.6470
22790SOL     OW75230   4.737   7.576   8.042 -0.1286  0.1965 -0.3150
22790SOL    HW175231   4.736   7.483   8.065  0.1975  0.3141  0.1986
22790SOL    HW275232   4.685   7.582   7.962  2.8741 -0.9578 -2.5029
22791SOL     OW75233  11.721   5.834   1.994  0.3221  0.0524 -0.0788
22791SOL    HW175234  11.773   5.912   2.013 -1.1520  0.8570  0.8921
22791SOL    HW275235  11.749   5.807   1.906  3.4455 -0.5152  0.9960
22792SOL     OW75236   0.827   3.930   5.711 -0.3068 -0.2020  0.3123
22792SOL    HW175237   0.820   3.931   5.615  0.1641  0.6751  0.2851
22792SOL    HW275238   0.739   3.905   5.740 -0.9464  1.1995 -0.3057
22793SOL     OW75239  10.795   5.350  12.190  0.4545 -0.2322  0.0836
22793SOL    HW175240  10.778   5.267  12.236  0.3438  0.0043  0.4783
22793SOL    HW275241  10.735   5.412  12.231 -0.3558 -0.2402 -1.0676
22794SOL     OW75242   9.205   5.286   5.991 -0.3595 -0.0749  0.1012
22794SOL    HW175243   9.132   5.243   6.035  1.5000 -2.4477  1.1271
22794SOL    HW275244   9.179   5.291   5.899 -1.2683 -2.2188  0.1878
22795SOL     OW75245   6.837   9.260   1.581 -0.0106 -0.5684 -0.7831
22795SOL    HW175246   6.855   9.243   1.489  0.8666  0.9872 -0.9400
22795SOL    HW275247   6.782   9.339   1.580 -0.3472 -0.7812  0.0202
22796SOL     OW75248   2.078   1.941   9.291 -0.0898 -0.0327 -0.3737
22796SOL    HW175249   1.988   1.910   9.302  0.5385 -1.5558  0.7817
22796SOL    HW275250   2.105   1.905   9.207  0.4411 -2.2742  0.6989
22797SOL     OW75251   6.110   4.604   3.777  0.2039 -0.2081  0.0220
22797SOL    HW175252   6.175   4.660   3.736 -1.0377  0.1325 -1.5556
22797SOL    HW275253   6.040   4.664   3.804 -0.4973 -0.8257 -0.3922
22798SOL     OW75254   1.325  11.070  10.854  0.0195 -0.3474 -0.1392
22798SOL    HW175255   1.267  11.047  10.927  0.9973 -0.5878  0.5989
22798SOL    HW275256   1.318  10.996  10.794 -1.2526  0.1249 -0.6041
22799SOL     OW75257  12.479   6.823  10.987 -0.1586 -0.3316 -0.1273
22799SOL    HW175258  12.465   6.790  10.898 -1.0925  0.3583 -0.2666
22799SOL    HW275259  12.415   6.895  10.995  0.0863 -0.2274  1.0130
22800SOL     OW75260   5.215   1.985   2.115 -0.2170  0.2156 -0.3179
22800SOL    HW175261   5.123   2.003   2.098 -0.4376 -1.1027 -0.6478
22800SOL    HW275262   5.229   1.896   2.082  0.2860 -1.0277  2.8955
22801SOL     OW75263   2.794   0.590   3.078  0.1032  0.1741 -0.0832
22801SOL    HW175264   2.768   0.680   3.095 -0.0821  0.0981  0.0320
22801SOL    HW275265   2.890   0.593   3.080  0.1115  0.0070  1.8484
22802SOL     OW75266   1.266   6.685   0.999 -0.1238 -0.0822  0.7670
22802SOL    HW175267   1.268   6.595   0.966 -1.3181 -0.2529  1.1164
22802SOL    HW275268   1.209   6.731   0.938 -0.1427  0.2590  1.0389
22803SOL     OW75269  12.112   4.689   8.646 -0.2350 -0.0844  0.1283
22803SOL    HW175270  12.170   4.645   8.708  0.8503  1.4325  0.2354
22803SOL    HW275271  12.140   4.656   8.561  2.2426  2.0889 -0.0188
22804SOL     OW75272   7.815   3.407   5.739  0.2265 -0.0119  0.6725
22804SOL    HW175273   7.827   3.491   5.784  0.3618 -0.0786  0.7605
22804SOL    HW275274   7.761   3.428   5.663 -0.0561  0.0944  0.9000
22805SOL     OW75275   6.912   4.002  10.020  0.4376  0.4440 -0.3145
22805SOL    HW175276   6.907   4.098  10.019 -0.1552  0.4410  0.6752
22805SOL    HW275277   6.985   3.982  10.078  0.4573  0.2959 -0.3889
22806SOL     OW75278  12.060   1.401  11.306  0.0594  0.4773  0.4607
22806SOL    HW175279  12.116   1.471  11.273  1.3535 -0.9363 -0.4273
22806SOL    HW275280  12.062   1.412  11.401  1.7071  0.5810  0.4449
22807SOL     OW75281   6.190   9.226   6.408 -0.2355  0.1671 -0.1543
22807SOL    HW175282   6.286   9.226   6.399 -0.2618  1.5355 -0.7601
22807SOL    HW275283   6.175   9.238   6.501  0.1989  0.5750 -0.1282
22808SOL     OW75284   7.884   2.196   8.065 -0.2774 -0.8300 -0.3503
22808SOL    HW175285   7.911   2.154   8.146 -0.9617  1.4247  1.1590
22808SOL    HW275286   7.929   2.281   8.066  0.0601 -0.9333 -2.5739
22809SOL     OW75287   4.507   3.275   1.088 -0.3462 -0.2573  0.1180
22809SOL    HW175288   4.498   3.181   1.070 -0.7186 -0.4094  1.0320
22809SOL    HW275289   4.464   3.317   1.014 -1.1277 -0.8376  0.2194
22810SOL     OW75290   8.104   4.361   9.653  0.1960 -0.2424  0.0166
22810SOL    HW175291   8.181   4.417   9.662 -0.1345  0.7048 -2.3584
22810SOL    HW275292   8.065   4.386   9.569 -1.2536 -2.4949 -0.0829
22811SOL     OW75293   8.970  12.007  12.188 -0.0176  0.0844 -0.0017
22811SOL    HW175294   9.041  12.054  12.231  0.2051 -0.6352  0.4429
22811SOL    HW275295   8.923  11.965  12.260  0.4810 -1.3105 -0.4536
22812SOL     OW75296   3.948   0.887  10.721 -0.0547 -0.3761 -0.1833
22812SOL    HW175297   3.950   0.979  10.695  2.0389  0.0168  1.1273
22812SOL    HW275298   3.860   0.875  10.757  0.1267  1.6071  1.1094
22813SOL     OW75299   4.234   5.285   5.316  0.7260 -0.0635 -0.4197
22813SOL    HW175300   4.176   5.351   5.278  0.7378 -0.1512 -0.5906
22813SOL    HW275301   4.306   5.336   5.353  2.5308 -0.1021 -3.5367
22814SOL     OW75302   1.213   3.452   4.088 -0.2164 -0.2270  0.3899
22814SOL    HW175303   1.239   3.385   4.024 -1.0386  0.7420 -1.0163
22814SOL    HW275304   1.289   3.509   4.096 -0.0926 -0.3790  0.3002
22815SOL     OW75305   5.399   3.241  10.948  0.1731 -0.3393 -0.2426
22815SOL    HW175306   5.454   3.276  10.878 -0.1975 -1.8650 -1.3327
22815SOL    HW275307   5.315   3.224  10.907 -0.3517 -0.3694  0.8116
22816SOL     OW75308   4.783   1.581   6.992  0.0763 -0.2870  0.5560
22816SOL    HW175309   4.716   1.613   6.932 -0.4858  1.5625  2.0896
22816SOL    HW275310   4.858   1.638   6.976  0.3645 -0.6173  0.7225
22817SOL     OW75311   5.145   1.142   7.668 -0.0243 -0.7264 -0.0362
22817SOL    HW175312   5.146   1.112   7.758 -1.1824  1.9392  0.9601
22817SOL    HW275313   5.052   1.151   7.647  0.2001 -1.7589 -1.7185
22818SOL     OW75314   9.599   5.541   2.893  0.4637  0.2024  0.5619
22818SOL    HW175315   9.559   5.471   2.944 -0.5568  0.8425  0.6578
22818SOL    HW275316   9.597   5.509   2.803  2.3327 -0.9627  0.8706
22819SOL     OW75317   7.151  12.035   7.941  0.3857 -0.2041  0.8444
22819SOL    HW175318   7.173  12.081   7.860  1.5289 -2.0688  0.0394
22819SOL    HW275319   7.055  12.035   7.943  0.3460  1.4692  0.4887
22820SOL     OW75320  10.656   0.133   2.171 -0.2242 -0.3103 -0.0218
22820SOL    HW175321  10.693   0.219   2.189  1.6228 -0.8269 -1.1395
22820SOL    HW275322  10.718   0.071   2.209  1.3925 -1.2694 -3.7630
22821SOL     OW75323   8.576   5.405   0.369 -0.2662 -0.6461 -0.2863
22821SOL    HW175324   8.582   5.330   0.310 -1.2749 -0.3972 -0.7305
22821SOL    HW275325   8.535   5.474   0.316  0.1861  0.0647  0.2634
22822SOL     OW75326   1.161   2.135  11.261  0.4242  0.7430  0.7166
22822SOL    HW175327   1.183   2.089  11.180 -0.4134  0.6834  0.5141
22822SOL    HW275328   1.150   2.065  11.326 -0.1657  0.6924  0.5711
22823SOL     OW75329  12.160   1.081   5.933  0.3359  0.3525 -0.1376
22823SOL    HW175330  12.173   1.054   5.842 -1.4414 -1.2725  0.0362
22823SOL    HW275331  12.237   1.048   5.979  1.1802  1.0603 -0.9989
22824SOL     OW75332   7.931   0.171   6.508 -0.1694  0.6659  0.0156
22824SOL    HW175333   7.961   0.112   6.577 -0.4107 -1.2117 -1.4087
22824SOL    HW275334   7.838   0.184   6.526 -0.4224 -0.4894 -0.4011
22825SOL     OW75335   7.954  11.380   6.424 -0.0157 -0.2740  0.4152
22825SOL    HW175336   8.045  11.406   6.437 -0.3423  0.5385  1.1656
22825SOL    HW275337   7.949  11.291   6.460  0.6211 -0.5897 -0.2374
22826SOL     OW75338   6.483   2.171   5.320 -0.0681 -0.9028  0.0272
22826SOL    HW175339   6.427   2.147   5.246 -1.1500 -0.5383  0.6972
22826SOL    HW275340   6.531   2.247   5.291 -1.4982  0.0854  0.1356
22827SOL     OW75341   9.524   6.100   1.802  0.1602  0.2059 -0.1027
22827SOL    HW175342   9.456   6.032   1.800  1.1045 -0.7928  0.4786
22827SOL    HW275343   9.484   6.173   1.849 -0.6232 -0.2276 -0.0732
22828SOL     OW75344   8.853   6.039   6.560  0.2401 -0.1813  0.2714
22828SOL    HW175345   8.876   6.107   6.497  0.2660 -0.1115  0.3570
22828SOL    HW275346   8.760   6.052   6.577  0.5304  0.6531  1.2821
22829SOL     OW75347   0.153  10.715   9.677  0.4741 -0.7933  0.6328
22829SOL    HW175348   0.180  10.753   9.594 -0.2167 -1.1275  0.2456
22829SOL    HW275349   0.078  10.769   9.705  1.2472 -0.1232  1.4936
22830SOL     OW75350   7.809   0.945   4.832 -0.5313 -0.6879  0.1186
22830SOL    HW175351   7.796   0.979   4.744 -0.4555  0.3072  0.4792
22830SOL    HW275352   7.726   0.960   4.877 -0.2121 -0.1498  0.5444
22831SOL     OW75353   7.347  10.877   4.278 -0.5677  0.2319  0.0805
22831SOL    HW175354   7.331  10.826   4.199  1.2849  1.1456 -0.9573
22831SOL    HW275355   7.426  10.928   4.258 -1.2016  2.0190  1.7791
22832SOL     OW75356   5.368   5.388   5.840 -0.4385  0.0011 -0.6314
22832SOL    HW175357   5.344   5.479   5.855 -0.7328 -0.0616 -0.7286
22832SOL    HW275358   5.443   5.393   5.780 -0.7560  0.1645 -1.0240
22833SOL     OW75359   8.663  12.070   4.324  0.4180 -0.4537 -0.4406
22833SOL    HW175360   8.713  12.012   4.381  1.6915  0.0623 -1.0084
22833SOL    HW275361   8.572  12.040   4.333  0.3305  0.4163  2.8587
22834SOL     OW75362   0.493   1.409   2.296  0.0369  0.1604 -0.2184
22834SOL    HW175363   0.446   1.492   2.306  1.2925  0.6013  4.8300
22834SOL    HW275364   0.583   1.435   2.275  0.3563  0.1437  1.0376
22835SOL     OW75365   7.911   4.796   2.237  0.2652  0.3020  0.2340
22835SOL    HW175366   7.916   4.784   2.332  1.2601 -1.6244 -0.0189
22835SOL    HW275367   7.902   4.708   2.202  0.7018  0.9171 -1.5135
22836SOL     OW75368  11.731  10.345   6.727  0.2852  0.1481 -0.4963
22836SOL    HW175369  11.708  10.300   6.646  1.6830 -1.1833 -0.1865
22836SOL    HW275370  11.722  10.278   6.795 -0.3023  1.0893  0.3800
22837SOL     OW75371   5.217  12.255   9.423 -0.3204 -0.3813 -0.2779
22837SOL    HW175372   5.163  12.277   9.499 -0.0566 -2.3361  0.5283
22837SOL    HW275373   5.156  12.215   9.362 -0.7812  2.2690 -1.7022
22838SOL     OW75374  11.366   9.907   0.349  0.0286 -0.3144  0.1104
22838SOL    HW175375  11.302   9.838   0.329 -1.1573  1.1239 -1.4115
22838SOL    HW275376  11.337   9.943   0.432 -1.7781  0.8997 -0.9694
22839SOL     OW75377  10.432   2.052   1.707  0.1246 -0.3010  0.3512
22839SOL    HW175378  10.468   1.963   1.709  0.7932 -0.0630 -0.6150
22839SOL    HW275379  10.493   2.101   1.652 -1.1056  0.3654 -0.4649
22840SOL     OW75380   3.947   3.520   3.766 -0.2017  0.0087  0.1560
22840SOL    HW175381   3.998   3.471   3.702  0.1181  2.8471 -1.9570
22840SOL    HW275382   4.012   3.554   3.828 -0.3515 -1.5753  1.2341
22841SOL     OW75383   1.312  11.338   8.822  0.4100  0.0468 -0.5731
22841SOL    HW175384   1.229  11.306   8.789 -0.2697  1.6858 -0.5420
22841SOL    HW275385   1.332  11.282   8.898 -1.7674  0.9912  0.7761
22842SOL     OW75386   1.865   2.571   9.840 -0.3135 -0.1889  0.0450
22842SOL    HW175387   1.803   2.633   9.878 -1.9296 -1.5478 -0.1906
22842SOL    HW275388   1.851   2.490   9.890 -0.6808 -1.2914 -1.7180
22843SOL     OW75389   5.731  10.875   2.234  0.1917  0.0943 -0.4282
22843SOL    HW175390   5.737  10.959   2.281  2.0433 -1.3491  2.1782
22843SOL    HW275391   5.790  10.886   2.160  1.0277  0.8873  0.3185
22844SOL     OW75392   0.099  12.475  12.218  0.4795  0.4225  0.5075
22844SOL    HW175393   0.074  12.393  12.261 -0.6714  0.6096  0.2287
22844SOL    HW275394   0.184  12.497  12.255  0.7841 -0.8824  0.6073
22845SOL     OW75395   6.742   5.928   4.467  0.3093  0.6564  0.2331
22845SOL    HW175396   6.705   5.930   4.379 -1.4456 -0.0919  0.9103
22845SOL    HW275397   6.754   5.835   4.485 -0.5545  0.7183  1.2406
22846SOL     OW75398   5.275   2.687   6.459  0.7996  0.2149  0.8786
22846SOL    HW175399   5.235   2.602   6.442  2.6041 -0.7963  1.3646
22846SOL    HW275400   5.201   2.746   6.473 -0.5236 -1.0802 -0.2533
22847SOL     OW75401   7.958   0.265  11.137  0.2078 -0.4922 -0.4232
22847SOL    HW175402   7.894   0.329  11.107  0.3008 -1.6303 -3.4200
22847SOL    HW275403   7.905   0.193  11.171  0.0418  0.0630  0.5338
22848SOL     OW75404   9.985  12.102   8.586  0.5547  0.2791 -0.6196
22848SOL    HW175405   9.929  12.116   8.662 -0.5865 -2.0836 -0.9411
22848SOL    HW275406   9.927  12.110   8.511 -0.1906 -4.6951 -0.8858
22849SOL     OW75407   1.195  12.055   2.848  0.3680 -0.3623 -0.0480
22849SOL    HW175408   1.152  11.969   2.847  0.9671 -0.6713 -1.1480
22849SOL    HW275409   1.231  12.063   2.936  2.0408 -2.1433 -0.4963
22850SOL     OW75410  10.264  10.063  11.122  0.6139  0.1119  0.0112
22850SOL    HW175411  10.326  10.127  11.088  2.6218 -0.8622  1.6256
22850SOL    HW275412  10.268   9.990  11.060 -1.6727  1.4070 -1.8276
22851SOL     OW75413   5.297   0.811   9.511 -0.0710 -0.1555 -0.0109
22851SOL    HW175414   5.235   0.873   9.549 -0.6485 -1.4535  1.2458
22851SOL    HW275415   5.292   0.734   9.568  1.5357 -0.8888 -0.8099
22852SOL     OW75416   2.464   7.949   0.400  0.4686  0.0872 -0.1941
22852SOL    HW175417   2.517   7.869   0.407  1.0311  0.6336  3.0250
22852SOL    HW275418   2.520   8.018   0.435 -0.7700  1.5727 -1.0306
22853SOL     OW75419   0.628  12.041   2.782  0.4985 -0.9252  0.3605
22853SOL    HW175420   0.553  12.032   2.842  0.2492  0.9364  0.3909
22853SOL    HW275421   0.704  12.047   2.840  0.9813 -4.3680  0.3123
22854SOL     OW75422  12.469  11.294   0.704 -0.3541 -0.2930 -0.0632
22854SOL    HW175423  12.559  11.324   0.697  0.4504 -2.3181  0.8896
22854SOL    HW275424  12.449  11.300   0.798 -1.4842  0.8388 -0.3567
22855SOL     OW75425   4.063   5.817   5.622  0.5748 -0.6465 -0.0871
22855SOL    HW175426   4.007   5.767   5.563 -1.0034  0.8661  0.0470
22855SOL    HW275427   4.037   5.789   5.710 -0.4672  0.4802 -0.0033
22856SOL     OW75428   4.890   2.972  10.076 -0.1356 -0.3058 -0.4101
22856SOL    HW175429   4.797   2.976  10.099 -0.0284 -1.4234  0.2987
22856SOL    HW275430   4.907   2.880  10.059  0.6204  0.0265 -1.6019
22857SOL     OW75431   7.281   4.681   2.252 -0.4093 -0.3019 -0.4348
22857SOL    HW175432   7.272   4.694   2.347  0.3118 -1.5369 -0.1703
22857SOL    HW275433   7.325   4.760   2.221 -0.4816  0.0304  0.2857
22858SOL     OW75434  10.241   8.982   3.106 -0.1350 -0.3097 -0.9159
22858SOL    HW175435  10.257   8.888   3.113  0.2032 -0.3534 -1.9799
22858SOL    HW275436  10.328   9.021   3.097 -0.2783  0.0942 -0.5949
22859SOL     OW75437  10.838   2.231   4.682 -0.2684  0.3600 -0.1771
22859SOL    HW175438  10.809   2.195   4.765  1.0041  0.9330  0.5558
22859SOL    HW275439  10.847   2.155   4.624 -0.4602 -0.1346  0.4371
22860SOL     OW75440   5.523   3.113   5.047  0.0263  0.5392 -0.1881
22860SOL    HW175441   5.471   3.062   5.109 -0.4762  0.0787 -0.9705
22860SOL    HW275442   5.614   3.093   5.070 -0.0876 -2.6987 -1.9663
22861SOL     OW75443   5.399   2.520   5.886 -0.5039  0.1374 -0.2099
22861SOL    HW175444   5.478   2.555   5.926 -0.5396 -0.4785  0.4166
22861SOL    HW275445   5.335   2.591   5.893 -0.8072 -0.2743  1.7282
22862SOL     OW75446   1.602   8.099  12.438  0.1181 -0.6156  0.1649
22862SOL    HW175447   1.682   8.047  12.427 -0.5122 -1.3738 -0.9808
22862SOL    HW275448   1.536   8.054  12.385 -0.7979  0.5949  0.2281
22863SOL     OW75449   8.556   2.381   1.331 -0.5467  0.2813 -0.0338
22863SOL    HW175450   8.513   2.324   1.267 -1.8603 -0.1639  1.1848
22863SOL    HW275451   8.486   2.406   1.391  0.3638  1.8263  0.4263
22864SOL     OW75452   6.629  11.035   6.770  0.0593 -0.0884 -0.4522
22864SOL    HW175453   6.719  11.036   6.802 -0.1786 -0.0222  0.2318
22864SOL    HW275454   6.626  10.960   6.710  1.3374  1.6256 -2.8047
22865SOL     OW75455   8.940   0.318   8.269 -0.0938  0.0081 -0.1640
22865SOL    HW175456   8.926   0.385   8.336 -0.0422 -0.5070  0.3677
22865SOL    HW275457   8.991   0.250   8.313 -0.3582 -0.4987 -0.6254
22866SOL     OW75458   4.650   8.162   8.634 -0.0584  0.1179  0.7649
22866SOL    HW175459   4.736   8.203   8.630 -0.2502  0.5286  0.8243
22866SOL    HW275460   4.634   8.149   8.727 -0.8881  1.8220  0.8968
22867SOL     OW75461   5.868   3.846   5.594 -0.1568 -0.0724 -0.2562
22867SOL    HW175462   5.933   3.788   5.555 -1.1498 -0.8888 -0.7238
22867SOL    HW275463   5.847   3.908   5.524  0.1555  0.2401 -0.0798
22868SOL     OW75464   0.806   6.014   1.259 -0.5227 -0.1525  0.6503
22868SOL    HW175465   0.796   6.019   1.355 -0.1030 -2.3290  0.8604
22868SOL    HW275466   0.719   5.990   1.227 -0.4438 -0.3513  0.5840
22869SOL     OW75467  10.114   5.359   8.168 -0.3089 -0.0055  0.2989
22869SOL    HW175468  10.091   5.445   8.132  1.7757  0.2002 -0.7534
22869SOL    HW275469  10.188   5.377   8.226  1.3916 -1.2162 -1.3576
22870SOL     OW75470   6.621   2.566  10.037 -0.0327 -0.5635  0.2215
22870SOL    HW175471   6.697   2.533  10.086  1.2790  0.9480 -0.7226
22870SOL    HW275472   6.578   2.487  10.004  1.7278 -1.4388 -0.0957
22871SOL     OW75473   5.553   8.305   1.696  0.2619  0.4429 -0.5469
22871SOL    HW175474   5.647   8.315   1.705  0.3782 -1.1939  0.3833
22871SOL    HW275475   5.537   8.212   1.707 -1.4512  0.6606 -0.8778
22872SOL     OW75476   6.103   3.443   3.338  0.0130  0.1299 -0.9972
22872SOL    HW175477   6.115   3.532   3.371 -0.1643  0.2872 -1.3489
22872SOL    HW275478   6.037   3.452   3.269  1.0334 -0.0513 -2.0209
22873SOL     OW75479  10.805   4.111   7.839 -0.7769  0.2895  0.5183
22873SOL    HW175480  10.820   4.117   7.744 -1.0410 -2.3180  0.2442
22873SOL    HW275481  10.785   4.201   7.865 -0.6558  1.0991 -1.8888
22874SOL     OW75482  11.731   9.646   6.060 -0.3554  0.0171 -0.3568
22874SOL    HW175483  11.823   9.654   6.082 -0.2470  1.8306 -1.3002
22874SOL    HW275484  11.685   9.657   6.143  0.2471 -2.6362  0.4400
22875SOL     OW75485   3.315  10.821   5.015  0.0390 -0.2387 -0.1699
22875SOL    HW175486   3.271  10.764   5.078  0.1570 -0.7194 -0.5159
22875SOL    HW275487   3.379  10.869   5.066 -2.3781  2.2131  0.8319
22876SOL     OW75488   7.373   0.035   2.655 -0.2989  0.6748 -1.0731
22876SOL    HW175489   7.400   0.126   2.642 -0.6729  1.2021  1.3250
22876SOL    HW275490   7.410   0.012   2.740 -0.6801 -1.2504 -1.4000
22877SOL     OW75491   8.847   9.640  10.325  0.1271  0.5911  0.3438
22877SOL    HW175492   8.767   9.682  10.293  0.5532  0.7826 -0.4895
22877SOL    HW275493   8.902   9.631  10.247  0.9151  0.4524  0.9074
22878SOL     OW75494   5.198  12.361   3.420 -0.1190 -0.3216 -0.3866
22878SOL    HW175495   5.162  12.425   3.482 -1.6042  0.0406 -1.5552
22878SOL    HW275496   5.278  12.402   3.387  1.1997 -0.9066  1.8780
22879SOL     OW75497   4.370   3.943   9.661 -0.2278 -0.3275 -0.0763
22879SOL    HW175498   4.431   3.967   9.591  1.1078 -1.7792  0.5228
22879SOL    HW275499   4.388   4.007   9.731 -0.9241  0.5645 -0.7003
22880SOL     OW75500  11.632   3.329   9.983 -0.9049 -0.7606  0.3186
22880SOL    HW175501  11.564   3.395   9.998 -0.4401  0.0089 -0.9205
22880SOL    HW275502  11.679   3.359   9.906  1.5282 -0.7324  1.7163
22881SOL     OW75503   1.215   7.345   7.121 -0.3405  0.3856 -0.4882
22881SOL    HW175504   1.131   7.325   7.079 -1.2692  0.8493  1.0709
22881SOL    HW275505   1.229   7.272   7.182  0.2252  0.4837 -0.4948
22882SOL     OW75506   1.215   4.036   3.314 -0.1234 -0.1848 -0.3227
22882SOL    HW175507   1.159   3.959   3.318 -0.5416  0.0296 -1.6539
22882SOL    HW275508   1.296   4.005   3.273 -0.1725  0.0085 -0.5690
22883SOL     OW75509   7.426   8.728   7.040  0.2779  0.5073  0.7981
22883SOL    HW175510   7.472   8.681   6.970 -0.6086  1.4381 -0.4472
22883SOL    HW275511   7.335   8.697   7.034  0.0280  1.2022  1.0047
22884SOL     OW75512   1.794   9.443   2.850 -0.4259  0.0311 -0.0499
22884SOL    HW175513   1.815   9.431   2.758 -1.3656 -0.5080 -0.2190
22884SOL    HW275514   1.868   9.490   2.887  0.5938 -0.9695 -0.7799
22885SOL     OW75515   9.497   9.044  11.937 -0.6313  0.3629 -0.0295
22885SOL    HW175516   9.440   9.121  11.945  0.9600  1.6197 -0.2945
22885SOL    HW275517   9.503   9.028  11.843  1.6201  2.0057 -0.2440
22886SOL     OW75518   8.402   7.195   2.337 -0.0815 -0.2571  0.3095
22886SOL    HW175519   8.333   7.205   2.271  2.1044 -1.5837 -2.4009
22886SOL    HW275520   8.386   7.109   2.375  0.5927 -1.0428 -1.0898
22887SOL     OW75521   6.789   3.516   0.810 -0.0799 -0.0725  0.3474
22887SOL    HW175522   6.812   3.553   0.896  2.2862 -0.2759 -0.1182
22887SOL    HW275523   6.870   3.523   0.760 -1.3171 -0.2997 -1.7695
22888SOL     OW75524   8.893   6.630   5.875  0.2549  0.7355 -0.0668
22888SOL    HW175525   8.834   6.688   5.826 -0.6648  1.5479  1.8693
22888SOL    HW275526   8.835   6.573   5.924  1.0531  1.3854  1.7050
22889SOL     OW75527   9.969   7.224  11.509  0.4308  0.5422  0.1731
22889SOL    HW175528  10.012   7.197  11.428 -0.1015  0.1139  0.0266
22889SOL    HW275529  10.005   7.311  11.527  1.1113  0.3237 -0.1118
22890SOL     OW75530   4.607   8.132   4.660 -0.2692 -0.4670 -0.6237
22890SOL    HW175531   4.572   8.047   4.686 -2.7008  0.1409 -1.5739
22890SOL    HW275532   4.622   8.124   4.565 -0.4700  0.1279 -0.7102
22891SOL     OW75533   5.931   8.450   6.315  0.0701 -0.3031 -0.2822
22891SOL    HW175534   5.856   8.508   6.327  1.4186  2.2619 -2.9707
22891SOL    HW275535   5.902   8.387   6.248 -0.0993 -0.1439 -0.3581
22892SOL     OW75536   7.465   6.559   4.562 -0.4732 -0.4173 -0.7000
22892SOL    HW175537   7.532   6.540   4.496 -0.3290 -0.6826 -0.4834
22892SOL    HW275538   7.421   6.638   4.530 -1.5917 -1.5222 -2.0180
22893SOL     OW75539   2.027   4.534   1.724  0.3330  0.1997  0.8345
22893SOL    HW175540   2.024   4.440   1.741 -0.1521  0.1292  0.4025
22893SOL    HW275541   1.948   4.551   1.672 -0.2883  1.0760  2.0150
22894SOL     OW75542   4.411  10.308   2.345 -0.0968  0.1852  0.3719
22894SOL    HW175543   4.432  10.307   2.251 -0.9244  0.5163  0.1750
22894SOL    HW275544   4.431  10.397   2.373  1.5326 -0.3010  0.8520
22895SOL     OW75545  12.174   1.705   4.557 -0.1396 -0.0979  0.0396
22895SOL    HW175546  12.190   1.620   4.517 -0.1872 -0.4150  0.6885
22895SOL    HW275547  12.162   1.686   4.650  0.4650  0.6878  0.2858
22896SOL     OW75548   0.392   4.430   6.452  0.3509  0.0655  0.6745
22896SOL    HW175549   0.359   4.462   6.368  0.0799 -1.5627  0.1330
22896SOL    HW275550   0.420   4.340   6.434  2.2345  0.3775  1.8499
22897SOL     OW75551   7.275  12.475  12.187  0.0583  0.3207  0.3467
22897SOL    HW175552   7.355  12.456  12.137  0.4666 -0.0676  1.1248
22897SOL    HW275553   7.210  12.414  12.154  0.4262 -0.1753  0.5236
22898SOL     OW75554   9.591   1.961  10.341  0.4961  0.2797 -0.2767
22898SOL    HW175555   9.645   1.900  10.291  0.8773  0.1116  0.3282
22898SOL    HW275556   9.654   2.023  10.379  0.0612  1.4832 -1.4531
22899SOL     OW75557  11.424   6.833   9.891  0.1557  0.6322  0.1799
22899SOL    HW175558  11.464   6.759   9.845  0.0080  0.4037  0.4170
22899SOL    HW275559  11.440   6.908   9.834 -1.2650  0.1167 -0.9837
22900SOL     OW75560   9.709   3.563   3.184  0.1616 -0.5250 -0.2260
22900SOL    HW175561   9.628   3.536   3.226  0.3499  1.2701  1.4576
22900SOL    HW275562   9.684   3.589   3.096 -1.4064  1.2340  0.6563
22901SOL     OW75563   4.024   1.510  12.287  0.1472  0.2175 -0.8594
22901SOL    HW175564   4.105   1.554  12.260 -0.5935  2.0479 -0.2089
22901SOL    HW275565   3.990   1.472  12.205 -0.1176  2.4402 -1.8434
22902SOL     OW75566   5.591   0.469   7.543  0.1669  0.7140 -0.0133
22902SOL    HW175567   5.660   0.524   7.504  0.5113  0.2726 -0.0296
22902SOL    HW275568   5.636   0.389   7.568 -0.4367  0.2403 -0.4296
22903SOL     OW75569   4.305  10.281   6.177  0.6111 -0.4520  0.2372
22903SOL    HW175570   4.378  10.289   6.116  1.3352 -2.6228  0.7326
22903SOL    HW275571   4.228  10.269   6.121  0.4105  2.5020 -0.3080
22904SOL     OW75572   8.013   0.776   4.899 -0.1470 -0.1899  0.3137
22904SOL    HW175573   8.071   0.785   4.824 -0.5949 -0.1723 -0.0335
22904SOL    HW275574   7.946   0.844   4.886 -1.0728 -1.1426 -0.0547
22905SOL     OW75575   9.643   7.665   4.579  1.0343  0.0237 -0.5723
22905SOL    HW175576   9.566   7.710   4.544  1.5496  0.9298 -0.5578
22905SOL    HW275577   9.658   7.592   4.519 -0.0894 -0.4339 -0.3329
22906SOL     OW75578   3.155  11.716  12.235  0.3800  0.2215 -0.0099
22906SOL    HW175579   3.218  11.644  12.233 -0.4927 -0.5364 -0.7995
22906SOL    HW275580   3.142  11.740  12.143 -0.5323  0.3059  0.1264
22907SOL     OW75581   7.207  12.218   4.196  0.0022 -0.1493  0.3904
22907SOL    HW175582   7.139  12.207   4.131 -0.5197  2.3063  0.4611
22907SOL    HW275583   7.259  12.292   4.166  0.8230 -0.0752  1.8730
22908SOL     OW75584   7.013   5.174   0.365 -0.4778  0.4826 -0.1392
22908SOL    HW175585   6.941   5.192   0.304  0.2823  0.2802 -1.1342
22908SOL    HW275586   6.995   5.086   0.398 -0.8215  0.5378 -0.1694
22909SOL     OW75587   9.996   5.445  11.733 -0.6876 -0.6393 -0.4945
22909SOL    HW175588  10.075   5.404  11.770 -1.3442 -1.7309 -0.2738
22909SOL    HW275589   9.968   5.385  11.665 -1.5241 -0.4255 -0.3411
22910SOL     OW75590  10.567   7.851  12.155  0.0363 -0.0136 -0.2966
22910SOL    HW175591  10.637   7.914  12.137  0.5200 -0.8426 -1.3841
22910SOL    HW275592  10.524   7.838  12.071 -4.0775  3.4241  0.8947
22911SOL     OW75593   3.996   6.799  11.618  1.0938  0.0483 -0.4983
22911SOL    HW175594   3.952   6.811  11.533  0.8066  1.3930 -0.1796
22911SOL    HW275595   4.076   6.850  11.611  0.4305  1.2547  0.4933
22912SOL     OW75596   4.468   5.284   0.595 -0.0173 -0.3945  1.0422
22912SOL    HW175597   4.416   5.204   0.593 -0.6031 -0.0167  0.9480
22912SOL    HW275598   4.468   5.314   0.504  0.7713 -0.6404  0.9479
22913SOL     OW75599   3.064  12.355  11.961  0.5068 -0.3008 -0.2170
22913SOL    HW175600   3.058  12.281  12.021  1.6696 -0.7358 -0.6188
22913SOL    HW275601   2.992  12.342  11.899 -0.9662  0.3636  1.2572
22914SOL     OW75602   6.024  12.103  11.776  0.2634 -0.1016  0.0931
22914SOL    HW175603   6.101  12.046  11.783  0.1956 -0.1775  0.2180
22914SOL    HW275604   5.991  12.089  11.687  0.5972  0.1917 -0.0814
22915SOL     OW75605   3.740   7.505   9.440  0.0629  0.5702 -0.1886
22915SOL    HW175606   3.763   7.433   9.381 -1.7014  0.7617 -1.1714
22915SOL    HW275607   3.810   7.569   9.429  0.5517 -0.0787 -0.9091
22916SOL     OW75608   9.004   9.445   8.278 -0.6488 -0.1839  0.2042
22916SOL    HW175609   9.079   9.501   8.259 -1.5376  1.1572  0.4404
22916SOL    HW275610   9.040   9.357   8.285  1.1517  0.6117  1.8183
22917SOL     OW75611   8.274   4.604   4.376  0.1852  0.2136  0.2847
22917SOL    HW175612   8.199   4.645   4.332  0.2916 -0.7659 -0.8572
22917SOL    HW275613   8.292   4.661   4.451 -1.3880  0.7215  0.3033
22918SOL     OW75614   8.124   1.256  12.323  0.3857 -0.0349 -0.2431
22918SOL    HW175615   8.070   1.200  12.267  0.3710  0.1928 -0.4552
22918SOL    HW275616   8.205   1.268  12.274  0.6474 -0.3978  0.0864
22919SOL     OW75617  11.455   4.797  10.198  0.3841  0.4543  0.3584
22919SOL    HW175618  11.520   4.858  10.163  1.6998 -1.7151 -1.2559
22919SOL    HW275619  11.506   4.724  10.231 -1.1829 -0.7317  0.2670
22920SOL     OW75620   3.124   8.323   1.922  0.7638 -0.0532 -0.3336
22920SOL    HW175621   3.048   8.349   1.974  1.2109  0.6148  0.0104
22920SOL    HW275622   3.092   8.255   1.864 -0.6682  1.8013 -1.8344
22921SOL     OW75623  11.305   8.738   2.788  0.1655 -0.3685  0.4071
22921SOL    HW175624  11.313   8.729   2.883  2.7316 -0.4127  0.2639
22921SOL    HW275625  11.276   8.652   2.758 -1.8936 -0.0067  1.1946
22922SOL     OW75626   0.429   4.523   7.079 -0.2854  0.1090  0.1095
22922SOL    HW175627   0.455   4.588   7.014 -0.3764  0.3127  0.2754
22922SOL    HW275628   0.511   4.495   7.119 -0.3866  1.9380  1.7748
22923SOL     OW75629   5.408   2.289   6.123  0.2172 -0.0655 -0.3150
22923SOL    HW175630   5.443   2.276   6.211  1.9261 -0.8928 -1.0576
22923SOL    HW275631   5.421   2.204   6.080 -1.7164 -0.0536 -1.0182
22924SOL     OW75632   2.676   6.156  11.130  0.1574  0.2866 -0.2617
22924SOL    HW175633   2.715   6.181  11.214  0.1548 -0.7981  0.0759
22924SOL    HW275634   2.585   6.136  11.151  0.4745 -1.3131 -0.2338
22925SOL     OW75635   6.235  10.933   5.575  0.4034  0.8861  0.0958
22925SOL    HW175636   6.331  10.928   5.568  0.4306  1.3975  0.1166
22925SOL    HW275637   6.204  10.855   5.528  0.9004 -0.6974  2.2493
22926SOL     OW75638   6.024   8.003   3.110  0.0353  0.9252  0.1985
22926SOL    HW175639   5.949   7.953   3.078  0.2799  1.2510 -0.9331
22926SOL    HW275640   5.990   8.091   3.126 -0.6904  0.1979  3.3749
22927SOL     OW75641   7.016   3.192  12.019  0.0845 -0.1589  0.3434
22927SOL    HW175642   7.091   3.219  12.073  0.0234  0.2554  0.2291
22927SOL    HW275643   7.010   3.260  11.951 -0.5094 -0.0885  0.4609
22928SOL     OW75644   0.161  12.250   8.463 -0.2590  0.2279  0.0615
22928SOL    HW175645   0.157  12.249   8.368  1.7153 -0.7799 -0.0715
22928SOL    HW275646   0.152  12.342   8.487  0.1663  0.6040 -1.1617
22929SOL     OW75647   8.728  10.552   9.058  0.1001  0.0078  0.3229
22929SOL    HW175648   8.781  10.549   9.137  1.7512 -2.9390 -0.7481
22929SOL    HW275649   8.779  10.603   8.996 -1.6099  3.1359  1.2538
22930SOL     OW75650  10.486  10.567   9.442  0.1730 -0.5587 -0.3874
22930SOL    HW175651  10.566  10.571   9.390  0.2246  1.1172 -0.2490
22930SOL    HW275652  10.515  10.579   9.532  0.1712 -4.2478  0.2450
22931SOL     OW75653   1.239   9.274   7.219 -0.1521  0.0789  0.2087
22931SOL    HW175654   1.267   9.197   7.268 -0.4650 -0.1604  0.0214
22931SOL    HW275655   1.232   9.343   7.285  1.4596  0.3160  0.1672
22932SOL     OW75656   8.460  10.215   6.708  0.1840  0.3193 -0.3096
22932SOL    HW175657   8.396  10.145   6.724 -0.6474  1.4909  2.0172
22932SOL    HW275658   8.441  10.280   6.775  2.9802  1.3551 -0.3819
22933SOL     OW75659  12.113   9.116   1.829 -0.2726 -0.5914  0.2711
22933SOL    HW175660  12.120   9.123   1.734  1.3869  1.1251  0.4611
22933SOL    HW275661  12.044   9.051   1.843 -0.3591 -1.1077 -2.0840
22934SOL     OW75662   9.227   3.846   1.231 -0.4243 -0.2101  0.1085
22934SOL    HW175663   9.194   3.936   1.230  1.8241  0.6778  0.0267
22934SOL    HW275664   9.214   3.814   1.142 -0.0414  0.5395 -0.2281
22935SOL     OW75665   4.272   8.030   4.353 -0.1254  0.2931  0.6931
22935SOL    HW175666   4.258   8.124   4.342 -1.1992  0.1935  1.1601
22935SOL    HW275667   4.284   7.998   4.264 -1.6251  0.5951  0.3549
22936SOL     OW75668   4.141   9.749   8.969 -0.4188 -0.1113 -0.1519
22936SOL    HW175669   4.085   9.816   9.007  1.3001  0.6522  1.1669
22936SOL    HW275670   4.101   9.729   8.884 -1.8798  1.3620  0.1474
22937SOL     OW75671   8.011   6.381  10.819  0.0721  0.5191  0.4662
22937SOL    HW175672   8.092   6.336  10.796 -0.2845  0.8793 -1.6906
22937SOL    HW275673   7.947   6.311  10.829 -0.1601  0.4098 -1.4844
22938SOL     OW75674  10.493  11.216   5.932 -0.0766  0.1811  0.6108
22938SOL    HW175675  10.478  11.171   6.015  0.3013  1.8190  1.6128
22938SOL    HW275676  10.586  11.203   5.914  0.2795  1.3747  1.4471
22939SOL     OW75677  12.044   0.055   2.941  0.2531 -0.0623 -0.2163
22939SOL    HW175678  12.127   0.080   2.983  1.1909  1.2202 -2.6234
22939SOL    HW275679  11.978   0.109   2.985  0.6326 -1.0780  1.7208
22940SOL     OW75680   1.146   4.735   1.245  0.0292  0.0082 -0.1209
22940SOL    HW175681   1.053   4.716   1.259  0.6455 -1.4119  2.9235
22940SOL    HW275682   1.164   4.810   1.302  0.7375  0.2715 -0.6862
22941SOL     OW75683   0.645  11.108   3.708  0.7691  0.1357  0.2964
22941SOL    HW175684   0.740  11.102   3.705  0.7483 -0.2625  0.3391
22941SOL    HW275685   0.623  11.088   3.799  0.6742  0.7205  0.4071
22942SOL     OW75686   2.810   3.654   9.279 -0.9816  0.0025 -0.6499
22942SOL    HW175687   2.858   3.667   9.360  0.1001 -0.6648 -1.1683
22942SOL    HW275688   2.725   3.619   9.307 -0.8257  0.2945  0.2112
22943SOL     OW75689   9.896   7.896  11.848 -0.3809  0.1339 -0.0267
22943SOL    HW175690   9.863   7.914  11.760  1.2349  0.9936 -0.5069
22943SOL    HW275691   9.895   7.982  11.892  1.4462  0.2887 -0.1907
22944SOL     OW75692   9.793   4.225   9.879  0.6295  0.3038 -0.3644
22944SOL    HW175693   9.794   4.145   9.933  2.2154 -0.8477 -2.0143
22944SOL    HW275694   9.700   4.242   9.864  0.2624 -1.9677 -0.9825
22945SOL     OW75695   3.855   2.344   1.669  0.7386 -0.1905 -0.1508
22945SOL    HW175696   3.793   2.302   1.728  1.3157  0.6819  1.1185
22945SOL    HW275697   3.930   2.285   1.666  0.6256 -0.3329 -0.1744
22946SOL     OW75698   9.471  10.261   2.234  0.4895 -0.2644 -0.6601
22946SOL    HW175699   9.466  10.171   2.265  0.0766 -0.3137 -0.8681
22946SOL    HW275700   9.385  10.299   2.255 -0.0678 -0.4962 -2.3652
22947SOL     OW75701   1.184   2.612   3.195 -0.0895  0.1259 -0.7647
22947SOL    HW175702   1.135   2.607   3.278  0.5410  2.6325 -0.1348
22947SOL    HW275703   1.217   2.524   3.181  1.5264 -0.0142  2.7919
22948SOL     OW75704   4.925   6.390   3.353  0.0596  0.0587 -0.4170
22948SOL    HW175705   4.961   6.325   3.292 -0.9741  0.4768 -1.5064
22948SOL    HW275706   4.943   6.474   3.311  0.5843  0.4344  0.5502
22949SOL     OW75707   7.602  11.940   3.988 -0.0288 -0.1554  0.2562
22949SOL    HW175708   7.677  11.989   3.955 -0.9425  1.9880  1.1659
22949SOL    HW275709   7.634  11.900   4.069  0.3131  0.2538  0.3305
22950SOL     OW75710   2.011   1.396   1.637  0.7472 -0.2523 -0.1524
22950SOL    HW175711   1.964   1.313   1.633  0.7451 -0.2898  0.5898
22950SOL    HW275712   2.060   1.393   1.719  0.5688  0.5698 -0.0010
22951SOL     OW75713  11.519   8.819   6.757 -0.1184 -0.2157 -0.5362
22951SOL    HW175714  11.428   8.841   6.778 -0.4854 -1.0109 -1.2227
22951SOL    HW275715  11.571   8.869   6.819 -1.0758 -1.0906  1.0192
22952SOL     OW75716   2.255   5.049   0.724  0.7454  0.5499  0.2669
22952SOL    HW175717   2.211   5.134   0.720  1.7970  1.1608  1.0544
22952SOL    HW275718   2.310   5.047   0.645 -1.0008 -0.4473 -1.0126
22953SOL     OW75719   3.035   5.204   4.043 -0.4813 -0.0686  0.1379
22953SOL    HW175720   3.023   5.134   3.979  1.2053 -1.7134  1.4930
22953SOL    HW275721   3.119   5.184   4.084 -0.3844  2.2683  1.2385
22954SOL     OW75722   7.648   1.899   6.308  0.5817 -0.3761 -0.1337
22954SOL    HW175723   7.628   1.991   6.324 -0.3414 -0.5699 -0.1120
22954SOL    HW275724   7.723   1.880   6.363  1.3047  0.5790 -0.7626
22955SOL     OW75725   4.384   9.603   7.285  0.0854 -0.1737  0.5185
22955SOL    HW175726   4.399   9.537   7.217 -1.3114 -2.1189  1.9552
22955SOL    HW275727   4.292   9.591   7.309  0.4322  0.7118  2.4491
22956SOL     OW75728  11.154  10.686  10.837 -0.1480  0.2501  0.4564
22956SOL    HW175729  11.164  10.646  10.750 -0.0809  1.2963 -0.0302
22956SOL    HW275730  11.060  10.688  10.852 -0.1547 -0.0401  0.4683
22957SOL     OW75731   3.505   7.753   7.412 -0.0002  0.0174  0.1178
22957SOL    HW175732   3.536   7.722   7.326 -0.5588  0.4814 -0.2572
22957SOL    HW275733   3.530   7.845   7.415 -1.2916  0.3973 -0.1791
22958SOL     OW75734   2.021   8.529   0.471  0.5802 -0.0019 -0.2472
22958SOL    HW175735   2.055   8.601   0.418 -1.2890  0.4535 -0.9164
22958SOL    HW275736   1.942   8.566   0.512 -0.5016 -1.6850 -0.7144
22959SOL     OW75737   0.024   9.863   1.383 -0.0708 -0.0962 -1.0100
22959SOL    HW175738   0.084   9.842   1.455 -0.7425 -2.2091 -0.9940
22959SOL    HW275739  -0.058   9.885   1.427  0.2155  1.1663 -1.0806
22960SOL     OW75740   6.575   4.323   1.669 -0.3885  0.4243 -0.0507
22960SOL    HW175741   6.619   4.275   1.740 -1.5137 -0.5723  0.0071
22960SOL    HW275742   6.482   4.312   1.688 -0.6826  1.1223 -1.0590
22961SOL     OW75743   3.853  10.842   8.828  1.2026  0.0435  0.3442
22961SOL    HW175744   3.899  10.770   8.871  1.5220 -0.3047 -0.5562
22961SOL    HW275745   3.810  10.802   8.753 -0.3739  0.4169  1.0065
22962SOL     OW75746   0.134  10.353   0.730  0.1657 -0.0444 -0.3306
22962SOL    HW175747   0.174  10.341   0.644 -0.0216 -0.6907 -0.3324
22962SOL    HW275748   0.075  10.427   0.719  1.0419  0.6508 -0.4386
22963SOL     OW75749   6.708   3.841   9.021  0.0000 -0.6055 -0.2219
22963SOL    HW175750   6.628   3.891   9.002  0.8646  0.8811 -0.1017
22963SOL    HW275751   6.751   3.890   9.091  2.0329 -0.1926 -1.6726
22964SOL     OW75752   9.773   8.590  11.173  0.0769 -0.3401  0.1594
22964SOL    HW175753   9.841   8.541  11.127 -1.5113 -1.0632 -1.5501
22964SOL    HW275754   9.691   8.562  11.132 -1.1058  2.0352  0.7073
22965SOL     OW75755   6.996   6.698   1.822 -0.1037 -0.4872  0.4013
22965SOL    HW175756   7.070   6.642   1.845  0.2017  0.2547  1.2744
22965SOL    HW275757   6.930   6.679   1.890 -0.2963 -0.3520  0.2522
22966SOL     OW75758   8.968   9.463   3.351  0.2495 -0.3718 -0.3132
22966SOL    HW175759   8.923   9.384   3.381  2.2036 -1.0341  1.0840
22966SOL    HW275760   9.031   9.432   3.286 -1.6450  0.6357 -2.7968
22967SOL     OW75761   7.428   2.475   7.039  0.1909  0.0959 -0.2744
22967SOL    HW175762   7.335   2.480   7.020 -0.0059 -1.2437  0.2582
22967SOL    HW275763   7.469   2.457   6.954 -0.2075 -0.9984 -0.2467
22968SOL     OW75764   6.161   1.354  11.773  0.2934 -0.5232  0.3852
22968SOL    HW175765   6.145   1.405  11.852  3.2880  0.2107  0.6637
22968SOL    HW275766   6.174   1.264  11.805 -1.3222 -0.8041  0.3305
22969SOL     OW75767   5.961  10.823   1.355 -0.4459  0.0479  0.1981
22969SOL    HW175768   5.929  10.799   1.268 -1.2258 -0.4881  0.6178
22969SOL    HW275769   5.882  10.828   1.410  0.0481  0.1827  0.9186
22970SOL     OW75770   9.360   0.554   2.726 -0.4523  0.2674 -0.3482
22970SOL    HW175771   9.295   0.578   2.792  0.2422 -2.1850  1.3691
22970SOL    HW275772   9.444   0.579   2.765 -0.0902 -0.3892 -0.6965
22971SOL     OW75773   1.144   3.418   3.510  0.3300  0.2676  0.0729
22971SOL    HW175774   1.155   3.481   3.581  0.8171  0.5368 -0.2329
22971SOL    HW275775   1.208   3.349   3.528  1.8960  1.3247 -1.1586
22972SOL     OW75776   9.560   8.207   1.220 -0.2112 -0.5260 -0.1104
22972SOL    HW175777   9.573   8.113   1.203 -0.4576 -0.5328 -0.2595
22972SOL    HW275778   9.587   8.250   1.140 -1.6939 -0.5815 -0.6793
22973SOL     OW75779  12.276   4.030   7.534 -0.1168  0.0184  0.1222
22973SOL    HW175780  12.219   4.088   7.586  0.1633  0.3297  0.0840
22973SOL    HW275781  12.363   4.042   7.572  0.9867  3.3571 -2.8639
22974SOL     OW75782   8.003   8.782   3.772  0.1440  0.2749  0.3413
22974SOL    HW175783   8.028   8.863   3.815 -0.3646 -0.4723  2.1287
22974SOL    HW275784   7.963   8.729   3.841 -0.9215 -0.9026 -1.1105
22975SOL     OW75785   5.544   0.096   2.739 -0.1549 -0.6195  0.0685
22975SOL    HW175786   5.464   0.146   2.756  0.5737  1.3142 -1.7737
22975SOL    HW275787   5.527   0.053   2.655  1.6681  2.1456 -1.8767
22976SOL     OW75788   2.716   2.980   0.998 -0.3986  0.2634  0.2114
22976SOL    HW175789   2.721   2.920   0.923  0.8697 -1.5060  1.6446
22976SOL    HW275790   2.646   2.944   1.052 -1.9649  2.0786 -0.4929
22977SOL     OW75791  10.644   4.700   8.018 -0.3743  0.1114 -0.2103
22977SOL    HW175792  10.579   4.630   8.022  0.0760 -0.2946  0.1598
22977SOL    HW275793  10.716   4.669   8.074  0.2617  0.4126 -0.8414
22978SOL     OW75794   6.998   0.286   0.592 -0.8276 -0.5474 -0.2317
22978SOL    HW175795   7.028   0.292   0.501 -1.7113 -1.9957 -0.6464
22978SOL    HW275796   6.953   0.202   0.598  1.7338 -1.9166  2.3324
22979SOL     OW75797  11.351   1.123   5.968  0.3002 -0.0779 -0.0739
22979SOL    HW175798  11.395   1.199   6.007  0.3497  0.4425 -1.1048
22979SOL    HW275799  11.422   1.063   5.945  0.4065  0.3278 -0.8310
22980SOL     OW75800   1.792   9.320   7.128  0.3740  0.0666  0.1290
22980SOL    HW175801   1.704   9.286   7.143  1.1482 -1.8452  0.5600
22980SOL    HW275802   1.794   9.404   7.176 -1.0920 -0.0258  0.3763
22981SOL     OW75803   2.558   4.840   2.427  0.5101 -0.3301  0.2641
22981SOL    HW175804   2.547   4.932   2.453 -1.2149 -0.4771  0.1992
22981SOL    HW275805   2.470   4.803   2.436  1.2017 -2.0037  0.3577
22982SOL     OW75806   1.376  12.266   6.778 -0.2257 -0.0212 -0.0445
22982SOL    HW175807   1.356  12.275   6.685 -0.9131 -0.5326  0.0454
22982SOL    HW275808   1.305  12.213   6.813  2.0136 -3.2362  0.0433
22983SOL     OW75809   2.567   9.105   3.646 -0.0997  0.1697  0.3549
22983SOL    HW175810   2.632   9.113   3.576 -0.4590 -0.8573 -0.1145
22983SOL    HW275811   2.544   9.012   3.647 -0.5636  0.2809  1.4255
22984SOL     OW75812  11.467   2.889   2.246  0.1494  0.4203  0.5690
22984SOL    HW175813  11.472   2.938   2.164 -0.9466 -0.5672 -0.1190
22984SOL    HW275814  11.472   2.956   2.314  0.2664  1.3333 -0.3053
22985SOL     OW75815   4.184   0.028   2.218  0.2196 -0.1259 -0.0644
22985SOL    HW175816   4.209  -0.062   2.240  0.0623 -0.2695 -0.4559
22985SOL    HW275817   4.256   0.081   2.251 -0.7317 -0.1661  2.2021
22986SOL     OW75818  12.302  10.552   7.199 -0.1184 -0.2758 -0.4340
22986SOL    HW175819  12.305  10.635   7.245 -0.3063 -0.7216  0.4000
22986SOL    HW275820  12.371  10.558   7.133  0.8146  0.0044  0.5516
22987SOL     OW75821   1.178   9.444   7.404  0.5755  0.4557  0.0755
22987SOL    HW175822   1.107   9.466   7.464  1.5468 -2.1033  2.4095
22987SOL    HW275823   1.239   9.517   7.410 -0.1694  1.0223  0.8901
22988SOL     OW75824   3.389   9.333   1.211  0.3538  0.7580 -0.2588
22988SOL    HW175825   3.404   9.350   1.118 -0.4525 -0.9312 -0.7261
22988SOL    HW275826   3.405   9.240   1.222 -0.5809  0.7254  1.0753
22989SOL     OW75827  11.879   3.853   6.953  0.2236 -0.5363  0.5612
22989SOL    HW175828  11.885   3.786   6.886  2.4350  0.8930 -0.7958
22989SOL    HW275829  11.956   3.839   7.008  0.4803  0.5812  0.5170
22990SOL     OW75830   8.433   6.115   7.961  0.3634  0.0574 -0.3164
22990SOL    HW175831   8.391   6.080   8.040  2.0006  0.0449  0.5893
22990SOL    HW275832   8.432   6.210   7.974  1.4954  0.0150  0.2135
22991SOL     OW75833   2.137   3.500  11.961  0.4411  0.7946 -0.0977
22991SOL    HW175834   2.060   3.467  11.914 -0.0113  0.4344  0.8678
22991SOL    HW275835   2.146   3.441  12.036  1.5597  0.9417 -0.1027
22992SOL     OW75836   8.368  12.335   1.654 -0.1648 -0.3473 -0.5588
22992SOL    HW175837   8.386  12.385   1.734 -0.6273 -1.9528  0.6013
22992SOL    HW275838   8.416  12.253   1.665 -2.1872 -1.6331 -0.7461
22993SOL     OW75839   2.144  10.801   2.072 -0.6635 -0.4051 -0.4336
22993SOL    HW175840   2.134  10.707   2.088 -1.8442 -0.4239 -1.2217
22993SOL    HW275841   2.239  10.813   2.061 -0.5944 -1.7159 -1.5894
22994SOL     OW75842   6.904   2.362   9.337 -0.6826 -0.0283 -0.3072
22994SOL    HW175843   6.874   2.453   9.344 -0.4211  0.0816 -0.5883
22994SOL    HW275844   6.928   2.352   9.245  1.4470  0.3142  0.1634
22995SOL     OW75845   5.093   3.724   9.479 -0.6627 -0.1259  0.1743
22995SOL    HW175846   5.188   3.729   9.467 -0.2611  0.0009  2.7860
22995SOL    HW275847   5.082   3.694   9.569 -3.1288 -0.4572 -0.1676
22996SOL     OW75848  10.645   6.467   3.507 -0.0147  0.1949  0.2991
22996SOL    HW175849  10.671   6.551   3.545 -0.7800  0.6233 -0.1012
22996SOL    HW275850  10.711   6.405   3.538 -0.6906  0.4711  2.4688
22997SOL     OW75851   7.769  10.153   8.642  0.8590  0.5440  0.3441
22997SOL    HW175852   7.800  10.169   8.553  0.8667 -0.7125  0.0939
22997SOL    HW275853   7.685  10.198   8.648 -1.0251 -2.3494 -1.5983
22998SOL     OW75854   5.498  12.171   0.808  0.1661 -0.7305  0.5746
22998SOL    HW175855   5.502  12.133   0.896  1.5806  0.2382  0.9648
22998SOL    HW275856   5.552  12.250   0.814  1.5000 -1.4204 -1.5146
22999SOL     OW75857   4.797   0.869   9.313 -0.4619 -0.1343  0.0759
22999SOL    HW175858   4.714   0.864   9.266 -1.5455  2.0954  1.6125
22999SOL    HW275859   4.856   0.913   9.251 -0.7421 -0.6675 -0.5868
23000SOL     OW75860   8.347   3.528   0.948  0.3840  0.2545 -0.4377
23000SOL    HW175861   8.353   3.465   1.020  1.6165 -0.7399 -1.3488
23000SOL    HW275862   8.422   3.587   0.962 -0.2640  1.0197 -0.0762
23001SOL     OW75863   7.555   4.681  10.388 -0.0713 -0.0194  0.0680
23001SOL    HW175864   7.583   4.635  10.468 -0.0747  0.9168  0.6211
23001SOL    HW275865   7.632   4.731  10.361  0.4957 -1.6037 -1.5106
23002SOL     OW75866   8.247   7.352   9.417 -0.3664 -0.2552 -0.3516
23002SOL    HW175867   8.182   7.336   9.348 -2.1385  0.4939  1.0528
23002SOL    HW275868   8.202   7.327   9.498  0.3001  2.2103  0.8990
23003SOL     OW75869   9.780   4.493  12.181 -0.0272  0.0801  0.4758
23003SOL    HW175870   9.692   4.499  12.143  0.4808 -2.1105 -1.2889
23003SOL    HW275871   9.838   4.524  12.111  0.6930  0.4962  1.2415
23004SOL     OW75872   9.266   5.658   7.441 -0.4315 -0.4936 -0.0810
23004SOL    HW175873   9.278   5.737   7.388 -0.0470 -0.8868 -0.5899
23004SOL    HW275874   9.351   5.614   7.437 -0.6019 -0.8621  0.3161
23005SOL     OW75875  12.441   8.148   6.298 -0.2014 -0.5994  0.4922
23005SOL    HW175876  12.388   8.219   6.262 -0.3089 -0.8294  0.1985
23005SOL    HW275877  12.514   8.140   6.236 -0.4582 -1.0864  0.2503
23006SOL     OW75878   7.146  10.933   4.986  0.0507 -0.4932 -0.1169
23006SOL    HW175879   7.205  10.928   4.910 -1.5212 -1.1095 -1.3606
23006SOL    HW275880   7.091  11.010   4.969 -0.0967 -0.4405  0.5739
23007SOL     OW75881   9.447   6.281   9.120  0.3718  0.2413  0.0173
23007SOL    HW175882   9.439   6.283   9.025 -2.2922  1.6419  0.1627
23007SOL    HW275883   9.489   6.364   9.142 -1.1491  1.0077  0.1358
23008SOL     OW75884   2.746   9.798   8.753  0.3789 -0.3270 -0.3654
23008SOL    HW175885   2.813   9.737   8.722  0.1597 -0.1315 -1.2464
23008SOL    HW275886   2.726   9.768   8.842  2.1437  0.0344  0.2094
23009SOL     OW75887   7.146   8.510   0.059  0.6529 -0.4714 -0.2166
23009SOL    HW175888   7.215   8.445   0.065  1.3100  0.2748  0.6015
23009SOL    HW275889   7.140   8.531  -0.034 -0.3618 -2.4953 -0.6719
23010SOL     OW75890   9.564  10.612  12.003  0.4571  0.1489 -0.2104
23010SOL    HW175891   9.487  10.619  11.948 -0.6378 -0.2330  1.2190
23010SOL    HW275892   9.598  10.524  11.986 -0.3974 -0.3042  0.3557
23011SOL     OW75893   7.510   9.630   6.991  0.0432  0.0538  0.3460
23011SOL    HW175894   7.431   9.577   6.982 -0.2455  0.3786  0.9365
23011SOL    HW275895   7.581   9.566   6.999 -0.1117 -0.2386 -0.4997
23012SOL     OW75896   2.261   5.864   4.468  0.1998  0.1272 -0.0306
23012SOL    HW175897   2.231   5.947   4.432  0.1572 -0.1121 -0.5503
23012SOL    HW275898   2.355   5.861   4.447  0.1435 -0.0811 -0.2515
23013SOL     OW75899   1.666   2.101   1.786 -0.1498 -0.6203 -0.1306
23013SOL    HW175900   1.725   2.051   1.842 -0.0153  0.8741  1.1369
23013SOL    HW275901   1.588   2.045   1.777  0.7881 -1.9091 -0.4774
23014SOL     OW75902   8.876   3.928   2.075 -0.0244  0.2647  1.0747
23014SOL    HW175903   8.865   3.834   2.093  0.1304  0.1595  0.6152
23014SOL    HW275904   8.786   3.962   2.075 -0.2483 -0.2227 -0.5807
23015SOL     OW75905   3.916   9.391   1.280  0.4621 -0.1280 -0.0144
23015SOL    HW175906   4.008   9.406   1.260  0.2446  0.1906 -0.7978
23015SOL    HW275907   3.871   9.398   1.196 -0.1628 -1.2247  0.2079
23016SOL     OW75908   0.320   5.236   8.506 -0.1012 -0.0589  0.6051
23016SOL    HW175909   0.258   5.172   8.472  0.1955 -0.1570  0.2381
23016SOL    HW275910   0.367   5.190   8.576 -0.4697  0.0296  0.9115
23017SOL     OW75911   5.215  11.341   8.825  0.4261  0.2223  0.0913
23017SOL    HW175912   5.184  11.282   8.755  0.9289  1.2186 -0.9990
23017SOL    HW275913   5.242  11.281   8.895  2.1783 -0.9447 -1.4958
23018SOL     OW75914   6.340   8.126   3.711  0.6124  0.3236  0.2017
23018SOL    HW175915   6.361   8.041   3.671 -0.8806  0.1635 -0.2900
23018SOL    HW275916   6.280   8.104   3.782  1.1059  0.8760  0.7975
23019SOL     OW75917   0.887   7.671  10.879  0.2391 -0.4254  0.0785
23019SOL    HW175918   0.880   7.576  10.875 -2.1467 -0.2809 -0.9519
23019SOL    HW275919   0.802   7.700  10.913  0.2095  1.4109 -1.4038
23020SOL     OW75920   3.123  10.515   7.092 -0.3280 -0.1135 -0.2540
23020SOL    HW175921   3.126  10.421   7.080 -1.9227 -0.1195 -0.7413
23020SOL    HW275922   3.033  10.534   7.119 -0.3667  1.3893 -1.3148
23021SOL     OW75923   1.725   3.068   9.395 -0.1404  0.2102  0.1909
23021SOL    HW175924   1.786   2.996   9.376  1.0647  1.0795  0.6659
23021SOL    HW275925   1.665   3.068   9.321 -0.3735 -1.4872  0.3266
23022SOL     OW75926   5.673   6.024   2.678  0.0347  0.8150  0.9539
23022SOL    HW175927   5.677   5.994   2.588 -1.2732 -0.4945  1.3114
23022SOL    HW275928   5.625   5.956   2.725  1.4068  1.0428  2.8237
23023SOL     OW75929  12.011   3.869   8.470 -0.3425  0.3699 -0.3678
23023SOL    HW175930  11.963   3.939   8.514 -1.6115 -0.8737  0.3197
23023SOL    HW275931  11.988   3.878   8.378 -0.9903  0.4943 -0.1994
23024SOL     OW75932   2.768  11.298   7.789  0.3427  0.1055 -0.2655
23024SOL    HW175933   2.850  11.258   7.761 -0.5828 -1.3937 -0.9792
23024SOL    HW275934   2.738  11.243   7.861 -0.3319  0.2636 -0.4186
23025SOL     OW75935   1.388   9.755   1.989  0.1833 -0.2180 -0.2067
23025SOL    HW175936   1.478   9.725   2.002 -0.1527 -0.6437  1.3413
23025SOL    HW275937   1.337   9.706   2.054 -1.0740  0.4674 -0.6503
23026SOL     OW75938  11.540   4.288  10.883  0.2401  0.3664  0.4940
23026SOL    HW175939  11.565   4.296  10.975 -0.0597 -0.6759  0.6764
23026SOL    HW275940  11.520   4.195  10.871 -1.1076  0.7259 -0.2686
23027SOL     OW75941   0.748   7.126   5.678  0.2390  0.4059  0.3798
23027SOL    HW175942   0.678   7.114   5.614  1.2648  1.0636 -0.9187
23027SOL    HW275943   0.715   7.193   5.738 -0.6806 -0.1163  0.4731
23028SOL     OW75944   9.307   7.216   1.405 -0.3329 -0.0192  0.1351
23028SOL    HW175945   9.400   7.215   1.429  0.3883  2.9380 -2.0055
23028SOL    HW275946   9.305   7.184   1.315 -0.9415  2.3484 -0.7710
23029SOL     OW75947   9.755   6.053   9.382  0.1710  0.2222 -0.0945
23029SOL    HW175948   9.833   5.998   9.392 -1.0228 -1.5307  0.0650
23029SOL    HW275949   9.740   6.090   9.469  1.0173  0.8852 -0.2148
23030SOL     OW75950   9.127   2.284   3.228  0.1732  0.2061  0.2235
23030SOL    HW175951   9.059   2.223   3.197 -0.5076  1.4623 -0.8976
23030SOL    HW275952   9.084   2.336   3.295  0.2216  0.5445 -0.0023
23031SOL     OW75953   7.437   0.050   8.929  0.3651  0.2391  0.2265
23031SOL    HW175954   7.431  -0.028   8.984 -0.0153 -0.1159 -0.3157
23031SOL    HW275955   7.515   0.036   8.875 -0.6693 -0.5876 -1.1108
23032SOL     OW75956   5.124   6.990   7.566 -0.6199  0.2976  0.1981
23032SOL    HW175957   5.116   7.080   7.595  1.1083  0.1942  1.1616
23032SOL    HW275958   5.191   6.952   7.623  0.3083 -0.9605 -1.6129
23033SOL     OW75959   4.454   1.430  10.427 -0.2284  0.4348  0.6897
23033SOL    HW175960   4.407   1.504  10.465 -1.5709 -0.3793  0.7041
23033SOL    HW275961   4.434   1.433  10.334  2.3566  1.9226  0.0930
23034SOL     OW75962   3.418   5.916   4.447  0.0701 -0.1434 -0.1274
23034SOL    HW175963   3.343   5.972   4.466 -1.1801 -0.8149 -2.5975
23034SOL    HW275964   3.403   5.838   4.500 -0.1386  0.3431  0.5508
23035SOL     OW75965   0.774   7.801   3.790 -0.1539 -0.2655  0.6174
23035SOL    HW175966   0.825   7.855   3.729 -0.0127 -1.4027 -0.2992
23035SOL    HW275967   0.701   7.769   3.738 -2.3250  1.9235  2.0887
23036SOL     OW75968  10.196  10.076   4.910 -0.1388  0.4631  0.1691
23036SOL    HW175969  10.191  10.087   4.815  2.1828  0.6260  0.0136
23036SOL    HW275970  10.233   9.988   4.922 -1.3344  0.0369  0.9870
23037SOL     OW75971   0.180   2.554   2.047  0.2800  0.1820  0.1432
23037SOL    HW175972   0.227   2.477   2.013  0.0251 -0.3282  0.9130
23037SOL    HW275973   0.249   2.616   2.070  0.4591  0.5944 -1.3795
23038SOL     OW75974   6.998   6.299   7.589  0.2968 -0.3122  0.1995
23038SOL    HW175975   7.005   6.299   7.494 -1.3559  1.4988  0.0143
23038SOL    HW275976   7.077   6.344   7.619  0.2347  0.2028 -0.3937
23039SOL     OW75977  11.362   8.620   9.923  0.8951  0.1980  0.5088
23039SOL    HW175978  11.421   8.666   9.864  3.1509 -1.3811  1.4154
23039SOL    HW275979  11.352   8.533   9.884  1.3799 -0.4354  1.7411
23040SOL     OW75980   1.458   6.329   5.444  0.1423 -0.6110 -0.4000
23040SOL    HW175981   1.539   6.309   5.399  0.5945 -1.6787  0.8089
23040SOL    HW275982   1.484   6.347   5.535 -0.9328 -0.8140 -0.0235
23041SOL     OW75983   6.653   8.659   6.276 -0.2210 -0.3661 -0.1550
23041SOL    HW175984   6.564   8.624   6.274 -1.2665  2.0614  0.5774
23041SOL    HW275985   6.690   8.626   6.358 -0.3784 -1.4704 -0.5134
23042SOL     OW75986   1.311   3.149  10.992  0.2936 -0.9028 -0.1234
23042SOL    HW175987   1.308   3.195  10.908  1.9537 -0.9499 -0.2345
23042SOL    HW275988   1.266   3.208  11.053 -2.8034 -1.7644 -1.3824
23043SOL     OW75989   4.496   6.171   5.805  0.5656  0.4105  0.1625
23043SOL    HW175990   4.531   6.188   5.718  0.3890 -1.2492 -0.2488
23043SOL    HW275991   4.423   6.232   5.814  0.0488  0.0112 -1.1956
23044SOL     OW75992   6.399  11.600  10.739 -0.5199  0.4473 -0.4669
23044SOL    HW175993   6.370  11.685  10.773  0.7683  0.7272 -0.0116
23044SOL    HW275994   6.467  11.622  10.675  1.0259 -0.2686  0.8590
23045SOL     OW75995   3.799   7.468   9.742  0.2489 -0.3239 -0.4255
23045SOL    HW175996   3.768   7.494   9.655  1.0126  0.4061 -0.4851
23045SOL    HW275997   3.827   7.377   9.731  2.2107  0.3503 -1.4560
23046SOL     OW75998   4.118   4.481   2.206  0.5112  0.1470 -0.1521
23046SOL    HW175999   4.202   4.438   2.223 -0.1964 -0.8857  0.9137
23046SOL    HW276000   4.096   4.459   2.116  1.1349  0.0047 -0.2699
23047SOL     OW76001  11.565   8.320   3.475  0.3862  0.3004  0.3089
23047SOL    HW176002  11.513   8.386   3.521 -1.1966 -1.4854  1.2051
23047SOL    HW276003  11.550   8.339   3.382  1.4240  2.2500  0.4696
23048SOL     OW76004   1.299   4.965   7.314  0.1626 -0.1153  0.0605
23048SOL    HW176005   1.382   5.002   7.283 -1.1499  1.0842 -2.3264
23048SOL    HW276006   1.280   5.014   7.394  1.4024  0.0792  0.2611
23049SOL     OW76007  11.994   5.327   5.843  0.2860  0.5850 -0.3629
23049SOL    HW176008  12.090   5.324   5.839  0.2298  0.1234 -1.8953
23049SOL    HW276009  11.973   5.417   5.818  0.3139  0.6719 -0.0768
23050SOL     OW76010   9.095   3.297   7.936  0.3009 -0.0369 -0.2675
23050SOL    HW176011   9.139   3.381   7.919 -1.4776  0.6172 -2.0001
23050SOL    HW276012   9.103   3.249   7.854  1.5705 -1.7758  0.8000
23051SOL     OW76013  12.451   1.111   0.555 -0.0465  0.2822  0.4033
23051SOL    HW176014  12.426   1.064   0.475  0.2975 -0.0785  0.5052
23051SOL    HW276015  12.444   1.046   0.624 -1.3562  0.8522  0.8438
23052SOL     OW76016   1.903   4.486  12.137 -0.0727 -0.1708  0.0160
23052SOL    HW176017   1.959   4.555  12.102  0.9426 -1.0986 -0.2601
23052SOL    HW276018   1.867   4.522  12.218 -2.1053  1.8522 -1.6562
23053SOL     OW76019   3.656   4.506   6.480  0.4593 -0.1556 -0.2210
23053SOL    HW176020   3.700   4.432   6.523 -1.2085  0.0862  2.1070
23053SOL    HW276021   3.612   4.468   6.404 -2.3912 -2.2385  2.2348
23054SOL     OW76022  10.552  10.840   4.017  0.6362  0.3852  0.1272
23054SOL    HW176023  10.494  10.772   3.983 -0.5872  1.4173  0.0509
23054SOL    HW276024  10.586  10.884   3.939  0.4833  0.6022  0.1794
23055SOL     OW76025   5.855  10.507   7.782 -0.0071 -0.3461  0.1907
23055SOL    HW176026   5.872  10.565   7.857 -3.4841  0.0841  0.8180
23055SOL    HW276027   5.880  10.420   7.813  0.3923  0.0991  1.1770
23056SOL     OW76028   5.518   4.836   8.224  0.3592  0.4012 -0.6838
23056SOL    HW176029   5.519   4.931   8.240 -1.4165  0.4261 -0.4887
23056SOL    HW276030   5.440   4.822   8.170  0.7486 -0.9251 -0.9295
23057SOL     OW76031   0.388   4.006  10.037 -0.3780  1.0376  0.0992
23057SOL    HW176032   0.362   3.959  10.116 -0.5662  0.7437 -0.1387
23057SOL    HW276033   0.306   4.035   9.998 -0.3474  0.2634 -0.5536
23058SOL     OW76034  11.270   6.890  11.058  0.0152  0.2753  0.0293
23058SOL    HW176035  11.352   6.864  11.101  1.0468 -1.1313 -2.5397
23058SOL    HW276036  11.295   6.962  11.001 -1.0922  1.4438  0.9851
23059SOL     OW76037  11.441   9.220   8.877  0.0097  0.4072  0.5519
23059SOL    HW176038  11.418   9.277   8.951 -1.0161  0.4486  0.2119
23059SOL    HW276039  11.378   9.148   8.881  0.9795 -0.4582  0.6756
23060SOL     OW76040   4.195  11.836   4.629  0.4728  0.3299 -0.7906
23060SOL    HW176041   4.233  11.924   4.627  0.2495  0.4446 -0.2610
23060SOL    HW276042   4.237  11.790   4.557  0.2842  0.9933 -1.3311
23061SOL     OW76043   4.747   4.448   5.584  0.1295 -0.5065  0.4968
23061SOL    HW176044   4.824   4.498   5.610 -0.5931  0.2981  1.1818
23061SOL    HW276045   4.712   4.496   5.509  0.4189 -0.9948  0.0495
23062SOL     OW76046   0.184   6.300   5.602 -0.4973 -0.1617  0.0131
23062SOL    HW176047   0.223   6.388   5.607  0.1539 -0.4930  0.8446
23062SOL    HW276048   0.173   6.285   5.508  1.9306 -0.2647 -0.3279
23063SOL     OW76049   1.346   3.536   7.300 -0.2532  0.4573 -0.8857
23063SOL    HW176050   1.255   3.515   7.323 -0.0245 -0.5989 -0.8744
23063SOL    HW276051   1.376   3.459   7.252  1.3389 -0.2149  1.0621
23064SOL     OW76052   8.788  11.865   9.673  0.6043  0.0247 -0.5327
23064SOL    HW176053   8.812  11.775   9.654  0.9725 -0.0201  0.1274
23064SOL    HW276054   8.733  11.860   9.751 -0.6021  0.2377 -1.3455
23065SOL     OW76055   9.632  11.433   3.352  0.1732  0.3316  0.0985
23065SOL    HW176056   9.696  11.454   3.420  3.9533  2.0944 -3.5386
23065SOL    HW276057   9.608  11.518   3.315  0.8091 -0.5960 -2.7211
23066SOL     OW76058   2.650   4.982   9.645 -0.5931  0.8852 -0.5307
23066SOL    HW176059   2.565   4.942   9.667 -0.5697  1.3846  0.5705
23066SOL    HW276060   2.630   5.044   9.575 -1.1972  1.2065 -0.0828
23067SOL     OW76061   7.115   0.459   3.983  0.4209 -0.8578 -0.3231
23067SOL    HW176062   7.188   0.459   3.921  0.4359 -0.4516 -0.3101
23067SOL    HW276063   7.047   0.511   3.940  0.1292 -1.2545 -0.3459
23068SOL     OW76064   1.734  10.255   8.494 -0.3969  0.1379  0.3177
23068SOL    HW176065   1.782  10.198   8.434 -1.9855 -1.5004  0.5111
23068SOL    HW276066   1.791  10.331   8.506  1.6981 -1.2660 -0.1942
23069SOL     OW76067  12.014  11.199  10.418  1.0790  0.3124 -0.3359
23069SOL    HW176068  11.933  11.238  10.452  0.8488 -1.3872  1.2386
23069SOL    HW276069  12.011  11.215  10.324  0.0790  2.3212 -0.0126
23070SOL     OW76070   0.922   3.018  12.477  0.6475  0.5427 -0.2354
23070SOL    HW176071   0.973   3.075  12.420  0.6940 -0.6930 -1.4782
23070SOL    HW276072   0.831   3.029  12.449  0.1989  2.3758  1.6577
23071SOL     OW76073   1.807   0.780   2.745 -0.1337  0.5075  0.4729
23071SOL    HW176074   1.860   0.798   2.823  1.3478 -0.5148 -0.2611
23071SOL    HW276075   1.870   0.774   2.673 -1.2077 -1.0017 -0.4018
23072SOL     OW76076   2.812   2.003   3.270  0.2960  0.1754 -0.0495
23072SOL    HW176077   2.749   1.982   3.339 -0.6604 -2.1130 -1.5111
23072SOL    HW276078   2.786   2.090   3.239 -2.4559 -0.8646 -0.8870
23073SOL     OW76079   1.096   1.414  11.626  0.2379  0.0353 -0.6728
23073SOL    HW176080   1.185   1.437  11.601  0.7234  0.6061  1.4294
23073SOL    HW276081   1.103   1.327  11.666 -0.3161 -0.3098 -1.2898
23074SOL     OW76082   9.324   3.995  11.858 -0.2763  0.2167  0.1831
23074SOL    HW176083   9.291   3.982  11.947  0.2624 -3.1919  0.0074
23074SOL    HW276084   9.419   4.005  11.869 -0.3310  0.9892  0.0358
23075SOL     OW76085   6.607  12.183  10.913  0.6155 -0.1148  0.2060
23075SOL    HW176086   6.573  12.105  10.869 -0.7972  0.7499 -0.3093
23075SOL    HW276087   6.531  12.221  10.956  0.9121  1.8245 -0.8650
23076SOL     OW76088   2.665   4.328   7.815  0.4267  0.0011  0.6936
23076SOL    HW176089   2.748   4.324   7.863  0.4073 -0.8569  0.6603
23076SOL    HW276090   2.600   4.294   7.876  0.0045  1.0976  0.8872
23077SOL     OW76091   7.382   9.403   2.176 -0.5636 -0.0889  0.1591
23077SOL    HW176092   7.463   9.438   2.140 -0.5530  0.3798  0.6301
23077SOL    HW276093   7.410   9.340   2.242 -0.5779  0.1997  0.4437
23078SOL     OW76094   1.162  12.156  12.292  0.0292 -0.3362  0.0766
23078SOL    HW176095   1.067  12.144  12.301 -0.4452  2.0853 -0.8167
23078SOL    HW276096   1.176  12.167  12.198  1.0628  0.1615  0.2717
23079SOL     OW76097  10.684   8.482   7.396 -0.1843  0.3655  0.4896
23079SOL    HW176098  10.638   8.420   7.453 -1.4549  1.5561  0.8213
23079SOL    HW276099  10.698   8.434   7.315 -0.0172 -0.7506  1.1477
23080SOL     OW76100   8.170   0.067   1.895  0.5900 -0.0113 -0.0518
23080SOL    HW176101   8.155   0.045   1.803 -2.3686  0.9154  0.1015
23080SOL    HW276102   8.215   0.151   1.893 -0.3740  0.5134 -0.7190
23081SOL     OW76103   7.905   4.710   2.506 -0.0560  0.8926 -0.3042
23081SOL    HW176104   7.931   4.619   2.497  1.5500  1.1035  1.5552
23081SOL    HW276105   7.822   4.708   2.554 -0.9367  0.4098 -1.7602
23082SOL     OW76106   1.815   6.691   8.888 -0.3391 -0.0762  0.3238
23082SOL    HW176107   1.720   6.700   8.879 -0.4226 -0.9204  0.2364
23082SOL    HW276108   1.843   6.652   8.806  0.2831  1.3794 -0.1838
23083SOL     OW76109   9.274   7.260  10.013 -0.3487  0.3059  0.2913
23083SOL    HW176110   9.370   7.257  10.022 -0.4277 -0.9857  0.8195
23083SOL    HW276111   9.242   7.195  10.075 -1.3991 -1.8701 -2.3243
23084SOL     OW76112   4.876  11.153   4.238  0.3392 -0.4603 -0.6817
23084SOL    HW176113   4.898  11.188   4.325  1.0551 -0.0578 -1.0156
23084SOL    HW276114   4.782  11.165   4.230  0.2971 -0.3322 -0.0331
23085SOL     OW76115   4.497   5.758   3.719 -0.1578 -0.1233  0.1930
23085SOL    HW176116   4.519   5.740   3.811  0.7350 -0.2015 -0.0243
23085SOL    HW276117   4.547   5.837   3.698  1.5883 -1.4511 -0.9089
23086SOL     OW76118   8.586   5.426   3.568 -0.3732 -0.4356  0.1920
23086SOL    HW176119   8.503   5.405   3.610  0.1753 -1.3911  0.8306
23086SOL    HW276120   8.592   5.365   3.494 -0.3110 -0.2751  0.0643
23087SOL     OW76121   7.313   3.829  12.183 -0.5254  0.3875  0.6321
23087SOL    HW176122   7.380   3.894  12.162  0.3228  0.1055  2.3450
23087SOL    HW276123   7.308   3.829  12.278 -3.0772  0.4779  0.5544
23088SOL     OW76124   7.547   4.179   8.746 -0.5617 -0.0752  0.4067
23088SOL    HW176125   7.592   4.263   8.740 -0.1652 -0.3745 -1.5813
23088SOL    HW276126   7.543   4.161   8.840  0.5319  1.5179  0.8113
23089SOL     OW76127   1.902   4.503  10.365  0.2111  0.0914 -0.4479
23089SOL    HW176128   1.899   4.451  10.446  1.1614  0.3091 -0.2498
23089SOL    HW276129   1.811   4.518  10.342 -0.0950  0.8499  1.1265
23090SOL     OW76130   9.559   3.310   4.798  0.0322 -0.1064  0.1264
23090SOL    HW176131   9.580   3.221   4.771 -0.4313 -0.2522  0.2505
23090SOL    HW276132   9.609   3.365   4.738  1.0453 -0.4497  0.6310
23091SOL     OW76133   2.296   3.268   4.827  0.5288  0.3949 -0.4705
23091SOL    HW176134   2.218   3.215   4.843 -0.6358  2.2937  0.4042
23091SOL    HW276135   2.304   3.272   4.732 -0.1799 -0.1571 -0.5570
23092SOL     OW76136   5.488   1.358  11.465 -0.0202 -0.1880 -0.7902
23092SOL    HW176137   5.531   1.340  11.382  0.0622  0.1583 -0.8254
23092SOL    HW276138   5.404   1.313  11.458 -0.0557 -0.0816 -1.1045
23093SOL     OW76139   7.137   0.541  11.238 -0.0702 -0.3747 -0.2457
23093SOL    HW176140   7.163   0.530  11.147  0.6442  0.4550 -0.1525
23093SOL    HW276141   7.060   0.598  11.234  1.6672  2.1462 -0.2093
23094SOL     OW76142   7.273   1.552  11.012  0.3470  0.7963  0.0660
23094SOL    HW176143   7.197   1.493  11.014 -0.8783  2.2947  1.5680
23094SOL    HW276144   7.311   1.543  11.099  2.1258 -0.1453 -0.7664
23095SOL     OW76145   3.486  11.664  10.985  0.6854 -0.1254  0.2029
23095SOL    HW176146   3.406  11.629  10.946 -0.5470  1.9583  0.7143
23095SOL    HW276147   3.515  11.732  10.925  1.6447 -0.3248  0.4183
23096SOL     OW76148   3.358   4.283   4.450  0.3925 -0.3511 -0.1263
23096SOL    HW176149   3.305   4.204   4.465 -2.2240  1.3509  0.2736
23096SOL    HW276150   3.328   4.315   4.364  1.1853  0.3868 -0.1298
23097SOL     OW76151   4.961  10.109   0.076  0.3664 -0.6096  0.2335
23097SOL    HW176152   5.036  10.151   0.034 -0.0833  1.0890  1.0538
23097SOL    HW276153   4.924  10.053   0.008  0.9352  0.4129 -0.9563
23098SOL     OW76154  11.864   8.438   9.034  0.4250  0.3441  0.2583
23098SOL    HW176155  11.893   8.358   8.991  1.3265  1.3135 -1.0092
23098SOL    HW276156  11.780   8.460   8.993  1.8467  1.9201 -1.9990
23099SOL     OW76157   1.481   9.382   5.668 -0.0343 -0.1127  0.0030
23099SOL    HW176158   1.465   9.395   5.761  0.4718 -1.6108  0.3271
23099SOL    HW276159   1.543   9.309   5.664  0.4517  0.3359 -1.4865
23100SOL     OW76160   0.901  12.115  10.258 -0.0806  1.0180  0.0187
23100SOL    HW176161   0.971  12.092  10.319 -0.1431 -0.4565 -0.4028
23100SOL    HW276162   0.946  12.144  10.179  0.0640  0.6280 -0.0468
23101SOL     OW76163  11.142   4.949   9.020 -0.0081  0.0530  0.3911
23101SOL    HW176164  11.073   4.959   9.086  0.9101  3.2352  1.0104
23101SOL    HW276165  11.197   5.026   9.031  2.0318 -0.9468 -2.0051
23102SOL     OW76166   6.772   7.974   9.389  0.5875  0.3948 -0.0868
23102SOL    HW176167   6.800   7.938   9.474  0.6262 -2.1803 -1.1112
23102SOL    HW276168   6.720   7.905   9.349 -0.2634  1.9336 -1.7816
23103SOL     OW76169  10.926   8.038   3.219 -0.2709 -0.2248  0.3728
23103SOL    HW176170  10.881   8.116   3.187  3.4184  1.9217 -0.1862
23103SOL    HW276171  10.904   8.034   3.312 -1.4006  0.8226  0.1762
23104SOL     OW76172   4.952   4.200   0.733 -0.4701  0.2393 -0.2376
23104SOL    HW176173   4.908   4.236   0.656  0.4960 -0.1252 -0.9864
23104SOL    HW276174   5.040   4.177   0.702 -0.6268 -1.5576  0.5270
23105SOL     OW76175   2.931   3.604   1.636 -0.0422  0.7260  0.3196
23105SOL    HW176176   2.859   3.543   1.654  0.6547 -0.9977 -2.2376
23105SOL    HW276177   3.002   3.575   1.692 -0.0931 -0.1008 -0.0327
23106SOL     OW76178   0.524   3.672   8.915  0.4282 -0.3670 -0.1462
23106SOL    HW176179   0.535   3.746   8.974 -0.5906 -0.9645  0.8242
23106SOL    HW276180   0.519   3.712   8.828  0.3585  0.6635  0.3138
23107SOL     OW76181   2.703  12.186  11.183 -0.1042  0.7377 -0.6994
23107SOL    HW176182   2.675  12.191  11.092 -1.0395  1.3912 -0.3920
23107SOL    HW276183   2.638  12.238  11.231 -0.2475 -0.4647  0.4868
23108SOL     OW76184   2.077   4.773   4.041  0.0825 -0.2170 -0.0366
23108SOL    HW176185   2.100   4.749   3.951  1.4520  1.0936 -0.0819
23108SOL    HW276186   2.013   4.844   4.032 -0.6228 -0.8398  0.0406
23109SOL     OW76187   5.238   2.606  10.812 -0.0480 -0.2191  0.5466
23109SOL    HW176188   5.315   2.653  10.844  1.4235 -2.0804 -0.0661
23109SOL    HW276189   5.224   2.642  10.724  1.0842 -0.8565  0.0720
23110SOL     OW76190   0.624   0.286   1.267 -0.2694 -0.0237  0.0156
23110SOL    HW176191   0.601   0.197   1.295  2.0790 -1.2666 -1.6387
23110SOL    HW276192   0.599   0.289   1.174 -1.8630  1.7030  0.4294
23111SOL     OW76193   6.571   7.213   6.670  0.1436  0.1483 -0.0822
23111SOL    HW176194   6.483   7.219   6.635  0.2485 -2.7590 -1.1839
23111SOL    HW276195   6.560   7.177   6.758  0.1840 -1.7909 -0.8043
23112SOL     OW76196   5.247   7.115   0.612 -0.1952  0.8740  0.1953
23112SOL    HW176197   5.181   7.050   0.588 -0.8380  1.9136 -1.0018
23112SOL    HW276198   5.331   7.070   0.599 -0.6357 -0.2838  1.1836
23113SOL     OW76199  10.859   3.749  11.277 -0.0362  0.7297  0.2721
23113SOL    HW176200  10.857   3.755  11.372  0.9252  3.3557  0.1962
23113SOL    HW276201  10.918   3.818  11.249 -0.6218  0.3176 -2.2787
23114SOL     OW76202   3.258   6.632  11.659 -0.3898  0.5227  0.1300
23114SOL    HW176203   3.345   6.594  11.664 -0.5970  0.1090  0.7900
23114SOL    HW276204   3.199   6.557  11.663 -0.7762  0.7763 -0.6228
23115SOL     OW76205   1.404   0.799   0.082  0.1176 -0.1444  0.8586
23115SOL    HW176206   1.353   0.879   0.078  1.3703  0.6459 -2.1114
23115SOL    HW276207   1.347   0.731   0.047  0.2850  0.2738 -0.2669
23116SOL     OW76208  11.763   5.708  10.973 -0.2843 -0.2356 -0.1820
23116SOL    HW176209  11.683   5.723  11.023 -0.0927  2.1374 -0.4680
23116SOL    HW276210  11.832   5.752  11.024  0.0460  1.5579 -2.0555
23117SOL     OW76211   2.771   2.774   0.780 -0.2438  0.4075  0.7913
23117SOL    HW176212   2.793   2.816   0.697 -0.7431 -0.7245  0.0590
23117SOL    HW276213   2.855   2.764   0.825  0.3176 -0.6964 -0.4340
23118SOL     OW76214   0.385   3.186   1.975  0.1189  0.2063  0.1138
23118SOL    HW176215   0.366   3.158   1.885 -1.4722  0.5065  0.3408
23118SOL    HW276216   0.428   3.110   2.015  1.3621  0.2594 -1.0446
23119SOL     OW76217  10.060   0.233   8.913 -0.0346  0.3833  0.3511
23119SOL    HW176218  10.002   0.168   8.874  1.0854 -1.2267  1.2548
23119SOL    HW276219  10.129   0.245   8.848  0.3465 -0.1885  0.6419
23120SOL     OW76220   1.385   4.580   5.463 -0.1271 -0.3846 -0.1467
23120SOL    HW176221   1.378   4.614   5.374 -1.2409 -0.2937 -0.0438
23120SOL    HW276222   1.476   4.552   5.471 -0.1489 -0.9352 -1.5036
23121SOL     OW76223   4.814   1.639   0.207 -0.1741 -0.0949 -0.4299
23121SOL    HW176224   4.786   1.681   0.126  1.3930  2.6292  0.3034
23121SOL    HW276225   4.738   1.588   0.235 -1.4381  0.4817 -2.5949
23122SOL     OW76226   8.077  11.520   3.159  0.3513  0.3076  0.1588
23122SOL    HW176227   8.003  11.476   3.201 -0.5482  1.9323  0.3605
23122SOL    HW276228   8.115  11.454   3.102 -1.6938 -0.3859 -0.4748
23123SOL     OW76229  10.965   3.940   8.848 -0.4626 -0.1353 -0.1558
23123SOL    HW176230  10.878   3.980   8.857 -0.2298  0.1748  0.9009
23123SOL    HW276231  10.978   3.930   8.754 -1.4833  0.1666 -0.3416
23124SOL     OW76232  12.080   3.839   2.821  0.1842 -0.0327 -0.1978
23124SOL    HW176233  12.170   3.810   2.809 -0.2905 -0.5578 -3.0434
23124SOL    HW276234  12.087   3.935   2.827  0.9724 -0.1126  0.3546
23125SOL     OW76235  11.005  10.822   6.065  0.4526 -0.0443  0.6505
23125SOL    HW176236  10.965  10.738   6.044  0.1661 -0.0091  1.0333
23125SOL    HW276237  11.052  10.847   5.986 -1.8675  0.8445 -0.5453
23126SOL     OW76238   9.360  11.229  10.305  0.5046  0.0515 -0.5640
23126SOL    HW176239   9.315  11.149  10.278  0.5939  0.4262 -1.8642
23126SOL    HW276240   9.441  11.229  10.254 -0.2308  1.7862 -1.7991
23127SOL     OW76241   6.283   1.700   6.244 -0.3790 -0.2312  0.0911
23127SOL    HW176242   6.199   1.743   6.259 -1.2164 -1.9618  0.6287
23127SOL    HW276243   6.276   1.616   6.291  1.7861 -0.2704  0.4644
23128SOL     OW76244   0.733   7.982   5.961 -0.1327  0.2291  0.3507
23128SOL    HW176245   0.764   7.892   5.972 -0.5500  0.1183  0.6419
23128SOL    HW276246   0.698   8.006   6.047 -1.0600  0.2639 -0.0206
23129SOL     OW76247   6.276   9.374   9.740 -0.0379  0.1070 -0.8668
23129SOL    HW176248   6.239   9.458   9.768  0.0249  0.2382 -1.1816
23129SOL    HW276249   6.311   9.391   9.653  1.1149  0.0863 -0.4212
23130SOL     OW76250   6.489   6.596   7.860 -0.4702 -0.1474  0.1173
23130SOL    HW176251   6.455   6.673   7.905 -1.2965 -0.1199 -0.5302
23130SOL    HW276252   6.581   6.614   7.847 -1.1049  1.9001 -2.2819
23131SOL     OW76253   5.208   5.839   0.868 -0.2854 -0.0918  0.2310
23131SOL    HW176254   5.272   5.846   0.797  0.6295 -0.7965  0.9487
23131SOL    HW276255   5.233   5.908   0.929 -2.9902  2.6549 -1.4977
23132SOL     OW76256   7.408   0.356   1.473 -0.0418 -0.1336 -0.0250
23132SOL    HW176257   7.355   0.436   1.470  0.4598  0.2385  0.6875
23132SOL    HW276258   7.360   0.293   1.419  0.5990  1.2653 -2.3377
23133SOL     OW76259   0.898   2.532   1.786 -0.1589 -0.2496  0.2686
23133SOL    HW176260   0.818   2.535   1.733  0.0625 -3.9016 -0.5269
23133SOL    HW276261   0.960   2.482   1.733  0.0841 -4.1876  3.7525
23134SOL     OW76262   8.551   4.259  10.499  0.1550 -0.1110  0.3385
23134SOL    HW176263   8.480   4.227  10.554 -0.0845  2.0024  1.3791
23134SOL    HW276264   8.574   4.344  10.537  1.5135  0.4167 -1.5063
23135SOL     OW76265   7.449   0.283   2.554  0.3352  0.1083  0.2282
23135SOL    HW176266   7.502   0.335   2.494 -0.6830 -0.6303 -1.3616
23135SOL    HW276267   7.360   0.287   2.519 -0.5735  0.6736  2.4008
23136SOL     OW76268   1.449   6.648   2.304 -0.2826  0.4225 -0.0868
23136SOL    HW176269   1.538   6.630   2.273 -0.7755  0.9715 -1.9420
23136SOL    HW276270   1.452   6.740   2.331 -0.3392  0.5009 -0.3472
23137SOL     OW76271   6.158   4.599  10.515 -0.1987 -0.3904 -0.6461
23137SOL    HW176272   6.167   4.646  10.597 -0.0567  0.6049 -1.2158
23137SOL    HW276273   6.068   4.615  10.487 -0.5290 -1.4653 -0.2605
23138SOL     OW76274   4.865   8.833   9.661  0.7534 -0.0586  0.6394
23138SOL    HW176275   4.782   8.805   9.621  1.6752  1.2125 -2.4107
23138SOL    HW276276   4.839   8.897   9.727 -0.7366  2.4135 -2.0909
23139SOL     OW76277   9.615   2.551   2.287  0.2607 -0.6056  0.5370
23139SOL    HW176278   9.679   2.480   2.295 -0.3777 -1.1574  0.8689
23139SOL    HW276279   9.628   2.604   2.366 -0.2377 -1.1891  1.0238
23140SOL     OW76280   5.778  11.158  11.884 -0.2091  0.0403 -0.2024
23140SOL    HW176281   5.802  11.143  11.975 -1.9893 -0.9648  0.1326
23140SOL    HW276282   5.767  11.253  11.878  0.0108  0.1235  0.6024
23141SOL     OW76283   8.561   0.323   8.414  0.0088  0.3170  0.1755
23141SOL    HW176284   8.608   0.311   8.496  1.6905  1.5649 -0.5370
23141SOL    HW276285   8.481   0.272   8.424  0.2672  0.2728  2.4827
23142SOL     OW76286   2.197   2.493  11.033 -0.7695 -0.3127 -0.0898
23142SOL    HW176287   2.214   2.457  11.120  1.1715  0.7394  0.0201
23142SOL    HW276288   2.104   2.516  11.034 -0.9304 -0.9144  1.4576
23143SOL     OW76289   2.459   6.483   3.127 -0.4725 -0.2381 -0.4546
23143SOL    HW176290   2.500   6.550   3.181 -2.8585  0.9867 -0.0226
23143SOL    HW276291   2.369   6.514   3.114 -1.7195 -3.3441 -0.1997
23144SOL     OW76292   7.915   3.879  10.454  0.0655  0.3038 -0.2336
23144SOL    HW176293   7.879   3.869  10.542  0.3896  1.5514  0.0618
23144SOL    HW276294   7.944   3.791  10.430 -0.8717 -0.2373  0.5246
23145SOL     OW76295   9.741   8.888   6.392  0.3220  0.0647  0.1056
23145SOL    HW176296   9.749   8.972   6.349  0.8104 -0.6911 -1.3422
23145SOL    HW276297   9.816   8.884   6.452 -0.1732  0.9846  0.8065
23146SOL     OW76298   3.368   0.279  10.595  0.4386 -0.6083  0.7205
23146SOL    HW176299   3.299   0.336  10.561 -0.9865 -2.5137  0.3074
23146SOL    HW276300   3.446   0.305  10.546  0.1141  1.6330  1.2502
23147SOL     OW76301   2.637   3.310   5.851  0.9668 -0.0421 -0.1701
23147SOL    HW176302   2.571   3.321   5.782 -0.1249 -3.3500  0.1277
23147SOL    HW276303   2.612   3.372   5.919  0.2018  1.1142 -1.4536
23148SOL     OW76304   3.491   1.174   1.237 -0.2846 -0.2856  0.2851
23148SOL    HW176305   3.582   1.154   1.261 -1.1340 -3.4035  1.3721
23148SOL    HW276306   3.481   1.138   1.149 -0.4460  0.2448  0.0809
23149SOL     OW76307   8.761  10.032   4.057 -0.0795  0.5094  0.8416
23149SOL    HW176308   8.751  10.104   3.995  1.7564  0.1310  0.0432
23149SOL    HW276309   8.761  10.074   4.143  0.0269  1.3453  0.4397
23150SOL     OW76310  11.845  10.120   5.811  0.0251  0.4214 -0.0154
23150SOL    HW176311  11.793  10.200   5.821 -0.9997 -0.3297  1.0242
23150SOL    HW276312  11.781  10.054   5.783  0.0158 -0.8952  2.7643
23151SOL     OW76313   6.963   4.017   5.742 -0.4106 -0.6334 -0.0022
23151SOL    HW176314   6.995   3.930   5.768 -0.0269 -0.4352  0.2047
23151SOL    HW276315   6.906   4.044   5.813 -0.9426 -0.9307 -0.3086
23152SOL     OW76316   5.173   2.420  11.598  0.2309  0.2586 -0.3061
23152SOL    HW176317   5.162   2.411  11.692  0.3347 -0.8368 -0.3840
23152SOL    HW276318   5.267   2.405  11.583 -0.2792 -3.0925 -0.8991
23153SOL     OW76319   2.624  10.868   9.534  0.3015  0.0519  0.0310
23153SOL    HW176320   2.581  10.826   9.608 -0.9570  0.9831 -0.1448
23153SOL    HW276321   2.717  10.869   9.558 -0.1190  0.6297  1.7690
23154SOL     OW76322   6.371   0.832  12.451 -0.7679 -0.3485  0.6113
23154SOL    HW176323   6.282   0.806  12.473 -0.3678 -1.3941  1.0658
23154SOL    HW276324   6.361   0.899  12.384 -1.8481 -1.7200 -0.6550
23155SOL     OW76325   0.356   7.899   1.831 -1.0200  0.1240 -0.2573
23155SOL    HW176326   0.425   7.915   1.895  0.4536 -2.5257 -1.0336
23155SOL    HW276327   0.305   7.827   1.869 -2.1675  0.7448 -0.5930
23156SOL     OW76328  11.811   6.187   5.354 -0.1254  0.0379  0.0485
23156SOL    HW176329  11.723   6.194   5.318  0.4644 -0.6981 -1.6634
23156SOL    HW276330  11.868   6.209   5.280  1.1395 -0.7632  0.7630
23157SOL     OW76331   1.169   3.631   1.935  0.8220 -0.1823  0.7273
23157SOL    HW176332   1.218   3.549   1.938  0.9819 -0.0652  1.3351
23157SOL    HW276333   1.148   3.643   1.842  1.0381 -0.7668  0.6019
23158SOL     OW76334   1.155   2.357  10.697 -0.6084 -0.8038  0.4086
23158SOL    HW176335   1.201   2.343  10.780  0.2334 -0.8613 -0.0674
23158SOL    HW276336   1.148   2.269  10.659  0.2027 -0.6030 -0.2125
23159SOL     OW76337  10.446  11.308   9.553  0.2430 -0.2237 -0.3228
23159SOL    HW176338  10.388  11.313   9.629 -1.2348 -0.9791 -1.3497
23159SOL    HW276339  10.387  11.311   9.477  1.6004 -0.3689 -1.4348
23160SOL     OW76340   5.908   2.410   7.441 -0.3168  0.0050  0.1570
23160SOL    HW176341   5.869   2.440   7.359  0.6101  0.1929 -0.2280
23160SOL    HW276342   5.838   2.420   7.506 -0.1840  2.7428  0.0081
23161SOL     OW76343   8.818  11.555   1.597 -0.4871  0.1431 -0.4311
23161SOL    HW176344   8.826  11.638   1.550  1.2606  0.7152  0.7669
23161SOL    HW276345   8.798  11.580   1.688  0.8209 -0.6789  0.1122
23162SOL     OW76346   4.419   2.364   9.931 -0.0858  0.0423 -0.1075
23162SOL    HW176347   4.469   2.374   9.850  0.1482 -4.3609 -0.7699
23162SOL    HW276348   4.328   2.377   9.905  0.1024  0.1244 -0.7412
23163SOL     OW76349  12.390   4.916   8.453  0.6279 -0.3713  0.2141
23163SOL    HW176350  12.388   4.822   8.431  1.0860 -0.6588  1.3387
23163SOL    HW276351  12.480   4.943   8.432  0.3835 -0.0709 -0.4906
23164SOL     OW76352   3.627  12.474  10.087 -0.7068  0.3421  0.0974
23164SOL    HW176353   3.625  12.387  10.048  2.3745 -0.2708  1.0694
23164SOL    HW276354   3.592  12.463  10.175  0.0578 -0.0385  0.3630
23165SOL     OW76355   8.739   5.749   2.896 -0.0744  0.3758  0.0438
23165SOL    HW176356   8.662   5.724   2.845 -1.7745  1.6723  1.8270
23165SOL    HW276357   8.750   5.677   2.958 -0.9474  0.9512  0.8987
23166SOL     OW76358   1.498   0.014  11.054 -0.6711  0.3762 -0.5134
23166SOL    HW176359   1.489   0.049  11.143  1.7849 -0.1509  0.0294
23166SOL    HW276360   1.460  -0.074  11.059 -4.4169  1.7870 -1.1894
23167SOL     OW76361   6.914   8.861   9.943 -0.0243  0.5109  0.1536
23167SOL    HW176362   6.948   8.926  10.005 -1.1641  0.0960  1.2494
23167SOL    HW276363   6.845   8.815   9.991  0.3822 -1.1569 -0.7694
23168SOL     OW76364   0.779   0.320   9.886  0.2682 -0.1167  0.5064
23168SOL    HW176365   0.847   0.363   9.835  0.4543 -0.8681  0.1134
23168SOL    HW276366   0.755   0.242   9.835 -0.7017 -0.0024  0.7615
23169SOL     OW76367   1.407  10.066   6.108 -0.8713  0.3159  0.3747
23169SOL    HW176368   1.449  10.066   6.194 -2.4794 -0.7056  1.2146
23169SOL    HW276369   1.479  10.070   6.045  0.3513  0.6549  1.7596
23170SOL     OW76370   5.401   1.870  10.408 -0.1273 -0.1027 -0.1037
23170SOL    HW176371   5.383   1.906  10.495  0.4454  1.1418 -0.4834
23170SOL    HW276372   5.440   1.784  10.425 -2.0485 -0.8610  0.8069
23171SOL     OW76373   7.060   7.556   2.842 -0.0314 -0.2126  0.3175
23171SOL    HW176374   7.154   7.572   2.832 -0.0962 -0.5233 -1.0414
23171SOL    HW276375   7.052   7.460   2.845 -0.1712 -0.1830  2.2704
23172SOL     OW76376   6.379  12.301  11.735  0.5734 -0.1054 -0.1379
23172SOL    HW176377   6.330  12.300  11.653 -0.2269  0.3395  0.3205
23172SOL    HW276378   6.318  12.339  11.798  1.9362  1.7152  0.1625
23173SOL     OW76379   0.504   4.436   1.674 -0.0161  0.0107  0.5631
23173SOL    HW176380   0.563   4.488   1.619  1.4594 -1.1773  0.9856
23173SOL    HW276381   0.441   4.500   1.708  1.9138  1.5937  1.3171
23174SOL     OW76382   5.398  10.709   3.673  0.0553  0.0767  0.0354
23174SOL    HW176383   5.388  10.614   3.668 -1.0907  0.0234  2.1885
23174SOL    HW276384   5.322  10.743   3.625 -0.7706 -0.1639  1.1199
23175SOL     OW76385   2.483   8.676   7.044  0.3708  0.1889  0.0181
23175SOL    HW176386   2.389   8.689   7.034  0.3033  1.7903  1.9778
23175SOL    HW276387   2.494   8.652   7.136  1.8944  0.3493 -0.1003
23176SOL     OW76388   0.183  10.024  11.774  0.4654 -0.4886  0.2474
23176SOL    HW176389   0.115  10.050  11.712 -0.2533 -2.1526  0.2722
23176SOL    HW276390   0.235   9.959  11.726  1.5524  0.1620  0.5084
23177SOL     OW76391   7.939  11.096   9.308  1.1449 -0.0100 -0.0506
23177SOL    HW176392   7.982  11.060   9.386  2.4153  0.4685 -0.4983
23177SOL    HW276393   7.894  11.020   9.269  3.3076 -1.0603 -0.6685
23178SOL     OW76394   8.226   0.757   7.059 -0.1908 -0.1386 -0.4215
23178SOL    HW176395   8.133   0.780   7.055 -0.2021 -0.0789  0.0927
23178SOL    HW276396   8.267   0.829   7.106 -0.0706 -0.6887  0.3439
23179SOL     OW76397   6.676   9.645   2.109 -0.4673 -0.6479  0.2129
23179SOL    HW176398   6.757   9.619   2.066 -0.7967  0.6206 -1.2345
23179SOL    HW276399   6.617   9.571   2.096 -1.0449  0.2528 -2.8863
23180SOL     OW76400  10.469  11.116   3.661  0.0291  0.0393 -0.1012
23180SOL    HW176401  10.494  11.203   3.693 -1.0355 -0.7808  3.3945
23180SOL    HW276402  10.377  11.107   3.686  0.6496 -2.8122  1.6067
23181SOL     OW76403   7.391   3.521  11.927  0.7088 -0.3137 -0.2693
23181SOL    HW176404   7.442   3.569  11.992 -1.3249  1.3192  0.2499
23181SOL    HW276405   7.344   3.454  11.976  1.6056 -1.1952 -0.5929
23182SOL     OW76406  10.693  10.662   3.720  0.3251 -0.4450  0.1035
23182SOL    HW176407  10.657  10.750   3.711  0.4413 -0.4732 -0.7447
23182SOL    HW276408  10.624  10.612   3.765  0.6275  0.2913  1.4228
23183SOL     OW76409   5.325  12.278   2.568 -0.1232 -0.5702  0.1891
23183SOL    HW176410   5.288  12.229   2.641 -1.5459 -1.1975 -0.9082
23183SOL    HW276411   5.250  12.314   2.522  0.6878 -0.6346 -1.2702
23184SOL     OW76412   6.262   4.072   1.514  0.1021  0.3369 -0.3405
23184SOL    HW176413   6.262   4.149   1.572 -1.8059  0.9219 -1.0542
23184SOL    HW276414   6.322   4.011   1.556 -0.9094  0.8851  2.0659
23185SOL     OW76415   9.374   8.248   6.992  0.0360 -0.1940 -0.5001
23185SOL    HW176416   9.285   8.228   7.020  0.4181  0.2508  1.1715
23185SOL    HW276417   9.395   8.182   6.926 -1.0706 -1.0977  0.0281
23186SOL     OW76418   0.084   0.305   2.014 -0.1053 -0.2467 -0.1790
23186SOL    HW176419   0.134   0.277   2.091  0.2296  0.4839 -0.1246
23186SOL    HW276420  -0.003   0.326   2.048 -0.3656 -1.2017 -0.2215
23187SOL     OW76421  12.044   0.623   9.345  0.0329  0.2708 -0.0867
23187SOL    HW176422  11.982   0.551   9.360  0.7467 -0.3506 -0.0517
23187SOL    HW276423  12.010   0.695   9.397  0.3018 -0.6194  1.3734
23188SOL     OW76424   2.420   3.765   4.499  0.2548 -0.0235  0.1822
23188SOL    HW176425   2.387   3.742   4.412  0.6333  0.6127 -0.1345
23188SOL    HW276426   2.342   3.768   4.554  0.0573 -0.8402 -0.0357
23189SOL     OW76427   0.715   3.519   7.445  0.7102  0.5764  0.3632
23189SOL    HW176428   0.716   3.439   7.498  2.9844  0.1883 -0.1570
23189SOL    HW276429   0.623   3.544   7.441  0.0619 -1.4224  1.4147
23190SOL     OW76430   4.565   5.444   2.796 -0.2714  0.1364 -0.3091
23190SOL    HW176431   4.653   5.438   2.834  0.1864 -1.0727 -1.4697
23190SOL    HW276432   4.514   5.493   2.861  1.2014  0.6974  0.4793
23191SOL     OW76433   1.004   5.976  11.787 -0.1833  0.0502 -0.0612
23191SOL    HW176434   1.044   5.889  11.789 -1.0640 -0.4450 -1.8695
23191SOL    HW276435   1.078   6.036  11.774  0.1965 -0.6868 -1.4505
23192SOL     OW76436   5.646   0.860   7.268 -0.0493 -0.1003  0.1207
23192SOL    HW176437   5.655   0.855   7.172  0.4283  0.9125  0.0977
23192SOL    HW276438   5.554   0.884   7.281 -0.9194 -3.0965  0.0577
23193SOL     OW76439  10.947   1.007  11.718 -0.2828 -0.2359  0.5872
23193SOL    HW176440  11.010   1.079  11.718  0.8717 -1.1906  2.3377
23193SOL    HW276441  10.952   0.971  11.629 -1.7764  2.5068 -0.7396
23194SOL     OW76442  11.626  11.757  11.311 -0.0566 -0.6811 -0.0921
23194SOL    HW176443  11.717  11.774  11.334 -0.0385  1.3871 -1.5108
23194SOL    HW276444  11.622  11.662  11.297  1.2929 -1.1670  2.2326
23195SOL     OW76445   7.738   7.766   1.926  0.4043 -0.2512 -0.0633
23195SOL    HW176446   7.795   7.691   1.946  0.4779 -0.5818 -1.3672
23195SOL    HW276447   7.768   7.795   1.839  0.9810  1.8846  0.8004
23196SOL     OW76448   0.567   5.552   4.565  0.3751  0.3391 -0.2758
23196SOL    HW176449   0.595   5.605   4.639  0.3192 -0.2207  0.1519
23196SOL    HW276450   0.475   5.576   4.551  0.2603  0.1191  0.1157
23197SOL     OW76451   8.673   0.478   8.927 -0.2303 -0.1059 -0.0374
23197SOL    HW176452   8.694   0.423   9.003 -0.4636  0.5306  0.4979
23197SOL    HW276453   8.758   0.504   8.892 -0.1179 -0.0598  0.2626
23198SOL     OW76454   5.510  10.963  10.022  0.0727 -0.0241 -0.1095
23198SOL    HW176455   5.467  10.945   9.938  1.7583 -0.1820 -0.9807
23198SOL    HW276456   5.529  10.876  10.058  1.5611 -0.0038 -0.7756
23199SOL     OW76457   7.126   6.740  11.473 -0.3045 -0.2048 -0.3067
23199SOL    HW176458   7.142   6.698  11.557  1.0984  0.6879 -0.1055
23199SOL    HW276459   7.150   6.674  11.408 -2.1314 -1.1829 -0.0711
23200SOL     OW76460   4.418   3.858   8.885  0.3814 -0.3789 -0.4078
23200SOL    HW176461   4.386   3.882   8.972  0.0829 -1.4472 -0.2113
23200SOL    HW276462   4.421   3.941   8.837  0.3269  0.1855  0.5438
23201SOL     OW76463   5.758   9.903   7.269 -0.2052  0.1236 -0.1001
23201SOL    HW176464   5.721   9.815   7.280  0.5283 -0.4465 -1.8350
23201SOL    HW276465   5.700   9.960   7.319 -1.5324 -1.1612 -0.1026
23202SOL     OW76466   1.459   0.381  10.094  0.3325  0.3418  0.4477
23202SOL    HW176467   1.552   0.396  10.114  0.6328 -1.1841  0.2943
23202SOL    HW276468   1.413   0.419  10.169  1.2248 -1.0236  1.7527
23203SOL     OW76469   4.712  10.787   5.634  0.0299 -0.0710  0.3067
23203SOL    HW176470   4.720  10.787   5.729 -0.1456 -1.7687  0.3514
23203SOL    HW276471   4.762  10.709   5.606  1.3789  1.2359 -1.1177
23204SOL     OW76472   5.119   9.300   6.153 -0.1858  0.7692 -0.3810
23204SOL    HW176473   5.086   9.214   6.128 -2.1693  1.6048 -0.8047
23204SOL    HW276474   5.208   9.302   6.119  0.2678 -1.4609  0.5063
23205SOL     OW76475  11.525   7.243   6.435 -0.2263 -0.5279 -0.5776
23205SOL    HW176476  11.588   7.314   6.424 -1.0683  0.0026 -2.4267
23205SOL    HW276477  11.482   7.260   6.518 -0.2365  0.9963 -0.8783
23206SOL     OW76478   8.168   3.028  11.901  0.1266  0.1429 -0.2011
23206SOL    HW176479   8.088   3.079  11.917  0.2746  0.2127  0.3256
23206SOL    HW276480   8.137   2.939  11.884  0.0320 -0.3981  2.4092
23207SOL     OW76481   0.470  11.598   4.000  0.2985  0.0971 -0.0147
23207SOL    HW176482   0.518  11.681   3.998 -0.4613  0.5719 -2.9801
23207SOL    HW276483   0.516  11.543   3.937 -0.6094 -0.9067  0.1737
23208SOL     OW76484   6.813   2.747   7.407 -0.0986  0.6163 -1.0998
23208SOL    HW176485   6.887   2.701   7.367  0.9959  1.2681  0.1259
23208SOL    HW276486   6.833   2.840   7.396 -0.4211  0.7996 -0.2040
23209SOL     OW76487   0.425   8.100   7.421 -0.3783 -0.3282  0.2986
23209SOL    HW176488   0.360   8.042   7.461  0.6009 -1.2570  0.6123
23209SOL    HW276489   0.454   8.053   7.343 -1.5447  1.0184 -1.0044
23210SOL     OW76490   7.986   9.956   3.013  0.6785  0.1912 -0.5102
23210SOL    HW176491   7.918  10.000   3.065  0.6349  1.4539 -1.5842
23210SOL    HW276492   7.943   9.879   2.977  1.0426 -1.4699  2.2747
23211SOL     OW76493   7.495  10.247   6.320 -0.1294  0.0390  0.0391
23211SOL    HW176494   7.587  10.243   6.346  0.4142 -0.0146 -1.7493
23211SOL    HW276495   7.456  10.309   6.380  1.4822  1.3718 -0.2202
23212SOL     OW76496   4.273   6.462   7.359  0.5906 -0.2613 -0.1092
23212SOL    HW176497   4.312   6.536   7.313 -0.1111  0.1407 -0.0722
23212SOL    HW276498   4.347   6.408   7.387  1.1163  0.5325  0.0351
23213SOL     OW76499   3.303   9.546   7.817 -0.7487  0.4199 -0.0305
23213SOL    HW176500   3.284   9.456   7.846 -0.4257  0.8171  1.5415
23213SOL    HW276501   3.220   9.577   7.781 -2.6294  1.2406  4.3256
23214SOL     OW76502   9.291  11.109   2.139 -0.2494 -0.0086  0.1860
23214SOL    HW176503   9.375  11.146   2.166 -0.1357  0.9205 -1.3285
23214SOL    HW276504   9.312  11.019   2.115  0.7527  0.7227 -1.9616
23215SOL     OW76505   0.312   2.000  10.195  0.7251  0.3320  0.0358
23215SOL    HW176506   0.403   2.020  10.173  0.5060  1.4558  0.0756
23215SOL    HW276507   0.296   2.049  10.276 -0.4183  1.5566 -0.8893
23216SOL     OW76508   2.815   3.641   7.287 -0.1344  0.0110 -0.0544
23216SOL    HW176509   2.720   3.636   7.279  0.0142 -0.2073 -2.2316
23216SOL    HW276510   2.844   3.684   7.206  1.7946 -2.6291 -0.8993
23217SOL     OW76511  11.686   6.762   6.175  0.4921  0.5580  1.0099
23217SOL    HW176512  11.753   6.757   6.106  2.2965  1.1649  2.6374
23217SOL    HW276513  11.672   6.856   6.187 -2.7648  0.5044 -1.1555
23218SOL     OW76514  12.116  11.966   1.832  0.0002 -0.1267 -0.3497
23218SOL    HW176515  12.045  12.031   1.834  0.1188  0.0264  1.7326
23218SOL    HW276516  12.159  11.979   1.748 -1.4608  0.8631 -0.9850
23219SOL     OW76517  11.847   8.674   9.260  0.0407 -0.1328 -0.4667
23219SOL    HW176518  11.815   8.763   9.271  1.5179  0.3832 -0.2579
23219SOL    HW276519  11.893   8.655   9.342 -0.2498 -1.0974 -0.5118
23220SOL     OW76520   6.177   7.414   0.364  0.1357 -0.4348 -0.8734
23220SOL    HW176521   6.124   7.455   0.295  0.6455  0.8319 -0.5465
23220SOL    HW276522   6.123   7.341   0.395 -0.2570 -0.8192 -2.3518
23221SOL     OW76523   1.128   3.903   6.309 -0.5847 -0.4910 -0.0254
23221SOL    HW176524   1.191   3.937   6.373 -0.7431 -0.7629  0.2804
23221SOL    HW276525   1.181   3.880   6.233 -0.7636  2.9327 -1.3213
23222SOL     OW76526   2.093   0.990  10.846  0.5081 -0.1509 -0.2953
23222SOL    HW176527   2.154   0.941  10.900  0.4971  0.2442  0.0736
23222SOL    HW276528   2.127   0.981  10.757  1.2206  0.2467 -0.0667
23223SOL     OW76529   2.801   6.340   5.995 -0.4513  0.5622 -0.6226
23223SOL    HW176530   2.771   6.252   5.972 -1.1170  0.4032  0.8183
23223SOL    HW276531   2.893   6.340   5.969 -0.1210 -0.9585  0.4183
23224SOL     OW76532   6.782   4.498   8.395  0.5725  0.1014 -0.4867
23224SOL    HW176533   6.772   4.451   8.478 -1.0641  0.6081 -0.3516
23224SOL    HW276534   6.845   4.567   8.414 -0.1823  0.5396  0.5010
23225SOL     OW76535   4.860   4.452   5.071  0.1084 -0.8257 -0.3040
23225SOL    HW176536   4.789   4.414   5.019  0.2555  0.4628 -1.5178
23225SOL    HW276537   4.840   4.546   5.074  1.4827 -0.5099 -0.2490
23226SOL     OW76538  12.033   2.721   3.213 -0.3045  0.0544  0.1342
23226SOL    HW176539  12.027   2.814   3.237 -0.8912 -0.5199  2.3868
23226SOL    HW276540  11.947   2.686   3.234  0.0359 -1.1128 -0.3547
23227SOL     OW76541   0.107   5.688   1.459  0.1930  0.2316 -0.2224
23227SOL    HW176542   0.066   5.739   1.389 -0.3780  0.5235  0.3138
23227SOL    HW276543   0.166   5.750   1.502 -0.5548  0.4827  0.4758
23228SOL     OW76544   5.640  11.734   3.871 -0.0713 -0.3132 -0.0423
23228SOL    HW176545   5.627  11.827   3.888 -3.0116 -0.7188  0.4499
23228SOL    HW276546   5.658  11.696   3.957  0.8241 -0.2482 -0.1981
23229SOL     OW76547   7.464  12.089  11.795  0.3748 -0.2909  0.0487
23229SOL    HW176548   7.550  12.118  11.764  0.3083  0.4777  0.5712
23229SOL    HW276549   7.446  12.144  11.871 -0.8689 -0.0228 -0.4320
23230SOL     OW76550   8.438   6.488   5.712 -0.2433 -0.7180  0.0600
23230SOL    HW176551   8.415   6.580   5.724  1.6055 -0.2517  0.3186
23230SOL    HW276552   8.382   6.441   5.773 -1.0705  0.2491  0.0769
23231SOL     OW76553  11.963   2.299   5.638 -0.0665 -0.4907  0.6262
23231SOL    HW176554  11.979   2.371   5.699  1.1945  0.2057 -0.4693
23231SOL    HW276555  11.968   2.339   5.551  1.7179 -2.0374 -0.0698
23232SOL     OW76556   0.781   7.452   3.747 -0.1400 -0.4098 -0.1951
23232SOL    HW176557   0.843   7.513   3.786  0.9100 -0.3952 -1.7959
23232SOL    HW276558   0.712   7.441   3.813 -0.2303  2.2773  0.2499
23233SOL     OW76559  10.238   5.279   2.776 -0.0724  0.4055 -0.2595
23233SOL    HW176560  10.208   5.365   2.806  0.4094  0.0214  1.4351
23233SOL    HW276561  10.157   5.231   2.759 -0.3729  0.7143  0.2390
23234SOL     OW76562   0.045   6.442   2.506 -0.6751  0.7247 -0.0164
23234SOL    HW176563   0.133   6.432   2.470  0.0867  1.3488  1.5496
23234SOL    HW276564   0.002   6.503   2.447  0.0697  0.7162 -0.5899
23235SOL     OW76565   1.209   2.310  10.022 -0.3836  0.6293  0.0934
23235SOL    HW176566   1.204   2.367  10.100  0.4095 -0.0622  0.6645
23235SOL    HW276567   1.300   2.318   9.993 -0.5908  0.6042 -0.5606
23236SOL     OW76568   8.787   0.372   9.151 -0.1371  0.2713 -0.1837
23236SOL    HW176569   8.771   0.326   9.233 -0.4788 -0.9777 -0.9055
23236SOL    HW276570   8.848   0.442   9.173 -0.9366  0.5419  1.2909
23237SOL     OW76571   0.992   5.449   8.192 -0.0399  0.6666 -0.1788
23237SOL    HW176572   0.929   5.404   8.247 -1.1173  3.0916  0.7401
23237SOL    HW276573   0.949   5.456   8.106  0.5357 -0.7935 -0.6194
23238SOL     OW76574   1.436  10.859   1.050  0.4433  0.4503  0.4546
23238SOL    HW176575   1.468  10.899   0.969 -0.7770  4.2918  1.6571
23238SOL    HW276576   1.349  10.825   1.027  0.7657  0.0675 -0.2118
23239SOL     OW76577  10.000   3.423  12.183  0.0639  0.2476 -0.1027
23239SOL    HW176578  10.056   3.345  12.183  0.0344  0.2214  0.6002
23239SOL    HW276579  10.054   3.491  12.142  0.8355  0.3676  1.0680
23240SOL     OW76580   8.827  10.904   9.660  0.5415 -0.0587 -0.3065
23240SOL    HW176581   8.747  10.920   9.709 -0.1080 -0.2905 -1.2656
23240SOL    HW276582   8.834  10.809   9.655  0.8448 -0.0405 -0.2774
23241SOL     OW76583  12.159   3.708   6.479 -0.2930 -0.4077 -0.2780
23241SOL    HW176584  12.160   3.795   6.438  0.5725 -0.4928 -0.4521
23241SOL    HW276585  12.118   3.652   6.413 -0.1867 -0.2758 -0.4571
23242SOL     OW76586   4.179  10.170  10.347  0.0631  0.1822 -0.2193
23242SOL    HW176587   4.117  10.128  10.287  1.5636 -0.8396 -1.1322
23242SOL    HW276588   4.226  10.097  10.387  0.9866  0.9325  0.0932
23243SOL     OW76589   1.230  11.075   1.988  0.8487  0.3292  0.0698
23243SOL    HW176590   1.278  11.100   1.909  1.0039 -1.8218 -0.5810
23243SOL    HW276591   1.198  10.986   1.969 -1.0154  0.6216  1.5759
23244SOL     OW76592   8.889  11.440  10.986  0.1438 -0.4218  0.0900
23244SOL    HW176593   8.928  11.463  11.070  2.0901 -0.7197 -0.6812
23244SOL    HW276594   8.942  11.367  10.953 -0.7761 -0.5351 -1.2385
23245SOL     OW76595   3.358   8.905   4.844 -0.0149  1.0252 -0.0080
23245SOL    HW176596   3.280   8.943   4.803 -0.9041  0.2709  0.9206
23245SOL    HW276597   3.324   8.851   4.916  1.0777 -2.1686 -1.6866
23246SOL     OW76598   1.756   5.411   2.995 -0.0055  0.3851  0.1511
23246SOL    HW176599   1.829   5.396   3.055  2.1303  1.6959 -1.9333
23246SOL    HW276600   1.732   5.324   2.963  1.3849 -0.0031  0.1036
23247SOL     OW76601  12.022  10.472   7.934  0.4559 -0.0080  0.1735
23247SOL    HW176602  12.075  10.401   7.970 -0.2013 -1.2294 -1.1373
23247SOL    HW276603  11.961  10.495   8.004  0.0331 -1.4385  0.3116
23248SOL     OW76604   4.948   1.022   9.117  0.1701  0.2047 -0.0303
23248SOL    HW176605   5.035   0.988   9.141 -0.1961 -0.3462  0.5319
23248SOL    HW276606   4.953   1.034   9.022  0.5519 -0.7167 -0.1397
23249SOL     OW76607  12.456   4.377   8.517 -0.1627 -0.6142 -0.2401
23249SOL    HW176608  12.545   4.351   8.490  1.0522  0.3796  2.4713
23249SOL    HW276609  12.415   4.408   8.436  2.0503 -0.8369 -1.5463
23250SOL     OW76610   1.898   6.288   2.861  0.2701  0.4338 -0.2338
23250SOL    HW176611   1.921   6.381   2.856  0.7991  0.3111 -0.1139
23250SOL    HW276612   1.905   6.256   2.771  1.2934  0.2317 -0.0950
23251SOL     OW76613   3.376   3.337   0.275 -0.1739 -0.5963  0.1506
23251SOL    HW176614   3.318   3.328   0.351  0.0280 -0.4787  0.3218
23251SOL    HW276615   3.428   3.415   0.294 -2.5644  1.6070 -1.7673
23252SOL     OW76616   2.718   1.758   9.316  0.5722  0.6514 -0.2919
23252SOL    HW176617   2.783   1.700   9.355 -0.1448 -0.8258 -1.1941
23252SOL    HW276618   2.647   1.761   9.380  1.0711  1.4454  0.2406
23253SOL     OW76619  12.360   9.982  12.472 -0.7024 -0.2572  0.7152
23253SOL    HW176620  12.383   9.936  12.553 -1.2335 -1.1838  0.3693
23253SOL    HW276621  12.270   9.953  12.454 -0.4368 -0.4195 -0.4320
23254SOL     OW76622  10.518  11.588   6.281  0.0221  0.4785  0.0764
23254SOL    HW176623  10.475  11.550   6.357  0.5123 -0.3384 -0.0421
23254SOL    HW276624  10.611  11.566   6.292 -0.0251 -0.5208 -1.2340
23255SOL     OW76625  10.923   6.764   9.188 -0.0039  0.3602  0.1137
23255SOL    HW176626  10.950   6.672   9.186  1.0535  0.6048  1.5569
23255SOL    HW276627  10.828   6.761   9.200  0.3123 -0.6089  3.0682
23256SOL     OW76628   1.031   7.472   9.013 -0.2208 -0.5008 -0.1200
23256SOL    HW176629   1.005   7.555   9.054  0.2104 -0.1130 -0.6041
23256SOL    HW276630   1.071   7.499   8.930 -2.1635 -1.3192 -1.3882
23257SOL     OW76631   4.579   7.210   2.533  0.3347 -0.6237  0.1078
23257SOL    HW176632   4.511   7.258   2.581  1.1930  1.1645 -0.3833
23257SOL    HW276633   4.573   7.243   2.443  1.4188 -0.9161 -0.0887
23258SOL     OW76634   9.073  10.668   3.319 -0.0117 -0.0219  0.0952
23258SOL    HW176635   9.145  10.679   3.257  0.7115 -0.1557  0.8858
23258SOL    HW276636   8.994  10.679   3.267  0.5314 -1.7927 -1.2061
23259SOL     OW76637   5.668   0.985   1.009 -0.0233 -0.3562 -0.4792
23259SOL    HW176638   5.610   0.993   1.085 -1.1035 -0.0962 -1.3018
23259SOL    HW276639   5.618   0.933   0.946  2.6956 -4.8890  0.7170
23260SOL     OW76640   5.743   5.650   8.640 -0.1003 -0.0954  0.4507
23260SOL    HW176641   5.689   5.710   8.692 -0.3989  0.2976 -0.3033
23260SOL    HW276642   5.797   5.708   8.586  1.7787 -0.4535  1.8561
23261SOL     OW76643   3.520  10.188  11.976  0.0172  1.0140  0.2297
23261SOL    HW176644   3.594  10.220  11.925  0.6987 -1.4146 -0.4750
23261SOL    HW276645   3.452  10.169  11.910  0.6279 -1.4179  0.1927
23262SOL     OW76646   6.987  10.952   4.510  0.3494  0.6365 -0.1226
23262SOL    HW176647   6.947  11.007   4.577 -1.2774 -1.2971  0.6206
23262SOL    HW276648   7.065  10.915   4.552  0.1312  0.5434  0.2028
23263SOL     OW76649   9.556   1.632   7.952 -0.1135  0.0935  0.5345
23263SOL    HW176650   9.584   1.709   7.902  3.0179 -0.4371  1.2327
23263SOL    HW276651   9.467   1.615   7.923 -0.4919  3.2467 -0.5126
23264SOL     OW76652   3.540   5.340   5.813 -0.4181  0.4145 -0.3453
23264SOL    HW176653   3.519   5.272   5.749 -0.3287 -0.3593  0.4356
23264SOL    HW276654   3.507   5.306   5.896 -0.6643  1.4705  0.0110
23265SOL     OW76655   7.015  11.652  10.070  0.4580  0.3069 -0.4917
23265SOL    HW176656   7.104  11.685  10.055  0.4215  0.5998 -0.0599
23265SOL    HW276657   6.962  11.697  10.004  0.5653  0.4169 -0.5019
23266SOL     OW76658   0.452  11.628   1.125  0.2116  0.2366 -0.0172
23266SOL    HW176659   0.387  11.607   1.059  1.9122 -4.5411 -0.5205
23266SOL    HW276660   0.523  11.671   1.077  0.3001 -0.7916 -0.8299
23267SOL     OW76661   9.300   4.541   0.219 -0.0328  0.0401  0.4041
23267SOL    HW176662   9.364   4.515   0.286  0.1661 -1.2583 -0.2461
23267SOL    HW276663   9.224   4.485   0.236  0.4661 -1.1784 -1.1441
23268SOL     OW76664   9.466   6.552  10.544 -0.7338  0.9934  0.1347
23268SOL    HW176665   9.507   6.546  10.458  0.2097 -0.6993  0.6577
23268SOL    HW276666   9.539   6.541  10.606 -1.4990  1.4387  1.1463
23269SOL     OW76667   7.236   1.775   6.070  0.1825  0.1430  0.1443
23269SOL    HW176668   7.230   1.682   6.090  1.1753 -0.3243 -1.5100
23269SOL    HW276669   7.150   1.810   6.092  0.2542 -0.8436  2.1815
23270SOL     OW76670  10.413   8.787   9.607  0.1616  0.1291 -0.0218
23270SOL    HW176671  10.493   8.758   9.563 -0.5297 -1.3193 -0.3720
23270SOL    HW276672  10.362   8.707   9.619 -0.8128  0.8856  1.0862
23271SOL     OW76673   5.421   4.720   8.908  0.4711 -0.2053 -0.4132
23271SOL    HW176674   5.455   4.771   8.982  1.9165 -1.2388 -0.3249
23271SOL    HW276675   5.482   4.647   8.899 -0.7506 -1.1479 -1.4386
23272SOL     OW76676   4.833   8.386   4.801 -0.1054 -0.0349 -0.6458
23272SOL    HW176677   4.875   8.385   4.715  0.4613  0.9172 -0.3919
23272SOL    HW276678   4.754   8.437   4.789  0.6705  1.2995 -0.3135
23273SOL     OW76679   2.519   9.516   8.784  0.0200  0.2340 -0.5128
23273SOL    HW176680   2.469   9.488   8.708 -1.1868  0.0682  0.2973
23273SOL    HW276681   2.608   9.486   8.767 -0.1348  0.5472 -2.0154
23274SOL     OW76682   4.273   5.494  11.954  0.3116  0.1734  0.4465
23274SOL    HW176683   4.316   5.494  12.039 -1.8562 -1.9029  1.6577
23274SOL    HW276684   4.264   5.402  11.930 -2.9161  0.4595  0.0943
23275SOL     OW76685  10.566   5.429  10.081 -0.2183 -0.1059  0.1637
23275SOL    HW176686  10.655   5.458  10.062  1.4779 -3.9447  1.3370
23275SOL    HW276687  10.513   5.463  10.008  2.2038  1.9113 -0.8066
23276SOL     OW76688   3.163   6.806   5.622  0.4262  0.0604  0.0152
23276SOL    HW176689   3.117   6.890   5.628  1.6682  0.8409 -0.9621
23276SOL    HW276690   3.153   6.779   5.531  1.0818 -0.2326  0.0232
23277SOL     OW76691   3.971   5.257   9.284 -0.2076 -0.2929 -0.2866
23277SOL    HW176692   3.957   5.227   9.194  1.1257  2.1857 -1.4381
23277SOL    HW276693   3.884   5.283   9.315 -0.5763 -0.4181 -1.1787
23278SOL     OW76694  10.199   9.719   4.543 -0.0154 -0.0322  0.2477
23278SOL    HW176695  10.266   9.739   4.477 -1.2063  2.1871 -0.3819
23278SOL    HW276696  10.152   9.644   4.508  1.0515 -0.5490 -0.1167
23279SOL     OW76697   3.999   4.438   2.451  0.2399 -0.4145 -0.0701
23279SOL    HW176698   3.924   4.498   2.443 -0.1630 -0.4662  2.3900
23279SOL    HW276699   4.061   4.468   2.385 -0.3925  2.0812  0.3408
23280SOL     OW76700   7.132   8.249   5.760  0.3818  0.2939  0.2718
23280SOL    HW176701   7.079   8.225   5.685 -0.4849 -0.3523  1.0639
23280SOL    HW276702   7.084   8.322   5.801 -0.3593 -0.7869  1.4260
23281SOL     OW76703   3.209   7.278   4.508  0.6298 -0.2390  0.0796
23281SOL    HW176704   3.273   7.210   4.487  1.7869  0.6755  0.5413
23281SOL    HW276705   3.249   7.328   4.580 -1.0715 -0.2836  1.1036
23282SOL     OW76706  11.244   5.985  11.169  0.1602  0.8510 -0.1871
23282SOL    HW176707  11.298   5.911  11.196 -0.7678  0.3310  0.3206
23282SOL    HW276708  11.205   6.017  11.251 -3.1282 -1.0848 -0.7996
23283SOL     OW76709   6.428   0.597   9.214 -0.0283  0.0524 -0.0001
23283SOL    HW176710   6.388   0.665   9.160  2.6025  1.5243 -0.2500
23283SOL    HW276711   6.485   0.645   9.274  1.4495 -1.8898  0.2455
23284SOL     OW76712   3.248   5.747  10.229 -0.3743 -0.3312  0.4411
23284SOL    HW176713   3.207   5.834  10.225  1.0089  0.3535  0.5745
23284SOL    HW276714   3.210   5.706  10.307 -1.3092 -0.0009  0.1744
23285SOL     OW76715   8.769   8.497   5.642  0.8719 -0.3253 -0.3240
23285SOL    HW176716   8.815   8.578   5.619  1.5272 -0.1735  1.3759
23285SOL    HW276717   8.838   8.439   5.673  0.0356 -0.2973  1.7331
23286SOL     OW76718   3.629   8.303   1.010 -0.3817  0.5139 -0.1117
23286SOL    HW176719   3.710   8.347   1.035 -1.6740  1.9722  1.8574
23286SOL    HW276720   3.623   8.228   1.070  0.3846 -0.7479 -1.5343
23287SOL     OW76721   2.199   8.990   0.736  0.4675  0.2466 -0.1355
23287SOL    HW176722   2.125   8.930   0.748 -0.4518  1.5169  0.6731
23287SOL    HW276723   2.186   9.026   0.648  1.2251 -0.9458 -0.7796
23288SOL     OW76724   7.047   7.954   2.533  0.0918 -0.1473  0.0766
23288SOL    HW176725   7.107   7.952   2.608 -0.2642  0.3384  0.3800
23288SOL    HW276726   7.055   8.043   2.499  0.7942 -0.5703 -0.9164
23289SOL     OW76727   3.221  10.720   9.403 -0.6688  0.4652 -0.4243
23289SOL    HW176728   3.224  10.666   9.481  1.4805 -1.0653 -1.4497
23289SOL    HW276729   3.128  10.726   9.381 -1.1763 -0.4213  1.3092
23290SOL     OW76730   6.996  11.421   0.265  0.5072 -0.0614  0.5562
23290SOL    HW176731   7.088  11.433   0.241  0.7723 -2.6219  0.0206
23290SOL    HW276732   6.947  11.460   0.193  1.0884  2.3198  1.3575
23291SOL     OW76733   0.334   4.202   9.018  0.2959  0.3964 -0.1730
23291SOL    HW176734   0.262   4.266   9.015  1.2981  1.5577 -0.4644
23291SOL    HW276735   0.302   4.132   9.074 -1.7352  0.0251 -1.6791
23292SOL     OW76736   7.273   4.675   8.595  0.1277 -0.3500  0.2042
23292SOL    HW176737   7.344   4.722   8.551  0.4594 -0.8651  0.1670
23292SOL    HW276738   7.260   4.722   8.677  0.4511 -0.1894  0.1661
23293SOL     OW76739  11.259   7.834   5.775  0.6699  0.1118  0.0390
23293SOL    HW176740  11.174   7.798   5.750  0.8042  0.7414 -1.4062
23293SOL    HW276741  11.266   7.816   5.869 -0.5150 -1.0338 -0.0691
23294SOL     OW76742  12.152   9.974   9.046  0.1415  0.3412 -0.1054
23294SOL    HW176743  12.143   9.939   8.957 -0.8229  0.6283 -0.1305
23294SOL    HW276744  12.081  10.038   9.054 -0.9145 -0.9495  1.4633
23295SOL     OW76745   1.166   1.574  12.478 -0.4147 -0.4341  0.1754
23295SOL    HW176746   1.228   1.647  12.475 -0.4748 -0.2937  1.4927
23295SOL    HW276747   1.112   1.592  12.556 -2.2372 -0.4628 -1.0138
23296SOL     OW76748  10.692   0.557   9.021 -0.1425  0.2935 -0.2994
23296SOL    HW176749  10.773   0.521   8.986 -0.6662  0.9488 -2.3150
23296SOL    HW276750  10.625   0.492   9.000 -0.5864  1.0279 -1.2556
23297SOL     OW76751  10.296  11.720   2.280  0.3835  0.1984 -0.5336
23297SOL    HW176752  10.358  11.761   2.340  1.0540 -0.2211 -0.9292
23297SOL    HW276753  10.351  11.675   2.215 -0.3092 -1.9610  0.3021
23298SOL     OW76754   6.143   4.347  11.779  0.1876 -0.0795  0.0116
23298SOL    HW176755   6.220   4.394  11.748 -0.4472  1.2121  0.3396
23298SOL    HW276756   6.155   4.342  11.874 -0.5522  0.9395  0.1725
23299SOL     OW76757   9.987   9.628  10.080  0.0753 -0.0792 -0.1658
23299SOL    HW176758  10.034   9.577  10.146 -0.7465  0.5830  0.9778
23299SOL    HW276759   9.975   9.568  10.007  2.0298 -0.4794 -0.2033
23300SOL     OW76760   4.862   5.839   1.370 -0.5182 -0.1542 -0.2530
23300SOL    HW176761   4.934   5.898   1.346 -1.0588  0.6097 -0.0318
23300SOL    HW276762   4.789   5.898   1.390 -1.6148 -0.9389 -1.7688
23301SOL     OW76763   0.854   4.816   6.802 -0.1676 -0.0256  0.1571
23301SOL    HW176764   0.842   4.875   6.728  0.8017 -0.0575 -0.0285
23301SOL    HW276765   0.822   4.865   6.877 -0.9453  0.0921 -0.2414
23302SOL     OW76766   4.257   3.859   1.781 -0.0825 -0.1175  0.0178
23302SOL    HW176767   4.278   3.950   1.803  1.7145 -0.3188 -0.7379
23302SOL    HW276768   4.225   3.864   1.691 -2.3914  0.0296  0.7707
23303SOL     OW76769   1.413   4.437   6.807  0.7093  0.1035 -0.1760
23303SOL    HW176770   1.496   4.447   6.760  0.6434 -0.5315 -0.4486
23303SOL    HW276771   1.381   4.526   6.820  0.8170  0.2957 -1.1789
23304SOL     OW76772   9.398   8.701   0.582 -0.3651  0.6320  0.2797
23304SOL    HW176773   9.429   8.672   0.668 -2.6843  0.4932  1.1621
23304SOL    HW276774   9.356   8.785   0.599  0.3127  1.2637 -1.0072
23305SOL     OW76775  11.685  11.060   6.138  0.0391 -0.0217  0.1990
23305SOL    HW176776  11.746  10.987   6.124 -0.8011 -0.5778 -0.7179
23305SOL    HW276777  11.603  11.031   6.097 -0.4331  1.2770  0.1706
23306SOL     OW76778  11.973   0.257   3.111 -0.1373  0.3737 -0.1272
23306SOL    HW176779  11.963   0.218   3.198  0.1647  0.3081 -0.1216
23306SOL    HW276780  11.982   0.351   3.128 -0.0215  0.3547 -0.0829
23307SOL     OW76781   4.040   5.550  12.218  0.7826 -0.0129 -0.4208
23307SOL    HW176782   4.115   5.583  12.268 -0.5248 -0.8824  2.2598
23307SOL    HW276783   4.009   5.474  12.267 -0.9186 -0.6333 -2.3148
23308SOL     OW76784   8.053   4.957   3.542 -0.1841  0.5849 -0.3400
23308SOL    HW176785   8.046   4.865   3.569 -3.1989  1.1034  0.9772
23308SOL    HW276786   8.050   4.954   3.446 -0.4853 -0.6847 -0.3119
23309SOL     OW76787   3.068   5.078   6.847  0.3574  0.2959  0.1113
23309SOL    HW176788   3.111   5.072   6.762 -1.8862  1.6273 -1.2239
23309SOL    HW276789   3.006   5.005   6.849 -0.4492  0.9518  0.0250
23310SOL     OW76790   1.145  11.223   0.511  0.5926 -1.0357 -0.1918
23310SOL    HW176791   1.100  11.237   0.594 -0.5926 -0.6409 -0.8745
23310SOL    HW276792   1.237  11.235   0.532  0.1901  0.9231  0.7161
23311SOL     OW76793   5.336   5.729  12.239 -0.3380  0.1255 -0.1693
23311SOL    HW176794   5.387   5.718  12.319 -0.7318  0.4120  0.1231
23311SOL    HW276795   5.348   5.820  12.215 -1.6820  0.5264  0.5809
23312SOL     OW76796   8.473   1.898  11.177  0.2997  0.0649  0.4447
23312SOL    HW176797   8.507   1.973  11.129 -0.8304  1.3318  1.5394
23312SOL    HW276798   8.406   1.860  11.119  1.3259 -0.5284 -0.3834
23313SOL     OW76799   9.857   2.960   7.474  0.3120 -0.6210 -0.2464
23313SOL    HW176800   9.815   2.937   7.391 -0.1797  1.5047 -0.6423
23313SOL    HW276801   9.942   2.916   7.470  1.2779  1.1865 -2.9788
23314SOL     OW76802  11.562  10.234   2.590 -0.1723  0.1216  0.5143
23314SOL    HW176803  11.605  10.200   2.668 -0.3007 -0.4509  0.3418
23314SOL    HW276804  11.633  10.261   2.533  0.1456 -3.0433 -0.7960
23315SOL     OW76805   9.088   7.443   0.816  0.1899  0.1261  0.1831
23315SOL    HW176806   9.038   7.365   0.792 -1.4263  1.0099  0.4862
23315SOL    HW276807   9.042   7.479   0.892  1.5008  0.8262  0.6810
23316SOL     OW76808   7.814   2.623  10.601  0.5370  0.7639  0.2590
23316SOL    HW176809   7.881   2.568  10.640  1.0531  1.4372  0.3403
23316SOL    HW276810   7.846   2.712  10.612  0.4539  1.0122 -1.2240
23317SOL     OW76811   1.650   7.310   0.303 -0.2919  0.0990 -0.2217
23317SOL    HW176812   1.620   7.383   0.250 -2.1699 -0.8622 -0.5440
23317SOL    HW276813   1.723   7.273   0.253 -0.5347  0.6101 -0.9772
23318SOL     OW76814   9.865  12.120   4.506  0.6216 -0.4896  0.3517
23318SOL    HW176815   9.944  12.173   4.496  0.4211 -0.2542 -0.0003
23318SOL    HW276816   9.868  12.059   4.432  0.0063  0.1248 -0.1895
23319SOL     OW76817   7.259   1.250   6.980  0.1345 -0.5299  0.7130
23319SOL    HW176818   7.166   1.274   6.974  0.2055  0.3169  2.3992
23319SOL    HW276819   7.303   1.316   6.926 -0.1537 -0.2084  0.8618
23320SOL     OW76820   9.798  10.434   3.174  0.1437 -0.5561 -0.1255
23320SOL    HW176821   9.757  10.386   3.247 -0.5913 -1.1774 -0.9229
23320SOL    HW276822   9.749  10.405   3.097 -1.3570  2.5831 -0.4976
23321SOL     OW76823   2.023   5.201   0.721 -0.0645  0.3358 -0.0633
23321SOL    HW176824   1.997   5.126   0.774  0.3360  1.1448  1.3342
23321SOL    HW276825   2.032   5.273   0.783  0.6608  1.2811 -1.2017
23322SOL     OW76826   1.344   6.842   3.623  0.2749 -0.2620  0.0638
23322SOL    HW176827   1.330   6.923   3.575  2.4784  0.6450  0.7963
23322SOL    HW276828   1.406   6.793   3.569 -0.6054 -1.2059 -0.0984
23323SOL     OW76829   2.935   0.371  11.753  0.0260  0.1584 -0.5696
23323SOL    HW176830   2.914   0.305  11.687  1.3693 -0.6771 -0.2226
23323SOL    HW276831   2.859   0.428  11.756 -1.0705 -1.2132 -1.0976
23324SOL     OW76832   4.247   7.965   8.072 -0.4458 -0.2760 -0.2541
23324SOL    HW176833   4.284   8.050   8.046 -0.9358  0.0657  0.1329
23324SOL    HW276834   4.320   7.918   8.111 -0.5399  0.6549  1.1321
23325SOL     OW76835   6.558   9.110   5.810 -0.6891  0.2685  0.5537
23325SOL    HW176836   6.553   9.062   5.892  0.5498 -0.7273  0.0810
23325SOL    HW276837   6.469   9.105   5.774 -1.2784  0.8433  1.8731
23326SOL     OW76838   3.171   6.689   7.567 -0.1973  0.0659  0.2006
23326SOL    HW176839   3.246   6.650   7.522 -0.4538  2.2428 -2.4281
23326SOL    HW276840   3.128   6.615   7.610  0.6025 -2.1590 -2.4838
23327SOL     OW76841   6.695   9.753   1.786  0.5172 -0.5350  0.2776
23327SOL    HW176842   6.617   9.720   1.830  1.2903 -1.8604  0.7196
23327SOL    HW276843   6.723   9.828   1.838 -0.5710  0.0791 -0.0068
23328SOL     OW76844   3.060   5.153  10.142 -1.0351 -0.2673 -0.6758
23328SOL    HW176845   3.025   5.242  10.149 -2.5626 -0.7148 -1.9676
23328SOL    HW276846   3.018   5.117  10.064 -0.9282 -2.3362  0.1568
23329SOL     OW76847  11.890   3.236   4.722 -0.0223 -0.0100  0.2627
23329SOL    HW176848  11.845   3.166   4.770 -1.2347  2.0327  2.2859
23329SOL    HW276849  11.857   3.229   4.633 -0.9828 -1.3113  0.6894
23330SOL     OW76850   9.985   7.407   1.893 -0.5735  0.1960 -0.0178
23330SOL    HW176851  10.061   7.390   1.949  0.0797 -0.2102 -0.9991
23330SOL    HW276852  10.009   7.486   1.844 -0.3290 -0.5098 -1.0742
23331SOL     OW76853   7.354   3.507   7.562  0.4581  0.3297 -0.3442
23331SOL    HW176854   7.373   3.591   7.604  1.1319  0.2422 -0.4567
23331SOL    HW276855   7.387   3.518   7.472 -2.7574  1.2407 -1.5524
23332SOL     OW76856   2.740  10.309   3.722  0.2055 -0.0732 -0.1296
23332SOL    HW176857   2.673  10.292   3.788 -0.7366  0.4885 -0.9163
23332SOL    HW276858   2.729  10.239   3.657  0.0391  0.3168 -0.5233
23333SOL     OW76859   2.747  11.987   2.168  0.6457  0.2962  0.1808
23333SOL    HW176860   2.684  12.038   2.118  0.9997  1.4198  0.8338
23333SOL    HW276861   2.812  12.051   2.197  1.9822 -0.7796 -0.2896
23334SOL     OW76862   2.494   7.592   1.256  0.2286 -0.0387  0.4747
23334SOL    HW176863   2.421   7.651   1.269 -0.0274 -0.5931  1.6500
23334SOL    HW276864   2.534   7.621   1.173 -2.8238 -1.2843 -1.6210
23335SOL     OW76865   0.605   0.178   0.241 -0.9439 -0.0920  0.1545
23335SOL    HW176866   0.627   0.119   0.313  1.6879 -0.8714 -1.1346
23335SOL    HW276867   0.586   0.262   0.283 -0.6199 -0.8090  1.8127
23336SOL     OW76868   5.198  11.067   1.860  0.5433  0.0240 -0.2317
23336SOL    HW176869   5.270  11.096   1.915 -0.3453 -0.0607  1.0280
23336SOL    HW276870   5.121  11.114   1.893 -0.2596 -1.0256 -0.5226
23337SOL     OW76871   0.203   8.958   1.132  0.3015 -0.0741 -0.1696
23337SOL    HW176872   0.279   9.010   1.106  0.8462 -0.8777 -0.2138
23337SOL    HW276873   0.189   8.898   1.060  0.3337 -0.7033  0.3416
23338SOL     OW76874  11.405   0.642   9.562 -0.4506 -0.3127 -0.7167
23338SOL    HW176875  11.394   0.653   9.657  0.0144  1.4803 -0.8308
23338SOL    HW276876  11.316   0.642   9.527 -0.6166 -0.7650 -0.3033
23339SOL     OW76877   4.386   7.649  12.169 -0.2403  0.3863  0.1168
23339SOL    HW176878   4.356   7.561  12.147 -0.2112  0.2146  0.7396
23339SOL    HW276879   4.308   7.692  12.204 -0.8602  1.3691 -2.2471
23340SOL     OW76880  10.789  10.751   9.366  0.1190 -0.0155  0.1053
23340SOL    HW176881  10.794  10.674   9.309 -1.7679 -0.9091  1.0412
23340SOL    HW276882  10.878  10.763   9.399  0.4947 -1.6386 -0.2596
23341SOL     OW76883   4.192   1.055   1.253 -0.0542 -0.0346  0.1476
23341SOL    HW176884   4.148   0.980   1.293  1.0061 -0.9510 -0.3551
23341SOL    HW276885   4.127   1.090   1.191 -0.0149 -1.5479 -0.8091
23342SOL     OW76886   9.845   3.041   9.102  0.1498  0.0511  0.1178
23342SOL    HW176887   9.787   3.037   9.026  1.1081  0.8703 -0.6910
23342SOL    HW276888   9.851   3.134   9.123  1.9692  0.1264 -0.5059
23343SOL     OW76889   5.824   5.354   8.066  0.3361 -0.1158  0.4004
23343SOL    HW176890   5.904   5.407   8.074  1.3029 -1.7043  2.3674
23343SOL    HW276891   5.847   5.287   8.002 -0.7257  1.4587 -1.7335
23344SOL     OW76892   3.526   7.824   9.648  0.4188  0.1647  0.6614
23344SOL    HW176893   3.549   7.879   9.722  2.2293 -0.0278  0.3046
23344SOL    HW276894   3.561   7.870   9.572  0.4293 -0.6269  0.1696
23345SOL     OW76895   1.918  11.973   1.547 -0.3538 -0.2722  0.6824
23345SOL    HW176896   1.997  12.027   1.553  0.8971 -2.1146  5.4259
23345SOL    HW276897   1.852  12.021   1.598 -1.3913 -0.1883 -0.6787
23346SOL     OW76898   0.900   0.433  10.187  0.0847 -0.5690 -0.1596
23346SOL    HW176899   0.805   0.432  10.200 -0.0183  2.9516  0.5645
23346SOL    HW276900   0.936   0.422  10.274  0.0862  2.3338  0.3084
23347SOL     OW76901   9.192   1.313   7.906 -0.0775 -0.4734 -0.5223
23347SOL    HW176902   9.227   1.319   7.995  0.7254 -1.1380 -0.7931
23347SOL    HW276903   9.177   1.220   7.892 -2.9826 -0.1838 -0.0366
23348SOL     OW76904   0.171   7.116   1.184  1.0111  0.0189  0.0334
23348SOL    HW176905   0.129   7.047   1.235  3.9288 -1.5306  0.5684
23348SOL    HW276906   0.181   7.189   1.245 -0.0745  0.1019  0.1297
23349SOL     OW76907   8.051   8.685   5.837 -0.4149  0.1341 -0.2067
23349SOL    HW176908   8.083   8.745   5.770  0.3382 -1.5530 -1.4194
23349SOL    HW276909   8.023   8.742   5.909  0.8573  1.8935 -1.0398
23350SOL     OW76910   6.563   2.110   3.880 -0.1716 -0.7988 -0.4431
23350SOL    HW176911   6.505   2.051   3.832 -0.6009 -1.7300  1.1294
23350SOL    HW276912   6.559   2.079   3.971 -0.4237  1.6474  0.4644
23351SOL     OW76913   5.346   8.393   4.713 -0.1208 -0.0502 -0.1169
23351SOL    HW176914   5.284   8.440   4.768 -0.6055 -0.2134 -0.5083
23351SOL    HW276915   5.325   8.300   4.727  0.9095 -0.1681  0.7480
23352SOL     OW76916   3.904   0.568  10.292 -0.0428 -0.3797 -0.2432
23352SOL    HW176917   3.814   0.540  10.308  0.6713 -1.4577  2.2224
23352SOL    HW276918   3.937   0.596  10.377  1.3365  2.1144 -1.4563
23353SOL     OW76919   0.380   7.264   5.627  0.2371  0.4456 -0.4298
23353SOL    HW176920   0.350   7.202   5.694  3.1941  1.2342  1.8498
23353SOL    HW276921   0.436   7.212   5.569 -1.2413  0.0521 -1.5705
23354SOL     OW76922   2.881   2.862   1.771 -0.2643 -0.3676  0.1870
23354SOL    HW176923   2.914   2.927   1.834 -2.7887  0.4144  0.8509
23354SOL    HW276924   2.854   2.788   1.826  0.5658 -1.0642 -0.3394
23355SOL     OW76925   3.435   9.323   6.973 -0.4065  0.7111  0.2681
23355SOL    HW176926   3.355   9.302   7.020  0.7956  0.7225  2.4152
23355SOL    HW276927   3.503   9.324   7.040  1.5843 -0.2305 -1.6202
23356SOL     OW76928  11.489   4.246   9.448  0.6601  0.3281 -0.0450
23356SOL    HW176929  11.417   4.225   9.389 -1.2294  0.9057  1.9002
23356SOL    HW276930  11.505   4.165   9.497 -0.4165  0.8251  1.2037
23357SOL     OW76931   8.072   6.708   1.243 -0.4320 -0.0036 -0.1438
23357SOL    HW176932   8.068   6.644   1.314 -0.9176 -1.3877 -1.3808
23357SOL    HW276933   8.018   6.781   1.274 -1.2161 -0.8871  0.6231
23358SOL     OW76934  12.037  12.325   8.959 -0.4664  0.2447  0.3581
23358SOL    HW176935  12.004  12.388   9.023 -1.1359 -0.2631  0.5273
23358SOL    HW276936  11.959  12.292   8.915  0.0494  1.4562 -1.5802
23359SOL     OW76937   1.525   9.235   3.209  0.1691 -0.4003 -0.0000
23359SOL    HW176938   1.503   9.147   3.241  0.2141 -0.1304  0.8020
23359SOL    HW276939   1.453   9.258   3.151 -0.5227 -0.4414  0.8204
23360SOL     OW76940  11.254   2.199   4.692  0.5687  0.0319 -0.1509
23360SOL    HW176941  11.292   2.273   4.740  1.3355 -0.8022  0.5869
23360SOL    HW276942  11.192   2.161   4.753  0.1416  0.0918 -0.5458
23361SOL     OW76943   7.340   9.246   9.749  0.2710 -0.4567 -0.2879
23361SOL    HW176944   7.274   9.219   9.685 -0.1281  2.4866 -1.2692
23361SOL    HW276945   7.423   9.224   9.707  0.2298 -6.0219  1.7711
23362SOL     OW76946   2.746  10.672  11.544 -0.1201 -0.6608  0.6616
23362SOL    HW176947   2.795  10.602  11.501  0.3801  0.5620 -0.8490
23362SOL    HW276948   2.811  10.718  11.596 -0.1311 -0.3937  0.4396
23363SOL     OW76949   2.007   4.741   8.888 -0.1503  0.3720  0.9741
23363SOL    HW176950   1.940   4.696   8.836  1.0488  0.2130 -0.5005
23363SOL    HW276951   2.053   4.796   8.825  1.5960 -0.1132  1.7721
23364SOL     OW76952  10.864   2.324   7.092 -0.6148  0.0707  0.5993
23364SOL    HW176953  10.782   2.288   7.058 -0.3104 -0.5954  0.5417
23364SOL    HW276954  10.839   2.403   7.139 -1.0529  1.0921 -1.2508
23365SOL     OW76955  11.263  10.546   6.791 -0.1462 -0.2551  0.6184
23365SOL    HW176956  11.270  10.463   6.838  0.8582  0.2828  1.4508
23365SOL    HW276957  11.213  10.603   6.850  0.2041  0.0918  0.5863
23366SOL     OW76958   6.597   5.306   0.489  0.1210  0.0443 -0.0222
23366SOL    HW176959   6.679   5.274   0.526 -0.3382 -0.2362  0.7712
23366SOL    HW276960   6.529   5.264   0.540 -0.5189  2.2017  1.0388
23367SOL     OW76961  10.231   8.802   8.800 -0.2918  0.8024 -0.1736
23367SOL    HW176962  10.322   8.775   8.817 -0.6130  0.6199  1.3873
23367SOL    HW276963  10.229   8.818   8.705  1.1966  0.1793 -0.3534
23368SOL     OW76964   4.230   6.280   7.142 -0.0868 -0.4770  0.1578
23368SOL    HW176965   4.224   6.352   7.206  1.1539 -0.3090  0.1129
23368SOL    HW276966   4.294   6.220   7.181 -0.8309 -1.3795  0.0097
23369SOL     OW76967   1.894   3.424   0.025 -0.6459 -0.5365  0.3550
23369SOL    HW176968   1.883   3.380  -0.060 -2.9427 -0.3012  0.4694
23369SOL    HW276969   1.816   3.479   0.034  1.0789  1.9473  1.2085
23370SOL     OW76970  10.558   9.416   4.999  0.1770 -0.1238 -0.1673
23370SOL    HW176971  10.600   9.473   5.063  0.3991  0.7123 -1.0273
23370SOL    HW276972  10.470   9.401   5.034  0.5212 -0.2450  0.6643
23371SOL     OW76973   9.488   3.134   9.707  0.3978  0.0876  0.0078
23371SOL    HW176974   9.392   3.130   9.703  0.3250 -0.5702  1.6543
23371SOL    HW276975   9.516   3.124   9.617 -1.0845  0.2168 -0.4971
23372SOL     OW76976   6.484   5.813   5.657  0.3908 -0.1763 -0.3866
23372SOL    HW176977   6.476   5.765   5.574  0.9232 -0.8291 -0.0694
23372SOL    HW276978   6.534   5.892   5.634 -0.2297  0.0866 -0.8549
23373SOL     OW76979   5.074   3.058  10.240  0.1221 -0.3824  0.0697
23373SOL    HW176980   5.117   3.127  10.190 -0.5655  0.6684  0.8879
23373SOL    HW276981   5.011   3.020  10.179 -0.5317  0.7095  0.0518
23374SOL     OW76982   9.903   2.568   7.571 -0.2966 -0.2555 -0.1625
23374SOL    HW176983   9.928   2.477   7.562 -1.4513 -0.7000  0.8399
23374SOL    HW276984   9.850   2.571   7.651  1.0483  1.5725  0.7513
23375SOL     OW76985  10.073   3.424   0.700  0.1901  0.2860 -0.1460
23375SOL    HW176986  10.159   3.447   0.665 -0.0408  2.2634  0.4636
23375SOL    HW276987  10.092   3.368   0.775  0.8733 -0.1712 -0.6410
23376SOL     OW76988   9.355  10.249  11.857  1.0410  0.1954 -0.0661
23376SOL    HW176989   9.288  10.197  11.902 -0.6887  3.3030  1.3552
23376SOL    HW276990   9.319  10.264  11.770  0.5825  0.6132  0.1889
23377SOL     OW76991   7.300   0.158  11.722  0.4298 -0.0595  0.3477
23377SOL    HW176992   7.274   0.074  11.685 -0.4745 -0.9519  2.7801
23377SOL    HW276993   7.219   0.195  11.757  1.0980  1.0172  0.8115
23378SOL     OW76994   9.127   1.533   8.667 -0.1867 -0.6154 -0.1516
23378SOL    HW176995   9.201   1.543   8.727 -0.2759  0.4590 -0.2119
23378SOL    HW276996   9.168   1.523   8.581 -0.0723 -1.7742  0.0172
23379SOL     OW76997   4.315   0.897   9.797  0.3325  0.9736 -0.5934
23379SOL    HW176998   4.370   0.820   9.810  0.5687  0.5037 -3.6727
23379SOL    HW276999   4.229   0.862   9.773  0.0900  1.6767 -0.7967
23380SOL     OW77000   7.809  11.265   6.855 -0.1721 -0.0722 -0.1395
23380SOL    HW177001   7.728  11.216   6.838 -0.5204  0.6135 -0.4980
23380SOL    HW277002   7.806  11.282   6.949  0.6223 -1.8809  0.2540
23381SOL     OW77003   2.989   9.071   6.818  0.9240 -0.2657  0.0637
23381SOL    HW177004   3.040   9.093   6.739  2.0026  1.5625  1.1834
23381SOL    HW277005   3.055   9.062   6.887 -0.0717 -0.7903  0.9678
23382SOL     OW77006   3.149   9.080   5.216  0.4005 -0.3641 -0.0711
23382SOL    HW177007   3.104   9.006   5.174  1.2923 -1.6089  1.0701
23382SOL    HW277008   3.183   9.131   5.142 -0.6566 -0.8006 -0.8983
23383SOL     OW77009   6.662   2.243   7.837  0.2015 -0.0673 -0.2020
23383SOL    HW177010   6.712   2.163   7.821 -0.1269 -0.3865  0.3532
23383SOL    HW277011   6.699   2.280   7.917  0.7668  0.6783 -0.7835
23384SOL     OW77012  10.988   3.666   8.500 -0.7503 -0.2430  1.0414
23384SOL    HW177013  11.068   3.614   8.493 -1.3261 -0.9696 -1.8316
23384SOL    HW277014  11.015   3.748   8.540  1.8004  0.0978 -1.0769
23385SOL     OW77015   8.746   5.388   6.986 -0.2785 -0.2657 -0.6260
23385SOL    HW177016   8.828   5.379   6.938 -0.2764  0.4739 -0.7748
23385SOL    HW277017   8.683   5.336   6.936 -0.0902 -0.1625 -0.9696
23386SOL     OW77018   2.695   2.091   2.666  0.5075  0.5317 -0.3806
23386SOL    HW177019   2.738   2.030   2.726 -0.1176 -1.1131 -1.5338
23386SOL    HW277020   2.746   2.171   2.674  1.6996 -0.2857  0.7981
23387SOL     OW77021   6.069  12.139  10.295  0.0012 -0.0030 -0.0194
23387SOL    HW177022   6.163  12.159  10.293  0.2776 -1.3222 -1.7784
23387SOL    HW277023   6.059  12.081  10.370  0.7097 -0.3851 -0.2115
23388SOL     OW77024   3.770   9.887   2.484 -0.2268 -0.5210  0.7895
23388SOL    HW177025   3.745   9.828   2.413 -1.4399 -0.0310  0.7859
23388SOL    HW277026   3.859   9.860   2.508 -0.2194 -1.4004 -0.1734
23389SOL     OW77027   2.971   7.845  12.480  0.6746 -0.0372  0.0818
23389SOL    HW177028   2.955   7.853  12.386  0.3297 -0.3290  0.1169
23389SOL    HW277029   3.065   7.825  12.487  0.7553  0.2393 -0.1833
23390SOL     OW77030  12.108   7.734   6.144 -0.3633 -0.2268 -0.1369
23390SOL    HW177031  12.105   7.699   6.055  1.3602 -0.4883 -0.1290
23390SOL    HW277032  12.137   7.825   6.134 -0.9487 -0.0075  0.1101
23391SOL     OW77033   6.825   4.550   1.522 -0.7537 -0.4837  0.2015
23391SOL    HW177034   6.852   4.460   1.543 -0.6410 -0.4421  0.2312
23391SOL    HW277035   6.730   4.548   1.534 -0.7310 -0.5522  0.3836
23392SOL     OW77036  11.709   7.445   8.483 -0.2660 -0.1409 -0.3703
23392SOL    HW177037  11.795   7.467   8.447  0.1666 -1.7052 -0.3381
23392SOL    HW277038  11.688   7.359   8.448 -1.2408 -0.3505  0.6525
23393SOL     OW77039  10.243  11.465   5.626  0.1851  0.1818 -0.3286
23393SOL    HW177040  10.293  11.513   5.692  0.0458  2.0637 -1.5215
23393SOL    HW277041  10.240  11.375   5.659  2.2051  0.5411  0.9918
23394SOL     OW77042   6.419   7.172   9.069  0.1197 -0.0433 -0.1862
23394SOL    HW177043   6.393   7.155   8.978  0.1483  0.5643 -0.3096
23394SOL    HW277044   6.417   7.267   9.077  1.7382  0.0059 -0.0254
23395SOL     OW77045   1.982   5.407   3.477 -0.2431  0.0501  0.4906
23395SOL    HW177046   2.057   5.438   3.427  1.0364  1.2933  2.9921
23395SOL    HW277047   1.928   5.485   3.490 -0.6519 -0.2839  0.8312
23396SOL     OW77048   2.096   1.102   3.037 -0.1243  0.5711 -0.2767
23396SOL    HW177049   2.017   1.132   3.081  0.2355  1.0850  0.0330
23396SOL    HW277050   2.159   1.174   3.048  1.1473 -0.7279  1.4900
23397SOL     OW77051   7.437   0.879   0.412 -0.1676 -0.3069 -0.6982
23397SOL    HW177052   7.351   0.886   0.371 -0.8645 -0.3800  0.6909
23397SOL    HW277053   7.419   0.852   0.502  1.2506  0.6215 -0.0903
23398SOL     OW77054   8.524   9.392   0.248 -0.0535  0.1609  1.0453
23398SOL    HW177055   8.548   9.482   0.226 -0.9192  0.7709  2.4900
23398SOL    HW277056   8.446   9.400   0.303  0.4454 -1.4088  2.0550
23399SOL     OW77057   0.833   6.857   7.471 -0.3299  0.1126  0.0335
23399SOL    HW177058   0.853   6.880   7.380 -1.0995  1.2669  0.1421
23399SOL    HW277059   0.807   6.765   7.467 -0.8802  0.3024 -1.0033
23400SOL     OW77060   8.217   4.328   0.084 -0.0241 -0.5781  0.1597
23400SOL    HW177061   8.215   4.317  -0.011 -0.2103 -1.5312  0.2677
23400SOL    HW277062   8.241   4.242   0.118  1.7786  0.1690  0.9174
23401SOL     OW77063   5.302   7.642   9.176  0.3738 -0.3386 -0.3958
23401SOL    HW177064   5.339   7.696   9.246  0.6825 -1.8548  0.6732
23401SOL    HW277065   5.260   7.704   9.117 -1.3411  0.9328  1.9915
23402SOL     OW77066   8.932   8.555   0.338 -0.2928 -0.7575 -0.3145
23402SOL    HW177067   8.916   8.477   0.284 -3.0943  1.1403 -2.5070
23402SOL    HW277068   8.889   8.536   0.421 -0.1329 -1.8963 -0.4753
23403SOL     OW77069   6.489   3.534   4.800  0.5204 -0.1139 -0.0370
23403SOL    HW177070   6.486   3.621   4.841  0.5486 -0.5308  0.8802
23403SOL    HW277071   6.560   3.540   4.736  0.9316  0.3624  0.4515
23404SOL     OW77072   4.904   6.811   9.667  0.4757  0.1326  0.1538
23404SOL    HW177073   4.880   6.818   9.575  0.2397 -1.5517  0.0513
23404SOL    HW277074   4.982   6.867   9.676  0.6449  0.1296 -1.1167
23405SOL     OW77075   2.706   3.933   1.583  0.2834  0.0491  0.5284
23405SOL    HW177076   2.801   3.942   1.585  0.1966  1.4204 -0.0686
23405SOL    HW277077   2.690   3.857   1.527  1.0141  2.3491 -3.1493
23406SOL     OW77078   1.458  11.375   1.549 -0.5740  0.0319  0.1687
23406SOL    HW177079   1.534  11.352   1.495 -0.6604 -1.7919  0.7391
23406SOL    HW277080   1.390  11.313   1.523 -1.3238  0.5426  0.8505
23407SOL     OW77081   2.362   7.884   3.156 -0.4398  0.3875 -0.1668
23407SOL    HW177082   2.435   7.839   3.112  0.6839  1.2796  0.7210
23407SOL    HW277083   2.316   7.929   3.085  1.0525  1.4054 -0.5286
23408SOL     OW77084   1.314   2.581   9.733  0.2216 -0.1301  0.0720
23408SOL    HW177085   1.390   2.599   9.788 -0.5893 -0.2619  1.2734
23408SOL    HW277086   1.339   2.613   9.646  0.1729  3.6445  1.2588
23409SOL     OW77087   9.418   1.660   3.690  0.6431 -0.1172 -0.1035
23409SOL    HW177088   9.406   1.745   3.733 -0.1717 -0.6393  0.7264
23409SOL    HW277089   9.329   1.626   3.679  1.0352 -1.8924  1.7088
23410SOL     OW77090   1.295   7.177   3.631 -0.5694 -0.0705  0.2795
23410SOL    HW177091   1.238   7.247   3.665  0.0405  0.3894  0.3656
23410SOL    HW277092   1.365   7.223   3.586 -0.0613 -0.6231  0.4869
23411SOL     OW77093   4.587  11.614   5.993 -0.3269 -0.5807  0.0426
23411SOL    HW177094   4.523  11.679   6.022  1.0669  0.4560  0.8846
23411SOL    HW277095   4.666  11.632   6.045  0.8355 -1.4902 -1.3276
23412SOL     OW77096   1.975   7.243   4.327 -0.3044 -0.0092  0.1862
23412SOL    HW177097   1.972   7.326   4.375 -1.4185 -1.0182  1.9637
23412SOL    HW277098   1.886   7.231   4.294 -0.4140 -0.9617  0.8081
23413SOL     OW77099   2.053   1.940   9.773 -0.6087 -0.1512  0.1061
23413SOL    HW177100   2.075   1.892   9.694 -1.9447  0.7563 -0.8663
23413SOL    HW277101   1.977   1.894   9.809 -1.0961  0.4490 -0.1314
23414SOL     OW77102   7.240   3.394   4.824  0.5012  0.1699 -0.0573
23414SOL    HW177103   7.237   3.356   4.736  1.1900 -0.7563  0.3031
23414SOL    HW277104   7.301   3.468   4.816  1.8002 -0.8609 -0.0330
23415SOL     OW77105   8.724   9.208   8.422 -0.4669 -0.6089  0.0521
23415SOL    HW177106   8.802   9.203   8.367 -1.1697 -0.3010 -0.9895
23415SOL    HW277107   8.665   9.266   8.375 -0.6119  0.6949  1.7360
23416SOL     OW77108   2.562  11.402   8.332  0.2004  0.4511  0.1164
23416SOL    HW177109   2.510  11.476   8.364 -1.0764 -0.0988 -0.6131
23416SOL    HW277110   2.586  11.426   8.243  2.7897  1.4823  0.9992
23417SOL     OW77111   9.852   7.284   7.074 -0.0574 -0.1104 -0.2553
23417SOL    HW177112   9.885   7.210   7.024 -0.0810 -0.0630 -0.3419
23417SOL    HW277113   9.777   7.316   7.024 -0.0593 -0.0400 -0.2086
23418SOL     OW77114   6.332   4.742   3.339  0.1643 -0.4962  0.2042
23418SOL    HW177115   6.252   4.716   3.386 -0.1870  0.4779  0.1778
23418SOL    HW277116   6.317   4.834   3.316  1.2089 -0.3633  0.0059
23419SOL     OW77117   7.395   4.205   9.354 -0.0607  0.0642  0.4755
23419SOL    HW177118   7.478   4.235   9.391 -0.4925  0.5650  1.0580
23419SOL    HW277119   7.360   4.283   9.311 -0.4369 -0.0320  0.6111
23420SOL     OW77120   1.157   4.491  12.074 -0.2185  0.4831 -0.1863
23420SOL    HW177121   1.169   4.473  11.981 -3.1719 -0.6853 -0.4746
23420SOL    HW277122   1.164   4.405  12.116  3.2974  1.2481  1.1009
23421SOL     OW77123  10.499   5.304   2.122  0.1082  0.1415  0.1333
23421SOL    HW177124  10.527   5.320   2.213  0.4223 -1.1065  0.2756
23421SOL    HW277125  10.419   5.355   2.113 -1.1481 -1.3971  1.8195
23422SOL     OW77126   8.477   0.937   6.165  0.1183 -0.2333  0.6603
23422SOL    HW177127   8.493   0.913   6.074 -0.6047  0.2133  0.4066
23422SOL    HW277128   8.399   0.886   6.189  1.8187 -2.4048  1.8786
23423SOL     OW77129   2.135   5.058   7.209 -0.3343 -0.1796 -0.3185
23423SOL    HW177130   2.122   5.012   7.292 -0.5260 -0.4920 -0.5212
23423SOL    HW277131   2.209   5.013   7.168  0.4821  0.6645  0.1686
23424SOL     OW77132   4.614   5.973   1.928 -0.0853 -0.2049 -0.2129
23424SOL    HW177133   4.616   5.877   1.937  0.0323 -0.1101  1.0462
23424SOL    HW277134   4.547   5.989   1.862  0.1836 -1.1713 -0.7475
23425SOL     OW77135   9.787   7.603   6.857  0.5234  0.1679 -0.3075
23425SOL    HW177136   9.787   7.691   6.894 -1.3332 -0.0064  0.2153
23425SOL    HW277137   9.847   7.608   6.783  0.2132  1.9778 -0.4758
23426SOL     OW77138   6.067  11.679   7.005 -0.4079 -0.4537 -0.0714
23426SOL    HW177139   6.082  11.658   7.097  0.5002  1.4866  0.2593
23426SOL    HW277140   6.141  11.734   6.980 -2.2496  1.7119 -1.0515
23427SOL     OW77141   9.063   4.716   1.900 -0.2661  0.3876 -0.0993
23427SOL    HW177142   9.049   4.786   1.964  0.6297  1.2197 -0.7717
23427SOL    HW277143   8.977   4.677   1.887 -0.5224  0.3902  1.3811
23428SOL     OW77144   3.995   6.684   0.185  0.3302  0.3514  0.2197
23428SOL    HW177145   3.935   6.667   0.112  1.2733  1.6184 -0.8792
23428SOL    HW277146   4.072   6.631   0.166 -0.2482 -1.0071  1.4585
23429SOL     OW77147   2.063   4.022   5.643 -0.1540  0.3035  0.1267
23429SOL    HW177148   2.156   4.018   5.619 -0.1926  0.1690 -0.0046
23429SOL    HW277149   2.045   3.938   5.683 -0.9466 -0.9326 -2.5609
23430SOL     OW77150   3.108   6.765   5.107 -0.1273  0.1185  0.7251
23430SOL    HW177151   3.112   6.713   5.026 -1.5349 -0.1613  0.8136
23430SOL    HW277152   3.049   6.837   5.086  0.9427  1.1007  0.9553
23431SOL     OW77153   8.847   7.603   9.306  0.4694 -0.0679  0.3399
23431SOL    HW177154   8.765   7.646   9.330 -0.3137 -1.4265  0.1882
23431SOL    HW277155   8.892   7.666   9.249 -0.7693  0.4163 -0.1203
23432SOL     OW77156   7.528   9.201   8.820  0.0755 -0.5647  0.3327
23432SOL    HW177157   7.603   9.174   8.767 -0.0451 -0.3248  0.0377
23432SOL    HW277158   7.566   9.230   8.903  0.4886  1.2991 -0.4596
23433SOL     OW77159  11.502   3.701   3.688  0.3316 -0.9146  0.3994
23433SOL    HW177160  11.542   3.675   3.771  0.4123  0.1204  0.6930
23433SOL    HW277161  11.457   3.783   3.708  0.1965 -0.7524 -0.5448
23434SOL     OW77162   7.678  10.392   1.589 -0.5740 -0.1765 -0.6112
23434SOL    HW177163   7.626  10.459   1.632  2.5015  0.5987  2.3301
23434SOL    HW277164   7.728  10.440   1.522  0.2725  0.1756  0.2497
23435SOL     OW77165   4.365   3.780  12.286  0.0427  0.1856 -0.1214
23435SOL    HW177166   4.276   3.812  12.274  0.7015  2.3345  0.3003
23435SOL    HW277167   4.418   3.834  12.227  1.1883 -0.3837  0.3587
23436SOL     OW77168  11.370   9.209   9.431  0.1072  0.1675  0.1223
23436SOL    HW177169  11.324   9.287   9.464 -0.0285  0.3560 -0.5101
23436SOL    HW277170  11.373   9.221   9.336 -0.4473 -0.8848 -0.0430
23437SOL     OW77171  10.694   1.997  12.371 -0.2854  0.1619  0.4904
23437SOL    HW177172  10.612   2.030  12.406  0.4980 -0.1061  2.7397
23437SOL    HW277173  10.733   1.948  12.443  1.3424 -0.6439 -0.8706
23438SOL     OW77174   3.426   2.185  11.399  0.1361  0.5032  0.1215
23438SOL    HW177175   3.450   2.133  11.475  0.0128 -0.7736 -0.6861
23438SOL    HW277176   3.333   2.166  11.385 -0.4974  2.6321  1.0899
23439SOL     OW77177   3.272   8.022   4.257  0.3758  0.1099  0.7439
23439SOL    HW177178   3.279   8.026   4.162  1.5675  0.2704  0.8151
23439SOL    HW277179   3.226   8.103   4.281 -0.9062 -0.4507  0.2443
23440SOL     OW77180   0.627   8.402   4.419 -0.3424  0.4976  0.1346
23440SOL    HW177181   0.656   8.413   4.509  1.5701 -1.8873 -0.0965
23440SOL    HW277182   0.697   8.441   4.367  0.3135 -1.2354 -0.3450
23441SOL     OW77183  11.165   5.098   4.673 -0.1711  0.1595  0.1784
23441SOL    HW177184  11.069   5.104   4.669 -0.2051  0.6738  1.2530
23441SOL    HW277185  11.189   5.048   4.596 -1.3769 -0.6435  0.2845
23442SOL     OW77186   5.029   4.070   1.901 -0.6693  0.3918  0.0146
23442SOL    HW177187   4.972   3.999   1.872  0.9940 -0.8780 -0.2983
23442SOL    HW277188   5.060   4.111   1.821  1.0011 -0.7276  0.0419
23443SOL     OW77189   3.319   1.906   9.739 -0.1349  0.2275  0.7443
23443SOL    HW177190   3.299   1.915   9.832  0.8272 -0.0452  0.9826
23443SOL    HW277191   3.240   1.938   9.694 -0.6876  0.1442  1.6484
23444SOL     OW77192   2.955  11.766   9.548 -0.1427  0.4032 -0.2465
23444SOL    HW177193   2.930  11.815   9.470 -0.3629  0.3040 -0.2412
23444SOL    HW277194   2.907  11.683   9.540  1.5509 -0.5424 -1.1282
23445SOL     OW77195  12.239   8.066   4.931  0.3342 -0.3232  0.4828
23445SOL    HW177196  12.255   7.978   4.965  0.6309 -0.5590 -0.2591
23445SOL    HW277197  12.298   8.075   4.857 -0.3694  0.1519 -0.0356
23446SOL     OW77198   2.820   0.783  10.957  0.1959 -0.2133 -0.4396
23446SOL    HW177199   2.892   0.736  10.916  1.4540  0.7858  0.5482
23446SOL    HW277200   2.776   0.717  11.011  2.2598 -0.2338  1.3532
23447SOL     OW77201  12.260   2.609   5.725  0.3342  0.0911  0.4679
23447SOL    HW177202  12.312   2.626   5.646  0.1840 -1.4868 -0.0137
23447SOL    HW277203  12.177   2.653   5.708  0.0457 -0.8085 -0.6008
23448SOL     OW77204  12.091   1.387   1.988 -0.4457  0.1612  0.1110
23448SOL    HW177205  12.071   1.472   2.027 -0.9172  0.8039 -1.4558
23448SOL    HW277206  12.039   1.325   2.039 -0.7627  0.9194  0.7290
23449SOL     OW77207   1.787   3.174   1.122 -0.2412  0.0723  0.2344
23449SOL    HW177208   1.798   3.093   1.072 -2.2134 -0.1489  0.0812
23449SOL    HW277209   1.876   3.206   1.136  0.4445 -0.5451 -2.2815
23450SOL     OW77210   0.007   2.405   7.624 -0.3896  0.3136  0.1153
23450SOL    HW177211  -0.030   2.352   7.553  1.8565 -0.0397 -0.8676
23450SOL    HW277212   0.099   2.379   7.629  0.0759  2.0224  1.6050
23451SOL     OW77213   8.897   7.282   4.321 -0.6296 -0.2549  0.2282
23451SOL    HW177214   8.813   7.251   4.356 -1.4774  2.1520  0.4586
23451SOL    HW277215   8.892   7.377   4.327  1.5618 -0.0013 -1.1021
23452SOL     OW77216   5.659  12.155   7.679  0.1808 -0.6056  0.8590
23452SOL    HW177217   5.658  12.247   7.705  1.8731 -0.6980  1.3416
23452SOL    HW277218   5.664  12.157   7.583  1.5933 -0.1583  0.9264
23453SOL     OW77219   3.340   0.885  11.313 -0.3159  0.2876 -0.0388
23453SOL    HW177220   3.395   0.963  11.318 -1.9981  1.4838  0.9415
23453SOL    HW277221   3.252   0.917  11.333 -1.1779 -1.7579 -0.3201
23454SOL     OW77222   6.086   3.047   8.726  0.2190 -0.1066 -0.2367
23454SOL    HW177223   6.100   3.125   8.779 -0.6924  0.4467 -0.7938
23454SOL    HW277224   6.055   2.981   8.788 -2.1274  0.9025 -0.2063
23455SOL     OW77225   9.755   2.451  12.421  0.2589  0.0244  0.2026
23455SOL    HW177226   9.678   2.439  12.476  0.3205 -0.1542  0.2509
23455SOL    HW277227   9.811   2.511  12.470 -1.1388  2.5743 -1.1157
23456SOL     OW77228   1.950   3.054   5.330  0.1593  0.1758 -0.1921
23456SOL    HW177229   1.902   2.976   5.301 -0.5213  0.7153 -0.5284
23456SOL    HW277230   1.989   3.089   5.250  0.2467  0.3323 -0.0798
23457SOL     OW77231   4.009  10.469   8.983 -0.5208  0.1371 -0.0420
23457SOL    HW177232   3.913  10.471   8.993 -0.4508 -0.9124  1.0644
23457SOL    HW277233   4.034  10.381   9.012  0.7488  0.2582 -0.7251
23458SOL     OW77234   5.796   7.543   0.584 -0.3921 -0.3184  0.1293
23458SOL    HW177235   5.755   7.488   0.651  0.6679 -0.1271  0.9714
23458SOL    HW277236   5.748   7.523   0.504 -1.2721 -1.0429  0.8082
23459SOL     OW77237  12.378   7.696   8.741 -0.3624  0.3270 -0.6945
23459SOL    HW177238  12.351   7.664   8.654  0.8436  0.1997 -1.0436
23459SOL    HW277239  12.472   7.676   8.745 -0.1981  1.2433  0.2481
23460SOL     OW77240   4.882  11.558   0.335 -0.6782 -0.0119 -0.7213
23460SOL    HW177241   4.853  11.561   0.426 -0.1653  0.2778 -0.5665
23460SOL    HW277242   4.978  11.562   0.340 -0.3496 -3.5847 -1.0686
23461SOL     OW77243   6.918   4.025   6.032  0.6463  0.1671  0.0481
23461SOL    HW177244   6.946   4.041   6.122  0.8911  0.8060 -0.1409
23461SOL    HW277245   6.911   3.929   6.026 -0.2831  0.1584  1.0202
23462SOL     OW77246   5.002   7.332  10.380 -0.0559  0.3944  0.1314
23462SOL    HW177247   5.027   7.252  10.333 -0.4237  1.0840 -1.2938
23462SOL    HW277248   4.916   7.313  10.416  0.2020 -0.1216  0.4862
23463SOL     OW77249   6.909   6.662   4.243 -0.2774 -0.3079 -0.5053
23463SOL    HW177250   6.889   6.605   4.169  1.1055 -0.7324 -0.5809
23463SOL    HW277251   6.882   6.749   4.215  0.7649 -0.3658 -1.7580
23464SOL     OW77252   8.030  10.673   2.236 -0.0845  0.2088  0.0251
23464SOL    HW177253   8.119  10.665   2.269 -0.6262  0.6141  1.6781
23464SOL    HW277254   8.029  10.754   2.186  0.4966  0.1702 -0.0465
23465SOL     OW77255   3.023   7.599   4.975  0.2601 -0.4765 -0.5771
23465SOL    HW177256   3.097   7.607   4.915  0.7169  0.7991  0.1119
23465SOL    HW277257   2.966   7.672   4.952  1.0379  0.7912  1.3004
23466SOL     OW77258   2.766   2.854  10.246 -0.3142  0.1523  0.0786
23466SOL    HW177259   2.767   2.949  10.260 -1.2500  0.1613  0.1717
23466SOL    HW277260   2.852   2.834  10.209  0.5683  0.7732  1.6640
23467SOL     OW77261   2.661   8.318   9.795 -0.0326  0.1029 -0.4154
23467SOL    HW177262   2.692   8.313   9.705  1.4751  1.1919  0.0071
23467SOL    HW277263   2.569   8.290   9.790 -0.8192  2.6207 -2.7458
23468SOL     OW77264   6.453   3.418   7.105  0.3206 -0.6099  0.1747
23468SOL    HW177265   6.447   3.505   7.065 -2.0316 -1.1244 -0.7638
23468SOL    HW277266   6.393   3.422   7.179  1.1912 -1.0567  0.9151
23469SOL     OW77267   2.040   9.053  10.522 -0.1497  0.1378  0.2757
23469SOL    HW177268   2.130   9.058  10.555 -0.1182  0.5231  0.1276
23469SOL    HW277269   1.986   9.062  10.601 -0.0724  0.9484  0.2418
23470SOL     OW77270   0.305   2.117   2.510  0.1420  0.4543  0.2746
23470SOL    HW177271   0.221   2.136   2.552  0.4412  0.1979  0.9991
23470SOL    HW277272   0.357   2.075   2.578  0.3781 -0.6691 -0.5708
23471SOL     OW77273   9.880   8.305  10.353 -0.1249 -0.2580 -0.5304
23471SOL    HW177274   9.951   8.338  10.298 -1.1777  1.1892 -1.0968
23471SOL    HW277275   9.871   8.213  10.327  2.2340 -0.8236  0.3673
23472SOL     OW77276   1.613   5.104   6.548 -0.1355  0.0347  0.2911
23472SOL    HW177277   1.676   5.036   6.573  1.1959  1.1551  0.1117
23472SOL    HW277278   1.571   5.129   6.631 -1.3849 -1.6555  0.2275
23473SOL     OW77279   4.952   8.878  10.507 -0.2282 -0.3009  0.2581
23473SOL    HW177280   5.041   8.848  10.488 -0.7573 -0.9981 -1.2854
23473SOL    HW277281   4.930   8.934  10.433 -1.6322 -1.3980 -0.1907
23474SOL     OW77282   7.785   9.429   8.191  0.2176 -0.2873 -0.0642
23474SOL    HW177283   7.718   9.389   8.247 -0.9875  0.6987 -0.7603
23474SOL    HW277284   7.740   9.449   8.109  1.5118 -0.0909 -0.7611
23475SOL     OW77285   4.484   4.914   5.767 -0.5324  0.3030 -0.3617
23475SOL    HW177286   4.440   4.981   5.715 -0.6169  0.2996 -0.2945
23475SOL    HW277287   4.572   4.909   5.730  0.1249  1.8265  0.8623
23476SOL     OW77288   6.915   0.524   7.212  0.4368  0.8658  0.1052
23476SOL    HW177289   6.943   0.527   7.121 -1.1397  1.0278 -0.3978
23476SOL    HW277290   6.935   0.434   7.240 -1.6964 -0.1370 -1.3218
23477SOL     OW77291   7.016   1.220   1.673 -0.1250  0.2021 -0.1748
23477SOL    HW177292   6.946   1.165   1.709  1.0423 -0.7748  0.7070
23477SOL    HW277293   6.991   1.309   1.695  0.5681 -0.3246  3.3272
23478SOL     OW77294   1.097   9.972   2.879 -0.3669  0.3977 -0.0922
23478SOL    HW177295   1.162   9.982   2.948 -1.5787 -0.3755  1.2074
23478SOL    HW277296   1.067  10.062   2.860 -1.1584  0.5118  1.5418
23479SOL     OW77297   5.745   3.267   3.051  0.3201 -0.1159 -0.3812
23479SOL    HW177298   5.831   3.249   3.090  1.0762  1.1520 -1.3923
23479SOL    HW277299   5.708   3.337   3.105  0.7246  0.6016 -1.0168
23480SOL     OW77300   8.608   5.030  11.519  0.1993 -0.2774 -0.1421
23480SOL    HW177301   8.630   4.950  11.567 -0.2691 -0.3569 -0.0645
23480SOL    HW277302   8.524   5.012  11.478  0.7262 -0.3169 -1.2428
23481SOL     OW77303  10.365   2.884  12.218  0.0408  0.3594 -0.3131
23481SOL    HW177304  10.440   2.938  12.193  1.1062  0.0123  1.8415
23481SOL    HW277305  10.373   2.875  12.313 -2.1517 -0.5996 -0.1559
23482SOL     OW77306   0.141   5.294   1.891  0.6524  0.1780 -0.2506
23482SOL    HW177307   0.046   5.298   1.884  0.5534 -1.2193 -0.0705
23482SOL    HW277308   0.163   5.205   1.862  1.9480  0.6339 -0.7314
23483SOL     OW77309   3.625  11.481   6.680  0.5386  0.1280  0.1655
23483SOL    HW177310   3.610  11.389   6.700  2.0583  0.3180  2.6654
23483SOL    HW277311   3.562  11.501   6.611 -1.5652 -2.1401  1.2531
23484SOL     OW77312  10.016   7.418   2.472  0.1013  0.4585 -0.2050
23484SOL    HW177313  10.073   7.413   2.395 -1.2939 -2.2737 -1.2061
23484SOL    HW277314  10.064   7.371   2.540 -0.0853 -0.0818 -0.4415
23485SOL     OW77315  11.017  10.675   4.184 -0.1898 -0.1235  0.3038
23485SOL    HW177316  11.047  10.756   4.227 -1.2963  0.1877  0.5286
23485SOL    HW277317  10.955  10.637   4.247  0.2717 -1.1248  0.1702
23486SOL     OW77318   9.288  11.711   4.031  0.0210  0.6289 -0.2199
23486SOL    HW177319   9.352  11.646   4.060 -0.1846  0.4263 -0.2204
23486SOL    HW277320   9.218  11.660   3.991 -0.4788  0.8050  0.4165
23487SOL     OW77321   8.827   6.545   5.419  0.0178  0.3322 -0.7271
23487SOL    HW177322   8.854   6.528   5.328 -2.6734 -1.9959 -1.2500
23487SOL    HW277323   8.734   6.566   5.412 -0.1857  0.4032  1.4891
23488SOL     OW77324   9.438   9.558   4.537 -0.2212 -0.8701  0.0663
23488SOL    HW177325   9.470   9.647   4.522 -1.2426 -0.5904 -0.5673
23488SOL    HW277326   9.478   9.506   4.468  0.0628 -0.8276  0.1978
23489SOL     OW77327   0.512   9.576   0.302  0.1256 -0.4268  0.0881
23489SOL    HW177328   0.440   9.638   0.291  0.5262  0.1845  0.8828
23489SOL    HW277329   0.571   9.617   0.365 -0.0026 -1.9644  1.2591
23490SOL     OW77330   9.974   8.366  12.229  0.2898  0.1209  0.0448
23490SOL    HW177331  10.056   8.336  12.191 -0.4325 -0.9919 -0.7120
23490SOL    HW277332   9.909   8.350  12.161 -0.2395  3.2506 -0.3379
23491SOL     OW77333  10.292   0.091   5.138 -0.5353  0.4072  0.4672
23491SOL    HW177334  10.277  -0.002   5.121 -0.0809  0.4218 -0.0312
23491SOL    HW277335  10.277   0.101   5.232  2.3765 -0.7794  1.1746
23492SOL     OW77336   6.599   5.954   1.895  0.0848 -0.3129  0.2167
23492SOL    HW177337   6.642   6.036   1.870 -0.0803 -0.3925 -0.3280
23492SOL    HW277338   6.664   5.907   1.947  0.3104 -0.0037  0.2149
23493SOL     OW77339  10.733   0.043   9.448  0.2565  0.1339  0.3562
23493SOL    HW177340  10.718  -0.044   9.411  1.4379 -0.3166  0.8959
23493SOL    HW277341  10.728   0.030   9.542 -0.1268  0.7688  0.4276
23494SOL     OW77342   6.989   7.860   7.315 -0.0934  0.2968 -0.4527
23494SOL    HW177343   6.924   7.827   7.377 -0.6606 -0.1629 -1.2711
23494SOL    HW277344   7.063   7.886   7.369 -0.3685 -0.5947  0.3827
23495SOL     OW77345  10.191   7.846   4.780  0.1270  0.5389  0.8096
23495SOL    HW177346  10.101   7.881   4.783  0.3841  1.5113 -1.1257
23495SOL    HW277347  10.246   7.923   4.766  1.0843 -0.2665  0.0336
23496SOL     OW77348  11.340   5.216   6.474 -0.5344  0.3424  0.3000
23496SOL    HW177349  11.386   5.170   6.544 -0.2956  1.2294  0.7365
23496SOL    HW277350  11.291   5.285   6.519 -0.2597  1.0151 -0.4121
23497SOL     OW77351   5.350   0.227   0.080  0.1661 -0.1281 -0.6341
23497SOL    HW177352   5.433   0.269   0.057 -0.3231  0.4582 -1.3802
23497SOL    HW277353   5.372   0.167   0.151  1.3926 -0.6324 -1.4147
23498SOL     OW77354  11.308   3.389   9.951  0.4658 -0.3237 -0.3307
23498SOL    HW177355  11.227   3.363   9.994 -0.0239 -1.4899 -1.8782
23498SOL    HW277356  11.284   3.467   9.900  0.6322  0.0826  0.2145
23499SOL     OW77357   7.203  11.752   1.096 -0.3345  0.5016 -0.2835
23499SOL    HW177358   7.161  11.677   1.054 -1.0633  0.5119  0.4032
23499SOL    HW277359   7.141  11.779   1.163  0.7161  0.6067  0.6664
23500SOL     OW77360   1.827  10.502   2.006 -0.6208  0.1594 -0.1718
23500SOL    HW177361   1.830  10.508   1.911 -1.5242 -1.5500 -0.3570
23500SOL    HW277362   1.917  10.481   2.032 -0.4553  0.2232 -0.6856
23501SOL     OW77363   2.472  11.122   7.155  0.4282  0.4960  0.4458
23501SOL    HW177364   2.566  11.118   7.138  0.6134 -1.0591  1.5310
23501SOL    HW277365   2.433  11.146   7.071  1.8151  1.9244  0.1467
23502SOL     OW77366   0.568   5.764   6.941 -0.6968 -0.7195 -0.0488
23502SOL    HW177367   0.489   5.776   6.888  0.3500  0.1645 -1.5104
23502SOL    HW277368   0.561   5.676   6.976 -1.7535 -1.1112 -1.1802
23503SOL     OW77369   9.017   2.291   9.452  0.2669 -0.3791  1.1725
23503SOL    HW177370   8.952   2.353   9.486  1.0704  0.5552  1.0262
23503SOL    HW277371   9.043   2.239   9.528  0.4562  0.2542  1.5457
23504SOL     OW77372   0.510   6.490   4.620 -0.2592  0.1374  0.1810
23504SOL    HW177373   0.569   6.422   4.586 -1.3004  0.0261 -1.5596
23504SOL    HW277374   0.434   6.441   4.652 -0.3231  0.3924  0.4160
23505SOL     OW77375   6.901   7.229   7.542 -0.5454  0.6044 -0.1456
23505SOL    HW177376   6.995   7.236   7.524 -0.4271  0.6685  0.4657
23505SOL    HW277377   6.877   7.141   7.513 -0.9139  1.5192 -2.9508
23506SOL     OW77378   8.722   1.248   4.791  0.3302 -0.5817  0.1085
23506SOL    HW177379   8.784   1.184   4.755  1.1123  0.3355 -0.2372
23506SOL    HW277380   8.773   1.296   4.856 -0.7516 -1.4615  1.6568
23507SOL     OW77381   3.948   0.352   8.940 -0.4715  0.3771  0.1882
23507SOL    HW177382   3.921   0.444   8.935  0.4221  0.7169  1.3244
23507SOL    HW277383   4.004   0.348   9.018 -1.1894 -1.3019  0.6504
23508SOL     OW77384  11.377   4.060   8.640 -0.3707 -0.4805 -0.1211
23508SOL    HW177385  11.325   4.126   8.685 -1.6464 -2.2169  1.0577
23508SOL    HW277386  11.460   4.059   8.688 -0.6764 -0.3750  0.4160
23509SOL     OW77387   3.320   8.446   2.336 -0.3726 -0.0466 -0.8999
23509SOL    HW177388   3.415   8.438   2.348 -0.4204  0.2416 -0.2982
23509SOL    HW277389   3.283   8.376   2.390 -0.4056 -2.4476 -3.7740
23510SOL     OW77390   1.473   8.427   9.287  0.2552 -0.3477  0.3405
23510SOL    HW177391   1.565   8.446   9.269  0.2391 -1.8130 -1.6856
23510SOL    HW277392   1.425   8.492   9.237  0.1710  0.1582  1.0669
23511SOL     OW77393   9.944   8.841  11.904  0.0485  0.1777  0.1353
23511SOL    HW177394   9.952   8.757  11.859 -1.5057 -0.2738  0.6367
23511SOL    HW277395   9.968   8.906  11.837  0.4623 -0.6088 -0.5025
23512SOL     OW77396   8.514   8.958   1.437 -0.1542  0.2942 -0.1422
23512SOL    HW177397   8.518   8.892   1.368  1.0304  0.5093 -0.3007
23512SOL    HW277398   8.453   9.024   1.405 -0.9736 -0.4677 -0.1974
23513SOL     OW77399   0.773  11.203   9.307 -0.1931  0.0822 -0.3766
23513SOL    HW177400   0.731  11.266   9.249 -0.8955  0.0579  0.0924
23513SOL    HW277401   0.749  11.117   9.271  2.2633  0.0315 -2.0938
23514SOL     OW77402   0.645  10.924   1.806 -0.0738 -0.2780 -0.9077
23514SOL    HW177403   0.656  10.889   1.894 -1.1391 -1.5305 -1.2513
23514SOL    HW277404   0.722  10.979   1.792  1.5966 -2.3379 -0.2810
23515SOL     OW77405   2.816  11.507   9.566  0.4239  0.0734 -0.3532
23515SOL    HW177406   2.850  11.491   9.654  1.2489 -1.4033 -0.8891
23515SOL    HW277407   2.726  11.474   9.568  0.7776 -0.9241 -0.3217
23516SOL     OW77408   5.818  10.233   3.915  0.1434 -0.3656 -0.0645
23516SOL    HW177409   5.783  10.155   3.959 -0.3692  0.3250  0.7885
23516SOL    HW277410   5.912  10.231   3.935  0.1713 -0.8717 -0.2280
23517SOL     OW77411  11.014   6.945   3.011 -0.0668  0.2921  0.0349
23517SOL    HW177412  11.100   6.903   3.018 -0.5066 -0.4587  1.4254
23517SOL    HW277413  10.952   6.876   3.034 -0.8297  1.6005  2.2250
23518SOL     OW77414  11.705   4.445   1.585  0.1277 -0.1309 -0.0869
23518SOL    HW177415  11.725   4.536   1.604  1.3086 -0.6570  1.3380
23518SOL    HW277416  11.610   4.439   1.593 -0.0459  1.1075 -0.9287
23519SOL     OW77417   3.747   9.141   8.562 -0.0422 -0.0093 -0.2757
23519SOL    HW177418   3.707   9.074   8.617  0.2212  1.2381  1.5178
23519SOL    HW277419   3.688   9.149   8.487 -1.1843 -0.7528  0.5120
23520SOL     OW77420   0.437   2.703   2.779 -0.5038 -0.3868  0.6496
23520SOL    HW177421   0.411   2.644   2.709  0.7682  0.2810 -0.4437
23520SOL    HW277422   0.514   2.661   2.819 -0.0528  0.1398  0.3560
23521SOL     OW77423   3.582  10.360   7.885  0.0780 -0.3018  0.1698
23521SOL    HW177424   3.605  10.407   7.805 -1.4239  0.2798  0.0487
23521SOL    HW277425   3.499  10.398   7.912 -1.2079 -2.8679  0.0893
23522SOL     OW77426   2.245  10.357   8.901 -0.2556 -0.1194  0.0313
23522SOL    HW177427   2.201  10.300   8.838  0.5662 -0.4084 -0.2968
23522SOL    HW277428   2.334  10.367   8.866 -0.8545  2.8957 -0.9861
23523SOL     OW77429   1.548   2.922   2.098  0.1142 -0.1021  0.4983
23523SOL    HW177430   1.536   2.828   2.094 -3.3612  0.1726  1.6230
23523SOL    HW277431   1.638   2.936   2.068  0.7285 -3.7152  0.2662
23524SOL     OW77432   8.686   6.541  11.886 -0.0575  0.6224  0.2095
23524SOL    HW177433   8.639   6.610  11.839 -0.9194  0.2434  0.4856
23524SOL    HW277434   8.625   6.467  11.886  1.4117 -0.6687 -1.3891
23525SOL     OW77435   2.058   4.229   4.159  0.7500 -0.8455  0.1113
23525SOL    HW177436   2.144   4.200   4.129  0.7600  0.2303 -0.9800
23525SOL    HW277437   2.063   4.325   4.159 -0.9662 -0.6810 -1.7114
23526SOL     OW77438   6.092   7.257   5.633  0.4622  0.1015  0.2903
23526SOL    HW177439   6.070   7.330   5.575  0.4900  2.5410  3.0639
23526SOL    HW277440   6.052   7.181   5.593 -0.7440  1.8799 -2.1263
23527SOL     OW77441   9.713   8.794  10.857  0.4916 -0.3428  0.0205
23527SOL    HW177442   9.641   8.817  10.915  1.2958 -0.9060  1.2876
23527SOL    HW277443   9.687   8.711  10.817  0.7742 -0.9740  1.1134
23528SOL     OW77444   1.315  11.466   9.939  0.2235  0.4127 -0.4992
23528SOL    HW177445   1.240  11.457   9.879 -0.4925  0.2895  0.3979
23528SOL    HW277446   1.391  11.450   9.883 -0.5243 -4.1669 -0.6103
23529SOL     OW77447   3.434   3.722  11.791  0.2110 -0.1430 -0.0991
23529SOL    HW177448   3.499   3.676  11.738  1.3746  0.0104  1.1360
23529SOL    HW277449   3.460   3.704  11.882 -0.2450  1.6070  0.4254
23530SOL     OW77450  11.683   9.951   0.873 -0.6099 -0.6107  0.1592
23530SOL    HW177451  11.704   9.872   0.824 -0.5204 -0.5271  0.0652
23530SOL    HW277452  11.760   9.968   0.927 -0.0029  0.2921 -0.9516
23531SOL     OW77453  11.610   1.877   1.034  0.1331  0.4530 -0.1150
23531SOL    HW177454  11.646   1.926   0.960  1.2581 -0.7174 -0.3757
23531SOL    HW277455  11.656   1.911   1.110 -0.2815  0.9336 -0.0710
23532SOL     OW77456   4.608   1.354   3.264  0.1920 -0.3121  0.1981
23532SOL    HW177457   4.670   1.299   3.312  0.7709 -0.3013 -0.5261
23532SOL    HW277458   4.619   1.329   3.173 -0.3189  0.2420 -0.0219
23533SOL     OW77459   3.080   8.846  10.230  0.0490  0.4207  0.8813
23533SOL    HW177460   3.015   8.850  10.160  1.2055  0.8762 -0.2139
23533SOL    HW277461   3.029   8.854  10.311 -1.3105  0.0396  0.0991
23534SOL     OW77462   2.494   7.725   9.771 -0.2890  0.3328  0.0891
23534SOL    HW177463   2.482   7.630   9.762 -0.7315  0.3858  0.0914
23534SOL    HW277464   2.463   7.745   9.859 -1.2649  0.6365 -0.2976
23535SOL     OW77465   4.925  12.157   1.718 -0.3214  0.3370  0.0947
23535SOL    HW177466   4.886  12.181   1.634  1.0693 -1.9189 -1.3028
23535SOL    HW277467   4.910  12.063   1.725 -0.4178  0.4842  2.4250
23536SOL     OW77468   4.307  10.974   5.559  0.2086  0.1419 -0.5208
23536SOL    HW177469   4.315  10.996   5.466  0.3665  1.3332 -0.2417
23536SOL    HW277470   4.306  11.059   5.604  2.0119 -0.4366  0.7120
23537SOL     OW77471  10.856  10.068  11.473 -0.3471  0.1415 -0.1646
23537SOL    HW177472  10.829  10.158  11.490  1.3751  0.6287  0.1561
23537SOL    HW277473  10.780  10.028  11.431 -0.7330  2.0863 -1.4533
23538SOL     OW77474   0.968   9.601   4.909  0.3205 -0.0977 -0.3136
23538SOL    HW177475   1.048   9.634   4.950 -1.0299  1.1777  1.4560
23538SOL    HW277476   0.988   9.598   4.816  2.7966 -0.9692  0.1739
23539SOL     OW77477   3.631  11.223   6.180 -0.5069  0.2830 -0.0076
23539SOL    HW177478   3.657  11.275   6.104 -0.2097  2.2458  1.3784
23539SOL    HW277479   3.661  11.273   6.255 -0.7630 -1.6277  1.4329
23540SOL     OW77480   8.281   7.926   5.580 -0.1365  0.2898  0.6573
23540SOL    HW177481   8.278   7.868   5.656  1.4463 -0.2149  0.3790
23540SOL    HW277482   8.373   7.926   5.554 -0.3645  1.7572 -0.2654
23541SOL     OW77483   2.831  10.175   2.563  0.2203  0.1694 -0.1114
23541SOL    HW177484   2.840  10.151   2.656  1.0982 -2.2069 -0.7272
23541SOL    HW277485   2.801  10.266   2.565  0.1745  0.1972  2.4945
23542SOL     OW77486   1.203  12.001   8.898 -0.8649  0.0026 -0.1746
23542SOL    HW177487   1.243  11.975   8.982 -1.8117  1.0201  0.6251
23542SOL    HW277488   1.253  11.953   8.832 -0.4384 -1.2469  1.0045
23543SOL     OW77489   7.836   1.878   9.579 -0.2658  0.5933  0.2614
23543SOL    HW177490   7.810   1.806   9.637 -0.7275 -0.0558 -0.7096
23543SOL    HW277491   7.914   1.845   9.534 -0.1026  0.9616  0.2696
23544SOL     OW77492   9.662   0.173   2.059 -0.0314  0.7208  0.3647
23544SOL    HW177493   9.595   0.178   1.991  0.8817 -0.8110 -0.7164
23544SOL    HW277494   9.726   0.239   2.035  0.6903 -0.3560 -0.7746
23545SOL     OW77495   2.537   5.340   6.598 -0.5488 -0.1098 -0.0879
23545SOL    HW177496   2.486   5.305   6.672 -1.1863  1.8898  0.4801
23545SOL    HW277497   2.545   5.433   6.617  1.6150  0.0004 -1.2140
23546SOL     OW77498   7.653   4.204   2.904  0.4976  0.0985  0.1548
23546SOL    HW177499   7.690   4.202   2.817  0.1719 -1.4049  0.0271
23546SOL    HW277500   7.592   4.130   2.907  1.1774 -0.4572  1.9428
23547SOL     OW77501   5.649   2.921  10.169  0.3872 -0.2892  0.8066
23547SOL    HW177502   5.560   2.902  10.140 -0.3523  2.0644  1.2492
23547SOL    HW277503   5.706   2.881  10.103 -1.0212 -1.0832  0.0445
23548SOL     OW77504   0.024   8.522   7.866  0.3464 -0.0812 -0.2441
23548SOL    HW177505  -0.029   8.443   7.865  1.5733 -0.9519  0.7341
23548SOL    HW277506   0.009   8.560   7.953  2.7169 -1.3674  0.8028
23549SOL     OW77507  10.565   2.967   6.530 -0.2583  0.7564  0.0775
23549SOL    HW177508  10.578   3.062   6.526  0.0581  0.6678 -2.4084
23549SOL    HW277509  10.553   2.949   6.623 -2.7785  3.5379  0.4456
23550SOL     OW77510   8.307   8.567   4.437 -0.1195  0.1809 -0.0104
23550SOL    HW177511   8.381   8.515   4.407 -1.3157 -1.1091 -0.8593
23550SOL    HW277512   8.281   8.618   4.361 -0.4705  0.1661  0.0972
23551SOL     OW77513   7.544   8.246   8.667  0.0335 -0.2129  0.2940
23551SOL    HW177514   7.576   8.233   8.578  0.8896  0.1103  0.5515
23551SOL    HW277515   7.609   8.205   8.724  0.2725  0.8646  0.8411
23552SOL     OW77516   1.471   5.760   8.449  0.4198  0.3169  0.0932
23552SOL    HW177517   1.482   5.785   8.357 -2.4433 -0.6483 -0.6221
23552SOL    HW277518   1.533   5.689   8.462 -0.7862 -1.2461 -1.9231
23553SOL     OW77519   0.401  11.087   3.887 -0.1798 -0.1550  0.3617
23553SOL    HW177520   0.374  10.995   3.892 -0.7777  0.0235  0.4291
23553SOL    HW277521   0.324  11.134   3.854  0.0128  0.3696  0.6452
23554SOL     OW77522   0.094   0.953  10.343 -0.2248 -0.2739 -0.1777
23554SOL    HW177523   0.166   0.997  10.298 -0.7797 -0.7923 -1.6232
23554SOL    HW277524   0.068   1.015  10.411  0.3428  0.7428 -0.8534
23555SOL     OW77525   8.386   7.490  11.471  0.0382 -0.4215 -0.0643
23555SOL    HW177526   8.405   7.472  11.379  1.0754 -2.7636  0.5270
23555SOL    HW277527   8.312   7.551  11.470  1.4895  1.4554 -2.4293
23556SOL     OW77528   3.015  10.951  11.982  0.6595 -0.4960  0.9050
23556SOL    HW177529   2.964  10.904  11.916 -1.1461  1.9718  0.3817
23556SOL    HW277530   3.106  10.929  11.963  0.1991 -0.1900 -2.2319
23557SOL     OW77531   2.318  10.657   9.027  0.0397  0.0651  0.9325
23557SOL    HW177532   2.384  10.588   9.023  0.2909  0.2353  1.8176
23557SOL    HW277533   2.297  10.664   9.120 -1.9329 -0.6300  0.5771
23558SOL     OW77534   8.118   9.880   6.173 -0.0122  0.3079 -0.0855
23558SOL    HW177535   8.056   9.883   6.246 -0.5067 -1.1315 -0.3977
23558SOL    HW277536   8.077   9.932   6.104 -1.0322 -0.8329 -0.3754
23559SOL     OW77537   8.412  10.398  11.829 -0.6665  0.4365  0.2100
23559SOL    HW177538   8.472  10.448  11.772  0.7707  0.5354  1.7126
23559SOL    HW277539   8.348  10.463  11.858  0.0365  0.9750  0.6089
23560SOL     OW77540   1.504   7.794   6.775 -0.0839 -0.5102  0.2868
23560SOL    HW177541   1.436   7.820   6.837 -1.3551 -1.7954 -0.5136
23560SOL    HW277542   1.584   7.786   6.828 -0.3962  1.4813  1.1656
23561SOL     OW77543   6.289   6.338   2.432  0.2110 -0.3612 -0.1813
23561SOL    HW177544   6.234   6.299   2.365  1.9691 -2.3525 -0.5619
23561SOL    HW277545   6.231   6.350   2.508 -0.5718 -3.2912 -0.2309
23562SOL     OW77546   0.046  11.169   0.429 -0.1415 -0.8248 -0.3681
23562SOL    HW177547   0.105  11.234   0.390  0.4132 -1.0367  0.1106
23562SOL    HW277548   0.017  11.209   0.511  0.8139 -1.5002  0.3086
23563SOL     OW77549   1.562   2.718   9.634  0.1980  0.5002 -0.2282
23563SOL    HW177550   1.555   2.687   9.724 -0.0604  0.5126 -0.2431
23563SOL    HW277551   1.601   2.805   9.642 -1.3637  1.2127  0.0081
23564SOL     OW77552   2.640   6.202   4.028  0.0117  0.0196 -0.0273
23564SOL    HW177553   2.554   6.227   3.994 -0.0115  0.5123  0.3856
23564SOL    HW277554   2.680   6.152   3.958  0.5918  2.3068 -1.4253
23565SOL     OW77555   7.045  11.054   0.801  0.4068 -0.6144  0.2387
23565SOL    HW177556   7.010  11.135   0.763  0.2318 -0.1876  1.2760
23565SOL    HW277557   7.139  11.069   0.809  0.4092 -0.6156  0.2126
23566SOL     OW77558   9.740   0.843   2.238  0.3356 -0.2128  0.1193
23566SOL    HW177559   9.678   0.774   2.261 -0.3872  0.6836  0.9199
23566SOL    HW277560   9.739   0.903   2.312  0.9783  0.6493 -0.5373
23567SOL     OW77561   6.828   1.899  10.352 -0.0595  0.5374  0.6842
23567SOL    HW177562   6.849   1.989  10.326  2.1275 -0.8093 -2.9337
23567SOL    HW277563   6.911   1.862  10.381 -0.6615 -0.6903  0.8968
23568SOL     OW77564   2.835   6.961   9.578  0.4242 -0.7322  0.2515
23568SOL    HW177565   2.745   6.988   9.559  0.7216 -0.8960 -1.5997
23568SOL    HW277566   2.834   6.938   9.671 -0.8371  1.6504  0.9115
23569SOL     OW77567   7.309   9.454   8.669 -0.8886 -0.7470  0.5640
23569SOL    HW177568   7.357   9.372   8.679  0.2443 -0.6396 -2.7119
23569SOL    HW277569   7.364   9.520   8.711 -0.8752 -1.3701  1.5532
23570SOL     OW77570   6.774   0.174   8.363 -0.6257  0.0831  0.2432
23570SOL    HW177571   6.803   0.170   8.455 -0.8605 -0.6370  0.2904
23570SOL    HW277572   6.714   0.100   8.353  2.4152 -2.3962 -1.5212
23571SOL     OW77573   9.225   9.892   3.797 -0.0206 -0.2297  0.1330
23571SOL    HW177574   9.190   9.953   3.862 -0.6880 -0.4423 -0.0121
23571SOL    HW277575   9.184   9.919   3.714  1.1580  0.3154 -0.2940
23572SOL     OW77576   7.049   1.837   0.877 -0.1498  0.2482  0.3756
23572SOL    HW177577   6.992   1.760   0.874  0.7963 -0.4622  0.1599
23572SOL    HW277578   7.111   1.818   0.947  0.6660  0.3838 -0.2955
23573SOL     OW77579   1.567  11.741   9.774 -0.0406  0.3954 -0.0702
23573SOL    HW177580   1.556  11.653   9.811  2.1077  0.7804  1.6739
23573SOL    HW277581   1.495  11.749   9.711  0.1580 -2.8903 -0.9097
23574SOL     OW77582   3.720   8.013  10.232  0.3187  0.2121 -0.7548
23574SOL    HW177583   3.759   7.930  10.257  0.8603  1.1503  1.8157
23574SOL    HW277584   3.628   8.006  10.260  0.2473  0.3282 -0.9523
23575SOL     OW77585  12.399   9.390   3.342 -0.5709  0.0067 -0.0793
23575SOL    HW177586  12.455   9.464   3.365  0.0124 -0.7363  0.9652
23575SOL    HW277587  12.459   9.315   3.335 -1.1895 -0.4290 -0.7973
23576SOL     OW77588   2.125   9.365   3.065  0.3664 -0.4142 -0.4307
23576SOL    HW177589   2.104   9.326   2.980  0.0412 -1.7610  0.2374
23576SOL    HW277590   2.083   9.307   3.128  0.5346  0.6176  0.6489
23577SOL     OW77591  11.880   1.216   2.116 -0.4314 -0.6232  0.0004
23577SOL    HW177592  11.872   1.126   2.148  0.5765 -1.0496 -0.8971
23577SOL    HW277593  11.804   1.228   2.058 -1.9853 -0.0135  2.0517
23578SOL     OW77594   2.516   8.046   8.796  0.1773  0.6804 -0.2986
23578SOL    HW177595   2.503   8.101   8.874 -0.4750 -1.2577  1.0393
23578SOL    HW277596   2.609   8.052   8.778  0.4197  0.8758  0.9078
23579SOL     OW77597   8.923   8.210   6.932 -0.5788  0.1677 -0.0271
23579SOL    HW177598   8.837   8.198   6.970 -0.1434  0.3158  1.0223
23579SOL    HW277599   8.925   8.303   6.906 -0.5600  0.2875  0.3984
23580SOL     OW77600   6.715   4.646   3.682  0.3367  0.1822 -0.2062
23580SOL    HW177601   6.744   4.661   3.592  0.3549  0.8927 -0.0808
23580SOL    HW277602   6.631   4.689   3.688  0.9476  1.3071  0.5043
23581SOL     OW77603  12.271   8.000   4.198  0.4309  0.5622  0.0316
23581SOL    HW177604  12.337   8.033   4.259  0.5248  3.6695 -1.5586
23581SOL    HW277605  12.315   7.999   4.113 -0.0266 -2.6148 -0.2890
23582SOL     OW77606  11.053   1.935   6.074  0.1696 -0.2912  0.0909
23582SOL    HW177607  10.991   1.968   6.139 -0.8572 -1.9389  0.0044
23582SOL    HW277608  11.129   1.909   6.126 -0.1937 -0.5478  0.5048
23583SOL     OW77609  10.725   3.598   1.670 -0.3959  0.5214  0.0078
23583SOL    HW177610  10.783   3.547   1.726  2.4153  1.8121 -1.5128
23583SOL    HW277611  10.679   3.656   1.729  0.6050  0.1208  1.2189
23584SOL     OW77612   9.320   1.445   2.850  0.1031  0.5327 -0.0223
23584SOL    HW177613   9.308   1.539   2.838  0.1482  0.4659 -0.6214
23584SOL    HW277614   9.263   1.405   2.784 -1.9869  0.0738  1.9149
23585SOL     OW77615   4.995   7.049   0.005 -0.1074 -0.2959 -0.2341
23585SOL    HW177616   5.083   7.086  -0.004  0.1883 -0.9758 -0.1761
23585SOL    HW277617   4.962   7.085   0.087 -0.0206  0.2308 -0.4243
23586SOL     OW77618   5.928   7.773   1.987  0.1371  0.0297  0.4165
23586SOL    HW177619   5.880   7.702   1.945 -1.0109 -0.1067  1.8711
23586SOL    HW277620   5.952   7.832   1.915 -0.4512 -0.9181 -0.5864
23587SOL     OW77621   7.804  12.002  11.276  0.4760  0.2119  0.9740
23587SOL    HW177622   7.743  12.074  11.258  0.9720  0.6152  0.8727
23587SOL    HW277623   7.860  11.999  11.199  0.2466 -0.5119  0.8321
23588SOL     OW77624  10.653   2.261   0.527  0.0134  0.0397  0.0205
23588SOL    HW177625  10.653   2.219   0.613  1.1849  0.9779  0.5097
23588SOL    HW277626  10.682   2.351   0.544 -0.5024  0.4712 -1.2582
23589SOL     OW77627  12.221   2.105   9.084 -0.1501  0.3218  0.0558
23589SOL    HW177628  12.307   2.086   9.046 -1.3176 -0.4149 -2.5134
23589SOL    HW277629  12.183   2.019   9.101 -0.2128  0.6437  1.6812
23590SOL     OW77630   5.964  12.048   7.843  0.3696  0.9273  0.5197
23590SOL    HW177631   5.898  11.980   7.857  0.8368  0.6909  1.7059
23590SOL    HW277632   5.976  12.052   7.749 -0.0791 -0.2392  0.4046
23591SOL     OW77633   9.314   7.162   0.059  0.3947  0.6740  0.3387
23591SOL    HW177634   9.322   7.088  -0.002  0.4162  0.0336  1.1051
23591SOL    HW277635   9.301   7.121   0.144 -0.0161  1.5710  0.7127
23592SOL     OW77636   4.141   1.192   7.872  0.7082  0.0825 -0.3169
23592SOL    HW177637   4.171   1.281   7.892  0.5481  0.3015 -1.0477
23592SOL    HW277638   4.221   1.139   7.873  0.6685 -0.0247  1.3813
23593SOL     OW77639   4.628   4.870  11.742 -0.1625 -0.5345  0.2683
23593SOL    HW177640   4.687   4.841  11.672  1.6537  1.0361  1.0548
23593SOL    HW277641   4.547   4.893  11.696  1.3481  1.5830 -1.5914
23594SOL     OW77642   5.230   9.532   8.384  0.2439 -0.3855 -0.6967
23594SOL    HW177643   5.216   9.579   8.467  1.4893  0.1450 -0.7677
23594SOL    HW277644   5.286   9.459   8.408  1.1178  0.1165 -1.1532
23595SOL     OW77645   4.633   7.834   3.669 -0.2890  0.4377 -0.3218
23595SOL    HW177646   4.620   7.739   3.670  1.7073  0.0974  1.4290
23595SOL    HW277647   4.620   7.859   3.578 -1.0594 -1.4770 -0.7999
23596SOL     OW77648   4.941   6.036   1.138 -0.2738 -0.3272 -0.1169
23596SOL    HW177649   4.979   5.948   1.145 -1.5600 -1.0078 -1.1753
23596SOL    HW277650   4.867   6.025   1.078 -3.0849  0.5424  2.8512
23597SOL     OW77651   5.765   6.811   0.433  0.4308 -0.0046  0.1606
23597SOL    HW177652   5.798   6.763   0.356  1.2992 -0.4907  0.8188
23597SOL    HW277653   5.693   6.758   0.465  0.5223 -0.1695  0.0947
23598SOL     OW77654  11.142   3.681  10.404  0.1006 -0.0391  1.1828
23598SOL    HW177655  11.182   3.608  10.358  2.9107  0.6452  2.3041
23598SOL    HW277656  11.153   3.660  10.497  0.1646  1.3543  1.5216
23599SOL     OW77657   1.171   8.508  10.874  0.3595 -0.0031 -0.4815
23599SOL    HW177658   1.211   8.431  10.915 -1.5363  0.2916  2.1420
23599SOL    HW277659   1.230   8.580  10.897  0.2418 -0.1289  0.2377
23600SOL     OW77660   1.466   1.909   1.801  0.4778 -0.3640 -0.1944
23600SOL    HW177661   1.531   1.838   1.805  1.0720  0.2222  2.1759
23600SOL    HW277662   1.399   1.884   1.865  1.1822  1.6096  1.4091
23601SOL     OW77663   8.793   6.983   6.580 -0.3294  0.0645  0.3491
23601SOL    HW177664   8.706   6.991   6.541 -0.2524  0.3424  0.2314
23601SOL    HW277665   8.778   6.990   6.674 -0.6243 -1.5230  0.4371
23602SOL     OW77666   6.677   2.275   1.607  0.1922  0.2622 -0.0948
23602SOL    HW177667   6.736   2.257   1.680  2.0165 -0.8038 -1.7359
23602SOL    HW277668   6.596   2.228   1.628  1.0609 -0.9047  0.7513
23603SOL     OW77669   2.959   1.001  10.887  0.0372  0.1610 -0.1375
23603SOL    HW177670   2.906   0.922  10.895  1.7487 -0.8828  1.7688
23603SOL    HW277671   3.049   0.969  10.880  0.5632  1.8985 -2.2810
23604SOL     OW77672   5.457   0.594   1.441  0.0323 -0.9848  0.2787
23604SOL    HW177673   5.486   0.555   1.523  0.5067 -0.1481  0.5197
23604SOL    HW277674   5.538   0.621   1.397 -0.2988  0.1519  0.3411
23605SOL     OW77675  11.846   4.212   7.840  0.1494  0.1073  0.2913
23605SOL    HW177676  11.818   4.133   7.795 -1.2430  0.3583  0.6665
23605SOL    HW277677  11.858   4.277   7.770 -0.7376  0.1356  0.1607
23606SOL     OW77678  12.151   5.912   5.839 -0.0321  0.2705  0.3218
23606SOL    HW177679  12.122   5.872   5.757  0.2102 -0.1321  0.4270
23606SOL    HW277680  12.206   5.985   5.812  1.8682 -1.1868  0.0993
23607SOL     OW77681   6.442   2.673   8.232 -0.0871 -0.0359  0.5422
23607SOL    HW177682   6.358   2.643   8.268 -0.4619  0.7376  0.3383
23607SOL    HW277683   6.448   2.764   8.259 -0.3215  0.5395 -1.2364
23608SOL     OW77684   9.026   6.411   4.067 -0.3319 -0.0997  0.3044
23608SOL    HW177685   8.957   6.350   4.042  1.0372 -1.4860 -0.2052
23608SOL    HW277686   9.071   6.369   4.140  1.4530 -0.3773 -0.8886
23609SOL     OW77687   5.065  12.354   1.422  0.2627 -0.3956  0.3834
23609SOL    HW177688   5.087  12.431   1.475  2.1659 -0.8725  0.3873
23609SOL    HW277689   5.128  12.356   1.350 -1.4088 -0.5062 -1.1355
23610SOL     OW77690   0.300   1.930   2.766 -0.1711  0.3516 -0.0606
23610SOL    HW177691   0.239   1.856   2.756  1.1887 -0.5737 -2.2590
23610SOL    HW277692   0.243   2.007   2.768 -1.5227 -0.6086  0.1602
23611SOL     OW77693   4.652   8.268   9.912 -0.0962  0.1523 -0.2461
23611SOL    HW177694   4.611   8.275   9.998  0.2710 -0.2101 -0.0370
23611SOL    HW277695   4.671   8.359   9.887 -1.6521  0.3881 -0.6712
23612SOL     OW77696  11.418   1.269  10.522 -0.6173 -0.0036  0.2349
23612SOL    HW177697  11.433   1.251  10.615  1.3126  0.1571 -0.0124
23612SOL    HW277698  11.455   1.357  10.509 -2.6284  0.8230 -0.3041
23613SOL     OW77699   9.025   3.591  11.338  0.4911  0.1211 -0.4931
23613SOL    HW177700   9.011   3.612  11.431  1.5327  0.2402 -0.3395
23613SOL    HW277701   8.975   3.511  11.324  0.4514  0.0090  0.2267
23614SOL     OW77702   3.377   1.377   1.351 -0.1119  0.2883 -0.0058
23614SOL    HW177703   3.288   1.365   1.318 -0.3172 -0.1360  0.6728
23614SOL    HW277704   3.429   1.311   1.304  0.1357  1.4195 -1.4022
23615SOL     OW77705   5.716   2.236   4.378  0.3139  0.3408 -0.3561
23615SOL    HW177706   5.756   2.282   4.303  0.9330  1.3349  0.5426
23615SOL    HW277707   5.623   2.259   4.373  0.2697  0.0324 -1.0722
23616SOL     OW77708   6.993   1.853   6.109 -0.1803  0.0487  0.7805
23616SOL    HW177709   6.904   1.831   6.081 -0.3303  0.7283  0.6832
23616SOL    HW277710   6.991   1.844   6.204 -0.1782 -0.5373  0.7249
23617SOL     OW77711   7.768   0.632   1.110 -0.1745  0.1651  0.3135
23617SOL    HW177712   7.848   0.681   1.131  1.4219 -0.8304 -2.8422
23617SOL    HW277713   7.795   0.540   1.119 -1.1057 -0.1814 -0.3929
23618SOL     OW77714   0.342   1.639   2.602  0.1216 -0.3172 -0.3008
23618SOL    HW177715   0.326   1.549   2.572 -1.4432 -0.7904  1.6753
23618SOL    HW277716   0.315   1.694   2.528  0.0381 -1.4563 -1.1453
23619SOL     OW77717   1.268   9.596   5.985  0.8362  0.2798 -0.5226
23619SOL    HW177718   1.266   9.513   6.032  0.6413  0.2582 -0.5686
23619SOL    HW277719   1.203   9.586   5.916  0.5539  0.6009 -0.3070
23620SOL     OW77720   0.252   6.381   4.604 -0.0711  0.2950  0.0727
23620SOL    HW177721   0.223   6.290   4.604  1.2078 -0.1286  0.3330
23620SOL    HW277722   0.237   6.410   4.514  1.1071 -0.7137 -0.4687
23621SOL     OW77723   2.099   2.753   2.762  0.1785  0.7705  0.7586
23621SOL    HW177724   2.172   2.804   2.798  0.6144  0.1400  0.7712
23621SOL    HW277725   2.036   2.819   2.734  1.3227  1.3885 -0.4928
23622SOL     OW77726   7.410   7.528   9.048  0.3752  0.0731 -0.1656
23622SOL    HW177727   7.419   7.444   9.003 -0.4340 -0.2937  0.3402
23622SOL    HW277728   7.350   7.579   8.993  0.8462  0.3278 -0.4602
23623SOL     OW77729   8.182   6.236   8.372 -0.3600 -0.9226 -0.3198
23623SOL    HW177730   8.237   6.199   8.303 -2.6730  0.3854 -3.1087
23623SOL    HW277731   8.204   6.329   8.373  0.1671 -1.0423  1.2957
23624SOL     OW77732   9.073   3.432   8.211  0.6232  0.0390  0.3383
23624SOL    HW177733   9.096   3.343   8.188 -1.9712 -0.7106  0.2827
23624SOL    HW277734   9.003   3.422   8.277 -0.6046  1.9699 -0.5759
23625SOL     OW77735   2.620   2.413   8.980 -0.2713 -0.3054 -0.2997
23625SOL    HW177736   2.526   2.434   8.982 -0.0637  1.4766 -3.4568
23625SOL    HW277737   2.623   2.319   8.995 -2.9045 -0.9832 -2.9003
23626SOL     OW77738   5.236   5.698   3.660 -0.3397 -0.1840  0.0197
23626SOL    HW177739   5.170   5.731   3.721 -0.4938 -0.6708  0.1263
23626SOL    HW277740   5.196   5.619   3.623 -1.3255  1.3950 -2.6091
23627SOL     OW77741   8.091   3.440   6.055  0.2150 -0.1491 -0.1894
23627SOL    HW177742   8.063   3.511   5.998  0.0765 -0.4362 -0.4790
23627SOL    HW277743   8.092   3.479   6.143  0.5856  0.3373 -0.4020
23628SOL     OW77744   4.403   6.904   6.080 -0.5301  0.7167  0.4445
23628SOL    HW177745   4.401   6.907   5.984 -0.1272  0.1922  0.4150
23628SOL    HW277746   4.462   6.976   6.105  0.4268  0.0182  0.2366
23629SOL     OW77747   4.645   1.640   7.751 -0.1092  0.5296 -0.2698
23629SOL    HW177748   4.614   1.549   7.755  0.4189  0.2611 -1.7269
23629SOL    HW277749   4.679   1.650   7.662  1.0322  1.7720  0.2634
23630SOL     OW77750   0.085   8.410   9.446  0.4220 -0.2148  0.3791
23630SOL    HW177751   0.027   8.382   9.375 -0.1260 -0.7709  1.0278
23630SOL    HW277752   0.172   8.382   9.418 -0.0309 -2.1722  0.7476
23631SOL     OW77753   0.127  11.267   5.603 -0.0549 -0.2272 -0.4915
23631SOL    HW177754   0.091  11.265   5.692 -1.4902 -0.8337 -1.0665
23631SOL    HW277755   0.051  11.274   5.546  0.8582  0.3069 -1.6923
23632SOL     OW77756   9.050   0.384   6.604  0.2039 -0.0409 -0.1867
23632SOL    HW177757   9.043   0.375   6.699  1.8728  1.4580  0.1216
23632SOL    HW277758   9.038   0.295   6.571  0.0873 -0.6668  1.4482
23633SOL     OW77759   0.360   5.726   5.423 -0.1303  0.2812 -0.0662
23633SOL    HW177760   0.386   5.812   5.457 -1.2830  0.2378  1.0253
23633SOL    HW277761   0.330   5.678   5.500  1.2516 -1.4253 -0.5259
23634SOL     OW77762   9.808  10.898   7.690 -0.5786  0.1695  0.6942
23634SOL    HW177763   9.890  10.848   7.697 -1.5523 -1.6955 -0.2141
23634SOL    HW277764   9.788  10.925   7.779  1.7117  1.9148  0.7652
23635SOL     OW77765   0.071   0.712  10.456  0.8304  0.4965  0.4469
23635SOL    HW177766   0.073   0.796  10.411 -1.1465 -0.6115 -1.9213
23635SOL    HW277767   0.129   0.656  10.404  0.3088 -0.2151  0.6258
23636SOL     OW77768   9.711   2.681   4.434 -0.0721  0.0227 -0.1647
23636SOL    HW177769   9.802   2.691   4.407  0.5509 -2.2542  0.8860
23636SOL    HW277770   9.665   2.653   4.355  0.3238  0.2598 -0.4824
23637SOL     OW77771   5.063   9.539   5.243 -0.7430  0.2366 -0.4081
23637SOL    HW177772   5.060   9.505   5.153  0.1685 -3.2343  0.7084
23637SOL    HW277773   5.154   9.569   5.253 -0.4783 -0.5829 -0.2853
23638SOL     OW77774   9.955   6.940  11.863  0.5527 -0.1920  0.0217
23638SOL    HW177775   9.883   6.993  11.898  1.1604  1.1780 -0.7287
23638SOL    HW277776  10.011   6.923  11.939  0.2702  0.1321  0.3072
23639SOL     OW77777  11.561   2.575   8.249  0.3786 -0.1769 -0.2919
23639SOL    HW177778  11.594   2.495   8.208 -0.9123 -0.4912 -0.7686
23639SOL    HW277779  11.639   2.617   8.286  0.8180 -3.2891  2.9428
23640SOL     OW77780   6.749   7.622   2.526  0.4542 -0.0561 -0.7040
23640SOL    HW177781   6.754   7.691   2.592 -0.3529  0.6765 -1.3759
23640SOL    HW277782   6.823   7.640   2.467  2.1378 -1.6311  0.7919
23641SOL     OW77783  10.652   2.711   3.119 -0.1098 -0.0132 -0.3839
23641SOL    HW177784  10.616   2.741   3.036 -3.1529  0.5458  0.9797
23641SOL    HW277785  10.637   2.616   3.119 -0.0881 -0.0155 -0.4989
23642SOL     OW77786   9.448   3.281   7.742 -0.1102  0.1029 -0.0777
23642SOL    HW177787   9.491   3.358   7.780 -1.7162  0.2087  1.6792
23642SOL    HW277788   9.480   3.207   7.794 -1.5217  0.1177  0.8824
23643SOL     OW77789   7.292   5.159   5.636 -0.0287 -0.2644  0.9717
23643SOL    HW177790   7.306   5.106   5.714  0.9022  0.0885  1.0539
23643SOL    HW277791   7.378   5.167   5.596 -0.5988 -0.9417 -0.4391
23644SOL     OW77792   9.971   4.726  10.710  0.1295 -0.1685  0.1476
23644SOL    HW177793  10.045   4.754  10.655 -1.5401  4.1718 -0.2787
23644SOL    HW277794   9.912   4.682  10.649 -0.5299  2.3070 -1.1383
23645SOL     OW77795   3.884   2.716   3.790  0.3501  0.3960  0.0228
23645SOL    HW177796   3.830   2.744   3.716  0.2158  1.5290  0.5169
23645SOL    HW277797   3.953   2.664   3.751 -1.4093 -1.6273 -0.5707
23646SOL     OW77798  11.645   7.772   4.640 -0.1001  0.5665  0.0531
23646SOL    HW177799  11.733   7.760   4.674 -0.4796 -1.0243  0.5638
23646SOL    HW277800  11.656   7.781   4.546  0.6472  1.0529  0.1773
23647SOL     OW77801  10.472   4.248   6.205  0.0262  0.2551  0.0807
23647SOL    HW177802  10.420   4.169   6.193 -0.9419  1.1228 -1.9900
23647SOL    HW277803  10.563   4.220   6.192  0.1271 -1.1421  3.0089
23648SOL     OW77804  11.529   2.035   5.272  0.1394 -0.2121  0.3157
23648SOL    HW177805  11.573   2.052   5.189  1.6358  0.2280  1.1766
23648SOL    HW277806  11.436   2.037   5.250  0.5222 -0.9884 -1.5096
23649SOL     OW77807   2.382   3.255   1.820 -0.0592 -0.1717 -0.8140
23649SOL    HW177808   2.364   3.349   1.812 -1.6939 -0.2898  0.7147
23649SOL    HW277809   2.307   3.213   1.777 -1.3910 -0.7078  1.7966
23650SOL     OW77810  10.920  10.455   6.656  0.4300 -0.4600  0.2756
23650SOL    HW177811  10.852  10.484   6.716 -0.6544 -0.5838 -0.8473
23650SOL    HW277812  10.948  10.536   6.612  0.4174 -0.5290  0.1424
23651SOL     OW77813   2.507  11.392   6.217  0.2334 -0.3192  0.2727
23651SOL    HW177814   2.459  11.335   6.157 -2.6049  2.7889 -0.7478
23651SOL    HW277815   2.596  11.395   6.181 -1.0180  0.3817 -3.1764
23652SOL     OW77816   2.537   0.906   8.845 -0.2052 -0.0568  0.4401
23652SOL    HW177817   2.528   0.994   8.881  0.0141  1.0678 -2.0233
23652SOL    HW277818   2.631   0.895   8.833 -0.2712 -0.4335  0.2808
23653SOL     OW77819   4.394   9.026   1.399  0.5113 -0.0268  0.5610
23653SOL    HW177820   4.414   9.109   1.357 -1.5820  0.5309  0.5538
23653SOL    HW277821   4.357   8.972   1.330  1.1759 -0.7330  0.7332
23654SOL     OW77822   1.825   6.460   1.813  0.3296  0.2614  0.1628
23654SOL    HW177823   1.846   6.393   1.878  1.1674 -0.8123 -1.1666
23654SOL    HW277824   1.731   6.475   1.822  0.3454 -0.2486  1.2570
23655SOL     OW77825   5.670  10.935   6.085 -0.0065 -0.3388  1.0523
23655SOL    HW177826   5.747  10.933   6.142  1.0260  2.2536 -0.1037
23655SOL    HW277827   5.702  10.904   6.001  0.1714  1.9366  0.2226
23656SOL     OW77828   0.441   2.834   5.680  0.0697  0.3953  0.6384
23656SOL    HW177829   0.379   2.825   5.608 -0.1347 -1.0718  0.9777
23656SOL    HW277830   0.506   2.766   5.665 -0.4354 -0.4978  2.2776
23657SOL     OW77831  12.192   7.784   3.863  0.3021  0.3962 -0.4618
23657SOL    HW177832  12.113   7.838   3.857  0.1958  0.3387  0.3103
23657SOL    HW277833  12.164   7.705   3.910  0.4558 -0.3533 -1.6015
23658SOL     OW77834   4.452  11.505   9.278 -0.0504 -0.4346 -0.2642
23658SOL    HW177835   4.463  11.459   9.195  0.6925 -1.2434  0.2535
23658SOL    HW277836   4.498  11.588   9.267 -0.3944 -0.3203 -0.8260
23659SOL     OW77837   7.529   8.724   5.492 -0.0173  0.1992  0.5750
23659SOL    HW177838   7.489   8.810   5.477 -1.0156 -0.3324  0.0282
23659SOL    HW277839   7.618   8.743   5.521  0.4666  1.3910 -1.5164
23660SOL     OW77840   1.382   8.937   3.932  0.1573  0.1434  0.4077
23660SOL    HW177841   1.474   8.913   3.941 -0.0116 -0.1603  1.4833
23660SOL    HW277842   1.343   8.914   4.016 -1.1111 -0.6390 -0.3704
23661SOL     OW77843   9.528   9.151   0.176  0.6963  0.0699  0.2725
23661SOL    HW177844   9.576   9.126   0.255  1.3594 -1.8969 -0.6595
23661SOL    HW277845   9.437   9.127   0.194  0.7684  0.0428  0.6084
23662SOL     OW77846   6.880   8.151   1.825  0.0877  0.2131  0.1200
23662SOL    HW177847   6.966   8.174   1.860 -0.6361  1.3438  1.2489
23662SOL    HW277848   6.853   8.074   1.877 -0.8639  1.7197  1.9919
23663SOL     OW77849   8.027   0.019   6.712  0.2409  0.6146 -0.9482
23663SOL    HW177850   7.962  -0.043   6.678  0.1238  0.2533 -0.0723
23663SOL    HW277851   8.086  -0.034   6.766  0.6355  1.1248 -0.8723
23664SOL     OW77852  11.735  10.951   0.795  0.0495 -0.3546  0.0839
23664SOL    HW177853  11.763  11.009   0.724 -0.1226 -0.2724  0.0841
23664SOL    HW277854  11.810  10.892   0.808  0.0675 -0.3955 -0.1899
23665SOL     OW77855   0.872   8.175   2.527 -0.0639  0.2140 -0.5694
23665SOL    HW177856   0.926   8.240   2.482  0.8389 -0.9756 -1.2682
23665SOL    HW277857   0.897   8.182   2.619  1.9626 -0.8848 -0.9829
23666SOL     OW77858  11.267   1.461   3.556  0.1365 -0.2568 -0.1575
23666SOL    HW177859  11.290   1.377   3.517 -1.0882 -0.0477 -1.4027
23666SOL    HW277860  11.348   1.492   3.597  0.8636 -1.5578 -0.5629
23667SOL     OW77861   1.381   6.485   7.223  0.4039  0.0696 -0.1300
23667SOL    HW177862   1.428   6.486   7.306 -0.3000  1.7758  0.3081
23667SOL    HW277863   1.446   6.511   7.158  0.3706  1.3901  0.3208
23668SOL     OW77864   5.280  11.935   4.409  0.2137  0.0225  0.4740
23668SOL    HW177865   5.325  11.878   4.347  0.3368 -0.6163  1.1320
23668SOL    HW277866   5.256  11.877   4.482  2.6571  1.2366  2.4003
23669SOL     OW77867   3.969   0.923   8.845 -0.3107  0.0834 -0.1170
23669SOL    HW177868   3.923   0.975   8.911 -0.7846  0.4054 -0.6963
23669SOL    HW277869   3.947   0.832   8.867 -1.2343  0.2316 -0.3828
23670SOL     OW77870   3.027  10.216   4.857 -0.2589  0.3934 -0.1012
23670SOL    HW177871   3.065  10.255   4.778 -0.3291 -1.1830 -0.9468
23670SOL    HW277872   3.086  10.145   4.880  0.6008  1.7127  2.1951
23671SOL     OW77873   3.379   4.569   4.095 -0.2086  0.0287  0.3323
23671SOL    HW177874   3.467   4.573   4.133  0.6156 -0.5203 -1.4004
23671SOL    HW277875   3.389   4.604   4.007 -1.8305  0.3421  0.2364
23672SOL     OW77876  11.579   7.948   9.765  0.2987  0.0732  0.2364
23672SOL    HW177877  11.650   7.978   9.708  1.0401  0.4390  1.3139
23672SOL    HW277878  11.543   7.871   9.720  0.7061  0.4846 -0.8213
23673SOL     OW77879   7.882   1.563   0.333 -0.1092 -0.1050  0.1261
23673SOL    HW177880   7.888   1.652   0.366  0.1014 -0.5251  1.2333
23673SOL    HW277881   7.868   1.509   0.410 -3.7273 -0.7211 -0.7844
23674SOL     OW77882   9.536  10.735   0.329  0.0100 -0.3709  0.6815
23674SOL    HW177883   9.610  10.753   0.387  0.5336 -2.9173  0.9191
23674SOL    HW277884   9.572  10.747   0.241  0.6196 -1.1206  0.8100
23675SOL     OW77885  11.524   0.037   8.291 -0.2709  0.1450 -0.0298
23675SOL    HW177886  11.581   0.012   8.218 -0.8262 -0.6421 -0.2103
23675SOL    HW277887  11.581   0.034   8.368 -0.4277 -2.4446  0.0814
23676SOL     OW77888   3.271   0.521  10.468  0.1392 -0.5622 -0.1136
23676SOL    HW177889   3.220   0.504  10.389  0.6204  0.1597 -0.5863
23676SOL    HW277890   3.339   0.583  10.440  0.7182 -0.8170  0.7134
23677SOL     OW77891   6.400   8.278   2.134 -0.0944  0.3607 -0.2681
23677SOL    HW177892   6.415   8.208   2.197 -0.0541  0.9722  0.4072
23677SOL    HW277893   6.432   8.243   2.051  0.1043 -0.3442  0.1018
23678SOL     OW77894   2.198   9.343   2.565 -0.8032 -0.1837  0.2324
23678SOL    HW177895   2.245   9.405   2.510 -2.8932 -0.2917 -1.8646
23678SOL    HW277896   2.206   9.379   2.653  0.3137  1.5935 -0.5273
23679SOL     OW77897   9.955  11.307   9.935 -0.0799 -0.1796  0.0383
23679SOL    HW177898   9.971  11.296   9.842  0.2514 -0.8258  0.1689
23679SOL    HW277899   9.881  11.368   9.940 -2.5272 -2.9094 -0.7468
23680SOL     OW77900   1.509   8.905   5.408  0.5302  0.0598 -0.1022
23680SOL    HW177901   1.487   8.822   5.450 -0.3411  0.6664  0.6836
23680SOL    HW277902   1.566   8.881   5.335 -0.5758 -1.3288 -0.5503
23681SOL     OW77903   7.256   3.548   8.996  0.0175  0.0814  0.3243
23681SOL    HW177904   7.226   3.598   9.071 -0.8544 -0.1045  0.1209
23681SOL    HW277905   7.340   3.587   8.972 -0.1034  0.6879  0.8701
23682SOL     OW77906   6.362   1.101   7.371 -0.2953  0.3351  0.2666
23682SOL    HW177907   6.389   1.165   7.305  0.4407  0.1223  0.3563
23682SOL    HW277908   6.343   1.154   7.449  0.6165  0.4340  0.4364
23683SOL     OW77909   4.760   8.671   8.153 -0.1675 -0.2598  0.1346
23683SOL    HW177910   4.694   8.736   8.179 -1.0301 -1.0367 -0.0345
23683SOL    HW277911   4.746   8.598   8.215 -0.2317 -0.8911 -0.6107
23684SOL     OW77912  10.693   4.490   3.934  0.4708 -0.1810 -0.2008
23684SOL    HW177913  10.746   4.550   3.881  0.8055 -0.6069 -0.3596
23684SOL    HW277914  10.712   4.403   3.897  0.6810 -0.4814  0.5946
23685SOL     OW77915   0.888  11.401   3.981 -0.1468 -0.5948 -0.1669
23685SOL    HW177916   0.937  11.322   3.958 -0.4181 -0.2804 -2.0470
23685SOL    HW277917   0.806  11.393   3.933 -0.3645  0.6153 -0.0338
23686SOL     OW77918   2.060   3.222   4.158 -0.1244 -0.1807 -0.0638
23686SOL    HW177919   1.981   3.191   4.202  0.7437 -1.6574  0.5302
23686SOL    HW277920   2.031   3.247   4.071 -1.4610  0.5197  0.5656
23687SOL     OW77921   7.741   8.958   1.790 -0.2624  0.4148 -0.1834
23687SOL    HW177922   7.727   9.051   1.769 -0.8127  0.5633  0.8066
23687SOL    HW277923   7.669   8.935   1.849  1.7402  0.2868  2.3924
23688SOL     OW77924  11.450   1.854   6.782 -0.0189 -0.0382 -0.5449
23688SOL    HW177925  11.362   1.879   6.752  0.1604  1.4773  0.0787
23688SOL    HW277926  11.487   1.806   6.708 -1.2947 -0.5591 -0.8891
23689SOL     OW77927   2.163  11.379   0.333 -0.6160 -0.3433 -0.3255
23689SOL    HW177928   2.179  11.408   0.243  0.8648  1.2632  0.4171
23689SOL    HW277929   2.237  11.412   0.383 -1.6326 -0.8140  1.5951
23690SOL     OW77930   5.321   9.366   7.103 -0.9042 -0.0483  0.0957
23690SOL    HW177931   5.269   9.446   7.105 -0.9187 -0.0408 -0.5142
23690SOL    HW277932   5.389   9.382   7.038 -0.2315 -0.1232  0.7637
23691SOL     OW77933  11.645  12.456   9.937 -0.1011 -0.2026 -0.0354
23691SOL    HW177934  11.693  12.502   9.867 -1.6079  1.3916 -0.0971
23691SOL    HW277935  11.614  12.376   9.895  1.0996 -0.4706 -0.4574
23692SOL     OW77936   4.331  12.273   4.837 -0.0948  0.7279  0.2053
23692SOL    HW177937   4.320  12.317   4.922 -1.3264  2.0674 -0.6077
23692SOL    HW277938   4.247  12.284   4.794  0.4737 -0.0717 -1.1496
23693SOL     OW77939   3.732   9.227   3.938 -0.1348  0.1857 -0.5816
23693SOL    HW177940   3.655   9.248   3.992  0.2897 -0.0197  0.1129
23693SOL    HW277941   3.807   9.248   3.994  0.3415  1.0822 -1.5162
23694SOL     OW77942   6.126  10.632   3.312  0.5503 -0.1305 -0.2175
23694SOL    HW177943   6.149  10.641   3.404  0.6534 -2.3085  0.0361
23694SOL    HW277944   6.210  10.629   3.266  0.5215  0.0654 -0.2857
23695SOL     OW77945   9.278  11.868   5.865 -0.1394  0.3336  0.3612
23695SOL    HW177946   9.222  11.868   5.942 -0.3005  0.3740  0.2452
23695SOL    HW277947   9.337  11.793   5.878  0.0937  0.5780  0.7081
23696SOL     OW77948   3.009   8.112  10.083 -0.1947  0.0740 -0.3794
23696SOL    HW177949   2.928   8.084  10.126  0.5188  0.2557  1.1500
23696SOL    HW277950   2.982   8.137   9.995 -1.9622  1.0616  0.4022
23697SOL     OW77951   3.706   1.332   2.810  0.0924 -0.2777 -0.3335
23697SOL    HW177952   3.613   1.342   2.828 -0.1113  1.6192 -2.0345
23697SOL    HW277953   3.719   1.376   2.726  2.4271 -1.0081 -0.4299
23698SOL     OW77954   8.782   1.554   5.965 -0.2492  0.1340  0.0372
23698SOL    HW177955   8.730   1.476   5.946 -0.8823  0.3343  0.9173
23698SOL    HW277956   8.858   1.546   5.907 -1.5191  0.1427 -1.7089
23699SOL     OW77957   1.792   8.393  11.422 -0.0450  0.1984 -0.7364
23699SOL    HW177958   1.834   8.348  11.348 -1.7689 -2.1254 -0.4177
23699SOL    HW277959   1.803   8.334  11.496 -1.3477  0.8599  0.0236
23700SOL     OW77960  10.656  11.407   7.086  0.2678  0.1245 -0.0651
23700SOL    HW177961  10.614  11.485   7.122 -1.1479 -0.4164 -0.4830
23700SOL    HW277962  10.599  11.334   7.113  0.6310 -0.5747 -1.1224
23701SOL     OW77963  11.921   1.941   1.384  0.4693 -0.1896 -0.2631
23701SOL    HW177964  11.826   1.940   1.388  0.3676  0.4243 -1.8043
23701SOL    HW277965  11.945   2.032   1.400  0.8866 -0.5114  1.0960
23702SOL     OW77966   6.034   5.127   7.375 -0.0643 -0.4618  0.4285
23702SOL    HW177967   6.127   5.136   7.352  0.1639 -0.2555  1.4146
23702SOL    HW277968   5.989   5.185   7.313  0.5363  0.0760  0.4812
23703SOL     OW77969   8.925   2.593  12.198 -0.4040 -0.9158  0.6588
23703SOL    HW177970   9.011   2.629  12.175 -1.1611 -0.7129 -2.1504
23703SOL    HW277971   8.864   2.665  12.182 -1.2555 -1.4436  1.4180
23704SOL     OW77972  11.393  11.490  10.915  0.5957  0.3426 -0.3401
23704SOL    HW177973  11.440  11.429  10.858 -0.3909 -0.0590 -0.7515
23704SOL    HW277974  11.425  11.470  11.003 -0.5092 -1.5952 -0.3117
23705SOL     OW77975   7.883  11.798   6.610  0.1281  0.1216 -0.1097
23705SOL    HW177976   7.970  11.775   6.644 -0.2467  1.3569  1.8197
23705SOL    HW277977   7.886  11.893   6.598 -0.9172  0.1638 -0.1114
23706SOL     OW77978  12.223  10.920   3.712 -0.6650 -0.6577 -0.3267
23706SOL    HW177979  12.236  10.924   3.617  0.6482 -1.3466 -0.2005
23706SOL    HW277980  12.155  10.853   3.724 -0.0075 -1.4096 -0.7305
23707SOL     OW77981  12.326   0.391   8.129  0.1386  0.0112 -0.7647
23707SOL    HW177982  12.277   0.338   8.066  0.9864  0.7467 -2.0965
23707SOL    HW277983  12.290   0.367   8.214 -0.2122 -1.9291 -1.4090
23708SOL     OW77984  10.690  10.243   5.211  0.1160 -0.3010  0.1932
23708SOL    HW177985  10.640  10.228   5.131 -1.1815 -1.3217  1.1445
23708SOL    HW277986  10.635  10.302   5.262 -0.2933 -1.6499  1.3728
23709SOL     OW77987   1.126   5.352   9.326 -0.1195 -0.1554  0.2129
23709SOL    HW177988   1.158   5.264   9.308 -3.2436 -2.2126  3.3727
23709SOL    HW277989   1.069   5.373   9.251  1.5060 -0.2512 -1.0942
23710SOL     OW77990   7.136  10.310   3.747 -0.5118  0.3352 -0.0859
23710SOL    HW177991   7.055  10.362   3.741 -0.4972  0.4417  0.5572
23710SOL    HW277992   7.165  10.300   3.656 -1.2789  0.2479 -0.3258
23711SOL     OW77993   6.454   2.797  11.369  0.9747  0.3458 -0.3181
23711SOL    HW177994   6.362   2.782  11.389  1.2113 -0.5758  0.1293
23711SOL    HW277995   6.501   2.732  11.421  1.8949  0.9319 -0.3876
23712SOL     OW77996  10.089   5.704   1.640  0.4495  0.5389  0.0127
23712SOL    HW177997  10.083   5.682   1.733  1.0952 -0.3599 -0.1403
23712SOL    HW277998  10.174   5.668   1.613 -0.3655 -0.5300 -1.2475
23713SOL     OW77999   4.640   6.349  11.015  0.2076  0.0725 -0.3925
23713SOL    HW178000   4.628   6.405  11.092 -0.1045 -0.4686 -0.0360
23713SOL    HW278001   4.734   6.333  11.012  0.0139 -1.9037  1.3659
23714SOL     OW78002   6.307   3.312   8.510  0.3658  0.1663 -0.5176
23714SOL    HW178003   6.308   3.231   8.562 -1.3275  0.4298 -0.0024
23714SOL    HW278004   6.276   3.284   8.423  1.2834  0.0392 -0.8160
23715SOL     OW78005   1.287   8.895  11.223  0.0007 -0.2307  1.2137
23715SOL    HW178006   1.276   8.969  11.282  0.0184  2.8387 -2.2321
23715SOL    HW278007   1.381   8.878  11.222  0.8238  3.2465 -1.4742
23716SOL     OW78008   9.190   9.379   8.546 -0.1733  0.8264  0.3652
23716SOL    HW178009   9.099   9.407   8.555 -0.9119  0.1574 -3.3732
23716SOL    HW278010   9.189   9.287   8.572 -0.7168  0.7031 -0.0461
23717SOL     OW78011   3.736   7.762   3.258  0.4964 -0.5440 -0.5906
23717SOL    HW178012   3.777   7.809   3.185  0.6595 -1.6602 -1.2382
23717SOL    HW278013   3.705   7.831   3.316  1.0822  0.3586 -1.3197
23718SOL     OW78014  10.031  10.065  10.447 -0.7645 -0.3905 -0.1418
23718SOL    HW178015  10.011  10.063  10.353  0.9425 -0.9639 -0.5269
23718SOL    HW278016  10.124  10.084  10.452 -1.2250  1.9448  1.5472
23719SOL     OW78017   8.768   8.598   4.325  0.2730 -0.2243 -0.3093
23719SOL    HW178018   8.862   8.618   4.330  0.3133 -0.6604  1.2501
23719SOL    HW278019   8.742   8.586   4.417 -1.0052 -1.4709 -0.8115
23720SOL     OW78020  11.981   8.752   2.424 -0.1158 -0.7975 -0.3157
23720SOL    HW178021  12.004   8.751   2.517 -2.4550 -2.4055  0.3590
23720SOL    HW278022  11.952   8.841   2.407  1.7697 -0.0734  0.0436
23721SOL     OW78023   7.079   1.913   5.630 -0.0120 -0.3014  0.2871
23721SOL    HW178024   6.995   1.950   5.658 -0.2520 -0.8778  0.3509
23721SOL    HW278025   7.075   1.913   5.535 -1.0449 -2.4090  0.2828
23722SOL     OW78026   5.205   2.910   9.220  0.1352  0.4896 -0.2386
23722SOL    HW178027   5.260   2.945   9.150 -0.7802  2.7970  0.0995
23722SOL    HW278028   5.166   2.831   9.183  0.9837  0.7223 -1.7082
23723SOL     OW78029  12.023   1.900   3.074  0.5259 -0.6056  0.0271
23723SOL    HW178030  12.037   1.848   3.154  1.4084 -0.4956 -0.0455
23723SOL    HW278031  12.085   1.973   3.082 -0.7210  0.4716  0.1420
23724SOL     OW78032   6.490   7.408   5.064  0.1553 -0.5970  0.0906
23724SOL    HW178033   6.561   7.344   5.055 -1.0606 -1.9985 -0.0805
23724SOL    HW278034   6.413   7.363   5.027 -0.6290  1.2252 -0.6208
23725SOL     OW78035   0.014   6.108  11.538 -0.2810 -0.0224 -0.4518
23725SOL    HW178036   0.029   6.088  11.446 -0.1052  1.3231 -0.7397
23725SOL    HW278037   0.005   6.204  11.541 -2.8971 -0.2067  0.5633
23726SOL     OW78038   6.036   9.120   7.972 -0.0030 -0.1752 -0.3857
23726SOL    HW178039   6.096   9.048   7.955 -1.6689 -1.3718 -1.4870
23726SOL    HW278040   6.093   9.195   7.990  1.7840 -1.5014 -0.2808
23727SOL     OW78041   9.699   9.176  11.146 -0.2478 -0.0690  0.5282
23727SOL    HW178042   9.685   9.121  11.069  0.1178  0.8155 -0.1993
23727SOL    HW278043   9.613   9.215  11.163 -0.8241 -1.8436  1.8557
23728SOL     OW78044  10.588   7.110   8.180  0.1388  0.0844 -0.1123
23728SOL    HW178045  10.557   7.159   8.257 -0.4197 -0.7098  0.1914
23728SOL    HW278046  10.683   7.112   8.187  0.1156  0.7931  0.0980
23729SOL     OW78047  10.268   4.178  10.464 -0.0817 -0.1133  0.0359
23729SOL    HW178048  10.230   4.090  10.471 -0.5980  0.0478 -0.6421
23729SOL    HW278049  10.203   4.228  10.414 -0.3076  0.9530  1.3290
23730SOL     OW78050   0.690   9.824   6.798  0.2453 -0.2621  0.0148
23730SOL    HW178051   0.768   9.823   6.743  0.5280  1.0297  0.3426
23730SOL    HW278052   0.675   9.917   6.817 -0.2665 -0.6076  1.4958
23731SOL     OW78053   0.615   8.916   0.111 -0.2755 -0.2700  0.7278
23731SOL    HW178054   0.584   8.893   0.024 -0.3618  0.9019  0.4288
23731SOL    HW278055   0.671   8.993   0.098  1.3800 -1.2819  1.4750
23732SOL     OW78056   8.014   8.022   6.561 -0.1736  0.3912 -0.3089
23732SOL    HW178057   7.977   8.107   6.536 -2.2443 -0.1676  0.6281
23732SOL    HW278058   7.951   7.958   6.530  0.4580 -0.6945  0.5582
23733SOL     OW78059  12.275   3.964   1.599  0.5130 -0.1333 -0.1025
23733SOL    HW178060  12.284   3.873   1.625  0.0207  0.0294  0.6701
23733SOL    HW278061  12.308   4.014   1.674 -0.7824  0.3482  0.1692
23734SOL     OW78062   6.462  10.611   9.500 -0.3865 -0.4148  0.3180
23734SOL    HW178063   6.455  10.562   9.582  0.9248  0.3276  0.8998
23734SOL    HW278064   6.425  10.698   9.520  1.3676  0.2943  0.6099
23735SOL     OW78065   8.040   5.802   5.417 -0.1284 -0.2075  0.1043
23735SOL    HW178066   7.986   5.782   5.493 -2.0584 -0.6659 -1.2921
23735SOL    HW278067   8.067   5.717   5.383 -0.5717 -0.0997 -0.5571
23736SOL     OW78068   8.785   9.806  10.844 -0.6072  0.1814 -0.8456
23736SOL    HW178069   8.753   9.752  10.771  0.1680 -2.9902  0.9828
23736SOL    HW278070   8.879   9.814  10.829 -0.9614  2.9369 -2.1633
23737SOL     OW78071   0.424   7.285   7.319 -0.3047 -0.2150  0.3131
23737SOL    HW178072   0.499   7.249   7.270  0.2023  0.6924  0.4090
23737SOL    HW278073   0.401   7.365   7.272  1.1498  1.4980  2.3546
23738SOL     OW78074  12.430  11.891   8.305 -0.5207 -0.3713  0.2857
23738SOL    HW178075  12.349  11.888   8.356 -0.9055  1.1157 -0.1840
23738SOL    HW278076  12.401  11.882   8.214 -0.4409  2.3974 -0.0729
23739SOL     OW78077   5.022   0.660   9.668  0.1911 -0.7430 -0.0694
23739SOL    HW178078   5.103   0.678   9.716  0.4028 -0.2446 -0.5977
23739SOL    HW278079   4.954   0.707   9.716  0.1158 -1.5802  0.6727
23740SOL     OW78080   8.249  10.230   3.802  0.7922  0.0931  0.4036
23740SOL    HW178081   8.180  10.174   3.765  0.9045  0.2207 -0.0119
23740SOL    HW278082   8.205  10.311   3.824  0.7099 -0.0080  0.6110
23741SOL     OW78083   9.550   4.855  12.196 -0.1581  0.1345  0.0115
23741SOL    HW178084   9.614   4.882  12.130  2.9881 -0.2145  2.6315
23741SOL    HW278085   9.524   4.767  12.170 -0.5426  0.7196 -1.7341
23742SOL     OW78086   3.395   0.696   9.004 -0.0267 -0.1834  0.1601
23742SOL    HW178087   3.373   0.789   9.006  2.3215  0.4607 -0.2464
23742SOL    HW278088   3.330   0.655   9.061  0.2187  2.0293  2.2319
23743SOL     OW78089   9.432   9.397  11.698 -0.2743  0.3477  0.1906
23743SOL    HW178090   9.466   9.474  11.745  0.4104  0.3921 -0.3651
23743SOL    HW278091   9.510   9.346  11.677 -0.3511  1.1212 -2.3229
23744SOL     OW78092   1.600   5.212   3.587  0.3941  0.4322 -0.0922
23744SOL    HW178093   1.638   5.180   3.505 -0.0555 -0.5168  0.0603
23744SOL    HW278094   1.552   5.291   3.562 -0.7098 -0.4723 -0.9866
23745SOL     OW78095  11.487   3.252   0.346 -0.4916 -0.0378 -0.3008
23745SOL    HW178096  11.444   3.166   0.347 -0.6256  0.0109 -1.0020
23745SOL    HW278097  11.524   3.261   0.433 -1.0461 -0.5224 -0.0045
23746SOL     OW78098  11.683  11.845   5.901 -0.2976  0.1635 -0.1336
23746SOL    HW178099  11.708  11.833   5.809 -1.4611 -2.3288 -0.1881
23746SOL    HW278100  11.592  11.876   5.897 -0.4769 -0.3202  0.1788
23747SOL     OW78101   8.243   3.669  10.005  0.8974 -0.3107 -0.3627
23747SOL    HW178102   8.264   3.752   9.962  1.8300 -0.6619 -0.6277
23747SOL    HW278103   8.198   3.694  10.085  0.5436  0.4194 -0.7759
23748SOL     OW78104   9.830   8.041   8.742 -0.8022 -0.2977  0.4204
23748SOL    HW178105   9.887   8.054   8.817 -0.3044 -1.3657  0.2635
23748SOL    HW278106   9.891   8.027   8.669 -1.2718 -0.2290  0.0120
23749SOL     OW78107   3.243   6.890   8.269  0.0231  0.2537  0.3772
23749SOL    HW178108   3.213   6.897   8.179  0.2238 -1.1242  0.1770
23749SOL    HW278109   3.338   6.876   8.262  0.2470  1.4080  0.8680
23750SOL     OW78110   0.612   0.041   0.802 -0.1687  0.0198 -0.2925
23750SOL    HW178111   0.534  -0.003   0.835 -1.3862  1.5452 -0.9923
23750SOL    HW278112   0.604   0.036   0.707  0.1143  0.9493 -0.3761
23751SOL     OW78113   3.502   8.383   0.254 -0.9580  0.2385  0.2278
23751SOL    HW178114   3.414   8.359   0.226 -1.5002  1.1702  1.0575
23751SOL    HW278115   3.492   8.412   0.345  0.5294 -1.4260  0.9861
23752SOL     OW78116   5.037  10.766   9.867  0.2124 -0.2123 -0.6006
23752SOL    HW178117   5.079  10.681   9.849 -1.1546 -1.0049 -0.2027
23752SOL    HW278118   5.072  10.792   9.952 -0.0160 -0.8162 -0.3177
23753SOL     OW78119   6.914   1.273   9.676  0.2396 -0.0135 -0.0035
23753SOL    HW178120   6.997   1.268   9.629 -0.6446 -0.8331 -1.5180
23753SOL    HW278121   6.857   1.325   9.620 -1.1972 -1.9753 -0.4462
23754SOL     OW78122   0.865   9.063   9.143 -0.3396  0.1471 -0.5166
23754SOL    HW178123   0.836   9.008   9.070  0.0889  0.4810 -0.9484
23754SOL    HW278124   0.961   9.066   9.133 -0.4549  2.5178 -1.6486
23755SOL     OW78125   0.056   9.713  11.917  0.6321  0.3611 -0.2433
23755SOL    HW178126   0.064   9.736  11.824  0.4227 -0.4465 -0.4774
23755SOL    HW278127   0.072   9.794  11.964  2.0624  0.5117 -0.9425
23756SOL     OW78128  10.313  11.307   9.795 -0.4547  0.1060  0.0998
23756SOL    HW178129  10.324  11.380   9.856 -0.0974 -0.9465  1.3545
23756SOL    HW278130  10.221  11.310   9.770 -0.6127  0.5579  0.7092
23757SOL     OW78131  12.199  10.408  12.249 -0.4045  0.3669  0.1259
23757SOL    HW178132  12.263  10.337  12.241 -1.5647 -0.7524  0.5204
23757SOL    HW278133  12.248  10.487  12.226  0.8738 -0.5748 -0.4998
23758SOL     OW78134  10.909  10.092   8.268 -0.4275  0.8462 -0.3387
23758SOL    HW178135  10.887  10.019   8.326 -0.6522  0.9734 -0.2622
23758SOL    HW278136  10.863  10.167   8.306 -1.9108  0.6185 -1.5532
23759SOL     OW78137   1.308   4.037   0.710 -0.0882 -0.2488 -0.1408
23759SOL    HW178138   1.303   3.994   0.625  0.7156  1.1316 -0.9288
23759SOL    HW278139   1.220   4.028   0.747 -0.6169 -0.3569 -1.3818
23760SOL     OW78140   6.863  12.002   5.201  0.6616  0.1029  0.1415
23760SOL    HW178141   6.905  11.991   5.116  1.5105  0.7552  0.4660
23760SOL    HW278142   6.868  11.915   5.242 -3.6435 -1.5221 -2.1294
23761SOL     OW78143   5.684  11.871   4.231  0.2305  0.0094 -0.0310
23761SOL    HW178144   5.750  11.837   4.170  1.0917  2.5892 -0.6892
23761SOL    HW278145   5.718  11.956   4.258 -2.4375  1.0987  0.2447
23762SOL     OW78146   6.940  11.270   1.516 -0.3411 -0.2116 -0.4060
23762SOL    HW178147   6.898  11.295   1.599 -1.0936  0.3362 -0.9377
23762SOL    HW278148   6.972  11.181   1.531  2.1598  0.8739  1.4535
23763SOL     OW78149   8.445   7.742   0.110 -0.4581 -0.3910 -0.2641
23763SOL    HW178150   8.512   7.810   0.098  0.1168 -0.6150  1.3712
23763SOL    HW278151   8.365   7.780   0.072  0.7251 -0.4632 -3.0650
23764SOL     OW78152   8.267  11.181   1.258  0.0496  0.2502 -0.3111
23764SOL    HW178153   8.262  11.273   1.284 -0.8637  0.5832 -1.5544
23764SOL    HW278154   8.359  11.166   1.239  0.4279  0.5105  1.2327
23765SOL     OW78155   8.237  11.238   2.142 -0.5611  0.4380  0.5477
23765SOL    HW178156   8.320  11.214   2.101 -0.0948  0.7133  1.3033
23765SOL    HW278157   8.170  11.216   2.077  0.2213  1.8720 -0.8159
23766SOL     OW78158  12.243   6.523   2.623  0.7263  0.2869  0.7301
23766SOL    HW178159  12.298   6.571   2.685  2.1487 -0.2717 -0.0375
23766SOL    HW278160  12.271   6.555   2.537 -2.0080  1.9029  0.3260
23767SOL     OW78161   5.578   3.317   3.804 -0.1872  0.4292  0.3598
23767SOL    HW178162   5.603   3.382   3.738  0.1342 -0.1932 -0.1514
23767SOL    HW278163   5.484   3.330   3.817 -0.2122  0.6929 -0.0808
23768SOL     OW78164   7.910   6.123   5.166  0.0679  0.4388  0.0213
23768SOL    HW178165   7.990   6.075   5.145  0.6865  1.4809 -0.0759
23768SOL    HW278166   7.871   6.143   5.081 -0.3321 -0.0992  0.0691
23769SOL     OW78167  10.938  10.968   6.468  0.9154 -0.0511 -0.2830
23769SOL    HW178168  10.947  10.989   6.375  0.4865  0.2712 -0.2500
23769SOL    HW278169  10.904  11.047   6.509  1.4011 -0.0851  0.2074
23770SOL     OW78170   6.707   3.280   9.437  0.0116 -0.3406 -0.0448
23770SOL    HW178171   6.672   3.317   9.356  0.9380 -1.0517 -0.7995
23770SOL    HW278172   6.655   3.202   9.453 -0.6483  0.1905  0.4624
23771SOL     OW78173   5.349   9.708   9.947 -0.2983  0.1781 -0.1053
23771SOL    HW178174   5.425   9.697  10.004 -0.2796  3.5964  0.7685
23771SOL    HW278175   5.377   9.771   9.881 -2.5276  2.2861  0.7952
23772SOL     OW78176   7.885   3.672   6.539 -0.1096  0.1454 -0.1343
23772SOL    HW178177   7.844   3.585   6.537 -2.4878  1.1808 -0.6468
23772SOL    HW278178   7.855   3.710   6.622  0.3704  0.7134 -0.2193
23773SOL     OW78179   7.567   3.102   4.752 -0.3141 -0.1978 -0.0039
23773SOL    HW178180   7.586   3.195   4.760 -0.6956 -0.0647 -0.5928
23773SOL    HW278181   7.571   3.084   4.658 -1.7190 -0.4414 -0.0382
23774SOL     OW78182  11.956  11.317   3.327  0.0193  0.1415  0.2511
23774SOL    HW178183  11.904  11.240   3.305 -0.4918  0.0841  1.5662
23774SOL    HW278184  11.902  11.391   3.302  1.1109  0.1644 -2.4356
23775SOL     OW78185  10.134   9.552   5.809  0.2582  0.1371 -0.0847
23775SOL    HW178186  10.090   9.491   5.868 -0.3446  0.8522  0.2240
23775SOL    HW278187  10.123   9.512   5.722 -2.4865  1.0442 -0.2681
23776SOL     OW78188   5.257   3.617   8.243  0.2893 -0.4676  0.2969
23776SOL    HW178189   5.228   3.618   8.334 -1.3139 -0.4637 -0.1746
23776SOL    HW278190   5.244   3.707   8.213 -1.8743 -1.0257 -0.6716
23777SOL     OW78191   6.684   5.207   4.210 -0.1884 -0.3326  0.0329
23777SOL    HW178192   6.645   5.191   4.296 -0.9119  0.0273 -0.2178
23777SOL    HW278193   6.721   5.295   4.217 -0.4600 -0.2068 -0.0944
23778SOL     OW78194   6.282   4.002   9.412  0.1775 -0.0058  0.1200
23778SOL    HW178195   6.226   3.925   9.410  1.4250 -0.9411 -0.1723
23778SOL    HW278196   6.253   4.056   9.339  0.3933 -1.0282 -0.7509
23779SOL     OW78197   5.561  11.041   8.486  0.0989 -0.1012 -0.0035
23779SOL    HW178198   5.635  11.073   8.536 -0.3548  0.7969  0.1111
23779SOL    HW278199   5.494  11.109   8.494  0.2747  0.4714 -2.4417
23780SOL     OW78200   8.326   2.745   4.678  0.6825  0.5779  0.1269
23780SOL    HW178201   8.409   2.735   4.630  0.7295  0.8495  0.1494
23780SOL    HW278202   8.280   2.662   4.664  0.8509  0.5208 -0.0922
23781SOL     OW78203   4.984   0.427   9.045 -0.1829 -0.3809  0.0686
23781SOL    HW178204   4.992   0.517   9.015 -0.4508 -0.5138 -0.4099
23781SOL    HW278205   5.036   0.424   9.125 -0.9259  0.4386  0.6035
23782SOL     OW78206   5.309   4.710   5.692  0.4408  0.4430 -0.1822
23782SOL    HW178207   5.241   4.730   5.628  0.9072  0.0653 -0.8081
23782SOL    HW278208   5.373   4.781   5.682 -0.5286  1.6273  1.4291
23783SOL     OW78209   6.769   1.826   3.855 -0.2367  0.4439 -0.3625
23783SOL    HW178210   6.713   1.876   3.795  1.0010  1.4601 -0.7113
23783SOL    HW278211   6.842   1.796   3.800  0.9057  1.3634  0.6003
23784SOL     OW78212   6.163  11.269   8.041  0.0794 -0.3627  0.3036
23784SOL    HW178213   6.237  11.316   8.002  0.3759 -0.6967  0.4581
23784SOL    HW278214   6.095  11.335   8.052  0.1565 -0.1672 -0.3558
23785SOL     OW78215   4.094   6.177   4.003  0.0176 -0.7501 -0.1784
23785SOL    HW178216   4.038   6.100   3.988  1.1298 -1.8391  0.9840
23785SOL    HW278217   4.123   6.167   4.093 -1.5111  2.2208  0.7702
23786SOL     OW78218   6.610   7.028   9.165 -0.0080  0.5228 -0.0707
23786SOL    HW178219   6.535   7.074   9.127 -1.2511  0.6068  2.2961
23786SOL    HW278220   6.666   7.097   9.199  1.5610  0.4937 -2.3503
23787SOL     OW78221   4.971   8.493   9.407  0.2306  0.0115  0.0896
23787SOL    HW178222   4.884   8.466   9.437 -0.0015  0.4860 -0.1510
23787SOL    HW278223   4.954   8.546   9.329  0.8115 -1.1689 -0.8782
23788SOL     OW78224  11.946  11.682   7.919  0.3059  0.2714 -0.2866
23788SOL    HW178225  11.930  11.711   7.829 -0.9250  0.7486  0.0536
23788SOL    HW278226  11.999  11.603   7.910 -0.5090 -0.1779 -1.4756
23789SOL     OW78227   3.840   4.546   7.116  0.4185  0.1775 -0.1624
23789SOL    HW178228   3.845   4.539   7.021  0.1658  0.1151 -0.1723
23789SOL    HW278229   3.922   4.587   7.141  1.0172 -0.9109 -0.2925
23790SOL     OW78230   1.008   9.525   0.406  0.1129  0.0854  0.1330
23790SOL    HW178231   1.066   9.472   0.461  1.8152  1.1742 -0.5233
23790SOL    HW278232   1.044   9.515   0.318  0.3527  2.1401 -0.0308
23791SOL     OW78233   1.313   8.754  10.859 -0.2746  0.3776 -0.1666
23791SOL    HW178234   1.223   8.775  10.835 -0.5678  1.3987  1.6001
23791SOL    HW278235   1.342   8.829  10.912  1.5895  0.0315 -0.6165
23792SOL     OW78236  11.194   2.757   8.081  0.2614 -0.1396 -0.4791
23792SOL    HW178237  11.257   2.799   8.140 -0.6870 -1.3413  1.5214
23792SOL    HW278238  11.110   2.797   8.103 -0.3645 -1.7117  0.2091
23793SOL     OW78239   5.173  12.180   1.833  0.0247  0.1598  0.1894
23793SOL    HW178240   5.087  12.178   1.790  1.0614 -0.4959 -1.9836
23793SOL    HW278241   5.221  12.248   1.786  0.3271  1.4283  2.2329
23794SOL     OW78242   0.447   5.895   7.629  0.0103  0.0154  0.5067
23794SOL    HW178243   0.523   5.897   7.571  0.7444  2.0447  1.4291
23794SOL    HW278244   0.403   5.978   7.615 -1.3168 -0.5689  0.9671
23795SOL     OW78245   6.056   5.499   0.712 -0.6092  0.2180  0.3057
23795SOL    HW178246   6.048   5.417   0.664 -0.1103  1.1203 -1.3759
23795SOL    HW278247   5.976   5.547   0.691 -0.7363  0.3182  0.9963
23796SOL     OW78248   8.269   5.217   4.246 -0.4140  0.0312  0.3355
23796SOL    HW178249   8.221   5.286   4.199  0.6649  0.8402  0.3899
23796SOL    HW278250   8.313   5.167   4.177  0.3965  0.6256  0.4149
23797SOL     OW78251   6.365  10.348   1.722  0.1111  0.2314 -0.6410
23797SOL    HW178252   6.272  10.368   1.734  0.3955  0.7465  1.0413
23797SOL    HW278253   6.383  10.371   1.631 -1.4192  0.0326 -1.0311
23798SOL     OW78254   3.958   0.055   7.695  0.1689 -0.0438  0.0213
23798SOL    HW178255   3.961   0.136   7.644 -1.0070 -0.1357 -0.2200
23798SOL    HW278256   3.881   0.065   7.751  0.3563 -0.7442  0.4087
23799SOL     OW78257   7.487  10.059   0.051  0.0871 -0.3135  0.4169
23799SOL    HW178258   7.529  10.096   0.129 -0.4857 -0.6421  0.8924
23799SOL    HW278259   7.532   9.976   0.037  2.1852  1.0148 -1.3485
23800SOL     OW78260   1.146   0.749   0.247 -0.0861 -0.0518 -0.1044
23800SOL    HW178261   1.202   0.743   0.170  1.5277 -1.4941  1.1069
23800SOL    HW278262   1.112   0.660   0.259  0.4571 -0.0854  1.3643
23801SOL     OW78263   9.247  12.307   5.569  0.3747 -0.3327  0.5572
23801SOL    HW178264   9.170  12.282   5.620 -0.2915  1.0914  0.2789
23801SOL    HW278265   9.279  12.224   5.533 -1.5163 -0.8679  0.0099
23802SOL     OW78266   2.359   6.225   8.674  0.4261  0.1088 -0.8331
23802SOL    HW178267   2.359   6.245   8.768 -0.2419  0.2896 -0.8618
23802SOL    HW278268   2.441   6.179   8.659  0.7239  0.4270 -0.2331
23803SOL     OW78269  11.690   9.932   0.071 -0.2162 -0.0095 -0.0619
23803SOL    HW178270  11.753   9.869   0.035 -0.1097  0.7768 -1.3248
23803SOL    HW278271  11.660   9.982  -0.005 -2.5062 -0.4608  0.4935
23804SOL     OW78272   4.346   3.307   4.326 -0.0668 -0.1778 -0.0704
23804SOL    HW178273   4.399   3.350   4.394 -0.8596  0.4994  0.1352
23804SOL    HW278274   4.323   3.378   4.266 -1.2390 -0.3344  0.1735
23805SOL     OW78275   4.885   0.921   9.738 -0.0242 -0.1334 -0.5975
23805SOL    HW178276   4.906   0.977   9.813  1.3967 -1.3723 -0.0299
23805SOL    HW278277   4.818   0.861   9.770 -0.7068  0.4635 -0.8686
23806SOL     OW78278  11.218   0.997   7.113  0.1321  1.0086 -0.4823
23806SOL    HW178279  11.145   0.981   7.054  0.3388 -1.0957 -0.2289
23806SOL    HW278280  11.296   0.981   7.060  0.3340 -0.1488  0.1403
23807SOL     OW78281   1.480  10.833   9.894 -0.1845 -0.4320 -0.2817
23807SOL    HW178282   1.475  10.797   9.805 -0.9025  1.4697 -1.0453
23807SOL    HW278283   1.486  10.927   9.881  4.5402 -0.2159  1.5225
23808SOL     OW78284   3.351   3.038  12.334 -0.4242  0.7455  1.0341
23808SOL    HW178285   3.340   2.943  12.331 -1.0547  0.7790  2.0745
23808SOL    HW278286   3.360   3.063  12.242  2.0704 -0.5590  0.8247
23809SOL     OW78287   8.312   1.445   2.485  0.0710  0.3742 -0.2991
23809SOL    HW178288   8.264   1.408   2.411 -0.1445  1.0066 -0.4824
23809SOL    HW278289   8.305   1.540   2.474 -1.5794  0.5385  1.5218
23810SOL     OW78290   9.321  10.871   8.166  0.1337 -0.2274  0.2636
23810SOL    HW178291   9.277  10.798   8.211  1.0901 -1.3961 -0.6203
23810SOL    HW278292   9.409  10.872   8.204  0.2730  0.1593 -0.0693
23811SOL     OW78293   6.954   0.137   1.910  0.6944  0.2362 -0.1141
23811SOL    HW178294   6.914   0.191   1.841  0.3095 -1.6529 -1.4642
23811SOL    HW278295   7.040   0.176   1.924  0.1049  1.7095 -0.4030
23812SOL     OW78296   3.298   1.815   9.250 -0.5398  0.1923 -0.1657
23812SOL    HW178297   3.286   1.749   9.182  2.9001 -1.0467  0.1951
23812SOL    HW278298   3.361   1.775   9.310 -0.7730  2.6185  1.8317
23813SOL     OW78299   1.551   4.340   3.446 -0.4184  0.2602  0.0911
23813SOL    HW178300   1.629   4.368   3.495  0.1751 -0.1580 -0.5902
23813SOL    HW278301   1.563   4.245   3.435 -0.7007  0.3000 -0.5741
23814SOL     OW78302   0.820   7.439  10.128 -0.0125  0.5073  0.3079
23814SOL    HW178303   0.913   7.416  10.134  0.4151  1.4794 -1.6559
23814SOL    HW278304   0.778   7.391  10.199  2.1936  1.2136  2.1869
23815SOL     OW78305   6.235   3.968   4.517  0.5094 -0.0358  0.2693
23815SOL    HW178306   6.140   3.961   4.507  0.4855 -0.6189  0.8306
23815SOL    HW278307   6.264   4.014   4.439 -0.1804 -0.3218 -0.1637
23816SOL     OW78308   2.777   5.980  12.125 -0.3844  0.4878 -0.0743
23816SOL    HW178309   2.788   6.073  12.142  3.0823 -0.0240  1.4685
23816SOL    HW278310   2.803   5.938  12.207  0.1923 -1.8570 -1.3648
23817SOL     OW78311   8.644   3.369  11.559 -0.7463 -0.1798 -0.2275
23817SOL    HW178312   8.708   3.401  11.622 -2.3394 -1.1786  2.0149
23817SOL    HW278313   8.674   3.404  11.475  2.0719  0.3219  0.8673
23818SOL     OW78314   0.950   3.579   4.307  0.0699  0.2263 -0.1234
23818SOL    HW178315   0.910   3.574   4.220 -0.8941 -0.1435  0.3355
23818SOL    HW278316   0.926   3.665   4.340  1.1818  0.7290 -0.5598
23819SOL     OW78317   7.681   9.345   6.696  0.0718 -0.5797  0.0564
23819SOL    HW178318   7.693   9.430   6.740 -0.2546  0.4166 -1.6948
23819SOL    HW278319   7.681   9.281   6.767  1.5005  0.7629  1.3406
23820SOL     OW78320   9.976   6.786   6.031 -0.1832 -0.7465  0.4284
23820SOL    HW178321   9.945   6.870   6.064  0.1017 -0.7575  0.7300
23820SOL    HW278322   9.896   6.733   6.022 -0.3057 -0.6202  0.7543
23821SOL     OW78323  11.567  11.920   7.738 -0.0845 -0.4813 -0.3290
23821SOL    HW178324  11.650  11.961   7.760  0.8371 -3.3843  2.4076
23821SOL    HW278325  11.591  11.846   7.682 -0.7579 -1.2937  0.4068
23822SOL     OW78326  10.213   0.966   1.412 -0.3375 -0.4494 -0.5225
23822SOL    HW178327  10.268   0.889   1.431  0.5723  0.5629  1.1748
23822SOL    HW278328  10.275   1.039   1.408 -1.2700  0.3090 -1.3989
23823SOL     OW78329   9.958   2.957   1.549  0.0365 -0.4478 -0.0668
23823SOL    HW178330  10.014   3.032   1.529 -0.6157  0.0897  0.0917
23823SOL    HW278331   9.906   2.944   1.470 -1.0890  0.3832  0.5209
23824SOL     OW78332   9.206   3.074   9.731  0.0769  0.4633 -0.0421
23824SOL    HW178333   9.198   3.100   9.639  1.6494  2.4168  0.2909
23824SOL    HW278334   9.130   3.114   9.773  0.4091  1.2616 -0.1859
23825SOL     OW78335   2.362   4.306  10.072  0.0858  0.9035  0.6286
23825SOL    HW178336   2.359   4.361  10.150 -2.5638  2.1096 -0.1944
23825SOL    HW278337   2.376   4.367  10.000 -0.7831  0.2484 -0.1203
23826SOL     OW78338   3.416   6.617   7.449  0.2328  0.4048  0.0643
23826SOL    HW178339   3.394   6.699   7.404 -0.9860 -0.3051 -0.6906
23826SOL    HW278340   3.511   6.610   7.441  0.0469  0.0449 -2.9553
23827SOL     OW78341   8.708   0.918  12.278 -0.5777  0.0210  0.3644
23827SOL    HW178342   8.703   1.012  12.260 -1.0488 -0.3598 -1.7641
23827SOL    HW278343   8.618   0.887  12.271 -0.1663 -0.9318 -1.3368
23828SOL     OW78344   4.296  11.320   5.940 -0.1005 -0.3605  0.1830
23828SOL    HW178345   4.382  11.342   5.974 -0.8128  1.3956  0.9845
23828SOL    HW278346   4.269  11.243   5.990  0.1194  0.3953  1.5156
23829SOL     OW78347  11.336   2.044   7.539  0.1953 -0.0547 -0.4421
23829SOL    HW178348  11.318   2.132   7.506 -0.2320 -0.1713 -0.5214
23829SOL    HW278349  11.299   1.985   7.473 -0.6271 -0.2861  0.2062
23830SOL     OW78350   0.003   3.331   7.193  0.2295 -0.1068  0.5485
23830SOL    HW178351  -0.037   3.360   7.276 -0.0761 -2.5920  1.3676
23830SOL    HW278352  -0.033   3.243   7.180  0.5688  0.0828 -2.0789
23831SOL     OW78353   5.543   4.925  10.309 -0.1664  0.2387  0.3432
23831SOL    HW178354   5.600   4.949  10.235 -1.4683 -0.1518 -0.8152
23831SOL    HW278355   5.457   4.911  10.270 -0.0942 -4.0562  1.2360
23832SOL     OW78356   4.914   8.173   4.606 -0.1232 -0.9052  0.4045
23832SOL    HW178357   4.940   8.255   4.562  0.0791 -0.8701  0.5845
23832SOL    HW278358   4.926   8.106   4.539  0.1163 -0.8423  0.3803
23833SOL     OW78359  10.088   4.737   5.998 -0.4926 -0.2857  0.0905
23833SOL    HW178360  10.154   4.800   5.970  1.3080 -2.1537 -0.1385
23833SOL    HW278361  10.024   4.736   5.927  0.8514 -0.5957 -1.1731
23834SOL     OW78362   8.136   3.345   2.463  0.1794 -0.6675 -0.1058
23834SOL    HW178363   8.061   3.398   2.492  0.7887  1.0973 -1.5670
23834SOL    HW278364   8.196   3.408   2.424  0.6079 -2.5100 -2.6796
23835SOL     OW78365   4.891   1.460  11.900  0.2039  0.1784 -0.2042
23835SOL    HW178366   4.881   1.480  11.993 -3.1080 -1.0210 -0.1619
23835SOL    HW278367   4.829   1.388  11.884  2.9405 -1.8621 -2.7151
23836SOL     OW78368   6.323   8.190   6.448 -0.1667  0.0919 -0.3151
23836SOL    HW178369   6.390   8.207   6.381  0.2783  2.7664  0.7134
23836SOL    HW278370   6.372   8.150   6.520 -0.0748  0.1141 -0.3646
23837SOL     OW78371   1.224  11.614   9.329  0.0824 -0.0999 -0.2802
23837SOL    HW178372   1.155  11.568   9.280 -0.4898 -1.6599  1.8578
23837SOL    HW278373   1.189  11.702   9.341 -0.7467 -0.3470 -0.7483
23838SOL     OW78374   7.010  11.014  12.428 -0.2382  0.4044 -0.9101
23838SOL    HW178375   7.094  11.013  12.473 -1.0031  1.4001  0.6304
23838SOL    HW278376   6.982  11.105  12.431 -1.5351  0.0396 -1.0506
23839SOL     OW78377  10.975  11.809   9.377 -0.1033 -0.1915  0.2376
23839SOL    HW178378  10.963  11.795   9.471 -0.3799  0.6737  0.3378
23839SOL    HW278379  11.039  11.743   9.351  0.0756 -0.3531  1.0578
23840SOL     OW78380   1.713   3.574   0.555  0.2540  0.0122  0.0639
23840SOL    HW178381   1.621   3.563   0.578  0.0455  0.2467 -0.6279
23840SOL    HW278382   1.727   3.516   0.480  0.9751 -0.9068  0.8842
23841SOL     OW78383   6.693   9.558   6.021 -0.4263  0.4826  0.2637
23841SOL    HW178384   6.768   9.603   5.983 -0.1061 -0.5226 -0.3312
23841SOL    HW278385   6.728   9.475   6.053 -1.0577  0.5144  1.0666
23842SOL     OW78386   6.658   4.064   0.210 -0.2652  0.7390  0.6908
23842SOL    HW178387   6.664   3.970   0.228 -0.5270  0.8059  1.1454
23842SOL    HW278388   6.662   4.105   0.296 -0.5263  1.1245  0.5214
23843SOL     OW78389   2.476   7.217   5.356 -0.0497  0.1028 -0.3619
23843SOL    HW178390   2.423   7.149   5.397 -1.1325  0.9704 -0.2513
23843SOL    HW278391   2.510   7.177   5.277  0.4576 -0.9838  0.3957
23844SOL     OW78392   1.475   6.068   5.988 -0.8553 -0.4048  0.3828
23844SOL    HW178393   1.441   6.074   6.077  0.4472  1.0510  0.8209
23844SOL    HW278394   1.542   6.000   5.991  0.2273  0.6589  0.8968
23845SOL     OW78395   3.941   8.493   2.575  0.7019 -0.1578  0.5311
23845SOL    HW178396   3.919   8.586   2.564  0.1165 -0.2239  1.0799
23845SOL    HW278397   3.988   8.470   2.495 -1.8287 -0.1928 -1.0816
23846SOL     OW78398   6.215   8.719   6.632  0.2175  0.4324 -0.1590
23846SOL    HW178399   6.150   8.790   6.630  0.4922  0.6813 -0.7599
23846SOL    HW278400   6.236   8.709   6.724  1.6146  2.4899 -0.1769
23847SOL     OW78401   1.888   5.952  11.058 -0.3108 -0.0224 -0.0614
23847SOL    HW178402   1.943   5.935  11.135  0.1579 -0.1279 -0.4099
23847SOL    HW278403   1.818   6.008  11.090 -0.1641 -0.1338  0.4607
23848SOL     OW78404   6.806   6.961  10.514 -0.1279  0.5360  0.3603
23848SOL    HW178405   6.858   6.906  10.456 -1.4863 -0.9087  0.4483
23848SOL    HW278406   6.867   7.029  10.544  1.2760 -0.2091 -0.6968
23849SOL     OW78407  10.532   8.163   6.323  0.2072 -0.4637  0.2444
23849SOL    HW178408  10.596   8.228   6.352 -0.5978  1.0631 -1.2120
23849SOL    HW278409  10.456   8.214   6.296 -0.1105 -1.9148 -1.8873
23850SOL     OW78410   1.246  11.971   9.210 -0.2799 -0.1011  0.2054
23850SOL    HW178411   1.337  11.991   9.187 -0.4945  0.8165  0.1180
23850SOL    HW278412   1.243  11.979   9.305 -0.3814  0.3936  0.1654
23851SOL     OW78413  10.413   4.881   7.948 -0.4253  0.1069 -0.1399
23851SOL    HW178414  10.363   4.802   7.928  0.7469 -0.4656 -0.9132
23851SOL    HW278415  10.496   4.849   7.984 -0.3761  1.0175  0.5941
23852SOL     OW78416   2.614  11.760  10.256  0.9767  0.0354  0.1271
23852SOL    HW178417   2.675  11.721  10.319  0.5456  1.4399  1.4705
23852SOL    HW278418   2.536  11.704  10.262  0.5868  0.6887  1.5813
23853SOL     OW78419   7.215   2.314   6.720  0.1869 -0.2651  0.2420
23853SOL    HW178420   7.144   2.359   6.674  1.2577  0.7669 -0.4890
23853SOL    HW278421   7.227   2.232   6.672  1.0611  0.6441 -1.1904
23854SOL     OW78422   1.554   7.513   3.726 -0.5680 -0.0767 -0.8778
23854SOL    HW178423   1.577   7.605   3.711 -2.0870  0.0290 -2.8838
23854SOL    HW278424   1.633   7.475   3.765  2.4134  0.7525 -5.3293
23855SOL     OW78425  11.576   4.533   0.730 -0.0917 -1.1618 -0.1468
23855SOL    HW178426  11.634   4.509   0.803 -0.3026 -0.7231  0.1685
23855SOL    HW278427  11.491   4.496   0.754 -0.1827 -0.9386 -0.1267
23856SOL     OW78428   0.223   0.045  10.680  0.8220 -0.3790 -0.3898
23856SOL    HW178429   0.314   0.038  10.651  1.1592 -1.0887  0.7819
23856SOL    HW278430   0.203  -0.041  10.716  0.1457  0.2127  0.6915
23857SOL     OW78431   8.707   1.349   6.904 -0.2983  0.0395  0.3904
23857SOL    HW178432   8.710   1.277   6.841  2.5355  0.1891  0.2587
23857SOL    HW278433   8.742   1.311   6.985 -1.3093  0.5988  1.1207
23858SOL     OW78434   5.877   7.149  11.698  0.5142 -0.0844  0.4544
23858SOL    HW178435   5.829   7.132  11.780 -0.0856 -0.7045 -0.0168
23858SOL    HW278436   5.946   7.083  11.697  0.9295  0.3385  0.7711
23859SOL     OW78437   6.604   5.559   7.627  0.8513 -0.4174 -0.2755
23859SOL    HW178438   6.617   5.568   7.721  1.0171 -0.3348 -0.3054
23859SOL    HW278439   6.669   5.618   7.588  0.9111 -0.5928 -0.4452
23860SOL     OW78440   5.509   7.955   8.427  0.4221  0.0940 -0.4456
23860SOL    HW178441   5.445   7.971   8.496  0.0340 -0.8401 -0.5679
23860SOL    HW278442   5.566   8.031   8.428 -0.2711  0.6125  0.1400
23861SOL     OW78443   1.203   9.077   5.709  0.1023  0.3831  0.2030
23861SOL    HW178444   1.249   9.056   5.627 -0.0588 -0.2609  0.2697
23861SOL    HW278445   1.246   9.023   5.775 -0.8473 -0.3642  0.2357
23862SOL     OW78446   6.422   5.494  10.816  0.6195 -0.2272 -0.1389
23862SOL    HW178447   6.362   5.526  10.749 -1.1903 -1.3119  0.8816
23862SOL    HW278448   6.447   5.572  10.865 -0.2309  0.2074 -0.3788
23863SOL     OW78449   8.582   3.951   0.166  0.5101 -0.0340  0.6670
23863SOL    HW178450   8.557   4.016   0.101  1.9279 -0.4370 -0.3239
23863SOL    HW278451   8.502   3.935   0.216 -0.3597  1.0059 -0.3481
23864SOL     OW78452   2.654   2.419   3.962 -0.1598  0.5607  0.0030
23864SOL    HW178453   2.694   2.459   3.885  0.0167  2.4376  1.0094
23864SOL    HW278454   2.636   2.329   3.935  1.6389  0.6005 -1.5949
23865SOL     OW78455   9.202   7.771  11.423 -0.2236  0.0264  0.1756
23865SOL    HW178456   9.223   7.701  11.362  1.0774  1.3393 -0.9361
23865SOL    HW278457   9.267   7.763  11.493  0.3268  0.5106 -0.2780
23866SOL     OW78458   6.228   3.166   3.706 -0.2167  0.0102  0.1223
23866SOL    HW178459   6.278   3.128   3.634  0.1881  0.7210  0.0188
23866SOL    HW278460   6.283   3.154   3.783  0.7872  1.9853 -0.2017
23867SOL     OW78461   4.431   3.707  10.765 -0.2814  0.0605  0.2389
23867SOL    HW178462   4.372   3.635  10.785  1.8613 -2.0733 -0.6441
23867SOL    HW278463   4.424   3.717  10.670  2.5300 -2.0610 -0.3422
23868SOL     OW78464   4.219   2.897   2.388  0.0373  0.2551 -0.1096
23868SOL    HW178465   4.161   2.822   2.399  1.2872 -0.5562  1.3698
23868SOL    HW278466   4.302   2.868   2.424  0.6004  2.3054  0.3544
23869SOL     OW78467  10.966   5.559   3.573 -0.3471  0.5342 -0.0535
23869SOL    HW178468  11.039   5.560   3.635  0.0603 -2.3825 -0.3559
23869SOL    HW278469  11.004   5.588   3.490  0.0635  0.6673  0.1811
23870SOL     OW78470  11.456   4.552   1.315 -0.3133  0.1938 -0.1296
23870SOL    HW178471  11.540   4.512   1.291 -0.1439  0.8144 -0.6027
23870SOL    HW278472  11.447   4.533   1.408 -0.2172 -0.8938 -0.3273
23871SOL     OW78473   6.600   2.725   6.589  0.0201 -0.0255 -0.4090
23871SOL    HW178474   6.659   2.666   6.541  0.4936  1.1664 -1.3491
23871SOL    HW278475   6.658   2.774   6.648 -0.2647  0.0098 -0.1542
23872SOL     OW78476   5.217   3.595   1.733 -0.8330 -0.0151  0.1551
23872SOL    HW178477   5.148   3.531   1.750  0.5034 -0.9226  2.6381
23872SOL    HW278478   5.294   3.559   1.776  1.1427  1.1645 -2.1555
23873SOL     OW78479  10.587   5.068  11.067  0.4935 -0.4748  0.3249
23873SOL    HW178480  10.681   5.073  11.086  0.5194  1.2982 -0.0799
23873SOL    HW278481  10.581   5.007  10.993  1.2859 -0.8402  0.5472
23874SOL     OW78482   5.956   8.788  10.635  0.6732  1.2437  0.3193
23874SOL    HW178483   5.971   8.695  10.620  2.3278  1.5065  0.2457
23874SOL    HW278484   5.879   8.790  10.692  0.0627 -0.1161 -0.4127
23875SOL     OW78485  11.876   6.380  10.239  0.3086 -0.7579  0.2554
23875SOL    HW178486  11.880   6.295  10.196  1.5869 -0.5214 -0.1429
23875SOL    HW278487  11.855   6.361  10.330  0.8082 -1.5205  0.2153
23876SOL     OW78488   3.093   6.203   4.234  0.1944 -0.2554  0.1981
23876SOL    HW178489   3.166   6.236   4.181 -1.3484 -0.6388 -2.3263
23876SOL    HW278490   3.047   6.142   4.177 -2.1119 -0.0332  1.6764
23877SOL     OW78491   1.579   8.316   3.807  0.3473  0.4494 -0.3431
23877SOL    HW178492   1.570   8.408   3.830  1.5607 -0.0412  2.3368
23877SOL    HW278493   1.501   8.274   3.843  1.4299 -0.0527  1.5390
23878SOL     OW78494   5.046   1.176   2.969 -0.2184  0.8293 -0.9993
23878SOL    HW178495   5.106   1.199   3.040 -1.3881  0.5624  0.1186
23878SOL    HW278496   5.041   1.255   2.915 -0.0136  1.3624 -0.2569
23879SOL     OW78497   6.560   1.106   0.501 -0.0754  0.2813 -0.2577
23879SOL    HW178498   6.640   1.132   0.456 -0.5482  2.2540 -0.0343
23879SOL    HW278499   6.489   1.145   0.449 -0.7529  0.6016  0.8828
23880SOL     OW78500   4.910  12.348   8.274 -0.8663 -0.1975  0.1286
23880SOL    HW178501   4.997  12.334   8.312  0.6317 -0.4841 -3.0654
23880SOL    HW278502   4.921  12.421   8.213 -2.9336 -0.0926 -0.2082
23881SOL     OW78503   6.677   6.250   7.418 -0.0515  0.1723  0.4081
23881SOL    HW178504   6.748   6.247   7.355  0.6742 -1.2046  1.2339
23881SOL    HW278505   6.721   6.261   7.503 -0.9061  0.5211  0.8204
23882SOL     OW78506   3.273  10.202   9.879  0.1870 -0.3713  0.3132
23882SOL    HW178507   3.322  10.126   9.847 -0.4663 -1.0126  0.7882
23882SOL    HW278508   3.241  10.245   9.800 -0.5626 -1.3659  0.0577
23883SOL     OW78509   0.517   0.732   3.869  0.1095 -0.0006 -0.1770
23883SOL    HW178510   0.556   0.736   3.782 -1.6134 -1.0681 -1.0374
23883SOL    HW278511   0.570   0.667   3.916  1.8748  1.5324  0.0624
23884SOL     OW78512   2.202   4.742   9.884  0.0552 -0.2320  0.1290
23884SOL    HW178513   2.189   4.769   9.975  1.6694  1.5579 -0.1198
23884SOL    HW278514   2.113   4.734   9.849 -0.5819 -0.3944  1.6753
23885SOL     OW78515  10.541   8.189   9.074 -0.2142  0.7377 -0.2960
23885SOL    HW178516  10.541   8.249   9.149  1.4540  1.1333 -0.5639
23885SOL    HW278517  10.609   8.125   9.094  0.0515  0.6787 -1.3191
23886SOL     OW78518  11.104   6.388  10.000  0.1762 -0.3108  0.5900
23886SOL    HW178519  11.073   6.396   9.910  0.0309  0.4917  0.7038
23886SOL    HW278520  11.057   6.311  10.035  0.7227 -1.0222 -0.1986
23887SOL     OW78521   1.454   3.632   4.120  0.0117  0.1285  0.7838
23887SOL    HW178522   1.545   3.653   4.103 -0.3262  2.7094  1.7165
23887SOL    HW278523   1.456   3.579   4.199  0.7559 -1.3340 -0.1638
23888SOL     OW78524   7.701   9.704   3.491  0.3284  0.0414  0.0294
23888SOL    HW178525   7.742   9.746   3.415 -3.3694  0.2290 -2.1358
23888SOL    HW278526   7.676   9.777   3.548 -0.5358  0.2929 -0.6511
23889SOL     OW78527   6.512   2.139   2.483  0.4663  0.0852  0.0245
23889SOL    HW178528   6.520   2.168   2.574 -2.3188  0.9670  0.0638
23889SOL    HW278529   6.541   2.214   2.432 -0.9493  0.7648  0.1876
23890SOL     OW78530   8.923   3.494   8.685  0.0878  0.2299 -0.1508
23890SOL    HW178531   8.878   3.558   8.630  0.5662 -0.1418 -1.0016
23890SOL    HW278532   8.956   3.545   8.759 -1.9901  0.4487  0.6776
23891SOL     OW78533   1.728   5.659   4.225 -0.3254 -0.0990  0.5034
23891SOL    HW178534   1.640   5.645   4.261  0.3310 -1.1055  1.7810
23891SOL    HW278535   1.731   5.603   4.147 -0.0724 -1.8575  1.7291
23892SOL     OW78536   5.886   8.012  11.798 -0.2418 -0.2606  0.1909
23892SOL    HW178537   5.967   7.981  11.838  1.1909  3.4039  0.4754
23892SOL    HW278538   5.904   8.010  11.704 -0.0653 -0.1000  0.2196
23893SOL     OW78539   3.254   4.509   5.157  0.2181 -0.4319 -0.2116
23893SOL    HW178540   3.231   4.560   5.079  4.5022  1.8660 -0.2660
23893SOL    HW278541   3.299   4.432   5.122 -0.0626 -0.6940 -0.0054
23894SOL     OW78542  12.179   3.904   2.037  0.3604 -0.4683  0.3600
23894SOL    HW178543  12.145   3.990   2.011  0.5565 -0.9002 -1.4567
23894SOL    HW278544  12.274   3.913   2.032  0.3740 -0.9290 -0.3970
23895SOL     OW78545   3.914   5.075  11.241 -0.1731  0.2093 -0.5168
23895SOL    HW178546   3.982   5.024  11.197  0.4938  1.5058 -1.0482
23895SOL    HW278547   3.962   5.136  11.297 -0.9847 -2.1260  3.0669
23896SOL     OW78548   4.395   2.439   0.745  0.0127 -0.4090 -0.0659
23896SOL    HW178549   4.454   2.498   0.790 -0.2554  0.2415 -0.5482
23896SOL    HW278550   4.374   2.371   0.809 -1.1635  1.0305  1.1415
23897SOL     OW78551   6.523   7.778   5.363 -0.3163  0.3906  0.2773
23897SOL    HW178552   6.593   7.714   5.378  0.7533  1.5940  0.5989
23897SOL    HW278553   6.448   7.725   5.334  1.0861 -0.8384 -1.3561
23898SOL     OW78554   7.517   8.475   5.359  0.2443  0.2551  0.3608
23898SOL    HW178555   7.438   8.430   5.390 -1.3738  1.5729 -1.6363
23898SOL    HW278556   7.517   8.559   5.405  0.3923  0.3308  0.2235
23899SOL     OW78557  11.250   3.194  11.839 -0.5693 -0.4313 -0.3324
23899SOL    HW178558  11.267   3.287  11.855  0.8273 -0.2456 -2.4775
23899SOL    HW278559  11.170   3.193  11.786 -0.8469 -0.4984  0.0831
23900SOL     OW78560   8.747   2.520   5.727  0.5611 -0.1454 -0.4495
23900SOL    HW178561   8.732   2.446   5.669 -0.1026  1.1764 -2.0591
23900SOL    HW278562   8.667   2.527   5.779 -0.2956  0.6823 -1.8076
23901SOL     OW78563  11.433   0.480   7.341  0.5168 -0.1758  0.3391
23901SOL    HW178564  11.501   0.546   7.345 -0.5392  0.9315  0.6987
23901SOL    HW278565  11.360   0.518   7.390 -0.6123 -1.0147 -0.6278
23902SOL     OW78566   2.437   8.734   7.479 -0.3543  0.0746  0.0006
23902SOL    HW178567   2.384   8.755   7.556  1.2888  0.1485  1.1628
23902SOL    HW278568   2.526   8.758   7.504  0.4346 -1.1729 -1.4358
23903SOL     OW78569   1.986   8.243   6.615  0.0169 -0.3262  0.2403
23903SOL    HW178570   1.944   8.219   6.533  0.4821  1.4183 -0.5453
23903SOL    HW278571   2.078   8.220   6.603 -0.1553 -1.4067  0.8478
23904SOL     OW78572   1.901  11.261   8.577 -0.3910 -0.1807  0.4523
23904SOL    HW178573   1.972  11.232   8.519 -0.0514 -0.0189  0.7812
23904SOL    HW278574   1.906  11.357   8.575 -0.6536 -0.1664  0.4147
23905SOL     OW78575  11.067   8.593   1.830  0.4729  0.2889 -0.2296
23905SOL    HW178576  11.062   8.650   1.754  0.0399 -0.6127 -0.9047
23905SOL    HW278577  11.115   8.516   1.799 -0.2828 -0.3801  0.2037
23906SOL     OW78578   9.082   3.709   6.031  0.1344  0.1978  0.3458
23906SOL    HW178579   9.030   3.673   5.959 -0.0064  2.2208 -0.6369
23906SOL    HW278580   9.066   3.804   6.027 -0.0269  0.3797  3.1795
23907SOL     OW78581   6.243   1.516  10.376  0.0278 -0.4310  0.6136
23907SOL    HW178582   6.235   1.549  10.286 -1.6521  0.8307  1.1797
23907SOL    HW278583   6.313   1.569  10.415 -0.2163 -0.0003  0.4676
23908SOL     OW78584  11.360  12.066  10.672 -0.3670 -0.1104 -0.2184
23908SOL    HW178585  11.415  12.093  10.599  0.1865 -0.5461  0.0253
23908SOL    HW278586  11.353  12.143  10.728  2.2598 -0.7289  1.1357
23909SOL     OW78587   9.756   1.136   0.964  0.2939  0.0571 -0.0520
23909SOL    HW178588   9.671   1.170   0.936 -0.7041 -1.1275  1.3881
23909SOL    HW278589   9.776   1.068   0.900  0.0485  0.1613 -0.2447
23910SOL     OW78590   1.581   4.638  11.618 -0.3469 -0.0380 -0.5158
23910SOL    HW178591   1.565   4.706  11.683 -0.1582 -0.5999  0.1271
23910SOL    HW278592   1.655   4.671  11.567 -0.7144  0.5587 -0.6738
23911SOL     OW78593   0.989  11.348   0.304  0.4581  0.0657 -0.8301
23911SOL    HW178594   1.010  11.299   0.384  0.5451 -0.7358 -1.3312
23911SOL    HW278595   1.067  11.402   0.288 -1.0910  3.5555  1.9444
23912SOL     OW78596   6.768   3.126   0.659 -0.2040  0.0515 -0.4378
23912SOL    HW178597   6.796   3.086   0.576 -1.5925  0.5814 -1.2093
23912SOL    HW278598   6.718   3.203   0.632  0.1713  0.8009  0.9435
23913SOL     OW78599   9.916   0.025   7.813 -0.5353  0.3868 -0.1187
23913SOL    HW178600   9.866  -0.055   7.794 -3.1055  1.6043  1.0222
23913SOL    HW278601   9.914   0.074   7.731 -0.6948  0.1501 -0.2604
23914SOL     OW78602  12.431   2.939   7.390 -0.0621 -0.3195  0.2150
23914SOL    HW178603  12.365   3.001   7.421  1.3718  0.7467  1.2582
23914SOL    HW278604  12.508   2.957   7.443  1.0335 -1.6400 -0.8479
23915SOL     OW78605   8.706   4.487  11.171 -0.0083 -0.0924  0.2863
23915SOL    HW178606   8.662   4.409  11.138 -0.3310 -0.3743  1.3561
23915SOL    HW278607   8.702   4.550  11.098 -2.6905  0.0998  0.5195
23916SOL     OW78608   6.520   1.583   1.782  0.4267 -0.0207  0.0209
23916SOL    HW178609   6.595   1.534   1.816  0.6697  0.6588  0.4868
23916SOL    HW278610   6.457   1.585   1.855 -0.5365 -1.5244 -0.7125
23917SOL     OW78611   8.552   6.616  10.906 -0.3072  0.6131 -0.3047
23917SOL    HW178612   8.558   6.692  10.849 -0.0827  0.4424 -0.5100
23917SOL    HW278613   8.506   6.648  10.984  0.0268  1.0244 -0.2734
23918SOL     OW78614  10.893  10.271   5.713  0.7592 -0.5963 -0.2497
23918SOL    HW178615  10.810  10.307   5.683  0.3922  0.2855  1.6854
23918SOL    HW278616  10.870  10.186   5.751  0.9601 -0.9655 -0.9474
23919SOL     OW78617   5.426   6.933  11.418  0.4557  0.0046  0.0535
23919SOL    HW178618   5.457   6.844  11.434 -0.8244 -0.2649  1.3073
23919SOL    HW278619   5.480   6.987  11.475 -0.4490 -0.3123  1.2659
23920SOL     OW78620   4.014   9.180   5.440 -0.3039  0.7823 -0.4794
23920SOL    HW178621   4.093   9.210   5.395 -0.5375 -1.5492 -2.6444
23920SOL    HW278622   4.047   9.117   5.505 -0.2980  0.4185 -0.8293
23921SOL     OW78623   1.915   2.162   2.319  0.0204  0.1317 -0.3613
23921SOL    HW178624   1.996   2.134   2.361 -0.3644 -0.2411  0.1403
23921SOL    HW278625   1.910   2.256   2.338 -0.6187 -0.1899  1.2716
23922SOL     OW78626  10.524   2.005   7.739  0.1877  0.0716 -0.2560
23922SOL    HW178627  10.502   2.068   7.670  0.8883  1.8534  1.0873
23922SOL    HW278628  10.497   2.047   7.820 -0.5116 -1.9406  0.6230
23923SOL     OW78629   5.095  10.667  10.710 -0.1267 -0.2702 -0.0943
23923SOL    HW178630   5.131  10.638  10.626 -4.5069  1.6943 -3.0970
23923SOL    HW278631   5.120  10.759  10.716  0.5489 -0.5199  1.0321
23924SOL     OW78632  11.377  11.039   7.986 -0.4264  0.5730 -0.5130
23924SOL    HW178633  11.314  11.091   8.035 -0.5465  0.7845 -0.8885
23924SOL    HW278634  11.334  11.022   7.902 -0.2100  0.2428 -0.5578
23925SOL     OW78635   6.294  11.523   3.533  0.6016 -0.1083 -0.5399
23925SOL    HW178636   6.245  11.532   3.615 -0.3657 -1.4210 -0.9414
23925SOL    HW278637   6.275  11.604   3.485  0.3662  0.2267  0.1056
23926SOL     OW78638   1.213   2.020   2.979 -0.6857  0.0482 -1.1158
23926SOL    HW178639   1.193   2.095   2.922  1.5940 -0.4027 -2.6577
23926SOL    HW278640   1.226   1.947   2.919  0.1981 -0.8483  0.1039
23927SOL     OW78641  12.455  10.053  11.563  0.4107  0.3194  0.1652
23927SOL    HW178642  12.430   9.963  11.541 -0.8787  0.5993  0.4230
23927SOL    HW278643  12.430  10.104  11.486 -1.3389  0.8411  1.0284
23928SOL     OW78644  12.326   0.905   9.681  0.5014  0.0854  0.5621
23928SOL    HW178645  12.250   0.901   9.622  1.1331  0.8804 -0.3395
23928SOL    HW278646  12.289   0.928   9.766 -0.3037  0.1725  0.2040
23929SOL     OW78647   4.909   6.338   4.308 -0.2891 -0.3176  0.9574
23929SOL    HW178648   4.922   6.375   4.220  0.6645 -0.7450  0.9085
23929SOL    HW278649   4.823   6.371   4.335 -0.8378 -0.5943 -0.3497
23930SOL     OW78650  11.908   2.723   9.246 -0.5047 -0.1666 -0.8764
23930SOL    HW178651  11.913   2.746   9.154 -1.3181 -1.6173 -1.3167
23930SOL    HW278652  11.955   2.640   9.253  2.0689  1.2990  0.5931
23931SOL     OW78653   1.663   1.512   2.264 -0.0425  0.0151 -0.1428
23931SOL    HW178654   1.598   1.579   2.242 -0.5616 -0.3199  0.3376
23931SOL    HW278655   1.666   1.513   2.360 -0.3434 -0.9056 -0.1069
23932SOL     OW78656   6.311   4.914   9.424 -0.0417  0.0877 -0.2334
23932SOL    HW178657   6.395   4.870   9.410 -1.0048 -1.4059 -1.7932
23932SOL    HW278658   6.261   4.854   9.479  0.1332  1.3050  1.2962
23933SOL     OW78659  10.825   5.504   2.907  0.2713 -0.1667 -0.2588
23933SOL    HW178660  10.877   5.512   2.827 -0.0540 -1.6318 -0.6313
23933SOL    HW278661  10.778   5.587   2.913  0.8631  0.2511 -1.1876
23934SOL     OW78662  11.402   0.400   9.301  0.3839  0.0592 -0.1753
23934SOL    HW178663  11.426   0.325   9.245 -0.1313  0.0042 -0.3316
23934SOL    HW278664  11.308   0.410   9.287  0.7172  1.7932 -1.4634
23935SOL     OW78665  10.986   6.646   5.980  0.0284  0.5716 -0.3323
23935SOL    HW178666  11.029   6.562   5.993 -0.4454  0.3691 -0.0480
23935SOL    HW278667  10.958   6.645   5.889  0.2243  0.5162 -0.3916
23936SOL     OW78668   1.976  12.203   8.115 -0.2159  0.4494 -0.5185
23936SOL    HW178669   2.038  12.274   8.134  0.2610 -0.4722  1.6660
23936SOL    HW278670   2.029  12.136   8.073 -0.2227  0.5226 -0.6467
23937SOL     OW78671  11.520   4.387   7.272  0.1909  0.4531  0.3843
23937SOL    HW178672  11.460   4.437   7.328  1.5262  1.5284  0.9106
23937SOL    HW278673  11.472   4.378   7.189  0.1938  3.4264 -0.0490
23938SOL     OW78674   4.658  10.874   8.867 -0.3243 -0.4137 -0.0558
23938SOL    HW178675   4.690  10.809   8.805  1.9212  1.0861 -0.6062
23938SOL    HW278676   4.648  10.827   8.949  2.3335 -1.2968 -0.1490
23939SOL     OW78677   9.583  11.102   8.319 -0.2611  0.4299  0.2696
23939SOL    HW178678   9.641  11.123   8.246 -0.4057 -1.0277 -0.3159
23939SOL    HW278679   9.538  11.184   8.339  3.2503  2.1445  2.0027
23940SOL     OW78680   9.658   7.267  10.643 -0.3819 -0.3817 -0.0528
23940SOL    HW178681   9.713   7.336  10.680 -0.4494 -0.7510  0.7537
23940SOL    HW278682   9.570   7.288  10.673 -0.3759 -0.9194  0.3583
23941SOL     OW78683  10.903   5.685   5.319 -0.1454  0.5459 -0.8415
23941SOL    HW178684  10.897   5.606   5.265 -0.7557  0.3234 -0.4585
23941SOL    HW278685  10.993   5.715   5.308 -0.2901  0.5608 -2.0562
23942SOL     OW78686   0.961   2.845   4.087 -0.3408 -0.3805  0.4723
23942SOL    HW178687   0.872   2.810   4.098 -0.5778  0.5087  1.7422
23942SOL    HW278688   1.017   2.780   4.129 -0.6586  0.1604  1.7941
23943SOL     OW78689   0.352   0.989   2.799  0.6202  0.6926  0.2807
23943SOL    HW178690   0.265   0.950   2.785  1.1866 -1.4325  2.0967
23943SOL    HW278691   0.401   0.965   2.720 -0.2324  1.3639 -0.4783
23944SOL     OW78692  10.803   5.795   0.417  0.4654 -0.0277  0.0167
23944SOL    HW178693  10.839   5.881   0.437 -1.8678  0.8963  0.6034
23944SOL    HW278694  10.869   5.753   0.362  1.2375  2.5424 -1.1533
23945SOL     OW78695   3.857   6.484   3.287 -0.7587  0.2638  0.0984
23945SOL    HW178696   3.880   6.452   3.200 -0.2901 -0.4748  0.4909
23945SOL    HW278697   3.892   6.573   3.290  0.1408 -0.0838 -0.0859
23946SOL     OW78698   2.699   2.847   3.293 -0.3923 -0.9978  0.3735
23946SOL    HW178699   2.786   2.857   3.332 -0.1018  0.3196 -0.5547
23946SOL    HW278700   2.667   2.936   3.282 -1.5979 -1.4452  0.0832
23947SOL     OW78701   7.231   2.319   5.380 -0.1077 -0.4355 -0.9138
23947SOL    HW178702   7.182   2.394   5.415 -0.2776 -1.7666  2.0488
23947SOL    HW278703   7.182   2.292   5.302 -1.0663  1.3976 -1.0000
23948SOL     OW78704   4.377   8.009   8.644 -0.0293 -0.2077  0.4300
23948SOL    HW178705   4.334   8.042   8.723 -1.9053  0.0071 -0.6136
23948SOL    HW278706   4.352   7.917   8.639  0.2849 -0.2837  0.2112
23949SOL     OW78707   3.487  11.492   1.688 -0.1427 -0.3536  0.2405
23949SOL    HW178708   3.480  11.415   1.745 -0.3427 -0.1032  0.5560
23949SOL    HW278709   3.501  11.565   1.748  0.7793 -0.2383 -0.1110
23950SOL     OW78710   9.702   8.897   4.732  0.3492  0.6652 -0.4622
23950SOL    HW178711   9.707   8.989   4.758  0.9818  0.8768 -1.2928
23950SOL    HW278712   9.609   8.875   4.740  0.1191  1.5127 -0.6979
23951SOL     OW78713   4.659   6.104   0.122 -0.0416 -0.4349 -0.1808
23951SOL    HW178714   4.744   6.114   0.080 -1.1915  0.6898 -2.4097
23951SOL    HW278715   4.617   6.032   0.075 -0.5046 -0.6992  0.6114
23952SOL     OW78716  10.492   9.340   9.732  0.1668 -0.0236  0.1420
23952SOL    HW178717  10.465   9.373   9.647  0.2234  0.4693  0.3111
23952SOL    HW278718  10.431   9.380   9.794  0.8216  0.5200  0.4477
23953SOL     OW78719   7.844   2.570   5.828 -0.2727 -0.4762 -0.3593
23953SOL    HW178720   7.799   2.509   5.886 -3.1813  0.9591 -0.9332
23953SOL    HW278721   7.887   2.632   5.887 -1.3656 -0.3113  0.2872
23954SOL     OW78722   2.307   8.282   4.953  0.3103 -0.0729  0.0094
23954SOL    HW178723   2.279   8.369   4.979 -1.0946 -0.6783  0.6760
23954SOL    HW278724   2.347   8.245   5.031 -1.3400 -0.8743  0.5317
23955SOL     OW78725   0.823   4.441   3.560  0.1856  0.5772 -0.2309
23955SOL    HW178726   0.874   4.472   3.635  0.9582 -1.0021 -0.0555
23955SOL    HW278727   0.884   4.444   3.486  1.1343 -2.7591  0.2725
23956SOL     OW78728   8.353   7.918   4.515 -0.4318  0.4544  0.5142
23956SOL    HW178729   8.277   7.904   4.460  0.0862  1.4862 -0.5009
23956SOL    HW278730   8.318   7.952   4.597 -1.1549 -0.4422  0.5901
23957SOL     OW78731  12.024  10.815   1.729 -0.5474 -0.3677 -0.5382
23957SOL    HW178732  12.021  10.720   1.742  1.2667 -0.2879  0.7472
23957SOL    HW278733  12.101  10.830   1.675 -0.5789  0.4040 -0.3815
23958SOL     OW78734  10.831   3.306   4.042 -0.1980  1.0591  0.3896
23958SOL    HW178735  10.880   3.337   3.966 -0.6288  1.7534  0.3884
23958SOL    HW278736  10.740   3.326   4.022 -0.3205  1.2299  1.0687
23959SOL     OW78737   4.301   3.826   6.227  0.1661 -0.3722 -0.3545
23959SOL    HW178738   4.361   3.832   6.153 -0.0304  1.8132 -0.4174
23959SOL    HW278739   4.343   3.877   6.297 -0.6844 -0.5079  0.2742
23960SOL     OW78740   5.706   3.537   6.476 -0.1001  0.0288  0.0998
23960SOL    HW178741   5.785   3.590   6.471 -0.2981  0.3257  0.1119
23960SOL    HW278742   5.709   3.498   6.563 -1.5591  2.5613  1.4055
23961SOL     OW78743  10.301  10.364   5.491  0.1206 -0.1414  0.2481
23961SOL    HW178744  10.212  10.370   5.527 -1.1690 -0.2196 -2.6220
23961SOL    HW278745  10.335  10.453   5.498 -0.4790  0.0684  0.6554
23962SOL     OW78746   4.886  12.134  10.430  0.3189  0.0321 -0.1742
23962SOL    HW178747   4.808  12.086  10.457  0.1018  0.4917  0.0088
23962SOL    HW278748   4.920  12.173  10.511  0.4005  0.3295 -0.3512
23963SOL     OW78749   1.349   2.800   4.748 -0.0370 -0.5638  0.3760
23963SOL    HW178750   1.299   2.722   4.772  0.1661 -1.0672 -0.7526
23963SOL    HW278751   1.366   2.844   4.831 -1.6751 -0.7750  0.8611
23964SOL     OW78752   1.842   2.735   2.534  0.1801 -0.3416  0.4555
23964SOL    HW178753   1.887   2.810   2.571 -1.2856  0.5697  0.4927
23964SOL    HW278754   1.841   2.751   2.440  0.7027 -0.8069  0.3667
23965SOL     OW78755  11.391   6.710   4.181 -0.6747 -0.0311 -0.4692
23965SOL    HW178756  11.432   6.714   4.267 -1.3295  2.0703 -0.1965
23965SOL    HW278757  11.429   6.632   4.140  0.8630 -0.1725  1.0962
23966SOL     OW78758   4.824   1.887   5.105  0.2510 -0.4349  0.4067
23966SOL    HW178759   4.824   1.983   5.106  0.4106 -0.4309  2.0831
23966SOL    HW278760   4.738   1.864   5.071  0.0510  0.3067  0.3866
23967SOL     OW78761   4.196  11.742   6.766 -0.3396 -0.4097  0.3382
23967SOL    HW178762   4.196  11.833   6.736  0.0840 -0.1249  1.1505
23967SOL    HW278763   4.284  11.709   6.745  0.0216 -0.1528  1.3739
23968SOL     OW78764   2.581   4.332   2.645 -0.0776  0.4462 -0.0676
23968SOL    HW178765   2.624   4.277   2.580 -0.4746  1.6683 -1.4387
23968SOL    HW278766   2.621   4.419   2.632 -1.3024  1.0695  0.2083
23969SOL     OW78767   4.077   5.726   6.283 -0.4389  0.3984  0.0157
23969SOL    HW178768   4.005   5.671   6.250 -0.1169  0.9953 -1.7702
23969SOL    HW278769   4.089   5.697   6.374 -1.8067 -0.8739 -0.1660
23970SOL     OW78770  10.481   6.679   3.926 -0.2868  0.2945  0.3485
23970SOL    HW178771  10.461   6.727   3.846  1.0506 -2.3414 -1.7154
23970SOL    HW278772  10.396   6.665   3.967 -1.0415  1.4610 -0.7332
23971SOL     OW78773  11.103   9.100   9.412 -0.0691  0.6032  0.4097
23971SOL    HW178774  11.137   9.058   9.491 -0.3354 -0.0052  0.2075
23971SOL    HW278775  11.169   9.084   9.345 -0.1447  0.5555  0.3468
23972SOL     OW78776   1.269   5.412   6.110 -0.6704 -0.1555 -0.4839
23972SOL    HW178777   1.226   5.424   6.026 -1.2132 -1.1194 -0.3518
23972SOL    HW278778   1.363   5.422   6.090 -0.6677 -1.8761 -1.5002
23973SOL     OW78779   8.381   9.158  10.571 -0.3502  0.6008  0.1690
23973SOL    HW178780   8.300   9.133  10.525 -0.0087  0.4445 -0.3626
23973SOL    HW278781   8.441   9.184  10.501  0.2464  0.1867  0.5138
23974SOL     OW78782   8.472   0.171   2.056 -0.2187  0.0287  0.3403
23974SOL    HW178783   8.392   0.205   2.097  0.4899  0.6272  1.2481
23974SOL    HW278784   8.446   0.152   1.966 -1.2671  0.6765  0.4910
23975SOL     OW78785   9.548   5.321   1.230  0.0343 -0.3455  0.2279
23975SOL    HW178786   9.500   5.239   1.239  1.5875 -1.3592 -0.2467
23975SOL    HW278787   9.605   5.307   1.154  0.7609  0.9570  0.5018
23976SOL     OW78788   0.114   3.606   7.156  0.4732  0.3193  0.1920
23976SOL    HW178789   0.035   3.638   7.199 -0.6186 -0.3953 -1.1957
23976SOL    HW278790   0.132   3.522   7.198 -0.2921 -0.1306 -0.3304
23977SOL     OW78791   3.804   1.073   0.977  0.6230 -0.1599 -0.1914
23977SOL    HW178792   3.891   1.112   0.984  0.1524  0.6725  1.4534
23977SOL    HW278793   3.767   1.081   1.065 -0.5702 -1.8113 -0.4933
23978SOL     OW78794   1.048   9.558  11.550 -0.2144  1.1581 -0.2043
23978SOL    HW178795   1.089   9.501  11.615 -1.8576  1.4772  1.1974
23978SOL    HW278796   1.109   9.632  11.542  0.7385  0.3975 -0.1803
23979SOL     OW78797  10.995   2.220   0.763  0.6044  0.2363  0.0518
23979SOL    HW178798  11.012   2.314   0.766  0.2786  0.2749  1.1364
23979SOL    HW278799  10.913   2.209   0.811  0.8584 -0.6473  0.3036
23980SOL     OW78800   2.529   7.409   2.695  0.7235  0.4222 -0.1915
23980SOL    HW178801   2.622   7.409   2.719  0.4505 -3.3501  1.5951
23980SOL    HW278802   2.525   7.357   2.615  0.1026 -0.6753  0.5205
23981SOL     OW78803   3.724   3.025   7.835 -0.0532 -0.5062  0.5365
23981SOL    HW178804   3.760   3.062   7.755  0.4513  0.1676  1.0621
23981SOL    HW278805   3.722   3.098   7.897  0.0185 -1.1227  1.2925
23982SOL     OW78806   7.474   6.553   5.379 -0.0240  0.2920 -0.2958
23982SOL    HW178807   7.400   6.570   5.437 -0.1287  2.7207 -1.0520
23982SOL    HW278808   7.453   6.468   5.338 -1.3329 -0.0683  1.0395
23983SOL     OW78809   1.705  10.009   2.399 -0.0008  0.1519 -0.5741
23983SOL    HW178810   1.620  10.018   2.441 -0.5491  2.4936 -1.9657
23983SOL    HW278811   1.738   9.924   2.428 -1.6069  0.3397  2.1232
23984SOL     OW78812   8.308   3.723   4.635 -0.4531  0.1193 -0.1827
23984SOL    HW178813   8.235   3.683   4.589  1.5926 -2.7381 -1.3015
23984SOL    HW278814   8.340   3.653   4.693  1.2712  1.3055  0.3798
23985SOL     OW78815   4.433  11.584   1.820 -0.8583  0.2283  0.6224
23985SOL    HW178816   4.417  11.616   1.909 -1.8422  0.7742  0.2580
23985SOL    HW278817   4.346  11.572   1.782 -0.5001 -1.7422  0.3187
23986SOL     OW78818   6.952   9.825   6.186  0.1751 -0.1146 -0.1501
23986SOL    HW178819   6.864   9.856   6.206  0.2214 -0.7772  1.1548
23986SOL    HW278820   6.939   9.756   6.121 -0.3797 -0.9761  0.8539
23987SOL     OW78821  11.860   7.007  10.611 -0.1165  0.2644 -0.5070
23987SOL    HW178822  11.809   7.082  10.580  0.4724  0.4265 -1.0976
23987SOL    HW278823  11.834   6.935  10.553  0.1600  0.2939 -0.6696
23988SOL     OW78824   2.779   5.635   9.842 -0.2274  0.0797 -0.4948
23988SOL    HW178825   2.706   5.685   9.879 -1.2194 -0.3585 -1.7838
23988SOL    HW278826   2.780   5.553   9.891  0.1403  0.5532  0.2990
23989SOL     OW78827   9.937   8.720   0.404  0.1960 -0.2115  0.1779
23989SOL    HW178828   9.916   8.787   0.469  2.0302  0.8652 -0.2464
23989SOL    HW278829  10.026   8.691   0.427  0.5500 -0.4198 -1.3053
23990SOL     OW78830   1.037   1.159  10.458 -0.0833  0.6119  0.1983
23990SOL    HW178831   1.038   1.180  10.551 -1.6496 -1.1514  0.6774
23990SOL    HW278832   1.000   1.070  10.454  1.7887 -0.1533 -1.9645
23991SOL     OW78833   7.737   5.456   9.964 -0.7513  0.2432  0.1668
23991SOL    HW178834   7.718   5.375  10.012 -0.9805 -0.4508 -1.0344
23991SOL    HW278835   7.654   5.480   9.924 -0.3966  0.3490 -0.5223
23992SOL     OW78836   2.273   7.456   8.656  1.0239 -0.9308  0.3400
23992SOL    HW178837   2.213   7.528   8.633  1.0336 -0.5125  1.5435
23992SOL    HW278838   2.216   7.389   8.695  1.2481 -0.7505  1.0002
23993SOL     OW78839  10.570  12.110   6.611 -0.2064 -0.4261 -0.1466
23993SOL    HW178840  10.551  12.052   6.685 -1.2306 -0.1633 -0.1858
23993SOL    HW278841  10.645  12.162   6.640 -1.7960  1.0849  1.5688
23994SOL     OW78842   4.894   8.302   0.097  0.4111 -0.2131 -0.0230
23994SOL    HW178843   4.910   8.346   0.014  1.8402 -0.8607 -0.1135
23994SOL    HW278844   4.800   8.314   0.113  0.3972  1.1896 -0.9823
23995SOL     OW78845   5.230   7.384   4.824  0.4642  0.5056  0.2754
23995SOL    HW178846   5.245   7.291   4.839 -0.3464 -0.4775 -3.8769
23995SOL    HW278847   5.291   7.428   4.884  2.7463 -2.7205  0.5488
23996SOL     OW78848   3.937   4.673   9.121 -0.8254  0.1365 -0.2644
23996SOL    HW178849   3.870   4.661   9.189 -1.3991 -0.2833 -0.8878
23996SOL    HW278850   3.932   4.766   9.098 -2.0411 -0.1184 -1.1391
23997SOL     OW78851   1.037   5.302   2.982  0.2503  0.3924  0.2850
23997SOL    HW178852   1.016   5.225   3.034  0.5863  0.4867  0.5643
23997SOL    HW278853   1.128   5.322   3.005  0.6763 -0.0429 -0.9268
23998SOL     OW78854   6.941   2.312   7.085 -0.1101  0.0690 -0.5561
23998SOL    HW178855   6.852   2.278   7.092 -0.1203 -0.2851 -2.0723
23998SOL    HW278856   6.931   2.396   7.041  0.4022 -0.5487 -1.8802
23999SOL     OW78857  10.134   0.966   6.321  0.0426 -0.4795 -0.2389
23999SOL    HW178858  10.080   1.034   6.362 -0.4286 -0.7549 -0.4035
23999SOL    HW278859  10.169   1.008   6.242 -0.2866 -0.4389 -0.3668
24000SOL     OW78860   8.013   2.784   0.281  0.0088  0.3870  0.0253
24000SOL    HW178861   7.933   2.828   0.254 -0.0166 -0.0429 -0.6031
24000SOL    HW278862   7.986   2.695   0.302  0.4879 -0.0699 -1.2203
24001SOL     OW78863   2.515  10.785   9.783  0.2593  0.2336  0.2905
24001SOL    HW178864   2.421  10.793   9.801  0.2598  0.3219  0.2538
24001SOL    HW278865   2.533  10.691   9.792 -0.0166  0.0836 -0.5672
24002SOL     OW78866   0.869   7.005   6.938  0.1694  0.0410  0.1478
24002SOL    HW178867   0.870   6.917   6.901 -0.7670  0.1699 -0.2074
24002SOL    HW278868   0.833   7.060   6.868 -0.2968  0.5218  0.7557
24003SOL     OW78869   7.493   4.551   4.947 -0.1196  0.3038  0.4850
24003SOL    HW178870   7.410   4.592   4.974 -0.7114 -0.0485 -0.7386
24003SOL    HW278871   7.472   4.458   4.937  0.1167  0.3704 -0.9023
24004SOL     OW78872   7.509   0.716   7.861  0.3638 -0.2012  0.4214
24004SOL    HW178873   7.558   0.669   7.794 -1.6960 -1.3850 -0.3556
24004SOL    HW278874   7.566   0.788   7.887  1.6398 -0.2918 -1.8784
24005SOL     OW78875   3.818   4.320  10.969 -0.2430 -0.8164  0.1735
24005SOL    HW178876   3.892   4.262  10.952  0.6322  0.4194 -0.4212
24005SOL    HW278877   3.753   4.297  10.903  1.4264  1.0585 -2.3462
24006SOL     OW78878   4.432   9.652   4.898 -0.1163 -1.0446  0.3423
24006SOL    HW178879   4.503   9.702   4.856  0.8210 -0.9858  1.9381
24006SOL    HW278880   4.412   9.583   4.835  1.1004 -0.8417 -0.3049
24007SOL     OW78881   5.929  10.457   8.711  0.2769  0.0282  0.0283
24007SOL    HW178882   5.920  10.430   8.620  0.5237  0.7648 -0.2254
24007SOL    HW278883   5.898  10.382   8.762  2.2187 -1.2652 -0.5839
24008SOL     OW78884   2.977   4.995   6.496  0.6777  0.3181 -0.4322
24008SOL    HW178885   3.056   5.018   6.544 -0.1180  1.4536  0.3804
24008SOL    HW278886   2.906   5.041   6.541 -0.3900 -0.2609 -1.4374
24009SOL     OW78887   7.319   9.943   5.103 -0.3311 -0.4303 -0.1877
24009SOL    HW178888   7.401   9.897   5.117 -0.1561  0.3581  1.5826
24009SOL    HW278889   7.251   9.880   5.128 -0.2632 -0.8612 -1.0466
24010SOL     OW78890   8.817   8.780   9.004 -0.0690  0.2763  0.0503
24010SOL    HW178891   8.773   8.830   8.936  0.6225  0.1535 -0.5048
24010SOL    HW278892   8.829   8.693   8.965  0.3230  0.2030  0.3307
24011SOL     OW78893   4.459   1.417   8.732 -0.0124  0.3387 -0.1505
24011SOL    HW178894   4.365   1.404   8.744 -0.1302  0.7880 -0.5928
24011SOL    HW278895   4.466   1.497   8.680  0.6323  0.6703  0.4333
24012SOL     OW78896   9.437   7.984   2.095  0.7320 -0.2442  0.1289
24012SOL    HW178897   9.405   7.895   2.106  0.0322 -0.0762 -0.4501
24012SOL    HW278898   9.531   7.978   2.111  0.3316 -0.5604  2.9162
24013SOL     OW78899   7.245   4.209   1.383  0.2831  0.2315 -0.8303
24013SOL    HW178900   7.242   4.193   1.477 -1.0648 -1.2246 -1.0725
24013SOL    HW278901   7.183   4.280   1.368 -1.1307 -0.9493 -0.8189
24014SOL     OW78902   4.445  10.228   6.422 -0.1720 -0.5130 -0.3839
24014SOL    HW178903   4.370  10.236   6.363  0.2514 -0.0372 -0.8773
24014SOL    HW278904   4.479  10.317   6.429 -0.4251 -0.4979  0.8792
24015SOL     OW78905   3.342   6.129   6.391  0.1926  0.5991 -0.0875
24015SOL    HW178906   3.416   6.169   6.437  1.4422 -0.0742 -1.4404
24015SOL    HW278907   3.313   6.197   6.330  1.4346 -0.0165 -1.4182
24016SOL     OW78908   7.427   0.940   3.264  1.0300  0.2301 -0.2727
24016SOL    HW178909   7.345   0.922   3.219  1.0963 -0.3003 -0.1929
24016SOL    HW278910   7.424   1.033   3.285 -0.3464 -0.1303  1.3271
24017SOL     OW78911   7.373   9.013   4.380  0.4134 -0.0001 -0.1410
24017SOL    HW178912   7.465   9.015   4.356  0.0581  3.5955 -1.7565
24017SOL    HW278913   7.326   9.019   4.297 -1.1808  1.3441  0.8091
24018SOL     OW78914   3.595  10.420   3.723  0.8293 -0.0114  0.5792
24018SOL    HW178915   3.585  10.326   3.705 -0.2411  0.2833 -0.4718
24018SOL    HW278916   3.689  10.436   3.713  1.1782 -1.1415  1.7420
24019SOL     OW78917   5.742   6.414   9.650  0.5984  0.0362 -0.0195
24019SOL    HW178918   5.727   6.503   9.617  0.0983  0.3210  0.9369
24019SOL    HW278919   5.801   6.375   9.586 -1.2046  0.1691 -1.8587
24020SOL     OW78920   3.002   5.009   3.850  0.0172  0.2630 -0.6883
24020SOL    HW178921   3.024   4.923   3.886 -0.2600 -0.0470 -1.2548
24020SOL    HW278922   3.042   5.010   3.763  0.3565  0.8632 -0.5338
24021SOL     OW78923  10.203   0.566  11.652  0.1013 -0.2972 -0.6083
24021SOL    HW178924  10.294   0.593  11.645 -0.0849  0.2158 -1.1413
24021SOL    HW278925  10.153   0.644  11.630 -0.4509 -0.9092 -1.6194
24022SOL     OW78926   5.288  10.371   0.584 -0.8630 -0.0598  0.0785
24022SOL    HW178927   5.211  10.349   0.636 -1.2409  1.5737  0.2562
24022SOL    HW278928   5.359  10.321   0.625 -1.6085 -0.7001  0.6243
24023SOL     OW78929   6.120  10.986  10.530 -0.4232  0.0748  0.2171
24023SOL    HW178930   6.069  11.067  10.533 -0.0285  0.3096  1.0541
24023SOL    HW278931   6.161  10.987  10.443 -1.0851  0.3488 -0.1010
24024SOL     OW78932   6.839   4.141  10.605  0.2627  0.2731 -0.1044
24024SOL    HW178933   6.750   4.170  10.622  0.2469  1.6193 -2.1132
24024SOL    HW278934   6.893   4.219  10.620  0.9786 -0.2656  0.1865
24025SOL     OW78935  11.989   6.301   2.974  0.2793  0.4565  0.1007
24025SOL    HW178936  11.988   6.316   2.880  0.6598  1.5790  0.2649
24025SOL    HW278937  12.076   6.331   3.002  0.3162 -0.2268  0.7545
24026SOL     OW78938   9.662   3.592   5.377 -0.8052 -0.3548  0.0987
24026SOL    HW178939   9.752   3.600   5.408 -0.7541 -0.3446 -0.0507
24026SOL    HW278940   9.654   3.500   5.352 -0.1621  0.0830 -1.9394
24027SOL     OW78941   4.137   4.857   2.444 -0.1208  0.2201  0.0875
24027SOL    HW178942   4.113   4.948   2.463  1.1270  0.6853 -0.4526
24027SOL    HW278943   4.087   4.835   2.366 -0.9261  0.2078  0.5919
24028SOL     OW78944   4.285   8.095  10.692  0.8874  0.3288  0.0572
24028SOL    HW178945   4.327   8.069  10.774  1.1899  0.4405 -0.0575
24028SOL    HW278946   4.220   8.027  10.674 -1.0418  1.6404  1.7464
24029SOL     OW78947  12.241  11.209  10.615 -0.4240 -0.2221 -0.0982
24029SOL    HW178948  12.317  11.262  10.589 -1.5062  2.0833  1.1184
24029SOL    HW278949  12.174  11.230  10.550 -1.5805  1.7995  1.6076
24030SOL     OW78950   7.489  10.701   7.228 -0.2581 -0.3291  0.1630
24030SOL    HW178951   7.465  10.712   7.136 -0.5892  0.0201  0.2875
24030SOL    HW278952   7.426  10.755   7.276  1.8070  2.1079  0.3819
24031SOL     OW78953   0.621   8.105   8.780  0.1102  0.3435 -0.2348
24031SOL    HW178954   0.609   8.199   8.793 -0.5140  0.3530 -0.8218
24031SOL    HW278955   0.599   8.067   8.865 -0.6516  0.6563 -0.2836
24032SOL     OW78956   1.612   6.315   2.099 -0.5391 -0.1637 -0.2979
24032SOL    HW178957   1.638   6.401   2.133 -0.2284 -0.9703  1.6204
24032SOL    HW278958   1.694   6.273   2.076 -0.5672 -0.5303  0.2601
24033SOL     OW78959  10.589   8.321   9.320 -0.5956  0.2294 -0.7189
24033SOL    HW178960  10.549   8.406   9.338 -1.4658 -0.4022  0.4587
24033SOL    HW278961  10.681   8.332   9.343 -0.8154  0.7031 -0.0313
24034SOL     OW78962   1.269   0.583   2.316 -0.0823 -0.0896  0.0302
24034SOL    HW178963   1.290   0.498   2.278  1.2285  0.4701 -0.5360
24034SOL    HW278964   1.187   0.609   2.273  0.3711 -0.3365 -1.0057
24035SOL     OW78965   2.024   4.269   6.726 -0.2056 -0.2706  0.0507
24035SOL    HW178966   2.015   4.193   6.784 -0.1829  0.3444  0.8805
24035SOL    HW278967   2.117   4.287   6.724  0.2596 -2.2164 -2.7701
24036SOL     OW78968   8.521   1.834   9.798  0.1637  0.2981 -0.5034
24036SOL    HW178969   8.580   1.788   9.857  1.5433 -0.4220 -2.3627
24036SOL    HW278970   8.434   1.801   9.820  0.8579 -1.3482 -0.1033
24037SOL     OW78971   8.257   7.164   9.082 -0.5174  0.0522 -0.1673
24037SOL    HW178972   8.168   7.192   9.101 -0.5248 -1.0370  1.6344
24037SOL    HW278973   8.306   7.185   9.162  0.1933 -2.0155 -0.0107
24038SOL     OW78974   3.650   9.016   1.426  0.9410 -0.5569 -0.2703
24038SOL    HW178975   3.655   8.977   1.514  2.3019  1.2527  0.5416
24038SOL    HW278976   3.734   9.061   1.416  0.1905  0.5756 -1.8707
24039SOL     OW78977   5.598   4.631   5.101  0.4326  0.2459 -0.3932
24039SOL    HW178978   5.572   4.627   5.193 -0.2612 -0.2417 -0.6017
24039SOL    HW278979   5.681   4.583   5.097  2.0497  2.7894  0.4836
24040SOL     OW78980  12.095  10.317  11.969  0.6519 -0.0842  0.0840
24040SOL    HW178981  12.165  10.316  11.903 -0.4189 -1.5691 -1.0797
24040SOL    HW278982  12.132  10.269  12.043  0.9682 -0.6224 -0.4182
24041SOL     OW78983   4.551   2.753   8.908  0.2800  0.4447  0.1972
24041SOL    HW178984   4.545   2.831   8.852 -0.4032  0.9268  0.9060
24041SOL    HW278985   4.540   2.787   8.997  1.2725 -0.3159  0.6277
24042SOL     OW78986   4.703  11.024   3.595 -0.4481 -0.0911 -0.5549
24042SOL    HW178987   4.726  11.089   3.528 -1.2945  1.4148  0.5477
24042SOL    HW278988   4.774  11.030   3.659 -0.3499 -0.5154 -0.6241
24043SOL     OW78989   4.688   4.040   0.386  0.5191 -0.3038  0.6678
24043SOL    HW178990   4.612   4.076   0.339  0.3414  1.0739  1.9190
24043SOL    HW278991   4.701   3.953   0.348 -0.4443  0.2106 -0.9573
24044SOL     OW78992  11.453   5.305   4.025  0.0703  0.1216  0.5859
24044SOL    HW178993  11.386   5.311   4.093 -0.1344 -0.5872  0.4515
24044SOL    HW278994  11.403   5.294   3.944  0.3649 -1.3394  0.5913
24045SOL     OW78995  11.738   8.300  12.422 -0.2331 -0.2842 -0.3412
24045SOL    HW178996  11.659   8.346  12.393 -0.3740 -1.0564 -1.2450
24045SOL    HW278997  11.762   8.343  12.504  0.4708  2.3776 -1.8029
24046SOL     OW78998   3.678  11.025   6.753 -0.1367  0.0939  0.1395
24046SOL    HW178999   3.618  11.092   6.785 -1.8640 -0.9451 -0.7434
24046SOL    HW279000   3.748  11.074   6.711  0.0448  1.3646  1.8338
24047SOL     OW79001   2.914   1.910   1.000 -0.3603 -0.1554  0.1028
24047SOL    HW179002   2.976   1.943   0.935  1.0191  0.9341  1.8677
24047SOL    HW279003   2.944   1.822   1.020  0.2601  0.1398  0.4929
24048SOL     OW79004   7.170   8.024   0.122  0.1382 -0.4462  0.1942
24048SOL    HW179005   7.200   8.115   0.112 -2.3708  0.5785  1.1689
24048SOL    HW279006   7.187   8.004   0.214 -2.2886  0.2971  0.8753
24049SOL     OW79007  10.806   6.531   4.292  0.2488 -0.1141  0.5192
24049SOL    HW179008  10.765   6.594   4.233 -0.2588 -0.7016  0.2343
24049SOL    HW279009  10.886   6.574   4.322 -0.5975  1.0914  1.1467
24050SOL     OW79010   5.905   9.003   4.038 -0.0885 -1.0053 -0.2037
24050SOL    HW179011   5.832   9.064   4.049 -1.2650 -2.2833 -0.5659
24050SOL    HW279012   5.983   9.056   4.049 -1.0802  0.2858  0.8952
24051SOL     OW79013   0.650   5.241   7.756 -0.1628  0.0561  0.1768
24051SOL    HW179014   0.604   5.304   7.700 -0.6498  0.8116  1.3977
24051SOL    HW279015   0.662   5.286   7.839  1.5361 -0.6471  0.3669
24052SOL     OW79016   2.300   7.300   1.873 -0.3606 -0.3028 -0.3760
24052SOL    HW179017   2.274   7.215   1.837 -0.3529 -0.5809  0.2607
24052SOL    HW279018   2.381   7.282   1.920 -1.3374 -0.3576  1.3733
24053SOL     OW79019   9.137   1.965   5.445 -0.1607  0.2759 -0.3345
24053SOL    HW179020   9.110   2.012   5.524  0.4031 -0.5143  0.3506
24053SOL    HW279021   9.188   1.891   5.478  1.3712  0.7611 -1.4874
24054SOL     OW79022   0.189   7.101   3.680  0.2879 -0.4228 -0.2616
24054SOL    HW179023   0.241   7.124   3.603  0.5064  2.2662  0.5605
24054SOL    HW279024   0.127   7.174   3.689 -1.8363 -2.2076  0.3447
24055SOL     OW79025  10.460   6.205   8.364 -0.2428 -0.5080  0.2591
24055SOL    HW179026  10.491   6.144   8.297 -0.0859 -0.5258  0.3489
24055SOL    HW279027  10.382   6.163   8.400 -0.0631 -0.7110  0.4081
24056SOL     OW79028   6.877   3.984   2.646 -0.1501  0.4233 -0.3993
24056SOL    HW179029   6.853   3.905   2.695  0.1430  1.4743  1.5121
24056SOL    HW279030   6.941   3.953   2.581 -0.3033 -0.9680  0.0840
24057SOL     OW79031   1.165  11.852  11.048 -0.2504 -0.0662 -0.1029
24057SOL    HW179032   1.166  11.763  11.084 -1.5933  0.2881  0.8864
24057SOL    HW279033   1.116  11.903  11.112  0.4701  1.4028 -0.6729
24058SOL     OW79034   7.301   2.812  11.626  0.1992 -0.4570  0.6317
24058SOL    HW179035   7.363   2.811  11.554  0.5352  0.1509  0.9065
24058SOL    HW279036   7.218   2.783  11.587  0.8721 -2.2999  0.4871
24059SOL     OW79037   6.532   6.043  10.532 -0.0195 -0.8471 -0.2190
24059SOL    HW179038   6.603   5.985  10.506 -1.7996 -3.1566 -0.2467
24059SOL    HW279039   6.531   6.111  10.465  1.5347 -1.2684 -0.7171
24060SOL     OW79040   6.230   6.595  11.026 -0.2498  0.0581  0.0942
24060SOL    HW179041   6.229   6.555  10.939 -0.2253 -0.0651  0.1501
24060SOL    HW279042   6.221   6.689  11.010 -0.8099 -0.0085 -0.0115
24061SOL     OW79043   3.805   3.363   0.484  0.1222 -0.0563  0.5184
24061SOL    HW179044   3.722   3.359   0.436 -0.8551  1.0433  2.0451
24061SOL    HW279045   3.805   3.449   0.526  2.3400  0.2335  0.0796
24062SOL     OW79046   5.551   6.301  11.777 -0.3252 -0.4635 -0.5513
24062SOL    HW179047   5.463   6.278  11.805 -0.1812 -0.9030 -0.4512
24062SOL    HW279048   5.566   6.249  11.698 -0.3083 -0.0780 -0.8074
24063SOL     OW79049  10.156   1.166   9.495  0.0115 -0.0524  0.0610
24063SOL    HW179050  10.158   1.189   9.402 -0.8881 -0.9595 -0.1991
24063SOL    HW279051  10.233   1.111   9.508  0.3530  0.3912 -0.0537
24064SOL     OW79052   7.388  12.468   0.986 -0.0826  0.3678  0.0321
24064SOL    HW179053   7.454  12.470   1.055 -1.4596 -2.8360  1.6367
24064SOL    HW279054   7.389  12.379   0.953 -0.7662  1.3212 -2.9218
24065SOL     OW79055   5.475   2.872  12.052 -0.0202  0.0752  0.2714
24065SOL    HW179056   5.477   2.783  12.087 -0.3433 -0.3623 -0.7952
24065SOL    HW279057   5.415   2.919  12.110  0.3666 -0.3190  1.0123
24066SOL     OW79058   9.173   4.253   0.843 -0.9353  0.5015 -0.0355
24066SOL    HW179059   9.113   4.187   0.876 -2.1977  1.8925  0.5688
24066SOL    HW279060   9.155   4.331   0.896  2.5158  0.5818  1.2672
24067SOL     OW79061   0.810   5.274   9.338 -0.1739  0.4789 -0.0617
24067SOL    HW179062   0.779   5.279   9.428  0.4459  3.5716  0.0902
24067SOL    HW279063   0.880   5.208   9.341 -0.9991 -0.4080  1.3838
24068SOL     OW79064   1.984   0.942  11.588  0.3692  0.4428  0.1454
24068SOL    HW179065   2.029   0.935  11.504  0.3758 -0.3714  0.2130
24068SOL    HW279066   1.988   0.855  11.625  2.6388  1.3134  2.1955
24069SOL     OW79067   5.874  10.231   7.837  0.1347  0.0297 -0.9391
24069SOL    HW179068   5.951  10.176   7.818 -0.8249 -1.3364 -1.0239
24069SOL    HW279069   5.813  10.211   7.766 -0.9104 -0.0913 -0.0226
24070SOL     OW79070   6.065   4.336  10.620 -0.2105 -0.7379  0.4057
24070SOL    HW179071   6.157   4.345  10.646 -0.0304  0.1734 -0.5164
24070SOL    HW279072   6.052   4.402  10.553 -0.8762 -2.5146 -1.3163
24071SOL     OW79073   8.206   5.246  10.565  0.3129 -0.1116  1.1454
24071SOL    HW179074   8.114   5.220  10.574 -0.0029  0.7522  0.6150
24071SOL    HW279075   8.246   5.222  10.648 -0.4367 -0.3551  1.4456
24072SOL     OW79076   1.156   9.329  11.434 -0.0502 -0.1285  0.5511
24072SOL    HW179077   1.137   9.257  11.494  1.5831  0.8710  2.3971
24072SOL    HW279078   1.106   9.403  11.469 -1.1119 -0.1294 -0.8725
24073SOL     OW79079   9.860   0.238   2.814 -0.7948  0.3610 -0.2970
24073SOL    HW179080   9.767   0.236   2.836 -0.1773 -0.3562  2.6636
24073SOL    HW279081   9.880   0.149   2.786 -0.4270 -0.4710  2.3017
24074SOL     OW79082   1.061   9.597   5.806  0.1203  0.2143 -0.3250
24074SOL    HW179083   1.058   9.689   5.779  0.4056  0.6434  1.0292
24074SOL    HW279084   0.987   9.587   5.865  0.3503 -0.3186 -0.1221
24075SOL     OW79085   3.841   0.434   0.916 -0.4768  0.2186  1.0413
24075SOL    HW179086   3.784   0.441   0.993  1.2965  2.6609  2.2988
24075SOL    HW279087   3.927   0.414   0.952  0.4155  1.4855 -0.2425
24076SOL     OW79088  11.952   5.492   1.269 -0.0836 -0.1001  0.0279
24076SOL    HW179089  11.959   5.572   1.321 -1.3585  0.3630 -0.4514
24076SOL    HW279090  11.976   5.519   1.181  0.3102 -0.4506  0.0278
24077SOL     OW79091   0.800  10.954   6.418 -0.5998 -0.1540  0.1503
24077SOL    HW179092   0.856  11.019   6.459 -0.0763  0.4775 -1.4871
24077SOL    HW279093   0.718  11.001   6.401 -0.1064  0.2370 -1.3394
24078SOL     OW79094   6.213   4.353   2.062  0.9048  0.2254  0.2608
24078SOL    HW179095   6.179   4.411   2.130  1.3116  0.5884  0.1573
24078SOL    HW279096   6.159   4.371   1.985  2.2050  1.8339 -0.3284
24079SOL     OW79097   8.861  10.038   6.802 -0.2915  0.2130  0.2942
24079SOL    HW179098   8.830  10.107   6.743  0.1283 -0.9590 -1.3759
24079SOL    HW279099   8.782  10.006   6.846 -0.6713  0.8151  0.0645
24080SOL     OW79100   0.329   0.698   2.988  0.3947  0.8715 -0.1265
24080SOL    HW179101   0.421   0.711   2.963 -0.0819  1.8855 -1.4135
24080SOL    HW279102   0.279   0.713   2.908 -0.8692 -0.4036  0.3755
24081SOL     OW79103   5.078   8.019   9.582  0.4854 -0.2067  0.6641
24081SOL    HW179104   5.162   7.989   9.546 -0.0398 -1.6970  0.6019
24081SOL    HW279105   5.024   7.940   9.584 -0.7071  0.6037  1.3156
24082SOL     OW79106   4.047   9.342   2.868  0.4765  0.0603  0.1799
24082SOL    HW179107   3.982   9.283   2.907 -0.1043  0.8928  0.5053
24082SOL    HW279108   4.054   9.313   2.777 -2.6180  1.7587 -0.7462
24083SOL     OW79109   1.216   1.066   8.688 -0.5561 -0.1153  0.0454
24083SOL    HW179110   1.228   1.034   8.599 -1.6258 -0.6406  0.0795
24083SOL    HW279111   1.125   1.097   8.691 -0.3506  0.4660  0.7780
24084SOL     OW79112   8.530   3.565   5.854  0.0724  0.1117  1.0016
24084SOL    HW179113   8.506   3.655   5.835  0.2258  0.0345  0.4045
24084SOL    HW279114   8.446   3.519   5.862 -0.0397  0.5471  2.6155
24085SOL     OW79115   2.820   5.075   0.719 -0.3397  0.0254 -0.1590
24085SOL    HW179116   2.866   5.149   0.758 -1.3330  0.5835 -0.0146
24085SOL    HW279117   2.806   5.100   0.628 -0.0512 -0.2931 -0.2937
24086SOL     OW79118   2.039  11.082   0.112 -0.3697 -0.3349  0.0392
24086SOL    HW179119   1.996  11.015   0.060  1.3999 -0.7288 -1.0194
24086SOL    HW279120   2.132  11.072   0.092  0.5334 -0.8824  3.7167
24087SOL     OW79121   3.213   7.302   1.013 -0.1657 -0.4160  0.4338
24087SOL    HW179122   3.194   7.383   0.965 -0.4418 -1.3061 -1.0091
24087SOL    HW279123   3.299   7.317   1.051  0.2879  0.1388 -0.7544
24088SOL     OW79124   3.093  10.071  10.210  0.0536 -0.2589 -0.2297
24088SOL    HW179125   3.179  10.099  10.238  1.2252 -2.0187 -1.7978
24088SOL    HW279126   3.053  10.032  10.288 -0.0371  2.0000  0.9243
24089SOL     OW79127   4.220   7.225   3.709 -0.2081 -0.0913  0.1165
24089SOL    HW179128   4.176   7.200   3.627 -0.0402  1.6614 -0.5416
24089SOL    HW279129   4.157   7.281   3.753  0.2659  0.1202  0.5284
24090SOL     OW79130   6.564   9.230  11.690 -0.0273 -0.3148 -0.2212
24090SOL    HW179131   6.480   9.275  11.703  0.4354  0.4641  0.1365
24090SOL    HW279132   6.565   9.161  11.757  0.0383  0.3000  0.4190
24091SOL     OW79133  10.945   0.824   7.663 -0.1856 -0.2517 -0.8005
24091SOL    HW179134  10.904   0.910   7.670 -0.5198 -0.3466 -1.4330
24091SOL    HW279135  10.902   0.771   7.730  2.0366  0.7903  1.6219
24092SOL     OW79136   7.843  11.094   6.053 -0.0443 -0.0475  0.3345
24092SOL    HW179137   7.803  11.037   5.987  1.5439  1.0945 -1.7486
24092SOL    HW279138   7.894  11.035   6.108  0.6334 -0.8248 -1.0590
24093SOL     OW79139   3.311  10.397   9.203 -0.5837 -0.0658 -0.0024
24093SOL    HW179140   3.328  10.392   9.109  0.5441 -0.7101  0.2240
24093SOL    HW279141   3.346  10.481   9.230 -2.6833  1.0378 -0.4748
24094SOL     OW79142  10.303   0.000   3.660 -0.4239 -0.4016  0.0167
24094SOL    HW179143  10.297   0.051   3.741  1.3546 -0.9489  0.5236
24094SOL    HW279144  10.238   0.041   3.602  0.1539  1.7732  0.7784
24095SOL     OW79145   7.816   4.228   5.735 -0.3029 -0.2396  0.1754
24095SOL    HW179146   7.752   4.221   5.806 -1.2801  1.5403 -0.4819
24095SOL    HW279147   7.768   4.200   5.657 -0.1010  0.4651 -0.2104
24096SOL     OW79148  11.860  12.123  10.012 -0.6064  0.3979 -0.0298
24096SOL    HW179149  11.872  12.159  10.100 -1.7868  1.8828 -0.4281
24096SOL    HW279150  11.932  12.160   9.961 -2.0351  2.7162 -0.5341
24097SOL     OW79151   1.598   8.183   0.215 -0.2387  0.1969  0.0047
24097SOL    HW179152   1.678   8.148   0.255  0.1353  1.5918  0.5770
24097SOL    HW279153   1.591   8.138   0.131  0.4203 -0.9057  0.5137
24098SOL     OW79154   2.816  12.310  11.494  0.1747 -0.0179  0.4753
24098SOL    HW179155   2.822  12.219  11.464 -1.9115  0.3301 -1.2539
24098SOL    HW279156   2.872  12.313  11.571  0.7746 -2.6185  0.2483
24099SOL     OW79157   4.906   1.368   6.661  0.0981  0.0178 -0.7694
24099SOL    HW179158   4.899   1.322   6.578 -0.3328 -0.0961 -0.6733
24099SOL    HW279159   4.820   1.359   6.701  0.8036 -1.5138  0.5173
24100SOL     OW79160   3.527   4.112   4.589  0.6501  0.6817  0.0769
24100SOL    HW179161   3.464   4.044   4.565  0.8899  0.0112  1.2216
24100SOL    HW279162   3.477   4.193   4.591  0.1812  0.4108 -0.5517
24101SOL     OW79163   3.935   5.403  11.601  0.2062 -0.2213  0.2273
24101SOL    HW179164   3.924   5.492  11.635  0.3548  0.4763 -1.4944
24101SOL    HW279165   4.029   5.387  11.603  0.1686 -0.4319  0.6900
24102SOL     OW79166   6.220  11.434   9.678 -0.0920  0.0253  0.3414
24102SOL    HW179167   6.249  11.524   9.690  0.3786 -0.1277  0.3383
24102SOL    HW279168   6.277  11.399   9.610  0.0999 -0.4535  0.7441
24103SOL     OW79169   2.324   8.663   0.032 -0.1287 -0.1864  0.3484
24103SOL    HW179170   2.314   8.583  -0.020 -0.0141 -0.6268  0.9910
24103SOL    HW279171   2.407   8.651   0.078  1.4009  1.5840 -1.7221
24104SOL     OW79172  10.227  11.285   0.413 -0.0018  0.0820  0.0372
24104SOL    HW179173  10.193  11.358   0.464 -0.9801  0.5067 -1.1830
24104SOL    HW279174  10.204  11.306   0.323  0.1548 -1.4843 -0.3918
24105SOL     OW79175   2.206   8.435   5.192 -0.4415 -0.5314  0.2192
24105SOL    HW179176   2.277   8.436   5.257 -0.3731  0.1798  0.1355
24105SOL    HW279177   2.131   8.401   5.240 -0.0220 -1.4342  0.2737
24106SOL     OW79178   1.040   1.679  10.108  0.2037 -0.1858 -0.0004
24106SOL    HW179179   0.997   1.760  10.079  2.0479  0.7918 -0.2094
24106SOL    HW279180   1.108   1.665  10.042  1.9734 -0.1068  1.7428
24107SOL     OW79181   2.788  10.956   7.781  0.4163  0.6994  0.1054
24107SOL    HW179182   2.877  10.984   7.803  0.3153 -0.2669  1.8586
24107SOL    HW279183   2.732  11.002   7.843 -0.2790  0.8719 -0.6321
24108SOL     OW79184  12.378   9.553  11.094 -0.4015 -0.0180  0.5855
24108SOL    HW179185  12.308   9.615  11.114 -0.3107  0.3791 -0.2580
24108SOL    HW279186  12.332   9.475  11.062 -0.4776  0.0231  0.5947
24109SOL     OW79187   3.884   7.000   4.431 -0.4445 -0.1021 -0.2175
24109SOL    HW179188   3.949   7.060   4.469  0.4358 -2.0507  1.5199
24109SOL    HW279189   3.936   6.931   4.390 -1.4360 -0.4415 -0.9310
24110SOL     OW79190   7.834   3.289   2.133 -0.0244  0.3530  0.7034
24110SOL    HW179191   7.811   3.317   2.222 -0.6641  0.5448  0.4858
24110SOL    HW279192   7.790   3.352   2.076 -0.2626 -0.2212  0.2365
24111SOL     OW79193  11.796   4.392   7.332 -0.0244  0.0418 -0.2004
24111SOL    HW179194  11.776   4.396   7.426  0.0986 -0.3570 -0.1568
24111SOL    HW279195  11.711   4.380   7.290 -0.1944  1.1412 -0.2125
24112SOL     OW79196  10.883   3.355  10.933 -0.4092  0.8760  0.3121
24112SOL    HW179197  10.913   3.345  10.843 -1.3560  0.8375 -0.0062
24112SOL    HW279198  10.883   3.450  10.948  1.4507  0.8296  0.8810
24113SOL     OW79199  11.399  11.645   0.413  0.6241 -0.6375 -0.1518
24113SOL    HW179200  11.311  11.608   0.410  0.8470 -1.2169  0.2814
24113SOL    HW279201  11.449  11.584   0.467  0.7404  0.8583  1.5293
24114SOL     OW79202   4.262  11.601  11.038  0.1363  0.0460  0.3490
24114SOL    HW179203   4.352  11.578  11.013 -0.4537 -0.7971 -1.1628
24114SOL    HW279204   4.257  11.696  11.026  0.3554 -0.1155 -1.3526
24115SOL     OW79205   0.810   9.170   7.803  0.1737  0.0748  0.0203
24115SOL    HW179206   0.862   9.250   7.803 -0.6017  0.5855  0.7176
24115SOL    HW279207   0.739   9.187   7.741 -0.9566  0.5890  1.4110
24116SOL     OW79208   0.896   3.604   2.466  0.5992 -0.5999  0.3678
24116SOL    HW179209   0.934   3.547   2.532 -1.4903 -2.6682 -0.0746
24116SOL    HW279210   0.856   3.675   2.515  1.0752 -0.8651  1.1481
24117SOL     OW79211   3.303   7.557   4.490  0.2700  0.3682 -0.0978
24117SOL    HW179212   3.371   7.547   4.556  1.1640  0.1366 -1.0174
24117SOL    HW279213   3.296   7.652   4.478  0.9330  0.3776 -0.4808
24118SOL     OW79214   1.571   7.105   6.225  0.2329  0.1390 -0.5392
24118SOL    HW179215   1.499   7.087   6.286  0.8007 -2.1694 -0.4495
24118SOL    HW279216   1.649   7.075   6.272  0.8002 -0.7390 -1.9864
24119SOL     OW79217   2.519   0.420   1.980  0.0662 -0.2923  0.3285
24119SOL    HW179218   2.440   0.386   2.023  0.4038 -1.4243  0.0852
24119SOL    HW279219   2.568   0.462   2.051 -1.3034  1.5187  0.2607
24120SOL     OW79220   7.308   9.643   3.934  0.0215 -0.4483 -0.5000
24120SOL    HW179221   7.275   9.607   3.852  1.6470 -2.8992 -0.1860
24120SOL    HW279222   7.373   9.708   3.906 -1.6884  1.1009 -1.0807
24121SOL     OW79223   3.909   9.955   5.124 -0.6345  0.7727  0.1258
24121SOL    HW179224   3.921   9.862   5.103 -1.1113  0.5467  0.8412
24121SOL    HW279225   3.981   9.976   5.183  0.2258  1.2019 -1.0275
24122SOL     OW79226   8.872   8.562   5.998  0.6700 -0.2906  0.1893
24122SOL    HW179227   8.839   8.476   5.970  0.3775 -0.4495  0.9843
24122SOL    HW279228   8.870   8.558   6.094 -2.3049  1.6974  0.3472
24123SOL     OW79229   8.320   1.524  10.262 -0.6143  0.0295  0.5612
24123SOL    HW179230   8.415   1.530  10.260 -0.5457 -0.8877  0.4367
24123SOL    HW279231   8.298   1.520  10.355 -0.5493  0.4430  0.5953
24124SOL     OW79232  10.141   7.469   6.239  0.0975  0.1177 -0.2181
24124SOL    HW179233  10.186   7.553   6.232 -0.3611  0.4115  0.2074
24124SOL    HW279234  10.085   7.465   6.162 -0.8923  0.8410  0.4284
24125SOL     OW79235   4.725   5.210   9.108 -0.6932 -0.4627 -0.0278
24125SOL    HW179236   4.681   5.274   9.053  0.7419  0.4340 -0.1861
24125SOL    HW279237   4.817   5.235   9.105 -0.4256 -1.0702  1.8770
24126SOL     OW79238   7.489   1.754   0.569  0.7124 -0.9176  0.2840
24126SOL    HW179239   7.450   1.839   0.549 -0.0386 -1.1154  0.8500
24126SOL    HW279240   7.465   1.698   0.494  0.7756 -0.7663  0.1508
24127SOL     OW79241   2.147   1.386   9.217 -0.1601  0.6128 -0.2587
24127SOL    HW179242   2.212   1.453   9.237 -1.8782  2.3585 -0.3281
24127SOL    HW279243   2.196   1.320   9.167  1.5815  1.7663 -0.1552
24128SOL     OW79244   1.318   7.764   7.735  0.6958  0.8236  0.4863
24128SOL    HW179245   1.252   7.731   7.673 -0.1350  0.6330  1.4406
24128SOL    HW279246   1.382   7.694   7.741 -0.3997 -0.1407  1.5359
24129SOL     OW79247   4.133   9.968   7.761 -0.0548  0.4036  0.9395
24129SOL    HW179248   4.182  10.043   7.728  0.6421 -0.3491  0.1870
24129SOL    HW279249   4.168   9.952   7.849 -1.0321  1.6574  1.5765
24130SOL     OW79250   1.452  10.848   1.682 -0.3887 -0.0968 -0.3607
24130SOL    HW179251   1.428  10.772   1.629  0.9782 -0.1105 -0.9998
24130SOL    HW279252   1.479  10.914   1.618 -0.2930  0.4705  0.2539
24131SOL     OW79253   7.085   4.467   2.654 -0.4516  0.0461 -0.0745
24131SOL    HW179254   7.096   4.415   2.574 -1.4847 -0.7586  0.2828
24131SOL    HW279255   6.994   4.495   2.652 -0.5930 -0.2914  0.9981
24132SOL     OW79256   6.695   4.254   1.080 -0.7829  0.2142  0.3014
24132SOL    HW179257   6.702   4.349   1.071  0.0569  0.1170 -0.1457
24132SOL    HW279258   6.604   4.235   1.060 -1.2233  1.0258  1.3795
24133SOL     OW79259  10.202   3.828   8.862 -0.0949  0.0272  0.4132
24133SOL    HW179260  10.193   3.735   8.841  0.5878 -0.0786  0.5980
24133SOL    HW279261  10.187   3.834   8.956 -2.2010  0.3834  0.1088
24134SOL     OW79262   3.813   2.631  11.961 -0.1524 -0.3465 -0.1586
24134SOL    HW179263   3.788   2.668  12.045  2.2987  1.3328 -0.0553
24134SOL    HW279264   3.738   2.648  11.904 -0.5229  1.5976  0.8375
24135SOL     OW79265  10.716   0.964   9.640  0.1621  0.1611  0.5714
24135SOL    HW179266  10.664   0.924   9.710 -1.8946  0.5990 -0.6098
24135SOL    HW279267  10.701   1.058   9.650 -1.4447  0.1737 -1.3150
24136SOL     OW79268   8.178   2.861   2.993 -0.4054  0.3460  0.9824
24136SOL    HW179269   8.176   2.792   3.059 -0.4203 -0.7017 -0.0821
24136SOL    HW279270   8.268   2.893   2.994 -0.6360  0.9923  2.1496
24137SOL     OW79271  10.517  12.289   3.692  0.6802 -0.0578  0.2637
24137SOL    HW179272  10.438  12.300   3.745 -1.2683 -0.7633 -2.2673
24137SOL    HW279273  10.498  12.337   3.611  2.7922 -0.3987 -0.4955
24138SOL     OW79274  10.942   2.144  10.269  0.2202 -0.7385  0.3384
24138SOL    HW179275  11.020   2.170  10.317  0.7994 -2.0407  0.1208
24138SOL    HW279276  10.918   2.059  10.304 -0.6238 -0.7335 -0.1843
24139SOL     OW79277   7.518   8.777   8.263 -0.6307  0.5684  0.0104
24139SOL    HW179278   7.540   8.858   8.310 -2.3991  0.2797  1.4443
24139SOL    HW279279   7.583   8.714   8.293  0.4784  1.3030 -0.7642
24140SOL     OW79280  11.000   9.566   0.476  0.0684  0.3679 -0.2433
24140SOL    HW179281  11.028   9.477   0.498  1.6756  0.7625 -0.5763
24140SOL    HW279282  10.986   9.565   0.382 -0.3978  0.3478 -0.1757
24141SOL     OW79283   9.828  10.277   6.577 -0.2666  0.4126 -0.3422
24141SOL    HW179284   9.890  10.257   6.507 -1.1157 -0.8884 -0.7449
24141SOL    HW279285   9.743  10.256   6.540 -0.9754  2.0351  0.2520
24142SOL     OW79286   8.921   8.955  12.263 -0.2315  0.2726 -0.2603
24142SOL    HW179287   8.833   8.929  12.289 -0.1214  0.9768  0.8887
24142SOL    HW279288   8.911   8.991  12.175 -0.4958 -2.9205 -1.6886
24143SOL     OW79289   1.048   3.572  11.615 -1.0158  0.1737 -0.6229
24143SOL    HW179290   1.021   3.555  11.705  0.7639  0.1109 -0.0610
24143SOL    HW279291   1.037   3.489  11.569 -1.5563  0.1062 -0.3729
24144SOL     OW79292  10.682   1.108  10.883  0.2600 -0.1889 -0.5194
24144SOL    HW179293  10.662   1.149  10.798  0.4494 -0.8765 -0.9028
24144SOL    HW279294  10.602   1.118  10.934  0.5171  1.2649 -0.3486
24145SOL     OW79295   5.625   5.353   2.525  0.4291  0.3691  0.1465
24145SOL    HW179296   5.653   5.325   2.612 -0.2586  0.7247  0.4935
24145SOL    HW279297   5.664   5.440   2.515  0.2005  0.4852  0.2564
24146SOL     OW79298   6.057   5.523   8.043  0.6605  0.1853 -0.1459
24146SOL    HW179299   5.974   5.554   8.008 -0.0239 -1.2792  0.1067
24146SOL    HW279300   6.120   5.590   8.018 -0.2972  0.5526 -1.7280
24147SOL     OW79301   1.548   6.261   5.077 -0.0270 -0.6192  0.3653
24147SOL    HW179302   1.467   6.277   5.125 -0.2832 -1.4593  0.2253
24147SOL    HW279303   1.606   6.333   5.103 -0.8677  0.0829  0.3297
24148SOL     OW79304   7.110   9.189   8.437  0.1518 -0.3428 -0.5871
24148SOL    HW179305   7.112   9.284   8.448 -2.2749 -0.2758 -0.1304
24148SOL    HW279306   7.101   9.176   8.343 -0.1616 -0.0846 -0.5951
24149SOL     OW79307   8.547   7.046   7.597  0.2325 -0.0893  0.3317
24149SOL    HW179308   8.518   7.137   7.604  0.7965  0.7488 -4.5930
24149SOL    HW279309   8.638   7.052   7.567  0.2694 -2.2342 -0.1746
24150SOL     OW79310   6.715   6.670   5.509  0.4548 -0.3307 -0.0360
24150SOL    HW179311   6.648   6.684   5.576 -0.7657 -0.6079 -1.1480
24150SOL    HW279312   6.700   6.739   5.445  1.1402 -0.4934 -0.3836
24151SOL     OW79313   7.405   7.154   9.103  0.3377 -0.7428 -0.1668
24151SOL    HW179314   7.411   7.059   9.087 -0.9839 -0.6972 -1.1681
24151SOL    HW279315   7.400   7.192   9.015  2.5194  0.4353  0.1648
24152SOL     OW79316   9.218   7.071   2.440  0.4411 -0.5057 -0.4841
24152SOL    HW179317   9.313   7.069   2.453  0.0495  0.5765  4.6498
24152SOL    HW279318   9.195   7.164   2.447 -1.1617 -0.9779  1.2622
24153SOL     OW79319   8.610   6.053  11.762 -0.1606  0.0073  0.1206
24153SOL    HW179320   8.678   6.088  11.706  0.2329  1.9659  1.7157
24153SOL    HW279321   8.652   6.042  11.848 -2.0227  2.2740  1.4417
24154SOL     OW79322   8.456  12.136   2.344 -0.2388  0.0548 -0.3450
24154SOL    HW179323   8.512  12.078   2.394  0.7543  1.8208  0.7126
24154SOL    HW279324   8.367  12.105   2.361  0.1442 -0.0499  1.7039
24155SOL     OW79325   5.456  10.890  12.372 -0.3579  0.1905  0.2957
24155SOL    HW179326   5.537  10.839  12.367 -0.2134  0.5216 -0.9855
24155SOL    HW279327   5.480  10.967  12.425 -0.4356 -0.7560  1.7569
24156SOL     OW79328  11.730   2.142   5.654 -0.1845  0.0607 -0.4909
24156SOL    HW179329  11.660   2.201   5.682 -0.3341  0.1616 -1.0710
24156SOL    HW279330  11.809   2.195   5.662 -0.3939  0.5759 -1.6740
24157SOL     OW79331  12.159   3.045   0.219  0.2550  0.1730  0.0027
24157SOL    HW179332  12.107   2.988   0.162 -0.1166  1.0576 -0.5502
24157SOL    HW279333  12.133   3.134   0.195 -0.9279  0.5671  2.5023
24158SOL     OW79334   0.742   3.509   0.069  0.4357  0.5709 -0.8161
24158SOL    HW179335   0.780   3.591   0.097  1.2413  0.0280 -0.2846
24158SOL    HW279336   0.660   3.534   0.026 -0.4834  1.4925  1.3532
24159SOL     OW79337   3.477   9.458   8.123 -0.4127  0.1219  0.0426
24159SOL    HW179338   3.418   9.523   8.162 -1.3624 -1.5374  1.5441
24159SOL    HW279339   3.560   9.504   8.112 -1.4895  2.0448 -0.5252
24160SOL     OW79340   7.090   7.808   5.956  0.2610 -0.4002  0.1373
24160SOL    HW179341   7.109   7.800   5.862  1.4261 -2.3095  0.4916
24160SOL    HW279342   7.171   7.840   5.995  0.2784 -1.0730  0.6728
24161SOL     OW79343   4.666   5.121  10.305  0.0481  0.0199  0.4362
24161SOL    HW179344   4.635   5.056  10.368 -0.5997 -0.4418 -0.3328
24161SOL    HW279345   4.759   5.130  10.323 -0.4748  1.4677  2.8643
24162SOL     OW79346   5.647   7.307   1.631 -0.2542 -0.1193 -0.4909
24162SOL    HW179347   5.739   7.327   1.652 -1.1151  1.6002  2.2178
24162SOL    HW279348   5.622   7.372   1.566 -0.2157  1.1656  0.7302
24163SOL     OW79349   3.696  11.737   1.452 -0.8290  0.0886 -0.6239
24163SOL    HW179350   3.658  11.785   1.526  1.0513  1.0572 -0.2374
24163SOL    HW279351   3.692  11.645   1.479 -2.0029  0.2465 -0.2090
24164SOL     OW79352   1.787   4.826   5.659 -0.3355 -0.5263 -0.2404
24164SOL    HW179353   1.878   4.813   5.634 -0.4034  0.9726 -1.4569
24164SOL    HW279354   1.757   4.899   5.604 -2.6491 -1.7959 -0.8080
24165SOL     OW79355   6.277   9.067   1.884 -0.8038  0.5881 -0.0800
24165SOL    HW179356   6.259   9.066   1.790 -1.1370  0.4052 -0.0161
24165SOL    HW279357   6.196   9.034   1.924 -0.2620 -0.4402  0.2028
24166SOL     OW79358   3.516  12.182  11.789 -0.3998 -0.2833  0.4144
24166SOL    HW179359   3.440  12.225  11.829 -0.0524 -1.0073  1.9278
24166SOL    HW279360   3.480  12.105  11.746 -0.8274  0.6929 -1.0210
24167SOL     OW79361  11.916   1.980  10.496 -0.4352  0.5569 -0.1405
24167SOL    HW179362  11.990   2.010  10.549  0.5648 -2.0969  0.0950
24167SOL    HW279363  11.842   1.980  10.557 -0.2056  1.3386  0.1534
24168SOL     OW79364   5.179   3.716  10.942  0.1410  0.3192 -0.3137
24168SOL    HW179365   5.105   3.684  10.994  0.4487 -1.2410 -0.7872
24168SOL    HW279366   5.256   3.679  10.985  0.3909 -1.1600 -1.9137
24169SOL     OW79367   1.432   9.471   6.729  0.1747 -0.4639  0.1826
24169SOL    HW179368   1.376   9.507   6.797 -0.2208  0.3459 -0.5538
24169SOL    HW279369   1.491   9.410   6.775 -2.3656 -2.6509  0.7712
24170SOL     OW79370   6.689   2.958   4.885  0.0690  0.0514  0.1907
24170SOL    HW179371   6.757   3.026   4.890  0.5742 -0.2427 -1.7984
24170SOL    HW279372   6.640   2.979   4.805 -0.4178 -1.3339  0.1058
24171SOL     OW79373  10.115  11.659   6.252  0.0493 -0.2863  0.2899
24171SOL    HW179374  10.063  11.667   6.332 -0.7071  0.3341 -0.2454
24171SOL    HW279375  10.142  11.567   6.251 -1.0208 -0.6273  0.6185
24172SOL     OW79376  10.746   8.883   8.584 -0.5193 -0.3728 -0.4897
24172SOL    HW179377  10.710   8.836   8.509 -1.1586 -0.2979 -0.2386
24172SOL    HW279378  10.737   8.976   8.561  2.0302 -0.3324 -1.5905
24173SOL     OW79379  10.238   2.961  10.439  0.7968  0.5736 -0.0910
24173SOL    HW179380  10.204   2.944  10.527  1.2895 -0.1941 -0.0372
24173SOL    HW279381  10.161   2.961  10.382  0.5196  0.6712  0.2811
24174SOL     OW79382   1.017   6.254   5.309  0.5955 -0.0262 -0.1622
24174SOL    HW179383   0.926   6.245   5.283 -0.0118 -0.7570  1.9965
24174SOL    HW279384   1.021   6.336   5.357  0.7533 -0.5966  0.8423
24175SOL     OW79385   8.094   4.014  10.694  0.0490  0.3310 -0.3621
24175SOL    HW179386   8.008   4.037  10.659  0.6175  1.1790 -1.2402
24175SOL    HW279387   8.081   3.927  10.732 -1.7934  1.4365  1.7502
24176SOL     OW79388   6.780  12.186   4.403  0.0666 -0.0667  0.1684
24176SOL    HW179389   6.756  12.227   4.319 -0.8937 -1.0071 -0.0453
24176SOL    HW279390   6.759  12.094   4.390  0.8944 -0.3929  1.1033
24177SOL     OW79391   3.813   0.264   7.007 -0.3574  0.0891  0.3819
24177SOL    HW179392   3.763   0.185   6.987 -1.1244  0.8628 -0.8644
24177SOL    HW279393   3.784   0.290   7.094 -1.2494 -0.1365  0.1568
24178SOL     OW79394   6.244   2.217   8.849  0.2069 -0.0986  0.4012
24178SOL    HW179395   6.308   2.287   8.832 -0.5546  0.2342 -1.3634
24178SOL    HW279396   6.159   2.261   8.844 -0.2958 -1.1556 -0.9689
24179SOL     OW79397  12.210   7.947   2.285 -0.4027  0.1427  0.4555
24179SOL    HW179398  12.250   7.902   2.210 -0.5340  0.9749 -0.1247
24179SOL    HW279399  12.138   7.997   2.247  1.0180  2.5595  0.7238
24180SOL     OW79400   4.413   8.201   5.490 -0.1240  0.1004  0.1744
24180SOL    HW179401   4.456   8.248   5.561  0.7797  1.1652 -1.0413
24180SOL    HW279402   4.320   8.213   5.506  0.0848  1.6518  0.3392
24181SOL     OW79403   0.925   4.531   9.058  0.0678  0.0979 -0.1623
24181SOL    HW179404   0.837   4.550   9.091  0.3068 -0.0697  0.6002
24181SOL    HW279405   0.944   4.443   9.091  0.9673  0.5813  0.6821
24182SOL     OW79406   2.826   4.495   9.209  0.5617 -0.5470  0.3048
24182SOL    HW179407   2.812   4.508   9.115  1.6469 -2.3262 -0.1501
24182SOL    HW279408   2.775   4.417   9.230  0.6002 -0.3555  1.1310
24183SOL     OW79409  11.230  10.085   0.613 -0.1019  0.5724 -0.1766
24183SOL    HW179410  11.323  10.105   0.624  0.8712 -1.9198 -2.6844
24183SOL    HW279411  11.219  10.001   0.657 -2.0439  2.2408  2.8435
24184SOL     OW79412   6.066   8.434   3.275 -0.4129  0.1732 -0.5793
24184SOL    HW179413   6.014   8.463   3.349  0.1964  1.4582 -0.6218
24184SOL    HW279414   6.146   8.487   3.279 -1.1607  1.6948 -3.1920
24185SOL     OW79415   5.842   5.821   1.707 -0.3084  0.1897  0.2006
24185SOL    HW179416   5.802   5.819   1.620  0.6894 -0.1254 -0.2671
24185SOL    HW279417   5.916   5.761   1.701  0.9351  1.6099  0.6818
24186SOL     OW79418   5.737   3.194   8.251 -0.6576 -0.4160  0.1309
24186SOL    HW179419   5.777   3.243   8.323 -2.6618  1.2382  0.2247
24186SOL    HW279420   5.806   3.186   8.185  0.8172 -0.7563  1.6423
24187SOL     OW79421   5.961   1.643   7.943 -0.0887  0.2994  0.4581
24187SOL    HW179422   5.935   1.732   7.964  1.6326  1.0219 -0.2675
24187SOL    HW279423   5.962   1.597   8.027  0.0456  1.2437  0.9782
24188SOL     OW79424   8.063   1.927   0.268  0.0379  0.4276  0.2321
24188SOL    HW179425   8.022   2.006   0.231  0.7512  0.8919  0.4159
24188SOL    HW279426   8.012   1.909   0.347  0.1121  0.9419  0.4036
24189SOL     OW79427   9.338   7.439   2.516 -0.4589 -0.4906  0.1843
24189SOL    HW179428   9.395   7.391   2.576  1.2490  1.4461  0.2510
24189SOL    HW279429   9.259   7.458   2.567 -0.0779 -1.0190  0.9801
24190SOL     OW79430   8.572   7.230   2.073 -0.2150 -0.0341 -0.2086
24190SOL    HW179431   8.555   7.295   2.004 -1.3288  1.2863  1.2533
24190SOL    HW279432   8.516   7.257   2.146  1.6284 -0.8282  1.5871
24191SOL     OW79433  11.694  12.325   5.668  0.6060 -0.1293 -0.2912
24191SOL    HW179434  11.692  12.235   5.635  0.4054  0.1194 -0.9731
24191SOL    HW279435  11.669  12.317   5.760  0.8358 -0.7970 -0.2777
24192SOL     OW79436  10.304   3.034   6.085 -0.2998 -0.0632  0.3895
24192SOL    HW179437  10.396   3.006   6.085 -0.9435 -2.4767 -0.7698
24192SOL    HW279438  10.286   3.057   6.176  1.3805  0.2203  0.6854
24193SOL     OW79439   9.458  10.260  10.953  0.4443 -0.3975  0.8044
24193SOL    HW179440   9.518  10.329  10.927 -0.0445  0.0658  0.8643
24193SOL    HW279441   9.440  10.278  11.046 -2.8811  1.9413 -0.1050
24194SOL     OW79442   8.387   3.615   7.071  0.0268  0.7546  0.3464
24194SOL    HW179443   8.403   3.593   6.980 -1.9138 -2.7530  0.6805
24194SOL    HW279444   8.295   3.641   7.074  0.3823  1.9899  1.1600
24195SOL     OW79445  10.230   2.628   7.248 -0.3258 -0.2177 -0.0779
24195SOL    HW179446  10.159   2.649   7.188 -1.6975 -0.5994  1.3435
24195SOL    HW279447  10.267   2.713   7.272  0.0663 -0.0465 -1.2277
24196SOL     OW79448   3.395   2.048   0.086  0.3848 -0.2157 -0.5141
24196SOL    HW179449   3.363   2.106   0.155  3.5768  0.2812  0.7080
24196SOL    HW279450   3.376   2.094   0.004  0.5090  1.3130  0.2977
24197SOL     OW79451   2.102  10.365   4.435 -0.2942 -0.1827  0.1399
24197SOL    HW179452   2.057  10.355   4.351 -0.4254  0.5682  0.1111
24197SOL    HW279453   2.101  10.459   4.451 -0.4856 -0.3425  1.1054
24198SOL     OW79454   0.052   3.284   4.628 -0.3833 -0.6895  0.2219
24198SOL    HW179455   0.144   3.265   4.648 -0.2188  1.3716  1.7985
24198SOL    HW279456   0.053   3.372   4.592 -1.5002 -1.7666 -2.7758
24199SOL     OW79457   9.957   8.577   0.871 -0.0849  0.6050 -0.5348
24199SOL    HW179458   9.899   8.531   0.932  0.9334  1.1786  0.9151
24199SOL    HW279459   9.916   8.565   0.785 -1.5491 -0.2468  0.2480
24200SOL     OW79460   3.729  10.411   0.138 -0.3748  0.4590 -0.0601
24200SOL    HW179461   3.785  10.481   0.171  0.5892  1.0389 -2.6257
24200SOL    HW279462   3.787  10.356   0.086 -1.7716 -0.1235 -1.0918
24201SOL     OW79463   9.650   9.667  12.197  0.5757 -0.3073  0.3187
24201SOL    HW179464   9.640   9.762  12.188 -0.4196 -0.2721  1.4503
24201SOL    HW279465   9.670   9.654  12.290 -0.4967 -1.2606  0.4455
24202SOL     OW79466  10.673   3.085   7.835 -0.6772  0.0678  0.5282
24202SOL    HW179467  10.705   3.114   7.750 -0.4924 -0.0420  0.5595
24202SOL    HW279468  10.599   3.028   7.815  0.0116 -0.7971  0.3901
24203SOL     OW79469   2.958   2.001  11.361  0.1957 -0.6618  0.0358
24203SOL    HW179470   3.050   1.980  11.341  0.4762 -0.2713  0.8988
24203SOL    HW279471   2.961   2.084  11.407 -0.6918 -0.1239 -0.8239
24204SOL     OW79472   0.401  10.905  10.331  0.0751  0.6248  0.1087
24204SOL    HW179473   0.321  10.941  10.292  0.5945  0.4646 -1.1578
24204SOL    HW279474   0.370  10.857  10.408 -1.6460 -2.7962 -2.4106
24205SOL     OW79475  11.128  12.082   0.315  0.0736 -0.0159 -0.5747
24205SOL    HW179476  11.103  12.025   0.388 -0.3362 -0.5144 -1.0989
24205SOL    HW279477  11.222  12.098   0.329 -0.0524  0.0920  0.1923
24206SOL     OW79478  10.017   1.682   5.610  0.4157  0.4561 -0.5308
24206SOL    HW179479   9.939   1.712   5.562  0.4766  1.4246 -0.0257
24206SOL    HW279480  10.004   1.587   5.617 -1.2183  0.7166  0.4177
24207SOL     OW79481   6.327   0.188   9.632 -0.0258  0.5776  0.0609
24207SOL    HW179482   6.405   0.191   9.576 -0.3188 -1.4609 -0.5230
24207SOL    HW279483   6.309   0.280   9.651  2.8110  1.1340  0.6502
24208SOL     OW79484  10.092   8.717   3.829  0.2037 -0.0109 -0.2362
24208SOL    HW179485  10.070   8.670   3.749 -0.1266 -1.0638  0.4514
24208SOL    HW279486  10.063   8.660   3.900  0.9945  0.6393  0.6534
24209SOL     OW79487   6.619   1.877   2.997 -0.2912 -0.0212 -0.2043
24209SOL    HW179488   6.539   1.919   3.029  0.1084 -0.0650  0.8960
24209SOL    HW279489   6.591   1.788   2.973 -0.5632 -0.0709  0.2710
24210SOL     OW79490   8.328  11.159   4.200 -0.3156 -0.3378  0.0194
24210SOL    HW179491   8.350  11.096   4.269  0.6193  0.5522  0.5588
24210SOL    HW279492   8.253  11.206   4.235  0.0822  0.0301  0.3883
24211SOL     OW79493  12.308   6.656   1.278  0.6926 -0.0558 -0.8431
24211SOL    HW179494  12.330   6.702   1.359  0.8171 -1.6418  0.0556
24211SOL    HW279495  12.376   6.590   1.268  0.8187  0.2588 -2.3995
24212SOL     OW79496   7.976   2.530   7.684 -0.5804 -0.0640 -0.1773
24212SOL    HW179497   8.025   2.609   7.705 -1.0685 -0.0969  1.1299
24212SOL    HW279498   8.027   2.489   7.614  0.6585  0.4623  0.3874
24213SOL     OW79499   1.551   7.789   3.695  0.2882 -0.1825  0.6365
24213SOL    HW179500   1.522   7.869   3.652  0.4681 -1.6624 -2.5700
24213SOL    HW279501   1.642   7.778   3.665  0.5120 -1.1944  1.6226
24214SOL     OW79502   2.971   4.302   1.287 -0.0080  0.4835  0.0464
24214SOL    HW179503   2.973   4.272   1.197 -2.8757 -1.9516  0.6373
24214SOL    HW279504   3.008   4.230   1.338  0.1599  1.1793  0.9502
24215SOL     OW79505   8.566  11.385  12.234  0.2059 -0.5684  0.4238
24215SOL    HW179506   8.572  11.392  12.330  1.8769 -0.9063  0.3809
24215SOL    HW279507   8.581  11.293  12.216  2.5315 -0.1355 -0.2545
24216SOL     OW79508   9.036   6.230   4.627  0.5004  0.3073 -0.2499
24216SOL    HW179509   9.011   6.143   4.596 -1.8820  1.0957 -0.7025
24216SOL    HW279510   8.980   6.246   4.702 -0.6073  2.2540 -1.4157
24217SOL     OW79511   1.820  11.540  10.986 -0.3850  0.0577  0.0475
24217SOL    HW179512   1.825  11.539  10.890 -0.0586 -0.2475  0.0677
24217SOL    HW279513   1.728  11.560  11.004 -0.4591  0.0774 -0.3301
24218SOL     OW79514   8.726   7.521   8.832 -0.3483  0.3863 -0.4314
24218SOL    HW179515   8.690   7.437   8.862  0.8316  0.4282  1.2551
24218SOL    HW279516   8.794   7.497   8.770  0.4050  0.0232  0.5022
24219SOL     OW79517   1.428   5.386   0.912  0.1789  0.3355 -0.2154
24219SOL    HW179518   1.495   5.453   0.920 -0.1516  0.6765 -0.2695
24219SOL    HW279519   1.359   5.414   0.972 -1.0566  1.3685 -2.0447
24220SOL     OW79520   4.133   8.653   4.824 -0.2101 -0.3761 -0.5126
24220SOL    HW179521   4.183   8.698   4.755 -0.2374 -2.3570 -1.9245
24220SOL    HW279522   4.041   8.667   4.800 -0.6146  3.8562  2.4647
24221SOL     OW79523   7.013   8.885   2.237  0.0944  0.6093 -0.4521
24221SOL    HW179524   6.968   8.818   2.184 -1.5462  1.0968  0.2449
24221SOL    HW279525   7.102   8.852   2.245 -0.3835 -0.9666 -1.0294
24222SOL     OW79526   9.056  11.903   6.070  0.1945  0.0598 -0.3611
24222SOL    HW179527   8.989  11.873   6.132 -0.7310  0.5062 -1.1125
24222SOL    HW279528   9.013  11.972   6.020  1.4754  0.8826 -0.3698
24223SOL     OW79529   2.473   5.677  11.518 -0.3187  0.3534 -0.3187
24223SOL    HW179530   2.485   5.603  11.576 -1.1617  0.6862  0.3014
24223SOL    HW279531   2.516   5.750  11.562 -0.5533  0.5028 -0.3329
24224SOL     OW79532   8.621   6.110   6.644  0.1242 -0.3404 -0.5418
24224SOL    HW179533   8.540   6.161   6.645  2.2224  3.3665 -0.1570
24224SOL    HW279534   8.605   6.038   6.704 -2.4698  1.0178  0.5644
24225SOL     OW79535   4.268   0.604   1.739 -0.2957  0.1552 -0.3596
24225SOL    HW179536   4.197   0.540   1.743  0.7245 -1.1392 -1.5358
24225SOL    HW279537   4.226   0.686   1.713 -1.2970 -0.7056 -1.5516
24226SOL     OW79538   3.637   5.756   6.278 -0.6604  0.0059 -0.0780
24226SOL    HW179539   3.730   5.771   6.292 -0.2292 -2.2037 -0.2674
24226SOL    HW279540   3.594   5.822   6.332  0.9828  1.2043 -0.1504
24227SOL     OW79541   2.211   6.901   6.472  0.3377  0.0615 -0.2201
24227SOL    HW179542   2.223   6.850   6.391  1.8152  1.3095 -0.8344
24227SOL    HW279543   2.282   6.870   6.529 -0.9293 -1.0884  0.7905
24228SOL     OW79544   5.013   4.037   0.210  0.4707  0.0431  0.2210
24228SOL    HW179545   4.917   4.038   0.208  0.3693 -2.2706  0.8815
24228SOL    HW279546   5.039   4.089   0.134 -1.3440 -1.0145 -1.2151
24229SOL     OW79547   5.554   3.953   0.963  0.2657 -0.4607  0.1606
24229SOL    HW179548   5.515   4.012   0.898 -0.7639 -0.8969  0.3632
24229SOL    HW279549   5.559   4.006   1.043  0.4318 -0.2939  0.0418
24230SOL     OW79550   7.604   1.803   2.739 -0.3069 -0.3976  0.6639
24230SOL    HW179551   7.581   1.801   2.832 -1.1014  0.1551  0.4913
24230SOL    HW279552   7.545   1.869   2.701  2.1676  1.7834  0.3491
24231SOL     OW79553   4.793   9.806   7.541 -1.0885  0.1871  0.3367
24231SOL    HW179554   4.782   9.744   7.469 -0.0458 -0.2625  0.5451
24231SOL    HW279555   4.795   9.892   7.499 -1.6735  0.0245 -0.0398
24232SOL     OW79556   6.807   4.953   4.193  0.1029  0.2859 -0.3146
24232SOL    HW179557   6.780   5.044   4.187 -0.7776  0.0755  0.2265
24232SOL    HW279558   6.848   4.934   4.108  1.2779  1.4720 -0.0408
24233SOL     OW79559  10.661   6.204  10.832  0.0481  0.3256 -0.3318
24233SOL    HW179560  10.622   6.209  10.744 -1.0385 -0.7460  0.0554
24233SOL    HW279561  10.753   6.227  10.819 -0.1374  0.3636 -1.7272
24234SOL     OW79562   4.845  11.385  12.208 -0.2767 -0.2679 -0.1158
24234SOL    HW179563   4.819  11.307  12.256 -1.6541  0.2740  0.0783
24234SOL    HW279564   4.933  11.406  12.240 -0.2862 -1.1744  0.5301
24235SOL     OW79565   3.178   5.471   3.237 -0.2452  0.1044  0.0519
24235SOL    HW179566   3.156   5.505   3.324 -2.1564 -0.6441 -0.1040
24235SOL    HW279567   3.271   5.491   3.227 -0.7950  3.5325  0.7270
24236SOL     OW79568  11.549   4.434  11.627 -0.0293 -0.3612 -0.1676
24236SOL    HW179569  11.567   4.456  11.536 -0.8631 -0.6061 -0.4016
24236SOL    HW279570  11.623   4.469  11.676  1.2061 -1.5841 -1.1118
24237SOL     OW79571   9.282  11.279  10.779  0.0631 -0.1255  0.2304
24237SOL    HW179572   9.355  11.217  10.787  0.8021  0.3564 -1.9355
24237SOL    HW279573   9.248  11.263  10.691 -2.6281 -0.4473  1.2459
24238SOL     OW79574   6.068   0.641   9.741 -0.0124 -0.3216  0.2058
24238SOL    HW179575   6.001   0.687   9.692 -0.2793 -1.0021 -0.0804
24238SOL    HW279576   6.087   0.698   9.815 -1.2615 -0.3369  0.5638
24239SOL     OW79577   5.587   0.491   6.807  0.5506 -0.1932 -0.2581
24239SOL    HW179578   5.676   0.474   6.839  0.3794  1.6731  1.4024
24239SOL    HW279579   5.546   0.543   6.876 -1.6833 -0.5549 -1.2204
24240SOL     OW79580   6.140   4.341   1.210  0.4644  0.0400  0.4877
24240SOL    HW179581   6.121   4.350   1.117 -0.9645 -2.6285  0.4562
24240SOL    HW279582   6.092   4.413   1.251 -0.4570  0.0960 -0.6569
24241SOL     OW79583   3.061   7.694   0.346 -0.8981 -0.3054  0.0815
24241SOL    HW179584   2.979   7.714   0.302 -2.0478 -0.3990  2.0584
24241SOL    HW279585   3.048   7.723   0.436  0.9075 -1.1758  0.6810
24242SOL     OW79586  11.749   7.556   1.183 -0.8930 -0.4847 -0.2108
24242SOL    HW179587  11.822   7.597   1.136  0.7579 -0.5153  2.1668
24242SOL    HW279588  11.678   7.620   1.177  0.4343  1.1029  0.2751
24243SOL     OW79589   7.495   5.608   3.305 -0.2883  0.0193 -0.1458
24243SOL    HW179590   7.529   5.688   3.266 -0.8639  0.1177 -0.4636
24243SOL    HW279591   7.476   5.550   3.230  0.1766 -0.4371  0.0818
24244SOL     OW79592   9.373   9.636  12.178  0.1401 -0.2576  0.1745
24244SOL    HW179593   9.335   9.668  12.096 -1.9604  1.0549  1.5826
24244SOL    HW279594   9.467   9.631  12.161  0.0269  2.2543 -1.5816
24245SOL     OW79595   6.296   2.262   6.547  0.3089 -0.5012  0.2684
24245SOL    HW179596   6.301   2.356   6.529  2.0098 -0.6667 -0.3458
24245SOL    HW279597   6.209   2.236   6.518  1.2744  0.0989 -3.7703
24246SOL     OW79598   9.783  10.089   7.411  0.2635 -1.0567  0.6423
24246SOL    HW179599   9.858  10.126   7.366  1.1117 -1.3076  1.7909
24246SOL    HW279600   9.774  10.001   7.375  2.8910 -2.4406  3.0460
24247SOL     OW79601   0.082   4.269   0.806  0.0652  0.6241  0.1275
24247SOL    HW179602   0.107   4.291   0.896 -0.8524 -1.1030  0.8695
24247SOL    HW279603  -0.006   4.305   0.796 -0.3115 -0.1947  0.3692
24248SOL     OW79604   5.320   9.144   3.459 -0.0071 -0.1035 -0.2771
24248SOL    HW179605   5.387   9.168   3.396 -1.3002 -0.5690 -1.8934
24248SOL    HW279606   5.360   9.162   3.545  2.1579 -0.4060 -1.1644
24249SOL     OW79607   7.270  11.913   5.989  1.1239  0.3712 -0.2066
24249SOL    HW179608   7.178  11.909   6.015  1.4864  0.5707  1.1930
24249SOL    HW279609   7.289  11.826   5.955  0.3774  0.3827 -0.6885
24250SOL     OW79610   7.468   5.622   5.621  0.5089  0.6087  0.3347
24250SOL    HW179611   7.375   5.603   5.638  0.3761 -0.0354 -0.9810
24250SOL    HW279612   7.498   5.666   5.700 -0.7585  0.2530  1.0448
24251SOL     OW79613  11.888   4.692   3.040 -0.1237  0.0307  0.5783
24251SOL    HW179614  11.942   4.622   3.078  0.7357  0.7535  0.7435
24251SOL    HW279615  11.913   4.693   2.948  0.6645  0.7902  0.7794
24252SOL     OW79616   6.172  10.640   0.300 -0.1599  0.1040  0.4993
24252SOL    HW179617   6.189  10.667   0.390  2.5084  0.0414  0.0818
24252SOL    HW279618   6.165  10.722   0.251 -2.4152  0.1681  0.8078
24253SOL     OW79619  11.208  10.505   4.303 -0.2113 -0.6186 -0.5227
24253SOL    HW179620  11.116  10.531   4.308 -0.3383 -0.9818 -0.8765
24253SOL    HW279621  11.218  10.468   4.215 -0.5781 -3.6029  0.5425
24254SOL     OW79622  12.114   8.532   9.729 -0.8510  0.0477 -0.4388
24254SOL    HW179623  12.087   8.440   9.736 -0.2652 -0.1281 -0.4105
24254SOL    HW279624  12.139   8.557   9.818  3.1680 -1.1097 -1.0228
24255SOL     OW79625  10.208   3.021   0.451  0.4352 -0.6280 -0.2310
24255SOL    HW179626  10.164   3.055   0.374 -0.1178 -1.0570 -0.1172
24255SOL    HW279627  10.287   2.979   0.418  0.6703 -0.0054 -0.4604
24256SOL     OW79628   1.857   0.769   9.179 -0.2570 -0.2285 -0.0759
24256SOL    HW179629   1.920   0.825   9.223 -0.0996 -0.1571 -0.3910
24256SOL    HW279630   1.796   0.743   9.248  1.1435 -1.7952  0.6441
24257SOL     OW79631   8.181   5.899   0.018 -0.1601 -0.4621 -0.2960
24257SOL    HW179632   8.183   5.870   0.109 -0.9017  1.1631  0.2724
24257SOL    HW279633   8.269   5.930  -0.000 -0.2133 -0.0540  0.1286
24258SOL     OW79634  11.974   4.190   9.345 -0.0887 -0.0693  0.2771
24258SOL    HW179635  11.913   4.195   9.272 -0.0444  2.4093  0.3159
24258SOL    HW279636  11.955   4.107   9.388 -2.7235  0.1499 -0.3242
24259SOL     OW79637   0.568  10.131   6.035  0.2576  0.1893  0.2422
24259SOL    HW179638   0.567  10.217   6.078 -0.1025 -0.5237  1.7143
24259SOL    HW279639   0.556  10.151   5.942  1.2463  1.8031  0.4166
24260SOL     OW79640   2.953   5.710   8.874 -0.1177 -0.2386  0.7798
24260SOL    HW179641   3.017   5.743   8.937 -1.2750  1.5612  1.0984
24260SOL    HW279642   2.959   5.615   8.881  1.3344 -0.1001  1.9885
24261SOL     OW79643  11.989  12.034   0.454 -0.3106 -0.2323  0.7150
24261SOL    HW179644  11.933  12.112   0.455 -0.2135 -0.1627  0.8020
24261SOL    HW279645  11.928  11.961   0.460 -0.4778 -0.2086 -0.4452
24262SOL     OW79646   9.707   6.709   5.990  0.5351 -0.2135 -0.5993
24262SOL    HW179647   9.651   6.719   5.912  0.3591  0.0988 -0.4360
24262SOL    HW279648   9.646   6.682   6.059  0.6005  0.0442 -0.4407
24263SOL     OW79649   5.868   9.664   6.857  0.2825 -0.1392 -0.1304
24263SOL    HW179650   5.916   9.738   6.895 -0.9725  0.2518  0.7467
24263SOL    HW279651   5.834   9.615   6.932 -1.1478 -0.0841 -0.6999
24264SOL     OW79652  10.173  11.969   0.821 -0.4326 -0.0339 -0.2619
24264SOL    HW179653  10.197  11.880   0.797  0.2683  0.0659  0.0311
24264SOL    HW279654  10.117  11.999   0.750 -0.7555 -0.7427 -0.3063
24265SOL     OW79655   9.132  10.661   3.873 -0.3567  0.6275 -0.2913
24265SOL    HW179656   9.139  10.699   3.785 -0.7485  0.4232 -0.4136
24265SOL    HW279657   9.038  10.647   3.885 -0.2107 -0.5881 -0.3765
24266SOL     OW79658   2.247   0.686  12.078  0.3674 -0.5465  0.3731
24266SOL    HW179659   2.235   0.774  12.113 -2.0211 -1.3006  1.6711
24266SOL    HW279660   2.246   0.629  12.155 -0.5342 -1.8915 -0.5896
24267SOL     OW79661   8.825   9.788   7.396 -0.0103  0.0890  0.1828
24267SOL    HW179662   8.824   9.868   7.448 -1.3556 -0.4975  1.1045
24267SOL    HW279663   8.851   9.719   7.457  0.0839 -0.3506 -0.3396
24268SOL     OW79664   1.032   6.002  11.172 -0.3805  0.4179  0.5232
24268SOL    HW179665   1.009   6.094  11.186 -2.8624  0.1018 -0.9005
24268SOL    HW279666   1.011   5.959  11.255 -0.5270  0.9112  0.7462
24269SOL     OW79667  10.866   2.985   6.729  0.1558  0.4061  0.6743
24269SOL    HW179668  10.862   2.934   6.648 -1.6848 -0.5941  1.3325
24269SOL    HW279669  10.953   2.966   6.765  0.7951  0.4523 -0.7833
24270SOL     OW79670   8.146  10.513   6.754 -0.0248 -0.1672 -0.2716
24270SOL    HW179671   8.137  10.600   6.717 -0.3904  0.4435  1.1864
24270SOL    HW279672   8.238  10.491   6.741  0.7930  1.6545  1.8388
24271SOL     OW79673   8.323   9.188   0.583  0.2457 -0.2495  0.2929
24271SOL    HW179674   8.401   9.131   0.577  1.1657  0.9204  0.7678
24271SOL    HW279675   8.347   9.254   0.648 -0.6472  0.9239 -0.5490
24272SOL     OW79676   2.213   6.746  10.667  0.0007 -0.0639 -0.4533
24272SOL    HW179677   2.307   6.763  10.671 -0.1630  0.6142  2.3896
24272SOL    HW279678   2.173   6.832  10.652 -0.2289 -0.2307 -0.8288
24273SOL     OW79679   9.318   8.021   1.716 -0.5066 -0.0074 -0.0480
24273SOL    HW179680   9.243   7.970   1.747  0.7457 -2.5416 -0.8801
24273SOL    HW279681   9.287   8.062   1.635 -0.7551 -1.8698 -0.9468
24274SOL     OW79682   0.337   4.747   3.488 -0.0225 -0.0539  0.1350
24274SOL    HW179683   0.259   4.693   3.471  0.2477  0.0285 -1.4546
24274SOL    HW279684   0.403   4.684   3.518 -0.6696 -0.1186  1.5349
24275SOL     OW79685   7.978  11.005   8.820 -0.3494 -0.5359 -0.4602
24275SOL    HW179686   8.058  10.977   8.777 -0.6068 -2.4887  0.2282
24275SOL    HW279687   7.932  10.924   8.841 -1.5586  0.4509  0.9631
24276SOL     OW79688   4.106   3.567  12.087  0.0429  0.3330 -0.1154
24276SOL    HW179689   4.097   3.629  12.015  2.0518 -0.3722 -1.0238
24276SOL    HW279690   4.193   3.529  12.077 -0.1233 -0.7679  1.9233
24277SOL     OW79691   1.832   4.555   0.928  0.5313  0.2823 -0.1280
24277SOL    HW179692   1.757   4.583   0.875  0.1369  0.8199  0.6834
24277SOL    HW279693   1.812   4.465   0.952 -0.5021  0.8090  1.1303
24278SOL     OW79694   9.924   2.826   6.532 -0.0927 -0.8540 -0.0234
24278SOL    HW179695   9.924   2.907   6.482  0.4716 -0.6877  0.2385
24278SOL    HW279696   9.986   2.769   6.485  0.9789 -0.4518  0.8594
24279SOL     OW79697   7.705   8.412   1.755  0.2745 -0.6235  0.3612
24279SOL    HW179698   7.675   8.385   1.842  0.0706 -0.6862  0.2743
24279SOL    HW279699   7.735   8.502   1.766  2.2650 -1.3089  0.9592
24280SOL     OW79700  10.707   5.050  11.426 -0.4629  0.2415 -0.1003
24280SOL    HW179701  10.732   5.123  11.369  0.4157 -0.0388 -0.0938
24280SOL    HW279702  10.615   5.065  11.444 -0.1977  1.6070  0.2669
24281SOL     OW79703   6.305   7.640  10.271 -0.8145  0.3534  0.0442
24281SOL    HW179704   6.210   7.627  10.263 -1.0562  0.1301  2.4035
24281SOL    HW279705   6.328   7.592  10.351  1.2495  0.6370 -0.3495
24282SOL     OW79706  12.071   5.751   0.652  0.1651 -0.1541  0.4794
24282SOL    HW179707  12.061   5.656   0.657  0.2580 -0.1071  1.6987
24282SOL    HW279708  12.117   5.765   0.569 -2.7577 -0.9155 -1.4215
24283SOL     OW79709   1.205   2.021   4.041 -0.5197 -0.2021 -0.4300
24283SOL    HW179710   1.174   1.943   4.087  0.0141 -1.4555 -2.0903
24283SOL    HW279711   1.300   2.018   4.050 -0.5694  1.4429  1.2444
24284SOL     OW79712   7.393   6.455  10.904  0.1537  0.3107  0.1794
24284SOL    HW179713   7.373   6.527  10.964  1.1495  0.6168  0.1552
24284SOL    HW279714   7.370   6.376  10.954  1.2685  0.5431  1.1086
24285SOL     OW79715   2.390   4.806   5.878 -0.1465 -0.2603  0.3137
24285SOL    HW179716   2.370   4.750   5.803 -0.0140 -1.1619  0.9401
24285SOL    HW279717   2.309   4.807   5.929 -0.8119  1.7347 -0.6662
24286SOL     OW79718   6.412  11.441   7.378 -0.3173  0.6695  0.5062
24286SOL    HW179719   6.420  11.458   7.284  3.1630  0.2367  0.6124
24286SOL    HW279720   6.377  11.352   7.383 -0.6395  0.7320 -0.3511
24287SOL     OW79721  12.044   8.600  11.509  0.0299 -0.0642  0.1228
24287SOL    HW179722  12.124   8.561  11.545  1.9088  2.3902 -1.0638
24287SOL    HW279723  12.036   8.563  11.421  0.6480  0.6261 -0.2389
24288SOL     OW79724   8.426   3.237   9.715 -0.2258  0.2814  0.1305
24288SOL    HW179725   8.358   3.243   9.648  0.2849 -1.2698 -0.5741
24288SOL    HW279726   8.379   3.222   9.797 -0.8006  1.1086 -0.0285
24289SOL     OW79727  10.228   4.031   4.372  0.1023 -0.1901  0.1559
24289SOL    HW179728  10.198   4.014   4.283  1.7313 -0.7880 -0.3312
24289SOL    HW279729  10.277   4.113   4.366 -0.1329 -0.0160  0.5881
24290SOL     OW79730   3.710   2.832  11.188  0.5252 -0.1882 -0.2629
24290SOL    HW179731   3.652   2.774  11.237  0.7098 -0.2731 -0.1434
24290SOL    HW279732   3.799   2.808  11.216  0.6039  0.1740 -0.1833
24291SOL     OW79733   3.497  12.153  10.730  0.6636 -0.0832  0.6994
24291SOL    HW179734   3.579  12.125  10.688  0.1405 -0.5254 -0.0436
24291SOL    HW279735   3.495  12.248  10.716  0.4449 -0.2343 -0.3950
24292SOL     OW79736   7.338   7.606   9.906 -0.6472 -0.5707  0.1481
24292SOL    HW179737   7.389   7.534   9.871 -0.1116 -0.6238  1.0030
24292SOL    HW279738   7.333   7.670   9.835  0.4187 -0.6637 -0.0164
24293SOL     OW79739  11.897   8.960  11.388 -0.2099 -0.5687  0.1979
24293SOL    HW179740  11.941   8.922  11.312  0.0312  0.4378 -0.1826
24293SOL    HW279741  11.956   9.030  11.417 -0.4704 -0.7127  1.1011
24294SOL     OW79742   7.088   2.189   8.198  0.2171 -0.2397  0.5719
24294SOL    HW179743   7.022   2.251   8.230  0.6697 -1.1069  3.4489
24294SOL    HW279744   7.049   2.103   8.211  1.3239 -0.7099  0.9351
24295SOL     OW79745   7.523   0.313   8.964 -0.3724  0.0346  0.0051
24295SOL    HW179746   7.606   0.349   8.995 -1.7927  0.9009  3.2828
24295SOL    HW279747   7.523   0.223   8.996 -0.2853 -0.2711 -0.8543
24296SOL     OW79748   9.628  11.339  11.564 -0.7728  0.2868  0.3909
24296SOL    HW179749   9.545  11.333  11.517 -0.2522  1.7648 -0.7743
24296SOL    HW279750   9.638  11.432  11.585  1.4789  0.4945 -1.2204
24297SOL     OW79751   0.810   4.600   8.732 -0.1575  0.1648  0.5461
24297SOL    HW179752   0.810   4.666   8.801 -0.8093 -0.3166  1.0252
24297SOL    HW279753   0.720   4.600   8.699 -0.5279 -1.3763  1.4545
24298SOL     OW79754   9.374   8.273   4.106  0.2957 -0.1461 -0.0802
24298SOL    HW179755   9.319   8.327   4.162 -0.1337 -0.1965 -0.4430
24298SOL    HW279756   9.356   8.183   4.134  0.5020 -0.1407  0.0728
24299SOL     OW79757   3.293   3.820   2.667  0.5590  0.1106  0.2354
24299SOL    HW179758   3.231   3.793   2.599  2.5456  0.6406 -1.9050
24299SOL    HW279759   3.379   3.810   2.627  1.6922  4.0415  1.2491
24300SOL     OW79760   8.964   4.402   4.821  0.0813  0.3888  0.3445
24300SOL    HW179761   9.058   4.423   4.825 -0.0360  0.7147  2.1618
24300SOL    HW279762   8.953   4.359   4.736  1.5242  2.0046 -0.7223
24301SOL     OW79763   7.677  10.453  10.703 -0.5021 -0.4778 -0.1355
24301SOL    HW179764   7.688  10.533  10.652 -0.2544 -0.5813 -0.2487
24301SOL    HW279765   7.597  10.414  10.669 -1.4621  0.4823  0.9602
24302SOL     OW79766  10.435   5.100  11.361 -0.4010  0.3073 -0.2282
24302SOL    HW179767  10.429   5.177  11.418 -3.0074 -0.3642  0.5670
24302SOL    HW279768  10.397   5.129  11.278 -1.5536 -0.1182  0.1289
24303SOL     OW79769  10.024   3.984  11.479  0.0136  0.3694  0.3746
24303SOL    HW179770  10.100   4.021  11.433  0.3765  0.3634  0.9620
24303SOL    HW279771   9.965   3.958  11.409 -0.6429  2.8205 -0.0676
24304SOL     OW79772   2.234   5.624   4.713  0.2406 -0.0511  0.5218
24304SOL    HW179773   2.282   5.553   4.755 -0.4647  1.3161  4.0168
24304SOL    HW279774   2.160   5.580   4.670  0.2314 -1.5083  1.9347
24305SOL     OW79775   2.243   7.460  12.238 -0.5529  0.0522 -0.0957
24305SOL    HW179776   2.268   7.505  12.318  1.2624 -1.7366  0.4318
24305SOL    HW279777   2.303   7.494  12.171  0.4304 -1.0471  0.1781
24306SOL     OW79778   3.274   7.680   5.243  0.9744 -0.1883 -0.5018
24306SOL    HW179779   3.195   7.686   5.189  0.2348 -2.8488  0.1203
24306SOL    HW279780   3.260   7.745   5.312 -0.1372  0.1805 -1.0358
24307SOL     OW79781  11.971   8.232   9.190  0.0834  0.6786  0.1870
24307SOL    HW179782  12.043   8.210   9.130  0.7594  0.6977  0.9678
24307SOL    HW279783  11.921   8.299   9.144  1.3654  1.6712  0.1889
24308SOL     OW79784   8.653   2.038   4.079  0.8508  0.0143 -0.0919
24308SOL    HW179785   8.586   2.090   4.037  1.9285  0.5931 -1.1417
24308SOL    HW279786   8.605   1.968   4.123 -0.4531  0.6496 -0.4653
24309SOL     OW79787   5.338   7.044   1.195  0.3126  0.0735 -0.3201
24309SOL    HW179788   5.289   7.088   1.126 -1.2736  0.5933  1.0617
24309SOL    HW279789   5.326   6.950   1.177 -1.4336  0.1771  0.0992
24310SOL     OW79790   8.888   6.308  12.188  0.2401  0.5127  0.0843
24310SOL    HW179791   8.923   6.346  12.108 -1.3558  0.5645 -0.6278
24310SOL    HW279792   8.799   6.344  12.195  0.1719  0.1459  1.6302
24311SOL     OW79793  12.130   3.421   5.312 -0.6440 -0.0486  0.3485
24311SOL    HW179794  12.037   3.413   5.294 -0.4793 -0.3842 -0.3759
24311SOL    HW279795  12.146   3.515   5.314 -1.1474  0.0252  1.2866
24312SOL     OW79796  11.108   0.727  11.496  0.5675 -0.1355 -0.1895
24312SOL    HW179797  11.131   0.663  11.428  0.8328 -2.1179  1.6629
24312SOL    HW279798  11.192   0.749  11.536  0.3946  0.9002 -0.3847
24313SOL     OW79799   6.305   6.389   8.876  0.7372  0.3954  0.3578
24313SOL    HW179800   6.320   6.386   8.970 -2.2158  1.0946  0.9449
24313SOL    HW279801   6.300   6.297   8.849  4.1431  0.1133  0.2944
24314SOL     OW79802   6.653  10.347  10.490  0.3313 -0.2705 -0.5416
24314SOL    HW179803   6.574  10.325  10.440  0.2013 -1.7944  0.2735
24314SOL    HW279804   6.620  10.379  10.574  0.5800 -0.1829 -0.4753
24315SOL     OW79805   9.564   8.320   7.169 -0.3746  0.1104  0.5227
24315SOL    HW179806   9.498   8.315   7.100  0.7036 -2.8451 -0.4491
24315SOL    HW279807   9.528   8.270   7.242  0.4980 -1.0378  0.1973
24316SOL     OW79808   8.909  10.482   8.175  0.1244 -0.4627 -0.3553
24316SOL    HW179809   8.817  10.463   8.195 -0.2359 -0.6564 -2.0830
24316SOL    HW279810   8.909  10.573   8.147  0.5126 -0.4007 -0.1674
24317SOL     OW79811  10.391   2.577   2.622 -0.4738 -0.0551 -0.1564
24317SOL    HW179812  10.338   2.602   2.697  0.3130  0.8491  0.1153
24317SOL    HW279813  10.403   2.658   2.572  0.2756 -0.3265 -0.4444
24318SOL     OW79814   5.283   4.766   8.079  0.1427 -0.0021 -0.0399
24318SOL    HW179815   5.283   4.671   8.093 -0.6419 -0.2986 -1.7823
24318SOL    HW279816   5.191   4.789   8.073  0.3583  0.6588 -0.8924
24319SOL     OW79817   1.214  11.696   7.610 -0.2049  0.1038 -0.4039
24319SOL    HW179818   1.158  11.737   7.544 -0.2659 -1.0077 -1.0678
24319SOL    HW279819   1.153  11.659   7.674 -0.1952 -0.2734 -0.6145
24320SOL     OW79820   3.023   9.236   9.050 -0.1182 -0.0506  0.0240
24320SOL    HW179821   3.044   9.213   9.141 -2.1326 -1.1360  0.2709
24320SOL    HW279822   2.970   9.163   9.018  0.5456  0.3023 -2.0590
24321SOL     OW79823   2.766   8.466   4.840 -0.3238 -0.6909  0.3850
24321SOL    HW179824   2.762   8.371   4.830 -1.5948 -0.4814 -1.9545
24321SOL    HW279825   2.810   8.497   4.761  0.2790  0.6689  1.2141
24322SOL     OW79826   4.546  12.437   3.915 -0.2865  0.0563 -0.1109
24322SOL    HW179827   4.617  12.499   3.900 -0.6871  0.6896  0.5179
24322SOL    HW279828   4.589  12.358   3.947  0.0536  0.9273  1.7234
24323SOL     OW79829  11.838   9.016   2.129 -0.2646  0.1782  0.2644
24323SOL    HW179830  11.759   8.969   2.103 -0.3937 -0.3056  1.4280
24323SOL    HW279831  11.910   8.966   2.090 -0.4178 -0.8627  1.2349
24324SOL     OW79832   8.843  11.568  11.581 -0.1595  0.0175  0.0397
24324SOL    HW179833   8.890  11.542  11.501  0.5267 -1.5023  0.8898
24324SOL    HW279834   8.907  11.618  11.631 -0.4877  0.6922 -0.2021
24325SOL     OW79835   1.955   2.726   5.650  0.2737 -0.4052 -0.0281
24325SOL    HW179836   1.968   2.634   5.670 -0.6205 -0.0855  2.3215
24325SOL    HW279837   1.863   2.733   5.625  0.3112 -0.1235 -0.0989
24326SOL     OW79838   7.514  10.319   8.595  0.0413  0.1302  0.0449
24326SOL    HW179839   7.486  10.403   8.631 -0.0510  0.8516 -1.6125
24326SOL    HW279840   7.551  10.341   8.509  2.0359 -1.2787  0.4718
24327SOL     OW79841   0.275   3.783   1.477 -0.1572  0.7551  0.1093
24327SOL    HW179842   0.361   3.785   1.518 -0.2025  2.5064  0.1594
24327SOL    HW279843   0.213   3.772   1.549  0.0101 -1.6549 -0.0057
24328SOL     OW79844  12.434  12.161  11.012  0.7947 -0.3568 -0.1133
24328SOL    HW179845  12.476  12.239  10.975 -0.3707  0.5714  0.4527
24328SOL    HW279846  12.491  12.137  11.085 -0.0041  1.3923  1.1725
24329SOL     OW79847   1.113   1.842   8.687 -0.9530  0.5973 -0.1363
24329SOL    HW179848   1.043   1.784   8.716 -1.8251  1.5525 -0.2805
24329SOL    HW279849   1.070   1.925   8.669  0.0439  0.9097 -1.2679
24330SOL     OW79850   4.590   8.880   5.831  0.2388 -0.3884  0.0907
24330SOL    HW179851   4.615   8.849   5.918 -1.1103 -0.1946  0.5686
24330SOL    HW279852   4.502   8.846   5.818 -2.2149  4.5335  1.4082
24331SOL     OW79853   5.325   5.491  10.261  0.2229 -0.0102 -0.4171
24331SOL    HW179854   5.299   5.405  10.231 -2.1710  0.7073 -0.6136
24331SOL    HW279855   5.243   5.539  10.271  1.5132  2.6106 -1.3685
24332SOL     OW79856   1.090   4.123   8.718 -0.8223 -0.1860  0.3325
24332SOL    HW179857   1.006   4.118   8.764 -1.4333 -0.2251 -0.7422
24332SOL    HW279858   1.110   4.217   8.714 -0.3545 -0.2370  1.3826
24333SOL     OW79859  12.316   8.535  11.521  0.2314  0.0512 -0.3779
24333SOL    HW179860  12.333   8.472  11.451  0.0427  0.0043 -0.3821
24333SOL    HW279861  12.372   8.610  11.501 -0.3889  0.3587 -1.0131
24334SOL     OW79862   4.166   4.214   9.017  0.1199  0.3295  0.1701
24334SOL    HW179863   4.255   4.189   9.040  0.6187  0.1481 -1.7660
24334SOL    HW279864   4.167   4.309   9.014  0.5865  0.2993 -1.0017
24335SOL     OW79865  12.320   6.922   2.390 -0.0739 -0.1902 -0.5596
24335SOL    HW179866  12.359   6.962   2.468 -0.6018  1.4459 -1.0942
24335SOL    HW279867  12.243   6.876   2.422 -0.0103  0.0585 -0.0502
24336SOL     OW79868   1.753   8.454   4.928  0.1865  0.2252 -0.1349
24336SOL    HW179869   1.805   8.533   4.917  1.0111 -0.5086 -2.0442
24336SOL    HW279870   1.668   8.475   4.888  0.6037 -0.0043 -1.1802
24337SOL     OW79871   4.500   6.839   9.653  0.0928  0.2021  0.0274
24337SOL    HW179872   4.557   6.884   9.717  0.0723  0.8853 -0.4293
24337SOL    HW279873   4.534   6.866   9.568 -0.8626  0.5480 -0.2533
24338SOL     OW79874   7.868   0.442   0.913  0.5983  0.0470  0.3242
24338SOL    HW179875   7.924   0.376   0.954  0.0007 -1.1261 -0.6643
24338SOL    HW279876   7.781   0.426   0.950  0.6568  1.0068  0.8875
24339SOL     OW79877   0.616   1.275   0.261 -0.2620 -0.1246 -0.3371
24339SOL    HW179878   0.640   1.296   0.351  0.0005 -0.0937 -0.4135
24339SOL    HW279879   0.529   1.235   0.268  0.3251 -1.3829  0.0805
24340SOL     OW79880   9.616   4.467   9.050  0.1444 -0.1062 -0.2497
24340SOL    HW179881   9.543   4.508   9.094  1.1659  0.5736  0.8719
24340SOL    HW279882   9.588   4.376   9.036 -1.4212  0.4761 -1.1036
24341SOL     OW79883  11.427   7.157   5.731  0.0881  0.0181  0.1342
24341SOL    HW179884  11.462   7.243   5.752 -1.3482  0.8474 -0.6639
24341SOL    HW279885  11.460   7.138   5.643  0.1850 -0.1197  0.2007
24342SOL     OW79886   4.928   3.671   0.910 -0.0042  0.5151 -0.0255
24342SOL    HW179887   4.908   3.726   0.834 -1.9335 -0.9260 -0.6370
24342SOL    HW279888   5.024   3.669   0.914  0.1254  1.4883 -1.7522
24343SOL     OW79889   4.919  11.803   8.363  0.1797  0.3247  1.0061
24343SOL    HW179890   4.907  11.775   8.272  0.5056 -1.2025  1.3973
24343SOL    HW279891   4.951  11.893   8.357 -0.6106  0.5454 -0.3571
24344SOL     OW79892   1.635   9.758  11.992 -0.0332  0.0859  0.4514
24344SOL    HW179893   1.621   9.839  12.040 -1.2033  0.2184 -0.0648
24344SOL    HW279894   1.679   9.700  12.054  1.1229  1.2092  0.7216
24345SOL     OW79895  10.335   7.159   1.021  0.1839  0.3090 -0.3728
24345SOL    HW179896  10.388   7.235   1.044 -0.7583  0.8196  0.1175
24345SOL    HW279897  10.366   7.135   0.933  1.3469  0.4853 -0.0252
24346SOL     OW79898   4.991   6.140   0.441 -0.1836  0.1529 -0.7533
24346SOL    HW179899   4.959   6.052   0.421 -0.1148 -0.0796  0.1343
24346SOL    HW279900   4.923   6.198   0.409 -0.6511 -0.2650 -0.5298
24347SOL     OW79901   2.370   1.348   8.785 -0.4751  0.3521  0.1236
24347SOL    HW179902   2.404   1.431   8.819 -0.0576 -0.3883  1.6199
24347SOL    HW279903   2.443   1.311   8.736  0.2789 -0.3348  1.7008
24348SOL     OW79904  11.836   0.858  11.376  0.0541 -0.6162 -0.0843
24348SOL    HW179905  11.865   0.833  11.289 -0.3430 -0.2553 -0.3283
24348SOL    HW279906  11.894   0.930  11.401 -0.0768 -0.4630 -0.2155
24349SOL     OW79907   6.362   2.321   4.798 -0.4933 -0.1284  0.5849
24349SOL    HW179908   6.300   2.343   4.729  1.7328 -0.5194 -1.7119
24349SOL    HW279909   6.407   2.404   4.816  1.1614 -0.6278 -0.9231
24350SOL     OW79910  12.244   9.648   9.973 -0.4353 -0.0235 -0.2456
24350SOL    HW179911  12.299   9.724   9.993 -1.6774  0.3823  1.9208
24350SOL    HW279912  12.290   9.574  10.014 -0.5771  0.0165 -0.0126
24351SOL     OW79913  11.652   1.664   9.342  0.4521  0.6519  0.1487
24351SOL    HW179914  11.629   1.755   9.360  2.1444  1.5423 -1.7980
24351SOL    HW279915  11.589   1.636   9.275  0.8904  0.9178 -0.3809
24352SOL     OW79916   2.357   6.481  10.749  0.2769 -0.3933 -0.3107
24352SOL    HW179917   2.349   6.387  10.765 -0.6324 -0.5322 -1.4566
24352SOL    HW279918   2.271   6.508  10.717 -0.0768  1.2204  1.7452
24353SOL     OW79919   0.299   5.556   0.513  0.1468 -0.3756  0.6682
24353SOL    HW179920   0.291   5.466   0.545  0.7272  0.0636  2.1532
24353SOL    HW279921   0.389   5.563   0.483  0.5038  0.0509  1.7747
24354SOL     OW79922   4.637  10.480  12.399  0.0860  0.4337  0.1497
24354SOL    HW179923   4.577  10.436  12.459  1.1229  0.7394  1.4651
24354SOL    HW279924   4.588  10.556  12.367 -1.4945 -1.2517 -1.6630
24355SOL     OW79925   8.918   9.539   5.326 -0.3627  0.4920  0.4108
24355SOL    HW179926   8.914   9.450   5.293 -0.5480 -0.0039  1.6995
24355SOL    HW279927   8.991   9.579   5.280  0.3852 -0.6536  0.5656
24356SOL     OW79928   6.407   6.723   4.191  0.3897  0.2979  0.1957
24356SOL    HW179929   6.425   6.635   4.226 -0.4928  0.2257  0.4899
24356SOL    HW279930   6.446   6.722   4.103  1.1438 -0.0892  0.5246
24357SOL     OW79931   0.392   0.811   9.628  0.2402 -0.8239 -0.2855
24357SOL    HW179932   0.399   0.724   9.587  1.4602 -0.7738 -0.2182
24357SOL    HW279933   0.453   0.865   9.579 -1.3427  0.3295 -1.0768
24358SOL     OW79934   1.584   8.574   3.865  0.0240 -0.0806  0.2047
24358SOL    HW179935   1.583   8.648   3.805  1.4425 -0.3586 -0.1966
24358SOL    HW279936   1.500   8.580   3.912 -0.2974  1.2068 -0.4838
24359SOL     OW79937   4.664   7.939   0.447  0.6570  0.8231  0.2172
24359SOL    HW179938   4.578   7.898   0.456  1.1759 -0.2779  0.4478
24359SOL    HW279939   4.681   7.940   0.353  1.5891 -1.6909  0.2688
24360SOL     OW79940   4.236  10.315   2.926 -0.0199 -0.2314  0.1141
24360SOL    HW179941   4.165  10.252   2.910  0.8064 -0.7809 -1.6130
24360SOL    HW279942   4.191  10.398   2.940 -1.0713 -0.8981  0.8257
24361SOL     OW79943   2.754   4.703   3.068  0.1745  0.4760 -0.3092
24361SOL    HW179944   2.716   4.791   3.067  0.6498  0.6903 -0.1105
24361SOL    HW279945   2.784   4.689   2.978  1.0142  0.9336 -0.1110
24362SOL     OW79946   2.994   4.124   2.479  0.0857 -0.8516  0.4626
24362SOL    HW179947   2.919   4.132   2.538 -0.0728  0.9865  0.0593
24362SOL    HW279948   3.069   4.108   2.537 -0.5245 -2.3071  0.8955
24363SOL     OW79949  12.168   5.502  11.479 -0.3243  0.0368 -0.1618
24363SOL    HW179950  12.208   5.527  11.396 -0.4346 -0.4699 -0.3726
24363SOL    HW279951  12.233   5.445  11.521 -0.8314 -0.8225 -0.5233
24364SOL     OW79952   5.398   3.698   7.940  0.3398 -0.9272  0.0211
24364SOL    HW179953   5.384   3.659   8.026 -1.2923 -0.5897 -0.0596
24364SOL    HW279954   5.395   3.624   7.879 -0.2576 -0.9628  0.0945
24365SOL     OW79955   8.561   7.812  11.621 -0.3127 -0.4472  0.2736
24365SOL    HW179956   8.483   7.856  11.587 -0.1686 -0.6133 -0.2788
24365SOL    HW279957   8.597   7.766  11.545  1.1853  0.8492  0.1596
24366SOL     OW79958   1.162   8.259   8.694 -0.7605  0.1387 -0.0420
24366SOL    HW179959   1.235   8.211   8.731  0.0468  0.8938 -0.6028
24366SOL    HW279960   1.133   8.207   8.619  0.4521  0.7491 -0.9687
24367SOL     OW79961   6.114   2.496   1.860  0.0015 -0.0134  0.1569
24367SOL    HW179962   6.083   2.573   1.813  0.5834  0.3427  0.3475
24367SOL    HW279963   6.060   2.424   1.827  0.8998  0.0804 -1.6039
24368SOL     OW79964  10.163   7.741  12.165  0.2387  0.0970  0.1107
24368SOL    HW179965  10.080   7.706  12.133 -0.6802  2.0549  0.1888
24368SOL    HW279966  10.226   7.670  12.151 -1.3945 -1.3946 -0.0840
24369SOL     OW79967   7.560   7.339   8.576 -0.3780 -0.5274 -0.2365
24369SOL    HW179968   7.475   7.344   8.531 -0.4069 -2.1671 -0.4031
24369SOL    HW279969   7.563   7.251   8.614  2.2770 -1.4961 -2.3504
24370SOL     OW79970  11.497  10.308   2.915  0.4195 -0.2326  0.0419
24370SOL    HW179971  11.431  10.241   2.930 -0.7045  0.2884 -2.0938
24370SOL    HW279972  11.575  10.259   2.889 -0.6205 -0.8004 -2.3007
24371SOL     OW79973   4.907   4.537   9.537 -0.4305 -0.5962 -0.1544
24371SOL    HW179974   4.966   4.595   9.488  1.0173 -2.3363 -0.5763
24371SOL    HW279975   4.963   4.495   9.602 -1.5246 -1.2176  0.4125
24372SOL     OW79976   9.117  10.849   4.261  0.3792 -0.1162  0.4496
24372SOL    HW179977   9.080  10.902   4.190  1.6300 -1.4174 -1.2848
24372SOL    HW279978   9.094  10.896   4.341 -2.3027  0.7189 -0.6798
24373SOL     OW79979   7.860   2.991   8.234  0.1140  0.4410  0.2753
24373SOL    HW179980   7.844   3.079   8.201 -2.3386  0.6856  1.7902
24373SOL    HW279981   7.802   2.935   8.182  1.2623 -0.2214 -0.3181
24374SOL     OW79982  12.014   2.800   5.817 -0.1373 -0.0654  0.4097
24374SOL    HW179983  11.928   2.840   5.802  0.3125  1.8771  2.4591
24374SOL    HW279984  12.076   2.869   5.795  0.8332 -0.8077  0.7546
24375SOL     OW79985   6.366   1.653   9.401 -0.2055  0.0603  1.0435
24375SOL    HW179986   6.409   1.591   9.460  2.1690  0.2330 -0.3651
24375SOL    HW279987   6.293   1.604   9.364 -0.7685 -0.5662  2.8373
24376SOL     OW79988  11.462  11.823   7.992  0.5663  0.9752 -0.1493
24376SOL    HW179989  11.502  11.857   7.912  0.9026 -1.3677 -1.0617
24376SOL    HW279990  11.536  11.801   8.049  0.3850  1.1096  0.1406
24377SOL     OW79991   3.547   7.492   9.230 -0.3490 -0.5984 -0.1242
24377SOL    HW179992   3.622   7.495   9.289  0.6727 -0.2170 -1.3718
24377SOL    HW279993   3.480   7.545   9.272  0.9210  1.0267 -0.0506
24378SOL     OW79994   2.116   1.912  10.731 -0.3987 -0.0239 -0.2704
24378SOL    HW179995   2.102   2.004  10.750  0.0518  0.0350 -0.2154
24378SOL    HW279996   2.048   1.866  10.782 -0.4139  0.2529 -0.0418
24379SOL     OW79997   4.764   3.059   9.807  0.4811 -0.5176  0.0214
24379SOL    HW179998   4.781   3.134   9.864  1.5467  0.0873 -1.0402
24379SOL    HW279999   4.815   3.077   9.728 -2.2007 -0.4994 -1.8388
24380SOL     OW80000   3.592  11.509   8.898  0.0921 -0.1919  0.0472
24380SOL    HW180001   3.653  11.577   8.926  0.0231 -0.0235 -0.2087
24380SOL    HW280002   3.638  11.463   8.827  0.2905 -0.6530  0.4731
24381SOL     OW80003   0.984   9.243   0.946 -0.2956 -0.3195  0.5898
24381SOL    HW180004   1.004   9.164   0.995 -0.3237 -0.6687  0.0536
24381SOL    HW280005   1.062   9.258   0.893 -0.9516 -0.9985 -0.6162
24382SOL     OW80006   0.846   4.700  10.704 -0.0991  0.4443  0.0661
24382SOL    HW180007   0.768   4.756  10.709  0.9294  1.9283 -0.0127
24382SOL    HW280008   0.901   4.728  10.777  0.2116 -0.8532  0.3463
24383SOL     OW80009   8.693   2.416   4.309 -0.4852 -0.5069  0.4739
24383SOL    HW180010   8.776   2.372   4.327 -0.4057 -0.2092  0.8665
24383SOL    HW280011   8.629   2.345   4.298  0.1973 -0.8314 -1.9876
24384SOL     OW80012   3.046   5.929  10.157  0.3477 -0.1252 -0.2339
24384SOL    HW180013   2.966   5.973  10.127  0.1479 -0.0276  0.4287
24384SOL    HW280014   3.024   5.836  10.153 -0.4846 -0.0626  1.7362
24385SOL     OW80015   8.023   0.800  11.142  0.4704  0.1157 -0.1343
24385SOL    HW180016   8.080   0.875  11.158 -1.0441  1.1418  0.8620
24385SOL    HW280017   7.983   0.817  11.057  1.2293 -0.3429 -0.5944
24386SOL     OW80018   7.488   1.267   2.358  0.0499  0.1194  0.2338
24386SOL    HW180019   7.542   1.218   2.419  1.5012  1.3916  0.0332
24386SOL    HW280020   7.404   1.222   2.358  0.6471 -1.0547  1.6669
24387SOL     OW80021   0.468   9.456   2.920 -0.2062 -0.4174 -0.4415
24387SOL    HW180022   0.515   9.374   2.903  0.2846 -0.0976 -0.6198
24387SOL    HW280023   0.428   9.478   2.836  1.1754  0.4899 -0.8899
24388SOL     OW80024   2.842   1.757  11.273 -0.5501 -0.5411  0.1239
24388SOL    HW180025   2.892   1.826  11.318  0.2481 -1.1754  0.2307
24388SOL    HW280026   2.760   1.800  11.248 -1.0625 -0.1693  2.2485
24389SOL     OW80027   7.132   1.082   1.412  0.2340 -0.5009  0.8639
24389SOL    HW180028   7.136   0.991   1.439 -0.9533 -0.2313  2.0701
24389SOL    HW280029   7.184   1.129   1.478 -0.7437 -0.1042  1.3785
24390SOL     OW80030   0.013   0.652  11.311 -0.1821 -0.3294  0.6018
24390SOL    HW180031   0.011   0.559  11.332 -0.4774 -0.0081  2.1381
24390SOL    HW280032  -0.059   0.690  11.362  0.1664  0.7933  0.2986
24391SOL     OW80033  12.286   3.674   0.603 -0.0042 -0.0497 -0.5909
24391SOL    HW180034  12.245   3.700   0.520  1.7220 -0.8583 -1.7669
24391SOL    HW280035  12.343   3.747   0.625  0.9646 -0.6089 -1.1603
24392SOL     OW80036   6.237   4.686   2.175  0.1107 -0.4906 -0.2549
24392SOL    HW180037   6.222   4.741   2.252 -0.1180  0.2465 -0.8131
24392SOL    HW280038   6.155   4.638   2.164 -0.1191 -0.0629 -0.4504
24393SOL     OW80039  11.286   4.974   1.079  0.4335 -0.0111 -0.2141
24393SOL    HW180040  11.265   4.906   1.144  0.3588 -0.5359 -0.7722
24393SOL    HW280041  11.203   4.989   1.034  0.4827  0.3590 -0.1817
24394SOL     OW80042   6.304   8.820  10.561 -0.6055 -0.8745  0.0326
24394SOL    HW180043   6.232   8.862  10.608 -1.4947 -2.5469  0.2362
24394SOL    HW280044   6.358   8.782  10.629  0.9402  0.9944 -0.0743
24395SOL     OW80045   6.573   5.404   8.290 -0.3382 -0.1064 -0.0397
24395SOL    HW180046   6.607   5.371   8.207 -1.4539  0.5708 -0.7974
24395SOL    HW280047   6.554   5.496   8.274 -1.9761 -0.3104  0.4893
24396SOL     OW80048   4.185   8.619   9.463  0.3994  0.4478 -0.3680
24396SOL    HW180049   4.192   8.563   9.540  0.5263  1.2724  0.2354
24396SOL    HW280050   4.167   8.559   9.390 -2.2174 -0.1633  0.6580
24397SOL     OW80051   8.640   6.586   2.526  0.1170 -0.1225  0.1697
24397SOL    HW180052   8.650   6.500   2.567 -0.3048 -2.0906 -3.3962
24397SOL    HW280053   8.726   6.627   2.535  0.5521 -1.2043  1.3411
24398SOL     OW80054   7.286   4.334   6.289 -0.4142 -0.0089  0.4488
24398SOL    HW180055   7.327   4.409   6.332  0.5078 -0.8412  1.0612
24398SOL    HW280056   7.332   4.258   6.324 -3.4188 -1.1627  2.2934
24399SOL     OW80057  10.077   3.146  12.211  0.1784 -0.2499 -0.0198
24399SOL    HW180058  10.073   3.051  12.206 -0.9240 -0.2425  0.5465
24399SOL    HW280059  10.168   3.165  12.234  0.0609 -1.2429  1.3828
24400SOL     OW80060   6.710   5.457   2.961  0.3902  0.0127  0.2265
24400SOL    HW180061   6.693   5.364   2.977 -0.1875 -0.1850 -1.3082
24400SOL    HW280062   6.779   5.458   2.895  1.6756  0.7322  1.5244
24401SOL     OW80063   8.216   3.458  11.890 -0.4924  0.1700 -0.0046
24401SOL    HW180064   8.232   3.395  11.960 -0.0850  0.8542  0.5393
24401SOL    HW280065   8.137   3.427  11.846 -0.4820 -0.5293  0.4594
24402SOL     OW80066  10.514   4.095  11.175  0.2313 -0.2540  0.1596
24402SOL    HW180067  10.591   4.084  11.231 -0.0630 -0.3070  0.5661
24402SOL    HW280068  10.483   4.183  11.195  0.2165 -0.2123 -0.0438
24403SOL     OW80069   4.372   3.476   0.269  0.0050  0.1390 -0.0982
24403SOL    HW180070   4.359   3.393   0.223  0.3527  0.4460 -0.7726
24403SOL    HW280071   4.359   3.543   0.201 -0.7011  0.6508  0.5368
24404SOL     OW80072   0.110   9.318  11.475 -0.4627  0.0025 -0.0436
24404SOL    HW180073   0.097   9.223  11.476 -0.0884 -0.0458  0.0424
24404SOL    HW280074   0.022   9.353  11.460 -0.3992 -0.4133 -1.6281
24405SOL     OW80075   5.617   6.626   5.461 -0.4799 -0.8128 -0.8488
24405SOL    HW180076   5.532   6.659   5.431 -0.2277  0.4589 -0.2449
24405SOL    HW280077   5.626   6.661   5.550  0.7012 -0.8793 -0.9272
24406SOL     OW80078  12.082   9.611   5.478 -0.1408  0.3524 -0.1039
24406SOL    HW180079  11.993   9.634   5.506  0.2210 -0.5416  1.9373
24406SOL    HW280080  12.137   9.683   5.511  0.0810  0.1959 -0.1302
24407SOL     OW80081  11.792  11.491   6.207 -0.0517 -0.6257 -0.3999
24407SOL    HW180082  11.712  11.439   6.213 -0.1311 -0.4014  0.7155
24407SOL    HW280083  11.863  11.426   6.208 -0.2119 -0.8129 -1.1409
24408SOL     OW80084  10.329   1.194   7.077  0.7728 -0.7424  0.1830
24408SOL    HW180085  10.240   1.224   7.058 -0.1027 -2.2876  1.5603
24408SOL    HW280086  10.356   1.245   7.153  1.3101  0.1175 -0.5661
24409SOL     OW80087   4.518  11.168   5.809  0.3994  0.2109  0.3408
24409SOL    HW180088   4.476  11.132   5.887  0.1232  0.6869  0.4181
24409SOL    HW280089   4.445  11.194   5.752  0.5436  1.8692  0.8446
24410SOL     OW80090  11.985   7.702   2.574  0.5620 -0.2066 -0.0078
24410SOL    HW180091  11.899   7.688   2.613  0.6171  1.8572  1.0085
24410SOL    HW280092  11.969   7.698   2.480 -0.6739  0.2470  0.1617
24411SOL     OW80093   5.145   3.251   2.880  0.4823 -0.4027  0.0529
24411SOL    HW180094   5.190   3.174   2.845  1.1659  0.4033 -0.8828
24411SOL    HW280095   5.215   3.311   2.903 -0.0831  0.4691 -0.4650
24412SOL     OW80096  11.521   2.149  11.587  0.3624 -0.3244 -0.2661
24412SOL    HW180097  11.593   2.152  11.523  0.9895 -1.1777  0.3864
24412SOL    HW280098  11.469   2.073  11.561  0.8065 -0.8746  0.4187
24413SOL     OW80099  11.375   0.968   1.064 -0.6801  0.1669  0.0470
24413SOL    HW180100  11.336   1.013   0.989 -0.3183 -0.6508 -0.6539
24413SOL    HW280101  11.354   1.023   1.139 -0.1879  1.5202 -0.7870
24414SOL     OW80102   2.735   7.215   3.513 -0.6901 -0.4346 -0.0882
24414SOL    HW180103   2.695   7.291   3.555 -0.3240  1.1371 -2.4124
24414SOL    HW280104   2.673   7.189   3.445  0.0545 -1.0624 -0.5438
24415SOL     OW80105   2.555   2.701   2.281  0.6695  0.2231 -0.2508
24415SOL    HW180106   2.493   2.762   2.242  1.2358  0.7751 -0.3009
24415SOL    HW280107   2.614   2.756   2.332  1.0803 -0.3011 -0.1576
24416SOL     OW80108   8.543   9.088   7.172  0.3495 -0.7313  0.6201
24416SOL    HW180109   8.476   9.050   7.230 -0.7857  2.0272  1.2866
24416SOL    HW280110   8.523   9.051   7.086  0.1524 -2.5765  1.4007
24417SOL     OW80111   9.551   7.117   1.439 -0.1022 -0.6140  0.8757
24417SOL    HW180112   9.556   7.042   1.499  2.3915 -1.2147  0.0372
24417SOL    HW280113   9.592   7.086   1.358  0.4556  1.4483  0.3042
24418SOL     OW80114   3.165   4.405   0.524  0.0880  0.6269  0.0862
24418SOL    HW180115   3.196   4.315   0.538  1.9490  1.0620 -0.9596
24418SOL    HW280116   3.245   4.457   0.514 -0.9413  2.4453  0.7735
24419SOL     OW80117   7.770   7.776  10.776 -0.3265 -0.8957  0.0534
24419SOL    HW180118   7.810   7.854  10.812  0.8292 -0.4975 -1.9323
24419SOL    HW280119   7.842   7.729  10.734 -1.4465 -1.5886 -1.1748
24420SOL     OW80120   8.686   7.076   4.337 -0.0619 -0.1939 -0.2645
24420SOL    HW180121   8.750   7.035   4.280  0.5218  1.8799 -1.2221
24420SOL    HW280122   8.659   7.155   4.290  1.0847  2.1221  2.6170
24421SOL     OW80123   6.258  12.017   6.525  0.4959 -0.1707 -0.3450
24421SOL    HW180124   6.304  11.935   6.543  2.8108  0.6258 -2.0506
24421SOL    HW280125   6.307  12.084   6.574 -2.1738  0.1371  2.1455
24422SOL     OW80126   5.880   6.668   1.729  0.2129 -0.0567 -0.2832
24422SOL    HW180127   5.795   6.681   1.770  1.1158  0.7870  1.4214
24422SOL    HW280128   5.931   6.746   1.751  1.9408 -1.2164  0.1000
24423SOL     OW80129   5.619   5.031   9.594  0.3335  0.6966  0.1896
24423SOL    HW180130   5.585   5.094   9.659  0.7969  1.2673 -0.1125
24423SOL    HW280131   5.713   5.046   9.593  0.5441 -0.5035  0.6166
24424SOL     OW80132   7.656   0.522   7.195  0.0528  0.0661  0.1580
24424SOL    HW180133   7.727   0.481   7.244  0.7764  0.0306 -0.9125
24424SOL    HW280134   7.698   0.562   7.119 -1.1035 -0.2256 -0.6597
24425SOL     OW80135   3.474   9.983  12.128 -0.4706  0.0218 -0.3275
24425SOL    HW180136   3.555   9.946  12.165 -1.3439 -1.7183 -0.0638
24425SOL    HW280137   3.504  10.051  12.068  1.1343  0.3359  0.7690
24426SOL     OW80138  11.935   4.832   2.472 -0.7863 -0.4747 -0.2803
24426SOL    HW180139  11.927   4.833   2.376  0.5584 -2.1868 -0.4560
24426SOL    HW280140  12.028   4.850   2.489 -0.9623 -0.4232  0.7040
24427SOL     OW80141   8.098   1.451  10.838  0.1361  0.2514  0.0769
24427SOL    HW180142   8.053   1.535  10.837 -1.2244 -0.4491  0.1664
24427SOL    HW280143   8.030   1.387  10.858  1.1992 -0.8465  0.3330
24428SOL     OW80144   7.719   5.912  10.123  0.1971  0.2771  0.1641
24428SOL    HW180145   7.742   5.984  10.182  1.0516 -0.5525  0.8887
24428SOL    HW280146   7.690   5.841  10.182 -1.9306  0.4373 -0.5942
24429SOL     OW80147  11.887   8.651   5.380  0.6420  0.7965  0.0167
24429SOL    HW180148  11.916   8.589   5.314  0.4851 -0.1832  0.8481
24429SOL    HW280149  11.935   8.627   5.459 -1.6006 -0.2311  1.1658
24430SOL     OW80150   5.497   3.456   9.508  0.6538 -0.1011 -0.2680
24430SOL    HW180151   5.562   3.525   9.497  0.5896 -0.0324 -0.2116
24430SOL    HW280152   5.539   3.393   9.566  1.0202 -0.4957 -0.9451
24431SOL     OW80153  10.530   7.333  10.989 -0.0546  1.0076 -0.7849
24431SOL    HW180154  10.620   7.335  11.022  0.5079  0.3142 -2.1801
24431SOL    HW280155  10.477   7.362  11.062  1.2731  1.0411  0.2039
24432SOL     OW80156   8.216   9.220  11.819 -0.4202  0.0839 -0.0826
24432SOL    HW180157   8.225   9.316  11.818  0.0318  0.0640  0.9187
24432SOL    HW280158   8.294   9.189  11.865  0.3948 -0.9054 -2.0215
24433SOL     OW80159   1.932   3.163   9.553  0.2840  0.0738 -0.1123
24433SOL    HW180160   1.882   3.147   9.473  1.8599 -0.7224 -0.9978
24433SOL    HW280161   2.024   3.155   9.526  0.8660 -1.3110  1.9832
24434SOL     OW80162  11.295   7.192   2.007 -0.1644  0.4067 -0.0470
24434SOL    HW180163  11.352   7.159   2.076  1.8807 -1.9278 -2.6026
24434SOL    HW280164  11.268   7.114   1.958  1.3789  1.9854 -3.8668
24435SOL     OW80165   4.627   1.310  12.172  0.1881 -0.2718 -0.3685
24435SOL    HW180166   4.600   1.243  12.235  1.7660 -0.2611  0.3636
24435SOL    HW280167   4.701   1.270  12.125  1.2842  0.9997  0.2176
24436SOL     OW80168   0.740   7.694   8.012  0.2375  0.1623  0.2995
24436SOL    HW180169   0.670   7.660   8.068  0.8519 -0.9358  0.4195
24436SOL    HW280170   0.747   7.630   7.941  1.0603  0.3108  0.2389
24437SOL     OW80171  12.459   7.823   3.109  0.2259 -0.5267 -0.6025
24437SOL    HW180172  12.467   7.813   3.014  1.3643 -0.5685 -0.5231
24437SOL    HW280173  12.510   7.750   3.144  0.2338 -0.2119  0.0422
24438SOL     OW80174   5.053   1.604  11.766 -0.3511  0.1846 -0.4574
24438SOL    HW180175   4.991   1.543  11.805  0.4423  0.2382  0.9462
24438SOL    HW280176   5.043   1.685  11.816  0.6058  0.3013 -0.4312
24439SOL     OW80177   9.230   9.501   5.811  0.4163 -0.2111  0.2944
24439SOL    HW180178   9.138   9.481   5.790  0.2098  0.3075  0.6817
24439SOL    HW280179   9.280   9.460   5.741 -0.1370 -0.1973 -0.1126
24440SOL     OW80180   6.341   1.812   2.353 -0.3363  0.2500 -0.2860
24440SOL    HW180181   6.349   1.779   2.264 -1.6519 -1.7278  0.2613
24440SOL    HW280182   6.383   1.746   2.408  0.1589  1.2690  0.5959
24441SOL     OW80183   5.393   0.288   8.969  0.3029  0.1119 -0.4323
24441SOL    HW180184   5.368   0.361   9.024  1.6200  0.1364  0.1838
24441SOL    HW280185   5.439   0.228   9.028  2.2099  0.3853 -1.5362
24442SOL     OW80186  10.009  11.513  12.050 -0.4610  0.2261 -0.0112
24442SOL    HW180187   9.967  11.434  12.084 -2.2490  1.7970  1.6064
24442SOL    HW280188   9.954  11.539  11.976 -1.0654  1.0579  0.7221
24443SOL     OW80189   4.020  10.604   0.051  0.1437  0.6087  0.5189
24443SOL    HW180190   4.065  10.686   0.070 -0.2891  1.3835 -1.5384
24443SOL    HW280191   3.983  10.617  -0.037 -0.7455 -1.4393  0.5415
24444SOL     OW80192   4.666  11.272   6.407 -0.0759 -0.1045  0.3540
24444SOL    HW180193   4.593  11.260   6.468  0.3518 -0.4655  0.7993
24444SOL    HW280194   4.683  11.185   6.372  0.1642 -0.0304  0.2836
24445SOL     OW80195   6.454   8.211   4.262  0.9849 -0.1357  0.0976
24445SOL    HW180196   6.424   8.301   4.276  0.3834 -0.2953 -0.1244
24445SOL    HW280197   6.546   8.211   4.290  0.4470  0.0744  1.9785
24446SOL     OW80198   9.706   3.789  11.490  0.3224 -0.2682  0.2891
24446SOL    HW180199   9.720   3.786  11.584 -1.6071 -0.8503  0.5988
24446SOL    HW280200   9.641   3.858  11.477  1.4356  0.6326 -0.7623
24447SOL     OW80201  10.259   3.857   2.322  0.5795  0.5731 -0.4402
24447SOL    HW180202  10.296   3.826   2.404  1.3067  0.4440 -0.8012
24447SOL    HW280203  10.308   3.810   2.254  1.0069  1.7337 -0.9774
24448SOL     OW80204   9.980   7.399   0.299 -0.0979  0.0988 -0.3834
24448SOL    HW180205   9.901   7.403   0.353 -0.8078  2.5631 -1.4866
24448SOL    HW280206   9.991   7.305   0.280 -2.1409 -0.4018  0.6309
24449SOL     OW80207   4.488   6.527   2.619 -0.1332 -0.0611  0.0275
24449SOL    HW180208   4.416   6.563   2.567 -1.1044 -2.0247 -0.0983
24449SOL    HW280209   4.533   6.468   2.559  0.5169 -0.1645  0.6039
24450SOL     OW80210   9.361   4.545   0.579 -0.2802  0.9889 -0.2352
24450SOL    HW180211   9.323   4.459   0.598 -1.4167  1.4816 -0.2060
24450SOL    HW280212   9.451   4.526   0.552 -0.3125 -0.1535  0.3934
24451SOL     OW80213   3.596  12.388  10.348 -0.1424  0.2932 -0.3563
24451SOL    HW180214   3.558  12.426  10.427  1.8185  1.8815 -0.0891
24451SOL    HW280215   3.684  12.360  10.375  0.5735  0.9016 -1.9521
24452SOL     OW80216  11.610   0.174   3.001 -0.4528  0.9395  0.1663
24452SOL    HW180217  11.645   0.258   3.032 -0.3706  0.4133  1.5614
24452SOL    HW280218  11.656   0.158   2.918  0.0672  1.9136  0.2487
24453SOL     OW80219   8.884   2.883   9.845 -0.9642 -0.2310  0.5888
24453SOL    HW180220   8.823   2.899   9.772 -0.1343  0.8440  0.1117
24453SOL    HW280221   8.949   2.823   9.809 -1.1391 -0.5443  0.7843
24454SOL     OW80222   7.120   0.806   7.141  0.3501 -0.7087 -0.2082
24454SOL    HW180223   7.121   0.766   7.228  0.8735 -0.2023  0.0198
24454SOL    HW280224   7.027   0.814   7.120  0.1191  1.1641  1.2405
24455SOL     OW80225   5.023   6.982   4.355  0.2902  0.2501 -0.4822
24455SOL    HW180226   4.992   6.993   4.444  1.0840  1.4841 -0.3317
24455SOL    HW280227   4.944   6.989   4.301 -0.2970 -1.2513  0.1410
24456SOL     OW80228   5.645   4.098  12.428  0.6162 -0.0520 -0.0272
24456SOL    HW180229   5.648   4.073  12.336 -0.3437 -0.3628  0.0223
24456SOL    HW280230   5.610   4.187  12.428 -0.2073 -0.3725  0.0906
24457SOL     OW80231   4.832   1.300  11.519  0.4849  0.6014  0.5010
24457SOL    HW180232   4.860   1.233  11.583  0.7725 -0.2227 -0.4639
24457SOL    HW280233   4.759   1.259  11.472 -0.0085  1.3735  0.5857
24458SOL     OW80234   3.421  10.610  11.560  0.0267 -0.0440  0.2130
24458SOL    HW180235   3.511  10.641  11.565 -0.8328  2.4152  2.5015
24458SOL    HW280236   3.419  10.532  11.615  1.2642 -1.8825 -2.1415
24459SOL     OW80237   7.753   8.650   7.214  0.1362 -0.1109  0.1753
24459SOL    HW180238   7.713   8.565   7.236 -1.2364  0.3682 -0.3427
24459SOL    HW280239   7.746   8.700   7.295  1.8547 -0.7901  0.7825
24460SOL     OW80240  10.132  10.364   0.355 -0.1797 -0.7881  0.1555
24460SOL    HW180241  10.178  10.439   0.391  1.1014 -0.8066 -1.3237
24460SOL    HW280242  10.071  10.337   0.424  0.1630  0.8677  1.1531
24461SOL     OW80243   0.078   0.194  10.498  0.2553 -0.0050 -0.3173
24461SOL    HW180244   0.067   0.280  10.538 -0.8013  0.0883 -0.7538
24461SOL    HW280245   0.118   0.140  10.565  1.4053  0.9592 -0.2097
24462SOL     OW80246  12.215   3.255  12.124 -0.1696  0.5543  0.2853
24462SOL    HW180247  12.176   3.179  12.169  0.5925 -0.7255 -1.1487
24462SOL    HW280248  12.304   3.227  12.102  0.5802  2.3567  0.8451
24463SOL     OW80249   8.010  10.039   3.379 -0.3826  0.2838 -0.4413
24463SOL    HW180250   7.962  10.112   3.419 -0.8392  0.0032 -0.4678
24463SOL    HW280251   8.086  10.080   3.337  1.2415  0.4065  2.3761
24464SOL     OW80252  10.274  10.800   0.323 -0.5153 -0.4065  0.5579
24464SOL    HW180253  10.281  10.861   0.396 -1.3717  0.4356 -0.0361
24464SOL    HW280254  10.311  10.719   0.356  0.6935  0.4314  1.3681
24465SOL     OW80255   4.004   8.808   9.808  0.6249 -0.3192  0.0438
24465SOL    HW180256   4.026   8.731   9.861  0.9567 -0.5585 -0.4319
24465SOL    HW280257   4.089   8.848   9.788  0.5417 -0.4906 -0.6841
24466SOL     OW80258  10.302   2.474   2.962  0.2664  0.0076  0.0727
24466SOL    HW180259  10.277   2.427   2.882  1.6687 -1.5598  0.5128
24466SOL    HW280260  10.312   2.565   2.934 -1.1256 -0.1616 -1.1111
24467SOL     OW80261   2.700   4.653   4.152 -0.5925  0.3198  0.3930
24467SOL    HW180262   2.605   4.664   4.152 -0.5736  1.0055 -1.9129
24467SOL    HW280263   2.734   4.737   4.119  0.6636 -0.6186 -0.8334
24468SOL     OW80264   4.575   6.631   5.800  0.3251  0.5126  0.1919
24468SOL    HW180265   4.645   6.669   5.853  1.2200 -0.2521 -0.4245
24468SOL    HW280266   4.616   6.614   5.715 -1.1453  1.9788 -0.8765
24469SOL     OW80267   5.714   5.101   7.487 -0.4924  0.1328 -0.0165
24469SOL    HW180268   5.739   5.049   7.411 -1.1061 -0.9280  0.4924
24469SOL    HW280269   5.668   5.040   7.544  1.0232  0.5745  1.8003
24470SOL     OW80270   4.611   1.655   6.791  0.7838  0.4511 -0.1436
24470SOL    HW180271   4.538   1.617   6.743  1.3835 -1.3954  0.3547
24470SOL    HW280272   4.677   1.673   6.723  1.2276 -1.2002 -0.1881
24471SOL     OW80273   5.086   6.914   3.432 -0.1928 -0.1091 -0.1810
24471SOL    HW180274   5.169   6.906   3.480 -0.0666  1.2303 -0.1260
24471SOL    HW280275   5.020   6.885   3.493 -0.1811  2.7607  1.4004
24472SOL     OW80276   8.929   1.816  10.715 -0.6303  0.0797 -0.3293
24472SOL    HW180277   8.986   1.740  10.726 -0.4745  0.2280 -0.0980
24472SOL    HW280278   8.987   1.886  10.686 -0.7320  0.1759 -0.3010
24473SOL     OW80279   5.115   7.085  10.282  0.0157 -0.4602 -0.1898
24473SOL    HW180280   5.109   7.006  10.336 -0.6139 -1.0255 -1.0737
24473SOL    HW280281   5.115   7.052  10.192  1.5117  0.4353 -0.5506
24474SOL     OW80282   0.409   3.054   5.281 -0.0740  0.1027  0.3569
24474SOL    HW180283   0.482   3.046   5.343 -1.7398  0.5717  2.4867
24474SOL    HW280284   0.382   2.964   5.264  1.8359 -0.1823 -1.6170
24475SOL     OW80285   9.200   4.213   2.211 -0.1059 -0.6183 -0.2207
24475SOL    HW180286   9.164   4.301   2.220 -0.7413 -0.7236 -1.4594
24475SOL    HW280287   9.289   4.220   2.245 -0.6173  0.1306  1.0454
24476SOL     OW80288   3.119   8.909  11.634 -0.4625 -0.0564  0.3224
24476SOL    HW180289   3.205   8.920  11.594  0.0160 -1.8363  0.7858
24476SOL    HW280290   3.076   8.843  11.581 -1.0024 -0.1954  0.9190
24477SOL     OW80291   0.599   5.677   2.187 -0.2715 -0.2084  0.1987
24477SOL    HW180292   0.621   5.662   2.279  1.0923 -1.1757 -0.2474
24477SOL    HW280293   0.503   5.676   2.185 -0.3229 -0.6643  1.5282
24478SOL     OW80294   5.611   2.716   5.921 -0.5461  0.1674  0.1676
24478SOL    HW180295   5.540   2.766   5.880  0.4390  0.8359 -0.7763
24478SOL    HW280296   5.655   2.780   5.978 -0.6262 -0.2190  0.6697
24479SOL     OW80297   8.845   1.226   1.207  0.0370 -0.0531 -0.2515
24479SOL    HW180298   8.906   1.169   1.160 -0.1115  0.1707 -0.7159
24479SOL    HW280299   8.760   1.210   1.167  0.0334  0.6583 -0.5381
24480SOL     OW80300  11.917   4.486   9.496  0.1986  0.1355 -0.8384
24480SOL    HW180301  11.875   4.401   9.482  0.8862 -0.2016 -0.8972
24480SOL    HW280302  11.844   4.547   9.506 -0.3577 -0.7268  0.9363
24481SOL     OW80303   3.654   0.743  10.168 -0.8996 -0.5660 -0.0935
24481SOL    HW180304   3.715   0.812  10.141 -0.2533 -0.9997  0.2225
24481SOL    HW280305   3.635   0.695  10.088 -0.2257 -0.8911 -0.0611
24482SOL     OW80306   3.246   3.319  10.663  0.2981 -0.0389  0.3281
24482SOL    HW180307   3.326   3.298  10.712 -0.3556 -1.3766  0.8683
24482SOL    HW280308   3.278   3.348  10.577  1.4076  0.9313  1.0251
24483SOL     OW80309   9.596  10.071   8.212 -0.3029  0.0289 -0.1414
24483SOL    HW180310   9.528  10.139   8.213 -0.2218  0.1654 -1.5504
24483SOL    HW280311   9.613  10.057   8.119  1.9135  0.3060  0.1793
24484SOL     OW80312   6.347  12.002   1.099  0.3337 -0.2993  0.0391
24484SOL    HW180313   6.431  12.048   1.105  0.7907 -0.9179 -1.2287
24484SOL    HW280314   6.361  11.922   1.150  1.2641 -1.4064 -1.8464
24485SOL     OW80315   0.371   7.226   8.693  0.2654 -0.8303 -0.0130
24485SOL    HW180316   0.354   7.150   8.749  0.1727 -1.6713 -1.1383
24485SOL    HW280317   0.450   7.202   8.645  0.4310 -0.0601 -0.1309
24486SOL     OW80318   2.420   4.419  11.461  0.2755 -0.4130 -0.3495
24486SOL    HW180319   2.355   4.455  11.522  1.7882 -0.9506  1.6972
24486SOL    HW280320   2.501   4.464  11.483  1.9099 -3.7376  1.2550
24487SOL     OW80321   0.647   3.476   2.624 -0.0844  0.3741 -0.2345
24487SOL    HW180322   0.673   3.444   2.537 -0.9427 -0.1602 -0.3105
24487SOL    HW280323   0.727   3.471   2.676 -0.1924 -2.2424 -0.1616
24488SOL     OW80324   1.128   6.425  11.405  0.1194 -0.2041  0.1522
24488SOL    HW180325   1.199   6.412  11.467 -0.2221  2.0415  1.1057
24488SOL    HW280326   1.089   6.509  11.430 -2.5596 -1.0970 -0.6285
24489SOL     OW80327   7.156   3.822   9.501 -0.2862  0.3561 -1.2323
24489SOL    HW180328   7.178   3.860   9.586 -1.8167  0.7232 -0.9618
24489SOL    HW280329   7.118   3.736   9.522 -0.6163  0.4225 -1.5407
24490SOL     OW80330   8.291   3.421   3.174  0.2989 -0.2281  0.0174
24490SOL    HW180331   8.332   3.465   3.099 -1.5258  1.8609  0.1202
24490SOL    HW280332   8.301   3.483   3.246 -1.7545 -0.2207  0.3605
24491SOL     OW80333   6.570   9.546  11.738  0.3082 -0.1662  0.2049
24491SOL    HW180334   6.480   9.514  11.733  0.0432  0.4952  0.6695
24491SOL    HW280335   6.597   9.556  11.646  0.0618 -0.7837  0.0624
24492SOL     OW80336   4.908   3.448  10.700 -0.2165 -0.5718 -0.0056
24492SOL    HW180337   4.919   3.527  10.754  2.4850 -1.3058  0.6659
24492SOL    HW280338   4.943   3.377  10.754 -0.8191 -1.9366 -1.3506
24493SOL     OW80339   4.790  11.916  11.278  0.3440  0.0386  0.3864
24493SOL    HW180340   4.859  11.978  11.303 -0.4418  1.4174 -0.6620
24493SOL    HW280341   4.710  11.954  11.314 -0.1321 -0.4768 -0.1022
24494SOL     OW80342   2.094   8.091   4.289 -0.5019  0.2726 -0.1181
24494SOL    HW180343   2.034   8.146   4.340 -1.1444  0.4439 -1.0493
24494SOL    HW280344   2.044   8.012   4.269  0.2021 -0.3959  0.6559
24495SOL     OW80345   5.080  12.362  11.299  0.1412  0.3360  0.3184
24495SOL    HW180346   5.144  12.414  11.346 -0.3289  0.4314  0.8707
24495SOL    HW280347   5.064  12.286  11.356  2.2839 -1.5036 -1.3301
24496SOL     OW80348   5.481  10.632   9.461 -0.3294  0.3964  0.9275
24496SOL    HW180349   5.559  10.663   9.415 -1.5924  2.0849 -0.2110
24496SOL    HW280350   5.480  10.538   9.445  0.9980  0.4728  0.2220
24497SOL     OW80351   1.476   3.606   0.865  0.2553  0.0579 -0.2916
24497SOL    HW180352   1.401   3.662   0.886  0.5303  0.8084 -1.2609
24497SOL    HW280353   1.453   3.566   0.782 -0.0690 -1.5428  0.5205
24498SOL     OW80354   3.114   1.170   0.205  0.3092 -0.4396 -0.1549
24498SOL    HW180355   3.018   1.172   0.214  0.1043 -3.5483 -0.5776
24498SOL    HW280356   3.146   1.174   0.295 -0.3376 -1.1180  0.1211
24499SOL     OW80357   8.775  10.170  11.977 -0.1500 -0.3430 -0.5196
24499SOL    HW180358   8.849  10.112  11.994  1.7265  1.9910 -0.0466
24499SOL    HW280359   8.748  10.149  11.888 -0.3023 -2.6362  0.0118
24500SOL     OW80360   3.306   0.615  11.328 -0.1920  0.2995  0.2471
24500SOL    HW180361   3.323   0.709  11.325  2.2093 -0.1010 -1.0928
24500SOL    HW280362   3.236   0.601  11.265  0.9553  0.9718 -1.2261
24501SOL     OW80363   7.414   4.542   5.806  0.0885 -0.2837  0.4723
24501SOL    HW180364   7.349   4.473   5.789 -1.1851  0.9046  0.3560
24501SOL    HW280365   7.372   4.598   5.871  1.2288  0.2285  0.7783
24502SOL     OW80366   2.238  12.081   9.677 -0.1929 -0.7872  0.0918
24502SOL    HW180367   2.315  12.121   9.717  0.5880 -0.0772 -1.9993
24502SOL    HW280368   2.176  12.070   9.749  0.5900  1.6977  1.2297
24503SOL     OW80369   7.327   8.898   3.565 -0.0340  0.0448 -0.4000
24503SOL    HW180370   7.270   8.920   3.639  1.5165 -0.5005  1.0017
24503SOL    HW280371   7.266   8.887   3.492 -1.5890  0.9539  0.6765
24504SOL     OW80372  10.457   4.072   6.612  0.0268 -0.3410 -0.4925
24504SOL    HW180373  10.540   4.101   6.575 -0.8002 -0.4560 -2.5615
24504SOL    HW280374  10.471   3.980   6.635  1.1976  0.2879  1.6338
24505SOL     OW80375   9.351   8.416   5.221 -0.1113 -0.1366 -0.2823
24505SOL    HW180376   9.418   8.456   5.165  0.7397 -1.2559 -0.0993
24505SOL    HW280377   9.400   8.369   5.288 -1.0873 -0.7036  0.0564
24506SOL     OW80378   4.094  12.379   6.233 -0.1334 -0.0309 -0.3740
24506SOL    HW180379   4.163  12.326   6.193 -0.3673 -0.4147 -0.2785
24506SOL    HW280380   4.013  12.332   6.212 -0.5049  1.0901 -1.6028
24507SOL     OW80381   8.012   6.792   7.656 -0.0696 -0.0645  0.4251
24507SOL    HW180382   8.017   6.871   7.603  0.3159  0.2432  0.9072
24507SOL    HW280383   7.938   6.807   7.715 -0.9730 -0.7203 -0.5055
24508SOL     OW80384   3.528  10.728   4.673  0.1340 -0.4405 -0.2124
24508SOL    HW180385   3.589  10.801   4.666 -1.5150  0.8653 -2.1365
24508SOL    HW280386   3.507  10.706   4.583 -1.1410 -1.7931  0.3778
24509SOL     OW80387   8.891   3.389   3.431 -0.1738 -0.0229 -0.1229
24509SOL    HW180388   8.817   3.404   3.371  0.3491 -0.0483 -0.7861
24509SOL    HW280389   8.880   3.298   3.459 -1.0270  0.3061  0.6851
24510SOL     OW80390   9.678   4.942   0.216 -0.2759  0.5190 -0.4276
24510SOL    HW180391   9.644   5.028   0.190 -1.8258  0.4476  1.2274
24510SOL    HW280392   9.773   4.954   0.219 -0.5193  2.6428  1.2016
24511SOL     OW80393   7.806   8.979   5.014 -0.3595  0.2724 -0.2022
24511SOL    HW180394   7.838   8.920   4.945  0.8292  0.1321  0.4502
24511SOL    HW280395   7.744   8.926   5.063  1.1343 -0.6861  0.7406
24512SOL     OW80396   9.300   3.497  10.358 -0.3947 -0.4889 -0.0061
24512SOL    HW180397   9.361   3.515  10.430  1.0243 -1.0083 -1.0248
24512SOL    HW280398   9.324   3.409  10.328 -0.6758 -0.1210 -1.3623
24513SOL     OW80399   8.395  10.980   2.710 -0.1646 -0.1751 -0.1880
24513SOL    HW180400   8.412  10.886   2.721 -2.0490 -0.3529  1.8391
24513SOL    HW280401   8.307  10.984   2.674  0.1958  0.8401 -0.9994
24514SOL     OW80402  12.352   3.607   0.143  0.3919 -0.0187 -0.6249
24514SOL    HW180403  12.325   3.518   0.164 -0.2491  0.3212  0.0453
24514SOL    HW280404  12.328   3.619   0.051 -0.8509 -0.0641 -0.3180
24515SOL     OW80405  11.843   0.995  12.329 -0.1127 -0.0715 -0.3207
24515SOL    HW180406  11.754   0.966  12.306  0.4168 -0.4820 -1.9322
24515SOL    HW280407  11.850   1.082  12.290  0.5224 -0.4497 -1.0792
24516SOL     OW80408   0.805   8.008   7.823 -0.1799 -0.0113 -0.1241
24516SOL    HW180409   0.871   7.980   7.759  0.3325  2.2032 -0.6537
24516SOL    HW280410   0.723   8.006   7.774 -0.3150 -1.4389  0.1293
24517SOL     OW80411   1.302   5.296   8.404 -0.2846  0.4210  0.5207
24517SOL    HW180412   1.387   5.256   8.421 -0.9824 -1.4118  0.0108
24517SOL    HW280413   1.289   5.285   8.310 -0.8802  1.1104  0.5171
24518SOL     OW80414  12.421   7.517   3.206 -0.3326 -0.1895 -0.1796
24518SOL    HW180415  12.426   7.462   3.284  0.3428 -0.9341 -0.7323
24518SOL    HW280416  12.330   7.511   3.178  0.0160 -2.2656 -1.0779
24519SOL     OW80417  10.825   6.922  12.270  0.1755 -0.2517 -0.1528
24519SOL    HW180418  10.807   7.015  12.260  1.9019  0.1308  0.0103
24519SOL    HW280419  10.897   6.918  12.333 -1.2214 -1.8238  1.4442
24520SOL     OW80420   1.165   5.563   6.856 -0.0303  0.0525  0.1438
24520SOL    HW180421   1.243   5.557   6.800  1.3815  1.2496  1.8789
24520SOL    HW280422   1.177   5.494   6.921  0.0125  0.7725  0.9097
24521SOL     OW80423   2.177   7.699   9.078 -0.3087  0.5898  0.1291
24521SOL    HW180424   2.244   7.764   9.101 -0.2656  0.3700  0.6387
24521SOL    HW280425   2.226   7.617   9.067 -0.2839  0.7488 -1.0798
24522SOL     OW80426   7.346   6.981  10.185  0.1810 -0.0578  0.1907
24522SOL    HW180427   7.417   7.042  10.205 -1.5601  1.4658  2.0646
24522SOL    HW280428   7.343   6.922  10.260 -1.4887  0.8978  0.9369
24523SOL     OW80429  10.057  11.739   5.848  0.1098 -0.2959 -0.4193
24523SOL    HW180430  10.057  11.647   5.873  0.3433  0.0246  0.8495
24523SOL    HW280431  10.148  11.766   5.853 -0.0615  0.2206  0.1477
24524SOL     OW80432   9.138   8.619  10.481 -0.7183  0.0742 -0.0687
24524SOL    HW180433   9.045   8.630  10.464 -0.3820  2.9370 -0.6129
24524SOL    HW280434   9.154   8.672  10.559  0.6385  0.6586 -0.7126
24525SOL     OW80435   0.524   8.991  11.240 -0.2268  0.7706  0.3107
24525SOL    HW180436   0.581   9.046  11.294 -1.0208 -0.4343  2.4830
24525SOL    HW280437   0.466   8.948  11.302 -1.2794 -0.6253 -1.5362
24526SOL     OW80438   3.344   6.071   0.601 -0.7450 -0.3825 -0.3561
24526SOL    HW180439   3.314   6.141   0.659  0.8287  0.3583 -0.3941
24526SOL    HW280440   3.426   6.103   0.565  0.1095 -2.3243 -0.2573
24527SOL     OW80441  11.389  10.580   4.479  0.2990 -0.3889  0.3145
24527SOL    HW180442  11.317  10.553   4.422  0.0094 -2.9664  1.7780
24527SOL    HW280443  11.468  10.558   4.429  0.0814  0.0457 -0.2345
24528SOL     OW80444  12.208   2.806   3.729 -0.4399 -0.5064 -0.0634
24528SOL    HW180445  12.233   2.734   3.671 -0.0088 -0.3636 -0.0644
24528SOL    HW280446  12.252   2.786   3.812 -1.4104 -0.9367  0.3568
24529SOL     OW80447   7.041   5.573   1.303 -0.2449 -0.4254  0.0197
24529SOL    HW180448   6.962   5.523   1.284 -0.6319 -0.2490  1.0755
24529SOL    HW280449   7.058   5.624   1.224 -0.6801 -1.1316 -0.5311
24530SOL     OW80450   4.892  11.741   1.583 -0.4404 -0.8182 -0.0278
24530SOL    HW180451   4.978  11.745   1.624 -0.5594  0.0234  0.1523
24530SOL    HW280452   4.878  11.648   1.566  1.0432 -0.8643 -1.2417
24531SOL     OW80453   4.628   4.448   9.009 -0.4937 -0.0669 -0.0849
24531SOL    HW180454   4.543   4.437   8.965 -0.3440  0.9316 -0.6398
24531SOL    HW280455   4.663   4.529   8.973  0.6016 -0.3553  0.3145
24532SOL     OW80456   1.471   9.407   9.452 -0.4936  0.5297  0.0747
24532SOL    HW180457   1.455   9.362   9.535  0.2805 -0.3591 -0.2441
24532SOL    HW280458   1.401   9.472   9.447 -2.1842 -1.1849  0.1598
24533SOL     OW80459   8.206  11.930   7.382 -0.4319  0.1489 -0.0681
24533SOL    HW180460   8.162  11.846   7.397 -0.4022 -0.1280 -1.3881
24533SOL    HW280461   8.293  11.920   7.419 -0.0674 -0.7979 -1.1200
24534SOL     OW80462   0.936   7.049  11.632 -0.0339 -0.0329  0.0659
24534SOL    HW180463   0.849   7.016  11.610 -0.5475  1.5797 -0.4441
24534SOL    HW280464   0.924   7.143  11.643  1.1064 -0.1003  2.7773
24535SOL     OW80465   5.669   2.223   5.769 -0.0353  0.3236  0.1603
24535SOL    HW180466   5.723   2.150   5.801 -0.2110 -0.0163 -0.3037
24535SOL    HW280467   5.710   2.301   5.807  0.8621  0.0883 -0.2878
24536SOL     OW80468   1.654   2.304  10.640 -0.2020  0.4770  0.3012
24536SOL    HW180469   1.689   2.339  10.722  3.0612  2.0179 -1.5563
24536SOL    HW280470   1.588   2.368  10.613  0.2421  1.1058  0.6800
24537SOL     OW80471   2.174   8.513   8.954  0.4514  0.1499 -0.5780
24537SOL    HW180472   2.104   8.449   8.968  0.3398  0.4828  0.4803
24537SOL    HW280473   2.220   8.482   8.876 -0.2439 -0.6413 -0.6836
24538SOL     OW80474   3.528   5.185   3.527 -0.6177 -0.4533 -0.2426
24538SOL    HW180475   3.455   5.241   3.552 -0.4212  0.2186 -1.1155
24538SOL    HW280476   3.599   5.211   3.585 -0.3987  0.5290 -0.9243
24539SOL     OW80477   0.812  11.385   1.165 -0.0201  0.4499  0.3833
24539SOL    HW180478   0.823  11.416   1.255  0.3897  1.0693  0.1229
24539SOL    HW280479   0.798  11.465   1.114  0.0936  0.1297 -0.1539
24540SOL     OW80480  11.817   2.410   6.682  0.1822 -0.0130 -0.2157
24540SOL    HW180481  11.785   2.492   6.644 -0.8095 -0.2662  0.0512
24540SOL    HW280482  11.801   2.419   6.775  0.4991 -0.3291 -0.1303
24541SOL     OW80483   8.876   4.835   9.680  0.4519  0.0712  0.3949
24541SOL    HW180484   8.906   4.925   9.687 -1.4435  0.7740  0.1005
24541SOL    HW280485   8.937   4.794   9.619  0.0631  1.7956 -1.2382
24542SOL     OW80486   3.159   1.683  11.091  0.5530  0.2628 -1.0978
24542SOL    HW180487   3.193   1.606  11.137  1.8416  0.8721 -0.9635
24542SOL    HW280488   3.185   1.669  11.000  0.7306  0.4931 -1.0841
24543SOL     OW80489   5.156   9.956   4.466  0.1762 -0.2509  0.0743
24543SOL    HW180490   5.134   9.948   4.373  0.0209 -0.8180  0.1546
24543SOL    HW280491   5.170  10.050   4.479 -0.8215 -0.0264 -0.3012
24544SOL     OW80492   9.532  10.107  12.397  0.4167  0.1180  0.1003
24544SOL    HW180493   9.610  10.133  12.445  0.1590 -0.3794  0.7888
24544SOL    HW280494   9.468  10.176  12.417 -0.2599 -0.9775  1.9076
24545SOL     OW80495   8.246   8.790   8.293 -0.1879 -0.1856  0.0243
24545SOL    HW180496   8.286   8.706   8.271  0.6455 -0.2154  1.4794
24545SOL    HW280497   8.245   8.791   8.389 -1.5964  0.8189  0.0349
24546SOL     OW80498   4.907   5.428   1.859 -0.1681  0.2343  0.3611
24546SOL    HW180499   4.883   5.393   1.945  0.9400 -2.4143 -0.2816
24546SOL    HW280500   4.824   5.451   1.817 -0.7250  1.4762  2.0584
24547SOL     OW80501  10.248   8.702   3.171  0.1971 -0.0030  0.2105
24547SOL    HW180502  10.279   8.682   3.260  1.2543  1.3452  0.1727
24547SOL    HW280503  10.157   8.728   3.182 -0.4426 -2.1888  0.5681
24548SOL     OW80504   8.341   2.943  12.321 -0.3347  0.1541 -0.0813
24548SOL    HW180505   8.298   3.012  12.372  0.0145  0.2713  0.0588
24548SOL    HW280506   8.300   2.862  12.350 -1.7557  0.4101 -1.2662
24549SOL     OW80507  10.990   0.145   3.044  0.3755  0.0991  0.2483
24549SOL    HW180508  10.906   0.135   3.087  0.0486 -1.0438 -0.6203
24549SOL    HW280509  11.029   0.057   3.045  0.8047  0.2492 -0.8443
24550SOL     OW80510   2.376   4.949   1.160  0.0141  0.5327  0.2203
24550SOL    HW180511   2.452   4.973   1.213 -1.0804  3.7391  0.5932
24550SOL    HW280512   2.357   5.028   1.109 -3.0413 -0.1149  0.1707
24551SOL     OW80513   3.462   9.386   7.669 -0.0915 -0.1814  0.2535
24551SOL    HW180514   3.425   9.453   7.726  0.0389  0.3828 -0.3077
24551SOL    HW280515   3.551   9.372   7.702 -0.6784 -1.3213  1.4171
24552SOL     OW80516   9.546  10.057   3.117  0.0967  0.6540 -0.1614
24552SOL    HW180517   9.616  10.001   3.149 -1.0500 -0.0556  1.1879
24552SOL    HW280518   9.465  10.016   3.148 -0.9470  1.3965 -1.7522
24553SOL     OW80519   4.380  11.775   4.208  0.3508 -0.0761  0.7148
24553SOL    HW180520   4.387  11.862   4.246  0.7687 -0.9424  2.7512
24553SOL    HW280521   4.375  11.716   4.283  2.6386 -2.0255 -0.5188
24554SOL     OW80522   1.650  10.371   5.635 -0.1649  0.1111 -0.0390
24554SOL    HW180523   1.712  10.443   5.644  0.4540 -0.5691  1.2572
24554SOL    HW280524   1.704  10.292   5.635 -0.7730 -0.3809 -2.0885
24555SOL     OW80525   8.959  10.764   8.034  0.0289 -0.3790 -0.3402
24555SOL    HW180526   9.043  10.792   8.000  0.0063  2.8481  1.8404
24555SOL    HW280527   8.895  10.819   7.989 -0.5216 -0.1656  0.6577
24556SOL     OW80528   1.350   2.351  11.320  0.5777 -0.4231 -1.0319
24556SOL    HW180529   1.433   2.349  11.274  0.3829 -0.0687 -1.4022
24556SOL    HW280530   1.309   2.266  11.299  0.7770 -0.5333 -0.9731
24557SOL     OW80531   3.200   1.718   1.683 -0.2438 -0.1774  0.2348
24557SOL    HW180532   3.225   1.794   1.631  0.1340 -0.6808 -0.3296
24557SOL    HW280533   3.244   1.732   1.768  0.9902 -0.4407 -0.3323
24558SOL     OW80534  11.911   8.710  12.060 -0.2666  0.1736  0.7850
24558SOL    HW180535  11.940   8.655  11.987 -1.7299  1.7628 -1.0876
24558SOL    HW280536  11.992   8.738  12.103  0.5954 -1.1918  0.1012
24559SOL     OW80537   9.450   6.486   2.369 -0.4422  0.6296  0.0339
24559SOL    HW180538   9.412   6.412   2.417  0.9100  1.0092  1.7994
24559SOL    HW280539   9.508   6.446   2.305 -1.0781  0.1399 -0.2498
24560SOL     OW80540   3.396   4.111   1.182  0.3992 -0.3393  0.1335
24560SOL    HW180541   3.458   4.044   1.213  1.5938  2.3269  4.2385
24560SOL    HW280542   3.310   4.080   1.211  0.5980 -1.1450 -0.1027
24561SOL     OW80543   8.931   9.294   5.197  0.0365 -0.4656  0.0342
24561SOL    HW180544   8.865   9.225   5.192 -2.1819  1.5186 -0.0282
24561SOL    HW280545   8.943   9.322   5.106 -0.1317  0.1135  0.1835
24562SOL     OW80546  10.796   8.002   4.309 -0.5585 -0.4465 -0.5377
24562SOL    HW180547  10.731   7.998   4.240 -0.8525 -1.1332 -0.2344
24562SOL    HW280548  10.759   7.950   4.380 -1.5202  2.4236  1.2362
24563SOL     OW80549   0.666   5.230  10.671  0.3615 -0.3107  0.1699
24563SOL    HW180550   0.705   5.278  10.744  0.9342 -0.7706  0.1702
24563SOL    HW280551   0.575   5.260  10.669  0.6068  0.4845  0.4133
24564SOL     OW80552   3.308   1.872   1.075  0.0648  0.2932 -0.4155
24564SOL    HW180553   3.383   1.931   1.073  1.5244 -1.4854 -1.0208
24564SOL    HW280554   3.337   1.795   1.027 -1.9816 -0.6900 -0.1852
24565SOL     OW80555   1.921   4.255   0.010  0.3077  0.5844  0.5919
24565SOL    HW180556   1.873   4.247  -0.072  0.9952  0.6533  0.1674
24565SOL    HW280557   2.012   4.234  -0.014  1.0342  3.2025  0.7446
24566SOL     OW80558   4.089   4.899   9.343 -0.1095  0.4711 -0.0916
24566SOL    HW180559   3.995   4.892   9.361 -0.0902 -0.7090 -0.3674
24566SOL    HW280560   4.096   4.976   9.287 -1.1354 -0.2981 -1.3448
24567SOL     OW80561   2.321   7.700   8.337  0.1471 -0.0053  0.1635
24567SOL    HW180562   2.339   7.609   8.362  2.4255  0.0239 -1.1482
24567SOL    HW280563   2.320   7.748   8.420 -0.3023 -1.0800  0.8049
24568SOL     OW80564  12.200   0.803  10.835  0.1948 -1.3472  0.1947
24568SOL    HW180565  12.244   0.881  10.800 -4.3654  1.4253 -0.1791
24568SOL    HW280566  12.180   0.750  10.758  0.6780 -1.3549  0.0733
24569SOL     OW80567   1.134  11.381   8.263  0.4143 -0.4244  0.5089
24569SOL    HW180568   1.066  11.382   8.331  0.2671  1.4066  0.3835
24569SOL    HW280569   1.089  11.351   8.184  0.0839 -0.5698  0.7525
24570SOL     OW80570   6.862   4.250   2.087  0.3245 -0.1556 -0.3886
24570SOL    HW180571   6.794   4.201   2.134 -1.4816  2.4139 -0.1399
24570SOL    HW280572   6.944   4.212   2.119 -0.9118 -1.3878  1.5636
24571SOL     OW80573  12.107   6.878  10.564  0.1424  0.0136 -0.2668
24571SOL    HW180574  12.157   6.890  10.645 -0.1712  0.8550 -0.1869
24571SOL    HW280575  12.020   6.912  10.584  0.3355  1.1419 -1.2374
24572SOL     OW80576   3.199  12.211   1.000  0.2037 -0.5538  0.2339
24572SOL    HW180577   3.110  12.187   0.976  0.4454 -0.8967 -0.3571
24572SOL    HW280578   3.242  12.232   0.917  0.7575 -0.7069  0.4727
24573SOL     OW80579   8.733   0.327   2.587  0.1773  0.4591  0.0046
24573SOL    HW180580   8.826   0.316   2.566 -0.0360 -0.3304 -0.5629
24573SOL    HW280581   8.705   0.401   2.532  0.5028  0.8049  0.2985
24574SOL     OW80582   7.500   2.931   9.324 -0.1432  0.6050  0.2153
24574SOL    HW180583   7.447   2.927   9.403 -0.4538 -2.2795 -0.0314
24574SOL    HW280584   7.501   2.841   9.291  0.1172  1.6619 -2.9832
24575SOL     OW80585   1.676   3.831   4.604  0.0433 -0.2770  0.1575
24575SOL    HW180586   1.595   3.788   4.575 -0.5916  0.2596  1.0969
24575SOL    HW280587   1.680   3.911   4.552 -1.9227  1.4892  2.4746
24576SOL     OW80588   6.704   2.030   0.695 -0.2880 -0.5396 -0.0795
24576SOL    HW180589   6.737   2.005   0.782  0.4764  0.7669  0.0389
24576SOL    HW280590   6.652   2.108   0.711  0.4179  0.1121 -0.8759
24577SOL     OW80591  11.387   5.059  12.031  0.0814 -0.4060 -0.3242
24577SOL    HW180592  11.335   5.030  11.956  1.7170  0.7009 -1.9975
24577SOL    HW280593  11.472   5.017  12.018  0.1616 -0.8556  1.4153
24578SOL     OW80594   0.164  12.462   2.539  0.2991 -0.7602 -0.1530
24578SOL    HW180595   0.229  12.454   2.469 -0.8615 -2.1328 -1.1310
24578SOL    HW280596   0.099  12.395   2.519  0.1579 -1.5345  2.5170
24579SOL     OW80597   7.356   1.046  11.628  0.1234 -0.0118  0.1462
24579SOL    HW180598   7.441   1.039  11.671  0.1079  0.4687  0.2613
24579SOL    HW280599   7.341   1.141  11.619 -1.5973  0.0569  2.5680
24580SOL     OW80600   8.759   6.583   7.114 -0.2149 -0.3959 -0.3300
24580SOL    HW180601   8.742   6.622   7.028  0.7078 -1.3808 -0.9752
24580SOL    HW280602   8.672   6.571   7.152 -0.6960 -0.8426 -1.5255
24581SOL     OW80603   7.928   1.309   2.161  0.6980  0.0626 -0.2441
24581SOL    HW180604   7.882   1.240   2.112  0.2826  0.3748 -0.2938
24581SOL    HW280605   7.883   1.390   2.137  1.0134  0.3207  0.0281
24582SOL     OW80606   3.198   2.582   1.165 -0.6112  0.8438  0.4110
24582SOL    HW180607   3.279   2.574   1.216 -0.9473 -0.5626  0.7711
24582SOL    HW280608   3.168   2.492   1.154 -1.3389  1.2361 -1.0199
24583SOL     OW80609   4.602  12.120   8.871 -0.3978 -0.6532  0.1623
24583SOL    HW180610   4.510  12.104   8.851 -0.3153 -0.2799 -0.5605
24583SOL    HW280611   4.603  12.198   8.926 -0.4917 -0.4620 -0.1073
24584SOL     OW80612   2.905   5.136   3.430 -0.0902  0.3555 -0.5557
24584SOL    HW180613   2.880   5.227   3.418  0.0923  0.5914  0.7503
24584SOL    HW280614   2.855   5.088   3.364 -0.2655  1.3763 -1.1824
24585SOL     OW80615   3.979   7.042   1.371  0.2657 -0.1744  0.5980
24585SOL    HW180616   4.054   6.995   1.409  0.0588 -0.5116  0.5978
24585SOL    HW280617   3.983   7.129   1.410  0.8502 -0.0805  0.3440
24586SOL     OW80618   7.598   5.488  11.621  0.2538  0.0756  0.3549
24586SOL    HW180619   7.512   5.450  11.636  1.2330 -1.6959  1.7992
24586SOL    HW280620   7.609   5.552  11.691  0.8874 -1.1579  1.4184
24587SOL     OW80621   9.651  12.235   2.223 -0.6600  0.8144  0.2381
24587SOL    HW180622   9.667  12.196   2.309  0.1804 -0.1434 -0.3232
24587SOL    HW280623   9.721  12.300   2.213  0.6811 -0.7056 -0.6501
24588SOL     OW80624   4.267   9.404   7.907 -0.2513  0.2971  1.0446
24588SOL    HW180625   4.268   9.389   7.813 -2.9511  2.5631  0.5070
24588SOL    HW280626   4.329   9.476   7.921  0.4429 -0.3022  1.0779
24589SOL     OW80627   3.958  10.920   1.100  0.4583 -0.0362 -0.2845
24589SOL    HW180628   3.961  11.015   1.113  0.4304 -0.1264  0.4154
24589SOL    HW280629   3.886  10.890   1.154  1.1894 -0.5930  0.4074
24590SOL     OW80630   7.481   1.923  11.051 -0.3535 -0.2680  0.0826
24590SOL    HW180631   7.385   1.930  11.060 -0.3288 -1.2138  1.3749
24590SOL    HW280632   7.513   2.011  11.073 -0.9241  0.0730 -0.4113
24591SOL     OW80633   7.831   7.719  10.422 -0.1831  0.1681 -0.1497
24591SOL    HW180634   7.848   7.647  10.362  1.3805  1.0561 -0.8411
24591SOL    HW280635   7.736   7.732  10.419 -0.3169 -0.9085 -1.0991
24592SOL     OW80636  10.993   6.770   8.376 -0.1523 -0.0803 -0.4602
24592SOL    HW180637  11.029   6.752   8.463 -1.2975  0.6841  0.1952
24592SOL    HW280638  11.022   6.858   8.356 -0.7280  0.1272 -0.4016
24593SOL     OW80639   5.793   0.278   7.463 -0.5449 -0.0293 -0.4719
24593SOL    HW180640   5.867   0.219   7.467 -1.3164 -1.0187 -0.3185
24593SOL    HW280641   5.784   0.300   7.370 -0.5141 -0.4945 -0.5855
24594SOL     OW80642   9.592  10.927   9.819  0.9491 -0.0651 -0.1166
24594SOL    HW180643   9.539  10.940   9.740  1.4719  1.8757 -0.2033
24594SOL    HW280644   9.682  10.934   9.788  1.1583  0.8478  0.6309
24595SOL     OW80645   8.105   2.760   4.285  0.0283  0.4980  0.2870
24595SOL    HW180646   8.127   2.719   4.201 -1.4274 -0.4616  0.3353
24595SOL    HW280647   8.010   2.775   4.280 -0.2395 -0.3840  2.0744
24596SOL     OW80648  10.126   3.683   9.114 -0.2980  0.1006 -0.5708
24596SOL    HW180649  10.203   3.689   9.170 -0.2811  1.0785 -0.6864
24596SOL    HW280650  10.075   3.612   9.152  0.2226  0.0476  0.0545
24597SOL     OW80651   9.624   6.909   9.538  0.1129  0.3709 -0.0347
24597SOL    HW180652   9.593   6.995   9.568 -2.7962 -1.6496  3.4089
24597SOL    HW280653   9.571   6.890   9.461 -0.0826  1.1569 -0.1035
24598SOL     OW80654   9.828  12.437   2.178  0.4963  0.4877 -1.0231
24598SOL    HW180655   9.761  12.506   2.176  2.1113  2.3343  1.6402
24598SOL    HW280656   9.883  12.455   2.103 -0.6034  0.4068 -1.8758
24599SOL     OW80657  11.391   3.224   3.848 -0.2045 -0.5499  0.2627
24599SOL    HW180658  11.481   3.239   3.880 -0.3225 -0.5900  0.6193
24599SOL    HW280659  11.384   3.280   3.771  0.3608 -1.0781 -0.1765
24600SOL     OW80660   8.007   2.594   0.999 -0.4063 -0.3773  0.3505
24600SOL    HW180661   8.071   2.644   1.048 -2.0828  1.0628  1.1825
24600SOL    HW280662   7.984   2.521   1.057 -0.2205 -0.3621  0.4438
24601SOL     OW80663   7.883   0.461   9.402 -0.1775  0.0785 -0.3740
24601SOL    HW180664   7.916   0.478   9.490 -1.1998  1.7183 -0.2535
24601SOL    HW280665   7.815   0.395   9.414 -0.4319  0.4228  0.1032
24602SOL     OW80666   0.929   9.399   6.935  0.2264  0.0064 -0.0223
24602SOL    HW180667   0.871   9.473   6.953  0.1163  0.2223 -1.1929
24602SOL    HW280668   0.883   9.348   6.869  1.3866  0.2263 -1.0360
24603SOL     OW80669   5.918  10.523   4.004  0.2205 -0.1222 -0.3147
24603SOL    HW180670   5.859  10.463   3.958  1.4993 -0.2904 -1.8202
24603SOL    HW280671   5.900  10.507   4.097  0.5464 -2.9395 -0.6293
24604SOL     OW80672   2.319  10.549   3.662 -0.0752  0.2490 -0.3102
24604SOL    HW180673   2.386  10.608   3.696  0.6213 -1.2898  1.0868
24604SOL    HW280674   2.237  10.594   3.680  0.4830  1.5184 -0.7723
24605SOL     OW80675   2.545  12.149   6.126 -0.5388 -0.0958 -0.4295
24605SOL    HW180676   2.504  12.192   6.201 -0.7432 -0.6982 -0.1951
24605SOL    HW280677   2.629  12.195   6.115 -0.3349 -0.2541  0.4062
24606SOL     OW80678   4.550  10.378   8.101 -0.0715  0.0905 -0.1829
24606SOL    HW180679   4.526  10.290   8.131 -0.0013 -0.3417 -1.3446
24606SOL    HW280680   4.470  10.412   8.060  0.4491 -0.2193 -1.4945
24607SOL     OW80681   0.548   4.025   1.475 -0.2878  0.2454 -0.0857
24607SOL    HW180682   0.629   4.049   1.430  0.1232 -1.4726 -0.3249
24607SOL    HW280683   0.495   3.983   1.407 -0.6100 -0.2895  0.4918
24608SOL     OW80684   5.792   4.476   8.862 -0.2349 -0.3404  0.5225
24608SOL    HW180685   5.886   4.466   8.876  0.2058  2.4465  0.1638
24608SOL    HW280686   5.756   4.495   8.949 -0.2114  0.0089  0.4595
24609SOL     OW80687   5.784   0.472   7.765  0.4918 -0.3434  0.0719
24609SOL    HW180688   5.772   0.430   7.680 -0.5601  1.8916 -0.9450
24609SOL    HW280689   5.875   0.502   7.764  1.0176 -1.8058  0.4997
24610SOL     OW80690   5.038   6.487   1.995 -0.3255 -0.5084  0.3908
24610SOL    HW180691   5.020   6.487   2.089  2.1453  1.6268  0.9826
24610SOL    HW280692   5.114   6.431   1.984 -0.1529 -0.1708 -0.2144
24611SOL     OW80693   2.761   0.670   4.856  0.6158  0.1984  0.0435
24611SOL    HW180694   2.817   0.723   4.913  0.0944  0.8275 -0.0086
24611SOL    HW280695   2.815   0.595   4.831  1.9025  1.4166 -1.0309
24612SOL     OW80696   1.838   1.650   0.871 -0.3202 -0.0282 -0.2374
24612SOL    HW180697   1.891   1.701   0.810 -0.1677 -0.7789 -0.7425
24612SOL    HW280698   1.814   1.713   0.940  0.4921  0.5352 -0.4484
24613SOL     OW80699  10.524  10.809   0.548  0.4458  1.0054 -0.5370
24613SOL    HW180700  10.561  10.730   0.586  0.6263  1.1687 -0.3744
24613SOL    HW280701  10.584  10.832   0.477  0.7233  1.3349 -0.1989
24614SOL     OW80702   6.337   5.040   5.155 -0.1456 -0.4466 -0.1375
24614SOL    HW180703   6.308   5.129   5.177  1.6562 -0.1764  1.4852
24614SOL    HW280704   6.358   5.044   5.062 -2.0033  0.2398 -0.5610
24615SOL     OW80705   6.140   1.375   6.859  0.0146  0.2783  0.8107
24615SOL    HW180706   6.195   1.397   6.784 -1.3213  0.0409 -0.2976
24615SOL    HW280707   6.176   1.425   6.932  3.3048 -1.8246  0.8430
24616SOL     OW80708   2.067   4.244  10.786 -0.0417  0.4881  0.2008
24616SOL    HW180709   2.011   4.293  10.846  1.7842  0.4360  2.0172
24616SOL    HW280710   2.037   4.153  10.795  1.1145  0.2535  2.1634
24617SOL     OW80711   3.470   6.434   0.630 -0.1943 -0.2855 -0.1550
24617SOL    HW180712   3.399   6.497   0.623  1.1956  1.4338  0.4011
24617SOL    HW280713   3.492   6.432   0.723  0.9125 -0.2486 -0.4007
24618SOL     OW80714  10.043   6.239   8.112 -0.3819  0.1330  0.3900
24618SOL    HW180715  10.089   6.170   8.065 -0.5561  0.0776  0.3021
24618SOL    HW280716  10.097   6.317   8.098 -0.0706 -0.0305  0.6705
24619SOL     OW80717   8.459   3.864  10.774  0.4883  1.0082 -0.1011
24619SOL    HW180718   8.395   3.815  10.826  0.8230  1.2585  0.5619
24619SOL    HW280719   8.412   3.886  10.694 -0.1760  0.9500  0.2607
24620SOL     OW80720   6.287   0.534   6.180 -0.3603 -0.1081  0.1265
24620SOL    HW180721   6.325   0.495   6.101  1.9160 -0.8142  1.4538
24620SOL    HW280722   6.320   0.624   6.180  0.7270 -0.4836  0.8706
24621SOL     OW80723   7.274  10.050   0.550 -0.2027 -0.4011  0.2238
24621SOL    HW180724   7.327  10.130   0.544 -0.8797  0.1272  0.9878
24621SOL    HW280725   7.327   9.983   0.508  0.1186  0.5811 -1.0019
24622SOL     OW80726  10.664   3.019  10.789  0.0769  0.1814 -0.2219
24622SOL    HW180727  10.632   3.102  10.753 -0.2003 -0.6047 -1.9056
24622SOL    HW280728  10.584   2.971  10.813  0.2137  0.1813  0.2362
24623SOL     OW80729   8.138   5.537   4.801  0.9602  0.3043 -0.0576
24623SOL    HW180730   8.211   5.522   4.862 -1.4372 -0.1674  2.9544
24623SOL    HW280731   8.134   5.633   4.794  1.5242  0.3560  0.1926
24624SOL     OW80732  12.225   5.332  10.275 -0.4022  0.2900  0.0583
24624SOL    HW180733  12.151   5.370  10.322 -0.6888  1.2195 -1.1007
24624SOL    HW280734  12.202   5.340  10.182  1.3945  1.1664 -0.3624
24625SOL     OW80735   8.094   7.364   1.893  0.1915  0.0153  0.4014
24625SOL    HW180736   8.087   7.459   1.883 -0.7185 -0.1012 -0.1921
24625SOL    HW280737   8.160   7.337   1.829 -1.3805 -0.0284 -1.2792
24626SOL     OW80738   9.653  10.735  12.335 -0.4041  0.2692 -0.5971
24626SOL    HW180739   9.591  10.802  12.306 -0.5673 -0.1758 -1.2975
24626SOL    HW280740   9.609  10.652  12.316 -0.2245 -0.0459  0.3025
24627SOL     OW80741   4.792   6.357   9.893 -0.2471 -0.5205 -0.4233
24627SOL    HW180742   4.875   6.327   9.855 -0.1076  0.8734 -1.2723
24627SOL    HW280743   4.746   6.276   9.914  1.0408 -1.3260 -0.5664
24628SOL     OW80744   0.685   9.074  11.947 -0.5037  0.3086 -0.0793
24628SOL    HW180745   0.781   9.072  11.950 -0.4983  0.8205  2.5473
24628SOL    HW280746   0.659   8.982  11.947 -0.0401  0.1559 -1.4563
24629SOL     OW80747   8.643   9.794   9.397 -0.4940  0.6483  0.0717
24629SOL    HW180748   8.685   9.738   9.462 -0.0928 -0.6546 -1.2638
24629SOL    HW280749   8.552   9.764   9.394 -0.5421  0.7862  0.1036
24630SOL     OW80750   8.940  12.120   1.740  0.2066  0.6226 -0.0739
24630SOL    HW180751   9.011  12.134   1.677 -1.0534 -0.6891 -1.8675
24630SOL    HW280752   8.963  12.038   1.784 -1.8777 -1.9163 -3.3006
24631SOL     OW80753   5.828   2.839   9.991 -0.2276  0.3183 -0.2154
24631SOL    HW180754   5.883   2.849   9.914 -2.0710 -1.4883 -1.9014
24631SOL    HW280755   5.861   2.760  10.034  2.9438  3.0155  2.9588
24632SOL     OW80756   6.452   0.647   1.998 -0.0916  0.1795  0.4675
24632SOL    HW180757   6.509   0.705   1.947 -0.9338  0.8000  0.1948
24632SOL    HW280758   6.499   0.632   2.080  0.1849  1.2029  0.5109
24633SOL     OW80759   7.695   8.920   4.202  0.4340 -0.5228 -0.5416
24633SOL    HW180760   7.743   8.981   4.145 -0.2626 -0.4774 -1.0933
24633SOL    HW280761   7.670   8.848   4.144  1.9880 -1.7848  0.2860
24634SOL     OW80762   7.652   1.263   1.198  0.5913  0.1821  0.2657
24634SOL    HW180763   7.685   1.348   1.172  2.5865 -0.3279  0.9620
24634SOL    HW280764   7.594   1.281   1.272 -0.2385  1.0436 -0.5671
24635SOL     OW80765   5.189  10.703   6.751  0.3032  0.1353  0.1368
24635SOL    HW180766   5.160  10.612   6.749  0.8455 -0.1181  1.7139
24635SOL    HW280767   5.108  10.754   6.759  0.0081 -0.2230 -0.5359
24636SOL     OW80768   8.384   1.484   3.601 -0.1883 -0.4112 -0.1929
24636SOL    HW180769   8.373   1.575   3.627  0.2206 -0.7062  1.0807
24636SOL    HW280770   8.476   1.478   3.573  0.2044 -0.7479  1.1261
24637SOL     OW80771   4.896   8.066   4.875 -0.3891  0.0235  0.3016
24637SOL    HW180772   4.889   8.125   4.801 -0.7546  0.6149  0.7993
24637SOL    HW280773   4.809   8.066   4.915  0.1524  0.8619  1.5798
24638SOL     OW80774   5.644   8.445   2.927  0.1335  0.2463  0.2505
24638SOL    HW180775   5.580   8.378   2.901 -0.3125  0.2072  1.4154
24638SOL    HW280776   5.659   8.496   2.847  0.2231 -1.0253 -0.5739
24639SOL     OW80777   7.892   2.370   9.136 -0.1970  0.3957  0.0799
24639SOL    HW180778   7.932   2.292   9.097  0.1533  1.2761 -1.4467
24639SOL    HW280779   7.856   2.417   9.061  0.2068  2.0255  0.8704
24640SOL     OW80780  11.570  11.346   1.146 -0.2249 -0.9652 -0.3623
24640SOL    HW180781  11.599  11.268   1.098  0.8691 -1.3736  0.9079
24640SOL    HW280782  11.497  11.380   1.094  1.9190 -0.3879 -3.2634
24641SOL     OW80783   8.421   9.619   0.906 -0.1007 -0.0084 -0.0619
24641SOL    HW180784   8.511   9.618   0.874 -0.4960  0.1423 -1.2213
24641SOL    HW280785   8.423   9.678   0.981  0.6787  0.3405 -0.3416
24642SOL     OW80786  12.007  11.536   8.643 -0.1626 -0.0795  0.0288
24642SOL    HW180787  11.962  11.580   8.715 -0.1984  1.3586 -0.8297
24642SOL    HW280788  12.089  11.505   8.681 -0.4652  0.0891  0.8321
24643SOL     OW80789  11.153   2.046   5.834  0.4030 -0.6772  0.1367
24643SOL    HW180790  11.203   1.997   5.768 -2.1289 -1.6155 -1.2361
24643SOL    HW280791  11.138   1.983   5.904  1.3542 -0.3004  0.6955
24644SOL     OW80792   3.742   7.397   0.170  0.2632 -0.0686 -0.2312
24644SOL    HW180793   3.748   7.338   0.245  0.0031 -0.5655 -0.5914
24644SOL    HW280794   3.821   7.380   0.120  0.6021  0.5053  0.0943
24645SOL     OW80795   4.050   7.607  10.202  0.6468 -0.2616  0.1539
24645SOL    HW180796   4.137   7.575  10.224  1.5808  1.1955 -1.2459
24645SOL    HW280797   4.036   7.579  10.112  0.4463  1.0609 -0.2474
24646SOL     OW80798   9.044   1.367  10.974 -0.1063 -0.1790  0.0923
24646SOL    HW180799   8.981   1.309  11.018 -0.4450 -0.4501 -0.7439
24646SOL    HW280800   9.105   1.308  10.931 -0.7235  0.0680 -1.1530
24647SOL     OW80801   6.030   9.368   9.948  0.1992 -0.5047 -0.2166
24647SOL    HW180802   6.077   9.383  10.030 -0.1923  0.9864 -0.2261
24647SOL    HW280803   6.044   9.449   9.898 -1.7344 -0.3180 -0.5159
24648SOL     OW80804   6.727   2.540   3.592  0.5484 -0.4107  0.4624
24648SOL    HW180805   6.731   2.527   3.498 -2.0342 -2.2676  0.5100
24648SOL    HW280806   6.715   2.452   3.628  1.8344  0.1983  2.6069
24649SOL     OW80807   9.797   1.688   3.795 -0.2671  0.2053 -0.4446
24649SOL    HW180808   9.806   1.720   3.885  0.0666 -1.1313  0.0205
24649SOL    HW280809   9.741   1.753   3.752 -0.1946  1.0167  0.6414
24650SOL     OW80810   3.870   3.321   2.560 -0.2716 -0.4935  0.0180
24650SOL    HW180811   3.890   3.392   2.499 -1.5431  0.6787  0.8972
24650SOL    HW280812   3.934   3.253   2.539  1.1141  0.9661 -0.7561
24651SOL     OW80813   3.648   1.838   0.310 -0.7291 -0.2895  0.1167
24651SOL    HW180814   3.712   1.861   0.243 -0.9304 -2.4161 -0.8983
24651SOL    HW280815   3.693   1.775   0.366 -2.0977 -2.5779 -1.1860
24652SOL     OW80816   2.419  11.301   2.960  0.4889  0.4704  0.2794
24652SOL    HW180817   2.476  11.244   3.012  2.1162  2.7597  1.1766
24652SOL    HW280818   2.345  11.320   3.018 -0.2001 -0.8642 -0.1223
24653SOL     OW80819  10.682   3.184   6.833 -0.1797  0.3864 -0.5185
24653SOL    HW180820  10.750   3.239   6.872  0.7367 -0.9725 -0.1064
24653SOL    HW280821  10.723   3.149   6.754 -0.9280  0.6843 -1.0477
24654SOL     OW80822   2.052   6.114  12.249 -0.1997 -0.0013 -0.5221
24654SOL    HW180823   1.967   6.157  12.263 -0.1647 -0.1562  0.2072
24654SOL    HW280824   2.088   6.105  12.337  1.3910  1.6773 -0.9421
24655SOL     OW80825   2.608   0.328   3.381 -0.6426 -0.5707 -0.6719
24655SOL    HW180826   2.698   0.317   3.350 -0.1311  0.8645  0.1931
24655SOL    HW280827   2.613   0.400   3.445 -1.9543 -2.1577  1.3293
24656SOL     OW80828   3.011   7.128   6.532  0.3752 -0.1487 -0.1359
24656SOL    HW180829   2.939   7.188   6.513 -0.3406 -1.3703 -1.4073
24656SOL    HW280830   3.037   7.150   6.622 -2.2481 -0.3703  0.7573
24657SOL     OW80831   6.953   4.057   3.856  0.2312  0.0111  0.0496
24657SOL    HW180832   6.959   4.152   3.850  0.6914  0.0193  0.5933
24657SOL    HW280833   6.894   4.032   3.785  1.2117  0.5827 -1.0100
24658SOL     OW80834   0.861   5.261  12.279 -0.0840  0.0024 -0.0330
24658SOL    HW180835   0.802   5.233  12.209 -1.0277 -0.2500  0.8374
24658SOL    HW280836   0.803   5.283  12.352  0.8910 -0.0403  0.7774
24659SOL     OW80837   4.228   0.762  11.025 -0.3226  0.1208 -0.4553
24659SOL    HW180838   4.142   0.788  11.059 -0.4884 -0.1135 -0.6897
24659SOL    HW280839   4.240   0.817  10.948  0.0207  0.6008 -0.0635
24660SOL     OW80840   2.228   7.118   2.162  0.1023 -0.0021  0.4469
24660SOL    HW180841   2.236   7.081   2.249  1.6693  0.3469  0.4670
24660SOL    HW280842   2.317   7.126   2.129 -0.5033 -1.6775 -1.8712
24661SOL     OW80843   7.251   8.443   4.531  0.3946 -0.1040  1.0122
24661SOL    HW180844   7.270   8.458   4.439 -2.0633  1.1777  0.6274
24661SOL    HW280845   7.257   8.348   4.542  0.1923 -0.3321 -0.6124
24662SOL     OW80846   8.632   4.863   3.940 -0.7656 -0.4735 -0.2621
24662SOL    HW180847   8.566   4.863   3.870 -0.5042  0.4672 -0.5312
24662SOL    HW280848   8.584   4.842   4.019 -1.6560  1.4349 -0.2434
24663SOL     OW80849   7.041  11.990   9.570 -0.4395  0.1269  0.3202
24663SOL    HW180850   7.125  11.952   9.546 -0.1269  0.7464  0.4270
24663SOL    HW280851   6.991  11.917   9.608 -0.1450 -0.3568 -0.2133
24664SOL     OW80852  12.264   0.022   0.896  0.3383  0.0389 -0.5071
24664SOL    HW180853  12.355  -0.006   0.907 -0.3790 -2.3103 -0.1504
24664SOL    HW280854  12.223  -0.046   0.844 -1.4469  0.5941  0.0706
24665SOL     OW80855  11.351   9.410   0.730 -0.0182  0.5931  0.7446
24665SOL    HW180856  11.291   9.472   0.772  1.0663  1.3868  1.1708
24665SOL    HW280857  11.390   9.362   0.802  3.4043  3.3678  1.0053
24666SOL     OW80858   9.372   8.954   5.683  0.2689  0.4629 -0.4043
24666SOL    HW180859   9.462   8.950   5.650  0.7376  0.5905  0.8040
24666SOL    HW280860   9.372   9.029   5.744 -1.0905  1.5060 -1.6243
24667SOL     OW80861   2.453   4.262  12.412 -0.2691  0.4045  0.2979
24667SOL    HW180862   2.436   4.324  12.342 -1.6755 -1.7491 -1.4184
24667SOL    HW280863   2.514   4.198  12.374  1.8962  1.1252  2.2991
24668SOL     OW80864  11.433   5.346   5.462 -0.5000  0.2416  0.0805
24668SOL    HW180865  11.455   5.287   5.390  0.8437  0.0091  0.6390
24668SOL    HW280866  11.340   5.333   5.478 -0.7811  0.1654 -1.4886
24669SOL     OW80867   6.753   2.567   6.036  0.2262  0.0662 -0.3399
24669SOL    HW180868   6.768   2.653   5.996 -0.6747  0.5964  0.4253
24669SOL    HW280869   6.836   2.521   6.025  0.3318  0.5627 -1.9006
24670SOL     OW80870   0.851   4.536   1.147  0.2283  0.7750 -0.6664
24670SOL    HW180871   0.856   4.441   1.142 -3.0505  0.5600 -2.2414
24670SOL    HW280872   0.897   4.558   1.227 -1.3801 -2.4304  1.3336
24671SOL     OW80873   3.246   7.674   1.843 -0.4840 -0.6797  0.0349
24671SOL    HW180874   3.263   7.584   1.815  0.2189 -0.6840  0.4495
24671SOL    HW280875   3.332   7.714   1.848 -0.7596 -0.1106  0.2946
24672SOL     OW80876  12.046   0.957   8.971 -0.4789  0.8852  0.1307
24672SOL    HW180877  12.045   0.863   8.990 -0.9683  0.4991 -1.6018
24672SOL    HW280878  12.012   0.998   9.051 -0.5079 -0.4293  0.8192
24673SOL     OW80879   6.697  10.839  10.811 -0.9266  0.0510 -0.0851
24673SOL    HW180880   6.772  10.898  10.804  0.8006 -2.0933 -0.6424
24673SOL    HW280881   6.663  10.833  10.721 -1.6513  0.7921  0.1178
24674SOL     OW80882   9.721   3.285   5.755  0.2027 -0.0101  0.3527
24674SOL    HW180883   9.814   3.301   5.742  0.4608 -1.5657  0.0707
24674SOL    HW280884   9.699   3.218   5.690 -1.5187  1.5485 -0.7606
24675SOL     OW80885   8.313  10.153   8.405 -0.1075 -0.2066  0.1211
24675SOL    HW180886   8.253  10.227   8.404  0.4383  0.3414 -3.1362
24675SOL    HW280887   8.275  10.091   8.342  2.2775 -0.1302 -1.5369
24676SOL     OW80888   4.092   7.541   0.256  0.2758  0.0651  0.3767
24676SOL    HW180889   4.080   7.452   0.289 -1.0991  1.4536  4.2219
24676SOL    HW280890   4.187   7.553   0.252  0.4851 -1.5863 -0.4809
24677SOL     OW80891   4.646  11.637   0.551 -0.7989 -0.0200 -0.1511
24677SOL    HW180892   4.617  11.622   0.461  1.1925 -0.5247 -0.7528
24677SOL    HW280893   4.644  11.732   0.561 -0.7137  0.0638 -0.8664
24678SOL     OW80894   2.578   3.666   6.760 -0.0968  0.3144 -0.6198
24678SOL    HW180895   2.584   3.757   6.789  0.8608 -0.3592  1.4523
24678SOL    HW280896   2.657   3.652   6.708  1.2900 -0.1126  1.5215
24679SOL     OW80897   2.649   9.731   7.456  0.1736 -0.1345 -0.1635
24679SOL    HW180898   2.740   9.705   7.444  0.5226 -0.0016  1.8957
24679SOL    HW280899   2.627   9.703   7.545 -2.2841 -1.5172 -1.0934
24680SOL     OW80900   8.261  12.280   2.624 -1.2685  0.4370  0.0720
24680SOL    HW180901   8.195  12.251   2.561 -1.0441  1.4638 -0.6706
24680SOL    HW280902   8.279  12.370   2.599  0.8141  0.0198 -0.0944
24681SOL     OW80903   9.368  12.078   1.525 -0.2470 -0.3520 -0.2157
24681SOL    HW180904   9.372  12.036   1.611 -0.4075 -0.6989 -0.3719
24681SOL    HW280905   9.456  12.112   1.510 -0.1268 -0.5892 -0.0584
24682SOL     OW80906   5.196   5.277   6.364  0.3220 -0.3889 -0.2134
24682SOL    HW180907   5.232   5.229   6.439 -0.1744  0.6228  0.6984
24682SOL    HW280908   5.242   5.241   6.288  0.3135 -1.9522  0.4868
24683SOL     OW80909   7.425   8.142  11.904  0.4077  0.3280  0.0537
24683SOL    HW180910   7.348   8.106  11.947  1.4040 -0.6735  1.0603
24683SOL    HW280911   7.404   8.140  11.811 -0.4445 -0.7447  0.2545
24684SOL     OW80912   7.685   5.213   4.526 -0.2587  0.2378  0.1328
24684SOL    HW180913   7.704   5.298   4.487 -1.8422  0.8372  0.5939
24684SOL    HW280914   7.598   5.222   4.563  0.2767 -1.0009  1.8634
24685SOL     OW80915   8.470   6.813   7.351  0.1556 -0.0458 -0.4555
24685SOL    HW180916   8.488   6.796   7.443  0.0357  0.5098 -0.3265
24685SOL    HW280917   8.453   6.727   7.314 -0.1726 -0.2383  0.1273
24686SOL     OW80918   7.338   1.851   4.930  0.1667  0.0931  0.1125
24686SOL    HW180919   7.342   1.768   4.977  2.3675 -0.0588 -0.2593
24686SOL    HW280920   7.308   1.827   4.842  0.1089 -0.1935  0.2102
24687SOL     OW80921   9.640   7.445  11.719 -0.4815 -0.1704  0.5345
24687SOL    HW180922   9.661   7.409  11.805 -2.7104  0.9376  1.6305
24687SOL    HW280923   9.590   7.377  11.676  1.0243 -0.9055 -0.1189
24688SOL     OW80924   6.282   4.991  10.606  0.2009 -0.2676  0.2909
24688SOL    HW180925   6.322   5.077  10.621  0.0013  0.5290 -2.8952
24688SOL    HW280926   6.290   4.978  10.511 -3.2390 -2.0233  0.0922
24689SOL     OW80927  10.641  11.142  12.314 -0.0924 -0.0160 -0.1124
24689SOL    HW180928  10.613  11.131  12.223  2.6904 -2.2026 -0.8312
24689SOL    HW280929  10.625  11.057  12.355  1.7233 -0.1471  0.4418
24690SOL     OW80930  10.181   7.616   0.067  0.1155  0.0192 -0.4422
24690SOL    HW180931  10.212   7.703   0.044  0.1803 -0.5482 -2.7049
24690SOL    HW280932  10.252   7.578   0.119  0.8326  0.6932 -0.9029
24691SOL     OW80933   7.531   4.318   9.990 -0.5882  0.1389 -0.2877
24691SOL    HW180934   7.595   4.338  10.058 -0.1878  1.0196 -0.9018
24691SOL    HW280935   7.471   4.255  10.030  1.2740 -1.5572 -0.0373
24692SOL     OW80936   2.966   3.728   5.541  0.5313 -0.0007 -0.5981
24692SOL    HW180937   2.893   3.774   5.499 -0.2076  0.0936  0.7563
24692SOL    HW280938   2.936   3.637   5.547  0.1444  0.1987  0.7392
24693SOL     OW80939   8.995   0.293   2.497 -0.5180 -0.0745 -0.3395
24693SOL    HW180940   9.008   0.248   2.414  2.4173  0.4840 -0.2822
24693SOL    HW280941   9.069   0.353   2.504 -0.0061 -0.8906  3.1901
24694SOL     OW80942  11.192  12.446   7.126 -0.2822 -0.1326  0.1191
24694SOL    HW180943  11.116  12.388   7.138 -0.8692  0.6259  0.1076
24694SOL    HW280944  11.174  12.492   7.044  0.6298 -0.5955 -0.3582
24695SOL     OW80945  10.139   8.840  12.103 -0.3820  0.5020 -0.3434
24695SOL    HW180946  10.123   8.751  12.133 -1.4475  1.5036  2.4285
24695SOL    HW280947  10.079   8.852  12.030 -1.5089 -0.5073  0.3881
24696SOL     OW80948   6.313   5.531   5.741 -0.0186 -0.0375  0.6600
24696SOL    HW180949   6.234   5.492   5.780 -0.9622  2.1774  1.0837
24696SOL    HW280950   6.352   5.583   5.811  0.8911  0.2361 -0.0307
24697SOL     OW80951  12.016   3.638   8.660  0.3956  0.0929 -0.2763
24697SOL    HW180952  12.107   3.632   8.690  0.5214 -1.3343 -0.8703
24697SOL    HW280953  12.018   3.702   8.588  0.7290  0.8431  0.3908
24698SOL     OW80954   0.858   3.430  11.407 -0.6790  0.1171  0.1897
24698SOL    HW180955   0.818   3.345  11.425 -0.2013 -0.4434 -1.2459
24698SOL    HW280956   0.909   3.416  11.327 -2.5814  2.3704 -1.5627
24699SOL     OW80957  12.321   5.575  11.272  0.3097 -0.2161 -0.3577
24699SOL    HW180958  12.318   5.646  11.208 -1.9739  1.3016  1.2623
24699SOL    HW280959  12.379   5.607  11.341 -1.6398  0.7139  0.9399
24700SOL     OW80960   8.101   9.489  11.169 -0.1327 -0.2589 -0.1338
24700SOL    HW180961   8.153   9.465  11.245 -0.5617 -1.5531 -0.2230
24700SOL    HW280962   8.134   9.575  11.143  1.3184 -0.6415  0.3556
24701SOL     OW80963   9.614  10.214   0.879 -0.2678 -0.5330  0.5888
24701SOL    HW180964   9.610  10.300   0.837  0.7425 -0.9127 -0.3323
24701SOL    HW280965   9.707  10.201   0.899 -0.4095 -1.4039  0.7136
24702SOL     OW80966   8.963   4.558  11.788 -0.3549  0.0743 -0.4140
24702SOL    HW180967   8.955   4.586  11.697  0.2606 -1.6888 -1.0543
24702SOL    HW280968   9.057   4.549  11.803 -0.4977 -1.4147 -0.2195
24703SOL     OW80969   2.030  12.368   3.469  0.3501 -0.2306 -0.0724
24703SOL    HW180970   2.101  12.404   3.416  0.1201 -1.1460 -1.0421
24703SOL    HW280971   1.954  12.372   3.412 -0.5543  1.3190  1.1724
24704SOL     OW80972   5.800  11.478  10.107 -0.5614 -0.4672  0.4037
24704SOL    HW180973   5.760  11.481  10.021  0.3589  0.4809 -0.0142
24704SOL    HW280974   5.877  11.423  10.096 -0.1098  0.1428  0.4648
24705SOL     OW80975  10.659   7.430  12.013  0.0078 -0.5705 -0.4607
24705SOL    HW180976  10.613   7.513  12.010 -0.1348 -0.6202  0.2755
24705SOL    HW280977  10.750   7.453  12.034  0.0256 -0.5842 -0.5207
24706SOL     OW80978   2.070   6.361   7.511  0.1493 -0.6657  0.3190
24706SOL    HW180979   2.016   6.381   7.434 -1.2110 -1.0767  1.1313
24706SOL    HW280980   2.145   6.314   7.475 -1.1459 -2.1077 -0.6510
24707SOL     OW80981   9.853   4.751   5.782  0.4499 -0.5707  0.4856
24707SOL    HW180982   9.844   4.660   5.810  0.9885 -0.7764  0.0146
24707SOL    HW280983   9.782   4.763   5.718  0.1616 -0.5528  0.8081
24708SOL     OW80984  10.428  11.713   5.503 -0.0498  0.6680  0.5119
24708SOL    HW180985  10.409  11.765   5.424 -0.6035  0.6932  0.6583
24708SOL    HW280986  10.349  11.662   5.518 -0.4945  1.6884  1.8547
24709SOL     OW80987  12.449  11.283   4.857  0.6322  0.3167 -0.2781
24709SOL    HW180988  12.506  11.348   4.899 -0.2137 -0.1015  1.6635
24709SOL    HW280989  12.463  11.295   4.764  1.4712  2.4171  0.0585
24710SOL     OW80990   3.695   3.010   4.516  0.2433 -0.0239 -0.1130
24710SOL    HW180991   3.699   2.952   4.440 -0.7569  0.8083 -0.8281
24710SOL    HW280992   3.771   3.068   4.506 -0.0304  0.2518 -0.6298
24711SOL     OW80993   9.881   2.370   3.936 -0.0267 -0.0594 -0.4548
24711SOL    HW180994   9.811   2.322   3.893 -1.6990  1.5615  0.3384
24711SOL    HW280995   9.959   2.352   3.883 -1.6136  0.4485 -3.1304
24712SOL     OW80996   8.800   9.958  10.341 -0.5668  0.0478 -0.0605
24712SOL    HW180997   8.757   9.927  10.261  1.2651  0.0756 -1.0956
24712SOL    HW280998   8.884   9.913  10.342  0.2128  1.4534  0.8577
24713SOL     OW80999   0.991   3.921  10.221 -0.0030  0.3369  0.3649
24713SOL    HW181000   1.036   3.979  10.282 -1.7884  0.0420  2.0587
24713SOL    HW281001   1.048   3.844  10.215  1.8838  1.7684 -1.1149
24714SOL     OW81002   5.470   3.393   3.107 -0.5358 -0.1124  0.3137
24714SOL    HW181003   5.452   3.381   3.200 -0.2912  3.0190  0.9019
24714SOL    HW281004   5.525   3.471   3.103 -1.5577  0.6120 -2.5193
24715SOL     OW81005   1.806  10.612  11.828  1.0048  0.6721 -0.3376
24715SOL    HW181006   1.801  10.692  11.776  3.9005  1.2885  0.1243
24715SOL    HW281007   1.797  10.641  11.918 -0.2483  0.1229 -0.2693
24716SOL     OW81008   8.257   2.253   5.092 -0.4260 -0.1460  0.1228
24716SOL    HW181009   8.308   2.174   5.075  0.0948 -0.3656  2.3567
24716SOL    HW281010   8.171   2.220   5.122 -1.5835  0.2152 -2.5463
24717SOL     OW81011   1.356  10.332  12.373  0.2361  0.2024  0.4312
24717SOL    HW181012   1.409  10.267  12.328  0.4056 -0.0663  1.0118
24717SOL    HW281013   1.390  10.334  12.463 -0.7599 -0.0119  0.8285
24718SOL     OW81014   2.035   9.705   9.347  0.1845 -0.2308 -0.6742
24718SOL    HW181015   2.024   9.642   9.419  1.5852  0.7255  0.4229
24718SOL    HW281016   1.947   9.716   9.312 -0.3214 -1.7231  0.0206
24719SOL     OW81017   8.671   8.789   5.211  0.7352  0.4625  0.0609
24719SOL    HW181018   8.746   8.729   5.213  0.9407  0.7234  0.2196
24719SOL    HW281019   8.649   8.796   5.119 -0.7462 -1.6605  0.1763
24720SOL     OW81020   2.842   7.168  11.783 -0.3282 -0.4418 -0.1721
24720SOL    HW181021   2.845   7.081  11.742  0.2433  0.0525 -1.2069
24720SOL    HW281022   2.792   7.221  11.722  2.8981  1.0476 -1.7396
24721SOL     OW81023  11.576   6.843   7.557 -0.0645  0.2881  0.5586
24721SOL    HW181024  11.545   6.863   7.646 -1.2287  0.2162  0.1926
24721SOL    HW281025  11.514   6.778   7.525  0.1138  0.6103 -0.4532
24722SOL     OW81026   2.192   9.977   2.501 -0.0532 -0.4704 -0.4806
24722SOL    HW181027   2.112   9.945   2.459  0.1560 -2.1567  0.3159
24722SOL    HW281028   2.225  10.045   2.443 -1.5625 -0.4167 -1.2985
24723SOL     OW81029  11.997  11.721   3.423 -0.1853  0.2148 -0.8928
24723SOL    HW181030  12.039  11.706   3.507 -0.1026 -0.1749 -1.0018
24723SOL    HW281031  11.909  11.683   3.434 -0.6639  1.3952 -0.5257
24724SOL     OW81032  10.572   2.830   9.305 -0.2233  0.6282 -0.6710
24724SOL    HW181033  10.605   2.913   9.270  0.2659 -0.6670 -3.6176
24724SOL    HW281034  10.535   2.853   9.390  3.0740  3.2294  0.3166
24725SOL     OW81035   2.948  10.670   9.327 -0.0753  0.3431  0.2359
24725SOL    HW181036   2.987  10.623   9.253  1.3837 -0.1398  1.2429
24725SOL    HW281037   2.886  10.608   9.365  0.9918 -0.3763  0.8634
24726SOL     OW81038   6.135   3.235   5.327  0.2760 -0.1616 -0.3819
24726SOL    HW181039   6.159   3.227   5.235  0.7489 -0.9061 -0.2003
24726SOL    HW281040   6.078   3.312   5.330  1.4614  0.7908 -1.0622
24727SOL     OW81041   6.281  12.315   9.380  0.0779 -0.1664 -0.5870
24727SOL    HW181042   6.331  12.374   9.437  0.5512 -0.1796 -0.9854
24727SOL    HW281043   6.202  12.365   9.358  1.0121  0.8030 -1.8743
24728SOL     OW81044   8.994   5.924   4.137 -0.0736  0.4404  0.5828
24728SOL    HW181045   8.905   5.890   4.125  0.0957 -0.1503  0.9922
24728SOL    HW281046   9.014   5.907   4.229  0.6171  0.2000  0.3928
24729SOL     OW81047  11.762   0.096   4.064 -0.0126 -0.3010 -0.1404
24729SOL    HW181048  11.740   0.155   4.136  2.3337 -1.0878  1.3483
24729SOL    HW281049  11.690   0.033   4.061 -1.0523  0.8407  0.2652
24730SOL     OW81050  11.826   1.696   3.223 -0.3112 -0.7869  0.6913
24730SOL    HW181051  11.781   1.778   3.241 -0.9331 -1.1906  1.0005
24730SOL    HW281052  11.757   1.635   3.196  0.3240 -0.8139 -0.9907
24731SOL     OW81053   0.690   9.216   4.130  0.2331 -0.4137 -0.2034
24731SOL    HW181054   0.770   9.177   4.167  0.1289 -0.5794 -0.1510
24731SOL    HW281055   0.639   9.141   4.099  0.8206 -0.2130 -1.7146
24732SOL     OW81056   7.725   7.968   6.040 -0.4971  0.2750 -0.1387
24732SOL    HW181057   7.712   7.875   6.025 -0.3197  0.3713 -0.9159
24732SOL    HW281058   7.708   8.009   5.955  1.2947  0.7574 -0.2956
24733SOL     OW81059   1.358  12.362   9.824  0.3363  0.6415  0.1239
24733SOL    HW181060   1.435  12.381   9.878  0.6579  1.7994 -0.7117
24733SOL    HW281061   1.286  12.357   9.886  0.6399  2.2693  0.6588
24734SOL     OW81062   2.154   7.720   2.240 -0.0686 -0.2751  0.0860
24734SOL    HW181063   2.236   7.728   2.192 -1.3421 -0.5030 -2.2847
24734SOL    HW281064   2.124   7.631   2.222 -1.1336  0.0006  0.3807
24735SOL     OW81065   9.252   8.632   2.465  0.3941  0.5685  0.2784
24735SOL    HW181066   9.297   8.689   2.528  0.6969 -0.4864  1.0524
24735SOL    HW281067   9.261   8.677   2.382  1.2919  1.2857  0.7422
24736SOL     OW81068   2.032   2.357   0.138  0.2952 -0.2861 -0.0502
24736SOL    HW181069   1.941   2.371   0.166  0.3754  0.6938 -0.2532
24736SOL    HW281070   2.055   2.271   0.173  0.3035  0.7557  2.7341
24737SOL     OW81071   9.585   7.576   5.386  0.2483  0.1659  1.3410
24737SOL    HW181072   9.638   7.640   5.337 -1.3656  0.2341 -0.4376
24737SOL    HW281073   9.617   7.491   5.355 -0.7873  0.2092  0.0775
24738SOL     OW81074  11.265   2.153   2.109  0.2861  0.3451 -0.7126
24738SOL    HW181075  11.233   2.242   2.128  2.4507  0.9324  0.5728
24738SOL    HW281076  11.226   2.099   2.177  0.1596  0.6150 -0.5675
24739SOL     OW81077   4.092   9.723   0.483  0.1506 -0.3982 -0.6220
24739SOL    HW181078   4.116   9.633   0.504 -0.1195  0.1779  2.6709
24739SOL    HW281079   4.057   9.758   0.565  0.3627  2.7657 -1.7653
24740SOL     OW81080  10.158   0.882   9.747  0.2733  0.4288  0.7361
24740SOL    HW181081  10.216   0.918   9.680  0.3647 -2.6885 -1.0790
24740SOL    HW281082  10.216   0.832   9.804 -0.2873 -0.4740  0.5319
24741SOL     OW81083   9.007   2.606   3.203 -0.0330 -0.1990  0.1108
24741SOL    HW181084   8.979   2.687   3.159 -0.9923 -0.2402  0.6136
24741SOL    HW281085   8.982   2.537   3.142  4.0741 -0.0644 -2.0908
24742SOL     OW81086   9.602   1.463   4.252 -0.2507 -0.5256  0.3768
24742SOL    HW181087   9.638   1.541   4.294  1.1428 -0.6785 -0.4391
24742SOL    HW281088   9.664   1.444   4.181 -2.5496 -0.1612 -1.8873
24743SOL     OW81089   6.628   3.655   5.856 -0.6427 -0.2413  0.0343
24743SOL    HW181090   6.660   3.602   5.782 -2.5658  0.6469 -1.5409
24743SOL    HW281091   6.549   3.610   5.885 -0.8875  0.3911  0.3690
24744SOL     OW81092   7.674  12.342  10.729 -0.5943 -0.2558  0.0738
24744SOL    HW181093   7.646  12.325  10.639  0.3964  0.0147 -0.2996
24744SOL    HW281094   7.611  12.406  10.762 -1.0800 -0.5002 -0.3550
24745SOL     OW81095  12.063   8.381   4.946 -0.0637  0.6412 -0.6881
24745SOL    HW181096  12.123   8.340   4.883 -0.2979 -1.8484  0.5800
24745SOL    HW281097  12.015   8.308   4.984 -1.7050  2.3047  0.5902
24746SOL     OW81098   4.715   9.209  12.042 -0.1221 -0.1309 -0.0723
24746SOL    HW181099   4.783   9.226  11.977  0.1405  1.6535  0.6034
24746SOL    HW281100   4.639   9.183  11.990 -0.3184  2.5376 -1.3000
24747SOL     OW81101   6.151  10.964   1.663 -0.3454  0.1724  0.0788
24747SOL    HW181102   6.115  11.028   1.724  0.1640 -0.0085  0.5749
24747SOL    HW281103   6.210  11.016   1.608  1.0861 -0.0705  1.3249
24748SOL     OW81104   2.097   8.269   3.094 -0.5608  0.0938  0.0186
24748SOL    HW181105   2.176   8.243   3.140  0.2723 -0.2477 -1.5342
24748SOL    HW281106   2.115   8.357   3.061 -1.4694  0.6790  1.0170
24749SOL     OW81107  12.332   7.850   5.885  0.4179 -0.2367  0.2943
24749SOL    HW181108  12.402   7.841   5.820 -0.4526  1.4638 -0.9585
24749SOL    HW281109  12.251   7.835   5.836 -0.2517  0.8052  1.0360
24750SOL     OW81110   8.140   5.785   6.095 -0.2927 -0.7505  0.0062
24750SOL    HW181111   8.052   5.753   6.113 -1.1548  1.0343 -0.8748
24750SOL    HW281112   8.173   5.726   6.027 -0.6411 -1.6531  0.5963
24751SOL     OW81113   8.323   8.922  12.369  0.0435 -0.3194 -0.5030
24751SOL    HW181114   8.406   8.883  12.395 -0.3472 -0.8308  0.0085
24751SOL    HW281115   8.312   8.896  12.278  0.6625  0.1413 -0.7120
24752SOL     OW81116   2.909   8.128   0.498  0.4409  0.6475 -0.2024
24752SOL    HW181117   2.962   8.075   0.439  0.2154 -0.0616  0.2222
24752SOL    HW281118   2.960   8.208   0.509  0.4156  0.8618 -1.4696
24753SOL     OW81119  11.940   6.051   8.655 -0.2533  0.0731  0.3507
24753SOL    HW181120  11.933   6.037   8.560 -0.3024  1.3955  0.1375
24753SOL    HW281121  12.030   6.027   8.676 -0.7538 -2.0207  0.3287
24754SOL     OW81122   5.917  11.642   5.630 -0.8589  0.4356 -0.2529
24754SOL    HW181123   5.866  11.620   5.553 -1.4658 -0.8495  0.4773
24754SOL    HW281124   5.885  11.583   5.698  1.5719 -0.4256  0.2548
24755SOL     OW81125   7.097   6.382   2.457  0.3903 -0.4944  0.0484
24755SOL    HW181126   7.083   6.374   2.363  0.8539  0.5925 -0.1350
24755SOL    HW281127   7.191   6.401   2.465  0.9543 -3.1604  0.9233
24756SOL     OW81128  12.134   2.784   2.952 -0.5573  0.5992 -0.2225
24756SOL    HW181129  12.164   2.711   2.898 -1.9737  1.3546 -2.1423
24756SOL    HW281130  12.106   2.744   3.034  0.1193 -0.7960 -0.6413
24757SOL     OW81131   5.346   5.262  10.716 -0.1349  0.0153  0.5186
24757SOL    HW181132   5.314   5.235  10.802 -1.3806 -1.2560 -0.2993
24757SOL    HW281133   5.438   5.238  10.716 -0.1274  0.0128  1.4891
24758SOL     OW81134   9.416  10.327   6.664  0.2613 -0.6629 -0.1405
24758SOL    HW181135   9.346  10.280   6.710 -0.8909  0.7351 -0.3962
24758SOL    HW281136   9.466  10.369   6.734 -1.0593  0.8717 -0.0645
24759SOL     OW81137   9.567   3.347  11.183 -0.1378 -0.3748  0.5034
24759SOL    HW181138   9.658   3.338  11.157 -0.5329 -0.5083 -0.9142
24759SOL    HW281139   9.570   3.390  11.269  1.2031  1.0458 -0.2125
24760SOL     OW81140   9.054   9.857  10.294  0.0034  0.0268 -0.0585
24760SOL    HW181141   9.121   9.857  10.225 -1.7398 -2.8320 -1.9575
24760SOL    HW281142   9.036   9.764  10.309 -1.0414  0.6047  3.0114
24761SOL     OW81143  11.337  11.621   4.705  0.2961 -0.2073 -0.3463
24761SOL    HW181144  11.280  11.688   4.744  1.2756  0.2878  0.2854
24761SOL    HW281145  11.315  11.622   4.612  1.3812  2.1717 -0.6562
24762SOL     OW81146  10.319   3.909   4.984  0.6561 -0.1767 -0.3604
24762SOL    HW181147  10.329   3.959   5.065  3.9167 -1.3324  0.1138
24762SOL    HW281148  10.353   3.822   5.005 -1.0888 -1.4026 -2.2389
24763SOL     OW81149   2.095   3.671   1.150  0.3488  0.6975  0.6220
24763SOL    HW181150   2.040   3.674   1.229  0.1446  0.5508  0.4860
24763SOL    HW281151   2.171   3.619   1.176  0.1990  0.5037  0.6707
24764SOL     OW81152   0.944   6.252   2.203  0.4092  0.4561  0.4157
24764SOL    HW181153   0.902   6.170   2.176 -1.3568  1.0460  1.1737
24764SOL    HW281154   1.013   6.225   2.263  0.9222 -0.5516 -0.5913
24765SOL     OW81155   2.317   9.421   2.814 -0.1542 -0.2012  0.1876
24765SOL    HW181156   2.354   9.493   2.865 -0.9189 -0.4309  1.1058
24765SOL    HW281157   2.237   9.397   2.861 -0.2687 -1.2048 -0.4794
24766SOL     OW81158   5.424   3.289   0.890 -1.0255  0.0943  0.0275
24766SOL    HW181159   5.417   3.198   0.916  0.6583 -1.1285 -3.2619
24766SOL    HW281160   5.472   3.331   0.962 -0.4241 -1.9726  0.8959
24767SOL     OW81161   1.961   5.664   9.808  0.1370  0.2094  0.4365
24767SOL    HW181162   2.005   5.634   9.888  2.2379  0.4174 -0.5679
24767SOL    HW281163   1.981   5.597   9.743  0.6412  1.2944 -0.5508
24768SOL     OW81164   8.901   4.517   6.009  0.2953 -0.6362 -0.2286
24768SOL    HW181165   8.939   4.535   5.923 -0.4014  0.2214 -0.3744
24768SOL    HW281166   8.964   4.551   6.072  0.2262 -0.1046 -0.4422
24769SOL     OW81167   3.856   8.821   1.184 -0.3270  1.2075 -0.5039
24769SOL    HW181168   3.824   8.911   1.176 -0.6433  1.1954  0.4473
24769SOL    HW281169   3.871   8.810   1.278  1.4862  0.8682 -0.7866
24770SOL     OW81170   1.674   8.493   6.456 -0.3147 -0.0270 -0.0935
24770SOL    HW181171   1.712   8.486   6.543  1.0899  1.0115 -0.5707
24770SOL    HW281172   1.590   8.536   6.469  0.2657  0.9037  0.6773
24771SOL     OW81173  12.356  10.719   8.156  0.8454  0.7612  0.1631
24771SOL    HW181174  12.333  10.812   8.156  0.5294  0.6894 -1.1300
24771SOL    HW281175  12.447  10.717   8.126  0.7409  0.6262 -0.1425
24772SOL     OW81176   1.286   2.121   3.233  0.0882 -0.2002 -0.0708
24772SOL    HW181177   1.356   2.086   3.288 -0.7259 -1.7487  0.0376
24772SOL    HW281178   1.280   2.060   3.159 -0.7902  0.1945 -0.3432
24773SOL     OW81179   5.493   0.418  11.753 -0.1962  0.7214 -0.3285
24773SOL    HW181180   5.453   0.493  11.799 -3.0635 -1.3046  0.8108
24773SOL    HW281181   5.420   0.378  11.705  0.6174 -2.5982  0.9260
24774SOL     OW81182   1.877   5.308   1.377 -0.1166 -0.0513  0.0085
24774SOL    HW181183   1.841   5.392   1.350 -0.5614 -0.1478  0.2799
24774SOL    HW281184   1.925   5.276   1.301 -0.3172  0.2415 -0.2428
24775SOL     OW81185   4.838   0.681  10.614  0.5857 -0.2739 -0.1850
24775SOL    HW181186   4.921   0.703  10.572  1.0919  0.3665  1.1058
24775SOL    HW281187   4.853   0.597  10.656  0.5769 -0.1687  0.0293
24776SOL     OW81188  11.928   2.635   1.126 -0.3326 -0.0917 -0.0122
24776SOL    HW181189  11.972   2.670   1.048  1.6475 -0.6854  0.7769
24776SOL    HW281190  11.968   2.550   1.140 -2.3694 -1.0459  0.3152
24777SOL     OW81191  12.207   5.171   0.106  0.0173  0.3979 -0.1266
24777SOL    HW181192  12.225   5.264   0.099 -0.8659  0.7986  1.9654
24777SOL    HW281193  12.290   5.128   0.087  0.6368  1.6450 -0.3121
24778SOL     OW81194   7.460   9.927   0.397  0.0767 -0.3725 -0.3561
24778SOL    HW181195   7.525   9.895   0.459 -0.3205 -1.1206 -0.3094
24778SOL    HW281196   7.510   9.978   0.333  0.6893 -0.7980 -0.2297
24779SOL     OW81197   7.903   7.841   1.387  0.4505 -0.0188  0.1234
24779SOL    HW181198   7.922   7.750   1.365 -0.7525 -1.2692  3.5584
24779SOL    HW281199   7.834   7.866   1.325  0.0330 -1.8366 -0.2238
24780SOL     OW81200   8.954   0.939   6.790  0.0184 -0.0974 -0.4218
24780SOL    HW181201   8.985   0.954   6.879 -0.6903 -0.8158 -0.0403
24780SOL    HW281202   8.994   1.009   6.739 -0.8565  1.3268  0.7562
24781SOL     OW81203   3.380   9.436  10.313 -0.2974  0.4735  0.1882
24781SOL    HW181204   3.327   9.356  10.312  0.2306  0.1126  0.6187
24781SOL    HW281205   3.434   9.428  10.391  0.6982  0.6330 -0.4604
24782SOL     OW81206  11.073   0.667   0.625 -0.6104 -0.2966  0.4263
24782SOL    HW181207  11.126   0.644   0.548 -0.8145  1.2472 -0.2013
24782SOL    HW281208  11.062   0.584   0.671 -0.4741 -1.2718 -1.2132
24783SOL     OW81209  10.975   4.307   8.580  0.4367 -0.5232 -0.4489
24783SOL    HW181210  10.996   4.400   8.578  1.6173 -0.7437 -3.1813
24783SOL    HW281211  11.042   4.268   8.636 -0.1345  0.2341  0.8050
24784SOL     OW81212   4.208   0.670   3.841  0.6047  0.3623  0.0437
24784SOL    HW181213   4.304   0.674   3.847  0.6299  0.6633 -0.5367
24784SOL    HW281214   4.178   0.749   3.887  0.6200  0.0953  0.5178
24785SOL     OW81215   6.998   9.056   3.418  0.3114 -0.2055  0.2091
24785SOL    HW181216   6.919   9.004   3.424  0.0512  0.0992 -0.4433
24785SOL    HW281217   7.067   8.994   3.396  0.7958 -0.9140  3.3267
24786SOL     OW81218   9.309   2.149   6.839  0.0658  0.0409 -0.2659
24786SOL    HW181219   9.319   2.101   6.921 -0.9212 -1.0139 -0.7424
24786SOL    HW281220   9.381   2.118   6.784 -0.3086 -0.5718 -0.4151
24787SOL     OW81221   1.840  10.172   7.773 -0.4390  0.1603 -0.8753
24787SOL    HW181222   1.766  10.232   7.762  0.0731  1.0840  0.4834
24787SOL    HW281223   1.840  10.150   7.866  1.0267  0.2141 -0.8386
24788SOL     OW81224   4.393  11.366  10.423 -0.3599  0.3290  0.2546
24788SOL    HW181225   4.396  11.342  10.515  2.8518 -0.5123  0.0730
24788SOL    HW281226   4.314  11.323  10.389  0.3443 -2.4930  1.8927
24789SOL     OW81227   6.729   2.485   4.606 -0.1305  0.3898 -0.4617
24789SOL    HW181228   6.685   2.529   4.679  0.3434  2.3251 -1.3019
24789SOL    HW281229   6.784   2.419   4.649 -2.2850 -0.7693  0.7158
24790SOL     OW81230   9.317   7.958   9.895  0.1379  0.7611 -0.5509
24790SOL    HW181231   9.328   7.880   9.950 -0.4903  0.9000 -0.2164
24790SOL    HW281232   9.361   8.028   9.944  0.8792  0.5893 -0.9475
24791SOL     OW81233   9.660  11.145   3.311  0.4690  0.4656 -0.4762
24791SOL    HW181234   9.617  11.209   3.368  0.7939 -0.2165  0.5673
24791SOL    HW281235   9.627  11.165   3.223 -3.2038 -0.9113  0.3659
24792SOL     OW81236   4.682   8.201   7.885 -0.0833 -0.0914 -0.0649
24792SOL    HW181237   4.673   8.267   7.817 -2.3308  0.0609  0.2980
24792SOL    HW281238   4.726   8.128   7.842  0.7245  0.9070 -0.9831
24793SOL     OW81239   7.800  12.350  10.984 -0.1958  0.0657 -0.2661
24793SOL    HW181240   7.875  12.388  10.939  0.3544 -1.0768 -0.3506
24793SOL    HW281241   7.744  12.316  10.914 -0.1180 -0.3034 -0.1514
24794SOL     OW81242   7.016   8.426   3.231 -0.1191  0.6279 -0.4923
24794SOL    HW181243   7.064   8.458   3.155  0.1350 -0.5047 -0.8336
24794SOL    HW281244   7.044   8.482   3.303 -1.5828  2.7895 -1.4919
24795SOL     OW81245  10.845   3.156   4.694  0.3784 -0.5279  0.2073
24795SOL    HW181246  10.875   3.243   4.667 -0.6183 -0.3356 -0.3079
24795SOL    HW281247  10.861   3.154   4.788  0.7956  0.0541  0.1553
24796SOL     OW81248   9.228   9.913   8.906 -0.0606 -0.2510  0.5255
24796SOL    HW181249   9.137   9.912   8.937 -0.5901 -0.4312 -0.9056
24796SOL    HW281250   9.247  10.005   8.890  0.3312 -0.1232  1.6419
24797SOL     OW81251  10.238   8.157   5.812 -0.1862 -0.3000 -0.6422
24797SOL    HW181252  10.157   8.199   5.841  0.1320  0.0977 -0.3215
24797SOL    HW281253  10.298   8.230   5.796  0.5816 -0.6504  0.5461
24798SOL     OW81254   3.785  11.470  11.546 -0.4364 -0.0101 -0.0663
24798SOL    HW181255   3.841  11.511  11.479  0.0460  0.1502  0.4311
24798SOL    HW281256   3.736  11.404  11.498  0.4712 -0.4329 -0.4474
24799SOL     OW81257   7.307   0.419   3.801 -0.1853 -0.8835 -0.2319
24799SOL    HW181258   7.402   0.403   3.802 -0.3905 -2.2323 -0.8993
24799SOL    HW281259   7.270   0.344   3.755 -1.6356 -0.5877  0.4047
24800SOL     OW81260   3.207   9.673   6.507 -0.0355 -0.0517  0.1167
24800SOL    HW181261   3.140   9.739   6.528 -0.0454  0.3062 -0.9628
24800SOL    HW281262   3.160   9.609   6.454  0.2500 -0.3231  0.1938
24801SOL     OW81263   0.831  10.261   6.385 -0.3116 -0.4671 -0.2502
24801SOL    HW181264   0.863  10.170   6.392 -1.4218 -1.0252 -1.9151
24801SOL    HW281265   0.738  10.256   6.405 -0.7476 -0.0086 -1.9935
24802SOL     OW81266  11.499   0.992   0.153  0.0161 -0.1496  0.2482
24802SOL    HW181267  11.406   1.000   0.175 -0.1074 -1.1052  0.1372
24802SOL    HW281268  11.543   1.055   0.209 -0.3953 -1.6738  2.4207
24803SOL     OW81269   8.644   0.726  11.705 -0.0729 -0.3268 -0.0912
24803SOL    HW181270   8.684   0.732  11.792 -3.5278  0.3649  1.6170
24803SOL    HW281271   8.639   0.633  11.687 -0.7650 -0.5740  1.2507
24804SOL     OW81272   4.060  11.163   8.391  0.3889  0.3041 -0.1449
24804SOL    HW181273   4.155  11.176   8.398  0.4866 -0.8664  1.1168
24804SOL    HW281274   4.023  11.212   8.465  0.0934 -0.0627 -0.0475
24805SOL     OW81275  11.440   3.478  10.891  0.0110  0.0021  0.4963
24805SOL    HW181276  11.390   3.417  10.946 -0.0617  0.4052  0.8828
24805SOL    HW281277  11.419   3.452  10.802  0.9019 -1.3033  0.6411
24806SOL     OW81278   7.100  10.902   8.994  0.3928 -0.0963 -0.0329
24806SOL    HW181279   7.014  10.942   9.006  0.8520  0.6042  1.0242
24806SOL    HW281280   7.089  10.812   9.026  0.8210  0.8834  3.1838
24807SOL     OW81281   1.692   7.071   7.548 -0.3021  0.2576  0.1300
24807SOL    HW181282   1.776   7.113   7.562 -1.1596  1.5148  1.8129
24807SOL    HW281283   1.704   6.982   7.583 -0.0743  0.8902  1.7321
24808SOL     OW81284   5.970   4.213   4.996 -0.0116 -0.5399 -0.1856
24808SOL    HW181285   5.912   4.198   5.070 -0.3000  0.9285 -0.0888
24808SOL    HW281286   6.040   4.147   5.007  0.6848  0.4779  2.1693
24809SOL     OW81287   3.634   6.098  11.695  0.2976  0.8230 -0.6426
24809SOL    HW181288   3.639   6.170  11.632  1.0218 -0.3832 -2.0513
24809SOL    HW281289   3.559   6.118  11.750  0.3590  2.5307 -1.1322
24810SOL     OW81290  10.355   2.497  11.437  0.3113 -0.5876 -0.1277
24810SOL    HW181291  10.313   2.418  11.400 -1.2760 -0.5431  1.4208
24810SOL    HW281292  10.383   2.470  11.524  0.2379  0.4072  0.2119
24811SOL     OW81293  10.456  12.076  11.214  0.2375 -0.5633  0.3314
24811SOL    HW181294  10.395  12.151  11.220 -0.4979 -0.9480 -1.6336
24811SOL    HW281295  10.539  12.116  11.190  0.1815 -0.2533  0.6317
24812SOL     OW81296   4.603   4.831   4.989 -0.3449 -0.1889  0.3640
24812SOL    HW181297   4.518   4.847   5.029 -0.7661  0.4053 -0.7292
24812SOL    HW281298   4.615   4.903   4.928  0.3136 -1.0153 -0.5156
24813SOL     OW81299   6.344   0.893   6.625  0.6378  0.2596 -0.8447
24813SOL    HW181300   6.415   0.891   6.689 -1.4697 -0.1190  1.6060
24813SOL    HW281301   6.309   0.982   6.629 -0.5917 -0.2304 -0.1601
24814SOL     OW81302   7.238   7.891  10.335  0.1292 -0.6448  0.3564
24814SOL    HW181303   7.281   7.829  10.393  0.9284  0.3778  0.8969
24814SOL    HW281304   7.237   7.847  10.250  2.1378 -0.7839  0.3509
24815SOL     OW81305   3.126   6.084   4.760 -0.4874  0.1054  0.1337
24815SOL    HW181306   3.200   6.058   4.816 -0.4133  1.3024  0.6316
24815SOL    HW281307   3.059   6.018   4.775  0.7924 -1.5384 -1.0253
24816SOL     OW81308   0.224   2.777  10.444  0.0373 -0.1407  0.2538
24816SOL    HW181309   0.214   2.685  10.471  1.7488 -0.5545 -0.3416
24816SOL    HW281310   0.237   2.772  10.349 -1.3558  0.8754 -0.0093
24817SOL     OW81311   7.022   4.535   2.137  0.0106  0.3386 -0.3077
24817SOL    HW181312   6.946   4.477   2.143  2.0281 -2.3505  1.7318
24817SOL    HW281313   7.009   4.599   2.206  0.7470 -1.8038  1.9883
24818SOL     OW81314   2.302   4.183   5.467 -0.6412 -0.1701 -0.4339
24818SOL    HW181315   2.386   4.181   5.512 -0.3131 -0.1935 -1.0371
24818SOL    HW281316   2.243   4.227   5.528  0.0226  0.6317 -0.3576
24819SOL     OW81317   5.751  10.870   0.085  0.6733 -1.0148  0.2754
24819SOL    HW181318   5.824  10.883   0.025  1.7605  0.0784  1.7680
24819SOL    HW281319   5.704  10.954   0.084 -0.2825 -1.5267 -0.2429
24820SOL     OW81320  10.191  11.975   3.387 -0.4014 -0.2263  0.1676
24820SOL    HW181321  10.201  11.924   3.467  0.1515 -1.1301 -0.4529
24820SOL    HW281322  10.274  12.021   3.376  0.4203 -1.9075 -1.0707
24821SOL     OW81323   3.196   7.074   8.020  0.2272 -0.0478 -0.4292
24821SOL    HW181324   3.177   7.141   8.085 -0.2492 -0.6516  0.0663
24821SOL    HW281325   3.172   7.114   7.936 -0.5590  0.2099 -0.0887
24822SOL     OW81326   4.078   8.925  12.253  0.4288  0.6128  0.0141
24822SOL    HW181327   4.134   8.855  12.286  1.1285  0.6788 -0.9824
24822SOL    HW281328   4.098   9.000  12.309  1.4806  0.6788 -0.4257
24823SOL     OW81329   1.887  11.038  10.809 -0.0283  0.5384  0.0168
24823SOL    HW181330   1.892  10.983  10.888  1.4166 -0.7006 -0.8950
24823SOL    HW281331   1.796  11.067  10.807 -0.2097  0.2596  1.9119
24824SOL     OW81332   4.615   5.261  12.418  0.4105  0.0061 -0.1896
24824SOL    HW181333   4.521   5.275  12.427  0.2952 -1.5271  1.5080
24824SOL    HW281334   4.653   5.308  12.492  0.9223  0.0253 -0.4627
24825SOL     OW81335   0.799   9.609  11.445 -0.0817 -0.0565 -0.0515
24825SOL    HW181336   0.752   9.572  11.520 -1.6806  1.9894  0.0528
24825SOL    HW281337   0.891   9.599  11.467 -0.4191 -2.7910  0.4865
24826SOL     OW81338   3.495  11.590   3.123 -0.2995 -0.2364  0.2408
24826SOL    HW181339   3.475  11.674   3.081 -1.3626 -0.2323  0.7256
24826SOL    HW281340   3.410  11.550   3.139  0.1597 -0.9766  0.8940
24827SOL     OW81341   3.063   3.243   1.603  0.2536  0.0776  0.0802
24827SOL    HW181342   3.016   3.304   1.546  1.1954 -0.5278 -1.4273
24827SOL    HW281343   2.999   3.218   1.670 -0.9618  0.7258 -0.7935
24828SOL     OW81344   8.748   9.418  10.473  0.0286  0.1229 -0.4386
24828SOL    HW181345   8.834   9.378  10.457 -0.0372  0.5188 -1.8416
24828SOL    HW281346   8.745   9.494  10.416 -1.1488  0.2967 -0.1773
24829SOL     OW81347   9.594   9.701   2.519  0.0039 -0.5156  0.0954
24829SOL    HW181348   9.506   9.700   2.482 -0.2254 -1.5145  0.6253
24829SOL    HW281349   9.652   9.689   2.444 -0.3029  0.1822 -0.2614
24830SOL     OW81350   3.856  10.730   9.436  0.2841 -0.0363  0.5674
24830SOL    HW181351   3.819  10.818   9.434 -0.6362 -0.2900 -3.6246
24830SOL    HW281352   3.951  10.743   9.433  0.1845  0.8052  0.9938
24831SOL     OW81353  12.437   7.557   7.055 -0.0977 -0.5934 -0.0892
24831SOL    HW181354  12.477   7.495   6.994 -0.3347 -1.7070  0.8551
24831SOL    HW281355  12.347   7.526   7.065 -0.2623 -0.0105  0.2735
24832SOL     OW81356   5.973   0.355   8.941  0.0333  0.0800 -0.2368
24832SOL    HW181357   5.959   0.282   8.881 -0.0671 -1.1259  1.1841
24832SOL    HW281358   6.019   0.316   9.015  1.0983  1.7341  0.0258
24833SOL     OW81359   6.322  10.309   5.402  0.0491 -0.2840  0.3530
24833SOL    HW181360   6.347  10.382   5.346 -0.4434 -0.7752 -0.5341
24833SOL    HW281361   6.226  10.306   5.395  0.0729 -1.0615  0.3143
24834SOL     OW81362  10.908   6.136   4.041  0.0155 -0.7249  0.2971
24834SOL    HW181363  10.918   6.204   4.108  0.7932 -0.0749 -0.4512
24834SOL    HW281364  10.971   6.068   4.065  0.1205 -0.6045  0.3616
24835SOL     OW81365   0.858   6.485   6.852 -0.2103 -0.2165 -0.4056
24835SOL    HW181366   0.851   6.447   6.765  2.4990  0.7889 -1.1767
24835SOL    HW281367   0.911   6.423   6.902  1.2983  0.8277 -0.6312
24836SOL     OW81368   2.324   7.895   0.155  0.2310 -0.4005  0.0538
24836SOL    HW181369   2.361   7.904   0.243 -1.2523  2.5570  0.5021
24836SOL    HW281370   2.246   7.951   0.156 -0.0697 -0.5977 -3.0339
24837SOL     OW81371   8.249  11.630   8.198  0.1411  0.0198  0.1412
24837SOL    HW181372   8.210  11.598   8.279  0.7730 -0.0698  0.4150
24837SOL    HW281373   8.189  11.699   8.168 -0.4319 -0.3890  0.3396
24838SOL     OW81374   6.818   8.614  12.391  0.2931 -0.2589 -0.0133
24838SOL    HW181375   6.766   8.686  12.356  1.3028  0.0252 -0.9836
24838SOL    HW281376   6.754   8.552  12.425 -0.6271  0.6027 -0.1331
24839SOL     OW81377   2.391   6.098  11.216  0.1255  0.3176  0.4698
24839SOL    HW181378   2.414   6.034  11.284  1.2179 -1.4622 -1.4860
24839SOL    HW281379   2.344   6.166  11.264  1.3414 -0.5414  3.1277
24840SOL     OW81380   0.143  11.095  10.298  0.3241 -0.2851 -0.0802
24840SOL    HW181381   0.065  11.065  10.252  0.5155 -0.4112 -0.3265
24840SOL    HW281382   0.110  11.132  10.380 -0.1119  0.9127 -0.7751
24841SOL     OW81383   2.515   6.979   1.496 -0.7110  0.0168  0.0533
24841SOL    HW181384   2.556   7.050   1.547 -1.2602 -0.2607  0.9047
24841SOL    HW281385   2.588   6.928   1.463 -0.2304  1.8134 -1.8372
24842SOL     OW81386   3.870   5.960   7.455  0.9723  0.8663 -0.2578
24842SOL    HW181387   3.849   6.053   7.459  0.0510  0.6595 -0.1464
24842SOL    HW281388   3.820   5.927   7.380  0.2823  0.2178  0.4689
24843SOL     OW81389  11.095   2.418   4.889  0.2056 -0.0474  0.1484
24843SOL    HW181390  11.162   2.466   4.839  0.8855 -2.0085 -0.8935
24843SOL    HW281391  11.015   2.429   4.839  0.2700  0.2699  0.1089
24844SOL     OW81392   6.387  11.303   9.425 -0.2039 -0.3459 -0.4180
24844SOL    HW181393   6.352  11.373   9.370  0.4144  0.0534 -0.3217
24844SOL    HW281394   6.477  11.330   9.443 -0.7881  0.2636  1.9361
24845SOL     OW81395   6.107   8.177   3.527  0.4643  0.0450 -0.3854
24845SOL    HW181396   6.040   8.241   3.548  1.7008  2.0386 -2.1266
24845SOL    HW281397   6.158   8.168   3.608  0.1838  1.1649 -0.0770
24846SOL     OW81398   8.287   3.753   9.629 -0.0579 -0.4612  0.2788
24846SOL    HW181399   8.347   3.806   9.577 -0.0020 -1.5795 -0.8129
24846SOL    HW281400   8.271   3.806   9.707  1.0937  0.5469 -0.1398
24847SOL     OW81401   5.101   3.365   6.652  0.4093 -0.0112  0.1580
24847SOL    HW181402   5.179   3.388   6.702 -0.6250  0.5182  1.5984
24847SOL    HW281403   5.093   3.434   6.586  0.5233  0.5696  0.7469
24848SOL     OW81404   5.539   2.737   4.929 -0.0893  0.1082  0.2847
24848SOL    HW181405   5.486   2.671   4.884  1.1797  0.5711 -2.0478
24848SOL    HW281406   5.475   2.789   4.979 -2.0955  1.3177 -3.2033
24849SOL     OW81407   2.466   1.036   2.051  0.0401  0.7006  0.1826
24849SOL    HW181408   2.415   1.008   2.128 -0.1564  0.3255 -0.0818
24849SOL    HW281409   2.479   1.130   2.064 -0.0402  0.6506  0.6490
24850SOL     OW81410   1.899   9.883  11.892 -0.1046  0.1646 -0.0989
24850SOL    HW181411   1.972   9.866  11.832 -1.4846  0.5628 -1.9512
24850SOL    HW281412   1.829   9.827  11.861 -0.9917  0.7031  0.8893
24851SOL     OW81413   8.838   7.996   3.242  0.7701  0.0513  0.2220
24851SOL    HW181414   8.824   7.934   3.313  1.0327 -1.9826 -1.3983
24851SOL    HW281415   8.907   7.957   3.189  0.4100  1.3439 -1.2900
24852SOL     OW81416   0.448   7.897   8.985 -0.2717 -0.4893 -0.1681
24852SOL    HW181417   0.355   7.915   9.000  0.1880  0.9603  1.3332
24852SOL    HW281418   0.491   7.929   9.065  1.5937 -0.3572 -1.1715
24853SOL     OW81419   1.199   5.794   8.703  0.1489  0.8256 -0.0610
24853SOL    HW181420   1.214   5.879   8.662  2.7092  0.4893  0.0415
24853SOL    HW281421   1.212   5.731   8.633 -0.1499  0.4320  0.2317
24854SOL     OW81422   7.519   6.444   5.743  0.5042 -0.1576 -0.0287
24854SOL    HW181423   7.463   6.495   5.684 -0.7181 -0.3305  0.9291
24854SOL    HW281424   7.526   6.497   5.822  0.8147 -0.6101  0.2512
24855SOL     OW81425   7.671   4.134  12.331 -0.7515  0.8639  0.1691
24855SOL    HW181426   7.682   4.046  12.296 -0.1621  0.4709  1.3176
24855SOL    HW281427   7.576   4.148  12.331 -1.0087 -0.5554  1.8107
24856SOL     OW81428   6.770   4.285   6.415  0.1297 -1.0227  0.3428
24856SOL    HW181429   6.765   4.325   6.502  1.3630  1.1263 -0.5255
24856SOL    HW281430   6.862   4.265   6.403  0.3815  0.9384 -1.3899
24857SOL     OW81431   4.032   7.046   8.819  0.2308 -0.0881 -0.1792
24857SOL    HW181432   4.006   7.012   8.904  0.9362  0.6613  0.3443
24857SOL    HW281433   3.988   7.131   8.812 -0.4659 -0.4882 -0.9166
24858SOL     OW81434  11.437   3.694   4.829 -0.0172 -0.0847  0.5322
24858SOL    HW181435  11.473   3.771   4.873  0.0886  0.0379  0.2360
24858SOL    HW281436  11.495   3.681   4.754 -0.3212 -0.1640  0.3106
24859SOL     OW81437   2.891   4.864  11.010  0.5493  0.5258  0.5890
24859SOL    HW181438   2.874   4.877  11.103 -1.1865 -2.8090  0.8802
24859SOL    HW281439   2.977   4.823  11.007 -0.4917 -1.8718  1.0893
24860SOL     OW81440   0.638   6.065   3.898  0.3095 -0.2081 -0.3570
24860SOL    HW181441   0.717   6.107   3.932 -0.4357  0.9631 -0.0201
24860SOL    HW281442   0.566   6.117   3.933 -0.5644  0.1111 -2.4475
24861SOL     OW81443  11.725   0.897   7.623  0.0040 -0.3848  0.1799
24861SOL    HW181444  11.667   0.878   7.696  0.0334 -0.4259  0.1919
24861SOL    HW281445  11.699   0.834   7.555  0.1297 -0.4950  0.2353
24862SOL     OW81446   9.820   2.113  10.426 -0.0531  0.4348 -0.8696
24862SOL    HW181447   9.855   2.106  10.337 -0.1772 -0.4058 -0.8606
24862SOL    HW281448   9.826   2.207  10.447  1.6010  0.4041 -1.1025
24863SOL     OW81449   0.369  10.579  11.820 -0.9773 -0.5377 -0.2530
24863SOL    HW181450   0.459  10.552  11.834 -0.5345  0.9742  0.0177
24863SOL    HW281451   0.375  10.653  11.759 -1.7640  1.2810  1.7537
24864SOL     OW81452   1.443  11.774  10.653 -0.0409 -0.0413  0.4661
24864SOL    HW181453   1.536  11.796  10.655  0.0021  0.5001 -2.5027
24864SOL    HW281454   1.400  11.845  10.701  1.0352 -0.3166  1.8915
24865SOL     OW81455   6.812   9.816   5.645 -0.0746  0.6537  0.3125
24865SOL    HW181456   6.730   9.832   5.598 -1.5807  1.4646  3.0075
24865SOL    HW281457   6.878   9.809   5.576 -2.4490 -0.5628 -2.0209
24866SOL     OW81458   9.312   4.060  11.187 -0.4911  0.2729  0.2248
24866SOL    HW181459   9.358   3.982  11.154  0.9150  1.0421  0.2709
24866SOL    HW281460   9.230   4.062  11.138  0.3822 -0.0844 -1.3031
24867SOL     OW81461  12.372  10.759   6.751  0.4685 -0.2646  0.6290
24867SOL    HW181462  12.407  10.689   6.806 -1.1418 -0.3811  1.5646
24867SOL    HW281463  12.436  10.830   6.759 -0.3615  0.2844  3.9290
24868SOL     OW81464   4.554   1.422   2.262  0.3756 -0.5715  0.3647
24868SOL    HW181465   4.587   1.357   2.200  0.6836  0.0601 -0.1364
24868SOL    HW281466   4.562   1.506   2.217 -2.7356 -0.4302 -0.1643
24869SOL     OW81467   8.383   2.380   2.379  0.1614  0.3977 -0.2158
24869SOL    HW181468   8.322   2.415   2.314 -1.3695 -0.4094  0.7397
24869SOL    HW281469   8.335   2.383   2.462  1.4679 -0.1605  0.6009
24870SOL     OW81470   6.653   4.378   9.339  0.1089 -0.1733  0.5633
24870SOL    HW181471   6.567   4.358   9.377 -0.4173 -0.1022 -0.5291
24870SOL    HW281472   6.665   4.311   9.271  0.6111  0.2196  0.2562
24871SOL     OW81473   9.967   6.420   7.201  0.4686 -0.5783  0.1182
24871SOL    HW181474   9.953   6.332   7.168  0.8007 -0.8125  0.5966
24871SOL    HW281475  10.027   6.409   7.275  0.7847  0.0792 -0.0281
24872SOL     OW81476   4.700  11.113   5.584 -0.3423  0.0555 -0.1893
24872SOL    HW181477   4.725  11.023   5.606  0.2910  0.1923 -0.3403
24872SOL    HW281478   4.646  11.142   5.658  1.1518  0.2562  0.8641
24873SOL     OW81479  11.214   5.566  11.967  0.1749 -0.0177 -0.3252
24873SOL    HW181480  11.143   5.543  11.906 -0.5339  1.0823  0.0540
24873SOL    HW281481  11.179   5.547  12.054 -0.2989  2.0371 -0.0256
24874SOL     OW81482   0.241   2.737   3.385  0.0691 -0.3893 -0.0724
24874SOL    HW181483   0.262   2.736   3.291 -0.4185 -0.3940 -0.1803
24874SOL    HW281484   0.320   2.774   3.426 -0.3366  1.1630 -0.6303
24875SOL     OW81485   8.206  10.960   8.673  0.1763  0.0196  0.3003
24875SOL    HW181486   8.213  11.054   8.660 -0.7294  0.0603  0.1145
24875SOL    HW281487   8.297  10.929   8.669  0.4121  0.7726 -0.4321
24876SOL     OW81488   0.606   2.554  12.081 -0.2530  1.0649  0.6531
24876SOL    HW181489   0.522   2.581  12.045 -1.2598 -0.4878  1.7217
24876SOL    HW281490   0.647   2.502  12.011 -1.4994 -0.6208  1.1218
24877SOL     OW81491   5.249   8.905   2.119  0.2361  0.4594 -0.6544
24877SOL    HW181492   5.301   8.832   2.087 -0.5603 -0.1359 -0.6012
24877SOL    HW281493   5.164   8.896   2.076  0.3440  1.7544 -1.1901
24878SOL     OW81494   2.389   7.141   1.246 -0.5289  0.6642  0.0591
24878SOL    HW181495   2.430   7.102   1.323  1.0186  0.6271 -0.7404
24878SOL    HW281496   2.324   7.076   1.218  0.0453 -0.0575  0.3781
24879SOL     OW81497  11.481   4.460   6.427 -0.0512 -0.0628  0.3405
24879SOL    HW181498  11.488   4.424   6.516 -1.8384 -0.0308  0.5306
24879SOL    HW281499  11.534   4.401   6.373 -0.0954 -0.9192  1.2106
24880SOL     OW81500  12.041   3.964   7.171  0.3024  0.5931  0.4847
24880SOL    HW181501  12.012   4.036   7.116 -0.6236  0.0879  0.2931
24880SOL    HW281502  12.053   4.003   7.258 -0.3440  0.9409  0.4200
24881SOL     OW81503   4.269   3.298  10.937 -0.0601  0.1420 -0.8525
24881SOL    HW181504   4.258   3.250  11.019  0.7194 -2.0703 -1.9460
24881SOL    HW281505   4.180   3.320  10.910 -0.4028 -0.1344  0.0048
24882SOL     OW81506  12.112   2.684   7.153 -0.0320 -0.3712  0.1602
24882SOL    HW181507  12.096   2.753   7.217 -2.3476 -1.0755  0.4374
24882SOL    HW281508  12.116   2.730   7.069 -0.0975  0.2563  0.4944
24883SOL     OW81509   2.309  10.322   6.971 -0.2776  0.4180 -0.5109
24883SOL    HW181510   2.381  10.369   7.013  0.0940  2.6934 -3.4078
24883SOL    HW281511   2.234  10.381   6.978 -1.5366 -1.2333  1.0325
24884SOL     OW81512   7.674   5.551   3.528 -0.1202  0.0847 -0.0971
24884SOL    HW181513   7.715   5.465   3.516 -0.3234  0.1572 -1.3742
24884SOL    HW281514   7.610   5.557   3.458 -0.7392  0.9174  0.5307
24885SOL     OW81515   1.895   3.535   1.042 -0.0321 -0.3387 -0.7736
24885SOL    HW181516   1.839   3.611   1.026  2.5976  1.5244 -1.9312
24885SOL    HW281517   1.969   3.569   1.092  0.0521 -2.7433  0.9471
24886SOL     OW81518  10.064   7.996   3.982 -0.1316  0.2406 -0.2916
24886SOL    HW181519   9.972   8.020   3.973 -0.0437  0.7592  0.0910
24886SOL    HW281520  10.065   7.932   4.053 -0.2653 -0.2516 -0.7246
24887SOL     OW81521   9.101   7.444  11.473 -0.2519 -0.0098 -0.1503
24887SOL    HW181522   9.196   7.449  11.460 -0.2578 -0.6812 -0.4488
24887SOL    HW281523   9.078   7.355  11.450 -0.9372  0.1010  0.0907
24888SOL     OW81524  12.228  12.259   4.719 -0.3527  0.2549  0.6359
24888SOL    HW181525  12.179  12.277   4.639  0.3599 -0.9615 -0.1051
24888SOL    HW281526  12.161  12.245   4.786 -0.9545  1.5949  0.3453
24889SOL     OW81527   9.252   2.998  10.916  0.6860 -0.5827 -0.0933
24889SOL    HW181528   9.182   3.039  10.866  0.5482  0.4296  0.8914
24889SOL    HW281529   9.332   3.032  10.876  0.5900 -0.5079 -0.2231
24890SOL     OW81530   4.274   6.012   2.244  0.4014 -0.2077 -0.2088
24890SOL    HW181531   4.191   6.009   2.196 -0.0889 -0.4474  0.6342
24890SOL    HW281532   4.331   6.067   2.189 -0.3371  0.0421 -0.7514
24891SOL     OW81533   0.579   5.409   7.991 -0.0429  0.1048  0.1573
24891SOL    HW181534   0.629   5.486   7.965 -0.4245  0.2424 -0.1855
24891SOL    HW281535   0.488   5.439   7.994 -0.3407 -0.5692 -1.0592
24892SOL     OW81536  11.607   6.728   3.397 -0.1649  0.2711  0.1150
24892SOL    HW181537  11.515   6.755   3.392 -0.4543 -0.8879 -2.1935
24892SOL    HW281538  11.622   6.678   3.317  2.3072 -0.1905  0.7707
24893SOL     OW81539   4.089   5.668   3.618  0.1613 -0.1174  0.5555
24893SOL    HW181540   4.095   5.761   3.643 -0.0577 -0.8247  3.6797
24893SOL    HW281541   4.176   5.633   3.633  0.5973 -0.2443 -1.8624
24894SOL     OW81542   0.610  10.374  11.147 -0.0411  0.0901  0.5113
24894SOL    HW181543   0.573  10.460  11.166 -0.3791  0.5418 -1.8033
24894SOL    HW281544   0.594  10.322  11.226  1.5769  2.5305  2.5967
24895SOL     OW81545  10.694  12.403  10.482 -0.0085  0.1872  0.1175
24895SOL    HW181546  10.687  12.451  10.564 -0.9040 -0.3733  0.3842
24895SOL    HW281547  10.776  12.355  10.489 -0.9848 -1.3786  1.5543
24896SOL     OW81548   8.061   6.131  10.028  0.1683 -0.8652  0.4019
24896SOL    HW181549   8.040   6.038  10.038 -0.8485 -0.6582  0.2854
24896SOL    HW281550   8.144   6.131   9.980  0.2538 -1.7071  0.5190
24897SOL     OW81551  10.733   5.171   6.039 -0.2075 -0.3973 -0.2273
24897SOL    HW181552  10.827   5.155   6.046 -0.0429 -0.1255 -1.5090
24897SOL    HW281553  10.710   5.142   5.950 -1.5531 -1.4890  0.4295
24898SOL     OW81554   0.896   3.756   0.033  0.3262 -0.0605 -0.0250
24898SOL    HW181555   0.819   3.797  -0.007  0.5279  0.5898  0.2627
24898SOL    HW281556   0.951   3.732  -0.042 -0.1750 -0.5918 -0.2387
24899SOL     OW81557   6.036   5.614  10.121  0.5109  0.5916  0.2002
24899SOL    HW181558   6.031   5.708  10.105 -0.2923  0.3076 -1.4186
24899SOL    HW281559   6.126   5.590  10.097  0.8104  0.9778  0.9036
24900SOL     OW81560  11.935   3.436   4.152 -0.0716 -0.2079 -0.3911
24900SOL    HW181561  11.984   3.361   4.120  0.6446  0.6081 -1.2601
24900SOL    HW281562  11.904   3.480   4.073 -1.1435 -0.0129  0.1266
24901SOL     OW81563   9.508  11.702   3.168  0.1344  0.5184  0.1622
24901SOL    HW181564   9.501  11.797   3.181 -0.4126  0.5848 -0.5231
24901SOL    HW281565   9.572  11.692   3.098  0.9847  0.3138  0.9513
24902SOL     OW81566  10.536   8.291   3.087 -0.2446 -0.2984  0.0087
24902SOL    HW181567  10.447   8.284   3.053 -0.8890  1.3147  1.2493
24902SOL    HW281568  10.537   8.235   3.164  0.4024 -1.7547 -1.0003
24903SOL     OW81569   5.279   4.982   8.451 -0.0545 -0.0587  0.6776
24903SOL    HW181570   5.269   5.059   8.506  2.9993  0.6959  0.3764
24903SOL    HW281571   5.373   4.964   8.453 -0.2307 -1.7668 -1.9459
24904SOL     OW81572   7.801   3.326   8.442  0.0915 -0.3256  0.5496
24904SOL    HW181573   7.787   3.235   8.467  1.2093 -0.4847  0.6369
24904SOL    HW281574   7.845   3.365   8.518  0.3646  0.0746  0.1866
24905SOL     OW81575   7.455   8.429  10.955 -0.0045 -0.8424  0.0178
24905SOL    HW181576   7.528   8.442  11.015 -0.0982 -1.8691  0.3812
24905SOL    HW281577   7.484   8.361  10.895  0.0790  0.1729 -1.1142
24906SOL     OW81578  10.595   6.109   0.710  0.1159 -0.1044 -0.3761
24906SOL    HW181579  10.587   6.060   0.627 -2.0906  1.4840 -1.2021
24906SOL    HW281580  10.565   6.197   0.688 -1.2761  0.1682  2.2671
24907SOL     OW81581  12.432   8.196   1.920 -0.1042 -0.5006  0.2308
24907SOL    HW181582  12.517   8.218   1.882 -0.6007  0.1537 -0.5653
24907SOL    HW281583  12.450   8.174   2.011  0.8807 -0.1268  0.1356
24908SOL     OW81584   1.239   5.315   6.626 -0.0783 -0.0579 -0.1351
24908SOL    HW181585   1.179   5.338   6.555  0.6655 -1.1441 -1.1674
24908SOL    HW281586   1.314   5.374   6.614  0.6540 -1.1344 -1.1471
24909SOL     OW81587   9.174  10.314   6.813  0.2657  0.4816  0.0541
24909SOL    HW181588   9.129  10.364   6.745 -0.1147 -0.3606 -0.3285
24909SOL    HW281589   9.140  10.225   6.804  0.8769  0.1641  0.7650
24910SOL     OW81590   5.919   9.426  10.845  0.1394 -0.0752  0.7995
24910SOL    HW181591   5.876   9.366  10.783 -0.6355  0.3230  0.9334
24910SOL    HW281592   5.990   9.465  10.795 -0.6335  0.4280  0.0654
24911SOL     OW81593   4.523  11.473   0.747  0.2328  0.1230  0.5989
24911SOL    HW181594   4.542  11.526   0.669 -0.9721 -0.2916 -0.0033
24911SOL    HW281595   4.475  11.532   0.805 -0.1875 -0.0022  0.3794
24912SOL     OW81596   3.321   1.164   0.793 -0.0347  0.2098  0.1624
24912SOL    HW181597   3.239   1.119   0.770 -0.0428 -0.6263  1.6844
24912SOL    HW281598   3.375   1.158   0.714 -1.8538  1.8467 -1.3129
24913SOL     OW81599   6.676   7.901   6.945 -0.4702  0.1282 -0.2841
24913SOL    HW181600   6.653   7.815   6.981 -0.1998  0.7933  1.6060
24913SOL    HW281601   6.749   7.883   6.886  0.3657 -0.8437  0.9738
24914SOL     OW81602   3.143   6.883   5.945 -0.1755 -0.7205 -0.3127
24914SOL    HW181603   3.074   6.818   5.937 -0.2681 -0.5537 -1.0294
24914SOL    HW281604   3.136   6.935   5.865  0.1225 -0.0544  0.0823
24915SOL     OW81605   8.137   0.328   3.608  0.6224  0.4473 -0.3745
24915SOL    HW181606   8.218   0.315   3.656  1.1093  0.6264 -1.1239
24915SOL    HW281607   8.070   0.339   3.675  1.1107 -0.3615  0.2492
24916SOL     OW81608   1.250   0.745   5.917 -0.7373 -0.2476 -0.3547
24916SOL    HW181609   1.267   0.733   6.010 -0.2322  3.5361  0.2332
24916SOL    HW281610   1.155   0.757   5.911 -0.7136  0.0105 -0.2294
24917SOL     OW81611   1.390   3.321   0.559 -0.2262  0.1492  0.0850
24917SOL    HW181612   1.423   3.335   0.648  0.4009 -0.5910 -0.0193
24917SOL    HW281613   1.362   3.230   0.557  0.7308 -0.1596 -0.7531
24918SOL     OW81614   0.062  10.350   4.278  0.2774  0.4265  0.4938
24918SOL    HW181615  -0.016  10.333   4.226  1.4557 -0.2737 -1.1096
24918SOL    HW281616   0.041  10.431   4.326 -1.5829  0.0037  0.4799
24919SOL     OW81617   1.604  11.532  11.478 -0.0977  0.3900  0.2583
24919SOL    HW181618   1.614  11.562  11.569 -0.3194 -0.9283  0.7443
24919SOL    HW281619   1.521  11.569  11.449  0.1715  1.1529  0.4554
24920SOL     OW81620   0.245   6.629   6.659  0.2356 -0.2807 -0.4020
24920SOL    HW181621   0.205   6.591   6.580 -1.5153  1.4804 -0.4273
24920SOL    HW281622   0.337   6.603   6.653 -0.3935 -2.5494 -1.5526
24921SOL     OW81623   6.281   9.897   0.542  0.0128 -0.5740 -0.5566
24921SOL    HW181624   6.201   9.940   0.512  0.3222  0.9279  0.7033
24921SOL    HW281625   6.251   9.811   0.572 -1.2700  0.2029  0.5354
24922SOL     OW81626   2.861   0.466   3.529 -0.8655  0.2645 -0.5290
24922SOL    HW181627   2.854   0.412   3.451  0.8045  0.4300 -0.8337
24922SOL    HW281628   2.945   0.441   3.568 -1.1378  1.0055  0.5726
24923SOL     OW81629   5.736  11.435   4.342 -0.4864  0.2679 -0.4751
24923SOL    HW181630   5.783  11.447   4.425  0.5632  1.1699 -1.1643
24923SOL    HW281631   5.734  11.341   4.328 -0.0373  0.1451  0.2365
24924SOL     OW81632   5.778   3.845  11.170  0.0659 -0.1230  0.2727
24924SOL    HW181633   5.854   3.859  11.113  0.4705 -1.2236  0.5209
24924SOL    HW281634   5.710   3.812  11.111  1.1147 -3.3235  0.6496
24925SOL     OW81635   5.410   1.303  12.179 -0.3069  0.1842 -0.0209
24925SOL    HW181636   5.503   1.324  12.183 -0.5391  1.3574 -0.3648
24925SOL    HW281637   5.368   1.369  12.234 -0.9360 -0.3835  0.1991
24926SOL     OW81638   5.747   4.167   5.163 -0.6464 -0.2184  0.2675
24926SOL    HW181639   5.719   4.228   5.231 -1.0159 -1.3532  1.1597
24926SOL    HW281640   5.667   4.144   5.116 -0.5311 -0.1145  0.0207
24927SOL     OW81641   0.639  10.424   9.376  0.1863 -0.4078 -0.3450
24927SOL    HW181642   0.675  10.343   9.413  1.4570  0.7920  1.1927
24927SOL    HW281643   0.572  10.452   9.440  2.3049  1.6116  1.1611
24928SOL     OW81644   2.927   4.324   7.917 -0.0048 -0.5334 -0.1523
24928SOL    HW181645   2.966   4.387   7.856 -0.8991  0.2628  0.0665
24928SOL    HW281646   2.910   4.375   7.996 -2.0520 -0.6479 -0.4516
24929SOL     OW81647  10.170   9.240   6.025 -0.4786  0.4275 -0.4876
24929SOL    HW181648  10.146   9.188   5.948 -0.7485  1.8652 -1.4302
24929SOL    HW281649  10.263   9.222   6.039 -1.4259 -3.7546  2.0383
24930SOL     OW81650   5.637   3.923  11.496  0.2837 -0.5542 -0.0192
24930SOL    HW181651   5.558   3.952  11.450 -0.7650 -3.2188 -0.0515
24930SOL    HW281652   5.704   3.987  11.470 -1.1198  0.0803 -2.4282
24931SOL     OW81653  12.431   2.262  11.588  0.5723 -0.4243  0.2028
24931SOL    HW181654  12.453   2.308  11.508 -1.1142  0.6296  0.2740
24931SOL    HW281655  12.491   2.188  11.592  1.7971  0.4523 -1.1459
24932SOL     OW81656  10.205   7.831   4.488  0.2926  0.8584  0.0111
24932SOL    HW181657  10.141   7.902   4.493 -1.1778 -0.3533 -0.7312
24932SOL    HW281658  10.189   7.779   4.567  0.3955  0.5804 -0.1491
24933SOL     OW81659   0.386   0.611   2.442 -0.6742  0.4179 -0.2534
24933SOL    HW181660   0.464   0.559   2.424 -0.4128  0.3504  0.9823
24933SOL    HW281661   0.337   0.560   2.507 -0.1417  1.9067  1.4047
24934SOL     OW81662   7.506   3.441   8.232 -0.0162 -0.5571  0.4360
24934SOL    HW181663   7.456   3.501   8.177  0.0400 -0.3907  0.5636
24934SOL    HW281664   7.523   3.365   8.177  0.1579 -0.3340  0.1813
24935SOL     OW81665  10.110  12.238   7.210 -0.3018  0.0371 -0.6102
24935SOL    HW181666  10.117  12.331   7.188  0.0591  0.0517 -0.4531
24935SOL    HW281667  10.034  12.207   7.161 -1.7207  0.8887  0.9240
24936SOL     OW81668  10.353   1.872   2.913  0.0147 -0.1421 -0.8896
24936SOL    HW181669  10.448   1.871   2.920  0.1006  0.2084 -1.8941
24936SOL    HW281670  10.322   1.881   3.003  0.9907  2.1499 -0.7167
24937SOL     OW81671  11.864   7.189   2.192  0.3710 -0.4651  0.1735
24937SOL    HW181672  11.846   7.095   2.197 -0.1009 -0.3539  0.6008
24937SOL    HW281673  11.954   7.197   2.223  1.0001 -0.9465 -1.3763
24938SOL     OW81674  12.071   2.325   3.569  0.2908  0.2475  0.3235
24938SOL    HW181675  12.061   2.288   3.656  0.2667 -0.6350 -0.0500
24938SOL    HW281676  12.127   2.263   3.522  2.0215  1.7233  0.3217
24939SOL     OW81677   9.182   4.024   5.058 -0.1729 -0.1092 -0.0025
24939SOL    HW181678   9.224   4.103   5.092 -0.2230  0.1221 -0.4722
24939SOL    HW281679   9.214   3.954   5.114 -0.1074  0.2402  0.4027
24940SOL     OW81680   7.099   6.078   8.855  0.2434  0.0402  0.1965
24940SOL    HW181681   7.142   6.007   8.808  0.2955  0.5780 -0.5911
24940SOL    HW281682   7.170   6.121   8.903  0.3969  0.2080 -0.1730
24941SOL     OW81683   7.806   5.005   9.310  0.2183  0.2262  0.5949
24941SOL    HW181684   7.901   5.014   9.315  0.3117 -1.0968  1.6815
24941SOL    HW281685   7.772   5.088   9.343  0.9740  0.9785 -0.4639
24942SOL     OW81686   7.326   8.549   8.118 -0.1705 -0.5759 -0.3426
24942SOL    HW181687   7.396   8.612   8.137 -0.0038 -0.3666 -1.6053
24942SOL    HW281688   7.245   8.598   8.133 -0.1038 -0.9962  1.7347
24943SOL     OW81689   8.589   7.287   8.859 -0.1477  0.6619  0.1037
24943SOL    HW181690   8.602   7.258   8.768  0.1820 -1.5756  0.7959
24943SOL    HW281691   8.495   7.306   8.864  0.1612  2.8985 -1.2055
24944SOL     OW81692   4.974   2.424   8.550 -0.0473 -0.3397 -0.3710
24944SOL    HW181693   5.040   2.484   8.582  0.4951  0.0091 -2.0437
24944SOL    HW281694   4.956   2.366   8.624 -1.5887  2.6359  1.7902
24945SOL     OW81695   1.421   2.667   4.076 -0.4927 -0.6409  0.4430
24945SOL    HW181696   1.407   2.740   4.136 -4.0551 -1.9554  1.4380
24945SOL    HW281697   1.466   2.706   4.001 -1.4848  2.3967  1.2652
24946SOL     OW81698   1.429   9.323   9.726  0.8207 -0.2608 -0.0592
24946SOL    HW181699   1.407   9.231   9.742  0.3210 -0.1579 -0.1500
24946SOL    HW281700   1.480   9.349   9.803  3.0166 -1.2711 -1.0836
24947SOL     OW81701  12.440   2.052   5.105 -0.2277 -0.0015  0.4179
24947SOL    HW181702  12.378   2.019   5.170 -0.1420  0.1347  0.5692
24947SOL    HW281703  12.525   2.050   5.149  0.0498 -1.1685 -0.1220
24948SOL     OW81704  10.796   1.915   5.178  0.0977 -0.0361 -0.3200
24948SOL    HW181705  10.836   1.848   5.233  1.6046  1.8717  1.0771
24948SOL    HW281706  10.720   1.945   5.228  0.7882  0.8844  0.2095
24949SOL     OW81707   8.636   4.082  11.717 -0.8074 -0.5269 -0.1609
24949SOL    HW181708   8.719   4.057  11.676 -0.5576 -1.5959  0.9094
24949SOL    HW281709   8.582   4.116  11.646  2.0549  4.6638 -0.3602
24950SOL     OW81710   7.082   0.841   5.052 -0.4400  0.0379  0.0648
24950SOL    HW181711   7.177   0.833   5.042 -0.4685 -1.8374  0.9136
24950SOL    HW281712   7.057   0.908   4.989  1.1892 -0.8595 -1.6389
24951SOL     OW81713   6.343   6.163   0.832 -0.2573  0.7579  0.5584
24951SOL    HW181714   6.358   6.256   0.815 -0.4205  1.0518  1.9063
24951SOL    HW281715   6.255   6.159   0.870 -0.4170 -0.0084  0.1351
24952SOL     OW81716   8.470   9.700   2.495  0.1684  0.4173  0.5596
24952SOL    HW181717   8.559   9.662   2.497  0.2110  0.4908  0.1279
24952SOL    HW281718   8.426   9.653   2.424 -0.4104 -0.2075  1.3100
24953SOL     OW81719   9.210  11.164   6.396  0.5461 -0.1920  0.3242
24953SOL    HW181720   9.275  11.229   6.422 -0.6535  0.5485  1.6015
24953SOL    HW281721   9.170  11.201   6.317  1.4410 -0.5088 -0.2944
24954SOL     OW81722   8.945   9.493   8.576  0.0570  0.0188  0.1115
24954SOL    HW181723   8.866   9.511   8.627 -0.9467  2.6998 -2.1521
24954SOL    HW281724   8.913   9.478   8.487  2.1095  1.9058 -1.0303
24955SOL     OW81725   0.367   4.343  10.548  0.5656  0.1835  0.0130
24955SOL    HW181726   0.305   4.415  10.534  1.5410  1.2468  0.9680
24955SOL    HW281727   0.404   4.327  10.461  0.2551  0.7683 -0.2351
24956SOL     OW81728  11.209  11.448  11.202 -0.0145 -0.2949  0.0051
24956SOL    HW181729  11.162  11.395  11.137 -1.6787  2.7016 -1.4977
24956SOL    HW281730  11.157  11.439  11.282 -2.5407  1.8017 -1.2447
24957SOL     OW81731   8.786   5.802   0.343 -0.2676  0.0211  0.5933
24957SOL    HW181732   8.836   5.722   0.353 -1.2623 -0.5798  0.9309
24957SOL    HW281733   8.851   5.871   0.337  0.5890 -0.7500  0.8588
24958SOL     OW81734  10.412   2.298   4.059  0.3417  0.5751 -0.1314
24958SOL    HW181735  10.356   2.221   4.069 -0.0129  1.0404  2.1347
24958SOL    HW281736  10.501   2.265   4.070  0.3939  0.1763 -1.5159
24959SOL     OW81737   4.417   6.648   7.249  0.0271 -0.5955 -0.1363
24959SOL    HW181738   4.473   6.696   7.311 -2.8286  2.7271  0.1561
24959SOL    HW281739   4.472   6.637   7.171  2.1331 -0.5617  1.2636
24960SOL     OW81740   1.092   5.537   7.328 -0.0184  0.3222 -0.4319
24960SOL    HW181741   1.039   5.532   7.249 -0.9271 -2.5022  0.2292
24960SOL    HW281742   1.172   5.488   7.306 -0.3511 -0.6298  0.3975
24961SOL     OW81743   2.580   6.733   6.408 -0.0464 -0.3411  0.0651
24961SOL    HW181744   2.615   6.822   6.403 -1.8567  0.3692 -1.1038
24961SOL    HW281745   2.649   6.678   6.370  1.0314  0.5625  0.6681
24962SOL     OW81746   4.779   5.966   6.326  0.3865 -0.4057 -0.0748
24962SOL    HW181747   4.729   5.885   6.330  0.8238 -0.6314  1.1683
24962SOL    HW281748   4.870   5.938   6.322  0.5675  0.0258  0.9210
24963SOL     OW81749   8.719   8.194  11.830  0.0880 -0.0426 -0.3304
24963SOL    HW181750   8.735   8.124  11.894  0.1457  0.1611 -0.1203
24963SOL    HW281751   8.775   8.266  11.859 -1.3318  0.7714  0.5503
24964SOL     OW81752   2.232   6.387   1.852 -0.6121 -0.6444 -0.1912
24964SOL    HW181753   2.185   6.350   1.926  0.4365  2.0712  2.0001
24964SOL    HW281754   2.261   6.472   1.882  2.5400 -0.6491 -2.6855
24965SOL     OW81755  12.464   7.601   2.895 -0.9636  0.1902 -0.3092
24965SOL    HW181756  12.377   7.603   2.936 -0.0204  0.7192  1.7379
24965SOL    HW281757  12.493   7.510   2.907 -1.1408  0.0525 -0.8649
24966SOL     OW81758   6.469   6.288  11.593 -0.0262 -0.2002  0.1749
24966SOL    HW181759   6.375   6.297  11.607 -0.0260  2.6576 -0.9034
24966SOL    HW281760   6.479   6.205  11.547 -2.0579 -0.4573  0.1099
24967SOL     OW81761   7.023   6.966   8.638  0.3272  0.0424 -0.8773
24967SOL    HW181762   7.093   6.932   8.581 -0.1882 -0.9715 -0.9316
24967SOL    HW281763   7.035   7.061   8.636  0.9493 -0.0353 -1.8687
24968SOL     OW81764   8.314  11.089   5.023 -0.6249  0.3277  0.1669
24968SOL    HW181765   8.287  11.101   5.114  2.0743 -0.3318  1.1309
24968SOL    HW281766   8.315  10.994   5.011 -0.8243  0.4050 -0.5478
24969SOL     OW81767   6.466   9.388   9.517  0.8138 -0.1896 -0.2282
24969SOL    HW181768   6.528   9.329   9.474  0.3932 -2.4055  2.0262
24969SOL    HW281769   6.521   9.444   9.572  0.9602 -0.9690  0.4280
24970SOL     OW81770   2.143   8.396  10.167  0.5157  0.0184 -0.2522
24970SOL    HW181771   2.146   8.301  10.158 -1.2846 -0.0168 -0.9228
24970SOL    HW281772   2.186   8.429  10.088 -0.5499 -0.2756 -0.9851
24971SOL     OW81773   9.916  11.291   2.703  0.2175 -0.2030  0.0131
24971SOL    HW181774   9.884  11.263   2.789  0.1908  0.4288  0.2108
24971SOL    HW281775   9.862  11.242   2.641 -1.2737  0.9611  0.3441
24972SOL     OW81776  11.745   5.232  10.518 -0.7159  0.3850 -0.1310
24972SOL    HW181777  11.752   5.154  10.573 -1.0224 -0.8842 -1.8349
24972SOL    HW281778  11.817   5.288  10.547  1.6914 -1.9963 -1.1254
24973SOL     OW81779   8.969  11.421   5.154  0.0432 -0.1364 -0.8874
24973SOL    HW181780   8.935  11.493   5.101  0.3635  0.5366 -0.2020
24973SOL    HW281781   8.917  11.345   5.128 -0.9896  0.5514 -0.9018
24974SOL     OW81782   2.741   8.162   6.506 -0.0267  0.7133  0.1815
24974SOL    HW181783   2.759   8.102   6.578  0.4628  1.2133  0.4780
24974SOL    HW281784   2.828   8.187   6.473 -0.2331  1.0362 -0.1267
24975SOL     OW81785   5.864   2.727  11.870 -0.0115 -0.4709  0.1080
24975SOL    HW181786   5.854   2.791  11.940  0.8538 -0.1774 -0.0259
24975SOL    HW281787   5.901   2.650  11.913 -1.4815 -1.0816  0.3579
24976SOL     OW81788   9.355   3.532   7.960 -0.3419  0.1663  0.2242
24976SOL    HW181789   9.406   3.452   7.963 -0.1803  0.1775 -1.2431
24976SOL    HW281790   9.408   3.592   7.907 -0.9144  0.8947  0.4572
24977SOL     OW81791  12.331   5.619   1.553 -0.2847 -0.6149  0.8249
24977SOL    HW181792  12.422   5.616   1.524 -0.6081  1.7544 -0.7103
24977SOL    HW281793  12.335   5.600   1.647  1.6420 -1.5820  0.5909
24978SOL     OW81794   2.408   4.774  11.491  0.8475 -0.1185  0.8224
24978SOL    HW181795   2.386   4.705  11.553  0.3197 -1.6328 -0.9609
24978SOL    HW281796   2.394   4.856  11.540 -2.0525 -1.1566  1.9647
24979SOL     OW81797   1.545  10.004   9.966  0.4944  0.9003  0.6518
24979SOL    HW181798   1.461   9.974  10.000  0.2272  0.8563 -0.0436
24979SOL    HW281799   1.567  10.080  10.021  1.1874 -0.5154  2.4480
24980SOL     OW81800   9.748  12.115   0.985 -1.3987 -0.4103  0.0937
24980SOL    HW181801   9.783  12.026   0.972  1.0011  0.4954 -0.1901
24980SOL    HW281802   9.712  12.139   0.900 -1.6664 -0.9310  0.0531
24981SOL     OW81803   8.156  12.481   2.449  0.2804 -0.0493  0.6392
24981SOL    HW181804   8.135  12.388   2.437  0.0199  0.0909 -0.0829
24981SOL    HW281805   8.184  12.510   2.362  1.1895  0.3517  1.0565
24982SOL     OW81806   0.179   8.013   2.405  0.2307  0.2133  0.0143
24982SOL    HW181807   0.106   8.034   2.463 -0.6245 -0.4015 -0.8201
24982SOL    HW281808   0.246   7.977   2.463 -1.2797 -2.1223  0.4321
24983SOL     OW81809   9.593  12.284   3.336  0.4431 -0.2493 -0.0312
24983SOL    HW181810   9.663  12.324   3.387  0.1370 -0.7980  0.8303
24983SOL    HW281811   9.633  12.207   3.296  0.1656 -0.9470  1.0117
24984SOL     OW81812   4.526   9.450   8.775 -0.0458  0.3072 -0.1041
24984SOL    HW181813   4.574   9.375   8.811  0.1165  0.8894  0.9266
24984SOL    HW281814   4.584   9.525   8.789 -0.9173  0.9004  0.4765
24985SOL     OW81815   8.415   0.223  11.982 -0.3151  0.0800 -0.2047
24985SOL    HW181816   8.413   0.239  12.077  2.9072 -1.0883  0.1848
24985SOL    HW281817   8.388   0.132  11.973 -0.6463  0.1996 -0.4372
24986SOL     OW81818   2.952   0.997   8.031 -0.2469  0.7488  0.1719
24986SOL    HW181819   3.013   1.041   8.090  0.2492 -0.3989  0.5425
24986SOL    HW281820   3.004   0.979   7.953 -0.2274  0.1265  0.3298
24987SOL     OW81821   8.415   9.012   5.846 -0.0065 -0.1515  0.3830
24987SOL    HW181822   8.481   9.044   5.785 -0.4400  0.2787  0.1263
24987SOL    HW281823   8.333   9.014   5.795 -0.0225 -1.8699  0.2912
24988SOL     OW81824   3.628   6.524   6.556  0.5207  0.3197 -0.3341
24988SOL    HW181825   3.643   6.556   6.645  1.3925  0.3776 -0.4845
24988SOL    HW281826   3.533   6.515   6.548  0.5203 -1.9869  1.3942
24989SOL     OW81827   9.490   3.760   2.698 -0.2044 -0.3539 -0.0604
24989SOL    HW181828   9.406   3.760   2.744 -1.4498  2.6590 -2.0173
24989SOL    HW281829   9.478   3.698   2.626 -1.6815  1.5716 -1.5930
24990SOL     OW81830   3.439   6.352  10.082  0.3874  0.1789 -0.1435
24990SOL    HW181831   3.437   6.406  10.003 -0.2049  1.3593  0.6457
24990SOL    HW281832   3.476   6.408  10.149  1.5984 -1.0645  0.2705
24991SOL     OW81833   8.680   2.407   1.783  0.4648  0.5532  0.3455
24991SOL    HW181834   8.772   2.418   1.806  1.1998 -2.4488 -0.7071
24991SOL    HW281835   8.633   2.421   1.866  1.9876  0.8177  1.1952
24992SOL     OW81836   2.064   8.509   3.359 -0.0992 -0.0172  0.0600
24992SOL    HW181837   2.079   8.570   3.287  2.7238 -1.7972 -1.0315
24992SOL    HW281838   2.002   8.446   3.325 -0.4152  0.3366 -0.0273
24993SOL     OW81839   8.957   3.826   4.819 -0.2788  0.4151 -0.3214
24993SOL    HW181840   9.038   3.877   4.811 -0.8779  2.0929  2.8406
24993SOL    HW281841   8.986   3.737   4.839  0.7616  0.5159 -1.2968
24994SOL     OW81842   5.414   7.756   4.404  0.1324  0.0248  0.2120
24994SOL    HW181843   5.496   7.720   4.371 -0.9526 -1.3513 -1.1369
24994SOL    HW281844   5.399   7.709   4.486  0.8279  0.5328  0.6481
24995SOL     OW81845   9.915   5.609   4.892  0.4455  0.7749  0.1226
24995SOL    HW181846   9.907   5.704   4.898 -0.5236  0.6469  1.1095
24995SOL    HW281847   9.946   5.582   4.979 -0.5074  0.0787  0.2577
24996SOL     OW81848   7.148   4.063   3.646  0.1447  0.0246 -0.7351
24996SOL    HW181849   7.110   4.123   3.582  1.1128  0.8561 -0.5675
24996SOL    HW281850   7.084   4.060   3.718 -0.1657  0.4213 -0.9912
24997SOL     OW81851   2.883   3.939   3.683  0.3108 -0.6310  0.0491
24997SOL    HW181852   2.853   3.915   3.595  1.3556  0.3162 -0.5717
24997SOL    HW281853   2.965   3.892   3.694  1.0057  0.5199 -0.1255
24998SOL     OW81854   4.116   7.172   6.057 -0.3118 -0.3187  0.0743
24998SOL    HW181855   4.178   7.162   6.129 -1.5810 -0.0536  1.2465
24998SOL    HW281856   4.037   7.127   6.086 -0.5517 -1.0601 -1.5799
24999SOL     OW81857   3.204   1.921  11.274 -0.1624 -0.0687  0.0720
24999SOL    HW181858   3.182   1.862  11.202 -0.1044 -1.5693  1.2287
24999SOL    HW281859   3.281   1.882  11.315 -0.0531  0.8724  0.8133
25000SOL     OW81860   9.534   2.930   0.003  0.0183 -0.5471 -0.2634
25000SOL    HW181861   9.534   3.012   0.052  1.2695  0.2797 -1.5621
25000SOL    HW281862   9.460   2.881   0.039 -1.1433  1.3804  0.1411
25001SOL     OW81863   9.891   9.169   7.496 -0.1447  0.0063 -0.0022
25001SOL    HW181864   9.832   9.094   7.493 -0.3045  0.1077 -3.1410
25001SOL    HW281865   9.979   9.131   7.496 -0.2037 -0.3175 -2.6515
25002SOL     OW81866   1.855   0.461   9.159  0.1978  0.1176  0.1984
25002SOL    HW181867   1.762   0.447   9.142  0.0584  1.1567  0.0243
25002SOL    HW281868   1.884   0.382   9.204 -0.3986 -0.9284 -1.1854
25003SOL     OW81869  11.754   5.032  10.707 -0.4768  0.1790  0.6819
25003SOL    HW181870  11.841   5.005  10.734 -0.2506  0.8005  0.5976
25003SOL    HW281871  11.699   5.019  10.784 -0.2894 -0.1207  0.7651
25004SOL     OW81872   2.610   9.717  10.938 -0.4262 -0.3487  0.1446
25004SOL    HW181873   2.703   9.716  10.958 -0.0757 -1.1356 -1.3467
25004SOL    HW281874   2.582   9.806  10.959  0.5249 -0.2635  1.1377
25005SOL     OW81875  10.082   9.055   5.632  0.5420 -0.6718 -0.0779
25005SOL    HW181876  10.032   9.136   5.640 -0.4843 -1.4344  2.5268
25005SOL    HW281877  10.170   9.083   5.607 -0.6120  0.8850 -2.8064
25006SOL     OW81878   7.192  11.472   7.088  0.0505  0.2553  0.1170
25006SOL    HW181879   7.155  11.488   7.175 -0.3372 -1.3073  0.2609
25006SOL    HW281880   7.279  11.435   7.105 -0.8339 -2.0916 -0.0507
25007SOL     OW81881  10.727  11.974  12.424  0.2926  0.6258  0.0464
25007SOL    HW181882  10.650  11.919  12.435  1.0738 -0.6830 -0.7913
25007SOL    HW281883  10.758  11.990  12.514  0.6793 -1.2584  0.3025
25008SOL     OW81884   7.926   7.338  10.034  0.3542  0.0767 -0.6125
25008SOL    HW181885   7.992   7.345  10.102 -1.3106  2.8841  0.8904
25008SOL    HW281886   7.890   7.250  10.045  1.7815 -0.4067  0.4912
25009SOL     OW81887   4.288   4.391  11.217  0.4424  0.2533 -0.1885
25009SOL    HW181888   4.227   4.373  11.146  2.1019 -2.1428 -1.1245
25009SOL    HW281889   4.309   4.484  11.208 -2.3623  0.9620 -0.3189
25010SOL     OW81890   0.645   7.793   7.471 -0.3126  0.0405  0.2885
25010SOL    HW181891   0.594   7.829   7.399 -0.3980 -0.9548 -0.1571
25010SOL    HW281892   0.678   7.710   7.438 -0.7391 -0.6509  1.5583
25011SOL     OW81893   7.062   4.259   9.584 -0.1905  0.5548  0.1437
25011SOL    HW181894   6.982   4.208   9.599 -0.7599  1.4984  0.4103
25011SOL    HW281895   7.132   4.206   9.621 -0.9931  0.7624  2.0527
25012SOL     OW81896   4.993   4.462   3.847 -0.0801  0.1935 -0.0523
25012SOL    HW181897   5.051   4.400   3.891 -1.2327  0.2892  1.6859
25012SOL    HW281898   4.917   4.411   3.822 -0.3184  0.5631 -0.0913
25013SOL     OW81899   3.461   7.168   1.470 -0.2558  0.2099 -0.3531
25013SOL    HW181900   3.519   7.115   1.415 -2.0731  0.0384 -2.2311
25013SOL    HW281901   3.505   7.253   1.475  0.0962  0.1611 -1.9344
25014SOL     OW81902   8.931  12.455   5.350 -0.1370  0.0046 -0.5248
25014SOL    HW181903   9.021  12.488   5.348 -0.6638  1.5884  0.0835
25014SOL    HW281904   8.906  12.460   5.442 -0.9487 -0.0995 -0.7317
25015SOL     OW81905  11.759   4.771   6.683  0.1767  0.1884  0.1814
25015SOL    HW181906  11.742   4.714   6.758  0.7299 -1.2597 -0.7411
25015SOL    HW281907  11.854   4.773   6.675  0.1445  0.8457 -0.0931
25016SOL     OW81908   6.407   3.493   0.866 -0.1966  0.4564 -0.1503
25016SOL    HW181909   6.440   3.560   0.807  0.8502 -0.9516 -1.2244
25016SOL    HW281910   6.466   3.496   0.941  0.3069  0.2425 -0.5352
25017SOL     OW81911  12.376   3.433   0.978  0.1205  0.5686  0.2910
25017SOL    HW181912  12.437   3.390   0.918 -0.5719  2.0763 -1.6073
25017SOL    HW281913  12.430   3.494   1.028  0.9132 -1.5629  2.1985
25018SOL     OW81914   2.387   9.453   4.592 -0.4324  0.0741 -0.1386
25018SOL    HW181915   2.410   9.530   4.540 -1.1599 -0.5898 -1.4918
25018SOL    HW281916   2.294   9.437   4.572 -0.6431 -0.4029  1.1163
25019SOL     OW81917   3.161  11.994  10.177  0.6630 -0.1870  0.3876
25019SOL    HW181918   3.079  12.009  10.224 -0.0708 -1.0018 -0.5850
25019SOL    HW281919   3.169  11.898  10.175  0.9442 -0.1488 -0.6794
25020SOL     OW81920   1.301   8.114   7.417 -0.0893  0.1292  0.1826
25020SOL    HW181921   1.353   8.093   7.340 -0.2996 -1.6073  0.4782
25020SOL    HW281922   1.347   8.072   7.490 -0.0014  1.5741  1.0067
25021SOL     OW81923   5.612   3.846   1.841  0.4247 -0.5220 -0.5355
25021SOL    HW181924   5.541   3.853   1.777  2.2758  0.0480 -2.6732
25021SOL    HW281925   5.638   3.937   1.857  1.3618 -0.7592 -0.6522
25022SOL     OW81926   5.062   7.960   5.057  0.9022  0.4995 -0.7301
25022SOL    HW181927   5.108   8.042   5.077  1.4263  0.0007  0.1477
25022SOL    HW281928   4.993   7.986   4.995  1.7807  1.4105 -1.3549
25023SOL     OW81929   1.850   5.452  10.580 -0.0154  0.0415 -0.2749
25023SOL    HW181930   1.844   5.457  10.484  0.5185 -0.6714 -0.3523
25023SOL    HW281931   1.826   5.361  10.600 -0.5178  0.2960  0.3044
25024SOL     OW81932   8.732   7.592   2.007  0.1628 -0.0068  0.0273
25024SOL    HW181933   8.807   7.541   1.977  0.6457  0.4319  0.4680
25024SOL    HW281934   8.762   7.683   2.003  0.0702  0.0976  1.3161
25025SOL     OW81935   0.678   9.831   5.019  0.2748 -0.0203 -0.1988
25025SOL    HW181936   0.610   9.881   5.064  0.6772  2.0064 -1.6476
25025SOL    HW281937   0.633   9.789   4.946  0.0075 -1.5097  0.7969
25026SOL     OW81938   8.493   9.912   9.919 -0.1782 -0.3056  0.3154
25026SOL    HW181939   8.423   9.967   9.885  1.6504  2.1643  0.1983
25026SOL    HW281940   8.530   9.963   9.991  1.2854 -1.6550  0.5817
25027SOL     OW81941  10.063   0.036   4.453  0.7589  0.1133  0.6764
25027SOL    HW181942  10.038   0.115   4.502  0.6179  0.1562  0.5368
25027SOL    HW281943  10.098  -0.023   4.519  1.6067  0.5926  0.6771
25028SOL     OW81944   8.075   5.155   3.105  0.5360 -0.1654  0.1775
25028SOL    HW181945   8.040   5.141   3.017  2.2776 -0.2022 -0.5439
25028SOL    HW281946   8.103   5.247   3.105  0.6379 -0.1955  0.6478
25029SOL     OW81947   0.386   8.642   3.254 -0.2024 -0.3286 -0.5978
25029SOL    HW181948   0.313   8.658   3.195 -1.1244 -0.2827  0.5295
25029SOL    HW281949   0.397   8.723   3.302 -0.4289 -0.8307  0.3222
25030SOL     OW81950   4.199   3.073   9.456  0.1408 -0.5141  0.2262
25030SOL    HW181951   4.196   3.105   9.366  2.6919  0.1200  0.2869
25030SOL    HW281952   4.234   2.984   9.449 -0.5179 -0.8076  0.5441
25031SOL     OW81953   6.898   4.287   0.126  0.3063  0.5345  0.1189
25031SOL    HW181954   6.875   4.372   0.090  0.3733  0.1862 -0.7550
25031SOL    HW281955   6.868   4.224   0.061 -1.5110 -0.2403  1.5794
25032SOL     OW81956   2.125   0.283   2.733  0.2117 -0.3106 -0.6554
25032SOL    HW181957   2.063   0.349   2.701  1.6012  1.3414 -0.0863
25032SOL    HW281958   2.176   0.259   2.655  1.3772  1.2213 -0.4061
25033SOL     OW81959   2.384  11.470   0.995 -0.0527  0.1661  0.2942
25033SOL    HW181960   2.347  11.442   1.079  1.1328  0.1640  0.8287
25033SOL    HW281961   2.417  11.390   0.955  1.2990  0.4390  0.8049
25034SOL     OW81962   8.922   6.984   7.115 -0.2512  0.5137 -0.4082
25034SOL    HW181963   8.950   6.916   7.054  1.2510 -0.5410  1.3641
25034SOL    HW281964   8.852   6.944   7.166 -2.2525  1.7443 -2.0170
25035SOL     OW81965   8.600   9.248   1.122 -0.0862  0.4117 -0.5286
25035SOL    HW181966   8.584   9.342   1.112 -1.1218  0.3534  0.4359
25035SOL    HW281967   8.550   9.223   1.199 -0.3128 -1.0598 -1.1197
25036SOL     OW81968   1.335   9.172  12.358  0.3022  0.5276  0.4477
25036SOL    HW181969   1.288   9.089  12.357  0.4671  0.4136 -1.6689
25036SOL    HW281970   1.388   9.168  12.437  0.4616 -1.4767  0.2894
25037SOL     OW81971  11.018   4.843  11.099 -0.7570  0.3197  0.0924
25037SOL    HW181972  11.020   4.777  11.030  0.8786  0.0205  0.4001
25037SOL    HW281973  10.963   4.804  11.168  0.6684 -1.0223  0.5294
25038SOL     OW81974   1.299   3.066   0.562  0.5460  0.0240 -0.3949
25038SOL    HW181975   1.274   2.979   0.533 -1.5081  1.0551 -1.9497
25038SOL    HW281976   1.231   3.092   0.624  1.0638  0.5807 -0.0392
25039SOL     OW81977   3.770   5.743   9.487  0.9204 -0.0203  0.0041
25039SOL    HW181978   3.773   5.838   9.499  0.3695 -0.1345  1.2464
25039SOL    HW281979   3.854   5.721   9.448  0.9341  1.0131 -0.5793
25040SOL     OW81980  12.234  11.902   6.712 -0.0252  0.4463 -0.1495
25040SOL    HW181981  12.177  11.979   6.713  1.8193  2.0421 -3.0591
25040SOL    HW281982  12.245  11.882   6.619  1.0521 -2.2161  0.4719
25041SOL     OW81983   9.413  11.311  12.477 -0.0141 -0.3309 -0.7863
25041SOL    HW181984   9.458  11.312  12.392 -1.4459  0.8982 -1.5907
25041SOL    HW281985   9.322  11.291  12.455 -0.8025  1.8081  0.2042
25042SOL     OW81986   4.234   1.403   1.249  0.0680 -0.1437 -0.3868
25042SOL    HW181987   4.190   1.320   1.265  0.0051 -0.2582 -1.0883
25042SOL    HW281988   4.177   1.469   1.287 -1.8839 -0.0769 -3.1286
25043SOL     OW81989   2.438   6.392   6.088  0.0127  0.0416 -0.4897
25043SOL    HW181990   2.462   6.433   6.005 -0.4772 -2.1715 -1.7717
25043SOL    HW281991   2.405   6.306   6.065 -0.7592 -0.4085  1.9663
25044SOL     OW81992   1.568  11.485   9.832 -0.6082  0.4074 -0.0390
25044SOL    HW181993   1.635  11.473   9.899 -1.0715  2.4643  0.8922
25044SOL    HW281994   1.595  11.428   9.759  2.1399  1.1475  0.2922
25045SOL     OW81995  12.385   7.538   5.507 -0.0465 -0.0963  0.3426
25045SOL    HW181996  12.461   7.596   5.501 -0.5658  0.4915 -1.2084
25045SOL    HW281997  12.310   7.595   5.489 -0.6845 -0.9952  0.0721
25046SOL     OW81998   1.867  10.661  10.743  0.5683 -0.5507  0.1676
25046SOL    HW181999   1.798  10.611  10.788  0.7535 -0.7600  0.2182
25046SOL    HW282000   1.929  10.595  10.713  1.1258 -0.3130  0.7555
25047SOL     OW82001   5.025   5.733   2.326 -0.0485 -0.2186 -0.2002
25047SOL    HW182002   4.936   5.764   2.340 -0.2607 -1.0144  0.2655
25047SOL    HW282003   5.055   5.781   2.248 -0.3389  1.1608  0.5094
25048SOL     OW82004   2.925   3.884   0.314 -0.7510 -0.2318  0.0083
25048SOL    HW182005   2.931   3.836   0.231  1.5944  0.6909 -0.4561
25048SOL    HW282006   3.003   3.856   0.362 -2.5804 -1.5551  2.4512
25049SOL     OW82007   3.629  10.196   1.512  0.9409 -0.1761  0.1478
25049SOL    HW182008   3.535  10.186   1.526  1.0677 -0.5302  0.7638
25049SOL    HW282009   3.655  10.267   1.572  0.7669  1.1141 -1.2583
25050SOL     OW82010   1.696  11.937   1.770 -0.2589 -0.2059 -0.0779
25050SOL    HW182011   1.743  11.858   1.743 -1.5079 -1.9976  2.5369
25050SOL    HW282012   1.604  11.909   1.773 -0.5314  0.7150  2.6782
25051SOL     OW82013   5.973   9.192  12.261 -0.0064 -0.3486 -0.5099
25051SOL    HW182014   6.061   9.170  12.291  0.0378  2.8129  2.3039
25051SOL    HW282015   5.915   9.145  12.322 -0.0930  0.7345  0.2766
25052SOL     OW82016  10.196   6.250   6.108  0.6955 -0.2943 -0.1404
25052SOL    HW182017  10.203   6.339   6.073  1.7635 -0.3701 -0.1389
25052SOL    HW282018  10.251   6.251   6.186 -0.6854 -0.4763  0.8803
25053SOL     OW82019   0.381   1.209  10.514  0.1386 -0.2003  0.0324
25053SOL    HW182020   0.361   1.303  10.511  1.5902  0.1507  0.4442
25053SOL    HW282021   0.322   1.174  10.581  0.4746  0.6711  0.8046
25054SOL     OW82022   2.249   3.009   1.295  0.3663  0.0683 -0.4670
25054SOL    HW182023   2.178   3.055   1.340  0.5070  0.4146 -0.5908
25054SOL    HW282024   2.271   3.066   1.221 -1.5597 -1.6583 -2.4965
25055SOL     OW82025   7.090   4.711   9.965  0.1642 -0.1342  0.2094
25055SOL    HW182026   7.184   4.705   9.983  0.2043 -0.7119 -0.1711
25055SOL    HW282027   7.049   4.654  10.031  0.0109  0.6694  0.8370
25056SOL     OW82028  10.030   6.313   9.806  0.1098 -0.1983 -0.4418
25056SOL    HW182029  10.057   6.398   9.771  1.7034 -0.6927 -0.4851
25056SOL    HW282030  10.053   6.250   9.737  1.6926 -0.9809  0.7423
25057SOL     OW82031  12.408  12.197   3.175  0.5228  0.2336 -0.1995
25057SOL    HW182032  12.456  12.209   3.094  2.5357 -0.6006  0.8071
25057SOL    HW282033  12.471  12.158   3.235 -1.7223 -1.9779  0.8809
25058SOL     OW82034   9.853   0.115  10.801  0.4924 -0.5974  0.7422
25058SOL    HW182035   9.834   0.174  10.874 -0.9548 -0.4832  0.3086
25058SOL    HW282036   9.912   0.165  10.744  1.0143 -0.3998  1.4473
25059SOL     OW82037   3.779   0.796   6.827  0.1444 -0.1722 -0.4917
25059SOL    HW182038   3.825   0.721   6.790  2.8094  0.5979  0.9778
25059SOL    HW282039   3.848   0.860   6.845 -1.9652  2.4896 -1.2491
25060SOL     OW82040   4.034   7.224   7.689 -0.5305  0.3999  0.6786
25060SOL    HW182041   4.075   7.221   7.776  0.7322  1.8468  0.1741
25060SOL    HW282042   4.099   7.268   7.634 -1.6374  0.2004 -0.8253
25061SOL     OW82043  11.589   8.087   4.053  0.1475  0.4718 -0.6914
25061SOL    HW182044  11.601   8.002   4.011 -1.4960  0.5155 -1.3144
25061SOL    HW282045  11.505   8.080   4.099  1.3548  0.8166  1.7109
25062SOL     OW82046   9.029   1.788   7.276  0.7391 -0.3035  0.3010
25062SOL    HW182047   9.079   1.758   7.200  3.2274  1.6832  1.0198
25062SOL    HW282048   9.094   1.826   7.334 -1.5875  2.2995  1.4320
25063SOL     OW82049  10.788   6.231   2.704 -0.0169  0.4274  0.1141
25063SOL    HW182050  10.710   6.230   2.760 -0.0754 -0.9442  0.0274
25063SOL    HW282051  10.753   6.231   2.615  0.0890  0.5508  0.0727
25064SOL     OW82052   9.720   6.174   8.910  0.6655  0.1917  0.9737
25064SOL    HW182053   9.712   6.157   8.816 -2.7501 -2.0461  1.4836
25064SOL    HW282054   9.728   6.269   8.916 -0.5677  0.5565 -1.5481
25065SOL     OW82055   6.526   9.729   6.851  0.1858 -0.3657  0.3465
25065SOL    HW182056   6.485   9.724   6.764  0.3157 -0.3265  0.2824
25065SOL    HW282057   6.570   9.814   6.851 -0.3194 -0.1072  0.6754
25066SOL     OW82058   6.119  12.253   1.469  0.3394  0.4724 -0.6507
25066SOL    HW182059   6.060  12.273   1.396  1.4532 -0.9008 -1.9995
25066SOL    HW282060   6.207  12.265   1.432  0.9425 -0.7543  0.3095
25067SOL     OW82061   5.809   7.998   3.504 -0.0912 -0.5909  0.1619
25067SOL    HW182062   5.873   7.946   3.455  0.6224 -0.7862  1.2624
25067SOL    HW282063   5.856   8.079   3.526  0.5740 -1.5751  2.7696
25068SOL     OW82064   5.570  10.909  11.296 -0.0545  0.0140 -0.5929
25068SOL    HW182065   5.634  10.969  11.337 -2.0006  0.2942  2.3530
25068SOL    HW282066   5.495  10.965  11.277 -0.8642 -1.0030 -0.4105
25069SOL     OW82067   7.881   4.228   2.378 -0.2901  0.2314  0.4374
25069SOL    HW182068   7.880   4.135   2.400 -0.2076  0.4056  1.2043
25069SOL    HW282069   7.847   4.232   2.288  0.5932 -0.6266  0.0442
25070SOL     OW82070   3.273  11.354   4.330 -0.7609  0.0142  0.1927
25070SOL    HW182071   3.304  11.361   4.240 -2.4843  0.0452 -0.4357
25070SOL    HW282072   3.186  11.314   4.322 -0.2980 -1.5089  1.9744
25071SOL     OW82073  10.879   6.801   9.659  0.5567  0.3330  0.2212
25071SOL    HW182074  10.952   6.794   9.720  0.9715  1.2614 -0.1455
25071SOL    HW282075  10.894   6.883   9.612 -1.3882  1.2230  1.0230
25072SOL     OW82076   0.358   1.670   0.076  0.2623  0.3480  0.2544
25072SOL    HW182077   0.316   1.619   0.006  0.1258  0.9621 -0.1138
25072SOL    HW282078   0.313   1.641   0.156  0.6227 -0.5761  0.1355
25073SOL     OW82079   4.059   0.706  11.938  0.2710  0.0448 -0.2822
25073SOL    HW182080   4.152   0.722  11.927  0.4006  0.9290  1.6679
25073SOL    HW282081   4.054   0.634  12.001 -0.3514  0.2035 -0.1337
25074SOL     OW82082   4.999   6.558   8.741 -0.6099  0.1893 -0.4605
25074SOL    HW182083   5.069   6.577   8.804  0.2284 -0.3676 -1.2015
25074SOL    HW282084   4.919   6.558   8.794 -0.3618  2.9485  0.0553
25075SOL     OW82085   2.558   8.797   1.448 -0.3198  0.4817  0.3843
25075SOL    HW182086   2.549   8.736   1.375 -0.7588  0.4885  0.4282
25075SOL    HW282087   2.649   8.828   1.443 -0.2684  0.2731  0.0097
25076SOL     OW82088   8.527   3.565   6.248 -0.4679  0.1022 -0.2575
25076SOL    HW182089   8.620   3.543   6.259 -0.4000  1.0255  1.4282
25076SOL    HW282090   8.515   3.571   6.154  1.3397  0.5394 -0.5030
25077SOL     OW82091   0.010   9.889   3.355 -0.2030 -0.0984  0.7080
25077SOL    HW182092   0.051   9.878   3.269 -0.7038  1.5604  0.2334
25077SOL    HW282093   0.027   9.980   3.378 -1.0138 -0.2301  1.8794
25078SOL     OW82094   1.431  10.478   0.949 -0.0490 -0.7435  0.1953
25078SOL    HW182095   1.444  10.487   0.854  0.3493 -0.5279  0.2663
25078SOL    HW282096   1.484  10.549   0.986 -1.5270  0.2487  0.5033
25079SOL     OW82097   9.196   4.836  10.966  0.1221  0.5959  0.3517
25079SOL    HW182098   9.134   4.909  10.963  1.3464  1.7033  1.0203
25079SOL    HW282099   9.147   4.765  11.007 -0.4308  1.7521  1.7883
25080SOL     OW82100   6.620   9.395   0.225 -0.2574  0.3238  0.2521
25080SOL    HW182101   6.552   9.449   0.266 -0.1224  0.4521  0.3059
25080SOL    HW282102   6.572   9.321   0.187 -0.4822  0.6375 -0.0885
25081SOL     OW82103   6.292   6.850   6.051  0.0648 -0.3459 -0.5442
25081SOL    HW182104   6.228   6.783   6.076  1.0170 -0.0733  3.3281
25081SOL    HW282105   6.374   6.801   6.039  0.9169 -0.0319  2.9431
25082SOL     OW82106   4.368   6.905   2.628 -0.2432  0.1455 -0.0165
25082SOL    HW182107   4.402   6.833   2.682  1.1110 -0.4952 -1.6247
25082SOL    HW282108   4.404   6.984   2.668  1.1580 -0.3533 -0.2404
25083SOL     OW82109   9.997   5.347  12.144 -0.3682  0.1569 -0.0040
25083SOL    HW182110  10.030   5.410  12.208  2.0669  2.3617 -3.0861
25083SOL    HW282111  10.049   5.268  12.159  0.0259  0.5716  0.8604
25084SOL     OW82112  11.704   8.933   8.211  0.4690  0.5963 -0.5887
25084SOL    HW182113  11.693   8.904   8.121 -1.1701 -0.6896 -0.0292
25084SOL    HW282114  11.745   8.858   8.255  1.1347  1.1646 -0.2302
25085SOL     OW82115   4.343   7.304   4.966  0.5272  0.2236  0.2681
25085SOL    HW182116   4.305   7.284   4.881  0.7109 -0.9757  0.4495
25085SOL    HW282117   4.434   7.325   4.948  0.4555  0.4158  0.1256
25086SOL     OW82118   7.155  10.969   3.759  0.1468 -0.2499 -0.0156
25086SOL    HW182119   7.077  11.023   3.751  1.2229  1.2894 -0.4030
25086SOL    HW282120   7.200  11.002   3.837  0.9628 -0.3927 -0.4105
25087SOL     OW82121   7.296   2.224  11.280  0.3761 -0.4541 -0.2072
25087SOL    HW182122   7.311   2.170  11.358 -0.0713  1.9471  1.6508
25087SOL    HW282123   7.202   2.240  11.280  0.5587  0.6620 -0.4746
25088SOL     OW82124   1.256   7.012   1.025 -0.2594  0.5498  0.1825
25088SOL    HW182125   1.317   6.945   1.057 -0.4251  0.0801 -0.4637
25088SOL    HW282126   1.289   7.035   0.939 -2.0978 -1.2202 -1.1128
25089SOL     OW82127  10.407  10.042  11.438 -0.0588 -0.5130 -0.1625
25089SOL    HW182128  10.378  10.063  11.349 -0.1185  0.7027  0.1233
25089SOL    HW282129  10.328  10.051  11.491  0.2034 -0.1494  0.1705
25090SOL     OW82130   9.039   3.440   2.033  0.0740 -0.5831 -0.1012
25090SOL    HW182131   8.972   3.492   1.989  0.2522 -0.0689  0.2233
25090SOL    HW282132   9.106   3.426   1.966 -0.5635 -1.5140 -0.5718
25091SOL     OW82133  10.822  10.127   8.966  0.3162 -0.0287  0.4530
25091SOL    HW182134  10.763  10.197   8.994 -0.2954  0.1900 -1.2810
25091SOL    HW282135  10.910  10.162   8.978  0.0435  0.5433  0.8073
25092SOL     OW82136   5.300  12.352   3.106 -0.0533 -0.7435  0.3392
25092SOL    HW182137   5.331  12.396   3.185 -0.0790 -0.3737  0.1460
25092SOL    HW282138   5.220  12.399   3.081  0.5748 -0.1030 -0.5522
25093SOL     OW82139   8.504   9.293   2.038  0.4985  0.4246 -0.0124
25093SOL    HW182140   8.597   9.302   2.019  0.6813 -1.7955 -0.5008
25093SOL    HW282141   8.461   9.302   1.953  0.6937 -2.4338 -0.5339
25094SOL     OW82142  10.984  10.248   1.154  0.0722 -0.2657  0.3187
25094SOL    HW182143  10.994  10.235   1.249  2.0253 -0.1013  0.1780
25094SOL    HW282144  11.007  10.163   1.116  1.1153  0.1871 -0.0752
25095SOL     OW82145   5.510   9.767   3.850 -0.3271  0.0001 -0.0039
25095SOL    HW182146   5.516   9.685   3.900 -0.5725 -0.5494 -0.8513
25095SOL    HW282147   5.436   9.813   3.889  0.1841  0.1001  0.8730
25096SOL     OW82148   2.698   3.906   5.936 -0.1398 -0.1724  0.4360
25096SOL    HW182149   2.724   3.950   6.017 -0.4289 -0.1427  0.5104
25096SOL    HW282150   2.782   3.887   5.893  0.0161 -0.2197  0.7546
25097SOL     OW82151  11.089   2.827   7.402  0.5046  0.2419 -0.3403
25097SOL    HW182152  11.085   2.854   7.310  2.6239 -0.5877 -0.7317
25097SOL    HW282153  11.167   2.772   7.407 -0.8701 -1.6909  1.4759
25098SOL     OW82154   4.701   7.370  10.476 -0.6070 -0.2865  0.3632
25098SOL    HW182155   4.643   7.346  10.404 -2.8200  2.1074  1.1696
25098SOL    HW282156   4.715   7.289  10.525 -1.6436 -1.3287 -1.0001
25099SOL     OW82157   2.424   6.982  11.250 -0.0364  0.1744  0.2926
25099SOL    HW182158   2.510   6.978  11.208 -0.3775  1.8977 -0.6723
25099SOL    HW282159   2.404   6.892  11.273  2.1655 -0.2309  0.8443
25100SOL     OW82160  12.155   9.206   7.992 -0.0982  0.5103  0.5083
25100SOL    HW182161  12.067   9.218   8.029 -0.4207 -0.9917  0.2929
25100SOL    HW282162  12.150   9.122   7.947  1.6014  0.1836  0.9022
25101SOL     OW82163   9.199   5.397   8.164  0.2708 -0.2025 -0.4905
25101SOL    HW182164   9.179   5.472   8.220  0.8563 -0.5793  0.2609
25101SOL    HW282165   9.123   5.387   8.108 -0.2912  0.2700  0.1706
25102SOL     OW82166   9.843   3.585   3.435 -0.0747 -0.7188 -0.3026
25102SOL    HW182167   9.815   3.501   3.470  0.5528 -1.2548 -1.0582
25102SOL    HW282168   9.829   3.578   3.340  0.1376 -0.0346 -0.3925
25103SOL     OW82169   8.962  10.591   0.472 -0.1675 -0.3896 -0.4536
25103SOL    HW182170   8.926  10.611   0.386  0.1096  0.5231 -0.3687
25103SOL    HW282171   9.052  10.622   0.467  0.2412 -1.5064 -0.2515
25104SOL     OW82172  11.741   5.357   1.089 -0.0711  0.3566 -0.1968
25104SOL    HW182173  11.803   5.377   1.159 -0.0973  0.3167 -0.1631
25104SOL    HW282174  11.794   5.360   1.009  0.2899 -1.1285 -0.0408
25105SOL     OW82175   2.365  12.002  12.474  0.2487 -0.3083  0.1014
25105SOL    HW182176   2.361  11.927  12.533  1.3832 -2.0134 -1.8621
25105SOL    HW282177   2.353  11.964  12.387  0.9133  1.7917 -0.9654
25106SOL     OW82178   7.900   6.245  10.236  0.2808 -0.1382 -0.1597
25106SOL    HW182179   7.942   6.201  10.162 -0.6934 -1.4753  0.0482
25106SOL    HW282180   7.944   6.207  10.313  0.2992  0.1858 -0.0106
25107SOL     OW82181   3.889  12.104   7.906  0.2853 -0.1794  0.1727
25107SOL    HW182182   3.859  12.176   7.962  1.5537  1.7624 -1.5130
25107SOL    HW282183   3.884  12.139   7.817  2.8326 -1.4571 -0.5708
25108SOL     OW82184   7.888   7.727   3.785  0.2692  0.4817  0.5644
25108SOL    HW182185   7.980   7.703   3.794  0.6057  1.8358  1.0247
25108SOL    HW282186   7.853   7.722   3.874 -0.1856 -0.2816  0.3532
25109SOL     OW82187   0.624  11.572   8.184 -0.0616 -0.3689 -0.2407
25109SOL    HW182188   0.611  11.496   8.127  2.9227 -0.8852 -0.4068
25109SOL    HW282189   0.598  11.647   8.131 -3.7333 -1.1924  0.1555
25110SOL     OW82190   0.520   9.951   0.558  0.5207  0.3517 -0.0791
25110SOL    HW182191   0.513  10.028   0.501 -1.6692  0.7253  0.6034
25110SOL    HW282192   0.470   9.973   0.636  1.4062 -1.0883  0.9586
25111SOL     OW82193   5.463   0.606  12.376  0.0244 -0.2928  0.2486
25111SOL    HW182194   5.513   0.687  12.363  1.3286 -0.8755  1.3486
25111SOL    HW282195   5.436   0.608  12.468 -0.1385 -0.9854  0.2267
25112SOL     OW82196   5.776   1.803  12.364  0.3794 -0.4419  0.7272
25112SOL    HW182197   5.688   1.835  12.382  0.8878  0.7647  1.2461
25112SOL    HW282198   5.799   1.751  12.441 -0.2507 -1.6311  0.1267
25113SOL     OW82199   4.182  11.260  11.031  0.1236 -0.2653 -0.3673
25113SOL    HW182200   4.125  11.189  11.060  1.5848 -1.2795  0.1863
25113SOL    HW282201   4.127  11.338  11.030 -1.0989 -1.0904  0.6822
25114SOL     OW82202   5.422   1.646  11.393 -0.1368 -0.3553 -0.8789
25114SOL    HW182203   5.466   1.570  11.431 -0.7459 -1.0495 -1.5311
25114SOL    HW282204   5.329   1.631  11.410 -0.1660  0.9956  0.3094
25115SOL     OW82205  11.538  11.429   4.617  0.1179  0.5338  0.2841
25115SOL    HW182206  11.482  11.354   4.597  0.2220  0.5894 -0.2485
25115SOL    HW282207  11.534  11.439   4.712 -0.8736  0.6156  0.2353
25116SOL     OW82208  11.454  11.496  11.377 -0.2938 -0.6403  0.4242
25116SOL    HW182209  11.488  11.417  11.336  0.2385 -0.5186  0.6254
25116SOL    HW282210  11.371  11.513  11.332  0.2621 -0.5278 -0.5853
25117SOL     OW82211   1.163   8.816   6.360 -0.3589  0.8532 -0.0657
25117SOL    HW182212   1.143   8.770   6.441 -1.5003  0.0444 -0.7735
25117SOL    HW282213   1.178   8.907   6.386  1.9476  0.1387  1.3612
25118SOL     OW82214   5.927   1.473   1.214 -0.0682 -0.4222  0.4855
25118SOL    HW182215   5.859   1.418   1.175  0.1896  0.4257 -1.2718
25118SOL    HW282216   5.962   1.523   1.140  1.8313 -0.1623  1.5092
25119SOL     OW82217   8.008   5.190  11.454  0.2189  0.4397 -0.0944
25119SOL    HW182218   7.946   5.204  11.382  0.1803  1.7786  0.1720
25119SOL    HW282219   7.959   5.214  11.533  0.6473  0.1620  0.2578
25120SOL     OW82220   4.834   7.533   5.085  0.1812  0.1859  0.7618
25120SOL    HW182221   4.855   7.560   4.996 -0.0463  1.2584  1.0201
25120SOL    HW282222   4.844   7.438   5.084  1.9368  0.3411  0.0609
25121SOL     OW82223   8.341   3.913   9.891 -0.0722 -0.0270 -0.7400
25121SOL    HW182224   8.356   3.948   9.978 -0.8882 -1.8206  0.1796
25121SOL    HW282225   8.428   3.902   9.854  0.5383 -2.0506  1.0738
25122SOL     OW82226   4.316  11.993   5.477  0.5071 -0.2409 -0.3104
25122SOL    HW182227   4.340  12.041   5.556 -0.5081 -0.3381  0.0676
25122SOL    HW282228   4.242  11.938   5.503 -0.8040  0.7963 -1.6576
25123SOL     OW82229   8.629   7.396   1.823 -0.1433  0.3068  0.3971
25123SOL    HW182230   8.710   7.351   1.844  0.2001  0.0531 -1.2789
25123SOL    HW282231   8.631   7.476   1.876  1.7126  0.8111 -0.3528
25124SOL     OW82232   5.375   2.634  11.152  0.4809  0.1520  0.2599
25124SOL    HW182233   5.318   2.563  11.122  0.4171  0.9596 -1.7132
25124SOL    HW282234   5.316   2.709  11.162  0.8618  0.4498  0.2795
25125SOL     OW82235   2.163   5.317   8.329 -0.1985  0.0090  0.1708
25125SOL    HW182236   2.157   5.245   8.391  0.8308  0.4260  0.7933
25125SOL    HW282237   2.237   5.369   8.361 -0.7112  1.1559 -0.4515
25126SOL     OW82238   6.125  10.653   0.733  0.2036 -0.1412 -0.4810
25126SOL    HW182239   6.047  10.683   0.687  1.0155  1.7447 -0.7068
25126SOL    HW282240   6.167  10.733   0.764  2.1087 -1.1043 -0.4452
25127SOL     OW82241  11.381   0.929   6.884  0.5309 -0.3195 -0.8557
25127SOL    HW182242  11.378   0.997   6.816  1.4283 -0.1518 -0.7472
25127SOL    HW282243  11.474   0.905   6.888  0.2332 -1.4813 -0.8183
25128SOL     OW82244   1.015   4.082  10.663  0.3364  0.0720  0.4117
25128SOL    HW182245   1.025   3.987  10.666 -1.1877 -0.1231 -0.1673
25128SOL    HW282246   1.033   4.111  10.753  3.3066 -0.4287  0.1014
25129SOL     OW82247   8.087   3.350   1.290  0.3645 -0.4182 -0.6756
25129SOL    HW182248   8.084   3.290   1.215  0.3858  0.7795 -1.6627
25129SOL    HW282249   8.046   3.301   1.361  2.4466 -2.4892 -0.7874
25130SOL     OW82250   7.115   7.833   1.282 -0.1414  0.3793 -0.0305
25130SOL    HW182251   7.188   7.834   1.220  1.0033  0.0508  1.2608
25130SOL    HW282252   7.123   7.916   1.330 -1.5343  1.0345 -0.8406
25131SOL     OW82253   4.610  12.007   2.961 -0.1190 -0.5965  0.6947
25131SOL    HW182254   4.657  11.937   2.915 -0.7459 -0.0194 -0.8978
25131SOL    HW282255   4.678  12.052   3.011  0.7643 -0.7575 -0.3177
25132SOL     OW82256  11.658   3.636  11.220  0.1606  0.3571 -0.5340
25132SOL    HW182257  11.644   3.722  11.260  0.9560  0.6803 -0.9089
25132SOL    HW282258  11.578   3.588  11.237  0.2326  0.7062  0.8679
25133SOL     OW82259  11.498   0.705   1.756  0.7308  0.3828  0.1418
25133SOL    HW182260  11.585   0.667   1.765 -0.3582 -1.9572  2.1032
25133SOL    HW282261  11.443   0.652   1.814 -1.9243  2.0414 -0.6823
25134SOL     OW82262   4.234   8.693   7.475 -0.0618  0.0079  0.1946
25134SOL    HW182263   4.191   8.690   7.389  0.4544  1.9027 -0.1560
25134SOL    HW282264   4.162   8.705   7.537 -0.1852  3.3008 -0.3983
25135SOL     OW82265  10.205   5.828   4.982  0.8506 -0.2138  0.2085
25135SOL    HW182266  10.268   5.900   4.985 -0.6287  1.0912  1.3582
25135SOL    HW282267  10.203   5.794   5.071 -2.3549  1.9185  1.1117
25136SOL     OW82268   5.348  10.584   7.145  0.0948  0.2172 -0.0175
25136SOL    HW182269   5.279  10.634   7.100  0.0077 -0.5728 -0.7870
25136SOL    HW282270   5.358  10.505   7.092  2.0897  0.6250 -0.3349
25137SOL     OW82271  12.424   9.320   8.849  0.0732  0.1457  0.1922
25137SOL    HW182272  12.457   9.235   8.818 -0.4565 -0.3449  0.9400
25137SOL    HW282273  12.490   9.383   8.819  0.3110 -0.4807 -0.6525
25138SOL     OW82274   3.490   8.746   3.284 -0.1431  0.0846  0.0583
25138SOL    HW182275   3.472   8.836   3.255 -0.7440  0.0813  0.4016
25138SOL    HW282276   3.414   8.696   3.256  0.9462 -0.6870 -1.6402
25139SOL     OW82277   4.476   2.314   5.786  0.6231  0.7919  0.3167
25139SOL    HW182278   4.568   2.317   5.757  1.4800 -0.8697  2.6093
25139SOL    HW282279   4.470   2.383   5.852  0.8973 -0.5687  1.8116
25140SOL     OW82280   9.531   6.557   2.814 -0.5981  0.0584  0.4114
25140SOL    HW182281   9.534   6.652   2.827 -0.6361  0.2537 -0.9040
25140SOL    HW282282   9.441   6.533   2.835 -0.3912  0.1847  1.4945
25141SOL     OW82283   0.077   4.201   3.477 -0.0409  0.4324  0.4493
25141SOL    HW182284  -0.008   4.179   3.515 -1.6962  0.5266 -2.8469
25141SOL    HW282285   0.124   4.118   3.473 -1.0866 -0.1469 -0.1370
25142SOL     OW82286   9.595  12.431   3.914  0.0334 -0.5236 -0.5564
25142SOL    HW182287   9.614  12.387   3.997 -1.9065 -1.5360 -0.5715
25142SOL    HW282288   9.509  12.471   3.928  1.5015  2.9508 -0.7302
25143SOL     OW82289  10.944   8.451   9.979  0.1618  0.3875  0.3023
25143SOL    HW182290  10.965   8.422  10.068 -0.7923 -0.4731  0.2659
25143SOL    HW282291  11.011   8.517   9.959  0.9134 -0.0344  1.3211
25144SOL     OW82292   6.283   3.175  11.223 -1.0605  0.3826  0.0604
25144SOL    HW182293   6.250   3.224  11.299 -2.6622  1.2794 -1.1526
25144SOL    HW282294   6.250   3.223  11.148  1.4552  0.1819 -1.2768
25145SOL     OW82295   2.424   7.725   5.773 -0.5260 -0.3128  0.3764
25145SOL    HW182296   2.479   7.766   5.840  0.4318  0.6631 -0.9435
25145SOL    HW282297   2.405   7.638   5.808  0.8444 -0.2380  1.4258
25146SOL     OW82298   1.711   0.399  11.594 -0.6566  0.1701  0.5435
25146SOL    HW182299   1.654   0.323  11.603 -0.3294 -0.3220 -1.1487
25146SOL    HW282300   1.665   0.457  11.532 -0.8238  1.2931  1.6740
25147SOL     OW82301   7.876   3.143   0.486  0.4918 -0.1067 -0.2298
25147SOL    HW182302   7.864   3.070   0.546  0.0456  0.3555  0.2591
25147SOL    HW282303   7.953   3.120   0.434 -0.0568 -1.2539 -0.5735
25148SOL     OW82304  10.432   6.725   8.939  0.6099 -0.3524  0.6110
25148SOL    HW182305  10.432   6.793   9.006 -1.0027  0.8406 -0.5217
25148SOL    HW282306  10.339   6.710   8.920  0.9700 -1.9491 -0.0987
25149SOL     OW82307   2.087   9.944   0.527 -0.2882  0.0227 -0.6229
25149SOL    HW182308   2.082   9.857   0.489  0.2829 -0.6601  0.7854
25149SOL    HW282309   2.043   9.937   0.611  1.5703  0.5134  0.4494
25150SOL     OW82310   7.540   8.627   1.322  0.2423 -0.0762 -0.0340
25150SOL    HW182311   7.553   8.550   1.377  0.3451 -0.7629 -0.9907
25150SOL    HW282312   7.539   8.700   1.383  1.1953 -0.7276  0.8017
25151SOL     OW82313   7.399   9.758  10.098  0.3202 -0.0635 -0.2015
25151SOL    HW182314   7.363   9.799  10.176  0.2658  0.1087 -0.3183
25151SOL    HW282315   7.344   9.789  10.026  0.0930 -0.5719 -0.2558
25152SOL     OW82316   9.678   2.744   9.084  0.2892  0.1232 -0.4385
25152SOL    HW182317   9.663   2.805   9.156  0.7446 -0.8803  0.5336
25152SOL    HW282318   9.594   2.737   9.039 -0.0026  0.7361  0.0038
25153SOL     OW82319   3.469  10.330   8.600 -0.2716  0.1742  0.1162
25153SOL    HW182320   3.558  10.357   8.576 -1.0268  0.6191 -2.5300
25153SOL    HW282321   3.477  10.238   8.623  1.1941  0.7464  2.2281
25154SOL     OW82322   3.409   4.262   6.631 -0.2501  1.1067 -0.0333
25154SOL    HW182323   3.400   4.178   6.586 -1.2167  1.2394 -0.1183
25154SOL    HW282324   3.407   4.327   6.560 -0.3773  1.2451  0.0964
25155SOL     OW82325   4.306   1.817   8.457 -0.6038 -0.0473  0.3762
25155SOL    HW182326   4.234   1.823   8.394 -0.1576 -0.0992 -0.1520
25155SOL    HW282327   4.373   1.876   8.422 -0.7384  0.6912  1.3403
25156SOL     OW82328  11.610   5.024   6.086 -0.1044 -0.2940  0.6649
25156SOL    HW182329  11.595   4.989   5.998  1.0215  1.0236 -0.0884
25156SOL    HW282330  11.699   5.059   6.083  0.3917 -1.2106  2.6741
25157SOL     OW82331   2.549   6.316   4.469  0.4046 -0.1246  0.2195
25157SOL    HW182332   2.573   6.327   4.377  1.6059  1.3958  0.6823
25157SOL    HW282333   2.531   6.404   4.500 -1.2969 -0.7473  1.1434
25158SOL     OW82334  10.800   4.685   8.924  0.3399  0.1401 -0.0007
25158SOL    HW182335  10.837   4.744   8.858  0.3135 -0.5387 -0.6450
25158SOL    HW282336  10.719   4.652   8.883  0.4451 -0.4663  0.2701
25159SOL     OW82337   4.461   7.783  10.910 -0.0432  0.2108 -0.1686
25159SOL    HW182338   4.438   7.794  10.818 -1.9025  1.5665  0.3906
25159SOL    HW282339   4.376   7.773  10.954  0.7130  1.0481  1.5560
25160SOL     OW82340   8.828   7.307   9.015 -0.0175 -0.2740 -0.6413
25160SOL    HW182341   8.822   7.295   9.110 -1.0620  1.4611 -0.4458
25160SOL    HW282342   8.738   7.296   8.984  0.0858  0.4778 -1.2375
25161SOL     OW82343   2.963   2.436   9.124 -0.0085  0.4082  0.2028
25161SOL    HW182344   2.949   2.507   9.186 -0.0253 -0.8323  1.6735
25161SOL    HW282345   2.903   2.454   9.052 -1.1750  1.0383  1.2956
25162SOL     OW82346   4.680  11.524   8.497 -0.3264 -0.3991  0.0901
25162SOL    HW182347   4.612  11.540   8.563  0.4510  1.3695  0.5474
25162SOL    HW282348   4.697  11.430   8.501 -1.9287 -0.6887  0.7604
25163SOL     OW82349   7.921  10.066  10.834 -0.4129 -0.5115 -0.3489
25163SOL    HW182350   7.918   9.972  10.815 -2.6501 -0.2415 -1.7042
25163SOL    HW282351   7.916  10.108  10.748 -2.0585  0.8131  0.3353
25164SOL     OW82352   1.981   9.031   8.366  0.7481  0.5051 -0.0608
25164SOL    HW182353   1.909   8.970   8.381  2.7184 -1.5829  1.7858
25164SOL    HW282354   1.971   9.096   8.436  0.5944  0.2973  0.1135
25165SOL     OW82355   4.271   2.837   9.143  0.2266 -0.1708  0.1736
25165SOL    HW182356   4.187   2.856   9.185 -0.7024  1.4627 -2.1903
25165SOL    HW282357   4.246   2.801   9.057  2.0004 -1.6633  0.2252
25166SOL     OW82358  11.291   7.704   6.004  0.2924 -0.3692  0.1792
25166SOL    HW182359  11.347   7.743   6.071  0.4096 -1.1139  0.5168
25166SOL    HW282360  11.222   7.659   6.053  1.4654 -2.5910 -0.1120
25167SOL     OW82361   5.329   4.256   4.505 -0.3199  0.4442  0.0869
25167SOL    HW182362   5.243   4.229   4.473 -0.0914 -0.1474 -0.0395
25167SOL    HW282363   5.327   4.236   4.598  0.2483 -1.1389 -0.1977
25168SOL     OW82364  12.058   9.314   7.355  0.3192 -0.0858 -0.4549
25168SOL    HW182365  12.093   9.230   7.384 -0.9521 -0.7808 -0.8613
25168SOL    HW282366  12.025   9.298   7.267  0.0171  0.8285 -0.5241
25169SOL     OW82367   5.477   1.207   8.752 -0.0397 -0.5869 -0.1421
25169SOL    HW182368   5.551   1.261   8.780  0.4250 -1.1640 -0.2076
25169SOL    HW282369   5.488   1.125   8.801 -0.5406 -0.7436 -0.2848
25170SOL     OW82370   8.782   1.132  12.031  0.0178  0.7818 -0.5998
25170SOL    HW182371   8.838   1.158  11.957  1.0604 -1.2067 -0.5717
25170SOL    HW282372   8.817   1.180  12.106 -0.3515  1.9702 -1.1620
25171SOL     OW82373   8.677   5.907  10.735 -0.0993 -0.3356  0.4120
25171SOL    HW182374   8.711   5.825  10.700  1.7517  0.7158 -0.4464
25171SOL    HW282375   8.752   5.947  10.780 -0.2358  1.8821 -1.1557
25172SOL     OW82376  11.325   2.073  10.301  0.5609  0.0700  0.2008
25172SOL    HW182377  11.263   2.028  10.243  0.4213 -1.0039  1.1492
25172SOL    HW282378  11.278   2.150  10.331 -0.2254 -0.5684  0.6598
25173SOL     OW82379   7.653   5.325   4.886 -0.3393 -0.1370 -0.1255
25173SOL    HW182380   7.578   5.339   4.944 -1.1855 -0.8583 -1.0133
25173SOL    HW282381   7.620   5.344   4.799  1.4675  3.0281 -0.2759
25174SOL     OW82382  10.097   2.044  10.490 -0.7485 -0.1534 -0.2615
25174SOL    HW182383  10.122   2.130  10.458 -0.6502 -0.1738 -0.2404
25174SOL    HW282384  10.004   2.037  10.470 -0.7423 -0.0683 -0.3216
25175SOL     OW82385   2.405  10.160   9.811  0.5357 -0.1489 -1.1055
25175SOL    HW182386   2.351  10.144   9.733 -0.2588 -2.0373 -0.2228
25175SOL    HW282387   2.365  10.236   9.853  0.0075 -0.0953 -1.6976
25176SOL     OW82388   3.961   1.405  12.028 -0.2166  0.1727  0.4061
25176SOL    HW182389   3.986   1.426  11.938 -1.7894 -2.0360 -0.6338
25176SOL    HW282390   3.999   1.319  12.044 -1.9504 -0.5318  0.9401
25177SOL     OW82391  11.898   6.599   8.796  0.7006  0.2550  0.1926
25177SOL    HW182392  11.858   6.620   8.712  0.6514 -2.4593 -0.5692
25177SOL    HW282393  11.992   6.611   8.781  0.6390  0.5324  0.0086
25178SOL     OW82394   4.794   2.506   7.365  0.3172 -0.5133  0.3433
25178SOL    HW182395   4.760   2.419   7.343  0.4874  0.1828 -3.2197
25178SOL    HW282396   4.888   2.500   7.348  0.6401 -0.0806  1.8463
25179SOL     OW82397  10.157   3.907   5.884  0.0322 -0.2971 -0.5501
25179SOL    HW182398  10.069   3.871   5.894  0.2462 -0.3529  1.6016
25179SOL    HW282399  10.155   3.991   5.930  1.1033 -0.3111 -0.4445
25180SOL     OW82400   0.391   5.911   6.794  0.1654 -0.0258  0.5977
25180SOL    HW182401   0.321   5.960   6.751  0.4410 -1.9204 -2.3218
25180SOL    HW282402   0.457   5.977   6.815  0.3416  1.0742 -2.7619
25181SOL     OW82403   9.316   4.713   1.355  0.0936 -0.0254 -0.5517
25181SOL    HW182404   9.229   4.698   1.319 -0.1890 -0.6572  0.3830
25181SOL    HW282405   9.302   4.725   1.449  0.9339  0.5961 -0.4918
25182SOL     OW82406  10.331   8.750   5.983 -0.0301  0.4731  0.0786
25182SOL    HW182407  10.276   8.819   5.945  0.9577  0.9264 -0.5578
25182SOL    HW282408  10.419   8.787   5.984  0.3072 -0.3170  0.9134
25183SOL     OW82409   3.484  11.475   1.232  0.8933 -0.1762  0.2732
25183SOL    HW182410   3.489  11.569   1.215 -1.3446 -0.4267 -2.4881
25183SOL    HW282411   3.472  11.469   1.327  0.2621  2.3857  0.4429
25184SOL     OW82412   1.065   2.918  10.668 -0.4757  0.3862  0.0229
25184SOL    HW182413   1.142   2.885  10.714 -0.4158  0.0093 -0.3420
25184SOL    HW282414   1.005   2.843  10.666 -1.5800  1.1629  1.8524
25185SOL     OW82415   1.193   2.268   9.464  0.2961  0.1571 -0.0343
25185SOL    HW182416   1.280   2.283   9.428  0.7576  0.7538  1.2813
25185SOL    HW282417   1.153   2.355   9.467  0.2725  0.1269  0.8580
25186SOL     OW82418  10.513   6.808   6.293  0.7055  0.3487 -0.1866
25186SOL    HW182419  10.446   6.839   6.355  1.1584 -0.2967  0.6472
25186SOL    HW282420  10.596   6.836   6.332  0.9232  1.4428 -1.3889
25187SOL     OW82421   6.744   5.148   9.672 -0.6458 -0.2163 -0.6687
25187SOL    HW182422   6.795   5.167   9.594 -0.7294 -1.0867 -0.9446
25187SOL    HW282423   6.664   5.199   9.662  0.7546  2.4965  0.5326
25188SOL     OW82424   8.616   9.763  10.218  0.0245  0.3363 -0.1540
25188SOL    HW182425   8.544   9.812  10.257 -0.5413  0.8886 -1.8210
25188SOL    HW282426   8.574   9.696  10.164  0.7298  0.7315 -1.2350
25189SOL     OW82427   9.440  12.151   8.676  0.2195 -0.0536  0.0869
25189SOL    HW182428   9.503  12.217   8.703 -0.5526  0.9995 -0.5732
25189SOL    HW282429   9.467  12.127   8.587 -0.2561  0.3536 -0.1732
25190SOL     OW82430   6.369   0.982   1.439 -1.0371 -0.0995 -0.2638
25190SOL    HW182431   6.314   0.923   1.386 -0.3137 -0.4841 -0.5986
25190SOL    HW282432   6.443   1.002   1.382 -0.9744  0.6592  0.0798
25191SOL     OW82433   2.058   7.786   5.878 -0.2746  0.3168 -0.0288
25191SOL    HW182434   2.066   7.738   5.795 -0.0860 -0.7186  0.5741
25191SOL    HW282435   2.018   7.870   5.853  0.4708  0.3341 -1.2692
25192SOL     OW82436  11.554   6.859  12.397 -0.9608  0.2633 -0.7822
25192SOL    HW182437  11.544   6.820  12.310  2.3370 -1.8097 -0.4297
25192SOL    HW282438  11.630   6.916  12.389 -0.2523 -0.3921  0.8161
25193SOL     OW82439   9.709   9.493   8.567 -0.0962 -0.3741 -0.3788
25193SOL    HW182440   9.655   9.568   8.589  1.6800  0.4300  1.5422
25193SOL    HW282441   9.782   9.529   8.517  0.3029 -0.9443 -0.2195
25194SOL     OW82442   6.252  12.105   4.467 -0.1255 -0.2323  0.0379
25194SOL    HW182443   6.293  12.147   4.543 -0.9776 -1.0663  1.0033
25194SOL    HW282444   6.282  12.156   4.392  1.4018  0.1262  0.8409
25195SOL     OW82445   4.325   8.554   3.978  0.2719  0.5322  0.1353
25195SOL    HW182446   4.231   8.537   3.984  0.2216  0.7972  0.1185
25195SOL    HW282447   4.333   8.648   3.993  0.3756  0.8054 -1.4867
25196SOL     OW82448   8.384  12.451  11.969 -0.0197 -0.3267 -0.2658
25196SOL    HW182449   8.340  12.407  11.896 -1.0660 -1.5823  1.0734
25196SOL    HW282450   8.471  12.412  11.971  0.3400  0.3801 -1.3964
25197SOL     OW82451  10.710   6.459   5.846 -0.1448 -0.3239 -0.0529
25197SOL    HW182452  10.627   6.473   5.890 -0.2556 -1.1481  0.0161
25197SOL    HW282453  10.705   6.370   5.812  0.7342 -0.4157  0.0199
25198SOL     OW82454  11.286   2.772   6.554 -0.1660 -1.0432  0.4210
25198SOL    HW182455  11.213   2.799   6.609  1.2191  0.9916  1.3812
25198SOL    HW282456  11.288   2.677   6.563 -2.5847 -1.1629  0.4353
25199SOL     OW82457   4.278   7.919   4.612  0.2258 -0.0392  0.3987
25199SOL    HW182458   4.289   7.965   4.529 -0.4086 -0.8663 -0.1622
25199SOL    HW282459   4.188   7.938   4.638  0.1847 -0.3943  0.5186
25200SOL     OW82460   5.356   7.459   5.534  0.1049 -0.1274 -0.2246
25200SOL    HW182461   5.425   7.393   5.532 -0.1529 -0.3938 -0.3233
25200SOL    HW282462   5.345   7.486   5.443  0.5692  0.4291 -0.1214
25201SOL     OW82463   3.762   9.476  10.438  0.4146 -0.6003 -0.2876
25201SOL    HW182464   3.671   9.496  10.457  0.6589 -0.8321  1.2336
25201SOL    HW282465   3.802   9.561  10.417  0.7342  0.2338  3.0580
25202SOL     OW82466   7.667   0.953   3.086 -0.0862 -0.2965 -0.4756
25202SOL    HW182467   7.684   0.859   3.084 -1.6699 -0.6292 -2.1930
25202SOL    HW282468   7.582   0.961   3.129  0.4233  0.4529  0.4211
25203SOL     OW82469   5.612   9.661   7.977  0.0389  0.3516 -0.1564
25203SOL    HW182470   5.640   9.753   7.975  0.8774  0.1157 -2.2737
25203SOL    HW282471   5.541   9.656   7.913 -1.7395 -0.0541  1.7119
25204SOL     OW82472   3.992   6.028   8.316  0.4088 -0.1163  0.3239
25204SOL    HW182473   3.951   6.088   8.378 -0.2643  1.4091 -1.4808
25204SOL    HW282474   3.919   5.992   8.265  0.8300 -2.2866  1.1407
25205SOL     OW82475   2.292   7.930  11.237 -0.0942 -0.3116 -0.4048
25205SOL    HW182476   2.277   8.001  11.299  0.4071 -0.2899 -0.3024
25205SOL    HW282477   2.208   7.885  11.230 -0.3826  0.2219 -0.3839
25206SOL     OW82478  11.811   8.045   8.622  0.0559  0.1193  0.2816
25206SOL    HW182479  11.847   7.956   8.621 -0.0721  0.0693  0.0483
25206SOL    HW282480  11.887   8.102   8.610  0.2664  0.0892  1.3650
25207SOL     OW82481   2.036   8.828   9.513 -0.1902  0.3387 -0.3204
25207SOL    HW182482   2.078   8.846   9.597  0.7018 -0.8711 -0.4760
25207SOL    HW282483   2.011   8.736   9.517  0.3527  0.1134 -1.5634
25208SOL     OW82484   6.233   6.752   8.764 -0.4705 -0.1192 -0.1745
25208SOL    HW182485   6.306   6.746   8.825  0.5550  0.8549 -1.2644
25208SOL    HW282486   6.184   6.671   8.778  0.3595 -0.4337  1.1278
25209SOL     OW82487  10.653  11.894   1.772 -0.1260 -0.0488  0.1163
25209SOL    HW182488  10.650  11.960   1.703 -1.8449 -1.3049 -1.0918
25209SOL    HW282489  10.693  11.939   1.846  0.6279  1.7233 -1.2881
25210SOL     OW82490   9.276  12.238   4.023 -0.0727  0.1642 -0.1399
25210SOL    HW182491   9.370  12.218   4.017 -0.4352 -1.5160 -0.9957
25210SOL    HW282492   9.261  12.252   4.116  0.8399 -0.7234  0.1670
25211SOL     OW82493   0.663  11.949  10.255  0.0444  0.3166 -0.0040
25211SOL    HW182494   0.672  11.897  10.175  0.5411  0.5381 -0.0900
25211SOL    HW282495   0.749  11.988  10.269  0.2683 -0.5477  1.2141
25212SOL     OW82496   4.990   5.390  10.875 -0.1235  0.5491  0.4848
25212SOL    HW182497   5.031   5.393  10.961 -0.1186  1.4552  0.4577
25212SOL    HW282498   5.060   5.408  10.813 -0.0403 -0.5079  0.2438
25213SOL     OW82499   4.953   8.028   0.174 -0.0828  0.2760 -0.2503
25213SOL    HW182500   4.923   8.103   0.122 -0.7039  0.3456  0.1948
25213SOL    HW282501   4.874   7.978   0.191  0.4105 -0.8081 -1.0276
25214SOL     OW82502   6.360   7.425   9.029  0.0964 -0.1011 -0.0889
25214SOL    HW182503   6.440   7.477   9.032 -0.8052  1.3242  0.1822
25214SOL    HW282504   6.321   7.447   8.944 -0.9622  0.7250  0.5962
25215SOL     OW82505   8.680  10.608  10.350  0.2056 -0.7888  0.4569
25215SOL    HW182506   8.641  10.535  10.399  0.5182  0.5316  2.8031
25215SOL    HW282507   8.626  10.615  10.271 -0.8404 -2.5050  0.9620
25216SOL     OW82508   7.937   8.756   4.369 -0.1547 -0.3165 -0.0076
25216SOL    HW182509   7.932   8.807   4.288  0.3830  0.8724  0.6798
25216SOL    HW282510   7.847   8.729   4.385 -0.3100 -0.3298 -0.8573
25217SOL     OW82511   9.941   1.895   4.629  0.6631  0.0980  0.4519
25217SOL    HW182512  10.030   1.902   4.663  0.3190  1.2120  1.1852
25217SOL    HW282513   9.885   1.919   4.703 -0.1769  0.9607 -0.4292
25218SOL     OW82514   8.428   1.154   6.801 -0.3648  0.5090 -0.0466
25218SOL    HW182515   8.428   1.179   6.893  0.6058 -0.2551  0.1737
25218SOL    HW282516   8.369   1.078   6.797  1.6670 -1.1757  0.4699
25219SOL     OW82517   2.514  10.778   6.583 -0.0056  0.1229  0.3388
25219SOL    HW182518   2.541  10.867   6.605  0.4443  0.1343 -0.2373
25219SOL    HW282519   2.444  10.758   6.645  0.3077  0.6502  0.8742
25220SOL     OW82520  10.303   0.448   2.773 -0.1856 -0.1668  0.3612
25220SOL    HW182521  10.338   0.475   2.688  1.8919 -0.7442  0.9791
25220SOL    HW282522  10.260   0.364   2.756 -0.3368  0.0227 -0.2150
25221SOL     OW82523   0.539   8.879   1.393  0.2589 -0.1024 -0.2012
25221SOL    HW182524   0.485   8.883   1.472 -0.0797 -0.6800 -0.3977
25221SOL    HW282525   0.548   8.970   1.365  0.8631  0.1693  0.8262
25222SOL     OW82526   1.489   4.825  10.022  0.0905 -0.1073  0.1338
25222SOL    HW182527   1.414   4.880  10.044  1.4637  2.3336 -0.8438
25222SOL    HW282528   1.549   4.835  10.096  1.0410  1.1266 -0.7582
25223SOL     OW82529   2.383   1.389  10.978 -0.2185  0.2702  0.1307
25223SOL    HW182530   2.424   1.363  10.896 -0.6522 -0.7883  0.2337
25223SOL    HW282531   2.399   1.483  10.984 -0.1737  0.3594 -1.1569
25224SOL     OW82532   6.546   3.317   0.448 -0.0801 -0.0506  0.4000
25224SOL    HW182533   6.555   3.222   0.446 -2.5041 -0.3352 -1.2756
25224SOL    HW282534   6.553   3.340   0.540  1.3919 -1.7179  0.7570
25225SOL     OW82535   4.313  10.383   7.947  0.7709  0.2115  0.3024
25225SOL    HW182536   4.330  10.370   7.854 -1.1719  0.5645 -0.1527
25225SOL    HW282537   4.260  10.307   7.973  2.1783 -0.4404  1.4182
25226SOL     OW82538   7.586   9.744   2.362  0.0051 -0.1100  0.0768
25226SOL    HW182539   7.676   9.747   2.328  0.2528 -1.7343  0.5224
25226SOL    HW282540   7.539   9.689   2.299 -0.3483 -0.3699  0.5663
25227SOL     OW82541   4.377   3.661   0.068 -0.3932  0.4446 -0.1628
25227SOL    HW182542   4.294   3.700   0.095 -0.4007  0.4017 -0.1249
25227SOL    HW282543   4.398   3.704  -0.015 -1.6727 -1.3205 -1.4429
25228SOL     OW82544  12.328   2.005   1.132 -0.2934 -0.4477  1.0538
25228SOL    HW182545  12.315   2.074   1.067 -0.1555  0.2283  1.7323
25228SOL    HW282546  12.240   1.971   1.147 -0.3916 -0.2867  0.8607
25229SOL     OW82547   5.312   1.279   3.920  0.1954 -0.3889  0.2398
25229SOL    HW182548   5.348   1.347   3.977 -0.1671  0.9505 -1.0862
25229SOL    HW282549   5.385   1.252   3.865  0.3946 -1.2585  0.9087
25230SOL     OW82550   8.113   6.775   6.397  0.6837 -0.0669  0.1890
25230SOL    HW182551   8.092   6.801   6.486 -1.1026 -0.1909 -0.1534
25230SOL    HW282552   8.151   6.687   6.405  0.4570 -0.1101  0.8247
25231SOL     OW82553   7.031   9.670   7.921  0.2258 -0.0705 -0.0174
25231SOL    HW182554   7.087   9.634   7.852 -1.1133 -2.6287  0.1048
25231SOL    HW282555   6.978   9.596   7.949 -0.9526  1.4863  2.1215
25232SOL     OW82556   6.856   5.853   3.609 -0.3860 -0.1109  0.0075
25232SOL    HW182557   6.939   5.804   3.611 -1.2835 -1.7478  2.3594
25232SOL    HW282558   6.852   5.889   3.521  0.6154 -3.9754 -1.8717
25233SOL     OW82559   5.215   0.803   0.019  0.1380  0.3137 -0.2120
25233SOL    HW182560   5.273   0.853  -0.039 -2.2379  2.6710 -0.7487
25233SOL    HW282561   5.230   0.841   0.106  2.8125 -2.4010  0.6620
25234SOL     OW82562  10.958   6.749  10.324 -0.7464  0.6158 -0.3531
25234SOL    HW182563  10.969   6.699  10.244  0.8273  0.7728 -0.2776
25234SOL    HW282564  10.985   6.838  10.301  0.5461  0.4836  0.5235
25235SOL     OW82565   5.917  12.436   0.656 -0.2437  0.3454 -0.1675
25235SOL    HW182566   5.953  12.430   0.744 -1.6709  1.2015  0.5071
25235SOL    HW282567   5.932  12.349   0.618  0.9419  0.1651  0.6803
25236SOL     OW82568   3.932   3.848   6.983  0.4416 -0.1023 -0.4239
25236SOL    HW182569   3.869   3.917   7.003  0.7659  0.1524 -0.2809
25236SOL    HW282570   3.912   3.779   7.046  2.1720  1.1279  1.5922
25237SOL     OW82571   3.715   9.857   2.954  0.1902  0.0844  0.1321
25237SOL    HW182572   3.787   9.796   2.940  1.3515  1.4710 -0.2075
25237SOL    HW282573   3.676   9.869   2.867  1.8899  2.0642 -0.4414
25238SOL     OW82574   1.962   7.770   1.498 -0.3690  0.1707  0.4172
25238SOL    HW182575   1.948   7.699   1.436  0.6691 -0.0691  0.4386
25238SOL    HW282576   2.015   7.834   1.450  0.2387  0.0927  0.9569
25239SOL     OW82577   8.723   9.305   2.338  0.6087  0.4134 -0.5436
25239SOL    HW182578   8.636   9.270   2.354  0.5848  0.1443 -1.2176
25239SOL    HW282579   8.782   9.241   2.379  0.6082 -0.9470 -2.5032
25240SOL     OW82580   7.463   9.570   4.834 -0.3071  0.0651 -0.5016
25240SOL    HW182581   7.479   9.616   4.916  1.0740 -1.0752 -0.0847
25240SOL    HW282582   7.475   9.636   4.766  2.0123  0.2831  0.0568
25241SOL     OW82583   5.243   0.638   8.422 -0.5094 -0.1389  0.0119
25241SOL    HW182584   5.263   0.729   8.401 -0.6524  0.1059  0.9166
25241SOL    HW282585   5.328   0.593   8.419 -0.7615 -0.6611 -3.4833
25242SOL     OW82586   5.330   6.488   4.327  0.0918 -0.1343 -0.1567
25242SOL    HW182587   5.425   6.475   4.322 -0.1255 -1.9033 -0.2221
25242SOL    HW282588   5.310   6.480   4.420  0.0412  0.6621 -0.0907
25243SOL     OW82589   6.492  11.972   6.158 -0.2546  0.2068  0.0815
25243SOL    HW182590   6.534  12.026   6.090 -0.8351  1.2307  0.5108
25243SOL    HW282591   6.545  11.988   6.236 -0.6194  0.4008  0.2884
25244SOL     OW82592   6.145   6.558   1.743  0.2025  0.1963 -0.1551
25244SOL    HW182593   6.114   6.521   1.825  0.2703  1.5631  0.5198
25244SOL    HW282594   6.102   6.643   1.737 -0.8116 -0.3833 -2.1841
25245SOL     OW82595   3.927   3.176  11.047 -0.0554  0.3357  0.2231
25245SOL    HW182596   3.885   3.090  11.049 -0.8250  0.7014  0.2828
25245SOL    HW282597   4.010   3.161  11.003  0.3123 -0.6474  1.2160
25246SOL     OW82598   7.089  11.340   1.887  0.2943 -0.4497  0.0841
25246SOL    HW182599   7.154  11.293   1.834  1.1690 -0.0532  0.7842
25246SOL    HW282600   7.109  11.432   1.872 -0.5998 -0.3052 -0.2764
25247SOL     OW82601   2.921   8.802   4.490 -0.6782  0.5103 -0.3034
25247SOL    HW182602   2.929   8.897   4.490  1.0188  0.3941 -0.7334
25247SOL    HW282603   2.928   8.777   4.398  0.6642 -0.1318 -0.0465
25248SOL     OW82604   0.221   8.590   2.250  0.1191 -0.5193  0.5251
25248SOL    HW182605   0.143   8.539   2.228  0.9713 -1.5045 -0.3649
25248SOL    HW282606   0.248   8.559   2.336 -1.1572  0.7310  1.4187
25249SOL     OW82607   4.856   8.308   3.279  0.3186  0.3797 -0.0047
25249SOL    HW182608   4.775   8.303   3.229 -0.2321  0.4158  0.8684
25249SOL    HW282609   4.901   8.225   3.261  0.0994  0.3688 -0.5054
25250SOL     OW82610   4.124   3.256   8.728 -0.0498 -0.2012 -0.2353
25250SOL    HW182611   4.177   3.252   8.808 -2.8480  1.3992  1.8675
25250SOL    HW282612   4.052   3.195   8.744 -0.2391 -0.4657 -1.9187
25251SOL     OW82613   1.183   8.730   1.306  0.1039 -0.1441  0.2223
25251SOL    HW182614   1.198   8.754   1.214 -1.7190  0.0871 -0.0478
25251SOL    HW282615   1.089   8.714   1.312 -0.0994  1.3721  2.3885
25252SOL     OW82616   6.651   1.937   2.668  0.0732  0.2478  0.7691
25252SOL    HW182617   6.637   1.904   2.580  0.8899  1.1071  0.2947
25252SOL    HW282618   6.567   1.923   2.713 -1.1425  1.8551 -0.8221
25253SOL     OW82619   3.681   2.954   4.197 -0.2587  1.1200 -0.3352
25253SOL    HW182620   3.608   3.014   4.182 -0.3839  1.6044  1.8865
25253SOL    HW282621   3.753   2.990   4.146 -0.9703  1.8411 -0.8556
25254SOL     OW82622  11.279  12.362   2.543  0.2292 -0.0350  0.2670
25254SOL    HW182623  11.273  12.404   2.457 -0.9302 -0.2497  0.2291
25254SOL    HW282624  11.337  12.287   2.529 -0.9292 -0.7950 -0.6514
25255SOL     OW82625  11.096   4.246   5.206  0.4651 -0.2928 -0.0719
25255SOL    HW182626  11.139   4.199   5.277  1.3623  0.3351 -0.1899
25255SOL    HW282627  11.158   4.244   5.133  0.1093  0.2232 -0.4031
25256SOL     OW82628  10.356   5.497   0.830 -0.3572  0.2839 -0.1550
25256SOL    HW182629  10.449   5.499   0.852 -0.3813 -2.5798  0.6202
25256SOL    HW282630  10.352   5.447   0.748 -1.2316 -0.1148  0.1172
25257SOL     OW82631   7.948  11.793  10.884 -0.1230 -0.9065  0.0942
25257SOL    HW182632   7.965  11.745  10.803 -0.8334  1.1431 -1.3369
25257SOL    HW282633   7.856  11.819  10.877  0.1974  0.5031  0.8930
25258SOL     OW82634   9.200   6.324   2.766  0.0197  0.0758  0.8166
25258SOL    HW182635   9.133   6.276   2.814  1.2493 -1.8604  0.7413
25258SOL    HW282636   9.276   6.323   2.824  0.8857 -0.4650 -0.2787
25259SOL     OW82637  10.362   0.044   2.987 -0.2817  0.1551  0.0702
25259SOL    HW182638  10.312  -0.002   3.054  0.8034 -0.0825  0.7433
25259SOL    HW282639  10.383  -0.023   2.923  0.4266 -0.0760  0.5359
25260SOL     OW82640   4.714   5.060   7.768 -0.0367 -0.2185  0.1934
25260SOL    HW182641   4.801   5.097   7.780  0.0927 -0.6203  0.5021
25260SOL    HW282642   4.654   5.130   7.793  0.1855  0.2592 -0.5729
25261SOL     OW82643   1.699   1.169   3.345 -0.1409 -0.0895 -0.0538
25261SOL    HW182644   1.626   1.117   3.315  0.3169 -0.3142 -0.8006
25261SOL    HW282645   1.739   1.117   3.416 -0.1288 -0.4085 -0.2950
25262SOL     OW82646   3.998   9.407   5.216 -0.5164 -0.1183 -0.6686
25262SOL    HW182647   4.072   9.371   5.265  0.2678  1.1474 -0.8742
25262SOL    HW282648   3.924   9.400   5.276  0.2845  0.7802  0.4636
25263SOL     OW82649   0.426   5.214   5.066 -0.5386  0.0564  0.3196
25263SOL    HW182650   0.416   5.291   5.010 -0.3320  1.9164  2.6758
25263SOL    HW282651   0.338   5.200   5.102 -0.1773  0.4830  1.4200
25264SOL     OW82652   6.383   9.989   2.537  0.3078  0.0898 -0.4179
25264SOL    HW182653   6.317  10.019   2.599  0.3035  1.6038 -1.1209
25264SOL    HW282654   6.345   9.909   2.499 -0.1972 -0.1982  0.6695
25265SOL     OW82655   0.531   5.555   5.277 -0.3433  0.1119 -0.0176
25265SOL    HW182656   0.512   5.643   5.310 -1.1628 -0.3565  0.8085
25265SOL    HW282657   0.465   5.499   5.319 -0.8782 -0.6436 -1.7808
25266SOL     OW82658   4.395   1.703   9.627  0.3662  0.2509  0.2923
25266SOL    HW182659   4.405   1.722   9.534  1.8399  0.6858  0.5021
25266SOL    HW282660   4.412   1.787   9.670  1.2198 -0.2640  1.0001
25267SOL     OW82661  10.222   3.658   0.068 -0.0909  0.7243  0.3886
25267SOL    HW182662  10.238   3.752   0.069 -2.7847  1.5104 -3.7302
25267SOL    HW282663  10.127   3.649   0.078 -0.0447 -1.4232 -0.4101
25268SOL     OW82664   1.149   9.269   7.737  0.1227 -0.2048 -0.1005
25268SOL    HW182665   1.170   9.349   7.784 -0.2604 -0.9915  1.5007
25268SOL    HW282666   1.060   9.283   7.705 -1.1949 -1.0509  2.8223
25269SOL     OW82667  10.736   4.259   3.765  0.3481 -0.1965  0.3068
25269SOL    HW182668  10.750   4.180   3.713 -1.0319 -0.2218 -0.0610
25269SOL    HW282669  10.823   4.284   3.794  1.0589 -0.6463 -1.3258
25270SOL     OW82670   0.975   9.756   4.489  0.2005  0.5307 -0.6965
25270SOL    HW182671   0.941   9.838   4.454 -2.2325 -0.1494 -0.1131
25270SOL    HW282672   0.981   9.771   4.583  1.8600  0.7173 -0.8127
25271SOL     OW82673  11.603  10.838   2.275  0.1629 -0.3942  0.2637
25271SOL    HW182674  11.666  10.788   2.222 -0.3603 -0.9184  0.1304
25271SOL    HW282675  11.538  10.773   2.302 -0.7727  0.2981 -0.2813
25272SOL     OW82676   0.611   3.362   9.413  0.6954  0.0976 -0.2498
25272SOL    HW182677   0.600   3.291   9.349  0.8459  1.8521 -2.3594
25272SOL    HW282678   0.690   3.340   9.461 -1.1441 -2.9401  1.7169
25273SOL     OW82679   6.073   9.979   9.075  0.7353  0.1588  0.0631
25273SOL    HW182680   6.152   9.987   9.129  0.0911 -0.6260  1.1692
25273SOL    HW282681   6.103   9.995   8.985  1.9178  1.0718  0.5952
25274SOL     OW82682   0.070  10.362   6.125 -0.0488  0.1197 -0.0471
25274SOL    HW182683   0.071  10.342   6.218  2.0617 -0.1825 -0.0807
25274SOL    HW282684   0.120  10.291   6.085 -0.6978  0.3829 -1.3832
25275SOL     OW82685   8.542   6.204   2.656  0.1554 -0.3232  0.1289
25275SOL    HW182686   8.469   6.230   2.600  0.9126  1.8808  0.0806
25275SOL    HW282687   8.510   6.126   2.702 -2.6436  1.1328  0.8886
25276SOL     OW82688   6.690   8.085  10.912  0.3359  0.3505  0.4847
25276SOL    HW182689   6.645   8.090  10.996  3.5077 -1.0453  2.4819
25276SOL    HW282690   6.674   7.996  10.881  1.3800 -0.0675  1.0783
25277SOL     OW82691  11.547   9.540  10.952 -0.6493  0.1716  0.4133
25277SOL    HW182692  11.513   9.628  10.934 -1.7191 -0.3728 -0.2802
25277SOL    HW282693  11.510   9.517  11.038 -0.6645  0.2572  0.4294
25278SOL     OW82694  11.963   0.290  10.057 -0.7256 -0.6720 -0.7214
25278SOL    HW182695  12.026   0.284  10.130 -0.8673  2.4448 -0.1934
25278SOL    HW282696  12.018   0.291   9.979 -0.5456 -3.5793 -0.7605
25279SOL     OW82697   2.689   4.473   6.406  0.3057 -0.3249 -0.7421
25279SOL    HW182698   2.718   4.561   6.384  0.8836 -0.2505  0.2441
25279SOL    HW282699   2.737   4.416   6.346 -0.3398  0.0470 -1.6216
25280SOL     OW82700   4.569   2.042   4.368 -0.0351 -0.5360  0.5732
25280SOL    HW182701   4.641   1.999   4.321  1.2617  0.5871  1.4653
25280SOL    HW282702   4.505   2.062   4.299  1.0622 -0.4348 -0.4552
25281SOL     OW82703   8.049   9.295   1.774  0.2380 -0.1521  0.1358
25281SOL    HW182704   8.009   9.293   1.861 -0.4175 -0.2648 -0.1592
25281SOL    HW282705   8.020   9.379   1.737 -3.0378 -1.8319 -1.5698
25282SOL     OW82706   8.359   4.058   5.464  0.1855  0.2998 -0.3031
25282SOL    HW182707   8.381   4.092   5.378 -2.7594  1.3690 -0.7576
25282SOL    HW282708   8.303   3.982   5.447 -1.1186  1.0103  0.5923
25283SOL     OW82709  11.911   2.758   1.381  0.1306 -0.2617  0.3273
25283SOL    HW182710  11.961   2.718   1.310 -0.3152 -0.9755  0.4078
25283SOL    HW282711  11.896   2.848   1.352 -0.5179 -0.6931 -0.7358
25284SOL     OW82712   3.972   0.221  11.911  0.8176  0.0570  0.2222
25284SOL    HW182713   4.007   0.255  11.829  1.1259 -0.2221  0.2361
25284SOL    HW282714   3.983   0.126  11.904  1.2144  0.0623  0.7534
25285SOL     OW82715  12.463  10.425  11.902 -0.3176 -0.7168 -0.0550
25285SOL    HW182716  12.543  10.402  11.856 -1.1565 -1.0457 -1.3927
25285SOL    HW282717  12.404  10.351  11.888 -1.8046  0.6455 -1.4095
25286SOL     OW82718  11.771   8.374   0.226 -0.6507  0.1058 -0.0482
25286SOL    HW182719  11.865   8.356   0.220 -0.5621  0.5681 -0.0624
25286SOL    HW282720  11.731   8.287   0.233 -0.3200 -0.1602 -1.2865
25287SOL     OW82721   1.978   9.146   5.733 -0.2112 -0.6206 -0.2770
25287SOL    HW182722   2.005   9.140   5.825  2.6603  0.7965 -0.9024
25287SOL    HW282723   2.028   9.077   5.690  0.3044  0.2354 -1.0873
25288SOL     OW82724  12.007  10.109   2.847 -0.6047 -0.4480  0.0436
25288SOL    HW182725  12.080  10.145   2.797 -1.8303  0.0296 -1.4811
25288SOL    HW282726  12.038  10.024   2.878  1.0136  0.2680  0.5121
25289SOL     OW82727   6.178  10.296   7.139  0.4538  0.4710 -0.0848
25289SOL    HW182728   6.138  10.353   7.205 -0.7408  0.8821 -1.1130
25289SOL    HW282729   6.107  10.237   7.113  1.6818 -1.5857  1.0036
25290SOL     OW82730   4.958  12.062   0.501 -0.0075  0.1820  0.1426
25290SOL    HW182731   5.044  12.033   0.470  0.2744  0.4359  0.6775
25290SOL    HW282732   4.970  12.154   0.523 -0.8077  0.6511 -1.2284
25291SOL     OW82733   5.814   5.384   4.102 -0.4165 -0.6640 -0.3876
25291SOL    HW182734   5.728   5.352   4.075 -1.3444  1.4887 -0.1960
25291SOL    HW282735   5.805   5.402   4.195  0.7099 -1.7323 -0.0470
25292SOL     OW82736   3.309  10.891  11.955  0.6339  0.3600 -0.0400
25292SOL    HW182737   3.277  10.894  12.046  1.0003  0.0029  0.1024
25292SOL    HW282738   3.364  10.969  11.947  2.0013 -0.5096  0.5804
25293SOL     OW82739   2.093   9.135   8.990  0.5787  0.6700  0.0834
25293SOL    HW182740   2.089   9.099   9.078  1.5635  0.6874  0.1467
25293SOL    HW282741   2.140   9.069   8.939 -1.5292 -0.1825 -0.8878
25294SOL     OW82742   5.826   4.427   7.320 -0.2540 -0.3995 -0.3830
25294SOL    HW182743   5.912   4.436   7.360 -0.1321 -0.1634 -0.6917
25294SOL    HW282744   5.833   4.351   7.263 -0.2629 -0.4046 -0.3771
25295SOL     OW82745   4.504   5.950   4.659  0.4654  0.1064  0.4558
25295SOL    HW182746   4.419   5.942   4.703  0.2684  0.8536  0.2243
25295SOL    HW282747   4.534   5.859   4.647 -0.5115 -0.1887  0.1358
25296SOL     OW82748   2.676   6.578   5.963  0.0075 -0.3356 -0.4304
25296SOL    HW182749   2.707   6.490   5.985 -0.7732 -1.1462 -2.4078
25296SOL    HW282750   2.586   6.565   5.933 -0.2290  1.1993 -0.4680
25297SOL     OW82751   7.096   8.865   1.325  0.2531  0.3105 -0.2779
25297SOL    HW182752   7.007   8.894   1.344  0.4490  0.7542 -0.0294
25297SOL    HW282753   7.085   8.803   1.253 -0.0450  2.1912 -1.9606
25298SOL     OW82754  12.334   3.298  11.563 -0.0376  0.3558 -0.5354
25298SOL    HW182755  12.372   3.373  11.516  1.1766  0.1482  0.0753
25298SOL    HW282756  12.240   3.305  11.547  0.2352  0.9215 -2.0820
25299SOL     OW82757   9.093  11.569   6.107 -0.1744  0.1429  0.1295
25299SOL    HW182758   9.053  11.640   6.158 -1.9943 -2.5625  2.7931
25299SOL    HW282759   9.034  11.557   6.032 -1.1115  0.0394  0.8625
25300SOL     OW82760   9.435   5.979   7.533 -0.0324 -0.0662 -0.8236
25300SOL    HW182761   9.423   5.908   7.595 -1.3818 -0.7262 -1.7898
25300SOL    HW282762   9.524   6.010   7.549 -0.2968 -0.2738  1.3344
25301SOL     OW82763   1.565   9.720   8.829  0.1736  0.1940  0.1397
25301SOL    HW182764   1.506   9.790   8.802  0.5558  0.6943  0.5766
25301SOL    HW282765   1.511   9.641   8.825 -1.4762  0.9879  3.4263
25302SOL     OW82766  12.036  11.796   1.479  0.4394 -0.3209  0.4969
25302SOL    HW182767  11.943  11.780   1.462  0.7752 -0.2156 -1.6510
25302SOL    HW282768  12.063  11.722   1.534 -0.8362 -0.5334  0.8650
25303SOL     OW82769   7.742   4.293   3.279 -0.3853  0.1815 -0.4025
25303SOL    HW182770   7.754   4.358   3.348 -1.9768  0.5876 -0.4663
25303SOL    HW282771   7.800   4.221   3.303 -1.6831 -0.1545  1.9853
25304SOL     OW82772   9.709   2.926   8.231 -0.5529  0.3690  0.1500
25304SOL    HW182773   9.733   2.868   8.304  0.6127 -1.8536 -1.8722
25304SOL    HW282774   9.631   2.886   8.193 -2.2430  2.5071  1.1386
25305SOL     OW82775   0.634   8.168   5.353 -0.1048  0.1993 -0.3900
25305SOL    HW182776   0.695   8.095   5.348 -0.8420 -0.4627 -0.0556
25305SOL    HW282777   0.548   8.126   5.362 -0.9008  1.0149 -3.0318
25306SOL     OW82778   7.591   8.095   7.908 -0.3020 -0.4620  0.2603
25306SOL    HW182779   7.505   8.053   7.899 -1.1895  0.7438  2.5372
25306SOL    HW282780   7.583   8.151   7.985  1.6922  1.7995 -1.0380
25307SOL     OW82781   1.875  10.005   1.332  0.2563 -0.2134  0.4104
25307SOL    HW182782   1.917  10.090   1.320  0.2108 -0.3431 -0.7927
25307SOL    HW282783   1.946   9.945   1.353  0.5266 -0.1940 -0.4103
25308SOL     OW82784   3.603  10.399   1.681  0.3225  0.1513 -0.1293
25308SOL    HW182785   3.532  10.363   1.734 -0.4382  1.2578 -0.3537
25308SOL    HW282786   3.663  10.437   1.745 -0.4144  1.1662 -0.0146
25309SOL     OW82787   4.500   3.565   7.758  0.0554  0.1918 -0.1774
25309SOL    HW182788   4.477   3.476   7.787  0.4499  0.5013  1.1608
25309SOL    HW282789   4.449   3.578   7.678 -0.4440 -1.0319 -0.0786
25310SOL     OW82790   5.086   0.268   8.849  0.0606 -1.0287 -0.0482
25310SOL    HW182791   5.047   0.307   8.928 -0.2786 -0.0312 -0.6881
25310SOL    HW282792   5.011   0.243   8.795  0.2954 -1.1579 -0.3169
25311SOL     OW82793   0.514   6.220   8.669 -0.2473  0.1736 -0.1717
25311SOL    HW182794   0.420   6.235   8.655  0.0744  1.7945 -0.7201
25311SOL    HW282795   0.550   6.307   8.685  0.8279 -0.6267  2.3468
25312SOL     OW82796   1.205  12.171  11.697 -0.2762 -0.0982  0.0979
25312SOL    HW182797   1.110  12.160  11.700 -0.5283  1.1524 -1.9315
25312SOL    HW282798   1.236  12.137  11.781 -2.4137 -1.4029  0.4134
25313SOL     OW82799   9.445   3.317   5.040 -0.6038 -0.3688 -0.4131
25313SOL    HW182800   9.509   3.302   5.109 -1.6954  0.3973  0.8116
25313SOL    HW282801   9.496   3.312   4.959  1.2518  1.3200  0.5464
25314SOL     OW82802  11.146   5.972   5.105  0.9113 -0.1194 -0.3579
25314SOL    HW182803  11.185   5.889   5.078  0.5896 -0.6898  0.8750
25314SOL    HW282804  11.221   6.026   5.130  1.0126 -0.9053  1.1512
25315SOL     OW82805   4.759   0.879   5.482  0.6515  0.5023  0.0755
25315SOL    HW182806   4.820   0.942   5.446  0.7548  1.2599  1.5009
25315SOL    HW282807   4.718   0.924   5.556 -2.1144  0.2528 -1.1909
25316SOL     OW82808   8.153   2.026   9.329  0.0994  0.1906  0.1588
25316SOL    HW182809   8.137   1.980   9.246  0.0691  0.5311 -0.0249
25316SOL    HW282810   8.079   2.086   9.337 -0.5373 -0.6663  1.0161
25317SOL     OW82811   9.210   7.274   3.294  0.2062 -0.0399 -0.0119
25317SOL    HW182812   9.191   7.186   3.326  1.4712 -0.2360  0.2492
25317SOL    HW282813   9.125   7.308   3.266 -0.0626 -1.9699 -1.7599
25318SOL     OW82814  10.830   2.978   7.343 -0.1252 -0.2414 -0.4416
25318SOL    HW182815  10.771   2.964   7.269 -1.0727 -1.0439  0.4447
25318SOL    HW282816  10.894   2.907   7.337 -0.5592 -0.6593 -0.1516
25319SOL     OW82817  12.131  11.888   8.764  0.4383 -0.7653  0.3552
25319SOL    HW182818  12.151  11.982   8.755 -0.5735 -0.6742 -1.1563
25319SOL    HW282819  12.059  11.885   8.827 -1.1524 -0.2773 -1.3532
25320SOL     OW82820   8.399   2.808  11.015 -0.2594  0.2273 -0.0275
25320SOL    HW182821   8.494   2.819  11.021 -0.0813 -1.0652 -0.2148
25320SOL    HW282822   8.372   2.790  11.105 -0.3712  0.8062  0.0612
25321SOL     OW82823   9.015   6.782   2.914  0.1699  0.2907  0.0873
25321SOL    HW182824   8.965   6.861   2.891  0.7288  0.8989  0.9026
25321SOL    HW282825   8.957   6.710   2.891 -0.2689  0.9307 -0.8878
25322SOL     OW82826   4.466   0.213   1.610  0.3296 -0.4768  0.4489
25322SOL    HW182827   4.515   0.274   1.664 -2.0204  2.1305 -0.1610
25322SOL    HW282828   4.378   0.211   1.648  0.0707 -2.8962 -0.0696
25323SOL     OW82829   8.895   2.834   6.283 -0.3379 -0.0423 -0.0590
25323SOL    HW182830   8.838   2.769   6.241  0.6395  0.2024 -1.8712
25323SOL    HW282831   8.917   2.895   6.212 -0.0200  1.4157  1.2533
25324SOL     OW82832   6.864   5.728   6.026  0.0690 -0.1799 -0.6862
25324SOL    HW182833   6.882   5.640   5.996 -1.3342 -0.8954  0.4049
25324SOL    HW282834   6.945   5.758   6.066 -0.0193 -1.8409  0.8579
25325SOL     OW82835   5.317   7.174   3.516  0.2789 -0.3160  0.2339
25325SOL    HW182836   5.257   7.176   3.441 -0.2343  0.8436  0.6439
25325SOL    HW282837   5.374   7.250   3.503  1.2899 -1.0613  0.1666
25326SOL     OW82838   1.410   7.905   0.444  0.1265  0.3603  0.1206
25326SOL    HW182839   1.501   7.904   0.472 -0.0327 -1.2200  0.6983
25326SOL    HW282840   1.379   7.993   0.465  1.6515  1.0933 -0.5905
25327SOL     OW82841   4.670   6.361  12.423  0.1041  0.0298  0.4193
25327SOL    HW182842   4.729   6.307  12.371  0.6631  1.4095 -0.4264
25327SOL    HW282843   4.589   6.310  12.428  0.7822 -1.1214  0.1301
25328SOL     OW82844   5.315   5.525   0.636 -0.2813  0.2416  0.3546
25328SOL    HW182845   5.363   5.578   0.699  1.0627  1.2352 -1.4279
25328SOL    HW282846   5.235   5.500   0.682  0.5121  1.1478  2.3351
25329SOL     OW82847   5.452   1.040   5.553 -0.5670  0.8224  0.3099
25329SOL    HW182848   5.510   1.115   5.544  0.1072  0.3026  0.2933
25329SOL    HW282849   5.481   0.996   5.633 -1.5390  1.0705  0.8189
25330SOL     OW82850   4.862   2.941   1.804  0.3212 -0.0845 -0.1310
25330SOL    HW182851   4.837   2.870   1.745  0.0706  1.4217 -1.9319
25330SOL    HW282852   4.818   2.921   1.887  1.1000 -2.5432 -0.2446
25331SOL     OW82853   1.472   4.294   0.382  0.1899  0.6387 -0.4140
25331SOL    HW182854   1.435   4.273   0.467 -1.5693 -0.4065 -1.3771
25331SOL    HW282855   1.562   4.321   0.401  0.3658 -1.1121  1.6195
25332SOL     OW82856   5.410   1.642   9.944  0.0785  0.3838  0.7250
25332SOL    HW182857   5.388   1.682   9.859  0.8282 -1.8252 -0.5889
25332SOL    HW282858   5.392   1.711  10.008 -1.3615  1.8492 -1.1313
25333SOL     OW82859   8.154   2.893   1.491  0.1938  0.0907 -0.7274
25333SOL    HW182860   8.230   2.841   1.518  0.4260  0.6779 -0.2191
25333SOL    HW282861   8.117   2.925   1.573 -0.0056  0.6413 -1.0268
25334SOL     OW82862   8.150   5.300   0.566 -0.0565 -0.4611 -0.0110
25334SOL    HW182863   8.119   5.230   0.623 -0.7507 -0.4107 -0.3059
25334SOL    HW282864   8.097   5.291   0.487 -0.0514  0.3032 -0.1093
25335SOL     OW82865   5.043   1.199   5.770 -0.0557  0.0707  0.0694
25335SOL    HW182866   5.032   1.105   5.787 -0.9617  0.1211 -0.1833
25335SOL    HW282867   5.106   1.203   5.698 -0.8414 -0.4113 -0.6686
25336SOL     OW82868   4.174   0.694   6.188 -0.4931  0.4539  0.2815
25336SOL    HW182869   4.224   0.691   6.270 -2.7561 -1.3894  1.7378
25336SOL    HW282870   4.098   0.748   6.208 -0.7475  0.5309 -0.8274
25337SOL     OW82871   5.089   4.156   8.475 -0.2635 -0.5921  0.3569
25337SOL    HW182872   5.184   4.160   8.465 -0.4525 -0.8061 -2.2277
25337SOL    HW282873   5.056   4.227   8.419 -1.6241 -0.2456  1.5495
25338SOL     OW82874   7.814   6.708   9.456  0.3212 -0.2526 -0.1798
25338SOL    HW182875   7.769   6.790   9.438 -0.3191 -0.2828  1.1411
25338SOL    HW282876   7.744   6.644   9.465  0.8176 -0.9747 -1.2680
25339SOL     OW82877   9.362   2.035  11.627  0.1965  0.0721 -0.2743
25339SOL    HW182878   9.440   2.027  11.680  1.0106 -0.3664 -1.4943
25339SOL    HW282879   9.325   2.121  11.650  0.6952  0.0210  0.7382
25340SOL     OW82880   7.936   8.688   0.807 -0.3779  0.1864 -0.3644
25340SOL    HW182881   7.863   8.726   0.854  0.3606  0.1271  0.8790
25340SOL    HW282882   7.994   8.653   0.876  0.2143 -0.8721 -1.3493
25341SOL     OW82883  10.086   7.158   2.293 -0.3868  0.6565 -0.1693
25341SOL    HW182884  10.137   7.126   2.219 -0.4663  0.6818 -0.2355
25341SOL    HW282885  10.007   7.195   2.253  0.9946  3.6544 -0.3713
25342SOL     OW82886   9.527   4.509   1.047 -0.4044  0.3316 -0.1518
25342SOL    HW182887   9.516   4.535   0.955  2.3654  1.5910 -0.2142
25342SOL    HW282888   9.608   4.458   1.048 -0.4013  0.3136  1.6069
25343SOL     OW82889   8.231   7.825  10.334 -0.4486 -0.3932  0.2227
25343SOL    HW182890   8.219   7.781  10.250  1.1399  0.5372 -0.5293
25343SOL    HW282891   8.236   7.918  10.312  1.9741 -0.2549  1.0434
25344SOL     OW82892   6.675  10.321  10.102 -0.2274 -0.1162  0.2788
25344SOL    HW182893   6.713  10.357  10.022 -0.9076  0.0182  0.0044
25344SOL    HW282894   6.602  10.380  10.122 -1.7493 -1.6677 -0.5126
25345SOL     OW82895   7.153   6.943  10.533  0.4058  0.2953 -0.4679
25345SOL    HW182896   7.150   6.920  10.626  0.8856 -0.7680 -0.7031
25345SOL    HW282897   7.185   6.864  10.490  1.5172  1.2125 -1.3929
25346SOL     OW82898   5.709   7.307   8.131 -0.0570  0.0500 -0.6214
25346SOL    HW182899   5.718   7.403   8.134 -0.7923  0.1023  0.1635
25346SOL    HW282900   5.618   7.291   8.153  0.1859 -0.8609 -0.2582
25347SOL     OW82901   8.605   2.501  11.131  0.4828 -0.1938  0.1992
25347SOL    HW182902   8.696   2.472  11.138  0.3048 -0.6226  0.7894
25347SOL    HW282903   8.577   2.517  11.221  0.0742  0.2651 -0.0017
25348SOL     OW82904   2.014   7.498   9.711  0.0510 -0.2954 -0.0949
25348SOL    HW182905   1.961   7.574   9.737 -1.8371 -1.4499 -0.4474
25348SOL    HW282906   2.003   7.435   9.782  0.2395 -0.9007 -0.5952
25349SOL     OW82907   5.701   4.312   9.186  0.0686 -0.1985  0.0917
25349SOL    HW182908   5.712   4.352   9.272  2.2146 -3.3709  1.4837
25349SOL    HW282909   5.659   4.228   9.203  0.6823 -0.9815 -1.9095
25350SOL     OW82910   2.901  11.885   8.510 -0.0225 -0.2327 -0.2455
25350SOL    HW182911   2.921  11.921   8.424  0.0492 -2.2361 -1.1053
25350SOL    HW282912   2.959  11.933   8.570  1.2986 -0.1143 -1.5608
25351SOL     OW82913  10.538  12.374  11.454  0.2354  0.1790  0.3522
25351SOL    HW182914  10.489  12.338  11.528  0.1692 -0.0184  0.2140
25351SOL    HW282915  10.563  12.462  11.482 -0.4663  0.3996  0.2935
25352SOL     OW82916   6.941   7.141   7.085 -0.4713 -0.0350  1.2096
25352SOL    HW182917   6.851   7.126   7.056  0.0766 -1.6837  0.1959
25352SOL    HW282918   6.983   7.185   7.012 -0.7595  2.0391  2.2230
25353SOL     OW82919   6.960   1.182   0.824 -0.1500  0.1695 -0.4758
25353SOL    HW182920   7.004   1.265   0.806 -0.4861  0.7250  1.1022
25353SOL    HW282921   7.023   1.133   0.877 -0.3601 -0.1594 -0.5264
25354SOL     OW82922  11.242   5.819   7.751 -0.5389 -0.5798  0.5433
25354SOL    HW182923  11.160   5.865   7.767 -0.5985  1.0511 -3.2251
25354SOL    HW282924  11.216   5.734   7.716 -0.6640 -0.1363 -0.4698
25355SOL     OW82925   3.470   6.623   9.242 -0.2773 -0.1872 -0.6395
25355SOL    HW182926   3.520   6.635   9.161 -2.0567 -1.9180 -2.0864
25355SOL    HW282927   3.437   6.711   9.263  0.5119  0.3574 -1.5740
25356SOL     OW82928   8.143  11.090   8.332 -0.2060 -0.3320  0.0239
25356SOL    HW182929   8.074  11.024   8.335 -0.3056 -0.2097  0.4830
25356SOL    HW282930   8.115  11.157   8.394 -0.0281  0.0695 -0.3215
25357SOL     OW82931   0.159   5.239  10.771 -0.1888  0.0204 -0.2059
25357SOL    HW182932   0.103   5.164  10.751  0.1843 -0.2002 -0.4083
25357SOL    HW282933   0.104   5.294  10.828 -0.6254 -0.1818 -0.4249
25358SOL     OW82934  12.073  10.549   9.341 -0.4876 -0.4326 -0.2936
25358SOL    HW182935  12.065  10.588   9.428  0.2473 -0.6868 -0.1102
25358SOL    HW282936  12.140  10.482   9.351 -0.8939 -0.9342 -0.8941
25359SOL     OW82937  10.095   4.191   4.002 -0.0327  0.8197  0.2105
25359SOL    HW182938  10.036   4.177   3.928  0.5504  0.2954 -0.1617
25359SOL    HW282939  10.086   4.285   4.022 -0.2082  0.9655 -0.5134
25360SOL     OW82940  11.398  12.151   5.856 -0.6743  0.2507  0.0826
25360SOL    HW182941  11.348  12.194   5.787 -1.1370 -1.1858 -0.5160
25360SOL    HW282942  11.483  12.195   5.854 -0.9517  0.7750 -0.8545
25361SOL     OW82943   8.021   5.753  10.470  0.5108  0.4992  0.1850
25361SOL    HW182944   8.100   5.795  10.435  0.9682 -0.7054 -0.2544
25361SOL    HW282945   7.999   5.686  10.406  0.3521 -0.5900  1.3576
25362SOL     OW82946   1.518   0.938  11.158  0.4082 -0.2792 -0.0084
25362SOL    HW182947   1.548   0.861  11.109 -1.2002 -0.5798 -0.5841
25362SOL    HW282948   1.476   0.993  11.092  1.2721  0.9901  0.4496
25363SOL     OW82949   7.852   8.278   2.546 -0.5207 -0.7804  0.1088
25363SOL    HW182950   7.854   8.366   2.508 -0.8180 -0.8109  0.0196
25363SOL    HW282951   7.763   8.269   2.581  0.1826 -0.1773  2.1865
25364SOL     OW82952  11.413  10.795   2.570 -0.8171 -0.8473  0.4367
25364SOL    HW182953  11.402  10.890   2.574 -0.1365 -0.7961  1.4562
25364SOL    HW282954  11.324  10.762   2.556 -1.3550 -0.1432  1.9600
25365SOL     OW82955   6.867   0.463   8.457  0.5990 -0.6392  0.0718
25365SOL    HW182956   6.870   0.457   8.552  0.1530  1.4754  0.2708
25365SOL    HW282957   6.779   0.432   8.434  0.6097 -0.8964  0.3676
25366SOL     OW82958   0.463   0.897  10.159 -0.7751 -0.2703 -0.2337
25366SOL    HW182959   0.484   0.828  10.222 -0.2800 -1.6914 -1.8558
25366SOL    HW282960   0.459   0.851  10.075 -3.3861  1.1658 -1.0231
25367SOL     OW82961   7.445   7.035  11.640 -0.3037 -0.0303 -0.7993
25367SOL    HW182962   7.468   6.945  11.620  2.1361  0.5148 -0.7065
25367SOL    HW282963   7.405   7.031  11.727 -0.9473 -1.0959 -1.1319
25368SOL     OW82964   7.508   3.104   7.823  0.1288 -0.2024 -0.0418
25368SOL    HW182965   7.538   3.162   7.753  1.8641 -1.0789 -0.0955
25368SOL    HW282966   7.571   3.032   7.822 -1.0793 -1.3249  1.0098
25369SOL     OW82967   0.247  12.270  12.371  0.0214 -0.5135  0.3330
25369SOL    HW182968   0.167  12.258  12.422 -0.3684  0.5552  0.0091
25369SOL    HW282969   0.233  12.217  12.293 -0.0252 -0.9677  0.6457
25370SOL     OW82970   1.815   4.925   0.422 -0.5356  0.6653 -0.2103
25370SOL    HW182971   1.770   4.904   0.340 -1.0871 -0.3343  0.3246
25370SOL    HW282972   1.879   4.855   0.432 -0.7261  0.5751  0.3921
25371SOL     OW82973  12.225   6.836   1.107 -0.3352  0.3792 -0.4149
25371SOL    HW182974  12.255   6.775   1.175  0.2889  0.8897 -0.2139
25371SOL    HW282975  12.269   6.806   1.027 -1.3751 -0.4561 -0.6890
25372SOL     OW82976   7.410   9.144   8.576 -0.0756 -0.0380  0.0300
25372SOL    HW182977   7.380   9.054   8.576  1.1529 -0.4647  0.0964
25372SOL    HW282978   7.444   9.158   8.665 -0.5227  0.5843  0.1124
25373SOL     OW82979   8.952  11.969   0.153  0.0617 -0.4218 -0.2056
25373SOL    HW182980   8.901  11.894   0.183  0.3510 -0.6803 -0.3590
25373SOL    HW282981   8.911  11.993   0.070  1.9835 -2.4961 -1.8823
25374SOL     OW82982   3.594   3.291   9.035  0.3832  0.0074 -0.0930
25374SOL    HW182983   3.561   3.268   8.949  2.2824  1.0625 -1.1669
25374SOL    HW282984   3.545   3.369   9.060  0.3732  0.1546 -0.5708
25375SOL     OW82985   7.867   3.263  10.103  0.2036  0.0130  0.1208
25375SOL    HW182986   7.833   3.323  10.037 -1.7719 -1.0073  0.1411
25375SOL    HW282987   7.885   3.182  10.055  1.4985  0.1432  0.3488
25376SOL     OW82988   8.021   4.943   3.261 -0.2942 -0.6542 -0.0663
25376SOL    HW182989   7.925   4.944   3.262 -0.3326 -1.1579 -1.2795
25376SOL    HW282990   8.046   5.012   3.200  0.1528 -0.1614  0.6499
25377SOL     OW82991   0.378   8.617   4.802  0.3015  0.4465  0.0978
25377SOL    HW182992   0.355   8.658   4.719 -0.6897  1.5431  0.8830
25377SOL    HW282993   0.441   8.678   4.842 -0.5378  0.7989  0.9026
25378SOL     OW82994   6.769   4.027   3.321  0.0380 -0.6800 -0.1058
25378SOL    HW182995   6.771   4.063   3.232 -0.3864  0.2802  0.2535
25378SOL    HW282996   6.772   3.932   3.309 -2.6683 -0.7156 -1.2814
25379SOL     OW82997   6.360   1.493  10.913  0.6088 -0.4637  0.1256
25379SOL    HW182998   6.338   1.586  10.917  0.0998 -0.5391 -0.6634
25379SOL    HW282999   6.442   1.486  10.963 -0.1006  0.1487  1.4270
25380SOL     OW83000   9.008   8.333   7.291  0.0977  0.0937  0.4287
25380SOL    HW183001   9.002   8.423   7.258  1.2414  0.3771  0.9271
25380SOL    HW283002   8.942   8.328   7.359 -0.5545  0.2857 -0.1768
25381SOL     OW83003   3.251   2.861  10.067  0.0230  0.3515 -0.0361
25381SOL    HW183004   3.265   2.814   9.985  1.5681 -0.1489  0.4771
25381SOL    HW283005   3.312   2.935  10.063  0.0096  0.4082  0.6019
25382SOL     OW83006   9.662   9.501   3.906  0.0778  0.5213  0.0879
25382SOL    HW183007   9.587   9.453   3.871  0.0725  0.5455  0.0661
25382SOL    HW283008   9.737   9.464   3.861  0.0455  0.7435 -0.1483
25383SOL     OW83009   8.418  10.765  10.639  0.1957  0.2142 -0.1231
25383SOL    HW183010   8.471  10.829  10.686 -0.4089  0.4006  0.3174
25383SOL    HW283011   8.328  10.793  10.652 -0.2211 -1.6083  1.5069
25384SOL     OW83012   6.793   1.234  10.224  0.2831  0.1068 -0.3039
25384SOL    HW183013   6.784   1.169  10.154  0.1083  0.2763 -0.4419
25384SOL    HW283014   6.776   1.185  10.304  1.7299 -0.3725 -0.2623
25385SOL     OW83015  11.597   6.205   9.699  0.1853  0.4792  0.2650
25385SOL    HW183016  11.691   6.220   9.688 -0.1017  1.5350 -1.1701
25385SOL    HW283017  11.557   6.255   9.628 -1.3467 -1.8503 -0.6133
25386SOL     OW83018   7.581  11.416   3.287 -0.3411  0.6814  0.2850
25386SOL    HW183019   7.578  11.511   3.278 -0.7815  0.6816  0.4389
25386SOL    HW283020   7.508  11.385   3.234  0.6545  0.3408 -0.9521
25387SOL     OW83021   1.040   4.050   1.700  0.6842  0.3146  0.8968
25387SOL    HW183022   0.970   3.985   1.706  1.5354 -0.8507 -0.9445
25387SOL    HW283023   1.079   4.052   1.788  0.4825 -1.5158  1.0616
25388SOL     OW83024   1.153   6.628   8.259  0.6703 -0.6549  0.2097
25388SOL    HW183025   1.223   6.631   8.193  1.4190 -0.4760  0.9892
25388SOL    HW283026   1.165   6.708   8.310 -0.7995 -0.0671 -0.3174
25389SOL     OW83027   7.850   1.509   4.298 -0.3713 -0.2821  0.6782
25389SOL    HW183028   7.930   1.548   4.333 -0.3706  0.5122 -0.1622
25389SOL    HW283029   7.867   1.503   4.203 -1.3131 -0.1135  0.4972
25390SOL     OW83030   9.065   7.527  11.851 -0.7017  0.2516 -0.3002
25390SOL    HW183031   9.056   7.593  11.921  0.0904  0.3623 -0.2924
25390SOL    HW283032   9.157   7.533  11.824 -0.6406 -0.7776 -0.3747
25391SOL     OW83033   9.302   9.866   2.380  0.0433  0.5193  0.3233
25391SOL    HW183034   9.286   9.808   2.453  1.2444  0.5606  0.6454
25391SOL    HW283035   9.218   9.909   2.364 -0.0510  1.1394  2.2290
25392SOL     OW83036   9.221  11.831  10.401 -0.1741 -0.0289 -0.2050
25392SOL    HW183037   9.127  11.826  10.414 -0.0207 -0.9585  0.6568
25392SOL    HW283038   9.254  11.744  10.424  1.2046  1.0429  2.4466
25393SOL     OW83039   3.804   4.806   0.925  0.3088 -0.1815  0.4291
25393SOL    HW183040   3.847   4.721   0.912 -0.7541 -0.2643 -3.7190
25393SOL    HW283041   3.720   4.784   0.966  1.5583 -0.5974  2.9852
25394SOL     OW83042   3.076  11.678   6.656  0.0534  0.0848 -0.5184
25394SOL    HW183043   3.107  11.594   6.691 -2.5944 -0.2064  1.4028
25394SOL    HW283044   3.003  11.654   6.599  0.1966  1.0339 -1.1185
25395SOL     OW83045   8.638   7.954   1.872  0.1613 -0.4166  0.1325
25395SOL    HW183046   8.665   7.989   1.788 -0.5164  0.6912  0.3640
25395SOL    HW283047   8.648   8.027   1.933 -0.7326 -0.7712  0.7314
25396SOL     OW83048   6.895   4.956   0.101 -0.0794 -0.2176  0.2767
25396SOL    HW183049   6.931   5.026   0.047 -0.3605 -0.2226  0.0831
25396SOL    HW283050   6.935   4.969   0.187  1.4244 -1.0151 -0.2685
25397SOL     OW83051   0.365   9.845   7.739  0.8365  0.0218 -0.0366
25397SOL    HW183052   0.431   9.910   7.763 -0.9271  1.4705  1.2010
25397SOL    HW283053   0.302   9.893   7.686 -2.1227  0.3314  3.3454
25398SOL     OW83054   6.260   9.488  10.081  0.8098  0.4304 -0.4006
25398SOL    HW183055   6.291   9.495  10.172  1.5022 -0.1908 -0.5830
25398SOL    HW283056   6.337   9.460  10.032  0.1199 -0.5213 -0.9725
25399SOL     OW83057  10.543   1.990   7.459  0.6019 -0.2275 -0.1798
25399SOL    HW183058  10.505   1.936   7.389 -0.9242 -0.0779  0.4946
25399SOL    HW283059  10.554   1.930   7.533 -0.7429  0.2707  0.4492
25400SOL     OW83060  11.459  10.735   3.998 -0.4562  0.3645 -0.0370
25400SOL    HW183061  11.526  10.691   4.051  0.2900  1.7150  0.1701
25400SOL    HW283062  11.500  10.816   3.969 -2.0220  1.2698  0.1617
25401SOL     OW83063   8.066   2.477   5.731  0.0183 -0.1275  0.1376
25401SOL    HW183064   7.982   2.511   5.760  0.7468  1.3535  0.6443
25401SOL    HW283065   8.051   2.384   5.717 -1.9671  0.2798 -0.8261
25402SOL     OW83066  11.540   0.475  10.903 -0.0416 -0.4831  0.1254
25402SOL    HW183067  11.624   0.430  10.899  0.1931 -0.1169  0.7428
25402SOL    HW283068  11.494   0.448  10.823  0.6447 -0.7173 -0.1972
25403SOL     OW83069   5.457   9.397   7.361  0.3842  0.2771 -0.1145
25403SOL    HW183070   5.429   9.368   7.274 -0.2345  2.5616 -0.7286
25403SOL    HW283071   5.451   9.318   7.415  0.4300 -1.1137 -2.0400
25404SOL     OW83072   2.928  10.022   6.925 -0.1364 -0.0749  0.4087
25404SOL    HW183073   3.018  10.018   6.956  0.7610  2.4777 -1.5186
25404SOL    HW283074   2.878   9.975   6.992  2.3078  0.3812  2.7493
25405SOL     OW83075   7.667   8.001  11.547 -0.3612  0.2285  0.0602
25405SOL    HW183076   7.582   8.015  11.590 -0.9418 -1.0260 -0.6353
25405SOL    HW283077   7.669   8.066  11.477 -0.9120  0.0397 -0.1358
25406SOL     OW83078  10.196   0.681   3.106  0.3380 -0.2315  0.2343
25406SOL    HW183079  10.135   0.712   3.039  1.3860 -0.0137 -0.6550
25406SOL    HW283080  10.224   0.594   3.075 -0.2734 -0.7706  1.1528
25407SOL     OW83081   4.116   3.838   4.410  0.2636  0.0076  0.1334
25407SOL    HW183082   4.035   3.883   4.433 -0.4055 -0.0281 -2.0019
25407SOL    HW283083   4.185   3.898   4.440 -0.5522  3.4111 -3.7660
25408SOL     OW83084   3.240   2.353   9.288  0.3369 -0.4185  0.3709
25408SOL    HW183085   3.203   2.294   9.354  0.8491 -1.6545 -0.4123
25408SOL    HW283086   3.182   2.345   9.213 -0.5601  1.4108  0.8105
25409SOL     OW83087   0.551  10.369   6.126  0.7231 -0.6348  0.4905
25409SOL    HW183088   0.522  10.361   6.217  0.4803  0.4454  0.5200
25409SOL    HW283089   0.627  10.427   6.130 -0.4588  1.0333 -0.1886
25410SOL     OW83090   3.612   1.423   0.976 -0.0943  0.1067 -0.1815
25410SOL    HW183091   3.609   1.477   1.055  0.6465  1.3317 -0.9635
25410SOL    HW283092   3.527   1.377   0.975 -0.2275  0.2999  1.1499
25411SOL     OW83093   7.435  10.368   4.471 -0.3260 -0.1987  0.1106
25411SOL    HW183094   7.369  10.360   4.540  1.4528  0.4746  1.9958
25411SOL    HW283095   7.511  10.322   4.506  0.6756  0.2772 -1.3645
25412SOL     OW83096   5.596   4.646   7.026 -0.4506 -0.5942  0.1628
25412SOL    HW183097   5.656   4.677   6.957 -1.6465  0.2596 -0.5262
25412SOL    HW283098   5.647   4.654   7.106  0.9148 -1.4247 -0.5818
25413SOL     OW83099  10.633  12.003   0.766  0.6429  0.3871 -0.3592
25413SOL    HW183100  10.713  12.049   0.740 -0.6884  1.9060 -1.9683
25413SOL    HW283101  10.576  12.072   0.800  0.1992 -0.7702  1.4021
25414SOL     OW83102   9.124   9.120   9.452  0.3324 -0.1809  0.3833
25414SOL    HW183103   9.175   9.116   9.372 -0.5168  0.0119 -0.1863
25414SOL    HW283104   9.041   9.077   9.430 -0.4988  1.1956  0.6875
25415SOL     OW83105   4.779   6.772  11.728 -0.3598  0.4274  0.7766
25415SOL    HW183106   4.764   6.770  11.822  1.0879 -1.2719  1.0325
25415SOL    HW283107   4.844   6.703  11.712  0.2975  1.4174 -1.3164
25416SOL     OW83108  11.613   7.899   9.007 -0.4624 -0.2373 -0.4824
25416SOL    HW183109  11.567   7.816   8.992 -0.0682 -0.4768 -0.3857
25416SOL    HW283110  11.600   7.949   8.927 -2.3869  0.4276  0.1643
25417SOL     OW83111   5.744   1.801   4.149  0.0952 -0.3793  0.1438
25417SOL    HW183112   5.648   1.812   4.148  0.2286  0.9119 -0.7749
25417SOL    HW283113   5.774   1.859   4.219  0.1391 -1.8516  1.4149
25418SOL     OW83114  10.362  11.955   4.943 -0.0956 -0.2775 -0.1669
25418SOL    HW183115  10.433  11.966   4.880  0.9724  0.0627  1.0658
25418SOL    HW283116  10.379  12.020   5.010 -1.8265  0.0984 -0.0448
25419SOL     OW83117   9.675   9.235   2.848 -0.4972 -0.0578  0.3236
25419SOL    HW183118   9.622   9.314   2.844  0.8868  0.9879  1.6644
25419SOL    HW283119   9.730   9.240   2.770 -0.7608  0.0352  0.1403
25420SOL     OW83120   0.838   2.577   0.621  0.2125  0.2197  0.0948
25420SOL    HW183121   0.883   2.648   0.576  0.1330 -0.8220 -1.7079
25420SOL    HW283122   0.748   2.609   0.634  0.5219  0.9356  0.4917
25421SOL     OW83123   4.877   5.283   2.121 -0.0887 -0.0573  0.0140
25421SOL    HW183124   4.854   5.255   2.210  0.6177 -0.0321  0.2142
25421SOL    HW283125   4.967   5.251   2.109 -0.0988  0.1383 -0.6091
25422SOL     OW83126   5.201   9.522   6.491  0.3105 -0.3216  0.1152
25422SOL    HW183127   5.295   9.537   6.500  0.0850  0.7232  0.8914
25422SOL    HW283128   5.194   9.434   6.454  1.5977 -0.2051 -0.4452
25423SOL     OW83129   0.018  11.166   1.877  0.3686  0.0610  0.3498
25423SOL    HW183130  -0.041  11.116   1.933  0.0528 -0.4418 -0.4032
25423SOL    HW283131   0.013  11.256   1.910 -0.7051 -0.0066  0.4031
25424SOL     OW83132   7.052  10.720  12.021  0.2941  0.5302 -0.1493
25424SOL    HW183133   6.983  10.755  12.078 -0.5655  1.4133 -1.6653
25424SOL    HW283134   7.017  10.635  11.992  0.8211 -0.0150  0.7402
25425SOL     OW83135  11.475   6.177   7.654 -0.0934 -0.1114 -0.2961
25425SOL    HW183136  11.501   6.213   7.568 -1.2435 -0.1779 -0.6832
25425SOL    HW283137  11.497   6.084   7.649  2.1774  0.3214  0.4269
25426SOL     OW83138   9.367   7.730   9.674 -0.3720 -0.3586  0.0027
25426SOL    HW183139   9.396   7.818   9.653 -0.7400 -0.1995  0.1542
25426SOL    HW283140   9.404   7.675   9.605 -1.2498  0.0940 -0.8537
25427SOL     OW83141   8.175   9.164   4.574  0.0236 -0.5745  0.6138
25427SOL    HW183142   8.100   9.126   4.528  0.5509  0.0256 -0.7779
25427SOL    HW283143   8.136   9.219   4.642 -0.7888 -0.2394 -0.1113
25428SOL     OW83144   7.214   1.481   3.180 -0.0147 -0.0166 -0.3743
25428SOL    HW183145   7.140   1.511   3.233 -0.8517 -0.7637 -1.0810
25428SOL    HW283146   7.236   1.556   3.125 -0.7747 -0.0444 -0.7221
25429SOL     OW83147  11.411   0.546   1.349 -0.0400  0.8818 -0.8377
25429SOL    HW183148  11.486   0.494   1.320  1.1791  2.4776 -0.6841
25429SOL    HW283149  11.377   0.586   1.269  0.0644  1.1556 -0.7459
25430SOL     OW83150   9.903  12.176   6.464 -0.1487 -0.0911 -0.3065
25430SOL    HW183151   9.884  12.263   6.499  0.8439 -0.2197  0.5953
25430SOL    HW283152   9.926  12.190   6.372 -0.4259  0.5414 -0.2793
25431SOL     OW83153   4.486   0.656   3.948 -0.7426  0.0313 -0.4888
25431SOL    HW183154   4.538   0.632   3.871 -0.4677  1.9989 -0.9700
25431SOL    HW283155   4.525   0.738   3.978 -2.4417  0.6198  0.2276
25432SOL     OW83156   6.765   4.650   4.178 -0.2400  0.4266  0.7462
25432SOL    HW183157   6.670   4.656   4.169 -0.2081 -0.0693  0.0197
25432SOL    HW283158   6.798   4.716   4.117 -0.1004 -0.1861  0.1508
25433SOL     OW83159   2.272   0.774   0.306  0.2576  0.3686  0.0788
25433SOL    HW183160   2.294   0.685   0.277  0.0271  1.1040 -2.5562
25433SOL    HW283161   2.204   0.761   0.373  1.0965 -1.4604  0.6396
25434SOL     OW83162   1.436   3.435  11.565  0.3355 -0.4530 -0.0348
25434SOL    HW183163   1.405   3.512  11.517  1.4141  0.5334  0.8166
25434SOL    HW283164   1.417   3.361  11.506 -1.1059  0.3830 -0.6822
25435SOL     OW83165   0.897   9.370   2.733 -0.4724  0.6905 -0.3546
25435SOL    HW183166   0.989   9.387   2.754 -0.1269  0.0818 -1.3164
25435SOL    HW283167   0.872   9.297   2.791 -0.6407  1.4593  0.5688
25436SOL     OW83168   1.842  10.459   0.492  0.0209  0.2632  0.2230
25436SOL    HW183169   1.758  10.503   0.476  0.2785  0.1481 -1.6851
25436SOL    HW283170   1.904  10.531   0.505  0.2979  0.5657 -2.1672
25437SOL     OW83171   2.338  11.221   2.331  0.1318  0.6045 -0.0070
25437SOL    HW183172   2.317  11.311   2.359  0.8461  0.2667  1.7240
25437SOL    HW283173   2.409  11.194   2.388  0.6885 -0.6996 -1.2583
25438SOL     OW83174   1.896   5.021   4.041  0.3660 -0.1130 -0.1218
25438SOL    HW183175   1.861   5.067   3.965  0.0087 -0.7357 -0.3465
25438SOL    HW283176   1.976   5.068   4.063 -0.0910  0.7245 -0.2200
25439SOL     OW83177  10.284   5.280   2.492  0.6063  0.3186 -0.2683
25439SOL    HW183178  10.361   5.329   2.462  0.1547  1.1182 -0.1387
25439SOL    HW283179  10.297   5.273   2.587  0.9481 -0.3173 -0.3536
25440SOL     OW83180  10.156   4.440   4.031 -0.8713 -0.5477 -0.1309
25440SOL    HW183181  10.227   4.489   4.074 -1.1645 -0.6883  0.5355
25440SOL    HW283182  10.162   4.464   3.939  0.5855 -1.2203 -0.2367
25441SOL     OW83183   0.588   9.513   0.646 -0.1174 -0.2513  0.4904
25441SOL    HW183184   0.606   9.496   0.738 -0.2387 -0.9266  0.3941
25441SOL    HW283185   0.593   9.427   0.604  0.5198  0.1291 -0.2329
25442SOL     OW83186   8.091   4.667   6.300 -0.0462  0.1081  0.4857
25442SOL    HW183187   8.080   4.762   6.299  0.7626  0.2017  0.2852
25442SOL    HW283188   8.149   4.648   6.227 -1.0903 -0.6654 -0.1791
25443SOL     OW83189   5.419   0.347  10.837 -0.5406 -0.3729 -0.1359
25443SOL    HW183190   5.415   0.327  10.930  1.6593  1.2122  0.3991
25443SOL    HW283191   5.332   0.326  10.803 -1.2409 -1.4503  2.1559
25444SOL     OW83192  11.509  10.780   0.729 -0.1721  0.2764 -0.2622
25444SOL    HW183193  11.429  10.823   0.759  0.0753 -0.0482  0.9523
25444SOL    HW283194  11.578  10.819   0.782  0.5574  0.8734 -1.6080
25445SOL     OW83195   8.392   8.917  11.221 -0.1453 -0.0305 -0.1705
25445SOL    HW183196   8.317   8.976  11.211 -2.0894 -2.0223  1.4701
25445SOL    HW283197   8.399   8.905  11.316  2.4973  0.2922 -0.2599
25446SOL     OW83198   8.934   9.006   3.779  0.1772  0.2817 -0.6091
25446SOL    HW183199   8.889   9.057   3.711 -0.1768  0.9927  0.1481
25446SOL    HW283200   9.016   9.053   3.795 -0.3260  0.8384  0.3691
25447SOL     OW83201  10.450  12.147  10.199 -0.6957  0.0565  0.8189
25447SOL    HW183202  10.498  12.065  10.188  0.0025  0.1960  2.4665
25447SOL    HW283203  10.384  12.126  10.265 -0.5481  0.7940  1.2062
25448SOL     OW83204  11.909   0.986   5.984 -0.1173  0.4540 -0.4436
25448SOL    HW183205  11.949   0.961   6.067  0.1194  2.0636 -0.0380
25448SOL    HW283206  11.978   1.033   5.936  0.1449 -1.5270 -2.1230
25449SOL     OW83207   5.449   0.487   4.124 -0.7681  0.8077  0.1231
25449SOL    HW183208   5.502   0.511   4.048 -0.8641  0.8627  0.0742
25449SOL    HW283209   5.461   0.392   4.132 -1.3706  0.6733 -0.4249
25450SOL     OW83210  11.719  11.122  10.335 -0.4393 -0.0209  0.1035
25450SOL    HW183211  11.772  11.058  10.288  0.4515  1.3381 -0.7967
25450SOL    HW283212  11.663  11.161  10.268 -0.2953  0.8104  0.4607
25451SOL     OW83213   3.063  11.973   1.630  0.1218 -0.1466 -0.1250
25451SOL    HW183214   3.012  11.982   1.710  2.0336  1.5405  0.9904
25451SOL    HW283215   2.999  11.987   1.559 -1.3462 -0.3217  1.1126
25452SOL     OW83216   9.447  11.369   2.449 -0.1423  0.1805  0.4083
25452SOL    HW183217   9.396  11.309   2.504  1.7990 -1.2564  0.7623
25452SOL    HW283218   9.504  11.415   2.511  1.3088 -0.6803 -0.2169
25453SOL     OW83219   9.243   3.695  11.216 -0.2139 -0.0717  0.6644
25453SOL    HW183220   9.315   3.702  11.278  0.7617 -2.7891  0.0118
25453SOL    HW283221   9.172   3.653  11.265 -0.4115  0.2139  0.6271
25454SOL     OW83222   8.983   0.731   5.298 -0.3687 -0.1501 -0.1519
25454SOL    HW183223   9.060   0.787   5.296  0.5888 -1.1724  2.6712
25454SOL    HW283224   8.922   0.776   5.356 -0.7110 -0.7322 -0.0563
25455SOL     OW83225  11.748  10.500   1.772  0.6509 -0.3710  0.3561
25455SOL    HW183226  11.811  10.523   1.840  0.5418 -0.9754  0.6628
25455SOL    HW283227  11.698  10.580   1.757  0.0719 -0.4800  1.6296
25456SOL     OW83228   7.756   9.628   9.261  0.2365  0.1916 -0.0493
25456SOL    HW183229   7.843   9.592   9.248 -0.0122 -0.3233 -0.3379
25456SOL    HW283230   7.758   9.667   9.348  1.5405  2.4764 -1.0074
25457SOL     OW83231   2.770  10.764   6.227  0.0913  0.4503  0.2907
25457SOL    HW183232   2.774  10.738   6.319 -0.2615  1.5474  0.6296
25457SOL    HW283233   2.820  10.696   6.181 -1.7323 -1.4646  0.9573
25458SOL     OW83234   7.203   3.098   7.801  0.3240  0.7015 -0.3580
25458SOL    HW183235   7.298   3.090   7.805  0.4469 -0.7022 -3.1883
25458SOL    HW283236   7.187   3.158   7.728 -0.9195 -0.4754 -1.1076
25459SOL     OW83237   9.878   0.897   6.517  0.0264 -0.2296 -0.2312
25459SOL    HW183238   9.944   0.857   6.573 -0.2868  1.2046  1.2315
25459SOL    HW283239   9.922   0.971   6.476 -1.0235  1.8585  2.1507
25460SOL     OW83240   9.029  10.447  11.527  0.0018  0.1946 -0.1514
25460SOL    HW183241   9.016  10.475  11.436 -2.8863  0.6092  0.3059
25460SOL    HW283242   8.989  10.360  11.530 -0.1921  0.3127  0.7859
25461SOL     OW83243  11.967   6.773   6.619  0.3854  0.4946  0.2012
25461SOL    HW183244  11.872   6.763   6.627  0.3412 -1.5438 -1.8576
25461SOL    HW283245  12.002   6.730   6.698 -0.3899 -2.5613 -0.9459
25462SOL     OW83246   9.490   9.955   9.536 -0.3146  0.4174  0.2623
25462SOL    HW183247   9.457   9.894   9.602 -1.6939 -0.6101 -1.3241
25462SOL    HW283248   9.455   9.924   9.453  3.1912  0.3183 -1.3763
25463SOL     OW83249   0.690  10.173   3.196 -0.2797 -0.2195  0.0028
25463SOL    HW183250   0.612  10.119   3.183 -1.7486  1.4315  1.4255
25463SOL    HW283251   0.663  10.260   3.168  1.7978 -0.0222 -1.5527
25464SOL     OW83252   3.899   4.252   8.784 -0.1370 -0.3033 -0.0342
25464SOL    HW183253   3.878   4.333   8.832 -0.1272 -0.4338  0.1934
25464SOL    HW283254   3.815   4.210   8.769 -0.0185 -1.1275  1.4108
25465SOL     OW83255   7.524   9.109  10.137 -0.4066  0.1680  0.4214
25465SOL    HW183256   7.544   9.037  10.077 -0.5234 -1.2927  2.0418
25465SOL    HW283257   7.609   9.150  10.155  0.2351 -1.6580  1.9467
25466SOL     OW83258   8.378  11.723   7.930  0.2531 -0.2834 -0.5381
25466SOL    HW183259   8.470  11.726   7.901  0.2409 -0.0930 -0.5645
25466SOL    HW283260   8.375  11.653   7.994  0.9186  1.1612  1.1666
25467SOL     OW83261   8.921   7.686  12.081  0.5060 -0.4232  0.1292
25467SOL    HW183262   8.854   7.658  12.144  0.4870 -0.0652  0.2711
25467SOL    HW283263   9.003   7.686  12.131  0.1654  2.0542  0.8161
25468SOL     OW83264   4.003   4.818   4.360  0.3304 -0.3594  0.0424
25468SOL    HW183265   3.944   4.828   4.435 -0.0997 -2.6096  0.0674
25468SOL    HW283266   3.976   4.887   4.299 -2.5326 -1.4222 -0.0425
25469SOL     OW83267  10.263   0.778   0.939 -0.1013  0.0044  0.1664
25469SOL    HW183268  10.206   0.834   0.888  0.4751 -0.0372 -0.5369
25469SOL    HW283269  10.252   0.809   1.029 -0.5320  0.5921 -0.0803
25470SOL     OW83270   5.163   7.460   6.374  0.7645 -0.1797 -1.1857
25470SOL    HW183271   5.112   7.384   6.402 -1.2600  0.5663 -2.6412
25470SOL    HW283272   5.098   7.524   6.346  2.4766  0.6187 -3.7269
25471SOL     OW83273   3.979  11.579   1.120 -0.4412 -0.2630  0.4218
25471SOL    HW183274   3.966  11.666   1.159 -1.0926  0.0256 -0.4036
25471SOL    HW283275   3.939  11.586   1.033  0.6861 -0.9798 -0.1835
25472SOL     OW83276   7.049   2.167   6.092  0.1275  0.0002  0.2391
25472SOL    HW183277   7.008   2.082   6.109 -1.6222  0.8875  0.7136
25472SOL    HW283278   7.010   2.197   6.010  3.8077 -1.3984 -2.3145
25473SOL     OW83279  11.200   1.931   6.948 -0.1684 -0.1724  0.3875
25473SOL    HW183280  11.176   1.903   6.860 -1.2961  0.0310  0.6148
25473SOL    HW283281  11.154   1.869   7.006  0.8658 -0.5426  0.8329
25474SOL     OW83282   5.860   6.888   7.662  0.4635 -0.1243 -0.2764
25474SOL    HW183283   5.931   6.911   7.722  0.5479  0.2998 -0.5325
25474SOL    HW283284   5.811   6.820   7.707 -0.3449  1.2032  0.9275
25475SOL     OW83285   5.232   4.118   0.435  0.0821  0.0033  0.3374
25475SOL    HW183286   5.199   4.059   0.503 -0.8773  1.0696  0.8378
25475SOL    HW283287   5.182   4.096   0.357  0.1441 -0.2382  0.3656
25476SOL     OW83288   6.142   2.137  11.785 -0.0920 -0.2233  0.6032
25476SOL    HW183289   6.130   2.096  11.699  0.9594  2.2118 -0.8171
25476SOL    HW283290   6.224   2.102  11.817  1.1121  1.0657 -0.8795
25477SOL     OW83291   9.136   9.897  11.823 -0.4267 -0.1759 -0.0883
25477SOL    HW183292   9.119   9.968  11.762 -2.3230 -1.5000 -1.2021
25477SOL    HW283293   9.075   9.912  11.895 -1.6369 -1.2283 -0.8557
25478SOL     OW83294   6.147   3.342   2.705 -0.8011 -0.2903 -0.2733
25478SOL    HW183295   6.109   3.301   2.627 -0.5048  0.8776 -1.0563
25478SOL    HW283296   6.076   3.396   2.741 -0.3122  0.8331 -0.9631
25479SOL     OW83297  12.057   2.690   6.252 -0.5517 -0.0716 -0.3012
25479SOL    HW183298  12.132   2.635   6.274 -0.4883  0.2942  0.4048
25479SOL    HW283299  12.070   2.712   6.160 -0.4152 -0.9767 -0.5093
25480SOL     OW83300   4.593   7.595   7.572  0.5704 -0.3895  0.1464
25480SOL    HW183301   4.638   7.678   7.559  0.9019 -0.6855 -0.6139
25480SOL    HW283302   4.607   7.546   7.491  0.9619 -1.4668  0.8351
25481SOL     OW83303   3.722   2.949   6.124  0.3549 -1.1714  0.7331
25481SOL    HW183304   3.812   2.975   6.141 -0.0821 -0.5683  2.2282
25481SOL    HW283305   3.712   2.867   6.172 -0.5507 -0.0476  2.5469
25482SOL     OW83306   9.387   2.151   1.103 -0.4308  0.0596 -0.2736
25482SOL    HW183307   9.455   2.087   1.079  0.0701 -0.2205  1.7262
25482SOL    HW283308   9.423   2.235   1.074 -0.4955 -0.3688 -1.7028
25483SOL     OW83309  11.874  11.997   3.554  0.9023  0.3216  0.1247
25483SOL    HW183310  11.932  12.067   3.582  0.7748 -0.6749  3.3486
25483SOL    HW283311  11.787  12.026   3.581  0.9510 -1.3031  2.2940
25484SOL     OW83312   1.931   4.686   6.579  0.3777 -0.3086  0.2241
25484SOL    HW183313   1.875   4.609   6.589 -0.9139  0.5810  0.0775
25484SOL    HW283314   2.007   4.667   6.634 -0.1069 -1.5126  0.5134
25485SOL     OW83315   9.387   9.652   4.848 -0.2636 -0.2449  0.2564
25485SOL    HW183316   9.467   9.702   4.832 -0.3334 -0.0702  0.4561
25485SOL    HW283317   9.395   9.621   4.938 -0.8762  0.6194  0.6259
25486SOL     OW83318   8.603   7.973   0.041 -0.0071  0.6596  0.0293
25486SOL    HW183319   8.661   8.024   0.097  1.0335 -1.1664  0.6775
25486SOL    HW283320   8.652   7.964  -0.041  0.0641  0.2347  0.1174
25487SOL     OW83321   2.425   6.681   8.443 -0.5881  0.0962 -0.6626
25487SOL    HW183322   2.394   6.742   8.510  0.6587 -1.3279  1.3282
25487SOL    HW283323   2.455   6.605   8.493  0.1513 -1.1526 -2.8974
25488SOL     OW83324   0.673   0.009   1.773 -0.4563 -0.0729  0.0915
25488SOL    HW183325   0.741   0.057   1.820  0.9517  0.5746 -2.4200
25488SOL    HW283326   0.690   0.028   1.680 -3.1830 -1.1038 -0.7066
25489SOL     OW83327  11.018   2.848   2.457 -0.6875 -0.9470 -0.2029
25489SOL    HW183328  11.056   2.815   2.538 -0.2405 -0.8158 -0.3608
25489SOL    HW283329  10.924   2.857   2.477 -0.7023 -1.6112  0.0718
25490SOL     OW83330   2.503   6.002   1.562  0.5979 -0.2280 -0.6181
25490SOL    HW183331   2.414   5.988   1.592  0.1429  1.3058 -1.1357
25490SOL    HW283332   2.533   6.078   1.613  1.5023 -0.5603 -0.6430
25491SOL     OW83333   7.367   5.528   6.345  0.3263 -0.4466 -0.8855
25491SOL    HW183334   7.274   5.527   6.322 -0.0343  1.9902  0.1838
25491SOL    HW283335   7.375   5.465   6.416 -0.8090  0.3143 -0.0559
25492SOL     OW83336   7.637  11.703   3.453  0.5825 -0.2684 -0.0979
25492SOL    HW183337   7.640  11.773   3.518 -1.1670  0.3694 -0.6423
25492SOL    HW283338   7.639  11.623   3.504 -1.3292  0.2204  0.8412
25493SOL     OW83339   5.955   1.779   3.428 -0.3342  0.3944  0.0837
25493SOL    HW183340   5.950   1.867   3.392 -1.2494  0.3800  0.1449
25493SOL    HW283341   5.898   1.727   3.370  1.3629 -0.4804 -0.8687
25494SOL     OW83342  11.158   6.314  11.477 -0.0874  0.0165 -0.0334
25494SOL    HW183343  11.094   6.302  11.407 -0.8477  0.4440  0.5710
25494SOL    HW283344  11.149   6.406  11.502 -0.6281 -0.3977  1.3904
25495SOL     OW83345   6.522   4.377   0.829 -0.4806 -0.0074  0.7836
25495SOL    HW183346   6.475   4.311   0.879 -0.3361  0.0063  0.9396
25495SOL    HW283347   6.565   4.431   0.896  0.4026 -0.4941  0.6347
25496SOL     OW83348  10.277  11.814   5.276 -0.0243  0.1483 -0.1983
25496SOL    HW183349  10.194  11.861   5.268 -0.7244 -0.9391  0.3747
25496SOL    HW283350  10.282  11.760   5.197  1.0387  1.5511 -1.1187
25497SOL     OW83351   0.264   8.949   3.784  0.1281  0.7003 -0.4354
25497SOL    HW183352   0.182   8.902   3.766 -0.3403  1.2261  0.2485
25497SOL    HW283353   0.286   8.923   3.874  1.9357 -1.1895 -1.3230
25498SOL     OW83354   7.720  11.163   1.018  0.5103  0.0014  0.0196
25498SOL    HW183355   7.752  11.150   1.107  0.2653  0.2141  0.1372
25498SOL    HW283356   7.674  11.247   1.020  1.2424  0.4367 -0.5047
25499SOL     OW83357   4.917   2.475   5.854 -0.0292  0.3166  0.2751
25499SOL    HW183358   5.011   2.475   5.872 -0.0671  0.7691  0.4710
25499SOL    HW283359   4.896   2.383   5.838  0.4919  0.2429 -0.0153
25500SOL     OW83360  11.692   3.555  10.805  0.2720 -0.2525 -0.3379
25500SOL    HW183361  11.766   3.534  10.863  1.0690 -1.8624 -1.8460
25500SOL    HW283362  11.615   3.531  10.855  0.9123 -1.1550  0.2465
25501SOL     OW83363  10.230   1.827   4.565  0.2878 -0.4907 -0.5141
25501SOL    HW183364  10.311   1.833   4.616 -1.5180  0.6123  2.5434
25501SOL    HW283365  10.183   1.754   4.605 -1.7159  1.1686  0.3276
25502SOL     OW83366  12.463   8.135   2.540  0.3931 -0.2012  0.0616
25502SOL    HW183367  12.477   8.159   2.632  1.2654  1.8916 -0.5660
25502SOL    HW283368  12.392   8.071   2.543 -1.1509  1.4755  2.0144
25503SOL     OW83369  10.731   7.885   5.837  0.3104  0.1477 -0.3843
25503SOL    HW183370  10.805   7.837   5.875 -1.0175  0.1180  2.4247
25503SOL    HW283371  10.662   7.877   5.902 -1.9062  0.9445 -2.5018
25504SOL     OW83372   5.307   2.415   5.143  0.3988 -0.3433 -0.0868
25504SOL    HW183373   5.337   2.456   5.225  0.8276  0.5181 -0.6620
25504SOL    HW283374   5.386   2.378   5.104  0.6350  1.2230 -1.2035
25505SOL     OW83375  12.477  11.602   4.028  0.1416  0.5909 -0.0259
25505SOL    HW183376  12.458  11.691   3.999  0.0647  0.2076 -1.2145
25505SOL    HW283377  12.553  11.611   4.085  0.7837  1.3062 -0.9639
25506SOL     OW83378   0.748   3.795   2.621  0.2004  0.0326 -0.8276
25506SOL    HW183379   0.799   3.876   2.618 -0.6204  0.5553 -1.1978
25506SOL    HW283380   0.732   3.781   2.715 -0.7966  1.0713 -0.8088
25507SOL     OW83381   8.668  11.119   1.943  0.1220 -0.0533  0.5645
25507SOL    HW183382   8.581  11.136   1.906  0.7013 -0.1133 -0.9187
25507SOL    HW283383   8.655  11.122   2.037 -1.2159  1.2911  0.3746
25508SOL     OW83384   0.310   8.511   6.413 -0.0469 -0.6615  0.3493
25508SOL    HW183385   0.357   8.470   6.485  2.0362  0.2537 -0.4119
25508SOL    HW283386   0.369   8.580   6.381 -1.2140 -0.5240 -1.7256
25509SOL     OW83387   1.939   6.427   0.055  0.1984  0.2197  0.0436
25509SOL    HW183388   1.987   6.505   0.028  0.8937 -0.6909 -1.4703
25509SOL    HW283389   1.867   6.421  -0.008  0.0157 -0.2247  0.2954
25510SOL     OW83390   4.990   4.043   8.697  0.6366 -0.3197  0.0665
25510SOL    HW183391   5.051   4.058   8.625 -0.4317  0.3340 -0.7433
25510SOL    HW283392   5.011   3.956   8.730  2.6005  0.2432  0.4310
25511SOL     OW83393   6.354   0.354   6.394 -0.0573 -0.3458 -0.3187
25511SOL    HW183394   6.399   0.433   6.425 -1.3858  0.7778 -1.1205
25511SOL    HW283395   6.322   0.378   6.307 -1.8647 -1.1880  0.0652
25512SOL     OW83396  11.217   7.507   1.651  0.1652  0.2100  0.0725
25512SOL    HW183397  11.138   7.464   1.686 -0.0027 -0.4493 -1.0620
25512SOL    HW283398  11.200   7.515   1.557  1.1539  0.7340 -0.0756
25513SOL     OW83399   4.817   3.677  11.943 -0.0078  0.0423  0.4592
25513SOL    HW183400   4.784   3.760  11.977 -0.2513 -0.4001  1.3504
25513SOL    HW283401   4.909   3.675  11.968 -0.0291 -0.0005  0.5340
25514SOL     OW83402   7.573   9.542   7.570  0.2734  0.5184 -0.2345
25514SOL    HW183403   7.488   9.538   7.525 -0.3049  0.5113  0.8348
25514SOL    HW283404   7.610   9.455   7.559  0.0950  0.4885 -0.6122
25515SOL     OW83405   1.649   1.747  10.527 -0.5043 -0.1880  0.3243
25515SOL    HW183406   1.730   1.795  10.510  0.4405 -1.2928  1.5866
25515SOL    HW283407   1.580   1.813  10.515  0.6689  1.1729  0.7925
25516SOL     OW83408  12.415  11.046   4.565 -0.0623 -0.4975  0.1307
25516SOL    HW183409  12.326  11.036   4.599 -0.6268 -0.4738 -1.2876
25516SOL    HW283410  12.404  11.092   4.482  1.3758  0.4549  0.4267
25517SOL     OW83411   5.811   2.557   3.247 -0.7100  0.1173 -0.2707
25517SOL    HW183412   5.866   2.601   3.182 -0.6462 -0.8748 -0.9157
25517SOL    HW283413   5.862   2.561   3.328 -0.2476  0.3145 -0.5680
25518SOL     OW83414  12.291   5.255  10.808  0.3938  0.3778  0.0889
25518SOL    HW183415  12.212   5.299  10.777  0.6269  0.7086 -0.0382
25518SOL    HW283416  12.301   5.286  10.898  1.0075  1.2191 -0.2632
25519SOL     OW83417   3.485   9.015   6.499 -0.2163  0.5718  0.6565
25519SOL    HW183418   3.419   9.085   6.493  0.5804  1.2301 -1.2993
25519SOL    HW283419   3.543   9.043   6.569 -0.3668  1.4985  0.4308
25520SOL     OW83420   2.830  12.188   0.244  0.3232  0.2603  0.2894
25520SOL    HW183421   2.793  12.259   0.192  0.9662  1.3099  1.2126
25520SOL    HW283422   2.821  12.111   0.190 -1.5766  0.8080 -0.2208
25521SOL     OW83423  11.112   7.869   3.304  0.2644 -0.1766 -0.1588
25521SOL    HW183424  11.065   7.946   3.271  1.9900  1.2582  0.5924
25521SOL    HW283425  11.042   7.805   3.322 -1.2070  1.1342 -0.9306
25522SOL     OW83426   0.379   1.867  11.960  0.2098  0.1534 -0.4312
25522SOL    HW183427   0.395   1.774  11.975  0.2614  0.0461 -1.1135
25522SOL    HW283428   0.457   1.910  11.995 -0.9481  0.1947  2.3771
25523SOL     OW83429   6.223   5.168   9.333 -0.2286  0.1695 -0.0546
25523SOL    HW183430   6.233   5.078   9.364  0.9641 -0.2410 -1.5071
25523SOL    HW283431   6.243   5.222   9.409  1.0180 -0.7917  0.3380
25524SOL     OW83432   3.765   5.574   0.064 -0.8083  0.1144 -0.7996
25524SOL    HW183433   3.801   5.630  -0.005  1.7517  0.6506  0.8324
25524SOL    HW283434   3.698   5.629   0.106 -0.3827  0.8488 -1.0573
25525SOL     OW83435   1.216  10.490  10.215 -0.2084  0.1838 -0.0185
25525SOL    HW183436   1.299  10.486  10.262 -0.9192  0.0797  1.2806
25525SOL    HW283437   1.230  10.555  10.147  0.8123  0.4458  0.4241
25526SOL     OW83438  10.257  10.869   8.830  0.2105 -0.0235 -0.5541
25526SOL    HW183439  10.283  10.789   8.785 -0.7289 -1.5620  1.4525
25526SOL    HW283440  10.333  10.893   8.883 -0.3085 -1.0266  0.6872
25527SOL     OW83441   3.633   5.139   0.426 -0.0844  0.0111 -0.3421
25527SOL    HW183442   3.595   5.194   0.357  1.0516 -1.0567 -1.8950
25527SOL    HW283443   3.709   5.188   0.457 -1.0187  0.8276  0.6959
25528SOL     OW83444   6.949   6.986   9.023  0.6365 -0.0941  0.2050
25528SOL    HW183445   6.949   7.071   8.979 -0.5037 -0.7504 -1.1755
25528SOL    HW283446   7.029   6.943   8.992  0.3314 -0.1746 -0.4979
25529SOL     OW83447  11.402   2.674   0.241 -0.3102 -0.7637  0.1422
25529SOL    HW183448  11.382   2.679   0.147 -0.5577  0.5979  0.2450
25529SOL    HW283449  11.473   2.737   0.254 -1.7201  0.7097  1.2010
25530SOL     OW83450   6.858   6.377   1.734 -0.8516 -0.4173 -0.0284
25530SOL    HW183451   6.801   6.304   1.760  2.4630 -2.7783  1.2137
25530SOL    HW283452   6.869   6.429   1.813 -0.4819 -0.5618  0.0173
25531SOL     OW83453   5.014   9.363   9.624  0.5008 -0.7150 -0.2940
25531SOL    HW183454   4.982   9.299   9.562 -0.9044  2.5040 -3.2261
25531SOL    HW283455   5.103   9.383   9.594  0.4708 -0.4069 -0.1814
25532SOL     OW83456  11.324  11.414   6.881 -0.0730 -0.2183  0.2574
25532SOL    HW183457  11.330  11.436   6.974 -2.1848  1.1582  0.1156
25532SOL    HW283458  11.254  11.350   6.876 -0.6312  0.4351 -0.4843
25533SOL     OW83459   8.097   9.937   9.277  0.0788  0.0837 -0.1816
25533SOL    HW183460   8.118   9.936   9.184  0.6768 -0.5700 -0.0472
25533SOL    HW283461   8.078  10.029   9.296 -0.5134  0.1480 -1.0401
25534SOL     OW83462   2.664   1.814  11.652  0.3186  0.4170  0.2252
25534SOL    HW183463   2.614   1.895  11.650 -1.0941 -0.4304  0.1110
25534SOL    HW283464   2.640   1.772  11.735  0.6716 -0.1153  0.0679
25535SOL     OW83465  10.470   6.611  12.360  0.2272 -0.3723  0.2339
25535SOL    HW183466  10.499   6.524  12.334 -0.1202  0.0133 -1.6714
25535SOL    HW283467  10.538   6.670  12.328  0.0746  0.1083  0.7793
25536SOL     OW83468   3.053  11.228   4.758  0.0419 -0.3699 -0.5044
25536SOL    HW183469   3.015  11.190   4.837 -0.3129  0.2871 -0.3449
25536SOL    HW283470   3.140  11.257   4.784 -0.7887  1.6858  0.2523
25537SOL     OW83471   4.929   6.830   7.113  0.1056 -0.2202  0.0661
25537SOL    HW183472   4.886   6.914   7.129  1.1100  0.3416 -0.1121
25537SOL    HW283473   4.935   6.789   7.200  0.7001  0.4371  0.3416
25538SOL     OW83474   4.461   2.310   0.258  0.2628 -0.1339 -0.4281
25538SOL    HW183475   4.524   2.241   0.238  0.0593 -0.0162 -1.5179
25538SOL    HW283476   4.401   2.311   0.183 -0.9593 -0.1524  0.5195
25539SOL     OW83477   7.006  11.618   5.513  0.0856 -0.0343 -0.9390
25539SOL    HW183478   6.980  11.602   5.604  0.6648  0.2913 -0.7143
25539SOL    HW283479   7.055  11.700   5.516 -0.5721  0.3951 -1.6733
25540SOL     OW83480   0.986  10.873   1.584 -0.7395 -0.3543  0.1583
25540SOL    HW183481   0.899  10.904   1.611  0.1625  0.1371  2.8357
25540SOL    HW283482   1.030  10.951   1.550 -0.8375 -0.2715  0.2201
25541SOL     OW83483   4.333   8.637   6.365 -0.0502 -0.0008  0.5603
25541SOL    HW183484   4.279   8.715   6.362 -2.7758 -1.7236  1.0065
25541SOL    HW283485   4.352   8.625   6.458  1.1043  0.5796  0.4072
25542SOL     OW83486   4.638   8.576   4.722  0.0619  0.2502 -0.1993
25542SOL    HW183487   4.668   8.651   4.670  0.6843 -0.0900 -0.3319
25542SOL    HW283488   4.592   8.520   4.659  2.2617 -1.0007 -0.8006
25543SOL     OW83489  11.927   4.901   8.307  0.6940  0.4289  0.1540
25543SOL    HW183490  12.013   4.942   8.321  1.0838 -0.7369  1.4410
25543SOL    HW283491  11.871   4.939   8.375  0.1298  1.2986 -0.7776
25544SOL     OW83492   8.172   7.025   4.814 -0.7484  0.1456 -0.0863
25544SOL    HW183493   8.221   6.964   4.758 -1.4555 -0.1880 -0.3561
25544SOL    HW283494   8.239   7.082   4.852 -0.1462 -0.3439 -0.3937
25545SOL     OW83495  10.014   5.168  10.482 -0.1476  0.1940 -0.0436
25545SOL    HW183496  10.027   5.126  10.396 -0.5237  1.2015 -0.6084
25545SOL    HW283497   9.960   5.106  10.531  0.1180 -0.4192 -0.5023
25546SOL     OW83498  11.709   1.531   5.173  0.9394 -0.4924  0.4333
25546SOL    HW183499  11.680   1.517   5.263  0.2279 -3.1030 -0.1123
25546SOL    HW283500  11.658   1.606   5.143  0.4241 -0.2223  1.8724
25547SOL     OW83501  10.211  11.427   4.128 -0.2003 -0.3208 -0.0208
25547SOL    HW183502  10.217  11.337   4.095 -0.7120 -1.5927  3.0419
25547SOL    HW283503  10.303  11.455   4.136 -0.0375 -0.4990 -1.0816
25548SOL     OW83504   8.572   7.065  12.061  0.4999  0.2424  0.5245
25548SOL    HW183505   8.607   7.121  11.991 -0.1358 -0.8606 -0.7075
25548SOL    HW283506   8.478   7.060  12.043  0.0881  0.9885  2.2422
25549SOL     OW83507   6.755   5.492   7.173 -0.3071  0.4851  0.2636
25549SOL    HW183508   6.835   5.536   7.146  0.5114 -0.5392  0.9631
25549SOL    HW283509   6.769   5.469   7.265 -1.4837  0.4759  0.4619
25550SOL     OW83510   8.892   4.949   0.674  0.0967  0.4717 -0.7903
25550SOL    HW183511   8.979   4.964   0.635 -0.3007  0.5308 -1.6914
25550SOL    HW283512   8.831   4.977   0.606 -0.6359 -0.0234 -0.3458
25551SOL     OW83513  10.262   3.406   1.684  0.5144 -1.0379 -0.1213
25551SOL    HW183514  10.286   3.329   1.735  1.9220 -0.0451  0.8106
25551SOL    HW283515  10.187   3.442   1.730  0.7179 -1.0991  0.2692
25552SOL     OW83516   5.895   1.841  10.919  0.5995  0.3318  0.6756
25552SOL    HW183517   5.854   1.763  10.881 -0.8013  1.5335 -0.4071
25552SOL    HW283518   5.835   1.868  10.988 -0.2105  1.7784 -0.5403
25553SOL     OW83519   0.993   1.099  10.750 -0.2296  0.1525  0.1485
25553SOL    HW183520   0.899   1.106  10.770 -0.4367 -1.9948  0.0867
25553SOL    HW283521   1.034   1.162  10.810 -1.8759  3.8115 -2.1574
25554SOL     OW83522   0.251   4.592   9.071 -0.4865 -0.0418  0.3840
25554SOL    HW183523   0.219   4.512   9.029 -2.4418  1.0375 -0.2951
25554SOL    HW283524   0.187   4.611   9.139 -0.4547  1.3318  0.0622
25555SOL     OW83525   9.808   3.279   1.709  0.9069 -0.7292  0.0020
25555SOL    HW183526   9.754   3.340   1.758  0.8468 -1.7698  1.3046
25555SOL    HW283527   9.784   3.292   1.617 -0.4892 -0.1727  0.4305
25556SOL     OW83528   5.961   6.151  10.760  0.4537  0.5270 -0.1610
25556SOL    HW183529   5.917   6.162  10.675  1.9754  2.1367 -0.7945
25556SOL    HW283530   5.956   6.237  10.801  2.5248  0.6449 -0.0518
25557SOL     OW83531   4.268  11.023   4.142 -0.5894 -0.2266  0.6390
25557SOL    HW183532   4.239  10.933   4.153 -3.5353  0.6010  0.5528
25557SOL    HW283533   4.189  11.070   4.114  1.3423  1.9554 -1.6657
25558SOL     OW83534   1.657  12.038   2.356 -0.3315  0.0615 -0.0440
25558SOL    HW183535   1.651  12.068   2.447 -0.5310 -0.7911  0.2376
25558SOL    HW283536   1.751  12.027   2.342 -0.3351 -0.3711  0.2562
25559SOL     OW83537   3.257   7.066   4.778  0.0440 -0.0595  0.2425
25559SOL    HW183538   3.327   7.003   4.762 -0.0670 -0.8880  2.5772
25559SOL    HW283539   3.235   7.053   4.871 -2.4783  0.9046 -0.1587
25560SOL     OW83540   2.454   0.871   3.391  0.4679  0.0598 -0.2114
25560SOL    HW183541   2.496   0.946   3.348 -0.2642  1.1577  0.9252
25560SOL    HW283542   2.520   0.838   3.452  0.9247 -0.4835 -0.9759
25561SOL     OW83543   7.871  10.068   8.085  0.3208  0.7780 -0.0206
25561SOL    HW183544   7.959  10.030   8.094  0.0511  0.0961 -0.2015
25561SOL    HW283545   7.812   9.993   8.088 -0.3180  1.2882  0.8351
25562SOL     OW83546   6.351  11.403   2.794 -0.3320 -0.0843  0.1064
25562SOL    HW183547   6.299  11.476   2.762  0.0871  0.2675  0.2108
25562SOL    HW283548   6.385  11.361   2.714 -1.8226 -1.1262 -0.0276
25563SOL     OW83549   2.064   7.765  11.157  0.1213  0.5448  0.3251
25563SOL    HW183550   2.053   7.718  11.075 -0.4617  0.2646  0.5583
25563SOL    HW283551   2.077   7.696  11.223  0.1405  0.7472  0.5355
25564SOL     OW83552  11.107   1.599   4.673 -0.6588  0.4849  0.1780
25564SOL    HW183553  11.190   1.583   4.627  0.1563 -1.6841  2.2116
25564SOL    HW283554  11.073   1.512   4.692 -1.9523  1.3111  1.9095
25565SOL     OW83555   4.946   6.247   9.081  0.0409  0.4879 -0.3666
25565SOL    HW183556   4.865   6.219   9.122  1.1689 -2.0466  0.3500
25565SOL    HW283557   4.991   6.166   9.058  1.7922  1.8064 -1.9625
25566SOL     OW83558   7.857   9.489   1.857 -0.1792 -1.0620 -0.7337
25566SOL    HW183559   7.856   9.559   1.792 -1.7094  0.1303  0.4643
25566SOL    HW283560   7.766   9.459   1.862  0.3265 -2.6948 -0.7330
25567SOL     OW83561  12.048   1.539   3.090 -0.7149  0.0526 -0.9164
25567SOL    HW183562  12.136   1.574   3.103 -0.3910 -0.5153 -1.5026
25567SOL    HW283563  11.990   1.605   3.128  0.0361 -0.6062  1.5392
25568SOL     OW83564   4.910   8.012   8.364 -0.0858  0.1967  0.0720
25568SOL    HW183565   4.940   8.096   8.332 -0.4482  0.1997 -0.2563
25568SOL    HW283566   4.858   7.975   8.293  0.4946 -0.5338  0.0112
25569SOL     OW83567   3.744   9.810   8.916 -0.3969 -0.4774 -0.0816
25569SOL    HW183568   3.708   9.881   8.862 -1.1214  0.2157  1.2716
25569SOL    HW283569   3.754   9.737   8.855 -2.7343 -0.2451 -0.8533
25570SOL     OW83570  10.259   8.125   4.915 -0.4143 -0.3674  0.2537
25570SOL    HW183571  10.244   8.217   4.894 -0.9838 -0.2521  1.1309
25570SOL    HW283572  10.354   8.117   4.919 -0.3320 -0.0453 -0.7770
25571SOL     OW83573   0.843  11.054   8.663  0.1562  0.0924  0.6052
25571SOL    HW183574   0.748  11.067   8.668 -0.4633 -2.8051 -1.0861
25571SOL    HW283575   0.864  11.066   8.570  1.3977  0.3417  0.9019
25572SOL     OW83576   9.277  11.178   2.568 -0.2281 -0.2816 -0.1838
25572SOL    HW183577   9.202  11.139   2.524 -0.2480  0.4495 -0.8314
25572SOL    HW283578   9.240  11.227   2.641 -0.6989  2.0509 -1.8563
25573SOL     OW83579   0.622   6.934  10.149 -0.2206  0.0389  0.3384
25573SOL    HW183580   0.553   6.992  10.182 -0.1168  1.1235 -1.2399
25573SOL    HW283581   0.576   6.857  10.117 -0.9533  1.3945 -2.1181
25574SOL     OW83582   0.117   4.372   8.971  0.4453 -0.1288 -0.2594
25574SOL    HW183583   0.077   4.361   8.885 -0.5535 -0.0738  0.1819
25574SOL    HW283584   0.053   4.335   9.032 -0.1673  2.2986  0.7132
25575SOL     OW83585   4.539   9.529   7.518  0.0183  0.0536  0.3907
25575SOL    HW183586   4.580   9.616   7.513 -1.7138  0.9027  0.2563
25575SOL    HW283587   4.480   9.526   7.443 -0.0546 -1.2118  0.4742
25576SOL     OW83588   0.580  11.521  11.058  0.3722 -0.4094  0.0275
25576SOL    HW183589   0.501  11.522  11.112  0.9476  1.9596  0.9292
25576SOL    HW283590   0.649  11.490  11.117  0.4490 -0.8166 -0.2687
25577SOL     OW83591   6.660   1.630   6.430 -0.1446 -0.0929 -0.1708
25577SOL    HW183592   6.746   1.645   6.390 -1.0407  1.1603 -1.7385
25577SOL    HW283593   6.606   1.702   6.397 -1.8037 -0.8661  0.7826
25578SOL     OW83594   6.815   1.568   3.519 -0.7048 -0.0590 -0.5594
25578SOL    HW183595   6.869   1.625   3.573 -2.1693 -0.3811  1.3632
25578SOL    HW283596   6.738   1.621   3.498 -0.4399 -0.1534 -1.8198
25579SOL     OW83597   5.149   5.946   7.999  0.3590 -0.1524  0.4277
25579SOL    HW183598   5.234   5.931   8.041  1.5506  0.5805 -1.5675
25579SOL    HW283599   5.162   6.025   7.947 -1.6920  0.1880  0.3587
25580SOL     OW83600   8.309   6.268   9.136  0.3839  0.0257  0.0664
25580SOL    HW183601   8.282   6.266   9.228  1.0975  0.1799  0.2835
25580SOL    HW283602   8.238   6.314   9.091 -0.3212 -0.6986  0.4120
25581SOL     OW83603  12.447   3.625   7.940  0.5211 -0.3881  0.3190
25581SOL    HW183604  12.356   3.615   7.914  0.7657  1.0566 -1.2391
25581SOL    HW283605  12.452   3.712   7.979  1.1199 -0.6738  0.8926
25582SOL     OW83606  10.415   1.086   3.801  0.2151 -0.2579 -0.1414
25582SOL    HW183607  10.493   1.094   3.746 -0.3976 -0.2824 -1.0445
25582SOL    HW283608  10.428   1.150   3.870  0.6284  0.3847 -0.7952
25583SOL     OW83609  12.407   5.336  10.523  0.0980 -0.1019 -0.4193
25583SOL    HW183610  12.369   5.286  10.596  0.5172  1.4048  0.8894
25583SOL    HW283611  12.399   5.278  10.448 -2.2852 -0.9087  0.3612
25584SOL     OW83612   8.423   5.903   8.497  0.1508 -0.1111 -0.2573
25584SOL    HW183613   8.411   5.913   8.591  1.2889 -1.8550  0.1359
25584SOL    HW283614   8.467   5.983   8.469  1.7159 -0.4196  1.1302
25585SOL     OW83615   4.109  11.039   3.310 -0.4270  0.2457  0.0300
25585SOL    HW183616   4.047  11.084   3.368  0.2451  1.7467 -0.3605
25585SOL    HW283617   4.081  11.064   3.222  0.2246  0.2546 -0.1787
25586SOL     OW83618   7.581   6.185  10.751  0.9381 -0.1518 -0.3514
25586SOL    HW183619   7.512   6.133  10.793  1.8715 -0.0390  1.4225
25586SOL    HW283620   7.539   6.224  10.675 -0.3569 -1.8282 -0.5578
25587SOL     OW83621   2.743   5.048   3.744 -0.0352 -0.1928 -0.1308
25587SOL    HW183622   2.834   5.046   3.773 -0.5035  0.3966  1.4906
25587SOL    HW283623   2.733   4.969   3.691  1.1046 -0.9231  0.6877
25588SOL     OW83624   4.100   5.923   6.109 -0.0751  0.2034  0.2472
25588SOL    HW183625   4.070   5.856   6.170  2.1328  0.9328  2.2621
25588SOL    HW283626   4.021   5.972   6.086 -1.2977 -1.4211  0.7747
25589SOL     OW83627   1.534   1.998   0.114 -0.4574  0.1071  0.0609
25589SOL    HW183628   1.534   2.088   0.081 -1.5825 -0.6399 -2.1568
25589SOL    HW283629   1.442   1.975   0.125 -0.1632 -0.1705  2.5754
25590SOL     OW83630   3.401   8.395  11.699 -0.1316 -0.4743  0.3923
25590SOL    HW183631   3.352   8.476  11.688 -0.3855 -0.9001 -2.2384
25590SOL    HW283632   3.492   8.419  11.684 -0.0964 -0.5308  0.5095
25591SOL     OW83633   9.607   2.916   5.709 -0.2910 -0.3939 -0.2281
25591SOL    HW183634   9.557   2.865   5.772 -0.6080 -1.2465 -1.1580
25591SOL    HW283635   9.697   2.912   5.742 -0.4932 -0.5822  0.3248
25592SOL     OW83636  11.343   4.329   5.419 -0.2014 -0.4020  0.1133
25592SOL    HW183637  11.262   4.292   5.454 -0.5869  1.1186  0.9258
25592SOL    HW283638  11.412   4.289   5.471 -0.6359  0.2232  1.2138
25593SOL     OW83639  12.123  11.935   5.644  0.0759 -0.5137 -0.0315
25593SOL    HW183640  12.032  11.942   5.674  0.4495  3.0755  0.6920
25593SOL    HW283641  12.119  11.962   5.552  0.6169  2.3786  0.6946
25594SOL     OW83642   0.703   1.744  11.419  0.1521  0.5376 -0.0474
25594SOL    HW183643   0.739   1.742  11.507 -2.9377  0.9242  1.3504
25594SOL    HW283644   0.637   1.813  11.421 -2.2253 -1.5151 -1.6842
25595SOL     OW83645   0.953   2.025   2.803 -0.3032  0.7222  0.0022
25595SOL    HW183646   0.966   2.018   2.708  1.5754 -0.4162  0.2957
25595SOL    HW283647   0.934   1.936   2.831  1.5654  0.5698  0.9540
25596SOL     OW83648   5.535   1.569   2.293 -0.3929  0.1337  0.3595
25596SOL    HW183649   5.497   1.654   2.269 -0.7582 -0.2422 -0.4060
25596SOL    HW283650   5.630   1.584   2.292 -0.4702  0.7011  0.8745
25597SOL     OW83651   8.195   4.828   4.881  0.0653 -0.1841 -0.2236
25597SOL    HW183652   8.211   4.846   4.788 -0.7349  1.6311 -0.0455
25597SOL    HW283653   8.154   4.908   4.914 -1.2120 -1.4337  1.3216
25598SOL     OW83654   0.383   7.849   8.182  0.0953 -0.4652  0.2104
25598SOL    HW183655   0.420   7.864   8.094 -0.0396  0.9326  0.3805
25598SOL    HW283656   0.289   7.855   8.170  0.0007 -1.7236  0.2048
25599SOL     OW83657   7.172   8.764   2.633 -0.1142  0.3771  0.5133
25599SOL    HW183658   7.209   8.735   2.550 -0.0601  0.0895  0.6377
25599SOL    HW283659   7.137   8.685   2.673 -1.1620  0.6998  0.2511
25600SOL     OW83660   6.658   8.729   7.678  0.6501 -0.2146  0.1875
25600SOL    HW183661   6.663   8.693   7.766 -0.2702  0.5389  0.5584
25600SOL    HW283662   6.620   8.816   7.689  0.2669 -0.2159 -0.9764
25601SOL     OW83663   1.552   6.296  10.116  0.6260  0.2127 -0.4788
25601SOL    HW183664   1.549   6.314  10.022 -2.7201  0.6513 -0.4261
25601SOL    HW283665   1.520   6.377  10.157 -1.9221 -1.2352  0.6762
25602SOL     OW83666   9.338   6.249   2.464  0.4456 -0.2688  0.1752
25602SOL    HW183667   9.296   6.190   2.402  1.0719  0.4268 -0.9522
25602SOL    HW283668   9.306   6.222   2.550 -3.0328  0.7583 -0.6395
25603SOL     OW83669   6.308   6.754   9.567  0.0836 -0.0386 -0.0226
25603SOL    HW183670   6.254   6.814   9.620  1.2144  0.9090  0.1143
25603SOL    HW283671   6.354   6.812   9.506  2.8339 -0.4372  1.5029
25604SOL     OW83672   8.028   9.112  12.152 -0.5980  0.4173 -0.2113
25604SOL    HW183673   8.104   9.106  12.209  0.8562  0.3063 -2.0460
25604SOL    HW283674   8.024   9.205  12.128 -0.5869  0.3020 -0.6737
25605SOL     OW83675   1.575  10.037  11.911 -0.2948 -0.3027  0.4469
25605SOL    HW183676   1.512  10.008  11.977 -0.9379 -2.2380 -0.9324
25605SOL    HW283677   1.548  10.127  11.890 -1.5313 -0.4945  1.1198
25606SOL     OW83678   3.837   3.052   9.936 -0.2989 -0.6466 -0.5503
25606SOL    HW183679   3.882   3.021   9.857 -2.0508 -3.5177 -0.5627
25606SOL    HW283680   3.902   3.043  10.006  0.2400 -1.3042 -1.1211
25607SOL     OW83681  11.146   9.140  12.012  0.0317  0.3223 -0.4062
25607SOL    HW183682  11.141   9.170  11.922 -0.1881  1.3499 -0.0689
25607SOL    HW283683  11.217   9.191  12.051 -0.7009  0.8355  0.3231
25608SOL     OW83684   8.304   8.616   6.454  0.4950  0.1589 -0.1003
25608SOL    HW183685   8.227   8.559   6.453 -0.0933  0.8934  1.0219
25608SOL    HW283686   8.357   8.586   6.379 -1.5188  0.5230 -1.7705
25609SOL     OW83687  10.506   1.022   8.527  0.2157 -0.0700 -0.6935
25609SOL    HW183688  10.596   0.992   8.512  0.4998  1.7730 -3.5737
25609SOL    HW283689  10.510   1.071   8.609  1.2798 -1.7769  0.3424
25610SOL     OW83690   6.013   6.498   4.916 -0.5260  0.4935 -0.2907
25610SOL    HW183691   6.063   6.575   4.944 -1.7383  2.0937 -2.2331
25610SOL    HW283692   5.923   6.517   4.943 -0.8594 -0.1887 -0.8964
25611SOL     OW83693   6.387   7.922   2.630  0.4872  0.5407 -0.0369
25611SOL    HW183694   6.343   7.943   2.548 -0.1265  0.1145  0.1837
25611SOL    HW283695   6.352   7.986   2.693 -0.2826 -0.1797  0.2827
25612SOL     OW83696   3.426  12.009   7.833 -0.5289 -0.2156  0.2004
25612SOL    HW183697   3.409  12.083   7.891  1.2122 -0.9312  1.7260
25612SOL    HW283698   3.393  11.933   7.881  0.1647 -0.7257 -0.1129
25613SOL     OW83699   1.577   4.102   5.646 -0.2689  0.1196  0.0141
25613SOL    HW183700   1.616   4.168   5.589  0.5280  0.5466  1.0398
25613SOL    HW283701   1.651   4.060   5.690 -0.9112  1.8344  2.9989
25614SOL     OW83702   9.285  10.245  10.753  0.1085 -0.1819 -0.3677
25614SOL    HW183703   9.355  10.282  10.807 -0.8819  0.2332  0.6956
25614SOL    HW283704   9.225  10.319  10.738  0.3104 -0.3146 -1.9922
25615SOL     OW83705  10.566  11.788   4.532  0.3669 -0.2146  0.4332
25615SOL    HW183706  10.551  11.877   4.502  1.8753  0.0302  0.3259
25615SOL    HW283707  10.485  11.763   4.576  0.2460  1.5444  1.2839
25616SOL     OW83708  11.635  11.079   6.587  0.0678 -0.0839 -0.0766
25616SOL    HW183709  11.630  11.157   6.533  0.5869  0.1683  0.2363
25616SOL    HW283710  11.588  11.012   6.537 -1.0490  0.6201 -0.0059
25617SOL     OW83711   6.876   7.523   8.077 -0.6930 -0.0958 -0.1086
25617SOL    HW183712   6.953   7.489   8.032 -2.2349 -2.6406 -1.0524
25617SOL    HW283713   6.824   7.565   8.008 -0.8412  0.3035  0.2373
25618SOL     OW83714  12.069  10.657   7.503  0.4168  0.2146  0.9944
25618SOL    HW183715  12.047  10.680   7.593 -0.8612 -2.9715  1.6367
25618SOL    HW283716  11.985  10.640   7.461  0.9893  1.6137 -0.8723
25619SOL     OW83717   6.029   4.267   5.341 -0.5674 -0.3503 -0.0926
25619SOL    HW183718   6.124   4.275   5.333 -0.4265 -2.1565 -0.6233
25619SOL    HW283719   6.013   4.267   5.435 -0.1503  0.7295  0.0015
25620SOL     OW83720   4.184   2.311   2.666 -0.1782  0.6060  0.0316
25620SOL    HW183721   4.267   2.350   2.638  0.9459 -0.5065  1.5774
25620SOL    HW283722   4.135   2.297   2.585  0.9914  1.6410 -0.8907
25621SOL     OW83723   2.814   5.484  10.441 -0.8254 -0.0706 -0.1365
25621SOL    HW183724   2.796   5.559  10.498 -1.0597 -0.5941  0.4918
25621SOL    HW283725   2.862   5.423  10.497  0.8448  0.2756 -1.0960
25622SOL     OW83726   4.430   0.120   4.492 -0.3092  0.3040 -0.5448
25622SOL    HW183727   4.457   0.109   4.400 -1.6204  1.3659 -1.0997
25622SOL    HW283728   4.482   0.194   4.523  0.1619 -0.0786 -0.4145
25623SOL     OW83729   4.607   1.153   4.140  0.2897 -0.8932  0.6612
25623SOL    HW183730   4.610   1.203   4.059  1.3650 -2.3799 -0.2581
25623SOL    HW283731   4.519   1.169   4.174  0.1679  0.5707 -0.2479
25624SOL     OW83732   8.702   8.849   5.642 -0.6805  0.7585  0.2081
25624SOL    HW183733   8.659   8.932   5.622 -1.6122  0.1892 -0.2256
25624SOL    HW283734   8.717   8.808   5.557 -0.2326  0.4729  0.4173
25625SOL     OW83735  12.157   6.244   2.305 -0.7303  0.0224 -0.8211
25625SOL    HW183736  12.133   6.235   2.213 -2.5300  1.4463 -0.5324
25625SOL    HW283737  12.253   6.253   2.304 -0.4546 -2.3282 -2.3147
25626SOL     OW83738   8.309   1.277   4.025  0.0386 -0.5522  0.0125
25626SOL    HW183739   8.304   1.283   3.930  0.9997  0.8793  0.0131
25626SOL    HW283740   8.396   1.311   4.046 -0.3137 -0.4695  1.4272
25627SOL     OW83741   0.737   0.822   0.510 -0.0690 -0.3775 -0.2828
25627SOL    HW183742   0.670   0.795   0.573 -0.9771  2.0800 -0.0925
25627SOL    HW283743   0.747   0.746   0.453 -1.3047 -1.6468  1.0996
25628SOL     OW83744  11.025   6.974   2.117 -0.5569 -0.3645 -0.1609
25628SOL    HW183745  11.041   6.884   2.145  1.7765  0.7646  2.6437
25628SOL    HW283746  10.960   7.007   2.178  0.4396  0.5180  0.4650
25629SOL     OW83747   6.337   3.511   8.093  0.2518 -0.4671  0.1922
25629SOL    HW183748   6.296   3.557   8.020 -0.2079  2.1804  1.9691
25629SOL    HW283749   6.269   3.452   8.125  0.0590 -0.7827 -0.7490
25630SOL     OW83750   7.097  11.448   4.136 -0.1813  0.3850  0.2801
25630SOL    HW183751   7.068  11.497   4.214  0.3690  1.1462  0.0104
25630SOL    HW283752   7.069  11.358   4.154 -0.7669  0.6940  1.0058
25631SOL     OW83753   4.942   6.682   1.019 -0.4968  0.1259  0.2614
25631SOL    HW183754   4.889   6.631   0.958 -1.1841 -0.3751  1.2344
25631SOL    HW283755   4.899   6.669   1.104  0.4493  0.7626  0.8594
25632SOL     OW83756  10.264  12.211   9.806  0.1677 -0.3596 -0.0181
25632SOL    HW183757  10.348  12.181   9.769  1.0892  2.1484 -0.1075
25632SOL    HW283758  10.285  12.240   9.894 -0.8298 -0.6229  0.3180
25633SOL     OW83759   0.342   2.528   5.447  0.0029  0.3923  0.2554
25633SOL    HW183760   0.400   2.454   5.429  1.0339  1.0534  0.7408
25633SOL    HW283761   0.344   2.538   5.542  1.0602  1.9246  0.1205
25634SOL     OW83762   4.918   2.117   2.104  0.3965  0.0040 -0.1129
25634SOL    HW183763   4.934   2.193   2.048 -0.8314  0.7728  0.5354
25634SOL    HW283764   4.922   2.152   2.193 -0.2115 -0.6950  0.1925
25635SOL     OW83765   6.161  11.430   3.214  0.0793 -0.1718  0.3105
25635SOL    HW183766   6.190  11.511   3.172  1.1419 -0.6353  0.1226
25635SOL    HW283767   6.172  11.363   3.147  0.0772 -0.6248  0.7568
25636SOL     OW83768   5.617   7.655   6.263  0.4285  0.4367  0.7461
25636SOL    HW183769   5.661   7.588   6.211 -0.6563  0.0905  0.2561
25636SOL    HW283770   5.567   7.605   6.328 -1.9518  0.6099 -0.8308
25637SOL     OW83771   8.009   6.399   5.235 -0.3311 -0.2642 -0.2470
25637SOL    HW183772   7.957   6.433   5.161 -0.5461  0.9161  0.4276
25637SOL    HW283773   8.063   6.472   5.262 -0.1829 -0.7209  0.7198
25638SOL     OW83774   6.393   2.953   5.891 -0.4973  0.1255 -0.0049
25638SOL    HW183775   6.440   2.962   5.808  1.8969 -0.2110  1.2134
25638SOL    HW283776   6.385   2.858   5.902 -1.1131  0.1781 -0.0051
25639SOL     OW83777   0.021   9.095   2.698 -0.8585 -0.8255 -0.0450
25639SOL    HW183778  -0.034   9.154   2.646  0.9601  2.2692  1.2852
25639SOL    HW283779  -0.017   9.098   2.786 -0.2387 -0.9512  0.2305
25640SOL     OW83780   2.020  11.746   2.999  0.2394  0.2612  0.4099
25640SOL    HW183781   2.001  11.653   2.982 -0.4926  0.7515 -1.9026
25640SOL    HW283782   2.074  11.773   2.924  1.7728  1.3690  1.8398
25641SOL     OW83783   5.466   0.851   2.168  0.3555  0.2346  0.0210
25641SOL    HW183784   5.431   0.768   2.201  0.0303  1.1351  2.0309
25641SOL    HW283785   5.542   0.870   2.223  0.8152  0.9714 -0.8322
25642SOL     OW83786   4.999   7.877   2.343  0.0166  0.4144  0.2741
25642SOL    HW183787   5.036   7.790   2.362 -1.4771 -0.4048 -0.4205
25642SOL    HW283788   5.073   7.928   2.309  0.5460 -1.1457 -1.0339
25643SOL     OW83789  12.093   6.451   9.991  0.4653 -0.5917  0.8901
25643SOL    HW183790  12.151   6.521   9.962 -0.2483 -0.8940 -1.4647
25643SOL    HW283791  12.151   6.377  10.009  0.9541 -0.4186  0.0756
25644SOL     OW83792   4.291   7.960   2.864 -0.3144 -0.2127  0.1704
25644SOL    HW183793   4.249   7.910   2.934  1.5911 -2.6668 -0.3044
25644SOL    HW283794   4.251   7.929   2.784 -0.4020  0.3893 -0.0216
25645SOL     OW83795   2.273   0.426   1.524 -0.0533 -0.2124 -0.2687
25645SOL    HW183796   2.195   0.440   1.579 -1.4749  1.1165 -2.4777
25645SOL    HW283797   2.242   0.439   1.435  2.6517 -0.0935 -1.2795
25646SOL     OW83798   1.665   7.797  11.261  0.0688  1.0760 -0.0875
25646SOL    HW183799   1.734   7.771  11.321  0.5419 -2.4307 -1.9014
25646SOL    HW283800   1.591   7.740  11.284  0.0573  0.1028 -2.2672
25647SOL     OW83801   3.430   6.518   5.442 -0.0539  0.4754  0.3871
25647SOL    HW183802   3.414   6.492   5.352  0.3397  1.9989 -0.1539
25647SOL    HW283803   3.479   6.445   5.480 -1.0354 -0.6036 -0.3251
25648SOL     OW83804   4.052   9.224  11.171 -0.0880 -0.1771  0.1132
25648SOL    HW183805   4.136   9.269  11.165 -0.4302  0.3037 -1.6005
25648SOL    HW283806   4.075   9.131  11.175  0.5503  0.0143  1.4394
25649SOL     OW83807   2.913   3.903   5.174 -0.0890  0.3515  0.9812
25649SOL    HW183808   2.911   3.992   5.138  1.1407  0.5588  1.3850
25649SOL    HW283809   2.933   3.847   5.099  0.2367  0.5390  0.9274
25650SOL     OW83810   5.200  11.835   7.739  0.4295  0.5330  0.1907
25650SOL    HW183811   5.262  11.869   7.674  0.2930  0.4493  0.0175
25650SOL    HW283812   5.224  11.743   7.749 -1.0451 -0.0941 -1.5045
25651SOL     OW83813   2.147   9.682   3.772  0.5544 -0.1731  0.1507
25651SOL    HW183814   2.219   9.634   3.732  0.6676  0.5881 -0.5758
25651SOL    HW283815   2.092   9.709   3.699 -0.7572 -1.1733  0.7229
25652SOL     OW83816   2.866   9.467   3.969 -0.0217 -0.3828  0.3388
25652SOL    HW183817   2.782   9.423   3.952  0.3636 -0.3945 -1.7050
25652SOL    HW283818   2.871   9.537   3.904  1.3106 -0.0244  0.7957
25653SOL     OW83819   8.948   6.601  12.329  0.2605 -0.0204  0.2356
25653SOL    HW183820   8.889   6.629  12.258 -0.7395  0.9669  1.4001
25653SOL    HW283821   8.998   6.529  12.291  0.2533  0.9055 -1.6952
25654SOL     OW83822   9.250   0.047  12.325 -0.0698  0.6899  0.4473
25654SOL    HW183823   9.230   0.075  12.415  0.5572 -0.6116  1.0115
25654SOL    HW283824   9.166   0.018  12.290 -0.0578 -0.2602  1.1645
25655SOL     OW83825   3.910  10.046   7.990 -0.4096 -0.4286  0.3804
25655SOL    HW183826   3.862  10.123   8.021 -0.9093 -0.6904  0.2654
25655SOL    HW283827   3.912  10.057   7.895 -1.0025 -0.8611  0.3184
25656SOL     OW83828  11.950   5.286   9.223  0.4594  0.1947  0.1105
25656SOL    HW183829  11.875   5.232   9.202 -0.6246  1.3804  0.8154
25656SOL    HW283830  12.013   5.269   9.152 -0.1225 -1.4147 -0.0460
25657SOL     OW83831   3.913   9.228   4.146  0.5671 -0.2774 -0.3176
25657SOL    HW183832   3.880   9.298   4.202 -0.7545  1.2421 -2.8246
25657SOL    HW283833   3.926   9.154   4.205 -0.8485  1.1763  1.9488
25658SOL     OW83834   5.474   2.509  11.568 -0.3456 -0.0687 -0.1552
25658SOL    HW183835   5.444   2.597  11.546  2.7154  1.0815 -0.1861
25658SOL    HW283836   5.526   2.520  11.648  0.8207 -1.6715 -0.6279
25659SOL     OW83837   2.733   1.580  11.096  0.5480  0.0313 -0.6138
25659SOL    HW183838   2.642   1.602  11.076  0.3554 -0.2414 -0.0564
25659SOL    HW283839   2.761   1.648  11.158  1.3393  1.2429 -2.2116
25660SOL     OW83840   8.721  10.510   9.967  0.6563 -0.2700 -0.3607
25660SOL    HW183841   8.693  10.475   9.883 -0.4780 -2.1951  0.7616
25660SOL    HW283842   8.642  10.511  10.021  1.7060 -0.8980  1.2658
25661SOL     OW83843   9.494   8.732   3.842  0.5924  0.1715 -0.2113
25661SOL    HW183844   9.460   8.661   3.897  0.9871  1.2240  1.4762
25661SOL    HW283845   9.589   8.717   3.839  0.5562  0.0511 -0.6941
25662SOL     OW83846   6.641   4.918   5.597  0.6895  0.4599 -0.2345
25662SOL    HW183847   6.677   4.997   5.556 -0.4582  1.2560  0.2414
25662SOL    HW283848   6.556   4.905   5.555  0.1923  0.3725  0.7619
25663SOL     OW83849   0.895  10.008  10.395 -0.3996 -0.1271 -0.1550
25663SOL    HW183850   0.829  10.033  10.330 -0.8547  1.1468  0.7697
25663SOL    HW283851   0.871  10.056  10.474  0.2577 -1.4912  0.9239
25664SOL     OW83852   6.395   2.237   7.802 -0.1198  0.4043 -0.8006
25664SOL    HW183853   6.371   2.270   7.888 -0.7799 -0.2917 -0.7047
25664SOL    HW283854   6.491   2.236   7.802 -0.0738 -1.9002  0.8573
25665SOL     OW83855   1.034  12.454   8.435  0.5976 -0.8729  0.3462
25665SOL    HW183856   1.011  12.533   8.482 -1.4253 -1.3172  0.1861
25665SOL    HW283857   1.089  12.484   8.363  2.1986  0.0198  1.8689
25666SOL     OW83858   5.276   9.893   5.482  0.2010  0.1713  0.1000
25666SOL    HW183859   5.312   9.982   5.484 -0.4224  0.4390 -0.4575
25666SOL    HW283860   5.201   9.898   5.424 -1.8016  0.0031  2.5196
25667SOL     OW83861  11.811   5.686  10.667  0.1652  0.8030 -0.7451
25667SOL    HW183862  11.888   5.739  10.687  0.5745  0.2839 -0.9502
25667SOL    HW283863  11.764   5.679  10.750  0.4261  0.9708 -0.5851
25668SOL     OW83864   5.338   0.377   1.594 -0.0727 -0.0538  0.0329
25668SOL    HW183865   5.328   0.405   1.503  0.8208  1.5816  0.3939
25668SOL    HW283866   5.415   0.320   1.593 -0.9219 -1.2350 -0.4412
25669SOL     OW83867   9.623   9.852   1.737 -0.0287 -0.0662 -0.0879
25669SOL    HW183868   9.690   9.796   1.698  0.3433 -0.7597  1.4658
25669SOL    HW283869   9.671   9.930   1.766 -0.0326 -0.2164  0.3242
25670SOL     OW83870   0.889   7.803  10.632  0.2739 -0.4158 -0.6707
25670SOL    HW183871   0.982   7.819  10.614  0.1259  2.8775  0.6667
25670SOL    HW283872   0.889   7.729  10.693  2.0665 -0.3339 -0.5068
25671SOL     OW83873   3.005   9.023   3.368  0.2761  0.0263 -0.4021
25671SOL    HW183874   3.099   9.019   3.385  0.4820 -1.3982 -1.6293
25671SOL    HW283875   2.965   8.982   3.446  0.6353  0.9026  0.2523
25672SOL     OW83876   2.425   5.608   7.924 -0.1729 -0.2031  0.0220
25672SOL    HW183877   2.442   5.665   7.850  0.8914 -0.7920 -0.2096
25672SOL    HW283878   2.330   5.597   7.925 -0.2446  0.2757 -0.8949
25673SOL     OW83879   8.783   4.227   6.296 -0.2983 -0.1688 -0.0519
25673SOL    HW183880   8.870   4.186   6.292  0.1480  0.7233  0.2326
25673SOL    HW283881   8.763   4.247   6.204 -0.5455 -1.0544 -0.1998
25674SOL     OW83882  11.861   3.539   0.400 -0.0416 -0.1612  0.8785
25674SOL    HW183883  11.779   3.582   0.422 -1.7455 -2.2678 -0.8905
25674SOL    HW283884  11.876   3.561   0.308  0.2205 -1.4416  0.5863
25675SOL     OW83885  12.381   2.461   5.135  0.3064  0.2421  0.2376
25675SOL    HW183886  12.386   2.393   5.069  0.7271 -2.7117  3.0644
25675SOL    HW283887  12.320   2.525   5.099 -0.2187 -1.6531 -2.5420
25676SOL     OW83888   7.751   7.921   9.627 -0.3505 -0.5355 -0.4701
25676SOL    HW183889   7.797   7.958   9.702  0.4262 -1.0421 -0.6881
25676SOL    HW283890   7.679   7.982   9.610 -0.9217 -0.7316  1.0774
25677SOL     OW83891  11.923   5.120   5.023  0.2654 -0.2645  0.0021
25677SOL    HW183892  11.885   5.197   5.065 -0.1297 -0.2168 -0.4363
25677SOL    HW283893  11.894   5.047   5.077  0.8450 -0.0924  0.5628
25678SOL     OW83894   2.995   0.783   0.255 -0.3001  0.1060  0.1786
25678SOL    HW183895   2.936   0.836   0.202 -0.3040 -1.6102 -1.6272
25678SOL    HW283896   3.082   0.804   0.222 -0.1184  0.5101  0.8936
25679SOL     OW83897   9.843   4.821   8.473  0.5550  0.4651  0.2313
25679SOL    HW183898   9.778   4.777   8.419  0.5054 -0.1414  0.7769
25679SOL    HW283899   9.803   4.906   8.494  1.0733  1.2402 -1.6780
25680SOL     OW83900   6.406   7.871   2.226  0.2983  0.2879 -0.0667
25680SOL    HW183901   6.313   7.879   2.208  0.0441  1.3439  1.4446
25680SOL    HW283902   6.417   7.913   2.312  1.9108 -1.2056  0.5223
25681SOL     OW83903  12.460   1.971   3.492 -0.0395 -0.6756  0.0696
25681SOL    HW183904  12.433   2.000   3.579 -1.6130 -1.8062  0.0153
25681SOL    HW283905  12.433   1.879   3.489  1.7251 -1.2030 -0.9420
25682SOL     OW83906   1.066   2.456   1.353  0.5222 -0.0285  0.1612
25682SOL    HW183907   1.151   2.496   1.332 -0.3075  0.4307 -2.8898
25682SOL    HW283908   1.085   2.363   1.364  1.6621  0.3345  1.4233
25683SOL     OW83909   6.238   3.282  12.201 -0.5884  0.1873 -0.5543
25683SOL    HW183910   6.325   3.270  12.163  0.2472  0.3561  1.2022
25683SOL    HW283911   6.185   3.212  12.162  0.4175 -0.1377 -1.3818
25684SOL     OW83912   3.681   8.042   8.765  0.2563 -0.4135  0.0275
25684SOL    HW183913   3.705   7.953   8.739  0.3263 -0.0510 -1.2439
25684SOL    HW283914   3.588   8.049   8.742  0.8013  0.5744 -2.2027
25685SOL     OW83915   3.565   7.133  12.396  0.1979 -0.5336  0.4485
25685SOL    HW183916   3.532   7.162  12.310  0.7778 -0.8886  0.1057
25685SOL    HW283917   3.495   7.157  12.457 -0.5803 -0.9977 -0.2317
25686SOL     OW83918   9.037   9.807   6.571 -0.4385 -0.1725  0.3421
25686SOL    HW183919   9.054   9.715   6.591 -0.2482 -0.8088 -2.3194
25686SOL    HW283920   8.942   9.817   6.577 -0.3526 -0.1577  1.9607
25687SOL     OW83921  11.209   7.975   4.203 -0.2633 -0.0094 -0.0636
25687SOL    HW183922  11.135   8.025   4.238 -1.8219 -0.9333 -1.8053
25687SOL    HW283923  11.196   7.977   4.109  1.0276 -1.5869 -0.3131
25688SOL     OW83924   3.475   3.195   0.601 -0.3673 -0.7203  0.0936
25688SOL    HW183925   3.491   3.200   0.507  0.3738  0.5881  0.2660
25688SOL    HW283926   3.448   3.104   0.616  1.4539 -1.5280 -1.1033
25689SOL     OW83927   2.450   7.205   7.294  0.7858 -0.3623 -0.0379
25689SOL    HW183928   2.363   7.238   7.273  1.1691  0.3644 -0.5185
25689SOL    HW283929   2.435   7.140   7.363 -0.2049 -0.7669 -0.6123
25690SOL     OW83930   9.925  10.706   8.074 -0.3059 -0.1558 -0.2811
25690SOL    HW183931   9.894  10.681   8.161 -0.0427  0.7949  0.0974
25690SOL    HW283932  10.021  10.709   8.082 -0.3558  2.3467  0.1170
25691SOL     OW83933   9.059   1.609  10.438  0.2781 -0.1730  0.3445
25691SOL    HW183934   9.004   1.687  10.429  1.0777  0.1289 -3.3102
25691SOL    HW283935   9.111   1.626  10.517 -0.3187  2.5195  0.2655
25692SOL     OW83936   5.457   2.191   6.905  0.1831  0.5551  0.5426
25692SOL    HW183937   5.415   2.262   6.954  3.1829  1.2846  2.2857
25692SOL    HW283938   5.469   2.226   6.817 -2.0117  0.5923  0.1938
25693SOL     OW83939   0.817   9.649   3.084  0.5313  0.4844  0.2743
25693SOL    HW183940   0.801   9.713   3.154 -0.5915 -0.3729  0.8298
25693SOL    HW283941   0.857   9.574   3.129 -0.9607 -0.4025  0.1547
25694SOL     OW83942   2.075  11.929   9.493 -0.2449  0.3459 -0.1545
25694SOL    HW183943   2.147  11.969   9.542  0.5857  0.1119 -1.1525
25694SOL    HW283944   2.110  11.845   9.464 -1.5179 -0.5509  0.7890
25695SOL     OW83945  12.404  10.790   8.461 -0.4983  0.2490 -0.0239
25695SOL    HW183946  12.343  10.739   8.514  0.1738 -0.5162  0.0492
25695SOL    HW283947  12.411  10.741   8.379 -0.0147  0.3450 -0.0429
25696SOL     OW83948   2.878   3.460  11.201  0.3499 -0.2578  0.6143
25696SOL    HW183949   2.851   3.436  11.290  1.5258  1.4768  1.4855
25696SOL    HW283950   2.916   3.547  11.210  1.9121 -0.6712 -1.3433
25697SOL     OW83951   1.728   6.106   4.228  0.4890 -0.2479 -0.0210
25697SOL    HW183952   1.785   6.088   4.153  0.3647 -0.2514 -0.1141
25697SOL    HW283953   1.773   6.176   4.275 -0.4520  1.2103 -1.2166
25698SOL     OW83954   5.467   3.498   7.448 -0.4114  0.4401  1.0279
25698SOL    HW183955   5.519   3.535   7.520 -0.7531 -0.3090  1.6682
25698SOL    HW283956   5.498   3.408   7.440  0.0873  0.7015 -0.2213
25699SOL     OW83957   0.695   9.046   3.820  0.0768  0.0591  0.2120
25699SOL    HW183958   0.635   9.116   3.794 -0.1474  0.1734  1.0234
25699SOL    HW283959   0.758   9.088   3.878  1.9684  0.3127 -1.8763
25700SOL     OW83960  11.522   9.570   4.150  0.3565  0.5842  0.1705
25700SOL    HW183961  11.494   9.484   4.120  1.5110  0.2988 -0.1281
25700SOL    HW283962  11.519   9.564   4.246 -0.4080  0.5091  0.1470
25701SOL     OW83963   5.974   7.724  12.426 -0.0723  0.7473  0.1301
25701SOL    HW183964   5.935   7.722  12.338 -0.9298 -0.7562  0.5010
25701SOL    HW283965   5.913   7.675  12.480  1.3182  0.0984  1.1912
25702SOL     OW83966   7.658   4.640  11.287  0.1805  0.3630 -0.4074
25702SOL    HW183967   7.582   4.639  11.345  0.4139  1.1288 -0.0925
25702SOL    HW283968   7.680   4.547  11.275 -0.1877  0.1812  0.3017
25703SOL     OW83969   4.826   5.534  11.931  0.6317 -0.3408 -0.1364
25703SOL    HW183970   4.733   5.523  11.949  0.7829 -2.2014 -0.3158
25703SOL    HW283971   4.834   5.519  11.837  1.1568 -0.5119 -0.0693
25704SOL     OW83972   6.929   8.760   7.616 -0.0014  0.1582  0.0596
25704SOL    HW183973   6.841   8.722   7.619  0.0818  0.0293  2.1970
25704SOL    HW283974   6.987   8.684   7.614  0.0865  0.2416 -0.9579
25705SOL     OW83975   2.191   6.309  11.317 -0.0965  0.4264 -0.3507
25705SOL    HW183976   2.154   6.381  11.367  0.3198 -0.0720  0.7079
25705SOL    HW283977   2.116   6.257  11.289 -0.4566  1.6611 -1.7769
25706SOL     OW83978   4.567   3.032   6.918  0.4909  0.8102 -0.3433
25706SOL    HW183979   4.522   3.001   6.997 -0.2156 -0.7608 -1.3287
25706SOL    HW283980   4.517   2.994   6.845  2.0719  0.9121 -1.5272
25707SOL     OW83981   4.888   8.845  11.177 -0.6124 -0.3114  0.4530
25707SOL    HW183982   4.875   8.923  11.124  1.2817 -0.7053 -0.6977
25707SOL    HW283983   4.936   8.876  11.254  3.0327 -0.6243 -1.4601
25708SOL     OW83984   9.701   9.349  11.839 -0.1949 -0.2963  0.0498
25708SOL    HW183985   9.653   9.364  11.921  0.2588 -0.1738  0.2939
25708SOL    HW283986   9.752   9.270  11.856  2.4335  1.4767  1.0685
25709SOL     OW83987  11.980   3.642   9.360 -0.0289 -0.3100  0.0228
25709SOL    HW183988  11.918   3.599   9.301 -0.2831  2.5578 -1.9568
25709SOL    HW283989  12.066   3.621   9.324 -0.0408 -0.6673  0.1912
25710SOL     OW83990   9.904   6.756   0.594  0.0080  0.6454  0.2461
25710SOL    HW183991   9.841   6.786   0.659  1.2046  2.1708  0.7695
25710SOL    HW283992   9.980   6.813   0.607  2.0585 -1.9900  0.5895
25711SOL     OW83993   9.209   7.349   5.254  0.3112 -0.2755  0.0131
25711SOL    HW183994   9.284   7.352   5.314 -1.5946  0.4052  2.5732
25711SOL    HW283995   9.176   7.260   5.262 -0.8283  0.2171  1.2624
25712SOL     OW83996   6.613  11.206   2.557 -0.7764 -0.4362  0.0100
25712SOL    HW183997   6.521  11.231   2.568 -0.2887  2.1758 -1.2503
25712SOL    HW283998   6.610  11.130   2.499 -2.1128  1.5200 -2.7067
25713SOL     OW83999   9.158   1.975   4.793  0.5771 -0.0762  0.0829
25713SOL    HW184000   9.094   1.907   4.815 -2.4482  2.0988 -1.2529
25713SOL    HW284001   9.188   1.952   4.705  5.1497 -3.3586  2.0908
25714SOL     OW84002   1.883   8.448   2.055  0.3395 -0.4337 -0.0779
25714SOL    HW184003   1.882   8.541   2.032  1.3987 -0.6344 -1.0427
25714SOL    HW284004   1.968   8.435   2.097 -0.0095 -0.8643  0.5006
25715SOL     OW84005   8.908   8.497   9.204  0.0836 -0.5106 -0.2441
25715SOL    HW184006   8.867   8.492   9.117  1.8435 -1.0688 -1.0857
25715SOL    HW284007   8.838   8.472   9.264 -1.1524 -0.2291 -1.5006
25716SOL     OW84008   9.643   6.550   5.198  0.6172 -0.7717 -0.1118
25716SOL    HW184009   9.715   6.576   5.141 -0.1509 -0.3664 -0.9454
25716SOL    HW284010   9.570   6.606   5.171 -0.0897 -1.3644  0.5012
25717SOL     OW84011   9.668   6.195  10.780  0.1288  0.0295  0.0812
25717SOL    HW184012   9.650   6.148  10.862 -1.0029  0.5200  0.1162
25717SOL    HW284013   9.616   6.149  10.714  1.3484 -0.6206 -0.4686
25718SOL     OW84014   8.806   5.016   2.361 -0.1882 -0.2301  0.0175
25718SOL    HW184015   8.894   5.038   2.329 -0.3085  3.2712  1.6577
25718SOL    HW284016   8.820   4.984   2.450 -0.5628  0.4629  0.3311
25719SOL     OW84017   5.929   1.873   1.656  0.5463  0.4302  0.8269
25719SOL    HW184018   5.966   1.957   1.627  2.4784 -0.7260 -0.2646
25719SOL    HW284019   5.961   1.863   1.745  0.8807  0.5570  0.7242
25720SOL     OW84020   0.761   5.617   0.872 -0.1917 -0.5446  0.2676
25720SOL    HW184021   0.667   5.600   0.862 -0.0641 -2.0067  1.2838
25720SOL    HW284022   0.791   5.550   0.933  1.0680  1.3275  1.8255
25721SOL     OW84023   2.141   7.802   4.471  0.5381  0.0501 -0.4672
25721SOL    HW184024   2.058   7.814   4.426 -0.0939  1.6826  0.9979
25721SOL    HW284025   2.151   7.882   4.523  1.7641 -1.2158  1.3462
25722SOL     OW84026   8.933   7.148  10.704  0.6142 -0.1675 -0.3875
25722SOL    HW184027   8.964   7.222  10.756 -0.9445 -0.3202  0.8280
25722SOL    HW284028   8.986   7.074  10.735  1.8272  0.2945 -1.2539
25723SOL     OW84029  12.272   1.612   5.504  0.2526  0.2725 -0.3923
25723SOL    HW184030  12.268   1.517   5.492 -0.8633  0.1452  0.6804
25723SOL    HW284031  12.180   1.638   5.511  0.5764  1.2620  0.4214
25724SOL     OW84032   6.573  11.212   8.669  0.0985  0.3437  0.2816
25724SOL    HW184033   6.521  11.272   8.722  0.3289  0.3670  0.4806
25724SOL    HW284034   6.526  11.129   8.673  0.1148  0.3459  0.5192
25725SOL     OW84035   3.670   8.306   5.003  0.7696 -0.0669 -0.1556
25725SOL    HW184036   3.581   8.273   5.012  0.7256  0.3480  1.0476
25725SOL    HW284037   3.665   8.367   4.929  0.6175 -1.8361 -1.6936
25726SOL     OW84038  11.870  10.451   9.850  0.1923 -0.6106  0.4346
25726SOL    HW184039  11.780  10.474   9.827  0.2614 -1.4893 -0.7650
25726SOL    HW284040  11.863  10.419   9.941 -0.7144 -0.7134  0.3425
25727SOL     OW84041  10.157   0.262   6.693  0.6329 -0.4396  0.3267
25727SOL    HW184042  10.209   0.264   6.612 -0.4290 -0.7870 -0.3822
25727SOL    HW284043  10.160   0.171   6.721  0.7207 -0.3846  0.4958
25728SOL     OW84044  10.340   2.073   4.250  0.2550  0.3063 -0.5511
25728SOL    HW184045  10.341   1.978   4.243  3.4009  0.2554 -0.6761
25728SOL    HW284046  10.377   2.091   4.337 -0.9779  1.4420 -0.2205
25729SOL     OW84047  10.690   1.921  11.734 -0.4398 -0.2844  0.4768
25729SOL    HW184048  10.779   1.949  11.754 -0.8247  1.0662  0.4103
25729SOL    HW284049  10.698   1.876  11.650  0.0947  0.4062  0.1411
25730SOL     OW84050   3.055   4.871   3.426 -0.0539 -0.7802 -0.1739
25730SOL    HW184051   3.075   4.809   3.496 -0.4322 -0.1770  0.4795
25730SOL    HW284052   3.016   4.946   3.471 -1.4037 -0.8688 -1.1456
25731SOL     OW84053   1.748   9.481   5.106 -0.4301  0.1613 -0.7190
25731SOL    HW184054   1.790   9.504   5.188 -0.3315  0.4766 -0.8582
25731SOL    HW284055   1.748   9.385   5.105 -1.0119  0.1489 -0.0568
25732SOL     OW84056   2.125  10.070   0.894 -0.2216  0.0741  0.3665
25732SOL    HW184057   2.083  10.016   0.827 -0.8657  1.3756 -0.2960
25732SOL    HW284058   2.214  10.034   0.900  0.0767  0.3460 -1.6722
25733SOL     OW84059   2.586   9.102   2.684 -0.4230  0.1796 -0.8906
25733SOL    HW184060   2.638   9.080   2.607 -0.2177  1.3121 -1.0899
25733SOL    HW284061   2.551   9.189   2.665 -2.0806 -0.3841 -0.5962
25734SOL     OW84062   7.405   4.543   1.285 -0.0467 -0.0636 -0.1226
25734SOL    HW184063   7.484   4.591   1.261 -0.5678  0.3031 -1.1410
25734SOL    HW284064   7.411   4.461   1.236 -1.0486  0.6313 -1.4596
25735SOL     OW84065   0.808   3.689  11.488  0.3231  0.2829 -0.3872
25735SOL    HW184066   0.811   3.607  11.440  2.4903  0.6823 -1.0293
25735SOL    HW284067   0.893   3.694  11.532 -0.7188  1.0184  1.6946
25736SOL     OW84068   8.938   6.819  11.466 -0.1853 -0.2713  0.3118
25736SOL    HW184069   8.959   6.909  11.492  2.9244 -0.8673  0.2502
25736SOL    HW284070   9.023   6.774  11.464 -1.2424 -2.4543 -2.5536
25737SOL     OW84071   1.403  10.528  10.917  0.1277 -0.3236  0.0030
25737SOL    HW184072   1.328  10.559  10.866 -0.1486 -0.6446  0.2121
25737SOL    HW284073   1.367  10.505  11.002  0.6963  0.8043  0.5734
25738SOL     OW84074   1.865   7.037   1.086  0.7543 -0.4183 -0.1907
25738SOL    HW184075   1.956   7.047   1.114  0.8876 -0.6374 -0.5394
25738SOL    HW284076   1.842   7.123   1.050  0.8040 -0.3466 -0.0557
25739SOL     OW84077   5.611   2.514  11.240 -0.1510 -0.5117 -0.0183
25739SOL    HW184078   5.605   2.429  11.284  1.0150  0.4531  2.1801
25739SOL    HW284079   5.522   2.532  11.210 -0.6562 -2.0040  0.4981
25740SOL     OW84080   5.086  11.318   7.388 -0.2800  0.1652  0.0434
25740SOL    HW184081   5.072  11.229   7.420  1.9755 -0.8624 -1.5538
25740SOL    HW284082   5.047  11.374   7.455 -0.4396 -1.9617  1.8429
25741SOL     OW84083  11.875  10.020   1.036  0.3047 -0.2878  0.2625
25741SOL    HW184084  11.904  10.099   1.082 -0.2399  0.3899 -0.5121
25741SOL    HW284085  11.940  10.007   0.967  0.0484 -0.1413 -0.0084
25742SOL     OW84086   4.682   1.640   0.626  0.3459  0.6112 -0.7717
25742SOL    HW184087   4.651   1.585   0.554  0.7650  0.6032 -0.9448
25742SOL    HW284088   4.607   1.644   0.686  0.4240 -0.4247 -0.5876
25743SOL     OW84089   4.320   1.870   3.588  0.3806  0.1432  0.1433
25743SOL    HW184090   4.278   1.922   3.656  1.8720  0.0819  1.1611
25743SOL    HW284091   4.284   1.782   3.599 -2.2847  0.8787 -1.6946
25744SOL     OW84092   3.335   0.140   3.411  0.0343  0.4321 -0.7412
25744SOL    HW184093   3.289   0.057   3.418  0.5608  0.1375 -0.7279
25744SOL    HW284094   3.390   0.144   3.490 -1.0003  1.4244 -0.0437
25745SOL     OW84095   3.875   7.562   7.357  0.7224 -0.7171  0.7199
25745SOL    HW184096   3.935   7.579   7.429 -0.7323 -1.0654  2.0775
25745SOL    HW284097   3.824   7.487   7.386 -0.2540 -0.5404 -0.4569
25746SOL     OW84098   2.165   3.778  11.950  0.7404 -0.5626 -0.1836
25746SOL    HW184099   2.149   3.683  11.950  0.2884 -0.5072 -1.1753
25746SOL    HW284100   2.078   3.816  11.962  0.8180 -0.2773 -0.5094
25747SOL     OW84101   9.307  10.234  11.549  0.1720 -0.4413  0.4543
25747SOL    HW184102   9.233  10.234  11.610 -0.5480  0.1999 -0.3966
25747SOL    HW284103   9.267  10.214  11.464  0.4534  2.8922 -0.5913
25748SOL     OW84104   1.873  11.565  11.404  0.2949 -0.4613 -0.1430
25748SOL    HW184105   1.779  11.559  11.420  0.1787 -2.0074 -1.2005
25748SOL    HW284106   1.884  11.535  11.314  1.7939 -0.2240 -0.0603
25749SOL     OW84107   9.665   2.257   4.273  0.3643 -0.2250  0.4501
25749SOL    HW184108   9.586   2.206   4.292  0.0851 -1.4989 -3.1943
25749SOL    HW284109   9.736   2.209   4.316 -0.0580 -3.3193 -1.8783
25750SOL     OW84110   3.900   4.985  11.843  0.4286 -0.3739 -0.6322
25750SOL    HW184111   3.892   4.982  11.748  2.5611 -1.1281 -0.8426
25750SOL    HW284112   3.918   4.894  11.869  0.2380 -0.1175  0.4612
25751SOL     OW84113   3.561   3.449   3.171 -0.8854  0.1846  0.2109
25751SOL    HW184114   3.622   3.375   3.172  0.1977  0.9886 -1.6389
25751SOL    HW284115   3.477   3.409   3.149 -0.0919 -0.4148 -1.9635
25752SOL     OW84116   8.842   3.870   7.254  0.0794  0.3607 -0.0787
25752SOL    HW184117   8.910   3.873   7.186 -0.3663  0.7195 -0.5104
25752SOL    HW284118   8.771   3.818   7.216  0.5023 -0.8913  0.7510
25753SOL     OW84119   2.754  11.759   1.816 -0.1171  0.0235  0.0918
25753SOL    HW184120   2.670  11.715   1.816  0.7464 -1.7144 -0.9521
25753SOL    HW284121   2.816  11.695   1.852  0.9248  0.8883 -0.0873
25754SOL     OW84122   0.691   3.570  12.158 -0.1573  0.0243  0.0057
25754SOL    HW184123   0.737   3.650  12.133 -1.6382  0.8204 -0.2906
25754SOL    HW284124   0.666   3.584  12.249  2.7246 -1.6715  1.1813
25755SOL     OW84125   8.034   7.060   5.915 -0.3229  0.3182  0.2049
25755SOL    HW184126   8.042   7.120   5.840 -1.4936  2.1334  1.4351
25755SOL    HW284127   8.017   6.975   5.876 -0.6891  1.1732 -1.6114
25756SOL     OW84128  12.258  10.198   7.042 -0.2031 -0.7628  0.2720
25756SOL    HW184129  12.350  10.174   7.034  0.5564  2.1191 -0.8845
25756SOL    HW284130  12.245  10.216   7.135  0.6697 -0.2370  0.2935
25757SOL     OW84131   6.376   1.570  10.139 -0.0350 -0.7450  0.1841
25757SOL    HW184132   6.411   1.484  10.162  0.5000 -0.8366 -0.9093
25757SOL    HW284133   6.452   1.617  10.103 -0.3822  0.0914  0.5248
25758SOL     OW84134   6.575  12.376   2.465  0.0366 -0.3012  0.5573
25758SOL    HW184135   6.531  12.356   2.382 -0.9285 -0.1380  1.0087
25758SOL    HW284136   6.533  12.457   2.495  0.5556 -0.2188  1.0831
25759SOL     OW84137   1.373   8.359   0.251 -0.2252 -0.5676  0.0309
25759SOL    HW184138   1.428   8.287   0.218 -0.3401 -0.5918 -0.1064
25759SOL    HW284139   1.428   8.437   0.239  0.2796 -0.7447  1.0630
25760SOL     OW84140   5.850   6.640   5.329 -0.4811  0.1733  0.6677
25760SOL    HW184141   5.767   6.628   5.374 -2.3197  1.5870 -2.0483
25760SOL    HW284142   5.833   6.708   5.264  2.0586 -1.2541 -1.7510
25761SOL     OW84143   5.386   2.082   4.262 -0.5991 -0.0073  0.0986
25761SOL    HW184144   5.312   2.069   4.203 -2.0014  1.7061  1.3740
25761SOL    HW284145   5.406   1.995   4.296 -0.8994 -0.7542 -1.5430
25762SOL     OW84146   0.392   9.979   4.786  0.0642 -0.4653 -0.0749
25762SOL    HW184147   0.391   9.928   4.867  0.8330  1.8959  1.5330
25762SOL    HW284148   0.374   9.915   4.717 -1.6840 -2.3988  2.0103
25763SOL     OW84149  10.323   8.949   1.244  0.1331 -0.2394 -0.3428
25763SOL    HW184150  10.372   8.891   1.302  0.1181 -0.2246 -0.3153
25763SOL    HW284151  10.373   8.949   1.163 -1.0314 -2.0724 -1.1473
25764SOL     OW84152   8.995   0.401   2.925 -0.3252  0.1707 -0.2752
25764SOL    HW184153   9.024   0.491   2.939 -1.3913  0.5167 -0.2708
25764SOL    HW284154   9.076   0.349   2.932  0.2166  1.0606  0.2284
25765SOL     OW84155   5.828   6.764   2.062  0.2792  0.0857 -0.1552
25765SOL    HW184156   5.776   6.844   2.070  0.9283  0.7042 -1.6963
25765SOL    HW284157   5.918   6.795   2.054  0.6588 -0.8654  0.2805
25766SOL     OW84158   5.209  10.826   7.509 -0.7619 -0.0874  0.3845
25766SOL    HW184159   5.211  10.732   7.526 -2.0997  0.2601  2.7915
25766SOL    HW284160   5.218  10.867   7.595 -1.2790  1.9734 -0.4789
25767SOL     OW84161   2.724  12.016  11.736  0.4762  0.1980  0.1314
25767SOL    HW184162   2.693  11.993  11.649  0.1961  0.6462  0.1090
25767SOL    HW284163   2.649  12.002  11.794 -0.7318  3.7965 -0.2904
25768SOL     OW84164   4.831  11.205   4.720  0.1319 -1.2422  0.2869
25768SOL    HW184165   4.889  11.151   4.667  1.8521  0.6323  0.1208
25768SOL    HW284166   4.781  11.143   4.773  0.7818 -3.0114 -1.0894
25769SOL     OW84167   5.592   9.283  10.926 -0.6304  0.0071 -0.6424
25769SOL    HW184168   5.582   9.193  10.897  0.5787 -0.1063 -0.7895
25769SOL    HW284169   5.666   9.317  10.875  1.1267  0.0049  1.7131
25770SOL     OW84170   4.181   0.301   8.325  0.2754 -0.0624  0.1974
25770SOL    HW184171   4.117   0.317   8.394  1.6047 -1.9462  1.9868
25770SOL    HW284172   4.187   0.206   8.318  0.1985  0.0405 -2.5864
25771SOL     OW84173  11.943   9.146  12.150  0.0811 -0.2998 -0.2076
25771SOL    HW184174  12.011   9.183  12.094  1.4885 -1.9828  0.2863
25771SOL    HW284175  11.982   9.065  12.183 -1.7828 -0.7629  0.9613
25772SOL     OW84176   1.181   8.030   2.708  0.0841  0.0800 -0.1162
25772SOL    HW184177   1.136   8.018   2.625  0.6743  0.0583 -0.4393
25772SOL    HW284178   1.153   8.116   2.739  0.0236  0.1785 -0.4411
25773SOL     OW84179   8.717   6.966   0.019  0.2311 -0.2339 -0.0237
25773SOL    HW184180   8.755   7.010  -0.057  0.1482  0.6416  0.4329
25773SOL    HW284181   8.764   7.002   0.094  0.4052 -1.1853  0.3437
25774SOL     OW84182   9.986   5.844   2.162 -0.1893 -0.1330 -0.1254
25774SOL    HW184183   9.989   5.782   2.090  0.7428 -0.0691 -0.1625
25774SOL    HW284184  10.021   5.925   2.126 -1.6289  0.4947 -0.1409
25775SOL     OW84185   1.919   3.465  11.326  0.1113  0.3328  0.9124
25775SOL    HW184186   1.856   3.536  11.337 -0.1019  0.2230  0.4109
25775SOL    HW284187   1.953   3.476  11.238  0.1439 -0.1318  0.8644
25776SOL     OW84188   1.367  10.865  10.652 -0.2337 -0.5213 -0.2496
25776SOL    HW184189   1.448  10.823  10.624 -1.3462 -3.8157  0.9836
25776SOL    HW284190   1.298  10.803  10.627 -2.1289  1.0033  0.9067
25777SOL     OW84191   5.485   5.351   6.417 -0.0486 -0.3744  0.1666
25777SOL    HW184192   5.422   5.348   6.490  0.8481 -0.3376  0.9539
25777SOL    HW284193   5.514   5.442   6.415  1.0857 -0.7128  0.7733
25778SOL     OW84194   7.375   4.201  11.514  0.5426 -0.1848 -0.1244
25778SOL    HW184195   7.353   4.270  11.578  0.9338  0.2562 -0.4617
25778SOL    HW284196   7.356   4.240  11.429  1.2487 -0.3152 -0.3459
25779SOL     OW84197   6.494  10.509  10.218 -0.5510 -0.5267  0.6830
25779SOL    HW184198   6.410  10.550  10.198 -0.3772  0.1507  1.3103
25779SOL    HW284199   6.559  10.580  10.208  0.0914 -1.2555 -0.7449
25780SOL     OW84200   7.186  11.554   9.479  0.5935 -0.2539 -0.2997
25780SOL    HW184201   7.268  11.508   9.461  0.8802 -0.3768  1.2048
25780SOL    HW284202   7.211  11.646   9.486  0.5919 -0.2840  0.0987
25781SOL     OW84203   5.586   9.179   3.061 -0.0142 -0.2096  0.8167
25781SOL    HW184204   5.554   9.248   3.003  0.6324  0.6996  1.5203
25781SOL    HW284205   5.569   9.098   3.013 -0.2787  0.4673 -0.2611
25782SOL     OW84206   5.423   0.828   7.454  0.1305 -0.4163  0.0626
25782SOL    HW184207   5.415   0.760   7.520 -0.6804 -1.0495 -0.6605
25782SOL    HW284208   5.495   0.883   7.484 -0.8763 -0.0818  1.9876
25783SOL     OW84209   4.585   0.991   8.945 -0.0641 -0.2878  0.1043
25783SOL    HW184210   4.518   1.032   8.891 -0.1685 -2.5562 -1.6801
25783SOL    HW284211   4.631   1.063   8.987  0.0334  1.6747 -3.0764
25784SOL     OW84212   6.151   3.660  11.805 -0.1989 -0.4034  0.2844
25784SOL    HW184213   6.216   3.627  11.743 -0.4620 -1.3985  0.5216
25784SOL    HW284214   6.134   3.587  11.864  0.1338  0.5458  1.6259
25785SOL     OW84215   8.604   9.724   3.795  0.1181 -0.0952 -0.1834
25785SOL    HW184216   8.613   9.633   3.767  2.0403  0.7158 -2.4606
25785SOL    HW284217   8.581   9.772   3.716  0.7621  1.6420  0.6225
25786SOL     OW84218   5.761   2.834   0.047 -1.0704  0.3931  0.2839
25786SOL    HW184219   5.828   2.864   0.108  0.6526 -1.0214 -0.8044
25786SOL    HW284220   5.692   2.796   0.102 -0.0971  0.1762  1.3743
25787SOL     OW84221  11.321   3.476   2.384 -0.6017 -0.2342  0.3580
25787SOL    HW184222  11.344   3.418   2.311 -1.0873 -0.3336  0.2803
25787SOL    HW284223  11.348   3.563   2.355 -0.3632 -0.3436  0.2516
25788SOL     OW84224  12.064   8.759   2.667 -0.6274 -0.6128 -0.8860
25788SOL    HW184225  12.034   8.823   2.733  0.3203  0.1671 -1.1853
25788SOL    HW284226  12.102   8.688   2.718 -2.4161 -1.3541 -0.5191
25789SOL     OW84227   9.271   2.528   9.401 -0.1393 -0.4098  0.3889
25789SOL    HW184228   9.235   2.465   9.338  1.0735 -0.2765 -0.4668
25789SOL    HW284229   9.312   2.473   9.467 -0.7363 -0.5355  0.6673
25790SOL     OW84230   5.274   9.622   3.039 -0.1406  0.0637  0.0756
25790SOL    HW184231   5.360   9.622   3.082 -0.5364 -0.6374  0.8725
25790SOL    HW284232   5.253   9.530   3.028 -1.6792  0.1819  1.6820
25791SOL     OW84233   1.056  12.210  10.043  0.3887  0.3225 -1.1232
25791SOL    HW184234   1.105  12.292  10.049  1.7291 -0.4991 -0.5787
25791SOL    HW284235   1.117  12.148  10.003 -0.9553 -0.1659 -2.5510
25792SOL     OW84236   6.289  11.760   2.716  0.0419  0.1180 -0.1461
25792SOL    HW184237   6.303  11.712   2.634 -2.1323  1.5285 -1.4619
25792SOL    HW284238   6.365  11.818   2.723 -0.9002  1.7869 -2.6030
25793SOL     OW84239   3.344   2.499   0.270  0.1302  0.1514  0.8508
25793SOL    HW184240   3.416   2.523   0.213  0.0283 -1.4289 -0.0130
25793SOL    HW284241   3.270   2.551   0.238  0.3039 -0.0270  0.1319
25794SOL     OW84242   1.144   3.585  11.949 -0.7281  0.3189  0.4761
25794SOL    HW184243   1.070   3.559  12.003 -0.8412  0.1783  0.2552
25794SOL    HW284244   1.171   3.505  11.905  0.9236 -0.1475  2.1795
25795SOL     OW84245   2.444  12.102  11.414  0.1637  0.6712  0.2492
25795SOL    HW184246   2.493  12.143  11.342  0.9595 -1.3485 -0.4230
25795SOL    HW284247   2.358  12.084  11.377 -0.2582  1.8475  0.6101
25796SOL     OW84248   3.284   4.013   1.689  0.0542  0.0097 -0.3322
25796SOL    HW184249   3.311   3.921   1.691 -1.5411 -0.5876 -2.4217
25796SOL    HW284250   3.211   4.017   1.751  0.7131  0.1377  0.4677
25797SOL     OW84251   3.498   5.475   8.245  0.3035 -0.1426 -0.0594
25797SOL    HW184252   3.446   5.405   8.205  0.7334 -0.9141  0.7041
25797SOL    HW284253   3.587   5.441   8.244  0.6808  0.8259 -0.5950
25798SOL     OW84254   8.896   2.483  11.757  0.0425  0.5287 -0.5550
25798SOL    HW184255   8.871   2.391  11.770  3.1687 -0.2377  0.9461
25798SOL    HW284256   8.844   2.531  11.821  1.7054 -0.8839  2.0253
25799SOL     OW84257  11.484  10.863   6.454 -0.0048 -0.7519 -0.4801
25799SOL    HW184258  11.424  10.797   6.489  0.5320 -0.6443  0.6819
25799SOL    HW284259  11.433  10.907   6.386 -1.6981  0.0935  1.2172
25800SOL     OW84260   7.744   9.758   4.667  0.0927 -0.2985 -0.0085
25800SOL    HW184261   7.656   9.792   4.685  0.2898  1.0515 -1.3899
25800SOL    HW284262   7.746   9.746   4.572  0.4824 -3.0700  0.2561
25801SOL     OW84263   6.082  11.481   6.170  0.3873 -0.3012  0.2460
25801SOL    HW184264   6.135  11.534   6.229 -0.1804  0.9349 -0.3011
25801SOL    HW284265   6.094  11.521   6.084  0.9267 -1.8568 -0.4399
25802SOL     OW84266   2.343   1.618  11.757  0.1255 -0.2194 -0.2990
25802SOL    HW184267   2.261   1.633  11.710 -1.2776 -1.7438  1.4608
25802SOL    HW284268   2.367   1.528  11.736  0.1530 -0.5009  0.8442
25803SOL     OW84269  11.955   7.337   0.488  0.1064 -0.2580  0.7804
25803SOL    HW184270  12.026   7.291   0.443 -0.6072 -2.3295  1.6488
25803SOL    HW284271  11.923   7.400   0.423  2.6533  0.7456  0.3564
25804SOL     OW84272   7.153  11.576  11.837  0.2846 -0.3572 -0.0769
25804SOL    HW184273   7.183  11.559  11.926 -0.0764 -0.9998 -0.0749
25804SOL    HW284274   7.192  11.661  11.814  2.8108 -1.5159 -0.3826
25805SOL     OW84275   0.157   0.784   2.443  0.3700  0.4746  0.3576
25805SOL    HW184276   0.238   0.733   2.441  1.1227  1.6535 -1.3877
25805SOL    HW284277   0.088   0.719   2.452  1.4890 -0.5408  2.1383
25806SOL     OW84278   1.604   1.689  12.196  0.6892  0.1240 -0.6275
25806SOL    HW184279   1.626   1.610  12.246 -0.3040  0.3113  0.1394
25806SOL    HW284280   1.623   1.761  12.256 -0.5602  0.3510 -0.4858
25807SOL     OW84281  11.376   0.954   2.907  0.0703  0.5895 -0.1632
25807SOL    HW184282  11.411   0.952   2.818  0.2718  1.5215 -0.1203
25807SOL    HW284283  11.281   0.950   2.896  0.1449 -1.0394 -0.3273
25808SOL     OW84284   0.909   5.779   0.478  0.1766 -0.5198 -0.0008
25808SOL    HW184285   0.843   5.794   0.410  0.1265 -0.1902  0.1195
25808SOL    HW284286   0.932   5.867   0.509 -0.0900 -0.6824  0.6839
25809SOL     OW84287   8.882   0.002   0.105  0.4461 -0.1734  0.0979
25809SOL    HW184288   8.957   0.056   0.078  0.1682  1.2171  1.9211
25809SOL    HW284289   8.807   0.039   0.059  0.7113 -1.1065 -1.1560
25810SOL     OW84290   6.258  10.880   7.337 -0.1879  1.0811 -0.2512
25810SOL    HW184291   6.258  10.908   7.245  1.8045 -1.4222 -1.1265
25810SOL    HW284292   6.285  10.788   7.334 -0.6220  0.7446  2.8390
25811SOL     OW84293   0.507   1.168  11.077  0.0905 -0.4671 -0.2245
25811SOL    HW184294   0.467   1.185  10.992 -0.5656  1.1311  0.3719
25811SOL    HW284295   0.450   1.102  11.118  0.8299 -1.8163 -1.2802
25812SOL     OW84296  10.450   8.258   8.535 -0.2182  0.0524  0.0643
25812SOL    HW184297  10.442   8.353   8.527 -0.7841 -0.0268 -0.3454
25812SOL    HW284298  10.544   8.243   8.544  0.2348  0.4420 -2.9321
25813SOL     OW84299   3.958  11.296  11.833 -0.3200  0.1597  0.1802
25813SOL    HW184300   3.987  11.308  11.742  1.5593  0.3969  0.7728
25813SOL    HW284301   3.988  11.375  11.878 -2.8768  0.9618  0.6947
25814SOL     OW84302  10.267   7.211  12.186 -0.6154 -0.7363  0.1989
25814SOL    HW184303  10.196   7.252  12.236  1.2482  1.5166  1.1775
25814SOL    HW284304  10.289   7.133  12.237 -2.3054 -1.4652 -0.1057
25815SOL     OW84305   0.266   6.017   8.197  0.2321  0.3488 -0.3464
25815SOL    HW184306   0.356   6.034   8.168  1.2420  0.9985  2.7800
25815SOL    HW284307   0.213   6.081   8.149  1.7915  1.6373 -0.4544
25816SOL     OW84308   4.442   6.167  12.363 -0.2979 -0.1815 -0.2078
25816SOL    HW184309   4.449   6.232  12.293 -1.4854 -0.1931 -0.3464
25816SOL    HW284310   4.453   6.083  12.318 -2.3118 -0.2686 -0.6190
25817SOL     OW84311   4.227   8.134   9.053  0.8898  0.5512  0.0578
25817SOL    HW184312   4.275   8.052   9.063  1.0831  0.7026  0.3524
25817SOL    HW284313   4.197   8.156   9.141  0.3843  0.5252 -0.0988
25818SOL     OW84314   8.853   2.429   3.650  0.0653  0.5658 -0.3670
25818SOL    HW184315   8.902   2.432   3.568 -0.8312  1.0643 -0.9063
25818SOL    HW284316   8.916   2.399   3.715  1.8392  3.5064 -0.5293
25819SOL     OW84317   7.486   7.267   1.549  0.5879  0.5635 -1.0854
25819SOL    HW184318   7.561   7.257   1.491  0.0444  4.1925 -2.6491
25819SOL    HW284319   7.410   7.263   1.491 -0.3305 -0.6626  0.1376
25820SOL     OW84320   3.410  12.268   2.929 -0.3494  0.1137 -0.6118
25820SOL    HW184321   3.410  12.243   2.837  0.6174 -0.7959 -0.3910
25820SOL    HW284322   3.425  12.186   2.976  0.7262  0.7805  0.2670
25821SOL     OW84323   3.701   3.912   0.580  0.1479 -0.1719  0.7129
25821SOL    HW184324   3.777   3.896   0.635  0.1811  0.7402  0.9385
25821SOL    HW284325   3.710   3.849   0.508 -0.0387 -1.5729  1.8492
25822SOL     OW84326   9.005   4.696   2.519 -0.0951  0.3415  0.1604
25822SOL    HW184327   9.019   4.666   2.429 -0.2334  1.8444 -0.3940
25822SOL    HW284328   9.092   4.696   2.558 -0.0787 -0.6470  0.1456
25823SOL     OW84329  10.441   1.195   1.380  0.7748  0.4933 -0.1055
25823SOL    HW184330  10.455   1.136   1.454  1.5193 -0.4376 -0.9601
25823SOL    HW284331  10.375   1.257   1.411  0.3271 -0.4916  0.9849
25824SOL     OW84332   8.134  12.385   4.140  0.0451 -0.7355  0.6489
25824SOL    HW184333   8.118  12.301   4.097 -1.6321  0.0174 -0.3103
25824SOL    HW284334   8.085  12.448   4.087  0.5550  0.7204  1.8499
25825SOL     OW84335  10.886   4.498   1.118  0.2331 -0.6713  0.5216
25825SOL    HW184336  10.889   4.548   1.200  0.5308 -0.2805  0.2791
25825SOL    HW284337  10.878   4.565   1.050  0.1370 -0.9857  0.2218
25826SOL     OW84338   1.175   9.710   5.466  0.6568  0.6685  0.4107
25826SOL    HW184339   1.088   9.674   5.486  0.4464  1.3340  0.7159
25826SOL    HW284340   1.235   9.637   5.482  0.0739 -0.0841 -0.7109
25827SOL     OW84341   5.825   2.738   0.771  0.2241  0.2046  0.3680
25827SOL    HW184342   5.851   2.689   0.693  0.6935  1.6485 -0.4090
25827SOL    HW284343   5.804   2.670   0.835  2.5319 -1.0301 -0.0862
25828SOL     OW84344   4.398   3.065  10.827 -0.1553  0.7430 -0.7959
25828SOL    HW184345   4.382   2.988  10.882  1.4066  0.8011 -0.2085
25828SOL    HW284346   4.332   3.128  10.856  0.7999  0.8870  1.2765
25829SOL     OW84347   6.839   6.063   7.672 -0.3191  0.4187  0.4404
25829SOL    HW184348   6.917   6.101   7.632 -1.6182  1.7980 -0.9269
25829SOL    HW284349   6.872   5.993   7.728  1.9838  1.7587  0.8838
25830SOL     OW84350   2.371   5.360   0.833 -0.5374  0.3381  0.2972
25830SOL    HW184351   2.447   5.418   0.844  0.4063 -1.0440  1.4320
25830SOL    HW284352   2.372   5.338   0.739 -0.7062  1.8452 -0.0773
25831SOL     OW84353   4.288  10.443   1.611 -0.3113  0.3401  0.3052
25831SOL    HW184354   4.298  10.523   1.663  1.3757  0.7240 -0.5459
25831SOL    HW284355   4.357  10.448   1.545 -0.1100 -1.8540  0.2712
25832SOL     OW84356  12.281   7.872   1.841  0.0326  0.4518  0.2573
25832SOL    HW184357  12.355   7.926   1.870  0.5229 -0.2987  0.4184
25832SOL    HW284358  12.273   7.893   1.748 -0.5085  1.6394  0.5442
25833SOL     OW84359   2.311   7.766  12.386  0.2372  0.7114 -0.2289
25833SOL    HW184360   2.226   7.722  12.396  0.6609 -0.0247  0.1269
25833SOL    HW284361   2.325   7.811  12.469  0.3971  0.4772 -0.1286
25834SOL     OW84362   6.031  11.429  11.781  0.4065  0.5886 -0.1652
25834SOL    HW184363   5.980  11.469  11.852 -0.6701 -2.5100  0.9419
25834SOL    HW284364   6.120  11.426  11.814  0.0787  0.0212  0.6938
25835SOL     OW84365   9.167   2.267   5.271  0.1291  0.5097 -0.2765
25835SOL    HW184366   9.079   2.279   5.237  0.0549 -0.4387 -0.4492
25835SOL    HW284367   9.184   2.173   5.262  0.3354  0.2993  1.7343
25836SOL     OW84368   5.906   6.356   3.567  0.2762  0.0781 -0.3026
25836SOL    HW184369   5.882   6.334   3.657 -0.5144  0.2198 -0.4722
25836SOL    HW284370   5.979   6.297   3.546  0.8268  0.4264  0.6136
25837SOL     OW84371   6.094   4.754   6.266  0.5576  0.1989 -0.0021
25837SOL    HW184372   6.174   4.800   6.240  1.9549 -1.7979  0.5418
25837SOL    HW284373   6.038   4.757   6.189  2.4807 -1.0792 -1.5294
25838SOL     OW84374   6.258   1.601   6.924  0.5016  0.2033  0.5850
25838SOL    HW184375   6.308   1.645   6.855 -0.7301  1.8238  0.6471
25838SOL    HW284376   6.223   1.673   6.977 -1.9294 -0.8210  0.4989
25839SOL     OW84377   6.306   1.381  11.308  0.1682  0.3977  0.6354
25839SOL    HW184378   6.324   1.428  11.227  0.6045  2.1381  1.6996
25839SOL    HW284379   6.234   1.429  11.349 -1.5259 -1.7110  0.3192
25840SOL     OW84380   0.701   0.627  12.262  0.2821  0.0501  0.0770
25840SOL    HW184381   0.681   0.533  12.266 -1.3558  0.3785  0.6249
25840SOL    HW284382   0.627   0.665  12.214 -0.1327  1.2950  1.6091
25841SOL     OW84383   3.697   6.482   4.320 -0.4446  0.0631 -0.2030
25841SOL    HW184384   3.656   6.473   4.405  1.2310  0.8809  0.7457
25841SOL    HW284385   3.662   6.564   4.285 -1.9067 -0.7869 -0.7805
25842SOL     OW84386  11.573  11.180   4.423  0.4508 -0.4082  0.5491
25842SOL    HW184387  11.501  11.240   4.400 -0.2108 -1.3984 -0.0141
25842SOL    HW284388  11.546  11.143   4.507  1.1396  0.4900  1.1880
25843SOL     OW84389   5.676  11.597   7.563  0.3371  0.1276 -0.4380
25843SOL    HW184390   5.653  11.581   7.472  2.1505  0.7714 -1.0556
25843SOL    HW284391   5.770  11.580   7.567  0.6490  1.8557  0.8831
25844SOL     OW84392   7.353   2.629   4.222 -0.4238 -0.1445 -0.0196
25844SOL    HW184393   7.309   2.697   4.274 -0.9757 -0.1436 -0.4745
25844SOL    HW284394   7.353   2.664   4.133  1.2613  0.2237  0.1023
25845SOL     OW84395   1.565   3.487   3.602  0.0764 -0.4076  0.2520
25845SOL    HW184396   1.621   3.564   3.615  0.3836 -0.8723  1.9661
25845SOL    HW284397   1.582   3.460   3.512  0.8497  0.8360 -0.0083
25846SOL     OW84398   8.392   2.278   2.019  0.1113  0.4228  0.2396
25846SOL    HW184399   8.359   2.290   2.108 -1.6096  1.7412 -0.5175
25846SOL    HW284400   8.419   2.366   1.992  0.6772  0.0219 -0.5333
25847SOL     OW84401   2.219   8.132   4.049  0.0495  0.3264 -0.2951
25847SOL    HW184402   2.200   8.118   4.142  0.5908 -0.8286 -0.3321
25847SOL    HW284403   2.136   8.117   4.004 -0.2957  1.2400  0.0200
25848SOL     OW84404   8.996  11.935   9.507 -0.0053 -0.5701 -0.4272
25848SOL    HW184405   8.930  11.917   9.574  2.0074 -0.8415  1.6164
25848SOL    HW284406   9.037  11.850   9.490  0.4987 -0.2444 -0.8705
25849SOL     OW84407   5.919   8.606  12.009  0.1584  0.1148  0.0092
25849SOL    HW184408   5.935   8.638  12.098  1.0228  0.4625 -0.2626
25849SOL    HW284409   5.960   8.671  11.952  0.8652 -0.8199 -0.5901
25850SOL     OW84410   0.108   6.806   8.048 -0.1041  0.1630  0.1394
25850SOL    HW184411   0.014   6.813   8.062 -0.4087 -0.0342 -1.5354
25850SOL    HW284412   0.126   6.869   7.978  0.8016 -0.6014 -0.3352
25851SOL     OW84413   4.809   0.301  12.036 -0.2731  0.4644  0.4628
25851SOL    HW184414   4.858   0.238  12.089 -0.1263 -0.8077 -1.1198
25851SOL    HW284415   4.876   0.354  11.993 -0.3683  0.7586  0.6707
25852SOL     OW84416   6.031   9.526   1.302  0.2011  0.3435 -0.6456
25852SOL    HW184417   5.974   9.450   1.298 -0.5663  0.8837 -0.2407
25852SOL    HW284418   6.077   9.527   1.218 -1.6428  0.8661 -1.7024
25853SOL     OW84419   8.285   8.849   6.612  0.3373 -0.2005 -0.2384
25853SOL    HW184420   8.294   8.756   6.591  0.0336 -0.4948  0.9059
25853SOL    HW284421   8.265   8.890   6.527 -0.4788 -1.2994 -0.6030
25854SOL     OW84422  10.031   2.475   2.611 -0.4424 -0.0552 -0.2646
25854SOL    HW184423  10.065   2.438   2.530 -1.2837 -2.2881  0.3061
25854SOL    HW284424  10.106   2.475   2.671 -0.8057 -2.9926  0.3550
25855SOL     OW84425  11.674   6.755   8.648 -0.4056  0.7799  0.4543
25855SOL    HW184426  11.631   6.838   8.669  0.1927  1.2391 -0.0827
25855SOL    HW284427  11.712   6.769   8.562  1.6529  0.7407  1.3076
25856SOL     OW84428   0.150   5.147   5.984  0.5481  0.2858  0.2789
25856SOL    HW184429   0.111   5.087   5.920  0.6140 -0.5730  1.0165
25856SOL    HW284430   0.108   5.231   5.967  1.3112  0.3331 -1.5498
25857SOL     OW84431   5.305   7.696  11.402 -0.3022 -0.1010  0.1365
25857SOL    HW184432   5.304   7.723  11.493 -3.1455  1.1530 -0.1596
25857SOL    HW284433   5.359   7.617  11.401  1.5210  0.9843  2.4826
25858SOL     OW84434   4.215  10.713   0.725  0.3184  0.0118  0.2622
25858SOL    HW184435   4.196  10.801   0.757  1.2111  0.0970  0.5730
25858SOL    HW284436   4.138  10.690   0.672  1.5792  2.4087 -2.9146
25859SOL     OW84437   4.386   3.280   7.790 -0.0051  0.6914 -0.1689
25859SOL    HW184438   4.425   3.209   7.739 -0.5611  0.4335 -0.2378
25859SOL    HW284439   4.305   3.302   7.744 -0.1544  0.9403  0.2055
25860SOL     OW84440   7.062   7.843   3.931  0.5212 -0.0350 -0.8396
25860SOL    HW184441   7.004   7.795   3.873  0.1896  1.1402 -1.5210
25860SOL    HW284442   7.024   7.931   3.935  1.7339  0.4941 -0.5492
25861SOL     OW84443   6.364  10.549   7.885  0.3429  0.0676  0.2666
25861SOL    HW184444   6.398  10.498   7.958  0.5806 -0.6695 -0.3520
25861SOL    HW284445   6.306  10.614   7.926  0.6743 -0.1692  1.1234
25862SOL     OW84446   4.595   8.415   4.519  0.7476  0.0550 -0.1968
25862SOL    HW184447   4.555   8.351   4.578  3.9956 -1.1833  0.8303
25862SOL    HW284448   4.669   8.369   4.480  1.0435  2.1109 -2.2246
25863SOL     OW84449   8.531   3.352  11.820  0.0095  0.5164  0.3803
25863SOL    HW184450   8.597   3.412  11.856 -0.6471  0.9870  0.8179
25863SOL    HW284451   8.537   3.365  11.725  0.6302  0.4567  0.4049
25864SOL     OW84452   8.559   5.626   7.880  0.3829  0.8965 -0.1339
25864SOL    HW184453   8.467   5.627   7.907 -0.3082 -0.6215 -2.1796
25864SOL    HW284454   8.606   5.593   7.957 -1.0122 -0.0453  0.3573
25865SOL     OW84455   3.015   1.354   8.577 -0.3589  0.2674  0.0360
25865SOL    HW184456   2.986   1.300   8.503  0.2443  0.3643 -0.2803
25865SOL    HW284457   2.936   1.367   8.629 -0.3811 -1.5676  0.5457
25866SOL     OW84458   3.421  12.057   1.319  0.4697 -0.0041 -0.3648
25866SOL    HW184459   3.406  11.966   1.344 -1.1727 -0.6880 -3.3818
25866SOL    HW284460   3.370  12.107   1.383  0.8013 -1.2167  0.9038
25867SOL     OW84461   9.960   3.863  11.804 -0.2256  0.0948 -0.0546
25867SOL    HW184462   9.879   3.816  11.786 -0.2215 -0.8351  2.0551
25867SOL    HW284463   9.933   3.941  11.851  0.0737 -0.3681  0.9297
25868SOL     OW84464   2.453   8.651  12.076 -0.3176 -0.7373  0.1271
25868SOL    HW184465   2.474   8.559  12.093 -0.5255 -0.6692  0.8021
25868SOL    HW284466   2.504   8.673  11.998  0.9180 -1.0090  0.8201
25869SOL     OW84467   0.568   8.741   7.398 -0.2991  0.0249  0.0336
25869SOL    HW184468   0.501   8.738   7.466  1.0562  0.6098  1.4770
25869SOL    HW284469   0.592   8.834   7.393 -0.1536 -0.0594 -1.0282
25870SOL     OW84470  11.424   3.486  11.234  0.4081 -0.5286 -0.0825
25870SOL    HW184471  11.463   3.426  11.297 -0.0886 -0.3405  0.4110
25870SOL    HW284472  11.396   3.430  11.161 -0.5204 -0.9710  0.6018
25871SOL     OW84473   6.034   3.488   3.054  0.1307 -0.0177 -0.0986
25871SOL    HW184474   6.027   3.393   3.052 -1.4715  0.0434  0.8847
25871SOL    HW284475   6.018   3.515   2.963  0.6609 -0.6681 -0.3974
25872SOL     OW84476   0.057   9.100   8.197  0.2685 -0.1512  0.5633
25872SOL    HW184477   0.088   9.136   8.114 -2.5002 -1.1078 -0.9712
25872SOL    HW284478  -0.023   9.149   8.216  2.0999  1.9398  4.1787
25873SOL     OW84479   3.796   7.616   4.091 -0.7817  0.1651  0.0873
25873SOL    HW184480   3.866   7.567   4.133  0.5158  1.1081 -0.8974
25873SOL    HW284481   3.807   7.706   4.122 -0.5747  0.6235 -1.2351
25874SOL     OW84482   7.409   1.812   5.878 -0.5302 -0.4588 -0.2954
25874SOL    HW184483   7.377   1.890   5.832  2.1615  0.4381 -0.8557
25874SOL    HW284484   7.354   1.806   5.956 -1.1491  1.7342 -0.4841
25875SOL     OW84485  10.625   2.984   8.095 -0.3787  0.4717 -0.4121
25875SOL    HW184486  10.600   2.898   8.129  0.2145  0.3154 -0.3654
25875SOL    HW284487  10.604   2.979   8.002  1.0876 -0.2835 -0.7299
25876SOL     OW84488   1.493   4.793   1.975  0.3082 -0.0214 -0.0907
25876SOL    HW184489   1.545   4.712   1.975  0.5598  0.1258  0.7767
25876SOL    HW284490   1.552   4.859   2.011 -0.2220  0.3283  0.1402
25877SOL     OW84491   7.648   2.048   1.177 -0.4621 -0.2204 -0.2019
25877SOL    HW184492   7.602   2.105   1.115 -2.1561 -1.0029  0.2822
25877SOL    HW284493   7.692   1.983   1.121  1.2900  1.3674 -0.7410
25878SOL     OW84494   2.647   0.821   6.573  0.2539  0.1417 -0.0587
25878SOL    HW184495   2.653   0.756   6.644 -0.2461  1.2034  0.9923
25878SOL    HW284496   2.706   0.891   6.600  0.5023  0.3052 -1.0028
25879SOL     OW84497  11.354   7.591   8.165  0.1204  0.4554 -0.0759
25879SOL    HW184498  11.291   7.555   8.103 -1.7388  2.2983  0.6281
25879SOL    HW284499  11.366   7.521   8.229 -0.6406 -0.1995 -0.6163
25880SOL     OW84500  11.912   4.803  12.030  0.7562 -0.4415 -0.6943
25880SOL    HW184501  11.908   4.752  12.110  2.1653  0.0924 -0.2546
25880SOL    HW284502  11.844   4.870  12.040  2.7967  1.4732  1.4313
25881SOL     OW84503   6.447  12.449   3.432 -0.1836 -0.5374 -0.0726
25881SOL    HW184504   6.418  12.366   3.469 -1.0193  0.1000  0.7523
25881SOL    HW284505   6.398  12.516   3.481  2.0198  0.5564  0.8218
25882SOL     OW84506  11.528   1.583   3.545  0.2714 -0.0862  0.6804
25882SOL    HW184507  11.481   1.634   3.479  0.1276 -1.0232  0.0298
25882SOL    HW284508  11.618   1.616   3.541  0.2999 -0.2200 -0.1047
25883SOL     OW84509   5.620  12.161   5.511 -0.5445 -0.4722  0.2330
25883SOL    HW184510   5.560  12.188   5.580 -1.5265 -1.4141 -0.2354
25883SOL    HW284511   5.695  12.220   5.521 -1.7862  1.1603  0.4358
25884SOL     OW84512   5.048   4.641  10.307  0.3847  0.0239 -0.1712
25884SOL    HW184513   5.061   4.736  10.316  0.5052 -0.0712  0.7809
25884SOL    HW284514   5.019   4.613  10.394 -0.3485 -0.7080 -0.6407
25885SOL     OW84515   7.988  11.791  12.132  0.3243  0.0071  0.0314
25885SOL    HW184516   7.984  11.809  12.038  0.7442  0.5723  0.1082
25885SOL    HW284517   8.003  11.877  12.171 -1.1371 -0.0344  0.7224
25886SOL     OW84518   4.365   6.322   6.321 -0.0193 -0.5935  0.6247
25886SOL    HW184519   4.387   6.340   6.413  1.5309 -1.4258  0.4440
25886SOL    HW284520   4.435   6.265   6.290 -1.8585 -2.4092 -0.3764
25887SOL     OW84521  10.892   0.125  12.214 -0.6170 -0.1906  0.0162
25887SOL    HW184522  10.980   0.163  12.211  1.2685 -4.0401  0.3316
25887SOL    HW284523  10.852   0.150  12.131  1.5411  0.0668 -1.0168
25888SOL     OW84524   4.640   6.596  12.275 -0.1169 -0.0916 -0.3273
25888SOL    HW184525   4.647   6.511  12.319  0.7951  0.5115  0.7532
25888SOL    HW284526   4.661   6.578  12.184 -1.2201 -1.2372 -0.3790
25889SOL     OW84527   5.483  10.034  10.053  0.8240 -0.0130  0.1907
25889SOL    HW184528   5.516   9.946  10.035  1.0656  0.2668 -0.7860
25889SOL    HW284529   5.560  10.084  10.082  0.7118 -0.0757  0.6151
25890SOL     OW84530   9.088   9.798   8.033 -0.2034  0.4215 -0.5059
25890SOL    HW184531   9.078   9.772   7.941 -1.7155  0.0339 -0.2627
25890SOL    HW284532   9.122   9.719   8.076 -1.0706  0.0661 -0.4545
25891SOL     OW84533   1.713   0.066   9.103 -0.0782  0.4748 -0.1937
25891SOL    HW184534   1.681   0.078   9.193 -1.2401  1.4567 -0.7165
25891SOL    HW284535   1.642   0.019   9.059 -0.1045  1.2093 -0.9451
25892SOL     OW84536   4.750   1.362  10.013  0.1949  0.3614  0.4902
25892SOL    HW184537   4.668   1.383   9.968 -0.9990 -1.9955  1.4127
25892SOL    HW284538   4.739   1.399  10.101 -0.8290 -1.7190  1.2901
25893SOL     OW84539   7.827   8.069   4.334  0.5301 -0.1120  0.4757
25893SOL    HW184540   7.743   8.112   4.315  0.6655 -0.5766 -1.3068
25893SOL    HW284541   7.815   7.978   4.308  1.2310 -0.4661  1.3241
25894SOL     OW84542  11.775   2.667   3.302  0.6702  0.3896  0.5545
25894SOL    HW184543  11.736   2.718   3.231  1.2747 -0.0658 -0.1219
25894SOL    HW284544  11.748   2.577   3.286 -2.1057  0.6435  2.8936
25895SOL     OW84545  12.221  10.528   1.728 -0.3109  0.2585 -0.1218
25895SOL    HW184546  12.239  10.448   1.678 -1.2083 -0.2647  0.3769
25895SOL    HW284547  12.284  10.591   1.694 -0.2590 -0.3642 -1.2459
25896SOL     OW84548   7.003   3.158   8.352 -0.5834  0.0862  0.1983
25896SOL    HW184549   6.987   3.213   8.276 -2.2842  0.0905  0.5026
25896SOL    HW284550   7.064   3.207   8.406 -0.2402  0.5906 -0.6430
25897SOL     OW84551   9.126   0.102   5.896 -0.3370 -0.1522 -0.1999
25897SOL    HW184552   9.149   0.014   5.927  1.3118 -0.0087 -0.8776
25897SOL    HW284553   9.138   0.158   5.972  1.1497 -0.1751 -0.3797
25898SOL     OW84554   7.129   5.894   0.886  0.7898  0.5062  0.0913
25898SOL    HW184555   7.164   5.854   0.806  0.6712 -0.1249  0.3523
25898SOL    HW284556   7.038   5.913   0.866  0.4487 -0.7078  0.4589
25899SOL     OW84557   5.127   0.347   2.816 -0.4204 -0.0004  0.5565
25899SOL    HW184558   5.036   0.322   2.834 -0.3227  0.4186  1.7404
25899SOL    HW284559   5.147   0.414   2.881  0.7576 -0.1270  0.3528
25900SOL     OW84560   2.639   0.621  10.334 -0.0541 -0.0764 -0.0394
25900SOL    HW184561   2.555   0.581  10.358  0.6687 -1.2339  0.6568
25900SOL    HW284562   2.656   0.685  10.403  0.5317 -1.1923  0.8720
25901SOL     OW84563  12.377   7.753   7.978 -0.3134 -0.1917  0.3280
25901SOL    HW184564  12.294   7.708   7.963 -0.7778  0.6010  0.4401
25901SOL    HW284565  12.380   7.821   7.910  0.2501 -0.2258  0.3157
25902SOL     OW84566   7.913   0.034   0.007  0.0701  0.0718  0.4535
25902SOL    HW184567   7.912  -0.006   0.094 -1.1196 -0.0408  0.3964
25902SOL    HW284568   7.882   0.123   0.022  1.1076  0.4698  0.3237
25903SOL     OW84569   7.259   1.870   1.676  0.3661 -0.1202 -0.1315
25903SOL    HW184570   7.247   1.876   1.771  0.0897  0.7121 -0.2093
25903SOL    HW284571   7.342   1.915   1.660  0.1456  0.2226 -0.3330
25904SOL     OW84572   7.640  11.941  10.967 -0.0499  0.2581 -0.2700
25904SOL    HW184573   7.674  11.877  11.029  0.1643  0.2630 -0.3832
25904SOL    HW284574   7.626  12.020  11.020 -0.7893 -0.0331 -0.0278
25905SOL     OW84575   6.926   6.953  12.119 -0.0457 -0.0207 -0.3420
25905SOL    HW184576   6.836   6.936  12.148 -0.1610 -0.9450 -1.1888
25905SOL    HW284577   6.926   7.045  12.095 -1.2328 -0.3877 -1.9150
25906SOL     OW84578   7.348   7.628   6.073  0.2796  0.7500  0.0907
25906SOL    HW184579   7.257   7.630   6.104 -1.1215 -0.4620 -3.4057
25906SOL    HW284580   7.380   7.542   6.099 -0.3019  0.3961 -0.3262
25907SOL     OW84581  10.495   2.149   0.349 -0.6500  0.4084 -0.3228
25907SOL    HW184582  10.520   2.210   0.418 -1.0065  0.2527 -0.0570
25907SOL    HW284583  10.456   2.075   0.395  1.9843 -1.1932 -0.3989
25908SOL     OW84584   9.393   5.605   3.245  0.1413 -0.2175  0.2396
25908SOL    HW184585   9.355   5.634   3.327 -1.1853 -0.6751 -0.1711
25908SOL    HW284586   9.332   5.636   3.178  0.9998 -0.1676 -0.5411
25909SOL     OW84587   6.306   4.929   6.153 -0.2374  0.3489  0.1684
25909SOL    HW184588   6.394   4.916   6.118 -0.2886  0.5388 -0.0296
25909SOL    HW284589   6.255   4.961   6.079 -0.1691  1.4771  0.5892
25910SOL     OW84590   5.219   2.831   0.799  0.6329 -0.0811  0.0470
25910SOL    HW184591   5.279   2.800   0.731  0.8640  1.2348 -0.3918
25910SOL    HW284592   5.180   2.752   0.835 -0.3181 -0.8126 -2.3565
25911SOL     OW84593   0.538   3.586   1.525 -0.6257 -0.0136  0.2869
25911SOL    HW184594   0.627   3.574   1.491 -0.1624  1.3666  0.9280
25911SOL    HW284595   0.543   3.667   1.577 -2.1331 -0.1983  0.7666
25912SOL     OW84596   6.397   9.842   6.067  0.0466 -0.6904 -0.0710
25912SOL    HW184597   6.406   9.765   6.123  1.1726 -0.7291 -0.2887
25912SOL    HW284598   6.339   9.901   6.116 -0.4758 -1.4845  0.2853
25913SOL     OW84599   2.832   1.599  10.699  0.5283  0.0524 -0.2470
25913SOL    HW184600   2.878   1.654  10.762 -1.0443 -0.2262  1.2134
25913SOL    HW284601   2.881   1.516  10.698  0.5538  0.0541  0.6382
25914SOL     OW84602   7.444   9.618   1.955 -0.1097  0.6310  0.4326
25914SOL    HW184603   7.417   9.645   2.043  2.9606  2.4026  0.9524
25914SOL    HW284604   7.436   9.698   1.902  2.2668  0.8005  0.2355
25915SOL     OW84605   3.837   0.309  11.348  0.2521 -0.4256  0.3956
25915SOL    HW184606   3.930   0.330  11.337  0.1855 -0.3878 -0.1343
25915SOL    HW284607   3.833   0.257  11.428  0.5042  1.1004  1.4588
25916SOL     OW84608   5.772  10.955   3.222  0.3363 -0.0527  0.4277
25916SOL    HW184609   5.840  10.898   3.186  1.5039  0.7997  1.1871
25916SOL    HW284610   5.785  10.950   3.317 -1.4645 -0.7957  0.6641
25917SOL     OW84611   9.134   3.593  10.879 -0.4050  0.1446 -0.1052
25917SOL    HW184612   9.134   3.497  10.880 -0.1252  0.0826 -1.7736
25917SOL    HW284613   9.099   3.619  10.964  1.7191 -1.4087  1.3644
25918SOL     OW84614   8.301   1.117   5.897  0.1570 -0.7501 -0.3631
25918SOL    HW184615   8.394   1.095   5.888  0.1151 -0.6296 -1.1738
25918SOL    HW284616   8.277   1.156   5.813 -0.1304  1.1233  0.5410
25919SOL     OW84617   3.568   4.970  10.950  0.0029 -0.4019  0.0222
25919SOL    HW184618   3.497   4.923  10.994 -1.5141  1.4932 -0.3138
25919SOL    HW284619   3.605   5.027  11.018  0.8153 -0.9183  0.0294
25920SOL     OW84620   0.137   3.538   4.398  0.2586  0.7748  0.0493
25920SOL    HW184621   0.087   3.582   4.467  0.1394  1.5498 -0.5060
25920SOL    HW284622   0.073   3.524   4.328  0.2167 -0.6347  0.3587
25921SOL     OW84623   0.714  10.875   4.940 -0.2597  0.5257 -0.2321
25921SOL    HW184624   0.793  10.835   4.976  0.5276  1.0413 -1.3419
25921SOL    HW284625   0.723  10.864   4.845 -1.4629  0.7038 -0.3798
25922SOL     OW84626   6.595   2.472   9.020  0.0185 -0.5653  0.0207
25922SOL    HW184627   6.581   2.388   9.062 -1.3762  0.0973  0.9803
25922SOL    HW284628   6.681   2.465   8.979  0.4084 -2.0548  1.0197
25923SOL     OW84629   3.630   2.037  10.310  0.4014  0.2939 -0.0313
25923SOL    HW184630   3.644   2.109  10.248  1.1574  0.6967  0.5851
25923SOL    HW284631   3.570   1.978  10.265  1.4994  0.2081 -1.4657
25924SOL     OW84632  11.300  10.191  10.079 -0.3632  0.9038 -0.0720
25924SOL    HW184633  11.256  10.238  10.149 -1.2691  1.0652 -0.7398
25924SOL    HW284634  11.261  10.104  10.080 -1.0855  1.2045 -0.9993
25925SOL     OW84635  10.009   0.714   2.903  0.6409 -0.0293 -0.8271
25925SOL    HW184636  10.020   0.633   2.853  0.5938 -0.1930 -0.5768
25925SOL    HW284637  10.037   0.783   2.843  2.4144 -0.3694 -0.4643
25926SOL     OW84638   1.795   4.523   4.259  0.1183 -0.1990 -0.4752
25926SOL    HW184639   1.786   4.617   4.274  0.6515 -0.4538  1.7963
25926SOL    HW284640   1.868   4.515   4.198 -0.7546  0.8823 -1.7181
25927SOL     OW84641  10.096   5.811   5.974  0.0655  0.8708 -0.0598
25927SOL    HW184642  10.070   5.900   5.949  1.0121  1.0035 -0.6245
25927SOL    HW284643  10.108   5.816   6.069  0.8761  1.5671 -0.1792
25928SOL     OW84644   2.280   9.936   4.598  0.0010  0.8635 -0.1521
25928SOL    HW184645   2.207   9.973   4.550 -0.4381  0.1130 -0.0796
25928SOL    HW284646   2.306   9.859   4.547 -0.7713 -0.2198  1.0220
25929SOL     OW84647   9.938   6.556   6.735 -0.2404  0.1174  0.0091
25929SOL    HW184648   9.909   6.557   6.643 -1.4190  0.8753  0.3592
25929SOL    HW284649  10.031   6.577   6.731 -0.1576 -0.3707 -1.0464
25930SOL     OW84650   0.728  12.221   0.347  0.0040 -0.4055 -0.3995
25930SOL    HW184651   0.635  12.206   0.329 -0.1578  0.4528 -0.3096
25930SOL    HW284652   0.762  12.133   0.367 -0.7852 -0.7312 -0.4191
25931SOL     OW84653   9.405   5.391  12.420  0.3491 -0.1070 -0.4667
25931SOL    HW184654   9.309   5.393  12.420  0.2811 -1.7490  0.5170
25931SOL    HW284655   9.430   5.466  12.366 -1.4687  0.8817 -0.0248
25932SOL     OW84656  11.430   2.304  11.788  0.1088 -0.6915  0.5740
25932SOL    HW184657  11.436   2.250  11.709  0.6183 -0.8510  0.7179
25932SOL    HW284658  11.503   2.366  11.781 -0.6850  0.2232  0.2356
25933SOL     OW84659   9.695   4.759   4.448 -0.0328 -0.4093 -0.0636
25933SOL    HW184660   9.662   4.827   4.388 -0.8632 -1.0297 -0.3107
25933SOL    HW284661   9.751   4.807   4.509 -0.1860  0.4261 -0.5630
25934SOL     OW84662   2.577   3.789   6.488 -0.1852  0.1189  0.0554
25934SOL    HW184663   2.635   3.838   6.546 -0.3996  0.8426 -0.3310
25934SOL    HW284664   2.489   3.811   6.519 -0.2765 -1.8010  1.3243
25935SOL     OW84665   6.298   7.623   5.388  0.1772  0.1714  0.2213
25935SOL    HW184666   6.279   7.612   5.481 -1.2691  1.0081  0.0557
25935SOL    HW284667   6.276   7.538   5.349  1.9632 -0.5964  0.7688
25936SOL     OW84668  11.718   9.472   3.238 -0.5937 -0.0934  0.0451
25936SOL    HW184669  11.640   9.461   3.292 -1.0647  1.0147 -0.3552
25936SOL    HW284670  11.790   9.436   3.290 -1.0624  0.7226  1.3159
25937SOL     OW84671   7.706  10.646   6.923 -0.2419 -0.3824 -0.0949
25937SOL    HW184672   7.645  10.685   6.986 -0.8263 -1.4325  0.0110
25937SOL    HW284673   7.704  10.553   6.943  0.3670 -0.5978 -0.9997
25938SOL     OW84674   6.744   5.903  10.443  0.1345 -0.3673 -0.1931
25938SOL    HW184675   6.832   5.938  10.453 -1.2508  3.1374  1.3718
25938SOL    HW284676   6.736   5.838  10.512  1.1129  0.1429  0.4223
25939SOL     OW84677   3.206   9.488   9.156  0.0385  0.0663 -0.1915
25939SOL    HW184678   3.153   9.560   9.192  0.4940  0.0429  0.5407
25939SOL    HW284679   3.171   9.409   9.198  0.6580  0.0520  0.3100
25940SOL     OW84680   6.475  11.515   6.527 -0.8280 -0.0238  0.4970
25940SOL    HW184681   6.496  11.431   6.568  0.2269 -0.2773 -0.5254
25940SOL    HW284682   6.560  11.551   6.500 -1.4599  0.0130 -1.6617
25941SOL     OW84683   3.372   4.428  12.207 -0.5313  0.3811  0.1383
25941SOL    HW184684   3.360   4.479  12.126  0.1708  2.2193  1.1464
25941SOL    HW284685   3.463   4.400  12.204 -0.8358 -0.6301 -0.2682
25942SOL     OW84686   2.763   8.608   7.306  0.3311  0.0284  0.5066
25942SOL    HW184687   2.734   8.694   7.275  0.3657  0.4026  1.4837
25942SOL    HW284688   2.812   8.627   7.386 -1.3327 -1.0632  1.8470
25943SOL     OW84689  10.859   2.490   2.310  0.0115  0.1530 -0.2968
25943SOL    HW184690  10.796   2.438   2.261 -2.1357  1.3516  1.0445
25943SOL    HW284691  10.913   2.532   2.243 -0.3862 -1.1335 -1.4699
25944SOL     OW84692   0.169   0.479  11.616 -0.1100  0.5232  0.0228
25944SOL    HW184693   0.237   0.546  11.621  0.1007  0.3773 -0.7578
25944SOL    HW284694   0.126   0.482  11.702  0.6204  0.8877  0.3870
25945SOL     OW84695   2.049   6.741   9.861  0.3928  0.1001  0.3695
25945SOL    HW184696   2.012   6.695   9.786  0.9171 -0.2914  0.3474
25945SOL    HW284697   2.057   6.832   9.832  0.1543  0.0425  0.1170
25946SOL     OW84698   1.737   9.415   9.582  0.2253  0.4326  0.0196
25946SOL    HW184699   1.642   9.411   9.576  0.2632  0.7197 -0.9369
25946SOL    HW284700   1.756   9.500   9.622  0.0856  0.2987  0.3777
25947SOL     OW84701   2.247  10.727   0.816  0.7261 -0.8474  0.3258
25947SOL    HW184702   2.171  10.669   0.822  0.0889  0.0032  0.6584
25947SOL    HW284703   2.247  10.776   0.899  2.3171 -1.6399  0.8382
25948SOL     OW84704   2.926   1.092   9.698 -0.1450 -0.0443  0.4832
25948SOL    HW184705   2.934   1.024   9.765 -1.2466 -1.2087 -0.5080
25948SOL    HW284706   3.016   1.110   9.672  0.2977  0.3238  2.1302
25949SOL     OW84707   6.345  11.449   1.744 -0.0136 -0.4195 -0.2974
25949SOL    HW184708   6.394  11.448   1.662 -1.7586 -0.5561 -1.4033
25949SOL    HW284709   6.323  11.541   1.758  1.9095 -0.1212  1.0969
25950SOL     OW84710   2.091   7.734   1.069  0.2966 -0.2605  0.0494
25950SOL    HW184711   2.049   7.802   1.016 -0.2706 -1.0550 -0.5372
25950SOL    HW284712   2.061   7.652   1.031  1.9942 -0.8587 -0.0694
25951SOL     OW84713  12.294  10.317   5.984 -0.1774 -0.4666 -0.2709
25951SOL    HW184714  12.317  10.359   5.901  0.1729 -0.7706 -0.3291
25951SOL    HW284715  12.362  10.346   6.045 -1.0269  0.6302  0.1980
25952SOL     OW84716   7.523   4.979   4.724  0.2473  0.0850 -0.6117
25952SOL    HW184717   7.488   4.933   4.648 -0.2151 -0.6299  0.0221
25952SOL    HW284718   7.614   4.949   4.732  0.3669  0.3378 -1.0115
25953SOL     OW84719   5.541  11.087   9.679 -0.2469 -0.2186 -0.5165
25953SOL    HW184720   5.457  11.126   9.654 -0.5362 -1.4352 -1.5324
25953SOL    HW284721   5.605  11.156   9.662 -0.7719 -0.0620 -2.0536
25954SOL     OW84722   0.376   2.455  12.276 -0.1379  0.2353 -0.1380
25954SOL    HW184723   0.406   2.368  12.252  2.6754  0.9291  0.5461
25954SOL    HW284724   0.440   2.515  12.238 -1.2328  1.9471  0.5517
25955SOL     OW84725   4.214   5.810  11.515 -0.1747 -0.1867 -0.2258
25955SOL    HW184726   4.215   5.742  11.582  1.8346 -0.1304 -0.1580
25955SOL    HW284727   4.157   5.878  11.551  0.5782 -0.3067  1.2581
25956SOL     OW84728  10.133   9.280   1.748 -0.2040 -0.9370 -0.1147
25956SOL    HW184729  10.170   9.244   1.667 -0.6188  0.3581 -0.9131
25956SOL    HW284730  10.125   9.204   1.806  1.5040 -1.6490 -0.7267
25957SOL     OW84731  11.094  12.415   9.434 -0.0736  0.2744 -0.0320
25957SOL    HW184732  11.132  12.492   9.392  0.7753 -1.6486 -3.1722
25957SOL    HW284733  11.045  12.371   9.364 -0.4682 -2.0671  1.5756
25958SOL     OW84734   2.774   7.708   1.382  0.3235 -0.5970  0.2536
25958SOL    HW184735   2.686   7.742   1.401  0.0004 -1.0955 -0.3292
25958SOL    HW284736   2.827   7.737   1.456 -0.3621 -0.4042  0.6778
25959SOL     OW84737  11.220   6.421  11.167  0.3148 -0.0812 -0.2013
25959SOL    HW184738  11.190   6.483  11.101  1.7776  0.6441 -0.2418
25959SOL    HW284739  11.314   6.413  11.152  0.4916 -0.7910  1.0639
25960SOL     OW84740   7.849   6.948   2.275  0.1443  0.2904  0.3479
25960SOL    HW184741   7.770   6.983   2.316 -0.0907  2.3571 -1.6239
25960SOL    HW284742   7.826   6.939   2.183  1.8274 -0.2481 -0.0551
25961SOL     OW84743   6.177   7.747   1.347 -0.0880  0.2806  0.3137
25961SOL    HW184744   6.235   7.734   1.422  0.5276  1.5419  0.0758
25961SOL    HW284745   6.235   7.767   1.274 -0.6303 -1.6656 -0.7152
25962SOL     OW84746   4.198  12.417   8.786 -0.2118 -0.2170 -0.0648
25962SOL    HW184747   4.233  12.506   8.776  0.6409 -0.6491 -1.1303
25962SOL    HW284748   4.104  12.429   8.792 -0.1076  0.7682 -0.1934
25963SOL     OW84749   5.061   4.845   0.694 -0.6317 -0.1943  0.0995
25963SOL    HW184750   5.142   4.824   0.742 -0.9688 -2.4957 -0.2352
25963SOL    HW284751   4.991   4.810   0.749 -1.3759  1.1795  0.0555
25964SOL     OW84752   9.580  11.860   2.283  0.0715  0.0540 -0.1161
25964SOL    HW184753   9.570  11.852   2.378 -1.1286  0.7375 -0.1621
25964SOL    HW284754   9.591  11.770   2.253 -1.2897 -0.3542  0.5179
25965SOL     OW84755  10.193   5.474  10.985 -0.0831 -0.0365  0.3580
25965SOL    HW184756  10.288   5.484  10.985 -0.2171  1.6142  1.6539
25965SOL    HW284757  10.166   5.494  11.075 -1.9036  2.3069 -0.6007
25966SOL     OW84758   0.765  11.516   9.992 -0.1825 -0.4109  0.1912
25966SOL    HW184759   0.842  11.462   9.974  0.9564  0.2552  2.6511
25966SOL    HW284760   0.766  11.583   9.923  1.3556 -0.5309  0.0590
25967SOL     OW84761   4.187   8.034   4.936  0.1612 -0.2727  0.3099
25967SOL    HW184762   4.215   8.031   4.844  0.0913 -0.9230  0.3105
25967SOL    HW284763   4.256   8.084   4.980 -1.2512  2.7293 -0.6052
25968SOL     OW84764   9.000   4.077   7.805  0.4961  0.1209  0.9134
25968SOL    HW184765   8.945   4.099   7.729  2.0604  1.2891  0.0427
25968SOL    HW284766   8.979   4.145   7.869 -0.2696 -0.4158  1.2426
25969SOL     OW84767  10.175   1.508   9.544  0.2669 -0.0328 -0.3630
25969SOL    HW184768  10.258   1.465   9.565 -0.7567 -0.8108  2.6633
25969SOL    HW284769  10.200   1.589   9.499  2.7614  0.3917  1.5872
25970SOL     OW84770   6.022   1.803   0.582 -0.9000 -0.4769 -0.7961
25970SOL    HW184771   5.985   1.848   0.505 -0.8521 -0.2920 -0.7114
25970SOL    HW284772   5.945   1.779   0.634 -0.8934  3.2697  1.3167
25971SOL     OW84773  10.134   2.873   9.087  0.2513  0.1608  0.3203
25971SOL    HW184774  10.107   2.850   9.176  0.2478 -1.2080 -0.0155
25971SOL    HW284775  10.068   2.937   9.059  0.8915  1.4998  1.6725
25972SOL     OW84776   6.079   5.860  10.655  0.1043 -0.1666  0.1045
25972SOL    HW184777   6.145   5.898  10.598  0.4896 -0.5892  0.2699
25972SOL    HW284778   6.046   5.785  10.606 -0.8271  0.4971 -0.3259
25973SOL     OW84779   0.755   2.912   9.769 -0.8714  0.0454 -0.4023
25973SOL    HW184780   0.754   2.950   9.857 -1.0182 -0.7064 -0.0720
25973SOL    HW284781   0.677   2.857   9.766 -0.7239 -0.1415 -0.9205
25974SOL     OW84782  10.400  12.218   7.298 -0.0343 -0.3170 -0.4484
25974SOL    HW184783  10.315  12.179   7.281 -0.7095  0.5074  0.8589
25974SOL    HW284784  10.392  12.308   7.267 -0.5683  0.5526  1.9951
25975SOL     OW84785   7.306   2.486   7.697  0.3262 -0.3218 -0.3742
25975SOL    HW184786   7.376   2.452   7.642  0.8482 -0.5644  0.4346
25975SOL    HW284787   7.241   2.416   7.700  1.2086 -1.1249  0.9446
25976SOL     OW84788   1.934   0.059   9.992  0.4825  0.7400  0.2547
25976SOL    HW184789   1.954   0.036  10.082 -1.3840  1.1907  0.8267
25976SOL    HW284790   1.924  -0.025   9.947  0.1675  0.4937  0.7730
25977SOL     OW84791   6.117   7.535   1.636  0.4773 -0.0226  0.2952
25977SOL    HW184792   6.142   7.499   1.551 -0.8639  0.4928 -0.3472
25977SOL    HW284793   6.199   7.537   1.686  1.4872  0.5226 -1.2953
25978SOL     OW84794   5.272  10.167   3.997  0.2449 -0.5194 -0.3657
25978SOL    HW184795   5.324  10.194   3.921 -0.7264  1.6417 -0.3197
25978SOL    HW284796   5.191  10.218   3.990  0.6093  0.6556  2.7499
25979SOL     OW84797   0.163  10.732  10.903  0.1249 -0.0210  0.2378
25979SOL    HW184798   0.132  10.706  10.816 -0.6061 -0.9578  0.7702
25979SOL    HW284799   0.125  10.819  10.917  0.6670  0.3586 -0.5828
25980SOL     OW84800   4.884  12.448   6.603  0.2840  0.0371  0.0459
25980SOL    HW184801   4.941  12.511   6.646  0.4025  0.0845 -0.1753
25980SOL    HW284802   4.865  12.382   6.670  0.2069  0.2762  0.2589
25981SOL     OW84803   6.343  10.597   1.939 -0.5117  0.0182  0.9536
25981SOL    HW184804   6.404  10.582   1.866 -1.6369 -0.6029  0.1182
25981SOL    HW284805   6.313  10.687   1.927 -0.9619 -0.1965  0.4298
25982SOL     OW84806   9.772   1.556  11.200  0.1167 -0.1573 -0.0902
25982SOL    HW184807   9.767   1.615  11.124 -1.1013  1.5858  1.2501
25982SOL    HW284808   9.681   1.544  11.227  0.4991 -1.0680  0.8468
25983SOL     OW84809   1.288   0.535   3.778 -0.2809  1.2336 -0.3824
25983SOL    HW184810   1.323   0.495   3.857 -1.8191 -1.5165 -0.9543
25983SOL    HW284811   1.341   0.499   3.707 -0.9629  1.1041 -0.8375
25984SOL     OW84812  10.496   1.218   8.062  0.0796 -0.2123 -0.0436
25984SOL    HW184813  10.444   1.233   8.141 -0.0669 -0.6332 -0.0584
25984SOL    HW284814  10.500   1.123   8.054  0.9706 -0.1939  0.0377
25985SOL     OW84815   0.672  10.845   1.185 -0.1473  0.0040 -0.1936
25985SOL    HW184816   0.647  10.929   1.224  0.3451 -0.2999  0.8228
25985SOL    HW284817   0.660  10.857   1.091 -1.0422  0.8873  0.0166
25986SOL     OW84818  10.706   8.685   7.740  0.3910  0.1618 -0.0318
25986SOL    HW184819  10.621   8.688   7.783 -0.2939 -3.0982 -0.8875
25986SOL    HW284820  10.706   8.762   7.682 -1.6865  0.5852  0.4333
25987SOL     OW84821   0.420   4.206   7.387 -0.4675 -0.4017  0.6001
25987SOL    HW184822   0.363   4.282   7.391 -0.5606 -0.4557  0.3416
25987SOL    HW284823   0.390   4.149   7.457 -1.1640 -0.7286  0.0456
25988SOL     OW84824  12.259   3.220   9.722 -0.7571  0.0067 -0.1443
25988SOL    HW184825  12.261   3.186   9.632  0.1242 -0.9888  0.2366
25988SOL    HW284826  12.272   3.143   9.777 -1.1058  0.6340  0.8483
25989SOL     OW84827  11.741   0.213   2.752 -0.1617  0.2738  0.0416
25989SOL    HW184828  11.728   0.154   2.678 -1.5128  2.1505 -1.3161
25989SOL    HW284829  11.834   0.236   2.749  0.1953 -1.0742  0.0864
25990SOL     OW84830   8.530   8.240   7.722  0.0495 -0.1269  0.9704
25990SOL    HW184831   8.519   8.274   7.633 -0.0318 -0.7228  0.7491
25990SOL    HW284832   8.441   8.228   7.755  0.0770  0.6891  1.3717
25991SOL     OW84833   1.003   5.411   2.739 -0.3561  0.0580 -0.0227
25991SOL    HW184834   1.032   5.330   2.696  0.7597  0.4789 -0.0782
25991SOL    HW284835   1.003   5.389   2.832 -0.3917 -0.1119 -0.0622
25992SOL     OW84836   5.877   4.812   1.885 -0.3875  0.1281 -0.2016
25992SOL    HW184837   5.901   4.871   1.957 -1.6269 -0.5648  0.8269
25992SOL    HW284838   5.871   4.726   1.925  0.3105 -0.5368 -1.4615
25993SOL     OW84839   9.761   4.291   8.763 -0.0116 -0.3914 -0.3232
25993SOL    HW184840   9.697   4.281   8.834  0.5669 -1.7801  0.0186
25993SOL    HW284841   9.842   4.254   8.797  0.8678  0.9081 -0.9363
25994SOL     OW84842   3.376   8.081   4.736  0.0165 -0.4207  0.3629
25994SOL    HW184843   3.426   8.002   4.754  2.1229  1.0918  1.6460
25994SOL    HW284844   3.361   8.120   4.822  0.8048  1.5516 -0.3371
25995SOL     OW84845   5.027   6.544   9.750  0.2899  0.3991  0.3694
25995SOL    HW184846   5.047   6.553   9.843  1.0362  0.2254  0.2382
25995SOL    HW284847   4.983   6.626   9.727 -0.1176  0.3414  0.9241
25996SOL     OW84848   8.227   4.044   0.161  0.1092 -0.4338 -0.1827
25996SOL    HW184849   8.212   3.949   0.160  0.6920 -0.5205 -0.8774
25996SOL    HW284850   8.305   4.057   0.108  1.6094  0.1913  2.0269
25997SOL     OW84851  12.367   4.022   9.102 -0.2792 -0.6450 -0.6280
25997SOL    HW184852  12.308   3.969   9.155  0.9166  1.0562  2.6250
25997SOL    HW284853  12.454   3.984   9.116  0.3535  1.0693  0.3877
25998SOL     OW84854   8.446   9.483  10.114 -0.8957  0.1941 -0.3635
25998SOL    HW184855   8.418   9.443  10.031 -0.3865 -1.0795  0.0577
25998SOL    HW284856   8.533   9.446  10.130 -0.5020  1.3185  0.1693
25999SOL     OW84857   4.065   6.863   3.917  0.4852 -0.4563  0.0900
25999SOL    HW184858   4.052   6.874   3.823  2.0823  1.6725  0.0470
25999SOL    HW284859   3.992   6.911   3.958  1.8011  1.8715 -0.1306
26000SOL     OW84860  11.870   0.798   9.513  0.1605 -0.3136 -0.1023
26000SOL    HW184861  11.849   0.735   9.581 -0.9575 -1.8668 -1.7871
26000SOL    HW284862  11.785   0.835   9.488  0.6140  0.6452 -0.2731
26001SOL     OW84863  11.862   2.741   9.895 -0.4785 -0.2230 -0.2351
26001SOL    HW184864  11.832   2.712   9.809  0.8342 -0.4705 -0.6346
26001SOL    HW284865  11.891   2.661   9.939  1.3964  0.1956 -0.6186
26002SOL     OW84866   0.623   4.662   0.613  0.0638  0.2085  0.2455
26002SOL    HW184867   0.553   4.611   0.574  1.5916 -2.0522  0.2430
26002SOL    HW284868   0.691   4.664   0.546  0.0306  2.3921  0.2234
26003SOL     OW84869  12.418   4.358   0.051 -0.1306 -0.4445  0.1260
26003SOL    HW184870  12.466   4.435   0.020  1.9576 -1.9921 -0.7383
26003SOL    HW284871  12.454   4.341   0.138  0.5215 -1.2624 -0.2836
26004SOL     OW84872   3.212   7.433  10.903 -0.0028 -0.0943  0.1703
26004SOL    HW184873   3.259   7.495  10.847  1.2363 -1.4490 -0.3544
26004SOL    HW284874   3.240   7.456  10.992  1.7926 -0.8961 -0.1325
26005SOL     OW84875   8.686   1.494   1.911 -0.7788  0.5276  0.0729
26005SOL    HW184876   8.621   1.424   1.915 -0.4248  0.2564  1.2953
26005SOL    HW284877   8.674   1.542   1.993  2.4398 -1.2264  1.7400
26006SOL     OW84878  11.479   1.756   8.617  0.2686 -0.7797 -0.0782
26006SOL    HW184879  11.551   1.802   8.575  0.3032 -0.2486  0.5487
26006SOL    HW284880  11.505   1.664   8.616 -1.2835 -1.4101 -4.4618
26007SOL     OW84881  11.164   6.283   2.466  0.6589  0.2992 -0.2055
26007SOL    HW184882  11.259   6.295   2.468  0.9569 -0.7941 -2.9800
26007SOL    HW284883  11.133   6.353   2.409 -0.4702  1.5099  1.7595
26008SOL     OW84884   6.818   1.174   9.257 -0.2119  0.0558  0.3819
26008SOL    HW184885   6.801   1.199   9.166 -0.3029 -1.8942 -0.1977
26008SOL    HW284886   6.913   1.176   9.265 -0.1866 -0.0547  0.1371
26009SOL     OW84887   9.801  11.034   4.880 -0.0944 -0.0273  0.2698
26009SOL    HW184888   9.807  10.977   4.957  0.3397  0.9111  0.9580
26009SOL    HW284889   9.710  11.027   4.851 -0.1929 -0.5916  0.7155
26010SOL     OW84890   3.969  12.110   8.485  0.4958  0.1335  0.2428
26010SOL    HW184891   3.999  12.099   8.575 -0.8410  1.2261  0.8686
26010SOL    HW284892   4.049  12.119   8.433  1.2931  1.9255  1.6700
26011SOL     OW84893   7.986   5.006   2.626  0.0335  0.5375 -0.5595
26011SOL    HW184894   7.894   5.028   2.610 -0.9619 -1.4486  1.7265
26011SOL    HW284895   7.990   4.911   2.612  0.9021  0.0434  2.3969
26012SOL     OW84896   5.587   2.222   8.776 -0.2973 -0.2159  0.2177
26012SOL    HW184897   5.622   2.307   8.748 -0.4075 -0.5536 -1.0038
26012SOL    HW284898   5.662   2.163   8.774 -0.3588 -0.3015  0.4099
26013SOL     OW84899  11.104   4.057   7.596 -0.5575  0.2981  0.0083
26013SOL    HW184900  11.137   4.039   7.508 -0.0753 -0.1766  0.2789
26013SOL    HW284901  11.016   4.092   7.582 -0.5069  0.1691 -0.6578
26014SOL     OW84902   3.287   8.148   0.796  0.4599  0.4397  0.0675
26014SOL    HW184903   3.201   8.109   0.778  0.9532 -0.4944 -0.2924
26014SOL    HW284904   3.332   8.085   0.851  0.9223  0.9325  0.2628
26015SOL     OW84905   4.328   7.050  12.319 -0.3205  0.0518  0.3741
26015SOL    HW184906   4.399   7.115  12.319 -0.6656  0.5096  2.5123
26015SOL    HW284907   4.249   7.101  12.336 -1.4218 -0.3149 -2.9341
26016SOL     OW84908  11.465   2.809   6.073 -0.0919 -0.1957  0.2105
26016SOL    HW184909  11.427   2.859   6.001  0.4190  0.4262  0.3584
26016SOL    HW284910  11.399   2.811   6.141 -0.6475 -0.9270 -0.2906
26017SOL     OW84911   1.276   3.999   1.131  0.5506 -0.1949 -0.3366
26017SOL    HW184912   1.346   3.945   1.169 -0.3703 -0.2421  1.4127
26017SOL    HW284913   1.212   4.007   1.201  0.2670  2.5445 -0.8030
26018SOL     OW84914   2.609   3.319   4.954  0.0617  0.1724  0.2444
26018SOL    HW184915   2.588   3.351   4.867  0.2531 -1.2782 -0.3585
26018SOL    HW284916   2.527   3.285   4.989  0.1067  0.2167  0.3975
26019SOL     OW84917  10.869   9.364   7.158 -0.7846  0.0441  0.0721
26019SOL    HW184918  10.851   9.437   7.217 -1.9520  1.2679 -1.7155
26019SOL    HW284919  10.945   9.320   7.197 -0.5447  1.7291  1.6294
26020SOL     OW84920  10.924   4.725   9.803  0.2322  0.0740 -0.7452
26020SOL    HW184921  10.874   4.760   9.730 -0.1235  0.0401 -0.5216
26020SOL    HW284922  11.011   4.762   9.793 -0.0152  0.6516 -0.7720
26021SOL     OW84923   3.235   8.140  10.495 -0.0439 -0.0072  0.2120
26021SOL    HW184924   3.213   8.065  10.551  0.0993 -0.1652  0.0587
26021SOL    HW284925   3.226   8.216  10.552  0.5001 -0.2011  0.5650
26022SOL     OW84926   9.399   8.908   3.485  0.2190  0.0977  0.1379
26022SOL    HW184927   9.339   8.925   3.413 -0.2515 -1.0202  0.2448
26022SOL    HW284928   9.349   8.855   3.547  0.6118  1.0248  1.3085
26023SOL     OW84929   7.395   5.089  11.283  0.0948  0.5967  0.4499
26023SOL    HW184930   7.481   5.110  11.321 -0.3850  1.5123  1.0747
26023SOL    HW284931   7.332   5.121  11.348 -0.7296  0.6610 -0.3627
26024SOL     OW84932   8.356   6.785   5.369 -0.1802 -0.3380 -0.1710
26024SOL    HW184933   8.355   6.871   5.410 -0.3552  0.5239 -1.8944
26024SOL    HW284934   8.410   6.796   5.290 -2.2744 -1.1162 -1.7926
26025SOL     OW84935   4.378  10.602   7.115 -0.0913  0.2312 -0.3338
26025SOL    HW184936   4.291  10.570   7.138 -0.3113 -1.6152 -3.2792
26025SOL    HW284937   4.362  10.689   7.077 -0.5363  0.3179  0.0478
26026SOL     OW84938   3.827   3.596   2.515  0.5582  0.8514  0.4899
26026SOL    HW184939   3.760   3.575   2.451  1.1381  1.0905 -0.2091
26026SOL    HW284940   3.781   3.598   2.599  0.1852 -1.6824  0.4139
26027SOL     OW84941   7.687   2.023   5.019 -0.4736 -0.4575  0.1997
26027SOL    HW184942   7.667   2.070   4.938  1.0011  1.0523  0.6604
26027SOL    HW284943   7.629   1.948   5.017 -1.6386  0.4113 -1.4665
26028SOL     OW84944  11.541   5.753   0.412  0.2977 -0.2129 -0.3997
26028SOL    HW184945  11.625   5.794   0.434  0.0701  0.5109 -0.8719
26028SOL    HW284946  11.491   5.822   0.369 -1.4738  0.1172  1.9643
26029SOL     OW84947   9.094   9.962   4.572  0.0235  0.2580 -0.4359
26029SOL    HW184948   9.101   9.867   4.586 -0.3902  0.2121 -0.5321
26029SOL    HW284949   9.082   9.972   4.478 -2.5661  0.2226 -0.1919
26030SOL     OW84950   2.764   1.054  10.080  0.3318  0.5763  0.0028
26030SOL    HW184951   2.689   1.016  10.034  0.7715  0.6643 -0.7892
26030SOL    HW284952   2.765   1.008  10.164  0.6657 -0.9783 -0.8071
26031SOL     OW84953   1.853   4.894  10.632  0.3522  0.1205  0.4563
26031SOL    HW184954   1.912   4.843  10.688  2.2629  1.8464  0.1455
26031SOL    HW284955   1.782   4.834  10.610  2.1052 -2.1576  0.6819
26032SOL     OW84956  11.861   1.517   5.694  0.7185  0.2630 -0.3945
26032SOL    HW184957  11.788   1.578   5.700 -0.4979 -1.1162 -0.4555
26032SOL    HW284958  11.934   1.562   5.734 -1.0888  0.3057  3.2389
26033SOL     OW84959   6.494   9.705   7.915  0.1938 -0.2849  0.0525
26033SOL    HW184960   6.476   9.729   7.824 -0.9565 -0.9938  0.0732
26033SOL    HW284961   6.418   9.737   7.963  0.8017  0.1004  0.7779
26034SOL     OW84962   0.487   3.641  10.171  0.5600  0.2504 -0.1623
26034SOL    HW184963   0.404   3.688  10.173 -0.0526 -0.7903 -0.4399
26034SOL    HW284964   0.505   3.620  10.263  0.5032  0.4533 -0.1042
26035SOL     OW84965  10.623  11.895   7.608  0.3892  0.1118 -0.1768
26035SOL    HW184966  10.630  11.969   7.549  1.2301 -0.0829 -0.3374
26035SOL    HW284967  10.550  11.843   7.574  0.9310 -0.0543 -1.1219
26036SOL     OW84968   4.057   6.748   1.784 -0.0700 -0.6181  0.1373
26036SOL    HW184969   4.122   6.679   1.801 -0.0464 -0.4759  0.6421
26036SOL    HW284970   4.077   6.779   1.696  1.4494  0.3744  0.7882
26037SOL     OW84971   2.569   9.565   9.769 -0.4069  0.1404  0.9956
26037SOL    HW184972   2.475   9.580   9.759 -0.0032  1.8372 -1.0687
26037SOL    HW284973   2.607   9.597   9.687  2.0077 -0.3170  1.8528
26038SOL     OW84974   9.716   6.963  10.370 -0.4790  0.2945  0.3261
26038SOL    HW184975   9.747   6.874  10.358 -0.5188  0.2884  0.2654
26038SOL    HW284976   9.741   7.009  10.290 -1.3093  0.0921 -0.0627
26039SOL     OW84977   0.351   9.564   6.653 -0.1626  0.0482 -0.3477
26039SOL    HW184978   0.397   9.548   6.736 -0.4158 -1.1751 -0.4259
26039SOL    HW284979   0.416   9.547   6.586 -0.2342  0.0451 -0.4167
26040SOL     OW84980   7.432   0.919   5.577 -0.8598  0.0282 -0.2184
26040SOL    HW184981   7.498   0.900   5.511 -0.2966 -0.6517  0.5164
26040SOL    HW284982   7.405   0.833   5.610 -1.5405  0.3298  0.0436
26041SOL     OW84983   1.283   4.978   2.321 -0.1000  0.0439 -0.7582
26041SOL    HW184984   1.345   5.008   2.388 -2.3490  4.0246 -0.1513
26041SOL    HW284985   1.330   4.990   2.238  0.5252  1.5944 -0.2295
26042SOL     OW84986   8.753   3.355   4.963 -0.6769 -0.0526 -0.0999
26042SOL    HW184987   8.758   3.386   5.054  0.6283  0.0400 -0.1743
26042SOL    HW284988   8.730   3.433   4.912 -1.3761 -0.0977  0.1402
26043SOL     OW84989   2.032   3.555   3.159 -0.0517 -0.3275 -0.0169
26043SOL    HW184990   2.063   3.608   3.232 -0.9721 -0.9143  0.8378
26043SOL    HW284991   2.109   3.542   3.103  0.5076  0.6956  0.5000
26044SOL     OW84992   5.915   3.904   2.410 -0.3342 -0.2436  0.1167
26044SOL    HW184993   5.976   3.970   2.378 -1.3056  0.4642 -0.3307
26044SOL    HW284994   5.864   3.879   2.333  1.2831 -3.0133 -0.2207
26045SOL     OW84995  10.312   8.325   2.713  0.6359  0.1306 -0.2754
26045SOL    HW184996  10.402   8.316   2.680  0.3951 -0.2403 -0.8372
26045SOL    HW284997  10.321   8.380   2.791  1.7383 -2.1698  1.3317
26046SOL     OW84998   4.103   9.783  12.240  0.3074 -0.5743 -0.2627
26046SOL    HW184999   4.186   9.763  12.283  0.6172  1.8099  0.3489
26046SOL    HW285000   4.127   9.823  12.157 -0.2336  0.0438 -0.1257
26047SOL     OW85001   1.044   1.777   3.526  0.2856 -0.3328  0.0312
26047SOL    HW185002   0.994   1.750   3.449  1.5325  0.6434 -1.1800
26047SOL    HW285003   1.023   1.870   3.537  0.8758 -0.2182  0.2347
26048SOL     OW85004   4.912   3.327   8.748 -0.1577  0.2815  0.2804
26048SOL    HW185005   4.930   3.310   8.655  0.3061 -0.5820  0.5102
26048SOL    HW285006   4.988   3.375   8.779 -0.3710  0.6811  0.1832
26049SOL     OW85007   1.529   4.522   4.219 -0.6147 -0.3128 -0.0455
26049SOL    HW185008   1.546   4.612   4.191  0.1112 -1.0141 -2.1198
26049SOL    HW285009   1.616   4.487   4.241 -0.9457 -0.3932  1.2047
26050SOL     OW85010   9.595   5.658   6.554  0.0073 -0.5306 -0.4014
26050SOL    HW185011   9.614   5.602   6.629 -1.8116 -0.3509  0.2446
26050SOL    HW285012   9.680   5.698   6.532  0.8214 -1.5326  0.7556
26051SOL     OW85013   4.133   5.850   3.950 -0.0796  0.0722  0.2090
26051SOL    HW185014   4.161   5.891   3.868  0.5368 -0.5288  0.1124
26051SOL    HW285015   4.042   5.877   3.960 -0.5923 -0.8991 -1.3626
26052SOL     OW85016   0.918  11.087   5.292 -0.5359 -1.4450  0.5960
26052SOL    HW185017   0.974  11.027   5.242  0.0197 -0.6842  0.2939
26052SOL    HW285018   0.835  11.040   5.300 -0.2512 -2.0764 -0.0131
26053SOL     OW85019  10.146   5.712   3.458  0.6296  0.5713 -0.2921
26053SOL    HW185020  10.217   5.652   3.480 -1.2837 -1.1540  1.6495
26053SOL    HW285021  10.139   5.770   3.534 -0.1606  0.5637 -0.3487
26054SOL     OW85022   7.932   0.723   3.258 -0.3838 -0.3242  0.0189
26054SOL    HW185023   7.892   0.757   3.338 -1.3662  0.1935 -0.6859
26054SOL    HW285024   8.003   0.666   3.290 -2.0016 -1.7170  1.3052
26055SOL     OW85025   4.734   2.710   2.540  0.2916 -0.2678 -0.2265
26055SOL    HW185026   4.735   2.800   2.572 -0.8873 -0.8171  1.5570
26055SOL    HW285027   4.762   2.715   2.449  1.0422  1.7889  0.0871
26056SOL     OW85028   5.114  11.147   8.091 -0.2529  0.9326  0.2212
26056SOL    HW185029   5.122  11.068   8.144 -2.9249  0.6042  0.2753
26056SOL    HW285030   5.174  11.210   8.132  1.0430 -0.6729  0.8902
26057SOL     OW85031   0.370  10.958   0.388  0.2518  0.2187  0.3886
26057SOL    HW185032   0.426  10.891   0.347 -0.2010 -0.0386  0.1859
26057SOL    HW285033   0.393  11.039   0.343  0.8605  0.2189  0.6863
26058SOL     OW85034   3.753   7.663   7.616 -0.2246  0.0084  0.1358
26058SOL    HW185035   3.831   7.711   7.588 -1.4837  1.9862 -0.2797
26058SOL    HW285036   3.710   7.638   7.534 -0.8940  0.4988  0.3284
26059SOL     OW85037  11.773   7.331   6.619  0.5804 -0.3534  0.0111
26059SOL    HW185038  11.822   7.397   6.570 -0.1354  0.0550 -0.1613
26059SOL    HW285039  11.765   7.368   6.707  1.9744 -1.1406  0.5054
26060SOL     OW85040   8.901   7.191   2.652 -0.2068  0.3571 -0.4532
26060SOL    HW185041   8.856   7.157   2.574  1.2349 -0.0509 -1.1460
26060SOL    HW285042   8.973   7.243   2.617 -0.0548  0.8830  0.6245
26061SOL     OW85043   8.465   8.661   2.971  0.2524 -0.2935 -0.1843
26061SOL    HW185044   8.430   8.575   2.950 -2.6055  0.6707  0.1230
26061SOL    HW285045   8.434   8.679   3.060  0.9176  0.9736 -0.1811
26062SOL     OW85046   9.891  12.017  11.018 -0.0985  0.3935 -0.0235
26062SOL    HW185047   9.955  11.995  10.951  0.0307  2.0333 -0.4641
26062SOL    HW285048   9.866  12.107  11.000  0.1473  0.9940  2.2981
26063SOL     OW85049  10.079   3.777  10.725  0.0201 -0.4760 -0.0687
26063SOL    HW185050  10.046   3.815  10.807  1.1960  1.6479 -0.4943
26063SOL    HW285051  10.136   3.706  10.753  3.0884  2.2466  1.3129
26064SOL     OW85052  11.652   6.730   2.926 -0.2335 -0.2278 -0.2642
26064SOL    HW185053  11.608   6.794   2.870 -0.7068  0.8621  1.2669
26064SOL    HW285054  11.653   6.649   2.875 -0.9089  0.6281 -1.6962
26065SOL     OW85055   0.140   6.343   2.915  0.1195 -0.3037  0.5390
26065SOL    HW185056   0.160   6.325   3.007 -0.5482 -0.4843  0.6520
26065SOL    HW285057   0.221   6.380   2.880 -0.0750  1.2470  1.5987
26066SOL     OW85058   3.579  11.544  11.227 -0.0593 -0.2635  0.5035
26066SOL    HW185059   3.566  11.586  11.142 -1.1781  1.8405  1.6218
26066SOL    HW285060   3.662  11.496  11.219  1.1021  1.8591 -1.0272
26067SOL     OW85061   5.067   8.371   4.451 -0.4511  0.5161 -0.3500
26067SOL    HW185062   5.081   8.367   4.357 -1.3117  0.8071 -0.5055
26067SOL    HW285063   5.044   8.462   4.468 -1.6223  0.1863 -0.0775
26068SOL     OW85064   7.230   2.335   3.494  0.0741 -0.3697  0.7062
26068SOL    HW185065   7.219   2.280   3.572  1.1081 -0.1475  1.0218
26068SOL    HW285066   7.324   2.352   3.490 -0.2375  1.4822  0.6855
26069SOL     OW85067   1.581  10.886  10.198 -0.2299 -0.1750  0.0784
26069SOL    HW185068   1.574  10.861  10.106  1.3917  1.1090 -0.4418
26069SOL    HW285069   1.557  10.807  10.247  2.0475 -1.9362 -1.4441
26070SOL     OW85070   8.204   8.673   2.740 -0.6270  0.8125  0.4958
26070SOL    HW185071   8.293   8.703   2.722 -0.3162 -1.5488 -2.6806
26070SOL    HW285072   8.150   8.752   2.732  0.9222  1.9258  0.4746
26071SOL     OW85073   6.179   8.016   7.140 -0.6075  0.1984  0.0488
26071SOL    HW185074   6.223   7.966   7.072  0.4925  2.0488 -0.6969
26071SOL    HW285075   6.110   8.063   7.093 -1.4428 -0.3842  0.6774
26072SOL     OW85076  11.776   1.929   2.996 -0.8608 -0.3136  0.6587
26072SOL    HW185077  11.759   1.862   2.930 -0.2241  0.0677  0.0972
26072SOL    HW285078  11.870   1.924   3.012 -0.1329  2.5900 -1.8110
26073SOL     OW85079  10.542  12.054  12.190  0.0863  0.2075 -0.3170
26073SOL    HW185080  10.611  12.108  12.152  1.0900  1.2742  2.6709
26073SOL    HW285081  10.584  12.010  12.264 -2.3313  0.8145  1.5646
26074SOL     OW85082   5.093   0.927   1.241  0.5142 -0.3829  0.0036
26074SOL    HW185083   5.130   0.845   1.274  0.8042  0.0205  0.6904
26074SOL    HW285084   4.998   0.912   1.243  0.5773 -1.5474 -2.1046
26075SOL     OW85085   6.340   0.396   7.071  0.1871 -0.4694 -0.0605
26075SOL    HW185086   6.395   0.320   7.053 -1.5907 -1.7139 -0.5075
26075SOL    HW285087   6.277   0.399   6.998  0.8416  2.0879 -0.6442
26076SOL     OW85088   6.261   4.311   8.284 -0.1927 -0.6009 -0.3690
26076SOL    HW185089   6.282   4.361   8.205 -0.1194  3.7666  2.1455
26076SOL    HW285090   6.343   4.309   8.334 -1.1168 -0.0073  1.2153
26077SOL     OW85091  10.226   8.991  10.849  0.1534 -0.1483  0.3411
26077SOL    HW185092  10.305   8.941  10.826  1.6932  2.3470 -0.1612
26077SOL    HW285093  10.237   9.011  10.942 -1.4412 -2.2616  1.0754
26078SOL     OW85094  11.074   1.353   8.233  0.1855  0.1167 -0.0026
26078SOL    HW185095  11.031   1.374   8.316  0.3112  0.8729 -0.1198
26078SOL    HW285096  11.014   1.293   8.189 -0.7984  1.1944 -0.1925
26079SOL     OW85097   8.133   5.870  10.105  0.6175  0.1407  0.1018
26079SOL    HW185098   8.058   5.811  10.108  1.0587 -0.4061  0.5257
26079SOL    HW285099   8.209   5.813  10.106  1.1037  0.7040  2.4372
26080SOL     OW85100   9.357   3.402   9.458 -0.0335  0.1974  0.6280
26080SOL    HW185101   9.346   3.307   9.445  0.0642  0.3677 -0.9786
26080SOL    HW285102   9.360   3.413   9.553 -0.2113 -1.3913  0.8551
26081SOL     OW85103   8.971   6.483  10.577 -0.2624 -0.0154 -0.1102
26081SOL    HW185104   9.066   6.486  10.571 -0.2805  0.9043 -0.1947
26081SOL    HW285105   8.942   6.455  10.490 -0.0800  0.1595 -0.2284
26082SOL     OW85106   7.973  11.925  10.004  0.3345  0.1682  0.0635
26082SOL    HW185107   7.931  12.009  10.024  1.7699  0.8614  0.3348
26082SOL    HW285108   7.917  11.859  10.045 -0.7479  0.9971 -0.0485
26083SOL     OW85109  10.388   1.187  12.410  0.0592 -0.2825  0.0490
26083SOL    HW185110  10.347   1.111  12.451  1.7286 -0.8063  0.8128
26083SOL    HW285111  10.315   1.248  12.396 -1.3000 -1.9559 -0.5217
26084SOL     OW85112  11.687   0.791   8.700 -0.0331  0.1217  0.2502
26084SOL    HW185113  11.681   0.806   8.795  1.7808  0.7253  0.2979
26084SOL    HW285114  11.766   0.836   8.673 -0.8804  0.5588 -1.7082
26085SOL     OW85115   4.106   6.882  10.684  0.6997 -0.1362 -0.0696
26085SOL    HW185116   4.109   6.901  10.777  1.8670  2.8257 -0.5784
26085SOL    HW285117   4.017   6.851  10.668  0.7340 -1.5128  2.1095
26086SOL     OW85118   2.051   3.959   1.967  0.0742  0.1236 -0.2225
26086SOL    HW185119   2.032   3.876   1.925 -0.4177  0.3460 -0.4522
26086SOL    HW285120   2.085   4.015   1.897 -0.2252  0.3208 -0.2149
26087SOL     OW85121   9.624   6.464  10.761 -0.3891  0.1117 -0.0747
26087SOL    HW185122   9.537   6.465  10.801 -0.0969  2.9028  0.6595
26087SOL    HW285123   9.651   6.372  10.765 -2.5575 -0.5338  1.2918
26088SOL     OW85124   7.246  10.429  11.895  0.0978  0.1455  0.7885
26088SOL    HW185125   7.246  10.359  11.960  1.4071 -0.1556  0.4887
26088SOL    HW285126   7.268  10.508  11.944  0.6388 -0.0055  0.7941
26089SOL     OW85127   8.349   1.086   9.363  0.5324 -0.0428 -0.2201
26089SOL    HW185128   8.278   1.028   9.392 -0.1427  0.9669  0.2315
26089SOL    HW285129   8.391   1.039   9.292 -0.7033 -0.6105 -0.6054
26090SOL     OW85130   9.241   8.166   0.978 -0.5001  0.1416  0.0069
26090SOL    HW185131   9.256   8.259   0.990 -0.6715  0.0360  1.1671
26090SOL    HW285132   9.245   8.153   0.883 -1.9100  1.5663 -0.2800
26091SOL     OW85133   4.620  12.388   1.055  0.0313 -0.5636  0.0542
26091SOL    HW185134   4.704  12.341   1.058 -0.7909 -2.1240 -0.1822
26091SOL    HW285135   4.596  12.400   1.146  0.9742  0.8231  0.1521
26092SOL     OW85136  11.260   0.637   3.277  0.2918  0.2080 -0.2764
26092SOL    HW185137  11.315   0.672   3.206 -0.6156 -0.7980 -1.5197
26092SOL    HW285138  11.303   0.555   3.301  1.0825  0.9474  0.9940
26093SOL     OW85139   0.045   9.718   0.568 -0.7853  0.0435  0.0752
26093SOL    HW185140   0.121   9.724   0.511  0.7901  1.9132  2.1905
26093SOL    HW285141   0.040   9.625   0.592  0.5704 -0.1789 -0.4327
26094SOL     OW85142  12.040   8.902  10.373  0.3088 -0.0318  0.4269
26094SOL    HW185143  12.000   8.934  10.292 -1.9127 -0.6492  1.2069
26094SOL    HW285144  12.130   8.878  10.348 -0.1413  0.3310 -1.6999
26095SOL     OW85145  11.691  10.879  12.067  0.4821  0.7803  0.2686
26095SOL    HW185146  11.716  10.840  12.150  1.3656  0.2076 -0.2578
26095SOL    HW285147  11.748  10.838  12.002  1.8906  3.3357 -0.2424
26096SOL     OW85148  10.906   2.351   0.367 -0.0100  0.0796 -0.2266
26096SOL    HW185149  10.968   2.376   0.435  1.1921  1.5365 -1.7908
26096SOL    HW285150  10.958   2.307   0.301 -0.6670  0.9572 -1.3767
26097SOL     OW85151   4.399  11.739   9.896 -0.3453  0.2734 -0.3007
26097SOL    HW185152   4.363  11.665   9.846  0.6906 -1.0183  0.7939
26097SOL    HW285153   4.468  11.700   9.950  0.5091  2.1302  0.0133
26098SOL     OW85154   9.828   2.882   0.282  0.0080  0.7325 -0.5258
26098SOL    HW185155   9.782   2.925   0.354 -0.3437  1.8088 -1.3683
26098SOL    HW285156   9.882   2.951   0.244  0.1788  0.1765 -1.3082
26099SOL     OW85157   7.356   2.307   8.025  0.2603 -1.1353  0.1822
26099SOL    HW185158   7.365   2.250   8.101  0.4658 -0.3493  0.7616
26099SOL    HW285159   7.441   2.301   7.981  0.3319 -1.1618  0.3236
26100SOL     OW85160  11.611   9.121   7.401  0.4274 -0.4237  0.2524
26100SOL    HW185161  11.690   9.104   7.349  1.3660 -0.1799  1.5749
26100SOL    HW285162  11.630   9.085   7.487 -1.2165 -1.0511  0.3838
26101SOL     OW85163   7.593   3.843   5.225  0.3912 -0.3577 -0.5569
26101SOL    HW185164   7.663   3.787   5.258  0.0995 -0.0725  0.6124
26101SOL    HW285165   7.632   3.930   5.220  0.6719 -0.5358 -1.8025
26102SOL     OW85166   9.346   6.118   9.296 -0.1805  0.5616  0.1485
26102SOL    HW185167   9.408   6.049   9.318 -1.1515 -0.4640 -0.2935
26102SOL    HW285168   9.386   6.162   9.221  0.1345  0.0829  0.0297
26103SOL     OW85169   7.842   0.638   9.163 -0.4312  0.1707 -0.6172
26103SOL    HW185170   7.926   0.646   9.118  0.4743  0.8524  1.0957
26103SOL    HW285171   7.862   0.588   9.241 -1.4686  0.9106  0.1503
26104SOL     OW85172   8.013   9.108   3.131 -0.6413  0.9329 -0.1452
26104SOL    HW185173   8.072   9.151   3.193 -2.4832 -0.4946  2.8174
26104SOL    HW285174   8.065   9.037   3.093  0.8175  2.4345 -1.0659
26105SOL     OW85175   4.184   1.608   2.389 -0.0839  0.1671 -0.2095
26105SOL    HW185176   4.145   1.539   2.336 -0.3295  0.0174  0.1637
26105SOL    HW285177   4.262   1.569   2.426 -0.0798  0.1729 -0.2121
26106SOL     OW85178   0.782   2.268   6.337 -0.2930  0.4895  0.0679
26106SOL    HW185179   0.738   2.227   6.412 -0.4827 -0.2613 -0.4460
26106SOL    HW285180   0.809   2.194   6.282  1.1188  0.9545  0.0886
26107SOL     OW85181   5.845   4.870   7.326  0.6646 -0.3084 -0.8753
26107SOL    HW185182   5.824   4.792   7.275 -0.5547 -0.3241 -0.3734
26107SOL    HW285183   5.925   4.846   7.373 -0.0499 -1.5233 -0.2145
26108SOL     OW85184  11.801   9.620   3.022 -0.4379 -0.8098 -0.3049
26108SOL    HW185185  11.737   9.617   2.950 -1.6033 -0.6699  0.6901
26108SOL    HW285186  11.755   9.579   3.095 -1.0347  3.0516  1.6918
26109SOL     OW85187   0.247   6.572   8.051  0.0476 -0.3737 -0.6352
26109SOL    HW185188   0.200   6.655   8.038 -0.1080 -0.0587  1.5009
26109SOL    HW285189   0.288   6.581   8.138  1.0715 -2.0631 -0.8877
26110SOL     OW85190   1.904   1.528   9.307  0.1781 -0.4558  0.1430
26110SOL    HW185191   1.920   1.606   9.359  0.9746  0.7196 -1.7559
26110SOL    HW285192   1.809   1.526   9.295  0.3150  2.3025 -2.6480
26111SOL     OW85193   8.182   7.637  12.185 -0.1797  0.1028  0.2786
26111SOL    HW185194   8.199   7.728  12.208 -0.8112  0.6075 -1.1642
26111SOL    HW285195   8.088   7.625  12.201 -0.2021 -0.1484 -0.0336
26112SOL     OW85196   4.687  10.476  10.788 -0.6211 -0.1201 -0.3552
26112SOL    HW185197   4.636  10.557  10.791 -0.5046 -0.0845  1.7759
26112SOL    HW285198   4.761  10.492  10.847 -0.7065 -1.8399  0.2538
26113SOL     OW85199   0.616  12.198  11.820 -0.0173 -0.3780  0.0742
26113SOL    HW185200   0.640  12.118  11.868 -1.6091 -0.8292  0.1820
26113SOL    HW285201   0.563  12.248  11.881  0.6850  0.6357 -0.1123
26114SOL     OW85202   5.180   9.712   0.986 -0.4738  0.3507  0.4878
26114SOL    HW185203   5.232   9.779   1.030  0.0118 -0.6090  1.4383
26114SOL    HW285204   5.244   9.649   0.954 -0.9540 -0.0154  0.2336
26115SOL     OW85205   2.537   6.596   2.178 -0.4933 -0.1953  0.3498
26115SOL    HW185206   2.479   6.555   2.242 -0.5990 -0.0080  0.3733
26115SOL    HW285207   2.612   6.537   2.173 -0.0018  0.3268  1.4209
26116SOL     OW85208  10.122   9.787   7.200  0.1146  0.1073  0.0191
26116SOL    HW185209  10.187   9.740   7.252  2.4516  4.4799  1.5587
26116SOL    HW285210  10.174   9.833   7.134 -1.7083  1.7628 -0.3441
26117SOL     OW85211   5.690  12.324   8.095 -0.3308  0.5511 -0.1656
26117SOL    HW185212   5.775  12.325   8.050 -0.2169 -0.3093  0.0220
26117SOL    HW285213   5.685  12.238   8.136 -2.2253 -0.2672 -1.9261
26118SOL     OW85214  10.508   4.770   4.574 -0.2450  0.2422 -0.0704
26118SOL    HW185215  10.530   4.800   4.486 -0.7426  0.8030 -0.0099
26118SOL    HW285216  10.553   4.686   4.583  1.3376  1.0397 -0.1783
26119SOL     OW85217   5.222   1.416   0.367  0.0966 -0.5556 -0.5340
26119SOL    HW185218   5.204   1.338   0.316 -2.7793 -0.3370 -0.0639
26119SOL    HW285219   5.176   1.486   0.321  2.7608  0.9776 -1.0558
26120SOL     OW85220   6.991   2.368   5.538 -0.0041 -0.3126  0.1378
26120SOL    HW185221   6.905   2.399   5.566  0.2108  0.8113 -0.3768
26120SOL    HW285222   6.972   2.297   5.477 -0.7964  2.3732 -3.0212
26121SOL     OW85223   0.868   6.739  12.187 -0.2570 -0.0322  0.4315
26121SOL    HW185224   0.792   6.797  12.188 -0.7242 -0.6400  1.0826
26121SOL    HW285225   0.848   6.675  12.119 -1.5042 -1.6827  2.2552
26122SOL     OW85226  10.125   0.720   3.636  0.3550 -0.3574 -0.5465
26122SOL    HW185227  10.186   0.771   3.583  0.0688 -0.5507 -1.0735
26122SOL    HW285228  10.054   0.781   3.657  1.0495  0.0720  0.6640
26123SOL     OW85229   6.484   0.354   1.762 -0.2482 -0.4159  0.0571
26123SOL    HW185230   6.456   0.271   1.800 -0.7903 -1.1004 -1.7350
26123SOL    HW285231   6.430   0.364   1.683  1.0864  0.7290 -0.7572
26124SOL     OW85232   1.185  10.348   2.802  0.1524 -0.5263  0.1202
26124SOL    HW185233   1.169  10.440   2.823  0.3028 -0.2743 -0.8454
26124SOL    HW285234   1.217  10.348   2.712  1.1037 -1.4394  0.4252
26125SOL     OW85235   5.840  11.193   0.923  0.3513 -0.5486 -0.3475
26125SOL    HW185236   5.812  11.175   1.013  1.5210  0.9803  0.3774
26125SOL    HW285237   5.900  11.122   0.901  1.5829  0.0795  0.8455
26126SOL     OW85238   4.853   1.275   5.217  0.6638  0.2708  0.2983
26126SOL    HW185239   4.862   1.222   5.138 -1.6483 -0.3364  0.3626
26126SOL    HW285240   4.827   1.361   5.186 -0.3646 -0.0008  0.3772
26127SOL     OW85241   7.798   3.620  10.747 -0.5293  0.3809  0.2749
26127SOL    HW185242   7.772   3.576  10.827  0.3762 -0.0125  0.3687
26127SOL    HW285243   7.743   3.698  10.742 -0.2071  0.7089  1.5802
26128SOL     OW85244   1.478  11.240   3.315 -0.0981 -0.0306  0.0310
26128SOL    HW185245   1.428  11.321   3.310  1.6540  1.0904 -0.1491
26128SOL    HW285246   1.545  11.257   3.382 -1.6816 -2.5080  2.4528
26129SOL     OW85247   1.056   6.309  10.934 -0.2517  0.3185 -0.2298
26129SOL    HW185248   1.064   6.403  10.918  0.1399  0.3840  0.3275
26129SOL    HW285249   1.030   6.302  11.025  0.2683 -0.1244 -0.1069
26130SOL     OW85250  12.450   9.308   9.311 -0.1284  0.2371  0.2489
26130SOL    HW185251  12.501   9.253   9.371  0.8948  0.2393 -0.5828
26130SOL    HW285252  12.491   9.394   9.316  1.1087 -0.1571 -1.6793
26131SOL     OW85253   8.913   9.336   6.557 -0.4019 -0.4863 -0.0543
26131SOL    HW185254   8.986   9.295   6.510  0.8967 -0.4391  1.8209
26131SOL    HW285255   8.892   9.414   6.505 -0.4400 -1.5203 -1.6538
26132SOL     OW85256   4.100   2.309   1.081  0.2968  0.0601  0.3169
26132SOL    HW185257   4.166   2.336   1.017  0.7654  0.3008  0.8982
26132SOL    HW285258   4.018   2.343   1.046  0.7773  1.7479  0.7090
26133SOL     OW85259   2.601   7.804   6.797 -0.1997 -0.2104 -0.2061
26133SOL    HW185260   2.687   7.831   6.763  0.4329 -2.4626 -0.5865
26133SOL    HW285261   2.542   7.876   6.774  1.4723  1.1701 -0.3902
26134SOL     OW85262   1.180   3.928   4.297  0.5787 -0.1204 -0.1922
26134SOL    HW185263   1.201   3.891   4.383 -1.3191 -0.7594  0.0251
26134SOL    HW285264   1.230   4.010   4.295  2.8787 -1.3971  0.3255
26135SOL     OW85265   5.432   5.943   1.716  0.3001  0.4574 -0.0526
26135SOL    HW185266   5.397   5.866   1.672  1.7138  0.4705 -1.3162
26135SOL    HW285267   5.490   5.909   1.784  0.5928  0.3895 -0.3312
26136SOL     OW85268   6.765   5.160   9.958  0.0529  0.3163  0.2098
26136SOL    HW185269   6.775   5.198   9.871 -0.5645  0.2894  0.1241
26136SOL    HW285270   6.850   5.120   9.977  0.1442  0.2037 -0.4349
26137SOL     OW85271   5.335   8.830   3.759  0.0291 -0.5196 -0.6918
26137SOL    HW185272   5.254   8.858   3.717 -0.5130 -2.0123 -0.6859
26137SOL    HW285273   5.308   8.806   3.848  0.6392 -0.1886 -0.4137
26138SOL     OW85274   0.992  10.622   1.449  0.5697  0.2174 -0.7532
26138SOL    HW185275   0.936  10.632   1.373 -1.9444  0.9356  1.0664
26138SOL    HW285276   0.990  10.707   1.492  0.8552 -0.5157  0.7929
26139SOL     OW85277  10.746   0.799  10.915  0.6350  0.6630  0.0452
26139SOL    HW185278  10.713   0.878  10.957  2.1582  1.2587  0.2027
26139SOL    HW285279  10.794   0.831  10.838 -0.1478 -0.2455 -0.8481
26140SOL     OW85280   4.025  10.757   9.030 -0.2831 -0.0720 -0.0992
26140SOL    HW185281   4.024  10.662   9.024 -2.2495  0.0127 -2.4332
26140SOL    HW285282   4.117  10.781   9.026  0.1720 -1.8341 -0.8526
26141SOL     OW85283   4.229  12.026   7.196  0.0406 -0.3597  0.2670
26141SOL    HW185284   4.227  11.992   7.285 -0.1738 -0.6914  0.1385
26141SOL    HW285285   4.320  12.021   7.170  0.1822  0.1921  0.6368
26142SOL     OW85286   6.320  12.009   7.792  0.1823  0.2503  0.1081
26142SOL    HW185287   6.304  11.917   7.815  0.1671  0.1328 -0.3473
26142SOL    HW285288   6.240  12.036   7.746  1.0897 -0.2261 -1.8559
26143SOL     OW85289   2.501   6.108   5.979  0.3527  0.1127 -0.3607
26143SOL    HW185290   2.584   6.113   5.932  0.7307 -2.0265 -0.0159
26143SOL    HW285291   2.516   6.046   6.049 -0.2747  3.0100  2.5944
26144SOL     OW85292   2.115   9.216  11.480 -0.0936  0.1842 -0.1681
26144SOL    HW185293   2.045   9.252  11.425  1.3285 -0.8433 -2.8852
26144SOL    HW285294   2.189   9.276  11.465  0.7159 -0.8682 -0.5010
26145SOL     OW85295   8.006   6.787   9.043  0.8620 -0.1909  0.2262
26145SOL    HW185296   7.933   6.727   9.034  0.1627  0.4828  1.2384
26145SOL    HW285297   7.994   6.850   8.972  1.3904 -0.9987 -0.6068
26146SOL     OW85298   8.069   1.592   7.867  0.2275 -0.7082  0.3169
26146SOL    HW185299   8.078   1.560   7.957  1.2676 -1.7153 -0.1225
26146SOL    HW285300   8.148   1.562   7.823 -0.4248 -0.5222 -1.0327
26147SOL     OW85301   2.079   1.618   2.758 -0.3929  0.4725 -0.1820
26147SOL    HW185302   2.050   1.705   2.787 -1.7116 -0.2671  0.7984
26147SOL    HW285303   2.010   1.587   2.701 -0.2669 -0.2138  0.0258
26148SOL     OW85304  11.240   7.048  11.401  0.2611 -0.4717 -0.0940
26148SOL    HW185305  11.164   7.092  11.438  1.2268  0.8309  0.4341
26148SOL    HW285306  11.262   7.097  11.323 -0.2849 -1.7308 -1.0761
26149SOL     OW85307   7.951   2.270   3.415  0.5273 -0.1213  0.0590
26149SOL    HW185308   7.933   2.262   3.509  0.0382  0.8487  0.0681
26149SOL    HW285309   7.919   2.189   3.377  0.0847 -0.2300  0.6487
26150SOL     OW85310   5.285   6.147   9.962  0.3188 -0.0142  0.0978
26150SOL    HW185311   5.263   6.092   9.887 -0.8165 -1.0595  1.1655
26150SOL    HW285312   5.337   6.091  10.019  0.4679  0.5158  0.4945
26151SOL     OW85313   5.975   9.775  10.734 -0.2385  0.3933 -0.3881
26151SOL    HW185314   6.051   9.764  10.676 -0.6384 -1.6417 -0.5707
26151SOL    HW285315   6.012   9.813  10.814  1.0121 -0.6414 -0.4411
26152SOL     OW85316  10.804  11.096   7.033  0.0405 -0.3967 -0.2365
26152SOL    HW185317  10.895  11.070   7.019  0.0169 -0.2239 -0.7587
26152SOL    HW285318  10.763  11.020   7.074  0.3737 -0.5477 -0.1797
26153SOL     OW85319   2.066   6.062   5.430  0.2500  0.0310 -0.2479
26153SOL    HW185320   1.996   6.078   5.368 -0.7954 -0.2610  0.8270
26153SOL    HW285321   2.145   6.096   5.387 -0.3479 -0.6119 -1.9135
26154SOL     OW85322   3.822  11.475  10.241  0.0151  0.2962 -0.3457
26154SOL    HW185323   3.745  11.440  10.196  1.0895 -1.5724 -0.8707
26154SOL    HW285324   3.848  11.551  10.188 -1.1341  0.6198 -0.4673
26155SOL     OW85325   6.403   7.107   5.938 -0.4677  0.1170 -0.5286
26155SOL    HW185326   6.370   7.187   5.898  1.2788  1.4730  0.5878
26155SOL    HW285327   6.338   7.084   6.004 -0.6668  1.0005 -0.4149
26156SOL     OW85328   9.407   9.362   5.228  0.6161 -0.2960  0.1372
26156SOL    HW185329   9.391   9.442   5.278  1.7006 -0.6263  1.0636
26156SOL    HW285330   9.400   9.389   5.136 -0.3944  0.5472  0.4462
26157SOL     OW85331   0.669   2.602   2.862 -0.0931 -1.1219  0.1384
26157SOL    HW185332   0.725   2.525   2.855  0.8147 -0.4110 -1.0128
26157SOL    HW285333   0.713   2.668   2.806 -2.3171 -0.6713 -1.2019
26158SOL     OW85334  10.354   8.516   0.265 -0.5660 -0.0295  0.1879
26158SOL    HW185335  10.309   8.445   0.219  1.9902 -1.1722 -0.7022
26158SOL    HW285336  10.443   8.516   0.230 -0.5552  4.0494 -0.3070
26159SOL     OW85337   8.951   6.016   0.431 -0.8317 -0.3891 -0.4039
26159SOL    HW185338   8.883   6.042   0.493  0.6288  1.8044  0.3788
26159SOL    HW285339   9.021   5.980   0.486 -1.6404 -3.6094 -1.2687
26160SOL     OW85340   8.180   1.226   1.992 -0.0443  0.3095  0.2843
26160SOL    HW185341   8.272   1.199   1.983 -0.1435  0.3569 -1.1397
26160SOL    HW285342   8.140   1.156   2.043  0.3368 -0.8058 -0.8848
26161SOL     OW85343  10.556  10.512   9.696  0.2669 -0.4136 -0.3982
26161SOL    HW185344  10.523  10.431   9.734  1.5277 -1.2809 -1.0826
26161SOL    HW285345  10.623  10.542   9.757  0.3642 -0.3143 -0.5514
26162SOL     OW85346   2.361   0.698   3.612  0.5656  0.1620  0.5616
26162SOL    HW185347   2.432   0.637   3.595  0.7805  0.4917  0.2706
26162SOL    HW285348   2.400   0.785   3.599 -0.8415  0.3521 -3.6415
26163SOL     OW85349   2.470   8.362  10.329 -0.2773  0.1569  0.0010
26163SOL    HW185350   2.440   8.272  10.340 -0.0131  0.1919  1.0745
26163SOL    HW285351   2.505   8.365  10.240  0.3796 -0.9890  0.2134
26164SOL     OW85352   0.707   3.981  11.440 -0.2164 -0.1943  0.4814
26164SOL    HW185353   0.722   4.022  11.355 -2.2123  0.4286  0.3893
26164SOL    HW285354   0.734   3.890  11.428  1.0518  0.2537 -0.3026
26165SOL     OW85355  10.626   8.191   2.247 -0.3514  0.3657  0.8657
26165SOL    HW185356  10.600   8.140   2.170 -1.0158 -1.7715  2.4023
26165SOL    HW285357  10.671   8.127   2.303  1.2951  2.1658  1.7141
26166SOL     OW85358  11.830  12.026   8.057  0.3092 -0.1494 -0.3440
26166SOL    HW185359  11.826  12.083   8.135  0.4976 -2.9285  1.8584
26166SOL    HW285360  11.809  12.084   7.984  1.9734  3.0704  1.5039
26167SOL     OW85361   0.691   0.654   2.569 -0.1670 -0.7704  0.3007
26167SOL    HW185362   0.686   0.567   2.530 -1.6497 -0.3450 -0.5312
26167SOL    HW285363   0.623   0.704   2.524 -0.1404  0.4799  1.5952
26168SOL     OW85364   2.945   7.386   5.952  0.2660  0.1054 -0.3543
26168SOL    HW185365   2.998   7.308   5.967  0.0196  0.1634  0.9355
26168SOL    HW285366   2.927   7.420   6.040 -0.1084  1.2938 -0.8662
26169SOL     OW85367   5.250   3.661   3.119  0.3681 -0.7407 -0.3405
26169SOL    HW185368   5.194   3.623   3.051 -0.4549 -0.3329  0.0965
26169SOL    HW285369   5.291   3.736   3.077  0.1901 -0.7407 -0.5171
26170SOL     OW85370   3.065   2.891  10.251 -0.0588 -0.1334 -0.1560
26170SOL    HW185371   3.097   2.881  10.341 -1.0742 -0.0007  0.2389
26170SOL    HW285372   3.140   2.871  10.196  1.4970  2.6664  0.7134
26171SOL     OW85373   2.031  11.595  10.427  0.1632 -0.0412  0.2265
26171SOL    HW185374   2.042  11.536  10.353 -0.8489  0.2076 -0.1426
26171SOL    HW285375   2.100  11.570  10.488  0.1248 -1.2046 -0.1808
26172SOL     OW85376   3.744   4.161   9.658 -0.0950  0.8712  0.1047
26172SOL    HW185377   3.754   4.132   9.749  1.1828  1.0904  0.0505
26172SOL    HW285378   3.805   4.107   9.609  0.1465  1.6313 -0.4359
26173SOL     OW85379   1.746   8.080   3.103  0.1371  0.1110  0.0603
26173SOL    HW185380   1.778   8.098   3.014  1.7911 -2.0447  0.1301
26173SOL    HW285381   1.685   8.151   3.121  0.6817  1.3032 -2.3230
26174SOL     OW85382   1.622   3.347   9.480 -0.7740 -0.5327 -0.1914
26174SOL    HW185383   1.649   3.410   9.414  1.8856  1.8892  2.8859
26174SOL    HW285384   1.648   3.262   9.443  1.5459  0.7788 -1.8907
26175SOL     OW85385   8.150   9.425  10.487  0.2262  0.5924 -0.1023
26175SOL    HW185386   8.147   9.447  10.394  0.1958 -0.5836 -0.3898
26175SOL    HW285387   8.173   9.332  10.489 -2.8652 -0.2717  0.9429
26176SOL     OW85388  10.694   8.387  11.637 -0.2947 -0.5141  0.4354
26176SOL    HW185389  10.765   8.323  11.631 -0.6158 -0.9356  1.0013
26176SOL    HW285390  10.736   8.472  11.625  0.0875 -0.8506 -0.7213
26177SOL     OW85391   5.959  11.915   5.960 -0.2922  0.1533  0.3255
26177SOL    HW185392   5.946  11.891   6.052 -0.1959  0.6273  0.4613
26177SOL    HW285393   6.052  11.899   5.944 -0.5127 -0.9256  0.0170
26178SOL     OW85394  12.040   1.128  10.206 -0.0322  0.2961 -0.0314
26178SOL    HW185395  12.063   1.195  10.270  0.1099  1.8753 -1.6439
26178SOL    HW285396  11.965   1.165  10.158  0.0698 -0.6753 -0.9819
26179SOL     OW85397   3.158   2.316   8.399 -0.5185 -0.1255  0.2011
26179SOL    HW185398   3.160   2.233   8.351  1.8232  0.6503 -1.2198
26179SOL    HW285399   3.105   2.374   8.344 -0.8155 -0.2176  0.3860
26180SOL     OW85400   6.149   8.406   4.208 -0.7565  0.3184 -0.8461
26180SOL    HW185401   6.140   8.327   4.261  1.8219  0.9073  0.6455
26180SOL    HW285402   6.077   8.401   4.145 -0.5873 -3.2906 -0.9471
26181SOL     OW85403   4.193   1.348  12.477  0.4681 -0.0854  0.1784
26181SOL    HW185404   4.259   1.329  12.411  1.5391 -1.0004  1.4393
26181SOL    HW285405   4.115   1.374  12.428  0.4190 -3.1137 -1.5932
26182SOL     OW85406   9.686   7.497   8.437 -0.2973 -0.2648 -0.4240
26182SOL    HW185407   9.728   7.504   8.352 -0.1674 -0.6912 -0.3940
26182SOL    HW285408   9.714   7.576   8.484  0.6708 -0.6579 -0.3150
26183SOL     OW85409  11.114   4.377   5.607 -0.0682 -0.0035  0.3582
26183SOL    HW185410  11.173   4.450   5.590  0.6355 -0.7998 -0.7098
26183SOL    HW285411  11.027   4.412   5.587  0.4628 -0.1180 -2.6007
26184SOL     OW85412   9.355  11.973   7.056 -0.3152  0.0760  0.5941
26184SOL    HW185413   9.282  11.941   7.109 -0.8756  0.0761 -0.1562
26184SOL    HW285414   9.387  12.050   7.103 -2.7888  1.9560 -0.5865
26185SOL     OW85415   5.344  10.312  10.941 -0.3139  0.1722  0.3708
26185SOL    HW185416   5.312  10.254  11.010 -2.2908  0.7022 -0.0419
26185SOL    HW285417   5.369  10.393  10.987  0.1362 -0.1265  0.6603
26186SOL     OW85418   6.741   0.376   3.833  0.4160  0.0866  0.2196
26186SOL    HW185419   6.786   0.311   3.888  2.2073  0.2151 -0.9916
26186SOL    HW285420   6.811   0.432   3.800 -0.6216  0.3471 -1.7457
26187SOL     OW85421   0.963   1.481   0.258 -0.1002 -0.4103  0.2723
26187SOL    HW185422   1.032   1.545   0.236 -0.5096  0.6804  1.9496
26187SOL    HW285423   0.934   1.507   0.345 -1.3596 -2.0013  0.3660
26188SOL     OW85424   3.322   3.410  10.131 -0.6043 -0.3126  0.1314
26188SOL    HW185425   3.397   3.466  10.110 -0.0352 -1.5894 -1.4088
26188SOL    HW285426   3.307   3.424  10.225  0.8405  0.8060  0.2270
26189SOL     OW85427   4.741   4.925   0.377 -0.0243  0.1112  0.3805
26189SOL    HW185428   4.731   4.919   0.472  0.7651 -1.6093  0.3891
26189SOL    HW285429   4.826   4.968   0.364  0.0534 -0.0214  0.4545
26190SOL     OW85430   1.368  11.435   0.936  0.1677 -0.2474 -0.2829
26190SOL    HW185431   1.407  11.348   0.935 -0.2834 -0.4523 -1.2763
26190SOL    HW285432   1.293  11.427   0.995  2.4512  0.5746  2.9942
26191SOL     OW85433   8.671   8.865  12.362  0.6016  0.6344 -0.3804
26191SOL    HW185434   8.695   8.882  12.453 -0.2620  0.4804 -0.1145
26191SOL    HW285435   8.626   8.781  12.364  0.0937  0.8914 -0.8659
26192SOL     OW85436   5.776   3.193   8.876 -0.2137  0.4838  0.3445
26192SOL    HW185437   5.851   3.234   8.919 -0.4935  1.8010 -0.3519
26192SOL    HW285438   5.793   3.099   8.881  0.5665  0.6753  1.8204
26193SOL     OW85439  11.206   9.613   3.494  0.4845  0.0215  0.3232
26193SOL    HW185440  11.186   9.520   3.482 -1.5322  0.2480  1.4595
26193SOL    HW285441  11.142   9.659   3.440  0.0907  0.7641  1.3937
26194SOL     OW85442   7.167  10.700   3.701  0.1885 -0.1571  0.3701
26194SOL    HW185443   7.159  10.795   3.702  0.5746  0.0070 -2.9559
26194SOL    HW285444   7.125  10.673   3.619  0.7587 -2.7971  0.8581
26195SOL     OW85445   5.411   7.292   2.735 -0.1194  0.2215  0.6802
26195SOL    HW185446   5.371   7.294   2.648 -1.9117  2.5988  1.4604
26195SOL    HW285447   5.390   7.204   2.769  0.3275 -0.6200 -1.1015
26196SOL     OW85448   7.159   6.879   9.273  0.7194  0.0366 -0.0713
26196SOL    HW185449   7.147   6.812   9.206 -0.6855 -0.1681  0.3490
26196SOL    HW285450   7.128   6.960   9.232  1.4352  0.2317 -0.2297
26197SOL     OW85451  11.915   7.896   0.120  0.0799  0.2582 -0.1948
26197SOL    HW185452  11.990   7.928   0.069  0.2453  1.2439  0.6386
26197SOL    HW285453  11.953   7.871   0.204 -0.2895 -0.7863 -0.3228
26198SOL     OW85454   2.608   2.620   6.546  0.2871 -0.0991  0.2357
26198SOL    HW185455   2.606   2.640   6.640 -0.2906 -1.5571  0.5510
26198SOL    HW285456   2.568   2.534   6.538  0.1237  0.0882 -1.3896
26199SOL     OW85457  10.615   3.874  12.367  0.7181  0.3922 -0.2063
26199SOL    HW185458  10.554   3.945  12.389  1.4963  0.7408  0.8778
26199SOL    HW285459  10.662   3.906  12.290  0.5785  0.7612 -0.1417
26200SOL     OW85460   2.317  10.248   6.205 -0.2587  0.5115 -0.2636
26200SOL    HW185461   2.223  10.269   6.202 -0.4473 -0.4300 -1.8061
26200SOL    HW285462   2.323  10.160   6.169  1.2240  0.4838 -0.0133
26201SOL     OW85463   8.629   7.408  10.976  0.1098 -0.3729 -0.1739
26201SOL    HW185464   8.661   7.395  10.886 -1.2388  0.0095 -0.7312
26201SOL    HW285465   8.678   7.483  11.008 -2.0172  1.9388 -1.9781
26202SOL     OW85466   7.850  11.263   2.613  0.2083  0.0895 -0.0877
26202SOL    HW185467   7.905  11.320   2.559 -0.9598  0.3922 -0.9821
26202SOL    HW285468   7.865  11.293   2.703 -0.6862  2.0884 -0.5585
26203SOL     OW85469   1.705   1.077   0.009  1.1517 -0.6604  0.3156
26203SOL    HW185470   1.689   1.111   0.097 -0.7891  0.0145 -0.2379
26203SOL    HW285471   1.781   1.125  -0.022  0.4267  0.8596  0.7780
26204SOL     OW85472   6.304   9.533   5.595  0.0838 -0.0312  0.4133
26204SOL    HW185473   6.264   9.504   5.677  0.8995 -0.1174  0.7972
26204SOL    HW285474   6.341   9.619   5.615  0.7928 -0.3035  0.3174
26205SOL     OW85475   0.223   5.484  11.621 -0.0169  0.0689  0.6150
26205SOL    HW185476   0.213   5.570  11.662  2.1116  1.4116 -1.4141
26205SOL    HW285477   0.193   5.496  11.531  2.4909 -0.5430 -0.4067
26206SOL     OW85478   8.239   6.210   0.413  0.1894 -0.5724 -0.3586
26206SOL    HW185479   8.202   6.135   0.459  0.5130  0.2189  1.2490
26206SOL    HW285480   8.170   6.276   0.415  0.3870 -0.3550 -0.5763
26207SOL     OW85481   1.953  12.148  12.025 -0.1359 -0.0221 -0.0737
26207SOL    HW185482   1.878  12.208  12.028  0.2041  0.4440 -0.6282
26207SOL    HW285483   2.000  12.173  11.945 -0.9021 -2.1534 -1.2807
26208SOL     OW85484   1.404  11.947   1.406 -0.2874  0.3089  0.5439
26208SOL    HW185485   1.368  11.998   1.333 -0.1780 -0.6618 -0.2196
26208SOL    HW285486   1.343  11.961   1.478 -0.3376  1.3768  0.3136
26209SOL     OW85487  10.722   8.615   8.052 -0.2580 -0.0435  0.0701
26209SOL    HW185488  10.781   8.691   8.053 -2.1167  1.4569  0.7283
26209SOL    HW285489  10.735   8.577   7.965 -0.5186  2.0875 -0.9820
26210SOL     OW85490   8.729   9.889   2.701  0.1030  0.1712 -0.1642
26210SOL    HW185491   8.679   9.908   2.622  0.1798 -0.4808 -0.3738
26210SOL    HW285492   8.664   9.886   2.771 -0.0492  0.0533 -0.3134
26211SOL     OW85493  11.473   1.300   6.126 -0.1984 -0.5284 -0.5034
26211SOL    HW185494  11.431   1.301   6.213 -0.0364  3.4209 -0.2903
26211SOL    HW285495  11.563   1.328   6.143  0.4146 -1.6561 -1.7741
26212SOL     OW85496   3.657   4.163   6.817 -0.2766 -0.4695  0.1747
26212SOL    HW185497   3.684   4.156   6.725 -0.8744 -2.0001  0.0838
26212SOL    HW285498   3.619   4.250   6.825  1.6128  0.4708 -0.5183
26213SOL     OW85499  10.689  10.364  10.596 -0.2095 -0.7840  0.8183
26213SOL    HW185500  10.741  10.287  10.572  1.5811  0.4567  0.4867
26213SOL    HW285501  10.644  10.389  10.515 -1.3351 -1.8343  1.0928
26214SOL     OW85502   1.360   7.425   1.323 -0.2886 -0.1019  0.5812
26214SOL    HW185503   1.308   7.475   1.260  0.9123 -0.3585 -0.6421
26214SOL    HW285504   1.397   7.491   1.382 -0.7888  0.2022  0.5640
26215SOL     OW85505   2.000   5.738   4.272 -0.1529  0.6583 -0.1344
26215SOL    HW185506   1.908   5.715   4.256 -1.0151  1.6100  2.8044
26215SOL    HW285507   1.996   5.820   4.321  2.3189  1.0079 -0.3915
26216SOL     OW85508  11.101  10.111   4.498 -0.1258  0.7839  0.4943
26216SOL    HW185509  11.104  10.114   4.593  1.6995  1.1768  0.4630
26216SOL    HW285510  11.171  10.170   4.470  0.9360 -1.0788 -1.0369
26217SOL     OW85511   5.757  12.213  10.894 -0.9228  0.1136 -0.0469
26217SOL    HW185512   5.669  12.182  10.873 -0.9106  0.0839 -0.0544
26217SOL    HW285513   5.743  12.290  10.948 -0.9610 -0.6328  1.0490
26218SOL     OW85514   5.709   8.955   6.491 -0.2676 -0.1450  0.6616
26218SOL    HW185515   5.768   9.025   6.519 -0.2585  0.3862 -0.6301
26218SOL    HW285516   5.638   9.001   6.446  0.4734 -1.0232 -1.5055
26219SOL     OW85517  11.244  11.234   1.065  0.1192  0.2534 -0.2250
26219SOL    HW185518  11.205  11.179   1.133  1.1301  0.8829  0.9062
26219SOL    HW285519  11.227  11.324   1.094  0.7968  0.5320 -0.6559
26220SOL     OW85520   8.408   7.551   8.390  0.3014  0.1961 -0.4918
26220SOL    HW185521   8.467   7.588   8.455  1.6594 -0.5136 -1.2680
26220SOL    HW285522   8.383   7.466   8.427 -0.3211  0.5322 -0.1253
26221SOL     OW85523   9.647   9.290   9.263  0.3611  0.2422  0.3366
26221SOL    HW185524   9.720   9.302   9.202 -0.2759  0.6278 -0.3701
26221SOL    HW285525   9.580   9.350   9.231 -0.8206 -1.1630  0.1071
26222SOL     OW85526  11.369   6.407   3.555 -0.3287  0.7307 -0.0593
26222SOL    HW185527  11.316   6.329   3.541  1.4824 -0.5704 -0.0454
26222SOL    HW285528  11.395   6.436   3.468  0.2676  0.3854 -0.0011
26223SOL     OW85529   5.153   3.338   6.323 -0.1799  0.4812 -0.7350
26223SOL    HW185530   5.134   3.335   6.229 -0.0121  0.7879 -0.7785
26223SOL    HW285531   5.195   3.423   6.336  0.7395  0.0048 -0.5555
26224SOL     OW85532   7.053   7.070  10.267 -0.1479  0.3688 -0.6824
26224SOL    HW185533   7.084   7.045  10.354 -0.2931  0.4259 -0.6129
26224SOL    HW285534   7.091   7.005  10.208 -1.3253 -0.6146 -0.3893
26225SOL     OW85535   8.743   6.747   0.482 -0.1164  0.1447  0.4465
26225SOL    HW185536   8.650   6.770   0.484  0.1811  1.6677 -0.9875
26225SOL    HW285537   8.746   6.657   0.515 -1.8972  0.5801  2.0204
26226SOL     OW85538   9.790   2.877   2.335  0.5078 -0.1559  0.3600
26226SOL    HW185539   9.871   2.847   2.296 -0.8448  0.4799 -3.2833
26226SOL    HW285540   9.723   2.857   2.270 -1.6027  3.4590  1.1806
26227SOL     OW85541   8.850  11.163   6.611  0.4753  0.6018  0.6689
26227SOL    HW185542   8.908  11.152   6.536  0.9271 -1.2173  1.2393
26227SOL    HW285543   8.762  11.152   6.575  0.6822 -0.1111  0.3638
26228SOL     OW85544   2.865   4.457   8.153  0.0549 -0.0695  0.5487
26228SOL    HW185545   2.862   4.395   8.226  2.1123 -0.6359  0.2184
26228SOL    HW285546   2.866   4.543   8.194 -1.3863 -0.2778  1.0667
26229SOL     OW85547   6.312  11.704   7.783 -0.4154  0.2308  0.6254
26229SOL    HW185548   6.319  11.618   7.824  1.0110  0.5705  1.1716
26229SOL    HW285549   6.316  11.686   7.689  0.5762 -0.2730  0.7439
26230SOL     OW85550   1.969   7.762   2.731  0.0481 -0.1296 -0.3424
26230SOL    HW185551   2.030   7.811   2.677 -0.8502  1.1509 -0.2424
26230SOL    HW285552   1.945   7.686   2.678 -0.8310  1.1006 -1.7996
26231SOL     OW85553   6.042   2.653   3.053  0.1070  1.0295  0.5197
26231SOL    HW185554   6.061   2.714   3.125 -0.3474  1.8914 -0.0737
26231SOL    HW285555   6.039   2.708   2.975 -3.4203  0.8269  0.3568
26232SOL     OW85556   9.408   5.740   0.867 -0.2727  0.9800 -0.0440
26232SOL    HW185557   9.425   5.833   0.878  2.4360  0.7096 -1.2583
26232SOL    HW285558   9.356   5.735   0.786  1.1535  1.3812 -1.0297
26233SOL     OW85559   9.897   0.579   3.963  0.3300 -0.0794 -0.4939
26233SOL    HW185560   9.910   0.511   3.897 -0.2431  0.0609 -0.7647
26233SOL    HW285561   9.959   0.647   3.940 -0.4623  0.3507 -1.4328
26234SOL     OW85562   2.444   0.942   1.245  0.0439 -0.8884 -0.2263
26234SOL    HW185563   2.399   1.007   1.191 -1.8957 -0.9492  1.2229
26234SOL    HW285564   2.463   0.988   1.327  0.9694 -1.4352 -0.1162
26235SOL     OW85565   1.601  11.717   2.830 -0.4341  0.2663  0.0796
26235SOL    HW185566   1.571  11.793   2.880 -0.0622  0.6956 -0.3426
26235SOL    HW285567   1.571  11.641   2.881 -0.9254  0.6933  0.4340
26236SOL     OW85568   7.562   6.184   5.819  0.2790  0.2116  0.2815
26236SOL    HW185569   7.542   6.116   5.754 -0.4523  1.1482 -0.5096
26236SOL    HW285570   7.536   6.266   5.776 -1.2372  0.7873  2.1323
26237SOL     OW85571  10.341   8.183   8.886  0.4177 -0.2566 -0.6435
26237SOL    HW185572  10.411   8.175   8.951 -1.1643  0.7200  1.2638
26237SOL    HW285573  10.366   8.259   8.833  0.0157  1.1372  1.1021
26238SOL     OW85574   8.628   3.446  10.473  0.6136  0.4852 -0.0885
26238SOL    HW185575   8.623   3.433  10.568 -0.9254 -0.8939 -0.3093
26238SOL    HW285576   8.554   3.503  10.453  1.3123  1.2988 -0.4065
26239SOL     OW85577  12.472   7.183   9.877  0.0076  0.1659  0.7113
26239SOL    HW185578  12.444   7.101   9.919  1.5539 -0.1233  1.2436
26239SOL    HW285579  12.533   7.222   9.939  1.8232  0.0833 -0.9289
26240SOL     OW85580  12.228   2.688  12.280  0.6788  0.8160 -0.3676
26240SOL    HW185581  12.301   2.632  12.253  1.0286  0.6415  0.8535
26240SOL    HW285582  12.164   2.681  12.209  0.5647 -1.4316 -0.1307
26241SOL     OW85583   4.633   2.659  10.134 -0.0748  0.0204 -0.2377
26241SOL    HW185584   4.710   2.606  10.152 -0.1145 -0.2331 -0.7803
26241SOL    HW285585   4.661   2.749  10.152  0.6974  0.0539 -1.4740
26242SOL     OW85586   6.173   5.316  10.254  0.0179  0.1508 -0.5573
26242SOL    HW185587   6.131   5.391  10.295 -0.0991  0.4656 -1.2368
26242SOL    HW285588   6.241   5.290  10.316 -1.5484 -0.7635  0.8611
26243SOL     OW85589   9.011   1.080   5.810  0.0403 -0.1105 -0.2420
26243SOL    HW185590   8.962   1.127   5.743 -1.3654 -2.0106 -0.6192
26243SOL    HW285591   8.964   0.997   5.821  0.2276  0.1327  3.1214
26244SOL     OW85592   9.802   8.017   2.500 -0.0001 -0.6703  0.3267
26244SOL    HW185593   9.823   7.973   2.417  0.7105 -0.0194  0.1521
26244SOL    HW285594   9.733   7.963   2.538 -0.6073 -0.7828 -0.8630
26245SOL     OW85595   9.185  10.977   8.746 -0.5967  0.4655 -0.1281
26245SOL    HW185596   9.242  10.903   8.727  0.2679  0.8226  0.9392
26245SOL    HW285597   9.211  11.044   8.683  0.0203  0.5417  0.1999
26246SOL     OW85598  12.374   6.940   9.975 -0.0875  0.5565 -0.3040
26246SOL    HW185599  12.411   6.908  10.057  0.5311  1.6146 -0.1467
26246SOL    HW285600  12.387   6.869   9.913  0.0852  0.0203  0.3320
26247SOL     OW85601   2.323   9.819  12.101 -0.3037  0.5714 -0.2032
26247SOL    HW185602   2.238   9.864  12.097  0.2900  1.6829 -0.6919
26247SOL    HW285603   2.370   9.863  12.172  0.0906  0.3644 -0.3301
26248SOL     OW85604   4.179   5.020   5.358 -0.3771 -0.0461  0.2015
26248SOL    HW185605   4.175   5.115   5.344  0.1228 -0.2614 -1.5618
26248SOL    HW285606   4.106   4.985   5.307  0.4749 -0.7376 -0.5760
26249SOL     OW85607  10.395   9.511   7.209 -0.1197  0.3082  0.2662
26249SOL    HW185608  10.335   9.563   7.264  0.5563  0.8951  0.4595
26249SOL    HW285609  10.479   9.517   7.254 -0.2940 -2.0668  1.0095
26250SOL     OW85610   9.552   2.095  11.024  0.5200 -0.5393 -0.2769
26250SOL    HW185611   9.513   2.150  10.956  2.8215 -0.0335 -1.2727
26250SOL    HW285612   9.563   2.154  11.098 -0.9720 -0.8131  0.2042
26251SOL     OW85613  12.133   0.231   1.009  0.0673  0.8239 -0.1321
26251SOL    HW185614  12.189   0.303   0.979  0.7133  0.9796  1.3511
26251SOL    HW285615  12.156   0.158   0.952 -0.8181  1.8284 -1.8717
26252SOL     OW85616   1.201   3.346  11.150 -0.1582  0.2748  0.4593
26252SOL    HW185617   1.119   3.388  11.126 -0.4084 -1.5052 -2.2274
26252SOL    HW285618   1.268   3.413  11.132 -0.8721  1.1269  0.9068
26253SOL     OW85619   8.863   5.517   4.208  0.8592 -0.4088  0.3175
26253SOL    HW185620   8.796   5.470   4.258 -3.4981  2.7919 -1.8433
26253SOL    HW285621   8.880   5.462   4.132  0.7576 -1.2859  0.9154
26254SOL     OW85622   3.577   3.383   4.586  0.1033  0.2152 -0.1322
26254SOL    HW185623   3.549   3.423   4.504  1.2651  0.8982 -0.2181
26254SOL    HW285624   3.672   3.377   4.579  0.2676  0.7203  1.3579
26255SOL     OW85625   8.070   3.543   6.286  0.4530 -0.4889  0.4000
26255SOL    HW185626   8.003   3.605   6.314  2.0173  1.4436  0.0834
26255SOL    HW285627   8.125   3.529   6.363  0.9749 -0.2745  0.0805
26256SOL     OW85628   2.251   6.153   2.409 -0.2912 -0.2690 -0.2958
26256SOL    HW185629   2.202   6.086   2.361  0.0358 -1.3586  0.8203
26256SOL    HW285630   2.342   6.139   2.385 -0.2346 -0.1198 -0.1717
26257SOL     OW85631   3.490   6.973  10.395  0.1179 -0.4400 -0.4660
26257SOL    HW185632   3.567   6.916  10.390  0.4545 -0.0573  0.2075
26257SOL    HW285633   3.447   6.947  10.476 -0.6063 -0.8157 -0.9587
26258SOL     OW85634   4.553   6.300   8.298  0.1226 -0.0263 -0.2671
26258SOL    HW185635   4.480   6.239   8.302 -0.7207  1.0027  1.4551
26258SOL    HW285636   4.516   6.381   8.264  0.8057  0.0819 -0.7785
26259SOL     OW85637   5.100  10.673   6.225  0.4730  0.3701 -0.2451
26259SOL    HW185638   5.170  10.719   6.273  0.8217  2.9307 -2.8779
26259SOL    HW285639   5.136  10.586   6.208  1.7780  0.6225  1.0085
26260SOL     OW85640   1.415  10.259   0.240  0.1311  0.1601  0.1330
26260SOL    HW185641   1.328  10.219   0.242  0.8324 -1.5232 -1.1842
26260SOL    HW285642   1.443  10.258   0.331 -1.0133  0.2793  0.5097
26261SOL     OW85643   5.964   7.408   2.253 -0.3348  0.6593  0.0200
26261SOL    HW185644   5.878   7.406   2.211 -0.2850 -0.2328 -0.0652
26261SOL    HW285645   5.945   7.417   2.346 -0.5482 -0.0857  0.0552
26262SOL     OW85646  11.784   7.114   9.608 -0.1323 -0.4456 -0.1218
26262SOL    HW185647  11.828   7.105   9.692  1.9019  0.4415 -1.0138
26262SOL    HW285648  11.754   7.204   9.606  0.4016 -0.2719 -0.5866
26263SOL     OW85649   1.176   9.253   6.929 -0.4135  0.0231 -0.1223
26263SOL    HW185650   1.193   9.245   7.023  0.6854  0.9089 -0.2233
26263SOL    HW285651   1.118   9.329   6.922 -1.8908 -1.0527 -0.0486
26264SOL     OW85652   0.728   3.173  11.963  0.6421 -0.4181 -0.6571
26264SOL    HW185653   0.803   3.227  11.991  0.2719  0.1043 -0.6581
26264SOL    HW285654   0.758   3.083  11.975 -0.2964 -0.3370  3.7644
26265SOL     OW85655   1.412   9.853   6.765  0.1036  0.1007  0.1311
26265SOL    HW185656   1.476   9.810   6.822  1.5185  2.3879  0.3788
26265SOL    HW285657   1.327   9.828   6.803  0.9378 -0.3047  1.8604
26266SOL     OW85658   1.133   4.098   5.585 -0.3711  0.6078  0.7429
26266SOL    HW185659   1.160   4.181   5.626  1.6437  0.5608 -0.3705
26266SOL    HW285660   1.213   4.045   5.583 -1.6496 -1.4470  1.5400
26267SOL     OW85661   0.267   3.336   2.149  0.0374  0.2601 -0.0863
26267SOL    HW185662   0.314   3.304   2.072 -0.2563 -0.1173 -0.1112
26267SOL    HW285663   0.334   3.340   2.217  0.3088  0.6417 -0.3697
26268SOL     OW85664   1.093   2.090  10.619 -0.1218 -0.0461  0.6057
26268SOL    HW185665   1.121   2.080  10.528 -2.9886 -1.1737 -0.2948
26268SOL    HW285666   1.122   2.009  10.661 -2.1746 -1.4062 -0.4162
26269SOL     OW85667  10.358   2.646  11.173 -0.1673 -0.1862 -0.2632
26269SOL    HW185668  10.370   2.580  11.241  0.8737  1.1252  0.8940
26269SOL    HW285669  10.284   2.614  11.120 -1.2036 -1.1186  1.6506
26270SOL     OW85670   3.884   2.542  11.477  0.5381  0.1216 -0.0992
26270SOL    HW185671   3.839   2.606  11.533  1.4384 -0.7726  1.7469
26270SOL    HW285672   3.817   2.477  11.456  0.6055 -0.4876  1.4857
26271SOL     OW85673   1.790   3.705  10.429 -0.1279  0.0119 -0.0730
26271SOL    HW185674   1.747   3.779  10.385 -1.3923 -0.4230  0.4043
26271SOL    HW285675   1.736   3.629  10.407  0.3865 -0.5471  0.5724
26272SOL     OW85676   3.636   0.266  10.163 -0.6464  0.0711 -0.3781
26272SOL    HW185677   3.672   0.311  10.086 -0.1566  1.0351  0.3947
26272SOL    HW285678   3.640   0.173  10.141  1.6675  0.1796 -0.6001
26273SOL     OW85679  12.197   7.947   8.457  0.3289 -0.2196 -0.2235
26273SOL    HW185680  12.176   7.978   8.545  0.7899  1.6761 -0.7471
26273SOL    HW285681  12.173   7.854   8.458 -0.2923 -0.0728  1.6862
26274SOL     OW85682   5.847   8.498   9.401  0.0351  0.4469  0.2367
26274SOL    HW185683   5.760   8.491   9.440 -0.0067 -0.8560 -0.0575
26274SOL    HW285684   5.860   8.592   9.388 -2.0420  0.5939 -1.2824
26275SOL     OW85685   6.214   4.039   4.984 -0.3210  0.0244  0.1319
26275SOL    HW185686   6.260   3.995   4.912  2.0567  1.6462  0.5117
26275SOL    HW285687   6.281   4.049   5.052 -1.9122  0.4873  1.6990
26276SOL     OW85688   9.574   2.585   3.364 -0.1029  0.0767  0.2086
26276SOL    HW185689   9.498   2.561   3.417  0.4017  0.9508  1.3651
26276SOL    HW285690   9.647   2.536   3.402 -0.1060 -0.9820 -1.0715
26277SOL     OW85691   1.131   5.197   4.135  0.1029  0.3606  0.3668
26277SOL    HW185692   1.080   5.248   4.072  2.7591  1.4529 -1.0558
26277SOL    HW285693   1.147   5.114   4.091  0.1331  0.2806  0.5286
26278SOL     OW85694   1.680   8.474   3.348  0.1460  0.2571 -0.4164
26278SOL    HW185695   1.763   8.429   3.336  0.9741  0.6960  2.7959
26278SOL    HW285696   1.688   8.517   3.433 -2.8421  1.5269 -0.6595
26279SOL     OW85697   2.604   8.497   4.069  0.3203  0.0419  0.2149
26279SOL    HW185698   2.594   8.538   4.155  1.8768  0.9053  0.0183
26279SOL    HW285699   2.521   8.450   4.055 -0.1707  0.3175  1.9387
26280SOL     OW85700   5.020   2.735   5.251  0.0874 -0.2297 -0.0558
26280SOL    HW185701   5.044   2.642   5.251  1.0606 -0.0135  1.1201
26280SOL    HW285702   4.950   2.742   5.187 -2.1923 -2.3382  1.9954
26281SOL     OW85703   8.834  12.247  10.769  0.2897 -0.1399  0.4621
26281SOL    HW185704   8.812  12.205  10.686 -1.5735 -0.5085  1.1088
26281SOL    HW285705   8.908  12.196  10.803  1.7042  0.5775 -1.3432
26282SOL     OW85706   5.020   2.870   5.502 -0.1483 -0.1663 -0.2035
26282SOL    HW185707   4.994   2.798   5.445 -2.8088  0.0526  0.6045
26282SOL    HW285708   5.059   2.934   5.442  1.0723 -1.6960 -1.1099
26283SOL     OW85709   0.731   8.018   2.288 -0.3380  0.5070 -0.0177
26283SOL    HW185710   0.686   8.030   2.204 -0.5208  0.1952  0.0340
26283SOL    HW285711   0.814   8.065   2.277 -1.0003  1.7793  0.1760
26284SOL     OW85712  10.756   0.801   4.651 -0.1767  0.1209  0.2691
26284SOL    HW185713  10.699   0.729   4.677  0.9381 -1.0235 -0.3552
26284SOL    HW285714  10.697   0.868   4.617 -1.2994 -0.1185  1.6909
26285SOL     OW85715   7.097   8.179   6.501  0.3794  0.0371 -0.1348
26285SOL    HW185716   7.186   8.149   6.518  0.9246  0.9318 -1.3238
26285SOL    HW285717   7.048   8.154   6.580  1.2874 -1.9431 -0.1576
26286SOL     OW85718   3.278   9.794   5.971 -0.5412  0.5054 -0.3919
26286SOL    HW185719   3.272   9.703   5.941  1.4941  1.0574 -2.7889
26286SOL    HW285720   3.343   9.792   6.041  0.6700  0.2676 -1.4793
26287SOL     OW85721   8.163   1.374   0.547  0.5338  0.5662  0.3294
26287SOL    HW185722   8.154   1.343   0.638 -0.8563  0.9116  0.3395
26287SOL    HW285723   8.146   1.296   0.494 -1.5962  0.9209  0.3734
26288SOL     OW85724   8.164   4.751   7.598  0.0859  0.2500  0.6566
26288SOL    HW185725   8.256   4.736   7.578  0.0971 -0.5453  1.2705
26288SOL    HW285726   8.157   4.741   7.693  0.0286  3.9743  1.2096
26289SOL     OW85727   5.221   3.290   1.712 -0.1808 -0.5736  0.0319
26289SOL    HW185728   5.206   3.279   1.806  0.1583 -0.6956  0.0740
26289SOL    HW285729   5.148   3.244   1.670 -1.1866  0.8135  0.2387
26290SOL     OW85730   3.259   2.476  12.397  0.4731  0.1401 -0.1657
26290SOL    HW185731   3.217   2.507  12.317  1.6558 -1.3444 -1.4291
26290SOL    HW285732   3.349   2.509  12.391  1.4351 -2.3649 -0.9794
26291SOL     OW85733   5.504   7.443   4.426  0.2886 -0.1644 -0.5861
26291SOL    HW185734   5.427   7.470   4.475 -0.7191  0.2154 -2.2986
26291SOL    HW285735   5.553   7.387   4.486 -0.9860  0.1099  0.7486
26292SOL     OW85736   8.955   3.400   6.635  0.0035 -0.2668  0.2580
26292SOL    HW185737   9.049   3.387   6.622 -0.1987  0.1130 -1.9331
26292SOL    HW285738   8.949   3.457   6.712  1.5107 -1.0258  0.9693
26293SOL     OW85739   7.837   7.552   9.884  0.3622 -0.1961 -0.3098
26293SOL    HW185740   7.775   7.623   9.902  0.1997 -0.2766 -0.5420
26293SOL    HW285741   7.851   7.510   9.968  0.5800  0.2118 -0.1421
26294SOL     OW85742   4.520   6.869  11.164  0.0250  0.7422 -0.1127
26294SOL    HW185743   4.536   6.859  11.258 -1.1142 -2.6681 -0.1588
26294SOL    HW285744   4.430   6.900  11.158 -0.9007 -1.7058  0.0023
26295SOL     OW85745   3.859   1.436  10.353 -0.1098 -0.1062  0.3064
26295SOL    HW185746   3.926   1.439  10.421 -0.3129  0.9444  0.4718
26295SOL    HW285747   3.806   1.359  10.376  0.8023 -0.7238  0.3858
26296SOL     OW85748   1.446   0.024   2.655  0.2047  0.0685 -0.1544
26296SOL    HW185749   1.421  -0.051   2.709  1.7642 -0.4525 -0.1175
26296SOL    HW285750   1.413   0.003   2.568 -1.1925  0.3224  0.2863
26297SOL     OW85751   8.060   3.910   1.424 -0.4861  0.1131  0.3623
26297SOL    HW185752   8.125   3.851   1.386  1.0969 -0.1919  3.2669
26297SOL    HW285753   7.976   3.871   1.402  0.4485 -1.8331  0.0510
26298SOL     OW85754   8.410   9.771   7.627 -0.3022  0.3841 -0.1460
26298SOL    HW185755   8.372   9.859   7.629  0.5605  0.7535  0.9954
26298SOL    HW285756   8.504   9.786   7.629 -0.1172 -0.5599 -1.1618
26299SOL     OW85757   6.752   7.464   2.107  0.2704 -1.3844  0.2549
26299SOL    HW185758   6.774   7.435   2.019 -0.0396 -1.6816  0.2734
26299SOL    HW285759   6.682   7.529   2.094 -0.5975 -2.2709  0.3405
26300SOL     OW85760   9.810  10.709  10.144 -0.2087 -0.0793 -0.0582
26300SOL    HW185761   9.766  10.791  10.168  0.6993  0.4005  0.0639
26300SOL    HW285762   9.902  10.735  10.133 -0.0408 -0.9439 -0.7802
26301SOL     OW85763  10.844   2.326   5.619 -0.7863  0.0744 -0.3755
26301SOL    HW185764  10.871   2.236   5.599  1.1881  0.5956 -0.2428
26301SOL    HW285765  10.845   2.331   5.714  1.2796  0.7998 -0.3906
26302SOL     OW85766   5.576   3.678   8.457 -0.1017 -0.3493  0.5161
26302SOL    HW185767   5.659   3.723   8.472 -0.0380 -0.4867  0.5801
26302SOL    HW285768   5.511   3.748   8.449  0.3202 -0.1283 -1.5823
26303SOL     OW85769   7.118   3.148   5.335  0.1730  0.3997 -0.1957
26303SOL    HW185770   7.085   3.235   5.356  2.7502  1.3598  0.3633
26303SOL    HW285771   7.167   3.161   5.253  0.7982 -0.4424  0.0335
26304SOL     OW85772  11.779   3.276   8.996 -0.0377 -0.0906  0.6450
26304SOL    HW185773  11.865   3.259   8.956 -0.2869 -1.2968  0.5765
26304SOL    HW285774  11.723   3.298   8.922 -0.0989 -0.6386  0.5250
26305SOL     OW85775   3.397   2.702   0.980  0.6312 -0.5993  0.1435
26305SOL    HW185776   3.445   2.694   0.897 -0.6510 -0.5093 -0.6382
26305SOL    HW285777   3.460   2.741   1.040  1.3076  0.2601 -1.0607
26306SOL     OW85778  12.459  11.324   3.009 -0.4335 -0.0521 -0.8248
26306SOL    HW185779  12.546  11.322   3.050 -0.2975  0.1010 -1.1063
26306SOL    HW285780  12.433  11.416   3.012 -0.5529 -0.0861 -0.8111
26307SOL     OW85781   8.236  10.169   7.086 -0.0478  1.1542 -0.6366
26307SOL    HW185782   8.271  10.083   7.107  0.1278  1.2531 -0.5251
26307SOL    HW285783   8.141  10.158   7.089 -0.0562  0.6214 -1.9640
26308SOL     OW85784   6.275  11.928   3.765 -0.9613 -0.6600 -0.4259
26308SOL    HW185785   6.362  11.903   3.736 -2.1863 -1.9514 -3.4175
26308SOL    HW285786   6.268  11.893   3.854  1.6372 -0.1749  0.0471
26309SOL     OW85787   5.538   9.051  11.758 -0.1361 -0.2225 -0.3783
26309SOL    HW185788   5.604   9.118  11.777  0.1502 -0.3367 -0.9375
26309SOL    HW285789   5.589   8.974  11.734 -0.4649 -0.6439  0.2386
26310SOL     OW85790   8.435   3.314   2.761 -0.7428  0.5118 -0.2404
26310SOL    HW185791   8.519   3.281   2.793 -0.8994  0.6100  0.2758
26310SOL    HW285792   8.452   3.338   2.670 -0.5994 -0.9116 -0.6158
26311SOL     OW85793  12.125   2.118   0.363  0.6799  0.1398  0.3263
26311SOL    HW185794  12.118   2.212   0.381  0.7029 -0.1419  2.0147
26311SOL    HW285795  12.042   2.082   0.393  0.3912 -0.3148 -0.9676
26312SOL     OW85796   1.621   1.334  12.102 -0.1122 -0.3359  0.3018
26312SOL    HW185797   1.655   1.253  12.063  0.0749  0.2660 -0.8184
26312SOL    HW285798   1.567   1.304  12.175 -0.5055 -1.5183 -0.4439
26313SOL     OW85799   8.372   0.091   2.685  0.4077  0.2399 -0.0469
26313SOL    HW185800   8.416   0.076   2.601 -2.8185 -1.0273 -1.6525
26313SOL    HW285801   8.349   0.184   2.683  0.6791  0.3041 -0.3874
26314SOL     OW85802   4.211   2.954  12.476  0.0929  0.0096  0.2175
26314SOL    HW185803   4.221   2.914  12.390  0.2748 -2.7028  1.3943
26314SOL    HW285804   4.148   3.025  12.463  1.7163  1.1184 -2.5045
26315SOL     OW85805   3.221   3.428  12.172 -0.8277 -0.4032  0.3798
26315SOL    HW185806   3.294   3.487  12.188 -1.2989  1.1954 -2.6778
26315SOL    HW285807   3.261   3.341  12.165  0.4321  0.1039  1.1058
26316SOL     OW85808   6.626   2.915   2.165  0.0224 -0.2430  0.0161
26316SOL    HW185809   6.677   2.922   2.084  0.0237  0.8002  0.0960
26316SOL    HW285810   6.690   2.929   2.235 -0.4175  1.5500  0.1065
26317SOL     OW85811   7.959   9.671   4.850  1.0176 -0.7992  0.6494
26317SOL    HW185812   7.956   9.576   4.838 -1.4634 -0.5266 -1.8366
26317SOL    HW285813   7.912   9.706   4.775  1.8909  2.4515  1.4733
26318SOL     OW85814   5.560   7.718   1.859  0.2574  0.3543 -0.1040
26318SOL    HW185815   5.588   7.628   1.871 -0.2243  0.2819  0.4840
26318SOL    HW285816   5.476   7.724   1.904  0.0077  0.9466 -0.6258
26319SOL     OW85817   2.049   8.684   1.793  0.4311  0.4428  0.3612
26319SOL    HW185818   2.008   8.615   1.742  1.3741  1.0943 -1.3614
26319SOL    HW285819   1.978   8.720   1.847 -0.0653 -1.8678  1.3994
26320SOL     OW85820   5.512   4.625   3.391 -0.0762 -0.0018 -0.2999
26320SOL    HW185821   5.425   4.666   3.397  0.0135  0.1119  0.4244
26320SOL    HW285822   5.518   4.573   3.472  0.6381  0.2133 -0.2131
26321SOL     OW85823   6.238   7.445   8.801  0.1233  0.3163 -0.2683
26321SOL    HW185824   6.143   7.444   8.811  0.2187 -1.7749  0.9853
26321SOL    HW285825   6.253   7.500   8.724 -2.2279 -0.7254 -1.5823
26322SOL     OW85826   7.911   8.818   4.824 -0.6040 -0.4586 -0.9190
26322SOL    HW185827   7.949   8.848   4.742  1.1306 -1.9933 -0.7650
26322SOL    HW285828   7.942   8.728   4.833 -1.2427 -0.5331  1.1281
26323SOL     OW85829   5.259   0.224   5.138  0.4714  0.1406  0.3494
26323SOL    HW185830   5.285   0.134   5.161  0.8727  0.5923  1.7398
26323SOL    HW285831   5.336   0.277   5.158  1.3264  0.5175 -3.1800
26324SOL     OW85832   6.081   7.744   5.009  0.3140 -0.3343  0.9717
26324SOL    HW185833   6.050   7.790   5.087 -0.1032  0.6750  0.2357
26324SOL    HW285834   6.171   7.773   4.998  0.2613 -0.2031  0.8823
26325SOL     OW85835  10.065   3.428  10.483 -0.6754  0.2826  0.6688
26325SOL    HW185836  10.033   3.341  10.461 -0.1894  0.2163  0.2124
26325SOL    HW285837  10.111   3.417  10.566  1.9925 -0.5420 -0.7847
26326SOL     OW85838  11.017   0.397   7.727 -0.0396  0.5647  0.2151
26326SOL    HW185839  11.014   0.455   7.652 -1.1355 -0.8218 -0.8733
26326SOL    HW285840  10.938   0.344   7.720 -0.5963  0.9153  2.8021
26327SOL     OW85841   4.903   2.479   3.105 -0.3217 -0.3240 -0.0581
26327SOL    HW185842   4.900   2.564   3.060  0.1088 -0.5108 -0.4477
26327SOL    HW285843   4.830   2.429   3.069 -1.5789  0.4366  1.3278
26328SOL     OW85844   0.547   4.460   3.547 -0.7450 -0.5468 -0.1232
26328SOL    HW185845   0.563   4.546   3.587  1.0956 -0.4410 -0.9595
26328SOL    HW285846   0.629   4.413   3.560 -0.8045 -1.2127 -1.9779
26329SOL     OW85847   5.050   2.686   0.188  0.0349 -0.2971  0.3462
26329SOL    HW185848   4.985   2.688   0.259  0.3145 -3.0230  0.7890
26329SOL    HW285849   4.999   2.661   0.111  0.0633  0.7670 -0.0367
26330SOL     OW85850  11.166   3.273   1.525  0.1938 -0.1846  0.3926
26330SOL    HW185851  11.228   3.315   1.584  0.7506 -0.1325 -0.2123
26330SOL    HW285852  11.220   3.218   1.469 -0.2046  0.4471 -0.6465
26331SOL     OW85853   6.480   0.641  11.588  0.4574  0.3229  0.4814
26331SOL    HW185854   6.435   0.724  11.572  2.6417  1.2397 -1.4822
26331SOL    HW285855   6.565   0.666  11.624  0.0529 -1.2966  2.8097
26332SOL     OW85856   6.531   1.334   0.287  0.1512  0.1613  0.0947
26332SOL    HW185857   6.486   1.333   0.203 -0.5523  1.1248  0.4410
26332SOL    HW285858   6.621   1.358   0.266  0.2150 -0.5707 -0.4808
26333SOL     OW85859   8.803   9.847   0.530  0.4442  0.2597 -0.1876
26333SOL    HW185860   8.819   9.818   0.620  1.7043  2.0675  0.2230
26333SOL    HW285861   8.708   9.841   0.519  0.0135  1.9210  1.9904
26334SOL     OW85862  10.024   9.148   3.133  0.0350 -0.5815  0.3773
26334SOL    HW185863  10.076   9.067   3.137 -0.1654 -0.6766  1.5907
26334SOL    HW285864   9.954   9.128   3.072  0.8424 -0.7972 -0.5075
26335SOL     OW85865  10.662  11.953  10.945  0.0681  0.3670 -0.2830
26335SOL    HW185866  10.732  11.912  10.895 -0.2739  0.5139 -0.8925
26335SOL    HW285867  10.589  11.891  10.940  0.5432 -0.3917  1.4320
26336SOL     OW85868   6.513   1.061  11.185  0.0098 -0.3223  0.2300
26336SOL    HW185869   6.518   1.129  11.252 -0.6432 -0.6275  0.6018
26336SOL    HW285870   6.602   1.053  11.152 -0.2101  2.0514 -1.1957
26337SOL     OW85871   0.769   2.679  12.258  0.3666  0.5104  0.3938
26337SOL    HW185872   0.806   2.602  12.301  3.3634  1.3402 -0.4909
26337SOL    HW285873   0.726   2.644  12.180  0.6472 -0.3753  0.6177
26338SOL     OW85874   3.109   3.313  11.068 -0.7170 -0.0329  0.1143
26338SOL    HW185875   3.115   3.238  11.127 -2.0279  0.3869  0.8257
26338SOL    HW285876   3.027   3.355  11.092 -0.4483  1.1098 -0.8985
26339SOL     OW85877  11.125   0.247  10.505  0.4641 -0.1801 -0.4775
26339SOL    HW185878  11.113   0.173  10.446  1.0690 -0.8946  0.2809
26339SOL    HW285879  11.039   0.263  10.542  0.5214 -1.1835  0.1310
26340SOL     OW85880   8.656   6.055   3.902  0.0082  0.2294 -0.0889
26340SOL    HW185881   8.674   6.108   3.824 -1.7113 -1.3547 -1.6466
26340SOL    HW285882   8.561   6.060   3.913  0.1346 -0.2760  1.4288
26341SOL     OW85883   0.875   5.749   9.606 -0.0412  0.0477 -0.3051
26341SOL    HW185884   0.782   5.728   9.601 -0.0296  0.2639 -1.9364
26341SOL    HW285885   0.920   5.667   9.588  0.0582  0.1798 -0.6796
26342SOL     OW85886   2.065   4.870   9.617  0.1390 -0.0480 -0.4550
26342SOL    HW185887   2.014   4.844   9.693 -0.0624 -2.1143 -1.2271
26342SOL    HW285888   2.110   4.790   9.590  0.0083  0.5508 -2.6538
26343SOL     OW85889  12.053   5.490   3.562 -0.1748 -0.0691 -0.2279
26343SOL    HW185890  12.092   5.468   3.647 -2.0990  2.3433  1.4282
26343SOL    HW285891  12.099   5.569   3.534  0.5424 -0.9228 -1.5815
26344SOL     OW85892   6.626   7.230   1.358 -0.0796  0.2213 -0.9453
26344SOL    HW185893   6.673   7.258   1.280  0.0118  0.2874 -0.8674
26344SOL    HW285894   6.696   7.212   1.422 -0.0807 -1.0461 -1.2750
26345SOL     OW85895   5.541   5.912   8.718  0.1634  0.0673  0.6059
26345SOL    HW185896   5.533   5.991   8.773  2.2027 -0.8344  2.3494
26345SOL    HW285897   5.605   5.936   8.651 -1.1327  0.6516 -0.4776
26346SOL     OW85898  10.089  12.160   2.145 -0.4378  0.2449 -0.1057
26346SOL    HW185899  10.041  12.134   2.223 -2.1049  1.3286 -0.7338
26346SOL    HW285900  10.132  12.079   2.116 -1.5866 -0.6841  0.6890
26347SOL     OW85901   7.376   0.327  10.433 -0.2857 -0.2097 -0.1040
26347SOL    HW185902   7.436   0.305  10.505 -1.4730 -0.7108  0.7566
26347SOL    HW285903   7.312   0.256  10.432  1.1461 -1.6821 -3.3895
26348SOL     OW85904   1.042   8.125   7.349 -0.7718  0.4416  0.1980
26348SOL    HW185905   1.136   8.122   7.367 -0.3823  0.6484 -1.6429
26348SOL    HW285906   1.019   8.034   7.327 -0.5065  0.7530 -1.5097
26349SOL     OW85907   0.074  11.356   4.622 -0.6286  0.1029 -0.1989
26349SOL    HW185908   0.065  11.340   4.528  0.9200 -0.7499 -0.2346
26349SOL    HW285909   0.146  11.419   4.629 -2.0624  1.7490  0.3376
26350SOL     OW85910   3.907   5.220   3.205  0.0933  0.5445 -0.2045
26350SOL    HW185911   3.990   5.173   3.194  1.1941  1.5335  2.7799
26350SOL    HW285912   3.869   5.222   3.117  1.3677 -3.2053 -1.0489
26351SOL     OW85913   2.085  11.182  10.714  0.1447  0.0073  0.0120
26351SOL    HW185914   2.087  11.246  10.785  2.0503  0.0399 -0.0041
26351SOL    HW285915   2.017  11.119  10.740 -1.5090  1.7904  0.1960
26352SOL     OW85916   5.487   7.924  12.371  0.7845  0.4861  0.1635
26352SOL    HW185917   5.510   7.962  12.456 -0.2855  0.7928  0.3351
26352SOL    HW285918   5.403   7.880  12.386  1.8638 -1.7892 -0.0954
26353SOL     OW85919   7.588   5.262   8.807  0.2349  0.3917  0.4050
26353SOL    HW185920   7.616   5.173   8.785 -1.7254 -0.1535 -0.1165
26353SOL    HW285921   7.666   5.304   8.843  1.8665 -0.7607 -1.5988
26354SOL     OW85922   7.375  10.886   6.430  0.5540 -0.0875 -0.8789
26354SOL    HW185923   7.382  10.976   6.462  1.3799  0.2885 -2.0448
26354SOL    HW285924   7.350  10.895   6.338  1.1281 -1.0223 -1.1390
26355SOL     OW85925   9.246   1.045   3.635 -0.2353 -0.2614 -0.4186
26355SOL    HW185926   9.196   1.126   3.646  1.9359  1.1140 -0.0314
26355SOL    HW285927   9.290   1.055   3.551 -0.2825 -1.2459 -0.5705
26356SOL     OW85928   4.090   9.759  11.906  0.0381 -0.1121 -0.2517
26356SOL    HW185929   4.102   9.849  11.936 -1.2784 -0.7956  2.6738
26356SOL    HW285930   4.005   9.759  11.864  0.0766  0.0147 -0.3316
26357SOL     OW85931   4.462   4.224   5.209 -0.2936  0.0818  0.2621
26357SOL    HW185932   4.429   4.146   5.253 -1.5254  0.1417 -0.4927
26357SOL    HW285933   4.384   4.276   5.191  0.1919  0.2833 -1.5336
26358SOL     OW85934   6.296   3.030   8.551 -0.1378 -0.1256 -0.2574
26358SOL    HW185935   6.247   2.972   8.493 -1.2309 -0.2518  0.7525
26358SOL    HW285936   6.237   3.046   8.625  1.3833 -0.3640  1.0651
26359SOL     OW85937   9.829  11.326   2.375 -0.6372  0.1459 -0.1032
26359SOL    HW185938   9.841  11.386   2.449 -2.0364  0.8425 -0.4043
26359SOL    HW285939   9.812  11.241   2.414  0.5602  0.0959  0.3410
26360SOL     OW85940   8.549   6.616   3.550 -0.0266 -0.6465 -0.0660
26360SOL    HW185941   8.496   6.592   3.626 -0.0181  1.8502  0.8412
26360SOL    HW285942   8.637   6.584   3.570 -0.0269 -0.0227  1.0153
26361SOL     OW85943   3.775  10.848   9.149 -0.6312  0.9627 -0.7404
26361SOL    HW185944   3.836  10.843   9.076 -1.4410 -2.9493 -1.3625
26361SOL    HW285945   3.831  10.850   9.227  0.3054  0.0880 -1.3621
26362SOL     OW85946   9.300  10.275   7.677 -0.1560 -0.1944  0.1429
26362SOL    HW185947   9.375  10.299   7.623  0.9713 -0.2723  1.6233
26362SOL    HW285948   9.278  10.355   7.725  0.2446 -0.6578  1.1436
26363SOL     OW85949  10.793  12.015   6.179 -0.0800 -0.6046 -0.1843
26363SOL    HW185950  10.745  12.018   6.263 -1.1620  2.0615 -0.8010
26363SOL    HW285951  10.758  11.937   6.135 -0.5984 -1.2039  1.2042
26364SOL     OW85952  12.220   6.164   7.732 -0.2243  0.9949  0.7155
26364SOL    HW185953  12.267   6.241   7.761  1.1793  0.5066 -0.1647
26364SOL    HW285954  12.248   6.150   7.642  1.2829 -1.7688  1.4902
26365SOL     OW85955  11.752   4.292   8.074 -0.2518 -0.0363 -0.2114
26365SOL    HW185956  11.797   4.268   7.993 -0.3949 -3.8612  0.6163
26365SOL    HW285957  11.676   4.233   8.078 -2.1397  2.2599  1.2064
26366SOL     OW85958  10.419   3.408   5.307 -0.6656  0.5672 -0.2845
26366SOL    HW185959  10.400   3.492   5.266 -2.7894  0.6632  0.7722
26366SOL    HW285960  10.357   3.347   5.267 -1.5912  0.3042  1.4256
26367SOL     OW85961   5.185   5.756   1.681  0.5499 -0.6618  0.1763
26367SOL    HW185962   5.246   5.730   1.612  1.1622  0.1491  0.3962
26367SOL    HW285963   5.146   5.837   1.648  0.8184 -0.2924  0.7587
26368SOL     OW85964   4.907   7.145  11.173  0.0585 -1.0193  1.0031
26368SOL    HW185965   4.887   7.060  11.213 -3.0207 -1.8134 -1.7772
26368SOL    HW285966   4.823   7.177  11.141  1.8669  0.2896 -3.1282
26369SOL     OW85967   8.061  12.387  11.321  0.5031  0.0022 -0.6240
26369SOL    HW185968   8.149  12.382  11.284  0.7352  1.4404 -0.3247
26369SOL    HW285969   8.065  12.331  11.399  1.1788  0.1157 -0.5683
26370SOL     OW85970   3.513   1.262  10.900  0.4054 -0.2793  0.2365
26370SOL    HW185971   3.530   1.318  10.976  0.8124 -1.1732  0.8215
26370SOL    HW285972   3.460   1.190  10.934 -4.0003  1.9053 -1.3393
26371SOL     OW85973   8.107   7.032   5.429  0.1668 -0.3629 -0.3517
26371SOL    HW185974   8.043   6.974   5.388  0.3319 -0.2779 -0.7348
26371SOL    HW285975   8.114   7.106   5.369  0.8881 -0.5366 -0.4898
26372SOL     OW85976   5.904  11.793   0.782 -0.1286 -0.0047 -0.4265
26372SOL    HW185977   5.998  11.796   0.762  0.8253 -0.9106  3.0988
26372SOL    HW285978   5.885  11.699   0.788 -0.7962  0.1847  0.5621
26373SOL     OW85979   8.094   1.209   6.953  0.3865  0.0900  0.1096
26373SOL    HW185980   8.128   1.215   7.042  0.7577 -1.3603  0.0928
26373SOL    HW285981   8.146   1.272   6.903  1.3909 -0.3290  0.5912
26374SOL     OW85982   1.531   2.416   4.049 -0.3394 -0.2780  0.4361
26374SOL    HW185983   1.495   2.376   3.970 -1.7642  1.6506  0.0473
26374SOL    HW285984   1.515   2.510   4.038 -1.1328 -0.0061  3.2941
26375SOL     OW85985   6.637   4.384   3.763 -0.2234  0.0738  0.2990
26375SOL    HW185986   6.563   4.364   3.706 -0.7319  0.1293  0.9257
26375SOL    HW285987   6.679   4.460   3.724 -1.1807  0.7476  0.5499
26376SOL     OW85988  12.227   1.651   6.425 -0.1569 -0.4537 -0.2209
26376SOL    HW185989  12.278   1.727   6.396 -0.9186  0.4482  0.7138
26376SOL    HW285990  12.233   1.589   6.352 -0.1573  0.8066 -1.3433
26377SOL     OW85991   7.881   1.034   4.307 -0.0208 -0.8277 -0.1958
26377SOL    HW185992   7.964   0.990   4.287  0.4697  0.6162 -1.6906
26377SOL    HW285993   7.866   1.091   4.231 -2.1987 -0.7548  0.2222
26378SOL     OW85994   1.673   5.631   6.294 -0.7386 -0.4003 -0.0846
26378SOL    HW185995   1.743   5.571   6.268  0.8999 -0.0261  3.0439
26378SOL    HW285996   1.607   5.576   6.335  0.0812 -0.2870  1.4461
26379SOL     OW85997   9.094   6.537   3.810 -0.2533 -0.0194 -0.0623
26379SOL    HW185998   9.161   6.485   3.765 -0.0460 -0.3653  0.6431
26379SOL    HW285999   9.080   6.492   3.893 -0.3093  0.8748  0.4238
26380SOL     OW86000   6.939   8.697   4.230  0.2500 -0.0291  0.0559
26380SOL    HW186001   6.903   8.615   4.264 -0.3315 -0.1391 -0.7843
26380SOL    HW286002   6.900   8.765   4.285 -0.3187 -0.2300 -0.0880
26381SOL     OW86003   6.725   3.436  12.067  0.1825 -1.1048  0.4311
26381SOL    HW186004   6.645   3.465  12.110 -0.5541  1.4244 -2.2909
26381SOL    HW286005   6.696   3.365  12.009 -0.6186  0.9803 -1.8911
26382SOL     OW86006   4.756   3.458   4.727  0.0159  0.1155  0.1496
26382SOL    HW186007   4.774   3.373   4.768  0.1806  0.3048  0.4699
26382SOL    HW286008   4.812   3.458   4.649  2.5204  1.2453  1.8287
26383SOL     OW86009  11.551   1.015   4.231 -0.0348 -0.3351 -0.4137
26383SOL    HW186010  11.626   1.048   4.182  0.3657 -0.3901  0.1484
26383SOL    HW286011  11.559   1.056   4.317  0.1053 -1.3815  0.0869
26384SOL     OW86012   6.902   4.844   5.375  0.2356 -0.2225 -0.2674
26384SOL    HW186013   6.836   4.913   5.371  1.2760  0.7804 -0.7048
26384SOL    HW286014   6.869   4.775   5.317 -1.1886 -0.4615  0.7756
26385SOL     OW86015   3.632   0.036   3.052  0.0323  0.3299  0.0818
26385SOL    HW186016   3.596   0.124   3.067  1.0307  1.0389 -1.3919
26385SOL    HW286017   3.704   0.050   2.990  1.2080 -1.3518  0.9952
26386SOL     OW86018  11.904   0.346   8.324  0.4626  0.1178 -0.0332
26386SOL    HW186019  11.892   0.413   8.391  2.1011  0.2900  0.1264
26386SOL    HW286020  11.818   0.338   8.282  0.3812  2.8209 -0.5536
26387SOL     OW86021   7.228  11.444   5.481 -0.1017  0.2776 -0.3189
26387SOL    HW186022   7.154  11.502   5.464 -0.4748  0.3414  1.3329
26387SOL    HW286023   7.305  11.495   5.458 -0.4381  1.3511  0.8360
26388SOL     OW86024   9.362   5.424   5.557  0.1899  0.3202 -0.2729
26388SOL    HW186025   9.406   5.342   5.533 -0.6283  0.0745 -0.9961
26388SOL    HW286026   9.282   5.397   5.601 -0.4227  0.6943 -1.1078
26389SOL     OW86027   8.707   5.061   7.210  0.1522 -0.1741  0.5073
26389SOL    HW186028   8.761   5.009   7.150  0.4394  0.9287 -0.2137
26389SOL    HW286029   8.758   5.140   7.226 -0.6088  0.2347  0.9822
26390SOL     OW86030   2.616  10.059  11.469 -0.2084 -0.2087 -0.4650
26390SOL    HW186031   2.541  10.040  11.413 -0.0898  1.4886 -1.2673
26390SOL    HW286032   2.692  10.041  11.414 -0.0796  0.5687 -0.5519
26391SOL     OW86033  11.502   8.476   0.918 -0.2158 -0.2678  0.2961
26391SOL    HW186034  11.581   8.427   0.895 -0.4664 -1.8985  2.5680
26391SOL    HW286035  11.433   8.410   0.920 -1.4268  0.9291 -0.4724
26392SOL     OW86036   2.241  11.189  10.467 -0.1391  0.1124  0.0873
26392SOL    HW186037   2.164  11.186  10.524  0.5774 -0.3057  1.0414
26392SOL    HW286038   2.315  11.204  10.525  0.8106 -1.8980 -0.4959
26393SOL     OW86039   0.124  10.676   7.216 -0.0106 -0.9306  0.3507
26393SOL    HW186040   0.125  10.580   7.225 -0.8953 -1.3214 -2.5346
26393SOL    HW286041   0.216  10.699   7.203  0.0307 -1.7065 -0.9651
26394SOL     OW86042   4.922   5.963   1.915  0.6640 -0.2769 -0.3088
26394SOL    HW186043   4.898   5.931   2.002 -0.3372 -0.7196 -0.7359
26394SOL    HW286044   4.923   6.058   1.925 -0.3709 -0.2840 -0.0331
26395SOL     OW86045   3.568   9.496   2.700  1.0694 -0.3213  0.3408
26395SOL    HW186046   3.489   9.517   2.649 -0.1378 -0.8574  1.9192
26395SOL    HW286047   3.639   9.538   2.651 -0.3998  1.7419 -0.1915
26396SOL     OW86048  11.025   0.807  11.058 -0.0699  0.0993 -0.2734
26396SOL    HW186049  10.950   0.784  11.112  0.2914  0.5527  0.4359
26396SOL    HW286050  11.033   0.734  10.996 -0.1534 -0.7026  0.6394
26397SOL     OW86051   7.909   6.678   0.824 -0.8013 -0.3508  0.3978
26397SOL    HW186052   7.912   6.616   0.898 -2.0047 -0.0779  0.6941
26397SOL    HW286053   7.970   6.747   0.848 -0.4724 -0.7422  0.6997
26398SOL     OW86054  10.306   7.502   0.642  0.2852 -0.3006  0.0186
26398SOL    HW186055  10.288   7.539   0.728 -0.6308 -0.4930 -0.0850
26398SOL    HW286056  10.402   7.503   0.635  0.3256  3.0936 -0.4514
26399SOL     OW86057   5.710   1.238   8.929  0.4503  0.1865  0.6080
26399SOL    HW186058   5.758   1.314   8.961 -0.8091  0.9991  0.6302
26399SOL    HW286059   5.744   1.164   8.980  0.1001  1.0877  2.1981
26400SOL     OW86060   1.335   8.802   8.741  0.2059  0.3409 -0.1346
26400SOL    HW186061   1.296   8.842   8.818  0.2682 -0.7393  0.4859
26400SOL    HW286062   1.430   8.809   8.754  0.3111 -2.3081  1.3370
26401SOL     OW86063   5.611   6.588  12.269 -0.0010  0.1630 -0.3495
26401SOL    HW186064   5.626   6.679  12.242  0.6753  0.1033 -0.2047
26401SOL    HW286065   5.524   6.589  12.310 -0.0634  0.7150 -0.4811
26402SOL     OW86066  11.101   4.074   8.321  0.1066 -0.1746  0.1933
26402SOL    HW186067  11.013   4.109   8.337  0.1039 -0.0562 -0.0850
26402SOL    HW286068  11.113   4.080   8.226  0.0175 -1.1422  0.1172
26403SOL     OW86069  10.660   7.787   2.985  0.4624 -0.2197  0.0669
26403SOL    HW186070  10.754   7.796   3.002  0.4644  1.2130 -0.5847
26403SOL    HW286071  10.652   7.701   2.944  1.6050 -0.0585 -0.5419
26404SOL     OW86072  12.475   8.712  11.396  0.4580  0.1748  0.4335
26404SOL    HW186073  12.473   8.737  11.303  3.5870 -0.9266 -0.0677
26404SOL    HW286074  12.496   8.793  11.442 -0.8901  0.6859  0.1906
26405SOL     OW86075   0.686  10.733  10.198  0.5461  0.7102  0.6905
26405SOL    HW186076   0.672  10.703  10.288 -0.6174 -0.3471  0.1830
26405SOL    HW286077   0.778  10.758  10.196  1.0923 -1.0217  1.6995
26406SOL     OW86078  11.072  11.092   4.019  0.3721  0.1806  0.0737
26406SOL    HW186079  11.113  11.055   3.941 -0.1948  0.6880 -0.4740
26406SOL    HW286080  11.142  11.144   4.060  0.4006  0.7057 -0.6279
26407SOL     OW86081   8.907  11.835   5.431 -0.1757 -0.1905 -0.4268
26407SOL    HW186082   9.002  11.840   5.442  0.1068 -1.1128 -2.1260
26407SOL    HW286083   8.880  11.759   5.483 -0.1291  0.5364  0.7022
26408SOL     OW86084   2.706  10.602   8.036  0.1726 -0.4274 -0.1828
26408SOL    HW186085   2.635  10.646   8.082  1.1027 -0.4357  1.3043
26408SOL    HW286086   2.664  10.528   7.992 -0.7655 -0.3446  0.5555
26409SOL     OW86087   6.373   6.962   3.136  0.3298  0.1192 -0.3139
26409SOL    HW186088   6.411   6.874   3.145 -0.0077  0.0904  1.0953
26409SOL    HW286089   6.448   7.021   3.143  0.4454 -0.0249 -0.3210
26410SOL     OW86090   6.996   2.396   0.576 -0.0162 -0.3983 -0.3054
26410SOL    HW186091   6.936   2.463   0.545 -1.3202 -1.1510  0.4879
26410SOL    HW286092   7.038   2.435   0.653  0.7758  0.2439 -1.0412
26411SOL     OW86093   0.330   9.698  10.954  0.0781  0.1421  0.3999
26411SOL    HW186094   0.273   9.716  11.028  0.6738 -1.5830  1.3326
26411SOL    HW286095   0.403   9.648  10.991  0.2949 -0.9357 -1.3521
26412SOL     OW86096   8.578   3.035  10.065  0.3116  0.3436  0.3754
26412SOL    HW186097   8.507   3.007  10.123  0.4596  0.0231  0.4029
26412SOL    HW286098   8.580   2.969   9.996  0.9548  0.0378  0.6767
26413SOL     OW86099   7.865  12.328   5.408  0.6256 -0.6172 -0.4764
26413SOL    HW186100   7.951  12.292   5.431 -0.5277 -2.8660  0.6060
26413SOL    HW286101   7.885  12.399   5.346  3.2350 -1.1788 -0.4037
26414SOL     OW86102  11.186  10.414   6.479 -0.3577 -0.2599 -0.2264
26414SOL    HW186103  11.146  10.403   6.565 -2.2169 -1.2568 -1.1451
26414SOL    HW286104  11.152  10.497   6.447 -0.6316 -0.4581 -0.4607
26415SOL     OW86105   6.213   9.607   1.471  0.3597  0.0877  0.3716
26415SOL    HW186106   6.138   9.575   1.421  0.9657  0.4145 -0.7768
26415SOL    HW286107   6.195   9.579   1.561  0.6501 -3.1799 -0.4483
26416SOL     OW86108  11.182   3.010  10.036 -0.1331  0.1510 -0.6166
26416SOL    HW186109  11.255   3.054   9.993  0.2419  0.6590  0.5028
26416SOL    HW286110  11.118   3.079  10.053 -1.5749 -0.5187 -2.8978
26417SOL     OW86111  11.761   2.668   4.263 -0.2897  0.2041  0.1370
26417SOL    HW186112  11.801   2.753   4.286 -0.1950  0.4901 -1.0392
26417SOL    HW286113  11.765   2.618   4.344  1.7874  0.4984  0.2659
26418SOL     OW86114   6.314   5.151   1.744  0.2135  0.2319  0.1405
26418SOL    HW186115   6.381   5.098   1.788 -0.2566 -1.3131 -0.9291
26418SOL    HW286116   6.234   5.098   1.750 -1.0086  2.1050  1.5259
26419SOL     OW86117  12.327  10.984   8.107 -0.3607 -0.3041 -0.0138
26419SOL    HW186118  12.305  11.022   8.022 -2.2068 -0.8122  0.1809
26419SOL    HW286119  12.267  11.027   8.168  1.7124  0.9188  1.2961
26420SOL     OW86120  10.818   6.781   3.070 -0.0198 -0.1486 -0.1815
26420SOL    HW186121  10.737   6.793   3.119 -2.6741  0.4993 -4.2306
26420SOL    HW286122  10.814   6.691   3.038 -0.4021  0.5546 -2.2632
26421SOL     OW86123  11.139  10.057   7.848 -0.3595 -0.1168  0.1581
26421SOL    HW186124  11.210  10.023   7.902 -0.1018 -0.3685 -0.3316
26421SOL    HW286125  11.116  10.141   7.888  0.4283  0.1143  0.1367
26422SOL     OW86126   7.077   1.900  10.820  0.2002 -0.0542  0.0099
26422SOL    HW186127   7.068   1.996  10.825 -0.2477  0.1466 -3.0333
26422SOL    HW286128   6.991   1.867  10.845 -1.3488  0.6845 -3.7562
26423SOL     OW86129   3.775   1.581   0.167  0.6105 -0.0416  0.5714
26423SOL    HW186130   3.790   1.492   0.199 -1.0292 -0.9471 -0.9966
26423SOL    HW286131   3.687   1.603   0.200  0.1360  0.1590 -0.7839
26424SOL     OW86132   6.413  12.275  12.181  0.1629 -0.1480  0.1160
26424SOL    HW186133   6.469  12.352  12.168  0.5505 -0.6595 -1.5095
26424SOL    HW286134   6.324  12.308  12.165  0.3222 -0.0218 -0.5305
26425SOL     OW86135   9.179   4.708   8.453 -0.2541  0.2367 -0.8778
26425SOL    HW186136   9.097   4.676   8.490  1.0716 -1.3830  0.8870
26425SOL    HW286137   9.244   4.644   8.481  1.8092  2.0435 -1.2704
26426SOL     OW86138   6.025   1.913  12.407 -0.7334  0.4204 -0.4935
26426SOL    HW186139   6.028   2.006  12.386  1.7885 -0.2330 -3.7236
26426SOL    HW286140   5.946   1.881  12.362 -1.8118  0.9479  0.9226
26427SOL     OW86141   7.572  10.263   8.026  0.7296  0.3272 -0.1981
26427SOL    HW186142   7.533  10.187   7.982 -1.5949  1.6766 -0.6509
26427SOL    HW286143   7.663  10.264   7.995  0.7762 -2.0990 -0.3520
26428SOL     OW86144   5.461   0.207   7.956 -0.1934 -0.6299  0.0388
26428SOL    HW186145   5.438   0.284   8.008 -0.0389 -2.2923  2.7695
26428SOL    HW286146   5.546   0.180   7.990  0.2007 -1.4555 -1.5399
26429SOL     OW86147   6.715   9.733   8.083 -0.0108 -0.2349 -0.5158
26429SOL    HW186148   6.646   9.717   8.019 -0.3271 -0.5878 -0.0933
26429SOL    HW286149   6.669   9.759   8.162  0.3214 -0.7421 -0.1471
26430SOL     OW86150  10.180   5.738   2.388 -0.4095 -0.1774 -0.5772
26430SOL    HW186151  10.160   5.667   2.328 -0.4419 -0.6767  0.0102
26430SOL    HW286152  10.197   5.814   2.332  1.3223 -1.0491 -1.2991
26431SOL     OW86153   3.398   5.281   6.550 -0.1735 -0.2323  0.1571
26431SOL    HW186154   3.350   5.364   6.549  0.8958  0.4410  1.3654
26431SOL    HW286155   3.466   5.294   6.616 -0.7445 -2.5197  1.2867
26432SOL     OW86156   3.437   4.867   6.666  0.0136 -0.6100 -0.3176
26432SOL    HW186157   3.456   4.926   6.740 -3.0167  1.0451 -0.6927
26432SOL    HW286158   3.408   4.786   6.707  0.9893 -0.6991  0.2413
26433SOL     OW86159  10.777  11.987   9.333  0.1784  0.2445 -0.3683
26433SOL    HW186160  10.851  11.926   9.329 -1.2537 -1.5647 -0.5053
26433SOL    HW286161  10.772  12.013   9.425  0.4209 -0.3425 -0.1887
26434SOL     OW86162  11.377  11.524   1.007 -0.5303 -1.0375  0.2690
26434SOL    HW186163  11.351  11.594   0.947 -0.6371 -1.2179  0.1010
26434SOL    HW286164  11.300  11.510   1.062 -1.1572 -2.2184 -0.8443
26435SOL     OW86165   9.111   5.698  12.295 -0.2088  0.3157  0.1412
26435SOL    HW186166   9.161   5.693  12.214 -1.0166  0.5825 -0.3828
26435SOL    HW286167   9.126   5.613  12.337 -1.0052 -0.4231 -1.0181
26436SOL     OW86168   7.617   4.757   2.571  0.4246  0.3500 -0.4465
26436SOL    HW186169   7.581   4.725   2.654  3.4840 -0.2319  0.7946
26436SOL    HW286170   7.540   4.783   2.520 -1.7505 -1.5969  1.5702
26437SOL     OW86171  10.582   7.669   0.735 -0.1785 -0.2356 -0.4695
26437SOL    HW186172  10.652   7.603   0.744 -1.0898 -1.1871 -0.1491
26437SOL    HW286173  10.606   7.719   0.657  1.1355 -0.1994 -0.0605
26438SOL     OW86174   2.674   0.522  11.713  0.7065  0.0593 -0.1648
26438SOL    HW186175   2.601   0.501  11.655  1.5297  0.9856 -1.6156
26438SOL    HW286176   2.637   0.516  11.801 -0.9029 -0.2516 -0.8140
26439SOL     OW86177   8.491   4.083  11.482 -0.4524 -0.2237 -0.0789
26439SOL    HW186178   8.408   4.059  11.522 -0.2688  0.0742  0.4925
26439SOL    HW286179   8.467   4.114  11.395 -0.8687 -0.7659 -0.1661
26440SOL     OW86180   1.320   7.279   0.328  0.0823 -0.5602 -0.1450
26440SOL    HW186181   1.363   7.342   0.386 -0.3256 -2.0840  1.9741
26440SOL    HW286182   1.283   7.331   0.257  0.9781  1.3768  0.7518
26441SOL     OW86183  10.134   7.099   4.667  0.0333 -0.0822  0.3302
26441SOL    HW186184  10.152   7.020   4.717  0.6616  0.3317  0.7794
26441SOL    HW286185  10.217   7.147   4.668 -0.6200  1.0799  1.0023
26442SOL     OW86186   1.640   4.473   2.726  0.2867 -0.2674 -0.1928
26442SOL    HW186187   1.567   4.479   2.788  0.6144 -0.8975  0.2713
26442SOL    HW286188   1.718   4.482   2.780  0.5659  0.1340 -0.6511
26443SOL     OW86189   4.849   2.614   3.648 -0.3456 -0.0448 -0.1242
26443SOL    HW186190   4.894   2.589   3.567 -2.3410 -1.2401 -0.9484
26443SOL    HW286191   4.767   2.652   3.618 -1.6036 -1.4935  1.3272
26444SOL     OW86192   7.776   9.743  12.075  0.6186 -0.6284 -0.0858
26444SOL    HW186193   7.780   9.836  12.097  1.7269  0.3124 -3.5172
26444SOL    HW286194   7.684   9.728  12.052  0.3084 -0.5620  1.0808
26445SOL     OW86195   0.363   8.121   0.668 -0.3866 -0.2091  0.7309
26445SOL    HW186196   0.370   8.145   0.576 -0.3946 -0.3019  0.7058
26445SOL    HW286197   0.272   8.094   0.679 -0.8050  1.2887  1.1292
26446SOL     OW86198   8.478   1.242   1.146  0.3294  0.2135  0.6873
26446SOL    HW186199   8.543   1.190   1.193  0.0438  0.0093  0.8604
26446SOL    HW286200   8.427   1.284   1.216 -0.9400 -1.1172  0.6118
26447SOL     OW86201  10.251   9.002   9.522 -0.3521 -0.3436  0.6561
26447SOL    HW186202  10.286   9.050   9.447  0.2607 -0.5748  0.7829
26447SOL    HW286203  10.319   8.937   9.542 -1.0629 -1.1135  0.6264
26448SOL     OW86204   0.111   7.595   9.824  0.0158 -0.2546 -0.7146
26448SOL    HW186205   0.087   7.628   9.911 -0.8910  0.5033 -1.2313
26448SOL    HW286206   0.086   7.665   9.764  0.7895 -0.6990 -1.5755
26449SOL     OW86207   1.715   7.883  12.173  0.0038 -0.4459  0.0322
26449SOL    HW186208   1.638   7.828  12.159  0.2005 -0.0787 -3.3599
26449SOL    HW286209   1.772   7.863  12.099  0.5112  3.5638 -0.8773
26450SOL     OW86210   6.187   6.936   6.287  0.4532 -0.4176  0.6046
26450SOL    HW186211   6.093   6.951   6.301  0.4424 -0.2714  0.3798
26450SOL    HW286212   6.197   6.938   6.192  0.5635 -1.1543  0.5910
26451SOL     OW86213   3.384   5.819   3.491 -0.5000  0.0725  0.2769
26451SOL    HW186214   3.407   5.761   3.564  0.0939  0.2207  0.2088
26451SOL    HW286215   3.450   5.801   3.424 -0.4772  0.6275  0.1458
26452SOL     OW86216   7.862   3.524   9.352 -0.1917 -0.2184  0.0969
26452SOL    HW186217   7.773   3.540   9.322 -1.4838 -2.5006  2.2444
26452SOL    HW286218   7.871   3.579   9.430 -0.6491 -1.6317  1.1990
26453SOL     OW86219   3.173   1.744   8.775  0.8125  0.3630  0.2850
26453SOL    HW186220   3.081   1.769   8.767  0.8372  0.9548  1.5409
26453SOL    HW286221   3.193   1.698   8.694 -1.4705 -2.6648  1.2818
26454SOL     OW86222   9.348   4.637   2.979 -0.1898  0.2454 -0.1996
26454SOL    HW186223   9.341   4.710   3.040  1.0966 -0.6121  1.0711
26454SOL    HW286224   9.358   4.678   2.893  1.7567  1.6453  0.6058
26455SOL     OW86225  11.430   9.604   1.294  0.5425  0.0339  0.2801
26455SOL    HW186226  11.467   9.676   1.346  1.5947  0.0997 -0.5062
26455SOL    HW286227  11.360   9.645   1.243  1.3704  0.6244 -0.4332
26456SOL     OW86228   4.106   4.886   1.081 -0.3309  0.1648  0.4393
26456SOL    HW186229   4.181   4.945   1.087  0.8529 -1.3144  0.9575
26456SOL    HW286230   4.098   4.866   0.987  0.3378 -0.1512  0.4429
26457SOL     OW86231   6.168   8.911   4.538  0.1972  0.0929  0.2240
26457SOL    HW186232   6.139   8.991   4.493  1.7354  0.4983 -0.1265
26457SOL    HW286233   6.235   8.941   4.599 -0.2916 -0.7523  1.2028
26458SOL     OW86234  11.926   5.196   6.775  0.2236 -0.5362  0.1337
26458SOL    HW186235  11.854   5.254   6.800  0.5130 -0.1414  0.0658
26458SOL    HW286236  11.913   5.118   6.829 -0.1874 -0.4215  0.2069
26459SOL     OW86237   7.363   3.385  10.648  0.1755  0.2739 -0.5696
26459SOL    HW186238   7.270   3.389  10.627 -0.6377  1.4088  2.5971
26459SOL    HW286239   7.405   3.442  10.584 -1.6869  1.7400 -0.5914
26460SOL     OW86240   0.538   6.361  10.860 -1.1327  0.7071 -0.1152
26460SOL    HW186241   0.604   6.406  10.912  0.0558 -1.0955  0.0395
26460SOL    HW286242   0.500   6.297  10.921 -0.2267 -0.9448 -1.2125
26461SOL     OW86243   6.752   2.237  11.188 -0.2649 -0.1562 -0.9939
26461SOL    HW186244   6.697   2.314  11.202 -1.1599 -1.2705  2.7244
26461SOL    HW286245   6.829   2.253  11.242 -0.0719 -1.4874 -0.8485
26462SOL     OW86246   6.855   1.402   5.619 -0.0840 -0.2133 -0.0233
26462SOL    HW186247   6.770   1.433   5.589  0.2663 -0.1455 -0.9873
26462SOL    HW286248   6.889   1.472   5.674 -0.8521 -0.4482  0.7716
26463SOL     OW86249   7.446  11.539   8.675  0.4106 -0.0862 -0.5395
26463SOL    HW186250   7.422  11.515   8.585 -1.1654  1.2726 -0.5358
26463SOL    HW286251   7.511  11.609   8.664  0.8822 -0.5230 -0.5920
26464SOL     OW86252   9.563   1.311   0.210 -0.7175  0.6957 -0.0275
26464SOL    HW186253   9.588   1.242   0.272  2.0472  0.5320 -1.1698
26464SOL    HW286254   9.510   1.266   0.144 -0.9055  0.1841  0.4622
26465SOL     OW86255   1.547   9.669   8.313 -0.1190  0.2602  0.1905
26465SOL    HW186256   1.625   9.662   8.368 -0.3313  0.6294  0.5500
26465SOL    HW286257   1.582   9.683   8.225  0.2329 -1.1971  0.0787
26466SOL     OW86258   0.504  12.084  10.749  0.1879 -0.0268 -0.1706
26466SOL    HW186259   0.551  12.167  10.754  1.1112 -0.4607 -1.2561
26466SOL    HW286260   0.572  12.018  10.735 -0.6091 -0.8675 -0.1990
26467SOL     OW86261   7.414   5.009   4.184 -0.7811 -0.1948 -0.5592
26467SOL    HW186262   7.392   5.036   4.095  1.6718 -0.8838 -1.4611
26467SOL    HW286263   7.358   5.063   4.240 -2.1023  0.5414 -2.4878
26468SOL     OW86264  11.513   9.815   4.695  0.3241 -0.1947 -0.1941
26468SOL    HW186265  11.594   9.824   4.645  0.8927 -1.2942  0.4946
26468SOL    HW286266  11.537   9.762   4.771 -0.6270  1.0080  1.0012
26469SOL     OW86267   8.843   0.641   0.291  0.6012  0.2863 -0.3370
26469SOL    HW186268   8.842   0.676   0.202  0.1749  0.1704 -0.3774
26469SOL    HW286269   8.906   0.569   0.288  1.0283  0.6575 -0.3989
26470SOL     OW86270   8.916  10.574   8.796  0.0535 -0.2411  0.7871
26470SOL    HW186271   8.912  10.531   8.710  0.9279 -1.0629  1.1347
26470SOL    HW286272   8.923  10.667   8.776 -1.0859 -0.3137 -0.0017
26471SOL     OW86273   8.647  12.023   7.705 -0.3499  0.4975 -0.5479
26471SOL    HW186274   8.740  12.041   7.716 -0.0046 -0.7865 -1.2984
26471SOL    HW286275   8.605  12.076   7.774  0.9660  0.5636  0.2416
26472SOL     OW86276   4.137  11.181  10.429 -0.2903 -0.4597 -0.5845
26472SOL    HW186277   4.141  11.162  10.523  0.8282 -1.0174 -0.7238
26472SOL    HW286278   4.077  11.255  10.422 -0.0306 -0.1041  0.6200
26473SOL     OW86279   8.381   9.497  10.665 -0.2145 -0.0656 -0.7897
26473SOL    HW186280   8.357   9.420  10.613 -1.7144 -0.9920  1.1664
26473SOL    HW286281   8.373   9.469  10.756  0.8176  1.9543 -0.0038
26474SOL     OW86282   6.638   0.701  12.172 -0.2824  0.1054 -0.2752
26474SOL    HW186283   6.677   0.659  12.096 -1.8987 -0.8190 -0.6404
26474SOL    HW286284   6.682   0.786  12.177  0.5329 -0.1957 -1.6677
26475SOL     OW86285   7.208   9.734   2.518 -0.8104 -0.2122 -0.0560
26475SOL    HW186286   7.213   9.639   2.505  0.4116 -0.3234  1.0361
26475SOL    HW286287   7.141   9.746   2.585 -0.8631 -0.3303 -0.0880
26476SOL     OW86288   9.217  11.935   0.239 -0.0411 -0.5234 -0.0560
26476SOL    HW186289   9.160  11.941   0.162  0.1670 -1.7742 -0.3395
26476SOL    HW286290   9.186  12.003   0.298 -0.3965  0.2617 -1.1273
26477SOL     OW86291  12.295   8.667   1.893 -0.1842 -0.4692 -0.6198
26477SOL    HW186292  12.376   8.657   1.842  1.6057  2.0550  1.4212
26477SOL    HW286293  12.251   8.742   1.853  0.2953  0.3476  0.3368
26478SOL     OW86294  11.390   8.866   4.332 -0.3002 -0.5971 -0.0017
26478SOL    HW186295  11.328   8.934   4.357 -1.3827 -1.7798  0.6345
26478SOL    HW286296  11.391   8.867   4.236 -0.3368  0.2621  0.0032
26479SOL     OW86297   4.678   2.397   5.357  0.2712  0.3830  0.2316
26479SOL    HW186298   4.737   2.462   5.395  1.5907 -1.0367  0.7117
26479SOL    HW286299   4.695   2.317   5.407 -1.9311 -0.1403  0.2271
26480SOL     OW86300   6.907   8.285   6.162  0.0490 -0.0900  0.1445
26480SOL    HW186301   6.956   8.368   6.164 -2.4245  1.6274 -2.2284
26480SOL    HW286302   6.949   8.235   6.092  1.1588 -0.6285  1.1623
26481SOL     OW86303   8.629   6.120   5.510 -0.5041  0.3988 -0.0854
26481SOL    HW186304   8.701   6.074   5.466 -1.0105  0.1686 -0.6815
26481SOL    HW286305   8.605   6.190   5.449  0.2468  1.4608  0.8050
26482SOL     OW86306   2.159  10.066   7.790  0.0583 -0.6142  0.2945
26482SOL    HW186307   2.205  10.063   7.706 -0.1206 -1.6357  0.2238
26482SOL    HW286308   2.078  10.017   7.775  0.1131 -0.9691  1.1091
26483SOL     OW86309   9.508  10.923   6.728  0.0610  0.1465  0.2637
26483SOL    HW186310   9.499  10.999   6.785 -1.2522 -0.5705  1.0452
26483SOL    HW286311   9.534  10.960   6.643 -1.1583  1.5415  0.4551
26484SOL     OW86312   0.067   1.230   1.527 -0.0924  0.0235 -0.1512
26484SOL    HW186313   0.067   1.243   1.432  2.3986 -1.5698 -0.4574
26484SOL    HW286314  -0.006   1.171   1.543 -0.9238  0.8028 -0.9814
26485SOL     OW86315   8.418   3.712   6.449  0.0853  0.0573 -0.6336
26485SOL    HW186316   8.456   3.660   6.378  0.4986 -0.2819 -0.1734
26485SOL    HW286317   8.336   3.668   6.470  0.6878 -0.7403  0.1155
26486SOL     OW86318  10.863   9.564  12.192 -0.4124 -0.1018  0.3792
26486SOL    HW186319  10.863   9.605  12.279  1.7396 -0.7735  0.7639
26486SOL    HW286320  10.780   9.517  12.187 -2.4341  3.1578  0.4133
26487SOL     OW86321   2.109   7.164   4.762  0.8663 -0.2299  0.5441
26487SOL    HW186322   2.131   7.256   4.747 -1.1207  0.1385 -0.3861
26487SOL    HW286323   2.063   7.164   4.846  0.9686 -0.3959  0.6005
26488SOL     OW86324   7.670   5.840   7.584  1.0479  0.0084 -0.1569
26488SOL    HW186325   7.685   5.746   7.599  1.7817  0.2568  0.7116
26488SOL    HW286326   7.742   5.883   7.628 -0.6464  1.1257  1.6798
26489SOL     OW86327  11.981  10.214   3.781 -0.2028  0.2873 -0.0050
26489SOL    HW186328  11.975  10.233   3.687  1.7515  0.7099 -0.0795
26489SOL    HW286329  11.900  10.166   3.801 -2.7215  3.7487 -0.9903
26490SOL     OW86330   5.091   0.505  11.057  0.8491 -0.1101  0.3782
26490SOL    HW186331   5.070   0.585  11.009  0.0429  0.9052  2.3096
26490SOL    HW286332   5.180   0.518  11.088  0.7314  0.0148  0.6614
26491SOL     OW86333   7.375   7.317   6.476  0.2308 -0.3293 -0.2130
26491SOL    HW186334   7.455   7.315   6.530 -0.0178  2.0593  0.3511
26491SOL    HW286335   7.321   7.384   6.517 -0.7861  0.2339 -2.3473
26492SOL     OW86336   6.245   4.396   7.807 -0.9464  0.0091  1.3232
26492SOL    HW186337   6.276   4.458   7.742 -0.1104 -0.2679  1.4380
26492SOL    HW286338   6.166   4.357   7.769 -1.8807  1.6035  1.5377
26493SOL     OW86339   3.063   4.769   4.000 -0.4228  0.5539 -0.1665
26493SOL    HW186340   3.123   4.695   4.001 -1.3814 -0.2442 -0.6025
26493SOL    HW286341   3.077   4.813   4.084  0.4059  0.0972 -0.0583
26494SOL     OW86342   2.572   3.154   9.646 -0.1532 -0.3112 -0.5400
26494SOL    HW186343   2.485   3.136   9.683  0.6373 -0.6123  1.2639
26494SOL    HW286344   2.614   3.210   9.711  1.3896 -1.0590 -0.8531
26495SOL     OW86345   1.424  12.455   2.349  0.5391  0.0944  0.3032
26495SOL    HW186346   1.334  12.469   2.319 -0.1237  0.1132  2.1822
26495SOL    HW286347   1.439  12.361   2.341  0.6699  0.2039 -0.8256
26496SOL     OW86348   2.978  11.681   0.277 -0.4400 -0.0444  0.2850
26496SOL    HW186349   3.063  11.665   0.319  0.1273  0.6623 -0.5594
26496SOL    HW286350   2.925  11.605   0.301 -0.3138  0.5152  2.6685
26497SOL     OW86351   0.773   9.379   7.418 -0.2282 -0.2913  0.0035
26497SOL    HW186352   0.692   9.328   7.411  0.6018 -1.7465  0.7354
26497SOL    HW286353   0.818   9.365   7.335  0.0476 -0.8301  0.2451
26498SOL     OW86354   0.598  11.218   7.230 -0.1272  0.0506 -0.4894
26498SOL    HW186355   0.674  11.277   7.229 -0.8051  1.0053  0.5850
26498SOL    HW286356   0.572  11.215   7.323  0.0972 -2.2526 -0.4654
26499SOL     OW86357   8.198   6.287   1.193 -0.1357 -0.1377  0.2594
26499SOL    HW186358   8.130   6.219   1.189 -1.0238  0.7325  0.0960
26499SOL    HW286359   8.152   6.365   1.224  1.5394 -0.3916  3.8630
26500SOL     OW86360   4.615  11.578   5.502  0.4758  0.2867 -0.3835
26500SOL    HW186361   4.685  11.519   5.473  1.2617  0.8339  0.3354
26500SOL    HW286362   4.650  11.666   5.486  0.3428  0.5802  0.8460
26501SOL     OW86363   6.203   9.144   0.980 -0.1142  0.2431 -0.0101
26501SOL    HW186364   6.175   9.159   1.071 -0.3252  0.2335 -0.0736
26501SOL    HW286365   6.122   9.135   0.931 -0.0006  0.3102 -0.2121
26502SOL     OW86366   7.137   0.518   9.848 -0.2960  0.2212  0.8260
26502SOL    HW186367   7.222   0.562   9.839  0.1494 -0.3200  2.1055
26502SOL    HW286368   7.087   0.546   9.771  0.6878  1.3318  0.5591
26503SOL     OW86369   1.917   2.467   4.587  0.2235 -0.2954  0.3750
26503SOL    HW186370   1.939   2.428   4.672  0.4775 -2.0023 -0.4347
26503SOL    HW286371   2.002   2.475   4.543 -0.1859 -2.5103 -0.9501
26504SOL     OW86372   0.457   3.356  10.047 -0.0917 -0.4388  0.7315
26504SOL    HW186373   0.520   3.317   9.987 -0.7764 -0.9537  0.3314
26504SOL    HW286374   0.457   3.449  10.024 -0.5224 -0.6637 -0.2540
26505SOL     OW86375   6.144   1.237   8.159  0.1189 -0.4612  0.5358
26505SOL    HW186376   6.152   1.332   8.149 -0.4610 -0.4789 -0.1562
26505SOL    HW286377   6.066   1.214   8.110  1.4892 -1.5984 -1.2335
26506SOL     OW86378   2.260   4.923   3.780  0.0539  0.1790  0.5090
26506SOL    HW186379   2.346   4.932   3.821 -0.4962  0.0626  1.7426
26506SOL    HW286380   2.204   4.984   3.829 -0.8809 -0.8186  0.7135
26507SOL     OW86381   8.902   6.293   5.449 -0.4750  0.1712 -0.1102
26507SOL    HW186382   8.860   6.375   5.426  1.3721  0.8288 -1.3257
26507SOL    HW286383   8.851   6.226   5.403 -1.2969  0.7271 -0.0341
26508SOL     OW86384  10.772   7.017  11.739  0.0515 -0.3136  0.3025
26508SOL    HW186385  10.741   7.085  11.798  0.9747 -0.2552  0.7354
26508SOL    HW286386  10.819   7.064  11.670 -1.8506 -0.2932 -1.0774
26509SOL     OW86387   8.344   0.699   0.101  0.3313 -0.0614 -0.1745
26509SOL    HW186388   8.363   0.782   0.145  0.7945  0.1609 -0.7766
26509SOL    HW286389   8.356   0.718   0.008  1.9199 -1.1888 -0.2336
26510SOL     OW86390   5.455   8.174  11.455  0.7991  0.3719 -0.7538
26510SOL    HW186391   5.434   8.267  11.449  1.0285  0.6273  1.4407
26510SOL    HW286392   5.371   8.129  11.445 -0.0534  1.0874  2.1511
26511SOL     OW86393   0.703  11.787   0.390  0.1434 -0.0102  0.0977
26511SOL    HW186394   0.756  11.857   0.427 -0.5019  0.2874  0.4783
26511SOL    HW286395   0.612  11.812   0.408 -0.1356 -0.5428 -0.4732
26512SOL     OW86396   8.239   8.606   7.889 -0.0486  0.0113 -0.2099
26512SOL    HW186397   8.256   8.580   7.798  0.1033 -0.1318 -0.1391
26512SOL    HW286398   8.215   8.699   7.882  1.4293  0.4040 -0.2299
26513SOL     OW86399   4.198  10.810   7.048  0.1248  0.2071  0.2624
26513SOL    HW186400   4.161  10.737   6.998  1.0435  0.5357 -0.9443
26513SOL    HW286401   4.127  10.838   7.106 -0.4711 -1.1889  0.2597
26514SOL     OW86402   2.126   8.779   5.706  0.5880 -0.2202  0.1455
26514SOL    HW186403   2.091   8.805   5.791 -1.1313  0.7619 -0.8271
26514SOL    HW286404   2.209   8.735   5.727 -0.3747 -1.0827  2.3943
26515SOL     OW86405   8.947   5.630   9.286  0.0592  0.5240 -0.5846
26515SOL    HW186406   8.914   5.671   9.366 -1.6563 -3.1469  0.8512
26515SOL    HW286407   9.010   5.565   9.317 -0.8917 -1.2092 -2.0804
26516SOL     OW86408   2.793   1.493   1.868  0.0555 -0.1251 -0.3020
26516SOL    HW186409   2.843   1.567   1.836  0.2885 -1.1468 -2.4680
26516SOL    HW286410   2.845   1.458   1.941  2.5180 -1.0368 -2.3477
26517SOL     OW86411  10.213   7.346   9.093  0.0162 -0.1794  0.4245
26517SOL    HW186412  10.176   7.434   9.079 -1.6384 -1.1629 -1.9308
26517SOL    HW286413  10.290   7.344   9.036  0.7540  0.0918  1.3788
26518SOL     OW86414   0.184   5.558   7.753 -0.4709 -0.5912 -0.4200
26518SOL    HW186415   0.101   5.591   7.786 -0.0504 -0.0438  0.1086
26518SOL    HW286416   0.176   5.566   7.658 -0.6153  0.4865 -0.3327
26519SOL     OW86417   7.195   4.065   6.518 -0.5211  0.3693  0.1915
26519SOL    HW186418   7.286   4.068   6.489 -0.6191 -2.1574 -0.6195
26519SOL    HW286419   7.196   4.010   6.596 -1.2783  0.7387  0.4727
26520SOL     OW86420   6.747  11.098   1.293 -0.2331  0.0717  0.0362
26520SOL    HW186421   6.756  11.040   1.218  2.2301  1.4052 -0.8260
26520SOL    HW286422   6.780  11.046   1.367 -1.6091 -0.8529  0.0470
26521SOL     OW86423  12.232   3.352   9.020 -1.1367  0.2126  0.7273
26521SOL    HW186424  12.223   3.361   9.114  0.0304  0.9157  0.7911
26521SOL    HW286425  12.320   3.385   9.001 -0.7809 -1.2796 -0.4160
26522SOL     OW86426   5.591   7.230   9.875 -0.1897 -0.4709 -0.0625
26522SOL    HW186427   5.597   7.142   9.912 -1.4289  0.1294  1.6975
26522SOL    HW286428   5.680   7.249   9.844  0.2825 -2.0273  0.2483
26523SOL     OW86429   5.793   0.916   9.488  0.8273  0.3678  0.1157
26523SOL    HW186430   5.824   0.850   9.550 -0.7883 -1.7124 -1.1545
26523SOL    HW286431   5.698   0.914   9.497  0.4955 -0.3737 -2.6798
26524SOL     OW86432   7.466   1.617   9.240 -0.1521  0.6582  0.2484
26524SOL    HW186433   7.499   1.626   9.329  0.0169  0.5780  0.1951
26524SOL    HW286434   7.390   1.675   9.236 -1.1927 -0.5922  0.9586
26525SOL     OW86435  12.328   1.036   9.364 -0.6943 -0.1632 -0.7632
26525SOL    HW186436  12.264   0.970   9.335 -0.8103 -0.2818 -0.2578
26525SOL    HW286437  12.278   1.093   9.423 -0.4164 -0.0597 -0.6253
26526SOL     OW86438  12.244   4.520   4.863 -0.1647 -0.3776  0.3880
26526SOL    HW186439  12.201   4.461   4.925 -0.6675  0.6108  1.0018
26526SOL    HW286440  12.257   4.466   4.785 -1.0406 -1.1715  0.7605
26527SOL     OW86441   4.673  12.092  10.927 -0.6341  0.4723 -0.2600
26527SOL    HW186442   4.675  12.187  10.920 -0.5452  0.5809  1.0187
26527SOL    HW286443   4.749  12.070  10.981 -0.4802 -0.3538 -0.7922
26528SOL     OW86444   1.241   2.423   3.768 -0.2830 -0.0912  0.7043
26528SOL    HW186445   1.332   2.445   3.745 -0.8130 -0.6138 -2.3285
26528SOL    HW286446   1.193   2.504   3.756 -0.7122 -0.5715 -1.1415
26529SOL     OW86447   4.132   3.865   1.534  0.0137  0.0785  0.0262
26529SOL    HW186448   4.078   3.932   1.493  0.6473  1.0233  0.6951
26529SOL    HW286449   4.112   3.785   1.485 -2.4484  0.2325  0.6516
26530SOL     OW86450   0.383   9.112  11.631  0.0247 -0.4464 -0.0927
26530SOL    HW186451   0.291   9.090  11.619 -0.1942  0.2306  0.2926
26530SOL    HW286452   0.425   9.029  11.652 -0.5759 -0.6825  0.1950
26531SOL     OW86453  11.247  11.245  10.227  0.2435  0.2675  0.5506
26531SOL    HW186454  11.202  11.242  10.312 -0.3908 -1.3782  0.1968
26531SOL    HW286455  11.177  11.259  10.163  0.7531  1.8018  0.2767
26532SOL     OW86456   2.557   4.032  10.594 -0.2001 -0.6016 -0.1918
26532SOL    HW186457   2.507   3.953  10.573 -0.8524  0.0961 -1.3504
26532SOL    HW286458   2.491   4.094  10.625  0.3923 -0.6940  1.3086
26533SOL     OW86459   0.699   8.350   5.950  0.0705  0.3079 -0.0159
26533SOL    HW186460   0.650   8.381   5.874 -0.3442 -0.8957 -0.2736
26533SOL    HW286461   0.775   8.305   5.912 -0.5310 -0.9556  0.2210
26534SOL     OW86462   8.243   8.914   8.760 -0.0189  0.1205 -0.3971
26534SOL    HW186463   8.157   8.955   8.751  0.1817  0.4323 -0.9202
26534SOL    HW286464   8.247   8.887   8.852 -0.5696  0.3392 -0.3054
26535SOL     OW86465   0.459   3.836   9.429 -0.0697 -0.3749  0.0751
26535SOL    HW186466   0.439   3.846   9.522  0.7525  0.6843  0.1597
26535SOL    HW286467   0.500   3.918   9.405 -1.9583  0.1357 -1.7010
26536SOL     OW86468   0.344   7.208   6.988 -0.5131  0.3854  0.1080
26536SOL    HW186469   0.398   7.129   6.987 -1.2837 -0.1657 -1.5121
26536SOL    HW286470   0.255   7.176   7.002 -1.0848  0.7129 -2.2788
26537SOL     OW86471  10.275   9.656   6.495  0.6965  0.1021  0.0625
26537SOL    HW186472  10.249   9.596   6.426  1.5955  0.3485 -0.5016
26537SOL    HW286473  10.275   9.603   6.575 -1.5626  0.0927  0.1346
26538SOL     OW86474   2.325   1.424   1.055 -0.0879  0.1939  0.8953
26538SOL    HW186475   2.370   1.505   1.078  0.4285  0.7822 -1.8366
26538SOL    HW286476   2.395   1.363   1.033 -0.5202 -0.0325  0.1057
26539SOL     OW86477   2.826  10.502   2.572 -0.2885 -0.5327 -0.3340
26539SOL    HW186478   2.738  10.505   2.611 -1.1434  0.6079 -2.2224
26539SOL    HW286479   2.871  10.578   2.610  0.0084 -1.2829  0.8558
26540SOL     OW86480   9.718   1.628  12.017 -0.1693 -0.6802  0.4735
26540SOL    HW186481   9.792   1.579  11.982 -0.4583 -0.6560 -0.1998
26540SOL    HW286482   9.687   1.681  11.943 -1.0591 -0.9426  0.6407
26541SOL     OW86483   3.514   4.146  11.038  0.1468 -0.7510  0.1741
26541SOL    HW186484   3.599   4.133  10.997  0.6252 -0.6779  1.1051
26541SOL    HW286485   3.526   4.113  11.128 -0.5171  0.1329  0.6005
26542SOL     OW86486   9.776  10.818   0.527  0.4566 -0.3758  0.2638
26542SOL    HW186487   9.843  10.750   0.538  1.9924  1.2128  1.0643
26542SOL    HW286488   9.825  10.899   0.514 -1.3288  0.8006  0.5256
26543SOL     OW86489   2.698   3.278   9.006  0.4981 -0.0303 -0.2704
26543SOL    HW186490   2.729   3.335   8.934 -0.2274  1.0235  0.2233
26543SOL    HW286491   2.603   3.276   8.995  0.2330  1.2315  1.4025
26544SOL     OW86492   3.052   9.923  10.474 -0.1250  0.0991  0.8780
26544SOL    HW186493   3.029  10.009  10.510  0.4294  0.0136  1.4427
26544SOL    HW286494   2.971   9.873  10.480 -0.8109  0.9306 -0.5768
26545SOL     OW86495   2.232   7.189  11.283 -0.2471  0.3971  0.5024
26545SOL    HW186496   2.299   7.121  11.275 -1.1610 -0.5578  0.8268
26545SOL    HW286497   2.185   7.186  11.200  0.6281  1.6532 -0.0658
26546SOL     OW86498   0.550   5.232  11.638  0.0033 -0.1902 -0.6013
26546SOL    HW186499   0.577   5.228  11.729  2.0441  1.6441 -1.0540
26546SOL    HW286500   0.534   5.325  11.621 -0.3174 -0.4895 -2.1199
26547SOL     OW86501   6.378   5.044  12.436  0.2581 -0.3856  0.2140
26547SOL    HW186502   6.377   4.951  12.456 -0.1126  0.0406  2.4075
26547SOL    HW286503   6.471   5.065  12.423  0.1905 -1.4106 -2.3965
26548SOL     OW86504   9.072   4.822   4.709 -0.0347 -0.0523 -0.7034
26548SOL    HW186505   9.009   4.891   4.731  1.2995  1.0411 -0.1114
26548SOL    HW286506   9.065   4.760   4.782 -1.5354 -0.7851 -1.4415
26549SOL     OW86507   1.301  11.075   3.788 -0.4287  0.6257 -0.6169
26549SOL    HW186508   1.337  11.011   3.727 -1.8463  1.3637 -2.3258
26549SOL    HW286509   1.338  11.158   3.760 -2.3573  1.2071 -1.6108
26550SOL     OW86510   3.884   6.929   0.219 -0.1076  0.3313  0.0691
26550SOL    HW186511   3.934   6.853   0.189  0.1840  0.2105  0.8367
26550SOL    HW286512   3.799   6.893   0.247 -0.2013  0.3756 -0.1590
26551SOL     OW86513   3.211  10.289   3.164 -0.3456 -0.7559 -0.3715
26551SOL    HW186514   3.167  10.227   3.105  0.1791  0.0637 -1.6861
26551SOL    HW286515   3.277  10.236   3.209  0.7189 -1.0360 -2.1411
26552SOL     OW86516   8.703   7.634   7.957 -0.2721  0.0319 -0.0723
26552SOL    HW186517   8.635   7.583   7.913  0.3024  0.5530 -1.5892
26552SOL    HW286518   8.656   7.677   8.029 -1.2613 -0.6862 -0.2626
26553SOL     OW86519   8.223   0.315   9.604  0.0091 -0.5434  0.1335
26553SOL    HW186520   8.297   0.266   9.638 -1.0175 -0.9691  1.9020
26553SOL    HW286521   8.158   0.313   9.674 -0.4643  2.5775 -0.0626
26554SOL     OW86522   2.817  12.399  10.512 -0.0905  0.0262 -0.0270
26554SOL    HW186523   2.804  12.468  10.577  0.6878  0.4484 -0.3049
26554SOL    HW286524   2.899  12.357  10.539 -0.3259 -0.4981 -0.1180
26555SOL     OW86525   4.917   9.505   8.465  0.6430  0.3337  0.4545
26555SOL    HW186526   4.971   9.427   8.480  0.4417  0.3415  1.2954
26555SOL    HW286527   4.921   9.552   8.549 -0.1120  0.6761  0.3019
26556SOL     OW86528   5.174   7.833  10.239  0.2689 -0.3149  0.2699
26556SOL    HW186529   5.174   7.737  10.243  0.0861 -0.3334 -0.0792
26556SOL    HW286530   5.098   7.854  10.184  0.8941 -0.0150 -0.4980
26557SOL     OW86531   1.605   2.995   4.297  0.5504 -0.4108 -0.2993
26557SOL    HW186532   1.525   3.044   4.313  1.2945  0.0465  2.6548
26557SOL    HW286533   1.577   2.913   4.257 -1.3224 -0.0074  0.1307
26558SOL     OW86534   3.183   1.650  10.147 -0.0002 -0.3995  0.7785
26558SOL    HW186535   3.277   1.639  10.133 -0.1150  0.9279 -1.6808
26558SOL    HW286536   3.171   1.744  10.154 -1.1762 -0.5344  0.7579
26559SOL     OW86537   2.855   2.630  11.945  0.2133 -0.4388 -0.2510
26559SOL    HW186538   2.879   2.677  11.865 -0.6003  0.0156 -0.2364
26559SOL    HW286539   2.928   2.645  12.005  0.1526  0.4660 -0.3943
26560SOL     OW86540   4.026   4.682  12.439  0.0698 -0.8376 -0.1635
26560SOL    HW186541   3.979   4.728  12.369  1.3731  0.0898 -0.4700
26560SOL    HW286542   4.062   4.604  12.396  2.5814  0.7378 -1.1375
26561SOL     OW86543   7.269   8.983   4.633 -0.0133 -0.2223  0.8515
26561SOL    HW186544   7.307   9.011   4.550 -1.5685  1.9623  0.8144
26561SOL    HW286545   7.260   8.888   4.624  0.3997 -0.1105 -1.2306
26562SOL     OW86546   7.109   9.892   6.402  0.1542 -0.2046  0.6343
26562SOL    HW186547   7.068   9.853   6.325 -0.6833  1.0277  0.4185
26562SOL    HW286548   7.179   9.947   6.366 -1.0389  1.3703  0.5979
26563SOL     OW86549   3.441  10.723   7.704  0.1114  0.4778 -0.1460
26563SOL    HW186550   3.521  10.671   7.696 -0.4672 -0.3221 -0.9364
26563SOL    HW286551   3.390  10.678   7.772  0.3363  1.0063  0.3803
26564SOL     OW86552   8.738   7.602  12.276  0.5315 -0.2827  0.5430
26564SOL    HW186553   8.743   7.509  12.299  1.9436  0.1389  2.0921
26564SOL    HW286554   8.685   7.640  12.346  0.2827  0.1546  0.1187
26565SOL     OW86555   8.086   8.119   0.169  0.1233  0.2889  0.1145
26565SOL    HW186556   8.100   8.207   0.133 -0.0676  0.6166  0.8159
26565SOL    HW286557   8.047   8.135   0.255  0.5105 -0.4752  0.4370
26566SOL     OW86558   9.539   1.785  11.374  0.0769  0.0971 -0.0801
26566SOL    HW186559   9.569   1.873  11.398  0.5362 -0.0721 -0.0423
26566SOL    HW286560   9.466   1.801  11.313  0.1147  0.5054 -0.0227
26567SOL     OW86561   3.347   9.854   3.559 -0.3523 -0.2588 -0.1438
26567SOL    HW186562   3.400   9.840   3.637 -0.9591 -0.8201  0.1724
26567SOL    HW286563   3.330   9.949   3.559  0.6865 -0.0580 -0.2857
26568SOL     OW86564   8.309  10.765   1.569 -0.4627 -0.0564  0.1340
26568SOL    HW186565   8.367  10.826   1.614  0.0522 -0.3946 -0.0610
26568SOL    HW286566   8.312  10.686   1.623  0.3982 -0.5710 -0.6345
26569SOL     OW86567   0.056   3.475   3.678  0.3073 -0.4084 -0.5123
26569SOL    HW186568   0.014   3.560   3.689 -1.4374 -0.9917 -2.2748
26569SOL    HW286569  -0.007   3.422   3.630  1.8521 -2.3311 -0.5590
26570SOL     OW86570   4.607   9.290  11.608  0.0084  0.4610  0.2829
26570SOL    HW186571   4.679   9.254  11.659 -0.7623  0.5563  1.4830
26570SOL    HW286572   4.575   9.364  11.659 -1.0840  0.2820 -0.1088
26571SOL     OW86573   7.605   9.463   5.406 -0.0833  0.1159 -0.6361
26571SOL    HW186574   7.619   9.385   5.353 -1.0960 -0.7342  0.3070
26571SOL    HW286575   7.510   9.475   5.406 -0.0946  0.1876  0.8452
26572SOL     OW86576   0.403   4.775   5.376  0.7322  0.3059 -0.1005
26572SOL    HW186577   0.459   4.852   5.367 -0.4159  1.1951  0.1699
26572SOL    HW286578   0.402   4.736   5.289 -0.4150  1.8447 -0.8108
26573SOL     OW86579  11.741   2.488  10.751 -0.1271 -0.1388 -0.0269
26573SOL    HW186580  11.662   2.457  10.706 -0.4889  0.3548  0.2651
26573SOL    HW286581  11.709   2.550  10.816  0.5325  0.3475 -0.1585
26574SOL     OW86582   4.818   8.753   9.207  0.1302 -0.6918  0.0830
26574SOL    HW186583   4.833   8.672   9.159 -0.2291 -0.9874  0.4608
26574SOL    HW286584   4.723   8.758   9.217  0.0901  0.2072 -0.6673
26575SOL     OW86585   2.179   8.705   3.202 -0.6873  0.5953 -0.0581
26575SOL    HW186586   2.091   8.728   3.234 -0.7078  1.3190 -0.6045
26575SOL    HW286587   2.216   8.789   3.174 -0.1276  0.1754 -0.5791
26576SOL     OW86588   5.306   4.809   9.290  0.8585 -0.2718 -0.4791
26576SOL    HW186589   5.387   4.786   9.245  1.8582  4.0022 -1.2483
26576SOL    HW286590   5.323   4.895   9.329 -2.6804 -0.0964  1.1067
26577SOL     OW86591   2.820   4.407  10.217 -0.1163 -0.5311  0.2617
26577SOL    HW186592   2.845   4.327  10.172 -1.5141 -0.8140 -0.0714
26577SOL    HW286593   2.877   4.474  10.181 -1.0956 -0.7694 -1.9002
26578SOL     OW86594  11.010   9.177   6.108  0.0190 -0.3012 -0.1644
26578SOL    HW186595  10.993   9.176   6.202 -1.4920 -0.5030 -0.4116
26578SOL    HW286596  10.980   9.263   6.079 -0.4532 -0.6134 -0.6118
26579SOL     OW86597   1.045  10.824   8.544  0.8411 -0.9588  0.4701
26579SOL    HW186598   1.122  10.767   8.552  1.7667  0.0879 -0.5844
26579SOL    HW286599   1.080  10.913   8.549 -0.5423 -0.4375  1.8078
26580SOL     OW86600   6.014   1.511  10.562  0.2777  0.2947  0.3400
26580SOL    HW186601   6.099   1.512  10.518 -0.3412  1.8539 -0.9558
26580SOL    HW286602   6.023   1.574  10.633  0.3872 -0.0218  0.6097
26581SOL     OW86603  11.570   8.089   2.677  0.3727 -0.0235  0.1304
26581SOL    HW186604  11.547   7.996   2.680  1.0370 -0.2076 -0.1940
26581SOL    HW286605  11.638   8.099   2.743  0.6428  0.1317 -0.1668
26582SOL     OW86606  10.967   3.216   7.341 -0.0519  0.2110 -0.1821
26582SOL    HW186607  10.959   3.262   7.424  1.0515 -1.4930  0.9302
26582SOL    HW286608  10.905   3.143   7.348  1.9774 -1.5741  0.3877
26583SOL     OW86609   3.105  11.108   7.606  0.1044  0.0659  0.2023
26583SOL    HW186610   3.167  11.052   7.653  0.8739 -0.0048 -0.8596
26583SOL    HW286611   3.100  11.188   7.658  0.9818  0.0162  0.3822
26584SOL     OW86612  10.910   3.087  10.911 -0.3055  0.0577  0.1094
26584SOL    HW186613  10.831   3.050  10.870  0.0839 -0.2983 -0.3208
26584SOL    HW286614  10.896   3.182  10.906  0.3749  0.0909 -2.1848
26585SOL     OW86615   8.064  10.747  10.629  0.1040  0.4623  0.2252
26585SOL    HW186616   8.095  10.662  10.660 -0.0211  0.3697  0.0959
26585SOL    HW286617   7.985  10.763  10.680  1.2086  1.4438  1.7492
26586SOL     OW86618   2.850  11.211  11.527  0.2763 -0.0623 -0.4531
26586SOL    HW186619   2.890  11.297  11.512 -0.6387  0.1268 -2.0293
26586SOL    HW286620   2.833  11.177  11.439 -0.3758 -1.3831  0.1578
26587SOL     OW86621   9.528   0.334   1.845 -0.0837  0.2003 -0.2375
26587SOL    HW186622   9.595   0.401   1.860  0.2013 -0.3233  0.9843
26587SOL    HW286623   9.449   0.383   1.825  0.4890  0.8463 -0.9859
26588SOL     OW86624  12.158   1.986   3.911  0.4441  0.1748  0.4701
26588SOL    HW186625  12.192   1.913   3.963  2.9869  0.6417 -0.4074
26588SOL    HW286626  12.124   2.048   3.976  0.5843 -0.6685  1.3751
26589SOL     OW86627  10.199   7.861   8.130 -0.4372 -0.3889  0.5075
26589SOL    HW186628  10.141   7.928   8.094  0.5995  0.6773  0.7619
26589SOL    HW286629  10.192   7.870   8.225 -1.1140 -1.3866  0.5702
26590SOL     OW86630   9.703   2.721   4.686  0.8835  0.3310  0.0955
26590SOL    HW186631   9.727   2.690   4.598  1.3982  0.1980  0.2786
26590SOL    HW286632   9.780   2.771   4.715  0.4684  0.9121  0.2181
26591SOL     OW86633   7.037   2.360   5.188 -0.2379 -0.1282 -0.0248
26591SOL    HW186634   7.112   2.403   5.146  0.6818 -0.5757  1.0860
26591SOL    HW286635   6.965   2.421   5.177  0.1690  0.1368 -1.5000
26592SOL     OW86636   2.687   4.594   2.603  0.0150  0.1203 -0.0252
26592SOL    HW186637   2.651   4.681   2.586 -0.3345 -0.1928 -0.9448
26592SOL    HW286638   2.760   4.586   2.541 -0.6722 -0.6791 -0.7485
26593SOL     OW86639  10.260   4.775   3.994  0.1471 -0.3069 -0.2847
26593SOL    HW186640  10.230   4.835   4.062 -0.4780 -1.8269  0.8479
26593SOL    HW286641  10.179   4.737   3.959  0.4476  0.5293 -2.0140
26594SOL     OW86642   3.826   4.131   2.281 -0.7140  0.2303  0.1833
26594SOL    HW186643   3.884   4.142   2.356 -0.5686 -0.5569  0.1977
26594SOL    HW286644   3.771   4.210   2.281 -0.4446  0.4247  0.8713
26595SOL     OW86645  12.171   8.159   9.004 -0.2458 -0.3009 -0.3081
26595SOL    HW186646  12.178   8.234   8.945 -0.5432 -0.4651 -0.5538
26595SOL    HW286647  12.248   8.107   8.984  0.7199  0.6318  0.8522
26596SOL     OW86648   1.627   8.892   3.989 -0.4405  0.8163  0.3195
26596SOL    HW186649   1.663   8.883   3.900 -2.3792 -0.8526 -0.3674
26596SOL    HW286650   1.685   8.956   4.031  1.5673  0.4004 -1.5778
26597SOL     OW86651   2.292   2.556  10.042  0.1982  0.2028 -0.9901
26597SOL    HW186652   2.383   2.532  10.057  0.2581  0.5836 -0.7371
26597SOL    HW286653   2.260   2.490   9.980  0.3680 -0.5059 -0.3425
26598SOL     OW86654   1.793  11.674   1.740  0.0159  0.3716 -0.1807
26598SOL    HW186655   1.746  11.647   1.819  0.2245 -0.2474 -0.2623
26598SOL    HW286656   1.745  11.632   1.669 -0.4493  1.3048 -0.4298
26599SOL     OW86657   8.097   4.557   8.010 -0.1761 -0.1848 -0.0069
26599SOL    HW186658   8.051   4.513   7.937 -1.7507 -0.1251  0.8998
26599SOL    HW286659   8.027   4.579   8.072  0.8353  1.7890  0.5023
26600SOL     OW86660   9.657   5.114   4.499 -0.4272 -0.0390 -0.2382
26600SOL    HW186661   9.564   5.134   4.508 -0.3048  0.1578  0.7409
26600SOL    HW286662   9.663   5.063   4.418 -1.1657  1.2791 -1.1580
26601SOL     OW86663   1.844   6.557   2.812  0.0006 -0.2264 -0.0339
26601SOL    HW186664   1.884   6.643   2.825 -0.7024  0.2299 -0.7697
26601SOL    HW286665   1.753   6.576   2.792 -0.0077 -1.1056 -0.9069
26602SOL     OW86666  10.728   9.115   1.781  0.6357 -0.3387  0.7515
26602SOL    HW186667  10.739   9.082   1.692 -2.3554 -1.3820  0.6629
26602SOL    HW286668  10.734   9.038   1.837 -1.2519 -0.3273  1.0386
26603SOL     OW86669   8.055  12.140   5.184 -0.5050  0.0954 -0.6249
26603SOL    HW186670   8.140  12.127   5.144 -0.4280 -1.2944 -0.0471
26603SOL    HW286671   8.009  12.200   5.124  1.6373  2.7823  0.2015
26604SOL     OW86672  11.681  11.845   9.190 -0.2637  0.1777 -1.0826
26604SOL    HW186673  11.586  11.838   9.185 -0.3908  1.4263 -0.7992
26604SOL    HW286674  11.708  11.774   9.249 -1.2186  0.9832  0.3622
26605SOL     OW86675   8.878  10.584  10.170 -0.2891 -0.1243  0.1615
26605SOL    HW186676   8.812  10.615  10.232  1.1382  1.3869  0.9909
26605SOL    HW286677   8.828  10.561  10.092 -2.0908 -1.5548  1.6210
26606SOL     OW86678   8.570   7.108   5.360 -0.0447  0.2250  0.0621
26606SOL    HW186679   8.622   7.189   5.361  1.8258 -0.9287  0.6261
26606SOL    HW286680   8.582   7.074   5.271  0.7523 -0.3883  0.3957
26607SOL     OW86681   2.690   0.270   1.195  0.3402  0.0478 -0.1185
26607SOL    HW186682   2.674   0.185   1.235  0.2350  0.0848 -0.0817
26607SOL    HW286683   2.671   0.257   1.102  0.3901  0.0137 -0.1239
26608SOL     OW86684  10.162   7.197   1.821 -0.2352 -0.0933  0.1832
26608SOL    HW186685  10.221   7.209   1.746 -0.1547 -0.2335  0.2235
26608SOL    HW286686  10.110   7.277   1.823  0.5050  0.3867  0.6375
26609SOL     OW86687   0.898   9.626   9.618  0.4531  0.3390  0.9140
26609SOL    HW186688   0.991   9.646   9.623  0.7484 -0.5218 -0.4210
26609SOL    HW286689   0.881   9.614   9.524 -0.6978 -0.8216  1.2377
26610SOL     OW86690   1.087   8.081   0.431 -0.2360  0.0451 -0.3344
26610SOL    HW186691   1.163   8.103   0.484 -0.4611  0.8948 -0.3493
26610SOL    HW286692   1.090   8.143   0.357 -0.4735 -0.4657 -0.7806
26611SOL     OW86693   6.151   8.477  12.099  0.0163  0.3358  0.5209
26611SOL    HW186694   6.189   8.436  12.021 -0.8593  1.0097 -0.2777
26611SOL    HW286695   6.063   8.502  12.073 -1.8300 -2.9081  2.8627
26612SOL     OW86696   2.014   1.427   0.948  0.3138  0.3965  0.2384
26612SOL    HW186697   1.948   1.358   0.949  1.7663 -1.0994  2.2117
26612SOL    HW286698   1.966   1.507   0.927 -1.7836 -0.8925 -0.0880
26613SOL     OW86699   8.380  11.224  11.285 -0.0178  0.1530  0.7799
26613SOL    HW186700   8.415  11.256  11.368  3.7753 -1.6556  0.1057
26613SOL    HW286701   8.446  11.249  11.220 -1.3129 -1.1812 -1.1737
26614SOL     OW86702   4.138   7.444   2.819 -0.0034 -0.0411  0.2055
26614SOL    HW186703   4.081   7.440   2.896  0.5458  1.3919  0.7211
26614SOL    HW286704   4.080   7.421   2.746 -0.5319 -1.4376  1.0158
26615SOL     OW86705   8.809  11.357   8.264 -0.5845 -0.0327  0.4306
26615SOL    HW186706   8.786  11.325   8.351  1.3222 -0.1447  0.9420
26615SOL    HW286707   8.848  11.282   8.220  0.5587  0.6018  0.3214
26616SOL     OW86708   8.915   6.795   8.588 -0.2100  0.0407 -0.4076
26616SOL    HW186709   8.822   6.783   8.609 -0.5754  0.1473 -1.8884
26616SOL    HW286710   8.946   6.708   8.564  0.3131 -0.1568  0.8779
26617SOL     OW86711   2.036  11.656  10.774 -0.4049  0.1190 -0.1160
26617SOL    HW186712   1.970  11.634  10.708  0.0347  2.3190 -1.3830
26617SOL    HW286713   2.004  11.737  10.814 -0.4779 -0.9686  2.2093
26618SOL     OW86714   8.180  11.829   1.804  0.0209  0.5884  0.0337
26618SOL    HW186715   8.208  11.844   1.714 -1.3906 -0.9836 -0.7178
26618SOL    HW286716   8.223  11.898   1.854 -0.5658  2.6237 -2.0851
26619SOL     OW86717   4.056   2.349  10.209  0.4363 -0.3188  0.1360
26619SOL    HW186718   4.138   2.381  10.248  0.5544 -0.0822 -0.3126
26619SOL    HW286719   4.035   2.411  10.140  0.0929 -0.6087 -0.0252
26620SOL     OW86720   8.336   5.624  12.225 -0.1440 -0.1381 -0.8128
26620SOL    HW186721   8.327   5.715  12.197  0.2776 -0.0434 -0.6431
26620SOL    HW286722   8.328   5.573  12.144 -0.8862  0.0141 -0.8426
26621SOL     OW86723  11.897  10.537   2.588 -0.0694 -0.2199 -0.0642
26621SOL    HW186724  11.803  10.523   2.573 -0.3760  1.2312  0.3616
26621SOL    HW286725  11.905  10.537   2.684  0.5218 -1.2518 -0.1082
26622SOL     OW86726   8.134   2.255   1.501 -0.0098 -0.3300  0.0261
26622SOL    HW186727   8.067   2.189   1.521  1.1456 -0.7330  3.0769
26622SOL    HW286728   8.210   2.204   1.473 -0.0159 -0.0644 -0.4889
26623SOL     OW86729   8.922   5.360   6.806  0.0712 -0.4067 -0.3340
26623SOL    HW186730   8.989   5.343   6.873  1.7679 -1.4201 -2.1732
26623SOL    HW286731   8.942   5.447   6.774  0.5308 -0.7093 -0.8838
26624SOL     OW86732   2.550   3.421   6.127  0.0781 -0.6780  0.4156
26624SOL    HW186733   2.483   3.479   6.092 -1.1853 -1.2494  1.7648
26624SOL    HW286734   2.601   3.475   6.186  0.5234 -0.3556 -0.2529
26625SOL     OW86735   2.419   3.897   6.197  0.5086  0.0094  0.2419
26625SOL    HW186736   2.361   3.821   6.199  0.4102  0.0907  0.5607
26625SOL    HW286737   2.394   3.945   6.119  1.5784 -1.0752 -0.8181
26626SOL     OW86738  12.368   1.402   9.742 -0.2822  0.1043  0.1104
26626SOL    HW186739  12.291   1.353   9.774 -0.2100  1.1113  1.9895
26626SOL    HW286740  12.443   1.353   9.777 -0.1466  0.3765  0.2002
26627SOL     OW86741   9.179  10.854   7.930 -0.1309  0.5524  0.4938
26627SOL    HW186742   9.246  10.857   7.999 -0.9513 -0.7873  1.4094
26627SOL    HW286743   9.228  10.860   7.848  1.0005  0.7266  1.1617
26628SOL     OW86744   1.454   9.610   0.003  0.2118  0.2108 -0.1762
26628SOL    HW186745   1.430   9.691   0.048  0.0727 -0.5029  1.0749
26628SOL    HW286746   1.426   9.624  -0.087  0.9852  1.8850 -0.1912
26629SOL     OW86747   3.748   2.998   0.329  0.0267 -0.7907 -1.1320
26629SOL    HW186748   3.820   3.023   0.386  3.1640 -1.8357 -4.2214
26629SOL    HW286749   3.754   3.058   0.255 -1.9955 -1.2515 -1.7404
26630SOL     OW86750   2.387   6.328   8.926  0.3925  0.2871  0.1927
26630SOL    HW186751   2.310   6.336   8.983  1.0473  0.8883  1.0073
26630SOL    HW286752   2.439   6.406   8.944  1.6365 -0.5428  0.3194
26631SOL     OW86753   8.627   2.902   1.777  0.2821  0.0726 -0.9722
26631SOL    HW186754   8.568   2.829   1.759 -0.9358  1.3954 -2.7411
26631SOL    HW286755   8.701   2.863   1.822 -2.4707 -1.5155  2.6583
26632SOL     OW86756   3.377  11.248   2.844  0.0816  0.0972  0.0697
26632SOL    HW186757   3.417  11.188   2.907 -0.7010  0.1354  0.6169
26632SOL    HW286758   3.299  11.202   2.813 -0.3747  0.7204  0.2864
26633SOL     OW86759   0.902   8.384   7.914 -0.1065  0.0192  0.1438
26633SOL    HW186760   0.901   8.372   7.819  0.2481  0.3007  0.1037
26633SOL    HW286761   0.969   8.450   7.930  1.8913 -2.0677  0.8378
26634SOL     OW86762   6.159   2.003   8.301  0.6677  0.2244 -0.2154
26634SOL    HW186763   6.110   1.997   8.219 -0.4669  0.4227  0.4208
26634SOL    HW286764   6.101   2.052   8.360  1.8785  0.9871  0.3979
26635SOL     OW86765   6.035   6.873   8.632  0.5668  0.0243 -0.4253
26635SOL    HW186766   6.122   6.849   8.666  0.2688  1.1261  1.2267
26635SOL    HW286767   5.976   6.852   8.704 -0.4378  0.1488 -1.2045
26636SOL     OW86768  11.084  11.397   2.762  0.6206  0.5060  0.1071
26636SOL    HW186769  11.143  11.455   2.714 -0.1933  1.0292 -0.2704
26636SOL    HW286770  11.000  11.405   2.717  0.5954 -1.3109 -0.2210
26637SOL     OW86771  10.595  10.015   9.530 -0.1835  0.3154 -0.2655
26637SOL    HW186772  10.541  10.085   9.567  0.1963  1.4860 -1.8174
26637SOL    HW286773  10.546   9.985   9.453  0.0942 -0.5052 -0.1288
26638SOL     OW86774  11.082   2.992   0.701  0.6459  0.7579 -0.2512
26638SOL    HW186775  11.143   3.025   0.635  0.1639  0.1803 -1.0066
26638SOL    HW286776  11.137   2.974   0.777  1.7619 -1.2443 -1.4194
26639SOL     OW86777   0.767  12.050   3.699  0.2911 -0.7692 -0.4002
26639SOL    HW186778   0.692  11.992   3.712 -0.3323  0.4349  1.8460
26639SOL    HW286779   0.837  12.011   3.752  0.5899 -0.7095 -0.7437
26640SOL     OW86780  10.927   1.897   1.434 -0.3431 -0.1136 -0.3514
26640SOL    HW186781  10.872   1.975   1.421  0.8822  0.9139  0.3565
26640SOL    HW286782  11.016   1.929   1.420  0.1599 -1.5009 -0.4185
26641SOL     OW86783  11.554   1.826   7.586  0.2733 -0.5201  0.6531
26641SOL    HW186784  11.577   1.757   7.523  1.0371  0.0472  0.2935
26641SOL    HW286785  11.458   1.831   7.582  0.0754 -2.4678  1.6682
26642SOL     OW86786   5.112  11.523   9.978  0.3757 -0.6267 -0.1595
26642SOL    HW186787   5.100  11.598   9.920 -2.1740 -0.7354  0.1186
26642SOL    HW286788   5.136  11.562  10.062 -1.0098 -0.0664  0.0027
26643SOL     OW86789  10.216   4.599   4.926 -0.0803  0.4128 -0.2576
26643SOL    HW186790  10.186   4.530   4.866 -3.4116  2.1975 -0.8383
26643SOL    HW286791  10.143   4.613   4.985  1.5504  1.6646  1.5730
26644SOL     OW86792  11.323   8.444   7.971 -0.6305 -0.6713  0.6160
26644SOL    HW186793  11.359   8.357   7.955  0.4147  0.0089 -1.0738
26644SOL    HW286794  11.339   8.492   7.889 -0.3535  1.3835  1.8090
26645SOL     OW86795  11.733   3.000   3.756 -0.6622  0.5087 -0.2655
26645SOL    HW186796  11.757   2.961   3.672 -0.6825 -1.5957  0.6346
26645SOL    HW286797  11.802   2.972   3.816 -0.2630  2.5729  0.3148
26646SOL     OW86798   7.785  10.316   5.461 -0.6554 -0.2794  0.4892
26646SOL    HW186799   7.829  10.318   5.546  1.7668 -1.8298 -0.6323
26646SOL    HW286800   7.762  10.408   5.444  0.4636  0.3149  1.9802
26647SOL     OW86801   4.034   4.142  12.402  0.4739  0.6247 -0.3126
26647SOL    HW186802   4.081   4.158  12.483 -0.0750  1.0504 -0.0721
26647SOL    HW286803   3.955   4.094  12.428  0.5386  0.3250 -0.6534
26648SOL     OW86804   1.230  10.210   1.829  0.4178 -0.1730  0.3428
26648SOL    HW186805   1.204  10.221   1.738  1.0723  1.6421  0.3317
26648SOL    HW286806   1.203  10.121   1.852  0.1454 -0.6170 -1.5779
26649SOL     OW86807   6.314   7.938   8.923 -0.1689  0.1541 -0.2599
26649SOL    HW186808   6.364   7.974   8.850 -1.3199  0.5896 -0.8512
26649SOL    HW286809   6.240   7.996   8.933 -1.1446 -1.0741 -0.0978
26650SOL     OW86810  11.638   8.437   9.594  0.0327 -0.4930  0.6422
26650SOL    HW186811  11.571   8.371   9.571  0.3899 -0.6136 -0.0956
26650SOL    HW286812  11.716   8.408   9.547  0.4215  0.0108  0.9763
26651SOL     OW86813   0.917   7.881   7.325 -0.2404 -0.3203 -0.1407
26651SOL    HW186814   0.941   7.790   7.307 -0.4165 -0.1191 -1.5085
26651SOL    HW286815   0.858   7.905   7.254 -1.0966  0.5291  0.8168
26652SOL     OW86816   9.734   6.356   0.399  0.1823 -0.0438 -0.0881
26652SOL    HW186817   9.692   6.294   0.458  1.1772 -0.6939 -0.0306
26652SOL    HW286818   9.674   6.364   0.325 -0.6238  0.0352  0.5564
26653SOL     OW86819  11.752   3.975   7.713 -0.7373  0.5293 -0.5794
26653SOL    HW186820  11.781   3.909   7.775 -0.8851  1.0626  0.0682
26653SOL    HW286821  11.786   3.946   7.628 -1.9139 -1.0849 -0.5409
26654SOL     OW86822  10.689   3.717   8.039  0.3567  0.0981 -0.1512
26654SOL    HW186823  10.709   3.640   8.092 -0.9652 -0.3961 -0.3339
26654SOL    HW286824  10.643   3.776   8.099  1.5506  0.8705  0.0477
26655SOL     OW86825   9.942   0.099   1.743 -0.5120 -0.3382  0.1433
26655SOL    HW186826   9.905   0.187   1.735 -1.8027 -0.8551  0.1511
26655SOL    HW286827   9.974   0.094   1.833  0.3126  0.3832 -0.0976
26656SOL     OW86828   2.662   5.964   7.998 -0.2347 -0.1763 -0.1397
26656SOL    HW186829   2.666   5.925   7.911 -0.2263 -1.0948  0.2500
26656SOL    HW286830   2.754   5.971   8.025 -0.2565 -2.3762  0.8083
26657SOL     OW86831   7.528   2.657   2.877  0.2072  0.2818 -0.1172
26657SOL    HW186832   7.506   2.697   2.793  1.1001  1.0564 -0.0037
26657SOL    HW286833   7.618   2.627   2.867 -0.4096 -1.6660 -0.1572
26658SOL     OW86834   2.232   7.214   0.816  0.2955  0.1365 -0.2789
26658SOL    HW186835   2.299   7.281   0.828  0.2807  0.1857 -0.4730
26658SOL    HW286836   2.281   7.133   0.805  0.2953 -0.1136  1.3212
26659SOL     OW86837   9.479   1.424   5.440  0.1972  0.0332  0.1426
26659SOL    HW186838   9.566   1.450   5.469  0.9234  0.4196 -2.1900
26659SOL    HW286839   9.442   1.503   5.400 -1.1484 -0.1905  0.8917
26660SOL     OW86840   5.048  11.309   3.579 -0.2739 -0.0726  0.0169
26660SOL    HW186841   5.018  11.388   3.624  0.0725  2.3574 -3.6413
26660SOL    HW286842   4.968  11.262   3.556 -0.6484  0.6931 -0.2520
26661SOL     OW86843   4.493  11.175   0.687  0.4378 -0.1978  0.3166
26661SOL    HW186844   4.507  11.268   0.702  1.3420 -0.2070 -0.3995
26661SOL    HW286845   4.501  11.136   0.774  0.5915  0.3342  0.5459
26662SOL     OW86846  11.606   2.266   9.563 -0.0028 -0.3172  0.3498
26662SOL    HW186847  11.680   2.235   9.615  0.8436  0.8506 -0.1361
26662SOL    HW286848  11.576   2.344   9.609  0.8548  0.8248 -0.9561
26663SOL     OW86849   3.495   6.970   6.323  0.2192  0.1736  0.1356
26663SOL    HW186850   3.497   6.953   6.417 -0.6954  0.0878  0.1481
26663SOL    HW286851   3.564   6.914   6.287  1.2153  0.9244  0.8585
26664SOL     OW86852   0.480   0.458   0.266 -0.2097 -0.6136  0.5013
26664SOL    HW186853   0.426   0.393   0.310  2.1894 -1.6830  2.0850
26664SOL    HW286854   0.503   0.521   0.335  0.2457  0.0300 -0.2179
26665SOL     OW86855   7.620   0.013   0.293 -0.2880  0.4855 -0.6558
26665SOL    HW186856   7.706  -0.023   0.270 -0.3785 -1.9136  2.1274
26665SOL    HW286857   7.634   0.107   0.299  2.5488  0.0766  0.9643
26666SOL     OW86858   5.156   2.744   8.016  0.3020  0.2774  0.1429
26666SOL    HW186859   5.158   2.770   7.923  1.3546 -1.1042 -0.2458
26666SOL    HW286860   5.168   2.649   8.015  1.3253  0.3516  1.7350
26667SOL     OW86861   4.546   8.858   1.860 -1.1360  0.4562 -0.4931
26667SOL    HW186862   4.587   8.939   1.891 -0.5534 -0.1634  0.4142
26667SOL    HW286863   4.524   8.875   1.769 -2.5970  2.2257  0.1368
26668SOL     OW86864   9.428   8.585   4.065  0.2772 -0.1918  0.3369
26668SOL    HW186865   9.370   8.538   4.125 -0.7546  0.9340  0.2596
26668SOL    HW286866   9.507   8.601   4.116 -0.0243 -0.5023  0.9193
26669SOL     OW86867   2.949   6.452   7.680 -0.3538  0.0161  0.0370
26669SOL    HW186868   2.881   6.445   7.613  0.4531 -0.3460 -0.7639
26669SOL    HW286869   2.916   6.401   7.754 -1.7628  1.3414  0.3625
26670SOL     OW86870   7.372   1.840   7.383  0.6618 -0.0614 -0.1730
26670SOL    HW186871   7.333   1.753   7.391 -0.7394  0.4467 -1.0344
26670SOL    HW286872   7.426   1.851   7.461  0.5822 -1.5600  0.1046
26671SOL     OW86873   4.462   1.333   4.664 -0.2371 -0.0155 -0.1405
26671SOL    HW186874   4.433   1.246   4.637 -0.3136 -0.7777  2.2062
26671SOL    HW286875   4.456   1.386   4.584  1.9287 -2.6306 -2.2140
26672SOL     OW86876   8.008  10.822   5.172 -0.1959 -0.2575 -0.7411
26672SOL    HW186877   8.045  10.781   5.093  1.0720  0.5437 -0.6106
26672SOL    HW286878   7.935  10.766   5.197  0.4244 -1.4667 -1.5240
26673SOL     OW86879   7.293   1.704   8.903 -0.4438  0.1241  0.1567
26673SOL    HW186880   7.340   1.741   8.977 -0.5462 -1.4712  1.0671
26673SOL    HW286881   7.337   1.620   8.886 -2.5971 -1.1959  0.7223
26674SOL     OW86882   6.167   2.874  12.408 -0.0389 -0.2024  0.1018
26674SOL    HW186883   6.150   2.914  12.493 -2.1945 -0.3558 -0.2242
26674SOL    HW286884   6.141   2.783  12.418  1.6378 -0.7486 -0.1608
26675SOL     OW86885   1.509   5.933   7.477 -0.4520  0.3547 -0.5174
26675SOL    HW186886   1.481   6.007   7.423 -1.4809 -0.8150 -1.6344
26675SOL    HW286887   1.471   5.950   7.563 -0.3647  1.2885 -0.6469
26676SOL     OW86888   8.422   7.194   5.805  0.0903 -0.2863  0.0122
26676SOL    HW186889   8.406   7.100   5.813  0.7925 -0.4256 -0.1896
26676SOL    HW286890   8.384   7.231   5.885 -0.2391 -0.7306  0.0695
26677SOL     OW86891   9.816   5.344   0.407  0.2845  0.1395 -0.5387
26677SOL    HW186892   9.898   5.363   0.361 -1.2549  0.4886 -3.3719
26677SOL    HW286893   9.819   5.250   0.426  1.0848  0.0374 -1.1581
26678SOL     OW86894   6.795  10.899   5.308 -0.4187  0.2431  0.0445
26678SOL    HW186895   6.790  10.882   5.402  0.4945 -0.9707 -0.0950
26678SOL    HW286896   6.790  10.812   5.267  0.8062  0.6003 -0.9386
26679SOL     OW86897  11.050  10.320   7.945 -0.4474  0.4700 -0.4726
26679SOL    HW186898  10.965  10.331   7.987  0.7608  3.4646  1.5730
26679SOL    HW286899  11.059  10.397   7.889  1.1250  0.5021 -0.2210
26680SOL     OW86900   2.098   4.833   0.746  0.7958 -0.6482  0.0096
26680SOL    HW186901   2.154   4.908   0.727 -0.2430 -0.2610 -1.6802
26680SOL    HW286902   2.065   4.805   0.661 -0.4061 -1.7898  0.8124
26681SOL     OW86903   7.039   9.451  10.943  0.6927 -0.2192 -0.1627
26681SOL    HW186904   7.063   9.430  11.033 -0.7782  0.4966  0.4401
26681SOL    HW286905   6.975   9.384  10.919 -0.6425  0.8717  0.1783
26682SOL     OW86906   0.825   8.716   7.238 -0.1917 -0.0656  0.6208
26682SOL    HW186907   0.849   8.773   7.165  0.8323 -1.1805  0.0530
26682SOL    HW286908   0.729   8.716   7.239 -0.2071  0.1728 -0.5529
26683SOL     OW86909   2.527   4.825   7.635  0.1883  0.1308  0.2428
26683SOL    HW186910   2.472   4.878   7.693 -1.5389  0.3548 -1.4959
26683SOL    HW286911   2.540   4.743   7.682  1.9731  1.5895  2.5077
26684SOL     OW86912   1.081   8.863  10.748  0.4120 -0.1035 -0.2008
26684SOL    HW186913   1.051   8.905  10.829 -1.0427  2.3808 -1.9274
26684SOL    HW286914   1.004   8.815  10.716  0.3240  0.6370 -1.1374
26685SOL     OW86915   7.655   5.226   8.087 -0.2011 -0.3693 -0.4008
26685SOL    HW186916   7.695   5.191   8.008  0.8416  0.1883 -0.1384
26685SOL    HW286917   7.729   5.256   8.140 -0.9494  0.4069  0.2321
26686SOL     OW86918   0.771   9.465   5.033  0.1301  0.2789 -0.0064
26686SOL    HW186919   0.718   9.440   4.957  0.8577 -3.3011  0.5228
26686SOL    HW286920   0.846   9.511   4.996 -0.4561  0.2763 -1.2540
26687SOL     OW86921   1.527   8.757   6.617  0.1997 -0.3796  0.1875
26687SOL    HW186922   1.545   8.709   6.698 -0.6874  1.0089  1.2639
26687SOL    HW286923   1.458   8.706   6.574 -0.3675 -0.3702  1.0562
26688SOL     OW86924   3.814   4.933   0.609  0.0785 -0.0221  0.0118
26688SOL    HW186925   3.720   4.942   0.622  0.3869  1.5830  1.5029
26688SOL    HW286926   3.846   4.893   0.690  0.7137 -0.2763 -0.3585
26689SOL     OW86927   2.682   3.609  12.158  0.0646 -0.0436  0.3402
26689SOL    HW186928   2.725   3.632  12.241 -0.4705 -0.8721  0.8589
26689SOL    HW286929   2.720   3.670  12.095 -0.8861  1.8991  1.5302
26690SOL     OW86930   1.677   2.662   1.244  0.1871  0.1587 -0.4532
26690SOL    HW186931   1.649   2.688   1.156 -1.7730 -0.1882  0.0234
26690SOL    HW286932   1.638   2.576   1.257 -0.3129  0.5819  1.0765
26691SOL     OW86933   2.858   3.378   4.308 -0.1107  0.2615 -0.0823
26691SOL    HW186934   2.794   3.450   4.309  0.9795  1.2727 -0.6369
26691SOL    HW286935   2.831   3.321   4.380  0.1463  2.2831  1.7178
26692SOL     OW86936  11.780   3.467   5.741 -0.4428  0.2076 -0.0980
26692SOL    HW186937  11.728   3.547   5.756  1.4571  1.8684 -1.7711
26692SOL    HW286938  11.755   3.438   5.654 -0.7315 -0.7647  0.2968
26693SOL     OW86939  12.058   6.823  11.552 -0.2232  0.0710 -0.2287
26693SOL    HW186940  12.130   6.846  11.611 -0.8914  0.0543  0.6133
26693SOL    HW286941  12.008   6.904  11.544  0.4736  0.3803 -1.6765
26694SOL     OW86942   8.281   4.475   1.803  0.7604 -0.2475 -0.2981
26694SOL    HW186943   8.271   4.402   1.742  2.1452 -0.1251 -0.6921
26694SOL    HW286944   8.273   4.434   1.890  0.5312 -0.7026 -0.5302
26695SOL     OW86945   1.590   6.848   6.045 -0.2602  0.2157  0.2401
26695SOL    HW186946   1.546   6.787   5.987  0.6111  0.3851 -0.6240
26695SOL    HW286947   1.521   6.908   6.074 -1.5007 -2.0523  2.4176
26696SOL     OW86948  10.757  12.384   5.884  0.2664 -0.0702 -0.4252
26696SOL    HW186949  10.761  12.338   5.968 -0.6836 -0.1199 -0.4013
26696SOL    HW286950  10.666  12.375   5.855  0.5867 -0.1088 -1.4949
26697SOL     OW86951   6.018   7.603   7.624 -0.0175 -0.7304  0.2285
26697SOL    HW186952   6.012   7.691   7.661 -0.0551 -1.1386  1.2174
26697SOL    HW286953   5.934   7.562   7.644  0.3241 -1.2844  0.5492
26698SOL     OW86954   2.674  10.450   8.741 -1.2038 -0.3654 -0.7249
26698SOL    HW186955   2.747  10.449   8.803 -0.5829  3.3006 -1.1977
26698SOL    HW286956   2.596  10.434   8.794 -0.2809 -2.6656  0.0423
26699SOL     OW86957   7.807   1.411   4.802  0.3412 -0.2937 -0.2271
26699SOL    HW186958   7.820   1.378   4.712  1.3048  0.9392 -0.5763
26699SOL    HW286959   7.725   1.372   4.830 -0.6139  0.2303 -2.1017
26700SOL     OW86960   1.401  10.327  10.417 -1.0610  0.1941  0.5821
26700SOL    HW186961   1.317  10.283  10.426 -1.4519  1.0630  1.4477
26700SOL    HW286962   1.421  10.359  10.506  0.3119 -0.2187  0.4536
26701SOL     OW86963  10.054   5.022   6.879 -0.5286 -0.5486 -0.2345
26701SOL    HW186964   9.980   5.044   6.936  0.8189  0.5491  1.1783
26701SOL    HW286965  10.056   5.093   6.814  0.4163  0.5188  0.9131
26702SOL     OW86966   6.627  12.043   0.742 -0.1409 -0.1547  0.1312
26702SOL    HW186967   6.547  12.046   0.689  0.5833 -2.2672 -1.2289
26702SOL    HW286968   6.614  11.968   0.800  0.7742 -0.3977  0.0319
26703SOL     OW86969   9.300   5.159   8.256  0.2457 -0.3981  0.0519
26703SOL    HW186970   9.373   5.150   8.194  0.1376 -1.3958  0.0660
26703SOL    HW286971   9.261   5.244   8.234  0.5054 -0.5244 -0.9312
26704SOL     OW86972   4.184   3.205   3.470 -0.3953 -0.3336  0.0354
26704SOL    HW186973   4.197   3.171   3.381 -1.8794 -0.3593 -0.1968
26704SOL    HW286974   4.251   3.162   3.522 -0.4091 -1.4235 -0.8064
26705SOL     OW86975   1.551   5.176   8.447  0.1125  0.3776  0.6309
26705SOL    HW186976   1.637   5.175   8.489  0.6262  1.7958 -0.3266
26705SOL    HW286977   1.551   5.097   8.392  0.2217 -0.3989  1.7224
26706SOL     OW86978   7.913   8.887  10.911 -0.3699  0.1869 -0.5827
26706SOL    HW186979   7.879   8.805  10.947  0.7621  0.0369  0.2172
26706SOL    HW286980   8.008   8.881  10.923 -0.3529  2.3178  1.1000
26707SOL     OW86981   2.806   9.326   8.428 -0.4092 -0.0568  0.2509
26707SOL    HW186982   2.874   9.343   8.362  0.2816 -1.2055  0.6435
26707SOL    HW286983   2.734   9.385   8.404  0.2501  0.3111 -0.8898
26708SOL     OW86984   9.872   9.694   2.049 -0.3684 -0.1159 -0.1755
26708SOL    HW186985   9.895   9.696   1.956 -1.1210 -0.3644 -0.3756
26708SOL    HW286986   9.859   9.786   2.072  0.3206 -0.0131 -0.1845
26709SOL     OW86987   8.098   7.210   0.803  0.9897 -0.2324 -0.4358
26709SOL    HW186988   8.152   7.283   0.773 -0.5295  0.5557 -1.4108
26709SOL    HW286989   8.106   7.143   0.735 -0.5087  0.5598 -1.4514
26710SOL     OW86990   9.480   9.860   5.266  0.4767 -0.7993 -0.7106
26710SOL    HW186991   9.509   9.892   5.352  0.6160  0.7290 -1.2940
26710SOL    HW286992   9.559   9.863   5.212  0.0257 -0.0906 -1.3424
26711SOL     OW86993   1.727  10.916   1.574 -0.3284 -0.1775 -0.2260
26711SOL    HW186994   1.745  11.007   1.593  4.1801 -1.0297  0.5359
26711SOL    HW286995   1.749  10.906   1.481 -1.4368 -0.4052 -0.4784
26712SOL     OW86996  11.407  12.454   5.327  0.6895  0.2763 -0.5377
26712SOL    HW186997  11.421  12.389   5.258  0.8649  0.4198 -0.6369
26712SOL    HW286998  11.403  12.538   5.280 -0.2803  0.2683 -0.4949
26713SOL     OW86999   8.622   2.115   0.815 -0.7585  0.2737 -0.0709
26713SOL    HW187000   8.678   2.090   0.742  0.3036 -0.5939  1.0048
26713SOL    HW287001   8.659   2.070   0.891 -2.6944 -0.0168  0.7600
26714SOL     OW87002  11.741  12.139   9.547 -0.3054 -0.2400  0.0986
26714SOL    HW187003  11.733  12.065   9.607  0.0912 -0.5153 -0.1796
26714SOL    HW287004  11.801  12.199   9.591  0.0054 -0.4533 -0.0250
26715SOL     OW87005   9.801   0.918   4.839 -0.6364  0.3341  0.2056
26715SOL    HW187006   9.771   0.928   4.749  1.5459 -1.6767 -0.8691
26715SOL    HW287007   9.768   0.831   4.865 -1.4884  1.0106  1.5013
26716SOL     OW87008   4.788  10.454   3.326  0.4876  0.2219 -0.1487
26716SOL    HW187009   4.732  10.429   3.400  0.0997  1.0193 -0.1665
26716SOL    HW287010   4.827  10.371   3.297 -0.7728 -0.3754 -0.2188
26717SOL     OW87011   5.135  11.583   9.605  0.2422 -0.0636  0.2169
26717SOL    HW187012   5.141  11.621   9.692  0.9687  0.2006  0.0569
26717SOL    HW287013   5.044  11.552   9.598 -0.2071  1.1122  0.5677
26718SOL     OW87014   3.256   8.030  12.088 -1.0012 -0.3904 -0.1678
26718SOL    HW187015   3.213   8.111  12.117 -3.2820 -2.1566  1.8270
26718SOL    HW287016   3.296   8.053  12.005 -1.6877  2.7401  0.2153
26719SOL     OW87017   1.746   8.512   9.251  0.0654 -0.3984  0.2949
26719SOL    HW187018   1.835   8.486   9.226  0.3639  1.4907 -0.8340
26719SOL    HW287019   1.759   8.563   9.331  0.1872  0.9546 -0.5611
26720SOL     OW87020   0.779   2.284   0.444 -0.2961 -0.0805  0.2614
26720SOL    HW187021   0.793   2.318   0.355  1.4488  1.0275  0.9085
26720SOL    HW287022   0.785   2.361   0.500  0.2021 -0.9720  1.4739
26721SOL     OW87023   5.990   0.297   3.379  0.0745  0.2270  0.3667
26721SOL    HW187024   5.985   0.392   3.389 -1.2583  0.2053  0.1713
26721SOL    HW287025   5.952   0.262   3.460  0.1905 -0.1231  0.2715
26722SOL     OW87026   0.148   9.207   4.828  0.8835  0.3241 -0.1770
26722SOL    HW187027   0.154   9.297   4.797  2.3665  1.3184  2.6712
26722SOL    HW287028   0.098   9.162   4.760 -0.5938  3.4275 -1.3575
26723SOL     OW87029   8.067   2.299   1.878  0.2241  0.3911  0.3128
26723SOL    HW187030   7.983   2.327   1.842 -0.2140  0.8455  1.6181
26723SOL    HW287031   8.093   2.224   1.825 -0.2431  1.1964 -1.1023
26724SOL     OW87032   4.890   2.111   0.590  0.0028 -0.0494  0.1489
26724SOL    HW187033   4.846   2.167   0.526  2.5252 -0.3513 -2.0398
26724SOL    HW287034   4.844   2.027   0.583 -0.0464  0.0570 -0.9301
26725SOL     OW87035  10.142  10.074   7.684 -0.0704  0.7252 -0.2700
26725SOL    HW187036  10.048  10.079   7.697  0.2041  1.4622  1.7314
26725SOL    HW287037  10.163   9.980   7.690 -0.7759  0.4503 -1.7753
26726SOL     OW87038   4.791   3.274   9.969 -0.4762  0.0665 -0.4989
26726SOL    HW187039   4.719   3.335   9.956 -1.5523 -1.2935 -1.1908
26726SOL    HW287040   4.794   3.261  10.064  0.5710  2.0682 -0.2117
26727SOL     OW87041   2.530   9.267   8.992  0.5921  0.4430 -0.3353
26727SOL    HW187042   2.524   9.348   8.942  0.0641 -0.4943 -1.8684
26727SOL    HW287043   2.450   9.266   9.045 -0.9893 -0.4684 -2.5900
26728SOL     OW87044   6.747   0.237  11.762  0.1730  0.5008 -1.0145
26728SOL    HW187045   6.802   0.293  11.706  0.0410  1.4082 -0.2639
26728SOL    HW287046   6.673   0.293  11.787 -0.2745 -0.2062 -0.7284
26729SOL     OW87047   7.785  10.168   1.901 -0.6484 -0.9799  0.2151
26729SOL    HW187048   7.719  10.236   1.886 -1.1018 -1.8325 -1.9266
26729SOL    HW287049   7.743  10.107   1.961 -1.5281 -1.1117 -0.5190
26730SOL     OW87050  11.257   2.144  11.303  0.2960  0.0164  0.2071
26730SOL    HW187051  11.325   2.195  11.260  0.4835  0.0471  0.5419
26730SOL    HW287052  11.249   2.183  11.390  0.8097 -0.8650  0.6535
26731SOL     OW87053   9.479   7.905   3.013 -0.5323 -0.2561 -0.2947
26731SOL    HW187054   9.437   7.966   3.073  0.6579 -0.6171  0.9617
26731SOL    HW287055   9.502   7.830   3.068 -2.1185 -1.9690 -1.8196
26732SOL     OW87056   0.837  10.285   3.401  0.7242  0.2001 -0.0441
26732SOL    HW187057   0.770  10.243   3.346  0.5772  1.4213 -0.8495
26732SOL    HW287058   0.877  10.213   3.450 -2.0947 -0.4759  1.5213
26733SOL     OW87059   5.516   6.636  10.136  0.5455 -0.2621  0.2434
26733SOL    HW187060   5.445   6.696  10.114 -0.4320 -1.5130 -0.1365
26733SOL    HW287061   5.472   6.561  10.176  1.8443 -0.2429  1.8040
26734SOL     OW87062   2.819   6.035   1.376  0.0835  0.0859  0.7430
26734SOL    HW187063   2.862   6.068   1.297  2.5088 -0.5094  1.7500
26734SOL    HW287064   2.770   6.111   1.409  1.0350  1.0604  0.0007
26735SOL     OW87065   5.242  11.309  12.079  0.4669 -0.3204  0.0304
26735SOL    HW187066   5.305  11.295  12.008  0.9577  2.3055 -0.1580
26735SOL    HW287067   5.157  11.317  12.034  0.8459  1.8686 -0.4140
26736SOL     OW87068   6.310   7.576   0.533 -0.1884  0.0176 -0.7108
26736SOL    HW187069   6.232   7.572   0.588  0.2457  0.7379 -0.0198
26736SOL    HW287070   6.285   7.531   0.453  0.1964 -4.0748  1.2278
26737SOL     OW87071   9.748   4.118  12.061 -0.3887  0.3099 -0.4809
26737SOL    HW187072   9.780   4.190  12.007 -1.8845  0.9408 -0.5663
26737SOL    HW287073   9.730   4.158  12.146 -0.6256 -0.1032 -0.3354
26738SOL     OW87074   5.841  12.466   3.784 -0.0215  0.3206 -0.2754
26738SOL    HW187075   5.912  12.473   3.847 -0.3814  0.0998  0.1659
26738SOL    HW287076   5.838  12.373   3.762 -1.2763  0.0173  1.0306
26739SOL     OW87077  12.366  10.486   9.481 -0.5442  0.2885 -0.3293
26739SOL    HW187078  12.353  10.573   9.520  0.8155  1.0307 -1.4203
26739SOL    HW287079  12.437  10.499   9.418 -0.3571 -1.6203 -0.5614
26740SOL     OW87080   5.699   8.867   7.199 -0.4537  0.3287 -0.0700
26740SOL    HW187081   5.781   8.861   7.247 -0.7584 -1.1083  0.3190
26740SOL    HW287082   5.685   8.961   7.187  0.0236  0.7140  1.9584
26741SOL     OW87083   4.916   8.524   9.082  0.5554  0.0877 -0.4086
26741SOL    HW187084   4.871   8.487   9.006 -0.2813  0.9913 -0.3703
26741SOL    HW287085   4.977   8.455   9.109  0.1664 -0.6315 -1.2968
26742SOL     OW87086   7.855   2.125  12.454  0.6566  0.1375  0.2388
26742SOL    HW187087   7.938   2.170  12.437  0.5620  0.3242  0.2818
26742SOL    HW287088   7.791   2.171  12.400  0.7764 -0.6871 -0.6482
26743SOL     OW87089   5.781   3.570   5.653  0.0656  0.1594 -0.2714
26743SOL    HW187090   5.764   3.578   5.559 -0.8542 -1.1355 -0.2478
26743SOL    HW287091   5.766   3.478   5.672  1.6799  0.0819  0.8933
26744SOL     OW87092  10.368   6.413   3.473 -0.4851 -0.1384  0.3059
26744SOL    HW187093  10.350   6.457   3.390 -1.0576 -3.8486 -1.7696
26744SOL    HW287094  10.460   6.432   3.490 -0.2092  0.3178 -1.4690
26745SOL     OW87095   3.685   8.937   5.050  0.0521 -0.3502 -0.1394
26745SOL    HW187096   3.685   9.009   5.112  0.3830 -1.4865  1.2169
26745SOL    HW287097   3.667   8.859   5.103  0.4081 -1.3634 -1.4540
26746SOL     OW87098   2.323   5.401   6.273  0.1302  0.1089  0.7857
26746SOL    HW187099   2.298   5.338   6.341  1.3096 -2.0151 -0.6413
26746SOL    HW287100   2.399   5.446   6.308  0.1112 -0.2430  1.2852
26747SOL     OW87101  11.877   2.744   1.781 -0.5402  0.3752  0.2271
26747SOL    HW187102  11.835   2.666   1.746 -1.3745  1.2127 -0.6984
26747SOL    HW287103  11.809   2.812   1.777  0.7324  1.6516 -0.8817
26748SOL     OW87104  12.004   2.375   8.521 -0.0513  0.3389 -0.1434
26748SOL    HW187105  12.045   2.334   8.445  0.1900 -1.0887  0.7066
26748SOL    HW287106  12.056   2.344   8.595 -0.9171  0.8522  0.7009
26749SOL     OW87107   1.643   0.037   1.865 -0.1504  0.2161  0.2742
26749SOL    HW187108   1.685   0.119   1.839  0.8306 -0.4737 -0.4293
26749SOL    HW287109   1.689   0.010   1.944  2.4710 -1.6786 -1.6912
26750SOL     OW87110  10.435   2.006   6.774 -0.1671 -0.7069  0.2261
26750SOL    HW187111  10.504   2.011   6.708  0.3431  2.8789  0.8148
26750SOL    HW287112  10.369   2.069   6.745 -0.7405 -0.3009  2.2246
26751SOL     OW87113   6.496   9.233   1.841 -0.1131  0.0779 -0.2211
26751SOL    HW187114   6.428   9.172   1.870 -0.6538 -0.1341 -1.8345
26751SOL    HW287115   6.448   9.311   1.813  0.6406  1.9715  3.1809
26752SOL     OW87116   1.658   4.355   1.689 -0.2417  0.0234  0.5917
26752SOL    HW187117   1.668   4.360   1.594  2.0005  1.3798  0.8246
26752SOL    HW287118   1.722   4.290   1.716  2.1840  2.5777  1.4435
26753SOL     OW87119   0.288  12.031   4.665 -0.2267  0.1877 -0.0903
26753SOL    HW187120   0.232  12.086   4.719  0.5203 -0.5123  1.4717
26753SOL    HW287121   0.240  12.021   4.582 -2.0424  0.2055  0.9130
26754SOL     OW87122   4.629   5.460   3.638 -0.1061  0.0687  0.7875
26754SOL    HW187123   4.561   5.406   3.598 -0.7651  0.1037  1.8455
26754SOL    HW287124   4.630   5.540   3.585  0.5220 -0.7275 -0.4689
26755SOL     OW87125   1.784   2.269   3.053 -0.1306 -0.2685  0.0507
26755SOL    HW187126   1.859   2.296   3.000 -1.3835  1.7190 -0.8319
26755SOL    HW287127   1.752   2.189   3.011  0.6879 -0.4096 -0.3347
26756SOL     OW87128   4.664   7.337   1.610  0.2270 -0.4320 -0.5112
26756SOL    HW187129   4.752   7.370   1.592 -0.2602  0.7727 -0.8110
26756SOL    HW287130   4.606   7.405   1.577 -0.7934 -0.3165  1.3752
26757SOL     OW87131   1.527   2.694  10.526 -0.9687 -0.1187 -0.1575
26757SOL    HW187132   1.513   2.668  10.435 -2.3623  0.7826 -0.2425
26757SOL    HW287133   1.479   2.628  10.577 -0.9484 -0.1165 -0.1362
26758SOL     OW87134  11.147   4.123  11.409 -0.0282  0.0674  0.2885
26758SOL    HW187135  11.175   4.098  11.497 -0.1358  1.9907  0.9163
26758SOL    HW287136  11.109   4.210  11.420 -1.0626 -0.1204 -1.4953
26759SOL     OW87137   6.613   3.699  10.962 -0.1134 -0.1656 -0.5514
26759SOL    HW187138   6.553   3.771  10.944  0.7961  1.2039  1.4725
26759SOL    HW287139   6.578   3.657  11.041  1.4001  0.5695  0.5849
26760SOL     OW87140   1.744   4.928  10.909  0.2381  0.5077  0.2166
26760SOL    HW187141   1.652   4.917  10.885  0.3321  0.3344 -0.0682
26760SOL    HW287142   1.762   5.020  10.892  0.4480  0.2821 -0.9185
26761SOL     OW87143   6.452  11.733   1.311 -0.5444 -0.1222  0.3741
26761SOL    HW187144   6.370  11.688   1.294 -1.0447  1.3321 -1.3462
26761SOL    HW287145   6.502  11.724   1.230 -0.1037  1.2322  0.4693
26762SOL     OW87146   5.946   6.736   3.359  1.0670 -0.0676  0.1189
26762SOL    HW187147   5.884   6.808   3.364  0.5758 -0.5106  0.4302
26762SOL    HW287148   5.949   6.714   3.265  1.8790  0.9145 -0.1052
26763SOL     OW87149   2.943   4.967   2.811 -0.4781  0.1601 -0.5280
26763SOL    HW187150   2.874   5.001   2.868 -1.9629 -0.8150 -1.6768
26763SOL    HW287151   2.950   5.033   2.741 -1.7583 -0.7081 -1.5269
26764SOL     OW87152   6.072   6.716   6.981  0.1925  0.1117  0.3912
26764SOL    HW187153   6.110   6.724   6.893  0.3117 -2.2172  0.1793
26764SOL    HW287154   5.978   6.723   6.966  0.1838 -0.7085 -0.0083
26765SOL     OW87155   3.163   7.784   7.894  0.7234  0.0332  0.0652
26765SOL    HW187156   3.191   7.815   7.807  0.0123  1.4010  0.2891
26765SOL    HW287157   3.109   7.856   7.928  1.5618 -0.1780  1.9441
26766SOL     OW87158  10.362   6.200   3.630  1.1046 -0.0392  0.0699
26766SOL    HW187159  10.347   6.266   3.563  0.4324  0.4472  0.6905
26766SOL    HW287160  10.416   6.243   3.696  0.4223 -0.0041  0.6192
26767SOL     OW87161   0.068   8.870   7.357  0.6180 -0.8097  0.2777
26767SOL    HW187162   0.127   8.943   7.335 -1.0015  0.0244 -1.5644
26767SOL    HW287163   0.127   8.797   7.377  2.2735  0.5889  0.7565
26768SOL     OW87164   7.375   3.105  10.216 -0.4869 -0.3119  0.3941
26768SOL    HW187165   7.378   3.011  10.198 -1.0541  0.0095 -1.6330
26768SOL    HW287166   7.467   3.132  10.217 -0.3480 -0.4911 -1.7335
26769SOL     OW87167   6.044  10.107   4.510  1.0264 -0.2022 -0.0825
26769SOL    HW187168   5.966  10.067   4.550  0.1646  1.1759 -0.3153
26769SOL    HW287169   6.116  10.049   4.535  0.0521 -1.0505  0.8606
26770SOL     OW87170   4.302   2.727   4.221  0.2262  0.2746  0.5818
26770SOL    HW187171   4.222   2.766   4.186 -0.2674 -0.5801  0.7132
26770SOL    HW287172   4.272   2.645   4.262  1.0854  0.2340  1.1536
26771SOL     OW87173   4.924   3.818  11.544  0.7813  0.2649  0.3731
26771SOL    HW187174   4.894   3.733  11.575  1.9079 -0.3066 -0.0471
26771SOL    HW287175   5.019   3.811  11.542  1.0412  2.1944  2.1661
26772SOL     OW87176   8.395  10.686   5.344 -0.8787  0.0343  0.3459
26772SOL    HW187177   8.466  10.634   5.381 -2.0441 -0.6056  1.7874
26772SOL    HW287178   8.362  10.634   5.272 -0.9926 -0.4894  0.7663
26773SOL     OW87179  10.594   9.111   4.974  0.1554 -0.1289  0.2304
26773SOL    HW187180  10.617   9.186   4.918  1.1552 -0.2142  0.5052
26773SOL    HW287181  10.518   9.072   4.931  0.7998 -0.0999 -0.9994
26774SOL     OW87182   6.018   4.212  11.275 -0.2429 -0.3925 -0.5606
26774SOL    HW187183   6.010   4.268  11.198  1.4239 -0.0828 -0.5454
26774SOL    HW287184   6.099   4.240  11.317 -1.9079  0.6094  2.2769
26775SOL     OW87185   3.373   5.779   4.222 -0.2652 -0.0727  0.1030
26775SOL    HW187186   3.413   5.860   4.254 -1.2293  1.2777 -1.8840
26775SOL    HW287187   3.424   5.757   4.144  0.7147 -2.0899  1.2376
26776SOL     OW87188   4.632   9.846   4.541 -0.1691  0.1154 -0.4168
26776SOL    HW187189   4.696   9.886   4.482 -0.3183  0.9543 -0.0120
26776SOL    HW287190   4.680   9.774   4.582 -0.2195 -0.8636 -1.9686
26777SOL     OW87191   4.221   1.779   1.832 -0.2581 -0.2089  0.2412
26777SOL    HW187192   4.160   1.769   1.758 -1.6963 -1.9363  1.5644
26777SOL    HW287193   4.302   1.809   1.792 -1.6030  0.9919 -1.7664
26778SOL     OW87194  10.610   4.512   3.079  0.4810 -0.1094  0.1825
26778SOL    HW187195  10.565   4.440   3.035  2.2717 -2.5209  1.9743
26778SOL    HW287196  10.660   4.555   3.010  0.5510 -1.5847 -0.7238
26779SOL     OW87197   9.878   0.680   7.659  0.0491  0.4836 -0.1553
26779SOL    HW187198   9.972   0.679   7.675 -0.1296 -0.9399  1.0196
26779SOL    HW287199   9.841   0.716   7.740 -0.5679 -1.6653  0.5689
26780SOL     OW87200  11.791   2.410   3.554 -0.5835  0.3226 -0.4551
26780SOL    HW187201  11.875   2.374   3.582 -1.1243 -0.1777  0.5938
26780SOL    HW287202  11.812   2.496   3.517  0.2031  1.0994  1.6151
26781SOL     OW87203   3.070   7.867   4.495  0.6642  0.5808  0.0111
26781SOL    HW187204   2.986   7.897   4.461  0.8223  2.3535  1.0974
26781SOL    HW287205   3.060   7.772   4.503 -1.5976  0.8552  1.0878
26782SOL     OW87206   4.402   5.240   0.334 -0.3758 -0.1629 -0.3792
26782SOL    HW187207   4.417   5.147   0.315  0.1698  0.2199 -1.9504
26782SOL    HW287208   4.310   5.254   0.314 -0.5466 -0.4487  0.2116
26783SOL     OW87209   2.406   0.060   6.133  0.5529 -0.4893 -0.2707
26783SOL    HW187210   2.492   0.032   6.165  0.3467 -1.0623 -0.2077
26783SOL    HW287211   2.417   0.153   6.113  1.1819 -0.5568 -0.2515
26784SOL     OW87212   5.529   0.235   3.679 -0.2992 -0.5336  0.2668
26784SOL    HW187213   5.493   0.291   3.748  0.9190  1.2760 -0.4681
26784SOL    HW287214   5.477   0.155   3.683 -1.4363  0.2288  2.0857
26785SOL     OW87215  10.925   8.765   4.602 -0.2509 -0.2650 -0.3379
26785SOL    HW187216  10.914   8.829   4.673 -0.9767 -0.3135 -0.3972
26785SOL    HW287217  10.856   8.786   4.540  0.8714  0.2725 -1.4292
26786SOL     OW87218   3.802   9.165   0.296 -0.0324  0.1892  0.5345
26786SOL    HW187219   3.850   9.231   0.246  1.6805 -1.7201 -0.4673
26786SOL    HW287220   3.852   9.155   0.377 -1.2185  1.2345  1.4434
26787SOL     OW87221   7.419   2.481  10.849  0.2693  0.3200  1.2805
26787SOL    HW187222   7.348   2.487  10.913 -1.9086 -0.3128 -0.9300
26787SOL    HW287223   7.425   2.569  10.812 -0.0774  0.1365  0.7752
26788SOL     OW87224  11.055   3.216   9.609  0.4324  0.1017 -0.0630
26788SOL    HW187225  11.140   3.180   9.635 -0.2681 -0.6651  1.2336
26788SOL    HW287226  10.995   3.142   9.610 -0.7870  1.0253  1.5451
26789SOL     OW87227  10.204   1.048   3.048 -0.0685  0.0184 -0.4923
26789SOL    HW187228  10.289   1.050   3.004  0.0243  0.5455 -0.3064
26789SOL    HW287229  10.224   1.074   3.138 -0.6391  1.8575 -0.8504
26790SOL     OW87230   4.855  12.227   4.395  0.7547  0.5965  0.1341
26790SOL    HW187231   4.946  12.202   4.410  0.5967 -1.2803 -1.5813
26790SOL    HW287232   4.804  12.155   4.433 -0.0313  1.5785  0.9926
26791SOL     OW87233  11.235  10.657   2.216  0.5073  0.1672 -0.2164
26791SOL    HW187234  11.156  10.619   2.178  0.4148 -0.4290  0.5311
26791SOL    HW287235  11.230  10.750   2.194 -0.9154  0.3279  0.6306
26792SOL     OW87236   9.759   8.547   9.990 -0.0140  0.4057 -0.3467
26792SOL    HW187237   9.715   8.524  10.071 -0.5513 -0.7377 -0.9451
26792SOL    HW287238   9.712   8.500   9.922  0.6106  1.1074 -1.3000
26793SOL     OW87239   0.982   0.657   1.376 -0.4503 -0.2612  0.2273
26793SOL    HW187240   0.933   0.599   1.317 -2.8358  2.4432 -0.6741
26793SOL    HW287241   0.989   0.739   1.327  1.2818  0.7899  2.1153
26794SOL     OW87242  11.311   9.825   2.364  0.6559  0.5549 -0.3578
26794SOL    HW187243  11.336   9.747   2.414  0.1990  0.9379  0.4882
26794SOL    HW287244  11.218   9.837   2.384  0.4299  0.6722 -1.3851
26795SOL     OW87245  11.480   1.382   0.011  0.4104  0.2278 -0.1311
26795SOL    HW187246  11.476   1.360  -0.082 -0.5259  1.7975 -0.4978
26795SOL    HW287247  11.531   1.463   0.014  1.3796 -0.3919  0.8578
26796SOL     OW87248   2.039   2.473   6.937  0.2806 -0.2945 -0.0437
26796SOL    HW187249   2.051   2.436   6.849  0.2748 -0.1173 -0.1201
26796SOL    HW287250   2.072   2.405   6.996  0.7566 -0.2063 -0.2063
26797SOL     OW87251   9.432   8.927   3.133 -0.2136 -0.6234  0.1168
26797SOL    HW187252   9.397   8.856   3.078  0.2435  0.4597 -1.6344
26797SOL    HW287253   9.375   8.927   3.211 -2.0848 -0.9936 -1.1854
26798SOL     OW87254   9.198  12.356   6.031  0.8086 -0.0744 -0.0323
26798SOL    HW187255   9.260  12.401   6.089 -0.2429  0.0075  1.0717
26798SOL    HW287256   9.132  12.320   6.090 -1.7357  2.1535 -1.2988
26799SOL     OW87257   7.108   0.586   0.689 -0.4614 -0.5832 -0.4355
26799SOL    HW187258   7.165   0.613   0.616  0.3490 -0.4792  0.2101
26799SOL    HW287259   7.021   0.580   0.650 -1.0209  4.1049 -0.5055
26800SOL     OW87260  11.991   6.003   4.402 -0.3780 -0.1014 -0.3008
26800SOL    HW187261  12.073   6.003   4.451  0.0677 -3.0182 -0.8537
26800SOL    HW287262  11.999   6.076   4.341  0.8713  0.9558  1.0620
26801SOL     OW87263   9.981   3.382   3.725 -0.0397 -0.4416 -0.0518
26801SOL    HW187264  10.021   3.344   3.804 -0.9530 -2.0660 -0.3270
26801SOL    HW287265  10.015   3.328   3.653  0.3248  0.6566 -0.7167
26802SOL     OW87266   5.069   2.799   2.208 -0.6486  0.3766  0.1894
26802SOL    HW187267   5.112   2.881   2.183 -0.7316  0.4572  0.3115
26802SOL    HW287268   4.999   2.825   2.268 -1.2777  0.3113 -0.5025
26803SOL     OW87269  10.604   5.332   8.266  0.0552 -0.7895  0.1149
26803SOL    HW187270  10.547   5.400   8.303 -0.2828 -1.4531  0.8362
26803SOL    HW287271  10.581   5.331   8.173 -1.0337 -0.9588  0.3655
26804SOL     OW87272   7.389  10.133   8.739 -0.0722 -0.0529 -0.1593
26804SOL    HW187273   7.380  10.091   8.653 -1.4498 -1.1167  0.4647
26804SOL    HW287274   7.396  10.227   8.719 -2.2721 -0.0905 -1.3596
26805SOL     OW87275   3.433   7.855   0.669  0.6046 -0.0809  0.0313
26805SOL    HW187276   3.439   7.935   0.617  0.2217  0.3750  0.6841
26805SOL    HW287277   3.378   7.797   0.616 -0.0178  0.4795  0.0468
26806SOL     OW87278  11.426   6.429  11.380 -0.0937  0.1551  0.5388
26806SOL    HW187279  11.334   6.404  11.384  0.2915 -1.2633  1.2074
26806SOL    HW287280  11.446   6.464  11.467  0.3279 -0.8002  0.8337
26807SOL     OW87281   0.550   9.352   3.394  0.2326  0.1474 -0.0634
26807SOL    HW187282   0.565   9.411   3.320  1.2893 -1.4812 -1.2119
26807SOL    HW287283   0.460   9.322   3.382  0.9239 -1.4698 -1.8063
26808SOL     OW87284   9.058   9.850   0.421  0.1278  0.4464  0.7130
26808SOL    HW187285   9.102   9.766   0.431  0.2953  0.6875  2.3448
26808SOL    HW287286   8.975   9.839   0.468  0.3008  1.2821  1.2400
26809SOL     OW87287  11.956   5.491  10.244 -0.5593  0.1201  0.2704
26809SOL    HW187288  11.887   5.468  10.182 -0.4424 -0.6601  0.4230
26809SOL    HW287289  12.005   5.560  10.200 -0.0759 -0.8813 -0.8061
26810SOL     OW87290   1.475   2.616   5.555  0.2083 -0.3928 -0.1679
26810SOL    HW187291   1.553   2.671   5.564 -0.7297  0.9882 -0.2361
26810SOL    HW287292   1.502   2.531   5.592  1.2418  0.5273  1.3344
26811SOL     OW87293   9.584   0.012   9.899 -0.2296 -0.0702  0.5193
26811SOL    HW187294   9.569  -0.040   9.978 -2.3143  0.0244  0.2585
26811SOL    HW287295   9.648  -0.038   9.849 -1.2058 -1.7512  0.8663
26812SOL     OW87296   1.600   1.670   1.877 -0.4413 -0.5799 -0.2022
26812SOL    HW187297   1.677   1.621   1.848  0.1303 -0.1735  0.5844
26812SOL    HW287298   1.563   1.615   1.947  0.1237  0.0398  0.5900
26813SOL     OW87299  10.232   0.918   3.944  0.3116 -0.0271  0.2946
26813SOL    HW187300  10.292   0.885   4.011  1.0432 -1.4688 -1.0063
26813SOL    HW287301  10.287   0.975   3.889 -0.0142  0.2558  0.2575
26814SOL     OW87302  10.471   0.811   7.437  0.0985  0.1090 -0.3428
26814SOL    HW187303  10.435   0.752   7.371 -0.9920 -0.8199  1.0327
26814SOL    HW287304  10.513   0.753   7.501  2.0011  1.0394 -0.6720
26815SOL     OW87305   5.040   7.667   0.940 -0.1764 -0.5828 -0.2895
26815SOL    HW187306   4.976   7.698   1.004 -0.4816 -2.7541  0.5432
26815SOL    HW287307   4.999   7.683   0.855 -1.1003 -0.4397  0.1739
26816SOL     OW87308  12.434   8.391   2.426  0.2313  0.1903 -0.1474
26816SOL    HW187309  12.476   8.308   2.446  0.5634  0.8628  2.2607
26816SOL    HW287310  12.380   8.410   2.503 -0.2017  1.9691 -0.8437
26817SOL     OW87311   6.159   7.237   3.863  0.1051  0.0179 -0.2181
26817SOL    HW187312   6.084   7.280   3.821 -0.2620  0.0515  0.4532
26817SOL    HW287313   6.232   7.298   3.849 -0.5945  1.3371  1.4747
26818SOL     OW87314   7.219   9.367   6.468 -0.6623 -0.1912 -0.0090
26818SOL    HW187315   7.161   9.303   6.427  0.1070 -1.6409  1.0832
26818SOL    HW287316   7.277   9.396   6.397 -0.5259 -1.2830 -0.3628
26819SOL     OW87317   3.472   2.699   8.684 -0.2231 -0.1471  0.4350
26819SOL    HW187318   3.460   2.760   8.757  1.1476 -0.6986  1.1480
26819SOL    HW287319   3.516   2.749   8.617 -1.3603  0.3225  0.0067
26820SOL     OW87320  11.900   7.297   4.179 -0.4640 -0.2199  0.0173
26820SOL    HW187321  11.919   7.286   4.086 -0.6335 -0.4019  0.0017
26820SOL    HW287322  11.833   7.366   4.182  1.6199  1.9024  0.2147
26821SOL     OW87323   3.667   5.840   5.279 -0.2337 -0.6253 -0.2272
26821SOL    HW187324   3.653   5.777   5.349  1.8374 -0.9612 -0.0583
26821SOL    HW287325   3.761   5.857   5.280 -0.1224 -0.6270 -2.8954
26822SOL     OW87326   2.008  10.919   9.417  0.3512  0.2203 -0.0813
26822SOL    HW187327   1.976  10.845   9.365 -0.3185  0.1887  0.3598
26822SOL    HW287328   1.941  10.932   9.484  0.7841  0.8104  0.2478
26823SOL     OW87329   6.269  10.739   8.573  0.2425 -0.0359 -0.1975
26823SOL    HW187330   6.229  10.825   8.588  0.9749  0.1710  0.6091
26823SOL    HW287331   6.236  10.684   8.644 -0.2900 -0.4519 -0.7594
26824SOL     OW87332   7.863   9.516   8.960  0.4478  0.1571 -0.1256
26824SOL    HW187333   7.845   9.430   8.997 -2.8241  1.0329  0.6074
26824SOL    HW287334   7.951   9.537   8.991  1.2360 -2.7495 -0.1045
26825SOL     OW87335   8.592  10.387   2.320  0.1711 -0.5382  0.0354
26825SOL    HW187336   8.519  10.367   2.379 -0.4424  0.6714 -0.2903
26825SOL    HW287337   8.570  10.341   2.239 -1.8842  2.2293 -1.1491
26826SOL     OW87338   1.793   1.921   9.374 -0.2529  0.3800 -0.1368
26826SOL    HW187339   1.738   1.977   9.428 -1.6490 -1.0245 -0.0323
26826SOL    HW287340   1.840   1.867   9.437 -1.5111 -0.9172 -0.2645
26827SOL     OW87341   3.284  10.145   1.216 -0.0813 -0.4654 -0.4096
26827SOL    HW187342   3.305  10.156   1.123 -0.9539 -1.0985 -0.6954
26827SOL    HW287343   3.320  10.223   1.258  3.2551 -1.6760 -0.7403
26828SOL     OW87344   9.094   4.644   6.144  0.6978  0.5768 -0.5539
26828SOL    HW187345   9.186   4.624   6.129  1.0251  1.5336  0.0804
26828SOL    HW287346   9.076   4.614   6.233  0.7117  1.4055 -0.2598
26829SOL     OW87347  11.809   9.487   1.497 -0.3387 -0.3073 -0.0180
26829SOL    HW187348  11.856   9.570   1.495 -0.5773 -0.1555  0.3901
26829SOL    HW287349  11.718   9.512   1.514 -0.8385 -0.4871 -2.1499
26830SOL     OW87350   8.546   1.210   8.331  0.2930 -0.0580  0.1318
26830SOL    HW187351   8.581   1.295   8.306  0.6953 -0.5283 -0.9794
26830SOL    HW287352   8.615   1.148   8.306  0.7143 -0.6012  2.3994
26831SOL     OW87353   8.369   6.524   8.691 -0.2216 -0.0636 -0.1458
26831SOL    HW187354   8.334   6.588   8.629 -1.0114 -0.6257 -0.3008
26831SOL    HW287355   8.315   6.446   8.678  1.4137 -1.1523 -0.7263
26832SOL     OW87356   1.150   7.784  11.148 -0.3046  0.5918 -0.3018
26832SOL    HW187357   1.116   7.824  11.068  0.3811 -0.2324 -1.0295
26832SOL    HW287358   1.239   7.756  11.124 -0.5037 -0.7091  0.3969
26833SOL     OW87359   9.724   7.534   5.145 -0.1470  0.0863  0.2221
26833SOL    HW187360   9.770   7.450   5.142 -1.3621 -0.5899 -1.3643
26833SOL    HW287361   9.751   7.579   5.065  1.1209  1.6053  1.4599
26834SOL     OW87362   1.635  10.105   5.920  0.2347 -0.6212  0.2660
26834SOL    HW187363   1.690  10.181   5.939 -1.5036  0.4317  1.2801
26834SOL    HW287364   1.673  10.068   5.840  2.4979 -0.0683  1.0092
26835SOL     OW87365  11.578  11.078  11.620 -0.2111  0.3739  0.2970
26835SOL    HW187366  11.658  11.106  11.576 -1.7857 -0.1371 -3.3029
26835SOL    HW287367  11.535  11.160  11.645  0.2840  0.7574 -0.0867
26836SOL     OW87368  10.559   5.352   2.421  0.3864  0.4348 -0.0973
26836SOL    HW187369  10.579   5.445   2.409 -0.9783  0.8898  0.8428
26836SOL    HW287370  10.623   5.322   2.486  0.2488  0.9579  0.2846
26837SOL     OW87371   3.887   6.152   8.564  0.0963 -0.1951  0.4260
26837SOL    HW187372   3.907   6.245   8.574  0.9124 -0.1997 -0.9668
26837SOL    HW287373   3.849   6.127   8.648 -2.0574  1.8479  0.1906
26838SOL     OW87374   3.723   0.294   2.728 -0.3027  0.3285 -0.1098
26838SOL    HW187375   3.797   0.352   2.712  0.3750 -0.8625 -1.6178
26838SOL    HW287376   3.646   0.351   2.727  0.3736  1.2511 -1.1510
26839SOL     OW87377  11.892   0.381   5.452 -0.0444  0.6432  0.4490
26839SOL    HW187378  11.887   0.292   5.417  0.2556  1.3361 -1.4908
26839SOL    HW287379  11.807   0.395   5.493  0.0002 -0.6187  1.0271
26840SOL     OW87380   3.458   5.254   8.565  0.3985 -0.0768 -0.0431
26840SOL    HW187381   3.414   5.194   8.504 -0.5697 -0.2391  0.7984
26840SOL    HW287382   3.551   5.242   8.547  0.2081 -1.5380 -0.1675
26841SOL     OW87383  12.169   5.202   9.484  0.3811  0.3359  0.1580
26841SOL    HW187384  12.248   5.232   9.440 -1.6279  0.6098 -3.6788
26841SOL    HW287385  12.151   5.270   9.550  2.2012  1.3218 -0.2941
26842SOL     OW87386  11.297  11.181  11.707 -0.0153  0.5310 -0.1443
26842SOL    HW187387  11.262  11.224  11.785  1.0169 -0.8167  1.1278
26842SOL    HW287388  11.320  11.093  11.736 -0.4940 -0.3420 -2.2412
26843SOL     OW87389   7.015   8.059   9.302 -0.0225 -0.4973 -0.3198
26843SOL    HW187390   7.066   8.047   9.382 -0.7197 -0.1848  0.1785
26843SOL    HW287391   6.924   8.045   9.329 -0.5647  2.3788 -0.4254
26844SOL     OW87392   7.947   7.073   3.910  0.2793  0.0866  0.5895
26844SOL    HW187393   7.912   7.105   3.827 -0.3256 -2.2376 -0.1487
26844SOL    HW287394   8.037   7.103   3.911 -0.3158  2.0597  0.1986
26845SOL     OW87395   9.328   9.583   1.643 -0.2640  0.0246  0.1714
26845SOL    HW187396   9.274   9.623   1.711  1.2242  1.9894  0.2951
26845SOL    HW287397   9.372   9.657   1.601  1.9604 -1.4183 -0.2069
26846SOL     OW87398   1.284   7.151  11.568 -0.1983 -0.3163 -0.6275
26846SOL    HW187399   1.294   7.102  11.650  0.2303 -0.7600 -0.9351
26846SOL    HW287400   1.224   7.222  11.589 -0.5584 -0.7752 -0.0790
26847SOL     OW87401   8.369   8.437   0.631  0.5276  0.1055 -0.3092
26847SOL    HW187402   8.288   8.469   0.669  1.1068 -0.0573  1.1285
26847SOL    HW287403   8.398   8.508   0.573  0.1075  0.7847  0.2947
26848SOL     OW87404   0.806   9.650   6.994 -0.7405 -0.2037 -0.2285
26848SOL    HW187405   0.753   9.692   6.926 -0.7780 -1.2413 -0.8520
26848SOL    HW287406   0.863   9.720   7.026 -1.1315  0.4415 -0.9067
26849SOL     OW87407   8.118   2.260  10.265  0.6052 -0.1654  0.0918
26849SOL    HW187408   8.145   2.249  10.173 -1.4335 -1.5928 -0.4109
26849SOL    HW287409   8.074   2.178  10.286 -0.5961  0.8632  1.7675
26850SOL     OW87410   2.414   2.188  11.547  0.3250  0.0082 -0.0206
26850SOL    HW187411   2.331   2.218  11.585  0.8953  1.3907  0.2086
26850SOL    HW287412   2.391   2.109  11.498 -0.9298 -0.2476  0.9145
26851SOL     OW87413   3.217  11.953  10.757 -0.4947  0.2342  0.1461
26851SOL    HW187414   3.186  12.034  10.799 -0.8916 -0.3892  1.0797
26851SOL    HW287415   3.222  11.976  10.664  0.1431  1.5640  0.4801
26852SOL     OW87416   0.994   4.541   3.781  0.0470 -0.1027  0.0039
26852SOL    HW187417   0.932   4.486   3.830  1.3747  0.4644  2.4612
26852SOL    HW287418   1.076   4.534   3.830  1.5895  0.2919 -2.3641
26853SOL     OW87419   6.562   1.900   7.334 -0.4766 -0.1218  0.3421
26853SOL    HW187420   6.528   1.897   7.424  1.2119  2.3167  1.1557
26853SOL    HW287421   6.563   1.993   7.312  1.3142 -0.4744 -1.3379
26854SOL     OW87422  10.137   7.077   9.043  0.2995 -0.4017 -0.1758
26854SOL    HW187423  10.210   7.034   8.998  0.1198 -1.4709  0.5163
26854SOL    HW287424  10.169   7.164   9.065  1.5297 -1.0102  0.5060
26855SOL     OW87425   2.939   0.047   6.898 -0.4130 -0.4494 -0.5781
26855SOL    HW187426   2.945  -0.014   6.971  0.5325  0.6228  0.2621
26855SOL    HW287427   3.000   0.118   6.919 -0.3760  0.0704 -2.2317
26856SOL     OW87428  11.899  11.396   0.345 -0.0604  0.0214  0.3525
26856SOL    HW187429  11.977  11.365   0.391 -1.3005  0.6515  3.0858
26856SOL    HW287430  11.926  11.477   0.302  1.0927 -0.4469  0.1722
26857SOL     OW87431   0.643   6.059  12.067  0.0026  0.2974  0.3947
26857SOL    HW187432   0.648   6.110  12.148  1.9664  1.7496 -0.5443
26857SOL    HW287433   0.627   5.969  12.096 -0.5089  0.9489  2.3060
26858SOL     OW87434  11.023   3.145   5.955 -0.1813 -0.3126  0.1702
26858SOL    HW187435  11.090   3.213   5.938 -0.1583 -0.2246  0.5975
26858SOL    HW287436  11.063   3.064   5.923  0.3851 -0.3625  0.9744
26859SOL     OW87437   0.986   0.073  12.015  0.0718 -0.6524  0.5624
26859SOL    HW187438   0.961  -0.003  12.068  0.3956 -0.3986  1.0978
26859SOL    HW287439   0.991   0.041  11.926  0.5841 -1.3573  0.8358
26860SOL     OW87440   4.995   7.264   4.740  0.1545  0.1472  0.0330
26860SOL    HW187441   4.965   7.232   4.825 -2.7586  1.2162 -0.4405
26860SOL    HW287442   5.066   7.324   4.760  0.5491 -0.7796  1.5557
26861SOL     OW87443  10.061   9.603   2.377 -0.2440 -0.1932  0.0696
26861SOL    HW187444  10.033   9.524   2.331 -1.1867  1.0800 -1.7088
26861SOL    HW287445  10.105   9.655   2.310 -1.9204  1.8743  0.4516
26862SOL     OW87446   4.253  12.312  12.158  0.0777 -0.3082  0.1936
26862SOL    HW187447   4.199  12.237  12.132  1.9474 -1.1776 -1.4942
26862SOL    HW287448   4.197  12.388  12.144 -1.6343 -1.3082  1.2824
26863SOL     OW87449   9.415   2.768   5.848 -0.3551 -0.4969  0.2987
26863SOL    HW187450   9.323   2.791   5.848 -0.5582 -1.2172  1.5741
26863SOL    HW287451   9.417   2.675   5.873  0.6858 -0.6380 -0.2133
26864SOL     OW87452   5.550   8.437   7.185  0.4577  0.2105 -0.0088
26864SOL    HW187453   5.481   8.502   7.171  1.3998  1.0961 -0.7212
26864SOL    HW287454   5.614   8.455   7.116  0.6552 -1.6304 -0.3759
26865SOL     OW87455   2.539   5.822   8.725 -0.4143 -0.3543  0.7507
26865SOL    HW187456   2.631   5.845   8.711 -0.4142 -0.7731  0.0194
26865SOL    HW287457   2.526   5.829   8.819  0.2304  0.2224  0.8004
26866SOL     OW87458   1.906   0.622   2.306 -0.3609  0.2968  0.1782
26866SOL    HW187459   1.928   0.532   2.283 -1.4367 -0.6516  2.5454
26866SOL    HW287460   1.812   0.628   2.291 -0.8500  0.0462  2.7734
26867SOL     OW87461  10.735   5.895   4.279 -0.6020 -0.1724  0.1383
26867SOL    HW187462  10.693   5.977   4.303 -0.5898  0.1274 -0.8199
26867SOL    HW287463  10.673   5.827   4.306 -1.9372  0.2749 -1.6635
26868SOL     OW87464   1.338   1.257   3.422  0.3447  0.0222  0.0370
26868SOL    HW187465   1.243   1.263   3.410  0.4638 -0.0270 -1.0217
26868SOL    HW287466   1.354   1.166   3.447  0.0300  0.2631  1.1651
26869SOL     OW87467   9.992  11.229   5.241  0.2512 -0.0506  0.1630
26869SOL    HW187468   9.916  11.285   5.227  1.7298  2.0175  0.1056
26869SOL    HW287469   9.976  11.189   5.327 -1.6069 -0.8986 -0.5286
26870SOL     OW87470   2.035  10.934   1.858 -0.0662  0.3067 -0.6183
26870SOL    HW187471   2.078  10.924   1.943  2.9594  2.4218 -1.7323
26870SOL    HW287472   2.049  10.850   1.814 -1.0912 -0.5773  0.6565
26871SOL     OW87473   3.938   6.172   3.348 -0.0001  0.6380  0.2125
26871SOL    HW187474   4.006   6.236   3.330  1.4297 -0.9777 -0.3856
26871SOL    HW287475   3.945   6.155   3.442 -2.5544  3.6367  1.0997
26872SOL     OW87476  11.445  10.454   9.390  0.3844  0.2318 -0.1316
26872SOL    HW187477  11.467  10.541   9.422 -1.0818  0.3823  0.5228
26872SOL    HW287478  11.506  10.439   9.317  0.6935  1.7676 -0.2158
26873SOL     OW87479   9.070  10.815  12.471  0.1037  0.0862 -0.4330
26873SOL    HW187480   8.979  10.816  12.498 -0.1375 -1.8422 -0.9836
26873SOL    HW287481   9.068  10.836  12.378  0.1165 -0.7454 -0.6290
26874SOL     OW87482  10.138   3.425   7.901  0.2635 -0.1878 -0.0541
26874SOL    HW187483  10.195   3.356   7.868 -0.7844 -0.4669 -1.3559
26874SOL    HW287484  10.103   3.390   7.983 -0.1699 -1.1485 -0.6448
26875SOL     OW87485   8.891   9.076   5.917 -0.1039  0.5383  0.3610
26875SOL    HW187486   8.923   9.103   5.831 -0.1259 -1.7846 -0.4686
26875SOL    HW287487   8.856   8.988   5.902 -0.6353  0.3040  2.6504
26876SOL     OW87488  10.279   7.002   3.521 -0.0489  0.2636  0.0189
26876SOL    HW187489  10.205   7.055   3.551  0.6822 -0.5113  3.6978
26876SOL    HW287490  10.259   6.913   3.553  1.4261 -0.4428 -0.9339
26877SOL     OW87491  11.651   0.856   5.753  0.4092  0.2152  0.0226
26877SOL    HW187492  11.683   0.786   5.697  1.4171  0.4856  0.2484
26877SOL    HW287493  11.592   0.813   5.814 -1.4902  0.0422 -1.8075
26878SOL     OW87494   5.023   1.780   1.875 -0.4755  0.1977 -0.0503
26878SOL    HW187495   4.944   1.825   1.842  0.1752  1.1802 -0.3148
26878SOL    HW287496   5.079   1.771   1.798 -0.0752  0.0411  0.2549
26879SOL     OW87497   3.497  10.561   3.511  0.2308  0.2890  0.2477
26879SOL    HW187498   3.433  10.496   3.484 -0.3915  0.7043  0.7118
26879SOL    HW287499   3.505  10.550   3.606  1.5970 -0.4267  0.0826
26880SOL     OW87500   1.000   9.561   4.135  0.3878  0.0192  0.1793
26880SOL    HW187501   0.985   9.511   4.055  1.7580 -0.9013  0.4526
26880SOL    HW287502   0.953   9.514   4.203 -0.6309  0.7025 -0.0362
26881SOL     OW87503  11.259   5.198   3.836  0.1957  0.2116 -0.0707
26881SOL    HW187504  11.346   5.175   3.803 -0.7654 -2.1590 -1.2099
26881SOL    HW287505  11.210   5.223   3.757 -0.4881  0.2651  0.3636
26882SOL     OW87506   0.976  10.746   7.727 -0.0563  0.2653 -0.0961
26882SOL    HW187507   0.971  10.752   7.822 -1.2261 -0.1469 -0.1103
26882SOL    HW287508   1.067  10.723   7.708  0.3980  1.2131  0.8590
26883SOL     OW87509   8.417   5.483   4.693 -0.0756 -0.3928  0.2675
26883SOL    HW187510   8.366   5.465   4.614  0.4047 -1.0399  0.1005
26883SOL    HW287511   8.427   5.398   4.735  0.3336 -0.1697  0.6252
26884SOL     OW87512   0.265   7.082  10.552  0.0493  0.3149 -0.1349
26884SOL    HW187513   0.177   7.119  10.546 -0.2408 -0.3862 -0.3366
26884SOL    HW287514   0.259   7.016  10.621  0.9231  1.6193  1.2362
26885SOL     OW87515   9.380   8.903   7.771  0.2716 -0.2896 -0.1676
26885SOL    HW187516   9.331   8.921   7.691  0.4802  1.8942  0.1344
26885SOL    HW287517   9.351   8.816   7.798  0.0957 -1.0395 -2.5196
26886SOL     OW87518  12.453   8.583  10.229 -0.0422  0.3424 -0.1048
26886SOL    HW187519  12.450   8.588  10.324 -3.4471  1.2433 -0.1490
26886SOL    HW287520  12.497   8.664  10.203  2.7250 -0.8067  0.6260
26887SOL     OW87521   7.290   8.312   1.305  0.1288  0.2322 -0.2116
26887SOL    HW187522   7.283   8.398   1.347  1.0555  0.2062  0.0212
26887SOL    HW287523   7.322   8.331   1.217  0.2119  0.1416 -0.2015
26888SOL     OW87524   5.465   7.110   8.047  0.9473 -0.4418 -0.1104
26888SOL    HW187525   5.411   7.032   8.032  0.0602  0.2186 -0.4136
26888SOL    HW287526   5.555   7.076   8.052  0.6790 -1.3836 -1.1707
26889SOL     OW87527  12.420   2.036   2.201 -0.2036 -0.0041  0.1544
26889SOL    HW187528  12.370   2.081   2.133 -1.3114  0.1192  1.0113
26889SOL    HW287529  12.376   1.952   2.212  1.7819 -1.3281 -1.3457
26890SOL     OW87530   8.998   0.328   3.987 -0.0908 -0.0391  0.0299
26890SOL    HW187531   8.951   0.344   4.069 -0.3421 -2.9934  0.5829
26890SOL    HW287532   9.079   0.378   3.996 -1.5801  2.5075  0.4934
26891SOL     OW87533   9.442   7.565   0.775 -0.1521 -0.7023  0.3641
26891SOL    HW187534   9.419   7.563   0.868  0.0160 -0.6750  0.4063
26891SOL    HW287535   9.519   7.508   0.769 -1.4392 -2.4663 -0.1111
26892SOL     OW87536   8.308  10.460   5.193  0.3846 -0.2173 -0.3302
26892SOL    HW187537   8.338  10.369   5.195 -1.2124 -0.7599  0.4444
26892SOL    HW287538   8.226  10.458   5.145 -1.2009  0.2729  2.1356
26893SOL     OW87539   8.634   1.638   8.370 -0.3105  0.5833  0.1356
26893SOL    HW187540   8.619   1.555   8.416 -2.3593  1.0412  0.3827
26893SOL    HW287541   8.582   1.702   8.419  1.5199  2.1189  0.1765
26894SOL     OW87542   4.177   8.117  12.402 -0.2890 -0.0829  0.5138
26894SOL    HW187543   4.147   8.031  12.431 -0.2044  0.0400  0.9757
26894SOL    HW287544   4.126   8.135  12.323  0.5285 -1.0738 -0.2676
26895SOL     OW87545   8.663  10.717   4.307  0.1603  0.4021  0.4754
26895SOL    HW187546   8.746  10.675   4.328 -0.3019 -1.2035 -0.7310
26895SOL    HW287547   8.688  10.797   4.260  1.0413 -0.6580 -0.9397
26896SOL     OW87548   7.555  12.128   7.329  0.6089  0.0513 -0.1927
26896SOL    HW187549   7.581  12.212   7.291  0.8007 -0.4055 -1.1066
26896SOL    HW287550   7.526  12.150   7.418 -0.8183  1.3212 -0.9132
26897SOL     OW87551   4.496   4.584   5.874  0.9098  0.5865  0.4772
26897SOL    HW187552   4.566   4.569   5.810  0.1611 -0.0838 -0.2011
26897SOL    HW287553   4.425   4.624   5.824  0.3309  0.0930  0.8927
26898SOL     OW87554   3.518   6.373   6.084 -0.1644 -0.2358 -0.1026
26898SOL    HW187555   3.562   6.425   6.151  0.4135 -1.5503  0.5741
26898SOL    HW287556   3.537   6.419   6.002 -0.4322  1.0951  0.5426
26899SOL     OW87557   3.861   9.765   4.823 -0.0645 -0.3173 -0.3017
26899SOL    HW187558   3.770   9.781   4.795 -0.2266 -0.6464  0.0306
26899SOL    HW287559   3.913   9.783   4.745 -0.4074 -0.0054 -0.4597
26900SOL     OW87560   3.658   7.884   4.631 -0.7804 -0.1844 -0.0899
26900SOL    HW187561   3.676   7.961   4.686  1.9413  1.0562 -2.4520
26900SOL    HW287562   3.712   7.815   4.669  0.3770  0.4077 -0.6070
26901SOL     OW87563   5.874   3.436  11.207  0.5813  0.1440  0.1777
26901SOL    HW187564   5.890   3.344  11.228  0.5008  0.3048  0.9559
26901SOL    HW287565   5.898   3.483  11.286 -2.6256  0.5166  1.0635
26902SOL     OW87566   5.849   4.223  12.020 -0.3993  0.9160  0.3083
26902SOL    HW187567   5.755   4.210  12.004 -0.2567 -1.0106  0.7736
26902SOL    HW287568   5.892   4.158  11.966  0.5979  0.8781  1.1176
26903SOL     OW87569  10.500  11.251   5.520  0.6339  0.0021  0.1456
26903SOL    HW187570  10.531  11.160   5.526 -1.7057 -0.8788  0.0226
26903SOL    HW287571  10.417  11.251   5.568 -0.4234  1.5871 -1.5693
26904SOL     OW87572   3.496   4.728   7.313  0.2948 -0.2219  0.7624
26904SOL    HW187573   3.492   4.820   7.285 -1.4303 -0.6562 -0.5773
26904SOL    HW287574   3.547   4.731   7.394 -0.7915  2.1145  1.4637
26905SOL     OW87575   9.560   0.184   1.084  0.3885 -0.4073  0.3307
26905SOL    HW187576   9.568   0.093   1.111 -1.2620 -0.3267  1.2751
26905SOL    HW287577   9.633   0.199   1.024 -0.0474 -2.7147 -0.8840
26906SOL     OW87578  12.399   9.556   5.709  0.0397 -0.2169  0.3168
26906SOL    HW187579  12.414   9.642   5.748 -0.2623  0.6410 -1.3574
26906SOL    HW287580  12.308   9.536   5.728  0.0385 -0.0437  0.4887
26907SOL     OW87581   8.840   2.587   2.508 -0.2094 -0.4729  0.0688
26907SOL    HW187582   8.836   2.680   2.531  0.5219 -1.0277  2.7815
26907SOL    HW287583   8.754   2.552   2.532  0.1059 -0.8005  0.7740
26908SOL     OW87584   9.583   4.435   5.805 -1.0021 -0.5708 -0.4943
26908SOL    HW187585   9.500   4.393   5.827 -0.4785 -1.2123  0.3339
26908SOL    HW287586   9.637   4.424   5.883 -0.0851 -0.2990 -1.0668
26909SOL     OW87587   3.263   1.721  10.589 -0.0313 -0.2290  0.5144
26909SOL    HW187588   3.301   1.666  10.520  0.1453 -0.5479  0.8611
26909SOL    HW287589   3.336   1.777  10.618 -0.1893  0.1357  0.2187
26910SOL     OW87590  11.232   1.730   7.605  0.3209  0.1918  0.0164
26910SOL    HW187591  11.137   1.727   7.608  0.2771 -0.3075 -1.1139
26910SOL    HW287592  11.252   1.766   7.518  1.1502 -0.7274 -0.1925
26911SOL     OW87593  10.324   5.580   1.534 -0.2608 -0.9054  0.3007
26911SOL    HW187594  10.358   5.495   1.505 -0.3865 -1.1341  0.8179
26911SOL    HW287595  10.393   5.642   1.511 -0.4084 -1.0605 -0.5970
26912SOL     OW87596   1.291   9.072   1.180  0.1857  0.0613 -0.6724
26912SOL    HW187597   1.333   9.016   1.244 -0.8942 -1.0877 -0.9306
26912SOL    HW287598   1.363   9.122   1.140  1.0492 -0.4212  0.2480
26913SOL     OW87599  11.185   7.927  12.012  0.8818 -0.1561 -0.0498
26913SOL    HW187600  11.103   7.878  12.018  0.9192 -0.2561 -0.3300
26913SOL    HW287601  11.176   7.998  12.076 -0.5810  1.5386 -1.9863
26914SOL     OW87602   8.938   0.541  10.187 -0.0620  0.2625  0.2367
26914SOL    HW187603   8.913   0.456  10.223  2.1618 -0.9422 -0.8058
26914SOL    HW287604   8.889   0.605  10.238 -0.5067 -1.5673  2.2281
26915SOL     OW87605   4.357   5.638   6.300  0.3196 -0.1164 -0.2742
26915SOL    HW187606   4.386   5.584   6.226  0.6579  0.3605 -0.4961
26915SOL    HW287607   4.262   5.634   6.296  0.3218 -1.8236  0.5459
26916SOL     OW87608   3.187   8.607   3.998 -0.2582 -0.2394 -0.0351
26916SOL    HW187609   3.276   8.580   3.976 -0.4565 -1.0427  0.1083
26916SOL    HW287610   3.171   8.569   4.085 -1.0875 -0.9629 -0.4839
26917SOL     OW87611   0.567   0.592   9.942  0.2253  0.3918  0.3005
26917SOL    HW187612   0.651   0.566   9.979  0.7940  0.3517 -0.9654
26917SOL    HW287613   0.537   0.514   9.895 -0.6353  0.3367  0.9168
26918SOL     OW87614   1.815   2.870   1.050  0.5066 -0.2647  0.4360
26918SOL    HW187615   1.872   2.854   0.975  2.2677  1.3066  1.3456
26918SOL    HW287616   1.754   2.797   1.051  0.6169 -0.4713 -2.3335
26919SOL     OW87617   9.775  10.211   1.404  0.0931  0.1040  0.0044
26919SOL    HW187618   9.810  10.216   1.493  0.0029 -0.2319  0.0584
26919SOL    HW287619   9.849  10.181   1.351  0.3639  1.0252 -0.1637
26920SOL     OW87620  12.120   0.570  12.369  0.6371 -0.8586  0.5438
26920SOL    HW187621  12.202   0.615  12.387  0.2333  0.3320 -0.4391
26920SOL    HW287622  12.054   0.619  12.418  0.0645  0.2311 -1.2248
26921SOL     OW87623   1.373   7.761   5.478 -0.0047  0.3672  0.1474
26921SOL    HW187624   1.446   7.787   5.422  0.7493 -0.7702  0.5679
26921SOL    HW287625   1.392   7.670   5.501 -1.0461  0.3680  1.0758
26922SOL     OW87626   0.885  10.489  11.414 -0.0972 -0.4076 -0.0101
26922SOL    HW187627   0.859  10.411  11.465  0.0734 -1.0042 -0.8182
26922SOL    HW287628   0.979  10.497  11.430  0.1100 -1.0555 -0.8187
26923SOL     OW87629   3.668   2.175   9.127  0.1149 -0.0409  0.0334
26923SOL    HW187630   3.684   2.267   9.107  2.4789 -0.7849 -1.9847
26923SOL    HW287631   3.601   2.147   9.065 -3.5295  1.0731  3.1038
26924SOL     OW87632   0.202   5.375   0.930  0.0757  0.2428 -0.1405
26924SOL    HW187633   0.282   5.322   0.929  1.5069  2.2331  0.6849
26924SOL    HW287634   0.143   5.328   0.989 -0.1253 -2.1678 -2.0827
26925SOL     OW87635   0.997   6.574  10.905 -0.0657 -0.3853  0.0077
26925SOL    HW187636   1.067   6.621  10.950  1.3482 -2.1875 -0.2027
26925SOL    HW287637   1.018   6.584  10.812 -2.2004  2.1417 -0.3508
26926SOL     OW87638   5.098   6.184   6.411 -0.0196  0.1032  0.3575
26926SOL    HW187639   5.177   6.208   6.458  0.3502 -1.3012  0.5140
26926SOL    HW287640   5.027   6.192   6.475  0.2930 -0.5068  0.7924
26927SOL     OW87641   7.959   9.599   1.378 -0.1194 -0.5351 -0.2643
26927SOL    HW187642   7.898   9.670   1.398  0.3719 -0.1195 -0.2443
26927SOL    HW287643   7.985   9.614   1.287  1.2755  0.2891  0.2439
26928SOL     OW87644   4.264   1.824   7.121 -0.2539  0.0673 -0.6290
26928SOL    HW187645   4.325   1.757   7.089  0.6960  0.5417  0.1439
26928SOL    HW287646   4.254   1.805   7.214  1.2679  1.9126 -0.0376
26929SOL     OW87647   3.491  11.863   4.352  0.1637  0.4102 -0.2532
26929SOL    HW187648   3.512  11.936   4.293  0.6831 -0.1719 -0.8126
26929SOL    HW287649   3.514  11.784   4.301 -0.3716 -0.1391  0.3417
26930SOL     OW87650  11.477   7.374   0.781  0.0904 -0.0283  0.3420
26930SOL    HW187651  11.431   7.371   0.697  0.7627  0.9674 -0.0736
26930SOL    HW287652  11.413   7.342   0.844 -0.5481 -0.4411 -0.4926
26931SOL     OW87653   3.177   0.951   8.530  0.5543  0.4715  0.5097
26931SOL    HW187654   3.220   0.866   8.538  1.2026  0.7906  0.4668
26931SOL    HW287655   3.240   1.013   8.566 -0.7601  0.7163  2.6198
26932SOL     OW87656   1.825  11.298   6.871 -0.3321  0.0421  0.4952
26932SOL    HW187657   1.853  11.382   6.834 -1.6888  0.6046  0.6711
26932SOL    HW287658   1.753  11.271   6.815 -0.9433 -0.2052  1.3872
26933SOL     OW87659   3.384   9.796  10.694 -0.1402  0.2668  1.0499
26933SOL    HW187660   3.374   9.792  10.599  0.4729  0.4468  0.9714
26933SOL    HW287661   3.437   9.720  10.716  2.3048  1.7914  0.8536
26934SOL     OW87662   4.397   9.744   0.809 -1.2465 -0.0567 -0.1778
26934SOL    HW187663   4.474   9.724   0.757 -0.6621 -0.3489  0.7647
26934SOL    HW287664   4.327   9.691   0.771 -1.4049  1.3907 -2.0334
26935SOL     OW87665   3.651   8.886   9.186 -0.2734 -0.3993 -0.1943
26935SOL    HW187666   3.632   8.843   9.270 -2.3787 -1.9084 -1.3451
26935SOL    HW287667   3.739   8.854   9.163 -0.7002 -2.0388  0.2742
26936SOL     OW87668   6.298   0.015   0.737  0.1679  0.0697 -0.3383
26936SOL    HW187669   6.286  -0.033   0.819 -2.3426 -0.9383 -1.1918
26936SOL    HW287670   6.255   0.099   0.751 -0.4472 -0.1832 -0.6519
26937SOL     OW87671   0.018   6.196   0.029  0.2250  0.3067 -0.1133
26937SOL    HW187672  -0.039   6.254   0.080 -2.2850  0.0200 -2.3568
26937SOL    HW287673   0.070   6.255  -0.026  0.3253  0.5062  0.1909
26938SOL     OW87674  11.204  11.193   6.309 -0.2268  0.7864  0.9840
26938SOL    HW187675  11.161  11.218   6.227 -1.2453  3.0896  2.1345
26938SOL    HW287676  11.266  11.264   6.326  1.6295 -0.7958  1.0995
26939SOL     OW87677   5.819   2.363   9.472 -0.0704 -0.4652  0.1215
26939SOL    HW187678   5.871   2.436   9.506  0.8066 -1.1035  0.2028
26939SOL    HW287679   5.851   2.287   9.520 -0.8837 -0.9301 -0.0518
26940SOL     OW87680   8.737  12.161   0.905 -0.1071  0.1827 -0.3649
26940SOL    HW187681   8.736  12.138   0.998 -1.8519  0.4184 -0.2940
26940SOL    HW287682   8.809  12.223   0.897  0.8778 -0.7786  0.5673
26941SOL     OW87683   5.401   1.427  11.907  0.4236  0.4507  0.5819
26941SOL    HW187684   5.390   1.379  11.989  0.2335 -0.0123  0.2895
26941SOL    HW287685   5.473   1.488  11.925  1.6285 -0.9026  0.5387
26942SOL     OW87686   4.710   5.478  11.138 -0.0434 -0.6271  0.2283
26942SOL    HW187687   4.656   5.472  11.217 -1.5556 -1.7353 -0.8648
26942SOL    HW287688   4.795   5.508  11.171 -1.5498  2.3184  1.8812
26943SOL     OW87689   0.113   4.712   8.240 -0.5096  0.1248  0.3645
26943SOL    HW187690   0.104   4.807   8.230 -2.1926  0.0171  0.5472
26943SOL    HW287691   0.154   4.684   8.159  2.3541  1.2550  1.3163
26944SOL     OW87692  11.540   5.991  10.343 -0.3384  0.4805 -0.3120
26944SOL    HW187693  11.565   5.906  10.308 -0.2289  0.3758  0.0237
26944SOL    HW287694  11.490   5.971  10.422  1.7537  0.7667  1.1572
26945SOL     OW87695  10.402   4.395  10.589 -0.3411  0.7823 -0.2123
26945SOL    HW187696  10.356   4.313  10.573 -1.5458  1.5104 -0.5696
26945SOL    HW287697  10.472   4.396  10.523 -0.5785  0.2426 -0.4760
26946SOL     OW87698   6.082   9.719   7.878  0.3194  0.2156  0.0692
26946SOL    HW187699   6.015   9.755   7.819  1.2888  0.4380 -0.9265
26946SOL    HW287700   6.076   9.774   7.956  2.1243  3.0329 -1.6153
26947SOL     OW87701   0.789   7.340   4.074 -0.5293  0.3902 -0.3677
26947SOL    HW187702   0.882   7.331   4.052  0.0730 -0.3513  2.1105
26947SOL    HW287703   0.778   7.287   4.153 -2.9340  0.9821 -0.2195
26948SOL     OW87704   4.858  12.196   1.458  0.1998 -0.5714 -0.3372
26948SOL    HW187705   4.851  12.171   1.366  0.6233 -0.1450 -0.4928
26948SOL    HW287706   4.923  12.267   1.459 -0.4550  0.0390  0.1731
26949SOL     OW87707   3.032   6.278   3.633  0.0149 -0.1049  0.0918
26949SOL    HW187708   2.943   6.304   3.608 -0.7333 -1.7494  0.9151
26949SOL    HW287709   3.034   6.287   3.728  0.1382 -1.7817  0.2618
26950SOL     OW87710   3.637   7.657   0.231 -0.2390 -0.2877 -0.2174
26950SOL    HW187711   3.660   7.565   0.215 -0.3617 -0.5651  1.0885
26950SOL    HW287712   3.649   7.669   0.325 -2.9939  0.2465  0.1499
26951SOL     OW87713   9.815  12.014   8.092 -0.0671  0.1235 -0.2864
26951SOL    HW187714   9.760  12.019   8.170 -1.9658 -1.7232 -1.4334
26951SOL    HW287715   9.899  12.051   8.120 -1.6801  2.7089  1.6446
26952SOL     OW87716   2.894   9.309  12.006 -0.4150 -0.2055 -0.8037
26952SOL    HW187717   2.969   9.267  12.049 -0.3782 -0.7984 -1.4253
26952SOL    HW287718   2.933   9.358  11.934 -0.5183  0.4166 -0.4370
26953SOL     OW87719   8.703   9.430  11.920  0.1142  0.3781 -0.2430
26953SOL    HW187720   8.653   9.438  11.838  1.2439  0.0049 -0.9955
26953SOL    HW287721   8.659   9.359  11.967  0.0871 -0.1378 -1.0147
26954SOL     OW87722  11.269   4.858   6.690 -0.1491 -0.1603  0.1155
26954SOL    HW187723  11.339   4.799   6.716 -1.3219 -1.6743 -0.0428
26954SOL    HW287724  11.250   4.836   6.599 -0.2174  0.8834 -0.1425
26955SOL     OW87725   7.091   9.371   2.144 -0.6005  0.4355 -0.0475
26955SOL    HW187726   7.187   9.375   2.145 -0.6182  1.2324 -0.7887
26955SOL    HW287727   7.072   9.282   2.113 -0.0763  0.8161 -1.5600
26956SOL     OW87728   4.592   1.854   4.156  0.1102 -0.2749 -0.0357
26956SOL    HW187729   4.599   1.868   4.062 -1.3765  1.0739  0.0266
26956SOL    HW287730   4.498   1.852   4.174  0.3350  1.6367  1.7049
26957SOL     OW87731   7.060   3.480   0.712  0.4621  0.3924  0.3395
26957SOL    HW187732   7.031   3.495   0.622 -0.4988 -0.4403  0.4919
26957SOL    HW287733   7.065   3.385   0.721  1.3664  0.4792  0.9266
26958SOL     OW87734  12.192  10.948   4.914  0.1491 -0.7724 -0.0129
26958SOL    HW187735  12.192  10.961   4.819 -0.6029 -1.7938 -0.1696
26958SOL    HW287736  12.264  10.887   4.930 -0.7257 -1.8710 -0.1412
26959SOL     OW87737  11.153  11.443   4.907 -0.1309  0.7522 -0.0234
26959SOL    HW187738  11.061  11.466   4.896 -0.0154  1.3553  0.2099
26959SOL    HW287739  11.187  11.507   4.970  1.0277  2.1570 -1.9294
26960SOL     OW87740   9.127   9.752  11.185  0.1005  0.1885 -0.6133
26960SOL    HW187741   9.210   9.732  11.142 -0.0965 -1.0575 -0.4678
26960SOL    HW287742   9.062   9.701  11.137 -0.0114 -1.8979  1.5572
26961SOL     OW87743   7.936   4.971   5.937  0.2423  0.2780  0.3087
26961SOL    HW187744   7.953   5.065   5.945 -0.6765  0.4458  0.4345
26961SOL    HW287745   7.958   4.951   5.846  0.0274  0.7094  0.1565
26962SOL     OW87746   1.830   6.237  10.668  0.3080 -0.4229 -0.3914
26962SOL    HW187747   1.786   6.156  10.641 -0.2600 -1.0124  2.0094
26962SOL    HW287748   1.762   6.288  10.710  1.2478  0.0221  0.6530
26963SOL     OW87749   7.903   3.909   9.567  0.0476  0.3086  0.0532
26963SOL    HW187750   7.972   3.926   9.631 -0.6159  2.3966  0.3009
26963SOL    HW287751   7.916   3.976   9.499 -1.0513  0.0183 -0.4659
26964SOL     OW87752   3.221   1.574   8.558 -0.3134 -0.2067  0.0004
26964SOL    HW187753   3.287   1.508   8.579  0.1762  0.3100  0.1117
26964SOL    HW287754   3.139   1.525   8.551  0.0524 -0.8286  0.0356
26965SOL     OW87755   5.176   4.681   4.177  0.1376 -0.3829  0.7281
26965SOL    HW187756   5.206   4.598   4.216 -0.4311 -2.0197 -2.0814
26965SOL    HW287757   5.081   4.678   4.185  0.0123 -0.7311 -0.6396
26966SOL     OW87758   1.605   3.317   9.962  0.0876 -1.2145  0.0354
26966SOL    HW187759   1.519   3.279   9.944 -0.0229 -0.2813 -1.6257
26966SOL    HW287760   1.658   3.296   9.885  1.1512 -1.1744  0.7281
26967SOL     OW87761  11.763   1.809  11.524  0.7337  0.6163  0.2684
26967SOL    HW187762  11.684   1.861  11.511  0.4374 -0.2686 -2.0499
26967SOL    HW287763  11.762   1.785  11.616 -2.5841 -0.6594  0.0358
26968SOL     OW87764   4.095   0.203   0.281  0.1114  0.0805  0.6244
26968SOL    HW187765   4.051   0.234   0.202 -0.4416 -1.2027  0.4174
26968SOL    HW287766   4.152   0.132   0.251  0.0305 -0.2979  1.3545
26969SOL     OW87767   3.095   5.239  12.270 -0.3250  0.1375 -0.1265
26969SOL    HW187768   3.178   5.202  12.300 -0.9759 -0.9558  0.3862
26969SOL    HW287769   3.121   5.304  12.204  0.8564 -1.8503 -1.7548
26970SOL     OW87770   9.633   7.256   5.316  0.0174 -0.9737 -0.2992
26970SOL    HW187771   9.598   7.168   5.301  1.1034 -1.4352 -0.1757
26970SOL    HW287772   9.718   7.256   5.272 -0.4886  0.4150 -1.3612
26971SOL     OW87773   3.452   6.887   9.104  0.2554  0.2412 -0.2146
26971SOL    HW187774   3.368   6.922   9.132 -0.2017 -0.5200 -0.5975
26971SOL    HW287775   3.430   6.821   9.038  1.1503  0.0415 -0.3310
26972SOL     OW87776  10.080   6.296   4.424  0.3000  0.1082 -0.2183
26972SOL    HW187777  10.032   6.286   4.506  0.1940  1.9178  0.0006
26972SOL    HW287778  10.023   6.352   4.370  0.8285 -0.1939 -1.1161
26973SOL     OW87779   1.737   9.642   3.240  0.1265 -0.5287 -0.4536
26973SOL    HW187780   1.671   9.625   3.307  2.5386 -1.8586  1.7476
26973SOL    HW287781   1.780   9.558   3.227  1.1201  0.2026 -2.1566
26974SOL     OW87782   5.073  11.308   0.527 -0.0023 -0.3071  0.9635
26974SOL    HW187783   5.050  11.252   0.601 -0.2819 -0.1191  1.0221
26974SOL    HW287784   5.053  11.397   0.558 -1.7452 -0.3556  0.0701
26975SOL     OW87785   7.574   6.375   6.917 -0.4512  0.0580  0.1001
26975SOL    HW187786   7.603   6.330   6.837  0.3577  1.7602 -0.6158
26975SOL    HW287787   7.653   6.416   6.952 -1.3092  1.8713  0.0582
26976SOL     OW87788  11.163   2.008  10.103  0.4874 -0.2581 -0.6728
26976SOL    HW187789  11.095   1.952  10.064  1.5004 -1.5088 -0.7141
26976SOL    HW287790  11.127   2.096  10.099 -0.8406 -0.8036 -1.3330
26977SOL     OW87791   9.916  11.549   4.727  0.0810 -0.1909 -0.1304
26977SOL    HW187792   9.908  11.529   4.633 -2.0006 -0.5407  0.0723
26977SOL    HW287793   9.917  11.463   4.769 -1.8899 -0.0493  0.3080
26978SOL     OW87794   8.929   8.945   8.466  0.1576 -0.5085 -0.3011
26978SOL    HW187795   8.911   8.994   8.386 -0.7581  1.6537  1.1532
26978SOL    HW287796   8.858   8.880   8.470 -0.3126 -0.0363 -0.7783
26979SOL     OW87797   2.496  11.105   3.836 -0.1601 -0.1552  0.2562
26979SOL    HW187798   2.575  11.057   3.862  0.0940 -0.0900 -0.3873
26979SOL    HW287799   2.520  11.197   3.849 -0.7439 -0.1825  1.7684
26980SOL     OW87800  11.796   5.738  11.942 -0.2544  0.0078 -0.0855
26980SOL    HW187801  11.807   5.801  11.871  1.9527  0.8835  0.9206
26980SOL    HW287802  11.759   5.789  12.014  2.4133  0.5112  1.0451
26981SOL     OW87803   4.593   8.646   9.944 -0.1523  0.7320  0.6145
26981SOL    HW187804   4.514   8.649   9.999 -1.3647  3.5445 -1.0572
26981SOL    HW287805   4.648   8.717   9.977 -1.1455  2.8487 -1.9265
26982SOL     OW87806  10.891   7.491   2.587  0.0753  0.3574 -0.6317
26982SOL    HW187807  10.838   7.457   2.660  0.4959  1.4686  0.2276
26982SOL    HW287808  10.947   7.557   2.628 -0.6246  1.9929 -2.2032
26983SOL     OW87809   4.819   1.037   7.336 -0.1780  0.0246  0.0187
26983SOL    HW187810   4.753   0.990   7.283 -0.6575  0.5381  0.1495
26983SOL    HW287811   4.900   0.990   7.319 -0.3420  0.1166 -1.1088
26984SOL     OW87812   5.223  10.029   6.755  0.2606  0.1854 -0.2503
26984SOL    HW187813   5.151  10.056   6.811 -0.8443 -2.3074 -0.3618
26984SOL    HW287814   5.189  10.036   6.666  0.1616 -0.8513 -0.3111
26985SOL     OW87815   0.133  11.635   6.185  0.0253  0.2737 -0.3602
26985SOL    HW187816   0.178  11.603   6.107  0.1712  0.3236 -0.2966
26985SOL    HW287817   0.203  11.653   6.247 -0.1185 -0.1732 -0.0663
26986SOL     OW87818   8.799   4.562   0.247  0.5558 -0.2377 -0.4663
26986SOL    HW187819   8.842   4.640   0.282 -0.8801  1.3853 -2.0718
26986SOL    HW287820   8.723   4.549   0.304  1.5810 -1.4110  0.6878
26987SOL     OW87821   2.442  11.307  10.306  0.1569  0.5932 -0.0469
26987SOL    HW187822   2.380  11.264  10.365  0.1691  0.7338  0.0676
26987SOL    HW287823   2.429  11.263  10.222  2.1182 -1.5856  0.6758
26988SOL     OW87824  10.470   2.800   6.777 -0.2425 -0.3411 -0.0064
26988SOL    HW187825  10.499   2.718   6.817  1.3083  0.0389 -0.2814
26988SOL    HW287826  10.406   2.835   6.839  0.3335 -0.9408  0.9619
26989SOL     OW87827   1.099  11.135   4.445 -0.5566  0.8159 -0.4777
26989SOL    HW187828   1.182  11.153   4.403 -0.1645 -1.5066 -0.8571
26989SOL    HW287829   1.039  11.113   4.373  0.0918 -3.0824 -0.0386
26990SOL     OW87830   6.294   8.150   9.412 -0.4675 -0.4994 -0.3962
26990SOL    HW187831   6.342   8.110   9.340  0.0257 -0.7700  0.0705
26990SOL    HW287832   6.277   8.077   9.472  0.7337  0.0151  0.6264
26991SOL     OW87833  10.331   8.125   8.321 -0.3205 -0.0873  0.4880
26991SOL    HW187834  10.384   8.175   8.384  0.3260  0.3291 -0.3554
26991SOL    HW287835  10.340   8.174   8.240 -1.3121 -0.5030  0.1171
26992SOL     OW87836  10.309   0.731   8.806  0.3149 -0.0660 -0.7429
26992SOL    HW187837  10.346   0.649   8.772 -1.9310 -0.7425 -1.8016
26992SOL    HW287838  10.214   0.718   8.799 -0.1520  1.6305  1.5781
26993SOL     OW87839   1.809   9.045   4.097 -0.0561  0.3262  0.1523
26993SOL    HW187840   1.890   9.003   4.067 -0.5805 -1.2863  0.8981
26993SOL    HW287841   1.834   9.087   4.180 -0.0769 -0.5910  0.6366
26994SOL     OW87842   4.990  11.739   0.681  0.1829  0.4408 -0.8160
26994SOL    HW187843   5.075  11.780   0.669  0.0830  0.4526 -1.5336
26994SOL    HW287844   4.929  11.795   0.633 -0.1844  0.2670 -0.5605
26995SOL     OW87845   9.439  11.985   3.177 -0.1309  0.6385 -0.3076
26995SOL    HW187846   9.530  12.015   3.184  0.2202 -0.3632 -0.3672
26995SOL    HW287847   9.389  12.047   3.230  0.1728  2.8812 -2.4526
26996SOL     OW87848   7.159   4.245   7.262  0.1524  0.2187  0.1796
26996SOL    HW187849   7.176   4.298   7.340 -1.2664  0.9708  0.0047
26996SOL    HW287850   7.108   4.171   7.296 -2.6566  1.7957 -0.2995
26997SOL     OW87851   1.352   9.005  10.952 -0.2110 -0.5970 -0.1894
26997SOL    HW187852   1.379   9.012  11.043  0.5081 -1.5156 -0.3218
26997SOL    HW287853   1.326   9.094  10.928  0.3787 -0.1815  0.6654
26998SOL     OW87854   8.820   9.546   7.564  0.2375 -0.2361 -0.2224
26998SOL    HW187855   8.762   9.470   7.562 -0.7059  0.4804 -1.7414
26998SOL    HW287856   8.888   9.526   7.500  0.3370 -0.0755 -0.1683
26999SOL     OW87857  10.920  11.438   6.605 -0.2587 -0.1171  0.6413
26999SOL    HW187858  10.885  11.432   6.694  0.4747 -1.9516  0.8341
26999SOL    HW287859  10.887  11.360   6.560 -0.3587  0.6179 -0.6242
27000SOL     OW87860   5.356   5.105  10.943 -0.0252 -0.6759 -0.0804
27000SOL    HW187861   5.321   5.028  10.987  0.2536 -0.7504  0.0100
27000SOL    HW287862   5.419   5.142  11.005 -0.4475 -0.1480  0.0449
27001SOL     OW87863   2.791   9.665   8.228  0.0846 -0.1891  0.0688
27001SOL    HW187864   2.822   9.577   8.207 -0.9015 -0.9526  1.6552
27001SOL    HW287865   2.859   9.723   8.192  1.5164 -1.6374  0.3026
27002SOL     OW87866   1.181   2.566  11.424 -0.3607  0.0792 -0.0322
27002SOL    HW187867   1.239   2.505  11.379  0.4168 -0.3252  1.4819
27002SOL    HW287868   1.228   2.592  11.503 -2.1200 -0.0731  1.1248
27003SOL     OW87869   5.994   6.103   0.306  0.2531 -0.1271 -0.2792
27003SOL    HW187870   6.052   6.029   0.289  0.5621  0.2665 -0.9710
27003SOL    HW287871   5.911   6.062   0.331  0.6327 -0.6992  0.0917
27004SOL     OW87872   1.356   0.877   3.179 -0.3025 -0.0629 -0.0588
27004SOL    HW187873   1.303   0.954   3.160  0.9209  0.4075 -1.7786
27004SOL    HW287874   1.397   0.855   3.095  1.4941 -0.9478  1.0021
27005SOL     OW87875   7.711   6.067   3.302  0.2487 -0.6415  0.4758
27005SOL    HW187876   7.773   6.137   3.321  1.4220 -1.1660 -1.1498
27005SOL    HW287877   7.736   6.036   3.215 -1.8983 -1.3347  0.0443
27006SOL     OW87878   5.312   6.863   2.184 -0.0793 -0.4503  0.7789
27006SOL    HW187879   5.258   6.881   2.261 -0.4675  1.1107  0.1642
27006SOL    HW287880   5.260   6.892   2.110  0.7544 -0.8848  0.0022
27007SOL     OW87881   3.434   9.482   5.493  0.0647  0.0743 -0.1080
27007SOL    HW187882   3.386   9.560   5.467 -1.1708 -0.4469  0.4857
27007SOL    HW287883   3.387   9.410   5.451 -1.2004 -0.6655  2.3504
27008SOL     OW87884   3.845   1.954   1.871  0.0848  0.2873 -0.2171
27008SOL    HW187885   3.801   1.869   1.882  1.7079 -0.5586  0.0698
27008SOL    HW287886   3.897   1.942   1.791 -1.0644  1.6811 -1.2337
27009SOL     OW87887   1.174   1.511   9.531 -0.2257  0.3424  0.3812
27009SOL    HW187888   1.157   1.577   9.598  1.7208  2.8538 -1.4143
27009SOL    HW287889   1.105   1.523   9.466  0.0841  0.5762  0.0917
27010SOL     OW87890   0.275   3.916   1.823  0.1428  0.1000  0.6009
27010SOL    HW187891   0.280   3.861   1.901 -0.2186  0.4713  0.8920
27010SOL    HW287892   0.252   4.002   1.856  2.0861  0.7905  0.2975
27011SOL     OW87893   6.569   8.923  11.031 -0.0764 -0.7340  0.2579
27011SOL    HW187894   6.579   9.011  10.995  0.3801 -0.3581  1.2424
27011SOL    HW287895   6.655   8.903  11.069 -0.8066 -0.6180  2.1149
27012SOL     OW87896   9.167  11.680   4.891  0.3858 -0.4230  0.3645
27012SOL    HW187897   9.224  11.756   4.898 -1.0026  0.6537  0.4729
27012SOL    HW287898   9.216  11.609   4.932  1.2538  0.6718  1.2951
27013SOL     OW87899   4.925   0.732   6.525 -0.3689  0.2959  0.1450
27013SOL    HW187900   4.833   0.759   6.533 -0.6901 -0.1803 -1.6666
27013SOL    HW287901   4.940   0.678   6.602 -1.2437  1.3276  1.0861
27014SOL     OW87902   9.180   5.475   3.808 -0.1181  0.0218  0.4786
27014SOL    HW187903   9.164   5.382   3.823 -0.0837  0.3273  2.6605
27014SOL    HW287904   9.270   5.479   3.776 -0.7763 -0.8175 -1.6631
27015SOL     OW87905   0.170   1.651   2.837  0.3913 -0.5228 -0.1730
27015SOL    HW187906   0.211   1.626   2.755  1.6642 -2.6953  1.0214
27015SOL    HW287907   0.142   1.568   2.876 -1.9597  0.6081  0.7224
27016SOL     OW87908   4.780  11.150   5.048  0.5198  0.3547 -0.2494
27016SOL    HW187909   4.745  11.170   5.134  0.0747  0.5529 -0.4709
27016SOL    HW287910   4.807  11.235   5.012 -1.1163  0.5531 -1.0812
27017SOL     OW87911   2.358   5.529   7.083  1.0250 -0.6721 -0.4204
27017SOL    HW187912   2.312   5.553   7.003  1.7922  1.6911 -0.2463
27017SOL    HW287913   2.447   5.509   7.055  1.6210  1.2892 -0.1385
27018SOL     OW87914   5.224   5.198   5.259 -0.0520 -0.0191 -0.4815
27018SOL    HW187915   5.167   5.140   5.207 -1.2918  0.2790  0.5089
27018SOL    HW287916   5.254   5.264   5.196  0.9574 -1.3888 -1.5082
27019SOL     OW87917   8.694   6.748  11.665  0.7720 -0.2089 -0.5432
27019SOL    HW187918   8.740   6.763  11.582  0.3445  0.5693 -0.6409
27019SOL    HW287919   8.630   6.818  11.670  0.3781 -0.6128  0.1572
27020SOL     OW87920   3.927   2.467   9.769  0.0015 -0.0116 -0.0180
27020SOL    HW187921   3.866   2.530   9.732  0.3360 -0.1564 -0.8423
27020SOL    HW287922   3.926   2.394   9.708  2.8176  0.9970 -1.4432
27021SOL     OW87923   4.600   2.939  11.645  0.2713 -0.4617 -0.6287
27021SOL    HW187924   4.585   2.957  11.738  1.1322  0.4470 -0.6419
27021SOL    HW287925   4.546   2.863  11.626 -1.4549  0.5266  0.1258
27022SOL     OW87926   4.361   6.652  12.280  0.3496  0.6032 -0.8598
27022SOL    HW187927   4.327   6.631  12.193 -0.0504 -1.5816 -0.2206
27022SOL    HW287928   4.453   6.627  12.277  0.1125 -0.3662 -0.3956
27023SOL     OW87929   9.903   1.532   3.580  0.5411 -0.1623 -0.9937
27023SOL    HW187930   9.865   1.585   3.650 -1.4858 -1.3285 -1.1321
27023SOL    HW287931   9.958   1.593   3.531  0.8095  1.0250  0.7110
27024SOL     OW87932  10.634   2.147   8.324  0.4958  0.8005 -0.1332
27024SOL    HW187933  10.540   2.129   8.329  0.3756  1.1041 -1.0087
27024SOL    HW287934  10.665   2.088   8.256  0.5481  2.1143 -1.2888
27025SOL     OW87935   1.710   5.675   2.872  0.0473 -0.5027 -0.0893
27025SOL    HW187936   1.724   5.599   2.815  2.2410 -0.1623 -0.0931
27025SOL    HW287937   1.796   5.691   2.911 -0.6610  1.2559  0.8344
27026SOL     OW87938  10.724  10.688   5.266  0.4251 -0.1425  0.0728
27026SOL    HW187939  10.718  10.727   5.178  1.5225  0.5830  0.2944
27026SOL    HW287940  10.811  10.648   5.267 -0.2471 -1.6618  0.2470
27027SOL     OW87941   9.112   6.951   8.454  0.0387  0.3971 -0.0458
27027SOL    HW187942   9.121   6.891   8.380 -2.0991 -1.5076  1.1014
27027SOL    HW287943   9.026   6.929   8.492  1.5421  0.3617  3.7578
27028SOL     OW87944  11.005   6.383   1.467  0.1397 -0.3903  0.1824
27028SOL    HW187945  11.072   6.450   1.458 -0.4042  0.1591  0.1502
27028SOL    HW287946  10.950   6.393   1.389 -1.0195  0.3477  1.0724
27029SOL     OW87947   3.988   9.981   4.127  0.0252  0.2820  0.2925
27029SOL    HW187948   3.902   9.989   4.086  0.1022 -1.2425 -0.2090
27029SOL    HW287949   4.015  10.072   4.142 -1.3329  0.8035 -0.2195
27030SOL     OW87950   5.992   8.334  11.425 -0.0989 -0.0743  0.4341
27030SOL    HW187951   5.901   8.313  11.444 -0.2584 -2.2684 -2.3170
27030SOL    HW287952   6.040   8.298  11.500 -1.4075  1.5137  2.1604
27031SOL     OW87953   9.992  10.407   5.543 -0.2530 -0.0967 -0.1892
27031SOL    HW187954  10.026  10.323   5.511 -1.9831 -1.5301  1.5303
27031SOL    HW287955   9.979  10.459   5.463  1.1997 -1.2807 -1.2720
27032SOL     OW87956   0.335   3.658   0.279 -0.2645 -0.7569 -0.0036
27032SOL    HW187957   0.339   3.587   0.215  1.2527 -0.9406  0.2726
27032SOL    HW287958   0.273   3.626   0.345 -0.5193 -1.2958 -0.4896
27033SOL     OW87959  10.254  11.874   1.593  0.2643  0.0810 -0.3563
27033SOL    HW187960  10.172  11.924   1.595  1.0995  1.5438 -0.7924
27033SOL    HW287961  10.323  11.941   1.594  1.4544 -0.9845 -2.7143
27034SOL     OW87962  11.099   9.631   7.273 -0.1669 -0.4918 -0.1196
27034SOL    HW187963  11.103   9.546   7.316  1.8113 -0.1378  0.5313
27034SOL    HW287964  11.153   9.689   7.328  0.3229  0.6231 -1.6706
27035SOL     OW87965   4.893   7.654  12.403 -0.1293  0.1908 -0.0369
27035SOL    HW187966   4.841   7.632  12.326 -1.3725  0.1546  0.7761
27035SOL    HW287967   4.920   7.570  12.439 -0.0740  0.1851 -0.0924
27036SOL     OW87968  12.295   6.227  10.097  0.4719 -0.2545 -0.1222
27036SOL    HW187969  12.347   6.308  10.097  0.8628 -0.3917  2.8333
27036SOL    HW287970  12.349   6.164  10.048  1.8428  0.3606  0.5408
27037SOL     OW87971   0.823   2.553   9.205  0.0370  0.1331  0.2489
27037SOL    HW187972   0.846   2.576   9.115  0.7162 -1.6960 -0.0835
27037SOL    HW287973   0.732   2.521   9.200 -0.5171  1.5953  0.5255
27038SOL     OW87974   5.619   0.858   3.908 -0.1413 -0.1864  0.0213
27038SOL    HW187975   5.536   0.898   3.935 -0.5096  0.1544 -1.5042
27038SOL    HW287976   5.686   0.910   3.953 -0.7262 -0.1563  0.8896
27039SOL     OW87977   4.620  11.709  11.158  0.1793 -0.6488  0.3591
27039SOL    HW187978   4.652  11.737  11.073 -1.4203  1.3423  0.3453
27039SOL    HW287979   4.670  11.761  11.221 -0.3067 -0.3647  0.5150
27040SOL     OW87980   4.152   9.545   1.226 -0.1404  0.6556 -0.2467
27040SOL    HW187981   4.216   9.588   1.169 -0.8365 -0.0236 -1.5917
27040SOL    HW287982   4.147   9.601   1.304  1.4953  1.1277 -0.4565
27041SOL     OW87983   5.844  11.473   1.426 -0.6973  0.2307 -0.3873
27041SOL    HW187984   5.788  11.396   1.420  0.1573 -0.3755 -0.6484
27041SOL    HW287985   5.838  11.499   1.518  0.4280 -1.2348  0.1376
27042SOL     OW87986   9.928   3.816   5.954  0.1918  0.0984  0.2758
27042SOL    HW187987   9.852   3.838   5.900 -0.2533 -0.8361  0.5136
27042SOL    HW287988   9.891   3.797   6.040  0.5465 -1.5821  0.0817
27043SOL     OW87989  10.419   4.309   3.268 -0.6526  0.3924  0.0340
27043SOL    HW187990  10.442   4.292   3.177 -1.1770  1.0179 -0.2250
27043SOL    HW287991  10.480   4.377   3.296 -1.1402  0.9175 -0.1645
27044SOL     OW87992   6.418  11.308   0.157  0.3302 -0.0763  0.9284
27044SOL    HW187993   6.512  11.299   0.144  0.1675 -0.7477  0.0845
27044SOL    HW287994   6.409  11.348   0.243  1.3977  0.6164  0.7313
27045SOL     OW87995   7.666   4.077   1.651 -0.7913 -0.3420  0.4170
27045SOL    HW187996   7.648   4.059   1.559  0.2756  0.3179  0.0679
27045SOL    HW287997   7.729   4.009   1.677 -0.9041 -0.3795  0.5959
27046SOL     OW87998   5.581   2.385   9.022  0.0575  0.3170 -0.0298
27046SOL    HW187999   5.589   2.334   8.942  0.9439  0.7885 -0.2558
27046SOL    HW288000   5.600   2.475   8.996 -3.5624  1.2251 -0.0738
27047SOL     OW88001   7.599   7.926   9.036 -0.1919  0.2808  0.1152
27047SOL    HW188002   7.671   7.896   8.981  0.3125  0.8921  0.4384
27047SOL    HW288003   7.623   7.897   9.124 -0.2155  0.7163  0.2649
27048SOL     OW88004   9.166   3.841   9.901 -0.4146 -0.3766 -0.0389
27048SOL    HW188005   9.127   3.755   9.889 -1.1805 -0.3582  1.8430
27048SOL    HW288006   9.169   3.852   9.996  1.3289  0.9400 -0.2054
27049SOL     OW88007  10.360   8.107   3.368 -0.4127  0.8437  0.4804
27049SOL    HW188008  10.329   8.115   3.278 -0.3460  1.6006  0.5168
27049SOL    HW288009  10.442   8.057   3.361  0.4537  2.2792 -0.0789
27050SOL     OW88010   7.181   5.936  10.497 -0.0932 -0.3307 -0.2784
27050SOL    HW188011   7.255   5.966  10.444  0.3141 -0.2121  0.3370
27050SOL    HW288012   7.106   5.986  10.465  0.2969  0.2953 -0.2333
27051SOL     OW88013   1.363   3.785  10.851 -0.3806  0.5213  0.1079
27051SOL    HW188014   1.397   3.701  10.821 -3.0598 -0.7693  0.3362
27051SOL    HW288015   1.351   3.836  10.771 -0.3888  0.0014 -0.2275
27052SOL     OW88016   6.422  11.285   9.827  0.6785 -0.2914  0.1430
27052SOL    HW188017   6.486  11.344   9.787 -0.9501  1.1758 -0.4295
27052SOL    HW288018   6.339  11.306   9.784 -1.1841  1.2022  3.9814
27053SOL     OW88019   2.407   5.693   0.661  0.0184 -0.1761 -0.1862
27053SOL    HW188020   2.444   5.750   0.728 -2.3329  1.2736 -0.0154
27053SOL    HW288021   2.313   5.689   0.680 -0.5649 -0.6469 -2.7026
27054SOL     OW88022   8.643   4.398   4.710  0.1331 -0.1934 -0.2174
27054SOL    HW188023   8.616   4.488   4.729 -1.9611 -0.6553 -0.7785
27054SOL    HW288024   8.649   4.394   4.615  0.1415 -0.6736 -0.1970
27055SOL     OW88025   5.292   8.833   2.518  0.4753  0.2911  0.4746
27055SOL    HW188026   5.211   8.848   2.470  1.1761 -0.7108 -1.0968
27055SOL    HW288027   5.361   8.866   2.460  1.4118 -1.7303  0.3572
27056SOL     OW88028   3.417   6.406   9.050 -0.6446 -0.0628  0.2601
27056SOL    HW188029   3.506   6.386   9.022 -1.2390 -0.7696 -1.2174
27056SOL    HW288030   3.428   6.450   9.134  1.2409  2.3788 -1.1486
27057SOL     OW88031   3.934   4.098   8.044 -0.1343  0.1540 -0.3644
27057SOL    HW188032   3.951   4.130   8.133  1.5765  0.2862 -0.6895
27057SOL    HW288033   3.997   4.027   8.032 -0.3523  0.1268 -1.4540
27058SOL     OW88034  11.096  12.054   5.882 -0.2267 -0.0494 -0.1882
27058SOL    HW188035  11.178  12.098   5.905 -0.5735  1.0763 -1.0238
27058SOL    HW288036  11.124  11.967   5.853  0.5222 -0.2058  0.9329
27059SOL     OW88037   7.890  11.751   6.987 -0.0209  0.6619  0.2666
27059SOL    HW188038   7.830  11.681   7.014 -1.5623  1.3243 -1.2325
27059SOL    HW288039   7.960  11.706   6.940 -1.4940  0.1282 -1.5372
27060SOL     OW88040   1.861   6.228   7.932  0.1520  0.3231  0.0858
27060SOL    HW188041   1.841   6.318   7.907  2.4875  0.8720 -0.0238
27060SOL    HW288042   1.949   6.212   7.899  0.9609 -1.0143  2.5674
27061SOL     OW88043   3.484  10.996   9.918 -0.1262  0.2306  0.2985
27061SOL    HW188044   3.416  11.044   9.871 -0.2982  0.8646  1.1832
27061SOL    HW288045   3.566  11.033   9.886 -0.1036 -1.1378 -1.4418
27062SOL     OW88046   4.485   5.220  10.996 -0.0057  0.0581  0.1558
27062SOL    HW188047   4.518   5.159  10.930 -0.0185 -0.3610  0.5296
27062SOL    HW288048   4.399   5.246  10.963  0.6687  1.1489 -0.8124
27063SOL     OW88049   8.081   9.775   8.904  0.6434 -0.0858  0.1315
27063SOL    HW188050   8.134   9.793   8.982  0.7508  2.0310 -0.3941
27063SOL    HW288051   7.993   9.805   8.928  0.5711  0.1327 -0.4119
27064SOL     OW88052   8.176  12.366   7.824  0.1780  0.1514 -0.7664
27064SOL    HW188053   8.171  12.451   7.780 -0.6874  0.3639 -0.2792
27064SOL    HW288054   8.139  12.304   7.760  0.7648  0.1376 -1.1025
27065SOL     OW88055   6.040   7.389   9.071  0.1631  0.1264 -0.4970
27065SOL    HW188056   5.991   7.309   9.051 -0.8089  0.8166 -0.9649
27065SOL    HW288057   6.127   7.373   9.035 -0.1037 -0.6059 -0.8502
27066SOL     OW88058   6.667   3.694   6.293 -0.2483  0.2619 -0.2109
27066SOL    HW188059   6.732   3.639   6.337  1.2785  2.1089 -0.0537
27066SOL    HW288060   6.629   3.747   6.363 -1.2874 -0.1202 -0.4555
27067SOL     OW88061   7.739   2.145   4.503 -0.1693  0.4483  0.0956
27067SOL    HW188062   7.822   2.187   4.478  0.4143 -0.0324  1.1756
27067SOL    HW288063   7.753   2.052   4.486 -0.7120  0.4306 -0.2806
27068SOL     OW88064   4.695  10.945   2.636  0.0059  0.1710 -0.4760
27068SOL    HW188065   4.682  10.863   2.684  0.6767 -0.1940 -0.9000
27068SOL    HW288066   4.766  10.926   2.574 -1.3348  0.3775 -2.1552
27069SOL     OW88067   6.229   6.515   1.047 -0.4406 -0.1572 -0.1388
27069SOL    HW188068   6.323   6.522   1.064 -0.2328 -0.0405 -1.2791
27069SOL    HW288069   6.189   6.538   1.131  0.5308  0.5619  0.1583
27070SOL     OW88070  11.698   6.978   9.376 -0.4750  0.3443 -0.7700
27070SOL    HW188071  11.712   6.995   9.469 -2.5943  0.3451 -0.4146
27070SOL    HW288072  11.632   6.909   9.373 -1.6053  1.4106 -2.2586
27071SOL     OW88073   8.763   1.850   5.706 -0.0732  0.0437  0.5638
27071SOL    HW188074   8.823   1.841   5.632 -0.6212 -0.4939  0.1699
27071SOL    HW288075   8.692   1.905   5.673 -0.1929  0.0119  0.7680
27072SOL     OW88076   6.266   2.500   2.099 -0.3893 -0.3544 -0.2614
27072SOL    HW188077   6.217   2.511   2.018 -0.2564  1.6873 -0.1001
27072SOL    HW288078   6.289   2.589   2.127  0.9979 -1.0883  1.1441
27073SOL     OW88079  10.624   4.008   4.242 -0.5285 -0.4922 -0.1919
27073SOL    HW188080  10.565   3.976   4.174  1.2503  0.5642 -2.3867
27073SOL    HW288081  10.619   4.103   4.235 -1.7939 -0.2639  2.6268
27074SOL     OW88082   6.481   3.713   0.726  0.4683 -0.2209  0.3430
27074SOL    HW188083   6.497   3.772   0.652 -0.0747 -0.1941  0.2450
27074SOL    HW288084   6.450   3.770   0.796  0.6740 -0.2891  0.4898
27075SOL     OW88085   2.907  12.160   2.251  0.1993  0.2194  0.0573
27075SOL    HW188086   2.828  12.210   2.271  0.4003  0.7117 -0.3595
27075SOL    HW288087   2.963  12.221   2.203  2.0435  0.8023  2.7305
27076SOL     OW88088   9.049   2.757   9.345  0.1698  0.1465 -0.3514
27076SOL    HW188089   9.108   2.687   9.373 -1.7596 -1.5924 -0.4193
27076SOL    HW288090   9.088   2.789   9.264  1.0826 -0.8777 -0.3475
27077SOL     OW88091   9.974  10.770   1.382 -0.3282 -0.3587 -0.2970
27077SOL    HW188092  10.002  10.854   1.419 -0.4461  0.9744 -2.9826
27077SOL    HW288093   9.897  10.746   1.433  0.8731  0.0954  1.8349
27078SOL     OW88094   6.161   0.206  10.159  0.2011 -0.2431 -0.1793
27078SOL    HW188095   6.114   0.255  10.092 -0.6997  0.0264  0.6229
27078SOL    HW288096   6.227   0.267  10.191  0.3096 -0.2006 -0.4833
27079SOL     OW88097   1.810  11.029  12.033  0.6959 -0.3232  0.0078
27079SOL    HW188098   1.742  11.067  12.088 -0.4883 -1.1976 -0.8161
27079SOL    HW288099   1.767  11.011  11.950  2.4201  0.9267 -1.2452
27080SOL     OW88100  11.701   0.306  12.089  0.4608 -0.1223  0.5742
27080SOL    HW188101  11.635   0.240  12.068 -0.0030  0.0851  1.3229
27080SOL    HW288102  11.761   0.304  12.015 -0.7572  0.1546 -0.4602
27081SOL     OW88103   5.309  12.004   8.544 -0.0648 -0.1936  0.0829
27081SOL    HW188104   5.244  11.954   8.594  0.8684 -0.4455  1.0817
27081SOL    HW288105   5.383  11.943   8.535  0.6225  0.6013  0.2862
27082SOL     OW88106   5.195  10.989   4.030  0.2852 -0.0936 -0.3052
27082SOL    HW188107   5.203  10.944   3.946 -2.7434 -0.8000 -0.3288
27082SOL    HW288108   5.118  11.045   4.020 -0.5080 -0.6203  2.1373
27083SOL     OW88109  10.785  11.663   0.100  0.0707  0.1796 -0.0306
27083SOL    HW188110  10.864  11.696   0.057 -0.2407  1.7831  0.5318
27083SOL    HW288111  10.806  11.573   0.125  2.6692  1.2857  2.2825
27084SOL     OW88112  11.423  10.418   7.451 -0.5294  0.2461 -0.2962
27084SOL    HW188113  11.514  10.441   7.467 -0.7819  1.6973 -0.7927
27084SOL    HW288114  11.421  10.322   7.455  0.5995  0.2447  1.8137
27085SOL     OW88115   1.438   0.075  11.975 -0.1565 -0.9712  0.3875
27085SOL    HW188116   1.419   0.124  12.055  1.4813 -1.0962  0.9046
27085SOL    HW288117   1.391   0.122  11.906 -0.8190 -0.2873  1.2725
27086SOL     OW88118   9.395   4.967   9.245  0.1056  0.5893 -0.2867
27086SOL    HW188119   9.360   4.928   9.164 -1.4911  0.2557  0.5239
27086SOL    HW288120   9.394   5.061   9.229  0.6242  0.4879 -0.9618
27087SOL     OW88121   6.853   6.106   9.736 -0.1083 -0.6504  0.0117
27087SOL    HW188122   6.914   6.156   9.683 -1.2573  0.6201 -0.1674
27087SOL    HW288123   6.906   6.069   9.807  0.8918  0.1758 -0.2870
27088SOL     OW88124   1.378   5.845  12.045  0.6187  0.0634  0.1291
27088SOL    HW188125   1.379   5.856  11.950 -0.1262 -0.8685 -0.0001
27088SOL    HW288126   1.459   5.797  12.064  0.4725 -0.2792 -0.1068
27089SOL     OW88127   9.403  10.515   2.100 -0.5225  0.2014  0.3938
27089SOL    HW188128   9.431  10.428   2.130  0.1842  0.8392  1.6736
27089SOL    HW288129   9.437  10.575   2.166  0.0416  1.5945 -1.0895
27090SOL     OW88130   3.857   8.130   1.979  0.4248  0.0983 -0.4224
27090SOL    HW188131   3.832   8.078   2.055 -2.2360  0.2820 -1.0855
27090SOL    HW288132   3.899   8.208   2.016 -0.2420 -0.1009  0.8099
27091SOL     OW88133  11.012  11.429   8.680 -0.0193  0.0913 -0.0208
27091SOL    HW188134  10.935  11.415   8.625  1.4243 -1.4062 -1.8006
27091SOL    HW288135  11.044  11.516   8.654 -0.1258 -0.0242 -0.5670
27092SOL     OW88136   0.489   7.454   3.353 -0.2867  0.3133 -0.3035
27092SOL    HW188137   0.506   7.448   3.259 -1.2985 -1.0898 -0.4261
27092SOL    HW288138   0.451   7.542   3.365 -1.1382  0.1175 -1.3884
27093SOL     OW88139  12.204   3.497   9.817  0.0453 -0.2734 -0.3422
27093SOL    HW188140  12.208   3.404   9.838 -0.3825 -0.4207 -0.8574
27093SOL    HW288141  12.267   3.508   9.746  0.1669 -0.1483 -0.2148
27094SOL     OW88142   6.998   5.867   2.433 -0.0037  0.1559  0.2105
27094SOL    HW188143   6.933   5.932   2.459 -1.8269 -2.2272  2.0234
27094SOL    HW288144   7.071   5.881   2.493 -0.6258  0.2137  0.9760
27095SOL     OW88145   3.349   6.509   2.418  0.3462  0.0666 -0.1616
27095SOL    HW188146   3.388   6.430   2.455 -0.7083 -0.2319  0.3294
27095SOL    HW288147   3.388   6.580   2.469  0.6767 -0.1864 -0.0562
27096SOL     OW88148   9.836   9.429   2.097  0.3914 -0.6484 -0.2329
27096SOL    HW188149   9.744   9.436   2.124  0.9748  0.0828  1.7645
27096SOL    HW288150   9.859   9.517   2.068  0.2793 -1.0042 -1.4316
27097SOL     OW88151  12.448  11.194   6.459  0.7839  0.4673 -0.5241
27097SOL    HW188152  12.471  11.283   6.485  0.1159  0.3624  0.4530
27097SOL    HW288153  12.457  11.195   6.363 -1.1927  2.1812 -0.7666
27098SOL     OW88154   0.282  10.534   0.037 -0.0394 -0.1776  0.0301
27098SOL    HW188155   0.284  10.542  -0.058  3.4619  2.1564  0.0926
27098SOL    HW288156   0.373  10.519   0.062 -0.6519  0.3958  3.0517
27099SOL     OW88157   5.827   8.180   7.636  0.6785 -0.4098 -0.3397
27099SOL    HW188158   5.868   8.108   7.589 -0.5178 -1.7861  0.6532
27099SOL    HW288159   5.792   8.237   7.568  2.4736 -0.2078 -1.1597
27100SOL     OW88160  10.272  11.972   9.375 -0.3465 -0.0387 -0.4568
27100SOL    HW188161  10.327  11.962   9.452  0.9137 -0.3189 -1.3509
27100SOL    HW288162  10.268  11.884   9.337 -1.1381  0.0504 -0.5871
27101SOL     OW88163   4.674   3.663  11.402  0.0680 -0.1772  0.6658
27101SOL    HW188164   4.661   3.637  11.493 -0.8868 -0.3077  0.5071
27101SOL    HW288165   4.701   3.583  11.357 -1.5681 -0.6400  0.4368
27102SOL     OW88166   4.302   3.464   6.055 -1.0327  0.1824  0.4121
27102SOL    HW188167   4.379   3.521   6.057  0.7829 -1.9650 -1.7605
27102SOL    HW288168   4.287   3.440   6.147  0.4622  1.2135  0.9533
27103SOL     OW88169   8.964   3.770  12.228 -0.1057  0.5551  0.2977
27103SOL    HW188170   8.926   3.712  12.295 -0.3293  2.5371  2.0008
27103SOL    HW288171   9.058   3.761  12.239 -0.1255 -0.1851 -0.1035
27104SOL     OW88172   0.288  12.114  11.299 -0.3860  0.2506  0.0833
27104SOL    HW188173   0.216  12.135  11.359  1.1270 -1.3894  2.6940
27104SOL    HW288174   0.283  12.019  11.288  1.5847  0.0347  0.6871
27105SOL     OW88175  11.507   9.226   2.851  0.5883 -0.1795 -1.4530
27105SOL    HW188176  11.560   9.230   2.771  1.8751 -0.7779 -0.6626
27105SOL    HW288177  11.454   9.147   2.840  0.2532  0.1138 -2.0086
27106SOL     OW88178   0.233   2.444   8.779 -0.1264  0.0585 -0.2324
27106SOL    HW188179   0.147   2.487   8.778 -0.6578 -0.9719 -0.2860
27106SOL    HW288180   0.248   2.422   8.871  0.6256  1.2756 -0.0521
27107SOL     OW88181   9.753   3.059   3.188  0.4764 -0.4349  0.2916
27107SOL    HW188182   9.698   3.090   3.259 -0.2994 -0.2819 -0.3598
27107SOL    HW288183   9.831   3.115   3.191 -0.3701  0.7882 -0.1155
27108SOL     OW88184   5.693   3.920   8.243  0.5309 -0.2149  0.2423
27108SOL    HW188185   5.628   3.934   8.175  0.6001 -1.8241 -0.1844
27108SOL    HW288186   5.733   3.836   8.222  1.9494  0.1878  1.1512
27109SOL     OW88187   1.133   7.490   4.532  0.5760  0.1165  0.4487
27109SOL    HW188188   1.061   7.549   4.553  0.1290 -0.0723 -0.4785
27109SOL    HW288189   1.170   7.465   4.616 -0.2577  0.4450  0.9193
27110SOL     OW88190   3.991   5.676   0.946  0.2348 -0.3873 -0.5226
27110SOL    HW188191   4.067   5.670   1.004  0.4527  1.7931 -0.5099
27110SOL    HW288192   3.940   5.749   0.980 -1.4750 -1.2872 -1.0276
27111SOL     OW88193   6.807   8.558   6.493 -0.1167  0.4482 -0.1053
27111SOL    HW188194   6.853   8.635   6.526 -0.8197  1.2290 -0.9045
27111SOL    HW288195   6.877   8.498   6.466  0.4802 -0.1803  2.6236
27112SOL     OW88196  12.087   8.496   2.490  0.3120 -0.1507 -0.0901
27112SOL    HW188197  12.055   8.586   2.489  0.7734  0.0352 -1.9648
27112SOL    HW288198  12.165   8.499   2.544 -0.0936  0.4098  0.4793
27113SOL     OW88199  11.987   6.874   2.124  0.0124 -0.0685 -0.3451
27113SOL    HW188200  12.022   6.950   2.076 -0.5882 -0.2458 -1.0823
27113SOL    HW288201  11.943   6.822   2.057 -1.8178  0.2325  0.5608
27114SOL     OW88202   8.152   0.749   2.070 -0.0587  0.0373  0.3312
27114SOL    HW188203   8.157   0.765   1.975  0.1252  2.4291  0.6682
27114SOL    HW288204   8.065   0.711   2.083 -0.0356 -0.4510 -0.8159
27115SOL     OW88205   4.671   0.602   9.400  0.3408 -0.2957 -0.1615
27115SOL    HW188206   4.669   0.698   9.398  0.3514 -0.2704  0.5388
27115SOL    HW288207   4.641   0.575   9.314 -0.8793  0.3225  0.0483
27116SOL     OW88208   0.320   6.639   3.243  0.3298  0.6449  0.4401
27116SOL    HW188209   0.314   6.629   3.148  1.2126 -0.4903  0.4830
27116SOL    HW288210   0.277   6.561   3.278  1.1878  0.3855  0.9395
27117SOL     OW88211   8.556   8.880   6.334  0.3610 -0.0341 -0.3425
27117SOL    HW188212   8.555   8.841   6.247 -0.2868  0.1451 -0.4175
27117SOL    HW288213   8.466   8.909   6.349  0.7758  1.2129 -0.1896
27118SOL     OW88214   6.529  10.866  11.437 -0.4276 -0.4939 -0.1270
27118SOL    HW188215   6.620  10.839  11.444 -0.3840 -0.4933 -0.6523
27118SOL    HW288216   6.532  10.961  11.441 -0.6655 -0.5237  2.6985
27119SOL     OW88217   9.029  10.236   7.480  0.2041  0.1846  0.0567
27119SOL    HW188218   9.037  10.208   7.388  1.3135 -0.3317  0.2971
27119SOL    HW288219   9.111  10.208   7.521 -1.6228 -2.7063  2.0444
27120SOL     OW88220   8.623   9.564   1.211  0.1966 -0.2412  0.1915
27120SOL    HW188221   8.531   9.590   1.207  0.1265 -0.6400 -2.4241
27120SOL    HW288222   8.665   9.612   1.140  1.2678 -2.6656 -0.9210
27121SOL     OW88223   7.840   4.296   9.778 -0.0107 -0.4864 -0.2068
27121SOL    HW188224   7.813   4.363   9.715 -2.0733 -1.7616 -0.7494
27121SOL    HW288225   7.924   4.264   9.744 -0.2194  0.0957 -1.3042
27122SOL     OW88226   5.313   0.924   0.288 -0.1016  0.4466 -0.2877
27122SOL    HW188227   5.401   0.895   0.264 -0.5696 -1.2627 -0.0423
27122SOL    HW288228   5.317   0.937   0.383  0.2119  1.6955 -0.4417
27123SOL     OW88229   5.415   7.911   2.297 -0.0033 -0.1513 -0.2118
27123SOL    HW188230   5.419   7.816   2.284 -0.3444 -0.6219  2.5057
27123SOL    HW288231   5.417   7.922   2.392  0.9575  2.6336 -0.4624
27124SOL     OW88232   3.965   8.936  10.224 -0.5226  0.3090 -0.0239
27124SOL    HW188233   4.001   8.962  10.139  0.1720 -1.5824 -0.3370
27124SOL    HW288234   3.940   8.844  10.213 -1.6413  0.3983  1.4410
27125SOL     OW88235   6.303   5.105   2.955  0.0294 -0.4370  0.0128
27125SOL    HW188236   6.337   5.089   2.867  3.6346 -1.6042  1.4347
27125SOL    HW288237   6.346   5.185   2.984 -1.5369  0.2474  0.5736
27126SOL     OW88238   8.950   9.527   4.794 -0.6119  0.1206  0.7052
27126SOL    HW188239   8.878   9.586   4.816 -0.6203 -0.0232  1.0712
27126SOL    HW288240   9.022   9.585   4.770 -1.2081  0.2604 -0.8535
27127SOL     OW88241  10.819   3.265   6.547  0.1411 -0.2265 -0.3899
27127SOL    HW188242  10.837   3.353   6.515 -1.0809  0.0628 -0.3173
27127SOL    HW288243  10.897   3.214   6.523  1.8616  1.3480  1.5096
27128SOL     OW88244   6.594   7.196  11.058 -0.5239 -0.1499 -0.4843
27128SOL    HW188245   6.539   7.149  10.996 -0.5777  0.1703 -0.6792
27128SOL    HW288246   6.683   7.186  11.024 -0.6487  0.8769 -1.1850
27129SOL     OW88247   5.670   6.424  12.042 -0.0044 -0.1992 -0.3789
27129SOL    HW188248   5.712   6.484  11.981 -0.4931 -0.3125 -0.8396
27129SOL    HW288249   5.643   6.479  12.115 -0.6945  0.2051 -0.9214
27130SOL     OW88250  12.475   3.066   9.993  0.3890 -0.2266  0.6965
27130SOL    HW188251  12.533   3.020   9.932  0.0696  3.2007 -2.4847
27130SOL    HW288252  12.386   3.040   9.966  0.2696  0.5213  0.3606
27131SOL     OW88253   4.929   4.922   3.551 -0.2085 -0.2999  0.3114
27131SOL    HW188254   5.015   4.920   3.594 -0.2877 -1.2361  0.4548
27131SOL    HW288255   4.919   4.834   3.515 -0.7876  0.0358 -0.3544
27132SOL     OW88256   4.547   3.986   3.668 -0.2380 -0.2720 -0.2427
27132SOL    HW188257   4.589   3.964   3.585  1.8774  1.4723  0.2598
27132SOL    HW288258   4.606   3.952   3.735 -0.6694  0.4311  0.5234
27133SOL     OW88259  10.342  10.356  11.912 -0.8525 -0.4988  0.1206
27133SOL    HW188260  10.432  10.335  11.886 -0.8640 -0.1569 -0.2012
27133SOL    HW288261  10.293  10.275  11.896 -0.6814 -0.5641 -0.0731
27134SOL     OW88262   2.656   2.875   8.867  0.1693  0.0607 -0.1859
27134SOL    HW188263   2.681   2.963   8.840  0.7559  0.4273  1.4295
27134SOL    HW288264   2.661   2.877   8.963 -1.8966 -1.1135  0.0071
27135SOL     OW88265   9.674   5.527  11.558 -0.0163  0.0103  0.1001
27135SOL    HW188266   9.714   5.440  11.559 -0.3667 -0.1815 -1.2455
27135SOL    HW288267   9.585   5.513  11.525  0.3604  1.0254 -1.4532
27136SOL     OW88268   2.081   4.776  10.389 -0.0812 -0.5367 -0.2802
27136SOL    HW188269   2.128   4.797  10.470  0.4106 -0.4744 -0.5777
27136SOL    HW288270   2.013   4.714  10.416  1.9303 -2.8750 -0.2693
27137SOL     OW88271   1.985   2.594   2.956  0.2116 -0.1160  0.2490
27137SOL    HW188272   2.018   2.647   2.884  1.0412 -0.9586 -0.0059
27137SOL    HW288273   1.890   2.609   2.954 -0.1583 -2.0104 -2.6325
27138SOL     OW88274   6.001   5.358  11.979 -0.2696  0.8783 -0.5489
27138SOL    HW188275   5.992   5.453  11.989 -0.0776  0.7125  1.5227
27138SOL    HW288276   5.912   5.327  11.963 -0.8977  1.1052  2.0916
27139SOL     OW88277   9.828   3.310   0.875 -0.2396  0.1284  0.4760
27139SOL    HW188278   9.732   3.312   0.871 -0.3085 -0.4710  1.5456
27139SOL    HW288279   9.851   3.390   0.922 -0.1404  0.7579 -0.6006
27140SOL     OW88280   1.196  11.309   6.596  0.3170  0.0975  0.0983
27140SOL    HW188281   1.208  11.367   6.520  0.5405 -1.1821 -0.8880
27140SOL    HW288282   1.113  11.265   6.580  1.2256 -1.5285 -0.3773
27141SOL     OW88283   5.845   5.839   4.634  0.2249 -0.0588  0.2939
27141SOL    HW188284   5.856   5.896   4.558 -0.7817  1.2590  1.1106
27141SOL    HW288285   5.922   5.855   4.688  1.1150 -1.2509 -0.5699
27142SOL     OW88286  11.058   3.368   6.269  0.5355 -0.5027 -0.4514
27142SOL    HW188287  11.126   3.378   6.202  1.3938 -0.5438  0.3996
27142SOL    HW288288  11.002   3.298   6.236  1.7955 -1.5450 -0.4439
27143SOL     OW88289   9.566   3.397   8.485 -0.5480 -0.3097  0.2340
27143SOL    HW188290   9.650   3.433   8.514 -0.6753 -0.2147  0.4926
27143SOL    HW288291   9.542   3.450   8.409 -0.2918 -0.4482  0.0555
27144SOL     OW88292   0.390  12.476   9.252  0.7534 -0.3539 -0.6561
27144SOL    HW188293   0.325  12.411   9.226  0.6310 -0.3743 -0.3001
27144SOL    HW288294   0.387  12.542   9.182  0.7743 -0.6527 -0.9419
27145SOL     OW88295   3.522   0.855   0.793 -0.2215 -0.4611  0.0427
27145SOL    HW188296   3.552   0.902   0.715  0.7219  2.9136  2.1967
27145SOL    HW288297   3.599   0.807   0.823  0.1637  0.2723  0.2421
27146SOL     OW88298  11.965   1.723   4.367 -0.1207 -0.1521 -0.5706
27146SOL    HW188299  12.037   1.746   4.426 -0.4121 -0.0851 -0.2422
27146SOL    HW288300  11.888   1.721   4.423 -0.2522 -1.0093 -0.7605
27147SOL     OW88301   3.794   3.069  11.528  0.1045  0.2773  0.1008
27147SOL    HW188302   3.743   3.145  11.556  3.5608  3.3400 -1.0217
27147SOL    HW288303   3.752   3.041  11.447 -1.4488  0.7201  0.7026
27148SOL     OW88304   8.381   2.748   1.510  0.0683 -0.4969 -0.1808
27148SOL    HW188305   8.447   2.741   1.441  0.8125  1.5604  0.2543
27148SOL    HW288306   8.422   2.709   1.587  0.8629  0.8334  0.1061
27149SOL     OW88307   9.044  12.084  10.808 -0.6922 -0.2116 -0.1997
27149SOL    HW188308   9.011  12.017  10.867  0.0027  0.1022  0.5615
27149SOL    HW288309   9.090  12.036  10.740 -0.6648 -0.5254  0.0383
27150SOL     OW88310   6.469   0.371   9.384 -0.4701 -0.3855 -0.2913
27150SOL    HW188311   6.457   0.425   9.305 -0.8098  2.0035  1.3100
27150SOL    HW288312   6.562   0.381   9.405 -0.9003  1.2637  1.0786
27151SOL     OW88313  11.808   8.680   0.249 -0.1118  0.0645  0.2987
27151SOL    HW188314  11.880   8.679   0.312  1.2468 -0.6810 -1.1901
27151SOL    HW288315  11.809   8.592   0.210 -1.0531  0.4315 -0.6187
27152SOL     OW88316   5.330   8.040   0.892  0.1314  0.7947  0.1159
27152SOL    HW188317   5.402   8.055   0.831  0.0930 -2.1442 -0.7824
27152SOL    HW288318   5.263   8.103   0.866  1.0140  1.1500 -1.3748
27153SOL     OW88319   7.318   3.208   0.899  0.1611 -0.0697  0.0503
27153SOL    HW188320   7.353   3.296   0.889  0.0480 -0.0973 -0.6041
27153SOL    HW288321   7.229   3.221   0.931  0.4503  0.0244  0.8353
27154SOL     OW88322   5.769   5.553   6.625  0.2347 -0.5566  0.4430
27154SOL    HW188323   5.735   5.480   6.677  0.8119 -0.1879  1.3643
27154SOL    HW288324   5.700   5.618   6.626 -0.2978 -1.0951 -0.4124
27155SOL     OW88325   8.297   4.610  10.161  0.2477  0.0722  0.7119
27155SOL    HW188326   8.254   4.624  10.076  1.9960 -0.2024 -0.2839
27155SOL    HW288327   8.318   4.699  10.192  1.7839  0.1479 -0.3930
27156SOL     OW88328   0.637   7.569   0.232 -0.5073  0.7327  0.4213
27156SOL    HW188329   0.608   7.568   0.141  0.2247 -0.4649  0.1889
27156SOL    HW288330   0.732   7.564   0.227 -0.5240 -0.8623  1.2696
27157SOL     OW88331   4.002  11.534   4.395 -0.0028  0.0025  0.1199
27157SOL    HW188332   3.943  11.545   4.321  0.7285  0.7156 -0.3838
27157SOL    HW288333   3.970  11.595   4.461  0.5463  0.9016 -0.4143
27158SOL     OW88334   3.747   2.015   1.462  0.1345  0.2199 -0.0734
27158SOL    HW188335   3.780   2.079   1.399 -1.7207 -0.8946 -2.3356
27158SOL    HW288336   3.810   1.944   1.460  0.0424  0.1535 -0.7693
27159SOL     OW88337   7.975   8.670   5.233  0.0198  0.8539 -0.8762
27159SOL    HW188338   7.956   8.576   5.243 -1.0991  1.1036 -0.5649
27159SOL    HW288339   7.906   8.714   5.283  2.1187  1.8105  1.4286
27160SOL     OW88340   3.583   5.191   0.946  0.0587  0.0881 -0.2182
27160SOL    HW188341   3.507   5.210   0.893 -0.3250  0.6256  0.5084
27160SOL    HW288342   3.561   5.225   1.033  1.3464  0.7922 -0.1371
27161SOL     OW88343   7.888   0.542   9.668 -0.0650 -0.4121 -0.8345
27161SOL    HW188344   7.947   0.557   9.743  0.2885  2.8841 -1.6384
27161SOL    HW288345   7.800   0.546   9.706  0.1447 -0.7340 -0.3034
27162SOL     OW88346   9.913  12.424   1.189 -0.0366 -0.1426  0.0655
27162SOL    HW188347   9.943  12.514   1.197  0.3154 -0.2599  0.0727
27162SOL    HW288348   9.821  12.427   1.217 -0.1231  0.2681 -0.2392
27163SOL     OW88349   6.440   9.013   0.567  0.0797  0.0851 -0.1095
27163SOL    HW188350   6.431   9.075   0.639  1.8632 -0.2589  0.4352
27163SOL    HW288351   6.359   8.961   0.571  0.1432  0.0451  1.6706
27164SOL     OW88352   5.323   4.438   1.068  0.1259  0.1722 -0.3083
27164SOL    HW188353   5.232   4.423   1.096  0.3832 -1.9985 -0.4926
27164SOL    HW288354   5.356   4.504   1.129 -1.2178  0.1356  0.5016
27165SOL     OW88355   9.240   5.992  12.178  0.5540 -0.6850 -0.0978
27165SOL    HW188356   9.329   6.001  12.210  0.3717 -0.6335  0.4091
27165SOL    HW288357   9.235   6.051  12.103  1.0331 -0.9262 -0.3232
27166SOL     OW88358  11.051   7.686   5.680 -0.1185 -0.4817 -0.2130
27166SOL    HW188359  10.974   7.655   5.727 -0.1125  0.1338  0.2097
27166SOL    HW288360  11.017   7.742   5.610 -0.0122  0.7202  0.6820
27167SOL     OW88361   9.807   0.351  12.113  0.5183  0.2750 -0.1956
27167SOL    HW188362   9.869   0.292  12.070  0.6684  0.5870 -0.4109
27167SOL    HW288363   9.853   0.434  12.118  0.0871  0.5331 -0.4298
27168SOL     OW88364   2.459   1.303   1.830  0.0659  0.2227  0.3872
27168SOL    HW188365   2.479   1.305   1.924  3.5896  0.7726 -0.2404
27168SOL    HW288366   2.518   1.237   1.794  0.1387  1.3396 -1.7001
27169SOL     OW88367  11.241   8.514   2.589 -0.6057  0.2217 -0.1747
27169SOL    HW188368  11.243   8.529   2.494 -0.7772  0.6447 -0.1166
27169SOL    HW288369  11.313   8.453   2.605  1.2928  2.3163 -0.2221
27170SOL     OW88370   7.457   7.310  11.241 -0.5221 -0.3118  0.4319
27170SOL    HW188371   7.529   7.330  11.181 -0.0877 -0.9792  0.7197
27170SOL    HW288372   7.497   7.310  11.328 -0.9595 -0.2626  0.6364
27171SOL     OW88373   3.943   6.477   0.702 -0.1091  0.4021  0.2396
27171SOL    HW188374   3.895   6.437   0.629 -0.1321 -0.8577  0.9291
27171SOL    HW288375   4.032   6.490   0.668  0.6327 -2.6126  0.7403
27172SOL     OW88376   4.065   6.971  11.982  0.2486  0.0052 -0.0858
27172SOL    HW188377   4.047   6.881  12.009  1.9863 -0.3344  0.0300
27172SOL    HW288378   4.160   6.977  11.977  0.1539  1.6493 -0.7712
27173SOL     OW88379   6.362  12.280   9.118 -0.6687  0.4201  0.2900
27173SOL    HW188380   6.372  12.298   9.211 -0.2501 -1.2625  0.6185
27173SOL    HW288381   6.327  12.191   9.115  0.7549 -0.1549 -1.1524
27174SOL     OW88382   5.901   7.194   2.791 -0.1937 -0.9235 -0.1287
27174SOL    HW188383   5.919   7.286   2.776 -2.2529 -0.4344  0.1325
27174SOL    HW288384   5.944   7.174   2.875 -1.0625  0.2304  0.6132
27175SOL     OW88385   5.151   2.944   5.724 -0.1270 -0.7134  0.2322
27175SOL    HW188386   5.222   3.001   5.695 -1.8568  0.6621 -1.5988
27175SOL    HW288387   5.115   2.907   5.643 -1.5771 -1.2527  1.0891
27176SOL     OW88388   6.774   8.406   7.152 -0.1952  0.2870 -0.2822
27176SOL    HW188389   6.721   8.481   7.123 -1.2993 -1.0102 -1.7942
27176SOL    HW288390   6.711   8.334   7.158  0.6588 -0.3415  2.0985
27177SOL     OW88391  11.026   1.359   5.410  0.1660  0.1519 -0.3684
27177SOL    HW188392  11.115   1.343   5.378  0.7957  0.3622  1.1902
27177SOL    HW288393  10.988   1.271   5.420  0.0695  0.0739 -1.3421
27178SOL     OW88394   6.072   9.515   3.685  0.2138 -0.3863 -0.0145
27178SOL    HW188395   6.079   9.499   3.591 -0.2342 -0.8942  0.0360
27178SOL    HW288396   5.984   9.550   3.697 -0.2197 -1.5559  0.3770
27179SOL     OW88397   6.044   8.867  11.506 -0.1361 -0.5855  0.0067
27179SOL    HW188398   6.017   8.797  11.447 -2.5403 -0.2385  0.5755
27179SOL    HW288399   6.096   8.926  11.452 -1.2450 -0.9148 -1.4665
27180SOL     OW88400   1.712  10.726   7.118 -0.7505 -0.0627  0.1756
27180SOL    HW188401   1.766  10.679   7.054 -0.1176  0.8964 -0.0166
27180SOL    HW288402   1.775  10.756   7.184 -1.3963 -1.0366  1.2583
27181SOL     OW88403   1.577   5.395  12.056 -0.2194 -0.1525 -0.0056
27181SOL    HW188404   1.545   5.313  12.019  0.3195  0.4172 -1.8397
27181SOL    HW288405   1.530   5.404  12.139 -1.7796 -1.3079 -0.7128
27182SOL     OW88406   7.528  12.306   5.024  0.6061  0.3136 -0.7195
27182SOL    HW188407   7.578  12.228   5.048 -0.6468 -0.6395 -1.1376
27182SOL    HW288408   7.539  12.365   5.099  1.9792 -0.0320 -0.6132
27183SOL     OW88409   8.926   4.117   8.460 -0.0777  0.4748 -0.0051
27183SOL    HW188410   8.889   4.056   8.524 -3.8044  2.5775  0.1671
27183SOL    HW288411   9.002   4.155   8.504 -0.0441 -1.1563  1.4334
27184SOL     OW88412  10.486   8.108   4.435 -0.3596 -0.6493 -0.3520
27184SOL    HW188413  10.541   8.180   4.403 -1.2387 -0.4306 -1.4688
27184SOL    HW288414  10.460   8.061   4.355 -1.6819 -0.7957  0.1398
27185SOL     OW88415   1.270   8.220   1.097  0.0503  0.4082  0.3782
27185SOL    HW188416   1.242   8.202   1.187  1.4859  0.8215  0.9259
27185SOL    HW288417   1.279   8.315   1.094 -0.0111  0.3936 -0.2163
27186SOL     OW88418  12.069   1.581   5.117 -0.1660  0.0191 -1.1035
27186SOL    HW188419  12.005   1.635   5.162  0.4124 -1.1193  1.2345
27186SOL    HW288420  12.153   1.619   5.139  0.2492 -1.7222  0.5867
27187SOL     OW88421  11.090   0.580  10.513 -0.1347 -0.6496  0.1433
27187SOL    HW188422  11.021   0.602  10.452 -1.6870  0.1286  2.0639
27187SOL    HW288423  11.087   0.484  10.519  1.4365 -0.9537 -2.4310
27188SOL     OW88424   9.391   0.408   1.116  0.6942  0.4260  0.1578
27188SOL    HW188425   9.454   0.339   1.092 -0.1556 -0.0443 -0.8056
27188SOL    HW288426   9.381   0.459   1.036 -0.4145  0.2698  0.1863
27189SOL     OW88427   2.308   8.155   5.403  0.2668  0.5055 -0.2377
27189SOL    HW188428   2.213   8.156   5.398  0.2882  0.2241 -0.7602
27189SOL    HW288429   2.335   8.085   5.344  0.8306  1.1267 -0.7404
27190SOL     OW88430   9.685   7.831   1.581 -0.1639 -0.1986  0.2294
27190SOL    HW188431   9.645   7.795   1.502  3.0474 -0.8553 -1.2758
27190SOL    HW288432   9.697   7.924   1.562  1.2577 -0.4913 -0.4233
27191SOL     OW88433   5.532   7.803   7.909  0.0539  0.8411 -0.0536
27191SOL    HW188434   5.556   7.895   7.915 -1.7615  1.4706 -1.4347
27191SOL    HW288435   5.576   7.772   7.830 -0.9068  1.0908 -0.7035
27192SOL     OW88436   6.132   5.066   6.594  0.4741 -0.1056 -0.4054
27192SOL    HW188437   6.085   5.032   6.670 -0.1717  0.7635 -0.3961
27192SOL    HW288438   6.063   5.097   6.535  0.9856  2.8813  0.3848
27193SOL     OW88439  11.847   1.658   8.330  0.1540  0.2524 -0.0084
27193SOL    HW188440  11.891   1.590   8.381  1.4792  0.8167 -0.3579
27193SOL    HW288441  11.859   1.632   8.239 -0.8274  0.0670 -0.0874
27194SOL     OW88442  10.054   5.956   8.282 -0.0249  0.4206  0.5751
27194SOL    HW188443  10.048   6.050   8.265 -1.4114  0.0312 -1.4746
27194SOL    HW288444   9.963   5.925   8.283  0.2794 -0.6282  3.2533
27195SOL     OW88445  11.403   5.613   9.669  0.6149 -0.4890  0.5591
27195SOL    HW188446  11.390   5.679   9.600 -0.0212 -1.0943  0.0864
27195SOL    HW288447  11.388   5.661   9.750 -0.6965 -0.2306  0.1847
27196SOL     OW88448   2.368  10.204   7.281  0.2925 -0.1039  0.4048
27196SOL    HW188449   2.354  10.116   7.245  0.4817  0.0895 -0.1486
27196SOL    HW288450   2.461  10.221   7.267  0.4678 -0.2022  1.4055
27197SOL     OW88451  10.590   0.944   4.935 -0.1467  0.0102  0.1620
27197SOL    HW188452  10.594   0.851   4.917  1.1505 -0.1327  1.0271
27197SOL    HW288453  10.672   0.979   4.901 -1.1338  1.0713 -1.2439
27198SOL     OW88454   9.654   2.586  12.103  0.0239 -0.0975 -0.4389
27198SOL    HW188455   9.592   2.656  12.081 -0.4657 -0.8212 -1.4920
27198SOL    HW288456   9.628   2.558  12.191 -2.2941 -1.4990 -1.4763
27199SOL     OW88457  11.309  11.848   1.161  0.6418  0.4424 -0.1281
27199SOL    HW188458  11.295  11.814   1.073  1.3582 -0.8347  0.2359
27199SOL    HW288459  11.222  11.852   1.200  0.5030 -0.5890 -0.3216
27200SOL     OW88460   6.609   3.339   1.775  0.0033 -0.0265 -0.0124
27200SOL    HW188461   6.585   3.354   1.866 -1.7189 -0.3395 -0.3822
27200SOL    HW288462   6.591   3.246   1.761 -3.4294  0.7372 -1.6395
27201SOL     OW88463   4.994   0.664   8.893  0.0889 -0.0763 -0.1939
27201SOL    HW188464   4.995   0.665   8.797  1.3666  1.2399 -0.2002
27201SOL    HW288465   4.907   0.699   8.916  0.7486  2.2366 -0.9245
27202SOL     OW88466  11.668   4.541  10.029  0.4089  0.3200  0.3051
27202SOL    HW188467  11.693   4.448  10.025 -0.4616  0.0888 -0.0169
27202SOL    HW288468  11.622   4.550  10.112 -1.6412 -0.1133 -0.7258
27203SOL     OW88469   6.514  11.762   5.026  0.4209 -0.4294 -0.1471
27203SOL    HW188470   6.590  11.820   5.023  1.0741 -1.2943 -2.5596
27203SOL    HW288471   6.441  11.815   4.995  0.6421 -0.3811 -0.5916
27204SOL     OW88472   6.208   3.816   2.369  0.2457 -0.0546  0.0573
27204SOL    HW188473   6.255   3.897   2.351  0.1112  0.0884  0.3600
27204SOL    HW288474   6.167   3.793   2.285  0.8294 -0.1666 -0.2029
27205SOL     OW88475   6.236   5.074   0.649  0.5633  0.4546 -0.0383
27205SOL    HW188476   6.285   5.089   0.568 -0.8832  1.9550 -0.6920
27205SOL    HW288477   6.178   5.001   0.629  1.0491  0.0416  0.0492
27206SOL     OW88478   8.270   6.635   9.821 -0.4127 -0.7946 -0.2048
27206SOL    HW188479   8.199   6.626   9.885 -0.9939  0.3611 -0.6590
27206SOL    HW288480   8.350   6.620   9.871 -0.8970 -0.6400  0.6316
27207SOL     OW88481   0.400  10.757   4.717  0.1540  0.4532  0.6874
27207SOL    HW188482   0.393  10.670   4.678 -0.9996  0.2699  1.2517
27207SOL    HW288483   0.419  10.815   4.643  2.9691 -0.4932  0.5589
27208SOL     OW88484   3.479   0.240   8.848 -0.2089  0.0145  0.0117
27208SOL    HW188485   3.508   0.212   8.761  0.3277 -0.9413  0.4886
27208SOL    HW288486   3.528   0.320   8.865 -0.3703  0.2507 -0.5830
27209SOL     OW88487   7.263   6.121   1.073  0.3488 -0.5483 -0.2042
27209SOL    HW188488   7.238   6.172   0.996  1.4340 -0.4793 -0.5255
27209SOL    HW288489   7.276   6.032   1.040 -0.2816 -0.7687  0.1175
27210SOL     OW88490   9.607   6.896   1.982 -0.0482  0.1823 -0.1466
27210SOL    HW188491   9.613   6.932   1.893  1.7296  0.7421  0.1605
27210SOL    HW288492   9.535   6.833   1.977 -1.2868  1.5972 -1.4710
27211SOL     OW88493   5.000   0.544   9.967  0.6482 -0.1574  0.0415
27211SOL    HW188494   4.925   0.594   9.935 -0.0487  0.1233  2.0063
27211SOL    HW288495   5.076   0.591   9.931 -0.0269 -1.3380 -3.2805
27212SOL     OW88496  11.549   4.304  10.329  0.3544  0.2297  0.2606
27212SOL    HW188497  11.503   4.231  10.290  1.2852 -0.1088 -0.2376
27212SOL    HW288498  11.589   4.268  10.408  0.6460  0.2432  0.1221
27213SOL     OW88499  11.328   7.953   2.818  0.4124  0.5347  0.4235
27213SOL    HW188500  11.301   7.916   2.903 -0.5778 -2.1824 -0.9392
27213SOL    HW288501  11.283   8.037   2.814  0.5383  0.7727  2.6012
27214SOL     OW88502   0.047   9.958   8.971  0.7536  0.0595 -0.3487
27214SOL    HW188503  -0.019   9.983   8.906  0.2637 -1.6472 -0.5535
27214SOL    HW288504   0.128   9.996   8.938  0.4967 -0.6773 -1.9317
27215SOL     OW88505  10.665   2.159   7.937  0.4470  0.5200 -0.2143
27215SOL    HW188506  10.754   2.135   7.963 -0.3038  0.4837  2.5827
27215SOL    HW288507  10.672   2.251   7.909  1.1438  1.0330  1.5188
27216SOL     OW88508  10.997   3.577  12.453  0.5095 -0.5740 -0.6320
27216SOL    HW188509  10.932   3.512  12.479 -0.3346 -0.6085 -2.6138
27216SOL    HW288510  10.946   3.653  12.424  1.2490 -0.8841 -2.9819
27217SOL     OW88511   6.740   8.813  12.189 -0.1912  0.5880  0.2117
27217SOL    HW188512   6.769   8.792  12.100  0.9822  0.1340  0.6876
27217SOL    HW288513   6.802   8.878  12.220 -0.1365  0.1849  0.9646
27218SOL     OW88514  10.995   7.924   9.725 -0.3665  0.4574  0.0626
27218SOL    HW188515  11.084   7.943   9.697 -0.7060  2.5356  0.2075
27218SOL    HW288516  10.940   7.957   9.654 -1.0529  0.8661  0.7607
27219SOL     OW88517   9.623   4.277   0.282  0.2280  0.6719 -0.5384
27219SOL    HW188518   9.547   4.239   0.328 -0.0944  2.1881  0.2397
27219SOL    HW288519   9.641   4.215   0.212 -0.9983 -0.3287 -0.0218
27220SOL     OW88520   8.109   2.927  11.340  0.7611 -0.1536  0.8145
27220SOL    HW188521   8.097   2.939  11.434 -0.7978 -1.5391  0.8410
27220SOL    HW288522   8.030   2.881  11.312  2.2518 -1.8824 -0.7564
27221SOL     OW88523   9.227   5.862  10.498 -0.1241 -0.1300 -0.1421
27221SOL    HW188524   9.251   5.921  10.427 -1.0657  0.1959 -0.1999
27221SOL    HW288525   9.193   5.919  10.566  2.0227 -0.2960  1.1584
27222SOL     OW88526   5.924   2.698   6.485  0.3775  0.5673 -0.2548
27222SOL    HW188527   5.859   2.743   6.431  0.1932  2.1683  1.2245
27222SOL    HW288528   5.915   2.605   6.461 -2.5672  0.6905 -0.0072
27223SOL     OW88529   8.507   1.536   3.915  0.1293 -0.0833  0.0641
27223SOL    HW188530   8.432   1.568   3.964  0.3170  2.7475 -1.3279
27223SOL    HW288531   8.558   1.487   3.979 -1.8674 -0.3714  1.5167
27224SOL     OW88532  10.165   9.109  11.502  0.1822 -0.5088 -0.0626
27224SOL    HW188533  10.226   9.179  11.479 -0.9393  0.4372 -0.2577
27224SOL    HW288534  10.221   9.034  11.522  1.4415  0.5520  0.5617
27225SOL     OW88535   1.547   8.236   4.506 -0.9625  0.2528 -0.1438
27225SOL    HW188536   1.581   8.233   4.417  0.2938 -2.8398  0.3185
27225SOL    HW288537   1.460   8.195   4.500 -0.6423 -0.4844  0.1006
27226SOL     OW88538   9.852   6.694  10.357  0.6798  0.2360  0.2900
27226SOL    HW188539   9.919   6.737  10.305  0.2867  0.3312 -0.1452
27226SOL    HW288540   9.893   6.678  10.441  1.9673 -1.5623 -0.5972
27227SOL     OW88541   5.480   6.009   5.609 -0.6572 -0.0795  0.9635
27227SOL    HW188542   5.568   5.997   5.645 -0.6360  0.6562  1.1565
27227SOL    HW288543   5.458   6.100   5.627 -0.9929  0.0725 -0.1148
27228SOL     OW88544   4.022   7.029   6.749  0.1511  0.2453 -0.3170
27228SOL    HW188545   3.989   6.942   6.767 -3.0938  1.5673  0.8510
27228SOL    HW288546   4.004   7.043   6.656 -2.5065  0.7832  0.2001
27229SOL     OW88547   3.696   0.513   0.157  0.3449  0.0550 -0.4543
27229SOL    HW188548   3.684   0.529   0.063 -2.0458 -1.7398 -0.5563
27229SOL    HW288549   3.607   0.508   0.192  1.0866 -2.0831  1.3683
27230SOL     OW88550  11.529   0.350   5.295 -0.6064  0.3591 -0.4940
27230SOL    HW188551  11.578   0.299   5.359  1.7327  0.0352 -2.3949
27230SOL    HW288552  11.494   0.284   5.234 -0.6517  0.8181 -0.9647
27231SOL     OW88553   1.738   8.154  12.174  0.4926 -0.1897  0.4962
27231SOL    HW188554   1.678   8.155  12.099  1.6307 -1.6055 -0.4959
27231SOL    HW288555   1.749   8.061  12.195  1.0842  0.1338  1.6886
27232SOL     OW88556   4.545   6.588   8.803 -0.0006 -0.0672  0.2677
27232SOL    HW188557   4.497   6.512   8.834  1.1926 -0.7579  0.4483
27232SOL    HW288558   4.637   6.563   8.807  0.3396  0.7206 -1.3819
27233SOL     OW88559   1.436   1.848   3.029  0.2002 -0.2517 -0.1038
27233SOL    HW188560   1.473   1.844   3.117  1.0477 -0.4212 -0.4602
27233SOL    HW288561   1.350   1.889   3.041  0.6987  0.5880  0.6789
27234SOL     OW88562  12.376   5.317   2.860 -0.0898  0.4867  0.0727
27234SOL    HW188563  12.286   5.300   2.833 -0.1312  0.9966 -0.1313
27234SOL    HW288564  12.376   5.410   2.884 -0.0091  0.1033  1.6398
27235SOL     OW88565   1.527   3.560   4.892  0.2968 -0.0887  0.2403
27235SOL    HW188566   1.467   3.544   4.819  0.8015 -0.0123 -0.1968
27235SOL    HW288567   1.521   3.481   4.945  1.0598 -0.8003 -0.6911
27236SOL     OW88568   4.864   2.403   1.042  0.9565 -0.1567  0.2057
27236SOL    HW188569   4.865   2.329   0.982 -0.2828  0.6385 -0.8247
27236SOL    HW288570   4.934   2.461   1.010  1.6700 -0.6713  0.7860
27237SOL     OW88571   6.088   5.808  11.250 -0.0073  0.4388  0.1529
27237SOL    HW188572   6.108   5.896  11.284  1.9843  0.0046  0.1998
27237SOL    HW288573   6.167   5.757  11.266 -0.8249 -1.1615 -0.6461
27238SOL     OW88574   0.443   0.017   9.512 -0.3826  0.0827  0.5053
27238SOL    HW188575   0.433   0.029   9.417 -1.4633 -1.8025  0.3235
27238SOL    HW288576   0.526  -0.028   9.522  0.8530  2.2673  0.7029
27239SOL     OW88577   4.090   5.097   2.605 -0.3088  0.1858 -0.0693
27239SOL    HW188578   4.055   5.082   2.693  0.3014  0.3510  0.2059
27239SOL    HW288579   4.072   5.189   2.587  0.9579  0.5624  0.5224
27240SOL     OW88580  10.303   5.906   8.659  0.6310 -0.5548 -0.3045
27240SOL    HW188581  10.247   5.863   8.595 -1.7459  1.3794  0.3197
27240SOL    HW288582  10.269   5.876   8.744  0.5607  0.5858  0.0841
27241SOL     OW88583   0.804   8.765   1.061 -0.3137 -0.0027 -0.1644
27241SOL    HW188584   0.864   8.784   1.133  1.1863 -2.1422 -0.7099
27241SOL    HW288585   0.720   8.749   1.103  0.2463 -0.0276  0.9969
27242SOL     OW88586   1.457   7.138   9.884  0.1562  0.4271  0.6529
27242SOL    HW188587   1.443   7.050   9.849  0.1612  1.0801 -1.1456
27242SOL    HW288588   1.372   7.163   9.920  0.1707 -0.3311  1.2309
27243SOL     OW88589   4.175   7.489   5.197 -0.0301  0.4933  0.2049
27243SOL    HW188590   4.222   7.481   5.114  0.8792 -0.8215  0.8127
27243SOL    HW288591   4.111   7.417   5.194 -0.6441  1.0313  0.2453
27244SOL     OW88592  10.160   7.452  10.490 -0.2990 -0.4583 -0.1493
27244SOL    HW188593  10.104   7.406  10.427  0.4661 -2.2702  0.4414
27244SOL    HW288594  10.202   7.382  10.540  0.9766  0.9083  0.7462
27245SOL     OW88595   5.832  10.497   0.257  0.1025 -0.3936  0.3100
27245SOL    HW188596   5.772  10.526   0.188 -1.6451 -1.4372  1.3130
27245SOL    HW288597   5.897  10.443   0.212  0.5283  1.0463 -0.8574
27246SOL     OW88598   3.978   4.664   5.135  0.1538 -0.0328  0.2084
27246SOL    HW188599   3.939   4.751   5.139 -0.9101 -0.4439 -0.7806
27246SOL    HW288600   3.923   4.611   5.193 -0.2535 -0.4228 -0.5230
27247SOL     OW88601   4.952   8.241  10.694  0.2086  0.3539  0.6764
27247SOL    HW188602   4.872   8.241  10.746  0.4537  1.4133  1.0861
27247SOL    HW288603   5.020   8.208  10.754  0.5193  1.7108  1.1235
27248SOL     OW88604   9.884   2.439   0.555 -0.5358 -0.2674 -0.0211
27248SOL    HW188605   9.851   2.352   0.533  3.0437 -2.2057  1.2901
27248SOL    HW288606   9.877   2.489   0.474  0.7133 -3.0554 -2.0126
27249SOL     OW88607   7.249   4.500   6.030  0.3801 -0.1285 -0.2434
27249SOL    HW188608   7.321   4.525   6.088 -0.6382 -1.2587  1.6036
27249SOL    HW288609   7.198   4.437   6.080 -1.3254 -0.1689 -1.8980
27250SOL     OW88610  11.783   8.772   0.884  0.1745 -0.2079  0.0094
27250SOL    HW188611  11.868   8.811   0.864  0.3102 -1.3348 -1.8444
27250SOL    HW288612  11.721   8.820   0.829 -0.1115 -0.5834  0.0001
27251SOL     OW88613  10.283   4.646  12.140  0.2754 -0.6534 -0.6568
27251SOL    HW188614  10.296   4.664  12.233 -3.2009 -0.2409 -0.1140
27251SOL    HW288615  10.274   4.733  12.100  1.2920 -0.8447 -1.3451
27252SOL     OW88616   2.728   3.352  10.741  0.0765  0.2601  0.1256
27252SOL    HW188617   2.704   3.269  10.699 -2.1962  1.6955 -1.6325
27252SOL    HW288618   2.823   3.356  10.732  0.3664 -2.3839  0.8466
27253SOL     OW88619   0.466   5.206   9.420 -0.2019 -0.4542 -0.0875
27253SOL    HW188620   0.447   5.258   9.498  0.6239  1.7686 -1.2870
27253SOL    HW288621   0.431   5.258   9.348  1.7496 -0.9758 -1.4728
27254SOL     OW88622   4.424   7.861   5.798  0.2877  0.1187  0.0638
27254SOL    HW188623   4.395   7.941   5.840  0.3830  0.9609 -1.4231
27254SOL    HW288624   4.360   7.844   5.730  0.0333 -1.3217  0.6229
27255SOL     OW88625  10.726   5.439   9.028  0.6024 -0.0854 -0.2271
27255SOL    HW188626  10.790   5.371   9.051  0.7244 -0.1072 -0.6338
27255SOL    HW288627  10.775   5.521   9.034  0.8333 -0.1474 -1.1208
27256SOL     OW88628   9.842   7.576   3.055 -0.0600 -0.0531  0.2151
27256SOL    HW188629   9.813   7.620   2.975 -0.4674 -0.5585  0.0845
27256SOL    HW288630   9.862   7.648   3.116  1.4733  0.3769 -0.7449
27257SOL     OW88631   3.766   1.835   4.354 -0.2792 -0.3073  0.1147
27257SOL    HW188632   3.743   1.927   4.341  1.0562  0.0528  0.2087
27257SOL    HW288633   3.686   1.796   4.390 -0.9651  0.7336 -0.2198
27258SOL     OW88634   2.568   3.072   1.294 -0.2650 -0.1544 -0.3739
27258SOL    HW188635   2.663   3.083   1.303 -0.1119  1.4644 -2.9466
27258SOL    HW288636   2.556   2.978   1.280  0.8327 -0.4923  0.7562
27259SOL     OW88637   2.121   0.612   1.882 -0.3414  0.0781 -0.3064
27259SOL    HW188638   2.092   0.606   1.791  0.8292 -0.1900 -0.6870
27259SOL    HW288639   2.043   0.592   1.933 -1.2103  1.0046 -1.2266
27260SOL     OW88640   6.027   9.433   7.921  0.2707 -0.4086 -0.2151
27260SOL    HW188641   5.967   9.442   7.995 -0.3634  0.1861 -0.7825
27260SOL    HW288642   6.043   9.523   7.892  1.3798 -0.5618 -0.1333
27261SOL     OW88643   4.918   7.640   8.470 -0.3311  0.5064 -0.2726
27261SOL    HW188644   4.948   7.549   8.459 -1.6034 -0.0180  0.4507
27261SOL    HW288645   4.998   7.688   8.491  0.5204 -0.2615 -1.5364
27262SOL     OW88646  12.028   4.960   4.724  0.2116  0.2512 -0.2172
27262SOL    HW188647  12.037   4.920   4.637 -0.8359 -0.0796 -0.1938
27262SOL    HW288648  11.985   4.892   4.777 -0.1226  0.8304  0.2642
27263SOL     OW88649   1.242   8.812   6.827 -0.6442  0.1711 -0.3271
27263SOL    HW188650   1.280   8.898   6.841 -0.5326  0.1346 -0.4020
27263SOL    HW288651   1.318   8.754   6.816 -0.6406 -0.2458  1.4845
27264SOL     OW88652   5.018   6.939   8.095 -0.5260 -0.5521 -0.0058
27264SOL    HW188653   5.013   7.033   8.111 -0.7893 -0.6157  0.2952
27264SOL    HW288654   4.930   6.907   8.115 -0.5249 -0.8156 -0.4149
27265SOL     OW88655   8.948  12.148  11.242  0.0259  0.1090  0.1261
27265SOL    HW188656   8.980  12.220  11.187  0.8506  0.0461  0.5053
27265SOL    HW288657   8.856  12.138  11.218  0.1334  0.7094 -0.5589
27266SOL     OW88658   0.398   8.680   7.014 -0.6596  0.0900 -0.3253
27266SOL    HW188659   0.492   8.663   7.016 -0.2519  2.1799  1.1858
27266SOL    HW288660   0.365   8.643   7.096 -0.7454  1.3042  0.2067
27267SOL     OW88661   3.826   1.785   8.551 -0.3273  0.4240 -0.6478
27267SOL    HW188662   3.816   1.831   8.635 -1.9072 -0.3663 -0.3653
27267SOL    HW288663   3.871   1.703   8.574  3.2963  2.0489 -1.2748
27268SOL     OW88664   8.909  11.807   7.662 -0.0434  0.4668 -0.5131
27268SOL    HW188665   8.851  11.802   7.587 -0.8081 -1.0869  0.1355
27268SOL    HW288666   8.986  11.854   7.630 -0.9182  1.0452 -1.8588
27269SOL     OW88667   2.998   5.771   5.471  0.0305  0.5498  0.2629
27269SOL    HW188668   3.062   5.773   5.543 -0.1246 -1.0235  0.4850
27269SOL    HW288669   2.970   5.862   5.461  1.4080  1.0889  0.9665
27270SOL     OW88670   9.587   4.449   4.813 -0.0264 -0.1294  0.0945
27270SOL    HW188671   9.546   4.367   4.841  0.5611 -0.2944  0.4852
27270SOL    HW288672   9.655   4.422   4.751 -0.7604  0.1731 -0.8725
27271SOL     OW88673   2.611   4.360   8.708  0.0680  0.1323 -0.1466
27271SOL    HW188674   2.696   4.320   8.690 -0.8087 -1.0229 -1.9690
27271SOL    HW288675   2.620   4.395   8.796  2.7190  0.8238 -0.5908
27272SOL     OW88676   1.161   7.774  10.555  0.3821  0.0731 -0.4639
27272SOL    HW188677   1.177   7.856  10.603  1.1103 -0.0851 -0.4316
27272SOL    HW288678   1.202   7.787  10.470  0.4368 -0.2329 -0.4850
27273SOL     OW88679   4.810   5.658   1.206  0.4930  0.1459  0.1739
27273SOL    HW188680   4.852   5.730   1.254  1.0998  0.0029 -0.1386
27273SOL    HW288681   4.880   5.593   1.194  0.7562  0.7919 -2.1876
27274SOL     OW88682  10.049   8.235   9.401  0.4660 -0.0557  0.0942
27274SOL    HW188683  10.012   8.224   9.489  0.9650 -0.2947  0.2756
27274SOL    HW288684   9.979   8.277   9.351  0.6601  1.3805  0.9730
27275SOL     OW88685   9.970   8.523   4.040  0.0006 -0.2169  0.5270
27275SOL    HW188686   9.886   8.568   4.048  0.2048  0.1979  0.3540
27275SOL    HW288687  10.008   8.527   4.128 -1.0555 -2.2156  1.1384
27276SOL     OW88688   3.029   3.194   5.418 -0.2177  0.3784  0.2823
27276SOL    HW188689   3.049   3.234   5.502 -0.3202  2.2407 -0.5330
27276SOL    HW288690   2.965   3.253   5.378  0.2650 -0.1418 -1.3292
27277SOL     OW88691   1.053   7.890  10.932 -0.3173  0.8092 -0.0605
27277SOL    HW188692   1.063   7.946  10.856 -0.4088  0.1225 -0.5872
27277SOL    HW288693   0.993   7.821  10.904  0.2597  0.1090  0.3877
27278SOL     OW88694   0.626   3.632  11.721  0.0565  0.2714  0.3331
27278SOL    HW188695   0.667   3.641  11.635  0.2975 -1.5832  0.2176
27278SOL    HW288696   0.661   3.706  11.772  0.3428  1.0688 -0.9667
27279SOL     OW88697   8.300   0.742   2.454  0.4467  0.2395 -0.0758
27279SOL    HW188698   8.276   0.754   2.546  0.5242  3.2869 -0.3524
27279SOL    HW288699   8.223   0.702   2.414 -0.0812  0.0673  1.0940
27280SOL     OW88700   4.222   2.784   9.868 -0.7589 -0.7873  0.1347
27280SOL    HW188701   4.270   2.867   9.867 -0.5130 -0.9278 -1.4441
27280SOL    HW288702   4.276   2.726   9.923  0.6291 -0.7807 -1.1715
27281SOL     OW88703   7.205   6.387   0.317 -0.7808  0.5595  0.4929
27281SOL    HW188704   7.172   6.311   0.364 -0.8290  0.3108  0.0660
27281SOL    HW288705   7.292   6.402   0.353 -0.8646  0.4496  0.7464
27282SOL     OW88706   1.501  12.118   9.199  0.1951  0.2193 -0.3058
27282SOL    HW188707   1.544  12.056   9.140 -0.8724  0.1663 -1.0594
27282SOL    HW288708   1.572  12.174   9.231  1.4565 -2.1950  1.4895
27283SOL     OW88709   6.962  12.020   0.466  0.0642 -0.7407  0.1342
27283SOL    HW188710   6.931  12.053   0.551 -2.1024 -2.3157  0.0322
27283SOL    HW288711   7.004  11.937   0.487  0.2176 -0.7663 -0.2723
27284SOL     OW88712   3.481   4.421   6.306 -0.3509  0.1104 -0.4489
27284SOL    HW188713   3.422   4.496   6.309 -1.3949 -0.6954  3.2682
27284SOL    HW288714   3.424   4.345   6.302  0.6124 -0.6140 -1.1359
27285SOL     OW88715   0.598   8.638  11.295  0.0037  0.0577 -0.0172
27285SOL    HW188716   0.583   8.553  11.336  1.2062 -0.0262  0.2976
27285SOL    HW288717   0.605   8.699  11.368 -1.7229  0.5982 -0.2725
27286SOL     OW88718  11.658   3.954   6.788  0.3497 -0.3928  0.2430
27286SOL    HW188719  11.708   3.916   6.860  1.6091 -0.2640 -0.5439
27286SOL    HW288720  11.712   4.026   6.756 -0.6969  0.2519 -0.1391
27287SOL     OW88721   4.298   7.142  11.864  0.0765 -0.5198 -0.1170
27287SOL    HW188722   4.360   7.096  11.920  2.8532  2.4618 -0.4557
27287SOL    HW288723   4.317   7.110  11.776 -1.0592 -1.7898  0.0611
27288SOL     OW88724   3.718   6.635   2.353 -0.2116  0.2690 -0.2294
27288SOL    HW188725   3.777   6.570   2.316  0.5845  0.7087  0.2468
27288SOL    HW288726   3.659   6.586   2.410 -0.1680 -0.1428 -0.5394
27289SOL     OW88727   8.922  11.189  10.429  0.7630  0.4119 -0.4613
27289SOL    HW188728   8.900  11.159  10.341  0.1107  0.2314 -0.2429
27289SOL    HW288729   8.856  11.149  10.485  1.6021 -0.0598  0.2098
27290SOL     OW88730   7.670   2.185   7.194 -0.0757 -0.4609 -0.1319
27290SOL    HW188731   7.588   2.137   7.202 -1.1267  1.1006 -1.0735
27290SOL    HW288732   7.692   2.180   7.101 -0.5195  1.3141 -0.3630
27291SOL     OW88733   5.209   8.316   1.078 -0.2929  0.4247 -0.7391
27291SOL    HW188734   5.266   8.250   1.115 -0.4414  1.2063  0.9948
27291SOL    HW288735   5.189   8.285   0.990  3.0654  0.2912 -1.5829
27292SOL     OW88736  11.405   3.721   4.264  0.1033 -0.1624  0.1176
27292SOL    HW188737  11.327   3.776   4.264  0.3706  0.2231  0.3758
27292SOL    HW288738  11.478   3.782   4.277  0.3011 -0.6872  1.8154
27293SOL     OW88739   1.043   7.935   3.509 -0.5102  0.0937  0.3404
27293SOL    HW188740   0.971   7.977   3.462 -0.1790  0.9214  0.5429
27293SOL    HW288741   1.081   7.874   3.446 -0.1794  1.0565 -0.4174
27294SOL     OW88742   2.381   8.737   0.569 -0.5684 -0.7580 -0.0548
27294SOL    HW188743   2.329   8.682   0.628 -2.1797  1.7458  1.0196
27294SOL    HW288744   2.464   8.749   0.615 -0.8104 -0.9868  0.4525
27295SOL     OW88745   4.905  10.712   4.861  0.2289 -0.2096 -0.2554
27295SOL    HW188746   4.818  10.740   4.887 -1.2853 -2.6290 -2.2115
27295SOL    HW288747   4.947  10.791   4.828 -1.9486  0.7217 -0.9810
27296SOL     OW88748   4.638   9.998   6.964 -0.4062 -0.2809  0.2614
27296SOL    HW188749   4.586  10.078   6.975 -1.0922 -0.7303  0.3879
27296SOL    HW288750   4.655   9.993   6.870  3.4115  2.3049  0.5993
27297SOL     OW88751   1.561   4.513  10.118 -0.1154 -0.2608 -0.3379
27297SOL    HW188752   1.606   4.528  10.035 -0.4457 -1.4258 -0.7404
27297SOL    HW288753   1.471   4.492  10.093 -0.6912  1.1308  0.4169
27298SOL     OW88754  11.698  11.434   2.277 -0.3005  0.2809  0.0385
27298SOL    HW188755  11.754  11.366   2.315 -0.5180 -0.7094 -1.3385
27298SOL    HW288756  11.641  11.387   2.216 -0.0638  1.7673 -1.3969
27299SOL     OW88757   6.663   5.454   4.989  0.0193  0.0644 -0.0748
27299SOL    HW188758   6.651   5.379   4.931 -0.4500  0.2611 -0.2394
27299SOL    HW288759   6.617   5.526   4.945  1.9711  0.9234 -0.8159
27300SOL     OW88760   5.784   4.083   6.875 -0.1977 -0.3841 -0.4639
27300SOL    HW188761   5.872   4.087   6.837  0.2022  0.6925  0.4703
27300SOL    HW288762   5.731   4.139   6.818  0.0830  0.1341 -0.2341
27301SOL     OW88763   9.297   7.055  10.739 -0.2198  0.2330 -0.3841
27301SOL    HW188764   9.370   6.997  10.717 -1.3041 -1.2720 -0.2140
27301SOL    HW288765   9.337   7.141  10.753  1.5275 -0.5874 -0.1071
27302SOL     OW88766   1.017   3.676   6.485  0.5921  0.0898 -0.0718
27302SOL    HW188767   1.046   3.712   6.402  0.0002 -1.6961 -1.1168
27302SOL    HW288768   0.922   3.683   6.483  0.5097 -0.8756 -0.0119
27303SOL     OW88769  10.215  12.361   6.451  0.8145 -0.0329  0.4810
27303SOL    HW188770  10.263  12.279   6.439 -0.7946 -0.9435 -0.1079
27303SOL    HW288771  10.141  12.355   6.390  1.5977  2.6707 -0.8940
27304SOL     OW88772   4.481   1.320   9.171 -0.2086 -0.4120  0.1862
27304SOL    HW188773   4.492   1.246   9.231 -1.2536  0.0686  1.0029
27304SOL    HW288774   4.508   1.285   9.086 -0.1857 -1.5786  0.6420
27305SOL     OW88775   9.084   7.717   6.967  0.1931  0.0780  0.0089
27305SOL    HW188776   9.120   7.802   6.994 -0.6604  0.8507 -1.1431
27305SOL    HW288777   9.023   7.694   7.037  1.8262 -0.5462  1.2683
27306SOL     OW88778   3.231   6.634   0.132  0.2957 -0.7208  0.0398
27306SOL    HW188779   3.164   6.680   0.082  0.9350 -0.2411 -0.3849
27306SOL    HW288780   3.212   6.657   0.223 -0.8880 -1.6200  0.0436
27307SOL     OW88781   6.184   8.887   0.515  0.5468 -0.0386 -0.3857
27307SOL    HW188782   6.231   8.804   0.513  2.1737  0.8211 -2.4422
27307SOL    HW288783   6.092   8.863   0.527  1.1710 -1.9835  0.9158
27308SOL     OW88784   5.205  10.883   9.593 -0.3171  0.2033  0.2485
27308SOL    HW188785   5.233  10.974   9.601 -2.9604  1.0339  1.5046
27308SOL    HW288786   5.251  10.838   9.664  1.0438  0.5105 -0.4064
27309SOL     OW88787   1.124   6.200   4.852 -0.1884 -0.2547  0.4619
27309SOL    HW188788   1.185   6.274   4.849 -1.4064  0.7729 -1.5682
27309SOL    HW288789   1.048   6.234   4.899  0.2847 -1.1234  1.8870
27310SOL     OW88790   7.746   1.048   5.545 -0.1828  0.0652 -0.2045
27310SOL    HW188791   7.838   1.071   5.531  0.8133 -2.4193  1.4729
27310SOL    HW288792   7.699   1.093   5.475  2.6064 -0.5573 -2.6599
27311SOL     OW88793  10.647   9.161   5.975  0.3057 -0.3809 -0.3305
27311SOL    HW188794  10.661   9.240   5.925 -0.1378  0.2439  0.5020
27311SOL    HW288795  10.718   9.102   5.949  0.0091 -0.1367 -1.7618
27312SOL     OW88796   0.224   7.439   5.013 -0.3133 -0.1805 -0.0282
27312SOL    HW188797   0.166   7.506   5.048  1.5850  1.7791 -0.3680
27312SOL    HW288798   0.270   7.482   4.941  0.9024 -1.8865 -0.3485
27313SOL     OW88799  11.199  12.136  11.707  0.1898 -0.0461  0.5871
27313SOL    HW188800  11.114  12.177  11.719  0.5205  1.0222 -0.5071
27313SOL    HW288801  11.260  12.195  11.751  0.5299 -0.0279  0.0930
27314SOL     OW88802   3.436   6.660   3.836 -0.4567 -0.1481  0.1533
27314SOL    HW188803   3.365   6.683   3.776 -0.1384 -0.0679 -0.1956
27314SOL    HW288804   3.478   6.584   3.795  1.1133  1.1950 -0.8586
27315SOL     OW88805  12.189   9.259   9.237  0.4724  0.0325  0.2830
27315SOL    HW188806  12.283   9.262   9.255  0.3471  2.3183  0.9406
27315SOL    HW288807  12.179   9.303   9.153  0.0887 -1.6465 -0.5981
27316SOL     OW88808   5.484   8.702   0.132 -0.2719  0.0415 -0.0447
27316SOL    HW188809   5.483   8.751   0.214 -1.5038  0.9879 -0.5842
27316SOL    HW288810   5.427   8.753   0.074 -0.8918 -1.5970 -0.9121
27317SOL     OW88811   5.144   6.498   1.155  0.2779  0.5956  0.0102
27317SOL    HW188812   5.124   6.582   1.114  0.1684  0.2169 -0.7135
27317SOL    HW288813   5.238   6.485   1.139  0.1280  0.2039 -0.5832
27318SOL     OW88814   6.917  10.995   2.948  0.5799  0.0581 -0.1331
27318SOL    HW188815   6.997  11.028   2.908  0.0581 -0.5814 -1.8022
27318SOL    HW288816   6.846  11.044   2.905  0.0441  0.3086  0.9988
27319SOL     OW88817   6.789   5.893   8.016 -0.1668  0.2332 -0.0656
27319SOL    HW188818   6.703   5.909   8.056 -0.7302 -0.6793 -0.8648
27319SOL    HW288819   6.798   5.798   8.017  0.2756  0.2552 -1.1155
27320SOL     OW88820  12.357   8.586  11.967 -0.2998 -0.4354 -0.1234
27320SOL    HW188821  12.325   8.655  12.025  0.7888 -0.8428  0.9931
27320SOL    HW288822  12.451   8.583  11.982  0.3327  0.5520 -3.1362
27321SOL     OW88823   7.425   6.187   0.425 -0.2719 -0.0764  0.5819
27321SOL    HW188824   7.461   6.223   0.506  0.1698 -0.4328  0.5476
27321SOL    HW288825   7.485   6.215   0.357  1.0021 -2.1580  0.7462
27322SOL     OW88826   5.684   5.827   1.459  0.0990 -0.0996  0.3518
27322SOL    HW188827   5.667   5.887   1.387  0.7130 -0.0138  0.2688
27322SOL    HW288828   5.599   5.787   1.479  0.0922 -0.8174 -1.0359
27323SOL     OW88829  12.446   2.849   0.172  0.1928 -0.5375  0.4105
27323SOL    HW188830  12.512   2.784   0.146 -0.3874 -1.1637  0.4750
27323SOL    HW288831  12.363   2.802   0.168 -0.1840  0.0574  0.9652
27324SOL     OW88832   4.408   4.126   2.522  0.2868 -0.2896 -0.0522
27324SOL    HW188833   4.390   4.061   2.589  0.8777 -1.1238 -0.6884
27324SOL    HW288834   4.457   4.195   2.568  1.3411 -1.2028  0.2219
27325SOL     OW88835   9.071   4.098   1.973  0.8295 -0.4014  0.3700
27325SOL    HW188836   9.109   4.121   2.058  0.7301 -2.2445  0.9465
27325SOL    HW288837   9.003   4.034   1.994 -0.2650  0.2711 -0.9799
27326SOL     OW88838   5.697   5.065   5.139  0.1890 -0.5393  0.4234
27326SOL    HW188839   5.750   4.996   5.178 -0.2129 -1.1726 -0.1336
27326SOL    HW288840   5.613   5.023   5.119 -0.4426  0.3751  1.0418
27327SOL     OW88841  10.066  10.750   2.631 -1.1285 -0.1259  0.1237
27327SOL    HW188842  10.128  10.813   2.593  0.4788 -3.0521 -2.5361
27327SOL    HW288843  10.118  10.701   2.694 -1.7630 -0.2780  0.5334
27328SOL     OW88844   4.975   6.053   3.703  0.3312  0.0903  0.2951
27328SOL    HW188845   4.911   6.123   3.690 -0.8124 -0.8424  0.7490
27328SOL    HW288846   4.970   6.001   3.623  0.9775  0.3604  0.0749
27329SOL     OW88847   2.798  12.259   8.697  0.1268 -0.2395  0.4804
27329SOL    HW188848   2.754  12.186   8.739 -2.7041  0.8870 -0.3313
27329SOL    HW288849   2.804  12.235   8.605 -0.1495  0.2575  0.3317
27330SOL     OW88850   5.802  10.924   5.850  0.0883 -0.5036  0.5864
27330SOL    HW188851   5.780  10.885   5.765  1.9625 -1.2336  0.3884
27330SOL    HW288852   5.793  11.018   5.837  2.0552 -0.4847 -0.9894
27331SOL     OW88853  11.046   2.439  11.870  0.0629  0.1810 -0.2619
27331SOL    HW188854  10.970   2.422  11.926  0.2409 -0.5305 -0.2223
27331SOL    HW288855  11.019   2.511  11.814  0.8535  2.8979  2.5889
27332SOL     OW88856   3.019  11.577   1.731 -0.3078  0.0905 -0.5513
27332SOL    HW188857   3.076  11.628   1.674 -0.5789  0.6529 -0.3251
27332SOL    HW288858   3.074  11.552   1.805 -0.0496 -0.3441 -0.8861
27333SOL     OW88859   8.434   8.762   2.390  0.2893  0.9700 -0.0194
27333SOL    HW188860   8.418   8.784   2.298 -0.5698  1.2002  0.1689
27333SOL    HW288861   8.347   8.739   2.424  1.0612 -2.6758 -0.1694
27334SOL     OW88862   8.364  11.312   9.743 -0.5957  0.0316 -0.0996
27334SOL    HW188863   8.368  11.322   9.838 -1.6391 -1.4414  0.1302
27334SOL    HW288864   8.365  11.217   9.729  2.9792  0.1473 -1.7617
27335SOL     OW88865   3.224   8.648   8.841  0.2076  0.6833 -0.7049
27335SOL    HW188866   3.147   8.594   8.821  0.8683 -0.7411  0.4063
27335SOL    HW288867   3.257   8.674   8.756 -0.2443 -0.5462 -1.2894
27336SOL     OW88868   4.858  12.229  12.259 -0.2257  0.0757 -0.3988
27336SOL    HW188869   4.804  12.209  12.335 -0.9910 -0.1358 -0.9938
27336SOL    HW288870   4.824  12.174  12.189  1.1276 -0.4957 -0.6452
27337SOL     OW88871   1.319   4.660   6.141  0.8514  0.4555 -0.3935
27337SOL    HW188872   1.259   4.684   6.212 -0.2309 -3.7729  0.4033
27337SOL    HW288873   1.267   4.671   6.061 -0.5763 -1.6217  0.1645
27338SOL     OW88874   7.849  11.973   9.534 -0.0438 -0.6740  0.9551
27338SOL    HW188875   7.915  12.032   9.570  0.1417 -0.2976  0.0284
27338SOL    HW288876   7.767  11.998   9.577  0.2754 -0.6340  1.5442
27339SOL     OW88877   2.458  10.684   1.794 -0.0757  0.2644 -0.0343
27339SOL    HW188878   2.456  10.718   1.883 -1.8320  1.8434 -0.6028
27339SOL    HW288879   2.372  10.641   1.783  0.3661 -0.4682 -0.7768
27340SOL     OW88880  12.359   5.067   2.726  0.2735 -0.5831  0.1203
27340SOL    HW188881  12.442   5.040   2.687 -0.0072  0.8100 -1.5534
27340SOL    HW288882  12.380   5.147   2.775 -0.3573  0.9642 -1.9806
27341SOL     OW88883   4.661   0.142   4.987  0.1672 -0.1799  0.1945
27341SOL    HW188884   4.604   0.208   5.026 -0.6391 -0.0763 -1.0893
27341SOL    HW288885   4.683   0.178   4.901  2.2275 -0.1999  0.6645
27342SOL     OW88886   6.368   5.772  11.379 -0.2856  0.2320  0.0367
27342SOL    HW188887   6.450   5.727  11.400 -0.0800 -0.0596 -1.2697
27342SOL    HW288888   6.394   5.861  11.359 -0.5232  0.6023  1.3020
27343SOL     OW88889   0.226   2.154   3.859 -0.5472 -0.1161  0.1178
27343SOL    HW188890   0.227   2.190   3.770 -2.0432 -0.8034 -0.2161
27343SOL    HW288891   0.273   2.071   3.852 -0.7801 -0.2360 -0.0842
27344SOL     OW88892   2.690  11.240  12.304  0.0577  0.4935  0.4335
27344SOL    HW188893   2.649  11.162  12.341  1.6149 -0.8191 -0.5018
27344SOL    HW288894   2.771  11.209  12.264  1.3673  2.7704  1.0869
27345SOL     OW88895  10.159   1.389   0.811 -0.8914  0.1409  0.2149
27345SOL    HW188896  10.188   1.446   0.740  0.9877  0.0459  0.8488
27345SOL    HW288897  10.219   1.314   0.808 -1.5174 -0.4209  1.1591
27346SOL     OW88898   1.642   7.485   4.095 -0.0460  0.5480  0.3801
27346SOL    HW188899   1.714   7.524   4.145  0.9359  0.1721 -0.6896
27346SOL    HW288900   1.636   7.395   4.128  0.6142  0.2936 -0.1772
27347SOL     OW88901   5.217   0.861   0.974 -0.0005  0.3063 -0.1747
27347SOL    HW188902   5.189   0.902   1.056 -0.4893 -0.4508  0.0485
27347SOL    HW288903   5.135   0.838   0.930  0.2380 -1.1796  0.0990
27348SOL     OW88904   8.122   1.206   7.794 -0.1555  0.4228  0.5570
27348SOL    HW188905   8.145   1.225   7.703  2.4460  0.7792  1.2077
27348SOL    HW288906   8.038   1.160   7.788  0.9068 -1.4900 -2.2194
27349SOL     OW88907   0.488   7.273   5.015  0.2830 -0.0279  0.0227
27349SOL    HW188908   0.401   7.286   5.051  0.7211 -0.0014  1.1096
27349SOL    HW288909   0.474   7.225   4.933 -0.6098 -2.0756  1.3164
27350SOL     OW88910   7.564   5.852   8.797 -0.1249 -0.1048 -0.1461
27350SOL    HW188911   7.654   5.839   8.827 -0.2896  0.7878  0.8237
27350SOL    HW288912   7.569   5.928   8.739 -0.0284 -0.9940 -1.3382
27351SOL     OW88913   6.650  10.998   9.170 -0.3162 -0.1104 -0.3185
27351SOL    HW188914   6.643  11.091   9.148  0.5035 -0.0122 -0.1631
27351SOL    HW288915   6.720  10.965   9.114  0.7343 -0.2048  1.0013
27352SOL     OW88916  11.019   1.334   4.730 -0.3429  0.6322 -0.3070
27352SOL    HW188917  11.071   1.254   4.726  0.0867  0.9417 -2.1891
27352SOL    HW288918  10.950   1.315   4.793 -0.2412 -1.2264 -0.6893
27353SOL     OW88919   3.876   1.124   6.668 -0.5496 -0.3443  0.1137
27353SOL    HW188920   3.804   1.135   6.605 -0.0266  0.9054 -0.3036
27353SOL    HW288921   3.892   1.212   6.701  2.3976 -0.1127 -1.6294
27354SOL     OW88922  10.119   1.590   4.674 -0.0569  0.4073 -0.1463
27354SOL    HW188923  10.179   1.560   4.742 -0.6553  1.6117  0.9703
27354SOL    HW288924  10.045   1.529   4.679  0.0796  0.2516  0.0070
27355SOL     OW88925  10.972  10.258  12.111  0.1563  1.1997  0.4914
27355SOL    HW188926  10.971  10.269  12.016  2.2985 -0.0453  0.2844
27355SOL    HW288927  10.981  10.164  12.125  0.4380  1.4140  1.9311
27356SOL     OW88928  11.271   7.895   8.570 -0.2576 -0.6529  0.8127
27356SOL    HW188929  11.194   7.846   8.543 -0.9476  1.4872 -1.4927
27356SOL    HW288930  11.271   7.972   8.515  3.0032 -0.0414  1.4438
27357SOL     OW88931   6.084   3.305   1.095  0.3217 -0.1405 -0.2492
27357SOL    HW188932   6.041   3.372   1.147  1.7948  0.7234 -0.0787
27357SOL    HW288933   6.014   3.266   1.042 -0.1311  4.3836 -3.6045
27358SOL     OW88934   6.326   8.207   8.726 -0.5776 -0.1022 -0.3065
27358SOL    HW188935   6.282   8.154   8.659  0.7507 -2.0642  0.2786
27358SOL    HW288936   6.419   8.184   8.717 -0.1458  1.0152  0.9914
27359SOL     OW88937   8.288   3.690   6.128  0.3147  0.1021 -0.0764
27359SOL    HW188938   8.241   3.631   6.188 -0.5974 -0.3576 -1.2070
27359SOL    HW288939   8.276   3.777   6.166  1.6199 -0.3848  1.5826
27360SOL     OW88940   8.898   8.715  10.447 -0.2835  0.2154  0.5894
27360SOL    HW188941   8.867   8.768  10.373  1.4652  1.0511  0.3922
27360SOL    HW288942   8.856   8.755  10.524  0.5615  1.6089  0.3798
27361SOL     OW88943   5.143   6.887   0.950  0.1007 -0.2577 -0.0669
27361SOL    HW188944   5.082   6.960   0.961 -0.2795 -0.6868  0.7982
27361SOL    HW288945   5.110   6.819   1.009  0.8320 -0.8801 -0.3551
27362SOL     OW88946  11.243   9.296   5.158  0.1617  0.2619  0.2356
27362SOL    HW188947  11.309   9.226   5.163 -0.4536 -0.2571  1.7455
27362SOL    HW288948  11.203   9.297   5.245  1.1933  3.5395  0.8258
27363SOL     OW88949   8.675  11.386   0.020 -0.2201  0.0103  0.0888
27363SOL    HW188950   8.616  11.355   0.089 -3.0541 -0.0742 -2.1646
27363SOL    HW288951   8.746  11.322   0.019 -0.0877 -0.0114  2.7963
27364SOL     OW88952   4.192   5.859   7.799  0.2791  0.6261 -0.0434
27364SOL    HW188953   4.110   5.852   7.750 -1.3605  1.1819  2.4160
27364SOL    HW288954   4.233   5.938   7.764 -0.7418  0.9155 -0.6552
27365SOL     OW88955   5.543   5.878   7.136 -0.4926  0.3930 -0.2439
27365SOL    HW188956   5.454   5.867   7.168 -1.1562  0.7657 -1.8691
27365SOL    HW288957   5.554   5.973   7.128 -0.2961  0.3174 -0.9431
27366SOL     OW88958   2.841   1.446   9.625 -0.2522  0.3454  0.8060
27366SOL    HW188959   2.773   1.440   9.693 -0.1202 -0.4425  0.8826
27366SOL    HW288960   2.923   1.444   9.673 -0.1360 -1.2815  0.5877
27367SOL     OW88961   7.176   8.918  10.380  0.1743 -0.1962  0.6449
27367SOL    HW188962   7.189   8.913  10.475 -0.7030 -0.5964  0.7497
27367SOL    HW288963   7.217   9.001  10.355  0.2981 -0.0222  1.3932
27368SOL     OW88964  11.958   6.280   2.470 -0.1463 -1.0655  0.1318
27368SOL    HW188965  12.040   6.287   2.421  0.0647 -0.9310  0.5011
27368SOL    HW288966  11.890   6.281   2.403  0.2064 -2.6847 -0.3122
27369SOL     OW88967   6.043   9.043  10.679  0.0934 -0.4571 -0.5667
27369SOL    HW188968   5.990   8.964  10.684  0.4396 -0.7136 -0.9779
27369SOL    HW288969   6.078   9.044  10.590 -1.5489  1.2228 -1.2653
27370SOL     OW88970   6.907   6.320  10.643  0.1402  0.4289 -0.4574
27370SOL    HW188971   6.967   6.340  10.714  1.6137 -2.2731 -0.7916
27370SOL    HW288972   6.934   6.377  10.571  1.2812  0.3607 -0.0997
27371SOL     OW88973   4.129   8.509   4.360 -0.0581 -0.3632  0.1006
27371SOL    HW188974   4.125   8.452   4.437 -1.1090 -0.8271 -0.2823
27371SOL    HW288975   4.222   8.533   4.353  0.1903 -0.9941  1.0110
27372SOL     OW88976   4.882   0.636  11.734 -0.0087 -0.1871 -0.6767
27372SOL    HW188977   4.967   0.597  11.756 -0.5725 -0.5903  0.9044
27372SOL    HW288978   4.841   0.573  11.675  0.2666 -0.6189 -0.4158
27373SOL     OW88979  12.343   6.788   1.523 -0.3463  0.0813  0.7265
27373SOL    HW188980  12.311   6.866   1.569  0.5001 -0.0245  1.5393
27373SOL    HW288981  12.336   6.718   1.588 -0.0111 -0.2707  0.3881
27374SOL     OW88982  10.178   1.665   8.711 -0.6507 -0.0272  0.4494
27374SOL    HW188983  10.088   1.652   8.679 -0.6439 -0.9702  0.7806
27374SOL    HW288984  10.181   1.615   8.793  0.3932 -0.6297  0.0568
27375SOL     OW88985   9.692  10.730   1.453 -0.1017 -0.5489 -0.0236
27375SOL    HW188986   9.711  10.700   1.542  2.0035 -0.2403 -0.3292
27375SOL    HW288987   9.695  10.651   1.399 -1.2235 -0.7123  0.1208
27376SOL     OW88988   2.796   2.959   3.005  0.2023 -0.3021 -0.7187
27376SOL    HW188989   2.880   2.967   3.051  0.1677  1.3178 -0.8926
27376SOL    HW288990   2.805   3.016   2.929 -1.4276  0.7536 -0.1768
27377SOL     OW88991   6.733   7.459   7.095  0.6653  0.4088  0.4509
27377SOL    HW188992   6.731   7.387   7.158 -1.2357  0.4596  0.5086
27377SOL    HW288993   6.747   7.416   7.010  1.2957  0.1573  0.6747
27378SOL     OW88994   1.175   3.765  11.214  0.5268  0.1579  0.2181
27378SOL    HW188995   1.240   3.703  11.180  3.3587  1.4314  2.8382
27378SOL    HW288996   1.130   3.798  11.136  1.9992 -1.8795 -1.6032
27379SOL     OW88997   3.307   1.290   8.248  0.5423 -0.8166  0.1050
27379SOL    HW188998   3.376   1.232   8.279  2.9663  0.8065 -1.8647
27379SOL    HW288999   3.340   1.378   8.267 -2.3146  0.0746  1.6178
27380SOL     OW89000   4.815   1.889   1.719 -0.4450  0.0097  0.0312
27380SOL    HW189001   4.780   1.961   1.772  0.2771  0.2453  0.2050
27380SOL    HW289002   4.857   1.933   1.645  2.1201 -0.0443  1.3542
27381SOL     OW89003   7.600   8.479  11.733 -0.3647 -0.7118  0.2318
27381SOL    HW189004   7.595   8.456  11.640  0.8320  1.5646 -0.4816
27381SOL    HW289005   7.548   8.413  11.777 -0.1741 -2.4303 -1.9563
27382SOL     OW89006   6.123   5.880   8.814 -0.5490  0.4114 -0.3257
27382SOL    HW189007   6.134   5.955   8.873 -2.4771  1.0075 -0.6664
27382SOL    HW289008   6.060   5.823   8.859 -0.5906 -0.0447 -0.9524
27383SOL     OW89009  11.709   5.607   3.309  0.4048  0.1846  0.6231
27383SOL    HW189010  11.708   5.544   3.381 -1.3210  0.4069  0.8553
27383SOL    HW289011  11.727   5.691   3.352  1.7338  0.0026  0.4481
27384SOL     OW89012   2.078   3.774   7.923  0.0159 -0.6372 -0.0399
27384SOL    HW189013   2.173   3.778   7.934  0.1572 -2.1550 -0.4928
27384SOL    HW289014   2.058   3.845   7.862  0.8291 -0.2042  0.1811
27385SOL     OW89015  10.487   2.367   6.593 -0.4470  0.3008  0.1573
27385SOL    HW189016  10.462   2.287   6.548 -1.0133 -0.1172  1.1696
27385SOL    HW289017  10.432   2.369   6.671  0.9780  0.6309  1.1980
27386SOL     OW89018   5.431   9.328   0.972  0.1727  0.1951 -0.1454
27386SOL    HW189019   5.451   9.367   1.057 -0.1963 -0.5481  0.2931
27386SOL    HW289020   5.336   9.332   0.965  0.2690  1.3397 -1.0655
27387SOL     OW89021   5.421  10.701  12.072  0.0969  0.1707 -0.3776
27387SOL    HW189022   5.379  10.786  12.067 -0.5236 -0.1648 -1.3506
27387SOL    HW289023   5.512  10.720  12.092 -0.0033  1.0704 -0.7251
27388SOL     OW89024   4.082  12.152  11.902  0.0068 -0.3700  0.1996
27388SOL    HW189025   4.108  12.105  11.981 -0.4338  0.4935  0.8823
27388SOL    HW289026   3.986  12.145  11.900  0.0403 -0.6984 -0.4619
27389SOL     OW89027   1.677  11.475   8.125 -0.5902 -0.3195 -0.1103
27389SOL    HW189028   1.608  11.538   8.106 -0.9641 -0.9290 -0.8231
27389SOL    HW289029   1.687  11.478   8.220 -0.2088  1.1993 -0.1817
27390SOL     OW89030   5.533   4.265   3.090 -0.3405 -0.1618  0.0272
27390SOL    HW189031   5.592   4.203   3.048  0.3470  0.2359  0.3873
27390SOL    HW289032   5.588   4.313   3.152 -0.4491  1.9741 -1.4025
27391SOL     OW89033   8.198   9.960   8.728 -0.3734  0.1857 -0.6223
27391SOL    HW189034   8.136  10.031   8.744 -2.8485 -1.7665 -1.0090
27391SOL    HW289035   8.170   9.890   8.786  2.5516 -0.2637  0.3947
27392SOL     OW89036   8.431   0.099  11.633 -0.5813 -0.0127 -0.2074
27392SOL    HW189037   8.522   0.071  11.633 -0.9688 -1.3185 -0.4897
27392SOL    HW289038   8.435   0.194  11.647  0.9643  0.4289 -2.9147
27393SOL     OW89039   3.004   5.576  11.166  0.6449 -0.6812  0.1072
27393SOL    HW189040   2.948   5.612  11.235  1.2147 -2.1745  1.4357
27393SOL    HW289041   3.042   5.652  11.124 -1.8599  0.3628 -0.4391
27394SOL     OW89042   3.366  11.655   3.744 -0.2395  0.3745  0.6369
27394SOL    HW189043   3.328  11.686   3.662 -0.3316 -1.5567 -0.0992
27394SOL    HW289044   3.299  11.597   3.781  0.6744 -0.5009  0.9559
27395SOL     OW89045   1.200   6.703   7.636  0.6564  0.0421  0.4350
27395SOL    HW189046   1.179   6.776   7.577 -0.0542 -1.2276 -0.9727
27395SOL    HW289047   1.210   6.744   7.722 -0.4326  1.7132 -0.1617
27396SOL     OW89048   5.755  12.459   7.581 -0.4042  0.9852  0.5194
27396SOL    HW189049   5.729  12.549   7.602 -0.2152  1.3601 -0.7527
27396SOL    HW289050   5.844  12.451   7.615 -0.8958  0.8221  1.8274
27397SOL     OW89051   0.722   6.629   5.412 -0.2558  0.3175 -0.3886
27397SOL    HW189052   0.647   6.584   5.372 -0.8740 -0.0581  1.0986
27397SOL    HW289053   0.684   6.706   5.454 -0.2990 -1.1200  2.4523
27398SOL     OW89054   0.808   4.325   0.356  0.4143  0.4074 -0.3293
27398SOL    HW189055   0.811   4.405   0.302  1.2231  0.9141  0.4377
27398SOL    HW289056   0.828   4.356   0.444 -1.2569 -0.3569  0.3437
27399SOL     OW89057  11.151  12.472   4.249  0.8859 -0.2723 -0.0305
27399SOL    HW189058  11.187  12.398   4.297  1.3157 -0.9824 -1.4040
27399SOL    HW289059  11.227  12.521   4.218  0.6263 -0.0195 -0.2788
27400SOL     OW89060   0.078  11.304   8.250  0.1528  0.1043 -0.2435
27400SOL    HW189061  -0.007  11.259   8.248  1.3194 -2.2594 -1.0467
27400SOL    HW289062   0.117  11.278   8.333  0.8435 -0.4180 -0.7167
27401SOL     OW89063   9.065   1.592   1.541 -0.7964  0.4382  0.0296
27401SOL    HW189064   9.065   1.551   1.454 -0.1300  0.5342 -0.0200
27401SOL    HW289065   8.974   1.585   1.571 -0.6551 -1.4225  0.1762
27402SOL     OW89066  11.090  10.156  11.689 -0.0513 -0.4246  0.2842
27402SOL    HW189067  11.159  10.218  11.666  0.1226 -0.6241  0.2668
27402SOL    HW289068  11.103  10.137  11.782 -0.5353  0.1018  0.4664
27403SOL     OW89069   3.600   2.080  11.203 -0.2592  0.1427 -0.2373
27403SOL    HW189070   3.663   2.152  11.203  0.0785 -0.1507 -0.3273
27403SOL    HW289071   3.520   2.118  11.239 -0.8730  1.2792 -2.5576
27404SOL     OW89072  10.098   5.848   7.938 -0.2506 -0.3024 -0.5412
27404SOL    HW189073  10.046   5.768   7.929 -1.1680  0.0475  1.2583
27404SOL    HW289074  10.187   5.817   7.953 -0.5606 -0.9896 -0.0811
27405SOL     OW89075   3.058   8.373  10.140  0.1882 -0.4535  0.6467
27405SOL    HW189076   3.051   8.279  10.122  1.1525 -0.1869 -1.4648
27405SOL    HW289077   3.005   8.414  10.072  1.6018  0.5781  0.1167
27406SOL     OW89078   6.378  12.098  12.382 -0.1034  0.8264 -0.0864
27406SOL    HW189079   6.382  12.019  12.329 -1.1323  0.6726  0.0299
27406SOL    HW289080   6.427  12.163  12.332 -0.6067  0.5401 -0.9799
27407SOL     OW89081  10.030  11.151  10.118 -0.4174 -0.1321  0.7793
27407SOL    HW189082  10.027  11.208  10.041 -0.8491 -0.0483  0.8509
27407SOL    HW289083   9.983  11.200  10.186  2.1072  0.9211  1.8834
27408SOL     OW89084   1.786   0.130   6.406 -0.5359  0.2975  0.4454
27408SOL    HW189085   1.873   0.094   6.391 -1.0655 -1.3004  1.0626
27408SOL    HW289086   1.732   0.093   6.337 -0.9554  0.4520  0.6858
27409SOL     OW89087  11.813   7.563   8.025 -0.3429  0.0317 -0.4108
27409SOL    HW189088  11.726   7.530   8.044  0.0461  0.1916  2.0751
27409SOL    HW289089  11.802   7.658   8.022 -0.1535  0.1100  0.8048
27410SOL     OW89090   8.457   4.868   7.915 -0.0404 -0.4039 -0.4389
27410SOL    HW189091   8.459   4.880   7.820 -2.1395 -0.4506 -0.5375
27410SOL    HW289092   8.490   4.780   7.929  1.1253 -0.0818 -1.0290
27411SOL     OW89093   1.795   3.723  10.123 -0.5104  0.2167  0.0803
27411SOL    HW189094   1.814   3.762  10.037  1.2129 -0.8920 -0.0831
27411SOL    HW289095   1.840   3.639  10.122  0.6660  0.7146  2.5413
27412SOL     OW89096   2.753   9.068  11.276  0.2489  0.1695 -0.2179
27412SOL    HW189097   2.747   9.047  11.369  1.1564 -1.4469 -0.4807
27412SOL    HW289098   2.846   9.065  11.256  0.1268  1.2541 -1.0341
27413SOL     OW89099   7.830   7.812   6.780 -0.0842  0.0401  0.3223
27413SOL    HW189100   7.796   7.816   6.690  0.2052  1.0594  0.2398
27413SOL    HW289101   7.879   7.730   6.783  0.4032  0.2691 -0.6522
27414SOL     OW89102   9.536   8.118  11.833  0.4447 -0.2209 -1.1877
27414SOL    HW189103   9.468   8.181  11.810  2.1408  2.5297  0.6937
27414SOL    HW289104   9.516   8.093  11.923  1.7165  0.4236 -0.7027
27415SOL     OW89105  11.659   7.681   7.033 -0.2271 -0.4431  0.1703
27415SOL    HW189106  11.710   7.693   6.953  1.4627  0.9792  1.4085
27415SOL    HW289107  11.667   7.764   7.080  0.3533 -1.8066  2.6691
27416SOL     OW89108  11.944   2.702   7.518 -0.2990  0.0667 -0.2985
27416SOL    HW189109  11.908   2.791   7.512 -0.2885  0.1444  0.6507
27416SOL    HW289110  11.939   2.668   7.429 -2.0599  0.3369 -0.3257
27417SOL     OW89111  11.903   9.443   4.169  0.1881 -0.6862  0.3246
27417SOL    HW189112  11.871   9.353   4.168  0.3454 -0.8217 -2.6326
27417SOL    HW289113  11.998   9.435   4.159  0.4754 -0.1739  2.2784
27418SOL     OW89114   0.913   1.413  10.745 -0.7433  0.2139  0.1062
27418SOL    HW189115   0.855   1.351  10.703  0.7579 -1.7221  0.7368
27418SOL    HW289116   0.857   1.487  10.769 -2.2467 -0.0840 -2.2392
27419SOL     OW89117   6.488  12.392   9.573  0.2146  0.2268  0.2800
27419SOL    HW189118   6.530  12.437   9.500 -0.1609  0.3464  0.1338
27419SOL    HW289119   6.556  12.335   9.609 -0.3008 -1.8983 -1.8665
27420SOL     OW89120   2.542  11.595   3.300 -0.7074 -0.9560 -0.9665
27420SOL    HW189121   2.478  11.529   3.326  0.6760 -1.8578  0.3171
27420SOL    HW289122   2.491  11.673   3.283 -2.0458 -1.2768  1.2834
27421SOL     OW89123   5.769   0.909   2.104 -0.0200  0.2014 -0.0052
27421SOL    HW189124   5.741   0.928   2.015 -4.8872 -1.8063  0.7875
27421SOL    HW289125   5.761   0.993   2.150 -1.0331  0.5432 -0.7667
27422SOL     OW89126   0.591   1.601   3.857  0.2448  0.3819  0.6198
27422SOL    HW189127   0.589   1.510   3.828  1.8160  0.5023  0.0072
27422SOL    HW289128   0.533   1.604   3.933 -1.4956 -0.6465 -0.5973
27423SOL     OW89129  11.652   3.100   9.786  0.5297 -0.4186 -0.0115
27423SOL    HW189130  11.684   3.014   9.758  0.1340  0.2779 -3.0279
27423SOL    HW289131  11.728   3.158   9.780  0.4980 -0.3008  0.6926
27424SOL     OW89132  12.086  10.588   3.470 -0.1933  0.0936  0.2734
27424SOL    HW189133  12.002  10.549   3.446  0.2392 -0.5206 -0.2712
27424SOL    HW289134  12.151  10.529   3.434  0.4821  0.7145  0.4503
27425SOL     OW89135   8.211   9.671   2.239  0.0250  0.0208  0.4004
27425SOL    HW189136   8.228   9.758   2.204 -1.0755 -0.7527 -2.3647
27425SOL    HW289137   8.295   9.626   2.233  0.0705  0.2001 -0.4598
27426SOL     OW89138   7.239   9.747   2.887  0.1869 -0.3408 -0.2474
27426SOL    HW189139   7.272   9.831   2.856  0.9360 -0.8099 -0.7302
27426SOL    HW289140   7.305   9.717   2.949 -0.8903  0.1976  1.2308
27427SOL     OW89141   2.299   9.391  11.337  0.3784 -0.2000  0.0168
27427SOL    HW189142   2.373   9.340  11.304  1.7148  1.3082  0.5462
27427SOL    HW289143   2.339   9.470  11.373 -1.5678  0.9806 -0.2855
27428SOL     OW89144   7.032   7.769  10.923 -0.4389 -0.1136  0.0008
27428SOL    HW189145   6.975   7.705  10.882  0.2139 -0.4551 -0.3903
27428SOL    HW289146   7.069   7.723  10.998 -0.3193 -0.0433 -0.0155
27429SOL     OW89147   8.172  12.225  10.036 -0.7463 -0.1520 -0.0066
27429SOL    HW189148   8.195  12.188   9.951 -2.9197  2.5064 -1.9775
27429SOL    HW289149   8.233  12.298  10.048 -2.7125  1.8748 -1.3324
27430SOL     OW89150   8.835   2.437  11.247 -0.3274  0.4345  0.0711
27430SOL    HW189151   8.790   2.398  11.323 -0.3752 -0.6887 -0.5212
27430SOL    HW289152   8.927   2.439  11.272 -0.5561  1.8946  0.9247
27431SOL     OW89153   1.648   2.832   1.776 -0.2072 -0.0357 -0.3033
27431SOL    HW189154   1.557   2.804   1.771 -0.2063 -0.5862  1.9655
27431SOL    HW289155   1.699   2.755   1.750 -0.3518 -0.3812  0.4197
27432SOL     OW89156   0.775   7.606   6.665  0.4060 -0.7858  0.1607
27432SOL    HW189157   0.870   7.593   6.669  0.8820  2.0067 -0.5009
27432SOL    HW289158   0.764   7.700   6.654 -2.4868 -0.9950  0.6358
27433SOL     OW89159  10.361   7.052   6.683 -0.3248 -0.3967 -0.0523
27433SOL    HW189160  10.338   7.144   6.700 -0.3848 -0.3228 -0.5215
27433SOL    HW289161  10.457   7.052   6.677 -0.3618 -0.2246 -0.8067
27434SOL     OW89162  10.612   0.410   2.745  0.1118 -0.0362 -0.1526
27434SOL    HW189163  10.518   0.425   2.739  0.1969  0.1144 -1.5085
27434SOL    HW289164  10.630   0.347   2.676  0.9679 -0.2799  0.2840
27435SOL     OW89165   4.653   6.386   3.490  0.0484 -0.2761  0.0319
27435SOL    HW189166   4.723   6.324   3.513  1.0941  0.8430 -0.0492
27435SOL    HW289167   4.587   6.373   3.558  0.8082 -0.6089  0.7219
27436SOL     OW89168   3.879   1.994  10.444  0.0621 -0.1484 -0.7285
27436SOL    HW189169   3.878   1.908  10.486 -0.8055 -0.7923 -1.9990
27436SOL    HW289170   3.803   1.994  10.386  0.6741  1.0588 -1.5905
27437SOL     OW89171   7.380   1.664   3.548  0.0062  0.0860 -0.0886
27437SOL    HW189172   7.336   1.629   3.625  0.0830  1.9120  0.8392
27437SOL    HW289173   7.389   1.589   3.489 -0.3223 -1.2950  1.5463
27438SOL     OW89174   7.757   4.774   9.715  0.3420 -0.1927 -0.3663
27438SOL    HW189175   7.799   4.691   9.740 -0.7689 -1.2624 -1.8655
27438SOL    HW289176   7.755   4.772   9.619 -0.0741  1.4048 -0.4191
27439SOL     OW89177  10.427   7.644  10.749 -0.2631  0.2003 -0.1137
27439SOL    HW189178  10.465   7.631  10.836 -2.9387 -0.6718  1.0180
27439SOL    HW289179  10.480   7.588  10.692 -0.1218 -1.3671  1.4582
27440SOL     OW89180   1.777   0.031   9.386  0.2099 -0.0562 -0.2213
27440SOL    HW189181   1.760   0.123   9.406 -0.6687 -0.0353 -0.9955
27440SOL    HW289182   1.850   0.007   9.443  2.1465  1.7956 -1.7642
27441SOL     OW89183   6.557   5.994  12.422 -0.0733  0.0542 -0.0501
27441SOL    HW189184   6.550   6.033  12.508 -2.1774 -1.8637  0.7422
27441SOL    HW289185   6.636   5.940  12.427 -0.1763 -0.0358  0.6726
27442SOL     OW89186   8.670   5.327  10.733 -0.0194  0.6272  0.0300
27442SOL    HW189187   8.740   5.266  10.759  1.8003  2.5050 -0.2308
27442SOL    HW289188   8.716   5.408  10.711 -2.3997  2.4215  1.2078
27443SOL     OW89189   0.913  11.033  10.744 -0.9534 -0.3069  0.2605
27443SOL    HW189190   0.929  10.946  10.780 -1.2652 -0.1747  0.7247
27443SOL    HW289191   0.888  11.086  10.819  0.8884  0.6166  0.2817
27444SOL     OW89192   7.835   7.180   3.683  0.3758  0.2093  0.2177
27444SOL    HW189193   7.840   7.162   3.590 -1.0677 -1.0210  0.3235
27444SOL    HW289194   7.826   7.275   3.689  1.2262  0.3680 -0.8374
27445SOL     OW89195  12.339  10.424   8.208 -0.3549  0.2282  0.0989
27445SOL    HW189196  12.317  10.398   8.298  0.5142 -0.7809  0.0223
27445SOL    HW289197  12.310  10.516   8.203 -0.4082  0.3052  1.4089
27446SOL     OW89198   6.195   0.845  11.770 -0.3376  0.2843 -0.5318
27446SOL    HW189199   6.137   0.899  11.716 -0.6917 -0.0075 -0.4450
27446SOL    HW289200   6.169   0.755  11.752 -1.1044  0.1992  0.8082
27447SOL     OW89201  11.146   2.203  10.454 -0.0728  0.6666 -0.1493
27447SOL    HW189202  11.176   2.129  10.506  0.1201  1.2341  0.5525
27447SOL    HW289203  11.184   2.280  10.496 -0.6739  1.2128 -0.5782
27448SOL     OW89204  11.703   8.870  12.006  0.1107  0.2635 -0.1133
27448SOL    HW189205  11.788   8.828  12.007  1.4325  2.7091 -0.3757
27448SOL    HW289206  11.679   8.880  12.098 -0.1864 -0.9421 -0.0527
27449SOL     OW89207   2.614   3.531   8.657 -0.2909  0.5819  0.0134
27449SOL    HW189208   2.631   3.454   8.603 -1.0864  0.0331  0.5250
27449SOL    HW289209   2.552   3.584   8.606 -2.8010 -0.9910  1.2402
27450SOL     OW89210   6.978   7.377   0.906  0.1315 -0.0598 -0.0940
27450SOL    HW189211   6.883   7.391   0.898 -0.1094 -0.5416  1.4692
27450SOL    HW289212   7.017   7.459   0.876 -0.7675  0.0780 -0.9264
27451SOL     OW89213  10.398  11.052   5.113 -0.2178  0.3255  0.1372
27451SOL    HW189214  10.461  11.095   5.171  0.3318  1.3334 -1.1718
27451SOL    HW289215  10.365  11.121   5.057  0.0816 -0.8049 -1.4924
27452SOL     OW89216   2.890   0.738  12.321  0.3332  0.3871  0.2395
27452SOL    HW189217   2.973   0.781  12.340  0.9778  0.6274 -2.6862
27452SOL    HW289218   2.913   0.646  12.310 -0.0568  0.2106  0.8719
27453SOL     OW89219   8.210   9.852   3.859  0.6719 -0.2221  0.1129
27453SOL    HW189220   8.233   9.825   3.948  1.0171  0.2236  0.1632
27453SOL    HW289221   8.278   9.914   3.835 -0.2767  0.8568  0.1288
27454SOL     OW89222   7.698   8.830   6.151 -0.4428  0.2436  0.5236
27454SOL    HW189223   7.749   8.891   6.205 -0.4841  0.6860  0.0671
27454SOL    HW289224   7.614   8.873   6.138  0.4095  1.3158 -1.9767
27455SOL     OW89225   6.949   0.559   9.252  0.2798 -0.3123  0.0151
27455SOL    HW189226   7.010   0.625   9.219 -0.7784 -0.4493 -2.4413
27455SOL    HW289227   6.958   0.486   9.190 -2.5129 -0.2183 -0.6356
27456SOL     OW89228   9.293   2.574   0.232  0.6965 -0.1852  0.0571
27456SOL    HW189229   9.330   2.534   0.311 -0.3348  1.5699  1.5218
27456SOL    HW289230   9.204   2.540   0.227  1.1147 -1.1691 -1.0430
27457SOL     OW89231   6.890   6.097   2.018 -0.4863 -0.0790 -0.4914
27457SOL    HW189232   6.919   6.116   2.107 -0.9920  2.3339 -0.7778
27457SOL    HW289233   6.966   6.059   1.976  1.1942  2.6275 -0.1576
27458SOL     OW89234   7.278   3.037   3.053  0.2941 -0.4451  0.1592
27458SOL    HW189235   7.246   3.108   3.109 -0.7820 -0.9039  0.1491
27458SOL    HW289236   7.252   2.957   3.099  1.2806 -0.8524  0.0488
27459SOL     OW89237   0.193   5.386  11.331  0.4291 -0.0423 -0.2799
27459SOL    HW189238   0.214   5.474  11.301  1.0910 -0.5733 -1.4521
27459SOL    HW289239   0.278   5.342  11.337  0.1153 -0.5862  0.3572
27460SOL     OW89240   2.055   2.435  11.913 -0.4049  0.6853  0.0851
27460SOL    HW189241   2.005   2.361  11.947  1.7994 -0.3720  1.2502
27460SOL    HW289242   2.011   2.512  11.950 -3.7286  0.2236 -2.4572
27461SOL     OW89243   6.762   3.544   5.641  0.2123  0.1186  0.0122
27461SOL    HW189244   6.840   3.493   5.664 -0.0061  0.4321  1.5614
27461SOL    HW289245   6.703   3.480   5.602  1.2104 -0.1298 -1.1474
27462SOL     OW89246   4.352   1.448   8.162 -0.3289  0.3318 -0.1067
27462SOL    HW189247   4.408   1.386   8.208 -1.5294 -1.4607 -0.9130
27462SOL    HW289248   4.271   1.450   8.214 -0.0842  1.7455  0.2529
27463SOL     OW89249  11.935   1.974   8.196 -0.2353 -0.3853 -0.9081
27463SOL    HW189250  11.959   1.998   8.106 -0.4321 -0.3696 -0.9573
27463SOL    HW289251  11.845   1.944   8.189 -0.1517 -0.6778 -0.7651
27464SOL     OW89252  12.319  11.081   3.419 -0.2986  0.0879  0.2904
27464SOL    HW189253  12.298  11.073   3.326 -1.0911  0.1307  0.4531
27464SOL    HW289254  12.381  11.010   3.436 -1.5074 -1.0586  0.1110
27465SOL     OW89255  10.035   2.842   2.150  0.0053 -0.1126 -0.3107
27465SOL    HW189256  10.050   2.750   2.170 -1.3991 -0.1963  0.5016
27465SOL    HW289257  10.024   2.844   2.055  1.1327 -0.5942 -0.4671
27466SOL     OW89258   4.482   0.689  10.941  0.6358  0.4015  0.2922
27466SOL    HW189259   4.463   0.770  10.987  2.0090  0.6252  0.5246
27466SOL    HW289260   4.530   0.716  10.862 -1.4038 -0.0002 -1.1774
27467SOL     OW89261   2.411   8.867   8.230  0.2196 -0.1464  0.4502
27467SOL    HW189262   2.325   8.882   8.189 -0.3077 -0.8597  1.2416
27467SOL    HW289263   2.454   8.805   8.172  0.0734 -0.0228  0.2063
27468SOL     OW89264   2.089   3.134   2.061  0.2311 -0.6145 -0.6504
27468SOL    HW189265   2.122   3.045   2.055 -0.5183 -0.8300 -1.9828
27468SOL    HW289266   2.014   3.136   2.002 -2.1289 -0.1189  2.1211
27469SOL     OW89267   3.946   3.483   8.786  0.2292  0.5284 -0.5717
27469SOL    HW189268   3.996   3.510   8.709  1.0615 -0.4308 -0.3891
27469SOL    HW289269   3.907   3.399   8.761  0.2277  0.3781 -0.0727
27470SOL     OW89270  10.960  12.218   3.103  0.3294 -0.0655  0.0380
27470SOL    HW189271  10.991  12.269   3.179  0.8811  0.4150 -0.4994
27470SOL    HW289272  10.874  12.254   3.084 -1.2908 -2.3054  2.3852
27471SOL     OW89273   9.657   1.820   5.616  0.0578 -0.0278  0.0705
27471SOL    HW189274   9.682   1.883   5.685  1.8068 -0.3522 -0.2177
27471SOL    HW289275   9.730   1.823   5.554 -0.6398 -1.1034 -0.8264
27472SOL     OW89276   5.831  12.030   9.883 -0.7918  0.4394  0.3480
27472SOL    HW189277   5.914  12.051   9.925 -0.0197 -0.5199 -0.6482
27472SOL    HW289278   5.807  11.944   9.918 -1.1679  0.5385  0.3424
27473SOL     OW89279   6.051   8.369   8.843  0.3860 -0.1323 -0.2925
27473SOL    HW189280   6.120   8.353   8.907 -0.1670  0.2481  0.4179
27473SOL    HW289281   6.021   8.282   8.817  0.9448 -0.2936 -0.4101
27474SOL     OW89282  10.116  11.695   6.719 -0.2877 -0.1821  0.5033
27474SOL    HW189283  10.046  11.739   6.769 -1.7211 -2.2062  0.3855
27474SOL    HW289284  10.196  11.739   6.747 -1.2778  0.2173  2.9497
27475SOL     OW89285   7.641   0.687   7.408  0.1586  0.4289 -0.0078
27475SOL    HW189286   7.638   0.611   7.350 -1.1765  1.4763 -1.4129
27475SOL    HW289287   7.715   0.738   7.376 -0.3145  0.7924 -0.5608
27476SOL     OW89288   4.123  10.287   4.463 -0.1873 -0.5292 -0.5837
27476SOL    HW189289   4.216  10.304   4.477 -0.2418 -0.0683 -0.7500
27476SOL    HW289290   4.081  10.308   4.546 -0.2852  0.4196 -0.8629
27477SOL     OW89291   6.335  11.399  11.277  0.4627 -0.4386 -0.1378
27477SOL    HW189292   6.345  11.306  11.255 -1.7969 -0.7032 -0.3293
27477SOL    HW289293   6.339  11.401  11.372 -0.8479 -0.9748 -0.0494
27478SOL     OW89294  10.318  11.884  11.059  0.1549  0.6475  0.0334
27478SOL    HW189295  10.284  11.929  10.982  0.3533 -1.0827 -1.1284
27478SOL    HW289296  10.368  11.950  11.107 -2.6065  2.5967  0.4273
27479SOL     OW89297  10.397   4.546  10.110 -0.1396 -0.4624  0.0336
27479SOL    HW189298  10.459   4.478  10.085 -1.0882 -1.1241 -0.6117
27479SOL    HW289299  10.314   4.499  10.122 -0.3018  0.2289  1.9294
27480SOL     OW89300   1.075   6.631   1.570  0.3123 -0.6507 -0.2190
27480SOL    HW189301   1.158   6.599   1.535  0.0289 -1.4072 -0.2250
27480SOL    HW289302   1.099   6.709   1.621  0.6600  0.9837 -2.6756
27481SOL     OW89303   9.710  10.843   9.119  0.0578 -0.0139  0.5613
27481SOL    HW189304   9.802  10.832   9.143 -0.4087 -2.1602  1.6256
27481SOL    HW289305   9.712  10.902   9.043  2.3293 -0.4105  0.2281
27482SOL     OW89306   0.810   1.775   2.521 -0.4509  0.0237  0.0876
27482SOL    HW189307   0.836   1.753   2.610 -3.1956 -0.7308  0.7784
27482SOL    HW289308   0.872   1.844   2.494  0.0306  0.7420  2.7829
27483SOL     OW89309   4.937   1.461   6.382  0.4169 -0.1161  0.1268
27483SOL    HW189310   4.871   1.521   6.416  0.6439 -0.3172  0.9411
27483SOL    HW289311   4.937   1.477   6.287  0.7556  1.4559  0.3614
27484SOL     OW89312   9.259   3.074  11.362  0.2754 -0.3190  0.2746
27484SOL    HW189313   9.234   3.147  11.418 -0.4911  0.5804 -1.1902
27484SOL    HW289314   9.308   3.114  11.290  0.5413 -1.3391 -0.1327
27485SOL     OW89315  12.431   1.666   6.057 -0.0622 -0.0675  0.3102
27485SOL    HW189316  12.361   1.650   5.994  0.6029  1.0227 -0.7698
27485SOL    HW289317  12.507   1.688   6.002  1.2624 -1.6449  1.4255
27486SOL     OW89318  10.649   5.739   5.699  0.1856 -0.5452 -0.0426
27486SOL    HW189319  10.652   5.694   5.614 -1.7502 -0.1642 -0.3740
27486SOL    HW289320  10.558   5.728   5.728  0.1845  1.4207  0.8333
27487SOL     OW89321  10.357   1.499   8.513  0.5142  0.3554  0.3982
27487SOL    HW189322  10.372   1.578   8.462 -0.1905  0.9221  1.0492
27487SOL    HW289323  10.337   1.530   8.601 -0.2825 -0.5135  0.5465
27488SOL     OW89324  10.837   7.172   8.131 -0.0890 -0.0845  0.1502
27488SOL    HW189325  10.848   7.114   8.055  0.2268  1.6964 -1.2272
27488SOL    HW289326  10.906   7.145   8.192 -0.7643 -1.9867  0.1512
27489SOL     OW89327   5.214   8.640   9.207 -0.7540  0.0421  0.0752
27489SOL    HW189328   5.279   8.610   9.143 -0.8353  0.3083 -0.1368
27489SOL    HW289329   5.163   8.562   9.228  0.9724 -0.6975  1.8723
27490SOL     OW89330   3.745   2.830   0.583  0.1129 -0.3083 -0.2457
27490SOL    HW189331   3.665   2.850   0.534  0.3830 -0.0005 -0.5654
27490SOL    HW289332   3.756   2.905   0.641 -1.0076 -1.3208  1.3689
27491SOL     OW89333   9.551   1.673   3.039 -0.8324 -0.1547 -0.3945
27491SOL    HW189334   9.515   1.588   3.061  0.0252 -0.0686  1.5887
27491SOL    HW289335   9.629   1.681   3.095  0.1467  1.1600 -1.8744
27492SOL     OW89336  11.124   8.836   9.144 -0.2145 -0.2957  0.2724
27492SOL    HW189337  11.082   8.835   9.058  1.0302 -0.8023 -0.3524
27492SOL    HW289338  11.194   8.901   9.137 -0.8366  0.5269  1.2956
27493SOL     OW89339   0.037   9.119  10.232 -0.2527 -0.9645  0.4126
27493SOL    HW189340  -0.058   9.115  10.220 -0.3003  0.3515  0.1474
27493SOL    HW289341   0.049   9.127  10.327 -0.4648 -0.3324  0.3930
27494SOL     OW89342   3.607   5.560   4.663  0.1591  0.3870  0.0082
27494SOL    HW189343   3.673   5.590   4.726  2.8534  0.3259 -2.5333
27494SOL    HW289344   3.637   5.594   4.579 -1.0072 -2.7310 -1.8629
27495SOL     OW89345  12.468   1.354   1.255  0.3109 -0.2049  0.0775
27495SOL    HW189346  12.458   1.446   1.278 -0.3157 -0.1119 -0.5237
27495SOL    HW289347  12.387   1.313   1.284 -0.1855 -0.2179 -1.2606
27496SOL     OW89348   5.362   8.516   9.434  0.2362  0.7919 -0.4413
27496SOL    HW189349   5.271   8.491   9.418  0.7658  0.0642 -2.6767
27496SOL    HW289350   5.365   8.609   9.414  0.0040  0.7910 -0.4853
27497SOL     OW89351  12.213   3.229   4.883 -0.1078  0.5648 -0.5964
27497SOL    HW189352  12.264   3.184   4.816 -1.6929  0.9801 -2.1596
27497SOL    HW289353  12.151   3.164   4.915  1.9661 -0.2933  2.1385
27498SOL     OW89354   3.904   8.901   6.379  0.3883 -0.0559 -0.5574
27498SOL    HW189355   3.985   8.878   6.334  0.7420  1.5297 -0.7926
27498SOL    HW289356   3.836   8.892   6.312  0.2138 -2.1518 -0.1543
27499SOL     OW89357   7.117  11.108   9.865  0.0467 -0.5235  0.0901
27499SOL    HW189358   7.022  11.101   9.868 -0.2139  2.1970  0.0814
27499SOL    HW289359   7.139  11.111   9.772  0.1254 -0.6863  0.1018
27500SOL     OW89360   1.410   7.896   2.514  0.1238 -0.0312 -0.2433
27500SOL    HW189361   1.351   7.905   2.439 -1.3947 -1.5789  0.6982
27500SOL    HW289362   1.362   7.936   2.587  0.8528 -0.0461  0.2587
27501SOL     OW89363  11.359  11.972   1.450  0.4313 -0.6394 -0.4167
27501SOL    HW189364  11.455  11.971   1.440  0.2946 -2.0492 -1.7959
27501SOL    HW289365  11.333  12.057   1.415  1.1842 -0.1754  0.1139
27502SOL     OW89366   6.174  11.142   9.557 -0.8187 -0.4724 -0.1327
27502SOL    HW189367   6.189  11.077   9.626 -0.8748  1.4063  1.7442
27502SOL    HW289368   6.262  11.170   9.532 -0.8144 -0.6477 -0.3125
27503SOL     OW89369   7.936   2.059   0.808  0.2367  0.4515 -0.0466
27503SOL    HW189370   7.898   2.132   0.857  0.7295  0.5683  0.1668
27503SOL    HW289371   7.964   2.098   0.725 -0.9001  0.1892 -0.5832
27504SOL     OW89372   1.970  11.318   8.003  0.2979 -0.8343  0.0514
27504SOL    HW189373   1.915  11.247   8.037 -0.7221  0.0919  0.4026
27504SOL    HW289374   2.040  11.326   8.068  0.1564 -1.2033  0.2579
27505SOL     OW89375  10.901  11.396   1.986 -0.3661  0.2147 -0.6815
27505SOL    HW189376  10.807  11.414   1.985 -1.5660 -4.6899 -0.6784
27505SOL    HW289377  10.919  11.359   1.900  0.5275 -2.6078  0.6030
27506SOL     OW89378   4.618   6.782   2.478 -0.4388 -0.1851 -0.0237
27506SOL    HW189379   4.637   6.697   2.518  0.6550 -0.2818 -0.7032
27506SOL    HW289380   4.539   6.767   2.427 -1.0909 -0.4036  1.0224
27507SOL     OW89381   1.644   8.078   6.338 -0.0052 -0.0186  0.3938
27507SOL    HW189382   1.551   8.103   6.339  0.0991  0.6247 -1.4187
27507SOL    HW289383   1.649   8.002   6.395 -1.4969  0.4521  1.2142
27508SOL     OW89384  11.737   1.075  12.053 -0.1782  0.0057 -0.5470
27508SOL    HW189385  11.750   1.150  12.111  0.8698  0.0502 -0.8152
27508SOL    HW289386  11.644   1.076  12.033 -0.2026  1.1548 -0.4457
27509SOL     OW89387   6.076  10.531  10.604  0.0869 -0.3017 -0.1701
27509SOL    HW189388   6.079  10.435  10.601  0.4432 -0.2614 -1.7034
27509SOL    HW289389   6.042  10.551  10.691 -1.1587 -1.8438 -0.2665
27510SOL     OW89390   5.242   5.699  10.564  0.3287 -0.3351 -0.4222
27510SOL    HW189391   5.222   5.759  10.636 -2.4538 -0.4769 -0.9593
27510SOL    HW289392   5.276   5.754  10.494 -1.9797  0.6869 -0.8295
27511SOL     OW89393   2.636   7.490   6.714 -0.2035 -0.1343  0.2144
27511SOL    HW189394   2.607   7.518   6.627 -1.7687 -0.0482  0.7232
27511SOL    HW289395   2.643   7.571   6.765 -0.3102 -0.2703  0.4488
27512SOL     OW89396   8.382  10.535  11.480  0.3488  0.3298  0.7344
27512SOL    HW189397   8.439  10.571  11.548  1.5670 -0.4166  0.1484
27512SOL    HW289398   8.440  10.481  11.427 -1.4633 -2.9852  1.8932
27513SOL     OW89399   0.340   4.365   0.665  0.1856 -0.4410  0.7187
27513SOL    HW189400   0.278   4.305   0.707 -0.6883 -1.3945 -1.7378
27513SOL    HW289401   0.421   4.314   0.656 -0.6931 -1.5901 -1.7881
27514SOL     OW89402   2.464   6.548   2.454 -0.1783  0.5341 -0.2143
27514SOL    HW189403   2.509   6.615   2.506  1.3717 -1.9914  1.9491
27514SOL    HW289404   2.401   6.509   2.515 -2.8292  1.4965 -2.1334
27515SOL     OW89405   7.500  10.182   1.280 -0.5342 -0.1265  0.3970
27515SOL    HW189406   7.579  10.191   1.225 -1.7123  0.2937 -1.3122
27515SOL    HW289407   7.529  10.208   1.367  1.2655 -0.1638 -0.1390
27516SOL     OW89408  11.035   4.390  11.860 -0.0701 -0.2938 -0.2250
27516SOL    HW189409  11.078   4.451  11.800 -1.0025  0.0196 -0.5973
27516SOL    HW289410  11.073   4.410  11.945  1.5766 -1.0236 -0.7451
27517SOL     OW89411   2.301  12.407  11.418  0.3004  0.2999 -0.2445
27517SOL    HW189412   2.248  12.478  11.453  0.0192 -0.0271 -0.0019
27517SOL    HW289413   2.267  12.328  11.460 -0.0525 -0.0968 -1.2520
27518SOL     OW89414   5.834   8.032   0.874 -1.0536 -0.4686 -0.5039
27518SOL    HW189415   5.783   7.964   0.830 -0.7481 -1.5961  0.8328
27518SOL    HW289416   5.920   7.992   0.889 -0.9574  0.0954  0.5774
27519SOL     OW89417  10.769  10.006  11.921  0.9180  0.3155  0.3638
27519SOL    HW189418  10.770   9.983  11.828  0.8229 -1.1826  0.7013
27519SOL    HW289419  10.808   9.929  11.964  0.1579  0.6275  1.6270
27520SOL     OW89420   7.767  11.703   3.858  0.1797  0.0167  0.3239
27520SOL    HW189421   7.799  11.613   3.852  0.1821  0.0543 -0.3307
27520SOL    HW289422   7.826  11.746   3.920  0.8068 -0.1723 -0.1342
27521SOL     OW89423   7.157   7.305   8.015 -0.6818  0.2747  0.2438
27521SOL    HW189424   7.229   7.362   8.040 -2.7662  2.6183  1.3138
27521SOL    HW289425   7.122   7.343   7.935 -1.7687  0.2012  0.6684
27522SOL     OW89426   9.288   5.854  12.476  0.4110  0.4517 -0.6023
27522SOL    HW189427   9.261   5.789  12.411 -0.7657  1.0541 -0.7406
27522SOL    HW289428   9.211   5.909  12.488  0.3973  0.0608  1.6748
27523SOL     OW89429   7.491   9.539   9.564 -0.0072 -0.1782 -0.2494
27523SOL    HW189430   7.425   9.560   9.498 -0.1760 -0.6538 -0.2382
27523SOL    HW289431   7.446   9.549   9.648 -0.5785 -2.0537 -0.2645
27524SOL     OW89432   7.708   7.467   2.778 -0.6532  0.3702  0.3315
27524SOL    HW189433   7.766   7.504   2.712 -0.0973  0.1210  0.6719
27524SOL    HW289434   7.628   7.519   2.772 -0.9713 -0.2445 -1.1844
27525SOL     OW89435   9.988   8.596   1.664 -0.0188 -0.4514  0.1560
27525SOL    HW189436  10.008   8.575   1.755 -4.2790 -2.5883  0.8614
27525SOL    HW289437   9.935   8.676   1.670 -2.0354 -1.6920 -0.0664
27526SOL     OW89438   2.356  11.374   2.708  0.0373  0.1617  0.1423
27526SOL    HW189439   2.401  11.311   2.651 -0.1355  1.0588 -1.0166
27526SOL    HW289440   2.374  11.343   2.797 -0.3461 -1.7329 -0.3948
27527SOL     OW89441   1.107   4.531   2.760 -0.4243  0.0761 -0.5152
27527SOL    HW189442   1.135   4.495   2.676  3.4897  2.5025 -0.5043
27527SOL    HW289443   1.052   4.606   2.737 -1.1555 -0.5528 -0.8233
27528SOL     OW89444   3.969   2.631   5.752  0.3295 -0.4527 -0.2957
27528SOL    HW189445   3.905   2.559   5.748 -1.8737  1.3522  0.2111
27528SOL    HW289446   4.003   2.628   5.842  0.0446 -0.7083 -0.1956
27529SOL     OW89447   2.764   6.607   9.840  0.2883 -0.4188 -0.0387
27529SOL    HW189448   2.790   6.697   9.823  0.1253 -0.1294  1.1194
27529SOL    HW289449   2.821   6.554   9.785 -0.1390  0.4175 -1.3095
27530SOL     OW89450   6.963   0.972  11.099 -0.3253  0.3763 -0.2715
27530SOL    HW189451   7.007   1.008  11.177 -1.6463 -0.5246  0.9403
27530SOL    HW289452   6.888   1.029  11.085 -1.2055 -0.5924  0.3484
27531SOL     OW89453   6.141   1.485   5.391 -0.2630 -0.2303  0.1308
27531SOL    HW189454   6.087   1.536   5.452 -0.5268  2.4006 -2.1394
27531SOL    HW289455   6.127   1.525   5.306 -1.5212 -4.9661 -2.2546
27532SOL     OW89456   8.826   3.660   8.494 -0.1289  0.5013  0.3109
27532SOL    HW189457   8.820   3.662   8.399  2.4734 -0.1477  0.0765
27532SOL    HW289458   8.817   3.752   8.520  0.3566  0.8423 -0.6664
27533SOL     OW89459   4.026   5.337  12.030 -0.2348 -0.1611 -0.2486
27533SOL    HW189460   3.951   5.365  11.978 -0.7206 -1.0877 -0.0548
27533SOL    HW289461   4.056   5.418  12.073 -1.5275  0.1137  0.1908
27534SOL     OW89462   6.544   1.716   4.355  0.6835  0.0722 -0.2163
27534SOL    HW189463   6.529   1.634   4.402  0.6593  0.0913 -0.1902
27534SOL    HW289464   6.470   1.724   4.295  0.2543  0.4688  0.3447
27535SOL     OW89465   5.441   7.975   4.833 -0.0158  0.0035 -0.6379
27535SOL    HW189466   5.529   7.967   4.796 -0.1180  0.2185 -0.9321
27535SOL    HW289467   5.390   8.019   4.765  0.0522  1.3688  0.1493
27536SOL     OW89468   6.244  10.628   7.017 -0.5611 -0.3866  0.4077
27536SOL    HW189469   6.158  10.653   6.983 -0.2455 -0.1318 -0.2187
27536SOL    HW289470   6.259  10.540   6.983  0.8222  0.7451 -2.3125
27537SOL     OW89471  11.512   8.130   1.536 -0.2910  0.2556  0.1002
27537SOL    HW189472  11.540   8.039   1.548 -1.3316  0.1945  2.6427
27537SOL    HW289473  11.575   8.181   1.586 -0.6205  0.7846 -0.0179
27538SOL     OW89474  10.441   7.714  11.032 -0.3781 -0.7309  0.1729
27538SOL    HW189475  10.407   7.640  11.083 -0.7877 -0.6913 -0.0361
27538SOL    HW289476  10.363   7.754  10.993 -0.3142  0.6515  1.3957
27539SOL     OW89477  11.942   3.297  10.828 -0.0447 -0.0561  0.2035
27539SOL    HW189478  11.982   3.225  10.876  1.2980 -0.9520 -2.0886
27539SOL    HW289479  11.850   3.273  10.820  0.0510 -0.6729  0.8999
27540SOL     OW89480   5.228  10.965   1.613  0.0225  0.0726  0.4568
27540SOL    HW189481   5.139  10.996   1.596  0.7384  1.7018 -0.5043
27540SOL    HW289482   5.239  10.977   1.708 -0.4554  0.7842  0.4316
27541SOL     OW89483   6.029   2.161  10.797 -0.0310  0.1427  0.0218
27541SOL    HW189484   5.971   2.088  10.822 -1.3815  1.4220  0.7659
27541SOL    HW289485   6.117   2.124  10.803 -0.6456 -1.2887  0.9008
27542SOL     OW89486   7.309   8.596   3.526 -0.6199  0.3654  0.2040
27542SOL    HW189487   7.317   8.578   3.432 -2.2137  3.3482 -0.6207
27542SOL    HW289488   7.393   8.636   3.550 -0.0650 -0.7519  0.1839
27543SOL     OW89489  11.224   5.299  12.428 -0.1419  0.4179 -0.2456
27543SOL    HW189490  11.150   5.359  12.425  1.8245  3.0865  0.3471
27543SOL    HW289491  11.209   5.246  12.507 -2.8169 -1.2771 -1.7390
27544SOL     OW89492  10.349   5.326   7.074  0.2501 -0.3320 -0.2834
27544SOL    HW189493  10.363   5.421   7.067  1.8902 -0.4367  1.0153
27544SOL    HW289494  10.288   5.306   7.002 -0.1225  1.6811 -0.6038
27545SOL     OW89495  12.163   1.255   9.422  0.1152  0.0362 -0.1431
27545SOL    HW189496  12.191   1.345   9.435  0.0993  0.1954 -1.1187
27545SOL    HW289497  12.088   1.244   9.481  1.4852 -0.0560  1.6712
27546SOL     OW89498   6.614   8.579   7.011 -0.2315 -0.6459  0.1495
27546SOL    HW189499   6.636   8.581   6.918 -0.5817 -3.5269 -0.0793
27546SOL    HW289500   6.597   8.670   7.033  0.1570  0.1715 -2.5227
27547SOL     OW89501   0.006   6.988   1.348 -0.1663 -0.7337 -0.1873
27547SOL    HW189502  -0.028   6.913   1.397  1.3354  0.0365  2.1946
27547SOL    HW289503  -0.032   7.064   1.392 -1.2122 -0.0178 -2.2182
27548SOL     OW89504   4.957  10.983  10.839 -0.4077  0.4072 -0.3113
27548SOL    HW189505   4.868  11.012  10.817 -0.2607  1.2789  0.2012
27548SOL    HW289506   4.950  10.949  10.928  0.0544  1.8997  0.3224
27549SOL     OW89507   7.046   2.674   6.302 -0.5527  0.1100 -0.3363
27549SOL    HW189508   7.084   2.666   6.214  1.1094  2.0216  0.1142
27549SOL    HW289509   7.100   2.618   6.357 -1.8002 -1.3486 -0.5265
27550SOL     OW89510   9.303   6.406   7.972 -0.6751 -0.5561 -0.2849
27550SOL    HW189511   9.358   6.484   7.958 -0.5614 -0.6741 -0.4986
27550SOL    HW289512   9.354   6.334   7.936 -0.3998 -0.8674  0.7091
27551SOL     OW89513   6.146   8.448   1.941  0.2001  0.1314 -0.2947
27551SOL    HW189514   6.219   8.473   1.884 -0.3279  1.7094 -0.3364
27551SOL    HW289515   6.068   8.481   1.895 -0.4362 -0.5322  0.2933
27552SOL     OW89516   1.486  11.281   0.256  0.2288  0.4203 -0.0353
27552SOL    HW189517   1.514  11.315   0.171 -0.1623  0.1698 -0.2715
27552SOL    HW289518   1.425  11.210   0.234  1.1825 -0.5631  0.4451
27553SOL     OW89519   4.502   0.288   1.004  0.4715  0.5658 -0.1267
27553SOL    HW189520   4.423   0.234   1.009  0.1979  0.4822 -3.2926
27553SOL    HW289521   4.572   0.231   1.035 -0.4648  0.1941  1.4341
27554SOL     OW89522  11.321   7.233  10.549  0.1465  0.8035  0.2025
27554SOL    HW189523  11.251   7.182  10.507  1.1585  0.6069 -1.3251
27554SOL    HW289524  11.279   7.272  10.626 -1.2344 -0.5342  0.1758
27555SOL     OW89525  10.870   1.977   4.584  0.3858  0.5162  0.1527
27555SOL    HW189526  10.892   1.931   4.503 -1.5989  0.9716 -0.7120
27555SOL    HW289527  10.933   1.945   4.648 -0.1617 -2.5303 -0.6854
27556SOL     OW89528   3.012  10.126   9.609  0.2980 -0.7298  0.3726
27556SOL    HW189529   3.083  10.176   9.569  1.3872 -1.6061  1.1228
27556SOL    HW289530   2.933  10.158   9.567  1.3436 -1.6277 -2.5207
27557SOL     OW89531   8.924   9.819   4.073  0.2209  0.3254 -0.0778
27557SOL    HW189532   9.013   9.846   4.051 -0.0763  1.2523 -0.1747
27557SOL    HW289533   8.869   9.894   4.051 -0.4110  0.3254  1.3863
27558SOL     OW89534   0.553  10.004  11.693 -0.4671  0.5719  0.5021
27558SOL    HW189535   0.489   9.961  11.637  0.2506  0.2760 -0.1069
27558SOL    HW289536   0.637   9.985  11.652 -0.1250  2.6321  0.1595
27559SOL     OW89537   6.922  10.373   8.124  0.3527  0.0371  0.3287
27559SOL    HW189538   6.876  10.432   8.064  1.0822  0.8667  0.5629
27559SOL    HW289539   6.867  10.295   8.127 -0.9405  0.9132  0.4399
27560SOL     OW89540   1.326  10.528   9.335 -0.4020 -0.5771 -0.2981
27560SOL    HW189541   1.340  10.446   9.380 -1.2042  0.1709  1.3906
27560SOL    HW289542   1.281  10.584   9.398 -2.1927  0.3174 -2.2126
27561SOL     OW89543   2.191   4.673   8.186  0.6495  0.0410  0.0343
27561SOL    HW189544   2.160   4.763   8.176 -1.0714 -0.6255 -0.9779
27561SOL    HW289545   2.285   4.682   8.202  0.6692  1.9725 -0.9008
27562SOL     OW89546   7.088   7.603   6.223 -0.1253  0.1856  0.3355
27562SOL    HW189547   7.033   7.612   6.146  0.1711  2.3496  0.3241
27562SOL    HW289548   7.055   7.525   6.267 -0.8635 -0.5918 -1.5019
27563SOL     OW89549   4.000   5.301   0.963 -0.2658 -0.1236  0.5312
27563SOL    HW189550   4.042   5.322   0.879  1.1084 -0.2369  1.1560
27563SOL    HW289551   3.942   5.228   0.943  0.9413 -0.9402 -0.1272
27564SOL     OW89552   8.868   7.377   7.252 -0.5249 -0.1636 -0.1235
27564SOL    HW189553   8.910   7.298   7.286 -1.5621 -1.0942 -0.9315
27564SOL    HW289554   8.885   7.376   7.158  1.8829  2.1276  0.1556
27565SOL     OW89555  10.821   8.808   6.464 -0.2677  0.0441 -0.2773
27565SOL    HW189556  10.771   8.827   6.384 -0.9152  0.2200  0.1609
27565SOL    HW289557  10.807   8.885   6.519 -0.5917 -0.4812  0.3837
27566SOL     OW89558   0.229   5.308   0.622  0.5626  0.0873 -0.3462
27566SOL    HW189559   0.238   5.234   0.683  0.0670  0.9562  0.8345
27566SOL    HW289560   0.156   5.284   0.566  1.2309 -0.8757 -0.8310
27567SOL     OW89561   6.538   2.120   4.682  0.8201 -0.2031 -1.4608
27567SOL    HW189562   6.484   2.185   4.727  1.2126 -0.8782  0.0584
27567SOL    HW289563   6.587   2.170   4.617  0.9459  1.0108 -0.4789
27568SOL     OW89564   5.755   6.580   8.172  0.3262 -0.2724 -0.4011
27568SOL    HW189565   5.798   6.651   8.219  0.4905 -0.4970 -0.2078
27568SOL    HW289566   5.662   6.590   8.193  0.1021  1.0302 -1.9159
27569SOL     OW89567   2.484   1.538   8.957 -0.1701  0.0179 -0.4305
27569SOL    HW189568   2.559   1.495   8.999  0.3950  0.2934 -1.1380
27569SOL    HW289569   2.480   1.624   8.999  0.2959  0.2330 -0.8150
27570SOL     OW89570   0.990   9.225   6.368 -0.2877 -0.3122 -0.1514
27570SOL    HW189571   1.054   9.158   6.390  0.3843  0.3868  0.0778
27570SOL    HW289572   0.916   9.177   6.330  1.6074 -0.9761 -3.4045
27571SOL     OW89573   3.881   5.176   5.589  0.2200  0.0750 -0.2531
27571SOL    HW189574   3.975   5.165   5.605  0.5193  1.3695 -0.9579
27571SOL    HW289575   3.848   5.215   5.670  0.0406 -1.4507  0.4435
27572SOL     OW89576  11.259   9.497  11.848  0.1831  0.0601 -0.6750
27572SOL    HW189577  11.177   9.496  11.898 -0.3998  1.3351 -1.5548
27572SOL    HW289578  11.239   9.448  11.768  0.4811 -0.1934 -0.5947
27573SOL     OW89579   9.310   9.342   3.374 -0.1261 -0.6865 -0.3197
27573SOL    HW189580   9.266   9.319   3.292  0.4175 -1.3731 -0.4273
27573SOL    HW289581   9.402   9.351   3.351  0.0756 -1.1767  0.2626
27574SOL     OW89582   9.694   1.982   1.390 -0.2038 -0.1902 -0.1959
27574SOL    HW189583   9.688   1.994   1.295  0.5712  1.5532 -0.0516
27574SOL    HW289584   9.769   2.035   1.416  1.1180 -2.5037  1.0993
27575SOL     OW89585   4.542   2.405  11.740  0.0105  0.1741 -0.1962
27575SOL    HW189586   4.520   2.452  11.820  1.8125  2.6134 -1.0112
27575SOL    HW289587   4.598   2.333  11.769 -0.6818  0.0416  0.8510
27576SOL     OW89588   8.668  12.085   9.543  0.3443  0.6574  0.5442
27576SOL    HW189589   8.701  12.002   9.579  2.6789  0.4854 -1.6746
27576SOL    HW289590   8.576  12.068   9.525  0.7977 -1.5680 -0.0330
27577SOL     OW89591   6.868   2.973  12.107 -0.3754  0.2402 -0.8916
27577SOL    HW189592   6.837   2.920  12.034 -0.7840 -0.4357 -0.2373
27577SOL    HW289593   6.893   3.057  12.067  0.6022 -0.5428 -1.9884
27578SOL     OW89594  10.349  11.884   9.655 -0.0659 -0.2434 -0.0007
27578SOL    HW189595  10.405  11.955   9.685  0.2551 -1.2507  1.9639
27578SOL    HW289596  10.408  11.810   9.643 -0.5865 -0.5641 -0.6305
27579SOL     OW89597   4.106  11.562   3.329  0.2099  0.2372 -0.3813
27579SOL    HW189598   4.058  11.643   3.310  1.2705  0.9714 -0.0244
27579SOL    HW289599   4.192  11.592   3.359  0.7968 -1.0391 -0.7444
27580SOL     OW89600  10.390   3.784   5.525  0.6215 -0.4879 -0.5112
27580SOL    HW189601  10.452   3.716   5.552  0.5622 -0.0206  0.9092
27580SOL    HW289602  10.348   3.811   5.607  0.4220  1.0334 -1.0914
27581SOL     OW89603   2.817   3.853   9.876 -0.2256  0.0715  0.6306
27581SOL    HW189604   2.896   3.815   9.837 -1.1465  1.8597 -3.4807
27581SOL    HW289605   2.753   3.782   9.875 -0.0563 -0.0749 -0.7155
27582SOL     OW89606   1.800  10.983   2.000 -0.0900  0.0136  0.0204
27582SOL    HW189607   1.729  10.923   1.979  1.2130 -2.0282  1.1104
27582SOL    HW289608   1.873  10.953   1.946  0.1949  1.6367 -0.5610
27583SOL     OW89609   1.089  10.414   7.906 -0.6379  0.1952 -0.0084
27583SOL    HW189610   1.002  10.451   7.894 -2.2582 -2.7303  1.5662
27583SOL    HW289611   1.127  10.465   7.977 -2.1514 -0.0784  1.0415
27584SOL     OW89612  12.056  12.205   3.562 -0.1605 -0.1355  0.0911
27584SOL    HW189613  12.137  12.246   3.592 -1.1117  1.6096  0.3475
27584SOL    HW289614  12.077  12.174   3.473  0.6285  0.7917 -0.0598
27585SOL     OW89615   3.214   0.895  10.464 -0.0766  0.1654  0.3384
27585SOL    HW189616   3.223   0.864  10.374  0.4101  1.6653 -0.1602
27585SOL    HW289617   3.190   0.987  10.455 -1.6168 -0.0610  1.7501
27586SOL     OW89618   2.191   4.489  10.428  0.1571  0.6239  0.0491
27586SOL    HW189619   2.163   4.566  10.478  0.5734  1.0985 -0.4445
27586SOL    HW289620   2.118   4.471  10.369  0.5301  1.3556 -0.6541
27587SOL     OW89621   0.835   4.484   3.220  0.7733  0.4147 -0.0502
27587SOL    HW189622   0.744   4.476   3.248  0.9469 -0.3377  0.3170
27587SOL    HW289623   0.887   4.476   3.300  1.3531 -3.2800 -0.6165
27588SOL     OW89624   8.576  10.043   4.712 -0.0927 -0.7887 -0.3489
27588SOL    HW189625   8.536  10.031   4.798 -1.0347 -1.5099 -0.8711
27588SOL    HW289626   8.511  10.008   4.650  0.4889 -0.1120 -1.3645
27589SOL     OW89627  11.270   6.721   9.593  0.1438  0.1063 -0.2164
27589SOL    HW189628  11.233   6.729   9.681 -0.1859 -0.9802 -0.2401
27589SOL    HW289629  11.228   6.789   9.542 -0.5146  0.0088  0.1916
27590SOL     OW89630   8.782   9.597  12.281 -0.5845 -0.4315  0.0778
27590SOL    HW189631   8.807   9.522  12.334 -1.0433 -1.5720 -1.2372
27590SOL    HW289632   8.694   9.619  12.311  0.2993  0.8809  1.8168
27591SOL     OW89633   0.529   5.113   4.406  0.1757 -0.3540 -0.6043
27591SOL    HW189634   0.492   5.036   4.448  3.4799 -1.3726  0.8386
27591SOL    HW289635   0.512   5.185   4.467 -0.2051 -0.5982 -0.4242
27592SOL     OW89636   0.004   8.232  10.568  0.6646 -0.2265  0.0588
27592SOL    HW189637   0.071   8.296  10.545  0.4355 -0.1397 -0.3816
27592SOL    HW289638  -0.078   8.269  10.533  0.0953  0.4473  1.9587
27593SOL     OW89639   9.969  11.105  10.724  0.2255 -0.4760 -0.3825
27593SOL    HW189640   9.923  11.177  10.767  2.1446 -0.3552  1.6757
27593SOL    HW289641   9.946  11.027  10.774 -0.6981 -1.0925 -1.7107
27594SOL     OW89642  11.925  11.915   0.815 -0.6636 -0.0298  0.1221
27594SOL    HW189643  11.869  11.972   0.868 -1.5509  0.2791 -1.0911
27594SOL    HW289644  11.880  11.831   0.814 -0.9728  0.1276 -0.5821
27595SOL     OW89645   7.150   4.269   0.017 -0.0890 -0.4799  0.3253
27595SOL    HW189646   7.184   4.359   0.010  0.5090 -0.5633  1.8966
27595SOL    HW289647   7.066   4.279   0.062 -0.6175 -0.6214 -0.5842
27596SOL     OW89648   4.439   7.597   5.694 -0.0975 -0.1127  0.4842
27596SOL    HW189649   4.398   7.674   5.733 -0.4720 -0.9091  1.6962
27596SOL    HW289650   4.523   7.629   5.660 -0.4322  0.9112  0.5956
27597SOL     OW89651   3.646   8.582   2.943  0.2231 -0.0541  0.0437
27597SOL    HW189652   3.687   8.657   2.986 -1.8100  1.5800 -0.7273
27597SOL    HW289653   3.558   8.611   2.921 -0.4380 -2.4728 -0.8855
27598SOL     OW89654   5.040   5.713   7.967 -0.2423 -0.0156 -0.0094
27598SOL    HW189655   5.084   5.797   7.952 -0.0591 -0.4408 -2.2011
27598SOL    HW289656   4.972   5.709   7.900  0.5727 -2.1311 -0.8049
27599SOL     OW89657   2.939  10.540   4.444 -0.2424  0.3997  0.2014
27599SOL    HW189658   3.032  10.521   4.458 -0.5100 -1.4769 -0.3293
27599SOL    HW289659   2.894  10.492   4.513 -0.8283  1.8499  0.8865
27600SOL     OW89660   8.048   8.607   2.158 -0.2899  0.2557 -0.1056
27600SOL    HW189661   7.972   8.567   2.114  1.0374 -2.8344  0.1315
27600SOL    HW289662   8.054   8.560   2.241  1.8684  0.4122 -0.1301
27601SOL     OW89663   5.880   4.145   2.711 -0.4714  0.3062 -0.3514
27601SOL    HW189664   5.818   4.116   2.777  0.2771 -0.5930 -0.0156
27601SOL    HW289665   5.826   4.165   2.634 -1.1840 -0.3380 -0.0288
27602SOL     OW89666   1.029   8.894   8.641  0.6629 -0.1208 -0.0454
27602SOL    HW189667   1.066   8.982   8.643 -0.1577  0.2214  2.1355
27602SOL    HW289668   1.048   8.858   8.727 -1.5313 -0.9869  0.1369
27603SOL     OW89669   6.676   4.192  10.210 -0.3789  0.0283 -0.1690
27603SOL    HW189670   6.613   4.259  10.183 -0.1265  0.2786 -0.1419
27603SOL    HW289671   6.758   4.219  10.170 -0.1258  0.0984  0.3797
27604SOL     OW89672   4.354   8.437   7.328 -0.1912 -0.3257  0.3323
27604SOL    HW189673   4.303   8.380   7.271  0.2266  0.1852 -0.5681
27604SOL    HW289674   4.337   8.525   7.295  1.2199 -0.1417  0.0535
27605SOL     OW89675   9.153   2.295   0.408 -0.4445 -0.3879 -0.0275
27605SOL    HW189676   9.136   2.311   0.501 -0.6869 -1.0963  0.0593
27605SOL    HW289677   9.248   2.292   0.401 -0.3183  2.0131 -0.2317
27606SOL     OW89678   9.799  11.622   2.294  0.2045 -0.3934 -1.1709
27606SOL    HW189679   9.870  11.563   2.320 -0.6770 -1.2661 -0.6934
27606SOL    HW289680   9.812  11.700   2.348  0.1835 -0.9762 -0.3053
27607SOL     OW89681   8.732   6.212   1.405 -0.1592 -0.2735 -0.1197
27607SOL    HW189682   8.765   6.301   1.396 -0.5163 -0.3312 -2.8939
27607SOL    HW289683   8.638   6.218   1.386 -0.5514 -1.0269  1.3936
27608SOL     OW89684   6.302   8.329   8.966  0.4437 -0.5094  0.5845
27608SOL    HW189685   6.301   8.286   8.880  1.2750 -1.7830  1.1921
27608SOL    HW289686   6.326   8.419   8.947  1.5980 -1.0096 -0.4288
27609SOL     OW89687   0.479   3.319  10.851  0.2702 -0.2600 -0.3872
27609SOL    HW189688   0.508   3.319  10.942 -1.0147  1.1999  0.0577
27609SOL    HW289689   0.481   3.226  10.826 -0.6528 -0.8560  1.5608
27610SOL     OW89690   5.430  12.039   7.820  0.1906  0.3094  0.0661
27610SOL    HW189691   5.486  12.079   7.753 -1.5351  0.6187 -1.2550
27610SOL    HW289692   5.451  11.945   7.814 -1.9423 -0.1379 -3.0698
27611SOL     OW89693   0.758   7.649   2.579 -0.0081  0.2086  0.0732
27611SOL    HW189694   0.852   7.645   2.595  0.0542 -1.5553 -0.4857
27611SOL    HW289695   0.737   7.742   2.580  1.5387  0.5824  1.2891
27612SOL     OW89696   9.801   3.173   7.961 -0.3445 -0.0729  0.4632
27612SOL    HW189697   9.871   3.152   8.023 -0.4742  1.1533  1.0411
27612SOL    HW289698   9.840   3.154   7.875  0.0540 -1.1492  0.8646
27613SOL     OW89699  11.502   9.954   1.674 -0.3217 -0.0614 -0.0832
27613SOL    HW189700  11.495  10.010   1.752  0.8770 -0.5521  0.4030
27613SOL    HW289701  11.449   9.877   1.695  0.9294 -0.7376  0.7908
27614SOL     OW89702   3.087   9.797   2.759 -0.5964  0.2945 -0.5372
27614SOL    HW189703   3.022   9.727   2.748  0.9651 -1.1010 -1.3235
27614SOL    HW289704   3.134   9.773   2.839  0.7091 -0.2615 -1.4318
27615SOL     OW89705   3.144   7.233   7.074  0.3262  0.8252  0.3511
27615SOL    HW189706   3.184   7.318   7.091 -0.8478  1.3280  0.7247
27615SOL    HW289707   3.144   7.189   7.159  2.2818 -0.1782 -0.1308
27616SOL     OW89708  12.442  12.220   4.551 -0.0773 -0.1566 -0.2007
27616SOL    HW189709  12.392  12.261   4.622 -0.2253  1.6333 -1.2672
27616SOL    HW289710  12.392  12.141   4.529  0.0877 -0.8820  1.7797
27617SOL     OW89711   3.482   7.168   5.289 -0.4193 -0.0095  0.2373
27617SOL    HW189712   3.491   7.126   5.374  1.2397  0.1620  0.1850
27617SOL    HW289713   3.552   7.129   5.235  0.0616  1.5446 -0.3183
27618SOL     OW89714  12.304   9.042   7.213  0.4450 -0.0806 -0.5827
27618SOL    HW189715  12.357   9.067   7.137  0.8637 -0.7738 -0.5302
27618SOL    HW289716  12.346   9.085   7.287 -0.9300  1.9834 -0.9100
27619SOL     OW89717   9.050   7.236  11.811  0.7619  0.0205  0.5061
27619SOL    HW189718   9.060   7.299  11.740 -0.0333 -0.9432 -0.5110
27619SOL    HW289719   9.101   7.272  11.883  2.1241  0.7243 -0.7588
27620SOL     OW89720  11.461  11.705  11.898 -0.2826 -0.3518 -0.3593
27620SOL    HW189721  11.410  11.779  11.865 -2.4710  0.1231  3.4578
27620SOL    HW289722  11.421  11.628  11.857 -1.7329  0.2801 -0.1996
27621SOL     OW89723  10.931   9.316  10.956 -0.4229 -0.1218 -0.5118
27621SOL    HW189724  10.867   9.388  10.952  0.8076  1.1489  1.2537
27621SOL    HW289725  10.890   9.251  11.013  0.1094  1.0346  1.2638
27622SOL     OW89726   1.601  10.104  11.138 -0.1175 -0.0325 -0.1872
27622SOL    HW189727   1.618  10.010  11.136 -2.0897 -0.4264 -0.1983
27622SOL    HW289728   1.558  10.120  11.222 -1.4705  0.5191 -0.9521
27623SOL     OW89729   3.954   8.831   3.428  0.2733  0.2928  0.2869
27623SOL    HW189730   3.986   8.757   3.377 -0.2488 -0.5943  1.2209
27623SOL    HW289731   3.908   8.886   3.364  1.7473  0.4963 -0.6581
27624SOL     OW89732   6.558   9.647  12.077  0.3701 -0.2768  0.2340
27624SOL    HW189733   6.519   9.570  12.035  2.7890 -0.9747 -0.8892
27624SOL    HW289734   6.647   9.620  12.099  0.8013  1.7518  1.2021
27625SOL     OW89735  10.697  11.418   7.755 -0.1780 -0.0876  0.3361
27625SOL    HW189736  10.732  11.497   7.713  0.8550 -1.4542 -1.5893
27625SOL    HW289737  10.604  11.418   7.732  0.1033 -0.1220 -0.9192
27626SOL     OW89738   7.581   2.574   6.550 -0.7855  0.1168  0.0942
27626SOL    HW189739   7.572   2.659   6.506 -0.8020  0.1705  0.2021
27626SOL    HW289740   7.544   2.512   6.488  1.2627 -0.1174 -0.9812
27627SOL     OW89741  11.106   4.041   0.982  0.2820  0.6500 -0.3570
27627SOL    HW189742  11.201   4.049   0.984  0.3196  0.1614  0.0170
27627SOL    HW289743  11.085   3.989   1.059 -0.3946  1.7836  0.2396
27628SOL     OW89744   1.365   2.529  10.669  0.3342 -0.6424  0.3376
27628SOL    HW189745   1.339   2.619  10.686  0.0100 -0.6725  0.0082
27628SOL    HW289746   1.284   2.478  10.677  0.6827 -1.0456  1.4982
27629SOL     OW89747   6.821   3.659   9.969  0.1506 -0.4117  0.4596
27629SOL    HW189748   6.835   3.570   9.936  0.4168  0.0057 -0.5944
27629SOL    HW289749   6.869   3.715   9.908 -2.0331  0.6750 -0.3787
27630SOL     OW89750   6.451   6.544   9.394  0.1547  0.1580 -0.4118
27630SOL    HW189751   6.456   6.466   9.450 -2.9315  0.7013  0.8555
27630SOL    HW289752   6.470   6.617   9.452 -1.9494  0.6427 -0.2363
27631SOL     OW89753   6.645   4.702   5.150  0.2787 -0.3738  0.2748
27631SOL    HW189754   6.661   4.735   5.061  0.8469 -2.5856 -0.5198
27631SOL    HW289755   6.628   4.780   5.202  1.1128  1.0927 -1.5332
27632SOL     OW89756   3.327   1.404   0.942  0.2453  0.5625  0.1888
27632SOL    HW189757   3.326   1.326   0.887 -0.8715 -0.3299  1.4275
27632SOL    HW289758   3.259   1.389   1.007 -0.7416  3.0457 -0.1725
27633SOL     OW89759   4.789   0.688   1.631 -0.2679 -0.3764 -0.0721
27633SOL    HW189760   4.736   0.763   1.602 -2.2536 -2.5869 -2.7406
27633SOL    HW289761   4.877   0.724   1.644 -1.4398  2.6466  0.2633
27634SOL     OW89762   1.422   5.381   2.814 -0.0342  0.1357 -0.2950
27634SOL    HW189763   1.467   5.348   2.892  1.0761  0.3102 -0.8423
27634SOL    HW289764   1.383   5.303   2.774  1.0884 -0.2794 -0.6297
27635SOL     OW89765   2.081   0.983   8.906 -0.1831 -0.4694 -0.2158
27635SOL    HW189766   2.126   1.025   8.834  0.9593  1.1033  1.3370
27635SOL    HW289767   2.034   1.053   8.950 -0.9480 -1.4112  0.5311
27636SOL     OW89768   9.592   6.498   1.066  0.1438 -0.2209 -0.2842
27636SOL    HW189769   9.566   6.423   1.119  0.0079  0.6531  0.9531
27636SOL    HW289770   9.515   6.517   1.013  0.1483 -0.8884 -0.5385
27637SOL     OW89771   8.234   7.935   9.823 -0.0009 -0.3421  0.0853
27637SOL    HW189772   8.190   7.979   9.750 -0.2646 -1.8403 -0.6980
27637SOL    HW289773   8.196   7.974   9.901  1.1225  2.1408 -0.5222
27638SOL     OW89774   6.449   6.093   7.244  0.0888 -0.1243  0.1294
27638SOL    HW189775   6.538   6.124   7.257  0.3092 -0.8383  0.3738
27638SOL    HW289776   6.401   6.124   7.321  0.6648 -1.6715  1.1607
27639SOL     OW89777  11.059   3.262   7.626 -0.1896  0.3071  0.2027
27639SOL    HW189778  11.127   3.213   7.580 -0.0375  0.0558  0.6775
27639SOL    HW289779  11.106   3.308   7.696 -0.0081  2.7676 -1.4158
27640SOL     OW89780   5.217  11.922  11.342  0.4151  0.1400 -0.0863
27640SOL    HW189781   5.224  11.923  11.247 -0.2731 -2.7821 -0.2663
27640SOL    HW289782   5.286  11.862  11.371  0.3740  0.6931  1.2452
27641SOL     OW89783  11.818   7.815  11.509  0.0813  0.7165  0.5418
27641SOL    HW189784  11.839   7.810  11.416 -0.0792 -1.9615  0.5695
27641SOL    HW289785  11.898   7.846  11.550  1.1092 -0.7443 -0.2573
27642SOL     OW89786   5.743  11.059  10.356 -0.0602  0.3745  0.4916
27642SOL    HW189787   5.692  10.982  10.331  0.2678 -0.2633  1.7310
27642SOL    HW289788   5.685  11.133  10.339 -0.2339 -0.0982 -1.0942
27643SOL     OW89789   6.606   6.232  11.023 -0.0555  0.1362 -0.2130
27643SOL    HW189790   6.598   6.202  10.933 -0.2992 -2.9032  0.6872
27643SOL    HW289791   6.517   6.256  11.048 -0.2784 -0.5322 -0.3405
27644SOL     OW89792   2.742   8.353   0.637  0.1579 -0.2534  0.3409
27644SOL    HW189793   2.818   8.313   0.678  0.7056 -1.3100 -1.5742
27644SOL    HW289794   2.689   8.279   0.607  0.1538  0.4237 -1.4447
27645SOL     OW89795   1.241   5.024  10.304 -0.6589  0.1138 -0.1388
27645SOL    HW189796   1.146   5.035  10.310 -0.6221  0.3217  0.0815
27645SOL    HW289797   1.256   4.931  10.321 -0.8381  0.0424 -0.3623
27646SOL     OW89798   9.992  11.391   2.152 -0.7325  0.0217 -0.1064
27646SOL    HW189799  10.070  11.366   2.201  0.3110 -1.0132 -2.1600
27646SOL    HW289800   9.919  11.365   2.208  0.3930 -1.3246  0.8080
27647SOL     OW89801   4.202   9.039   8.263  0.2810  0.2002 -0.1241
27647SOL    HW189802   4.203   9.070   8.173  2.9375 -1.9516 -0.9780
27647SOL    HW289803   4.155   8.956   8.259  0.2302  0.1952  0.5042
27648SOL     OW89804   4.757  11.444   5.124  0.0352  0.1645  0.1743
27648SOL    HW189805   4.695  11.478   5.060  0.0246  0.9307  0.5749
27648SOL    HW289806   4.809  11.521   5.150 -0.8923  0.1924  2.1165
27649SOL     OW89807   5.525   0.153   7.649 -0.6995  0.3104 -0.4968
27649SOL    HW189808   5.467   0.221   7.615 -1.6932  0.2579  1.0028
27649SOL    HW289809   5.466   0.088   7.687  0.1846 -1.8687 -2.6270
27650SOL     OW89810   4.637   9.088   2.857 -0.3835  0.0824  0.4700
27650SOL    HW189811   4.567   9.030   2.889 -0.8063 -0.7046 -1.6987
27650SOL    HW289812   4.714   9.062   2.908 -1.3449  0.0669  1.9976
27651SOL     OW89813  10.413   7.083   0.750 -0.2104 -0.3723  0.3052
27651SOL    HW189814  10.398   7.131   0.669  1.4307 -0.8546 -0.3361
27651SOL    HW289815  10.505   7.055   0.745 -0.3379 -1.2375  1.8931
27652SOL     OW89816   6.106   6.897   2.375  0.4759 -0.7103  0.1166
27652SOL    HW189817   6.051   6.954   2.322  0.8980 -0.2992  0.1160
27652SOL    HW289818   6.188   6.890   2.327  1.3093  0.6370  1.2762
27653SOL     OW89819   7.963  11.916  10.473 -0.0542  0.2694 -0.0350
27653SOL    HW189820   8.022  11.957  10.409 -1.0266  0.7296 -0.6554
27653SOL    HW289821   7.945  11.986  10.536  0.1070  0.1087  0.1906
27654SOL     OW89822   1.240   7.271   7.630 -0.2929 -0.3547  0.1596
27654SOL    HW189823   1.172   7.205   7.614  0.7458 -1.7299  1.0807
27654SOL    HW289824   1.235   7.289   7.724  1.2212 -1.2644  0.4645
27655SOL     OW89825   1.032   6.096   8.190  0.4044 -0.5265 -0.0530
27655SOL    HW189826   1.003   6.126   8.104 -0.6196  0.1848  0.5160
27655SOL    HW289827   1.017   6.171   8.248 -0.0132 -1.3722  0.9644
27656SOL     OW89828   5.010   0.699   6.048  0.0443 -0.5971  0.4359
27656SOL    HW189829   4.954   0.646   5.992  0.7032 -0.4701 -0.3574
27656SOL    HW289830   4.953   0.727   6.120 -0.9317 -0.3677 -0.4165
27657SOL     OW89831   8.697  10.197   6.588  0.4877  0.3134  0.2019
27657SOL    HW189832   8.616  10.224   6.632  0.9598  0.6748  0.8667
27657SOL    HW289833   8.672  10.120   6.536 -0.8480  1.8209 -1.5489
27658SOL     OW89834   8.543  11.212   0.194  0.5903  0.6926  0.1970
27658SOL    HW189835   8.594  11.206   0.275  0.3786  0.9623  0.3552
27658SOL    HW289836   8.562  11.132   0.147  0.3256  0.2986  0.7461
27659SOL     OW89837   0.612   6.914  10.524 -0.3182  0.1343 -0.2488
27659SOL    HW189838   0.531   6.874  10.555  0.2486 -1.6697 -0.9297
27659SOL    HW289839   0.648   6.850  10.462  1.1424  1.3200 -0.6986
27660SOL     OW89840  10.146   0.660   0.285 -0.2139  0.0844 -0.8031
27660SOL    HW189841  10.209   0.615   0.227 -0.8531  1.2924 -2.5291
27660SOL    HW289842  10.071   0.601   0.289 -0.1647 -0.0108 -1.2273
27661SOL     OW89843  11.760   3.139  10.427 -0.1843  0.1196  0.1196
27661SOL    HW189844  11.836   3.153  10.483 -0.6214  0.4987  0.6261
27661SOL    HW289845  11.765   3.207  10.361  0.1615 -0.1339 -0.1141
27662SOL     OW89846   3.716   8.619   5.576  0.3767  0.0960  0.3450
27662SOL    HW189847   3.799   8.655   5.547  0.2261  1.5494  1.6162
27662SOL    HW289848   3.738   8.532   5.610  1.1155 -0.1244 -0.6447
27663SOL     OW89849   3.827   1.088   2.151  0.0568 -0.0564 -0.0014
27663SOL    HW189850   3.843   1.000   2.184 -0.6756 -0.9846 -1.9455
27663SOL    HW289851   3.913   1.118   2.120  0.4069  0.1550  1.1112
27664SOL     OW89852  10.504  11.790   3.121 -0.1730  0.1020  0.3919
27664SOL    HW189853  10.554  11.762   3.198  1.1163  0.0232 -0.4519
27664SOL    HW289854  10.455  11.711   3.095 -0.5739  0.1147  1.0842
27665SOL     OW89855   1.011   5.846   7.962  0.3153  0.1925  0.5723
27665SOL    HW189856   1.040   5.934   7.938 -0.8697  0.9330  1.6799
27665SOL    HW289857   1.014   5.846   8.058 -1.5959 -0.2722  0.6687
27666SOL     OW89858  10.324   9.070  10.503 -0.2352  0.4740  0.8078
27666SOL    HW189859  10.266   9.139  10.534  1.3795  2.5029 -0.4196
27666SOL    HW289860  10.412   9.101  10.526  0.5826 -0.9311 -0.2617
27667SOL     OW89861   4.166   2.908  10.942  0.4300  0.2141 -0.5416
27667SOL    HW189862   4.206   2.828  10.908  0.1532  0.0978 -0.5933
27667SOL    HW289863   4.104   2.935  10.874 -0.9099 -0.5993  0.2918
27668SOL     OW89864   6.338   4.810  10.104  0.5857 -0.1709  0.0752
27668SOL    HW189865   6.428   4.821  10.074  0.6820  1.5521  0.8768
27668SOL    HW289866   6.308   4.898  10.126 -1.6718 -0.5547 -1.1369
27669SOL     OW89867   3.440  12.418   9.804  0.0563 -0.5629 -0.2076
27669SOL    HW189868   3.404  12.504   9.827 -1.0414 -1.4048  1.3597
27669SOL    HW289869   3.428  12.365   9.883  3.8332 -1.2225  0.1101
27670SOL     OW89870   6.626  11.330   5.892 -0.0207  0.1391  0.3729
27670SOL    HW189871   6.593  11.418   5.911  1.6781  0.9554 -0.2555
27670SOL    HW289872   6.624  11.285   5.976 -1.2592  0.6463  0.6347
27671SOL     OW89873   6.912   0.446   8.736  0.6030 -0.1337  0.5353
27671SOL    HW189874   6.999   0.468   8.770 -0.3759  0.9273  2.5212
27671SOL    HW289875   6.860   0.525   8.748 -0.2104 -0.0783 -2.4519
27672SOL     OW89876   8.736   5.069   4.142  0.0986  0.5181  0.5180
27672SOL    HW189877   8.720   4.979   4.112  1.0018  0.2944  0.6696
27672SOL    HW289878   8.717   5.124   4.066 -2.7255  0.4300  1.0667
27673SOL     OW89879   1.449   0.011   9.002  0.0223  0.0929  0.5647
27673SOL    HW189880   1.424   0.026   8.911  1.9760 -0.4442 -0.1095
27673SOL    HW289881   1.367   0.011   9.050 -1.2503 -1.5230 -1.4725
27674SOL     OW89882  11.095   0.189  11.982 -0.1440 -0.6199  0.2130
27674SOL    HW189883  11.010   0.181  12.027  0.8750 -0.8313  2.2137
27674SOL    HW289884  11.127   0.275  12.009 -0.9726  0.8148 -2.9432
27675SOL     OW89885   4.225   4.846   2.836 -0.4632 -0.1661  0.0215
27675SOL    HW189886   4.155   4.906   2.858 -1.7997 -1.0220 -1.6719
27675SOL    HW289887   4.181   4.767   2.805  1.2169 -0.7850 -0.9625
27676SOL     OW89888   4.468   3.926   6.721 -0.5467 -0.5039  0.7995
27676SOL    HW189889   4.462   4.021   6.710  0.5059 -0.4561  0.5469
27676SOL    HW289890   4.525   3.914   6.797  0.3409 -0.9346  0.0825
27677SOL     OW89891   8.828   2.002   6.722  0.2590 -0.7494 -0.4146
27677SOL    HW189892   8.848   1.932   6.785 -0.8088  0.9097  1.8748
27677SOL    HW289893   8.733   2.012   6.726  0.2900  0.1332 -1.4984
27678SOL     OW89894  10.220   1.277  10.619  0.2535  0.3239  0.1835
27678SOL    HW189895  10.168   1.342  10.666  0.8277  0.8046  0.1674
27678SOL    HW289896  10.255   1.324  10.543 -1.5305 -0.7014 -1.3729
27679SOL     OW89897   6.863   4.393   1.845 -0.3465 -0.0418 -0.3336
27679SOL    HW189898   6.793   4.450   1.875  0.4409  0.0245  1.4908
27679SOL    HW289899   6.892   4.347   1.924  0.0350 -1.8732 -1.4856
27680SOL     OW89900   8.456   8.898   9.275 -0.3307  0.0988  0.4671
27680SOL    HW189901   8.398   8.860   9.341 -0.3379  0.6253  0.7714
27680SOL    HW289902   8.435   8.992   9.276 -1.5726 -0.1040 -1.5318
27681SOL     OW89903   0.058   4.176  11.803  0.5787  0.8430 -0.4125
27681SOL    HW189904   0.074   4.107  11.867  1.5652  1.3262 -0.1130
27681SOL    HW289905   0.067   4.257  11.852  0.0863  1.2017 -0.9005
27682SOL     OW89906  11.041   1.148   2.638 -0.0638  0.4431 -0.0261
27682SOL    HW189907  11.053   1.113   2.550  0.9102 -1.1475  0.6968
27682SOL    HW289908  11.121   1.199   2.654  0.8178 -1.1243  0.7387
27683SOL     OW89909   2.556   8.356  12.175 -0.4410  0.3918  0.5705
27683SOL    HW189910   2.645   8.362  12.138 -1.6432  2.1373 -2.4053
27683SOL    HW289911   2.516   8.283  12.127 -1.9101  2.4424 -1.5538
27684SOL     OW89912   3.245   4.684   9.110 -0.2377  0.4537  0.7385
27684SOL    HW189913   3.321   4.646   9.154  1.8947  3.0440 -0.4579
27684SOL    HW289914   3.282   4.735   9.037 -3.3177 -0.1448 -1.4282
27685SOL     OW89915   0.919   7.033   2.304 -0.3078 -0.3517 -0.1233
27685SOL    HW189916   0.911   6.989   2.220  1.4085 -1.9528  0.4705
27685SOL    HW289917   0.897   6.966   2.369  1.1532 -0.0212  0.7679
27686SOL     OW89918   7.078  11.748   7.564  0.6675 -0.1675  0.7295
27686SOL    HW189919   7.006  11.685   7.567  0.5858 -0.0663  0.9634
27686SOL    HW289920   7.124  11.735   7.647  1.1681 -0.5146  0.4041
27687SOL     OW89921  11.993   9.431   6.296  0.2084 -0.3158 -0.2194
27687SOL    HW189922  12.065   9.481   6.335  1.0997  0.2662 -2.4795
27687SOL    HW289923  11.943   9.494   6.246 -0.9463 -1.0249  0.0029
27688SOL     OW89924   4.245   2.998   5.293  0.6650  0.7504  0.0111
27688SOL    HW189925   4.268   2.912   5.326  0.7097  0.0923 -1.6412
27688SOL    HW289926   4.151   2.993   5.274  1.0859  0.2813 -2.1960
27689SOL     OW89927   3.064   7.503   6.491  0.2148  0.1705 -0.0723
27689SOL    HW189928   2.989   7.450   6.518  1.2097 -0.4503  1.6280
27689SOL    HW289929   3.140   7.454   6.522  1.3506  0.7646 -1.7832
27690SOL     OW89930   3.822   8.004   3.514  0.4242 -0.1600 -0.3732
27690SOL    HW189931   3.745   8.055   3.486 -0.1844 -0.3347  0.9304
27690SOL    HW289932   3.895   8.064   3.501 -0.1628  0.6921  0.1429
27691SOL     OW89933   5.726   6.653   2.810 -0.2994 -0.1805 -0.5937
27691SOL    HW189934   5.710   6.617   2.897  0.1191 -1.5295 -1.0410
27691SOL    HW289935   5.817   6.684   2.813  0.2252 -1.5794 -0.9460
27692SOL     OW89936   1.592   1.205   7.911  0.4912 -0.3840 -0.3431
27692SOL    HW189937   1.654   1.212   7.838 -1.1876  0.3709 -1.7685
27692SOL    HW289938   1.585   1.111   7.928  1.0231 -0.5588 -1.0383
27693SOL     OW89939   2.668  12.361   1.934  0.0557 -0.4851  0.2073
27693SOL    HW189940   2.761  12.344   1.920  0.3594  1.2643 -0.1641
27693SOL    HW289941   2.634  12.279   1.970  1.4909 -1.5352 -0.7147
27694SOL     OW89942   1.108   6.108   7.902  0.0691  0.1073  0.7252
27694SOL    HW189943   1.129   6.188   7.854  1.3502  0.5584  1.9698
27694SOL    HW289944   1.176   6.046   7.875 -0.3575 -0.2696  0.4951
27695SOL     OW89945   5.184   7.429   8.518  0.0818  0.2150 -0.2491
27695SOL    HW189946   5.227   7.386   8.444 -1.7218  1.3288 -2.0596
27695SOL    HW289947   5.108   7.374   8.536  1.8522 -1.5311  2.6723
27696SOL     OW89948   5.941   7.736   3.377 -0.3779 -0.2900 -0.0524
27696SOL    HW189949   5.965   7.691   3.458 -0.1671 -1.8721 -0.9504
27696SOL    HW289950   6.005   7.806   3.369 -0.4056 -0.0976  1.1365
27697SOL     OW89951   0.813   3.510   9.062  0.1413 -0.3748 -0.2121
27697SOL    HW189952   0.779   3.548   9.143 -0.2622  0.1531 -0.6243
27697SOL    HW289953   0.840   3.421   9.087  0.3934 -0.0886  0.5892
27698SOL     OW89954  12.479   0.498   0.286  0.0840 -0.0950 -0.1651
27698SOL    HW189955  12.533   0.550   0.226 -0.2592 -1.2698 -1.5587
27698SOL    HW289956  12.473   0.412   0.244  1.0972 -1.4792  2.3189
27699SOL     OW89957   1.160  12.327  10.331 -0.8710 -0.6139 -0.4891
27699SOL    HW189958   1.120  12.401  10.378 -0.3249  0.4471 -1.6280
27699SOL    HW289959   1.125  12.249  10.374 -0.2506  0.2830  1.8095
27700SOL     OW89960  11.946   5.414   5.269  0.0206  0.4049 -0.0384
27700SOL    HW189961  11.946   5.351   5.341  0.8937 -0.1065 -0.4695
27700SOL    HW289962  11.908   5.493   5.306  2.2235  0.8125  1.5537
27701SOL     OW89963   7.494  11.266   3.972  0.0320  0.2852 -0.0952
27701SOL    HW189964   7.516  11.356   3.945  2.6414 -0.4496 -0.7366
27701SOL    HW289965   7.435  11.277   4.046 -2.2306  2.4628 -2.0399
27702SOL     OW89966   9.064   4.256   6.341 -0.1879 -0.0938 -0.0264
27702SOL    HW189967   9.134   4.199   6.373 -0.6023 -0.9060 -0.5196
27702SOL    HW289968   9.079   4.261   6.246  0.7187  1.8479  0.1725
27703SOL     OW89969   6.912   4.801  11.568  0.0988  0.5400  0.5042
27703SOL    HW189970   6.918   4.754  11.651  1.0917 -0.4682 -0.1018
27703SOL    HW289971   6.897   4.733  11.502 -1.1525  1.3640 -0.1069
27704SOL     OW89972  10.264   4.790   6.249 -0.2239 -0.1892  0.1029
27704SOL    HW189973  10.272   4.825   6.338  1.4244 -0.9757  0.2952
27704SOL    HW289974  10.342   4.821   6.204  0.4877 -2.2734 -0.1779
27705SOL     OW89975   6.294   2.431   9.306  0.2975 -0.2118 -0.4849
27705SOL    HW189976   6.291   2.342   9.343 -1.3438  0.2730  0.6568
27705SOL    HW289977   6.210   2.442   9.262  1.0844  0.2730 -1.9143
27706SOL     OW89978   2.903   7.279   8.685  0.1295 -0.3638 -0.0897
27706SOL    HW189979   2.816   7.294   8.723 -0.4646  1.4057 -2.0022
27706SOL    HW289980   2.964   7.318   8.748 -0.3639 -1.8845  1.4174
27707SOL     OW89981   8.566   2.128   6.553  0.0552 -0.4317  0.4160
27707SOL    HW189982   8.609   2.139   6.638  1.6324  0.4113 -0.4389
27707SOL    HW289983   8.610   2.191   6.496  0.7773 -2.6912 -1.6704
27708SOL     OW89984   6.674   0.315   6.220  0.4684 -0.1174 -0.3537
27708SOL    HW189985   6.728   0.241   6.247 -2.3583 -1.5506  1.9540
27708SOL    HW289986   6.593   0.275   6.188  0.0775  1.9477 -2.1763
27709SOL     OW89987  10.206   8.285   6.664 -0.3660  0.3153  0.1011
27709SOL    HW189988  10.260   8.336   6.603 -0.6857  0.8930  0.2926
27709SOL    HW289989  10.124   8.334   6.669 -1.3823 -1.1703 -1.0915
27710SOL     OW89990   7.656   1.392  11.331 -0.5855 -0.0723 -0.1985
27710SOL    HW189991   7.641   1.299  11.313 -1.1184  0.0842 -0.5837
27710SOL    HW289992   7.618   1.406  11.418 -2.5544  0.2723 -1.0732
27711SOL     OW89993   0.544   5.794  12.135 -0.8379 -0.6599  0.1164
27711SOL    HW189994   0.601   5.772  12.208  0.0250 -1.5125 -0.7845
27711SOL    HW289995   0.481   5.722  12.131 -1.2890 -0.2910  0.4012
27712SOL     OW89996   3.895  11.672  10.883  0.0506 -0.6812  0.2957
27712SOL    HW189997   3.920  11.763  10.867  1.0499 -0.9183  0.4527
27712SOL    HW289998   3.825  11.654  10.820  0.8740 -0.2622 -0.7610
27713SOL     OW89999   0.788   8.836   8.100 -0.3594  0.3378  0.4217
27713SOL    HW190000   0.883   8.828   8.097 -0.3564  0.7087 -0.6481
27713SOL    HW290001   0.768   8.843   8.194  0.4770 -1.9311  0.8320
27714SOL     OW90002   6.953   6.989   7.743  0.2528 -0.2142 -0.2936
27714SOL    HW190003   6.933   7.030   7.827  0.2989 -3.8125  1.6413
27714SOL    HW290004   7.045   7.008   7.728  0.1405  0.7871  0.2447
27715SOL     OW90005   7.193   1.296   6.616 -0.8102  0.5277  0.4483
27715SOL    HW190006   7.189   1.216   6.669 -0.6555 -0.3682 -0.8638
27715SOL    HW290007   7.245   1.356   6.669  1.0776 -1.0270  0.4723
27716SOL     OW90008   6.428   6.558   3.882  0.1456 -0.7206 -0.3944
27716SOL    HW190009   6.434   6.612   3.804  0.2265  0.9374  0.7109
27716SOL    HW290010   6.519   6.539   3.906  0.6536  3.6241  2.4068
27717SOL     OW90011   1.993   2.726   0.576  0.1483 -0.0145 -0.1751
27717SOL    HW190012   2.046   2.648   0.596 -0.4795 -0.5092 -0.3916
27717SOL    HW290013   1.913   2.691   0.535 -1.9262  0.3966  3.1535
27718SOL     OW90014   6.414   7.056  10.913 -0.3296  0.0804  0.2196
27718SOL    HW190015   6.401   6.979  10.857  1.8270  0.0934 -0.3917
27718SOL    HW290016   6.326   7.092  10.924 -0.9274 -0.0927 -2.9400
27719SOL     OW90017   9.616  10.963   2.966  0.3682 -0.2151  0.4825
27719SOL    HW190018   9.701  11.000   2.944 -0.0202  0.3012 -0.2087
27719SOL    HW290019   9.631  10.869   2.973  1.2678  0.0031  1.7386
27720SOL     OW90020   2.342   2.198  10.347  0.0245 -0.2302  0.0465
27720SOL    HW190021   2.432   2.198  10.380  0.2585 -2.6730 -0.3672
27720SOL    HW290022   2.293   2.150  10.414 -0.5859 -0.4822 -0.5670
27721SOL     OW90023   6.047   3.469   0.761 -0.1997 -0.5594  0.1062
27721SOL    HW190024   6.112   3.514   0.706 -0.3271 -0.4449  0.0467
27721SOL    HW290025   5.989   3.426   0.698 -0.3901 -0.3670  0.1482
27722SOL     OW90026   6.387  12.469   2.243  0.2486 -0.5990  0.0305
27722SOL    HW190027   6.349  12.470   2.331  0.5885  0.2377  0.1782
27722SOL    HW290028   6.366  12.555   2.207  0.9675 -0.5683 -0.3319
27723SOL     OW90029   5.296   9.355   4.159 -0.2834  0.2079 -0.1169
27723SOL    HW190030   5.331   9.268   4.178 -0.1019 -0.2189 -2.1369
27723SOL    HW290031   5.204   9.339   4.138 -0.3783  0.5733  0.0243
27724SOL     OW90032  10.849   7.348   9.592 -0.3873 -0.1897  0.2479
27724SOL    HW190033  10.793   7.418   9.627 -1.3083 -0.5801 -0.4027
27724SOL    HW290034  10.898   7.317   9.668 -2.4220 -1.1023  1.2751
27725SOL     OW90035   4.154  11.888   6.489 -0.1723 -0.3253 -0.2806
27725SOL    HW190036   4.061  11.874   6.470 -0.2396  1.4334 -1.4860
27725SOL    HW290037   4.156  11.970   6.539  0.7591 -0.0189 -0.7963
27726SOL     OW90038   5.900  10.165   7.566 -0.8809  0.1982  0.5605
27726SOL    HW190039   5.982  10.144   7.610 -1.9294 -0.5824  2.2310
27726SOL    HW290040   5.898  10.260   7.561 -0.1060  0.2363  0.9371
27727SOL     OW90041   6.696   0.685  10.397  0.1086 -0.0646 -0.7461
27727SOL    HW190042   6.701   0.610  10.457  2.2649  1.6401  1.4402
27727SOL    HW290043   6.603   0.692  10.375 -0.6880 -1.2828  1.8216
27728SOL     OW90044  10.121  11.699   7.992  0.8246  0.3680 -0.3219
27728SOL    HW190045  10.110  11.613   7.952 -1.1914 -0.0223  0.9397
27728SOL    HW290046  10.033  11.737   7.991  0.6845  0.4910  3.2274
27729SOL     OW90047   4.748  10.072   9.598 -0.2378 -0.6965  0.7136
27729SOL    HW190048   4.653  10.062   9.608 -0.2459  0.4807  2.3205
27729SOL    HW290049   4.784   9.992   9.638 -0.5467 -1.0972  0.1977
27730SOL     OW90050  10.258  10.128   6.306 -0.4262  0.7225  0.1515
27730SOL    HW190051  10.297  10.106   6.221 -1.0265  0.1019  0.0247
27730SOL    HW290052  10.213  10.048   6.333 -1.2860  1.2992  0.4710
27731SOL     OW90053   5.418  11.317   3.445 -0.4028  0.8617  0.1018
27731SOL    HW190054   5.471  11.397   3.450 -0.2738  0.7309  1.1090
27731SOL    HW290055   5.474  11.250   3.485  0.1825 -0.1429 -2.2218
27732SOL     OW90056  10.319   8.781   6.287 -0.6202 -0.3405  0.1272
27732SOL    HW190057  10.313   8.840   6.212 -1.1025  0.3094  0.6659
27732SOL    HW290058  10.232   8.743   6.295 -0.5110 -0.5758  0.2283
27733SOL     OW90059   9.738   1.891   2.079 -0.3677 -0.2051 -0.1122
27733SOL    HW190060   9.833   1.882   2.075 -0.4104 -2.0159  1.5519
27733SOL    HW290061   9.705   1.817   2.028 -0.7953 -1.6152  2.0377
27734SOL     OW90062   1.929  10.741  11.420  0.5298 -0.3961  0.0685
27734SOL    HW190063   1.844  10.729  11.463  0.4706 -0.0969  0.0407
27734SOL    HW290064   1.962  10.653  11.405 -0.9432 -0.6100 -2.2950
27735SOL     OW90065   3.067   6.649  10.852 -0.4783 -0.1876  0.3725
27735SOL    HW190066   3.152   6.677  10.885 -0.6488  2.6827 -1.2106
27735SOL    HW290067   3.007   6.666  10.924  0.0548 -0.5846  0.9177
27736SOL     OW90068  10.507   5.299   9.612 -0.1502  0.2637 -0.0836
27736SOL    HW190069  10.573   5.347   9.663 -0.0927  0.7401 -0.5988
27736SOL    HW290070  10.526   5.322   9.521  0.5292 -1.5458 -0.4384
27737SOL     OW90071   3.199  10.105   7.366  0.1121 -0.1071  0.2017
27737SOL    HW190072   3.143  10.170   7.325  0.5444  0.1487  0.0044
27737SOL    HW290073   3.286  10.120   7.327  0.2028 -0.8471  0.0957
27738SOL     OW90074   6.967   9.462   2.659  0.6540 -0.1148  0.6167
27738SOL    HW190075   6.888   9.468   2.712  1.1728  3.4397  1.2726
27738SOL    HW290076   6.936   9.463   2.569 -0.1395  1.5337  0.8646
27739SOL     OW90077   8.352   9.119   6.125 -0.4817 -0.5371 -0.9430
27739SOL    HW190078   8.418   9.168   6.174 -2.4719  0.4511  0.9245
27739SOL    HW290079   8.356   9.154   6.036  2.1624 -1.2476 -1.1700
27740SOL     OW90080   6.301   9.295   2.380  0.8288  0.2550 -0.1403
27740SOL    HW190081   6.302   9.234   2.307 -1.8725  0.8013 -0.7333
27740SOL    HW290082   6.339   9.376   2.345  1.3936 -0.0935 -0.3326
27741SOL     OW90083   8.841   9.993   7.561 -0.2834  0.0757  0.1142
27741SOL    HW190084   8.870  10.082   7.540 -0.5847  0.4661  1.2677
27741SOL    HW290085   8.916   9.953   7.605 -0.0589 -0.3438 -0.6259
27742SOL     OW90086   7.506   2.391   5.303 -0.0515 -0.3537  0.1877
27742SOL    HW190087   7.517   2.478   5.341  0.1001 -0.1438 -0.3299
27742SOL    HW290088   7.412   2.383   5.287 -0.3443 -1.0143  1.9258
27743SOL     OW90089   3.045   5.538   9.932 -0.7309  0.3049  0.1761
27743SOL    HW190090   3.031   5.629   9.908  0.8965  0.1996 -1.4733
27743SOL    HW290091   2.959   5.506   9.959 -1.3584  2.2574  0.6364
27744SOL     OW90092   9.328   5.468   4.047  0.7485  0.1844 -0.7901
27744SOL    HW190093   9.310   5.379   4.079  1.1700 -0.0088 -1.0769
27744SOL    HW290094   9.264   5.480   3.976  0.4963  0.2239 -0.5595
27745SOL     OW90095   7.077   0.489   0.064 -0.2275 -0.0301  0.0228
27745SOL    HW190096   7.076   0.444   0.148 -0.7359  0.5415  0.3359
27745SOL    HW290097   7.151   0.550   0.070 -1.1196  1.0353  0.6342
27746SOL     OW90098   1.238   9.239   9.331  0.5039 -0.4226 -0.1428
27746SOL    HW190099   1.184   9.294   9.388 -1.4640 -0.7789 -1.5572
27746SOL    HW290100   1.250   9.290   9.252  1.7211 -0.6327 -0.1175
27747SOL     OW90101   4.710   6.492   1.460 -0.0836  0.0148 -0.6083
27747SOL    HW190102   4.760   6.558   1.509 -0.3478 -0.5496  0.4362
27747SOL    HW290103   4.694   6.422   1.523 -1.3793 -0.2387 -1.1895
27748SOL     OW90104   3.041  10.203  11.529 -0.0060 -0.4836 -0.4088
27748SOL    HW190105   3.034  10.189  11.623 -1.3518 -0.9168 -0.5472
27748SOL    HW290106   2.991  10.131  11.490 -1.8139  1.1823 -1.3475
27749SOL     OW90107   5.031   8.894   8.162  0.1251  0.2606 -0.1297
27749SOL    HW190108   4.952   8.841   8.150 -1.2025  2.2448 -0.5084
27749SOL    HW290109   5.103   8.831   8.155 -1.3190 -1.3299 -1.5629
27750SOL     OW90110  10.681  11.788   8.371 -0.2883 -0.8103 -0.0857
27750SOL    HW190111  10.708  11.707   8.328 -2.7384 -2.1864  0.7930
27750SOL    HW290112  10.637  11.838   8.303  0.6122 -0.5190 -0.4615
27751SOL     OW90113   1.198   5.040  11.080 -0.0750 -0.0524  0.1031
27751SOL    HW190114   1.257   4.965  11.085 -0.3602 -0.3150 -0.4310
27751SOL    HW290115   1.125   5.016  11.136  0.7373  0.6688  1.5341
27752SOL     OW90116   0.179   5.811   7.284  0.2763 -0.1888 -0.0941
27752SOL    HW190117   0.175   5.906   7.276  0.6924 -0.2495 -1.0722
27752SOL    HW290118   0.189   5.779   7.195  2.5589 -1.0267  0.4032
27753SOL     OW90119   6.047   7.470   3.201 -0.4528  0.1272 -0.5058
27753SOL    HW190120   6.108   7.540   3.224 -0.2338 -0.5527  1.0517
27753SOL    HW290121   5.973   7.516   3.161 -0.0672  1.2011 -0.0240
27754SOL     OW90122  11.163  10.522   8.589  0.1797 -0.4768  0.7185
27754SOL    HW190123  11.213  10.463   8.645 -0.2721 -0.5839  1.0115
27754SOL    HW290124  11.149  10.473   8.508  0.0706 -0.6548  0.8453
27755SOL     OW90125   5.576   2.975   3.996  0.1704 -0.2413 -0.6772
27755SOL    HW190126   5.618   2.973   4.082 -2.2017  1.8288  0.6582
27755SOL    HW290127   5.614   3.053   3.954 -0.0843 -0.1435 -0.7240
27756SOL     OW90128  11.714   6.685   5.231  0.2686  0.1656 -0.1624
27756SOL    HW190129  11.725   6.728   5.147  0.9534 -3.4757 -2.1465
27756SOL    HW290130  11.623   6.654   5.230  0.5888 -0.8094 -0.0820
27757SOL     OW90131  11.877   8.389   2.858 -0.1459 -0.3710 -0.4415
27757SOL    HW190132  11.947   8.330   2.884 -0.8429 -1.0665 -0.1040
27757SOL    HW290133  11.859   8.366   2.767 -0.8935 -1.1809 -0.1014
27758SOL     OW90134   4.482  11.056   3.932  0.1790 -0.5713 -0.2474
27758SOL    HW190135   4.517  10.990   3.872  1.4214  0.7260 -1.0094
27758SOL    HW290136   4.490  11.138   3.885 -0.0149  0.3220  1.2174
27759SOL     OW90137   7.063  11.366   1.209 -0.0965  0.7052  0.3668
27759SOL    HW190138   7.079  11.336   1.299  2.7098  0.3558 -0.1519
27759SOL    HW290139   7.073  11.287   1.156 -0.8961  1.0675 -0.3433
27760SOL     OW90140   2.468   4.717  11.859  0.3352 -0.0599  0.1240
27760SOL    HW190141   2.549   4.677  11.891  0.0568 -0.8480 -0.1177
27760SOL    HW290142   2.469   4.806  11.895  0.3123 -0.7208  1.8761
27761SOL     OW90143   0.202  10.161   8.655 -1.0179 -0.3197  0.3210
27761SOL    HW190144   0.239  10.167   8.567 -1.3659  0.1487  0.2065
27761SOL    HW290145   0.135  10.093   8.648 -3.3710  1.9359 -0.6262
27762SOL     OW90146   6.597   6.890  12.201  0.0210  0.3367  0.0292
27762SOL    HW190147   6.537   6.933  12.262  1.0943  1.2860  0.4684
27762SOL    HW290148   6.577   6.797  12.208 -1.2421  0.6104  0.3085
27763SOL     OW90149   9.968  11.223   7.199 -0.8288 -0.0800  0.0299
27763SOL    HW190150   9.894  11.269   7.159 -0.7304  0.6719  0.6914
27763SOL    HW290151   9.942  11.131   7.198 -0.6090 -0.1731 -2.2059
27764SOL     OW90152   6.580   5.398   3.778 -0.2445  0.1789  0.6348
27764SOL    HW190153   6.584   5.450   3.698 -0.3888 -0.8208 -0.0362
27764SOL    HW290154   6.656   5.427   3.829  1.1926 -0.7855 -0.8740
27765SOL     OW90155   7.294   5.119   2.981  0.2169  0.1774 -0.0823
27765SOL    HW190156   7.202   5.109   3.006  0.5553 -1.7685  0.4987
27765SOL    HW290157   7.335   5.160   3.057  0.1475 -0.5068  0.3306
27766SOL     OW90158   1.650   5.137   1.201  0.0618  0.3120  0.4792
27766SOL    HW190159   1.712   5.165   1.134 -0.0636  1.9596  0.9896
27766SOL    HW290160   1.701   5.079   1.258  0.8565  0.8435  0.3257
27767SOL     OW90161   6.487   2.609   2.487 -0.0729  0.6222 -0.7078
27767SOL    HW190162   6.559   2.634   2.544 -0.1985  0.4012 -0.4506
27767SOL    HW290163   6.452   2.693   2.455 -0.3749  0.7799  0.0069
27768SOL     OW90164   3.028   7.607   2.185  0.1730  0.0171 -0.1474
27768SOL    HW190165   3.041   7.701   2.188  0.7445 -0.0681  0.2974
27768SOL    HW290166   2.988   7.586   2.269 -0.5048 -0.0655 -0.4818
27769SOL     OW90167   9.266   1.990   1.785 -0.7063 -0.1935 -0.1907
27769SOL    HW190168   9.214   1.944   1.719 -1.3766 -0.0995  0.2736
27769SOL    HW290169   9.343   1.935   1.797  0.3500  0.6542 -2.3761
27770SOL     OW90170   7.165   0.650   9.133  0.5459 -0.2199  0.0603
27770SOL    HW190171   7.183   0.558   9.153 -0.4603 -0.5136 -0.3453
27770SOL    HW290172   7.227   0.672   9.064  0.8268 -0.5785  0.1946
27771SOL     OW90173   3.913   3.995   7.304 -0.1590  0.4157  0.4137
27771SOL    HW190174   3.887   3.908   7.274  1.4326  0.2187 -0.5684
27771SOL    HW290175   3.864   4.056   7.249  0.0239  0.1019 -0.0980
27772SOL     OW90176  11.025   2.100   1.217  0.0749 -0.3548 -0.3064
27772SOL    HW190177  11.014   2.059   1.131 -0.4864  1.8547 -1.3389
27772SOL    HW290178  11.117   2.086   1.238  0.5402  0.1497 -1.8607
27773SOL     OW90179   9.159   7.525   3.440  0.9861 -0.3362  0.0130
27773SOL    HW190180   9.185   7.451   3.386 -1.9992 -1.9336  0.5622
27773SOL    HW290181   9.117   7.586   3.379  0.5035 -0.6350  0.0455
27774SOL     OW90182   8.934   8.051  11.512 -0.3320 -0.0815 -0.8804
27774SOL    HW190183   8.843   8.027  11.495 -0.3425 -1.0816  0.4213
27774SOL    HW290184   8.943   8.140  11.478 -2.0300  0.3472 -0.2680
27775SOL     OW90185   5.421   3.432   1.560  0.3173 -0.2184  0.9908
27775SOL    HW190186   5.420   3.413   1.654  0.6082  0.1979  1.0851
27775SOL    HW290187   5.340   3.481   1.545 -0.8760 -2.2216  0.5783
27776SOL     OW90188  12.396   0.648   2.006 -0.1303 -0.7622  0.0470
27776SOL    HW190189  12.426   0.652   1.915  2.2594 -0.7994  0.7660
27776SOL    HW290190  12.441   0.720   2.049 -1.6159 -0.4424  1.1357
27777SOL     OW90191   8.521   4.535   9.352 -0.0359  0.3642 -0.0109
27777SOL    HW190192   8.529   4.496   9.439  0.3732  1.6062  0.5222
27777SOL    HW290193   8.606   4.519   9.310  1.0726  2.7590  1.1212
27778SOL     OW90194   7.268   4.420   0.608 -0.1281  0.2746  0.5847
27778SOL    HW190195   7.265   4.491   0.671  1.4953 -0.0353  1.0478
27778SOL    HW290196   7.350   4.434   0.560 -1.6395  0.9124 -1.9809
27779SOL     OW90197   8.140   5.436   3.186  0.6069 -0.5075 -0.7410
27779SOL    HW190198   8.154   5.460   3.094  1.7290 -0.6909 -0.6346
27779SOL    HW290199   8.220   5.464   3.230 -0.0445 -0.1564  0.2398
27780SOL     OW90200   6.573   4.763   2.771  0.0861  0.0554 -0.3046
27780SOL    HW190201   6.499   4.781   2.828 -0.6262  1.8573 -1.6985
27780SOL    HW290202   6.551   4.680   2.728 -1.0294  0.4743 -0.5572
27781SOL     OW90203   9.921   5.918   8.778 -0.1527 -0.1245  0.1562
27781SOL    HW190204   9.931   5.823   8.766 -2.5752 -0.5416  0.7153
27781SOL    HW290205   9.934   5.954   8.691 -0.1774 -1.1037 -0.2730
27782SOL     OW90206   5.998  10.324   9.548 -0.1081 -0.1443  0.9426
27782SOL    HW190207   6.087  10.360   9.547  0.5463 -1.6219  2.4216
27782SOL    HW290208   5.964  10.343   9.460  1.9619 -0.2816  0.0617
27783SOL     OW90209   0.683   9.861   9.853  0.1618 -0.4820 -0.1801
27783SOL    HW190210   0.611   9.883   9.912 -0.4695 -0.0664 -1.0808
27783SOL    HW290211   0.640   9.822   9.777  0.8348  0.2782 -0.9660
27784SOL     OW90212   7.098   0.063   4.600 -0.0596 -0.1917 -0.2340
27784SOL    HW190213   7.113   0.059   4.506  0.3431  0.6889 -0.2218
27784SOL    HW290214   7.058   0.149   4.614 -0.1820 -0.3428  0.3927
27785SOL     OW90215   9.626   1.507   6.321 -0.2932  0.0682  0.1654
27785SOL    HW190216   9.693   1.527   6.387  0.8848  0.4231 -1.0833
27785SOL    HW290217   9.589   1.592   6.298  1.0265  0.2745 -1.3550
27786SOL     OW90218   9.002   3.624   9.879 -0.2377 -0.2726 -0.5623
27786SOL    HW190219   9.028   3.581   9.797 -0.5892 -1.1300 -0.2385
27786SOL    HW290220   8.960   3.555   9.930 -0.8081  0.4622 -0.0137
27787SOL     OW90221   4.947   3.609   9.096 -0.3297  0.4721  0.3046
27787SOL    HW190222   4.906   3.675   9.152 -0.1721  0.6811  0.1757
27787SOL    HW290223   5.014   3.568   9.152 -1.1780 -0.3581  0.7366
27788SOL     OW90224   3.693   7.003   1.406 -0.2782  0.1248 -0.1218
27788SOL    HW190225   3.774   7.016   1.356  0.0269  0.0820  0.3575
27788SOL    HW290226   3.668   6.912   1.387  0.3322 -0.1872  0.5105
27789SOL     OW90227   9.997   0.721   5.811 -0.4600  0.5948 -0.0802
27789SOL    HW190228  10.092   0.728   5.801 -0.6659  1.2059 -1.9252
27789SOL    HW290229   9.976   0.632   5.784 -0.4473  0.5641  0.0113
27790SOL     OW90230   6.131  11.749   6.483  0.1801 -0.6494  0.9259
27790SOL    HW190231   6.149  11.837   6.451  1.4970 -1.4993 -0.8234
27790SOL    HW290232   6.040  11.753   6.514 -0.2807  0.9494 -0.4663
27791SOL     OW90233   7.592   9.920   5.177 -0.2033  0.0943 -0.1273
27791SOL    HW190234   7.642   9.924   5.095  1.1798 -2.0832  0.5237
27791SOL    HW290235   7.583  10.011   5.204  0.5392  0.7693 -1.9598
27792SOL     OW90236   2.359  10.605   3.359  0.9541  0.0902  0.0130
27792SOL    HW190237   2.362  10.665   3.433  0.8436 -0.0595  0.1403
27792SOL    HW290238   2.381  10.659   3.283  0.5048  0.3651  0.0773
27793SOL     OW90239   5.755   2.685  11.009 -0.1537 -0.0055  0.4160
27793SOL    HW190240   5.734   2.778  10.997 -0.2975 -0.1072 -0.1581
27793SOL    HW290241   5.687   2.654  11.069  1.1440  0.7319  2.3648
27794SOL     OW90242   5.053   1.234   3.925 -0.4975  0.1719 -0.0065
27794SOL    HW190243   5.147   1.252   3.917 -0.5065  0.4477  0.4389
27794SOL    HW290244   5.012   1.321   3.930 -0.6308  0.0575  1.2255
27795SOL     OW90245   2.653   9.261   9.601  0.0401 -0.2451 -0.0364
27795SOL    HW190246   2.620   9.349   9.584 -1.6536 -0.3043  2.3342
27795SOL    HW290247   2.636   9.247   9.695  2.7787 -2.0780  0.3052
27796SOL     OW90248   2.614  11.905   8.500  0.2828  0.4881 -0.4315
27796SOL    HW190249   2.589  11.964   8.570 -0.6661 -0.4681  0.0640
27796SOL    HW290250   2.690  11.857   8.534 -1.8569 -2.0143  1.1849
27797SOL     OW90251   7.182   0.197   8.107  0.4139 -0.7868 -0.1319
27797SOL    HW190252   7.123   0.213   8.180  0.3331 -0.2191 -0.3220
27797SOL    HW290253   7.125   0.173   8.034 -0.1335  4.1947 -1.6931
27798SOL     OW90254   1.105   8.411   4.415  0.1188 -0.0410  0.1354
27798SOL    HW190255   1.018   8.405   4.374 -0.6322 -3.5318  1.8155
27798SOL    HW290256   1.165   8.385   4.345 -0.4956 -0.0973 -0.3840
27799SOL     OW90257   7.212   3.184   1.209  0.1848  0.6949 -0.4162
27799SOL    HW190258   7.262   3.244   1.265 -1.8281  0.9754  1.1950
27799SOL    HW290259   7.178   3.240   1.139  0.1661  1.0046 -0.1653
27800SOL     OW90260   9.194   8.691  11.634 -0.0495  0.5183  0.1727
27800SOL    HW190261   9.235   8.775  11.614 -0.2271  0.2171 -1.5803
27800SOL    HW290262   9.102   8.712  11.650 -0.2800  0.5724 -1.1432
27801SOL     OW90263   7.967   4.052  10.255 -0.0571 -0.3311  0.3692
27801SOL    HW190264   7.937   3.979  10.308 -2.3546  0.2790  0.0424
27801SOL    HW290265   7.998   4.117  10.318 -0.7657 -0.4518  0.8551
27802SOL     OW90266   7.639   7.167   0.913 -0.2275  0.0410 -0.5973
27802SOL    HW190267   7.700   7.107   0.955  1.9012  1.1695 -1.8763
27802SOL    HW290268   7.557   7.156   0.961  1.5562  0.0821  2.7354
27803SOL     OW90269   7.758  11.169   8.877 -0.4781  0.2441 -0.3812
27803SOL    HW190270   7.796  11.204   8.957  0.6686  0.3847 -0.9763
27803SOL    HW290271   7.832  11.132   8.829 -0.8796  1.5959 -2.1199
27804SOL     OW90272   7.662   2.642   4.334  0.0457 -0.1639 -0.5200
27804SOL    HW190273   7.691   2.553   4.314 -1.1915 -0.9685  0.9682
27804SOL    HW290274   7.582   2.653   4.282  1.6523  1.2126 -2.8971
27805SOL     OW90275   8.933   2.242   4.870  0.1740 -0.0412 -0.3343
27805SOL    HW190276   8.869   2.285   4.814  1.1199  0.9436 -0.6985
27805SOL    HW290277   8.997   2.311   4.891  1.3397 -1.0839 -0.3285
27806SOL     OW90278   7.322   7.978   0.678  0.7391  0.7895  0.5768
27806SOL    HW190279   7.252   7.927   0.718  1.1503  1.8343  2.7968
27806SOL    HW290280   7.402   7.935   0.707  1.0497  0.5200 -0.6468
27807SOL     OW90281   0.869   8.478   0.820  0.4730 -0.0168  0.1485
27807SOL    HW190282   0.835   8.393   0.793  0.9096  0.5311 -2.3768
27807SOL    HW290283   0.902   8.517   0.739 -1.2520  3.2886  0.8903
27808SOL     OW90284   4.974  11.887  12.186 -0.4352  0.4550 -0.0967
27808SOL    HW190285   4.949  11.927  12.103 -0.7589  1.7348  0.5885
27808SOL    HW290286   4.892  11.882  12.235 -0.3736 -0.9155 -0.0764
27809SOL     OW90287   6.948   5.556  11.949 -0.1362  0.0542  0.2869
27809SOL    HW190288   6.994   5.487  11.995  1.5442  0.9052 -0.0428
27809SOL    HW290289   7.013   5.592  11.888 -1.6245  0.4433 -1.1537
27810SOL     OW90290  12.401   3.396   0.435 -0.1734 -0.3653  0.3309
27810SOL    HW190291  12.428   3.391   0.343 -1.0718 -3.5551  0.1019
27810SOL    HW290292  12.306   3.406   0.431 -0.1834 -0.2338  0.8992
27811SOL     OW90293   8.340   3.182   7.699 -0.1340 -0.1904  0.5156
27811SOL    HW190294   8.382   3.180   7.613  1.0571 -0.2074  1.0778
27811SOL    HW290295   8.299   3.096   7.708 -1.4690  0.2855 -0.5837
27812SOL     OW90296  10.883   7.598   0.771 -1.0048  0.1902  0.0362
27812SOL    HW190297  10.959   7.590   0.713 -1.0995  0.6436 -0.1547
27812SOL    HW290298  10.891   7.686   0.809  0.0267 -0.7235  2.0813
27813SOL     OW90299   6.423   9.952   1.950 -0.0370  0.2036  0.2186
27813SOL    HW190300   6.427   9.970   2.044 -2.4374  0.5882  0.3122
27813SOL    HW290301   6.333   9.970   1.926  0.1389 -1.3151 -1.8987
27814SOL     OW90302   3.518   3.203  10.426  0.2905 -0.0345 -0.3533
27814SOL    HW190303   3.568   3.270  10.471 -0.1082  0.6695 -0.9256
27814SOL    HW290304   3.546   3.120  10.465 -0.1877  0.5583  1.3025
27815SOL     OW90305   9.224   9.473   2.379  0.0594  0.3746 -0.3392
27815SOL    HW190306   9.202   9.554   2.426 -0.1826 -0.3582  0.8668
27815SOL    HW290307   9.319   9.475   2.371  0.2541 -0.0927  1.4042
27816SOL     OW90308   6.459   6.207   6.001 -0.0864 -0.2513  0.0398
27816SOL    HW190309   6.374   6.204   5.957  0.5551 -1.3065 -1.1841
27816SOL    HW290310   6.477   6.301   6.012 -0.8654  0.0072 -0.7814
27817SOL     OW90311   9.370  10.727   1.851  0.1942  0.0683  0.0990
27817SOL    HW190312   9.387  10.764   1.938  1.3978  1.2894 -0.6282
27817SOL    HW290313   9.283  10.687   1.859  0.5743 -0.4915  2.0681
27818SOL     OW90314   8.473   2.729   5.791 -0.2962  0.4758 -0.0626
27818SOL    HW190315   8.390   2.700   5.753  0.1833 -1.3832  0.1897
27818SOL    HW290316   8.488   2.816   5.753 -0.7768 -0.4613 -2.6186
27819SOL     OW90317   8.369  11.231  11.822 -0.1848 -0.3854 -0.0085
27819SOL    HW190318   8.280  11.240  11.856 -0.4575  0.1852 -0.8626
27819SOL    HW290319   8.412  11.170  11.883 -0.8329  0.1589  1.0123
27820SOL     OW90320   1.134   4.914   3.885 -0.1749 -0.2364 -0.0578
27820SOL    HW190321   1.222   4.940   3.857 -0.1160 -0.7864 -0.3841
27820SOL    HW290322   1.148   4.835   3.937 -0.5707 -0.8993 -0.9393
27821SOL     OW90323   4.216  12.393  11.807  0.0987  0.0037  0.3877
27821SOL    HW190324   4.176  12.319  11.853 -0.8613  0.0286 -0.3999
27821SOL    HW290325   4.191  12.382  11.716  0.4130  1.0038  0.1673
27822SOL     OW90326   2.293   8.332   6.947 -0.5614  0.3822  0.4301
27822SOL    HW190327   2.301   8.366   6.858 -0.8525  0.8772  0.5873
27822SOL    HW290328   2.209   8.286   6.948  0.4655 -1.6112 -0.1822
27823SOL     OW90329   0.981   3.168  10.665 -0.4394 -0.2790 -0.2293
27823SOL    HW190330   1.009   3.077  10.656  1.8838  0.4723 -1.5522
27823SOL    HW290331   0.890   3.169  10.638 -0.6614 -2.2660  0.2960
27824SOL     OW90332   8.322  12.302   8.667  0.1865  0.2316 -0.3975
27824SOL    HW190333   8.294  12.289   8.576 -1.0492  1.1879 -0.1856
27824SOL    HW290334   8.286  12.227   8.714 -0.2051  0.3467 -0.5052
27825SOL     OW90335   1.744   8.676   8.034 -0.2687 -0.5662  0.1193
27825SOL    HW190336   1.751   8.711   8.123  0.0573  0.2550 -0.2219
27825SOL    HW290337   1.834   8.664   8.006 -0.3710 -0.7658 -0.1294
27826SOL     OW90338   9.728   6.293   1.348  0.4015  0.2579 -0.4759
27826SOL    HW190339   9.634   6.303   1.335  0.7166  0.9780 -2.5768
27826SOL    HW290340   9.737   6.277   1.442 -1.7449  0.9574 -0.0831
27827SOL     OW90341  12.162  10.259   8.084  0.1206  0.4584  0.0113
27827SOL    HW190342  12.220  10.190   8.051 -0.0439  0.0523  0.5522
27827SOL    HW290343  12.219  10.335   8.095  0.6547 -0.0594  0.9467
27828SOL     OW90344   4.927   1.924   4.011  0.2952 -0.2796  0.1012
27828SOL    HW190345   4.948   1.988   3.943  0.3987 -0.3129  0.1019
27828SOL    HW290346   4.948   1.839   3.972 -0.3931 -0.3592 -0.1089
27829SOL     OW90347   2.293   3.837   0.523 -0.1452  0.4343  0.1799
27829SOL    HW190348   2.365   3.777   0.544 -0.6946  0.2518  1.6264
27829SOL    HW290349   2.254   3.799   0.444 -1.3944 -2.0198  1.8661
27830SOL     OW90350   8.185   7.685   3.748  0.0561 -0.2642  0.3462
27830SOL    HW190351   8.226   7.605   3.714  0.2398  0.1126 -0.3366
27830SOL    HW290352   8.163   7.735   3.670 -0.0227  0.3734  0.7745
27831SOL     OW90353   2.117   0.134  12.315  0.1266  0.1547  0.5931
27831SOL    HW190354   2.162   0.050  12.313  0.8444  0.4610 -2.9052
27831SOL    HW290355   2.028   0.113  12.343  0.2735 -1.7794 -0.2367
27832SOL     OW90356   7.182   1.239   3.061  0.2116 -0.2547 -0.2277
27832SOL    HW190357   7.223   1.287   2.989 -1.3816  0.9213 -0.3874
27832SOL    HW290358   7.187   1.299   3.136 -0.1822 -0.5532  0.0431
27833SOL     OW90359   1.436   6.320   8.010 -0.0845  0.6453 -0.2055
27833SOL    HW190360   1.453   6.228   8.030  1.6854  0.7171 -1.1702
27833SOL    HW290361   1.384   6.351   8.084 -2.6682 -1.6434 -0.8753
27834SOL     OW90362  11.246   6.897   4.674  0.7216 -0.3004  0.0320
27834SOL    HW190363  11.196   6.911   4.755 -0.9171  3.0181 -1.3834
27834SOL    HW290364  11.224   6.807   4.649 -1.8422 -0.1457  1.3067
27835SOL     OW90365   1.620  10.732   4.375  0.4068  0.3422  0.0002
27835SOL    HW190366   1.664  10.696   4.298 -1.8946 -0.8248 -0.8564
27835SOL    HW290367   1.571  10.807   4.341  0.4474  0.6536  0.6139
27836SOL     OW90368   2.981   7.023   8.681  0.2272 -0.2340 -0.0316
27836SOL    HW190369   2.948   7.113   8.687  3.0374  0.8143  2.0440
27836SOL    HW290370   3.050   7.027   8.615  0.6422 -0.7515  0.3618
27837SOL     OW90371   7.223   3.554  11.544  0.2915 -0.2549  0.1488
27837SOL    HW190372   7.311   3.552  11.581  0.4175 -1.5426 -0.1784
27837SOL    HW290373   7.220   3.635  11.493  1.8263 -0.9044 -1.0641
27838SOL     OW90374   2.792  12.206   8.428 -0.1218  0.4797 -0.0574
27838SOL    HW190375   2.713  12.203   8.373 -1.1512  0.4064  1.3630
27838SOL    HW290376   2.864  12.217   8.366 -1.1102 -0.7853 -1.5168
27839SOL     OW90377  11.731  12.350   5.171  0.4167  0.4743 -0.0852
27839SOL    HW190378  11.635  12.349   5.167  0.2759  0.8347  2.0705
27839SOL    HW290379  11.758  12.285   5.106 -1.2709  0.3968 -0.7710
27840SOL     OW90380   7.091   6.179   5.406 -0.1859 -0.7270  0.4842
27840SOL    HW190381   7.003   6.213   5.426 -0.8202 -1.5650 -0.7399
27840SOL    HW290382   7.142   6.257   5.384  0.0441  0.0361  3.3478
27841SOL     OW90383   3.530  11.612   4.236  0.3025  0.0354  0.6176
27841SOL    HW190384   3.543  11.519   4.254  0.0645  0.0215  0.7263
27841SOL    HW290385   3.481  11.613   4.153 -2.0182 -0.0299  1.9140
27842SOL     OW90386   1.841  11.298  10.397 -0.4877  0.1147  0.2563
27842SOL    HW190387   1.839  11.290  10.492 -2.9017 -0.9366  0.2086
27842SOL    HW290388   1.806  11.215  10.365 -1.8557  1.2542 -1.4440
27843SOL     OW90389   6.239   0.601   1.792  0.2120 -0.2522  0.6839
27843SOL    HW190390   6.294   0.620   1.868 -0.0190  2.1540  0.3107
27843SOL    HW290391   6.168   0.548   1.827  1.1256 -0.8233  1.7496
27844SOL     OW90392   6.643   7.793   4.631  0.5835  0.1922  0.5002
27844SOL    HW190393   6.573   7.858   4.620  1.3216  0.9608  0.2333
27844SOL    HW290394   6.603   7.724   4.683 -1.3709 -0.9187 -2.2231
27845SOL     OW90395   6.339   7.018  10.433 -0.3771  0.2790 -0.0544
27845SOL    HW190396   6.371   7.107  10.447  0.4137  0.0275 -0.2200
27845SOL    HW290397   6.410   6.974  10.387 -0.8966 -0.3474 -0.2747
27846SOL     OW90398   2.369   7.198   6.848  0.1982 -0.0657  0.3089
27846SOL    HW190399   2.436   7.256   6.884  0.2056  0.6550 -0.7962
27846SOL    HW290400   2.407   7.167   6.765 -1.2029  1.1827 -0.8636
27847SOL     OW90401   9.163   0.399   9.574  0.1934  0.5317 -0.4094
27847SOL    HW190402   9.196   0.314   9.603  1.0078  1.0078  0.0868
27847SOL    HW290403   9.142   0.446   9.655  1.8111  1.6030 -0.5594
27848SOL     OW90404   9.333  10.713  11.328  0.2049 -0.4669 -0.1599
27848SOL    HW190405   9.293  10.712  11.415  1.1177  0.5359  0.2999
27848SOL    HW290406   9.385  10.633  11.324 -1.8974 -1.9016 -0.8439
27849SOL     OW90407   4.125   1.274   4.454  0.1565  0.0853  0.4938
27849SOL    HW190408   4.195   1.227   4.497 -0.0207 -0.9141 -0.2742
27849SOL    HW290409   4.160   1.362   4.439  2.6539 -1.2565 -2.9185
27850SOL     OW90410   8.724  11.655   0.503 -0.1731  0.0280 -0.3731
27850SOL    HW190411   8.806  11.649   0.551  0.6736 -1.8277 -1.9013
27850SOL    HW290412   8.670  11.584   0.538 -0.6237  0.4295 -0.2509
27851SOL     OW90413   1.584  11.332   8.736 -0.0890 -0.1491  0.0427
27851SOL    HW190414   1.489  11.334   8.751  0.0094 -0.1914  0.6775
27851SOL    HW290415   1.615  11.416   8.770  0.4963 -1.3248  2.6118
27852SOL     OW90416   5.719  10.466   1.142  0.1383  0.2732 -0.1720
27852SOL    HW190417   5.678  10.396   1.193 -1.2408 -0.2063 -1.8172
27852SOL    HW290418   5.753  10.423   1.064 -2.0498  1.5226 -1.9562
27853SOL     OW90419   6.167   1.355   2.613 -0.5272 -0.3450  0.1130
27853SOL    HW190420   6.261   1.339   2.620 -0.6217 -1.7548 -1.1726
27853SOL    HW290421   6.127   1.272   2.637 -1.5700  0.6775  2.1790
27854SOL     OW90422  11.516   1.039   8.672  0.3398 -0.1383  0.1236
27854SOL    HW190423  11.590   1.100   8.682  1.1940 -1.2411  0.7546
27854SOL    HW290424  11.553   0.953   8.692 -1.0333 -0.7722  0.0402
27855SOL     OW90425   0.302   2.777  11.864  0.6179  0.4466  0.8130
27855SOL    HW190426   0.392   2.779  11.895  0.8541  1.2865  0.1124
27855SOL    HW290427   0.308   2.747  11.774  0.0350 -1.0137  1.2375
27856SOL     OW90428  10.103   7.002   3.090  0.7343 -0.1636  0.1254
27856SOL    HW190429  10.178   7.044   3.048  0.9767  0.5132  1.1902
27856SOL    HW290430  10.110   6.910   3.066  1.3810  0.0463 -0.5348
27857SOL     OW90431  10.014   7.914   7.471 -0.3202 -0.3107 -0.4231
27857SOL    HW190432   9.941   7.854   7.488 -1.2983  1.4566  2.1872
27857SOL    HW290433   9.973   7.992   7.435  0.6056 -0.1517 -1.1654
27858SOL     OW90434   2.024   9.079   3.357  0.2790 -0.2328 -0.6156
27858SOL    HW190435   2.014   9.056   3.449  1.4170 -2.6165 -0.9957
27858SOL    HW290436   2.117   9.098   3.347 -0.1359  1.8701 -0.9631
27859SOL     OW90437   9.490  11.826   8.164  1.0801  0.4493  0.1742
27859SOL    HW190438   9.500  11.909   8.117 -1.2904  0.9318  0.3992
27859SOL    HW290439   9.447  11.767   8.101  0.9099  0.0475  0.6549
27860SOL     OW90440   4.807   6.839   3.695 -0.0689  0.2708  0.3746
27860SOL    HW190441   4.809   6.789   3.776 -0.5002 -0.4262 -0.0346
27860SOL    HW290442   4.876   6.905   3.706  0.0243  0.0504  1.2116
27861SOL     OW90443   5.709   0.168   1.269  0.0548 -0.4743  0.1520
27861SOL    HW190444   5.671   0.256   1.261 -1.0573 -1.0918 -2.6463
27861SOL    HW290445   5.789   0.172   1.217  1.4360 -0.5026  2.1375
27862SOL     OW90446   8.471   0.758   0.646 -0.1910  0.3525  0.1461
27862SOL    HW190447   8.387   0.751   0.600 -0.1978  1.4620 -0.0554
27862SOL    HW290448   8.470   0.847   0.682  1.5025  0.9033 -1.0625
27863SOL     OW90449  11.648   6.121   1.864 -0.3247 -0.0217  0.1232
27863SOL    HW190450  11.680   6.147   1.777 -0.5325  1.4913  0.4740
27863SOL    HW290451  11.567   6.072   1.846  0.6909 -1.4855 -0.6189
27864SOL     OW90452   7.700   0.286  10.417 -0.1400 -0.2601 -0.4861
27864SOL    HW190453   7.774   0.230  10.440 -0.6750 -0.7350  0.1187
27864SOL    HW290454   7.650   0.294  10.498 -2.1404 -2.0438 -1.4624
27865SOL     OW90455  12.412   8.824   1.029 -0.5416 -1.1197  0.5766
27865SOL    HW190456  12.483   8.784   0.978  1.4170  2.5257  0.0641
27865SOL    HW290457  12.350   8.856   0.963 -1.7841 -2.6301  0.9485
27866SOL     OW90458   8.376   6.087   6.987 -0.0099 -0.0526  0.1727
27866SOL    HW190459   8.428   6.013   6.956 -0.4559 -1.0771  1.7263
27866SOL    HW290460   8.441   6.153   7.013  0.4102 -0.1103 -0.6987
27867SOL     OW90461   6.907  11.880   9.920 -0.9075  0.5165 -0.6261
27867SOL    HW190462   7.001  11.885   9.938 -1.0308  0.0886  0.2058
27867SOL    HW290463   6.901  11.845   9.832 -0.2839  1.0125 -0.8796
27868SOL     OW90464   0.850   9.480   1.535 -0.7677  0.0812 -0.1024
27868SOL    HW190465   0.920   9.507   1.476  0.9796 -0.5946  1.5315
27868SOL    HW290466   0.802   9.560   1.555 -0.4166  0.5792 -1.1754
27869SOL     OW90467   6.086   5.053  11.523  0.0750  0.2326  0.2753
27869SOL    HW190468   6.123   4.977  11.478 -1.5819 -0.4595  0.0237
27869SOL    HW290469   6.105   5.038  11.616  0.2993 -0.1702  0.1634
27870SOL     OW90470   2.368   6.201   8.315 -0.4780 -0.1547 -0.2834
27870SOL    HW190471   2.449   6.237   8.352  0.4114 -1.5884 -0.7559
27870SOL    HW290472   2.352   6.254   8.237  1.8875 -1.9094 -2.0673
27871SOL     OW90473   6.114   0.203   6.181 -0.1086 -0.2385 -0.6100
27871SOL    HW190474   6.089   0.255   6.105 -3.5745 -1.2013 -0.3179
27871SOL    HW290475   6.148   0.267   6.244 -3.1100  1.6680 -0.6990
27872SOL     OW90476   6.360   0.943   9.800 -0.8414  0.6758  0.3454
27872SOL    HW190477   6.408   0.918   9.721 -1.9237  0.8177 -0.3733
27872SOL    HW290478   6.428   0.973   9.861 -0.0184  0.8443 -0.6315
27873SOL     OW90479  10.563   3.033   1.696  0.5062 -0.4462 -0.0552
27873SOL    HW190480  10.555   3.126   1.676 -0.9587 -0.2229  1.3534
27873SOL    HW290481  10.497   3.017   1.764 -0.4841 -2.8785 -1.4380
27874SOL     OW90482  11.776   9.693   0.299 -0.3587 -0.7883 -0.0333
27874SOL    HW190483  11.747   9.625   0.360  0.8231 -1.4003 -0.1390
27874SOL    HW290484  11.756   9.775   0.345  0.7414 -1.2359  1.3278
27875SOL     OW90485   0.855   5.040   8.684  0.6043 -0.0560 -0.1857
27875SOL    HW190486   0.921   4.976   8.711  0.1220 -0.8452 -0.8209
27875SOL    HW290487   0.866   5.113   8.745  0.2887 -1.2933  1.4087
27876SOL     OW90488   1.700   3.270   4.535 -0.2744 -0.7148  0.6723
27876SOL    HW190489   1.650   3.191   4.553 -0.8721 -1.0902 -2.2858
27876SOL    HW290490   1.735   3.296   4.621 -1.6154 -3.0777  2.0236
27877SOL     OW90491   7.804   8.922  10.307 -0.2839 -0.2055 -0.0744
27877SOL    HW190492   7.797   8.999  10.363 -0.6632 -0.8390  0.7673
27877SOL    HW290493   7.781   8.848  10.364 -0.6961 -0.8657 -1.0670
27878SOL     OW90494  11.099   1.175   3.749  0.2577 -0.1683  0.4937
27878SOL    HW190495  11.153   1.239   3.795  0.7183  0.0910 -0.3822
27878SOL    HW290496  11.140   1.090   3.769  0.6690 -0.0237  0.2713
27879SOL     OW90497   7.296   8.032   7.823 -0.3750 -0.2646  0.1755
27879SOL    HW190498   7.302   7.991   7.909  0.3520  0.6052  0.5593
27879SOL    HW290499   7.207   8.066   7.818 -0.2941  0.0396  0.7554
27880SOL     OW90500   9.024   1.690  11.449  0.3816  0.6127  0.6539
27880SOL    HW190501   9.037   1.664  11.358 -0.0810  0.1052  0.7276
27880SOL    HW290502   9.095   1.751  11.467  0.6688  0.4605  0.0553
27881SOL     OW90503   2.040   6.268   4.118 -0.0549  0.3554 -0.4538
27881SOL    HW190504   2.015   6.358   4.098  0.0758  0.3604 -0.6023
27881SOL    HW290505   2.016   6.219   4.039  1.5621  0.5756 -1.1326
27882SOL     OW90506   2.887  10.259   3.375 -0.2013  0.7317  0.0010
27882SOL    HW190507   2.805  10.275   3.421  0.0981  1.1596  0.3953
27882SOL    HW290508   2.926  10.184   3.422 -0.7078  0.0478 -0.6512
27883SOL     OW90509   1.197   4.405  11.813  0.2063 -0.3525 -0.2210
27883SOL    HW190510   1.127   4.440  11.757  0.3670 -0.8163 -0.7211
27883SOL    HW290511   1.181   4.311  11.815  0.0848 -0.3192  0.6923
27884SOL     OW90512   0.114   3.053  10.223  0.4467  0.3414  0.5394
27884SOL    HW190513   0.188   3.113  10.224  2.1997 -1.4157 -3.1230
27884SOL    HW290514   0.064   3.077  10.145 -0.0062 -1.5378  0.1873
27885SOL     OW90515   9.050  11.013  10.687 -0.4778 -0.2251  0.2063
27885SOL    HW190516   9.121  11.054  10.638 -1.5993  0.9704 -0.5116
27885SOL    HW290517   9.054  11.055  10.773  0.3362 -0.9510  0.5305
27886SOL     OW90518   0.334   0.297   0.019  0.3420 -0.2380  0.4393
27886SOL    HW190519   0.305   0.299   0.111  1.8341 -0.0482  0.9272
27886SOL    HW290520   0.401   0.366   0.014 -0.7173  0.7455 -1.1573
27887SOL     OW90521   9.598   1.151   6.039  1.0300 -0.2007 -0.0842
27887SOL    HW190522   9.551   1.148   5.956  1.6670 -0.2961 -0.4485
27887SOL    HW290523   9.622   1.243   6.049 -0.1551  0.0431  0.6332
27888SOL     OW90524   3.700   8.591   1.275 -0.5689  0.1730  0.3437
27888SOL    HW190525   3.782   8.544   1.257 -2.2315 -2.3620 -1.1884
27888SOL    HW290526   3.708   8.672   1.224  0.2750 -0.8665 -1.2798
27889SOL     OW90527   8.803   5.634   9.913  0.7520  0.4932  0.3463
27889SOL    HW190528   8.831   5.721   9.944  1.9749  0.4387 -0.5338
27889SOL    HW290529   8.771   5.590   9.992 -0.9268  2.1095  0.6191
27890SOL     OW90530   8.964   2.543   2.223 -0.4029 -0.4645 -0.5243
27890SOL    HW190531   8.901   2.563   2.292  0.1631  0.9690 -0.3792
27890SOL    HW290532   9.033   2.494   2.267  1.3078  2.7192  0.6711
27891SOL     OW90533   8.314   3.088   2.090  0.2504 -0.4081 -0.0620
27891SOL    HW190534   8.382   3.114   2.027  0.8839 -2.6140 -0.3655
27891SOL    HW290535   8.232   3.111   2.047  0.7448  2.0386  0.1797
27892SOL     OW90536   9.460   1.600   7.287  0.1503 -0.1235 -0.0844
27892SOL    HW190537   9.419   1.666   7.344 -0.2552 -0.3420 -0.1202
27892SOL    HW290538   9.455   1.638   7.199 -0.6663 -0.4715 -0.1990
27893SOL     OW90539   2.853   4.695   1.602 -0.1707 -0.3671  0.3235
27893SOL    HW190540   2.844   4.619   1.544 -0.8763  0.9077 -1.3109
27893SOL    HW290541   2.935   4.679   1.649  0.0949 -1.7562 -0.5422
27894SOL     OW90542  10.576   0.339   0.260 -0.1153 -0.1306 -0.0068
27894SOL    HW190543  10.504   0.292   0.218  1.2776 -1.1778 -1.3216
27894SOL    HW290544  10.600   0.284   0.335 -0.1112 -0.2383 -0.0865
27895SOL     OW90545   7.876  11.794   0.515  0.5579 -0.4012  0.3804
27895SOL    HW190546   7.865  11.699   0.523 -0.3860 -0.1984  1.9349
27895SOL    HW290547   7.851  11.829   0.601  2.0016  1.1755  0.2178
27896SOL     OW90548  10.185   8.630   7.846 -0.5660  0.0664  0.4098
27896SOL    HW190549  10.198   8.719   7.812  3.3221 -0.9495 -1.3094
27896SOL    HW290550  10.159   8.579   7.769 -2.5705 -0.4094  1.3422
27897SOL     OW90551  12.139  11.067  11.729 -0.0457  0.1410 -0.1693
27897SOL    HW190552  12.144  11.124  11.805 -0.3682 -0.3394  0.2167
27897SOL    HW290553  12.230  11.043  11.712 -0.0268 -0.2489  0.4515
27898SOL     OW90554   7.253   1.321   8.057 -0.2100  0.0296  0.4527
27898SOL    HW190555   7.257   1.324   8.152 -0.2658 -0.3868  0.4712
27898SOL    HW290556   7.343   1.304   8.030 -0.3535 -0.7991  0.4769
27899SOL     OW90557   1.459   8.205   5.735 -0.3688  0.1712 -0.2978
27899SOL    HW190558   1.465   8.123   5.686 -1.6642 -0.0945 -0.0456
27899SOL    HW290559   1.392   8.256   5.690 -2.2838 -0.4559  1.6607
27900SOL     OW90560  11.414   0.253  10.400 -0.4959  0.0607  0.5300
27900SOL    HW190561  11.320   0.238  10.414 -1.3925  1.9329 -2.5197
27900SOL    HW290562  11.428   0.344  10.426  0.7764 -0.4625  1.8529
27901SOL     OW90563  11.348   5.303   7.352 -0.1247 -0.3057  0.0938
27901SOL    HW190564  11.397   5.379   7.381 -0.6298 -0.1398  0.5322
27901SOL    HW290565  11.311   5.329   7.268  2.2285 -1.1666 -1.3137
27902SOL     OW90566   8.591   3.072   0.984 -0.0558 -0.3526  0.3090
27902SOL    HW190567   8.679   3.035   0.976  0.5385  0.8874  0.7575
27902SOL    HW290568   8.586   3.101   1.075 -0.7120  0.0999  0.1338
27903SOL     OW90569   9.657  12.231   6.974 -0.4501  0.2940  0.4583
27903SOL    HW190570   9.686  12.321   6.993  0.5530  0.1290 -0.1973
27903SOL    HW290571   9.703  12.177   7.039  0.9282  0.0067 -0.7185
27904SOL     OW90572   8.498   8.911   9.003  0.3598 -0.1053 -0.3679
27904SOL    HW190573   8.471   8.908   9.095  0.6455  0.6306 -0.2536
27904SOL    HW290574   8.462   8.831   8.965 -0.9107  0.2184  0.0758
27905SOL     OW90575   6.087   1.520   2.392 -0.1052  0.3209 -0.1765
27905SOL    HW190576   6.098   1.465   2.470 -1.3712  0.7298  0.3255
27905SOL    HW290577   6.104   1.609   2.424 -0.6618  0.4925 -0.3479
27906SOL     OW90578   0.762   6.295  10.496  1.0130 -0.3556 -0.0930
27906SOL    HW190579   0.740   6.280  10.404  1.0186  0.1991 -0.1886
27906SOL    HW290580   0.729   6.217  10.542  0.6327 -0.4389 -0.5039
27907SOL     OW90581   6.708  11.755   8.788  0.5169 -0.0959 -0.2249
27907SOL    HW190582   6.798  11.729   8.809  0.1570 -1.3859 -0.1980
27907SOL    HW290583   6.709  11.770   8.694  1.1725  1.7063  0.0259
27908SOL     OW90584   8.367   9.461   6.993 -0.1705  0.3021 -0.5340
27908SOL    HW190585   8.298   9.427   7.050 -1.3761  1.0259 -1.5087
27908SOL    HW290586   8.368   9.401   6.919  0.5206  0.0880 -0.3602
27909SOL     OW90587   7.136  12.397  11.037 -0.3778 -0.6565  0.3714
27909SOL    HW190588   7.125  12.327  11.102 -0.6319 -1.6700 -0.7334
27909SOL    HW290589   7.062  12.387  10.978  0.3889 -0.3940 -0.6564
27910SOL     OW90590   8.816  10.333   0.501 -0.1341 -0.1738 -0.6171
27910SOL    HW190591   8.868  10.413   0.494 -1.2328  0.5914 -0.3262
27910SOL    HW290592   8.879  10.267   0.531  1.0000  0.3279 -1.7862
27911SOL     OW90593   7.161   4.657   5.276  0.1717  0.3157  0.6074
27911SOL    HW190594   7.205   4.573   5.282  0.7649  0.6230  0.6965
27911SOL    HW290595   7.120   4.670   5.361  0.6559  0.4232  0.8281
27912SOL     OW90596   1.528   2.621   9.078  0.0166  0.2578 -0.5202
27912SOL    HW190597   1.572   2.582   9.003 -1.1447  0.0337 -1.1179
27912SOL    HW290598   1.482   2.549   9.120  0.0970  0.5035  0.0051
27913SOL     OW90599   4.833   3.343   6.165  0.6413 -0.4891 -0.3224
27913SOL    HW190600   4.796   3.365   6.251  0.9457 -2.2855  0.3053
27913SOL    HW290601   4.760   3.356   6.104  0.4431  0.8788  0.1678
27914SOL     OW90602   6.556   9.920   0.508 -0.5361  0.8654 -0.0709
27914SOL    HW190603   6.462   9.931   0.522 -0.5420 -0.2825  0.8704
27914SOL    HW290604   6.570   9.826   0.511  0.6627  1.0356 -0.0645
27915SOL     OW90605   5.758   9.996  12.384 -0.2124  0.4401 -0.4581
27915SOL    HW190606   5.742   9.928  12.319 -1.4633  0.2390  0.0135
27915SOL    HW290607   5.719  10.075  12.347  1.0447  0.8682 -0.9099
27916SOL     OW90608  10.622   6.022  11.841 -0.1038  0.0618  0.2058
27916SOL    HW190609  10.642   6.114  11.820 -2.9261  0.1101 -3.3519
27916SOL    HW290610  10.665   5.972  11.772  0.2503 -1.2100  1.3019
27917SOL     OW90611   7.519   5.588  12.401  0.3105  0.3737  0.0028
27917SOL    HW190612   7.506   5.558  12.491  0.5123 -0.7820 -0.3367
27917SOL    HW290613   7.614   5.581  12.387  0.2512  0.2960 -0.3815
27918SOL     OW90614   3.717   0.790   9.759  0.7561 -0.4184  0.0579
27918SOL    HW190615   3.737   0.839   9.839  0.2478  0.5395 -0.3898
27918SOL    HW290616   3.716   0.856   9.690 -2.7860 -0.4874 -0.1539
27919SOL     OW90617   0.933   7.348   1.317 -0.0436 -0.5911 -0.0894
27919SOL    HW190618   0.974   7.265   1.294  0.6440  0.1269 -1.5858
27919SOL    HW290619   1.004   7.401   1.355 -0.4037 -0.5653  0.5666
27920SOL     OW90620   2.041   1.374  10.016  0.3700 -0.3694 -0.0634
27920SOL    HW190621   2.110   1.335  10.069  1.2299  2.5874  1.1705
27920SOL    HW290622   2.065   1.466  10.007 -2.3350  0.3361 -1.3984
27921SOL     OW90623   8.404   0.825   4.890  0.0170  0.4015 -0.4375
27921SOL    HW190624   8.474   0.890   4.885  1.0721 -0.6731 -0.1099
27921SOL    HW290625   8.441   0.746   4.850 -1.0035 -0.1913 -0.2554
27922SOL     OW90626  11.383   3.314   9.329 -0.5461  0.0376  0.1989
27922SOL    HW190627  11.440   3.317   9.406  0.5658  1.4076 -0.6418
27922SOL    HW290628  11.438   3.344   9.257 -1.5797 -1.1731 -1.1528
27923SOL     OW90629   7.993  10.681  11.097  0.4593 -0.0827 -0.1496
27923SOL    HW190630   8.026  10.592  11.103  1.5259  0.1464 -1.9692
27923SOL    HW290631   7.962  10.701  11.186 -0.1377 -2.3548  0.2066
27924SOL     OW90632   7.146   8.124   1.943  0.0035 -0.0561 -0.1698
27924SOL    HW190633   7.186   8.210   1.927  0.7924 -0.4549 -0.3968
27924SOL    HW290634   7.205   8.062   1.900  0.6432 -0.9061  1.8111
27925SOL     OW90635   5.291   8.409  11.950 -0.7424 -0.1082 -0.2267
27925SOL    HW190636   5.273   8.347  11.880 -0.2699  0.0195 -0.4616
27925SOL    HW290637   5.206   8.423  11.992 -0.9390 -0.5402 -0.4766
27926SOL     OW90638   0.405   6.893  11.780 -0.4467  0.1509 -0.7198
27926SOL    HW190639   0.340   6.864  11.715 -1.5036 -0.4587  0.5542
27926SOL    HW290640   0.373   6.857  11.863  0.6800  1.2055  0.2048
27927SOL     OW90641   3.986   6.406   8.946  0.6907 -0.1686 -0.0118
27927SOL    HW190642   4.052   6.380   8.881  1.4577  0.4784  0.4941
27927SOL    HW290643   4.021   6.486   8.985 -1.3193  1.3037 -1.0649
27928SOL     OW90644   7.486   2.783   7.905 -0.0996 -0.5297 -0.2091
27928SOL    HW190645   7.485   2.712   7.969 -0.3988 -0.5686 -0.2570
27928SOL    HW290646   7.427   2.753   7.836 -1.0906  0.2440  0.2838
27929SOL     OW90647   9.307   9.790   8.353 -0.4123  0.3736  0.2661
27929SOL    HW190648   9.233   9.748   8.309  0.4522  0.8917 -1.8115
27929SOL    HW290649   9.318   9.874   8.307  1.1197  0.5497  0.8818
27930SOL     OW90650   7.349  11.034  11.122 -0.3512  0.1777 -0.2918
27930SOL    HW190651   7.400  11.098  11.170  0.8986 -1.0987  0.1280
27930SOL    HW290652   7.266  11.028  11.170  0.2056  0.1906  0.6830
27931SOL     OW90653   8.716   6.247  11.574  0.1335 -0.2927 -0.6669
27931SOL    HW190654   8.717   6.206  11.487  1.4291 -0.1311 -0.7514
27931SOL    HW290655   8.787   6.311  11.570  0.4191 -0.5124  0.6221
27932SOL     OW90656   8.760   2.523  10.827  0.2702  0.1674 -0.7697
27932SOL    HW190657   8.768   2.598  10.768  2.4710 -0.0115 -0.7829
27932SOL    HW290658   8.847   2.513  10.866 -0.7931 -0.4654  1.6349
27933SOL     OW90659   3.228   5.875   9.436  0.2244  0.7994  0.4515
27933SOL    HW190660   3.258   5.960   9.405 -0.1607 -0.1116 -2.7948
27933SOL    HW290661   3.282   5.811   9.388 -1.5968 -0.7792  0.3745
27934SOL     OW90662  10.527   0.350  12.134 -0.3910 -0.2770 -0.0094
27934SOL    HW190663  10.584   0.336  12.210 -1.3598 -0.4754  0.7133
27934SOL    HW290664  10.546   0.439  12.106  1.1996 -0.7668 -0.6143
27935SOL     OW90665   3.763   0.834   3.560  0.3610 -0.0231 -0.5258
27935SOL    HW190666   3.821   0.901   3.596 -0.0457  0.7055 -1.1883
27935SOL    HW290667   3.695   0.883   3.514 -1.0372 -0.8542  0.5963
27936SOL     OW90668   2.577  10.118   8.757 -0.1644 -0.0659 -0.1147
27936SOL    HW190669   2.611  10.143   8.671 -0.1983 -0.9816 -0.3948
27936SOL    HW290670   2.487  10.092   8.741  0.3202 -1.8868 -0.1068
27937SOL     OW90671   8.272   0.561  10.595  0.1696 -0.0264  0.5950
27937SOL    HW190672   8.358   0.569  10.635 -0.2370 -0.9601  1.6964
27937SOL    HW290673   8.219   0.514  10.659 -1.0152  0.0453 -0.2855
27938SOL     OW90674  10.300  12.417   5.447 -0.3520 -0.2519  0.0460
27938SOL    HW190675  10.361  12.481   5.484  1.6940 -1.6209 -0.7591
27938SOL    HW290676  10.232  12.470   5.406  0.8953  1.4036 -0.0073
27939SOL     OW90677   4.427   4.855   7.963  0.0265  0.4743  0.8137
27939SOL    HW190678   4.401   4.920   8.028 -1.2888  1.1028 -0.2666
27939SOL    HW290679   4.380   4.881   7.884 -0.8075 -1.9655  0.4172
27940SOL     OW90680   7.883   2.672  10.971 -0.2771 -0.7517  0.2048
27940SOL    HW190681   7.962   2.710  10.933 -0.5213 -0.5118 -0.0611
27940SOL    HW290682   7.892   2.577  10.958  0.2435 -0.7740  0.7018
27941SOL     OW90683   1.431   3.351  10.523  0.1931  0.3341  0.5302
27941SOL    HW190684   1.361   3.290  10.548  1.1595 -1.7091 -1.3445
27941SOL    HW290685   1.416   3.367  10.430 -0.2112  3.3628  1.0099
27942SOL     OW90686   5.239  10.333   2.649  0.6169  0.0992  0.2012
27942SOL    HW190687   5.325  10.292   2.661  1.1499 -0.2023 -3.4187
27942SOL    HW290688   5.183  10.288   2.712  2.2517 -2.7211 -0.1693
27943SOL     OW90689  10.657  11.441   9.388  0.6579 -0.2521 -0.2357
27943SOL    HW190690  10.598  11.450   9.463 -2.0809 -2.1475 -1.9760
27943SOL    HW290691  10.645  11.522   9.339 -3.0365 -1.7021 -2.0877
27944SOL     OW90692   5.308   9.297  10.829 -0.2866 -0.1103 -0.1468
27944SOL    HW190693   5.305   9.332  10.740 -0.4174 -1.0373 -0.5182
27944SOL    HW290694   5.401   9.283  10.846 -0.2553  0.1463 -0.1044
27945SOL     OW90695   1.700   6.974   8.489  0.3778  0.1387 -0.3936
27945SOL    HW190696   1.748   7.029   8.551 -0.5921  0.7429 -0.1533
27945SOL    HW290697   1.765   6.949   8.424  0.8628  1.5417 -0.4863
27946SOL     OW90698   3.064   7.119   0.882  0.1667  0.0352  0.3888
27946SOL    HW190699   3.004   7.157   0.818 -0.9203 -0.3137  1.1581
27946SOL    HW290700   3.115   7.193   0.915 -0.9243  0.6112  0.8358
27947SOL     OW90701   8.607   5.208   4.382 -0.8649 -0.5408  0.3913
27947SOL    HW190702   8.693   5.168   4.397 -1.1387 -1.2391  0.1495
27947SOL    HW290703   8.544   5.137   4.398 -1.3292 -0.4421 -0.8594
27948SOL     OW90704   6.286   3.224  10.644  0.2202  0.5063  0.0799
27948SOL    HW190705   6.362   3.189  10.691  2.1329  2.2246 -1.5071
27948SOL    HW290706   6.294   3.189  10.555 -1.5551 -0.2135  0.1685
27949SOL     OW90707   8.497   5.913  11.304 -0.3162 -0.4612 -0.1334
27949SOL    HW190708   8.460   5.861  11.375  0.1009 -1.5084 -0.6718
27949SOL    HW290709   8.491   5.858  11.227  2.3524 -0.7423 -0.2524
27950SOL     OW90710   7.727   9.057   9.384  0.3597 -0.2871  0.3304
27950SOL    HW190711   7.703   8.997   9.313  0.0044 -1.5773  1.5047
27950SOL    HW290712   7.645   9.074   9.430  0.8231 -0.7336  1.3678
27951SOL     OW90713   3.443  10.305   7.512  0.0822 -0.1100  0.1416
27951SOL    HW190714   3.354  10.272   7.500  0.9156 -2.1168 -1.0353
27951SOL    HW290715   3.432  10.395   7.544 -2.3370 -0.6443  0.9819
27952SOL     OW90716   4.723   4.226   6.701  0.0707 -0.3737 -0.0909
27952SOL    HW190717   4.806   4.255   6.664 -0.3693  0.1223 -0.7258
27952SOL    HW290718   4.724   4.131   6.692  1.1524 -0.4999  1.1838
27953SOL     OW90719  10.114  10.364   1.725 -0.2435  0.1226 -0.5620
27953SOL    HW190720  10.173  10.361   1.801 -0.7607 -1.1335 -0.1906
27953SOL    HW290721  10.101  10.458   1.710  0.4278  0.4065  0.4605
27954SOL     OW90722   2.185  10.234   5.121  0.5331  0.1978  0.3589
27954SOL    HW190723   2.162  10.145   5.092  0.0674 -0.1437  1.7127
27954SOL    HW290724   2.100  10.275   5.138  0.7877  0.5056  0.8821
27955SOL     OW90725  10.126  12.251   3.461 -0.2195 -0.0321  0.0147
27955SOL    HW190726  10.117  12.331   3.513  0.4421 -0.8173  1.3957
27955SOL    HW290727  10.043  12.206   3.472 -0.1780 -0.0676  0.1957
27956SOL     OW90728   6.678  11.892   5.886 -0.4856  0.3085 -0.2986
27956SOL    HW190729   6.719  11.888   5.800  0.8598  0.9493  0.2720
27956SOL    HW290730   6.603  11.950   5.875 -0.5071  0.1378 -1.0949
27957SOL     OW90731   0.249   9.662   8.933  0.3624  0.3817 -0.2129
27957SOL    HW190732   0.193   9.719   8.880 -0.0446  0.3112  0.1266
27957SOL    HW290733   0.267   9.587   8.877 -2.2625 -0.9813  0.5930
27958SOL     OW90734   9.822   8.847  10.331 -0.2424 -0.4876 -0.3293
27958SOL    HW190735   9.802   8.901  10.254 -1.6758  0.1061  0.4010
27958SOL    HW290736   9.911   8.873  10.356  0.6239 -1.3635 -2.2828
27959SOL     OW90737   0.209   4.686   3.013 -0.2254 -0.5451 -0.1358
27959SOL    HW190738   0.195   4.750   2.944 -2.3555 -0.3278  0.4202
27959SOL    HW290739   0.300   4.699   3.040  0.4697 -0.2144 -2.4241
27960SOL     OW90740   6.202   7.581   3.872  0.0996 -0.2848  0.4273
27960SOL    HW190741   6.239   7.663   3.903  0.7973 -0.7778  0.9257
27960SOL    HW290742   6.126   7.565   3.928  1.8941 -1.6523  2.6025
27961SOL     OW90743   0.362   8.598  10.054  0.4995 -0.1240  0.0145
27961SOL    HW190744   0.294   8.624   9.992  0.2245  1.8845  1.0606
27961SOL    HW290745   0.407   8.680  10.076  2.8078 -1.3019 -0.1003
27962SOL     OW90746   2.002  11.582   6.216  0.0254  0.4840  0.8472
27962SOL    HW190747   1.985  11.646   6.147 -0.8434 -0.2576  0.3383
27962SOL    HW290748   1.968  11.624   6.296 -3.0805 -0.3402  0.0933
27963SOL     OW90749   5.541  10.261   8.733 -0.1564 -0.6885 -0.3689
27963SOL    HW190750   5.591  10.191   8.690  0.0981 -0.1832 -0.9132
27963SOL    HW290751   5.475  10.287   8.668  0.0764 -0.0828 -0.3706
27964SOL     OW90752   7.842   6.662   4.468 -0.5032 -0.2108 -0.7102
27964SOL    HW190753   7.873   6.619   4.547  0.7099  0.3527 -0.8459
27964SOL    HW290754   7.902   6.736   4.456 -1.5485  0.5656 -1.3537
27965SOL     OW90755   2.550   7.164   9.784  0.6426  0.0340  0.0081
27965SOL    HW190756   2.510   7.091   9.833 -1.6155  1.2140  0.0566
27965SOL    HW290757   2.502   7.241   9.814  0.2075  1.0208 -2.9088
27966SOL     OW90758   9.691   4.304   7.920 -0.5493  0.2933  0.0722
27966SOL    HW190759   9.637   4.232   7.952 -1.4142  0.9576  0.1441
27966SOL    HW290760   9.630   4.361   7.873 -0.1900  1.7441  1.2782
27967SOL     OW90761  11.065   8.964   1.934  0.7936  0.4739  0.1545
27967SOL    HW190762  11.026   8.876   1.930 -0.1568  0.7669  1.9736
27967SOL    HW290763  11.138   8.960   1.872 -0.6113 -0.8698 -1.5536
27968SOL     OW90764  10.613  11.068   3.419  0.1067 -0.0536  0.2839
27968SOL    HW190765  10.559  11.036   3.347  1.4806 -1.0164 -0.3587
27968SOL    HW290766  10.551  11.091   3.487 -1.0622 -3.8084  0.6890
27969SOL     OW90767   6.401   6.804   6.962 -0.0368  0.0608  0.0915
27969SOL    HW190768   6.354   6.877   6.921 -0.1136  0.5171  0.9685
27969SOL    HW290769   6.433   6.839   7.044  2.7320  0.0618 -0.8907
27970SOL     OW90770   2.408   2.791   9.880 -0.2865 -0.3806  0.1159
27970SOL    HW190771   2.363   2.733   9.818  0.6832 -0.7298 -0.2890
27970SOL    HW290772   2.338   2.832   9.929 -1.1061  0.1906 -1.4576
27971SOL     OW90773   1.608   5.542  10.675  0.4814  0.3529 -0.5440
27971SOL    HW190774   1.555   5.480  10.624  0.9400 -1.3829  0.9810
27971SOL    HW290775   1.696   5.534  10.639  0.8202 -0.9263  0.4836
27972SOL     OW90776  12.058   0.943   1.372 -0.0681  0.0862  0.3490
27972SOL    HW190777  11.987   0.954   1.309 -0.2547 -0.3777  0.4813
27972SOL    HW290778  12.017   0.953   1.457  0.3014  1.4096  0.4020
27973SOL     OW90779  11.026   0.892   2.017 -0.1006 -0.1801 -0.2101
27973SOL    HW190780  10.958   0.941   2.062 -0.2150 -0.8157  0.3324
27973SOL    HW290781  10.981   0.846   1.946 -0.2964 -0.7966  0.3008
27974SOL     OW90782   6.285   5.163  12.182  0.2246  0.3010  0.4050
27974SOL    HW190783   6.369   5.196  12.153  0.4162 -2.2689 -2.4254
27974SOL    HW290784   6.306   5.107  12.257  1.0405 -0.1057 -0.1120
27975SOL     OW90785   4.745   7.763   8.264  0.4726  0.1799  0.3665
27975SOL    HW190786   4.745   7.690   8.202  0.3488  0.1943  0.3492
27975SOL    HW290787   4.804   7.734   8.334  0.0430 -0.1429  0.6010
27976SOL     OW90788   9.025  11.598   5.736  0.0179  0.6670  0.0784
27976SOL    HW190789   8.977  11.605   5.654  0.4681  0.0223 -0.2512
27976SOL    HW290790   8.964  11.630   5.802 -0.1777  1.6667 -0.5608
27977SOL     OW90791  12.110   1.972   1.847 -0.3103  0.0410  0.0564
27977SOL    HW190792  12.194   1.933   1.826  0.5035  1.3173  0.8556
27977SOL    HW290793  12.128   2.033   1.919 -1.9046  0.3348  0.2473
27978SOL     OW90794   8.413  10.947  11.230  0.1619 -0.0031  0.7687
27978SOL    HW190795   8.373  11.034  11.227 -1.9232 -0.9013  0.6573
27978SOL    HW290796   8.341  10.887  11.213  1.2747 -1.8494  2.2155
27979SOL     OW90797  10.967   6.200   8.459  0.5880  0.3350 -0.2674
27979SOL    HW190798  10.911   6.241   8.393 -1.0137  1.7345  1.8421
27979SOL    HW290799  11.017   6.272   8.497  0.0930 -0.1009  1.3001
27980SOL     OW90800   0.007   6.151   3.391  0.1358 -0.3694  0.3430
27980SOL    HW190801   0.039   6.078   3.444  2.5921  2.1207  2.6574
27980SOL    HW290802   0.007   6.226   3.452  0.6009  2.1742 -2.5591
27981SOL     OW90803  12.213   9.174   7.678  0.1548  0.2224 -0.5712
27981SOL    HW190804  12.153   9.113   7.721 -1.1275  0.6389 -1.6895
27981SOL    HW290805  12.186   9.260   7.711  1.2135  0.2938  0.1377
27982SOL     OW90806   8.170   0.196   0.475  0.1087 -0.3999  0.1585
27982SOL    HW190807   8.257   0.191   0.436  0.3149  0.5703  0.4666
27982SOL    HW290808   8.129   0.112   0.455  0.1046  0.1338 -2.4174
27983SOL     OW90809   4.832   5.749  10.108 -0.3345 -0.1126  0.8321
27983SOL    HW190810   4.922   5.780  10.101  0.4433 -2.1380  1.0786
27983SOL    HW290811   4.786   5.818  10.155 -0.3670  3.6113 -3.9149
27984SOL     OW90812   9.398   7.315  10.726 -0.2759 -0.0883 -0.1893
27984SOL    HW190813   9.349   7.340  10.648 -1.2612 -1.8899 -0.2097
27984SOL    HW290814   9.383   7.386  10.788 -2.5953 -0.3667 -0.3507
27985SOL     OW90815   6.919   7.507  11.997 -0.3584 -0.1305  0.3433
27985SOL    HW190816   6.995   7.552  12.033  0.0241 -0.0406 -0.5532
27985SOL    HW290817   6.928   7.517  11.902 -1.8712  0.5278  0.2401
27986SOL     OW90818   7.189  11.969   7.268  0.3097 -0.5024  0.3110
27986SOL    HW190819   7.237  12.043   7.305  0.2557  0.1250 -0.8145
27986SOL    HW290820   7.232  11.892   7.303  1.5035  0.0526  0.1065
27987SOL     OW90821  10.698   4.703   9.191 -0.1705 -0.9101  0.5716
27987SOL    HW190822  10.767   4.690   9.257 -0.1684 -1.1942  0.5142
27987SOL    HW290823  10.745   4.714   9.109 -0.2467 -3.4350  0.1414
27988SOL     OW90824   7.730   6.923   5.699  0.3325 -0.0240 -0.0243
27988SOL    HW190825   7.704   6.963   5.782  0.7722 -0.2253  0.2147
27988SOL    HW290826   7.668   6.851   5.686  0.3040 -0.0344  0.1692
27989SOL     OW90827   6.907  11.303   5.047  0.0782  0.0869  0.7022
27989SOL    HW190828   6.874  11.248   5.119 -1.5699 -2.0819 -1.5457
27989SOL    HW290829   6.992  11.265   5.025  0.7296  0.9491  1.6373
27990SOL     OW90830   6.362   3.857  10.234 -0.2241  0.2679 -0.4398
27990SOL    HW190831   6.298   3.814  10.177  0.0860  0.6443 -1.0727
27990SOL    HW290832   6.336   3.831  10.323  0.2107 -1.5785 -0.8187
27991SOL     OW90833  11.798   9.280   1.740 -0.0434 -0.3528  0.2721
27991SOL    HW190834  11.718   9.259   1.789  0.2356  0.8714  1.3024
27991SOL    HW290835  11.778   9.256   1.650 -1.2638 -0.8688  0.6533
27992SOL     OW90836   8.676   9.186   0.290  0.0517 -0.0711 -0.0185
27992SOL    HW190837   8.643   9.274   0.270  0.6338  0.3001  0.6159
27992SOL    HW290838   8.623   9.158   0.365 -0.1634 -0.2886 -0.2484
27993SOL     OW90839   0.149   4.018   3.009  0.5966  0.2869 -0.7885
27993SOL    HW190840   0.083   4.050   2.947  0.9781  2.4777 -0.1319
27993SOL    HW290841   0.110   4.033   3.095  0.9831 -0.6782 -0.4324
27994SOL     OW90842   6.661   4.985   0.466 -0.5427 -0.2948  0.5086
27994SOL    HW190843   6.750   4.950   0.460 -0.1935  0.5391  0.7094
27994SOL    HW290844   6.672   5.071   0.507 -0.9164  1.8435 -3.4187
27995SOL     OW90845   3.892   9.475   8.483  0.7278  0.2876  0.1185
27995SOL    HW190846   3.874   9.382   8.497  2.1993  0.0423  0.5410
27995SOL    HW290847   3.987   9.483   8.493  0.9687  1.4023 -2.3257
27996SOL     OW90848   9.166   5.288   8.674  0.0995 -0.2574 -0.7023
27996SOL    HW190849   9.196   5.197   8.685 -2.2091 -0.9499  0.4323
27996SOL    HW290850   9.128   5.290   8.586 -1.2434 -0.8675 -0.1635
27997SOL     OW90851   5.160  11.462   8.217  0.0676  0.1094  0.2584
27997SOL    HW190852   5.216  11.388   8.242 -0.6343 -0.4742  0.1182
27997SOL    HW290853   5.096  11.468   8.288 -0.5995 -0.1686 -0.3176
27998SOL     OW90854   3.704  12.458   9.742  0.0852  0.3424 -0.6116
27998SOL    HW190855   3.757  12.379   9.729  0.9269  0.5488  1.1676
27998SOL    HW290856   3.615  12.425   9.756  0.3687 -0.2840 -0.2051
27999SOL     OW90857  12.223   0.626   9.972  0.2304  0.0008 -0.3829
27999SOL    HW190858  12.153   0.563   9.954 -1.5016  1.1693  1.6688
27999SOL    HW290859  12.272   0.587  10.044 -0.4432  0.6671  0.4530
28000SOL     OW90860   5.007   7.053  11.988  0.5630  0.1020 -0.0611
28000SOL    HW190861   4.979   7.050  12.080 -0.1196  1.0870 -0.2220
28000SOL    HW290862   5.049   7.139  11.979 -0.1376  0.3637 -0.8765
28001SOL     OW90863   0.429  10.184   9.465  0.7654 -0.6550 -0.3762
28001SOL    HW190864   0.403  10.219   9.551 -0.5918 -0.6701 -0.7559
28001SOL    HW290865   0.441  10.261   9.410  1.4011 -0.6562 -0.2476
28002SOL     OW90866  10.558   6.396   6.463 -0.2326  0.3351  0.9676
28002SOL    HW190867  10.583   6.467   6.522 -0.2803  0.3240  1.0015
28002SOL    HW290868  10.545   6.439   6.378 -2.3724  0.7431  1.4284
28003SOL     OW90869  11.837   1.036   1.198  0.3965  0.5681 -0.3321
28003SOL    HW190870  11.826   1.070   1.110  1.8471  1.7416 -0.1104
28003SOL    HW290871  11.766   1.077   1.248 -1.2351 -1.1250 -1.1705
28004SOL     OW90872   3.415   9.763   5.719 -0.5426 -0.1803  0.1916
28004SOL    HW190873   3.346   9.759   5.785 -0.4945  0.5481  0.3001
28004SOL    HW290874   3.378   9.719   5.643 -0.2144 -1.9644  1.0125
28005SOL     OW90875   3.260   9.430  11.909  0.1146  0.3005 -0.2717
28005SOL    HW190876   3.174   9.433  11.867  0.0821  0.1325 -0.2157
28005SOL    HW290877   3.264   9.510  11.960 -0.9198 -0.7300  1.5325
28006SOL     OW90878   5.973   3.900   2.687  0.4449 -0.2968  0.5540
28006SOL    HW190879   5.962   3.897   2.592  3.9016  0.3130 -0.0007
28006SOL    HW290880   5.951   3.990   2.711  2.4621  0.4583 -0.2270
28007SOL     OW90881   5.958   8.575   2.923 -0.1787 -0.5889 -0.6759
28007SOL    HW190882   5.894   8.505   2.918 -0.8175 -0.0172 -0.6394
28007SOL    HW290883   6.043   8.532   2.912 -0.6047 -1.2782 -1.2960
28008SOL     OW90884   2.802  12.327   2.955 -0.2820 -0.1002  0.0121
28008SOL    HW190885   2.892  12.349   2.980 -0.1990  0.7092 -0.9227
28008SOL    HW290886   2.777  12.257   3.014  1.2452 -0.8858 -0.2230
28009SOL     OW90887   0.730   3.598   5.847  0.5259  0.6415 -0.3166
28009SOL    HW190888   0.644   3.562   5.824  0.0657  0.7675  1.0962
28009SOL    HW290889   0.742   3.671   5.786 -0.4543  0.7411 -0.4143
28010SOL     OW90890   5.661   7.388   2.774 -0.2114  0.6987 -0.0205
28010SOL    HW190891   5.583   7.337   2.753  0.3520 -0.7376  1.1979
28010SOL    HW290892   5.720   7.372   2.700 -0.1545 -0.1821  0.2111
28011SOL     OW90893   7.277   1.547   4.152  0.3487 -0.4053  0.1100
28011SOL    HW190894   7.292   1.492   4.075  1.4210 -2.3886  1.6264
28011SOL    HW290895   7.363   1.586   4.171  0.6269 -1.5453  1.4007
28012SOL     OW90896   3.304   8.307   9.830 -0.5687 -0.1481  0.0386
28012SOL    HW190897   3.397   8.312   9.848 -0.8304  0.3732  1.3093
28012SOL    HW290898   3.276   8.398   9.817 -1.0444 -0.2326  0.4342
28013SOL     OW90899   7.409   7.738   8.406  0.3596  0.4046  0.1913
28013SOL    HW190900   7.335   7.768   8.458 -1.9531 -2.3694 -1.2235
28013SOL    HW290901   7.425   7.809   8.343  0.2600  1.8644  1.7587
28014SOL     OW90902   1.343   9.849   8.323 -0.1777 -0.0354 -0.7978
28014SOL    HW190903   1.412   9.783   8.321 -0.4561 -0.3523 -0.0822
28014SOL    HW290904   1.333   9.876   8.231  0.6060 -0.2828 -0.9603
28015SOL     OW90905   1.905   9.985  10.041  1.2180  0.2329  0.5636
28015SOL    HW190906   1.988  10.018  10.006  0.3369 -0.5589 -2.5988
28015SOL    HW290907   1.916   9.890  10.043  1.3625  0.2232  3.0959
28016SOL     OW90908   8.927   9.540  11.435  0.1062 -0.0458  0.4911
28016SOL    HW190909   8.975   9.566  11.514 -0.1395 -0.0726  0.6485
28016SOL    HW290910   8.995   9.513  11.374  0.3492  0.6249  0.4492
28017SOL     OW90911  11.482   1.073  11.946  0.0336 -0.4882 -0.2572
28017SOL    HW190912  11.395   1.098  11.978 -0.1007 -1.3689  0.0991
28017SOL    HW290913  11.485   1.104  11.856  0.0640  1.2246  0.3038
28018SOL     OW90914   2.039  11.310   2.164 -0.2168 -0.2136 -0.6348
28018SOL    HW190915   2.051  11.235   2.223  1.9126 -0.2067 -0.9659
28018SOL    HW290916   2.015  11.382   2.221 -2.1103 -1.0662 -0.2863
28019SOL     OW90917  12.032   2.290   2.293 -0.0929 -0.0574 -0.9016
28019SOL    HW190918  11.942   2.257   2.300 -0.4396  1.0282  0.1532
28019SOL    HW290919  12.024   2.368   2.238  0.1743  0.1159 -0.6955
28020SOL     OW90920   7.545   1.247   9.962  0.0906 -0.1503  0.1312
28020SOL    HW190921   7.530   1.222   9.871 -0.0921  0.2919  0.0346
28020SOL    HW290922   7.499   1.181  10.014 -0.3518 -0.0403 -0.1157
28021SOL     OW90923   0.451   6.736  10.090  0.2388  0.0558  0.1323
28021SOL    HW190924   0.383   6.745  10.023 -0.3743 -0.0919  0.7221
28021SOL    HW290925   0.423   6.660  10.142 -2.6459  3.4844  4.2728
28022SOL     OW90926   8.032   7.158   2.876 -0.4268 -0.8818  0.2415
28022SOL    HW190927   7.988   7.243   2.879 -0.9031 -1.1127  0.0142
28022SOL    HW290928   8.062   7.150   2.785 -0.7971 -1.1558  0.1404
28023SOL     OW90929   7.306   6.235   2.829  0.4090  0.2830  0.0837
28023SOL    HW190930   7.225   6.185   2.837 -0.9983  2.3247 -0.4481
28023SOL    HW290931   7.288   6.317   2.875  1.9031  1.0998 -0.7107
28024SOL     OW90932  12.481   5.823   1.253 -0.1350 -0.5066 -0.0043
28024SOL    HW190933  12.546   5.893   1.246 -0.2527 -0.4812 -0.9145
28024SOL    HW290934  12.416   5.844   1.186 -0.8255 -0.8061  0.5637
28025SOL     OW90935   0.209   6.123   6.438 -0.2610  0.4201 -0.1725
28025SOL    HW190936   0.291   6.080   6.415 -0.6371 -1.0772  1.0898
28025SOL    HW290937   0.235   6.211   6.467  0.7522  0.3598 -0.8565
28026SOL     OW90938   5.736   8.703   5.891 -0.0582 -0.0086 -0.1257
28026SOL    HW190939   5.733   8.796   5.867  0.1342  0.6742  2.1871
28026SOL    HW290940   5.785   8.661   5.821  0.6606  1.8037 -0.7754
28027SOL     OW90941   7.421   3.583   1.462 -0.3604  0.0711 -0.3417
28027SOL    HW190942   7.367   3.608   1.538  0.6658  1.8078 -0.1347
28027SOL    HW290943   7.424   3.662   1.408 -1.1176 -1.1572 -2.2670
28028SOL     OW90944   1.728   2.345  12.319 -0.4577 -0.1501  0.3791
28028SOL    HW190945   1.636   2.364  12.337 -0.4117 -1.4236  2.1982
28028SOL    HW290946   1.776   2.417  12.360 -0.5964 -0.1742  0.5850
28029SOL     OW90947   2.701   7.392   0.105 -0.1859  0.4509 -0.2076
28029SOL    HW190948   2.722   7.483   0.082  0.4171  0.0742 -1.2073
28029SOL    HW290949   2.779   7.343   0.081 -0.6278 -0.3870  0.0391
28030SOL     OW90950  10.127   8.767   1.203  0.1835  0.3237  0.1923
28030SOL    HW190951  10.043   8.789   1.245  1.2257  0.3719  2.4045
28030SOL    HW290952  10.186   8.838   1.230  1.7341 -1.3100  1.4046
28031SOL     OW90953  10.691  10.358   1.326 -0.2040 -0.5056 -0.4945
28031SOL    HW190954  10.630  10.284   1.331 -0.6931 -0.0656  2.7012
28031SOL    HW290955  10.636  10.435   1.336  0.6685 -0.0328  1.2061
28032SOL     OW90956   8.761   8.123   0.228 -0.7877 -0.1709 -0.3999
28032SOL    HW190957   8.837   8.178   0.207 -0.0532 -0.6622  0.8463
28032SOL    HW290958   8.740   8.145   0.319 -0.5448 -1.8476  0.0994
28033SOL     OW90959   7.696   2.370   8.813  0.5200  0.6620 -0.1153
28033SOL    HW190960   7.623   2.411   8.766 -0.3204  0.2304  0.7694
28033SOL    HW290961   7.736   2.441   8.863 -0.4360  0.5810  0.7992
28034SOL     OW90962   0.789   1.892   1.506 -0.2190  0.3483  0.3911
28034SOL    HW190963   0.881   1.873   1.526 -0.5119 -1.1158  0.4162
28034SOL    HW290964   0.794   1.954   1.433  0.7985  2.9076  2.4558
28035SOL     OW90965   5.994   4.116  12.256  0.2004  0.1953  0.1354
28035SOL    HW190966   5.989   4.197  12.308 -0.3365  0.5034 -0.3744
28035SOL    HW290967   5.921   4.124  12.194  0.9445 -0.0718 -0.7944
28036SOL     OW90968  10.856   9.537  10.582  0.2376 -1.0822 -0.1425
28036SOL    HW190969  10.859   9.516  10.676  1.1042 -1.2071 -0.1887
28036SOL    HW290970  10.928   9.599  10.569 -1.4702  0.9874 -0.2650
28037SOL     OW90971   9.739  11.091   0.254  0.2008  0.1951  0.0620
28037SOL    HW190972   9.814  11.068   0.199 -0.9960 -1.4779 -0.9716
28037SOL    HW290973   9.667  11.038   0.220 -0.8722 -0.1268  2.5746
28038SOL     OW90974  11.768   0.124   6.675  0.4020 -0.3688  0.6476
28038SOL    HW190975  11.790   0.121   6.582 -2.3635  1.6503 -0.2277
28038SOL    HW290976  11.759   0.218   6.694  1.6727 -0.6819  3.2087
28039SOL     OW90977   5.970   9.866   5.772 -0.2675  0.3686  0.2014
28039SOL    HW190978   5.993   9.953   5.739  1.1778  0.7876  2.1429
28039SOL    HW290979   5.995   9.806   5.702  0.3157  1.4032 -0.4983
28040SOL     OW90980  10.657  10.925   3.762 -0.5061 -0.0131 -0.4252
28040SOL    HW190981  10.590  10.981   3.722 -1.3761  0.0282  1.0033
28040SOL    HW290982  10.733  10.983   3.773 -1.4130  0.9609  1.0867
28041SOL     OW90983   6.405   4.306   5.039 -0.6424 -0.5353 -0.8027
28041SOL    HW190984   6.375   4.285   5.128  1.6038  1.9195  0.6981
28041SOL    HW290985   6.331   4.353   5.000 -0.4974  1.5781  1.2084
28042SOL     OW90986   2.114   3.687   5.054 -0.0694  0.2001 -0.0187
28042SOL    HW190987   2.075   3.762   5.100 -0.7770  0.1920 -0.5954
28042SOL    HW290988   2.133   3.720   4.966  1.4490  0.2681  0.3074
28043SOL     OW90989   7.574   6.634   8.715  0.3346  0.2865  0.1677
28043SOL    HW190990   7.495   6.586   8.738 -0.7274  1.3212 -1.1577
28043SOL    HW290991   7.606   6.591   8.635  0.5775  0.4756  0.1609
28044SOL     OW90992   4.008   1.846   1.630  0.2226 -0.1797 -0.7729
28044SOL    HW190993   4.015   1.926   1.579 -3.8396  0.1681 -1.0981
28044SOL    HW290994   4.029   1.776   1.568  0.0265  0.4645 -1.5824
28045SOL     OW90995  10.842   4.694   7.787  0.8064 -0.4759 -0.4868
28045SOL    HW190996  10.796   4.619   7.748  1.3138 -0.2062 -1.6634
28045SOL    HW290997  10.855   4.669   7.879 -0.2460 -1.2353 -0.5266
28046SOL     OW90998   7.486  10.466  11.755 -0.1957  0.7089 -0.0013
28046SOL    HW190999   7.409  10.448  11.808 -0.0182 -2.5553 -0.6105
28046SOL    HW291000   7.560  10.459  11.816 -0.1976  0.3028 -0.0411
28047SOL     OW91001   3.113   5.600   6.047 -0.4035  0.1347 -0.6966
28047SOL    HW191002   3.077   5.512   6.056  0.5504 -0.2870 -0.8896
28047SOL    HW291003   3.199   5.587   6.007 -1.4008  1.3590 -3.4966
28048SOL     OW91004  12.135   1.534   4.831  0.0664 -0.4209 -0.1353
28048SOL    HW191005  12.107   1.555   4.920  1.6082 -1.9863  0.7817
28048SOL    HW291006  12.231   1.534   4.836  0.1727 -0.5577 -1.8006
28049SOL     OW91007   3.796   0.953  12.108 -0.2200  0.2270  0.1204
28049SOL    HW191008   3.837   0.927  12.025  0.5956 -1.0598  0.8906
28049SOL    HW291009   3.821   1.045  12.119  0.9891 -0.0329 -0.3022
28050SOL     OW91010   7.361   7.973   4.353 -0.3862 -0.4103 -0.3713
28050SOL    HW191011   7.367   7.877   4.355  1.3486 -0.3241  0.3570
28050SOL    HW291012   7.312   7.996   4.432 -2.0025 -0.7308 -1.2462
28051SOL     OW91013   9.026   9.337   3.854 -0.0059 -0.4240 -0.1148
28051SOL    HW191014   8.975   9.344   3.774  0.1453 -0.5906 -0.2276
28051SOL    HW291015   8.964   9.354   3.925  0.0732  0.7461 -0.3116
28052SOL     OW91016   5.634   5.780   4.985 -0.3902 -0.3753 -0.6340
28052SOL    HW191017   5.565   5.834   4.947 -0.0342  0.0236 -0.7270
28052SOL    HW291018   5.594   5.737   5.060 -0.8411 -0.4389 -0.9097
28053SOL     OW91019   6.566   4.261   8.240 -0.2086 -0.2072  0.2008
28053SOL    HW191020   6.536   4.257   8.149  0.6411  1.4973 -0.1992
28053SOL    HW291021   6.509   4.200   8.286  0.2759 -2.2189 -1.6977
28054SOL     OW91022   5.537   0.372   1.266  0.6994  0.2465  0.2226
28054SOL    HW191023   5.558   0.430   1.193 -0.6411  0.3923 -0.0765
28054SOL    HW291024   5.451   0.402   1.297  1.0545 -0.0781  1.5968
28055SOL     OW91025  10.170  10.636   7.188  0.7099  0.1492  0.2344
28055SOL    HW191026  10.107  10.658   7.119  2.3995 -1.3948 -1.9393
28055SOL    HW291027  10.118  10.588   7.252 -0.4682 -0.6869 -1.2690
28056SOL     OW91028  10.649   2.701   2.338  0.2640  0.2551 -0.0316
28056SOL    HW191029  10.556   2.677   2.340  0.6840 -1.8533 -1.8198
28056SOL    HW291030  10.695   2.617   2.336  2.3207  1.2120  2.0470
28057SOL     OW91031  10.970   6.363  10.406 -0.0373 -0.1258 -0.3004
28057SOL    HW191032  10.980   6.357  10.501  0.3650 -2.0497 -0.4179
28057SOL    HW291033  11.044   6.312  10.372 -2.6888 -3.5771 -1.5164
28058SOL     OW91034   0.088   3.672   2.844  0.9766  0.4540 -0.1720
28058SOL    HW191035   0.171   3.713   2.821  0.9036  0.9104  0.3869
28058SOL    HW291036   0.113   3.587   2.881  1.0965 -0.3826 -2.0327
28059SOL     OW91037   2.583   6.246   9.347 -0.8568  0.1469 -0.1146
28059SOL    HW191038   2.570   6.202   9.263  1.5909 -0.3689 -0.3121
28059SOL    HW291039   2.555   6.336   9.332  0.1191  0.2215 -1.7178
28060SOL     OW91040   2.164   8.948  10.756  0.3900 -0.1109  0.3190
28060SOL    HW191041   2.221   8.875  10.731  0.3538  0.0329 -0.1802
28060SOL    HW291042   2.085   8.905  10.789  0.9668 -0.3233  1.4985
28061SOL     OW91043   7.657   5.709   8.380 -0.1354 -0.5239 -0.5160
28061SOL    HW191044   7.741   5.753   8.391  0.6865 -1.7700 -1.5821
28061SOL    HW291045   7.650   5.650   8.455  0.2149 -0.8270 -0.7183
28062SOL     OW91046  11.081   7.635   9.112  0.5669 -0.3950 -0.0063
28062SOL    HW191047  11.090   7.702   9.180 -2.2926  1.8114 -1.6144
28062SOL    HW291048  11.002   7.587   9.136 -0.3863  0.3016 -1.5981
28063SOL     OW91049   0.645   3.271   7.011 -0.0940  0.1431  0.4781
28063SOL    HW191050   0.691   3.343   6.969 -0.4964  0.4741  0.5971
28063SOL    HW291051   0.713   3.223   7.057  0.6209 -1.1679 -1.8069
28064SOL     OW91052   5.291   7.336   1.601 -0.0757 -0.3376 -0.0040
28064SOL    HW191053   5.338   7.254   1.589 -0.4790 -0.4645 -0.8100
28064SOL    HW291054   5.257   7.357   1.514  1.6285  1.6823 -0.2482
28065SOL     OW91055   0.995   6.333   5.929 -0.1024  0.0445 -0.8543
28065SOL    HW191056   0.900   6.319   5.928 -0.6559  1.7808  3.2382
28065SOL    HW291057   1.011   6.397   5.860 -2.1789  0.6495 -0.8463
28066SOL     OW91058   4.712   3.723   4.996 -0.2444  1.1538 -0.3956
28066SOL    HW191059   4.650   3.741   5.066 -0.9718  1.6921 -1.1564
28066SOL    HW291060   4.657   3.700   4.920  0.5495 -1.3962 -0.3000
28067SOL     OW91061   4.929   0.934   5.828  0.2491 -0.3486  0.8061
28067SOL    HW191062   4.847   0.885   5.823  0.2503 -0.3514  0.8124
28067SOL    HW291063   4.994   0.877   5.786  0.1517 -0.1385  0.3683
28068SOL     OW91064   9.335   4.629   9.574  0.7913 -0.0674  0.0597
28068SOL    HW191065   9.287   4.701   9.532  0.0295 -0.5554  0.0726
28068SOL    HW291066   9.266   4.568   9.602  1.5073 -2.1556 -2.3591
28069SOL     OW91067   7.287   8.149  12.275  0.0134  0.6522 -0.2175
28069SOL    HW191068   7.281   8.058  12.304 -1.8399  1.0683  0.8768
28069SOL    HW291069   7.232   8.151  12.196 -0.1369  0.8708 -0.1058
28070SOL     OW91070   5.240  10.508   3.762 -0.2510 -0.4256  0.2391
28070SOL    HW191071   5.219  10.574   3.829 -2.0567  0.7846 -1.4191
28070SOL    HW291072   5.160  10.456   3.754 -0.2712 -0.2027 -1.3211
28071SOL     OW91073   3.692  11.011   3.866 -0.4208  0.3038  0.0683
28071SOL    HW191074   3.759  11.010   3.934 -0.5724  2.4325  0.3094
28071SOL    HW291075   3.741  11.002   3.784  0.1398  1.2555  0.2790
28072SOL     OW91076  11.024   8.118   1.201 -0.2391  0.3418  0.3930
28072SOL    HW191077  10.928   8.124   1.205 -0.5217 -1.7349 -1.2726
28072SOL    HW291078  11.046   8.053   1.267 -0.0020  0.6095  0.5770
28073SOL     OW91079   9.225   0.437   0.205  0.2869  0.1933  0.2370
28073SOL    HW191080   9.130   0.429   0.195  0.4242  0.4854 -1.8623
28073SOL    HW291081   9.249   0.508   0.145  2.0177 -0.9752 -0.5261
28074SOL     OW91082   6.002   6.932  11.923 -0.2868  0.0339  0.0686
28074SOL    HW191083   6.022   6.886  12.004 -2.7436  0.4554  0.9880
28074SOL    HW291084   5.934   6.880  11.881  0.5769  0.1000 -1.5175
28075SOL     OW91085   2.293   3.852   9.755 -0.2063 -0.5517  0.4773
28075SOL    HW191086   2.362   3.888   9.811  0.2563  0.1741 -0.5242
28075SOL    HW291087   2.320   3.876   9.666 -2.3360  0.7716  0.1137
28076SOL     OW91088   1.554   6.590   0.366  0.1639  0.5605 -0.2018
28076SOL    HW191089   1.563   6.666   0.308 -2.2127  1.6983  0.7791
28076SOL    HW291090   1.505   6.624   0.441 -0.4826 -1.8388  0.5249
28077SOL     OW91091   5.874   0.853  10.045 -0.3170 -0.0075  0.4158
28077SOL    HW191092   5.823   0.903   9.982 -0.2912  0.3426  0.6651
28077SOL    HW291093   5.911   0.920  10.104 -1.9365 -0.4417  2.0044
28078SOL     OW91094   4.808   0.521   4.111 -0.8668  0.0785 -0.1047
28078SOL    HW191095   4.839   0.611   4.102 -1.3233  0.0561 -2.4650
28078SOL    HW291096   4.888   0.469   4.120 -0.5368  0.5822 -0.0934
28079SOL     OW91097   1.924   1.990   1.870 -0.2025 -0.0232  0.1685
28079SOL    HW191098   2.019   1.990   1.858 -0.4192 -0.0273 -1.7723
28079SOL    HW291099   1.909   2.056   1.938  1.1120  0.7474 -0.2530
28080SOL     OW91100   7.586   8.968   8.437 -0.0117  0.1129 -0.4059
28080SOL    HW191101   7.599   8.925   8.522 -0.9207  0.4671 -0.0752
28080SOL    HW291102   7.559   9.057   8.459 -1.4775 -0.1529 -1.0463
28081SOL     OW91103   2.856  10.629   4.058 -0.3750  0.8086  0.4699
28081SOL    HW191104   2.815  10.557   4.105 -0.4492 -0.1674 -1.0296
28081SOL    HW291105   2.865  10.698   4.124 -0.3372 -0.5300  1.9373
28082SOL     OW91106  12.073   4.090   5.844 -0.0462  0.3259  0.1205
28082SOL    HW191107  12.017   4.167   5.831 -0.5134  0.1268  0.8798
28082SOL    HW291108  12.100   4.065   5.756  0.8016  1.8493 -0.0916
28083SOL     OW91109   2.318   5.531   3.080  0.6090 -0.2470 -0.0077
28083SOL    HW191110   2.408   5.557   3.060  0.7213 -1.5968 -1.4216
28083SOL    HW291111   2.266   5.575   3.014  0.1874  0.6087  0.8682
28084SOL     OW91112   4.603   1.735  10.312 -0.8328  0.1091  0.0774
28084SOL    HW191113   4.523   1.756  10.263 -0.3191 -1.3936 -1.4848
28084SOL    HW291114   4.665   1.803  10.287 -0.9150 -0.0227 -0.4872
28085SOL     OW91115   5.496   0.194  11.459  0.5943  0.1116 -0.2252
28085SOL    HW191116   5.478   0.133  11.530  0.4818  0.1771 -0.1970
28085SOL    HW291117   5.569   0.247  11.490 -0.8670  1.6457  0.7942
28086SOL     OW91118  10.434   8.449   7.150 -0.4579  0.0831 -0.0933
28086SOL    HW191119  10.513   8.394   7.141  0.9237  2.0453 -0.6796
28086SOL    HW291120  10.409   8.469   7.060 -1.6101 -0.4250  0.0934
28087SOL     OW91121   2.151  11.228   7.094  0.5532  0.2626  0.1059
28087SOL    HW191122   2.152  11.199   7.185  1.1705  0.3242  0.1185
28087SOL    HW291123   2.062  11.260   7.080 -0.2454 -1.7892  0.0489
28088SOL     OW91124   2.126   9.916   5.087  0.0234  0.5440 -0.0548
28088SOL    HW191125   2.164   9.835   5.052  0.1808  0.6085 -0.0334
28088SOL    HW291126   2.092   9.961   5.010  1.4461  1.2587 -0.2883
28089SOL     OW91127   8.550   7.604   5.957  0.3432 -0.2436  0.5812
28089SOL    HW191128   8.534   7.619   5.864  1.4199  0.8401  0.5417
28089SOL    HW291129   8.477   7.646   6.002 -1.4375 -2.7197  0.2181
28090SOL     OW91130   7.568   1.868  10.258 -0.2157 -0.5694 -0.1388
28090SOL    HW191131   7.642   1.816  10.227  0.0226 -0.3495  0.0628
28090SOL    HW291132   7.524   1.811  10.322 -1.7440 -1.7481 -2.0889
28091SOL     OW91133   2.018   3.730  12.266 -0.2803  0.2517  0.0709
28091SOL    HW191134   2.010   3.815  12.309 -0.9222 -0.0178  0.4957
28091SOL    HW291135   2.010   3.750  12.172 -0.5319  0.6470  0.1739
28092SOL     OW91136  10.647   8.953   9.313  0.0469  0.1399  0.0193
28092SOL    HW191137  10.681   8.872   9.352  0.7741  0.8289  0.8535
28092SOL    HW291138  10.715   9.018   9.329  0.0657  0.6180 -1.8354
28093SOL     OW91139  12.266   9.075  10.181 -0.0512  0.0093 -0.3421
28093SOL    HW191140  12.188   9.099  10.131  0.3513  0.5724 -0.7116
28093SOL    HW291141  12.238   9.083  10.273  0.3269  3.0880 -0.3683
28094SOL     OW91142   4.731   2.133   7.594  0.1786  0.3721  0.6534
28094SOL    HW191143   4.765   2.191   7.662  1.5055  2.3900 -1.5905
28094SOL    HW291144   4.807   2.079   7.569 -0.2239 -0.1596  0.5561
28095SOL     OW91145   1.597   0.708  11.458 -0.5539 -0.6067  0.1852
28095SOL    HW191146   1.537   0.736  11.527 -1.4287  0.2695 -0.8970
28095SOL    HW291147   1.542   0.703  11.379  0.6158 -0.6819 -0.6484
28096SOL     OW91148   7.326  11.044   4.813 -0.2289  0.1226 -0.4276
28096SOL    HW191149   7.284  11.111   4.760  1.8985  0.3602 -1.9207
28096SOL    HW291150   7.364  10.983   4.749 -1.1168 -1.9153  0.8749
28097SOL     OW91151   4.776   1.116   9.455 -0.0066 -0.1094 -0.1327
28097SOL    HW191152   4.708   1.119   9.388  0.9043 -0.3920 -1.0981
28097SOL    HW291153   4.794   1.022   9.467  1.8184  0.0071 -1.5982
28098SOL     OW91154   0.715   1.145   0.498  0.7149  0.2053  0.1137
28098SOL    HW191155   0.793   1.141   0.444  1.9911 -0.2537  1.8978
28098SOL    HW291156   0.721   1.068   0.555 -1.5242 -0.3558 -0.3141
28099SOL     OW91157   5.888   4.014  11.834 -0.5860  0.2206  1.0511
28099SOL    HW191158   5.970   3.972  11.861 -0.5844 -0.6471 -0.2055
28099SOL    HW291159   5.915   4.084  11.775 -0.7248 -0.0616  0.6419
28100SOL     OW91160   3.113   8.068   5.761  0.1797 -0.1643  0.8345
28100SOL    HW191161   3.153   8.123   5.693  1.4092 -0.9040  0.9160
28100SOL    HW291162   3.029   8.040   5.724 -0.4490  1.6952  0.7712
28101SOL     OW91163   6.265   6.563   6.351  0.2379 -0.2187  0.5753
28101SOL    HW191164   6.195   6.571   6.287  2.6772  2.0756 -2.0493
28101SOL    HW291165   6.248   6.633   6.415 -0.8665 -0.9724  1.1535
28102SOL     OW91166   8.258  11.568   7.067 -0.0013 -0.4494  0.3482
28102SOL    HW191167   8.251  11.524   7.152 -1.9329  0.3431  0.6546
28102SOL    HW291168   8.184  11.535   7.016 -0.8907  1.5868  0.2190
28103SOL     OW91169   6.332   3.078   4.114 -0.0159 -0.3474 -0.4355
28103SOL    HW191170   6.238   3.081   4.130 -0.0128 -1.9681  0.1289
28103SOL    HW291171   6.341   3.094   4.020 -1.0886 -2.4468 -0.9579
28104SOL     OW91172   0.294  10.747  12.033 -0.0402  0.2522  0.0065
28104SOL    HW191173   0.240  10.821  12.004 -0.6641 -0.2396 -0.1187
28104SOL    HW291174   0.318  10.702  11.952  0.7548  0.6011  0.0485
28105SOL     OW91175   4.583  12.422  10.016  1.0975  0.2044  0.4597
28105SOL    HW191176   4.540  12.367  10.081  1.0202  1.5929  1.6261
28105SOL    HW291177   4.526  12.418   9.939 -1.5844  2.5333  2.1623
28106SOL     OW91178   3.148  10.431   4.694  0.6702 -0.0189  0.0452
28106SOL    HW191179   3.181  10.393   4.613  2.1270  1.0752  0.0763
28106SOL    HW291180   3.223  10.433   4.752 -0.2749 -0.4769  1.3294
28107SOL     OW91181   0.097   7.399   5.739  0.3525 -0.4455 -0.0773
28107SOL    HW191182   0.161   7.429   5.675  0.6984 -0.8211  0.0874
28107SOL    HW291183   0.012   7.408   5.695  0.4757  0.4077 -0.1602
28108SOL     OW91184  11.378   4.305   8.052  0.0777  0.1744  0.4678
28108SOL    HW191185  11.385   4.359   8.131 -1.7859 -0.7774  1.3524
28108SOL    HW291186  11.417   4.221   8.077 -0.4058 -0.0862  0.3758
28109SOL     OW91187   8.240   1.836  10.323  0.2921 -0.2796  0.1391
28109SOL    HW191188   8.231   1.818  10.417 -1.2531  0.0185  0.0633
28109SOL    HW291189   8.335   1.839  10.309  0.5634 -1.1868  1.5186
28110SOL     OW91190   6.773   8.869   2.736  0.6570  0.6019  0.5443
28110SOL    HW191191   6.814   8.811   2.673  1.2934  1.0532  0.5259
28110SOL    HW291192   6.687   8.888   2.699  0.1634 -0.8592  0.8888
28111SOL     OW91193   0.521   0.707  10.388 -0.3330  0.2117  0.5061
28111SOL    HW191194   0.554   0.791  10.420  0.4608 -0.1141  0.5446
28111SOL    HW291195   0.528   0.649  10.464 -1.6055  0.2866  0.7151
28112SOL     OW91196   6.523   0.668   5.556 -0.0283  0.1062 -0.3088
28112SOL    HW191197   6.559   0.658   5.468 -0.8048 -1.9814 -0.4559
28112SOL    HW291198   6.461   0.741   5.548  1.2132  1.1302 -1.0025
28113SOL     OW91199   0.526  11.552  10.786 -0.1520  0.2039 -0.0263
28113SOL    HW191200   0.538  11.531  10.878  1.5700 -0.2708 -0.3325
28113SOL    HW291201   0.608  11.592  10.759 -0.6945  0.5114 -1.3235
28114SOL     OW91202   9.138   2.205  11.420 -0.1230  0.1174 -0.5682
28114SOL    HW191203   9.100   2.224  11.335 -0.1177  1.3841 -0.3083
28114SOL    HW291204   9.075   2.147  11.462  0.5516 -1.7069 -1.9445
28115SOL     OW91205   5.787   3.996   4.093 -0.7319 -0.1669  0.0033
28115SOL    HW191206   5.781   4.083   4.133  0.3717 -0.4118  0.7397
28115SOL    HW291207   5.828   3.942   4.160 -0.1008 -0.9193 -0.9659
28116SOL     OW91208   6.350   9.120   7.475 -0.0080 -0.0360  0.2507
28116SOL    HW191209   6.345   9.090   7.384 -0.1357 -1.1083  0.5971
28116SOL    HW291210   6.416   9.064   7.515 -1.3102 -0.8844  1.2895
28117SOL     OW91211   9.466   8.385   3.533 -0.3376 -0.3859  0.1106
28117SOL    HW191212   9.468   8.439   3.454  0.6097  0.1057  0.4621
28117SOL    HW291213   9.557   8.374   3.558 -0.6681  0.7646  2.0055
28118SOL     OW91214   5.208   4.244   3.617  0.1614  0.0885 -0.4370
28118SOL    HW191215   5.275   4.284   3.674 -0.4201 -0.9848  1.0698
28118SOL    HW291216   5.185   4.314   3.555 -0.7296  2.1339  1.9996
28119SOL     OW91217   4.189   7.949   1.776 -0.4550 -0.5553  0.1157
28119SOL    HW191218   4.279   7.920   1.786  0.0991  0.6475 -0.9745
28119SOL    HW291219   4.161   7.911   1.692 -0.1519  0.9371 -0.6894
28120SOL     OW91220   7.967  10.976   4.486 -0.0361 -0.0054  0.3795
28120SOL    HW191221   7.985  10.884   4.505 -1.4663 -0.3133  0.3257
28120SOL    HW291222   7.937  11.013   4.569  2.4580  0.9713  0.9446
28121SOL     OW91223   3.390   2.311   9.922 -0.0355 -0.0682 -0.2129
28121SOL    HW191224   3.433   2.383   9.967 -0.5792 -0.3845  0.8438
28121SOL    HW291225   3.425   2.314   9.833 -0.9907  2.2777 -0.5747
28122SOL     OW91226   4.143  11.346   3.163 -0.2385 -0.3287 -0.5095
28122SOL    HW191227   4.108  11.405   3.230 -1.2115 -2.0512  0.5634
28122SOL    HW291228   4.220  11.306   3.204  0.3819  0.0956 -1.2134
28123SOL     OW91229   9.933   8.849  11.025  0.0548 -0.0928 -0.4550
28123SOL    HW191230   9.854   8.839  10.972  0.1779  0.9679 -0.8505
28123SOL    HW291231  10.002   8.810  10.972  0.3407  1.7614 -1.5226
28124SOL     OW91232   0.382   7.967   3.640 -0.1677 -0.2728 -0.2252
28124SOL    HW191233   0.367   7.873   3.628  2.4066 -0.7535 -0.3343
28124SOL    HW291234   0.436   7.991   3.565  1.1747  0.7421  1.0294
28125SOL     OW91235  10.227   2.566   3.717 -0.5610  0.0121  0.3875
28125SOL    HW191236  10.298   2.504   3.734  0.0525  0.6522  0.1716
28125SOL    HW291237  10.239   2.592   3.626 -0.9825  0.2483  0.3990
28126SOL     OW91238   8.429   3.188   0.265 -0.1161 -0.6863 -0.3189
28126SOL    HW191239   8.436   3.239   0.346 -0.8724 -0.0827 -0.6203
28126SOL    HW291240   8.519   3.163   0.245 -0.1088 -2.7357  1.8814
28127SOL     OW91241   9.165   0.821   9.975 -0.7089 -0.2291  0.0489
28127SOL    HW191242   9.221   0.890  10.009  1.7366 -2.4536  0.9074
28127SOL    HW291243   9.140   0.851   9.888  0.3363  1.6656  0.3466
28128SOL     OW91244   1.092   3.783   1.439 -0.4779  0.0797  0.5436
28128SOL    HW191245   1.090   3.711   1.376 -1.4975  1.2788 -0.8638
28128SOL    HW291246   1.105   3.862   1.385  0.1156  1.0004  1.9853
28129SOL     OW91247   8.879   0.296   5.064  0.5651  0.3663  0.1272
28129SOL    HW191248   8.863   0.210   5.103 -1.1422  0.0954 -1.0359
28129SOL    HW291249   8.853   0.358   5.132 -0.0126 -0.0656  0.3142
28130SOL     OW91250  11.476   1.826  10.369 -0.5779 -0.4378  0.1496
28130SOL    HW191251  11.425   1.757  10.328 -0.1671 -0.0336 -1.0979
28130SOL    HW291252  11.429   1.907  10.348  0.3643 -0.0970 -0.7152
28131SOL     OW91253   5.114   3.838   3.941 -0.0376  0.4164  0.4472
28131SOL    HW191254   5.196   3.878   3.971  0.0683 -0.2510  1.0718
28131SOL    HW291255   5.086   3.894   3.869  2.8036 -1.2586 -2.1999
28132SOL     OW91256   8.287   9.642   6.382 -0.1441  0.2481 -0.1176
28132SOL    HW191257   8.203   9.686   6.400 -0.2772 -0.1340  0.2276
28132SOL    HW291258   8.278   9.608   6.293 -0.1148  0.7449 -0.3130
28133SOL     OW91259   3.295  10.947   2.443  0.1074 -0.5309 -0.4468
28133SOL    HW191260   3.290  10.929   2.537  1.8125  1.5754  0.1064
28133SOL    HW291261   3.388  10.942   2.422 -0.2468 -0.9836 -2.0649
28134SOL     OW91262   7.446   8.152   5.188 -0.0447 -0.1939 -0.0741
28134SOL    HW191263   7.363   8.120   5.150  0.1257  0.3274 -0.9067
28134SOL    HW291264   7.478   8.078   5.240 -0.8963 -0.5012  0.0331
28135SOL     OW91265   9.225   6.128   0.108  0.2526  0.3551  0.0736
28135SOL    HW191266   9.257   6.153   0.195 -0.5217 -1.8989  1.0918
28135SOL    HW291267   9.304   6.109   0.057  0.7122  1.6619  0.2852
28136SOL     OW91268   0.359  11.227  11.206  0.1347 -0.1440 -0.2008
28136SOL    HW191269   0.292  11.270  11.260 -0.4193 -0.6547 -0.4748
28136SOL    HW291270   0.364  11.281  11.127 -0.0694 -0.1973 -0.2498
28137SOL     OW91271   3.273   0.532   7.917 -0.2182 -0.3551 -0.3575
28137SOL    HW191272   3.262   0.624   7.943  0.6888 -0.5511  0.8052
28137SOL    HW291273   3.193   0.489   7.949 -0.1061 -0.1777  0.1801
28138SOL     OW91274  11.973   3.008   0.408  0.2427 -0.6476  0.7421
28138SOL    HW191275  11.944   3.095   0.433  0.3930 -0.8774  1.7420
28138SOL    HW291276  12.052   3.023   0.356 -0.8385 -0.0950 -0.8419
28139SOL     OW91277  12.274   4.576   1.202 -0.4113 -0.0800 -0.7741
28139SOL    HW191278  12.248   4.486   1.181 -1.1997  0.2045 -1.0527
28139SOL    HW291279  12.195   4.628   1.184  0.0868  0.6857 -0.7614
28140SOL     OW91280   5.194   6.529   3.559 -0.1725  0.0177  0.1999
28140SOL    HW191281   5.120   6.470   3.566  0.1242 -0.4780 -0.6264
28140SOL    HW291282   5.229   6.513   3.471  0.2888  0.9741  0.1929
28141SOL     OW91283   5.276   3.513   5.679  0.0467 -0.3008 -0.4416
28141SOL    HW191284   5.296   3.607   5.680  2.6217 -0.6911 -2.2363
28141SOL    HW291285   5.284   3.486   5.770 -3.0776  1.5115  0.5403
28142SOL     OW91286   7.457   4.116   2.234 -0.1280  0.0994 -0.1728
28142SOL    HW191287   7.419   4.093   2.319  1.5855  0.5203  0.7622
28142SOL    HW291288   7.414   4.057   2.172 -0.8224 -0.8155  1.1176
28143SOL     OW91289   5.623   3.674  10.965 -0.5887 -0.4283  0.3475
28143SOL    HW191290   5.597   3.713  10.881 -2.7629 -0.8396  0.7816
28143SOL    HW291291   5.708   3.633  10.946  0.3841  1.9362 -0.8704
28144SOL     OW91292   5.919  12.324   9.523 -0.1616 -0.2521 -0.1760
28144SOL    HW191293   5.827  12.311   9.547 -0.0062 -2.0199 -0.4053
28144SOL    HW291294   5.953  12.384   9.590 -1.7646  1.4395 -0.8062
28145SOL     OW91295   6.611  11.143   4.802  0.6989 -0.1800 -0.1046
28145SOL    HW191296   6.597  11.132   4.896  0.8261  1.9654  0.2360
28145SOL    HW291297   6.569  11.068   4.762  2.3986 -2.2730  1.7423
28146SOL     OW91298  11.051   6.328   0.839 -0.3795 -0.5522 -0.0768
28146SOL    HW191299  10.969   6.297   0.877 -0.2306 -1.2855 -0.3271
28146SOL    HW291300  11.092   6.249   0.804 -0.3312  0.0322 -1.4093
28147SOL     OW91301   9.521   7.691   4.263 -0.2403  0.7969  0.0260
28147SOL    HW191302   9.450   7.692   4.198 -0.9865 -1.4490  0.7154
28147SOL    HW291303   9.478   7.715   4.345 -0.4182 -1.1706  0.5673
28148SOL     OW91304   7.711   7.889   2.955  0.7909 -0.2616 -0.3273
28148SOL    HW191305   7.708   7.959   3.020  0.1523 -0.1559 -0.4571
28148SOL    HW291306   7.693   7.809   3.004  1.3696 -0.3174 -0.2033
28149SOL     OW91307   6.222   5.518   7.218 -0.3813 -0.2981  0.2841
28149SOL    HW191308   6.273   5.532   7.298 -1.3539 -0.0467  0.8861
28149SOL    HW291309   6.139   5.564   7.234 -0.5326 -0.0967 -0.9415
28150SOL     OW91310   5.701   0.947   9.842 -0.2281  0.0857  0.0684
28150SOL    HW191311   5.652   1.016   9.886 -0.7210  0.0427 -0.4074
28150SOL    HW291312   5.639   0.875   9.831  0.3948 -0.6054  0.9338
28151SOL     OW91313   8.540   3.122   1.932  0.0765 -0.2740 -0.9336
28151SOL    HW191314   8.624   3.139   1.975 -0.5993  1.4497 -0.1701
28151SOL    HW291315   8.561   3.062   1.860  1.6638 -1.2420  0.2627
28152SOL     OW91316   9.033   2.242   8.524  0.3768  0.3480 -0.1531
28152SOL    HW191317   8.977   2.259   8.449  0.8225  0.2168 -0.5232
28152SOL    HW291318   9.031   2.147   8.535  0.0545  0.3917  0.2106
28153SOL     OW91319  10.330   2.093   8.307 -0.1273 -0.0430 -0.2102
28153SOL    HW191320  10.295   2.141   8.232 -1.5074 -1.3753 -0.4838
28153SOL    HW291321  10.285   2.008   8.304  1.7879 -1.1526  0.5702
28154SOL     OW91322  10.622  11.660   3.309 -0.4259 -0.6618 -0.0593
28154SOL    HW191323  10.665  11.584   3.270 -0.4701 -1.1299  0.7612
28154SOL    HW291324  10.574  11.624   3.383 -1.6840 -0.0385 -0.5558
28155SOL     OW91325   7.600   0.002   4.427 -0.3328 -0.0042  0.2282
28155SOL    HW191326   7.539   0.072   4.449 -0.1223  0.1946  0.1861
28155SOL    HW291327   7.553  -0.079   4.448 -0.9808  0.1069 -0.7286
28156SOL     OW91328   4.075   0.728  11.645  0.3036 -0.1946 -0.1638
28156SOL    HW191329   4.107   0.699  11.731  0.2563  0.4636  0.0808
28156SOL    HW291330   4.150   0.719  11.586  1.2603  2.1773  0.5807
28157SOL     OW91331   4.993   1.682   2.814 -0.3274 -0.5662  0.2305
28157SOL    HW191332   4.909   1.713   2.849  0.4096 -1.7085  3.3454
28157SOL    HW291333   5.001   1.725   2.729 -2.3137  2.6302  1.4593
28158SOL     OW91334  10.504   9.852  12.376  0.0225 -0.3738 -0.2557
28158SOL    HW191335  10.505   9.880  12.285  2.0964  0.1009 -0.1436
28158SOL    HW291336  10.593   9.868  12.407 -0.8697  0.4466  2.1462
28159SOL     OW91337  12.248   9.749   3.393 -0.2826 -0.3312  0.0346
28159SOL    HW191338  12.197   9.789   3.464  0.6025  0.9133  0.0098
28159SOL    HW291339  12.307   9.819   3.364  1.3094 -1.6634 -0.0576
28160SOL     OW91340   3.827   2.585   7.019 -0.1631  0.2452  0.4217
28160SOL    HW191341   3.795   2.674   7.010  1.1793  0.9451  2.0727
28160SOL    HW291342   3.881   2.570   6.942  1.2454  1.6258  1.0895
28161SOL     OW91343   1.680   6.453  12.371  0.1823 -0.7607 -0.0261
28161SOL    HW191344   1.638   6.535  12.346 -0.0035 -0.7213  0.3971
28161SOL    HW291345   1.625   6.385  12.332  1.3241 -0.6698 -1.8848
28162SOL     OW91346  11.354   7.710  10.742  0.0644  0.4711  0.1745
28162SOL    HW191347  11.286   7.754  10.793 -1.1737  1.1199 -1.9132
28162SOL    HW291348  11.426   7.773  10.738  0.5199  0.1050  1.6864
28163SOL     OW91349  11.365   6.371   2.765 -0.7118 -0.5731  0.3351
28163SOL    HW191350  11.427   6.298   2.758  0.6429  0.5932 -0.3031
28163SOL    HW291351  11.302   6.342   2.831  1.6816 -1.0233  2.6262
28164SOL     OW91352   9.444  11.296   6.491 -0.2673  0.6827 -0.1370
28164SOL    HW191353   9.460  11.388   6.469 -0.1148  1.1160  1.6269
28164SOL    HW291354   9.531  11.256   6.492 -0.2215  0.7842  0.1433
28165SOL     OW91355   9.317  11.119   9.344  0.1676  0.6187 -0.3229
28165SOL    HW191356   9.363  11.037   9.325  0.4998  0.3435  1.4584
28165SOL    HW291357   9.229  11.091   9.370  0.1177  0.8561 -0.2390
28166SOL     OW91358   5.048   9.244   4.456  0.2650 -0.5639  0.5509
28166SOL    HW191359   5.061   9.290   4.374  1.8586 -0.3808  0.8820
28166SOL    HW291360   5.136   9.227   4.489 -0.3215  0.2736  2.7198
28167SOL     OW91361   7.017   2.413   2.912 -0.0213 -0.0792 -0.1189
28167SOL    HW191362   6.989   2.340   2.966 -2.4786  0.7314 -0.1628
28167SOL    HW291363   7.036   2.483   2.974 -0.8440  0.2075 -0.1662
28168SOL     OW91364   5.399   8.133  10.945  0.2237  0.2391  0.2603
28168SOL    HW191365   5.441   8.074  11.007 -1.1288  0.5675  1.5470
28168SOL    HW291366   5.399   8.218  10.989 -0.5777  0.5260 -0.2775
28169SOL     OW91367   7.316   9.950  10.462  0.1027  0.4542 -0.6296
28169SOL    HW191368   7.363   9.983  10.386  2.4194  1.9710  1.3198
28169SOL    HW291369   7.347   9.859  10.471  1.0736  0.7740 -0.5911
28170SOL     OW91370   6.164  10.978   4.602  0.6688  0.3884 -0.2136
28170SOL    HW191371   6.214  10.926   4.664  1.7727  0.1777 -1.2322
28170SOL    HW291372   6.096  10.918   4.569  0.3796  0.3638  0.4180
28171SOL     OW91373   9.478   2.132   2.265 -0.2470 -0.2066  0.1370
28171SOL    HW191374   9.465   2.115   2.359 -1.5902  0.1591  0.0378
28171SOL    HW291375   9.445   2.221   2.252  2.6408  0.9126 -0.1718
28172SOL     OW91376   9.042  12.064   9.210 -0.6744  0.2082  0.8249
28172SOL    HW191377   8.951  12.037   9.224 -1.0037  2.1382  3.3275
28172SOL    HW291378   9.082  12.059   9.297  1.5023 -0.0591 -0.1150
28173SOL     OW91379   1.909   8.647   6.692  0.4801 -0.1283 -0.0635
28173SOL    HW191380   1.853   8.620   6.765  0.3780 -1.8919 -0.7381
28173SOL    HW291381   1.972   8.575   6.682  1.9198  1.1082 -0.3000
28174SOL     OW91382   0.593   3.694   0.304 -0.3825 -0.1403  0.2330
28174SOL    HW191383   0.503   3.681   0.273 -0.1728 -0.3860 -0.2844
28174SOL    HW291384   0.611   3.786   0.287 -0.1177 -0.3681 -0.8095
28175SOL     OW91385  12.153   5.606  12.040 -0.0134 -0.3671 -0.5858
28175SOL    HW191386  12.224   5.650  12.088 -0.9473 -2.0241  2.6077
28175SOL    HW291387  12.079   5.666  12.047 -0.1705 -0.6395  0.1947
28176SOL     OW91388   3.788   9.990   7.036  0.0264 -0.6888  0.1410
28176SOL    HW191389   3.868  10.018   7.081 -1.3430  2.2270  1.0129
28176SOL    HW291390   3.733  10.068   7.035 -1.6251 -1.7018 -3.1893
28177SOL     OW91391   4.101   3.878  12.259  0.0473 -0.3808  0.0244
28177SOL    HW191392   4.010   3.849  12.249  0.3454 -1.1370 -0.6267
28177SOL    HW291393   4.103   3.965  12.220 -0.2838 -0.5930 -0.4719
28178SOL     OW91394   5.901   7.798   6.069 -0.4116 -0.4434 -0.2045
28178SOL    HW191395   5.910   7.732   6.000  0.6238  0.6718 -1.1742
28178SOL    HW291396   5.890   7.747   6.149  0.1810 -1.8100 -0.9548
28179SOL     OW91397   1.079   3.865   4.039 -0.4137 -0.3197 -0.1111
28179SOL    HW191398   1.128   3.873   4.121  0.4215  0.9210 -0.7026
28179SOL    HW291399   1.139   3.817   3.980 -0.7601 -0.6628 -0.1855
28180SOL     OW91400   2.266   9.869   5.449  0.3320  0.0015  0.0648
28180SOL    HW191401   2.265   9.962   5.469  2.4910 -0.0709  0.7802
28180SOL    HW291402   2.319   9.862   5.369 -0.4164 -0.5528 -0.3923
28181SOL     OW91403   5.389  11.365   9.184 -0.2087 -0.5699 -0.3625
28181SOL    HW191404   5.394  11.277   9.221 -2.1027 -1.6604 -2.4626
28181SOL    HW291405   5.447  11.362   9.108  1.8293  0.9212  1.0178
28182SOL     OW91406   3.759   9.399  10.830  0.5363 -0.5264 -0.1375
28182SOL    HW191407   3.671   9.436  10.837  0.2171 -1.4493  1.0868
28182SOL    HW291408   3.751   9.330  10.764  0.4231 -0.3925 -0.2645
28183SOL     OW91409   0.489   4.532   7.516 -0.5887 -0.4412 -0.4997
28183SOL    HW191410   0.421   4.474   7.482 -0.1684  0.5715 -3.3040
28183SOL    HW291411   0.567   4.512   7.463 -0.0141  1.5775 -0.4929
28184SOL     OW91412   5.946   5.421   5.478 -0.4270 -0.3047  0.6246
28184SOL    HW191413   5.923   5.342   5.527  0.2609 -0.4121  0.7861
28184SOL    HW291414   6.042   5.422   5.479 -0.4272  0.2303  0.1379
28185SOL     OW91415   7.347   1.443  10.082  0.3888 -0.1093 -0.3287
28185SOL    HW191416   7.352   1.474  10.172  1.1270 -0.8075 -0.1234
28185SOL    HW291417   7.438   1.438  10.052  0.1264  0.6547 -1.3045
28186SOL     OW91418   7.497   6.170   8.261  0.0227  0.2820 -0.4787
28186SOL    HW191419   7.519   6.095   8.317  0.8079  0.4702 -0.5302
28186SOL    HW291420   7.581   6.208   8.237 -0.1727 -0.9229 -3.3645
28187SOL     OW91421   2.378   6.724  11.372  0.2031  0.4460  0.3574
28187SOL    HW191422   2.363   6.660  11.301  0.2943  1.6267 -0.7683
28187SOL    HW291423   2.377   6.672  11.452 -0.2473 -0.8912 -0.4866
28188SOL     OW91424   7.382  10.528   3.349  0.4635  0.0867  0.1114
28188SOL    HW191425   7.350  10.503   3.263 -0.4469  0.1948  0.4074
28188SOL    HW291426   7.414  10.617   3.339 -2.0767  1.1080  0.4451
28189SOL     OW91427   3.119   6.307   2.549 -0.1347 -0.4499  0.4518
28189SOL    HW191428   3.207   6.305   2.512 -0.1510 -1.2805  0.4492
28189SOL    HW291429   3.133   6.307   2.644 -0.1084  1.0053  0.4685
28190SOL     OW91430  12.323   9.310  10.979  0.6324  0.3651  0.6513
28190SOL    HW191431  12.363   9.243  11.034  0.3753 -0.9989 -0.7463
28190SOL    HW291432  12.229   9.303  10.998  0.7275  1.4173  1.6253
28191SOL     OW91433  10.791  10.936   5.721  0.0608 -0.1735  0.1842
28191SOL    HW191434  10.710  10.939   5.671 -0.5195 -0.1336  1.0893
28191SOL    HW291435  10.841  10.863   5.683  0.3778  0.8714 -1.4843
28192SOL     OW91436   8.782  11.258   9.751  0.6189 -0.0751  0.0685
28192SOL    HW191437   8.738  11.240   9.668 -0.3162 -3.1061  1.1106
28192SOL    HW291438   8.759  11.349   9.771 -0.0553  0.3678 -2.3949
28193SOL     OW91439   3.503   9.852   6.742  0.0137 -0.0103  0.5099
28193SOL    HW191440   3.472   9.926   6.795 -0.3568 -0.1708  0.5189
28193SOL    HW291441   3.542   9.893   6.665 -1.5233  0.1647 -0.2105
28194SOL     OW91442   7.939   1.244   1.002  0.3638 -0.2900  0.7136
28194SOL    HW191443   7.853   1.229   0.963  1.4802 -0.1709 -1.9742
28194SOL    HW291444   7.940   1.337   1.023 -0.3267 -0.3965  1.2757
28195SOL     OW91445   4.097   4.808   8.699 -0.0967  0.1826 -0.6305
28195SOL    HW191446   4.065   4.863   8.627 -1.5387 -0.0241 -0.1733
28195SOL    HW291447   4.154   4.745   8.656 -1.1156 -0.0853 -1.6513
28196SOL     OW91448   2.547   9.042   6.451 -0.0346 -0.1671  0.2985
28196SOL    HW191449   2.560   9.131   6.418 -0.6538 -0.5632 -1.0648
28196SOL    HW291450   2.627   8.996   6.426 -0.7661 -0.6376 -1.3450
28197SOL     OW91451   9.977   4.463   1.527 -0.1302  0.0765  0.0378
28197SOL    HW191452  10.006   4.397   1.465 -1.8816  0.6174 -1.4643
28197SOL    HW291453   9.985   4.421   1.613 -0.8263 -1.9710 -0.8261
28198SOL     OW91454  12.222   3.554   2.668 -0.6651 -0.6116 -0.0066
28198SOL    HW191455  12.272   3.606   2.731  0.3318  0.3279 -1.4988
28198SOL    HW291456  12.231   3.464   2.698 -0.9776 -0.1200  1.6732
28199SOL     OW91457   8.354   1.346   1.352 -0.0498 -0.2273  0.2817
28199SOL    HW191458   8.358   1.299   1.435 -1.0878  0.2137  0.5999
28199SOL    HW291459   8.409   1.423   1.366  0.0842 -0.3488  0.4280
28200SOL     OW91460  11.411   6.100   0.401  0.4245 -0.0164 -0.1051
28200SOL    HW191461  11.345   6.164   0.373  0.6562  1.6469  2.7972
28200SOL    HW291462  11.409   6.033   0.332 -2.3810  1.2788 -1.4831
28201SOL     OW91463   8.042   8.981   5.342 -0.4207  0.2368 -0.0301
28201SOL    HW191464   8.102   9.034   5.395 -2.1540  0.2659  2.0739
28201SOL    HW291465   8.045   9.020   5.255  1.2217  1.3354  0.4780
28202SOL     OW91466   7.498   2.367   7.556  0.1405 -0.0459 -0.2785
28202SOL    HW191467   7.581   2.410   7.579  0.7507 -1.5170  0.4182
28202SOL    HW291468   7.498   2.365   7.461  0.6245  0.4830 -0.3009
28203SOL     OW91469   7.996   0.287   9.068 -0.2657  0.0965 -0.4945
28203SOL    HW191470   8.024   0.250   8.984 -0.2771  0.7288 -0.7838
28203SOL    HW291471   7.998   0.213   9.129  0.3541 -0.2378 -0.9069
28204SOL     OW91472   5.644   5.947   7.423 -0.1629  0.2662 -0.1489
28204SOL    HW191473   5.578   5.981   7.483  0.6267  0.4656  0.6300
28204SOL    HW291474   5.619   5.982   7.337 -1.1262  0.2360  0.1108
28205SOL     OW91475  10.310   9.056   3.590  0.2105  0.2082 -0.7565
28205SOL    HW191476  10.231   9.005   3.608  1.3733 -2.4422 -2.5587
28205SOL    HW291477  10.278   9.131   3.539 -1.2164 -0.5689 -1.0773
28206SOL     OW91478   4.875   7.080   6.522  0.3079 -0.1788 -0.1729
28206SOL    HW191479   4.799   7.048   6.472 -0.1734  1.3778 -0.5039
28206SOL    HW291480   4.951   7.045   6.475 -0.1882 -1.3039 -0.1630
28207SOL     OW91481   0.744   8.668   8.449 -0.1413  0.0021 -0.6303
28207SOL    HW191482   0.787   8.588   8.481 -1.6707 -2.0156 -3.2415
28207SOL    HW291483   0.696   8.701   8.525  2.3709 -0.1288  1.1598
28208SOL     OW91484   6.743   2.360   2.765  0.0201 -0.6813  0.5620
28208SOL    HW191485   6.820   2.381   2.713  0.0955  0.1162  0.9870
28208SOL    HW291486   6.728   2.438   2.819 -0.5058 -1.2016  1.1817
28209SOL     OW91487   2.378   8.204   1.913 -0.0808  0.4983 -0.2775
28209SOL    HW191488   2.316   8.246   1.853  1.0120 -0.2240 -1.9706
28209SOL    HW291489   2.398   8.120   1.873  1.1611  0.2545  0.7740
28210SOL     OW91490   2.427   7.742   9.492 -0.6911 -0.6552 -0.1479
28210SOL    HW191491   2.382   7.827   9.483 -2.3914 -1.5697 -0.7340
28210SOL    HW291492   2.434   7.730   9.587  2.2628  1.4330  0.0324
28211SOL     OW91493   4.901   5.661   9.240 -0.2768 -0.5975 -0.0631
28211SOL    HW191494   4.831   5.595   9.238  1.3074 -2.4119  0.6922
28211SOL    HW291495   4.858   5.741   9.270 -1.6542 -2.2184  2.7278
28212SOL     OW91496   1.537   1.463   2.923  0.1610  0.0428  0.3016
28212SOL    HW191497   1.579   1.390   2.879 -0.1937 -0.0958  0.1916
28212SOL    HW291498   1.482   1.423   2.990  1.9223  0.3118  1.9720
28213SOL     OW91499  11.482   1.751   4.647  0.0099 -0.5013  0.2092
28213SOL    HW191500  11.566   1.793   4.668 -0.2811  0.2492 -0.0934
28213SOL    HW291501  11.417   1.806   4.689 -0.8061  2.2504 -4.0322
28214SOL     OW91502   5.210   3.171   7.449  0.1056  0.3449  0.0824
28214SOL    HW191503   5.139   3.152   7.511  1.7022  0.2937  1.9920
28214SOL    HW291504   5.174   3.238   7.391 -2.1519 -1.0710 -0.2728
28215SOL     OW91505   0.969   8.088   8.361  1.0241 -0.5311  0.5886
28215SOL    HW191506   0.928   8.010   8.325 -0.3287  0.5972 -0.4301
28215SOL    HW291507   1.026   8.120   8.291  0.5709  0.0980  0.4951
28216SOL     OW91508   7.500   9.820  10.846 -0.1614 -0.1293  0.1800
28216SOL    HW191509   7.487   9.891  10.908 -2.1785 -0.1825 -0.0994
28216SOL    HW291510   7.537   9.862  10.768 -0.1146  0.3846  0.4756
28217SOL     OW91511   7.970   7.268  11.605  0.6687  0.1788  0.3503
28217SOL    HW191512   7.974   7.302  11.516 -3.4173 -0.3773 -0.2778
28217SOL    HW291513   7.973   7.345  11.661  1.3824  0.6923 -0.3723
28218SOL     OW91514   8.292   4.450  10.382 -0.2929  0.3659  0.1387
28218SOL    HW191515   8.335   4.512  10.442 -0.3217 -0.3821  0.9577
28218SOL    HW291516   8.303   4.488  10.295  3.4664 -0.5551  0.0743
28219SOL     OW91517   9.097   3.715   3.189 -0.3586 -0.2129  0.7843
28219SOL    HW191518   9.163   3.693   3.255 -0.5040  1.7882  1.6741
28219SOL    HW291519   9.044   3.784   3.229 -0.7824  0.7255 -1.2213
28220SOL     OW91520  11.965   7.315   5.601 -0.9221  0.1057  0.7200
28220SOL    HW191521  12.026   7.250   5.636 -1.3917 -0.3209  0.7606
28220SOL    HW291522  11.888   7.309   5.658 -1.0920  0.4798  0.5369
28221SOL     OW91523  12.328   0.055  12.430  1.2379 -0.0010 -0.3988
28221SOL    HW191524  12.322   0.101  12.346  0.8214  0.8751  0.0968
28221SOL    HW291525  12.296   0.118  12.494  3.2926  0.0277  0.6749
28222SOL     OW91526   1.719  10.683   3.600 -0.0780 -0.5414 -0.0391
28222SOL    HW191527   1.811  10.674   3.575 -0.3067 -2.0340 -0.4452
28222SOL    HW291528   1.683  10.744   3.536  0.4543 -0.5383 -0.3493
28223SOL     OW91529   3.946   6.674   1.201 -0.3460 -0.1501 -0.0961
28223SOL    HW191530   3.870   6.728   1.181 -1.0976 -1.3332 -0.5594
28223SOL    HW291531   3.934   6.646   1.291  0.3781  0.9518  0.3634
28224SOL     OW91532   9.017   3.290   0.542 -0.4125  0.1789 -0.6570
28224SOL    HW191533   8.961   3.333   0.607  0.3674 -0.7297  0.6732
28224SOL    HW291534   9.103   3.287   0.583 -0.2052 -1.6722 -1.1391
28225SOL     OW91535   5.495   9.834   3.572  0.0479  0.9529 -0.0563
28225SOL    HW191536   5.480   9.806   3.662  0.4066  0.3743 -0.1703
28225SOL    HW291537   5.533   9.921   3.580 -0.2497  1.0530  0.3365
28226SOL     OW91538   7.850   8.756  11.421 -0.4672 -0.0008 -0.3806
28226SOL    HW191539   7.931   8.803  11.401 -0.0280 -1.1606 -1.4236
28226SOL    HW291540   7.860   8.726  11.511  0.0478  0.2801 -0.3428
28227SOL     OW91541   8.173   9.781   4.982 -0.0532  0.5422 -0.3440
28227SOL    HW191542   8.215   9.696   4.969 -1.6612 -0.4747  0.6958
28227SOL    HW291543   8.106   9.786   4.914 -0.6667  0.4716  0.2329
28228SOL     OW91544  12.005   5.456   9.718  0.1815  0.5200  0.0418
28228SOL    HW191545  11.968   5.382   9.766 -1.3169  0.4483 -1.1352
28228SOL    HW291546  11.940   5.525   9.726  0.2919  0.7796 -1.1439
28229SOL     OW91547   1.801   1.244   7.750  0.0874  0.1017 -0.1703
28229SOL    HW191548   1.855   1.165   7.741 -2.1486 -1.3438 -2.2212
28229SOL    HW291549   1.853   1.314   7.711  1.4767 -0.6605  0.2387
28230SOL     OW91550   4.348   1.093   4.552  0.1724 -0.1166  0.2377
28230SOL    HW191551   4.290   1.074   4.626 -1.1494  1.3017 -0.3811
28230SOL    HW291552   4.323   1.029   4.485 -0.3663  0.1824  0.1468
28231SOL     OW91553   3.112   7.518   2.697 -0.1546 -0.4953  0.3624
28231SOL    HW191554   3.160   7.510   2.615 -1.8179 -0.5261 -0.6509
28231SOL    HW291555   3.056   7.595   2.685 -1.5295 -1.3657  0.8484
28232SOL     OW91556   5.070  10.993   1.032  0.2855 -0.3286 -0.3442
28232SOL    HW191557   5.143  11.028   0.981  1.5382 -1.1939  0.7738
28232SOL    HW291558   5.069  11.046   1.112 -0.3353 -0.3126 -0.3547
28233SOL     OW91559  11.977   7.672   1.075 -0.4671 -0.1278 -0.1096
28233SOL    HW191560  12.020   7.600   1.029  2.4435  1.2670  0.2455
28233SOL    HW291561  11.972   7.742   1.010 -1.7037 -0.0371  0.0557
28234SOL     OW91562   4.143   9.952   1.115 -0.1393 -0.0955 -0.0464
28234SOL    HW191563   4.228   9.932   1.154  0.8062  1.2041 -1.3563
28234SOL    HW291564   4.119  10.037   1.152  0.2788  0.6609 -1.4523
28235SOL     OW91565   4.919  10.242   6.575  0.6621  0.2210 -0.3329
28235SOL    HW191566   4.945  10.251   6.483 -0.7391 -0.8974 -0.8777
28235SOL    HW291567   4.940  10.327   6.614  0.7692  0.9181 -1.8235
28236SOL     OW91568   6.977  10.687   4.060 -0.0368 -0.1119 -0.3503
28236SOL    HW191569   6.897  10.721   4.101  0.1501 -0.5393  0.3839
28236SOL    HW291570   7.024  10.766   4.032 -0.2083  0.1896  0.1803
28237SOL     OW91571  10.498   5.470   9.385  0.1019 -0.0714 -0.1191
28237SOL    HW191572  10.515   5.508   9.298 -0.4060  1.2814  0.3609
28237SOL    HW291573  10.426   5.521   9.420 -1.0102 -1.8713  0.3350
28238SOL     OW91574   9.072   0.139  10.920  0.2145 -0.3200 -0.1959
28238SOL    HW191575   8.989   0.093  10.905 -0.1990  0.4293 -0.2607
28238SOL    HW291576   9.067   0.167  11.012  0.3456 -0.1721 -0.2337
28239SOL     OW91577   9.171  10.026   6.793  0.0704  0.6928  0.3373
28239SOL    HW191578   9.076  10.031   6.787 -0.0387  0.4392  1.6055
28239SOL    HW291579   9.194   9.949   6.741 -0.6758 -0.7461  2.0364
28240SOL     OW91580   1.286   4.665   6.897  0.5415 -0.2368  0.0113
28240SOL    HW191581   1.197   4.700   6.908  0.2190 -0.8919 -0.4044
28240SOL    HW291582   1.324   4.667   6.985 -0.0690 -0.4088  0.2850
28241SOL     OW91583  11.406   0.745  11.591  0.1238 -0.1584 -0.6862
28241SOL    HW191584  11.435   0.654  11.598  1.1392  0.1889 -0.2307
28241SOL    HW291585  11.486   0.794  11.573 -0.3460  0.7092 -0.4561
28242SOL     OW91586   3.875   3.602   5.721 -0.3813 -0.0728 -0.0451
28242SOL    HW191587   3.867   3.687   5.765 -0.5025  0.4553 -1.0486
28242SOL    HW291588   3.887   3.539   5.792 -0.3912  0.7703  0.7248
28243SOL     OW91589   2.724  11.746   9.874  0.0193 -0.0944 -0.7514
28243SOL    HW191590   2.653  11.758   9.810 -0.5761 -0.4758 -0.1748
28243SOL    HW291591   2.712  11.657   9.907  0.4335  0.0329 -0.2479
28244SOL     OW91592   6.880   4.766   3.910  0.0869  0.4222 -0.3860
28244SOL    HW191593   6.859   4.858   3.892 -2.2583  0.1186  0.3883
28244SOL    HW291594   6.848   4.719   3.833 -0.0214  0.1297 -0.1651
28245SOL     OW91595   7.170   6.860   8.948  0.1961  0.4422  0.2345
28245SOL    HW191596   7.260   6.866   8.980  0.5289  1.8643 -0.8653
28245SOL    HW291597   7.166   6.775   8.903  0.7894  0.0820  0.8454
28246SOL     OW91598  10.520   0.711   2.900  0.3858 -0.7016 -0.1385
28246SOL    HW191599  10.449   0.647   2.898 -0.0137 -0.2592 -1.1453
28246SOL    HW291600  10.563   0.701   2.815  0.5394  0.1167 -0.1652
28247SOL     OW91601  11.040  12.455   6.197  0.2591 -0.4669 -0.0218
28247SOL    HW191602  11.025  12.467   6.103 -0.5082 -0.9639  0.0310
28247SOL    HW291603  11.077  12.368   6.205  1.0865 -0.1148  0.0703
28248SOL     OW91604   6.056   4.004   6.776  0.3234  0.1828 -0.1791
28248SOL    HW191605   6.057   3.910   6.788  1.2372 -0.0602 -1.8598
28248SOL    HW291606   6.148   4.031   6.781  0.0171  1.1412  1.1209
28249SOL     OW91607   1.965   3.272   8.423  0.1109  0.7061  0.6400
28249SOL    HW191608   1.953   3.239   8.334 -0.8983  0.9317  0.6770
28249SOL    HW291609   2.047   3.322   8.420  0.4795  0.0729  0.0342
28250SOL     OW91610   6.706   4.447   4.832 -0.3128  0.0696 -0.0125
28250SOL    HW191611   6.761   4.479   4.761  1.5242 -1.1753  0.7754
28250SOL    HW291612   6.656   4.375   4.794  1.8193 -1.6413  0.2568
28251SOL     OW91613   5.666   2.510   3.648 -0.2544 -0.0035  0.3488
28251SOL    HW191614   5.638   2.464   3.569  3.6643 -0.3991 -0.9921
28251SOL    HW291615   5.649   2.602   3.630 -0.6660 -0.2063 -0.3315
28252SOL     OW91616   0.513  10.911   3.091  0.2073 -0.0339 -0.3143
28252SOL    HW191617   0.607  10.899   3.101  0.2310  0.3586 -0.0644
28252SOL    HW291618   0.483  10.941   3.177 -0.2234 -0.6300 -0.2445
28253SOL     OW91619   3.801  10.241  12.216 -0.2221  0.1870  0.4865
28253SOL    HW191620   3.715  10.201  12.199  0.6438 -1.1680 -1.0125
28253SOL    HW291621   3.812  10.235  12.311 -0.0431 -3.5298  0.3719
28254SOL     OW91622  10.542   7.575   8.989  0.2160 -0.6816 -0.1446
28254SOL    HW191623  10.483   7.587   9.064 -0.6206  1.0502 -1.0103
28254SOL    HW291624  10.496   7.513   8.932 -0.4931  0.1500 -0.5046
28255SOL     OW91625   0.147   7.484   3.531  0.5644  0.0367  0.0269
28255SOL    HW191626   0.073   7.534   3.495  0.2087 -1.3615 -1.2946
28255SOL    HW291627   0.147   7.403   3.481 -0.2001 -2.2996  3.4588
28256SOL     OW91628   2.779   7.451  10.340 -0.0580 -0.0023  0.2545
28256SOL    HW191629   2.776   7.532  10.391 -1.5946 -0.1849  0.5005
28256SOL    HW291630   2.802   7.478  10.251  1.9770  0.3929  0.8410
28257SOL     OW91631  10.117   2.219   5.784  0.1882 -0.1199  0.4930
28257SOL    HW191632  10.071   2.171   5.715  0.4254 -0.3721  0.5068
28257SOL    HW291633  10.208   2.222   5.754  0.4378 -0.8681  1.1367
28258SOL     OW91634  12.431   8.091   3.053 -0.4308 -0.4446 -0.0117
28258SOL    HW191635  12.352   8.043   3.030 -0.4877 -0.4558  0.2050
28258SOL    HW291636  12.495   8.023   3.073 -0.5624 -0.4328  0.4656
28259SOL     OW91637   5.105   4.017   5.412  0.3401 -0.2683 -0.3086
28259SOL    HW191638   5.023   3.970   5.427  0.0243 -0.0464 -1.2632
28259SOL    HW291639   5.137   4.039   5.499 -1.7271  1.5431  0.0707
28260SOL     OW91640   5.164   3.501   5.267  0.2132 -0.0766  0.8308
28260SOL    HW191641   5.074   3.523   5.242  0.1102 -1.4627 -0.1148
28260SOL    HW291642   5.200   3.583   5.302 -1.3921  0.5085  1.1945
28261SOL     OW91643   5.172   0.791  12.034  0.0136  0.2370  0.0684
28261SOL    HW191644   5.125   0.720  12.078  0.3615 -0.1499 -0.1854
28261SOL    HW291645   5.248   0.808  12.090 -0.3255  0.7442  0.3841
28262SOL     OW91646   3.662  11.937   3.634 -0.0460 -0.5147  0.6841
28262SOL    HW191647   3.592  12.002   3.641  0.2608 -0.1945  0.8716
28262SOL    HW291648   3.618  11.853   3.632 -0.4428 -0.3070  0.6470
28263SOL     OW91649   9.462  10.021  11.261 -0.3323 -0.2721 -0.1529
28263SOL    HW191650   9.464  10.011  11.165 -0.4966 -0.7860 -0.1077
28263SOL    HW291651   9.517  10.097  11.279  0.8880 -1.0423 -0.5360
28264SOL     OW91652   4.674   9.958   1.014 -0.2486 -0.3296 -0.1874
28264SOL    HW191653   4.619   9.881   0.998 -0.2160 -0.6172  0.9590
28264SOL    HW291654   4.755   9.921   1.051 -0.7547  0.3192  1.6558
28265SOL     OW91655   2.518   9.597   2.981 -0.2004  1.1122  0.0999
28265SOL    HW191656   2.539   9.504   2.983  0.7745  1.2703 -1.1404
28265SOL    HW291657   2.600   9.640   3.007 -0.4454  1.6277  0.0342
28266SOL     OW91658   0.293   1.066  11.593  0.5102 -0.0063 -0.2658
28266SOL    HW191659   0.251   1.111  11.667  1.3855  0.4852 -0.0567
28266SOL    HW291660   0.302   1.134  11.526  1.7314  0.1277  0.0075
28267SOL     OW91661   0.095  10.100   5.045  0.1416 -0.2893  0.0323
28267SOL    HW191662   0.022  10.038   5.040 -0.1542  0.0769 -0.2520
28267SOL    HW291663   0.056  10.184   5.019  0.4907  0.0525  0.5976
28268SOL     OW91664   6.807   2.434   6.652  0.2161 -0.0377 -0.3835
28268SOL    HW191665   6.852   2.485   6.720  0.5482  0.2006 -0.7823
28268SOL    HW291666   6.720   2.418   6.689 -0.0340  1.1477 -0.4104
28269SOL     OW91667   2.884   8.275   4.576 -0.1492  0.1186 -0.4652
28269SOL    HW191668   2.976   8.294   4.559 -0.1768  1.1593  0.4763
28269SOL    HW291669   2.885   8.215   4.650 -0.2650  2.0404  1.1696
28270SOL     OW91670   5.101  10.853   8.609 -0.1372 -0.1733  0.4802
28270SOL    HW191671   5.020  10.804   8.614 -0.1247 -0.5519 -1.9239
28270SOL    HW291672   5.166  10.791   8.575  0.6169  0.6720  0.3037
28271SOL     OW91673   8.756   0.868  11.956 -0.5153 -0.0412 -0.4963
28271SOL    HW191674   8.758   0.964  11.964  0.7830 -0.0917 -0.0251
28271SOL    HW291675   8.751   0.837  12.046 -1.1555 -0.4256 -0.6590
28272SOL     OW91676   7.061  10.949   8.694 -0.0288 -0.2180 -0.2411
28272SOL    HW191677   7.000  11.020   8.672 -0.4056  0.0305  1.4791
28272SOL    HW291678   7.123  10.989   8.755  0.8076 -0.9416 -0.5906
28273SOL     OW91679   0.398   0.424   6.659  0.2175  0.0794  0.3734
28273SOL    HW191680   0.434   0.383   6.580  1.4878 -1.9433  1.9126
28273SOL    HW291681   0.466   0.414   6.725 -1.7051 -0.4273  2.4064
28274SOL     OW91682   3.537   0.007   2.402 -0.3481 -0.2586  0.1910
28274SOL    HW191683   3.632   0.008   2.398 -0.3542  1.1260  0.1807
28274SOL    HW291684   3.513   0.091   2.441 -1.4934 -1.3515  1.9627
28275SOL     OW91685  10.172   5.147   7.296 -0.1898  0.0172  0.0410
28275SOL    HW191686  10.263   5.169   7.315 -0.0478 -0.9596  0.5629
28275SOL    HW291687  10.130   5.143   7.381 -0.3183 -1.1753 -0.0537
28276SOL     OW91688   8.291   0.459   7.885 -0.1140  0.0549 -0.1538
28276SOL    HW191689   8.328   0.500   7.963  0.8802  0.1018 -0.6307
28276SOL    HW291690   8.301   0.525   7.816  1.0993 -0.7818 -0.8246
28277SOL     OW91691   6.265   2.058   2.240 -0.1370 -0.1739 -0.0287
28277SOL    HW191692   6.192   2.059   2.301  0.2612  0.0547  0.4503
28277SOL    HW291693   6.317   1.982   2.266 -1.4090 -1.7509 -1.8341
28278SOL     OW91694   0.061   0.831   3.902 -0.4793 -0.1204 -0.1302
28278SOL    HW191695   0.068   0.920   3.866  1.5324 -0.0550  0.3417
28278SOL    HW291696  -0.028   0.804   3.880 -0.1481  0.8367 -2.9898
28279SOL     OW91697  11.576   0.211   3.308 -0.1641  0.2594  0.6202
28279SOL    HW191698  11.571   0.139   3.245  2.8442 -0.1284  0.6542
28279SOL    HW291699  11.625   0.279   3.261 -1.2775  1.5363  1.2590
28280SOL     OW91700  11.451   2.055   6.075 -0.2847  0.0463 -0.1101
28280SOL    HW191701  11.410   1.969   6.085 -0.5686  0.3800  2.0394
28280SOL    HW291702  11.545   2.039   6.089 -0.4839  0.2531  1.5599
28281SOL     OW91703   7.416   4.128   7.235 -0.5029  0.3284 -0.5492
28281SOL    HW191704   7.466   4.201   7.199  0.9651 -0.0619  0.6115
28281SOL    HW291705   7.325   4.156   7.229  0.0640  3.8482  3.0652
28282SOL     OW91706   5.614   4.351   9.762  0.1464  0.0758 -0.2173
28282SOL    HW191707   5.599   4.444   9.779 -2.8711  0.1434 -2.4278
28282SOL    HW291708   5.561   4.306   9.828  0.9948 -0.1008  0.3628
28283SOL     OW91709   3.393   2.860   4.818 -0.4553  0.0832  0.6576
28283SOL    HW191710   3.342   2.800   4.874  1.3908 -0.6437  1.6610
28283SOL    HW291711   3.369   2.835   4.729 -0.9220 -1.0814  1.0798
28284SOL     OW91712   1.548   1.822   2.247 -0.3854  0.4747 -0.5420
28284SOL    HW191713   1.557   1.905   2.293  0.7799  1.0308 -1.7197
28284SOL    HW291714   1.611   1.827   2.175 -1.1829 -0.9161 -1.3891
28285SOL     OW91715   3.356   7.274   7.583  0.3922  0.0526  0.5440
28285SOL    HW191716   3.417   7.226   7.640  0.4513 -0.7861 -0.2112
28285SOL    HW291717   3.347   7.360   7.625  0.5871 -0.4765  1.7094
28286SOL     OW91718   2.509   6.421   5.360  0.2914  0.5401  0.7161
28286SOL    HW191719   2.487   6.478   5.286 -1.3905  0.3783  1.0603
28286SOL    HW291720   2.586   6.462   5.399  0.6794  1.1233 -0.5787
28287SOL     OW91721   8.187   8.821  10.889  0.0634  0.1088 -0.1139
28287SOL    HW191722   8.205   8.766  10.965  0.3555 -1.0588 -1.0051
28287SOL    HW291723   8.257   8.802  10.827 -0.7176  0.2821 -1.0873
28288SOL     OW91724  10.787   2.180  10.820  0.1159 -0.3342 -0.2099
28288SOL    HW191725  10.830   2.217  10.743 -2.6150  2.7794 -0.4633
28288SOL    HW291726  10.791   2.085  10.806  2.3355 -0.0136 -2.6244
28289SOL     OW91727   2.906   4.167   0.217 -0.6903 -0.0102 -0.3082
28289SOL    HW191728   2.866   4.140   0.135 -0.3740 -1.6453  0.0330
28289SOL    HW291729   2.923   4.085   0.264  0.5191  0.7839  0.7329
28290SOL     OW91730   2.796   6.015   9.138 -0.2299 -0.6177  0.6907
28290SOL    HW191731   2.865   6.081   9.128 -0.2583 -0.4654  1.4155
28290SOL    HW291732   2.717   6.060   9.109 -0.4252  0.0379  2.1078
28291SOL     OW91733   5.053   6.173   4.484  0.7262  0.1629  0.1274
28291SOL    HW191734   5.144   6.195   4.462  0.5052  0.2214 -0.7599
28291SOL    HW291735   5.002   6.208   4.412 -0.1356  1.1666  1.1897
28292SOL     OW91736   3.200   8.432  11.493 -0.2588 -0.6558  0.4365
28292SOL    HW191737   3.266   8.370  11.525  0.3786 -0.7670 -1.0111
28292SOL    HW291738   3.251   8.502  11.452 -0.9797 -1.4764 -2.0741
28293SOL     OW91739   2.284  11.112   0.448  0.0474 -0.5078  0.2595
28293SOL    HW191740   2.204  11.162   0.433 -0.7944 -1.7378  0.5005
28293SOL    HW291741   2.255  11.037   0.499  1.4557 -0.7081  0.7910
28294SOL     OW91742   2.518   6.865   2.869 -0.1473  0.1799  0.1338
28294SOL    HW191743   2.444   6.910   2.910 -2.6892 -1.2663 -2.4927
28294SOL    HW291744   2.593   6.924   2.883 -2.5405  3.5955 -0.2632
28295SOL     OW91745  10.940   4.234   0.824  0.8939  0.1605 -0.0193
28295SOL    HW191746  10.973   4.213   0.736  0.6052 -1.1919  0.1820
28295SOL    HW291747  10.987   4.175   0.882 -0.8961 -0.9080  0.4217
28296SOL     OW91748   4.091   5.999  12.425  0.2381 -0.5646 -0.3061
28296SOL    HW191749   4.015   6.032  12.377  0.5194 -0.6323 -0.8028
28296SOL    HW291750   4.055   5.969  12.509 -0.0367  0.9318  0.1380
28297SOL     OW91751   1.518   6.666  12.318  0.2507 -0.0016 -0.7104
28297SOL    HW191752   1.469   6.699  12.394 -0.0717 -1.6944 -0.1393
28297SOL    HW291753   1.522   6.740  12.258 -1.1155  0.8256  0.1671
28298SOL     OW91754   0.119   3.518  11.831  0.4269 -0.4251 -0.3977
28298SOL    HW191755   0.151   3.483  11.914 -0.9184 -0.0722  0.3056
28298SOL    HW291756   0.024   3.502  11.834  0.2593  0.2763 -1.5358
28299SOL     OW91757   3.282   8.742   5.052  1.0708 -0.4589 -0.0765
28299SOL    HW191758   3.342   8.696   5.111  0.6143 -1.6891 -0.5492
28299SOL    HW291759   3.199   8.697   5.062  0.1602  1.2765  0.6198
28300SOL     OW91760   5.158   0.146   5.415 -0.0173  0.3445  0.2698
28300SOL    HW191761   5.140   0.240   5.424  0.5139  0.8372 -2.7292
28300SOL    HW291762   5.109   0.120   5.337  0.7038 -1.6330  0.4343
28301SOL     OW91763  10.944   2.195   9.997 -0.9267  0.6023  0.1140
28301SOL    HW191764  10.932   2.171  10.089 -0.1309  0.6560  0.2413
28301SOL    HW291765  10.995   2.276  10.000 -1.5631  1.0305 -0.3627
28302SOL     OW91766   0.242   8.878   0.180 -0.3110  0.3558  0.0253
28302SOL    HW191767   0.277   8.832   0.104 -1.0360  0.4267 -0.3673
28302SOL    HW291768   0.300   8.855   0.252  1.5936  1.8359 -0.9275
28303SOL     OW91769   1.208   0.771  12.358  0.1273 -0.2045  0.5377
28303SOL    HW191770   1.177   0.862  12.359  1.8025  0.4286 -0.8533
28303SOL    HW291771   1.140   0.723  12.404 -1.3316  1.5823  0.3759
28304SOL     OW91772   5.907   8.068   8.677 -0.7356  0.0498 -0.5317
28304SOL    HW191773   5.921   7.978   8.707 -4.2450 -1.1588 -1.8583
28304SOL    HW291774   5.893   8.119   8.756 -0.4566 -0.9639  0.1829
28305SOL     OW91775   1.486   2.897   5.225  0.1399 -0.1859 -0.0673
28305SOL    HW191776   1.534   2.969   5.267 -1.7777  0.4905  1.0631
28305SOL    HW291777   1.483   2.828   5.291 -0.7345 -0.0840  0.0069
28306SOL     OW91778  10.224   3.268   2.857  0.4498  0.6350  0.0288
28306SOL    HW191779  10.260   3.296   2.941  0.5280  1.7375 -0.3598
28306SOL    HW291780  10.130   3.286   2.863 -0.0082 -1.5951  0.7781
28307SOL     OW91781   5.429   6.189   9.500 -0.6128 -0.2419  0.1715
28307SOL    HW191782   5.444   6.244   9.424  0.5206 -0.0228  0.5483
28307SOL    HW291783   5.341   6.152   9.485 -0.8683  0.6707 -0.6800
28308SOL     OW91784   0.013   0.566   2.477  0.3148 -0.3803 -0.6908
28308SOL    HW191785  -0.079   0.592   2.469 -0.1237 -1.4880  0.5431
28308SOL    HW291786   0.011   0.487   2.530  1.9889 -0.4718 -0.7322
28309SOL     OW91787   5.310   9.252  10.390  0.4340 -0.0287  0.2112
28309SOL    HW191788   5.269   9.276  10.307 -1.2354 -1.2076  0.6419
28309SOL    HW291789   5.256   9.297  10.456  1.6940  0.8359  0.6870
28310SOL     OW91790   5.179   3.417  11.468 -0.1190  0.4422 -0.4473
28310SOL    HW191791   5.254   3.461  11.508 -0.1688 -0.1142  0.2688
28310SOL    HW291792   5.111   3.420  11.535 -0.3683 -0.0601 -0.6705
28311SOL     OW91793  10.887   4.329   2.372  0.0534 -0.0405  0.2255
28311SOL    HW191794  10.933   4.253   2.336 -0.8658 -0.5763  0.1504
28311SOL    HW291795  10.940   4.356   2.447  0.7323 -0.3554 -0.1278
28312SOL     OW91796   6.613   2.545  11.581  0.3213  0.2349  0.1949
28312SOL    HW191797   6.613   2.460  11.624 -0.5863  0.2479  0.2427
28312SOL    HW291798   6.685   2.540  11.519  1.8014  0.2974  1.8390
28313SOL     OW91799  10.100   2.650   6.372 -0.0006  0.3633  0.4916
28313SOL    HW191800  10.061   2.633   6.286  1.2523  1.0131 -0.2300
28313SOL    HW291801  10.127   2.564   6.403  1.1574  0.3157 -0.5809
28314SOL     OW91802   9.593   7.391   6.961 -0.1647 -0.2771 -0.2239
28314SOL    HW191803   9.653   7.454   6.921  0.9630 -0.8115  0.6053
28314SOL    HW291804   9.582   7.421   7.051 -0.4834 -0.6624 -0.1298
28315SOL     OW91805   6.607   7.670  11.593 -0.3170 -0.5485  0.0637
28315SOL    HW191806   6.512   7.660  11.591 -0.4627  0.4416  0.9250
28315SOL    HW291807   6.632   7.644  11.681 -0.1943  1.9931  0.8582
28316SOL     OW91808   0.298   6.956   8.815  0.1289  0.2674 -0.1905
28316SOL    HW191809   0.218   6.912   8.786 -0.2417  1.2832 -0.7826
28316SOL    HW291810   0.345   6.890   8.866  0.3518 -1.3388 -2.3201
28317SOL     OW91811   5.480   8.651   1.651  0.5777 -0.3533  0.1025
28317SOL    HW191812   5.526   8.590   1.709  1.3314  1.0815  1.0772
28317SOL    HW291813   5.517   8.634   1.564 -0.3540 -2.3351  0.0375
28318SOL     OW91814   6.881   2.332   4.770  0.5673  0.0618  0.3453
28318SOL    HW191815   6.841   2.308   4.853  0.6744  0.7663  0.6050
28318SOL    HW291816   6.964   2.284   4.769 -0.0707 -1.0927 -0.0202
28319SOL     OW91817   8.212   1.846   7.460  0.0176 -0.4060 -0.2051
28319SOL    HW191818   8.185   1.879   7.546 -0.8323 -1.9158  0.1511
28319SOL    HW291819   8.130   1.826   7.415  0.4443 -2.3710 -0.2195
28320SOL     OW91820   4.334   2.513   2.538 -0.0254  0.3908  0.5930
28320SOL    HW191821   4.415   2.531   2.491 -0.3495  2.0112  0.6159
28320SOL    HW291822   4.265   2.527   2.473 -0.3075 -1.5033  0.4180
28321SOL     OW91823  11.818   5.239   6.025 -0.1708  0.2803  0.2973
28321SOL    HW191824  11.883   5.253   5.956  1.2679  2.8412  1.9923
28321SOL    HW291825  11.742   5.288   5.996  0.4232  1.3344  0.4587
28322SOL     OW91826   3.894   1.847   9.263  0.1609 -0.5053  0.0167
28322SOL    HW191827   3.863   1.893   9.184 -0.1115 -0.8915 -0.1004
28322SOL    HW291828   3.912   1.918   9.325  0.1250 -0.2111 -0.3027
28323SOL     OW91829   0.559   4.598   8.013  0.2536  0.6435  0.1104
28323SOL    HW191830   0.540   4.506   7.997 -2.1497  1.0641  0.2437
28323SOL    HW291831   0.607   4.626   7.935 -0.9981 -0.1956 -1.0102
28324SOL     OW91832   0.740   4.517   4.408 -0.2096  0.0940  1.0202
28324SOL    HW191833   0.775   4.525   4.496 -1.5367  0.6928  1.5218
28324SOL    HW291834   0.703   4.603   4.389 -1.0136 -0.3777  0.3669
28325SOL     OW91835   1.503   3.024   2.619 -0.0435  0.3159 -0.3403
28325SOL    HW191836   1.506   2.970   2.541 -1.6372  0.5045 -0.5601
28325SOL    HW291837   1.531   3.111   2.589  0.0236  0.2215 -0.5522
28326SOL     OW91838   3.915   1.973   8.986  0.0613  0.2125 -0.1240
28326SOL    HW191839   3.828   1.987   8.949  0.3376  0.9420 -0.5078
28326SOL    HW291840   3.975   1.986   8.913  0.5310  0.2835  0.2684
28327SOL     OW91841   2.465   1.794   9.149 -0.0191  0.1799  0.0149
28327SOL    HW191842   2.429   1.880   9.173 -0.3607  0.3699 -1.0934
28327SOL    HW291843   2.533   1.814   9.084 -1.9053 -0.4853 -2.3183
28328SOL     OW91844  11.188  10.285   7.557  0.2889 -0.7854 -0.1956
28328SOL    HW191845  11.212  10.193   7.547 -0.0556 -0.7229 -1.8556
28328SOL    HW291846  11.135  10.287   7.637  0.0023 -2.0956 -0.3294
28329SOL     OW91847   7.932   4.897   7.532  0.5857 -0.2826 -0.3295
28329SOL    HW191848   8.015   4.849   7.537  0.5563 -0.2272  3.3669
28329SOL    HW291849   7.913   4.923   7.623 -1.4587  3.2491 -1.5407
28330SOL     OW91850   4.604   0.000   6.526 -0.5477  0.1558  0.0529
28330SOL    HW191851   4.692  -0.029   6.552 -0.1388  0.3260 -1.1157
28330SOL    HW291852   4.613   0.095   6.515 -1.4958  0.5732  2.3127
28331SOL     OW91853   3.557   9.248   2.802  0.0011 -0.2493  0.9848
28331SOL    HW191854   3.558   9.185   2.730 -0.8493 -0.2716  0.9836
28331SOL    HW291855   3.574   9.333   2.761  0.3431 -0.3727  0.8739
28332SOL     OW91856   9.195   9.589   9.457  0.0458 -0.4351 -0.2683
28332SOL    HW191857   9.149   9.673   9.460  1.1766  0.1854  0.8393
28332SOL    HW291858   9.260   9.599   9.388  0.0867 -0.4484 -0.2321
28333SOL     OW91859   6.847   4.034   7.748  0.2518  0.0764  0.1424
28333SOL    HW191860   6.830   4.102   7.683 -0.0710 -0.3297 -0.2049
28333SOL    HW291861   6.835   4.078   7.832 -1.2583  0.1332 -0.0834
28334SOL     OW91862   1.569   9.325   8.675  0.4895  0.1372  0.1499
28334SOL    HW191863   1.508   9.390   8.710  0.6837  0.7872 -0.6820
28334SOL    HW291864   1.646   9.331   8.731  0.5032  0.6238  0.0838
28335SOL     OW91865   5.131   7.399   4.350  0.2759 -0.1195 -0.3478
28335SOL    HW191866   5.160   7.450   4.275 -0.5630 -0.6508 -1.0549
28335SOL    HW291867   5.212   7.373   4.395  0.7397  1.1478 -0.4149
28336SOL     OW91868  10.040  11.022   1.511  0.5613 -0.0614 -0.2327
28336SOL    HW191869   9.961  11.067   1.543  1.5560  0.4303  1.7153
28336SOL    HW291870  10.103  11.092   1.495  0.3379 -0.3569 -2.8330
28337SOL     OW91871   4.199   1.416   8.739  0.3152 -0.3441  0.3424
28337SOL    HW191872   4.146   1.381   8.811  0.1219  0.0011  0.3672
28337SOL    HW291873   4.192   1.511   8.748  1.2804 -0.2858  0.5980
28338SOL     OW91874   1.303   2.003   6.998 -0.3445  0.1684 -0.5099
28338SOL    HW191875   1.265   1.934   7.052 -0.5731 -0.2456 -1.1774
28338SOL    HW291876   1.230   2.058   6.973 -0.0147  1.2486  0.8387
28339SOL     OW91877   7.750   9.285  10.195 -0.4291 -0.4419  0.3866
28339SOL    HW191878   7.757   9.373  10.157  0.5458 -0.3861  0.6601
28339SOL    HW291879   7.841   9.255  10.200 -0.8560 -2.6818 -2.5243
28340SOL     OW91880   1.770   2.599   0.479  0.1967 -0.2165  0.0227
28340SOL    HW191881   1.718   2.570   0.554  0.0168  0.9815  0.3847
28340SOL    HW291882   1.706   2.624   0.413  0.3542 -1.7504 -0.7555
28341SOL     OW91883   3.617   4.127   7.522 -0.0182  0.2802  0.2356
28341SOL    HW191884   3.690   4.157   7.469  0.2681 -0.8873 -0.0622
28341SOL    HW291885   3.647   4.044   7.560 -1.0200 -0.0105  0.4352
28342SOL     OW91886   2.438   1.119  10.326 -0.6170  0.5369 -0.3127
28342SOL    HW191887   2.443   1.213  10.341 -1.5766  0.6218 -0.4538
28342SOL    HW291888   2.522   1.096  10.285  1.6038  0.5074  3.7592
28343SOL     OW91889  12.022   8.461   6.730 -0.2740 -0.2499 -0.1477
28343SOL    HW191890  12.100   8.483   6.679 -1.5290 -1.5459 -2.8235
28343SOL    HW291891  12.016   8.365   6.725  0.1128 -0.5973  3.4834
28344SOL     OW91892   1.496   8.200   9.761 -0.7918  0.5086  0.4175
28344SOL    HW191893   1.520   8.252   9.838 -0.2572 -0.9482  1.2959
28344SOL    HW291894   1.441   8.129   9.797 -0.9315  0.0771 -0.6154
28345SOL     OW91895   4.067  10.572   3.120  0.0846  0.4205  0.2384
28345SOL    HW191896   4.145  10.553   3.173 -0.4003 -0.7116  0.5907
28345SOL    HW291897   4.045  10.662   3.141  1.1528  0.6722  0.3253
28346SOL     OW91898  11.019   9.701   9.995  0.3725  0.0476  0.1887
28346SOL    HW191899  11.016   9.743  10.081  0.2588 -0.8144  0.6134
28346SOL    HW291900  11.111   9.682   9.981  0.2171 -1.5334  0.9981
28347SOL     OW91901  10.569   0.254   8.357  0.2888  0.4640 -0.9437
28347SOL    HW191902  10.601   0.273   8.445 -0.2341 -0.8214 -0.4478
28347SOL    HW291903  10.644   0.218   8.310  0.4125  0.5794 -0.8296
28348SOL     OW91904   9.313   4.353  11.912  0.2487 -0.6562 -0.7187
28348SOL    HW191905   9.242   4.292  11.933 -0.7151  0.3727 -0.9058
28348SOL    HW291906   9.308   4.363  11.818  0.0597  0.1190 -0.6272
28349SOL     OW91907   7.700   4.803   6.824 -0.1427 -0.2452 -0.1831
28349SOL    HW191908   7.709   4.758   6.739 -1.5395  0.2059 -0.5913
28349SOL    HW291909   7.790   4.814   6.854  0.3888 -0.3668 -1.6331
28350SOL     OW91910  11.119  10.056   2.649 -0.0495 -0.2059  0.9391
28350SOL    HW191911  11.172  10.132   2.625  0.8184 -0.7444  1.0994
28350SOL    HW291912  11.034  10.092   2.672  0.2234  0.6713  0.5941
28351SOL     OW91913  10.738   9.331   3.877 -0.2596  0.6668 -0.0778
28351SOL    HW191914  10.752   9.247   3.922 -0.3887  0.0572 -1.1246
28351SOL    HW291915  10.643   9.342   3.875 -0.2539  0.6975 -0.1831
28352SOL     OW91916   5.360   1.050   7.273  0.2167 -0.4410  0.3702
28352SOL    HW191917   5.337   0.969   7.317 -0.5916  0.7633  2.3047
28352SOL    HW291918   5.278   1.081   7.235  0.1984  0.1759  0.8937
28353SOL     OW91919   5.116   5.153   3.065  0.1605 -0.2022  0.2191
28353SOL    HW191920   5.129   5.074   3.013 -0.8359  0.1646 -0.6244
28353SOL    HW291921   5.033   5.140   3.110 -0.4448  0.6908 -0.5956
28354SOL     OW91922   8.035   9.760  11.492  0.0834  0.1327  0.2232
28354SOL    HW191923   8.122   9.777  11.455 -0.3082  1.7246 -0.0494
28354SOL    HW291924   8.035   9.807  11.576 -0.2032 -0.6368  0.6635
28355SOL     OW91925   6.206  10.947   9.310  0.2386  0.1266 -0.5434
28355SOL    HW191926   6.215  10.963   9.404 -1.5172  1.2677 -0.5236
28355SOL    HW291927   6.112  10.956   9.293  0.0066 -3.1817 -1.8806
28356SOL     OW91928   9.420  12.296  11.021  0.6142 -0.0070  0.1615
28356SOL    HW191929   9.353  12.300  10.953 -0.3540  1.8338  1.1726
28356SOL    HW291930   9.436  12.202  11.032  0.0037 -0.3987 -1.7950
28357SOL     OW91931   0.910   8.931   3.660 -0.2207 -0.1168  0.5523
28357SOL    HW191932   0.838   8.963   3.715 -0.8030  0.4505 -0.5236
28357SOL    HW291933   0.867   8.889   3.586  0.5579  0.1161 -0.0377
28358SOL     OW91934  10.590   6.153   4.255 -0.8843 -0.3809  0.4327
28358SOL    HW191935  10.556   6.197   4.333  0.0758  0.1650  0.5619
28358SOL    HW291936  10.544   6.194   4.182 -1.4336 -0.5580  0.6713
28359SOL     OW91937   6.159   0.231  11.044  0.1511 -0.0266 -0.5574
28359SOL    HW191938   6.250   0.247  11.020  0.2112 -0.0901 -0.3726
28359SOL    HW291939   6.120   0.318  11.049  0.5129  0.0906  0.5913
28360SOL     OW91940   9.001   3.669  11.608 -0.2795 -0.1225 -0.6401
28360SOL    HW191941   8.934   3.685  11.674  0.8783 -0.6753  0.7260
28360SOL    HW291942   9.079   3.715  11.641  1.0464 -2.4802 -0.2616
28361SOL     OW91943   1.876   1.954   2.531 -0.9017  0.3267  0.5389
28361SOL    HW191944   1.927   1.968   2.610 -1.0189  0.5360  0.5779
28361SOL    HW291945   1.850   2.041   2.503  0.7126  0.4274 -0.7916
28362SOL     OW91946   2.815  12.127  10.656 -0.1157 -0.0729 -0.3318
28362SOL    HW191947   2.870  12.087  10.588 -0.4280 -0.0226 -0.6184
28362SOL    HW291948   2.822  12.221  10.639  0.1163 -0.0389 -0.0493
28363SOL     OW91949   6.589   5.529   5.699 -0.0458 -0.4789 -0.5996
28363SOL    HW191950   6.573   5.624   5.698 -0.6791 -0.5871 -0.8675
28363SOL    HW291951   6.504   5.490   5.681  0.6144 -1.0477 -2.7560
28364SOL     OW91952   6.950  10.688   4.823  0.5405  0.2753 -0.4479
28364SOL    HW191953   6.939  10.604   4.778  1.0470  0.5507 -1.0992
28364SOL    HW291954   6.952  10.666   4.916 -0.1286 -0.3464 -0.5748
28365SOL     OW91955   5.832  11.073   2.027  0.6205 -0.7695 -0.0897
28365SOL    HW191956   5.822  11.166   2.046 -0.3469 -0.8331 -0.2491
28365SOL    HW291957   5.754  11.049   1.977  0.1140 -1.9813  1.1975
28366SOL     OW91958   5.487   5.736   9.442 -0.1691  0.0279 -0.3023
28366SOL    HW191959   5.557   5.800   9.430 -0.3787  0.5960  1.3428
28366SOL    HW291960   5.495   5.677   9.366  0.1305  1.8713 -1.7674
28367SOL     OW91961   8.434   4.982   0.325 -0.4687  0.4509  0.6082
28367SOL    HW191962   8.446   5.065   0.279  1.0877  0.3363  0.7395
28367SOL    HW291963   8.443   4.915   0.258 -0.3742  0.3509  0.7198
28368SOL     OW91964  10.049  10.638   5.112  0.5400  0.4801 -0.6162
28368SOL    HW191965  10.028  10.573   5.045 -0.6125  1.8943 -1.6920
28368SOL    HW291966  10.144  10.635   5.119  0.5005 -1.7629 -0.1338
28369SOL     OW91967   5.737   7.743   7.643 -0.1084  0.3000 -0.0301
28369SOL    HW191968   5.694   7.809   7.589 -0.6012 -0.5431 -0.7086
28369SOL    HW291969   5.710   7.659   7.604  0.1557 -0.3117  1.0545
28370SOL     OW91970   3.389   6.647   5.673 -0.2413  0.3550 -0.4201
28370SOL    HW191971   3.298   6.673   5.687 -0.5459  0.2223 -1.9672
28370SOL    HW291972   3.385   6.586   5.599  1.0647  0.0235 -0.2384
28371SOL     OW91973   2.690   6.094   4.546  0.0772  0.3100 -0.8132
28371SOL    HW191974   2.774   6.107   4.501 -0.1542  2.5958 -0.7364
28371SOL    HW291975   2.635   6.166   4.515 -1.4740 -0.4678  0.0173
28372SOL     OW91976   3.698   2.448   9.056  0.0458 -0.1419  0.5996
28372SOL    HW191977   3.624   2.475   9.110  0.2505 -0.9506  1.3030
28372SOL    HW291978   3.673   2.472   8.966  0.5718  3.2114  1.1857
28373SOL     OW91979   9.829   9.149   8.396 -0.3794 -0.2298 -0.1691
28373SOL    HW191980   9.851   9.066   8.354 -0.1072  0.0951 -0.6817
28373SOL    HW291981   9.902   9.207   8.375 -0.4323  0.0602  0.4220
28374SOL     OW91982   7.826  11.844   0.783 -0.0570 -0.0063  0.2546
28374SOL    HW191983   7.774  11.768   0.807  0.8726  0.0742  2.7387
28374SOL    HW291984   7.912  11.828   0.820  1.2817  0.6507 -2.2942
28375SOL     OW91985   6.542  11.317  11.543 -0.4624  0.1020 -0.1224
28375SOL    HW191986   6.469  11.272  11.584 -0.1539  0.8218  1.2522
28375SOL    HW291987   6.620  11.275  11.580 -0.1791  0.6434 -0.0875
28376SOL     OW91988   6.124   5.400   9.231 -0.5267  0.3879 -0.0031
28376SOL    HW191989   6.187   5.330   9.250 -1.0672 -0.1374 -0.1055
28376SOL    HW291990   6.160   5.477   9.274 -0.0840 -0.0310  0.3885
28377SOL     OW91991   7.038   6.630   6.586  0.2189  0.1619  0.5830
28377SOL    HW191992   6.992   6.546   6.590  0.2037  0.0341 -1.5005
28377SOL    HW291993   6.971   6.694   6.612 -1.0472 -0.0902 -1.7848
28378SOL     OW91994   1.787   1.841   0.080 -0.2390  0.3463  0.1210
28378SOL    HW191995   1.835   1.905   0.132 -0.3915  0.3241  0.2946
28378SOL    HW291996   1.698   1.877   0.073  0.1871  1.1541 -1.5441
28379SOL     OW91997  12.346   9.586   9.208  0.2535 -0.3509 -0.1294
28379SOL    HW191998  12.349   9.682   9.200 -0.2510 -0.4055 -1.1160
28379SOL    HW291999  12.311   9.571   9.296 -0.8931  0.4009 -0.4200
28380SOL     OW92000   6.263   3.459  10.112 -0.0737  0.1740 -0.1266
28380SOL    HW192001   6.337   3.490  10.165  0.9019  0.8352 -1.8007
28380SOL    HW292002   6.303   3.415  10.038 -1.4259 -1.9997  0.3513
28381SOL     OW92003   2.900   2.824   9.971 -0.4503 -0.1773  0.3122
28381SOL    HW192004   2.812   2.850   9.943 -0.8676 -1.2724  0.5590
28381SOL    HW292005   2.943   2.906   9.994 -0.6225  0.6082 -1.9821
28382SOL     OW92006   5.512  11.478   5.195 -0.1190  0.6486  0.1677
28382SOL    HW192007   5.470  11.537   5.132  0.7266  1.5417  0.4283
28382SOL    HW292008   5.594  11.521   5.218  0.6703 -0.7935  0.1255
28383SOL     OW92009   3.538   7.163   7.075 -0.1634 -0.3422  0.0537
28383SOL    HW192010   3.502   7.250   7.091  0.5524  0.5470 -2.6354
28383SOL    HW292011   3.571   7.134   7.160 -0.4977  1.9702  1.0262
28384SOL     OW92012  11.943   0.036   1.699 -0.3166 -0.0037  0.2286
28384SOL    HW192013  12.033   0.051   1.671  0.2472 -1.2123  1.2794
28384SOL    HW292014  11.890   0.085   1.636  1.0388  0.3974 -0.6559
28385SOL     OW92015   5.748   2.500   5.836  0.0831 -0.4420 -0.0786
28385SOL    HW192016   5.832   2.524   5.795 -0.5252  0.2153 -0.9944
28385SOL    HW292017   5.707   2.584   5.855  0.3020 -0.7333  1.8665
28386SOL     OW92018   5.168   1.772   8.858 -0.1534 -0.1693 -0.1252
28386SOL    HW192019   5.114   1.766   8.779 -1.8601 -3.1280  1.1003
28386SOL    HW292020   5.221   1.692   8.857 -0.2332 -0.2817  1.7047
28387SOL     OW92021   5.835   9.098   4.786 -0.7365 -0.0853 -0.6646
28387SOL    HW192022   5.786   9.157   4.843  1.1407 -2.4164  3.8945
28387SOL    HW292023   5.788   9.015   4.790  1.8537 -1.6275  1.7011
28388SOL     OW92024   5.572  10.877   3.539  0.0907 -0.1633  0.6046
28388SOL    HW192025   5.642  10.834   3.490 -1.2728 -1.2621 -0.4719
28388SOL    HW292026   5.520  10.805   3.575 -1.3488  0.5618  0.0645
28389SOL     OW92027   0.343   5.337   3.700  0.2060 -0.2011 -0.2537
28389SOL    HW192028   0.425   5.361   3.743  0.0904  0.3703 -0.3431
28389SOL    HW292029   0.353   5.370   3.610 -0.4761  0.6607 -0.0200
28390SOL     OW92030   3.569   2.845  10.176  0.2055 -0.1330 -0.4495
28390SOL    HW192031   3.650   2.880  10.212 -0.2693 -0.1111  0.6287
28390SOL    HW292032   3.507   2.918  10.181 -0.1059 -0.3912 -0.4887
28391SOL     OW92033   8.234   6.233  10.810  0.1213  0.2501 -0.0958
28391SOL    HW192034   8.304   6.173  10.835  0.1697 -0.0593 -0.9595
28391SOL    HW292035   8.247   6.310  10.866  0.6703 -0.1300  0.3010
28392SOL     OW92036   7.745   1.717   9.780 -0.2156  0.1440 -0.4065
28392SOL    HW192037   7.777   1.634   9.814  2.7115  1.4079  0.2746
28392SOL    HW292038   7.654   1.700   9.755  0.4707 -3.3968 -0.9740
28393SOL     OW92039   3.890   0.693   0.533 -0.4560 -0.0273 -0.0519
28393SOL    HW192040   3.980   0.719   0.551  0.3555 -3.5208  1.8673
28393SOL    HW292041   3.854   0.670   0.619 -2.1979 -1.4765 -1.0908
28394SOL     OW92042   4.052   2.787   4.130  0.7674 -0.3908  0.1758
28394SOL    HW192043   4.009   2.858   4.083  2.3464  2.1157  2.2742
28394SOL    HW292044   3.992   2.713   4.122 -0.8300  1.0284 -2.3312
28395SOL     OW92045   7.194   0.924  10.940 -0.3803  0.3861 -0.0906
28395SOL    HW192046   7.180   0.916  10.846 -2.4106  0.6019  0.1542
28395SOL    HW292047   7.106   0.923  10.978  0.3294  1.4904  1.7147
28396SOL     OW92048   6.881   9.774   4.848  0.3275 -0.0741  0.1704
28396SOL    HW192049   6.913   9.732   4.928  1.0086 -1.3288 -0.7324
28396SOL    HW292050   6.958   9.817   4.812 -0.1694  1.2341  0.6140
28397SOL     OW92051   8.550   4.398   9.584 -0.1571  0.4815  0.7532
28397SOL    HW192052   8.491   4.330   9.614  0.8532 -1.3452 -1.1385
28397SOL    HW292053   8.582   4.440   9.664 -0.8547 -1.2140  1.9784
28398SOL     OW92054   9.112   1.536   6.251  0.0238  0.1347 -0.2111
28398SOL    HW192055   9.115   1.580   6.337 -2.7478 -0.0271  0.0863
28398SOL    HW292056   9.188   1.479   6.250 -0.1891 -0.3206  2.4436
28399SOL     OW92057   6.814   8.682  11.367  0.2565 -0.5885 -0.1853
28399SOL    HW192058   6.768   8.605  11.334 -1.8099  0.1591  0.7574
28399SOL    HW292059   6.795   8.750  11.302  0.9858 -0.5400 -0.3539
28400SOL     OW92060  11.214   0.947  10.903 -0.1726  0.2615  0.0244
28400SOL    HW192061  11.177   0.884  10.965 -0.3414 -1.2971 -1.5895
28400SOL    HW292062  11.269   0.894  10.845 -0.7456  1.5162 -1.7322
28401SOL     OW92063   3.896   6.121   3.655 -0.4773  0.2939  0.2821
28401SOL    HW192064   3.818   6.069   3.672  0.7147 -1.1189  1.7556
28401SOL    HW292065   3.957   6.098   3.725  1.1078  1.6999 -0.5336
28402SOL     OW92066   8.033   0.683   0.021  0.0308 -0.4007  0.0844
28402SOL    HW192067   8.099   0.615   0.033 -2.3773 -2.9877 -0.4215
28402SOL    HW292068   7.965   0.642  -0.032 -1.2493  2.6721 -0.8852
28403SOL     OW92069   8.162   6.698   3.787 -0.0509 -0.6484 -0.0847
28403SOL    HW192070   8.117   6.624   3.746 -0.9920  1.0118 -2.2838
28403SOL    HW292071   8.255   6.675   3.782 -0.3072 -1.5799 -0.9460
28404SOL     OW92072   0.014   3.061   5.146 -0.3818  0.1724  0.0835
28404SOL    HW192073   0.005   3.112   5.065  0.5086 -0.9743 -0.7730
28404SOL    HW292074   0.041   2.974   5.117 -2.5043 -1.0271  1.4518
28405SOL     OW92075   7.436  10.028  10.201  0.1491 -0.1183 -0.1970
28405SOL    HW192076   7.526  10.059  10.208  0.5544 -1.3259  0.2825
28405SOL    HW292077   7.386  10.105  10.175  1.0222  1.0363  1.3336
28406SOL     OW92078   1.825   9.052  10.718 -0.0753 -0.2162  0.0183
28406SOL    HW192079   1.858   8.977  10.768 -0.4871 -0.8508 -0.6343
28406SOL    HW292080   1.731   9.050  10.733 -0.0452  0.4299  0.3260
28407SOL     OW92081   5.138   8.081   6.916  0.4399 -0.0611  0.5389
28407SOL    HW192082   5.207   8.028   6.955 -0.4613 -2.7695 -1.2752
28407SOL    HW292083   5.104   8.028   6.844 -1.8945  2.2047 -0.2010
28408SOL     OW92084  10.010   8.513   4.304 -0.0474 -0.0415  0.0073
28408SOL    HW192085  10.074   8.443   4.317  1.8251  1.5747  0.0422
28408SOL    HW292086   9.980   8.535   4.392 -1.7388 -1.6642 -0.0907
28409SOL     OW92087   0.184  10.907   9.973 -0.0639  0.1580  0.3572
28409SOL    HW192088   0.249  10.839   9.958 -1.7598 -1.7132  1.0901
28409SOL    HW292089   0.233  10.989   9.969  1.9560 -1.0383 -1.1349
28410SOL     OW92090   7.607   5.457  10.869 -0.3795 -0.5863  0.2358
28410SOL    HW192091   7.571   5.450  10.957 -2.3078 -1.3616 -0.5673
28410SOL    HW292092   7.549   5.517  10.823  2.3740  2.3790  0.2620
28411SOL     OW92093   9.964   0.443   0.290  0.0538  0.8274 -0.2680
28411SOL    HW192094   9.916   0.427   0.208 -0.7975  1.6728  0.0476
28411SOL    HW292095   9.909   0.404   0.358  0.3214  0.9036 -0.0057
28412SOL     OW92096  10.100  12.237   1.726  0.4753 -0.0505 -0.6011
28412SOL    HW192097  10.054  12.282   1.654 -1.2322 -0.9900 -0.1553
28412SOL    HW292098  10.104  12.146   1.699  0.6116 -0.2588  0.1023
28413SOL     OW92099  10.775  11.132  10.468  0.8277  0.1050 -0.3469
28413SOL    HW192100  10.813  11.072  10.533  0.8427 -0.2915 -0.7196
28413SOL    HW292101  10.697  11.167  10.512  0.6469 -0.4200 -0.2355
28414SOL     OW92102   0.972   3.549   7.411 -0.6940 -0.2247 -0.2691
28414SOL    HW192103   0.877   3.557   7.422 -0.8801 -1.7173 -0.6234
28414SOL    HW292104   1.007   3.563   7.499 -1.3593 -1.0292  0.1379
28415SOL     OW92105  10.113   3.418   5.459  0.1473 -0.1021 -0.0758
28415SOL    HW192106  10.077   3.394   5.374 -1.3507 -0.7092  0.7006
28415SOL    HW292107  10.184   3.356   5.474  1.6973  1.1792 -1.6771
28416SOL     OW92108   5.865   1.204   4.982  0.0632 -0.2063 -0.4940
28416SOL    HW192109   5.775   1.228   5.005  0.3234  0.2336  0.0833
28416SOL    HW292110   5.920   1.258   5.039  0.6886 -0.8189 -0.4999
28417SOL     OW92111   2.642   0.931   0.881 -0.2220 -0.1092 -0.3928
28417SOL    HW192112   2.679   0.939   0.969 -1.4154 -1.8021  0.3049
28417SOL    HW292113   2.636   1.022   0.849  1.9193  0.4101  0.5159
28418SOL     OW92114  10.593   4.285   7.458  0.4051  0.7552  0.2366
28418SOL    HW192115  10.589   4.215   7.393 -1.2718 -0.1123  1.2046
28418SOL    HW292116  10.569   4.364   7.410  0.5986  0.3795 -0.4920
28419SOL     OW92117  12.107   1.477   8.906  0.1042 -0.2973  0.0613
28419SOL    HW192118  12.152   1.533   8.969  0.9830  1.3397 -1.9181
28419SOL    HW292119  12.144   1.390   8.920  0.2695  0.0223  1.7629
28420SOL     OW92120   0.926   3.929   1.057 -0.2199  0.2268  0.7871
28420SOL    HW192121   0.858   3.936   0.990  0.4511 -2.0809 -0.2301
28420SOL    HW292122   0.901   3.853   1.109  1.5603 -0.6639  0.3978
28421SOL     OW92123   1.957   5.237   9.785 -0.1141  0.0516 -0.2640
28421SOL    HW192124   2.036   5.224   9.837 -1.5625 -1.1380  1.7974
28421SOL    HW292125   1.974   5.316   9.734  2.0491  0.2875  0.7258
28422SOL     OW92126   3.932   4.192   2.525  0.0265  0.5407 -0.8775
28422SOL    HW192127   3.940   4.201   2.620 -1.8740  0.2794 -0.6598
28422SOL    HW292128   3.955   4.278   2.490 -0.5302  1.0181 -0.0878
28423SOL     OW92129   4.038  10.056   7.418 -0.1431  0.1682 -0.0170
28423SOL    HW192130   4.091  10.038   7.340 -0.2780 -0.5575  0.0593
28423SOL    HW292131   3.978   9.981   7.425  0.2888 -0.0825  1.1438
28424SOL     OW92132   6.636   5.822   3.738 -0.2399  0.1499  0.1608
28424SOL    HW192133   6.611   5.744   3.688  0.7448  0.2324 -0.4819
28424SOL    HW292134   6.723   5.844   3.706 -1.0191  2.3208 -0.6540
28425SOL     OW92135   9.441  10.348   3.687  0.0877 -0.2106 -0.1876
28425SOL    HW192136   9.490  10.387   3.759  1.7602 -0.3142 -1.2342
28425SOL    HW292137   9.426  10.257   3.714 -1.9559  0.4980  1.3102
28426SOL     OW92138  10.933  11.056   8.048 -0.2716  0.3611 -0.2376
28426SOL    HW192139  10.949  11.142   8.088  0.6235  0.1803 -0.1933
28426SOL    HW292140  10.837  11.049   8.046 -0.3518  0.6835  1.1860
28427SOL     OW92141   8.574   4.217   5.815 -0.1736  0.2928  0.5665
28427SOL    HW192142   8.596   4.279   5.744  0.6649 -1.0701 -0.4146
28427SOL    HW292143   8.490   4.248   5.848 -0.4627  1.1436 -0.8499
28428SOL     OW92144   5.785   6.064   6.594 -0.0662  0.6101 -0.0671
28428SOL    HW192145   5.796   6.130   6.662  0.8891  0.4300 -0.0362
28428SOL    HW292146   5.864   6.010   6.600 -0.4767 -0.0680 -0.6013
28429SOL     OW92147  10.534   9.529   8.550  0.2625  0.5880  0.1173
28429SOL    HW192148  10.618   9.575   8.546  1.0627 -0.8086  0.1484
28429SOL    HW292149  10.558   9.438   8.566 -1.3956  0.7181  4.3981
28430SOL     OW92150  10.737  12.364  12.115  0.0926  0.1695 -0.1640
28430SOL    HW192151  10.782  12.294  12.162 -1.8375  0.2682  2.0187
28430SOL    HW292152  10.783  12.444  12.141  0.2654  0.0295 -0.0364
28431SOL     OW92153   6.006   8.718   4.026  0.2201  0.4521 -0.2526
28431SOL    HW192154   6.101   8.709   4.020  0.2287 -0.6217  1.0044
28431SOL    HW292155   5.990   8.812   4.028  1.3556  0.6384  0.6735
28432SOL     OW92156   7.978   1.844   7.342  0.0758 -0.1082 -0.1056
28432SOL    HW192157   7.908   1.908   7.359 -0.2611 -0.1506 -1.2250
28432SOL    HW292158   7.937   1.780   7.284  0.7764 -0.6739  0.0162
28433SOL     OW92159   9.829  10.717   9.840 -0.1351 -0.1203  0.3342
28433SOL    HW192160   9.910  10.738   9.887  0.7291 -1.6869 -0.3762
28433SOL    HW292161   9.768  10.691   9.909  0.7405 -1.2471  0.7118
28434SOL     OW92162   0.627   2.805   5.447  0.0842  0.5810 -0.3636
28434SOL    HW192163   0.626   2.880   5.507 -0.3381  0.8846 -0.7431
28434SOL    HW292164   0.720   2.792   5.427  0.1431  1.1943 -0.5305
28435SOL     OW92165   0.290   3.836   8.181  0.0724  0.0300 -0.5505
28435SOL    HW192166   0.264   3.744   8.186 -1.2424  0.4412  0.9633
28435SOL    HW292167   0.373   3.840   8.229  0.3741 -0.4468 -1.0318
28436SOL     OW92168   6.283   7.997  10.412 -0.2190  0.2822  0.2557
28436SOL    HW192169   6.358   8.057  10.412 -0.3237  0.4461 -0.9252
28436SOL    HW292170   6.207   8.054  10.428 -0.0868  0.0622  1.8538
28437SOL     OW92171   5.828   9.939   9.280 -0.0055 -0.5642 -0.8753
28437SOL    HW192172   5.892   9.985   9.226 -0.1152 -0.5750 -1.0167
28437SOL    HW292173   5.779   9.885   9.217 -1.0891  0.4967 -0.9855
28438SOL     OW92174   7.699   9.805  10.217  0.0513  0.3418 -0.3082
28438SOL    HW192175   7.661   9.861  10.149 -0.0747 -1.3325 -1.6807
28438SOL    HW292176   7.625   9.780  10.273  0.0383  1.1809  0.0582
28439SOL     OW92177  12.129   7.433   1.008  0.2767  0.0780  0.6828
28439SOL    HW192178  12.169   7.350   1.035  1.5903  0.1577 -0.8423
28439SOL    HW292179  12.201   7.482   0.968 -1.2461  0.3299 -2.0300
28440SOL     OW92180   0.553   6.873   3.017 -0.1685 -0.0993 -0.1557
28440SOL    HW192181   0.636   6.874   3.065  0.3683  0.9755 -1.0688
28440SOL    HW292182   0.562   6.943   2.953 -0.5483 -1.9334 -2.3344
28441SOL     OW92183   5.804   7.061   8.360 -0.0211 -0.3070 -0.2423
28441SOL    HW192184   5.870   7.091   8.423  0.8929  0.2791 -1.4253
28441SOL    HW292185   5.745   7.136   8.349 -1.5403 -1.1561  1.5593
28442SOL     OW92186   0.110   9.561   5.287 -0.1013 -0.2738 -0.3334
28442SOL    HW192187   0.096   9.653   5.263 -0.9154 -0.3657 -0.2286
28442SOL    HW292188   0.024   9.529   5.313  0.3368 -0.8369  0.4566
28443SOL     OW92189  11.168   6.778   0.207 -0.5623 -0.4825 -0.0421
28443SOL    HW192190  11.214   6.861   0.220 -0.8458 -0.4288  0.6253
28443SOL    HW292191  11.224   6.730   0.146  0.7345 -0.6850  1.2383
28444SOL     OW92192   9.385   9.970   9.275 -0.2045  0.1314 -0.5324
28444SOL    HW192193   9.386   9.927   9.189  0.1806  0.1578 -0.5441
28444SOL    HW292194   9.399  10.063   9.256  1.9136 -0.0945 -0.3279
28445SOL     OW92195   5.695   3.940   6.516  0.0687 -0.2241  0.2112
28445SOL    HW192196   5.618   3.896   6.552 -0.1117 -0.2651 -0.2098
28445SOL    HW292197   5.756   3.869   6.496 -0.1025 -0.2600 -0.1904
28446SOL     OW92198   5.510   4.164   2.386  0.2012 -0.6933  0.4808
28446SOL    HW192199   5.480   4.152   2.296 -1.2026 -1.5147  1.0295
28446SOL    HW292200   5.472   4.247   2.413  0.2039 -0.6935  0.4850
28447SOL     OW92201   3.344   0.385  10.846 -0.6236 -0.6053 -0.2630
28447SOL    HW192202   3.355   0.347  10.759 -0.3108 -2.4360  0.5313
28447SOL    HW292203   3.426   0.366  10.891 -0.2350  1.5560  0.0284
28448SOL     OW92204   4.668  11.274  11.400 -0.2571 -0.2008 -0.6204
28448SOL    HW192205   4.737  11.336  11.423  0.8064 -1.3437 -0.6147
28448SOL    HW292206   4.608  11.324  11.345  2.0683  0.1602 -3.0636
28449SOL     OW92207   4.133   3.625   1.405 -0.3868 -0.2501 -0.0449
28449SOL    HW192208   4.124   3.585   1.491  3.4738  2.4328  1.9240
28449SOL    HW292209   4.213   3.587   1.369 -0.6693  0.3773 -1.4005
28450SOL     OW92210   4.646   4.349  11.927 -0.1592 -0.4506 -0.2257
28450SOL    HW192211   4.658   4.441  11.953  1.9660 -1.0290  1.1215
28450SOL    HW292212   4.616   4.354  11.836 -1.7103  1.5851  0.3263
28451SOL     OW92213   9.208   5.422  10.188 -0.2608  0.2189 -0.0662
28451SOL    HW192214   9.155   5.497  10.213 -0.8592 -0.5122  0.9299
28451SOL    HW292215   9.185   5.405  10.097 -0.8279  0.6704 -0.0107
28452SOL     OW92216   1.251   5.125   3.622 -0.4786  0.0951  0.4837
28452SOL    HW192217   1.308   5.049   3.638 -0.2008  0.1830 -0.0494
28452SOL    HW292218   1.273   5.187   3.692 -0.5277 -0.2145  0.7745
28453SOL     OW92219   7.100   2.032   9.179 -0.1987  0.3240 -0.2357
28453SOL    HW192220   7.132   2.109   9.226  1.7595 -0.0906 -0.8041
28453SOL    HW292221   7.012   2.056   9.150  0.3766  2.3605 -0.4223
28454SOL     OW92222  10.985   2.417   7.749  0.3285  0.2782  0.2280
28454SOL    HW192223  11.034   2.469   7.685  0.6203 -0.6537 -0.3301
28454SOL    HW292224  11.031   2.432   7.832  0.7733  0.4360 -0.0430
28455SOL     OW92225   3.634   9.706   0.064  0.3688  0.3419 -0.1089
28455SOL    HW192226   3.633   9.615   0.035 -1.8959  0.5453 -0.8622
28455SOL    HW292227   3.727   9.726   0.075  0.9108 -2.3037  0.9704
28456SOL     OW92228   8.386  11.631   6.231  0.1805 -0.5254 -0.4088
28456SOL    HW192229   8.313  11.676   6.188 -0.4347  0.9903  2.0460
28456SOL    HW292230   8.422  11.696   6.292  1.9105 -2.1097  0.3580
28457SOL     OW92231  11.567   2.441   3.281  1.0892  0.5763  0.1125
28457SOL    HW192232  11.561   2.363   3.337 -0.1820 -0.5793 -1.5015
28457SOL    HW292233  11.489   2.492   3.303  1.7018  1.2177  0.8676
28458SOL     OW92234   0.011  11.853  10.030 -0.3652  0.1565 -0.2816
28458SOL    HW192235   0.009  11.894  10.116 -3.0340  1.6244 -0.9490
28458SOL    HW292236   0.044  11.921   9.971 -0.9818  0.0227 -0.7905
28459SOL     OW92237  10.901   1.567   3.917 -0.5963  0.0170 -0.4773
28459SOL    HW192238  10.859   1.649   3.894  0.6349  0.7615 -0.1682
28459SOL    HW292239  10.927   1.528   3.834  0.3416  0.7853 -0.5555
28460SOL     OW92240   3.961   7.244   3.901  0.2165  0.3226 -0.3504
28460SOL    HW192241   3.927   7.179   3.962  0.5255  0.4755 -0.0141
28460SOL    HW292242   3.882   7.287   3.866 -0.0207 -0.6621 -1.0657
28461SOL     OW92243   7.015   9.794   2.694  0.2173  0.1988  0.0579
28461SOL    HW192244   6.978   9.733   2.757 -1.0548  2.6690  1.8331
28461SOL    HW292245   6.941   9.845   2.662  1.3178  1.3183 -0.8231
28462SOL     OW92246   1.238   1.539   3.696 -0.1088 -0.2301 -0.1918
28462SOL    HW192247   1.215   1.554   3.788 -0.7239 -2.4369  0.0806
28462SOL    HW292248   1.186   1.602   3.647 -0.5378  0.2986  0.9039
28463SOL     OW92249   4.277   9.409   9.025 -0.8630 -0.2252 -0.0477
28463SOL    HW192250   4.332   9.341   8.987 -0.7618  0.2259 -0.7164
28463SOL    HW292251   4.295   9.405   9.119 -0.6838 -0.9586 -0.1106
28464SOL     OW92252   8.649   5.705   4.621 -0.2892 -0.2914  0.2908
28464SOL    HW192253   8.617   5.618   4.647  1.1358 -0.2729  2.4392
28464SOL    HW292254   8.703   5.733   4.696  0.1291  2.0045 -0.7950
28465SOL     OW92255  11.548   9.427   4.563 -0.2621  0.0149  0.5809
28465SOL    HW192256  11.622   9.469   4.520 -0.0015 -2.1461 -1.2311
28465SOL    HW292257  11.475   9.488   4.551  0.5622  0.8987 -0.0993
28466SOL     OW92258   4.760   4.907   6.875  0.1248 -0.2979 -0.7505
28466SOL    HW192259   4.719   4.837   6.926  0.8324 -0.6369 -0.6337
28466SOL    HW292260   4.854   4.891   6.884  0.4409  2.0930  1.3511
28467SOL     OW92261   2.279   7.304   9.515 -0.1643  0.4670 -0.5311
28467SOL    HW192262   2.201   7.259   9.548  0.0934 -0.1260 -0.7333
28467SOL    HW292263   2.308   7.252   9.441 -0.6332  1.6932 -1.6183
28468SOL     OW92264   4.874   3.405   3.930 -0.2081  0.1038  0.1760
28468SOL    HW192265   4.937   3.467   3.893 -0.6116 -0.8330 -2.2828
28468SOL    HW292266   4.887   3.325   3.880 -2.0879 -0.6832  0.8571
28469SOL     OW92267   5.891   9.549  11.268  0.6868 -0.0888 -0.3753
28469SOL    HW192268   5.876   9.635  11.230 -0.3225 -0.1802 -0.1977
28469SOL    HW292269   5.938   9.501  11.200 -0.1800  0.0814 -1.1023
28470SOL     OW92270   9.704   6.735   1.145 -0.3119  0.6073  0.2946
28470SOL    HW192271   9.679   6.649   1.113 -0.6795  0.4985  0.8607
28470SOL    HW292272   9.648   6.796   1.098 -0.1715  0.5276  0.0212
28471SOL     OW92273   1.602  10.498   7.583 -0.6245 -0.1945  0.1814
28471SOL    HW192274   1.688  10.515   7.543  0.3328  0.1223  2.2642
28471SOL    HW292275   1.592  10.565   7.650 -2.5150 -0.2475  0.0121
28472SOL     OW92276   1.863   2.335  10.024 -0.0576  0.0455 -0.3030
28472SOL    HW192277   1.876   2.271   9.954  1.8821  1.1123 -0.9800
28472SOL    HW292278   1.932   2.314  10.088 -1.6615 -0.7805  1.2663
28473SOL     OW92279  11.292   9.550   3.211 -0.3960 -0.3662 -0.0395
28473SOL    HW192280  11.327   9.461   3.210 -0.1511 -0.2696 -0.6219
28473SOL    HW292281  11.334   9.591   3.287  0.0871 -0.5192 -0.2171
28474SOL     OW92282   2.900   6.258  11.899  0.3503 -0.7498  0.3073
28474SOL    HW192283   2.943   6.177  11.871  0.4241 -0.5518 -0.1623
28474SOL    HW292284   2.876   6.242  11.990  1.1998 -0.9575  0.5052
28475SOL     OW92285   0.801   4.045  11.192 -0.2494  0.0784 -0.2190
28475SOL    HW192286   0.748   4.117  11.157 -0.7505  0.1748  0.6946
28475SOL    HW292287   0.791   3.974  11.128  1.1718  1.1593 -1.7247
28476SOL     OW92288   2.394  12.441   2.570  0.5950 -0.6154 -0.0352
28476SOL    HW192289   2.328  12.439   2.640  1.4684  0.0535  0.8304
28476SOL    HW292290   2.345  12.422   2.490 -0.5081 -0.9150  0.6955
28477SOL     OW92291   3.272   4.717   9.808  0.7775  0.1101  0.3650
28477SOL    HW192292   3.264   4.720   9.713  1.7667  0.0530  0.2651
28477SOL    HW292293   3.283   4.808   9.834  1.1904  0.0659  0.3514
28478SOL     OW92294  12.376   0.825  11.660 -0.1952  0.1703  0.1576
28478SOL    HW192295  12.467   0.833  11.633 -0.5567  2.0745 -0.6849
28478SOL    HW292296  12.358   0.905  11.709 -1.0758 -0.7672  1.4186
28479SOL     OW92297   7.742  10.055   5.919  0.0787  0.4288  0.1063
28479SOL    HW192298   7.764  10.046   5.826 -1.0758 -0.4151 -0.1106
28479SOL    HW292299   7.671  10.119   5.921 -0.3967 -0.0882  0.3099
28480SOL     OW92300   1.291   7.220   5.145 -0.1538 -0.5602  0.6494
28480SOL    HW192301   1.235   7.223   5.067  0.0418  0.0510  0.5232
28480SOL    HW292302   1.230   7.214   5.218 -0.3467 -0.9609  0.4593
28481SOL     OW92303   5.448   2.169  10.362 -0.7008  0.0069  0.6086
28481SOL    HW192304   5.446   2.222  10.283 -0.1807 -0.7068  0.0971
28481SOL    HW292305   5.500   2.220  10.424  0.0642 -0.0314  0.0174
28482SOL     OW92306   4.382   2.885   6.314 -0.1998 -0.6324 -0.6443
28482SOL    HW192307   4.327   2.857   6.241  0.0226  0.8345 -1.4277
28482SOL    HW292308   4.364   2.979   6.323  0.1872 -0.6733  0.8404
28483SOL     OW92309   0.474   1.611   3.118 -0.2341  0.1532 -0.1749
28483SOL    HW192310   0.496   1.649   3.033 -0.6658  1.0575  0.1059
28483SOL    HW292311   0.488   1.517   3.106  2.9429  0.5124 -0.2859
28484SOL     OW92312  10.999   7.867   1.798 -0.0114  0.1824 -0.0131
28484SOL    HW192313  11.046   7.880   1.880  0.2456 -0.0628 -0.1225
28484SOL    HW292314  11.067   7.860   1.732  0.0005 -2.9916  0.1831
28485SOL     OW92315   5.730   6.886   4.042 -0.6561  0.4039 -0.0848
28485SOL    HW192316   5.780   6.967   4.032 -0.3359  0.0461 -1.7205
28485SOL    HW292317   5.696   6.867   3.955 -0.1185 -1.5950  0.0753
28486SOL     OW92318  12.213   5.412   1.393  0.1638  0.1376 -0.0271
28486SOL    HW192319  12.228   5.471   1.467 -2.5039  1.0298 -0.0811
28486SOL    HW292320  12.125   5.434   1.363 -0.5203 -3.1161 -0.7621
28487SOL     OW92321   5.844  10.293   8.928 -0.1018  0.6066 -0.1222
28487SOL    HW192322   5.832  10.223   8.865  1.7354  0.3972 -0.2936
28487SOL    HW292323   5.777  10.277   8.995 -0.8170 -0.2860 -1.0134
28488SOL     OW92324   3.230  11.489   3.143  0.0451  0.1292  0.5273
28488SOL    HW192325   3.188  11.440   3.072 -0.2393  2.2703 -0.8886
28488SOL    HW292326   3.249  11.423   3.210  1.3312 -2.2139 -1.9419
28489SOL     OW92327   9.561   6.818   6.257 -0.4223 -0.2236  0.2169
28489SOL    HW192328   9.490   6.784   6.204 -0.0238 -0.0810 -0.4174
28489SOL    HW292329   9.599   6.740   6.299 -0.6641 -0.3478  0.2098
28490SOL     OW92330   4.437   2.844   1.439 -0.0039  0.2046 -0.3978
28490SOL    HW192331   4.392   2.809   1.516 -0.9241 -1.2117 -1.5248
28490SOL    HW292332   4.488   2.770   1.406  2.0487  1.3739  0.0027
28491SOL     OW92333   8.057   4.131   6.145 -0.4873 -0.8647 -0.2618
28491SOL    HW192334   8.149   4.127   6.169 -0.2963 -1.8192 -1.0880
28491SOL    HW292335   8.044   4.221   6.115 -0.1676 -0.3436  1.0914
28492SOL     OW92336   5.988   8.782   9.689  0.2465 -0.2712  0.1347
28492SOL    HW192337   6.013   8.763   9.598 -0.3801 -0.0062 -0.0970
28492SOL    HW292338   5.894   8.765   9.692  0.4818 -1.6055  1.0896
28493SOL     OW92339   6.056   4.434   0.290  0.3288  0.0528 -0.0598
28493SOL    HW192340   5.985   4.387   0.246  1.1454 -1.5194  0.2078
28493SOL    HW292341   6.054   4.522   0.253 -1.1230 -0.2520 -0.7688
28494SOL     OW92342   8.304   3.791   1.172 -0.3774  0.4243  0.0979
28494SOL    HW192343   8.287   3.720   1.234  0.8077  0.1610  0.1407
28494SOL    HW292344   8.387   3.767   1.130 -0.3199  1.4344 -0.3956
28495SOL     OW92345   1.220   0.140   0.860  0.1296 -0.3413  0.2517
28495SOL    HW192346   1.173   0.174   0.784  0.7154  0.0146  0.0440
28495SOL    HW292347   1.281   0.076   0.823  0.1871 -0.4082  0.4635
28496SOL     OW92348   0.086  11.665   9.447  0.0129  0.0422 -0.1872
28496SOL    HW192349   0.179  11.657   9.422  0.0070  1.0972 -0.5907
28496SOL    HW292350   0.053  11.575   9.445  1.3232 -0.5170  1.1679
28497SOL     OW92351   5.537   6.429   2.380  0.3937  0.4732 -0.2009
28497SOL    HW192352   5.606   6.428   2.313  0.0832  0.9123 -0.5319
28497SOL    HW292353   5.510   6.521   2.384 -0.4556  0.2355 -0.3616
28498SOL     OW92354  10.409   6.050   2.592 -0.0726 -0.0340  0.0721
28498SOL    HW192355  10.462   6.075   2.667 -0.2290  0.5238 -0.0013
28498SOL    HW292356  10.369   5.966   2.617 -1.7034  1.0743  1.4107
28499SOL     OW92357   5.081  11.054   3.430  0.1163  0.1691 -0.0693
28499SOL    HW192358   5.113  11.143   3.446  2.3241 -0.6053  0.2312
28499SOL    HW292359   5.066  11.050   3.336 -0.4439  0.9743 -0.0267
28500SOL     OW92360   9.093   5.608   8.290 -0.0357  0.3771 -0.0601
28500SOL    HW192361   9.074   5.616   8.384 -1.0195  0.4500 -0.2455
28500SOL    HW292362   9.015   5.645   8.248  0.0879 -0.3030 -0.9050
28501SOL     OW92363  11.957   2.029   3.438  0.3288 -0.2362 -0.6136
28501SOL    HW192364  12.012   1.954   3.418  2.0909  0.5574  0.9576
28501SOL    HW292365  11.976   2.092   3.368 -0.6283 -0.9156 -1.5368
28502SOL     OW92366  11.300   9.600   9.871 -0.1542 -0.1786  0.3828
28502SOL    HW192367  11.394   9.612   9.884 -0.5125  1.2246  1.9925
28502SOL    HW292368  11.291   9.581   9.777  1.6109  1.0336 -0.0839
28503SOL     OW92369  11.255   8.760   1.485 -0.4429 -0.6491 -0.0674
28503SOL    HW192370  11.245   8.737   1.393 -1.0389 -0.5926 -0.0195
28503SOL    HW292371  11.194   8.832   1.499  0.6633  0.2811  0.0345
28504SOL     OW92372   6.447   4.788   5.858 -0.4132 -0.1982 -0.0667
28504SOL    HW192373   6.440   4.874   5.817 -0.7699  0.6342  1.6572
28504SOL    HW292374   6.506   4.801   5.932 -0.8053 -1.3446  0.4753
28505SOL     OW92375   4.579   5.494  12.037 -0.2396  0.1035  0.4115
28505SOL    HW192376   4.579   5.402  12.062 -0.7124  0.1444  0.5705
28505SOL    HW292377   4.564   5.542  12.119  1.0537  0.3768  0.4994
28506SOL     OW92378   3.751   8.900   4.533  0.2211 -0.3417  0.3059
28506SOL    HW192379   3.670   8.865   4.495  0.8227 -1.5818  0.1171
28506SOL    HW292380   3.725   8.928   4.621 -0.9242  1.5071 -0.5575
28507SOL     OW92381  10.328   9.162   1.932  0.4824  0.4681  0.3068
28507SOL    HW192382  10.411   9.140   1.975  1.0686  2.5054  0.3585
28507SOL    HW292383  10.353   9.181   1.842 -0.1330 -0.0368  0.0259
28508SOL     OW92384   7.862   8.676   9.667  0.6032 -0.2824  0.3032
28508SOL    HW192385   7.910   8.594   9.658  2.2719  0.5421  1.0706
28508SOL    HW292386   7.915   8.727   9.729  0.2903  1.8352 -1.0664
28509SOL     OW92387  11.019   7.771   1.109 -0.3454  0.2726  0.0895
28509SOL    HW192388  11.075   7.731   1.175 -1.6227  0.6015  1.4245
28509SOL    HW292389  11.060   7.748   1.025  0.6364 -1.1905  0.9328
28510SOL     OW92390   6.268   2.179   3.492  0.0197 -0.4360  0.3337
28510SOL    HW192391   6.179   2.154   3.516  0.1798 -0.6558  0.6927
28510SOL    HW292392   6.284   2.260   3.540 -0.5307  0.4352 -0.8960
28511SOL     OW92393   8.631   9.919  11.031 -0.0427 -0.1525  0.3819
28511SOL    HW192394   8.561   9.916  10.966  0.8219  1.4583 -0.6872
28511SOL    HW292395   8.710   9.896  10.983  0.5942  0.9441  0.8474
28512SOL     OW92396   7.129   4.150   8.826 -0.0845  0.4368 -0.3565
28512SOL    HW192397   7.158   4.106   8.745 -2.7117  1.1976 -1.8281
28512SOL    HW292398   7.138   4.083   8.894  0.3992 -0.8618 -1.6402
28513SOL     OW92399   7.231   3.680   5.387 -0.2305  0.0523  0.2872
28513SOL    HW192400   7.145   3.718   5.364  0.6884  1.3967 -1.1897
28513SOL    HW292401   7.255   3.723   5.469 -0.3281  0.8110 -0.0684
28514SOL     OW92402   3.863   3.509   4.269  0.2208  0.0244  0.7904
28514SOL    HW192403   3.827   3.434   4.222  0.5085  0.2931  0.1123
28514SOL    HW292404   3.878   3.478   4.358 -2.3499  0.1044  1.3285
28515SOL     OW92405  11.896   0.149   7.188  0.1683 -0.3199  0.1242
28515SOL    HW192406  11.929   0.166   7.100 -1.7669  0.0872 -0.5751
28515SOL    HW292407  11.861   0.060   7.183  0.8460 -0.6376  0.7674
28516SOL     OW92408   1.780   3.930   0.879 -0.8205  0.2853 -0.0061
28516SOL    HW192409   1.809   3.893   0.795  0.3845  1.7094 -0.2630
28516SOL    HW292410   1.717   3.997   0.854 -1.4416 -0.1600  0.3334
28517SOL     OW92411  10.450   3.274   5.573  0.5747  0.1589  0.5292
28517SOL    HW192412  10.475   3.198   5.627  1.3823  1.1218  1.5650
28517SOL    HW292413  10.425   3.341   5.636  1.5023  1.3177 -0.2849
28518SOL     OW92414   8.583   1.213  12.356 -0.0755  0.0060  0.1501
28518SOL    HW192415   8.663   1.263  12.340 -0.6892  0.8483 -0.3622
28518SOL    HW292416   8.574   1.213  12.451  1.2129 -1.2136  0.3046
28519SOL     OW92417  11.931  11.903  11.099  0.1167 -0.6284 -0.3518
28519SOL    HW192418  11.955  11.972  11.161  0.2333  0.2911 -1.3791
28519SOL    HW292419  11.896  11.833  11.153  0.5933 -0.0201  0.7814
28520SOL     OW92420  10.873  10.895   4.056 -0.4754 -0.6409  0.9204
28520SOL    HW192421  10.898  10.827   3.993  0.4798  0.7603 -0.3190
28520SOL    HW292422  10.931  10.969   4.034 -0.7261  0.1993  2.9102
28521SOL     OW92423   9.710   4.030   5.189 -0.1626  0.4016 -0.1955
28521SOL    HW192424   9.672   3.946   5.214  2.0216 -1.0546 -1.4080
28521SOL    HW292425   9.642   4.073   5.138 -1.1092 -0.8997 -0.0765
28522SOL     OW92426   2.695   5.042   7.941 -0.0964 -0.2560  0.4561
28522SOL    HW192427   2.717   5.131   7.913  0.6291 -0.0309  1.6575
28522SOL    HW292428   2.602   5.033   7.924 -0.7440  1.6351  2.6028
28523SOL     OW92429   9.301  10.998   9.083  0.7924 -0.4705 -0.2745
28523SOL    HW192430   9.298  10.907   9.115  0.4273 -0.5994 -0.6694
28523SOL    HW292431   9.286  10.990   8.989  2.1773 -0.1280 -0.5550
28524SOL     OW92432  10.315   5.513   1.985  0.5565 -0.0641 -0.2482
28524SOL    HW192433  10.356   5.593   1.952  1.9155 -0.5296  0.2344
28524SOL    HW292434  10.310   5.456   1.909  0.6617  0.0535 -0.3439
28525SOL     OW92435   9.890   8.834  12.398 -0.2474 -0.3148 -0.4983
28525SOL    HW192436   9.855   8.757  12.353 -0.5968 -0.4268 -0.0459
28525SOL    HW292437   9.814   8.873  12.442  0.1788 -0.5451  0.4701
28526SOL     OW92438   3.373  10.063   8.778  0.0421 -0.1045  0.1647
28526SOL    HW192439   3.311  10.112   8.833  0.0043 -1.0750  1.0174
28526SOL    HW292440   3.380   9.978   8.821  1.1650 -0.3671 -0.5194
28527SOL     OW92441  11.376   3.449   4.951  0.0361  0.0464  0.0446
28527SOL    HW192442  11.282   3.465   4.964  0.0881  0.6967 -0.3525
28527SOL    HW292443  11.416   3.536   4.954  0.6560 -0.2488  0.4319
28528SOL     OW92444   0.401  11.235  10.332 -0.1724 -0.0956  0.6347
28528SOL    HW192445   0.473  11.213  10.272  0.6715  0.8875  1.2640
28528SOL    HW292446   0.331  11.174  10.308 -0.3405  1.0437 -2.1920
28529SOL     OW92447   1.411   3.372   2.911 -0.3256 -0.4503 -0.1874
28529SOL    HW192448   1.489   3.411   2.951  0.3902 -1.5521 -0.4434
28529SOL    HW292449   1.345   3.373   2.980 -0.3358  1.1397 -0.1739
28530SOL     OW92450   1.712   3.048   0.079  0.1155 -0.7801 -0.3731
28530SOL    HW192451   1.788   3.104   0.060 -0.3760  0.8380  1.9810
28530SOL    HW292452   1.748   2.959   0.083  1.4005 -0.3560 -1.7224
28531SOL     OW92453   6.712   3.419   5.037  0.2748 -0.1600  0.0756
28531SOL    HW192454   6.618   3.413   5.051  0.4161  0.3091  1.3577
28531SOL    HW292455   6.729   3.363   4.961 -1.0808  0.0640 -0.4102
28532SOL     OW92456   2.739  10.641   1.727 -0.1199 -0.3848  0.4111
28532SOL    HW192457   2.687  10.587   1.668 -2.6499  1.9839  0.2943
28532SOL    HW292458   2.695  10.634   1.812  1.4378 -1.0011  1.2159
28533SOL     OW92459   1.202  10.240   2.526  0.2349 -0.2434  0.1934
28533SOL    HW192460   1.227  10.164   2.474 -0.3863 -0.0851 -0.3507
28533SOL    HW292461   1.106  10.236   2.530  0.2618 -0.1721  1.2080
28534SOL     OW92462  11.403   8.378   2.333 -0.3110 -0.6796  0.0826
28534SOL    HW192463  11.457   8.349   2.407 -0.9543 -1.2278  0.3383
28534SOL    HW292464  11.334   8.313   2.326 -1.1308  0.1798 -0.0515
28535SOL     OW92465   4.613   5.989   3.646 -0.1542 -0.8616 -0.2414
28535SOL    HW192466   4.668   6.067   3.642  0.5154 -1.3828 -2.5682
28535SOL    HW292467   4.536   6.012   3.594 -1.4498 -0.7107  1.6497
28536SOL     OW92468   1.737   4.396   6.056  0.1927  0.4241  0.2136
28536SOL    HW192469   1.686   4.346   5.992  1.4596  0.5760 -0.9625
28536SOL    HW292470   1.710   4.486   6.043  0.0939  0.3966  0.2292
28537SOL     OW92471   3.471   9.885   8.177 -0.5984  0.1078 -0.0627
28537SOL    HW192472   3.478   9.977   8.201 -0.1955 -0.0013  0.2693
28537SOL    HW292473   3.538   9.842   8.231 -0.7028 -0.3588 -0.3016
28538SOL     OW92474   6.201   5.784   1.897 -0.1437  0.8264 -0.3080
28538SOL    HW192475   6.116   5.795   1.941  0.5489  0.0886  1.2849
28538SOL    HW292476   6.179   5.744   1.813 -1.2867 -0.7843  0.6937
28539SOL     OW92477   1.561   2.293   0.172  0.4463 -0.0927  0.1125
28539SOL    HW192478   1.520   2.319   0.090 -1.0472 -1.2899  0.4333
28539SOL    HW292479   1.490   2.298   0.236  1.7694  1.6407  1.5486
28540SOL     OW92480   5.166   8.646   4.230  0.0069  0.0503  0.0077
28540SOL    HW192481   5.191   8.554   4.229 -1.3528 -0.3543  0.6768
28540SOL    HW292482   5.127   8.659   4.317  0.4767  1.3507  0.0521
28541SOL     OW92483   3.895   4.141   3.838 -0.2254  0.4595  0.1406
28541SOL    HW192484   3.806   4.105   3.844 -0.6954  1.6282  0.4015
28541SOL    HW292485   3.950   4.065   3.820 -1.5764  0.0372 -2.6870
28542SOL     OW92486   8.836   0.865   5.840 -0.1394 -0.8977  0.1002
28542SOL    HW192487   8.822   0.852   5.934 -0.3131  0.9391  0.3514
28542SOL    HW292488   8.782   0.797   5.799 -2.6889  0.2711  1.2782
28543SOL     OW92489  12.265   5.852   6.520  0.4445  0.7653  0.4700
28543SOL    HW192490  12.352   5.865   6.558  1.8482  0.1490 -2.3212
28543SOL    HW292491  12.279   5.858   6.426 -2.3892 -0.3338 -0.1014
28544SOL     OW92492  10.791   5.476   4.341 -0.0396  0.2828 -0.7216
28544SOL    HW192493  10.883   5.475   4.317 -0.3916 -0.0179 -2.2187
28544SOL    HW292494  10.788   5.511   4.430  1.7414 -2.2251  0.4347
28545SOL     OW92495  11.824   6.660   8.138  0.1955 -0.4066  0.3445
28545SOL    HW192496  11.796   6.569   8.134 -1.5415  0.0507  1.0956
28545SOL    HW292497  11.892   6.661   8.206 -0.2462 -1.0417  0.8085
28546SOL     OW92498   8.077   7.878   9.120 -0.3769 -0.5182 -0.1173
28546SOL    HW192499   8.011   7.831   9.069  0.2608 -0.8282 -0.6826
28546SOL    HW292500   8.096   7.820   9.194 -0.8828 -0.3361  0.1557
28547SOL     OW92501   7.056   9.170   6.310 -0.7977  0.3234  0.1824
28547SOL    HW192502   7.010   9.254   6.298  1.9383  1.7691 -1.2497
28547SOL    HW292503   7.016   9.112   6.245 -1.4674  1.1183 -0.1434
28548SOL     OW92504   9.069   9.307   0.455  1.0517 -0.1582 -0.2084
28548SOL    HW192505   9.023   9.224   0.464  1.7704 -0.4250  1.1392
28548SOL    HW292506   9.125   9.313   0.532  3.0236  0.3185 -1.5915
28549SOL     OW92507   7.341  12.098   8.492  0.2635  0.1613  0.1673
28549SOL    HW192508   7.259  12.066   8.455  0.2037  0.8519 -0.3282
28549SOL    HW292509   7.338  12.193   8.479 -0.0140  0.5196  2.5127
28550SOL     OW92510   6.804   3.785   6.028 -0.0665  0.0663  0.2798
28550SOL    HW192511   6.753   3.750   5.955 -0.0681 -1.1184  0.8285
28550SOL    HW292512   6.752   3.765   6.106  0.7610 -0.2803  0.7594
28551SOL     OW92513   9.781   2.270   5.773 -0.4045 -0.3087 -0.3302
28551SOL    HW192514   9.840   2.333   5.813  0.7966 -1.6306  0.0321
28551SOL    HW292515   9.808   2.266   5.681  0.8336 -1.6909  0.0535
28552SOL     OW92516   5.995   3.153   4.688  0.5225 -0.9063 -0.2847
28552SOL    HW192517   5.932   3.176   4.757 -0.5100 -2.5965 -0.5867
28552SOL    HW292518   6.071   3.207   4.705 -0.6875  0.5895  0.6349
28553SOL     OW92519   5.960   5.847   6.721 -0.2495 -0.1036 -0.5230
28553SOL    HW192520   5.874   5.806   6.717 -0.0602 -0.5427 -0.2529
28553SOL    HW292521   6.019   5.775   6.745 -0.1519  0.6515  1.7979
28554SOL     OW92522   8.597   7.975   6.473 -0.6957  0.4882 -0.0015
28554SOL    HW192523   8.568   7.884   6.474  1.5884 -0.3246  1.8310
28554SOL    HW292524   8.599   8.001   6.566 -1.0533  2.3318 -0.4649
28555SOL     OW92525   4.744  11.329   0.878 -0.6082 -0.1028 -0.1322
28555SOL    HW192526   4.658  11.371   0.870 -0.9539 -0.5704  1.0296
28555SOL    HW292527   4.800  11.378   0.817 -1.3452  1.1213  0.1440
28556SOL     OW92528   0.281   7.400   2.843  0.4511 -0.0759 -0.0178
28556SOL    HW192529   0.336   7.354   2.907  0.7629  0.9017  0.4411
28556SOL    HW292530   0.308   7.365   2.758  1.0192 -0.3812  0.2816
28557SOL     OW92531   4.568   5.968   8.430  0.0290 -0.1393  0.3700
28557SOL    HW192532   4.475   5.989   8.439 -0.1508 -0.6478 -0.1934
28557SOL    HW292533   4.575   5.876   8.457  0.0488 -0.6447 -1.2664
28558SOL     OW92534   3.532   4.893  10.516 -0.1403 -0.4217  0.5126
28558SOL    HW192535   3.532   4.987  10.497  1.4331 -0.2997  0.9783
28558SOL    HW292536   3.530   4.852  10.430 -0.4956  0.0386  0.2950
28559SOL     OW92537   7.864  11.058  11.628  0.4256 -0.5322  0.7101
28559SOL    HW192538   7.851  10.963  11.628  1.3369 -0.6716 -0.1063
28559SOL    HW292539   7.864  11.082  11.721  0.6175 -1.4025  0.9472
28560SOL     OW92540   5.294   7.191   0.982 -0.2940  0.2854 -0.2741
28560SOL    HW192541   5.271   7.262   1.042 -0.5546  0.1656 -0.2301
28560SOL    HW292542   5.230   7.198   0.911 -0.4517 -0.0367 -0.1629
28561SOL     OW92543   7.373   4.995   3.333 -0.1261  0.1202 -0.2525
28561SOL    HW192544   7.288   4.974   3.295 -0.6764 -0.1043  1.0305
28561SOL    HW292545   7.402   5.073   3.286 -0.2743 -0.7216 -1.8123
28562SOL     OW92546  12.473   1.185   2.806 -0.3314 -1.0054 -0.0331
28562SOL    HW192547  12.381   1.204   2.793 -0.4373 -0.9026  0.8126
28562SOL    HW292548  12.511   1.267   2.837 -0.0398 -1.1601  0.0317
28563SOL     OW92549   5.407   0.712  11.559  0.2298  0.2437 -0.4948
28563SOL    HW192550   5.395   0.690  11.652 -3.2532 -0.7874 -1.0626
28563SOL    HW292551   5.433   0.629  11.518  1.0322  0.5281 -0.5731
28564SOL     OW92552   3.312   0.169  10.289 -0.4356  0.4536 -0.2065
28564SOL    HW192553   3.326   0.264  10.290 -1.3501  0.5925  0.1587
28564SOL    HW292554   3.342   0.139  10.375  1.6062  0.1292 -0.9904
28565SOL     OW92555   6.771  11.361  10.004  0.0239  0.3921 -0.0717
28565SOL    HW192556   6.743  11.270   9.997  0.7923  0.0215  1.3866
28565SOL    HW292557   6.855  11.358  10.049 -0.6806  1.9111  1.4543
28566SOL     OW92558   1.381   0.488  11.634 -0.9949  0.4655  0.1823
28566SOL    HW192559   1.422   0.447  11.710 -1.8711  0.4542  0.6584
28566SOL    HW292560   1.288   0.488  11.653 -1.4287 -1.1241 -1.6633
28567SOL     OW92561   0.878   4.194   6.627 -0.4893 -0.7875  0.2235
28567SOL    HW192562   0.922   4.113   6.651  0.9656 -0.2421 -0.4697
28567SOL    HW292563   0.794   4.166   6.591  0.0899 -2.0058 -0.2236
28568SOL     OW92564  10.238   7.878   8.390  0.4863  0.2497 -0.4762
28568SOL    HW192565  10.280   7.960   8.366 -1.1694  1.2491 -0.1296
28568SOL    HW292566  10.151   7.903   8.421 -0.1425 -1.6492 -0.5252
28569SOL     OW92567   1.597   8.674  10.967  0.0203  0.2266  0.2955
28569SOL    HW192568   1.607   8.732  11.043 -0.8686  1.2255 -0.3266
28569SOL    HW292569   1.508   8.689  10.936  0.6161  0.4459 -1.4284
28570SOL     OW92570   5.027   0.011   6.388 -0.1980 -0.0757 -0.0624
28570SOL    HW192571   4.948  -0.012   6.436 -0.1222 -0.8765 -0.3063
28570SOL    HW292572   5.099  -0.008   6.449 -0.2177  1.6249  0.5405
28571SOL     OW92573  11.592   1.853  11.027 -0.0468  0.1941 -0.3834
28571SOL    HW192574  11.573   1.938  10.988 -1.9251  0.1498  0.3504
28571SOL    HW292575  11.589   1.792  10.953  1.9424  0.7955 -1.0215
28572SOL     OW92576   2.447   3.165  11.647 -0.5710  0.2762 -0.7480
28572SOL    HW192577   2.421   3.074  11.664 -0.4779  0.6264  1.5483
28572SOL    HW292578   2.473   3.199  11.732 -2.5190  3.1127 -1.1718
28573SOL     OW92579   9.394  12.042  12.449 -0.1522  0.3498 -0.4478
28573SOL    HW192580   9.357  11.962  12.411 -0.0840  0.8029 -1.4786
28573SOL    HW292581   9.478  12.053  12.406  0.6327  0.0557  0.9402
28574SOL     OW92582   4.455   2.948   9.862 -0.7115 -0.1721  0.3002
28574SOL    HW192583   4.477   3.031   9.820  2.6865 -0.2585  1.5651
28574SOL    HW292584   4.504   2.882   9.813 -0.9992 -1.0077  1.1006
28575SOL     OW92585  10.991   4.217   0.346  0.5045  0.4615  0.7946
28575SOL    HW192586  10.909   4.169   0.342 -0.2947  1.8434 -0.9946
28575SOL    HW292587  11.059   4.151   0.335 -0.4762 -0.4641  0.0974
28576SOL     OW92588   1.999  11.836   0.094 -0.1695  0.2150 -0.2351
28576SOL    HW192589   1.932  11.829   0.162 -0.4543 -0.1126 -0.5462
28576SOL    HW292590   1.950  11.839   0.012  0.1896  0.1217 -0.4556
28577SOL     OW92591   0.364   6.944   2.748  0.2282  0.0302  0.3777
28577SOL    HW192592   0.316   6.921   2.669 -0.3910  0.4578  0.6143
28577SOL    HW292593   0.353   6.869   2.806  0.9982 -0.4396 -0.0744
28578SOL     OW92594   1.095  10.677   3.608  0.4849  0.4810 -0.2488
28578SOL    HW192595   1.103  10.747   3.544  0.2188  1.6186  0.9086
28578SOL    HW292596   1.002  10.656   3.611  0.6926 -0.7289 -1.3841
28579SOL     OW92597   1.128  11.682  10.739 -0.0488  0.7092 -0.0122
28579SOL    HW192598   1.086  11.765  10.759  0.3862  0.5892  1.5191
28579SOL    HW292599   1.203  11.678  10.798 -0.5853 -1.1806  0.6235
28580SOL     OW92600   6.347   6.544   4.798 -0.5051 -1.0381 -0.3988
28580SOL    HW192601   6.307   6.577   4.718  0.1637  3.1497  0.7450
28580SOL    HW292602   6.277   6.550   4.863  0.4058  1.2148  0.4684
28581SOL     OW92603   7.304   9.052   8.947 -0.5670  0.0688 -0.1102
28581SOL    HW192604   7.274   9.143   8.948  0.4174  0.4272 -0.9440
28581SOL    HW292605   7.398   9.058   8.928  0.6335 -0.8768  4.3662
28582SOL     OW92606   0.780   5.576   4.367  0.6217  0.2307 -0.2981
28582SOL    HW192607   0.712   5.584   4.434 -0.0631  2.4370 -1.1807
28582SOL    HW292608   0.838   5.508   4.401  0.2510  1.1542  2.4997
28583SOL     OW92609   7.162  10.029   9.290 -0.3721  0.6506  0.1046
28583SOL    HW192610   7.084   9.997   9.245 -1.5234  1.6471  1.3006
28583SOL    HW292611   7.175  10.117   9.255  0.3203  0.4358 -0.1938
28584SOL     OW92612   0.500   6.892   5.290 -0.4408 -0.8475 -0.7313
28584SOL    HW192613   0.465   6.860   5.373 -1.7822  0.1440 -0.8784
28584SOL    HW292614   0.423   6.914   5.238  0.3839  0.0981 -1.6154
28585SOL     OW92615   4.298   4.046   4.493  0.3016 -0.3122 -0.2553
28585SOL    HW192616   4.227   4.109   4.485  0.1217 -0.6364 -1.3575
28585SOL    HW292617   4.337   4.065   4.579 -1.3644 -0.4023  0.5694
28586SOL     OW92618   2.585  12.333  10.369  0.0787  0.1956 -0.4106
28586SOL    HW192619   2.661  12.375  10.409 -1.4369  2.9654 -0.2190
28586SOL    HW292620   2.622  12.259  10.320  2.7936  1.0329  0.2062
28587SOL     OW92621   7.208   2.931   1.724  0.3657 -0.4481 -1.0072
28587SOL    HW192622   7.224   2.884   1.643  0.6499 -0.4851 -0.9332
28587SOL    HW292623   7.124   2.974   1.712  1.5726  1.7096 -2.3549
28588SOL     OW92624  11.202   9.662   1.714  0.2620  0.5806 -0.0066
28588SOL    HW192625  11.161   9.577   1.695  1.0716  0.0594  0.4849
28588SOL    HW292626  11.141   9.705   1.773  1.0361 -0.7932  1.8980
28589SOL     OW92627   2.309  11.008  10.783  0.8586  0.1941 -0.2462
28589SOL    HW192628   2.248  10.940  10.753  0.3687  0.1368  0.8365
28589SOL    HW292629   2.259  11.090  10.774  0.7495  0.1890  0.2750
28590SOL     OW92630   5.136   2.353   9.909  0.2932  0.8809 -0.5305
28590SOL    HW192631   5.070   2.289   9.884 -0.4690  1.3986  0.1348
28590SOL    HW292632   5.137   2.415   9.836 -1.4144  1.9874  0.3311
28591SOL     OW92633   9.526   6.706   4.600  0.1101  0.1175 -0.6085
28591SOL    HW192634   9.499   6.783   4.551  0.5262  0.5220 -0.1985
28591SOL    HW292635   9.469   6.705   4.677 -1.3551 -1.1563 -1.6130
28592SOL     OW92636   3.422   2.756   3.137  0.0045 -0.2771  0.6076
28592SOL    HW192637   3.506   2.770   3.094  0.7238 -2.6087  1.1224
28592SOL    HW292638   3.373   2.699   3.078 -0.0175 -1.3515  1.6146
28593SOL     OW92639   6.690   0.533  11.914 -0.1509 -0.4915 -0.2501
28593SOL    HW192640   6.735   0.595  11.856 -0.4691  0.1020  0.1252
28593SOL    HW292641   6.627   0.489  11.857  0.8053 -1.2370 -0.7489
28594SOL     OW92642   9.718   7.469   4.400  0.1612  0.1399  0.1301
28594SOL    HW192643   9.810   7.457   4.375 -0.1118  1.4221 -1.7737
28594SOL    HW292644   9.669   7.444   4.321 -0.9624  1.7053  0.2926
28595SOL     OW92645   8.152   9.918   5.845  0.1302  0.3373  0.5473
28595SOL    HW192646   8.102   9.988   5.886  0.5628  1.1782 -0.3484
28595SOL    HW292647   8.129   9.922   5.753 -0.5804 -1.3280  0.6139
28596SOL     OW92648   4.422   1.667  12.401  0.4745 -0.4207  0.0415
28596SOL    HW192649   4.361   1.726  12.355  1.3320  0.2657 -0.2502
28596SOL    HW292650   4.479   1.633  12.331  0.6981 -0.7229  0.3695
28597SOL     OW92651   0.340   9.739   9.559 -0.3817 -0.2355 -0.2267
28597SOL    HW192652   0.307   9.669   9.503 -1.9613 -1.4202  2.0476
28597SOL    HW292653   0.313   9.820   9.515  2.3961 -0.8527 -3.4648
28598SOL     OW92654   8.748   1.156   6.007 -0.0226 -0.1892  0.0240
28598SOL    HW192655   8.688   1.223   6.041  0.0638  1.0711 -2.1663
28598SOL    HW292656   8.707   1.126   5.926  2.1314  0.5107 -1.4004
28599SOL     OW92657  10.645   4.025   1.178  0.2140 -0.7076 -0.1721
28599SOL    HW192658  10.738   4.008   1.193  0.0934 -1.6355 -0.3930
28599SOL    HW292659  10.631   4.114   1.210  0.7526 -1.2592  1.7427
28600SOL     OW92660   9.964   5.555   4.067 -0.4083  0.1149 -0.0847
28600SOL    HW192661  10.008   5.616   4.127 -0.0545  0.8858 -1.1095
28600SOL    HW292662  10.022   5.549   3.992  0.2552 -2.5729  0.5263
28601SOL     OW92663   8.178   1.646   0.462 -0.2984  0.2031  0.8121
28601SOL    HW192664   8.241   1.649   0.390 -0.2624 -0.1066  0.8313
28601SOL    HW292665   8.184   1.557   0.497  0.1688  0.5535  1.6422
28602SOL     OW92666   5.074   7.793   4.627  0.0148 -0.4459  0.2834
28602SOL    HW192667   5.052   7.801   4.720  0.6059  0.5107  0.3648
28602SOL    HW292668   5.159   7.836   4.619  1.0909 -2.5409 -0.3058
28603SOL     OW92669   7.939   0.873  12.329  0.2690  0.0862 -0.6738
28603SOL    HW192670   7.879   0.915  12.390  0.0787 -0.0228 -0.7870
28603SOL    HW292671   7.982   0.804  12.381 -0.2580 -0.3393 -0.7924
28604SOL     OW92672   3.713  10.558  11.116  0.5924 -0.1423  0.8497
28604SOL    HW192673   3.809  10.554  11.122  0.4858 -1.3483  2.0542
28604SOL    HW292674   3.690  10.488  11.056  0.3811 -0.8333  1.7248
28605SOL     OW92675  11.145   7.464   9.763  0.4926  0.1070  0.0877
28605SOL    HW192676  11.125   7.542   9.814 -0.9592  0.4174 -0.8760
28605SOL    HW292677  11.144   7.393   9.826 -2.4608  0.3073  0.4033
28606SOL     OW92678   8.762   4.265   6.018  0.0389  0.1194  0.1493
28606SOL    HW192679   8.708   4.244   5.942 -0.1931 -3.0281  1.0277
28606SOL    HW292680   8.812   4.342   5.992 -2.2606  1.0309 -2.0001
28607SOL     OW92681  12.036   6.468   7.882  0.1557 -0.7158 -0.0031
28607SOL    HW192682  12.102   6.513   7.935  0.0561 -1.1399  0.4818
28607SOL    HW292683  11.996   6.538   7.830  0.5055 -0.3545  0.2089
28608SOL     OW92684   0.235  10.323   6.995 -0.2171 -0.6475  0.0023
28608SOL    HW192685   0.161  10.296   6.940  0.2107 -3.0276  0.4454
28608SOL    HW292686   0.307  10.337   6.934 -0.5316 -0.2760 -0.2828
28609SOL     OW92687   9.718   4.023   5.748 -0.1483  0.3061  0.7116
28609SOL    HW192688   9.756   3.948   5.701  1.3942  0.6828  1.2966
28609SOL    HW292689   9.653   4.058   5.688 -1.2166 -1.7340  0.5821
28610SOL     OW92690   4.501   8.894   5.264  0.1583  0.0385  0.6067
28610SOL    HW192691   4.440   8.948   5.215 -1.0078 -1.7201  0.0249
28610SOL    HW292692   4.580   8.948   5.272 -0.4442  1.2726 -1.1685
28611SOL     OW92693   5.225   6.334   5.116 -0.1142 -0.3200 -0.4002
28611SOL    HW192694   5.171   6.303   5.188 -2.5972 -0.4236 -2.1857
28611SOL    HW292695   5.259   6.419   5.145  0.5946 -1.2086  1.5886
28612SOL     OW92696  12.011   6.623  12.039 -0.5735  0.2879  0.1334
28612SOL    HW192697  11.939   6.620  11.977 -0.6802 -1.5026  0.2918
28612SOL    HW292698  12.089   6.607  11.985 -0.6397 -0.9995  0.3994
28613SOL     OW92699  11.593   8.093   8.354 -0.9438  0.2965 -0.2142
28613SOL    HW192700  11.616   8.000   8.359 -0.6647  0.3267 -0.8539
28613SOL    HW292701  11.543   8.110   8.434  0.1391 -0.0965  0.5704
28614SOL     OW92702   5.971   3.504   6.179  0.4001 -0.4583  0.2081
28614SOL    HW192703   6.056   3.530   6.215  1.4681 -1.8139 -1.1798
28614SOL    HW292704   5.992   3.434   6.117 -1.3758  1.1854 -2.4425
28615SOL     OW92705   0.204  11.956   0.029 -0.2921  0.7740 -0.0026
28615SOL    HW192706   0.267  11.986  -0.037  1.2557  1.3407  1.6378
28615SOL    HW292707   0.119  11.970  -0.011  0.5442 -1.5403 -2.9965
28616SOL     OW92708   9.053   0.832   8.156 -0.0030 -0.4829 -0.3644
28616SOL    HW192709   9.048   0.914   8.206 -0.2663 -0.0222 -1.1313
28616SOL    HW292710   9.086   0.768   8.219  0.0630  0.1760  0.2889
28617SOL     OW92711   5.979  11.151   0.222  0.5164  0.1235  0.4001
28617SOL    HW192712   5.943  11.063   0.219 -0.7166  0.5859  1.0391
28617SOL    HW292713   5.906  11.208   0.198  1.4899  0.9444 -0.8066
28618SOL     OW92714   6.755   0.095   0.341  0.1045 -0.5183  0.1487
28618SOL    HW192715   6.826   0.064   0.398  1.4741 -0.4138 -1.4282
28618SOL    HW292716   6.680   0.104   0.400  0.9281 -2.2218  1.5863
28619SOL     OW92717   2.690   7.016   2.552 -0.2188 -0.3675  0.2945
28619SOL    HW192718   2.646   7.101   2.557 -0.1884 -0.3132 -0.2855
28619SOL    HW292719   2.758   7.020   2.620 -0.5842 -0.1489  0.6521
28620SOL     OW92720   5.961   0.937   6.110  0.3125  0.0544  0.1792
28620SOL    HW192721   5.929   0.849   6.130  0.1802 -0.6093 -2.4903
28620SOL    HW292722   6.007   0.964   6.189 -0.1846 -2.1516  1.3232
28621SOL     OW92723   5.259   3.329   8.493  0.1139  0.2771  0.2118
28621SOL    HW192724   5.250   3.423   8.505  0.9002  0.6418 -1.6408
28621SOL    HW292725   5.335   3.305   8.546 -0.3381  0.5917  1.0167
28622SOL     OW92726   6.997   2.540   2.644  1.0292  0.1342  0.5648
28622SOL    HW192727   6.999   2.471   2.577  1.6412  1.0279 -0.3718
28622SOL    HW292728   7.056   2.608   2.610 -0.3119  1.5614  0.9786
28623SOL     OW92729   5.627   1.322   6.306 -0.2679 -0.2216  0.2915
28623SOL    HW192730   5.592   1.410   6.317 -1.0612 -0.6868  1.6729
28623SOL    HW292731   5.551   1.264   6.309 -0.0681 -0.8537 -3.0446
28624SOL     OW92732   8.632  11.317   3.966  0.6866 -0.3661  0.3564
28624SOL    HW192733   8.544  11.284   3.952 -0.3825  1.9851  0.9658
28624SOL    HW292734   8.671  11.316   3.878 -0.7087  0.4774 -0.3191
28625SOL     OW92735   7.571   9.048   2.596  0.3296 -0.1580 -0.1480
28625SOL    HW192736   7.627   9.118   2.564 -0.9077  0.1977 -1.6455
28625SOL    HW292737   7.485   9.089   2.607 -0.5592 -1.5117 -1.5583
28626SOL     OW92738  11.643   2.683  10.906 -0.6613 -0.0302 -0.4588
28626SOL    HW192739  11.594   2.748  10.855 -0.3911  1.4923  1.1599
28626SOL    HW292740  11.709   2.733  10.952  0.4682 -1.6654 -0.2168
28627SOL     OW92741   7.190  11.743  10.935  0.3032 -0.6190  0.2232
28627SOL    HW192742   7.233  11.692  11.004  0.6369  0.8184  1.1278
28627SOL    HW292743   7.247  11.819  10.923  0.7044 -1.2311 -2.2657
28628SOL     OW92744   6.302   9.039   7.117 -0.4475 -0.3971  0.1043
28628SOL    HW192745   6.221   9.090   7.104 -0.6783 -1.3271 -2.7803
28628SOL    HW292746   6.371   9.105   7.118 -1.0372  0.2380  0.3666
28629SOL     OW92747   9.071   5.921  11.373 -0.8193  0.1411 -0.0064
28629SOL    HW192748   9.075   5.854  11.441 -0.8070  0.8131  0.6761
28629SOL    HW292749   8.979   5.945  11.369 -0.7854  0.2600 -0.0689
28630SOL     OW92750   4.522   1.640   6.422 -0.5642  0.1612  0.3406
28630SOL    HW192751   4.534   1.613   6.331 -1.3028  1.2476 -0.0950
28630SOL    HW292752   4.465   1.716   6.417 -1.6026 -0.4877  1.8043
28631SOL     OW92753   9.475   5.866   9.361  0.1990  0.0700 -0.5277
28631SOL    HW192754   9.556   5.898   9.322 -0.1197  1.5243 -0.0590
28631SOL    HW292755   9.503   5.796   9.420  1.3357  1.5195  0.7497
28632SOL     OW92756   2.746   3.687  10.455 -0.5918 -0.3043  1.1211
28632SOL    HW192757   2.788   3.601  10.450 -0.6381 -0.2474 -1.2247
28632SOL    HW292758   2.716   3.705  10.366 -1.0948  1.9090  1.6653
28633SOL     OW92759  10.920   3.131   1.459  0.6775  0.2019 -0.1645
28633SOL    HW192760  10.877   3.202   1.412 -1.1064 -0.1470  0.8279
28633SOL    HW292761  11.000   3.169   1.493 -0.5833  2.0136  0.9588
28634SOL     OW92762  10.567   8.393   4.388 -0.7357  0.2353 -0.2330
28634SOL    HW192763  10.641   8.411   4.331  1.5710 -1.3120  2.0768
28634SOL    HW292764  10.510   8.469   4.378  0.1816  0.6276 -3.4757
28635SOL     OW92765  10.941   1.202   2.015  0.2443 -0.1054 -0.0851
28635SOL    HW192766  10.920   1.157   2.097  2.4057 -0.3998  0.3644
28635SOL    HW292767  10.928   1.295   2.035 -0.0800 -0.2343  0.3176
28636SOL     OW92768   8.689   8.631   9.961  0.4258 -0.2463 -0.9436
28636SOL    HW192769   8.649   8.568  10.021  1.1531  1.3806  1.3369
28636SOL    HW292770   8.755   8.580   9.913 -0.2038 -1.5867 -0.4386
28637SOL     OW92771   3.328   6.500  10.982  0.6572  0.4391  0.1827
28637SOL    HW192772   3.234   6.498  10.999  0.9220 -2.7188  1.9166
28637SOL    HW292773   3.365   6.547  11.057  0.6622 -1.0917  1.1770
28638SOL     OW92774  11.495  11.006   4.639 -0.5201  0.2805  0.3447
28638SOL    HW192775  11.538  10.921   4.627  0.6097  0.7668  0.7878
28638SOL    HW292776  11.420  11.003   4.580  0.8178 -0.1554 -1.4337
28639SOL     OW92777   5.487   7.931   3.784 -0.1231  0.1773 -0.2230
28639SOL    HW192778   5.548   8.005   3.786  0.9778 -0.4944 -3.2460
28639SOL    HW292779   5.506   7.881   3.863  0.6468  1.9464  0.7534
28640SOL     OW92780   3.893   7.541  10.412  0.7487 -0.4600 -0.7314
28640SOL    HW192781   3.936   7.565  10.494  0.4564 -1.2195 -0.3550
28640SOL    HW292782   3.962   7.551  10.346  0.6177  1.5546 -0.6394
28641SOL     OW92783   5.503  10.374   2.055 -0.8374  0.2351  0.1204
28641SOL    HW192784   5.580  10.427   2.035 -0.5646  0.2325  1.1215
28641SOL    HW292785   5.440  10.436   2.092 -0.5270 -0.1047  1.2702
28642SOL     OW92786  11.803   9.265   5.491  0.5159  0.1297 -0.1058
28642SOL    HW192787  11.765   9.349   5.466 -0.5367 -0.5266 -0.8142
28642SOL    HW292788  11.796   9.263   5.587  1.2408  1.1507 -0.0232
28643SOL     OW92789   4.882   5.074   4.930  0.2519 -0.1079  0.4539
28643SOL    HW192790   4.788   5.071   4.912  0.3710 -1.6300 -0.0781
28643SOL    HW292791   4.918   5.125   4.858 -0.0364 -0.5755 -0.0299
28644SOL     OW92792   1.690   3.606   1.727  0.0786  0.1831  0.0680
28644SOL    HW192793   1.651   3.627   1.642  2.5929  1.6583 -0.8430
28644SOL    HW292794   1.668   3.682   1.782 -0.5175 -0.2038  0.3691
28645SOL     OW92795   3.401   3.719   2.342  0.3000  0.1818 -0.1947
28645SOL    HW192796   3.397   3.788   2.275  2.1545  0.0794 -0.4620
28645SOL    HW292797   3.470   3.660   2.311  0.2056 -0.6402  1.1060
28646SOL     OW92798   3.740   4.978   2.081  0.2901  0.2066 -0.5152
28646SOL    HW192799   3.803   5.036   2.038 -0.7023  0.5891 -1.4945
28646SOL    HW292800   3.658   4.991   2.033 -0.4401 -0.5901  0.4654
28647SOL     OW92801   8.575   4.531   0.411  0.2397  0.2275 -0.4570
28647SOL    HW192802   8.517   4.556   0.483 -2.5510 -2.1661 -1.6749
28647SOL    HW292803   8.590   4.438   0.424 -0.0495 -0.1804 -2.7326
28648SOL     OW92804  11.528   9.345   6.931 -0.1197 -0.0632 -0.1228
28648SOL    HW192805  11.596   9.412   6.940 -1.4903  1.2956  0.7477
28648SOL    HW292806  11.510   9.341   6.837  0.8399 -0.1296 -0.3115
28649SOL     OW92807   7.278  12.019   8.996  0.1583  0.0062 -0.0757
28649SOL    HW192808   7.346  11.972   8.949  0.2132  0.9031 -0.9178
28649SOL    HW292809   7.196  11.988   8.957 -0.0389 -1.8457  1.6279
28650SOL     OW92810   8.282   2.899   3.697 -0.1871 -0.1474  0.0749
28650SOL    HW192811   8.217   2.969   3.710 -0.2652 -0.3964  1.1239
28650SOL    HW292812   8.366   2.944   3.691 -0.0982 -0.0067  1.9090
28651SOL     OW92813   7.426   4.081   0.531  0.2014 -0.4631 -0.3729
28651SOL    HW192814   7.337   4.111   0.553  0.8683  0.4249  1.2876
28651SOL    HW292815   7.435   3.998   0.576  0.4564 -0.2103  0.0433
28652SOL     OW92816  10.800   1.346   2.782 -0.5443  0.2031 -0.2961
28652SOL    HW192817  10.849   1.266   2.798 -0.1688  0.7723  1.7380
28652SOL    HW292818  10.711   1.317   2.766 -0.6970 -0.6218  1.7053
28653SOL     OW92819   4.038   4.930   7.213  0.1051 -0.1629 -0.7320
28653SOL    HW192820   4.073   4.858   7.266  0.6689  0.6517  0.0343
28653SOL    HW292821   3.952   4.949   7.252  1.2326  1.5653  1.0443
28654SOL     OW92822   6.935  10.230   5.115  0.5443 -0.2898 -0.4039
28654SOL    HW192823   6.852  10.257   5.152  0.2225  0.3731 -1.5457
28654SOL    HW292824   6.943  10.137   5.136 -0.2254 -0.2259  0.1761
28655SOL     OW92825   4.720   0.651  11.195  0.3384  0.0068  0.2281
28655SOL    HW192826   4.626   0.633  11.199  0.5073 -1.1970 -0.6421
28655SOL    HW292827   4.739   0.661  11.102  1.2520 -0.8698  0.3023
28656SOL     OW92828   4.665   8.112   5.843  0.4265 -0.0529 -0.1068
28656SOL    HW192829   4.715   8.174   5.897 -0.0651  0.9635 -0.7913
28656SOL    HW292830   4.594   8.164   5.806 -1.3836 -1.5270  1.0835
28657SOL     OW92831  10.244   8.908   9.210 -0.3719  0.0986 -0.0129
28657SOL    HW192832  10.199   8.851   9.271 -0.6643 -1.0012 -1.2146
28657SOL    HW292833  10.283   8.977   9.265 -0.9848 -0.6042  1.3352
28658SOL     OW92834  11.148   8.371  11.294 -0.4540  0.1852 -0.2681
28658SOL    HW192835  11.154   8.415  11.380  0.0292 -0.6536  0.1358
28658SOL    HW292836  11.068   8.406  11.255 -0.0947  1.4186  0.0490
28659SOL     OW92837   3.143   7.519   6.826 -0.1097  0.6045  0.4442
28659SOL    HW192838   3.228   7.485   6.800  0.1402  0.1326  1.8211
28659SOL    HW292839   3.124   7.588   6.762  0.2028 -0.8596 -1.3131
28660SOL     OW92840   2.635   9.403   3.285 -0.2272  0.4293  0.1121
28660SOL    HW192841   2.605   9.483   3.327 -1.4726  0.3590 -0.5716
28660SOL    HW292842   2.576   9.393   3.210 -0.4153 -1.3681  0.4564
28661SOL     OW92843   5.116   0.223   1.533  0.1232 -0.4459  0.1042
28661SOL    HW192844   5.149   0.263   1.453  0.2634 -1.2062 -0.2316
28661SOL    HW292845   5.121   0.292   1.599 -0.2544  0.2665 -0.6070
28662SOL     OW92846   0.576   3.268   6.598 -0.1481  0.0034  0.0598
28662SOL    HW192847   0.508   3.222   6.548 -0.6957 -0.0383  0.8295
28662SOL    HW292848   0.533   3.346   6.631  0.1798 -0.0190  0.5516
28663SOL     OW92849   2.582   2.458   1.602 -0.1301  0.4966 -0.2122
28663SOL    HW192850   2.572   2.446   1.697 -1.1189 -0.0241 -0.3625
28663SOL    HW292851   2.629   2.380   1.573 -1.1943 -0.1050 -0.3532
28664SOL     OW92852  11.820   9.966  11.909 -0.0548 -0.4382  0.0864
28664SOL    HW192853  11.803   9.888  11.855  0.2042 -0.8771  0.6320
28664SOL    HW292854  11.892   9.940  11.966 -0.5201 -0.0640  0.8475
28665SOL     OW92855  10.184   7.615   6.701  0.1754  0.0916 -0.2689
28665SOL    HW192856  10.166   7.638   6.792 -1.3750  0.2075 -0.5749
28665SOL    HW292857  10.231   7.532   6.706 -0.2961 -0.1364  0.6193
28666SOL     OW92858   5.921  10.939   9.294  0.6135 -0.1194  0.7626
28666SOL    HW192859   5.838  10.974   9.260  1.2733  0.2750 -0.4950
28666SOL    HW292860   5.910  10.940   9.389 -0.5915  0.5259  0.6389
28667SOL     OW92861  11.176   3.666   2.774 -0.3853  0.6055  0.2985
28667SOL    HW192862  11.266   3.664   2.741 -0.5948 -1.5776 -0.3233
28667SOL    HW292863  11.160   3.758   2.796  1.5592  1.2447 -0.7347
28668SOL     OW92864   2.688   7.355   7.229 -0.5392 -0.2056  0.1217
28668SOL    HW192865   2.619   7.308   7.277 -1.5881 -1.4253 -2.3494
28668SOL    HW292866   2.643   7.387   7.151  1.6248 -0.8316 -1.4614
28669SOL     OW92867   7.902   7.237   1.557  0.0489 -0.1324  0.0648
28669SOL    HW192868   7.947   7.319   1.534 -0.7540  0.3977  0.3245
28669SOL    HW292869   7.925   7.222   1.648  1.1257 -0.8241 -0.3129
28670SOL     OW92870   9.209   1.192   6.560  0.2362  0.0162  0.1605
28670SOL    HW192871   9.184   1.266   6.615  1.0198  0.5496 -0.1882
28670SOL    HW292872   9.159   1.204   6.479 -0.0592 -0.1458  0.3181
28671SOL     OW92873   3.583   8.770   6.438  0.3443 -0.5652 -0.3527
28671SOL    HW192874   3.527   8.720   6.496  1.4197  0.7329  1.9473
28671SOL    HW292875   3.564   8.862   6.459  2.5264 -0.0900 -0.2309
28672SOL     OW92876   0.560   3.779   0.703  0.6826 -0.1662 -0.2678
28672SOL    HW192877   0.469   3.764   0.675 -0.0589  1.1782  1.2339
28672SOL    HW292878   0.591   3.848   0.645 -0.3477  1.5599  1.1220
28673SOL     OW92879   6.456   3.821   4.129 -0.1941 -0.1803  1.0155
28673SOL    HW192880   6.503   3.883   4.185  2.6750 -1.2406 -0.0442
28673SOL    HW292881   6.491   3.837   4.041  1.2082 -3.6720  0.8075
28674SOL     OW92882  11.639   7.849  11.255  0.3724  0.3130  0.1563
28674SOL    HW192883  11.600   7.929  11.220 -0.4056  0.2594  0.8609
28674SOL    HW292884  11.668   7.873  11.343 -1.4774 -0.5986  1.0766
28675SOL     OW92885   7.382  10.709   2.964 -0.1485  0.3833  0.6229
28675SOL    HW192886   7.354  10.644   3.029 -2.5927 -0.7051 -1.3246
28675SOL    HW292887   7.428  10.658   2.898  2.4931  1.5050  1.4925
28676SOL     OW92888   0.962   0.630   0.708 -0.2142  0.0622  0.4661
28676SOL    HW192889   0.910   0.565   0.662 -0.8852 -0.4053  1.8242
28676SOL    HW292890   1.052   0.598   0.703  0.0482  0.9843 -2.0851
28677SOL     OW92891   5.208   8.179   4.791 -0.3051  0.2627 -0.2319
28677SOL    HW192892   5.224   8.179   4.885  0.4755 -0.9408 -0.3506
28677SOL    HW292893   5.115   8.157   4.783 -0.2142 -0.3143  0.2416
28678SOL     OW92894   8.463   6.247   4.993  0.0819 -0.4247 -0.1495
28678SOL    HW192895   8.510   6.175   4.951 -1.2859 -0.2344 -2.1293
28678SOL    HW292896   8.386   6.206   5.031 -0.2545 -0.1295 -0.5141
28679SOL     OW92897   1.215   3.059   4.358  0.5449 -0.1255  0.1437
28679SOL    HW192898   1.285   3.099   4.306 -0.6484  0.8094 -0.8291
28679SOL    HW292899   1.154   3.131   4.375 -1.8009 -1.4899 -1.8607
28680SOL     OW92900  10.623   4.244   5.388  0.2583 -0.0810  0.0874
28680SOL    HW192901  10.532   4.249   5.417 -0.2827  2.6727 -1.7210
28680SOL    HW292902  10.650   4.154   5.408 -3.0366 -1.1931  0.1032
28681SOL     OW92903   5.467   7.386   2.044 -0.3387 -0.4556  0.0013
28681SOL    HW192904   5.447   7.464   2.096  1.4182  0.2273 -0.2858
28681SOL    HW292905   5.477   7.317   2.110 -1.8544 -0.4719  0.2617
28682SOL     OW92906   8.525   9.905   1.175  0.1006 -0.6467  0.0167
28682SOL    HW192907   8.526   9.983   1.121 -0.0141 -1.8917 -1.8879
28682SOL    HW292908   8.577   9.841   1.126 -1.5856 -2.4385  0.4344
28683SOL     OW92909  10.290   0.314  11.663 -0.0382 -0.4113  1.1552
28683SOL    HW192910  10.367   0.321  11.607  0.4745 -1.4921  1.6861
28683SOL    HW292911  10.250   0.401  11.661  0.9039  0.0197  0.4573
28684SOL     OW92912   5.921   1.402   5.779 -0.4496  0.7623  0.4001
28684SOL    HW192913   5.881   1.372   5.697  0.2269  0.4129  0.1893
28684SOL    HW292914   5.945   1.321   5.824  0.0224  0.9693  0.5225
28685SOL     OW92915   9.206   0.618   3.109  0.2040 -0.2728  0.5778
28685SOL    HW192916   9.281   0.571   3.145 -0.3649 -1.3439  0.3950
28685SOL    HW292917   9.241   0.704   3.085  1.7767 -1.2952 -1.0383
28686SOL     OW92918   7.470   9.981   4.301  0.2605 -0.0844 -0.5375
28686SOL    HW192919   7.417  10.061   4.297 -0.9732 -0.6377  2.4525
28686SOL    HW292920   7.530   9.996   4.373 -0.4516 -2.0849  0.5377
28687SOL     OW92921  10.995   6.262  11.047 -0.0967  0.4412 -0.3407
28687SOL    HW192922  11.086   6.286  11.060 -0.6132  1.8018  1.0369
28687SOL    HW292923  10.985   6.255  10.952  1.1715  1.2817 -0.5592
28688SOL     OW92924   2.760  11.860   2.709 -0.3136  0.0770 -0.8139
28688SOL    HW192925   2.795  11.948   2.714  0.1571 -0.1121 -0.7746
28688SOL    HW292926   2.797  11.823   2.629 -1.2275  0.2243 -1.3175
28689SOL     OW92927   1.240   9.742  11.533  0.8748 -0.0330  0.2040
28689SOL    HW192928   1.239   9.773  11.443 -1.9555 -1.8119 -0.4780
28689SOL    HW292929   1.327   9.767  11.566  1.1403  2.7610 -2.2002
28690SOL     OW92930   4.743   6.715   1.710  0.2183 -0.4886 -0.3865
28690SOL    HW192931   4.797   6.741   1.635 -0.5507  1.3394 -0.3668
28690SOL    HW292932   4.802   6.723   1.785  0.6455 -1.1344 -0.6392
28691SOL     OW92933  11.650   6.690   2.426 -0.1103  0.5034 -0.2038
28691SOL    HW192934  11.632   6.660   2.336 -0.4319  1.0032 -0.3110
28691SOL    HW292935  11.581   6.650   2.478 -0.2846  0.7039 -0.2788
28692SOL     OW92936   6.023   2.707   0.344  0.1978  0.4538  0.2616
28692SOL    HW192937   6.069   2.750   0.415 -0.7495  0.7972  0.6838
28692SOL    HW292938   6.002   2.620   0.378  1.5708 -0.1433 -0.3676
28693SOL     OW92939   3.079   5.483   4.150  0.3492 -0.4659 -0.0392
28693SOL    HW192940   3.128   5.462   4.229  0.5838 -0.1485 -0.0986
28693SOL    HW292941   3.074   5.401   4.101  1.0423 -0.4358 -0.1584
28694SOL     OW92942   8.834   7.515   6.555  0.0391 -0.2210 -0.8447
28694SOL    HW192943   8.749   7.498   6.596  0.4822 -0.0455  0.1724
28694SOL    HW292944   8.839   7.611   6.551 -0.3007 -0.2413 -1.9664
28695SOL     OW92945   4.677   0.722  11.892 -0.1513 -0.1696  0.4642
28695SOL    HW192946   4.643   0.768  11.815 -1.9636 -1.7411  0.2511
28695SOL    HW292947   4.769   0.704  11.871 -0.1233  1.0184 -0.5307
28696SOL     OW92948   8.316   2.269   6.625 -0.0390 -0.4089 -0.3171
28696SOL    HW192949   8.381   2.206   6.594  1.1414  1.2605 -1.4037
28696SOL    HW292950   8.355   2.307   6.704 -1.2013 -1.7011  0.9318
28697SOL     OW92951   2.777   2.513   3.735  0.1108  1.0017 -0.6016
28697SOL    HW192952   2.803   2.571   3.663  1.7572  2.2941  0.9170
28697SOL    HW292953   2.747   2.433   3.693 -0.7381  2.3785 -2.7530
28698SOL     OW92954  10.834   3.107   7.616 -0.0408  0.0023 -0.1026
28698SOL    HW192955  10.909   3.165   7.619 -0.8101  1.0688 -0.7902
28698SOL    HW292956  10.871   3.020   7.600  1.0118  0.5565 -0.7361
28699SOL     OW92957  10.568   3.324   3.236 -0.1067 -0.2679  0.0845
28699SOL    HW192958  10.589   3.281   3.154  0.5102  0.1380  0.0247
28699SOL    HW292959  10.475   3.347   3.228 -0.1756 -0.6810 -0.2876
28700SOL     OW92960   5.960   5.621  12.037  0.1443  0.2869  0.1896
28700SOL    HW192961   5.924   5.639  12.124  0.5930 -0.4720  0.5426
28700SOL    HW292962   6.047   5.663  12.039 -1.0623  3.1692 -1.0686
28701SOL     OW92963   9.656  11.676   5.322 -0.1866  0.3575  0.0290
28701SOL    HW192964   9.735  11.625   5.303 -0.6740 -0.1721 -0.6073
28701SOL    HW292965   9.667  11.756   5.271 -0.0281  0.3181  0.0009
28702SOL     OW92966   1.359  11.899   8.452  0.0988  0.3054 -0.1310
28702SOL    HW192967   1.328  11.833   8.389 -0.9172 -0.4976  1.1634
28702SOL    HW292968   1.454  11.897   8.442  0.1523 -1.7610  0.2131
28703SOL     OW92969   3.536  11.802   9.725  0.1545 -0.0229 -0.3513
28703SOL    HW192970   3.496  11.811   9.639 -2.7179 -3.0314  0.4482
28703SOL    HW292971   3.473  11.841   9.785 -0.2502 -2.1233  0.6978
28704SOL     OW92972  12.362   7.091   6.636  0.1821  0.4379  0.4479
28704SOL    HW192973  12.451   7.064   6.615 -0.2860 -0.7721 -0.0903
28704SOL    HW292974  12.332   7.138   6.558  0.7720  2.0037  1.1318
28705SOL     OW92975   1.291   4.108   1.587  0.1969 -0.4575  0.6669
28705SOL    HW192976   1.198   4.116   1.606  0.0578 -0.9360  0.2043
28705SOL    HW292977   1.312   4.017   1.607  0.3096 -0.6541 -0.2996
28706SOL     OW92978  12.086  12.416  10.249 -0.2640 -0.9769  0.4639
28706SOL    HW192979  12.142  12.471  10.303 -0.4529 -0.4942  0.1809
28706SOL    HW292980  12.023  12.478  10.210 -0.3380 -1.3596 -0.0360
28707SOL     OW92981   4.903   8.021   0.565 -0.0031 -0.4201  0.5530
28707SOL    HW192982   4.816   8.007   0.527 -0.6301  0.8128  1.4722
28707SOL    HW292983   4.897   8.104   0.611  1.6656 -0.3253  0.6826
28708SOL     OW92984   4.395   2.907  11.335 -0.5129 -0.3980  0.0876
28708SOL    HW192985   4.366   2.851  11.263  0.8528  1.0126 -1.6481
28708SOL    HW292986   4.349   2.873  11.412 -2.0808 -1.9287 -1.4416
28709SOL     OW92987   7.251  12.024   2.991 -0.4646  0.1727  0.3313
28709SOL    HW192988   7.198  11.945   2.984 -0.3522  0.0816  0.5449
28709SOL    HW292989   7.224  12.076   2.915  0.0184 -0.3988 -0.2404
28710SOL     OW92990   8.437   5.929   0.799  0.1998 -0.3176 -0.0932
28710SOL    HW192991   8.528   5.935   0.829  0.3863  2.8169 -0.8780
28710SOL    HW292992   8.385   5.925   0.879  0.9421  1.1669  0.4932
28711SOL     OW92993   3.442   4.160   3.845 -0.4664 -0.2866 -0.2744
28711SOL    HW192994   3.533   4.134   3.831  0.0485  1.5373 -0.6522
28711SOL    HW292995   3.404   4.161   3.758 -1.0010 -1.4678 -0.0728
28712SOL     OW92996   0.625   7.081  11.565  0.5761  0.0225  0.7315
28712SOL    HW192997   0.578   7.157  11.531 -2.9577 -0.6864  3.4814
28712SOL    HW292998   0.574   7.006  11.534  0.7990 -0.8999  2.5153
28713SOL     OW92999   5.567   3.743   8.980 -0.1436 -0.7266  0.4687
28713SOL    HW193000   5.509   3.696   9.040  1.1149 -0.7147  1.7624
28713SOL    HW293001   5.654   3.709   8.999  0.5811  0.9097  0.2538
28714SOL     OW93002   2.463   7.220   6.437  0.5393 -0.3278  0.1677
28714SOL    HW193003   2.492   7.173   6.516 -0.2734 -1.8941 -0.4263
28714SOL    HW293004   2.480   7.312   6.457  0.0583 -0.6389  2.3232
28715SOL     OW93005  11.974   3.889   4.934 -0.4627  0.2278  0.0727
28715SOL    HW193006  11.962   3.933   5.017 -1.1350  0.3565 -0.0887
28715SOL    HW293007  12.030   3.814   4.954 -1.4549 -0.3320  0.8412
28716SOL     OW93008   3.231  12.237  10.023  0.2086 -0.4200  0.5942
28716SOL    HW193009   3.224  12.167  10.087  0.9968 -0.0957  1.0432
28716SOL    HW293010   3.211  12.317  10.071  0.3056 -0.2269  0.3187
28717SOL     OW93011  10.530   7.678   6.428  0.3345 -0.3993 -0.3476
28717SOL    HW193012  10.501   7.730   6.503  0.1101  0.2114 -0.8485
28717SOL    HW293013  10.514   7.735   6.352  1.8677 -0.4566 -0.7425
28718SOL     OW93014  10.843   3.115   6.177  0.4386  0.0706  0.4013
28718SOL    HW193015  10.772   3.177   6.156  0.6553  0.1750 -0.0250
28718SOL    HW293016  10.880   3.092   6.092  0.6538 -0.3001  0.5965
28719SOL     OW93017   2.571  10.153   1.079  0.0352  0.0888 -0.4022
28719SOL    HW193018   2.583  10.248   1.074  4.0516 -0.1883  0.6887
28719SOL    HW293019   2.624  10.118   1.008  0.5542 -1.3673  0.6433
28720SOL     OW93020   3.644  10.127   4.810 -0.2347 -0.0536  0.7381
28720SOL    HW193021   3.631  10.048   4.862 -0.3970 -0.3303  0.2815
28720SOL    HW293022   3.556  10.163   4.799 -0.2742 -0.3266  0.1404
28721SOL     OW93023  10.842   0.431   0.351 -0.0232 -0.0773  0.4774
28721SOL    HW193024  10.769   0.371   0.368 -1.7516  1.8384  0.1920
28721SOL    HW293025  10.909   0.376   0.309 -1.6114 -1.7364 -0.0359
28722SOL     OW93026   0.809  10.479   7.938 -0.6151  0.2645 -0.0706
28722SOL    HW193027   0.764  10.395   7.947 -0.4220  0.0539 -0.9625
28722SOL    HW293028   0.843  10.497   8.026  0.0640 -0.9999 -0.0440
28723SOL     OW93029   0.858   5.272   2.353  0.4713 -0.2380 -0.3222
28723SOL    HW193030   0.846   5.224   2.435  1.6804  1.3507  0.8203
28723SOL    HW293031   0.769   5.282   2.319 -0.1964  0.2206  1.4569
28724SOL     OW93032   6.399   6.065   9.515 -0.1539  0.1608 -0.7261
28724SOL    HW193033   6.487   6.026   9.507 -0.4134 -0.7088  0.3038
28724SOL    HW293034   6.343   5.991   9.536 -0.7935  0.9802  0.6118
28725SOL     OW93035   9.017  11.271   9.430 -0.4229  0.2688 -0.4818
28725SOL    HW193036   9.032  11.329   9.505 -2.1658 -0.2866  0.3340
28725SOL    HW293037   9.009  11.184   9.469 -2.5128  0.1289 -1.1567
28726SOL     OW93038   9.995   6.093   6.650  0.0956  0.1025 -0.1382
28726SOL    HW193039   9.963   6.181   6.630  0.8990  0.5451  0.4328
28726SOL    HW293040  10.055   6.106   6.724 -0.4521 -1.0505  0.5383
28727SOL     OW93041   7.629   8.055   5.426 -0.1279  0.3988 -0.8844
28727SOL    HW193042   7.603   8.000   5.500 -2.1716  1.6641 -0.5841
28727SOL    HW293043   7.661   7.993   5.360 -0.0767 -0.9102  0.3224
28728SOL     OW93044   5.543   5.426  10.421 -0.9692 -0.3468  0.2891
28728SOL    HW193045   5.463   5.443  10.371  0.0217 -1.1805 -1.6908
28728SOL    HW293046   5.517   5.362  10.487 -2.3346  0.8225  0.9290
28729SOL     OW93047   0.990  10.470   2.458  0.3877 -0.4805  1.2072
28729SOL    HW193048   1.082  10.491   2.443  0.5805 -1.0329  1.6031
28729SOL    HW293049   0.968  10.409   2.388 -0.5005  1.8265 -0.6791
28730SOL     OW93050   7.533   4.658   9.198 -0.1307  0.6848 -0.3114
28730SOL    HW193051   7.615   4.680   9.152  1.0991 -0.4649  1.2042
28730SOL    HW293052   7.464   4.689   9.139  1.3521  0.1743 -2.4543
28731SOL     OW93053   3.151  11.158   2.308 -0.2223  0.7363  0.0585
28731SOL    HW193054   3.106  11.186   2.387 -1.7371 -0.4804 -0.3148
28731SOL    HW293055   3.207  11.086   2.337 -0.5613  0.4778  0.0729
28732SOL     OW93056   0.382   1.416   8.806 -0.6049 -0.3235  0.7146
28732SOL    HW193057   0.402   1.440   8.896 -0.4013 -0.3724  0.6817
28732SOL    HW293058   0.356   1.324   8.811  1.3915 -0.9381  0.4433
28733SOL     OW93059   8.011   9.066   6.505  0.1940 -0.5513 -0.1001
28733SOL    HW193060   8.071   9.029   6.440 -2.4145 -2.0604 -1.7978
28733SOL    HW293061   8.022   9.161   6.494  0.2042 -0.7499 -2.4414
28734SOL     OW93062  10.878  11.291   4.037 -0.4620 -0.1029 -0.3328
28734SOL    HW193063  10.849  11.301   4.128 -1.5062 -0.4788 -0.6040
28734SOL    HW293064  10.960  11.243   4.043  0.2724  1.1985  0.4931
28735SOL     OW93065   4.547   4.279   4.596 -0.5014  0.1649 -0.4903
28735SOL    HW193066   4.641   4.262   4.588 -0.7451 -0.7907 -1.5486
28735SOL    HW293067   4.513   4.204   4.644 -0.6858  0.6835  0.2070
28736SOL     OW93068   9.714   7.303   8.605  0.1344 -0.1417 -0.7868
28736SOL    HW193069   9.680   7.368   8.544  1.0811  1.0681 -0.0816
28736SOL    HW293070   9.694   7.219   8.564 -0.3167  0.6023 -2.1661
28737SOL     OW93071   8.301   4.225   3.560  0.8804 -0.5614  0.2420
28737SOL    HW193072   8.218   4.200   3.520  0.6185  0.9542 -0.2151
28737SOL    HW293073   8.345   4.279   3.494  1.9716 -0.8426  0.7046
28738SOL     OW93074   7.887   5.324  10.943  0.3226 -0.3106 -0.0909
28738SOL    HW193075   7.797   5.335  10.913  0.2046 -0.5687  0.1658
28738SOL    HW293076   7.939   5.320  10.862 -0.0599 -1.5376 -0.2936
28739SOL     OW93077  10.495   9.885   4.964  0.4674 -0.0433  0.3175
28739SOL    HW193078  10.553   9.811   4.977 -0.0306 -0.4511  0.2382
28739SOL    HW293079  10.489   9.895   4.868 -2.0264 -1.9941  0.1431
28740SOL     OW93080  10.596   8.006   6.093  0.2649  0.3383  0.3132
28740SOL    HW193081  10.503   7.990   6.077  0.5462  1.5337 -3.4393
28740SOL    HW293082  10.597   8.075   6.159 -1.4842 -0.0575  0.8030
28741SOL     OW93083   0.866   3.496  10.762 -0.7647  0.1688  0.0166
28741SOL    HW193084   0.859   3.434  10.835  0.3900  0.2744  0.2304
28741SOL    HW293085   0.956   3.528  10.766 -1.0986  1.2412 -0.6002
28742SOL     OW93086   4.417   1.732   4.779  0.5934 -0.6815 -0.2088
28742SOL    HW193087   4.343   1.784   4.749 -1.5402 -2.7085  1.2033
28742SOL    HW293088   4.453   1.693   4.699  1.3291  1.6488 -1.1063
28743SOL     OW93089  11.365   5.716   2.370  0.0657  0.4472  0.3689
28743SOL    HW193090  11.432   5.754   2.313  1.4479 -1.5869  0.5679
28743SOL    HW293091  11.315   5.657   2.313 -1.0394  1.2775  0.4302
28744SOL     OW93092   4.005   3.027  10.754  0.3906 -0.8801  0.3409
28744SOL    HW193093   3.926   2.990  10.795  0.9402 -1.6325  0.7555
28744SOL    HW293094   3.980   3.041  10.663 -1.2605  2.0100  1.1220
28745SOL     OW93095   0.318   5.447   8.009 -0.0534 -0.1933  0.5844
28745SOL    HW193096   0.305   5.541   8.022  0.2291 -0.1224  0.3698
28745SOL    HW293097   0.304   5.408   8.096 -0.2559  0.0368  0.6543
28746SOL     OW93098   0.716  11.215  11.673 -0.1604 -0.2296  0.3504
28746SOL    HW193099   0.670  11.231  11.756  1.8145  1.9979  1.1124
28746SOL    HW293100   0.729  11.301  11.635  0.4540 -1.0848 -1.5033
28747SOL     OW93101  10.921   5.537   0.936 -0.1654  0.2703 -0.2432
28747SOL    HW193102  10.931   5.632   0.922  0.7973  0.3510  0.8384
28747SOL    HW293103  11.006   5.509   0.971 -0.3927 -1.0317 -0.6726
28748SOL     OW93104  10.942   4.015   9.867  0.6754 -0.1023 -0.9998
28748SOL    HW193105  10.868   4.053   9.915  0.3179  0.1432 -1.7211
28748SOL    HW293106  10.901   3.959   9.801  1.1976 -2.8672  0.8768
28749SOL     OW93107   6.511   6.166   5.098  0.2606  0.4985  0.4230
28749SOL    HW193108   6.563   6.118   5.033 -0.3278  0.6417 -0.1686
28749SOL    HW293109   6.494   6.101   5.166 -1.2454 -0.4330 -0.7663
28750SOL     OW93110   9.444  11.868   0.667 -0.1902  0.1145  0.4243
28750SOL    HW193111   9.432  11.961   0.650  0.6028  0.1665  0.1001
28750SOL    HW293112   9.425  11.826   0.583 -1.0920 -0.0776  0.7100
28751SOL     OW93113   3.616   3.707   7.997 -0.7118 -0.1480 -0.1545
28751SOL    HW193114   3.666   3.784   8.026  2.2717 -2.4440  1.3099
28751SOL    HW293115   3.537   3.708   8.051 -1.5293  2.5945 -1.2029
28752SOL     OW93116   2.058   7.502   5.907  0.2140  0.0197  0.4447
28752SOL    HW193117   2.114   7.515   5.983  2.0135 -1.4918 -0.5297
28752SOL    HW293118   2.085   7.569   5.844  0.0092  0.1235  0.4675
28753SOL     OW93119   2.352  10.319  10.864  0.0446 -0.2818 -0.0497
28753SOL    HW193120   2.413  10.372  10.811  1.4666  0.1263  1.8751
28753SOL    HW293121   2.314  10.382  10.925 -1.3968 -0.7818 -0.4077
28754SOL     OW93122   2.928   9.594   8.759 -0.0600  0.1881  0.2900
28754SOL    HW193123   2.902   9.552   8.841 -0.1821  2.0966  1.2816
28754SOL    HW293124   3.000   9.540   8.726  0.5947 -0.1289  2.1223
28755SOL     OW93125   3.680   8.386   4.288 -0.2844  0.3107 -0.4787
28755SOL    HW193126   3.631   8.308   4.264  0.9764 -0.8313  0.4780
28755SOL    HW293127   3.628   8.427   4.357  0.3726 -1.2679  1.0255
28756SOL     OW93128   3.299   9.181   4.055 -0.0728  0.8486 -0.0326
28756SOL    HW193129   3.385   9.209   4.087  0.3453  1.0010 -1.2460
28756SOL    HW293130   3.312   9.165   3.961 -1.5684  1.7114 -0.4191
28757SOL     OW93131   9.729   6.262   9.754 -0.3649 -0.1739  0.2927
28757SOL    HW193132   9.709   6.323   9.826  1.1090 -0.3715  0.9122
28757SOL    HW293133   9.817   6.231   9.773  0.5547  0.6349 -2.2208
28758SOL     OW93134   8.314  10.083   0.318  0.0226  0.4206 -0.3761
28758SOL    HW193135   8.315  10.149   0.388  0.1935 -1.1080  1.1015
28758SOL    HW293136   8.258  10.013   0.352  1.8502 -1.3229 -0.8392
28759SOL     OW93137   2.817   6.729  10.918  0.0175  0.5420 -0.5236
28759SOL    HW193138   2.732   6.698  10.949 -0.0955  0.4020 -0.9721
28759SOL    HW293139   2.798   6.774  10.836  0.5043 -0.3576 -1.1410
28760SOL     OW93140  11.343   4.644   9.391 -0.2589  0.1921  0.4485
28760SOL    HW193141  11.257   4.615   9.362  0.4933 -2.5598  0.6103
28760SOL    HW293142  11.389   4.668   9.311 -1.0850  1.4746  0.3421
28761SOL     OW93143   8.472   5.192   7.218 -0.0282 -0.1833  0.1092
28761SOL    HW193144   8.498   5.219   7.306  0.4197 -0.5614  0.1013
28761SOL    HW293145   8.541   5.131   7.190 -1.0655 -1.4556  0.2012
28762SOL     OW93146   0.292   0.667   0.870  0.1311 -0.1122  0.9243
28762SOL    HW193147   0.215   0.612   0.878 -0.4803  0.8343  1.7578
28762SOL    HW293148   0.312   0.695   0.959  1.4142 -0.3049  0.7184
28763SOL     OW93149   7.189  10.758   2.681 -0.3737  0.3476 -0.5151
28763SOL    HW193150   7.226  10.833   2.726 -0.0946 -0.0309 -0.1009
28763SOL    HW293151   7.173  10.694   2.750  0.6488 -0.4899 -1.0302
28764SOL     OW93152   0.156   2.782   3.637 -0.1808  0.7609 -0.5885
28764SOL    HW193153   0.157   2.774   3.542 -0.2743  0.3430 -0.5560
28764SOL    HW293154   0.245   2.759   3.665 -0.5679 -0.6654 -0.4613
28765SOL     OW93155   8.231   0.996  10.566 -0.0802 -0.0175 -0.5537
28765SOL    HW193156   8.183   0.914  10.556 -0.3368  0.1050 -0.3409
28765SOL    HW293157   8.189   1.057  10.506  0.0214 -0.0012 -0.6089
28766SOL     OW93158   5.393   8.748   7.097 -0.2543  0.1876  0.6092
28766SOL    HW193159   5.422   8.814   7.160 -1.2380  0.5645  0.6942
28766SOL    HW293160   5.440   8.768   7.016  0.2374  0.3403  0.9294
28767SOL     OW93161   2.026   4.362   5.990  0.4545  0.2929  0.4768
28767SOL    HW193162   2.071   4.413   6.057  0.4730  1.2098 -0.2246
28767SOL    HW293163   1.934   4.361   6.018  0.5745  0.0718  0.8747
28768SOL     OW93164   3.159   6.237   5.459  0.0408  0.0556  0.1902
28768SOL    HW193165   3.241   6.210   5.417 -1.2312 -0.3545 -2.1536
28768SOL    HW293166   3.127   6.309   5.405 -0.3451  1.3794  2.0811
28769SOL     OW93167  10.709   6.525  10.004 -0.0740 -0.4251 -0.1870
28769SOL    HW193168  10.729   6.476  10.084  0.0250 -1.4778 -0.8256
28769SOL    HW293169  10.624   6.565  10.020  0.8006  1.0051  1.1652
28770SOL     OW93170   5.534   8.830   5.266 -0.1430  0.3251 -0.2601
28770SOL    HW193171   5.541   8.766   5.195 -0.3295  0.1459 -0.1202
28770SOL    HW293172   5.478   8.787   5.331  2.1914 -0.6446  1.2365
28771SOL     OW93173   0.464   3.080   1.480  0.2296 -0.0719  0.3186
28771SOL    HW193174   0.382   3.052   1.439  0.6387  0.4340 -0.8878
28771SOL    HW293175   0.437   3.114   1.566 -0.7612 -0.3454  0.1297
28772SOL     OW93176   5.326   5.452  12.159 -0.0966  0.4857 -0.0719
28772SOL    HW193177   5.318   5.547  12.171 -1.6465  0.3162  0.4428
28772SOL    HW293178   5.416   5.439  12.131 -0.1887  2.2479 -1.3585
28773SOL     OW93179   1.197   9.374   9.594 -0.0826 -0.3402  0.0445
28773SOL    HW193180   1.115   9.351   9.638 -0.2692 -0.4906 -0.3732
28773SOL    HW293181   1.264   9.365   9.661 -0.3867 -0.3962  0.3412
28774SOL     OW93182   7.956   3.665   2.787 -0.2147  0.3800  0.0522
28774SOL    HW193183   8.045   3.701   2.787 -0.3466  0.7391  1.2937
28774SOL    HW293184   7.945   3.627   2.874 -0.7606 -1.0012 -0.5917
28775SOL     OW93185   8.519  11.755   9.689 -0.2246 -0.0575  0.3900
28775SOL    HW193186   8.496  11.715   9.773 -0.4273 -2.8240 -0.8744
28775SOL    HW293187   8.500  11.687   9.624  2.4125  0.9722 -1.6678
28776SOL     OW93188   8.494   6.773   1.225  0.2763 -0.0572 -0.2016
28776SOL    HW193189   8.555   6.749   1.155 -0.8519 -0.6072 -1.0420
28776SOL    HW293190   8.520   6.718   1.299 -0.6056 -2.0632 -1.2834
28777SOL     OW93191   0.005  11.422   9.143 -0.0080  0.0433 -0.5191
28777SOL    HW193192   0.021  11.516   9.138 -1.0512  0.2535 -0.1460
28777SOL    HW293193  -0.013  11.396   9.052  0.6756  0.1182 -0.6816
28778SOL     OW93194   8.400   0.036   6.387 -0.1071 -0.2656  0.0571
28778SOL    HW193195   8.409   0.082   6.471 -1.2982  0.0289  0.0507
28778SOL    HW293196   8.476   0.063   6.336  0.0786  0.3864  0.6664
28779SOL     OW93197   8.146   0.847   4.618  0.3538 -0.3371  0.0782
28779SOL    HW193198   8.237   0.817   4.610  0.3122 -0.1480 -1.3540
28779SOL    HW293199   8.153   0.943   4.620  0.1958 -0.3213 -0.0721
28780SOL     OW93200   8.027   3.351   4.585  0.3619  0.3960 -0.3747
28780SOL    HW193201   8.105   3.369   4.532 -0.1324  0.6595 -1.0123
28780SOL    HW293202   8.004   3.261   4.564  1.0385 -0.0103  0.5306
28781SOL     OW93203   6.814   9.562  10.085  0.4978 -0.5916  0.4424
28781SOL    HW193204   6.905   9.555  10.054  1.2567  0.2304  2.3391
28781SOL    HW293205   6.762   9.555  10.005  2.2271 -0.8842 -0.7326
28782SOL     OW93206   6.040   0.867   6.621 -0.1023 -0.5602  0.2472
28782SOL    HW193207   5.992   0.911   6.551 -1.3410 -1.2385  0.6311
28782SOL    HW293208   6.131   0.866   6.591 -0.4602 -0.0395 -0.9233
28783SOL     OW93209  11.798   0.393   3.372  0.2006 -0.1672 -0.0168
28783SOL    HW193210  11.878   0.345   3.393  0.3856  0.0159 -0.2952
28783SOL    HW293211  11.751   0.398   3.455  0.1245 -0.9241 -0.0095
28784SOL     OW93212  11.068  12.284   0.607 -0.3524  0.0566 -0.1023
28784SOL    HW193213  11.146  12.328   0.575 -0.4346  3.5931  3.7494
28784SOL    HW293214  11.100  12.220   0.670 -0.5484 -0.8606 -0.8906
28785SOL     OW93215   3.935   8.139   2.489 -0.1283  0.1422 -0.3504
28785SOL    HW193216   4.011   8.087   2.466  0.3958  0.7437  0.0079
28785SOL    HW293217   3.896   8.094   2.564  1.5282  1.3569  1.3482
28786SOL     OW93218   0.483   7.743  10.588 -0.1364 -0.3966 -0.3326
28786SOL    HW193219   0.528   7.683  10.648  1.2783  1.6762  0.8093
28786SOL    HW293220   0.554   7.786  10.540 -0.9918  1.5802  0.1046
28787SOL     OW93221   3.356   8.600   8.065  0.3510 -0.4176  0.3033
28787SOL    HW193222   3.325   8.532   8.006 -0.9645 -0.8012  1.3648
28787SOL    HW293223   3.436   8.565   8.104  1.2021 -0.1806 -1.1517
28788SOL     OW93224  10.147   5.093  11.651  0.2725 -0.0490  0.3363
28788SOL    HW193225  10.072   5.057  11.698  1.2058 -1.5562  0.7452
28788SOL    HW293226  10.173   5.023  11.591  1.3439  0.4545  0.1896
28789SOL     OW93227  10.158   9.701   1.036 -0.1294 -0.4963 -0.5107
28789SOL    HW193228  10.195   9.678   1.121  1.5555 -0.2513 -1.1548
28789SOL    HW293229  10.065   9.715   1.054  0.0648 -1.1222  1.1520
28790SOL     OW93230   4.079   7.608   1.711  0.7851  0.1530  0.0706
28790SOL    HW193231   4.150   7.548   1.733  0.5959 -0.7533 -1.5883
28790SOL    HW293232   4.123   7.681   1.666  0.9554  1.0408  1.6170
28791SOL     OW93233   5.184   3.016   8.113 -0.0474 -0.8054 -0.2055
28791SOL    HW193234   5.205   3.058   8.030  2.0781 -3.0116 -0.9104
28791SOL    HW293235   5.172   2.923   8.091  1.8999 -1.7026  2.0527
28792SOL     OW93236   2.059  10.317   1.988 -0.1578 -0.0087  0.3660
28792SOL    HW193237   2.101  10.325   1.903  0.4730 -1.4813  0.5015
28792SOL    HW293238   1.998  10.245   1.978  0.9312 -1.1549  1.5033
28793SOL     OW93239   9.557   0.982   6.334 -0.6865  0.1561 -0.3797
28793SOL    HW193240   9.538   1.073   6.354 -1.4572 -0.3398  1.2884
28793SOL    HW293241   9.648   0.983   6.305 -0.1912  1.2786  1.0770
28794SOL     OW93242   7.486   1.608  11.521 -0.1628 -0.0046 -0.1910
28794SOL    HW193243   7.432   1.599  11.600  0.7830 -2.0457  0.2957
28794SOL    HW293244   7.561   1.659  11.550 -0.4787  0.4484 -0.1507
28795SOL     OW93245   4.370   4.648   1.408  0.5820 -0.2053  0.3827
28795SOL    HW193246   4.430   4.722   1.404 -0.2545  0.4863  0.2251
28795SOL    HW293247   4.292   4.682   1.453 -0.1649 -0.7153 -0.4789
28796SOL     OW93248   7.855   0.459   8.324  0.8158 -0.0512 -0.1420
28796SOL    HW193249   7.772   0.417   8.345  0.8744 -0.3033 -0.3983
28796SOL    HW293250   7.887   0.411   8.247 -0.0012  1.6437 -1.6141
28797SOL     OW93251   1.708   8.507   2.573  0.0484  0.2983 -0.4673
28797SOL    HW193252   1.659   8.426   2.556 -0.0842 -0.2776  2.2458
28797SOL    HW293253   1.791   8.495   2.526 -0.2782 -1.0807 -0.7453
28798SOL     OW93254   8.556   7.286   6.422 -0.2520  0.3273  0.4335
28798SOL    HW193255   8.598   7.303   6.506 -0.1465  0.3596  0.3745
28798SOL    HW293256   8.627   7.293   6.358  0.1555 -1.8656  0.5444
28799SOL     OW93257   3.825   9.590   6.243  0.2269  0.1196 -0.2266
28799SOL    HW193258   3.805   9.681   6.219  0.2998  0.7252  1.8257
28799SOL    HW293259   3.920   9.588   6.252  0.1258  0.2711  1.1614
28800SOL     OW93260   8.711   3.813   4.721 -0.2245  0.4414  0.0851
28800SOL    HW193261   8.732   3.857   4.638 -0.0471 -0.8253 -0.5684
28800SOL    HW293262   8.794   3.812   4.769  0.2120 -0.7604 -0.6684
28801SOL     OW93263  11.049   7.060   8.763 -0.2563 -0.3288  0.2677
28801SOL    HW193264  11.036   7.069   8.857  0.4324 -0.8678  0.4244
28801SOL    HW293265  11.009   7.138   8.725  1.4760  1.0744  1.1894
28802SOL     OW93266   0.387   6.836  11.422 -0.4165 -0.2812  0.0283
28802SOL    HW193267   0.312   6.856  11.366  0.0617 -4.1739 -2.4222
28802SOL    HW293268   0.352   6.782  11.492 -0.3979  1.1475  1.1730
28803SOL     OW93269   1.049   1.548   1.481  0.6973  0.3652  0.3182
28803SOL    HW193270   0.959   1.517   1.468  0.7255  0.9435 -1.4372
28803SOL    HW293271   1.083   1.492   1.551  0.0452 -2.1970 -1.2595
28804SOL     OW93272   3.828   6.758   9.172  0.3030  0.2614 -0.3579
28804SOL    HW193273   3.760   6.703   9.133  0.0125  1.7670 -2.1282
28804SOL    HW293274   3.791   6.786   9.255 -0.6670 -0.0699 -0.6592
28805SOL     OW93275   1.107   5.222  12.427  0.1882 -0.3833  0.0350
28805SOL    HW193276   1.114   5.293  12.491  2.4611  0.0598 -0.6247
28805SOL    HW293277   1.039   5.252  12.366 -0.5670  0.1006  1.0771
28806SOL     OW93278   4.685   9.826   8.607 -0.1296  0.3782 -0.3758
28806SOL    HW193279   4.611   9.792   8.556 -1.2357  1.0062  0.7397
28806SOL    HW293280   4.684   9.775   8.688  0.5509  0.5254 -0.2668
28807SOL     OW93281   8.896   1.181   0.063  0.5488  0.5893 -0.6433
28807SOL    HW193282   8.801   1.184   0.078  0.6530 -0.6579  0.4022
28807SOL    HW293283   8.933   1.229   0.137  0.7605  0.4158 -0.6370
28808SOL     OW93284   8.662  12.470   2.667  0.1051  0.6532  0.1318
28808SOL    HW193285   8.638  12.377   2.663 -0.2241  0.6756  1.2766
28808SOL    HW293286   8.635  12.498   2.755 -1.3613  2.2445 -0.7503
28809SOL     OW93287   0.650   4.578  12.127 -0.3356 -0.1384  0.0345
28809SOL    HW193288   0.646   4.488  12.093  0.7659  0.2968 -1.3330
28809SOL    HW293289   0.742   4.591  12.149 -0.4028  0.8206 -0.2354
28810SOL     OW93290  11.562  10.077   0.271  0.0687 -0.3222 -0.2839
28810SOL    HW193291  11.609  10.031   0.202 -0.1535  0.1635 -0.7638
28810SOL    HW293292  11.503  10.011   0.308 -1.5139 -0.0344 -2.1255
28811SOL     OW93293   4.178   2.373   3.512 -0.0802  0.0271  0.0516
28811SOL    HW193294   4.227   2.444   3.472 -1.2666 -0.0073 -1.5537
28811SOL    HW293295   4.088   2.406   3.517 -0.4134 -0.8984  0.4327
28812SOL     OW93296   4.899   1.691   0.456 -0.4222  0.2688  0.4614
28812SOL    HW193297   4.817   1.651   0.486 -0.7101  0.5632  0.0810
28812SOL    HW293298   4.881   1.715   0.365  0.1837  0.0788  0.2888
28813SOL     OW93299   0.143   7.561  11.114 -0.6924  0.1286  0.0508
28813SOL    HW193300   0.127   7.467  11.118  2.1415 -0.3843  1.3362
28813SOL    HW293301   0.116   7.594  11.199 -0.8251  0.3128 -0.0631
28814SOL     OW93302   4.674   1.256   3.022  0.4020  0.1253  0.5439
28814SOL    HW193303   4.674   1.246   2.926 -0.2702 -0.2818  0.5782
28814SOL    HW293304   4.710   1.174   3.055 -0.7977 -0.3647  0.6793
28815SOL     OW93305   2.380   6.976  11.899 -0.4166 -0.4187 -0.2679
28815SOL    HW193306   2.430   7.054  11.922 -1.5111  1.9394 -4.7733
28815SOL    HW293307   2.410   6.953  11.811 -2.5151 -3.0772 -0.4180
28816SOL     OW93308  12.302   1.656   9.311  0.8362  0.4636 -0.3465
28816SOL    HW193309  12.232   1.610   9.357  0.9539  2.9685  2.7395
28816SOL    HW293310  12.380   1.603   9.328  0.4378  0.0333  0.2180
28817SOL     OW93311   7.088   0.041   1.622  0.0584  0.2419  0.2118
28817SOL    HW193312   7.181   0.034   1.598 -0.1588 -0.1491 -0.5541
28817SOL    HW293313   7.051  -0.044   1.598 -0.7609  0.8336 -0.6661
28818SOL     OW93314  11.858   4.774   8.877 -0.0170  0.3165 -0.5094
28818SOL    HW193315  11.766   4.751   8.864  0.2101 -0.5604 -0.6103
28818SOL    HW293316  11.872   4.851   8.821 -1.5182  2.5455  1.9509
28819SOL     OW93317   6.215  10.371   0.700  0.0956 -0.4813  0.0984
28819SOL    HW193318   6.140  10.312   0.700  1.3661 -2.1999  1.1601
28819SOL    HW293319   6.179  10.457   0.722 -1.4868 -1.3751  1.1454
28820SOL     OW93320  10.927   5.521   5.778  0.3581 -0.0271  0.1856
28820SOL    HW193321  10.958   5.611   5.788  0.5339 -0.2176  1.5562
28820SOL    HW293322  10.876   5.522   5.697  0.4422  1.2785  0.1309
28821SOL     OW93323   5.142   1.329  11.925 -0.0482  0.0073 -0.3558
28821SOL    HW193324   5.060   1.379  11.921  0.2066  1.5275  5.0135
28821SOL    HW293325   5.208   1.393  11.952  1.5679 -2.1999  1.2814
28822SOL     OW93326   3.131   0.851  12.395  0.1387 -0.8414 -0.8314
28822SOL    HW193327   3.213   0.819  12.357 -0.2545 -0.7965 -1.7414
28822SOL    HW293328   3.145   0.847  12.489  0.6215 -2.3440 -0.9354
28823SOL     OW93329   1.657   1.709  10.203 -0.3388  0.1108  0.1430
28823SOL    HW193330   1.643   1.685  10.294 -0.5050  1.4341  0.4927
28823SOL    HW293331   1.617   1.796  10.195 -1.2348 -0.4110 -1.4463
28824SOL     OW93332  11.370   6.233   3.078  0.2226 -0.3637 -0.4165
28824SOL    HW193333  11.296   6.189   3.038  0.1332 -1.8038  1.2311
28824SOL    HW293334  11.430   6.163   3.103  0.5103  0.4705  1.4415
28825SOL     OW93335   2.072  11.752   2.349  0.2092 -0.6941  0.1816
28825SOL    HW193336   2.098  11.749   2.258 -2.0836 -1.5126 -0.5251
28825SOL    HW293337   2.074  11.661   2.379 -0.1169 -0.5742  0.5975
28826SOL     OW93338   5.719   2.904   8.124 -0.1169  0.2691 -0.1299
28826SOL    HW193339   5.710   2.897   8.029  0.7457 -0.7822 -0.1521
28826SOL    HW293340   5.813   2.919   8.138 -0.1140 -0.3721  0.5915
28827SOL     OW93341   7.104   5.423   9.800 -0.4673  0.7222  0.4619
28827SOL    HW193342   7.012   5.447   9.808 -0.3459  1.4176 -0.1832
28827SOL    HW293343   7.147   5.466   9.874 -0.4499  1.4700  0.0156
28828SOL     OW93344   3.094   0.832   2.661  0.1118  0.1280  0.4609
28828SOL    HW193345   3.028   0.791   2.717  0.2045  0.0852  0.5390
28828SOL    HW293346   3.177   0.796   2.691  0.0743 -0.6993 -0.3924
28829SOL     OW93347  10.656  11.410  12.355  0.1331 -0.1949  0.4265
28829SOL    HW193348  10.650  11.316  12.341  0.7250 -0.0414 -1.0489
28829SOL    HW293349  10.694  11.444  12.273  2.1604  1.0430  1.7894
28830SOL     OW93350   7.393  12.044   5.763  0.0451 -0.1845 -0.4008
28830SOL    HW193351   7.443  12.123   5.786 -1.1178  0.5243 -0.2580
28830SOL    HW293352   7.353  12.016   5.845 -1.8330  0.7254 -0.9592
28831SOL     OW93353   6.099  11.669   8.228  0.2935  0.1810  0.0068
28831SOL    HW193354   6.153  11.631   8.297 -0.4766 -0.3692  0.3166
28831SOL    HW293355   6.025  11.709   8.274 -0.0786  0.0639 -0.4723
28832SOL     OW93356   4.353  11.425   5.451  0.4239 -0.1372 -0.0920
28832SOL    HW193357   4.436  11.467   5.473 -1.4438  1.7414  4.3714
28832SOL    HW293358   4.315  11.481   5.383  2.3906 -0.7149 -1.7977
28833SOL     OW93359   0.974   0.961  11.094  0.6218 -0.1778 -0.0717
28833SOL    HW193360   1.015   0.957  11.181  2.0868  0.3209 -0.6991
28833SOL    HW293361   0.999   0.878  11.053  0.4628 -0.1442 -0.2344
28834SOL     OW93362  11.394  11.335   4.963  0.0879 -0.1340  0.4080
28834SOL    HW193363  11.402  11.250   4.920  0.6302 -1.5124  3.0490
28834SOL    HW293364  11.308  11.367   4.935  0.3269 -0.9793 -1.5058
28835SOL     OW93365   3.431   7.789  11.211  0.1338 -0.5961 -0.2553
28835SOL    HW193366   3.381   7.842  11.272  0.1333 -1.4848  0.5334
28835SOL    HW293367   3.521   7.820  11.221 -0.4083  2.5683 -3.2782
28836SOL     OW93368  11.686   4.043   9.873  0.4741  0.4702 -0.4402
28836SOL    HW193369  11.768   4.003   9.842 -1.5587 -1.0718 -4.7204
28836SOL    HW293370  11.634   3.968   9.903 -0.0076  1.2362  0.6865
28837SOL     OW93371   3.862  11.896   2.100 -0.3587 -0.5125 -0.3165
28837SOL    HW193372   3.952  11.921   2.082 -0.8616  2.0858  0.2266
28837SOL    HW293373   3.868  11.833   2.172  1.0494 -1.4240 -1.2020
28838SOL     OW93374   2.025   6.660   7.587  0.3572 -0.3303  0.1099
28838SOL    HW193375   2.076   6.693   7.513 -0.2271 -1.2523 -0.7206
28838SOL    HW293376   2.012   6.567   7.568 -0.0086 -0.5237  1.2547
28839SOL     OW93377   8.192  12.070   1.257 -0.0131  0.1238  0.0665
28839SOL    HW193378   8.198  12.085   1.163  2.2089  1.4663  0.3751
28839SOL    HW293379   8.214  11.977   1.268 -0.2351 -0.0263 -0.7102
28840SOL     OW93380   7.905  11.531   0.523 -0.2946  0.2033 -0.5130
28840SOL    HW193381   7.912  11.468   0.595 -1.9082  1.4755  0.8641
28840SOL    HW293382   7.980  11.512   0.467  1.1790 -0.7042  1.6184
28841SOL     OW93383   0.841  12.316   2.134 -0.2088 -0.3071 -0.0657
28841SOL    HW193384   0.814  12.256   2.064 -0.5396  1.6557 -1.7058
28841SOL    HW293385   0.935  12.327   2.122 -0.2788  0.0935 -0.2819
28842SOL     OW93386  12.028   3.974   6.372  0.1395  0.2007 -0.1645
28842SOL    HW193387  12.068   3.969   6.285  0.5489  2.0625 -0.1288
28842SOL    HW293388  12.061   4.056   6.409 -0.9251  0.0137  1.3033
28843SOL     OW93389  11.501   8.515   5.455  0.0849 -0.1754  0.2879
28843SOL    HW193390  11.538   8.591   5.410  1.2372 -0.9372 -0.0998
28843SOL    HW293391  11.441   8.476   5.391 -0.0939  0.0913  0.2897
28844SOL     OW93392   9.608   9.822   0.954  0.2206  0.1262  0.8306
28844SOL    HW193393   9.653   9.897   0.994  2.4820 -1.0631  0.6689
28844SOL    HW293394   9.651   9.745   0.991 -0.0178 -1.0584 -1.1809
28845SOL     OW93395   1.950   4.418   7.620  0.0281  0.4567  1.2125
28845SOL    HW193396   1.903   4.462   7.691 -0.3091  0.7563  0.8012
28845SOL    HW293397   2.039   4.453   7.625 -0.6845  2.7179 -0.3512
28846SOL     OW93398  10.414   9.121   9.322 -0.1261  0.4024 -0.7764
28846SOL    HW193399  10.409   9.215   9.339 -0.0841  0.5189 -1.3945
28846SOL    HW293400  10.508   9.104   9.309 -0.1160  0.2488 -0.5074
28847SOL     OW93401   0.108   7.967   8.616 -0.4868  0.2140  0.3148
28847SOL    HW193402   0.192   7.928   8.595 -2.3710 -3.3732 -1.4768
28847SOL    HW293403   0.109   7.977   8.711  1.1628 -1.8008  0.5722
28848SOL     OW93404  10.558   7.358   4.780  0.0694  0.1564 -0.0713
28848SOL    HW193405  10.572   7.451   4.797  0.4845  0.1749 -0.5015
28848SOL    HW293406  10.643   7.318   4.797  0.1271 -0.0150 -0.7613
28849SOL     OW93407   9.720   5.259   5.357 -0.2238  0.6003  0.1360
28849SOL    HW193408   9.808   5.230   5.378 -0.3668 -1.4179 -1.6424
28849SOL    HW293409   9.730   5.311   5.277 -0.6052  0.3392 -0.0925
28850SOL     OW93410  11.139   9.826   9.562 -0.5290  0.6578 -0.2144
28850SOL    HW193411  11.144   9.920   9.546 -1.6061  0.8245  0.2935
28850SOL    HW293412  11.230   9.798   9.572 -0.2511  1.8681  0.8589
28851SOL     OW93413   5.133   0.106   4.205  0.0459 -0.2036 -0.1955
28851SOL    HW193414   5.175   0.116   4.119 -1.1657 -0.9841 -0.9046
28851SOL    HW293415   5.136   0.012   4.222 -0.7161 -0.1832  0.0864
28852SOL     OW93416  11.838   1.483  11.189 -0.2800  0.5028 -0.5275
28852SOL    HW193417  11.854   1.571  11.222  0.6217 -0.0567  0.5854
28852SOL    HW293418  11.920   1.436  11.206 -0.6161 -0.4458 -1.4589
28853SOL     OW93419   7.648   1.688   1.770 -0.0448  0.1186 -0.1277
28853SOL    HW193420   7.616   1.734   1.847 -1.2779 -3.2767  1.6279
28853SOL    HW293421   7.577   1.628   1.747  2.2225 -2.5658 -0.6541
28854SOL     OW93422  10.945  11.862   3.105 -0.0384  0.1725 -0.2305
28854SOL    HW193423  10.954  11.784   3.160 -3.6522  0.3721  0.9181
28854SOL    HW293424  10.993  11.930   3.152 -1.3896 -0.1367  1.6873
28855SOL     OW93425   3.903   4.583   1.465 -0.1965  0.5487 -0.1357
28855SOL    HW193426   3.921   4.496   1.429  1.8045  0.7832  0.2146
28855SOL    HW293427   3.946   4.643   1.404  0.4933  1.1433  0.9176
28856SOL     OW93428   0.867   5.369   4.531  0.3184  0.2689 -0.0813
28856SOL    HW193429   0.950   5.366   4.579  0.5446 -3.5467 -0.4469
28856SOL    HW293430   0.812   5.302   4.572 -2.6026  2.4587 -0.0435
28857SOL     OW93431   0.150  11.393   7.033  0.1495  0.3330 -0.4638
28857SOL    HW193432   0.200  11.360   6.959 -0.4754 -0.4963 -0.5293
28857SOL    HW293433   0.082  11.328   7.047 -1.1803  1.6331 -0.6416
28858SOL     OW93434   6.999   5.462   5.556 -0.6394 -0.1716  0.3401
28858SOL    HW193435   6.912   5.425   5.543 -1.1419  0.7678  0.8755
28858SOL    HW293436   7.051   5.431   5.482 -2.0254  1.0334 -1.2064
28859SOL     OW93437   2.432   1.498  10.049 -0.2579  0.6115  0.1495
28859SOL    HW193438   2.431   1.510  10.144 -1.4334 -0.6572  0.3270
28859SOL    HW293439   2.379   1.570  10.015 -2.0389 -0.3782  0.6925
28860SOL     OW93440   6.530   3.545  12.271 -0.2320 -0.1946  0.2639
28860SOL    HW193441   6.519   3.484  12.344 -1.5258  3.0909  3.1164
28860SOL    HW293442   6.610   3.594  12.293  0.2571 -0.1458 -1.4429
28861SOL     OW93443   7.849   4.667   1.637 -0.3404  0.3577  0.1541
28861SOL    HW193444   7.838   4.762   1.630  1.1944  0.8167  2.6877
28861SOL    HW293445   7.924   4.647   1.581  0.8018  1.0748  1.3635
28862SOL     OW93446  11.372   7.632   6.667 -0.0753  0.0815  0.2057
28862SOL    HW193447  11.449   7.675   6.706 -0.5753 -0.2374  1.6118
28862SOL    HW293448  11.301   7.695   6.681 -0.2991 -0.1122 -0.0554
28863SOL     OW93449   1.170   4.723   6.358  0.3828  0.4612  0.4271
28863SOL    HW193450   1.253   4.750   6.397 -0.2751  1.8176  0.9327
28863SOL    HW293451   1.130   4.804   6.327  0.0734 -0.3723 -1.5336
28864SOL     OW93452   4.928   9.555   3.583  0.0137 -0.1228  0.2351
28864SOL    HW193453   5.011   9.572   3.626  0.3748  0.5425 -0.6805
28864SOL    HW293454   4.862   9.574   3.650  0.5015  2.5154  0.0724
28865SOL     OW93455   7.874   8.198   6.422  0.0866 -0.7956 -0.2876
28865SOL    HW193456   7.817   8.267   6.456  2.1192  0.7894  0.0239
28865SOL    HW293457   7.859   8.198   6.328  0.1289  0.1440 -0.3007
28866SOL     OW93458   2.733   3.637   5.815  0.5013  0.1750 -0.1251
28866SOL    HW193459   2.820   3.676   5.825  0.5459 -0.5188  3.8370
28866SOL    HW293460   2.674   3.696   5.862 -0.7652 -0.6138 -0.6619
28867SOL     OW93461  10.483   2.546   5.033 -0.4935 -0.1959 -0.3032
28867SOL    HW193462  10.415   2.575   4.972 -0.4286 -0.5829 -0.5623
28867SOL    HW293463  10.565   2.559   4.986 -0.1977  2.2798  0.7808
28868SOL     OW93464  10.762   3.445   0.040 -0.8021 -0.0987  0.1395
28868SOL    HW193465  10.757   3.391  -0.039 -0.7783  0.0755  0.0183
28868SOL    HW293466  10.800   3.388   0.107  1.7420  0.5409 -0.6569
28869SOL     OW93467   1.175   5.981   6.662 -0.6874 -0.1540 -0.1474
28869SOL    HW193468   1.186   5.946   6.750 -1.4968  0.0971  0.0681
28869SOL    HW293469   1.119   5.917   6.618 -0.1091 -0.3870 -0.5531
28870SOL     OW93470   5.789   6.992   2.438  0.1641  0.7583  0.5165
28870SOL    HW193471   5.761   7.034   2.519  1.0758 -0.7345  1.6516
28870SOL    HW293472   5.773   6.899   2.451  2.9347  0.1352  0.1633
28871SOL     OW93473   4.217   0.434   0.082 -0.8170 -0.1097 -0.3185
28871SOL    HW193474   4.280   0.486   0.131 -0.1400 -1.1373 -0.0807
28871SOL    HW293475   4.248   0.344   0.089 -1.4773 -0.4547 -1.4645
28872SOL     OW93476   7.966   1.706   1.825  0.2328  0.3227  0.1190
28872SOL    HW193477   7.945   1.752   1.744 -3.1253  0.4738  0.9120
28872SOL    HW293478   7.969   1.775   1.891  0.7476 -0.0294  0.4673
28873SOL     OW93479  12.225   1.882   8.624 -0.2322 -0.2320 -0.1627
28873SOL    HW193480  12.267   1.899   8.540 -0.8937  0.7978 -0.3041
28873SOL    HW293481  12.163   1.811   8.606 -0.6432  0.2408 -0.6382
28874SOL     OW93482   4.920   7.002   5.954  0.0152  0.0554 -0.0327
28874SOL    HW193483   4.879   7.079   5.915  1.4228 -0.1611 -2.0991
28874SOL    HW293484   5.013   7.011   5.932  0.4819 -1.3609  1.2085
28875SOL     OW93485   5.702   6.746   2.533 -0.4563 -0.1983  0.4757
28875SOL    HW193486   5.761   6.678   2.499  3.4232  2.0451  2.1983
28875SOL    HW293487   5.667   6.709   2.614 -0.6960 -1.1536 -0.0396
28876SOL     OW93488   2.239  11.307  11.820  0.0652  0.0393  0.2576
28876SOL    HW193489   2.272  11.396  11.831  0.8819 -0.1354 -0.6206
28876SOL    HW293490   2.307  11.251  11.857 -0.2918 -0.2432  0.5002
28877SOL     OW93491   2.121   3.548  12.436  0.1566  0.1716  0.1385
28877SOL    HW193492   2.042   3.509  12.475 -0.1206  0.3064 -0.2806
28877SOL    HW293493   2.087   3.608  12.370  0.6146  0.2835  0.0062
28878SOL     OW93494   1.492   5.455   6.362 -0.1428  0.1424 -0.5155
28878SOL    HW193495   1.539   5.458   6.446  2.6171  0.2972 -1.9389
28878SOL    HW293496   1.474   5.363   6.347 -1.4886  0.1884  0.6123
28879SOL     OW93497   3.467   8.165   2.283  0.5850 -0.3951  0.9717
28879SOL    HW193498   3.505   8.252   2.293  1.0550 -0.7791  2.9800
28879SOL    HW293499   3.378   8.180   2.254  1.4726  0.6223 -1.4324
28880SOL     OW93500   9.743   6.133   1.087 -0.0069  0.3489 -0.2058
28880SOL    HW193501   9.717   6.053   1.132 -0.2081  1.3763  1.5996
28880SOL    HW293502   9.736   6.202   1.153  1.5180  1.6489 -1.3018
28881SOL     OW93503   6.294   3.677  12.157 -0.1722 -0.6750  0.7068
28881SOL    HW193504   6.358   3.607  12.174  0.6306  0.2747  1.6867
28881SOL    HW293505   6.209   3.632  12.160  0.3706 -1.7491  0.5524
28882SOL     OW93506   4.164   2.662   6.423  0.3323 -0.6074 -0.3103
28882SOL    HW193507   4.121   2.727   6.368 -0.4121  1.3624  2.3730
28882SOL    HW293508   4.093   2.608   6.457  0.5161 -0.4543  0.3408
28883SOL     OW93509   8.538   5.598   2.725  0.1681  0.1360 -0.0548
28883SOL    HW193510   8.524   5.504   2.732 -1.0225  0.2716 -0.3402
28883SOL    HW293511   8.525   5.617   2.632  1.6861  0.4112 -0.2430
28884SOL     OW93512   8.704  12.169  11.127  0.0765 -0.2279  0.2716
28884SOL    HW193513   8.657  12.095  11.165  2.5405 -1.6277  0.8374
28884SOL    HW293514   8.664  12.181  11.041 -2.4409 -0.1189  1.3598
28885SOL     OW93515   5.998   3.519   1.251  0.1591 -0.0964 -0.3555
28885SOL    HW193516   5.911   3.483   1.264  0.4147 -0.8208 -0.5941
28885SOL    HW293517   6.008   3.585   1.320 -1.0169  0.8511 -1.0452
28886SOL     OW93518   7.811  11.540   7.215 -0.0698 -0.0783 -0.0725
28886SOL    HW193519   7.837  11.455   7.181  0.8463 -0.6094  1.8300
28886SOL    HW293520   7.730  11.561   7.168 -0.3519 -2.0174 -0.5224
28887SOL     OW93521   7.803   3.389   6.508  0.5052 -0.5102 -0.2249
28887SOL    HW193522   7.748   3.351   6.576 -1.0562  1.8992 -0.0163
28887SOL    HW293523   7.874   3.326   6.496 -1.7825 -3.3297  0.1259
28888SOL     OW93524   4.309  10.704   7.699  0.4548  0.2161 -0.1669
28888SOL    HW193525   4.294  10.611   7.716 -2.2386  0.6884  0.6279
28888SOL    HW293526   4.279  10.717   7.609 -1.6304  0.6683  0.5197
28889SOL     OW93527   1.652   8.976   9.660  0.0758  0.1320 -0.3626
28889SOL    HW193528   1.662   8.894   9.708 -1.3280  1.4905  2.4384
28889SOL    HW293529   1.558   8.981   9.640  0.2768  0.7103 -1.2597
28890SOL     OW93530  11.260   7.997   1.922  0.3321  0.2008  0.2487
28890SOL    HW193531  11.352   8.015   1.939  0.1643  1.2273  0.1493
28890SOL    HW293532  11.260   7.921   1.865  1.0734 -0.4605  1.0954
28891SOL     OW93533   5.223   3.638   8.536  1.0969 -0.0176 -0.2851
28891SOL    HW193534   5.265   3.724   8.532  1.1358 -0.0312 -0.1828
28891SOL    HW293535   5.248   3.604   8.622 -0.6342  0.7624  0.5750
28892SOL     OW93536   4.381   4.021  11.811 -0.7497  0.7065  0.1685
28892SOL    HW193537   4.425   4.057  11.734  2.7965  0.5755  1.9260
28892SOL    HW293538   4.364   4.097  11.867 -1.7578  0.6105  0.0144
28893SOL     OW93539   2.185   0.264   0.325 -0.2137 -0.2469  0.3965
28893SOL    HW193540   2.239   0.234   0.398  1.7200  0.7800 -0.5345
28893SOL    HW293541   2.218   0.216   0.249 -0.6934  0.3163 -0.1809
28894SOL     OW93542   7.321  10.628   6.519 -0.0546  0.2902  0.4270
28894SOL    HW193543   7.366  10.708   6.493  0.9756  0.9930  3.7864
28894SOL    HW293544   7.335  10.568   6.447 -0.8197  3.0353 -2.2306
28895SOL     OW93545   8.310   1.944   0.391  1.0790 -0.2815 -0.4606
28895SOL    HW193546   8.237   1.944   0.329  1.1193  1.7290 -0.5592
28895SOL    HW293547   8.268   1.938   0.477  0.7139  1.4754 -0.4843
28896SOL     OW93548   4.062   7.588  11.299  0.3567 -0.0028  0.2944
28896SOL    HW193549   3.979   7.542  11.286  0.3104 -0.2864  1.4854
28896SOL    HW293550   4.080   7.579  11.393  0.2410  2.5992  0.6287
28897SOL     OW93551   4.537   6.285   4.942 -0.2283 -0.0774  0.4943
28897SOL    HW193552   4.525   6.371   4.902 -0.7104  0.4480  1.7241
28897SOL    HW293553   4.631   6.273   4.948 -0.1452 -0.1336 -0.6940
28898SOL     OW93554   2.117   8.919   1.136 -0.4245 -0.3623  0.4467
28898SOL    HW193555   2.081   8.973   1.065 -2.4517 -0.8569  1.0553
28898SOL    HW293556   2.181   8.976   1.179  1.5194 -0.3100 -2.2343
28899SOL     OW93557   6.611   3.397   4.018  1.1865 -0.0301 -0.2268
28899SOL    HW193558   6.623   3.390   4.113 -0.6440  1.5904  0.1960
28899SOL    HW293559   6.699   3.384   3.981  1.8492 -1.2042  1.6257
28900SOL     OW93560   4.932   0.304   1.318  0.2772  0.5893  0.5242
28900SOL    HW193561   4.932   0.398   1.298 -0.4680  0.4120 -0.3729
28900SOL    HW293562   4.915   0.299   1.412 -0.5775  1.3365  0.4230
28901SOL     OW93563  11.923   2.166   8.772 -0.1549  0.8071 -0.3760
28901SOL    HW193564  11.879   2.086   8.799 -0.0646 -0.0550 -2.5880
28901SOL    HW293565  12.005   2.136   8.732 -0.2119  1.9906 -1.4290
28902SOL     OW93566   6.683  10.318   5.233  0.4271 -0.3869 -0.0509
28902SOL    HW193567   6.618  10.386   5.214  0.8759  0.0343 -0.0996
28902SOL    HW293568   6.632  10.239   5.248 -0.0764 -0.1476 -0.4917
28903SOL     OW93569   5.831   1.585   2.301  0.0903  0.2682  0.1330
28903SOL    HW193570   5.891   1.528   2.349  1.8683  1.9432  0.0373
28903SOL    HW293571   5.863   1.582   2.211 -1.4557 -0.6130 -0.4196
28904SOL     OW93572   9.563   0.589   0.751 -0.4109  0.7427  0.2428
28904SOL    HW193573   9.616   0.664   0.777 -0.6524  0.7074  0.8513
28904SOL    HW293574   9.525   0.613   0.667  1.2964  0.4155 -0.6680
28905SOL     OW93575   0.168  10.530   1.543 -0.8700  0.2330  0.3994
28905SOL    HW193576   0.227  10.578   1.486  1.2529 -2.0327  0.4952
28905SOL    HW293577   0.151  10.448   1.497 -0.3953 -0.9754  2.2416
28906SOL     OW93578   8.066   6.187   6.195  0.1309  0.2015  0.8152
28906SOL    HW193579   8.075   6.108   6.249  0.4237 -0.6207 -0.3943
28906SOL    HW293580   7.971   6.199   6.186  0.0746 -0.9154 -0.2470
28907SOL     OW93581   8.064  11.255   2.812  0.0100 -0.5986  0.5557
28907SOL    HW193582   8.094  11.216   2.730 -1.1993 -0.5539  0.0620
28907SOL    HW293583   8.144  11.282   2.857  0.7171 -1.0565 -0.3933
28908SOL     OW93584   1.948   7.507  10.722  0.2103 -0.5480 -0.2992
28908SOL    HW193585   1.988   7.459  10.795 -0.5370  0.8685  1.0726
28908SOL    HW293586   1.856   7.483  10.725  0.2893 -1.0272 -1.2504
28909SOL     OW93587   7.568   4.685   8.867  0.4413 -0.0544  0.1215
28909SOL    HW193588   7.622   4.764   8.876  0.4170 -0.1133  0.8609
28909SOL    HW293589   7.479   4.715   8.885  0.4164 -0.2263  0.2876
28910SOL     OW93590  12.135   3.935  11.818 -0.0055 -0.5924  0.1985
28910SOL    HW193591  12.118   3.995  11.890 -2.4881  0.0254 -0.7676
28910SOL    HW293592  12.172   3.989  11.749  0.9276 -0.8706  0.4753
28911SOL     OW93593  10.084   4.812   2.511  0.7637  0.5936 -0.3718
28911SOL    HW193594  10.156   4.842   2.455  0.0425  1.2330 -0.9789
28911SOL    HW293595  10.104   4.720   2.529  1.3240  0.5488 -1.1802
28912SOL     OW93596  11.752  11.432   8.367 -0.2161  0.2423 -0.6742
28912SOL    HW193597  11.717  11.514   8.402  1.9769  0.3011  1.6792
28912SOL    HW293598  11.824  11.458   8.310  1.0819  0.0094  0.7943
28913SOL     OW93599   8.367  11.907   5.333  0.0979 -0.2714 -0.3123
28913SOL    HW193600   8.462  11.906   5.333  0.1045 -0.6586 -1.1369
28913SOL    HW293601   8.344  11.984   5.282 -0.0633  1.1229  1.7680
28914SOL     OW93602  10.068   0.803  11.600  0.0270 -0.0510 -0.0158
28914SOL    HW193603  10.127   0.836  11.532  0.3132  0.2991  0.3951
28914SOL    HW293604   9.981   0.815  11.564  0.2041 -0.9709 -0.8128
28915SOL     OW93605   3.122  11.906   2.646  0.1399 -0.6558 -0.4888
28915SOL    HW193606   3.209  11.892   2.608  0.3336 -1.0911  0.0949
28915SOL    HW293607   3.076  11.961   2.583  0.9336 -0.2003 -0.6817
28916SOL     OW93608   7.834   5.834   8.859  0.1433 -0.2121 -0.0901
28916SOL    HW193609   7.888   5.838   8.938 -0.1451 -0.4402  0.1196
28916SOL    HW293610   7.887   5.786   8.796  0.2262 -0.3514  0.0841
28917SOL     OW93611  12.444   6.645   2.730  0.0243  0.5187  0.2521
28917SOL    HW193612  12.496   6.592   2.669  0.0865 -2.7851  2.8637
28917SOL    HW293613  12.503   6.661   2.803 -0.7120  2.4639  0.4704
28918SOL     OW93614   1.981  10.806  10.394  0.3884  0.3911 -0.7127
28918SOL    HW193615   1.929  10.735  10.357 -1.7561  1.2278  0.5162
28918SOL    HW293616   1.919  10.858  10.445  1.9039  3.0175 -1.3107
28919SOL     OW93617   1.181   1.503   2.175 -0.4887  0.2956  0.1114
28919SOL    HW193618   1.175   1.558   2.253 -2.5000  0.4683 -0.1063
28919SOL    HW293619   1.136   1.422   2.198 -2.9632  1.1169 -1.4161
28920SOL     OW93620   6.989   8.257  11.529 -0.1524  0.0232 -0.4619
28920SOL    HW193621   7.002   8.169  11.494 -1.4043  0.1621 -1.3582
28920SOL    HW293622   7.069   8.304  11.505  0.2627 -0.6986 -0.5239
28921SOL     OW93623   7.990   8.740   6.461  0.1788 -0.0594 -0.2867
28921SOL    HW193624   8.026   8.660   6.499 -2.1201 -1.0847 -0.0854
28921SOL    HW293625   8.054   8.766   6.395  1.5068 -1.4498  0.3865
28922SOL     OW93626   5.047   3.366   3.253 -0.6966  0.2774 -0.7664
28922SOL    HW193627   5.061   3.450   3.209 -2.2946  0.4646 -0.9806
28922SOL    HW293628   5.103   3.304   3.205  1.2333  1.3631 -0.0041
28923SOL     OW93629   2.994   7.286   2.382  0.2124 -0.1743 -0.1039
28923SOL    HW193630   3.089   7.285   2.368  0.2490  0.9607 -0.0799
28923SOL    HW293631   2.972   7.379   2.387 -0.7007 -0.4386  1.3272
28924SOL     OW93632   2.793   8.973   8.291 -0.4745 -0.2393 -0.5658
28924SOL    HW193633   2.776   8.926   8.209 -0.8227 -1.3229  0.1183
28924SOL    HW293634   2.725   9.041   8.293 -1.3494 -1.1021 -0.4986
28925SOL     OW93635  10.823   7.938   1.167 -0.1402 -0.0005  0.3657
28925SOL    HW193636  10.760   7.922   1.097 -1.0999  0.9652  0.9854
28925SOL    HW293637  10.888   7.868   1.158  0.1260  0.4591 -1.8988
28926SOL     OW93638  12.078   4.833   9.739  0.1579  0.1974  0.4466
28926SOL    HW193639  11.997   4.783   9.752 -0.1877 -0.2681 -2.7455
28926SOL    HW293640  12.147   4.767   9.739  0.0407  0.0482 -0.7315
28927SOL     OW93641   9.067   2.685   0.799 -0.0141  0.7808 -0.6814
28927SOL    HW193642   9.048   2.643   0.715 -0.4773  0.8116 -0.5943
28927SOL    HW293643   8.981   2.705   0.836  0.1896  0.8982 -0.2643
28928SOL     OW93644   7.415   2.846  10.490 -0.0330 -0.5136  0.7600
28928SOL    HW193645   7.321   2.849  10.469  0.2162 -0.0243 -0.3526
28928SOL    HW293646   7.432   2.929  10.535  0.1943  0.1724 -0.5533
28929SOL     OW93647  12.277   2.080  11.238  0.1442 -0.7539  0.5081
28929SOL    HW193648  12.302   2.172  11.229 -0.1871 -0.7516 -0.5237
28929SOL    HW293649  12.355   2.031  11.215  0.5983 -0.7433  1.9462
28930SOL     OW93650  10.044   9.502   7.603 -0.0878 -0.0874  0.3148
28930SOL    HW193651  10.073   9.588   7.573  0.4894 -0.3520  0.0914
28930SOL    HW293652  10.007   9.460   7.525 -0.5283  0.0205  0.4625
28931SOL     OW93653   4.602   5.351   4.206  0.5628  0.1444 -0.0496
28931SOL    HW193654   4.579   5.334   4.115 -1.6980 -1.1366  0.6585
28931SOL    HW293655   4.630   5.265   4.240  1.3381  0.5953  0.4954
28932SOL     OW93656   5.449   9.508   0.550 -0.4537  0.5530 -0.6250
28932SOL    HW193657   5.398   9.439   0.593 -1.3911  0.5399 -1.7142
28932SOL    HW293658   5.493   9.464   0.478  0.1492  0.8120 -0.4252
28933SOL     OW93659   1.318   2.334   3.047  0.2359  0.1996  0.0580
28933SOL    HW193660   1.275   2.268   3.103  0.2178 -0.0480 -0.2462
28933SOL    HW293661   1.405   2.344   3.085  0.6683 -0.8803 -0.5883
28934SOL     OW93662   5.985   3.348   8.927 -0.2044 -0.2093  0.1148
28934SOL    HW193663   6.073   3.313   8.939  0.0063 -1.0085 -2.9443
28934SOL    HW293664   5.999   3.439   8.900 -0.3332 -0.2185  0.0154
28935SOL     OW93665   6.155   4.815   5.074 -0.5122  0.0349  0.2207
28935SOL    HW193666   6.081   4.861   5.033  0.7462  1.0403 -1.0078
28935SOL    HW293667   6.219   4.884   5.092 -0.1591 -0.6971  2.0458
28936SOL     OW93668  10.618   6.259   7.837 -0.3299  0.9571 -0.3565
28936SOL    HW193669  10.597   6.337   7.786  2.1966  1.8580 -0.1801
28936SOL    HW293670  10.683   6.290   7.901 -0.0236 -1.0957  0.3905
28937SOL     OW93671  10.357   6.156   9.013 -0.0280  0.4382 -0.2478
28937SOL    HW193672  10.396   6.095   8.949 -1.1067 -0.8654  0.2990
28937SOL    HW293673  10.264   6.157   8.991 -0.4563 -0.2158  1.4250
28938SOL     OW93674   4.747  10.627   8.075 -0.1907 -0.0426 -0.0107
28938SOL    HW193675   4.668  10.659   8.032  0.4644  0.4949 -0.8599
28938SOL    HW293676   4.779  10.701   8.125 -0.7749 -0.5745  1.1731
28939SOL     OW93677   5.079   9.695   4.529 -0.2151 -0.0616 -0.2048
28939SOL    HW193678   5.094   9.626   4.464  2.0205 -0.5925  0.7758
28939SOL    HW293679   5.083   9.776   4.478  0.5876 -0.5081 -0.8922
28940SOL     OW93680   6.541   0.253   7.016 -0.3341  0.4021 -0.4533
28940SOL    HW193681   6.587   0.219   7.093 -1.9964  0.2557  0.5327
28940SOL    HW293682   6.577   0.341   7.004  1.2628 -0.2470 -0.6736
28941SOL     OW93683   3.466  11.902   4.865  0.2977  0.2161  0.5930
28941SOL    HW193684   3.488  11.884   4.774  0.6461  0.8705  0.5402
28941SOL    HW293685   3.372  11.891   4.870  0.2483  0.3875  0.0973
28942SOL     OW93686  10.579   2.911   1.012  0.0634 -0.0489 -0.1810
28942SOL    HW193687  10.556   3.004   1.001  0.5812  0.3179  1.5012
28942SOL    HW293688  10.513   2.864   0.961 -1.2292  1.1750  0.2950
28943SOL     OW93689   0.379   3.366   4.017  0.1543  0.8838  0.7774
28943SOL    HW193690   0.438   3.294   3.997 -0.0213  0.7854  0.6140
28943SOL    HW293691   0.303   3.324   4.058 -1.8073  0.4363 -2.8574
28944SOL     OW93692   0.311   9.699  11.773  0.0737  0.2457  0.3502
28944SOL    HW193693   0.348   9.757  11.707 -0.3345  0.3192  0.1850
28944SOL    HW293694   0.302   9.614  11.729  2.6316 -0.5548  1.1729
28945SOL     OW93695   2.704   3.820  11.967  0.5146  0.0758  0.6809
28945SOL    HW193696   2.772   3.849  11.906  0.4292  0.5762  0.8114
28945SOL    HW293697   2.626   3.810  11.913  0.6933 -0.5265  0.5254
28946SOL     OW93698   0.699   0.969   9.219  1.1600 -0.3553 -0.5622
28946SOL    HW193699   0.660   1.056   9.230  2.2311  0.1843 -0.9390
28946SOL    HW293700   0.628   0.916   9.182 -0.6262 -0.6086  2.8236
28947SOL     OW93701   7.010  10.778   0.249 -0.1508 -0.1273 -0.3888
28947SOL    HW193702   6.945  10.817   0.191 -0.7743  0.4582  0.6646
28947SOL    HW293703   7.072  10.735   0.191 -0.4095  0.9664 -1.4980
28948SOL     OW93704   2.999   5.145   5.278  0.0335  0.2491 -0.7902
28948SOL    HW193705   2.991   5.126   5.372 -1.2169  0.3173 -0.8690
28948SOL    HW293706   2.964   5.234   5.269  0.5062  0.3891 -1.2723
28949SOL     OW93707   0.060   4.568   8.736 -0.0865  0.4222 -0.8493
28949SOL    HW193708   0.056   4.523   8.652 -0.7232  0.2535 -0.7299
28949SOL    HW293709   0.123   4.639   8.722  0.1711  0.0997 -1.3264
28950SOL     OW93710   1.202   0.539   9.295 -0.4731  0.2800  0.1520
28950SOL    HW193711   1.259   0.462   9.297  0.8805  1.2538  0.3826
28950SOL    HW293712   1.246   0.600   9.235  0.2703  2.1639  2.4349
28951SOL     OW93713   0.730   3.123   4.441 -0.2768  0.2019 -0.1151
28951SOL    HW193714   0.693   3.038   4.466 -2.7544  1.1479 -0.2467
28951SOL    HW293715   0.788   3.102   4.367 -1.9492 -1.2506 -1.1121
28952SOL     OW93716  12.000   4.824   5.663 -0.2292  0.0705  0.5504
28952SOL    HW193717  12.063   4.792   5.599  0.9373  0.6745  1.3641
28952SOL    HW293718  11.942   4.750   5.680  0.4245 -0.5755 -0.0148
28953SOL     OW93719   4.893   7.575   3.675 -0.0519 -0.1346 -0.0789
28953SOL    HW193720   4.926   7.664   3.690  0.8557 -0.6890  1.3891
28953SOL    HW293721   4.799   7.587   3.662 -0.1790  0.9124  1.5758
28954SOL     OW93722  11.058   4.715   2.988  0.5586  0.3640  0.0995
28954SOL    HW193723  11.086   4.804   3.005  1.9623  0.2381 -1.3407
28954SOL    HW293724  11.129   4.660   3.020 -0.4326 -0.2946  1.2828
28955SOL     OW93725   0.707   0.124   9.696  0.2361 -0.2763  0.6819
28955SOL    HW193726   0.694   0.168   9.612  0.9601 -0.3153  0.5479
28955SOL    HW293727   0.690   0.032   9.677  0.5151 -0.3007  0.5520
28956SOL     OW93728   7.366  10.896   7.338  0.1418 -0.6149  0.5481
28956SOL    HW193729   7.370  10.936   7.425 -2.7524 -0.9624  0.9335
28956SOL    HW293730   7.358  10.970   7.278 -0.8808 -0.4352  0.8832
28957SOL     OW93731  12.315   9.309  11.810  0.2822  0.0138  0.0839
28957SOL    HW193732  12.270   9.389  11.783  2.4393  1.2558 -0.0135
28957SOL    HW293733  12.325   9.258  11.729 -1.1020 -0.4034  0.1496
28958SOL     OW93734  10.513   2.712   1.888 -0.0547 -0.2493 -0.4301
28958SOL    HW193735  10.488   2.620   1.878  1.1588 -0.6261 -0.0997
28958SOL    HW293736  10.459   2.758   1.824  0.5905 -1.4182 -1.8770
28959SOL     OW93737   2.326   1.940   9.409  0.0048 -0.4420  0.1105
28959SOL    HW193738   2.351   2.030   9.428  1.0642 -0.0963 -2.4573
28959SOL    HW293739   2.236   1.947   9.377  0.7532  0.0944 -2.0745
28960SOL     OW93740   6.906   5.966  10.886 -0.4230 -0.3274 -0.4823
28960SOL    HW193741   6.871   6.037  10.940  0.6089  0.7998 -1.2357
28960SOL    HW293742   6.986   5.938  10.931 -1.1517 -1.4722  0.1440
28961SOL     OW93743   0.737   2.128   9.231 -0.1432 -0.2468  0.3912
28961SOL    HW193744   0.708   2.060   9.292  0.7692 -0.5857  0.4589
28961SOL    HW293745   0.830   2.139   9.250 -0.5090  1.8877  1.2247
28962SOL     OW93746   4.405   8.183   2.762 -0.2594  0.3406  0.1383
28962SOL    HW193747   4.402   8.258   2.821 -1.6964  0.2673  0.2024
28962SOL    HW293748   4.384   8.108   2.818  1.0416 -0.1111  0.0519
28963SOL     OW93749   9.516   0.625   9.013 -0.4286 -0.1050 -0.2796
28963SOL    HW193750   9.559   0.604   8.930 -0.8580 -0.8244 -0.3354
28963SOL    HW293751   9.462   0.701   8.994 -0.0967  0.0737 -0.5145
28964SOL     OW93752   0.429  10.600   7.167 -0.2153 -0.6767  0.1815
28964SOL    HW193753   0.471  10.523   7.204 -1.2178 -0.7481  1.2580
28964SOL    HW293754   0.426  10.585   7.073  2.7730 -0.3392 -0.0513
28965SOL     OW93755   6.934   3.438   8.845 -0.0205  0.3781  0.3684
28965SOL    HW193756   6.964   3.516   8.893 -0.7418  0.7239  0.2740
28965SOL    HW293757   6.983   3.440   8.763 -1.2519  1.6925 -0.3710
28966SOL     OW93758  11.787   0.710  11.133 -0.5990 -0.3510 -0.7035
28966SOL    HW193759  11.869   0.742  11.095  0.4895 -0.8417  1.1134
28966SOL    HW293760  11.724   0.779  11.115  0.6596  0.8808 -0.6008
28967SOL     OW93761  11.619   6.545   9.202 -0.4825  0.7101 -0.1962
28967SOL    HW193762  11.634   6.627   9.250  0.7836  0.3526  0.0329
28967SOL    HW293763  11.682   6.547   9.130  1.5579 -1.3083  1.4054
28968SOL     OW93764   4.587   7.334   2.283 -0.1550  0.5385 -0.1003
28968SOL    HW193765   4.649   7.406   2.286  0.2036  0.4634 -2.9281
28968SOL    HW293766   4.546   7.341   2.197 -0.1742 -2.5413 -0.4726
28969SOL     OW93767   5.812   0.143  10.808  0.8369  0.5741  0.2865
28969SOL    HW193768   5.842   0.078  10.744  0.6756  0.7716  0.0097
28969SOL    HW293769   5.874   0.135  10.880  0.6158 -0.1343  0.4080
28970SOL     OW93770  10.376   6.449   8.685 -0.1663  0.2337  0.3522
28970SOL    HW193771  10.431   6.384   8.639  0.6913  0.4299  1.0623
28970SOL    HW293772  10.308   6.397   8.727  0.2255 -0.1667  0.5060
28971SOL     OW93773   5.812   6.683   0.198  0.6145  0.3640  0.1230
28971SOL    HW193774   5.846   6.610   0.250  1.7063  1.8334  1.5498
28971SOL    HW293775   5.803   6.647   0.110 -0.5381 -1.9823  1.1221
28972SOL     OW93776   7.296   0.944   8.965  0.5636  0.3991 -0.5736
28972SOL    HW193777   7.235   0.978   9.030 -1.4188 -1.2243 -1.4471
28972SOL    HW293778   7.365   1.010   8.959  0.8356  0.6178  3.0863
28973SOL     OW93779  10.013  10.531   7.403 -0.4487  0.0525  0.6266
28973SOL    HW193780   9.932  10.528   7.354 -0.6372 -2.2186  0.9571
28973SOL    HW293781  10.003  10.606   7.462 -1.2871  1.2110 -0.9180
28974SOL     OW93782   4.693  11.913   7.307  0.4588  0.0279  0.0999
28974SOL    HW193783   4.615  11.914   7.364 -0.1289  0.7832 -0.6903
28974SOL    HW293784   4.749  11.981   7.344  0.7086 -0.4431  0.6068
28975SOL     OW93785   9.916   9.909  10.961 -0.1510 -0.1278 -0.6878
28975SOL    HW193786   9.920   9.994  11.004 -0.9746  0.1517 -1.1380
28975SOL    HW293787   9.930   9.928  10.868  1.1505 -0.6682 -0.6305
28976SOL     OW93788   6.013  10.532  10.903  0.2448 -0.4287 -0.1116
28976SOL    HW193789   5.961  10.538  10.983  1.4236 -0.8523  0.7337
28976SOL    HW293790   6.073  10.606  10.909  1.5181 -1.4405  0.3230
28977SOL     OW93791   7.637   8.354   7.454  0.2104  0.0827 -0.7698
28977SOL    HW193792   7.732   8.362   7.452  0.1482  1.2389  0.0766
28977SOL    HW293793   7.616   8.334   7.545 -0.4663  1.5721 -0.5788
28978SOL     OW93794  10.335   6.201   0.273 -0.5309 -0.3767  0.3666
28978SOL    HW193795  10.313   6.289   0.303 -1.0786 -0.2244 -0.4494
28978SOL    HW293796  10.392   6.215   0.197 -1.6265 -0.6726 -0.5472
28979SOL     OW93797   0.266   3.778   4.838 -0.2269 -0.2835  0.1909
28979SOL    HW193798   0.275   3.764   4.932  0.1243  0.6090  0.2952
28979SOL    HW293799   0.262   3.873   4.828 -0.2072 -0.3699 -0.6999
28980SOL     OW93800   9.977   8.541   7.324  0.1046 -0.0983  0.3725
28980SOL    HW193801   9.890   8.502   7.325 -0.2240  0.6255  0.3411
28980SOL    HW293802  10.012   8.521   7.237  0.2992 -1.0827  0.6638
28981SOL     OW93803   5.818   3.786   8.559 -0.8318  0.3535  0.4009
28981SOL    HW193804   5.871   3.724   8.508 -0.5131 -0.8059  2.0581
28981SOL    HW293805   5.845   3.872   8.529  1.8794 -0.2073  1.0258
28982SOL     OW93806   7.339   9.685   2.183  0.0461 -0.4640 -0.5094
28982SOL    HW193807   7.253   9.727   2.193 -1.0628 -2.9147  1.1477
28982SOL    HW293808   7.326   9.596   2.214  2.9001 -1.3440 -1.5252
28983SOL     OW93809   5.353   2.996  10.084  0.5701  0.1349  0.4517
28983SOL    HW193810   5.320   2.984   9.995  1.3145 -0.5388  0.2525
28983SOL    HW293811   5.382   3.087  10.087  1.6233 -0.1461 -0.3801
28984SOL     OW93812   6.386   6.432   0.797  0.0987  0.1393  0.3255
28984SOL    HW193813   6.428   6.462   0.717  1.0673  1.3237  1.2435
28984SOL    HW293814   6.308   6.487   0.805 -0.4112 -0.5013 -0.1927
28985SOL     OW93815   8.054  11.303   8.840 -0.1070  0.0460  0.2661
28985SOL    HW193816   7.988  11.289   8.907  1.4303 -0.8736  1.6690
28985SOL    HW293817   8.062  11.219   8.796  0.4239  0.0217  0.3993
28986SOL     OW93818   3.171   7.554   8.048 -0.1664  0.3356  0.0186
28986SOL    HW193819   3.144   7.624   7.988 -1.4569  1.5814  1.9593
28986SOL    HW293820   3.131   7.577   8.131  0.3297 -2.1447  1.0167
28987SOL     OW93821   7.862   1.919   2.054  0.5281 -0.3265  0.0926
28987SOL    HW193822   7.818   1.968   2.124  0.2600  0.4076 -0.5769
28987SOL    HW293823   7.955   1.929   2.072  0.4543 -1.3952  1.1831
28988SOL     OW93824  10.810  11.734   0.424 -0.1207 -0.8546  0.2602
28988SOL    HW193825  10.720  11.714   0.396 -0.4449 -0.5605  1.0580
28988SOL    HW293826  10.808  11.723   0.519  0.6780 -0.7920  0.2876
28989SOL     OW93827   3.839   6.701   7.441 -0.5327  0.0690 -0.0410
28989SOL    HW193828   3.766   6.647   7.410 -1.1508  0.8823 -0.0155
28989SOL    HW293829   3.901   6.638   7.477 -1.4226 -0.6016  0.3585
28990SOL     OW93830  12.346  11.691   7.271 -0.0835 -0.0806 -0.4843
28990SOL    HW193831  12.366  11.663   7.181  2.7094  1.5421 -0.4755
28990SOL    HW293832  12.422  11.664   7.321 -0.3845  1.4319  0.8596
28991SOL     OW93833  10.329   1.744   4.336 -0.1714  0.4034 -0.5858
28991SOL    HW193834  10.263   1.785   4.391 -2.2055  0.2226 -2.7204
28991SOL    HW293835  10.407   1.738   4.391 -2.0842  0.0907  2.2718
28992SOL     OW93836   1.773   6.930   9.646 -0.1617  0.1650  0.0537
28992SOL    HW193837   1.744   6.928   9.737 -1.4261 -0.3636 -0.3411
28992SOL    HW293838   1.693   6.947   9.596  0.1945 -1.3814 -1.0937
28993SOL     OW93839   6.394  10.313  10.380 -0.0557 -0.8512 -0.2142
28993SOL    HW193840   6.410  10.245  10.315  0.4948 -0.1912 -0.7860
28993SOL    HW293841   6.409  10.395  10.333  3.3935 -0.3678  1.4479
28994SOL     OW93842   5.313   1.530   8.849  0.3356 -0.3339  0.0417
28994SOL    HW193843   5.257   1.512   8.924 -0.9192  0.4569 -0.6774
28994SOL    HW293844   5.284   1.468   8.781  0.4364 -0.0272 -0.2849
28995SOL     OW93845   8.360   2.022   5.042  0.1906 -0.0153  0.7473
28995SOL    HW193846   8.440   2.041   4.994 -0.1965 -0.1600  0.0423
28995SOL    HW293847   8.319   1.951   4.993 -1.8679  2.0138 -0.6435
28996SOL     OW93848   4.564   2.134   9.739 -0.5776  0.6251  0.0212
28996SOL    HW193849   4.637   2.175   9.787 -0.2019  1.0803 -0.9047
28996SOL    HW293850   4.511   2.208   9.709 -1.2719  0.3078  0.4344
28997SOL     OW93851  11.272   4.218   4.950 -0.0488 -0.1891 -0.2839
28997SOL    HW193852  11.336   4.171   4.896 -0.3932  0.0144 -0.8635
28997SOL    HW293853  11.210   4.256   4.888 -1.5719 -1.5683  0.3259
28998SOL     OW93854  12.001   9.487   9.988  0.2779  0.1011  0.2707
28998SOL    HW193855  12.007   9.577  10.020  1.0389 -0.0251  0.5161
28998SOL    HW293856  12.026   9.433  10.063 -1.5327 -0.4139  0.5541
28999SOL     OW93857   2.395   4.618   0.115 -0.4435 -0.4021  0.0934
28999SOL    HW193858   2.327   4.684   0.129 -1.2887 -0.3635 -3.4078
28999SOL    HW293859   2.468   4.667   0.076  1.1114 -0.7049  2.4205
29000SOL     OW93860   6.111  10.683  12.025  0.3397  0.0279 -0.1563
29000SOL    HW193861   6.185  10.708  11.969 -0.8627  1.9644 -0.9934
29000SOL    HW293862   6.037  10.674  11.965 -0.6149  0.4999  0.9063
29001SOL     OW93863   0.797   0.521  11.748  0.3416  0.3837 -0.1542
29001SOL    HW193864   0.716   0.572  11.741 -0.6118 -1.0003  0.5449
29001SOL    HW293865   0.852   0.554  11.676 -0.8589  1.2730 -0.6969
29002SOL     OW93866  11.629   5.777   8.483  0.0999  0.0315 -0.5065
29002SOL    HW193867  11.648   5.685   8.466 -1.2209 -0.2495 -0.6271
29002SOL    HW293868  11.682   5.799   8.559  1.0375 -0.6019 -0.9609
29003SOL     OW93869  11.890   9.570   1.799  0.0487 -0.5280  0.4701
29003SOL    HW193870  11.871   9.487   1.754  0.8853 -0.7336  0.4949
29003SOL    HW293871  11.826   9.631   1.763 -0.8784 -1.2874  0.7758
29004SOL     OW93872   9.122   7.600   8.745 -0.1794 -0.0286  0.6050
29004SOL    HW193873   9.208   7.568   8.719 -0.1579  1.1388 -0.9222
29004SOL    HW293874   9.105   7.559   8.830  1.5510 -0.8430  0.5901
29005SOL     OW93875  11.452   4.993   6.305  0.7451 -0.0190 -0.3383
29005SOL    HW193876  11.493   4.931   6.365  1.0854  0.2433 -0.2967
29005SOL    HW293877  11.517   5.007   6.236  1.1019  1.1056  0.2069
29006SOL     OW93878  11.079   7.228  10.350  0.0678 -0.3041  0.1253
29006SOL    HW193879  11.086   7.152  10.292 -1.2798 -0.8866  0.6900
29006SOL    HW293880  10.990   7.260  10.337  0.4055  0.7940  0.3928
29007SOL     OW93881   0.103   0.100   3.133  0.4882  0.2884 -0.2227
29007SOL    HW193882   0.110   0.013   3.093 -0.2527 -0.5587  1.3919
29007SOL    HW293883   0.030   0.141   3.087 -1.4102 -1.2770  1.1939
29008SOL     OW93884   0.153   6.250   3.196 -0.4434  0.2076 -0.2558
29008SOL    HW193885   0.197   6.322   3.241 -1.5355  0.4377  0.4822
29008SOL    HW293886   0.096   6.211   3.263  1.0057 -2.1273 -0.3019
29009SOL     OW93887   5.212   1.482   6.415 -0.6351 -0.1856  0.4247
29009SOL    HW193888   5.119   1.468   6.399 -0.0595 -3.4409 -0.8444
29009SOL    HW293889   5.231   1.429   6.492  0.4145 -0.7742 -0.2205
29010SOL     OW93890   8.966   5.324  12.121  0.0992  0.3394 -0.0129
29010SOL    HW193891   8.897   5.390  12.124  1.8039  2.2083  0.4128
29010SOL    HW293892   8.935   5.254  12.178 -1.7647  0.7392 -0.4657
29011SOL     OW93893   8.641   9.324   7.209  0.3450 -0.5882  0.2342
29011SOL    HW193894   8.650   9.376   7.129 -0.7739 -0.4037  0.1991
29011SOL    HW293895   8.596   9.244   7.181 -0.9290 -0.1100  0.7969
29012SOL     OW93896  10.520   5.547   7.957  0.2770  0.1244  0.8345
29012SOL    HW193897  10.554   5.461   7.982 -1.2375 -0.0262  2.6046
29012SOL    HW293898  10.544   5.605   8.029  0.2933  0.9393  0.1967
29013SOL     OW93899   2.721   4.770   3.619  0.1277 -0.1538  0.9302
29013SOL    HW193900   2.795   4.739   3.671  0.5631  0.1998  0.5310
29013SOL    HW293901   2.751   4.763   3.528  0.1314  1.1482  0.8120
29014SOL     OW93902   7.266   8.861   9.112  0.4725  0.0085 -0.6065
29014SOL    HW193903   7.326   8.790   9.090 -0.1482  0.3389 -3.8480
29014SOL    HW293904   7.301   8.937   9.066 -0.9050  0.8981 -0.2340
29015SOL     OW93905   9.518  10.130   6.115 -0.4662 -0.2745  0.0744
29015SOL    HW193906   9.574  10.138   6.037  0.0075 -1.9979  0.1871
29015SOL    HW293907   9.579  10.133   6.188 -0.7704  0.0964  0.3096
29016SOL     OW93908   9.971  10.863   7.360 -0.0153  0.7952 -0.1276
29016SOL    HW193909   9.997  10.815   7.282  0.0064 -0.6123  0.7021
29016SOL    HW293910   9.876  10.851   7.365  0.0462  0.4502  0.3190
29017SOL     OW93911   8.734   8.207   6.420 -0.7436 -0.3320 -0.5709
29017SOL    HW193912   8.738   8.245   6.508 -0.7194  0.1509 -0.7767
29017SOL    HW293913   8.674   8.132   6.428 -1.9457  0.6119 -0.4697
29018SOL     OW93914  10.621   5.645  11.586 -0.4415 -0.0980  0.2574
29018SOL    HW193915  10.585   5.633  11.674 -0.0758 -0.5764  0.3452
29018SOL    HW293916  10.660   5.732  11.587  1.5003 -0.9241  1.2692
29019SOL     OW93917   7.641   0.881   4.041  0.9651  0.0028  0.1122
29019SOL    HW193918   7.704   0.954   4.049  0.6810  0.1876  0.7299
29019SOL    HW293919   7.692   0.810   4.003  1.5172  0.1915  0.4867
29020SOL     OW93920   8.205  11.803   1.311 -0.3314  0.7223 -0.7480
29020SOL    HW193921   8.249  11.769   1.233  2.1749 -0.5538  1.0620
29020SOL    HW293922   8.120  11.760   1.311  0.5673 -1.1806 -1.5389
29021SOL     OW93923   6.403   5.185   6.036 -0.5218 -0.0445  0.1617
29021SOL    HW193924   6.379   5.260   6.090  1.7997 -0.6850  2.3195
29021SOL    HW293925   6.420   5.115   6.099  1.3522 -1.1578 -1.4552
29022SOL     OW93926   0.217  12.328  10.279  0.1205 -0.1729 -0.2849
29022SOL    HW193927   0.306  12.292  10.281  1.1718  1.8520 -3.1534
29022SOL    HW293928   0.226  12.417  10.314 -0.9085 -0.1711  0.0053
29023SOL     OW93929  10.428   6.701   0.794  0.0512  0.2206 -0.5746
29023SOL    HW193930  10.498   6.640   0.770  0.5952  0.0560  1.2668
29023SOL    HW293931  10.447   6.780   0.744  0.3432 -0.5381 -1.6823
29024SOL     OW93932  10.183  12.118   0.361  0.5349  0.3330 -0.4428
29024SOL    HW193933  10.088  12.119   0.352  0.4536 -1.3958 -0.0022
29024SOL    HW293934  10.216  12.117   0.271  0.1000 -0.4421 -0.6021
29025SOL     OW93935   6.267   6.415   4.087 -0.1304 -0.0418 -0.6304
29025SOL    HW193936   6.323   6.411   4.164 -1.0520  0.1716  0.0653
29025SOL    HW293937   6.317   6.464   4.022  0.8033 -0.5486 -0.2997
29026SOL     OW93938  10.922   7.142   4.254 -0.9054  0.0875  0.9726
29026SOL    HW193939  10.994   7.088   4.221 -0.8092  0.1125  1.1439
29026SOL    HW293940  10.950   7.169   4.341 -1.0107  0.3090  0.9383
29027SOL     OW93941   4.765  11.019   0.160  0.9381  0.3108  0.1716
29027SOL    HW193942   4.682  11.008   0.207  0.6012  1.1364 -0.2066
29027SOL    HW293943   4.826  11.048   0.227  1.1631 -1.1451  0.6317
29028SOL     OW93944   0.663   3.979   0.562  0.2409  0.5814  0.0771
29028SOL    HW193945   0.749   4.009   0.591  0.9873 -1.7553  0.5228
29028SOL    HW293946   0.674   3.963   0.469  1.1273 -2.0567  0.5502
29029SOL     OW93947  11.201   5.186   9.117 -0.5499 -0.1252 -0.0629
29029SOL    HW193948  11.216   5.140   9.199  1.3154  0.5218 -0.0031
29029SOL    HW293949  11.266   5.256   9.116 -0.5725 -0.0759 -2.0698
29030SOL     OW93950   4.632   3.981   1.860 -0.3299 -0.5461  0.2201
29030SOL    HW193951   4.589   3.908   1.905 -0.3153  0.3023  1.7070
29030SOL    HW293952   4.604   4.058   1.910  0.1941  0.3857 -0.8969
29031SOL     OW93953   8.824   3.943   8.635  0.0100  0.5442 -0.2902
29031SOL    HW193954   8.771   3.913   8.709  0.5904  1.4016  0.4911
29031SOL    HW293955   8.914   3.926   8.662  0.2972  2.0707 -0.2377
29032SOL     OW93956  10.266   7.646   5.928  0.4510  0.6210 -0.3773
29032SOL    HW193957  10.219   7.729   5.926 -1.7149 -0.5292 -2.7849
29032SOL    HW293958  10.235   7.599   5.851  2.7947 -1.8063  0.0203
29033SOL     OW93959  11.142   8.177   7.232 -0.3273 -0.3707 -0.2748
29033SOL    HW193960  11.147   8.116   7.159  1.5307  0.6606 -1.0978
29033SOL    HW293961  11.200   8.249   7.207  0.9652 -0.3004  2.4855
29034SOL     OW93962   2.151   3.253   5.136 -0.2972  0.0151  0.1945
29034SOL    HW193963   2.117   3.212   5.056  0.8807 -0.5092 -0.0566
29034SOL    HW293964   2.220   3.312   5.105 -2.2899  2.6762  0.4870
29035SOL     OW93965   1.762   7.413   8.096 -0.1969 -0.1823  0.3650
29035SOL    HW193966   1.856   7.407   8.079 -0.4717 -0.5147 -1.2208
29035SOL    HW293967   1.722   7.357   8.029 -1.5420  0.2015  0.8157
29036SOL     OW93968   4.022   8.164   8.869 -0.0474 -0.5744 -0.2611
29036SOL    HW193969   4.024   8.080   8.824  2.5094  0.2703 -2.0275
29036SOL    HW293970   4.107   8.169   8.914 -1.0390  0.1837  1.6304
29037SOL     OW93971   7.546   2.812   6.974  0.3130 -0.1458  0.5325
29037SOL    HW193972   7.619   2.871   6.954 -0.4339  0.3217 -0.8919
29037SOL    HW293973   7.576   2.726   6.944  0.1717  0.0941 -0.3012
29038SOL     OW93974   6.061   1.813   3.020 -0.7037  0.0813  0.3090
29038SOL    HW193975   6.121   1.745   2.989 -0.4168 -0.2161  1.4556
29038SOL    HW293976   6.063   1.881   2.952  0.4364 -0.2197  0.0330
29039SOL     OW93977   7.027   9.198   4.074  0.3670  0.2994  0.2272
29039SOL    HW193978   6.967   9.127   4.051  0.3747  0.7404 -1.2713
29039SOL    HW293979   7.038   9.191   4.169 -0.5536 -0.9623  0.2613
29040SOL     OW93980   4.416   5.198   7.841 -0.8401 -0.7097  0.4751
29040SOL    HW193981   4.377   5.115   7.813 -1.0430 -0.2380 -0.7109
29040SOL    HW293982   4.444   5.240   7.760  1.6338 -0.7405  1.2260
29041SOL     OW93983  10.451   8.589   1.679 -0.1884 -0.1090 -0.1561
29041SOL    HW193984  10.437   8.497   1.700 -0.9500  0.3777  1.6343
29041SOL    HW293985  10.399   8.637   1.744  1.4348  1.6174 -0.0514
29042SOL     OW93986   8.729   4.540   1.388 -0.1161 -0.0359  0.7049
29042SOL    HW193987   8.713   4.507   1.299  0.2696  0.5421  0.4166
29042SOL    HW293988   8.798   4.484   1.422 -1.3459 -1.2972  1.2449
29043SOL     OW93989   8.385   0.971   3.032 -0.3927 -0.1019  0.3584
29043SOL    HW193990   8.322   0.909   2.995 -0.0755  0.1308 -0.6072
29043SOL    HW293991   8.362   1.055   2.992  0.7500 -0.0838 -0.3151
29044SOL     OW93992   6.482  11.444   1.474  0.2653  0.1869  0.7444
29044SOL    HW193993   6.547  11.379   1.499  1.1136  1.3969  1.8177
29044SOL    HW293994   6.532  11.525   1.462 -1.0053  1.1134  1.4666
29045SOL     OW93995   0.448   8.280  12.147 -0.1245 -0.3696 -0.6367
29045SOL    HW193996   0.439   8.185  12.142  0.1652 -0.4602  0.3922
29045SOL    HW293997   0.357   8.313  12.148 -0.2367 -0.7047  0.1659
29046SOL     OW93998   9.077   7.063   5.365 -0.2519  0.3531 -0.4568
29046SOL    HW193999   9.101   6.997   5.429  0.9155  0.1776 -1.0458
29046SOL    HW294000   9.043   7.136   5.417  1.5828  0.6068  0.4533
29047SOL     OW94001   8.666   4.947   9.482  0.4945 -0.1015  0.0088
29047SOL    HW194002   8.650   5.040   9.464  0.9523 -0.0912 -0.4021
29047SOL    HW294003   8.731   4.947   9.552 -0.4320 -0.1291  0.8746
29048SOL     OW94004   5.789  10.480   5.722  0.1523 -0.1775 -0.6796
29048SOL    HW194005   5.857  10.413   5.720  0.3599  0.0499 -1.4915
29048SOL    HW294006   5.825  10.553   5.672 -0.4890  0.1365 -0.6989
29049SOL     OW94007   6.645   2.815   8.667  0.5123  0.3417  0.1162
29049SOL    HW194008   6.619   2.886   8.609  0.1954  0.6111  0.5835
29049SOL    HW294009   6.686   2.858   8.742 -3.0209  0.3974  2.2690
29050SOL     OW94010   0.158  11.791  11.937 -0.4131  0.1244 -0.2678
29050SOL    HW194011   0.207  11.871  11.918 -0.8011  0.1305 -1.2910
29050SOL    HW294012   0.225  11.726  11.957 -0.1077  0.8239  1.1296
29051SOL     OW94013   4.230   4.446   3.528 -0.0584 -0.3739  0.2046
29051SOL    HW194014   4.181   4.504   3.587 -1.0196 -0.3772 -0.5625
29051SOL    HW294015   4.289   4.397   3.586  1.0569  1.5990  0.8477
29052SOL     OW94016   4.528   8.986  11.139 -0.3650  0.3601 -0.0344
29052SOL    HW194017   4.550   9.060  11.196 -1.9905  0.8273  0.0173
29052SOL    HW294018   4.539   9.021  11.051 -1.3371  0.7536 -0.0124
29053SOL     OW94019   6.727   1.640   2.504  0.3407  0.0521  0.2822
29053SOL    HW194020   6.637   1.629   2.473  0.3155 -0.7122  0.6066
29053SOL    HW294021   6.718   1.660   2.597  0.4867  0.5987  0.1833
29054SOL     OW94022  11.660   5.035   1.612  0.3603 -0.1936 -0.1839
29054SOL    HW194023  11.701   4.978   1.678 -0.2817  0.0837  0.4643
29054SOL    HW294024  11.661   4.983   1.532 -0.7609 -1.3756  0.5288
29055SOL     OW94025  12.263   2.268  10.770 -0.2749 -0.0661  0.4258
29055SOL    HW194026  12.218   2.206  10.827  0.0952  0.1160  0.9216
29055SOL    HW294027  12.350   2.279  10.809 -0.0060  0.0449 -0.1838
29056SOL     OW94028   8.765   7.936  10.058 -0.0163  0.6874 -0.7305
29056SOL    HW194029   8.782   7.934  10.152  1.8643 -0.9727 -1.0330
29056SOL    HW294030   8.852   7.944  10.018 -0.6941  0.3385 -2.3454
29057SOL     OW94031   6.240   2.668   7.508  0.8049 -0.5903  0.0325
29057SOL    HW194032   6.218   2.606   7.438 -0.1820 -1.9202  1.4553
29057SOL    HW294033   6.265   2.612   7.582 -1.7194  0.5874  1.9170
29058SOL     OW94034   0.369   1.573  11.478  0.3404  0.4007 -0.0852
29058SOL    HW194035   0.449   1.579  11.427 -1.8736 -0.4600 -4.0763
29058SOL    HW294036   0.360   1.480  11.499  0.3226  0.4818  0.2836
29059SOL     OW94037   6.327   4.927   4.348 -0.4585 -0.7056 -0.3519
29059SOL    HW194038   6.287   4.891   4.426 -0.1109 -2.3383 -0.8900
29059SOL    HW294039   6.279   4.887   4.275  0.7799 -1.0872 -0.9839
29060SOL     OW94040  11.124   5.641  10.051 -0.0056 -0.0462 -0.1114
29060SOL    HW194041  11.176   5.702  10.103 -0.8600  1.7335 -1.2602
29060SOL    HW294042  11.186   5.571  10.027  1.7980  1.7744 -1.0659
29061SOL     OW94043   8.159   2.692  10.890 -0.7748 -0.0202 -0.0481
29061SOL    HW194044   8.159   2.762  10.825 -0.2602 -0.8348 -0.9565
29061SOL    HW294045   8.250   2.688  10.921 -0.8992 -0.0037  0.3303
29062SOL     OW94046   9.478   7.058  12.189 -0.5640 -0.1938  0.6556
29062SOL    HW194047   9.434   7.138  12.160  2.5460  1.5308  0.2699
29062SOL    HW294048   9.502   7.013  12.108  0.5669  0.1918  0.7683
29063SOL     OW94049   2.517   9.925   6.118  0.1473  0.0057  0.3850
29063SOL    HW194050   2.435   9.939   6.071  0.2137 -2.8199 -0.7761
29063SOL    HW294051   2.583   9.970   6.066 -0.2620 -0.1666 -0.2912
29064SOL     OW94052   8.797   5.526   6.269  0.0847 -0.0594 -0.1176
29064SOL    HW194053   8.749   5.585   6.326  0.2527  0.4068 -0.4487
29064SOL    HW294054   8.835   5.583   6.202  1.6496 -0.3229  0.5032
29065SOL     OW94055  10.586   4.147   9.012  0.6082  0.3966  0.2441
29065SOL    HW194056  10.621   4.187   9.091  2.0005 -0.4282  0.0841
29065SOL    HW294057  10.529   4.076   9.042 -0.7290  1.5516  0.5072
29066SOL     OW94058   5.383   6.222   9.141 -0.1744  0.4430  0.2260
29066SOL    HW194059   5.315   6.261   9.196 -0.1320 -0.4210  0.9223
29066SOL    HW294060   5.373   6.128   9.155  2.4765  0.3282  1.9541
29067SOL     OW94061   0.715   1.567   4.386 -0.4948 -0.3013  0.0453
29067SOL    HW194062   0.735   1.661   4.385  0.8872 -0.5332 -2.3866
29067SOL    HW294063   0.770   1.532   4.456 -0.4285  0.5793  0.4544
29068SOL     OW94064   9.741  11.860   8.894 -0.1519 -0.1689 -0.1472
29068SOL    HW194065   9.776  11.791   8.950  0.7761 -0.3540 -0.9416
29068SOL    HW294066   9.655  11.880   8.932 -0.3730 -1.6448  0.1844
29069SOL     OW94067   2.452   1.288  12.091 -0.1761  0.8936  0.2241
29069SOL    HW194068   2.367   1.315  12.055  0.6358  1.6184 -1.2306
29069SOL    HW294069   2.457   1.194  12.072 -0.7671  0.7807  0.5901
29070SOL     OW94070  10.421   7.893   4.241 -0.7880  0.0283  0.4318
29070SOL    HW194071  10.339   7.866   4.283  0.2366 -0.9680  1.8912
29070SOL    HW294072  10.455   7.812   4.202 -0.5537  0.4633 -0.2777
29071SOL     OW94073   8.673   1.338   0.732  0.1427 -0.0425  0.2873
29071SOL    HW194074   8.676   1.301   0.644 -0.1042 -1.0193  0.6791
29071SOL    HW294075   8.596   1.396   0.731 -0.7672 -1.2219  0.3014
29072SOL     OW94076   5.313   6.032   1.016 -0.4673 -0.2634  0.5593
29072SOL    HW194077   5.256   6.109   1.026  1.6327  1.6654 -1.1512
29072SOL    HW294078   5.334   6.008   1.106 -1.1407  1.2141  1.1642
29073SOL     OW94079   4.268  10.886  12.316  0.1263  0.5997 -0.1357
29073SOL    HW194080   4.237  10.976  12.314 -0.8514  0.3009  0.9781
29073SOL    HW294081   4.229  10.845  12.238  0.3085  1.0365 -0.4603
29074SOL     OW94082   2.696  10.453   4.969  0.3500  0.6936 -0.7285
29074SOL    HW194083   2.661  10.542   4.974 -0.0588  0.4912  0.1805
29074SOL    HW294084   2.622  10.399   4.942  0.6011  0.6272 -1.2924
29075SOL     OW94085   5.335  10.201   7.635 -0.2579  0.3380 -0.2475
29075SOL    HW194086   5.354  10.117   7.593 -2.5652 -0.1522 -0.4518
29075SOL    HW294087   5.240  10.200   7.648  0.0272  1.5835  2.6373
29076SOL     OW94088  10.732   1.056   1.307  0.4346 -0.0262 -0.7583
29076SOL    HW194089  10.729   1.062   1.402  2.6004 -0.3096 -0.6196
29076SOL    HW294090  10.715   1.145   1.276 -2.5620 -0.3332 -0.2623
29077SOL     OW94091   7.790   3.139  12.061 -0.0023 -0.2280 -1.0021
29077SOL    HW194092   7.803   3.146  12.155 -2.7754 -1.5832 -0.4244
29077SOL    HW294093   7.799   3.229  12.029 -1.4703  0.6904  0.9635
29078SOL     OW94094   3.447   8.688   0.801  0.5374  0.3889 -0.7368
29078SOL    HW194095   3.496   8.737   0.735 -0.0980 -1.2251 -2.5021
29078SOL    HW294096   3.377   8.644   0.751  0.5301 -1.5534  0.8768
29079SOL     OW94097   3.121   7.799   8.874  0.0829 -0.0818  0.1971
29079SOL    HW194098   3.096   7.748   8.951  0.5221  1.9802  1.7879
29079SOL    HW294099   3.071   7.880   8.881  1.3145  0.8205 -0.8002
29080SOL     OW94100   4.543   3.046   2.448 -0.4887  0.4366 -0.5301
29080SOL    HW194101   4.631   3.041   2.485 -0.6035  1.6645 -0.0628
29080SOL    HW294102   4.543   3.125   2.395 -1.9897  1.8914  1.4613
29081SOL     OW94103   1.233  12.071  11.354 -0.6941  0.4019 -0.3254
29081SOL    HW194104   1.283  12.145  11.388  0.4841 -0.8397  0.7952
29081SOL    HW294105   1.198  12.101  11.271 -1.2638  2.6097  0.6387
29082SOL     OW94106   5.207   6.119   7.683  0.3242 -0.3742 -0.1502
29082SOL    HW194107   5.176   6.200   7.724  1.7392  0.3443 -0.4180
29082SOL    HW294108   5.144   6.052   7.710 -1.3461  0.9525 -0.5673
29083SOL     OW94109  11.457   1.093   9.147 -0.1765  0.5210  0.3201
29083SOL    HW194110  11.415   1.136   9.072  0.9898  1.8125  0.3583
29083SOL    HW294111  11.397   1.106   9.219 -1.8823 -1.7588 -0.5688
29084SOL     OW94112   5.722   1.059  11.633 -0.1746 -0.1503  0.0710
29084SOL    HW194113   5.752   1.037  11.545  1.6876 -0.9492  0.8519
29084SOL    HW294114   5.627   1.061  11.626 -0.0658  1.7751 -2.4043
29085SOL     OW94115  10.747  12.199   3.775  0.2527  0.1821  0.0337
29085SOL    HW194116  10.664  12.238   3.746  0.3731 -0.2274 -0.8811
29085SOL    HW294117  10.723  12.147   3.852 -0.0187  1.5128  0.8951
29086SOL     OW94118  11.010   2.704   6.321  0.0861  0.8144  0.5569
29086SOL    HW194119  10.942   2.754   6.365  0.2170  0.1851  1.4982
29086SOL    HW294120  11.026   2.629   6.378  0.8779  0.4352 -0.1359
29087SOL     OW94121   7.014   2.351  11.033 -0.1813  0.1000 -0.2446
29087SOL    HW194122   7.011   2.352  11.129  0.0758 -0.1169 -0.2315
29087SOL    HW294123   6.957   2.423  11.006 -0.7292 -0.2233  0.0576
29088SOL     OW94124   2.797   3.638   2.000  0.0215 -0.6289  0.2222
29088SOL    HW194125   2.745   3.646   2.080  0.7645 -0.1738  0.6718
29088SOL    HW294126   2.753   3.694   1.936  1.4328  1.9971  1.3968
29089SOL     OW94127   8.647   7.160   8.604  0.7016 -0.0098  0.0778
29089SOL    HW194128   8.740   7.135   8.602  0.7558  0.1305  0.6370
29089SOL    HW294129   8.617   7.148   8.514  1.6023  1.1966 -0.4075
29090SOL     OW94130  11.735  10.643   8.902 -0.4364  0.3171  0.1404
29090SOL    HW194131  11.767  10.555   8.921  0.7718  1.0506  1.7021
29090SOL    HW294132  11.767  10.662   8.814 -1.3340 -1.0480 -0.5079
29091SOL     OW94133   2.609   8.952   9.851 -0.0022 -0.3027  0.7310
29091SOL    HW194134   2.701   8.934   9.830 -0.1713 -0.6104  0.2337
29091SOL    HW294135   2.567   8.866   9.850 -0.3590 -0.1292  0.6376
29092SOL     OW94136  12.477  10.550   5.461  0.2025 -0.1288  0.5185
29092SOL    HW194137  12.523  10.618   5.411  0.1980 -0.0945  0.5619
29092SOL    HW294138  12.385  10.563   5.440  0.1931 -0.0611  0.6014
29093SOL     OW94139   6.018  10.853   3.723 -0.7129  0.2781  0.3064
29093SOL    HW194140   5.999  10.825   3.813 -0.6862 -0.6957  0.0225
29093SOL    HW294141   6.097  10.907   3.731 -0.9537  0.5502  0.9192
29094SOL     OW94142   0.567   7.244   6.463 -0.5342  0.3054  0.1127
29094SOL    HW194143   0.618   7.245   6.382 -0.5240  1.0098  0.1216
29094SOL    HW294144   0.483   7.283   6.439  0.8228  4.4545  1.2697
29095SOL     OW94145   1.555   2.420   0.965  0.2032  0.2795  0.6634
29095SOL    HW194146   1.625   2.374   0.919  1.0322  1.5637  0.6090
29095SOL    HW294147   1.515   2.353   1.020  0.6727 -0.7536 -0.2059
29096SOL     OW94148  11.968   3.199   9.356 -0.2467  0.1359  0.0615
29096SOL    HW194149  11.895   3.186   9.295  1.1903  0.6067 -1.8733
29096SOL    HW294150  11.948   3.142   9.430 -2.2406 -0.2446 -0.7078
29097SOL     OW94151   9.500   9.334   8.110  0.0386  0.0939 -0.0444
29097SOL    HW194152   9.472   9.389   8.184  0.5759  2.0279 -1.1957
29097SOL    HW294153   9.580   9.377   8.079 -0.0417 -0.8284 -1.5882
29098SOL     OW94154   5.150   0.794   2.594  0.2162  0.3963  0.1971
29098SOL    HW194155   5.225   0.852   2.587  0.5100 -0.1405 -1.3604
29098SOL    HW294156   5.161   0.730   2.524 -0.7497 -0.7967  1.0753
29099SOL     OW94157   7.352   7.719  11.347 -0.0669  0.0547 -0.1380
29099SOL    HW194158   7.299   7.639  11.353  2.2162 -1.6795 -1.3745
29099SOL    HW294159   7.432   7.698  11.394  0.2118  2.0322  0.3631
29100SOL     OW94160   2.285   5.670   7.308  0.5309 -0.7542  0.6167
29100SOL    HW194161   2.312   5.636   7.222 -1.5599  0.2428 -0.5016
29100SOL    HW294162   2.259   5.592   7.357  0.0429 -1.1974 -0.3150
29101SOL     OW94163  12.202   1.482  11.533  0.4035 -0.0531 -0.1209
29101SOL    HW194164  12.116   1.479  11.576 -0.8973 -1.0186 -2.5839
29101SOL    HW294165  12.218   1.575  11.519 -1.2910  0.0867 -1.4763
29102SOL     OW94166   7.024   0.797   1.880  0.4041 -0.2238  0.2159
29102SOL    HW194167   7.107   0.830   1.847  0.6091  1.6530  2.3485
29102SOL    HW294168   7.049   0.731   1.946  0.1245 -0.9600 -0.3989
29103SOL     OW94169  12.081   5.094  10.152 -0.0118 -0.4001 -0.5551
29103SOL    HW194170  12.109   5.129  10.236 -4.5181  0.7863  0.7230
29103SOL    HW294171  12.096   5.166  10.090 -1.3989  0.7415  0.3707
29104SOL     OW94172   1.582   3.093  10.600  0.4973 -0.1422  0.2327
29104SOL    HW194173   1.528   3.046  10.663 -1.2632  1.6632  0.1723
29104SOL    HW294174   1.532   3.173  10.580  1.6797  0.0679 -2.3035
29105SOL     OW94175   7.812   3.051   6.305 -0.0149 -0.8345 -0.3669
29105SOL    HW194176   7.884   2.991   6.288  1.3017  1.2695 -2.7589
29105SOL    HW294177   7.853   3.136   6.316 -2.0566  0.2842 -0.9402
29106SOL     OW94178   9.148   5.729  11.857  0.1057  0.6045  0.5217
29106SOL    HW194179   9.095   5.790  11.909 -0.0414 -0.7947  2.1395
29106SOL    HW294180   9.205   5.785  11.804 -0.5028  2.1318  1.4099
29107SOL     OW94181   7.035   1.184   9.903  0.7973  0.6130 -0.1360
29107SOL    HW194182   7.082   1.133   9.837 -2.2116 -0.9807 -1.2377
29107SOL    HW294183   6.991   1.253   9.853  0.3030  0.7886  0.5285
29108SOL     OW94184   5.583   1.539  12.440  0.3040  0.0115 -0.0645
29108SOL    HW194185   5.667   1.506  12.472 -0.7346 -0.4823  2.3584
29108SOL    HW294186   5.518   1.482  12.481 -1.2502  0.5833 -1.6278
29109SOL     OW94187   4.621   3.375   5.997 -0.1615  0.1076  0.0784
29109SOL    HW194188   4.550   3.326   6.039  0.5984  0.2589  1.6002
29109SOL    HW294189   4.590   3.391   5.908 -2.5662  1.2456  1.0519
29110SOL     OW94190   1.881   0.053  12.432  0.1224  0.4724 -0.1250
29110SOL    HW194191   1.866   0.113  12.505 -0.2959  0.6328 -0.3453
29110SOL    HW294192   1.812  -0.013  12.440  0.9462 -0.3420  0.4869
29111SOL     OW94193  10.169   5.450   4.304  0.2942 -0.2958  0.3696
29111SOL    HW194194  10.121   5.533   4.309 -0.1229 -0.5896  1.7071
29111SOL    HW294195  10.220   5.447   4.385  0.5223 -1.2240  0.2013
29112SOL     OW94196   6.870   6.970   7.481  0.3931 -1.1038 -0.1115
29112SOL    HW194197   6.892   6.953   7.573  0.0540 -1.8469 -0.1593
29112SOL    HW294198   6.954   6.966   7.436  0.7684  0.6870  0.3502
29113SOL     OW94199   2.733  10.643   0.285 -0.0978 -0.4791  0.3057
29113SOL    HW194200   2.669  10.658   0.354  1.0808  1.7258  1.0401
29113SOL    HW294201   2.813  10.617   0.331 -0.1162 -2.1060 -0.5035
29114SOL     OW94202   8.661  11.878   2.405  0.3747  0.0841  0.2321
29114SOL    HW194203   8.653  11.783   2.402  1.1655  0.0217 -1.7826
29114SOL    HW294204   8.752  11.895   2.381 -0.0614  1.3558 -0.6533
29115SOL     OW94205   2.043   8.993   2.802 -0.0932  0.0208  0.1087
29115SOL    HW194206   2.029   8.899   2.811  0.5291  0.0654  1.8512
29115SOL    HW294207   2.135   9.002   2.777 -0.4102  0.1587 -1.1119
29116SOL     OW94208   7.378   6.478   2.502  0.2634  0.0184  0.3750
29116SOL    HW194209   7.444   6.410   2.518  0.7657  0.3135 -0.3940
29116SOL    HW294210   7.369   6.523   2.587  1.3499  0.2370  0.3911
29117SOL     OW94211   7.642   3.182   1.456 -0.3181 -0.4101  0.1558
29117SOL    HW194212   7.565   3.124   1.459  0.7226 -1.8412  0.4557
29117SOL    HW294213   7.715   3.125   1.478  0.7731  1.0556  0.4511
29118SOL     OW94214   0.002  10.122   5.327 -0.2690 -0.2295 -0.7638
29118SOL    HW194215   0.089  10.137   5.290  0.3091 -0.4530  0.4670
29118SOL    HW294216   0.017  10.062   5.400 -1.4208 -0.0507 -0.3589
29119SOL     OW94217   0.883   6.666   5.188 -0.2156 -0.4546  0.2375
29119SOL    HW194218   0.942   6.731   5.224 -0.7352  0.6214 -0.7711
29119SOL    HW294219   0.818   6.651   5.257 -0.2958  0.3682  0.3424
29120SOL     OW94220   4.154   9.271  11.954 -0.4841  0.7780 -0.5382
29120SOL    HW194221   4.084   9.335  11.965 -0.9673  0.0247  1.0554
29120SOL    HW294222   4.119   9.190  11.991  1.1610  0.3428  0.1915
29121SOL     OW94223   6.790   1.932   0.938 -0.0675 -0.6762 -0.3927
29121SOL    HW194224   6.861   1.912   0.876  0.7143  4.0561 -1.4221
29121SOL    HW294225   6.835   1.955   1.019 -0.4021  1.4477 -0.7663
29122SOL     OW94226  10.495   9.832   2.174  0.4396 -0.1059  0.0292
29122SOL    HW194227  10.590   9.842   2.185  0.2222  1.4611  0.7896
29122SOL    HW294228  10.471   9.896   2.107 -0.3049  0.8557  1.1619
29123SOL     OW94229   6.118  11.397   7.080  0.3666 -0.0132 -0.1823
29123SOL    HW194230   6.120  11.477   7.027  2.1743  1.2321  1.5988
29123SOL    HW294231   6.209  11.367   7.083  0.2479 -0.3437  1.6669
29124SOL     OW94232   3.113  11.115  12.391  0.2511  0.2866 -0.8121
29124SOL    HW194233   3.072  11.049  12.447  0.8760  1.6961  1.4533
29124SOL    HW294234   3.041  11.151  12.339 -0.3181 -1.2378 -1.1162
29125SOL     OW94235   0.614   9.083   5.651  0.2096  0.5409 -0.6241
29125SOL    HW194236   0.552   9.153   5.633 -1.0085 -0.3988 -0.2092
29125SOL    HW294237   0.606   9.068   5.745  0.7710  0.1284 -0.6363
29126SOL     OW94238   5.791   6.882  11.606 -0.7529 -0.2642  0.0699
29126SOL    HW194239   5.748   6.797  11.616 -0.7412 -0.2646  0.1175
29126SOL    HW294240   5.867   6.864  11.551 -0.7232 -0.2939  0.1206
29127SOL     OW94241   6.950   1.966  12.448  0.0319  0.6315 -0.2970
29127SOL    HW194242   6.972   1.894  12.508 -0.3073  0.7164 -0.0714
29127SOL    HW294243   6.976   2.045  12.495 -0.8879  0.7434  0.0341
29128SOL     OW94244   7.253   3.270  11.563 -0.2443  0.2581 -0.6228
29128SOL    HW194245   7.187   3.273  11.632  0.5952  0.6886  0.1938
29128SOL    HW294246   7.248   3.356  11.521  1.0431  1.0337  0.6936
29129SOL     OW94247   2.494   7.294   0.892 -0.5813 -0.4566  0.0150
29129SOL    HW194248   2.548   7.373   0.897 -0.6381 -0.2843 -1.5509
29129SOL    HW294249   2.553   7.223   0.917 -0.5097  0.0519  1.3654
29130SOL     OW94250   3.400   3.035   3.594  0.4974  0.2473 -0.4088
29130SOL    HW194251   3.433   3.040   3.504  0.7572  0.1188 -0.3203
29130SOL    HW294252   3.459   2.974   3.638 -0.7620 -1.2218 -0.6611
29131SOL     OW94253   8.644   1.100   3.243 -0.1612  0.1061 -0.0443
29131SOL    HW194254   8.559   1.057   3.250  0.0879 -0.2568  0.9669
29131SOL    HW294255   8.627   1.178   3.191 -1.8616  1.8804  2.9188
29132SOL     OW94256   7.521   1.809   3.950  0.1393  0.0406  0.0006
29132SOL    HW194257   7.493   1.807   4.042 -0.0167 -0.5413 -0.0527
29132SOL    HW294258   7.615   1.825   3.955  0.4178 -1.4866  0.3474
29133SOL     OW94259   8.724   8.523   6.906 -0.1985  0.4436  0.6860
29133SOL    HW194260   8.748   8.606   6.948 -1.0080  1.4145 -0.6535
29133SOL    HW294261   8.789   8.512   6.837 -0.5471  0.3914  0.3607
29134SOL     OW94262   1.640   4.790   1.714  0.4769  0.4648 -0.7130
29134SOL    HW194263   1.713   4.846   1.739 -0.3787  1.1013  0.4943
29134SOL    HW294264   1.597   4.768   1.797  0.6009 -1.7447 -1.1699
29135SOL     OW94265   6.198   9.825  10.215  0.1838 -0.4071  0.3392
29135SOL    HW194266   6.278   9.792  10.175  0.6569 -0.1880  1.0901
29135SOL    HW294267   6.194   9.917  10.188  0.6086 -0.2050  0.9407
29136SOL     OW94268  10.223  10.675   5.699  0.0372 -0.2564  0.4633
29136SOL    HW194269  10.172  10.708   5.625  0.0259 -0.1928  0.4996
29136SOL    HW294270  10.158  10.665   5.770 -0.0001 -0.5569  0.3910
29137SOL     OW94271   1.367   3.086  12.125 -0.1616  0.5375 -0.2483
29137SOL    HW194272   1.409   3.023  12.067  3.6674  1.3376  1.3650
29137SOL    HW294273   1.373   3.046  12.212 -0.7507  1.6781  0.3325
29138SOL     OW94274  10.500   7.528   5.786  0.2595 -0.0384 -0.4133
29138SOL    HW194275  10.519   7.474   5.862 -0.1722 -0.0808 -0.3380
29138SOL    HW294276  10.445   7.599   5.819  0.1225 -0.0234 -0.6715
29139SOL     OW94277   5.459  12.039   6.272 -0.2044 -0.0648  0.3311
29139SOL    HW194278   5.517  12.037   6.195  1.1324 -1.2376  1.3100
29139SOL    HW294279   5.505  12.094   6.335 -0.6569 -0.1789  0.7625
29140SOL     OW94280   0.491   4.152   0.694 -0.3287  0.0795 -0.0904
29140SOL    HW194281   0.541   4.096   0.635  0.3891  2.3126 -1.7324
29140SOL    HW294282   0.555   4.185   0.757 -0.7559 -0.9290  0.8985
29141SOL     OW94283  12.280   9.367   2.347  0.5106 -0.2867  0.0940
29141SOL    HW194284  12.309   9.391   2.259  1.1540 -1.6692 -0.1045
29141SOL    HW294285  12.222   9.438   2.374  0.2124  0.1013 -1.4883
29142SOL     OW94286   7.705  11.359   2.133  0.8709  0.4204 -0.1850
29142SOL    HW194287   7.629  11.403   2.171  0.7229  1.3820 -1.5342
29142SOL    HW294288   7.752  11.427   2.086  1.5144 -0.5450 -0.9877
29143SOL     OW94289   8.524   5.181  12.465 -0.2011  0.2734 -0.3755
29143SOL    HW194290   8.553   5.251  12.406  1.2862 -0.3222 -0.3673
29143SOL    HW294291   8.547   5.100  12.420 -0.4891 -0.2018  0.3215
29144SOL     OW94292   2.790  10.191   5.075  0.1411 -0.3146 -0.0367
29144SOL    HW194293   2.883  10.198   5.056  0.1554  0.0875  0.1672
29144SOL    HW294294   2.756  10.279   5.060 -0.1174 -0.3478  0.3523
29145SOL     OW94295  11.250  12.384   0.314  0.0673  0.3234 -0.0916
29145SOL    HW194296  11.269  12.294   0.341 -1.2345  0.2439  0.6514
29145SOL    HW294297  11.327  12.434   0.342  0.5698 -0.4692 -0.0238
29146SOL     OW94298   1.280   4.843   6.658 -0.3977 -0.3853  0.1562
29146SOL    HW194299   1.349   4.795   6.614 -1.8172 -1.9133 -0.5364
29146SOL    HW294300   1.267   4.796   6.741 -0.0255  0.4352  0.6971
29147SOL     OW94301   3.627  11.728   1.139  0.4584 -0.3974 -0.5492
29147SOL    HW194302   3.675  11.654   1.102  1.1255  0.1958 -0.8739
29147SOL    HW294303   3.682  11.760   1.210  0.4131  0.1008 -0.7302
29148SOL     OW94304   2.041  11.382  10.210 -0.0554  0.5841 -0.0687
29148SOL    HW194305   2.095  11.303  10.203 -0.0885  0.5659 -0.1171
29148SOL    HW294306   1.972  11.359  10.272 -0.4292  0.3710 -0.5649
29149SOL     OW94307   9.493  11.883   4.092 -0.3146 -0.6711 -0.3527
29149SOL    HW194308   9.422  11.834   4.051 -0.7505 -1.1690  0.9217
29149SOL    HW294309   9.493  11.852   4.183 -0.4788  1.5424  0.4645
29150SOL     OW94310   8.850   3.072   7.849  0.4965 -0.1841 -0.0234
29150SOL    HW194311   8.870   3.121   7.928  2.5171 -0.5189 -0.2701
29150SOL    HW294312   8.812   2.990   7.881 -2.6012  1.2802  0.3946
29151SOL     OW94313   1.221   6.635   9.720 -0.1875  0.0344 -0.7888
29151SOL    HW194314   1.236   6.540   9.713 -1.6205 -0.1824 -1.3338
29151SOL    HW294315   1.221   6.666   9.630  0.0954  0.5314 -0.6207
29152SOL     OW94316   7.039   9.890  10.089 -0.0286  0.4927  0.5143
29152SOL    HW194317   6.996   9.876  10.005  0.0909 -0.0496  0.5368
29152SOL    HW294318   7.073   9.979  10.084  1.2042 -0.0019 -0.5871
29153SOL     OW94319   7.538   1.622  11.963 -0.0268 -0.6499  0.1797
29153SOL    HW194320   7.633   1.627  11.969 -0.0025 -0.9477  0.0939
29153SOL    HW294321   7.506   1.669  12.040  0.1630  0.5313 -0.4354
29154SOL     OW94322   3.764   6.356  10.841  0.1406 -0.0444 -0.3611
29154SOL    HW194323   3.686   6.327  10.889  0.0825 -1.7455 -1.4121
29154SOL    HW294324   3.733   6.373  10.753  0.9219 -0.6372 -0.7625
29155SOL     OW94325  10.048   9.835   7.485 -0.3238  0.0716 -0.3883
29155SOL    HW194326   9.981   9.793   7.430 -1.3988  2.9472 -1.4636
29155SOL    HW294327  10.108   9.876   7.422 -0.2370  1.4606  0.5576
29156SOL     OW94328  11.734   5.227   5.512 -0.2534 -0.3678  0.3606
29156SOL    HW194329  11.729   5.274   5.596  1.3927  0.9950 -0.2500
29156SOL    HW294330  11.828   5.215   5.497 -0.5172 -0.5074 -1.3421
29157SOL     OW94331   3.296   0.673   1.692 -0.0290  0.3527  0.1365
29157SOL    HW194332   3.311   0.675   1.787 -2.2412 -1.3065  0.6260
29157SOL    HW294333   3.324   0.586   1.665  0.6975  0.8573 -0.7804
29158SOL     OW94334  11.046   1.498   6.103  0.1540 -0.1348  0.1066
29158SOL    HW194335  11.057   1.403   6.109  2.4184  0.0264 -0.3485
29158SOL    HW294336  11.062   1.517   6.011 -2.9964  0.4840 -0.4180
29159SOL     OW94337  12.176   6.187  10.738  0.5097 -0.3116 -0.1034
29159SOL    HW194338  12.173   6.141  10.822 -2.7897  1.7756  1.1474
29159SOL    HW294339  12.267   6.214  10.729  1.2478 -1.7317  2.1433
29160SOL     OW94340   9.280  12.303   3.744 -0.6457  0.0767  0.7367
29160SOL    HW194341   9.282  12.306   3.840 -1.2756  1.2449  0.7344
29160SOL    HW294342   9.222  12.375   3.719  0.6738  0.7466 -0.5667
29161SOL     OW94343   8.756   2.871   9.220 -0.2290  0.6013  0.0297
29161SOL    HW194344   8.761   2.950   9.273  1.2000 -0.5252  1.7070
29161SOL    HW294345   8.770   2.799   9.283 -2.3363 -1.0680 -1.2594
29162SOL     OW94346   6.428   9.029   9.038  0.1150  0.4937 -0.5567
29162SOL    HW194347   6.347   9.078   9.022  0.0698  1.1813  1.5361
29162SOL    HW294348   6.478   9.084   9.098  1.4503 -0.6421 -0.5826
29163SOL     OW94349  12.125   1.396   3.427  0.8761 -0.5162  0.5745
29163SOL    HW194350  12.078   1.347   3.495  0.7327 -2.4515 -0.8254
29163SOL    HW294351  12.062   1.404   3.356  1.4862  0.1698  0.1011
29164SOL     OW94352  11.767  10.055   3.450 -0.0920 -0.1764 -0.4060
29164SOL    HW194353  11.802   9.973   3.485 -1.5180 -0.2388  0.9964
29164SOL    HW294354  11.734  10.033   3.363  2.1733 -0.3710 -1.2909
29165SOL     OW94355   3.385   5.713   4.624 -0.0066 -0.0477  0.2491
29165SOL    HW194356   3.311   5.659   4.651  0.5933 -0.9504  0.1244
29165SOL    HW294357   3.463   5.665   4.654  0.5261  0.9687  0.5282
29166SOL     OW94358  11.076   2.223   5.288 -0.4467 -0.3138 -0.1313
29166SOL    HW194359  11.094   2.298   5.232 -1.0429  0.1156  0.2335
29166SOL    HW294360  11.018   2.168   5.237 -1.7419  0.5253  0.3773
29167SOL     OW94361  12.414   3.865   4.686 -0.1937  0.2459  0.1680
29167SOL    HW194362  12.466   3.915   4.624 -0.6672  0.6549  0.0911
29167SOL    HW294363  12.441   3.774   4.673 -0.4146  0.3043 -0.7751
29168SOL     OW94364  12.294   5.348   4.830  0.3893  0.4967  0.3623
29168SOL    HW194365  12.232   5.282   4.802 -1.4842  2.8213 -1.4353
29168SOL    HW294366  12.282   5.355   4.925 -0.4294 -0.6499  0.3556
29169SOL     OW94367   8.423   5.725  11.100 -0.3434  0.1961  0.3932
29169SOL    HW194368   8.365   5.779  11.047 -0.3029  0.2762  0.4299
29169SOL    HW294369   8.373   5.646  11.119 -1.2807  1.1648  2.2619
29170SOL     OW94370  10.527   8.119   4.892  0.1115 -0.2320  0.4219
29170SOL    HW194371  10.550   8.044   4.946  0.6202 -0.1079  0.3830
29170SOL    HW294372  10.593   8.121   4.823  1.0530  1.1370  1.2924
29171SOL     OW94373   6.098  11.854   2.931  0.4269 -0.4186  0.1808
29171SOL    HW194374   6.018  11.824   2.888  0.8679  0.3925 -1.2662
29171SOL    HW294375   6.169  11.824   2.873  1.4250 -3.2328  2.5982
29172SOL     OW94376   9.012  11.378   2.602 -0.5419  0.0029 -0.0792
29172SOL    HW194377   9.008  11.341   2.514  2.3804 -2.4488  0.6484
29172SOL    HW294378   8.949  11.326   2.653 -1.5831  0.8367 -0.4698
29173SOL     OW94379   8.697  10.119   6.167 -0.3688  0.6439 -0.1989
29173SOL    HW194380   8.658  10.164   6.092  0.8553  0.6959 -0.8465
29173SOL    HW294381   8.779  10.082   6.132  0.6898  1.4426  1.3119
29174SOL     OW94382   6.847  12.343   4.960  0.6383  0.0729  0.1555
29174SOL    HW194383   6.780  12.287   5.000  1.2914  1.0286  2.7308
29174SOL    HW294384   6.893  12.284   4.900 -0.5357 -1.4005  0.6086
29175SOL     OW94385   2.029   5.578  10.813  0.9587  0.5178  0.1068
29175SOL    HW194386   2.064   5.529  10.887  2.0788 -1.9997 -1.9341
29175SOL    HW294387   1.946   5.535  10.793  0.3292  1.6200  0.2664
29176SOL     OW94388   6.839   4.571   8.825  0.1076  0.6483  0.0358
29176SOL    HW194389   6.795   4.510   8.766 -0.6405  0.4490  0.7862
29176SOL    HW294390   6.930   4.542   8.824 -0.2734 -0.6749  0.5849
29177SOL     OW94391   5.214   6.296   1.976  0.1150 -0.0562  0.1936
29177SOL    HW194392   5.309   6.302   1.978  0.5547 -3.5487 -2.1694
29177SOL    HW294393   5.193   6.232   2.044 -0.7187  1.2290  1.2088
29178SOL     OW94394   0.599   0.450   2.391 -0.0934  0.0625  0.0145
29178SOL    HW194395   0.624   0.451   2.299 -0.4036  0.3166 -0.0678
29178SOL    HW294396   0.594   0.358   2.414  3.1655 -0.0579  0.6521
29179SOL     OW94397   2.671   8.811   7.607  0.0034  0.6490 -1.0611
29179SOL    HW194398   2.746   8.759   7.579 -0.6472 -0.5476 -0.6363
29179SOL    HW294399   2.707   8.899   7.619  2.1625 -0.4614  2.2493
29180SOL     OW94400   9.834   9.100   3.574  0.3719 -0.0079  0.6027
29180SOL    HW194401   9.886   9.163   3.525 -0.1315  1.1933  1.5708
29180SOL    HW294402   9.756   9.085   3.519 -0.2138  1.3656  1.0267
29181SOL     OW94403  11.148   6.740   3.173 -0.0303 -0.4277  0.5834
29181SOL    HW194404  11.123   6.659   3.129 -0.8796  0.4758 -0.6533
29181SOL    HW294405  11.075   6.759   3.232 -0.5699  0.2296 -0.2693
29182SOL     OW94406   7.655   3.380   0.726 -0.3052 -0.0550 -0.2708
29182SOL    HW194407   7.697   3.365   0.811  0.6167 -1.2614 -0.9047
29182SOL    HW294408   7.586   3.314   0.722  0.4611 -0.8303 -0.9626
29183SOL     OW94409   6.942   4.557   7.598 -0.0021  0.5362  0.4964
29183SOL    HW194410   7.006   4.496   7.563 -0.3240  0.7687 -0.5594
29183SOL    HW294411   6.862   4.540   7.547 -1.3710 -0.9857  2.9685
29184SOL     OW94412   9.289   2.536   2.406 -0.0108 -0.1667 -0.0096
29184SOL    HW194413   9.297   2.452   2.451 -4.3387 -0.1983  1.1499
29184SOL    HW294414   9.305   2.601   2.475 -0.2077 -0.1132 -0.0136
29185SOL     OW94415   8.635   2.937   4.843 -0.3446  0.5379 -0.0351
29185SOL    HW194416   8.611   2.967   4.755 -1.6593  1.0777  0.4925
29185SOL    HW294417   8.728   2.912   4.835 -0.7847 -0.7415 -1.9217
29186SOL     OW94418   4.182  11.619   8.857 -0.1224  0.0828  0.5226
29186SOL    HW194419   4.239  11.546   8.879 -1.4855 -0.2892  3.2340
29186SOL    HW294420   4.119  11.583   8.795 -0.6431 -1.0133  1.6546
29187SOL     OW94421  11.421   3.477   5.792 -0.9620  0.1842 -0.3738
29187SOL    HW194422  11.471   3.442   5.865 -3.3462 -1.0139  0.8234
29187SOL    HW294423  11.473   3.551   5.759  0.8679 -0.1511  1.5757
29188SOL     OW94424   5.109   0.346   8.057  0.5909  0.4707  0.7425
29188SOL    HW194425   5.056   0.425   8.048 -3.5715 -2.1181 -0.4231
29188SOL    HW294426   5.130   0.321   7.967  2.4585  0.5217  1.1272
29189SOL     OW94427   6.693   0.534   2.944 -0.7694 -1.0683  0.0041
29189SOL    HW194428   6.691   0.620   2.986 -1.2419  0.0480 -2.1677
29189SOL    HW294429   6.669   0.473   3.014  0.2443  0.4450  1.7825
29190SOL     OW94430  11.281   1.989  11.791  0.2637 -0.0099  0.4426
29190SOL    HW194431  11.235   2.073  11.791  0.1369 -0.0563 -0.8213
29190SOL    HW294432  11.280   1.961  11.882 -0.6863  0.8264  0.7083
29191SOL     OW94433   0.748   6.360   4.525 -0.5145  0.5063 -0.5223
29191SOL    HW194434   0.831   6.406   4.539 -1.6831  2.5233  0.0454
29191SOL    HW294435   0.746   6.341   4.431  0.4837  0.5759 -0.5729
29192SOL     OW94436   7.845   4.627   8.105 -0.1315  0.0247  0.0810
29192SOL    HW194437   7.831   4.619   8.011  0.8504 -2.0874  0.0382
29192SOL    HW294438   7.767   4.586   8.144 -0.2164  0.2685  0.1660
29193SOL     OW94439   3.375   0.937   1.421  0.3524 -0.0124 -1.2117
29193SOL    HW194440   3.328   1.008   1.465  2.1234  0.2490  0.4362
29193SOL    HW294441   3.413   0.978   1.343  0.6373  0.6473 -0.7411
29194SOL     OW94442   4.493   3.961   7.357 -0.5004 -0.3202 -0.0477
29194SOL    HW194443   4.562   3.901   7.332  0.9957  1.0110  0.6847
29194SOL    HW294444   4.505   3.973   7.452  0.7520  2.8163 -0.4759
29195SOL     OW94445   5.914  10.381   9.302 -0.5906  0.2509 -0.3747
29195SOL    HW194446   5.984  10.320   9.279 -0.9186  0.3825 -1.8742
29195SOL    HW294447   5.837  10.326   9.312 -0.5595  0.2536 -0.1154
29196SOL     OW94448   4.020   5.186   1.695 -0.2883 -0.1454  0.0073
29196SOL    HW194449   4.113   5.195   1.676 -0.6700  0.4354 -1.7016
29196SOL    HW294450   4.010   5.097   1.728  0.6317 -0.7734 -1.3633
29197SOL     OW94451   0.136  10.092   4.307  0.4222  0.3429 -0.5645
29197SOL    HW194452   0.213  10.133   4.269  0.4858  0.1273 -0.6711
29197SOL    HW294453   0.067  10.158   4.300  0.5742  0.5034 -0.5503
29198SOL     OW94454   9.279   5.674  12.087  0.3802  0.0505  0.5195
29198SOL    HW194455   9.270   5.696  11.994  1.6780 -0.6923  0.2110
29198SOL    HW294456   9.275   5.579  12.090  0.7073  0.0544  1.1912
29199SOL     OW94457   4.122   7.637   9.229  0.7575  0.0663 -0.3944
29199SOL    HW194458   4.039   7.611   9.190 -0.3130 -0.3005  1.9394
29199SOL    HW294459   4.178   7.560   9.222  0.0907 -0.4719  0.0097
29200SOL     OW94460  11.547   7.143   1.610 -0.0765 -0.4289  0.2033
29200SOL    HW194461  11.488   7.215   1.632  1.3030  0.2512  1.9590
29200SOL    HW294462  11.635   7.182   1.611  0.6177 -1.9092  0.2092
29201SOL     OW94463   0.121   3.937   7.514  0.1788  0.1823 -0.4019
29201SOL    HW194464   0.154   3.900   7.432  1.1081 -0.9351  0.4524
29201SOL    HW294465   0.068   3.868   7.552 -1.0679  1.0480 -0.5019
29202SOL     OW94466   4.242   5.811  10.876 -0.5446  0.1447 -0.1132
29202SOL    HW194467   4.296   5.748  10.828 -0.2180 -0.3976  0.9336
29202SOL    HW294468   4.247   5.782  10.967 -1.3834  0.9803  0.2133
29203SOL     OW94469  11.698   1.335   2.850  0.8721 -0.3089 -0.0297
29203SOL    HW194470  11.666   1.425   2.858  1.6411 -0.0625  0.3513
29203SOL    HW294471  11.639   1.283   2.904  0.8641  0.0782  0.3341
29204SOL     OW94472   3.084   2.626   0.303 -0.2136  0.3209 -0.4376
29204SOL    HW194473   3.057   2.703   0.254  1.6837  1.7187  0.5829
29204SOL    HW294474   3.002   2.586   0.332 -1.2458  2.4874 -0.1899
29205SOL     OW94475  12.451   2.515   8.023 -0.3442 -0.0218 -0.5834
29205SOL    HW194476  12.520   2.453   7.999 -0.9952 -0.2934 -1.7938
29205SOL    HW294477  12.498   2.593   8.054  0.4970 -0.3344 -1.0571
29206SOL     OW94478   9.867   1.977   6.801 -0.3445 -0.2260  0.4407
29206SOL    HW194479   9.892   1.905   6.743  1.3928  0.4066  0.3371
29206SOL    HW294480   9.893   2.056   6.753 -0.4627  0.3791  1.3563
29207SOL     OW94481   2.736   6.135   6.263 -0.2833  0.1140  0.3459
29207SOL    HW194482   2.728   6.213   6.208 -2.4526 -1.3894 -1.6731
29207SOL    HW294483   2.691   6.158   6.344 -2.6279  0.4756 -0.9413
29208SOL     OW94484   5.156   6.862  11.529  0.0757  0.1533  0.3303
29208SOL    HW194485   5.235   6.878  11.477 -1.3995  0.0532 -2.1515
29208SOL    HW294486   5.138   6.768  11.516 -1.4471  0.5536 -0.8058
29209SOL     OW94487   7.636  10.758   0.640 -0.3155  0.3897 -0.4082
29209SOL    HW194488   7.558  10.804   0.609 -0.8960  0.3596  0.9762
29209SOL    HW294489   7.665  10.809   0.716 -0.2286 -0.8207  0.3821
29210SOL     OW94490   9.091   1.690   5.018 -0.4373  0.3641  0.0075
29210SOL    HW194491   9.037   1.724   4.947 -0.3199  0.7528  0.1029
29210SOL    HW294492   9.035   1.695   5.096 -0.0376  1.4569  0.2511
29211SOL     OW94493   3.962   1.400   1.852 -0.3313  0.0731 -0.1616
29211SOL    HW194494   4.029   1.427   1.790 -0.1885 -0.0565 -0.0648
29211SOL    HW294495   3.970   1.460   1.926  0.7759 -0.9567  0.5816
29212SOL     OW94496   9.048   8.839  11.022 -0.5456 -0.2702  0.8643
29212SOL    HW194497   9.073   8.822  11.113 -1.0285 -1.8808  0.7449
29212SOL    HW294498   8.957   8.868  11.028 -0.1603  0.9766  0.9688
29213SOL     OW94499  10.284  10.488   7.541  0.0991 -0.3164 -0.0343
29213SOL    HW194500  10.206  10.533   7.509  0.0739 -0.4857 -0.2075
29213SOL    HW294501  10.267  10.395   7.526  0.3446 -0.3520 -0.0950
29214SOL     OW94502   3.593  10.581   4.413 -0.4132  0.3662  0.4686
29214SOL    HW194503   3.578  10.516   4.482  0.5627  0.6367  0.9590
29214SOL    HW294504   3.562  10.539   4.333  2.8449 -1.9723  0.2393
29215SOL     OW94505   7.063  10.025   3.105  0.5902 -0.1815 -0.0176
29215SOL    HW194506   7.154  10.006   3.128  0.1556 -0.7035  1.3921
29215SOL    HW294507   7.011   9.981   3.173 -0.7902 -1.1650 -1.6076
29216SOL     OW94508   4.950  11.353   4.414  0.1428  0.1401 -0.6832
29216SOL    HW194509   5.036  11.321   4.384  0.5260 -0.8231  1.2821
29216SOL    HW294510   4.971  11.419   4.479 -0.6371  0.4617 -0.7554
29217SOL     OW94511   3.163   7.125   3.159  0.0540  0.6172 -0.0347
29217SOL    HW194512   3.208   7.153   3.239  2.5280  1.4083 -1.5988
29217SOL    HW294513   3.206   7.043   3.135 -2.9729 -1.5136  1.1457
29218SOL     OW94514   2.206   9.423   6.070  0.1627 -0.8715 -0.2514
29218SOL    HW194515   2.191   9.454   6.160  0.2691 -2.7104  0.4477
29218SOL    HW294516   2.133   9.461   6.020 -0.2186 -0.2690  0.7175
29219SOL     OW94517   3.630  10.980   2.728 -0.3285 -0.9563 -0.3946
29219SOL    HW194518   3.635  11.041   2.801  1.2381 -0.6758 -0.6852
29219SOL    HW294519   3.624  10.894   2.768 -2.1090 -0.6625  0.0239
29220SOL     OW94520  10.533   3.099   0.505 -0.3783 -0.1172 -0.6762
29220SOL    HW194521  10.582   3.026   0.467 -0.7341 -0.4252 -0.5553
29220SOL    HW294522  10.522   3.076   0.597  1.5932  1.2278 -0.0427
29221SOL     OW94523   2.195   9.247  11.069 -0.2809 -0.3550  0.4338
29221SOL    HW194524   2.242   9.248  10.986 -1.4106 -0.0888 -0.2183
29221SOL    HW294525   2.219   9.330  11.111 -0.9352  0.2462 -0.3452
29222SOL     OW94526   9.045   8.157   8.745 -1.2739 -0.5265 -0.1590
29222SOL    HW194527   9.001   8.145   8.829 -0.5574  2.4032  0.7487
29222SOL    HW294528   9.137   8.169   8.768 -1.1187  0.7193 -1.2932
29223SOL     OW94529   2.815   5.799   0.494  0.2394 -0.4274  0.0692
29223SOL    HW194530   2.767   5.850   0.559 -1.0938 -0.7857 -0.6098
29223SOL    HW294531   2.757   5.795   0.418  1.4546 -0.6510 -0.8885
29224SOL     OW94532  11.463   7.527   4.049  0.0401 -0.4115 -0.1046
29224SOL    HW194533  11.385   7.574   4.017 -1.1615 -1.0541  1.6826
29224SOL    HW294534  11.487   7.469   3.978  0.5133  1.6254 -1.7105
29225SOL     OW94535   8.993   3.269   4.078  0.8488  0.2256  0.6158
29225SOL    HW194536   8.954   3.183   4.094  1.5492 -0.3112 -0.4633
29225SOL    HW294537   8.975   3.287   3.986  3.0610 -0.0120  0.1006
29226SOL     OW94538   9.553   7.958   6.970 -0.3879  0.2293 -0.0963
29226SOL    HW194539   9.597   7.969   6.886 -0.1389  1.2234  0.1568
29226SOL    HW294540   9.603   7.890   7.015 -0.0503  0.2515 -0.4373
29227SOL     OW94541  11.192   8.649   4.212 -0.1025 -0.0922 -0.5248
29227SOL    HW194542  11.136   8.600   4.151  0.2463 -0.1689 -0.7895
29227SOL    HW294543  11.197   8.593   4.289 -1.4518  0.5071  0.0308
29228SOL     OW94544   6.055   1.360   6.213  0.0809 -0.0436 -0.3041
29228SOL    HW194545   6.053   1.431   6.277  0.0186  1.5621 -2.0048
29228SOL    HW294546   6.136   1.313   6.233 -0.0900  0.2165  1.1240
29229SOL     OW94547   5.130   3.507   9.293  0.8244  0.3402  0.4170
29229SOL    HW194548   5.098   3.417   9.298 -0.3871  0.7829  0.8120
29229SOL    HW294549   5.092   3.551   9.369  0.9567  1.3242 -0.0732
29230SOL     OW94550   6.961   1.067   8.658  0.2047  0.1234 -0.8952
29230SOL    HW194551   6.891   1.012   8.693  0.1404  0.6621 -0.1663
29230SOL    HW294552   7.031   1.005   8.637  1.0038 -0.0928  1.9982
29231SOL     OW94553   4.325  10.660   6.406 -0.6190  0.0705  0.8041
29231SOL    HW194554   4.278  10.605   6.343 -0.7179 -0.4655  1.3464
29231SOL    HW294555   4.269  10.737   6.416 -0.0226  0.7306 -0.6837
29232SOL     OW94556   7.921   9.564   5.235  0.4542  0.3325  0.0605
29232SOL    HW194557   7.979   9.610   5.175  3.1231 -0.6947  1.7077
29232SOL    HW294558   7.875   9.635   5.282  0.2210  1.1538 -1.3343
29233SOL     OW94559  11.764   1.166   9.868 -0.3252 -0.1944 -0.1044
29233SOL    HW194560  11.712   1.136   9.943  0.9538  0.0842  0.9314
29233SOL    HW294561  11.826   1.095   9.852  0.2483  0.2894 -0.0603
29234SOL     OW94562   7.737   7.335   7.582 -0.7367  0.0596 -0.2032
29234SOL    HW194563   7.679   7.379   7.520 -0.4873 -0.6711 -0.9746
29234SOL    HW294564   7.682   7.320   7.659 -1.6809 -0.8439 -1.0152
29235SOL     OW94565   4.351   0.842   8.173 -0.2138 -0.4414  0.0810
29235SOL    HW194566   4.377   0.825   8.264 -2.1602  1.7299  1.1695
29235SOL    HW294567   4.266   0.799   8.165 -1.7976  2.3178  0.5992
29236SOL     OW94568   4.940   4.188  10.149 -0.0704 -0.0134  0.4706
29236SOL    HW194569   4.989   4.173  10.068 -0.0492 -2.1565  0.8302
29236SOL    HW294570   4.990   4.254  10.196  0.6771  0.2322 -0.6285
29237SOL     OW94571   6.128   0.366   7.654  1.0620 -0.1786  0.1428
29237SOL    HW194572   6.071   0.400   7.586 -0.2571 -0.3051  1.1501
29237SOL    HW294573   6.193   0.435   7.668  1.7330 -0.4090 -1.6446
29238SOL     OW94574  10.563   1.537   9.469  0.6767  0.5070  0.0363
29238SOL    HW194575  10.515   1.495   9.398  1.0295 -0.2455  0.2294
29238SOL    HW294576  10.638   1.578   9.426 -0.3861  2.1432 -0.3368
29239SOL     OW94577   5.242   7.381  12.044  0.3686  0.0225  0.5711
29239SOL    HW194578   5.258   7.298  12.000  1.3002 -0.1840  1.2723
29239SOL    HW294579   5.281   7.446  11.986 -1.3992  0.1323 -0.5726
29240SOL     OW94580   5.813   8.926   0.626  0.1836  0.0434  0.2613
29240SOL    HW194581   5.874   8.990   0.589  0.3919 -1.3814 -2.0522
29240SOL    HW294582   5.867   8.871   0.683  0.3296  0.8926  0.9580
29241SOL     OW94583   6.736   5.787   1.334 -0.3262 -0.4886  0.0985
29241SOL    HW194584   6.777   5.872   1.352 -0.8922 -0.3566  0.8252
29241SOL    HW294585   6.775   5.728   1.399  0.8466 -1.0542 -1.0687
29242SOL     OW94586   1.398   6.238  11.192  0.2048  0.6347  0.0365
29242SOL    HW194587   1.352   6.319  11.168  0.1113  0.0827 -1.7211
29242SOL    HW294588   1.466   6.228  11.125  0.3776 -0.6186  0.3809
29243SOL     OW94589   6.503   6.672   3.119  0.2479  0.7918 -0.0054
29243SOL    HW194590   6.534   6.588   3.084 -1.8449 -0.9727  2.0685
29243SOL    HW294591   6.557   6.687   3.197 -0.2294  0.6692  0.3568
29244SOL     OW94592   3.000   9.277   2.495  0.4517 -0.4320  0.0104
29244SOL    HW194593   2.928   9.230   2.538  1.6090 -1.8573  0.4901
29244SOL    HW294594   3.079   9.228   2.520  1.3694 -0.3095 -2.3706
29245SOL     OW94595  10.648  11.989   0.250 -0.0228 -0.2209  0.2295
29245SOL    HW194596  10.735  11.951   0.236 -1.1878 -2.5934 -1.1852
29245SOL    HW294597  10.644  12.063   0.189  1.3674  0.6447  1.1335
29246SOL     OW94598   9.612   6.457   4.110 -0.3891  0.9393 -0.6269
29246SOL    HW194599   9.642   6.516   4.179 -1.2396  2.0420 -1.1465
29246SOL    HW294600   9.535   6.501   4.074  0.0205  0.4040 -2.2587
29247SOL     OW94601  11.634   1.244   6.973  0.0011  0.4085  0.3776
29247SOL    HW194602  11.616   1.160   6.932 -0.7458  0.5013  0.4936
29247SOL    HW294603  11.729   1.246   6.985  0.3609  0.6633 -1.9635
29248SOL     OW94604   1.189   9.618   3.719 -0.6961 -0.0810  0.0954
29248SOL    HW194605   1.231   9.572   3.646 -0.4109 -1.1219  0.8814
29248SOL    HW294606   1.143   9.548   3.767 -0.3074  0.4653  1.2930
29249SOL     OW94607   5.853   8.407   2.326 -0.0084  0.7306 -0.6869
29249SOL    HW194608   5.839   8.399   2.420 -0.9648  0.0680 -0.8683
29249SOL    HW294609   5.892   8.323   2.300 -0.2224  0.7072 -0.9467
29250SOL     OW94610   9.302   3.693   3.367 -0.1360 -0.4487  0.2722
29250SOL    HW194611   9.368   3.652   3.422 -0.1146  0.9317  1.3038
29250SOL    HW294612   9.233   3.721   3.427 -0.7505 -0.1101 -0.5583
29251SOL     OW94613   1.970  10.769   2.476 -0.5962 -0.4468  0.5470
29251SOL    HW194614   1.956  10.825   2.399  0.0082 -0.8542  0.1287
29251SOL    HW294615   1.943  10.823   2.550 -2.2661 -0.4440 -0.0328
29252SOL     OW94616  10.327  10.405   1.905 -0.4175 -0.0748 -0.0796
29252SOL    HW194617  10.363  10.454   1.980 -1.4434 -0.6703  0.8326
29252SOL    HW294618  10.399  10.403   1.841 -0.3479  2.6145 -0.1791
29253SOL     OW94619   2.442  10.366   8.584 -0.2564  0.7213  0.2649
29253SOL    HW194620   2.502  10.335   8.517 -0.1250 -0.7977  1.0365
29253SOL    HW294621   2.492  10.430   8.634 -0.1385  1.3633 -0.6582
29254SOL     OW94622   6.641   7.348   6.453  0.1332 -0.1073  0.2545
29254SOL    HW194623   6.717   7.399   6.483  0.8534  0.3573 -2.1092
29254SOL    HW294624   6.615   7.297   6.529  3.2206 -0.7524  1.0228
29255SOL     OW94625   4.398   3.409  10.618 -0.2612  0.1816  0.0471
29255SOL    HW194626   4.385   3.415  10.713 -1.0040  3.1747 -0.1750
29255SOL    HW294627   4.493   3.419  10.606  0.0433 -1.7491  0.4981
29256SOL     OW94628  11.841  11.476   0.025 -0.0659  0.6181  0.5978
29256SOL    HW194629  11.774  11.446   0.087  1.1369 -1.0199  1.1812
29256SOL    HW294630  11.800  11.466  -0.061 -0.1923 -1.6185  0.8516
29257SOL     OW94631   7.296   6.674   2.157 -0.4960  0.0117  0.2566
29257SOL    HW194632   7.341   6.590   2.168 -1.0156 -0.7136 -2.3493
29257SOL    HW294633   7.278   6.679   2.063 -0.8299  2.8939  0.3786
29258SOL     OW94634   6.283  11.596   6.334 -0.4436  0.1347  0.1737
29258SOL    HW194635   6.232  11.659   6.387 -0.4290 -0.0206  0.3736
29258SOL    HW294636   6.322  11.537   6.399  0.5144  0.6329  0.0686
29259SOL     OW94637   2.806   7.605   9.796 -0.5645 -0.0988 -0.3888
29259SOL    HW194638   2.774   7.584   9.709 -1.4165  1.8664 -0.5970
29259SOL    HW294639   2.889   7.650   9.781 -0.3115 -0.4685 -0.1264
29260SOL     OW94640   1.130   3.364  10.188 -0.0523 -0.4912 -0.5411
29260SOL    HW194641   1.100   3.283  10.146  0.1799 -1.0805  0.3970
29260SOL    HW294642   1.059   3.426  10.173  0.0099 -0.6913 -1.7616
29261SOL     OW94643   8.544   1.993   5.600  0.1759  0.3934  0.6138
29261SOL    HW194644   8.543   1.973   5.506 -2.1686  0.4927  0.5675
29261SOL    HW294645   8.481   2.064   5.610  1.5909  1.5349  2.0809
29262SOL     OW94646   2.102   4.987  11.402 -0.6475 -0.2264 -0.0388
29262SOL    HW194647   2.098   4.916  11.467  2.3484  1.5443  2.3361
29262SOL    HW294648   2.185   4.974  11.357  0.3713  2.0627  0.9974
29263SOL     OW94649   3.547   3.547  10.908  0.3353  0.4839  0.1093
29263SOL    HW194650   3.536   3.567  11.001 -3.5665 -0.6127  0.0537
29263SOL    HW294651   3.510   3.622  10.862 -0.8245 -0.3483 -0.3955
29264SOL     OW94652   4.374   3.310   9.227 -0.0023  0.4833 -0.7930
29264SOL    HW194653   4.426   3.389   9.216 -1.3847  1.8560  1.5785
29264SOL    HW294654   4.438   3.239   9.230  1.4766  1.7759 -0.6323
29265SOL     OW94655   5.519   4.940   5.668 -0.1962  0.0694 -0.2940
29265SOL    HW194656   5.580   4.880   5.711 -1.5075 -1.0946  0.0161
29265SOL    HW294657   5.573   5.015   5.643  1.1012 -0.3062  1.1758
29266SOL     OW94658   7.951   2.837  11.905  0.2092  0.6948 -0.1045
29266SOL    HW194659   7.901   2.765  11.867  2.8198 -1.3158  0.0067
29266SOL    HW294660   7.919   2.915  11.859 -0.2646 -0.9912 -2.8761
29267SOL     OW94661   4.082   4.515   2.872 -0.8687  0.7483 -0.8577
29267SOL    HW194662   4.052   4.477   2.789 -1.0884  0.3195 -0.5819
29267SOL    HW294663   4.006   4.561   2.907 -0.6916  1.1829 -1.0362
29268SOL     OW94664   7.538   9.037   3.499  0.4533  0.5134  0.7570
29268SOL    HW194665   7.466   8.981   3.529  1.0484 -0.7596 -0.0599
29268SOL    HW294666   7.497   9.121   3.479 -0.7633 -0.1051  0.5774
29269SOL     OW94667  12.267   4.986   6.384  0.1826 -0.0073 -0.8254
29269SOL    HW194668  12.206   5.056   6.408 -0.0325 -0.6877  0.7541
29269SOL    HW294669  12.331   5.028   6.327 -0.0694  1.4221 -0.0879
29270SOL     OW94670  11.854  11.050   4.665  0.2690  0.1264 -0.5985
29270SOL    HW194671  11.863  10.989   4.591  0.7217 -1.1535  0.4815
29270SOL    HW294672  11.865  10.996   4.742 -2.2464  1.0254  0.5182
29271SOL     OW94673  11.383  11.039   2.696 -0.2889  0.3395 -0.1219
29271SOL    HW194674  11.336  11.095   2.758  1.3138  2.2345 -0.4961
29271SOL    HW294675  11.372  11.083   2.611  0.7904 -0.0471 -0.4804
29272SOL     OW94676   2.862  10.947   9.691  0.0860  0.3896 -0.2722
29272SOL    HW194677   2.934  10.950   9.628  1.9345  1.7437  1.7434
29272SOL    HW294678   2.874  10.863   9.736  0.6385  0.7595  0.2848
29273SOL     OW94679   1.701   3.918  12.152  0.2489 -0.0023 -0.2600
29273SOL    HW194680   1.689   4.002  12.109  0.0225  0.9185  1.5222
29273SOL    HW294681   1.614   3.879  12.154  0.1079  0.3353  0.1283
29274SOL     OW94682   9.359   4.823   3.247 -0.3096 -0.3721  0.2683
29274SOL    HW194683   9.382   4.877   3.323  1.7647  0.1197 -0.6315
29274SOL    HW294684   9.416   4.746   3.254 -0.0262 -0.2742 -0.8106
29275SOL     OW94685   1.286   4.436   2.552  0.1093 -0.4093 -0.1901
29275SOL    HW194686   1.280   4.532   2.553  0.9886 -0.3527 -0.0518
29275SOL    HW294687   1.367   4.417   2.506  0.9187 -1.0365  1.4285
29276SOL     OW94688   7.621  12.066   9.672 -0.0682  0.0375  0.0125
29276SOL    HW194689   7.540  12.095   9.631  0.8583  1.2483 -1.0466
29276SOL    HW294690   7.663  12.146   9.703  0.8278 -0.5384  0.3516
29277SOL     OW94691   8.236  11.629   4.831  0.4720 -0.0536  0.5111
29277SOL    HW194692   8.293  11.569   4.880 -0.5886 -0.7218  0.9599
29277SOL    HW294693   8.219  11.701   4.892 -0.0164 -0.3812  0.7689
29278SOL     OW94694   6.535   9.166   9.248  0.3553 -0.4261 -0.3044
29278SOL    HW194695   6.608   9.116   9.282 -0.7017 -1.4850  0.4763
29278SOL    HW294696   6.567   9.256   9.244  1.3746 -0.7108  0.9639
29279SOL     OW94697   3.771   2.402   0.047  0.1305  0.1190  0.5841
29279SOL    HW194698   3.776   2.475   0.109  0.8723 -0.2223  0.9489
29279SOL    HW294699   3.792   2.442  -0.038  0.9949  0.2684  0.8482
29280SOL     OW94700  10.723   3.839   9.055 -0.5443  0.0563  0.4770
29280SOL    HW194701  10.630   3.832   9.074 -0.7974 -0.5634 -0.8504
29280SOL    HW294702  10.728   3.894   8.978  0.2605  0.7057  0.9785
29281SOL     OW94703  12.012   5.215   5.488 -0.2854 -0.4306  0.1228
29281SOL    HW194704  12.081   5.202   5.553  0.3342 -0.0780 -0.4488
29281SOL    HW294705  12.039   5.161   5.414  0.4732  1.2785 -0.9073
29282SOL     OW94706   6.988   2.887   0.142  0.3808  0.1009 -0.1757
29282SOL    HW194707   6.963   2.919   0.056 -0.0788  0.4429  0.0784
29282SOL    HW294708   7.064   2.939   0.166  0.7742 -0.2933 -0.5556
29283SOL     OW94709   0.919   9.369  11.245 -0.1220  0.2806  0.5341
29283SOL    HW194710   0.944   9.277  11.257  0.8846  0.5320  0.4445
29283SOL    HW294711   0.933   9.409  11.331 -0.4389  0.3796  0.5407
29284SOL     OW94712   3.122   6.494   4.329  0.2269 -0.0210  0.3374
29284SOL    HW194713   3.207   6.494   4.285 -0.8111  0.1489 -1.7480
29284SOL    HW294714   3.092   6.403   4.322 -0.7563  0.3861 -0.9825
29285SOL     OW94715   8.395  11.301   5.605  0.1247 -0.0883  0.0376
29285SOL    HW194716   8.472  11.257   5.643 -0.5650 -2.7478 -1.4180
29285SOL    HW294717   8.432  11.377   5.560  1.7523 -0.5457  0.5016
29286SOL     OW94718  10.389  11.725   8.547 -0.7643 -0.1709 -0.3873
29286SOL    HW194719  10.400  11.802   8.491 -3.3930  0.4536 -0.1936
29286SOL    HW294720  10.345  11.661   8.491  2.1997 -1.9998 -0.8265
29287SOL     OW94721   3.209   2.574   1.480 -0.2792  0.2548  0.4034
29287SOL    HW194722   3.193   2.502   1.420 -3.4261  1.1611 -0.0569
29287SOL    HW294723   3.122   2.595   1.516  0.7197  2.9120  1.5514
29288SOL     OW94724   6.395   2.239  11.060 -0.4794 -0.4723  0.1969
29288SOL    HW194725   6.362   2.317  11.105 -2.5010 -0.7440 -0.6971
29288SOL    HW294726   6.379   2.256  10.967  1.5353 -0.8692 -0.2659
29289SOL     OW94727   6.513   7.924   9.651  0.4307 -0.3969  0.1110
29289SOL    HW194728   6.427   7.894   9.621  0.3776  0.5361 -0.7142
29289SOL    HW294729   6.501   8.018   9.669  1.3399 -0.1956 -0.2849
29290SOL     OW94730   6.422   4.339   2.302  0.2706 -0.2359  0.2750
29290SOL    HW194731   6.483   4.312   2.370  0.0212 -0.3888  0.4420
29290SOL    HW294732   6.426   4.269   2.237 -0.5347 -0.8006  0.8102
29291SOL     OW94733  10.803  12.094   4.802 -0.0482  0.4865 -0.3315
29291SOL    HW194734  10.869  12.137   4.747  1.9852 -0.7490  1.0157
29291SOL    HW294735  10.829  12.114   4.891 -1.9092  0.4911  0.2431
29292SOL     OW94736   7.414   4.991   2.510 -0.3804  0.1335 -0.2245
29292SOL    HW194737   7.381   5.076   2.540  2.3712  1.3256 -0.2581
29292SOL    HW294738   7.378   4.928   2.573 -0.5329  1.6511  1.2767
29293SOL     OW94739   7.413   9.115   9.298  0.0306  0.2442  0.2418
29293SOL    HW194740   7.355   9.151   9.365  3.1283  1.2276  2.6151
29293SOL    HW294741   7.442   9.192   9.248  0.8674  0.0520  0.4198
29294SOL     OW94742  10.168   3.514   0.988  0.5525 -0.2297  0.4055
29294SOL    HW194743  10.255   3.551   0.972  0.4400 -0.1372 -0.0059
29294SOL    HW294744  10.177   3.422   0.963 -0.2214  0.3838 -2.5100
29295SOL     OW94745   6.604  12.366   8.341  0.2245  0.2367 -0.0115
29295SOL    HW194746   6.535  12.308   8.373 -2.3801  1.5749 -2.6951
29295SOL    HW294747   6.634  12.325   8.260  0.0063  1.4420 -0.7196
29296SOL     OW94748   7.671  11.134   9.733 -0.3390  0.4177  0.2705
29296SOL    HW194749   7.695  11.093   9.817 -0.6632 -0.3746 -0.0168
29296SOL    HW294750   7.667  11.061   9.672  0.8628  1.1030 -0.6729
29297SOL     OW94751   8.384   4.528   2.536  0.3758 -0.1246 -0.5469
29297SOL    HW194752   8.338   4.531   2.452 -0.7124 -0.9544 -0.0204
29297SOL    HW294753   8.434   4.446   2.534  1.5293  0.5734 -0.9509
29298SOL     OW94754   5.792   7.479   2.994 -0.0385 -0.4549  0.1339
29298SOL    HW194755   5.867   7.499   2.939  0.4487 -0.6796  0.7073
29298SOL    HW294756   5.723   7.455   2.933 -0.1463  1.3275 -0.4842
29299SOL     OW94757   2.701   4.894   0.115 -0.1541 -0.7993  0.2434
29299SOL    HW194758   2.673   4.913   0.204  2.3841  1.3983  0.7032
29299SOL    HW294759   2.761   4.820   0.124 -0.2952 -0.9093  0.2810
29300SOL     OW94760   3.436   3.201   9.926 -0.1230  0.1473  0.4259
29300SOL    HW194761   3.359   3.186   9.871  0.3341  0.8873 -0.4456
29300SOL    HW294762   3.502   3.141   9.891  0.7988  1.9777 -1.1949
29301SOL     OW94763  12.396   5.802   3.151 -0.1027  1.1176  0.5123
29301SOL    HW194764  12.386   5.867   3.081  0.4519 -1.8950 -2.6640
29301SOL    HW294765  12.306   5.774   3.170 -0.1435 -0.6174 -1.8238
29302SOL     OW94766   6.396   9.613   7.500 -0.0192 -0.4019 -0.4026
29302SOL    HW194767   6.318   9.604   7.554 -0.4010 -0.4961 -0.9655
29302SOL    HW294768   6.459   9.658   7.557  0.1035 -1.8135  0.6500
29303SOL     OW94769  10.132  12.268   8.414  0.0930 -0.3376  0.2241
29303SOL    HW194770  10.119  12.222   8.497  0.2819 -0.8374 -0.0209
29303SOL    HW294771  10.226  12.288   8.412  0.5748 -2.4553 -0.9503
29304SOL     OW94772   7.434   6.732   0.688  0.1809  0.6858 -0.4454
29304SOL    HW194773   7.410   6.780   0.767 -0.5365  0.6485 -0.6300
29304SOL    HW294774   7.521   6.764   0.665  0.9519 -0.1801  1.0501
29305SOL     OW94775   1.966   8.006  11.109  0.1930 -0.2333 -0.0509
29305SOL    HW194776   1.884   7.980  11.067  0.7365 -0.8530 -0.7680
29305SOL    HW294777   2.013   7.924  11.121  0.2162 -0.0217  1.4508
29306SOL     OW94778   9.847   4.542   8.916  0.1685  0.4323  0.2696
29306SOL    HW194779   9.813   4.545   8.827  0.6264  0.2741  0.0875
29306SOL    HW294780   9.775   4.505   8.968  1.0523 -2.8820 -0.6171
29307SOL     OW94781   2.564   9.242   1.413 -0.3757  0.8401 -0.1037
29307SOL    HW194782   2.533   9.159   1.377 -0.8960  0.7394  0.5698
29307SOL    HW294783   2.541   9.239   1.505  2.8675  0.1647  0.8301
29308SOL     OW94784  10.961   0.647   5.724  0.2968 -0.6697  0.0846
29308SOL    HW194785  11.054   0.626   5.733 -0.1222 -2.8029 -0.0177
29308SOL    HW294786  10.952   0.734   5.763  2.5767  0.2417 -1.2265
29309SOL     OW94787  11.673   5.121   3.945  0.3937 -0.6547 -0.0744
29309SOL    HW194788  11.765   5.141   3.962  0.1119 -0.1377  0.9821
29309SOL    HW294789  11.628   5.205   3.958 -0.3891 -1.2032  0.8528
29310SOL     OW94790   3.938   3.343  12.037  0.1728  0.2230 -0.1556
29310SOL    HW194791   3.994   3.316  11.964 -0.0632  1.8636 -0.9907
29310SOL    HW294792   3.982   3.421  12.073 -1.1633  1.1215 -0.3761
29311SOL     OW94793   7.933   4.215   1.749 -0.3579  0.1669 -0.1318
29311SOL    HW194794   7.854   4.165   1.731 -0.1317 -0.9102  1.6644
29311SOL    HW294795   7.902   4.303   1.771 -1.2304 -0.6662  2.1899
29312SOL     OW94796  11.547   6.779   9.011 -0.4246  0.2303 -0.1817
29312SOL    HW194797  11.522   6.740   9.094  1.6402  0.7045  0.7202
29312SOL    HW294798  11.547   6.706   8.949 -1.1813 -0.2753  0.4062
29313SOL     OW94799   9.605   3.789   6.854  0.4438 -0.5543 -0.2022
29313SOL    HW194800   9.694   3.791   6.889  0.4145 -3.1661  0.2189
29313SOL    HW294801   9.600   3.707   6.805 -1.5833 -0.2325 -0.6470
29314SOL     OW94802   4.048   3.888   1.052 -0.0714  1.0454  0.5436
29314SOL    HW194803   4.027   3.949   0.982  0.5408 -1.0472 -1.6038
29314SOL    HW294804   3.966   3.875   1.099 -1.0373  0.9652 -1.0979
29315SOL     OW94805  12.184   2.222  11.572  0.1863  0.1891  0.0278
29315SOL    HW194806  12.158   2.239  11.663 -2.6409 -1.2815 -0.3972
29315SOL    HW294807  12.279   2.230  11.573  0.3701 -0.8465  3.3631
29316SOL     OW94808   4.127   7.843   8.376 -0.1100  0.0212 -0.4493
29316SOL    HW194809   4.039   7.835   8.342  0.0398 -1.3889 -0.5524
29316SOL    HW294810   4.118   7.828   8.470  0.0805 -0.6983 -0.5382
29317SOL     OW94811  11.401   2.044   4.495 -0.0396  0.1859  0.2906
29317SOL    HW194812  11.359   1.958   4.496 -0.1928  0.2428 -0.6849
29317SOL    HW294813  11.339   2.101   4.540  0.3528 -0.3285  1.5408
29318SOL     OW94814   6.509   8.661   5.947 -0.1964 -0.0558  0.1734
29318SOL    HW194815   6.506   8.649   5.852 -0.6067 -0.6090  0.2500
29318SOL    HW294816   6.428   8.706   5.968 -1.6337 -2.6870  0.6092
29319SOL     OW94817   3.874   7.539   3.342  0.3258  0.0932 -0.3951
29319SOL    HW194818   3.825   7.468   3.301 -1.1480  1.0381 -0.3368
29319SOL    HW294819   3.828   7.618   3.314 -0.2056  0.8406  2.3287
29320SOL     OW94820   4.100   2.913   4.690 -0.0830 -0.2809 -0.2597
29320SOL    HW194821   4.062   2.995   4.718 -2.3419 -1.5612  0.7032
29320SOL    HW294822   4.067   2.900   4.601 -0.8424 -0.7427  0.0769
29321SOL     OW94823   2.065   5.274   0.458 -0.3477 -0.5315  0.2587
29321SOL    HW194824   2.039   5.246   0.546 -1.2661  0.8844  0.4692
29321SOL    HW294825   2.156   5.303   0.469  0.1790 -2.0593  0.3084
29322SOL     OW94826   0.509  12.264  11.219  0.5227 -0.0543  0.5305
29322SOL    HW194827   0.450  12.197  11.256  0.8651 -1.0965 -0.7511
29322SOL    HW294828   0.472  12.347  11.249 -2.4070 -0.5762 -1.2383
29323SOL     OW94829   7.927   4.599   4.813 -0.1216  0.1923  0.0603
29323SOL    HW194830   8.022   4.594   4.827 -0.0639 -1.3533 -0.6536
29323SOL    HW294831   7.910   4.532   4.747 -1.8011 -0.0046  0.6616
29324SOL     OW94832   1.090   6.919  10.258 -0.1964 -0.5009 -0.0871
29324SOL    HW194833   1.062   6.860  10.328 -0.3954  0.7386  0.9351
29324SOL    HW294834   1.010   6.966  10.233  0.2228  0.4064  0.2101
29325SOL     OW94835   9.984  10.922   9.318 -0.3762 -0.4732 -0.0185
29325SOL    HW194836   9.954  10.871   9.393 -1.2359 -0.9180 -0.6373
29325SOL    HW294837   9.989  10.859   9.247 -0.6503  0.1395 -0.5966
29326SOL     OW94838   8.916   7.218   6.568 -0.6186  0.0318 -0.0701
29326SOL    HW194839   8.877   7.132   6.587  0.1181 -0.2945 -0.0112
29326SOL    HW294840   8.927   7.258   6.654 -0.3826 -0.0734 -0.0506
29327SOL     OW94841   9.037   9.880   7.706 -0.0808  0.3619  0.7101
29327SOL    HW194842   9.068   9.950   7.763  0.9193  0.3730  0.1750
29327SOL    HW294843   9.114   9.826   7.689 -0.6691 -0.4364  0.4892
29328SOL     OW94844  10.076   7.619   0.844 -0.2278 -0.1804 -0.1977
29328SOL    HW194845  10.163   7.588   0.868  0.4517  0.9987 -1.0464
29328SOL    HW294846  10.061   7.694   0.903 -0.5048 -0.1474 -0.3093
29329SOL     OW94847  11.697   7.784   5.666  0.3229 -0.5951  0.0527
29329SOL    HW194848  11.755   7.801   5.740  2.0191  1.6879 -1.6421
29329SOL    HW294849  11.755   7.753   5.597 -0.5276  0.9892 -1.4581
29330SOL     OW94850   3.591  12.210  10.055 -0.2215  0.7972  0.4130
29330SOL    HW194851   3.547  12.145  10.109 -0.2496 -0.1280 -0.7020
29330SOL    HW294852   3.609  12.165   9.972  0.2845  2.0228 -0.1667
29331SOL     OW94853  11.416   6.696   5.992  0.2129 -0.1219  0.4541
29331SOL    HW194854  11.350   6.753   5.952  0.5452  0.4893  0.7464
29331SOL    HW294855  11.495   6.750   5.994  0.5530 -0.6239  0.6760
29332SOL     OW94856   7.584   4.399   3.523 -0.0964 -0.4721  0.2233
29332SOL    HW194857   7.548   4.360   3.443  0.8831  1.6775 -1.3598
29332SOL    HW294858   7.638   4.330   3.560 -0.3416 -1.4398 -1.1195
29333SOL     OW94859   8.231   0.530  10.060  0.3732 -0.3577  0.0962
29333SOL    HW194860   8.298   0.479  10.014  1.4128  1.1858 -0.1855
29333SOL    HW294861   8.237   0.500  10.151  0.8752 -0.8363 -0.0859
29334SOL     OW94862   1.083   7.247  10.462 -0.0044 -0.2844  0.2927
29334SOL    HW194863   1.072   7.232  10.368  0.9555 -0.2873  0.1659
29334SOL    HW294864   0.996   7.268  10.494 -0.3839 -0.5448 -0.5556
29335SOL     OW94865   5.436   3.614   6.950  0.6479  0.7199  0.1298
29335SOL    HW194866   5.380   3.678   6.992  1.0767  0.0040  1.8894
29335SOL    HW294867   5.524   3.650   6.957  0.4646  2.3564 -3.5723
29336SOL     OW94868   5.066   7.408   3.535  0.2380 -0.6192 -0.2199
29336SOL    HW194869   5.003   7.475   3.562  0.0498 -0.2772 -1.4413
29336SOL    HW294870   5.138   7.417   3.597 -0.6196 -0.5792  0.8019
29337SOL     OW94871   3.593   6.409   3.357  0.0521  0.0026  0.2159
29337SOL    HW194872   3.552   6.464   3.424  0.4722  0.6296 -0.0406
29337SOL    HW294873   3.687   6.421   3.371  0.1426 -0.3707 -0.0739
29338SOL     OW94874   6.999   8.825   5.727  0.4012 -0.3906  0.3176
29338SOL    HW194875   6.921   8.774   5.747  0.2572  0.1691  1.2524
29338SOL    HW294876   7.071   8.775   5.765  0.2573  0.0983  1.2572
29339SOL     OW94877   6.796  11.646   5.969 -0.7348 -0.3328  0.2999
29339SOL    HW194878   6.762  11.731   5.943 -0.9630 -0.5247 -0.0431
29339SOL    HW294879   6.830  11.659   6.057 -0.7897  0.1059  0.2575
29340SOL     OW94880   2.401   2.828  10.440  0.1896  0.6161  0.2880
29340SOL    HW194881   2.441   2.821  10.353  0.8243 -0.0083  0.6170
29340SOL    HW294882   2.311   2.799  10.427  1.2565 -3.5400  0.5181
29341SOL     OW94883   7.094  10.753  11.587 -0.7946  0.0609 -0.6593
29341SOL    HW194884   7.091  10.746  11.491 -2.7035  2.5715 -0.8837
29341SOL    HW294885   7.155  10.826  11.603 -2.3718  1.3321 -0.1730
29342SOL     OW94886   8.462  11.056   4.581 -0.8954 -0.3636  0.1655
29342SOL    HW194887   8.517  11.130   4.606 -0.6404 -0.6127  0.3490
29342SOL    HW294888   8.374  11.093   4.572 -0.4274  0.3683 -1.7202
29343SOL     OW94889   1.087   5.393   9.774  0.7604 -0.2814 -0.2137
29343SOL    HW194890   1.147   5.321   9.796  0.0154 -0.7093  0.5062
29343SOL    HW294891   1.027   5.397   9.849  0.3574  0.6343 -0.5726
29344SOL     OW94892   9.621   2.729   2.503 -0.1393  0.3017 -0.2300
29344SOL    HW194893   9.696   2.777   2.468  0.0618  0.4583  0.4001
29344SOL    HW294894   9.633   2.731   2.598 -1.3940  1.0778 -0.0655
29345SOL     OW94895   2.815  10.067   6.660 -0.1232  0.1388 -0.0814
29345SOL    HW194896   2.870  10.098   6.588  1.4326 -1.6879  0.2503
29345SOL    HW294897   2.865  10.089   6.739 -1.8275  2.1520  0.5182
29346SOL     OW94898  10.627  11.327   1.074 -0.4245  0.5437 -0.0658
29346SOL    HW194899  10.659  11.237   1.079 -0.5858  0.3780 -1.5775
29346SOL    HW294900  10.534  11.320   1.093 -0.4223  0.4096 -0.1063
29347SOL     OW94901   9.417   0.056   8.101 -0.2946 -0.2399  0.2158
29347SOL    HW194902   9.459   0.066   8.015  0.5857  1.6234  0.8016
29347SOL    HW294903   9.472   0.107   8.160 -1.7553 -0.1916  1.5885
29348SOL     OW94904   5.475  10.880   4.016 -0.3009 -0.1449  0.4420
29348SOL    HW194905   5.511  10.909   4.101  1.0925  1.7806 -0.7125
29348SOL    HW294906   5.387  10.916   4.015  0.1228  0.9525  0.5812
29349SOL     OW94907   4.932  12.315   3.277 -0.3127 -0.3348 -0.2762
29349SOL    HW194908   4.940  12.394   3.223 -0.3022  0.3131  0.6288
29349SOL    HW294909   5.016  12.309   3.322 -1.3450  1.0088  2.0657
29350SOL     OW94910   2.846   1.721   0.090 -0.1284 -1.1030  0.2656
29350SOL    HW194911   2.898   1.695   0.014 -1.4494 -2.7409 -0.1418
29350SOL    HW294912   2.865   1.656   0.157 -1.5041 -1.6468  0.1590
29351SOL     OW94913  12.173  10.048   3.909  0.2661 -0.3955 -0.3514
29351SOL    HW194914  12.130  10.104   3.845  0.2013  0.0601  0.0784
29351SOL    HW294915  12.160   9.959   3.877 -3.4116 -0.5679  1.1071
29352SOL     OW94916   4.929   9.164   2.196 -0.6960  0.4007 -0.2197
29352SOL    HW194917   4.989   9.202   2.131 -0.3904 -0.1947 -0.2986
29352SOL    HW294918   4.955   9.202   2.279 -0.0953  0.0249 -0.2308
29353SOL     OW94919   2.005   8.242   2.258  0.0175  0.0079  0.3165
29353SOL    HW194920   2.005   8.154   2.295 -0.6307 -0.0567  0.1675
29353SOL    HW294921   2.089   8.249   2.213  0.0845 -0.5230  0.3563
29354SOL     OW94922   4.370   1.453  10.172  1.0086  0.0007 -0.0926
29354SOL    HW194923   4.275   1.454  10.164  0.9327 -0.6729  0.6864
29354SOL    HW294924   4.399   1.525  10.115  0.0963 -0.3098 -0.9777
29355SOL     OW94925   6.233   9.610   6.978 -0.6123  0.3576 -0.0920
29355SOL    HW194926   6.246   9.567   7.062  0.4971 -0.7126 -0.7853
29355SOL    HW294927   6.311   9.665   6.966  0.3593 -1.1963 -1.3805
29356SOL     OW94928   8.409   5.119   4.038 -0.4593 -0.0215  0.2901
29356SOL    HW194929   8.374   5.155   3.956  1.1883 -0.4368 -0.6529
29356SOL    HW294930   8.497   5.158   4.044 -0.8764  0.7029  2.3537
29357SOL     OW94931   7.272   0.182   1.291 -0.4487 -0.2241 -0.7311
29357SOL    HW194932   7.288   0.203   1.199  0.6136 -2.8717 -1.2391
29357SOL    HW294933   7.332   0.110   1.310 -1.4450 -0.5021  1.7258
29358SOL     OW94934   0.970  10.271   1.045 -0.3870  0.1469 -0.0063
29358SOL    HW194935   1.010  10.358   1.042 -1.7678  0.7910 -0.6521
29358SOL    HW294936   0.899  10.275   0.981 -0.9287 -1.2313  0.4686
29359SOL     OW94937  11.658  10.495   1.505 -0.3722  0.0066 -0.2093
29359SOL    HW194938  11.642  10.402   1.487 -0.2029  0.0948 -0.8429
29359SOL    HW294939  11.705  10.496   1.589 -0.1753 -0.4930 -0.3113
29360SOL     OW94940   1.294   7.722  11.730 -0.5620  0.5823 -0.3280
29360SOL    HW194941   1.348   7.795  11.762  1.1876 -1.5588  1.9895
29360SOL    HW294942   1.319   7.712  11.639  0.3708  1.8814 -0.2438
29361SOL     OW94943   4.243   3.207   5.681  0.4452  0.3464 -0.0690
29361SOL    HW194944   4.256   3.115   5.700  1.3100  0.4193 -0.2435
29361SOL    HW294945   4.150   3.222   5.695  0.3430 -0.4926  0.1984
29362SOL     OW94946  10.666   8.205  11.426 -0.2862  0.6906 -0.0164
29362SOL    HW194947  10.664   8.270  11.497  0.3881 -1.2933  1.9386
29362SOL    HW294948  10.597   8.143  11.449  0.7175 -0.6225 -0.4386
29363SOL     OW94949   6.094   0.209   7.867 -0.4109 -0.7627  0.3196
29363SOL    HW194950   6.115   0.257   7.787  0.1548  1.3496  1.6677
29363SOL    HW294951   6.004   0.235   7.888 -0.6525 -1.5103  0.2743
29364SOL     OW94952  12.020   6.276   6.051 -0.1243  0.5653  0.4978
29364SOL    HW194953  11.953   6.224   6.007 -0.2020  1.2630 -0.2244
29364SOL    HW294954  12.038   6.348   5.990  0.9538  0.6317  0.8795
29365SOL     OW94955   8.482   1.555  12.448  0.1937  0.2066  0.3002
29365SOL    HW194956   8.540   1.517  12.382  0.5400 -0.0855  0.7624
29365SOL    HW294957   8.398   1.564  12.404  0.0558 -1.2782  0.2148
29366SOL     OW94958   6.941   5.857   7.797 -0.0268  0.3242 -0.4319
29366SOL    HW194959   6.901   5.863   7.884 -0.3560  0.9894 -0.6229
29366SOL    HW294960   7.030   5.824   7.813 -0.1531  0.2512  0.1332
29367SOL     OW94961   1.182   8.485   3.733  0.2709  0.6539 -0.4219
29367SOL    HW194962   1.263   8.510   3.688 -0.2456  1.7073 -0.7886
29367SOL    HW294963   1.146   8.568   3.764  0.3156  0.0064  1.4483
29368SOL     OW94964  10.992   9.615   8.454  0.0650  0.2104  0.2761
29368SOL    HW194965  10.931   9.547   8.426 -0.3756  0.8067 -0.2319
29368SOL    HW294966  11.012   9.593   8.545  1.0162 -1.3792 -0.2859
29369SOL     OW94967  11.515  10.892  12.451 -0.2737  0.1257 -0.3272
29369SOL    HW194968  11.485  10.848  12.530 -0.0774 -0.3600 -0.5169
29369SOL    HW294969  11.457  10.967  12.441  0.1373  0.5932  0.6547
29370SOL     OW94970  10.458   3.491   8.559  0.2630 -0.2184  0.5961
29370SOL    HW194971  10.439   3.551   8.486 -1.2682  0.2794  1.3692
29370SOL    HW294972  10.515   3.425   8.520 -1.4028 -0.6124 -1.3916
29371SOL     OW94973   2.425   7.690   7.333  0.2146 -0.0324 -0.2414
29371SOL    HW194974   2.341   7.644   7.331  0.3024 -0.2612  0.6908
29371SOL    HW294975   2.464   7.665   7.417  0.0841  2.0427  0.5200
29372SOL     OW94976   7.893   3.882   9.244 -0.2879 -0.1910 -0.0801
29372SOL    HW194977   7.987   3.895   9.259  0.3592 -1.5915 -2.4135
29372SOL    HW294978   7.884   3.884   9.149 -2.6932  0.0707  0.0941
29373SOL     OW94979   6.056   3.773   5.868  0.3518  0.4946  0.1049
29373SOL    HW194980   6.069   3.789   5.961  0.1471 -0.2318  0.2591
29373SOL    HW294981   6.139   3.796   5.827  0.6778  0.1009  0.5537
29374SOL     OW94982   3.822   4.139   1.824  0.6492  0.0910 -0.7384
29374SOL    HW194983   3.881   4.138   1.900  0.2314  0.3246 -0.4071
29374SOL    HW294984   3.765   4.064   1.837  0.0415  0.6014 -0.3852
29375SOL     OW94985   0.616   7.871   8.352 -0.8620  0.6137 -0.5210
29375SOL    HW194986   0.622   7.962   8.321  0.3499  0.5652 -0.4523
29375SOL    HW294987   0.540   7.836   8.306 -1.8384  1.8843  0.0526
29376SOL     OW94988   3.846   8.815   8.094 -0.2174 -0.2537  0.2495
29376SOL    HW194989   3.750   8.810   8.094 -0.2490  0.0972  1.2687
29376SOL    HW294990   3.868   8.851   8.009 -0.9276 -1.3802 -0.4409
29377SOL     OW94991   7.575  10.193   0.524  0.2163 -0.1547 -0.1297
29377SOL    HW194992   7.645  10.190   0.589 -0.0260 -2.2347  0.1241
29377SOL    HW294993   7.500  10.229   0.570  0.9530  1.6981 -0.2872
29378SOL     OW94994   0.478  11.653   6.850 -0.0683 -0.0211 -0.7788
29378SOL    HW194995   0.482  11.733   6.799 -1.9649 -0.9368 -2.5021
29378SOL    HW294996   0.495  11.583   6.787  1.6761 -1.0270  0.7057
29379SOL     OW94997  10.496  11.833  12.467 -0.0864  0.4344  0.0111
29379SOL    HW194998  10.427  11.780  12.427 -0.6942  1.1858  0.0411
29379SOL    HW294999  10.542  11.772  12.525 -0.2584 -0.2520 -0.5580
29380SOL     OW95000   6.308   5.376   6.178 -0.0496 -0.2453 -0.4153
29380SOL    HW195001   6.348   5.385   6.265  0.7395 -1.6045 -0.5936
29380SOL    HW295002   6.214   5.370   6.195 -0.1256  1.7803  0.1250
29381SOL     OW95003  10.217   6.067   4.368 -0.1187 -0.0597  0.5002
29381SOL    HW195004  10.181   6.151   4.397 -1.0917 -0.2406 -0.1127
29381SOL    HW295005  10.247   6.025   4.449 -1.0251  0.2422  1.0126
29382SOL     OW95006  12.352  11.821   9.361  0.4426 -0.3292 -0.4699
29382SOL    HW195007  12.412  11.757   9.400  1.1606  0.1633 -0.7289
29382SOL    HW295008  12.356  11.803   9.267  1.8113  1.0029 -0.7221
29383SOL     OW95009   6.153   7.122   4.299  0.0635  0.0203  0.2537
29383SOL    HW195010   6.133   7.032   4.273 -2.3770  0.5581  0.0346
29383SOL    HW295011   6.222   7.113   4.366  0.6764 -1.8983 -0.5724
29384SOL     OW95012   5.437   3.819   9.415  0.2159  0.2177  0.4769
29384SOL    HW195013   5.521   3.865   9.404 -0.2734  1.1135  0.3956
29384SOL    HW295014   5.439   3.749   9.349  0.5895  0.7041 -0.0433
29385SOL     OW95015   6.584   0.626   1.687  0.2234  0.2896 -0.8730
29385SOL    HW195016   6.597   0.691   1.757  0.7506 -0.8283  0.1054
29385SOL    HW295017   6.520   0.565   1.723  0.5917 -0.3655 -1.3176
29386SOL     OW95018   2.954   4.473   4.794 -0.5041  0.1317  0.2920
29386SOL    HW195019   2.868   4.500   4.762  0.7380 -0.4958 -4.2355
29386SOL    HW295020   3.011   4.548   4.776  0.7616 -1.1909 -1.7255
29387SOL     OW95021   7.966   0.571   7.984 -0.0697  0.1930  0.0863
29387SOL    HW195022   7.885   0.554   8.033  1.2171  0.8771  2.5945
29387SOL    HW295023   8.033   0.519   8.028  1.4511  2.0272  0.0763
29388SOL     OW95024   6.464   5.921   6.311 -0.0290  0.3503 -0.1979
29388SOL    HW195025   6.457   5.837   6.358 -0.7566  0.0139 -0.8808
29388SOL    HW295026   6.558   5.933   6.299  0.0984 -0.2628  0.0999
29389SOL     OW95027  10.368   1.081   6.585 -0.4785 -0.2474 -0.1505
29389SOL    HW195028  10.276   1.105   6.597 -0.4383 -0.8578  1.7128
29389SOL    HW295029  10.407   1.092   6.672  1.2149 -0.0243 -0.9024
29390SOL     OW95030   9.166   2.812  10.540 -0.0368  0.5165 -0.2754
29390SOL    HW195031   9.157   2.806  10.635  0.7268  1.9133 -0.0919
29390SOL    HW295032   9.190   2.903  10.523 -2.5761  0.9485 -2.0375
29391SOL     OW95033   3.556   9.031  10.303  0.8458 -0.4100  0.8000
29391SOL    HW195034   3.524   9.083  10.229  4.8631  1.6138  0.2290
29391SOL    HW295035   3.490   8.961  10.313 -1.6791  1.2273 -2.3535
29392SOL     OW95036   6.280  10.812   1.167 -0.2655 -0.0074  0.1019
29392SOL    HW195037   6.253  10.772   1.250 -1.4548  0.7182  0.1017
29392SOL    HW295038   6.353  10.869   1.190  0.2807 -0.8132  0.4049
29393SOL     OW95039   4.823   5.117   4.451 -0.1292  0.6891  0.2668
29393SOL    HW195040   4.748   5.175   4.466 -1.0180 -0.5890  0.9439
29393SOL    HW295041   4.855   5.095   4.538 -1.1508 -1.5058  0.1466
29394SOL     OW95042   9.867   0.025   2.455  0.0029  0.0771  0.0962
29394SOL    HW195043   9.876  -0.061   2.496  0.3788 -0.5681 -1.2968
29394SOL    HW295044   9.841   0.007   2.365  2.1404  1.2749 -0.8548
29395SOL     OW95045   1.617  12.447  11.548 -0.0904 -0.3336 -0.3762
29395SOL    HW195046   1.634  12.408  11.633 -0.9330 -0.9707 -0.4758
29395SOL    HW295047   1.592  12.537  11.566  2.2762  0.3332 -0.1658
29396SOL     OW95048   8.438   1.824   9.010  0.1738 -0.2382  0.1777
29396SOL    HW195049   8.431   1.825   9.106  0.4952  0.0743  0.1994
29396SOL    HW295050   8.495   1.898   8.989 -0.5701  0.2131 -0.3107
29397SOL     OW95051   4.856   3.075   5.629 -0.1257  0.0551 -0.1157
29397SOL    HW195052   4.866   3.166   5.600  0.5644  0.2133  0.5941
29397SOL    HW295053   4.929   3.029   5.588  0.3772  0.1165  0.7037
29398SOL     OW95054   1.311   6.496   6.818  0.4562 -0.2994 -0.1651
29398SOL    HW195055   1.333   6.542   6.737  0.7581  1.1289  0.6935
29398SOL    HW295056   1.394   6.486   6.864 -0.1502  2.6031  1.8093
29399SOL     OW95057   5.406   7.527   7.754  0.2083 -0.3994 -0.3212
29399SOL    HW195058   5.363   7.609   7.729 -2.8242 -1.6020  0.4428
29399SOL    HW295059   5.499   7.549   7.761 -0.5702  3.1592  0.6323
29400SOL     OW95060   5.452   9.489   6.586  0.2640  0.0951  0.0067
29400SOL    HW195061   5.486   9.555   6.646  1.4030 -0.1802 -0.3248
29400SOL    HW295062   5.483   9.406   6.621 -1.7295 -0.3838  0.8192
29401SOL     OW95063   6.199   8.324   8.010 -0.2365 -0.1291 -0.7235
29401SOL    HW195064   6.239   8.240   7.984 -2.7872 -1.9170  0.7397
29401SOL    HW295065   6.229   8.338   8.100 -1.3609 -0.5082 -0.2807
29402SOL     OW95066   1.508  12.184  10.520  0.5524 -0.2769  0.0716
29402SOL    HW195067   1.502  12.154  10.429 -2.3993  0.4003 -0.0516
29402SOL    HW295068   1.507  12.279  10.513  1.7218 -0.1927  0.8043
29403SOL     OW95069  10.036   1.646   1.245 -0.1092  0.4952  0.5217
29403SOL    HW195070  10.042   1.621   1.337  2.0146 -1.9817 -0.1875
29403SOL    HW295071  10.108   1.600   1.202 -1.9650  0.2720 -2.6638
29404SOL     OW95072   4.159   2.775  10.139 -0.5754  0.3689 -0.1213
29404SOL    HW195073   4.239   2.725  10.121 -0.7207 -0.3296  1.0939
29404SOL    HW295074   4.091   2.731  10.088 -0.5185 -0.1093  0.2074
29405SOL     OW95075  11.497   9.189   7.707 -0.1094  0.2014 -0.3609
29405SOL    HW195076  11.461   9.177   7.795  0.5652 -1.8200 -0.3148
29405SOL    HW295077  11.420   9.188   7.650 -0.4740  0.5479  0.1110
29406SOL     OW95078   5.499  11.518   5.485 -0.4378  0.0362  0.2283
29406SOL    HW195079   5.594  11.526   5.485 -0.3619 -0.5661  1.4457
29406SOL    HW295080   5.479  11.475   5.402  0.3343  0.3376 -0.1230
29407SOL     OW95081   1.303  11.459   6.114 -0.3187 -0.0924 -0.4765
29407SOL    HW195082   1.245  11.509   6.057 -0.5259  0.2651  0.0480
29407SOL    HW295083   1.304  11.371   6.075  0.6007  0.4680 -1.8013
29408SOL     OW95084   5.792   9.918   3.658 -0.4430  0.2924 -0.1793
29408SOL    HW195085   5.769   9.978   3.587 -0.6873  1.0973  0.5752
29408SOL    HW295086   5.788   9.971   3.737 -0.0463 -0.5698  0.4318
29409SOL     OW95087   1.629   1.580   0.707 -0.1206 -0.6856 -0.4190
29409SOL    HW195088   1.709   1.594   0.758 -0.3243 -0.7615 -0.0713
29409SOL    HW295089   1.558   1.594   0.770 -0.4010  0.1254 -0.9041
29410SOL     OW95090  11.553   8.999   9.055  0.6935 -0.1322  0.0265
29410SOL    HW195091  11.608   8.942   9.003  1.1296  0.1612  0.1618
29410SOL    HW295092  11.610   9.072   9.080  0.7844 -0.7443  1.7190
29411SOL     OW95093  11.109  11.227   4.729 -0.3089  0.2207 -0.0026
29411SOL    HW195094  11.088  11.157   4.792 -1.4543  1.1485  0.6846
29411SOL    HW295095  11.115  11.306   4.782  3.0330  0.4099 -0.4595
29412SOL     OW95096   4.364  10.063   4.126 -0.1682  0.0449  0.3086
29412SOL    HW195097   4.430  10.087   4.191 -0.6517  1.2879  0.3657
29412SOL    HW295098   4.414  10.022   4.055  0.7390  1.4049  0.1270
29413SOL     OW95099   5.063  11.460   2.658 -0.4596 -0.1080  0.1446
29413SOL    HW195100   4.973  11.435   2.676  0.0252 -2.7710 -0.7531
29413SOL    HW295101   5.099  11.484   2.744 -1.6279 -0.3899  0.7246
29414SOL     OW95102   5.664   6.980   3.704  0.0795  0.3104 -0.1378
29414SOL    HW195103   5.681   7.047   3.638  1.5572  0.3775  0.2759
29414SOL    HW295104   5.725   6.910   3.683 -1.0406 -0.6771 -0.2114
29415SOL     OW95105   5.766   4.244   4.204  0.0894 -1.0893 -0.7413
29415SOL    HW195106   5.719   4.281   4.129 -1.2589 -1.8192 -0.3008
29415SOL    HW295107   5.728   4.289   4.280  2.6673  0.9365 -0.5270
29416SOL     OW95108   8.958   4.196   4.040 -0.7519 -0.3694  0.2171
29416SOL    HW195109   9.004   4.253   3.978 -1.4679 -1.5003 -1.4249
29416SOL    HW295110   9.018   4.123   4.055 -1.2381 -0.9069 -0.4358
29417SOL     OW95111   4.475   0.701   1.600  0.0865  0.7012 -0.2397
29417SOL    HW195112   4.438   0.662   1.679  0.2019  0.8421 -0.1169
29417SOL    HW295113   4.463   0.795   1.611  0.8228  0.7700 -0.0303
29418SOL     OW95114   3.766   5.652   9.895  0.6053 -0.5224 -0.2560
29418SOL    HW195115   3.858   5.665   9.870  0.1262  0.4533 -1.6032
29418SOL    HW295116   3.723   5.735   9.875  0.1302  0.5917  4.2229
29419SOL     OW95117   9.746   7.102  11.910  0.4415  0.0541  0.3712
29419SOL    HW195118   9.707   7.171  11.963 -3.3895  1.4303 -3.6534
29419SOL    HW295119   9.707   7.021  11.943  1.3067  0.3175  2.1273
29420SOL     OW95120   6.882   2.129   4.487 -0.1533 -0.3455  0.1565
29420SOL    HW195121   6.909   2.095   4.573  0.3423 -0.1679  0.0771
29420SOL    HW295122   6.965   2.149   4.443 -0.3973 -0.7130 -0.4772
29421SOL     OW95123   4.911   1.976   1.480 -0.1673 -0.3367 -0.0301
29421SOL    HW195124   4.894   2.011   1.393 -0.1727 -0.4772 -0.0864
29421SOL    HW295125   4.991   1.924   1.469 -1.1646 -1.8901 -0.3813
29422SOL     OW95126   1.447   7.536   6.114  0.0243 -0.4062 -0.5700
29422SOL    HW195127   1.408   7.452   6.091  0.7976 -0.7526 -0.6475
29422SOL    HW295128   1.483   7.569   6.031 -0.7759  0.2728 -0.6554
29423SOL     OW95129   4.608   7.031   3.034 -0.3538  0.1833 -0.2852
29423SOL    HW195130   4.559   7.112   3.053 -0.5453  0.4824 -1.9286
29423SOL    HW295131   4.670   7.056   2.965  0.8946 -0.6370  0.5021
29424SOL     OW95132   5.620   3.784  12.464  0.0847  0.0522 -0.3911
29424SOL    HW195133   5.680   3.858  12.460 -0.1663  0.3488  1.0075
29424SOL    HW295134   5.602   3.772  12.557 -1.1039 -0.7772 -0.7008
29425SOL     OW95135   3.523  10.179   8.227 -0.4030 -0.5129  0.4720
29425SOL    HW195136   3.480  10.212   8.306  0.1487 -0.7188  0.8688
29425SOL    HW295137   3.453  10.170   8.163 -1.0851 -1.5944  1.3412
29426SOL     OW95138  11.956  11.471   2.812  0.1992 -0.1481 -0.0274
29426SOL    HW195139  12.003  11.497   2.733 -0.6801 -0.8298 -0.8060
29426SOL    HW295140  11.875  11.433   2.780  0.0255 -0.8723  1.1933
29427SOL     OW95141  11.122   3.147  11.095  0.1093 -0.1162 -0.1903
29427SOL    HW195142  11.079   3.197  11.164  0.0193  0.8187 -0.8985
29427SOL    HW295143  11.053   3.131  11.030  0.0483 -1.4935  0.1818
29428SOL     OW95144   1.476   5.404  11.734  0.0504 -0.4121  0.0423
29428SOL    HW195145   1.471   5.373  11.643  1.3592 -0.9606  0.1316
29428SOL    HW295146   1.392   5.380  11.773 -0.0747 -1.2349 -0.7067
29429SOL     OW95147   3.808   7.601   4.936  0.3161 -0.7636  0.2340
29429SOL    HW195148   3.788   7.550   5.015 -1.4571 -0.7244 -0.1477
29429SOL    HW295149   3.768   7.552   4.865  0.6592 -0.0623 -0.4561
29430SOL     OW95150   7.775   2.893   8.974 -0.3893 -0.6152  0.0746
29430SOL    HW195151   7.695   2.870   8.928 -1.0444 -0.8859  1.3094
29430SOL    HW295152   7.762   2.861   9.064  0.3760  0.8520  0.7572
29431SOL     OW95153   7.216   7.300   1.832 -0.0189 -0.1843  0.0819
29431SOL    HW195154   7.309   7.316   1.818 -0.1974  0.9827  0.1679
29431SOL    HW295155   7.207   7.293   1.927 -0.4609  2.8546  0.3504
29432SOL     OW95156   3.185   9.784   0.190 -0.0011 -0.4286  0.1699
29432SOL    HW195157   3.187   9.876   0.166  1.1633 -0.6432 -0.6930
29432SOL    HW295158   3.093   9.764   0.206 -0.1883  1.0243  0.9846
29433SOL     OW95159   7.027   6.192   4.785  0.6375  0.0575 -0.2452
29433SOL    HW195160   7.015   6.097   4.783 -1.1220  0.2098  0.8130
29433SOL    HW295161   7.053   6.210   4.875  2.1275  0.4933 -0.7375
29434SOL     OW95162  11.468   1.992   3.655  0.2737  0.4278  0.0669
29434SOL    HW195163  11.562   1.985   3.638  0.9353  1.8035  2.7375
29434SOL    HW295164  11.448   2.085   3.646 -0.5419  0.3436  0.8114
29435SOL     OW95165   3.076   9.456  10.068  0.0986  0.0800 -0.4546
29435SOL    HW195166   3.157   9.495  10.036 -0.1918  0.7868 -0.3329
29435SOL    HW295167   3.008   9.490  10.011 -0.4870  1.7064  1.1095
29436SOL     OW95168   2.186  10.372   8.486  0.2500 -0.3712 -0.1994
29436SOL    HW195169   2.273  10.371   8.526  1.0287 -0.2481 -1.8102
29436SOL    HW295170   2.198  10.328   8.402 -1.4875 -1.2738 -0.0133
29437SOL     OW95171   8.500   7.131   9.374  0.1312 -0.3071 -0.4320
29437SOL    HW195172   8.407   7.124   9.395  0.1799  0.7947  0.2576
29437SOL    HW295173   8.535   7.042   9.384 -1.2635 -1.2190 -2.9010
29438SOL     OW95174  11.369  11.151  11.311 -0.5022  0.0351 -0.0814
29438SOL    HW195175  11.322  11.207  11.374  1.2219  2.5635 -0.8788
29438SOL    HW295176  11.302  11.090  11.280 -1.7823 -0.3368  3.0221
29439SOL     OW95177   8.620   4.596   8.464 -0.2515  0.4776 -0.2616
29439SOL    HW195178   8.696   4.572   8.517 -0.4927 -3.3630 -1.3523
29439SOL    HW295179   8.585   4.513   8.434 -4.0621  2.1706 -1.0630
29440SOL     OW95180   1.422   3.547   8.909  0.8223  0.0010  0.6312
29440SOL    HW195181   1.475   3.597   8.848  1.8651 -1.7708 -0.0041
29440SOL    HW295182   1.435   3.456   8.883  0.3293 -0.7318  2.7409
29441SOL     OW95183   3.627   6.348   9.758 -0.3284 -0.7866  0.1377
29441SOL    HW195184   3.608   6.260   9.789  1.7245 -1.0435  0.8047
29441SOL    HW295185   3.666   6.334   9.671 -0.4404 -0.5108  0.0445
29442SOL     OW95186   4.304   5.704   8.953  0.1030  0.1517 -1.1140
29442SOL    HW195187   4.254   5.623   8.943 -1.2005  0.0841  3.4857
29442SOL    HW295188   4.393   5.675   8.974  0.1876  0.0063 -1.6641
29443SOL     OW95189   1.345   2.791   3.487  0.4114 -0.2376  0.5176
29443SOL    HW195190   1.364   2.728   3.557  0.9255  0.4761  1.0369
29443SOL    HW295191   1.271   2.842   3.520  1.7453  1.2486  1.3323
29444SOL     OW95192  10.866   3.848   2.860 -0.0419  0.1674  0.0433
29444SOL    HW195193  10.888   3.779   2.797 -0.2452 -1.7835  1.9863
29444SOL    HW295194  10.950   3.887   2.883  0.0353  0.8968 -1.3803
29445SOL     OW95195   6.351   2.428  12.272 -0.0201 -0.0145  0.4320
29445SOL    HW195196   6.439   2.397  12.249  1.2486  2.0486  2.1134
29445SOL    HW295197   6.335   2.501  12.211  0.2101  0.7318  1.2483
29446SOL     OW95198   3.451   9.748   2.266  0.2670  0.5406  0.0547
29446SOL    HW195199   3.419   9.834   2.293 -1.6730 -0.0923 -0.1213
29446SOL    HW295200   3.512   9.767   2.194  1.1899  1.8557  1.1439
29447SOL     OW95201   2.252   5.887  10.542  0.1868  0.0772  0.2362
29447SOL    HW195202   2.348   5.890  10.549  0.3495 -1.1328 -0.9994
29447SOL    HW295203   2.232   5.942  10.467 -0.3590  2.3520  1.9455
29448SOL     OW95204   7.266   8.185   3.452 -0.4147  0.0915 -0.5237
29448SOL    HW195205   7.307   8.176   3.365  2.2138  1.5783  0.4510
29448SOL    HW295206   7.326   8.140   3.511 -2.6124 -1.6756  0.5101
29449SOL     OW95207   8.806   5.289  11.739 -0.4583  0.7216 -0.3323
29449SOL    HW195208   8.809   5.194  11.731 -2.3059  0.5251  0.6961
29449SOL    HW295209   8.746   5.316  11.670 -0.2371  1.1053 -0.3763
29450SOL     OW95210   6.780  10.535  10.899 -0.6209 -0.4773  0.0654
29450SOL    HW195211   6.699  10.542  10.949  0.5066 -0.6818  2.0550
29450SOL    HW295212   6.833  10.609  10.929  0.1958 -0.7294 -0.6990
29451SOL     OW95213   3.522   8.397   2.804 -0.1801 -0.2785  0.7031
29451SOL    HW195214   3.576   8.355   2.737 -0.2459 -0.3985  0.7259
29451SOL    HW295215   3.583   8.455   2.851  0.1322 -1.0816  1.3185
29452SOL     OW95216   6.394  12.239  10.674 -0.3227 -0.2625  0.4801
29452SOL    HW195217   6.383  12.147  10.654  0.2498 -0.0404 -1.0677
29452SOL    HW295218   6.481  12.245  10.715  0.6256 -0.1978 -1.4190
29453SOL     OW95219   5.072   8.335   9.136  0.9699  0.0896 -0.1659
29453SOL    HW195220   5.103   8.274   9.069  1.0424 -0.5062  0.4008
29453SOL    HW295221   5.101   8.297   9.219 -0.2815  0.0978  0.3072
29454SOL     OW95222  11.346   4.793   0.775 -0.2420  0.8130  0.6216
29454SOL    HW195223  11.433   4.793   0.737  0.1475  1.2704  1.4760
29454SOL    HW295224  11.318   4.884   0.772 -1.6734  0.3877 -1.7361
29455SOL     OW95225  11.975   0.029   0.020 -0.4812  0.2982  0.1501
29455SOL    HW195226  11.949   0.096  -0.044  0.3927  1.1334  0.6399
29455SOL    HW295227  11.989   0.078   0.101  2.0728 -0.1391  0.0430
29456SOL     OW95228   7.832  12.480  11.235  0.0775  0.4349 -0.0168
29456SOL    HW195229   7.911  12.439  11.269 -1.6400 -3.7434 -0.5023
29456SOL    HW295230   7.817  12.437  11.150 -2.7879  0.9043  0.1465
29457SOL     OW95231   4.038   0.113  10.851 -0.0565 -0.0266  0.1882
29457SOL    HW195232   4.013   0.063  10.774  1.7567 -1.7846  0.6589
29457SOL    HW295233   4.051   0.202  10.819 -2.0958 -0.0699 -0.9232
29458SOL     OW95234   1.263   9.762   9.236 -0.7579 -0.4512  0.5694
29458SOL    HW195235   1.275   9.696   9.304 -1.0615  0.5885  1.6584
29458SOL    HW295236   1.177   9.744   9.199 -0.4785 -1.1844  0.2594
29459SOL     OW95237   1.353   6.152   3.943 -0.0472 -0.9353  0.0969
29459SOL    HW195238   1.356   6.059   3.920  0.2365 -1.6246  2.5811
29459SOL    HW295239   1.439   6.185   3.917 -0.4380 -1.1099 -1.5685
29460SOL     OW95240   8.660   1.581   4.509 -0.2429  0.6346 -0.2639
29460SOL    HW195241   8.598   1.524   4.555 -0.8448  0.7958 -0.8617
29460SOL    HW295242   8.676   1.653   4.570 -0.7400  0.6571 -0.1528
29461SOL     OW95243   9.637  12.412   1.232  0.3201 -0.9795 -0.2629
29461SOL    HW195244   9.578  12.444   1.301  0.7358  0.5302 -0.5634
29461SOL    HW295245   9.610  12.322   1.217 -1.0755 -0.7223  0.4958
29462SOL     OW95246  10.720   0.381   0.954 -0.4115 -0.1587  0.7803
29462SOL    HW195247  10.666   0.433   0.895 -2.1263 -0.5537  1.9003
29462SOL    HW295248  10.701   0.290   0.931 -0.8044 -0.3113  1.6498
29463SOL     OW95249   2.571   0.038   8.884  0.3219 -0.5479  0.8118
29463SOL    HW195250   2.498  -0.023   8.893  0.3437 -0.7501 -0.2541
29463SOL    HW295251   2.594   0.061   8.974 -1.1728 -0.3372  1.1716
29464SOL     OW95252  11.749  11.678  10.695  0.2343  0.1519 -0.1970
29464SOL    HW195253  11.738  11.718  10.781 -0.7065 -0.5709  0.0342
29464SOL    HW295254  11.730  11.749  10.633  2.0897  1.0094  0.1407
29465SOL     OW95255   1.181   5.686   5.597 -0.6027  0.1553 -0.9048
29465SOL    HW195256   1.180   5.606   5.650 -1.1047 -0.5219 -1.8935
29465SOL    HW295257   1.235   5.747   5.647  0.2502 -0.9776 -0.3741
29466SOL     OW95258   9.634  10.576   6.633  0.0058  0.2398  0.6114
29466SOL    HW195259   9.673  10.657   6.667 -1.8142  0.5849  1.9634
29466SOL    HW295260   9.667  10.507   6.691  0.4630  0.1795  0.2914
29467SOL     OW95261   5.660   5.485   6.880 -0.1419  0.2655 -0.5175
29467SOL    HW195262   5.566   5.482   6.860 -0.4306  0.7472  0.6919
29467SOL    HW295263   5.675   5.574   6.912  0.4602 -0.1798  0.4866
29468SOL     OW95264  11.445  11.583  10.065 -0.1904 -0.2213 -0.8487
29468SOL    HW195265  11.371  11.602  10.123  1.0815  0.8631  0.4898
29468SOL    HW295266  11.472  11.494  10.089 -0.5336 -0.3026 -0.7523
29469SOL     OW95267   1.276   8.981   7.417  0.2488 -0.0574 -0.0890
29469SOL    HW195268   1.197   8.929   7.402  0.0949  0.4030 -0.9471
29469SOL    HW295269   1.297   8.966   7.509 -0.3119 -0.9100 -0.0822
29470SOL     OW95270   3.521  11.007   5.844 -0.1472  0.0042  0.0166
29470SOL    HW195271   3.593  10.971   5.793  0.3171 -0.9425  1.3047
29470SOL    HW295272   3.563  11.060   5.911 -0.6159 -0.9902  1.1152
29471SOL     OW95273   8.081   0.175  11.850  0.7311  0.4889  0.3093
29471SOL    HW195274   7.987   0.189  11.857  0.9613  1.9084  0.9376
29471SOL    HW295275   8.119   0.239  11.910  2.2238  1.8182 -1.9154
29472SOL     OW95276  11.627   9.518  10.638 -0.1598  0.1821  0.0712
29472SOL    HW195277  11.576   9.593  10.666  0.3479  0.4841  0.1956
29472SOL    HW295278  11.659   9.542  10.551  0.8457  0.5463  0.5239
29473SOL     OW95279  10.491   9.555  11.108  0.3399  0.2467  0.3182
29473SOL    HW195280  10.513   9.502  11.185  1.0364  0.7004  0.4421
29473SOL    HW295281  10.545   9.633  11.117  0.2218  0.4286 -0.4959
29474SOL     OW95282   2.524  10.922  10.638  0.0394 -0.1578 -0.3111
29474SOL    HW195283   2.448  10.949  10.690 -0.1217 -0.3465 -0.4449
29474SOL    HW295284   2.504  10.832  10.613  0.3560 -0.2429 -0.2616
29475SOL     OW95285   2.192   6.682   8.031  0.4164  0.2798 -0.2015
29475SOL    HW195286   2.286   6.668   8.032  0.8209  2.4625  1.9504
29475SOL    HW295287   2.166   6.684   8.123 -1.7457 -0.1860 -0.7309
29476SOL     OW95288   2.657   3.324   8.302 -0.1890  0.1317  0.0650
29476SOL    HW195289   2.685   3.250   8.355 -2.1158  0.2316  1.3305
29476SOL    HW295290   2.735   3.378   8.292  1.2350 -1.9894 -0.8214
29477SOL     OW95291   1.436   5.573  10.314 -0.1406  0.1514  0.4204
29477SOL    HW195292   1.507   5.515  10.341 -1.2549 -1.3783  0.2014
29477SOL    HW295293   1.412   5.541  10.226 -0.1810  1.5468 -0.1028
29478SOL     OW95294   8.526  11.543   1.958  0.3920 -0.2660  0.1653
29478SOL    HW195295   8.556  11.634   1.962 -0.0968 -0.0301 -1.1053
29478SOL    HW295296   8.434  11.547   1.981  0.6468 -0.6256  1.3247
29479SOL     OW95297  10.741  10.322   9.346 -0.2716  0.4274 -0.0696
29479SOL    HW195298  10.667  10.272   9.311  0.0023 -0.8552  1.0946
29479SOL    HW295299  10.744  10.299   9.439 -0.2587  2.8143  0.5740
29480SOL     OW95300   0.721   4.166  10.877  0.1680 -0.0723  0.1443
29480SOL    HW195301   0.813   4.192  10.882  0.1927 -0.2465  0.5836
29480SOL    HW295302   0.721   4.094  10.814  0.3921 -0.3364  0.4426
29481SOL     OW95303  11.558   2.344   1.908  0.4946 -0.4343  0.4745
29481SOL    HW195304  11.534   2.259   1.872  0.1585 -0.1277 -0.0331
29481SOL    HW295305  11.651   2.354   1.885  0.9065 -1.2293  1.6766
29482SOL     OW95306  12.276   1.647   9.954  0.7579  0.0485 -0.1045
29482SOL    HW195307  12.305   1.664  10.044 -1.8032 -2.1493  1.2383
29482SOL    HW295308  12.223   1.568   9.959 -0.2541  0.3487 -3.4338
29483SOL     OW95309   3.675   3.854   9.387 -0.3348  0.2802 -0.4045
29483SOL    HW195310   3.613   3.914   9.344  0.8898  2.3322  0.5677
29483SOL    HW295311   3.622   3.810   9.453 -0.9644  1.5047 -0.0454
29484SOL     OW95312   5.257  11.880   6.245 -0.4382 -0.0341 -0.5618
29484SOL    HW195313   5.296  11.827   6.176 -0.8010  0.8852 -1.4976
29484SOL    HW295314   5.322  11.948   6.264 -1.2712  1.1194 -1.6772
29485SOL     OW95315   9.989  11.576  10.248 -0.1963 -0.4667 -0.4852
29485SOL    HW195316   9.953  11.624  10.323  1.0549  0.8189 -0.6473
29485SOL    HW295317  10.058  11.521  10.285 -1.0693 -1.5146 -0.4102
29486SOL     OW95318   7.106   4.408   8.789 -0.2692 -0.1613 -0.1290
29486SOL    HW195319   7.106   4.424   8.695  2.9659 -0.9392 -0.3912
29486SOL    HW295320   7.121   4.314   8.797  0.8875  0.0856  1.0817
29487SOL     OW95321   6.610  10.543   7.336 -0.0476  0.6068 -0.1507
29487SOL    HW195322   6.627  10.462   7.288  0.1047 -0.0238  0.9265
29487SOL    HW295323   6.676  10.544   7.405 -0.6506  1.1722  0.4245
29488SOL     OW95324   1.157   7.456   4.057  0.0857  0.6161  0.3802
29488SOL    HW195325   1.128   7.394   3.991 -0.0194 -1.0525  1.9373
29488SOL    HW295326   1.252   7.459   4.047 -0.0891  2.2498 -1.3936
29489SOL     OW95327   7.715  11.850   5.404 -0.7565  0.6354 -0.4336
29489SOL    HW195328   7.796  11.841   5.354  0.3129  0.0069  1.3114
29489SOL    HW295329   7.741  11.899   5.482 -1.6302 -1.1013  1.0167
29490SOL     OW95330   5.810   3.245  12.458  0.2147  0.2285  0.5064
29490SOL    HW195331   5.852   3.330  12.440  1.8137  0.1340  3.2693
29490SOL    HW295332   5.883   3.185  12.472 -0.9033 -1.2182  0.3336
29491SOL     OW95333   6.489  11.024   8.402  0.6969  0.1763 -0.1383
29491SOL    HW195334   6.449  10.994   8.484 -0.2263  0.6364 -0.3999
29491SOL    HW295335   6.415  11.038   8.343  1.2293  1.2318 -0.5874
29492SOL     OW95336   7.546   6.583   0.040 -0.0601 -0.1846  0.2137
29492SOL    HW195337   7.535   6.489   0.044  0.5390 -0.2439  0.5960
29492SOL    HW295338   7.525   6.606  -0.051 -1.4400 -0.5036  0.4299
29493SOL     OW95339   1.263   4.888   4.669  0.0042  0.6006 -0.1419
29493SOL    HW195340   1.331   4.851   4.725 -0.1149  0.0078 -0.3745
29493SOL    HW295341   1.192   4.824   4.672  0.1209  0.3972 -1.2090
29494SOL     OW95342  11.690   5.980   1.223  0.2968  0.3250  0.1051
29494SOL    HW195343  11.714   6.059   1.175 -0.0847  0.1220 -0.4202
29494SOL    HW295344  11.748   5.981   1.300  2.0656 -0.2002 -1.1563
29495SOL     OW95345  11.183   3.739   1.494 -0.4410 -0.0506 -0.3350
29495SOL    HW195346  11.145   3.652   1.507 -1.2777  0.4017  0.3550
29495SOL    HW295347  11.194   3.773   1.583 -0.2262  0.5851 -0.6047
29496SOL     OW95348   5.228  11.660  10.858 -0.7823 -0.0300 -0.4376
29496SOL    HW195349   5.158  11.719  10.832  0.8398  2.2600  0.0298
29496SOL    HW295350   5.306  11.695  10.815  0.5554 -0.7692  1.2574
29497SOL     OW95351  11.724   9.102   9.873 -0.1739 -0.0409 -1.0262
29497SOL    HW195352  11.730   9.105   9.969  0.1226 -1.4445 -0.9870
29497SOL    HW295353  11.776   9.178   9.844 -0.9727  0.9042 -0.0780
29498SOL     OW95354   3.463  10.127   7.813  0.2072  0.4576  0.3852
29498SOL    HW195355   3.529  10.073   7.858  1.4227  2.1675  0.7584
29498SOL    HW295356   3.504  10.213   7.806 -1.6003  1.2969 -0.3656
29499SOL     OW95357   5.511   7.772   6.880 -0.2919  0.0030  0.0564
29499SOL    HW195358   5.510   7.785   6.785 -0.2597 -1.3811 -0.1531
29499SOL    HW295359   5.485   7.681   6.892  1.0232 -0.2398  1.3123
29500SOL     OW95360  10.496   7.197   1.789 -0.1850 -0.0115  0.2669
29500SOL    HW195361  10.441   7.207   1.712 -1.7854 -1.9892  1.0393
29500SOL    HW295362  10.471   7.112   1.825  2.4451 -0.3848  1.4657
29501SOL     OW95363   6.897   1.026  12.481  0.8953 -0.2554 -0.4100
29501SOL    HW195364   6.967   1.084  12.453  1.6560 -1.2097 -0.5407
29501SOL    HW295365   6.942   0.947  12.511 -0.1336 -0.9702 -0.6900
29502SOL     OW95366   8.474  10.321   6.059  0.4942  0.5503  0.5593
29502SOL    HW195367   8.531  10.398   6.050  0.1872  0.6146 -0.9348
29502SOL    HW295368   8.425  10.317   5.978  0.3407 -1.1181  0.7009
29503SOL     OW95369   7.586   7.684  11.156  0.4011  0.2998  0.1104
29503SOL    HW195370   7.500   7.698  11.194  0.4749 -1.2434  0.8919
29503SOL    HW295371   7.569   7.647  11.070  0.2822 -0.4377  0.4479
29504SOL     OW95372   5.089   9.259   0.121  0.3274  0.2261 -0.4083
29504SOL    HW195373   5.050   9.250   0.208 -1.7121 -1.5763 -1.4113
29504SOL    HW295374   5.175   9.218   0.129 -0.5617 -1.5996  0.3595
29505SOL     OW95375   9.696  10.729   2.988  0.8298 -0.1259  0.7428
29505SOL    HW195376   9.629  10.698   3.048  0.6288 -0.5967  0.2844
29505SOL    HW295377   9.777  10.728   3.039  0.6509 -0.4703  1.0188
29506SOL     OW95378  11.469  12.139  11.317  0.7237  0.1456 -0.1567
29506SOL    HW195379  11.550  12.151  11.266  0.8893  1.7092  0.3976
29506SOL    HW295380  11.499  12.126  11.407  0.4101 -2.0003 -0.3096
29507SOL     OW95381   5.119   2.511   7.830 -0.1710 -0.2620  0.3542
29507SOL    HW195382   5.203   2.486   7.790 -1.2498 -4.4945  0.2864
29507SOL    HW295383   5.115   2.460   7.911 -2.7955 -0.4891  0.1681
29508SOL     OW95384   2.248   5.611   9.256 -0.1837  0.3953 -0.0635
29508SOL    HW195385   2.244   5.557   9.335  0.7648 -1.1396 -1.0065
29508SOL    HW295386   2.337   5.647   9.255 -0.3064  0.7067 -0.2490
29509SOL     OW95387   6.210   0.454   9.458  0.4756 -0.2180  0.1733
29509SOL    HW195388   6.210   0.430   9.550  1.0734 -0.7485  0.0393
29509SOL    HW295389   6.278   0.400   9.418 -0.6365 -0.9429 -0.8265
29510SOL     OW95390   8.631   3.713   4.333  0.0905  0.0583  0.2523
29510SOL    HW195391   8.579   3.793   4.346  0.3978  0.4960 -1.0703
29510SOL    HW295392   8.700   3.739   4.272  1.4510 -0.6989  1.4064
29511SOL     OW95393   0.824   0.043  10.726 -0.3572 -0.1818 -0.4796
29511SOL    HW195394   0.765   0.103  10.680  0.3351 -0.7418 -2.1586
29511SOL    HW295395   0.898   0.098  10.751 -0.7601  0.1388  0.0426
29512SOL     OW95396   6.933   1.509   2.146 -0.2229 -0.5244  0.4044
29512SOL    HW195397   7.025   1.490   2.163 -1.0981 -2.3228  4.2159
29512SOL    HW295398   6.915   1.588   2.197 -0.8118 -0.2170 -0.2603
29513SOL     OW95399   1.448   6.115   0.090  0.1534 -0.1977  0.4064
29513SOL    HW195400   1.413   6.088   0.005 -1.6105  0.2248  0.9484
29513SOL    HW295401   1.454   6.211   0.084  1.2637 -0.2636  0.3270
29514SOL     OW95402   9.980   2.234   8.745  0.6294  0.0872  0.4741
29514SOL    HW195403   9.922   2.295   8.791  0.7440  0.2948  0.3460
29514SOL    HW295404  10.061   2.284   8.731  0.3554  0.2618 -0.5645
29515SOL     OW95405   7.136   3.701  10.967 -0.1445  0.2744 -0.0399
29515SOL    HW195406   7.229   3.706  10.946 -0.1136  0.7519  0.1950
29515SOL    HW295407   7.097   3.655  10.893  0.0946  1.1611 -0.7366
29516SOL     OW95408   1.835   9.687   9.601 -0.2291  0.3711  0.3638
29516SOL    HW195409   1.852   9.765   9.548 -2.8743  0.0697 -1.0954
29516SOL    HW295410   1.779   9.718   9.672  0.3799  0.1287  0.9596
29517SOL     OW95411   6.773   2.770  10.233 -0.0327  0.1216 -0.0718
29517SOL    HW195412   6.804   2.681  10.215  1.7563  0.6794  0.0905
29517SOL    HW295413   6.809   2.823  10.162 -0.4216  0.8481  0.2623
29518SOL     OW95414   3.485   5.892   6.472 -0.3306  0.1036  0.6771
29518SOL    HW195415   3.422   5.825   6.498  0.1481 -0.6330 -0.0488
29518SOL    HW295416   3.434   5.973   6.472 -0.6416 -0.0464  2.6914
29519SOL     OW95417   7.670   6.232   6.708 -0.4477 -0.3368 -0.3178
29519SOL    HW195418   7.750   6.236   6.656  1.1146 -1.5037  1.8366
29519SOL    HW295419   7.637   6.144   6.693 -1.0666 -0.0296 -0.7956
29520SOL     OW95420   5.927   0.955   5.392  0.3740  0.2546  0.5422
29520SOL    HW195421   5.997   0.992   5.446 -0.5998  1.0872  1.2726
29520SOL    HW295422   5.973   0.906   5.324  1.7287  2.1479 -0.0010
29521SOL     OW95423   0.356   7.302  10.751  0.1791  0.2705 -0.5302
29521SOL    HW195424   0.336   7.237  10.685  2.3310 -2.0380  0.9019
29521SOL    HW295425   0.277   7.307  10.805 -0.5600  0.0551 -1.5685
29522SOL     OW95426   8.098   3.064   0.330  0.1900 -0.0332 -0.6947
29522SOL    HW195427   8.171   3.094   0.275 -0.1267 -0.0095 -1.1049
29522SOL    HW295428   8.088   2.971   0.309  0.7012 -0.2693  0.0471
29523SOL     OW95429   0.549   9.560  10.367 -0.2612  0.1434 -0.2140
29523SOL    HW195430   0.465   9.563  10.412 -0.1027 -1.4872  0.2657
29523SOL    HW295431   0.564   9.467  10.350 -0.6280  0.6239 -4.3078
29524SOL     OW95432   8.429  12.145   8.967  0.2413 -0.5022  0.2436
29524SOL    HW195433   8.395  12.234   8.971  0.2779 -0.4930  0.3375
29524SOL    HW295434   8.380  12.104   8.895  1.2299  0.0198 -0.7568
29525SOL     OW95435   5.692   0.519   9.104 -0.0402  0.3578 -0.2639
29525SOL    HW195436   5.661   0.486   9.188 -0.2901 -0.4238 -0.6492
29525SOL    HW295437   5.752   0.452   9.073 -2.0763 -0.8068 -1.9912
29526SOL     OW95438   6.016   4.801   4.421  0.2235  0.7352 -0.5620
29526SOL    HW195439   6.067   4.803   4.340 -1.0673  1.8195 -1.3976
29526SOL    HW295440   6.066   4.853   4.483  1.8204 -1.0763 -0.2373
29527SOL     OW95441   7.985   1.142   4.909  0.0549  0.0579 -0.0094
29527SOL    HW195442   8.068   1.094   4.904  0.7623  1.1669  0.7990
29527SOL    HW295443   7.923   1.086   4.862  1.7021  0.2010 -2.5596
29528SOL     OW95444   7.510   9.492  11.090 -0.0179 -0.6036  0.3581
29528SOL    HW195445   7.502   9.536  11.005 -2.3216 -1.4829  0.0576
29528SOL    HW295446   7.604   9.473  11.097  0.3128 -0.1190 -1.7819
29529SOL     OW95447   4.327   6.404   6.882 -0.0230  0.0353  0.2134
29529SOL    HW195448   4.345   6.427   6.973  0.1761 -1.6071  0.6227
29529SOL    HW295449   4.280   6.479   6.847 -0.2320  0.6349  1.7061
29530SOL     OW95450   6.491   5.198   9.950 -0.2226 -0.1027 -0.5393
29530SOL    HW195451   6.584   5.175   9.957 -0.3275 -0.4593 -0.3297
29530SOL    HW295452   6.462   5.208  10.040 -0.2267  0.6731 -0.6188
29531SOL     OW95453   7.954   4.353   7.899  0.5565 -0.0474  0.4511
29531SOL    HW195454   7.924   4.365   7.809  0.5590  0.3232  0.4969
29531SOL    HW295455   7.988   4.264   7.902 -0.4181 -0.4359  0.3573
29532SOL     OW95456   1.095   9.956  12.274 -0.2826  0.0787 -0.5138
29532SOL    HW195457   1.027   9.952  12.341 -0.3629  0.7322 -0.5552
29532SOL    HW295458   1.103   9.866  12.243 -0.3336 -0.2095  0.2823
29533SOL     OW95459  11.409   7.203   9.213 -0.0101 -0.4809 -0.2759
29533SOL    HW195460  11.399   7.287   9.168  1.6503 -0.2283 -0.2300
29533SOL    HW295461  11.354   7.210   9.290 -0.7415  0.1402 -0.8382
29534SOL     OW95462   7.606   3.679   9.265 -0.2106  0.0820 -0.1867
29534SOL    HW195463   7.545   3.737   9.311  1.1951 -0.9005  3.1853
29534SOL    HW295464   7.687   3.731   9.257  0.4399 -0.6730  1.1203
29535SOL     OW95465   5.134  10.524   9.565  0.8119 -0.0097 -0.4294
29535SOL    HW195466   5.172  10.610   9.577  1.4325 -0.5363  1.9147
29535SOL    HW295467   5.084  10.508   9.645 -1.5858 -0.7460 -1.9433
29536SOL     OW95468   4.853   7.734   0.686  0.4210 -0.1947 -0.0911
29536SOL    HW195469   4.835   7.680   0.609  0.8427 -0.9585  0.3457
29536SOL    HW295470   4.874   7.820   0.650 -2.6033  0.4042 -0.7240
29537SOL     OW95471   6.921   9.991   6.545 -0.2873 -0.3298  0.4999
29537SOL    HW195472   6.983   9.973   6.474  1.4284  2.3972  1.1470
29537SOL    HW295473   6.835   9.988   6.504  0.5908  0.2560 -1.5216
29538SOL     OW95474   8.626  11.914  11.595  0.0418  0.0545 -0.2169
29538SOL    HW195475   8.700  11.890  11.539  0.7010  1.4171  0.0237
29538SOL    HW295476   8.609  11.836  11.647 -0.9216 -1.4681 -2.6094
29539SOL     OW95477   6.889  11.984   1.870  0.1429 -0.5483 -0.1240
29539SOL    HW195478   6.823  11.921   1.841 -0.9284  0.5917 -0.2528
29539SOL    HW295479   6.937  12.008   1.790 -0.7050  0.2048 -0.4200
29540SOL     OW95480   8.926   2.288   0.922 -0.1212 -0.1414 -0.2557
29540SOL    HW195481   8.969   2.209   0.889  1.4886  0.7657 -0.4102
29540SOL    HW295482   8.992   2.330   0.977 -1.5569  0.2192  1.2754
29541SOL     OW95483   5.335   8.960  12.243  0.1307  0.1409  0.4476
29541SOL    HW195484   5.394   9.009  12.184  0.9646 -1.9743 -0.5957
29541SOL    HW295485   5.259   9.016  12.253  1.7860  2.4633  0.8594
29542SOL     OW95486   1.511   7.177   4.553 -0.0778 -0.5376  1.1494
29542SOL    HW195487   1.418   7.184   4.530 -0.0882 -1.2006  0.9667
29542SOL    HW295488   1.557   7.185   4.469  0.0232 -0.3625  1.2214
29543SOL     OW95489  11.473  10.544   5.706 -0.5609  1.0255 -0.6190
29543SOL    HW195490  11.540  10.518   5.642  1.3332 -0.1881  1.7039
29543SOL    HW295491  11.402  10.481   5.693 -0.1064  0.6422 -1.3546
29544SOL     OW95492   2.994   1.561   0.303 -0.3438  0.2313 -0.2649
29544SOL    HW195493   3.011   1.493   0.368 -1.2675 -1.1952 -1.4606
29544SOL    HW295494   3.066   1.554   0.241 -0.3688  0.4533 -0.3211
29545SOL     OW95495   1.035   8.585   7.725  0.5559  0.3215 -0.1947
29545SOL    HW195496   1.075   8.569   7.639  1.5891  0.6839  0.2081
29545SOL    HW295497   1.081   8.661   7.759  0.7075 -0.2908  1.0169
29546SOL     OW95498   4.940   4.396   9.136 -0.1138 -0.6078 -0.2317
29546SOL    HW195499   4.907   4.485   9.149 -1.7132 -1.3761  1.1514
29546SOL    HW295500   4.913   4.374   9.047 -0.0070  0.1498 -0.4630
29547SOL     OW95501   0.285  10.993  11.881 -0.3261  0.2711 -0.2787
29547SOL    HW195502   0.202  11.002  11.833 -1.1461 -0.9969  0.8124
29547SOL    HW295503   0.302  11.081  11.914 -1.4233  0.5016 -0.2622
29548SOL     OW95504   8.666   2.624   3.657  0.3461 -0.5158 -0.4852
29548SOL    HW195505   8.731   2.555   3.667  0.8659  0.0528  0.2013
29548SOL    HW295506   8.711   2.704   3.685 -0.5737 -0.0695 -0.2189
29549SOL     OW95507   6.966  10.534   5.052  0.7668  0.1273 -0.1954
29549SOL    HW195508   6.939  10.459   5.106  3.2905 -1.0717 -0.4520
29549SOL    HW295509   7.024  10.585   5.108 -0.1197  1.3566 -0.3684
29550SOL     OW95510   1.435   7.176   1.180  0.0765  0.0583  0.0982
29550SOL    HW195511   1.434   7.080   1.171  4.4047 -0.2153  0.5562
29550SOL    HW295512   1.459   7.208   1.093  0.4811  0.5654  0.3922
29551SOL     OW95513   6.384   9.783   9.034  0.5763 -0.9116 -0.0453
29551SOL    HW195514   6.333   9.766   9.114 -1.3282 -0.9868 -1.2103
29551SOL    HW295515   6.399   9.878   9.036 -0.5460 -0.7067 -0.1599
29552SOL     OW95516   5.419  12.455   3.659  0.1855 -0.3116  0.2901
29552SOL    HW195517   5.353  12.469   3.726  0.8672  0.5071  0.8100
29552SOL    HW295518   5.451  12.366   3.675 -1.4489 -1.1014 -0.5915
29553SOL     OW95519   2.466  10.368   3.492  1.1280  0.4103 -0.0263
29553SOL    HW195520   2.451  10.403   3.404 -0.4151 -0.9844 -0.3601
29553SOL    HW295521   2.419  10.428   3.550  2.2478  1.4013 -0.0948
29554SOL     OW95522   7.918   4.469   6.369 -0.2747 -0.3334 -0.2618
29554SOL    HW195523   7.989   4.532   6.355  0.9200 -1.5558  0.0255
29554SOL    HW295524   7.858   4.484   6.297  0.2656  0.7495 -0.5106
29555SOL     OW95525   2.910   5.224  11.146 -0.3201  0.2561 -0.0043
29555SOL    HW195526   3.002   5.249  11.146 -0.9136  2.6175 -0.5833
29555SOL    HW295527   2.896   5.182  11.061 -0.1375  1.3772 -0.5980
29556SOL     OW95528  11.379   4.695   3.557 -0.5574  0.4132  0.0165
29556SOL    HW195529  11.473   4.710   3.564 -0.2397 -1.8680  1.8520
29556SOL    HW295530  11.341   4.753   3.623 -0.5092  1.4657 -0.8462
29557SOL     OW95531   4.587   6.032   8.160  0.3515  0.2946  0.1297
29557SOL    HW195532   4.526   6.092   8.118  1.1011  0.4603 -0.7666
29557SOL    HW295533   4.583   6.055   8.253  1.2020  2.3034 -0.2646
29558SOL     OW95534   3.612   2.107  12.032 -0.5175  0.8266 -0.3637
29558SOL    HW195535   3.584   2.067  11.950 -1.0432  2.6892 -1.1415
29558SOL    HW295536   3.540   2.164  12.057  0.0220  0.9757  0.9070
29559SOL     OW95537  10.635  10.327   8.997  0.2137  0.2287 -0.0472
29559SOL    HW195538  10.600  10.328   9.086 -1.8454 -1.4167 -0.7473
29559SOL    HW295539  10.584  10.392   8.950 -0.0702 -0.2738 -0.4517
29560SOL     OW95540   5.297   1.686   0.876 -0.2302 -0.1754 -0.2517
29560SOL    HW195541   5.250   1.678   0.793 -0.8012 -1.3810  0.1683
29560SOL    HW295542   5.291   1.599   0.915 -0.2595  0.4611  1.2118
29561SOL     OW95543  11.142   9.682  10.826 -0.6497  0.4816 -0.1982
29561SOL    HW195544  11.114   9.763  10.868 -2.2244  0.5889 -1.3302
29561SOL    HW295545  11.134   9.700  10.732 -2.1939 -1.3235 -0.4777
29562SOL     OW95546   2.448   4.706   8.237  0.0692 -0.3869 -0.1430
29562SOL    HW195547   2.493   4.786   8.265 -1.5286  0.5141  0.0013
29562SOL    HW295548   2.510   4.663   8.178  2.2246 -0.6666  2.1362
29563SOL     OW95549   9.641   5.584   2.144 -0.1490  0.2331  0.3709
29563SOL    HW195550   9.555   5.546   2.126 -0.2486  0.6750 -0.1076
29563SOL    HW295551   9.626   5.646   2.215 -0.1074 -0.1245  0.6983
29564SOL     OW95552   2.719   2.435   2.919  0.3508  0.1043  0.5442
29564SOL    HW195553   2.809   2.457   2.898 -0.0421  0.8889 -0.4143
29564SOL    HW295554   2.677   2.520   2.938 -0.4007 -0.1384  0.0319
29565SOL     OW95555   4.335   1.794   0.942 -0.0780  0.1700  0.0879
29565SOL    HW195556   4.394   1.815   1.015  0.7708 -0.3554 -0.4233
29565SOL    HW295557   4.342   1.869   0.883 -0.0270  0.1689  0.0926
29566SOL     OW95558   1.005  11.858   9.418  0.3427  0.0856 -0.5670
29566SOL    HW195559   1.067  11.930   9.400  0.1525  0.3318 -0.2535
29566SOL    HW295560   0.939  11.898   9.475 -1.1400  0.3494 -2.3589
29567SOL     OW95561   7.221  12.317   3.797  0.2338  0.0003 -0.6901
29567SOL    HW195562   7.143  12.272   3.831  0.5641 -0.3319 -0.3571
29567SOL    HW295563   7.292  12.253   3.808  0.7569  0.6764  0.0058
29568SOL     OW95564   8.297   3.655   2.586 -0.4512 -0.6650 -0.4941
29568SOL    HW195565   8.266   3.586   2.644  2.0101 -0.8191  0.7888
29568SOL    HW295566   8.354   3.709   2.641 -0.9941  1.4545 -1.8656
29569SOL     OW95567   8.395   4.145  10.875  0.1986  0.2488 -0.2732
29569SOL    HW195568   8.365   4.183  10.793  0.0781  1.1134  0.1626
29569SOL    HW295569   8.366   4.054  10.871  1.3054 -0.0807 -1.7373
29570SOL     OW95570   4.255  10.208   1.347 -0.2036  0.4335  0.2088
29570SOL    HW195571   4.336  10.222   1.396  0.2126 -1.4368  0.1362
29570SOL    HW295572   4.272  10.248   1.262  0.7186 -0.0821  0.1354
29571SOL     OW95573  11.723  10.887   5.810 -0.0812  0.2053 -0.1654
29571SOL    HW195574  11.743  10.849   5.896 -2.5037 -1.5716 -0.2835
29571SOL    HW295575  11.628  10.900   5.812 -0.0256  1.1543 -2.1981
29572SOL     OW95576   7.845   2.241   9.989 -0.2827 -0.2640 -0.0211
29572SOL    HW195577   7.908   2.178  10.025 -0.5115 -0.3644  0.2009
29572SOL    HW295578   7.897   2.320   9.974  0.4881 -1.0977 -2.2057
29573SOL     OW95579  11.546   7.025   3.378  0.1088  0.6228 -0.5332
29573SOL    HW195580  11.623   6.968   3.373  1.1270  1.9802 -0.8399
29573SOL    HW295581  11.473   6.968   3.354  1.1554 -0.4219 -1.3864
29574SOL     OW95582   0.267  12.359   1.122 -0.1932  0.3717  0.1053
29574SOL    HW195583   0.193  12.327   1.070  0.0739  0.0427 -0.0726
29574SOL    HW295584   0.240  12.345   1.213 -1.2929  2.3190  0.1450
29575SOL     OW95585   7.079   6.430   8.833  0.0090 -0.0040 -0.6629
29575SOL    HW195586   6.999   6.411   8.784 -1.0437 -0.6806  1.2012
29575SOL    HW295587   7.103   6.519   8.806 -3.3416  1.6543  1.1198
29576SOL     OW95588   2.828   7.393   2.790  0.2662 -0.2097  0.2783
29576SOL    HW195589   2.902   7.443   2.756  1.2323 -2.2681 -0.8683
29576SOL    HW295590   2.833   7.309   2.744 -2.9740 -0.3347 -0.0532
29577SOL     OW95591  10.801   1.623   8.041 -0.4005  0.4903  0.2106
29577SOL    HW195592  10.773   1.541   8.081  0.5719 -0.2642 -0.6074
29577SOL    HW295593  10.859   1.597   7.970  2.2085  1.9442  1.6436
29578SOL     OW95594   0.426   3.047   2.351  0.3225  0.0943 -0.2556
29578SOL    HW195595   0.453   3.135   2.324 -1.6234  1.0368  0.7055
29578SOL    HW295596   0.463   3.037   2.439 -1.2690  0.8876  0.5473
29579SOL     OW95597   9.150  11.737   2.732 -0.2050 -0.2287  0.0487
29579SOL    HW195598   9.244  11.750   2.718  0.0205 -0.5392  1.2023
29579SOL    HW295599   9.134  11.767   2.821 -1.1635 -0.3904 -0.0567
29580SOL     OW95600   6.440   7.832   1.547  0.2096 -0.1288  0.1001
29580SOL    HW195601   6.479   7.891   1.483  0.7581  0.7923  1.2369
29580SOL    HW295602   6.413   7.889   1.619 -0.5588 -1.1080  0.6170
29581SOL     OW95603  11.060   7.417   3.984  0.2629 -0.0231 -0.1572
29581SOL    HW195604  11.118   7.372   3.923  0.0881 -1.0791  0.4337
29581SOL    HW295605  10.978   7.368   3.979 -0.4705  1.2102 -0.6864
29582SOL     OW95606  11.170   8.105   8.331  0.4067  0.0096  0.4675
29582SOL    HW195607  11.076   8.123   8.327 -0.0476 -2.3116 -1.3591
29582SOL    HW295608  11.208   8.186   8.365 -2.0457  1.7116 -0.5361
29583SOL     OW95609  11.268   2.475   3.617  0.2066 -0.3565 -0.3938
29583SOL    HW195610  11.322   2.493   3.694  0.3676 -0.8381 -0.3920
29583SOL    HW295611  11.179   2.498   3.645  0.0893 -1.5913  0.3275
29584SOL     OW95612   4.422   2.547  11.935 -0.3344  0.1648 -1.0081
29584SOL    HW195613   4.471   2.605  11.994  0.1730 -0.9863 -0.2607
29584SOL    HW295614   4.346   2.599  11.909  1.0868  1.9162 -1.9713
29585SOL     OW95615  11.718   7.481   0.096 -0.0995  0.2662  0.5298
29585SOL    HW195616  11.642   7.445   0.050 -0.5288  0.6254  0.9568
29585SOL    HW295617  11.711   7.576   0.083  0.0703  0.3289  0.8879
29586SOL     OW95618  10.031   9.479   0.860  0.2081 -0.3288  0.4527
29586SOL    HW195619  10.075   9.437   0.934 -0.0435 -0.5250  0.4897
29586SOL    HW295620  10.098   9.537   0.823  0.6654 -1.0005  0.1958
29587SOL     OW95621   9.240   4.373  11.643  0.3894 -0.2691  0.3770
29587SOL    HW195622   9.169   4.311  11.627 -1.1735  1.5697 -0.1898
29587SOL    HW295623   9.301   4.359  11.571  0.1310 -1.2415  0.3411
29588SOL     OW95624   1.772  10.281   2.348 -0.1934 -0.1230 -0.0233
29588SOL    HW195625   1.755  10.338   2.424 -1.3649  0.8259 -0.9524
29588SOL    HW295626   1.769  10.192   2.383 -2.0267  0.2315  0.8486
29589SOL     OW95627   9.849  11.285   1.913  0.2169  0.0804 -0.0982
29589SOL    HW195628   9.831  11.339   1.836 -2.9090 -1.8010 -0.8669
29589SOL    HW295629   9.870  11.348   1.981  4.0282  1.8079 -2.5262
29590SOL     OW95630   4.777   0.318  12.415  0.4335 -0.0150 -0.5072
29590SOL    HW195631   4.777   0.229  12.380  1.2876 -1.1989  2.2453
29590SOL    HW295632   4.869   0.339  12.427  0.1975  0.5811  0.3681
29591SOL     OW95633   3.037  11.445   7.931 -0.8535 -0.6997 -0.1621
29591SOL    HW195634   2.971  11.392   7.974  0.6193 -1.5414  1.1557
29591SOL    HW295635   3.120  11.412   7.965  0.2264  0.7030 -1.3228
29592SOL     OW95636  11.836  12.010   3.962  0.2018 -0.0670  0.1678
29592SOL    HW195637  11.773  12.007   4.033  0.2878 -0.7037  0.2155
29592SOL    HW295638  11.833  12.101   3.931  0.8051  0.4557  1.5579
29593SOL     OW95639   6.723   9.914   9.420 -0.0155 -0.6835  0.3217
29593SOL    HW195640   6.748   9.960   9.340  1.3642 -0.8981  0.6003
29593SOL    HW295641   6.796   9.929   9.480 -1.5030  0.4118  1.9569
29594SOL     OW95642   6.747   1.002  10.088 -0.6265  0.1207 -0.3699
29594SOL    HW195643   6.776   0.970  10.173  1.7767  1.5526 -0.5599
29594SOL    HW295644   6.743   0.924  10.033  1.2533 -0.4175  0.1687
29595SOL     OW95645   8.572   6.449   6.439  0.3855 -0.0984 -0.7624
29595SOL    HW195646   8.524   6.477   6.361 -1.8001 -0.3573  0.4115
29595SOL    HW295647   8.623   6.526   6.464 -1.9614  1.3959 -0.2359
29596SOL     OW95648   1.519   7.098   8.083  0.2649 -0.5862 -0.0166
29596SOL    HW195649   1.551   7.165   8.021 -0.0604 -0.8873 -0.5168
29596SOL    HW295650   1.488   7.148   8.158  0.0810 -0.1728 -0.3620
29597SOL     OW95651   1.018  11.158   6.816  0.0897 -0.0749  0.6967
29597SOL    HW195652   1.101  11.135   6.859  1.2235  2.1440 -0.1226
29597SOL    HW295653   1.007  11.091   6.748  1.2630 -0.3441  0.7494
29598SOL     OW95654   7.235   2.817   3.202 -0.2668  0.7134 -0.1162
29598SOL    HW195655   7.316   2.769   3.218 -0.7120  0.1031  0.3642
29598SOL    HW295656   7.183   2.758   3.147  0.5937  2.1167 -2.5921
29599SOL     OW95657  10.452   9.447   1.834  0.3199 -0.0186  0.0657
29599SOL    HW195658  10.508   9.522   1.850  2.8158 -1.7971  0.1917
29599SOL    HW295659  10.426   9.417   1.921 -0.2807  0.3925  0.0332
29600SOL     OW95660   7.316   0.595   3.353  0.0724 -0.7112  0.0526
29600SOL    HW195661   7.306   0.690   3.353 -0.4716 -0.7639 -0.7404
29600SOL    HW295662   7.227   0.561   3.357  0.1300 -1.1802 -1.8549
29601SOL     OW95663   2.629  12.059  10.249  0.0103  0.1785  0.5117
29601SOL    HW195664   2.588  11.989  10.299  1.5043 -0.9927  0.1786
29601SOL    HW295665   2.607  12.041  10.158  1.4242 -0.6461  0.2951
29602SOL     OW95666   9.859   9.487   7.827  0.3102  0.3570  0.3585
29602SOL    HW195667   9.906   9.470   7.745 -0.8814  0.3429 -0.3549
29602SOL    HW295668   9.794   9.553   7.804 -0.0978  0.2942  1.2842
29603SOL     OW95669  10.787   9.888   8.634  0.2020  0.3614 -0.3912
29603SOL    HW195670  10.732   9.870   8.710  0.8427 -0.1991 -0.0558
29603SOL    HW295671  10.730   9.869   8.559 -0.6965  1.6770 -0.0897
29604SOL     OW95672  10.795   3.729   6.042 -0.0389 -0.4682 -0.4467
29604SOL    HW195673  10.804   3.813   5.998 -1.2182  0.0085  0.1643
29604SOL    HW295674  10.763   3.670   5.973 -0.7567 -0.0130 -0.5161
29605SOL     OW95675  11.821  10.225  11.797 -0.0017 -0.3808 -0.0498
29605SOL    HW195676  11.835  10.135  11.826  2.2270 -1.0017 -2.6930
29605SOL    HW295677  11.893  10.275  11.837 -1.0013  0.2173  1.0843
29606SOL     OW95678   8.480   1.058   0.675 -0.1408 -0.5825  0.8553
29606SOL    HW195679   8.556   1.062   0.617 -0.6503 -0.4443  0.1803
29606SOL    HW295680   8.516   1.072   0.762  0.8849 -2.5945  0.8131
29607SOL     OW95681   0.550   0.734   5.796 -0.0751  0.4068 -0.0975
29607SOL    HW195682   0.551   0.670   5.725 -1.1205 -0.0416  0.2672
29607SOL    HW295683   0.460   0.767   5.797  0.6426  2.5387 -0.8314
29608SOL     OW95684   8.297  10.071   9.810 -0.1457 -0.1321  0.1036
29608SOL    HW195685   8.215  10.119   9.810  0.5327  1.2051  2.3887
29608SOL    HW295686   8.343  10.101   9.732 -1.2598  0.0786 -0.4964
29609SOL     OW95687   5.711   0.299  11.877  0.4277 -0.2298 -0.2586
29609SOL    HW195688   5.711   0.207  11.850  1.5557  0.1265 -1.6321
29609SOL    HW295689   5.631   0.335  11.840 -1.2569 -1.1412  2.2926
29610SOL     OW95690   0.236   5.610   1.115  0.2323 -0.0794 -0.4901
29610SOL    HW195691   0.150   5.635   1.150  1.1016 -1.4487  2.9671
29610SOL    HW295692   0.218   5.532   1.062 -0.6532 -0.4718  0.3482
29611SOL     OW95693   8.426   3.934   8.585  0.4209  0.0672  0.5759
29611SOL    HW195694   8.331   3.946   8.587  0.0703 -2.0305 -0.5245
29611SOL    HW295695   8.455   3.957   8.673 -1.5658 -2.1840  1.9275
29612SOL     OW95696   6.728   2.233   3.516  0.0855 -0.4779 -0.5879
29612SOL    HW195697   6.734   2.269   3.428  0.6253 -1.7175 -1.0803
29612SOL    HW295698   6.642   2.192   3.520 -0.8507  1.4708  0.2363
29613SOL     OW95699  10.765  11.558  12.136  0.3848  0.4764 -0.8247
29613SOL    HW195700  10.817  11.571  12.056 -0.7878  0.4369 -1.6209
29613SOL    HW295701  10.768  11.643  12.180 -0.8203  1.2118 -2.0829
29614SOL     OW95702   3.432  12.365  11.489  0.2709 -0.0324  0.0703
29614SOL    HW195703   3.484  12.432  11.443  0.4923  0.5503  1.1179
29614SOL    HW295704   3.459  12.374  11.580 -1.3919  0.0083  0.5792
29615SOL     OW95705   6.740   6.514   1.529 -0.6374 -0.5133  0.1265
29615SOL    HW195706   6.816   6.483   1.577 -0.2057  0.0309 -0.1879
29615SOL    HW295707   6.690   6.435   1.507 -0.8944 -0.7643  1.5412
29616SOL     OW95708   0.587   3.610   0.952 -0.5797  0.2804  0.1963
29616SOL    HW195709   0.638   3.662   0.890 -0.7062 -0.4291 -0.5246
29616SOL    HW295710   0.606   3.649   1.038  0.7927  0.3468 -0.1105
29617SOL     OW95711  10.452   5.968   3.939 -0.2508 -0.0093 -0.0050
29617SOL    HW195712  10.454   5.993   3.847  0.0057 -1.8030 -0.5198
29617SOL    HW295713  10.404   6.039   3.982 -0.6147  0.7223 -1.5552
29618SOL     OW95714   6.716   2.778   9.895  0.3447  0.6488  0.0625
29618SOL    HW195715   6.652   2.781   9.824 -0.1963  1.6268  0.5647
29618SOL    HW295716   6.697   2.696   9.941  1.7273 -0.8123 -1.8073
29619SOL     OW95717   9.986   5.332   5.887  0.0357  0.3838 -0.2979
29619SOL    HW195718   9.913   5.384   5.922  0.8612  1.5606 -0.2529
29619SOL    HW295719  10.063   5.387   5.902  1.2013 -1.5501  1.2486
29620SOL     OW95720   6.664  10.697  10.207  0.2017 -0.0483 -0.1641
29620SOL    HW195721   6.615  10.750  10.144 -1.1963  0.3145  1.1613
29620SOL    HW295722   6.741  10.749  10.229 -1.6600  2.0797  1.9246
29621SOL     OW95723   2.397   3.471  12.203 -0.2576  0.4839  0.1738
29621SOL    HW195724   2.388   3.403  12.136 -0.9235  0.4865  0.2528
29621SOL    HW295725   2.477   3.518  12.180  0.2185 -0.3324  0.1232
29622SOL     OW95726   4.511  10.481   6.507  0.0220 -0.3449  0.2178
29622SOL    HW195727   4.527  10.526   6.590  0.8492  0.7682 -0.5122
29622SOL    HW295728   4.434  10.524   6.471  1.8541  1.8668 -1.3349
29623SOL     OW95729   4.682   1.907   3.467 -0.3036  0.2687  0.1141
29623SOL    HW195730   4.616   1.860   3.517 -0.6378  0.9695  0.3423
29623SOL    HW295731   4.761   1.902   3.521 -0.5608  0.6918  0.5379
29624SOL     OW95732   9.500   0.053   4.403 -0.1871  0.5242  0.2437
29624SOL    HW195733   9.509   0.125   4.466  1.0920  1.2099 -0.6725
29624SOL    HW295734   9.406   0.039   4.396 -0.3773  0.4473  2.2591
29625SOL     OW95735   6.780   2.175   0.217  0.4541  0.3658  0.1021
29625SOL    HW195736   6.797   2.170   0.311  1.1666 -0.1352 -0.0452
29625SOL    HW295737   6.866   2.167   0.176  0.0916 -0.0080 -0.6138
29626SOL     OW95738  10.524  10.601  10.039 -0.0720  0.2653  0.4245
29626SOL    HW195739  10.532  10.655  10.118  0.8302  0.7707  0.0050
29626SOL    HW295740  10.437  10.621  10.005 -0.2061  0.5585  0.9280
29627SOL     OW95741   6.778   0.804  11.415 -0.3598 -0.0411 -0.1158
29627SOL    HW195742   6.777   0.878  11.475 -1.0774  1.8647 -2.3547
29627SOL    HW295743   6.695   0.809  11.368  0.2099 -1.3579 -1.3615
29628SOL     OW95744   5.847   4.246   7.125 -0.2162  0.8833 -0.5851
29628SOL    HW195745   5.796   4.197   7.062 -1.1033  1.7308 -0.5413
29628SOL    HW295746   5.937   4.239   7.093 -0.5994  0.9751 -1.7147
29629SOL     OW95747  10.321  11.149   7.893 -0.3229  0.0227 -0.7284
29629SOL    HW195748  10.228  11.128   7.905 -0.4558  0.9279 -0.0879
29629SOL    HW295749  10.322  11.242   7.870  0.5717  0.7381  1.9250
29630SOL     OW95750  10.865  10.452   5.010 -0.6435 -0.1425 -0.0050
29630SOL    HW195751  10.901  10.444   4.921  1.4570 -1.7237  0.8894
29630SOL    HW295752  10.771  10.434   5.000 -0.5602  0.3184 -1.9684
29631SOL     OW95753   7.062  10.655   6.457 -0.3152 -0.6318  0.3145
29631SOL    HW195754   7.028  10.735   6.497 -0.1939 -0.7849  0.7324
29631SOL    HW295755   7.154  10.652   6.483 -0.1522 -0.5772 -0.2342
29632SOL     OW95756   4.462  10.147   8.179 -0.2070 -0.3372  0.3193
29632SOL    HW195757   4.373  10.120   8.202  0.3524 -1.6165  1.1462
29632SOL    HW295758   4.500  10.070   8.139  0.5999  0.1321  0.1717
29633SOL     OW95759   8.853   0.689  10.393  0.5126 -0.0769 -0.1550
29633SOL    HW195760   8.877   0.641  10.472  1.0870 -0.0505 -0.3064
29633SOL    HW295761   8.877   0.779  10.412  1.8680 -0.2657 -0.8190
29634SOL     OW95762   1.094   8.508   2.709 -0.0480  0.7376  0.5364
29634SOL    HW195763   1.057   8.597   2.705 -2.7342 -0.3323 -1.7705
29634SOL    HW295764   1.058   8.464   2.632  0.4965 -2.6327  2.0358
29635SOL     OW95765  11.615   8.376  11.604  0.1247  0.0667 -0.1079
29635SOL    HW195766  11.598   8.457  11.556  0.7260 -1.0961 -2.4446
29635SOL    HW295767  11.562   8.383  11.683 -1.8843  1.6062 -1.4882
29636SOL     OW95768   8.065  11.226   5.014  0.0356 -0.1268  0.8059
29636SOL    HW195769   8.060  11.312   4.972  0.8776  0.9770  2.7948
29636SOL    HW295770   8.156  11.199   5.003 -0.3058 -0.9511 -0.1019
29637SOL     OW95771   8.136   6.317   5.479  0.6205 -0.5438 -0.3193
29637SOL    HW195772   8.093   6.393   5.517  1.0281 -0.0544 -0.8147
29637SOL    HW295773   8.160   6.262   5.554 -1.5858 -1.2572 -0.0636
29638SOL     OW95774   9.371   2.933  12.198 -0.2696 -0.0184 -0.6699
29638SOL    HW195775   9.354   2.851  12.246  1.1496 -1.5804 -2.6541
29638SOL    HW295776   9.438   2.977  12.249 -1.3040  0.1187  0.6198
29639SOL     OW95777  12.405   3.454   7.422 -0.8831 -0.5341  0.4985
29639SOL    HW195778  12.410   3.439   7.517  0.1536 -0.5800  0.4514
29639SOL    HW295779  12.359   3.537   7.414 -3.1235 -1.6689  0.9281
29640SOL     OW95780   4.558   5.964  12.153  0.0482  0.0831 -0.0801
29640SOL    HW195781   4.476   5.926  12.123 -1.0792  2.8145 -0.7612
29640SOL    HW295782   4.579   5.916  12.233 -0.7480 -2.4567 -1.2600
29641SOL     OW95783   0.964   0.557   9.762  0.2090 -0.4789  0.3015
29641SOL    HW195784   0.917   0.636   9.737 -0.6058 -1.5229 -1.8079
29641SOL    HW295785   1.047   0.587   9.798 -1.1673  1.3643  2.1235
29642SOL     OW95786  10.210   8.047  11.169 -0.0967  0.0566  0.5308
29642SOL    HW195787  10.206   7.975  11.106  0.6971  2.7616 -2.9595
29642SOL    HW295788  10.295   8.038  11.211 -0.6387 -1.8224  1.3257
29643SOL     OW95789   1.123  10.999   6.462  0.1522 -0.5835  0.2505
29643SOL    HW195790   1.199  10.958   6.421 -0.5890 -1.6004 -0.1566
29643SOL    HW295791   1.079  11.044   6.390 -0.3488 -1.1247  0.2136
29644SOL     OW95792   1.557  11.761  10.262 -0.0439 -0.2501  0.4282
29644SOL    HW195793   1.599  11.779  10.346 -1.4625 -1.1178  1.3831
29644SOL    HW295794   1.562  11.666  10.253 -1.9601 -0.4160  0.7107
29645SOL     OW95795   2.474   2.921  12.407  0.1315  0.3011 -0.0668
29645SOL    HW195796   2.394   2.955  12.447 -0.8226  0.5964 -2.1362
29645SOL    HW295797   2.514   2.868  12.476 -1.7857  0.2190  1.0487
29646SOL     OW95798   4.946  11.681  11.902  0.5112  0.0242  0.0153
29646SOL    HW195799   4.941  11.625  11.979 -0.6420  1.1321  0.7785
29646SOL    HW295800   4.944  11.620  11.828  0.0075 -0.9752  0.8323
29647SOL     OW95801   0.780   7.303  11.312 -0.4337 -0.7800  0.1832
29647SOL    HW195802   0.783   7.365  11.385 -0.3027 -1.2029  0.5369
29647SOL    HW295803   0.771   7.358  11.234  0.5419 -0.2701  0.4186
29648SOL     OW95804   4.752  11.439  11.121  0.3940 -0.2472  0.6245
29648SOL    HW195805   4.781  11.518  11.076  2.3675 -0.8009  0.8473
29648SOL    HW295806   4.694  11.470  11.191  0.4571  0.9125  0.1717
29649SOL     OW95807   3.500   6.157   3.913 -0.1253  0.1874  0.3352
29649SOL    HW195808   3.487   6.240   3.867 -1.3433  0.3721  0.9785
29649SOL    HW295809   3.441   6.096   3.868  0.8871 -0.4004 -0.2480
29650SOL     OW95810   6.499   9.082   0.302 -0.3354 -0.4735  0.1375
29650SOL    HW195811   6.562   9.012   0.286  0.5990  0.6160 -1.1801
29650SOL    HW295812   6.478   9.073   0.395  1.2160 -1.3361  0.4510
29651SOL     OW95813   7.434   4.776  11.152  0.2356  0.3478 -0.0820
29651SOL    HW195814   7.384   4.795  11.232 -0.5369  0.9303 -0.6958
29651SOL    HW295815   7.526   4.784  11.179 -0.0191  0.6089  0.7263
29652SOL     OW95816   5.256  10.903   2.497 -0.1236 -0.4368  0.3778
29652SOL    HW195817   5.274  10.897   2.403 -0.3774  0.0164  0.2951
29652SOL    HW295818   5.260  10.997   2.516  1.6534 -0.6476  1.1784
29653SOL     OW95819  12.388   9.881  10.009 -0.7291  0.9607 -0.0198
29653SOL    HW195820  12.365   9.898  10.101 -1.2205  0.1654  0.0085
29653SOL    HW295821  12.409   9.968   9.974 -1.2570  1.3717  0.6480
29654SOL     OW95822   0.357   4.648   4.557  0.3014 -0.0521  0.4933
29654SOL    HW195823   0.268   4.678   4.539  0.8474  1.7537  0.6199
29654SOL    HW295824   0.346   4.576   4.619 -1.1567 -1.1469 -0.9473
29655SOL     OW95825   3.427  10.004   6.246 -0.6463  0.1129 -1.2730
29655SOL    HW195826   3.495  10.064   6.276  0.3752 -0.7863 -1.6695
29655SOL    HW295827   3.347  10.055   6.246 -0.1758  0.9070  0.2724
29656SOL     OW95828  11.187   5.248   0.240 -0.1911  0.0538  1.0175
29656SOL    HW195829  11.281   5.254   0.258  0.4011 -1.9633 -0.9114
29656SOL    HW295830  11.156   5.338   0.244  1.8933  0.8133  1.3772
29657SOL     OW95831   8.362  11.932  10.994 -0.3249  0.3289  0.6901
29657SOL    HW195832   8.402  11.846  11.009 -0.2278  0.1863 -0.3183
29657SOL    HW295833   8.349  11.936  10.899  0.9295  1.9812  0.5405
29658SOL     OW95834  11.708   3.027   7.051 -0.4243  0.1558  0.4990
29658SOL    HW195835  11.748   3.093   7.108  1.2863 -0.8684  0.5775
29658SOL    HW295836  11.679   2.958   7.111  1.8587 -1.1695  0.2049
29659SOL     OW95837   1.608   9.304  10.342 -0.1056 -0.0066 -0.0758
29659SOL    HW195838   1.522   9.315  10.301 -0.0238 -0.5455 -0.4061
29659SOL    HW295839   1.642   9.221  10.306  1.0167  0.7337 -0.7981
29660SOL     OW95840   9.646   5.850   7.165 -0.5189 -0.0355  0.7391
29660SOL    HW195841   9.729   5.870   7.121 -0.1594  1.0136  1.8308
29660SOL    HW295842   9.581   5.902   7.119 -0.2181  0.7153  1.1358
29661SOL     OW95843   4.606   3.245   6.493 -0.3370 -0.2291  0.2528
29661SOL    HW195844   4.592   3.190   6.415  0.3857 -0.8561  0.5537
29661SOL    HW295845   4.697   3.272   6.487 -0.6405  0.8218  0.1997
29662SOL     OW95846  10.286   2.277   8.702  0.2770 -0.1801  0.1912
29662SOL    HW195847  10.310   2.192   8.664 -1.2597 -1.1246  1.2353
29662SOL    HW295848  10.344   2.286   8.778 -0.7905 -1.1911  1.1511
29663SOL     OW95849   7.262   7.107   3.218 -0.0283  0.3621 -0.3605
29663SOL    HW195850   7.329   7.040   3.204 -1.3179 -1.1103  0.2512
29663SOL    HW295851   7.244   7.103   3.312 -0.2677  1.4441 -0.3555
29664SOL     OW95852   7.973   1.618   9.096 -0.1326  0.2739  0.0576
29664SOL    HW195853   7.934   1.561   9.163 -2.2417 -0.7545 -1.9095
29664SOL    HW295854   7.898   1.654   9.049  1.2678  1.0638 -1.6719
29665SOL     OW95855   7.195   3.911   9.758  0.5794 -0.2680  0.7556
29665SOL    HW195856   7.240   3.898   9.841 -1.0955 -0.3640  1.6755
29665SOL    HW295857   7.191   4.006   9.747 -0.5351 -0.1988  1.5735
29666SOL     OW95858  10.676   7.110   6.017  0.0670 -0.1117 -0.8096
29666SOL    HW195859  10.719   7.132   5.935  0.3763 -0.4858 -0.7507
29666SOL    HW295860  10.637   7.023   6.002 -1.3686  0.5544 -1.1279
29667SOL     OW95861  11.659   0.885   4.553  0.1991  0.0836 -0.5853
29667SOL    HW195862  11.704   0.859   4.473 -0.6861  0.4181 -1.2091
29667SOL    HW295863  11.710   0.846   4.623  0.4464 -1.0246 -1.3574
29668SOL     OW95864   9.013   2.649   5.750 -0.6521 -0.3718  0.3303
29668SOL    HW195865   8.973   2.686   5.829  0.1347  2.1942 -0.3719
29668SOL    HW295866   8.949   2.584   5.720 -2.4384  0.7905  1.3784
29669SOL     OW95867   4.401  11.039   6.038 -0.3012  0.1432  0.1425
29669SOL    HW195868   4.392  11.114   6.098 -3.3313  0.7054 -0.8308
29669SOL    HW295869   4.337  10.976   6.070 -1.5061  0.1751 -2.0208
29670SOL     OW95870   9.164   2.949   4.260  0.4188 -0.2425 -0.0379
29670SOL    HW195871   9.077   2.923   4.289  0.3288 -0.2396 -0.3017
29670SOL    HW295872   9.156   2.959   4.165  0.5116  0.5326  0.0348
29671SOL     OW95873   9.531   1.039   5.094  0.1050  0.5038  0.0650
29671SOL    HW195874   9.524   1.086   5.177 -1.8531 -1.0768  0.8719
29671SOL    HW295875   9.477   1.090   5.033  2.2627  2.1730 -0.5872
29672SOL     OW95876   0.959   2.531  10.922 -0.3990 -0.0873 -0.5296
29672SOL    HW195877   0.970   2.444  10.885  0.4236 -0.6355  0.9480
29672SOL    HW295878   1.029   2.540  10.987 -0.1922  1.8417 -0.9435
29673SOL     OW95879   5.289   2.308   8.690 -0.6227 -0.5220 -0.3502
29673SOL    HW195880   5.314   2.327   8.599  0.3503 -0.3697 -0.0633
29673SOL    HW295881   5.219   2.370   8.709 -0.9534 -0.6673 -1.0455
29674SOL     OW95882   5.331  11.139   0.888 -0.2169 -0.1946  0.2386
29674SOL    HW195883   5.282  11.221   0.890 -0.5699 -0.4077  1.8243
29674SOL    HW295884   5.421  11.166   0.868 -0.0026  0.8195  2.2810
29675SOL     OW95885  10.040   8.773   6.261 -0.0673 -0.7689  0.1828
29675SOL    HW195886  10.048   8.864   6.230  0.5204 -0.6646  0.6468
29675SOL    HW295887   9.985   8.779   6.339 -0.3348 -0.8665  0.0074
29676SOL     OW95888   5.997  11.249  10.123 -0.3945 -0.0718  0.3354
29676SOL    HW195889   5.985  11.261  10.029  1.5326 -1.1232 -0.0972
29676SOL    HW295890   5.923  11.195  10.150 -1.8634  1.5689 -0.2176
29677SOL     OW95891   7.654   3.617   4.246  0.2736  0.3759 -0.4970
29677SOL    HW195892   7.695   3.694   4.206  1.3161  0.4788  0.6896
29677SOL    HW295893   7.727   3.570   4.286 -0.5554 -0.4133  0.1203
29678SOL     OW95894  10.318   3.967   1.046  0.2055  1.0969 -0.3551
29678SOL    HW195895  10.267   3.965   1.127  1.2733  1.4446  0.3543
29678SOL    HW295896  10.374   3.890   1.051  1.0034  1.6696 -0.2613
29679SOL     OW95897   5.317   4.586  11.171 -0.1702  0.4150 -0.1326
29679SOL    HW195898   5.300   4.580  11.265  0.8467 -0.8630 -0.0001
29679SOL    HW295899   5.412   4.586  11.164 -0.2361 -0.5103 -1.2054
29680SOL     OW95900   0.877   3.226   8.003 -0.8644  0.4358 -0.1618
29680SOL    HW195901   0.823   3.257   7.930 -2.0537 -1.2876 -0.0653
29680SOL    HW295902   0.892   3.134   7.984  0.9578  0.5580  0.5143
29681SOL     OW95903   9.674   3.982   9.046  0.0157  0.8534 -0.2007
29681SOL    HW195904   9.722   3.971   8.963 -1.2607 -3.2262 -0.6270
29681SOL    HW295905   9.604   4.044   9.025 -0.6561 -0.5543 -2.4595
29682SOL     OW95906   8.248   8.349   9.279  0.1556  0.2489 -0.1614
29682SOL    HW195907   8.158   8.332   9.252 -0.0008  0.1225  0.4251
29682SOL    HW295908   8.291   8.382   9.200 -0.5401  0.8027 -0.3170
29683SOL     OW95909  10.117   3.635   9.801 -0.5644 -0.0124 -0.1366
29683SOL    HW195910  10.199   3.639   9.850 -1.1460 -1.1261  0.9593
29683SOL    HW295911  10.069   3.562   9.840 -0.6224 -1.6695 -3.0685
29684SOL     OW95912  11.749   1.111   8.426 -0.2757 -0.1786 -0.1586
29684SOL    HW195913  11.831   1.063   8.415 -0.3499  0.1889 -2.8133
29684SOL    HW295914  11.684   1.059   8.379 -1.2125  0.4704  0.3809
29685SOL     OW95915   8.168   0.082   5.610 -0.1365  0.1669  0.4265
29685SOL    HW195916   8.090   0.123   5.647 -0.6850 -0.3698 -0.1096
29685SOL    HW295917   8.165  -0.008   5.641 -1.4915 -0.7813 -2.1305
29686SOL     OW95918   4.521   7.975   3.867  1.2278 -0.2191 -0.2789
29686SOL    HW195919   4.478   7.910   3.923  1.9850 -0.9654 -0.5551
29686SOL    HW295920   4.567   7.924   3.801  1.2708  0.6227 -0.9196
29687SOL     OW95921   0.131   7.336   6.849  0.2289 -0.3193  0.4903
29687SOL    HW195922   0.076   7.394   6.795  1.4089 -1.3607 -2.0084
29687SOL    HW295923   0.216   7.338   6.806  1.1422 -1.5448  2.1531
29688SOL     OW95924   7.431   7.031   8.315 -0.0063 -0.2693 -0.1658
29688SOL    HW195925   7.424   6.967   8.244  0.5443 -0.3221 -0.1789
29688SOL    HW295926   7.504   7.000   8.369  0.0789  0.1845 -0.0085
29689SOL     OW95927   4.292   9.212  10.854  0.2332 -0.5125  0.0546
29689SOL    HW195928   4.277   9.223  10.948 -0.2830  0.4281 -0.1273
29689SOL    HW295929   4.373   9.162  10.849 -0.2566 -1.4510  1.0110
29690SOL     OW95930  10.201   9.844  12.345 -0.1087  0.4050  0.7768
29690SOL    HW195931  10.251   9.898  12.285  0.1549  0.8284  1.3679
29690SOL    HW295932  10.242   9.758  12.340  0.3112  0.6001  0.8125
29691SOL     OW95933   4.264   9.972  10.537 -0.2513 -0.1321 -0.4767
29691SOL    HW195934   4.208   9.911  10.488 -0.7084 -0.4673  0.4351
29691SOL    HW295935   4.317   9.916  10.592 -1.2922  0.2918  1.0260
29692SOL     OW95936   7.106   4.660   6.424  0.4077  0.3409  0.4256
29692SOL    HW195937   7.174   4.681   6.360 -0.5002 -1.5699 -1.2942
29692SOL    HW295938   7.144   4.591   6.479  0.2077 -0.0892  0.0374
29693SOL     OW95939  11.939   7.316   1.331  0.5849  0.1868 -0.0573
29693SOL    HW195940  11.978   7.390   1.285  1.0501 -1.0141 -1.6962
29693SOL    HW295941  11.910   7.257   1.261 -0.9001 -0.6261  1.1735
29694SOL     OW95942   5.846   3.525  10.957 -0.7586  0.0787 -0.3261
29694SOL    HW195943   5.859   3.511  11.050 -0.1262  1.2352 -0.2223
29694SOL    HW295944   5.898   3.457  10.914  0.0969  0.4067  0.1630
29695SOL     OW95945  11.708   0.908   0.691 -0.0026 -0.3735 -0.2613
29695SOL    HW195946  11.676   0.919   0.781 -0.0602  1.5264 -0.4642
29695SOL    HW295947  11.691   0.816   0.670 -1.9670 -0.3285  0.9171
29696SOL     OW95948   7.535   6.650  11.287  0.2262 -0.2088 -0.3284
29696SOL    HW195949   7.598   6.580  11.276 -0.1737 -0.4280 -1.3094
29696SOL    HW295950   7.586   6.723  11.323  0.6909 -0.9072  0.4702
29697SOL     OW95951   5.889   0.724   5.668  0.1334 -0.0717 -0.0547
29697SOL    HW195952   5.867   0.630   5.670  0.6318 -0.2203 -1.2338
29697SOL    HW295953   5.857   0.754   5.584  1.8125  0.3595 -0.5729
29698SOL     OW95954   7.664   8.308   3.332 -0.0715 -0.1102 -0.1216
29698SOL    HW195955   7.691   8.337   3.419  3.1320 -2.7776 -0.0596
29698SOL    HW295956   7.698   8.374   3.272  2.4278 -0.8888  0.3581
29699SOL     OW95957  10.969   3.351   5.428 -0.8115  0.0456  0.4668
29699SOL    HW195958  10.972   3.435   5.473  1.5732 -0.7760  2.0225
29699SOL    HW295959  10.876   3.339   5.407 -1.2638  2.8980  0.4050
29700SOL     OW95960   9.248  10.575  12.415 -0.2133 -0.2771  0.2697
29700SOL    HW195961   9.179  10.533  12.467 -0.7839  1.0143  0.6051
29700SOL    HW295962   9.234  10.668  12.428  1.4240  0.0293  0.0872
29701SOL     OW95963   0.771   9.505   3.471 -0.0369  0.3385  0.2143
29701SOL    HW195964   0.703   9.438   3.461  0.0629  0.2529  0.0965
29701SOL    HW295965   0.852   9.455   3.481 -0.2834  0.3663  3.0471
29702SOL     OW95966   6.496  11.955   2.711 -0.0273 -0.5018  0.2718
29702SOL    HW195967   6.510  12.048   2.693  1.5980 -0.4857  1.3894
29702SOL    HW295968   6.578  11.913   2.685 -0.9107 -1.7159 -0.6562
29703SOL     OW95969   7.052   6.258   3.174  0.2058 -0.5265  0.7087
29703SOL    HW195970   7.039   6.337   3.121 -0.1021 -1.6335 -0.9345
29703SOL    HW295971   7.084   6.291   3.258 -2.1777  1.5127  0.9373
29704SOL     OW95972   1.145   3.903   8.277  0.6507 -0.9476 -0.1628
29704SOL    HW195973   1.137   3.813   8.310  0.3087 -1.0192 -0.4428
29704SOL    HW295974   1.112   3.957   8.350  1.4226 -1.0098  0.2392
29705SOL     OW95975   3.542  11.710  10.242 -0.0963  0.0767  0.1872
29705SOL    HW195976   3.608  11.724  10.174  0.1018 -0.9917  0.1423
29705SOL    HW295977   3.458  11.717  10.196 -0.0022  0.6451  0.0914
29706SOL     OW95978   4.009   8.743   6.972 -0.5662 -0.1850 -0.1456
29706SOL    HW195979   3.942   8.702   6.918 -0.4244  1.1772 -1.4048
29706SOL    HW295980   3.961   8.805   7.027 -0.2108  2.5386 -2.7020
29707SOL     OW95981  10.805   6.170   6.080  0.3658 -0.0344  0.0906
29707SOL    HW195982  10.709   6.164   6.086  0.4015 -0.6967  0.0852
29707SOL    HW295983  10.833   6.191   6.169  0.1913  0.6220  0.0009
29708SOL     OW95984   4.827   3.063   3.413  0.0385 -0.3834 -0.0815
29708SOL    HW195985   4.741   3.075   3.454  0.6017  2.8814  0.4086
29708SOL    HW295986   4.810   3.074   3.320 -0.3242 -1.6671 -0.1843
29709SOL     OW95987   9.599   2.554   8.064  0.1225 -0.3078  0.1621
29709SOL    HW195988   9.544   2.478   8.083  0.3822 -0.7905 -0.9199
29709SOL    HW295989   9.538   2.627   8.056 -0.5613 -1.0515 -2.2348
29710SOL     OW95990   1.964   6.297  10.077 -0.2902  0.8735 -0.1751
29710SOL    HW195991   1.913   6.340  10.145 -0.3313  2.9174 -1.3908
29710SOL    HW295992   2.025   6.365  10.047  1.3876 -0.7049 -0.5277
29711SOL     OW95993   0.430  10.795   2.867  0.4625 -0.1792 -0.3993
29711SOL    HW195994   0.446  10.808   2.960  1.6368  2.7637 -0.9069
29711SOL    HW295995   0.515  10.769   2.831  0.2277 -0.3981 -0.8093
29712SOL     OW95996   8.704   4.651   8.928  0.1345 -0.1110  0.6686
29712SOL    HW195997   8.675   4.715   8.863  1.2707  0.5812  0.8090
29712SOL    HW295998   8.627   4.633   8.981 -0.5988 -0.0518 -0.3374
29713SOL     OW95999  12.297   9.399   6.854 -0.2683 -0.2641 -0.5458
29713SOL    HW196000  12.337   9.464   6.797 -1.9754 -0.1294 -1.6595
29713SOL    HW296001  12.351   9.320   6.842  1.0259  0.5498 -0.1983
29714SOL     OW96002  11.755   0.034   8.735  0.2634 -0.7158 -0.3795
29714SOL    HW196003  11.748   0.094   8.809 -0.7741 -0.5782 -0.5723
29714SOL    HW296004  11.760  -0.053   8.774 -0.6020 -0.6672 -0.1413
29715SOL     OW96005   4.647   0.941   8.058  0.3509  0.4151  0.6858
29715SOL    HW196006   4.640   0.904   8.146  0.6767 -0.9825  0.1400
29715SOL    HW296007   4.739   0.930   8.034  0.6895  2.4898  0.8736
29716SOL     OW96008  12.186  11.901   8.444 -0.1892  0.3627  0.5652
29716SOL    HW196009  12.153  11.931   8.529 -1.5734  1.2024 -0.2351
29716SOL    HW296010  12.130  11.828   8.420 -0.2320  0.5546  0.0730
29717SOL     OW96011   9.471   2.770   1.273 -0.2605  0.0336  0.5874
29717SOL    HW196012   9.515   2.721   1.205 -0.9451  0.9132 -0.5276
29717SOL    HW296013   9.454   2.706   1.342  0.3525 -0.8984 -0.1102
29718SOL     OW96014  12.040   7.898   9.478 -0.1806  0.9851 -0.1420
29718SOL    HW196015  12.021   7.878   9.386 -0.2107  1.0600 -0.1526
29718SOL    HW296016  12.107   7.967   9.474  0.6291  0.2110 -0.0998
29719SOL     OW96017   6.028   6.572   3.680 -0.5994 -0.0640 -0.3833
29719SOL    HW196018   5.987   6.502   3.629  3.3323 -2.7460 -0.2755
29719SOL    HW296019   6.087   6.615   3.617  0.0026  0.4771  0.5358
29720SOL     OW96020   2.211   3.455  11.703 -0.1599 -0.1244  0.2312
29720SOL    HW196021   2.151   3.393  11.662  1.7228 -1.4746 -0.6163
29720SOL    HW296022   2.178   3.465  11.793 -2.0659 -0.2081 -0.4332
29721SOL     OW96023  10.534  11.224  10.623  0.4597  0.0841  0.3856
29721SOL    HW196024  10.540  11.319  10.612  0.9095  0.0507  0.3250
29721SOL    HW296025  10.448  11.210  10.663 -1.2838  0.2110 -2.9879
29722SOL     OW96026   7.683  10.952   3.558  0.2877  0.1745 -0.4049
29722SOL    HW196027   7.654  11.005   3.632  0.8102 -2.0899  1.5491
29722SOL    HW296028   7.659  11.003   3.481 -2.7109  1.4677  1.2147
29723SOL     OW96029   5.394  11.750   0.408  0.0656 -0.2848 -0.0572
29723SOL    HW196030   5.429  11.840   0.404  1.6824 -0.8956 -0.8208
29723SOL    HW296031   5.461  11.701   0.456  0.1703 -1.4594 -1.3290
29724SOL     OW96032   7.777   8.724   2.249 -0.2218 -0.3184 -0.0241
29724SOL    HW196033   7.704   8.774   2.285  1.7903  0.8824  2.6958
29724SOL    HW296034   7.846   8.788   2.234  1.4201 -1.8081  0.7275
29725SOL     OW96035   6.455   4.819   8.722  0.9301  0.6382  0.4014
29725SOL    HW196036   6.463   4.791   8.630  1.1772 -1.1861  0.9419
29725SOL    HW296037   6.379   4.877   8.722 -0.6146 -1.2473 -0.5815
29726SOL     OW96038   3.492  12.006   2.363  0.0029 -0.1160  1.2464
29726SOL    HW196039   3.449  11.947   2.302  0.7648 -1.2281  1.7570
29726SOL    HW296040   3.531  12.074   2.308  1.9827 -1.9109  0.2882
29727SOL     OW96041   9.710  12.407   4.571  0.0364  0.6919 -0.4314
29727SOL    HW196042   9.702  12.465   4.496 -0.0363  1.0630 -0.1377
29727SOL    HW296043   9.798  12.370   4.564  0.3078  1.3036 -0.2833
29728SOL     OW96044   3.652   6.110   4.126  0.0155 -0.6432  0.3159
29728SOL    HW196045   3.649   6.015   4.141 -0.7864 -0.6003  0.4700
29728SOL    HW296046   3.590   6.125   4.055 -1.7007  0.0411  1.8823
29729SOL     OW96047   8.088   8.267   2.683 -0.2697 -0.1863  0.1174
29729SOL    HW196048   8.001   8.271   2.641  0.8350  1.4202 -2.2511
29729SOL    HW296049   8.094   8.348   2.732 -1.4052 -1.8957  3.3567
29730SOL     OW96050   5.283  12.126   7.446 -0.0498 -0.0711  0.0444
29730SOL    HW196051   5.288  12.209   7.493 -3.5155  0.7742 -0.8105
29730SOL    HW296052   5.277  12.152   7.354  0.6223 -1.4103 -0.4006
29731SOL     OW96053  12.256   6.213   3.187  0.1366 -0.3748  0.3583
29731SOL    HW196054  12.297   6.242   3.106 -0.6085 -0.9829 -0.2551
29731SOL    HW296055  12.318   6.149   3.223  1.6651  1.6506  1.5918
29732SOL     OW96056   2.702   7.816   2.684  0.1601  0.0060  0.4866
29732SOL    HW196057   2.632   7.753   2.666  0.1455  0.1726 -0.0600
29732SOL    HW296058   2.659   7.886   2.733  0.3184 -0.7224  1.7210
29733SOL     OW96059   4.704   6.062   5.338 -0.3173  0.6628  0.7534
29733SOL    HW196060   4.770   6.112   5.290 -0.2199 -0.1772 -0.0083
29733SOL    HW296061   4.693   6.110   5.420  1.6386  0.5214  1.1559
29734SOL     OW96062   7.382   3.134   5.151  0.1670  0.2714  0.5378
29734SOL    HW196063   7.353   3.127   5.060 -1.0142  1.2458  0.8211
29734SOL    HW296064   7.392   3.228   5.166  0.6857  0.1018  1.3190
29735SOL     OW96065  11.932   2.615   6.901 -0.3333 -0.3546 -0.1332
29735SOL    HW196066  11.853   2.561   6.910 -0.1713 -0.6520 -0.4651
29735SOL    HW296067  11.996   2.557   6.861  0.0042 -0.0616 -0.0246
29736SOL     OW96068   6.845  11.330   1.022  0.4696  0.5859 -0.4185
29736SOL    HW196069   6.871  11.238   1.031  2.8773  1.2687  0.6370
29736SOL    HW296070   6.762  11.336   1.069  0.5714 -0.9506  0.0147
29737SOL     OW96071   4.129  12.072   8.037 -0.5655 -0.4485 -0.4180
29737SOL    HW196072   4.108  12.008   8.106 -1.3975 -0.2004 -0.4325
29737SOL    HW296073   4.047  12.082   7.988 -0.2778  0.1963 -0.7770
29738SOL     OW96074   1.637   6.901   9.938  0.0815 -0.1532  0.2588
29738SOL    HW196075   1.651   6.854  10.021 -1.7716 -1.0807  0.0938
29738SOL    HW296076   1.657   6.992   9.959  1.4185 -0.6411  1.2296
29739SOL     OW96077   2.012   3.814   9.727  0.0662  0.4226 -0.3407
29739SOL    HW196078   2.107   3.823   9.733  0.0743  2.1054 -2.1253
29739SOL    HW296079   1.998   3.751   9.656 -0.1380  0.9301 -0.7572
29740SOL     OW96080   4.656   1.077   8.659 -0.7313  0.4047  0.9305
29740SOL    HW196081   4.736   1.120   8.630 -1.7340  1.6552 -0.0952
29740SOL    HW296082   4.682   1.028   8.737  1.3371 -0.4584 -0.2541
29741SOL     OW96083   0.606   2.957   0.158  0.1452 -0.1091 -0.2233
29741SOL    HW196084   0.634   2.976   0.069 -0.0465  2.3349  0.1902
29741SOL    HW296085   0.511   2.949   0.153  0.1550 -0.2094 -0.2602
29742SOL     OW96086   1.921  10.183   4.621  0.3880 -0.2646  0.0713
29742SOL    HW196087   1.938  10.223   4.535  1.8722 -1.6490 -0.3115
29742SOL    HW296088   1.928  10.256   4.682  1.8568  0.3120 -0.7321
29743SOL     OW96089   1.419   7.900   6.035 -0.3092 -0.2379 -0.2261
29743SOL    HW196090   1.410   7.879   5.942 -0.4166  1.4935 -0.6529
29743SOL    HW296091   1.414   7.996   6.038  0.1642 -0.2339  1.5182
29744SOL     OW96092   1.793   1.556   1.702  0.6672  0.6185 -0.0052
29744SOL    HW196093   1.822   1.645   1.685  0.2012  0.1096 -4.4779
29744SOL    HW296094   1.873   1.504   1.702  0.6655  0.6095 -1.0030
29745SOL     OW96095   0.393   7.385   4.314 -0.1091 -0.5706 -0.4629
29745SOL    HW196096   0.455   7.456   4.295  0.5933 -0.9626  0.2723
29745SOL    HW296097   0.319   7.429   4.356  0.1196 -0.2216 -0.4164
29746SOL     OW96098  10.029   8.852   8.566  0.1504 -0.3132  0.2271
29746SOL    HW196099   9.963   8.885   8.627  0.7480 -0.3913  0.9300
29746SOL    HW296100  10.033   8.758   8.583  2.4120  0.0450  2.2174
29747SOL     OW96101   5.088   3.594   6.498 -0.4107 -0.6144 -0.7438
29747SOL    HW196102   4.999   3.612   6.468 -0.4611  2.6092  0.9619
29747SOL    HW296103   5.144   3.637   6.432 -0.2003 -0.8044 -0.6898
29748SOL     OW96104   5.599   8.250  11.924  1.1651 -0.2548  0.3805
29748SOL    HW196105   5.511   8.285  11.941  1.8988  0.2792  3.8983
29748SOL    HW296106   5.585   8.169  11.875 -1.2166  0.1386  0.3274
29749SOL     OW96107   1.191   6.204  10.736 -0.3370 -0.1610 -0.2196
29749SOL    HW196108   1.139   6.251  10.800 -1.1097 -0.4798 -0.6032
29749SOL    HW296109   1.268   6.174  10.785 -1.2397 -0.9769  0.7302
29750SOL     OW96110   2.600   6.707   3.217  0.2263 -0.4121  0.4573
29750SOL    HW196111   2.557   6.789   3.193  1.1708  0.2069  0.8398
29750SOL    HW296112   2.667   6.732   3.280  0.5984 -1.4706  0.5043
29751SOL     OW96113  11.072  12.025   5.192  0.1455 -0.1371 -0.3171
29751SOL    HW196114  11.048  12.081   5.266 -0.8447  0.2267 -0.8889
29751SOL    HW296115  11.166  12.008   5.203  0.0111 -0.0628  0.9927
29752SOL     OW96116   2.706  10.989  11.645 -0.3862 -0.1594  0.2635
29752SOL    HW196117   2.792  11.030  11.635 -0.9039  1.1969  1.1306
29752SOL    HW296118   2.691  10.945  11.562  0.3174  1.2329 -0.6472
29753SOL     OW96119  10.081   5.316   1.907 -0.6056  0.0911 -0.1163
29753SOL    HW196120  10.146   5.329   1.837 -0.5048  0.5188  0.0521
29753SOL    HW296121  10.133   5.304   1.986 -0.7294  0.6735  0.0592
29754SOL     OW96122   6.072   5.552   0.998  0.1501  0.5972 -0.0341
29754SOL    HW196123   6.037   5.533   0.911 -1.2979  2.5655  0.0489
29754SOL    HW296124   6.157   5.593   0.981 -0.8024  2.4069 -0.6497
29755SOL     OW96125   6.602   2.622   7.283  0.1550  0.2677 -0.7969
29755SOL    HW196126   6.688   2.631   7.325  0.1734  0.2572 -0.8328
29755SOL    HW296127   6.559   2.552   7.331  0.4501 -0.2276 -1.2524
29756SOL     OW96128   8.116  11.932   9.181 -0.3640 -0.0888 -0.0612
29756SOL    HW196129   8.149  11.941   9.092 -1.1353 -0.1914 -0.3644
29756SOL    HW296130   8.194  11.920   9.235  0.2699  1.9961 -0.4376
29757SOL     OW96131   6.934   0.813   2.770 -0.1834  0.4765  0.2624
29757SOL    HW196132   6.976   0.760   2.838  2.5826  0.0544 -1.6146
29757SOL    HW296133   6.916   0.897   2.813 -1.0307 -0.6270  2.1949
29758SOL     OW96134   6.306   7.535  11.879 -0.0085  0.1989  0.1253
29758SOL    HW196135   6.353   7.476  11.938 -2.1290 -0.5733  1.1604
29758SOL    HW296136   6.220   7.545  11.919 -0.5763  1.9666 -1.3937
29759SOL     OW96137   6.592   2.462   1.413  0.1367  0.6066 -0.1142
29759SOL    HW196138   6.505   2.422   1.409 -0.0696  0.9200  0.9185
29759SOL    HW296139   6.635   2.418   1.487 -0.4363  2.9219  1.6903
29760SOL     OW96140   0.268   3.270   5.197 -0.0831  0.1307 -0.4544
29760SOL    HW196141   0.314   3.189   5.217  0.3008  0.2046 -0.9962
29760SOL    HW296142   0.333   3.324   5.152  0.1798  1.4070  1.3587
29761SOL     OW96143   4.456   6.329   5.212 -0.6367  0.0943  0.0290
29761SOL    HW196144   4.524   6.315   5.278 -0.6017 -0.8366 -0.1869
29761SOL    HW296145   4.499   6.308   5.129 -0.4865  1.8901 -0.3912
29762SOL     OW96146   6.668   8.275   4.018  0.5569  0.1589 -0.5563
29762SOL    HW196147   6.734   8.340   3.992 -0.1058  1.1389  0.1867
29762SOL    HW296148   6.605   8.275   3.946  1.0708 -0.4120 -1.0266
29763SOL     OW96149   6.286   7.060   1.731 -0.3222  0.1583  0.0973
29763SOL    HW196150   6.336   7.086   1.654  0.9814 -0.4860  0.6882
29763SOL    HW296151   6.352   7.043   1.798 -1.2960 -1.1614  0.7881
29764SOL     OW96152   6.180   8.462   2.870  0.2476 -0.0211  0.0604
29764SOL    HW196153   6.247   8.530   2.865 -1.5156  1.9231  1.2631
29764SOL    HW296154   6.221   8.391   2.921  0.7113  2.0988  2.8648
29765SOL     OW96155   5.527   5.039   0.580 -0.0598  0.0549 -0.0003
29765SOL    HW196156   5.528   4.948   0.611  2.1723  0.2993  0.8412
29765SOL    HW296157   5.547   5.091   0.658  1.0229  1.0669 -0.9155
29766SOL     OW96158   1.357   2.655   0.739  0.4802  0.0264  0.0416
29766SOL    HW196159   1.296   2.645   0.665 -1.4826 -0.5219  1.6326
29766SOL    HW296160   1.431   2.703   0.703 -0.9483  0.8516 -1.9898
29767SOL     OW96161   2.956   8.094   3.444  0.5694 -0.0415 -0.5051
29767SOL    HW196162   2.996   8.170   3.486 -2.7406  0.8653  1.3106
29767SOL    HW296163   2.991   8.019   3.492  1.5577  0.5152 -0.3138
29768SOL     OW96164   9.452   7.249   5.710  0.1365  0.2745  0.0887
29768SOL    HW196165   9.444   7.234   5.804 -2.0782  0.6778  0.0285
29768SOL    HW296166   9.534   7.296   5.699  2.2666 -2.8390  1.3883
29769SOL     OW96167   4.124   3.000   3.014  0.7524  0.7713 -0.3541
29769SOL    HW196168   4.156   3.041   2.934  0.0460  2.2650  0.0806
29769SOL    HW296169   4.031   2.982   2.997  1.2299 -1.5196 -0.8381
29770SOL     OW96170   3.439   4.099   8.207 -0.1161  0.0796 -0.7963
29770SOL    HW196171   3.455   4.058   8.292  1.0178 -0.1279 -1.0983
29770SOL    HW296172   3.391   4.033   8.157  0.5198 -0.3762 -0.8188
29771SOL     OW96173   2.517   4.719   3.938  0.6237  0.0849  0.0963
29771SOL    HW196174   2.500   4.642   3.883  1.9344  0.3321 -0.6889
29771SOL    HW296175   2.460   4.707   4.014 -1.0048 -0.4411 -1.1441
29772SOL     OW96176   6.877   7.428   4.807 -0.2208 -0.3727 -0.1313
29772SOL    HW196177   6.809   7.365   4.830 -0.7499  0.4039  0.5084
29772SOL    HW296178   6.895   7.412   4.715  1.5645 -3.2387  0.5705
29773SOL     OW96179   8.076   8.514   8.076 -0.0529  0.3230  0.2731
29773SOL    HW196180   8.138   8.535   8.006  0.7523 -1.2870  0.4499
29773SOL    HW296181   8.003   8.574   8.063  1.3830  2.0436 -0.1676
29774SOL     OW96182   2.944   6.536   1.781  0.4813 -0.4664  0.1042
29774SOL    HW196183   2.946   6.581   1.866  1.4894  0.4564 -0.3826
29774SOL    HW296184   2.999   6.590   1.724 -0.5166 -0.8395 -1.2638
29775SOL     OW96185   4.664   2.431   9.370  0.1010 -0.1719 -0.0636
29775SOL    HW196186   4.722   2.400   9.300  0.7217 -0.3620  0.5268
29775SOL    HW296187   4.579   2.392   9.349  0.4168 -0.7019 -0.3990
29776SOL     OW96188   0.079   6.412  11.681  0.2980  0.3245 -0.0516
29776SOL    HW196189   0.064   6.488  11.625 -1.0717 -1.8160 -2.8722
29776SOL    HW296190  -0.009   6.379  11.701  0.8452 -1.6005 -0.5942
29777SOL     OW96191  10.568   5.617   9.142  0.1747  0.0268  0.3377
29777SOL    HW196192  10.621   5.560   9.087  0.7927  0.3266  0.6203
29777SOL    HW296193  10.556   5.697   9.091 -1.1388 -0.5300 -0.2814
29778SOL     OW96194  10.779  11.344  11.278 -0.3402 -0.2360  0.1810
29778SOL    HW196195  10.716  11.277  11.303  0.1246 -1.1516 -1.0013
29778SOL    HW296196  10.749  11.375  11.193  1.0009 -1.0026 -0.6121
29779SOL     OW96197  12.331  11.705   8.693  0.5735  0.0193 -0.3883
29779SOL    HW196198  12.390  11.722   8.766 -0.2630 -1.8950  0.8168
29779SOL    HW296199  12.262  11.770   8.702 -0.1634 -0.9389  1.3255
29780SOL     OW96200  10.258  10.222   7.512  0.1481 -0.2669 -0.1584
29780SOL    HW196201  10.183  10.226   7.453  0.6535 -0.5261 -0.8351
29780SOL    HW296202  10.230  10.166   7.584 -0.4814  0.0627 -0.1469
29781SOL     OW96203   9.080   1.866   3.283 -0.3427 -0.3739 -0.1786
29781SOL    HW196204   9.067   1.867   3.378  2.4386  2.6884  0.3571
29781SOL    HW296205   9.130   1.785   3.267  2.0315  0.5851  1.6219
29782SOL     OW96206   3.331   8.121   4.006 -0.3201  0.4817 -0.1905
29782SOL    HW196207   3.425   8.141   4.010 -0.3277  0.3637  1.3484
29782SOL    HW296208   3.297   8.180   3.939  0.7487  0.9935 -0.3140
29783SOL     OW96209  11.625   5.111   9.919 -0.6044  0.0901 -0.3566
29783SOL    HW196210  11.627   5.048   9.847  0.4117  0.0537 -0.3083
29783SOL    HW296211  11.607   5.195   9.877  0.7652  0.1980 -0.7641
29784SOL     OW96212   8.891   3.827   1.189  0.0368  0.6182 -0.1960
29784SOL    HW196213   8.832   3.901   1.207 -1.5762 -0.5502 -0.5221
29784SOL    HW296214   8.949   3.860   1.120 -1.6707  1.1246 -1.4711
29785SOL     OW96215   3.178   6.634  10.208  0.2967  0.1495 -0.2844
29785SOL    HW196216   3.272   6.618  10.222  0.4405  0.2776 -1.0792
29785SOL    HW296217   3.160   6.596  10.122 -1.1206 -2.8750  1.1669
29786SOL     OW96218   0.980   7.653   0.048  0.0751  0.2059 -0.0276
29786SOL    HW196219   0.914   7.665  -0.019  1.3271  2.4533 -0.9517
29786SOL    HW296220   1.045   7.721   0.031  2.6820 -1.9047  0.7948
29787SOL     OW96221   9.799  11.433   9.616 -0.2307  0.3831 -0.2094
29787SOL    HW196222   9.746  11.479   9.680 -0.3616  3.5060 -2.3304
29787SOL    HW296223   9.737  11.406   9.548  0.4362  1.8627 -1.4969
29788SOL     OW96224   9.231   9.586   8.186 -0.1234 -0.3063  0.3296
29788SOL    HW196225   9.286   9.602   8.109 -1.3061  0.0110 -0.4831
29788SOL    HW296226   9.291   9.550   8.252  0.8280 -1.0136 -0.8799
29789SOL     OW96227   2.640  11.459   1.314 -0.1323 -0.3068  0.4317
29789SOL    HW196228   2.637  11.408   1.233  0.7814 -0.3287  0.3966
29789SOL    HW296229   2.626  11.395   1.384  3.5848 -1.2012  0.5810
29790SOL     OW96230  12.316   9.789   5.288 -0.0522  0.0740 -0.7417
29790SOL    HW196231  12.249   9.819   5.226 -0.7742 -1.2266 -0.6211
29790SOL    HW296232  12.284   9.819   5.373  0.0462  0.3357 -0.7952
29791SOL     OW96233   0.367  12.129   9.271 -0.6755 -0.3765  0.3571
29791SOL    HW196234   0.417  12.139   9.190 -2.3934 -1.7369 -0.9421
29791SOL    HW296235   0.406  12.052   9.313 -2.6340 -2.5558 -1.5363
29792SOL     OW96236   8.700   9.116   6.469 -0.4410 -0.5768 -0.9130
29792SOL    HW196237   8.664   9.034   6.433  0.6955 -0.6395 -1.9514
29792SOL    HW296238   8.792   9.096   6.486 -0.4946  0.0615  0.2204
29793SOL     OW96239   2.125   3.556   4.459  0.1314  0.0111  0.6438
29793SOL    HW196240   2.030   3.566   4.463  0.1741  0.9930 -0.3908
29793SOL    HW296241   2.140   3.463   4.478 -1.1914 -0.6270 -1.1810
29794SOL     OW96242   3.870   9.635  12.225 -0.1525  0.5258 -0.3107
29794SOL    HW196243   3.953   9.673  12.254  0.6721 -0.8844 -0.6875
29794SOL    HW296244   3.815   9.710  12.203  0.6110  1.5206  1.0356
29795SOL     OW96245   5.042  11.027   9.140  0.5707  0.5204  0.3385
29795SOL    HW196246   5.042  11.026   9.235  2.0041  2.1851  0.3918
29795SOL    HW296247   5.133  11.043   9.115  0.0913  0.9432 -1.2929
29796SOL     OW96248   1.907   6.407   3.838 -0.5051  0.4010  0.4585
29796SOL    HW196249   1.932   6.494   3.869 -1.6553  1.0698 -0.4279
29796SOL    HW296250   1.811   6.409   3.835 -0.6529 -1.4064  1.8540
29797SOL     OW96251   5.342   8.665   0.751  0.0726  0.7150 -0.2273
29797SOL    HW196252   5.380   8.578   0.762  0.4783  1.1704  2.9839
29797SOL    HW296253   5.410   8.715   0.705 -0.2345 -0.6220 -2.2566
29798SOL     OW96254   9.645   8.213   8.539 -0.3824  0.2418  0.1942
29798SOL    HW196255   9.731   8.173   8.547 -0.0515  0.6232 -1.1649
29798SOL    HW296256   9.589   8.144   8.504 -0.3487  0.3282 -0.0302
29799SOL     OW96257   0.617   6.967   1.704 -0.4832 -0.3302 -0.1160
29799SOL    HW196258   0.636   6.880   1.737  0.8379 -0.2749 -0.6539
29799SOL    HW296259   0.524   6.965   1.682 -0.7645 -1.1974  1.0321
29800SOL     OW96260   9.482   5.006   6.416 -0.2235 -0.1473  0.5326
29800SOL    HW196261   9.492   5.101   6.422  0.3780 -0.1606 -0.1979
29800SOL    HW296262   9.503   4.984   6.326 -1.4512 -0.8596  0.3891
29801SOL     OW96263   9.410  11.701   3.545  0.2244 -0.3423 -0.2883
29801SOL    HW196264   9.432  11.790   3.517 -1.9384  0.8814  1.5433
29801SOL    HW296265   9.353  11.668   3.476 -1.9048  1.1483  0.6545
29802SOL     OW96266   6.959   8.146   4.371 -0.1367 -0.1425  0.2964
29802SOL    HW196267   6.968   8.237   4.402  0.9285 -0.1431  0.0305
29802SOL    HW296268   6.940   8.096   4.450 -0.4743  0.2766  0.4865
29803SOL     OW96269   4.962   6.486  11.223 -0.4784  0.0178  0.2759
29803SOL    HW196270   4.916   6.560  11.263  0.9711  0.6577  0.8173
29803SOL    HW296271   4.997   6.436  11.297 -1.3677 -1.1952 -0.0817
29804SOL     OW96272   2.955   6.482   9.689  0.2177 -0.1608  0.0381
29804SOL    HW196273   2.982   6.398   9.650  2.1706  0.0484  0.8531
29804SOL    HW296274   3.020   6.545   9.657  0.0482  0.6099  1.1727
29805SOL     OW96275   8.135   1.956   0.992  0.5658  0.1358 -0.1363
29805SOL    HW196276   8.092   1.887   1.043  1.0769  0.3948  0.6726
29805SOL    HW296277   8.064   2.004   0.951  0.1869 -0.6974 -0.4901
29806SOL     OW96278   9.080   6.563   0.526  0.0956 -0.4227  0.4356
29806SOL    HW196279   9.033   6.584   0.445  0.2208 -1.7964 -0.0209
29806SOL    HW296280   9.060   6.471   0.542  0.9151 -0.4508  1.4017
29807SOL     OW96281   3.827  10.648   8.314 -0.6795 -0.1730 -0.1568
29807SOL    HW196282   3.778  10.714   8.264  0.4419  1.4561  0.7943
29807SOL    HW296283   3.879  10.699   8.376  1.1616 -1.9016 -0.1856
29808SOL     OW96284  12.055  10.161   5.632 -0.3256  0.0629 -0.0512
29808SOL    HW196285  12.015  10.094   5.576  0.6197 -0.5297 -0.0339
29808SOL    HW296286  11.993  10.172   5.704 -1.1156  0.1674 -0.7339
29809SOL     OW96287   2.405  11.657   9.964 -0.3223  0.0218 -0.0779
29809SOL    HW196288   2.338  11.595   9.993  0.1950 -1.5818 -2.0732
29809SOL    HW296289   2.488  11.613   9.980  0.0930  0.5298 -0.7423
29810SOL     OW96290   0.184   7.001   8.232  0.9203 -0.9740  0.4599
29810SOL    HW196291   0.272   7.037   8.238 -0.0295  3.2358 -4.1290
29810SOL    HW296292   0.192   6.929   8.169  1.0780 -0.1293 -0.5139
29811SOL     OW96293   2.723   3.433   3.457  0.2718 -0.3398 -0.1198
29811SOL    HW196294   2.752   3.342   3.466  1.4051  0.0776  0.7406
29811SOL    HW296295   2.748   3.474   3.540  1.1738  1.1189 -1.0691
29812SOL     OW96296   7.130   5.793   3.567  0.3217 -0.5777 -0.0315
29812SOL    HW196297   7.185   5.803   3.490 -0.9979 -0.8611 -1.0371
29812SOL    HW296298   7.184   5.742   3.628  2.4586  1.9685  0.3980
29813SOL     OW96299   9.548  10.271   4.735  0.0125  0.1728  0.1102
29813SOL    HW196300   9.517  10.190   4.775 -0.4823  1.3794  2.3551
29813SOL    HW296301   9.593  10.317   4.807 -0.0246  2.0356 -0.9975
29814SOL     OW96302   6.363  11.270  11.966 -0.2079  0.5507  0.0163
29814SOL    HW196303   6.350  11.228  11.881 -1.3725  1.5777 -0.3594
29814SOL    HW296304   6.411  11.350  11.946 -0.4315  0.7643  0.3227
29815SOL     OW96305   2.716   8.017   2.511  0.6854  0.0971 -0.3291
29815SOL    HW196306   2.732   7.935   2.557  1.4279  0.8296  0.7841
29815SOL    HW296307   2.783   8.020   2.442  1.1728  0.1250  0.1404
29816SOL     OW96308  10.974  11.302   0.083  0.0207  0.4007 -0.4859
29816SOL    HW196309  10.955  11.209   0.097  3.8161 -0.4628  0.2575
29816SOL    HW296310  10.954  11.344   0.166  0.6677 -0.2929  0.0394
29817SOL     OW96311   6.124   7.532   9.858 -0.6938  0.1240 -0.2124
29817SOL    HW196312   6.203   7.532   9.805 -2.0173  0.4415 -2.3239
29817SOL    HW296313   6.151   7.498   9.943  1.4668 -0.7536 -1.1893
29818SOL     OW96314   0.581   7.527  12.191  0.2560 -0.3372  0.1388
29818SOL    HW196315   0.552   7.540  12.101 -1.5937 -1.2716  0.5452
29818SOL    HW296316   0.559   7.436  12.210 -1.5164  0.4512  2.2271
29819SOL     OW96317   9.906   9.998   4.789 -0.0825  0.1821 -0.1259
29819SOL    HW196318   9.913   9.903   4.793  1.4626  0.3079  2.1634
29819SOL    HW296319   9.986  10.026   4.744  0.2268  0.4572  0.5879
29820SOL     OW96320   8.076   0.020   3.066 -0.1002  0.1040  0.0270
29820SOL    HW196321   8.060  -0.067   3.103  1.3256 -0.2744 -0.1944
29820SOL    HW296322   8.082   0.006   2.972 -1.4120  0.7014 -0.1597
29821SOL     OW96323   0.319   4.714   0.122  0.1997  0.5773  0.2381
29821SOL    HW196324   0.367   4.795   0.138 -0.1330  0.4247  2.2825
29821SOL    HW296325   0.249   4.714   0.187 -0.3722 -0.9139 -0.3300
29822SOL     OW96326   7.458   3.660   4.550 -0.0920  0.1178  0.9512
29822SOL    HW196327   7.390   3.614   4.500  0.0580  0.2125  0.6554
29822SOL    HW296328   7.509   3.706   4.483  1.6854 -1.7788  0.8992
29823SOL     OW96329   1.592   7.517   6.523 -0.1923 -0.8538 -0.7061
29823SOL    HW196330   1.672   7.472   6.547 -0.2631  0.2285  1.7982
29823SOL    HW296331   1.620   7.590   6.469  0.7813  0.5057  1.5102
29824SOL     OW96332   8.272   5.333  11.363 -0.0454 -0.3983  0.3757
29824SOL    HW196333   8.210   5.283  11.415  0.8046 -0.5961  1.2350
29824SOL    HW296334   8.317   5.267  11.309 -0.0882 -0.3473  0.2777
29825SOL     OW96335   0.523  10.672   8.678  0.2608 -0.4925 -0.2558
29825SOL    HW196336   0.601  10.690   8.626  0.2643 -0.8630 -0.3810
29825SOL    HW296337   0.453  10.720   8.634  0.4878  0.1597  0.0805
29826SOL     OW96338  10.356   4.494   7.509 -0.1160  0.2050 -0.5421
29826SOL    HW196339  10.296   4.517   7.580 -1.0703 -0.5998 -1.0655
29826SOL    HW296340  10.335   4.556   7.439 -0.5638 -0.2768 -0.8389
29827SOL     OW96341   5.057   3.290   7.236  0.0532 -0.5058 -0.1378
29827SOL    HW196342   5.040   3.351   7.164 -2.5452 -0.0648  0.7382
29827SOL    HW296343   5.041   3.203   7.199 -0.9011 -0.3035 -0.2299
29828SOL     OW96344   8.628   1.646   8.923 -0.4207  0.1425 -0.0715
29828SOL    HW196345   8.554   1.703   8.938 -0.7243  0.2400 -1.7025
29828SOL    HW296346   8.678   1.689   8.853  0.9087 -0.1603  0.6591
29829SOL     OW96347   3.668   0.711   9.148 -0.2878  0.1361 -0.0790
29829SOL    HW196348   3.727   0.688   9.076  1.8397  0.7353  1.3724
29829SOL    HW296349   3.605   0.772   9.109 -1.0565 -1.7684 -2.0642
29830SOL     OW96350   0.571   5.713   6.633  0.9744 -0.5558 -0.1135
29830SOL    HW196351   0.480   5.741   6.636  0.5823 -1.8582  1.0355
29830SOL    HW296352   0.611   5.768   6.565  0.1911  2.4633  1.6938
29831SOL     OW96353   9.617   3.477   9.151 -0.2958  0.3269 -0.0033
29831SOL    HW196354   9.582   3.514   9.232 -1.7202  1.9016 -1.2727
29831SOL    HW296355   9.653   3.552   9.104  1.0491 -0.6509 -0.6095
29832SOL     OW96356   9.376  10.314  12.471 -0.1140 -0.4459 -0.2290
29832SOL    HW196357   9.374  10.392  12.416  0.0962 -2.6533 -3.6640
29832SOL    HW296358   9.284  10.289  12.481 -0.2151  0.3762  1.2403
29833SOL     OW96359  12.004  11.100   2.609  0.3746 -0.1014  0.1250
29833SOL    HW196360  12.016  11.005   2.605 -0.6615 -0.2007 -1.4124
29833SOL    HW296361  11.972  11.116   2.698  0.5589 -1.1881  0.3990
29834SOL     OW96362   8.461   7.237  10.156  0.8911  0.7474  0.3555
29834SOL    HW196363   8.512   7.312  10.187  0.8827  0.1764  1.8668
29834SOL    HW296364   8.521   7.188  10.100  1.0373  1.6359 -0.2801
29835SOL     OW96365  11.598  10.978   9.237 -0.6531 -0.4425  0.0545
29835SOL    HW196366  11.675  10.992   9.182 -1.7284  2.3531 -0.9177
29835SOL    HW296367  11.612  11.035   9.312 -1.0990 -1.0869  0.6381
29836SOL     OW96368   5.231   9.101   2.838 -0.0731  0.1005  0.2271
29836SOL    HW196369   5.212   9.164   2.768 -0.8049 -2.9573 -2.5686
29836SOL    HW296370   5.148   9.090   2.884 -0.0556  0.7859  0.4346
29837SOL     OW96371   7.167   0.459   8.837 -0.2228 -0.3675 -0.2205
29837SOL    HW196372   7.184   0.365   8.828 -0.5359 -0.3982 -0.5011
29837SOL    HW296373   7.253   0.499   8.828  0.0621 -0.6862  0.8892
29838SOL     OW96374   9.865   7.706   0.551 -0.1707  0.5159  0.2288
29838SOL    HW196375   9.938   7.668   0.501 -1.9881 -0.0942 -2.1066
29838SOL    HW296376   9.810   7.631   0.573 -0.2561  0.9984  1.8092
29839SOL     OW96377   3.725   9.688   2.309 -0.6749  0.3587  0.0951
29839SOL    HW196378   3.633   9.661   2.313 -0.1874 -1.4446  0.2471
29839SOL    HW296379   3.773   9.605   2.313  0.9136  1.1055 -2.1531
29840SOL     OW96380   5.071   3.107   2.472 -0.4980  0.9033  0.1558
29840SOL    HW196381   5.036   3.194   2.488 -0.0814  1.3862 -1.4253
29840SOL    HW296382   5.146   3.099   2.532 -0.2098  1.8450 -0.0662
29841SOL     OW96383   2.512   9.322   6.870  0.1691  0.1086 -0.4766
29841SOL    HW196384   2.577   9.330   6.940  0.5649  0.9251 -0.9232
29841SOL    HW296385   2.543   9.248   6.817  0.3987  0.1056 -0.3378
29842SOL     OW96386   7.279   0.196   7.671 -0.1477 -0.0794 -0.3089
29842SOL    HW196387   7.364   0.174   7.709  0.7446  1.0347 -1.5697
29842SOL    HW296388   7.240   0.257   7.734  0.8991  1.0113 -0.6886
29843SOL     OW96389   0.804   4.315   7.962  0.1878  0.1310 -0.0703
29843SOL    HW196390   0.829   4.228   7.995  1.9165  0.6976  0.1677
29843SOL    HW296391   0.745   4.349   8.029  0.0767 -0.5519  0.1945
29844SOL     OW96392   6.196   1.818   7.081 -0.2686  0.5409  0.1451
29844SOL    HW196393   6.108   1.856   7.080 -0.4038  0.4559  2.5513
29844SOL    HW296394   6.254   1.892   7.064 -0.7242  1.0782  0.8277
29845SOL     OW96395  11.329   8.815  10.149 -0.8595  0.0032 -0.2769
29845SOL    HW196396  11.254   8.777  10.193  0.4355 -1.2388  0.9398
29845SOL    HW296397  11.375   8.740  10.111 -0.2201  0.7463 -1.0192
29846SOL     OW96398   6.201   0.935  12.105  0.2947 -0.1681  0.2415
29846SOL    HW196399   6.272   0.877  12.131 -0.2020 -0.8828  0.0125
29846SOL    HW296400   6.123   0.880  12.105 -0.6099  1.0094  2.2881
29847SOL     OW96401   1.957   5.273   9.447  0.0276  0.1297 -0.1433
29847SOL    HW196402   2.047   5.241   9.440 -0.0240 -0.0452 -0.0116
29847SOL    HW296403   1.903   5.195   9.431 -0.0985  0.0387  0.6772
29848SOL     OW96404  11.742   7.280  10.669  0.2911 -0.0500 -0.1803
29848SOL    HW196405  11.654   7.308  10.645 -0.4969 -1.9219  0.3979
29848SOL    HW296406  11.784   7.259  10.585 -0.0206  0.2363 -0.4085
29849SOL     OW96407   5.211   7.246  12.473 -0.0759 -0.3287 -0.7096
29849SOL    HW196408   5.174   7.312  12.414 -0.1770 -0.1318 -0.4264
29849SOL    HW296409   5.295   7.223  12.434  0.3402  0.5767 -0.3637
29850SOL     OW96410   8.389   3.503   2.940 -0.3803  0.4568  0.1230
29850SOL    HW196411   8.406   3.439   2.871 -0.9748 -0.3050  0.6791
29850SOL    HW296412   8.474   3.544   2.956 -0.1757  0.4566 -0.8625
29851SOL     OW96413   2.085   6.192   3.807 -0.3891 -0.1131  0.9042
29851SOL    HW196414   2.026   6.261   3.836  0.3785  1.1656 -0.4581
29851SOL    HW296415   2.109   6.216   3.718  1.6243 -0.9788  1.1464
29852SOL     OW96416  12.008   5.063  11.446 -0.0314 -0.2509  0.3453
29852SOL    HW196417  12.089   5.014  11.431  0.2487 -0.1657  1.4826
29852SOL    HW296418  11.945   4.998  11.476 -1.0037 -0.6712 -2.3250
29853SOL     OW96419   5.847   9.210   9.614 -0.0025  0.5289 -0.9051
29853SOL    HW196420   5.763   9.179   9.582 -0.0588  0.7900 -1.0116
29853SOL    HW296421   5.848   9.304   9.594 -0.7393  1.0616  1.3039
29854SOL     OW96422  11.340   5.976   6.001  0.1569  0.2433  0.5643
29854SOL    HW196423  11.375   6.055   5.961 -0.8568  0.5948  0.3325
29854SOL    HW296424  11.272   5.947   5.941  0.5949 -0.8743  0.5963
29855SOL     OW96425  11.505   7.203  11.703  0.8028  0.2234  0.1039
29855SOL    HW196426  11.584   7.220  11.754  0.5524  0.2976  0.4713
29855SOL    HW296427  11.441   7.173  11.767  0.6783 -0.3192 -0.2602
29856SOL     OW96428   8.831   8.721   9.523  0.2514 -0.2941 -0.0736
29856SOL    HW196429   8.831   8.696   9.430  0.5461 -0.5274 -0.0124
29856SOL    HW296430   8.911   8.772   9.534  0.0611 -0.0048 -0.0140
29857SOL     OW96431  12.169   4.309   1.232  0.2306  0.1985  0.1611
29857SOL    HW196432  12.141   4.244   1.296  0.5742  0.4580  0.5789
29857SOL    HW296433  12.264   4.301   1.230  0.2811  0.7382  0.2684
29858SOL     OW96434   7.897  10.384   5.943  0.7930 -0.7627  0.5388
29858SOL    HW196435   7.877  10.375   6.036 -1.6033 -0.6251  0.0892
29858SOL    HW296436   7.923  10.475   5.932  0.3618 -0.5887  0.9496
29859SOL     OW96437   5.028  10.878   7.298  0.0933  0.5048  0.4607
29859SOL    HW196438   5.018  10.973   7.285  0.9535  0.6315  0.6332
29859SOL    HW296439   5.098  10.871   7.363  1.6950 -0.2920 -1.2702
29860SOL     OW96440   8.188  10.604  11.826  0.1836  0.2837  0.2313
29860SOL    HW196441   8.138  10.554  11.890 -0.9680  1.6490  0.4404
29860SOL    HW296442   8.141  10.591  11.744  0.0073  0.8326  0.2421
29861SOL     OW96443   7.428   8.081   5.606  0.0776 -0.6527  0.0329
29861SOL    HW196444   7.354   8.131   5.572 -0.7356 -0.6352  1.7427
29861SOL    HW296445   7.504   8.116   5.560 -1.1645 -2.5501 -3.9038
29862SOL     OW96446  11.056  11.265  11.077 -0.0722 -0.3830 -0.3148
29862SOL    HW196447  10.963  11.265  11.052 -0.3548 -2.2597  0.5652
29862SOL    HW296448  11.072  11.176  11.109  2.3631 -0.4705 -1.5728
29863SOL     OW96449   0.929   5.695   8.732  0.3616 -0.2018 -0.0780
29863SOL    HW196450   0.938   5.644   8.652  0.7383 -1.4738  0.7370
29863SOL    HW296451   1.018   5.721   8.754  0.0720  1.8812 -1.1037
29864SOL     OW96452   3.762   3.429   6.157 -0.2481  0.6289  0.0302
29864SOL    HW196453   3.846   3.450   6.198 -0.3971  2.7022 -0.5987
29864SOL    HW296454   3.708   3.394   6.228  0.3963  1.5117  0.9771
29865SOL     OW96455   2.630  11.895   0.246  0.0235 -0.3761 -0.4071
29865SOL    HW196456   2.717  11.888   0.207  0.1719 -0.4066 -0.0794
29865SOL    HW296457   2.606  11.987   0.235 -0.2377 -0.5338 -1.1917
29866SOL     OW96458   1.811   3.955   7.163 -0.0181  0.2886  0.2413
29866SOL    HW196459   1.782   4.047   7.165  2.7613  1.3648 -1.9685
29866SOL    HW296460   1.841   3.938   7.252 -0.5406  1.5334  0.6899
29867SOL     OW96461  11.076   5.908   1.915  0.3959 -0.0571  0.0715
29867SOL    HW196462  11.088   5.903   2.010 -2.2642  1.0648  0.5449
29867SOL    HW296463  11.119   5.990   1.890  2.1466 -0.9330  0.0523
29868SOL     OW96464   9.428   5.044   9.969 -0.4327 -0.2128 -0.2174
29868SOL    HW196465   9.457   4.987   9.898  2.7011  2.5935 -1.4920
29868SOL    HW296466   9.342   5.076   9.941 -0.5995 -1.4819 -1.2315
29869SOL     OW96467  10.388   0.407   1.433  0.3365  0.0433 -0.2743
29869SOL    HW196468  10.442   0.371   1.362  1.3262  0.1419  0.4009
29869SOL    HW296469  10.413   0.500   1.436 -3.9956  1.6831 -3.7003
29870SOL     OW96470  12.140  11.504   7.882  0.6794  0.3160 -0.5079
29870SOL    HW196471  12.205  11.497   7.952 -0.1705  3.7474  0.8016
29870SOL    HW296472  12.187  11.544   7.809  1.1254 -1.6476 -1.3607
29871SOL     OW96473  10.533   1.487   3.358 -0.4570 -0.0310  0.0204
29871SOL    HW196474  10.447   1.522   3.381 -0.0889  0.1451  1.1828
29871SOL    HW296475  10.550   1.521   3.270 -1.0510  0.9246  0.2676
29872SOL     OW96476   2.659   1.737   2.805 -0.7421 -0.2905 -0.1916
29872SOL    HW196477   2.688   1.760   2.893 -0.5644 -0.0005 -0.3251
29872SOL    HW296478   2.569   1.771   2.799 -0.3246  0.7892 -0.5448
29873SOL     OW96479   6.783   8.153  10.480 -0.2068 -0.1552  0.3198
29873SOL    HW196480   6.846   8.198  10.423 -0.4059  0.4528  0.5758
29873SOL    HW296481   6.811   8.061  10.479  0.6352  0.0989  0.3764
29874SOL     OW96482   2.444   9.908   2.922 -0.1116 -0.5200  0.1962
29874SOL    HW196483   2.406   9.849   2.857  1.2822 -1.3385  0.0675
29874SOL    HW296484   2.402   9.882   3.004 -3.7403  2.1823 -0.6153
29875SOL     OW96485   4.137   7.321   7.138 -0.2056 -0.5621 -0.0795
29875SOL    HW196486   4.218   7.361   7.171 -0.7234  0.6087 -0.1928
29875SOL    HW296487   4.105   7.268   7.211 -0.5444  0.8050  0.7975
29876SOL     OW96488   0.339   3.186   4.649 -0.4692  0.0592  0.1274
29876SOL    HW196489   0.356   3.220   4.736 -1.3026 -1.2271  0.8249
29876SOL    HW296490   0.382   3.247   4.590  0.5239  0.6822  1.4607
29877SOL     OW96491  11.680   5.645   3.847  0.4707  0.5785 -0.1845
29877SOL    HW196492  11.604   5.635   3.789  0.1131 -0.4404  0.4297
29877SOL    HW296493  11.689   5.739   3.860 -0.2457  0.7437 -0.8425
29878SOL     OW96494   8.882   8.250   8.371  0.1719  0.6474 -0.3930
29878SOL    HW196495   8.933   8.171   8.389  1.2024  1.1639 -0.9116
29878SOL    HW296496   8.856   8.282   8.457 -2.2168 -1.4343 -0.2234
29879SOL     OW96497   6.996   8.419   4.516  0.1720 -0.4860  0.0677
29879SOL    HW196498   6.945   8.454   4.589  0.1945  1.5614 -0.8208
29879SOL    HW296499   7.087   8.434   4.540  0.2614 -1.5483  0.4231
29880SOL     OW96500  11.974   7.823   1.896 -0.6798 -0.1190 -0.4420
29880SOL    HW196501  12.001   7.856   1.811 -0.3199 -0.6439 -0.5305
29880SOL    HW296502  12.014   7.737   1.903 -0.7146 -0.0850  0.2557
29881SOL     OW96503   7.231  12.286   6.724  0.2942  0.0472 -0.0708
29881SOL    HW196504   7.142  12.320   6.736 -0.0160  0.4291 -2.7886
29881SOL    HW296505   7.280  12.360   6.687  1.5040 -0.4563  0.4565
29882SOL     OW96506   9.169  11.526   0.726  0.2768  0.0600 -0.1540
29882SOL    HW196507   9.242  11.493   0.675 -0.0537  0.2421 -0.7600
29882SOL    HW296508   9.207  11.549   0.811  0.6932 -0.9423 -0.0548
29883SOL     OW96509   3.979   1.184  10.697  0.2446 -0.2656  0.2970
29883SOL    HW196510   4.068   1.199  10.726  0.3657  0.1516 -0.2773
29883SOL    HW296511   3.926   1.246  10.747  0.4906  0.6730 -0.5724
29884SOL     OW96512  11.512  11.070   5.250  0.5605 -0.1107  0.4401
29884SOL    HW196513  11.464  11.016   5.312  0.6817 -1.0655 -0.2716
29884SOL    HW296514  11.571  11.009   5.206  1.8778  0.8854  0.7459
29885SOL     OW96515   3.101   8.774   6.350  0.5880 -0.3571 -0.3470
29885SOL    HW196516   3.066   8.820   6.273 -1.6844 -0.8945  0.2935
29885SOL    HW296517   3.174   8.828   6.378 -0.2040  1.3080 -1.3174
29886SOL     OW96518   5.740  10.581   0.503  0.8068  0.2599  0.1871
29886SOL    HW196519   5.797  10.566   0.428 -1.1144  1.1179 -1.5685
29886SOL    HW296520   5.658  10.614   0.465 -0.4412  0.2800  2.6374
29887SOL     OW96521  10.159   4.481   5.250  0.5005 -0.2651 -0.4270
29887SOL    HW196522  10.142   4.395   5.212  0.5502 -0.5674  0.2166
29887SOL    HW296523  10.114   4.542   5.192 -0.7888 -0.8428 -0.0798
29888SOL     OW96524  10.529   2.098   9.976 -0.3251 -0.7865  0.6294
29888SOL    HW196525  10.548   2.103  10.070  0.6554 -1.0428  0.4568
29888SOL    HW296526  10.438   2.125   9.969  0.1151  1.0548  1.4479
29889SOL     OW96527   7.666   3.650   7.131 -0.0238  0.0960  0.6436
29889SOL    HW196528   7.745   3.684   7.173  1.3809 -0.0583 -1.6749
29889SOL    HW296529   7.698   3.586   7.068 -1.9758  0.1497 -0.4922
29890SOL     OW96530   1.072   9.974   8.714 -0.2346 -0.4490  0.2212
29890SOL    HW196531   1.139  10.000   8.651  0.3351 -0.9580  0.6120
29890SOL    HW296532   0.992  10.017   8.683  0.1436 -0.3031 -0.5732
29891SOL     OW96533   6.114  10.924   6.594  0.1739 -0.2664 -0.2539
29891SOL    HW196534   6.052  10.967   6.536  0.8640  0.6555 -0.3357
29891SOL    HW296535   6.172  10.994   6.624 -0.2785 -0.6577  1.7162
29892SOL     OW96536   0.594   0.421   3.339  0.0019  0.1193 -0.7011
29892SOL    HW196537   0.549   0.398   3.258  0.4131 -2.1539 -0.3503
29892SOL    HW296538   0.557   0.362   3.405  1.8235 -0.2590  0.0699
29893SOL     OW96539   3.100   5.685   7.154  0.8921  0.0804 -0.0446
29893SOL    HW196540   3.146   5.608   7.186  1.0954 -0.3381 -1.2808
29893SOL    HW296541   3.037   5.651   7.090  2.7545  1.0775 -2.5867
29894SOL     OW96542   4.948   0.013   8.568 -0.1721 -0.4563 -0.0561
29894SOL    HW196543   4.888   0.013   8.494 -0.0384  2.5959 -0.3162
29894SOL    HW296544   4.892   0.019   8.646 -0.2742  0.0072 -0.1608
29895SOL     OW96545  12.215   4.402   7.865 -0.0513 -0.1356 -0.8507
29895SOL    HW196546  12.254   4.478   7.908 -0.1378 -0.1017 -0.8326
29895SOL    HW296547  12.142   4.437   7.815  0.3789 -0.0956 -1.4663
29896SOL     OW96548   4.401  10.978   3.269  0.2084  0.1384 -0.2427
29896SOL    HW196549   4.322  10.929   3.290 -0.8556  1.2617 -1.3963
29896SOL    HW296550   4.473  10.921   3.295 -0.9665 -0.5387  1.6992
29897SOL     OW96551   4.018   2.053   2.333 -0.0206  0.2705  1.0433
29897SOL    HW196552   4.017   2.051   2.429  1.0272 -1.2390  1.0600
29897SOL    HW296553   4.079   1.983   2.309 -1.4907 -0.4694 -0.7548
29898SOL     OW96554  11.662   2.173   8.286 -0.2701  0.2399  0.3809
29898SOL    HW196555  11.713   2.160   8.366  0.7853  0.2353 -0.2786
29898SOL    HW296556  11.680   2.095   8.233  1.1404  1.3999 -0.9592
29899SOL     OW96557   3.183  11.170   1.674 -0.1175  0.3674  0.2010
29899SOL    HW196558   3.189  11.187   1.580 -1.1060  0.0530  0.0668
29899SOL    HW296559   3.274  11.156   1.702  0.1736  0.3573 -0.7242
29900SOL     OW96560   6.931   2.198   9.003 -0.6512 -0.4206 -0.4745
29900SOL    HW196561   6.883   2.135   9.057 -0.4307  0.5697  0.9668
29900SOL    HW296562   6.875   2.213   8.927 -1.6726 -0.7890  0.1832
29901SOL     OW96563   2.257   1.857   3.209  0.3212  0.3308  0.0102
29901SOL    HW196564   2.268   1.942   3.166 -0.3138  0.0078 -0.8314
29901SOL    HW296565   2.275   1.874   3.301  0.8656  1.2339 -0.2507
29902SOL     OW96566   3.533   7.312   0.501  0.4039 -0.3872 -0.1919
29902SOL    HW196567   3.476   7.286   0.428  0.6716 -0.7165 -0.2890
29902SOL    HW296568   3.476   7.311   0.578  0.0238  0.3618 -0.4560
29903SOL     OW96569  10.974   8.397   5.343  0.1393  0.2086  0.0989
29903SOL    HW196570  10.902   8.439   5.390 -1.3555 -1.2050 -0.7931
29903SOL    HW296571  10.931   8.333   5.286  2.1931 -1.6322  0.4684
29904SOL     OW96572   6.381  11.864   0.103  0.2787 -0.6011  0.6466
29904SOL    HW196573   6.383  11.908   0.018  1.3592 -1.3376  0.2802
29904SOL    HW296574   6.296  11.819   0.104 -1.6459  2.6291  1.6890
29905SOL     OW96575   4.706   5.514  10.023  0.1243  0.1893 -0.0021
29905SOL    HW196576   4.660   5.485  10.101 -0.2493  0.4222 -0.1351
29905SOL    HW296577   4.743   5.599  10.046  0.4168  0.0436  0.0750
29906SOL     OW96578   6.393   4.136  11.025  0.5878 -0.9035 -0.4088
29906SOL    HW196579   6.362   4.227  11.024  1.5645 -0.5652 -0.4457
29906SOL    HW296580   6.316   4.085  11.051  0.0054 -0.0795 -0.4731
29907SOL     OW96581   1.672   8.250   8.487 -0.0126 -0.0263  0.1984
29907SOL    HW196582   1.723   8.173   8.460  0.0297 -0.1615  0.6539
29907SOL    HW296583   1.738   8.310   8.522 -0.1593 -0.1821  0.7442
29908SOL     OW96584   5.472   6.565   6.447 -0.2248  0.5028  0.1134
29908SOL    HW196585   5.462   6.536   6.538  0.2093 -0.7921 -0.2266
29908SOL    HW296586   5.389   6.544   6.405 -0.6034  1.5532  0.3136
29909SOL     OW96587   1.912   2.772   0.831  0.5201  0.0680 -0.4960
29909SOL    HW196588   1.831   2.805   0.792  0.8857  0.9020 -0.5715
29909SOL    HW296589   1.973   2.765   0.758  1.3728  2.1478 -0.0529
29910SOL     OW96590   8.666   6.504   5.960  0.0296 -0.0159 -0.1281
29910SOL    HW196591   8.677   6.455   5.879 -0.5821 -1.5379  0.6746
29910SOL    HW296592   8.580   6.545   5.952  0.4595  0.7901 -0.7199
29911SOL     OW96593   4.169   6.211   6.756  0.0486 -0.1238 -0.2038
29911SOL    HW196594   4.224   6.277   6.798 -0.3801 -0.1579  0.4234
29911SOL    HW296595   4.172   6.233   6.663 -1.1006  1.5921  0.1061
29912SOL     OW96596   3.332  12.453   3.130  0.0304 -0.2698 -0.3078
29912SOL    HW196597   3.381  12.534   3.142  0.2086 -0.5193  0.6549
29912SOL    HW296598   3.377  12.408   3.059 -0.5931  0.8652 -1.4710
29913SOL     OW96599   6.472   2.887   0.775  0.2962 -0.4905  0.3182
29913SOL    HW196600   6.377   2.897   0.785  0.5085  1.9778  0.5457
29913SOL    HW296601   6.502   2.858   0.861 -0.3493 -2.7462 -0.1541
29914SOL     OW96602   8.139   2.454   7.928  0.1826  0.2678  0.9755
29914SOL    HW196603   8.093   2.430   7.848  1.7739  2.9106 -0.8813
29914SOL    HW296604   8.070   2.464   7.993 -1.3707 -0.1550 -0.5410
29915SOL     OW96605  10.610   9.338   9.114 -0.0897 -0.1239 -0.1666
29915SOL    HW196606  10.578   9.410   9.168  1.2206  0.2715  0.1153
29915SOL    HW296607  10.534   9.310   9.063 -1.4408 -0.6951  2.0506
29916SOL     OW96608   4.456   0.334   7.411  0.8856  0.0877  0.1050
29916SOL    HW196609   4.480   0.299   7.325  1.4912  0.9296 -0.0841
29916SOL    HW296610   4.361   0.331   7.413  0.8988 -0.9647 -0.1479
29917SOL     OW96611   5.442  11.758   6.429  0.6221 -0.9485 -0.8617
29917SOL    HW196612   5.378  11.796   6.369  0.3405  0.6443  0.3904
29917SOL    HW296613   5.392  11.691   6.476  0.0696 -0.2791 -0.4688
29918SOL     OW96614   1.371   5.320   4.619 -0.2631 -0.2286 -0.0570
29918SOL    HW196615   1.394   5.229   4.599  1.6319  0.1695  0.1940
29918SOL    HW296616   1.375   5.365   4.535  1.9163  0.2323  0.2393
29919SOL     OW96617   5.055   5.887   6.302 -0.0932  0.4822  0.2406
29919SOL    HW196618   5.069   5.902   6.208 -0.0815  1.5995  0.4002
29919SOL    HW296619   5.114   5.950   6.345 -1.4339  1.2820  0.9774
29920SOL     OW96620   0.745   9.005   2.105  0.6411  0.3496 -0.7258
29920SOL    HW196621   0.824   9.000   2.051  0.8009 -2.0200 -0.3843
29920SOL    HW296622   0.673   8.993   2.043  0.8064 -1.9233 -0.5726
29921SOL     OW96623   4.548  10.608   8.312  0.0507 -0.3748  0.0631
29921SOL    HW196624   4.603  10.564   8.248 -0.4380 -0.0495 -0.5899
29921SOL    HW296625   4.506  10.538   8.362 -1.2395 -0.7043 -1.4004
29922SOL     OW96626   4.051   7.860  10.855 -0.1643  0.4491  0.2112
29922SOL    HW196627   3.960   7.878  10.881 -0.0708 -1.3884  2.0282
29922SOL    HW296628   4.049   7.861  10.760 -1.9595  1.0177  0.2131
29923SOL     OW96629   5.090   1.436   5.375  0.1245 -0.4918 -0.1238
29923SOL    HW196630   5.010   1.431   5.323  0.0682  0.4092 -0.1410
29923SOL    HW296631   5.140   1.358   5.351  0.0978 -0.0968 -1.5210
29924SOL     OW96632   8.193   7.651   8.242 -0.0391  0.0831  0.5309
29924SOL    HW196633   8.252   7.631   8.315  0.3914  0.4897  0.3009
29924SOL    HW296634   8.235   7.725   8.197 -1.6515  1.6556  1.4734
29925SOL     OW96635  10.854   8.862   5.147  0.6560 -0.1252 -0.2167
29925SOL    HW196636  10.871   8.771   5.169 -1.4376 -1.2288 -2.6185
29925SOL    HW296637  10.786   8.890   5.208 -0.4620 -1.0326 -0.9946
29926SOL     OW96638   4.565   7.349  10.238  0.6883 -0.4359  0.3162
29926SOL    HW196639   4.472   7.359  10.262  0.8851  0.8687  0.5956
29926SOL    HW296640   4.566   7.274  10.179 -0.2591 -1.7920  1.9073
29927SOL     OW96641   5.211   3.569   0.960  0.2175 -0.2848 -0.1068
29927SOL    HW196642   5.211   3.491   1.015 -0.8734  0.1369  0.5111
29927SOL    HW296643   5.239   3.537   0.873 -1.0782 -1.5271 -0.1006
29928SOL     OW96644   1.572   6.129   1.051 -0.4059  0.7128  0.1022
29928SOL    HW196645   1.552   6.055   1.109 -1.8966  2.2911  1.7050
29928SOL    HW296646   1.535   6.105   0.967 -0.9778 -0.3135  0.6341
29929SOL     OW96647   2.807   4.155   2.887 -0.3078 -0.1338  0.3523
29929SOL    HW196648   2.735   4.188   2.941 -1.0496  0.2427 -0.8179
29929SOL    HW296649   2.844   4.234   2.847 -0.6022 -0.5018 -0.6703
29930SOL     OW96650   7.509   1.112   7.803  1.1333  0.0786 -0.2544
29930SOL    HW196651   7.423   1.126   7.764  0.8254 -1.1457 -0.0456
29930SOL    HW296652   7.567   1.172   7.756 -0.0006  1.6189  0.2509
29931SOL     OW96653   6.672   3.836   6.530 -0.0431 -0.5856  0.2342
29931SOL    HW196654   6.728   3.786   6.588 -1.4635 -1.7452  0.6641
29931SOL    HW296655   6.677   3.926   6.563  1.8816 -0.5591 -0.0344
29932SOL     OW96656  10.781   3.946   5.895  0.3992  0.4472 -0.2924
29932SOL    HW196657  10.735   3.907   5.821  1.2895 -3.2050  0.9072
29932SOL    HW296658  10.791   4.039   5.870 -1.4023 -0.0977 -3.6190
29933SOL     OW96659   9.773  11.225  10.895  0.4971  0.3356  0.9487
29933SOL    HW196660   9.786  11.133  10.918  0.8435 -0.3587 -1.6724
29933SOL    HW296661   9.717  11.260  10.964 -1.5039 -2.4353  0.8632
29934SOL     OW96662   2.865   9.117   8.833  0.2596  0.1165 -0.3901
29934SOL    HW196663   2.914   9.120   8.751 -0.8415  0.1259 -1.0681
29934SOL    HW296664   2.775   9.097   8.807 -0.1316  0.2114  0.8078
29935SOL     OW96665  10.711   9.608   7.369 -0.7741  0.5538  0.1081
29935SOL    HW196666  10.715   9.674   7.439 -0.5183  1.2127 -0.5150
29935SOL    HW296667  10.702   9.659   7.289 -1.0697 -0.1972 -0.3439
29936SOL     OW96668   9.974   7.051   7.601  0.3643 -0.5015 -0.5483
29936SOL    HW196669  10.009   6.966   7.628 -0.7338 -0.8737 -0.2582
29936SOL    HW296670   9.883   7.033   7.578  0.1263  0.5960 -0.4948
29937SOL     OW96671  11.672   1.949   2.498  0.3167 -0.3174  0.0089
29937SOL    HW196672  11.687   1.886   2.569  0.2927 -0.1402  0.1687
29937SOL    HW296673  11.672   1.895   2.419  1.0906 -0.4193  0.0682
29938SOL     OW96674  10.878  11.064   5.305 -0.5040 -0.1800  0.2290
29938SOL    HW196675  10.896  11.025   5.220  1.1932  1.0544 -0.0217
29938SOL    HW296676  10.811  11.007   5.344  1.9103 -3.5153 -0.0186
29939SOL     OW96677   0.808   5.225   0.297  0.4974 -0.8224 -0.0928
29939SOL    HW196678   0.851   5.306   0.321  0.7358 -1.3346  1.2873
29939SOL    HW296679   0.723   5.228   0.341  1.9266 -2.9036  3.2447
29940SOL     OW96680   8.008   2.014   5.463  0.2418  0.0203  0.4484
29940SOL    HW196681   7.943   1.967   5.411  0.4449 -0.0213  0.2318
29940SOL    HW296682   8.038   1.949   5.528  1.6232 -0.6460 -0.7897
29941SOL     OW96683   4.835   7.943   1.047  0.2464 -0.0575 -0.7927
29941SOL    HW196684   4.925   7.974   1.041  0.2048 -0.0553 -1.4699
29941SOL    HW296685   4.835   7.883   1.121  1.0730 -0.9294 -1.4769
29942SOL     OW96686  10.806   1.309   5.934 -0.2268  0.2447 -0.2831
29942SOL    HW196687  10.746   1.323   5.860  0.8321  0.9974 -1.0390
29942SOL    HW296688  10.859   1.234   5.908 -0.5761 -0.1747  0.2058
29943SOL     OW96689  12.003  10.172   4.964  0.4717 -0.3090  0.0657
29943SOL    HW196690  11.974  10.263   4.953 -0.3054 -0.4712  0.7559
29943SOL    HW296691  12.094  10.173   4.932  0.7806  0.9072  0.9096
29944SOL     OW96692   7.352   0.695   6.367  0.4769  0.5574 -0.1976
29944SOL    HW196693   7.345   0.766   6.303 -0.3328 -0.2647 -1.0315
29944SOL    HW296694   7.291   0.628   6.337 -0.1817  0.2868  1.6191
29945SOL     OW96695   5.305   5.371   8.307 -0.3767 -1.2251  0.1715
29945SOL    HW196696   5.223   5.332   8.277 -2.1625  2.6030 -0.5867
29945SOL    HW296697   5.360   5.374   8.229 -1.0063 -0.5241 -0.2621
29946SOL     OW96698  10.730  10.209   8.700  0.5963 -0.0107  0.0951
29946SOL    HW196699  10.777  10.147   8.756 -0.3147  0.1980  1.1114
29946SOL    HW296700  10.641  10.176   8.696 -0.1529  1.7207  1.4295
29947SOL     OW96701   9.953   5.166   5.447  0.2305  0.2067  0.5622
29947SOL    HW196702  10.022   5.220   5.486  0.6187  0.1907 -0.0732
29947SOL    HW296703   9.913   5.121   5.521 -0.5913  1.9050  1.1956
29948SOL     OW96704   1.527   2.510   8.788 -0.1799  0.2921  1.0076
29948SOL    HW196705   1.616   2.535   8.763 -0.8082  2.6132  0.8586
29948SOL    HW296706   1.474   2.527   8.709 -0.8086 -0.8272  1.1683
29949SOL     OW96707   5.885   4.114   7.413  0.5186 -0.0081  0.1041
29949SOL    HW196708   5.831   4.156   7.481 -2.6331 -1.3388 -1.3756
29949SOL    HW296709   5.832   4.120   7.333  2.0607 -2.4748 -1.2318
29950SOL     OW96710   1.893   9.291   8.165 -0.3828  0.5038  0.9465
29950SOL    HW196711   1.959   9.280   8.234  1.1971 -0.3731 -0.6053
29950SOL    HW296712   1.821   9.234   8.191  1.3752 -2.0716  0.5462
29951SOL     OW96713  12.184  10.015   9.525 -0.8702 -0.4601 -0.2002
29951SOL    HW196714  12.144   9.932   9.500  0.6816 -1.6966  1.1574
29951SOL    HW296715  12.278   9.999   9.520 -0.4924  0.3332  2.5699
29952SOL     OW96716   5.548   5.777   8.984  0.6441 -0.3872 -0.2095
29952SOL    HW196717   5.533   5.683   8.987 -1.7050 -0.4017 -4.5032
29952SOL    HW296718   5.471   5.815   9.026  0.0926 -0.4219 -1.1716
29953SOL     OW96719  12.437  11.598   6.965 -0.1417 -0.1161  0.6480
29953SOL    HW196720  12.420  11.581   6.872  0.2511 -0.0569  0.5668
29953SOL    HW296721  12.502  11.533   6.990  0.0407  0.1220  0.7856
29954SOL     OW96722  10.730   8.552   1.993 -0.0444  0.1975  0.3181
29954SOL    HW196723  10.650   8.597   2.020  0.6742  1.9368 -0.3323
29954SOL    HW296724  10.704   8.502   1.915 -0.8915 -0.6921  1.1443
29955SOL     OW96725   9.055   2.049  12.316  0.3319 -0.5307  0.3930
29955SOL    HW196726   9.081   1.962  12.286 -0.4877 -0.0776 -1.7700
29955SOL    HW296727   9.073   2.048  12.410  1.7704 -2.5037  0.1599
29956SOL     OW96728  12.129   9.355   3.670  0.3277  0.4929 -0.0724
29956SOL    HW196729  12.090   9.323   3.589  1.1321  1.4355 -0.8578
29956SOL    HW296730  12.138   9.276   3.725 -1.7976  0.1111 -0.1901
29957SOL     OW96731   6.835   5.240   9.160  0.6192 -0.0074 -0.2199
29957SOL    HW196732   6.745   5.265   9.140  0.8685 -0.4373 -2.0391
29957SOL    HW296733   6.834   5.144   9.160  1.1736 -0.0191 -0.7729
29958SOL     OW96734   2.601  10.522   6.494 -0.5228 -0.0059 -0.5610
29958SOL    HW196735   2.568  10.604   6.532  0.9932  0.2415  0.3287
29958SOL    HW296736   2.568  10.522   6.404 -0.0614  1.9225 -0.7905
29959SOL     OW96737   6.178   4.053  11.740 -0.5921 -0.2712  0.1323
29959SOL    HW196738   6.186   4.147  11.752  0.9145 -0.0964 -1.6287
29959SOL    HW296739   6.183   4.016  11.828 -0.6624  1.2608  0.7988
29960SOL     OW96740   6.094   7.696   3.001 -0.6613  0.2073 -0.2319
29960SOL    HW196741   6.085   7.706   2.907  0.4024  1.3949 -0.2323
29960SOL    HW296742   6.157   7.625   3.013 -1.6779 -0.7553 -0.3653
29961SOL     OW96743   7.846   9.282   6.232  0.3298  0.0129 -0.1228
29961SOL    HW196744   7.805   9.351   6.285  0.2565  0.8221 -1.2161
29961SOL    HW296745   7.929   9.320   6.203 -0.3003  0.1723 -1.8234
29962SOL     OW96746   8.079   4.319   6.535  0.5262  0.4655 -0.6653
29962SOL    HW196747   8.151   4.285   6.482 -0.2376 -1.7111 -0.4076
29962SOL    HW296748   8.020   4.361   6.472 -0.3035 -1.9664 -1.6151
29963SOL     OW96749   1.082   8.254   3.475  0.0462 -0.4742 -0.1332
29963SOL    HW196750   1.113   8.252   3.566  0.7838  1.1667 -0.3114
29963SOL    HW296751   1.021   8.181   3.469  0.2127 -0.8044  1.5964
29964SOL     OW96752   2.482  11.816   9.445  0.2955  0.0366  0.1938
29964SOL    HW196753   2.563  11.801   9.396  0.2341 -0.3959  0.2200
29964SOL    HW296754   2.456  11.729   9.475 -0.4006  0.1155 -0.1599
29965SOL     OW96755   8.604   4.262   7.236  0.3028 -0.2640 -0.3823
29965SOL    HW196756   8.606   4.348   7.193 -3.4985 -0.6384 -1.6574
29965SOL    HW296757   8.581   4.201   7.167 -1.2441 -1.6467  1.2532
29966SOL     OW96758   5.436   4.888  11.696 -1.0989  0.7524 -0.3596
29966SOL    HW196759   5.497   4.838  11.749 -1.2691  0.2262 -0.6522
29966SOL    HW296760   5.352   4.879  11.742 -1.3263 -0.0143 -0.8983
29967SOL     OW96761   9.227  12.089   2.476 -0.0728 -0.2228  0.6249
29967SOL    HW196762   9.283  12.070   2.401 -0.3890  0.5999  0.1582
29967SOL    HW296763   9.199  12.180   2.462 -0.7616 -0.3155  1.3330
29968SOL     OW96764   8.218   2.019   7.692 -0.0910  0.4698 -0.3281
29968SOL    HW196765   8.220   2.019   7.788 -0.8125 -0.2230 -0.3055
29968SOL    HW296766   8.306   1.990   7.667 -0.0854  0.0844  0.1286
29969SOL     OW96767   1.372   0.600   1.425 -0.5951  0.6511  0.1474
29969SOL    HW196768   1.438   0.593   1.356 -1.9304  0.2160 -1.1422
29969SOL    HW296769   1.352   0.693   1.431 -0.3653  0.7057  0.0427
29970SOL     OW96770   4.465   6.507   4.800 -0.0407 -0.0186  0.2755
29970SOL    HW196771   4.501   6.497   4.712  0.5692 -0.7816  0.5899
29970SOL    HW296772   4.412   6.586   4.796 -0.3896 -0.2887 -0.8919
29971SOL     OW96773   3.989   0.848   1.254  0.4864 -0.7071  0.3864
29971SOL    HW196774   3.961   0.830   1.164 -1.3418  0.2761  0.7304
29971SOL    HW296775   3.910   0.842   1.306  1.5657 -1.5044  2.0035
29972SOL     OW96776   5.295   0.559   2.061 -0.0914 -0.2437  0.0868
29972SOL    HW196777   5.348   0.509   1.999 -1.9972 -2.9030  0.4265
29972SOL    HW296778   5.331   0.537   2.147  0.1363  0.3688  0.1534
29973SOL     OW96779   7.171   2.223   3.060  0.2542  0.1883 -0.4636
29973SOL    HW196780   7.197   2.156   3.123  0.4121  0.4865 -0.2085
29973SOL    HW296781   7.206   2.192   2.977 -2.0563 -1.4687 -0.9084
29974SOL     OW96782   0.280   7.436   0.940  0.1573 -0.6121 -0.4676
29974SOL    HW196783   0.338   7.360   0.933  1.8815  0.4761  1.0581
29974SOL    HW296784   0.199   7.401   0.976  1.3077 -1.6080  1.2978
29975SOL     OW96785   7.014   0.324   5.279 -0.0301 -0.4317  0.3231
29975SOL    HW196786   7.083   0.261   5.296 -1.1328 -2.8487 -3.0490
29975SOL    HW296787   6.934   0.272   5.270 -1.4118  1.6634 -0.6337
29976SOL     OW96788   9.324   6.976   9.137  0.0963  0.0504 -0.3144
29976SOL    HW196789   9.383   7.045   9.108  1.5894 -0.9088  0.3287
29976SOL    HW296790   9.242   7.021   9.156 -0.4309  1.0293 -4.1057
29977SOL     OW96791  10.972   2.064  11.320  0.1860 -0.8575  0.1483
29977SOL    HW196792  10.952   1.983  11.272  0.2600 -0.6377 -0.2558
29977SOL    HW296793  11.066   2.077  11.308  0.1043 -0.4972 -0.1259
29978SOL     OW96794   7.435   6.874   5.770  0.4827 -0.0390 -0.1847
29978SOL    HW196795   7.445   6.962   5.806  0.4927 -0.3220  0.5184
29978SOL    HW296796   7.396   6.888   5.684  1.6168  0.7297 -0.5976
29979SOL     OW96797   9.203   3.211   2.435  0.0111 -0.4452 -0.0244
29979SOL    HW196798   9.179   3.198   2.343  0.3996 -0.2372 -0.1623
29979SOL    HW296799   9.151   3.147   2.483 -1.2113  0.3643 -0.2462
29980SOL     OW96800   2.796   5.509  11.995  0.5539  0.0942  1.0556
29980SOL    HW196801   2.772   5.488  11.905  0.9702 -0.3940  1.0519
29980SOL    HW296802   2.778   5.430  12.045 -0.7552  0.7293  1.6288
29981SOL     OW96803  11.480   6.539   9.877  0.0325 -0.3205 -0.2270
29981SOL    HW196804  11.399   6.557   9.925  0.1532  0.4290 -0.2989
29981SOL    HW296805  11.548   6.534   9.944 -0.1370 -1.4016 -0.1210
29982SOL     OW96806   6.527   1.328  10.138  0.7064 -0.4124  0.2980
29982SOL    HW196807   6.524   1.336  10.043 -2.6114  0.0470  0.3220
29982SOL    HW296808   6.616   1.354  10.162  0.8092  2.3124 -2.4723
29983SOL     OW96809   1.414   0.253   8.411 -0.3600 -0.3453 -0.0830
29983SOL    HW196810   1.425   0.309   8.488 -1.5234 -0.5941  0.2772
29983SOL    HW296811   1.504   0.231   8.385  0.0430 -0.9684  1.7120
29984SOL     OW96812   7.126   2.829   7.536  0.0093  1.0184  0.5060
29984SOL    HW196813   7.067   2.891   7.579  0.6758  1.8006  0.2998
29984SOL    HW296814   7.075   2.796   7.462 -0.8252  0.3146  1.3624
29985SOL     OW96815   1.900   4.563   3.757  0.0171  0.3753 -0.1378
29985SOL    HW196816   1.974   4.623   3.766 -0.2918  0.7306  0.0864
29985SOL    HW296817   1.824   4.614   3.785 -0.6903  0.8013 -2.6053
29986SOL     OW96818   7.201  11.046   9.609 -0.0850  0.3212 -0.2333
29986SOL    HW196819   7.145  10.989   9.556  0.8914 -1.2484  0.3518
29986SOL    HW296820   7.268  11.077   9.549 -1.5309  2.2753 -0.9578
29987SOL     OW96821   2.133   3.960  12.471 -0.3886  0.4731  0.3199
29987SOL    HW196822   2.072   3.897  12.510 -0.9575  1.5221  1.1649
29987SOL    HW296823   2.162   4.014  12.544  1.8467 -0.1921 -0.0156
29988SOL     OW96824  12.436   6.885   6.132  0.3541 -0.5146  0.1707
29988SOL    HW196825  12.367   6.822   6.154 -0.3776 -0.3408 -1.4967
29988SOL    HW296826  12.517   6.841   6.158 -0.1606 -2.0489 -0.6806
29989SOL     OW96827  12.068  10.556   0.832 -0.4292 -0.4461 -0.5002
29989SOL    HW196828  11.974  10.553   0.850 -0.4373 -1.0680 -0.6069
29989SOL    HW296829  12.105  10.488   0.889  0.0949  0.5068  0.3166
29990SOL     OW96830   5.387  12.382   1.003  0.0662 -0.1769 -0.3550
29990SOL    HW196831   5.399  12.390   0.908 -1.8703  2.0758 -0.5190
29990SOL    HW296832   5.469  12.414   1.040  0.7709 -0.8780 -1.2343
29991SOL     OW96833   4.800  11.689  10.344  0.2759  0.4208 -0.0571
29991SOL    HW196834   4.849  11.639  10.409  0.5030 -0.1497 -0.6520
29991SOL    HW296835   4.716  11.643  10.336  0.8068 -0.4092 -1.2241
29992SOL     OW96836  11.029  10.728   3.098  0.0247  0.4343  0.1229
29992SOL    HW196837  11.018  10.795   3.031  1.2579  1.4909  0.9227
29992SOL    HW296838  11.071  10.655   3.053 -2.7987 -0.5644 -1.1500
29993SOL     OW96839  10.410   9.568  11.847  0.6247 -0.2467 -0.1913
29993SOL    HW196840  10.346   9.625  11.805  0.3749 -1.1379 -1.0410
29993SOL    HW296841  10.369   9.482  11.847  0.8583 -0.3968  1.3812
29994SOL     OW96842   0.699   9.619   1.961  0.3103 -0.3522 -0.4881
29994SOL    HW196843   0.628   9.576   1.913 -2.3660  0.6677  2.2356
29994SOL    HW296844   0.704   9.571   2.043  1.4924  0.7760  0.1302
29995SOL     OW96845   8.539   0.215   8.931 -0.1030 -0.3660  0.3311
29995SOL    HW196846   8.484   0.165   8.871  1.0201  0.9167 -1.8988
29995SOL    HW296847   8.514   0.306   8.916  0.7084  0.0305  1.2883
29996SOL     OW96848   4.916   0.664   2.669 -1.0630 -0.2127 -0.1978
29996SOL    HW196849   4.937   0.604   2.597  2.7238 -1.0039  1.3355
29996SOL    HW296850   4.977   0.737   2.658 -1.1816  0.1914  1.5958
29997SOL     OW96851   9.953   4.226  12.463 -0.1972  0.3171 -0.1990
29997SOL    HW196852   9.980   4.263  12.379  0.0234 -0.8456 -0.6570
29997SOL    HW296853   9.986   4.137  12.462 -0.3468  0.2290  1.0595
29998SOL     OW96854   2.773   8.919  10.873 -0.1146 -0.0705  0.1630
29998SOL    HW196855   2.693   8.899  10.921 -1.2608 -1.4638 -2.1767
29998SOL    HW296856   2.825   8.839  10.879 -1.4893 -1.3912 -3.0310
29999SOL     OW96857   1.081  11.804   2.849 -0.4664 -0.2651 -0.1590
29999SOL    HW196858   1.017  11.795   2.919 -0.6699  0.5537 -0.2349
29999SOL    HW296859   1.030  11.802   2.769 -0.1965 -1.5885 -0.3175
30000SOL     OW96860   8.073   5.232   2.746 -0.2042  0.1811 -0.3036
30000SOL    HW196861   8.159   5.202   2.776 -0.2416 -0.2488 -0.6169
30000SOL    HW296862   8.045   5.165   2.684 -2.0482 -1.2570  1.9171
30001SOL     OW96863   7.542   9.465   7.275 -0.2952 -0.2082  0.5054
30001SOL    HW196864   7.521   9.379   7.238  0.3404 -0.5819  0.9910
30001SOL    HW296865   7.617   9.449   7.332  1.3382  1.0840 -1.1847
30002SOL     OW96866   4.344   1.801   3.324 -0.1868  0.2830  0.3003
30002SOL    HW196867   4.305   1.873   3.275 -0.1403  0.2021  0.1465
30002SOL    HW296868   4.357   1.838   3.412 -2.4631 -0.3029  0.9452
30003SOL     OW96869   4.481   9.203   8.262 -0.1167 -0.1804  0.0000
30003SOL    HW196870   4.507   9.272   8.323  0.5145 -1.0137  0.6998
30003SOL    HW296871   4.401   9.167   8.299 -2.3431  2.2517 -2.0497
30004SOL     OW96872   9.510   4.707   4.795 -0.2043  0.5669  0.5834
30004SOL    HW196873   9.428   4.716   4.745  0.4659  0.4238 -0.5617
30004SOL    HW296874   9.528   4.613   4.795 -0.2189  0.5639  1.1310
30005SOL     OW96875   3.105   2.367   1.332 -1.0744 -0.1415 -0.2620
30005SOL    HW196876   3.031   2.322   1.373  0.1885 -1.9975  0.1148
30005SOL    HW296877   3.167   2.297   1.312  0.3869  1.3064 -0.9889
30006SOL     OW96878  10.641  10.026   4.664 -0.2455  0.7189 -0.0985
30006SOL    HW196879  10.706  10.055   4.728 -1.7623  2.6005  0.6776
30006SOL    HW296880  10.622   9.935   4.689  0.7355  0.7334  0.7769
30007SOL     OW96881   3.995   3.639   9.120  0.2410 -0.4526 -0.0104
30007SOL    HW196882   3.954   3.553   9.108  0.9899 -0.6593 -1.2935
30007SOL    HW296883   4.008   3.671   9.031 -0.6199  1.3021  0.4522
30008SOL     OW96884   8.527   7.937   3.420  0.4363  0.4027  0.0291
30008SOL    HW196885   8.439   7.946   3.457  0.7557  1.8718  0.4961
30008SOL    HW296886   8.518   7.966   3.329  0.3616  0.1532 -0.0443
30009SOL     OW96887   9.185  11.453   8.855 -0.1068  0.1381 -0.0206
30009SOL    HW196888   9.162  11.539   8.820  0.5809  0.2189 -0.3130
30009SOL    HW296889   9.279  11.460   8.876 -0.0401 -0.5385 -0.0529
30010SOL     OW96890   0.332   7.347   6.359 -0.6863  0.1686  0.4113
30010SOL    HW196891   0.309   7.398   6.282 -1.1995 -0.7222 -0.0422
30010SOL    HW296892   0.315   7.406   6.433  0.3154  1.2187 -0.1583
30011SOL     OW96893   5.418   3.515   6.516  0.2529 -0.2737  0.4971
30011SOL    HW196894   5.370   3.445   6.561 -1.0517 -0.2402 -0.7960
30011SOL    HW296895   5.504   3.476   6.497  0.0778 -0.9997  1.1111
30012SOL     OW96896  11.874   0.463  11.684 -0.7304  0.3411 -0.0708
30012SOL    HW196897  11.922   0.545  11.691 -0.4495  0.3574 -1.8593
30012SOL    HW296898  11.918   0.415  11.614 -1.7114 -0.7656  0.0450
30013SOL     OW96899   8.182   9.657   0.399  0.1652  0.2176  0.1563
30013SOL    HW196900   8.237   9.580   0.381  1.1121  0.8238  0.3971
30013SOL    HW296901   8.165   9.695   0.313 -2.3657 -1.5847 -0.2630
30014SOL     OW96902   1.371   2.716  11.772  0.5773 -0.3551  0.1982
30014SOL    HW196903   1.461   2.715  11.742  0.7461 -0.0847  0.6920
30014SOL    HW296904   1.339   2.627  11.756  1.8357 -1.3448  2.6972
30015SOL     OW96905   2.065   1.194  10.435  0.0875 -0.6153  0.5163
30015SOL    HW196906   2.119   1.217  10.359  1.9196 -1.7180  1.4405
30015SOL    HW296907   2.072   1.270  10.493 -1.2915  0.2178 -0.3084
30016SOL     OW96908  12.111   0.084   4.522  0.0601  0.5892 -0.9106
30016SOL    HW196909  12.062   0.004   4.503 -1.3749  1.4105 -0.8227
30016SOL    HW296910  12.046   0.154   4.514  1.2848  1.7500 -0.9926
30017SOL     OW96911  10.079  10.293   6.125  0.1764  0.1778 -0.2103
30017SOL    HW196912  10.171  10.271   6.137 -0.1406 -1.6712 -0.7632
30017SOL    HW296913  10.079  10.371   6.069  1.3931  0.4972  0.2210
30018SOL     OW96914   6.158   4.662  10.938 -0.0670  0.0317 -0.5414
30018SOL    HW196915   6.068   4.644  10.967  0.3484 -0.3723  0.5745
30018SOL    HW296916   6.148   4.709  10.856 -1.2740 -1.7217 -1.4703
30019SOL     OW96917  11.727  10.896   4.013  0.2408  0.0499 -0.1235
30019SOL    HW196918  11.746  10.975   3.962 -2.1152  1.4642  1.0084
30019SOL    HW296919  11.672  10.927   4.085  1.5008 -2.2213  1.9721
30020SOL     OW96920   9.312  10.176   0.713  0.3331 -0.5203 -0.1949
30020SOL    HW196921   9.237  10.236   0.715 -0.1420 -0.9964 -2.1228
30020SOL    HW296922   9.326  10.154   0.805  0.0664  1.9463  0.5127
30021SOL     OW96923   6.479   3.038  10.728 -0.2515  0.0487 -0.4860
30021SOL    HW196924   6.463   2.944  10.734 -1.0841  0.2640  1.2865
30021SOL    HW296925   6.564   3.045  10.685 -0.7886 -1.4474 -1.8670
30022SOL     OW96926  10.210   9.863   2.461  0.4624  0.5552 -0.5113
30022SOL    HW196927  10.260   9.915   2.398 -0.8662  0.1752 -1.9510
30022SOL    HW296928  10.203   9.919   2.538  0.8983  1.6460 -1.2326
30023SOL     OW96929   1.153   4.443   4.506 -0.5892  0.0857 -0.0347
30023SOL    HW196930   1.088   4.380   4.538 -1.2168  0.4493 -0.5883
30023SOL    HW296931   1.159   4.508   4.576  0.5818 -0.9182  0.8672
30024SOL     OW96932  10.431   2.779   5.742 -0.0399 -0.5358 -0.0713
30024SOL    HW196933  10.488   2.708   5.773  0.1680 -0.5435 -0.4748
30024SOL    HW296934  10.365   2.787   5.811 -0.2598 -1.3430 -0.1835
30025SOL     OW96935  11.185   4.752  10.171  0.5274 -0.2349 -0.5781
30025SOL    HW196936  11.281   4.751  10.172  0.5720 -2.9411 -0.1861
30025SOL    HW296937  11.161   4.665  10.139 -1.8067  0.0409  0.2471
30026SOL     OW96938   4.618  10.024   8.944  0.1476 -1.0809 -0.4963
30026SOL    HW196939   4.667   9.981   8.873  0.0041  0.9440 -1.9163
30026SOL    HW296940   4.686  10.066   8.997  0.1067  0.5879 -1.6859
30027SOL     OW96941   3.845  11.112   1.417  0.0004 -0.0568  0.2230
30027SOL    HW196942   3.755  11.144   1.415 -0.0098 -0.0204  0.9985
30027SOL    HW296943   3.838  11.024   1.456  0.3989  0.3202  1.1857
30028SOL     OW96944   8.388  10.692   7.831 -0.1113  0.2774  0.0086
30028SOL    HW196945   8.473  10.660   7.859 -0.0795 -1.2360 -1.6492
30028SOL    HW296946   8.349  10.729   7.910  1.3880 -0.5333  1.1746
30029SOL     OW96947   6.386   8.499  11.120 -0.5064 -0.9735  0.5111
30029SOL    HW196948   6.346   8.516  11.035  1.1947 -0.3499 -0.2125
30029SOL    HW296949   6.338   8.424  11.154 -0.3178 -2.1493 -1.6377
30030SOL     OW96950  10.562   3.595   0.102  0.7160  0.3005 -0.0172
30030SOL    HW196951  10.495   3.548   0.152 -1.1506  1.8977 -0.8486
30030SOL    HW296952  10.629   3.530   0.082 -0.2711 -1.2184  1.4322
30031SOL     OW96953   5.330   9.308   9.772 -0.1581  0.1256 -0.6462
30031SOL    HW196954   5.290   9.301   9.859  0.1099 -0.6112 -0.5727
30031SOL    HW296955   5.416   9.347   9.789  0.2042 -0.7126 -0.4701
30032SOL     OW96956  10.729   6.109   5.369  0.1783  0.6313  0.2565
30032SOL    HW196957  10.774   6.190   5.345 -0.5462  0.8599 -0.3714
30032SOL    HW296958  10.636   6.130   5.360 -0.1087  0.3660  2.1121
30033SOL     OW96959  11.838   6.535   6.800  0.2488  0.1030  0.0965
30033SOL    HW196960  11.830   6.617   6.848 -0.3423  0.2630 -0.2655
30033SOL    HW296961  11.802   6.468   6.858 -0.5380  0.3069 -0.1420
30034SOL     OW96962   5.516   0.928   8.864 -0.3449 -0.2163 -0.3095
30034SOL    HW196963   5.502   0.833   8.868  3.0412 -0.8084  1.0602
30034SOL    HW296964   5.506   0.958   8.954  1.4458  0.1504 -0.1958
30035SOL     OW96965   8.119   7.819   3.514  0.3206 -0.1223 -0.1682
30035SOL    HW196966   8.157   7.903   3.488 -2.0622  0.6450 -1.5184
30035SOL    HW296967   8.115   7.769   3.432 -1.0705 -0.3295  0.0005
30036SOL     OW96968   0.066   9.064   5.080  0.3083  0.0417  0.3531
30036SOL    HW196969  -0.006   9.025   5.029  0.2831  1.3071 -0.6225
30036SOL    HW296970   0.056   9.027   5.168 -0.1507 -1.5652 -0.3363
30037SOL     OW96971   0.359  10.667   0.248 -0.1524 -0.5318 -0.0583
30037SOL    HW196972   0.291  10.634   0.189 -0.5870  0.4721 -0.1253
30037SOL    HW296973   0.423  10.708   0.190 -0.2147 -0.1905  0.1134
30038SOL     OW96974   6.767   2.222   7.426  0.3969 -0.2249 -0.3777
30038SOL    HW196975   6.759   2.316   7.439  1.6875 -0.2080  0.4341
30038SOL    HW296976   6.802   2.213   7.338  0.0806  0.0395 -0.5330
30039SOL     OW96977   4.115  11.230   9.702 -0.3488  0.4074 -0.3451
30039SOL    HW196978   4.156  11.185   9.628 -0.4878  0.4557 -0.4500
30039SOL    HW296979   4.099  11.160   9.766  0.7209  0.5161  0.0744
30040SOL     OW96980   7.215  10.099   5.554 -0.0573  0.1231 -0.4746
30040SOL    HW196981   7.267  10.072   5.630 -0.1431  1.5748  0.1432
30040SOL    HW296982   7.151  10.028   5.542 -1.1208  0.5810  1.8849
30041SOL     OW96983   3.013   6.239   5.141  0.2271  0.1283 -0.3377
30041SOL    HW196984   2.993   6.315   5.196 -2.2977 -0.5912 -0.1674
30041SOL    HW296985   3.105   6.252   5.116  0.7913  1.6384  2.1651
30042SOL     OW96986   8.869   3.577  12.415 -0.7012  0.2198  0.1264
30042SOL    HW196987   8.916   3.505  12.458 -0.3477  1.2034  1.4454
30042SOL    HW296988   8.807   3.607  12.481 -2.0043  0.0607 -0.9996
30043SOL     OW96989   0.331   3.692   7.004 -0.0381 -0.7918 -0.2436
30043SOL    HW196990   0.243   3.666   7.032 -0.1216 -0.3548 -0.0885
30043SOL    HW296991   0.324   3.704   6.909 -1.0129  2.3969  0.1010
30044SOL     OW96992   0.475   7.824   0.031 -0.0243 -0.0853  0.2330
30044SOL    HW196993   0.506   7.874   0.106  0.9656 -0.1270 -0.1318
30044SOL    HW296994   0.412   7.762   0.068 -0.1126  0.3976  0.9096
30045SOL     OW96995   2.317   5.140   0.995 -0.4526 -0.1395 -0.2725
30045SOL    HW196996   2.280   5.102   0.915  0.7711  0.4229 -1.1490
30045SOL    HW296997   2.348   5.226   0.967 -0.7540  0.4053  1.0263
30046SOL     OW96998   3.405  11.869   2.603  0.2582 -0.2658  0.1844
30046SOL    HW196999   3.412  11.804   2.534  0.5653 -1.3455  1.2096
30046SOL    HW297000   3.486  11.860   2.653  0.7776  1.6134 -0.2369
30047SOL     OW97001   6.936   6.933   4.189  0.2008 -0.6035 -0.4079
30047SOL    HW197002   6.954   6.967   4.101 -0.1482 -0.1854 -0.3230
30047SOL    HW297003   6.843   6.949   4.201 -0.0423 -1.8671 -0.4760
30048SOL     OW97004   3.637   8.482   4.788 -0.2319 -0.1123 -0.0025
30048SOL    HW197005   3.557   8.514   4.747  0.0021 -1.6018 -1.7098
30048SOL    HW297006   3.702   8.481   4.718  0.9543 -0.1186  1.0566
30049SOL     OW97007   9.965   3.750   0.731 -0.0073 -0.5277 -0.1452
30049SOL    HW197008   9.894   3.698   0.694 -0.8456 -0.3701  1.1806
30049SOL    HW297009  10.037   3.688   0.743 -0.2130 -0.8753 -0.6711
30050SOL     OW97010  11.240   1.634   8.048 -0.2668  0.4307  0.3212
30050SOL    HW197011  11.269   1.651   8.138 -1.5474  0.7269  0.7117
30050SOL    HW297012  11.304   1.573   8.013 -0.2728 -0.4503  1.7634
30051SOL     OW97013   3.923  11.189   4.983 -0.2149 -0.1302 -0.2785
30051SOL    HW197014   3.884  11.234   5.058 -0.5370  1.1074 -1.1637
30051SOL    HW297015   3.850  11.174   4.923  0.2763  0.1766 -0.9689
30052SOL     OW97016   2.643   6.612   2.833 -0.1611 -0.0947 -0.3604
30052SOL    HW197017   2.708   6.640   2.897  1.7239 -0.5629 -1.9753
30052SOL    HW297018   2.580   6.684   2.831  0.2812  0.3858  1.2462
30053SOL     OW97019   9.164   4.655   8.818  0.9997  0.3256  0.1408
30053SOL    HW197020   9.132   4.599   8.747  0.8809  0.6514 -0.0644
30053SOL    HW297021   9.090   4.713   8.837  1.6488  1.5036 -0.7598
30054SOL     OW97022  11.856   6.821   2.665 -0.0400  0.8173  0.6159
30054SOL    HW197023  11.782   6.878   2.645 -0.8549 -0.6839 -0.9113
30054SOL    HW297024  11.816   6.740   2.695  1.0279  0.3602  0.8392
30055SOL     OW97025   3.501   6.669   4.968  0.0659  0.1454 -0.1329
30055SOL    HW197026   3.513   6.731   4.896 -1.4681  0.1985 -0.3653
30055SOL    HW297027   3.525   6.719   5.046 -1.6129  1.2363 -0.2636
30056SOL     OW97028   8.629   4.375   2.852  0.4869 -0.4039 -0.2478
30056SOL    HW197029   8.547   4.329   2.834 -0.2737  0.7744  0.1111
30056SOL    HW297030   8.696   4.307   2.845 -0.6812 -1.7859  1.2344
30057SOL     OW97031   5.425   7.161   1.413 -0.1410  0.9157 -0.3166
30057SOL    HW197032   5.418   7.093   1.480  0.1221  0.9597 -0.2413
30057SOL    HW297033   5.404   7.118   1.331  1.3128  0.4140 -0.4585
30058SOL     OW97034  12.420   5.349   8.450 -0.8483  0.2503  0.0638
30058SOL    HW197035  12.454   5.298   8.377  0.1643 -0.8316  1.2285
30058SOL    HW297036  12.327   5.359   8.430 -0.5804  0.0733 -1.4072
30059SOL     OW97037   4.046  12.180   1.480 -0.9501 -0.2015 -0.2417
30059SOL    HW197038   4.098  12.121   1.535  0.5701  0.9247 -0.4263
30059SOL    HW297039   4.110  12.238   1.440 -2.1849  0.0460 -1.9560
30060SOL     OW97040  11.326   9.288   8.463  0.3565  0.4252 -0.5225
30060SOL    HW197041  11.400   9.266   8.520 -0.4575 -0.0915  0.3779
30060SOL    HW297042  11.321   9.383   8.466  0.0798  0.3967  0.6374
30061SOL     OW97043   3.692   2.959   5.543  0.2793 -0.0137  0.1521
30061SOL    HW197044   3.614   2.905   5.539  0.0319  0.3429  0.0922
30061SOL    HW297045   3.675   3.020   5.615  0.2523  0.4485 -0.2427
30062SOL     OW97046   7.238   2.370   8.980 -0.3453 -0.5537 -0.1110
30062SOL    HW197047   7.212   2.404   9.066  0.4984 -1.1966  0.4209
30062SOL    HW297048   7.242   2.275   8.993 -0.0286 -0.6376 -0.8025
30063SOL     OW97049   7.782   2.283   0.486 -0.0068 -0.2290  0.1096
30063SOL    HW197050   7.846   2.213   0.497  0.2342 -0.0943 -0.3861
30063SOL    HW297051   7.835   2.362   0.475 -0.2782  0.0576  0.8169
30064SOL     OW97052   7.724  11.095   1.631  0.3127 -0.0783 -0.4530
30064SOL    HW197053   7.741  11.002   1.615 -2.1403 -0.5837 -0.5645
30064SOL    HW297054   7.662  11.119   1.562 -2.1137  0.5682  1.7877
30065SOL     OW97055   0.696   8.687   5.571  0.1227 -0.2071  0.3256
30065SOL    HW197056   0.767   8.721   5.516  0.8453 -0.8930  0.8000
30065SOL    HW297057   0.655   8.618   5.518 -0.6082  0.6022 -0.1907
30066SOL     OW97058   1.958   7.611   9.300 -0.0656  0.3355 -0.1771
30066SOL    HW197059   2.043   7.603   9.344  0.9330  0.7340 -1.9699
30066SOL    HW297060   1.979   7.631   9.209 -2.0628 -0.8956 -0.9730
30067SOL     OW97061   3.960   2.072   9.856  0.3117 -0.5168 -0.1959
30067SOL    HW197062   3.903   2.001   9.826 -0.9906 -0.8314  2.7368
30067SOL    HW297063   4.038   2.028   9.890  0.0525 -0.4666  0.4724
30068SOL     OW97064   6.770   0.350   1.752 -0.0958 -0.3520  0.0684
30068SOL    HW197065   6.841   0.414   1.757  0.2354 -0.6921 -0.1776
30068SOL    HW297066   6.690   0.401   1.761  0.2168 -0.1770  2.5267
30069SOL     OW97067   4.910   5.640  11.474  0.3044  0.0002  0.1273
30069SOL    HW197068   4.961   5.721  11.467  0.3483 -0.0019  0.3867
30069SOL    HW297069   4.917   5.616  11.567 -0.5825  0.2664  0.2698
30070SOL     OW97070   5.467   0.429   4.678  0.0068 -0.3084 -0.2044
30070SOL    HW197071   5.437   0.518   4.698  0.1397 -0.3505  0.1870
30070SOL    HW297072   5.402   0.372   4.718 -0.8765 -0.3913 -1.6944
30071SOL     OW97073   2.331   1.928   3.476  0.2543 -0.3513  0.2056
30071SOL    HW197074   2.390   2.003   3.476  0.5859 -0.6106  0.5042
30071SOL    HW297075   2.271   1.944   3.548 -0.6132  0.3528 -0.6491
30072SOL     OW97076   6.773   9.419  12.172  0.4408  0.0547 -0.4004
30072SOL    HW197077   6.762   9.329  12.203  4.5088 -0.3788  0.3130
30072SOL    HW297078   6.761   9.413  12.077  0.1849 -1.1594 -0.3071
30073SOL     OW97079   2.060  12.463   0.261  0.4455 -0.1143  0.3415
30073SOL    HW197080   2.024  12.551   0.251  1.5352  0.5929  2.1872
30073SOL    HW297081   2.154  12.473   0.243  0.3108 -1.3019 -1.2644
30074SOL     OW97082  10.802   2.597   9.870 -0.4518  0.1515 -0.1093
30074SOL    HW197083  10.779   2.516   9.916 -0.1142  1.2283  2.1001
30074SOL    HW297084  10.741   2.662   9.904  1.0727  1.4307  0.3023
30075SOL     OW97085   0.943   6.307  11.763 -0.3955  0.2498 -0.1796
30075SOL    HW197086   0.897   6.232  11.802  1.3121 -0.1339  1.2606
30075SOL    HW297087   1.012   6.267  11.710 -0.7124  0.8170 -1.0339
30076SOL     OW97088   9.500   2.449   7.332 -0.6077  0.2390 -0.6531
30076SOL    HW197089   9.520   2.524   7.389 -0.1621  0.5795 -1.2511
30076SOL    HW297090   9.511   2.483   7.243 -1.1636 -0.3290 -0.9447
30077SOL     OW97091   4.922   8.462   2.979 -0.0613 -0.1304  0.5617
30077SOL    HW197092   4.838   8.428   3.009 -1.4162  1.1655 -1.5197
30077SOL    HW297093   4.902   8.549   2.943  2.2876  0.4949  0.5711
30078SOL     OW97094   4.579   3.904   3.024  0.5404 -0.1855 -0.0068
30078SOL    HW197095   4.646   3.928   2.960  0.8448 -0.3014  0.2687
30078SOL    HW297096   4.596   3.960   3.099 -0.5719  0.8188 -0.4812
30079SOL     OW97097   6.218   6.413   9.719  0.4473  0.7244  0.2546
30079SOL    HW197098   6.144   6.381   9.769  0.1685 -1.7728 -1.5567
30079SOL    HW297099   6.178   6.464   9.648  0.4779  0.0224 -0.2793
30080SOL     OW97100   6.964   7.633  10.039  0.0315  0.0853  0.0832
30080SOL    HW197101   6.926   7.669   9.958  1.9270  0.2060 -0.8061
30080SOL    HW297102   6.900   7.567  10.068 -0.8030  0.1953 -1.3826
30081SOL     OW97103   9.081   6.864   5.584  0.1028 -0.2877 -0.4454
30081SOL    HW197104   9.161   6.874   5.635 -0.4136 -0.9810  0.5458
30081SOL    HW297105   9.011   6.860   5.650 -0.7421  0.2019 -1.2774
30082SOL     OW97106   5.813   2.950   3.048  0.0484  0.2075  0.0444
30082SOL    HW197107   5.776   3.006   2.980  0.5490 -1.5875 -1.8185
30082SOL    HW297108   5.903   2.934   3.020  0.2136 -0.7348  1.0257
30083SOL     OW97109   0.380   6.492   5.693  0.1301 -0.0077 -0.5366
30083SOL    HW197110   0.369   6.587   5.701 -1.5094 -0.2159 -0.0747
30083SOL    HW297111   0.463   6.474   5.737 -0.6276  0.9591  1.4083
30084SOL     OW97112  12.111   5.003   9.022 -0.2271 -0.0985 -0.0151
30084SOL    HW197113  12.017   5.017   9.035  0.0668  1.4963  0.6722
30084SOL    HW297114  12.118   4.960   8.937 -1.5073  1.1073 -0.7742
30085SOL     OW97115  11.573   6.977   5.935  0.1514  0.3230  0.1586
30085SOL    HW197116  11.529   7.062   5.930 -0.7126 -0.1111  0.2235
30085SOL    HW297117  11.632   6.977   5.859 -0.7810  0.4735 -0.5916
30086SOL     OW97118   0.492  10.829   7.320  0.4937  0.3494 -0.1122
30086SOL    HW197119   0.487  10.899   7.255 -0.9019  0.7404  0.4006
30086SOL    HW297120   0.462  10.751   7.273  2.4298 -0.0473 -0.8030
30087SOL     OW97121   9.374   3.292   1.142 -0.0588 -0.2582 -0.2629
30087SOL    HW197122   9.392   3.200   1.124 -1.7765 -0.9876  1.3910
30087SOL    HW297123   9.376   3.298   1.238 -2.0569  0.9297 -0.2429
30088SOL     OW97124   0.000   4.844   5.594 -0.3429  0.0525  0.1469
30088SOL    HW197125  -0.025   4.793   5.517 -0.7154  0.7822 -0.2314
30088SOL    HW297126   0.090   4.818   5.613 -0.2167 -0.0669 -0.5977
30089SOL     OW97127   7.809   4.629   4.452 -0.1313 -0.1328  0.5378
30089SOL    HW197128   7.714   4.628   4.438 -0.0608 -0.2989  0.0299
30089SOL    HW297129   7.826   4.710   4.500 -0.7346 -0.9297  2.1768
30090SOL     OW97130  11.731  10.516   3.016  0.0379  0.2907  0.1345
30090SOL    HW197131  11.696  10.443   3.066  1.3519 -0.0668  0.5497
30090SOL    HW297132  11.762  10.477   2.935 -0.9227  0.6837 -0.4433
30091SOL     OW97133   4.823  10.752  11.576 -0.0200  0.3463 -0.6519
30091SOL    HW197134   4.865  10.788  11.655 -0.3657 -1.1520  0.2613
30091SOL    HW297135   4.735  10.727  11.605 -1.4504  2.9262 -2.3965
30092SOL     OW97136   3.974   3.226   5.700  0.3425 -0.3744 -0.0319
30092SOL    HW197137   3.969   3.267   5.786  1.2034 -0.2908 -0.0119
30092SOL    HW297138   3.912   3.276   5.645  0.0695 -0.1929  0.4392
30093SOL     OW97139   5.178   8.330   8.346 -0.0559 -0.1513 -0.4465
30093SOL    HW197140   5.260   8.300   8.307  0.1405 -1.2194  0.7426
30093SOL    HW297141   5.196   8.420   8.374  1.2133 -0.8537  1.1475
30094SOL     OW97142   8.230   7.965   1.857 -0.0939 -0.4647 -0.1575
30094SOL    HW197143   8.176   7.910   1.801 -0.2049 -1.0663  0.5233
30094SOL    HW297144   8.295   7.906   1.894  2.4123  0.6133 -2.5642
30095SOL     OW97145  10.255   8.054   7.565  0.9508 -0.4135  0.0368
30095SOL    HW197146  10.182   7.993   7.553  1.5348 -0.9920 -0.6814
30095SOL    HW297147  10.227   8.111   7.637 -0.5630 -0.0848 -0.7681
30096SOL     OW97148   7.832   2.640   5.031  0.0279 -0.0004  0.3146
30096SOL    HW197149   7.922   2.610   5.025 -0.1794 -0.4367 -0.9211
30096SOL    HW297150   7.820   2.696   4.954 -0.9956 -0.6318 -0.0052
30097SOL     OW97151   3.780   8.804   3.072  0.2033 -0.1907  0.5032
30097SOL    HW197152   3.832   8.863   3.126  0.8110  0.7839 -1.0642
30097SOL    HW297153   3.699   8.852   3.056  0.3088 -0.1723  0.0013
30098SOL     OW97154   5.997   7.451   6.571  0.1791  0.4542 -0.1871
30098SOL    HW197155   6.069   7.509   6.544  0.3481 -0.6397 -2.2890
30098SOL    HW297156   5.963   7.491   6.651  2.6621  1.4073  0.4934
30099SOL     OW97157   3.283   5.289   6.009  0.1312  0.0506 -0.3164
30099SOL    HW197158   3.207   5.340   6.037 -0.1910 -0.9487  0.7433
30099SOL    HW297159   3.317   5.252   6.090  0.6511 -0.9829 -0.9924
30100SOL     OW97160   3.367   4.539   6.677  0.1905  0.3656 -0.2505
30100SOL    HW197161   3.400   4.487   6.751  0.2406  1.5723  0.6141
30100SOL    HW297162   3.440   4.543   6.616  0.4064 -0.0188 -0.0211
30101SOL     OW97163   0.033   1.378  10.442 -0.1275  0.0559  0.3852
30101SOL    HW197164   0.051   1.388  10.348  2.1257 -0.8167  0.6881
30101SOL    HW297165  -0.052   1.421  10.454 -0.6356 -0.0957 -2.1028
30102SOL     OW97166   8.937   0.017   2.585  0.0486  0.2523  0.1746
30102SOL    HW197167   8.865  -0.006   2.643  0.2473 -1.6876 -0.2941
30102SOL    HW297168   8.912   0.102   2.549 -1.9416 -0.2867  0.1440
30103SOL     OW97169   9.543   7.667   0.174  0.5057 -0.2116 -0.0675
30103SOL    HW197170   9.626   7.623   0.194  0.6746  1.3020  3.2861
30103SOL    HW297171   9.540   7.740   0.235 -3.2349 -0.0975 -0.1875
30104SOL     OW97172  10.002   5.776   2.644  0.7877 -0.0287 -0.0540
30104SOL    HW197173   9.910   5.753   2.628  1.1871 -1.5072 -0.3550
30104SOL    HW297174  10.046   5.763   2.560  0.9556  2.6859 -0.4905
30105SOL     OW97175   4.738   9.036   5.337  0.2843  0.0551 -0.9617
30105SOL    HW197176   4.773   8.966   5.391  1.2428  0.0055 -1.6196
30105SOL    HW297177   4.712   9.104   5.399 -1.7113 -1.3023 -0.2283
30106SOL     OW97178   8.473   4.540   1.493 -0.0929 -0.0186 -0.5434
30106SOL    HW197179   8.562   4.556   1.461  0.9982 -1.5527  1.4972
30106SOL    HW297180   8.484   4.521   1.586 -2.8327  2.0259  0.3329
30107SOL     OW97181   7.235   7.739  10.120 -0.2544 -0.2060 -0.0093
30107SOL    HW197182   7.300   7.696  10.065 -0.9506  0.8634 -1.7326
30107SOL    HW297183   7.157   7.684  10.112 -0.5740  0.3323 -0.7059
30108SOL     OW97184   2.033   0.254  10.858 -0.3328  0.6178 -0.3917
30108SOL    HW197185   2.099   0.301  10.807 -0.8241  1.8023  0.0490
30108SOL    HW297186   2.011   0.312  10.930  0.3653 -1.0289  1.2333
30109SOL     OW97187   8.647   6.216   1.948  0.5835 -0.0267 -0.4827
30109SOL    HW197188   8.739   6.196   1.963  0.0162 -1.3696  1.6949
30109SOL    HW297189   8.608   6.216   2.036 -1.6705 -0.4768 -1.4162
30110SOL     OW97190  10.170   8.051   3.544 -0.0472 -0.1318 -0.1696
30110SOL    HW197191  10.231   8.065   3.473  0.6887 -0.6218  0.3512
30110SOL    HW297192  10.099   8.114   3.528  0.1991 -0.1077 -1.2117
30111SOL     OW97193   8.057   6.002  11.563  0.4682 -0.2674 -0.2004
30111SOL    HW197194   8.004   5.927  11.538  2.1169 -1.4470 -0.3172
30111SOL    HW297195   8.094   6.034  11.480 -1.1125  1.4419 -0.3147
30112SOL     OW97196   5.952   2.165  12.336  0.0405 -0.4169  0.2701
30112SOL    HW197197   6.008   2.223  12.285 -0.4105 -0.8508 -0.7647
30112SOL    HW297198   5.883   2.138  12.274 -1.2295 -0.0053  1.4559
30113SOL     OW97199   9.049   7.201  11.261 -0.7137  0.3221 -0.4564
30113SOL    HW197200   8.982   7.216  11.194 -1.4460 -0.9711 -0.0367
30113SOL    HW297201   9.000   7.198  11.344 -0.3263 -1.6688 -0.2449
30114SOL     OW97202  10.034   8.470   0.232 -0.8791  0.2089 -0.3883
30114SOL    HW197203  10.059   8.477   0.140  1.0248 -1.6035 -0.0967
30114SOL    HW297204  10.059   8.554   0.270  1.4277 -0.1409 -0.9368
30115SOL     OW97205   3.268   8.301   3.785 -0.3496 -0.0220 -0.6954
30115SOL    HW197206   3.194   8.349   3.822  1.2706  0.8998  1.6235
30115SOL    HW297207   3.287   8.344   3.702 -0.3007  2.0226  0.3134
30116SOL     OW97208   3.806   4.211   0.858  0.2001 -0.3389 -0.5504
30116SOL    HW197209   3.804   4.259   0.776  0.5874 -0.4788 -0.6413
30116SOL    HW297210   3.722   4.231   0.899 -0.1964 -0.6545 -1.1956
30117SOL     OW97211   9.077   6.098   1.504  0.3516 -0.0850 -0.0917
30117SOL    HW197212   8.990   6.088   1.542 -0.0605  0.5958 -0.8415
30117SOL    HW297213   9.091   6.192   1.497  0.5904 -0.1844 -1.2134
30118SOL     OW97214   1.185   8.100   9.489 -0.4594 -0.2517 -0.0039
30118SOL    HW197215   1.166   8.010   9.514  0.6954 -0.5124 -0.0278
30118SOL    HW297216   1.274   8.098   9.456  0.2966  1.2090  1.7450
30119SOL     OW97217   4.946   0.607   2.943  0.1983  0.1644  0.2989
30119SOL    HW197218   4.948   0.627   2.849  1.5840 -0.0313  0.2758
30119SOL    HW297219   5.035   0.622   2.973 -0.1850  0.0253  1.5536
30120SOL     OW97220   9.543   9.039   9.021 -0.5119 -0.0273 -0.1222
30120SOL    HW197221   9.533   9.046   9.116 -2.3811 -0.6807 -0.2417
30120SOL    HW297222   9.614   9.100   9.000 -2.5214  3.0082  1.2585
30121SOL     OW97223   5.384   1.762   7.687 -0.3672 -0.1924 -0.5165
30121SOL    HW197224   5.470   1.724   7.703 -0.5218 -1.1090 -1.7011
30121SOL    HW297225   5.329   1.688   7.662 -2.4868 -0.2544  3.5447
30122SOL     OW97226   8.623   8.070   2.741  0.2922 -0.3462  0.0371
30122SOL    HW197227   8.618   8.017   2.661 -0.5859 -1.6160  0.9028
30122SOL    HW297228   8.532   8.099   2.757  0.5831  0.5380  0.1753
30123SOL     OW97229   2.946   4.164   5.920  0.1533  0.0694 -0.1405
30123SOL    HW197230   3.001   4.104   5.971  2.3342  0.7221 -1.5935
30123SOL    HW297231   2.983   4.251   5.938  0.8287  0.3428 -2.5334
30124SOL     OW97232   8.877   8.563   8.716 -0.1667  0.6696  0.6076
30124SOL    HW197233   8.926   8.646   8.714  2.1240 -0.5605  1.6480
30124SOL    HW297234   8.932   8.502   8.667 -1.5140 -0.4152  0.3765
30125SOL     OW97235   1.706   0.952  11.737 -0.0880  0.1060 -0.7070
30125SOL    HW197236   1.771   0.896  11.778 -2.1225 -1.4598  0.5965
30125SOL    HW297237   1.623   0.906  11.749 -1.6896  2.6959 -0.8824
30126SOL     OW97238   4.449  10.533  11.455  0.1194 -0.1096  0.2357
30126SOL    HW197239   4.438  10.496  11.368  0.1242  0.2430  0.0806
30126SOL    HW297240   4.441  10.628  11.442 -0.3276 -0.0825  0.6875
30127SOL     OW97241   2.296   0.150   9.943  0.0069 -0.2103 -0.5777
30127SOL    HW197242   2.289   0.243   9.965 -3.3520 -0.5911  0.5149
30127SOL    HW297243   2.389   0.129   9.955  0.6885  2.7735  0.0217
30128SOL     OW97244   2.305   3.750   7.026  0.4564  0.0667  0.2604
30128SOL    HW197245   2.273   3.832   6.990  1.7920  0.2608 -0.5559
30128SOL    HW297246   2.236   3.687   7.008  0.7047  0.3501 -1.9512
30129SOL     OW97247   0.041   9.965   5.564 -0.1371  0.0669 -0.1344
30129SOL    HW197248  -0.038   9.912   5.552  0.2978 -0.6722  0.1497
30129SOL    HW297249   0.009  10.051   5.589 -0.9198  0.4446 -2.2319
30130SOL     OW97250   1.058   9.031   2.160  0.6406 -0.3372 -0.2531
30130SOL    HW197251   1.119   9.033   2.234  0.8880  1.1440 -0.4659
30130SOL    HW297252   1.099   8.973   2.097  0.7784 -1.0488  0.4679
30131SOL     OW97253   3.184   0.055   1.806  0.9529 -0.0088 -0.0035
30131SOL    HW197254   3.170   0.128   1.746 -0.5046  0.5502  0.9755
30131SOL    HW297255   3.246   0.088   1.871  1.0944  0.0042 -0.1444
30132SOL     OW97256   5.911   4.639  12.229  0.1196 -0.2138 -0.5305
30132SOL    HW197257   5.955   4.670  12.308 -1.1512 -1.1974  0.6221
30132SOL    HW297258   5.983   4.617  12.169  1.1209  0.5016  0.3604
30133SOL     OW97259   3.138   8.075  12.369 -0.3940 -0.1931 -1.1988
30133SOL    HW197260   3.130   8.111  12.458  0.4547 -1.2805 -0.6573
30133SOL    HW297261   3.132   8.152  12.312 -0.5823  0.5711 -0.1896
30134SOL     OW97262  10.608   6.987   7.591 -0.1686 -0.1699 -0.2242
30134SOL    HW197263  10.522   7.019   7.565 -0.6356 -1.0952  0.1304
30134SOL    HW297264  10.665   7.063   7.586 -1.3528  0.8750  1.1610
30135SOL     OW97265   3.176  12.002   9.587 -0.5027 -0.1245 -0.2030
30135SOL    HW197266   3.122  11.926   9.608 -3.8934  1.1802 -3.1678
30135SOL    HW297267   3.174  12.057   9.665 -0.8348 -1.5385  0.8092
30136SOL     OW97268   4.852   8.088   1.776 -0.0785  0.4389  0.0246
30136SOL    HW197269   4.837   8.155   1.842 -1.9521  1.6428 -1.5297
30136SOL    HW297270   4.765   8.069   1.741  0.7343 -0.9555 -1.3544
30137SOL     OW97271   8.945   2.899   8.334  0.0294 -0.3630 -0.1173
30137SOL    HW197272   9.032   2.894   8.376  0.4495  1.2676 -0.7216
30137SOL    HW297273   8.892   2.950   8.396  0.3022  0.9861 -0.9541
30138SOL     OW97274   6.090   0.412   8.633  0.5069 -0.4324 -0.0779
30138SOL    HW197275   6.044   0.383   8.712  1.0703  0.0183  0.4242
30138SOL    HW297276   6.169   0.456   8.666 -0.2548  1.5910 -0.8234
30139SOL     OW97277  12.431  11.528   0.454  0.0390 -0.6950  0.5789
30139SOL    HW197278  12.497  11.558   0.516 -0.2298  0.7930  0.1947
30139SOL    HW297279  12.348  11.562   0.489 -0.2842 -0.9736  0.0995
30140SOL     OW97280   1.942   8.099   3.969 -0.1832 -0.2331  0.1950
30140SOL    HW197281   1.881   8.096   3.895 -1.6313 -0.6391  1.3469
30140SOL    HW297282   1.965   8.008   3.985  0.3025 -0.1251  0.1164
30141SOL     OW97283   2.923  10.685   9.721  0.0866 -0.0186 -0.2356
30141SOL    HW197284   2.899  10.615   9.781 -1.8437  1.6247  1.0325
30141SOL    HW297285   3.016  10.672   9.705  0.1370 -1.8786  1.2392
30142SOL     OW97286   4.254   5.102   1.332  0.2262 -0.2596 -0.6056
30142SOL    HW197287   4.315   5.117   1.405  0.1357 -0.6476 -0.4517
30142SOL    HW297288   4.226   5.190   1.306 -0.5350 -0.1484  0.5049
30143SOL     OW97289   8.401   9.170   9.582 -0.0229 -0.5347 -0.4241
30143SOL    HW197290   8.377   9.260   9.606 -1.6646 -0.7793 -0.9821
30143SOL    HW297291   8.486   9.178   9.539  0.2694  0.6262  0.3271
30144SOL     OW97292   9.314   5.180   1.490 -0.0887 -0.0774 -0.1375
30144SOL    HW197293   9.350   5.148   1.407 -0.9796 -0.2029 -0.4915
30144SOL    HW297294   9.357   5.127   1.557  1.2256  0.5621 -0.4471
30145SOL     OW97295   2.176   5.841  12.201  0.4303  0.5114  0.0680
30145SOL    HW197296   2.199   5.904  12.133 -0.6717  0.4598 -0.3786
30145SOL    HW297297   2.119   5.890  12.260  1.9316  0.7550  1.3667
30146SOL     OW97298  12.239  12.215  12.148 -0.8517 -0.4209 -0.5449
30146SOL    HW197299  12.173  12.251  12.207 -0.7531 -1.3978  0.1907
30146SOL    HW297300  12.194  12.145  12.101 -0.7718 -0.0258 -1.2285
30147SOL     OW97301   5.419   1.385   9.977 -0.1904  0.1742  0.3451
30147SOL    HW197302   5.352   1.359  10.040 -0.0142  0.3651  0.6142
30147SOL    HW297303   5.405   1.479   9.964  0.2534  0.2898  0.6834
30148SOL     OW97304  10.221  11.060   6.744 -0.0244 -0.5518  0.0204
30148SOL    HW197305  10.187  11.125   6.806 -0.1948 -0.5177 -0.1066
30148SOL    HW297306  10.233  11.110   6.662  2.6141  0.0273  0.6638
30149SOL     OW97307   6.641  10.040   7.178 -0.0338 -0.4841 -0.6618
30149SOL    HW197308   6.731  10.025   7.205 -0.6699 -1.1323  1.2833
30149SOL    HW297309   6.629   9.984   7.102  1.2529 -0.2278 -1.0721
30150SOL     OW97310   5.739   9.277   0.860 -0.8957  0.2575 -0.8180
30150SOL    HW197311   5.754   9.367   0.889  2.5857 -0.1400 -0.9412
30150SOL    HW297312   5.744   9.225   0.941  2.1060 -0.1843 -1.1502
30151SOL     OW97313   7.010   5.965   6.353  0.3412 -0.4665  0.6149
30151SOL    HW197314   7.065   6.041   6.374 -0.1704 -0.0821  0.5999
30151SOL    HW297315   7.041   5.937   6.267 -0.0781  0.3149  0.1899
30152SOL     OW97316   2.151   4.065   4.826  0.3161  0.3271  0.2400
30152SOL    HW197317   2.228   4.011   4.841  0.5898  0.5483 -0.3398
30152SOL    HW297318   2.085   4.003   4.795  0.8267  0.4114 -1.0605
30153SOL     OW97319   5.455   9.412   5.505 -0.4917 -0.1449  0.2410
30153SOL    HW197320   5.484   9.503   5.494 -1.0521  0.0674  0.4568
30153SOL    HW297321   5.367   9.410   5.466  0.5320 -1.2570 -2.2627
30154SOL     OW97322   7.976   2.215   8.364 -0.1187  0.3212 -0.2302
30154SOL    HW197323   8.003   2.147   8.426  1.3130  0.0714 -1.0996
30154SOL    HW297324   7.900   2.255   8.406  0.5077 -0.1556  1.4606
30155SOL     OW97325   3.034   6.623   8.369 -0.0657  0.2035  0.3580
30155SOL    HW197326   3.034   6.712   8.333 -0.8340 -0.1723 -0.5903
30155SOL    HW297327   2.970   6.576   8.317 -1.0588 -0.4294  2.0745
30156SOL     OW97328  11.897   7.074   5.243  0.4013 -0.1309  0.3895
30156SOL    HW197329  11.816   7.124   5.250  0.1212 -0.5820  0.3856
30156SOL    HW297330  11.892   7.033   5.157  0.5449 -0.3160  0.4693
30157SOL     OW97331   9.512   5.352  10.675 -0.4494 -0.5671 -0.4320
30157SOL    HW197332   9.459   5.301  10.614  0.1023  1.0731 -2.4074
30157SOL    HW297333   9.516   5.439  10.636  0.6710  0.3402  1.5385
30158SOL     OW97334  10.923   5.154   5.417 -0.0171 -0.4757  0.0871
30158SOL    HW197335  10.997   5.136   5.359 -0.9063 -0.4646 -1.1084
30158SOL    HW297336  10.851   5.175   5.357 -1.0638 -0.7816  1.1989
30159SOL     OW97337   1.443   7.693   4.132  0.2576  0.1705  0.2322
30159SOL    HW197338   1.399   7.647   4.204 -1.1673 -0.5073 -1.0039
30159SOL    HW297339   1.494   7.624   4.089 -0.0483  0.2462 -0.2547
30160SOL     OW97340   5.552  12.436   9.047 -0.0699  0.3779 -0.5505
30160SOL    HW197341   5.558  12.373   9.119  1.5846  0.4448 -0.5858
30160SOL    HW297342   5.528  12.518   9.090  0.4741  0.3204 -0.1270
30161SOL     OW97343   5.272   1.987   7.225 -0.5490  0.3507  0.2411
30161SOL    HW197344   5.249   2.068   7.271 -0.5313  0.4613  0.0547
30161SOL    HW297345   5.211   1.921   7.260 -1.2534  0.6738 -0.3550
30162SOL     OW97346   1.470   4.260   7.794 -0.5442 -0.1998 -0.3352
30162SOL    HW197347   1.415   4.306   7.857  2.7677  0.5372  2.3641
30162SOL    HW297348   1.454   4.167   7.812  0.0409  0.0019  1.4164
30163SOL     OW97349   5.840   2.563   9.829 -0.2836  0.0396  0.0591
30163SOL    HW197350   5.903   2.524   9.890  1.5050  0.7426 -1.2287
30163SOL    HW297351   5.890   2.573   9.747 -1.9267  1.1372 -0.8640
30164SOL     OW97352   7.007   1.075   7.865 -0.2557 -0.4450  0.4231
30164SOL    HW197353   7.001   1.064   7.960 -1.4540 -1.4575  0.2524
30164SOL    HW297354   7.035   1.166   7.853 -0.6730 -0.1218  1.7363
30165SOL     OW97355   2.784   5.651   1.750  0.6462 -0.5131 -0.2361
30165SOL    HW197356   2.743   5.565   1.747 -0.0741 -0.1517 -1.6033
30165SOL    HW297357   2.715   5.712   1.724  1.4177  0.3682 -0.2945
30166SOL     OW97358  10.448   0.936   8.076 -0.0133 -0.0003 -0.0165
30166SOL    HW197359  10.381   0.983   8.026 -0.9567  0.9631  2.0136
30166SOL    HW297360  10.398   0.875   8.130  0.9400 -0.7568  0.0282
30167SOL     OW97361   7.147   5.662  10.076  0.2833 -0.0147 -0.5711
30167SOL    HW197362   7.202   5.607  10.131 -1.3325 -0.1635  0.9795
30167SOL    HW297363   7.113   5.729  10.135  0.1775  1.1339 -1.8793
30168SOL     OW97364   4.936   5.554   5.842  1.0168 -0.0104  0.4416
30168SOL    HW197365   4.923   5.643   5.874  1.3613 -0.5973  2.3427
30168SOL    HW297366   4.851   5.528   5.807  0.9903  1.1314 -0.4227
30169SOL     OW97367   3.875   9.956   9.562  0.3208  0.2252 -0.7992
30169SOL    HW197368   3.968   9.972   9.546  1.3183 -1.8610  2.0130
30169SOL    HW297369   3.855   9.877   9.512  0.7319 -0.5821  0.2577
30170SOL     OW97370  11.595   6.521  10.410 -0.0982  0.6488 -0.1311
30170SOL    HW197371  11.674   6.507  10.463 -0.4694 -1.8912 -0.0977
30170SOL    HW297372  11.575   6.614  10.419  1.3328  0.7997  2.0697
30171SOL     OW97373   9.281  12.151   1.250 -0.2097  0.3646  1.2398
30171SOL    HW197374   9.370  12.176   1.225  0.4376 -0.4935  2.5396
30171SOL    HW297375   9.287  12.134   1.344 -1.5649 -0.4793  1.2047
30172SOL     OW97376   7.120   0.882  12.195 -0.1409  0.2170 -0.3537
30172SOL    HW197377   7.151   0.949  12.256 -0.4561  0.5201 -0.5250
30172SOL    HW297378   7.166   0.900  12.113  0.1176 -0.0562 -0.2708
30173SOL     OW97379   0.574   2.595   3.839  0.6502  0.4370  1.1593
30173SOL    HW197380   0.488   2.572   3.805  0.3882  0.6000  1.7003
30173SOL    HW297381   0.612   2.511   3.865  1.1428  0.2201 -0.1608
30174SOL     OW97382   5.072   8.672   5.236  0.1160  0.2532  0.0458
30174SOL    HW197383   5.071   8.689   5.330  0.2056 -0.9017  0.2743
30174SOL    HW297384   4.990   8.623   5.220 -0.2844  1.1108 -0.6162
30175SOL     OW97385   6.285  11.881   2.252  0.1383 -0.3517 -0.2158
30175SOL    HW197386   6.253  11.931   2.177  0.5829 -2.5462 -1.9800
30175SOL    HW297387   6.380  11.884   2.245  0.3693  2.2040  2.2990
30176SOL     OW97388   2.027   8.826   3.838 -0.0276  0.0146  0.1404
30176SOL    HW197389   2.026   8.832   3.933 -0.4591  0.8403  0.0916
30176SOL    HW297390   2.107   8.778   3.818 -0.2863 -0.7885  0.9422
30177SOL     OW97391   7.201   9.518   5.055  0.3131  0.2011 -0.1820
30177SOL    HW197392   7.293   9.542   5.041  0.5830  1.1781  2.6169
30177SOL    HW297393   7.204   9.428   5.086  0.3132  0.1370 -0.3701
30178SOL     OW97394  12.219   8.462   0.355  0.2758 -0.1569  0.3918
30178SOL    HW197395  12.278   8.423   0.420  1.2681 -0.2627 -0.5378
30178SOL    HW297396  12.278   8.491   0.285 -0.6806  0.8502 -0.0050
30179SOL     OW97397   8.695   4.232   2.302 -0.1544 -0.2553  0.1822
30179SOL    HW197398   8.700   4.208   2.210  0.5072  1.9773 -0.4460
30179SOL    HW297399   8.786   4.250   2.327 -0.4202 -0.0137  1.0292
30180SOL     OW97400  10.120   5.499   9.404  0.1624 -0.0969  0.7160
30180SOL    HW197401  10.056   5.454   9.349  1.7602 -2.8357  0.9221
30180SOL    HW297402  10.086   5.490   9.493  0.4289 -0.9232  0.7482
30181SOL     OW97403  11.047  11.550   5.537 -0.4503 -0.0897 -0.3574
30181SOL    HW197404  10.985  11.519   5.472 -0.6538 -0.0304 -0.1932
30181SOL    HW297405  11.033  11.645   5.542 -2.0208 -0.3455  1.3735
30182SOL     OW97406   2.114   5.723  10.270  1.4046 -0.1711 -0.2308
30182SOL    HW197407   2.104   5.809  10.311  2.0819  0.0776 -0.5614
30182SOL    HW297408   2.209   5.714  10.258  1.2628 -0.5236 -1.1342
30183SOL     OW97409  10.965   2.039   6.616  0.0473  0.5073  0.0299
30183SOL    HW197410  10.915   2.013   6.694  0.3356  2.5206  0.9416
30183SOL    HW297411  10.984   2.132   6.629 -0.2621  1.0389 -2.6549
30184SOL     OW97412   5.388   5.400   3.627 -0.2372 -0.2757  0.1834
30184SOL    HW197413   5.440   5.345   3.568  1.5061  0.9147  0.5150
30184SOL    HW297414   5.441   5.479   3.639 -1.2252  0.1593  2.1660
30185SOL     OW97415   7.329   3.087   3.759 -0.1428 -0.6385  0.2321
30185SOL    HW197416   7.262   3.047   3.815  0.5074 -2.0161  0.0713
30185SOL    HW297417   7.321   3.040   3.675  0.9050 -0.7175  0.1644
30186SOL     OW97418   8.356   7.944  11.494  0.1161  0.0079 -0.0375
30186SOL    HW197419   8.294   7.926  11.565 -0.3698 -1.0373 -0.6974
30186SOL    HW297420   8.301   7.968  11.420  0.5963  0.6141 -0.2019
30187SOL     OW97421  11.546  12.200   8.398  0.1927 -0.8458 -0.3993
30187SOL    HW197422  11.565  12.182   8.490 -1.1395  0.9631  0.2872
30187SOL    HW297423  11.630  12.225   8.361  0.9690 -2.6896 -0.0108
30188SOL     OW97424   6.324   0.041   1.459 -0.2915  0.4594  0.0791
30188SOL    HW197425   6.303   0.063   1.368  1.2128 -0.8386 -0.6340
30188SOL    HW297426   6.377  -0.038   1.453 -0.0268  0.4259  2.0950
30189SOL     OW97427  10.441   1.650   5.751  0.0094  0.3612 -0.0127
30189SOL    HW197428  10.531   1.681   5.762  0.4246 -1.5713  3.1082
30189SOL    HW297429  10.419   1.610   5.835 -3.8793  0.9329 -0.5999
30190SOL     OW97430  11.650  11.786   0.714 -0.0422  0.9028 -0.2732
30190SOL    HW197431  11.706  11.766   0.789 -0.9115  0.7072  0.3411
30190SOL    HW297432  11.607  11.703   0.694 -2.4599  1.6863  1.2777
30191SOL     OW97433   8.771   1.706   9.224 -0.2607 -0.0777  0.3539
30191SOL    HW197434   8.759   1.720   9.318 -2.8691  0.6364  0.0001
30191SOL    HW297435   8.713   1.633   9.203  1.0094 -0.8608 -0.5955
30192SOL     OW97436   6.717  12.474  10.406  0.0293  0.1737 -0.6320
30192SOL    HW197437   6.758  12.477  10.319 -1.2138 -2.3012 -1.4053
30192SOL    HW297438   6.633  12.520  10.394 -0.3894 -0.6524 -0.9107
30193SOL     OW97439   0.657  11.294   8.835  0.2807  0.1157 -0.1801
30193SOL    HW197440   0.654  11.229   8.765  0.1141 -0.7086  0.5686
30193SOL    HW297441   0.737  11.274   8.883  1.2861  1.7176 -1.0698
30194SOL     OW97442   8.740  11.063   1.401 -0.0749  0.2485 -0.2517
30194SOL    HW197443   8.721  11.148   1.442  0.0333 -0.4874  1.3987
30194SOL    HW297444   8.819  11.032   1.446  0.5860 -0.1976 -1.6784
30195SOL     OW97445   2.504   9.192   1.676  0.1225  0.1184 -0.0507
30195SOL    HW197446   2.503   9.114   1.732  1.1408  0.8926  1.0956
30195SOL    HW297447   2.417   9.231   1.689 -0.4562 -0.8847 -0.7597
30196SOL     OW97448   5.676   4.743   1.506  1.0157 -0.2454 -0.1009
30196SOL    HW197449   5.658   4.785   1.422  1.2430  1.1077  0.4953
30196SOL    HW297450   5.594   4.699   1.529  0.2190  1.1896 -0.0416
30197SOL     OW97451   4.008   8.135  12.167 -0.2002 -0.2449  0.0294
30197SOL    HW197452   4.028   8.064  12.107 -1.9220  0.2429 -1.1979
30197SOL    HW297453   3.913   8.147  12.159 -0.0578  1.7019  0.7477
30198SOL     OW97454   9.762   4.293   4.087  0.0650 -0.0192  0.2180
30198SOL    HW197455   9.677   4.328   4.113  1.2359  1.3826  2.4039
30198SOL    HW297456   9.754   4.198   4.100 -1.0978  0.1220  0.6038
30199SOL     OW97457   0.437  10.569   5.807 -0.2442 -0.2304 -0.2464
30199SOL    HW197458   0.419  10.592   5.716 -0.7138  0.6319  0.0526
30199SOL    HW297459   0.516  10.620   5.829  0.6620 -1.4547 -0.5561
30200SOL     OW97460   1.231   7.399   2.329 -0.0559 -0.9286  0.4977
30200SOL    HW197461   1.324   7.399   2.307 -0.6364 -1.0838 -2.2900
30200SOL    HW297462   1.204   7.491   2.319 -0.9066 -1.4003 -2.5497
30201SOL     OW97463  12.020   5.934   8.337 -0.0262  0.7348  0.1051
30201SOL    HW197464  11.928   5.917   8.360 -0.0929  0.3506 -0.4294
30201SOL    HW297465  12.048   5.855   8.291 -0.0343  1.6395 -1.5186
30202SOL     OW97466   4.596   2.512   6.692 -0.0887 -0.0183 -0.3895
30202SOL    HW197467   4.529   2.561   6.646 -1.9246 -1.7781  0.2413
30202SOL    HW297468   4.633   2.453   6.626 -1.1695 -0.9814 -0.1812
30203SOL     OW97469  12.133  11.911   0.640  0.4771 -0.0571 -0.8353
30203SOL    HW197470  12.073  11.924   0.714  1.0836  0.0507 -0.3494
30203SOL    HW297471  12.093  11.958   0.568 -0.9325 -1.4771 -1.0284
30204SOL     OW97472   8.700   4.154   2.028  0.9445  0.2768 -0.2481
30204SOL    HW197473   8.637   4.125   1.962  1.3398 -0.1676 -0.4283
30204SOL    HW297474   8.763   4.207   1.980  2.3976 -1.7129 -0.6192
30205SOL     OW97475  10.766   4.437  11.470 -0.1722 -0.3162  0.1142
30205SOL    HW197476  10.755   4.427  11.376 -1.1917  1.2486  0.0289
30205SOL    HW297477  10.758   4.348  11.504  0.6705 -0.9673 -1.2892
30206SOL     OW97478   8.938   9.299   4.931 -0.1350 -0.1527  0.2950
30206SOL    HW197479   9.023   9.267   4.900 -0.0828  1.8223 -1.9183
30206SOL    HW297480   8.932   9.388   4.895 -2.5720  0.2530  1.5253
30207SOL     OW97481   8.121   2.251  11.029 -0.1590 -0.1083 -0.5333
30207SOL    HW197482   8.148   2.173  10.981 -0.8896 -0.8770  0.2553
30207SOL    HW297483   8.198   2.307  11.029  0.6725 -1.2058 -0.3731
30208SOL     OW97484   6.831   7.225   5.813 -0.5174  0.9038  0.2871
30208SOL    HW197485   6.918   7.187   5.826 -0.4932  0.3520 -1.2059
30208SOL    HW297486   6.772   7.168   5.862 -0.2967 -0.2101 -0.6818
30209SOL     OW97487   9.354  10.753   8.719 -0.3640 -0.1634 -0.1559
30209SOL    HW197488   9.449  10.753   8.731 -0.4144 -1.2522  0.3973
30209SOL    HW297489   9.339  10.691   8.649 -0.6540  0.2496 -0.4646
30210SOL     OW97490   2.144   5.510   8.639  0.4752  0.2627  0.6708
30210SOL    HW197491   2.219   5.567   8.622 -0.3069  1.0600 -0.1598
30210SOL    HW297492   2.077   5.538   8.577 -0.4602 -0.5577  1.2772
30211SOL     OW97493   8.577   3.167   8.885 -0.3289 -0.0335 -0.4404
30211SOL    HW197494   8.579   3.089   8.942 -0.0092 -1.0062 -1.7387
30211SOL    HW297495   8.558   3.239   8.945 -1.2305 -1.1788  0.7237
30212SOL     OW97496   0.494   6.438  11.804 -0.0549 -0.0365 -0.5436
30212SOL    HW197497   0.469   6.526  11.777 -0.7882 -0.3117 -0.7640
30212SOL    HW297498   0.573   6.419  11.752 -0.6828 -0.0417 -1.5158
30213SOL     OW97499   2.943   6.445   6.303  0.0792 -0.1614  0.2455
30213SOL    HW197500   2.932   6.478   6.392  1.4831  0.3846  0.2381
30213SOL    HW297501   2.855   6.451   6.264 -0.3467  0.5220  1.2734
30214SOL     OW97502   7.889   8.416   7.560 -0.2342 -0.2686 -0.4361
30214SOL    HW197503   7.909   8.352   7.630  2.7762  0.2140 -0.6990
30214SOL    HW297504   7.869   8.497   7.607  2.7491  0.3207  0.0083
30215SOL     OW97505   3.347   7.262  11.269 -0.3185  0.0581 -0.0480
30215SOL    HW197506   3.309   7.220  11.191 -1.1904 -0.9216  0.8721
30215SOL    HW297507   3.402   7.194  11.308  0.7546  0.8050 -0.2338
30216SOL     OW97508  10.222   7.336   5.971 -0.3090  0.1606  0.4019
30216SOL    HW197509  10.150   7.399   5.964 -0.7795 -0.4224 -0.1485
30216SOL    HW297510  10.287   7.381   6.025 -0.1244  1.5978 -0.9277
30217SOL     OW97511   8.083   4.699  12.220 -0.0375 -0.0160 -0.2935
30217SOL    HW197512   8.012   4.662  12.273 -1.5012  0.9894 -1.4484
30217SOL    HW297513   8.161   4.689  12.274 -1.0135 -1.3590  0.9495
30218SOL     OW97514  11.353   5.630   4.357  0.6882 -0.1371 -0.5642
30218SOL    HW197515  11.298   5.645   4.433  0.5943  1.0562 -0.8502
30218SOL    HW297516  11.420   5.568   4.388  0.0443 -0.4792  0.1785
30219SOL     OW97517   4.254   8.747   1.629  0.1708  0.1607 -0.3430
30219SOL    HW197518   4.252   8.702   1.545  1.4263  0.7714 -0.7195
30219SOL    HW297519   4.323   8.812   1.620 -0.4207  0.9789  0.7928
30220SOL     OW97520   2.780   5.360   1.977  0.4500  0.4339 -0.2509
30220SOL    HW197521   2.774   5.440   1.925  1.6219 -0.2165 -1.4582
30220SOL    HW297522   2.740   5.293   1.921 -0.0345  0.0619  0.5210
30221SOL     OW97523   5.475  10.725   1.250  0.3763  0.3128  0.0951
30221SOL    HW197524   5.471  10.678   1.333  1.7539  1.3935  0.8165
30221SOL    HW297525   5.449  10.814   1.272 -0.2358  0.3836 -0.8514
30222SOL     OW97526   7.037   4.746   7.377  0.0354  0.3063 -0.1510
30222SOL    HW197527   7.002   4.832   7.353  0.0949  0.0339 -1.2943
30222SOL    HW297528   7.046   4.700   7.293  0.4438 -0.6463  0.4008
30223SOL     OW97529   9.955   2.624   9.427  0.3396  0.1500  0.0306
30223SOL    HW197530   9.956   2.541   9.474  1.9486  0.7660  1.1659
30223SOL    HW297531   9.911   2.604   9.344 -0.7596 -1.4284  0.9477
30224SOL     OW97532   9.759   7.527   9.463 -0.0637 -0.4459  0.1972
30224SOL    HW197533   9.685   7.574   9.423 -0.3717  0.4182  1.6833
30224SOL    HW297534   9.837   7.566   9.424 -0.3627 -0.2936 -0.2556
30225SOL     OW97535   6.666   0.828   9.850  0.1972 -0.3723 -0.1545
30225SOL    HW197536   6.657   0.735   9.830 -2.2435 -0.2144 -0.0834
30225SOL    HW297537   6.671   0.871   9.765  3.7276 -0.6263 -0.2365
30226SOL     OW97538   9.244  11.255   2.821  0.5914 -0.1184  0.0440
30226SOL    HW197539   9.254  11.166   2.854 -1.8354 -0.7725 -0.7920
30226SOL    HW297540   9.200  11.302   2.892  0.8829  0.1284  0.0642
30227SOL     OW97541   4.861   4.213   4.887  0.1583  0.0095 -0.1896
30227SOL    HW197542   4.821   4.214   4.801 -0.1628 -0.1885 -0.0447
30227SOL    HW297543   4.951   4.244   4.873 -0.2448  1.1081 -0.4060
30228SOL     OW97544   0.167   5.492  10.462  0.4714 -0.1137  0.3798
30228SOL    HW197545   0.077   5.461  10.470  0.7419 -0.7650  0.9831
30228SOL    HW297546   0.160   5.573  10.411 -0.4132 -0.3443  0.1168
30229SOL     OW97547   1.761   9.524  10.177 -0.6606 -0.2558  0.3148
30229SOL    HW197548   1.734   9.438  10.210 -0.4358 -1.2974 -1.9865
30229SOL    HW297549   1.684   9.580  10.188 -1.2143 -1.0843  0.7283
30230SOL     OW97550   6.371   0.959   6.345  0.0620  0.3026  0.7492
30230SOL    HW197551   6.313   1.035   6.347  0.5159  0.6453  0.9753
30230SOL    HW297552   6.351   0.912   6.426 -0.8615 -0.3212  0.1948
30231SOL     OW97553   7.751   9.126   8.665  0.0451  0.1811  0.5733
30231SOL    HW197554   7.768   9.124   8.571  0.8758  5.1468  0.3642
30231SOL    HW297555   7.836   9.109   8.706  0.5592  1.7086  0.2132
30232SOL     OW97556   2.871   1.492  10.413 -0.7250  0.1086 -0.8203
30232SOL    HW197557   2.933   1.463  10.346  0.2085 -0.0512  0.0947
30232SOL    HW297558   2.915   1.565  10.457 -1.3863  0.3046 -0.4590
30233SOL     OW97559  11.173   6.131   2.867 -0.3091  0.3567  0.1397
30233SOL    HW197560  11.262   6.141   2.833  0.4464 -3.1555  0.6802
30233SOL    HW297561  11.123   6.200   2.823  2.5120  2.1838 -0.5420
30234SOL     OW97562   3.453  11.447   9.344  0.3745 -0.3248 -0.3006
30234SOL    HW197563   3.477  11.359   9.317  2.1763  0.1602 -0.4458
30234SOL    HW297564   3.506  11.463   9.422  0.4437  0.7845 -0.5563
30235SOL     OW97565  11.232   5.405  10.324 -0.1960  0.3147 -0.4789
30235SOL    HW197566  11.300   5.338  10.324  1.8561  2.1728  2.5771
30235SOL    HW297567  11.195   5.402  10.412 -2.2422  1.1521 -1.2519
30236SOL     OW97568   5.695   3.484   9.778  0.0184 -0.1622  0.1608
30236SOL    HW197569   5.670   3.420   9.845  1.3977 -0.9631 -0.0489
30236SOL    HW297570   5.769   3.443   9.732  0.1674  1.0850 -0.7607
30237SOL     OW97571   9.652   3.517   1.413  0.6047  0.2547  0.1738
30237SOL    HW197572   9.668   3.506   1.320  2.3887  0.6174  0.4002
30237SOL    HW297573   9.685   3.604   1.434 -1.9453  1.1503  0.7351
30238SOL     OW97574   9.092   0.597  10.877  0.0759 -0.2024 -0.0344
30238SOL    HW197575   9.052   0.546  10.948  0.2737  1.2950  1.2079
30238SOL    HW297576   9.168   0.545  10.851 -0.6460 -1.3413  0.0364
30239SOL     OW97577  11.871   3.411   8.667  0.1052  0.3346 -0.0819
30239SOL    HW197578  11.777   3.430   8.662 -0.2026 -0.7503  0.9866
30239SOL    HW297579  11.913   3.497   8.674 -0.9321  0.7812  0.9671
30240SOL     OW97580  10.183   6.967   7.102 -0.3463 -0.0935 -0.2279
30240SOL    HW197581  10.218   7.051   7.074 -0.3048  0.1272  0.4514
30240SOL    HW297582  10.259   6.908   7.101 -0.0843  0.2099  0.5579
30241SOL     OW97583   5.127   4.351  10.224  0.6431 -0.4480  0.1897
30241SOL    HW197584   5.106   4.346  10.317  2.2395 -0.3238  0.5884
30241SOL    HW297585   5.154   4.441  10.210 -0.4126 -0.2380 -0.6066
30242SOL     OW97586   5.791   5.894   9.898  0.3032 -0.4952 -0.5499
30242SOL    HW197587   5.867   5.954   9.900  0.8105 -1.1417  1.0927
30242SOL    HW297588   5.717   5.951   9.879  0.8269  0.6306  0.6074
30243SOL     OW97589  10.921   9.065   2.794  0.2052 -0.5306 -0.0770
30243SOL    HW197590  10.858   8.993   2.790  1.0639 -1.3140  0.0847
30243SOL    HW297591  10.969   9.059   2.711  0.3895 -0.2392  0.0090
30244SOL     OW97592  10.181   6.942  11.687 -0.3540 -0.5685 -0.2466
30244SOL    HW197593  10.113   6.982  11.742  0.1637 -1.6005  1.1985
30244SOL    HW297594  10.143   6.860  11.658 -0.9509  0.3245 -2.2215
30245SOL     OW97595   0.801   4.633   1.642  0.4017  0.1438 -0.2140
30245SOL    HW197596   0.752   4.684   1.578  0.4981  0.0937 -0.3282
30245SOL    HW297597   0.749   4.639   1.722 -0.5569 -1.1125 -0.7096
30246SOL     OW97598   3.661   4.627   8.026  0.1699 -0.0586 -0.6729
30246SOL    HW197599   3.694   4.632   8.116  0.8086 -0.3120 -0.8903
30246SOL    HW297600   3.568   4.605   8.036  0.2897 -0.3125 -0.0803
30247SOL     OW97601   9.588   3.998  11.874 -0.9339  0.0792  0.3437
30247SOL    HW197602   9.611   4.065  11.810 -0.3831 -0.2458  0.1950
30247SOL    HW297603   9.632   4.026  11.955  1.8017 -1.5821 -0.4318
30248SOL     OW97604   5.139   5.303   8.833 -0.1547 -0.1458 -0.1212
30248SOL    HW197605   5.139   5.365   8.907 -0.5138  0.9360 -1.0013
30248SOL    HW297606   5.219   5.326   8.784 -0.3873 -0.2575 -0.5520
30249SOL     OW97607  10.895   5.245   7.530 -0.5521 -0.3643  0.8402
30249SOL    HW197608  10.920   5.187   7.602  0.9800 -0.7015  0.0802
30249SOL    HW297609  10.815   5.289   7.561 -0.0366 -0.6251  2.6632
30250SOL     OW97610  11.829   8.039   3.538  0.9073 -0.2895  0.1489
30250SOL    HW197611  11.889   8.107   3.507 -0.6717  1.3930  0.6801
30250SOL    HW297612  11.742   8.078   3.532 -0.2888 -2.9164 -1.2764
30251SOL     OW97613   0.958   2.616   2.554 -0.3131 -0.0449  0.1046
30251SOL    HW197614   0.876   2.620   2.504 -0.9696  0.3453  1.1735
30251SOL    HW297615   1.014   2.556   2.504 -1.0806  0.0320 -0.8808
30252SOL     OW97616   0.195  10.744   6.125  0.3540 -0.4010 -0.4566
30252SOL    HW197617   0.285  10.737   6.156  0.5043  1.0627 -0.5343
30252SOL    HW297618   0.177  10.658   6.085  0.6594 -1.8449  2.2457
30253SOL     OW97619   5.928   4.543   6.457  0.1300 -0.3472  0.0254
30253SOL    HW197620   5.963   4.520   6.371 -0.8740  2.7400 -1.3784
30253SOL    HW297621   5.973   4.624   6.480 -1.7315  0.5054  0.9392
30254SOL     OW97622   5.728  11.527   1.097  0.5908 -0.2130 -0.0863
30254SOL    HW197623   5.694  11.617   1.103 -1.4603 -0.7899 -1.6796
30254SOL    HW297624   5.671  11.476   1.155 -0.4911 -0.9823 -1.7446
30255SOL     OW97625   9.119   9.911   9.703  0.0237  0.2251 -0.3703
30255SOL    HW197626   9.214   9.898   9.706 -0.1043 -0.6259  0.2665
30255SOL    HW297627   9.098   9.917   9.609  0.4790 -1.3962 -0.6059
30256SOL     OW97628   7.820  12.157   8.661 -0.5753  0.4188 -0.2530
30256SOL    HW197629   7.825  12.201   8.576  0.2816  3.0619  1.0456
30256SOL    HW297630   7.727  12.148   8.679 -0.9931  4.7825  0.7576
30257SOL     OW97631   1.560   0.621  11.088  0.1175 -0.5885  0.3683
30257SOL    HW197632   1.503   0.638  11.163 -0.3848 -1.5131  0.2140
30257SOL    HW297633   1.548   0.528  11.069  0.2709 -0.3816 -0.8401
30258SOL     OW97634   2.009  10.143   5.780 -0.4361 -0.1829 -0.3009
30258SOL    HW197635   1.926  10.110   5.746 -0.3819 -0.9766  0.2873
30258SOL    HW297636   2.034  10.079   5.847 -1.0249  1.7814  1.9564
30259SOL     OW97637   5.130   7.192   9.851 -0.2537 -0.1615 -0.2106
30259SOL    HW197638   5.179   7.264   9.891 -2.0329  1.3985 -0.6438
30259SOL    HW297639   5.138   7.120   9.913  1.8335  0.2838  0.1119
30260SOL     OW97640   6.101   4.319   4.549 -0.3310 -0.4247  0.4698
30260SOL    HW197641   6.035   4.387   4.559  0.5956  0.5446  0.2720
30260SOL    HW297642   6.060   4.240   4.584 -1.4231  0.2419  0.7535
30261SOL     OW97643   5.189   1.468   8.433  0.5480  0.2763 -0.0925
30261SOL    HW197644   5.275   1.509   8.445  0.7355  0.0593 -0.6713
30261SOL    HW297645   5.180   1.410   8.509  2.0382 -1.6121 -1.2578
30262SOL     OW97646   2.361   4.059   6.689  0.2207  0.2938 -0.2444
30262SOL    HW197647   2.344   3.992   6.623 -0.7265  1.5043 -1.2692
30262SOL    HW297648   2.439   4.104   6.657 -1.6043  2.4884 -1.9678
30263SOL     OW97649   8.965   5.450   1.584 -0.6557  0.3452 -0.2373
30263SOL    HW197650   8.929   5.477   1.499 -3.1005 -0.9539  0.2826
30263SOL    HW297651   9.023   5.376   1.563 -0.5160  0.6244 -0.8475
30264SOL     OW97652   4.807   0.927  10.725 -0.0453  0.1452 -0.4889
30264SOL    HW197653   4.879   0.978  10.687  1.3832 -1.6082 -0.2873
30264SOL    HW297654   4.819   0.839  10.689 -1.6227 -0.3813  0.2064
30265SOL     OW97655  10.457   1.093   2.928  0.4933  0.8852 -0.7042
30265SOL    HW197656  10.538   1.063   2.970  0.0129 -1.1080 -1.0683
30265SOL    HW297657  10.480   1.101   2.836  0.5551  1.3811 -0.6441
30266SOL     OW97658   4.818   3.158   8.252  0.0188  0.2504 -0.1408
30266SOL    HW197659   4.784   3.238   8.212  1.6876  0.7542 -0.6308
30266SOL    HW297660   4.890   3.188   8.308  1.6068 -1.0117 -1.4221
30267SOL     OW97661   3.299  10.660   4.205 -0.2340  0.0999 -0.2156
30267SOL    HW197662   3.236  10.593   4.178  0.3131 -0.0668 -1.1359
30267SOL    HW297663   3.384  10.625   4.176  0.1864  0.6888  0.2826
30268SOL     OW97664   6.883   0.833   4.786  0.8597 -0.4883  0.1709
30268SOL    HW197665   6.931   0.757   4.820  0.1744 -1.3320 -0.6656
30268SOL    HW297666   6.800   0.796   4.756  1.1370  0.3220 -1.7242
30269SOL     OW97667   8.373   5.299  10.044  0.0919 -0.2099 -0.3340
30269SOL    HW197668   8.297   5.347  10.009  0.6819 -0.0116 -1.3719
30269SOL    HW297669   8.448   5.333   9.995  1.0672  0.5263  1.5629
30270SOL     OW97670   0.627   7.629  10.914  0.0547  0.4696 -0.1423
30270SOL    HW197671   0.537   7.651  10.939 -0.0900 -1.3393  1.0835
30270SOL    HW297672   0.618   7.586  10.829 -0.4899 -1.2986  0.7631
30271SOL     OW97673   9.294   8.184   8.909  0.4272 -0.2405 -0.0934
30271SOL    HW197674   9.292   8.277   8.884  1.3602 -0.8848 -2.9348
30271SOL    HW297675   9.382   8.155   8.886 -0.4661 -2.2666 -1.1539
30272SOL     OW97676   4.421   0.809   6.865 -0.7605 -0.5642 -0.1523
30272SOL    HW197677   4.430   0.730   6.813 -0.1382 -0.2374 -0.5599
30272SOL    HW297678   4.388   0.779   6.950  1.2807 -1.5163  0.3632
30273SOL     OW97679   2.558   9.447  12.197  0.5945  0.2019 -0.0127
30273SOL    HW197680   2.474   9.461  12.154  0.0930  0.0370  0.8867
30273SOL    HW297681   2.574   9.529  12.244  0.2450 -0.2752  0.9525
30274SOL     OW97682  11.504   3.144  10.555  0.4071 -0.2262  0.0381
30274SOL    HW197683  11.542   3.219  10.600 -0.9735 -0.9058  2.5593
30274SOL    HW297684  11.574   3.110  10.500  1.2574  2.4783 -0.6510
30275SOL     OW97685   0.710   7.996  10.747 -0.2756 -0.0501  0.4097
30275SOL    HW197686   0.761   8.074  10.723 -1.0922 -0.0418 -1.5051
30275SOL    HW297687   0.739   7.929  10.685 -0.7050 -0.8050  1.0163
30276SOL     OW97688   5.826   9.814   2.826 -0.1786 -0.3216  0.1748
30276SOL    HW197689   5.790   9.727   2.813 -0.4831 -0.1576 -0.1226
30276SOL    HW297690   5.758   9.861   2.874 -0.3084 -0.0515 -0.2646
30277SOL     OW97691   7.348   9.897   8.069  0.1173  0.5467 -0.1201
30277SOL    HW197692   7.352   9.829   8.002 -0.1264 -1.6773  1.9720
30277SOL    HW297693   7.258   9.930   8.065 -0.3527 -0.6683  0.1070
30278SOL     OW97694   0.520   8.353   7.785  0.4104  0.3708  0.1307
30278SOL    HW197695   0.456   8.348   7.714  0.0828  1.8556  0.2781
30278SOL    HW297696   0.573   8.430   7.764 -0.1941  1.3258  1.8647
30279SOL     OW97697   5.886  12.046  12.390 -0.2971 -0.0563  0.1077
30279SOL    HW197698   5.848  12.074  12.307 -0.4802  1.0186  0.5368
30279SOL    HW297699   5.811  12.039  12.450  0.0829  1.6906  0.8507
30280SOL     OW97700   1.554   6.007   4.613  0.0529  0.0354 -0.3625
30280SOL    HW197701   1.604   6.001   4.532 -0.6439 -0.6999 -0.7541
30280SOL    HW297702   1.470   5.966   4.592 -0.2449  0.1139  0.6426
30281SOL     OW97703  11.908   9.234   4.839 -0.1222 -0.0893 -0.0589
30281SOL    HW197704  11.898   9.264   4.749 -1.6170 -1.7732 -0.4974
30281SOL    HW297705  11.880   9.143   4.838 -0.2706 -0.1231  2.1385
30282SOL     OW97706   4.598  11.274   0.021 -0.0336  0.3872  0.3367
30282SOL    HW197707   4.622  11.182   0.031 -1.0266  0.0435 -0.3229
30282SOL    HW297708   4.663  11.321   0.074  1.2834 -0.5780 -0.3570
30283SOL     OW97709   0.516   8.170   4.582  0.1910 -0.5408 -0.2010
30283SOL    HW197710   0.536   8.259   4.553 -0.6246 -0.2968 -0.0571
30283SOL    HW297711   0.492   8.180   4.674  0.7050 -1.0017 -0.0157
30284SOL     OW97712  10.096  11.650   2.073 -0.9453 -0.2455  0.3626
30284SOL    HW197713  10.051  11.598   2.139  0.3424 -1.6600  0.2066
30284SOL    HW297714  10.140  11.719   2.122 -2.3486  0.4981  0.6254
30285SOL     OW97715   2.147  11.833   7.741  0.0543  0.0299  0.2533
30285SOL    HW197716   2.054  11.856   7.736 -0.3698 -1.6683 -0.2854
30285SOL    HW297717   2.150  11.740   7.721  1.9783  0.2449 -0.7338
30286SOL     OW97718   7.455   7.075   1.278 -0.0542 -0.0512  0.6579
30286SOL    HW197719   7.472   6.986   1.248  1.5130  0.3276  0.2966
30286SOL    HW297720   7.534   7.099   1.328  0.6809  1.9559 -1.2972
30287SOL     OW97721   9.355   7.307   0.421 -0.3773 -0.5769  0.0840
30287SOL    HW197722   9.336   7.231   0.475  0.3533 -1.2993 -0.6355
30287SOL    HW297723   9.342   7.382   0.479 -0.2200 -1.2943  1.0759
30288SOL     OW97724   4.817   4.407   9.863 -0.3992  0.2683  0.8246
30288SOL    HW197725   4.858   4.449   9.938 -2.2358  1.8190  1.0256
30288SOL    HW297726   4.767   4.477   9.821  1.6762 -0.1392 -2.7420
30289SOL     OW97727   0.604   0.823   3.334  0.8033 -0.0501 -0.0518
30289SOL    HW197728   0.664   0.826   3.260 -0.9522  1.2987 -1.5315
30289SOL    HW297729   0.592   0.914   3.360  0.6957 -0.4302  1.3430
30290SOL     OW97730   7.024   6.131  11.326  0.1130  0.7366  0.0554
30290SOL    HW197731   6.959   6.159  11.261 -1.8584 -0.6211  1.3667
30290SOL    HW297732   7.072   6.211  11.347  0.4021  1.3515 -2.5488
30291SOL     OW97733   4.396  11.373   3.903  0.1826 -0.7117 -0.2511
30291SOL    HW197734   4.453  11.390   3.828  1.8081  0.2859  1.1211
30291SOL    HW297735   4.307  11.377   3.868  0.8470  0.8542 -1.9118
30292SOL     OW97736  11.401   3.234   5.288  0.3938 -0.0126  0.9410
30292SOL    HW197737  11.328   3.296   5.277  1.1332  0.5404 -1.3611
30292SOL    HW297738  11.365   3.150   5.263  0.7641  0.4394 -1.2822
30293SOL     OW97739   4.680  12.325   9.709 -0.1587  0.4618 -0.4328
30293SOL    HW197740   4.668  12.417   9.689 -1.4028  0.4158  0.0679
30293SOL    HW297741   4.635  12.278   9.638 -0.1644  0.2481 -0.2896
30294SOL     OW97742   3.203  10.600  11.387  0.6013  0.6150 -0.0098
30294SOL    HW197743   3.241  10.550  11.314 -0.5440 -0.6786  0.2314
30294SOL    HW297744   3.265  10.586  11.459  0.5797 -0.0029 -0.1033
30295SOL     OW97745   2.747   7.539   7.587  0.5788  0.0984 -0.4234
30295SOL    HW197746   2.778   7.617   7.633 -0.3619  0.4048 -0.2755
30295SOL    HW297747   2.779   7.549   7.498  1.1093  0.2711 -0.2189
30296SOL     OW97748   1.588   0.614  11.802  0.2515 -0.8338 -0.0292
30296SOL    HW197749   1.574   0.523  11.830  0.6088 -0.4060  1.6733
30296SOL    HW297750   1.509   0.636  11.752 -0.4649 -1.6566  0.6966
30297SOL     OW97751  11.971   9.705   6.127  0.4459  0.1546 -0.1394
30297SOL    HW197752  11.961   9.775   6.062 -0.2208 -1.3132 -1.7110
30297SOL    HW297753  12.062   9.678   6.119  0.5033  0.3364 -0.0900
30298SOL     OW97754  11.903   4.460   7.059 -0.0955 -0.3976 -0.2651
30298SOL    HW197755  11.875   4.420   7.141  1.0608 -0.5596  0.0752
30298SOL    HW297756  11.874   4.400   6.991  0.9133 -1.4425  0.1881
30299SOL     OW97757   4.751   5.526   0.411 -0.5270  0.0121 -0.3312
30299SOL    HW197758   4.817   5.554   0.347  1.6572 -0.6464  1.4877
30299SOL    HW297759   4.800   5.472   0.473 -3.4579 -3.5139 -0.7628
30300SOL     OW97760  10.105   3.450   3.376 -0.0031 -1.3320  0.2206
30300SOL    HW197761  10.059   3.526   3.411  0.0898 -1.6401  1.0436
30300SOL    HW297762  10.042   3.409   3.316  0.6439  0.4907 -1.8286
30301SOL     OW97763   6.237   4.238   6.607 -0.3644  0.2108 -0.0609
30301SOL    HW197764   6.327   4.267   6.591 -0.1751 -0.6385 -0.6352
30301SOL    HW297765   6.242   4.187   6.687 -0.0464 -1.0119 -0.8334
30302SOL     OW97766   5.788   8.833   3.180  0.2993  0.4565  0.1667
30302SOL    HW197767   5.734   8.755   3.164  1.1325 -0.5944  2.1140
30302SOL    HW297768   5.830   8.851   3.096  1.0119 -1.9469 -0.0516
30303SOL     OW97769   2.919   6.617   2.042 -0.2096  0.1099  0.0619
30303SOL    HW197770   2.868   6.539   2.022  1.0615 -0.0426 -3.3237
30303SOL    HW297771   2.854   6.682   2.070 -2.0316 -0.7108 -1.9886
30304SOL     OW97772   6.258   3.073   0.616 -0.2769  0.2008 -0.6289
30304SOL    HW197773   6.265   3.147   0.675  1.5124 -0.2405 -0.2211
30304SOL    HW297774   6.295   3.105   0.533  0.7877 -0.2831 -0.3637
30305SOL     OW97775   5.509   0.169   9.192 -0.7088  0.4194  0.3673
30305SOL    HW197776   5.595   0.172   9.234 -1.0390 -0.2595  1.1208
30305SOL    HW297777   5.447   0.160   9.265 -1.3619  0.1399 -0.2122
30306SOL     OW97778   8.872   0.027  10.291  0.3539  0.1973  0.1951
30306SOL    HW197779   8.870  -0.063  10.322 -1.6202 -0.0324 -0.4619
30306SOL    HW297780   8.848   0.022  10.198  3.1298  1.1573 -0.6629
30307SOL     OW97781   7.382   7.767   2.522 -0.0398 -0.3250 -0.0876
30307SOL    HW197782   7.397   7.779   2.615  1.6621 -0.7291 -0.2798
30307SOL    HW297783   7.353   7.676   2.513 -1.2258  0.0158  0.1326
30308SOL     OW97784   9.658   6.866   4.925 -0.0102 -0.0715 -0.2574
30308SOL    HW197785   9.600   6.916   4.981  0.3819 -0.3094  0.3676
30308SOL    HW297786   9.742   6.865   4.971 -0.1245 -1.6920 -0.0065
30309SOL     OW97787   8.064   4.170   2.711  0.3770 -0.1255  0.1201
30309SOL    HW197788   7.970   4.165   2.724  0.5106 -2.4742  0.5282
30309SOL    HW297789   8.100   4.166   2.800  0.8925  0.7631 -0.0332
30310SOL     OW97790   7.363   8.035   4.091 -0.0035 -0.1887 -0.0462
30310SOL    HW197791   7.268   8.041   4.095  0.0923  1.1758  0.9175
30310SOL    HW297792   7.391   8.022   4.181  0.7681  0.7321 -0.1223
30311SOL     OW97793   7.805   6.245   8.458 -0.5323  0.1229 -0.5933
30311SOL    HW197794   7.887   6.199   8.480 -0.9640 -0.3849  0.0084
30311SOL    HW297795   7.786   6.299   8.535 -1.2694 -0.5097 -0.3158
30312SOL     OW97796   6.496   2.388  11.943  0.0569 -0.3172  0.2438
30312SOL    HW197797   6.520   2.481  11.952  0.0444 -0.3212  0.3173
30312SOL    HW297798   6.540   2.345  12.017  0.6652 -0.4831 -0.2058
30313SOL     OW97799   2.793   3.042   7.253  0.1671 -0.4913 -0.0100
30313SOL    HW197800   2.816   2.955   7.284  1.1077 -0.5163 -0.7470
30313SOL    HW297801   2.877   3.085   7.238 -0.2504 -0.2978 -1.9845
30314SOL     OW97802   3.197  10.127   4.503  0.0175 -0.7390  0.2926
30314SOL    HW197803   3.169  10.214   4.476  1.2446  0.1509  1.7399
30314SOL    HW297804   3.140  10.067   4.454 -1.9266  0.8853  0.4495
30315SOL     OW97805   6.784   8.422   8.754 -0.1568 -0.2034 -0.2253
30315SOL    HW197806   6.788   8.515   8.774 -0.0402 -0.1836 -0.3335
30315SOL    HW297807   6.705   8.391   8.797 -0.3120 -0.0103 -0.3699
30316SOL     OW97808   0.555   0.046   1.483 -0.4866  0.3106 -0.1539
30316SOL    HW197809   0.475   0.089   1.453 -1.0575  0.9156  2.0668
30316SOL    HW297810   0.612   0.117   1.511  0.1561 -0.2026 -0.1340
30317SOL     OW97811   6.332  10.504   9.007 -0.6088 -0.5232  0.1664
30317SOL    HW197812   6.272  10.503   8.932 -0.4435 -0.8132  0.0370
30317SOL    HW297813   6.276  10.527   9.081 -0.4910  1.4451 -0.2798
30318SOL     OW97814  11.767   4.527   7.828  0.3933  0.1312 -0.5140
30318SOL    HW197815  11.761   4.550   7.921  1.0151  0.7172 -0.6132
30318SOL    HW297816  11.702   4.584   7.785  0.1583 -0.0873 -0.4520
30319SOL     OW97817   9.118  10.241  11.095  0.1639 -0.1961 -0.6646
30319SOL    HW197818   9.025  10.246  11.074  0.1275 -0.3511 -0.5421
30319SOL    HW297819   9.159  10.305  11.037  0.3487 -2.1423 -2.7975
30320SOL     OW97820   2.096  11.350   2.633 -0.1143  0.1341  0.6089
30320SOL    HW197821   2.034  11.308   2.692 -0.6298 -1.4345 -0.9615
30320SOL    HW297822   2.182  11.317   2.661 -0.0673  1.3725  2.0245
30321SOL     OW97823   3.138  10.348   0.203 -0.4838  0.1757  0.4144
30321SOL    HW197824   3.216  10.327   0.153 -0.2904  0.5340  0.5610
30321SOL    HW297825   3.101  10.425   0.160 -0.2033  0.6081  0.9353
30322SOL     OW97826   0.988  10.009   1.066 -0.8579  0.0408 -0.7270
30322SOL    HW197827   1.016   9.978   0.980  1.6797 -0.8613  0.3217
30322SOL    HW297828   0.998  10.105   1.061 -1.3615  0.0568 -1.6101
30323SOL     OW97829   1.444   3.760  11.676 -0.3745  0.3997 -0.5206
30323SOL    HW197830   1.462   3.678  11.631 -1.4479  0.3969 -0.9587
30323SOL    HW297831   1.480   3.827  11.618  1.2402  0.2335  0.2158
30324SOL     OW97832   2.488   5.145   2.403  0.3593 -0.6428  0.3082
30324SOL    HW197833   2.455   5.139   2.313  0.5332 -0.6582  0.2442
30324SOL    HW297834   2.512   5.237   2.414  2.4089 -1.0259 -0.4190
30325SOL     OW97835   7.968  11.545   5.241 -0.0376  0.5405 -0.6367
30325SOL    HW197836   8.062  11.547   5.262 -0.5228  3.0707  1.9584
30325SOL    HW297837   7.934  11.473   5.295  0.2132  0.5071 -0.5178
30326SOL     OW97838   0.496   7.153   3.820  0.1399 -0.1010 -0.7489
30326SOL    HW197839   0.400   7.149   3.816  0.0907 -0.9972  0.8314
30326SOL    HW297840   0.516   7.246   3.808 -0.7727 -0.1462 -3.2087
30327SOL     OW97841  11.293  10.841   4.955  0.5059  0.9022  0.1645
30327SOL    HW197842  11.323  10.766   5.006  0.4784 -0.4777 -1.7328
30327SOL    HW297843  11.269  10.804   4.870 -0.0259  2.9975 -0.6612
30328SOL     OW97844   5.693   9.075   3.269 -0.1110  0.3053  0.4971
30328SOL    HW197845   5.698   8.988   3.230  0.5118  0.4100  0.3191
30328SOL    HW297846   5.642   9.127   3.207  1.3649  0.6213 -0.4982
30329SOL     OW97847  11.463   5.823   6.924 -0.4666  0.3761  0.5924
30329SOL    HW197848  11.546   5.786   6.894 -0.6109 -0.6519  1.3983
30329SOL    HW297849  11.470   5.917   6.905  1.3390  0.5061  1.6600
30330SOL     OW97850   6.206   6.177   5.874  0.3490 -0.0393 -0.4063
30330SOL    HW197851   6.206   6.089   5.837 -1.5124  0.3980 -1.6368
30330SOL    HW297852   6.180   6.165   5.965  2.5994 -0.9332  0.1804
30331SOL     OW97853  10.681   2.687   6.280 -0.2730 -0.0811 -0.8460
30331SOL    HW197854  10.729   2.734   6.348 -1.1871 -1.4141  0.7951
30331SOL    HW297855  10.742   2.619   6.250 -0.1709 -0.0314 -0.7530
30332SOL     OW97856  12.225   2.720   4.229 -0.1818 -0.7013  0.3465
30332SOL    HW197857  12.231   2.664   4.307  1.5239 -1.5772 -0.3760
30332SOL    HW297858  12.316   2.734   4.202 -0.2971  3.9089  1.4640
30333SOL     OW97859  12.238   5.914   1.124  0.3550  0.3131  0.5321
30333SOL    HW197860  12.143   5.920   1.118  0.0333 -1.2531  2.9484
30333SOL    HW297861  12.259   5.828   1.085  0.4427 -0.5173  2.3264
30334SOL     OW97862   9.585   7.326   4.102 -1.0461 -0.1348 -0.1873
30334SOL    HW197863   9.659   7.373   4.061 -0.2223 -1.1445  0.0960
30334SOL    HW297864   9.611   7.234   4.098 -1.3545 -0.3395  1.7994
30335SOL     OW97865   6.959  12.440   2.164  0.9661 -0.0425  0.4594
30335SOL    HW197866   6.997  12.522   2.130 -0.3544  0.0952 -0.7486
30335SOL    HW297867   6.967  12.378   2.091  0.2820 -0.4524  0.7283
30336SOL     OW97868   4.832   2.463  10.138  0.1213 -0.2732 -0.4641
30336SOL    HW197869   4.857   2.531  10.075  1.0530 -0.6895 -0.5622
30336SOL    HW297870   4.913   2.445  10.186  0.3994 -2.6069 -1.6716
30337SOL     OW97871   0.846   9.209   4.672 -0.1780  0.8285 -0.2488
30337SOL    HW197872   0.796   9.147   4.619  1.0638  0.3421 -0.8671
30337SOL    HW297873   0.782   9.277   4.694 -1.0860  0.2878 -1.1242
30338SOL     OW97874  11.628   1.929   9.361 -0.0295 -0.3311 -0.2656
30338SOL    HW197875  11.604   1.938   9.453  2.8835  2.1832  0.3852
30338SOL    HW297876  11.556   1.971   9.313  0.0403  1.5025  1.1309
30339SOL     OW97877  11.952  10.241   3.506  0.3451 -0.0939  0.5138
30339SOL    HW197878  11.884  10.179   3.480  0.4897  0.1707 -0.5435
30339SOL    HW297879  11.929  10.323   3.463  0.8054  0.2695  0.9362
30340SOL     OW97880   9.059   3.804   7.099  0.2333 -0.3063  0.8369
30340SOL    HW197881   9.150   3.776   7.087  1.4250  2.9205  1.2296
30340SOL    HW297882   9.025   3.813   7.010  1.2995  1.1149  0.5238
30341SOL     OW97883   3.803   3.620   9.339 -0.1609 -0.4145 -0.0462
30341SOL    HW197884   3.865   3.626   9.267  0.8522  0.8195  0.8991
30341SOL    HW297885   3.782   3.710   9.361  1.7217 -0.6082  3.0290
30342SOL     OW97886   2.583   5.800  11.231 -0.4269 -0.3241 -0.6160
30342SOL    HW197887   2.502   5.772  11.189 -0.9154  0.6334 -0.3317
30342SOL    HW297888   2.638   5.833  11.160 -1.5268  1.9651 -0.4773
30343SOL     OW97889   3.587   0.316   1.560  0.1795  0.3365  0.4340
30343SOL    HW197890   3.655   0.283   1.620 -0.2851  1.3243  1.5376
30343SOL    HW297891   3.528   0.365   1.616 -0.1784  1.4470 -0.8781
30344SOL     OW97892   5.890  11.833   4.021  0.1609  0.0499 -0.5526
30344SOL    HW197893   5.961  11.778   4.052  0.7895  2.0607  1.9570
30344SOL    HW297894   5.916  11.858   3.932  2.2257  0.1057  0.0146
30345SOL     OW97895   0.987  10.584   0.827  0.1749  0.1812  0.2697
30345SOL    HW197896   0.917  10.540   0.780  0.6872 -1.2972  0.8346
30345SOL    HW297897   1.033  10.635   0.760 -0.3065 -0.3192 -0.4507
30346SOL     OW97898   7.405   1.427   4.844  0.4441  0.0549  0.3431
30346SOL    HW197899   7.355   1.477   4.779  1.6787 -0.0700 -0.7470
30346SOL    HW297900   7.385   1.336   4.824  0.6621  0.0229  0.2741
30347SOL     OW97901   2.417   0.709   8.968 -0.1681  1.0030 -0.1470
30347SOL    HW197902   2.415   0.717   9.063  1.6238 -0.6135  0.1163
30347SOL    HW297903   2.464   0.787   8.938  0.2955  0.9588  0.4341
30348SOL     OW97904   7.908  11.531   4.548 -0.1045 -0.1393 -0.6961
30348SOL    HW197905   7.989  11.581   4.556 -0.3407  0.2833 -0.9010
30348SOL    HW297906   7.843  11.582   4.596 -0.2349 -0.5174 -0.4649
30349SOL     OW97907   2.396   0.175   4.634 -0.1517 -0.1117  0.3737
30349SOL    HW197908   2.473   0.186   4.690  0.7168  0.4928 -0.8919
30349SOL    HW297909   2.336   0.245   4.661  0.9177  1.1797 -0.4937
30350SOL     OW97910   7.260   8.037   1.407  0.2511  0.0032  0.4367
30350SOL    HW197911   7.352   8.025   1.384  0.7246  1.4363  1.4364
30350SOL    HW297912   7.236   8.119   1.365 -0.1771  0.3037  1.2473
30351SOL     OW97913   5.041   0.138   4.531 -0.0035 -0.1235  0.3964
30351SOL    HW197914   5.057   0.141   4.625  1.1514  0.6662  0.1954
30351SOL    HW297915   5.060   0.227   4.501  2.8517 -1.0927 -1.0408
30352SOL     OW97916  10.593   2.308   5.971 -0.6650 -0.0882 -0.2389
30352SOL    HW197917  10.543   2.339   6.047 -0.3733  1.0164 -0.4819
30352SOL    HW297918  10.570   2.369   5.901  0.9213  0.3552 -0.3889
30353SOL     OW97919   3.469   3.276   1.890  0.4516  0.0381 -0.0441
30353SOL    HW197920   3.488   3.220   1.815 -0.1108  1.0865 -1.0101
30353SOL    HW297921   3.391   3.325   1.865  1.0397  1.4166  0.6466
30354SOL     OW97922   3.750   9.072  11.119  0.4392 -0.1694  0.1824
30354SOL    HW197923   3.762   9.057  11.025  1.0849 -0.3313  0.2870
30354SOL    HW297924   3.671   9.023  11.141  1.9690 -2.7124  0.3298
30355SOL     OW97925   6.272   7.872  10.809  0.4902  0.7683 -0.1979
30355SOL    HW197926   6.273   7.804  10.742  1.3157  1.7025 -1.1708
30355SOL    HW297927   6.228   7.946  10.767 -1.8449  0.3778  1.3665
30356SOL     OW97928   4.604   2.029   1.859 -0.0311  0.4307 -0.0763
30356SOL    HW197929   4.570   1.941   1.840  1.7837 -0.1441 -0.9118
30356SOL    HW297930   4.574   2.082   1.785  1.6831 -0.3260 -1.3922
30357SOL     OW97931   4.539   7.766   2.572  0.2464  0.0887  0.1227
30357SOL    HW197932   4.621   7.719   2.585  0.5482  1.1000  2.3979
30357SOL    HW297933   4.564   7.848   2.530  0.2442 -0.1171 -0.2785
30358SOL     OW97934   8.006   2.115   0.523 -0.0621 -0.1543 -0.5624
30358SOL    HW197935   8.071   2.045   0.531 -0.0976 -0.1666 -0.3932
30358SOL    HW297936   8.038   2.169   0.450  0.6872  0.4296  0.1831
30359SOL     OW97937  10.948   7.744   5.969 -0.6068 -0.8286 -0.3748
30359SOL    HW197938  10.975   7.719   6.057  1.0037 -2.0854 -1.1724
30359SOL    HW297939  10.910   7.664   5.932 -1.9351 -0.1175 -0.6045
30360SOL     OW97940   6.290   6.581   5.617 -0.5998 -0.0691  0.5292
30360SOL    HW197941   6.210   6.533   5.635  0.2504 -1.0935  1.7147
30360SOL    HW297942   6.303   6.571   5.522 -2.7206  1.5497 -0.0247
30361SOL     OW97943  11.443   4.463   2.063  0.3520  0.5908 -0.6722
30361SOL    HW197944  11.446   4.538   2.122  0.5136  0.1363 -0.0825
30361SOL    HW297945  11.489   4.394   2.111 -0.2905 -0.0505 -0.9610
30362SOL     OW97946   2.289  11.095   0.008  0.5580 -0.2874  0.0652
30362SOL    HW197947   2.377  11.059  -0.005  0.7866  0.4749 -0.5297
30362SOL    HW297948   2.304  11.184   0.039 -0.0028 -0.8228  2.0481
30363SOL     OW97949   3.259   1.422   3.375 -0.0917 -0.1073  0.0442
30363SOL    HW197950   3.174   1.466   3.379 -0.0938 -0.1075  0.0000
30363SOL    HW297951   3.322   1.492   3.358  0.2748  0.3207  2.7821
30364SOL     OW97952   0.688  11.524   2.320 -0.5066  0.3397  0.2984
30364SOL    HW197953   0.755  11.463   2.353 -1.1248  0.0848  1.1354
30364SOL    HW297954   0.631  11.539   2.396 -0.5497  1.7219  0.0151
30365SOL     OW97955   1.837   2.567  10.173  0.1674 -0.1356  0.1507
30365SOL    HW197956   1.756   2.592  10.129 -0.1282  0.4540  0.9937
30365SOL    HW297957   1.864   2.486  10.131 -0.1402  0.3565 -1.0526
30366SOL     OW97958   7.637   4.288   7.490  0.1567 -0.2716  0.2267
30366SOL    HW197959   7.592   4.269   7.572  1.7215 -0.0650  1.1780
30366SOL    HW297960   7.575   4.340   7.440 -0.1671  1.2064  2.0496
30367SOL     OW97961   2.636   8.671   2.710 -0.1136 -0.0807 -0.0069
30367SOL    HW197962   2.625   8.583   2.747 -1.3134  0.4087  0.8818
30367SOL    HW297963   2.559   8.684   2.655  0.0650  0.4125 -0.1442
30368SOL     OW97964  10.654   1.446   8.351  0.1017  0.0886 -1.0280
30368SOL    HW197965  10.577   1.390   8.355 -0.4786  0.9115 -0.3708
30368SOL    HW297966  10.623   1.533   8.378  0.7822  0.9543 -2.8172
30369SOL     OW97967   3.087   4.514   4.372  0.2513 -0.0113 -0.0038
30369SOL    HW197968   3.071   4.483   4.461  1.4918 -0.8098 -0.0256
30369SOL    HW297969   3.082   4.609   4.378 -0.3677 -0.0824  0.7624
30370SOL     OW97970   6.197   8.065   7.421  0.4310 -0.1485 -0.0096
30370SOL    HW197971   6.292   8.072   7.432  0.5539 -0.2673 -0.9814
30370SOL    HW297972   6.184   8.042   7.329 -0.5610  0.3355 -0.0058
30371SOL     OW97973   1.123   9.244  10.415 -0.4187  0.2153 -0.3838
30371SOL    HW197974   1.172   9.326  10.408  1.8174 -1.0872 -1.2600
30371SOL    HW297975   1.076   9.251  10.498  1.2279  1.6136  0.4962
30372SOL     OW97976  10.227   0.263   7.206 -0.3656  0.3540  0.3613
30372SOL    HW197977  10.156   0.323   7.179 -0.6979 -0.3550 -0.4022
30372SOL    HW297978  10.282   0.255   7.128 -0.7613 -0.9359  0.1958
30373SOL     OW97979   8.657  11.285   5.798 -0.4694 -0.0670 -0.3462
30373SOL    HW197980   8.684  11.257   5.886 -2.3729  1.1266  0.6941
30373SOL    HW297981   8.699  11.223   5.739  0.0412 -1.5431  1.4756
30374SOL     OW97982  10.119   8.529   1.898  0.2369 -0.0216 -0.2470
30374SOL    HW197983  10.031   8.502   1.925 -0.1358 -0.7325 -1.9818
30374SOL    HW297984  10.178   8.479   1.953 -0.4463  0.0881  0.6048
30375SOL     OW97985   4.926   7.896   5.500  0.0186 -0.1367 -0.3329
30375SOL    HW197986   4.992   7.918   5.434  0.2207  3.7166  0.9045
30375SOL    HW297987   4.976   7.852   5.569  1.4972  2.6656  0.5622
30376SOL     OW97988  12.370   9.637   1.498  0.1861 -0.1507  0.0309
30376SOL    HW197989  12.448   9.638   1.442  0.1045  0.5855 -0.0748
30376SOL    HW297990  12.393   9.693   1.572 -0.7992  1.4065 -0.7893
30377SOL     OW97991  11.477  10.048  11.544  0.0182  0.8249  0.1292
30377SOL    HW197992  11.454   9.972  11.598  0.1501 -0.6097 -1.6892
30377SOL    HW297993  11.419  10.118  11.573 -0.2532 -0.0330  1.7375
30378SOL     OW97994   2.861  11.587   8.512  0.4039  0.1036  0.2939
30378SOL    HW197995   2.863  11.682   8.504  0.7767 -0.0149 -1.3249
30378SOL    HW297996   2.794  11.570   8.578  0.6834  1.4954  0.9736
30379SOL     OW97997   5.645  10.927   6.526 -0.1399  0.6001 -0.2548
30379SOL    HW197998   5.561  10.970   6.510 -0.7969 -0.4569  0.1790
30379SOL    HW297999   5.709  10.981   6.481 -1.2704  0.5014 -2.0926
30380SOL     OW98000   7.229   3.765  11.346 -0.3377 -0.0196  0.0485
30380SOL    HW198001   7.187   3.795  11.265 -1.0928 -0.5377  0.2296
30380SOL    HW298002   7.189   3.819  11.415 -0.3642 -0.1926  0.1692
30381SOL     OW98003   1.212   2.148   9.805 -0.6682  0.0619 -0.3939
30381SOL    HW198004   1.132   2.162   9.754  0.1205  0.8163 -1.4715
30381SOL    HW298005   1.197   2.195   9.887 -1.9849 -1.2154  0.1472
30382SOL     OW98006   5.973   2.216  10.282 -0.5359  0.4464 -0.3809
30382SOL    HW198007   6.054   2.208  10.231  0.5066  2.1527  0.8979
30382SOL    HW298008   5.981   2.148  10.349 -0.5962  0.0345 -0.7837
30383SOL     OW98009   3.882   2.928   3.975 -0.3260  0.2549  0.6050
30383SOL    HW198010   3.923   3.000   3.927  0.1554  0.8530  1.8490
30383SOL    HW298011   3.897   2.851   3.921 -0.8746  1.0688 -0.7816
30384SOL     OW98012  11.203   7.176   1.140 -0.2214 -0.1658 -0.6355
30384SOL    HW198013  11.222   7.262   1.103  1.9555  0.0207  0.7297
30384SOL    HW298014  11.202   7.190   1.235 -2.8758 -1.1295 -0.4397
30385SOL     OW98015   3.302   4.339   9.002  0.0283 -0.5597  0.2553
30385SOL    HW198016   3.370   4.406   8.999 -0.4492  0.0367  1.6172
30385SOL    HW298017   3.238   4.373   9.065 -1.5421 -1.0880 -0.9717
30386SOL     OW98018   4.330  10.904  10.141  0.0488 -0.0402  0.2632
30386SOL    HW198019   4.313  10.997  10.130 -2.8747 -0.2210  2.1366
30386SOL    HW298020   4.296  10.863  10.061 -0.6691  0.3222  0.3833
30387SOL     OW98021   9.684   0.792   3.584 -0.2616 -0.3023 -0.3333
30387SOL    HW198022   9.651   0.881   3.586  1.6112  0.4174  0.6582
30387SOL    HW298023   9.699   0.770   3.676  0.6784 -1.0832 -0.6574
30388SOL     OW98024   8.647   1.746  10.592  0.5177 -0.3373 -0.5787
30388SOL    HW198025   8.723   1.751  10.650  0.4775 -1.4737 -0.3922
30388SOL    HW298026   8.594   1.822  10.615  1.9276  0.8934 -1.2273
30389SOL     OW98027   1.725  11.360   9.355  0.0328  0.0710  0.2671
30389SOL    HW198028   1.653  11.399   9.304 -0.0444 -0.2389  0.1377
30389SOL    HW298029   1.745  11.278   9.309 -0.8866 -0.8458  1.4366
30390SOL     OW98030   8.580   5.221   2.793 -0.1585 -0.0686 -0.1185
30390SOL    HW198031   8.574   5.290   2.859 -1.0043  0.0685 -0.3262
30390SOL    HW298032   8.637   5.257   2.726 -1.4485  0.8828 -0.7420
30391SOL     OW98033   1.979   7.149  11.916  0.3376  0.5677  0.0456
30391SOL    HW198034   1.961   7.212  11.846 -0.0208  0.9203  0.4476
30391SOL    HW298035   1.911   7.166  11.981  0.5908  0.1547  0.4233
30392SOL     OW98036   2.026   6.185  11.760 -0.6122 -0.7336 -0.6430
30392SOL    HW198037   1.994   6.140  11.681  0.9752 -1.1470 -1.0932
30392SOL    HW298038   2.112   6.146  11.776  0.5009  1.5426 -0.5772
30393SOL     OW98039   2.238   2.516   1.334  0.0482  0.5292 -0.3733
30393SOL    HW198040   2.312   2.514   1.273  1.1618  1.0755  0.9164
30393SOL    HW298041   2.195   2.600   1.316 -0.7771 -0.1315 -1.6690
30394SOL     OW98042   5.144   7.894  11.083 -0.0463  0.1166  0.7200
30394SOL    HW198043   5.142   7.830  11.154  0.1546  0.2921  0.8847
30394SOL    HW298044   5.148   7.841  11.003 -2.5379 -0.1520  0.7045
30395SOL     OW98045   6.741  10.526  11.738 -0.4881  0.4673  0.2862
30395SOL    HW198046   6.691  10.604  11.762 -2.2726 -0.4260 -0.3275
30395SOL    HW298047   6.832  10.548  11.758 -0.7830  3.0844 -0.8119
30396SOL     OW98048  12.040  10.710   3.732 -0.7560  0.2229 -0.8425
30396SOL    HW198049  12.031  10.659   3.651  1.3978 -0.3188 -0.8099
30396SOL    HW298050  11.972  10.675   3.790 -2.2026  0.4701 -2.2919
30397SOL     OW98051   9.852   1.458   4.126  0.9259  0.2671 -0.4654
30397SOL    HW198052   9.869   1.376   4.079  1.0235 -0.4256  0.7357
30397SOL    HW298053   9.930   1.511   4.112  0.9848  0.0428 -1.0063
30398SOL     OW98054  11.682   8.807   1.590  0.3140  0.5655  0.3322
30398SOL    HW198055  11.648   8.798   1.501  0.3089 -0.3980  0.4159
30398SOL    HW298056  11.658   8.725   1.633  0.7406  0.8203  1.0781
30399SOL     OW98057   6.378  11.675   3.966 -0.3057 -0.1592 -0.3549
30399SOL    HW198058   6.304  11.628   3.927 -0.8775 -1.3865  2.0405
30399SOL    HW298059   6.444  11.608   3.982 -0.0803  0.2976  0.7342
30400SOL     OW98060   4.107   7.057   2.584  0.1767  0.9229 -0.1138
30400SOL    HW198061   4.195   7.037   2.614  0.4391  1.5598 -0.4322
30400SOL    HW298062   4.056   7.068   2.664  0.2048 -0.1893  0.0651
30401SOL     OW98063   7.671   0.276   4.587  0.0856  0.7676  0.4702
30401SOL    HW198064   7.738   0.272   4.518  0.8548 -0.4395  1.2465
30401SOL    HW298065   7.592   0.241   4.544  0.3119  0.8886 -0.0582
30402SOL     OW98066  12.396   3.503   4.214 -0.1174 -0.0920 -0.1972
30402SOL    HW198067  12.335   3.518   4.286 -0.5077 -1.6382 -0.1556
30402SOL    HW298068  12.341   3.503   4.135 -0.2202 -1.5298 -0.1565
30403SOL     OW98069   8.556   1.324   6.086 -0.2091 -0.4534  0.2453
30403SOL    HW198070   8.495   1.277   6.143  0.0673  0.8747  1.7267
30403SOL    HW298071   8.517   1.411   6.077  0.8702  0.0460  0.2571
30404SOL     OW98072   0.214   7.991   3.173 -0.1756 -0.1254  0.1778
30404SOL    HW198073   0.221   7.989   3.077  0.5419  1.3374  0.1731
30404SOL    HW298074   0.296   7.951   3.203 -0.3413 -0.4615  0.1882
30405SOL     OW98075   5.736   6.526   9.299  0.2388 -0.6481  0.3442
30405SOL    HW198076   5.706   6.617   9.305  1.6363 -0.0421 -1.1701
30405SOL    HW298077   5.659   6.474   9.323 -0.9665  0.8970 -0.0042
30406SOL     OW98078  11.964  11.416   1.941 -0.2660 -0.2288  0.0116
30406SOL    HW198079  12.025  11.484   1.912 -1.1396 -0.2318 -1.9894
30406SOL    HW298080  11.907  11.460   2.004 -0.0694  0.5707 -0.3522
30407SOL     OW98081   3.691   4.344   1.714  0.7918  0.3236  0.1463
30407SOL    HW198082   3.601   4.315   1.696 -0.1470  2.4366  1.1353
30407SOL    HW298083   3.738   4.263   1.733 -0.5722 -0.9775 -1.6170
30408SOL     OW98084   8.306   4.797   1.368 -0.4771 -0.3012 -0.0543
30408SOL    HW198085   8.360   4.821   1.443 -0.2362  0.3216 -0.4133
30408SOL    HW298086   8.278   4.881   1.332 -0.0468 -0.5760 -1.0548
30409SOL     OW98087   2.925  11.457   2.811 -0.0508  0.2343  0.0170
30409SOL    HW198088   2.833  11.432   2.808 -0.0520  0.1066  0.8621
30409SOL    HW298089   2.925  11.550   2.788 -0.1881 -0.1793 -1.7779
30410SOL     OW98090   3.647   5.717  11.031 -0.6397 -0.1514 -0.7550
30410SOL    HW198091   3.697   5.700  11.110 -0.5534  1.0677 -0.5265
30410SOL    HW298092   3.710   5.707  10.960 -0.3727  0.1129 -0.5590
30411SOL     OW98093   0.549   7.079   5.502 -0.0614 -0.1507  0.0524
30411SOL    HW198094   0.562   6.988   5.527  0.7371 -0.2160 -0.5328
30411SOL    HW298095   0.567   7.081   5.408 -0.0923  0.6037  0.0535
30412SOL     OW98096   4.886   0.734   3.633  1.0366  0.1368  0.1170
30412SOL    HW198097   4.948   0.697   3.695  0.7253 -0.4171  0.1015
30412SOL    HW298098   4.928   0.814   3.602  1.9682 -0.4856 -0.2689
30413SOL     OW98099   8.067  11.782   4.337  0.6077 -0.1925 -1.2472
30413SOL    HW198100   8.111  11.747   4.415 -0.4111  1.8474  0.3054
30413SOL    HW298101   7.975  11.761   4.349  0.3344  0.7980 -1.5397
30414SOL     OW98102   3.065   0.403  10.948 -0.3275  0.1235 -0.1540
30414SOL    HW198103   3.054   0.317  10.990 -1.9550 -0.1244 -0.9962
30414SOL    HW298104   3.146   0.395  10.899  0.1757 -0.5059  0.7415
30415SOL     OW98105   6.475   3.519   8.475 -0.6789  0.0436 -0.1133
30415SOL    HW198106   6.552   3.484   8.520  0.1053 -0.4661 -1.7607
30415SOL    HW298107   6.409   3.451   8.485 -0.6355  0.0946  0.5613
30416SOL     OW98108   9.945  11.115   0.962 -0.3726  0.6036  0.1591
30416SOL    HW198109   9.970  11.178   0.894  1.6009 -0.7543 -0.4327
30416SOL    HW298110  10.022  11.060   0.974 -1.6653 -1.0278  1.4451
30417SOL     OW98111   8.862  10.874   5.861  0.4923  1.0229 -0.0897
30417SOL    HW198112   8.927  10.942   5.846 -3.0545  4.4722 -1.4204
30417SOL    HW298113   8.819  10.899   5.943 -1.0208  0.4923 -0.6923
30418SOL     OW98114   5.060   2.990   3.078  0.1552  1.1178 -0.2900
30418SOL    HW198115   5.151   2.981   3.051  0.3246 -2.1774  0.9748
30418SOL    HW298116   5.057   2.953   3.166 -2.8937 -1.9143 -1.4567
30419SOL     OW98117   8.112  11.962   0.570  0.1846  0.1283 -0.1514
30419SOL    HW198118   8.051  11.916   0.512  0.2280 -0.0952 -0.0225
30419SOL    HW298119   8.086  11.936   0.658  0.9903 -0.6532 -0.1211
30420SOL     OW98120   5.760   0.705   5.107 -0.3630 -0.5284  0.1520
30420SOL    HW198121   5.704   0.780   5.127  0.6716  0.7870 -1.6100
30420SOL    HW298122   5.784   0.670   5.193 -2.8548 -0.4260  0.9825
30421SOL     OW98123   3.589   3.452   0.673 -0.3277 -0.0740  0.0819
30421SOL    HW198124   3.596   3.477   0.765  0.3010  0.1518 -0.0232
30421SOL    HW298125   3.587   3.356   0.674 -0.8753 -0.0661  0.3583
30422SOL     OW98126   7.370   6.916  12.221 -0.0179 -0.2354 -0.5005
30422SOL    HW198127   7.458   6.916  12.184 -0.1556 -2.2231 -0.9631
30422SOL    HW298128   7.315   6.879  12.151 -0.8384 -1.0543  0.5472
30423SOL     OW98129   0.454  11.238   9.019  0.2964 -0.6346 -0.0179
30423SOL    HW198130   0.518  11.240   8.948 -2.5645  2.1595 -2.8532
30423SOL    HW298131   0.467  11.321   9.066 -0.8194 -0.2743 -0.3039
30424SOL     OW98132   3.415   1.529   8.312  0.5961 -0.0611  0.3019
30424SOL    HW198133   3.494   1.521   8.259  1.2297  1.4618  0.9681
30424SOL    HW298134   3.446   1.560   8.397 -0.6287 -0.3321  0.8734
30425SOL     OW98135   6.225   7.693   9.524 -0.0165 -0.2534 -0.6660
30425SOL    HW198136   6.235   7.666   9.433  0.3658 -1.6194 -0.2475
30425SOL    HW298137   6.270   7.624   9.574 -0.0797  0.5553  0.5387
30426SOL     OW98138   4.289   0.191   1.381  0.1149 -0.8220 -0.5393
30426SOL    HW198139   4.309   0.277   1.416  0.0104 -1.0290  0.0345
30426SOL    HW298140   4.337   0.130   1.437  0.1470 -1.1446 -0.9066
30427SOL     OW98141   6.958   0.155   9.647 -0.5341 -0.2885  0.3312
30427SOL    HW198142   6.882   0.172   9.703  0.9016  1.7387  1.8124
30427SOL    HW298143   7.026   0.214   9.680  0.5003  0.9341 -3.4378
30428SOL     OW98144   1.203  10.526   1.597 -0.1816  0.1163 -0.1624
30428SOL    HW198145   1.128  10.528   1.537  0.3916  0.0715 -0.9042
30428SOL    HW298146   1.175  10.577   1.673 -0.5328  1.1396 -0.9509
30429SOL     OW98147   0.599   4.520  10.832 -0.6295 -0.2219 -0.0701
30429SOL    HW198148   0.589   4.556  10.920 -0.2927 -1.5971  0.5630
30429SOL    HW298149   0.513   4.484  10.811 -0.3118 -1.2437  0.3389
30430SOL     OW98150   5.549   6.537   1.349  0.1079 -0.1148 -0.2778
30430SOL    HW198151   5.640   6.508   1.344  0.1242 -0.0804 -0.1904
30430SOL    HW298152   5.497   6.459   1.329  0.1325 -0.4307  0.8227
30431SOL     OW98153   4.342   6.643   2.432 -0.3746 -0.0011 -0.2730
30431SOL    HW198154   4.279   6.713   2.452  1.2484  1.7127 -0.7953
30431SOL    HW298155   4.314   6.610   2.346 -1.5346 -0.4864  0.2645
30432SOL     OW98156   7.800   0.887   7.735  0.3730  0.2763  0.1244
30432SOL    HW198157   7.759   0.801   7.727  0.9670 -0.0431  0.4640
30432SOL    HW298158   7.746   0.934   7.797  1.1757 -0.5585  1.5033
30433SOL     OW98159   4.915   3.321   4.201 -0.2498 -0.2924 -0.7608
30433SOL    HW198160   4.999   3.357   4.229 -1.0051  0.6111  0.4383
30433SOL    HW298161   4.900   3.361   4.115  0.2489  0.0332 -0.7038
30434SOL     OW98162  11.018   2.595   3.407  0.2210 -0.2296 -0.3750
30434SOL    HW198163  11.007   2.503   3.432  0.1895 -0.3962 -0.9971
30434SOL    HW298164  11.016   2.642   3.490  0.0350 -0.7697 -0.0660
30435SOL     OW98165   7.747  11.553   9.501  0.3128 -0.5575  0.3559
30435SOL    HW198166   7.755  11.475   9.556 -1.1202 -0.9312  0.0785
30435SOL    HW298167   7.827  11.603   9.518  0.3515 -1.1324  2.0258
30436SOL     OW98168   3.789   9.081   9.420 -0.1473  0.0233  0.5221
30436SOL    HW198169   3.741   9.163   9.416  0.8618  0.6187  0.3740
30436SOL    HW298170   3.768   9.045   9.507 -1.7772 -0.3283  0.0245
30437SOL     OW98171   1.063   6.323  10.190 -0.3917  0.8910 -0.0039
30437SOL    HW198172   0.979   6.364  10.169 -0.8746  0.5805  1.2219
30437SOL    HW298173   1.045   6.229  10.186 -0.1959  0.8248  0.5739
30438SOL     OW98174   5.030   3.290   1.954 -0.2341 -0.7497 -0.0798
30438SOL    HW198175   4.973   3.327   1.887  0.3563  1.0848  0.3963
30438SOL    HW298176   4.996   3.201   1.967 -0.7533 -0.9248 -2.3279
30439SOL     OW98177   8.547   6.287   7.023  0.2019  0.0871  0.0227
30439SOL    HW198178   8.640   6.294   7.003 -0.0265  1.1475 -0.8202
30439SOL    HW298179   8.522   6.375   7.051 -0.6878 -0.0027 -0.4514
30440SOL     OW98180   8.745   1.109   0.530 -0.1703 -0.2516 -0.2725
30440SOL    HW198181   8.721   1.193   0.491  1.9747 -0.3936 -2.0712
30440SOL    HW298182   8.822   1.129   0.583  0.3286 -1.0851 -0.6850
30441SOL     OW98183   0.544   9.180   2.532  0.4774 -0.2615  0.0396
30441SOL    HW198184   0.456   9.188   2.570  0.6887 -0.6965  0.6149
30441SOL    HW298185   0.528   9.168   2.438 -0.0453  0.6932 -0.0084
30442SOL     OW98186  10.427   6.133   7.675 -0.2797  0.2849 -0.4451
30442SOL    HW198187  10.347   6.104   7.719  0.4718 -1.3952 -0.1149
30442SOL    HW298188  10.478   6.175   7.744  0.5417 -1.6232  0.1785
30443SOL     OW98189   7.323   6.139   6.073 -0.2477 -0.7167  0.5341
30443SOL    HW198190   7.260   6.204   6.105 -0.3709 -0.9215  0.7110
30443SOL    HW298191   7.282   6.104   5.994 -1.1355 -2.0255  1.5395
30444SOL     OW98192   8.142   2.058   1.731 -0.3323  0.0483 -0.1725
30444SOL    HW198193   8.218   2.100   1.690  0.5368 -0.7563  0.5541
30444SOL    HW298194   8.179   1.984   1.779 -1.6595 -0.7409 -0.3173
30445SOL     OW98195  12.133   4.729   6.887  0.1766 -0.8101 -0.7216
30445SOL    HW198196  12.229   4.723   6.889  0.4125  1.4767 -2.1936
30445SOL    HW298197  12.108   4.739   6.978  1.4791  0.0802 -0.4402
30446SOL     OW98198  10.411   8.780   1.470 -0.3060  0.3581 -0.5816
30446SOL    HW198199  10.398   8.708   1.532 -1.8464  0.8345 -0.2805
30446SOL    HW298200  10.375   8.857   1.516  1.3380  1.3409 -0.8691
30447SOL     OW98201   8.516   8.796   6.070  0.2948  0.1238  0.2777
30447SOL    HW198202   8.460   8.871   6.050 -1.2896 -1.1007 -0.1206
30447SOL    HW298203   8.576   8.790   5.996 -0.2069  0.4433 -0.1623
30448SOL     OW98204   4.957  11.660   5.466 -0.3106 -0.3751 -0.0976
30448SOL    HW198205   5.045  11.626   5.453 -0.2022 -0.0203 -0.2944
30448SOL    HW298206   4.924  11.612   5.542  0.2032 -0.2101  0.2338
30449SOL     OW98207   0.658   2.456   5.376  0.4309  0.2635 -0.1423
30449SOL    HW198208   0.724   2.405   5.327  1.9386  1.2118  0.8060
30449SOL    HW298209   0.649   2.537   5.327  0.4979  0.4270  0.1162
30450SOL     OW98210   8.620   9.639   9.874 -0.1677 -0.2178  0.3368
30450SOL    HW198211   8.638   9.612   9.784 -0.9441 -0.0317  0.1149
30450SOL    HW298212   8.580   9.725   9.866 -0.6767 -0.3969  0.8260
30451SOL     OW98213   3.236   8.642   3.197  0.7082 -0.1407  0.2341
30451SOL    HW198214   3.222   8.696   3.119  1.4128  0.2923  0.3968
30451SOL    HW298215   3.147   8.623   3.229  0.3754  2.6054  1.3033
30452SOL     OW98216   4.086   7.929   2.060  0.3327 -0.1768 -0.3482
30452SOL    HW198217   4.145   7.873   2.010 -0.4751 -0.9350 -0.4616
30452SOL    HW298218   4.053   7.873   2.130  1.3532  0.8320  0.9894
30453SOL     OW98219   8.330   4.666  11.695  0.1498  0.4720  0.5734
30453SOL    HW198220   8.407   4.678  11.751  0.5032 -0.7246  0.3754
30453SOL    HW298221   8.302   4.755  11.673  0.2156  0.9717  2.3465
30454SOL     OW98222  11.807   6.205   1.609 -0.2109  0.1372 -0.1030
30454SOL    HW198223  11.770   6.222   1.522  0.1693 -0.8120 -0.4646
30454SOL    HW298224  11.888   6.256   1.612 -0.6538  0.8494  0.0321
30455SOL     OW98225   0.388   9.006   4.939 -0.2959 -0.3197 -0.0310
30455SOL    HW198226   0.383   9.036   4.848  0.9594 -1.5681 -0.5409
30455SOL    HW298227   0.425   9.081   4.986  0.6863 -0.2491 -0.8728
30456SOL     OW98228   9.323   7.766  12.402  0.3781  0.1212  0.0464
30456SOL    HW198229   9.399   7.817  12.432  1.6848 -2.2826  1.1252
30456SOL    HW298230   9.278   7.824  12.341  3.8974  1.1823 -1.8422
30457SOL     OW98231   5.267   6.796   9.871  0.0107  0.2533 -0.6909
30457SOL    HW198232   5.237   6.720   9.921 -0.1677  1.2943  0.8583
30457SOL    HW298233   5.360   6.778   9.853 -0.2281 -0.6766 -1.0580
30458SOL     OW98234   1.156   0.446   0.841 -0.2906 -0.1739  0.5038
30458SOL    HW198235   1.218   0.427   0.771  0.1437 -0.7678  1.0481
30458SOL    HW298236   1.209   0.485   0.910 -0.4865 -0.9176  1.0737
30459SOL     OW98237  10.342  10.872  11.970 -0.1727  0.1887 -0.1913
30459SOL    HW198238  10.255  10.911  11.965 -0.3747  0.5050  3.4645
30459SOL    HW298239  10.342  10.822  12.052  3.1292  0.3259  0.0488
30460SOL     OW98240   1.833   3.038   3.135  0.0995  0.3073 -0.1381
30460SOL    HW198241   1.764   2.974   3.152 -1.8126  2.2185 -0.1995
30460SOL    HW298242   1.795   3.096   3.068  1.2365  2.1684  0.7604
30461SOL     OW98243   0.442   7.040  12.382 -0.2075  0.0671 -0.1378
30461SOL    HW198244   0.398   7.032  12.467 -0.8624  1.7676 -0.2888
30461SOL    HW298245   0.420   6.958  12.337 -2.8703  0.6056 -0.0045
30462SOL     OW98246   1.452   8.193   7.825  0.4725  0.0880 -0.0435
30462SOL    HW198247   1.541   8.179   7.859  0.8380  0.1826 -0.9254
30462SOL    HW298248   1.395   8.162   7.895  1.2101 -1.3830 -0.0330
30463SOL     OW98249   6.925   0.581   9.662  0.0641  0.3556  0.6551
30463SOL    HW198250   6.926   0.677   9.663 -0.5546  0.3812 -0.3296
30463SOL    HW298251   6.832   0.558   9.666 -0.0648 -0.1208 -2.7240
30464SOL     OW98252   9.558  11.181   2.272  0.0470 -0.5010 -0.5532
30464SOL    HW198253   9.615  11.242   2.225  0.1899 -0.0483  0.1972
30464SOL    HW298254   9.505  11.237   2.329  1.1284 -1.1694  1.1690
30465SOL     OW98255   8.864   6.205   7.932 -0.6355 -0.7890 -0.3118
30465SOL    HW198256   8.808   6.129   7.919  0.7093 -1.6008 -1.6720
30465SOL    HW298257   8.945   6.169   7.969 -1.2797  0.4797  2.5916
30466SOL     OW98258   3.818   1.819  11.708  0.0584 -0.0068 -0.1222
30466SOL    HW198259   3.860   1.829  11.793 -0.2149  1.7600 -0.1513
30466SOL    HW298260   3.891   1.818  11.645  0.3072 -2.0927  0.1452
30467SOL     OW98261  10.919   4.395   7.136  0.6753  0.0444 -0.4928
30467SOL    HW198262  10.888   4.332   7.071 -0.3314  2.1105 -2.1425
30467SOL    HW298263  10.978   4.453   7.088 -1.2262  2.5232 -0.0434
30468SOL     OW98264   2.444   7.380   4.276  0.2150 -0.6085  0.0045
30468SOL    HW198265   2.434   7.455   4.334 -0.8749  0.0604 -1.0135
30468SOL    HW298266   2.485   7.416   4.197  4.0276 -1.9247  1.1488
30469SOL     OW98267  10.755   8.878   0.665 -0.4390  0.1059  0.8289
30469SOL    HW198268  10.834   8.923   0.695  0.2970  0.1316 -1.0257
30469SOL    HW298269  10.774   8.785   0.679 -0.3740  0.1509  1.0479
30470SOL     OW98270  10.370  11.255  11.522  0.5403 -0.0586  0.0815
30470SOL    HW198271  10.350  11.184  11.583 -0.7483 -0.2689 -0.5538
30470SOL    HW298272  10.375  11.333  11.576 -1.3294 -0.1205  0.4128
30471SOL     OW98273   9.096   3.485   5.252 -0.2557  0.1318  0.1287
30471SOL    HW198274   9.097   3.435   5.170 -0.7177  0.2594  0.0425
30471SOL    HW298275   9.179   3.464   5.293  0.1454  0.3576 -0.5482
30472SOL     OW98276   3.042  12.324   8.288  0.1024 -0.1679  0.2393
30472SOL    HW198277   3.077  12.391   8.230  1.4447 -0.4048  0.7367
30472SOL    HW298278   3.076  12.347   8.375  0.5700 -1.4565  0.4260
30473SOL     OW98279   8.568   9.239  12.041  0.1615  0.3346 -0.0371
30473SOL    HW198280   8.503   9.175  12.012 -0.6817  1.7690 -1.4480
30473SOL    HW298281   8.564   9.235  12.137 -2.6224  0.9100 -0.0376
30474SOL     OW98282   8.458  10.735   5.960  0.1654  0.1981  0.6799
30474SOL    HW198283   8.414  10.699   5.883  1.4410 -0.9957  0.4881
30474SOL    HW298284   8.466  10.829   5.941 -1.4444  0.2954  0.3303
30475SOL     OW98285   5.774   6.868   5.131 -0.2809  0.2410 -0.1898
30475SOL    HW198286   5.764   6.824   5.047 -2.6636 -1.1676  0.7525
30475SOL    HW298287   5.685   6.881   5.162  0.3686  4.0330  0.5386
30476SOL     OW98288   8.225   3.782   9.071  0.4784 -0.2887 -0.1808
30476SOL    HW198289   8.274   3.745   8.997  1.2762 -1.0899  0.7299
30476SOL    HW298290   8.202   3.706   9.125  0.6188  0.3726  0.8309
30477SOL     OW98291   6.915   7.774   4.600 -0.2815 -0.0368 -0.2732
30477SOL    HW198292   6.944   7.708   4.537 -0.1923  0.9684 -1.3200
30477SOL    HW298293   6.820   7.763   4.605 -0.3718  0.2875 -1.0857
30478SOL     OW98294  11.069  10.162   6.367  0.0655 -0.5036  0.1090
30478SOL    HW198295  11.089  10.255   6.376  0.5170 -0.6717  0.9931
30478SOL    HW298296  11.129  10.131   6.299  0.0769 -0.1944 -0.0221
30479SOL     OW98297  11.678   6.788  11.436  0.3284  0.0027  0.2510
30479SOL    HW198298  11.665   6.725  11.507  0.5130 -1.3650 -0.8981
30479SOL    HW298299  11.630   6.866  11.465  0.4410 -0.4922  1.8913
30480SOL     OW98300   8.980  11.042   1.201  0.2399  0.9577  0.5178
30480SOL    HW198301   8.894  11.037   1.242  0.2264  2.0320  0.6309
30480SOL    HW298302   9.032  10.977   1.248 -1.0688 -1.4154 -1.0514
30481SOL     OW98303   2.611   1.695   2.112  0.4905  0.4618 -0.1044
30481SOL    HW198304   2.597   1.601   2.115  1.7669  0.1427 -1.8401
30481SOL    HW298305   2.607   1.724   2.203 -2.2422 -0.8567  0.2669
30482SOL     OW98306   8.929   5.496   2.871 -0.1622  0.0398  0.6152
30482SOL    HW198307   8.898   5.450   2.793 -0.2913 -0.5745  1.0173
30482SOL    HW298308   9.023   5.480   2.873 -0.1495  0.1079  0.5529
30483SOL     OW98309   9.743   7.296   1.061 -0.3164  0.2762 -0.0683
30483SOL    HW198310   9.817   7.347   1.028 -0.0435 -0.1794 -0.1643
30483SOL    HW298311   9.746   7.214   1.011 -0.5670  0.0387  0.3041
30484SOL     OW98312   8.323   9.475   9.664 -0.9313 -0.4559  0.3069
30484SOL    HW198313   8.364   9.561   9.671 -0.6623 -0.4514 -1.0710
30484SOL    HW298314   8.238   9.491   9.625 -0.7416 -0.8505 -0.2759
30485SOL     OW98315   5.085  11.737   9.832 -0.2941  0.1652  0.0134
30485SOL    HW198316   5.003  11.785   9.843 -0.2506  0.0624  0.8477
30485SOL    HW298317   5.147  11.803   9.800 -0.6737  0.2639 -0.5198
30486SOL     OW98318   1.464   8.132   8.621  0.8343 -0.3706 -0.4929
30486SOL    HW198319   1.383   8.107   8.577  1.4657 -1.5196 -1.0688
30486SOL    HW298320   1.515   8.178   8.554  0.3102  1.1540  0.1250
30487SOL     OW98321   7.424   0.677  11.684 -0.1134  0.0895 -0.1711
30487SOL    HW198322   7.487   0.656  11.615 -0.7569 -0.2739 -0.6575
30487SOL    HW298323   7.347   0.624  11.663 -1.9316  2.9838 -1.6071
30488SOL     OW98324   8.916   0.861   3.491  0.5133 -0.0145 -0.4296
30488SOL    HW198325   8.925   0.802   3.416  0.7236 -0.9411  0.3063
30488SOL    HW298326   8.929   0.949   3.455 -0.3464 -0.3695 -1.6424
30489SOL     OW98327   9.273   4.169  11.436  0.0638 -0.1696  0.4575
30489SOL    HW198328   9.181   4.194  11.422 -0.3306 -1.0201  1.4075
30489SOL    HW298329   9.297   4.121  11.356  0.8080  2.9235 -1.3717
30490SOL     OW98330   1.511   3.399  11.116 -0.1041 -0.4053  0.5899
30490SOL    HW198331   1.516   3.304  11.100  0.0894 -0.1182 -1.2370
30490SOL    HW298332   1.602   3.428  11.118 -0.1312 -0.3642  2.0158
30491SOL     OW98333   8.381  12.202   6.970 -0.2157 -0.1622 -0.0915
30491SOL    HW198334   8.385  12.279   7.026 -0.8924  0.0809 -0.3678
30491SOL    HW298335   8.313  12.147   7.009  1.7397 -1.6895  1.4015
30492SOL     OW98336   9.269   3.367  10.024 -0.2713 -0.2348 -0.2043
30492SOL    HW198337   9.176   3.357  10.044 -0.0228 -0.5741  0.8266
30492SOL    HW298338   9.310   3.288  10.058  0.2490 -0.6679 -1.7398
30493SOL     OW98339   7.101  10.504   1.513  0.5815  0.2843 -0.4806
30493SOL    HW198340   7.081  10.440   1.444  0.0766  0.3746 -0.4238
30493SOL    HW298341   7.105  10.452   1.593  2.6910 -0.0637 -0.7637
30494SOL     OW98342  10.956   4.131   4.780  0.0051  0.5349  0.7221
30494SOL    HW198343  10.992   4.044   4.760  0.6031  0.9245  0.0586
30494SOL    HW298344  10.899   4.116   4.856  2.1475  0.0062  2.3303
30495SOL     OW98345   7.806   1.744  10.229  0.4046  0.0595 -0.0360
30495SOL    HW198346   7.792   1.749  10.324 -2.5216 -1.0882 -0.3096
30495SOL    HW298347   7.880   1.685  10.219  0.8172  0.2660  1.5222
30496SOL     OW98348   9.743   0.643   2.056 -0.7139 -0.2882 -0.3106
30496SOL    HW198349   9.752   0.738   2.060 -0.8446 -0.3107  1.0907
30496SOL    HW298350   9.649   0.628   2.047 -0.9079 -0.2788  1.3164
30497SOL     OW98351   6.717   2.040  11.521  0.0460  0.2050 -0.1598
30497SOL    HW198352   6.719   1.961  11.575 -1.6801  0.8863  0.9747
30497SOL    HW298353   6.717   2.008  11.431 -1.6687 -1.1571  0.2812
30498SOL     OW98354   9.971  12.267   6.202  0.6572  0.0767  0.0358
30498SOL    HW198355   9.906  12.336   6.216  0.5421 -0.2478  1.2127
30498SOL    HW298356   9.975  12.256   6.107  0.3272  1.3602 -0.1379
30499SOL     OW98357   9.697   0.540   5.318  0.0070  0.1733 -0.1443
30499SOL    HW198358   9.719   0.630   5.344 -1.9962  0.1233  1.9748
30499SOL    HW298359   9.621   0.550   5.261  0.0059 -0.1829 -0.2036
30500SOL     OW98360   8.504  11.875  12.169  0.1432 -0.3385 -0.6170
30500SOL    HW198361   8.441  11.812  12.134  0.6265 -0.5165 -1.1906
30500SOL    HW298362   8.455  11.924  12.235 -0.1948 -1.4309 -0.0298
30501SOL     OW98363   9.379   2.250   3.780 -0.1635  0.2238  0.5131
30501SOL    HW198364   9.408   2.183   3.718 -2.5703  0.6076 -1.1763
30501SOL    HW298365   9.355   2.200   3.859 -0.1432 -0.6823 -0.0386
30502SOL     OW98366   2.433   8.233   5.619 -0.1547  0.1956  0.2519
30502SOL    HW198367   2.395   8.193   5.541  0.0125  0.5129  0.0063
30502SOL    HW298368   2.371   8.212   5.689 -0.6250  0.4448 -0.0863
30503SOL     OW98369  10.838   2.835   6.508  0.0694 -0.1645 -0.0169
30503SOL    HW198370  10.906   2.895   6.476 -2.0042  0.8798 -2.8836
30503SOL    HW298371  10.758   2.888   6.510 -1.3182 -2.1369 -0.0081
30504SOL     OW98372  11.024   6.501   3.083 -0.6206 -0.0967 -0.3353
30504SOL    HW198373  11.005   6.414   3.047  1.4109 -0.1495 -1.4237
30504SOL    HW298374  11.007   6.492   3.177 -2.5600 -1.0074 -0.7199
30505SOL     OW98375   2.863   3.953  11.430  0.1187 -0.0424 -0.1713
30505SOL    HW198376   2.783   3.920  11.388 -0.5498 -1.2450  1.8902
30505SOL    HW298377   2.890   3.883  11.489 -0.5549  2.3953  3.4044
30506SOL     OW98378   0.182   4.194   2.480 -0.0758 -0.2455  0.2408
30506SOL    HW198379   0.230   4.220   2.401 -0.4570  0.0993  0.1206
30506SOL    HW298380   0.215   4.253   2.548  0.0927 -0.3981  0.2946
30507SOL     OW98381  10.264   9.340   4.452 -0.0797 -0.0762 -0.5743
30507SOL    HW198382  10.345   9.297   4.427 -1.0157 -0.9679 -2.2479
30507SOL    HW298383  10.236   9.295   4.532  1.3468  0.6653  0.3875
30508SOL     OW98384   7.864  10.984   2.547  0.0497 -0.2060 -0.1299
30508SOL    HW198385   7.851  11.079   2.554  1.8897 -0.0198  1.5098
30508SOL    HW298386   7.849  10.965   2.455  1.9377  2.1083 -1.0250
30509SOL     OW98387   8.659   5.603   1.110 -0.5145  0.8702  0.5253
30509SOL    HW198388   8.686   5.512   1.108 -1.0649  0.7130 -0.0466
30509SOL    HW298389   8.632   5.618   1.201 -0.5866  0.4199  0.5799
30510SOL     OW98390   1.433   5.126  11.615  0.0160  0.2743  0.5978
30510SOL    HW198391   1.429   5.198  11.551 -1.1848  1.8463  2.3490
30510SOL    HW298392   1.377   5.058  11.578 -1.2317  1.4324  0.2927
30511SOL     OW98393   2.746   6.270   1.546  0.4885 -0.0896 -0.7743
30511SOL    HW198394   2.710   6.300   1.629 -0.2884 -0.7337 -0.8737
30511SOL    HW298395   2.722   6.338   1.483 -0.4001 -0.4070 -0.7971
30512SOL     OW98396   3.648   1.512   0.431  0.1024  0.2534  0.1800
30512SOL    HW198397   3.668   1.478   0.518  2.0930  2.2651  0.5977
30512SOL    HW298398   3.608   1.438   0.385 -0.6245 -0.9910  2.6235
30513SOL     OW98399   7.201   8.555   2.439 -0.6371 -0.1989 -0.2719
30513SOL    HW198400   7.293   8.578   2.423 -0.7788  0.8404  0.3363
30513SOL    HW298401   7.165   8.539   2.352  0.3538 -1.6143 -0.4679
30514SOL     OW98402   6.849   9.378   4.277  0.0498  0.2027 -0.2220
30514SOL    HW198403   6.781   9.312   4.292  0.9714 -1.0713 -1.3924
30514SOL    HW298404   6.908   9.368   4.352  1.4306 -1.9958 -1.4835
30515SOL     OW98405   2.538  10.099   3.819  0.3120  0.0764  0.4374
30515SOL    HW198406   2.521  10.117   3.911 -1.6349 -0.5504  0.2535
30515SOL    HW298407   2.457  10.123   3.774 -0.0295 -2.6806 -0.6618
30516SOL     OW98408  11.560   3.789  10.362 -0.2401 -0.5084 -0.8662
30516SOL    HW198409  11.481   3.839  10.344 -1.2037 -0.8123  1.9789
30516SOL    HW298410  11.536   3.698  10.342 -0.2617 -0.4774 -0.9815
30517SOL     OW98411   6.235   3.685   8.320 -0.2646  0.0687 -0.1101
30517SOL    HW198412   6.284   3.641   8.389 -1.4741  1.7958  1.9903
30517SOL    HW298413   6.292   3.681   8.243  2.8478  1.2425  1.9506
30518SOL     OW98414   6.084   4.331  12.377 -0.3414  0.0318 -0.1385
30518SOL    HW198415   6.041   4.338  12.461 -0.2842 -0.1935 -0.0887
30518SOL    HW298416   6.175   4.356  12.394 -0.6978  1.6783 -0.4761
30519SOL     OW98417   6.607  11.323   5.615  0.3222  0.5758 -0.0030
30519SOL    HW198418   6.703  11.314   5.614  0.2322 -2.0579  2.3663
30519SOL    HW298419   6.586  11.340   5.706 -1.4596  2.4410 -0.7026
30520SOL     OW98420   7.170   2.596   6.931 -0.0672  0.0544 -0.0696
30520SOL    HW198421   7.199   2.657   6.998  0.1824  2.0112 -1.8732
30520SOL    HW298422   7.074   2.600   6.935 -0.0971  2.2932 -1.5781
30521SOL     OW98423   9.128   5.235   3.890  0.6070  0.0298  0.0820
30521SOL    HW198424   9.057   5.284   3.931  1.4581  1.0377  0.4045
30521SOL    HW298425   9.154   5.171   3.956 -0.3683 -0.7406 -0.2582
30522SOL     OW98426   7.617   3.152  12.436 -0.7538 -0.2753  0.3450
30522SOL    HW198427   7.544   3.091  12.428 -0.4778 -0.7499  1.2368
30522SOL    HW298428   7.586   3.217  12.499 -2.6465  2.9868 -3.5297
30523SOL     OW98429   0.150  10.521   8.842  0.2086  0.1185  0.0954
30523SOL    HW198430   0.060  10.489   8.846  0.6391 -1.7282 -2.5881
30523SOL    HW298431   0.143  10.605   8.796 -0.1082 -0.4953 -1.0263
30524SOL     OW98432  10.037  11.740   1.061  0.1061 -0.0685 -0.1259
30524SOL    HW198433  10.070  11.755   1.149 -0.7225  0.0217  0.1810
30524SOL    HW298434  10.073  11.655   1.035 -0.9213 -0.8470  0.9271
30525SOL     OW98435   9.950   2.194  10.838 -0.1778  0.1704  0.1571
30525SOL    HW198436   9.977   2.224  10.925 -0.0293  0.9126 -0.1347
30525SOL    HW298437  10.001   2.114  10.823  1.2111  1.0486  0.0004
30526SOL     OW98438   9.764   7.134   9.830  0.5325  0.0811  0.3365
30526SOL    HW198439   9.726   7.119   9.743 -0.4086  0.0910  0.7399
30526SOL    HW298440   9.709   7.082   9.889 -2.0158  3.8855  1.6253
30527SOL     OW98441  12.444   1.496   3.361  0.4434 -0.3662  0.1864
30527SOL    HW198442  12.399   1.426   3.313  0.0179 -0.2127  0.3507
30527SOL    HW298443  12.403   1.495   3.448 -0.2768  0.7240 -0.1093
30528SOL     OW98444   9.281   6.486   7.511 -0.1744 -0.8341  0.1210
30528SOL    HW198445   9.350   6.552   7.520  0.1486 -1.0993 -0.3536
30528SOL    HW298446   9.200   6.534   7.525  0.1366 -0.7599  2.0633
30529SOL     OW98447   5.972   6.984   7.374  0.3420  0.4477  0.2665
30529SOL    HW198448   5.979   7.077   7.396  1.1836  0.5306 -0.2901
30529SOL    HW298449   5.994   6.980   7.281  0.6219 -0.3536  0.3598
30530SOL     OW98450   9.737   2.868   8.553 -0.2749  0.3159 -0.4037
30530SOL    HW198451   9.672   2.890   8.619 -2.6085 -3.0345 -1.3287
30530SOL    HW298452   9.808   2.826   8.601  0.4030  2.2820  0.4024
30531SOL     OW98453   2.530  10.868   6.120  0.0920  0.5689 -0.5013
30531SOL    HW198454   2.612  10.825   6.148 -0.1803  0.3666 -0.0022
30531SOL    HW298455   2.491  10.900   6.201 -0.5581  0.2523 -0.6815
30532SOL     OW98456   4.343   6.146   8.335  0.4056  0.2395  0.0476
30532SOL    HW198457   4.300   6.199   8.402  1.9894  0.8365  0.6484
30532SOL    HW298458   4.304   6.174   8.252  0.1071  1.2156  0.5075
30533SOL     OW98459   6.579   8.391   0.635 -0.1741 -0.2088  0.8771
30533SOL    HW198460   6.534   8.394   0.551  0.8462  0.0772  0.3322
30533SOL    HW298461   6.508   8.393   0.700 -0.9984 -1.1417  0.0318
30534SOL     OW98462   2.234   7.633   3.235  0.4262 -0.1349  0.4336
30534SOL    HW198463   2.212   7.586   3.155 -2.4014  1.5023  0.1319
30534SOL    HW298464   2.279   7.712   3.204 -0.4199  0.3623  0.4367
30535SOL     OW98465   6.010   1.190   4.456 -0.3101  0.6832  0.3105
30535SOL    HW198466   6.072   1.214   4.525 -0.2862 -0.5018  0.7317
30535SOL    HW298467   6.060   1.196   4.375  0.0484  0.7831  0.5385
30536SOL     OW98468   3.495   6.792   9.587 -0.0516 -0.4595 -0.3271
30536SOL    HW198469   3.486   6.832   9.673  1.4879 -1.7322  0.4711
30536SOL    HW298470   3.423   6.829   9.536 -1.4996 -0.2890  1.7210
30537SOL     OW98471   4.737  12.052  11.644 -0.1935  0.1736 -0.4362
30537SOL    HW198472   4.798  12.125  11.634 -0.9430  0.7596 -0.8785
30537SOL    HW298473   4.660  12.091  11.684 -0.3108 -0.5400  0.0362
30538SOL     OW98474   2.391   3.578  11.569 -0.1460  0.4159 -0.4133
30538SOL    HW198475   2.356   3.646  11.511 -1.8794 -1.4822 -1.7348
30538SOL    HW298476   2.317   3.553  11.624  0.4775 -0.3994  0.0748
30539SOL     OW98477  10.316   7.690   7.473 -0.3197  0.0940 -0.3293
30539SOL    HW198478  10.373   7.619   7.445 -1.5812 -0.8582 -0.5810
30539SOL    HW298479  10.375   7.763   7.489  1.0129 -0.9992 -0.0579
30540SOL     OW98480   6.704   7.330   0.112  0.3548  0.2301  0.6413
30540SOL    HW198481   6.618   7.299   0.083  0.6904  0.4107 -0.5939
30540SOL    HW298482   6.685   7.382   0.190 -0.5847 -0.2376  0.7445
30541SOL     OW98483   8.849   9.050  10.127 -0.5179 -0.0228 -0.3661
30541SOL    HW198484   8.795   9.038  10.048  0.6770 -0.8535 -1.0863
30541SOL    HW298485   8.856   9.145  10.136 -1.5044  0.0937 -0.6667
30542SOL     OW98486   3.924   3.382   5.917 -0.0248  0.0254 -0.4989
30542SOL    HW198487   3.971   3.462   5.942 -1.8344  1.2806 -0.9178
30542SOL    HW298488   3.854   3.375   5.982 -1.4814  0.2770 -1.9835
30543SOL     OW98489   5.304   5.017   7.010 -0.3411 -0.1544  0.1394
30543SOL    HW198490   5.278   5.068   7.087  0.2772  0.3160  0.0424
30543SOL    HW298491   5.222   4.981   6.976 -0.7512  0.5344  0.3845
30544SOL     OW98492  10.116  10.896   9.761  0.4073 -0.3401 -0.6991
30544SOL    HW198493  10.072  10.863   9.683 -0.8919 -2.1715  0.7095
30544SOL    HW298494  10.200  10.929   9.730 -1.1074  1.5325 -3.2443
30545SOL     OW98495   0.452   5.723   1.705  0.0339  0.5833 -0.4371
30545SOL    HW198496   0.412   5.779   1.638 -0.6503 -0.6715 -1.1227
30545SOL    HW298497   0.393   5.648   1.711  1.3408 -0.4447 -0.1139
30546SOL     OW98498   5.212   8.720   7.647 -0.2505  0.6272  0.2839
30546SOL    HW198499   5.143   8.732   7.583 -1.2863  1.3020  1.4829
30546SOL    HW298500   5.285   8.683   7.598 -1.3270  0.2699 -1.0789
30547SOL     OW98501   9.740  11.675   2.967 -0.0578  0.3002 -0.0206
30547SOL    HW198502   9.785  11.694   2.884 -0.4722  0.7184 -0.1524
30547SOL    HW298503   9.794  11.607   3.008  0.2061  0.1595 -0.5872
30548SOL     OW98504  10.580   6.979   8.851 -0.2549  0.1853  0.2733
30548SOL    HW198505  10.672   6.973   8.826 -0.0356  1.5319  0.6769
30548SOL    HW298506  10.550   6.888   8.854  1.1611 -0.2968  0.5110
30549SOL     OW98507   3.682   7.554   1.858  0.2885  0.3053 -0.5030
30549SOL    HW198508   3.714   7.486   1.798 -0.5745  0.6501 -1.3862
30549SOL    HW298509   3.598   7.580   1.821 -0.1185  0.7568  0.7040
30550SOL     OW98510   8.388   9.816   5.900 -0.1595  0.9299  0.4884
30550SOL    HW198511   8.450   9.863   5.844  0.1947  0.6616  0.6550
30550SOL    HW298512   8.305   9.863   5.889 -0.0610  0.9594 -0.1580
30551SOL     OW98513   5.488   5.237   2.030 -0.1667  0.1822  0.0585
30551SOL    HW198514   5.442   5.192   1.960  0.4325 -1.0282  0.4224
30551SOL    HW298515   5.492   5.173   2.101  0.9891  0.6920  0.4687
30552SOL     OW98516   8.606   0.790   3.062 -0.0547 -0.0639  0.0648
30552SOL    HW198517   8.547   0.866   3.059 -1.1479 -0.9021 -0.1002
30552SOL    HW298518   8.639   0.782   2.973 -0.7693 -0.4063 -0.1788
30553SOL     OW98519   3.941   6.082   4.949  0.0465 -0.0401  0.0432
30553SOL    HW198520   3.866   6.117   4.999 -0.2542 -1.0782  0.3410
30553SOL    HW298521   3.979   6.159   4.907  1.1718  1.1568  2.9526
30554SOL     OW98522   3.288   8.247   8.211 -0.7419 -0.2311 -1.1020
30554SOL    HW198523   3.367   8.257   8.263 -0.8127  2.9415 -1.3796
30554SOL    HW298524   3.217   8.245   8.275 -0.5512 -1.3734 -0.9177
30555SOL     OW98525   8.136   6.777   9.484 -0.4066 -0.2651 -0.1490
30555SOL    HW198526   8.220   6.798   9.524  0.2358 -0.5798 -1.3001
30555SOL    HW298527   8.151   6.784   9.390 -2.4515  2.7994 -0.4173
30556SOL     OW98528   7.772   8.922   1.492 -0.6593  0.3814  0.0986
30556SOL    HW198529   7.775   8.873   1.575 -2.5273  0.0578  0.0182
30556SOL    HW298530   7.800   9.010   1.516 -0.2496  0.0567  0.8799
30557SOL     OW98531   4.381  12.340   2.992  0.1280  0.3246  1.1993
30557SOL    HW198532   4.291  12.371   2.999 -0.3200 -1.0581  1.8045
30557SOL    HW298533   4.378  12.250   3.024  1.3338 -0.4340 -0.6846
30558SOL     OW98534   1.039   7.406   0.736 -0.1679  0.2738  0.1145
30558SOL    HW198535   0.993   7.358   0.805  0.8802 -0.9877 -0.0206
30558SOL    HW298536   0.997   7.379   0.655 -0.2031  0.3212  0.1173
30559SOL     OW98537   3.255   3.614   7.885  0.2667  0.6470 -0.1523
30559SOL    HW198538   3.185   3.680   7.887  0.3078  0.7649 -1.6111
30559SOL    HW298539   3.294   3.619   7.972 -0.5850  1.6195  0.2029
30560SOL     OW98540   8.489   6.650   4.057  0.1620 -0.2647  0.0733
30560SOL    HW198541   8.418   6.698   4.098  0.1066 -0.3135  0.0347
30560SOL    HW298542   8.527   6.598   4.128  0.1824 -0.2110  0.1016
30561SOL     OW98543  12.055   2.137  10.910  0.6355  0.2624 -0.1779
30561SOL    HW198544  12.067   2.182  10.994 -0.8252  1.1512 -0.4114
30561SOL    HW298545  11.982   2.183  10.868  0.4563 -1.0222 -1.3527
30562SOL     OW98546  12.058  10.622   0.394 -0.6242  0.6374 -0.7449
30562SOL    HW198547  12.112  10.665   0.461  0.2438 -1.4891  0.0199
30562SOL    HW298548  11.985  10.585   0.444  0.2544 -1.3373 -0.8118
30563SOL     OW98549   4.751  11.241   9.797 -0.1628  0.3419  1.0118
30563SOL    HW198550   4.827  11.184   9.806  1.4959  2.1460 -0.6145
30563SOL    HW298551   4.712  11.217   9.713 -0.2519  0.7189  0.9437
30564SOL     OW98552  12.039   8.217   3.483  0.2837 -0.4599  0.2078
30564SOL    HW198553  12.052   8.282   3.413 -0.5755 -1.7426 -1.2116
30564SOL    HW298554  12.111   8.233   3.544  0.3442  1.5360 -0.2970
30565SOL     OW98555   5.929   0.582  10.048 -0.2258 -0.2384 -0.4466
30565SOL    HW198556   5.914   0.673  10.021  0.1830  0.1402  0.5485
30565SOL    HW298557   5.932   0.586  10.144 -2.5559 -1.6612 -0.2285
30566SOL     OW98558   2.625   4.867   5.199  0.0094  0.0278 -0.0439
30566SOL    HW198559   2.603   4.947   5.151  0.0567  0.5394  0.7807
30566SOL    HW298560   2.635   4.801   5.131  1.3080  1.0164 -0.8492
30567SOL     OW98561   2.808   8.256   7.644  0.2633  0.2627 -0.0504
30567SOL    HW198562   2.732   8.295   7.599  0.6859  1.1968  0.0192
30567SOL    HW298563   2.878   8.320   7.632  0.1336  1.0719  2.8142
30568SOL     OW98564   6.296   6.814   6.501 -0.1337  0.0906 -0.6077
30568SOL    HW198565   6.229   6.809   6.568  1.1099  2.7333  0.9948
30568SOL    HW298566   6.251   6.847   6.423 -0.7094  2.1279  0.5300
30569SOL     OW98567   4.729   9.621   0.982  0.0135  0.3080 -0.4814
30569SOL    HW198568   4.720   9.680   0.906  0.8539  0.7596 -0.2427
30569SOL    HW298569   4.811   9.648   1.023 -0.3090 -0.1075  0.4471
30570SOL     OW98570   6.396  12.023  10.101  0.0118 -0.5466  0.3717
30570SOL    HW198571   6.383  12.085  10.173 -0.4654 -3.1411  2.7038
30570SOL    HW298572   6.462  12.064  10.045 -1.1432  2.5317  1.1022
30571SOL     OW98573  12.201   3.043  10.830 -0.3792  0.3152  0.2272
30571SOL    HW198574  12.275   3.066  10.886 -0.5330 -0.2893  0.6827
30571SOL    HW298575  12.133   3.014  10.890 -0.1239 -1.5444 -0.3048
30572SOL     OW98576   1.775   0.608   1.593  0.4275 -0.2666 -0.4102
30572SOL    HW198577   1.716   0.535   1.571  0.2440 -0.6102  1.1330
30572SOL    HW298578   1.725   0.662   1.653  1.2119  0.1634 -0.1386
30573SOL     OW98579   7.612   7.688   3.935 -0.4432  0.4137  0.3254
30573SOL    HW198580   7.562   7.614   3.971 -0.8432  0.2679 -0.4918
30573SOL    HW298581   7.584   7.692   3.843  2.3102 -0.7586 -0.6781
30574SOL     OW98582  11.765   7.165   8.659 -0.4573  0.4526  0.4362
30574SOL    HW198583  11.750   7.155   8.753  2.5924 -0.6862  0.9203
30574SOL    HW298584  11.804   7.251   8.650  2.3424 -0.6749  0.7986
30575SOL     OW98585   7.550   4.812   0.088  0.6572 -0.2319 -0.5369
30575SOL    HW198586   7.502   4.825   0.169  1.4158 -0.1944 -0.0838
30575SOL    HW298587   7.484   4.821   0.019 -0.1253 -0.9183  0.0985
30576SOL     OW98588   1.364   5.054   9.632  0.6099  0.8643  0.1418
30576SOL    HW198589   1.322   5.009   9.706  1.3584 -1.2724 -0.6420
30576SOL    HW298590   1.356   5.147   9.652  0.7347  0.3573  2.8687
30577SOL     OW98591  11.795   8.548  11.241 -0.3475  0.1681  0.0620
30577SOL    HW198592  11.741   8.477  11.206 -2.5403 -0.0320  3.3437
30577SOL    HW298593  11.882   8.510  11.250 -1.3056 -1.9594  1.1038
30578SOL     OW98594   0.631   4.268   5.351 -0.0773 -0.3866  0.4925
30578SOL    HW198595   0.644   4.343   5.409  1.9333  0.3223 -0.7375
30578SOL    HW298596   0.704   4.209   5.371 -0.0405 -0.6868 -0.4393
30579SOL     OW98597   3.133   2.621   2.445 -0.5187 -0.2931 -0.5402
30579SOL    HW198598   3.079   2.687   2.487 -1.3286 -0.9245 -0.5538
30579SOL    HW298599   3.074   2.578   2.383 -0.2930 -1.6775  0.1578
30580SOL     OW98600   4.130   1.121  11.224 -0.1810 -0.6059 -0.4032
30580SOL    HW198601   4.222   1.148  11.226  0.5008 -2.7160 -0.6494
30580SOL    HW298602   4.091   1.177  11.156  0.8925  0.3514 -0.2748
30581SOL     OW98603  10.500   3.887  10.039  0.1391 -0.0226 -0.7881
30581SOL    HW198604  10.421   3.850  10.077 -0.1481  1.6160  0.3419
30581SOL    HW298605  10.572   3.841  10.083 -0.1658 -1.2499 -1.5411
30582SOL     OW98606   0.163   4.534  12.435  0.0366 -0.3278 -0.5273
30582SOL    HW198607   0.217   4.460  12.405 -1.2814 -0.7164 -2.0420
30582SOL    HW298608   0.224   4.590  12.483  1.5709 -1.2279 -1.3552
30583SOL     OW98609   6.872   1.199   4.008 -0.1178  0.1119  0.8605
30583SOL    HW198610   6.820   1.130   4.050 -0.9741  0.5343  0.5148
30583SOL    HW298611   6.847   1.279   4.054 -0.0267  0.3743  0.4595
30584SOL     OW98612  11.324   4.061   3.977 -0.0912  0.1941 -0.3565
30584SOL    HW198613  11.230   4.071   3.989  0.0582 -0.0321  1.1629
30584SOL    HW298614  11.364   4.129   4.031  0.6389 -0.8385  0.4557
30585SOL     OW98615  11.659   1.149  11.363  0.0894  0.6643  0.1476
30585SOL    HW198616  11.740   1.127  11.408  0.8002 -0.2768 -1.5320
30585SOL    HW298617  11.665   1.243  11.347  0.1683  0.8705  1.2715
30586SOL     OW98618   6.314   9.594   3.862 -0.0401  0.2912 -0.0277
30586SOL    HW198619   6.249   9.558   3.801  0.3145 -1.0161  0.3178
30586SOL    HW298620   6.397   9.559   3.830  0.2186  0.1116  0.8308
30587SOL     OW98621   0.604   9.674   5.698 -0.1669 -0.1903  0.5196
30587SOL    HW198622   0.509   9.660   5.702 -0.3572  0.6793 -0.3934
30587SOL    HW298623   0.640   9.588   5.676 -0.6914 -0.6232  1.2860
30588SOL     OW98624   2.047   7.474   8.083 -0.1512 -0.5856 -0.6064
30588SOL    HW198625   2.141   7.482   8.100 -0.4775 -0.2174  1.2481
30588SOL    HW298626   2.006   7.481   8.170 -1.9333 -0.1420 -1.4346
30589SOL     OW98627   5.511   9.940   5.928  0.4185  0.6392  0.3297
30589SOL    HW198628   5.603   9.916   5.935  0.5515  0.2996 -1.7808
30589SOL    HW298629   5.513  10.036   5.918  0.8135  0.4636 -2.0275
30590SOL     OW98630   9.291  10.312   1.358  0.2056  0.5501 -0.3115
30590SOL    HW198631   9.322  10.403   1.360  2.4765 -0.1682  1.9750
30590SOL    HW298632   9.343  10.270   1.290  1.2934  0.3196  0.6426
30591SOL     OW98633   4.151   4.618   8.079 -0.2039  0.4683 -0.5809
30591SOL    HW198634   4.225   4.557   8.084 -0.1471  0.3432 -2.2612
30591SOL    HW298635   4.113   4.618   8.167  1.2119 -0.1923  0.0640
30592SOL     OW98636   0.877   5.011   4.931 -0.6473 -0.1514 -0.1529
30592SOL    HW198637   0.886   4.982   5.022 -1.2163 -0.4520 -0.1902
30592SOL    HW298638   0.960   5.057   4.912 -0.4131 -0.3290  0.4233
30593SOL     OW98639  11.354   6.880   2.351  0.5944  0.1505  0.1504
30593SOL    HW198640  11.399   6.954   2.308  0.5386 -0.5169 -1.0917
30593SOL    HW298641  11.269   6.916   2.376  0.1356  0.2456 -1.4254
30594SOL     OW98642  12.030   0.770   3.446 -0.3693  0.2050 -0.3572
30594SOL    HW198643  11.941   0.740   3.429 -1.3586  0.6602  3.1402
30594SOL    HW298644  12.019   0.851   3.495  1.8958 -0.2085  1.0017
30595SOL     OW98645  10.979   0.499   8.236 -0.0890  0.4201  0.2714
30595SOL    HW198646  11.006   0.529   8.150  1.4354  1.1887  0.9818
30595SOL    HW298647  10.942   0.412   8.220  0.6272  0.3394 -1.0840
30596SOL     OW98648   6.529   8.942   2.135 -0.0691  0.0395  0.1739
30596SOL    HW198649   6.613   8.967   2.097 -0.6410  0.5282 -0.8044
30596SOL    HW298650   6.550   8.871   2.196  1.2642  1.1703  1.1050
30597SOL     OW98651   3.921   0.971   8.575 -0.5757 -0.0896 -0.1289
30597SOL    HW198652   3.958   1.059   8.567 -0.0025 -0.0462  2.3148
30597SOL    HW298653   3.893   0.965   8.666 -2.4652 -1.7550 -0.7518
30598SOL     OW98654   3.681  11.624  10.722  0.1892  0.2234 -0.1140
30598SOL    HW198655   3.632  11.553  10.763  0.0403 -0.2544 -1.0941
30598SOL    HW298656   3.666  11.613  10.628 -0.7479  2.2045 -0.2586
30599SOL     OW98657   7.342   6.788   3.798 -0.1390 -0.3409 -0.5906
30599SOL    HW198658   7.327   6.880   3.818  1.5665 -0.1591  0.0931
30599SOL    HW298659   7.290   6.740   3.862  0.1326  0.1898  0.0438
30600SOL     OW98660  12.231   2.564   9.991 -1.0011 -0.1748 -0.0689
30600SOL    HW198661  12.284   2.486  10.007  1.7500  1.5426 -0.1775
30600SOL    HW298662  12.254   2.624  10.062  0.1931  2.0443 -2.1710
30601SOL     OW98663   5.726   5.236   6.462  0.5406  0.5105  0.0750
30601SOL    HW198664   5.643   5.282   6.454  0.1381 -0.2236 -0.1028
30601SOL    HW298665   5.747   5.209   6.372  0.2017 -0.6013  0.3095
30602SOL     OW98666   7.407   4.906   0.337  0.0988 -0.0689 -0.3674
30602SOL    HW198667   7.382   4.975   0.276 -0.2336 -0.7500 -1.0245
30602SOL    HW298668   7.379   4.938   0.423 -2.3963 -0.4393 -0.9569
30603SOL     OW98669   5.974   7.088   2.228  0.0095  0.3470 -0.4072
30603SOL    HW198670   5.907   7.069   2.293  0.4278 -0.3321 -0.1553
30603SOL    HW298671   5.952   7.174   2.194 -0.9422  0.1668 -0.2756
30604SOL     OW98672   3.384   5.502  12.267 -0.5115 -0.1450 -0.3301
30604SOL    HW198673   3.352   5.589  12.245  1.5817  0.9685  0.6860
30604SOL    HW298674   3.359   5.448  12.192 -0.0063  1.8140 -2.0220
30605SOL     OW98675   2.728   7.066   0.874 -0.4894 -0.1845 -0.3403
30605SOL    HW198676   2.806   7.108   0.840 -1.1413  2.3319  1.0413
30605SOL    HW298677   2.753   7.035   0.961 -1.1164  1.1872  0.3690
30606SOL     OW98678   3.744   4.906   9.885 -0.2172 -0.0001 -0.1138
30606SOL    HW198679   3.819   4.936   9.937 -0.5820 -0.1568  0.5190
30606SOL    HW298680   3.667   4.939   9.933 -0.6210 -1.5454  0.3636
30607SOL     OW98681   7.829   2.964   1.914 -0.4659 -0.2635 -0.0310
30607SOL    HW198682   7.776   2.902   1.864 -0.1305  0.4471 -1.2963
30607SOL    HW298683   7.765   3.028   1.947 -0.6285 -0.4887  0.0965
30608SOL     OW98684   5.803   5.147   3.467  0.0906  0.2717 -0.2080
30608SOL    HW198685   5.764   5.070   3.426  1.4771 -0.0520 -0.9728
30608SOL    HW298686   5.876   5.170   3.410  2.9868 -0.9831  2.6854
30609SOL     OW98687   1.100   9.503   5.224  0.2032  0.0982  0.0598
30609SOL    HW198688   1.191   9.479   5.241  0.4569  1.1803  0.3083
30609SOL    HW298689   1.074   9.554   5.301 -0.1737  0.9496 -0.6205
30610SOL     OW98690   8.064   2.236   6.502 -0.0323  0.6012  0.1742
30610SOL    HW198691   8.084   2.144   6.483 -0.7440  0.4635  0.0741
30610SOL    HW298692   8.147   2.272   6.535  0.3707  0.0396 -0.1998
30611SOL     OW98693   0.578   7.048   4.044 -0.0091  0.1250 -0.7552
30611SOL    HW198694   0.561   7.116   4.109 -0.8591 -0.9417  0.1656
30611SOL    HW298695   0.544   7.084   3.962 -1.9246  0.2057  0.0233
30612SOL     OW98696   8.483   1.866   9.548 -0.1786 -0.1298  0.2980
30612SOL    HW198697   8.509   1.853   9.639 -0.7847  0.7703  0.6248
30612SOL    HW298698   8.558   1.910   9.507 -0.7075  1.4523  0.9467
30613SOL     OW98699  11.827   6.553   9.052 -0.3699 -0.9155  0.3186
30613SOL    HW198700  11.848   6.589   8.966 -0.2273  0.2305  0.8145
30613SOL    HW298701  11.908   6.560   9.102 -1.1565  1.1112  1.4242
30614SOL     OW98702  11.424   3.260   8.380 -0.0747 -0.2808  0.1618
30614SOL    HW198703  11.476   3.336   8.356 -0.2454  0.2137  1.2684
30614SOL    HW298704  11.421   3.262   8.476 -0.0952 -1.6762  0.2179
30615SOL     OW98705   7.543  12.275   5.869  0.2150 -0.2286 -0.4330
30615SOL    HW198706   7.585  12.357   5.842 -0.9856  0.4375 -0.3094
30615SOL    HW298707   7.475  12.301   5.931  0.6266 -1.4393  0.5656
30616SOL     OW98708   3.380   8.945   6.230  0.0504 -0.0400 -0.3915
30616SOL    HW198709   3.431   8.904   6.160 -0.0242  0.7859 -0.9461
30616SOL    HW298710   3.445   8.994   6.281  0.2072 -1.1543  0.5261
30617SOL     OW98711   3.647   3.888  10.974 -0.1252  0.0102 -0.3172
30617SOL    HW198712   3.586   3.870  11.044  1.1786 -0.6504  0.6925
30617SOL    HW298713   3.592   3.900  10.896 -1.4215 -3.8417 -0.1919
30618SOL     OW98714  11.032  10.038   4.813 -0.0021  0.1375 -0.2602
30618SOL    HW198715  11.122  10.009   4.829  0.5322  0.7426 -1.9921
30618SOL    HW298716  10.985   9.958   4.789  0.8235  0.2197 -2.3333
30619SOL     OW98717   9.536  10.635   9.006 -0.2342 -0.3755 -0.3713
30619SOL    HW198718   9.565  10.608   8.920  0.3649  2.3985 -1.1581
30619SOL    HW298719   9.616  10.659   9.052 -0.7229  0.4995  0.0536
30620SOL     OW98720   9.611   3.598   2.942  0.1611 -0.7982 -0.2417
30620SOL    HW198721   9.608   3.502   2.943  0.1072 -0.8078 -0.7695
30620SOL    HW298722   9.568   3.622   2.860 -0.4794 -0.2941  0.2287
30621SOL     OW98723   7.504   5.389   7.785  0.0535  0.0873 -0.3008
30621SOL    HW198724   7.453   5.311   7.808 -0.8914  0.7894  0.0422
30621SOL    HW298725   7.469   5.458   7.841  0.8153  0.7886 -0.6677
30622SOL     OW98726   9.118   7.047   1.138  0.5889  0.6684  0.2333
30622SOL    HW198727   9.075   7.039   1.052 -0.7890 -0.5495  0.9850
30622SOL    HW298728   9.194   6.989   1.132  0.7081  0.8723 -0.2867
30623SOL     OW98729  12.189   3.631   3.063  0.6602 -0.7806  0.3223
30623SOL    HW198730  12.094   3.633   3.051  0.8187 -2.2574 -2.0477
30623SOL    HW298731  12.218   3.719   3.042 -0.1325 -0.4834  0.4408
30624SOL     OW98732   6.013   2.121   2.884  0.5779  0.3468  0.2354
30624SOL    HW198733   5.923   2.091   2.880  0.8497 -0.5293  0.4520
30624SOL    HW298734   6.007   2.212   2.913 -0.2985  0.7181 -1.0093
30625SOL     OW98735   0.593   1.561   1.038 -0.0013  0.6427  0.4538
30625SOL    HW198736   0.559   1.582   1.125 -0.9869 -1.0514  0.5228
30625SOL    HW298737   0.542   1.485   1.009  0.9219  0.5956 -1.2297
30626SOL     OW98738  11.899  10.529   6.011  0.6383 -0.2619 -0.0939
30626SOL    HW198739  11.861  10.604   6.055 -0.3044  0.7852 -2.5636
30626SOL    HW298740  11.994  10.541   6.021  0.5071  1.2902 -0.4575
30627SOL     OW98741   5.094   4.320  10.752  0.0207  0.1061  0.1696
30627SOL    HW198742   5.184   4.294  10.732 -0.0044  1.0908 -1.4012
30627SOL    HW298743   5.042   4.242  10.735  0.5892 -0.5552  1.3563
30628SOL     OW98744   5.337   9.038  10.985 -0.4513 -0.1795  0.0657
30628SOL    HW198745   5.411   9.073  10.937 -0.4632  0.3356  0.4177
30628SOL    HW298746   5.324   9.099  11.057  0.0337 -1.3171  1.1608
30629SOL     OW98747   0.222   2.978   4.843 -0.2523  0.2272 -0.2695
30629SOL    HW198748   0.217   3.045   4.911  2.2652 -0.5366  0.8014
30629SOL    HW298749   0.260   3.023   4.767  0.4410  0.2784  0.0991
30630SOL     OW98750   7.264   9.975   7.128  0.7647 -0.6841  0.0626
30630SOL    HW198751   7.204   9.916   7.173  0.0006 -1.0965 -1.4420
30630SOL    HW298752   7.248  10.061   7.169  0.5915 -1.1589  1.0182
30631SOL     OW98753   2.205   3.730   6.146 -0.7750  0.4739 -0.4726
30631SOL    HW198754   2.214   3.687   6.060  1.6669 -0.0113 -0.0616
30631SOL    HW298755   2.228   3.661   6.209  1.8382  1.8794  0.2816
30632SOL     OW98756  11.125  11.098   1.269 -0.3049  0.1259  0.0209
30632SOL    HW198757  11.182  11.055   1.332 -1.9438 -0.0949  1.4315
30632SOL    HW298758  11.064  11.029   1.241 -0.0357  0.3985 -1.2896
30633SOL     OW98759   1.904   6.617   3.485  0.0493  0.1350  0.1499
30633SOL    HW198760   1.897   6.522   3.487  2.7959 -0.1419  1.1751
30633SOL    HW298761   1.859   6.646   3.563  0.5158 -0.4910  0.6668
30634SOL     OW98762   7.884   6.996  10.429 -0.3728  0.1669  0.1077
30634SOL    HW198763   7.907   6.903  10.431  2.7131  0.8384  0.7111
30634SOL    HW298764   7.847   7.013  10.515  0.3831 -0.2099  0.5156
30635SOL     OW98765  10.050   9.788   3.436 -0.0702 -0.3880  0.1187
30635SOL    HW198766   9.969   9.739   3.423 -0.1968 -0.0591 -0.3659
30635SOL    HW298767  10.079   9.811   3.348 -0.0340  0.4362  0.3363
30636SOL     OW98768   5.896  10.865  10.910 -0.0287 -0.2329 -0.2706
30636SOL    HW198769   5.872  10.918  10.834  0.2573  0.2542 -0.0231
30636SOL    HW298770   5.816  10.858  10.961  0.4624  1.9525  0.8988
30637SOL     OW98771   9.697   3.118   5.534 -0.6409  0.2029 -0.3979
30637SOL    HW198772   9.648   3.055   5.586  0.4763 -1.3331 -1.1376
30637SOL    HW298773   9.775   3.070   5.505  0.1707  1.8768 -1.1275
30638SOL     OW98774  11.980   5.556   2.861  0.0208 -0.3338  0.2324
30638SOL    HW198775  11.950   5.645   2.842 -0.1652 -0.0304  1.8183
30638SOL    HW298776  11.968   5.546   2.956  3.1851 -0.8421  0.7132
30639SOL     OW98777  10.263   2.206   1.822 -0.1041  0.2561  0.4921
30639SOL    HW198778  10.174   2.174   1.813 -0.3902  1.4125 -1.3529
30639SOL    HW298779  10.317   2.142   1.775 -0.3377  0.9844 -0.8133
30640SOL     OW98780   6.327   9.661   1.891 -0.6313 -0.5686 -0.0881
30640SOL    HW198781   6.233   9.661   1.904 -0.4864 -0.0251  1.1376
30640SOL    HW298782   6.354   9.750   1.916  0.3004 -0.9609  0.3233
30641SOL     OW98783   3.688  12.362   2.634  0.5086 -0.3601  0.3457
30641SOL    HW198784   3.723  12.394   2.550  1.0982 -1.5177  0.1383
30641SOL    HW298785   3.680  12.268   2.622 -0.7409 -0.3676  1.1214
30642SOL     OW98786   2.710   4.442   5.061  0.1497 -0.1182 -0.1201
30642SOL    HW198787   2.805   4.435   5.075 -0.1783 -1.4422  1.9582
30642SOL    HW298788   2.672   4.388   5.131 -2.1414  0.2322 -1.0182
30643SOL     OW98789   5.981   7.551   1.367 -0.5876 -0.3441  0.5106
30643SOL    HW198790   6.053   7.611   1.346 -1.0484 -0.6162 -2.1700
30643SOL    HW298791   6.000   7.472   1.316 -2.9991 -0.2170 -0.7402
30644SOL     OW98792   7.635   7.741  11.481 -0.0260 -0.4201  0.2167
30644SOL    HW198793   7.621   7.832  11.507 -2.2178 -0.9952  1.2479
30644SOL    HW298794   7.650   7.745  11.387  1.6522  1.1260  0.4849
30645SOL     OW98795  11.433   3.951   1.748 -0.2428 -0.1911 -0.2530
30645SOL    HW198796  11.400   3.951   1.838  0.8870 -0.9782  0.1874
30645SOL    HW298797  11.457   3.860   1.731  1.4709  0.2880 -0.5944
30646SOL     OW98798   7.727   7.422  11.185 -0.6499 -0.4508 -0.3856
30646SOL    HW198799   7.705   7.514  11.168 -0.1310  0.0852  1.5558
30646SOL    HW298800   7.789   7.399  11.116 -1.0227  0.5603 -1.0800
30647SOL     OW98801   6.626   1.741   8.773 -0.5176  0.1068 -0.3022
30647SOL    HW198802   6.649   1.773   8.686 -1.8801 -0.3975 -0.8819
30647SOL    HW298803   6.577   1.661   8.757  0.6380 -0.9221  1.0201
30648SOL     OW98804   2.386   2.867   2.137 -0.5522  0.5760  0.0023
30648SOL    HW198805   2.393   2.957   2.170 -0.3495 -0.0654  1.8527
30648SOL    HW298806   2.299   2.863   2.098 -0.7031  1.4898  0.2052
30649SOL     OW98807   9.515  11.544   5.531  0.3293  0.2210 -0.1046
30649SOL    HW198808   9.583  11.477   5.537 -0.3364 -0.4620 -0.0300
30649SOL    HW298809   9.556  11.615   5.481  1.3449  0.1552  0.6168
30650SOL     OW98810   4.206  10.990  11.938  1.0312 -0.0376 -0.2597
30650SOL    HW198811   4.173  10.911  11.980  0.2597  0.1799 -0.4292
30650SOL    HW298812   4.139  11.056  11.956  0.5654  0.0148 -1.9909
30651SOL     OW98813   6.464   2.070   1.285 -0.0583 -0.1221 -0.0141
30651SOL    HW198814   6.491   1.995   1.337  0.6553 -0.7156 -1.1890
30651SOL    HW298815   6.504   2.055   1.199  0.1785  1.6570 -0.2467
30652SOL     OW98816   2.907   3.394  11.717  0.0315  0.4471 -0.1388
30652SOL    HW198817   2.863   3.383  11.633  0.2398  0.1821 -0.2147
30652SOL    HW298818   2.837   3.411  11.780 -0.2108 -0.3519 -0.1883
30653SOL     OW98819  10.219  11.078   1.817 -0.5053 -0.2793  0.3227
30653SOL    HW198820  10.189  11.163   1.851 -0.4709 -0.2806  0.3554
30653SOL    HW298821  10.173  11.068   1.733  0.5242  0.4047 -0.3552
30654SOL     OW98822   5.092   4.333   2.533 -0.0543  0.0224 -0.2360
30654SOL    HW198823   5.097   4.247   2.574 -0.3147 -0.3097 -0.8853
30654SOL    HW298824   5.020   4.377   2.578 -1.3599 -0.9068 -1.3532
30655SOL     OW98825   1.902   7.512   2.111  0.7278  0.3982  0.2872
30655SOL    HW198826   1.955   7.580   2.071  1.1439  0.4689  0.9427
30655SOL    HW298827   1.956   7.478   2.183  0.9641 -1.3514 -0.6744
30656SOL     OW98828   2.984   1.774  10.482 -0.3066 -0.0041 -0.2029
30656SOL    HW198829   3.060   1.770  10.541  1.1522  1.8878 -1.8601
30656SOL    HW298830   2.911   1.798  10.540  0.6357 -0.2834  1.1682
30657SOL     OW98831   5.873   6.806   8.861 -0.2378  0.6135 -0.5484
30657SOL    HW198832   5.838   6.724   8.827 -1.2806  1.6899 -2.2123
30657SOL    HW298833   5.907   6.783   8.948 -0.0767 -1.6524 -1.1329
30658SOL     OW98834   1.095   4.722   3.313  0.0500 -0.3885 -0.1989
30658SOL    HW198835   1.053   4.706   3.398 -0.0026  1.2740  0.1094
30658SOL    HW298836   1.125   4.635   3.285  0.9706 -0.8494  1.9907
30659SOL     OW98837   3.038   4.643   3.250  0.0376 -0.2440 -0.4094
30659SOL    HW198838   2.994   4.699   3.186  0.7517  0.1148 -0.5955
30659SOL    HW298839   3.064   4.702   3.320  1.0330 -0.2815 -0.7291
30660SOL     OW98840   2.826   0.590   8.537  0.2773 -0.4342  0.2909
30660SOL    HW198841   2.915   0.614   8.564  0.1008 -0.1088  0.5941
30660SOL    HW298842   2.795   0.666   8.487 -0.5275  0.3006  1.8130
30661SOL     OW98843   6.852   2.105   9.675  0.3738 -0.0618  0.1421
30661SOL    HW198844   6.917   2.167   9.709  0.1725  0.1681  0.1183
30661SOL    HW298845   6.836   2.134   9.585 -0.3628  0.3916  0.4097
30662SOL     OW98846   2.064   8.938   5.489 -0.1477  0.6268  0.3953
30662SOL    HW198847   1.968   8.939   5.493 -0.2989  1.1337 -1.9356
30662SOL    HW298848   2.089   8.859   5.537 -2.0201 -1.8002 -2.2676
30663SOL     OW98849   5.919   7.354   1.700 -0.0315  0.7543 -0.4291
30663SOL    HW198850   6.000   7.404   1.686  0.5587 -0.3075 -0.9139
30663SOL    HW298851   5.948   7.264   1.713 -1.1730  0.1516 -1.7452
30664SOL     OW98852  10.341  10.710   7.929  0.0059 -0.3380  0.0210
30664SOL    HW198853  10.411  10.650   7.957 -0.6221 -1.2304 -0.2517
30664SOL    HW298854  10.320  10.760   8.008  1.2390  0.2622 -0.0035
30665SOL     OW98855   0.816   3.110   0.720  0.3878 -0.6785 -0.7571
30665SOL    HW198856   0.803   3.202   0.744  1.2230 -0.5798 -0.6522
30665SOL    HW298857   0.782   3.103   0.631  0.9471 -0.1017 -1.0243
30666SOL     OW98858  10.520  10.636   5.730  0.0721 -0.3761 -0.4348
30666SOL    HW198859  10.547  10.728   5.731 -1.4534  0.1310 -1.6083
30666SOL    HW298860  10.430  10.638   5.697 -0.1371 -2.2647 -0.0888
30667SOL     OW98861   1.553   2.636   0.102  0.4333 -0.3288 -0.0556
30667SOL    HW198862   1.549   2.716   0.050  0.0504 -1.0331 -1.1428
30667SOL    HW298863   1.630   2.590   0.069  0.2563 -0.7288  0.0839
30668SOL     OW98864   3.043   9.717   4.747  0.7364  0.2434 -0.5635
30668SOL    HW198865   2.950   9.731   4.728  0.1577  0.4832  2.0547
30668SOL    HW298866   3.047   9.631   4.788  1.4916  0.6606  0.2815
30669SOL     OW98867   6.125  11.662   8.979  0.3954 -0.4017  0.0637
30669SOL    HW198868   6.195  11.714   9.020 -1.0758  1.0564  0.8386
30669SOL    HW298869   6.097  11.715   8.904 -1.5657  0.2957  1.2422
30670SOL     OW98870   7.466   4.085   6.888  0.1657 -0.3337  0.3275
30670SOL    HW198871   7.386   4.051   6.928  0.1385 -0.4560  0.1680
30670SOL    HW298872   7.524   4.009   6.883  0.5296 -0.1118  1.0350
30671SOL     OW98873   7.654   3.380   5.013 -0.4203  0.2762  0.0113
30671SOL    HW198874   7.596   3.379   5.089  0.4859  0.5020  0.7273
30671SOL    HW298875   7.730   3.328   5.040  0.3637  1.2020 -0.3719
30672SOL     OW98876   9.551   6.031   0.361 -0.0688  0.0809 -0.3113
30672SOL    HW198877   9.589   6.082   0.432 -0.3416 -1.7742  1.2744
30672SOL    HW298878   9.465   6.070   0.347  0.7056  1.6261 -0.9524
30673SOL     OW98879   9.652   8.123   5.243 -0.3913  0.1416 -0.4732
30673SOL    HW198880   9.679   8.139   5.334  0.0203 -3.8270  0.2885
30673SOL    HW298881   9.725   8.155   5.190  0.6569 -0.0293  0.8158
30674SOL     OW98882   1.373   1.566  10.356  0.0654  0.0173 -0.4795
30674SOL    HW198883   1.446   1.508  10.375  0.2170  0.6847  1.1011
30674SOL    HW298884   1.323   1.520  10.288  0.9484 -1.2850 -0.2828
30675SOL     OW98885   6.781   3.992   4.510 -0.4193 -0.4118 -0.3739
30675SOL    HW198886   6.768   3.899   4.526  0.0757 -0.0637  2.9322
30675SOL    HW298887   6.869   3.998   4.471 -0.9437 -1.3517 -1.7684
30676SOL     OW98888   2.465   4.666   0.579  0.0131 -0.0951 -0.1841
30676SOL    HW198889   2.447   4.595   0.518 -0.2285 -0.7302  0.6157
30676SOL    HW298890   2.554   4.695   0.556 -0.6580  0.7560 -1.8782
30677SOL     OW98891   1.560   2.420   3.189  0.3279  0.1555  0.1197
30677SOL    HW198892   1.637   2.364   3.179 -0.5037 -1.0757  0.4323
30677SOL    HW298893   1.589   2.506   3.158  1.8019 -0.2928  0.1645
30678SOL     OW98894   1.308   2.251  10.957 -0.0900  0.0301  0.4257
30678SOL    HW198895   1.261   2.170  10.937 -0.7448  0.4434  0.2426
30678SOL    HW298896   1.395   2.223  10.985  0.0881 -0.6807 -0.7859
30679SOL     OW98897   8.351   1.111  10.053 -0.1429 -0.7168 -0.6002
30679SOL    HW198898   8.276   1.070  10.010  1.1064 -2.2764 -1.4190
30679SOL    HW298899   8.388   1.168   9.986 -2.3556  2.6688  0.7804
30680SOL     OW98900   5.163   8.349   6.812  0.2237 -0.1697 -0.3423
30680SOL    HW198901   5.161   8.254   6.827 -1.1169 -0.3889 -1.6951
30680SOL    HW298902   5.166   8.387   6.899 -0.2073 -1.4521  0.2600
30681SOL     OW98903  12.440   8.584   3.104  0.2511  0.7152 -0.4243
30681SOL    HW198904  12.448   8.502   3.152 -0.1152  0.8311 -0.1604
30681SOL    HW298905  12.346   8.597   3.093  0.2290  1.6998  0.6207
30682SOL     OW98906   5.841  12.041   9.606  0.0961  0.4629 -0.1949
30682SOL    HW198907   5.915  12.089   9.571 -0.5655  1.1689 -0.6585
30682SOL    HW298908   5.845  12.055   9.701  1.1519 -0.3908 -0.0978
30683SOL     OW98909   1.279   6.987   8.171  0.3617  0.1273  0.0349
30683SOL    HW198910   1.279   6.948   8.259  0.1418  0.2485  0.0887
30683SOL    HW298911   1.371   7.006   8.153  0.2083  2.3749  1.2395
30684SOL     OW98912   3.756   7.166   3.636 -0.3310 -0.4215  0.4567
30684SOL    HW198913   3.723   7.181   3.547  0.1415 -2.5032 -0.1054
30684SOL    HW298914   3.767   7.254   3.671 -2.6330  0.4559 -0.7326
30685SOL     OW98915   0.859  10.526   3.010  0.6286 -0.0795  0.1024
30685SOL    HW198916   0.775  10.492   3.040  0.9277  0.1528  1.2464
30685SOL    HW298917   0.910  10.537   3.090  1.9140 -0.6521 -0.6159
30686SOL     OW98918   6.897   6.280   4.545 -0.6709  0.0289  0.3611
30686SOL    HW198919   6.950   6.261   4.623 -0.6936  0.4605  0.4875
30686SOL    HW298920   6.891   6.376   4.543 -1.0165  0.0049  0.0596
30687SOL     OW98921   1.550   4.958   3.204 -0.2143 -0.0002 -0.2863
30687SOL    HW198922   1.599   4.876   3.192 -2.3754 -1.1500 -2.1316
30687SOL    HW298923   1.485   4.937   3.272  0.4779  0.8641  0.6778
30688SOL     OW98924  10.871   6.308   3.500  0.3607  0.1340  0.6081
30688SOL    HW198925  10.933   6.301   3.573  0.3589  1.1565  0.7222
30688SOL    HW298926  10.851   6.218   3.477 -0.5391 -0.2701  2.6478
30689SOL     OW98927  10.797   9.566   5.750  0.3283 -0.1216 -0.0654
30689SOL    HW198928  10.849   9.628   5.700 -0.2767  1.4082  1.1036
30689SOL    HW298929  10.714   9.612   5.766  1.0019  0.1821  3.5617
30690SOL     OW98930   0.822   1.020   2.738 -0.2739 -0.5104 -0.7509
30690SOL    HW198931   0.771   0.980   2.808 -1.5747  2.5129  0.1958
30690SOL    HW298932   0.757   1.047   2.673  0.1379  2.2660 -0.1323
30691SOL     OW98933   1.674  10.109   4.917  0.6327 -0.0630  0.3261
30691SOL    HW198934   1.614  10.080   4.986 -0.1979 -1.1632 -0.8240
30691SOL    HW298935   1.618  10.132   4.844  1.5992 -1.6963 -0.9986
30692SOL     OW98936   1.023   4.638   5.578 -0.7660  0.7019 -0.0290
30692SOL    HW198937   1.034   4.550   5.542 -0.3934  0.8548 -0.3039
30692SOL    HW298938   0.974   4.625   5.658 -0.7995  0.2509 -0.1174
30693SOL     OW98939   7.888   3.943   1.747  0.2691 -0.1644  0.0120
30693SOL    HW198940   7.869   3.849   1.750 -1.1325  0.0795 -0.5043
30693SOL    HW298941   7.927   3.962   1.833 -4.2207 -0.3104  2.4011
30694SOL     OW98942   0.066   7.345   0.152 -0.1642  0.1556 -0.0099
30694SOL    HW198943   0.137   7.352   0.215  1.8148 -0.1927 -2.0737
30694SOL    HW298944   0.078   7.259   0.112 -1.7181  0.1224 -0.4701
30695SOL     OW98945   2.754   3.154   7.550  0.0517 -0.1387 -0.3512
30695SOL    HW198946   2.693   3.195   7.489 -0.2086 -1.0844 -0.7567
30695SOL    HW298947   2.723   3.063   7.556 -1.4877  0.4712  3.1224
30696SOL     OW98948   6.755   9.349   4.000 -0.3758  0.6823  0.0137
30696SOL    HW198949   6.694   9.420   3.981 -0.3939  0.3200 -1.3904
30696SOL    HW298950   6.704   9.269   3.986  0.2478  0.3816 -0.5700
30697SOL     OW98951  10.129  12.404  10.447 -0.7670  0.0116 -0.1899
30697SOL    HW198952  10.196  12.337  10.464 -0.1662  0.2096 -1.6024
30697SOL    HW298953  10.103  12.389  10.357 -3.1685 -0.4711  0.5224
30698SOL     OW98954   8.523  10.614   8.138  0.3601 -0.2806  0.0051
30698SOL    HW198955   8.522  10.673   8.214 -2.2191  0.4499 -0.5000
30698SOL    HW298956   8.585  10.545   8.163  1.7147  1.3897  1.5780
30699SOL     OW98957   9.156   1.195   1.432  0.0022  0.0783 -0.7844
30699SOL    HW198958   9.113   1.208   1.348 -1.4389  1.4921  0.1305
30699SOL    HW298959   9.091   1.150   1.486 -0.2701  1.9166  0.5045
30700SOL     OW98960   9.467   6.863   1.533 -0.5072  0.3607 -0.7500
30700SOL    HW198961   9.397   6.819   1.484 -1.6862  1.2053  0.1106
30700SOL    HW298962   9.546   6.816   1.509 -1.6477 -2.0111 -0.1568
30701SOL     OW98963   8.238   8.708  10.201 -0.0884 -0.5204  0.4085
30701SOL    HW198964   8.306   8.748  10.255 -0.2163 -0.9885  0.9198
30701SOL    HW298965   8.283   8.683  10.120  0.4832 -1.3735  0.9808
30702SOL     OW98966   8.789  12.203   7.430 -0.0139 -0.1132  0.1294
30702SOL    HW198967   8.746  12.275   7.475 -0.1747 -0.2238  0.1536
30702SOL    HW298968   8.883  12.223   7.435 -0.1292  1.0874 -1.5380
30703SOL     OW98969   6.903  11.618  11.921  0.0618 -0.9330  0.2206
30703SOL    HW198970   6.958  11.577  11.854 -0.7071 -0.5558 -0.6589
30703SOL    HW298971   6.948  11.700  11.942 -0.3525 -0.4340 -0.7910
30704SOL     OW98972   4.264   2.089   1.783 -0.6478 -0.0923  0.4499
30704SOL    HW198973   4.207   2.036   1.839  0.0717 -1.4086 -0.0143
30704SOL    HW298974   4.312   2.025   1.730 -1.0359  1.0914 -1.4283
30705SOL     OW98975   4.416  11.552   2.628 -0.0075 -0.2866  0.1143
30705SOL    HW198976   4.471  11.479   2.599 -0.9166 -1.0347  0.2103
30705SOL    HW298977   4.328  11.514   2.635 -0.1611  0.2905  2.1212
30706SOL     OW98978  10.118  10.049   2.686  0.3458  0.1613 -0.2272
30706SOL    HW198979  10.162  10.099   2.755  0.8187 -0.5068 -0.0434
30706SOL    HW298980  10.034  10.094   2.675  1.8132  2.7686 -2.0443
30707SOL     OW98981   8.261  11.867   5.608  0.4324  0.1915 -0.2418
30707SOL    HW198982   8.306  11.911   5.536 -1.0620  0.9468 -0.7415
30707SOL    HW298983   8.269  11.774   5.588 -0.4419  0.4133 -1.6962
30708SOL     OW98984   4.173   4.458  10.417 -0.0396 -0.2300 -0.0409
30708SOL    HW198985   4.116   4.387  10.449 -1.4130  0.7843 -0.1559
30708SOL    HW298986   4.158   4.459  10.322  0.7637 -0.4435 -0.1760
30709SOL     OW98987   8.479   2.438   7.627  0.3316  0.1985  0.9501
30709SOL    HW198988   8.509   2.411   7.713  1.3700 -0.2988  0.4548
30709SOL    HW298989   8.552   2.489   7.591 -0.4058  1.0919  0.6726
30710SOL     OW98990   2.298  10.293   0.872 -0.7487  0.0013  0.2562
30710SOL    HW198991   2.243  10.217   0.891 -2.4251  1.1506  0.2213
30710SOL    HW298992   2.298  10.300   0.777  2.1536 -1.8213 -0.0201
30711SOL     OW98993   4.665   5.397   7.844 -0.0300 -0.6653 -0.7748
30711SOL    HW198994   4.617   5.316   7.861  0.7990 -0.7953  1.3028
30711SOL    HW298995   4.685   5.431   7.931  1.9735  0.3664 -1.5809
30712SOL     OW98996   7.246   0.038   4.929  0.3643 -0.1923  0.1599
30712SOL    HW198997   7.259   0.117   4.877  2.2361 -1.4476 -1.4143
30712SOL    HW298998   7.155   0.044   4.959 -0.5025  1.0937 -2.4293
30713SOL     OW98999   7.172   2.564   9.271  0.0751 -0.1647  0.2525
30713SOL    HW199000   7.229   2.629   9.313  0.1555  0.9182 -1.3973
30713SOL    HW299001   7.084   2.598   9.284  0.1858  0.9434 -1.5720
30714SOL     OW99002   1.569  11.920  12.014  0.3754  0.0523  0.2778
30714SOL    HW199003   1.649  11.909  11.962  0.5276  3.1770 -0.3339
30714SOL    HW299004   1.598  11.967  12.093 -0.8440  1.3966 -0.0396
30715SOL     OW99005   7.587   1.075   4.492 -0.0502  0.0494 -0.0162
30715SOL    HW199006   7.560   0.986   4.515 -1.5671  0.1275 -1.2896
30715SOL    HW299007   7.581   1.078   4.396 -0.0659  1.5355  0.0030
30716SOL     OW99008   3.470   2.333   9.642 -0.2354  0.3099  0.0423
30716SOL    HW199009   3.549   2.285   9.669 -0.5052 -0.6043 -0.7412
30716SOL    HW299010   3.501   2.422   9.623  0.2306  0.5591  1.7962
30717SOL     OW99011   4.531   4.847   4.637  0.4847 -0.8283  0.4450
30717SOL    HW199012   4.542   4.935   4.601  1.1691 -0.1144  2.2750
30717SOL    HW299013   4.437   4.841   4.656  0.3536 -0.6855 -0.1579
30718SOL     OW99014   6.638   5.407   9.477 -0.0615  0.2684  0.3844
30718SOL    HW199015   6.580   5.414   9.402 -1.5874 -1.0467  1.3787
30718SOL    HW299016   6.583   5.427   9.553  0.8343 -0.7265  1.3400
30719SOL     OW99017  11.647  11.066   0.179 -0.4693  0.1652  0.1102
30719SOL    HW199018  11.624  10.973   0.175 -1.1321  0.2599  1.1838
30719SOL    HW299019  11.578  11.110   0.129 -1.4015  0.2415  1.3955
30720SOL     OW99020  10.260  10.406  10.792  0.2608  0.3419  0.0519
30720SOL    HW199021  10.315  10.470  10.837  0.1986  0.3238  0.1543
30720SOL    HW299022  10.186  10.392  10.851  0.9299 -0.8199  0.6559
30721SOL     OW99023  10.923   8.452   1.244  0.0016 -0.4249  0.5505
30721SOL    HW199024  10.854   8.405   1.197  0.1285  0.1226 -0.1928
30721SOL    HW299025  11.003   8.403   1.223  0.6361  1.6716 -2.6162
30722SOL     OW99026  12.088  11.927   7.952  0.2062  0.0771  0.1543
30722SOL    HW199027  12.011  11.976   7.982  0.6456  0.0321  1.4081
30722SOL    HW299028  12.061  11.835   7.958  0.1250  0.0866 -0.0658
30723SOL     OW99029  10.454   3.414   7.926 -0.7071  0.1316 -0.1363
30723SOL    HW199030  10.539   3.379   7.951 -0.4581  1.6413  1.3549
30723SOL    HW299031  10.460   3.427   7.831  1.4195  1.8373  0.1438
30724SOL     OW99032   8.720   9.482   8.251 -0.6796  0.9299 -0.3906
30724SOL    HW199033   8.809   9.506   8.277 -1.1725  0.8308  1.4591
30724SOL    HW299034   8.731   9.407   8.193  0.4240  0.8735 -0.1216
30725SOL     OW99035   5.399  11.837   2.779  0.2044  0.0078  0.0637
30725SOL    HW199036   5.389  11.775   2.706 -0.1587  0.7136 -0.5010
30725SOL    HW299037   5.465  11.797   2.835 -1.0246 -1.5858  0.4502
30726SOL     OW99038   3.317   9.838   0.418  0.0137 -0.3022 -0.0500
30726SOL    HW199039   3.274   9.809   0.338  2.4834  0.1651 -1.6429
30726SOL    HW299040   3.387   9.774   0.432 -0.1925 -0.2085  1.6128
30727SOL     OW99041  11.480   8.976   0.318 -0.4520 -0.2683  0.0527
30727SOL    HW199042  11.511   8.930   0.239 -0.8626  0.6872 -0.6845
30727SOL    HW299043  11.497   9.068   0.300 -1.1151  0.0154  0.8332
30728SOL     OW99044   8.068  11.931  12.390 -0.3326  0.2874 -0.1046
30728SOL    HW199045   8.160  11.953  12.374 -0.7039  1.0599 -1.3217
30728SOL    HW299046   8.050  11.964  12.478  1.0189 -1.4934  0.9060
30729SOL     OW99047  10.934   8.846  12.137  0.4710  0.0924  0.2224
30729SOL    HW199048  10.844   8.813  12.133 -0.1961  1.8744 -2.7580
30729SOL    HW299049  10.928   8.924  12.192  0.2616 -0.0075  0.3417
30730SOL     OW99050   2.510   3.235   1.502  0.6833 -0.1627  0.1101
30730SOL    HW199051   2.507   3.165   1.567 -1.6929 -0.6676 -0.4571
30730SOL    HW299052   2.513   3.190   1.418  0.6117  0.4493 -0.2271
30731SOL     OW99053  11.618   8.611   6.579  0.8834  0.1603  0.0349
30731SOL    HW199054  11.566   8.690   6.593 -0.4765 -0.8803  1.0788
30731SOL    HW299055  11.636   8.579   6.667 -0.4772 -1.8738 -0.3672
30732SOL     OW99056   1.716   9.027   1.196 -0.1515 -1.0891 -0.1372
30732SOL    HW199057   1.781   9.078   1.148 -0.1293 -0.9202  0.0701
30732SOL    HW299058   1.697   8.952   1.139 -0.7638 -0.4553 -0.7984
30733SOL     OW99059   0.126   8.329   1.582  0.1598  0.4731  0.1975
30733SOL    HW199060   0.039   8.289   1.580  1.2380 -2.0728 -0.6509
30733SOL    HW299061   0.119   8.404   1.523 -1.6937  0.9165  0.9264
30734SOL     OW99062  10.228  12.163   5.540 -0.0450 -0.2977 -0.7583
30734SOL    HW199063  10.241  12.258   5.541 -0.5047 -0.2300  0.6379
30734SOL    HW299064  10.317  12.127   5.542  0.2584  0.1623  3.9358
30735SOL     OW99065   9.138   6.578   4.821 -0.2290 -0.4829  0.4804
30735SOL    HW199066   9.146   6.581   4.726  1.5816 -1.7889  0.5384
30735SOL    HW299067   9.185   6.655   4.852  1.8619 -1.6315  0.3601
30736SOL     OW99068   4.593   7.349   5.839 -0.5879 -0.1334 -0.3384
30736SOL    HW199069   4.534   7.371   5.912 -1.4526  1.1719 -1.3829
30736SOL    HW299070   4.568   7.409   5.769  1.0231 -0.5569 -1.3280
30737SOL     OW99071  10.434   6.854   4.426  0.0809 -0.1010  0.0896
30737SOL    HW199072  10.410   6.763   4.440 -1.4408  0.0632 -1.1859
30737SOL    HW299073  10.436   6.892   4.514  0.1857 -1.2109  0.5828
30738SOL     OW99074   8.390   6.076   3.903 -0.4644 -0.3415  0.0156
30738SOL    HW199075   8.377   6.058   3.996  2.7299  0.2507  0.7012
30738SOL    HW299076   8.372   6.170   3.895 -1.8333 -0.6006 -0.2637
30739SOL     OW99077   0.335   5.108   0.958 -0.2136  0.6812  0.6067
30739SOL    HW199078   0.347   5.017   0.986  1.6760 -0.1854 -2.5705
30739SOL    HW299079   0.381   5.160   1.025 -0.2705 -0.7753  1.8198
30740SOL     OW99080   4.657   7.253   7.576 -0.0601 -0.2742  0.4551
30740SOL    HW199081   4.726   7.197   7.541  1.0972  0.3132  1.7070
30740SOL    HW299082   4.675   7.339   7.538 -0.7923 -0.3500 -0.0892
30741SOL     OW99083   5.509   1.679   1.851 -0.3121 -0.9166  0.0548
30741SOL    HW199084   5.541   1.767   1.872  1.1415 -1.2991 -0.4203
30741SOL    HW299085   5.514   1.675   1.755  1.6953 -2.2040  0.1494
30742SOL     OW99086   0.042   7.522   7.603  0.2246  0.4321  0.0429
30742SOL    HW199087   0.086   7.605   7.585  0.2599 -0.1924 -3.4564
30742SOL    HW299088   0.103   7.456   7.570 -1.1462 -0.7705 -0.1507
30743SOL     OW99089   3.454   2.597   1.275 -0.1216 -0.3582  0.2479
30743SOL    HW199090   3.460   2.641   1.360  1.4318 -0.7492  0.3785
30743SOL    HW299091   3.498   2.513   1.288 -1.4329 -1.1992 -0.4844
30744SOL     OW99092   9.358   5.773   6.150 -0.1252  0.2667  0.1684
30744SOL    HW199093   9.433   5.725   6.184 -0.5968 -0.3905  0.3039
30744SOL    HW299094   9.395   5.854   6.115  0.2923  1.4405  3.0617
30745SOL     OW99095   6.378   2.476   0.589 -0.5598  0.7856 -0.0226
30745SOL    HW199096   6.343   2.505   0.673 -0.5094  3.0649 -0.7240
30745SOL    HW299097   6.452   2.534   0.571 -0.4012  0.1864 -1.5274
30746SOL     OW99098   3.131   9.279  12.180  0.2706  0.1541  0.5853
30746SOL    HW199099   3.193   9.302  12.250 -1.6053 -0.3705  2.5280
30746SOL    HW299100   3.175   9.308  12.099  3.0471 -0.2714  1.8086
30747SOL     OW99101  11.176   4.645   1.549  0.2249 -0.0813 -0.3564
30747SOL    HW199102  11.268   4.671   1.540 -0.3167  2.1070 -0.1440
30747SOL    HW299103  11.158   4.652   1.643 -0.1331 -0.6062 -0.3823
30748SOL     OW99104   4.642   8.976  11.666 -0.4046 -0.0157  0.7851
30748SOL    HW199105   4.605   8.921  11.597  1.5744  0.0306 -0.3915
30748SOL    HW299106   4.573   8.982  11.731 -2.4154  0.0257 -1.2241
30749SOL     OW99107   9.187   1.935   7.576  0.0551 -0.1785  0.7000
30749SOL    HW199108   9.128   1.997   7.532 -0.2415 -0.4588  0.6924
30749SOL    HW299109   9.275   1.967   7.557  0.0874 -1.6725 -2.2470
30750SOL     OW99110  10.091   2.108   5.133 -0.2898 -0.8042  0.2580
30750SOL    HW199111  10.022   2.090   5.196 -1.3466 -2.2399 -1.1968
30750SOL    HW299112  10.044   2.132   5.053  0.9859  0.5534 -0.1233
30751SOL     OW99113  11.980   9.147  11.766 -0.1782  0.2734 -0.0198
30751SOL    HW199114  11.890   9.120  11.785 -0.1355  0.3644  0.3277
30751SOL    HW299115  11.972   9.233  11.725 -0.1950  0.7855  1.0405
30752SOL     OW99116   8.234   7.639   0.807 -0.0660 -0.0786  0.4216
30752SOL    HW199117   8.159   7.642   0.867 -1.6610  0.0537 -1.4994
30752SOL    HW299118   8.292   7.707   0.839 -2.4589  2.3749 -0.1116
30753SOL     OW99119   7.557   5.832   9.761  0.3015  0.1786 -0.2263
30753SOL    HW199120   7.498   5.886   9.708 -0.8194  2.8876  3.3977
30753SOL    HW299121   7.614   5.895   9.806  1.6620 -1.9582  1.2630
30754SOL     OW99122   4.810   1.228  10.494 -0.2499 -0.5140  0.4631
30754SOL    HW199123   4.887   1.173  10.505  0.2377  0.1968  0.6271
30754SOL    HW299124   4.840   1.317  10.513 -1.1797 -0.2660  0.8577
30755SOL     OW99125   0.642   4.844   5.206  0.0410 -0.3982  0.0159
30755SOL    HW199126   0.695   4.766   5.224  0.0052 -0.2540  0.7763
30755SOL    HW299127   0.582   4.816   5.136  0.1769 -0.9853  0.1274
30756SOL     OW99128   6.430  10.337   4.016 -0.2921 -0.0220 -0.1046
30756SOL    HW199129   6.475  10.417   4.041  0.3700  0.0085 -1.3288
30756SOL    HW299130   6.403  10.352   3.925  0.2211 -1.3232 -0.4975
30757SOL     OW99131  10.586   0.357   6.585 -0.1480  0.4109 -0.7121
30757SOL    HW199132  10.583   0.447   6.618  0.9241 -0.2392  1.3523
30757SOL    HW299133  10.624   0.365   6.497  1.2283  1.8860 -0.0391
30758SOL     OW99134   5.136   7.193  11.319 -0.1595  0.1190  0.3019
30758SOL    HW199135   5.178   7.113  11.288  0.2621  0.2139  0.6256
30758SOL    HW299136   5.046   7.187  11.287 -0.6466 -1.3285  1.8200
30759SOL     OW99137   9.492   2.886   5.265  0.3152 -0.3077 -0.3774
30759SOL    HW199138   9.482   2.803   5.217  0.2228  0.3059 -1.4604
30759SOL    HW299139   9.445   2.872   5.347  0.7856 -1.5208 -0.2899
30760SOL     OW99140  12.404  12.044   1.943  0.4289  0.2936  0.2408
30760SOL    HW199141  12.423  12.102   1.869  0.5664  0.7162  0.6049
30760SOL    HW299142  12.312  12.021   1.934  0.8890 -1.2245 -1.1652
30761SOL     OW99143   6.165  10.489   2.942 -0.6373  0.0613 -0.6742
30761SOL    HW199144   6.231  10.533   2.997 -1.5693  0.3119  0.2844
30761SOL    HW299145   6.216  10.441   2.877  0.4451  1.8034 -1.1709
30762SOL     OW99146  10.093   0.716   1.163  0.2674 -0.1970 -0.4872
30762SOL    HW199147  10.018   0.716   1.103 -0.4650  2.0127  0.3182
30762SOL    HW299148  10.144   0.639   1.137 -1.6616 -1.1313 -1.8200
30763SOL     OW99149   9.483  11.620   4.589 -0.1830 -0.5434  0.1639
30763SOL    HW199150   9.456  11.706   4.620 -0.5210 -0.0026 -1.5264
30763SOL    HW299151   9.434  11.558   4.643 -0.4106  0.3340  0.9724
30764SOL     OW99152   7.296   4.159   7.638 -0.4540  0.7512  0.5662
30764SOL    HW199153   7.363   4.200   7.692 -0.0004 -0.8573  1.2659
30764SOL    HW299154   7.262   4.088   7.691 -0.6583 -0.2861 -0.9028
30765SOL     OW99155   4.568   5.347   9.567  0.3183 -0.5330  0.1729
30765SOL    HW199156   4.594   5.288   9.496  0.5662 -0.0290 -0.1663
30765SOL    HW299157   4.616   5.317   9.643 -0.2323 -1.3108  0.2225
30766SOL     OW99158   6.551  10.881   6.245  0.2971 -0.6563 -0.0813
30766SOL    HW199159   6.500  10.800   6.236 -0.7864 -0.0310  0.2496
30766SOL    HW299160   6.495  10.939   6.296  1.1530  0.2342 -0.1244
30767SOL     OW99161  11.123   5.876  10.524 -0.0287  0.2274 -0.5783
30767SOL    HW199162  11.216   5.894  10.537  0.6636 -3.4024  0.5993
30767SOL    HW299163  11.120   5.812  10.453 -1.5126 -0.3483 -0.0458
30768SOL     OW99164   5.244   2.196   0.735 -0.6090 -0.3023 -0.0724
30768SOL    HW199165   5.204   2.131   0.793 -1.8119 -0.4786 -1.0485
30768SOL    HW299166   5.208   2.176   0.649  0.4516  0.5138 -0.7253
30769SOL     OW99167  10.971   6.701   3.589  0.1418  0.0795 -1.5730
30769SOL    HW199168  11.015   6.617   3.596 -0.5223 -0.1803 -0.0222
30769SOL    HW299169  10.882   6.684   3.619  0.7249  1.8500  1.6545
30770SOL     OW99170   6.264   1.927   1.880  0.2288 -0.3285 -0.1308
30770SOL    HW199171   6.172   1.903   1.870 -0.1394  1.1730 -0.7188
30770SOL    HW299172   6.263   2.022   1.889  1.8574  0.0564 -2.7680
30771SOL     OW99173   7.452   2.551   1.884  0.2262  0.4706 -0.1146
30771SOL    HW199174   7.376   2.578   1.935  1.2875 -0.9516  2.4210
30771SOL    HW299175   7.433   2.460   1.860  0.6442  0.4608 -0.4161
30772SOL     OW99176   4.766   0.189   1.108 -0.0950  0.1918  0.1675
30772SOL    HW199177   4.805   0.212   1.192 -0.3247  2.7278 -0.3668
30772SOL    HW299178   4.780   0.094   1.101  0.1997 -0.0400  2.8868
30773SOL     OW99179   7.854   5.126   0.037 -0.2985  0.1393 -0.2926
30773SOL    HW199180   7.813   5.210   0.055  1.0920  0.5892  0.9775
30773SOL    HW299181   7.947   5.140   0.054 -0.2033 -2.0100  1.4877
30774SOL     OW99182   9.064  10.443   9.749  0.9419  0.4305 -0.3634
30774SOL    HW199183   8.990  10.383   9.755  0.1292  1.2912 -1.5194
30774SOL    HW299184   9.102  10.442   9.837 -0.3960 -0.0522  0.2398
30775SOL     OW99185   7.126   2.594   6.044 -0.3830 -0.0397  0.2613
30775SOL    HW199186   7.075   2.662   6.001  0.5362  0.3279 -0.2908
30775SOL    HW299187   7.212   2.598   6.001  0.1213 -0.6064  1.1836
30776SOL     OW99188   0.259   0.647   3.741  0.1808  0.6872  0.0507
30776SOL    HW199189   0.294   0.637   3.653 -1.2437  0.6403 -0.5324
30776SOL    HW299190   0.317   0.711   3.783  0.4695  1.2433 -1.1590
30777SOL     OW99191   2.164   6.043   4.750 -0.1674 -0.1350  0.4693
30777SOL    HW199192   2.188   5.962   4.796  0.5138 -0.0672  0.2364
30777SOL    HW299193   2.247   6.080   4.721 -0.6329 -0.7633 -1.8344
30778SOL     OW99194  11.789   5.881   0.477  0.2121 -0.0360 -0.0893
30778SOL    HW199195  11.825   5.958   0.520  0.1776 -1.5297  2.8640
30778SOL    HW299196  11.866   5.833   0.446  0.4991 -0.4938  1.2537
30779SOL     OW99197   1.519   6.012   8.754  0.4186  0.2379 -0.1148
30779SOL    HW199198   1.552   6.101   8.744 -2.4744  1.5171  0.5165
30779SOL    HW299199   1.434   6.014   8.710 -0.4593 -1.7054  1.3648
30780SOL     OW99200   8.121   0.152  11.426 -0.7833 -0.5214  0.1401
30780SOL    HW199201   8.102   0.079  11.368 -0.2127  0.0415 -0.7908
30780SOL    HW299202   8.062   0.140  11.500 -1.3643 -1.3921 -0.4411
30781SOL     OW99203   6.100   6.659  10.228  0.1134  0.5006  0.0478
30781SOL    HW199204   6.127   6.567  10.233  1.7736  0.8259 -1.6698
30781SOL    HW299205   6.004   6.656  10.232  0.1173 -1.3318 -0.2558
30782SOL     OW99206   2.962   5.350   0.348 -0.0569 -0.2441  0.8018
30782SOL    HW199207   2.988   5.435   0.385 -0.4704 -0.2213  1.0440
30782SOL    HW299208   2.960   5.365   0.254  0.9561 -0.2874  0.7658
30783SOL     OW99209  12.277   5.407   6.774 -0.0160  0.3448 -0.4487
30783SOL    HW199210  12.364   5.382   6.805  0.1329  0.1395 -1.0225
30783SOL    HW299211  12.293   5.449   6.689 -0.2915  2.0346  0.2995
30784SOL     OW99212   9.423   4.500   3.853 -0.0482  0.0484  0.3582
30784SOL    HW199213   9.502   4.553   3.864 -0.0206 -0.0530  0.6643
30784SOL    HW299214   9.455   4.412   3.832 -0.0982  0.1900 -0.3301
30785SOL     OW99215   1.119   7.515   1.536  0.3093 -0.0182 -0.2961
30785SOL    HW199216   1.169   7.572   1.478 -0.3922  1.1900  0.2405
30785SOL    HW299217   1.036   7.562   1.549 -1.4110 -2.3824 -1.9483
30786SOL     OW99218   3.091  10.148   4.016  0.4219  0.2522 -0.0091
30786SOL    HW199219   3.052  10.173   3.932 -1.1629  0.3703  0.7124
30786SOL    HW299220   3.182  10.177   4.011  0.4148  0.0254 -1.7675
30787SOL     OW99221   3.772   0.127   8.978  0.0617 -0.1008  0.2567
30787SOL    HW199222   3.814   0.213   8.973  0.5794 -0.0341  3.5022
30787SOL    HW299223   3.679   0.145   8.965  0.2004  0.9336  0.5903
30788SOL     OW99224   7.843   0.533   1.867  0.1203  0.0567  0.5091
30788SOL    HW199225   7.781   0.461   1.857 -0.0881  0.0279  1.8668
30788SOL    HW299226   7.849   0.572   1.779  2.2224 -3.1776 -0.9667
30789SOL     OW99227   8.239   1.506   5.814 -0.0670 -0.1405  0.3544
30789SOL    HW199228   8.258   1.572   5.748 -0.5146  0.6461  0.9816
30789SOL    HW299229   8.251   1.422   5.770  0.1895  0.3660 -0.5510
30790SOL     OW99230   6.643   9.041   3.417  0.3033  0.2560 -0.2987
30790SOL    HW199231   6.684   8.964   3.377 -1.1764  0.4067 -2.2372
30790SOL    HW299232   6.558   9.010   3.447  0.0899  0.9292 -0.2034
30791SOL     OW99233   2.471   1.370  11.249  0.5610  0.2315  0.0558
30791SOL    HW199234   2.441   1.460  11.260 -0.1527  0.1057 -0.7199
30791SOL    HW299235   2.485   1.361  11.154  2.2691  0.0268  0.2961
30792SOL     OW99236   4.853   3.890   8.142 -0.4251 -0.3077 -0.0911
30792SOL    HW199237   4.858   3.824   8.212 -1.0165  0.1332  0.3851
30792SOL    HW299238   4.890   3.969   8.181 -1.5779  0.1892  0.0551
30793SOL     OW99239   8.001   5.990   5.750  0.4764  0.4371 -1.1840
30793SOL    HW199240   8.045   6.010   5.832  1.3157  0.0732 -1.5320
30793SOL    HW299241   8.029   5.901   5.728  1.6849  1.1543 -2.7460
30794SOL     OW99242  12.339   1.270   4.940  0.3210  0.3269 -0.3987
30794SOL    HW199243  12.257   1.292   4.985  0.7169 -0.2378  0.6410
30794SOL    HW299244  12.324   1.182   4.906 -0.1785  0.9645 -1.9163
30795SOL     OW99245   8.114   7.639   2.744  0.3711 -0.3372  0.0985
30795SOL    HW199246   8.105   7.638   2.648 -1.0838 -0.8865  0.2150
30795SOL    HW299247   8.069   7.719   2.771  2.1265  0.6620  0.2570
30796SOL     OW99248   3.392   1.780   0.212  0.4823 -0.0823 -0.3947
30796SOL    HW199249   3.487   1.787   0.223  0.2202  1.4364  1.3168
30796SOL    HW299250   3.367   1.858   0.163  0.0434 -0.1929 -0.3500
30797SOL     OW99251  10.978  11.282   1.442  0.2910 -0.3566  0.5248
30797SOL    HW199252  10.977  11.214   1.375  1.4880  1.2523 -1.2412
30797SOL    HW299253  11.070  11.306   1.450 -0.1663  1.5475  0.5358
30798SOL     OW99254  11.315  11.633   5.490 -0.4637 -0.0734  0.5006
30798SOL    HW199255  11.239  11.589   5.527  0.2544 -1.0644  0.8365
30798SOL    HW299256  11.374  11.563   5.466 -0.6377  0.5522 -2.0094
30799SOL     OW99257  12.356   9.722   4.787 -0.0852 -0.2095 -0.5020
30799SOL    HW199258  12.387   9.663   4.718  2.9177 -0.4144  0.8590
30799SOL    HW299259  12.365   9.672   4.868  2.6142  1.9407  0.7137
30800SOL     OW99260   0.751   6.706   8.236  0.4902  0.5075  0.6402
30800SOL    HW199261   0.795   6.720   8.320 -0.1151  0.2613  1.0055
30800SOL    HW299262   0.702   6.625   8.248 -1.0961  1.4374  0.6892
30801SOL     OW99263   6.187  12.397   2.473  0.2280 -0.2946  0.3476
30801SOL    HW199264   6.206  12.308   2.443 -1.2644 -0.5374  0.0148
30801SOL    HW299265   6.228  12.402   2.559  0.8296 -1.1082  0.1257
30802SOL     OW99266   1.425   1.862  11.874 -0.0788  0.3024 -0.0477
30802SOL    HW199267   1.516   1.858  11.902 -0.3348  1.8108  1.1346
30802SOL    HW299268   1.428   1.844  11.780  1.5732  1.2996 -0.2285
30803SOL     OW99269  10.646   8.316   3.534  0.5112  0.1250  0.5043
30803SOL    HW199270  10.612   8.299   3.621 -0.8659  2.1014  0.3976
30803SOL    HW299271  10.731   8.358   3.548 -0.1785  1.4142  0.9516
30804SOL     OW99272   9.015   5.289   6.453 -0.1894 -0.3186  0.5453
30804SOL    HW199273   9.030   5.383   6.459  0.0121 -0.2855 -0.3873
30804SOL    HW299274   8.929   5.276   6.493 -1.6456  0.6917 -2.0382
30805SOL     OW99275  11.831   7.316   2.443  0.0542 -0.0443 -0.3412
30805SOL    HW199276  11.908   7.264   2.466  0.0893 -0.6389 -1.7098
30805SOL    HW299277  11.773   7.254   2.399 -0.4622  0.7851 -0.8484
30806SOL     OW99278   0.032   1.656   0.226  0.2233 -0.4369  0.1994
30806SOL    HW199279  -0.050   1.701   0.245 -1.1888 -0.1226 -5.0837
30806SOL    HW299280   0.017   1.565   0.254 -1.5071 -0.1475  0.3154
30807SOL     OW99281   0.746   9.731   2.824  0.2522  0.6102 -0.2455
30807SOL    HW199282   0.780   9.722   2.913  0.0545  0.3415 -0.1974
30807SOL    HW299283   0.738   9.826   2.811  0.1462  0.6452  0.0739
30808SOL     OW99284   1.385   8.604   6.423  0.1725  0.1629 -0.0337
30808SOL    HW199285   1.406   8.676   6.364 -0.1252 -0.7076 -1.2565
30808SOL    HW299286   1.299   8.573   6.392 -0.9872  0.9679  2.1689
30809SOL     OW99287   3.396  10.293   7.175  0.0737  0.8348  0.0032
30809SOL    HW199288   3.476  10.243   7.191 -0.0140  0.5493 -0.4205
30809SOL    HW299289   3.426  10.381   7.155  0.5005  0.1451 -2.8282
30810SOL     OW99290   2.429   3.284   8.950 -0.0919  0.5688 -0.6635
30810SOL    HW199291   2.388   3.335   8.880  1.3838  1.3997 -0.9710
30810SOL    HW299292   2.380   3.201   8.951 -0.8878  0.9868 -1.8923
30811SOL     OW99293   9.370   8.565   9.807  0.2613 -0.1424 -0.3094
30811SOL    HW199294   9.348   8.653   9.838  1.0157 -0.1659  0.3392
30811SOL    HW299295   9.465   8.559   9.817  0.1503 -1.2695  0.3407
30812SOL     OW99296   8.580   9.021   0.992 -0.1718  0.1928  0.1649
30812SOL    HW199297   8.487   9.001   0.995 -0.0140 -0.7379 -0.7799
30812SOL    HW299298   8.590   9.098   1.048 -1.6250  0.7893 -0.3648
30813SOL     OW99299   1.539   7.989   1.178 -0.8210 -0.3310 -0.0732
30813SOL    HW199300   1.624   8.032   1.192 -0.9009 -0.5085  1.0470
30813SOL    HW299301   1.558   7.919   1.115  0.2516 -1.5127  1.4996
30814SOL     OW99302  11.576  12.154  11.592  0.8374  0.1019  0.0926
30814SOL    HW199303  11.608  12.064  11.593  1.3204  0.2691  0.3475
30814SOL    HW299304  11.655  12.207  11.606  0.8292  0.6545 -1.7583
30815SOL     OW99305   8.107   5.859   4.175 -0.1652  0.0681  0.5597
30815SOL    HW199306   8.176   5.923   4.190 -1.8888  2.5225 -1.1750
30815SOL    HW299307   8.152   5.775   4.170  2.9930  1.7151 -2.1726
30816SOL     OW99308   9.353  11.767  12.329  0.1577  0.1405  0.2260
30816SOL    HW199309   9.323  11.705  12.263 -0.1952  0.6709 -0.1313
30816SOL    HW299310   9.312  11.737  12.411  2.5071 -1.9180  0.7436
30817SOL     OW99311   0.720   0.511   3.956  0.5893 -0.8303 -0.3112
30817SOL    HW199312   0.722   0.457   3.877  1.6379 -3.1424  1.1710
30817SOL    HW299313   0.641   0.483   4.002 -1.3562  2.1877 -1.4822
30818SOL     OW99314   2.139   9.994   8.309 -0.7662 -0.4073 -0.3680
30818SOL    HW199315   2.222  10.042   8.305 -1.3764  0.6870 -0.2780
30818SOL    HW299316   2.147   9.927   8.241  0.3654 -0.6306 -0.0471
30819SOL     OW99317   9.999   8.265   4.662  0.3835  0.0200  0.0793
30819SOL    HW199318   9.980   8.358   4.659  0.9169  0.1612  0.7739
30819SOL    HW299319  10.094   8.260   4.652  0.5628 -0.3271  1.6982
30820SOL     OW99320  11.933  11.703   4.599  0.1404  0.6537 -0.1460
30820SOL    HW199321  11.937  11.794   4.630  0.1673  0.6793 -0.2272
30820SOL    HW299322  12.006  11.660   4.644 -0.7983  0.3010  1.0985
30821SOL     OW99323   9.345  12.293  11.674 -1.7264  0.3893  0.0415
30821SOL    HW199324   9.324  12.294  11.581 -0.8441  0.3711 -0.1719
30821SOL    HW299325   9.292  12.222  11.710  0.8652 -2.4416 -1.2246
30822SOL     OW99326   6.823   0.123   1.632  0.5567 -0.3145 -0.2885
30822SOL    HW199327   6.792   0.206   1.669  0.8040 -0.6648  0.7239
30822SOL    HW299328   6.919   0.128   1.638  0.5443 -1.2223  1.0368
30823SOL     OW99329   0.489   3.819   1.685 -0.3347 -0.0346 -0.6817
30823SOL    HW199330   0.411   3.846   1.734  0.7559  1.1604  0.4387
30823SOL    HW299331   0.520   3.898   1.641  1.9364  0.2853  1.2987
30824SOL     OW99332  10.426   8.390   6.527  0.3814  0.6349  0.3091
30824SOL    HW199333  10.390   8.393   6.439 -2.1220  1.0267  1.2606
30824SOL    HW299334  10.414   8.479   6.560  1.6754  0.6019  0.9271
30825SOL     OW99335   6.710   6.665   1.311  0.1733 -0.6408  0.0351
30825SOL    HW199336   6.700   6.600   1.380  0.4771  0.3871  1.0906
30825SOL    HW299337   6.787   6.716   1.338  0.1650 -0.0897 -0.9527
30826SOL     OW99338   9.157   4.469  11.262 -0.0448  0.0815  0.3856
30826SOL    HW199339   9.097   4.432  11.327 -0.3485  1.3630  0.8558
30826SOL    HW299340   9.193   4.392  11.217 -1.3100 -0.7569  0.7391
30827SOL     OW99341   0.209   7.870   7.590 -0.0248  0.1748  0.3137
30827SOL    HW199342   0.264   7.800   7.555  0.3817  1.2112 -1.1978
30827SOL    HW299343   0.133   7.872   7.532  0.6266  1.8773 -0.5515
30828SOL     OW99344  10.004   6.877   5.253 -0.7401  0.1494  0.4416
30828SOL    HW199345  10.018   6.799   5.305  0.7950  0.2475  0.1995
30828SOL    HW299346   9.952   6.935   5.309  0.7853  0.2165  1.8512
30829SOL     OW99347   1.624  11.171  11.095 -0.0090  0.1422 -0.8780
30829SOL    HW199348   1.541  11.206  11.129 -0.0997  0.1249 -1.0828
30829SOL    HW299349   1.605  11.149  11.004  0.2353  0.1850 -0.9392
30830SOL     OW99350  10.577   9.454   0.089 -0.0169 -0.2906 -0.2743
30830SOL    HW199351  10.501   9.510   0.101  0.7729  0.6754  0.2944
30830SOL    HW299352  10.565   9.415   0.002  0.0478  1.7630 -1.2603
30831SOL     OW99353  11.510   6.412   3.797 -0.0916  0.1287 -0.4321
30831SOL    HW199354  11.472   6.500   3.791 -2.4035 -0.7376  0.2880
30831SOL    HW299355  11.487   6.371   3.714 -1.5403 -0.6711  0.3277
30832SOL     OW99356   8.985  12.100   4.302  0.3665 -0.0129 -0.3385
30832SOL    HW199357   9.028  12.183   4.320  1.7131 -0.6490 -0.5117
30832SOL    HW299358   8.894  12.124   4.283  0.7047  1.3958 -0.2966
30833SOL     OW99359   8.441  12.247  10.654 -0.1656 -0.4148 -0.2382
30833SOL    HW199360   8.348  12.256  10.634 -0.4300  0.1989  1.2011
30833SOL    HW299361   8.485  12.303  10.591 -0.8551  0.2106 -0.1680
30834SOL     OW99362   0.421   7.061   2.378  0.1838  0.1874  0.5260
30834SOL    HW199363   0.394   7.140   2.332 -0.5221 -0.3184  0.0505
30834SOL    HW299364   0.339   7.020   2.405  0.2222 -2.4949 -2.7885
30835SOL     OW99365   7.077   9.459   5.978  0.4160  1.0361  0.1567
30835SOL    HW199366   7.067   9.498   5.891 -0.4936  1.3939  0.4122
30835SOL    HW299367   7.086   9.365   5.960 -2.1383  0.7927 -0.2421
30836SOL     OW99368   9.426  11.342   8.340 -0.3202 -0.1563  0.2421
30836SOL    HW199369   9.463  11.331   8.427  1.4633  0.6796 -0.3543
30836SOL    HW299370   9.345  11.392   8.354 -0.0382  0.0006  1.4049
30837SOL     OW99371  10.265   0.809   4.344 -0.1686  0.2534 -0.3309
30837SOL    HW199372  10.255   0.720   4.311 -1.4010  0.5780 -0.9109
30837SOL    HW299373  10.220   0.807   4.429 -1.2521  0.6015 -0.8831
30838SOL     OW99374   8.560   1.180   6.421 -0.2252 -0.0750  0.0430
30838SOL    HW199375   8.620   1.168   6.495 -1.2262 -3.0973  0.5223
30838SOL    HW299376   8.594   1.122   6.353 -0.8342  0.6005 -0.8607
30839SOL     OW99377   3.989   2.853   4.939 -0.1210 -0.0370  0.0933
30839SOL    HW199378   3.972   2.939   4.977  0.6176 -0.2136  0.8489
30839SOL    HW299379   4.042   2.871   4.861 -0.0554  0.2086  0.1940
30840SOL     OW99380  10.163   9.486  11.594 -0.6289  0.1632 -0.0367
30840SOL    HW199381  10.090   9.462  11.650  0.7092  1.1639  2.2731
30840SOL    HW299382  10.238   9.438  11.629  0.0379 -0.2550 -1.8738
30841SOL     OW99383   6.208   2.221   3.232  0.5145  0.8498  0.3345
30841SOL    HW199384   6.115   2.240   3.232  0.5348  0.9667  0.8091
30841SOL    HW299385   6.228   2.198   3.323  1.1309  1.7291  0.4335
30842SOL     OW99386   0.516   9.140   1.541 -0.6225 -0.2216 -0.0787
30842SOL    HW199387   0.457   9.108   1.473  0.0300  0.2300 -0.8792
30842SOL    HW299388   0.465   9.134   1.622 -2.3973  1.7228 -0.9404
30843SOL     OW99389   6.121   7.382  10.400  0.3917  0.1976  0.1894
30843SOL    HW199390   6.209   7.411  10.424  0.8897  0.3198 -1.6286
30843SOL    HW299391   6.068   7.462  10.405  0.0275 -0.1255  2.6026
30844SOL     OW99392   2.687   4.777  10.843  0.0703 -0.0073 -0.1964
30844SOL    HW199393   2.774   4.817  10.851  0.3812 -0.2373 -2.0449
30844SOL    HW299394   2.649   4.818  10.765 -0.7121 -1.2961 -0.5125
30845SOL     OW99395   5.863   7.497  11.964 -0.0383 -0.0076 -0.4627
30845SOL    HW199396   5.774   7.485  11.997 -0.2579  1.3675 -0.4894
30845SOL    HW299397   5.851   7.527  11.874  0.4446  0.1430 -0.4823
30846SOL     OW99398   9.701   8.720   5.729  0.3350 -0.0739 -0.3328
30846SOL    HW199399   9.790   8.731   5.695  0.1195  3.9729 -0.1086
30846SOL    HW299400   9.648   8.704   5.651  1.0634 -1.3816 -0.5903
30847SOL     OW99401   6.919   2.734   9.051 -0.7258  0.0774  0.1893
30847SOL    HW199402   6.901   2.655   9.000  1.7200  0.0383 -0.7719
30847SOL    HW299403   7.010   2.755   9.031  0.0979  0.6614  3.8105
30848SOL     OW99404   6.055   1.834   6.309  0.2301 -0.3420 -0.0814
30848SOL    HW199405   6.066   1.789   6.393 -1.9322  0.6928  0.8371
30848SOL    HW299406   5.974   1.798   6.273 -1.1106  2.1096  0.2887
30849SOL     OW99407  11.124  10.756  12.120  0.1663 -0.1413 -0.3001
30849SOL    HW199408  11.182  10.831  12.104 -1.2264  1.6342  2.3062
30849SOL    HW299409  11.075  10.746  12.038  0.3231  1.9074 -0.6977
30850SOL     OW99410   7.278   9.221  11.698 -0.0474 -0.0215 -0.1915
30850SOL    HW199411   7.361   9.267  11.712 -0.4492  1.2554 -1.6835
30850SOL    HW299412   7.267   9.220  11.603 -2.2123  0.7110 -0.0004
30851SOL     OW99413  12.175  11.991   4.522  1.0945  0.1089  0.2330
30851SOL    HW199414  12.154  11.902   4.549  1.5143 -0.3990 -1.0590
30851SOL    HW299415  12.115  12.046   4.571 -0.5926 -1.0369 -0.4779
30852SOL     OW99416   2.440   8.367   2.991  0.0405  0.0351  0.6387
30852SOL    HW199417   2.443   8.451   3.036  0.4551 -0.4399  1.5385
30852SOL    HW299418   2.443   8.302   3.062  1.1805 -0.7407 -0.0827
30853SOL     OW99419   1.102   1.800   0.385  0.2577  0.6211  0.1594
30853SOL    HW199420   1.157   1.858   0.438  0.5663 -0.0883  0.6297
30853SOL    HW299421   1.152   1.719   0.378 -0.1349  0.4294 -0.5549
30854SOL     OW99422   6.776   5.814   9.683  0.3433 -0.7408 -0.4050
30854SOL    HW199423   6.821   5.890   9.719 -1.2913  0.3120 -0.4947
30854SOL    HW299424   6.749   5.763   9.760  0.1794 -0.4666 -0.2782
30855SOL     OW99425  10.834  10.944   2.928 -0.3085 -0.4316  0.3835
30855SOL    HW199426  10.839  10.993   3.010 -0.3321 -0.0907  0.1840
30855SOL    HW299427  10.741  10.920   2.921 -0.4199  0.0481  0.1666
30856SOL     OW99428   3.995   5.622   3.264  0.2316 -0.0562  0.1815
30856SOL    HW199429   3.903   5.634   3.241  0.4518  2.0224  0.1451
30856SOL    HW299430   4.043   5.645   3.185  0.8192  1.5868  0.9511
30857SOL     OW99431   8.850   4.079   2.615  0.5969 -0.3829 -0.0752
30857SOL    HW199432   8.888   4.146   2.559  0.3030 -1.0710 -1.1152
30857SOL    HW299433   8.874   3.996   2.575  0.0936 -0.8856  0.6245
30858SOL     OW99434   7.739   6.043   3.014  0.0159 -0.3403 -0.4868
30858SOL    HW199435   7.791   5.995   2.950 -1.2138 -1.2848 -0.7999
30858SOL    HW299436   7.649   6.016   2.998 -0.4627  0.3987  0.7956
30859SOL     OW99437  12.415   6.089   1.768 -0.0396  0.4180 -0.3720
30859SOL    HW199438  12.441   6.162   1.825 -1.4104 -0.8672  2.0489
30859SOL    HW299439  12.350   6.126   1.709  0.7865  1.6089 -0.5611
30860SOL     OW99440   8.801   2.346   7.312 -0.0010  0.5275 -0.3521
30860SOL    HW199441   8.770   2.292   7.385  1.3881  0.0932 -0.0631
30860SOL    HW299442   8.862   2.408   7.352 -0.5821  1.4760 -0.8922
30861SOL     OW99443   6.302   6.095  11.828 -0.0633  0.0722 -0.0883
30861SOL    HW199444   6.284   6.150  11.904 -0.2693  1.7175 -1.2790
30861SOL    HW299445   6.397   6.098  11.818  0.2308 -1.9147  1.3089
30862SOL     OW99446  11.003   9.233   0.178  0.4478  0.1411  0.1338
30862SOL    HW199447  10.911   9.219   0.157  0.8420  0.0981 -1.7704
30862SOL    HW299448  11.011   9.327   0.193  0.3789  0.4083 -1.3902
30863SOL     OW99449   9.019   7.095   4.172  0.1378  0.2296 -0.0624
30863SOL    HW199450   8.945   7.047   4.136 -0.6242 -0.6763  2.5014
30863SOL    HW299451   8.982   7.178   4.202  0.5008  0.4480 -0.2093
30864SOL     OW99452  10.680   2.565   4.247  0.2738 -0.1120 -0.0501
30864SOL    HW199453  10.720   2.488   4.288  1.0994 -0.1941 -0.9618
30864SOL    HW299454  10.742   2.589   4.178 -1.4453 -0.5065 -1.8060
30865SOL     OW99455   1.525   3.409   8.139 -0.2056  0.6247 -0.5422
30865SOL    HW199456   1.575   3.331   8.162 -0.1902  1.1590  1.3374
30865SOL    HW299457   1.437   3.376   8.118  0.4626 -0.1413 -2.4023
30866SOL     OW99458   9.047   5.624   4.371 -0.2790  0.3944  0.2968
30866SOL    HW199459   9.135   5.602   4.340 -0.0940 -0.3638  1.3001
30866SOL    HW299460   8.989   5.599   4.300  0.2257 -0.2038  0.0862
30867SOL     OW99461   4.235   9.508   2.974 -0.0028 -0.1300 -0.8800
30867SOL    HW199462   4.168   9.440   2.961  1.3051 -1.5483 -0.5382
30867SOL    HW299463   4.249   9.510   3.068  2.1501 -1.6549 -1.0955
30868SOL     OW99464  11.978   2.259   4.845 -0.3406  0.0048  0.3084
30868SOL    HW199465  12.045   2.299   4.789 -0.1493  0.0121  0.5413
30868SOL    HW299466  12.018   2.176   4.873 -0.0663  0.4141  1.1661
30869SOL     OW99467  12.434   1.718  11.053  0.1757  0.1520  0.2039
30869SOL    HW199468  12.456   1.808  11.080  1.8419  0.0020 -0.5093
30869SOL    HW299469  12.518   1.673  11.049 -0.4710 -1.0442 -0.8915
30870SOL     OW99470  12.310   7.241   5.231 -0.3225 -0.0271 -0.5134
30870SOL    HW199471  12.236   7.184   5.211 -0.7752  0.6743 -0.9103
30870SOL    HW299472  12.327   7.229   5.324 -0.3548 -0.8625 -0.6128
30871SOL     OW99473   6.069   2.625   4.930  0.0161 -0.0949 -0.5967
30871SOL    HW199474   6.085   2.531   4.938  1.1440  0.1948  1.0196
30871SOL    HW299475   5.986   2.641   4.975  0.7000 -0.0946  0.7044
30872SOL     OW99476   9.234   2.633   3.343  0.1314 -0.2155  0.2915
30872SOL    HW199477   9.154   2.614   3.294 -0.9346  0.4683  1.6816
30872SOL    HW299478   9.221   2.591   3.428  0.8572  0.6480  0.8488
30873SOL     OW99479   6.404   9.556   0.297  0.1386  0.2580  0.4905
30873SOL    HW199480   6.329   9.497   0.285  1.0038 -0.6642 -0.5369
30873SOL    HW299481   6.423   9.588   0.209  1.5198 -0.2317  0.5936
30874SOL     OW99482   5.959   8.361   8.439 -0.1162  0.2523  0.2718
30874SOL    HW199483   5.918   8.439   8.400 -1.2431 -0.6462 -0.4063
30874SOL    HW299484   5.996   8.392   8.522 -1.1193  1.3752  0.3261
30875SOL     OW99485  10.740   8.277  10.373  0.2999  0.2862 -0.5702
30875SOL    HW199486  10.832   8.250  10.367  0.5268  0.6065  1.0329
30875SOL    HW299487  10.720   8.273  10.466 -0.5338  2.7578 -0.5625
30876SOL     OW99488   5.889   1.655   4.744  0.1319 -0.0261  0.3085
30876SOL    HW199489   5.924   1.672   4.656  1.8149  2.0198  1.2753
30876SOL    HW299490   5.917   1.566   4.764  0.4198 -0.2376 -0.9206
30877SOL     OW99491  10.091   7.964   8.656 -0.0143 -0.8406  0.2994
30877SOL    HW199492  10.169   7.926   8.697  0.9869  0.3074 -0.4591
30877SOL    HW299493  10.118   8.053   8.633 -1.3020 -0.6989 -0.7363
30878SOL     OW99494   4.744   9.241   1.654 -0.2490  0.2508 -0.2508
30878SOL    HW199495   4.722   9.220   1.745  3.2917 -0.9127  0.4872
30878SOL    HW299496   4.758   9.336   1.654 -0.5346  0.2952  0.3704
30879SOL     OW99497   4.338   1.754   2.885 -0.1666 -0.4084 -0.2705
30879SOL    HW199498   4.324   1.671   2.840  0.7630 -0.5504 -0.3099
30879SOL    HW299499   4.374   1.729   2.971 -0.3425 -0.0662 -0.0939
30880SOL     OW99500   2.681   4.175  11.165  0.4102  0.3004  0.3137
30880SOL    HW199501   2.637   4.258  11.146 -0.0527 -0.2168 -1.0573
30880SOL    HW299502   2.615   4.109  11.146  1.4035 -0.4578 -0.6232
30881SOL     OW99503  11.257   5.684   0.817 -0.3442  0.2097 -0.2674
30881SOL    HW199504  11.186   5.749   0.813 -0.0808  0.6545  1.6128
30881SOL    HW299505  11.227   5.620   0.882  0.1587 -0.6428 -0.8541
30882SOL     OW99506   8.163   5.029  11.864  0.5712 -0.8124  0.3171
30882SOL    HW199507   8.099   5.009  11.796 -1.1797  1.6107  1.1101
30882SOL    HW299508   8.157   4.955  11.925 -1.9983 -0.3952  0.6896
30883SOL     OW99509   9.160   9.475   8.915  0.4734  0.0788 -0.3912
30883SOL    HW199510   9.089   9.535   8.938  1.3600  0.1699  2.4189
30883SOL    HW299511   9.129   9.390   8.943  0.4077 -0.3595 -1.7120
30884SOL     OW99512   2.914   5.591  12.330 -0.3232 -0.2581 -0.0860
30884SOL    HW199513   2.991   5.622  12.377 -0.3586  1.2512 -0.9514
30884SOL    HW299514   2.941   5.590  12.238 -0.4040 -2.6730 -0.1368
30885SOL     OW99515   4.184   3.440   3.627  0.2728  0.0402  0.0138
30885SOL    HW199516   4.160   3.364   3.574  0.7833  0.7866 -1.3304
30885SOL    HW299517   4.266   3.414   3.670  0.5768 -0.0777 -0.6309
30886SOL     OW99518   5.948  11.881   8.962  0.2328  0.3625  0.0503
30886SOL    HW199519   5.857  11.854   8.972 -0.1257  1.3275 -0.4758
30886SOL    HW299520   5.960  11.948   9.029 -0.1608  1.9378 -1.4029
30887SOL     OW99521   5.600   6.685   3.308  0.0143 -0.5746  0.4311
30887SOL    HW199522   5.574   6.775   3.329  1.8930 -0.4184  2.3453
30887SOL    HW299523   5.578   6.635   3.387 -2.4656 -2.2158 -1.1493
30888SOL     OW99524   6.381   2.153   4.162  0.8972  0.3777 -0.3427
30888SOL    HW199525   6.465   2.135   4.204  1.9677  2.3073 -1.5168
30888SOL    HW299526   6.396   2.234   4.112 -1.4741  0.4090 -1.1155
30889SOL     OW99527   3.399   1.582   4.872  0.8376  0.8128  0.0701
30889SOL    HW199528   3.446   1.504   4.902  2.3586  1.2310 -1.0899
30889SOL    HW299529   3.428   1.651   4.930 -0.9307  0.4509  1.4452
30890SOL     OW99530  10.940   1.827  11.234 -0.1526 -0.3620 -0.4101
30890SOL    HW199531  10.944   1.733  11.214  0.1562 -0.4608  0.0996
30890SOL    HW299532  10.892   1.865  11.160  0.1071 -0.8564 -0.8382
30891SOL     OW99533  11.629  10.297   5.825  0.1033  0.0927 -0.3075
30891SOL    HW199534  11.639  10.370   5.886  1.2588  1.2919 -1.8331
30891SOL    HW299535  11.595  10.338   5.745  1.8168 -0.8121 -1.5670
30892SOL     OW99536   6.079   7.973   0.011  0.2051 -0.3387 -1.0559
30892SOL    HW199537   6.128   7.999  -0.067 -2.6003  1.8379 -2.3139
30892SOL    HW299538   6.030   7.896  -0.017 -0.7583  0.4091 -1.5492
30893SOL     OW99539   8.573  10.339  12.471 -0.2768 -0.1480  0.3924
30893SOL    HW199540   8.559  10.260  12.523  0.6495 -0.1192  0.6981
30893SOL    HW299541   8.594  10.307  12.383  1.2365 -0.3014  0.7801
30894SOL     OW99542   2.310   5.388   2.755 -0.9247 -0.0764  0.5623
30894SOL    HW199543   2.246   5.317   2.752  0.5524 -1.4448 -1.2538
30894SOL    HW299544   2.392   5.347   2.727 -0.0021  2.3325 -0.5083
30895SOL     OW99545   0.032   5.908  11.698 -0.3551 -0.0233  0.4240
30895SOL    HW199546   0.001   5.840  11.638  0.4696 -1.6234  1.7022
30895SOL    HW299547   0.037   5.987  11.645  0.0998 -1.3041 -1.5420
30896SOL     OW99548   6.573   7.526   4.507  0.2194 -0.3973 -0.5845
30896SOL    HW199549   6.645   7.578   4.470 -0.6582 -0.0624 -1.8837
30896SOL    HW299550   6.557   7.566   4.593  1.4049 -0.3321 -0.3663
30897SOL     OW99551   5.999   6.368   4.154 -0.0189 -0.1306 -0.1301
30897SOL    HW199552   6.087   6.348   4.124 -0.1825 -2.5273  0.7388
30897SOL    HW299553   5.967   6.435   4.094  2.7529  1.6552  0.2163
30898SOL     OW99554  10.272   4.303  10.127  0.0551 -0.0819 -0.1719
30898SOL    HW199555  10.193   4.276  10.174  0.0603  0.5224  0.1806
30898SOL    HW299556  10.263   4.262  10.041 -0.8180  0.2657 -0.2544
30899SOL     OW99557   5.173   5.724   0.484 -0.4254 -0.0103  0.0584
30899SOL    HW199558   5.201   5.642   0.525  1.2808 -0.1447 -1.2696
30899SOL    HW299559   5.213   5.793   0.535  2.6654 -0.1994 -1.8646
30900SOL     OW99560   9.758   5.917   6.313 -0.0699 -0.1907 -0.1340
30900SOL    HW199561   9.693   5.968   6.362 -0.0376  0.3087 -0.6102
30900SOL    HW299562   9.842   5.959   6.333 -0.0167 -0.1983 -0.3400
30901SOL     OW99563   4.702   8.160   9.671  0.1484  0.0518 -0.6443
30901SOL    HW199564   4.679   8.236   9.724  1.7430  0.9035 -1.0985
30901SOL    HW299565   4.696   8.191   9.581  0.3608 -0.4890 -0.8475
30902SOL     OW99566   4.115   1.282   7.484  0.1541  0.6415 -0.5521
30902SOL    HW199567   4.121   1.190   7.508  1.3687  0.7192 -0.5049
30902SOL    HW299568   4.052   1.284   7.412  0.5037 -0.2976 -0.8963
30903SOL     OW99569   3.645   7.128   9.938 -0.5539 -0.4141  0.1347
30903SOL    HW199570   3.712   7.189   9.910 -0.2435 -0.7733  0.0866
30903SOL    HW299571   3.616   7.161  10.023  0.4804 -0.8810  0.6873
30904SOL     OW99572   9.856   6.266   1.615  0.3417  0.2722  0.2492
30904SOL    HW199573   9.863   6.170   1.616  0.0263  0.2527  0.9720
30904SOL    HW299574   9.934   6.296   1.661  0.3960  0.3633  0.0982
30905SOL     OW99575   2.436   8.999   1.314 -0.0942 -0.1913  0.5560
30905SOL    HW199576   2.460   8.997   1.222  0.4177  0.2092  0.6783
30905SOL    HW299577   2.489   8.930   1.354  1.3771  1.1018  0.9374
30906SOL     OW99578   3.216   4.742   5.362 -0.9176 -0.6260  0.0267
30906SOL    HW199579   3.262   4.794   5.428  0.3864  0.1736 -1.4433
30906SOL    HW299580   3.190   4.805   5.295 -0.6180 -1.6266 -1.0723
30907SOL     OW99581   6.475  10.017   4.672 -0.6686  0.9266 -0.2181
30907SOL    HW199582   6.493   9.966   4.593  0.4515 -0.3714  0.8357
30907SOL    HW299583   6.560  10.051   4.699 -0.6589 -0.4517  1.6146
30908SOL     OW99584   1.621   3.954   8.720  0.4417  0.3020  0.0548
30908SOL    HW199585   1.618   3.896   8.644  0.6666 -1.2425  1.1742
30908SOL    HW299586   1.714   3.970   8.735  0.3605  1.9845 -0.9501
30909SOL     OW99587   3.542   8.098   3.410 -0.3682  0.3677  0.0246
30909SOL    HW199588   3.510   8.151   3.337  0.3772 -0.2639 -0.7896
30909SOL    HW299589   3.477   8.029   3.420 -0.6290  0.6292  0.1757
30910SOL     OW99590   5.470   9.776   8.443 -0.3696 -0.0578 -0.1832
30910SOL    HW199591   5.406   9.732   8.499 -2.3289  2.0320 -0.6396
30910SOL    HW299592   5.431   9.773   8.356  0.8047  0.1173 -0.7301
30911SOL     OW99593  11.615   7.303   2.078  0.1295 -0.2317 -0.0296
30911SOL    HW199594  11.708   7.278   2.073 -0.1466 -1.4117  0.3690
30911SOL    HW299595  11.570   7.222   2.103 -1.1115  0.1366 -0.9997
30912SOL     OW99596  11.530   2.536   6.022  0.2836 -0.4752  0.5253
30912SOL    HW199597  11.453   2.529   6.079 -1.7559  1.2088 -1.8521
30912SOL    HW299598  11.535   2.628   5.997  1.1208 -1.1004 -1.9487
30913SOL     OW99599   1.100   0.737  11.303  0.0547 -0.2242 -0.0845
30913SOL    HW199600   1.008   0.757  11.288  0.1800  0.0168 -0.5500
30913SOL    HW299601   1.141   0.822  11.318  0.0271 -0.4148  1.1398
30914SOL     OW99602   7.949  11.005  12.236 -0.0117 -0.0624 -0.3070
30914SOL    HW199603   7.984  11.062  12.305 -0.1523 -1.5484  1.0438
30914SOL    HW299604   8.006  10.927  12.239 -1.5225 -1.1984 -0.1732
30915SOL     OW99605  11.546   7.963   1.857 -0.0907 -0.2079  0.5620
30915SOL    HW199606  11.607   7.890   1.845 -0.1385 -0.0326 -0.8337
30915SOL    HW299607  11.586   8.037   1.813 -1.1939 -0.0400 -0.2211
30916SOL     OW99608   2.668   0.268  11.271 -0.1986 -0.1438  0.1748
30916SOL    HW199609   2.574   0.281  11.259  0.0854 -0.0065 -2.3313
30916SOL    HW299610   2.691   0.201  11.207  1.3455 -0.5550  1.1152
30917SOL     OW99611  10.854   8.336   4.875  0.1768 -0.0316 -0.0852
30917SOL    HW199612  10.861   8.424   4.840 -0.7439  0.6797  1.4156
30917SOL    HW299613  10.933   8.324   4.927  0.3614 -0.1407 -0.3901
30918SOL     OW99614   0.783   3.110   1.322  0.3104  0.3878 -0.0318
30918SOL    HW199615   0.847   3.077   1.259 -0.7349 -0.5054 -0.6484
30918SOL    HW299616   0.705   3.129   1.271 -0.0686  1.0579  0.7745
30919SOL     OW99617  11.287  10.658  11.160  0.0297  0.4717 -0.4536
30919SOL    HW199618  11.214  10.634  11.103  2.0773  0.0466 -3.0805
30919SOL    HW299619  11.263  10.623  11.245 -2.0181 -1.2567 -1.6278
30920SOL     OW99620   6.968   8.945  11.445  0.1470 -0.3572 -0.5555
30920SOL    HW199621   6.880   8.982  11.443  0.4700  0.4246 -0.7311
30920SOL    HW299622   6.956   8.857  11.482 -0.9850 -1.0908 -2.5298
30921SOL     OW99623   2.042   9.610  12.090  0.0339  0.3534  0.2550
30921SOL    HW199624   1.950   9.591  12.110  0.4582 -1.3801  0.6670
30921SOL    HW299625   2.091   9.540  12.132  1.5826  1.3345  0.1766
30922SOL     OW99626   0.859   0.441   3.116  0.1141  0.9571  0.0594
30922SOL    HW199627   0.916   0.463   3.190 -0.5815  0.1442  0.8582
30922SOL    HW299628   0.920   0.414   3.047  0.8012  2.3108  0.1095
30923SOL     OW99629   4.568   4.415  11.651 -0.1254  0.0357  0.5028
30923SOL    HW199630   4.557   4.346  11.584  0.7446 -1.6186  1.9792
30923SOL    HW299631   4.552   4.497  11.604  1.7583 -0.9569 -2.0597
30924SOL     OW99632  10.404   4.551   6.780 -0.4308 -0.1385 -0.2581
30924SOL    HW199633  10.439   4.463   6.793 -1.3030 -0.9111 -2.6076
30924SOL    HW299634  10.480   4.609   6.786  0.1380 -1.0047  1.4505
30925SOL     OW99635   4.702   6.624   2.803  0.8330  0.3990  0.0397
30925SOL    HW199636   4.640   6.578   2.748  1.3229  1.0555 -1.1004
30925SOL    HW299637   4.788   6.605   2.765  1.1494  1.2187  0.2941
30926SOL     OW99638   9.150   0.987   7.926  0.6563  0.1365  0.3009
30926SOL    HW199639   9.239   0.951   7.917  0.7773  0.9324 -3.2025
30926SOL    HW299640   9.109   0.933   7.993  3.1256 -1.6605  0.5014
30927SOL     OW99641   7.075   6.412  10.857 -0.0726  0.4453 -0.0935
30927SOL    HW199642   7.139   6.365  10.910 -0.5955  0.4266  0.5352
30927SOL    HW299643   6.998   6.418  10.913 -0.1292  1.7529 -0.2851
30928SOL     OW99644   3.894  10.785   4.837 -0.3115  0.3789 -0.1934
30928SOL    HW199645   3.972  10.840   4.836 -0.5418  0.9788  3.3826
30928SOL    HW299646   3.864  10.786   4.928 -2.4125 -2.8049 -0.6726
30929SOL     OW99647   7.119   5.788   2.830  0.0514  0.0307 -0.4638
30929SOL    HW199648   7.035   5.802   2.787 -0.6396 -0.9530  0.5077
30929SOL    HW299649   7.120   5.851   2.902 -0.1456 -0.3888 -0.0897
30930SOL     OW99650   3.180   6.086   9.759 -0.3782  0.0917 -0.9076
30930SOL    HW199651   3.149   6.159   9.705  1.0185  1.7317  0.3889
30930SOL    HW299652   3.185   6.012   9.698 -1.7527  1.0668 -2.2955
30931SOL     OW99653  10.242   7.787   3.979 -0.2686 -0.1984 -0.7574
30931SOL    HW199654  10.233   7.880   3.960 -0.5265  0.0406  0.4391
30931SOL    HW299655  10.190   7.774   4.058  0.0743 -1.2826 -0.6980
30932SOL     OW99656   4.932   5.761   9.813 -0.6203 -0.6498 -0.0883
30932SOL    HW199657   4.933   5.723   9.901 -0.4542  0.1892  0.2927
30932SOL    HW299658   4.840   5.768   9.790 -0.6445 -1.4155 -0.2273
30933SOL     OW99659   6.148   9.102   0.319  0.2280 -0.1303 -0.1281
30933SOL    HW199660   6.166   9.052   0.399  0.3572  0.0460 -0.0455
30933SOL    HW299661   6.166   9.041   0.248  1.8334  0.2247 -0.0713
30934SOL     OW99662   8.271   6.580   2.668  0.7533  0.0062 -0.3296
30934SOL    HW199663   8.294   6.673   2.665 -0.1615  0.2261 -1.3336
30934SOL    HW299664   8.340   6.540   2.720  1.3053  1.2092 -0.0938
30935SOL     OW99665   3.642   5.746   0.579 -0.1097 -0.2980  0.2666
30935SOL    HW199666   3.555   5.727   0.544 -0.3789 -0.1770  0.8481
30935SOL    HW299667   3.689   5.663   0.571 -0.5640 -0.6170  0.7369
30936SOL     OW99668   6.614  10.642   0.082 -0.2129  0.0071 -0.0680
30936SOL    HW199669   6.599  10.630  -0.012  1.5430 -3.0615 -0.0869
30936SOL    HW299670   6.691  10.699   0.087  0.6878 -1.1380 -0.5720
30937SOL     OW99671  12.241   8.988  11.890 -0.5804  0.9652  0.1282
30937SOL    HW199672  12.167   9.048  11.872 -0.6432  0.0779 -3.3741
30937SOL    HW299673  12.295   8.993  11.811  1.4451 -0.8097  1.2948
30938SOL     OW99674  11.457  11.121   7.081  0.3172  0.2310 -0.6813
30938SOL    HW199675  11.503  11.157   7.156 -0.2374 -2.1407  0.8962
30938SOL    HW299676  11.502  11.039   7.062 -0.7975 -0.1873 -1.6334
30939SOL     OW99677   7.580   9.278   0.901  0.2603 -0.4057  0.6336
30939SOL    HW199678   7.561   9.232   0.819 -0.2898  1.4971 -0.3510
30939SOL    HW299679   7.494   9.307   0.932  0.7656  2.1451 -0.1479
30940SOL     OW99680  10.164   4.254   5.045 -0.0112 -0.0950 -0.1487
30940SOL    HW199681  10.080   4.289   5.016  0.3413  1.3187  0.4688
30940SOL    HW299682  10.188   4.190   4.978 -0.8751  0.5538 -1.0977
30941SOL     OW99683   3.698   9.776   1.594 -0.3879  0.1741 -0.0328
30941SOL    HW199684   3.625   9.719   1.617  1.2519 -1.3176  1.8474
30941SOL    HW299685   3.739   9.734   1.518  0.6653 -1.1382  1.1951
30942SOL     OW99686   8.347   1.972   8.351  0.2818  0.4586  0.4823
30942SOL    HW199687   8.399   2.050   8.370  2.0747 -0.4692 -0.2851
30942SOL    HW299688   8.396   1.901   8.393 -1.0434 -0.3131  0.7477
30943SOL     OW99689  10.216   2.639   4.419  0.5014  0.0259 -0.3791
30943SOL    HW199690  10.278   2.641   4.346 -1.0195 -0.8534 -1.7570
30943SOL    HW299691  10.243   2.562   4.471 -1.1405 -2.2275 -2.6389
30944SOL     OW99692  12.093   9.684   2.375  0.7705 -0.3032  0.5170
30944SOL    HW199693  12.026   9.626   2.339 -0.0672  1.8194 -1.6509
30944SOL    HW299694  12.043   9.749   2.425  1.0565  1.5008 -1.4009
30945SOL     OW99695   2.331   2.193  10.031 -0.2415 -0.3520 -0.1577
30945SOL    HW199696   2.407   2.165   9.980  0.0811  0.1085  0.0590
30945SOL    HW299697   2.368   2.228  10.112 -0.4208  2.3816 -1.1277
30946SOL     OW99698   6.018  11.730   4.710 -0.2450 -0.2969 -0.8499
30946SOL    HW199699   6.049  11.789   4.640 -0.6945 -1.4235 -2.0377
30946SOL    HW299700   5.971  11.661   4.664  0.2481 -1.5949  0.5087
30947SOL     OW99701   6.958   6.716   8.246 -0.5977 -0.6256 -0.3286
30947SOL    HW199702   7.045   6.727   8.285  0.1798  0.0342 -2.1431
30947SOL    HW299703   6.919   6.803   8.253 -2.0437 -1.3659  2.3905
30948SOL     OW99704   7.633  11.039   8.483 -0.5842  0.7445 -0.0443
30948SOL    HW199705   7.653  10.955   8.523 -2.0377  0.4397  0.0926
30948SOL    HW299706   7.615  11.098   8.556  2.7576  1.9333  0.0362
30949SOL     OW99707  11.288   9.669   7.553  0.4258 -0.1947  0.0980
30949SOL    HW199708  11.346   9.610   7.601 -1.3915 -0.8392  1.6222
30949SOL    HW299709  11.231   9.707   7.620 -0.1998  1.2838 -1.1926
30950SOL     OW99710  10.959   5.802   5.759  0.3416  0.2392 -0.4033
30950SOL    HW199711  10.923   5.825   5.673  0.9300 -0.9813 -1.0025
30950SOL    HW299712  11.032   5.862   5.771 -0.2863  1.0170 -0.3270
30951SOL     OW99713  12.300  11.323   8.624  0.3246 -0.1198  0.0390
30951SOL    HW199714  12.257  11.238   8.624  0.7257 -0.3798 -1.9629
30951SOL    HW299715  12.269  11.366   8.704  0.7946 -2.4455  1.5669
30952SOL     OW99716   1.820   1.031   0.600 -0.2926  0.0368 -0.2473
30952SOL    HW199717   1.728   1.052   0.617  0.0057  0.0447  1.5984
30952SOL    HW299718   1.818   0.954   0.544 -1.4647 -0.8463  0.9521
30953SOL     OW99719   2.301   3.570   6.683  0.3085 -0.2265  0.8929
30953SOL    HW199720   2.348   3.569   6.599  0.1440 -0.4493  0.8045
30953SOL    HW299721   2.371   3.572   6.749  0.4367  0.3016  0.7497
30954SOL     OW99722   4.520   9.514   2.012 -0.5561  0.8309  0.0964
30954SOL    HW199723   4.558   9.590   1.968  0.7933  1.7206  2.6236
30954SOL    HW299724   4.432   9.543   2.037 -1.2636  0.3816 -1.7205
30955SOL     OW99725  12.354  10.044   7.567  0.1727  0.2445 -0.2483
30955SOL    HW199726  12.340  10.117   7.628 -0.2374  0.0768 -0.1311
30955SOL    HW299727  12.350  10.084   7.480 -0.6554  0.2789 -0.2059
30956SOL     OW99728   6.691   3.177   1.491  0.3089  0.0072  0.1659
30956SOL    HW199729   6.737   3.260   1.481 -0.8205  0.6761  0.2770
30956SOL    HW299730   6.748   3.124   1.546  2.0830 -0.1319 -1.7322
30957SOL     OW99731  10.654   9.213   7.540 -0.1162  0.2905 -0.8265
30957SOL    HW199732  10.571   9.259   7.547 -0.0515  0.1950  2.3210
30957SOL    HW299733  10.713   9.275   7.497 -1.4077  0.9297 -1.7105
30958SOL     OW99734   9.513  11.275   6.200 -0.5541  0.2886  0.6610
30958SOL    HW199735   9.526  11.183   6.224 -0.9808  0.7146  2.7883
30958SOL    HW299736   9.420  11.282   6.180 -0.5373  0.2794  0.5784
30959SOL     OW99737   3.347   7.279   3.316 -0.3741 -0.7621 -0.5657
30959SOL    HW199738   3.331   7.346   3.383  0.1480 -0.5267 -0.6751
30959SOL    HW299739   3.392   7.325   3.246 -0.0563 -1.2148 -0.6671
30960SOL     OW99740  11.731   2.437   2.583  0.4047  0.1304 -0.3724
30960SOL    HW199741  11.799   2.472   2.641 -0.8788  0.2692  1.1029
30960SOL    HW299742  11.754   2.345   2.571  0.8557  0.1802  0.1073
30961SOL     OW99743   9.594   6.408   7.626  0.3787  0.1351  0.1845
30961SOL    HW199744   9.532   6.364   7.684  0.6704 -0.7860 -0.1858
30961SOL    HW299745   9.556   6.494   7.610  0.3566  0.4582  1.8446
30962SOL     OW99746   7.130  11.460   3.027  0.3069  0.7384  0.0858
30962SOL    HW199747   7.057  11.405   3.053  0.2908  1.3523  1.4425
30962SOL    HW299748   7.100  11.549   3.043  0.3484  1.1743 -2.0381
30963SOL     OW99749   7.979   5.530  10.296 -0.2049 -0.4054  0.6640
30963SOL    HW199750   7.975   5.478  10.376 -0.7087 -2.4171 -0.6129
30963SOL    HW299751   8.070   5.523  10.267 -0.1829 -0.2374  0.6902
30964SOL     OW99752   6.262   0.472  11.555  0.1141  0.6692 -0.3517
30964SOL    HW199753   6.294   0.436  11.472 -0.5693  0.4676 -0.5345
30964SOL    HW299754   6.312   0.552  11.567  1.7172 -0.3351  0.0811
30965SOL     OW99755   5.783   8.306   5.076 -0.6321  0.1344 -0.1533
30965SOL    HW199756   5.812   8.343   4.993 -0.3733  1.0607  0.3360
30965SOL    HW299757   5.817   8.217   5.077  1.0692  0.7550 -0.1839
30966SOL     OW99758   9.316   7.896   6.030 -0.1352  0.0479 -0.2365
30966SOL    HW199759   9.400   7.853   6.047 -0.9142 -1.9488 -1.1210
30966SOL    HW299760   9.315   7.909   5.935 -0.7389  0.2756 -0.1996
30967SOL     OW99761   1.737   3.948   3.693 -0.1061  0.0012  0.6437
30967SOL    HW199762   1.805   3.939   3.626 -0.8848 -0.0529 -0.1589
30967SOL    HW299763   1.768   4.019   3.749  0.1814  0.6084 -0.2582
30968SOL     OW99764   3.057   0.620   3.073 -0.3014 -0.2842  0.0515
30968SOL    HW199765   3.142   0.664   3.065 -0.7639  0.3902 -1.3184
30968SOL    HW299766   3.047   0.572   2.991 -1.6671  0.4169 -0.2156
30969SOL     OW99767   2.589   6.280   6.906  0.2327  0.3630 -0.4996
30969SOL    HW199768   2.580   6.185   6.898  1.0921  0.3901 -2.5022
30969SOL    HW299769   2.673   6.292   6.951  1.1930  0.1356 -2.1537
30970SOL     OW99770  11.771  12.114   0.922 -0.0514  0.0641 -0.6592
30970SOL    HW199771  11.732  12.200   0.912 -0.7314  0.0083  1.1450
30970SOL    HW299772  11.700  12.059   0.955  0.8420 -0.7258  0.0043
30971SOL     OW99773   6.977   2.260   1.069 -0.1348  0.0073  0.0993
30971SOL    HW199774   6.969   2.289   1.160  0.0849  2.3887 -0.5777
30971SOL    HW299775   7.064   2.290   1.042 -0.0101 -1.0871 -0.7750
30972SOL     OW99776   8.202   4.375   4.152 -0.0767  0.0617 -0.9618
30972SOL    HW199777   8.188   4.313   4.224 -0.6851 -0.1526 -1.2516
30972SOL    HW299778   8.181   4.460   4.189  3.8055  0.6290  0.3980
30973SOL     OW99779  12.303   2.284   4.166 -0.3552 -0.3970 -0.5907
30973SOL    HW199780  12.354   2.289   4.247  0.3429  1.5089 -1.0890
30973SOL    HW299781  12.357   2.233   4.107 -0.1403 -0.4470 -0.3536
30974SOL     OW99782   4.144  11.336  11.615  0.2833  0.6296  0.7229
30974SOL    HW199783   4.092  11.378  11.546  0.6328  0.0005  0.0633
30974SOL    HW299784   4.230  11.323  11.576 -0.5638 -3.4916 -0.3410
30975SOL     OW99785  11.967   4.655   0.279  0.0299  0.0524 -0.4325
30975SOL    HW199786  11.881   4.663   0.319  0.0124  2.1613 -0.7661
30975SOL    HW299787  11.978   4.736   0.229  2.5671  0.2448  0.3081
30976SOL     OW99788   9.582   9.404   1.154  0.3609  0.0568 -0.3703
30976SOL    HW199789   9.590   9.378   1.246 -0.2516  0.8011 -0.0907
30976SOL    HW299790   9.594   9.323   1.105  0.8670 -0.3204  0.3602
30977SOL     OW99791   6.576   7.198  10.437  0.9494 -0.0509  0.7154
30977SOL    HW199792   6.603   7.203  10.529  0.3181 -1.0550  0.9773
30977SOL    HW299793   6.631   7.128  10.401  0.2680 -0.5792  0.6848
30978SOL     OW99794   7.968   0.514  10.440 -0.1188 -0.0870 -0.0610
30978SOL    HW199795   7.980   0.591  10.496 -3.3012 -1.2371  2.5300
30978SOL    HW299796   7.910   0.545  10.370 -0.0823  0.2570  0.0564
30979SOL     OW99797   2.481   8.278   6.521  0.4441  0.0445 -0.0851
30979SOL    HW199798   2.474   8.362   6.565  1.4625 -0.5450  1.2707
30979SOL    HW299799   2.570   8.249   6.538 -0.1562 -1.7357  0.2922
30980SOL     OW99800  12.223   6.985   3.009  0.4880 -0.0786  0.0421
30980SOL    HW199801  12.145   7.041   3.000 -0.1793 -0.8539  0.8755
30980SOL    HW299802  12.218   6.926   2.934  0.0666 -0.3597  0.2835
30981SOL     OW99803   0.245   9.971   9.411 -0.2787 -0.3733 -0.7944
30981SOL    HW199804   0.309  10.042   9.415 -1.1401  0.4582 -1.1309
30981SOL    HW299805   0.251   9.938   9.321 -0.4023 -0.2035 -0.8670
30982SOL     OW99806   8.879   2.256   8.308  0.7046 -0.0464 -0.2852
30982SOL    HW199807   8.822   2.179   8.312 -0.6371  0.8854 -0.9135
30982SOL    HW299808   8.897   2.267   8.214  1.0313  0.3179 -0.1821
30983SOL     OW99809   3.744   1.177  10.420 -0.1793  0.0127  0.2352
30983SOL    HW199810   3.835   1.147  10.421  1.0019  3.2055  0.9609
30983SOL    HW299811   3.706   1.144  10.501  1.5533  1.7058  1.8324
30984SOL     OW99812   9.095   1.857   1.634  0.1460  0.0080  0.8806
30984SOL    HW199813   9.078   1.765   1.613  2.4691 -0.1260 -0.7463
30984SOL    HW299814   9.103   1.900   1.549 -1.3510  1.8785  1.5922
30985SOL     OW99815   6.936   6.283   3.778 -0.0205  0.0665  0.0033
30985SOL    HW199816   6.910   6.199   3.814  2.7786  0.0480  2.2672
30985SOL    HW299817   6.929   6.272   3.683 -0.8663 -2.2838  0.2902
30986SOL     OW99818  12.249   7.136   2.710  0.4777 -0.2699 -0.3117
30986SOL    HW199819  12.254   7.051   2.754  2.0880  0.5500  1.2138
30986SOL    HW299820  12.329   7.142   2.658  0.1006  0.0982 -0.8638
30987SOL     OW99821   9.086  11.324   0.352  0.4964  0.2367 -0.8064
30987SOL    HW199822   9.174  11.360   0.342 -0.2660  2.7673  0.4973
30987SOL    HW299823   9.036  11.363   0.280  0.0982  0.1667 -0.5704
30988SOL     OW99824  10.477   0.371   8.980  0.5021  1.0466  0.2791
30988SOL    HW199825  10.429   0.405   9.055 -2.1205  2.0736 -1.7274
30988SOL    HW299826  10.490   0.278   9.001 -1.0122  1.0826  1.5829
30989SOL     OW99827  10.137  10.851   6.004  0.2919 -0.3725  0.1607
30989SOL    HW199828  10.045  10.856   6.029  0.2836 -0.0828  0.0691
30989SOL    HW299829  10.185  10.844   6.087  0.2725  0.6754  0.2720
30990SOL     OW99830  10.339   5.037   3.177  0.3035 -0.0351  0.1333
30990SOL    HW199831  10.406   4.980   3.139 -1.0984 -0.2854 -2.0982
30990SOL    HW299832  10.348   5.120   3.130  0.7138  0.8545  1.6712
30991SOL     OW99833   9.776   7.021   0.949  0.0325 -0.4754  0.0267
30991SOL    HW199834   9.807   6.932   0.937  0.5410 -0.6816  2.5245
30991SOL    HW299835   9.855   7.074   0.954 -0.2453  0.0103 -0.5009
30992SOL     OW99836   8.368   5.599   3.247 -0.4873 -0.0451 -0.2235
30992SOL    HW199837   8.459   5.610   3.274 -1.1448  0.1810  2.1051
30992SOL    HW299838   8.363   5.642   3.162  1.8565 -1.2318 -1.0519
30993SOL     OW99839   4.973   7.299   6.855 -0.3177  0.9257 -0.3439
30993SOL    HW199840   4.942   7.300   6.945  1.3023  2.0379  0.2621
30993SOL    HW299841   4.980   7.392   6.832  0.1635  0.6675 -1.2848
30994SOL     OW99842   5.167  11.862   3.245 -0.0159 -0.1491 -0.1529
30994SOL    HW199843   5.223  11.787   3.262  1.5816  0.9271 -0.4700
30994SOL    HW299844   5.215  11.937   3.282  0.5770  1.3590 -3.5819
30995SOL     OW99845   0.459   3.874  10.841 -0.1368  0.0408  0.8258
30995SOL    HW199846   0.463   3.936  10.914 -0.4079 -0.3037  1.1344
30995SOL    HW299847   0.542   3.827  10.845 -0.4787 -0.5337  1.4117
30996SOL     OW99848   5.875   5.875   0.913  0.1985  0.0826  0.2225
30996SOL    HW199849   5.885   5.780   0.918  2.0787  0.3197  2.7158
30996SOL    HW299850   5.918   5.900   0.832  2.1660 -0.9876  0.8823
30997SOL     OW99851   3.912  11.217   2.308  0.1491  0.0707 -0.1654
30997SOL    HW199852   3.841  11.183   2.253  0.6210  1.3504 -1.6570
30997SOL    HW299853   3.874  11.292   2.353  0.7183  1.2640 -1.5936
30998SOL     OW99854  11.775   1.344   3.330 -0.1698 -0.0390  0.2862
30998SOL    HW199855  11.718   1.386   3.266 -0.0174  0.4551  0.4723
30998SOL    HW299856  11.715   1.298   3.389 -0.4148  0.9683  0.8323
30999SOL     OW99857   5.136  10.434   6.002  0.1855  0.2132  0.3791
30999SOL    HW199858   5.040  10.431   5.994  0.0965 -0.2526  1.3886
30999SOL    HW299859   5.166  10.474   5.921 -0.7478 -1.1218 -0.6603
31000SOL     OW99860   3.115   8.837   2.666  0.0626  0.0972  0.4008
31000SOL    HW199861   3.145   8.807   2.580  0.3191 -1.3774  0.9705
31000SOL    HW299862   3.071   8.760   2.704 -2.0848  1.3890  0.6920
31001SOL     OW99863  12.017   8.290   0.243  0.6350 -0.2024  0.6685
31001SOL    HW199864  12.063   8.214   0.208  0.4863  0.2290 -0.5257
31001SOL    HW299865  12.084   8.338   0.291  1.5534  0.5113 -1.2074
31002SOL     OW99866   4.176   7.572   7.882 -0.4501  0.0960  0.7343
31002SOL    HW199867   4.090   7.532   7.872  0.3430 -1.6532  0.5749
31002SOL    HW299868   4.198   7.603   7.794  0.0352 -1.5519  0.2401
31003SOL     OW99869   2.557   7.914   6.239 -0.3988  0.3238 -0.1103
31003SOL    HW199870   2.616   7.889   6.311 -0.4664  1.0688  0.2111
31003SOL    HW299871   2.470   7.914   6.279 -0.3157  1.8558  0.1162
31004SOL     OW99872   7.703  12.403   7.457 -0.0511 -0.4628 -0.0036
31004SOL    HW199873   7.765  12.417   7.528 -1.3829  1.3845  0.8929
31004SOL    HW299874   7.619  12.386   7.501 -0.5969 -0.7848 -1.1344
31005SOL     OW99875   0.379   5.962   0.240 -0.2575  0.2616  0.1876
31005SOL    HW199876   0.334   5.892   0.285 -0.1135 -0.0793 -0.1924
31005SOL    HW299877   0.442   5.996   0.304  0.4901 -0.7304 -0.0024
31006SOL     OW99878   1.525   5.853   9.647  0.4231  0.0397 -0.3232
31006SOL    HW199879   1.468   5.789   9.605  0.1483 -1.1634  1.7472
31006SOL    HW299880   1.525   5.928   9.588 -0.9724 -1.0479 -1.7722
31007SOL     OW99881  11.288   2.503   0.848 -0.3316 -0.2870  0.4848
31007SOL    HW199882  11.284   2.526   0.941 -1.9639 -0.7476  0.5615
31007SOL    HW299883  11.317   2.583   0.805 -3.4034  1.2843  1.0042
31008SOL     OW99884   7.810   0.538   0.389 -0.2300  0.1172  0.0695
31008SOL    HW199885   7.787   0.526   0.297  0.5044 -0.7017 -0.0254
31008SOL    HW299886   7.898   0.500   0.397 -0.1504  0.4633  1.0410
31009SOL     OW99887   9.334   7.870   5.154  0.3784 -0.1175  0.3520
31009SOL    HW199888   9.362   7.792   5.106  0.8303  0.1881  0.1156
31009SOL    HW299889   9.391   7.873   5.230  0.4085  0.0275  0.3225
31010SOL     OW99890  11.170   7.252   5.767 -0.0689  0.6610 -0.1811
31010SOL    HW199891  11.244   7.193   5.780 -0.6081  0.3463  1.7369
31010SOL    HW299892  11.210   7.337   5.748  0.7457  0.2887 -0.1756
31011SOL     OW99893   8.403   2.282   0.815 -0.1020 -0.0557 -0.3310
31011SOL    HW199894   8.437   2.369   0.796  1.0940 -0.0818  1.4270
31011SOL    HW299895   8.469   2.222   0.780 -0.3897 -0.2290 -0.5797
31012SOL     OW99896  12.166   7.275   6.456  0.3558 -0.0823 -0.3694
31012SOL    HW199897  12.073   7.271   6.433  0.1649 -0.9707  0.5160
31012SOL    HW299898  12.200   7.346   6.403 -0.7931  0.1305 -0.8527
31013SOL     OW99899   4.208   3.279   4.939 -0.0970  0.2009  0.1495
31013SOL    HW199900   4.177   3.331   5.014 -0.0504 -1.0635  1.0684
31013SOL    HW299901   4.228   3.345   4.872  0.9109  1.4713  1.6030
31014SOL     OW99902   7.736   7.822   4.247 -0.1635  0.3811 -0.3116
31014SOL    HW199903   7.651   7.779   4.242  0.1848 -0.2353 -1.1733
31014SOL    HW299904   7.755   7.849   4.157  0.9852 -0.3670 -0.3213
31015SOL     OW99905   6.192   4.101   8.837  0.1138  0.2507  0.8252
31015SOL    HW199906   6.161   4.036   8.774 -3.4756  0.6493  1.9605
31015SOL    HW299907   6.265   4.059   8.881  0.6238 -1.2836 -1.3182
31016SOL     OW99908   0.114   5.054   2.270 -0.2778 -0.3972 -0.7931
31016SOL    HW199909   0.167   4.990   2.317  0.7514 -0.1036 -1.5261
31016SOL    HW299910   0.103   5.126   2.332 -1.6166 -1.3414  0.1087
31017SOL     OW99911  10.203  11.019   2.865 -0.3920  0.3475 -0.0881
31017SOL    HW199912  10.234  10.970   2.942 -2.2606  0.7970  1.0134
31017SOL    HW299913  10.283  11.057   2.828  0.4064  2.8775  3.5902
31018SOL     OW99914   4.886  11.330   5.692  0.5574 -0.2724  0.3531
31018SOL    HW199915   4.837  11.347   5.772  0.0902  1.9884 -0.3591
31018SOL    HW299916   4.827  11.276   5.639  0.6047 -1.2144  1.2174
31019SOL     OW99917   8.925   7.417   3.893 -0.0198  0.1981 -0.1652
31019SOL    HW199918   8.881   7.445   3.813 -0.6454 -0.4543 -0.0640
31019SOL    HW299919   8.978   7.492   3.919 -1.4748  1.2246 -0.0191
31020SOL     OW99920   3.919   8.170   5.001 -0.1411 -0.1913  1.0334
31020SOL    HW199921   3.836   8.214   5.019 -1.4564 -2.1846  0.0507
31020SOL    HW299922   3.969   8.234   4.950 -2.3215 -0.0759 -1.1091
31021SOL     OW99923   0.668   5.342   6.067  0.3016 -0.1288  0.1880
31021SOL    HW199924   0.638   5.339   6.158 -1.0125 -1.3087 -0.2448
31021SOL    HW299925   0.660   5.434   6.042  0.0347  0.0940  1.0548
31022SOL     OW99926   8.120  12.247   3.147 -0.0884  0.6673 -0.4547
31022SOL    HW199927   8.071  12.165   3.155 -1.0463  1.2917  0.3174
31022SOL    HW299928   8.196  12.234   3.203 -0.9515  0.7912  0.7962
31023SOL     OW99929   3.539  10.400  10.238 -0.2150  0.4492 -0.0574
31023SOL    HW199930   3.552  10.379  10.331  0.1377  1.4930  0.1513
31023SOL    HW299931   3.543  10.316  10.193  0.2263 -0.0081  0.8058
31024SOL     OW99932   2.918   6.051  10.982  0.2910  0.4132 -0.2790
31024SOL    HW199933   2.976   6.114  11.025  0.3826 -0.3447  0.7380
31024SOL    HW299934   2.830   6.079  11.007  0.3949 -0.9445  1.7656
31025SOL     OW99935   4.394   7.426   7.257  0.8009 -0.1742 -0.6342
31025SOL    HW199936   4.334   7.500   7.269  0.5610 -0.5181  0.3840
31025SOL    HW299937   4.477   7.457   7.295 -0.1251 -1.4901  2.8246
31026SOL     OW99938   1.788   5.486   0.687  0.3499  0.2122  0.1462
31026SOL    HW199939   1.853   5.534   0.738 -0.9881  1.8933  0.3624
31026SOL    HW299940   1.772   5.405   0.737  1.1154  0.5217  0.9068
31027SOL     OW99941   8.302   1.835  12.212 -0.1271  0.3430 -0.0182
31027SOL    HW199942   8.250   1.910  12.243 -0.3450  1.0205 -1.8348
31027SOL    HW299943   8.261   1.759  12.253 -0.2713  1.1622  1.4195
31028SOL     OW99944   1.834   4.882   5.370 -0.3270 -0.2827 -0.1644
31028SOL    HW199945   1.924   4.900   5.344 -0.5326  0.3258 -0.4769
31028SOL    HW299946   1.807   4.808   5.315 -0.7426  0.9597 -1.7073
31029SOL     OW99947   9.302   7.160  11.091 -0.2590 -0.4336  0.1113
31029SOL    HW199948   9.231   7.096  11.100  1.3760 -2.1331  1.9530
31029SOL    HW299949   9.359   7.123  11.024 -1.4713  1.4228 -2.1061
31030SOL     OW99950   2.669   8.964  12.199 -0.3045 -0.1819  0.7930
31030SOL    HW199951   2.592   8.980  12.145 -1.4764  0.5859  2.5896
31030SOL    HW299952   2.665   8.871  12.219 -0.4979 -0.2427  0.4791
31031SOL     OW99953   1.300   1.038  10.963 -0.6514 -0.2769 -0.7543
31031SOL    HW199954   1.276   0.956  11.007 -0.6747  0.5260  0.8000
31031SOL    HW299955   1.216   1.078  10.939 -0.7714  0.5218  0.8788
31032SOL     OW99956   1.925   4.769   2.789  0.5365 -0.9340 -0.1138
31032SOL    HW199957   1.944   4.767   2.695  1.6744 -1.5694  0.1133
31032SOL    HW299958   1.832   4.790   2.794  0.4843 -0.7787 -1.3799
31033SOL     OW99959  10.510   3.584   1.282 -0.4859  0.2398  0.3510
31033SOL    HW199960  10.423   3.596   1.318 -0.3167 -0.8056  1.1487
31033SOL    HW299961  10.531   3.492   1.299  0.4263  0.2517 -0.5954
31034SOL     OW99962   1.968  10.749   1.651  0.3832 -0.4977 -0.5858
31034SOL    HW199963   1.926  10.663   1.651  0.7724 -0.7282  1.5757
31034SOL    HW299964   1.900  10.808   1.617 -0.1287 -1.5268 -1.4118
31035SOL     OW99965   3.029   6.616   3.349  0.5452 -0.8794  0.8051
31035SOL    HW199966   3.039   6.612   3.254 -0.0930 -0.5467  0.7164
31035SOL    HW299967   3.102   6.670   3.379  0.2085 -0.1777  0.3925
31036SOL     OW99968   8.638   5.870  10.016  0.5553 -0.1232  0.0493
31036SOL    HW199969   8.594   5.868   9.931  0.4353 -1.6758  0.1073
31036SOL    HW299970   8.726   5.902   9.997  0.0642  1.0107 -0.3950
31037SOL     OW99971   4.773  10.378   7.923  0.3932  0.5422  0.1842
31037SOL    HW199972   4.725  10.409   8.000  0.4031  0.0126  0.4150
31037SOL    HW299973   4.774  10.452   7.863  0.7437  1.0956  0.8623
31038SOL     OW99974   7.896   9.528   3.509 -0.1772 -0.0602  0.2522
31038SOL    HW199975   7.816   9.581   3.503  0.2006  0.4941  0.0152
31038SOL    HW299976   7.910   9.518   3.603  0.6791  1.7325  0.3667
31039SOL     OW99977   3.021   7.087   4.656  0.1724  0.0919 -0.4575
31039SOL    HW199978   3.107   7.078   4.696  0.7684  3.3392 -0.7279
31039SOL    HW299979   3.039   7.107   4.564 -0.6690  2.5680 -0.1822
31040SOL     OW99980   3.870   7.855   1.839 -0.2887 -0.1442  0.2413
31040SOL    HW199981   3.878   7.774   1.890 -0.2802  0.5750  1.4174
31040SOL    HW299982   3.803   7.835   1.773  0.2753 -1.3528 -0.0024
31041SOL     OW99983   0.892   9.180   6.007 -0.2813  0.0791  0.6445
31041SOL    HW199984   0.896   9.242   5.934  0.8690  0.8787  1.3453
31041SOL    HW299985   0.978   9.138   6.008 -0.5056 -0.3795  1.1358
31042SOL     OW99986   9.666   3.574   8.173  0.1602  0.2697 -0.2873
31042SOL    HW199987   9.637   3.632   8.102  0.9222 -0.8063 -1.5217
31042SOL    HW299988   9.701   3.496   8.128  0.2168 -0.6581  1.2843
31043SOL     OW99989  10.904   1.421   3.386 -0.3428  0.1618  0.5089
31043SOL    HW199990  10.847   1.351   3.352 -0.2001 -0.3833  1.3609
31043SOL    HW299991  10.969   1.374   3.439  0.9188  0.7644 -0.4457
31044SOL     OW99992   6.570   9.802   6.369  0.0120 -0.2715 -0.3381
31044SOL    HW199993   6.475   9.815   6.360  0.0778  0.1833 -0.3561
31044SOL    HW299994   6.608   9.851   6.297  0.3791  1.2061  0.8241
31045SOL     OW99995   8.751  11.787   8.753  0.0117  0.3043 -0.2778
31045SOL    HW199996   8.800  11.770   8.672 -0.3570  0.0523 -0.4528
31045SOL    HW299997   8.782  11.721   8.815  1.1827  1.2543  0.1851
31046SOL     OW99998   4.372   5.429   7.316  0.1685  0.2823 -0.1326
31046SOL    HW199999   4.305   5.463   7.375 -0.3569 -0.1906 -0.4422
31046SOL    HW2    0   4.349   5.337   7.304  0.5176  0.2653 -0.7375
31047SOL     OW    1   5.164   0.775   6.417  0.4206  0.0224  0.1509
31047SOL    HW1    2   5.192   0.861   6.448 -1.9622  1.2230 -0.7149
31047SOL    HW2    3   5.081   0.759   6.462 -0.2389 -0.8124 -1.2603
31048SOL     OW    4   0.079  10.705  11.555  0.2627 -0.5258 -0.0732
31048SOL    HW1    5   0.018  10.728  11.626  1.0779  0.4089  0.3359
31048SOL    HW2    6   0.023  10.700  11.477 -0.2478  1.0321  0.1621
31049SOL     OW    7   0.838   4.060   2.667 -0.0995  0.1089 -0.0054
31049SOL    HW1    8   0.798   4.124   2.726 -0.4307 -1.0141  1.0342
31049SOL    HW2    9   0.896   4.111   2.611 -0.8613  1.3982  0.3454
31050SOL     OW   10   0.299   7.280   2.247  0.5505  0.0885  0.2703
31050SOL    HW1   11   0.314   7.369   2.279  1.7873 -0.0839  0.2266
31050SOL    HW2   12   0.222   7.250   2.296 -0.0158  1.2393  0.1294
31051SOL     OW   13   3.478   9.948   3.228  0.3162 -0.5256  0.1489
31051SOL    HW1   14   3.531   9.929   3.151  0.0840 -0.2038 -0.0964
31051SOL    HW2   15   3.541   9.963   3.299  0.5477 -0.3194 -0.0990
31052SOL     OW   16   5.175  10.915  10.720  0.1202  0.2246 -0.6115
31052SOL    HW1   17   5.094  10.955  10.752 -0.8841 -0.7358 -1.8590
31052SOL    HW2   18   5.233  10.990  10.703 -1.2013  1.0986 -1.5294
31053SOL     OW   19   0.996  10.735   8.010  0.0037  0.3842 -0.2973
31053SOL    HW1   20   0.982  10.685   8.091 -0.4044 -0.6592 -0.9741
31053SOL    HW2   21   0.916  10.787   8.001 -0.6172 -0.6174 -0.7733
31054SOL     OW   22   3.011   9.689  12.257 -0.3216 -0.4019 -0.2277
31054SOL    HW1   23   2.950   9.665  12.327  0.0245  0.5907  0.4257
31054SOL    HW2   24   3.097   9.665  12.291  0.0091  1.4745  0.3404
31055SOL     OW   25   4.134  11.235   1.514 -0.2570  0.2289 -0.5089
31055SOL    HW1   26   4.145  11.157   1.568  1.4510 -0.8560 -2.2898
31055SOL    HW2   27   4.049  11.270   1.540 -0.6404 -1.6592  1.0406
31056SOL     OW   28   9.416   9.038   6.987 -0.4679  0.2531 -0.2794
31056SOL    HW1   29   9.323   9.056   7.001 -0.7325 -1.7879  1.1985
31056SOL    HW2   30   9.461   9.107   7.035 -1.2221  0.8844 -0.4558
31057SOL     OW   31   3.399   5.536   0.290  0.0757 -0.2523  0.4756
31057SOL    HW1   32   3.421   5.560   0.380  0.2569  0.2586  0.3018
31057SOL    HW2   33   3.418   5.442   0.284  0.7425 -0.1396  0.7710
31058SOL     OW   34  12.058  11.063   7.104  0.4870  0.0972  0.5844
31058SOL    HW1   35  11.998  11.016   7.162  0.3605 -1.0514 -0.4338
31058SOL    HW2   36  12.118  10.996   7.072  1.7608  1.0693  0.8673
31059SOL     OW   37   8.646  10.808  11.220  0.3958  0.5576  0.3742
31059SOL    HW1   38   8.683  10.873  11.162 -0.4067  0.4070 -0.3321
31059SOL    HW2   39   8.556  10.837  11.234  0.0471 -0.3502  0.1034
31060SOL     OW   40   5.492  10.516   1.488 -0.1137 -0.1286 -0.5945
31060SOL    HW1   41   5.496  10.439   1.545  0.2368  0.3372  0.0220
31060SOL    HW2   42   5.584  10.534   1.467 -0.2144 -0.0522 -0.9741
31061SOL     OW   43   1.255  11.844  10.419  0.1216 -0.1946  0.0059
31061SOL    HW1   44   1.303  11.818  10.498  1.9271  1.1048 -0.6063
31061SOL    HW2   45   1.258  11.766  10.363 -0.7833 -0.9756  0.9872
31062SOL     OW   46   5.389   7.710   3.446 -0.1108  0.1598  0.2839
31062SOL    HW1   47   5.386   7.657   3.367  0.0034  0.8274 -0.1712
31062SOL    HW2   48   5.479   7.703   3.477 -0.1995 -0.2431  0.4588
31063SOL     OW   49   5.520   7.316   3.042  0.3574  0.0503  0.5125
31063SOL    HW1   50   5.576   7.312   2.965 -0.9025 -2.1751 -0.3961
31063SOL    HW2   51   5.431   7.309   3.007 -0.2559 -0.7248  2.1229
31064SOL     OW   52   1.740  11.281  11.503 -0.2261 -0.0279 -0.3850
31064SOL    HW1   53   1.695  11.351  11.456 -1.4815 -1.5339 -1.5577
31064SOL    HW2   54   1.813  11.324  11.547 -1.4492  2.1321 -0.3415
31065SOL     OW   55   7.381   4.276   1.151 -0.2856  0.2861  1.0057
31065SOL    HW1   56   7.471   4.248   1.164 -0.1487 -0.6265 -1.4279
31065SOL    HW2   57   7.332   4.233   1.222  0.7190 -1.9646  0.4169
31066SOL     OW   58  10.355   6.147  11.182 -0.8950 -0.3421 -0.3581
31066SOL    HW1   59  10.396   6.225  11.220 -2.4214  0.1123  0.4479
31066SOL    HW2   60  10.424   6.108  11.128  0.2007  1.0355 -0.0341
31067SOL     OW   61   9.884  11.233   7.732 -0.2700 -0.0212 -0.2394
31067SOL    HW1   62   9.797  11.272   7.735  1.0026  3.1077  0.9683
31067SOL    HW2   63   9.910  11.240   7.641 -0.4386  1.2834 -0.2139
31068SOL     OW   64   3.957   4.906   3.951 -0.0652  0.0437 -0.5750
31068SOL    HW1   65   4.007   4.833   3.917 -0.4642  0.0873 -1.2920
31068SOL    HW2   66   3.956   4.970   3.879  0.4290  0.8343  0.0975
31069SOL     OW   67   4.272   5.485   3.907 -0.0216 -0.4721 -0.0163
31069SOL    HW1   68   4.177   5.470   3.908  0.3532 -3.5577  0.2634
31069SOL    HW2   69   4.298   5.475   3.816  0.2951 -2.1427  0.2305
31070SOL     OW   70   1.821   2.375  11.262  0.2149  0.0043  0.5244
31070SOL    HW1   71   1.831   2.468  11.282 -0.4954  0.6797 -1.9252
31070SOL    HW2   72   1.901   2.351  11.216 -0.2565 -0.1615 -0.2286
31071SOL     OW   73   7.088   1.277   9.188 -0.2070  0.7303  0.2161
31071SOL    HW1   74   7.177   1.312   9.189 -0.0849  0.4478 -0.5663
31071SOL    HW2   75   7.034   1.348   9.152 -0.2087  0.6785  0.1188
31072SOL     OW   76   9.124   8.590   2.744  0.3106  0.2524  0.3132
31072SOL    HW1   77   9.042   8.599   2.695  1.4413  0.1765 -1.7097
31072SOL    HW2   78   9.179   8.660   2.711  1.5658 -0.5857  0.5803
31073SOL     OW   79   5.667   7.559   5.050 -0.0493  0.3700  0.3393
31073SOL    HW1   80   5.717   7.641   5.058 -0.8932  1.0369 -0.8461
31073SOL    HW2   81   5.598   7.580   4.987 -1.2347 -0.8185  1.2142
31074SOL     OW   82   1.953   1.614   9.019  0.2417 -0.3646  0.0055
31074SOL    HW1   83   2.036   1.575   8.991  0.9055  2.0664 -1.7528
31074SOL    HW2   84   1.940   1.582   9.108  1.7621 -2.7774 -0.5402
31075SOL     OW   85   4.001   3.864   0.313  0.5368 -0.2261 -0.1167
31075SOL    HW1   86   3.922   3.815   0.334  0.5275  0.3566  1.3303
31075SOL    HW2   87   4.050   3.807   0.253  0.2338 -1.7201  1.0073
31076SOL     OW   88   5.725  10.525   2.054  0.0497  0.0986  0.4532
31076SOL    HW1   89   5.805  10.542   2.104  0.3010  0.2297  0.0147
31076SOL    HW2   90   5.682  10.610   2.047  0.5592  0.2990 -0.4659
31077SOL     OW   91   0.962   7.722   2.022 -0.0377 -0.4590  0.5451
31077SOL    HW1   92   0.958   7.627   2.027  0.4440 -0.4144  2.4284
31077SOL    HW2   93   1.025   7.740   1.953  0.1853 -1.5084  0.4662
31078SOL     OW   94  12.413   9.043   5.993  0.0461  0.2078  0.0825
31078SOL    HW1   95  12.361   8.992   6.055 -0.0256 -1.1316 -1.0218
31078SOL    HW2   96  12.376   9.021   5.907  1.1414  0.7928 -0.5618
31079SOL     OW   97   9.319  10.714   6.612 -0.0515 -0.2875 -0.2930
31079SOL    HW1   98   9.382  10.785   6.605  0.1473 -0.4399 -0.0778
31079SOL    HW2   99   9.370  10.635   6.595  0.3290 -0.6182  2.0577
31080SOL     OW  100   3.053   7.791  10.818 -0.2284  0.3898  0.3853
31080SOL    HW1  101   3.141   7.762  10.842  0.1443  0.8261 -0.4259
31080SOL    HW2  102   3.048   7.775  10.724 -0.5643  1.5114  0.2010
31081SOL     OW  103  11.423   1.596   1.891 -0.4011  0.5462  0.0196
31081SOL    HW1  104  11.460   1.646   1.819  0.1956  0.5656  0.3371
31081SOL    HW2  105  11.363   1.534   1.849 -0.9237  1.3128 -0.3966
31082SOL     OW  106  11.868   6.560   4.870 -0.5951  0.1290  0.3519
31082SOL    HW1  107  11.826   6.538   4.787 -0.6513  1.4401  0.0088
31082SOL    HW2  108  11.957   6.586   4.845 -0.3556 -0.2724  0.7950
31083SOL     OW  109   1.873   6.879  11.225  0.3219 -0.1491 -0.6664
31083SOL    HW1  110   1.958   6.843  11.199  0.2299 -0.0129 -1.1683
31083SOL    HW2  111   1.812   6.851  11.157 -0.2460 -1.0829  0.2003
31084SOL     OW  112  10.405   6.970  11.846 -0.8605  0.1325  0.8843
31084SOL    HW1  113  10.420   7.061  11.819 -0.3461 -0.1698  0.1329
31084SOL    HW2  114  10.326   6.944  11.799  0.3103 -0.5532 -0.7904
31085SOL     OW  115   9.805   1.244   9.102  0.0283  0.4122 -0.0850
31085SOL    HW1  116   9.758   1.166   9.132 -0.0905  0.1472 -0.9173
31085SOL    HW2  117   9.885   1.209   9.061  1.0331  0.8655  1.4340
31086SOL     OW  118  11.861  12.088   8.660 -0.4281  0.3638 -0.5432
31086SOL    HW1  119  11.876  12.013   8.716  0.4285 -0.2378 -1.5259
31086SOL    HW2  120  11.794  12.059   8.598  0.9591 -0.1778 -1.8725
31087SOL     OW  121  10.290  12.242   8.148 -0.2432  0.3140  0.7723
31087SOL    HW1  122  10.212  12.201   8.110 -0.2631 -0.0885  1.2489
31087SOL    HW2  123  10.269  12.336   8.148 -0.8644  0.1790  1.2053
31088SOL     OW  124   5.546   0.758   9.394  0.5818  0.0382 -0.3066
31088SOL    HW1  125   5.551   0.662   9.396 -2.3474 -0.2332 -1.4365
31088SOL    HW2  126   5.473   0.779   9.452  1.0942  1.6227 -0.1973
31089SOL     OW  127   0.808   7.914   2.749  0.2318  0.3195  0.0243
31089SOL    HW1  128   0.753   7.933   2.672  1.1334  1.2384 -0.4230
31089SOL    HW2  129   0.852   7.997   2.768  0.9025 -0.2037  0.8287
31090SOL     OW  130   1.315   3.171   6.129 -0.1029 -0.3105 -0.3933
31090SOL    HW1  131   1.342   3.098   6.183  1.7566  0.2158 -0.5611
31090SOL    HW2  132   1.368   3.164   6.050 -1.8368 -0.3183 -1.6124
31091SOL     OW  133   4.093  10.994   1.633 -0.0193  0.4226  0.2269
31091SOL    HW1  134   4.164  10.957   1.686  0.2435 -1.4254 -1.2891
31091SOL    HW2  135   4.015  10.983   1.687  0.1212 -2.1013  0.0458
31092SOL     OW  136   0.198   4.166   1.921 -0.0121 -0.3882  0.3374
31092SOL    HW1  137   0.203   4.213   2.004 -0.4281  0.2580  0.0080
31092SOL    HW2  138   0.210   4.234   1.854 -0.3521 -0.7918 -0.1459
31093SOL     OW  139   7.198   3.281   4.586  0.0928  0.0261 -0.6199
31093SOL    HW1  140   7.169   3.191   4.601 -0.2383  0.1593 -0.4498
31093SOL    HW2  141   7.123   3.323   4.543 -1.3563  1.2791  2.7770
31094SOL     OW  142   0.526   2.676   5.072 -0.4842 -0.0923 -0.7590
31094SOL    HW1  143   0.617   2.652   5.089 -0.0833  0.5365 -1.8634
31094SOL    HW2  144   0.499   2.725   5.149  0.0555 -0.4298 -0.3462
31095SOL     OW  145  10.242  10.477   0.154  0.1503 -0.2781 -0.3399
31095SOL    HW1  146  10.198  10.426   0.222 -0.1307 -4.8479 -3.4876
31095SOL    HW2  147  10.334  10.478   0.180 -0.3087  0.7024  1.4253
31096SOL     OW  148   3.040   0.241   9.866 -0.3851  0.1457  0.3373
31096SOL    HW1  149   3.019   0.333   9.853 -1.7323 -0.3648 -1.7069
31096SOL    HW2  150   3.016   0.223   9.957 -0.6121  1.6777  0.6046
31097SOL     OW  151   6.417   3.618   3.261  0.1246  0.7238 -0.1848
31097SOL    HW1  152   6.451   3.554   3.199 -1.6835  1.0329 -1.5657
31097SOL    HW2  153   6.366   3.567   3.324 -1.8321  0.7875 -1.6385
31098SOL     OW  154   7.153   7.690   9.481 -0.5757 -0.0254 -0.5279
31098SOL    HW1  155   7.194   7.606   9.461  0.4152 -0.0390  1.2752
31098SOL    HW2  156   7.064   7.668   9.508 -0.4805 -0.4491 -0.5531
31099SOL     OW  157  10.083   2.861  12.213 -0.7688 -0.2309 -0.3576
31099SOL    HW1  158  10.173   2.859  12.179  0.2706  0.2600  2.1072
31099SOL    HW2  159  10.046   2.777  12.187 -0.2503  0.2638 -2.9462
31100SOL     OW  160   6.962   2.538   9.794 -0.1779 -0.0588  0.0281
31100SOL    HW1  161   6.983   2.599   9.864  1.3268 -1.5406  0.9111
31100SOL    HW2  162   6.891   2.484   9.829 -0.4875  0.1933 -0.1971
31101SOL     OW  163   4.724   5.798  11.992  0.4401 -0.6530 -0.2876
31101SOL    HW1  164   4.771   5.771  12.071 -0.5846 -0.9203  0.2438
31101SOL    HW2  165   4.673   5.874  12.018  1.8525  0.7079 -1.3033
31102SOL     OW  166   4.837   0.751   3.157 -0.4256 -0.4501 -0.0155
31102SOL    HW1  167   4.889   0.701   3.094 -0.2717 -0.2886 -0.0168
31102SOL    HW2  168   4.789   0.685   3.206  1.5069 -0.7647  1.5566
31103SOL     OW  169   9.969   8.904  11.289  0.0295 -0.5032 -0.2593
31103SOL    HW1  170   9.930   8.874  11.207  0.1690 -0.0989 -0.4743
31103SOL    HW2  171  10.013   8.826  11.324  2.8401  0.0437 -2.2314
31104SOL     OW  172  10.576   7.583   2.371  0.0128  1.2178 -0.0328
31104SOL    HW1  173  10.663   7.571   2.332  0.9946  1.8422  1.8556
31104SOL    HW2  174  10.576   7.674   2.401 -0.3176  0.5457  2.1714
31105SOL     OW  175  11.396   1.572   0.688 -0.1481  0.0446  0.4246
31105SOL    HW1  176  11.314   1.522   0.688 -1.7654  2.5372  1.4785
31105SOL    HW2  177  11.405   1.603   0.779  0.5866  1.9192 -0.2470
31106SOL     OW  178   6.990   8.946   9.169 -0.1152  0.1605  0.2984
31106SOL    HW1  179   6.980   9.013   9.237 -0.1201  1.6819 -1.1413
31106SOL    HW2  180   7.084   8.932   9.162 -0.1808 -1.6277  2.0719
31107SOL     OW  181   2.379   3.875   7.663  0.0130  0.2496  0.0987
31107SOL    HW1  182   2.441   3.948   7.669 -0.4309  0.5534  1.1057
31107SOL    HW2  183   2.409   3.825   7.587  1.6192  0.2741  0.6828
31108SOL     OW  184   7.944   5.210   3.703 -0.5370  0.0706  0.1082
31108SOL    HW1  185   8.017   5.155   3.673 -0.9411 -0.0244 -0.7077
31108SOL    HW2  186   7.981   5.299   3.705 -0.8264  0.2778 -1.8788
31109SOL     OW  187   1.447   2.101  10.350 -0.6944  0.0852  0.5052
31109SOL    HW1  188   1.406   2.021  10.317 -1.5007 -1.3226  4.3733
31109SOL    HW2  189   1.536   2.099  10.314 -1.0382 -1.9459 -0.3819
31110SOL     OW  190  11.283   9.892   7.129  0.5316  0.3196  0.5977
31110SOL    HW1  191  11.344   9.819   7.116  0.6634  0.4122  0.6948
31110SOL    HW2  192  11.197   9.855   7.110  0.7725  0.6504 -1.3500
31111SOL     OW  193   9.465  10.930  11.741  0.3910  0.0062 -0.3143
31111SOL    HW1  194   9.449  10.840  11.714 -3.4253  0.7442 -1.0251
31111SOL    HW2  195   9.460  10.981  11.661  1.6779  1.0005  0.1955
31112SOL     OW  196  12.318   1.887   5.532  0.0148  0.8525 -0.2919
31112SOL    HW1  197  12.318   1.799   5.496 -2.5137  0.2011  1.0683
31112SOL    HW2  198  12.376   1.882   5.608 -0.3991  0.2406 -0.0070
31113SOL     OW  199   9.112   8.104   7.544  0.1564 -0.3638 -0.5570
31113SOL    HW1  200   9.144   8.022   7.583 -1.0531 -1.0933 -1.0326
31113SOL    HW2  201   9.056   8.075   7.472  0.1135  0.9129 -1.0454
31114SOL     OW  202   9.924   9.575   6.325 -0.2947 -0.2917 -0.3407
31114SOL    HW1  203   9.986   9.504   6.344 -0.2300  0.2078  1.5542
31114SOL    HW2  204   9.880   9.591   6.408 -0.0756  2.1063 -0.6094
31115SOL     OW  205   0.218   8.811   5.042 -0.5493 -0.0740 -0.1830
31115SOL    HW1  206   0.261   8.877   4.987 -1.8933  0.1149 -1.0578
31115SOL    HW2  207   0.124   8.831   5.033 -1.0065 -2.2503 -0.6842
31116SOL     OW  208   8.967   7.751   9.110 -0.0429  0.0592 -0.0142
31116SOL    HW1  209   8.920   7.798   9.041  1.0790  0.8510 -0.2784
31116SOL    HW2  210   9.040   7.809   9.133  1.0899 -1.3212  0.0204
31117SOL     OW  211  11.077   8.588   8.094  0.1549  0.1694 -0.4046
31117SOL    HW1  212  11.128   8.518   8.052 -0.2511  0.0064 -0.6344
31117SOL    HW2  213  11.040   8.638   8.021  1.0578  1.0901 -0.2424
31118SOL     OW  214   6.487   7.428   0.659  0.3783  0.3246 -0.0186
31118SOL    HW1  215   6.432   7.359   0.697  0.5169 -0.7097 -1.5937
31118SOL    HW2  216   6.425   7.482   0.609  0.7126 -0.7108 -1.6121
31119SOL     OW  217   8.932   6.192   2.253 -0.0110 -0.5506  0.2078
31119SOL    HW1  218   8.943   6.258   2.184  1.4158 -0.5963  0.3588
31119SOL    HW2  219   8.875   6.233   2.317 -0.8344 -0.2651 -0.6811
31120SOL     OW  220   8.215   3.571  11.105 -0.2923  0.3417  0.2220
31120SOL    HW1  221   8.144   3.518  11.069 -1.0590 -0.6118  2.9204
31120SOL    HW2  222   8.179   3.606  11.187  1.8240  1.1711  0.8512
31121SOL     OW  223  10.415   3.786   0.688 -0.1834 -0.2064  0.6334
31121SOL    HW1  224  10.346   3.833   0.735 -0.5049  0.0164 -0.0473
31121SOL    HW2  225  10.401   3.694   0.710  1.5952  0.0866  3.5067
31122SOL     OW  226   5.895   2.115   9.181 -0.2487  0.2565 -0.0123
31122SOL    HW1  227   5.815   2.150   9.219  0.2057  0.6603  0.5975
31122SOL    HW2  228   5.913   2.036   9.233 -0.4589 -0.0498 -0.4023
31123SOL     OW  229   1.569   2.135  12.132  0.2656  0.5024 -0.3829
31123SOL    HW1  230   1.568   2.176  12.219 -0.0046  1.1107 -0.6626
31123SOL    HW2  231   1.646   2.078  12.133  1.1225  1.6232 -0.2427
31124SOL     OW  232   6.490   0.151   1.935 -0.1153  0.2062 -0.0919
31124SOL    HW1  233   6.547   0.075   1.928 -0.1587  0.1481  0.1739
31124SOL    HW2  234   6.547   0.220   1.969 -0.3378 -0.0063  0.7219
31125SOL     OW  235   0.249   1.769   3.080 -0.2802  0.1394  0.3367
31125SOL    HW1  236   0.242   1.728   2.994 -0.7024  1.9285 -0.5418
31125SOL    HW2  237   0.312   1.715   3.128  1.3298  0.0779 -1.7019
31126SOL     OW  238   1.409   1.636   3.477 -0.4071 -0.3377 -0.5330
31126SOL    HW1  239   1.337   1.595   3.525 -0.7124  1.2323  0.4343
31126SOL    HW2  240   1.408   1.595   3.391 -0.6577 -2.3355  0.3834
31127SOL     OW  241   5.199   6.111  11.111 -0.0677  0.2654  0.1085
31127SOL    HW1  242   5.267   6.070  11.057  0.6033 -0.4317  1.4242
31127SOL    HW2  243   5.150   6.166  11.050 -0.4464 -1.7943 -1.5850
31128SOL     OW  244   3.338   7.189  10.973 -0.5680 -0.5735  0.2114
31128SOL    HW1  245   3.433   7.201  10.982 -0.5709 -0.8007  0.6094
31128SOL    HW2  246   3.307   7.270  10.934 -0.4441  0.2427  1.7184
31129SOL     OW  247   0.296   6.586  10.432  0.2055 -0.0300  0.1471
31129SOL    HW1  248   0.350   6.557  10.506  0.1002  2.2189  1.1910
31129SOL    HW2  249   0.335   6.544  10.356 -0.1179 -3.0394  1.5008
31130SOL     OW  250   7.563   6.587   9.540  0.3117 -0.7773  0.4198
31130SOL    HW1  251   7.469   6.588   9.523  0.6044 -2.4985 -1.7519
31130SOL    HW2  252   7.574   6.638   9.620 -2.3139  0.5895  0.0150
31131SOL     OW  253  11.579   4.090   7.307  0.2841  0.3300  0.4106
31131SOL    HW1  254  11.576   4.182   7.282 -0.7095  0.3171  0.4398
31131SOL    HW2  255  11.521   4.084   7.384  0.5469 -0.2650  0.5707
31132SOL     OW  256   4.999   0.124   9.501 -0.1495 -0.4569  0.0619
31132SOL    HW1  257   4.974   0.054   9.562  0.1734  0.8975  1.8487
31132SOL    HW2  258   4.972   0.204   9.545  0.3071  0.6061 -1.5201
31133SOL     OW  259   7.684   5.757   1.789 -0.2187 -0.2185  0.2032
31133SOL    HW1  260   7.591   5.748   1.810 -0.1138 -0.1053  0.7395
31133SOL    HW2  261   7.692   5.846   1.755 -0.3484 -0.3119 -0.0719
31134SOL     OW  262   7.284  10.116  11.344 -0.1503  0.3676  0.0293
31134SOL    HW1  263   7.359  10.112  11.286  0.3238 -0.5377  0.6823
31134SOL    HW2  264   7.320  10.107  11.432 -1.1181 -1.7094  0.2857
31135SOL     OW  265   6.421  11.844  12.303  0.2098  0.1374  0.4470
31135SOL    HW1  266   6.347  11.798  12.343  0.6842  0.1633  1.3786
31135SOL    HW2  267   6.482  11.775  12.277 -1.0068 -0.0692 -2.2797
31136SOL     OW  268   2.484  11.113  11.758 -0.1846  0.0841  0.1122
31136SOL    HW1  269   2.439  11.030  11.746 -0.4658  0.1136  0.8917
31136SOL    HW2  270   2.572  11.098  11.722 -0.0507 -0.7320  0.7590
31137SOL     OW  271   2.894   6.631   4.289 -0.0048  0.2413 -0.0805
31137SOL    HW1  272   2.917   6.646   4.197  0.7335 -0.0774  0.0401
31137SOL    HW2  273   2.964   6.574   4.322 -0.7613 -0.4310  0.4279
31138SOL     OW  274   5.663   2.693   8.727  0.0953 -0.2624 -1.0452
31138SOL    HW1  275   5.647   2.710   8.634 -0.3535  1.0628 -0.7430
31138SOL    HW2  276   5.751   2.728   8.743 -0.4933  1.0909 -0.6130
31139SOL     OW  277  10.802   7.718   1.666  0.0679 -0.2239 -0.1307
31139SOL    HW1  278  10.867   7.768   1.715  0.5309  1.2312 -2.0921
31139SOL    HW2  279  10.846   7.636   1.645  0.1549 -0.5113  1.1441
31140SOL     OW  280   0.155   5.255   5.105  0.2947 -0.2522  0.0331
31140SOL    HW1  281   0.154   5.276   5.198 -0.7074  1.2481 -0.2753
31140SOL    HW2  282   0.114   5.331   5.063 -0.8806 -1.6682 -1.4847
31141SOL     OW  283  12.424   3.070   7.152  0.4597 -0.0592  0.1845
31141SOL    HW1  284  12.422   3.035   7.241 -0.8785 -0.1098  0.1554
31141SOL    HW2  285  12.437   2.994   7.097  0.3009 -0.1556  0.2796
31142SOL     OW  286   5.144   1.865   9.116 -0.2363  0.1750 -0.1305
31142SOL    HW1  287   5.070   1.808   9.134 -0.1102  0.0264 -0.0847
31142SOL    HW2  288   5.170   1.844   9.026 -2.2307  2.4215 -1.3472
31143SOL     OW  289   9.650  11.350   7.750  0.5371 -0.4186  0.1293
31143SOL    HW1  290   9.646  11.422   7.686  1.4915  0.7012  1.2801
31143SOL    HW2  291   9.582  11.372   7.814 -0.3077 -1.4532 -0.3770
31144SOL     OW  292   2.866   2.410  10.844 -0.0061 -0.0949  0.0900
31144SOL    HW1  293   2.800   2.358  10.891 -0.3655  0.6820  0.4707
31144SOL    HW2  294   2.915   2.346  10.793 -0.7012 -0.7596  0.2287
31145SOL     OW  295  10.350   5.854   0.699 -0.3075 -0.2215 -0.6043
31145SOL    HW1  296  10.407   5.929   0.719 -1.2598 -0.1644  2.4079
31145SOL    HW2  297  10.270   5.871   0.749 -2.3511 -1.1565 -3.3354
31146SOL     OW  298  11.034   1.493   9.807  0.9118  0.0622  0.0969
31146SOL    HW1  299  11.025   1.403   9.839  0.7950  0.0866  0.1345
31146SOL    HW2  300  11.122   1.497   9.769  1.0413  0.0268  0.3931
31147SOL     OW  301  10.325   1.500   4.853 -0.0264  0.4646  0.2537
31147SOL    HW1  302  10.363   1.437   4.792  0.3485  0.8906  0.0302
31147SOL    HW2  303  10.396   1.564   4.867 -0.6625  1.2857 -0.1763
31148SOL     OW  304   3.823   8.456   8.173 -0.3226  0.4420 -0.2784
31148SOL    HW1  305   3.888   8.386   8.177 -0.8388 -0.0508 -0.3051
31148SOL    HW2  306   3.874   8.536   8.162  0.3527  0.2122  0.9476
31149SOL     OW  307   9.957  10.573  11.451 -0.7105  0.0279 -0.2241
31149SOL    HW1  308   9.910  10.643  11.495 -0.2993 -1.0311  2.0503
31149SOL    HW2  309  10.043  10.571  11.493 -1.3276 -2.9619  1.1495
31150SOL     OW  310   8.456   0.047   0.759  0.2517  0.1194  0.5156
31150SOL    HW1  311   8.472   0.053   0.853 -1.3993  0.5020  0.8103
31150SOL    HW2  312   8.404   0.125   0.739 -0.1823 -0.4189 -0.5388
31151SOL     OW  313   2.472   1.110   1.457  0.2645  0.4741  0.4790
31151SOL    HW1  314   2.416   1.154   1.520  1.3447  0.2861  1.6245
31151SOL    HW2  315   2.532   1.178   1.426 -1.1198  0.8917 -1.4324
31152SOL     OW  316   0.669  11.558   0.575 -0.1632 -0.2082  0.3647
31152SOL    HW1  317   0.685  11.489   0.511  0.3805 -0.3603  0.6532
31152SOL    HW2  318   0.694  11.639   0.530  1.3486 -0.4316  0.7624
31153SOL     OW  319  11.834   8.019   9.260  0.2807  0.0229 -0.1151
31153SOL    HW1  320  11.881   8.093   9.221  1.3067 -0.5396  0.0222
31153SOL    HW2  321  11.891   7.944   9.245 -0.1893 -0.5319  0.8003
31154SOL     OW  322  11.169   6.475  12.395 -0.5980 -1.1362  0.2535
31154SOL    HW1  323  11.187   6.433  12.311 -0.4452 -3.1472  1.2379
31154SOL    HW2  324  11.232   6.436  12.456  0.0691  1.1169  1.1175
31155SOL     OW  325   6.351   4.990  11.241  0.1978  0.4575 -0.1222
31155SOL    HW1  326   6.363   5.025  11.152  2.9070  0.3415  0.1206
31155SOL    HW2  327   6.434   5.008  11.285  0.3238 -2.8015  1.2508
31156SOL     OW  328   8.103   0.298   0.117  0.1299  0.2553 -0.3496
31156SOL    HW1  329   8.086   0.350   0.195  2.1623  2.1976 -1.1140
31156SOL    HW2  330   8.172   0.237   0.143  0.2464  0.3574 -0.4193
31157SOL     OW  331   8.300   6.628  11.606  0.5099 -0.1932  0.1073
31157SOL    HW1  332   8.240   6.629  11.681 -1.1348 -0.2928 -1.1403
31157SOL    HW2  333   8.358   6.554  11.623 -1.0684 -1.4182  0.4033
31158SOL     OW  334   7.353   0.705  11.315  0.6160  0.0661 -0.2524
31158SOL    HW1  335   7.293   0.770  11.351  0.7770 -0.2635  0.6243
31158SOL    HW2  336   7.331   0.624  11.361  0.3386 -0.5469 -1.4055
31159SOL     OW  337  11.449   9.481   6.570  0.1409 -0.1442 -0.1751
31159SOL    HW1  338  11.538   9.449   6.580  0.4588  0.7875  0.0415
31159SOL    HW2  339  11.422   9.449   6.484  0.8904  0.0360 -0.4840
31160SOL     OW  340  10.126  10.683   3.710  0.3751 -0.0248 -0.3006
31160SOL    HW1  341  10.031  10.694   3.704  0.5114  1.6752  0.0099
31160SOL    HW2  342  10.159  10.726   3.632  1.0065  2.3309  1.1492
31161SOL     OW  343  10.370   7.298   0.367  0.1257 -0.1177 -0.3144
31161SOL    HW1  344  10.357   7.375   0.312 -0.2068  0.0209 -0.0398
31161SOL    HW2  345  10.449   7.317   0.417 -0.7791  0.7029  0.8646
31162SOL     OW  346   2.918   0.405   1.047 -0.7592  0.3281 -0.1655
31162SOL    HW1  347   2.878   0.487   1.078  0.3522  0.5094  0.8675
31162SOL    HW2  348   3.012   0.424   1.044 -0.5169 -0.8153 -0.2509
31163SOL     OW  349   0.843   5.046   0.114  0.5564  0.0892  0.3950
31163SOL    HW1  350   0.891   5.108   0.059  0.8240 -0.4445  0.0150
31163SOL    HW2  351   0.815   5.098   0.190 -0.1334  0.9271 -0.4061
31164SOL     OW  352   4.158   5.444   7.537  0.0907  0.2547  0.5555
31164SOL    HW1  353   4.074   5.483   7.513  0.3208  0.7477  0.5147
31164SOL    HW2  354   4.141   5.397   7.619 -0.4995 -0.6951 -0.0990
31165SOL     OW  355   9.476  12.137  10.273 -0.0216 -0.5879  0.2423
31165SOL    HW1  356   9.470  12.199  10.346  0.2637  2.3974 -2.0514
31165SOL    HW2  357   9.569  12.118  10.265 -0.0049 -0.5657  0.3825
31166SOL     OW  358   8.838   4.141   1.516 -0.2544 -0.3640 -0.7988
31166SOL    HW1  359   8.896   4.119   1.589 -1.5237 -0.9172  0.0966
31166SOL    HW2  360   8.892   4.192   1.456  1.6125 -2.2599 -0.8429
31167SOL     OW  361   1.059  11.680   0.461  0.0794 -0.1433  0.2505
31167SOL    HW1  362   0.986  11.666   0.521 -0.3881  0.8693 -0.0676
31167SOL    HW2  363   1.131  11.629   0.499 -0.3312  0.1246  1.4284
31168SOL     OW  364  12.120  10.792   2.020 -0.0989 -0.5283  0.2979
31168SOL    HW1  365  12.147  10.733   2.090  0.3949 -1.2901 -0.5125
31168SOL    HW2  366  12.103  10.734   1.945 -0.5266  0.2710 -0.2372
31169SOL     OW  367   8.665   9.037  10.423 -0.3361  0.1163  0.3526
31169SOL    HW1  368   8.682   9.123  10.387 -2.9246 -0.6601 -3.2469
31169SOL    HW2  369   8.587   9.006  10.377  1.1018 -4.6199  0.5188
31170SOL     OW  370   7.870   4.408   7.649 -0.1075  0.2630  0.2812
31170SOL    HW1  371   7.922   4.427   7.571  0.1425 -0.6321  0.2202
31170SOL    HW2  372   7.814   4.335   7.623 -0.1689  0.0963  0.8779
31171SOL     OW  373   2.046   2.041  11.054  0.0368 -0.2609 -0.0912
31171SOL    HW1  374   1.952   2.048  11.041 -0.0868  0.4526  1.0828
31171SOL    HW2  375   2.084   2.075  10.972 -0.7187  2.3335  0.5242
31172SOL     OW  376   2.502   4.942   7.031  0.5749 -0.5945 -0.1383
31172SOL    HW1  377   2.460   4.957   6.947  0.4682 -1.5969 -0.2842
31172SOL    HW2  378   2.575   5.003   7.034 -0.2339  0.4141 -0.3530
31173SOL     OW  379  10.097  10.461  11.691  0.3842 -0.3974  0.0215
31173SOL    HW1  380  10.055  10.526  11.749 -1.0140 -1.7049  0.5394
31173SOL    HW2  381  10.180  10.441  11.734  0.2129  0.0389  0.5721
31174SOL     OW  382   4.681   2.850   2.914 -0.1985 -0.1633 -0.0737
31174SOL    HW1  383   4.764   2.802   2.909  0.0742  0.0373  1.8855
31174SOL    HW2  384   4.705   2.941   2.896 -0.1297 -0.2218 -0.2806
31175SOL     OW  385   7.653   7.207   5.090  0.3574  0.1960  0.6013
31175SOL    HW1  386   7.674   7.218   4.997 -0.6527 -0.1063  0.3233
31175SOL    HW2  387   7.586   7.272   5.107 -0.6979 -0.8827  0.6740
31176SOL     OW  388   8.887   2.891   9.540  0.0229 -0.1725  0.0511
31176SOL    HW1  389   8.865   2.969   9.489 -0.8304 -0.5597 -0.2011
31176SOL    HW2  390   8.939   2.837   9.481 -0.6250 -0.4414 -0.2766
31177SOL     OW  391   9.875   2.219   4.605  0.8301  0.1733 -0.8731
31177SOL    HW1  392   9.951   2.274   4.584  0.7240  1.3965  1.6405
31177SOL    HW2  393   9.912   2.143   4.650  0.7116 -0.3533 -1.6393
31178SOL     OW  394  10.177  11.708  11.800  0.0747 -0.2809  0.1881
31178SOL    HW1  395  10.171  11.772  11.871  0.4768  0.9209 -0.8398
31178SOL    HW2  396  10.103  11.727  11.744  0.1104 -0.8221 -0.0493
31179SOL     OW  397   3.602   5.573   6.867 -0.2136  0.4779  0.1885
31179SOL    HW1  398   3.530   5.539   6.920 -1.0369 -0.3634 -1.3970
31179SOL    HW2  399   3.678   5.569   6.926 -1.1185 -0.1893  1.3722
31180SOL     OW  400   4.344   9.096   2.621  0.1844 -0.0991 -0.1421
31180SOL    HW1  401   4.343   9.002   2.601  1.3230 -0.0222 -0.6168
31180SOL    HW2  402   4.306   9.102   2.708  1.0757 -1.1280  0.3444
31181SOL     OW  403   4.063   4.731   9.847 -0.5891  0.5267 -0.1294
31181SOL    HW1  404   3.983   4.681   9.831  0.6600 -3.2485  3.6274
31181SOL    HW2  405   4.036   4.797   9.911 -0.7085 -1.2417  1.7432
31182SOL     OW  406   9.268   5.916   5.602 -0.0870 -0.1061 -0.2276
31182SOL    HW1  407   9.326   5.968   5.547  0.0115 -0.7128 -0.7101
31182SOL    HW2  408   9.312   5.831   5.610 -1.4154 -0.9543 -1.5299
31183SOL     OW  409   9.163   6.878   0.349 -0.0716 -0.0083  0.5797
31183SOL    HW1  410   9.200   6.847   0.432 -1.3094  1.7263  1.8412
31183SOL    HW2  411   9.109   6.805   0.318  0.0392 -0.5112  1.5249
31184SOL     OW  412   2.469  11.631   8.537  0.0786 -0.6158 -1.1282
31184SOL    HW1  413   2.443  11.671   8.620  1.5039 -0.2235 -0.8444
31184SOL    HW2  414   2.515  11.700   8.490  0.7858 -1.3210 -1.4990
31185SOL     OW  415   5.251   0.381   2.567  0.6615 -0.2432 -0.3841
31185SOL    HW1  416   5.257   0.323   2.491 -1.3791 -0.7148 -0.2529
31185SOL    HW2  417   5.196   0.332   2.629 -1.9899  2.1563 -0.6437
31186SOL     OW  418   4.630   3.577   1.631  0.1076 -0.0687 -0.2125
31186SOL    HW1  419   4.624   3.660   1.583 -1.2569 -1.2950 -2.3596
31186SOL    HW2  420   4.677   3.519   1.571  1.1319 -0.8440  1.2987
31187SOL     OW  421   3.444  12.092   8.816 -0.2698  0.0858 -0.4232
31187SOL    HW1  422   3.443  12.151   8.891  1.7172  0.0975 -0.3299
31187SOL    HW2  423   3.465  12.007   8.854  1.0566  0.1505 -0.9591
31188SOL     OW  424  11.163   0.816   4.481  0.5128  0.0442  0.3140
31188SOL    HW1  425  11.115   0.743   4.521  1.7189 -0.3787  1.0599
31188SOL    HW2  426  11.119   0.894   4.513 -0.8180 -0.3270 -0.5160
31189SOL     OW  427   8.982   8.014   5.631 -0.8447  0.6740 -1.1291
31189SOL    HW1  428   9.070   8.051   5.627 -0.7124  0.6055  0.4774
31189SOL    HW2  429   8.980   7.948   5.562  0.9173 -0.4625 -0.1690
31190SOL     OW  430   2.906   6.157   0.881  0.3949 -0.3402 -0.4590
31190SOL    HW1  431   2.974   6.221   0.861  1.5558 -0.3906  2.8763
31190SOL    HW2  432   2.950   6.073   0.878 -0.6885 -0.8970 -2.8854
31191SOL     OW  433   4.215   6.632   0.379  0.5249  0.2722 -0.3414
31191SOL    HW1  434   4.154   6.694   0.422  1.2441  0.0491  1.0582
31191SOL    HW2  435   4.292   6.631   0.436 -0.0673 -3.1270  0.6290
31192SOL     OW  436   8.071   8.505   9.756  0.0451 -0.6673  0.1359
31192SOL    HW1  437   8.111   8.586   9.724 -0.6197 -0.1426  0.5818
31192SOL    HW2  438   8.141   8.461   9.805  0.5604 -0.6287 -0.5481
31193SOL     OW  439   3.323   3.289   6.917 -0.1511 -0.8907  0.2659
31193SOL    HW1  440   3.301   3.301   6.824 -1.2158 -0.8966  0.5072
31193SOL    HW2  441   3.301   3.198   6.935  1.7891 -1.4386  0.0832
31194SOL     OW  442  11.623   2.507  11.798  0.3583  0.4110  0.1206
31194SOL    HW1  443  11.711   2.522  11.763  1.2510 -0.6444  1.7807
31194SOL    HW2  444  11.613   2.574  11.866  1.1920 -1.3719  2.0993
31195SOL     OW  445   8.640   6.364   9.440  0.1384 -0.0332  0.6384
31195SOL    HW1  446   8.583   6.340   9.368  0.7034  1.0054 -0.1807
31195SOL    HW2  447   8.706   6.421   9.401 -0.3127  1.6683  2.1714
31196SOL     OW  448   4.601   3.092   9.252  0.0524 -0.0742 -0.1794
31196SOL    HW1  449   4.626   3.104   9.344 -3.2916 -1.8084  1.1401
31196SOL    HW2  450   4.578   3.000   9.245 -2.6078  0.5962 -1.8759
31197SOL     OW  451   0.244   8.528   2.522  0.0910  0.1818 -0.4307
31197SOL    HW1  452   0.261   8.434   2.518  0.7494  0.3356 -2.0768
31197SOL    HW2  453   0.160   8.535   2.568 -0.5173 -1.2872 -1.2445
31198SOL     OW  454   0.556   4.252   4.006  0.3253 -0.8690 -0.3866
31198SOL    HW1  455   0.651   4.263   4.018  0.3504 -1.4222 -0.0368
31198SOL    HW2  456   0.546   4.161   3.979  0.0425 -0.3529 -2.1921
31199SOL     OW  457  11.553   1.964   5.537 -0.0621 -0.3159 -0.0682
31199SOL    HW1  458  11.613   2.018   5.587 -0.5146  0.0541  0.0746
31199SOL    HW2  459  11.562   1.995   5.447  1.8046 -1.9037 -0.5257
31200SOL     OW  460  11.348   9.108   0.839  0.2591  0.2274 -0.3255
31200SOL    HW1  461  11.404   9.069   0.906  1.2032  1.4454 -0.3687
31200SOL    HW2  462  11.396   9.095   0.757 -0.1317  0.1424 -0.5414
31201SOL     OW  463   2.144   3.423   8.966  0.4089  0.4508 -0.2631
31201SOL    HW1  464   2.094   3.385   8.893 -1.9211  1.8071  0.5207
31201SOL    HW2  465   2.137   3.518   8.953  0.3824  0.7149  1.4173
31202SOL     OW  466   0.653   2.732   3.311  0.0593  0.4438 -0.6771
31202SOL    HW1  467   0.712   2.664   3.277 -0.0692  0.8426 -1.7248
31202SOL    HW2  468   0.707   2.811   3.315 -0.0627  0.5147 -0.4092
31203SOL     OW  469  11.600   3.955   9.075  0.6937  0.2085 -0.0820
31203SOL    HW1  470  11.643   4.041   9.069 -0.1822  0.5909 -1.3107
31203SOL    HW2  471  11.671   3.892   9.066  1.2490  0.8170 -0.0568
31204SOL     OW  472  11.925  11.288   8.569  0.2899 -0.1270 -0.0943
31204SOL    HW1  473  11.951  11.366   8.618 -1.7869  0.1954  0.6050
31204SOL    HW2  474  11.875  11.322   8.495  0.9777 -0.7393 -0.8632
31205SOL     OW  475  12.107   0.460   9.684 -0.5925  0.0139 -0.1864
31205SOL    HW1  476  12.078   0.445   9.595 -1.3823 -1.3699  0.2769
31205SOL    HW2  477  12.084   0.380   9.731  0.9069  0.2173  0.9869
31206SOL     OW  478   4.368   7.575   0.159  0.1891 -0.0738 -0.3358
31206SOL    HW1  479   4.393   7.657   0.117  0.6927 -0.8260 -1.5633
31206SOL    HW2  480   4.442   7.554   0.217 -0.5884  1.0606  1.1218
31207SOL     OW  481   7.130   7.482  12.274  0.2985  0.1736  0.4074
31207SOL    HW1  482   7.142   7.388  12.263  1.3490  0.2262  0.9915
31207SOL    HW2  483   7.100   7.492  12.364 -1.2008  0.3043 -0.0801
31208SOL     OW  484   7.100   5.196   6.770 -0.2270 -0.3480  0.1486
31208SOL    HW1  485   7.030   5.131   6.767  0.4333 -1.0718 -2.1386
31208SOL    HW2  486   7.181   5.144   6.767  0.4228  0.5052  1.6699
31209SOL     OW  487   9.940   1.522   0.803 -0.2115  0.0764  0.0047
31209SOL    HW1  488  10.018   1.469   0.789 -0.9915 -1.0784 -0.0300
31209SOL    HW2  489   9.956   1.567   0.886  1.0457  0.8900 -0.6410
31210SOL     OW  490   8.401   1.131   2.638  0.4952 -0.0535 -0.3438
31210SOL    HW1  491   8.463   1.197   2.668 -1.3851  3.0836 -2.8704
31210SOL    HW2  492   8.315   1.173   2.645 -1.1542 -3.2163  0.3472
31211SOL     OW  493  11.306  10.555  12.374  0.5844 -0.3079  0.8651
31211SOL    HW1  494  11.260  10.634  12.402 -0.5118  0.6770 -3.1137
31211SOL    HW2  495  11.242  10.505  12.324  2.2935 -1.7831 -0.0025
31212SOL     OW  496   6.770   5.458   0.926 -0.4442  0.5845  0.5134
31212SOL    HW1  497   6.783   5.368   0.894  0.7628  0.5878  0.9150
31212SOL    HW2  498   6.689   5.487   0.884 -0.8169 -0.6638  0.3121
31213SOL     OW  499  10.662   2.890   8.860  0.3787  0.0711 -0.0755
31213SOL    HW1  500  10.730   2.922   8.919 -0.4017  0.5032  0.6124
31213SOL    HW2  501  10.667   2.947   8.784  0.0496  0.8171  0.4582
31214SOL     OW  502   4.893   6.485   8.472 -0.1248 -0.0073 -0.0622
31214SOL    HW1  503   4.916   6.578   8.463  0.9587 -0.1925  0.6970
31214SOL    HW2  504   4.883   6.471   8.566 -1.3381 -0.4288 -0.2374
31215SOL     OW  505   4.128   5.105   9.962 -0.4050  0.1840 -0.1467
31215SOL    HW1  506   4.037   5.128   9.944 -0.3169 -0.2576 -1.2771
31215SOL    HW2  507   4.175   5.129   9.882  0.1465 -1.2726 -0.2963
31216SOL     OW  508   8.738   0.701   0.534  0.1221  0.4289  0.2788
31216SOL    HW1  509   8.757   0.673   0.444 -2.1019 -0.8905  0.1643
31216SOL    HW2  510   8.665   0.761   0.525 -0.6810 -0.3780  1.2577
31217SOL     OW  511   2.407  11.691  12.381  0.5722 -0.1482 -0.7996
31217SOL    HW1  512   2.390  11.634  12.305 -0.4113  1.0422 -1.5096
31217SOL    HW2  513   2.500  11.713  12.373  1.0772 -1.9516 -0.2769
31218SOL     OW  514   0.033  10.147   0.539 -0.1822  0.1136  0.3233
31218SOL    HW1  515   0.047  10.091   0.616 -1.2228 -0.2464  0.2801
31218SOL    HW2  516   0.119  10.183   0.519  0.2937 -0.5646  1.0641
31219SOL     OW  517   5.860  12.408  12.300 -0.6227  0.0202 -0.8560
31219SOL    HW1  518   5.866  12.420  12.394  1.1296 -0.8163 -0.8203
31219SOL    HW2  519   5.784  12.351  12.287  0.8858 -2.3982  0.3487
31220SOL     OW  520  11.480   7.951   5.604  0.4125  0.2876  0.2268
31220SOL    HW1  521  11.394   7.942   5.646  0.1436  0.2474 -0.3089
31220SOL    HW2  522  11.529   7.875   5.633  0.4568  0.5993  0.9725
31221SOL     OW  523   5.637   6.917   8.721  0.4667  0.3546  0.3682
31221SOL    HW1  524   5.619   6.946   8.811 -1.2618 -2.1472  0.9339
31221SOL    HW2  525   5.721   6.871   8.728 -0.0401 -0.5184  0.9162
31222SOL     OW  526   9.396  11.857   8.777 -0.1257 -0.6274  0.5685
31222SOL    HW1  527   9.412  11.791   8.845  0.4289 -1.7170 -0.5971
31222SOL    HW2  528   9.434  11.820   8.698 -1.6013  0.1900 -0.5700
31223SOL     OW  529   9.500  10.722   6.908 -0.1064 -0.4563 -0.2430
31223SOL    HW1  530   9.469  10.764   6.988  1.5519 -0.2845  0.3546
31223SOL    HW2  531   9.505  10.792   6.844  3.0037  0.4958  0.8480
31224SOL     OW  532   9.423   9.649   9.324  0.2290 -0.2799  0.2362
31224SOL    HW1  533   9.394   9.732   9.285 -1.4163 -0.1493  1.5858
31224SOL    HW2  534   9.486   9.613   9.262  0.6049  1.7397 -0.6233
31225SOL     OW  535   8.051   3.671  11.368  0.2233 -0.3770  0.2630
31225SOL    HW1  536   8.063   3.598  11.428 -0.9361 -0.7418  0.0842
31225SOL    HW2  537   8.028   3.745  11.424 -2.3011 -1.0551  0.2374
31226SOL     OW  538   7.130   0.228  12.076  0.2443 -0.0881  0.5038
31226SOL    HW1  539   7.194   0.167  12.114  0.7646  1.0581  1.5343
31226SOL    HW2  540   7.093   0.274  12.151  0.7124  1.6933 -0.3024
31227SOL     OW  541   8.885   0.983   2.003  0.9298 -0.0248  0.2766
31227SOL    HW1  542   8.962   1.005   1.951  1.9497 -1.4169  1.1328
31227SOL    HW2  543   8.853   0.901   1.965 -0.0406  0.4532  0.0350
31228SOL     OW  544   0.898   5.035   6.538 -0.0291 -0.4370  0.5505
31228SOL    HW1  545   0.986   5.038   6.500  0.0210  0.3473  0.6939
31228SOL    HW2  546   0.842   5.001   6.468  0.1981  0.2062  0.0431
31229SOL     OW  547   7.246  10.143   7.867 -0.0782  0.1613  0.2893
31229SOL    HW1  548   7.226  10.060   7.824  0.1891 -0.0703  0.6042
31229SOL    HW2  549   7.330  10.171   7.829 -1.3484  1.5718 -1.6757
31230SOL     OW  550   6.816   6.520   8.095  0.5542  0.3840  0.3557
31230SOL    HW1  551   6.812   6.562   8.009 -0.7342 -0.0180  0.2070
31230SOL    HW2  552   6.841   6.591   8.154 -0.8054  1.2194 -0.0079
31231SOL     OW  553   6.096   1.006  11.512 -0.4950 -0.8001 -0.1801
31231SOL    HW1  554   6.108   1.095  11.545  1.4250 -0.8127 -0.7139
31231SOL    HW2  555   6.021   1.011  11.454  0.0546  0.6701 -0.8139
31232SOL     OW  556   2.171   6.252   6.296 -0.5002  0.0713 -0.0473
31232SOL    HW1  557   2.166   6.177   6.237 -1.3059 -0.5897  0.8127
31232SOL    HW2  558   2.110   6.316   6.259 -0.5133 -0.0731 -0.2759
31233SOL     OW  559  10.277   1.793   4.057  0.7879  0.7712 -0.0808
31233SOL    HW1  560  10.329   1.741   3.995  0.4690  0.9269 -0.4849
31233SOL    HW2  561  10.301   1.758   4.143  0.7685  0.1238 -0.3283
31234SOL     OW  562   4.432  12.210   8.119  0.2130  0.5472  0.4913
31234SOL    HW1  563   4.403  12.120   8.128  0.6622  0.1044 -1.9736
31234SOL    HW2  564   4.521  12.210   8.155  0.3917 -0.1260  0.0725
31235SOL     OW  565   7.551   6.343  11.682 -0.3554  0.2122 -0.0493
31235SOL    HW1  566   7.481   6.281  11.664 -0.1860  0.4596 -1.7108
31235SOL    HW2  567   7.529   6.380  11.767 -1.7808 -0.3354 -0.1547
31236SOL     OW  568   1.746   8.509   8.908 -0.5746 -0.4042  0.2517
31236SOL    HW1  569   1.811   8.446   8.938  0.8921  0.8830 -0.0823
31236SOL    HW2  570   1.670   8.456   8.884  0.5135 -2.0048  0.2018
31237SOL     OW  571   9.962   5.231   1.152  0.3305 -0.2853  0.0416
31237SOL    HW1  572  10.017   5.194   1.221  0.3237  0.3873  0.4210
31237SOL    HW2  573  10.002   5.316   1.133 -2.5385  2.0069  2.9519
31238SOL     OW  574   6.045   1.607   7.697 -0.3533  0.2718  0.0001
31238SOL    HW1  575   6.100   1.685   7.690  0.4622 -0.2602  0.2596
31238SOL    HW2  576   6.006   1.613   7.784  1.7202 -0.8420  1.0982
31239SOL     OW  577   7.665   6.355   0.971 -0.2543 -0.2427 -0.1647
31239SOL    HW1  578   7.754   6.385   0.990  0.7786 -2.7960 -0.5493
31239SOL    HW2  579   7.640   6.301   1.046 -0.7674 -0.9487 -0.8171
31240SOL     OW  580   4.471   6.682   8.021 -0.1112  0.5090 -0.0619
31240SOL    HW1  581   4.404   6.734   7.977 -2.3528 -1.3119  0.9909
31240SOL    HW2  582   4.515   6.743   8.080 -1.2140  1.6404 -0.3712
31241SOL     OW  583  11.274   9.903   4.395  0.5167  0.1980  0.0985
31241SOL    HW1  584  11.214   9.947   4.455  0.5770 -0.2854  0.5149
31241SOL    HW2  585  11.220   9.881   4.319  0.2910  0.2281  0.2499
31242SOL     OW  586   3.161   0.603   2.457 -0.8729 -0.4070  0.2991
31242SOL    HW1  587   3.111   0.673   2.414 -0.3598  0.2595  0.7697
31242SOL    HW2  588   3.252   0.619   2.431 -0.5644 -0.0360  1.5602
31243SOL     OW  589  11.199   0.963   8.823 -0.1855 -0.2771  0.4805
31243SOL    HW1  590  11.145   0.893   8.787  0.3273 -0.1932 -0.4904
31243SOL    HW2  591  11.279   0.919   8.851 -0.7496 -0.4069  1.9477
31244SOL     OW  592   6.669   7.548   7.407 -0.5643  0.8136  0.7143
31244SOL    HW1  593   6.705   7.521   7.322  0.5730  0.4132  1.2921
31244SOL    HW2  594   6.650   7.465   7.452 -0.3590  1.0087  1.1679
31245SOL     OW  595   6.352   4.183   5.619  0.3365 -0.4721  0.0739
31245SOL    HW1  596   6.337   4.200   5.526 -1.4329 -2.3539 -0.0480
31245SOL    HW2  597   6.328   4.091   5.631 -0.7813  0.0628  2.6502
31246SOL     OW  598  10.240   4.964  12.390  0.1952  0.1237 -0.0205
31246SOL    HW1  599  10.261   4.991  12.479  1.9314 -1.9492  0.2594
31246SOL    HW2  600  10.216   4.872  12.397 -0.8784  0.2355 -1.5558
31247SOL     OW  601   7.396   4.123   0.025  0.0646  0.4318  0.4033
31247SOL    HW1  602   7.376   4.135  -0.068  1.1342  0.5785  0.1833
31247SOL    HW2  603   7.310   4.122   0.068 -0.3953  1.4293 -0.4503
31248SOL     OW  604   5.614   1.620   7.703 -0.8122 -0.4639  0.4808
31248SOL    HW1  605   5.709   1.622   7.690 -0.7945 -0.2549  0.6390
31248SOL    HW2  606   5.601   1.583   7.790 -0.9893 -3.1913 -0.6314
31249SOL     OW  607   7.744  11.787   3.146 -0.1051 -0.6729  0.0853
31249SOL    HW1  608   7.681  11.851   3.113  1.8033  0.9843 -0.5095
31249SOL    HW2  609   7.716  11.770   3.236 -0.7286  0.9007  0.2207
31250SOL     OW  610   4.493   7.729   9.222 -0.0580 -0.5394 -0.0571
31250SOL    HW1  611   4.429   7.799   9.227 -0.0371 -0.4912 -0.3845
31250SOL    HW2  612   4.442   7.651   9.201 -0.3842 -1.1094  2.5227
31251SOL     OW  613   8.875   2.566   4.022 -0.1174  0.5793  0.1829
31251SOL    HW1  614   8.944   2.581   4.086  2.1537 -0.9400 -1.7381
31251SOL    HW2  615   8.877   2.471   4.006 -3.3845  0.2849  0.7445
31252SOL     OW  616   7.794   7.497   5.205  0.2401 -0.2323  0.0479
31252SOL    HW1  617   7.707   7.471   5.174 -0.0802  0.7451  0.0850
31252SOL    HW2  618   7.781   7.517   5.298  0.2282  1.0493 -0.2084
31253SOL     OW  619  12.080  11.638   3.945 -0.5479 -0.3413  0.0185
31253SOL    HW1  620  12.108  11.552   3.977 -1.7775 -0.6384  0.3440
31253SOL    HW2  621  11.986  11.628   3.930 -0.5004  0.6224 -1.0254
31254SOL     OW  622   7.286   6.047   7.458  0.6524  0.0374  0.4333
31254SOL    HW1  623   7.277   6.037   7.363  0.1267  0.2762  0.4572
31254SOL    HW2  624   7.296   5.958   7.491  1.0384 -0.0350  0.1362
31255SOL     OW  625   8.981   3.867  10.469 -0.4291 -0.1362 -0.2617
31255SOL    HW1  626   8.993   3.839  10.560 -1.4819  0.5254  0.0888
31255SOL    HW2  627   9.026   3.800  10.418 -1.7448 -1.7602  0.6231
31256SOL     OW  628   8.018   7.619   1.008  0.1666 -0.5382 -0.1800
31256SOL    HW1  629   7.922   7.625   1.001 -0.1102 -3.7184 -0.4606
31256SOL    HW2  630   8.034   7.591   1.097  1.0425  1.6331  0.4128
31257SOL     OW  631   9.302   0.421  10.537 -0.1068 -0.3298  0.2434
31257SOL    HW1  632   9.377   0.480  10.531  0.1217 -0.6857 -0.5175
31257SOL    HW2  633   9.287   0.410  10.631  1.2871 -0.8764  0.4267
31258SOL     OW  634   2.491   5.193   4.192 -0.3558  0.2878  0.1800
31258SOL    HW1  635   2.455   5.262   4.136 -1.1718 -1.7267 -1.9602
31258SOL    HW2  636   2.540   5.136   4.132  2.4094  0.2498  2.2399
31259SOL     OW  637  12.283   1.156  10.829 -0.6521  0.6137 -0.0539
31259SOL    HW1  638  12.296   1.102  10.908 -1.6093  1.0799  0.4351
31259SOL    HW2  639  12.299   1.246  10.859  1.0662  0.6355 -0.8924
31260SOL     OW  640  11.190   7.911   7.460  0.8797  0.2017  0.5268
31260SOL    HW1  641  11.157   8.001   7.465  0.3966  0.0838 -0.2573
31260SOL    HW2  642  11.252   7.913   7.387  1.2197  0.0041  0.8116
31261SOL     OW  643  11.570   5.073   7.703 -0.3495 -0.4343 -0.1903
31261SOL    HW1  644  11.585   5.042   7.793  0.9654  1.7543  0.4264
31261SOL    HW2  645  11.649   5.046   7.656 -0.0336  0.3291 -0.1094
31262SOL     OW  646   1.717   0.456   2.471 -0.0993 -0.1463  0.5905
31262SOL    HW1  647   1.754   0.436   2.384 -1.7289  0.2161 -0.2193
31262SOL    HW2  648   1.653   0.526   2.454 -0.2396  0.1218  2.1401
31263SOL     OW  649   3.057  12.308  10.613  0.1781 -0.0535  0.2735
31263SOL    HW1  650   3.101  12.255  10.680 -0.3874 -0.1105  0.6049
31263SOL    HW2  651   3.101  12.393  10.618 -0.1684  0.0930  1.0502
31264SOL     OW  652   8.523   7.605   3.898  0.0508 -0.0854  0.2878
31264SOL    HW1  653   8.533   7.639   3.987  1.3639 -1.2735  0.6185
31264SOL    HW2  654   8.448   7.654   3.863  1.1480  2.3633  1.0948
31265SOL     OW  655   7.807   3.221   3.438  0.2509 -0.5107 -0.4083
31265SOL    HW1  656   7.794   3.286   3.507  0.2939 -0.5326 -0.3792
31265SOL    HW2  657   7.861   3.153   3.479 -2.6570 -2.3419  0.6741
31266SOL     OW  658  12.279  11.762   9.747  0.5823 -0.0018  0.5441
31266SOL    HW1  659  12.217  11.806   9.805 -0.5314 -2.4945  1.3801
31266SOL    HW2  660  12.324  11.833   9.702 -2.9576  1.9507 -0.2435
31267SOL     OW  661   7.279   5.229   4.316 -0.2734 -0.3384  0.0815
31267SOL    HW1  662   7.186   5.242   4.330 -0.4077 -0.5355 -0.5699
31267SOL    HW2  663   7.312   5.315   4.290 -0.4560 -0.4587 -0.5837
31268SOL     OW  664   7.119   7.635  10.555  0.5249 -0.4558 -0.2966
31268SOL    HW1  665   7.143   7.556  10.603 -0.6404 -1.4034 -1.2061
31268SOL    HW2  666   7.202   7.680  10.539  0.9304  0.1225  2.8828
31269SOL     OW  667   2.868   4.069   7.924 -0.7047 -0.2172 -0.3563
31269SOL    HW1  668   2.903   4.153   7.951 -2.2960  0.4816 -0.4076
31269SOL    HW2  669   2.804   4.046   7.991 -1.5620 -0.5181 -1.2501
31270SOL     OW  670  11.730   1.391   6.212  0.2064  0.2036 -0.0297
31270SOL    HW1  671  11.750   1.409   6.120 -1.2231  1.3091 -0.1497
31270SOL    HW2  672  11.751   1.473   6.257  0.3695 -0.1541  0.5517
31271SOL     OW  673   6.497   5.182   6.877  0.0422 -0.2199 -0.0483
31271SOL    HW1  674   6.442   5.125   6.932 -0.5240 -0.1353 -0.5149
31271SOL    HW2  675   6.434   5.233   6.826  0.5589 -0.5203 -1.0055
31272SOL     OW  676   0.512   7.496   2.087 -0.6938 -0.1713 -0.0019
31272SOL    HW1  677   0.566   7.500   2.008 -0.9081  0.4560 -0.1233
31272SOL    HW2  678   0.516   7.404   2.114  1.2397  0.0351  0.5687
31273SOL     OW  679  12.098   1.753   9.651 -0.0900  1.1663  0.5098
31273SOL    HW1  680  12.155   1.785   9.581  3.2174 -3.2254  0.7842
31273SOL    HW2  681  12.136   1.790   9.731  1.7797 -0.7399  0.5790
31274SOL     OW  682   2.008   9.922  11.406  0.1221 -0.2602 -0.1873
31274SOL    HW1  683   2.002  10.010  11.444  1.6110 -0.3568  0.3417
31274SOL    HW2  684   2.031   9.936  11.314  0.2873 -0.0965 -0.1207
31275SOL     OW  685   6.390  10.340   9.929  0.1427 -0.5116 -0.3620
31275SOL    HW1  686   6.451  10.270   9.905  0.0849 -0.0756 -1.8957
31275SOL    HW2  687   6.303  10.305   9.909 -0.0792 -0.8406  1.0841
31276SOL     OW  688  10.524   5.163  10.514 -0.2271 -0.3069 -0.2615
31276SOL    HW1  689  10.439   5.126  10.539 -0.3397 -2.1600 -2.9167
31276SOL    HW2  690  10.506   5.208  10.431  0.9681  1.3739  0.3378
31277SOL     OW  691   4.817  10.105  11.776  0.0700 -0.2229 -0.5854
31277SOL    HW1  692   4.858  10.190  11.788  1.2045 -0.4774 -2.2356
31277SOL    HW2  693   4.786  10.080  11.863  0.8300  1.3012  0.1558
31278SOL     OW  694  12.036   4.159  12.440  0.5062  0.1267 -1.2695
31278SOL    HW1  695  12.010   4.217  12.368 -0.7458  0.7813 -0.3284
31278SOL    HW2  696  12.077   4.217  12.504 -2.0381  0.3128  0.3191
31279SOL     OW  697  10.025   8.781   4.812 -0.4839 -0.0457 -0.0854
31279SOL    HW1  698  10.004   8.867   4.774 -1.9943 -1.1149 -1.8313
31279SOL    HW2  699   9.944   8.753   4.854 -0.4892 -1.2680 -0.8789
31280SOL     OW  700   9.849   2.429  10.325 -0.3374  0.3830  0.4031
31280SOL    HW1  701   9.917   2.442  10.392  0.5328 -0.0454 -0.3592
31280SOL    HW2  702   9.767   2.423  10.374  0.3642 -0.7084  1.5129
31281SOL     OW  703   6.309   9.264   6.911  0.4873  0.0614 -0.5017
31281SOL    HW1  704   6.374   9.334   6.899  2.1401 -1.5383 -1.3859
31281SOL    HW2  705   6.297   9.227   6.824 -1.3097 -0.0076 -0.2641
31282SOL     OW  706   2.670  10.826  10.411  0.0202 -0.1346  0.1503
31282SOL    HW1  707   2.609  10.899  10.424  2.0716  2.3527 -2.9123
31282SOL    HW2  708   2.616  10.756  10.374 -1.4970  0.8234  0.4601
31283SOL     OW  709   4.409   2.882   6.731 -0.1635  0.6182 -0.9735
31283SOL    HW1  710   4.340   2.817   6.741 -0.0598  0.3651 -1.8824
31283SOL    HW2  711   4.478   2.837   6.682  1.3531  0.3344  1.2508
31284SOL     OW  712   4.412   8.225   3.900  0.3494  0.3808  0.2511
31284SOL    HW1  713   4.446   8.142   3.868  1.8133  1.0131  0.0844
31284SOL    HW2  714   4.432   8.287   3.830 -0.4026  0.9379  0.5216
31285SOL     OW  715   6.293   9.029   3.290  0.2123 -0.2872 -0.1626
31285SOL    HW1  716   6.311   9.047   3.383 -1.7657  1.9511 -0.1081
31285SOL    HW2  717   6.270   8.936   3.288  0.5420 -0.4464  1.5376
31286SOL     OW  718  11.941  10.299  11.197  0.0687 -0.3705  0.3070
31286SOL    HW1  719  11.944  10.286  11.102 -1.3747  1.3739 -0.0145
31286SOL    HW2  720  11.874  10.238  11.227  0.0723 -0.4630  0.1293
31287SOL     OW  721  11.113   5.287   1.033 -0.1843 -0.6086  0.1348
31287SOL    HW1  722  11.078   5.269   0.946 -0.1795  3.0080 -0.7693
31287SOL    HW2  723  11.035   5.288   1.090 -0.8953  1.5513 -0.7686
31288SOL     OW  724   3.985  12.442  11.595 -0.0266 -0.6680 -0.6127
31288SOL    HW1  725   3.929  12.520  11.593 -0.3633 -0.8431  0.6942
31288SOL    HW2  726   4.060  12.464  11.540 -0.8720 -0.0272 -1.5396
31289SOL     OW  727   9.486   2.897   1.898 -0.0806 -0.1490 -0.3959
31289SOL    HW1  728   9.410   2.936   1.942 -1.1791 -1.0928 -1.3745
31289SOL    HW2  729   9.516   2.964   1.837 -0.0964  0.2391  0.0159
31290SOL     OW  730  11.941   0.486   1.689  0.5573 -0.0073  0.6264
31290SOL    HW1  731  11.977   0.477   1.600  0.6070 -0.5040  0.6943
31290SOL    HW2  732  12.015   0.466   1.746  0.6778  0.8773  0.7916
31291SOL     OW  733   2.935   3.433  12.140  0.2362  0.1067  0.1289
31291SOL    HW1  734   3.028   3.456  12.133 -0.3028  2.0232 -1.7658
31291SOL    HW2  735   2.908   3.469  12.225  1.1389 -0.2278  0.5722
31292SOL     OW  736   2.341   5.299   1.646  0.5601  0.0945 -0.1201
31292SOL    HW1  737   2.255   5.276   1.612  0.6249  0.6280 -0.6741
31292SOL    HW2  738   2.383   5.347   1.574  0.9840  0.6050  0.4510
31293SOL     OW  739   5.546   1.672  11.991  0.1431 -0.1462 -0.1609
31293SOL    HW1  740   5.622   1.652  12.045 -1.8555  3.0746  4.4976
31293SOL    HW2  741   5.558   1.763  11.965 -0.7987 -0.4900 -1.9505
31294SOL     OW  742   2.707   2.865   2.413 -0.2519  0.0075 -0.2620
31294SOL    HW1  743   2.723   2.956   2.390 -1.3348  0.4826  0.7432
31294SOL    HW2  744   2.773   2.845   2.479 -0.6991  0.4172  0.3165
31295SOL     OW  745   1.544   6.240  10.731  0.5815 -0.0819 -0.5647
31295SOL    HW1  746   1.513   6.149  10.736 -1.2329  0.5572  2.7512
31295SOL    HW2  747   1.474   6.286  10.684  0.0865  0.0639  0.2977
31296SOL     OW  748   8.565   1.101   5.589 -0.2529  0.3484 -0.1499
31296SOL    HW1  749   8.627   1.043   5.545 -0.8832 -1.5599  1.3356
31296SOL    HW2  750   8.506   1.131   5.519  0.8095  0.1722 -1.1415
31297SOL     OW  751   7.541   3.398   3.593 -0.1938 -0.2714  0.8990
31297SOL    HW1  752   7.577   3.468   3.540 -0.0504 -1.7460 -1.0438
31297SOL    HW2  753   7.450   3.422   3.606  0.0185  0.5942  0.8474
31298SOL     OW  754   7.149  12.211  11.502  0.2771 -0.0108 -0.0178
31298SOL    HW1  755   7.067  12.186  11.545  1.3610 -1.2579  1.3964
31298SOL    HW2  756   7.172  12.295  11.542 -0.8781  0.9745 -1.2982
31299SOL     OW  757  11.476   5.123   5.170  0.3109  0.3015  0.2384
31299SOL    HW1  758  11.428   5.138   5.088  1.5666  1.2427 -0.3489
31299SOL    HW2  759  11.494   5.029   5.170  0.4463  0.3216 -0.6533
31300SOL     OW  760   2.995  11.379   0.280  0.5149 -0.1629 -0.1240
31300SOL    HW1  761   2.926  11.331   0.234  1.2370 -1.4475  0.0715
31300SOL    HW2  762   3.053  11.409   0.211 -0.0571  0.6591 -0.2657
31301SOL     OW  763   8.679   9.536   2.498 -0.9456 -0.4768  0.7826
31301SOL    HW1  764   8.757   9.538   2.553 -0.6978  1.4181  0.4128
31301SOL    HW2  765   8.687   9.454   2.448  0.9241 -0.2077  0.5841
31302SOL     OW  766   0.525  11.557   9.718 -0.3862  0.0154 -0.3844
31302SOL    HW1  767   0.549  11.467   9.698 -0.3448  0.6315 -3.5614
31302SOL    HW2  768   0.442  11.549   9.766  1.2058 -1.7279  2.3493
31303SOL     OW  769   8.682  11.825   9.930 -0.0339 -0.3107  0.7504
31303SOL    HW1  770   8.626  11.747   9.931 -0.8187  0.2375  1.1053
31303SOL    HW2  771   8.621  11.897   9.947  0.4727  0.5156 -0.7942
31304SOL     OW  772   0.891   8.960  11.741 -0.8542 -0.6442  0.3901
31304SOL    HW1  773   0.826   8.891  11.754 -0.7976 -0.5948  0.9606
31304SOL    HW2  774   0.971   8.926  11.783 -0.1776 -1.1796 -1.2649
31305SOL     OW  775   1.713  12.286  11.784 -0.2587  0.2594 -0.3541
31305SOL    HW1  776   1.799  12.322  11.808 -0.2118  0.6318 -1.0428
31305SOL    HW2  777   1.732  12.217  11.720 -0.4002 -0.4979  0.4065
31306SOL     OW  778   7.556   7.494  11.659  0.0173 -0.1890  0.0802
31306SOL    HW1  779   7.530   7.419  11.605 -0.4726 -0.2229  0.3635
31306SOL    HW2  780   7.572   7.565  11.596 -2.7388  0.4545 -0.0039
31307SOL     OW  781  12.014   6.750   0.744 -0.3642  0.0816  0.3175
31307SOL    HW1  782  11.988   6.774   0.655  0.3519 -0.6434 -0.1014
31307SOL    HW2  783  11.948   6.688   0.774 -0.7344  0.5057  0.3837
31308SOL     OW  784  10.301   6.128   9.841  0.5942 -0.3359  0.1649
31308SOL    HW1  785  10.389   6.092   9.848  0.7178 -0.4076 -1.3544
31308SOL    HW2  786  10.258   6.104   9.923  1.6766 -1.1585  0.5083
31309SOL     OW  787   5.887  11.490   4.581 -0.6296 -0.0867 -0.3084
31309SOL    HW1  788   5.964  11.434   4.587  0.3395  1.1370 -0.8842
31309SOL    HW2  789   5.843  11.480   4.666  1.4176  0.9201  0.9509
31310SOL     OW  790   4.564   8.022  11.136 -0.0281 -0.0284  0.1456
31310SOL    HW1  791   4.565   7.937  11.181  0.1442  0.8409  1.8853
31310SOL    HW2  792   4.648   8.025  11.089  0.6574 -0.2189  1.3092
31311SOL     OW  793   8.081  10.298   2.695  0.0602 -0.2843  0.2141
31311SOL    HW1  794   8.052  10.286   2.786 -0.8767  0.5696  0.0425
31311SOL    HW2  795   8.004  10.333   2.650  1.4758  2.7734 -0.0990
31312SOL     OW  796   5.843   0.621   4.227 -0.5705  0.0517  0.0870
31312SOL    HW1  797   5.848   0.527   4.210  4.2646 -0.2698  1.5680
31312SOL    HW2  798   5.827   0.628   4.321 -0.4304  0.6456  0.0715
31313SOL     OW  799   6.926   1.721   1.294  0.0761  0.0020 -0.1742
31313SOL    HW1  800   6.920   1.809   1.256  0.4323  0.2090  0.2441
31313SOL    HW2  801   7.002   1.682   1.250  1.0779  0.5825  0.9941
31314SOL     OW  802   9.976  12.412   5.333  0.0183  0.4885 -0.1804
31314SOL    HW1  803   9.948  12.504   5.336 -0.1209  0.4755 -0.8878
31314SOL    HW2  804   9.948  12.382   5.246  0.1834 -0.1849 -0.0005
31315SOL     OW  805   9.943   9.134   5.026  0.2308 -0.7919 -0.2499
31315SOL    HW1  806   9.934   9.109   4.934 -1.6831 -1.2232  0.0011
31315SOL    HW2  807   9.960   9.228   5.024 -1.3335 -0.4909 -1.0444
31316SOL     OW  808   0.595   6.707   1.394 -0.8462  0.4255 -0.0308
31316SOL    HW1  809   0.614   6.800   1.381 -1.8057  0.6435  0.1188
31316SOL    HW2  810   0.663   6.678   1.455  1.4099  0.2809 -2.3851
31317SOL     OW  811   3.198   3.399   9.620  0.0896 -0.1614 -0.3493
31317SOL    HW1  812   3.134   3.465   9.591 -1.1129 -1.2922 -0.3403
31317SOL    HW2  813   3.203   3.410   9.715  0.0765  0.0581 -0.3723
31318SOL     OW  814   1.511   4.294   9.192 -0.1107 -0.1695 -0.5102
31318SOL    HW1  815   1.465   4.377   9.184 -0.6612 -0.4563 -0.3364
31318SOL    HW2  816   1.456   4.231   9.147  1.3232 -0.0845 -2.5377
31319SOL     OW  817  11.114   6.033   9.796  0.6068  0.6187  0.2844
31319SOL    HW1  818  11.163   5.953   9.819  1.3141  0.8963 -0.2052
31319SOL    HW2  819  11.085   6.068   9.880  2.0519  0.9292  0.6879
31320SOL     OW  820   3.781   9.583   2.004 -0.0744  0.1293  0.4161
31320SOL    HW1  821   3.865   9.551   1.971 -0.8266 -0.1724 -1.2940
31320SOL    HW2  822   3.758   9.656   1.946 -0.6308  0.7200  1.3486
31321SOL     OW  823  10.099  12.477   6.671  0.6105 -0.5888 -0.4392
31321SOL    HW1  824  10.009  12.456   6.645  0.4081 -0.6907  0.3161
31321SOL    HW2  825  10.154  12.437   6.603  0.0735  0.0536 -1.2839
31322SOL     OW  826  10.927   1.582   5.539  0.0225  0.1005 -0.0585
31322SOL    HW1  827  10.978   1.505   5.515 -0.5605 -1.1454  2.3653
31322SOL    HW2  828  10.986   1.656   5.525  1.2124 -0.9563 -0.7612
31323SOL     OW  829   4.036  11.008   5.824 -0.2202 -0.3005  0.3058
31323SOL    HW1  830   4.091  11.066   5.771 -1.5621  0.0081 -0.8192
31323SOL    HW2  831   4.044  11.041   5.913 -0.8861  1.6126 -0.2853
31324SOL     OW  832   3.100   3.125  12.370 -0.3354  0.7236  0.2624
31324SOL    HW1  833   3.196   3.121  12.363 -0.3952 -0.1815 -0.0442
31324SOL    HW2  834   3.084   3.208  12.416  0.6071  0.7076  0.6474
31325SOL     OW  835   0.546   5.359   8.872  0.1894  0.1011  0.0368
31325SOL    HW1  836   0.451   5.372   8.868  0.3994  2.2320  0.8190
31325SOL    HW2  837   0.577   5.375   8.783 -0.0911  0.2527 -0.0326
31326SOL     OW  838   1.632   3.688  11.908 -0.4756  0.2442  0.3353
31326SOL    HW1  839   1.587   3.622  11.856  0.9061 -1.5236  1.2557
31326SOL    HW2  840   1.614   3.771  11.863 -0.0174 -1.0665 -2.4780
31327SOL     OW  841  12.047   3.180   7.217 -0.5329  0.2863 -0.1794
31327SOL    HW1  842  12.054   3.192   7.312 -0.7463  2.2805 -0.3692
31327SOL    HW2  843  12.114   3.238   7.181 -0.4796 -0.4253 -1.2671
31328SOL     OW  844   6.872   1.246   8.424  0.4222 -0.1154  0.1732
31328SOL    HW1  845   6.884   1.196   8.343 -1.8207 -0.6232  0.0973
31328SOL    HW2  846   6.867   1.180   8.493  1.4987  0.2773  0.6589
31329SOL     OW  847   4.947  10.465   0.527  0.5940 -0.0607  0.2442
31329SOL    HW1  848   4.972  10.558   0.527  0.5994 -0.0625  0.1319
31329SOL    HW2  849   4.963  10.436   0.616  0.1071  0.1826  0.4181
31330SOL     OW  850   1.110   2.493   2.002  0.3370  0.3363  0.1663
31330SOL    HW1  851   1.047   2.489   1.930  1.2668  1.8284 -0.7804
31330SOL    HW2  852   1.072   2.438   2.070  0.0651 -2.2816 -1.9127
31331SOL     OW  853   4.138   7.183   7.362 -0.6156 -0.0529 -0.1766
31331SOL    HW1  854   4.223   7.181   7.406 -1.0130  1.1167  0.7246
31331SOL    HW2  855   4.106   7.093   7.368 -1.1449  0.2209  3.0782
31332SOL     OW  856   1.051   3.864   5.442 -0.9359  0.4420 -0.0448
31332SOL    HW1  857   1.093   3.946   5.466 -0.4040  0.2856 -0.4179
31332SOL    HW2  858   1.056   3.861   5.346 -0.4310 -0.2921  0.0019
31333SOL     OW  859   2.797   1.976   3.716  0.2060  0.4098 -0.4287
31333SOL    HW1  860   2.804   1.927   3.635  0.5398 -1.9627  0.9507
31333SOL    HW2  861   2.875   1.952   3.766 -0.7856  0.5076  1.2497
31334SOL     OW  862   7.084   5.470   6.126  0.0062  0.2230  0.2023
31334SOL    HW1  863   7.026   5.443   6.054  0.2853  0.2805 -0.0449
31334SOL    HW2  864   7.170   5.437   6.100 -0.0508 -0.5212  0.9270
31335SOL     OW  865   2.396   0.659   1.801 -0.2961 -0.1594  0.3467
31335SOL    HW1  866   2.457   0.633   1.871 -0.6986 -1.0088  0.3867
31335SOL    HW2  867   2.311   0.625   1.829 -0.7858  0.9249  0.2344
31336SOL     OW  868   0.232   8.804   4.308 -1.0033 -0.4390  0.5350
31336SOL    HW1  869   0.158   8.744   4.305 -1.9357  0.7038 -0.1714
31336SOL    HW2  870   0.255   8.819   4.216 -0.5214 -0.0301  0.7153
31337SOL     OW  871  12.189   5.196   1.672 -0.0604  0.6326 -0.3413
31337SOL    HW1  872  12.162   5.106   1.683  0.6185  0.2342 -1.6826
31337SOL    HW2  873  12.109   5.244   1.653 -0.5039  0.4350  0.9638
31338SOL     OW  874   1.301   7.919   1.244 -0.0874 -0.7903  0.3863
31338SOL    HW1  875   1.392   7.934   1.216  0.2830 -1.4180  1.1984
31338SOL    HW2  876   1.298   7.953   1.334 -0.9684  0.2457 -0.0201
31339SOL     OW  877   7.589   2.900  11.508 -0.6651 -0.1844  0.1057
31339SOL    HW1  878   7.597   2.868  11.418  2.3675  0.7427 -0.0649
31339SOL    HW2  879   7.554   2.988  11.499 -3.4537 -1.1938  0.1622
31340SOL     OW  880   3.479   1.163   0.563 -0.1552 -0.2063 -0.0589
31340SOL    HW1  881   3.468   1.223   0.489  0.1474 -0.0570  0.0169
31340SOL    HW2  882   3.551   1.106   0.537 -0.3069 -0.4066 -0.0427
31341SOL     OW  883  11.715  11.558   1.233  0.6784  0.2857  0.2169
31341SOL    HW1  884  11.652  11.621   1.269 -0.4344 -1.6501  1.8786
31341SOL    HW2  885  11.660  11.493   1.188  1.7577  0.1834 -1.0063
31342SOL     OW  886  10.639   1.245   1.924 -0.3685  0.0634  0.1048
31342SOL    HW1  887  10.728   1.223   1.897  0.0998  1.7608  0.1196
31342SOL    HW2  888  10.631   1.339   1.905 -2.1501 -0.0507  0.1331
31343SOL     OW  889   9.584   9.806   4.119  0.2023 -0.1256 -0.0499
31343SOL    HW1  890   9.596   9.781   4.210 -1.1685  0.7711  0.4040
31343SOL    HW2  891   9.521   9.743   4.084 -0.9482  0.8148  0.2598
31344SOL     OW  892  11.906   5.563   3.106  0.1551  0.0185 -0.0734
31344SOL    HW1  893  11.945   5.495   3.161 -0.8012 -0.7201 -0.2726
31344SOL    HW2  894  11.819   5.577   3.144  0.7670  2.0044  0.6892
31345SOL     OW  895   3.664   1.180   3.585  0.1670  0.5239  0.1621
31345SOL    HW1  896   3.604   1.106   3.569  0.8292 -0.1007  0.5124
31345SOL    HW2  897   3.673   1.221   3.499  0.2526 -0.1642 -0.1657
31346SOL     OW  898   3.864  10.069   7.717 -0.1711  0.2422 -0.7767
31346SOL    HW1  899   3.870  10.146   7.660 -1.3803  0.1347 -1.0797
31346SOL    HW2  900   3.949  10.026   7.709 -0.0511  0.6615 -1.8878
31347SOL     OW  901   9.206  11.941   6.834  0.2087  0.4641 -0.6122
31347SOL    HW1  902   9.261  11.964   6.908 -0.8733  2.6690 -0.3975
31347SOL    HW2  903   9.211  11.846   6.828  1.2946  0.3356  1.5124
31348SOL     OW  904   2.069  10.929  12.001 -0.0367 -0.1077 -0.1521
31348SOL    HW1  905   2.125  10.996  12.040 -0.7592  0.3948  0.0335
31348SOL    HW2  906   1.980  10.955  12.023 -0.5154  0.4735 -2.5212
31349SOL     OW  907   8.741   8.290   5.993  0.0621  0.1224  0.6547
31349SOL    HW1  908   8.656   8.247   5.997  0.2158 -0.2527  0.0719
31349SOL    HW2  909   8.794   8.244   6.059  0.2887 -0.7495 -0.1078
31350SOL     OW  910   5.572   6.197   4.330  0.1129 -0.1801 -0.4988
31350SOL    HW1  911   5.600   6.288   4.318  2.3830 -0.7245  0.2478
31350SOL    HW2  912   5.627   6.147   4.271  0.3246 -1.2646  0.5884
31351SOL     OW  913   1.296   1.348   6.157  0.1634  0.3356  0.3901
31351SOL    HW1  914   1.381   1.372   6.194 -1.1727  0.8547  3.4763
31351SOL    HW2  915   1.249   1.431   6.146 -0.6817 -0.0644  0.8229
31352SOL     OW  916  10.085   9.821   3.896 -0.4082  0.1776 -0.1305
31352SOL    HW1  917  10.039   9.738   3.909  0.3785 -0.3629 -0.6662
31352SOL    HW2  918  10.149   9.802   3.828 -0.5455  1.3720 -0.6078
31353SOL     OW  919  12.436   8.241  12.174 -0.4132  0.0844  0.2756
31353SOL    HW1  920  12.435   8.163  12.229 -0.8965 -0.0796  0.0428
31353SOL    HW2  921  12.343   8.260  12.156 -0.3304  1.0071  0.7395
31354SOL     OW  922   4.006   3.416   6.287  0.5610 -0.1418  0.3311
31354SOL    HW1  923   4.059   3.496   6.287 -1.9538  1.6636  1.5915
31354SOL    HW2  924   4.022   3.377   6.373  1.3799 -0.7462 -0.0820
31355SOL     OW  925   7.230  10.674   8.726  0.1606 -0.0662 -0.1239
31355SOL    HW1  926   7.194  10.759   8.700  1.5286  0.2033 -1.2413
31355SOL    HW2  927   7.172  10.610   8.687 -0.7622  0.3397  0.5476
31356SOL     OW  928   9.850   6.747   3.122  0.3532  0.8207  0.1386
31356SOL    HW1  929   9.836   6.794   3.204 -1.1546  1.0350 -0.1950
31356SOL    HW2  930   9.855   6.816   3.056  1.2630  0.6360  0.0137
31357SOL     OW  931   2.783   9.872   4.116 -0.2291 -0.2142  0.0626
31357SOL    HW1  932   2.701   9.841   4.153  0.4674 -1.1003  0.8971
31357SOL    HW2  933   2.851   9.840   4.176  0.5936  2.4418  0.6993
31358SOL     OW  934   5.299   4.239   9.416 -0.6898 -0.2018 -0.2497
31358SOL    HW1  935   5.238   4.220   9.344  1.2450 -1.5013 -1.6643
31358SOL    HW2  936   5.315   4.333   9.409 -1.5202 -0.0812 -0.6942
31359SOL     OW  937  11.246   2.721   2.270 -0.4556 -0.1370 -0.0939
31359SOL    HW1  938  11.268   2.713   2.363 -0.1936 -1.2633 -0.2344
31359SOL    HW2  939  11.295   2.797   2.240 -0.3341  0.0788  0.6319
31360SOL     OW  940   2.634   3.614   8.003  0.0391 -0.3368 -0.0481
31360SOL    HW1  941   2.603   3.562   7.929  0.3879 -0.3137 -0.2168
31360SOL    HW2  942   2.727   3.629   7.984  0.2302 -0.6520  0.5798
31361SOL     OW  943  10.566   3.157   3.866  0.1311  0.0678 -0.1287
31361SOL    HW1  944  10.507   3.217   3.820 -0.6837 -0.6875 -0.1120
31361SOL    HW2  945  10.646   3.158   3.814 -0.4751 -0.1100 -1.1039
31362SOL     OW  946   4.922   0.960   8.037 -0.0827  0.1584  0.6477
31362SOL    HW1  947   4.973   0.894   8.083 -0.6946  0.4756  1.8183
31362SOL    HW2  948   4.973   1.040   8.045 -0.5102  0.3680  1.4019
31363SOL     OW  949  11.814   5.598   9.031 -0.3485  0.2933  0.4442
31363SOL    HW1  950  11.902   5.563   9.016 -0.0138  0.0410  2.6428
31363SOL    HW2  951  11.820   5.690   9.004  0.7191  0.3884  0.9527
31364SOL     OW  952   3.581  10.590   0.442 -0.0344  0.7921  0.0391
31364SOL    HW1  953   3.523  10.530   0.396  0.1175 -0.9359  1.9296
31364SOL    HW2  954   3.663  10.588   0.392 -0.9059  1.6784 -1.4987
31365SOL     OW  955   9.549   0.020   7.851 -0.1586  0.0215  0.4319
31365SOL    HW1  956   9.470  -0.015   7.810 -0.4494  0.9898  0.1187
31365SOL    HW2  957   9.621  -0.031   7.813 -0.6106 -0.7198  0.5539
31366SOL     OW  958  11.759   1.978   7.580  0.3527  0.8435  0.4096
31366SOL    HW1  959  11.763   1.946   7.490 -3.2630  1.2155 -0.0408
31366SOL    HW2  960  11.693   1.923   7.623 -1.0744  3.2482  1.5628
31367SOL     OW  961  11.957   8.548   1.335 -0.0765 -0.1689  0.0929
31367SOL    HW1  962  11.939   8.466   1.380  2.1493  0.2906  2.0358
31367SOL    HW2  963  11.926   8.534   1.245 -0.1653 -2.9367  0.4766
31368SOL     OW  964   2.156   5.584   7.926 -0.3225 -0.0988  0.5601
31368SOL    HW1  965   2.078   5.631   7.900 -0.8073 -0.6943  0.8967
31368SOL    HW2  966   2.137   5.553   8.015  0.6814  0.5797  1.0373
31369SOL     OW  967   0.305   2.949   6.221 -0.2698  0.0061  0.0632
31369SOL    HW1  968   0.215   2.916   6.227 -0.0830 -0.2738  1.5052
31369SOL    HW2  969   0.357   2.872   6.198  0.1259 -0.7759  3.1551
31370SOL     OW  970   4.291   3.565   5.749  0.4251 -0.4139  0.6904
31370SOL    HW1  971   4.265   3.531   5.835  2.5290 -0.4322  1.3808
31370SOL    HW2  972   4.310   3.657   5.764  2.8446 -0.8704  0.7932
31371SOL     OW  973  11.516   0.709   4.303 -0.4472 -0.1094  0.2981
31371SOL    HW1  974  11.607   0.730   4.321 -0.2263 -0.3824 -0.4331
31371SOL    HW2  975  11.478   0.790   4.269  0.0835 -0.5250 -1.3725
31372SOL     OW  976   4.069   1.166  11.668 -0.1016  0.1257 -0.6339
31372SOL    HW1  977   4.095   1.251  11.702 -0.8655  0.4388 -0.8197
31372SOL    HW2  978   4.125   1.103  11.714 -0.8764  0.5539  0.9573
31373SOL     OW  979   2.063   3.954   4.095 -0.0123  0.5050 -1.0659
31373SOL    HW1  980   2.005   4.030   4.103 -2.9534 -1.5428 -1.5788
31373SOL    HW2  981   2.050   3.905   4.176  1.3299  0.1742 -1.0354
31374SOL     OW  982   3.458   5.342   8.911  0.5009  0.3232 -0.3042
31374SOL    HW1  983   3.442   5.429   8.947  0.6876  0.6672 -1.0213
31374SOL    HW2  984   3.404   5.339   8.832 -0.4414 -0.6715  0.3484
31375SOL     OW  985   4.572   7.854   0.990  0.8225 -0.2846  0.1200
31375SOL    HW1  986   4.597   7.792   0.921 -0.5051  0.0056 -0.6554
31375SOL    HW2  987   4.654   7.900   1.011  1.1751 -0.0347 -1.6271
31376SOL     OW  988   5.380   6.840  10.822  0.1276  0.1865 -0.0234
31376SOL    HW1  989   5.467   6.831  10.782 -0.5895  0.6795 -1.7654
31376SOL    HW2  990   5.380   6.928  10.859  0.6808 -0.1596  0.8518
31377SOL     OW  991   5.295   7.453  11.719 -0.3651  0.1808  0.2028
31377SOL    HW1  992   5.342   7.460  11.636  0.1336  2.0608  0.6106
31377SOL    HW2  993   5.241   7.374  11.709  1.9433 -1.4105 -0.7328
31378SOL     OW  994  12.225   3.673   5.366 -0.8771  0.0438 -0.3818
31378SOL    HW1  995  12.244   3.762   5.339 -1.5535  1.5436  3.4438
31378SOL    HW2  996  12.310   3.634   5.384 -0.6628  0.4485 -0.5197
31379SOL     OW  997   9.878   7.880   2.247 -0.1500 -0.0684  0.2432
31379SOL    HW1  998   9.911   7.799   2.208 -1.5382 -0.5739  0.0675
31379SOL    HW2  999   9.920   7.950   2.197  2.2752 -0.6069  1.3774
31380SOL     OW 1000   4.023   7.454   0.949  0.3672  0.4604  0.1361
31380SOL    HW1 1001   4.014   7.504   0.868  2.1096  0.4034 -0.1239
31380SOL    HW2 1002   3.960   7.383   0.941  2.1684 -1.0278 -2.3237
31381SOL     OW 1003   8.293   2.795   9.293  0.2747 -0.1234 -0.4383
31381SOL    HW1 1004   8.332   2.833   9.372 -1.1556 -0.3623  0.4179
31381SOL    HW2 1005   8.200   2.819   9.299 -0.0604 -1.0884 -1.4877
31382SOL     OW 1006   1.409   7.810   4.475 -0.9322  0.7405  0.4991
31382SOL    HW1 1007   1.413   7.721   4.439  1.0715  0.7556  0.5543
31382SOL    HW2 1008   1.397   7.866   4.399  1.9397  0.6710 -0.1020
31383SOL     OW 1009  10.733   7.718  11.139 -0.0033  0.1743  0.2776
31383SOL    HW1 1010  10.736   7.745  11.231 -0.1779  0.9522  0.0622
31383SOL    HW2 1011  10.642   7.695  11.124  0.0911 -0.2746  0.3869
31384SOL     OW 1012   0.104   0.598   4.705  0.2953  0.0072 -0.3312
31384SOL    HW1 1013   0.067   0.550   4.631  0.2637  1.0221 -0.9977
31384SOL    HW2 1014   0.047   0.576   4.779 -0.0197 -0.5621 -0.7373
31385SOL     OW 1015   1.037   5.436   0.758  0.9592 -0.4675 -0.2091
31385SOL    HW1 1016   1.055   5.530   0.753 -1.1293  0.0074 -0.0666
31385SOL    HW2 1017   0.989   5.425   0.840 -1.4520 -1.0962 -1.6055
31386SOL     OW 1018   6.989   6.027   1.139 -0.2707 -0.1078  0.0493
31386SOL    HW1 1019   6.909   6.067   1.104  0.1642  0.5788 -0.1853
31386SOL    HW2 1020   7.059   6.087   1.113  0.2790 -0.5105  0.5686
31387SOL     OW 1021   2.153   1.366   9.533 -0.1938 -0.9957 -0.3631
31387SOL    HW1 1022   2.247   1.354   9.548 -0.2929 -0.1905  1.0458
31387SOL    HW2 1023   2.112   1.333   9.612 -0.9555  0.7174 -0.0054
31388SOL     OW 1024   6.221  12.471   1.724 -0.0671  0.2797  0.8132
31388SOL    HW1 1025   6.260  12.478   1.637  0.4405  1.2792  1.1054
31388SOL    HW2 1026   6.127  12.481   1.709  0.1403  2.2223  0.5239
31389SOL     OW 1027  12.236   1.683   9.035  0.0320 -0.4050 -0.7052
31389SOL    HW1 1028  12.170   1.752   9.032  0.4980  0.0418 -3.2959
31389SOL    HW2 1029  12.270   1.686   9.125  1.0167  3.7380 -1.0043
31390SOL     OW 1030   7.097   1.896   2.814  0.2408 -0.0857  0.0636
31390SOL    HW1 1031   7.008   1.931   2.813 -0.4306 -1.6957 -0.4626
31390SOL    HW2 1032   7.095   1.830   2.884  0.9662 -0.2621 -0.0763
31391SOL     OW 1033   5.154   0.713   6.941  0.1019 -0.3990  0.1521
31391SOL    HW1 1034   5.201   0.797   6.937 -1.4153  0.5590  1.1402
31391SOL    HW2 1035   5.094   0.724   7.015 -0.2125 -2.3383  0.2227
31392SOL     OW 1036   1.102   9.718   2.773  0.6388  0.4886  0.2071
31392SOL    HW1 1037   1.010   9.693   2.765  1.0356 -1.1845  0.6499
31392SOL    HW2 1038   1.100   9.800   2.822 -0.7253  1.6685 -1.6567
31393SOL     OW 1039   4.966  10.417   3.998 -0.8383 -0.7423 -0.4758
31393SOL    HW1 1040   4.913  10.401   4.077 -1.1181  0.2105 -0.4665
31393SOL    HW2 1041   4.955  10.337   3.946 -1.0564 -1.1788  0.2163
31394SOL     OW 1042   8.840   3.319   2.332  0.2829  0.0459 -0.2763
31394SOL    HW1 1043   8.827   3.404   2.374 -1.5129  0.1101 -0.8882
31394SOL    HW2 1044   8.792   3.324   2.250  1.8799 -0.8627 -1.3399
31395SOL     OW 1045   9.582   2.415   5.866  0.6077 -0.1331  0.0102
31395SOL    HW1 1046   9.656   2.356   5.854  0.0074 -0.2799 -4.4799
31395SOL    HW2 1047   9.604   2.492   5.813 -0.5390  1.8644  2.2556
31396SOL     OW 1048   1.367   3.394   9.576 -0.0454  0.0684 -0.1552
31396SOL    HW1 1049   1.320   3.364   9.498  0.7942  0.6848 -0.9295
31396SOL    HW2 1050   1.455   3.413   9.544  0.0270  1.3319  0.7228
31397SOL     OW 1051   5.668   1.777   9.450 -0.5686 -0.6901 -0.4491
31397SOL    HW1 1052   5.660   1.732   9.367  1.1562  1.5078 -1.9194
31397SOL    HW2 1053   5.756   1.756   9.481 -1.0705 -1.2189  0.7070
31398SOL     OW 1054   4.461   0.929   0.390  0.3670 -0.8690  0.2004
31398SOL    HW1 1055   4.411   0.934   0.308  0.2122 -0.2939  0.3218
31398SOL    HW2 1056   4.396   0.904   0.456  0.6843 -2.3342 -0.0061
31399SOL     OW 1057   7.360   8.253   5.953 -0.9324  0.3307 -0.0375
31399SOL    HW1 1058   7.299   8.301   5.896  0.7123  0.8787 -1.4028
31399SOL    HW2 1059   7.423   8.319   5.981  0.4846 -0.7182 -0.6938
31400SOL     OW 1060   5.985   3.923   8.138 -0.0304 -0.0113 -0.3323
31400SOL    HW1 1061   6.053   3.881   8.191 -0.9959 -2.1492 -0.7166
31400SOL    HW2 1062   6.031   3.996   8.096  1.0009  1.2077  2.6304
31401SOL     OW 1063   0.830   4.348   9.875 -0.1936  0.2883 -0.3677
31401SOL    HW1 1064   0.833   4.388   9.962 -0.1607  1.6723 -0.9832
31401SOL    HW2 1065   0.889   4.272   9.882 -2.4068 -1.4062  1.6321
31402SOL     OW 1066   8.301   1.473   7.810 -0.3195 -0.1390 -0.1178
31402SOL    HW1 1067   8.391   1.471   7.842  0.0767 -0.3557 -1.2242
31402SOL    HW2 1068   8.296   1.403   7.746 -0.6912  1.1542 -1.5653
31403SOL     OW 1069   6.561  10.586   5.043  0.0028 -0.5303 -0.1075
31403SOL    HW1 1070   6.593  10.564   4.956  1.5676  0.6173  0.1335
31403SOL    HW2 1071   6.534  10.678   5.037 -0.0028 -0.4758  0.5712
31404SOL     OW 1072  10.899   2.012   5.664 -0.0591  0.2228 -0.2036
31404SOL    HW1 1073  10.949   1.972   5.593 -0.3233 -0.3388 -0.0772
31404SOL    HW2 1074  10.952   1.997   5.742 -0.3989 -0.3376 -0.0761
31405SOL     OW 1075   3.868  11.726   3.034 -0.2225 -0.5854 -0.3431
31405SOL    HW1 1076   3.875  11.750   3.127 -0.4108  0.3201 -0.5559
31405SOL    HW2 1077   3.799  11.660   3.032  1.6208 -2.6955  0.5175
31406SOL     OW 1078   9.907   6.183  12.433 -0.2670 -0.1494  0.0372
31406SOL    HW1 1079   9.878   6.142  12.515 -2.0975  2.1419  0.6651
31406SOL    HW2 1080   9.992   6.222  12.454 -1.1882  1.3399  1.2890
31407SOL     OW 1081   8.019   1.791   1.499 -0.7812 -0.2154 -0.4357
31407SOL    HW1 1082   8.031   1.698   1.479  3.5131  0.0643  0.0611
31407SOL    HW2 1083   8.086   1.836   1.449 -0.9833  2.3482  1.3907
31408SOL     OW 1084   9.777   1.067   4.235 -1.0045 -0.0084  0.5751
31408SOL    HW1 1085   9.855   1.099   4.188 -0.7181 -0.0582  1.0056
31408SOL    HW2 1086   9.707   1.071   4.170 -0.1722 -2.2169 -0.5672
31409SOL     OW 1087   2.712   9.382  10.804  0.1497  0.9872 -0.6801
31409SOL    HW1 1088   2.728   9.312  10.742 -0.5364  0.6084 -0.4419
31409SOL    HW2 1089   2.748   9.460  10.762  0.5942  0.5618 -1.1027
31410SOL     OW 1090   6.699   4.060   3.997  0.8233  0.2930 -0.5434
31410SOL    HW1 1091   6.656   4.012   3.926 -0.3017  2.7268 -1.6390
31410SOL    HW2 1092   6.791   4.064   3.970  0.8844 -0.9509 -0.5679
31411SOL     OW 1093   5.874   9.333   6.000  1.0153 -0.5326  0.0222
31411SOL    HW1 1094   5.966   9.343   5.978  0.9463  0.5304  0.1703
31411SOL    HW2 1095   5.832   9.412   5.965  0.4761 -0.0796  1.6126
31412SOL     OW 1096  11.447   6.431   6.029 -0.1537  0.5887 -0.7071
31412SOL    HW1 1097  11.484   6.440   6.117 -4.0118  1.0487  1.0972
31412SOL    HW2 1098  11.433   6.521   6.000 -0.6163  0.4496 -0.9311
31413SOL     OW 1099  12.153   1.416  10.015  0.6522  0.6353 -0.0298
31413SOL    HW1 1100  12.205   1.340  10.040  0.5108  0.3735 -0.5220
31413SOL    HW2 1101  12.110   1.390   9.934  2.1446  1.9217 -1.2971
31414SOL     OW 1102   8.767   7.988  12.279  0.1947 -0.0044  0.3438
31414SOL    HW1 1103   8.685   8.034  12.259 -0.6802 -1.8039 -0.4731
31414SOL    HW2 1104   8.816   7.991  12.197  0.8954  0.9202  0.7832
31415SOL     OW 1105   7.698   5.370   6.231 -0.3071  0.4357 -0.5422
31415SOL    HW1 1106   7.656   5.450   6.198 -0.5996  0.2534 -0.6139
31415SOL    HW2 1107   7.626   5.308   6.242 -0.1411  0.3206 -0.0677
31416SOL     OW 1108   4.054   3.130   2.425  0.1933  0.3455  0.5616
31416SOL    HW1 1109   4.102   3.047   2.423  0.5573  0.5573 -1.4467
31416SOL    HW2 1110   4.122   3.197   2.414 -0.3455  0.7470 -0.4740
31417SOL     OW 1111  12.247   5.854   1.485  0.0338  0.0965  0.8441
31417SOL    HW1 1112  12.287   5.857   1.398 -1.3196  0.5245  0.2013
31417SOL    HW2 1113  12.289   5.780   1.529  0.1320 -0.6747 -0.4922
31418SOL     OW 1114  10.783   2.137   1.353  0.0590  0.3807  0.0021
31418SOL    HW1 1115  10.869   2.126   1.314 -0.0155  0.3709 -0.1603
31418SOL    HW2 1116  10.727   2.165   1.281 -0.1958 -0.1483 -0.0102
31419SOL     OW 1117   7.987   1.421   1.905  0.4918 -0.7553  0.4237
31419SOL    HW1 1118   7.995   1.367   1.826  1.1014 -0.1299  0.0473
31419SOL    HW2 1119   8.048   1.381   1.967  0.7224 -0.6890  0.2446
31420SOL     OW 1120   2.306   9.663   1.827 -0.4494 -0.1012 -0.1621
31420SOL    HW1 1121   2.349   9.599   1.883 -0.7803  0.1554  0.3986
31420SOL    HW2 1122   2.370   9.734   1.818 -0.4242 -0.1091 -0.0448
31421SOL     OW 1123   9.674  11.447   4.924 -0.2263 -0.0519  0.0054
31421SOL    HW1 1124   9.614  11.376   4.947  0.0776 -0.0076  0.9738
31421SOL    HW2 1125   9.743  11.404   4.873 -0.6854 -0.2279 -0.4762
31422SOL     OW 1126  12.311   2.690   7.448 -0.1411 -0.0038 -0.6911
31422SOL    HW1 1127  12.356   2.765   7.408 -0.7911 -0.0636 -1.5826
31422SOL    HW2 1128  12.347   2.683   7.536  0.6795  0.7149 -0.9644
31423SOL     OW 1129   5.464   5.180   2.821 -0.4190 -0.0930  0.1214
31423SOL    HW1 1130   5.477   5.116   2.891  0.0145  0.7893  0.8880
31423SOL    HW2 1131   5.402   5.243   2.858  0.5174  0.8866  0.0897
31424SOL     OW 1132   1.489   5.555   7.105 -0.2603 -0.2673  0.2652
31424SOL    HW1 1133   1.489   5.612   7.182  0.1394  1.7938 -1.1854
31424SOL    HW2 1134   1.485   5.615   7.030  0.2829 -2.1488 -1.3560
31425SOL     OW 1135   8.151   9.883   3.570  0.4987 -0.1062 -0.0376
31425SOL    HW1 1136   8.166   9.789   3.571 -1.1355 -0.3981  0.7332
31425SOL    HW2 1137   8.131   9.903   3.478  1.5426 -0.3762 -0.3303
31426SOL     OW 1138   5.618  12.467  12.025  0.4920  0.0017 -0.2314
31426SOL    HW1 1139   5.618  12.381  12.068 -0.8912 -0.7436 -1.6007
31426SOL    HW2 1140   5.543  12.513  12.062  0.3064  0.0073 -0.6063
31427SOL     OW 1141   3.255   1.149   8.915  0.2789  0.5239  0.2557
31427SOL    HW1 1142   3.164   1.162   8.942 -0.0006 -1.0679  0.1424
31427SOL    HW2 1143   3.296   1.234   8.931 -0.8995  0.8864  1.6135
31428SOL     OW 1144  11.485   7.468   7.085  0.3067  0.0280 -0.4377
31428SOL    HW1 1145  11.526   7.395   7.131 -0.5101  0.0956  0.4117
31428SOL    HW2 1146  11.529   7.546   7.119  0.1762  0.0302 -0.2720
31429SOL     OW 1147  11.220   5.356   7.586  0.6035  0.7272 -0.2754
31429SOL    HW1 1148  11.251   5.298   7.656 -0.2160 -0.0116 -0.5028
31429SOL    HW2 1149  11.240   5.307   7.506 -0.2541  0.6776 -0.4619
31430SOL     OW 1150   3.342   3.479   2.844 -0.9591 -0.2499  0.3025
31430SOL    HW1 1151   3.434   3.455   2.833 -1.1080 -1.3022  1.2154
31430SOL    HW2 1152   3.294   3.415   2.791 -1.2074 -0.0998  0.3434
31431SOL     OW 1153  11.226   3.001   8.628 -0.5044  0.4010 -0.1882
31431SOL    HW1 1154  11.321   3.007   8.621 -0.5109  0.6449 -0.0977
31431SOL    HW2 1155  11.195   3.005   8.537 -0.3250 -1.8157 -0.3869
31432SOL     OW 1156  12.009   7.809   9.754  0.4439  0.0278  0.1435
31432SOL    HW1 1157  12.017   7.838   9.663 -2.0246 -0.2673 -0.2377
31432SOL    HW2 1158  12.030   7.716   9.752  1.1593  0.1859  0.0332
31433SOL     OW 1159   9.465   9.495   7.475  0.2634 -0.2641  0.6939
31433SOL    HW1 1160   9.382   9.484   7.520  0.5507  0.9229  1.5604
31433SOL    HW2 1161   9.503   9.407   7.472 -1.7618 -1.1635 -1.2997
31434SOL     OW 1162   8.170  10.354   9.862 -0.5830 -0.0461  0.3992
31434SOL    HW1 1163   8.184  10.440   9.902 -1.0551 -0.2381  1.0024
31434SOL    HW2 1164   8.108  10.311   9.921  0.8058 -1.3787  0.9674
31435SOL     OW 1165   6.763   3.189   0.200 -0.5246  0.2240 -0.3268
31435SOL    HW1 1166   6.801   3.205   0.114 -1.2720 -0.0802 -0.7199
31435SOL    HW2 1167   6.736   3.275   0.231 -0.6358  0.2846 -0.5873
31436SOL     OW 1168   2.839   9.870   9.812  0.1004  0.0202  0.7374
31436SOL    HW1 1169   2.764   9.849   9.868 -0.4341  1.4663  0.6131
31436SOL    HW2 1170   2.858   9.962   9.831  0.8910  0.0962 -0.3333
31437SOL     OW 1171   7.209   0.709   7.360 -0.6935 -0.2691  0.1150
31437SOL    HW1 1172   7.227   0.623   7.324 -2.2301 -0.4930 -0.1726
31437SOL    HW2 1173   7.204   0.695   7.455 -0.2686 -0.3617  0.1252
31438SOL     OW 1174   3.628   9.319   0.095  0.5835  0.1144  0.4603
31438SOL    HW1 1175   3.649   9.355   0.181 -0.3400  1.4953  0.1315
31438SOL    HW2 1176   3.635   9.393   0.035 -0.3099 -0.4710 -0.4055
31439SOL     OW 1177   7.556   2.882   3.341 -0.0865  0.3243  0.2861
31439SOL    HW1 1178   7.635   2.925   3.310  1.0846 -1.1426  1.0746
31439SOL    HW2 1179   7.534   2.819   3.273 -0.6763  0.8292  0.0020
31440SOL     OW 1180  11.461   9.485   5.146 -0.7507 -0.2512 -0.5025
31440SOL    HW1 1181  11.527   9.420   5.168 -0.7989 -0.2537 -0.3626
31440SOL    HW2 1182  11.381   9.435   5.133 -1.1054 -0.1146  0.9279
31441SOL     OW 1183   4.180   1.322   3.498  0.3074 -0.0200 -0.1059
31441SOL    HW1 1184   4.108   1.383   3.484 -1.1714 -1.6721  0.0726
31441SOL    HW2 1185   4.224   1.318   3.413 -0.2926  0.3929 -0.4454
31442SOL     OW 1186   7.774   2.346  11.997 -0.5468 -0.0980 -0.0025
31442SOL    HW1 1187   7.722   2.405  11.943  1.0904 -1.5601 -3.5057
31442SOL    HW2 1188   7.864   2.361  11.969  0.1317 -2.7514  0.4296
31443SOL     OW 1189   6.775   9.472   7.511  0.0112  0.0010  0.1182
31443SOL    HW1 1190   6.822   9.406   7.460  0.9158  0.9860 -0.3736
31443SOL    HW2 1191   6.711   9.423   7.562 -0.2922 -1.1110 -1.2703
31444SOL     OW 1192   4.126   5.392   8.172 -0.2512 -0.4072 -0.2999
31444SOL    HW1 1193   4.093   5.465   8.119  0.9723 -1.1561 -2.2105
31444SOL    HW2 1194   4.220   5.392   8.157 -0.2600 -2.6129 -0.7191
31445SOL     OW 1195   1.360   5.378  12.264  0.1868 -0.1213 -0.2972
31445SOL    HW1 1196   1.377   5.450  12.325  2.2816  0.4579 -1.4580
31445SOL    HW2 1197   1.341   5.303  12.320  2.4176  0.2839  1.1532
31446SOL     OW 1198   5.972   0.456   0.725  0.0651  0.5220  0.4714
31446SOL    HW1 1199   5.939   0.546   0.732 -1.1023  0.0227  1.9063
31446SOL    HW2 1200   6.010   0.452   0.637 -0.7921  2.1167 -0.0277
31447SOL     OW 1201  10.201   9.687   0.757  0.0249 -0.1914 -0.4194
31447SOL    HW1 1202  10.194   9.728   0.844 -1.5682 -0.2941 -0.4668
31447SOL    HW2 1203  10.175   9.756   0.696 -0.5324 -0.6105 -0.6694
31448SOL     OW 1204   4.685  12.103   5.985  0.2810  0.3875 -0.0137
31448SOL    HW1 1205   4.733  12.061   5.913  0.4316  0.1688  0.2122
31448SOL    HW2 1206   4.735  12.081   6.063 -0.9194 -1.0121  0.4136
31449SOL     OW 1207  11.611   0.236  10.571 -0.5778 -0.5096  0.2337
31449SOL    HW1 1208  11.539   0.244  10.507 -1.1497 -1.3224  0.7610
31449SOL    HW2 1209  11.685   0.278  10.528 -0.9379 -1.0847 -0.9990
31450SOL     OW 1210   5.087   9.704   3.251 -0.2091  0.1121 -0.4336
31450SOL    HW1 1211   5.143   9.683   3.176 -1.0629 -0.2734 -0.9761
31450SOL    HW2 1212   5.140   9.764   3.304  0.9275 -0.6641 -0.6441
31451SOL     OW 1213   4.455   4.960   0.244  0.0748  0.2738 -0.0796
31451SOL    HW1 1214   4.403   4.950   0.164 -1.2744  1.0960  0.6726
31451SOL    HW2 1215   4.506   4.879   0.250  2.3134  1.2274 -3.2275
31452SOL     OW 1216   9.344   6.413   0.086 -0.2819  0.2914  0.3535
31452SOL    HW1 1217   9.297   6.386   0.007  1.1803  2.9036 -1.5877
31452SOL    HW2 1218   9.312   6.502   0.104  0.3258  0.2163  1.9692
31453SOL     OW 1219   8.622  12.195   3.739  0.2651  0.0091  0.0163
31453SOL    HW1 1220   8.555  12.225   3.800 -1.3404 -2.0606 -0.6141
31453SOL    HW2 1221   8.705  12.210   3.785 -0.6696  1.6437  1.2582
31454SOL     OW 1222   0.592  10.758   1.595  0.2893 -0.3947 -0.0551
31454SOL    HW1 1223   0.605  10.808   1.676 -0.4323  0.6317 -0.5479
31454SOL    HW2 1224   0.573  10.824   1.529 -1.5058 -1.3526 -0.5693
31455SOL     OW 1225  12.368   3.399   7.761  0.1203  0.4678  0.2979
31455SOL    HW1 1226  12.415   3.378   7.841  0.8188  1.0440  0.0490
31455SOL    HW2 1227  12.287   3.348   7.766  0.8637 -0.7123  0.6270
31456SOL     OW 1228   1.870   8.028  10.067 -0.4663 -0.5139 -0.0160
31456SOL    HW1 1229   1.896   7.940  10.094 -0.2847 -0.3772  0.2529
31456SOL    HW2 1230   1.817   8.013   9.988 -0.5443 -0.8734  0.0993
31457SOL     OW 1231   4.560   2.464   1.036 -0.1902  0.0178  0.3413
31457SOL    HW1 1232   4.573   2.537   0.976  0.0564 -0.6922 -0.4970
31457SOL    HW2 1233   4.649   2.431   1.053 -0.2667  0.1444  1.0166
31458SOL     OW 1234  12.423   8.945  10.637 -0.2469 -0.1054  0.2739
31458SOL    HW1 1235  12.373   8.983  10.710  1.3455  0.7695  0.9407
31458SOL    HW2 1236  12.483   8.884  10.679  0.6616  0.3772 -0.3117
31459SOL     OW 1237   0.765   0.949   3.543 -0.3600  0.0174 -0.4926
31459SOL    HW1 1238   0.855   0.919   3.555 -0.2147  0.2617 -0.9833
31459SOL    HW2 1239   0.773   1.043   3.529 -0.9065  0.6566  2.6009
31460SOL     OW 1240  11.237   3.089   9.363 -0.0196  0.3595 -0.0219
31460SOL    HW1 1241  11.226   3.104   9.457 -1.1813  1.0847 -0.2580
31460SOL    HW2 1242  11.259   3.176   9.328 -0.8988  0.3582 -0.5922
31461SOL     OW 1243   0.076   8.827  10.138 -0.0020  0.3717 -0.1674
31461SOL    HW1 1244   0.160   8.843  10.095  0.1785 -1.1345 -0.4164
31461SOL    HW2 1245   0.012   8.875  10.086  0.7377  1.9675  0.3184
31462SOL     OW 1246   2.540   7.925   2.291  0.1947  0.1949 -0.4235
31462SOL    HW1 1247   2.615   7.947   2.346  0.6960  0.0141 -1.0214
31462SOL    HW2 1248   2.474   7.991   2.313  0.2988 -0.0224  0.5614
31463SOL     OW 1249   4.861   3.564   3.497 -0.1786 -0.1717  0.3460
31463SOL    HW1 1250   4.880   3.472   3.480  1.6027  0.5190 -2.0728
31463SOL    HW2 1251   4.940   3.596   3.542 -0.0640  0.4758 -0.2867
31464SOL     OW 1252   2.289   6.616   0.947  0.1671 -0.5727  0.2493
31464SOL    HW1 1253   2.235   6.616   1.026  1.7806  0.9761  1.4416
31464SOL    HW2 1254   2.242   6.561   0.885 -2.0811 -0.3410  1.6620
31465SOL     OW 1255  10.315   7.347   6.708 -0.4533  0.0545  0.1442
31465SOL    HW1 1256  10.394   7.388   6.745 -1.7182  1.9681  0.8998
31465SOL    HW2 1257  10.326   7.357   6.613  0.8548 -1.0275  0.1557
31466SOL     OW 1258  12.017   5.562   4.242  0.1036  0.0763  0.1699
31466SOL    HW1 1259  12.015   5.639   4.186  0.2737  0.4701  0.6910
31466SOL    HW2 1260  11.998   5.597   4.330 -0.7036 -0.5953  0.2777
31467SOL     OW 1261   9.235  10.191  10.208 -1.1449 -0.2436  0.2263
31467SOL    HW1 1262   9.173  10.239  10.262 -0.8267  1.4752 -0.8605
31467SOL    HW2 1263   9.272  10.125  10.267 -1.9604  0.5138  1.6385
31468SOL     OW 1264   4.930   6.685   1.505  0.2452  0.3146 -0.0027
31468SOL    HW1 1265   5.014   6.725   1.481  0.2858 -0.3324 -0.9857
31468SOL    HW2 1266   4.934   6.597   1.468 -0.6746  0.1088  0.3661
31469SOL     OW 1267   6.700   8.375   0.289  0.1616  0.6057 -0.0085
31469SOL    HW1 1268   6.729   8.284   0.291  0.4229  0.6966  1.0269
31469SOL    HW2 1269   6.781   8.426   0.286  0.1194  0.8351  1.7982
31470SOL     OW 1270  11.514   7.956   5.314  0.6999  0.0031  0.1960
31470SOL    HW1 1271  11.520   7.957   5.410  0.4769 -0.6596  0.2239
31470SOL    HW2 1272  11.574   7.887   5.287 -0.5193 -1.0002 -0.0220
31471SOL     OW 1273   4.920   5.201   7.848  0.4349 -0.0327 -0.0977
31471SOL    HW1 1274   4.937   5.294   7.860 -0.3281 -0.0244  1.0921
31471SOL    HW2 1275   4.901   5.169   7.936 -0.9012 -0.9997 -0.7127
31472SOL     OW 1276   9.066  10.749   2.251  0.4136  0.0737  0.1892
31472SOL    HW1 1277   9.155  10.741   2.287  0.4309  0.6139  0.2842
31472SOL    HW2 1278   9.038  10.659   2.234  0.4810 -0.1804  1.3687
31473SOL     OW 1279  10.955   6.346  11.890  0.2491 -0.1709 -0.0042
31473SOL    HW1 1280  10.898   6.401  11.944 -1.4646  0.1866 -2.0354
31473SOL    HW2 1281  11.012   6.301  11.953 -0.5833  1.3555  1.9490
31474SOL     OW 1282   7.569   2.805   0.768 -0.9079  0.6380 -0.5154
31474SOL    HW1 1283   7.620   2.726   0.749 -0.5936  1.3494 -3.0227
31474SOL    HW2 1284   7.579   2.818   0.862  2.0217 -0.2856 -0.5947
31475SOL     OW 1285   3.260   1.577   0.665  0.1824 -0.2249  0.8382
31475SOL    HW1 1286   3.346   1.582   0.707  0.6224  1.7966 -0.1625
31475SOL    HW2 1287   3.279   1.594   0.572 -1.1973 -0.6770  0.4577
31476SOL     OW 1288  12.455  11.609   3.309 -0.1527  0.2262  0.3908
31476SOL    HW1 1289  12.476  11.544   3.242  2.2800 -0.7656  1.9447
31476SOL    HW2 1290  12.366  11.587   3.337 -0.1354 -1.1596 -0.5310
31477SOL     OW 1291  10.442   6.275   0.017 -0.8710 -0.2964  0.4804
31477SOL    HW1 1292  10.491   6.308  -0.058  0.4735  1.7935  2.1614
31477SOL    HW2 1293  10.492   6.199   0.047  1.0716  1.3689  1.7200
31478SOL     OW 1294   6.947   2.888   8.078  0.2469  0.5662 -0.0418
31478SOL    HW1 1295   6.914   2.799   8.089  0.7380  0.1087 -1.8323
31478SOL    HW2 1296   7.028   2.877   8.028  1.0802  1.9263  0.9395
31479SOL     OW 1297   7.060  12.224  11.214 -0.0013  0.6011 -0.0511
31479SOL    HW1 1298   6.969  12.195  11.227  0.3613 -0.7833 -0.3825
31479SOL    HW2 1299   7.103  12.203  11.297  0.5840 -1.1837 -0.7632
31480SOL     OW 1300  10.337   0.436   7.911  0.0615 -0.0731  0.2221
31480SOL    HW1 1301  10.280   0.367   7.877 -0.6992 -1.2926  3.6594
31480SOL    HW2 1302  10.426   0.403   7.899 -0.2229 -0.8781  0.3107
31481SOL     OW 1303   7.469  11.333  10.459  0.3108 -0.0396 -0.5293
31481SOL    HW1 1304   7.413  11.302  10.388 -2.3719 -0.7373  1.7221
31481SOL    HW2 1305   7.512  11.254  10.492 -2.4388 -0.7425  1.7840
31482SOL     OW 1306   7.060   4.871   8.890  0.0784  0.3310 -0.3435
31482SOL    HW1 1307   6.990   4.876   8.825 -1.3781 -0.5793  1.0738
31482SOL    HW2 1308   7.085   4.779   8.892  0.2802  0.3912  0.1891
31483SOL     OW 1309   3.585  12.295   7.551  0.0730 -0.4057  0.6350
31483SOL    HW1 1310   3.652  12.229   7.567  0.7904  0.4719  1.3349
31483SOL    HW2 1311   3.557  12.323   7.638 -1.4501 -0.9860  0.3612
31484SOL     OW 1312   6.574   5.559   2.214  0.4189 -0.0501 -0.7540
31484SOL    HW1 1313   6.645   5.501   2.187  0.5756 -0.1252 -0.1961
31484SOL    HW2 1314   6.518   5.503   2.269  0.0024  0.0445 -1.0780
31485SOL     OW 1315   4.425   0.891   4.101 -0.4672  0.6920  0.5925
31485SOL    HW1 1316   4.512   0.919   4.074 -0.3297 -0.2977 -0.0271
31485SOL    HW2 1317   4.436   0.861   4.191 -0.4630  1.8575  1.0001
31486SOL     OW 1318   9.314   3.236  11.131  0.2520  0.2520 -0.4155
31486SOL    HW1 1319   9.295   3.256  11.039  0.2415  2.0536 -0.0745
31486SOL    HW2 1320   9.397   3.280  11.149  2.3053 -3.2226 -0.4945
31487SOL     OW 1321   3.227   5.179   4.596 -0.4380  0.0467  0.4398
31487SOL    HW1 1322   3.298   5.196   4.659  0.1363  0.5230 -0.3087
31487SOL    HW2 1323   3.171   5.257   4.603  0.5159  0.8818 -0.7817
31488SOL     OW 1324   9.690   2.084   0.175 -0.5890  0.0525 -0.2174
31488SOL    HW1 1325   9.669   2.032   0.098  1.9727 -2.4077  0.6132
31488SOL    HW2 1326   9.785   2.096   0.172 -0.6501  1.5091  1.5901
31489SOL     OW 1327   2.594   5.207   1.820 -0.5075  0.5195 -0.4597
31489SOL    HW1 1328   2.597   5.156   1.739 -0.1377 -0.5581  0.2055
31489SOL    HW2 1329   2.533   5.160   1.876  0.9162 -0.0433  0.6977
31490SOL     OW 1330   9.267   9.994   5.175  0.1754 -0.0016  0.3231
31490SOL    HW1 1331   9.333   9.945   5.224 -0.1271 -1.4696 -0.6765
31490SOL    HW2 1332   9.219  10.044   5.242  0.9740 -0.5067  1.2891
31491SOL     OW 1333   6.349   0.375  10.260 -0.6840  0.2256 -0.0330
31491SOL    HW1 1334   6.324   0.444  10.321 -2.4484 -0.6107  0.2556
31491SOL    HW2 1335   6.351   0.419  10.174  0.5433  1.1138  0.4113
31492SOL     OW 1336   6.442   9.542   0.754 -0.0432  0.3111  0.0120
31492SOL    HW1 1337   6.463   9.477   0.821  1.2204  1.6671  1.0006
31492SOL    HW2 1338   6.443   9.625   0.800 -0.8290  1.1322 -1.3786
31493SOL     OW 1339  10.381  10.599   2.284  0.0301  0.8891 -0.0594
31493SOL    HW1 1340  10.435  10.608   2.363  0.4164  0.1875 -0.2367
31493SOL    HW2 1341  10.344  10.511   2.290  0.0691  0.8263 -0.6606
31494SOL     OW 1342   9.357   4.502   6.813  0.5356 -0.2036  0.3158
31494SOL    HW1 1343   9.414   4.427   6.826  0.0666 -0.5274  0.5692
31494SOL    HW2 1344   9.290   4.471   6.752  0.2046 -0.0731  0.6056
31495SOL     OW 1345   6.458  12.282   2.851  0.1015  0.0365  0.0262
31495SOL    HW1 1346   6.523  12.344   2.882 -1.2588  1.4115  0.2568
31495SOL    HW2 1347   6.454  12.214   2.918  0.0819  0.8425  0.8504
31496SOL     OW 1348   6.959   8.645   9.760  0.3239  0.2092 -0.7308
31496SOL    HW1 1349   7.013   8.581   9.806  3.8576  1.1731 -3.1457
31496SOL    HW2 1350   6.947   8.716   9.823 -1.5249 -1.6350  1.1254
31497SOL     OW 1351   1.439   7.343   3.465  0.5931 -0.3082  0.4902
31497SOL    HW1 1352   1.499   7.305   3.400  0.1423  2.1838 -1.5715
31497SOL    HW2 1353   1.478   7.428   3.487 -0.8936  0.2852  0.9919
31498SOL     OW 1354   7.360  12.212   2.198  0.0636  0.2867 -0.0370
31498SOL    HW1 1355   7.434  12.164   2.236  0.4353 -0.8974 -2.1312
31498SOL    HW2 1356   7.335  12.275   2.266  0.3706 -1.9967  2.3446
31499SOL     OW 1357   5.007   9.916  12.330 -0.2145 -0.2967  0.7000
31499SOL    HW1 1358   4.950   9.853  12.287  0.6799 -0.3783 -0.4077
31499SOL    HW2 1359   5.027   9.875  12.415 -0.4979 -1.0133  0.4309
31500SOL     OW 1360  11.277   2.983   3.836  0.6250  0.3658 -0.2849
31500SOL    HW1 1361  11.329   3.063   3.840  0.9662  0.0909  1.6139
31500SOL    HW2 1362  11.283   2.945   3.924 -1.4572 -0.5192 -0.4564
31501SOL     OW 1363   8.784   3.160   0.460 -0.6598 -0.5683  0.3860
31501SOL    HW1 1364   8.870   3.195   0.480 -0.3363 -1.9424  1.5922
31501SOL    HW2 1365   8.723   3.227   0.488 -0.0250 -0.2599  1.0475
31502SOL     OW 1366  10.303  11.417   5.933 -0.0279 -0.0273  0.6437
31502SOL    HW1 1367  10.358  11.340   5.918 -2.1991 -1.5434 -0.2727
31502SOL    HW2 1368  10.347  11.488   5.888  1.0399 -1.2374 -0.2995
31503SOL     OW 1369  11.562  12.123   8.670 -0.0957  0.0375  0.7434
31503SOL    HW1 1370  11.541  12.045   8.722 -2.1036  0.9292  1.4041
31503SOL    HW2 1371  11.507  12.192   8.709 -1.8739  0.7475 -2.6437
31504SOL     OW 1372  10.760  10.637   4.045 -0.0732  0.1780  0.5564
31504SOL    HW1 1373  10.833  10.576   4.059 -0.6003 -0.4669  0.5293
31504SOL    HW2 1374  10.751  10.642   3.950 -2.4193 -2.6516  0.5038
31505SOL     OW 1375   5.968   2.096   5.252 -0.3332 -0.4572 -0.1671
31505SOL    HW1 1376   5.960   2.107   5.346 -1.3522  0.0294 -0.3005
31505SOL    HW2 1377   6.063   2.090   5.236  0.0302  1.9918  0.6279
31506SOL     OW 1378   0.519   9.793  10.756 -0.2005  0.0749  0.2743
31506SOL    HW1 1379   0.457   9.744  10.810  0.5094 -0.7060  0.3960
31506SOL    HW2 1380   0.603   9.780  10.799 -0.0301  1.6491  0.4714
31507SOL     OW 1381   6.900  10.273  12.457  0.2841 -0.5495  0.5755
31507SOL    HW1 1382   6.885  10.353  12.407  2.6932 -1.2814 -1.5252
31507SOL    HW2 1383   6.956  10.300  12.530  0.1153 -0.1364  0.5543
31508SOL     OW 1384   4.157   6.333   3.383 -0.0652 -0.1260  0.6745
31508SOL    HW1 1385   4.174   6.410   3.438 -0.8287  0.6412 -0.1270
31508SOL    HW2 1386   4.214   6.265   3.419  0.8774  0.9042  1.2033
31509SOL     OW 1387   6.412   9.646   2.655  0.7763 -0.5646 -0.4020
31509SOL    HW1 1388   6.469   9.615   2.584 -0.5364 -1.0231 -1.2992
31509SOL    HW2 1389   6.355   9.572   2.673  0.3094 -0.0387  0.3156
31510SOL     OW 1390   3.199   9.907   3.237 -0.5246 -0.0373 -0.3907
31510SOL    HW1 1391   3.289   9.937   3.223 -1.3089  2.9110  0.3040
31510SOL    HW2 1392   3.190   9.831   3.179  2.6097 -0.9469  0.1140
31511SOL     OW 1393   8.263   5.907   3.382  0.4711  0.6123  0.2510
31511SOL    HW1 1394   8.220   5.992   3.397 -0.6237  0.0032  0.7677
31511SOL    HW2 1395   8.270   5.900   3.287 -1.3318  0.4216  0.0824
31512SOL     OW 1396   7.420   7.949   7.417 -0.6015 -0.2560 -0.3706
31512SOL    HW1 1397   7.480   7.914   7.483 -0.8400 -0.1583 -0.0985
31512SOL    HW2 1398   7.367   7.875   7.390  1.0860 -0.8768 -2.2432
31513SOL     OW 1399   8.656   9.685   7.085 -0.3494  0.1928  0.7584
31513SOL    HW1 1400   8.626   9.665   7.174 -1.7475 -0.8991  0.0936
31513SOL    HW2 1401   8.656   9.600   7.041  2.7185  0.3169  0.3556
31514SOL     OW 1402   2.122   6.276   6.874 -0.0001 -0.0190 -0.2869
31514SOL    HW1 1403   2.044   6.271   6.929 -0.0196 -0.2605 -0.3364
31514SOL    HW2 1404   2.134   6.187   6.841  0.3600 -0.0075 -0.1899
31515SOL     OW 1405   0.967   3.490   6.184 -0.1933 -0.0814 -0.1943
31515SOL    HW1 1406   0.914   3.568   6.168  0.3364  0.9944  2.6933
31515SOL    HW2 1407   0.921   3.445   6.255 -0.2184 -2.1876 -1.4756
31516SOL     OW 1408   5.033   6.387   6.855 -0.0239 -0.3035  0.4249
31516SOL    HW1 1409   4.963   6.415   6.913  1.7613  2.2413  1.5608
31516SOL    HW2 1410   5.087   6.329   6.908 -0.3953 -0.9815  0.0690
31517SOL     OW 1411   7.254   6.698  10.455 -0.2131 -0.0888 -0.1028
31517SOL    HW1 1412   7.309   6.652  10.392 -0.2666 -1.0202  0.5129
31517SOL    HW2 1413   7.292   6.675  10.541  0.2289  1.6305  0.1944
31518SOL     OW 1414   5.600   7.126   4.991  0.3903  0.3172  0.4685
31518SOL    HW1 1415   5.544   7.137   5.068 -0.3094 -0.0557  0.0179
31518SOL    HW2 1416   5.541   7.097   4.922  0.7363  2.1655 -0.6446
31519SOL     OW 1417   9.530   0.231   6.130  0.4789 -0.2846  0.7542
31519SOL    HW1 1418   9.504   0.297   6.194 -0.3127 -1.2859  1.5106
31519SOL    HW2 1419   9.610   0.265   6.091 -0.2488  1.4177  0.6502
31520SOL     OW 1420   6.057  11.747   9.868 -0.4184 -0.1673  0.5724
31520SOL    HW1 1421   6.070  11.837   9.898  0.2381  0.0164 -0.2288
31520SOL    HW2 1422   5.966  11.744   9.839 -0.6087  0.0737  1.1292
31521SOL     OW 1423   6.979   0.664   8.033 -0.2970 -0.2029 -0.0889
31521SOL    HW1 1424   6.981   0.657   8.128 -0.4805  0.6041 -0.0192
31521SOL    HW2 1425   7.070   0.680   8.008 -0.4183  0.7885  0.0612
31522SOL     OW 1426  10.202  11.059   4.836 -0.0141  0.1922  0.1026
31522SOL    HW1 1427  10.184  11.120   4.907 -0.8791 -0.5377  0.5345
31522SOL    HW2 1428  10.121  11.009   4.826  1.2011 -2.0926  0.9733
31523SOL     OW 1429  11.435   0.984   8.415  0.4336 -0.2984 -0.4153
31523SOL    HW1 1430  11.396   1.065   8.382  0.8250  0.3543  0.6728
31523SOL    HW2 1431  11.445   0.999   8.509  1.9124 -1.0287 -0.4357
31524SOL     OW 1432   4.294  10.793   6.727  0.0488 -0.4194  0.3117
31524SOL    HW1 1433   4.221  10.757   6.778  0.6844  0.2435  1.7189
31524SOL    HW2 1434   4.263  10.791   6.637 -1.7465 -0.0631  0.8921
31525SOL     OW 1435   7.264   6.767   6.442 -0.0957  0.0171 -0.5057
31525SOL    HW1 1436   7.286   6.836   6.505  1.3783 -0.5083 -0.3938
31525SOL    HW2 1437   7.229   6.696   6.495  1.1761 -0.4376 -0.2262
31526SOL     OW 1438  10.000   5.918  11.768 -0.8820 -0.1493 -1.0787
31526SOL    HW1 1439   9.948   5.931  11.847  0.1326 -0.2716 -0.3673
31526SOL    HW2 1440  10.028   5.826  11.771 -1.3334 -0.3223 -1.8952
31527SOL     OW 1441   7.216   9.872   1.947  0.0205 -0.3935  0.2299
31527SOL    HW1 1442   7.265   9.870   2.029  2.9739  2.3846 -1.2188
31527SOL    HW2 1443   7.166   9.954   1.951  0.2379 -0.2025 -0.7225
31528SOL     OW 1444   5.431   7.605   2.655  0.1086  0.5123  0.7246
31528SOL    HW1 1445   5.442   7.586   2.562  0.7901  0.4696  0.8093
31528SOL    HW2 1446   5.429   7.519   2.697  2.3462  0.5370  1.0143
31529SOL     OW 1447   9.113   0.859   0.880 -0.0892  0.5875 -0.3128
31529SOL    HW1 1448   9.046   0.799   0.846  0.5882 -0.5132  0.2532
31529SOL    HW2 1449   9.174   0.871   0.806 -0.4755  0.9730 -0.5770
31530SOL     OW 1450   9.712  10.220  10.809 -0.0684  0.3242 -0.0740
31530SOL    HW1 1451   9.757  10.275  10.745  0.6083 -0.2946 -0.1415
31530SOL    HW2 1452   9.735  10.258  10.893  1.2753 -0.4632 -0.0587
31531SOL     OW 1453   7.973   3.888   2.630  0.3324  0.4093  0.1395
31531SOL    HW1 1454   7.915   3.850   2.696  0.4138 -0.1507 -0.0980
31531SOL    HW2 1455   7.915   3.931   2.568  0.1066 -0.7753 -0.4912
31532SOL     OW 1456  12.428   9.706   8.342  0.3300 -0.1611 -0.1620
31532SOL    HW1 1457  12.442   9.614   8.317  0.1377 -0.3574  0.4364
31532SOL    HW2 1458  12.340   9.726   8.311  0.6413  0.0441 -0.9316
31533SOL     OW 1459   3.029   5.322   9.253  0.5649  0.6940 -0.3336
31533SOL    HW1 1460   3.120   5.292   9.248  0.5406  0.5788 -0.0813
31533SOL    HW2 1461   2.983   5.268   9.189  0.3661 -0.3778  0.6842
31534SOL     OW 1462  11.596   5.130   4.330 -0.7636  0.3459 -0.2715
31534SOL    HW1 1463  11.581   5.131   4.235 -0.8985  1.4113 -0.2524
31534SOL    HW2 1464  11.691   5.130   4.339 -0.7484 -0.1773 -0.4018
31535SOL     OW 1465  10.006   5.313   1.587  0.3412 -0.0984  0.1854
31535SOL    HW1 1466  10.059   5.236   1.606  1.5292  0.5129 -0.5353
31535SOL    HW2 1467   9.920   5.293   1.623  1.0865 -1.0812  1.4712
31536SOL     OW 1468   5.319  10.533   9.920 -0.5906 -0.6693 -0.6329
31536SOL    HW1 1469   5.386  10.470   9.945 -0.2017  0.7590  2.3681
31536SOL    HW2 1470   5.241  10.505   9.967 -0.4936  0.8158  0.5040
31537SOL     OW 1471   8.815  12.233   3.900 -1.0334  0.3391  0.2636
31537SOL    HW1 1472   8.787  12.253   3.989 -0.4392  3.5270 -0.1751
31537SOL    HW2 1473   8.889  12.174   3.912 -1.1146  0.4992  1.8519
31538SOL     OW 1474   0.698  11.349   1.752  0.5662  0.1021  0.4904
31538SOL    HW1 1475   0.635  11.339   1.681 -0.6871  0.8364  1.4581
31538SOL    HW2 1476   0.741  11.432   1.735  0.2906  0.2618  0.5725
31539SOL     OW 1477   3.361   4.363   5.971  0.4619  0.6315  0.0032
31539SOL    HW1 1478   3.442   4.323   6.002  0.6255 -0.4445 -1.6862
31539SOL    HW2 1479   3.380   4.457   5.971  2.5220  0.3224 -2.3066
31540SOL     OW 1480   4.244  11.474   8.268  0.5025 -0.3317  0.6643
31540SOL    HW1 1481   4.262  11.394   8.316  2.1867 -1.1057 -1.1106
31540SOL    HW2 1482   4.318  11.531   8.288  0.7410 -0.3057 -0.2757
31541SOL     OW 1483   3.173   8.523   4.292  1.2507 -0.2310 -0.1050
31541SOL    HW1 1484   3.172   8.477   4.376 -1.3528 -2.6042 -1.2848
31541SOL    HW2 1485   3.178   8.616   4.316  0.9388 -0.8432  2.6619
31542SOL     OW 1486  10.681   4.330   0.864 -0.6973  0.3012  0.3598
31542SOL    HW1 1487  10.756   4.269   0.865 -0.4307  0.5664 -1.0832
31542SOL    HW2 1488  10.718   4.413   0.895  0.4103  1.2114 -2.9619
31543SOL     OW 1489   9.821   6.969   6.140  0.0041 -0.5948  0.1799
31543SOL    HW1 1490   9.743   6.915   6.129  0.3790 -1.1546  0.2428
31543SOL    HW2 1491   9.798   7.032   6.208  0.3905 -2.2600  1.9417
31544SOL     OW 1492   2.352  10.172   7.936 -0.3678 -0.8542 -0.0754
31544SOL    HW1 1493   2.273  10.142   7.889 -0.1308 -0.5321 -0.7000
31544SOL    HW2 1494   2.373  10.256   7.894  1.3385 -1.7696 -1.1680
31545SOL     OW 1495   5.807   5.448  10.520 -0.0976  0.2016 -0.1431
31545SOL    HW1 1496   5.793   5.496  10.601 -0.2950  0.0639 -0.0946
31545SOL    HW2 1497   5.722   5.447  10.476  0.3848  1.7468 -1.1809
31546SOL     OW 1498   5.569  10.293   0.626 -0.0905 -0.6706 -0.0141
31546SOL    HW1 1499   5.543  10.208   0.593  1.9376 -0.9089 -1.1587
31546SOL    HW2 1500   5.664  10.288   0.635 -0.2216 -0.1221  4.5416
31547SOL     OW 1501   6.866   7.971   9.669  0.2383  0.1785 -0.1614
31547SOL    HW1 1502   6.955   7.979   9.704  1.1476 -2.2756 -1.6511
31547SOL    HW2 1503   6.826   8.056   9.687  2.4079  0.9007  1.7897
31548SOL     OW 1504   9.821   9.587   9.161  0.1434  0.3773 -0.2742
31548SOL    HW1 1505   9.794   9.556   9.074 -0.6018  0.7104 -0.1681
31548SOL    HW2 1506   9.897   9.642   9.143  0.7946 -0.5914 -0.5750
31549SOL     OW 1507   0.455  12.453   3.100 -0.0853  0.3063 -0.1406
31549SOL    HW1 1508   0.402  12.532   3.111  0.8383  0.8648  0.4632
31549SOL    HW2 1509   0.542  12.478   3.132  0.5519 -0.5814 -1.1102
31550SOL     OW 1510   0.075   4.711   9.266  0.1011  0.3415  0.4416
31550SOL    HW1 1511  -0.006   4.670   9.238  0.0114 -0.4967  1.8883
31550SOL    HW2 1512   0.099   4.667   9.347  1.5121  1.2122  0.5419
31551SOL     OW 1513   4.127   1.510   2.916 -0.0177  0.2743 -0.5573
31551SOL    HW1 1514   4.181   1.520   2.838 -0.0053  0.0995 -0.5732
31551SOL    HW2 1515   4.189   1.506   2.989 -0.0559  0.9693 -0.4828
31552SOL     OW 1516   4.184   8.551   5.145  0.1724  0.1996 -0.4840
31552SOL    HW1 1517   4.232   8.565   5.063 -0.5201 -0.1351 -0.9520
31552SOL    HW2 1518   4.245   8.579   5.213  1.9798 -2.2999 -0.8984
31553SOL     OW 1519   5.737   5.052   7.094  0.1516  0.0229 -0.2872
31553SOL    HW1 1520   5.736   5.145   7.115  1.3070 -0.3473  1.6941
31553SOL    HW2 1521   5.804   5.016   7.151  1.6956 -1.6234 -2.9168
31554SOL     OW 1522  11.074   2.243   9.069 -0.2974 -0.0387  0.1028
31554SOL    HW1 1523  11.097   2.221   8.979  1.3729  2.0557 -0.0686
31554SOL    HW2 1524  10.994   2.295   9.061  0.3749  0.9610 -0.2995
31555SOL     OW 1525  10.735  10.252   8.396  0.2534 -0.4429  0.1146
31555SOL    HW1 1526  10.655  10.200   8.387 -1.1466  1.4972  0.6678
31555SOL    HW2 1527  10.762  10.240   8.487 -1.2232  1.2620  0.8444
31556SOL     OW 1528   5.957   8.758   4.643  0.3579  0.2241 -0.0535
31556SOL    HW1 1529   5.873   8.804   4.636 -0.3833 -1.1466 -0.5631
31556SOL    HW2 1530   6.022   8.823   4.618 -0.5194  1.3859  0.5529
31557SOL     OW 1531   6.816  11.211   6.103  0.2621 -0.7657  0.4698
31557SOL    HW1 1532   6.740  11.187   6.156  0.7201 -3.2052  0.1454
31557SOL    HW2 1533   6.820  11.307   6.108 -1.7503 -0.6994  1.9448
31558SOL     OW 1534   4.826  11.926  11.909  0.6319  0.3102  0.1924
31558SOL    HW1 1535   4.813  11.950  11.818  0.0188  0.2052  0.2512
31558SOL    HW2 1536   4.862  11.837  11.905  0.5952  0.3015  0.0561
31559SOL     OW 1537   2.549   8.297   5.973 -0.2898 -0.1512 -0.0959
31559SOL    HW1 1538   2.499   8.351   5.912 -0.3970 -0.8043 -0.5993
31559SOL    HW2 1539   2.557   8.212   5.928  1.4356 -0.0037 -0.1287
31560SOL     OW 1540  10.781   4.996   4.901  0.1074  0.1695  0.4285
31560SOL    HW1 1541  10.821   4.956   4.979 -1.0211  0.1153  1.0039
31560SOL    HW2 1542  10.690   4.969   4.905  0.2504 -0.7628 -1.5527
31561SOL     OW 1543   8.833   7.319   6.314 -0.1253  0.6531 -0.6030
31561SOL    HW1 1544   8.822   7.412   6.332 -1.2034  0.2730  0.9849
31561SOL    HW2 1545   8.857   7.281   6.399 -3.5021 -1.0347 -0.2246
31562SOL     OW 1546   5.756   2.051   0.305 -0.5585  0.0206 -0.1608
31562SOL    HW1 1547   5.834   2.003   0.332  0.0442 -0.1755 -2.0881
31562SOL    HW2 1548   5.788   2.113   0.239 -1.5326  2.2112  1.3153
31563SOL     OW 1549  11.682   6.155   0.824 -0.1091  0.1482  0.3344
31563SOL    HW1 1550  11.632   6.192   0.751  2.2187  2.5268 -0.2178
31563SOL    HW2 1551  11.685   6.061   0.806 -2.8620  0.1298 -0.4603
31564SOL     OW 1552   4.120   7.929   0.815  0.8541  0.3701 -0.5305
31564SOL    HW1 1553   4.140   7.845   0.856  2.5154  1.6630  1.4827
31564SOL    HW2 1554   4.203   7.978   0.818 -0.0697  2.1126 -1.6041
31565SOL     OW 1555   7.360  11.841   2.664  0.2406  0.3728  0.1373
31565SOL    HW1 1556   7.403  11.816   2.745  1.1418  1.1710 -0.0814
31565SOL    HW2 1557   7.280  11.788   2.662  0.9370 -0.7350  0.8057
31566SOL     OW 1558   1.474   4.298   2.426  0.0665  0.3532  0.1435
31566SOL    HW1 1559   1.442   4.210   2.409 -0.9183  0.7294 -0.0186
31566SOL    HW2 1560   1.563   4.285   2.459 -0.4092 -0.7556  1.0833
31567SOL     OW 1561   5.381   5.750   7.856  0.3904 -0.7234 -0.4602
31567SOL    HW1 1562   5.431   5.795   7.787 -0.4592  0.0046 -0.6322
31567SOL    HW2 1563   5.426   5.774   7.937 -0.0716  0.5363 -0.5417
31568SOL     OW 1564   5.484   3.503   8.180  0.3285 -0.3343  0.3028
31568SOL    HW1 1565   5.412   3.551   8.221 -0.4490 -0.7306 -0.5667
31568SOL    HW2 1566   5.469   3.412   8.203  0.1675 -0.4987 -0.4440
31569SOL     OW 1567   5.845   4.246   0.507 -0.3055 -0.2226  0.3752
31569SOL    HW1 1568   5.813   4.155   0.508  0.7515 -0.6323 -0.4551
31569SOL    HW2 1569   5.907   4.248   0.435 -1.1590  1.4843 -0.3620
31570SOL     OW 1570  11.289   4.760   7.569  0.0600 -0.3234 -0.6870
31570SOL    HW1 1571  11.306   4.843   7.524  1.5081 -0.9723 -1.4172
31570SOL    HW2 1572  11.196   4.763   7.591 -0.0811  1.1643 -1.3518
31571SOL     OW 1573   3.791   6.796  11.813  0.3137 -0.2661 -0.6453
31571SOL    HW1 1574   3.809   6.702  11.822  0.7201 -0.0789  1.0053
31571SOL    HW2 1575   3.850   6.825  11.743 -0.3888 -1.3635 -1.7325
31572SOL     OW 1576  11.614   1.181   3.532  0.1165 -0.0697 -0.3638
31572SOL    HW1 1577  11.669   1.144   3.601  0.5985  0.8191 -0.2681
31572SOL    HW2 1578  11.565   1.106   3.499  0.1785 -0.5846  0.6617
31573SOL     OW 1579   0.855  10.656   6.615 -0.2824  0.4037 -0.9003
31573SOL    HW1 1580   0.930  10.651   6.555  1.0521  0.9296  0.6478
31573SOL    HW2 1581   0.871  10.585   6.678 -0.1187  1.6251  0.4750
31574SOL     OW 1582   8.753   5.779   5.243  0.3089  0.5738  0.1076
31574SOL    HW1 1583   8.745   5.690   5.210  1.3474  1.2642 -2.2217
31574SOL    HW2 1584   8.667   5.818   5.227 -0.1099  0.0476  1.0200
31575SOL     OW 1585   5.721   7.495  10.095  0.5162  0.7372 -0.3060
31575SOL    HW1 1586   5.762   7.413  10.123 -1.2625 -0.4117 -0.8706
31575SOL    HW2 1587   5.636   7.494  10.138  0.1860  1.9514 -0.8990
31576SOL     OW 1588  10.571  10.474   4.182 -0.1304 -0.1497 -0.3587
31576SOL    HW1 1589  10.594  10.550   4.129  1.0068 -1.1432 -1.3532
31576SOL    HW2 1590  10.626  10.403   4.148 -0.0405 -1.0605  1.5411
31577SOL     OW 1591  11.479   1.248  12.232  0.5220 -0.4774  0.1433
31577SOL    HW1 1592  11.428   1.169  12.212  0.7442 -1.0449  1.6609
31577SOL    HW2 1593  11.510   1.279  12.147 -3.8206  0.9830 -1.1390
31578SOL     OW 1594   2.577   5.260   2.859  0.1011  0.1208 -0.1892
31578SOL    HW1 1595   2.618   5.346   2.848 -1.3280  1.1166  1.7026
31578SOL    HW2 1596   2.509   5.274   2.925  0.2274 -2.6160  0.6443
31579SOL     OW 1597  10.785  10.167   4.818  0.3786 -0.0629  0.1844
31579SOL    HW1 1598  10.803  10.257   4.793 -2.4816  0.4844 -0.1720
31579SOL    HW2 1599  10.872  10.128   4.831  1.7116  2.3379 -0.9422
31580SOL     OW 1600   1.484   3.559  10.714 -0.0808 -0.2188 -0.0965
31580SOL    HW1 1601   1.577   3.574  10.730 -0.1390  1.4004 -1.0968
31580SOL    HW2 1602   1.482   3.480  10.661  0.4477 -2.2710  2.6812
31581SOL     OW 1603   0.645  10.820   6.716 -0.0325 -0.5645 -0.0444
31581SOL    HW1 1604   0.659  10.794   6.807 -1.1065 -1.0655 -0.0040
31581SOL    HW2 1605   0.722  10.787   6.669  0.7091  0.0268  0.7290
31582SOL     OW 1606   3.944   4.393   0.646 -0.5173  0.0659 -0.1511
31582SOL    HW1 1607   3.984   4.389   0.732  1.8136 -2.9231 -1.2279
31582SOL    HW2 1608   3.982   4.472   0.606 -0.3979  0.5825  0.9353
31583SOL     OW 1609   1.736   3.630   5.412 -0.4230 -0.3029 -0.1357
31583SOL    HW1 1610   1.829   3.627   5.388 -0.5618 -0.1623 -0.7243
31583SOL    HW2 1611   1.729   3.572   5.487  0.0521 -0.7357 -0.4138
31584SOL     OW 1612   3.592   9.052   0.438 -0.1944 -0.0599 -0.3419
31584SOL    HW1 1613   3.662   9.105   0.399 -1.5211  2.2515  0.2260
31584SOL    HW2 1614   3.539   9.115   0.487 -1.3951 -2.0960  1.1168
31585SOL     OW 1615   6.856  11.122  10.478 -0.3208 -0.0092  0.4265
31585SOL    HW1 1616   6.858  11.215  10.502  0.5866 -0.5551  2.7181
31585SOL    HW2 1617   6.764  11.097  10.485 -0.4399  0.4982  0.7093
31586SOL     OW 1618   3.183  11.600  10.467  0.1473  0.4661 -0.2747
31586SOL    HW1 1619   3.171  11.690  10.436  0.4608  0.4270 -0.5124
31586SOL    HW2 1620   3.228  11.556  10.396  0.4431  0.2510  0.0427
31587SOL     OW 1621  11.505   7.496   3.644 -0.3235 -0.2845 -0.2682
31587SOL    HW1 1622  11.571   7.446   3.690  1.8593  1.1399 -1.6726
31587SOL    HW2 1623  11.494   7.576   3.695 -1.4808 -0.7923  0.3058
31588SOL     OW 1624   8.763   1.595  10.371  0.5908  0.1069  0.2637
31588SOL    HW1 1625   8.731   1.538  10.441  1.2963 -1.0462 -0.3199
31588SOL    HW2 1626   8.790   1.676  10.416 -0.5627  0.0571  1.0830
31589SOL     OW 1627   1.557   9.532   0.666  0.2116 -0.3012 -0.7139
31589SOL    HW1 1628   1.479   9.548   0.613  0.3900 -0.6614 -1.0937
31589SOL    HW2 1629   1.611   9.474   0.612  0.4668 -0.5483 -0.2001
31590SOL     OW 1630   1.034   8.597  11.642  0.1747  0.1822 -0.1716
31590SOL    HW1 1631   1.016   8.605  11.549 -0.6528  2.2214  0.1221
31590SOL    HW2 1632   0.948   8.600  11.684  0.4196 -2.0219  0.6318
31591SOL     OW 1633   6.374   5.960   4.481  0.1846 -0.3436 -0.4190
31591SOL    HW1 1634   6.298   5.944   4.536 -0.0397  1.7347 -0.0513
31591SOL    HW2 1635   6.381   5.881   4.427 -2.1065 -0.6716 -0.3454
31592SOL     OW 1636   6.866   4.379   5.874 -0.0366 -0.0077  0.1814
31592SOL    HW1 1637   6.798   4.312   5.869  3.0818 -3.3787 -2.2997
31592SOL    HW2 1638   6.933   4.340   5.930  1.7546  1.1787 -1.0507
31593SOL     OW 1639   1.448   0.315   2.352  0.0315  0.4833  0.4004
31593SOL    HW1 1640   1.513   0.352   2.412 -1.0106  0.5531  1.5256
31593SOL    HW2 1641   1.478   0.225   2.336  0.1415  0.3451  1.3217
31594SOL     OW 1642   1.077   0.486   0.251 -0.3667  0.4702  0.6556
31594SOL    HW1 1643   1.111   0.417   0.309  2.8601 -0.1680 -1.6836
31594SOL    HW2 1644   1.055   0.440   0.170 -0.5488  1.8522 -0.1085
31595SOL     OW 1645  10.614   5.667   0.562 -0.0806 -0.2223 -0.0174
31595SOL    HW1 1646  10.657   5.726   0.501 -0.0158  0.3330  0.5583
31595SOL    HW2 1647  10.621   5.710   0.647 -2.4403  0.2543 -0.0082
31596SOL     OW 1648   1.010   2.023   1.734 -0.4612  0.0966  0.2123
31596SOL    HW1 1649   1.024   1.931   1.709  1.7054  0.3167  0.4407
31596SOL    HW2 1650   1.089   2.047   1.782 -0.2278  2.5638 -1.2488
31597SOL     OW 1651   2.706   5.583   8.643 -0.3901  0.6086 -0.4012
31597SOL    HW1 1652   2.709   5.506   8.586 -0.3291  0.7844 -0.6342
31597SOL    HW2 1653   2.797   5.613   8.648 -0.2249  0.0141  0.5818
31598SOL     OW 1654  11.085  12.207   6.340 -0.2186  0.0417 -0.2388
31598SOL    HW1 1655  10.990  12.201   6.341 -0.2437 -0.1019 -1.3793
31598SOL    HW2 1656  11.114  12.163   6.420 -1.1416  1.1491  0.7472
31599SOL     OW 1657   2.648   6.229   6.522  0.3106  0.2990  0.1841
31599SOL    HW1 1658   2.705   6.169   6.569  0.5636  0.8321  0.5695
31599SOL    HW2 1659   2.635   6.302   6.582 -2.9937 -0.9973  1.2314
31600SOL     OW 1660   7.666   0.785   6.078  0.0670  0.0218 -0.3870
31600SOL    HW1 1661   7.619   0.836   6.012 -2.3297 -0.1700  1.0416
31600SOL    HW2 1662   7.697   0.851   6.141 -0.3955 -0.0265 -0.1033
31601SOL     OW 1663  12.012   3.772   1.786 -0.8967  0.1004 -0.1859
31601SOL    HW1 1664  12.009   3.863   1.754 -0.6683 -0.6676 -2.6517
31601SOL    HW2 1665  12.105   3.755   1.799 -1.0132  0.5269  1.4035
31602SOL     OW 1666   3.974   3.324   9.394 -0.3319 -0.0804  0.3693
31602SOL    HW1 1667   4.030   3.327   9.472  0.2245 -2.0926  0.1200
31602SOL    HW2 1668   3.942   3.413   9.384  0.7195  0.5484  2.0715
31603SOL     OW 1669   9.086   5.932   0.672 -0.6043  0.5557 -0.3949
31603SOL    HW1 1670   9.059   5.843   0.697  0.6184  0.5165  0.9943
31603SOL    HW2 1671   9.107   5.974   0.756  3.8986  0.4094 -1.1671
31604SOL     OW 1672   0.436   2.721   9.102  0.1556 -0.2349 -0.1394
31604SOL    HW1 1673   0.469   2.799   9.058 -3.5466  1.5310 -0.2250
31604SOL    HW2 1674   0.387   2.674   9.035 -0.7039 -0.6396  0.7436
31605SOL     OW 1675   1.080   0.594   4.957 -0.2161 -0.1483  0.0749
31605SOL    HW1 1676   1.091   0.592   4.862 -0.5605 -1.4952  0.0451
31605SOL    HW2 1677   1.155   0.644   4.989  0.6934 -0.8919 -0.8122
31606SOL     OW 1678   4.815   4.605  12.394  0.4365  0.0860 -0.1381
31606SOL    HW1 1679   4.733   4.629  12.351  0.7111 -0.0676 -0.7679
31606SOL    HW2 1680   4.870   4.683  12.385  1.3586 -0.7408 -2.2557
31607SOL     OW 1681   4.652   0.037   2.230  0.1455 -0.0407 -0.1306
31607SOL    HW1 1682   4.741   0.072   2.241 -0.1359  0.8310 -0.5244
31607SOL    HW2 1683   4.622   0.020   2.320 -0.2268  2.1162  0.2175
31608SOL     OW 1684   4.188   3.727  10.341 -0.1947 -0.4689  1.0773
31608SOL    HW1 1685   4.245   3.764  10.409  0.8431 -0.0303 -0.0065
31608SOL    HW2 1686   4.212   3.773  10.261 -0.7054 -1.6733  0.1962
31609SOL     OW 1687   9.468   9.914   5.925  0.4704  0.0725 -0.6111
31609SOL    HW1 1688   9.536   9.895   5.990 -0.8387  0.0430  0.7992
31609SOL    HW2 1689   9.430   9.828   5.904  2.5141 -0.2978 -3.3962
31610SOL     OW 1690   9.615   1.185   1.434  0.0264  0.3075  0.4561
31610SOL    HW1 1691   9.689   1.217   1.381  0.2685 -0.3640  0.3760
31610SOL    HW2 1692   9.615   1.090   1.419 -0.2299  0.1815  1.2490
31611SOL     OW 1693  10.537   1.099   4.169 -0.0562  0.0796 -0.0953
31611SOL    HW1 1694  10.466   1.091   4.233 -1.1263  1.2955 -1.0864
31611SOL    HW2 1695  10.610   1.137   4.218 -0.5855  0.2445  0.5794
31612SOL     OW 1696   4.251   8.636   5.595 -0.1498 -0.4331  0.0931
31612SOL    HW1 1697   4.310   8.621   5.521 -1.5173 -2.8570 -0.6175
31612SOL    HW2 1698   4.307   8.673   5.663  1.5146  0.2394 -1.5441
31613SOL     OW 1699   7.295   1.009  11.268 -0.2322  0.0072 -0.1816
31613SOL    HW1 1700   7.351   0.951  11.217 -0.3121 -0.2245 -0.0037
31613SOL    HW2 1701   7.259   1.070  11.204 -0.4430 -0.3694 -0.4251
31614SOL     OW 1702   1.752   3.005   5.080  0.1292  0.0731  0.2523
31614SOL    HW1 1703   1.751   3.098   5.105  1.0440  0.3559 -0.6854
31614SOL    HW2 1704   1.747   3.006   4.984  1.4863 -0.7778  0.1491
31615SOL     OW 1705   6.628   8.761   1.236 -0.2287  0.4133  0.0196
31615SOL    HW1 1706   6.587   8.780   1.320 -0.7021 -1.1508  0.1643
31615SOL    HW2 1707   6.557   8.768   1.173 -0.1091  0.4699 -0.1093
31616SOL     OW 1708   7.682   2.886   5.164  0.3042 -0.6857 -0.2749
31616SOL    HW1 1709   7.592   2.870   5.133 -1.2656  3.1996  1.6136
31616SOL    HW2 1710   7.720   2.942   5.097  0.1010  0.3518  0.4567
31617SOL     OW 1711   4.116  10.534  11.531  0.0260  0.1005  0.4565
31617SOL    HW1 1712   4.075  10.491  11.456  0.9611  0.4123 -0.2546
31617SOL    HW2 1713   4.117  10.627  11.508  1.2258  0.0820  0.3981
31618SOL     OW 1714   7.801   1.458   7.402  0.0195 -0.0247 -0.1126
31618SOL    HW1 1715   7.803   1.523   7.472 -1.2238  0.0390 -0.1095
31618SOL    HW2 1716   7.710   1.458   7.372  0.3066 -0.7908 -1.0325
31619SOL     OW 1717  10.399   3.471   5.750  0.3826  0.1315  0.2531
31619SOL    HW1 1718  10.335   3.520   5.802  0.3565 -1.9816  2.4303
31619SOL    HW2 1719  10.483   3.511   5.770  0.0496  1.1482 -0.3683
31620SOL     OW 1720   7.720   3.582   3.807 -0.3011  0.3336  0.2442
31620SOL    HW1 1721   7.761   3.561   3.891  1.3462 -0.2763 -0.6629
31620SOL    HW2 1722   7.639   3.626   3.830  0.5567  1.0262  2.1517
31621SOL     OW 1723   7.044   7.986   8.376 -0.5267  0.5125 -0.2508
31621SOL    HW1 1724   7.005   8.072   8.359  0.2965  0.6877 -1.3441
31621SOL    HW2 1725   7.068   7.953   8.289  1.2754  0.1923  0.3293
31622SOL     OW 1726   6.601   5.180   2.388 -0.5961  0.3512  0.2362
31622SOL    HW1 1727   6.564   5.115   2.448  0.7164 -0.1151  0.5807
31622SOL    HW2 1728   6.626   5.131   2.310 -3.5143  1.1562 -1.3604
31623SOL     OW 1729   7.294   8.605   6.134 -0.3985  0.6615 -0.2639
31623SOL    HW1 1730   7.255   8.683   6.172  0.5489  1.0603 -0.0723
31623SOL    HW2 1731   7.253   8.596   6.048 -0.3518  1.5093 -0.3793
31624SOL     OW 1732   9.988   0.127   2.029 -0.5228  0.3196  0.0712
31624SOL    HW1 1733   9.965   0.219   2.041 -0.4910  0.1315  1.8352
31624SOL    HW2 1734  10.067   0.115   2.082 -0.8544 -0.8352  0.3349
31625SOL     OW 1735   9.183   7.049   4.380 -0.0023  0.5489  0.5751
31625SOL    HW1 1736   9.113   7.051   4.315  0.2482 -0.4060  0.2614
31625SOL    HW2 1737   9.229   7.132   4.368  0.8658 -0.1689 -1.3933
31626SOL     OW 1738   2.802   1.615   3.407 -0.2411  0.2600  0.4212
31626SOL    HW1 1739   2.735   1.634   3.342 -1.0937  1.6353  1.6407
31626SOL    HW2 1740   2.759   1.556   3.469  0.6131 -1.1680 -0.2971
31627SOL     OW 1741   1.674   9.092   2.987  0.7858  0.3881  0.1513
31627SOL    HW1 1742   1.643   9.001   2.979  2.5239 -0.2905  0.6662
31627SOL    HW2 1743   1.746   9.087   3.049  1.2163  2.0665 -0.1724
31628SOL     OW 1744   2.507   8.001   7.013 -0.3606 -0.7126 -0.2265
31628SOL    HW1 1745   2.445   8.014   7.085  0.9732 -1.6153  1.1654
31628SOL    HW2 1746   2.475   7.924   6.967 -0.3893 -1.0572  0.3634
31629SOL     OW 1747   0.345   2.658  11.619 -0.0184  0.1690  0.0274
31629SOL    HW1 1748   0.302   2.630  11.539  0.7622  0.9683 -0.6916
31629SOL    HW2 1749   0.421   2.600  11.628  0.9200  1.2120 -0.8184
31630SOL     OW 1750   7.799   3.650   0.700 -0.3904 -0.0234 -0.0026
31630SOL    HW1 1751   7.736   3.641   0.772 -0.8646 -0.3411 -0.4534
31630SOL    HW2 1752   7.791   3.568   0.650 -0.7902  0.6027 -0.9901
31631SOL     OW 1753   6.931   1.467  10.783  0.2692 -0.4928 -0.1796
31631SOL    HW1 1754   6.890   1.507  10.706  1.6005  1.4169  0.0432
31631SOL    HW2 1755   7.007   1.522  10.801  0.6253 -1.5639  1.8511
31632SOL     OW 1756   8.432   3.766   0.363  0.0748  0.1395  0.2302
31632SOL    HW1 1757   8.346   3.733   0.385 -0.0904  0.3580 -0.0795
31632SOL    HW2 1758   8.491   3.691   0.374  0.2771  0.5915  2.9852
31633SOL     OW 1759   1.411   4.739  11.346  0.1681  0.3264 -0.3924
31633SOL    HW1 1760   1.459   4.738  11.264  1.5242 -0.3032  0.3814
31633SOL    HW2 1761   1.385   4.648  11.360 -0.3561  0.4888 -0.2880
31634SOL     OW 1762   2.508  11.992   2.521 -0.5239 -0.1221  0.6840
31634SOL    HW1 1763   2.447  11.926   2.487  1.4661 -1.4080 -0.6159
31634SOL    HW2 1764   2.558  11.945   2.589 -0.7248  0.8004  1.4855
31635SOL     OW 1765   8.626  10.797   5.627  0.0456  0.2780  0.0450
31635SOL    HW1 1766   8.577  10.850   5.690  0.6580 -0.0545  0.8156
31635SOL    HW2 1767   8.695  10.756   5.679 -0.6772 -1.6405 -0.4483
31636SOL     OW 1768  10.090   8.586   6.542  0.5621  1.0772 -0.4303
31636SOL    HW1 1769  10.058   8.549   6.460  0.7233 -1.6658  0.6413
31636SOL    HW2 1770  10.045   8.536   6.610 -0.2517  3.8432  1.2599
31637SOL     OW 1771   1.002   6.948   3.883 -0.4120 -0.0272 -0.0794
31637SOL    HW1 1772   0.931   6.902   3.927  1.1464 -2.2950  0.2271
31637SOL    HW2 1773   1.074   6.947   3.947  0.1207  1.7212 -0.5862
31638SOL     OW 1774  12.258   3.469   2.094 -0.2054 -0.8389  0.2993
31638SOL    HW1 1775  12.293   3.468   2.183 -1.3490 -4.4741  0.8691
31638SOL    HW2 1776  12.192   3.538   2.096  1.8543  1.2426  1.2635
31639SOL     OW 1777  11.792   6.753  10.887  0.0257 -0.1585  0.2744
31639SOL    HW1 1778  11.779   6.770  10.794  2.6703 -0.9704 -0.3249
31639SOL    HW2 1779  11.710   6.711  10.915 -0.5552 -0.5642 -1.8423
31640SOL     OW 1780   1.429   3.916   5.298 -0.4156  0.1914  0.4183
31640SOL    HW1 1781   1.522   3.900   5.283 -0.4457 -1.8121  1.8790
31640SOL    HW2 1782   1.385   3.857   5.236 -0.6732 -0.2616  1.0291
31641SOL     OW 1783   5.248   8.217  11.755 -0.1195 -0.3138 -0.7395
31641SOL    HW1 1784   5.294   8.134  11.743  0.8391  0.2310 -0.9448
31641SOL    HW2 1785   5.198   8.229  11.674 -2.0339 -1.7347  0.1544
31642SOL     OW 1786   4.861   5.371   6.527 -0.3315 -0.0688  0.0441
31642SOL    HW1 1787   4.885   5.282   6.504 -3.3449 -0.5329 -1.8265
31642SOL    HW2 1788   4.903   5.425   6.461  1.0284 -0.0934  0.8471
31643SOL     OW 1789   1.784   4.260  12.224 -0.0466 -0.2255  0.1411
31643SOL    HW1 1790   1.693   4.281  12.242  0.9377  2.1700  3.2819
31643SOL    HW2 1791   1.818   4.337  12.178  1.0980  0.4880  2.0613
31644SOL     OW 1792   9.582  11.453   5.920 -0.6209  0.5356  0.4511
31644SOL    HW1 1793   9.552  11.513   5.852 -0.9622  1.1765  1.1390
31644SOL    HW2 1794   9.532  11.479   5.998 -0.1040 -0.0446  0.9887
31645SOL     OW 1795  10.636  12.157   7.024 -0.3700 -0.1367 -0.4977
31645SOL    HW1 1796  10.674  12.087   6.972 -0.8534 -1.5689  0.9900
31645SOL    HW2 1797  10.544  12.134   7.032 -0.7779  1.2759 -0.9063
31646SOL     OW 1798   2.071  11.028   1.591  0.2532 -0.3351  0.0953
31646SOL    HW1 1799   2.160  11.038   1.626  0.7013  2.2174 -1.5220
31646SOL    HW2 1800   2.014  11.037   1.667  1.3025  1.1205  0.7388
31647SOL     OW 1801   6.029  10.956  10.233  0.3596  0.1387 -0.0631
31647SOL    HW1 1802   5.968  11.000  10.293 -0.2992 -0.5180 -0.2327
31647SOL    HW2 1803   5.974  10.893  10.187  1.2337 -0.6650 -0.0181
31648SOL     OW 1804   9.215   5.889   2.939  0.1556 -0.3233  0.2059
31648SOL    HW1 1805   9.172   5.894   2.853  1.0656  0.3164 -0.2254
31648SOL    HW2 1806   9.307   5.910   2.922  0.4285 -0.5775  1.2802
31649SOL     OW 1807   4.676   8.693   3.008 -0.0897 -0.5858  0.2588
31649SOL    HW1 1808   4.732   8.765   2.979 -1.5499  0.8602  0.8815
31649SOL    HW2 1809   4.604   8.692   2.945 -1.2863  0.0614  1.5691
31650SOL     OW 1810   4.370   8.646   8.475 -0.4046  0.9125  0.1020
31650SOL    HW1 1811   4.284   8.689   8.472 -0.7573  0.2116  0.0531
31650SOL    HW2 1812   4.374   8.606   8.561  0.4905  2.1679  0.6707
31651SOL     OW 1813  10.940   9.500   5.481  0.7242  0.9799 -0.5508
31651SOL    HW1 1814  11.021   9.450   5.489  0.1387  0.2335  1.1717
31651SOL    HW2 1815  10.881   9.443   5.432  0.1376  0.0045  1.2049
31652SOL     OW 1816  11.343   0.443   2.571  0.5139  0.4618  0.2538
31652SOL    HW1 1817  11.340   0.535   2.548  0.4230  0.2853 -0.4624
31652SOL    HW2 1818  11.272   0.403   2.521 -0.0700  0.1583  1.3050
31653SOL     OW 1819   6.416  10.909   1.428  0.6899 -0.0769  0.5006
31653SOL    HW1 1820   6.326  10.883   1.414  0.2598  0.7353  1.5282
31653SOL    HW2 1821   6.414  11.005   1.425  1.6410 -0.0656 -0.1425
31654SOL     OW 1822  12.185   6.386   7.455  0.0351  0.5327  0.1520
31654SOL    HW1 1823  12.243   6.310   7.449  0.2217  0.7361 -0.6839
31654SOL    HW2 1824  12.209   6.427   7.538 -0.0878 -0.3314  0.6310
31655SOL     OW 1825   6.209  11.542   0.709 -0.0842  0.2498 -0.1254
31655SOL    HW1 1826   6.187  11.557   0.801  2.2231  0.8991  0.4051
31655SOL    HW2 1827   6.285  11.598   0.694 -0.4959  0.2680 -2.4969
31656SOL     OW 1828  10.007   4.548   5.488  0.1933 -0.1927 -0.2601
31656SOL    HW1 1829  10.056   4.509   5.416  1.7477  0.4436  0.3995
31656SOL    HW2 1830  10.026   4.642   5.482 -1.1784  0.1133 -0.1305
31657SOL     OW 1831   0.050   1.348   9.125  0.0682  0.0381  0.2137
31657SOL    HW1 1832   0.054   1.394   9.209 -1.5187 -1.6375  1.2750
31657SOL    HW2 1833  -0.036   1.306   9.124  0.7274 -1.4199 -1.4793
31658SOL     OW 1834   9.251   4.997   9.022  0.2281  0.2209  0.5572
31658SOL    HW1 1835   9.313   4.974   8.952 -1.7990 -0.3847 -1.1379
31658SOL    HW2 1836   9.245   5.093   9.018 -2.6152  0.1134 -2.8149
31659SOL     OW 1837   3.152   9.398   8.123 -0.0430  0.0461 -0.0206
31659SOL    HW1 1838   3.212   9.472   8.125 -0.5398  0.4870 -0.6900
31659SOL    HW2 1839   3.166   9.358   8.037 -0.9244  0.3478 -0.3131
31660SOL     OW 1840   9.896   2.158   5.330 -0.4992 -0.0455 -0.2692
31660SOL    HW1 1841   9.841   2.100   5.278  0.1852 -0.1050 -0.9579
31660SOL    HW2 1842   9.893   2.242   5.283  0.0296 -0.0669 -0.3570
31661SOL     OW 1843  12.068  11.966   2.587  0.7156  0.6093  0.1257
31661SOL    HW1 1844  12.114  11.884   2.602 -0.0604  0.1888  0.2180
31661SOL    HW2 1845  12.053  12.002   2.675  0.3846  0.4782  0.1232
31662SOL     OW 1846   9.770   5.185   7.793 -0.5994  0.2126 -0.1899
31662SOL    HW1 1847   9.676   5.188   7.811 -0.2436 -0.6718  2.1086
31662SOL    HW2 1848   9.785   5.095   7.762 -0.1764 -0.4773  1.8868
31663SOL     OW 1849   5.380   6.593   0.337  0.3643  0.6487 -0.2923
31663SOL    HW1 1850   5.431   6.575   0.258 -0.0316 -0.0592 -0.3921
31663SOL    HW2 1851   5.365   6.507   0.376 -0.0121  0.9355  0.2008
31664SOL     OW 1852   4.572   3.701   9.695 -0.1594  0.0276 -0.1488
31664SOL    HW1 1853   4.486   3.730   9.726 -1.3330 -0.3398 -2.7896
31664SOL    HW2 1854   4.618   3.781   9.672 -0.3408  0.1647 -0.0376
31665SOL     OW 1855   3.841   5.554   1.175  0.1150  0.3666 -0.0860
31665SOL    HW1 1856   3.817   5.574   1.085 -0.6689  0.2394  0.0894
31665SOL    HW2 1857   3.836   5.459   1.181 -0.9038  0.4325  0.3711
31666SOL     OW 1858   1.895   3.303   9.997 -0.1121 -0.1521  0.1320
31666SOL    HW1 1859   1.941   3.374   9.953  0.3512  0.1804  1.1180
31666SOL    HW2 1860   1.802   3.325   9.988  0.0345  0.8812  0.8738
31667SOL     OW 1861   0.892   4.260   9.153 -0.1102 -0.0976 -0.0361
31667SOL    HW1 1862   0.801   4.241   9.175 -0.2776 -0.9861 -1.3906
31667SOL    HW2 1863   0.937   4.176   9.165 -0.3817 -0.9354 -3.7500
31668SOL     OW 1864   2.350   9.708   4.452  0.0033 -0.1030  0.4814
31668SOL    HW1 1865   2.402   9.751   4.384 -1.1581  0.5813 -0.0016
31668SOL    HW2 1866   2.269   9.682   4.408 -1.2229  1.2709  1.8154
31669SOL     OW 1867   4.474   9.139  11.938  0.2196  0.5365 -0.1711
31669SOL    HW1 1868   4.498   9.053  11.971  3.3623  1.2098 -0.4357
31669SOL    HW2 1869   4.381   9.148  11.961  0.1911 -2.2415  1.2312
31670SOL     OW 1870   7.140   6.431   9.335 -0.0706 -0.0355 -0.2543
31670SOL    HW1 1871   7.165   6.439   9.243 -0.2783 -0.0997 -0.3161
31670SOL    HW2 1872   7.107   6.341   9.343  1.1740 -0.4835  0.1759
31671SOL     OW 1873   7.545   7.463   7.437  0.6234  0.7237 -0.2354
31671SOL    HW1 1874   7.526   7.505   7.353  1.2730  1.4554 -0.0233
31671SOL    HW2 1875   7.470   7.486   7.492  0.6301  1.0034 -0.3404
31672SOL     OW 1876   3.749   8.422   3.397 -0.6357 -0.3743 -0.1108
31672SOL    HW1 1877   3.688   8.394   3.329 -1.2826  1.2498 -0.2344
31672SOL    HW2 1878   3.707   8.497   3.439  1.5396  1.2407 -0.6286
31673SOL     OW 1879   8.164  11.406  11.410  0.4141  0.2723 -0.0825
31673SOL    HW1 1880   8.186  11.414  11.502 -2.0720 -1.2533  0.7658
31673SOL    HW2 1881   8.207  11.325  11.382  0.8208  0.5137 -0.1711
31674SOL     OW 1882   4.730   2.318   5.704 -0.5073 -0.2725 -0.1591
31674SOL    HW1 1883   4.763   2.404   5.676 -1.3810  0.9034  2.1219
31674SOL    HW2 1884   4.759   2.258   5.636  2.8332  1.2940 -0.3179
31675SOL     OW 1885   7.319   1.534  11.274 -0.2220 -0.0081  0.5101
31675SOL    HW1 1886   7.315   1.624  11.305  2.3791  0.4717 -0.2474
31675SOL    HW2 1887   7.385   1.492  11.329 -0.5274 -1.1099  0.0764
31676SOL     OW 1888   9.062   5.748   2.711  0.2304  0.2492  0.0816
31676SOL    HW1 1889   9.109   5.670   2.740 -0.7076 -0.4800 -0.2877
31676SOL    HW2 1890   9.016   5.779   2.789 -1.2683 -0.9683 -0.2524
31677SOL     OW 1891   5.666   8.807   8.035 -0.0173 -0.3641 -0.4898
31677SOL    HW1 1892   5.756   8.810   8.003  0.0595 -1.3981 -0.4000
31677SOL    HW2 1893   5.612   8.800   7.956 -0.0065  0.0012 -0.5311
31678SOL     OW 1894   7.972   8.262   9.588 -0.1434 -0.0787  0.0686
31678SOL    HW1 1895   7.963   8.293   9.497  0.9064  1.1013  0.3408
31678SOL    HW2 1896   7.971   8.342   9.640  0.1321 -0.6934  1.0296
31679SOL     OW 1897   4.358   9.589   6.129  0.2099 -0.4085 -0.4825
31679SOL    HW1 1898   4.399   9.530   6.066  0.8936 -2.0634  1.4407
31679SOL    HW2 1899   4.398   9.675   6.110  1.8282 -1.2469 -1.0471
31680SOL     OW 1900   4.215  10.185   1.671  0.0464 -0.2989  0.6390
31680SOL    HW1 1901   4.257  10.258   1.624 -1.8660 -0.1202 -0.8997
31680SOL    HW2 1902   4.139  10.224   1.714 -1.4296 -1.4420 -0.7988
31681SOL     OW 1903   2.019   8.715   8.535  0.3760 -0.1221  0.2817
31681SOL    HW1 1904   1.945   8.740   8.480 -0.2550 -2.5056 -0.0385
31681SOL    HW2 1905   2.008   8.767   8.615 -0.5791  0.8995 -0.4756
31682SOL     OW 1906  11.328   3.740   2.174 -0.1534 -0.0084 -0.0155
31682SOL    HW1 1907  11.365   3.808   2.117 -1.7453  0.8837 -0.0491
31682SOL    HW2 1908  11.382   3.744   2.253 -0.8224  2.0623  0.3998
31683SOL     OW 1909   5.267   0.177   6.298  0.5771  0.2559  0.0393
31683SOL    HW1 1910   5.308   0.092   6.309  0.6562 -0.5428 -4.4033
31683SOL    HW2 1911   5.176   0.164   6.325  1.1635 -0.4644  1.7563
31684SOL     OW 1912   9.818   3.860   9.608  0.4634  0.2573  0.4803
31684SOL    HW1 1913   9.758   3.865   9.534  0.2066 -1.3408  0.5393
31684SOL    HW2 1914   9.858   3.947   9.613 -2.0053  1.4675  0.6097
31685SOL     OW 1915   0.851   1.334   2.419 -0.1840 -0.8729 -0.0796
31685SOL    HW1 1916   0.795   1.401   2.380 -1.3134 -1.7750 -0.0585
31685SOL    HW2 1917   0.928   1.332   2.363 -0.8414 -0.6575 -1.0293
31686SOL     OW 1918   7.754   3.613  11.451  0.4231 -0.5439  0.6303
31686SOL    HW1 1919   7.758   3.625  11.546  0.8668  0.1112  0.5331
31686SOL    HW2 1920   7.840   3.642  11.420 -0.2833  0.7657 -0.1323
31687SOL     OW 1921  10.527   7.528   2.848  0.4247  0.0417  0.3107
31687SOL    HW1 1922  10.509   7.496   2.759 -0.3936  1.2195  0.0215
31687SOL    HW2 1923  10.448   7.508   2.897 -0.0664  1.4392  0.1491
31688SOL     OW 1924   1.146   3.541   1.279  0.2941 -0.7049  0.0425
31688SOL    HW1 1925   1.066   3.491   1.260  0.1940 -0.6299  0.2624
31688SOL    HW2 1926   1.184   3.497   1.355  0.5997 -0.8974 -0.2188
31689SOL     OW 1927   0.055   8.526   1.408 -0.1269 -0.6360  0.1079
31689SOL    HW1 1928   0.104   8.568   1.337  0.1235 -0.6611  0.2630
31689SOL    HW2 1929  -0.037   8.544   1.388 -0.2209 -2.4902 -1.3978
31690SOL     OW 1930  11.505  11.071  12.059  0.3497  0.4426 -0.3334
31690SOL    HW1 1931  11.554  10.991  12.080  0.6977  0.0472 -2.4392
31690SOL    HW2 1932  11.493  11.067  11.964  0.8681  3.1973 -0.5799
31691SOL     OW 1933   2.714   8.542   8.858 -0.1729 -0.5407 -0.3702
31691SOL    HW1 1934   2.683   8.525   8.947 -0.6813 -1.5268 -0.7132
31691SOL    HW2 1935   2.741   8.456   8.826 -0.6839 -0.3281 -1.4127
31692SOL     OW 1936   7.073   8.120   3.160 -0.0643 -0.0319  0.0658
31692SOL    HW1 1937   6.992   8.081   3.127  0.2828 -1.2646  0.6350
31692SOL    HW2 1938   7.054   8.214   3.162 -1.3627 -0.2646 -0.1347
31693SOL     OW 1939   4.966   6.907  10.842  0.0918  0.1824 -0.2691
31693SOL    HW1 1940   5.025   6.980  10.862 -1.1082  1.1879 -0.2627
31693SOL    HW2 1941   4.890   6.922  10.899  0.0453 -1.3747  0.1056
31694SOL     OW 1942   2.498   4.024   9.896 -0.2328  0.8842  0.4282
31694SOL    HW1 1943   2.555   4.057   9.966  0.1519  2.2758 -0.5159
31694SOL    HW2 1944   2.551   4.032   9.817 -1.4561  1.4258 -0.3507
31695SOL     OW 1945  12.078   6.451  10.783 -0.2526  0.0033 -0.6958
31695SOL    HW1 1946  12.071   6.516  10.713 -1.6972 -0.4963 -1.0326
31695SOL    HW2 1947  12.117   6.374  10.741  1.5114  0.6189 -0.2850
31696SOL     OW 1948   4.751   7.444   8.776 -0.0959  0.0610  0.3142
31696SOL    HW1 1949   4.789   7.356   8.779 -0.2172  0.0182  2.9427
31696SOL    HW2 1950   4.748   7.472   8.867 -0.7389  2.5315 -0.3850
31697SOL     OW 1951  11.933   4.188   8.500  0.0342 -0.2909 -0.4756
31697SOL    HW1 1952  11.923   4.143   8.584  0.1704  0.3593 -0.1091
31697SOL    HW2 1953  11.971   4.273   8.522  0.1032 -0.1280 -1.1994
31698SOL     OW 1954  11.320   7.188   4.780 -0.3103  0.2254  0.5121
31698SOL    HW1 1955  11.378   7.187   4.703 -1.9602 -1.3032 -0.8029
31698SOL    HW2 1956  11.359   7.123   4.839  0.5629  0.8716  0.6639
31699SOL     OW 1957   7.476   7.052   3.897 -0.2797 -0.5160 -0.1576
31699SOL    HW1 1958   7.386   7.052   3.862 -0.3468  0.5553 -0.0333
31699SOL    HW2 1959   7.476   7.124   3.960  1.3092  1.1610 -1.9295
31700SOL     OW 1960   8.719   1.025   3.739 -0.3115  0.0247  0.0924
31700SOL    HW1 1961   8.770   1.081   3.681  0.3369 -0.2368  0.3992
31700SOL    HW2 1962   8.684   0.957   3.681  0.9834 -0.6879  0.1079
31701SOL     OW 1963   6.026   8.600   0.496  1.0313  0.2849 -0.6148
31701SOL    HW1 1964   5.973   8.535   0.542 -0.4527  1.7220 -0.1948
31701SOL    HW2 1965   5.962   8.661   0.460  2.3626  1.2698 -1.3673
31702SOL     OW 1966   1.718   3.015  11.980 -0.9891  0.4279 -0.6619
31702SOL    HW1 1967   1.666   3.091  12.005  0.3938  1.8376 -1.9028
31702SOL    HW2 1968   1.712   3.012  11.885  0.3968  0.0379 -0.7504
31703SOL     OW 1969   6.332   0.310   1.523 -0.3331  0.1284  0.3115
31703SOL    HW1 1970   6.240   0.334   1.510 -0.6841 -1.1506  0.3196
31703SOL    HW2 1971   6.333   0.215   1.515  1.1915  0.2123 -0.8940
31704SOL     OW 1972   9.849   2.097  12.032  0.7772 -0.2824  0.3922
31704SOL    HW1 1973   9.785   2.155  11.991  1.0431  0.2886  0.7667
31704SOL    HW2 1974   9.797   2.040  12.089  0.4831 -0.6218 -0.2059
31705SOL     OW 1975  10.059  10.220   4.646  0.2377 -0.4528  0.0800
31705SOL    HW1 1976   9.968  10.250   4.647  0.7685  1.3837  2.0384
31705SOL    HW2 1977  10.075  10.195   4.555 -1.0954  3.0761 -1.3305
31706SOL     OW 1978   9.835  12.381   5.114  0.6980 -0.3518  0.1051
31706SOL    HW1 1979   9.861  12.329   5.037  0.8915 -0.3997  0.2023
31706SOL    HW2 1980   9.754  12.340   5.144  1.8216 -1.8221  1.3234
31707SOL     OW 1981  10.835   7.130   6.533 -0.9726 -0.6282 -0.4249
31707SOL    HW1 1982  10.832   7.099   6.442 -2.6225  1.8357 -1.3084
31707SOL    HW2 1983  10.882   7.213   6.529  0.7237 -1.4223  1.3743
31708SOL     OW 1984  12.346   4.100   6.855  0.0902 -0.2049  0.0179
31708SOL    HW1 1985  12.314   4.170   6.912  1.9531  2.0527 -1.5055
31708SOL    HW2 1986  12.291   4.106   6.777  0.5597 -0.1184 -0.3090
31709SOL     OW 1987   3.787   8.291   9.343 -0.1687  0.2564 -0.4268
31709SOL    HW1 1988   3.693   8.280   9.360 -0.1174  0.2598 -0.1348
31709SOL    HW2 1989   3.791   8.363   9.280 -0.4050 -0.2791 -1.0573
31710SOL     OW 1990   5.702   4.235  11.265  0.6648  0.2886  0.0825
31710SOL    HW1 1991   5.702   4.150  11.310  2.3095 -1.0055 -2.1378
31710SOL    HW2 1992   5.792   4.266  11.273  0.3140  1.3610  0.0187
31711SOL     OW 1993   9.439   7.047   5.954 -0.3186  0.4078  0.2170
31711SOL    HW1 1994   9.415   7.054   6.046 -1.2608 -4.0977  0.5555
31711SOL    HW2 1995   9.534   7.041   5.954 -0.2786  0.9500  0.8113
31712SOL     OW 1996  10.839   3.151   3.733 -0.0224  0.2786  0.0962
31712SOL    HW1 1997  10.872   3.240   3.752 -0.6626  0.4668  0.3358
31712SOL    HW2 1998  10.880   3.128   3.650  0.2283  0.7619  0.0810
31713SOL     OW 1999  11.315   7.354   6.900  0.2453  0.0146  0.1210
31713SOL    HW1 2000  11.365   7.397   6.970 -0.0315 -0.3946  0.5737
31713SOL    HW2 2001  11.280   7.275   6.940  2.3945 -1.7402 -1.2115
31714SOL     OW 2002   3.684  10.476   2.837  0.8016 -0.0166 -0.3840
31714SOL    HW1 2003   3.729  10.419   2.899 -0.3675 -0.3191  0.2250
31714SOL    HW2 2004   3.670  10.421   2.760 -1.2757 -0.9594  0.5984
31715SOL     OW 2005   3.785   0.085  10.958 -0.1973  0.5059  0.0963
31715SOL    HW1 2006   3.779   0.001  11.003  0.2634  0.9390  0.9860
31715SOL    HW2 2007   3.878   0.095  10.938 -0.3843  0.3408 -0.9484
31716SOL     OW 2008   0.212   1.233   0.653  0.3123 -0.2624 -0.4039
31716SOL    HW1 2009   0.280   1.168   0.636 -0.4475 -1.7800  1.8937
31716SOL    HW2 2010   0.132   1.195   0.617 -0.0676 -0.4858  0.6310
31717SOL     OW 2011   9.578   2.144  11.829 -0.0932 -0.5470 -0.1786
31717SOL    HW1 2012   9.490   2.163  11.863 -0.4339 -0.1081 -1.2628
31717SOL    HW2 2013   9.634   2.209  11.872 -0.7975  1.1735 -1.7192
31718SOL     OW 2014  11.514   6.730   1.273 -0.2292 -0.4014  0.0293
31718SOL    HW1 2015  11.599   6.749   1.234 -1.2808  0.4013 -2.0001
31718SOL    HW2 2016  11.457   6.708   1.199 -2.6327  2.4146  0.8317
31719SOL     OW 2017   9.185   4.878  10.643 -0.4331 -0.0328  0.5807
31719SOL    HW1 2018   9.260   4.927  10.608  0.4901 -0.9653  1.1879
31719SOL    HW2 2019   9.175   4.909  10.732 -1.5594  0.9540  0.1291
31720SOL     OW 2020   5.142   9.343  11.967 -0.4342  0.3246 -0.2318
31720SOL    HW1 2021   5.121   9.309  12.054  1.5996  0.9584  0.5774
31720SOL    HW2 2022   5.169   9.266  11.917 -2.1869 -0.1312 -0.5356
31721SOL     OW 2023   8.865   9.484   9.806  0.1591 -0.3497 -0.0478
31721SOL    HW1 2024   8.929   9.553   9.788  1.6016 -1.6499 -0.1180
31721SOL    HW2 2025   8.918   9.406   9.825 -1.4004 -1.6468 -0.7303
31722SOL     OW 2026   0.908   9.522   8.210 -0.0849  0.0627 -0.0729
31722SOL    HW1 2027   0.933   9.443   8.163  2.0320  2.5688 -3.6071
31722SOL    HW2 2028   0.836   9.559   8.158 -0.4229  0.9700  0.9959
31723SOL     OW 2029   3.938   3.639   3.410  0.2845 -0.4604 -0.4359
31723SOL    HW1 2030   4.023   3.635   3.453  0.8249  1.4646 -1.2245
31723SOL    HW2 2031   3.878   3.667   3.479  1.1546  2.6633 -0.7868
31724SOL     OW 2032   7.174   4.823   0.228 -0.0493  0.6613  0.9565
31724SOL    HW1 2033   7.102   4.833   0.290  0.5047  1.7815  1.4558
31724SOL    HW2 2034   7.253   4.836   0.281  0.4185  2.4854 -0.0954
31725SOL     OW 2035  10.585   2.770   7.815 -0.4681  0.3432 -0.7361
31725SOL    HW1 2036  10.522   2.791   7.746 -0.4882 -0.0059 -0.8274
31725SOL    HW2 2037  10.645   2.707   7.775 -0.4223  0.2125 -0.4662
31726SOL     OW 2038   7.462   1.690   0.218  0.3502 -0.2046 -0.3457
31726SOL    HW1 2039   7.462   1.648   0.132 -0.0162  0.7594 -0.8275
31726SOL    HW2 2040   7.371   1.688   0.246 -0.0006  1.7956 -1.1642
31727SOL     OW 2041   4.674   7.748   5.843  0.3246 -0.5582 -0.1782
31727SOL    HW1 2042   4.597   7.795   5.811 -0.2031 -1.0737  0.3087
31727SOL    HW2 2043   4.731   7.816   5.880 -0.1020 -0.2253 -0.1267
31728SOL     OW 2044   2.533   6.167   1.326 -0.1689 -0.5611  0.2916
31728SOL    HW1 2045   2.522   6.255   1.289  0.6042 -0.7933 -0.5210
31728SOL    HW2 2046   2.543   6.183   1.420 -0.4248  0.1864  0.2045
31729SOL     OW 2047   9.190  10.815   9.656 -0.5218  0.2267 -0.1353
31729SOL    HW1 2048   9.262  10.754   9.672 -0.3920  0.3946 -0.0810
31729SOL    HW2 2049   9.136  10.810   9.735 -0.4998  0.1998 -0.1220
31730SOL     OW 2050   3.166  11.314   3.532 -0.1762  0.3901 -0.4203
31730SOL    HW1 2051   3.242  11.274   3.573  1.6370  2.7427 -1.2622
31730SOL    HW2 2052   3.143  11.255   3.461  1.4588  0.0659 -0.7112
31731SOL     OW 2053   9.628   9.591   3.601  0.3295  0.0537  0.3628
31731SOL    HW1 2054   9.537   9.611   3.580  0.5996  0.5031 -0.4343
31731SOL    HW2 2055   9.629   9.499   3.624  0.2003 -0.8935 -2.9497
31732SOL     OW 2056   2.594   9.331   7.573  0.0291 -0.6344 -0.1952
31732SOL    HW1 2057   2.568   9.319   7.665 -0.6743  1.2941 -0.0994
31732SOL    HW2 2058   2.536   9.400   7.540 -0.0959 -1.6591 -2.2735
31733SOL     OW 2059  11.099   0.677   7.292 -0.1219  0.3953 -0.6351
31733SOL    HW1 2060  11.094   0.770   7.312 -1.3600  0.2340 -0.1033
31733SOL    HW2 2061  11.106   0.673   7.196  0.6829  1.0321 -0.6157
31734SOL     OW 2062  10.965   5.861  11.894  0.4092 -0.1755  0.5851
31734SOL    HW1 2063  10.996   5.857  11.804 -2.6895 -0.2760 -0.6065
31734SOL    HW2 2064  10.914   5.780  11.906  0.7303 -0.1614  2.4347
31735SOL     OW 2065  10.366   4.824  10.249  0.0430  0.2633  0.6572
31735SOL    HW1 2066  10.461   4.832  10.259 -0.1004  0.8964  1.6835
31735SOL    HW2 2067  10.352   4.732  10.227  0.7102 -0.6037  3.4462
31736SOL     OW 2068   6.892  10.050   7.242 -0.1277 -0.0343  0.3488
31736SOL    HW1 2069   6.960  10.086   7.300  0.7700 -2.0527  0.6227
31736SOL    HW2 2070   6.935  10.044   7.157 -1.3208  2.5498 -0.5286
31737SOL     OW 2071   3.651   2.253   8.433  0.5117 -0.4723 -0.2451
31737SOL    HW1 2072   3.582   2.291   8.489  0.4855  1.0764 -1.2651
31737SOL    HW2 2073   3.653   2.161   8.457 -1.6807 -0.4851  0.0836
31738SOL     OW 2074   6.979   3.836   2.882  0.1060  0.7330  0.2117
31738SOL    HW1 2075   6.921   3.894   2.931 -0.3085  0.3307  0.2059
31738SOL    HW2 2076   7.055   3.891   2.860 -0.2927  1.2786  0.1703
31739SOL     OW 2077   7.806   1.510   0.881  0.0141 -0.8138  0.4494
31739SOL    HW1 2078   7.829   1.503   0.974  2.5719 -0.7068 -0.0936
31739SOL    HW2 2079   7.718   1.546   0.881  1.0816  2.2727  2.8378
31740SOL     OW 2080   7.148   8.511   9.502  0.3381 -0.1839  0.1715
31740SOL    HW1 2081   7.162   8.591   9.452  0.4886 -1.2819 -1.6326
31740SOL    HW2 2082   7.201   8.445   9.457 -1.6632 -1.8477  0.1265
31741SOL     OW 2083   7.357   0.790   0.663  0.5325 -0.0445  0.5295
31741SOL    HW1 2084   7.365   0.694   0.656 -1.9839 -0.3880  1.3751
31741SOL    HW2 2085   7.315   0.804   0.748 -1.4667  1.6283 -0.6534
31742SOL     OW 2086   3.408   5.585   0.561 -0.8097  0.6493 -0.0758
31742SOL    HW1 2087   3.459   5.562   0.638  0.4426  0.7921 -0.8379
31742SOL    HW2 2088   3.318   5.561   0.583 -0.5046  0.9016  1.4971
31743SOL     OW 2089  11.558   9.018   4.977 -0.3005 -0.0212  0.2139
31743SOL    HW1 2090  11.651   9.037   4.977 -0.2002 -0.3921 -1.3565
31743SOL    HW2 2091  11.518   9.089   4.926 -0.8541  0.0341  0.7095
31744SOL     OW 2092   9.319   8.928   6.113  0.2769  0.1654 -0.0338
31744SOL    HW1 2093   9.383   8.865   6.145 -0.4186 -0.3166  0.4538
31744SOL    HW2 2094   9.347   9.011   6.151  1.0250  0.1035 -0.4297
31745SOL     OW 2095  10.817  11.214   6.506 -0.2593  0.2853  0.3444
31745SOL    HW1 2096  10.748  11.163   6.549  0.1376 -1.4066 -0.9051
31745SOL    HW2 2097  10.786  11.224   6.416 -0.2476  2.1931  0.5031
31746SOL     OW 2098   0.312   4.672   8.423 -0.1743  0.3920 -0.5929
31746SOL    HW1 2099   0.327   4.579   8.404 -0.4497  0.1596  0.2607
31746SOL    HW2 2100   0.232   4.694   8.376  0.0050  0.2508 -0.9651
31747SOL     OW 2101  11.472   6.587   0.235  0.5527 -0.1189  0.3349
31747SOL    HW1 2102  11.544   6.644   0.260  2.3195 -1.7131 -0.8428
31747SOL    HW2 2103  11.429   6.632   0.162  1.7977 -0.1601 -0.4495
31748SOL     OW 2104  10.185   9.683  11.398 -0.0343  0.5533  0.0741
31748SOL    HW1 2105  10.142   9.742  11.459 -0.9962  1.7081 -1.6365
31748SOL    HW2 2106  10.154   9.596  11.423  0.7772  0.7999  2.1225
31749SOL     OW 2107   4.524   4.219   2.168  0.4672  0.3077 -0.7939
31749SOL    HW1 2108   4.593   4.230   2.103  1.1618 -0.9364 -0.3084
31749SOL    HW2 2109   4.554   4.266   2.245 -0.9818  2.9706 -1.7238
31750SOL     OW 2110   9.550   3.154  11.559  0.1857 -0.0797 -0.2636
31750SOL    HW1 2111   9.478   3.215  11.575  0.3128  0.9587 -2.9859
31750SOL    HW2 2112   9.624   3.210  11.534  1.1408 -1.2324 -0.1314
31751SOL     OW 2113   3.903   4.553   3.286  0.4292 -0.2636  0.3268
31751SOL    HW1 2114   3.910   4.578   3.194  0.6580 -1.8396 -0.1204
31751SOL    HW2 2115   3.810   4.562   3.306  0.4337  0.4459  0.0667
31752SOL     OW 2116   3.992   9.879   6.450  0.1827  0.3630 -0.8646
31752SOL    HW1 2117   4.082   9.877   6.482 -0.5830  0.0988  1.4774
31752SOL    HW2 2118   3.940   9.845   6.523 -1.5335 -2.6522 -3.2605
31753SOL     OW 2119  11.007   7.131   9.801  0.0741  0.4444  0.0401
31753SOL    HW1 2120  10.926   7.118   9.850  0.0342 -0.5222 -0.2443
31753SOL    HW2 2121  11.058   7.192   9.853 -1.4252  2.2220 -0.4755
31754SOL     OW 2122  10.599   1.214   5.532  0.3426  0.0259  1.0120
31754SOL    HW1 2123  10.533   1.144   5.531 -1.7997  1.8197  3.2660
31754SOL    HW2 2124  10.600   1.246   5.442 -0.2017 -1.4967  0.4191
31755SOL     OW 2125  12.198   1.091  12.411 -0.0810 -0.2835  0.5329
31755SOL    HW1 2126  12.166   1.150  12.479  0.2161 -0.3827  0.7582
31755SOL    HW2 2127  12.179   1.137  12.329 -0.8534 -0.3617  0.6564
31756SOL     OW 2128   4.205   5.750   1.154 -0.0741 -0.3137  0.1469
31756SOL    HW1 2129   4.175   5.678   1.210  0.1753 -1.1043 -0.7085
31756SOL    HW2 2130   4.283   5.716   1.110  0.5897  0.8131  0.4128
31757SOL     OW 2131   5.132  11.720   2.125 -0.0390  0.5765  0.0682
31757SOL    HW1 2132   5.132  11.799   2.071  0.6778  2.7154  2.9483
31757SOL    HW2 2133   5.042  11.713   2.156 -0.1276  0.1781 -0.2726
31758SOL     OW 2134  10.727   7.167   8.486 -0.1159 -0.0242  0.1287
31758SOL    HW1 2135  10.634   7.170   8.509 -0.0252 -2.4444  1.1384
31758SOL    HW2 2136  10.740   7.079   8.451  2.1464 -0.4583  1.8634
31759SOL     OW 2137   6.069   1.413   4.134 -0.2119 -0.1616 -0.3365
31759SOL    HW1 2138   6.088   1.486   4.193  0.2959 -1.0248  0.6053
31759SOL    HW2 2139   5.978   1.426   4.107 -1.0888 -0.7155  2.1040
31760SOL     OW 2140   8.816   8.853   6.789  0.6629 -0.1199  0.1998
31760SOL    HW1 2141   8.896   8.800   6.793  0.8844 -0.0105 -1.9359
31760SOL    HW2 2142   8.766   8.815   6.718  0.0611  1.5190 -0.2909
31761SOL     OW 2143   9.428   5.807   2.027  0.3725 -0.2944  0.2246
31761SOL    HW1 2144   9.414   5.829   1.935  0.2342  0.0028  0.3132
31761SOL    HW2 2145   9.520   5.827   2.043  0.6145 -1.1615 -0.0666
31762SOL     OW 2146   4.607  11.764   9.708 -0.0806 -0.2202  0.1320
31762SOL    HW1 2147   4.679  11.700   9.704  1.5738  1.3306  2.4683
31762SOL    HW2 2148   4.547  11.728   9.773 -0.8096 -0.9000 -0.8936
31763SOL     OW 2149   6.707   0.501  11.183  0.5790 -0.4893  0.2105
31763SOL    HW1 2150   6.740   0.413  11.162  2.0733 -0.1734  1.0549
31763SOL    HW2 2151   6.785   0.550  11.209 -0.1879  1.1883 -0.5015
31764SOL     OW 2152   7.652  11.310  12.261 -0.0273  0.0751 -0.2359
31764SOL    HW1 2153   7.729  11.338  12.212 -0.6439  0.7318 -0.8578
31764SOL    HW2 2154   7.594  11.386  12.261  0.5930  0.6878  2.9310
31765SOL     OW 2155  11.359   6.875   7.041 -0.3285 -0.4892  0.4720
31765SOL    HW1 2156  11.433   6.920   7.001  0.6172 -1.3492  1.2136
31765SOL    HW2 2157  11.300   6.945   7.070 -0.0674  0.1860 -0.5822
31766SOL     OW 2158  10.801  10.349   1.667 -0.2238  0.1574  0.1348
31766SOL    HW1 2159  10.723  10.370   1.718  1.6768  0.9333  3.0057
31766SOL    HW2 2160  10.845  10.433   1.655  1.0373 -0.4563  0.2071
31767SOL     OW 2161   1.637   6.131   0.314 -0.0214  0.2810 -0.3088
31767SOL    HW1 2162   1.559   6.140   0.261 -0.6461  0.2610  0.5744
31767SOL    HW2 2163   1.709   6.156   0.257 -0.7307  0.8861 -0.9538
31768SOL     OW 2164   2.740   0.643   1.562 -0.0437 -0.1333 -0.0128
31768SOL    HW1 2165   2.749   0.735   1.539  0.7187 -0.7104 -2.2897
31768SOL    HW2 2166   2.687   0.605   1.492 -0.0892 -1.5016  0.7156
31769SOL     OW 2167   8.087   6.427   9.884 -0.2917 -0.9152 -0.0596
31769SOL    HW1 2168   8.152   6.417   9.954  1.4512  3.4240 -0.7360
31769SOL    HW2 2169   8.125   6.381   9.809  0.8470 -0.5084  0.2469
31770SOL     OW 2170   1.854   3.910   9.926  0.0364  0.1134  0.2990
31770SOL    HW1 2171   1.899   3.882   9.846 -0.3992  0.9477 -0.2556
31770SOL    HW2 2172   1.779   3.961   9.894 -0.6429 -0.2726  1.2284
31771SOL     OW 2173  11.835   5.930  10.443  0.6582 -0.0396 -0.5198
31771SOL    HW1 2174  11.914   5.982  10.459  0.4800  0.0976 -0.0834
31771SOL    HW2 2175  11.827   5.874  10.520  2.4833 -2.8435 -2.1836
31772SOL     OW 2176   2.647   9.086   6.028  0.1349  0.7970 -0.6903
31772SOL    HW1 2177   2.569   9.098   6.081 -1.1155  0.1288 -2.2963
31772SOL    HW2 2178   2.672   9.175   6.001 -0.4417  0.9665 -0.6697
31773SOL     OW 2179   0.896  11.616  10.220 -0.1733  0.1034 -0.3532
31773SOL    HW1 2180   0.989  11.621  10.199  0.0583  1.4085  0.8646
31773SOL    HW2 2181   0.854  11.594  10.136  1.1868 -0.2616 -0.9648
31774SOL     OW 2182  11.566   7.524   3.376  0.5116  0.2758 -0.6451
31774SOL    HW1 2183  11.550   7.505   3.468 -2.9652  1.4125 -0.8799
31774SOL    HW2 2184  11.547   7.618   3.367  0.4749  0.1276 -2.5755
31775SOL     OW 2185  11.006   5.556   6.398  0.5537 -0.3152  0.1081
31775SOL    HW1 2186  10.941   5.595   6.457  0.3017 -1.1364  0.3905
31775SOL    HW2 2187  10.954   5.507   6.334  0.8932 -1.2585  0.5350
31776SOL     OW 2188  10.807  11.596   5.332 -0.0464 -0.2210 -0.4656
31776SOL    HW1 2189  10.871  11.654   5.291 -0.8286  0.9739 -0.0367
31776SOL    HW2 2190  10.778  11.538   5.261  0.4184  0.1879 -1.0010
31777SOL     OW 2191   2.872   6.245   4.881 -0.1368 -0.1281 -0.6187
31777SOL    HW1 2192   2.904   6.220   4.967 -0.0131  1.1762 -0.2768
31777SOL    HW2 2193   2.912   6.182   4.821  0.0032 -0.8651  0.2317
31778SOL     OW 2194   9.771   5.726   3.019  0.2907  0.0147 -0.5479
31778SOL    HW1 2195   9.716   5.683   2.955 -0.8670  0.7661 -0.0860
31778SOL    HW2 2196   9.742   5.692   3.104  1.0927 -0.1890 -0.3424
31779SOL     OW 2197  12.267   5.601   0.272 -0.4387  0.4508 -0.2014
31779SOL    HW1 2198  12.338   5.632   0.217  0.8270 -1.2422  0.3858
31779SOL    HW2 2199  12.297   5.620   0.362 -0.0735 -1.4061  0.1193
31780SOL     OW 2200  12.480  11.292   2.745  0.2213  0.0117  0.1450
31780SOL    HW1 2201  12.387  11.287   2.723  0.4757  1.5012 -1.4782
31780SOL    HW2 2202  12.481  11.293   2.841 -1.2756 -1.9562  0.2406
31781SOL     OW 2203   6.403  10.042  11.297  0.1310 -0.0799  0.0860
31781SOL    HW1 2204   6.466   9.991  11.247  0.0515  0.4725 -0.6037
31781SOL    HW2 2205   6.325   9.987  11.301  1.4249 -1.9826  3.2982
31782SOL     OW 2206   7.023   8.520   2.643 -0.8346  0.0259  0.0527
31782SOL    HW1 2207   7.097   8.520   2.582  1.6852 -1.5430  2.7765
31782SOL    HW2 2208   6.961   8.582   2.606  2.1792  2.0914 -2.0815
31783SOL     OW 2209   6.195   4.647   1.709  0.5910  0.3409  0.3551
31783SOL    HW1 2210   6.154   4.561   1.701  1.0971  0.2008 -1.0909
31783SOL    HW2 2211   6.149   4.702   1.645  1.5941  0.5917 -0.1755
31784SOL     OW 2212   8.153  11.543   8.435  0.1658 -0.2835 -0.2340
31784SOL    HW1 2213   8.093  11.580   8.499  0.1289  1.1741 -1.0805
31784SOL    HW2 2214   8.224  11.505   8.487 -1.0287 -1.2663  0.7363
31785SOL     OW 2215   8.301   7.311  11.970 -0.2691 -0.2740 -0.1092
31785SOL    HW1 2216   8.319   7.341  11.881 -3.3775 -0.3216 -0.8397
31785SOL    HW2 2217   8.303   7.391  12.023 -1.4698  0.2337 -0.7998
31786SOL     OW 2218   3.684   1.183   8.693  0.1471 -0.8182 -0.1477
31786SOL    HW1 2219   3.621   1.253   8.679 -0.9020 -1.4199  1.2919
31786SOL    HW2 2220   3.635   1.103   8.673  0.6160 -1.2595  0.4483
31787SOL     OW 2221   7.170   7.244   7.554  0.5862 -0.3359 -0.0777
31787SOL    HW1 2222   7.226   7.322   7.554  0.2149  0.2575  5.3284
31787SOL    HW2 2223   7.227   7.173   7.582 -0.4993 -0.4862  1.8814
31788SOL     OW 2224   0.697   1.897   0.168 -0.2040  0.5100 -0.3530
31788SOL    HW1 2225   0.635   1.962   0.136  0.7707  1.6254 -0.0541
31788SOL    HW2 2226   0.691   1.904   0.264  0.4823  0.7503 -0.3204
31789SOL     OW 2227   8.430   8.377   3.346 -0.0451  0.3494  0.6879
31789SOL    HW1 2228   8.442   8.349   3.437 -0.0124 -2.1947 -0.0302
31789SOL    HW2 2229   8.501   8.335   3.298 -0.3254  1.2894 -0.6095
31790SOL     OW 2230   5.477   1.591   2.756  0.1615  0.2919 -0.2872
31790SOL    HW1 2231   5.472   1.500   2.727 -0.1962 -0.0498  0.7919
31790SOL    HW2 2232   5.533   1.634   2.691  0.8343 -0.8360 -0.4839
31791SOL     OW 2233   2.516   9.477  10.230 -0.2767 -0.3125 -0.2772
31791SOL    HW1 2234   2.589   9.451  10.286  0.0107  0.2451 -0.3893
31791SOL    HW2 2235   2.556   9.494  10.145 -0.7817 -1.7318 -0.8436
31792SOL     OW 2236   3.605   4.473   5.667  0.0011  0.0940  0.0852
31792SOL    HW1 2237   3.645   4.560   5.664  2.0673 -0.7880 -0.1306
31792SOL    HW2 2238   3.514   4.487   5.643 -0.4774  2.5671  2.7896
31793SOL     OW 2239  10.040  11.756   2.820  0.2017  0.4826 -0.4340
31793SOL    HW1 2240  10.001  11.833   2.861  1.3280  0.9607 -0.2123
31793SOL    HW2 2241  10.095  11.791   2.750  0.7475 -0.1220 -0.3141
31794SOL     OW 2242   6.642   3.922  10.268 -0.2660 -0.7404 -0.0115
31794SOL    HW1 2243   6.665   4.008  10.234  0.1459 -1.2117 -0.9758
31794SOL    HW2 2244   6.557   3.902  10.229 -0.2081 -0.9036 -0.0554
31795SOL     OW 2245   8.308  12.393   0.473  0.1729  0.1999 -0.2538
31795SOL    HW1 2246   8.361  12.472   0.481  1.0092  0.1528 -3.8539
31795SOL    HW2 2247   8.371  12.321   0.469 -0.3433 -0.2130 -1.1941
31796SOL     OW 2248   6.037   3.191   7.641  0.0638  0.2688  0.4909
31796SOL    HW1 2249   6.075   3.115   7.598  0.0140  0.5598 -0.0735
31796SOL    HW2 2250   6.111   3.252   7.650 -0.0441  0.4245  0.3240
31797SOL     OW 2251   9.252   0.741  12.007  0.4795  0.5684  0.0868
31797SOL    HW1 2252   9.219   0.811  11.951  0.4855 -2.4832 -4.2200
31797SOL    HW2 2253   9.174   0.688  12.027  0.7497  0.7530  1.8380
31798SOL     OW 2254   9.094  10.959  11.488  0.4030  0.0142 -0.0978
31798SOL    HW1 2255   9.058  11.048  11.489 -0.6378 -0.4061  0.5512
31798SOL    HW2 2256   9.184  10.970  11.521 -0.5978  0.4906  2.7558
31799SOL     OW 2257   5.387   8.354   7.641 -0.3448  0.6713  0.0328
31799SOL    HW1 2258   5.399   8.383   7.732 -0.8771 -2.7302  1.3271
31799SOL    HW2 2259   5.464   8.299   7.623 -1.1625 -0.2073 -0.8914
31800SOL     OW 2260  10.192   3.091   4.941 -0.0368  0.5445  0.3868
31800SOL    HW1 2261  10.101   3.075   4.917 -0.4651  1.4028  1.4004
31800SOL    HW2 2262  10.224   3.005   4.968 -0.0095 -0.1246 -1.5582
31801SOL     OW 2263   1.414   1.225   2.306 -0.0190  0.2762 -0.1621
31801SOL    HW1 2264   1.479   1.168   2.349 -1.8122 -0.7336  1.3688
31801SOL    HW2 2265   1.415   1.306   2.357  0.6884  0.6349 -0.7318
31802SOL     OW 2266   8.604   5.530   2.427 -0.1828  0.5106  0.2600
31802SOL    HW1 2267   8.631   5.495   2.512  0.3141  0.4347  0.0794
31802SOL    HW2 2268   8.626   5.461   2.365  0.0116  0.8003  0.0013
31803SOL     OW 2269   9.711   4.726   9.205 -0.9220 -0.9398 -0.3342
31803SOL    HW1 2270   9.733   4.633   9.215 -1.6895 -1.1095 -0.1590
31803SOL    HW2 2271   9.617   4.726   9.187 -0.7875 -0.2395 -1.0736
31804SOL     OW 2272   5.433  10.187   4.611 -0.1922 -0.2049 -0.0184
31804SOL    HW1 2273   5.392  10.273   4.613  1.1947  0.6970 -3.3975
31804SOL    HW2 2274   5.487  10.184   4.690 -1.6458  1.2333  1.0921
31805SOL     OW 2275  11.923   9.358   2.531 -0.0934  0.2852 -0.2039
31805SOL    HW1 2276  11.950   9.368   2.622 -2.4148  1.7951  0.4008
31805SOL    HW2 2277  11.857   9.289   2.534  0.5061 -0.3365 -0.9337
31806SOL     OW 2278   9.139   3.292   1.552 -0.0876 -0.2747  0.3521
31806SOL    HW1 2279   9.140   3.348   1.630  0.4581 -1.1655  1.0143
31806SOL    HW2 2280   9.221   3.312   1.507 -0.7956  0.8687 -0.4844
31807SOL     OW 2281   3.933   1.827  12.027  0.4880 -0.3715 -0.3497
31807SOL    HW1 2282   4.016   1.795  11.992  0.3789  0.7178 -1.7205
31807SOL    HW2 2283   3.950   1.843  12.120  1.0617 -2.5294 -0.0485
31808SOL     OW 2284   2.271   1.174  11.220  0.5050  0.0002 -0.6685
31808SOL    HW1 2285   2.347   1.225  11.248 -1.7589  3.3105  0.0417
31808SOL    HW2 2286   2.234   1.224  11.147 -1.2561 -1.2213 -0.6697
31809SOL     OW 2287   2.889   4.340   8.406  0.1974  0.1570  0.2172
31809SOL    HW1 2288   2.924   4.251   8.406 -0.1218 -0.1023  3.4720
31809SOL    HW2 2289   2.802   4.332   8.445 -1.1940  1.5591 -2.3406
31810SOL     OW 2290  11.291   1.377   7.525  0.3369 -0.2482  0.0351
31810SOL    HW1 2291  11.207   1.339   7.554  0.0662 -0.4544 -0.9904
31810SOL    HW2 2292  11.346   1.301   7.506  0.7209 -0.1108  0.5832
31811SOL     OW 2293   0.002   2.851  10.850 -0.6592 -0.4591 -0.1346
31811SOL    HW1 2294  -0.090   2.878  10.855 -0.8119 -1.0156  0.1038
31811SOL    HW2 2295  -0.001   2.757  10.834 -0.1722 -1.0020  2.4951
31812SOL     OW 2296   1.658  10.256   1.309 -0.5020 -0.2022 -0.1537
31812SOL    HW1 2297   1.586  10.319   1.315 -0.8551 -0.6791  0.8525
31812SOL    HW2 2298   1.633  10.185   1.369  1.1328 -0.0298  0.7869
31813SOL     OW 2299  10.421   8.480  10.740 -0.1529 -0.2821  0.4677
31813SOL    HW1 2300  10.365   8.407  10.765 -0.0417 -1.8421 -3.1880
31813SOL    HW2 2301  10.384   8.511  10.658  1.6106  1.8059  0.3845
31814SOL     OW 2302   0.720  10.046   2.286  0.4885  0.2348 -0.2381
31814SOL    HW1 2303   0.803  10.032   2.331  0.7860  0.9445 -0.5575
31814SOL    HW2 2304   0.699   9.960   2.248 -0.4046 -0.7201  2.2573
31815SOL     OW 2305   9.041   1.610   9.979 -0.1600  1.0426  0.1007
31815SOL    HW1 2306   9.080   1.587  10.064 -0.8325  0.8370  0.3663
31815SOL    HW2 2307   8.959   1.653  10.002 -1.0613 -0.3156 -0.4465
31816SOL     OW 2308   5.027   5.154   1.419 -0.0739  0.4539  0.0789
31816SOL    HW1 2309   5.105   5.202   1.446 -0.3553  0.0186  1.8153
31816SOL    HW2 2310   4.954   5.203   1.458 -0.7048  0.9438 -1.6400
31817SOL     OW 2311   3.790   4.062   3.227 -0.1541  0.4036 -0.2754
31817SOL    HW1 2312   3.721   4.024   3.173 -0.0337 -0.5936  0.2519
31817SOL    HW2 2313   3.833   4.125   3.170 -0.0232 -0.6356 -1.3629
31818SOL     OW 2314   2.625   7.920   4.082 -0.0632 -0.0603 -0.1864
31818SOL    HW1 2315   2.572   7.940   4.159  0.1668 -0.5118  0.0966
31818SOL    HW2 2316   2.706   7.971   4.096 -0.1381  0.0832 -0.2738
31819SOL     OW 2317   6.481   2.216   0.314 -0.3022  0.0126  0.2624
31819SOL    HW1 2318   6.536   2.250   0.385  1.2425  0.0851 -0.9087
31819SOL    HW2 2319   6.517   2.129   0.296 -0.1429  0.2999 -0.9199
31820SOL     OW 2320   3.093   4.301   1.626  0.0770  0.1557 -0.4007
31820SOL    HW1 2321   3.079   4.223   1.573 -1.8540 -0.6421  1.1522
31820SOL    HW2 2322   3.076   4.374   1.566 -0.2991 -0.6604 -1.3175
31821SOL     OW 2323   3.649   0.362   1.112  0.0934  0.6237  0.2572
31821SOL    HW1 2324   3.705   0.320   1.178  0.2959  0.5439  0.0373
31821SOL    HW2 2325   3.563   0.367   1.153  0.4736  1.6195  0.9672
31822SOL     OW 2326   4.463   8.907   4.961 -0.1705 -0.1279 -0.1665
31822SOL    HW1 2327   4.472   8.819   4.996 -4.3473 -0.2857  1.0430
31822SOL    HW2 2328   4.390   8.945   5.009 -0.2594  3.0551 -2.4673
31823SOL     OW 2329   7.131   0.651  10.685 -0.0177  0.2533  0.3764
31823SOL    HW1 2330   7.062   0.665  10.751 -0.7977  0.0091 -0.3672
31823SOL    HW2 2331   7.096   0.583  10.628  2.1917 -2.3040  1.8333
31824SOL     OW 2332   9.543   8.820   5.237 -0.1913  0.0815 -0.2989
31824SOL    HW1 2333   9.506   8.909   5.237 -1.3720 -0.3586  1.3710
31824SOL    HW2 2334   9.482   8.770   5.183  0.2258  0.1867 -0.8702
31825SOL     OW 2335   9.319   5.968   9.870  0.1177 -0.1853  0.0468
31825SOL    HW1 2336   9.259   6.039   9.848  0.0067 -0.1030  0.6206
31825SOL    HW2 2337   9.401   5.993   9.829  0.1426  0.3877  0.4414
31826SOL     OW 2338   1.465  11.674   1.458  0.1558 -0.5548 -0.4208
31826SOL    HW1 2339   1.405  11.638   1.522  1.6496 -0.0953  1.3188
31826SOL    HW2 2340   1.427  11.759   1.434 -0.4091 -0.7302 -0.1456
31827SOL     OW 2341   4.431  11.718   7.007  0.1399  0.4361  0.3962
31827SOL    HW1 2342   4.439  11.687   6.917  1.4456 -1.7767  1.2079
31827SOL    HW2 2343   4.402  11.809   6.998 -0.3350  0.1164 -2.2178
31828SOL     OW 2344   9.416   1.052  11.781 -0.5916  0.0726  0.0381
31828SOL    HW1 2345   9.480   0.984  11.802  0.4209  1.2666  0.9371
31828SOL    HW2 2346   9.458   1.104  11.713  0.6225  2.4309  2.4108
31829SOL     OW 2347  10.577   4.789   4.311 -0.4923 -0.4033  0.3663
31829SOL    HW1 2348  10.601   4.868   4.262  0.4973 -0.2768  1.0170
31829SOL    HW2 2349  10.528   4.736   4.249 -1.0541  0.6611 -0.1256
31830SOL     OW 2350   1.751  10.032   5.681  0.2468 -0.2689 -0.1280
31830SOL    HW1 2351   1.713   9.946   5.703 -2.1988  0.3564 -1.5237
31830SOL    HW2 2352   1.741  10.039   5.587 -0.8966  2.1100  0.1059
31831SOL     OW 2353  10.272   4.940   6.453  0.1446 -0.3995  0.0061
31831SOL    HW1 2354  10.300   4.929   6.543 -1.1384  1.0795  0.6428
31831SOL    HW2 2355  10.190   4.990   6.459 -0.3570 -0.8814 -1.9364
31832SOL     OW 2356   2.770   6.818   1.568 -0.2215  0.6899 -0.0409
31832SOL    HW1 2357   2.707   6.762   1.613  0.3872  0.2204  0.2433
31832SOL    HW2 2358   2.815   6.865   1.638  0.7919 -0.1052 -0.1157
31833SOL     OW 2359  11.954   7.719   3.505  0.4035  0.2829 -0.3964
31833SOL    HW1 2360  11.948   7.638   3.556  1.9803  0.1982 -0.3123
31833SOL    HW2 2361  12.018   7.772   3.552  0.3362  1.0558 -1.1603
31834SOL     OW 2362  11.528   2.125  10.001  0.0510  0.5492  0.1364
31834SOL    HW1 2363  11.586   2.171  10.062  0.4636 -0.7865  0.7914
31834SOL    HW2 2364  11.530   2.034  10.031  0.0441 -0.0900 -1.6987
31835SOL     OW 2365   2.362   7.622   0.267  0.7335 -0.5394 -0.0237
31835SOL    HW1 2366   2.268   7.635   0.279  0.6085 -0.6597 -0.8132
31835SOL    HW2 2367   2.374   7.620   0.172  1.6618  0.3962  0.0562
31836SOL     OW 2368   3.586   3.223   2.546 -0.4418  0.5010  0.0881
31836SOL    HW1 2369   3.663   3.268   2.511 -1.0628  0.5072 -1.3278
31836SOL    HW2 2370   3.588   3.243   2.640  1.2648  0.4988  0.0856
31837SOL     OW 2371   2.886   2.992   4.345  0.3298 -0.4388 -0.4852
31837SOL    HW1 2372   2.954   3.004   4.410  0.6680 -1.3491 -0.6533
31837SOL    HW2 2373   2.927   2.940   4.276  0.6046  2.1401 -2.4408
31838SOL     OW 2374   1.091   6.639   0.374 -0.1702  0.7364 -0.5585
31838SOL    HW1 2375   1.073   6.557   0.421  0.8803 -0.1177 -1.5731
31838SOL    HW2 2376   1.006   6.669   0.344 -0.7265  0.7013  0.9131
31839SOL     OW 2377   1.797   5.584   4.979 -0.2084 -0.5623 -0.1268
31839SOL    HW1 2378   1.854   5.507   4.988  0.1654 -0.1910  0.7395
31839SOL    HW2 2379   1.760   5.597   5.066  1.4646  1.5542  0.3568
31840SOL     OW 2380   6.962  12.367   0.248  0.0692 -0.0640 -0.3992
31840SOL    HW1 2381   7.011  12.333   0.323  0.5057 -2.2821 -1.6075
31840SOL    HW2 2382   6.889  12.306   0.237  1.5785 -1.5380 -3.4166
31841SOL     OW 2383   5.700  11.873   9.083  0.1452  0.1358 -0.2815
31841SOL    HW1 2384   5.731  11.853   9.172 -0.7606  0.7003  0.1752
31841SOL    HW2 2385   5.663  11.961   9.089 -3.0112 -1.0254 -0.3392
31842SOL     OW 2386   3.858   9.434   0.264 -0.4122 -0.7282 -0.2459
31842SOL    HW1 2387   3.914   9.458   0.189  0.1117  0.7774  0.5832
31842SOL    HW2 2388   3.859   9.512   0.320 -0.9876 -1.7400  1.2203
31843SOL     OW 2389   6.846   5.429   4.647 -0.2955 -0.1575 -0.0282
31843SOL    HW1 2390   6.854   5.335   4.664 -0.0063 -0.2203 -0.5001
31843SOL    HW2 2391   6.752   5.447   4.658 -0.4425 -0.6134 -0.5105
31844SOL     OW 2392  10.850   3.310  10.365 -0.0685 -0.2780 -0.2786
31844SOL    HW1 2393  10.902   3.306  10.285  1.1020  0.4101  0.4249
31844SOL    HW2 2394  10.828   3.219  10.384 -0.5271 -0.4341 -1.4717
31845SOL     OW 2395   9.665   4.183   3.528 -0.6765  0.2512 -0.2652
31845SOL    HW1 2396   9.575   4.216   3.537 -0.3504  1.0785  0.0584
31845SOL    HW2 2397   9.675   4.121   3.601 -1.3814 -0.7924 -1.0316
31846SOL     OW 2398   5.754   8.485  11.661 -0.0857 -0.5433 -0.0729
31846SOL    HW1 2399   5.766   8.400  11.621  1.2044 -0.2032 -0.4557
31846SOL    HW2 2400   5.668   8.480  11.704  0.4233 -2.3913  0.8283
31847SOL     OW 2401   5.473   0.537  12.104  0.2798  0.3255 -0.1349
31847SOL    HW1 2402   5.452   0.546  12.197 -1.0389 -0.5818 -0.3240
31847SOL    HW2 2403   5.472   0.627  12.071 -2.8136  0.4608  0.0249
31848SOL     OW 2404   0.240   0.784  10.960  0.3344  0.1072  0.2678
31848SOL    HW1 2405   0.261   0.702  11.004  0.5054  0.3341  0.6149
31848SOL    HW2 2406   0.321   0.835  10.964  0.7170 -0.3222 -1.3592
31849SOL     OW 2407   9.276   6.094   4.918  0.4146 -0.2087 -0.5370
31849SOL    HW1 2408   9.318   6.095   4.832  1.3488  1.6100 -0.1173
31849SOL    HW2 2409   9.316   6.168   4.965  1.5864 -2.4342  2.2805
31850SOL     OW 2410   6.846   8.263   6.753 -0.8795 -0.1279 -0.2297
31850SOL    HW1 2411   6.858   8.325   6.681 -0.3209 -1.7919 -1.6242
31850SOL    HW2 2412   6.878   8.311   6.830 -1.2734  1.6167 -1.0891
31851SOL     OW 2413   7.736   5.335   2.835  0.0413 -0.2164  0.5693
31851SOL    HW1 2414   7.722   5.274   2.907  0.1353  0.5388  1.2362
31851SOL    HW2 2415   7.788   5.406   2.873  0.6436 -0.1150 -0.3978
31852SOL     OW 2416   5.041   9.260   9.354  0.3587 -0.3198  0.8370
31852SOL    HW1 2417   5.057   9.165   9.358 -1.7256 -0.8131 -0.8415
31852SOL    HW2 2418   5.099   9.291   9.285  0.3347 -0.5614  0.7067
31853SOL     OW 2419   8.164   3.980  11.409 -0.5873 -0.8095 -0.0986
31853SOL    HW1 2420   8.213   4.008  11.487 -0.6047 -0.1325 -0.3255
31853SOL    HW2 2421   8.230   3.972  11.340 -0.7033 -0.5201 -0.2434
31854SOL     OW 2422   1.966   0.348  10.442  0.4252  0.2841  0.3871
31854SOL    HW1 2423   1.876   0.353  10.474  0.5219  2.3872  0.4635
31854SOL    HW2 2424   2.019   0.383  10.514  1.0422  1.3046 -0.5309
31855SOL     OW 2425   9.060   0.020   0.469  0.3234  0.3919  0.2541
31855SOL    HW1 2426   9.115   0.073   0.412  1.0496 -0.0350  0.5502
31855SOL    HW2 2427   9.014  -0.040   0.410 -0.0033  0.8969 -0.0141
31856SOL     OW 2428   1.817   5.780   6.489 -0.3934 -0.0923 -0.4263
31856SOL    HW1 2429   1.839   5.831   6.410 -1.4138  0.9719 -0.0537
31856SOL    HW2 2430   1.767   5.706   6.456  1.5107 -1.1922 -1.0284
31857SOL     OW 2431   2.820  10.634   1.114 -0.1155 -0.8209 -0.5138
31857SOL    HW1 2432   2.863  10.699   1.057  0.0633  0.5648  1.1132
31857SOL    HW2 2433   2.727  10.641   1.092 -0.2305  0.7545  0.2870
31858SOL     OW 2434   2.480  11.256  10.926 -0.1348 -0.0676 -0.3409
31858SOL    HW1 2435   2.439  11.288  11.007  1.0751  0.9677 -0.0962
31858SOL    HW2 2436   2.494  11.163  10.941 -0.2668  0.0431  0.5039
31859SOL     OW 2437   3.142   3.571   3.039 -0.5916 -0.1552  0.5482
31859SOL    HW1 2438   3.195   3.550   2.962  0.0970 -1.6785  1.4025
31859SOL    HW2 2439   3.204   3.611   3.100 -0.7599 -0.5089  0.9537
31860SOL     OW 2440   9.527   6.687  12.176  0.1112 -0.2344  0.2172
31860SOL    HW1 2441   9.586   6.695  12.250  1.5322 -0.9026 -0.7981
31860SOL    HW2 2442   9.456   6.630  12.208  0.7822 -0.6478  1.0032
31861SOL     OW 2443   8.528   2.535   0.765 -0.4034 -0.2182 -0.7343
31861SOL    HW1 2444   8.475   2.611   0.788  1.4299  1.1900 -0.9415
31861SOL    HW2 2445   8.544   2.545   0.671 -0.6183 -1.1766 -0.8799
31862SOL     OW 2446   7.266   5.882   2.541  0.1239  0.4051 -0.4535
31862SOL    HW1 2447   7.235   5.841   2.622 -0.7574  0.7517 -0.5966
31862SOL    HW2 2448   7.341   5.830   2.514 -0.7837 -0.9316 -0.4754
31863SOL     OW 2449   6.538   7.950   3.461 -0.1833 -0.2248 -0.6417
31863SOL    HW1 2450   6.477   7.944   3.534  0.2348 -1.9244 -0.3774
31863SOL    HW2 2451   6.521   8.035   3.421 -1.5619  0.0247  0.4247
31864SOL     OW 2452   4.097   8.990   1.746  0.4470  0.0315 -0.0112
31864SOL    HW1 2453   4.117   8.942   1.665  1.2242  0.5706 -0.1536
31864SOL    HW2 2454   4.132   9.078   1.730 -1.3496  0.8031  0.0590
31865SOL     OW 2455   4.843  10.290   6.190  0.2034  0.8813 -0.1807
31865SOL    HW1 2456   4.808  10.304   6.102  1.2305  0.2973 -0.6968
31865SOL    HW2 2457   4.818  10.369   6.238  0.8790  1.8879 -1.4039
31866SOL     OW 2458   9.397  12.314   5.812 -0.1188 -0.2656 -0.5386
31866SOL    HW1 2459   9.346  12.341   5.735 -1.0411  1.5437  0.6614
31866SOL    HW2 2460   9.337  12.323   5.885  0.2651 -3.4227  0.3083
31867SOL     OW 2461   2.823   3.700   0.055 -0.0208 -0.5687 -0.4578
31867SOL    HW1 2462   2.765   3.627   0.035  2.9181 -2.5861 -2.5333
31867SOL    HW2 2463   2.881   3.666   0.124  1.1668 -0.1425 -1.2093
31868SOL     OW 2464   7.209   1.815   0.336 -0.0257 -0.1411  0.2009
31868SOL    HW1 2465   7.194   1.874   0.410 -0.4736  0.3624 -0.2873
31868SOL    HW2 2466   7.235   1.732   0.377 -1.0320 -0.1024  0.9615
31869SOL     OW 2467  12.159   6.566   4.438  0.2465 -0.1223 -0.8112
31869SOL    HW1 2468  12.185   6.483   4.477 -1.4560 -0.0567  0.5615
31869SOL    HW2 2469  12.216   6.631   4.478  0.9200 -0.4869 -1.1610
31870SOL     OW 2470  11.778   0.246   1.593  0.1577  0.3639 -0.2330
31870SOL    HW1 2471  11.819   0.330   1.616 -0.2598  0.3247  0.6954
31870SOL    HW2 2472  11.688   0.268   1.572  0.1537  0.1999 -0.3889
31871SOL     OW 2473  11.520   6.893   3.931  0.1626 -0.2381  0.5314
31871SOL    HW1 2474  11.535   6.803   3.961  0.6330 -0.5542 -0.5878
31871SOL    HW2 2475  11.592   6.943   3.968 -0.2718 -0.2455  1.4190
31872SOL     OW 2476   1.368  11.872   7.231  0.2423 -0.0690 -0.6549
31872SOL    HW1 2477   1.456  11.899   7.259  0.0170 -0.3693  0.3979
31872SOL    HW2 2478   1.376  11.778   7.213  0.1472 -0.0922 -0.5782
31873SOL     OW 2479  10.789  11.552   8.245  0.5228  0.6307  0.0493
31873SOL    HW1 2480  10.779  11.535   8.151 -0.0078  2.2126 -0.2138
31873SOL    HW2 2481  10.871  11.602   8.252  1.7904 -1.3974  0.7361
31874SOL     OW 2482   3.275   9.010   3.432  0.2639 -0.3361  0.0862
31874SOL    HW1 2483   3.262   8.921   3.464 -2.4728 -0.0608 -0.0595
31874SOL    HW2 2484   3.350   9.043   3.483  1.3092 -2.6563  0.1561
31875SOL     OW 2485  12.054   4.488  10.057 -0.0221 -0.4000 -0.0602
31875SOL    HW1 2486  11.979   4.522  10.105  0.4247 -0.1435  0.4652
31875SOL    HW2 2487  12.055   4.539   9.976  0.0884  0.1938  0.3078
31876SOL     OW 2488   7.217   0.163   5.331  0.0182 -0.2128  0.3423
31876SOL    HW1 2489   7.223   0.114   5.413  0.8674  0.8104  0.9183
31876SOL    HW2 2490   7.294   0.220   5.332  0.3714 -0.6198 -1.4584
31877SOL     OW 2491   5.764  11.309   8.292  0.5307  0.1346 -0.1147
31877SOL    HW1 2492   5.831  11.365   8.253 -0.4832  1.3224 -0.2156
31877SOL    HW2 2493   5.682  11.353   8.272 -1.0211 -3.9764 -5.1229
31878SOL     OW 2494   4.632   4.000   3.407 -0.3362 -0.1128 -0.1388
31878SOL    HW1 2495   4.649   4.071   3.345  0.7449  0.4461  0.7538
31878SOL    HW2 2496   4.706   3.940   3.394  0.7156  0.7394  1.5771
31879SOL     OW 2497   1.844   3.613   4.538  0.9328 -0.3708 -0.1980
31879SOL    HW1 2498   1.777   3.682   4.544  1.4973  0.0958  1.3181
31879SOL    HW2 2499   1.864   3.591   4.629  2.0293 -1.3129 -0.6362
31880SOL     OW 2500  12.004   9.589   0.421 -0.3144 -0.2116 -0.2548
31880SOL    HW1 2501  11.939   9.649   0.384  0.2645 -0.3309 -1.5302
31880SOL    HW2 2502  12.065   9.646   0.468  0.0251  0.1789 -1.1459
31881SOL     OW 2503   7.059   2.867   4.915  0.1181  0.4030  0.0258
31881SOL    HW1 2504   7.146   2.829   4.914 -0.6712 -1.5485 -1.5736
31881SOL    HW2 2505   7.000   2.792   4.905 -1.8248  1.5506  1.9223
31882SOL     OW 2506   9.439   3.225  12.383 -0.5957  0.3268  0.2876
31882SOL    HW1 2507   9.530   3.248  12.399  0.0506 -1.3463 -0.7531
31882SOL    HW2 2508   9.401   3.214  12.470  0.8888 -1.4661  0.7615
31883SOL     OW 2509   4.358   0.417  11.797  0.5364  0.1861 -0.2573
31883SOL    HW1 2510   4.418   0.454  11.862  0.3022  1.3219 -0.6709
31883SOL    HW2 2511   4.415   0.381  11.729  0.9076 -3.3667  1.7005
31884SOL     OW 2512   0.101   9.373   7.720 -0.5662 -0.0029 -0.6245
31884SOL    HW1 2513   0.098   9.464   7.750  1.3359 -0.8307  2.5229
31884SOL    HW2 2514   0.175   9.370   7.658  0.0674  0.4031  0.0984
31885SOL     OW 2515   4.452   5.533   6.060  0.4772  0.3227  0.2395
31885SOL    HW1 2516   4.482   5.621   6.039 -0.9353  0.9193  0.6025
31885SOL    HW2 2517   4.392   5.510   5.989  0.9035 -0.3961  0.0964
31886SOL     OW 2518  11.871   1.474   0.035 -0.2535 -0.5646  0.8998
31886SOL    HW1 2519  11.851   1.382   0.050  1.3020 -0.5304  3.8254
31886SOL    HW2 2520  11.945   1.474  -0.026 -0.5075 -1.2038  0.5875
31887SOL     OW 2521  12.293   6.166   4.100 -0.3267 -0.1070 -0.1052
31887SOL    HW1 2522  12.386   6.182   4.112 -0.1177 -0.9203 -0.5546
31887SOL    HW2 2523  12.269   6.218   4.023 -0.3261  0.3640  0.2084
31888SOL     OW 2524   2.469   1.271   6.785 -0.3442 -0.5385  0.4989
31888SOL    HW1 2525   2.468   1.361   6.820  1.0458 -0.8839  1.5304
31888SOL    HW2 2526   2.442   1.280   6.694 -0.4283  0.9003  0.6434
31889SOL     OW 2527   5.201   9.412   0.705  0.7200  0.4267  0.5396
31889SOL    HW1 2528   5.212   9.389   0.797  1.0056 -1.2907  0.1155
31889SOL    HW2 2529   5.118   9.374   0.680  1.9329 -1.6691 -0.5881
31890SOL     OW 2530   5.758  11.215   1.383 -0.1671  0.0378 -0.2177
31890SOL    HW1 2531   5.680  11.160   1.379 -0.1750 -0.0094  0.5823
31890SOL    HW2 2532   5.829  11.157   1.355  0.0441 -0.8145  1.8839
31891SOL     OW 2533   9.357   2.193  10.074  0.5625  0.1665  0.7404
31891SOL    HW1 2534   9.271   2.233  10.084  1.1471  2.1153 -1.2458
31891SOL    HW2 2535   9.418   2.254  10.116  1.2876  0.5519 -0.7843
31892SOL     OW 2536   8.775   9.091  11.662 -0.5314 -0.5664  0.5437
31892SOL    HW1 2537   8.783   9.163  11.724 -0.6663 -0.2416  0.1858
31892SOL    HW2 2538   8.781   9.132  11.576 -1.5725 -0.8648  0.3166
31893SOL     OW 2539   4.017   9.231   4.995  0.3034  0.4539  0.0270
31893SOL    HW1 2540   4.017   9.151   5.047  1.6823  1.4610  1.6645
31893SOL    HW2 2541   4.010   9.302   5.059  0.4366  1.7097 -1.2872
31894SOL     OW 2542   2.786   9.560   1.087 -0.3046 -0.1468  0.4034
31894SOL    HW1 2543   2.785   9.645   1.131 -0.2713  0.1932 -0.2393
31894SOL    HW2 2544   2.879   9.535   1.086 -0.2217  0.1576 -0.0480
31895SOL     OW 2545   1.674  11.206   8.033  0.0011  0.1746  0.2907
31895SOL    HW1 2546   1.710  11.295   8.038 -1.9012  0.9701  0.7556
31895SOL    HW2 2547   1.705  11.164   8.113  2.7318 -0.3801 -0.9429
31896SOL     OW 2548  11.552  10.161   7.234  0.6180 -0.1826 -0.4341
31896SOL    HW1 2549  11.524  10.168   7.143 -1.4308 -1.6924  0.0200
31896SOL    HW2 2550  11.647  10.166   7.230  0.8463 -3.2669 -3.0609
31897SOL     OW 2551   0.605  10.425  10.280  0.3446  0.3888 -0.3951
31897SOL    HW1 2552   0.656  10.469  10.348 -0.1241  0.5202 -0.1240
31897SOL    HW2 2553   0.670  10.389  10.220  0.7551  0.4729  0.0002
31898SOL     OW 2554   8.280  10.560   9.428 -0.1978 -0.2215  0.4890
31898SOL    HW1 2555   8.370  10.533   9.445 -0.2593  0.5526  2.2592
31898SOL    HW2 2556   8.229  10.520   9.498 -1.4038 -1.3039 -0.9299
31899SOL     OW 2557   9.865   6.382   7.953 -0.1342  0.1862  0.8140
31899SOL    HW1 2558   9.915   6.314   7.998  0.7257  0.4484  0.2811
31899SOL    HW2 2559   9.929   6.451   7.936 -0.7854  0.7257  0.5207
31900SOL     OW 2560   6.393   7.810   7.249 -0.3732  0.1812 -0.1316
31900SOL    HW1 2561   6.432   7.736   7.203  0.7758  1.0285 -0.5679
31900SOL    HW2 2562   6.403   7.884   7.188  1.1973  1.3330  1.4438
31901SOL     OW 2563  11.565   8.598   3.374  0.3076  0.3021 -0.3063
31901SOL    HW1 2564  11.576   8.685   3.337 -0.8594  0.9610  0.8157
31901SOL    HW2 2565  11.554   8.541   3.298  0.3879  1.2207 -1.0311
31902SOL     OW 2566  11.272   9.449   6.884 -0.6840 -0.3065 -0.0938
31902SOL    HW1 2567  11.349   9.423   6.934 -0.7375  1.9417  1.3057
31902SOL    HW2 2568  11.231   9.367   6.858  0.8744 -1.5566  1.1829
31903SOL     OW 2569   8.295   9.131   6.980  0.3325 -0.0149  0.4862
31903SOL    HW1 2570   8.338   9.050   6.954 -0.7001 -1.1890  2.2164
31903SOL    HW2 2571   8.219   9.137   6.922  1.0870  0.4412 -0.5011
31904SOL     OW 2572   7.670   0.300   5.127  0.1964 -0.2164  0.6164
31904SOL    HW1 2573   7.661   0.315   5.033  1.1590  1.1221  0.7064
31904SOL    HW2 2574   7.728   0.370   5.157 -1.6404  0.6036  2.5379
31905SOL     OW 2575   5.674   7.601   9.840 -0.0497  0.7721 -0.3242
31905SOL    HW1 2576   5.716   7.549   9.771  1.9769 -1.9288  2.6753
31905SOL    HW2 2577   5.690   7.552   9.920 -1.0264  4.4036  2.3446
31906SOL     OW 2578   4.760  10.097   4.438 -0.0026  0.0224 -0.2008
31906SOL    HW1 2579   4.836  10.101   4.496  0.7559 -1.4750 -1.0449
31906SOL    HW2 2580   4.786  10.147   4.361 -0.4495  0.7477  0.1052
31907SOL     OW 2581   0.059   7.177   4.346 -0.4817 -0.3220 -0.4424
31907SOL    HW1 2582   0.147   7.168   4.309  0.4207  1.0437  1.2415
31907SOL    HW2 2583   0.068   7.245   4.412 -2.4908 -1.1803  0.7835
31908SOL     OW 2584  10.764   7.607   9.129 -0.0484  0.2895  0.5425
31908SOL    HW1 2585  10.777   7.699   9.154 -0.2377  0.3595  0.3890
31908SOL    HW2 2586  10.684   7.608   9.076  1.2899  0.4235 -1.5925
31909SOL     OW 2587   4.989  11.081   2.803 -0.3690  0.3173  0.3111
31909SOL    HW1 2588   4.945  10.996   2.792  0.3109  0.0177 -0.2225
31909SOL    HW2 2589   4.925  11.135   2.849 -0.7098 -0.5717  0.9169
31910SOL     OW 2590   6.733   5.923   7.146  0.1527  0.2891 -0.3784
31910SOL    HW1 2591   6.676   5.990   7.107  0.1080  0.8642  0.6478
31910SOL    HW2 2592   6.814   5.929   7.095  0.0195  0.8784 -0.5301
31911SOL     OW 2593   0.163   3.106   2.955 -0.2934  0.3195 -0.3330
31911SOL    HW1 2594   0.086   3.099   2.899  0.4282  0.2246 -1.3459
31911SOL    HW2 2595   0.237   3.089   2.896  0.5131  0.6066  0.5705
31912SOL     OW 2596   8.073   3.141   1.980 -0.4242 -0.3199  0.4417
31912SOL    HW1 2597   7.994   3.123   2.030 -0.0820 -0.0285  1.0926
31912SOL    HW2 2598   8.097   3.231   2.004 -0.7910  0.1880 -0.9683
31913SOL     OW 2599   1.255  11.575   8.943  0.1347 -0.4894  0.3526
31913SOL    HW1 2600   1.325  11.631   8.978  0.6645 -0.1794 -1.1167
31913SOL    HW2 2601   1.302  11.502   8.902 -0.4062 -0.4444 -0.3603
31914SOL     OW 2602  10.636  11.374   0.491 -0.2034  0.4234  0.3674
31914SOL    HW1 2603  10.701  11.433   0.452  1.5721 -0.2020  2.1608
31914SOL    HW2 2604  10.554  11.397   0.448  1.3873  0.2472 -3.1024
31915SOL     OW 2605   6.330   7.117   4.047  0.1343 -0.4279  0.1047
31915SOL    HW1 2606   6.258   7.140   3.988 -0.3670 -1.2550  0.3689
31915SOL    HW2 2607   6.291   7.122   4.135  0.6633  0.0536  0.3163
31916SOL     OW 2608   1.375   0.157   1.722 -0.0458 -0.4745 -0.3320
31916SOL    HW1 2609   1.444   0.096   1.747  0.3450 -0.1945 -0.7159
31916SOL    HW2 2610   1.421   0.234   1.688 -0.5248  0.1204  0.3278
31917SOL     OW 2611   7.314   2.992   9.554  0.7961  0.5623 -0.1462
31917SOL    HW1 2612   7.306   2.900   9.529 -0.4990 -0.2669  2.8700
31917SOL    HW2 2613   7.225   3.020   9.573  1.3458  1.9359  0.5679
31918SOL     OW 2614   9.221   6.713   9.156 -0.3905 -0.0427 -0.5543
31918SOL    HW1 2615   9.232   6.661   9.076 -2.2341 -0.0253 -0.8669
31918SOL    HW2 2616   9.145   6.769   9.138  1.0388  2.2400  0.0552
31919SOL     OW 2617   5.867   3.629  11.439 -0.4516 -0.4656 -0.4075
31919SOL    HW1 2618   5.823   3.667  11.363  1.1503  1.1882 -0.5817
31919SOL    HW2 2619   5.838   3.684  11.512  0.4600 -0.0405 -0.3567
31920SOL     OW 2620   4.214   6.850   7.937  0.3080 -0.2952  0.0363
31920SOL    HW1 2621   4.170   6.817   7.859 -0.6848 -1.4656  1.0499
31920SOL    HW2 2622   4.173   6.935   7.953 -0.7414 -0.8331  0.2717
31921SOL     OW 2623   5.798  12.126   1.343 -0.2946  0.0165  0.1879
31921SOL    HW1 2624   5.849  12.205   1.321  0.2599 -0.5821 -0.7632
31921SOL    HW2 2625   5.769  12.093   1.258  1.5977 -2.1978  0.2957
31922SOL     OW 2626   3.026   8.474   6.896  0.3919 -0.2254 -0.3237
31922SOL    HW1 2627   2.941   8.478   6.939  0.3344  0.1728 -0.4645
31922SOL    HW2 2628   3.019   8.538   6.825  0.9580  0.1272 -0.0683
31923SOL     OW 2629   3.423   7.372   8.404  0.5298 -0.5893 -0.1443
31923SOL    HW1 2630   3.502   7.427   8.413  0.5653 -0.3904 -1.4741
31923SOL    HW2 2631   3.413   7.360   8.309 -0.5644 -1.3177  0.0488
31924SOL     OW 2632  11.594   1.859  11.755 -0.3139  0.3415 -0.3650
31924SOL    HW1 2633  11.567   1.772  11.782 -2.1780  0.7051 -0.9187
31924SOL    HW2 2634  11.515   1.913  11.764  0.8276  2.0323  0.1599
31925SOL     OW 2635   1.739   4.619  10.999 -0.3320  0.0409  0.3877
31925SOL    HW1 2636   1.787   4.647  11.076  2.2463 -0.7986 -0.8165
31925SOL    HW2 2637   1.735   4.697  10.943  0.2040 -0.0488  0.2219
31926SOL     OW 2638   6.179   9.599  11.033  0.1956 -0.1466  0.0492
31926SOL    HW1 2639   6.196   9.510  11.002 -0.9008  0.7277 -3.3945
31926SOL    HW2 2640   6.259   9.647  11.013  0.1289  0.0527  0.2535
31927SOL     OW 2641  11.278  10.912   9.500 -0.6368 -0.6346 -0.0935
31927SOL    HW1 2642  11.338  10.925   9.573 -1.2390 -1.4200  0.5554
31927SOL    HW2 2643  11.205  10.971   9.517  0.1842  0.7574 -1.1873
31928SOL     OW 2644  12.356  11.876   8.050  0.0851 -0.3052 -0.7925
31928SOL    HW1 2645  12.389  11.810   7.990 -0.1492  0.3475 -1.6603
31928SOL    HW2 2646  12.266  11.893   8.022  0.2393  0.5902 -0.7834
31929SOL     OW 2647   6.675   8.418   6.019  0.1088 -0.6131 -0.0800
31929SOL    HW1 2648   6.645   8.474   6.090  0.4865 -0.5082  0.0011
31929SOL    HW2 2649   6.610   8.429   5.950  1.1959  1.5185 -0.8696
31930SOL     OW 2650   9.287  10.470   7.867 -0.4303 -0.9117 -0.4673
31930SOL    HW1 2651   9.194  10.474   7.889 -0.1347 -1.9292  1.1196
31930SOL    HW2 2652   9.311  10.560   7.847 -1.6771 -0.5915 -0.6276
31931SOL     OW 2653   8.516   5.833   0.357 -0.0801  0.5278 -0.2306
31931SOL    HW1 2654   8.608   5.821   0.331  0.5930  1.3876  1.6268
31931SOL    HW2 2655   8.506   5.778   0.435 -1.0619  0.6904 -0.2346
31932SOL     OW 2656   2.481  10.051  11.817  0.9077 -0.2686  0.4259
31932SOL    HW1 2657   2.387  10.050  11.798  1.0957  1.7858 -0.8616
31932SOL    HW2 2658   2.486  10.067  11.911  0.0015 -2.0434  0.8249
31933SOL     OW 2659   1.672   7.150   1.662  0.2078  0.8120 -0.2342
31933SOL    HW1 2660   1.693   7.131   1.754  2.7122 -1.8696 -1.2069
31933SOL    HW2 2661   1.743   7.208   1.633 -0.2400  1.1644 -0.6352
31934SOL     OW 2662   1.306   3.558   7.030  0.0673  0.0299  0.2807
31934SOL    HW1 2663   1.336   3.467   7.029 -0.6302 -0.2691 -2.7488
31934SOL    HW2 2664   1.383   3.609   7.006 -0.4449 -0.2510 -2.2635
31935SOL     OW 2665   0.953   4.338   7.230  0.6900  0.2610 -0.4837
31935SOL    HW1 2666   0.899   4.330   7.151  1.0553  0.8734 -0.7970
31935SOL    HW2 2667   0.890   4.339   7.302  0.3589 -0.3906 -0.7500
31936SOL     OW 2668   5.237  10.722   7.922  0.0343 -0.1889  0.5822
31936SOL    HW1 2669   5.298  10.673   7.867  0.0593 -0.4379  0.8306
31936SOL    HW2 2670   5.178  10.656   7.957 -0.2639  0.0274  0.4933
31937SOL     OW 2671   1.327   1.325   0.879 -0.3385 -0.2003 -0.5769
31937SOL    HW1 2672   1.354   1.416   0.892 -0.4849 -0.2152 -0.1784
31937SOL    HW2 2673   1.267   1.328   0.804 -0.7640  0.1095 -0.2281
31938SOL     OW 2674   7.965   0.305   1.596 -0.2859  0.4013 -0.1824
31938SOL    HW1 2675   7.994   0.214   1.605 -1.0146  0.2637  0.9002
31938SOL    HW2 2676   8.041   0.351   1.562 -0.1320 -0.7526 -1.5504
31939SOL     OW 2677   2.824  12.378  10.899  0.0313  0.9095 -0.7216
31939SOL    HW1 2678   2.833  12.444  10.830  1.5905  2.7550  1.1412
31939SOL    HW2 2679   2.910  12.373  10.940  0.0105 -2.3892 -0.7622
31940SOL     OW 2680  10.595   9.856   1.822 -0.1243 -0.1198 -0.6120
31940SOL    HW1 2681  10.552   9.917   1.882 -1.3445 -0.0070 -1.5491
31940SOL    HW2 2682  10.628   9.786   1.878  0.3810  0.8730  0.3711
31941SOL     OW 2683   2.708  10.732   3.078 -0.2730  0.3108  0.3863
31941SOL    HW1 2684   2.728  10.644   3.110 -1.2282 -0.5349 -1.1675
31941SOL    HW2 2685   2.775  10.750   3.012 -0.3103  0.5599  0.4153
31942SOL     OW 2686  12.028   8.224   4.218 -0.3580 -0.1929 -0.3949
31942SOL    HW1 2687  11.941   8.258   4.239 -1.6024 -2.7127 -1.0307
31942SOL    HW2 2688  12.087   8.268   4.279 -2.4222 -0.1203  1.6779
31943SOL     OW 2689   5.879   0.424   6.158 -0.0216 -0.1332 -0.3449
31943SOL    HW1 2690   5.787   0.398   6.167 -0.1452 -0.1724 -1.5443
31943SOL    HW2 2691   5.912   0.369   6.087  1.7582 -2.2226  1.9360
31944SOL     OW 2692  10.094   3.621   7.723  0.0776 -0.0299 -0.6027
31944SOL    HW1 2693  10.174   3.671   7.744 -1.5108  2.2368  0.4541
31944SOL    HW2 2694  10.097   3.545   7.781  1.5673 -0.1206 -0.7506
31945SOL     OW 2695   9.634  10.994   6.490  0.7981 -0.0534  0.2255
31945SOL    HW1 2696   9.578  10.990   6.412  0.6171 -0.8584  0.3832
31945SOL    HW2 2697   9.679  11.078   6.483 -0.0658  0.3871 -0.1579
31946SOL     OW 2698  10.424   3.430   7.642  0.3494  0.6878  0.3562
31946SOL    HW1 2699  10.480   3.390   7.575  0.1068 -1.6415  1.4494
31946SOL    HW2 2700  10.337   3.431   7.603  0.5244  1.0146 -0.0279
31947SOL     OW 2701   5.777   1.755   2.882 -0.4315 -0.5992 -0.1461
31947SOL    HW1 2702   5.808   1.714   2.801 -3.1880  0.3853 -1.8461
31947SOL    HW2 2703   5.700   1.704   2.907 -0.3537 -0.1157  1.1820
31948SOL     OW 2704   7.334   5.635   9.897 -0.2945 -0.0918  0.1162
31948SOL    HW1 2705   7.398   5.706   9.893 -1.2304  0.7088 -3.1732
31948SOL    HW2 2706   7.286   5.651   9.978  1.2010  1.4743  0.7486
31949SOL     OW 2707  10.522   6.598   7.034 -0.5052  0.0161 -0.7470
31949SOL    HW1 2708  10.502   6.505   7.037  2.9320 -0.9469 -2.6138
31949SOL    HW2 2709  10.533   6.617   6.941  0.0523  2.0035 -0.3215
31950SOL     OW 2710   5.791   7.441   5.858  0.4030 -0.2682  0.2178
31950SOL    HW1 2711   5.811   7.497   5.783  0.0971 -0.3081  0.1029
31950SOL    HW2 2712   5.869   7.387   5.869 -0.8177 -2.8341 -2.3493
31951SOL     OW 2713   7.623   0.322   8.407  0.0597 -0.4562 -0.2344
31951SOL    HW1 2714   7.531   0.335   8.433  0.1973 -1.0958  0.6490
31951SOL    HW2 2715   7.658   0.264   8.475  1.9094  2.0076  1.0756
31952SOL     OW 2716   8.407   3.535   6.797  0.2183  0.3161  0.1934
31952SOL    HW1 2717   8.445   3.591   6.729  1.2271  0.6593  1.0179
31952SOL    HW2 2718   8.402   3.448   6.756 -0.0393  0.7076 -0.6231
31953SOL     OW 2719  10.909   8.245   9.651  0.3649 -0.5335 -0.3508
31953SOL    HW1 2720  10.944   8.234   9.739  0.8983  0.6273 -0.4000
31953SOL    HW2 2721  10.973   8.202   9.594 -1.6043 -4.3119 -0.0080
31954SOL     OW 2722  11.563   7.596  11.502  0.1617  0.5451  0.7673
31954SOL    HW1 2723  11.613   7.569  11.578 -0.0153 -0.5924  0.4891
31954SOL    HW2 2724  11.629   7.613  11.434  0.1748 -1.4629  0.2381
31955SOL     OW 2725   4.682   4.583   9.681 -0.4099  0.5263  0.7339
31955SOL    HW1 2726   4.767   4.585   9.637 -0.6149  0.4498  0.3356
31955SOL    HW2 2727   4.638   4.663   9.654 -1.0390 -0.1191 -0.2085
31956SOL     OW 2728   2.419   4.071   2.050  0.2636  0.5892 -0.1448
31956SOL    HW1 2729   2.447   4.073   1.959  1.0317  2.8457  0.0663
31956SOL    HW2 2730   2.386   4.160   2.067  1.0998  0.5531  2.0345
31957SOL     OW 2731  10.393   6.639   2.017  0.3331  0.2571 -0.2935
31957SOL    HW1 2732  10.350   6.627   1.932 -0.5508 -1.3435  0.3319
31957SOL    HW2 2733  10.356   6.720   2.052 -1.1629 -0.3321 -0.4069
31958SOL     OW 2734   7.685  11.427   1.516  0.9434  0.3036  0.0012
31958SOL    HW1 2735   7.652  11.416   1.606  1.9343 -2.2382  0.1452
31958SOL    HW2 2736   7.759  11.366   1.511  1.4317  1.0188 -2.3120
31959SOL     OW 2737   4.130  11.109   3.034  0.2338  0.5692  0.0144
31959SOL    HW1 2738   4.127  11.201   3.061  0.7214  1.3987 -2.4886
31959SOL    HW2 2739   4.209  11.103   2.980  0.1243 -1.3025  0.0032
31960SOL     OW 2740   4.546   7.910   5.455  0.5247  0.3099 -0.0376
31960SOL    HW1 2741   4.460   7.903   5.497  0.8146  0.2525  0.5520
31960SOL    HW2 2742   4.599   7.841   5.495  1.0622  0.8061  0.1292
31961SOL     OW 2743  11.579  11.833   0.343  0.1111 -0.5864  0.4624
31961SOL    HW1 2744  11.512  11.771   0.368  0.4324 -0.3866  1.8946
31961SOL    HW2 2745  11.532  11.901   0.294 -0.3033 -1.6931 -0.7432
31962SOL     OW 2746   7.160   6.958   4.990  0.3947  0.4891  0.4525
31962SOL    HW1 2747   7.234   6.921   5.039  0.9606 -0.9386 -1.3796
31962SOL    HW2 2748   7.200   7.012   4.922 -0.3685  1.9242  1.0790
31963SOL     OW 2749   5.479   0.797  12.113  0.5741  0.3912 -0.0891
31963SOL    HW1 2750   5.420   0.831  12.180 -0.5322 -0.8918 -0.3834
31963SOL    HW2 2751   5.564   0.792  12.157  0.9470  3.7956 -0.1155
31964SOL     OW 2752   3.593   4.140   8.761  1.0524  0.2524  0.2238
31964SOL    HW1 2753   3.580   4.061   8.815  0.8881 -0.9316 -1.4610
31964SOL    HW2 2754   3.508   4.185   8.765  1.1964  0.4464  1.3341
31965SOL     OW 2755   6.749   8.971   0.039  0.9880 -0.2637  0.3510
31965SOL    HW1 2756   6.819   8.917   0.002  0.9994 -0.2955  0.4189
31965SOL    HW2 2757   6.737   8.937   0.127 -0.2508 -1.3373 -0.2052
31966SOL     OW 2758   1.834   3.565   8.399  0.1144  0.3395  0.6538
31966SOL    HW1 2759   1.884   3.512   8.337  2.1170  1.3189  1.3319
31966SOL    HW2 2760   1.888   3.567   8.478 -0.7235  1.9399  1.2468
31967SOL     OW 2761   4.248   9.275   1.281  0.2643  0.0006  0.0353
31967SOL    HW1 2762   4.233   9.244   1.192 -1.3699  1.0827 -0.1043
31967SOL    HW2 2763   4.224   9.368   1.279  0.9971  0.2472  1.4109
31968SOL     OW 2764   2.279   5.517   1.828 -0.3878 -0.4734 -0.2352
31968SOL    HW1 2765   2.248   5.592   1.777 -1.0335 -0.4116  0.2380
31968SOL    HW2 2766   2.293   5.448   1.763 -0.0838 -0.0492 -0.6345
31969SOL     OW 2767   8.207   9.087   2.770 -0.0928  0.1238  0.7618
31969SOL    HW1 2768   8.234   9.168   2.813  0.9636  0.4182 -0.4044
31969SOL    HW2 2769   8.257   9.018   2.815  0.0918  0.2904  0.8115
31970SOL     OW 2770   2.007   7.546   7.827 -0.1287 -0.4692 -0.0997
31970SOL    HW1 2771   2.026   7.523   7.918 -0.3210 -0.3614 -0.0332
31970SOL    HW2 2772   2.077   7.607   7.802  0.5155 -1.2762 -0.3445
31971SOL     OW 2773  11.234   9.539   2.571  0.2063  0.3569  0.2826
31971SOL    HW1 2774  11.218   9.580   2.656 -0.2670  1.1285 -0.1676
31971SOL    HW2 2775  11.195   9.452   2.579 -0.1342  0.5462  0.7502
31972SOL     OW 2776   7.746   4.948   3.263  0.7542 -0.3739  0.0423
31972SOL    HW1 2777   7.705   4.967   3.348  0.5313  0.5202 -0.2585
31972SOL    HW2 2778   7.689   4.882   3.224  0.1715  0.0908  0.0793
31973SOL     OW 2779   9.213   1.383   4.454  0.1381 -0.6860  0.3551
31973SOL    HW1 2780   9.141   1.438   4.423  1.4112  1.4898  1.1292
31973SOL    HW2 2781   9.189   1.362   4.544  0.1015 -0.6586  0.3521
31974SOL     OW 2782   2.274   1.924  11.933  0.0023 -0.4547  0.0492
31974SOL    HW1 2783   2.240   1.943  11.846 -1.8773  0.7531  0.9795
31974SOL    HW2 2784   2.232   1.842  11.959  0.4582 -0.7439 -0.1029
31975SOL     OW 2785   4.909  12.014  11.030  0.5119  0.4431 -0.1522
31975SOL    HW1 2786   5.002  11.997  11.017  0.9218  2.0924  0.3577
31975SOL    HW2 2787   4.884  11.956  11.103  1.6856  1.5001  1.1463
31976SOL     OW 2788   7.754   5.425   4.357 -0.1783 -0.4428  0.1248
31976SOL    HW1 2789   7.789   5.512   4.379 -1.7501  0.4539 -0.7359
31976SOL    HW2 2790   7.668   5.443   4.319 -0.9976 -2.4686  0.9115
31977SOL     OW 2791   5.536   2.764   6.636 -0.1698  0.0329 -0.1117
31977SOL    HW1 2792   5.539   2.846   6.686  0.2573  0.0861 -0.2214
31977SOL    HW2 2793   5.457   2.772   6.582 -0.7481 -0.1121  0.6956
31978SOL     OW 2794   5.708   9.046   7.461 -0.6137  0.4198  0.0239
31978SOL    HW1 2795   5.748   9.060   7.547  1.3161 -0.1256 -0.7309
31978SOL    HW2 2796   5.637   9.109   7.458  1.2698  2.7443  0.8001
31979SOL     OW 2797   1.265  10.244   0.914  0.2537  0.7633  0.1738
31979SOL    HW1 2798   1.288  10.335   0.932 -0.9742  1.0676  0.3051
31979SOL    HW2 2799   1.262  10.203   1.000  1.4869  0.4097  0.0650
31980SOL     OW 2800   6.944  10.591   3.155  0.0475 -0.2226  0.3266
31980SOL    HW1 2801   6.942  10.666   3.214  0.4782  0.1071 -0.0811
31980SOL    HW2 2802   6.921  10.626   3.069 -1.5643 -0.8642  0.4422
31981SOL     OW 2803   2.248   7.150   3.249  0.6877  0.3778  0.6258
31981SOL    HW1 2804   2.185   7.209   3.290  1.1300  0.0909  1.7678
31981SOL    HW2 2805   2.196   7.080   3.211  0.2463  0.8365  0.3718
31982SOL     OW 2806  11.891   4.051   8.256  0.1940  0.1633  0.1755
31982SOL    HW1 2807  11.920   4.125   8.310  1.2017 -1.0696  1.3842
31982SOL    HW2 2808  11.824   4.089   8.199  0.9154  2.0834  0.5085
31983SOL     OW 2809   4.527   0.987   8.422  0.3271  0.4333  0.1580
31983SOL    HW1 2810   4.552   1.003   8.513 -1.7693  0.7393  0.7360
31983SOL    HW2 2811   4.456   1.049   8.406  0.6010  0.3144 -1.6758
31984SOL     OW 2812   7.177   8.235   7.236  0.1994 -0.0703  1.0527
31984SOL    HW1 2813   7.128   8.317   7.241 -1.0105 -0.7196  0.4149
31984SOL    HW2 2814   7.247   8.244   7.300  0.5925  1.7805  0.4108
31985SOL     OW 2815   5.393   4.219   5.677 -0.6176  0.2833 -0.4891
31985SOL    HW1 2816   5.424   4.276   5.747  2.1228 -2.1939  0.5525
31985SOL    HW2 2817   5.441   4.249   5.599  3.0787 -2.0383  0.6260
31986SOL     OW 2818   4.695  10.248  12.234 -0.2828 -0.2844 -0.5411
31986SOL    HW1 2819   4.749  10.282  12.163 -1.6796  0.7697 -1.1282
31986SOL    HW2 2820   4.648  10.325  12.268 -0.5236 -0.9683  0.7582
31987SOL     OW 2821   2.347  10.947   2.600 -0.6745 -0.3463  0.3468
31987SOL    HW1 2822   2.396  10.870   2.628  2.8652  1.1033 -1.2915
31987SOL    HW2 2823   2.313  10.924   2.513  0.0308 -0.1890  0.0305
31988SOL     OW 2824   8.300   9.731  10.072 -0.3447 -0.0737  0.5584
31988SOL    HW1 2825   8.367   9.781  10.026 -0.2379 -0.2773  0.4872
31988SOL    HW2 2826   8.333   9.641  10.072  0.6769  0.2365  2.9016
31989SOL     OW 2827  11.032   6.715   1.135  0.3285 -0.1295 -0.2992
31989SOL    HW1 2828  11.113   6.674   1.104  1.8617  1.7966  0.9353
31989SOL    HW2 2829  10.985   6.738   1.055  0.5014 -2.0923 -1.0390
31990SOL     OW 2830   9.851   2.869   5.867 -0.3750  0.7311 -0.5634
31990SOL    HW1 2831   9.839   2.802   5.934  1.2297 -0.3260 -1.2844
31990SOL    HW2 2832   9.881   2.946   5.916  0.7949 -0.0371 -0.0470
31991SOL     OW 2833   5.870   0.930   0.483  0.0628 -0.1203  0.1180
31991SOL    HW1 2834   5.841   0.978   0.561  0.5299 -1.3128  1.0629
31991SOL    HW2 2835   5.888   0.997   0.418  0.1728  0.9381  1.2184
31992SOL     OW 2836  11.399   4.023  12.349 -0.0226 -0.4632  0.0264
31992SOL    HW1 2837  11.482   4.069  12.352  0.0233 -0.6242  2.1774
31992SOL    HW2 2838  11.335   4.085  12.384 -0.3901 -1.1329  0.5726
31993SOL     OW 2839   3.062   6.774   7.284 -0.2718 -0.2776  1.0472
31993SOL    HW1 2840   3.073   6.679   7.273 -5.6376 -1.0085 -0.8843
31993SOL    HW2 2841   3.020   6.783   7.370  1.4461  0.6478  1.8481
31994SOL     OW 2842   0.202   6.276  10.190 -0.0177  0.1557  0.3136
31994SOL    HW1 2843   0.207   6.225  10.272  0.9207 -1.3526 -0.6249
31994SOL    HW2 2844   0.251   6.224  10.127 -0.3455  1.5127 -1.1194
31995SOL     OW 2845  10.004  11.971   1.600  0.2033 -0.8162 -0.0958
31995SOL    HW1 2846   9.947  11.911   1.650 -0.5467 -0.5459 -0.6035
31995SOL    HW2 2847   9.945  12.012   1.536  0.5994  0.7993  0.5262
31996SOL     OW 2848   2.915   0.355  11.358  0.0824  0.2268  0.4243
31996SOL    HW1 2849   2.820   0.357  11.344  0.2541 -1.1561 -1.3610
31996SOL    HW2 2850   2.927   0.292  11.429 -0.2995 -0.2432  0.0779
31997SOL     OW 2851   2.078   2.506   9.414 -0.0429  0.0695 -0.0469
31997SOL    HW1 2852   2.002   2.448   9.408  0.7599 -1.0723  0.5228
31997SOL    HW2 2853   2.050   2.577   9.472 -0.9161  0.0592 -0.4490
31998SOL     OW 2854   6.111   1.802   2.485  0.2444  0.3633  0.9490
31998SOL    HW1 2855   6.182   1.834   2.428  0.8015 -0.6238  1.0683
31998SOL    HW2 2856   6.135   1.832   2.572  0.5029  0.0600  0.9839
31999SOL     OW 2857   9.523   8.690  11.619 -0.2279  0.1545 -0.0994
31999SOL    HW1 2858   9.451   8.632  11.595  1.8718 -2.9090  0.3827
31999SOL    HW2 2859   9.591   8.672  11.554  1.6610 -0.4407  1.9010
32000SOL     OW 2860   4.982  10.575   7.674 -0.0706 -0.6626  0.2322
32000SOL    HW1 2861   5.048  10.515   7.708 -0.6631 -1.6683 -0.3241
32000SOL    HW2 2862   4.945  10.529   7.598  0.5522  1.0747 -1.2157
32001SOL     OW 2863  11.557   9.827   1.397 -0.0928  0.2709  0.2892
32001SOL    HW1 2864  11.556   9.792   1.486 -0.3483 -1.0989 -0.2276
32001SOL    HW2 2865  11.570   9.921   1.408 -3.1261  0.6413  1.9653
32002SOL     OW 2866  12.292  11.595   1.989  0.0196 -0.0609 -0.1362
32002SOL    HW1 2867  12.249  11.552   2.063 -3.8017 -2.5415 -3.3456
32002SOL    HW2 2868  12.274  11.688   2.002  0.5649 -0.2488  2.5483
32003SOL     OW 2869   8.017  10.095   3.739 -0.0534 -0.0771 -0.4769
32003SOL    HW1 2870   8.058  10.023   3.691  1.2765  0.9257 -0.9349
32003SOL    HW2 2871   7.976  10.054   3.815 -1.7406 -1.6408 -2.1494
32004SOL     OW 2872   0.797  11.916   9.911 -0.0697  0.3587 -0.2854
32004SOL    HW1 2873   0.794  11.874   9.825 -0.2728  0.1815 -0.1892
32004SOL    HW2 2874   0.717  11.969   9.915  1.2661  2.6279 -1.3717
32005SOL     OW 2875   6.911   2.049   3.243  0.1266 -0.2123 -0.2028
32005SOL    HW1 2876   6.889   2.098   3.163 -0.6638 -0.1325  0.0533
32005SOL    HW2 2877   7.004   2.030   3.234  0.1083  0.0242 -1.0234
32006SOL     OW 2878   6.704   9.973   6.203  0.1500  0.5876  0.1191
32006SOL    HW1 2879   6.707   9.966   6.108 -1.7275 -0.1307  0.0846
32006SOL    HW2 2880   6.642  10.044   6.220 -0.7181 -0.3060  0.7976
32007SOL     OW 2881   8.465  10.800   6.300  0.2381 -0.0499  0.6423
32007SOL    HW1 2882   8.371  10.802   6.320 -0.0667  2.1027 -0.6805
32007SOL    HW2 2883   8.470  10.829   6.209  2.2224  0.1585  0.7867
32008SOL     OW 2884   0.027   2.721   4.209  0.1971  0.8762 -0.8882
32008SOL    HW1 2885   0.085   2.792   4.233  1.4480  0.6082 -2.9328
32008SOL    HW2 2886   0.082   2.660   4.160 -0.7421 -1.6902  1.0309
32009SOL     OW 2887   6.042   4.635   8.415  0.7371 -0.3118 -0.6286
32009SOL    HW1 2888   6.122   4.590   8.442  0.8864  1.3173  2.0843
32009SOL    HW2 2889   5.982   4.623   8.489 -0.4724  0.9134 -1.3658
32010SOL     OW 2890   3.942   5.578   8.016 -0.1259  0.6283 -0.0116
32010SOL    HW1 2891   3.878   5.649   8.019 -0.4508  0.3231  0.5388
32010SOL    HW2 2892   4.024   5.620   7.993 -0.7939  0.8373 -2.3199
32011SOL     OW 2893   5.836   7.577   1.826  0.0908 -0.0692  0.2077
32011SOL    HW1 2894   5.856   7.501   1.771 -0.5711  0.4502 -0.7823
32011SOL    HW2 2895   5.844   7.652   1.767 -1.6999  0.4170  0.5216
32012SOL     OW 2896   7.474   1.233  12.404  0.7472 -0.2937  0.4344
32012SOL    HW1 2897   7.555   1.269  12.439  1.0068 -0.5186  0.0789
32012SOL    HW2 2898   7.431   1.193  12.479  0.4426  0.7687  0.8351
32013SOL     OW 2899   4.160  10.746  12.059  0.3978  0.4221 -0.5527
32013SOL    HW1 2900   4.166  10.670  12.002  3.5462  0.3597 -0.2941
32013SOL    HW2 2901   4.070  10.745  12.091  0.1773 -2.8441 -0.9924
32014SOL     OW 2902   8.888   0.334  10.630  0.4091 -0.0228 -0.0740
32014SOL    HW1 2903   8.967   0.286  10.655  1.2913  2.0029  1.2853
32014SOL    HW2 2904   8.820   0.300  10.688  0.7260 -0.4648  0.0415
32015SOL     OW 2905   4.394   9.891  11.066  0.0976  0.2562  0.4010
32015SOL    HW1 2906   4.479   9.847  11.060 -0.3849 -0.6307 -0.1481
32015SOL    HW2 2907   4.400   9.945  11.145  1.3498  0.6025  0.0856
32016SOL     OW 2908   5.969   5.475  11.298  0.4546 -0.8363  0.3012
32016SOL    HW1 2909   5.885   5.492  11.341  1.3077  1.3594  1.2591
32016SOL    HW2 2910   6.035   5.506  11.361  1.8156  1.2276 -1.9901
32017SOL     OW 2911   1.452   6.138   0.817 -0.7446 -0.2960 -0.0859
32017SOL    HW1 2912   1.402   6.150   0.737 -2.0352 -1.4194  0.5144
32017SOL    HW2 2913   1.398   6.178   0.886 -0.3075 -0.5575  0.4187
32018SOL     OW 2914   2.738   5.769   7.022  0.4023 -0.2546 -0.2163
32018SOL    HW1 2915   2.790   5.850   7.017  0.0886  0.0165  0.7315
32018SOL    HW2 2916   2.797   5.701   6.989  1.6120 -0.0656  1.3946
32019SOL     OW 2917   1.659   7.572   0.075 -0.0140  0.1751  0.5755
32019SOL    HW1 2918   1.628   7.528  -0.004  2.0758  0.6001 -0.5582
32019SOL    HW2 2919   1.609   7.654   0.078 -0.3121  0.0347 -0.1606
32020SOL     OW 2920   1.063   3.628   9.983  0.0373 -0.7141 -0.6763
32020SOL    HW1 2921   1.012   3.708   9.968  1.1325 -0.0731 -1.0365
32020SOL    HW2 2922   0.999   3.557   9.969 -1.1425  0.0922  0.4257
32021SOL     OW 2923   8.980   2.930  10.244 -0.9724 -0.8564  0.1232
32021SOL    HW1 2924   9.012   2.873  10.174  0.0024 -1.7739  1.2867
32021SOL    HW2 2925   8.884   2.920  10.240 -0.8982 -1.3871 -0.6626
32022SOL     OW 2926   7.200   6.985  11.210  0.2793  0.1705  0.2357
32022SOL    HW1 2927   7.280   6.932  11.210 -0.1263 -0.4494  0.5049
32022SOL    HW2 2928   7.215   7.050  11.141  1.5690  0.9259  1.1781
32023SOL     OW 2929   1.723   4.842   3.495  0.2098 -0.2508  0.1912
32023SOL    HW1 2930   1.644   4.793   3.517  0.6795 -0.9823  0.2976
32023SOL    HW2 2931   1.763   4.861   3.580 -0.0603  0.4851  0.1608
32024SOL     OW 2932   2.584   2.109   8.964  0.3893 -0.2236 -0.1362
32024SOL    HW1 2933   2.490   2.098   8.956  0.1185  1.0858  0.9463
32024SOL    HW2 2934   2.606   2.073   9.050  1.0923 -1.6396 -0.8741
32025SOL     OW 2935   5.836  10.038   0.194 -0.0891 -0.2580 -0.4376
32025SOL    HW1 2936   5.821  10.018   0.101 -0.2679  1.2509 -0.7564
32025SOL    HW2 2937   5.750  10.028   0.235 -0.0353 -0.8037 -0.4497
32026SOL     OW 2938   9.680   0.807   5.139 -0.6835 -0.3090 -0.1451
32026SOL    HW1 2939   9.687   0.800   5.235 -1.2695 -0.1435 -0.0865
32026SOL    HW2 2940   9.650   0.896   5.124  0.8743  0.1736 -0.5752
32027SOL     OW 2941  10.768  12.176  11.603  0.0756 -0.6074 -0.0476
32027SOL    HW1 2942  10.808  12.243  11.548 -1.4754 -0.5390 -1.1285
32027SOL    HW2 2943  10.763  12.216  11.690  2.9926 -0.8844  0.3691
32028SOL     OW 2944  10.922   1.908   2.479  0.2698 -0.0712  0.1307
32028SOL    HW1 2945  10.909   2.003   2.488  3.7523  0.5034  0.7556
32028SOL    HW2 2946  10.980   1.886   2.552  0.0656 -2.5965 -0.4004
32029SOL     OW 2947  10.151   3.175   5.865  0.4397  0.2482  0.0063
32029SOL    HW1 2948  10.138   3.160   5.771 -0.4973 -3.1106  0.5377
32029SOL    HW2 2949  10.217   3.111   5.891  0.8373  1.2524  1.6300
32030SOL     OW 2950   5.273   3.743   9.968 -0.0218  0.4089 -0.3248
32030SOL    HW1 2951   5.347   3.799   9.992  2.0299 -2.2217 -0.0176
32030SOL    HW2 2952   5.214   3.748  10.043  0.2128  1.9131 -0.2093
32031SOL     OW 2953  10.893   3.814   0.271 -0.4096 -0.2380 -0.0636
32031SOL    HW1 2954  10.909   3.803   0.177 -0.7857 -1.9821  0.0332
32031SOL    HW2 2955  10.862   3.904   0.280 -1.7184 -0.4598 -1.8215
32032SOL     OW 2956  12.194  10.657   8.567 -0.0046 -0.0560 -0.3297
32032SOL    HW1 2957  12.154  10.652   8.654  0.8488  0.1470  0.0838
32032SOL    HW2 2958  12.204  10.565   8.540  0.4834 -0.1521  0.1517
32033SOL     OW 2959   0.929   8.891   3.972  0.2639  0.3972  0.7137
32033SOL    HW1 2960   0.916   8.984   3.958  0.5970  0.4650  0.8399
32033SOL    HW2 2961   0.844   8.851   3.951  0.7662  0.4509 -1.6359
32034SOL     OW 2962  10.341  11.032   9.684  0.4658  0.2076  0.1068
32034SOL    HW1 2963  10.310  11.118   9.658 -1.4918 -0.7412 -0.9016
32034SOL    HW2 2964  10.382  11.046   9.769  1.4330  2.3322 -0.6313
32035SOL     OW 2965   2.173   0.692  12.396  0.2037  0.0336 -0.1570
32035SOL    HW1 2966   2.152   0.776  12.437  0.0204  0.0734 -0.3309
32035SOL    HW2 2967   2.268   0.685  12.403  0.0603 -0.5892  1.4916
32036SOL     OW 2968   3.838   8.974  11.539 -0.2355  0.0684 -0.0004
32036SOL    HW1 2969   3.808   9.030  11.466 -1.7448  0.1023  0.6005
32036SOL    HW2 2970   3.914   9.019  11.574 -0.7152  1.1410 -0.2849
32037SOL     OW 2971   6.790   8.462   9.088 -0.0366  0.4442 -0.0106
32037SOL    HW1 2972   6.733   8.423   9.154  1.5721 -1.3887  0.3989
32037SOL    HW2 2973   6.812   8.389   9.030  1.7892  1.0814 -0.2023
32038SOL     OW 2974   5.894  11.925   8.525 -0.4516  0.1712 -0.0323
32038SOL    HW1 2975   5.920  11.991   8.460  0.8421  1.2297  1.4845
32038SOL    HW2 2976   5.822  11.966   8.573 -1.0196 -0.3693 -0.4240
32039SOL     OW 2977  12.065   9.906   8.763 -0.4538 -0.5627 -0.0985
32039SOL    HW1 2978  12.023   9.944   8.686  3.5182  0.6826 -1.9329
32039SOL    HW2 2979  12.070   9.812   8.744  0.3315 -0.2879 -1.3186
32040SOL     OW 2980  11.486  12.422   6.320  0.3808  0.1650 -0.2118
32040SOL    HW1 2981  11.485  12.517   6.318  1.8895  0.2003 -0.3508
32040SOL    HW2 2982  11.439  12.395   6.241 -1.9795  0.7292  0.9057
32041SOL     OW 2983   2.807   3.194   0.305 -0.5305 -0.7485 -0.3601
32041SOL    HW1 2984   2.845   3.192   0.393  1.2385 -0.0085 -1.0742
32041SOL    HW2 2985   2.802   3.287   0.284  1.7232 -0.9499 -2.1078
32042SOL     OW 2986   9.999   5.901   4.010 -0.0865  0.0228  0.1192
32042SOL    HW1 2987  10.056   5.954   3.954 -0.6286  0.9847  0.4526
32042SOL    HW2 2988   9.964   5.834   3.952 -1.9215  1.9535 -1.1485
32043SOL     OW 2989   0.418   3.589   2.600 -0.5029 -0.6486 -0.2166
32043SOL    HW1 2990   0.508   3.556   2.606 -0.0523  0.5416 -0.1661
32043SOL    HW2 2991   0.373   3.525   2.546  0.5771 -0.8844 -0.8752
32044SOL     OW 2992   1.340   5.889   4.228 -0.1996  0.5226 -0.2825
32044SOL    HW1 2993   1.288   5.866   4.304  0.8606 -2.0304 -0.1953
32044SOL    HW2 2994   1.385   5.969   4.252  0.0360 -0.1710  1.7692
32045SOL     OW 2995   1.865   4.871   2.073  0.5492 -0.7100  0.6257
32045SOL    HW1 2996   1.833   4.809   2.138  0.8131 -2.4359 -0.8099
32045SOL    HW2 2997   1.818   4.849   1.993  0.8068  0.8246  0.0043
32046SOL     OW 2998  11.186   7.478   1.029 -0.0749  0.8511  0.0429
32046SOL    HW1 2999  11.182   7.547   0.963 -0.0381  1.1750  0.3726
32046SOL    HW2 3000  11.203   7.524   1.111  2.0274  0.2772 -0.0207
32047SOL     OW 3001   7.433   5.119   9.270  0.1176 -0.0591 -0.0175
32047SOL    HW1 3002   7.418   5.046   9.330 -1.9396  0.1031 -0.2334
32047SOL    HW2 3003   7.431   5.080   9.183  2.2227 -0.1679 -0.0483
32048SOL     OW 3004  10.150   7.454   4.606  0.3163  0.0799 -0.6322
32048SOL    HW1 3005  10.244   7.445   4.590  0.2162  1.3992 -2.1601
32048SOL    HW2 3006  10.111   7.450   4.519 -0.8262  1.8867 -0.2494
32049SOL     OW 3007   1.866  11.405   6.518 -0.7462  0.2342  0.1384
32049SOL    HW1 3008   1.898  11.430   6.605 -0.9617  0.2309  0.2192
32049SOL    HW2 3009   1.911  11.464   6.458  0.7157 -0.8910  0.0918
32050SOL     OW 3010  10.304   9.609  12.222 -0.6050 -0.0064  0.4521
32050SOL    HW1 3011  10.315   9.530  12.275  0.9544  0.0338  0.2424
32050SOL    HW2 3012  10.236   9.586  12.159 -0.1497 -1.2236  0.3669
32051SOL     OW 3013   8.163  10.638   4.674 -0.0783  0.4284  0.0144
32051SOL    HW1 3014   8.118  10.566   4.630  0.7040 -0.5487  0.7954
32051SOL    HW2 3015   8.235  10.661   4.616 -0.4421  0.7243 -0.3266
32052SOL     OW 3016   2.545   0.115   9.975  0.2380 -0.1678  0.1464
32052SOL    HW1 3017   2.599   0.146   9.902 -0.8676 -1.5227 -1.3409
32052SOL    HW2 3018   2.600   0.050  10.019  0.4322 -0.3605 -0.3641
32053SOL     OW 3019   2.845  11.403  12.476 -0.8406 -0.6607 -0.4827
32053SOL    HW1 3020   2.794  11.371  12.401 -1.1280  0.1012 -0.6156
32053SOL    HW2 3021   2.785  11.458  12.525  0.0702  1.0034 -1.1311
32054SOL     OW 3022   7.686   7.550   6.671 -0.0667  0.0386  0.3161
32054SOL    HW1 3023   7.721   7.603   6.599 -0.1786  1.1587  1.0653
32054SOL    HW2 3024   7.764   7.523   6.720  0.1049 -1.5862 -0.7483
32055SOL     OW 3025   9.388   8.155  10.548  0.0510  0.0361 -0.4274
32055SOL    HW1 3026   9.385   8.243  10.585 -0.1659  0.7213 -1.9746
32055SOL    HW2 3027   9.364   8.097  10.620  1.1337  1.1481  0.8699
32056SOL     OW 3028   6.558   3.824   4.840  0.1358 -0.6005  0.7137
32056SOL    HW1 3029   6.606   3.800   4.761 -0.4527 -1.6691  0.6649
32056SOL    HW2 3030   6.486   3.879   4.809  2.9772  3.8317  1.0587
32057SOL     OW 3031   7.493   2.006   8.813 -0.0251 -0.3035 -0.2583
32057SOL    HW1 3032   7.524   2.031   8.900 -1.5788 -1.5992  0.7305
32057SOL    HW2 3033   7.398   2.010   8.820 -0.2053 -1.6466 -1.5101
32058SOL     OW 3034   3.682   7.461   0.687 -0.2831 -0.3067 -0.4056
32058SOL    HW1 3035   3.727   7.419   0.760 -0.6486  1.1685  0.6977
32058SOL    HW2 3036   3.636   7.389   0.643  1.2935 -1.4764 -0.2105
32059SOL     OW 3037  10.110   6.458   0.911 -0.1433 -0.1006 -0.5742
32059SOL    HW1 3038  10.112   6.423   0.822  0.3375  0.1034 -0.6471
32059SOL    HW2 3039  10.019   6.448   0.939  0.2280 -2.8085 -0.0300
32060SOL     OW 3040   0.177   1.457  10.073 -0.9346 -0.5720  0.0495
32060SOL    HW1 3041   0.164   1.362  10.064 -0.2606 -0.6940  0.3407
32060SOL    HW2 3042   0.269   1.471  10.051 -1.1614  0.0903 -0.5300
32061SOL     OW 3043  10.044   6.641   7.026  0.2268  0.3254 -0.3540
32061SOL    HW1 3044   9.996   6.573   7.073 -0.3897  0.4763 -0.7493
32061SOL    HW2 3045   9.977   6.705   7.003  0.7000  0.7626 -0.5227
32062SOL     OW 3046   0.367   9.235   9.456  0.3836  0.1958  0.6297
32062SOL    HW1 3047   0.395   9.144   9.467 -0.9954 -0.6139 -1.7357
32062SOL    HW2 3048   0.421   9.268   9.384  1.5384  1.6367  2.0747
32063SOL     OW 3049   1.147   6.149   2.372 -0.1806 -0.7720 -0.0533
32063SOL    HW1 3050   1.220   6.206   2.394  0.0333 -1.5650  1.4121
32063SOL    HW2 3051   1.187   6.070   2.337 -0.3826 -0.8835 -0.0342
32064SOL     OW 3052   7.594   4.694   6.042  0.1556 -0.2030 -0.2296
32064SOL    HW1 3053   7.606   4.707   5.947  1.9198  0.1290  0.0091
32064SOL    HW2 3054   7.665   4.744   6.082 -1.0797  0.3768  1.3373
32065SOL     OW 3055   6.593  11.419   1.868 -0.2338  0.4713  0.1909
32065SOL    HW1 3056   6.502  11.426   1.840  0.1004  0.0060 -1.0955
32065SOL    HW2 3057   6.624  11.509   1.872 -0.1960  0.5617 -1.3775
32066SOL     OW 3058   3.108   7.166   7.776  0.4111 -0.2660 -0.0595
32066SOL    HW1 3059   3.167   7.111   7.725 -1.0823 -2.7576  0.7037
32066SOL    HW2 3060   3.031   7.176   7.721 -0.5755 -1.6568  0.9913
32067SOL     OW 3061   4.523   1.561   4.480  0.6203  0.2539 -0.2666
32067SOL    HW1 3062   4.544   1.538   4.389 -0.4852 -1.6261 -0.1075
32067SOL    HW2 3063   4.604   1.595   4.516  1.1324  0.8476 -1.9035
32068SOL     OW 3064   1.201   3.749   4.816  0.5877 -0.3483  0.1111
32068SOL    HW1 3065   1.163   3.662   4.825  1.3447 -0.6705  0.2774
32068SOL    HW2 3066   1.232   3.770   4.904 -1.1747  0.8587  0.5035
32069SOL     OW 3067   3.043  12.340   0.056 -0.2429 -0.1159  0.1474
32069SOL    HW1 3068   3.104  12.388   0.112 -0.7387  1.0552 -0.2862
32069SOL    HW2 3069   2.962  12.336   0.106 -0.7981  1.2528 -0.5956
32070SOL     OW 3070   1.947   7.470   7.281  0.1412 -0.1393  0.0893
32070SOL    HW1 3071   2.010   7.505   7.344  0.6731 -1.7835  0.5245
32070SOL    HW2 3072   1.862   7.495   7.316  0.4854  0.8340  0.2783
32071SOL     OW 3073   9.970  11.828  10.747  0.5223  0.1504 -0.1436
32071SOL    HW1 3074   9.972  11.865  10.659  1.4813  0.7937  0.1432
32071SOL    HW2 3075   9.886  11.781  10.750  1.7122 -2.4148 -2.4192
32072SOL     OW 3076   8.976  11.410   9.010 -0.3899 -0.5536 -0.6294
32072SOL    HW1 3077   8.989  11.320   8.978  0.1415  0.1233 -2.4492
32072SOL    HW2 3078   9.053  11.458   8.978 -0.5905  0.5256  0.4455
32073SOL     OW 3079   9.306   6.856   1.126 -0.7101  0.0849  0.1946
32073SOL    HW1 3080   9.250   6.819   1.059  0.2618 -0.1390 -0.5141
32073SOL    HW2 3081   9.394   6.857   1.087 -0.0990 -0.1709  1.4998
32074SOL     OW 3082  12.327  12.348  11.925 -0.2839 -0.5126 -0.1249
32074SOL    HW1 3083  12.307  12.323  12.015  1.1800 -0.0449  0.3537
32074SOL    HW2 3084  12.272  12.290  11.872 -1.1607 -0.8144  1.0467
32075SOL     OW 3085   8.927   1.015   1.620  0.5649 -0.1793 -0.4833
32075SOL    HW1 3086   8.993   0.987   1.683  0.3315  2.0598  0.8840
32075SOL    HW2 3087   8.852   1.042   1.674 -0.4646 -0.1837 -1.8492
32076SOL     OW 3088  10.527  12.305   5.270  0.2473 -0.8565 -0.3398
32076SOL    HW1 3089  10.455  12.340   5.322 -0.5812 -0.4761 -1.7177
32076SOL    HW2 3090  10.580  12.381   5.246  1.1696 -1.1330  0.6840
32077SOL     OW 3091   7.118   4.496   9.766 -0.6037  0.7591 -0.4777
32077SOL    HW1 3092   7.099   4.423   9.825 -0.7470 -0.1876 -1.6505
32077SOL    HW2 3093   7.038   4.548   9.766 -1.3991 -0.4235 -1.4818
32078SOL     OW 3094  10.116   2.776   0.256 -0.3193  0.2839  0.0024
32078SOL    HW1 3095  10.102   2.802   0.165 -1.6636  0.9822  0.3784
32078SOL    HW2 3096  10.030   2.787   0.297  0.1059 -0.6512  1.2077
32079SOL     OW 3097   9.968   9.110   4.448 -0.8115  0.1076  0.8065
32079SOL    HW1 3098   9.873   9.121   4.438 -0.7530 -0.9883 -1.5002
32079SOL    HW2 3099  10.007   9.166   4.381  0.0603 -0.9901  0.3531
32080SOL     OW 3100   8.015  12.481  10.818  0.1121  0.2538 -0.3043
32080SOL    HW1 3101   7.988  12.572  10.831  0.3427  0.2443  0.2664
32080SOL    HW2 3102   8.104  12.477  10.853  0.1212 -0.1791 -0.3692
32081SOL     OW 3103   3.616  10.333  10.948 -0.0536  0.5057 -0.2972
32081SOL    HW1 3104   3.522  10.351  10.937 -0.5147 -0.6441  1.5047
32081SOL    HW2 3105   3.621  10.274  11.023  2.0210 -0.5640 -1.2035
32082SOL     OW 3106  10.402   4.179   3.981  0.1960  0.9178  0.0428
32082SOL    HW1 3107  10.308   4.184   3.998  0.5077  2.0836  1.6920
32082SOL    HW2 3108  10.414   4.223   3.896 -0.7977  0.2233 -0.4712
32083SOL     OW 3109  12.153   7.155  11.802 -0.3537  0.2422 -0.3086
32083SOL    HW1 3110  12.065   7.190  11.784 -1.0269 -0.6238  1.1239
32083SOL    HW2 3111  12.196   7.155  11.717 -1.8243  0.4908 -1.0941
32084SOL     OW 3112   8.353   8.691   6.848  0.0923 -0.3061  0.3668
32084SOL    HW1 3113   8.280   8.632   6.830 -0.8701  0.8860  0.2681
32084SOL    HW2 3114   8.349   8.757   6.780  1.2290 -0.1700  0.4028
32085SOL     OW 3115  12.164   5.077   4.924  0.1664  0.2532  0.2608
32085SOL    HW1 3116  12.102   5.049   4.991  0.8850 -0.1926  0.7610
32085SOL    HW2 3117  12.129   5.042   4.842  1.7753 -3.6164  1.0113
32086SOL     OW 3118   0.189   8.450   1.850  0.2312  0.1181  0.3481
32086SOL    HW1 3119   0.184   8.375   1.791  0.6981  0.3755 -0.0224
32086SOL    HW2 3120   0.199   8.411   1.937  0.8363 -0.2493  0.1183
32087SOL     OW 3121   7.459  11.911   5.372  0.2369 -0.6450  1.0261
32087SOL    HW1 3122   7.553  11.896   5.386  0.0789 -1.5857  1.1261
32087SOL    HW2 3123   7.447  12.004   5.391  1.0095 -0.6859  1.7853
32088SOL     OW 3124  11.884   5.812  11.231  0.1692  0.6508  0.1961
32088SOL    HW1 3125  11.837   5.890  11.262 -0.9271  0.4546 -0.8821
32088SOL    HW2 3126  11.870   5.747  11.300 -0.5461  0.8273  0.2313
32089SOL     OW 3127   2.104   3.369   9.233  0.8008 -0.2034 -0.0316
32089SOL    HW1 3128   2.012   3.349   9.214  0.5201  0.9181  0.0358
32089SOL    HW2 3129   2.146   3.372   9.148  0.3508  1.1367 -0.2322
32090SOL     OW 3130   9.118   0.334   3.602  0.3635  0.5810 -0.0760
32090SOL    HW1 3131   9.022   0.336   3.608  0.1710  0.1972 -2.1058
32090SOL    HW2 3132   9.140   0.402   3.538  1.2319 -0.7187 -1.2256
32091SOL     OW 3133   5.601   5.012   4.522  0.0879  0.0998 -0.4925
32091SOL    HW1 3134   5.521   5.038   4.478  0.6877  0.7724 -1.2170
32091SOL    HW2 3135   5.671   5.052   4.471  0.9293 -0.9732 -0.2355
32092SOL     OW 3136   5.155   4.699   2.826 -0.5374 -0.0563 -0.1475
32092SOL    HW1 3137   5.137   4.707   2.919 -0.2307  1.9569 -0.2186
32092SOL    HW2 3138   5.223   4.632   2.820  0.2979  0.6326  1.1957
32093SOL     OW 3139  10.181   3.220  10.742  0.4440  0.4027 -0.2863
32093SOL    HW1 3140  10.184   3.276  10.819  0.2823 -0.5291  0.4151
32093SOL    HW2 3141  10.087   3.211  10.722  0.2593 -1.5922  1.1288
32094SOL     OW 3142  12.246   0.148   7.730  0.7830  0.1481 -0.1522
32094SOL    HW1 3143  12.151   0.162   7.731  0.7005 -0.3613 -0.2684
32094SOL    HW2 3144  12.255   0.054   7.715  1.2755 -0.0707  1.3466
32095SOL     OW 3145   9.750   3.400   7.716 -0.2008  0.4670 -0.1514
32095SOL    HW1 3146   9.743   3.428   7.625 -0.2871 -0.4803 -0.4559
32095SOL    HW2 3147   9.792   3.314   7.711  0.6087  0.7915  0.7784
32096SOL     OW 3148   6.462   3.286   9.656 -0.3789  0.0428 -0.0297
32096SOL    HW1 3149   6.431   3.229   9.585 -1.9094  1.5097 -0.6141
32096SOL    HW2 3150   6.504   3.359   9.611  2.8743 -1.1610  0.7303
32097SOL     OW 3151  12.309  10.533   3.057  0.3182  0.0003  0.1060
32097SOL    HW1 3152  12.344  10.474   2.990  0.6904 -0.6056  0.8165
32097SOL    HW2 3153  12.222  10.497   3.077  1.0352 -1.1160  1.4480
32098SOL     OW 3154   4.896   2.120   4.213  0.5501 -0.7333 -0.2182
32098SOL    HW1 3155   4.881   2.045   4.157 -1.2557  0.8565 -2.0029
32098SOL    HW2 3156   4.822   2.179   4.196  1.0986  0.8144  2.1951
32099SOL     OW 3157   5.965  12.446   5.257 -0.0836  0.7663 -0.1311
32099SOL    HW1 3158   6.015  12.372   5.222 -0.4807 -0.4457  1.7449
32099SOL    HW2 3159   6.006  12.465   5.341 -1.7089  0.8316  0.6753
32100SOL     OW 3160  10.923  10.891   0.603 -0.0458 -0.0589  0.4927
32100SOL    HW1 3161  10.952  10.964   0.548 -0.9242  1.1375  1.5611
32100SOL    HW2 3162  10.897  10.932   0.685 -1.1542 -1.5192  0.9025
32101SOL     OW 3163   3.462   6.904   4.716 -0.5056 -0.1157  0.1343
32101SOL    HW1 3164   3.444   6.840   4.647 -0.2543 -1.0109  0.8737
32101SOL    HW2 3165   3.557   6.918   4.711 -0.5544  0.1807 -0.0018
32102SOL     OW 3166  10.058   1.513   7.077 -0.3987  0.3025  0.7185
32102SOL    HW1 3167  10.036   1.604   7.097  0.1698  0.1903  1.9471
32102SOL    HW2 3168   9.997   1.488   7.008 -0.5227  1.6296  0.3171
32103SOL     OW 3169   7.419   3.118   8.753  0.1115 -0.0155 -0.5806
32103SOL    HW1 3170   7.422   3.118   8.657 -3.6408  0.9981 -0.8630
32103SOL    HW2 3171   7.376   3.200   8.776  1.5432  0.0980  2.0781
32104SOL     OW 3172  11.144  12.197   5.002  0.0414 -0.0471  0.2522
32104SOL    HW1 3173  11.121  12.135   5.072 -2.1855  1.1489  0.6858
32104SOL    HW2 3174  11.233  12.223   5.023 -0.0619 -0.7975  1.8385
32105SOL     OW 3175   0.471   3.860  11.960 -0.8132  0.0178  0.3198
32105SOL    HW1 3176   0.399   3.864  11.897  0.1687  0.5373 -0.8200
32105SOL    HW2 3177   0.545   3.825  11.909 -0.3692 -0.8871  1.5637
32106SOL     OW 3178   9.318  12.458   8.645  0.0649 -0.4641  0.5784
32106SOL    HW1 3179   9.388  12.407   8.606  0.9376  1.0854  0.0048
32106SOL    HW2 3180   9.363  12.528   8.692 -1.0837  0.6393  0.1058
32107SOL     OW 3181  11.043   2.929   2.751 -0.7658 -0.4072 -0.0942
32107SOL    HW1 3182  11.127   2.908   2.710 -0.9229 -0.1167 -0.5683
32107SOL    HW2 3183  11.063   3.003   2.808 -0.4947 -0.9711  0.5628
32108SOL     OW 3184   1.212   1.747   9.894  0.6344  0.2055 -0.4713
32108SOL    HW1 3185   1.294   1.698   9.894  1.2091  1.1353 -0.9884
32108SOL    HW2 3186   1.171   1.725   9.811  0.4843 -0.0386 -0.3357
32109SOL     OW 3187   8.297   5.115   2.848  0.1238 -0.0789  0.5747
32109SOL    HW1 3188   8.380   5.070   2.864  0.3116  0.1875  0.3424
32109SOL    HW2 3189   8.231   5.054   2.880  0.3385 -0.8220 -0.3321
32110SOL     OW 3190   5.917   4.146   9.142  0.3626  0.3158  0.1867
32110SOL    HW1 3191   5.838   4.194   9.168 -0.2933 -0.0642 -1.0424
32110SOL    HW2 3192   5.987   4.211   9.150 -0.4963  1.4878 -1.3497
32111SOL     OW 3193   1.778   2.982  11.695 -0.3617  0.1433 -0.1401
32111SOL    HW1 3194   1.873   2.998  11.691  0.2317 -2.7362  0.4838
32111SOL    HW2 3195   1.745   3.019  11.613  1.3792  0.6747 -0.6580
32112SOL     OW 3196  12.146   1.625   3.566  0.0829  0.2408  0.2143
32112SOL    HW1 3197  12.131   1.549   3.511  0.5334  0.6144 -0.4472
32112SOL    HW2 3198  12.122   1.597   3.654  0.3598 -0.6989 -0.0004
32113SOL     OW 3199   2.746  10.185   0.360 -0.6554 -0.1102  0.6410
32113SOL    HW1 3200   2.773  10.267   0.403  0.4794  0.1917 -0.5632
32113SOL    HW2 3201   2.810  10.120   0.389  0.9929  0.4102 -1.5538
32114SOL     OW 3202   7.583  11.470   6.017  0.1761 -0.4401 -0.0220
32114SOL    HW1 3203   7.609  11.500   5.930 -2.0885 -2.6662 -1.6215
32114SOL    HW2 3204   7.588  11.375   6.011 -0.6446 -0.6590  2.0863
32115SOL     OW 3205   0.540   4.225   6.267 -0.2977 -0.5671 -0.0720
32115SOL    HW1 3206   0.473   4.188   6.210  0.4581 -2.9911  0.5047
32115SOL    HW2 3207   0.617   4.232   6.212 -0.4436  0.2964 -0.1900
32116SOL     OW 3208   0.382   3.881   1.064 -0.3758  0.1706  0.4287
32116SOL    HW1 3209   0.337   3.839   0.991  1.5194 -0.4481 -0.4398
32116SOL    HW2 3210   0.315   3.889   1.132 -1.5954 -1.3415 -0.5401
32117SOL     OW 3211   8.664   2.644   4.791  0.0822 -0.1530  0.0343
32117SOL    HW1 3212   8.711   2.724   4.813 -1.9160  1.0900  0.0385
32117SOL    HW2 3213   8.672   2.636   4.696 -2.1258  1.7554 -0.3985
32118SOL     OW 3214   0.190  10.413   7.249  0.3284  0.5257 -0.0217
32118SOL    HW1 3215   0.268  10.359   7.262  0.8885  0.8907 -1.5500
32118SOL    HW2 3216   0.172  10.405   7.155  0.2396  2.7066 -0.2345
32119SOL     OW 3217  11.933   7.745   2.322  0.0777  0.3837  0.2714
32119SOL    HW1 3218  11.840   7.752   2.301 -0.6379 -0.4961  2.7608
32119SOL    HW2 3219  11.965   7.672   2.268 -0.4870  1.1010 -1.0714
32120SOL     OW 3220   8.667   8.791   0.276 -0.4721  0.3327 -0.3817
32120SOL    HW1 3221   8.699   8.859   0.217  0.3601  0.8354  0.6177
32120SOL    HW2 3222   8.607   8.837   0.334 -1.3056 -0.1628 -0.8288
32121SOL     OW 3223   9.230   9.224  10.767  1.2259  0.1608  0.8511
32121SOL    HW1 3224   9.290   9.298  10.768  1.8989 -0.3831  0.9380
32121SOL    HW2 3225   9.247   9.180  10.684 -0.3132  1.0142  0.0356
32122SOL     OW 3226   4.641   4.504  11.249 -0.2596  0.1201  0.4879
32122SOL    HW1 3227   4.581   4.441  11.290 -0.0575 -1.7531 -1.9061
32122SOL    HW2 3228   4.716   4.452  11.221 -0.5319  1.1281 -2.4985
32123SOL     OW 3229   7.080   1.679   4.945 -0.7603  0.0916  0.0462
32123SOL    HW1 3230   7.070   1.670   4.850 -0.9943 -2.1864  0.2103
32123SOL    HW2 3231   7.107   1.591   4.974  1.6872  1.3196  1.8246
32124SOL     OW 3232  11.041  10.497   9.393 -0.6666 -0.4157 -0.1783
32124SOL    HW1 3233  11.094  10.417   9.393 -1.4512 -0.9514 -0.3654
32124SOL    HW2 3234  11.029  10.517   9.486 -1.0738 -0.9432 -0.1098
32125SOL     OW 3235   2.615   6.469   6.289  0.2643  0.1200  0.5350
32125SOL    HW1 3236   2.578   6.441   6.205  0.9907  2.4482 -0.6701
32125SOL    HW2 3237   2.540   6.477   6.347 -0.5166  0.2645 -0.4608
32126SOL     OW 3238  12.229   4.154   4.435  0.2301 -0.1034 -0.0167
32126SOL    HW1 3239  12.229   4.089   4.506  0.9030 -2.7571 -2.2878
32126SOL    HW2 3240  12.138   4.158   4.406  0.2668 -0.4042 -0.1770
32127SOL     OW 3241   3.897   0.597   6.697  0.6858 -0.2199  0.2896
32127SOL    HW1 3242   3.814   0.572   6.736  0.2778  0.3722 -0.1848
32127SOL    HW2 3243   3.922   0.521   6.643 -0.3153  0.1817 -0.7762
32128SOL     OW 3244   8.928   4.833   3.250  0.0776  0.6460  0.5818
32128SOL    HW1 3245   8.986   4.908   3.266 -0.1316  0.5626  1.8262
32128SOL    HW2 3246   8.908   4.838   3.157  0.5840  1.7643  0.5147
32129SOL     OW 3247   3.029   2.903   9.711 -0.0515  0.2763 -0.0602
32129SOL    HW1 3248   3.014   2.830   9.772 -1.2076  2.0259  1.8964
32129SOL    HW2 3249   2.942   2.938   9.694  0.4115  0.7472 -1.5834
32130SOL     OW 3250   5.952  10.013  11.546 -0.0427  0.2817  0.1135
32130SOL    HW1 3251   6.012   9.958  11.598  1.0653  0.5794 -0.7999
32130SOL    HW2 3252   5.911   9.952  11.485  1.2778  0.4264 -0.9830
32131SOL     OW 3253   2.699   8.106   3.069 -0.1242  0.4686  0.1104
32131SOL    HW1 3254   2.687   8.115   3.164  0.5367  1.4802  0.1052
32131SOL    HW2 3255   2.773   8.047   3.060  0.8313  1.6138  0.2592
32132SOL     OW 3256  11.052  11.650   3.283 -0.8523  0.1693 -0.2414
32132SOL    HW1 3257  10.979  11.587   3.284 -0.1159 -0.7261  1.0072
32132SOL    HW2 3258  11.042  11.698   3.365 -0.2390  0.2571 -0.2120
32133SOL     OW 3259   5.665  11.400   6.408  0.7475 -0.0800  0.0906
32133SOL    HW1 3260   5.714  11.480   6.389  0.6738  0.1265  0.7609
32133SOL    HW2 3261   5.613  11.421   6.485 -0.5708 -0.2299 -0.7313
32134SOL     OW 3262   4.988   7.045   6.764  0.0862 -0.6279  0.0798
32134SOL    HW1 3263   5.008   7.128   6.806 -1.8456 -0.3888  0.6594
32134SOL    HW2 3264   4.941   7.069   6.684 -1.4132 -1.0997  0.7635
32135SOL     OW 3265   2.109   6.680   6.247  0.0978 -0.5171  0.1109
32135SOL    HW1 3266   2.204   6.688   6.237 -0.0122  1.3242  0.1509
32135SOL    HW2 3267   2.074   6.755   6.199 -1.2703 -0.4915  1.1075
32136SOL     OW 3268   3.490  11.872   8.983 -0.4117  0.1944 -0.2114
32136SOL    HW1 3269   3.438  11.811   8.930 -2.4392  0.5329  1.2689
32136SOL    HW2 3270   3.536  11.816   9.046  0.3921 -0.0389 -0.9849
32137SOL     OW 3271  10.336   0.283   0.862  0.0657  0.3620 -0.4074
32137SOL    HW1 3272  10.354   0.287   0.956 -0.8075  1.8065 -0.2672
32137SOL    HW2 3273  10.277   0.356   0.846 -0.0275 -0.0319 -2.0462
32138SOL     OW 3274   2.111   7.715   0.621 -0.7450 -0.0928 -0.0603
32138SOL    HW1 3275   2.040   7.687   0.564 -1.3691  1.3314 -0.0300
32138SOL    HW2 3276   2.174   7.756   0.562  1.0964 -3.0713 -0.3834
32139SOL     OW 3277   8.160   4.975  12.304 -0.3659 -0.4627  0.0520
32139SOL    HW1 3278   8.219   4.921  12.251  0.0284 -0.9194  0.9453
32139SOL    HW2 3279   8.115   4.913  12.361 -1.2989 -0.0504 -0.2111
32140SOL     OW 3280   4.607   3.810   7.930 -0.0789 -0.1737  0.2711
32140SOL    HW1 3281   4.574   3.888   7.887  0.9177  0.4618  0.6378
32140SOL    HW2 3282   4.546   3.741   7.904 -1.4114  0.8575  0.5592
32141SOL     OW 3283  10.990  11.847   1.574 -0.2672 -0.3319 -0.2570
32141SOL    HW1 3284  10.969  11.935   1.604  0.3844 -0.3402  0.2273
32141SOL    HW2 3285  10.924  11.791   1.616 -0.3098 -0.1545 -0.0854
32142SOL     OW 3286   4.665  10.159  10.150  0.5527  0.3168  0.2857
32142SOL    HW1 3287   4.664  10.164  10.054 -0.0964 -0.0340  0.2684
32142SOL    HW2 3288   4.752  10.191  10.175  0.7129  0.4436 -0.4174
32143SOL     OW 3289   8.976   3.080   5.608 -0.4232  0.0306 -0.0576
32143SOL    HW1 3290   8.941   3.125   5.531  0.8370 -0.0717 -0.7116
32143SOL    HW2 3291   9.037   3.142   5.647  0.3762 -0.6322 -0.2399
32144SOL     OW 3292  12.389  11.373   0.963  0.2343 -0.6543 -0.2937
32144SOL    HW1 3293  12.321  11.385   1.029  1.4227 -1.0016  1.0578
32144SOL    HW2 3294  12.470  11.363   1.014  0.8875 -3.3646 -1.6694
32145SOL     OW 3295   3.924   2.750   2.093 -1.0199 -0.2124  0.6513
32145SOL    HW1 3296   3.856   2.757   2.027  0.6898  2.6122 -1.0409
32145SOL    HW2 3297   3.935   2.840   2.125  1.4539 -0.6507  1.2670
32146SOL     OW 3298   8.666  10.208  12.224  0.1442  0.0595 -0.2111
32146SOL    HW1 3299   8.596  10.269  12.204 -0.8813  0.0748  2.8765
32146SOL    HW2 3300   8.724  10.211  12.148 -2.0771  1.6431 -1.9454
32147SOL     OW 3301   5.854  11.347   6.701  0.1998 -0.2047 -0.6256
32147SOL    HW1 3302   5.872  11.440   6.711  0.1024 -0.1190 -1.2643
32147SOL    HW2 3303   5.759  11.341   6.697  0.2008 -0.3483 -0.4750
32148SOL     OW 3304   5.320   7.069   2.827 -1.0416 -0.0749 -0.3335
32148SOL    HW1 3305   5.378   6.993   2.823  0.4369  0.8327  1.9570
32148SOL    HW2 3306   5.257   7.048   2.896 -0.1740  0.9975  0.8351
32149SOL     OW 3307  12.179   0.496   7.041  0.5236 -0.1512  0.1891
32149SOL    HW1 3308  12.153   0.489   7.133 -0.1847  1.1302  0.1025
32149SOL    HW2 3309  12.201   0.406   7.016 -1.3239 -0.8891  1.0176
32150SOL     OW 3310  11.052  11.695   9.612  0.6720  0.2804  0.2705
32150SOL    HW1 3311  11.108  11.618   9.599 -1.1470 -0.7100 -2.4330
32150SOL    HW2 3312  10.982  11.663   9.670  0.3900  0.1524 -0.1404
32151SOL     OW 3313   4.715   7.222   9.376  0.1377  0.5566 -0.4783
32151SOL    HW1 3314   4.688   7.203   9.466 -0.4751  1.7406 -0.3936
32151SOL    HW2 3315   4.681   7.310   9.359  1.5511  0.9707 -1.3445
32152SOL     OW 3316   9.156   6.914  11.242  0.1114 -0.1072 -0.0310
32152SOL    HW1 3317   9.183   6.980  11.306  0.3317  0.0238 -0.2586
32152SOL    HW2 3318   9.168   6.830  11.287 -0.1187  0.0015  0.2393
32153SOL     OW 3319  12.379   9.460   0.275  0.3654 -0.2235  0.1984
32153SOL    HW1 3320  12.401   9.480   0.185 -0.6027 -0.7922 -0.1815
32153SOL    HW2 3321  12.382   9.544   0.320 -0.7033  0.3298 -0.7158
32154SOL     OW 3322   7.752   9.013   2.931 -0.5357 -0.1123 -0.0940
32154SOL    HW1 3323   7.805   9.020   3.010 -1.3727  1.0623  0.3870
32154SOL    HW2 3324   7.683   9.078   2.942 -0.9008 -0.1973 -1.6189
32155SOL     OW 3325  11.020   4.961   0.999  0.4323  0.4103 -0.2832
32155SOL    HW1 3326  10.957   5.012   0.947  0.3482  0.0592 -0.5362
32155SOL    HW2 3327  11.005   4.988   1.089 -3.0209 -2.5323  0.2821
32156SOL     OW 3328   8.383   6.535   3.808  0.0766 -0.7666 -0.0376
32156SOL    HW1 3329   8.340   6.454   3.834 -0.2392 -0.7809 -0.5993
32156SOL    HW2 3330   8.441   6.556   3.882 -1.0851 -0.5978  0.8553
32157SOL     OW 3331   8.583  10.627   1.532 -0.8862 -0.3547  0.4090
32157SOL    HW1 3332   8.628  10.668   1.606  0.2105 -1.9319  0.6709
32157SOL    HW2 3333   8.603  10.683   1.458  2.9294 -1.7159  0.1856
32158SOL     OW 3334   6.539  12.143   7.265 -0.0150  0.2859 -0.6463
32158SOL    HW1 3335   6.483  12.133   7.342 -0.6251  1.6224 -0.8941
32158SOL    HW2 3336   6.557  12.237   7.261  1.4425  0.0154 -1.1496
32159SOL     OW 3337   1.705  10.188   0.090  0.3434  0.0028  0.0060
32159SOL    HW1 3338   1.762  10.205   0.014  0.4567 -0.0021  0.0906
32159SOL    HW2 3339   1.749  10.231   0.163  0.1067  0.2207  0.0228
32160SOL     OW 3340   7.366   6.435   3.022 -0.1518 -0.3809  0.3343
32160SOL    HW1 3341   7.299   6.478   2.968 -0.0755 -1.0319 -0.2815
32160SOL    HW2 3342   7.440   6.421   2.963  0.2122 -0.4318  0.7983
32161SOL     OW 3343  10.401   2.678   5.247 -0.0851 -0.5127 -0.2057
32161SOL    HW1 3344  10.446   2.619   5.187 -1.4768 -3.3758  1.3621
32161SOL    HW2 3345  10.460   2.686   5.322  0.8508  1.5929 -1.0874
32162SOL     OW 3346  10.974   6.100   6.834 -0.1200  0.7469 -0.3192
32162SOL    HW1 3347  10.909   6.112   6.903  1.3081  3.0948  0.7198
32162SOL    HW2 3348  11.046   6.054   6.877  0.1014  0.7298 -0.7053
32163SOL     OW 3349   7.679   4.734   5.044  0.2281 -0.7416  0.5924
32163SOL    HW1 3350   7.638   4.660   4.999  0.7593  0.7221 -2.5332
32163SOL    HW2 3351   7.612   4.802   5.047  0.3835 -0.6065  1.5898
32164SOL     OW 3352   6.343  12.259   4.256 -0.4707  0.0435  0.0783
32164SOL    HW1 3353   6.370  12.217   4.174  0.3913 -2.1145  1.3944
32164SOL    HW2 3354   6.387  12.344   4.255  1.6939 -1.0113 -0.5208
32165SOL     OW 3355   7.343   5.169   7.814  0.1005 -0.6574  0.2896
32165SOL    HW1 3356   7.382   5.107   7.876 -0.3809 -0.8747  0.3779
32165SOL    HW2 3357   7.279   5.117   7.765 -0.0954 -0.2975  0.1627
32166SOL     OW 3358   6.412   8.178   9.973  0.1311  0.5728  0.0176
32166SOL    HW1 3359   6.391   8.188   9.880  0.9790 -1.3934 -0.4218
32166SOL    HW2 3360   6.495   8.131   9.975  0.2111  0.6975  1.7900
32167SOL     OW 3361   1.178   1.511  11.334 -0.2372 -0.0362 -0.6598
32167SOL    HW1 3362   1.261   1.545  11.369 -0.2322 -1.4294  0.7982
32167SOL    HW2 3363   1.111   1.565  11.375 -0.1841 -1.1126  0.9457
32168SOL     OW 3364   3.082  12.446  10.996 -0.1695  0.2732 -0.2644
32168SOL    HW1 3365   3.070  12.524  11.050 -2.5942 -0.7101  0.7579
32168SOL    HW2 3366   3.102  12.376  11.058 -2.6504 -0.8031 -0.5520
32169SOL     OW 3367   6.226  11.878   5.924 -0.0464 -0.1204 -0.4906
32169SOL    HW1 3368   6.226  11.881   6.020 -0.9599  1.0418 -0.5079
32169SOL    HW2 3369   6.282  11.951   5.897 -0.4271  0.0431 -0.8486
32170SOL     OW 3370   6.070   3.622   2.509 -0.3927  0.4160  0.5311
32170SOL    HW1 3371   6.008   3.589   2.445  0.0321 -1.0970  0.8598
32170SOL    HW2 3372   6.104   3.703   2.471 -0.6304 -0.1065 -0.8359
32171SOL     OW 3373   8.206   8.398   3.129 -0.2070 -0.8415 -0.1819
32171SOL    HW1 3374   8.274   8.400   3.197 -1.0877  0.2752  0.7144
32171SOL    HW2 3375   8.192   8.305   3.111 -0.7521 -1.2273  2.0056
32172SOL     OW 3376   5.613   5.898   4.086 -0.1195  0.2995  0.4648
32172SOL    HW1 3377   5.613   5.818   4.035  1.4820 -0.3310  1.3835
32172SOL    HW2 3378   5.522   5.909   4.114 -0.0213 -2.4273  2.1628
32173SOL     OW 3379   1.700   7.881   2.477  0.0927  0.4311  0.6522
32173SOL    HW1 3380   1.690   7.939   2.552 -1.1307 -0.0613  0.8904
32173SOL    HW2 3381   1.612   7.870   2.442  0.7491  1.4423 -1.4991
32174SOL     OW 3382   1.822   0.446   0.553  0.1224 -0.1411  0.6298
32174SOL    HW1 3383   1.887   0.444   0.483  0.2208 -0.2826  0.7247
32174SOL    HW2 3384   1.840   0.528   0.600 -0.4545  0.3499  0.0114
32175SOL     OW 3385   3.130  11.083  11.114 -0.0280  0.3020 -0.2870
32175SOL    HW1 3386   3.197  11.038  11.062 -0.9218  0.6882 -1.8196
32175SOL    HW2 3387   3.090  11.146  11.054 -2.2490 -0.3800  0.3734
32176SOL     OW 3388   2.084   8.624   0.998 -0.3287 -0.4912  0.2460
32176SOL    HW1 3389   2.013   8.657   0.943  0.6741  0.0692 -0.7655
32176SOL    HW2 3390   2.101   8.695   1.060  0.3471  0.0255 -0.5041
32177SOL     OW 3391   4.753   2.129  11.565  0.2670 -0.2240  0.2319
32177SOL    HW1 3392   4.700   2.189  11.512 -0.3966 -0.7588  0.2726
32177SOL    HW2 3393   4.743   2.162  11.654  0.8571  0.2950  0.1051
32178SOL     OW 3394   4.134   2.178  12.032 -0.4576  0.4863  0.7194
32178SOL    HW1 3395   4.182   2.179  11.949 -1.0304  1.6192  0.3765
32178SOL    HW2 3396   4.046   2.148  12.009 -0.3011 -0.3065  1.1210
32179SOL     OW 3397  11.730   4.654   5.200 -0.0213 -0.1237 -0.1151
32179SOL    HW1 3398  11.774   4.738   5.206 -0.6669  0.1178  1.9837
32179SOL    HW2 3399  11.753   4.620   5.114  2.3581  1.0166  0.0202
32180SOL     OW 3400   1.145   9.311   0.564 -0.6158  0.1730 -0.7736
32180SOL    HW1 3401   1.063   9.269   0.590 -0.1570  1.4266  3.3793
32180SOL    HW2 3402   1.211   9.242   0.574 -0.5185  0.4980  1.3105
32181SOL     OW 3403   6.374   0.703   3.522  0.0077 -0.6695  1.1592
32181SOL    HW1 3404   6.413   0.616   3.527  0.6607 -0.3587  1.6640
32181SOL    HW2 3405   6.314   0.707   3.597  0.9728 -0.2195  1.9237
32182SOL     OW 3406  10.743   4.768  10.784  0.3470  0.7721 -0.1153
32182SOL    HW1 3407  10.834   4.796  10.770  0.0131  2.5374  0.9247
32182SOL    HW2 3408  10.696   4.849  10.803 -1.3245 -0.1950  0.0650
32183SOL     OW 3409  11.346   1.853   1.236  0.1485 -0.2200  0.4489
32183SOL    HW1 3410  11.266   1.847   1.184 -0.0705 -0.6986  0.8290
32183SOL    HW2 3411  11.417   1.859   1.171 -0.0783 -1.3266  0.0711
32184SOL     OW 3412   0.121   6.323   5.343 -0.2516 -0.0504  0.2270
32184SOL    HW1 3413   0.174   6.277   5.277  0.4159 -1.5691  1.7347
32184SOL    HW2 3414   0.072   6.388   5.294  1.1108 -0.3292 -1.5972
32185SOL     OW 3415   6.114   9.291   3.116  0.8549 -0.0054 -0.3956
32185SOL    HW1 3416   6.155   9.212   3.150  2.0680  1.1075  0.8767
32185SOL    HW2 3417   6.039   9.306   3.174  2.2811  1.2860  1.2027
32186SOL     OW 3418   9.900   4.112   2.401 -0.6824 -0.0195 -0.0650
32186SOL    HW1 3419   9.869   4.149   2.483 -2.3848 -0.5252 -0.4278
32186SOL    HW2 3420   9.874   4.020   2.405 -2.0030  0.2308 -1.6909
32187SOL     OW 3421   9.595   7.468   3.377 -0.5329 -0.4632 -0.5961
32187SOL    HW1 3422   9.627   7.558   3.383 -0.3250 -0.5957  0.5354
32187SOL    HW2 3423   9.515   7.468   3.430  0.1644 -1.2417  0.4767
32188SOL     OW 3424   4.804   9.916   5.533 -0.3871 -0.6872  0.6901
32188SOL    HW1 3425   4.813   9.871   5.450 -0.0176 -2.8831  1.8425
32188SOL    HW2 3426   4.869   9.986   5.530 -2.1593  1.0056 -1.8475
32189SOL     OW 3427  12.430  10.123   2.548 -0.0871  0.1068  0.2472
32189SOL    HW1 3428  12.505  10.107   2.491 -0.5378 -1.5801  0.0807
32189SOL    HW2 3429  12.462  10.104   2.636 -0.8729 -2.9863 -0.0354
32190SOL     OW 3430   1.710   8.932   9.223  0.4477 -0.0391 -0.1551
32190SOL    HW1 3431   1.664   8.890   9.295  0.5760  1.2716  0.7213
32190SOL    HW2 3432   1.791   8.881   9.214 -0.2800 -1.1877 -0.4597
32191SOL     OW 3433   8.362   1.651   6.738  0.0052  0.0960 -0.0428
32191SOL    HW1 3434   8.427   1.666   6.806 -0.7952 -0.0734  0.7696
32191SOL    HW2 3435   8.316   1.735   6.729 -1.6755 -0.5812  1.5516
32192SOL     OW 3436  10.902   2.423   4.395 -0.5499  0.4831 -0.0092
32192SOL    HW1 3437  10.985   2.387   4.428 -0.9429  0.7058  1.2628
32192SOL    HW2 3438  10.928   2.489   4.331  0.2121 -1.0132 -1.3449
32193SOL     OW 3439   2.633  10.821  10.889 -0.0360  0.5222 -0.1835
32193SOL    HW1 3440   2.708  10.763  10.876 -0.5998 -0.0351 -1.0642
32193SOL    HW2 3441   2.626  10.871  10.807 -2.7061 -1.9260 -1.6620
32194SOL     OW 3442   6.304  10.664   8.298 -0.1261 -0.2227  0.0533
32194SOL    HW1 3443   6.297  10.697   8.387 -0.8542 -1.2438  0.3882
32194SOL    HW2 3444   6.398  10.647   8.286 -0.0595 -0.3495  0.7224
32195SOL     OW 3445  11.577   3.833   6.549  0.1796 -0.6643 -0.5230
32195SOL    HW1 3446  11.651   3.809   6.492  0.1172 -2.2310 -0.0117
32195SOL    HW2 3447  11.618   3.856   6.633  0.1064 -1.8776 -0.1301
32196SOL     OW 3448   2.378   1.381   0.443 -0.3684 -0.1498 -0.1241
32196SOL    HW1 3449   2.411   1.456   0.493 -1.3701  0.0387  0.2659
32196SOL    HW2 3450   2.375   1.412   0.352  0.5118 -0.1691 -0.1676
32197SOL     OW 3451   2.991   9.862   6.007  0.1617  0.0593 -0.2863
32197SOL    HW1 3452   3.083   9.882   5.992 -0.4845  2.3092 -1.7314
32197SOL    HW2 3453   2.963   9.818   5.926  0.0816 -1.2628  0.4248
32198SOL     OW 3454   8.776   7.625  11.029 -0.7459  0.3117  0.7831
32198SOL    HW1 3455   8.820   7.620  11.114  2.7803  0.5707 -0.8841
32198SOL    HW2 3456   8.846   7.634  10.965 -3.2434  0.1847 -2.2317
32199SOL     OW 3457   5.915   1.153  10.068 -0.0262  0.1505 -0.0231
32199SOL    HW1 3458   5.888   1.174   9.978  0.2141  0.6292  0.0146
32199SOL    HW2 3459   6.006   1.125  10.059 -1.1800 -4.0589 -0.5275
32200SOL     OW 3460   7.365   0.816   5.045  0.3798  0.2870  0.6424
32200SOL    HW1 3461   7.333   0.750   5.106 -0.5938 -0.1059 -0.2592
32200SOL    HW2 3462   7.389   0.766   4.967  0.1225  0.9382  0.1366
32201SOL     OW 3463   6.491   1.047  10.036 -0.3145  0.3180  0.0278
32201SOL    HW1 3464   6.573   1.016  10.073 -0.8054  0.8667  1.6431
32201SOL    HW2 3465   6.468   1.124  10.087 -0.4873  1.8176 -2.1721
32202SOL     OW 3466   9.409  10.933   5.253  0.1999  0.3878  0.5430
32202SOL    HW1 3467   9.484  10.880   5.226  1.0118  0.5120  2.3801
32202SOL    HW2 3468   9.400  10.999   5.184  1.7108  0.2979  0.2206
32203SOL     OW 3469   3.152  10.988   9.926  0.3647  0.3136  0.1781
32203SOL    HW1 3470   3.179  11.062   9.872  0.9438  0.1363  0.2240
32203SOL    HW2 3471   3.066  11.014   9.960  0.4913  0.8953  0.0634
32204SOL     OW 3472   5.349   8.980  10.370  0.1351  0.6682 -0.1615
32204SOL    HW1 3473   5.334   9.074  10.373 -0.5398  0.5642  0.0340
32204SOL    HW2 3474   5.346   8.952  10.461 -2.1595  0.1174 -0.3476
32205SOL     OW 3475  11.229  10.266   5.381  0.0999 -0.5420  0.3394
32205SOL    HW1 3476  11.228  10.332   5.311  1.7684  1.4940  2.0989
32205SOL    HW2 3477  11.151  10.213   5.364  0.2388  0.0402 -2.8324
32206SOL     OW 3478   1.543   4.064   0.237 -0.4403  0.3744  0.0274
32206SOL    HW1 3479   1.499   4.129   0.293 -0.1884  0.0268  0.6473
32206SOL    HW2 3480   1.635   4.091   0.236 -0.6884  1.2034 -1.4159
32207SOL     OW 3481   0.355  11.555   0.088 -0.0094 -0.6243  0.8851
32207SOL    HW1 3482   0.284  11.578   0.148 -0.8246 -0.0842 -0.2545
32207SOL    HW2 3483   0.434  11.560   0.142 -0.4479  2.0450  1.4032
32208SOL     OW 3484   8.269  12.186   9.770 -0.6789  0.0400 -0.1691
32208SOL    HW1 3485   8.318  12.253   9.722  1.0171 -0.1282  1.2057
32208SOL    HW2 3486   8.306  12.103   9.741 -0.2683 -0.1043  0.7444
32209SOL     OW 3487  11.690   0.279   4.245 -0.3384 -0.3876 -0.6131
32209SOL    HW1 3488  11.727   0.365   4.261  2.2344 -1.7819  1.8139
32209SOL    HW2 3489  11.598   0.287   4.272  0.3842  1.1104  1.6846
32210SOL     OW 3490   8.235   0.726   3.020 -0.0161 -0.4827 -0.0689
32210SOL    HW1 3491   8.288   0.699   2.945 -1.9083 -1.7575 -1.0271
32210SOL    HW2 3492   8.200   0.644   3.056 -0.4975  0.2292  1.1755
32211SOL     OW 3493   3.435  12.097  11.094  0.2576  0.1805  0.8583
32211SOL    HW1 3494   3.513  12.117  11.043 -0.4365  0.3727 -0.1540
32211SOL    HW2 3495   3.395  12.022  11.049 -0.8516  0.9277  0.5644
32212SOL     OW 3496   6.581   0.575   7.837 -0.0397 -0.6460 -0.0247
32212SOL    HW1 3497   6.628   0.625   7.770 -0.4533 -0.1058  0.0779
32212SOL    HW2 3498   6.628   0.595   7.919 -0.0515 -0.6285 -0.0226
32213SOL     OW 3499   9.359   9.809   6.706 -0.2381  0.1168 -0.0826
32213SOL    HW1 3500   9.401   9.737   6.754 -1.1839  0.3843  1.1953
32213SOL    HW2 3501   9.295   9.765   6.650  0.9680 -0.2071 -1.2805
32214SOL     OW 3502   5.679   0.251   5.170 -0.2722  0.2871 -0.0369
32214SOL    HW1 3503   5.671   0.156   5.184  1.1808 -0.1204 -1.6909
32214SOL    HW2 3504   5.590   0.284   5.185 -0.7192 -1.2436  1.0254
32215SOL     OW 3505  11.467   3.010   7.709 -0.1114 -1.1946  0.1406
32215SOL    HW1 3506  11.557   2.979   7.702  0.3852 -0.1709  1.6139
32215SOL    HW2 3507  11.444   2.999   7.801 -0.1619  1.9340  0.6303
32216SOL     OW 3508   4.325   2.186  11.837  0.1385 -0.1678  0.3123
32216SOL    HW1 3509   4.347   2.129  11.763 -1.0957  0.1542 -0.3344
32216SOL    HW2 3510   4.374   2.266  11.821 -1.0967  0.3871 -0.8763
32217SOL     OW 3511   7.698   4.850  11.972  0.6710  0.0332  0.3997
32217SOL    HW1 3512   7.760   4.796  12.022  1.5174  0.9953  0.4066
32217SOL    HW2 3513   7.660   4.789  11.909  1.9373 -0.4939  0.1128
32218SOL     OW 3514   6.418   4.073   7.744  0.4383 -0.1963  0.2547
32218SOL    HW1 3515   6.384   3.997   7.791  1.5379 -1.8673 -1.5057
32218SOL    HW2 3516   6.465   4.036   7.669 -1.1779  2.2928 -2.1736
32219SOL     OW 3517  11.721   2.503  11.168 -0.4181  0.3028  0.7560
32219SOL    HW1 3518  11.773   2.542  11.098 -0.8238  0.4179  0.5113
32219SOL    HW2 3519  11.722   2.409  11.149 -0.6204  0.3453  0.5286
32220SOL     OW 3520   5.089   9.861   8.962  0.0957 -0.1784  0.0255
32220SOL    HW1 3521   5.087   9.854   8.867 -0.1091  0.3250 -0.0086
32220SOL    HW2 3522   5.021   9.801   8.992 -2.0327  1.9268 -0.2874
32221SOL     OW 3523   6.125   1.890   3.641  0.1325 -0.5744  0.5785
32221SOL    HW1 3524   6.088   1.868   3.726 -1.1213 -0.4545  0.0859
32221SOL    HW2 3525   6.064   1.851   3.578  1.0107 -0.6171 -0.2658
32222SOL     OW 3526   5.795   5.234   1.602 -0.0577  0.2248  0.8109
32222SOL    HW1 3527   5.822   5.145   1.583 -0.5827  0.3699 -0.7341
32222SOL    HW2 3528   5.795   5.239   1.698  2.3306 -0.6733  0.9281
32223SOL     OW 3529  12.311   1.972   8.321  0.0610  0.0659  0.5955
32223SOL    HW1 3530  12.287   2.023   8.243 -0.9943  2.4337  2.3478
32223SOL    HW2 3531  12.380   2.023   8.362  0.0573 -0.7452  1.6313
32224SOL     OW 3532   9.724  11.138   9.245  0.2184  0.0027  0.1987
32224SOL    HW1 3533   9.763  11.117   9.161  0.1608  1.4608 -0.2255
32224SOL    HW2 3534   9.643  11.185   9.224  0.1984  0.3836  1.0487
32225SOL     OW 3535   9.639  10.107   9.742  0.1206 -0.1884 -0.2889
32225SOL    HW1 3536   9.627  10.202   9.735 -0.5088 -0.3318 -1.4106
32225SOL    HW2 3537   9.585  10.071   9.672  0.6083 -1.3624 -0.0828
32226SOL     OW 3538  10.479   2.444   3.790 -0.1829 -0.3954 -0.7032
32226SOL    HW1 3539  10.574   2.452   3.799 -0.1788 -0.2084 -0.9085
32226SOL    HW2 3540  10.454   2.380   3.856 -0.0189  0.1451 -0.1076
32227SOL     OW 3541   4.776   9.869   4.080  0.3448  0.2351 -0.1414
32227SOL    HW1 3542   4.833   9.937   4.045 -0.1746  0.0712 -1.3690
32227SOL    HW2 3543   4.689   9.891   4.047 -0.0115 -0.4302  0.3209
32228SOL     OW 3544   9.411   3.175   6.391 -0.2378  0.2564  0.0531
32228SOL    HW1 3545   9.497   3.178   6.350  0.9214 -3.1007  1.8630
32228SOL    HW2 3546   9.361   3.114   6.337 -1.2172  1.4655 -0.4467
32229SOL     OW 3547   0.586  12.261   3.551 -0.7758 -0.0536  0.0063
32229SOL    HW1 3548   0.629  12.246   3.636 -1.5277 -0.2684  0.3589
32229SOL    HW2 3549   0.543  12.346   3.561  0.8345  0.9171 -0.8909
32230SOL     OW 3550  10.092   3.853   6.466  0.1160 -0.3936  0.0545
32230SOL    HW1 3551  10.048   3.918   6.410 -0.0544  0.1333  0.7908
32230SOL    HW2 3552  10.042   3.853   6.547  1.4123  0.1394  0.8823
32231SOL     OW 3553   8.467   0.606   9.613  0.2650  0.4616 -0.0369
32231SOL    HW1 3554   8.382   0.588   9.571  0.2038  0.0500  0.2616
32231SOL    HW2 3555   8.445   0.620   9.705  0.6069 -0.3989  0.1824
32232SOL     OW 3556   8.638   5.231   6.202  0.0482  0.0133  0.0774
32232SOL    HW1 3557   8.618   5.290   6.275 -2.6609  1.6082 -1.7743
32232SOL    HW2 3558   8.709   5.275   6.154  1.9613 -1.1250  1.6942
32233SOL     OW 3559  12.207  11.259  11.495 -0.2189  0.1723 -0.0744
32233SOL    HW1 3560  12.164  11.332  11.538  1.9306  1.4026  0.1151
32233SOL    HW2 3561  12.272  11.228  11.558  0.2544 -0.6188 -0.9117
32234SOL     OW 3562  12.123   8.013   7.847  0.2538 -0.0848  0.2540
32234SOL    HW1 3563  12.105   8.086   7.906  0.6143  0.5002 -0.3528
32234SOL    HW2 3564  12.198   8.041   7.796  0.7880 -1.1381  0.4320
32235SOL     OW 3565   4.454  10.819  11.427  0.1920  0.1266 -0.4713
32235SOL    HW1 3566   4.371  10.848  11.390 -0.2365 -0.1111  0.2871
32235SOL    HW2 3567   4.502  10.900  11.444 -0.9065  0.4418  1.4257
32236SOL     OW 3568  10.191   8.584   5.674 -0.1368  0.1676 -0.0267
32236SOL    HW1 3569  10.248   8.645   5.721 -0.0717 -0.3319  0.5514
32236SOL    HW2 3570  10.235   8.500   5.681  0.0715  0.1566 -1.3373
32237SOL     OW 3571   2.794   7.028   3.711 -0.5036 -0.0276  0.1134
32237SOL    HW1 3572   2.748   6.969   3.651 -0.1718  1.9100 -2.1885
32237SOL    HW2 3573   2.789   7.114   3.669 -0.3718  1.5046  2.9872
32238SOL     OW 3574   3.571   3.381   5.506 -0.2738 -0.2998  0.4470
32238SOL    HW1 3575   3.666   3.396   5.513 -0.2187 -1.2920  3.0631
32238SOL    HW2 3576   3.533   3.436   5.574 -1.3946 -1.2537  0.6229
32239SOL     OW 3577  12.009   1.199   4.479 -0.4180  0.4893 -0.3032
32239SOL    HW1 3578  12.031   1.250   4.557  0.9352  1.1194 -1.0605
32239SOL    HW2 3579  11.954   1.258   4.427  0.8476  1.0941 -1.0104
32240SOL     OW 3580  11.490   1.449   4.319  0.4195 -0.0625  0.9291
32240SOL    HW1 3581  11.540   1.508   4.263 -1.8375  0.9302 -0.1596
32240SOL    HW2 3582  11.545   1.371   4.327  1.1489  0.0450 -2.0686
32241SOL     OW 3583   5.166   5.514   1.075 -0.4674 -0.1613  0.2570
32241SOL    HW1 3584   5.148   5.546   1.163  0.6183 -0.1907  0.4940
32241SOL    HW2 3585   5.229   5.443   1.087 -0.4013 -0.2467 -0.5326
32242SOL     OW 3586   8.871   5.363   0.015  0.2742 -0.3274 -0.0639
32242SOL    HW1 3587   8.898   5.347   0.105  0.6781  0.4793 -0.0292
32242SOL    HW2 3588   8.883   5.279  -0.030 -2.9705 -1.6983  1.3314
32243SOL     OW 3589  10.319   3.935  11.057 -0.4499 -0.0624 -0.0582
32243SOL    HW1 3590  10.252   3.874  11.088 -0.5325 -0.1465 -0.3993
32243SOL    HW2 3591  10.381   3.940  11.129 -1.3434  0.8000  0.6747
32244SOL     OW 3592   7.631   7.550  10.601 -0.0069  0.5601 -0.0578
32244SOL    HW1 3593   7.712   7.592  10.629 -0.8155  1.2374  1.3803
32244SOL    HW2 3594   7.646   7.457  10.613  1.6015  0.3752 -2.7108
32245SOL     OW 3595   8.300   7.389   0.686 -0.2497 -0.0267 -0.2391
32245SOL    HW1 3596   8.276   7.472   0.728 -1.1219  0.1567 -1.0709
32245SOL    HW2 3597   8.376   7.359   0.736 -1.1035  0.2886  1.3143
32246SOL     OW 3598  10.091   5.984  10.351  1.0480 -0.5090  0.3542
32246SOL    HW1 3599  10.111   5.979  10.257  1.2763  0.9124  0.3064
32246SOL    HW2 3600  10.134   5.907  10.389  2.3599 -0.2075 -0.4705
32247SOL     OW 3601  10.729   4.990   7.982 -0.2820 -0.1304 -0.3398
32247SOL    HW1 3602  10.753   5.009   8.072  0.5427 -0.4422 -0.4857
32247SOL    HW2 3603  10.715   4.895   7.980  1.1894 -0.3537 -0.8658
32248SOL     OW 3604   2.361   9.284   3.550 -0.0142 -0.2861 -0.5922
32248SOL    HW1 3605   2.446   9.243   3.565  0.2192  0.3466 -0.0742
32248SOL    HW2 3606   2.335   9.315   3.637 -0.8594 -0.6332 -0.7180
32249SOL     OW 3607   8.205   0.794   9.288  0.6550 -0.0888  0.1976
32249SOL    HW1 3608   8.191   0.701   9.267 -0.6896  0.1489 -0.0337
32249SOL    HW2 3609   8.117   0.828   9.306  1.2165  0.9597  1.0747
32250SOL     OW 3610   8.515  10.535   8.606  0.2585  0.1702 -0.0747
32250SOL    HW1 3611   8.528  10.576   8.692  1.6229 -3.2929  1.5557
32250SOL    HW2 3612   8.443  10.474   8.619  1.1691 -1.1803 -1.0421
32251SOL     OW 3613   5.552   7.965   6.433  0.4564  0.3210 -0.2270
32251SOL    HW1 3614   5.492   7.964   6.358  1.1714  1.9432 -0.8653
32251SOL    HW2 3615   5.535   8.048   6.477 -1.6140 -1.5790  2.8960
32252SOL     OW 3616   8.663   2.283   2.461  0.2221 -0.2164 -0.2698
32252SOL    HW1 3617   8.586   2.334   2.437  0.6395 -0.0918 -1.3937
32252SOL    HW2 3618   8.704   2.260   2.378  1.7713  0.3037  0.3052
32253SOL     OW 3619   3.522  10.745  11.888 -0.3213  0.3663 -0.2823
32253SOL    HW1 3620   3.428  10.761  11.885 -0.4033  0.1627  0.7187
32253SOL    HW2 3621   3.553  10.767  11.801 -1.4739 -0.6981 -1.0023
32254SOL     OW 3622   1.447   1.896   4.061 -0.2080 -0.5038 -0.3686
32254SOL    HW1 3623   1.378   1.842   4.100  0.1434  0.2481  1.3792
32254SOL    HW2 3624   1.528   1.853   4.087  0.0403 -0.4113 -0.9594
32255SOL     OW 3625   0.868  10.004   6.447 -0.2737  0.4764 -0.6719
32255SOL    HW1 3626   0.790   9.990   6.500 -0.9120  1.0760 -1.4177
32255SOL    HW2 3627   0.850   9.959   6.364  0.2810  0.4086 -0.7639
32256SOL     OW 3628   5.825  11.733   6.882 -0.7459  0.4884 -0.0487
32256SOL    HW1 3629   5.907  11.727   6.930 -0.7458 -2.1311 -0.2195
32256SOL    HW2 3630   5.757  11.732   6.949 -0.6722 -0.2155  0.0271
32257SOL     OW 3631   5.348  12.134   8.228  0.0055 -0.1444 -0.0998
32257SOL    HW1 3632   5.419  12.150   8.165  0.6410 -0.1614  0.5905
32257SOL    HW2 3633   5.335  12.040   8.226 -0.5137 -0.0674 -0.7598
32258SOL     OW 3634   8.205   9.992   7.485  0.4895  0.3220 -0.2140
32258SOL    HW1 3635   8.230  10.072   7.531 -0.4434 -0.7334  2.3078
32258SOL    HW2 3636   8.289   9.955   7.455  1.2946  0.5600  1.5935
32259SOL     OW 3637   4.065   9.654   8.743 -0.6293 -0.2064 -0.1491
32259SOL    HW1 3638   3.975   9.657   8.709 -0.9723  2.0262  0.7810
32259SOL    HW2 3639   4.113   9.714   8.686 -0.1390 -0.0607  0.4205
32260SOL     OW 3640   1.328   1.678  12.208 -0.1720  0.0818 -0.4826
32260SOL    HW1 3641   1.412   1.663  12.165 -0.7492 -3.3747 -0.7509
32260SOL    HW2 3642   1.349   1.689  12.300  0.5877 -1.2058 -0.4827
32261SOL     OW 3643   3.985   5.283   8.378 -0.2332  0.2574  0.1931
32261SOL    HW1 3644   4.014   5.192   8.373  0.2757  0.4097  0.3639
32261SOL    HW2 3645   4.043   5.331   8.319 -2.0076  0.1148 -1.8101
32262SOL     OW 3646   5.648   7.979   5.389  0.4255 -0.1400 -0.0394
32262SOL    HW1 3647   5.674   7.949   5.302 -1.1483  0.6988 -0.8324
32262SOL    HW2 3648   5.552   7.978   5.388  0.2818  2.8878  0.5479
32263SOL     OW 3649   3.572   8.320  11.139 -0.1057 -0.2081 -0.0943
32263SOL    HW1 3650   3.564   8.228  11.114  0.2080 -0.1279 -0.5059
32263SOL    HW2 3651   3.497   8.363  11.098  1.1138  0.1580 -2.0832
32264SOL     OW 3652   9.782   2.814   1.051  0.0438 -0.0423 -0.2411
32264SOL    HW1 3653   9.796   2.868   0.973 -1.5018  0.2931 -0.3185
32264SOL    HW2 3654   9.730   2.740   1.019  0.4471 -0.5472  0.2535
32265SOL     OW 3655   2.489   7.632   7.579  0.1445  0.5154 -0.1038
32265SOL    HW1 3656   2.564   7.574   7.580 -0.2513 -0.0567 -1.4405
32265SOL    HW2 3657   2.493   7.678   7.663  2.6332  1.3674 -0.6151
32266SOL     OW 3658   8.785   9.383   5.583  0.1647  0.2044 -0.1384
32266SOL    HW1 3659   8.755   9.400   5.494  0.2714  2.4659  0.2017
32266SOL    HW2 3660   8.705   9.359   5.631  0.2533 -2.0726 -0.9990
32267SOL     OW 3661   2.012   1.898   1.460 -0.1646 -0.0462 -0.1143
32267SOL    HW1 3662   1.962   1.979   1.454  0.7229  0.4320 -1.4001
32267SOL    HW2 3663   2.069   1.898   1.383  1.5413 -0.7435  1.0744
32268SOL     OW 3664   6.177   3.765   2.075 -0.1411 -0.5802  0.2075
32268SOL    HW1 3665   6.107   3.700   2.081 -0.2289 -0.3545  2.4245
32268SOL    HW2 3666   6.242   3.725   2.017 -0.5430 -2.3187  0.8926
32269SOL     OW 3667   9.205   8.872   9.014 -0.1810 -0.0860 -0.0353
32269SOL    HW1 3668   9.194   8.799   9.074 -0.2805 -0.1129 -0.0855
32269SOL    HW2 3669   9.214   8.831   8.928  2.6481 -0.2361  0.2143
32270SOL     OW 3670  11.190   8.228   5.458 -0.0138 -1.1329  0.3032
32270SOL    HW1 3671  11.115   8.283   5.437  1.1606  0.7365  0.7809
32270SOL    HW2 3672  11.266   8.276   5.425  0.9705 -3.3767 -0.9915
32271SOL     OW 3673   5.621   3.458   9.193  0.1576 -0.7743  0.2232
32271SOL    HW1 3674   5.648   3.419   9.276 -0.5935 -1.0652  0.3414
32271SOL    HW2 3675   5.693   3.516   9.169  0.8626 -1.4897  0.5423
32272SOL     OW 3676   0.361  11.276  10.929  0.4226 -0.6168 -0.1803
32272SOL    HW1 3677   0.375  11.337  10.857  0.8897 -1.1362 -0.5375
32272SOL    HW2 3678   0.268  11.253  10.923  0.1837  0.2268  0.1037
32273SOL     OW 3679  11.248   4.152   4.472 -0.0069  0.0525 -1.0638
32273SOL    HW1 3680  11.323   4.156   4.532 -1.5143  1.0785  0.8838
32273SOL    HW2 3681  11.280   4.191   4.391  1.5099  0.6571 -0.2143
32274SOL     OW 3682   8.681  11.535   4.873  0.1182 -0.2585  0.4779
32274SOL    HW1 3683   8.672  11.460   4.931  1.2827 -1.0249 -0.2968
32274SOL    HW2 3684   8.745  11.592   4.916 -0.0725 -0.1528  0.6211
32275SOL     OW 3685   1.226   3.905  12.179  0.3003  0.5077  0.4735
32275SOL    HW1 3686   1.303   3.960  12.193 -0.3255  1.7120 -0.5976
32275SOL    HW2 3687   1.235   3.874  12.089 -0.0694  0.0094  0.6073
32276SOL     OW 3688   5.482   6.987   2.492  0.0510  0.4761 -0.0604
32276SOL    HW1 3689   5.408   6.950   2.540 -0.1903  0.6040 -0.3325
32276SOL    HW2 3690   5.532   7.034   2.558 -0.3653  0.7808  0.0412
32277SOL     OW 3691   5.799   7.847   6.439  0.5326  0.2030 -0.1345
32277SOL    HW1 3692   5.715   7.885   6.412  1.0842  1.4193 -0.1768
32277SOL    HW2 3693   5.810   7.772   6.380 -0.3420  0.2457 -0.3774
32278SOL     OW 3694   2.866   4.682   0.130 -0.0338 -0.4637 -0.2621
32278SOL    HW1 3695   2.941   4.624   0.140 -0.4640 -0.9988 -0.0980
32278SOL    HW2 3696   2.793   4.634   0.169 -0.4973 -0.0239 -0.5735
32279SOL     OW 3697   9.573   2.419   3.951  0.1963 -0.2955 -0.9061
32279SOL    HW1 3698   9.581   2.455   3.863  2.7047  1.2093 -0.1746
32279SOL    HW2 3699   9.536   2.490   4.003 -0.6550 -0.9470 -0.6144
32280SOL     OW 3700   5.945  11.409   8.499 -0.2047 -0.4884  0.1077
32280SOL    HW1 3701   5.926  11.384   8.408 -2.7358  0.2181  0.3727
32280SOL    HW2 3702   5.919  11.501   8.505  1.5798 -0.0043  1.1412
32281SOL     OW 3703   2.567   4.402  11.085  0.1558 -0.0397 -0.6192
32281SOL    HW1 3704   2.607   4.445  11.160  0.5688  0.3338 -1.0468
32281SOL    HW2 3705   2.562   4.471  11.018 -2.3344  0.2904 -0.1964
32282SOL     OW 3706   5.288   5.590   4.898  0.5730 -0.1400 -0.0513
32282SOL    HW1 3707   5.300   5.523   4.831  0.5581  0.4039 -0.6121
32282SOL    HW2 3708   5.344   5.662   4.870 -2.1519  1.6022 -1.5684
32283SOL     OW 3709   9.098   6.700  11.937  0.2680  0.6396 -0.4672
32283SOL    HW1 3710   9.048   6.619  11.934  1.6628 -0.2266 -2.5096
32283SOL    HW2 3711   9.043   6.763  11.889 -0.8118  0.9785  1.1154
32284SOL     OW 3712   5.291   6.998   7.319 -0.3560 -0.5085  0.0472
32284SOL    HW1 3713   5.380   6.973   7.343 -0.4204 -0.5674  0.2190
32284SOL    HW2 3714   5.236   6.963   7.389 -0.3514  0.9868  0.8245
32285SOL     OW 3715   3.921   2.997  12.402 -0.4829 -0.0340  0.5763
32285SOL    HW1 3716   3.920   3.090  12.382 -0.0883 -0.2913 -0.7333
32285SOL    HW2 3717   3.862   2.988  12.478 -1.4335  1.1104  0.0117
32286SOL     OW 3718   2.557   3.920   6.826  0.0761 -0.0304  0.0155
32286SOL    HW1 3719   2.483   3.976   6.804 -0.2494 -0.4459  0.0398
32286SOL    HW2 3720   2.575   3.939   6.918 -0.9136 -0.9377  0.4305
32287SOL     OW 3721   2.575  10.541   8.361 -0.0800 -0.0294 -0.2899
32287SOL    HW1 3722   2.537  10.460   8.326  2.0551 -1.6223  0.8173
32287SOL    HW2 3723   2.580  10.600   8.286 -0.3591 -1.4512 -1.4711
32288SOL     OW 3724   2.913   3.439   1.156  0.0312  0.1392 -0.0494
32288SOL    HW1 3725   2.904   3.360   1.103 -1.0043  0.9192 -1.0890
32288SOL    HW2 3726   2.835   3.491   1.136  1.4924  2.2052 -0.7383
32289SOL     OW 3727   2.930   1.277   9.340  0.1759 -0.9184 -0.5550
32289SOL    HW1 3728   2.871   1.243   9.407  0.8261  1.6431  1.5304
32289SOL    HW2 3729   2.873   1.325   9.280 -0.0579  0.7955  0.9468
32290SOL     OW 3730   9.970   0.919   3.066  0.0444  0.6087  0.0111
32290SOL    HW1 3731  10.057   0.959   3.069  0.3339  0.1569 -1.7029
32290SOL    HW2 3732   9.974   0.856   2.994 -1.9341  1.1390 -0.6370
32291SOL     OW 3733   8.796   2.770  11.264  0.1920  0.1292 -0.5722
32291SOL    HW1 3734   8.852   2.847  11.259  0.7784 -0.0729  1.6978
32291SOL    HW2 3735   8.834   2.718  11.334 -2.2350 -0.5358  0.3417
32292SOL     OW 3736   4.463   5.303   3.526 -0.0977  0.2096 -0.2677
32292SOL    HW1 3737   4.414   5.284   3.446 -0.7381  1.5715 -0.2366
32292SOL    HW2 3738   4.411   5.264   3.596 -1.0375  1.3836 -0.2670
32293SOL     OW 3739  11.424   5.639  10.479 -0.3586  0.1053  0.2856
32293SOL    HW1 3740  11.343   5.619  10.431 -0.3519  0.7341 -0.0032
32293SOL    HW2 3741  11.486   5.573  10.450 -0.6236 -0.0748  0.1210
32294SOL     OW 3742   2.245   8.791   4.808  0.2593  0.2982 -0.0185
32294SOL    HW1 3743   2.193   8.806   4.729  1.1162  0.9974 -0.4586
32294SOL    HW2 3744   2.267   8.698   4.805  0.4861  0.3681 -0.7297
32295SOL     OW 3745   6.890   6.362  12.285  0.3358  0.2697 -0.0742
32295SOL    HW1 3746   6.894   6.438  12.344 -2.4454 -0.0415  0.6503
32295SOL    HW2 3747   6.847   6.396  12.207  2.6218  0.3005 -1.4069
32296SOL     OW 3748   5.727   9.749   8.509 -0.0027  0.3949  0.3725
32296SOL    HW1 3749   5.738   9.700   8.590 -1.1461  0.6051  0.6656
32296SOL    HW2 3750   5.632   9.753   8.495  0.1716  0.2387 -1.0520
32297SOL     OW 3751  11.831  10.168   5.227  0.6162  0.2370 -0.7556
32297SOL    HW1 3752  11.906  10.148   5.171  0.2802 -0.5538 -0.9377
32297SOL    HW2 3753  11.764  10.106   5.200  0.2517  0.2357  0.1259
32298SOL     OW 3754   7.026   8.235   5.506 -0.1512 -0.3560 -0.6567
32298SOL    HW1 3755   7.012   8.318   5.462 -0.6650  0.1213  0.3738
32298SOL    HW2 3756   7.049   8.174   5.436 -0.7280  0.4248 -1.5510
32299SOL     OW 3757   8.815   0.871   6.143 -0.1443 -0.0116  0.4912
32299SOL    HW1 3758   8.908   0.892   6.149  0.2662 -1.6193  0.2924
32299SOL    HW2 3759   8.771   0.956   6.148  1.2660  0.7009  1.7209
32300SOL     OW 3760   2.286   8.359   0.469  0.3039  0.4062 -0.8356
32300SOL    HW1 3761   2.214   8.412   0.434  0.3470  0.8056 -0.3450
32300SOL    HW2 3762   2.355   8.363   0.403  0.5597  1.5187 -0.5152
32301SOL     OW 3763   0.773   4.707   0.931 -1.1327  0.1091 -0.0578
32301SOL    HW1 3764   0.838   4.738   0.867 -1.2764 -0.7573 -0.6399
32301SOL    HW2 3765   0.823   4.652   0.991 -0.9474  1.1353  0.7546
32302SOL     OW 3766   4.921   1.710   9.147  0.2867 -0.1133 -0.2304
32302SOL    HW1 3767   4.869   1.673   9.076  0.6780 -0.2209 -0.4659
32302SOL    HW2 3768   4.860   1.718   9.221  0.0328 -0.5938 -0.3870
32303SOL     OW 3769   4.950   5.671   6.485  0.2617  0.0695  0.6132
32303SOL    HW1 3770   5.037   5.659   6.525  0.3094  0.1099  0.5223
32303SOL    HW2 3771   4.963   5.739   6.419  0.8130 -1.8073 -1.3611
32304SOL     OW 3772  10.472   9.933  11.840  0.4894 -0.1551 -0.7554
32304SOL    HW1 3773  10.556   9.922  11.795  0.5828  0.2612 -0.6921
32304SOL    HW2 3774  10.409   9.884  11.787  0.7933 -0.5524 -0.7456
32305SOL     OW 3775   9.622  10.696   9.422  0.7617 -0.1111  0.2970
32305SOL    HW1 3776   9.570  10.636   9.369 -0.1895 -0.6669  1.7853
32305SOL    HW2 3777   9.588  10.685   9.511  1.8242  1.2878  0.9188
32306SOL     OW 3778   9.766   5.460   9.599 -0.1620 -0.3394 -0.4371
32306SOL    HW1 3779   9.713   5.389   9.635  1.1773 -0.4086  1.5726
32306SOL    HW2 3780   9.838   5.416   9.554 -0.0446 -0.2671 -0.3219
32307SOL     OW 3781   6.990   3.229   6.738  0.2617  0.3355 -0.1136
32307SOL    HW1 3782   7.005   3.165   6.669 -1.2160  0.7103 -0.8170
32307SOL    HW2 3783   6.924   3.189   6.795 -0.5585  1.1153 -0.4693
32308SOL     OW 3784   1.009  10.575   4.709 -0.1301 -0.1957  0.0010
32308SOL    HW1 3785   0.918  10.546   4.704  0.2246 -1.3090 -0.2231
32308SOL    HW2 3786   1.048  10.520   4.777  0.5110 -0.1189 -0.3000
32309SOL     OW 3787   1.626   4.003   7.451  0.3607 -0.1083 -0.0401
32309SOL    HW1 3788   1.591   3.920   7.484 -0.1329 -0.0160 -0.3223
32309SOL    HW2 3789   1.639   4.056   7.529 -1.2769  0.2904 -0.0021
32310SOL     OW 3790  10.461   7.622   5.467  0.3464 -0.2215 -0.8144
32310SOL    HW1 3791  10.492   7.540   5.506 -0.0330  0.8688  2.0635
32310SOL    HW2 3792  10.538   7.658   5.422  0.2119 -2.6227 -3.2223
32311SOL     OW 3793   5.017  10.707   9.225  0.1308  0.2401 -0.3543
32311SOL    HW1 3794   5.105  10.710   9.262 -0.9121  0.9638  2.3232
32311SOL    HW2 3795   4.981  10.624   9.258 -0.5187  0.4455 -0.5424
32312SOL     OW 3796   0.239   9.299  10.171  1.0511  0.2354 -0.0037
32312SOL    HW1 3797   0.161   9.245  10.184 -1.5151  3.1889 -1.7755
32312SOL    HW2 3798   0.279   9.305  10.258 -0.5252 -1.5920  0.9172
32313SOL     OW 3799   6.922   5.445   5.894 -0.3535 -0.3623  0.4459
32313SOL    HW1 3800   6.926   5.437   5.799  0.4384  0.3331  0.4077
32313SOL    HW2 3801   6.830   5.430   5.916 -0.7178  0.3666 -0.5212
32314SOL     OW 3802  11.695   9.563   7.509 -0.1367 -0.8874  0.1675
32314SOL    HW1 3803  11.785   9.574   7.478 -0.0853  0.5713  0.7197
32314SOL    HW2 3804  11.641   9.579   7.432  0.0632 -0.4514  0.1136
32315SOL     OW 3805   7.832   2.659  11.714  0.1949  1.2064 -0.5465
32315SOL    HW1 3806   7.921   2.683  11.688  0.7780  0.2550  0.5084
32315SOL    HW2 3807   7.824   2.567  11.690  0.5079  0.4918  1.8974
32316SOL     OW 3808   4.229   8.054   1.246 -0.6755  0.4579 -0.3449
32316SOL    HW1 3809   4.260   8.123   1.305 -1.2965 -0.2487  0.8746
32316SOL    HW2 3810   4.273   7.975   1.276  0.1743  0.3304 -1.8506
32317SOL     OW 3811  12.323   0.478  12.095 -0.2710 -0.1108 -0.4221
32317SOL    HW1 3812  12.331   0.571  12.074 -2.6116 -0.0809 -1.4696
32317SOL    HW2 3813  12.229   0.465  12.112  0.3005 -1.8596  1.9716
32318SOL     OW 3814   3.445  10.728   8.542 -0.5996  0.2589  0.3381
32318SOL    HW1 3815   3.529  10.762   8.575 -1.3462 -0.5892  3.3899
32318SOL    HW2 3816   3.385  10.802   8.548 -1.0005 -0.1775  2.0685
32319SOL     OW 3817  10.019   7.411   3.580  0.2013 -0.2884 -0.6249
32319SOL    HW1 3818   9.987   7.422   3.490  1.8615  0.5648 -1.1613
32319SOL    HW2 3819   9.960   7.465   3.632 -0.6224 -0.5780 -1.2264
32320SOL     OW 3820   8.535   6.786   2.885  0.1823  0.4105  0.0785
32320SOL    HW1 3821   8.549   6.881   2.890  1.1610  0.2575  0.3093
32320SOL    HW2 3822   8.602   6.749   2.942 -0.3036 -0.4231  0.1262
32321SOL     OW 3823   2.958   9.393  12.400  0.2331  0.4966 -0.5071
32321SOL    HW1 3824   3.024   9.415  12.335 -0.3676 -1.0386 -1.6899
32321SOL    HW2 3825   2.875   9.399  12.352 -0.5071  2.1181  0.8708
32322SOL     OW 3826   0.765   5.828  10.905  0.7946 -0.1884  0.4316
32322SOL    HW1 3827   0.829   5.878  10.854  1.2123 -0.7003  0.4410
32322SOL    HW2 3828   0.680   5.854  10.869  1.0741 -0.4648 -0.4721
32323SOL     OW 3829   0.553   2.045   1.607 -0.0830  0.4429 -0.0254
32323SOL    HW1 3830   0.551   2.135   1.638 -0.4540  0.1754  0.7579
32323SOL    HW2 3831   0.646   2.023   1.603 -0.0124  0.6549  0.3960
32324SOL     OW 3832   7.487  11.902   3.067  0.2204 -0.3317 -0.0966
32324SOL    HW1 3833   7.519  11.970   3.127  1.0888  0.2660 -1.1986
32324SOL    HW2 3834   7.402  11.933   3.037  0.3522 -0.0139 -0.1409
32325SOL     OW 3835   9.449   3.088   1.473 -0.2015 -0.1153  0.1812
32325SOL    HW1 3836   9.355   3.077   1.484  0.0118 -0.7175  1.7471
32325SOL    HW2 3837   9.486   3.002   1.494  0.6682 -0.0471 -0.9679
32326SOL     OW 3838   0.579   6.635   3.359  0.1754 -0.0565 -0.3460
32326SOL    HW1 3839   0.508   6.684   3.318 -0.4136  1.7037  2.5088
32326SOL    HW2 3840   0.652   6.697   3.362  0.4471 -0.4008  0.4985
32327SOL     OW 3841   3.786   0.856   1.429  0.6395  0.3744  0.3685
32327SOL    HW1 3842   3.697   0.822   1.440 -0.4657  1.7184 -3.1774
32327SOL    HW2 3843   3.793   0.925   1.495 -0.5870 -0.3394  1.2998
32328SOL     OW 3844   9.304   6.556   1.577  0.0778 -0.1580 -0.2709
32328SOL    HW1 3845   9.279   6.644   1.550  0.8093  0.8069  2.0216
32328SOL    HW2 3846   9.328   6.564   1.669  0.5667 -2.6839 -0.0979
32329SOL     OW 3847   6.499   3.660  10.672 -0.9553 -0.1645 -0.1484
32329SOL    HW1 3848   6.491   3.703  10.757  2.7610 -2.2864  1.5212
32329SOL    HW2 3849   6.550   3.721  10.619  2.5042 -1.3668  1.5216
32330SOL     OW 3850   7.816   6.562   8.013  0.2266 -0.5326  0.3875
32330SOL    HW1 3851   7.747   6.513   7.968  0.0911  0.9201 -1.1058
32330SOL    HW2 3852   7.847   6.503   8.082 -0.7172 -2.2205 -0.5621
32331SOL     OW 3853   2.858   1.337   2.356  0.4698  0.4480  0.1919
32331SOL    HW1 3854   2.888   1.426   2.338  2.5138 -0.5193 -1.5567
32331SOL    HW2 3855   2.921   1.280   2.312  0.1618 -1.9544  2.5524
32332SOL     OW 3856   9.804   0.540   2.519  0.0519 -0.4708  0.1509
32332SOL    HW1 3857   9.813   0.444   2.520  2.8392 -0.2943  0.8086
32332SOL    HW2 3858   9.851   0.567   2.440  1.7863  0.4507  1.4205
32333SOL     OW 3859  10.899   3.298   9.797 -0.1992  0.1017  0.0221
32333SOL    HW1 3860  10.948   3.284   9.878  0.9612  1.0702 -0.4648
32333SOL    HW2 3861  10.961   3.275   9.728 -0.9121  0.0142 -0.6032
32334SOL     OW 3862   8.539   1.814   5.934  0.0693 -0.2812 -0.2379
32334SOL    HW1 3863   8.612   1.768   5.893 -0.9856 -1.1751 -1.1902
32334SOL    HW2 3864   8.474   1.745   5.952 -1.4977  0.7721 -1.5410
32335SOL     OW 3865  11.452   8.752   3.110  0.3717  0.1850 -0.1710
32335SOL    HW1 3866  11.383   8.813   3.135  0.9104  0.6282  0.2649
32335SOL    HW2 3867  11.406   8.677   3.072 -0.2727  1.3135 -1.7375
32336SOL     OW 3868  11.345   7.069  10.846 -0.6532  0.3794  0.4135
32336SOL    HW1 3869  11.323   7.161  10.861  0.4142  0.9432 -1.1938
32336SOL    HW2 3870  11.267   7.033  10.802 -0.1657  1.2014 -1.2099
32337SOL     OW 3871  11.915  10.036  10.101  0.5848 -0.2719  0.1218
32337SOL    HW1 3872  11.986  10.054  10.163  0.8583  0.2448 -0.3368
32337SOL    HW2 3873  11.922   9.942  10.082  1.8546 -0.0130 -0.7876
32338SOL     OW 3874   2.343   6.479   7.691 -0.5932 -0.0349 -0.1454
32338SOL    HW1 3875   2.331   6.488   7.596 -2.3808  1.4269  0.1511
32338SOL    HW2 3876   2.431   6.512   7.707 -0.5693  0.4745 -1.2257
32339SOL     OW 3877   2.390  10.296   6.641  0.0655 -0.3273  1.1316
32339SOL    HW1 3878   2.472  10.295   6.690  1.7012 -0.1298 -1.4192
32339SOL    HW2 3879   2.364  10.388   6.640 -0.0227 -0.3420  1.6493
32340SOL     OW 3880   2.603   0.785   2.262  0.0228  0.2244  0.5943
32340SOL    HW1 3881   2.528   0.839   2.237 -0.9441 -0.8388  1.1294
32340SOL    HW2 3882   2.644   0.833   2.334  0.0608  0.9624  0.0992
32341SOL     OW 3883  12.433  10.879  12.297  0.0267  0.0125  0.2700
32341SOL    HW1 3884  12.449  10.922  12.381  0.5974 -0.5975  0.4815
32341SOL    HW2 3885  12.439  10.949  12.232 -1.6095  0.7208  0.8264
32342SOL     OW 3886   4.796   6.452   8.891 -0.0523 -0.0336 -0.3058
32342SOL    HW1 3887   4.824   6.388   8.826 -0.0402 -0.2169 -0.1214
32342SOL    HW2 3888   4.800   6.405   8.974  3.2004  1.1038  0.3401
32343SOL     OW 3889   7.310   4.428   3.301 -0.4866 -0.2164 -0.7880
32343SOL    HW1 3890   7.365   4.350   3.303  1.5059  1.1343  0.0820
32343SOL    HW2 3891   7.280   4.440   3.391  1.2215  1.3024 -0.3619
32344SOL     OW 3892   6.255   4.372   3.236 -0.1496  0.0250  0.0708
32344SOL    HW1 3893   6.340   4.394   3.197  0.6639  2.1862  2.7783
32344SOL    HW2 3894   6.267   4.282   3.269  1.0839  0.2558  0.3341
32345SOL     OW 3895   9.216   6.148  11.489  0.3836 -0.2381 -0.0501
32345SOL    HW1 3896   9.259   6.134  11.573  1.6065 -2.6118 -0.9689
32345SOL    HW2 3897   9.202   6.059  11.455 -2.3573  0.5637 -1.2667
32346SOL     OW 3898  10.993  11.450   3.057  0.5973 -0.5426  0.2491
32346SOL    HW1 3899  11.025  11.430   2.969  0.1861 -1.1905  0.2377
32346SOL    HW2 3900  11.046  11.524   3.086  0.4064 -0.0101 -0.7296
32347SOL     OW 3901  11.498   9.601   1.991 -0.6430  0.1718 -0.0497
32347SOL    HW1 3902  11.540   9.564   1.913  0.1638  0.6559  0.1511
32347SOL    HW2 3903  11.495   9.695   1.975 -4.2472 -0.0126 -1.3275
32348SOL     OW 3904  12.010   2.237   9.330  0.3813 -0.1966  0.7371
32348SOL    HW1 3905  12.017   2.153   9.284 -1.4364  1.0513 -2.0915
32348SOL    HW2 3906  11.918   2.243   9.355  0.2886  1.2758  0.1451
32349SOL     OW 3907   7.425   7.294  12.007 -0.5279  0.2349  0.0827
32349SOL    HW1 3908   7.493   7.312  11.941  0.0676 -1.0325  0.3166
32349SOL    HW2 3909   7.369   7.229  11.965 -1.0238  0.5373  0.2751
32350SOL     OW 3910   8.967   1.738   4.523 -0.1947 -0.3489  0.4117
32350SOL    HW1 3911   9.034   1.805   4.514 -0.8826  0.3340  0.3129
32350SOL    HW2 3912   8.997   1.667   4.465  0.8872 -0.4393  1.0502
32351SOL     OW 3913   2.514   4.125   1.744 -0.2529  0.3953  0.4976
32351SOL    HW1 3914   2.523   4.114   1.649 -0.6263 -1.3659  0.6302
32351SOL    HW2 3915   2.583   4.186   1.768  0.5629  0.0028 -0.7596
32352SOL     OW 3916   1.822   2.650   1.668  0.6694 -0.2054  0.3197
32352SOL    HW1 3917   1.745   2.596   1.687  1.4638 -1.0816  1.0991
32352SOL    HW2 3918   1.838   2.636   1.575  0.0764 -0.2474  0.2163
32353SOL     OW 3919   3.464   4.854  11.877  0.2707  0.0865  0.1955
32353SOL    HW1 3920   3.435   4.905  11.953  0.1176 -0.2321  0.3510
32353SOL    HW2 3921   3.387   4.846  11.822  0.0712 -0.6835  0.5665
32354SOL     OW 3922   1.697   5.785   8.620 -0.1899  0.6578  0.1220
32354SOL    HW1 3923   1.650   5.851   8.570  1.8294  1.0749 -1.3234
32354SOL    HW2 3924   1.717   5.827   8.703 -0.3879  1.2621 -0.1357
32355SOL     OW 3925   0.149  11.378  11.340 -0.5556 -0.1526  0.1446
32355SOL    HW1 3926   0.138  11.320  11.415 -1.2254 -0.0833  0.1048
32355SOL    HW2 3927   0.087  11.345  11.274 -0.7123  0.4057  0.0034
32356SOL     OW 3928   8.621   6.264   9.154 -0.1574 -0.2568  0.1814
32356SOL    HW1 3929   8.644   6.178   9.121 -0.5419  0.2449 -1.4853
32356SOL    HW2 3930   8.530   6.276   9.127 -0.1416  0.6217  0.4919
32357SOL     OW 3931   4.419   0.113  11.870 -0.2181 -0.0128  0.2728
32357SOL    HW1 3932   4.442   0.141  11.781 -1.5242  2.6664  0.6773
32357SOL    HW2 3933   4.359   0.039  11.857  0.8678 -0.7302 -0.9785
32358SOL     OW 3934   3.044   1.136  12.412 -0.2351 -0.3796  0.5009
32358SOL    HW1 3935   3.084   1.121  12.497 -1.3958 -0.7166  1.0108
32358SOL    HW2 3936   3.056   1.054  12.365 -3.7446 -2.0406  2.1194
32359SOL     OW 3937  11.531   7.620  11.857 -0.3505 -0.3907 -0.1554
32359SOL    HW1 3938  11.577   7.681  11.915 -1.1705  2.9649 -2.7387
32359SOL    HW2 3939  11.602   7.574  11.810  0.3016 -0.2482  0.6621
32360SOL     OW 3940   4.257   6.580   1.758 -0.7594  0.0103 -0.6856
32360SOL    HW1 3941   4.223   6.497   1.725 -1.3894  1.3316 -3.6604
32360SOL    HW2 3942   4.352   6.572   1.751 -0.6734 -1.1401  1.0475
32361SOL     OW 3943   8.141  11.555  12.089  0.0347  0.1128  0.4367
32361SOL    HW1 3944   8.098  11.631  12.128  0.7383  0.1193  1.2303
32361SOL    HW2 3945   8.234  11.570  12.103  0.1254 -1.9014  2.6065
32362SOL     OW 3946   3.451   7.519   9.810  0.2419  0.3642  0.0215
32362SOL    HW1 3947   3.457   7.555   9.722  2.0618  0.1394  0.0192
32362SOL    HW2 3948   3.405   7.586   9.860  1.8801  1.9163 -0.4309
32363SOL     OW 3949   2.000   9.840   2.355 -0.2444 -0.6181 -0.2467
32363SOL    HW1 3950   2.023   9.786   2.279  0.9267 -0.3111 -0.1289
32363SOL    HW2 3951   1.931   9.898   2.323 -1.2183 -1.8579 -0.5015
32364SOL     OW 3952   8.820  11.421   4.444  0.0626  0.0223  0.1804
32364SOL    HW1 3953   8.881  11.494   4.431  1.2876 -1.0377 -0.2307
32364SOL    HW2 3954   8.762  11.425   4.368  0.3757  0.3430 -0.0466
32365SOL     OW 3955   8.184   7.891   0.085  0.2728  0.2598 -0.0181
32365SOL    HW1 3956   8.141   7.973   0.106  1.3143  1.5083 -2.3372
32365SOL    HW2 3957   8.134   7.824   0.132  0.0928  2.2625  2.8846
32366SOL     OW 3958   4.915   8.362   8.310 -0.2041  0.0745 -0.2844
32366SOL    HW1 3959   5.009   8.349   8.322 -0.2846 -0.1604  0.0992
32366SOL    HW2 3960   4.894   8.312   8.231 -0.5083 -2.2601  1.1642
32367SOL     OW 3961   6.126   5.237   8.660  0.0951 -0.9234  0.1029
32367SOL    HW1 3962   6.092   5.243   8.749  0.8626 -1.9404  0.4762
32367SOL    HW2 3963   6.055   5.270   8.605 -0.1024  0.4642  1.1263
32368SOL     OW 3964  10.689  12.286  11.835 -0.2464 -0.1480 -0.2128
32368SOL    HW1 3965  10.707  12.327  11.919  2.5515 -1.1368 -0.2324
32368SOL    HW2 3966  10.638  12.208  11.857  1.6336 -1.1622  0.8156
32369SOL     OW 3967   9.199   3.457   6.382 -0.8142  0.3607  0.1170
32369SOL    HW1 3968   9.210   3.379   6.436 -1.2300 -0.3190 -0.7518
32369SOL    HW2 3969   9.260   3.520   6.418  0.4368 -0.7826  0.0799
32370SOL     OW 3970   6.691   1.144   5.343  0.3278 -0.2351 -0.1879
32370SOL    HW1 3971   6.673   1.099   5.425 -0.5960  0.9215  0.2667
32370SOL    HW2 3972   6.661   1.233   5.357 -0.0612 -0.0697 -1.8661
32371SOL     OW 3973   8.638   4.904   9.055  0.2242  0.2087 -0.2527
32371SOL    HW1 3974   8.614   4.907   8.962  1.6767  0.5323 -0.6525
32371SOL    HW2 3975   8.668   4.815   9.070 -0.7693 -0.0739  0.1316
32372SOL     OW 3976   3.809   5.259   1.534  0.0473 -0.3191  0.3250
32372SOL    HW1 3977   3.892   5.219   1.560  1.4497  1.7071 -0.7486
32372SOL    HW2 3978   3.820   5.278   1.441 -1.1029  1.1570  0.4445
32373SOL     OW 3979   6.290   2.292   0.018 -0.0919 -0.5259 -0.3925
32373SOL    HW1 3980   6.355   2.347   0.063 -2.0478  1.0429  0.6601
32373SOL    HW2 3981   6.269   2.340  -0.062 -0.3703 -0.7339 -0.4460
32374SOL     OW 3982   1.428   1.239  11.081 -0.8687  0.7437  0.4951
32374SOL    HW1 3983   1.372   1.174  11.040  1.9068 -1.0837 -0.7256
32374SOL    HW2 3984   1.507   1.240  11.027  1.5042  0.9166  3.6684
32375SOL     OW 3985   8.024  12.120  12.074  0.2613  0.5235 -0.4354
32375SOL    HW1 3986   8.021  12.178  11.998 -1.7969  0.5265 -0.4175
32375SOL    HW2 3987   8.037  12.178  12.148  0.0688  0.7636 -0.5892
32376SOL     OW 3988   7.107  11.510   0.973  0.3682  0.5676 -0.6037
32376SOL    HW1 3989   7.060  11.510   0.890  1.3522 -0.4405 -1.1883
32376SOL    HW2 3990   7.045  11.471   1.036 -0.5780  1.8352 -0.7121
32377SOL     OW 3991   8.101   1.139   4.144 -0.1272 -0.0388 -0.5658
32377SOL    HW1 3992   8.045   1.200   4.096  0.2820 -1.2133 -2.6686
32377SOL    HW2 3993   8.190   1.163   4.118  0.1248 -0.5467 -0.1797
32378SOL     OW 3994  11.958   1.761   0.037  0.4970 -0.0306  0.6033
32378SOL    HW1 3995  11.992   1.750  -0.052  0.5659  0.5909  0.5447
32378SOL    HW2 3996  11.945   1.672   0.070 -0.8565 -0.2722 -0.5205
32379SOL     OW 3997   0.353   7.072  10.204  0.2294 -0.3999 -0.2473
32379SOL    HW1 3998   0.367   7.100  10.294  0.9258 -1.7273  0.0935
32379SOL    HW2 3999   0.259   7.057  10.197  0.2657 -1.0617  0.5229
32380SOL     OW 4000   2.494   5.221   1.336  0.2749  0.3818  0.0184
32380SOL    HW1 4001   2.431   5.293   1.328 -1.7592 -1.0548  2.0564
32380SOL    HW2 4002   2.537   5.218   1.250 -2.7648  1.1406 -1.7023
32381SOL     OW 4003   8.844  12.022   8.263 -0.4670  0.3523 -0.1553
32381SOL    HW1 4004   8.798  11.951   8.308 -0.7257  0.9473  0.5543
32381SOL    HW2 4005   8.882  12.074   8.334 -3.2005  2.9099 -0.3711
32382SOL     OW 4006   3.556   2.521   3.748  0.4978 -0.1373 -0.4579
32382SOL    HW1 4007   3.509   2.555   3.671 -0.1277 -1.5981 -0.7540
32382SOL    HW2 4008   3.645   2.507   3.718  0.4774  0.1509 -0.6555
32383SOL     OW 4009   1.102   7.373  11.603 -0.4309 -0.7493  0.0153
32383SOL    HW1 4010   1.047   7.338  11.674 -1.1349  0.8682  0.3198
32383SOL    HW2 4011   1.045   7.435  11.557  0.5868 -0.4058 -0.8288
32384SOL     OW 4012   6.675   8.080  11.465  0.4642 -0.4380 -0.2163
32384SOL    HW1 4013   6.721   8.010  11.510 -1.0422  0.1665  2.4908
32384SOL    HW2 4014   6.613   8.035  11.408 -0.2182 -1.3416  1.1890
32385SOL     OW 4015   5.152  12.299   6.598  0.4357  0.2971 -0.5629
32385SOL    HW1 4016   5.160  12.204   6.606  0.2729  0.3288  0.0078
32385SOL    HW2 4017   5.197  12.333   6.676 -1.4428  0.6160  0.4434
32386SOL     OW 4018   7.301   2.732  11.141  0.5168 -0.0618  0.0053
32386SOL    HW1 4019   7.380   2.785  11.148  1.2137 -0.5298 -2.9401
32386SOL    HW2 4020   7.333   2.643  11.126 -0.4987 -0.2515 -1.2800
32387SOL     OW 4021   1.405  11.497  10.590 -0.1773 -0.8388 -0.4737
32387SOL    HW1 4022   1.388  11.584  10.625 -0.6752 -0.9571 -0.4076
32387SOL    HW2 4023   1.339  11.486  10.521  0.9306 -0.5288 -1.6021
32388SOL     OW 4024   6.213  11.846   3.486 -0.5703  0.4285 -0.3735
32388SOL    HW1 4025   6.211  11.900   3.565 -4.5547 -1.4615  1.0556
32388SOL    HW2 4026   6.179  11.903   3.417 -3.6849  0.2594  0.8868
32389SOL     OW 4027   6.250   0.423   9.722  0.4271 -0.3401 -0.0576
32389SOL    HW1 4028   6.181   0.486   9.742  0.4603  0.5142 -2.3166
32389SOL    HW2 4029   6.310   0.428   9.796 -0.5787  0.8324  0.7118
32390SOL     OW 4030   6.960   0.797  11.917 -0.6088 -0.0589  0.0320
32390SOL    HW1 4031   7.002   0.736  11.977 -0.1123 -0.7815 -1.0239
32390SOL    HW2 4032   7.022   0.807  11.845 -1.4000  0.3977 -0.6082
32391SOL     OW 4033  10.894   6.117   6.332  0.2226  0.7371 -0.1517
32391SOL    HW1 4034  10.827   6.054   6.359  0.1949  1.4909  1.6961
32391SOL    HW2 4035  10.971   6.063   6.313 -0.5795 -0.0517 -1.3068
32392SOL     OW 4036   5.965   6.095   9.690  0.0757 -0.0917 -0.4080
32392SOL    HW1 4037   5.989   6.165   9.629 -0.3127  0.8527  0.5080
32392SOL    HW2 4038   5.872   6.079   9.673  0.2572 -0.6724 -0.8887
32393SOL     OW 4039   2.846  11.624   7.995  0.0565  0.2859 -0.0551
32393SOL    HW1 4040   2.914  11.576   7.947 -1.1183 -0.3949 -1.0688
32393SOL    HW2 4041   2.831  11.572   8.074  1.1343  0.7723  0.4954
32394SOL     OW 4042   3.666   6.505   7.389 -0.0318  0.5180  0.3754
32394SOL    HW1 4043   3.709   6.441   7.446  3.5870  1.6428 -0.8655
32394SOL    HW2 4044   3.644   6.455   7.310  1.6622  0.4792 -0.1039
32395SOL     OW 4045  11.625   1.702   0.632 -0.1959 -0.4659 -0.6747
32395SOL    HW1 4046  11.548   1.648   0.647  1.4262 -2.6889  0.2773
32395SOL    HW2 4047  11.654   1.678   0.544 -1.4136  1.5941 -1.7256
32396SOL     OW 4048   5.480  10.866   2.901 -0.3286 -0.0669  0.8329
32396SOL    HW1 4049   5.567  10.840   2.871  0.1425  0.0886  1.9879
32396SOL    HW2 4050   5.425  10.789   2.888  0.1957 -0.4525  0.8938
32397SOL     OW 4051   1.959   6.577   5.321 -0.4046  0.3971 -0.4654
32397SOL    HW1 4052   1.997   6.503   5.274 -0.2882  1.8261 -2.7976
32397SOL    HW2 4053   1.938   6.543   5.407  1.4060 -1.8125 -0.8112
32398SOL     OW 4054   6.511   0.808  11.307 -0.3975 -0.1535  0.1812
32398SOL    HW1 4055   6.516   0.882  11.246 -0.7335  0.7929  1.2681
32398SOL    HW2 4056   6.444   0.833  11.370 -0.6058 -1.4529  0.5055
32399SOL     OW 4057   3.664   6.407   1.572  0.4107  0.2007  0.0214
32399SOL    HW1 4058   3.719   6.335   1.604 -0.9518 -0.9945 -0.2099
32399SOL    HW2 4059   3.630   6.376   1.488  0.0594  1.2549 -0.2375
32400SOL     OW 4060   1.832  10.407  12.108  0.3008  0.0728  0.4199
32400SOL    HW1 4061   1.826  10.501  12.125  1.3490  0.8702 -2.8349
32400SOL    HW2 4062   1.926  10.390  12.100  0.0783 -1.0409 -0.0156
32401SOL     OW 4063   5.982   2.547   5.649 -0.2408 -0.0172  0.3003
32401SOL    HW1 4064   5.973   2.532   5.555  1.5885 -0.2792  0.1323
32401SOL    HW2 4065   6.060   2.496   5.674  0.3651  1.4763  1.6051
32402SOL     OW 4066   3.686   7.452   8.958 -0.3188  0.1625 -0.0075
32402SOL    HW1 4067   3.629   7.458   9.034 -1.0377  0.3994 -0.5596
32402SOL    HW2 4068   3.627   7.459   8.883  0.1820 -1.6001 -0.6224
32403SOL     OW 4069   8.389   9.982   4.911  0.0477 -0.1307 -0.3556
32403SOL    HW1 4070   8.315   9.929   4.883 -1.1816  1.6011 -0.4901
32403SOL    HW2 4071   8.414   9.944   4.996 -0.4352 -1.2421 -0.6825
32404SOL     OW 4072   9.588   6.778   2.313  0.3127 -0.3258  0.9223
32404SOL    HW1 4073   9.615   6.870   2.315 -1.2927  0.2320 -0.5498
32404SOL    HW2 4074   9.495   6.780   2.336 -0.0219 -1.4422 -0.2588
32405SOL     OW 4075   1.347  11.123   0.792  0.2363  0.0529 -0.0215
32405SOL    HW1 4076   1.391  11.176   0.725  1.9562  0.0460  1.0606
32405SOL    HW2 4077   1.400  11.044   0.799  0.0790  0.0513  1.3543
32406SOL     OW 4078   9.515   2.602  11.797 -0.4729  0.5656 -0.4742
32406SOL    HW1 4079   9.489   2.532  11.857 -0.3789  1.2246  0.3494
32406SOL    HW2 4080   9.479   2.682  11.836  1.0938  1.2420 -0.3616
32407SOL     OW 4081   8.206   5.907   2.253  0.2484  1.1442 -0.5530
32407SOL    HW1 4082   8.225   5.818   2.223 -1.8903  0.2061  0.6367
32407SOL    HW2 4083   8.210   5.961   2.174 -1.6107 -0.5746 -1.9067
32408SOL     OW 4084   6.683   6.787   8.543  0.0475 -0.1295  0.4797
32408SOL    HW1 4085   6.620   6.790   8.615 -0.4082 -0.1218  0.0889
32408SOL    HW2 4086   6.743   6.860   8.560  0.4322 -0.6264  1.2817
32409SOL     OW 4087   0.430  10.339   7.348  0.2208  0.3434  0.0824
32409SOL    HW1 4088   0.480  10.413   7.383 -0.2264  0.1389  1.2059
32409SOL    HW2 4089   0.449  10.266   7.407 -0.2366 -0.1323 -0.3405
32410SOL     OW 4090   9.848   6.590  10.042 -0.2310  0.0473 -0.1591
32410SOL    HW1 4091   9.835   6.609  10.135  0.8066  0.3342 -0.0619
32410SOL    HW2 4092   9.791   6.516  10.024 -1.2578  0.6632  0.4485
32411SOL     OW 4093   0.676  10.237   4.012  0.4259 -0.3456  0.3943
32411SOL    HW1 4094   0.582  10.251   4.000  0.3961  0.0296  1.0066
32411SOL    HW2 4095   0.705  10.315   4.060  1.1466 -0.2124 -0.2497
32412SOL     OW 4096   3.971  11.123   0.263 -0.6083 -0.0543 -0.0849
32412SOL    HW1 4097   3.920  11.087   0.190  0.9653 -1.9081 -0.3590
32412SOL    HW2 4098   4.007  11.046   0.306  0.8841  1.1469  0.8938
32413SOL     OW 4099   4.021   8.460  11.437  0.0751 -0.5501  0.0900
32413SOL    HW1 4100   4.019   8.407  11.357 -0.2204 -0.5709  0.1084
32413SOL    HW2 4101   3.990   8.546  11.409 -0.0914 -0.5759  0.1931
32414SOL     OW 4102   2.113   9.308   4.499  0.5273 -0.6763 -0.1801
32414SOL    HW1 4103   2.032   9.356   4.485 -0.5313 -1.6111  2.2267
32414SOL    HW2 4104   2.086   9.226   4.541  2.7204 -0.6872  1.4024
32415SOL     OW 4105   4.320   9.308   2.165 -0.0585  0.6253 -0.7559
32415SOL    HW1 4106   4.394   9.291   2.107  1.1215 -0.8808  1.0678
32415SOL    HW2 4107   4.252   9.345   2.108  1.1743 -0.3457 -2.9738
32416SOL     OW 4108   1.132  10.956   9.658  0.0465  0.5138 -0.3553
32416SOL    HW1 4109   1.063  10.938   9.721  0.0868  1.0580 -0.1544
32416SOL    HW2 4110   1.179  11.031   9.694  0.5736  0.3176 -0.6262
32417SOL     OW 4111   4.301  11.107   2.496 -0.5814 -0.6032 -0.6895
32417SOL    HW1 4112   4.308  11.052   2.574  0.8773  0.4997 -0.0008
32417SOL    HW2 4113   4.387  11.101   2.454 -0.1196  1.6621 -0.2002
32418SOL     OW 4114   8.370   0.621   8.065  0.1448 -0.2116 -0.6587
32418SOL    HW1 4115   8.304   0.690   8.069  0.2657  0.0874 -2.8922
32418SOL    HW2 4116   8.400   0.612   8.156 -0.4460  2.0998 -0.1746
32419SOL     OW 4117   5.864   9.075   6.100  0.0026 -0.2560  0.2559
32419SOL    HW1 4118   5.937   9.063   6.160  0.7351  1.1377 -0.3023
32419SOL    HW2 4119   5.864   9.169   6.081 -0.8353 -0.4997 -1.1360
32420SOL     OW 4120   4.113  11.368   7.344 -0.5403  0.6956  0.3553
32420SOL    HW1 4121   4.077  11.367   7.255  2.8025  1.8372 -1.1621
32420SOL    HW2 4122   4.149  11.281   7.356  1.3228  1.3029 -0.5312
32421SOL     OW 4123   4.611   7.637  10.505 -0.1872 -0.1991 -0.4461
32421SOL    HW1 4124   4.654   7.552  10.491  0.2070 -0.0208 -0.3445
32421SOL    HW2 4125   4.561   7.653  10.425 -1.1972 -1.0612 -0.0182
32422SOL     OW 4126  11.074   9.912  11.561 -0.3348 -0.1162 -0.1970
32422SOL    HW1 4127  11.010   9.983  11.570  0.2249  0.5451 -1.2555
32422SOL    HW2 4128  11.144   9.949  11.507  1.4574 -0.4844  1.7565
32423SOL     OW 4129   2.532   4.094   7.623 -0.5182  0.0038 -0.1334
32423SOL    HW1 4130   2.528   4.190   7.624 -1.2946  0.0212  2.7574
32423SOL    HW2 4131   2.625   4.074   7.634 -0.2937  0.3744 -1.1845
32424SOL     OW 4132   3.732   4.138   9.952 -0.0859 -0.1600 -0.0158
32424SOL    HW1 4133   3.762   4.109  10.038  0.5226 -1.0238 -0.5022
32424SOL    HW2 4134   3.746   4.233   9.952  1.4582 -0.3597  0.2585
32425SOL     OW 4135   9.350   2.481   9.062  0.7223  0.3368 -0.1487
32425SOL    HW1 4136   9.350   2.551   8.997 -0.3393  1.4533  0.9857
32425SOL    HW2 4137   9.257   2.467   9.082  1.0477  0.7484  1.8298
32426SOL     OW 4138   2.530   7.670   9.244  0.2516  0.3645  0.0559
32426SOL    HW1 4139   2.623   7.649   9.255  0.5787  1.6442 -0.1310
32426SOL    HW2 4140   2.501   7.696   9.331  0.1637  0.3449  0.0329
32427SOL     OW 4141   9.310   2.192   4.865  0.5402  1.0963 -0.1418
32427SOL    HW1 4142   9.246   2.125   4.842  0.4874  1.2109 -0.3296
32427SOL    HW2 4143   9.257   2.266   4.895  0.6171  0.7740  0.8345
32428SOL     OW 4144   7.362   0.142   5.948  0.0089 -0.5205 -0.3586
32428SOL    HW1 4145   7.456   0.154   5.967  0.0500 -0.7715 -0.3957
32428SOL    HW2 4146   7.340   0.213   5.889 -0.1171  0.2726  0.6076
32429SOL     OW 4147   8.335   8.890   3.637 -0.1004  0.1515 -0.4323
32429SOL    HW1 4148   8.399   8.878   3.568  0.9132 -1.6191  0.7464
32429SOL    HW2 4149   8.266   8.826   3.618 -1.4559  1.8500 -1.5355
32430SOL     OW 4150   9.918   1.975   8.738 -0.1928  0.4657  1.1469
32430SOL    HW1 4151   9.988   1.972   8.802 -0.2645  1.1347  1.2672
32430SOL    HW2 4152   9.902   2.069   8.724  0.4913  0.3638 -0.5769
32431SOL     OW 4153   6.208   8.220  11.694  0.2219 -0.3782 -0.1603
32431SOL    HW1 4154   6.291   8.255  11.727 -0.1996  0.8113 -0.2980
32431SOL    HW2 4155   6.145   8.291  11.708 -0.6416 -1.0347 -0.6165
32432SOL     OW 4156   4.449   6.237  11.612 -0.2874 -0.7974  0.3048
32432SOL    HW1 4157   4.437   6.142  11.609  0.6484 -0.9058 -0.4578
32432SOL    HW2 4158   4.528   6.253  11.560  0.1412  0.2980  1.2477
32433SOL     OW 4159   5.606   2.997   9.847  0.5084 -0.8214  0.3819
32433SOL    HW1 4160   5.617   2.907   9.816  1.4555 -0.9868  1.1369
32433SOL    HW2 4161   5.672   3.006   9.915 -0.3436  0.0900  1.1059
32434SOL     OW 4162   4.207   9.610   2.709  0.4779 -0.5406 -0.3079
32434SOL    HW1 4163   4.190   9.581   2.799  0.2941  1.0441  0.2048
32434SOL    HW2 4164   4.302   9.603   2.700  0.5694 -0.1590  0.2392
32435SOL     OW 4165  12.115   5.315   4.126  0.8311 -1.0991 -0.7177
32435SOL    HW1 4166  12.094   5.393   4.177 -0.6185 -1.1163 -1.2226
32435SOL    HW2 4167  12.210   5.312   4.123  0.9217  0.8863 -1.0283
32436SOL     OW 4168   0.842   2.206   2.078  0.2390  0.1769 -0.6269
32436SOL    HW1 4169   0.760   2.207   2.128 -0.7586  3.3671 -2.0097
32436SOL    HW2 4170   0.903   2.257   2.131  0.2316  0.6985 -1.1124
32437SOL     OW 4171  10.022   9.766   1.825 -0.0180 -0.3074 -0.0112
32437SOL    HW1 4172  10.079   9.842   1.817  1.4428 -1.0797  2.1774
32437SOL    HW2 4173  10.070   9.694   1.784  0.8182 -1.0215  2.0700
32438SOL     OW 4174   7.686  10.265   1.116 -0.7425  0.0212 -0.2271
32438SOL    HW1 4175   7.746  10.195   1.093 -0.9395 -1.1430  2.3937
32438SOL    HW2 4176   7.739  10.328   1.164 -1.3191 -0.4544  1.0975
32439SOL     OW 4177   0.774   5.433   5.182 -0.4069  0.5178  0.7624
32439SOL    HW1 4178   0.679   5.427   5.168 -0.0985 -1.6350 -0.8855
32439SOL    HW2 4179   0.803   5.496   5.116 -0.4059 -0.7514 -0.4775
32440SOL     OW 4180   9.277   0.515  11.685 -0.4905  0.2366 -0.2929
32440SOL    HW1 4181   9.292   0.442  11.745 -1.5119 -0.0531 -0.3877
32440SOL    HW2 4182   9.219   0.574  11.733 -1.5347 -0.1238 -1.0773
32441SOL     OW 4183   9.943   5.495  10.386  0.7970 -0.1005 -0.2118
32441SOL    HW1 4184   9.983   5.467  10.468 -0.9742 -0.7567  0.4690
32441SOL    HW2 4185   9.940   5.415  10.333  0.4090 -0.0490 -0.2680
32442SOL     OW 4186   9.196   8.208   5.467 -0.1946  0.0427 -0.6755
32442SOL    HW1 4187   9.185   8.278   5.531  0.7699 -0.4424  0.0528
32442SOL    HW2 4188   9.274   8.232   5.418  1.3598 -1.4550  0.9077
32443SOL     OW 4189   6.968   3.807   5.338  0.4163  0.5194  0.4802
32443SOL    HW1 4190   6.914   3.728   5.327  1.0940  0.2852 -1.7250
32443SOL    HW2 4191   6.908   3.872   5.375 -1.8782  0.6902 -3.0618
32444SOL     OW 4192   9.515   8.800   9.989  0.1786  0.0599  0.7516
32444SOL    HW1 4193   9.536   8.756  10.071 -0.1131  2.1372  2.0111
32444SOL    HW2 4194   9.600   8.817   9.948  0.3704 -0.2041  1.0333
32445SOL     OW 4195   6.064   4.799  12.416  0.1278  0.6057 -0.6387
32445SOL    HW1 4196   6.048   4.871  12.355 -0.6299  2.3400  1.4353
32445SOL    HW2 4197   6.160   4.798  12.426  0.3277 -0.2837 -2.4539
32446SOL     OW 4198   7.746  11.437   8.538 -0.3909 -0.1060  0.1772
32446SOL    HW1 4199   7.750  11.521   8.584 -0.4799 -0.0964  0.1662
32446SOL    HW2 4200   7.668  11.395   8.571 -0.4152 -0.1308  0.0888
32447SOL     OW 4201   8.298  10.596   7.523 -0.2180  0.4088 -0.1816
32447SOL    HW1 4202   8.356  10.582   7.598  0.9010  1.6087 -0.7893
32447SOL    HW2 4203   8.350  10.573   7.447 -0.7204  0.9610 -0.7056
32448SOL     OW 4204  12.349   4.803  10.889  0.1744 -0.1017  0.6040
32448SOL    HW1 4205  12.292   4.776  10.961  0.5258  0.2755  1.0361
32448SOL    HW2 4206  12.425   4.746  10.895  0.8097  0.7824  1.3723
32449SOL     OW 4207   2.496   7.228   2.924 -0.2534 -0.0988 -0.3343
32449SOL    HW1 4208   2.437   7.155   2.945  0.4917 -0.3229  1.0950
32449SOL    HW2 4209   2.461   7.264   2.842 -0.8564 -1.8270 -0.8832
32450SOL     OW 4210   1.788   4.978   1.399  0.7112  0.1120 -0.2071
32450SOL    HW1 4211   1.811   5.049   1.460  2.7869 -0.3338 -0.3955
32450SOL    HW2 4212   1.830   4.901   1.437 -0.9493 -0.9118 -0.3700
32451SOL     OW 4213   8.223   4.866   6.923  0.1821  0.6095 -0.1088
32451SOL    HW1 4214   8.246   4.889   6.833 -1.4598  3.5188  0.0924
32451SOL    HW2 4215   8.128   4.877   6.926  0.1752  0.3046  1.9210
32452SOL     OW 4216   5.644  11.912  11.358 -0.2228  0.6395 -0.5770
32452SOL    HW1 4217   5.656  11.820  11.384 -1.6503  1.1574  2.3003
32452SOL    HW2 4218   5.709  11.926  11.289  2.2437 -1.6773  1.0739
32453SOL     OW 4219  10.427   3.350   6.230  0.2280 -0.1126 -0.3130
32453SOL    HW1 4220  10.385   3.434   6.246  1.3190 -0.0242  2.6700
32453SOL    HW2 4221  10.355   3.289   6.214 -0.7584  0.8048  0.5353
32454SOL     OW 4222   4.975   5.013  12.096 -0.0922  0.2950  0.2389
32454SOL    HW1 4223   5.027   4.977  12.024  0.1051 -0.8407  0.9217
32454SOL    HW2 4224   5.036   5.070  12.143  0.2518 -0.2406  0.4499
32455SOL     OW 4225   2.232   1.226   9.012 -0.3741  0.6246 -0.4969
32455SOL    HW1 4226   2.138   1.213   8.999  0.0341 -1.4962 -1.6781
32455SOL    HW2 4227   2.259   1.280   8.938 -0.3173 -0.6029 -1.4016
32456SOL     OW 4228   0.334   4.747  11.338 -0.4106 -0.4050 -0.8915
32456SOL    HW1 4229   0.384   4.798  11.274  0.4699 -0.1396 -0.0128
32456SOL    HW2 4230   0.243   4.760  11.312 -0.0513 -2.5921 -3.8370
32457SOL     OW 4231   8.376   9.759   3.265 -0.7336  0.0725 -0.4830
32457SOL    HW1 4232   8.408   9.818   3.333 -2.6612  0.2350  0.3542
32457SOL    HW2 4233   8.454   9.715   3.232  0.1399 -1.7837  3.4771
32458SOL     OW 4234   1.302  11.608   0.614 -0.1736 -0.4693 -0.3556
32458SOL    HW1 4235   1.303  11.565   0.699  0.4938  1.4721  0.6957
32458SOL    HW2 4236   1.394  11.631   0.597 -0.4817  0.4967 -0.8433
32459SOL     OW 4237  11.802   2.559   8.594 -0.0343 -0.0929 -0.0925
32459SOL    HW1 4238  11.858   2.487   8.562  2.1083  0.7257  1.5341
32459SOL    HW2 4239  11.757   2.522   8.670  1.2645  0.2754  0.9025
32460SOL     OW 4240   4.269   3.798   7.055  0.2018 -0.1487 -0.0462
32460SOL    HW1 4241   4.202   3.777   6.991  1.8351 -1.8366 -1.3019
32460SOL    HW2 4242   4.299   3.886   7.030  0.8842 -0.8164 -1.7170
32461SOL     OW 4243   1.999   8.318   0.289  0.1638 -0.6335 -0.2543
32461SOL    HW1 4244   2.045   8.346   0.210  0.5833 -0.4529  0.0505
32461SOL    HW2 4245   2.003   8.393   0.348  0.2915 -0.9305  0.1282
32462SOL     OW 4246   7.834   6.180  11.388  0.0253  0.3582 -0.4353
32462SOL    HW1 4247   7.825   6.204  11.481 -0.5251 -0.8353 -0.1592
32462SOL    HW2 4248   7.919   6.136  11.383 -0.0220  0.2712 -0.4630
32463SOL     OW 4249   9.669   6.815   7.802 -0.5538 -0.0352 -0.1729
32463SOL    HW1 4250   9.674   6.852   7.714 -2.7101  0.3141 -0.2159
32463SOL    HW2 4251   9.626   6.883   7.854 -0.7882 -0.8711  0.7609
32464SOL     OW 4252   7.214  11.788   6.279 -0.4113  0.3239 -0.3858
32464SOL    HW1 4253   7.289  11.842   6.255  0.6958  0.4541  2.9284
32464SOL    HW2 4254   7.244  11.698   6.270  0.1786  0.3759  0.8790
32465SOL     OW 4255   5.976   0.638   7.098 -0.0250 -0.2949 -0.6509
32465SOL    HW1 4256   6.046   0.663   7.038 -0.1442  0.3259 -0.5456
32465SOL    HW2 4257   6.017   0.579   7.160  0.7895  1.2220  0.3042
32466SOL     OW 4258   5.811   8.536   7.851  0.6852  0.1026 -0.0387
32466SOL    HW1 4259   5.817   8.551   7.757  1.0664  1.3957  0.1660
32466SOL    HW2 4260   5.890   8.576   7.887 -0.4592  1.5503  1.0241
32467SOL     OW 4261  11.882   1.689   2.450 -0.2638 -0.5274 -0.3874
32467SOL    HW1 4262  11.792   1.659   2.438 -0.0942 -1.3011  0.1734
32467SOL    HW2 4263  11.932   1.608   2.465  0.4386 -0.0682 -0.2141
32468SOL     OW 4264   4.280   8.692   8.068  0.2219 -0.4430  0.1573
32468SOL    HW1 4265   4.356   8.672   8.122  0.8086 -1.0814 -0.8660
32468SOL    HW2 4266   4.220   8.739   8.126  1.1691 -0.4030  1.1226
32469SOL     OW 4267  12.185  10.789  10.432  0.3109 -0.1767  0.0169
32469SOL    HW1 4268  12.185  10.693  10.424 -1.1429 -0.2156  0.1820
32469SOL    HW2 4269  12.099  10.815  10.400  1.3901  1.2755 -1.8535
32470SOL     OW 4270   8.633   1.963   2.329 -0.2914 -0.2938  0.3607
32470SOL    HW1 4271   8.708   2.013   2.299 -0.1845 -1.5119 -1.6238
32470SOL    HW2 4272   8.637   1.968   2.425  0.1738  2.6846  0.2849
32471SOL     OW 4273  10.319   4.673  12.443  0.0430 -0.1586  0.2108
32471SOL    HW1 4274  10.410   4.659  12.416  0.0113 -2.6889  1.1321
32471SOL    HW2 4275  10.325   4.692  12.537 -0.3837 -0.6322  0.3370
32472SOL     OW 4276   5.939   1.535   2.057  0.1693  0.1102 -0.1114
32472SOL    HW1 4277   5.890   1.568   1.981 -0.6127  0.7805  0.6544
32472SOL    HW2 4278   5.996   1.468   2.022 -2.0649 -1.4833 -0.9156
32473SOL     OW 4279   7.572  12.098   2.361 -0.0076  0.0880  0.1139
32473SOL    HW1 4280   7.656  12.115   2.403  1.0576  1.9754 -2.4660
32473SOL    HW2 4281   7.595  12.045   2.284 -1.2450  0.2780 -0.4006
32474SOL     OW 4282   2.918   1.768   3.605  0.2486 -0.5184 -0.4130
32474SOL    HW1 4283   2.940   1.709   3.677 -0.7799 -1.2752 -0.6968
32474SOL    HW2 4284   2.892   1.710   3.533 -0.0213  0.2573 -0.9569
32475SOL     OW 4285   0.156   8.797   0.856 -0.0855  0.4648  0.6382
32475SOL    HW1 4286   0.187   8.715   0.818 -1.0651  1.5365 -2.8499
32475SOL    HW2 4287   0.217   8.863   0.824 -0.8929  1.4607  1.0865
32476SOL     OW 4288  10.386   7.216   4.614  0.0337  0.1481 -0.1016
32476SOL    HW1 4289  10.453   7.276   4.645  0.8760 -1.4052  1.2160
32476SOL    HW2 4290  10.351   7.258   4.535  1.9892  1.3694 -0.3875
32477SOL     OW 4291   7.166   3.225   9.090 -0.0723 -0.2639 -0.0015
32477SOL    HW1 4292   7.171   3.294   9.157 -0.4925 -0.4281  0.2042
32477SOL    HW2 4293   7.170   3.143   9.140 -0.4741 -0.3859 -0.1694
32478SOL     OW 4294  11.529  11.552   4.877 -0.1818  0.1643 -0.1118
32478SOL    HW1 4295  11.497  11.482   4.935  0.2373  0.4696  0.4966
32478SOL    HW2 4296  11.453  11.574   4.822 -0.7499  0.2278  0.6784
32479SOL     OW 4297   4.607  11.693   2.748  0.5935 -0.1226 -0.5916
32479SOL    HW1 4298   4.686  11.702   2.694  0.6185  2.3788 -0.2414
32479SOL    HW2 4299   4.546  11.643   2.693  0.7776  1.9214 -2.8040
32480SOL     OW 4300   5.870   9.988   8.408  0.0574  0.1468 -0.3532
32480SOL    HW1 4301   5.810   9.934   8.459 -0.3205  1.0984  0.2298
32480SOL    HW2 4302   5.951   9.937   8.405  0.2051  0.2188  1.4919
32481SOL     OW 4303   6.013   8.390  11.726  0.0381  0.2543  0.2786
32481SOL    HW1 4304   5.943   8.432  11.676  0.1342  1.0381  0.7948
32481SOL    HW2 4305   5.971   8.364  11.808  0.4264  0.9993  0.7140
32482SOL     OW 4306   5.417   3.116   2.977 -0.1231 -0.6338  0.0592
32482SOL    HW1 4307   5.449   3.202   3.006 -1.5613 -0.1812  0.4146
32482SOL    HW2 4308   5.488   3.080   2.924  1.0278  0.2133  0.9675
32483SOL     OW 4309   9.983   9.060   4.747 -0.0965 -0.5942 -0.7273
32483SOL    HW1 4310   9.952   9.039   4.660 -0.5770  0.7109 -0.8914
32483SOL    HW2 4311  10.049   9.128   4.734 -1.6098  1.0854  0.0348
32484SOL     OW 4312   8.764   1.348   3.688 -0.5908  0.0171  0.1031
32484SOL    HW1 4313   8.736   1.424   3.638 -0.1468  0.0347 -0.1217
32484SOL    HW2 4314   8.699   1.341   3.758 -0.5097  0.7420  0.2660
32485SOL     OW 4315   2.848   0.301   2.855  0.1877  0.5706 -0.8112
32485SOL    HW1 4316   2.769   0.355   2.853 -0.5579 -0.4610  0.1146
32485SOL    HW2 4317   2.827   0.225   2.802  1.4963  1.4568 -2.7278
32486SOL     OW 4318   4.146   2.523   2.870 -0.0113  0.4087  0.7582
32486SOL    HW1 4319   4.188   2.471   2.803 -1.1471  0.5500 -0.0948
32486SOL    HW2 4320   4.130   2.462   2.942  0.1811 -0.0147  0.4438
32487SOL     OW 4321   3.590   4.291  10.249  0.2503  0.0741 -0.6998
32487SOL    HW1 4322   3.621   4.376  10.216  0.4762  0.2901  0.0480
32487SOL    HW2 4323   3.658   4.264  10.311  0.0543 -0.5389 -0.7489
32488SOL     OW 4324   2.956  12.402   1.850 -0.3711  0.1400  0.0156
32488SOL    HW1 4325   3.034  12.455   1.834  0.7156 -1.1937  0.6986
32488SOL    HW2 4326   2.935  12.364   1.765  0.7132 -0.7589  0.1192
32489SOL     OW 4327  10.454   1.050  12.194  0.5712 -0.0490 -0.4227
32489SOL    HW1 4328  10.450   1.088  12.282  1.3237  0.2578 -0.5098
32489SOL    HW2 4329  10.376   0.995  12.188 -0.2825  1.0684 -0.0910
32490SOL     OW 4330   9.035   8.351   5.284 -0.0601  0.4402 -0.3457
32490SOL    HW1 4331   9.079   8.295   5.348  0.5429  0.4513 -0.7404
32490SOL    HW2 4332   9.106   8.392   5.236 -0.5099  0.5342 -0.9363
32491SOL     OW 4333  11.996   0.849   0.648 -0.0755 -0.0305 -0.1382
32491SOL    HW1 4334  11.937   0.840   0.573 -1.5302  1.0212  0.8363
32491SOL    HW2 4335  11.942   0.829   0.724  1.4430 -1.3361  0.6570
32492SOL     OW 4336   9.413  10.860   2.083 -0.4072 -0.1019 -0.1019
32492SOL    HW1 4337   9.412  10.859   2.179  1.3488  3.2202  0.1015
32492SOL    HW2 4338   9.506  10.860   2.060 -0.6536  2.8395 -1.5425
32493SOL     OW 4339   0.709   5.153   5.887 -0.1438  0.6391 -0.0418
32493SOL    HW1 4340   0.691   5.060   5.904 -1.1221  0.9792  0.9504
32493SOL    HW2 4341   0.693   5.196   5.971 -0.9179  1.8723 -0.7845
32494SOL     OW 4342   0.911   0.314   0.860 -0.2407  0.0931  0.3436
32494SOL    HW1 4343   0.918   0.223   0.831  0.0882  0.6012 -1.2635
32494SOL    HW2 4344   1.001   0.348   0.854 -0.5866  0.9041 -0.4374
32495SOL     OW 4345   4.999   7.391   2.480  0.0717  0.0839  0.0622
32495SOL    HW1 4346   5.045   7.351   2.554  2.6828  0.1829 -1.4081
32495SOL    HW2 4347   4.941   7.322   2.448  0.3111 -0.5946  1.0198
32496SOL     OW 4348   2.102  11.085   3.029 -0.5568  0.1954 -0.0563
32496SOL    HW1 4349   2.117  11.019   2.961 -0.7602  1.9439 -1.8615
32496SOL    HW2 4350   2.035  11.143   2.993 -0.6806  1.1813  1.6549
32497SOL     OW 4351  11.407  12.363   7.277  0.4926 -0.2594  0.0584
32497SOL    HW1 4352  11.340  12.378   7.210  0.4359  2.0485  0.5504
32497SOL    HW2 4353  11.440  12.275   7.259 -1.8205 -0.9931 -0.9311
32498SOL     OW 4354  12.266   7.721   2.052  0.1714  0.0705  0.0168
32498SOL    HW1 4355  12.283   7.762   1.968  0.5536  0.4144  0.2615
32498SOL    HW2 4356  12.185   7.671   2.038 -0.2582  0.8446 -0.2968
32499SOL     OW 4357   6.802   7.647   0.482 -0.1556  0.3993  0.2949
32499SOL    HW1 4358   6.852   7.710   0.430  0.6797  0.4044  1.0708
32499SOL    HW2 4359   6.719   7.691   0.501 -1.7883 -0.6511 -3.4042
32500SOL     OW 4360  11.085   5.632   2.449  0.3293 -0.7129  0.7252
32500SOL    HW1 4361  11.014   5.574   2.421  0.6240 -0.0121 -1.7044
32500SOL    HW2 4362  11.134   5.650   2.369  1.5524  1.1299  1.8132
32501SOL     OW 4363  11.087  12.239   2.146  0.2379 -0.4815  0.2210
32501SOL    HW1 4364  11.156  12.226   2.211 -0.8078  0.3665  1.5830
32501SOL    HW2 4365  11.026  12.299   2.189 -1.0147 -0.7009 -1.1789
32502SOL     OW 4366  10.384   7.381   8.821  0.4283  0.5055  0.5933
32502SOL    HW1 4367  10.416   7.405   8.734  2.1536 -0.3836  0.9409
32502SOL    HW2 4368  10.289   7.377   8.811  0.4875  1.6949 -0.9083
32503SOL     OW 4369   1.655   8.184  11.835  0.2893 -0.1145  0.8000
32503SOL    HW1 4370   1.696   8.246  11.775 -0.2020  1.1022  1.6699
32503SOL    HW2 4371   1.714   8.109  11.837  0.5814  0.0432 -0.7619
32504SOL     OW 4372   9.913   2.953  11.896  0.4007  0.6047 -0.1525
32504SOL    HW1 4373  10.000   2.917  11.879  0.1783 -0.4551  0.8231
32504SOL    HW2 4374   9.856   2.909  11.832  0.0887 -1.0373  1.1879
32505SOL     OW 4375   2.831   1.992   0.147  1.1058  0.2871  0.2767
32505SOL    HW1 4376   2.838   1.899   0.126  0.6408 -0.0546  1.5675
32505SOL    HW2 4377   2.812   2.034   0.063 -1.1768 -1.0644  0.0366
32506SOL     OW 4378   7.082   2.442  12.310 -0.2886 -0.3871 -0.1406
32506SOL    HW1 4379   7.085   2.538  12.306  1.0651 -0.3007  1.5104
32506SOL    HW2 4380   7.146   2.420  12.378  1.2170 -2.5927 -2.1371
32507SOL     OW 4381  10.337   2.262  11.606 -0.2522 -0.3649  0.1732
32507SOL    HW1 4382  10.296   2.189  11.652 -2.7659  1.4684  1.1193
32507SOL    HW2 4383  10.283   2.274  11.528 -0.2188  0.7706  0.3052
32508SOL     OW 4384   8.777  10.460   8.480 -0.4420 -0.4023  0.5663
32508SOL    HW1 4385   8.832  10.535   8.502 -0.5672  0.1860 -1.0416
32508SOL    HW2 4386   8.690  10.485   8.512 -1.1979  1.5585 -2.5670
32509SOL     OW 4387  12.418   0.344   0.539 -0.2274 -0.3489  0.3459
32509SOL    HW1 4388  12.413   0.411   0.470 -1.7573  0.2625  1.0132
32509SOL    HW2 4389  12.443   0.264   0.493  1.5012  0.6092 -0.4944
32510SOL     OW 4390   5.554   5.485   4.618  0.0766 -0.0498  0.1657
32510SOL    HW1 4391   5.547   5.408   4.562 -2.1574 -1.3534  2.0234
32510SOL    HW2 4392   5.617   5.460   4.686 -1.6500 -0.9096  1.5558
32511SOL     OW 4393  11.574   1.236   7.238 -0.1243 -0.0351  0.2752
32511SOL    HW1 4394  11.654   1.202   7.277  0.4046  0.6768 -0.1574
32511SOL    HW2 4395  11.589   1.231   7.144 -0.7843 -0.3303  0.1765
32512SOL     OW 4396   9.948   4.976   9.493 -0.5706  0.2033 -0.5241
32512SOL    HW1 4397   9.947   5.005   9.402  2.2645 -4.4333 -2.4034
32512SOL    HW2 4398   9.907   4.890   9.491 -0.0138 -0.2410  2.5451
32513SOL     OW 4399   4.987  11.868   9.095 -0.4203  0.1291 -0.3803
32513SOL    HW1 4400   5.068  11.877   9.045  0.7389 -0.5518  1.2649
32513SOL    HW2 4401   4.979  11.774   9.111 -1.0247  0.2869  0.2643
32514SOL     OW 4402   4.451  11.479   5.161  0.1793  0.0373  0.6456
32514SOL    HW1 4403   4.501  11.405   5.196  1.2766  1.0825  1.3558
32514SOL    HW2 4404   4.475  11.553   5.216 -1.2579  0.8426  0.2430
32515SOL     OW 4405   3.630   2.130   3.666 -0.2340  0.3724 -0.6432
32515SOL    HW1 4406   3.675   2.047   3.654  1.8645  1.4833 -1.0318
32515SOL    HW2 4407   3.586   2.146   3.583  2.6768  1.4489 -2.1161
32516SOL     OW 4408   4.788  11.485   8.865 -0.3897 -0.3982  0.9130
32516SOL    HW1 4409   4.772  11.410   8.808 -0.2073  1.2333 -1.4332
32516SOL    HW2 4410   4.779  11.450   8.954 -1.6291 -2.8690 -0.0895
32517SOL     OW 4411   0.777   0.968   1.607 -0.3803  0.2250  0.0912
32517SOL    HW1 4412   0.735   0.882   1.617  0.1547 -0.0585 -0.0642
32517SOL    HW2 4413   0.772   0.986   1.513  0.1423  0.0387  0.0277
32518SOL     OW 4414   5.261   4.434   8.324 -0.0519 -0.1441 -0.8404
32518SOL    HW1 4415   5.272   4.482   8.406 -0.4711  0.4272 -1.1117
32518SOL    HW2 4416   5.350   4.408   8.300  0.3101  1.2735 -1.1412
32519SOL     OW 4417  10.409  10.651   8.385  0.0118 -0.1197 -0.2050
32519SOL    HW1 4418  10.479  10.596   8.348 -0.6932 -0.9257 -0.3782
32519SOL    HW2 4419  10.329  10.617   8.346 -0.3961  1.4810 -0.8107
32520SOL     OW 4420   8.094   8.421   3.522  0.5502  0.2002 -0.0516
32520SOL    HW1 4421   8.113   8.337   3.479 -2.1740 -0.5535  0.0481
32520SOL    HW2 4422   8.049   8.472   3.455 -0.9984  0.1862  0.9376
32521SOL     OW 4423  12.351   1.215  10.032 -0.3494  0.0830  0.1410
32521SOL    HW1 4424  12.322   1.142  10.087 -0.3557 -0.0097  0.0155
32521SOL    HW2 4425  12.440   1.233  10.061 -0.3605  0.0492  0.1961
32522SOL     OW 4426  11.191   0.146   9.313  0.0684  0.3262  0.0618
32522SOL    HW1 4427  11.272   0.176   9.356 -0.0533  0.7952 -0.0314
32522SOL    HW2 4428  11.168   0.217   9.253  1.0706 -0.9319 -1.9523
32523SOL     OW 4429   1.796   0.090   2.901  0.5270 -0.0218  0.6720
32523SOL    HW1 4430   1.875   0.065   2.949  0.5799  0.3528  0.7831
32523SOL    HW2 4431   1.726   0.082   2.966  0.6549  0.8794  0.9362
32524SOL     OW 4432   4.267  11.963   2.471 -0.2428  0.2431 -0.6197
32524SOL    HW1 4433   4.260  11.948   2.376  1.3380 -0.2628 -0.6940
32524SOL    HW2 4434   4.277  12.057   2.480  0.2407  0.2356 -1.0255
32525SOL     OW 4435   3.501   1.793   3.558  0.3713 -0.3226  0.1143
32525SOL    HW1 4436   3.585   1.837   3.572  0.9408 -1.3675  0.0993
32525SOL    HW2 4437   3.500   1.721   3.621  0.4479 -1.6045 -1.2692
32526SOL     OW 4438   3.855  12.000  10.299  0.2051 -0.3291 -0.5628
32526SOL    HW1 4439   3.859  12.093  10.274 -0.2658  0.8473  3.1100
32526SOL    HW2 4440   3.772  11.970  10.262 -0.0975  0.9771 -1.0319
32527SOL     OW 4441   8.343   2.691   0.537  0.0760  0.3977 -0.2468
32527SOL    HW1 4442   8.314   2.691   0.629 -2.0048 -1.0713 -0.8239
32527SOL    HW2 4443   8.436   2.668   0.542  0.0589  0.5384  1.5094
32528SOL     OW 4444   0.573   8.239   9.040  0.2169  0.2232 -0.8008
32528SOL    HW1 4445   0.563   8.205   9.129 -0.1231  0.0878 -0.8890
32528SOL    HW2 4446   0.641   8.306   9.048 -0.3205  0.7266 -0.2943
32529SOL     OW 4447   6.717  11.672   6.856  0.0768  0.5223  0.2695
32529SOL    HW1 4448   6.777  11.654   6.784  1.5546  1.8847  1.0863
32529SOL    HW2 4449   6.723  11.593   6.911 -0.1280 -0.0115 -0.4524
32530SOL     OW 4450   0.117   6.698   1.983 -0.2503 -0.6662  0.8653
32530SOL    HW1 4451   0.127   6.675   2.075  0.6541 -0.7715  0.7450
32530SOL    HW2 4452   0.043   6.759   1.982  0.6949  0.5393  1.8645
32531SOL     OW 4453   2.255  10.653   4.848 -0.4720  0.1266  0.0686
32531SOL    HW1 4454   2.284  10.685   4.762  1.3325 -0.5872  0.3581
32531SOL    HW2 4455   2.205  10.574   4.828  0.3246 -0.2934 -0.3323
32532SOL     OW 4456   3.950   5.551   0.298  0.5329  0.0606  0.3785
32532SOL    HW1 4457   3.945   5.461   0.268  1.1790  0.1298  0.0412
32532SOL    HW2 4458   3.867   5.590   0.270  0.6184 -0.1978 -0.2561
32533SOL     OW 4459   3.532  11.159   9.507 -0.2283 -0.8984  0.1445
32533SOL    HW1 4460   3.489  11.092   9.561 -1.5927 -0.0272  0.1695
32533SOL    HW2 4461   3.488  11.154   9.422 -0.1582 -0.2212  0.0611
32534SOL     OW 4462   0.351   7.897   8.502 -0.7213 -0.6983 -0.2716
32534SOL    HW1 4463   0.433   7.895   8.454 -0.5419 -1.4647  0.0512
32534SOL    HW2 4464   0.287   7.860   8.442 -0.7940 -0.2767 -0.4551
32535SOL     OW 4465  11.532   1.001   9.929 -0.1878 -0.3564 -0.1395
32535SOL    HW1 4466  11.450   1.036   9.961  0.1697  0.2331  0.1423
32535SOL    HW2 4467  11.590   0.999  10.005  1.2372  2.7052 -1.0028
32536SOL     OW 4468   2.747   8.242  11.413  0.2630  0.1678  0.1598
32536SOL    HW1 4469   2.776   8.332  11.428  0.0785 -0.1380  3.0857
32536SOL    HW2 4470   2.828   8.194  11.396  0.2624  0.9870 -2.4820
32537SOL     OW 4471   2.894   7.538   2.435 -0.1073 -0.1276 -0.1202
32537SOL    HW1 4472   2.905   7.614   2.492 -0.7346 -0.9435  1.1317
32537SOL    HW2 4473   2.805   7.548   2.400  1.2754  1.9973 -3.5084
32538SOL     OW 4474   5.862  10.570  11.155  0.1422  0.2626 -0.3219
32538SOL    HW1 4475   5.900  10.587  11.242 -0.3475  1.9847 -0.4157
32538SOL    HW2 4476   5.854  10.475  11.152  0.2265  0.1479  1.5085
32539SOL     OW 4477   3.863   1.137   0.685 -0.7286 -0.1661  0.2227
32539SOL    HW1 4478   3.898   1.224   0.669 -3.8594  1.2025  0.2435
32539SOL    HW2 4479   3.832   1.140   0.775  0.3437 -1.8362  0.7110
32540SOL     OW 4480   9.506   0.896   1.196 -0.0574  0.1276  0.2730
32540SOL    HW1 4481   9.560   0.896   1.117 -0.1066 -1.2503  0.2140
32540SOL    HW2 4482   9.568   0.891   1.268 -0.0666 -0.2734  0.2534
32541SOL     OW 4483   7.473  10.236  12.266  0.2929  0.4031  0.2978
32541SOL    HW1 4484   7.503  10.224  12.356 -3.1587 -0.1105  1.5141
32541SOL    HW2 4485   7.389  10.282  12.274 -0.2611  0.0957 -2.6353
32542SOL     OW 4486   9.731   1.707   4.375 -0.1955 -0.3662  0.2992
32542SOL    HW1 4487   9.812   1.707   4.425  1.2176  0.5061 -1.8342
32542SOL    HW2 4488   9.722   1.797   4.344 -1.0980 -0.8194 -0.8124
32543SOL     OW 4489   3.954   7.917  12.450 -0.3770 -0.1801  0.3666
32543SOL    HW1 4490   3.960   8.004  12.488  0.2669 -0.8718  1.9318
32543SOL    HW2 4491   3.948   7.858  12.525  0.3015 -1.5627 -0.6194
32544SOL     OW 4492  10.967   4.119   5.667 -0.2212 -0.3175 -0.1613
32544SOL    HW1 4493  11.025   4.185   5.630  0.4511 -1.3266 -0.9652
32544SOL    HW2 4494  10.918   4.165   5.735 -0.1636  1.1285 -1.0652
32545SOL     OW 4495   2.580   4.025   4.052 -0.7235  0.3267 -0.6535
32545SOL    HW1 4496   2.617   4.108   4.021 -1.5935  1.3333  0.8615
32545SOL    HW2 4497   2.632   3.958   4.009 -0.6451  1.6363 -2.7219
32546SOL     OW 4498  11.533   0.942   5.125  0.9144  0.1683  0.1847
32546SOL    HW1 4499  11.454   0.962   5.075  0.8296 -0.3206  0.1169
32546SOL    HW2 4500  11.603   0.992   5.082  0.2953  2.3234  1.5221
32547SOL     OW 4501   9.011   7.145  12.166 -0.4918 -0.1668  0.0853
32547SOL    HW1 4502   8.949   7.078  12.139 -0.1555  0.0818 -1.3918
32547SOL    HW2 4503   9.085   7.097  12.204  0.0659 -0.7201 -1.5997
32548SOL     OW 4504   4.352   2.649   8.630  0.2656 -0.0726 -0.3254
32548SOL    HW1 4505   4.400   2.643   8.547  3.2796 -1.6166  1.3816
32548SOL    HW2 4506   4.407   2.705   8.686 -0.8118 -0.4702  1.1938
32549SOL     OW 4507   4.474   4.849  12.122  0.0908  0.1740 -0.7216
32549SOL    HW1 4508   4.567   4.841  12.100 -0.0949 -0.7917 -1.2363
32549SOL    HW2 4509   4.452   4.940  12.104  1.5845  1.2292  2.1148
32550SOL     OW 4510   4.836   2.448  11.558  0.1340 -0.2867  0.1757
32550SOL    HW1 4511   4.829   2.381  11.625 -0.7168 -1.3643 -0.9480
32550SOL    HW2 4512   4.906   2.418  11.501  0.5008  0.3596  0.2773
32551SOL     OW 4513   6.916   0.968   2.120 -0.1357  0.2018 -0.2805
32551SOL    HW1 4514   6.992   0.927   2.078 -0.1750  0.3094 -0.4623
32551SOL    HW2 4515   6.922   1.060   2.094 -0.8718  0.0280 -1.1245
32552SOL     OW 4516   0.219   8.207  10.311 -0.0645  0.0581 -0.1557
32552SOL    HW1 4517   0.263   8.122  10.300  0.3042  0.2303 -0.0327
32552SOL    HW2 4518   0.126   8.186  10.308  0.0177 -0.4464  0.5834
32553SOL     OW 4519  11.794   1.706   3.541 -0.0888  0.4960  0.0456
32553SOL    HW1 4520  11.781   1.801   3.537  0.5984  0.6174  0.5111
32553SOL    HW2 4521  11.852   1.686   3.468  0.6730  0.6098  0.5996
32554SOL     OW 4522  12.102   4.178   7.666 -0.4284  0.1665 -0.3370
32554SOL    HW1 4523  12.072   4.269   7.664 -1.4401 -0.1447 -0.0211
32554SOL    HW2 4524  12.115   4.159   7.759 -0.3783 -0.0611 -0.3898
32555SOL     OW 4525   5.996   2.556   9.577  0.4952  0.8765  0.4852
32555SOL    HW1 4526   6.000   2.617   9.503  2.0888 -2.2513 -2.2775
32555SOL    HW2 4527   6.087   2.531   9.592 -0.0452 -0.3922  1.9042
32556SOL     OW 4528   1.599   8.739  11.498  0.1171 -0.2416  0.0192
32556SOL    HW1 4529   1.649   8.680  11.555 -1.6619 -0.1257  1.8560
32556SOL    HW2 4530   1.561   8.803  11.559 -1.9164 -0.1276 -1.2730
32557SOL     OW 4531   7.335   7.498   8.657  0.0857  1.0058  0.7388
32557SOL    HW1 4532   7.264   7.529   8.714  0.4496 -0.2413  1.9240
32557SOL    HW2 4533   7.379   7.578   8.629  0.1080  1.6719  2.5051
32558SOL     OW 4534   2.285   6.675   3.231  0.0631 -0.1836 -0.0701
32558SOL    HW1 4535   2.354   6.741   3.227 -0.2442  0.0919 -1.8441
32558SOL    HW2 4536   2.229   6.703   3.304 -0.1876  1.6719 -0.9149
32559SOL     OW 4537   1.847   4.823   3.266  0.3067 -0.4682  0.0381
32559SOL    HW1 4538   1.785   4.823   3.339  0.2412 -0.1246 -0.0193
32559SOL    HW2 4539   1.810   4.759   3.204 -1.5876  1.8083 -1.3510
32560SOL     OW 4540   0.246  10.423   7.829  0.0416  0.0810 -0.3335
32560SOL    HW1 4541   0.241  10.507   7.874  2.4608  2.3614 -3.7878
32560SOL    HW2 4542   0.168  10.420   7.774 -0.9838 -0.9038  1.1132
32561SOL     OW 4543   5.314   7.342   9.993 -0.7120 -0.1795 -0.2538
32561SOL    HW1 4544   5.395   7.335   9.943 -1.3816 -2.8349 -1.1187
32561SOL    HW2 4545   5.337   7.308  10.080 -0.4797  0.8140  0.0842
32562SOL     OW 4546   7.756   7.152   5.555  0.2352 -0.1624  0.0065
32562SOL    HW1 4547   7.735   7.119   5.467  0.2789 -0.5190  0.1287
32562SOL    HW2 4548   7.768   7.073   5.608 -1.3678  0.0510  0.7234
32563SOL     OW 4549  10.101   2.303   3.809 -0.0197 -0.7650  0.1331
32563SOL    HW1 4550  10.129   2.231   3.866 -3.2435 -2.0664  0.2654
32563SOL    HW2 4551  10.175   2.316   3.749  1.4515 -2.8065  1.3726
32564SOL     OW 4552   6.025  10.517   1.123  0.8833  0.4406  0.1001
32564SOL    HW1 4553   5.989  10.487   1.040  1.4586 -0.9468  0.3220
32564SOL    HW2 4554   5.981  10.600   1.141 -1.7194 -0.8404  0.0641
32565SOL     OW 4555   5.488   9.787   7.050  0.4284 -0.1352  0.8935
32565SOL    HW1 4556   5.475   9.734   7.129  0.0131 -0.6804  0.4663
32565SOL    HW2 4557   5.433   9.864   7.063 -0.6157 -0.8134  0.6023
32566SOL     OW 4558   1.425  10.102   0.740 -0.6962  0.0413  0.8032
32566SOL    HW1 4559   1.403  10.013   0.766  0.0893 -0.2095  0.6409
32566SOL    HW2 4560   1.382  10.158   0.805  1.2484 -0.5643  2.7627
32567SOL     OW 4561   7.772   5.365   2.140 -0.2036 -0.4004  0.4107
32567SOL    HW1 4562   7.766   5.435   2.075 -1.4908 -1.0606 -0.2006
32567SOL    HW2 4563   7.863   5.334   2.134 -0.3105 -0.4701 -1.0879
32568SOL     OW 4564   9.257   4.998   5.666 -0.5697  0.0564  0.6040
32568SOL    HW1 4565   9.176   4.992   5.717 -0.2481  0.1127  1.1337
32568SOL    HW2 4566   9.229   4.990   5.575 -1.1142 -0.4905  0.8105
32569SOL     OW 4567   2.831   9.412   7.852  0.1816  0.0541  0.4696
32569SOL    HW1 4568   2.876   9.341   7.897  0.8148 -0.2252 -0.5520
32569SOL    HW2 4569   2.738   9.398   7.870  0.3602 -0.5701  0.9270
32570SOL     OW 4570   9.267  10.707   3.115 -0.7414 -0.2102 -0.1682
32570SOL    HW1 4571   9.298  10.796   3.099 -0.0775 -0.4170 -0.0652
32570SOL    HW2 4572   9.346  10.657   3.134 -0.8294 -1.3313 -2.4618
32571SOL     OW 4573   2.776   0.796   0.692 -0.4496 -0.3473  0.2959
32571SOL    HW1 4574   2.777   0.703   0.713 -1.0381  0.1424  2.7074
32571SOL    HW2 4575   2.711   0.834   0.751 -0.1728  1.6306 -0.5795
32572SOL     OW 4576  11.451  12.449   2.845  1.2593 -0.1338  0.3793
32572SOL    HW1 4577  11.508  12.479   2.774  1.8458 -0.1847  0.8219
32572SOL    HW2 4578  11.490  12.486   2.924  0.0702  0.7265  0.5994
32573SOL     OW 4579   1.070  10.600  11.978  0.4245  0.2715 -0.5021
32573SOL    HW1 4580   0.975  10.612  11.984  0.3161 -0.5130 -0.5563
32573SOL    HW2 4581   1.090  10.529  12.039  0.8105 -0.3416 -1.3096
32574SOL     OW 4582   2.983   6.421   5.365 -0.3048 -0.3593  0.2245
32574SOL    HW1 4583   2.966   6.426   5.459  1.3620  2.7341  0.4840
32574SOL    HW2 4584   2.905   6.459   5.325  0.4305  1.7436  0.6525
32575SOL     OW 4585   6.115   5.833   5.977  0.5993  0.2805 -0.5038
32575SOL    HW1 4586   6.106   5.844   6.071  0.5580 -1.6137 -0.2595
32575SOL    HW2 4587   6.209   5.843   5.961  0.4112  2.5684 -0.5984
32576SOL     OW 4588   6.007   9.024   5.361  0.0316 -0.1339  0.7120
32576SOL    HW1 4589   6.054   8.957   5.311 -0.0902  0.9548 -0.9159
32576SOL    HW2 4590   5.915   9.012   5.336 -0.0694  0.2259  0.9062
32577SOL     OW 4591   7.327   0.231  11.364  0.3476  0.0037  0.1277
32577SOL    HW1 4592   7.263   0.160  11.374 -0.7774  1.2447  3.0676
32577SOL    HW2 4593   7.411   0.190  11.384  0.3232 -1.2726 -2.0714
32578SOL     OW 4594  10.159  10.593   8.264  1.0278 -0.0932  0.2880
32578SOL    HW1 4595  10.139  10.533   8.192 -0.4618 -0.2212  0.7869
32578SOL    HW2 4596  10.087  10.581   8.326  1.4993  1.1235  1.0976
32579SOL     OW 4597  12.374   3.351  10.328  0.5874  0.0353 -0.3415
32579SOL    HW1 4598  12.389   3.358  10.233  0.2993  1.1561 -0.3234
32579SOL    HW2 4599  12.426   3.422  10.365 -0.3534  0.4489  0.2153
32580SOL     OW 4600   8.130   0.518   9.169  0.4649 -1.0734 -0.2513
32580SOL    HW1 4601   8.221   0.491   9.161  0.6343 -0.2114 -1.4707
32580SOL    HW2 4602   8.080   0.437   9.158  1.0641 -1.9887  2.6832
32581SOL     OW 4603   2.112   7.348   8.858 -0.5185 -0.0699  0.0803
32581SOL    HW1 4604   2.034   7.402   8.853  0.3020  1.1475  0.1452
32581SOL    HW2 4605   2.114   7.317   8.949 -1.6050 -1.1801 -0.2547
32582SOL     OW 4606   2.372   9.450  10.698 -0.1306  0.2902 -0.1131
32582SOL    HW1 4607   2.354   9.390  10.625  1.2763 -2.4055  1.5566
32582SOL    HW2 4608   2.368   9.394  10.775  2.7715  2.0041  1.4558
32583SOL     OW 4609  11.508   4.845   5.047 -0.9125  0.1729  0.3380
32583SOL    HW1 4610  11.473   4.765   5.006 -0.4222 -0.2278  0.6882
32583SOL    HW2 4611  11.482   4.837   5.139  1.3816 -0.8997  0.9574
32584SOL     OW 4612   5.595  10.994   7.720  0.5757 -0.5444  0.2349
32584SOL    HW1 4613   5.578  11.067   7.660 -2.1551 -0.9126  0.4509
32584SOL    HW2 4614   5.559  11.023   7.804  0.2550 -1.7793  0.5448
32585SOL     OW 4615   7.747   9.992   1.205  0.1954  0.6407 -0.1837
32585SOL    HW1 4616   7.841   9.996   1.219 -0.0352  0.5815  1.6023
32585SOL    HW2 4617   7.737   9.955   1.117  1.8213 -1.3141  0.3931
32586SOL     OW 4618  11.056   0.221   6.757 -0.0243  0.0285  0.0557
32586SOL    HW1 4619  11.090   0.276   6.687 -0.0039 -0.2047 -0.1170
32586SOL    HW2 4620  11.060   0.277   6.835 -0.1684  0.3290 -0.1498
32587SOL     OW 4621   4.727   8.242  10.894  0.1528 -0.2926  0.2195
32587SOL    HW1 4622   4.647   8.276  10.853 -0.5436 -2.0769 -0.0403
32587SOL    HW2 4623   4.723   8.272  10.984  0.1117  1.1131 -0.2348
32588SOL     OW 4624   5.761   7.352  12.318 -0.0083  0.0450 -0.0712
32588SOL    HW1 4625   5.755   7.423  12.254 -0.0655 -0.2593 -0.4044
32588SOL    HW2 4626   5.708   7.382  12.392 -2.8533 -1.0742 -1.5281
32589SOL     OW 4627   7.959   2.451   0.767  0.3112 -0.0077 -0.1178
32589SOL    HW1 4628   8.025   2.382   0.758  2.3710  2.0367 -1.7400
32589SOL    HW2 4629   7.999   2.515   0.826 -1.5041 -0.0543  1.2555
32590SOL     OW 4630   1.975  11.549   3.239  0.0841 -0.0824 -0.5133
32590SOL    HW1 4631   1.919  11.621   3.212 -0.0127  0.3981  0.8984
32590SOL    HW2 4632   2.057  11.591   3.265  0.7045 -0.6685 -1.4621
32591SOL     OW 4633   7.563   1.265   0.327 -0.0769  0.3026 -0.3166
32591SOL    HW1 4634   7.550   1.350   0.369  0.8239  0.2839  0.0338
32591SOL    HW2 4635   7.576   1.204   0.400  1.7178  0.3006 -0.5874
32592SOL     OW 4636  10.941   6.614   4.864 -0.1033  0.1329 -0.4004
32592SOL    HW1 4637  10.999   6.582   4.794  1.3417 -1.1655  1.2949
32592SOL    HW2 4638  11.000   6.656   4.926 -1.2814  0.7034  0.3540
32593SOL     OW 4639   8.329   1.424   8.857 -0.3619  0.4119  0.7064
32593SOL    HW1 4640   8.286   1.361   8.799 -0.2855  1.0982 -0.1053
32593SOL    HW2 4641   8.422   1.402   8.852 -0.4495 -0.1072  1.2830
32594SOL     OW 4642   4.524   0.445   0.467 -0.4144  0.5568 -0.3467
32594SOL    HW1 4643   4.505   0.488   0.383 -0.0900 -1.0033 -1.2670
32594SOL    HW2 4644   4.583   0.373   0.444 -0.7127 -0.2107  1.1567
32595SOL     OW 4645   2.866   8.764  12.093  0.3290 -0.0158 -0.4568
32595SOL    HW1 4646   2.801   8.698  12.120  1.3222 -0.9232 -0.2121
32595SOL    HW2 4647   2.814   8.835  12.056 -0.7665 -1.0174 -0.8976
32596SOL     OW 4648   6.500   3.839   2.984  0.4611 -0.3215  0.8590
32596SOL    HW1 4649   6.433   3.778   2.954  1.0540 -0.3937 -0.3712
32596SOL    HW2 4650   6.482   3.920   2.936  1.5670 -0.5102  0.0946
32597SOL     OW 4651   0.145   6.105  10.482  0.3119  0.5050  0.2683
32597SOL    HW1 4652   0.066   6.152  10.458 -1.3814 -1.9111  0.7316
32597SOL    HW2 4653   0.158   6.124  10.575  0.8611  1.6274 -0.0182
32598SOL     OW 4654  11.337  12.233  12.086 -0.4898  0.0592 -0.1890
32598SOL    HW1 4655  11.336  12.254  12.179 -1.4332 -3.4451  0.7353
32598SOL    HW2 4656  11.297  12.309  12.043  0.3889  1.9633  2.1393
32599SOL     OW 4657   9.800   0.106   7.537  0.5690  0.0415  0.0672
32599SOL    HW1 4658   9.886   0.065   7.545  0.7228  0.3051 -0.2277
32599SOL    HW2 4659   9.743   0.036   7.507  0.5109 -0.3393  1.0244
32600SOL     OW 4660   1.882   2.962  10.775 -0.2688  0.2796 -0.2650
32600SOL    HW1 4661   1.933   3.044  10.780 -2.4269  1.6144  1.6437
32600SOL    HW2 4662   1.856   2.956  10.683 -0.0526  1.7555 -0.4550
32601SOL     OW 4663  11.087   1.735   7.147  0.1306  0.0467  0.2220
32601SOL    HW1 4664  11.048   1.671   7.088 -0.4940  0.5766  0.0550
32601SOL    HW2 4665  11.140   1.683   7.207  0.3946 -0.5404 -0.5043
32602SOL     OW 4666   0.194   4.922   6.220  0.8041 -0.9038 -0.1841
32602SOL    HW1 4667   0.258   4.927   6.150  1.1380  0.7393  0.2032
32602SOL    HW2 4668   0.230   4.976   6.290 -0.9361 -0.0129  0.0900
32603SOL     OW 4669  11.252   9.959  11.381 -0.4701  1.1195  0.3684
32603SOL    HW1 4670  11.347   9.968  11.380 -0.5280  1.7104 -0.8079
32603SOL    HW2 4671  11.236   9.871  11.346 -0.3332  0.6669  1.4187
32604SOL     OW 4672   0.008   7.376  10.548 -0.1647  0.7631  0.1096
32604SOL    HW1 4673  -0.068   7.413  10.592 -1.4212  0.9672 -2.0932
32604SOL    HW2 4674   0.032   7.442  10.482  0.4117 -0.3284 -0.8058
32605SOL     OW 4675   7.058  11.842   1.356  0.0930 -0.2388  0.1673
32605SOL    HW1 4676   7.104  11.830   1.439  0.3382 -1.0348 -0.0729
32605SOL    HW2 4677   7.069  11.935   1.335 -0.0999 -0.0047  1.0949
32606SOL     OW 4678   5.502  10.699   5.819  0.1055 -0.2102  0.0849
32606SOL    HW1 4679   5.571  10.707   5.754 -1.1200  0.4827 -1.1993
32606SOL    HW2 4680   5.437  10.764   5.793  0.0634  0.8789  2.6893
32607SOL     OW 4681   4.140   2.931  11.737  0.3718  0.1780 -0.8464
32607SOL    HW1 4682   4.189   2.998  11.689  1.2203  1.7131  1.9761
32607SOL    HW2 4683   4.057   2.974  11.759 -0.5601 -0.9652 -1.9528
32608SOL     OW 4684   2.004   1.477   0.172 -0.4000 -0.3486 -0.1700
32608SOL    HW1 4685   2.013   1.556   0.118  0.4272 -1.3185 -1.5095
32608SOL    HW2 4686   2.077   1.481   0.234 -0.7582  0.2599  0.2244
32609SOL     OW 4687   5.662  12.228  12.184  0.7125  0.1063  0.0869
32609SOL    HW1 4688   5.726  12.184  12.129  1.1388  1.8802 -0.9279
32609SOL    HW2 4689   5.618  12.158  12.231  0.9778 -1.4191 -1.8234
32610SOL     OW 4690   5.765   9.939  10.864  0.1212 -0.2925  0.2189
32610SOL    HW1 4691   5.706   9.867  10.888  0.7225 -0.6140  0.7542
32610SOL    HW2 4692   5.833   9.898  10.811 -0.6530  0.2485 -1.2386
32611SOL     OW 4693   6.548   4.298  11.767  0.6125 -0.3867  0.1600
32611SOL    HW1 4694   6.506   4.217  11.797  2.0376 -0.8495  0.9806
32611SOL    HW2 4695   6.633   4.271  11.734  1.8101  0.9330  1.9878
32612SOL     OW 4696  11.327   0.369   0.155 -0.4107 -0.2448  0.0880
32612SOL    HW1 4697  11.419   0.343   0.161 -0.0712  0.7357 -0.4808
32612SOL    HW2 4698  11.322   0.418   0.072 -1.4270 -0.2126  0.1565
32613SOL     OW 4699   1.978   0.880   1.776  0.1695  0.4674  0.2584
32613SOL    HW1 4700   1.896   0.880   1.824 -1.3738 -0.3858 -2.1952
32613SOL    HW2 4701   1.968   0.949   1.711  1.2726  0.1576 -0.2688
32614SOL     OW 4702   4.995   8.547  12.255  0.0979  0.2565  0.0902
32614SOL    HW1 4703   5.010   8.606  12.181 -0.3239  0.2574 -0.0013
32614SOL    HW2 4704   5.054   8.578  12.323  1.4922 -0.5675 -0.6914
32615SOL     OW 4705  10.297   6.065   9.283 -0.1424  1.0318  0.3814
32615SOL    HW1 4706  10.314   6.118   9.206 -1.7513  1.5340  0.3490
32615SOL    HW2 4707  10.331   6.117   9.356 -1.1418  1.8480  0.2835
32616SOL     OW 4708   0.826   3.008   5.807 -0.4402  0.1544 -0.0864
32616SOL    HW1 4709   0.747   2.975   5.851 -0.1962 -1.6976 -0.9502
32616SOL    HW2 4710   0.895   2.948   5.834  0.3636  0.8504 -0.5570
32617SOL     OW 4711   6.565   2.687   0.629 -0.2540 -0.0015 -0.2027
32617SOL    HW1 4712   6.624   2.638   0.687 -0.1037 -0.7880 -0.9939
32617SOL    HW2 4713   6.557   2.773   0.670  0.3076 -0.3496  0.6740
32618SOL     OW 4714   5.161   1.472  10.510 -0.0278 -0.6149  0.2078
32618SOL    HW1 4715   5.095   1.461  10.441 -1.0972  0.7615  0.9638
32618SOL    HW2 4716   5.140   1.555  10.551  1.7196 -0.5204  1.0196
32619SOL     OW 4717   5.289   3.171  11.467  0.4597  0.1009 -0.4653
32619SOL    HW1 4718   5.207   3.124  11.482  0.9904 -0.9188 -0.6047
32619SOL    HW2 4719   5.264   3.262  11.458 -0.8273 -0.3474 -1.8655
32620SOL     OW 4720  11.601   3.518   8.698 -0.1944  0.2442  0.2682
32620SOL    HW1 4721  11.528   3.475   8.654 -0.0321 -0.9716  1.1177
32620SOL    HW2 4722  11.569   3.536   8.786 -0.5149  2.6478 -0.2682
32621SOL     OW 4723   4.173   7.823   9.770 -0.1022 -0.3810  0.2389
32621SOL    HW1 4724   4.083   7.856   9.770 -0.4719 -1.3536  0.1450
32621SOL    HW2 4725   4.209   7.853   9.686 -0.3107  0.0659  0.3037
32622SOL     OW 4726  11.956  11.456   9.030 -0.2196 -0.3561  0.0998
32622SOL    HW1 4727  11.997  11.495   9.108  1.7181 -1.3869 -0.3676
32622SOL    HW2 4728  11.920  11.373   9.061  2.4610 -1.8290 -0.4619
32623SOL     OW 4729   3.267   4.053  10.915  0.4533 -0.0244  0.2070
32623SOL    HW1 4730   3.293   3.987  10.851  1.2242 -1.3212  1.7867
32623SOL    HW2 4731   3.348   4.098  10.937  0.1288  0.6673  0.0017
32624SOL     OW 4732   5.269  10.279   4.855 -0.1830 -0.4545  0.1110
32624SOL    HW1 4733   5.288  10.207   4.796  2.2140 -0.6671  1.0488
32624SOL    HW2 4734   5.201  10.245   4.913  1.2480 -2.1905  0.8440
32625SOL     OW 4735   0.520   8.373   8.421  0.4672  0.1746 -0.2232
32625SOL    HW1 4736   0.437   8.334   8.391  1.6879 -2.1327 -0.9044
32625SOL    HW2 4737   0.527   8.455   8.373 -1.4443  0.4540 -0.0948
32626SOL     OW 4738   6.615  12.253  11.908 -0.1878 -0.5279 -0.3815
32626SOL    HW1 4739   6.540  12.205  11.872 -0.4260  0.4280 -1.2035
32626SOL    HW2 4740   6.575  12.321  11.963  0.1185 -0.6022 -0.0613
32627SOL     OW 4741   0.755   3.846  11.853 -0.0077  0.3386 -0.2345
32627SOL    HW1 4742   0.804   3.824  11.932 -1.0383  0.9995  0.6337
32627SOL    HW2 4743   0.807   3.914  11.810 -0.7218  2.0248  1.3828
32628SOL     OW 4744  11.453   2.349   2.591 -0.1376 -0.0471  0.8937
32628SOL    HW1 4745  11.545   2.367   2.608 -0.0214  0.2489  0.0126
32628SOL    HW2 4746  11.428   2.411   2.522 -0.6316 -0.9862  0.1913
32629SOL     OW 4747   3.589   1.292   3.183 -0.1806 -0.2138  0.3719
32629SOL    HW1 4748   3.511   1.268   3.132 -1.6220  1.1303  1.8072
32629SOL    HW2 4749   3.586   1.388   3.187  2.4596 -0.0044 -0.8297
32630SOL     OW 4750   9.978   1.685   6.372 -0.0096  0.0461  0.0594
32630SOL    HW1 4751   9.890   1.713   6.345  0.5337  1.3144 -0.4906
32630SOL    HW2 4752   9.990   1.600   6.330 -0.9421 -0.1011  0.0768
32631SOL     OW 4753   4.218   1.644   7.579  0.1989 -0.0915  0.2633
32631SOL    HW1 4754   4.280   1.662   7.649  1.3467  0.5503 -0.8709
32631SOL    HW2 4755   4.201   1.550   7.586  0.4640 -0.0723  1.2560
32632SOL     OW 4756   0.887   7.598  10.424 -0.2196 -0.3751 -0.0969
32632SOL    HW1 4757   0.893   7.690  10.448 -2.2064 -0.5667  1.4453
32632SOL    HW2 4758   0.916   7.595  10.333  2.0593  1.3668  0.4700
32633SOL     OW 4759  10.594  11.187   5.222  0.2857 -0.0975 -0.0183
32633SOL    HW1 4760  10.635  11.273   5.213 -2.3621  1.5440  2.0687
32633SOL    HW2 4761  10.658  11.135   5.271  0.9854  1.4826  0.8245
32634SOL     OW 4762   5.605  11.116   0.740 -0.4165  0.3466  0.3120
32634SOL    HW1 4763   5.630  11.031   0.777  2.1058  0.5349 -0.7218
32634SOL    HW2 4764   5.643  11.115   0.652 -2.4069  1.6504 -0.6337
32635SOL     OW 4765   4.272   1.452   7.892  0.2007  0.0710  0.4870
32635SOL    HW1 4766   4.284   1.542   7.864 -0.6643  0.1433  0.3112
32635SOL    HW2 4767   4.304   1.450   7.983  0.7937  0.3970  0.2899
32636SOL     OW 4768   1.676   1.542   2.524  0.2750  0.3505  0.1598
32636SOL    HW1 4769   1.763   1.520   2.556  0.3550  0.2413 -0.1386
32636SOL    HW2 4770   1.647   1.614   2.581  0.7242  0.6612 -0.0008
32637SOL     OW 4771   8.403  11.679   7.413 -0.3014 -0.1376 -0.1625
32637SOL    HW1 4772   8.370  11.682   7.503 -1.9635 -0.7021 -0.7216
32637SOL    HW2 4773   8.442  11.592   7.405 -0.1803 -0.0990 -0.0130
32638SOL     OW 4774  10.543   5.272   8.872  0.7034  0.3659  0.6878
32638SOL    HW1 4775  10.592   5.342   8.915  1.7598  0.7931 -1.1429
32638SOL    HW2 4776  10.551   5.290   8.779 -1.3539 -0.6512  0.2608
32639SOL     OW 4777  10.835   5.852   5.105 -0.2267 -0.3251 -0.3088
32639SOL    HW1 4778  10.858   5.944   5.119  0.2048 -0.4508 -0.1885
32639SOL    HW2 4779  10.875   5.806   5.178 -1.8284 -0.4089  0.5555
32640SOL     OW 4780   9.367   8.247   8.249  0.0393 -0.0298 -0.2678
32640SOL    HW1 4781   9.435   8.199   8.297 -0.4730 -1.1585 -0.6248
32640SOL    HW2 4782   9.350   8.192   8.172  0.9137  1.7578 -1.8142
32641SOL     OW 4783   5.244   1.664   8.065 -0.0743 -0.0870 -0.4352
32641SOL    HW1 4784   5.168   1.723   8.067 -0.1759 -0.2367  0.1388
32641SOL    HW2 4785   5.229   1.609   7.988 -0.9755 -0.6865  0.1585
32642SOL     OW 4786   6.240   1.522   4.682  0.2717  0.0366 -0.0336
32642SOL    HW1 4787   6.281   1.558   4.760 -0.2848  1.0054 -0.1720
32642SOL    HW2 4788   6.150   1.502   4.710  0.3458 -0.5137 -0.1755
32643SOL     OW 4789   0.763   7.265   9.236 -0.0181 -0.1181 -0.5850
32643SOL    HW1 4790   0.670   7.286   9.225 -1.0631 -1.7920  3.2253
32643SOL    HW2 4791   0.764   7.191   9.296  3.8369  0.3299  0.1893
32644SOL     OW 4792  10.793   9.923   6.126 -0.4634  0.0453 -0.0657
32644SOL    HW1 4793  10.834   9.863   6.188  0.6656  2.0048  1.1939
32644SOL    HW2 4794  10.797  10.009   6.169 -1.0933  1.2222 -2.1911
32645SOL     OW 4795   5.387   8.936   0.929  0.0741 -0.2324 -0.4049
32645SOL    HW1 4796   5.450   8.954   0.859 -0.3878 -0.6617 -0.9315
32645SOL    HW2 4797   5.368   8.843   0.921 -0.7112 -0.0821 -0.3125
32646SOL     OW 4798  11.917   2.599   0.527  0.1242  0.0176  0.5217
32646SOL    HW1 4799  11.842   2.564   0.479 -1.7232  2.0565  1.7007
32646SOL    HW2 4800  11.951   2.525   0.576 -1.2599 -0.9444  0.0954
32647SOL     OW 4801  10.890   8.782  11.127  0.1741  0.3495 -0.9186
32647SOL    HW1 4802  10.822   8.745  11.183  2.4953 -0.1631  1.8407
32647SOL    HW2 4803  10.864   8.873  11.115 -1.3285 -0.0014 -0.5710
32648SOL     OW 4804   0.127   3.747   2.511  0.0557 -0.1692  0.4067
32648SOL    HW1 4805   0.152   3.716   2.598  0.3006 -0.1890  0.3304
32648SOL    HW2 4806   0.118   3.667   2.458 -2.5665 -0.3727  1.0287
32649SOL     OW 4807   6.696   2.060   6.872  0.0411 -0.2758  0.3067
32649SOL    HW1 4808   6.663   1.997   6.808  0.8096 -0.4725  0.0965
32649SOL    HW2 4809   6.697   2.143   6.826  1.9677 -0.6687 -0.4307
32650SOL     OW 4810   5.698  10.024  11.141 -0.4262 -0.2619  0.3525
32650SOL    HW1 4811   5.690   9.940  11.187  3.3422 -1.8518 -1.4210
32650SOL    HW2 4812   5.719  10.000  11.051  0.3986  2.5958 -0.3334
32651SOL     OW 4813  11.525   6.901   7.814  0.1150  0.5875  0.1355
32651SOL    HW1 4814  11.487   6.852   7.887 -0.8259 -0.6859 -1.1477
32651SOL    HW2 4815  11.617   6.913   7.838 -0.0969 -0.0943  1.3623
32652SOL     OW 4816  10.295   6.614   9.755 -0.4843  0.4323 -0.1772
32652SOL    HW1 4817  10.308   6.695   9.706  2.1770  0.2493  0.1028
32652SOL    HW2 4818  10.201   6.614   9.776 -0.7890  2.8201 -1.1909
32653SOL     OW 4819   9.021   3.133   1.879  0.2044 -0.1824  0.6806
32653SOL    HW1 4820   8.975   3.185   1.813 -0.4400  1.1053  2.0860
32653SOL    HW2 4821   9.001   3.042   1.857  0.6839  0.1555 -1.3654
32654SOL     OW 4822   4.468   8.148  12.440 -0.1294  0.0970  0.2602
32654SOL    HW1 4823   4.506   8.156  12.353 -0.7502 -0.1364 -0.0361
32654SOL    HW2 4824   4.375   8.132  12.425 -0.2019 -0.2057  0.9559
32655SOL     OW 4825  10.407  11.593   2.066 -0.2201  0.5891  0.5723
32655SOL    HW1 4826  10.474  11.562   2.005 -1.2789 -0.4613 -0.0894
32655SOL    HW2 4827  10.324  11.568   2.026 -1.0331  1.8075  1.4069
32656SOL     OW 4828  10.760   0.852   1.862 -0.4217  0.0782 -0.5063
32656SOL    HW1 4829  10.679   0.843   1.912  0.7943 -0.5138  1.4921
32656SOL    HW2 4830  10.766   0.771   1.811 -0.8953 -0.0493 -0.3591
32657SOL     OW 4831  10.480   6.403  11.234 -1.0543 -0.2175  0.4248
32657SOL    HW1 4832  10.462   6.407  11.140  0.0041  0.4023  0.2295
32657SOL    HW2 4833  10.433   6.479  11.270 -0.2018  0.4584  0.1538
32658SOL     OW 4834  11.060  12.167   0.066  0.1998 -0.2957  0.0425
32658SOL    HW1 4835  10.967  12.150   0.050  0.3752 -0.1808 -1.2223
32658SOL    HW2 4836  11.075  12.136   0.155 -0.9097 -0.8853  0.0465
32659SOL     OW 4837   6.910   5.730   0.528  0.2349 -0.0313  0.1142
32659SOL    HW1 4838   6.840   5.716   0.465  0.4819 -1.2988  0.1005
32659SOL    HW2 4839   6.865   5.760   0.607 -0.1848  0.4589 -0.3038
32660SOL     OW 4840  11.386   1.842   5.801 -0.0009  0.0132 -0.0643
32660SOL    HW1 4841  11.468   1.892   5.807  0.8589 -1.1730 -1.3170
32660SOL    HW2 4842  11.361   1.847   5.709  0.6128 -2.5290 -0.4625
32661SOL     OW 4843   2.195   6.405  10.345  0.1987 -0.3508  0.0609
32661SOL    HW1 4844   2.150   6.431  10.425  1.3621 -0.4319  0.7660
32661SOL    HW2 4845   2.144   6.331  10.312 -0.3425 -0.2661  0.6798
32662SOL     OW 4846   7.436  10.828   8.451  0.4555  0.1478 -0.1646
32662SOL    HW1 4847   7.417  10.921   8.463  2.0949  0.4223  0.5591
32662SOL    HW2 4848   7.410  10.787   8.533 -1.8885 -0.3747 -1.0816
32663SOL     OW 4849   7.417   1.407   8.423 -0.4740 -0.0994 -0.1858
32663SOL    HW1 4850   7.493   1.349   8.424 -0.3366  0.0820  0.9073
32663SOL    HW2 4851   7.440   1.477   8.484 -0.9503  0.7013 -0.9061
32664SOL     OW 4852   7.241  10.328   3.492  0.3307 -0.5977 -0.1613
32664SOL    HW1 4853   7.270  10.251   3.443  2.0638 -0.6061  0.7953
32664SOL    HW2 4854   7.288  10.401   3.451 -0.3638 -0.2045 -0.2756
32665SOL     OW 4855   1.744   4.909   4.274 -0.9854  0.2386 -0.0604
32665SOL    HW1 4856   1.819   4.885   4.329 -0.5962 -0.3573 -0.8333
32665SOL    HW2 4857   1.764   4.997   4.244  0.2474 -0.5148 -1.5986
32666SOL     OW 4858   6.976  11.939   6.259  0.1323 -0.1865 -0.1947
32666SOL    HW1 4859   7.063  11.939   6.298  0.0788 -0.1173 -0.0762
32666SOL    HW2 4860   6.944  12.029   6.270 -0.0760 -0.2873  0.0308
32667SOL     OW 4861  11.870   1.177  11.857 -0.1180  0.2571 -0.0209
32667SOL    HW1 4862  11.835   1.137  11.936  1.1988 -1.2444 -0.1518
32667SOL    HW2 4863  11.922   1.251  11.888 -0.2821  0.1719  0.4552
32668SOL     OW 4864   2.479   5.795   3.923  0.5329 -0.2015  0.2862
32668SOL    HW1 4865   2.541   5.799   3.995  0.7704  2.3952  0.0344
32668SOL    HW2 4866   2.413   5.732   3.951  0.4579  0.9440  2.9551
32669SOL     OW 4867  12.433   6.529   9.374 -0.5853  0.3147  0.1163
32669SOL    HW1 4868  12.491   6.604   9.361  0.7363 -0.6437  0.3098
32669SOL    HW2 4869  12.463   6.464   9.310 -1.5515 -0.1550  0.1172
32670SOL     OW 4870   3.607  11.689   7.722  0.2522 -0.0964  0.3481
32670SOL    HW1 4871   3.634  11.597   7.718  0.3321 -0.0444 -0.7928
32670SOL    HW2 4872   3.532  11.690   7.781  0.6759 -0.7827  0.9116
32671SOL     OW 4873   7.891   1.010   0.092  0.5538  0.1274  0.6337
32671SOL    HW1 4874   7.926   0.934   0.140  1.7233 -0.5918 -1.2344
32671SOL    HW2 4875   7.941   1.084   0.125  0.9127 -0.2481  0.9500
32672SOL     OW 4876   5.081  12.137   9.230 -0.1637  0.2462  0.1125
32672SOL    HW1 4877   5.150  12.077   9.201  0.1565  0.4971  0.3414
32672SOL    HW2 4878   5.000  12.101   9.194 -0.2220 -1.2594  1.5884
32673SOL     OW 4879   5.862   3.532  12.422  0.4338  0.0511  0.8670
32673SOL    HW1 4880   5.923   3.568  12.358  0.1493  1.6835  1.4393
32673SOL    HW2 4881   5.775   3.555  12.388  0.2094 -0.6392  0.9602
32674SOL     OW 4882   1.709   2.042   0.703  0.1476  0.1020 -0.1695
32674SOL    HW1 4883   1.640   2.080   0.648 -0.8345  0.9743  1.5623
32674SOL    HW2 4884   1.670   1.961   0.737  0.3751  0.0550 -0.0207
32675SOL     OW 4885   8.900   5.376   9.527  0.2408 -0.4137 -0.4840
32675SOL    HW1 4886   8.812   5.361   9.493  0.3559 -0.3853 -0.7946
32675SOL    HW2 4887   8.886   5.409   9.616 -0.1315  1.3180 -1.1416
32676SOL     OW 4888   4.961   2.710  10.072 -0.3733  0.0857 -0.1062
32676SOL    HW1 4889   5.012   2.723  10.152 -0.2509  1.6744 -0.4138
32676SOL    HW2 4890   5.027   2.700  10.003 -0.4760  0.8535 -0.3184
32677SOL     OW 4891  11.351   6.658   5.032 -0.3835  0.1509 -0.4385
32677SOL    HW1 4892  11.318   6.585   4.980  0.1800 -0.8794  0.6246
32677SOL    HW2 4893  11.445   6.642   5.041 -0.6166 -0.2509  1.7235
32678SOL     OW 4894  10.761   6.997   9.326 -0.4314 -0.0325  0.3158
32678SOL    HW1 4895  10.827   7.013   9.394 -0.9524  0.1158  0.7985
32678SOL    HW2 4896  10.719   7.082   9.313 -1.1856 -0.3373  0.7237
32679SOL     OW 4897   8.362   7.207  10.406  0.1871  0.2284 -0.0409
32679SOL    HW1 4898   8.411   7.155  10.470 -1.8852 -0.0357  1.4141
32679SOL    HW2 4899   8.419   7.209  10.329  2.2723 -0.4095  1.3958
32680SOL     OW 4900   3.750   9.024   1.690 -0.3888  0.4074 -0.2364
32680SOL    HW1 4901   3.730   8.961   1.760  0.6388  1.8983  1.4856
32680SOL    HW2 4902   3.843   9.042   1.701 -0.7097  2.4079 -0.5368
32681SOL     OW 4903   8.080   4.993   9.444 -0.1304  0.4767  0.1663
32681SOL    HW1 4904   8.036   5.044   9.511  0.9773  2.1717 -0.3204
32681SOL    HW2 4905   8.092   4.906   9.482 -1.9458  0.6044  1.0798
32682SOL     OW 4906   8.081   9.823   4.477  0.0470 -0.7111 -0.0013
32682SOL    HW1 4907   8.102   9.916   4.469  0.2414 -0.9192 -4.4932
32682SOL    HW2 4908   7.985   9.820   4.480  0.0658 -0.3706  1.3277
32683SOL     OW 4909  11.402  12.408  10.101  0.3404  0.1347  0.7072
32683SOL    HW1 4910  11.490  12.422  10.064  0.4696 -1.0867  0.4897
32683SOL    HW2 4911  11.344  12.454  10.041  0.9889  3.2674  2.3125
32684SOL     OW 4912   9.712   8.646   4.132 -0.3346 -0.4541  0.2254
32684SOL    HW1 4913   9.704   8.686   4.219 -0.0963  0.3401 -0.1086
32684SOL    HW2 4914   9.723   8.721   4.073  0.7394 -1.0549 -0.3434
32685SOL     OW 4915   3.931   1.308   9.306  0.1140  0.2522  0.4442
32685SOL    HW1 4916   3.918   1.395   9.345  1.6552  0.1722  1.2336
32685SOL    HW2 4917   3.976   1.258   9.375  0.5188 -0.7321 -0.5087
32686SOL     OW 4918   0.963  11.911   3.831  0.1619  0.2321  0.2801
32686SOL    HW1 4919   1.005  11.825   3.834 -0.7850 -0.2662 -0.1966
32686SOL    HW2 4920   1.008  11.962   3.898 -0.1284 -1.0425  1.5012
32687SOL     OW 4921   9.108  10.097   0.292  0.5415  0.0400 -0.1596
32687SOL    HW1 4922   9.097  10.007   0.323 -1.9832 -0.4377 -2.1493
32687SOL    HW2 4923   9.081  10.151   0.367 -0.0498 -0.9201  0.3438
32688SOL     OW 4924   8.429   6.386  11.615  0.2278 -0.0347  0.2978
32688SOL    HW1 4925   8.379   6.305  11.607  0.0521  0.1759 -0.8651
32688SOL    HW2 4926   8.500   6.364  11.675 -1.5037 -0.2070  2.3937
32689SOL     OW 4927   9.286   0.873   3.018 -0.1948 -0.0210  0.1376
32689SOL    HW1 4928   9.274   0.925   2.938  0.7315 -1.8798 -1.3015
32689SOL    HW2 4929   9.369   0.903   3.054  1.2104 -1.5596 -1.6328
32690SOL     OW 4930   7.580   5.279   2.609  0.1437  0.1672 -0.6346
32690SOL    HW1 4931   7.637   5.278   2.533  0.1991  1.6592 -0.6380
32690SOL    HW2 4932   7.638   5.295   2.683 -0.0436 -0.2345 -0.3915
32691SOL     OW 4933   9.954   7.921   2.745  0.0924 -0.2618 -0.0125
32691SOL    HW1 4934   9.906   7.949   2.667  1.5605 -2.5110 -1.8348
32691SOL    HW2 4935  10.042   7.957   2.733  0.1634 -0.0967  0.9521
32692SOL     OW 4936  10.461   4.550   9.116  0.3100  0.4213 -0.4982
32692SOL    HW1 4937  10.532   4.614   9.117  1.1791 -0.5112  0.6181
32692SOL    HW2 4938  10.385   4.599   9.086  1.3244  1.5517 -1.3042
32693SOL     OW 4939   6.167  11.326   5.200  0.6403 -0.0773 -0.7793
32693SOL    HW1 4940   6.154  11.234   5.223  0.1318 -0.0917 -1.1049
32693SOL    HW2 4941   6.227  11.359   5.266  0.6999 -0.6053 -0.5666
32694SOL     OW 4942   8.278   0.585   0.335  0.3779  0.3004 -0.5589
32694SOL    HW1 4943   8.296   0.616   0.247 -1.4588  0.5720 -0.8718
32694SOL    HW2 4944   8.290   0.662   0.391  0.9652  0.2663 -0.6279
32695SOL     OW 4945  11.202  10.799   0.020 -0.1554  0.3259  0.0633
32695SOL    HW1 4946  11.239  10.874  -0.025  0.2943  0.7712  1.1470
32695SOL    HW2 4947  11.107  10.813   0.015 -0.1302  0.2394 -0.9291
32696SOL     OW 4948   6.865   6.525   5.712  0.3826  0.4995 -0.3774
32696SOL    HW1 4949   6.818   6.447   5.744  1.3855  0.4570  1.1009
32696SOL    HW2 4950   6.798   6.576   5.667 -0.1614 -1.5409 -2.0748
32697SOL     OW 4951   5.549  10.884   5.152 -0.0900  0.1606 -0.0009
32697SOL    HW1 4952   5.531  10.897   5.245 -0.8988 -0.5334 -0.0463
32697SOL    HW2 4953   5.605  10.958   5.127  1.4003 -0.4537  1.3706
32698SOL     OW 4954   5.342   6.569   6.719  0.2664 -0.6160 -0.4878
32698SOL    HW1 4955   5.247   6.577   6.717  0.3191 -0.0262 -1.0013
32698SOL    HW2 4956   5.358   6.475   6.723 -0.3469 -0.6670  1.5497
32699SOL     OW 4957  10.409   4.902   1.134  0.3474  0.5740  0.1362
32699SOL    HW1 4958  10.355   4.978   1.112  0.0276  0.2419 -0.2449
32699SOL    HW2 4959  10.361   4.827   1.098 -0.7004 -0.1430  2.8115
32700SOL     OW 4960   7.826   6.282   9.814  0.7143  0.5375 -0.3631
32700SOL    HW1 4961   7.848   6.265   9.723  1.3936  0.6035 -0.2121
32700SOL    HW2 4962   7.910   6.284   9.860  0.2840 -1.5105  0.6284
32701SOL     OW 4963  11.253   2.197   7.186 -0.0987 -0.2624 -1.0103
32701SOL    HW1 4964  11.285   2.240   7.265  1.2835  0.6425 -2.0180
32701SOL    HW2 4965  11.314   2.125   7.170 -0.5217 -0.6046 -1.1254
32702SOL     OW 4966   4.418   5.035   8.221  0.1011  0.2331  0.5473
32702SOL    HW1 4967   4.404   5.067   8.310 -0.3859  0.1173  0.5152
32702SOL    HW2 4968   4.341   5.066   8.173  0.1809 -0.0257  0.2567
32703SOL     OW 4969  12.340   7.623   0.879 -0.8825 -0.3021 -0.2288
32703SOL    HW1 4970  12.408   7.675   0.923 -2.8471  1.4021  0.9770
32703SOL    HW2 4971  12.321   7.670   0.798 -2.0623  0.4420  0.4524
32704SOL     OW 4972   5.891   6.120  10.480  0.7340 -0.6065  0.5521
32704SOL    HW1 4973   5.940   6.161  10.408 -1.2454  0.8107 -0.0610
32704SOL    HW2 4974   5.800   6.147  10.466 -0.2856 -3.1970  1.5966
32705SOL     OW 4975   3.622  11.110   2.952  0.0072 -0.1190 -0.2292
32705SOL    HW1 4976   3.541  11.071   2.984 -0.2120  0.1605 -0.4431
32705SOL    HW2 4977   3.645  11.175   3.018  0.1852 -0.3613 -0.0498
32706SOL     OW 4978   7.593   3.681  12.400 -0.2553  0.2749 -0.8624
32706SOL    HW1 4979   7.530   3.737  12.446 -0.8547 -0.3117 -0.9659
32706SOL    HW2 4980   7.639   3.635  12.470  0.4890  1.1465 -0.7600
32707SOL     OW 4981   2.387   5.610  10.256  0.5590 -0.1812 -0.3590
32707SOL    HW1 4982   2.473   5.649  10.270  1.1391 -1.2030 -0.8947
32707SOL    HW2 4983   2.364   5.635  10.167  1.2357 -1.5339 -0.9529
32708SOL     OW 4984   0.085   3.380   6.939 -0.2416 -0.1080  0.1035
32708SOL    HW1 4985   0.058   3.369   7.030  1.2722 -1.9334  0.4040
32708SOL    HW2 4986   0.179   3.399   6.944 -0.4235  1.2456 -1.0426
32709SOL     OW 4987   5.910   8.831   2.950 -0.3105  0.0867 -0.0684
32709SOL    HW1 4988   5.846   8.836   2.880 -0.4601 -2.5588 -0.2237
32709SOL    HW2 4989   5.941   8.740   2.948  1.7421  0.6749  1.4859
32710SOL     OW 4990  12.175   7.020   4.459  0.1636  0.0897 -0.4800
32710SOL    HW1 4991  12.089   6.997   4.492 -0.0702 -0.6201 -1.5200
32710SOL    HW2 4992  12.168   7.112   4.434 -0.1524  0.1540 -0.1576
32711SOL     OW 4993   4.563   1.511  11.725 -0.2043  0.2345 -0.0449
32711SOL    HW1 4994   4.507   1.438  11.752 -0.0559  0.0536 -0.2242
32711SOL    HW2 4995   4.583   1.492  11.633  0.3146  0.2003  0.0770
32712SOL     OW 4996   4.096   8.222   6.876 -0.3634  0.0280  0.1859
32712SOL    HW1 4997   4.093   8.291   6.942 -0.1216 -0.1186  0.3547
32712SOL    HW2 4998   4.128   8.265   6.797 -0.0866  0.0845  0.3252
32713SOL     OW 4999  11.040   0.520   6.527 -0.2152  0.5608 -0.1187
32713SOL    HW1 5000  11.021   0.609   6.556 -0.5929  0.7631 -0.9534
32713SOL    HW2 5001  11.109   0.531   6.461 -0.5711  0.2894 -0.5465
32714SOL     OW 5002   6.179   5.146   3.588 -0.2859 -0.4894  0.9613
32714SOL    HW1 5003   6.177   5.222   3.646 -0.7155 -0.2254  0.6133
32714SOL    HW2 5004   6.110   5.164   3.524 -0.0782 -0.9580  0.6029
32715SOL     OW 5005   9.833  11.135   4.195 -0.0981  0.2778 -0.2204
32715SOL    HW1 5006   9.798  11.083   4.123 -0.7007  0.9716 -0.4430
32715SOL    HW2 5007   9.873  11.211   4.152 -1.1951  1.1201  0.1983
32716SOL     OW 5008  12.380   4.037   0.059 -0.6398 -0.1901  0.4668
32716SOL    HW1 5009  12.473   4.029   0.040 -0.8752 -1.9693 -0.2185
32716SOL    HW2 5010  12.348   4.101  -0.004 -0.1710 -0.9518 -0.5846
32717SOL     OW 5011   5.469   1.035   6.222  0.3302 -0.7324  0.5351
32717SOL    HW1 5012   5.411   1.087   6.278 -1.3677  0.9562 -2.5611
32717SOL    HW2 5013   5.414   0.962   6.192  0.6073 -0.5738 -0.3871
32718SOL     OW 5014   1.305   3.522   3.704 -0.1982 -0.1277  0.3139
32718SOL    HW1 5015   1.390   3.497   3.666  1.4048  1.8386  2.3444
32718SOL    HW2 5016   1.278   3.446   3.755  0.7736 -0.4906  0.3034
32719SOL     OW 5017   1.602   6.729   5.281  0.0736  0.3810  0.5060
32719SOL    HW1 5018   1.525   6.753   5.230  0.9355  0.3001 -0.9008
32719SOL    HW2 5019   1.626   6.809   5.327 -0.6751  0.4846  0.7280
32720SOL     OW 5020   1.535  10.249   1.908 -0.2280  0.1853  0.0098
32720SOL    HW1 5021   1.547  10.300   1.988 -0.7934  0.2014  0.0858
32720SOL    HW2 5022   1.440  10.235   1.901 -0.0001 -2.4599  0.9955
32721SOL     OW 5023  11.173   1.398   0.674 -0.0699  0.3334 -0.4537
32721SOL    HW1 5024  11.165   1.337   0.748  0.2448  1.1353  0.2617
32721SOL    HW2 5025  11.098   1.377   0.618  0.1165 -0.8048 -0.2987
32722SOL     OW 5026   0.623   7.973   1.340  0.1147  0.9835 -0.4115
32722SOL    HW1 5027   0.570   7.958   1.419 -0.2839 -0.7423 -0.9634
32722SOL    HW2 5028   0.710   7.943   1.365 -0.3932 -1.2641 -1.1074
32723SOL     OW 5029   6.162   7.188  10.620  0.7211 -0.1228  0.3861
32723SOL    HW1 5030   6.189   7.117  10.561 -0.3455 -0.7654  0.6493
32723SOL    HW2 5031   6.113   7.248  10.564  0.2029 -0.4411  0.4923
32724SOL     OW 5032   4.918  10.380   7.486 -0.1380 -0.1716  0.1933
32724SOL    HW1 5033   4.883  10.297   7.519  0.4797 -1.7156 -2.6277
32724SOL    HW2 5034   4.964  10.356   7.405  0.7181  2.8517 -0.3639
32725SOL     OW 5035   5.713   9.382   1.445 -0.0320  0.0800  0.6282
32725SOL    HW1 5036   5.650   9.310   1.451 -0.3881  0.2547 -0.6748
32725SOL    HW2 5037   5.706   9.427   1.529  0.5598 -1.6793  1.6694
32726SOL     OW 5038   7.783   7.213  12.068  0.1455  0.0272  0.2320
32726SOL    HW1 5039   7.760   7.256  11.986 -1.4444  0.1793  0.7216
32726SOL    HW2 5040   7.842   7.275  12.112  1.0345 -0.0702 -0.7760
32727SOL     OW 5041   7.606  12.226   3.570  0.4879  0.9567  0.0416
32727SOL    HW1 5042   7.614  12.283   3.494 -2.8927 -0.1529 -1.3038
32727SOL    HW2 5043   7.529  12.173   3.553 -0.8259  1.0264  4.4767
32728SOL     OW 5044   2.561   5.572  12.316  0.7521 -0.2271 -0.3915
32728SOL    HW1 5045   2.644   5.523  12.323  0.4546 -0.6930 -0.0515
32728SOL    HW2 5046   2.498   5.507  12.284  0.8545  0.5121 -2.2075
32729SOL     OW 5047   5.081   4.260   4.105  0.4723 -0.1889 -0.2298
32729SOL    HW1 5048   5.167   4.235   4.139  0.9037 -3.4557 -3.2103
32729SOL    HW2 5049   5.056   4.189   4.046 -4.2312  0.6832  0.2646
32730SOL     OW 5050   9.333   6.134   3.736  0.1021  0.6621 -0.0892
32730SOL    HW1 5051   9.421   6.100   3.750  0.0433 -0.7276 -2.4519
32730SOL    HW2 5052   9.282   6.100   3.810  1.2551  0.3334  0.5765
32731SOL     OW 5053   8.362   5.044   1.091  0.7832 -1.0628  0.1258
32731SOL    HW1 5054   8.424   5.026   1.161  1.9178 -0.3989 -0.6823
32731SOL    HW2 5055   8.411   5.098   1.028 -1.1233  1.0602  0.3307
32732SOL     OW 5056   6.291   2.019   5.954  0.0356 -0.2869  1.1654
32732SOL    HW1 5057   6.361   2.066   5.908 -1.8713 -0.3646 -2.1475
32732SOL    HW2 5058   6.251   2.085   6.011  0.0205  1.0331 -0.3010
32733SOL     OW 5059   3.756   5.703  10.352 -0.1409 -0.2268  0.3394
32733SOL    HW1 5060   3.731   5.736  10.438 -0.6708 -0.1119  0.1414
32733SOL    HW2 5061   3.796   5.778  10.307  1.1019 -0.5527  0.8578
32734SOL     OW 5062   2.065   0.340  11.772  0.4514  0.5688 -0.0840
32734SOL    HW1 5063   2.047   0.333  11.679 -0.5222 -0.6305  0.1755
32734SOL    HW2 5064   2.160   0.349  11.778  0.6618 -0.8201 -1.1144
32735SOL     OW 5065   8.563   1.025   8.698 -0.3574  0.0044  0.3074
32735SOL    HW1 5066   8.487   1.082   8.704 -1.0646 -0.8092 -0.6503
32735SOL    HW2 5067   8.548   0.973   8.619  1.9977  0.9971 -0.8915
32736SOL     OW 5068   5.787   7.794   5.149  0.1563  0.7496 -0.3727
32736SOL    HW1 5069   5.820   7.863   5.091  1.2373  0.2023 -0.4341
32736SOL    HW2 5070   5.860   7.776   5.209 -0.1781 -0.1991 -0.2367
32737SOL     OW 5071   0.672  12.232   8.670  0.3394  0.1120  0.5312
32737SOL    HW1 5072   0.706  12.228   8.581  1.6559  1.4325  0.9242
32737SOL    HW2 5073   0.577  12.234   8.660  0.4858  1.3188 -0.9183
32738SOL     OW 5074   7.485  12.281   0.554 -0.6170 -0.5516 -0.1914
32738SOL    HW1 5075   7.431  12.227   0.497 -1.2169 -0.0903 -0.0810
32738SOL    HW2 5076   7.459  12.371   0.533  0.0375 -0.3255 -0.0599
32739SOL     OW 5077   4.358   6.873   4.012  0.3303 -0.7617 -0.2346
32739SOL    HW1 5078   4.279   6.921   3.989  0.4732 -0.8109 -0.8708
32739SOL    HW2 5079   4.359   6.799   3.951  1.3434 -0.2389 -0.8905
32740SOL     OW 5080   7.525   1.232   0.747  0.0399  1.0850  0.3147
32740SOL    HW1 5081   7.594   1.280   0.701 -0.9044  2.3629  0.2050
32740SOL    HW2 5082   7.562   1.214   0.834  0.8036  1.0465 -0.0098
32741SOL     OW 5083   5.618   9.202   8.715 -0.3966 -0.1544  0.3861
32741SOL    HW1 5084   5.618   9.166   8.627 -3.0634  0.9895 -0.1797
32741SOL    HW2 5085   5.708   9.231   8.729  0.3438 -1.3365 -1.5090
32742SOL     OW 5086   7.359   0.995   6.905  0.0833  0.3134  0.0619
32742SOL    HW1 5087   7.372   1.085   6.935 -0.2347  0.4844 -0.2997
32742SOL    HW2 5088   7.312   1.004   6.822 -0.1814 -0.1962  0.1505
32743SOL     OW 5089   8.037   0.178   9.799 -0.2559  0.6123  0.0461
32743SOL    HW1 5090   7.942   0.186   9.795 -0.5928 -2.2102  0.3337
32743SOL    HW2 5091   8.057   0.175   9.893  0.1194  1.1623 -0.0125
32744SOL     OW 5092   3.483   6.688   8.564  0.6008 -0.4845 -0.0901
32744SOL    HW1 5093   3.442   6.606   8.591  1.0034 -1.0653 -1.1782
32744SOL    HW2 5094   3.577   6.668   8.561  0.6655 -0.1151 -0.7739
32745SOL     OW 5095   0.213   8.736   8.264  0.5777  0.3104  0.2223
32745SOL    HW1 5096   0.286   8.793   8.290 -0.9588  1.8341  1.4106
32745SOL    HW2 5097   0.183   8.697   8.346 -1.1521  1.2209  0.0566
32746SOL     OW 5098   5.429   9.489  10.176 -0.2411  0.2566  0.0340
32746SOL    HW1 5099   5.439   9.546  10.252  1.5533  0.6108 -0.4142
32746SOL    HW2 5100   5.500   9.425  10.185 -0.8749 -0.5589 -0.6260
32747SOL     OW 5101   2.576   3.527   7.743  0.1274 -0.2931 -0.4775
32747SOL    HW1 5102   2.666   3.557   7.726  0.0114  1.1188  1.1226
32747SOL    HW2 5103   2.550   3.483   7.662  1.5509  1.0486 -1.7323
32748SOL     OW 5104   5.064   4.721   9.421  0.0504 -0.1474  0.1940
32748SOL    HW1 5105   5.072   4.766   9.505 -2.2341  0.5769  0.0987
32748SOL    HW2 5106   5.136   4.756   9.368 -1.1356  2.8735  0.3964
32749SOL     OW 5107   6.688   9.176  12.283 -0.3094 -0.1849 -0.0816
32749SOL    HW1 5108   6.702   9.124  12.362  1.2794  0.6215  0.2051
32749SOL    HW2 5109   6.617   9.131  12.237  0.2109 -1.9206  0.7309
32750SOL     OW 5110  10.492   5.563  12.120 -0.2225  0.1904 -0.2046
32750SOL    HW1 5111  10.580   5.594  12.141 -0.1382  0.0506 -0.3545
32750SOL    HW2 5112  10.438   5.595  12.193  0.6407 -3.3215  2.2803
32751SOL     OW 5113   6.299  10.097   6.913  0.5093  0.0829  0.1328
32751SOL    HW1 5114   6.239  10.094   6.838 -0.4020  0.6539  0.8202
32751SOL    HW2 5115   6.246  10.069   6.987  1.2196  0.1858  0.6893
32752SOL     OW 5116  10.213   9.048   8.490  0.6079  0.3503  0.1374
32752SOL    HW1 5117  10.156   8.976   8.516  2.3310 -0.2688  2.5134
32752SOL    HW2 5118  10.157   9.126   8.494 -0.5601 -0.4796  0.3751
32753SOL     OW 5119   3.759  11.036   9.817 -0.1186  0.1084 -0.1779
32753SOL    HW1 5120   3.764  11.100   9.747 -0.2039  0.3899  0.0720
32753SOL    HW2 5121   3.777  10.952   9.775 -0.0135  0.2973 -0.5048
32754SOL     OW 5122  11.803   6.933   8.467 -0.0684 -0.6194  0.3686
32754SOL    HW1 5123  11.746   6.958   8.393  0.4030 -0.6549 -0.0135
32754SOL    HW2 5124  11.806   7.011   8.522  2.9151  0.9756 -1.7681
32755SOL     OW 5125   3.159  10.691   6.306 -0.4720  0.6387  0.1382
32755SOL    HW1 5126   3.138  10.771   6.354 -0.1009  0.9816 -0.2725
32755SOL    HW2 5127   3.081  10.636   6.316 -1.6693  1.9353 -1.4754
32756SOL     OW 5128   1.359   3.591   9.944  0.2076  0.1972 -0.1717
32756SOL    HW1 5129   1.366   3.496   9.946 -0.1193  0.1541 -0.7977
32756SOL    HW2 5130   1.265   3.608   9.936  0.2827  0.5611 -0.3156
32757SOL     OW 5131   6.310   1.625   3.566 -0.6513  0.3171 -0.0597
32757SOL    HW1 5132   6.262   1.645   3.646  0.7958 -0.1773  0.9576
32757SOL    HW2 5133   6.258   1.666   3.497 -2.1526  0.4123  1.0596
32758SOL     OW 5134   5.718  10.842   2.594 -0.1677 -0.0486  0.2475
32758SOL    HW1 5135   5.757  10.816   2.511 -0.9741  1.3776 -0.6093
32758SOL    HW2 5136   5.629  10.805   2.591  0.0095 -0.5299  0.7622
32759SOL     OW 5137   3.491   1.314  12.334  0.2983 -0.3144 -0.1575
32759SOL    HW1 5138   3.434   1.294  12.260  1.8822 -0.8492 -1.2860
32759SOL    HW2 5139   3.573   1.270  12.314 -0.1806 -3.4535  3.5502
32760SOL     OW 5140   6.947   7.861   8.122  0.1078  0.0402  0.2010
32760SOL    HW1 5141   6.972   7.802   8.050 -2.0047 -1.8740  0.9199
32760SOL    HW2 5142   6.852   7.864   8.118  0.0050  0.7910  2.2664
32761SOL     OW 5143   9.097  11.140   7.249  0.5036 -0.4006 -0.5789
32761SOL    HW1 5144   9.149  11.211   7.286 -2.0645  1.4813 -0.3461
32761SOL    HW2 5145   9.028  11.183   7.199  0.0189 -2.7954 -2.1974
32762SOL     OW 5146   8.599   7.674   9.896  0.7304 -0.1086 -0.0074
32762SOL    HW1 5147   8.565   7.665   9.985  1.7861  0.0334  0.4208
32762SOL    HW2 5148   8.652   7.753   9.898 -0.5015  0.8092 -1.1943
32763SOL     OW 5149   0.926   7.779   6.262 -0.6147  0.3942  0.0958
32763SOL    HW1 5150   0.972   7.862   6.253 -1.4482  0.9594  0.8295
32763SOL    HW2 5151   0.988   7.721   6.305 -0.0186  0.6359 -0.4387
32764SOL     OW 5152   3.160   9.127   4.936 -0.0841 -0.0148 -0.2022
32764SOL    HW1 5153   3.149   9.203   4.879  0.5824  0.6459  0.5271
32764SOL    HW2 5154   3.114   9.056   4.890  0.5132  0.4609 -1.5980
32765SOL     OW 5155   9.003   1.828   3.552  0.1219 -0.4469  0.2457
32765SOL    HW1 5156   8.935   1.788   3.606  1.0601 -1.0560  1.0377
32765SOL    HW2 5157   9.052   1.883   3.614 -0.7552  1.4705 -0.6971
32766SOL     OW 5158   4.103  11.490   6.760 -0.3629 -0.0159  0.5273
32766SOL    HW1 5159   4.104  11.584   6.776 -0.6453 -0.2316  1.9901
32766SOL    HW2 5160   4.108  11.451   6.847  1.6593 -1.3947 -0.1447
32767SOL     OW 5161  11.988   5.909   0.850 -0.2677  0.1192  0.0391
32767SOL    HW1 5162  11.922   5.858   0.897 -0.3939  0.5890  0.3737
32767SOL    HW2 5163  12.023   5.848   0.785 -0.6474 -0.2963  0.2193
32768SOL     OW 5164   3.729   5.829   7.071  0.5049 -0.1238  0.0624
32768SOL    HW1 5165   3.810   5.864   7.035  0.2534  1.2941  0.8133
32768SOL    HW2 5166   3.661   5.856   7.009  0.5918 -1.4895 -0.6777
32769SOL     OW 5167   6.294   0.218  11.779  0.7202 -0.0771  0.2223
32769SOL    HW1 5168   6.280   0.123  11.778 -0.1844  0.0536 -0.2787
32769SOL    HW2 5169   6.320   0.237  11.869  0.0500 -0.6890  0.5547
32770SOL     OW 5170   5.963   8.915   7.335 -0.1683  0.7423 -0.4431
32770SOL    HW1 5171   6.018   8.855   7.385 -2.5940 -1.2940  0.0095
32770SOL    HW2 5172   5.903   8.952   7.400 -0.9994  0.8910 -1.2722
32771SOL     OW 5173   2.894   6.964  12.187  0.0089 -0.0535  0.5256
32771SOL    HW1 5174   2.826   6.928  12.244  0.1404 -1.3705 -0.1057
32771SOL    HW2 5175   2.944   6.888  12.159  0.9493  0.7554 -0.0510
32772SOL     OW 5176   8.675  11.851   2.826  0.2132  0.6120 -0.0646
32772SOL    HW1 5177   8.732  11.886   2.895  2.2771 -1.0995 -0.7745
32772SOL    HW2 5178   8.685  11.756   2.833  0.2764  0.3715 -2.5141
32773SOL     OW 5179  12.381   0.506  10.178 -0.0331  0.0157 -0.6441
32773SOL    HW1 5180  12.329   0.524  10.257  1.0467  1.5009 -0.2120
32773SOL    HW2 5181  12.472   0.507  10.209  0.4237  0.9115 -1.9390
32774SOL     OW 5182   4.752  12.327  11.299 -0.1084  0.0068 -0.1799
32774SOL    HW1 5183   4.746  12.409  11.347 -0.3041  0.0910 -0.3477
32774SOL    HW2 5184   4.827  12.339  11.240  0.4559 -0.2864  0.4620
32775SOL     OW 5185  10.887   5.141   3.753  0.2117  0.0635  0.4902
32775SOL    HW1 5186  10.792   5.150   3.745  0.3660  0.6430 -1.1807
32775SOL    HW2 5187  10.902   5.046   3.749 -0.4007 -0.1858  2.8224
32776SOL     OW 5188   5.093   4.043   9.643  0.2338  0.2797  0.2210
32776SOL    HW1 5189   5.174   4.031   9.694  0.3016  1.8284  0.5373
32776SOL    HW2 5190   5.030   4.076   9.707 -0.1721  0.6574 -0.3691
32777SOL     OW 5191   1.051  11.626  11.411 -0.3597 -0.2727 -0.3687
32777SOL    HW1 5192   0.959  11.635  11.385  0.2573  0.3631 -2.4254
32777SOL    HW2 5193   1.079  11.714  11.434 -0.2813 -0.4898  0.4053
32778SOL     OW 5194   8.850   5.063   7.502 -0.5038 -0.4217  0.3961
32778SOL    HW1 5195   8.927   5.051   7.447 -0.0943 -1.3677  1.1534
32778SOL    HW2 5196   8.853   5.155   7.529 -0.6346  0.0254 -1.0170
32779SOL     OW 5197   6.370  10.253  11.505  0.4462  0.0375 -0.0896
32779SOL    HW1 5198   6.395  10.195  11.433 -0.6301 -0.2531 -0.2369
32779SOL    HW2 5199   6.365  10.340  11.465  0.9308  0.0530 -0.1202
32780SOL     OW 5200  11.040   6.820  12.403 -0.5043 -0.1843 -0.7682
32780SOL    HW1 5201  11.024   6.758  12.474  0.5730 -0.9802 -1.1940
32780SOL    HW2 5202  11.046   6.767  12.324 -1.6688  0.6918 -1.4769
32781SOL     OW 5203  11.945   2.832   2.652  0.0247 -0.5398  0.0257
32781SOL    HW1 5204  11.988   2.748   2.666  0.5454 -0.0494  1.5402
32781SOL    HW2 5205  11.991   2.893   2.710 -0.2793  0.8233 -1.1086
32782SOL     OW 5206  12.394   5.818   7.395 -0.2826 -0.2154  0.0469
32782SOL    HW1 5207  12.302   5.803   7.377 -0.7914  2.0120  0.4133
32782SOL    HW2 5208  12.439   5.795   7.313 -1.2873 -0.2943 -0.4959
32783SOL     OW 5209   5.368  12.008   3.425 -0.5304 -0.3629  0.0738
32783SOL    HW1 5210   5.431  11.937   3.418 -0.9007 -0.6213 -0.6341
32783SOL    HW2 5211   5.344  12.030   3.335 -2.3424 -1.0688  0.3320
32784SOL     OW 5212  11.067  10.095   0.379  0.5655  0.0338 -0.2751
32784SOL    HW1 5213  11.132  10.034   0.344  1.2954 -0.2806  1.5283
32784SOL    HW2 5214  11.095  10.112   0.469 -2.4250 -0.9811  0.9876
32785SOL     OW 5215   1.846  10.182  11.888  0.0941 -0.1253  0.1515
32785SOL    HW1 5216   1.827  10.090  11.907 -1.5125  0.6358  2.7023
32785SOL    HW2 5217   1.778  10.231  11.934 -0.0652  2.3437 -2.4273
32786SOL     OW 5218  12.023   9.968  11.507  0.0392  0.2242 -0.4223
32786SOL    HW1 5219  12.101  10.022  11.513  0.0433  0.6783 -3.1744
32786SOL    HW2 5220  11.951  10.028  11.526  0.2030  0.5345 -0.7672
32787SOL     OW 5221   9.422   6.071   5.404 -0.4266  0.4666 -0.2064
32787SOL    HW1 5222   9.341   6.121   5.409 -0.2740  0.5962  1.6048
32787SOL    HW2 5223   9.488   6.130   5.440  0.2245 -0.1378 -0.4001
32788SOL     OW 5224   9.755   1.576   5.175 -0.1858 -0.5867  0.0235
32788SOL    HW1 5225   9.821   1.558   5.242  0.1809 -1.0287 -0.4464
32788SOL    HW2 5226   9.732   1.489   5.141  0.8907 -0.2955 -1.5990
32789SOL     OW 5227  10.341   9.660   8.756 -0.1819 -0.0064 -0.1809
32789SOL    HW1 5228  10.282   9.727   8.720 -0.4316 -0.9527 -1.6129
32789SOL    HW2 5229  10.417   9.663   8.699 -0.0390 -0.7108 -0.0272
32790SOL     OW 5230   4.991   0.162  11.600 -0.0150  0.0588 -0.4712
32790SOL    HW1 5231   4.926   0.148  11.530 -1.8737  1.3122  0.8904
32790SOL    HW2 5232   5.018   0.074  11.625 -1.9330 -0.5934 -0.4790
32791SOL     OW 5233   9.071   4.438   1.033 -0.2345  0.2772 -0.6340
32791SOL    HW1 5234   9.141   4.503   1.033 -0.5019  0.5685 -0.8981
32791SOL    HW2 5235   8.992   4.488   1.054 -0.4929  0.0972 -1.1581
32792SOL     OW 5236   3.725  11.659   8.163 -0.1366  0.0131  0.5966
32792SOL    HW1 5237   3.786  11.586   8.170 -0.1676 -0.1077 -0.3452
32792SOL    HW2 5238   3.781  11.736   8.152 -0.1212  0.0830  1.1164
32793SOL     OW 5239   6.734   5.388   5.525 -0.3143 -0.4494 -0.3325
32793SOL    HW1 5240   6.686   5.446   5.584 -0.9459 -2.1219  0.8957
32793SOL    HW2 5241   6.676   5.379   5.449 -1.0127 -0.7851  0.2175
32794SOL     OW 5242  12.446   0.488   4.517 -0.2312 -0.6469  0.0894
32794SOL    HW1 5243  12.405   0.538   4.446 -1.4263 -0.3925  0.9457
32794SOL    HW2 5244  12.421   0.398   4.500 -0.5200 -0.5858  0.1958
32795SOL     OW 5245   4.474   4.194   0.315 -0.0663 -0.1713 -0.6925
32795SOL    HW1 5246   4.422   4.114   0.319  1.0960 -0.9755 -1.1583
32795SOL    HW2 5247   4.433   4.253   0.378 -3.2283  0.2850 -2.9263
32796SOL     OW 5248   4.711   5.204   6.255 -0.3205  0.4866  0.4843
32796SOL    HW1 5249   4.751   5.157   6.329 -0.9144 -1.2412 -0.2422
32796SOL    HW2 5250   4.684   5.135   6.195 -2.6274  1.6838  0.0317
32797SOL     OW 5251   4.885  11.904   9.889 -0.0625 -0.1480  0.0926
32797SOL    HW1 5252   4.814  11.896   9.825  0.2059  0.3071 -0.2584
32797SOL    HW2 5253   4.859  11.979   9.943 -0.2329 -0.4626  0.4581
32798SOL     OW 5254   8.501   8.577   3.633 -0.1373  0.4672  0.1332
32798SOL    HW1 5255   8.476   8.669   3.642  1.1008  0.7415  1.2308
32798SOL    HW2 5256   8.431   8.528   3.676 -0.2472  0.9895  0.5539
32799SOL     OW 5257   6.752  12.228  10.586 -0.0332 -0.3621  0.5419
32799SOL    HW1 5258   6.842  12.240  10.616  0.6435  1.1623 -1.8406
32799SOL    HW2 5259   6.741  12.292  10.516 -2.7568 -1.0253  0.2393
32800SOL     OW 5260   9.192   3.225   4.408  0.0502 -0.1628  0.0493
32800SOL    HW1 5261   9.235   3.247   4.325  0.8919  0.0589  0.5374
32800SOL    HW2 5262   9.143   3.145   4.389  1.5529 -1.0530 -0.2450
32801SOL     OW 5263  10.839   7.777   6.432 -0.5750 -0.0804 -0.7400
32801SOL    HW1 5264  10.932   7.768   6.451 -0.4811 -0.6423 -1.4213
32801SOL    HW2 5265  10.795   7.767   6.517 -0.2395 -3.3200 -0.8293
32802SOL     OW 5266  10.236   2.888  11.538 -0.1321  0.1630  0.3381
32802SOL    HW1 5267  10.318   2.853  11.503  0.3052 -0.1722  1.6331
32802SOL    HW2 5268  10.261   2.973  11.576 -0.0410 -0.5968  2.0643
32803SOL     OW 5269  10.563   1.414   7.042 -0.5204  0.1185  0.5820
32803SOL    HW1 5270  10.620   1.476   6.996  0.1760 -0.1945  0.9943
32803SOL    HW2 5271  10.479   1.457   7.048 -0.4419  0.4226 -0.4271
32804SOL     OW 5272   4.594  11.520   3.073 -0.0035  0.5701  0.4828
32804SOL    HW1 5273   4.611  11.445   3.130 -2.5836 -0.1399  0.4173
32804SOL    HW2 5274   4.523  11.491   3.016 -1.9317  3.4697  1.2553
32805SOL     OW 5275  11.568   5.816   9.349  0.1258  0.7226 -0.4853
32805SOL    HW1 5276  11.635   5.801   9.415 -1.2342 -1.1234  0.5690
32805SOL    HW2 5277  11.515   5.887   9.384  0.7342  1.3053 -0.7165
32806SOL     OW 5278   7.612   8.331   2.011 -0.3141 -0.2812 -0.2255
32806SOL    HW1 5279   7.532   8.366   2.051 -0.3531  0.2879 -0.7892
32806SOL    HW2 5280   7.585   8.248   1.973 -0.6712 -0.0398 -0.5072
32807SOL     OW 5281   5.479   1.516   6.419  0.0718  0.3940  0.0396
32807SOL    HW1 5282   5.394   1.498   6.378 -0.3149 -0.1333  1.0241
32807SOL    HW2 5283   5.468   1.486   6.509  1.6506 -0.6684 -0.0876
32808SOL     OW 5284  10.880  12.424  11.507  0.0327 -0.4619  0.4667
32808SOL    HW1 5285  10.830  12.503  11.526 -0.0095 -0.6885  1.3480
32808SOL    HW2 5286  10.964  12.438  11.550  0.5914 -0.2644 -0.6492
32809SOL     OW 5287   5.887   3.416  11.757  0.8046 -0.0164  0.4503
32809SOL    HW1 5288   5.832   3.370  11.693  2.2171 -1.1788  0.0219
32809SOL    HW2 5289   5.832   3.423  11.835  0.2483 -1.7345  0.2604
32810SOL     OW 5290   6.848  10.361   1.195 -0.6939 -0.7939  0.4366
32810SOL    HW1 5291   6.901  10.297   1.147 -0.0368 -0.1459  0.2860
32810SOL    HW2 5292   6.793  10.401   1.127  2.8356  2.8238 -0.6534
32811SOL     OW 5293   5.204   3.873   8.173 -0.3900 -0.4263 -0.4118
32811SOL    HW1 5294   5.181   3.958   8.210 -0.2274  0.1207 -1.5382
32811SOL    HW2 5295   5.127   3.847   8.122 -0.3122 -0.8098 -0.3410
32812SOL     OW 5296   8.849   3.173  12.011 -0.7638  0.1710  0.1362
32812SOL    HW1 5297   8.807   3.239  12.066 -1.2894 -1.2374  1.5018
32812SOL    HW2 5298   8.868   3.101  12.071 -0.5673 -1.0804 -1.3723
32813SOL     OW 5299   7.806   2.408   1.800  0.0215 -0.0667 -0.2547
32813SOL    HW1 5300   7.764   2.471   1.859 -0.8764  0.6107 -1.5686
32813SOL    HW2 5301   7.847   2.461   1.733 -0.2948 -0.8678 -1.0991
32814SOL     OW 5302   6.738   9.082   9.409 -0.1720 -0.4169  0.6760
32814SOL    HW1 5303   6.829   9.058   9.395  0.3709  0.8379  1.8666
32814SOL    HW2 5304   6.707   9.020   9.475  0.3837  0.3111  1.6411
32815SOL     OW 5305   5.809   9.919   2.504  0.3702  0.2721 -0.1714
32815SOL    HW1 5306   5.778   9.832   2.528  2.3561 -0.0001  1.7426
32815SOL    HW2 5307   5.744   9.979   2.539 -0.0765 -0.3882  0.1403
32816SOL     OW 5308   9.181   1.968   5.158  0.4934 -0.0018  0.3954
32816SOL    HW1 5309   9.252   1.932   5.105  1.7343  0.2919  1.8080
32816SOL    HW2 5310   9.197   1.934   5.246 -1.5978 -0.5942  0.5986
32817SOL     OW 5311   7.248   8.719   4.619 -0.5759 -0.0564 -0.5878
32817SOL    HW1 5312   7.212   8.664   4.550 -2.1072 -0.0678  0.1936
32817SOL    HW2 5313   7.238   8.668   4.699 -0.6334  0.7471 -0.0684
32818SOL     OW 5314   4.323   4.935   4.970 -0.1483  0.0452 -0.3614
32818SOL    HW1 5315   4.287   4.868   5.029  1.2276 -0.0531  0.3977
32818SOL    HW2 5316   4.317   4.895   4.883  1.5724 -1.5355  0.1781
32819SOL     OW 5317   8.447   7.548   1.325  0.0132  0.6900 -0.0441
32819SOL    HW1 5318   8.476   7.458   1.344  1.2359  1.2303  0.7969
32819SOL    HW2 5319   8.491   7.570   1.243  1.3649  1.2049  0.7881
32820SOL     OW 5320   8.923  11.433  12.151 -0.3960 -0.2140  0.4487
32820SOL    HW1 5321   8.925  11.455  12.244 -1.7084 -0.6803  0.5991
32820SOL    HW2 5322   8.886  11.345  12.148  0.6680 -0.6479 -0.4512
32821SOL     OW 5323   4.701   3.622  11.687  0.2949 -0.5744  0.8836
32821SOL    HW1 5324   4.618   3.646  11.728  0.2649 -0.5894  0.8332
32821SOL    HW2 5325   4.767   3.641  11.753  0.1781 -1.3585  1.2390
32822SOL     OW 5326   0.271   9.570  12.215  0.3985 -0.5123  0.3498
32822SOL    HW1 5327   0.185   9.593  12.250  0.5276 -1.3062  1.2331
32822SOL    HW2 5328   0.260   9.480  12.184  0.6704 -0.3003 -0.3851
32823SOL     OW 5329  12.152   9.444   4.660  0.0518 -0.3548 -0.5146
32823SOL    HW1 5330  12.224   9.500   4.630 -0.1602  0.2090  0.0200
32823SOL    HW2 5331  12.190   9.356   4.662  0.5371 -0.1578 -0.8726
32824SOL     OW 5332   8.588   2.274  12.313 -0.0296 -0.1061 -0.5812
32824SOL    HW1 5333   8.683   2.280  12.324 -0.1256  1.1963 -0.3795
32824SOL    HW2 5334   8.575   2.205  12.248  1.0003 -1.0258  0.1496
32825SOL     OW 5335   6.412   1.495   0.742 -0.6453 -0.0913  0.0052
32825SOL    HW1 5336   6.319   1.520   0.738 -0.5783  0.3057  0.7180
32825SOL    HW2 5337   6.444   1.536   0.823 -0.2305 -1.4896  0.5854
32826SOL     OW 5338   5.296   4.022  12.050  0.5495  0.1214 -0.1938
32826SOL    HW1 5339   5.295   3.957  11.979 -1.4438 -2.0119  1.6326
32826SOL    HW2 5340   5.333   3.975  12.125 -1.2367  0.9341  1.2639
32827SOL     OW 5341   6.576  11.632  12.238  0.0280 -0.5033 -0.2645
32827SOL    HW1 5342   6.652  11.684  12.212  0.0176  0.4268  1.4251
32827SOL    HW2 5343   6.612  11.546  12.258  0.4663 -0.3938 -0.5584
32828SOL     OW 5344   2.257   6.808   8.925  0.1011 -1.2288 -0.1210
32828SOL    HW1 5345   2.261   6.846   9.013  1.2459 -2.5637  0.4399
32828SOL    HW2 5346   2.177   6.756   8.925 -0.1791 -0.8072 -0.0657
32829SOL     OW 5347  11.986   2.183   7.628 -0.0996  0.1549  0.4528
32829SOL    HW1 5348  12.038   2.248   7.675 -0.8497  1.6235 -0.6493
32829SOL    HW2 5349  12.041   2.105   7.627  2.2694  1.7011 -0.9409
32830SOL     OW 5350  12.091   9.773   1.768  0.4050  1.0498  0.1248
32830SOL    HW1 5351  12.018   9.832   1.747 -0.7095  0.7335  2.6370
32830SOL    HW2 5352  12.049   9.689   1.784  1.7201  0.1005 -1.1786
32831SOL     OW 5353   2.165  11.861   8.862 -0.2873 -0.2543 -0.5061
32831SOL    HW1 5354   2.198  11.782   8.905 -1.3515 -0.4392 -0.0095
32831SOL    HW2 5355   2.103  11.828   8.796 -0.5352  0.1470 -0.4773
32832SOL     OW 5356   7.637   9.917   2.719 -0.2751 -0.2160 -0.2800
32832SOL    HW1 5357   7.678   9.838   2.754 -0.8547  0.0683  1.0691
32832SOL    HW2 5358   7.634   9.902   2.624  2.2600 -0.5601 -0.3810
32833SOL     OW 5359   6.552   4.643   3.231 -1.0629  0.4053  0.0908
32833SOL    HW1 5360   6.525   4.553   3.208  0.1681 -0.2763  1.1777
32833SOL    HW2 5361   6.481   4.676   3.286 -0.6840 -0.6061  1.2283
32834SOL     OW 5362   6.965   1.085   2.925  0.0715 -0.1746  0.1396
32834SOL    HW1 5363   6.895   1.081   2.990 -1.4602 -1.6777 -1.5016
32834SOL    HW2 5364   7.035   1.133   2.969 -0.8126 -1.2159  2.9382
32835SOL     OW 5365   8.222   7.507  12.435  0.1517  0.2948  0.3897
32835SOL    HW1 5366   8.129   7.493  12.451 -0.4996  1.5596 -1.8848
32835SOL    HW2 5367   8.226   7.556  12.352  2.8426  0.1811  0.3464
32836SOL     OW 5368   7.716   9.862  10.579  0.3745  0.5266  0.2661
32836SOL    HW1 5369   7.682   9.951  10.592  0.4940  0.5423  0.4765
32836SOL    HW2 5370   7.788   9.854  10.642  1.3390  0.7961 -0.7485
32837SOL     OW 5371   5.903   6.149   5.550 -0.0393  0.0363  0.1509
32837SOL    HW1 5372   5.939   6.060   5.544 -0.1938  0.0514 -1.3106
32837SOL    HW2 5373   5.823   6.146   5.499 -0.2154  0.9516  0.3523
32838SOL     OW 5374  10.812   3.991   2.330  0.3004 -0.1024  0.2694
32838SOL    HW1 5375  10.891   3.943   2.354 -0.8401 -1.0764  2.4780
32838SOL    HW2 5376  10.790   4.041   2.409  0.2351  2.4273 -1.2389
32839SOL     OW 5377   4.596   6.643   0.385 -0.2141  0.4222  0.6913
32839SOL    HW1 5378   4.573   6.565   0.336  0.4067  0.5283  0.2208
32839SOL    HW2 5379   4.522   6.656   0.445 -0.0183 -0.9052  1.2529
32840SOL     OW 5380  10.682   5.688   7.745  0.3979 -0.1758 -0.4493
32840SOL    HW1 5381  10.622   5.647   7.807  1.0766  1.5839  1.4785
32840SOL    HW2 5382  10.625   5.739   7.687 -0.0783  1.0586  1.0296
32841SOL     OW 5383  11.577   3.512   6.161 -0.2198  0.6304 -0.6420
32841SOL    HW1 5384  11.552   3.583   6.102  0.6461  0.8150 -0.8038
32841SOL    HW2 5385  11.548   3.433   6.117 -0.0938  0.8062 -1.0467
32842SOL     OW 5386   4.588   5.055   3.050  0.0902  0.0112 -0.0351
32842SOL    HW1 5387   4.551   5.087   2.968  0.3879 -1.1922 -0.6667
32842SOL    HW2 5388   4.516   5.060   3.112 -0.8566 -1.2843 -0.9788
32843SOL     OW 5389   0.995  10.239   2.271 -0.0279  0.4530 -0.1258
32843SOL    HW1 5390   1.072  10.186   2.254  0.0958  0.8439 -0.8304
32843SOL    HW2 5391   0.929  10.177   2.302  0.2174 -0.0533 -0.6116
32844SOL     OW 5392   8.065   8.844   4.611  0.1901 -0.2664  0.2475
32844SOL    HW1 5393   8.004   8.813   4.545  0.2766 -1.1277  0.5642
32844SOL    HW2 5394   8.049   8.939   4.615  0.1475 -0.2080 -0.9502
32845SOL     OW 5395  10.701   0.537   5.631  0.0125  0.2920  0.1307
32845SOL    HW1 5396  10.662   0.603   5.574 -2.5540 -1.6418 -0.5639
32845SOL    HW2 5397  10.793   0.561   5.636 -0.8008  4.0495  0.2039
32846SOL     OW 5398  11.343  10.789  11.574  0.2842 -0.0468 -0.2182
32846SOL    HW1 5399  11.410  10.738  11.620  1.0841  0.7261 -0.4872
32846SOL    HW2 5400  11.390  10.866  11.543 -0.6701  0.3446 -0.7129
32847SOL     OW 5401   1.380   5.862   7.152 -0.6115 -0.2951 -0.5977
32847SOL    HW1 5402   1.308   5.875   7.213 -1.4667 -1.2089 -1.3933
32847SOL    HW2 5403   1.444   5.929   7.176 -2.8026  2.3281 -1.5509
32848SOL     OW 5404   8.218   6.499   0.627  0.1079 -0.5545 -0.1147
32848SOL    HW1 5405   8.245   6.407   0.631  0.1606 -0.5055  0.8181
32848SOL    HW2 5406   8.293   6.545   0.591  0.3298 -0.7860  0.0517
32849SOL     OW 5407   0.523   7.631   4.323 -0.0786 -0.4466 -0.2781
32849SOL    HW1 5408   0.587   7.666   4.261  1.1461  0.6378  1.5095
32849SOL    HW2 5409   0.574   7.576   4.382 -1.3590 -2.1378 -0.6718
32850SOL     OW 5410   9.055   1.128   0.463  0.2940  0.0618  0.0655
32850SOL    HW1 5411   9.051   1.064   0.392  1.0946  1.0649 -0.9192
32850SOL    HW2 5412   9.021   1.082   0.539 -1.2293 -0.8368 -1.1137
32851SOL     OW 5413   4.431   0.352   7.912 -0.4083 -0.1510 -0.1047
32851SOL    HW1 5414   4.448   0.295   7.837 -0.6817 -0.3980  0.0228
32851SOL    HW2 5415   4.513   0.402   7.922 -0.9577  1.1428 -1.6398
32852SOL     OW 5416   7.162   1.970   3.215  1.0894  0.3638  0.0860
32852SOL    HW1 5417   7.188   1.948   3.304 -0.2212 -1.1977  0.1303
32852SOL    HW2 5418   7.226   1.927   3.159  0.7614 -0.3565  0.2546
32853SOL     OW 5419   1.571   4.641   6.038 -0.3393 -0.6259 -0.1126
32853SOL    HW1 5420   1.488   4.679   6.067 -0.6981 -1.7470  0.3930
32853SOL    HW2 5421   1.594   4.691   5.959 -1.6721 -0.5244 -0.4561
32854SOL     OW 5422   6.884   8.156   2.879  0.0028 -0.4524 -0.1926
32854SOL    HW1 5423   6.904   8.081   2.935  1.7658 -0.2856 -0.5546
32854SOL    HW2 5424   6.863   8.118   2.794 -1.2435 -0.6210  0.1643
32855SOL     OW 5425   9.394   8.925   4.793  0.7541  0.5099 -0.2957
32855SOL    HW1 5426   9.353   8.841   4.815  1.3853 -0.1340 -1.4879
32855SOL    HW2 5427   9.355   8.988   4.854  0.4197 -0.6849  0.7527
32856SOL     OW 5428   2.168   4.653   6.721 -0.1729  0.4003  0.0878
32856SOL    HW1 5429   2.263   4.655   6.707 -0.0745  3.1981  0.5691
32856SOL    HW2 5430   2.158   4.608   6.805  0.6963 -0.1039 -0.0627
32857SOL     OW 5431   3.597   3.292  11.720 -0.0276  0.0112 -0.2291
32857SOL    HW1 5432   3.566   3.342  11.645 -1.2775 -1.0568 -0.4645
32857SOL    HW2 5433   3.689   3.317  11.729 -0.4840  2.0207 -0.5662
32858SOL     OW 5434   5.346  10.440   4.431 -0.0587  0.1580  0.0376
32858SOL    HW1 5435   5.404  10.474   4.498 -0.6685  0.7037  0.2953
32858SOL    HW2 5436   5.404  10.394   4.370  0.3518 -1.9093  1.8343
32859SOL     OW 5437   5.353  11.234   3.119 -0.2404  0.6011  0.3220
32859SOL    HW1 5438   5.355  11.252   3.213 -0.4032  2.3301  0.0134
32859SOL    HW2 5439   5.400  11.307   3.079 -1.3349  0.6085 -1.0382
32860SOL     OW 5440   8.781   1.817   3.014 -0.9449 -0.0286  0.4784
32860SOL    HW1 5441   8.788   1.839   3.107  2.0519 -0.0534  0.3415
32860SOL    HW2 5442   8.799   1.723   3.010 -1.0604 -0.0277 -0.1335
32861SOL     OW 5443  11.297   4.543  11.333  0.7051  0.4636  0.1047
32861SOL    HW1 5444  11.231   4.474  11.341  1.3858 -0.0952  1.0541
32861SOL    HW2 5445  11.275   4.606  11.401  1.5870 -0.1077  0.9345
32862SOL     OW 5446   1.969   5.705   2.998 -0.0880 -0.2993 -0.8716
32862SOL    HW1 5447   2.008   5.738   3.079 -0.7059  0.8034 -0.9962
32862SOL    HW2 5448   2.043   5.688   2.941  0.3193 -0.3887 -0.3254
32863SOL     OW 5449   8.587   8.725   7.772 -0.2720  0.0155 -0.5647
32863SOL    HW1 5450   8.593   8.770   7.856  2.4766  0.6261 -1.0006
32863SOL    HW2 5451   8.608   8.634   7.793  0.5824  0.1988 -0.5816
32864SOL     OW 5452  11.954   7.758   6.393 -0.3787  0.1407 -0.1119
32864SOL    HW1 5453  12.023   7.805   6.440 -0.5734  0.9015 -0.5672
32864SOL    HW2 5454  11.988   7.747   6.305 -0.5707 -0.0844 -0.1586
32865SOL     OW 5455   2.370   9.608  10.970 -0.3055 -0.1783  0.1624
32865SOL    HW1 5456   2.310   9.674  10.935  1.3333  1.9519  1.1124
32865SOL    HW2 5457   2.456   9.651  10.967  0.8760 -2.4073  0.5796
32866SOL     OW 5458   8.450   5.464  10.768 -0.1974  0.1568  0.2357
32866SOL    HW1 5459   8.451   5.551  10.727  0.9466 -0.1906 -0.5179
32866SOL    HW2 5460   8.533   5.424  10.741 -1.4344 -1.8416 -0.8953
32867SOL     OW 5461   6.805  10.912   3.584  0.5962 -0.2554 -0.3665
32867SOL    HW1 5462   6.780  10.937   3.674  1.6556 -0.6721  0.0530
32867SOL    HW2 5463   6.767  10.825   3.572 -0.8767  0.4268 -0.9007
32868SOL     OW 5464   2.553   0.898  11.064  0.0080  0.0421 -0.4796
32868SOL    HW1 5465   2.576   0.863  11.150  2.8551  1.5140 -0.5129
32868SOL    HW2 5466   2.581   0.830  11.002  0.6492  0.1464 -0.3191
32869SOL     OW 5467   0.158   8.448   1.157  0.0333 -0.5359 -0.2971
32869SOL    HW1 5468   0.101   8.507   1.108 -0.4508 -2.2625 -1.9515
32869SOL    HW2 5469   0.099   8.403   1.218 -0.1816 -1.4002 -1.1156
32870SOL     OW 5470  10.859  11.432   5.777 -0.2914  0.8870  0.5177
32870SOL    HW1 5471  10.842  11.342   5.804  2.7186  0.1744  0.3788
32870SOL    HW2 5472  10.877  11.426   5.683 -1.7205  1.9419  0.1428
32871SOL     OW 5473  11.753   3.616   7.257  0.1700 -0.1390 -0.3522
32871SOL    HW1 5474  11.741   3.710   7.246 -0.4604 -0.3397 -1.5880
32871SOL    HW2 5475  11.740   3.600   7.351 -1.4936  0.7677 -0.3959
32872SOL     OW 5476   5.593   0.965  10.431  0.3899  0.7908 -0.2099
32872SOL    HW1 5477   5.588   0.924  10.345 -1.7631 -0.4034  0.3983
32872SOL    HW2 5478   5.629   1.053  10.415  0.5053  0.4062 -2.2279
32873SOL     OW 5479  12.189  10.666   2.490  0.5488  0.1602 -0.6088
32873SOL    HW1 5480  12.273  10.711   2.494  0.8688 -0.4168 -0.7356
32873SOL    HW2 5481  12.126  10.735   2.471  0.8499  0.7605  0.4793
32874SOL     OW 5482  11.515  11.392   6.167  0.4873 -0.1402  0.1066
32874SOL    HW1 5483  11.465  11.467   6.200 -1.9452 -1.6019 -0.0483
32874SOL    HW2 5484  11.518  11.406   6.072  0.9699  0.2722  0.1761
32875SOL     OW 5485   9.224  10.226   9.432  0.5032 -0.2017  0.2478
32875SOL    HW1 5486   9.132  10.218   9.458  0.2798  2.1390  0.4205
32875SOL    HW2 5487   9.220  10.256   9.341  1.1717 -2.1742 -0.4708
32876SOL     OW 5488   0.769  11.946   9.548  0.2455 -0.3436  0.4874
32876SOL    HW1 5489   0.751  11.860   9.587  0.1194 -0.5247  0.0389
32876SOL    HW2 5490   0.776  12.005   9.623  1.9460 -1.0195  0.9073
32877SOL     OW 5491  12.218  12.327   0.651 -0.0850  0.5735  0.1718
32877SOL    HW1 5492  12.184  12.277   0.725 -1.7905  0.4646 -0.6342
32877SOL    HW2 5493  12.221  12.263   0.579  1.0576  0.7989  0.0091
32878SOL     OW 5494   4.312   4.923   3.952  0.0176 -0.0050 -0.1199
32878SOL    HW1 5495   4.265   5.007   3.949  1.4314  0.9254  1.5313
32878SOL    HW2 5496   4.301   4.893   4.042 -1.6297 -2.3821 -1.0131
32879SOL     OW 5497   3.666   7.669  10.621 -0.4510 -0.0833  0.0134
32879SOL    HW1 5498   3.592   7.648  10.564 -0.7668 -0.1398  0.4477
32879SOL    HW2 5499   3.632   7.731  10.685  0.0997  0.5725 -0.3162
32880SOL     OW 5500   4.402  11.241   2.097  0.0562  0.7323 -0.0081
32880SOL    HW1 5501   4.358  11.235   2.013  2.8570 -0.3337 -1.5444
32880SOL    HW2 5502   4.335  11.219   2.161 -1.7227 -0.3944 -2.1257
32881SOL     OW 5503   8.707   2.932  10.292  0.6352 -0.5283  0.1420
32881SOL    HW1 5504   8.690   2.991  10.219  0.7907 -0.6069  0.0436
32881SOL    HW2 5505   8.654   2.967  10.364  0.4915 -0.4437 -0.0036
32882SOL     OW 5506   1.717   4.040  11.132 -0.5021 -0.2826 -0.2062
32882SOL    HW1 5507   1.806   4.002  11.130 -0.8993 -1.2462 -0.3887
32882SOL    HW2 5508   1.667   3.986  11.070 -0.9865  0.8667 -0.8414
32883SOL     OW 5509   3.845   9.619   0.631  0.0304 -0.3968 -0.2867
32883SOL    HW1 5510   3.831   9.701   0.679  0.3779 -0.0846 -0.7126
32883SOL    HW2 5511   3.919   9.578   0.676  0.2633 -0.1734 -0.4606
32884SOL     OW 5512   0.734   3.826   5.108 -0.1061  1.1332  0.2983
32884SOL    HW1 5513   0.763   3.735   5.103  0.0495  1.1394  0.9925
32884SOL    HW2 5514   0.798   3.874   5.055  0.6788  1.0323  1.1272
32885SOL     OW 5515   4.628   0.602   3.709  0.1964  0.2191 -0.3014
32885SOL    HW1 5516   4.681   0.662   3.656  2.3169 -1.8904 -0.7418
32885SOL    HW2 5517   4.566   0.563   3.648 -0.0752  0.7282 -0.3553
32886SOL     OW 5518  10.120   7.362   8.741 -0.0737  0.0891 -0.1520
32886SOL    HW1 5519  10.085   7.283   8.701  1.5742 -1.0475  0.5095
32886SOL    HW2 5520  10.157   7.412   8.668 -0.4666 -0.1143 -0.4913
32887SOL     OW 5521   3.523   7.634   4.661 -0.0879 -0.1276 -0.1087
32887SOL    HW1 5522   3.553   7.724   4.649  1.0371 -0.5007 -0.2141
32887SOL    HW2 5523   3.596   7.590   4.705 -0.6657 -0.9619  0.0395
32888SOL     OW 5524   7.234   9.196   9.998 -0.3306 -0.1495 -0.2637
32888SOL    HW1 5525   7.277   9.268  10.042 -0.3944 -1.2179  1.6487
32888SOL    HW2 5526   7.294   9.171   9.928  0.2918  0.8938 -0.1231
32889SOL     OW 5527   8.340  11.959  12.415 -0.0068  0.6497  0.1736
32889SOL    HW1 5528   8.381  12.041  12.444  2.1037  0.3286 -1.6187
32889SOL    HW2 5529   8.348  11.900  12.490  2.2549  0.8505  0.1473
32890SOL     OW 5530   2.952  11.137   3.067 -0.5110  0.0175 -0.1462
32890SOL    HW1 5531   3.003  11.186   3.003  1.2880 -1.9113 -0.3137
32890SOL    HW2 5532   2.866  11.178   3.066  0.2731  1.7714 -1.7776
32891SOL     OW 5533   2.004   4.798  12.092 -0.7457 -0.4124 -0.1803
32891SOL    HW1 5534   2.046   4.798  12.178 -1.1799  0.1279  0.0303
32891SOL    HW2 5535   2.045   4.871  12.045 -2.2277  0.8526  0.4175
32892SOL     OW 5536   9.414   5.794   0.537  0.3473 -0.6316 -0.2903
32892SOL    HW1 5537   9.372   5.713   0.566  1.1603 -1.2105 -0.6813
32892SOL    HW2 5538   9.372   5.813   0.453 -0.4631 -0.1539  0.2090
32893SOL     OW 5539   6.748   8.530   8.160  0.4904 -0.6837 -0.0226
32893SOL    HW1 5540   6.822   8.500   8.107 -1.3844 -1.0370 -2.6370
32893SOL    HW2 5541   6.701   8.450   8.184 -0.8381 -0.3244 -1.2757
32894SOL     OW 5542   2.239   3.252  12.345 -0.0057  0.2039  0.3532
32894SOL    HW1 5543   2.218   3.235  12.254 -0.0484 -1.6550  0.6732
32894SOL    HW2 5544   2.211   3.173  12.392  2.3783  0.0046  1.6087
32895SOL     OW 5545   7.793   7.786   2.314 -0.6373  0.2066  0.1935
32895SOL    HW1 5546   7.839   7.852   2.263 -0.5840 -0.7589 -1.0728
32895SOL    HW2 5547   7.701   7.799   2.294 -0.8640  1.3632  1.7868
32896SOL     OW 5548   4.648   5.433   2.059  0.6035  0.2502 -0.2899
32896SOL    HW1 5549   4.584   5.395   2.120  1.8268  1.4468  1.9069
32896SOL    HW2 5550   4.733   5.403   2.092  1.3281  1.0455 -1.3602
32897SOL     OW 5551   9.127   2.744  11.108 -0.4645  0.2718  0.1092
32897SOL    HW1 5552   9.170   2.660  11.094  1.4193  1.3035 -0.6301
32897SOL    HW2 5553   9.129   2.756  11.203  1.8398  0.7125  0.0527
32898SOL     OW 5554   6.542  10.120   4.126 -0.0787  0.2858  0.0867
32898SOL    HW1 5555   6.507  10.062   4.059 -0.0930 -0.5315  0.7918
32898SOL    HW2 5556   6.514  10.208   4.099 -1.4674 -0.1986 -0.1202
32899SOL     OW 5557   1.491   0.380   1.572  0.2630  0.2915  0.1154
32899SOL    HW1 5558   1.555   0.342   1.513 -1.4457 -1.3953 -0.7434
32899SOL    HW2 5559   1.425   0.419   1.515 -1.0350 -0.7061  0.8684
32900SOL     OW 5560   3.886   6.461   8.497 -1.1867 -0.3642  0.3610
32900SOL    HW1 5561   3.853   6.523   8.562 -0.2700  0.0247  0.4775
32900SOL    HW2 5562   3.879   6.506   8.414 -0.9920 -0.2877  0.3839
32901SOL     OW 5563   8.920   4.325   7.947 -0.3595 -0.3733  0.3843
32901SOL    HW1 5564   8.866   4.338   8.024 -0.9938  0.6105 -0.2046
32901SOL    HW2 5565   8.984   4.395   7.950 -0.8381  0.1176 -0.3376
32902SOL     OW 5566   0.541   6.968   2.133  0.2191 -0.2839  0.2747
32902SOL    HW1 5567   0.476   6.930   2.073  1.0540 -0.6291 -0.4215
32902SOL    HW2 5568   0.492   6.982   2.214 -0.9333  0.2267 -0.4860
32903SOL     OW 5569   6.061  10.995   2.956 -0.1794  0.2849  0.8584
32903SOL    HW1 5570   6.010  10.914   2.946 -0.2844  0.4807 -0.4450
32903SOL    HW2 5571   5.997  11.065   2.948  0.3135  0.5494 -1.4818
32904SOL     OW 5572   4.636   5.657   6.927 -0.5317  0.8198  0.0958
32904SOL    HW1 5573   4.710   5.701   6.970 -1.3610  1.7589  0.6003
32904SOL    HW2 5574   4.672   5.627   6.843  0.3886  1.3886  0.2692
32905SOL     OW 5575   8.248  10.321   8.656 -0.2367 -0.0885 -0.0236
32905SOL    HW1 5576   8.215  10.240   8.693 -1.1261  0.9722  1.6325
32905SOL    HW2 5577   8.183  10.345   8.589  0.3590 -1.0167 -0.9720
32906SOL     OW 5578   9.475   1.380  12.022  0.5855 -0.1394  0.0558
32906SOL    HW1 5579   9.555   1.409  11.979 -0.2934 -1.4125 -2.6957
32906SOL    HW2 5580   9.505   1.337  12.102  2.3982  1.7382  0.4636
32907SOL     OW 5581   1.043   2.497   9.393  0.2512  0.4461  0.6056
32907SOL    HW1 5582   0.961   2.518   9.349 -0.0748  0.4121  1.1918
32907SOL    HW2 5583   1.033   2.531   9.481  0.8720  0.4446  0.6820
32908SOL     OW 5584  11.060   4.753   5.208 -0.0813  0.7605  0.5223
32908SOL    HW1 5585  11.041   4.661   5.223  0.8815  0.4206 -0.1749
32908SOL    HW2 5586  11.154   4.761   5.227 -0.2815  1.7412  1.1889
32909SOL     OW 5587   7.466  11.390   2.295 -0.2780  0.2306  0.0464
32909SOL    HW1 5588   7.512  11.389   2.379 -0.9166 -2.1713  0.4515
32909SOL    HW2 5589   7.374  11.383   2.319 -0.5719  1.0058 -0.8381
32910SOL     OW 5590   8.771  10.900   5.033 -0.0511 -0.8696  0.5082
32910SOL    HW1 5591   8.685  10.942   5.033 -0.3981 -1.3511 -2.4580
32910SOL    HW2 5592   8.755  10.812   4.998  1.7685 -0.5177 -1.4123
32911SOL     OW 5593   3.558   6.829   5.186  0.1844  0.3620  0.1928
32911SOL    HW1 5594   3.611   6.909   5.183 -0.7841  1.1229  1.9167
32911SOL    HW2 5595   3.478   6.855   5.231 -0.9179 -1.1837 -0.7770
32912SOL     OW 5596   8.550   9.185   8.955  0.4736  0.1570 -0.4579
32912SOL    HW1 5597   8.592   9.184   8.869 -0.5443 -0.3941 -0.9702
32912SOL    HW2 5598   8.527   9.093   8.971  0.6050  0.2656  0.3800
32913SOL     OW 5599  12.068   6.303   8.374  0.3077  0.1305  0.5149
32913SOL    HW1 5600  12.062   6.384   8.425  0.8488 -0.1824  1.0855
32913SOL    HW2 5601  12.116   6.242   8.430 -2.2395 -1.4582  1.1806
32914SOL     OW 5602   3.736   7.503   6.460  0.2263 -0.7283  0.6223
32914SOL    HW1 5603   3.829   7.497   6.439  0.7778  0.9199  2.3813
32914SOL    HW2 5604   3.697   7.543   6.382  1.1808 -0.3533  0.3206
32915SOL     OW 5605   5.085   2.310  11.861 -0.5581  0.2807 -0.0709
32915SOL    HW1 5606   5.127   2.324  11.945 -0.0357  0.6833 -0.3932
32915SOL    HW2 5607   5.100   2.218  11.841 -0.0091  0.3718 -0.0824
32916SOL     OW 5608   3.045   3.078   0.839  0.1796 -0.0645  0.2356
32916SOL    HW1 5609   3.112   3.145   0.828  0.2062 -0.1817 -0.3988
32916SOL    HW2 5610   3.049   3.055   0.931 -0.1073  1.0873  0.5516
32917SOL     OW 5611  12.198   3.548  10.087  0.5155 -0.4491 -0.0036
32917SOL    HW1 5612  12.279   3.501  10.109  1.0470  0.5663  0.2703
32917SOL    HW2 5613  12.184   3.529   9.994  3.1784  2.3306 -1.1250
32918SOL     OW 5614   7.738  10.795   2.718  0.1677  0.1625  0.5370
32918SOL    HW1 5615   7.815  10.784   2.774 -0.3582 -1.0672  1.0433
32918SOL    HW2 5616   7.767  10.854   2.648  1.2347  0.6014  1.3300
32919SOL     OW 5617   6.680   1.106   2.625  0.4585  0.2095  0.2212
32919SOL    HW1 5618   6.727   1.075   2.548  0.1631 -0.5113  0.3245
32919SOL    HW2 5619   6.725   1.187   2.650 -0.3339  1.2614 -1.5677
32920SOL     OW 5620  10.377   9.817  10.379 -0.9735 -0.3184 -0.5061
32920SOL    HW1 5621  10.304   9.781  10.429 -0.3862 -0.3923  0.3056
32920SOL    HW2 5622  10.455   9.785  10.424 -0.4411  0.3935 -0.9152
32921SOL     OW 5623   1.417   2.599   3.654  0.4115 -0.3010 -0.1527
32921SOL    HW1 5624   1.456   2.539   3.589  0.8546 -0.0641 -0.1102
32921SOL    HW2 5625   1.492   2.629   3.705  0.1950  0.3303 -0.2055
32922SOL     OW 5626   3.836  10.692   2.545 -0.7722  0.8330 -0.0062
32922SOL    HW1 5627   3.831  10.703   2.640  0.1246  0.5601  0.0781
32922SOL    HW2 5628   3.830  10.781   2.510  1.5048  1.2220  0.4378
32923SOL     OW 5629   8.695   9.221   4.968  0.1609 -0.5470  0.4415
32923SOL    HW1 5630   8.783   9.252   4.945  0.3724 -1.1403  0.4535
32923SOL    HW2 5631   8.640   9.254   4.897  0.0426  1.5121  1.4245
32924SOL     OW 5632   7.348   0.410   8.027  0.1089 -0.6381 -0.0012
32924SOL    HW1 5633   7.316   0.331   8.070  1.5122  0.3172  3.0449
32924SOL    HW2 5634   7.443   0.398   8.024  0.5060  1.4300  1.8294
32925SOL     OW 5635   3.842   6.612   3.568 -0.7085 -0.3443 -0.2705
32925SOL    HW1 5636   3.901   6.639   3.498 -3.8598  1.7047 -2.3786
32925SOL    HW2 5637   3.808   6.527   3.539  0.0586 -0.8426  0.2421
32926SOL     OW 5638   5.421   2.825   2.404  0.5564 -0.3889  0.1055
32926SOL    HW1 5639   5.349   2.822   2.341 -0.3488 -0.9727  1.1313
32926SOL    HW2 5640   5.498   2.842   2.351 -0.5380  2.0530 -0.8336
32927SOL     OW 5641   0.117   9.414   9.947 -0.1651  0.0823  0.1172
32927SOL    HW1 5642   0.156   9.456   9.870  1.9848 -1.3834  0.3078
32927SOL    HW2 5643   0.183   9.421  10.015 -0.0662 -2.6517  0.4361
32928SOL     OW 5644  10.228   8.314  11.155  0.2234  0.2840 -0.4314
32928SOL    HW1 5645  10.286   8.315  11.079  1.3268  0.4761  0.3895
32928SOL    HW2 5646  10.208   8.221  11.169  3.3554 -0.2466  1.4479
32929SOL     OW 5647   8.632   4.249   0.416 -0.1190  0.4012 -0.2891
32929SOL    HW1 5648   8.579   4.172   0.393  0.2644  0.6635 -2.2817
32929SOL    HW2 5649   8.716   4.213   0.443 -0.4561  0.0810  0.3668
32930SOL     OW 5650   0.451   7.046   8.166 -0.7162  0.2661 -0.4448
32930SOL    HW1 5651   0.432   7.003   8.083  2.5365  0.8230 -1.6574
32930SOL    HW2 5652   0.540   7.018   8.187 -1.1097  0.8770  2.4102
32931SOL     OW 5653   9.101  12.353   2.382  0.0563  0.4777  0.4465
32931SOL    HW1 5654   9.032  12.380   2.442 -0.2335  1.6701 -0.3910
32931SOL    HW2 5655   9.074  12.387   2.297  1.6750  0.9844  0.1027
32932SOL     OW 5656   1.395  10.972   8.965  0.4294  0.3418 -0.3898
32932SOL    HW1 5657   1.419  10.954   9.055 -2.1221 -4.3325 -0.3208
32932SOL    HW2 5658   1.475  11.006   8.925  2.2285  0.6806  3.1009
32933SOL     OW 5659   1.483   2.344  10.076 -0.0432 -0.0669 -0.0605
32933SOL    HW1 5660   1.498   2.435  10.051  0.1271 -0.1653 -0.3190
32933SOL    HW2 5661   1.538   2.330  10.153 -0.9767  0.3964  0.7182
32934SOL     OW 5662   0.501   3.479   6.040 -0.7293 -0.2659  0.2822
32934SOL    HW1 5663   0.510   3.416   5.969  1.8378  2.0869 -1.6851
32934SOL    HW2 5664   0.514   3.427   6.120 -0.3485 -2.4589 -1.1342
32935SOL     OW 5665   7.423  10.328  10.594  0.5953  0.5283  0.9055
32935SOL    HW1 5666   7.400  10.238  10.571 -1.5150  1.3793 -0.6672
32935SOL    HW2 5667   7.355  10.355  10.655 -0.0199  1.6658 -0.2332
32936SOL     OW 5668   8.173   8.078   8.279  0.1401 -0.1416 -0.2945
32936SOL    HW1 5669   8.174   7.991   8.238  1.6115  0.1989 -1.0286
32936SOL    HW2 5670   8.251   8.079   8.335 -0.4540  0.3407  0.5554
32937SOL     OW 5671   6.713  10.134  11.161 -0.3799 -0.5954  0.2467
32937SOL    HW1 5672   6.646  10.202  11.165  1.9912  1.8015  1.9673
32937SOL    HW2 5673   6.774  10.165  11.094 -0.8307 -2.7069 -1.2451
32938SOL     OW 5674   9.913   4.525   2.793  0.3858 -0.4222  0.1562
32938SOL    HW1 5675   9.948   4.612   2.813  0.5490 -0.8502  1.8758
32938SOL    HW2 5676   9.964   4.495   2.718  0.6605  0.7512 -0.1485
32939SOL     OW 5677   9.510   5.673   9.714  0.0624 -0.1112 -0.6384
32939SOL    HW1 5678   9.440   5.738   9.723 -0.1640 -0.3731 -0.4551
32939SOL    HW2 5679   9.556   5.698   9.634  0.9531  1.1773  0.2383
32940SOL     OW 5680   8.499   2.935   5.553  0.3102 -0.5480  0.1979
32940SOL    HW1 5681   8.569   2.875   5.526  0.9855  0.5575 -0.6272
32940SOL    HW2 5682   8.541   3.021   5.553 -0.6150 -0.0801  1.4374
32941SOL     OW 5683   6.834   7.437   1.234 -0.0829 -0.4868  0.2562
32941SOL    HW1 5684   6.740   7.453   1.225 -0.3232 -1.6150  0.6135
32941SOL    HW2 5685   6.875   7.509   1.187 -1.1032  0.7747  1.2249
32942SOL     OW 5686   0.912  10.094   4.632  0.8224 -0.5657 -0.1457
32942SOL    HW1 5687   0.947  10.178   4.601 -1.0564 -0.5124 -2.3564
32942SOL    HW2 5688   0.880  10.051   4.553 -1.7281 -1.7053  1.4067
32943SOL     OW 5689   9.230   4.479   7.099 -0.5705  0.6990  0.2318
32943SOL    HW1 5690   9.318   4.471   7.136 -0.8515 -1.3684  0.5541
32943SOL    HW2 5691   9.241   4.464   7.005 -0.5683  0.5178  0.2611
32944SOL     OW 5692   6.947  10.981   4.239  0.3507  0.0922  0.1487
32944SOL    HW1 5693   6.970  10.950   4.327  0.6801 -1.4037 -0.4339
32944SOL    HW2 5694   6.852  10.990   4.241  0.5296  2.5479  1.3924
32945SOL     OW 5695   3.670   1.432  10.723 -0.1470  0.3332 -0.8047
32945SOL    HW1 5696   3.624   1.351  10.744  3.0032 -1.3452  0.2765
32945SOL    HW2 5697   3.667   1.483  10.804 -2.1509  1.4126 -1.4921
32946SOL     OW 5698   8.318   7.523   5.795  0.0571  0.7199 -0.4233
32946SOL    HW1 5699   8.266   7.492   5.720  0.0622  0.3619 -0.2838
32946SOL    HW2 5700   8.320   7.448   5.854  2.1061  0.1467 -1.1421
32947SOL     OW 5701   9.441   1.880   0.399  0.0585  0.0734  0.7378
32947SOL    HW1 5702   9.510   1.828   0.357 -0.0676 -0.3142  1.0045
32947SOL    HW2 5703   9.359   1.845   0.364  0.0139  1.3102 -0.4799
32948SOL     OW 5704   8.087   1.991   3.599 -0.6245 -0.0126  0.3223
32948SOL    HW1 5705   8.137   1.910   3.594 -0.4905  0.1396 -1.2346
32948SOL    HW2 5706   7.996   1.963   3.602 -0.6103 -0.2413 -0.8027
32949SOL     OW 5707   1.628  10.664   1.058 -0.1877  0.0794  0.5705
32949SOL    HW1 5708   1.679  10.642   1.136  0.7413 -0.4397 -0.1725
32949SOL    HW2 5709   1.575  10.739   1.085  2.1585  1.6933  0.8921
32950SOL     OW 5710   9.610   5.566   8.428  0.6462  0.2078 -0.2818
32950SOL    HW1 5711   9.609   5.524   8.514 -1.0827 -0.5368 -0.6235
32950SOL    HW2 5712   9.549   5.640   8.437  2.3905  1.7022 -0.1715
32951SOL     OW 5713   4.118   7.539   3.797  0.0380 -0.2292  0.5109
32951SOL    HW1 5714   4.159   7.547   3.883 -0.7271  0.2175  0.8356
32951SOL    HW2 5715   4.026   7.563   3.811 -0.2225 -0.7039 -0.3142
32952SOL     OW 5716   4.782   7.602   2.545  0.1686 -0.6272 -0.0999
32952SOL    HW1 5717   4.753   7.527   2.494  1.3846 -0.6146 -0.8467
32952SOL    HW2 5718   4.878   7.603   2.535  0.2841  0.3293  0.8557
32953SOL     OW 5719   5.848   3.816   7.675  0.1088 -0.0575  0.5092
32953SOL    HW1 5720   5.846   3.808   7.771 -1.6115  0.5424  0.5630
32953SOL    HW2 5721   5.789   3.889   7.656  0.4634 -0.1377 -1.0213
32954SOL     OW 5722  11.378   3.988   2.024 -0.5531  0.1180 -1.0736
32954SOL    HW1 5723  11.445   4.054   2.041  0.3610 -1.2766  1.1846
32954SOL    HW2 5724  11.295   4.034   2.041 -0.0322  1.0842 -1.0725
32955SOL     OW 5725   4.967   4.106   2.335  0.6847 -0.5874  0.4200
32955SOL    HW1 5726   4.884   4.097   2.381 -0.1347 -1.3987 -1.1241
32955SOL    HW2 5727   5.020   4.162   2.392 -0.8741 -0.1160  1.4905
32956SOL     OW 5728   8.513  11.930   5.005  0.2384  0.0944  0.2790
32956SOL    HW1 5729   8.603  11.960   5.003 -0.2891  1.7484 -0.9826
32956SOL    HW2 5730   8.502  11.880   4.923  0.1069 -0.4324  0.6115
32957SOL     OW 5731   7.056   7.074   5.236 -0.3725 -0.8161  0.0328
32957SOL    HW1 5732   7.133   7.033   5.197 -0.7006  0.6322 -2.3341
32957SOL    HW2 5733   7.049   7.159   5.193 -2.8764 -0.5991  0.6925
32958SOL     OW 5734   8.948   5.709   6.990 -0.1523  0.5853 -0.5013
32958SOL    HW1 5735   9.036   5.741   7.008 -0.4199  1.2327 -0.3267
32958SOL    HW2 5736   8.960   5.640   6.924  0.4077  1.1952 -1.0471
32959SOL     OW 5737   8.632   7.512   4.898 -0.0107  0.2799 -0.3258
32959SOL    HW1 5738   8.726   7.491   4.905 -0.1166 -0.0374  0.2360
32959SOL    HW2 5739   8.629   7.593   4.849  0.5761  0.3950 -0.1808
32960SOL     OW 5740   0.092   4.790  10.530 -0.3615 -0.2109  0.2365
32960SOL    HW1 5741   0.002   4.784  10.498 -0.7095  1.4628  0.8205
32960SOL    HW2 5742   0.135   4.850  10.469  0.0943 -0.2392  0.5247
32961SOL     OW 5743   4.965   4.777   2.641 -0.2180 -0.3613  0.4312
32961SOL    HW1 5744   4.899   4.788   2.709 -1.9364 -0.7813 -1.1047
32961SOL    HW2 5745   5.043   4.747   2.688 -0.9423  0.5836  2.3507
32962SOL     OW 5746   4.331   2.350   7.033  0.0212 -0.4419 -0.2369
32962SOL    HW1 5747   4.298   2.261   7.018 -1.4090 -0.1225  0.8639
32962SOL    HW2 5748   4.355   2.351   7.126 -0.2142  0.3979 -0.1832
32963SOL     OW 5749   0.444   3.388  11.442 -0.2621 -0.0941 -0.4599
32963SOL    HW1 5750   0.420   3.299  11.469  0.6547 -0.3612 -0.5024
32963SOL    HW2 5751   0.388   3.444  11.495 -1.1141 -0.6913 -0.6885
32964SOL     OW 5752   1.177   0.095  11.534  0.1634  0.0702 -0.3796
32964SOL    HW1 5753   1.229   0.022  11.500 -1.7983  0.0872 -4.0560
32964SOL    HW2 5754   1.111   0.110  11.465 -1.5796  3.1731  1.7384
32965SOL     OW 5755   0.509   2.249   0.372 -0.1340 -0.6398 -0.1233
32965SOL    HW1 5756   0.462   2.187   0.428 -1.4006  0.8425  0.5220
32965SOL    HW2 5757   0.597   2.253   0.411 -0.7305 -0.2981  1.2537
32966SOL     OW 5758   1.190   0.789   3.798 -0.2459 -0.5689  0.4243
32966SOL    HW1 5759   1.258   0.835   3.846  2.5123 -1.3886 -2.4007
32966SOL    HW2 5760   1.223   0.699   3.789 -1.7959 -1.0560 -0.8983
32967SOL     OW 5761   7.992   6.523   5.882 -0.4576 -0.4349 -0.4147
32967SOL    HW1 5762   7.963   6.593   5.940 -0.5167 -1.9648  1.4969
32967SOL    HW2 5763   7.934   6.450   5.901 -0.5942 -0.9696 -2.5783
32968SOL     OW 5764   4.379  12.068   8.725  0.4253  0.2556  0.0840
32968SOL    HW1 5765   4.429  12.127   8.669 -2.1484  0.9921 -1.6334
32968SOL    HW2 5766   4.331  12.011   8.665  0.3315 -1.4367  1.6523
32969SOL     OW 5767   0.641   3.100   1.060  0.4183  0.7543 -0.3933
32969SOL    HW1 5768   0.708   3.044   1.020 -0.5656 -1.1887  0.5413
32969SOL    HW2 5769   0.558   3.057   1.038 -0.6537  3.4721 -2.1131
32970SOL     OW 5770  10.328   9.393  12.392  0.1743 -0.4049 -0.7111
32970SOL    HW1 5771  10.303   9.341  12.468  2.5121  1.9427  1.8611
32970SOL    HW2 5772  10.382   9.334  12.340  4.5611 -0.3790  3.1684
32971SOL     OW 5773   0.659   2.360   3.198 -0.2432 -0.3775  0.1689
32971SOL    HW1 5774   0.708   2.426   3.148 -1.7964  0.4154 -0.3498
32971SOL    HW2 5775   0.609   2.312   3.132 -3.2498  1.4451  0.9468
32972SOL     OW 5776   9.806   8.321   2.287  0.2469  0.2726  1.1199
32972SOL    HW1 5777   9.886   8.277   2.315  1.5824  1.5693 -0.4518
32972SOL    HW2 5778   9.777   8.369   2.365  1.5235  0.4956  1.4900
32973SOL     OW 5779   6.742  11.999  11.521 -0.2537  0.7395  0.8750
32973SOL    HW1 5780   6.694  12.079  11.503  0.4459  0.8210 -0.8453
32973SOL    HW2 5781   6.770  11.967  11.435  1.3874 -0.1458  1.6722
32974SOL     OW 5782   5.821   7.198   9.719  0.0060  0.1759 -0.2484
32974SOL    HW1 5783   5.807   7.241   9.634 -0.4475  0.0171 -0.2575
32974SOL    HW2 5784   5.913   7.215   9.740 -0.1663  1.1860 -0.2395
32975SOL     OW 5785  10.238   2.189   7.857 -0.0857  0.1117 -0.4465
32975SOL    HW1 5786  10.204   2.273   7.888  0.4802 -0.2931  1.4263
32975SOL    HW2 5787  10.272   2.207   7.769 -2.7525  1.0849 -1.3732
32976SOL     OW 5788  10.330   1.056   4.356  0.1255  0.2635 -0.2316
32976SOL    HW1 5789  10.246   1.086   4.392 -0.4415  0.0102 -1.2994
32976SOL    HW2 5790  10.315   0.964   4.335  1.0874 -0.1399  0.7380
32977SOL     OW 5791   7.222   3.891  10.256 -0.2114  0.0454  0.2932
32977SOL    HW1 5792   7.140   3.869  10.301 -1.2239 -0.8667 -1.8599
32977SOL    HW2 5793   7.254   3.968  10.302 -2.0392  0.1358  1.5224
32978SOL     OW 5794   8.259   4.141   0.424 -0.6476 -0.9498  0.0361
32978SOL    HW1 5795   8.239   4.103   0.338  0.2009 -1.1184 -0.0952
32978SOL    HW2 5796   8.229   4.075   0.487 -2.0763 -0.4525 -0.0851
32979SOL     OW 5797   3.936  10.334  10.160 -0.6867  0.3785 -0.6791
32979SOL    HW1 5798   4.026  10.365  10.167 -0.7048  0.3518 -0.3262
32979SOL    HW2 5799   3.938  10.246  10.198 -1.0898  0.8150  0.3684
32980SOL     OW 5800   0.881  10.769  11.528 -0.3664  0.1297 -0.7572
32980SOL    HW1 5801   0.950  10.703  11.528  1.3177  1.7949  0.3191
32980SOL    HW2 5802   0.924  10.849  11.499 -1.6840  1.3575  0.5273
32981SOL     OW 5803  11.847   1.362   4.955  0.0971 -0.3019 -0.1584
32981SOL    HW1 5804  11.840   1.437   5.014  0.4598  1.2267 -1.9349
32981SOL    HW2 5805  11.937   1.331   4.965  0.0623 -0.2625  0.3035
32982SOL     OW 5806  10.548   8.786   6.749 -0.6105  0.3663  0.2175
32982SOL    HW1 5807  10.519   8.733   6.675  1.5068  0.1245 -0.5149
32982SOL    HW2 5808  10.481   8.853   6.758 -0.5724  0.8884 -2.4535
32983SOL     OW 5809   1.612   3.828   2.109  0.1242  0.0796 -0.0471
32983SOL    HW1 5810   1.630   3.746   2.156  0.9836 -1.2636 -2.5103
32983SOL    HW2 5811   1.648   3.896   2.165  2.2482 -1.5258  0.6672
32984SOL     OW 5812   7.074   8.719   8.137 -0.3650 -0.0839  0.2019
32984SOL    HW1 5813   7.094   8.776   8.063  2.5016 -1.9908 -0.6552
32984SOL    HW2 5814   7.007   8.659   8.105 -0.6396  0.4102 -0.1476
32985SOL     OW 5815   5.281   2.096  11.406 -0.7681  0.2065 -1.0198
32985SOL    HW1 5816   5.213   2.029  11.407 -0.2976 -0.2924 -1.4151
32985SOL    HW2 5817   5.280   2.130  11.317 -0.6203  0.3172 -0.9809
32986SOL     OW 5818   4.160   2.401   9.903 -0.1910  0.4918 -0.2823
32986SOL    HW1 5819   4.128   2.312   9.883  1.8095 -0.0866 -1.1823
32986SOL    HW2 5820   4.125   2.455   9.833  2.0762 -0.4730 -2.3231
32987SOL     OW 5821  11.853   7.410   9.646 -0.1348 -0.1203 -0.0118
32987SOL    HW1 5822  11.948   7.423   9.645  0.1991 -2.2229 -1.0130
32987SOL    HW2 5823  11.830   7.406   9.739  0.8487 -0.1889  0.2390
32988SOL     OW 5824   2.354  10.846   8.330  0.1273 -0.5356  0.1676
32988SOL    HW1 5825   2.368  10.866   8.423 -2.7888  2.0633  0.2121
32988SOL    HW2 5826   2.278  10.789   8.329 -0.6365  0.4623 -0.6206
32989SOL     OW 5827   5.595   8.196   5.616  0.1246 -0.2259  0.1880
32989SOL    HW1 5828   5.651   8.167   5.544 -0.0956 -0.7104  0.2122
32989SOL    HW2 5829   5.611   8.133   5.686  0.2792  0.1956  0.5438
32990SOL     OW 5830   5.011   5.025  11.229  0.2323  0.8327  0.1027
32990SOL    HW1 5831   4.966   5.000  11.149 -0.2405  1.5233  0.1431
32990SOL    HW2 5832   4.947   5.076  11.278 -0.5237 -1.9553  2.2859
32991SOL     OW 5833   8.397  11.898   4.136 -0.0979 -0.5085 -0.5202
32991SOL    HW1 5834   8.307  11.865   4.131 -2.1554  3.7846  2.4601
32991SOL    HW2 5835   8.434  11.855   4.213 -1.4203  1.0788  1.0923
32992SOL     OW 5836  11.702  11.595   3.457 -0.0143  0.6159  0.5828
32992SOL    HW1 5837  11.624  11.547   3.485 -0.2576  0.6550 -0.0376
32992SOL    HW2 5838  11.674  11.687   3.454  0.5308  0.8713  2.0625
32993SOL     OW 5839   0.576   2.092  10.164  0.0485 -0.1788 -0.2221
32993SOL    HW1 5840   0.624   2.157  10.112 -0.3401 -0.0185 -0.3832
32993SOL    HW2 5841   0.623   2.088  10.247 -0.4659  1.0119  0.1513
32994SOL     OW 5842  11.107   7.437   2.851 -0.3544 -0.1999 -0.0882
32994SOL    HW1 5843  11.099   7.515   2.797  0.2349  1.1858  1.7301
32994SOL    HW2 5844  11.019   7.424   2.888 -0.6695 -0.9430 -1.0495
32995SOL     OW 5845   6.875   2.086   8.512  0.1259  0.4122 -0.0348
32995SOL    HW1 5846   6.902   2.044   8.594  1.3948 -1.1900 -1.2125
32995SOL    HW2 5847   6.781   2.069   8.506 -0.1288  1.1624  1.3959
32996SOL     OW 5848   8.738   0.808   8.749 -0.1406  0.4092  0.1054
32996SOL    HW1 5849   8.760   0.770   8.664  0.6840 -0.2023  0.5808
32996SOL    HW2 5850   8.684   0.884   8.728  0.9940  0.9257 -1.0264
32997SOL     OW 5851   4.004   7.511  10.933  0.3073  0.0365 -0.0892
32997SOL    HW1 5852   4.093   7.478  10.945  0.9087  1.8415  0.6906
32997SOL    HW2 5853   4.010   7.567  10.856 -0.6408 -1.3684 -1.2357
32998SOL     OW 5854   1.243   8.076   8.899  0.1853  0.2662 -0.1022
32998SOL    HW1 5855   1.308   8.010   8.920  0.5561 -0.3614 -2.8277
32998SOL    HW2 5856   1.171   8.027   8.858 -1.3389  1.1296  1.4349
32999SOL     OW 5857  12.145   6.525   6.418 -0.2862 -0.1159 -0.1648
32999SOL    HW1 5858  12.117   6.445   6.373 -0.2471 -0.0104 -0.3784
32999SOL    HW2 5859  12.069   6.582   6.415  0.0655  0.3167 -1.0819
33000SOL     OW 5860   7.479  11.363   9.113  0.1190 -0.3828  0.2462
33000SOL    HW1 5861   7.546  11.398   9.055 -1.8153  1.0877 -1.2476
33000SOL    HW2 5862   7.528  11.317   9.181  2.6040  0.4695 -0.8380
33001SOL     OW 5863   7.255   9.796  11.904 -0.4541 -0.4142 -0.2317
33001SOL    HW1 5864   7.221   9.724  11.850  1.0101 -2.0956  0.9517
33001SOL    HW2 5865   7.211   9.785  11.988 -0.9969  0.7583 -0.3445
33002SOL     OW 5866   9.813   6.529  11.381  0.3900 -0.5791 -0.4954
33002SOL    HW1 5867   9.748   6.519  11.311  0.8142  1.9660 -1.3643
33002SOL    HW2 5868   9.897   6.514  11.338  0.4976 -2.6178  0.3436
33003SOL     OW 5869   9.665   0.367  10.020 -0.5002  0.0501 -0.6219
33003SOL    HW1 5870   9.647   0.305  10.090  1.0569  0.2672  0.0218
33003SOL    HW2 5871   9.581   0.409  10.002 -1.8851 -2.9486 -1.8506
33004SOL     OW 5872   4.374  11.887  11.949 -0.6679  0.2345  0.1199
33004SOL    HW1 5873   4.300  11.902  11.890 -0.6206  0.8867  0.2133
33004SOL    HW2 5874   4.435  11.834  11.898 -1.4530 -0.8071  0.2466
33005SOL     OW 5875   4.154   1.902  10.014 -0.0907 -0.6690 -0.3164
33005SOL    HW1 5876   4.202   1.983  10.028 -0.6170 -0.3403 -0.3770
33005SOL    HW2 5877   4.093   1.896  10.088 -1.9055  0.3667 -1.6207
33006SOL     OW 5878   0.800  10.669   3.577  0.4405 -0.2233 -0.1237
33006SOL    HW1 5879   0.765  10.692   3.491  0.7303 -0.3073 -0.2650
33006SOL    HW2 5880   0.738  10.604   3.611  0.0225  0.2165 -0.0324
33007SOL     OW 5881   7.309   9.041   5.327 -0.3451  0.2440  0.2737
33007SOL    HW1 5882   7.383   8.987   5.299 -0.8709 -1.8698  2.5905
33007SOL    HW2 5883   7.347   9.110   5.380  0.0530 -0.5966  1.1153
33008SOL     OW 5884  12.389   1.477   3.801  0.2011  0.3816  0.0965
33008SOL    HW1 5885  12.403   1.560   3.846  2.2052  0.1028  0.0782
33008SOL    HW2 5886  12.408   1.410   3.866 -2.6216 -0.1711  0.4906
33009SOL     OW 5887  11.600   2.635   0.559  0.0511 -0.4579 -0.3534
33009SOL    HW1 5888  11.606   2.561   0.619  0.6275 -0.8050 -0.8241
33009SOL    HW2 5889  11.633   2.601   0.475 -1.9940 -0.3742 -1.2433
33010SOL     OW 5890   7.390   5.185   8.119  0.4610  0.0227 -0.1310
33010SOL    HW1 5891   7.379   5.167   8.212  1.2841 -1.4432 -0.2954
33010SOL    HW2 5892   7.484   5.197   8.107  0.2876  0.9601 -0.6638
33011SOL     OW 5893   1.395  10.640   9.091  0.0839 -0.4895  0.0551
33011SOL    HW1 5894   1.337  10.710   9.061 -0.5647 -1.3877 -0.8949
33011SOL    HW2 5895   1.351  10.603   9.167 -1.2997 -1.9787 -1.3913
33012SOL     OW 5896  10.020   8.046   4.458 -0.3193  0.5402  0.8571
33012SOL    HW1 5897  10.022   8.098   4.539  0.6728  0.0326  1.1740
33012SOL    HW2 5898   9.999   8.109   4.390 -0.4691  1.1101  1.4190
33013SOL     OW 5899   8.839   0.842   4.378  0.3496 -0.4984 -0.2457
33013SOL    HW1 5900   8.860   0.919   4.431 -1.4417  0.0366 -0.2356
33013SOL    HW2 5901   8.873   0.768   4.428  1.2964  0.2105  0.1901
33014SOL     OW 5902   5.550   8.700  11.153 -0.7808 -0.2814  0.1032
33014SOL    HW1 5903   5.608   8.658  11.217  0.6293 -0.1652 -1.0517
33014SOL    HW2 5904   5.591   8.681  11.068 -1.5140  1.2612 -0.6219
33015SOL     OW 5905   3.126  11.936  12.371 -0.3909  0.1880  0.0372
33015SOL    HW1 5906   3.212  11.936  12.412 -1.0186  1.3517  1.4362
33015SOL    HW2 5907   3.118  11.849  12.332  1.3885  0.0599 -0.1035
33016SOL     OW 5908  11.440   1.698   1.590 -0.1362 -0.3524 -0.2960
33016SOL    HW1 5909  11.422   1.673   1.499 -0.4309 -0.4513 -0.2132
33016SOL    HW2 5910  11.444   1.793   1.589 -4.0820 -0.0298  0.2477
33017SOL     OW 5911   7.575   0.315   6.288 -0.1441 -0.3587 -0.1720
33017SOL    HW1 5912   7.599   0.321   6.380 -1.8325  0.2059  0.2670
33017SOL    HW2 5913   7.598   0.401   6.251  0.4669 -0.5612 -0.2774
33018SOL     OW 5914   8.092   6.900   9.756  0.0655 -0.1689 -0.0854
33018SOL    HW1 5915   8.146   6.979   9.763  1.1101 -0.6831 -1.6672
33018SOL    HW2 5916   8.116   6.847   9.832  2.6636 -0.8413 -1.2709
33019SOL     OW 5917   6.055   0.593   4.662 -0.4043 -0.1528  0.1171
33019SOL    HW1 5918   6.017   0.678   4.685 -1.2940 -0.5139  0.0358
33019SOL    HW2 5919   5.979   0.537   4.643  0.1298 -1.2296  1.0499
33020SOL     OW 5920   0.709   0.999  11.152  0.6429 -0.0669 -0.1317
33020SOL    HW1 5921   0.799   1.008  11.120  0.3926  0.1673 -0.7800
33020SOL    HW2 5922   0.665   1.079  11.122  0.6888  0.7412  1.7967
33021SOL     OW 5923   7.220   9.973   8.947  0.1773 -0.0392 -0.2535
33021SOL    HW1 5924   7.178  10.038   9.003 -0.3185 -0.2966 -0.3268
33021SOL    HW2 5925   7.288  10.022   8.901  1.2853 -0.0327  1.3222
33022SOL     OW 5926   6.302   2.132   0.886 -0.0566 -0.3237 -0.0354
33022SOL    HW1 5927   6.386   2.097   0.915  0.7651 -1.0277 -2.9629
33022SOL    HW2 5928   6.264   2.063   0.833 -1.4265  0.8384 -0.6419
33023SOL     OW 5929   3.487   1.206  11.557  0.0879  0.5645 -0.4453
33023SOL    HW1 5930   3.439   1.288  11.551 -0.5469  0.1473 -1.3584
33023SOL    HW2 5931   3.425   1.146  11.600 -0.6014 -0.2246 -2.4457
33024SOL     OW 5932   7.582   8.762   0.691 -0.0768  0.1296  0.4024
33024SOL    HW1 5933   7.578   8.842   0.638 -0.6005 -0.7550 -0.9310
33024SOL    HW2 5934   7.607   8.793   0.778 -1.2855  1.8689  0.1888
33025SOL     OW 5935   2.557   9.737   8.952 -0.2046  0.8212  0.2002
33025SOL    HW1 5936   2.463   9.749   8.940 -1.2534 -3.5948  2.1558
33025SOL    HW2 5937   2.574   9.647   8.925  2.7656  0.3535  2.9390
33026SOL     OW 5938   2.307   9.860   7.883 -0.7482  0.0513  0.6400
33026SOL    HW1 5939   2.318   9.955   7.879  2.5936 -0.2358  0.4591
33026SOL    HW2 5940   2.275   9.836   7.795  1.4263  0.7775 -0.4227
33027SOL     OW 5941   0.395   5.825   5.768 -0.3644 -1.0215  0.3235
33027SOL    HW1 5942   0.454   5.857   5.700 -0.8396 -2.3596 -0.7855
33027SOL    HW2 5943   0.333   5.896   5.783  1.3276  0.2976  1.3143
33028SOL     OW 5944   3.896   6.248   7.458 -0.2973 -1.0560 -0.3890
33028SOL    HW1 5945   3.991   6.243   7.470 -0.5496 -1.2011  2.0426
33028SOL    HW2 5946   3.884   6.254   7.363  2.2508  1.5317 -0.6799
33029SOL     OW 5947   9.091   4.079  10.691  0.5503 -0.3045 -0.7806
33029SOL    HW1 5948   9.006   4.040  10.669 -0.3416  0.4900  1.0298
33029SOL    HW2 5949   9.141   4.006  10.728  0.3701 -0.6145 -1.1426
33030SOL     OW 5950  11.856   4.292   1.810  0.2036  0.1097 -0.3963
33030SOL    HW1 5951  11.781   4.275   1.868  1.0305  1.4752  1.1599
33030SOL    HW2 5952  11.821   4.278   1.722 -1.8862  0.6720  0.2698
33031SOL     OW 5953   9.905   4.132  11.687  0.2611 -0.4299 -0.0557
33031SOL    HW1 5954   9.980   4.184  11.715 -0.7632  2.0039 -1.5823
33031SOL    HW2 5955   9.942   4.067  11.627  1.2990 -0.1586  0.2702
33032SOL     OW 5956   4.536   7.329   4.544 -0.4463  0.3108 -0.0439
33032SOL    HW1 5957   4.575   7.250   4.508 -0.1686  0.8109 -0.8562
33032SOL    HW2 5958   4.562   7.399   4.484 -2.7049  0.6462 -0.7279
33033SOL     OW 5959   8.432   5.369   6.344  0.5780  0.0287  0.1552
33033SOL    HW1 5960   8.484   5.436   6.388  0.3956 -0.0959  0.5603
33033SOL    HW2 5961   8.342   5.384   6.373  0.5644 -0.5191  0.4191
33034SOL     OW 5962   0.169   1.058   4.507 -0.3793  0.0699  0.1503
33034SOL    HW1 5963   0.143   0.967   4.520  0.6023 -0.1610  0.5511
33034SOL    HW2 5964   0.256   1.053   4.468 -1.4505  0.8037 -2.6268
33035SOL     OW 5965   9.970   6.486   4.238  0.0681 -0.5074  0.3766
33035SOL    HW1 5966   9.902   6.546   4.268 -0.5864 -0.8824 -0.3294
33035SOL    HW2 5967   9.923   6.418   4.189  0.8214 -1.4534  0.9372
33036SOL     OW 5968   0.418   7.759   4.942 -0.0431  0.2530 -0.4783
33036SOL    HW1 5969   0.351   7.791   5.002 -0.7143 -0.4481 -0.8450
33036SOL    HW2 5970   0.401   7.805   4.860  0.3323  0.5557 -0.3917
33037SOL     OW 5971   3.087   0.399   3.677  0.2088  0.1612  0.9752
33037SOL    HW1 5972   3.149   0.430   3.611 -3.4021 -0.0471 -2.9383
33037SOL    HW2 5973   3.123   0.315   3.705  1.2671 -0.5386 -2.0253
33038SOL     OW 5974   2.459   7.503   5.928 -0.1447  0.2685  0.0954
33038SOL    HW1 5975   2.494   7.541   6.009  1.2135 -1.4562  0.3860
33038SOL    HW2 5976   2.402   7.432   5.957 -1.9325  1.4367 -0.4472
33039SOL     OW 5977  11.205   0.936   7.752  0.0294  0.2698 -0.0062
33039SOL    HW1 5978  11.129   0.879   7.742 -0.0047  0.6218 -2.1837
33039SOL    HW2 5979  11.263   0.912   7.680  2.0189  0.0250  1.5889
33040SOL     OW 5980  10.919   3.271   2.717 -0.4317 -0.3528  0.0400
33040SOL    HW1 5981  10.960   3.233   2.640  0.3888  0.9080 -0.1836
33040SOL    HW2 5982  10.990   3.316   2.762 -1.4601  1.4914 -0.0898
33041SOL     OW 5983   7.257   9.427   3.253  0.7876  0.1018  0.0012
33041SOL    HW1 5984   7.313   9.382   3.316  1.6797  0.3783 -0.5854
33041SOL    HW2 5985   7.246   9.365   3.181  1.4775  0.5510 -0.5071
33042SOL     OW 5986   9.719   4.342   1.673 -0.2924 -0.3024 -0.0539
33042SOL    HW1 5987   9.790   4.278   1.674 -0.2395 -0.2770 -0.9533
33042SOL    HW2 5988   9.755   4.419   1.716 -0.9565 -1.4445  2.7592
33043SOL     OW 5989   5.043   8.887   8.652 -0.1217  0.5816  0.1892
33043SOL    HW1 5990   5.033   8.819   8.719 -0.0356  0.8580  0.4837
33043SOL    HW2 5991   5.011   8.846   8.571  1.8966 -0.5240 -0.0904
33044SOL     OW 5992  11.529  10.714  11.892  0.3083 -0.2271 -0.7397
33044SOL    HW1 5993  11.625  10.708  11.893  0.3699  0.6812 -0.5870
33044SOL    HW2 5994  11.503  10.712  11.984  0.1181 -1.2129 -0.8028
33045SOL     OW 5995   9.354  10.444   8.340 -0.4872  0.1938  0.4210
33045SOL    HW1 5996   9.283  10.387   8.310 -0.2870  0.5656 -0.8218
33045SOL    HW2 5997   9.323  10.480   8.423 -2.7129  2.0325 -1.1077
33046SOL     OW 5998   8.491  10.605   0.471  0.1195 -0.1583 -0.1077
33046SOL    HW1 5999   8.411  10.640   0.432  0.6085  0.9934 -0.1376
33046SOL    HW2 6000   8.537  10.563   0.398 -0.0347 -0.0143 -0.2908
33047SOL     OW 6001  12.110   4.410   7.402 -0.0810 -0.2973  0.0198
33047SOL    HW1 6002  12.029   4.437   7.358  1.1650  1.5969 -1.2544
33047SOL    HW2 6003  12.114   4.466   7.480 -1.3133 -2.3182  1.6435
33048SOL     OW 6004   7.628   0.960   2.333 -0.5156  0.1507  0.4525
33048SOL    HW1 6005   7.712   0.997   2.304  0.2664 -2.3418 -0.7879
33048SOL    HW2 6006   7.646   0.924   2.419 -0.9483  1.4765  1.1267
33049SOL     OW 6007   8.543   8.995   6.702  0.1722  0.0093 -0.2187
33049SOL    HW1 6008   8.568   9.044   6.624 -1.7893  0.6600 -0.4964
33049SOL    HW2 6009   8.560   8.903   6.679  2.5149  0.3932 -0.2231
33050SOL     OW 6010  12.225   2.714  10.258  0.4258  0.1023  0.0200
33050SOL    HW1 6011  12.141   2.686  10.294  0.6764 -1.4415 -0.5367
33050SOL    HW2 6012  12.228   2.808  10.275 -1.9390  0.4324 -0.9618
33051SOL     OW 6013   7.896   6.499  10.073 -0.1427 -0.3287 -0.4000
33051SOL    HW1 6014   7.967   6.484  10.010  0.6834  0.2234  0.3816
33051SOL    HW2 6015   7.893   6.418  10.125  0.1400 -0.2276 -0.2223
33052SOL     OW 6016   2.019   8.819   7.211 -0.7348 -0.4839 -0.1627
33052SOL    HW1 6017   2.057   8.902   7.182  0.6176 -1.5146 -1.5165
33052SOL    HW2 6018   2.046   8.811   7.303  0.1784  0.0188 -0.3726
33053SOL     OW 6019   9.933  11.019   8.101  0.2658 -0.0117  0.0094
33053SOL    HW1 6020  10.006  10.984   8.152 -0.8776 -0.1671  1.6259
33053SOL    HW2 6021   9.877  10.943   8.085  0.5602  0.0475 -1.4856
33054SOL     OW 6022   5.377   5.269   3.946  0.5615  0.2184 -0.1576
33054SOL    HW1 6023   5.400   5.304   3.860  2.4156  0.1152  0.2635
33054SOL    HW2 6024   5.285   5.243   3.937  0.1950  1.8291 -1.5597
33055SOL     OW 6025   8.087   0.973   9.582  0.0639  0.3697  0.4314
33055SOL    HW1 6026   8.043   0.912   9.522 -0.6702 -0.8832  2.1546
33055SOL    HW2 6027   8.084   1.057   9.537 -1.5230 -0.2764 -0.7664
33056SOL     OW 6028   3.682   2.451  10.425 -0.2087 -0.5144  0.1641
33056SOL    HW1 6029   3.747   2.488  10.366 -0.5419 -0.2571 -0.0481
33056SOL    HW2 6030   3.683   2.509  10.501  1.1766 -1.6097  1.0143
33057SOL     OW 6031   1.673  11.112   1.133  0.2738  0.2333 -0.2836
33057SOL    HW1 6032   1.745  11.175   1.126 -0.4281  1.1481  0.5834
33057SOL    HW2 6033   1.611  11.140   1.066  0.0356  0.3588 -0.0081
33058SOL     OW 6034   5.554   3.044   3.661 -0.4593  0.1119  0.2621
33058SOL    HW1 6035   5.465   3.010   3.671 -0.5371  0.6992  1.9139
33058SOL    HW2 6036   5.554   3.125   3.713  0.6210  0.9206 -0.9463
33059SOL     OW 6037   8.910   3.997   0.167 -0.3697  0.0036  0.2444
33059SOL    HW1 6038   8.816   3.997   0.151  0.0220 -1.8559 -2.9253
33059SOL    HW2 6039   8.932   3.905   0.183  0.9893  0.3482  0.5838
33060SOL     OW 6040  11.662  11.288   2.012  0.4347 -0.5481  0.2470
33060SOL    HW1 6041  11.654  11.192   2.009 -2.7009 -0.4817  1.8579
33060SOL    HW2 6042  11.642  11.316   1.922  0.9871 -1.3709 -0.1460
33061SOL     OW 6043   3.231   2.212   1.638  0.2932  0.3788 -0.1270
33061SOL    HW1 6044   3.231   2.204   1.542 -0.4656 -1.2282 -0.0353
33061SOL    HW2 6045   3.317   2.247   1.659  0.1159  1.7072 -1.4473
33062SOL     OW 6046   1.251   5.320   3.807  0.2292 -0.3161  0.2975
33062SOL    HW1 6047   1.325   5.346   3.861  1.1382 -2.2723  0.1029
33062SOL    HW2 6048   1.176   5.321   3.866  0.4745  1.2430  0.6108
33063SOL     OW 6049   3.470   1.587   2.898 -0.1025 -0.2819  0.5460
33063SOL    HW1 6050   3.461   1.515   2.835 -0.5603  0.3469 -0.1153
33063SOL    HW2 6051   3.380   1.611   2.921  0.0292  0.5186  0.2569
33064SOL     OW 6052   9.847   8.186   5.065  0.5327  0.1891  0.3006
33064SOL    HW1 6053   9.881   8.273   5.047 -0.2400  0.0349 -2.3881
33064SOL    HW2 6054   9.890   8.130   4.999  0.4101 -1.3127  1.4505
33065SOL     OW 6055   6.308   7.300  11.709 -0.3937  0.3467 -0.0682
33065SOL    HW1 6056   6.376   7.299  11.642 -2.5426  2.1276 -2.4558
33065SOL    HW2 6057   6.322   7.383  11.755 -2.3262  1.9854 -2.2447
33066SOL     OW 6058   2.173   5.568  12.018 -0.3936  0.4828  0.3524
33066SOL    HW1 6059   2.146   5.487  11.975 -2.1517  1.1370  0.1349
33066SOL    HW2 6060   2.092   5.618  12.027  0.8655  2.8996 -0.9388
33067SOL     OW 6061   3.477  10.841   0.441  0.2023  0.1614 -0.3941
33067SOL    HW1 6062   3.504  10.749   0.445 -0.2900  0.0237 -0.0651
33067SOL    HW2 6063   3.398  10.844   0.495  1.0797  1.1044  0.8671
33068SOL     OW 6064   2.494   6.984   9.981  0.3887  0.3942 -0.4435
33068SOL    HW1 6065   2.572   6.967  10.034  0.8949  0.0886 -1.2727
33068SOL    HW2 6066   2.427   7.007  10.045  1.4679  1.8979  0.2177
33069SOL     OW 6067  11.326   0.597   4.944 -0.2702  0.0525 -0.4010
33069SOL    HW1 6068  11.354   0.626   5.031 -0.5746 -1.0502  0.0787
33069SOL    HW2 6069  11.304   0.678   4.898  0.9867  0.7318  0.1579
33070SOL     OW 6070   8.791   5.067   5.697  0.4968  0.4429  0.4664
33070SOL    HW1 6071   8.835   5.132   5.751  0.4864  0.5231  0.3792
33070SOL    HW2 6072   8.721   5.033   5.753  1.8163 -1.0470  1.2789
33071SOL     OW 6073   4.106   0.311  10.642 -0.5540  0.0013  0.3757
33071SOL    HW1 6074   4.150   0.389  10.677  0.9419 -0.6692  0.0584
33071SOL    HW2 6075   4.162   0.282  10.570  0.0270 -2.4782  1.7164
33072SOL     OW 6076   4.995   1.027   2.022  0.1897  0.3365 -0.4457
33072SOL    HW1 6077   5.047   0.954   2.056 -0.6567  0.4917  1.2783
33072SOL    HW2 6078   4.941   1.055   2.096 -1.0291  1.3616 -1.6590
33073SOL     OW 6079   1.217  10.722   9.524 -0.0416 -0.8433  0.1846
33073SOL    HW1 6080   1.168  10.799   9.554  0.7931 -0.0521 -0.4224
33073SOL    HW2 6081   1.183  10.650   9.576 -1.1394 -0.1348  0.4758
33074SOL     OW 6082   6.047   5.900   3.538  0.2837  0.2016 -0.0352
33074SOL    HW1 6083   6.017   5.939   3.620  0.4105  1.1744 -0.4372
33074SOL    HW2 6084   6.095   5.821   3.565 -1.1410 -0.4514  0.7113
33075SOL     OW 6085   0.308  11.080   5.918 -0.0796 -0.1628  0.2028
33075SOL    HW1 6086   0.217  11.056   5.901 -0.1591  0.3900 -0.1848
33075SOL    HW2 6087   0.312  11.093   6.013 -0.5280  0.2640  0.1707
33076SOL     OW 6088   9.235   2.385   0.681  0.1643 -0.0920  0.0118
33076SOL    HW1 6089   9.183   2.311   0.710  0.4882 -0.3730 -0.1210
33076SOL    HW2 6090   9.310   2.388   0.741  0.3199 -0.0707 -0.1809
33077SOL     OW 6091   2.858  11.031   9.044 -0.2344  0.0141  0.2292
33077SOL    HW1 6092   2.892  10.976   8.973  2.0126  1.6343 -0.0247
33077SOL    HW2 6093   2.777  11.067   9.008  0.2337 -0.1502 -1.0624
33078SOL     OW 6094  11.244   7.082   7.905 -0.0324 -0.5940 -0.4533
33078SOL    HW1 6095  11.303   7.034   7.847 -0.1515  0.8494 -1.8706
33078SOL    HW2 6096  11.198   7.143   7.846 -1.5401 -0.3559  0.8928
33079SOL     OW 6097   2.806   4.681   8.289 -0.0234  0.2637  0.3747
33079SOL    HW1 6098   2.752   4.662   8.366  0.8427  2.8470  1.6987
33079SOL    HW2 6099   2.764   4.756   8.248  1.2807  0.8827  0.1306
33080SOL     OW 6100   2.506   7.913   4.339 -0.4528  0.5965  0.4779
33080SOL    HW1 6101   2.438   7.977   4.361  0.2982  1.0817  1.4499
33080SOL    HW2 6102   2.502   7.848   4.410 -0.1810  0.4137  0.3281
33081SOL     OW 6103   0.842   0.761   6.443 -0.4697  0.0800  0.8169
33081SOL    HW1 6104   0.932   0.746   6.474 -0.5295  0.7137  1.3053
33081SOL    HW2 6105   0.844   0.732   6.352 -0.0558 -0.9527  1.1355
33082SOL     OW 6106  11.396   9.702  11.340 -0.0299  0.0790  0.1547
33082SOL    HW1 6107  11.350   9.668  11.416  0.7050 -1.4332 -0.0412
33082SOL    HW2 6108  11.422   9.624  11.291  0.2823  0.9975 -1.1806
33083SOL     OW 6109   1.275   5.774  10.395 -0.3596  0.2179 -0.3332
33083SOL    HW1 6110   1.346   5.712  10.378 -0.9733 -0.4571 -0.4778
33083SOL    HW2 6111   1.320   5.857  10.414  0.5343 -0.5881  1.3120
33084SOL     OW 6112   3.947   7.393   3.010 -0.1603 -0.0015 -0.2526
33084SOL    HW1 6113   3.882   7.406   3.079  2.2833 -0.0733  2.2516
33084SOL    HW2 6114   3.922   7.311   2.968 -1.6798 -0.0166  0.6157
33085SOL     OW 6115   7.648   1.220  10.679 -0.2870  0.6760 -0.2383
33085SOL    HW1 6116   7.564   1.205  10.722 -1.0121  0.4166 -1.6614
33085SOL    HW2 6117   7.630   1.288  10.614  0.6693  0.7909 -0.3989
33086SOL     OW 6118   5.060  10.419   4.663  0.5539 -0.0320  0.0483
33086SOL    HW1 6119   5.104  10.498   4.631  1.9780 -2.4693 -5.1984
33086SOL    HW2 6120   5.085  10.413   4.755  4.3421  3.0981 -0.5018
33087SOL     OW 6121   2.794   0.794   6.064  0.2627 -0.2612  0.6885
33087SOL    HW1 6122   2.714   0.804   6.116  1.1454  0.4911  1.9527
33087SOL    HW2 6123   2.856   0.753   6.124  0.1777 -3.1326 -0.9892
33088SOL     OW 6124   0.633  12.365   9.343 -0.0488  0.0767  0.4501
33088SOL    HW1 6125   0.549  12.383   9.301 -1.0174 -1.6850  1.5189
33088SOL    HW2 6126   0.667  12.288   9.297 -0.6430 -1.2479  2.1118
33089SOL     OW 6127  10.951   9.184   1.945 -0.3143 -0.1870  0.3090
33089SOL    HW1 6128  11.011   9.110   1.932  0.4298  0.5183 -0.4048
33089SOL    HW2 6129  10.888   9.176   1.873  2.2689  2.2249 -2.5001
33090SOL     OW 6130   1.028   6.410  12.271 -0.2879 -0.0912 -0.4620
33090SOL    HW1 6131   1.006   6.474  12.338 -1.0610 -0.6315 -0.1858
33090SOL    HW2 6132   1.049   6.462  12.193 -1.0493  0.4882 -0.2899
33091SOL     OW 6133  11.719   0.034   8.107 -0.1043 -0.5090  0.0369
33091SOL    HW1 6134  11.813   0.015   8.105 -0.0369 -0.2570 -2.6531
33091SOL    HW2 6135  11.714   0.129   8.104 -0.4821 -0.5076  0.5459
33092SOL     OW 6136   5.458   2.295   1.289 -0.4394  0.0582 -0.2897
33092SOL    HW1 6137   5.466   2.379   1.244 -3.7170  0.5648 -0.2081
33092SOL    HW2 6138   5.481   2.230   1.223 -0.7287  0.9457 -1.3032
33093SOL     OW 6139   3.233   8.118  11.825  0.3974 -0.6097 -0.0864
33093SOL    HW1 6140   3.168   8.188  11.816 -0.1429 -0.8384  1.7588
33093SOL    HW2 6141   3.187   8.039  11.794  0.3244 -0.5040 -0.2524
33094SOL     OW 6142   1.611   7.563   1.140 -1.0636 -0.5741 -0.0258
33094SOL    HW1 6143   1.686   7.503   1.142 -0.6792 -0.1393 -0.8587
33094SOL    HW2 6144   1.537   7.509   1.168 -0.7569 -1.4920 -0.9051
33095SOL     OW 6145   2.135   8.378   9.319  0.5240 -0.3108 -0.6187
33095SOL    HW1 6146   2.187   8.374   9.399  0.5713  1.5011 -0.5221
33095SOL    HW2 6147   2.086   8.296   9.318  1.3455 -0.8517  0.6844
33096SOL     OW 6148   2.459   3.540   8.386  0.3038  0.5528 -0.7043
33096SOL    HW1 6149   2.503   3.621   8.411 -0.5387  0.4731  1.1800
33096SOL    HW2 6150   2.528   3.485   8.351  0.8321  2.2107 -2.5038
33097SOL     OW 6151   1.641   9.597   3.674 -0.3412  0.5915  0.1637
33097SOL    HW1 6152   1.626   9.609   3.581  1.5804  0.5891 -0.1850
33097SOL    HW2 6153   1.610   9.508   3.693 -4.7467  1.9757  0.5232
33098SOL     OW 6154   0.201   9.933  10.271 -0.8875  0.0140  0.0052
33098SOL    HW1 6155   0.247   9.854  10.243  1.6823  0.4000  2.6601
33098SOL    HW2 6156   0.169   9.913  10.359 -0.2666  1.8340  0.6963
33099SOL     OW 6157   5.483  11.412  11.205  0.3471  0.5387  0.1637
33099SOL    HW1 6158   5.440  11.472  11.266 -0.2516 -1.3660  1.6814
33099SOL    HW2 6159   5.534  11.354  11.260 -2.1175 -2.8373 -0.8145
33100SOL     OW 6160   1.516   7.515   5.520  0.0240  0.5499  0.0107
33100SOL    HW1 6161   1.467   7.461   5.583  1.5321 -1.4092 -0.3932
33100SOL    HW2 6162   1.607   7.492   5.536  0.5589  1.3546 -1.7020
33101SOL     OW 6163   4.057   2.444  10.836  0.0677  0.2742  0.0310
33101SOL    HW1 6164   4.123   2.392  10.789 -0.0910 -1.6030  1.7530
33101SOL    HW2 6165   4.088   2.535  10.827  1.6200 -0.3191 -1.1470
33102SOL     OW 6166   0.196   8.072   5.528  0.0784  0.0274 -0.2950
33102SOL    HW1 6167   0.189   7.977   5.524 -2.1162  0.1152  0.0020
33102SOL    HW2 6168   0.202   8.100   5.437 -1.0146 -0.3331 -0.4948
33103SOL     OW 6169   3.995   4.189   3.117 -0.4330 -0.3974  0.2134
33103SOL    HW1 6170   4.002   4.268   3.171 -1.2058 -0.3805  0.2930
33103SOL    HW2 6171   4.028   4.119   3.174 -0.9818 -0.3353  0.6180
33104SOL     OW 6172   7.168   8.401   3.609 -0.3677  0.3967  0.0387
33104SOL    HW1 6173   7.215   8.484   3.604 -2.0456  1.3790 -0.2900
33104SOL    HW2 6174   7.212   8.344   3.545 -0.2302  1.6002 -0.9744
33105SOL     OW 6175   2.511   5.943   5.444  0.0967 -0.5407 -0.1960
33105SOL    HW1 6176   2.459   5.868   5.474 -0.1935 -0.5253 -0.6429
33105SOL    HW2 6177   2.523   5.996   5.523 -0.0998 -0.8189  0.0270
33106SOL     OW 6178   0.265   1.844   9.976 -0.0595  0.0710  0.2161
33106SOL    HW1 6179   0.273   1.877  10.065  0.0645 -0.2692  0.3307
33106SOL    HW2 6180   0.296   1.754   9.980 -0.0569  0.0506 -0.1696
33107SOL     OW 6181   9.273   8.361   9.645  0.9567 -0.0533  0.6345
33107SOL    HW1 6182   9.300   8.441   9.690 -1.5308  1.2918 -0.0390
33107SOL    HW2 6183   9.217   8.316   9.707  2.4469 -1.4156  1.0574
33108SOL     OW 6184   1.218   3.160  10.530 -0.1992  0.5765 -0.4595
33108SOL    HW1 6185   1.226   3.090  10.466 -1.6116  0.6646 -0.7587
33108SOL    HW2 6186   1.125   3.163  10.552  0.1880  0.7704  1.3571
33109SOL     OW 6187   4.289   6.587   2.112 -0.0715  0.2496 -0.2096
33109SOL    HW1 6188   4.275   6.504   2.067  0.2956  0.4583 -0.7196
33109SOL    HW2 6189   4.210   6.638   2.095 -0.5803 -0.2370  0.6558
33110SOL     OW 6190   9.170   3.379   4.985 -0.0253  0.5958 -0.3592
33110SOL    HW1 6191   9.263   3.398   4.973 -0.2120  1.1478 -1.0605
33110SOL    HW2 6192   9.155   3.299   4.934 -0.1942  1.2494 -1.3659
33111SOL     OW 6193   7.075   1.202   1.153  0.0538 -0.3758 -0.5421
33111SOL    HW1 6194   7.097   1.159   1.236  2.7135 -2.4253 -2.1414
33111SOL    HW2 6195   7.073   1.295   1.175 -0.0446 -0.8819  1.9426
33112SOL     OW 6196   6.257   7.441  10.084 -0.1513  0.2102  0.1399
33112SOL    HW1 6197   6.311   7.504  10.130 -0.0270  0.5048 -0.3979
33112SOL    HW2 6198   6.291   7.356  10.109  0.2094  0.3820  0.2307
33113SOL     OW 6199  10.338   3.748   3.642  0.2721 -0.1926  0.0122
33113SOL    HW1 6200  10.327   3.835   3.603  1.0254  0.4650  1.2314
33113SOL    HW2 6201  10.430   3.726   3.625 -0.7985 -2.6948 -4.0938
33114SOL     OW 6202   7.916   5.524   6.953 -0.2008 -0.4637 -0.7012
33114SOL    HW1 6203   7.995   5.561   6.914  1.0260 -2.6874 -0.5166
33114SOL    HW2 6204   7.866   5.600   6.984  0.8952  1.1165 -2.5689
33115SOL     OW 6205   6.682   7.013   9.978  0.0849  0.1262 -0.0689
33115SOL    HW1 6206   6.711   6.997   9.888 -0.2609  1.3155 -0.4143
33115SOL    HW2 6207   6.629   6.937  10.001  0.0273 -0.1052 -0.9404
33116SOL     OW 6208   1.615   5.011   9.660  0.1375 -0.5583  0.4000
33116SOL    HW1 6209   1.633   5.077   9.727  0.7666 -0.9066  0.5874
33116SOL    HW2 6210   1.525   5.028   9.633  0.3455  0.5016  0.3030
33117SOL     OW 6211   4.266   8.642   0.212  0.3677  0.2878  0.3995
33117SOL    HW1 6212   4.320   8.628   0.290 -1.0582 -2.5230  1.0291
33117SOL    HW2 6213   4.245   8.553   0.182  0.9744  1.2558 -3.3418
33118SOL     OW 6214   1.305   4.217  11.308 -0.4819  0.2783  0.2076
33118SOL    HW1 6215   1.356   4.249  11.233  1.9139  0.6852  1.8949
33118SOL    HW2 6216   1.338   4.129  11.324 -0.4889  0.4475  1.1957
33119SOL     OW 6217   4.950  10.512   1.839  0.7110  0.5939 -0.4023
33119SOL    HW1 6218   4.932  10.463   1.759 -2.8609 -0.7199  1.0032
33119SOL    HW2 6219   4.978  10.445   1.902  1.8256  1.3638 -0.0312
33120SOL     OW 6220   0.424   6.245   7.716  0.4291  0.5630  0.5806
33120SOL    HW1 6221   0.518   6.263   7.710  1.4407 -3.7558 -0.0606
33120SOL    HW2 6222   0.397   6.231   7.625 -0.5124  0.3996  0.8806
33121SOL     OW 6223  11.474   8.320  11.353 -0.0954  0.0391  0.0688
33121SOL    HW1 6224  11.433   8.339  11.269  0.4887 -1.2232 -0.5239
33121SOL    HW2 6225  11.503   8.406  11.385 -0.6222  0.5729 -0.8467
33122SOL     OW 6226   8.987   2.230   6.733  0.5373  0.2020  0.6500
33122SOL    HW1 6227   8.935   2.151   6.726 -0.9554  1.1873  0.1742
33122SOL    HW2 6228   9.038   2.234   6.652 -0.8199  0.6787 -0.2157
33123SOL     OW 6229  10.707   2.304   1.879 -0.3618  0.5747  0.2550
33123SOL    HW1 6230  10.799   2.299   1.852 -1.0017 -0.2179 -1.9375
33123SOL    HW2 6231  10.688   2.217   1.914 -1.1996 -0.5694 -2.7367
33124SOL     OW 6232   9.942   2.330   7.778  0.2687  0.6469 -0.3493
33124SOL    HW1 6233   9.877   2.400   7.767 -1.5045 -1.0395 -1.2434
33124SOL    HW2 6234   9.915   2.285   7.858  0.6719  0.2431 -0.4394
33125SOL     OW 6235   7.555   7.569  10.902 -0.0805 -0.2537 -0.0909
33125SOL    HW1 6236   7.567   7.474  10.889  0.7305 -0.1453 -0.1587
33125SOL    HW2 6237   7.623   7.609  10.848 -1.3855  0.4346 -1.3017
33126SOL     OW 6238   6.349  12.268   1.336  0.1093  0.5602  0.3448
33126SOL    HW1 6239   6.344  12.280   1.241  1.5606  0.3616  0.2251
33126SOL    HW2 6240   6.360  12.174   1.347  0.3425  0.6296  0.6934
33127SOL     OW 6241   4.491  11.824  10.306  0.0797 -0.6239 -0.1116
33127SOL    HW1 6242   4.533  11.817  10.392 -0.7555 -0.8458  0.2851
33127SOL    HW2 6243   4.428  11.752  10.304  1.0483 -1.4955 -1.4661
33128SOL     OW 6244   0.396  10.509   3.157  0.4281  0.1882  0.7462
33128SOL    HW1 6245   0.340  10.567   3.106 -1.6437  0.3205  2.9991
33128SOL    HW2 6246   0.435  10.565   3.224  1.8739 -0.2593  0.3183
33129SOL     OW 6247  10.205   4.746   0.960  0.0003  0.1039  0.4986
33129SOL    HW1 6248  10.160   4.791   1.031  0.6150  0.1096  0.8860
33129SOL    HW2 6249  10.178   4.654   0.969 -1.1663  0.3543 -0.2281
33130SOL     OW 6250   7.728   3.270   0.962  0.2402 -0.1597 -0.5816
33130SOL    HW1 6251   7.798   3.211   0.934  0.9072 -0.0618  0.8034
33130SOL    HW2 6252   7.669   3.216   1.014  1.4057  0.5351  1.5835
33131SOL     OW 6253   3.086   1.373   2.661  0.8649  0.5432 -0.5927
33131SOL    HW1 6254   3.029   1.449   2.648 -0.2508  0.0343  1.0560
33131SOL    HW2 6255   3.138   1.369   2.581 -0.4268  1.8729 -1.5677
33132SOL     OW 6256   9.051  11.816   4.272  0.4006 -0.2869  1.0933
33132SOL    HW1 6257   9.137  11.839   4.238  0.0632 -1.6399 -0.8097
33132SOL    HW2 6258   9.005  11.899   4.282  0.6016  0.2162 -1.6282
33133SOL     OW 6259   4.773   4.591   6.515 -0.0378  0.3393  0.8424
33133SOL    HW1 6260   4.702   4.573   6.576 -0.2489 -1.5232  0.1215
33133SOL    HW2 6261   4.853   4.573   6.565 -0.1578  0.2378  0.9965
33134SOL     OW 6262  10.633   5.932   9.787  0.1981  0.0510 -0.0693
33134SOL    HW1 6263  10.728   5.944   9.782  0.3792 -1.3134 -0.1601
33134SOL    HW2 6264  10.613   5.867   9.720 -0.8039  0.3162 -0.0398
33135SOL     OW 6265   9.661   4.963   8.011  0.4276 -0.3325  0.5869
33135SOL    HW1 6266   9.691   4.883   8.055  1.3552  0.0738  0.7050
33135SOL    HW2 6267   9.689   4.952   7.920  0.6597 -0.0863  0.6287
33136SOL     OW 6268   1.486   0.515  10.707  0.2667 -0.1703 -0.0862
33136SOL    HW1 6269   1.453   0.446  10.650 -1.1857 -0.4536  1.0425
33136SOL    HW2 6270   1.462   0.596  10.662  0.1900 -0.3963 -0.4571
33137SOL     OW 6271   5.357   1.875   5.277 -0.1404 -0.7085  0.3418
33137SOL    HW1 6272   5.292   1.922   5.225 -0.5433 -1.8093 -0.1956
33137SOL    HW2 6273   5.349   1.784   5.248  1.7221 -0.8598  0.1780
33138SOL     OW 6274   5.578   2.822   1.958  0.6521  0.0486  0.5525
33138SOL    HW1 6275   5.656   2.804   1.906 -0.2627 -3.0279  0.0755
33138SOL    HW2 6276   5.521   2.747   1.943 -1.5470  1.1905  2.5387
33139SOL     OW 6277   6.329   7.045   9.321 -0.2476 -0.2323  0.3054
33139SOL    HW1 6278   6.389   7.011   9.387 -0.3794 -3.0259 -0.8784
33139SOL    HW2 6279   6.386   7.080   9.253  0.1309 -2.2001 -0.4694
33140SOL     OW 6280  10.824   7.770   2.052 -0.0670  0.1655  0.3602
33140SOL    HW1 6281  10.900   7.827   2.049 -0.1563  0.2710  0.1279
33140SOL    HW2 6282  10.856   7.685   2.021 -0.5901  0.8109 -2.1305
33141SOL     OW 6283   4.540   3.437   5.360 -0.3374 -0.9075  0.1693
33141SOL    HW1 6284   4.477   3.376   5.400 -0.1462  0.1358  2.1829
33141SOL    HW2 6285   4.563   3.395   5.277 -1.2734 -2.8836  0.8255
33142SOL     OW 6286  10.360   6.847   6.860  0.0195  0.1605 -0.5588
33142SOL    HW1 6287  10.357   6.933   6.817  1.2273  0.2980 -0.4019
33142SOL    HW2 6288  10.393   6.866   6.948 -0.7008 -0.3450 -0.1733
33143SOL     OW 6289   2.635   2.711   8.668 -0.0525  0.8037  0.1823
33143SOL    HW1 6290   2.675   2.767   8.601  1.7812 -0.0829  0.4587
33143SOL    HW2 6291   2.623   2.768   8.744  0.0470  1.2602 -0.1435
33144SOL     OW 6292   9.591   2.881   3.366 -0.0159  0.7637  0.6466
33144SOL    HW1 6293   9.577   2.786   3.360 -0.3635  0.8149  0.6353
33144SOL    HW2 6294   9.681   2.890   3.397  0.7207  0.4463 -1.2065
33145SOL     OW 6295   7.302  10.860   6.154  0.0656  0.4718 -0.2087
33145SOL    HW1 6296   7.375  10.823   6.104 -0.5944 -2.1453  0.5748
33145SOL    HW2 6297   7.234  10.793   6.150 -0.6927  0.9391  2.6362
33146SOL     OW 6298   9.606  12.071   6.252  0.0407  0.2236 -0.0060
33146SOL    HW1 6299   9.554  11.998   6.219 -0.2841  0.7078 -0.5809
33146SOL    HW2 6300   9.593  12.069   6.347  1.1150 -1.2757  0.1404
33147SOL     OW 6301  12.121   8.246   2.911  0.0199  0.0643  0.2081
33147SOL    HW1 6302  12.143   8.162   2.871 -0.0213 -0.0274  0.3720
33147SOL    HW2 6303  12.195   8.265   2.969  0.3123  0.4428 -0.2884
33148SOL     OW 6304  12.055   8.244  11.404 -0.3899  0.2583 -0.3996
33148SOL    HW1 6305  12.107   8.164  11.405 -0.3661  0.1517 -3.4386
33148SOL    HW2 6306  11.975   8.221  11.452 -0.5290 -1.7274 -1.4931
33149SOL     OW 6307   2.278   5.650   9.996  0.4731  0.6869  0.0943
33149SOL    HW1 6308   2.313   5.633   9.909 -0.1048  0.1640 -0.0430
33149SOL    HW2 6309   2.228   5.731   9.986 -0.8599 -0.1703 -0.4416
33150SOL     OW 6310  11.289  11.221   9.798 -0.1611  0.1034 -0.5707
33150SOL    HW1 6311  11.350  11.283   9.838  0.9116  0.2299 -2.2931
33150SOL    HW2 6312  11.316  11.216   9.706 -1.0375 -1.9209 -0.7842
33151SOL     OW 6313   7.379   3.090   1.531  0.7426 -0.5551  0.3558
33151SOL    HW1 6314   7.317   3.035   1.483  0.2969  1.8365 -2.0898
33151SOL    HW2 6315   7.354   3.081   1.623 -2.2051 -0.8939 -0.3952
33152SOL     OW 6316   5.493  10.909   1.612 -0.0108 -0.2654  0.2701
33152SOL    HW1 6317   5.535  10.992   1.636  0.1064  0.3239 -1.7923
33152SOL    HW2 6318   5.399  10.929   1.614  0.0157 -0.0816 -0.1781
33153SOL     OW 6319  11.752   1.391   5.948  0.0140 -0.1199  0.4421
33153SOL    HW1 6320  11.688   1.424   5.884 -0.9874  0.1763  1.5708
33153SOL    HW2 6321  11.836   1.399   5.903 -0.6603  0.0599 -0.8520
33154SOL     OW 6322   0.665  11.123   7.946 -0.5744  0.1012 -0.2975
33154SOL    HW1 6323   0.657  11.204   7.996 -1.1301 -1.2609  1.9189
33154SOL    HW2 6324   0.730  11.144   7.878  1.1598  1.6931  1.7174
33155SOL     OW 6325  11.819   4.265   6.870 -0.0643 -0.2251 -0.0939
33155SOL    HW1 6326  11.732   4.278   6.832  0.7257  2.1015 -1.2871
33155SOL    HW2 6327  11.859   4.198   6.816  0.1486  1.3120 -1.9411
33156SOL     OW 6328   7.458   1.836   5.396  0.2128 -0.5254  0.3100
33156SOL    HW1 6329   7.372   1.815   5.431  0.3859 -2.8190 -0.4592
33156SOL    HW2 6330   7.451   1.928   5.369 -2.4510 -0.9791 -0.9382
33157SOL     OW 6331   2.004   1.921   3.050 -0.0084 -0.1602 -0.2031
33157SOL    HW1 6332   1.954   1.926   3.132 -1.2451 -1.8334 -0.7949
33157SOL    HW2 6333   2.054   2.003   3.048  0.0718 -0.0685  2.2101
33158SOL     OW 6334   5.196   3.774   2.438 -0.0208 -0.5099  0.1035
33158SOL    HW1 6335   5.285   3.809   2.439  0.7571 -2.3364 -0.6526
33158SOL    HW2 6336   5.155   3.816   2.363  0.2377  0.2583  0.3836
33159SOL     OW 6337   3.553   5.665   8.670  0.1630  0.6407 -0.5944
33159SOL    HW1 6338   3.595   5.679   8.755  1.2153  0.1833 -1.0227
33159SOL    HW2 6339   3.494   5.739   8.660 -0.7937  0.1468  1.0172
33160SOL     OW 6340  12.402   6.923   9.345  0.5932  0.4647 -0.1099
33160SOL    HW1 6341  12.395   6.944   9.252 -0.6067  2.4914  0.3735
33160SOL    HW2 6342  12.489   6.883   9.355  1.2313  1.3159 -1.9031
33161SOL     OW 6343   9.662   0.520  10.898 -0.3233  0.5048 -0.0291
33161SOL    HW1 6344   9.668   0.430  10.931 -0.6079  0.4363 -0.1598
33161SOL    HW2 6345   9.744   0.533  10.850 -0.9531 -0.2279 -1.3463
33162SOL     OW 6346   4.542   0.195  12.114 -0.3543 -0.4356  0.5163
33162SOL    HW1 6347   4.484   0.169  12.043  1.3094 -1.9978 -0.3665
33162SOL    HW2 6348   4.621   0.227  12.071 -0.0324  0.4199  1.6741
33163SOL     OW 6349   4.429   1.624  11.305 -0.3082  0.4316 -0.1544
33163SOL    HW1 6350   4.408   1.596  11.215  0.4385 -0.1007 -0.1732
33163SOL    HW2 6351   4.469   1.710  11.295  2.0689 -0.6583 -0.5934
33164SOL     OW 6352   5.468   9.120   6.414 -0.5900 -0.7706  0.2129
33164SOL    HW1 6353   5.502   9.164   6.492  0.2400 -0.1842 -0.4760
33164SOL    HW2 6354   5.387   9.166   6.394 -0.4861 -0.5175  0.3676
33165SOL     OW 6355  11.862   4.161   1.543  0.0067  0.1173 -0.8365
33165SOL    HW1 6356  11.782   4.110   1.553  0.7155 -0.8034  0.4683
33165SOL    HW2 6357  11.836   4.237   1.490 -2.0910  0.6482  0.8082
33166SOL     OW 6358   1.561   9.475  12.187 -0.2958 -0.0726 -0.1430
33166SOL    HW1 6359   1.537   9.434  12.104 -1.5305  0.2127  0.0509
33166SOL    HW2 6360   1.514   9.558  12.187 -0.8234 -0.3453  1.0947
33167SOL     OW 6361  11.108   1.069   2.362 -0.2406 -0.3452  0.6235
33167SOL    HW1 6362  11.067   0.986   2.339  1.1070 -0.4723 -1.5997
33167SOL    HW2 6363  11.191   1.044   2.403  0.0535 -0.1071  0.1793
33168SOL     OW 6364   0.742   6.461  10.983 -0.3270 -0.3384 -0.0478
33168SOL    HW1 6365   0.822   6.508  10.959 -1.6648  1.7990 -0.5685
33168SOL    HW2 6366   0.744   6.457  11.078  1.2258 -1.9333 -0.0914
33169SOL     OW 6367   2.714   7.284   5.241  0.2443  0.1624 -0.0747
33169SOL    HW1 6368   2.681   7.337   5.314 -1.1301 -0.2940 -0.3406
33169SOL    HW2 6369   2.701   7.194   5.270  1.5044 -0.0524 -0.1053
33170SOL     OW 6370   5.673   5.933   5.782  0.1904  0.2925 -0.7231
33170SOL    HW1 6371   5.762   5.911   5.755  0.4085 -0.6324  0.6655
33170SOL    HW2 6372   5.660   5.885   5.864 -0.6307  2.4882  0.5177
33171SOL     OW 6373   7.403   2.848   7.384  0.5292  0.1017  0.2828
33171SOL    HW1 6374   7.348   2.772   7.363  0.7523  0.0010  0.0511
33171SOL    HW2 6375   7.365   2.920   7.335 -1.7190  0.9559  3.0472
33172SOL     OW 6376   5.162  11.694  12.141  0.1368  0.0094  0.1862
33172SOL    HW1 6377   5.086  11.753  12.144  1.1246  1.2962  2.1855
33172SOL    HW2 6378   5.139  11.622  12.199  0.7953  0.9407  1.6657
33173SOL     OW 6379   4.124   1.497   9.402 -0.3617 -0.7096  0.2663
33173SOL    HW1 6380   4.199   1.483   9.460 -0.0636  1.8853  0.6478
33173SOL    HW2 6381   4.160   1.497   9.314  0.6177  2.4791  0.5183
33174SOL     OW 6382   7.172   6.450   1.139  0.4479  0.4261  0.7131
33174SOL    HW1 6383   7.252   6.453   1.088  0.1640  0.7298  0.2786
33174SOL    HW2 6384   7.194   6.396   1.216  0.4378 -1.3950 -0.4982
33175SOL     OW 6385   0.442  11.340   5.343 -0.2764  0.2993 -0.3707
33175SOL    HW1 6386   0.392  11.374   5.417 -1.1287  1.0038 -1.2609
33175SOL    HW2 6387   0.438  11.245   5.354 -1.1788  0.3651 -0.0172
33176SOL     OW 6388   7.646   1.739   5.023  0.5585 -0.8587  0.1959
33176SOL    HW1 6389   7.635   1.739   4.928  0.5381  0.0421  0.1843
33176SOL    HW2 6390   7.594   1.665   5.053  0.4302 -1.0547 -0.4825
33177SOL     OW 6391   0.828   0.928   9.462  0.0401 -0.0571  0.3215
33177SOL    HW1 6392   0.868   1.010   9.434  0.1252  1.0218  3.2379
33177SOL    HW2 6393   0.739   0.931   9.428  0.8558 -0.1899 -2.0448
33178SOL     OW 6394   9.356   0.071   5.492 -0.2773  0.6017  0.0314
33178SOL    HW1 6395   9.328   0.127   5.565 -1.0889 -0.0519  0.2362
33178SOL    HW2 6396   9.325  -0.016   5.516  1.0116  0.0438 -0.2643
33179SOL     OW 6397   8.146   6.032   5.352 -0.0947 -0.2399  0.3361
33179SOL    HW1 6398   8.092   5.954   5.341  2.0966 -1.5619 -1.9182
33179SOL    HW2 6399   8.225   6.001   5.396  0.4408  0.8676  0.1866
33180SOL     OW 6400   1.943   6.912  11.794  0.4870  0.5954 -0.6763
33180SOL    HW1 6401   1.939   6.840  11.856 -2.6044  0.3940 -0.9547
33180SOL    HW2 6402   1.963   6.989  11.848  1.2026 -0.0365 -0.0033
33181SOL     OW 6403  11.240  10.936  10.069 -0.3699  0.0732  0.1752
33181SOL    HW1 6404  11.322  10.898  10.099  0.5981  0.9341 -1.2963
33181SOL    HW2 6405  11.242  11.026  10.101 -0.7267  0.1176  0.0756
33182SOL     OW 6406   0.178  10.268   3.877  0.4166  0.4787  0.1436
33182SOL    HW1 6407   0.108  10.329   3.856 -0.6500 -1.1823 -1.5208
33182SOL    HW2 6408   0.239  10.318   3.931 -1.7130  2.1733  1.1194
33183SOL     OW 6409  11.564   5.866   2.220 -0.2182  0.0576 -0.2356
33183SOL    HW1 6410  11.623   5.856   2.145  0.5781 -1.7538  0.5841
33183SOL    HW2 6411  11.621   5.889   2.293 -0.8081  0.3749  0.1320
33184SOL     OW 6412  11.771   1.345   0.480 -0.1143 -0.1728  0.5813
33184SOL    HW1 6413  11.822   1.409   0.430  0.3807 -1.3627 -0.5066
33184SOL    HW2 6414  11.685   1.345   0.438 -0.1686 -0.1034  0.6927
33185SOL     OW 6415   9.336   4.504   8.583  0.2123 -0.6909  0.2363
33185SOL    HW1 6416   9.368   4.562   8.653 -0.0418 -0.3310  0.0612
33185SOL    HW2 6417   9.390   4.426   8.590  0.8659 -0.2516  0.1930
33186SOL     OW 6418   0.465   9.156   6.660  0.3044 -0.7143 -0.0302
33186SOL    HW1 6419   0.379   9.123   6.635 -0.1235  0.5218 -0.2493
33186SOL    HW2 6420   0.518   9.151   6.580  0.2372 -0.8374 -0.0667
33187SOL     OW 6421   9.757   0.343   9.253 -0.5170  0.4643 -0.0298
33187SOL    HW1 6422   9.835   0.324   9.305  0.1381  0.6854 -0.9063
33187SOL    HW2 6423   9.726   0.427   9.287  0.9105  1.4852 -1.0931
33188SOL     OW 6424   5.442   0.185   7.305  0.0019 -0.0525  0.1273
33188SOL    HW1 6425   5.355   0.167   7.272  0.0918 -0.5822  0.1737
33188SOL    HW2 6426   5.499   0.177   7.229 -0.1737  1.9388 -0.2691
33189SOL     OW 6427  10.182  12.319   6.899 -0.0612  0.4723 -0.0739
33189SOL    HW1 6428  10.163  12.391   6.839  0.5080 -0.2288 -1.1241
33189SOL    HW2 6429  10.238  12.358   6.966 -1.3334  1.4501  0.4699
33190SOL     OW 6430   3.851   6.072   4.308  0.1213  0.2541  0.1399
33190SOL    HW1 6431   3.794   6.088   4.233 -0.9346 -2.2811  0.2762
33190SOL    HW2 6432   3.790   6.054   4.380  1.0792  3.0975  1.8336
33191SOL     OW 6433   3.042   9.648   1.787 -0.2559 -0.0194  0.1833
33191SOL    HW1 6434   2.980   9.637   1.859  0.4073  1.3514  0.9975
33191SOL    HW2 6435   3.059   9.742   1.784 -1.2231  0.1802 -2.6123
33192SOL     OW 6436   0.509   7.047  10.840  0.5939  0.1784 -0.3784
33192SOL    HW1 6437   0.504   7.140  10.819 -0.0464  0.1874 -0.2246
33192SOL    HW2 6438   0.580   7.013  10.786  1.4533  0.9347  0.2515
33193SOL     OW 6439   6.586  12.079   6.410  0.2767 -0.2053  0.3866
33193SOL    HW1 6440   6.666  12.129   6.425  0.6160 -0.5174 -0.3361
33193SOL    HW2 6441   6.590  12.007   6.473  0.1859  0.2116  0.8728
33194SOL     OW 6442  11.235   2.939  11.234 -0.9205  0.1725  0.0186
33194SOL    HW1 6443  11.308   2.992  11.266  0.0777 -1.1026 -0.0641
33194SOL    HW2 6444  11.183   2.999  11.182  0.1942  1.0744 -0.0919
33195SOL     OW 6445   2.079   9.259   4.057 -0.1145 -1.1559 -0.0548
33195SOL    HW1 6446   2.035   9.344   4.046 -0.4335 -1.3618 -0.4054
33195SOL    HW2 6447   2.099   9.231   3.967 -0.6654 -1.7862  0.0083
33196SOL     OW 6448   8.081   4.419   9.376  0.1926  0.5460  0.1274
33196SOL    HW1 6449   8.051   4.421   9.285  0.7279 -1.0000 -0.1093
33196SOL    HW2 6450   8.175   4.400   9.370  0.0725 -0.4043  1.0271
33197SOL     OW 6451   4.952   6.583   3.807  0.2810  0.5672  0.0689
33197SOL    HW1 6452   4.924   6.520   3.740  0.0058  0.6775  0.0801
33197SOL    HW2 6453   5.042   6.557   3.827  0.5687  0.8727 -0.7512
33198SOL     OW 6454  12.448   6.674   5.916  1.1265 -0.5174  0.2413
33198SOL    HW1 6455  12.416   6.606   5.856  1.7509 -0.4252 -0.2040
33198SOL    HW2 6456  12.389   6.668   5.991 -0.5595  0.2689 -0.9405
33199SOL     OW 6457   4.011   4.340   1.979  0.1403  0.1056 -0.2771
33199SOL    HW1 6458   4.085   4.306   2.029  0.5925 -0.0005 -1.0009
33199SOL    HW2 6459   4.035   4.327   1.888 -0.3633  0.9323 -0.5456
33200SOL     OW 6460   5.272   0.039  11.069 -0.4447  0.5573  0.1341
33200SOL    HW1 6461   5.278  -0.007  11.153 -1.1211  1.3964  0.6722
33200SOL    HW2 6462   5.340   0.001  11.015 -0.2734 -0.2962  0.9319
33201SOL     OW 6463   6.706   1.226   7.599 -0.0918 -0.2353  0.6063
33201SOL    HW1 6464   6.762   1.148   7.600  0.1989 -0.0313  0.8734
33201SOL    HW2 6465   6.709   1.256   7.508  0.8600  0.2029  0.7630
33202SOL     OW 6466   2.103  12.048   2.088 -0.1814 -0.3506  0.0075
33202SOL    HW1 6467   2.009  12.048   2.072 -0.5525  2.0120  1.5380
33202SOL    HW2 6468   2.129  12.140   2.080  1.4019 -0.4788  2.3573
33203SOL     OW 6469   3.567   3.115   1.685  0.2650  0.3989 -0.2092
33203SOL    HW1 6470   3.531   3.029   1.708  1.6168 -0.2484 -0.3790
33203SOL    HW2 6471   3.640   3.095   1.625  0.9559  1.6144  0.1902
33204SOL     OW 6472   4.438   5.747   6.665  0.1535 -0.4567  0.2974
33204SOL    HW1 6473   4.428   5.721   6.573  0.9726 -0.4834  0.2078
33204SOL    HW2 6474   4.517   5.701   6.694  0.5285  0.4044  0.6912
33205SOL     OW 6475  11.056   8.844   8.842  0.3168 -0.3562 -0.4764
33205SOL    HW1 6476  11.143   8.812   8.817 -0.1849 -1.0306 -1.4144
33205SOL    HW2 6477  10.996   8.787   8.794 -0.6337  0.5261 -0.3423
33206SOL     OW 6478   2.441  10.988  10.191  0.2810 -0.0371  0.4812
33206SOL    HW1 6479   2.384  10.947  10.255 -2.2773  1.4935 -0.6637
33206SOL    HW2 6480   2.443  10.927  10.117  1.2057 -0.6649  1.0081
33207SOL     OW 6481  12.360   1.679   4.344  0.4688  0.2289  0.8248
33207SOL    HW1 6482  12.309   1.600   4.358  0.6838 -0.2039 -0.6453
33207SOL    HW2 6483  12.438   1.667   4.399  1.3031 -1.3836 -0.6134
33208SOL     OW 6484   4.492   8.589   1.763 -0.7095  0.0744  0.3984
33208SOL    HW1 6485   4.407   8.634   1.766 -0.6833  0.4167 -2.0533
33208SOL    HW2 6486   4.556   8.660   1.758 -0.5283 -0.1669 -1.1713
33209SOL     OW 6487   1.103   4.646   4.718  0.0927  0.1098  0.0829
33209SOL    HW1 6488   1.013   4.680   4.717  0.7306  1.8624 -0.0034
33209SOL    HW2 6489   1.120   4.626   4.810 -0.0781  0.6552  0.2370
33210SOL     OW 6490   9.653  10.966   7.945  1.0574  0.3696 -0.2901
33210SOL    HW1 6491   9.585  10.979   7.880 -0.9572 -2.1506  1.1333
33210SOL    HW2 6492   9.654  11.047   7.995 -1.6117  0.1869  0.2015
33211SOL     OW 6493  11.885   7.279   0.074 -0.0642 -0.0651 -0.3373
33211SOL    HW1 6494  11.964   7.326   0.050 -0.0062  0.3170  0.5396
33211SOL    HW2 6495  11.820   7.348   0.089 -0.1889 -0.2945  0.2206
33212SOL     OW 6496  11.022   8.181   5.093  0.5619 -0.2923 -0.3309
33212SOL    HW1 6497  11.083   8.129   5.040 -0.2359  0.2992 -1.8876
33212SOL    HW2 6498  10.959   8.117   5.127 -1.1824 -0.3248 -3.2892
33213SOL     OW 6499   3.408   6.917   2.087 -0.0918 -0.2619  0.1593
33213SOL    HW1 6500   3.496   6.884   2.106  0.3610  0.4743 -0.5973
33213SOL    HW2 6501   3.349   6.847   2.116  0.6501 -0.1698  2.0270
33214SOL     OW 6502   8.920   1.337   5.750  0.3259 -0.2886  0.3219
33214SOL    HW1 6503   8.952   1.327   5.840 -0.8448  0.6724  0.8729
33214SOL    HW2 6504   8.825   1.340   5.759  0.2256  0.7125 -0.8450
33215SOL     OW 6505   5.951   1.306   7.223 -0.2317 -0.2564  0.0687
33215SOL    HW1 6506   5.951   1.380   7.285 -0.1114 -0.2756  0.0914
33215SOL    HW2 6507   5.868   1.261   7.239 -0.6699  0.3323 -0.4881
33216SOL     OW 6508   9.227   3.086   8.272 -0.2979  0.6383  0.1848
33216SOL    HW1 6509   9.317   3.115   8.280 -0.2985  0.6381  0.1915
33216SOL    HW2 6510   9.218   3.059   8.181  0.1376 -0.8147  0.5608
33217SOL     OW 6511   5.500   9.622  12.241 -0.1728 -0.1837  0.3579
33217SOL    HW1 6512   5.423   9.658  12.286 -1.2729 -1.1767 -0.6685
33217SOL    HW2 6513   5.468   9.599  12.154  0.8807 -2.1730  0.4594
33218SOL     OW 6514   8.046   1.682   8.477  0.0364  0.1076  0.0391
33218SOL    HW1 6515   8.006   1.740   8.542  0.6120 -0.2685  0.7475
33218SOL    HW2 6516   7.998   1.599   8.486  1.9309 -0.8814  2.0351
33219SOL     OW 6517   7.196   3.289   2.308 -0.4607  0.0517 -0.0162
33219SOL    HW1 6518   7.119   3.310   2.362 -0.5535 -1.4514  0.4793
33219SOL    HW2 6519   7.257   3.248   2.368  0.4671  0.5815 -0.5670
33220SOL     OW 6520   2.589   2.587   0.802 -0.1033 -0.3709  0.4864
33220SOL    HW1 6521   2.630   2.503   0.824 -0.3926 -0.7396 -0.3381
33220SOL    HW2 6522   2.663   2.646   0.790  0.0632 -0.0876  2.5903
33221SOL     OW 6523   5.102  11.144   5.382 -0.2560  0.0765 -0.1758
33221SOL    HW1 6524   5.141  11.070   5.430 -0.8487 -0.5899 -0.6943
33221SOL    HW2 6525   5.121  11.220   5.436  1.9941 -0.1746 -0.5438
33222SOL     OW 6526   2.636  10.080  10.703 -0.4541  0.0932  0.5573
33222SOL    HW1 6527   2.715  10.106  10.751  0.4468 -0.9409 -0.3331
33222SOL    HW2 6528   2.651  10.109  10.614 -0.5130 -1.2138  0.1012
33223SOL     OW 6529   6.857  11.986   3.689 -0.1299  0.2851 -0.4242
33223SOL    HW1 6530   6.879  11.897   3.717 -1.2563  0.4072  0.9736
33223SOL    HW2 6531   6.909  12.043   3.745  0.2933  0.5323 -1.0500
33224SOL     OW 6532   5.084   6.357   7.386 -0.1347  0.3322 -0.5456
33224SOL    HW1 6533   5.019   6.308   7.335 -1.5269 -0.8401  2.1265
33224SOL    HW2 6534   5.032   6.403   7.452  1.6788 -1.0172  2.0043
33225SOL     OW 6535   8.973  10.936  11.003 -0.2666 -0.3844  0.2634
33225SOL    HW1 6536   8.946  10.883  10.928 -0.0025  0.5962 -0.5360
33225SOL    HW2 6537   8.976  10.873  11.076 -2.3236 -1.0049 -0.1126
33226SOL     OW 6538   2.429   2.686   2.548 -0.6021  0.0332  0.5880
33226SOL    HW1 6539   2.483   2.674   2.470 -0.5360 -2.0098  0.9044
33226SOL    HW2 6540   2.491   2.718   2.614 -0.5248  1.1115  0.0219
33227SOL     OW 6541   2.094   5.148   1.944 -0.1909 -0.1050  0.3127
33227SOL    HW1 6542   2.036   5.200   1.888  0.6282 -1.3853 -1.8288
33227SOL    HW2 6543   2.035   5.099   2.001 -1.0905  0.6422  0.0437
33228SOL     OW 6544  10.832   1.477  10.513 -0.3740 -0.1148  0.4005
33228SOL    HW1 6545  10.841   1.454  10.421 -2.5006  1.3648 -0.2770
33228SOL    HW2 6546  10.904   1.537  10.531  0.4175 -0.9068 -0.1032
33229SOL     OW 6547  11.835   8.761  11.065  0.1770 -0.4720 -0.5531
33229SOL    HW1 6548  11.905   8.721  11.014  1.5934 -0.1842  1.0820
33229SOL    HW2 6549  11.817   8.698  11.135  1.0259  0.7862  0.8589
33230SOL     OW 6550   7.802   7.529   9.157 -0.3711 -0.8760 -0.2346
33230SOL    HW1 6551   7.768   7.447   9.193 -1.7623 -1.6797 -3.0802
33230SOL    HW2 6552   7.784   7.523   9.063  0.0243  2.4735 -0.6358
33231SOL     OW 6553  12.222   2.336   3.873  0.2367  0.0697  0.1414
33231SOL    HW1 6554  12.139   2.291   3.862  0.4009 -0.8370  2.1886
33231SOL    HW2 6555  12.200   2.416   3.921  0.6073 -0.6881  1.6586
33232SOL     OW 6556   1.700   2.649   2.839  0.3079 -0.1076  0.1917
33232SOL    HW1 6557   1.628   2.632   2.779  1.8849 -0.5788 -1.6821
33232SOL    HW2 6558   1.717   2.743   2.829  0.9284 -0.2855 -0.5995
33233SOL     OW 6559   1.741   8.326   7.160 -0.0461 -0.3335 -0.9053
33233SOL    HW1 6560   1.799   8.252   7.143 -0.0870 -0.3500 -0.9733
33233SOL    HW2 6561   1.667   8.289   7.208  1.0250  0.0493  1.1467
33234SOL     OW 6562   5.392   0.508   9.620  0.2312 -0.3861 -0.1597
33234SOL    HW1 6563   5.373   0.414   9.613 -1.3094 -0.1196  0.1613
33234SOL    HW2 6564   5.486   0.512   9.632  0.1833 -1.9634  1.0663
33235SOL     OW 6565   7.460   1.592   2.100 -0.4544 -0.0071 -0.5934
33235SOL    HW1 6566   7.537   1.546   2.133 -0.4985 -1.2960 -2.1347
33235SOL    HW2 6567   7.491   1.680   2.080  0.8946 -0.7625 -2.0365
33236SOL     OW 6568   4.537   2.125   8.124  0.5207  0.3997  0.2627
33236SOL    HW1 6569   4.458   2.125   8.070  0.4988 -0.3622  0.2774
33236SOL    HW2 6570   4.573   2.213   8.114  0.8208  0.1256 -1.4531
33237SOL     OW 6571   7.640   4.338   4.283  0.3038 -0.3846 -0.0782
33237SOL    HW1 6572   7.607   4.421   4.319 -2.7535 -0.4645 -2.2593
33237SOL    HW2 6573   7.647   4.354   4.189 -0.5194 -2.6021 -0.5791
33238SOL     OW 6574   4.294   6.638   3.856 -0.0195 -0.3372 -0.1049
33238SOL    HW1 6575   4.299   6.556   3.905  0.7057 -0.5462 -0.5165
33238SOL    HW2 6576   4.201   6.647   3.835 -0.1801 -0.7958  0.3705
33239SOL     OW 6577   4.865   2.385   7.091  0.1206 -0.2093  0.1729
33239SOL    HW1 6578   4.834   2.325   7.159 -0.0671  0.6879  0.8981
33239SOL    HW2 6579   4.791   2.395   7.031 -0.9615  1.6218  1.6861
33240SOL     OW 6580   9.151  10.100   4.820 -0.0300 -0.2926 -0.2744
33240SOL    HW1 6581   9.198  10.018   4.835 -0.2397 -0.3614  0.0128
33240SOL    HW2 6582   9.120  10.093   4.729 -1.7167 -1.3958  0.3294
33241SOL     OW 6583   2.641   4.820  10.556  0.2772  0.8124  0.1727
33241SOL    HW1 6584   2.646   4.731  10.521  0.0361  0.4270  1.0846
33241SOL    HW2 6585   2.720   4.863  10.525 -0.8813  1.1650 -2.5889
33242SOL     OW 6586   7.325   8.357   6.824  0.2405 -0.0910  0.3529
33242SOL    HW1 6587   7.279   8.404   6.754  0.0926  0.0224  0.5275
33242SOL    HW2 6588   7.257   8.308   6.870 -0.1328  1.9829  2.1648
33243SOL     OW 6589   1.584   4.011   1.862 -0.0422 -0.3850  0.3582
33243SOL    HW1 6590   1.562   3.921   1.885  0.1396 -0.2979  0.8886
33243SOL    HW2 6591   1.510   4.063   1.894 -0.2982 -0.3713 -0.2300
33244SOL     OW 6592   4.444  11.594   8.664 -0.2598  0.1782 -0.0253
33244SOL    HW1 6593   4.368  11.584   8.607 -0.3191 -1.7932  0.3224
33244SOL    HW2 6594   4.432  11.680   8.705 -1.5062  0.5436 -1.0893
33245SOL     OW 6595  11.521   9.683   7.357  0.0347  0.3474  0.5118
33245SOL    HW1 6596  11.458   9.667   7.428 -1.2460 -0.0159 -0.6617
33245SOL    HW2 6597  11.482   9.641   7.280  1.3049  0.8741 -0.4596
33246SOL     OW 6598   7.162   0.980   2.382 -0.1733 -0.0402  0.7295
33246SOL    HW1 6599   7.196   1.031   2.456  0.4060  1.0223 -0.2508
33246SOL    HW2 6600   7.126   0.901   2.423  0.7493  0.2043  2.0780
33247SOL     OW 6601   8.546   8.199   1.658  0.0346  0.2103 -0.6211
33247SOL    HW1 6602   8.479   8.183   1.724 -1.7085  0.4429 -2.2506
33247SOL    HW2 6603   8.556   8.116   1.612 -0.7310  0.7146 -1.7540
33248SOL     OW 6604   7.994   5.889  11.312  0.6037 -0.0475  0.3774
33248SOL    HW1 6605   8.048   5.811  11.325 -0.0600 -0.5343  0.2455
33248SOL    HW2 6606   8.005   5.912  11.220  1.6780  0.6813  0.6772
33249SOL     OW 6607   6.943   8.860   0.406  0.4757  0.1483 -0.2663
33249SOL    HW1 6608   7.021   8.873   0.353  0.7757 -1.7090 -0.3394
33249SOL    HW2 6609   6.950   8.925   0.476  1.5739  0.6651 -0.8398
33250SOL     OW 6610   5.954  11.906   7.355  0.4171  0.0816  0.9044
33250SOL    HW1 6611   5.881  11.949   7.311 -0.3284 -0.9959  1.0478
33250SOL    HW2 6612   5.990  11.847   7.289  0.3534 -0.3165  1.2230
33251SOL     OW 6613  10.350   6.615  11.331 -0.1693 -0.2083  0.6170
33251SOL    HW1 6614  10.373   6.694  11.378 -1.5976  0.3409  0.4523
33251SOL    HW2 6615  10.256   6.623  11.314 -0.5212 -2.2833  1.2596
33252SOL     OW 6616  10.062  10.505  12.133 -0.3029  0.2413 -0.1234
33252SOL    HW1 6617  10.066  10.593  12.170  2.1692  0.1995 -0.1575
33252SOL    HW2 6618  10.112  10.451  12.193 -0.5492 -0.8612 -0.8849
33253SOL     OW 6619   0.176   6.394  12.365 -0.0603 -0.0460 -0.5302
33253SOL    HW1 6620   0.174   6.485  12.335 -0.3725  0.0953 -0.0949
33253SOL    HW2 6621   0.269   6.371  12.366  0.0735  0.4910  0.0080
33254SOL     OW 6622   7.511   4.017   0.903 -0.1781 -0.3452 -0.0182
33254SOL    HW1 6623   7.590   4.031   0.956 -0.0213  0.3534 -0.4147
33254SOL    HW2 6624   7.522   4.076   0.828 -1.7697  0.9060  0.6804
33255SOL     OW 6625  10.539   0.975   4.535 -0.6982 -0.5498 -0.1169
33255SOL    HW1 6626  10.446   0.959   4.551 -0.5755 -0.5024  0.6706
33255SOL    HW2 6627  10.568   1.026   4.611 -0.0889 -0.3351 -0.4874
33256SOL     OW 6628   9.152  11.412   9.874  0.1021  0.3893  0.3644
33256SOL    HW1 6629   9.175  11.417   9.967 -0.1280  1.8676  0.3645
33256SOL    HW2 6630   9.120  11.323   9.862  1.0081 -0.1124  1.4926
33257SOL     OW 6631   7.885  11.512   7.923 -0.3010  0.8685 -0.2292
33257SOL    HW1 6632   7.907  11.581   7.985 -0.2225 -0.3954  1.2249
33257SOL    HW2 6633   7.868  11.435   7.978  0.4990 -0.5137 -1.8119
33258SOL     OW 6634   0.002   7.828   7.109 -0.3234 -0.7095 -0.7483
33258SOL    HW1 6635  -0.073   7.888   7.102 -1.2427 -1.8062 -0.5249
33258SOL    HW2 6636  -0.032   7.743   7.084  0.7017 -1.3581 -0.0365
33259SOL     OW 6637   4.444  10.961  11.814  1.2275  0.0786 -0.3359
33259SOL    HW1 6638   4.404  10.947  11.728  0.0398  2.6797 -0.2841
33259SOL    HW2 6639   4.372  10.990  11.870  2.1496 -0.6989  1.3434
33260SOL     OW 6640   1.728   1.540  11.409 -0.0044  0.4357 -0.2472
33260SOL    HW1 6641   1.735   1.555  11.314  1.0737 -0.6144 -0.3656
33260SOL    HW2 6642   1.735   1.445  11.418 -0.8377  0.4677  0.8428
33261SOL     OW 6643   8.526   2.058  12.132 -0.5424 -0.3919  0.0929
33261SOL    HW1 6644   8.437   2.043  12.164 -0.8933 -1.0894 -1.1508
33261SOL    HW2 6645   8.559   1.970  12.111 -0.9295  0.0845 -2.9305
33262SOL     OW 6646   5.583   5.892   0.404  0.2212 -0.1887  0.0352
33262SOL    HW1 6647   5.510   5.833   0.382 -0.2887  0.2521  0.5112
33262SOL    HW2 6648   5.556   5.934   0.485  1.1286 -0.1995  0.3538
33263SOL     OW 6649   4.748  11.746   6.428  0.0864  0.1367 -0.8284
33263SOL    HW1 6650   4.757  11.662   6.473  1.8894  0.7748  0.0831
33263SOL    HW2 6651   4.744  11.811   6.498  1.7888  1.0575 -1.5332
33264SOL     OW 6652   2.660   8.681  12.277 -0.2811 -0.3363 -0.1170
33264SOL    HW1 6653   2.565   8.676  12.266 -0.0460 -2.0299 -1.9835
33264SOL    HW2 6654   2.674   8.663  12.370 -1.7828  0.3585  0.2807
33265SOL     OW 6655   8.631   6.381  12.266  0.4860  0.3658 -0.4346
33265SOL    HW1 6656   8.558   6.366  12.327  0.5077  1.0990 -0.2211
33265SOL    HW2 6657   8.611   6.465  12.225  1.7699  1.1620  0.4676
33266SOL     OW 6658  10.253   8.384   3.828  1.0307  0.6756 -0.2605
33266SOL    HW1 6659  10.189   8.341   3.885  1.5674  0.0863 -0.0998
33266SOL    HW2 6660  10.205   8.458   3.790  0.4035  0.5348  0.2483
33267SOL     OW 6661   7.824   3.409   0.528 -0.5239  0.7949 -0.3323
33267SOL    HW1 6662   7.834   3.319   0.496 -0.7414  1.3179 -1.9847
33267SOL    HW2 6663   7.764   3.402   0.602 -1.1199 -0.3384 -0.9002
33268SOL     OW 6664   1.443   4.034   2.367  0.1499  0.4612  0.5484
33268SOL    HW1 6665   1.533   4.012   2.345  0.1265  1.5854 -0.8301
33268SOL    HW2 6666   1.419   3.973   2.436  0.8632 -2.1431 -1.3288
33269SOL     OW 6667   9.368  11.098   9.932  0.2058 -0.1035 -0.3462
33269SOL    HW1 6668   9.363  11.143   9.847 -0.8081 -1.8414 -1.2529
33269SOL    HW2 6669   9.438  11.034   9.921 -0.7985 -1.2311 -0.3501
33270SOL     OW 6670   9.120   1.277   3.665  0.0851  0.1930 -0.1486
33270SOL    HW1 6671   9.101   1.269   3.758 -0.2139  1.1213 -0.1170
33270SOL    HW2 6672   9.035   1.274   3.622  0.2616 -0.7724 -0.4416
33271SOL     OW 6673   7.804  11.341   4.092  0.4145 -0.3327 -0.1123
33271SOL    HW1 6674   7.725  11.378   4.132 -0.2294 -0.7133 -0.9874
33271SOL    HW2 6675   7.785  11.247   4.085  0.6591 -0.3326 -0.9417
33272SOL     OW 6676   2.339   4.586  11.664  0.2978 -0.1774 -0.5237
33272SOL    HW1 6677   2.386   4.623  11.739 -0.5964 -0.9345  0.4296
33272SOL    HW2 6678   2.254   4.559  11.699 -1.1414  1.6776 -2.3174
33273SOL     OW 6679   8.987   7.237   5.553  0.4693  0.0297  0.1895
33273SOL    HW1 6680   8.949   7.220   5.639 -1.9343  1.5181 -0.5039
33273SOL    HW2 6681   8.928   7.299   5.512  2.9266  1.3787 -1.5859
33274SOL     OW 6682   9.934   2.452  11.212  0.2739 -0.4085  0.0953
33274SOL    HW1 6683   9.951   2.531  11.162  2.5806 -0.2069  1.0969
33274SOL    HW2 6684   9.922   2.482  11.302  0.0940 -1.0967  0.3103
33275SOL     OW 6685   7.168   4.487   9.395  0.2015 -0.1407  0.1327
33275SOL    HW1 6686   7.115   4.429   9.450  1.4945 -0.8855  0.6410
33275SOL    HW2 6687   7.234   4.523   9.455  0.1042  0.9876 -0.4242
33276SOL     OW 6688   1.457  12.459  12.341 -0.3559 -0.1523  0.4383
33276SOL    HW1 6689   1.374  12.419  12.367 -0.7796  0.5522  0.2027
33276SOL    HW2 6690   1.444  12.553  12.355 -0.5596  0.2607 -2.1183
33277SOL     OW 6691   8.858  11.180   0.027  0.0587 -0.1104 -0.1244
33277SOL    HW1 6692   8.851  11.113  -0.041  0.1105 -1.2511  0.9603
33277SOL    HW2 6693   8.854  11.131   0.109  0.1641  1.2206  0.6980
33278SOL     OW 6694  10.474  10.470  11.251  0.0391 -0.0398 -0.1629
33278SOL    HW1 6695  10.514  10.390  11.217  0.9343  0.4380 -0.2554
33278SOL    HW2 6696  10.547  10.526  11.276 -0.5189  1.2900 -1.3350
33279SOL     OW 6697  12.175   9.149  10.441  0.2984  0.4265 -0.7416
33279SOL    HW1 6698  12.232   9.084  10.483 -0.2995  0.1910 -0.2797
33279SOL    HW2 6699  12.178   9.225  10.500 -1.2482 -0.2234  0.2479
33280SOL     OW 6700   9.619  12.039   4.594  0.5993 -0.0884  0.3262
33280SOL    HW1 6701   9.568  12.115   4.566  1.4487  0.0605 -0.9491
33280SOL    HW2 6702   9.710  12.070   4.591  0.7854  0.6302  5.5073
33281SOL     OW 6703  10.927   8.724   2.083 -0.5099  0.6141 -0.3351
33281SOL    HW1 6704  10.918   8.649   2.024 -1.2141  1.3919 -1.2720
33281SOL    HW2 6705  10.931   8.686   2.170  0.1478 -0.5601 -0.8464
33282SOL     OW 6706   5.123   2.722  11.516 -0.1187  0.0608 -0.1814
33282SOL    HW1 6707   5.155   2.640  11.553 -0.4932  0.1437  0.3327
33282SOL    HW2 6708   5.028   2.716  11.523 -0.1057  1.2688  1.4721
33283SOL     OW 6709   6.523   9.011   7.680 -0.0349  0.8269 -0.2016
33283SOL    HW1 6710   6.556   9.063   7.754  0.3823  0.7286 -0.3168
33283SOL    HW2 6711   6.428   9.011   7.692  0.0922 -0.3571  1.1280
33284SOL     OW 6712   9.446   5.542   4.583  0.5178 -0.1771 -0.5338
33284SOL    HW1 6713   9.388   5.612   4.616  0.4065 -0.8690  0.8193
33284SOL    HW2 6714   9.397   5.503   4.511 -1.0254 -1.1033  0.9248
33285SOL     OW 6715   7.070   3.657   0.187  0.3174 -0.0317 -0.1842
33285SOL    HW1 6716   7.094   3.730   0.131 -0.1287  0.9879  0.9136
33285SOL    HW2 6717   7.152   3.612   0.205  1.0399  1.6719  1.1171
33286SOL     OW 6718   3.058   2.632   9.344 -0.3583  0.2269 -0.9717
33286SOL    HW1 6719   3.122   2.673   9.285 -0.1424  0.6600 -0.4402
33286SOL    HW2 6720   3.095   2.546   9.364  0.5983  0.8719  0.1728
33287SOL     OW 6721   7.098   0.212  11.042 -0.3144 -0.7334  0.2334
33287SOL    HW1 6722   7.106   0.141  11.107  1.1221 -0.5531  0.2833
33287SOL    HW2 6723   7.108   0.168  10.958  0.2234 -0.6470  0.2489
33288SOL     OW 6724   0.198   8.287   3.866  0.0438  0.1284 -0.1851
33288SOL    HW1 6725   0.214   8.194   3.851  0.6046  0.4078 -1.4861
33288SOL    HW2 6726   0.110   8.291   3.903  0.2981 -0.9601  0.5831
33289SOL     OW 6727   4.905   9.290  10.853 -0.1496  0.4339 -0.2543
33289SOL    HW1 6728   4.999   9.290  10.836 -0.4653  1.6886 -2.4111
33289SOL    HW2 6729   4.893   9.357  10.920  0.3741  1.4335 -1.1149
33290SOL     OW 6730   2.334   1.666  12.372 -0.0610  0.0544 -0.3782
33290SOL    HW1 6731   2.385   1.606  12.427  0.2464  1.7023  1.2381
33290SOL    HW2 6732   2.275   1.609  12.323  1.0179 -1.6464  0.1884
33291SOL     OW 6733   5.498  10.259   3.231 -0.1781  0.6746  0.3580
33291SOL    HW1 6734   5.499  10.341   3.279 -1.2449 -0.0022  1.5932
33291SOL    HW2 6735   5.559  10.203   3.278 -0.7655  0.2012  0.5685
33292SOL     OW 6736   2.738  11.184   1.999  0.0607  0.3815  0.1394
33292SOL    HW1 6737   2.833  11.185   1.985  0.2481  1.9062  1.3171
33292SOL    HW2 6738   2.714  11.092   1.992  1.6721 -0.0618  0.1131
33293SOL     OW 6739   3.518   9.709   7.844 -0.1896  0.0607  0.1074
33293SOL    HW1 6740   3.483   9.773   7.906  2.2339 -0.1468  1.8551
33293SOL    HW2 6741   3.444   9.652   7.822 -1.5544  1.3190  1.3146
33294SOL     OW 6742  10.014   9.690   2.659 -1.1152 -0.3798  0.5564
33294SOL    HW1 6743   9.930   9.735   2.666  0.7308  3.9948 -1.5470
33294SOL    HW2 6744  10.021   9.664   2.567  0.6813  1.6578  0.0173
33295SOL     OW 6745   3.483  11.860  10.535  0.0388  0.1612 -0.0428
33295SOL    HW1 6746   3.535  11.886  10.459 -2.3979 -0.1534 -1.9236
33295SOL    HW2 6747   3.463  11.768  10.520 -1.2034  0.3265  0.5095
33296SOL     OW 6748   5.119   4.622   9.133  0.1957  0.3665  0.0248
33296SOL    HW1 6749   5.130   4.586   9.221 -0.2018 -2.5345 -1.0189
33296SOL    HW2 6750   5.176   4.699   9.132 -0.5481  1.1075  3.0902
33297SOL     OW 6751   9.234   1.957   7.028  0.4296  0.1741 -0.1960
33297SOL    HW1 6752   9.190   1.874   7.011 -0.8614  1.1939 -2.3253
33297SOL    HW2 6753   9.171   2.007   7.079  1.4923 -0.3402  1.7210
33298SOL     OW 6754   6.368  10.760  11.243  0.2225  0.3475  0.1608
33298SOL    HW1 6755   6.424  10.783  11.317 -0.5004  0.5314  0.6612
33298SOL    HW2 6756   6.371  10.837  11.186  0.2191  0.4806  0.3410
33299SOL     OW 6757   7.855  10.140  12.365  0.2180 -0.0926 -0.1785
33299SOL    HW1 6758   7.775  10.162  12.412  0.0971 -2.1561  0.6813
33299SOL    HW2 6759   7.912  10.216  12.378 -1.0744  0.8306  0.3600
33300SOL     OW 6760   1.412   5.304   9.756 -0.1251  0.0453  0.2588
33300SOL    HW1 6761   1.436   5.384   9.709  2.9095 -1.7765 -1.6516
33300SOL    HW2 6762   1.495   5.259   9.770 -1.7688 -3.1720  0.5269
33301SOL     OW 6763   9.314   6.775   7.972 -0.2860  0.2758  0.0715
33301SOL    HW1 6764   9.258   6.710   7.929 -0.9476  2.0128 -1.8715
33301SOL    HW2 6765   9.403   6.739   7.964 -0.5586 -0.1461 -1.5451
33302SOL     OW 6766   1.589   8.900   0.979  0.1158  0.3242  0.3294
33302SOL    HW1 6767   1.501   8.935   0.963 -0.1840 -0.7217 -0.4610
33302SOL    HW2 6768   1.594   8.823   0.922  1.7572  0.6860 -0.0593
33303SOL     OW 6769   8.377   5.812  10.437  0.1233  0.8962 -0.3337
33303SOL    HW1 6770   8.360   5.793  10.529 -0.5213  1.6222 -0.2880
33303SOL    HW2 6771   8.469   5.835  10.434  0.3921 -0.0754 -0.0417
33304SOL     OW 6772   1.852  11.274   0.960  0.6240 -0.5626  0.0408
33304SOL    HW1 6773   1.861  11.369   0.971 -2.4464 -0.4606  4.0267
33304SOL    HW2 6774   1.787  11.264   0.891 -0.5214  0.4124  0.9317
33305SOL     OW 6775   3.340   3.334   2.571  0.2668  0.1453 -0.3111
33305SOL    HW1 6776   3.432   3.309   2.580  0.2755  0.2939  0.0240
33305SOL    HW2 6777   3.292   3.251   2.575  0.3282  0.1374  0.3392
33306SOL     OW 6778   3.188  11.359   8.242 -0.8530 -0.4018 -0.7178
33306SOL    HW1 6779   3.159  11.269   8.223  0.0499 -0.7394 -0.5622
33306SOL    HW2 6780   3.257  11.376   8.179  1.1328 -0.9861  1.1610
33307SOL     OW 6781   4.724   9.024   4.987 -0.4871 -0.6692  0.3854
33307SOL    HW1 6782   4.636   8.987   4.997 -0.7128  0.1807  1.9232
33307SOL    HW2 6783   4.719   9.108   5.032  0.2711  0.8576 -2.1467
33308SOL     OW 6784   4.846   8.348   2.404  0.9783 -0.1357  0.0797
33308SOL    HW1 6785   4.867   8.439   2.425 -0.2916 -0.0190  0.9851
33308SOL    HW2 6786   4.830   8.348   2.310 -0.4375  0.9203  0.2786
33309SOL     OW 6787   2.871   3.437   8.850  0.0603  0.1188  0.0083
33309SOL    HW1 6788   2.890   3.520   8.807  0.5428  0.9708  1.7734
33309SOL    HW2 6789   2.938   3.377   8.819 -0.2755  0.3690 -1.2603
33310SOL     OW 6790   6.232   5.136   4.621  0.1761  0.1237 -0.3060
33310SOL    HW1 6791   6.144   5.157   4.589  0.4556  0.5981 -0.7829
33310SOL    HW2 6792   6.271   5.221   4.643  1.5450  0.2478 -2.8451
33311SOL     OW 6793   7.950   7.513  12.480  0.4931  0.0978  0.4045
33311SOL    HW1 6794   7.934   7.598  12.522 -2.7660 -1.1110  1.9859
33311SOL    HW2 6795   7.929   7.527  12.388 -0.1778  0.9916  0.6769
33312SOL     OW 6796  12.465   8.634   6.154  1.0651  0.4297  0.1152
33312SOL    HW1 6797  12.433   8.708   6.206  0.0875 -0.9362  1.5695
33312SOL    HW2 6798  12.441   8.656   6.064 -0.5351  1.2274  0.6917
33313SOL     OW 6799   3.927   3.511   6.982 -0.1665  0.2383 -0.3587
33313SOL    HW1 6800   3.905   3.504   6.889  0.3019 -0.1094 -0.4465
33313SOL    HW2 6801   3.844   3.502   7.027 -0.8282  3.1389 -0.8365
33314SOL     OW 6802   9.005   3.979   0.738 -0.3213 -0.1539  0.5349
33314SOL    HW1 6803   8.975   3.994   0.648  0.2249 -1.0655  0.1880
33314SOL    HW2 6804   8.925   3.984   0.791 -0.6023  0.6912  0.0455
33315SOL     OW 6805  10.954   2.095   5.073 -0.1042 -0.4095 -0.3053
33315SOL    HW1 6806  10.889   2.158   5.041 -0.5886  0.5252  2.2403
33315SOL    HW2 6807  10.902   2.024   5.110  0.3498 -0.4341  0.2991
33316SOL     OW 6808  10.379   1.944   6.113  0.0172  0.0890 -0.0951
33316SOL    HW1 6809  10.323   1.886   6.166  0.8986 -1.2805 -0.6219
33316SOL    HW2 6810  10.333   1.951   6.029 -0.1262  0.2368 -0.0068
33317SOL     OW 6811   5.493   9.360   3.318 -0.2873  0.6551  0.5533
33317SOL    HW1 6812   5.478   9.368   3.224  1.3312 -0.8682  0.1254
33317SOL    HW2 6813   5.506   9.450   3.348 -0.7014  1.1431 -0.6996
33318SOL     OW 6814   8.474   9.570   2.226  0.0142  0.2833 -0.4479
33318SOL    HW1 6815   8.549   9.628   2.212  0.4245 -0.3185 -0.7893
33318SOL    HW2 6816   8.485   9.500   2.161  1.0022 -1.6125  1.6030
33319SOL     OW 6817   4.107  12.402  10.205  0.1875  0.1058  0.0625
33319SOL    HW1 6818   4.086  12.366  10.119  2.5104 -1.0152 -0.1234
33319SOL    HW2 6819   4.108  12.497  10.192 -1.5947  0.0833 -0.5672
33320SOL     OW 6820   3.485   1.082   8.305  0.5427 -0.4112 -0.1475
33320SOL    HW1 6821   3.547   1.062   8.375 -0.3529 -2.4192  0.1313
33320SOL    HW2 6822   3.516   1.031   8.230  0.2059 -0.0300 -0.5536
33321SOL     OW 6823   8.872   4.019   5.032  0.5582 -0.6507  0.2946
33321SOL    HW1 6824   8.853   4.102   4.988  0.9976  0.1737  1.6304
33321SOL    HW2 6825   8.933   3.974   4.973 -0.6114 -0.5961 -1.0270
33322SOL     OW 6826   9.871   4.022   6.334 -0.1510  0.2097 -0.3870
33322SOL    HW1 6827   9.788   4.039   6.377  0.3836 -0.2627  0.8757
33322SOL    HW2 6828   9.856   3.941   6.285  0.1933 -1.1955  1.7121
33323SOL     OW 6829   5.847  11.725   4.928 -0.0883 -0.5995 -0.1633
33323SOL    HW1 6830   5.932  11.709   4.887  0.6361 -1.9863  1.7276
33323SOL    HW2 6831   5.864  11.794   4.992 -0.2327 -1.2691  0.6094
33324SOL     OW 6832   2.997   7.403   3.560 -0.0771  0.0538  0.5308
33324SOL    HW1 6833   2.969   7.340   3.493  0.9544  0.8700 -0.7156
33324SOL    HW2 6834   2.937   7.476   3.550  0.1481  0.2239  0.4091
33325SOL     OW 6835  11.741   5.240  10.239 -0.1497  0.3389 -0.0458
33325SOL    HW1 6836  11.761   5.244  10.333  1.0683 -0.7024 -0.2356
33325SOL    HW2 6837  11.688   5.161  10.229 -0.0255  0.2838 -0.2754
33326SOL     OW 6838   2.877   3.628   8.659  0.8426 -0.1851  0.2566
33326SOL    HW1 6839   2.784   3.639   8.678  0.9523  0.8240  0.2629
33326SOL    HW2 6840   2.885   3.654   8.567  1.2344  0.4683  0.4691
33327SOL     OW 6841   6.040   5.731   9.207 -0.1490 -0.1529  0.0870
33327SOL    HW1 6842   6.124   5.692   9.229 -0.3279 -1.0537 -0.7565
33327SOL    HW2 6843   6.041   5.817   9.249  1.4433  0.1061 -0.4562
33328SOL     OW 6844   3.552  10.223   0.150  0.1116  0.0421  0.3691
33328SOL    HW1 6845   3.595  10.156   0.203 -0.0081 -1.2387 -1.0679
33328SOL    HW2 6846   3.620  10.287   0.131  0.9433 -1.0291 -0.3660
33329SOL     OW 6847  11.975   5.823   1.205 -0.1022 -0.1381 -0.1256
33329SOL    HW1 6848  11.887   5.811   1.171  0.2580  0.9995 -1.5633
33329SOL    HW2 6849  11.965   5.881   1.280 -0.5416  0.3732 -0.5732
33330SOL     OW 6850   9.438   1.908   2.111  0.3545  0.0497 -0.1555
33330SOL    HW1 6851   9.463   1.986   2.160  1.3145  0.3202 -1.0409
33330SOL    HW2 6852   9.380   1.941   2.042 -1.4575 -0.4004  1.0650
33331SOL     OW 6853   2.795   9.219   8.049  0.4478 -0.4063  0.1757
33331SOL    HW1 6854   2.824   9.133   8.018 -1.2162 -0.4387 -1.5306
33331SOL    HW2 6855   2.722   9.200   8.107  0.1753 -0.1702 -0.0846
33332SOL     OW 6856   7.043   3.627   5.999 -0.0724 -0.0703 -0.2251
33332SOL    HW1 6857   7.037   3.648   5.906  1.4571  2.1906  0.1344
33332SOL    HW2 6858   6.975   3.680   6.040 -1.1704 -1.5317 -0.0543
33333SOL     OW 6859   9.185   0.386   9.179 -0.1379  0.1416  0.6250
33333SOL    HW1 6860   9.245   0.406   9.251  0.2723 -1.0642  0.6296
33333SOL    HW2 6861   9.125   0.321   9.215 -1.1116  0.9082  0.4407
33334SOL     OW 6862   6.563   3.029   8.511  0.5279  0.2926  0.2358
33334SOL    HW1 6863   6.470   3.031   8.534  0.4788  1.4967 -0.0418
33334SOL    HW2 6864   6.580   3.112   8.467  1.4924 -0.3674 -0.7122
33335SOL     OW 6865  12.464   8.093   5.143 -0.3040  0.3289  0.2130
33335SOL    HW1 6866  12.440   8.006   5.175 -0.4933 -0.1737 -1.2126
33335SOL    HW2 6867  12.397   8.151   5.179  0.2176  0.0291  1.7542
33336SOL     OW 6868   7.462   8.922   3.965  0.3776 -0.1649  0.0919
33336SOL    HW1 6869   7.531   8.953   3.906  0.5504 -0.2260  0.2581
33336SOL    HW2 6870   7.505   8.854   4.018  0.7700  1.1556  1.5549
33337SOL     OW 6871   9.181   8.354   4.970 -0.4618 -0.4000 -0.3451
33337SOL    HW1 6872   9.178   8.261   4.995 -2.3577  0.0204  1.2022
33337SOL    HW2 6873   9.233   8.395   5.039 -1.8181  0.0575  0.4328
33338SOL     OW 6874   1.065   3.400   2.934 -0.6019  0.0894  0.2897
33338SOL    HW1 6875   1.033   3.442   2.854 -1.9254  0.3223  0.9135
33338SOL    HW2 6876   1.041   3.308   2.924 -0.3731  0.0386  0.2195
33339SOL     OW 6877   0.890   0.481   2.836  0.3000  0.5559  0.2728
33339SOL    HW1 6878   0.797   0.487   2.856 -0.4273 -2.4492 -1.4632
33339SOL    HW2 6879   0.893   0.441   2.749  3.1557 -1.4125  1.1121
33340SOL     OW 6880  11.271   2.222   1.061 -0.0489 -0.1878  0.1194
33340SOL    HW1 6881  11.209   2.280   1.106 -0.2968 -0.7079  0.4571
33340SOL    HW2 6882  11.357   2.249   1.094 -0.0126  1.0083 -0.8817
33341SOL     OW 6883   7.275   0.967   3.609 -0.6516  0.5407  0.0537
33341SOL    HW1 6884   7.257   0.912   3.685 -0.7919  1.2130  0.5133
33341SOL    HW2 6885   7.222   0.929   3.539  1.4359 -1.6960 -0.4534
33342SOL     OW 6886  10.886   7.988   5.653 -0.0788 -0.0657 -0.4158
33342SOL    HW1 6887  10.828   7.935   5.707 -0.4391  0.2643 -0.4761
33342SOL    HW2 6888  10.828   8.047   5.605  0.2002 -0.6032 -1.4548
33343SOL     OW 6889   8.698   5.981   7.910 -0.1077 -0.1443 -0.0202
33343SOL    HW1 6890   8.640   5.988   7.987  0.8520 -0.5090  0.7591
33343SOL    HW2 6891   8.701   5.887   7.891  0.0244 -0.1016 -0.2115
33344SOL     OW 6892   2.907  10.743   2.374  0.0069  0.3000 -0.4997
33344SOL    HW1 6893   2.906  10.744   2.470  0.3172 -2.6324 -0.3801
33344SOL    HW2 6894   2.888  10.834   2.349  0.8375  1.3498  2.3092
33345SOL     OW 6895  11.247  11.696   2.936 -0.2169  0.2008 -0.0143
33345SOL    HW1 6896  11.280  11.765   2.995  0.8360 -1.1885  1.1218
33345SOL    HW2 6897  11.283  11.719   2.850  0.0272  1.1275  0.3171
33346SOL     OW 6898   3.356   5.407  11.223  0.0341 -0.0439  0.0282
33346SOL    HW1 6899   3.368   5.475  11.288 -1.4473  1.1222 -0.8476
33346SOL    HW2 6900   3.443   5.395  11.184  0.2017  1.8557 -0.2706
33347SOL     OW 6901   1.615  11.328  10.592  0.2953  0.4071 -0.4757
33347SOL    HW1 6902   1.542  11.390  10.583 -1.4204 -1.1074  1.8158
33347SOL    HW2 6903   1.583  11.248  10.551  1.2386  0.1178 -0.6546
33348SOL     OW 6904   9.765   4.584   2.315  0.4563 -0.5372  0.0833
33348SOL    HW1 6905   9.857   4.584   2.288  0.4532  0.3295  0.0451
33348SOL    HW2 6906   9.737   4.494   2.303  1.2883 -0.8008  0.0410
33349SOL     OW 6907   0.712  12.175  11.036 -0.1578 -0.2849  0.3252
33349SOL    HW1 6908   0.644  12.197  11.100 -0.9672 -0.1799 -0.5494
33349SOL    HW2 6909   0.677  12.205  10.952  1.1986  0.2425 -0.0770
33350SOL     OW 6910   1.848   7.095   0.262 -0.3026 -0.5696  0.3003
33350SOL    HW1 6911   1.780   7.047   0.215 -0.0904 -0.5545 -0.0259
33350SOL    HW2 6912   1.926   7.085   0.207 -0.7523  1.9994 -0.9437
33351SOL     OW 6913   2.860   8.037   7.452  0.4266 -0.7032 -0.2023
33351SOL    HW1 6914   2.826   8.119   7.486  1.7842  0.4887 -1.5473
33351SOL    HW2 6915   2.793   8.007   7.391 -0.5549 -1.1915  1.0704
33352SOL     OW 6916   1.902   6.378   6.462 -0.2853  0.4305  0.5612
33352SOL    HW1 6917   1.926   6.386   6.370 -1.1074  3.3459  0.4993
33352SOL    HW2 6918   1.808   6.358   6.461  0.0089 -1.1094  0.8177
33353SOL     OW 6919   1.966   6.003  11.535 -0.4869 -0.2699 -0.5209
33353SOL    HW1 6920   2.056   5.993  11.504 -1.6217 -1.8098 -3.8131
33353SOL    HW2 6921   1.933   5.914  11.544 -1.4493  0.2426  1.6108
33354SOL     OW 6922   9.103   5.420   7.811 -0.4640 -0.4020  0.1570
33354SOL    HW1 6923   9.093   5.503   7.765 -0.9883 -0.6753 -0.2248
33354SOL    HW2 6924   9.190   5.426   7.850 -0.6044  0.4462  0.3790
33355SOL     OW 6925   0.838   9.707   5.238 -0.3243  0.3780 -0.1395
33355SOL    HW1 6926   0.777   9.764   5.192 -1.5961 -1.2208 -0.5527
33355SOL    HW2 6927   0.878   9.654   5.169 -1.0496 -0.9250  0.3809
33356SOL     OW 6928  12.436   4.293   2.209  0.4518  0.4250 -0.0144
33356SOL    HW1 6929  12.528   4.295   2.183  0.1606 -0.1015 -1.1644
33356SOL    HW2 6930  12.388   4.293   2.126 -0.6055  1.4627  0.5715
33357SOL     OW 6931   1.892   9.836   8.615 -0.2692  0.4824  0.0366
33357SOL    HW1 6932   1.847   9.910   8.655  1.7660  0.6148  2.3587
33357SOL    HW2 6933   1.826   9.794   8.560 -1.6305  3.6865 -0.9782
33358SOL     OW 6934   6.662   7.732   6.315 -0.0569 -0.0892  0.1726
33358SOL    HW1 6935   6.718   7.743   6.238  0.9353 -1.1996  0.7045
33358SOL    HW2 6936   6.643   7.821   6.344 -0.0501  0.3286 -1.0753
33359SOL     OW 6937   3.894   0.630  10.029 -0.5920 -0.0873 -0.4012
33359SOL    HW1 6938   3.819   0.572  10.016 -0.8467 -0.0802  0.9037
33359SOL    HW2 6939   3.908   0.630  10.124 -0.8126  2.2542 -0.3308
33360SOL     OW 6940  11.814   5.686   6.569  0.5196  0.4787  1.0796
33360SOL    HW1 6941  11.880   5.639   6.619  0.5933  0.0648  0.6042
33360SOL    HW2 6942  11.864   5.747   6.514  0.6335 -0.7822 -0.2874
33361SOL     OW 6943   5.055   4.917   4.014 -0.5070  0.0814 -0.4493
33361SOL    HW1 6944   5.069   4.900   4.107  1.0719 -1.3199 -0.9060
33361SOL    HW2 6945   5.008   4.840   3.983  0.7464 -0.3901 -1.2032
33362SOL     OW 6946   0.920   2.250  11.314 -0.0634  0.4328 -0.3692
33362SOL    HW1 6947   0.878   2.179  11.266  0.4499 -0.3900  0.3541
33362SOL    HW2 6948   1.013   2.239  11.294  0.3946 -0.9650  2.0079
33363SOL     OW 6949   0.074   6.857   4.317  0.0909 -0.3201  0.4654
33363SOL    HW1 6950   0.106   6.796   4.251 -1.8041 -0.6044 -0.2433
33363SOL    HW2 6951   0.151   6.878   4.370  1.0203 -2.4373  0.0365
33364SOL     OW 6952   1.421   6.908   7.911  0.4434  0.2446 -0.1345
33364SOL    HW1 6953   1.454   6.984   7.959 -0.9386  0.5651  0.3606
33364SOL    HW2 6954   1.351   6.944   7.857 -0.9148 -0.8090  0.8546
33365SOL     OW 6955   1.003  10.074   5.963  0.2001  0.1672  0.2487
33365SOL    HW1 6956   0.947  10.061   6.040  2.2041 -0.1989  1.7440
33365SOL    HW2 6957   0.965  10.149   5.918 -2.0783 -0.7185  0.5766
33366SOL     OW 6958   9.480   6.670   5.836  0.1687 -0.4731 -0.3456
33366SOL    HW1 6959   9.421   6.703   5.768  1.2938 -0.8975 -1.5673
33366SOL    HW2 6960   9.425   6.614   5.890 -0.9566  0.5877 -0.3471
33367SOL     OW 6961   5.167   2.963   5.262 -0.0102 -0.2196 -0.1837
33367SOL    HW1 6962   5.150   3.010   5.180 -0.7661 -1.6799 -0.8924
33367SOL    HW2 6963   5.111   2.885   5.257  0.2480 -0.5428  1.5405
33368SOL     OW 6964   4.102   4.350   9.821  0.1885  0.4207 -0.1856
33368SOL    HW1 6965   4.179   4.305   9.787 -1.2841 -0.6530 -2.3257
33368SOL    HW2 6966   4.082   4.417   9.755  0.0088  1.5728  0.9876
33369SOL     OW 6967  12.385   5.434   0.961  0.2740 -0.3267 -0.1956
33369SOL    HW1 6968  12.451   5.389   0.909 -0.1945 -2.5444  0.9882
33369SOL    HW2 6969  12.412   5.421   1.052 -0.5264  0.7875  0.2250
33370SOL     OW 6970   4.574  10.522   7.304  0.1133  0.0464  0.0949
33370SOL    HW1 6971   4.655  10.539   7.257 -0.4993 -0.1561 -1.0654
33370SOL    HW2 6972   4.506  10.562   7.250 -0.4616  1.1683  1.5983
33371SOL     OW 6973   9.633   5.687   6.191  0.2476 -0.1507 -0.1107
33371SOL    HW1 6974   9.667   5.668   6.103  0.4623  1.1250 -0.3226
33371SOL    HW2 6975   9.669   5.773   6.212 -1.0569  0.2472  0.5786
33372SOL     OW 6976   3.955   2.074  10.721  0.0184  0.1116 -0.5218
33372SOL    HW1 6977   3.936   2.063  10.628  0.7606  0.1762 -0.6852
33372SOL    HW2 6978   4.051   2.074  10.726  0.0196  1.8427  0.0340
33373SOL     OW 6979   6.713   9.667   3.331 -0.2514 -0.3671 -0.1314
33373SOL    HW1 6980   6.697   9.612   3.255  1.3308  0.4874 -1.1421
33373SOL    HW2 6981   6.713   9.757   3.297  0.1809  0.0563  0.9267
33374SOL     OW 6982   8.597  12.229   1.360 -0.2856  0.1361 -0.3871
33374SOL    HW1 6983   8.609  12.323   1.346 -1.7181  0.4796  0.4500
33374SOL    HW2 6984   8.503  12.215   1.350 -0.0167 -1.3476 -1.1544
33375SOL     OW 6985   4.740   4.134   8.797 -0.1620 -0.1422  0.4263
33375SOL    HW1 6986   4.825   4.099   8.770  0.6126  2.1397 -0.3397
33375SOL    HW2 6987   4.677   4.092   8.739  0.5611 -0.9886  0.2268
33376SOL     OW 6988  11.535   0.637   9.050 -0.1016 -0.3471  0.1569
33376SOL    HW1 6989  11.489   0.646   9.133 -0.7827 -0.6705 -0.1820
33376SOL    HW2 6990  11.612   0.583   9.070 -0.2590 -0.4125  0.5746
33377SOL     OW 6991   8.296   3.553   2.342 -0.3580  0.6116 -0.1937
33377SOL    HW1 6992   8.286   3.599   2.425 -1.2044 -0.1447  0.1480
33377SOL    HW2 6993   8.377   3.587   2.304 -0.5657  1.8007  0.4007
33378SOL     OW 6994   4.032  11.160   4.324 -0.6591  0.0766 -0.1452
33378SOL    HW1 6995   4.051  11.193   4.236 -0.1435 -0.6943 -0.3358
33378SOL    HW2 6996   4.097  11.202   4.380 -1.1066  0.7138 -0.0926
33379SOL     OW 6997   3.065   5.802  10.688 -0.0146  0.3911 -0.2038
33379SOL    HW1 6998   3.026   5.883  10.654 -1.0190 -0.0628 -0.1731
33379SOL    HW2 6999   2.997   5.764  10.744  0.1084 -0.9087 -0.8884
33380SOL     OW 7000   3.131   6.368   0.215  0.0174 -0.5406  0.0521
33380SOL    HW1 7001   3.041   6.396   0.235  0.0671 -1.1410  1.2491
33380SOL    HW2 7002   3.182   6.449   0.215 -0.1487 -0.3824  1.6849
33381SOL     OW 7003   9.898  11.847   9.362 -0.2948 -0.3548  0.3120
33381SOL    HW1 7004   9.928  11.780   9.424  1.4160  0.7282  0.7128
33381SOL    HW2 7005   9.927  11.930   9.400  0.5386  0.3798 -1.7706
33382SOL     OW 7006   0.140   1.680   4.365  0.2596  0.3399  0.1932
33382SOL    HW1 7007   0.155   1.721   4.451  2.7318  0.0860 -0.0642
33382SOL    HW2 7008   0.185   1.596   4.370  0.0253  0.1107 -1.2209
33383SOL     OW 7009   4.019   7.894   1.192  0.2095 -0.4890  0.7642
33383SOL    HW1 7010   4.060   7.832   1.132 -0.3788  0.2814 -0.4758
33383SOL    HW2 7011   4.091   7.948   1.224  0.5129 -0.8336  0.6702
33384SOL     OW 7012   5.529   1.638   5.208  0.6284  0.1827  0.1236
33384SOL    HW1 7013   5.550   1.545   5.217 -1.2308 -0.3829 -0.8505
33384SOL    HW2 7014   5.525   1.653   5.114 -0.5357  0.8719  0.2629
33385SOL     OW 7015   2.856   6.292   9.318  0.8438 -0.0516  0.1135
33385SOL    HW1 7016   2.764   6.319   9.328 -0.0758 -2.3598 -1.1909
33385SOL    HW2 7017   2.858   6.204   9.354  1.8678 -1.0934 -2.2871
33386SOL     OW 7018   2.921   4.480   5.906 -0.0229 -1.2020  0.4694
33386SOL    HW1 7019   3.001   4.442   5.943 -1.0033 -1.9523  1.9050
33386SOL    HW2 7020   2.880   4.525   5.979  0.9010  2.5313 -1.0679
33387SOL     OW 7021  10.153   3.602   4.111 -0.6606 -0.0364 -0.1817
33387SOL    HW1 7022  10.202   3.669   4.064  0.8831 -0.0778  1.2984
33387SOL    HW2 7023  10.116   3.547   4.042  1.1642  0.1481 -1.3703
33388SOL     OW 7024   3.933   3.136   1.055  0.1766  0.3653  0.0880
33388SOL    HW1 7025   3.967   3.220   1.086 -1.1950  0.4169  1.5993
33388SOL    HW2 7026   3.947   3.076   1.128 -2.9393  0.4295  0.8788
33389SOL     OW 7027  11.238   5.560   6.273  0.7473  0.2993 -0.0971
33389SOL    HW1 7028  11.148   5.570   6.303  0.6790  0.8628 -0.4837
33389SOL    HW2 7029  11.292   5.571   6.352  0.7732  4.7750 -0.5095
33390SOL     OW 7030   5.909   7.006   1.466  0.6464 -0.2350 -0.4795
33390SOL    HW1 7031   5.862   7.062   1.404 -0.4420 -0.7800 -0.1616
33390SOL    HW2 7032   5.960   6.946   1.411 -0.2114 -0.6344 -0.8485
33391SOL     OW 7033   8.906   8.529   7.953  0.3671  0.1722  0.5278
33391SOL    HW1 7034   9.000   8.513   7.962 -0.1876 -3.6361  1.2372
33391SOL    HW2 7035   8.865   8.468   8.014 -2.6143  2.1688  0.7353
33392SOL     OW 7036  10.165   1.498   3.706 -0.0114  0.1936  0.0601
33392SOL    HW1 7037  10.185   1.577   3.755 -1.7011  0.0202  1.1199
33392SOL    HW2 7038  10.071   1.503   3.690 -0.5058 -2.2994  1.5489
33393SOL     OW 7039  12.479  12.152   2.847  0.0008  0.5307 -0.5396
33393SOL    HW1 7040  12.406  12.173   2.789  0.7579  0.6847 -1.4427
33393SOL    HW2 7041  12.548  12.120   2.790  0.1926 -0.8952  0.4373
33394SOL     OW 7042  10.269   7.534   9.606 -0.1894  0.5863 -0.3307
33394SOL    HW1 7043  10.215   7.611   9.588  0.6312  0.9934 -1.1458
33394SOL    HW2 7044  10.277   7.490   9.521  1.1572  0.8195 -0.3497
33395SOL     OW 7045   8.486   1.708   2.810 -0.2367 -0.6023  0.1520
33395SOL    HW1 7046   8.525   1.754   2.736 -0.7959 -1.3762 -0.6448
33395SOL    HW2 7047   8.445   1.631   2.771 -0.9940 -0.7481  1.1966
33396SOL     OW 7048  10.953   9.824   7.629 -0.1353  0.2361 -0.3277
33396SOL    HW1 7049  10.998   9.768   7.692 -0.3021  0.9766  0.4722
33396SOL    HW2 7050  11.021   9.885   7.599  0.5860 -1.6055 -2.7487
33397SOL     OW 7051   7.454   1.845  10.002  0.2569  0.2946  0.1576
33397SOL    HW1 7052   7.452   1.858  10.096 -0.4060  0.9785  0.0514
33397SOL    HW2 7053   7.470   1.751   9.991  2.3904  0.5099  0.9340
33398SOL     OW 7054   5.705   2.874   4.501 -0.5372  0.1478 -0.0439
33398SOL    HW1 7055   5.630   2.837   4.546 -1.3728  0.3649 -1.2296
33398SOL    HW2 7056   5.779   2.854   4.558 -1.4252 -0.4182  0.9442
33399SOL     OW 7057   9.896   6.812  11.303 -0.2810  0.2634  0.1657
33399SOL    HW1 7058   9.867   6.721  11.305  0.2385  0.0797 -0.2930
33399SOL    HW2 7059   9.987   6.808  11.272 -1.1355  1.1591 -2.7328
33400SOL     OW 7060   5.680   0.048   4.577 -0.1182 -0.5900  0.6359
33400SOL    HW1 7061   5.762   0.003   4.556 -0.3930 -0.0660 -1.7806
33400SOL    HW2 7062   5.707   0.137   4.598 -0.1585  0.3579 -2.7883
33401SOL     OW 7063   0.132   6.023   0.654  0.2599  0.4235  0.1579
33401SOL    HW1 7064   0.208   6.080   0.639 -0.1991  0.3821 -2.9329
33401SOL    HW2 7065   0.159   5.937   0.622 -0.8127  0.2117 -0.2317
33402SOL     OW 7066   5.783   2.174  11.403 -0.6058  0.0510 -0.1684
33402SOL    HW1 7067   5.826   2.232  11.465  0.6797 -1.0423  0.0221
33402SOL    HW2 7068   5.697   2.214  11.388 -0.3702  1.1363  1.1423
33403SOL     OW 7069   5.734  10.025   4.907  0.1016 -0.1360  0.7174
33403SOL    HW1 7070   5.682   9.995   4.982 -1.3680  0.9341  0.1588
33403SOL    HW2 7071   5.819  10.048   4.945 -0.7963  0.9331  2.1759
33404SOL     OW 7072   9.404   9.785  10.337 -0.0996  0.3821  0.5410
33404SOL    HW1 7073   9.398   9.762  10.244  1.1958  0.3641  0.4397
33404SOL    HW2 7074   9.350   9.863  10.346  0.5020  0.9352 -0.4458
33405SOL     OW 7075  10.109   0.349  12.342  0.1351  0.3278 -0.0054
33405SOL    HW1 7076  10.115   0.319  12.432  1.1693 -0.4014 -0.2970
33405SOL    HW2 7077  10.144   0.277  12.290 -0.5059  0.7129 -0.9939
33406SOL     OW 7078   6.507  11.997   1.979  0.1860 -0.0271  0.6470
33406SOL    HW1 7079   6.591  12.021   2.019  0.6315 -0.4962  0.0052
33406SOL    HW2 7080   6.522  11.911   1.941 -0.8931 -0.5664  1.4025
33407SOL     OW 7081  11.892   8.643   8.042 -0.6686  0.4893  0.1500
33407SOL    HW1 7082  11.882   8.559   7.998 -2.5534  1.3700 -1.2510
33407SOL    HW2 7083  11.818   8.696   8.011  0.1393  2.4945  1.3944
33408SOL     OW 7084   7.641   4.892  10.724 -0.6150  0.2600 -0.3874
33408SOL    HW1 7085   7.609   4.955  10.658 -2.6110  0.7287  0.9539
33408SOL    HW2 7086   7.571   4.886  10.788  0.8701 -0.9261  1.2316
33409SOL     OW 7087   5.067   3.073   6.153  0.8016 -0.1601 -0.3078
33409SOL    HW1 7088   5.083   3.088   6.060 -0.3171  0.1782 -0.4684
33409SOL    HW2 7089   4.972   3.063   6.159  0.7525  0.8307  0.9367
33410SOL     OW 7090  10.896   3.010   3.484 -0.6231 -0.2638  0.3547
33410SOL    HW1 7091  10.906   3.058   3.402 -1.9802 -2.2078 -1.0369
33410SOL    HW2 7092  10.804   2.985   3.486 -0.3926 -1.0869  1.9996
33411SOL     OW 7093   5.839   3.148   9.966  0.5129 -0.4623 -0.5911
33411SOL    HW1 7094   5.929   3.135   9.998  0.5681  0.5305 -0.3057
33411SOL    HW2 7095   5.785   3.148  10.045  0.2434 -1.1336 -0.7687
33412SOL     OW 7096   0.440   2.457   9.476  0.7110  0.1735 -0.1489
33412SOL    HW1 7097   0.455   2.410   9.394 -0.4964 -1.4383  0.4972
33412SOL    HW2 7098   0.499   2.415   9.539 -0.6701 -0.8055  0.5321
33413SOL     OW 7099   4.331   0.918   0.151 -0.0137  0.3762  0.5094
33413SOL    HW1 7100   4.343   0.864   0.073 -1.0946  2.1413 -0.9574
33413SOL    HW2 7101   4.237   0.915   0.169  0.0232  1.0878  0.8824
33414SOL     OW 7102   9.832   6.713   8.191  0.1113  0.4286  0.3020
33414SOL    HW1 7103   9.843   6.636   8.248  0.6617 -0.2149 -0.6493
33414SOL    HW2 7104   9.747   6.750   8.217 -0.6430 -1.0904  0.1056
33415SOL     OW 7105   0.139   2.237  11.930 -0.3961  0.3625 -0.6247
33415SOL    HW1 7106   0.119   2.189  11.850 -1.7159  3.1354 -2.1085
33415SOL    HW2 7107   0.078   2.311  11.930 -0.2044  0.6984  2.7936
33416SOL     OW 7108   1.069   8.432   6.870  0.2511  0.7639  0.2800
33416SOL    HW1 7109   1.082   8.436   6.775  1.7504 -0.4903  0.3871
33416SOL    HW2 7110   1.153   8.401   6.905 -0.0379  1.8774  2.1053
33417SOL     OW 7111  11.591   4.811   7.432  0.3770  0.7191 -0.6011
33417SOL    HW1 7112  11.600   4.897   7.392 -1.4754  1.0805 -0.3208
33417SOL    HW2 7113  11.506   4.813   7.475  0.7236 -0.9203  0.2536
33418SOL     OW 7114   2.421   6.901  11.645 -0.8517  0.7546 -0.0616
33418SOL    HW1 7115   2.441   6.987  11.607  1.5905  0.3813  0.2040
33418SOL    HW2 7116   2.406   6.844  11.570  0.4540  0.7936 -0.3757
33419SOL     OW 7117  10.939   8.962   2.241 -0.6740  0.3802  0.0239
33419SOL    HW1 7118  10.983   8.976   2.157  0.5029 -0.2009  0.5323
33419SOL    HW2 7119  10.891   8.880   2.230 -0.1725  0.0816  0.0614
33420SOL     OW 7120   5.960   7.709   4.001 -0.4681  0.0303  0.1759
33420SOL    HW1 7121   5.908   7.754   3.934 -1.1478  0.0132  0.6886
33420SOL    HW2 7122   5.922   7.737   4.084  0.6123  0.3497  0.5849
33421SOL     OW 7123   8.940   4.610   2.915 -0.2174 -0.4267  0.2597
33421SOL    HW1 7124   8.963   4.701   2.896  1.1224 -0.3536  1.9669
33421SOL    HW2 7125   8.976   4.560   2.842 -0.8440  0.3712 -0.6252
33422SOL     OW 7126   9.064   4.636  10.511  0.1048 -0.5655  0.2061
33422SOL    HW1 7127   9.093   4.727  10.515  1.6919 -0.9991 -0.6722
33422SOL    HW2 7128   9.049   4.612  10.603 -0.4610  0.5960  0.4356
33423SOL     OW 7129   3.067   1.396   0.545  0.2942 -0.4225  0.0612
33423SOL    HW1 7130   3.042   1.315   0.590  1.9730  0.0183  1.9283
33423SOL    HW2 7131   3.104   1.451   0.614  0.9994  1.1667 -1.5111
33424SOL     OW 7132   0.547   3.632   3.045  0.2261  0.4712 -0.5580
33424SOL    HW1 7133   0.456   3.605   3.041  0.2940  0.2356 -0.5506
33424SOL    HW2 7134   0.567   3.640   3.138  0.8071 -1.5643 -0.4590
33425SOL     OW 7135   2.080   7.893  12.122  0.2299 -0.2500  0.0429
33425SOL    HW1 7136   2.089   7.966  12.061 -1.8831 -0.6589 -0.8628
33425SOL    HW2 7137   2.010   7.839  12.084  0.7118 -1.9533  1.4573
33426SOL     OW 7138   7.213   0.078   2.162  0.3688 -0.6691  0.6416
33426SOL    HW1 7139   7.306   0.077   2.182 -0.1913 -0.3610  3.9305
33426SOL    HW2 7140   7.179  -0.002   2.204 -1.2201  0.7812  2.2843
33427SOL     OW 7141   8.063   2.172  11.507 -0.2500  0.2378  0.4042
33427SOL    HW1 7142   8.095   2.084  11.485 -2.2729 -0.0207 -1.9611
33427SOL    HW2 7143   8.114   2.230  11.451 -0.3690  0.3574  0.4200
33428SOL     OW 7144   9.041  10.296  11.944 -0.6322 -0.5558  0.9114
33428SOL    HW1 7145   9.009  10.268  12.030 -2.7022 -1.6078 -0.1379
33428SOL    HW2 7146   8.965  10.334  11.901  0.3706 -0.0577 -0.4761
33429SOL     OW 7147   7.573   6.751   2.196 -0.0188 -0.0204  0.2994
33429SOL    HW1 7148   7.579   6.659   2.169 -1.2517 -0.7369  2.2232
33429SOL    HW2 7149   7.531   6.795   2.122 -0.8707 -1.3398 -0.0396
33430SOL     OW 7150   3.119   8.327   2.771 -0.7153  0.0969 -1.1988
33430SOL    HW1 7151   3.089   8.415   2.796  0.1929 -0.1648  1.0084
33430SOL    HW2 7152   3.040   8.273   2.776 -0.9297  0.4457 -0.7326
33431SOL     OW 7153   9.976  10.878   8.844  0.0804 -0.6410 -0.5605
33431SOL    HW1 7154   9.953  10.807   8.904 -0.1591 -0.7644 -0.8006
33431SOL    HW2 7155  10.072  10.884   8.851  0.0600 -0.6853 -0.2004
33432SOL     OW 7156  10.501   5.722   7.235  0.2049 -0.7035 -0.1291
33432SOL    HW1 7157  10.564   5.777   7.282 -1.0196  0.2522  0.4269
33432SOL    HW2 7158  10.477   5.655   7.299 -1.6686  0.7557  0.7759
33433SOL     OW 7159   1.454   5.457   3.575 -0.0120  0.8082  0.0591
33433SOL    HW1 7160   1.482   5.508   3.499  0.0344 -0.8179 -1.0462
33433SOL    HW2 7161   1.369   5.420   3.549 -0.9256  1.7331  1.5305
33434SOL     OW 7162   9.104   6.890   7.736 -0.8675 -0.0192 -1.3464
33434SOL    HW1 7163   9.101   6.830   7.811  1.2658  0.5184 -0.7646
33434SOL    HW2 7164   9.079   6.975   7.773  1.4371  0.5170 -0.8702
33435SOL     OW 7165   4.459   5.120  12.055  0.1382 -0.1930  0.3024
33435SOL    HW1 7166   4.491   5.168  11.979  1.8925 -2.1902 -0.3066
33435SOL    HW2 7167   4.519   5.145  12.126  1.5079 -1.8895 -0.1857
33436SOL     OW 7168   6.351   6.054   1.819 -0.2626  0.2845  0.4408
33436SOL    HW1 7169   6.268   6.076   1.777  1.5697  2.2793 -2.5586
33436SOL    HW2 7170   6.402   6.135   1.815  2.1242 -1.0446  1.4755
33437SOL     OW 7171  11.456  12.256   4.642  0.0653 -0.4779  0.1234
33437SOL    HW1 7172  11.431  12.348   4.642  0.4231 -0.3485  1.4230
33437SOL    HW2 7173  11.459  12.233   4.735  0.5892 -1.6303 -0.1623
33438SOL     OW 7174   0.765   8.574   2.791 -0.0988  0.1529  0.2716
33438SOL    HW1 7175   0.746   8.536   2.705 -0.3978 -0.4983  0.6152
33438SOL    HW2 7176   0.835   8.636   2.775 -0.5151  0.4219 -0.5323
33439SOL     OW 7177   1.997   1.009   0.873  0.3435  0.2748  0.0616
33439SOL    HW1 7178   1.932   1.066   0.916  1.5642  1.9399 -0.2042
33439SOL    HW2 7179   1.945   0.952   0.817 -1.0332  0.2614  1.2825
33440SOL     OW 7180   2.560   0.866  10.131 -0.8058 -0.0105  0.0951
33440SOL    HW1 7181   2.528   0.779  10.106 -1.8664  0.0583  1.0958
33440SOL    HW2 7182   2.572   0.860  10.226  0.9111  0.4000 -0.0603
33441SOL     OW 7183  10.817   2.887  11.122  0.4745  0.4904 -0.1133
33441SOL    HW1 7184  10.899   2.837  11.112  0.9613  0.8382  1.7829
33441SOL    HW2 7185  10.817   2.948  11.048  0.9576 -0.7811 -1.2226
33442SOL     OW 7186   6.964  10.290   9.330 -0.3834 -0.3222 -0.6140
33442SOL    HW1 7187   6.898  10.290   9.399 -0.7218 -0.9879 -0.9344
33442SOL    HW2 7188   6.917  10.316   9.251 -0.3348 -1.0495 -0.8958
33443SOL     OW 7189   5.853   9.878   9.665 -0.6173 -0.0585  0.1731
33443SOL    HW1 7190   5.774   9.865   9.613 -0.7985 -1.0682  0.6837
33443SOL    HW2 7191   5.822   9.925   9.743 -0.5118  0.5780 -0.1650
33444SOL     OW 7192   4.240   9.131   0.279 -0.5942 -0.3185 -0.7294
33444SOL    HW1 7193   4.299   9.146   0.205  0.6700  0.2250  0.3396
33444SOL    HW2 7194   4.166   9.084   0.242 -0.4956  0.8399 -2.5481
33445SOL     OW 7195   7.494  10.824   2.374 -0.2555 -0.6440 -0.1325
33445SOL    HW1 7196   7.425  10.809   2.310 -0.3072 -0.1042 -0.2072
33445SOL    HW2 7197   7.477  10.760   2.443 -0.1018 -1.3390 -0.7262
33446SOL     OW 7198   3.222   6.848   3.733  0.1441 -0.6868 -0.2743
33446SOL    HW1 7199   3.247   6.939   3.721 -0.1087 -0.5932 -0.0914
33446SOL    HW2 7200   3.203   6.840   3.827 -0.3998 -0.7798 -0.3856
33447SOL     OW 7201   3.007  11.640  10.682 -0.5965 -0.3067  0.4902
33447SOL    HW1 7202   2.976  11.722  10.644  2.1743  0.6864  0.1016
33447SOL    HW2 7203   3.044  11.592  10.608  0.2059 -0.6833  1.1159
33448SOL     OW 7204  11.589  10.153   7.904 -0.3143 -0.1253 -0.3428
33448SOL    HW1 7205  11.570  10.245   7.889 -0.7088 -0.1047  0.2314
33448SOL    HW2 7206  11.562  10.137   7.995  0.0762 -0.7185 -0.3223
33449SOL     OW 7207   1.974   7.114   2.066  0.2219 -1.0793  0.0647
33449SOL    HW1 7208   1.989   7.116   1.972 -1.2808  0.1452 -0.1668
33449SOL    HW2 7209   2.062   7.100   2.103  0.8500 -1.4655 -1.4882
33450SOL     OW 7210   0.983   2.143   9.331 -0.1070 -0.6177  0.0161
33450SOL    HW1 7211   0.959   2.084   9.403  2.1395 -1.7096 -0.0220
33450SOL    HW2 7212   1.041   2.207   9.372 -1.4717  0.8245 -0.2157
33451SOL     OW 7213  12.169   5.844   4.684  0.6614  0.6513 -0.2562
33451SOL    HW1 7214  12.084   5.800   4.679  0.4046  0.8802  1.4860
33451SOL    HW2 7215  12.232   5.772   4.694  0.3948  0.5562  0.9924
33452SOL     OW 7216  12.088  10.413   9.675 -0.1060 -0.3864  0.5344
33452SOL    HW1 7217  12.090  10.493   9.622 -0.0970  0.0028  1.1035
33452SOL    HW2 7218  12.036  10.438   9.752 -1.1565 -1.3018  0.1483
33453SOL     OW 7219   0.715   5.349   0.014  0.1352  0.0721 -0.6223
33453SOL    HW1 7220   0.747   5.434   0.041 -1.1186  0.7592 -1.1978
33453SOL    HW2 7221   0.717   5.296   0.094 -1.0233  1.2708  0.2623
33454SOL     OW 7222   8.830  12.322   9.503 -0.1587  0.1997 -0.6508
33454SOL    HW1 7223   8.770  12.369   9.560  0.6786  0.2927  0.1876
33454SOL    HW2 7224   8.794  12.233   9.498 -0.2162  0.1759  0.0758
33455SOL     OW 7225  12.447   3.862   9.778 -0.2437 -0.0351  0.3597
33455SOL    HW1 7226  12.420   3.929   9.841  1.2527  1.1086 -0.1361
33455SOL    HW2 7227  12.516   3.813   9.822 -0.6130 -0.5745  0.3429
33456SOL     OW 7228   9.258   9.700   5.584 -0.4531 -0.0680 -0.2225
33456SOL    HW1 7229   9.172   9.729   5.614 -0.7842 -1.5909  0.3891
33456SOL    HW2 7230   9.291   9.646   5.655  1.5666  1.4601  0.0742
33457SOL     OW 7231   6.362   4.782   9.160 -0.0240 -0.1388 -0.3067
33457SOL    HW1 7232   6.437   4.825   9.119 -0.4713 -0.8953 -2.0228
33457SOL    HW2 7233   6.318   4.851   9.209  0.3399  0.9144 -1.4354
33458SOL     OW 7234   1.240   9.648   9.981 -0.0186 -0.1578  0.0685
33458SOL    HW1 7235   1.199   9.567  10.013  1.2941 -0.7310  0.3644
33458SOL    HW2 7236   1.334   9.633   9.992  0.7553 -0.8797 -4.9298
33459SOL     OW 7237  11.838   1.724   6.760  0.0101  1.4259 -0.1458
33459SOL    HW1 7238  11.864   1.719   6.668  2.1548  2.1494  0.3691
33459SOL    HW2 7239  11.786   1.645   6.774  1.0553  0.4164 -1.5819
33460SOL     OW 7240  10.683   7.356   1.676  0.2605  0.6082 -0.2262
33460SOL    HW1 7241  10.704   7.263   1.686  0.2279  0.5492 -0.6793
33460SOL    HW2 7242  10.596   7.366   1.713  0.6829  0.6615  0.7743
33461SOL     OW 7243   3.736   7.055   6.915  0.2945 -0.7415  0.0564
33461SOL    HW1 7244   3.809   7.114   6.935  0.3082 -0.8206  0.2389
33461SOL    HW2 7245   3.666   7.082   6.974 -1.0450  1.5933 -2.3593
33462SOL     OW 7246  10.557  10.634   7.436  0.3664  0.1176 -0.3659
33462SOL    HW1 7247  10.482  10.679   7.396 -1.6934 -2.0513  0.7950
33462SOL    HW2 7248  10.548  10.652   7.530  0.7658 -0.8943 -0.1240
33463SOL     OW 7249  10.154   2.283  10.371  0.3402  0.4645 -0.1996
33463SOL    HW1 7250  10.165   2.353  10.436 -0.5983 -0.5102  1.0679
33463SOL    HW2 7251  10.114   2.326  10.296 -0.9314  1.1740  0.8466
33464SOL     OW 7252   6.612   1.866   7.845  0.3262 -0.0418 -0.9361
33464SOL    HW1 7253   6.692   1.918   7.840  0.0459  0.4384 -0.4477
33464SOL    HW2 7254   6.594   1.841   7.754  1.4286 -0.7849 -0.9736
33465SOL     OW 7255   0.301   6.079   4.279  0.0023 -0.1203  0.3550
33465SOL    HW1 7256   0.384   6.126   4.290 -0.6669  1.2645 -0.2294
33465SOL    HW2 7257   0.320   6.010   4.216  0.7609  0.0611  0.3784
33466SOL     OW 7258   8.852  10.875  10.114 -0.4876 -0.1914  0.7376
33466SOL    HW1 7259   8.884  10.795  10.071 -0.5474 -0.4263  1.1336
33466SOL    HW2 7260   8.877  10.865  10.206 -2.5651 -0.8326  1.2801
33467SOL     OW 7261   5.470   3.257   2.532 -0.3174 -0.4367 -0.2991
33467SOL    HW1 7262   5.440   3.325   2.593  0.1822 -0.2196 -0.2938
33467SOL    HW2 7263   5.413   3.182   2.550 -1.6089  0.3234 -1.0520
33468SOL     OW 7264   9.407   7.412   4.516 -0.6522  0.4094 -0.1910
33468SOL    HW1 7265   9.361   7.391   4.598 -1.3824  1.0279 -0.4254
33468SOL    HW2 7266   9.436   7.503   4.528  1.4401 -0.2890  0.3593
33469SOL     OW 7267   1.248   3.916   5.892 -0.5362 -0.6931  0.4370
33469SOL    HW1 7268   1.305   3.847   5.927 -1.0274 -0.0578  2.5924
33469SOL    HW2 7269   1.293   3.997   5.914 -1.0930 -0.2457 -0.0590
33470SOL     OW 7270   3.765   8.825   9.646  0.4079 -0.1259  0.2815
33470SOL    HW1 7271   3.817   8.802   9.569  0.7025 -1.1111  0.7599
33470SOL    HW2 7272   3.827   8.826   9.718  0.0491  0.3167  0.5901
33471SOL     OW 7273  12.194   3.940   6.099  0.5021  0.0649 -0.0258
33471SOL    HW1 7274  12.241   4.022   6.085  0.7303 -0.1307 -0.3964
33471SOL    HW2 7275  12.167   3.912   6.012 -0.6699  0.3852  0.2069
33472SOL     OW 7276   2.698   6.873  12.368 -0.0923  0.5747 -0.2972
33472SOL    HW1 7277   2.696   6.784  12.331  1.7643  0.0974  0.6251
33472SOL    HW2 7278   2.612   6.909  12.347 -1.4632 -1.9384  0.4886
33473SOL     OW 7279  10.579   3.854   3.092  0.0840 -0.5494 -0.0904
33473SOL    HW1 7280  10.546   3.875   3.179 -0.5988 -2.3787  0.1461
33473SOL    HW2 7281  10.505   3.873   3.034  0.2179 -0.2184 -0.1526
33474SOL     OW 7282  10.673  10.640  11.962 -0.3707 -0.0612 -0.7837
33474SOL    HW1 7283  10.658  10.563  12.017 -1.0100  0.8474  0.3531
33474SOL    HW2 7284  10.764  10.630  11.932 -0.0519 -0.6452  0.3298
33475SOL     OW 7285   3.432   8.854   0.341 -0.1416 -0.6539  0.5698
33475SOL    HW1 7286   3.502   8.908   0.377 -0.2242  0.7253 -1.2424
33475SOL    HW2 7287   3.352   8.893   0.375 -0.1222 -1.0938  1.1400
33476SOL     OW 7288   7.642   7.005   8.494  0.6216 -0.1299 -0.0506
33476SOL    HW1 7289   7.623   6.998   8.587 -1.0041  0.7482 -0.2722
33476SOL    HW2 7290   7.691   6.926   8.473 -0.3795 -1.1361  1.2197
33477SOL     OW 7291   5.892   1.663   9.554 -0.6519 -0.3573  0.2937
33477SOL    HW1 7292   5.922   1.600   9.489  1.2565 -0.4059  1.1479
33477SOL    HW2 7293   5.886   1.613   9.636  1.6563  0.6155  1.1635
33478SOL     OW 7294   3.122   5.806   9.087  0.1970 -0.2819  0.4916
33478SOL    HW1 7295   3.146   5.721   9.124  0.6326 -0.3810 -0.0011
33478SOL    HW2 7296   3.062   5.844   9.151 -0.5080 -1.2285  0.4170
33479SOL     OW 7297  11.159   0.802  12.258 -0.7001  0.3469 -0.3093
33479SOL    HW1 7298  11.207   0.720  12.249  0.3583  1.1011 -1.8703
33479SOL    HW2 7299  11.072   0.783  12.223 -1.1633 -0.6321  1.2362
33480SOL     OW 7300   6.038   9.774   5.152  0.3265 -0.0358 -0.4283
33480SOL    HW1 7301   6.046   9.823   5.233 -1.2718  0.6722 -0.6711
33480SOL    HW2 7302   6.077   9.688   5.172  1.0107  0.5129  0.6995
33481SOL     OW 7303   6.281   4.867   2.747  0.6635  0.1439  0.3807
33481SOL    HW1 7304   6.232   4.934   2.699  3.3789  0.7836 -1.7547
33481SOL    HW2 7305   6.264   4.786   2.698  2.8328  0.6594 -1.3828
33482SOL     OW 7306   5.537   0.108   6.477  0.2011 -0.2736 -0.0932
33482SOL    HW1 7307   5.494   0.157   6.547 -1.2072  0.4209 -1.3958
33482SOL    HW2 7308   5.476   0.038   6.455  0.6392 -0.4901 -0.6348
33483SOL     OW 7309   4.992  10.007   3.122 -0.3680  0.3192  0.3703
33483SOL    HW1 7310   5.002   9.929   3.068 -2.3489  0.3538 -0.1410
33483SOL    HW2 7311   4.998   9.975   3.212  0.8333 -0.0713  0.1687
33484SOL     OW 7312   8.595  11.526   8.610 -0.7349  0.0629 -0.3336
33484SOL    HW1 7313   8.526  11.570   8.658 -1.2525  1.2010 -2.0095
33484SOL    HW2 7314   8.586  11.558   8.520  1.4705 -0.3521 -0.7805
33485SOL     OW 7315   3.808   2.649   2.416  0.1371  0.4793  0.1399
33485SOL    HW1 7316   3.765   2.708   2.355 -1.3012  0.8234  1.4458
33485SOL    HW2 7317   3.749   2.574   2.423  1.5695 -0.8081 -0.9007
33486SOL     OW 7318   2.009   3.163   5.595 -0.4393  0.2179 -0.0813
33486SOL    HW1 7319   1.958   3.111   5.534 -0.3191  2.0971 -1.8971
33486SOL    HW2 7320   2.041   3.100   5.660 -1.4046 -1.6933 -1.3751
33487SOL     OW 7321   5.774  11.216   3.163 -0.2753  0.0509 -0.0333
33487SOL    HW1 7322   5.740  11.130   3.187 -1.2335  1.3501  4.0616
33487SOL    HW2 7323   5.858  11.222   3.209 -0.1319  1.2227 -0.4140
33488SOL     OW 7324  11.230   7.011   0.454  0.2342 -0.2612  0.1414
33488SOL    HW1 7325  11.284   7.014   0.376 -2.0475 -3.4118 -1.7975
33488SOL    HW2 7326  11.158   7.073   0.436 -0.3348 -1.0465 -0.3459
33489SOL     OW 7327  10.904   6.496   8.286 -0.2504  0.2491  0.3600
33489SOL    HW1 7328  10.953   6.574   8.311 -2.7858  1.5764  1.5390
33489SOL    HW2 7329  10.817   6.528   8.266 -0.6674 -1.9888 -1.8178
33490SOL     OW 7330   7.190   3.659   7.835  0.4420 -0.1207  0.0903
33490SOL    HW1 7331   7.262   3.712   7.802  0.1470 -0.5330 -1.2835
33490SOL    HW2 7332   7.112   3.691   7.788  0.3292 -1.9987 -1.1135
33491SOL     OW 7333  10.860   9.943   7.877 -0.4114 -0.2400 -0.8229
33491SOL    HW1 7334  10.938   9.998   7.878  0.5202 -1.5140  0.0062
33491SOL    HW2 7335  10.865   9.895   7.795  0.3235 -1.1613 -0.2608
33492SOL     OW 7336  11.429   0.218   0.999  0.4264  0.5078 -0.0989
33492SOL    HW1 7337  11.509   0.254   0.960 -0.7489  0.3214 -2.9267
33492SOL    HW2 7338  11.382   0.294   1.034  1.0334  0.8250  0.0379
33493SOL     OW 7339   2.801   4.626  11.673  0.0215  0.5492  0.0133
33493SOL    HW1 7340   2.727   4.663  11.626 -0.0989 -0.6084 -0.7515
33493SOL    HW2 7341   2.874   4.631  11.612  0.1185 -0.0059  0.0757
33494SOL     OW 7342   3.413  12.031  12.325 -0.2367 -0.4836  0.0737
33494SOL    HW1 7343   3.419  11.980  12.407 -1.3583 -2.5962 -1.0654
33494SOL    HW2 7344   3.347  12.097  12.343 -0.7752 -1.1874  0.7628
33495SOL     OW 7345   5.920  10.435   6.129  0.3799 -0.1193  0.4540
33495SOL    HW1 7346   5.833  10.470   6.110  1.1351  1.1366 -0.8919
33495SOL    HW2 7347   5.936  10.457   6.221 -0.8592 -0.7309  0.8400
33496SOL     OW 7348  10.729   1.136  11.189 -0.0138  0.2221 -0.8968
33496SOL    HW1 7349  10.713   1.188  11.268  0.8035 -0.2318 -0.4147
33496SOL    HW2 7350  10.739   1.047  11.221 -0.1964 -0.0490 -1.5818
33497SOL     OW 7351   5.690   8.939   9.885 -0.4495  0.0201  0.2919
33497SOL    HW1 7352   5.777   8.973   9.906  0.4758  0.7447 -3.7903
33497SOL    HW2 7353   5.692   8.848   9.915  1.0617  0.4637  1.7276
33498SOL     OW 7354   9.367   6.423   3.794  0.3769 -0.2281  0.3368
33498SOL    HW1 7355   9.346   6.330   3.784  2.0991 -0.7961  1.7198
33498SOL    HW2 7356   9.459   6.430   3.771 -0.0171  1.4078 -1.0051
33499SOL     OW 7357   1.710   9.772   6.300  0.9586 -0.8785 -0.5117
33499SOL    HW1 7358   1.719   9.733   6.387  0.7299  1.0939  0.4461
33499SOL    HW2 7359   1.624   9.813   6.301  1.2090 -0.3018 -1.4604
33500SOL     OW 7360   2.922   9.977   9.048  0.3442 -0.5531  0.1901
33500SOL    HW1 7361   2.938   9.884   9.068 -0.7746 -0.4995  1.4833
33500SOL    HW2 7362   2.899  10.015   9.133 -0.9602  0.5317 -0.6222
33501SOL     OW 7363   8.058   4.477  10.582 -0.2580  0.6145 -0.5080
33501SOL    HW1 7364   8.135   4.477  10.639  0.2271 -1.0440 -1.1091
33501SOL    HW2 7365   8.063   4.560  10.534  0.6965  0.8973  0.0614
33502SOL     OW 7366   0.754   4.340   5.704  0.0161  0.6992  0.3383
33502SOL    HW1 7367   0.702   4.283   5.760  0.1883  0.0008 -0.1898
33502SOL    HW2 7368   0.845   4.312   5.720 -0.0739 -2.5055 -3.3091
33503SOL     OW 7369   6.917   4.302   9.150  0.2638  0.0479  0.3023
33503SOL    HW1 7370   6.902   4.388   9.187 -1.8796  0.6724 -1.7733
33503SOL    HW2 7371   6.830   4.266   9.134  0.9476 -0.4245 -3.2803
33504SOL     OW 7372   8.605   0.243   6.968  0.1129 -0.1129 -0.4270
33504SOL    HW1 7373   8.560   0.182   7.026  1.5404 -1.6504 -0.8770
33504SOL    HW2 7374   8.537   0.270   6.906 -1.1482  0.6650  1.1892
33505SOL     OW 7375   3.464   7.770   5.928  0.0716  0.1816  0.0694
33505SOL    HW1 7376   3.405   7.838   5.959  1.2165 -0.0309  3.0491
33505SOL    HW2 7377   3.408   7.695   5.910 -0.6904  0.1551  2.3115
33506SOL     OW 7378  12.039   4.343   6.196 -0.1435  0.3266  0.0321
33506SOL    HW1 7379  11.992   4.304   6.122 -0.0121 -0.1113  0.1752
33506SOL    HW2 7380  12.065   4.430   6.165  1.0730 -0.3487 -0.9115
33507SOL     OW 7381  11.650   4.817   8.643  0.0832  0.2066  0.6663
33507SOL    HW1 7382  11.681   4.769   8.566  0.2011  0.7823  0.3499
33507SOL    HW2 7383  11.723   4.876   8.665  0.0435  0.0555  1.2108
33508SOL     OW 7384   3.096   6.712   1.625 -0.3101  0.3029  0.1107
33508SOL    HW1 7385   3.048   6.783   1.581 -1.3711  0.1512  0.9772
33508SOL    HW2 7386   3.138   6.664   1.553 -1.2976  0.5707 -0.6711
33509SOL     OW 7387   9.584   2.824   1.548  0.0747 -0.0074 -0.2658
33509SOL    HW1 7388   9.660   2.859   1.595 -0.2809  0.0306  0.2878
33509SOL    HW2 7389   9.616   2.810   1.459  0.3715  1.2960 -0.3990
33510SOL     OW 7390   0.857   7.512   2.335 -0.6139 -0.0461 -0.8321
33510SOL    HW1 7391   0.826   7.582   2.278 -3.0690 -0.8354 -0.5819
33510SOL    HW2 7392   0.870   7.555   2.420 -2.3626  0.1146 -0.6107
33511SOL     OW 7393  11.302  11.014   8.564 -0.2967 -0.1132  0.1168
33511SOL    HW1 7394  11.340  11.044   8.647 -0.0977 -0.0218 -0.0074
33511SOL    HW2 7395  11.377  10.994   8.509 -0.3248  2.5990 -1.0761
33512SOL     OW 7396   3.926   6.578  12.288  0.5445  0.2414 -0.1316
33512SOL    HW1 7397   3.887   6.625  12.362 -0.1856 -1.6139  0.7082
33512SOL    HW2 7398   3.910   6.486  12.307  2.1012 -0.3815 -1.6362
33513SOL     OW 7399   7.834   0.113  10.564  0.6276  0.1702 -0.7632
33513SOL    HW1 7400   7.810   0.035  10.614 -1.7384  1.8649  0.9546
33513SOL    HW2 7401   7.909   0.150  10.610  1.2373 -0.6097 -1.1070
33514SOL     OW 7402   3.116  10.670  10.510  0.0717  0.2580  0.0618
33514SOL    HW1 7403   3.136  10.616  10.433  1.5600 -1.4275  1.5420
33514SOL    HW2 7404   3.038  10.719  10.484  0.4206 -0.3484 -2.4514
33515SOL     OW 7405  10.008   8.592   9.279  0.5640  0.5442 -0.4934
33515SOL    HW1 7406  10.094   8.574   9.241  0.6324  0.9378 -0.5314
33515SOL    HW2 7407   9.948   8.587   9.205  0.3905 -0.8436 -0.2800
33516SOL     OW 7408  12.480   4.983   9.330 -0.0113 -0.3634  0.1038
33516SOL    HW1 7409  12.414   4.955   9.393 -2.6374  0.0388 -2.2678
33516SOL    HW2 7410  12.519   4.901   9.299  1.2240 -0.5713  2.0346
33517SOL     OW 7411   2.299   7.767  11.575 -0.2076 -0.3117 -0.1171
33517SOL    HW1 7412   2.294   7.689  11.631 -0.3647 -0.9312 -0.9691
33517SOL    HW2 7413   2.328   7.733  11.490 -0.8385  0.4855 -0.6614
33518SOL     OW 7414   3.655   5.392   6.360 -0.0348 -1.1438 -0.5754
33518SOL    HW1 7415   3.646   5.299   6.377 -1.5664 -1.0489 -0.7018
33518SOL    HW2 7416   3.644   5.433   6.446  3.2134 -1.1533 -0.0594
33519SOL     OW 7417   2.200   2.909   5.693  0.3401 -0.1157 -0.7813
33519SOL    HW1 7418   2.242   2.911   5.607 -2.1640 -0.0997 -2.1098
33519SOL    HW2 7419   2.129   2.846   5.683 -0.4064  0.3551  1.1060
33520SOL     OW 7420  10.116   0.490   9.035  1.0734 -0.1396 -0.4478
33520SOL    HW1 7421  10.110   0.413   8.978 -0.9768 -0.7327  0.4904
33520SOL    HW2 7422  10.202   0.483   9.075  1.6223 -0.9762 -1.6848
33521SOL     OW 7423   6.164   1.798   1.190  0.0643  0.0662  0.2095
33521SOL    HW1 7424   6.171   1.717   1.240  0.7517 -0.0089 -0.0003
33521SOL    HW2 7425   6.098   1.780   1.124  1.1817 -0.7942 -0.7139
33522SOL     OW 7426   0.460  10.707   9.663  0.5657 -0.0127  0.5076
33522SOL    HW1 7427   0.374  10.696   9.704  0.4542  0.7055  0.4674
33522SOL    HW2 7428   0.520  10.720   9.737  0.7572 -1.1585  0.5785
33523SOL     OW 7429   0.859  10.484   5.098  0.2146 -0.1099  0.6808
33523SOL    HW1 7430   0.920  10.447   5.162  1.3414  0.0417 -0.2731
33523SOL    HW2 7431   0.782  10.428   5.103  0.8448 -0.9498  1.1626
33524SOL     OW 7432   5.068   1.073   9.362  0.2254  0.0213  0.0486
33524SOL    HW1 7433   5.052   1.030   9.446  0.1670 -0.5505 -0.2458
33524SOL    HW2 7434   4.982   1.073   9.319 -0.1763  2.0663  0.7693
33525SOL     OW 7435   7.874  11.006   0.623 -0.4605 -0.1310  0.3512
33525SOL    HW1 7436   7.865  11.093   0.583 -0.6549 -0.7527 -0.9903
33525SOL    HW2 7437   7.898  10.948   0.551  0.2120 -1.1144  1.3261
33526SOL     OW 7438   0.145   4.962   8.325 -0.2634  0.1589 -0.6592
33526SOL    HW1 7439   0.237   4.957   8.351 -0.4212  1.5643  0.2945
33526SOL    HW2 7440   0.135   5.051   8.291 -1.3414  0.1578 -0.3817
33527SOL     OW 7441   7.383   7.588   1.248 -0.1494 -0.1059  0.8012
33527SOL    HW1 7442   7.299   7.544   1.234  0.5454 -1.3131  0.2678
33527SOL    HW2 7443   7.380   7.665   1.191 -0.2667 -1.0153 -0.4547
33528SOL     OW 7444   4.484   9.134   8.834 -0.0751  0.4420  0.0809
33528SOL    HW1 7445   4.487   9.089   8.919 -0.8988  2.0176  0.9837
33528SOL    HW2 7446   4.409   9.095   8.790  0.2422 -0.2526  0.1356
33529SOL     OW 7447   7.843   4.130  10.682  0.2080 -0.4778 -0.2533
33529SOL    HW1 7448   7.776   4.182  10.727  0.3921 -0.8496  0.4702
33529SOL    HW2 7449   7.846   4.166  10.593 -0.0757  0.3687  0.0656
33530SOL     OW 7450   4.975  10.128   1.973 -0.3629 -0.0717 -0.1611
33530SOL    HW1 7451   4.998  10.035   1.984 -0.4381 -0.4062 -2.3274
33530SOL    HW2 7452   4.951  10.135   1.880 -3.0863  1.5451  0.5668
33531SOL     OW 7453   7.893  10.920   3.085 -0.0174  0.1351  0.1069
33531SOL    HW1 7454   7.887  11.003   3.039 -3.2507 -0.6286 -1.1118
33531SOL    HW2 7455   7.926  10.858   3.020  0.8108  0.1207  0.5279
33532SOL     OW 7456  11.025   1.631   1.422  0.4323  0.1089 -0.3520
33532SOL    HW1 7457  11.016   1.718   1.383  1.2985 -0.3085 -1.5455
33532SOL    HW2 7458  11.047   1.574   1.348 -0.5118 -1.2071  0.3348
33533SOL     OW 7459   2.592   5.889   3.020  0.2668 -0.6040  0.3673
33533SOL    HW1 7460   2.531   5.938   2.965  0.4054  1.2179  1.7521
33533SOL    HW2 7461   2.679   5.916   2.991  0.3694 -0.7723  0.5096
33534SOL     OW 7462   6.914   5.139   4.710 -0.7028 -0.4856 -0.0785
33534SOL    HW1 7463   6.854   5.079   4.665 -0.5890 -1.5172  1.0808
33534SOL    HW2 7464   6.882   5.140   4.801 -2.3317  3.2898 -0.5107
33535SOL     OW 7465   8.440  11.312  10.287  0.4482  0.2991 -0.6047
33535SOL    HW1 7466   8.406  11.231  10.326 -1.4659  1.3116 -0.0491
33535SOL    HW2 7467   8.509  11.340  10.348  0.3187 -0.3035 -0.1708
33536SOL     OW 7468   1.599   5.815   6.067 -0.3346  0.9886 -0.0896
33536SOL    HW1 7469   1.631   5.769   6.145  1.2436  0.8757 -0.7648
33536SOL    HW2 7470   1.551   5.748   6.018 -1.4840  1.1041  0.8401
33537SOL     OW 7471   7.743  11.708   2.376 -0.7839 -0.0430  0.1274
33537SOL    HW1 7472   7.709  11.668   2.456 -0.8699  0.3541  0.2937
33537SOL    HW2 7473   7.798  11.780   2.406 -0.5454 -0.1035 -0.1640
33538SOL     OW 7474   5.573   9.066   9.650  0.6698  0.0997  0.3913
33538SOL    HW1 7475   5.610   9.063   9.738  1.4382 -0.7089  0.0503
33538SOL    HW2 7476   5.601   8.984   9.609 -0.1921  0.1816 -0.4038
33539SOL     OW 7477   5.825   9.090   2.468 -0.4407 -0.2732  0.0005
33539SOL    HW1 7478   5.752   9.065   2.524 -0.0758  1.3446  1.2539
33539SOL    HW2 7479   5.895   9.028   2.490  0.1130  1.0562  2.3043
33540SOL     OW 7480   5.887  11.647   0.153 -0.7427  0.1085 -0.2800
33540SOL    HW1 7481   5.820  11.587   0.187 -0.6441  0.2488  0.1621
33540SOL    HW2 7482   5.955  11.589   0.119 -0.9481 -0.0343 -0.4546
33541SOL     OW 7483   6.578   0.538   8.313  0.2588  0.0281 -0.0342
33541SOL    HW1 7484   6.519   0.465   8.327  0.0613  0.4134  1.2581
33541SOL    HW2 7485   6.573   0.590   8.394 -0.1399  1.8510 -1.1690
33542SOL     OW 7486  11.342   2.877   4.074  0.5281 -0.2648  0.7240
33542SOL    HW1 7487  11.407   2.940   4.105  0.3838  0.4356 -0.3200
33542SOL    HW2 7488  11.373   2.792   4.105  2.4651 -0.0796 -0.5391
33543SOL     OW 7489  11.240   2.775   0.428  0.3095 -0.3992  0.1011
33543SOL    HW1 7490  11.226   2.702   0.488  0.9777 -0.5753  0.0511
33543SOL    HW2 7491  11.304   2.742   0.364  0.1472  0.0198 -0.2901
33544SOL     OW 7492   1.318   1.349  11.895  0.0061  0.6587 -0.3776
33544SOL    HW1 7493   1.384   1.415  11.918  0.0658  0.5344 -0.1953
33544SOL    HW2 7494   1.236   1.382  11.931  0.1030  0.4547  0.0250
33545SOL     OW 7495   5.740   3.621   8.152 -0.0710 -0.3615 -0.0764
33545SOL    HW1 7496   5.657   3.574   8.161 -0.2453  0.0367  0.4515
33545SOL    HW2 7497   5.796   3.585   8.222  0.6034 -1.4304 -1.1246
33546SOL     OW 7498   1.252   6.985   9.100 -0.1109 -0.3298 -0.0022
33546SOL    HW1 7499   1.277   7.050   9.034 -1.3804 -0.4775 -0.6626
33546SOL    HW2 7500   1.156   6.988   9.101 -0.1304 -0.3560  1.8293
33547SOL     OW 7501  10.655   9.314   5.691 -0.5437  0.4930 -0.7632
33547SOL    HW1 7502  10.689   9.312   5.602 -1.0220 -0.1152 -0.9413
33547SOL    HW2 7503  10.685   9.398   5.726 -1.2686  1.2442 -1.8648
33548SOL     OW 7504   1.177   2.455  11.083 -0.8457  0.1022 -0.0072
33548SOL    HW1 7505   1.202   2.388  11.021  2.0094 -0.2023  1.3204
33548SOL    HW2 7506   1.187   2.414  11.169 -1.2578  1.5335  0.7688
33549SOL     OW 7507   4.802   5.544   2.308  0.2951 -0.6112 -0.3926
33549SOL    HW1 7508   4.894   5.560   2.287  0.9345 -1.2626  1.6965
33549SOL    HW2 7509   4.801   5.458   2.350 -1.2063 -0.4245  0.0096
33550SOL     OW 7510   8.514   8.074   3.185 -0.5832 -0.1352 -0.2200
33550SOL    HW1 7511   8.555   8.152   3.149  0.1919 -0.5678 -0.3037
33550SOL    HW2 7512   8.485   8.025   3.108 -0.2228 -0.3716 -0.2090
33551SOL     OW 7513   9.973   7.745  10.282  0.4365 -0.0888  0.3293
33551SOL    HW1 7514   9.948   7.672  10.339  0.5567 -0.3077  0.0995
33551SOL    HW2 7515   9.934   7.822  10.324 -1.6606 -0.5588 -0.6267
33552SOL     OW 7516   5.998   2.758  11.619 -0.0833  0.0945 -0.1879
33552SOL    HW1 7517   5.958   2.755  11.706  0.7669  0.4021  0.2276
33552SOL    HW2 7518   6.005   2.852  11.600  3.2178  0.2357  1.1045
33553SOL     OW 7519   9.031  12.050  10.204 -0.0594 -0.5577  0.1974
33553SOL    HW1 7520   8.987  11.970  10.175 -0.1834  0.0499 -1.3844
33553SOL    HW2 7521   9.123  12.037  10.179 -0.3171  0.3244 -1.3540
33554SOL     OW 7522  11.264   0.547   5.394 -0.0390  0.6973  0.2539
33554SOL    HW1 7523  11.322   0.556   5.469 -0.2778 -0.7281  0.6344
33554SOL    HW2 7524  11.313   0.584   5.320  1.7324 -1.2116  0.3939
33555SOL     OW 7525   6.452   6.249   5.705 -0.2901 -0.3258 -0.1676
33555SOL    HW1 7526   6.403   6.293   5.635 -1.4820 -1.2935  0.0221
33555SOL    HW2 7527   6.384   6.214   5.763  0.6349 -1.4134  0.2911
33556SOL     OW 7528   9.781  10.955  10.868  0.4751 -0.6577 -0.1945
33556SOL    HW1 7529   9.730  10.910  10.800 -1.8844  1.1079  0.2715
33556SOL    HW2 7530   9.763  10.905  10.948 -2.2494  0.9639  0.3496
33557SOL     OW 7531   9.070  11.486   9.618 -0.2243 -0.3062 -0.0930
33557SOL    HW1 7532   8.987  11.531   9.627 -1.1764 -2.0835  0.6104
33557SOL    HW2 7533   9.093  11.459   9.708 -0.6527 -2.7287 -0.6360
33558SOL     OW 7534   2.563   9.588   3.510 -0.4728  0.1375 -0.6095
33558SOL    HW1 7535   2.634   9.634   3.555 -0.4441 -0.0439 -0.4724
33558SOL    HW2 7536   2.494   9.580   3.575  0.0044 -1.1634 -0.2261
33559SOL     OW 7537   9.236  12.267   4.761  0.3181  0.3510  0.3262
33559SOL    HW1 7538   9.299  12.206   4.801 -1.2856 -0.9593  1.0049
33559SOL    HW2 7539   9.238  12.344   4.817  0.8523  0.0612  0.7123
33560SOL     OW 7540   0.219   5.286  10.185 -0.0978  0.4008  0.1054
33560SOL    HW1 7541   0.192   5.259  10.272  0.0042  1.8633  0.6237
33560SOL    HW2 7542   0.293   5.229  10.163  0.2933  0.4510  1.2564
33561SOL     OW 7543   1.557   5.459   5.461  0.5295  0.6752  1.1308
33561SOL    HW1 7544   1.462   5.465   5.468  0.5692  1.3571  1.1149
33561SOL    HW2 7545   1.590   5.514   5.531  0.9080  1.6160  0.2340
33562SOL     OW 7546   9.470   1.866   6.318  0.1622  0.3589  0.2589
33562SOL    HW1 7547   9.503   1.954   6.296  0.3140  0.4968  1.0094
33562SOL    HW2 7548   9.375   1.875   6.317  0.0905 -0.0448 -1.9471
33563SOL     OW 7549  11.794  11.159   3.932 -0.0393 -0.1836 -0.5175
33563SOL    HW1 7550  11.863  11.159   3.866  0.2745 -0.3213 -0.1929
33563SOL    HW2 7551  11.743  11.239   3.913  0.3281  0.0253 -0.6345
33564SOL     OW 7552   6.465   0.552  10.870  0.5977 -0.6029  0.2715
33564SOL    HW1 7553   6.415   0.591  10.942 -0.3163  0.7821 -1.0420
33564SOL    HW2 7554   6.498   0.626  10.821 -0.9520 -1.4286 -2.1779
33565SOL     OW 7555  12.151   2.094  10.582 -0.4773  0.4001  0.3895
33565SOL    HW1 7556  12.213   2.021  10.593  0.6200  1.0798 -0.9217
33565SOL    HW2 7557  12.193   2.167  10.627 -1.1890  0.4222  1.0143
33566SOL     OW 7558   2.258   4.516  10.879 -0.4988  0.5045  0.2258
33566SOL    HW1 7559   2.221   4.435  10.914  0.7030 -0.1277  0.0557
33566SOL    HW2 7560   2.351   4.499  10.871 -0.6613  0.5566 -3.3788
33567SOL     OW 7561   8.877   1.430   4.928  0.0909 -0.1994 -0.5873
33567SOL    HW1 7562   8.816   1.501   4.910  0.6537  0.4259 -0.0935
33567SOL    HW2 7563   8.925   1.459   5.006  1.2690 -0.5026 -1.1792
33568SOL     OW 7564   5.651   5.356   9.442 -0.2555 -0.5086  0.2216
33568SOL    HW1 7565   5.579   5.321   9.494  0.8265 -1.8639  0.8936
33568SOL    HW2 7566   5.633   5.328   9.352 -1.4118  0.6374  0.0723
33569SOL     OW 7567   8.571   5.336  11.524 -0.9925 -0.8145 -0.8364
33569SOL    HW1 7568   8.570   5.405  11.456 -0.2771 -1.2115 -1.2607
33569SOL    HW2 7569   8.562   5.254  11.475 -1.1662 -1.0690 -0.3843
33570SOL     OW 7570  12.291  10.927   0.201  0.2684 -0.0645  0.0978
33570SOL    HW1 7571  12.383  10.904   0.189  0.9811  3.2937 -2.4661
33570SOL    HW2 7572  12.275  10.915   0.294  3.3340 -0.6784  0.6485
33571SOL     OW 7573   2.671   0.075   6.233  0.2089  0.2743 -0.1979
33571SOL    HW1 7574   2.709   0.154   6.270 -0.5806  0.9741 -0.8288
33571SOL    HW2 7575   2.641   0.025   6.309  2.3642 -0.3286  0.3233
33572SOL     OW 7576   4.070   5.790   4.364  0.4546 -0.0869 -0.5239
33572SOL    HW1 7577   4.007   5.730   4.324  0.7190 -0.4544 -0.3898
33572SOL    HW2 7578   4.019   5.870   4.380  0.2290 -0.1002 -1.1554
33573SOL     OW 7579   9.292  10.680  11.593  0.3373  0.0645  0.4078
33573SOL    HW1 7580   9.341  10.599  11.582  0.8610  0.3372  0.7229
33573SOL    HW2 7581   9.228  10.661  11.661  0.2798 -0.1649  0.2886
33574SOL     OW 7582   5.159   4.853   2.267  0.0946  0.5653 -0.0625
33574SOL    HW1 7583   5.171   4.929   2.323  1.5255  0.7274 -0.5199
33574SOL    HW2 7584   5.092   4.800   2.310  0.8794  0.8599  1.5961
33575SOL     OW 7585   2.660   3.134   2.368  0.0104  0.3803 -0.3665
33575SOL    HW1 7586   2.659   3.208   2.430 -0.9847  0.5370 -0.5655
33575SOL    HW2 7587   2.572   3.098   2.371  0.8591 -1.8015  0.8717
33576SOL     OW 7588   3.243   0.753   6.673 -0.1893  0.0842  0.2436
33576SOL    HW1 7589   3.336   0.773   6.674 -0.1698  0.3609 -1.7839
33576SOL    HW2 7590   3.238   0.658   6.666 -0.1991 -0.3825  4.4482
33577SOL     OW 7591   7.472   7.808   1.919 -0.1292 -0.2147 -0.1172
33577SOL    HW1 7592   7.452   7.842   2.006  1.6260 -0.2259  0.3083
33577SOL    HW2 7593   7.565   7.789   1.921 -0.0750 -0.3030 -1.9828
33578SOL     OW 7594   3.189  11.602   0.411  0.4724  0.3725 -0.5547
33578SOL    HW1 7595   3.281  11.611   0.388  0.4732 -0.7634 -1.0711
33578SOL    HW2 7596   3.183  11.519   0.458 -0.0884  1.0691  0.6766
33579SOL     OW 7597   2.596  12.215   2.318 -0.2446 -0.0840 -1.0692
33579SOL    HW1 7598   2.558  12.154   2.381  1.1146 -0.9614 -1.0470
33579SOL    HW2 7599   2.525  12.236   2.258 -0.8640 -1.3531 -0.8068
33580SOL     OW 7600   1.960   5.675  11.704 -0.1787  0.0738  0.0983
33580SOL    HW1 7601   2.055   5.671  11.689 -0.4260 -0.0922 -1.6548
33580SOL    HW2 7602   1.933   5.584  11.712 -0.1554  0.1350  0.9130
33581SOL     OW 7603   9.386   7.587   6.447 -0.0216  0.2558  0.0855
33581SOL    HW1 7604   9.304   7.571   6.495  0.5625 -0.6331  0.8028
33581SOL    HW2 7605   9.441   7.634   6.509 -0.0715  1.1026 -0.4935
33582SOL     OW 7606   7.999   6.178   8.079 -0.0210  0.4964 -0.4737
33582SOL    HW1 7607   8.074   6.123   8.100 -0.7649 -0.1727  0.5415
33582SOL    HW2 7608   7.979   6.158   7.988  1.1210  0.8070 -0.8046
33583SOL     OW 7609   5.532  10.736  11.724 -0.1943  0.2101 -0.0121
33583SOL    HW1 7610   5.482  10.658  11.701 -0.6558  0.7793 -1.0045
33583SOL    HW2 7611   5.605  10.737  11.662  0.2423  0.1770  0.4839
33584SOL     OW 7612  10.119   0.602   1.443  0.2738 -0.0210 -0.1374
33584SOL    HW1 7613  10.206   0.637   1.464  0.1157 -0.1534  0.8041
33584SOL    HW2 7614  10.098   0.639   1.358  1.6762 -0.7806 -0.8469
33585SOL     OW 7615   9.926  10.309   0.573  0.0584  0.2299 -0.1128
33585SOL    HW1 7616   9.847  10.361   0.557  0.9661  1.2936 -1.3462
33585SOL    HW2 7617   9.942  10.318   0.667 -0.8031  0.6829  0.0048
33586SOL     OW 7618   3.079   3.712   9.721 -0.3096 -0.3236 -0.2090
33586SOL    HW1 7619   3.131   3.642   9.759 -0.0279 -1.8661 -3.1363
33586SOL    HW2 7620   3.141   3.783   9.707 -0.1434 -0.2336  0.9195
33587SOL     OW 7621   6.439   5.899   0.767  0.2560 -0.1188  0.4496
33587SOL    HW1 7622   6.412   5.988   0.789 -0.9726 -0.9940  2.9537
33587SOL    HW2 7623   6.502   5.876   0.836 -0.6182 -1.6779  0.7718
33588SOL     OW 7624  11.883   7.763   5.432  0.6202 -0.0675 -0.0415
33588SOL    HW1 7625  11.809   7.718   5.390  1.0702 -0.5616 -0.3148
33588SOL    HW2 7626  11.944   7.780   5.360 -0.2316  2.4873 -0.2756
33589SOL     OW 7627  12.407   9.164   1.930 -0.2815  0.2894  0.1568
33589SOL    HW1 7628  12.431   9.088   1.877  2.6530  0.7884  0.6063
33589SOL    HW2 7629  12.436   9.142   2.018  0.7389  1.9320  0.2775
33590SOL     OW 7630   1.184   8.374   1.324  0.0855  0.4191  0.5100
33590SOL    HW1 7631   1.248   8.413   1.383  1.1737  1.7636 -1.4184
33590SOL    HW2 7632   1.112   8.438   1.322 -1.1606 -0.8294  2.2504
33591SOL     OW 7633   9.257   4.186  10.044 -0.4349 -0.4541 -0.2832
33591SOL    HW1 7634   9.223   4.265  10.087 -1.1311 -0.4399 -0.8363
33591SOL    HW2 7635   9.225   4.114  10.098  2.0066 -0.3338  1.4845
33592SOL     OW 7636   0.261   3.229   0.963 -0.1968  0.3367  0.0255
33592SOL    HW1 7637   0.303   3.149   0.995 -2.7256 -0.7164  0.9576
33592SOL    HW2 7638   0.193   3.248   1.027 -2.1690  1.0354 -2.1270
33593SOL     OW 7639   3.598   1.806   1.633 -0.1409  0.3867  0.5504
33593SOL    HW1 7640   3.682   1.839   1.664 -0.9801  2.4757  0.7572
33593SOL    HW2 7641   3.592   1.717   1.667  2.8284 -0.5788 -1.1315
33594SOL     OW 7642   2.700   7.421  10.854 -0.5191  0.1242 -0.5347
33594SOL    HW1 7643   2.612   7.438  10.886 -0.7883  0.6318 -1.5118
33594SOL    HW2 7644   2.755   7.488  10.895 -0.2072 -1.3137  1.5728
33595SOL     OW 7645   9.822  12.320  11.272 -0.0968  0.4554  0.6627
33595SOL    HW1 7646   9.737  12.292  11.307 -0.2213  2.2451  1.9418
33595SOL    HW2 7647   9.878  12.243  11.280 -1.5175 -0.6972  0.0008
33596SOL     OW 7648   5.185   6.739   0.717 -0.4841 -0.0791 -0.3989
33596SOL    HW1 7649   5.192   6.802   0.789  0.9422  0.0989 -0.6654
33596SOL    HW2 7650   5.130   6.669   0.752 -0.4568  0.3755  0.5885
33597SOL     OW 7651   7.021   6.570   5.449  0.1549 -0.3005 -0.3884
33597SOL    HW1 7652   6.971   6.506   5.397  1.2311 -1.0921 -0.4855
33597SOL    HW2 7653   6.993   6.554   5.539 -1.0372  0.4536 -0.5959
33598SOL     OW 7654   4.683   5.692   1.998 -0.4451 -0.4204 -0.1850
33598SOL    HW1 7655   4.729   5.671   1.917 -2.2033 -0.3236 -1.2584
33598SOL    HW2 7656   4.684   5.610   2.048 -0.0252 -0.6954 -0.6388
33599SOL     OW 7657   6.424  10.501   5.252  0.4626 -0.1414 -0.1469
33599SOL    HW1 7658   6.350  10.561   5.249  1.3670  1.0138 -0.1748
33599SOL    HW2 7659   6.467  10.512   5.167  1.6317  0.5007  0.4993
33600SOL     OW 7660   0.145   4.057   8.259  0.7343 -0.1401  0.5244
33600SOL    HW1 7661   0.191   3.972   8.261  0.2212 -0.5077 -1.2885
33600SOL    HW2 7662   0.092   4.057   8.339 -1.5080 -2.8860 -0.7640
33601SOL     OW 7663   2.332   4.708   4.993 -0.6723 -0.1903 -0.4109
33601SOL    HW1 7664   2.258   4.670   4.945 -0.5972 -0.8843  0.0078
33601SOL    HW2 7665   2.324   4.672   5.082  0.8611 -1.2776 -0.6683
33602SOL     OW 7666   9.297   5.077   7.968  0.2921  0.2634  0.6744
33602SOL    HW1 7667   9.219   5.076   8.024 -0.0292  0.8213  0.2617
33602SOL    HW2 7668   9.330   4.988   7.970 -0.6729 -0.1092  0.4405
33603SOL     OW 7669   6.270   1.383   9.712 -0.5668 -0.1696 -0.0573
33603SOL    HW1 7670   6.325   1.342   9.779 -2.3029 -1.2919  0.7463
33603SOL    HW2 7671   6.217   1.446   9.760 -0.6727  0.2012 -0.6536
33604SOL     OW 7672   7.291   4.669  10.552  0.3852 -0.2521 -0.1723
33604SOL    HW1 7673   7.275   4.587  10.599 -0.5993 -0.7511 -1.3172
33604SOL    HW2 7674   7.382   4.663  10.523  0.0875 -1.3283 -0.9370
33605SOL     OW 7675  10.934   8.176  11.980  0.3818  0.0617 -0.2343
33605SOL    HW1 7676  10.902   8.259  11.945  0.4595  0.1915  0.0106
33605SOL    HW2 7677  11.020   8.195  12.016  0.5845 -0.2148 -0.5581
33606SOL     OW 7678  11.972   4.462   3.739  0.6154 -0.2911  0.3631
33606SOL    HW1 7679  12.005   4.382   3.779 -0.9840 -1.4023 -0.4392
33606SOL    HW2 7680  11.878   4.461   3.757 -0.0689 -0.5183 -2.8060
33607SOL     OW 7681   1.044   3.716  12.264  0.0556  0.2618 -0.6900
33607SOL    HW1 7682   1.092   3.633  12.259 -1.5996 -1.0130  1.8195
33607SOL    HW2 7683   1.110   3.783  12.248  2.5030 -1.4080  1.4446
33608SOL     OW 7684  10.900   1.100   9.290  0.8564  0.0470 -0.0382
33608SOL    HW1 7685  10.917   1.084   9.197  1.6990  1.1885 -0.1061
33608SOL    HW2 7686  10.956   1.039   9.336  1.8695  0.7535 -0.2950
33609SOL     OW 7687   2.726   7.694  10.450  0.3784 -0.7048 -0.7851
33609SOL    HW1 7688   2.672   7.668  10.524  1.9321 -1.5027  0.1211
33609SOL    HW2 7689   2.673   7.758  10.403 -1.7364 -2.1532 -0.5088
33610SOL     OW 7690  10.574   0.334  11.619  0.1255  0.4142  0.4622
33610SOL    HW1 7691  10.600   0.250  11.657  1.3110  1.7295  2.7625
33610SOL    HW2 7692  10.655   0.371  11.585 -0.3419  0.7775 -0.2833
33611SOL     OW 7693   6.876   4.812  10.204 -0.1594 -0.5321 -0.0445
33611SOL    HW1 7694   6.927   4.815  10.285 -0.9466 -0.4034  0.4582
33611SOL    HW2 7695   6.930   4.859  10.140  1.0942 -1.8102  0.0353
33612SOL     OW 7696   2.608   6.940   0.188 -0.0926  0.4767 -0.3320
33612SOL    HW1 7697   2.630   6.857   0.145  1.2339  0.6852 -0.0903
33612SOL    HW2 7698   2.580   6.915   0.276 -3.2046  0.0107 -1.3278
33613SOL     OW 7699   7.931  12.001   6.858 -0.4723 -0.4995  0.4025
33613SOL    HW1 7700   7.923  11.906   6.845  3.1692 -0.8019 -0.7011
33613SOL    HW2 7701   7.925  12.012   6.953  0.2546 -2.0482  0.6719
33614SOL     OW 7702   7.424   0.572  10.804 -0.0817  0.4840  0.6579
33614SOL    HW1 7703   7.339   0.560  10.762  0.5845  0.4925 -0.7518
33614SOL    HW2 7704   7.403   0.597  10.895 -1.5673  0.5079  0.3315
33615SOL     OW 7705   0.332   6.988   5.071 -0.1866  0.6996 -0.0645
33615SOL    HW1 7706   0.364   7.002   4.982  0.6641  1.3147  0.3258
33615SOL    HW2 7707   0.256   7.045   5.079 -1.2407 -0.5515 -0.9062
33616SOL     OW 7708  10.409   8.862   2.393  0.0822 -0.0833 -0.0302
33616SOL    HW1 7709  10.375   8.777   2.365  1.6525 -0.6015 -0.4617
33616SOL    HW2 7710  10.420   8.911   2.311  0.9554 -0.1630  0.0333
33617SOL     OW 7711  11.978   2.208  12.197  0.4142  0.0675 -0.3289
33617SOL    HW1 7712  11.920   2.132  12.205 -0.1973  0.5188 -0.4287
33617SOL    HW2 7713  12.019   2.216  12.283  1.6887 -1.3285 -0.7694
33618SOL     OW 7714  10.091   7.399  12.387 -0.2458 -0.3348  0.1119
33618SOL    HW1 7715  10.115   7.474  12.441  1.4212 -0.8369  0.1165
33618SOL    HW2 7716  10.065   7.331  12.450 -0.1379 -0.3051  0.1874
33619SOL     OW 7717   4.780   1.030   4.312  0.0713  0.3644  0.6917
33619SOL    HW1 7718   4.866   1.050   4.275 -0.3639  0.3274 -0.3609
33619SOL    HW2 7719   4.718   1.061   4.246 -0.7964  2.2995  2.3183
33620SOL     OW 7720   3.368   3.369   3.661 -0.2809 -0.0785  0.1438
33620SOL    HW1 7721   3.380   3.284   3.617 -0.5000 -0.0425  0.0135
33620SOL    HW2 7722   3.391   3.351   3.753  2.0563  0.2748 -0.2891
33621SOL     OW 7723   2.767   0.922   9.161  0.3242 -0.2342  0.0320
33621SOL    HW1 7724   2.856   0.921   9.196  0.2775  0.0560  0.1646
33621SOL    HW2 7725   2.777   0.948   9.069  0.2008  2.1364  0.6254
33622SOL     OW 7726   6.922   7.654   1.119 -0.1761  0.7429 -0.1137
33622SOL    HW1 7727   7.010   7.662   1.082 -0.4716 -0.6338 -1.1770
33622SOL    HW2 7728   6.870   7.719   1.071  0.0309  0.8463 -0.1995
33623SOL     OW 7729   0.427   9.121   3.172 -0.0224 -0.0636 -0.0298
33623SOL    HW1 7730   0.332   9.121   3.178 -0.0090  2.3565  1.8824
33623SOL    HW2 7731   0.457   9.091   3.258  1.0056 -2.0205 -1.0157
33624SOL     OW 7732  10.850   9.810   3.604  0.2357 -0.5105  0.2357
33624SOL    HW1 7733  10.870   9.773   3.518 -0.7007  0.0569 -0.2431
33624SOL    HW2 7734  10.896   9.894   3.605  0.7169 -0.7686  0.5310
33625SOL     OW 7735   0.127   7.187   5.087  0.0659 -0.5299  0.1802
33625SOL    HW1 7736   0.155   7.271   5.050  1.1422 -0.9797 -0.0643
33625SOL    HW2 7737   0.044   7.207   5.131  0.0052  0.5341 -0.3718
33626SOL     OW 7738   6.577  12.471  12.107 -0.2268  0.6539 -0.3144
33626SOL    HW1 7739   6.655  12.525  12.116  0.9483 -0.1270 -3.8646
33626SOL    HW2 7740   6.513  12.528  12.064 -0.2966  0.3096 -0.6801
33627SOL     OW 7741   4.777   5.461  11.676  0.6926  0.3852 -0.2060
33627SOL    HW1 7742   4.822   5.377  11.666 -1.8432 -1.3644  1.5539
33627SOL    HW2 7743   4.691   5.447  11.636 -0.0954  1.8190  0.8718
33628SOL     OW 7744   6.299   7.241  11.178 -0.5517 -0.0731  0.0428
33628SOL    HW1 7745   6.326   7.212  11.265 -1.1397 -0.9238 -0.0476
33628SOL    HW2 7746   6.379   7.236  11.125 -0.3971 -0.4544  0.3111
33629SOL     OW 7747   1.326  10.025   7.006  0.0827 -0.1803 -0.1027
33629SOL    HW1 7748   1.277  10.090   6.955 -0.4183 -0.3282  0.1879
33629SOL    HW2 7749   1.418  10.044   6.986 -0.0861  0.1293 -0.6139
33630SOL     OW 7750   0.037   9.649   3.502  0.2514 -0.4123  0.0835
33630SOL    HW1 7751   0.047   9.692   3.586  1.6394  0.4272 -0.4777
33630SOL    HW2 7752  -0.022   9.706   3.452  2.7537  1.4421 -0.9645
33631SOL     OW 7753  10.177   8.565   0.465 -0.0893 -0.3405  0.0696
33631SOL    HW1 7754  10.121   8.488   0.455 -0.9643  0.3565 -0.5510
33631SOL    HW2 7755  10.240   8.558   0.393  0.0442 -0.6434  0.2135
33632SOL     OW 7756  11.786   1.577  10.586 -0.3333 -0.4604 -0.2004
33632SOL    HW1 7757  11.788   1.663  10.626 -1.1665  0.0016 -1.1193
33632SOL    HW2 7758  11.855   1.528  10.631  1.2408  1.1483 -0.7246
33633SOL     OW 7759   0.203   0.484  10.593  0.3450 -0.0804  0.2053
33633SOL    HW1 7760   0.146   0.547  10.637 -1.8188 -2.1647  0.5866
33633SOL    HW2 7761   0.236   0.531  10.516 -1.0990  1.5296  0.5133
33634SOL     OW 7762  11.446   1.159   7.454  0.0287 -0.0590  0.3463
33634SOL    HW1 7763  11.479   1.196   7.372 -0.6143  2.4455  1.1169
33634SOL    HW2 7764  11.523   1.124   7.498  0.4780 -0.8326 -1.0026
33635SOL     OW 7765  10.250   4.496   9.466 -0.1976  0.5177 -0.7581
33635SOL    HW1 7766  10.230   4.589   9.457  1.6062  1.2108  1.3427
33635SOL    HW2 7767  10.333   4.484   9.420  0.6770  0.4831  0.7610
33636SOL     OW 7768  10.993   6.308   7.208  0.5017  0.3088 -0.1825
33636SOL    HW1 7769  11.072   6.263   7.180 -0.1831  0.5933 -2.9794
33636SOL    HW2 7770  11.023   6.392   7.241  1.3720  0.7958 -2.0901
33637SOL     OW 7771   6.656   9.146   7.889  0.3201 -0.0720  0.4009
33637SOL    HW1 7772   6.596   9.095   7.943 -1.0621  0.5791 -0.4773
33637SOL    HW2 7773   6.738   9.147   7.939 -0.1253 -1.6939  1.2246
33638SOL     OW 7774   4.626   1.211  11.370  0.4534 -0.5077  0.1851
33638SOL    HW1 7775   4.597   1.139  11.427 -0.7015  0.8819  1.4362
33638SOL    HW2 7776   4.643   1.169  11.285 -3.1152 -1.8646 -0.0295
33639SOL     OW 7777   5.861   9.431   3.338 -0.8598 -0.1538 -0.9300
33639SOL    HW1 7778   5.818   9.450   3.422 -1.1108  0.6479 -1.2295
33639SOL    HW2 7779   5.932   9.496   3.333  0.3141 -1.3561 -0.5091
33640SOL     OW 7780   6.578   0.706   8.530 -0.4070  0.8121  0.5812
33640SOL    HW1 7781   6.560   0.798   8.511 -3.0614  0.2863  0.1512
33640SOL    HW2 7782   6.547   0.693   8.619 -0.2850  0.2836  0.5544
33641SOL     OW 7783  12.073  11.907  10.879  0.4719 -0.1939  0.1382
33641SOL    HW1 7784  12.070  11.825  10.830  0.0685  0.2691 -0.6380
33641SOL    HW2 7785  12.016  11.893  10.954 -0.2483 -0.3621 -0.4265
33642SOL     OW 7786   4.092   3.328   6.536 -0.0775 -0.1976 -0.0668
33642SOL    HW1 7787   4.104   3.236   6.561 -0.9476  0.0747  1.4870
33642SOL    HW2 7788   4.178   3.368   6.552  0.2548 -0.7004 -0.5713
33643SOL     OW 7789  11.452   4.335   3.736 -0.0454 -0.4109 -0.6150
33643SOL    HW1 7790  11.463   4.316   3.643 -2.3296 -1.9387 -0.6523
33643SOL    HW2 7791  11.375   4.392   3.740  1.8740  2.3513  0.1864
33644SOL     OW 7792   6.454   3.884   1.645  0.4180 -0.5044 -0.1069
33644SOL    HW1 7793   6.444   3.791   1.666  1.1408 -0.6140 -0.2067
33644SOL    HW2 7794   6.545   3.892   1.617  0.9365  0.5861  1.7517
33645SOL     OW 7795   3.958   2.945   5.325 -0.5580 -0.2684 -0.1233
33645SOL    HW1 7796   3.901   2.870   5.341 -1.8280  0.6902 -0.0839
33645SOL    HW2 7797   3.993   2.967   5.411  1.7678 -2.2757 -0.4444
33646SOL     OW 7798   2.616  10.658   4.488  0.1222 -1.1259  0.1713
33646SOL    HW1 7799   2.581  10.626   4.405 -0.6198  0.6511 -0.2482
33646SOL    HW2 7800   2.676  10.589   4.517  1.9561 -0.9909 -2.8347
33647SOL     OW 7801  10.016   9.282   9.141  0.3049 -0.4328  0.8897
33647SOL    HW1 7802  10.031   9.207   9.083  0.1338  0.0654  0.1884
33647SOL    HW2 7803   9.946   9.331   9.099  1.5589  1.0428  0.4242
33648SOL     OW 7804  11.265   1.595  10.551 -0.6464  0.2873  0.5721
33648SOL    HW1 7805  11.243   1.567  10.462  0.1165 -0.0762  0.4926
33648SOL    HW2 7806  11.360   1.607  10.549 -0.6146  0.1788  1.3652
33649SOL     OW 7807   3.991   5.217   6.441  1.0604 -0.2786 -0.1844
33649SOL    HW1 7808   4.024   5.136   6.480  2.5424  0.3952  0.0167
33649SOL    HW2 7809   3.931   5.188   6.373 -0.0107 -1.5121  1.2145
33650SOL     OW 7810   6.865   5.675   4.076  0.0402  0.1314  0.0694
33650SOL    HW1 7811   6.797   5.658   4.141  0.5861  1.6748  1.0980
33650SOL    HW2 7812   6.893   5.765   4.093  2.1355 -0.3441 -0.5297
33651SOL     OW 7813   9.308   2.320   2.611  0.1094  0.1253  0.1430
33651SOL    HW1 7814   9.326   2.233   2.574  1.5813  1.1980 -1.8987
33651SOL    HW2 7815   9.374   2.331   2.679 -0.9025 -0.8144  1.3245
33652SOL     OW 7816  11.154   7.731  12.256 -0.3588 -0.0941  0.7921
33652SOL    HW1 7817  11.109   7.792  12.198  0.2019  1.2844  1.7596
33652SOL    HW2 7818  11.221   7.690  12.201 -0.4133  0.5321  0.2506
33653SOL     OW 7819   2.822   7.116  10.311 -0.0518 -0.7505  0.4369
33653SOL    HW1 7820   2.745   7.172  10.303 -0.1980 -0.8869  0.8389
33653SOL    HW2 7821   2.894   7.169  10.277  0.0055  0.1115  1.8372
33654SOL     OW 7822   2.832   9.153  10.713 -0.3828  0.7498 -0.1807
33654SOL    HW1 7823   2.919   9.171  10.749  0.2977  0.0882 -1.4027
33654SOL    HW2 7824   2.800   9.078  10.764  0.8709 -0.6475 -1.3284
33655SOL     OW 7825  11.801   6.547   4.067 -0.1233 -0.5571  0.1284
33655SOL    HW1 7826  11.857   6.619   4.098 -1.2216 -0.0802  1.1099
33655SOL    HW2 7827  11.839   6.521   3.983  2.5555 -1.3763  1.4771
33656SOL     OW 7828  12.418  10.001   8.540  0.3673  0.7267 -0.1457
33656SOL    HW1 7829  12.325   9.992   8.518  0.6217 -0.4317 -0.8101
33656SOL    HW2 7830  12.446  10.080   8.493 -0.0350  0.4881 -0.8067
33657SOL     OW 7831  11.420   0.738   3.092 -0.0049  0.7888  0.2231
33657SOL    HW1 7832  11.477   0.815   3.084  1.6183 -0.4537 -0.8918
33657SOL    HW2 7833  11.387   0.724   3.003 -0.0594  0.0400  0.3539
33658SOL     OW 7834  11.459   0.582   5.595  0.0376 -0.3652  0.1200
33658SOL    HW1 7835  11.454   0.630   5.677 -0.7428  0.1035 -0.1871
33658SOL    HW2 7836  11.482   0.493   5.620  2.3280  0.3122  0.6471
33659SOL     OW 7837   6.050   5.645   3.351  0.1592  0.1840  0.4586
33659SOL    HW1 7838   6.076   5.664   3.261 -0.9914 -1.5897 -0.3121
33659SOL    HW2 7839   5.973   5.589   3.342  1.7560 -2.6228  2.4285
33660SOL     OW 7840   5.208   6.611   8.130  0.2262 -0.3515 -0.1385
33660SOL    HW1 7841   5.135   6.611   8.068  1.0369 -1.8925 -1.1766
33660SOL    HW2 7842   5.194   6.532   8.183  0.9786 -0.5169 -0.1737
33661SOL     OW 7843   4.106   0.051   3.290  0.0811  0.3003 -0.0405
33661SOL    HW1 7844   4.100   0.146   3.279  2.3069  0.3721 -1.0837
33661SOL    HW2 7845   4.142   0.039   3.378 -0.6808  0.3899  0.2892
33662SOL     OW 7846   2.264   8.343  10.725 -0.5191 -0.2016  0.1216
33662SOL    HW1 7847   2.254   8.256  10.763  0.9194 -0.4166  0.0842
33662SOL    HW2 7848   2.359   8.357  10.723 -0.5939  0.3692 -2.1228
33663SOL     OW 7849   1.122   1.274   2.336 -0.4271  0.0738  0.0712
33663SOL    HW1 7850   1.211   1.252   2.308 -0.3559  0.8616 -0.3500
33663SOL    HW2 7851   1.066   1.219   2.283 -0.1694 -1.4907  1.3389
33664SOL     OW 7852   2.225  12.443   9.227 -0.7440  0.0876  0.0034
33664SOL    HW1 7853   2.131  12.451   9.211 -1.1256 -0.7923  1.6038
33664SOL    HW2 7854   2.233  12.369   9.288  1.1608 -1.1414 -1.6165
33665SOL     OW 7855   7.823   2.497   2.112 -0.1174 -0.7875 -0.5546
33665SOL    HW1 7856   7.905   2.534   2.080 -0.0324 -0.8651 -0.4281
33665SOL    HW2 7857   7.765   2.573   2.121  0.2673 -0.5839  0.3455
33666SOL     OW 7858   9.943   7.343   4.761  0.5610 -0.0235  0.0685
33666SOL    HW1 7859  10.003   7.339   4.687  0.7031 -1.2123  0.2176
33666SOL    HW2 7860   9.858   7.367   4.723  0.3949 -1.6459 -0.6588
33667SOL     OW 7861  10.760   4.269  12.092  0.6766 -0.1984 -0.1672
33667SOL    HW1 7862  10.852   4.290  12.103  0.5426  0.3400 -0.0191
33667SOL    HW2 7863  10.745   4.274  11.997  0.5448  0.9024 -0.1091
33668SOL     OW 7864   0.329  10.056   2.205 -0.1295  0.5484 -0.4808
33668SOL    HW1 7865   0.291  10.085   2.122  0.7312  2.2281 -0.3201
33668SOL    HW2 7866   0.415  10.096   2.209 -0.1147  0.4502  1.1977
33669SOL     OW 7867   2.917   1.985   2.805  0.1044 -0.7170  0.5677
33669SOL    HW1 7868   2.899   1.930   2.881  1.7118 -0.0977  1.4538
33669SOL    HW2 7869   2.990   1.942   2.761  1.1371  0.4549  1.0619
33670SOL     OW 7870   6.729   2.941   7.132  0.0737  0.0376 -0.4039
33670SOL    HW1 7871   6.783   2.967   7.206 -0.0384  0.7180 -0.5553
33670SOL    HW2 7872   6.640   2.939   7.166 -0.4283  3.3671 -1.1946
33671SOL     OW 7873   3.439   6.420   4.588 -1.2964 -0.5934 -0.3371
33671SOL    HW1 7874   3.520   6.396   4.633 -0.7169 -1.0291 -1.5722
33671SOL    HW2 7875   3.449   6.384   4.500 -1.2965  2.3118 -1.6473
33672SOL     OW 7876   2.543  12.365  11.309  0.4406  0.0403 -0.4406
33672SOL    HW1 7877   2.451  12.368  11.336  0.1137 -1.5338 -1.2857
33672SOL    HW2 7878   2.587  12.423  11.371 -0.9700  0.0536  0.6137
33673SOL     OW 7879  11.009  10.539   1.492 -0.6157  0.4679  0.2761
33673SOL    HW1 7880  10.973  10.514   1.407 -2.6841  0.5957  1.0651
33673SOL    HW2 7881  11.094  10.495   1.497 -0.4800  0.4151 -1.8088
33674SOL     OW 7882   8.460   3.459  11.263 -0.1164 -0.2775 -0.0466
33674SOL    HW1 7883   8.378   3.411  11.252 -0.8012  1.3216 -2.8228
33674SOL    HW2 7884   8.440   3.527  11.327 -0.3622 -1.0742  0.7370
33675SOL     OW 7885   9.352   0.149   3.248 -0.2205 -0.0424  0.0285
33675SOL    HW1 7886   9.296   0.071   3.251  0.0559 -0.2943 -1.0597
33675SOL    HW2 7887   9.374   0.165   3.340  0.4506 -1.7891  0.2193
33676SOL     OW 7888  11.870   2.877  11.503  0.2409  0.2433 -0.5043
33676SOL    HW1 7889  11.854   2.787  11.474  0.1600  0.2207 -0.3893
33676SOL    HW2 7890  11.863   2.873  11.598 -0.3897  0.4961 -0.5370
33677SOL     OW 7891  11.351   5.867   9.172  0.3471 -0.3587 -0.3172
33677SOL    HW1 7892  11.435   5.840   9.209  0.6513  0.4472 -0.4076
33677SOL    HW2 7893  11.320   5.789   9.125  1.4260 -0.4249 -0.9551
33678SOL     OW 7894   4.920   8.714   8.497  0.0363 -0.8194 -0.7490
33678SOL    HW1 7895   4.847   8.669   8.454  1.1584 -2.6597 -0.8368
33678SOL    HW2 7896   4.912   8.691   8.589 -0.6262  0.6398 -0.4212
33679SOL     OW 7897   2.343   3.182   0.264 -0.3443 -0.5960 -0.7925
33679SOL    HW1 7898   2.329   3.222   0.349  0.9405 -0.1864 -0.7700
33679SOL    HW2 7899   2.422   3.130   0.274  2.2455  2.6202 -2.7767
33680SOL     OW 7900   0.465   9.323   8.371  0.0283  0.3401 -0.0857
33680SOL    HW1 7901   0.545   9.271   8.374 -0.5832 -0.5848  1.7498
33680SOL    HW2 7902   0.410   9.279   8.306 -0.2960 -1.1042  1.1058
33681SOL     OW 7903  11.324   1.823   0.850  0.0748 -0.4687 -0.2500
33681SOL    HW1 7904  11.280   1.906   0.866 -0.9472 -1.1089  0.3421
33681SOL    HW2 7905  11.394   1.845   0.788  1.5789  1.3440  1.9209
33682SOL     OW 7906   9.501   4.344   4.158  0.4661  0.5782  0.3830
33682SOL    HW1 7907   9.453   4.282   4.214  1.5670  0.5623  1.3287
33682SOL    HW2 7908   9.511   4.422   4.212 -0.6460  1.5068 -0.6996
33683SOL     OW 7909  10.764   4.020   5.505 -0.7274 -0.2875 -0.0599
33683SOL    HW1 7910  10.712   3.966   5.565 -0.9538 -0.6230 -0.5513
33683SOL    HW2 7911  10.845   4.036   5.552  0.1040 -2.5510 -0.5515
33684SOL     OW 7912   8.168   0.801   0.795 -0.6711  0.5332 -0.2660
33684SOL    HW1 7913   8.076   0.776   0.786 -0.8053  0.2145  1.5631
33684SOL    HW2 7914   8.166   0.892   0.823 -0.4800  0.2767  0.6140
33685SOL     OW 7915   2.025   9.516   6.383  0.0064  0.0883  0.1749
33685SOL    HW1 7916   2.094   9.570   6.342 -0.0412  0.8488  1.0586
33685SOL    HW2 7917   1.950   9.525   6.325  0.2574  0.3048 -0.1196
33686SOL     OW 7918   6.991  10.998   7.224 -0.2220  0.3186 -0.6673
33686SOL    HW1 7919   7.028  10.939   7.289 -0.0928  2.7337  1.6063
33686SOL    HW2 7920   7.066  11.043   7.187 -0.3891 -0.2192 -1.7114
33687SOL     OW 7921   3.101   7.979   0.298  0.1940 -0.6841 -0.0506
33687SOL    HW1 7922   3.112   7.892   0.260 -0.1234  0.1829 -2.2188
33687SOL    HW2 7923   3.177   8.028   0.268 -0.4127  0.2307 -0.1219
33688SOL     OW 7924   0.230   1.813   2.432  0.1881  0.4420  0.1571
33688SOL    HW1 7925   0.187   1.891   2.397  0.8045  0.5108 -0.4849
33688SOL    HW2 7926   0.160   1.748   2.440  0.0695  0.2695 -1.6814
33689SOL     OW 7927   2.341   9.604   8.292  0.4279 -0.3226  0.5814
33689SOL    HW1 7928   2.322   9.626   8.383  0.5563 -1.2307  0.8412
33689SOL    HW2 7929   2.394   9.677   8.260 -0.1210  0.2890  1.0538
33690SOL     OW 7930   5.679   2.931   6.078 -0.0679  0.4213  0.2645
33690SOL    HW1 7931   5.743   2.916   6.148 -0.8185 -0.4899  0.7711
33690SOL    HW2 7932   5.701   3.018   6.044 -0.6494  1.5613  2.6528
33691SOL     OW 7933   7.291  12.049   6.606  0.2980  0.3498 -0.0915
33691SOL    HW1 7934   7.270  12.133   6.647  1.3836 -0.6476  2.8325
33691SOL    HW2 7935   7.252  11.984   6.665  0.3961 -1.2226 -1.6863
33692SOL     OW 7936  11.546   7.914   9.323  0.4916  0.7511  0.1279
33692SOL    HW1 7937  11.609   7.981   9.299 -0.4433  1.2632 -0.9769
33692SOL    HW2 7938  11.461   7.949   9.295  0.0251 -1.0448 -0.9023
33693SOL     OW 7939   9.758  11.052   8.520  0.1674  0.2491 -0.1269
33693SOL    HW1 7940   9.772  11.132   8.572 -1.2755  1.0325 -0.8975
33693SOL    HW2 7941   9.699  11.079   8.450  0.6758 -1.2133 -1.1583
33694SOL     OW 7942   4.116   3.720   3.931  0.0087  0.5860 -0.7747
33694SOL    HW1 7943   4.052   3.688   3.994  0.1105  2.1144  0.1747
33694SOL    HW2 7944   4.185   3.760   3.985  0.9737  0.3816 -1.8151
33695SOL     OW 7945   9.691  10.262   3.381  0.5680  0.6458 -0.2815
33695SOL    HW1 7946   9.677  10.244   3.474 -0.3127  1.0496 -0.3195
33695SOL    HW2 7947   9.723  10.179   3.346 -1.9993 -0.5062 -0.1740
33696SOL     OW 7948   5.462  12.418   6.033  0.0984 -0.4353  0.0252
33696SOL    HW1 7949   5.454  12.511   6.012  0.4275 -0.4451 -0.1496
33696SOL    HW2 7950   5.377  12.394   6.071  0.4797  0.2817  1.3882
33697SOL     OW 7951   1.165   7.845   4.838 -0.3249  0.4177  0.5764
33697SOL    HW1 7952   1.238   7.783   4.839  0.9327  1.8428  0.7722
33697SOL    HW2 7953   1.092   7.797   4.878  0.8795 -0.5917  1.6619
33698SOL     OW 7954   1.311   8.599   9.166  0.7861 -0.3419 -0.3384
33698SOL    HW1 7955   1.332   8.606   9.073 -0.9334  0.5743 -0.7107
33698SOL    HW2 7956   1.216   8.583   9.168  0.1753  2.6188  1.2317
33699SOL     OW 7957   0.707  10.700   6.381  0.3881  0.1491 -0.5074
33699SOL    HW1 7958   0.729  10.670   6.469 -2.2407 -0.4755  0.0184
33699SOL    HW2 7959   0.748  10.787   6.375 -1.0262  1.1328  2.1657
33700SOL     OW 7960   7.370  10.084   9.587  0.6428 -0.5131 -0.3122
33700SOL    HW1 7961   7.407  10.036   9.513 -1.4046 -2.0960 -0.4215
33700SOL    HW2 7962   7.323  10.157   9.548 -0.0745 -1.1009 -0.5770
33701SOL     OW 7963   6.957   2.025   7.520  0.0546 -0.0854 -0.2647
33701SOL    HW1 7964   6.891   2.095   7.523 -0.0818 -0.2513  1.2089
33701SOL    HW2 7965   6.928   1.969   7.448 -1.2065  0.0571  0.0955
33702SOL     OW 7966   2.900   8.377   6.364 -0.3847  0.6153  0.1997
33702SOL    HW1 7967   2.965   8.445   6.379 -1.1157  1.5074 -0.6134
33702SOL    HW2 7968   2.817   8.423   6.358 -0.7706 -0.2127 -1.3723
33703SOL     OW 7969   6.109   8.362   0.900 -0.2547 -0.1241  0.1656
33703SOL    HW1 7970   6.129   8.271   0.924 -0.6331 -0.1899  0.2475
33703SOL    HW2 7971   6.192   8.408   0.907 -0.2504 -0.2469  1.1102
33704SOL     OW 7972   2.002   3.643  10.791  0.6673 -0.1413  0.1247
33704SOL    HW1 7973   2.081   3.622  10.741 -0.3591 -2.0176 -0.8288
33704SOL    HW2 7974   1.955   3.559  10.799 -2.3384  1.2459 -1.3174
33705SOL     OW 7975  10.090  10.036   5.267  0.3801  0.0105  0.1822
33705SOL    HW1 7976  10.178  10.012   5.238  0.4348 -1.6908  1.6233
33705SOL    HW2 7977  10.035   9.961   5.242  0.2176 -1.0204  3.2098
33706SOL     OW 7978   7.011   2.049  12.192 -0.2869  0.3542  0.0048
33706SOL    HW1 7979   6.970   2.004  12.266 -0.7273 -0.6787 -0.8553
33706SOL    HW2 7980   7.097   2.076  12.226 -0.6130  0.1956  0.9940
33707SOL     OW 7981   7.080   5.230  10.726  0.8453 -0.4726 -0.1021
33707SOL    HW1 7982   6.993   5.245  10.761  0.7166  0.0358 -0.6301
33707SOL    HW2 7983   7.080   5.137  10.700 -0.3372  0.0413 -2.2413
33708SOL     OW 7984   6.473   2.346   3.966  0.1003  0.6351  0.2222
33708SOL    HW1 7985   6.494   2.272   3.909 -0.9551 -0.8440  1.6593
33708SOL    HW2 7986   6.555   2.394   3.975  1.9505 -2.5962  2.3615
33709SOL     OW 7987   9.667   7.576   7.658  0.0474 -0.5685  0.1070
33709SOL    HW1 7988   9.615   7.545   7.732  1.4320  2.8574  2.7904
33709SOL    HW2 7989   9.680   7.498   7.604 -3.1829 -2.7311  2.0555
33710SOL     OW 7990   7.701  10.925   9.139  0.1983  0.4634  0.0761
33710SOL    HW1 7991   7.734  10.841   9.173 -0.9102 -0.5302 -1.1729
33710SOL    HW2 7992   7.694  10.911   9.044 -1.8356  1.2874  0.0552
33711SOL     OW 7993   9.595  11.719   0.005 -0.2248 -0.6792  0.1612
33711SOL    HW1 7994   9.578  11.725   0.099 -0.8329 -2.8255  0.2461
33711SOL    HW2 7995   9.510  11.737  -0.036  0.1419  0.7004 -0.0111
33712SOL     OW 7996   5.444   0.358   5.291 -0.3601  0.1185  0.0196
33712SOL    HW1 7997   5.505   0.401   5.351  0.5506 -0.1284 -0.6912
33712SOL    HW2 7998   5.369   0.334   5.345 -0.4087  1.6147  0.6374
33713SOL     OW 7999   7.508   1.842   0.973  0.5657 -0.0490  0.7843
33713SOL    HW1 8000   7.494   1.767   0.915  0.0956  1.1251 -0.6943
33713SOL    HW2 8001   7.437   1.902   0.951  0.6858  0.6604  2.2348
33714SOL     OW 8002   4.568   7.191   6.827  0.2830  0.0719 -0.3567
33714SOL    HW1 8003   4.633   7.207   6.759  0.2742  1.8875  0.0097
33714SOL    HW2 8004   4.491   7.160   6.780  0.5155  0.5937 -1.0924
33715SOL     OW 8005  11.207   6.762  10.782  0.0564 -0.0465 -0.1081
33715SOL    HW1 8006  11.185   6.852  10.755 -0.0934  0.3362  1.1987
33715SOL    HW2 8007  11.160   6.706  10.721 -1.8516  0.7803  0.5341
33716SOL     OW 8008   2.061  10.517   5.112 -0.4164  0.4699  0.2789
33716SOL    HW1 8009   2.091  10.528   5.203  0.1374 -0.0360  0.1691
33716SOL    HW2 8010   2.139  10.537   5.059 -0.9832  1.6820 -0.1363
33717SOL     OW 8011   8.755   6.355   2.374  0.0624 -0.1840 -0.4947
33717SOL    HW1 8012   8.683   6.297   2.349  0.6171  0.2166 -3.3320
33717SOL    HW2 8013   8.728   6.441   2.344 -0.1764  0.9272  2.5184
33718SOL     OW 8014   1.589   0.937  12.298  0.1065  0.7103  0.0891
33718SOL    HW1 8015   1.544   0.859  12.329 -1.9514  1.3899 -0.9763
33718SOL    HW2 8016   1.617   0.982  12.378 -2.0956  0.7583  0.8859
33719SOL     OW 8017   1.029   2.345   2.227 -0.1516  0.2541 -0.2007
33719SOL    HW1 8018   1.032   2.419   2.287  1.0830  1.2358 -1.3892
33719SOL    HW2 8019   1.094   2.283   2.261 -0.3137  0.2679  0.1303
33720SOL     OW 8020   6.893   2.483   8.947  1.0423  0.7534 -0.2480
33720SOL    HW1 8021   6.911   2.480   8.853 -0.6794 -1.5993 -0.5955
33720SOL    HW2 8022   6.934   2.404   8.981 -1.3435 -0.3369  0.2971
33721SOL     OW 8023   0.353   5.023   2.442  0.0248 -0.4401 -0.0691
33721SOL    HW1 8024   0.355   5.103   2.495 -3.0964 -0.5964  0.4985
33721SOL    HW2 8025   0.343   4.952   2.506  0.5614 -1.0900 -0.6847
33722SOL     OW 8026  10.540   3.738   6.502  0.6223 -0.2106 -0.2937
33722SOL    HW1 8027  10.561   3.724   6.410  1.8973 -2.0848  0.2287
33722SOL    HW2 8028  10.626   3.750   6.544  0.2280 -1.6044  0.9692
33723SOL     OW 8029   6.514   1.240   4.637 -0.1183 -0.2687  0.3853
33723SOL    HW1 8030   6.522   1.153   4.678  0.2532 -0.1082  0.6570
33723SOL    HW2 8031   6.579   1.293   4.682  0.1471 -0.0302 -0.2732
33724SOL     OW 8032  11.616   4.723   3.973 -0.2135 -0.7753 -0.1421
33724SOL    HW1 8033  11.706   4.755   3.978 -0.9239  1.2314  0.7865
33724SOL    HW2 8034  11.622   4.644   3.918  2.0782 -0.6781 -0.1369
33725SOL     OW 8035   1.944   9.152  11.103  0.1711 -0.0002  0.0643
33725SOL    HW1 8036   1.954   9.057  11.103 -0.2160 -0.0445  1.2403
33725SOL    HW2 8037   2.033   9.185  11.084  0.4227 -0.5745  0.2332
33726SOL     OW 8038   4.413  10.079   8.646 -0.4838 -0.4824 -0.8149
33726SOL    HW1 8039   4.482  10.084   8.712 -0.4235 -0.6193 -0.8673
33726SOL    HW2 8040   4.458  10.092   8.563 -0.5646 -0.2773 -0.8268
33727SOL     OW 8041  10.425   7.236   2.321  0.2312  0.4650  0.1623
33727SOL    HW1 8042  10.352   7.297   2.327  0.9388  1.3823 -0.3711
33727SOL    HW2 8043  10.384   7.151   2.303 -1.1111 -0.0813  4.5533
33728SOL     OW 8044  11.285  12.434   3.827 -0.2847 -0.2928  0.3176
33728SOL    HW1 8045  11.282  12.340   3.839 -0.3021 -0.3859 -0.3490
33728SOL    HW2 8046  11.327  12.446   3.742 -0.7945  0.2708  0.1335
33729SOL     OW 8047   8.978  12.032   2.287  0.2312 -0.4733 -0.2590
33729SOL    HW1 8048   9.057  12.083   2.271 -1.2146  2.3744  1.1065
33729SOL    HW2 8049   8.994  11.990   2.372  0.7249 -0.8961 -0.5536
33730SOL     OW 8050   1.126   1.267   3.682  1.0301 -0.3015 -0.0214
33730SOL    HW1 8051   1.139   1.233   3.771  0.5176 -1.3514 -0.3303
33730SOL    HW2 8052   1.171   1.351   3.682 -0.5458  0.6120  1.7957
33731SOL     OW 8053  12.130   9.178   3.445 -0.5267 -0.4270  0.0162
33731SOL    HW1 8054  12.150   9.085   3.452 -1.4440 -0.5158  2.3535
33731SOL    HW2 8055  12.201   9.214   3.392  0.7384 -2.1833  0.4309
33732SOL     OW 8056   5.622   5.880   7.964  0.0168  0.0182 -0.3091
33732SOL    HW1 8057   5.678   5.927   8.025 -0.6779 -0.3225  0.6288
33732SOL    HW2 8058   5.627   5.929   7.883 -0.2865  1.4200  0.4977
33733SOL     OW 8059   7.329   9.834   3.379 -0.7356 -0.0455 -0.0578
33733SOL    HW1 8060   7.318   9.739   3.380  0.5810 -0.2268  1.4240
33733SOL    HW2 8061   7.342   9.857   3.471  0.0054  1.4349 -0.5032
33734SOL     OW 8062   2.797   5.530   5.109 -0.4216  0.6131 -0.5182
33734SOL    HW1 8063   2.836   5.600   5.056  1.5114  1.7422  2.1772
33734SOL    HW2 8064   2.763   5.575   5.187 -1.4947 -1.1860  0.1162
33735SOL     OW 8065   0.626   8.867   0.539 -0.8274  0.0055 -0.2001
33735SOL    HW1 8066   0.614   8.962   0.548  1.0632  0.1048  2.4440
33735SOL    HW2 8067   0.601   8.831   0.624  1.1741 -1.5258 -0.1959
33736SOL     OW 8068   1.795   2.437   5.207  0.2976  0.2646  0.1635
33736SOL    HW1 8069   1.775   2.495   5.134  0.2395 -0.3503 -0.3275
33736SOL    HW2 8070   1.861   2.376   5.171 -0.4956 -0.6958  0.2921
33737SOL     OW 8071   7.513   3.046   5.681 -0.1386 -0.3373  0.0344
33737SOL    HW1 8072   7.518   3.013   5.591  3.1475  0.5793 -0.2277
33737SOL    HW2 8073   7.477   3.134   5.672  0.0086 -0.3157 -0.3617
33738SOL     OW 8074   2.321  11.327   6.436  0.0192 -0.1499 -0.1217
33738SOL    HW1 8075   2.237  11.332   6.390 -0.3714  0.6785  0.6401
33738SOL    HW2 8076   2.370  11.404   6.406  0.7397 -0.9196 -0.9727
33739SOL     OW 8077   1.156   7.163   1.227  0.1507  0.2449  0.2050
33739SOL    HW1 8078   1.098   7.087   1.237 -1.4503  1.4466  0.3707
33739SOL    HW2 8079   1.190   7.154   1.138 -0.1396 -0.5785  0.1597
33740SOL     OW 8080   2.958   5.052   5.546 -0.2619 -0.5713  0.3859
33740SOL    HW1 8081   2.975   4.982   5.608  0.8503  0.2873  1.0715
33740SOL    HW2 8082   2.867   5.037   5.518  0.0009 -2.3577  0.3848
33741SOL     OW 8083   7.125   9.236   6.706 -0.4316 -0.0986  0.2038
33741SOL    HW1 8084   7.077   9.300   6.654 -0.7325  2.2033  3.0333
33741SOL    HW2 8085   7.198   9.210   6.650 -1.5668  0.9517 -1.9167
33742SOL     OW 8086   6.759   9.908   2.965  0.2001 -0.2591  0.5498
33742SOL    HW1 8087   6.843   9.865   2.951  1.5629  2.7526 -1.4953
33742SOL    HW2 8088   6.706   9.882   2.890  0.7489  0.9034 -0.2676
33743SOL     OW 8089   9.870   3.596   4.554 -0.2589  0.4419 -0.1351
33743SOL    HW1 8090   9.887   3.680   4.512  0.9247  0.0817 -0.4073
33743SOL    HW2 8091   9.947   3.581   4.609 -0.9870  0.0793  0.8175
33744SOL     OW 8092   8.746   1.013   9.482 -0.6626  0.1347  0.1239
33744SOL    HW1 8093   8.815   1.003   9.546 -1.2182 -0.4917  0.6414
33744SOL    HW2 8094   8.702   0.927   9.480 -0.5758  0.1013 -1.1795
33745SOL     OW 8095   7.115  10.399   6.158  0.0455  0.1467 -0.3634
33745SOL    HW1 8096   7.082  10.329   6.215  0.1043  1.7666  1.8109
33745SOL    HW2 8097   7.051  10.405   6.088 -1.0393 -0.7478  0.5000
33746SOL     OW 8098   5.189   4.032   5.688  0.1383 -0.0055  0.3856
33746SOL    HW1 8099   5.103   4.058   5.722  0.5466  2.7983 -0.4791
33746SOL    HW2 8100   5.244   4.108   5.701  1.7189 -0.7014 -1.7088
33747SOL     OW 8101  11.741   4.537   5.467 -0.1213 -0.5096  0.1572
33747SOL    HW1 8102  11.674   4.552   5.533  1.5124 -0.9480  1.9842
33747SOL    HW2 8103  11.724   4.604   5.400 -1.1923  0.6274  1.5092
33748SOL     OW 8104   7.276   1.998  11.953  0.1552 -0.2142  0.4603
33748SOL    HW1 8105   7.318   2.075  11.991 -0.9960  1.5531 -1.5961
33748SOL    HW2 8106   7.252   2.025  11.864 -1.5730 -2.4866  0.1256
33749SOL     OW 8107  11.679   1.730   5.759  0.9149  0.2300 -0.2317
33749SOL    HW1 8108  11.675   1.823   5.782 -1.3520  0.8360 -2.6174
33749SOL    HW2 8109  11.616   1.689   5.817 -0.3324  0.7397 -1.1835
33750SOL     OW 8110   7.907   0.051   9.464  0.1271  0.1055  0.3159
33750SOL    HW1 8111   7.882  -0.016   9.400 -1.2781 -0.5145  1.4500
33750SOL    HW2 8112   7.969   0.007   9.521  0.2811  0.2089  0.2271
33751SOL     OW 8113   2.049   9.789   7.402  0.4568  0.5772 -0.1385
33751SOL    HW1 8114   2.108   9.770   7.330 -0.7243 -0.9569 -0.7406
33751SOL    HW2 8115   1.988   9.854   7.366 -0.5820 -0.7202 -0.8187
33752SOL     OW 8116   5.579   2.331   2.130  0.2240 -0.1414 -0.3780
33752SOL    HW1 8117   5.535   2.270   2.189  0.3674  0.5473  0.4654
33752SOL    HW2 8118   5.613   2.400   2.187  0.5519  0.4414 -1.2460
33753SOL     OW 8119   8.762  12.138  11.669  0.0578 -0.4673  0.3034
33753SOL    HW1 8120   8.840  12.091  11.698  0.2377 -0.1854  0.2810
33753SOL    HW2 8121   8.705  12.069  11.632  0.3109 -0.6692  0.2834
33754SOL     OW 8122   8.954   5.718   1.721  0.0850 -0.3951  0.1151
33754SOL    HW1 8123   8.952   5.624   1.703 -1.7373 -0.4536  0.3756
33754SOL    HW2 8124   8.881   5.753   1.669 -0.3461  0.5879  1.3448
33755SOL     OW 8125  11.060   3.451   2.433 -0.0526 -0.3860 -0.7451
33755SOL    HW1 8126  11.154   3.440   2.413 -0.2203 -1.4317 -1.0039
33755SOL    HW2 8127  11.028   3.362   2.445 -1.1584 -0.0782 -1.3164
33756SOL     OW 8128   8.376   9.950   4.588 -0.0984  0.1460 -0.1587
33756SOL    HW1 8129   8.343  10.038   4.602  0.1213  0.0490  1.1511
33756SOL    HW2 8130   8.329   9.896   4.652  0.5498 -0.4816 -0.1923
33757SOL     OW 8131  10.435   5.756   1.392 -0.4124  0.2322 -0.3141
33757SOL    HW1 8132  10.517   5.806   1.400  0.3949 -1.0027 -0.6276
33757SOL    HW2 8133  10.461   5.674   1.351 -2.2367  0.8858 -3.0119
33758SOL     OW 8134   9.670   0.834   5.424  0.1337 -0.3809 -0.2878
33758SOL    HW1 8135   9.745   0.825   5.482  0.5164 -2.0197 -0.9889
33758SOL    HW2 8136   9.608   0.888   5.473  0.0474 -2.4424  2.0566
33759SOL     OW 8137   1.183   8.819   4.950  0.1979  0.1191  0.1417
33759SOL    HW1 8138   1.153   8.728   4.945  1.4048 -0.2648 -0.7370
33759SOL    HW2 8139   1.272   8.813   4.985 -0.1959  1.0994  1.3820
33760SOL     OW 8140  12.356  10.730  11.375 -0.4072 -0.3667 -0.2730
33760SOL    HW1 8141  12.341  10.643  11.336 -1.7806 -0.4448  0.3817
33760SOL    HW2 8142  12.381  10.785  11.301 -0.3824 -1.1131 -0.8369
33761SOL     OW 8143   4.595   0.451  10.184  0.5444  0.3174  0.1301
33761SOL    HW1 8144   4.615   0.363  10.151  1.4309  1.3069 -2.2484
33761SOL    HW2 8145   4.505   0.468  10.155 -0.6486 -0.7381  2.9355
33762SOL     OW 8146  11.091   4.147   2.512 -0.5377  0.0305 -0.2173
33762SOL    HW1 8147  11.086   4.153   2.608 -0.2418 -0.6464 -0.1583
33762SOL    HW2 8148  11.073   4.055   2.493  0.6308 -0.0952 -0.7378
33763SOL     OW 8149   9.791   0.257   9.766  0.2248  0.4849  0.4425
33763SOL    HW1 8150   9.720   0.287   9.823 -2.0411 -0.8878 -1.4314
33763SOL    HW2 8151   9.840   0.336   9.744 -1.4783  1.7169  0.8802
33764SOL     OW 8152  11.723   8.565   7.676 -0.7001 -0.0530  0.2714
33764SOL    HW1 8153  11.637   8.568   7.633 -0.7198 -1.5171  0.1638
33764SOL    HW2 8154  11.785   8.592   7.608 -0.9488 -0.2944 -0.0514
33765SOL     OW 8155   5.018  10.775   5.269  0.2550 -0.0719 -0.0673
33765SOL    HW1 8156   4.943  10.835   5.271  0.1048 -0.2699  0.4181
33765SOL    HW2 8157   4.982  10.692   5.301  0.3217 -0.5819 -1.2810
33766SOL     OW 8158   0.574  10.628   4.953  0.5096 -0.3485  0.0400
33766SOL    HW1 8159   0.611  10.703   4.999 -1.4734 -1.2571  3.4162
33766SOL    HW2 8160   0.518  10.667   4.886  2.4512  1.0437 -0.9029
33767SOL     OW 8161   8.185   9.964  11.937  0.7972  0.4400  0.2822
33767SOL    HW1 8162   8.238  10.027  11.888  0.4831  0.8221  0.4324
33767SOL    HW2 8163   8.241   9.938  12.010  0.9783  0.4392  0.1456
33768SOL     OW 8164   1.679   1.862   1.355  0.5558  0.2606  0.3548
33768SOL    HW1 8165   1.604   1.834   1.407  1.2030 -0.9548  0.6601
33768SOL    HW2 8166   1.680   1.957   1.365  0.8697  0.0651  2.8963
33769SOL     OW 8167   9.770   3.302  11.509 -0.3900  0.0204  0.3153
33769SOL    HW1 8168   9.827   3.337  11.577  2.1290  1.9618 -2.5094
33769SOL    HW2 8169   9.713   3.375  11.484 -2.1017 -1.0061  1.0224
33770SOL     OW 8170   9.072   7.933   3.113  0.0495  0.2162  0.1675
33770SOL    HW1 8171   9.107   7.926   3.024 -0.7626  1.0750 -0.2364
33770SOL    HW2 8172   9.138   7.984   3.161  0.6857 -0.6029  0.1767
33771SOL     OW 8173   2.280   4.617   1.645  0.5282  0.5400 -0.4292
33771SOL    HW1 8174   2.322   4.666   1.716  0.2554  0.1855 -0.0130
33771SOL    HW2 8175   2.188   4.614   1.670  0.8108 -1.8715  0.6098
33772SOL     OW 8176   6.803   7.807   0.961 -0.1255  0.1679  0.4310
33772SOL    HW1 8177   6.751   7.848   0.892  1.5740 -0.7384 -1.4880
33772SOL    HW2 8178   6.851   7.879   1.001 -1.6083  0.7920  1.1602
33773SOL     OW 8179   3.073  10.278   5.208  0.2222  0.2081  0.3415
33773SOL    HW1 8180   3.017  10.344   5.167 -0.0238  0.3008  0.8132
33773SOL    HW2 8181   3.153  10.278   5.155  0.8487  1.9821  1.1962
33774SOL     OW 8182   8.655   1.826   3.545  0.0455 -0.4701 -0.0219
33774SOL    HW1 8183   8.681   1.825   3.637 -0.1170 -0.8762  0.0182
33774SOL    HW2 8184   8.592   1.898   3.539  0.1917 -0.3245  0.1458
33775SOL     OW 8185  11.930  11.172   3.676  0.5263 -0.3259  0.1833
33775SOL    HW1 8186  11.928  11.077   3.667  0.2155 -0.0692 -4.0647
33775SOL    HW2 8187  12.012  11.198   3.634  0.3954  1.3448  0.8973
33776SOL     OW 8188   9.585   5.205  10.916 -0.1423  0.3510  0.0827
33776SOL    HW1 8189   9.581   5.110  10.907  0.4941  0.3981 -0.7964
33776SOL    HW2 8190   9.564   5.239  10.829  0.5510  0.9810  0.1534
33777SOL     OW 8191   5.020   3.281  11.207 -0.0755 -0.0768 -0.2048
33777SOL    HW1 8192   5.080   3.309  11.276 -0.8324  0.1729  0.3653
33777SOL    HW2 8193   5.063   3.204  11.168  0.6280  0.1171  0.1597
33778SOL     OW 8194   0.511   5.092   3.960 -0.2604  0.7047 -0.4038
33778SOL    HW1 8195   0.458   5.159   4.004  0.1294  0.5685  0.2763
33778SOL    HW2 8196   0.499   5.111   3.866 -2.8258 -0.3119 -0.3748
33779SOL     OW 8197   5.728   8.261   0.350 -0.1847 -0.1402 -0.0948
33779SOL    HW1 8198   5.778   8.341   0.330  1.3728 -0.8500  0.7553
33779SOL    HW2 8199   5.693   8.233   0.266 -2.1756  2.2765 -0.2166
33780SOL     OW 8200   8.523   1.956   1.235 -0.4734  0.2358  0.0432
33780SOL    HW1 8201   8.476   2.006   1.168 -0.2818  0.0083 -0.2635
33780SOL    HW2 8202   8.610   1.943   1.198 -0.8425 -1.2828 -0.3789
33781SOL     OW 8203   7.817   2.992   0.195  0.7379 -0.5659  0.0137
33781SOL    HW1 8204   7.846   3.069   0.245 -0.6605 -0.4243  0.6509
33781SOL    HW2 8205   7.855   3.004   0.109  0.8323  0.6758  0.2107
33782SOL     OW 8206   9.775   7.035  11.500  0.1694 -0.6260  0.5897
33782SOL    HW1 8207   9.815   6.957  11.460  0.8453  0.3955 -0.8598
33782SOL    HW2 8208   9.842   7.103  11.490 -0.9171  0.4741  0.5563
33783SOL     OW 8209   8.913  10.372   3.273 -0.4698  0.0714 -0.2462
33783SOL    HW1 8210   8.912  10.290   3.322 -0.6912  0.8666  1.1136
33783SOL    HW2 8211   8.849  10.359   3.204 -0.6430 -0.8278  0.0691
33784SOL     OW 8212   2.656   5.482   5.578 -0.2680  0.2768 -0.0561
33784SOL    HW1 8213   2.648   5.556   5.517 -0.7532  0.2361 -0.0479
33784SOL    HW2 8214   2.616   5.514   5.659  1.6467  0.8441  0.7196
33785SOL     OW 8215   6.051   9.779   6.210  0.6334 -0.7294 -0.0773
33785SOL    HW1 8216   6.116   9.761   6.278  0.6838 -1.1143 -0.2284
33785SOL    HW2 8217   5.967   9.776   6.256  0.6285 -1.4853 -0.1229
33786SOL     OW 8218   7.578   9.847   6.864  0.3155 -0.0499 -0.2143
33786SOL    HW1 8219   7.550   9.764   6.903  2.6804 -0.8926 -0.1524
33786SOL    HW2 8220   7.501   9.877   6.816 -0.6345 -2.2603 -0.2298
33787SOL     OW 8221   8.701   1.073   1.760  0.2069 -0.0104  0.3560
33787SOL    HW1 8222   8.738   1.033   1.838  1.3395  0.1245 -0.0963
33787SOL    HW2 8223   8.606   1.064   1.771  0.2860  1.2203  2.3776
33788SOL     OW 8224   5.898   7.587   7.352  0.2190 -0.2182 -0.5836
33788SOL    HW1 8225   5.945   7.525   7.296 -0.1161 -0.2040 -0.8822
33788SOL    HW2 8226   5.965   7.649   7.380  0.1799  0.4981 -1.9704
33789SOL     OW 8227   3.199  10.120   6.122 -0.1209 -0.4544 -0.0561
33789SOL    HW1 8228   3.218  10.197   6.176  0.8464 -0.0814 -0.8755
33789SOL    HW2 8229   3.104  10.108   6.130 -0.6432  1.9835 -1.3366
33790SOL     OW 8230   7.437   0.620   4.009 -0.5990  0.3868 -0.2868
33790SOL    HW1 8231   7.469   0.533   3.987  0.4589  0.5879  0.3794
33790SOL    HW2 8232   7.481   0.678   3.947 -1.0018  0.4964 -0.4750
33791SOL     OW 8233   5.688  12.443   4.922  0.4153  0.6229  0.6253
33791SOL    HW1 8234   5.671  12.434   5.016 -3.1938 -1.2888 -0.0477
33791SOL    HW2 8235   5.726  12.359   4.896  1.4849  1.1752  0.3205
33792SOL     OW 8236   3.326   1.296   9.986 -0.2980  0.2803  0.0020
33792SOL    HW1 8237   3.245   1.246   9.975 -1.2534  1.7540 -0.0256
33792SOL    HW2 8238   3.305   1.383   9.950  0.7795  1.1618  1.3920
33793SOL     OW 8239  12.406   4.948   0.276  0.5904 -0.5068  0.1062
33793SOL    HW1 8240  12.354   4.882   0.231 -0.3203 -0.3190  0.8397
33793SOL    HW2 8241  12.365   4.956   0.362  1.4237  0.1469  0.4569
33794SOL     OW 8242   3.554  11.681   2.253  0.3050  0.2560  0.3458
33794SOL    HW1 8243   3.576  11.751   2.191  2.5656  1.8709  2.7559
33794SOL    HW2 8244   3.600  11.604   2.219  1.6502  1.1527  0.0318
33795SOL     OW 8245  10.459   6.639  10.025  0.1412 -0.4032 -0.3644
33795SOL    HW1 8246  10.415   6.561   9.992  0.0255 -0.0394 -1.0909
33795SOL    HW2 8247  10.390   6.705  10.029  0.4477 -0.0542 -0.7542
33796SOL     OW 8248   9.962   3.731   8.749  0.2511  0.2487 -0.9319
33796SOL    HW1 8249  10.039   3.673   8.757  1.3282  1.5870 -1.2821
33796SOL    HW2 8250   9.937   3.724   8.657 -1.2340 -1.6062 -0.4389
33797SOL     OW 8251  10.208  11.256   7.597 -0.1775 -0.3774 -0.4455
33797SOL    HW1 8252  10.268  11.184   7.578 -0.2020  0.3366 -3.8842
33797SOL    HW2 8253  10.121  11.220   7.580 -1.1540 -1.6172  5.1571
33798SOL     OW 8254   7.655   6.896   8.757  0.3679 -0.1356 -0.2550
33798SOL    HW1 8255   7.600   6.901   8.835  0.5257  0.8286 -0.1992
33798SOL    HW2 8256   7.649   6.804   8.730 -1.5213 -0.0118 -0.4301
33799SOL     OW 8257   0.016   6.140   9.445 -0.0535  0.1663  0.0149
33799SOL    HW1 8258   0.104   6.176   9.461  1.6814 -3.4417 -0.2275
33799SOL    HW2 8259  -0.024   6.136   9.532  0.3120  1.1297  0.2459
33800SOL     OW 8260   3.016   8.479  10.415 -0.4038 -0.5174  0.4128
33800SOL    HW1 8261   2.941   8.528  10.380  0.2120  0.6404  0.6744
33800SOL    HW2 8262   3.043   8.423  10.343 -0.4705  0.3012 -0.2687
33801SOL     OW 8263   1.407   0.049  10.807 -0.0393 -0.8824  0.0193
33801SOL    HW1 8264   1.391   0.143  10.808  2.2115 -0.4251 -0.7447
33801SOL    HW2 8265   1.445   0.031  10.893  0.5417 -0.8661 -0.2283
33802SOL     OW 8266   9.644   0.051  10.640  0.3611  0.0027  0.1062
33802SOL    HW1 8267   9.707   0.082  10.576  1.4593 -1.2041  0.5701
33802SOL    HW2 8268   9.671   0.092  10.722 -0.9509  1.4256 -0.1070
33803SOL     OW 8269   3.043   4.177   1.007 -0.1437 -0.1476 -0.6447
33803SOL    HW1 8270   2.950   4.176   0.984 -0.1876 -2.2977 -0.5963
33803SOL    HW2 8271   3.068   4.270   1.004 -2.4781  0.5743  0.1569
33804SOL     OW 8272   3.087   5.430  11.368  0.0137 -0.2478  0.1031
33804SOL    HW1 8273   3.002   5.410  11.407  0.6043  1.3414  2.3996
33804SOL    HW2 8274   3.067   5.445  11.276 -1.9654 -1.2365  0.3028
33805SOL     OW 8275   1.126   7.316   6.387  0.3407 -0.2838 -0.2761
33805SOL    HW1 8276   1.170   7.399   6.400  1.5459 -0.8772 -0.4628
33805SOL    HW2 8277   1.052   7.318   6.447  1.0986  0.3895  0.6529
33806SOL     OW 8278  11.607   5.026   6.717 -1.0066 -0.4232 -0.1632
33806SOL    HW1 8279  11.680   4.964   6.715 -1.1447 -0.5807 -0.4289
33806SOL    HW2 8280  11.610   5.065   6.804  1.4189  1.9899 -1.1701
33807SOL     OW 8281   3.675  10.213   3.116  0.2828  0.1784 -0.1025
33807SOL    HW1 8282   3.712  10.300   3.126  1.4149 -0.0364 -1.9068
33807SOL    HW2 8283   3.647  10.210   3.024 -1.8191 -0.6013  0.4992
33808SOL     OW 8284   5.693   0.293   4.685 -0.2391 -0.0572  0.1844
33808SOL    HW1 8285   5.614   0.345   4.692 -0.0009  0.3301  0.0491
33808SOL    HW2 8286   5.746   0.339   4.620  0.1929 -0.1848  0.4422
33809SOL     OW 8287   1.606   5.417   3.813  0.1596  0.2712  0.0003
33809SOL    HW1 8288   1.548   5.436   3.740  0.2728  0.3159 -0.0781
33809SOL    HW2 8289   1.676   5.363   3.775 -0.2524 -0.4680  0.2537
33810SOL     OW 8290  10.198   1.077   0.207 -0.4072  0.4353 -0.4151
33810SOL    HW1 8291  10.276   1.028   0.234 -1.6352 -0.0958  2.4753
33810SOL    HW2 8292  10.216   1.167   0.234 -0.8284  0.2885  0.3685
33811SOL     OW 8293   7.865   1.797   6.433 -0.1467 -0.0934  0.1142
33811SOL    HW1 8294   7.862   1.722   6.492 -2.2291  1.0457  1.5680
33811SOL    HW2 8295   7.931   1.773   6.368  2.1908 -1.4874  2.7583
33812SOL     OW 8296  10.323   3.913   1.807 -0.1220 -0.2887 -0.4164
33812SOL    HW1 8297  10.319   4.006   1.783 -1.4487 -0.1722  0.1418
33812SOL    HW2 8298  10.286   3.867   1.732 -0.6478 -0.2426 -0.1950
33813SOL     OW 8299  11.551  10.049  11.964  0.2386 -0.4056 -0.3211
33813SOL    HW1 8300  11.532  10.142  11.970 -0.3281 -0.6125  1.6882
33813SOL    HW2 8301  11.643  10.045  11.936  0.3363  0.7436 -0.1850
33814SOL     OW 8302  10.861  12.400  11.091  0.3282  0.1507  0.1864
33814SOL    HW1 8303  10.900  12.337  11.152  0.0950 -1.3731 -1.1615
33814SOL    HW2 8304  10.909  12.386  11.009  0.0545  1.5378 -0.2214
33815SOL     OW 8305   6.482   9.603   1.390 -0.5976 -0.5672  0.4354
33815SOL    HW1 8306   6.390   9.601   1.413 -0.5157  1.3439  1.0536
33815SOL    HW2 8307   6.520   9.671   1.445  1.1044 -1.0155 -0.1049
33816SOL     OW 8308   1.684   3.723   9.136 -0.2627  0.1933 -0.4774
33816SOL    HW1 8309   1.618   3.764   9.192 -0.4505  1.2113 -1.4287
33816SOL    HW2 8310   1.758   3.784   9.137  0.1124 -0.2556 -0.5596
33817SOL     OW 8311   3.960   8.966   8.504 -0.5813  0.2292 -0.2874
33817SOL    HW1 8312   4.008   9.046   8.484 -1.3445  0.3723 -1.6034
33817SOL    HW2 8313   3.880   8.996   8.547 -0.4818  0.1132 -0.0168
33818SOL     OW 8314   4.646   0.100   8.598 -0.5741  0.9202  0.4252
33818SOL    HW1 8315   4.608   0.018   8.564  1.3748  0.5184 -0.9834
33818SOL    HW2 8316   4.616   0.167   8.537  2.4098  0.2913 -2.0362
33819SOL     OW 8317  10.098   1.341   2.037  0.1954 -0.2022 -0.1935
33819SOL    HW1 8318  10.131   1.383   2.117  0.4815  1.4105 -1.1118
33819SOL    HW2 8319  10.003   1.338   2.049 -0.0444  2.4132 -0.8177
33820SOL     OW 8320   9.395   6.448  10.977  0.1625  0.3389  0.2789
33820SOL    HW1 8321   9.312   6.492  10.955 -0.2100 -0.8993 -0.9223
33820SOL    HW2 8322   9.389   6.431  11.071 -0.3823  1.4023  0.4495
33821SOL     OW 8323   0.420   7.342  10.052  0.5469  0.2071  0.1297
33821SOL    HW1 8324   0.431   7.262  10.000 -0.2867 -1.2310  2.0593
33821SOL    HW2 8325   0.378   7.313  10.133  0.8817  2.5071  1.2149
33822SOL     OW 8326   8.321   5.154   9.447 -0.3570 -0.1575 -0.4584
33822SOL    HW1 8327   8.297   5.061   9.450 -0.6913 -0.0567  0.4773
33822SOL    HW2 8328   8.238   5.201   9.454 -0.1016  0.2013  0.2879
33823SOL     OW 8329   6.828   6.079   2.438 -0.0617  0.4761 -0.5230
33823SOL    HW1 8330   6.813   6.110   2.527  1.0551  0.0180 -0.1580
33823SOL    HW2 8331   6.829   6.159   2.384  1.8223  1.0207  0.2556
33824SOL     OW 8332   0.621   9.466   0.930  0.1988  0.0584  0.7474
33824SOL    HW1 8333   0.669   9.506   1.002 -0.8862 -0.7406  1.9588
33824SOL    HW2 8334   0.654   9.376   0.925 -0.2693 -0.1192  0.7676
33825SOL     OW 8335   1.320   9.339  10.683  0.0750 -0.0003  0.2799
33825SOL    HW1 8336   1.370   9.320  10.763 -0.1579  2.8098  1.2267
33825SOL    HW2 8337   1.385   9.377  10.623 -0.1366 -0.2158 -0.0838
33826SOL     OW 8338  11.109  12.393   4.787 -0.7219  0.1596  0.3275
33826SOL    HW1 8339  11.030  12.404   4.735 -0.8659  0.2768  0.5677
33826SOL    HW2 8340  11.101  12.306   4.826  0.1535 -0.6058 -1.1316
33827SOL     OW 8341   9.010   9.739   5.735 -0.0156 -0.5544  0.0503
33827SOL    HW1 8342   8.981   9.690   5.812  1.3482  0.9770  1.6130
33827SOL    HW2 8343   9.004   9.830   5.761  1.1249 -0.0226 -1.4326
33828SOL     OW 8344   6.803   3.486   4.706 -0.0884 -0.2142 -0.0769
33828SOL    HW1 8345   6.774   3.412   4.759  0.7693  0.2915  1.1571
33828SOL    HW2 8346   6.845   3.545   4.769 -0.7920  1.3555 -1.0059
33829SOL     OW 8347  11.270  10.170   2.980 -0.2019 -0.2522 -0.1174
33829SOL    HW1 8348  11.322  10.089   2.983  0.6715  0.3284  1.1582
33829SOL    HW2 8349  11.179  10.139   2.969  0.2696 -1.3172 -1.2999
33830SOL     OW 8350   5.611   0.687   1.803  0.1034 -0.2146 -0.3590
33830SOL    HW1 8351   5.636   0.778   1.788 -2.0951  0.4581 -0.2767
33830SOL    HW2 8352   5.694   0.643   1.825  1.3832  1.4947 -1.4695
33831SOL     OW 8353   1.004   6.936   0.120  0.2698  0.3606  0.4803
33831SOL    HW1 8354   0.989   6.960   0.028 -0.8030  0.8001  0.7591
33831SOL    HW2 8355   1.099   6.938   0.130  0.4929 -1.0019 -0.9611
33832SOL     OW 8356   4.021   4.921   1.785 -0.0610  0.1002  0.3353
33832SOL    HW1 8357   4.047   4.873   1.864 -0.8178  0.2061  0.6559
33832SOL    HW2 8358   4.058   4.870   1.713 -0.1623 -0.5145  0.7093
33833SOL     OW 8359   2.229   9.367   8.204  0.1183 -0.1221 -0.3626
33833SOL    HW1 8360   2.208   9.386   8.113 -1.6467  0.4324  0.1313
33833SOL    HW2 8361   2.264   9.449   8.239  1.7278 -0.6008 -0.7573
33834SOL     OW 8362  11.132   6.765   5.330 -0.3928 -0.4570  0.1173
33834SOL    HW1 8363  11.210   6.791   5.378 -0.0479 -0.7614 -0.2748
33834SOL    HW2 8364  11.116   6.836   5.268 -1.1111  0.1578  0.9895
33835SOL     OW 8365   5.041  12.135   7.563 -0.0592 -0.5060  0.2557
33835SOL    HW1 8366   5.124  12.110   7.522 -0.3846 -1.5215  0.1896
33835SOL    HW2 8367   5.064  12.154   7.654  0.4471  0.4536 -0.0615
33836SOL     OW 8368   6.300   8.613   9.216 -0.0433 -0.1633  0.0543
33836SOL    HW1 8369   6.378   8.645   9.172  0.4177 -1.2550  0.0277
33836SOL    HW2 8370   6.331   8.542   9.273 -1.0796 -1.1244 -0.5084
33837SOL     OW 8371   7.543  11.886   7.203 -0.5637  0.3857  0.0435
33837SOL    HW1 8372   7.494  11.912   7.124 -2.1612 -0.7249  0.6073
33837SOL    HW2 8373   7.560  11.967   7.249  0.4792  1.0688 -1.4790
33838SOL     OW 8374   3.725   4.081  12.410 -1.0165 -0.0913  0.0158
33838SOL    HW1 8375   3.646   4.069  12.357 -2.4374 -0.7369  2.1282
33838SOL    HW2 8376   3.691   4.102  12.497  1.1797  4.0499  0.1268
33839SOL     OW 8377   6.664   5.625   0.104 -0.2010  0.1433  0.3580
33839SOL    HW1 8378   6.591   5.564   0.112 -0.4427  0.3563 -0.1483
33839SOL    HW2 8379   6.666   5.648   0.011 -1.0808  2.0397  0.7442
33840SOL     OW 8380   1.520   5.561  11.287 -0.4119  0.5214  0.1196
33840SOL    HW1 8381   1.606   5.539  11.250 -0.2750  0.3054  0.5565
33840SOL    HW2 8382   1.507   5.653  11.266  1.4484  1.5447  2.9327
33841SOL     OW 8383   2.666   2.374  11.623  0.4044 -0.1900  0.0752
33841SOL    HW1 8384   2.634   2.465  11.617 -0.4792 -0.4604  0.4811
33841SOL    HW2 8385   2.664   2.355  11.717  1.0589 -0.4662  0.0331
33842SOL     OW 8386   0.466   2.405   4.758 -0.5400  0.7218 -0.7573
33842SOL    HW1 8387   0.429   2.328   4.802 -1.3914  1.7776  0.4486
33842SOL    HW2 8388   0.402   2.428   4.692  0.7859 -0.9236 -2.7505
33843SOL     OW 8389   3.323  11.416  10.974 -0.1343  0.1146  0.7512
33843SOL    HW1 8390   3.278  11.482  11.027 -1.0650  0.6114 -0.6041
33843SOL    HW2 8391   3.266  11.403  10.899  2.1264  1.0956 -1.2847
33844SOL     OW 8392   1.087   9.792   7.723 -0.1764  0.3477 -0.2066
33844SOL    HW1 8393   1.001   9.810   7.761 -0.1354 -3.3144  2.0658
33844SOL    HW2 8394   1.067   9.750   7.638 -0.4385  2.4974 -1.2713
33845SOL     OW 8395  11.689  11.048   1.485  0.2471  0.0704 -0.2396
33845SOL    HW1 8396  11.747  10.986   1.442  1.2923  0.7057  0.2030
33845SOL    HW2 8397  11.745  11.123   1.504 -1.1783  1.5342 -1.5543
33846SOL     OW 8398   9.272   0.158   0.307  0.3344 -0.1639 -0.4023
33846SOL    HW1 8399   9.342   0.094   0.324  1.0019  0.5097 -0.5749
33846SOL    HW2 8400   9.314   0.243   0.320 -0.6794  0.2441  0.3592
33847SOL     OW 8401   1.757   8.059   6.707  0.1581 -0.4335  0.1432
33847SOL    HW1 8402   1.837   8.047   6.656  0.3091 -0.3766  0.3620
33847SOL    HW2 8403   1.686   8.055   6.643  0.4625  1.9258 -0.4213
33848SOL     OW 8404   5.255   2.367   0.942 -0.8051  0.3152 -0.1351
33848SOL    HW1 8405   5.264   2.351   0.848 -1.9079 -0.4220 -0.1373
33848SOL    HW2 8406   5.203   2.292   0.973 -2.3433  1.6620  0.6681
33849SOL     OW 8407  11.281   6.260   6.350  0.5751  0.0767 -0.1834
33849SOL    HW1 8408  11.283   6.349   6.317 -2.4451 -0.5071 -2.3871
33849SOL    HW2 8409  11.228   6.265   6.429  0.4675  0.2469 -0.2668
33850SOL     OW 8410   3.785  11.705  12.218  0.0114 -0.4907  0.5132
33850SOL    HW1 8411   3.731  11.660  12.153 -0.1226  0.0250  0.2602
33850SOL    HW2 8412   3.732  11.702  12.298 -0.0984 -0.5775  0.4392
33851SOL     OW 8413   7.723   3.094   9.592 -0.6636  0.3156  0.2988
33851SOL    HW1 8414   7.806   3.062   9.555 -0.3872  0.8897  0.4197
33851SOL    HW2 8415   7.682   3.015   9.629 -0.3114 -0.0242 -0.0230
33852SOL     OW 8416   7.594   2.490   3.947 -0.1080 -0.0976  0.0508
33852SOL    HW1 8417   7.517   2.542   3.924 -0.5805 -1.2030 -0.9181
33852SOL    HW2 8418   7.620   2.447   3.866  1.0918 -0.3296  0.5323
33853SOL     OW 8419   2.653   4.930   0.402 -0.0769 -0.2543  0.3557
33853SOL    HW1 8420   2.701   4.860   0.444  2.2514  0.5242 -0.8385
33853SOL    HW2 8421   2.706   5.009   0.416 -2.1330  1.1389  0.8699
33854SOL     OW 8422  10.992  10.581   2.091 -0.0812  0.3313  0.0961
33854SOL    HW1 8423  10.934  10.545   2.158 -1.3993 -0.6247 -1.4825
33854SOL    HW2 8424  10.933  10.627   2.031  1.1063  1.4483 -0.2589
33855SOL     OW 8425   7.836  10.786  11.664  0.4692  0.4749 -0.4058
33855SOL    HW1 8426   7.746  10.754  11.655  0.7881 -0.1950 -1.5326
33855SOL    HW2 8427   7.862  10.760  11.752  0.3396 -1.5029 -0.8847
33856SOL     OW 8428  10.374   4.866  11.085  0.3216  0.1459 -0.0308
33856SOL    HW1 8429  10.341   4.897  11.000  1.0224  1.6460  0.2074
33856SOL    HW2 8430  10.431   4.937  11.116  2.5926 -1.6937  0.2598
33857SOL     OW 8431   8.868   4.838   3.542  0.1104  0.2048 -0.1134
33857SOL    HW1 8432   8.877   4.819   3.448 -1.5963 -0.1297 -0.2305
33857SOL    HW2 8433   8.818   4.919   3.546 -0.6003 -0.2528  0.5137
33858SOL     OW 8434   4.047   8.415   5.323 -0.1515 -0.9742 -0.2466
33858SOL    HW1 8435   4.093   8.452   5.247  1.1027 -3.1347 -0.6396
33858SOL    HW2 8436   4.067   8.474   5.395 -0.1880  0.3505 -1.2761
33859SOL     OW 8437  11.100   9.052   7.785  0.3423  0.7580 -0.0861
33859SOL    HW1 8438  11.007   9.065   7.807  0.4078  0.2815  0.4995
33859SOL    HW2 8439  11.141   9.028   7.868  0.6416 -0.8887 -0.6734
33860SOL     OW 8440  11.006   0.616   6.085 -0.1065 -0.2015 -0.0494
33860SOL    HW1 8441  10.974   0.561   6.157 -0.2561 -0.4541 -0.3083
33860SOL    HW2 8442  10.930   0.667   6.058  0.1871  0.6301  0.6296
33861SOL     OW 8443  11.310   3.823  12.107 -0.1576  0.0535 -0.2526
33861SOL    HW1 8444  11.404   3.815  12.124 -0.5640 -1.6637  1.6426
33861SOL    HW2 8445  11.288   3.912  12.133  0.7953  0.1599  0.2077
33862SOL     OW 8446   0.777   5.501   6.725 -0.5459  0.0385 -0.0510
33862SOL    HW1 8447   0.799   5.472   6.813  0.9270  0.5539 -0.2266
33862SOL    HW2 8448   0.789   5.596   6.726 -4.1832  0.6332  0.1851
33863SOL     OW 8449  11.827   3.543  10.123  0.1441 -0.5289  0.2957
33863SOL    HW1 8450  11.735   3.546  10.098 -0.0634  1.5537  1.1391
33863SOL    HW2 8451  11.851   3.634  10.141  2.4534 -0.9726 -0.1673
33864SOL     OW 8452   6.375   2.787  11.748  0.7367  0.1594 -0.0682
33864SOL    HW1 8453   6.470   2.788  11.747  0.8016 -0.1454  1.7380
33864SOL    HW2 8454   6.352   2.694  11.745  0.4307  0.2540 -1.5684
33865SOL     OW 8455   7.968   5.310   0.340 -0.3917 -0.3277  0.1718
33865SOL    HW1 8456   7.995   5.367   0.268 -0.6227 -0.2057  0.1841
33865SOL    HW2 8457   7.975   5.221   0.303  1.8262 -0.4429  0.7283
33866SOL     OW 8458   2.450   5.582   6.029 -0.5312  0.3218  0.1527
33866SOL    HW1 8459   2.399   5.562   6.107 -0.0277 -1.1604  0.1227
33866SOL    HW2 8460   2.411   5.663   5.995 -0.6433  1.0868  2.0090
33867SOL     OW 8461   5.218   6.142   8.219  0.1423  0.3819  0.2595
33867SOL    HW1 8462   5.205   6.233   8.245  0.0210 -0.0589  1.8472
33867SOL    HW2 8463   5.304   6.119   8.253 -1.0337 -0.9404  2.6075
33868SOL     OW 8464   9.294  10.532   5.150 -0.4353 -0.0856  0.6116
33868SOL    HW1 8465   9.377  10.577   5.168  0.0213  0.1956 -1.8031
33868SOL    HW2 8466   9.252  10.584   5.081 -2.1226 -0.8132  1.0380
33869SOL     OW 8467   9.493  10.103   6.932  0.2996  0.1304  0.5913
33869SOL    HW1 8468   9.416  10.059   6.896  0.4439 -0.0937  0.5537
33869SOL    HW2 8469   9.465  10.194   6.944  0.2315  0.1972 -0.0313
33870SOL     OW 8470   4.395   1.648   0.734  0.2110  0.0206 -0.4435
33870SOL    HW1 8471   4.393   1.681   0.824 -0.7349  2.5488 -1.2861
33870SOL    HW2 8472   4.302   1.642   0.709  0.4718 -0.0150 -1.4507
33871SOL     OW 8473  10.429  11.079  11.167 -0.3017 -0.0676  0.1995
33871SOL    HW1 8474  10.411  11.108  11.077 -3.2107  0.1432  0.7528
33871SOL    HW2 8475  10.384  11.143  11.222 -0.8614 -1.6835  1.7078
33872SOL     OW 8476   8.085   1.333   0.792 -0.3774  0.1903  1.0103
33872SOL    HW1 8477   8.159   1.340   0.853  0.7816 -1.0748 -0.1630
33872SOL    HW2 8478   8.020   1.282   0.840 -0.2606  0.8164  1.8554
33873SOL     OW 8479   3.425   5.811   2.448 -0.2983  0.0843 -0.2993
33873SOL    HW1 8480   3.501   5.837   2.397  0.3408 -0.4141  0.3754
33873SOL    HW2 8481   3.365   5.886   2.442  0.4260  0.6622 -0.4789
33874SOL     OW 8482  10.092  10.717   6.444 -0.4362  1.0324  1.0326
33874SOL    HW1 8483  10.007  10.745   6.412 -0.7630  1.3858  2.1557
33874SOL    HW2 8484  10.082  10.715   6.540  0.1246 -1.1530  1.0920
33875SOL     OW 8485   1.730   1.010  10.331 -0.6277 -0.7026  0.1143
33875SOL    HW1 8486   1.800   0.955  10.366 -0.0957  1.0382  2.0287
33875SOL    HW2 8487   1.774   1.090  10.303 -1.7976  0.4034  1.3109
33876SOL     OW 8488   9.929  11.498   4.426 -0.2043 -0.2646 -0.2708
33876SOL    HW1 8489   9.855  11.558   4.432 -1.1482 -1.1297 -2.2281
33876SOL    HW2 8490  10.003  11.553   4.398 -0.0370  0.6168  1.7642
33877SOL     OW 8491  10.397   8.342   1.804 -0.1388 -0.0376 -0.5890
33877SOL    HW1 8492  10.369   8.389   1.883 -1.2359 -0.5077 -0.6728
33877SOL    HW2 8493  10.338   8.267   1.799 -2.5042  1.7789 -3.7355
33878SOL     OW 8494   2.281   4.748   2.308  0.2812 -0.2340  0.4468
33878SOL    HW1 8495   2.277   4.824   2.251 -0.3604 -1.2547 -0.9105
33878SOL    HW2 8496   2.196   4.706   2.300 -0.0440 -0.1257  2.6073
33879SOL     OW 8497   8.793   8.555   4.044 -0.0547 -0.1664  0.0914
33879SOL    HW1 8498   8.887   8.545   4.063 -0.3919  0.6461  2.5045
33879SOL    HW2 8499   8.751   8.552   4.130 -2.0186  1.9151 -0.6995
33880SOL     OW 8500   3.495   9.911   9.371  0.0831 -0.1756  0.1371
33880SOL    HW1 8501   3.498   9.839   9.309  1.4079  1.3107 -1.5979
33880SOL    HW2 8502   3.451   9.982   9.324  0.3234  0.7207  1.2152
33881SOL     OW 8503   0.105  10.789  10.186  0.3110  0.1582  0.2669
33881SOL    HW1 8504   0.109  10.836  10.103  2.8354  1.3765  0.9940
33881SOL    HW2 8505   0.048  10.842  10.241 -0.7498 -0.2456 -0.4206
33882SOL     OW 8506   4.828  10.710   7.029  0.1207 -0.3656  0.0557
33882SOL    HW1 8507   4.878  10.720   7.110 -0.3138  0.2403  0.2570
33882SOL    HW2 8508   4.835  10.617   7.007  0.2513 -0.5316  0.7840
33883SOL     OW 8509  10.858   7.493   2.305 -0.8377 -0.3944  0.5715
33883SOL    HW1 8510  10.950   7.508   2.286 -1.7733  4.8776 -1.3986
33883SOL    HW2 8511  10.849   7.513   2.398 -0.1328 -0.1828  0.5958
33884SOL     OW 8512   2.639  11.628   9.326 -0.0913  0.5425  0.1092
33884SOL    HW1 8513   2.611  11.541   9.352  1.2479  0.3918  1.1883
33884SOL    HW2 8514   2.731  11.632   9.352 -0.2410  2.4303  0.4965
33885SOL     OW 8515   8.634   4.849   8.748  0.4966 -0.3555 -0.4386
33885SOL    HW1 8516   8.654   4.852   8.655  1.5409 -0.3061 -0.2230
33885SOL    HW2 8517   8.551   4.897   8.756  0.6438  0.0577 -1.2678
33886SOL     OW 8518   4.260   9.579   2.025 -0.2198  0.0463  0.2252
33886SOL    HW1 8519   4.214   9.650   2.069 -0.5921 -0.3359  0.4602
33886SOL    HW2 8520   4.261   9.604   1.932 -4.3432 -1.6838 -0.4945
33887SOL     OW 8521  10.962   2.865  12.266 -0.2172  0.5184 -0.3012
33887SOL    HW1 8522  10.939   2.789  12.213  0.7480 -0.1917  0.2516
33887SOL    HW2 8523  10.990   2.931  12.203 -0.9497  0.3721 -0.7847
33888SOL     OW 8524  10.371  11.235   0.816  0.0420  0.9359 -0.3723
33888SOL    HW1 8525  10.403  11.324   0.835  0.6613  0.4234  1.1832
33888SOL    HW2 8526  10.444  11.192   0.772  1.7246 -0.2217  3.1392
33889SOL     OW 8527  11.479   8.239  12.145  0.1749 -0.9519  0.5321
33889SOL    HW1 8528  11.519   8.325  12.130 -2.6110  0.3298 -0.0867
33889SOL    HW2 8529  11.483   8.228  12.240 -0.4813  0.4267  0.7415
33890SOL     OW 8530   2.861   6.725   9.436 -0.3608  0.0820  0.4891
33890SOL    HW1 8531   2.771   6.701   9.456 -1.7714  2.0363 -2.6800
33890SOL    HW2 8532   2.869   6.816   9.467 -0.7789  1.1655 -2.2540
33891SOL     OW 8533   8.853   5.462   3.628  0.0122  0.2713  0.1221
33891SOL    HW1 8534   8.887   5.483   3.541 -2.2973  2.5971 -0.3453
33891SOL    HW2 8535   8.761   5.439   3.613 -0.0570 -0.6610  1.8089
33892SOL     OW 8536   4.952   1.422   1.842 -0.4950 -0.5940 -0.4551
33892SOL    HW1 8537   5.030   1.476   1.855 -1.4041  0.5425  0.6190
33892SOL    HW2 8538   4.883   1.469   1.890 -1.3567 -2.6695  0.4593
33893SOL     OW 8539   5.231   8.582  10.083 -0.3220  0.0842  0.0646
33893SOL    HW1 8540   5.283   8.652  10.043  0.8493 -0.3126  0.8494
33893SOL    HW2 8541   5.179   8.627  10.150  2.1446 -0.0020  2.2309
33894SOL     OW 8542   6.443   6.178   2.813 -0.1833 -0.5070  0.2633
33894SOL    HW1 8543   6.360   6.140   2.785  0.4341 -0.6374 -1.4712
33894SOL    HW2 8544   6.423   6.270   2.832 -1.0860 -0.9679  1.7383
33895SOL     OW 8545   2.936   6.402   5.617  0.8928 -0.3156 -0.1087
33895SOL    HW1 8546   2.873   6.331   5.609  0.1735  0.3095 -0.0915
33895SOL    HW2 8547   2.931   6.430   5.708 -0.1557  0.9296 -0.5071
33896SOL     OW 8548   6.621  11.345   8.183  0.1267 -0.2941 -0.2161
33896SOL    HW1 8549   6.608  11.256   8.214  0.4034  0.7475  3.3292
33896SOL    HW2 8550   6.580  11.400   8.250  1.3814  2.3026 -1.4153
33897SOL     OW 8551   1.786   1.820   8.962  0.3908  0.9928 -0.1778
33897SOL    HW1 8552   1.742   1.783   8.885  0.0436  0.3943  0.2925
33897SOL    HW2 8553   1.855   1.756   8.982  0.3727  1.0637  0.1063
33898SOL     OW 8554   1.178   5.216  11.742  0.3504  0.7023 -0.5839
33898SOL    HW1 8555   1.128   5.196  11.663  0.2276 -1.4098 -0.0356
33898SOL    HW2 8556   1.258   5.165  11.734  0.1510  0.1279  0.8215
33899SOL     OW 8557   2.201   7.949   0.430 -0.1645 -0.7548 -0.0153
33899SOL    HW1 8558   2.159   7.990   0.355  0.6410  0.8999  0.3927
33899SOL    HW2 8559   2.295   7.963   0.417 -0.0242 -0.1480  1.4257
33900SOL     OW 8560  12.284  11.144  10.135 -0.0946 -0.2487 -0.2370
33900SOL    HW1 8561  12.190  11.124  10.138 -0.3047  0.7458  0.7559
33900SOL    HW2 8562  12.292  11.213  10.069 -0.3475  0.8763  0.8606
33901SOL     OW 8563   9.452   6.563  10.088  0.1862  0.5432  0.7146
33901SOL    HW1 8564   9.365   6.546  10.126  1.1007  0.0141  2.6862
33901SOL    HW2 8565   9.513   6.522  10.149  1.9608  2.6970  0.4944
33902SOL     OW 8566   6.495   0.782  10.219  0.1319  0.0662 -0.4460
33902SOL    HW1 8567   6.507   0.874  10.193 -1.7897  0.2427 -0.8289
33902SOL    HW2 8568   6.402   0.766  10.208  0.0897 -1.3839  1.4630
33903SOL     OW 8569   0.808  12.459   1.202  0.2172  0.4049  0.1040
33903SOL    HW1 8570   0.842  12.546   1.181 -1.8441  1.7547  1.9320
33903SOL    HW2 8571   0.738  12.475   1.265 -0.6138 -2.5656  0.0877
33904SOL     OW 8572   3.572  11.161   0.236 -0.0108 -0.5043 -0.2923
33904SOL    HW1 8573   3.591  11.254   0.221  0.6739 -0.4597  0.7465
33904SOL    HW2 8574   3.587  11.119   0.151  0.8779  0.1562 -0.4788
33905SOL     OW 8575   6.734  11.123   7.694 -0.6506  0.1338 -0.3270
33905SOL    HW1 8576   6.819  11.106   7.653 -0.0320  2.0667  0.0124
33905SOL    HW2 8577   6.755  11.183   7.766 -2.2665  0.3467 -0.0009
33906SOL     OW 8578  11.878   9.981   1.756 -0.1628  0.3671  0.1593
33906SOL    HW1 8579  11.968  10.006   1.777 -0.2505  1.9645 -1.1795
33906SOL    HW2 8580  11.825  10.057   1.781 -1.1532 -0.5313  0.8805
33907SOL     OW 8581   5.058  11.867   1.377 -0.0383  0.4786  0.1832
33907SOL    HW1 8582   5.103  11.940   1.420  0.0871  1.2126 -1.1264
33907SOL    HW2 8583   4.974  11.859   1.423  0.7866  0.0695  1.6829
33908SOL     OW 8584   3.204   4.657   7.120  0.2718 -0.3606 -0.1163
33908SOL    HW1 8585   3.279   4.599   7.121  0.2597 -0.3887  1.1853
33908SOL    HW2 8586   3.241   4.745   7.120  0.2861 -0.3297 -1.6290
33909SOL     OW 8587   4.800   1.552   5.343  0.3810 -0.3293  0.3264
33909SOL    HW1 8588   4.808   1.561   5.249 -2.4108 -0.8991 -0.0434
33909SOL    HW2 8589   4.710   1.521   5.357  0.8401 -0.6594  3.1388
33910SOL     OW 8590   6.090  10.981   8.605  0.3419 -0.0993 -0.0867
33910SOL    HW1 8591   6.049  10.942   8.528  2.2484 -2.5173 -0.0054
33910SOL    HW2 8592   6.018  10.993   8.667 -0.9511  0.3163 -1.6032
33911SOL     OW 8593   9.263   8.698   6.868  0.2568 -0.4398  0.3873
33911SOL    HW1 8594   9.322   8.622   6.867  1.2929  0.3320  0.6262
33911SOL    HW2 8595   9.321   8.773   6.882 -0.6191  0.5094 -0.8402
33912SOL     OW 8596  11.447   9.208  12.024  0.1902 -0.2479  0.0219
33912SOL    HW1 8597  11.482   9.151  11.955  2.1117  0.9714 -0.0784
33912SOL    HW2 8598  11.475   9.296  11.999 -2.5688  0.7996  0.2460
33913SOL     OW 8599  12.262   4.276   3.520  0.7408  0.2243 -0.7270
33913SOL    HW1 8600  12.291   4.365   3.538 -1.9091  1.4705 -2.1189
33913SOL    HW2 8601  12.168   4.283   3.508  0.3971 -2.8473 -0.5840
33914SOL     OW 8602  12.285   2.549   9.045  0.3935  0.4530 -0.4013
33914SOL    HW1 8603  12.251   2.628   9.002 -0.6530  0.7678  0.9289
33914SOL    HW2 8604  12.244   2.477   8.997  1.7346  0.6451 -1.9415
33915SOL     OW 8605   9.306  11.002   3.155 -0.1782  0.1860  0.2308
33915SOL    HW1 8606   9.307  11.094   3.181  1.5201  0.6412 -1.2354
33915SOL    HW2 8607   9.341  10.955   3.230 -1.3219  0.6746  1.0989
33916SOL     OW 8608   9.576   5.333   9.280  0.2853 -0.3417 -0.0212
33916SOL    HW1 8609   9.632   5.289   9.344 -1.8247 -0.2038  2.0942
33916SOL    HW2 8610   9.500   5.362   9.331 -1.3084  0.2533 -2.5275
33917SOL     OW 8611   2.160  12.407   2.428 -0.2041 -0.1808 -0.0632
33917SOL    HW1 8612   2.094  12.357   2.477 -0.9042 -2.3388 -2.9530
33917SOL    HW2 8613   2.116  12.488   2.404 -1.3018 -0.9195 -0.6161
33918SOL     OW 8614   7.291   2.842   7.086  0.0602 -0.2538 -0.3263
33918SOL    HW1 8615   7.386   2.847   7.095  0.1670 -0.2583 -1.4037
33918SOL    HW2 8616   7.267   2.922   7.039 -0.4655 -0.2814 -0.1121
33919SOL     OW 8617   5.989   7.249   6.800  0.4578 -0.4434 -0.0644
33919SOL    HW1 8618   5.972   7.342   6.817  0.8822  0.0123 -1.8986
33919SOL    HW2 8619   6.076   7.234   6.836 -1.1551 -1.3021  4.0626
33920SOL     OW 8620   4.935   1.942   9.518  0.5038  0.5459  0.1477
33920SOL    HW1 8621   5.014   1.946   9.465 -0.2153 -2.1877 -1.3289
33920SOL    HW2 8622   4.961   1.890   9.594  0.4857  0.9105  0.4049
33921SOL     OW 8623   4.240  11.168  12.282  0.1271 -0.5900  0.2932
33921SOL    HW1 8624   4.153  11.205  12.301 -0.0849 -0.8314 -0.1913
33921SOL    HW2 8625   4.284  11.235  12.230 -0.4931 -1.2568 -1.1409
33922SOL     OW 8626   5.475   1.112   9.572  0.1418  0.2345  0.5276
33922SOL    HW1 8627   5.469   1.188   9.514  0.0898 -0.6006 -0.6073
33922SOL    HW2 8628   5.394   1.063   9.554 -0.0173  0.1149  1.5414
33923SOL     OW 8629   4.387   0.923  10.177 -0.3690 -0.1215  0.6811
33923SOL    HW1 8630   4.387   0.949  10.269 -0.9014  1.4609  0.2662
33923SOL    HW2 8631   4.419   1.000  10.130  0.0398 -0.9569 -0.4521
33924SOL     OW 8632   8.870   5.268   5.879 -0.2678 -0.6971 -0.0165
33924SOL    HW1 8633   8.800   5.323   5.914  1.9995  1.8216  0.8765
33924SOL    HW2 8634   8.918   5.239   5.956  2.0647  1.1023 -0.6825
33925SOL     OW 8635  10.025   6.190   2.292 -0.1952  0.0030  0.2588
33925SOL    HW1 8636  10.049   6.189   2.199  0.4692  0.6484  0.4125
33925SOL    HW2 8637  10.106   6.169   2.337 -0.4826 -0.1591  0.7044
33926SOL     OW 8638   8.196   8.537  11.623  0.3257  0.0738 -0.2318
33926SOL    HW1 8639   8.248   8.569  11.550  0.0118  1.5640  0.1663
33926SOL    HW2 8640   8.106   8.560  11.600  0.1838  0.2031  0.4443
33927SOL     OW 8641  11.221   8.210   2.917  0.4330 -0.0860  0.4304
33927SOL    HW1 8642  11.200   8.296   2.881 -1.7002 -1.2137 -1.2773
33927SOL    HW2 8643  11.308   8.220   2.954  0.8709  2.4126 -1.0419
33928SOL     OW 8644   5.821   7.958   2.767 -0.3888  0.1280  0.5513
33928SOL    HW1 8645   5.832   7.922   2.855  1.4446  0.3958  0.4839
33928SOL    HW2 8646   5.852   8.048   2.774  2.1584 -0.5370 -0.8308
33929SOL     OW 8647  10.687   4.193   3.114 -0.1400  0.0986 -0.1515
33929SOL    HW1 8648  10.731   4.257   3.170  1.6788 -0.1854 -1.1864
33929SOL    HW2 8649  10.674   4.117   3.170  0.9811  0.0838  0.1081
33930SOL     OW 8650  10.329   9.124   5.832 -0.0328 -0.3771  0.4493
33930SOL    HW1 8651  10.411   9.077   5.814  1.0715  0.8514  1.9503
33930SOL    HW2 8652  10.331   9.199   5.773  0.2202 -0.0234  0.9075
33931SOL     OW 8653  10.035   0.714  10.344  0.7838  0.7294 -0.0865
33931SOL    HW1 8654  10.004   0.779  10.282 -0.7311 -0.7447 -0.9510
33931SOL    HW2 8655  10.078   0.647  10.290  1.2217  0.3871  0.6598
33932SOL     OW 8656   0.672   7.491  11.155  0.1087  0.1894 -0.0090
33932SOL    HW1 8657   0.708   7.566  11.202  2.6107 -0.6498 -0.4221
33932SOL    HW2 8658   0.673   7.518  11.063 -2.3942  0.9014  0.1074
33933SOL     OW 8659   6.461   8.326   6.857  0.5939  0.6104  0.0311
33933SOL    HW1 8660   6.476   8.402   6.800 -2.7964  0.8723 -0.7564
33933SOL    HW2 8661   6.404   8.358   6.926 -1.3865 -1.2455 -0.6188
33934SOL     OW 8662   7.189   6.404   4.079 -0.3984  0.2607  0.1009
33934SOL    HW1 8663   7.147   6.429   4.161 -0.8340 -1.3519  0.4011
33934SOL    HW2 8664   7.215   6.312   4.092 -0.2288  0.0537 -1.4597
33935SOL     OW 8665   9.378   6.952   1.788 -0.0768  0.1250 -0.1519
33935SOL    HW1 8666   9.373   6.861   1.816 -0.4512  0.2393  0.1582
33935SOL    HW2 8667   9.416   6.948   1.700  0.6151 -0.2721  0.1529
33936SOL     OW 8668  11.760  10.849   6.369  0.1703  0.6328 -0.0346
33936SOL    HW1 8669  11.664  10.839   6.365 -0.0103  2.3588 -2.1686
33936SOL    HW2 8670  11.773  10.927   6.423  0.0555  2.5032 -2.5075
33937SOL     OW 8671   2.913   1.582   9.385  0.4154 -0.3490 -0.2328
33937SOL    HW1 8672   2.999   1.553   9.353 -0.1228 -0.7822 -1.3019
33937SOL    HW2 8673   2.872   1.503   9.420  0.6290 -0.0504  0.7410
33938SOL     OW 8674   1.303   9.909   7.567  0.0107 -0.0335 -0.0945
33938SOL    HW1 8675   1.336   9.995   7.593 -0.7488  0.3891 -0.4628
33938SOL    HW2 8676   1.232   9.892   7.628 -0.9419  0.3835 -1.0434
33939SOL     OW 8677   8.879   1.696   5.191  0.1341 -0.3440 -0.2898
33939SOL    HW1 8678   8.841   1.777   5.158  0.7990  0.0967 -0.0029
33939SOL    HW2 8679   8.807   1.653   5.238  0.5737  1.8158  2.6961
33940SOL     OW 8680   8.626  11.290  11.807 -0.0185 -0.0555  0.0908
33940SOL    HW1 8681   8.653  11.370  11.852 -0.6078  0.2204 -0.0397
33940SOL    HW2 8682   8.531  11.289  11.813 -0.1196 -0.0149 -1.1215
33941SOL     OW 8683   5.101   0.328   2.179  0.4459  0.2272  0.7042
33941SOL    HW1 8684   5.046   0.405   2.165 -0.4435 -0.6312 -0.6747
33941SOL    HW2 8685   5.150   0.319   2.097  1.6334  0.1683  1.4034
33942SOL     OW 8686   8.581  11.713  11.011 -0.2590  0.8107 -0.1389
33942SOL    HW1 8687   8.558  11.620  11.018  0.1046  0.7830  0.9144
33942SOL    HW2 8688   8.659  11.714  10.957 -1.8953  0.7891 -2.6352
33943SOL     OW 8689  10.824   2.996   4.480 -0.2029 -0.4600 -0.1255
33943SOL    HW1 8690  10.859   3.057   4.546 -1.3268  0.4625 -0.3521
33943SOL    HW2 8691  10.832   3.044   4.397 -3.0180  0.3043 -0.0552
33944SOL     OW 8692   9.957   2.366   9.566 -0.3043  0.4160  0.1812
33944SOL    HW1 8693   9.929   2.434   9.627 -1.9291  1.0544 -1.2007
33944SOL    HW2 8694   9.886   2.301   9.569  0.2652 -0.2298 -0.0145
33945SOL     OW 8695   7.168   1.008   8.310  0.1793  0.1952 -0.3442
33945SOL    HW1 8696   7.191   0.924   8.270 -0.1230 -0.1246  0.1512
33945SOL    HW2 8697   7.193   0.999   8.402 -0.5633  0.3704 -0.1174
33946SOL     OW 8698   6.613   7.745   3.263  0.3558 -0.1403 -0.1084
33946SOL    HW1 8699   6.559   7.756   3.341 -2.0177  0.2781 -1.6854
33946SOL    HW2 8700   6.668   7.824   3.261 -1.7124  1.3886 -0.3697
33947SOL     OW 8701   1.230   2.499  12.121 -0.6031  0.1055 -0.3204
33947SOL    HW1 8702   1.151   2.511  12.069 -0.8865 -3.0260 -0.7475
33947SOL    HW2 8703   1.284   2.440  12.069  0.4200 -0.7336  1.6076
33948SOL     OW 8704  10.045  12.334   8.882  0.0341  0.0093 -0.1727
33948SOL    HW1 8705  10.053  12.377   8.796 -1.3220 -1.3150 -1.0024
33948SOL    HW2 8706  10.135  12.310   8.905  0.4334  0.5009 -1.1642
33949SOL     OW 8707   4.267   4.311   5.839 -0.2110  0.3348  0.2932
33949SOL    HW1 8708   4.313   4.362   5.772  2.3431  3.1079  3.8399
33949SOL    HW2 8709   4.186   4.359   5.855 -1.5218 -1.0868 -1.5216
33950SOL     OW 8710   3.975   6.835   5.745  0.4248 -0.0791 -0.0967
33950SOL    HW1 8711   3.998   6.814   5.654 -0.9942 -1.6890 -0.1436
33950SOL    HW2 8712   3.942   6.752   5.780 -0.7365  0.9569  1.3491
33951SOL     OW 8713   4.496   1.147  12.381  0.1860  0.1150 -0.4378
33951SOL    HW1 8714   4.432   1.078  12.365 -0.1542  0.3858 -0.2723
33951SOL    HW2 8715   4.483   1.170  12.473 -1.7982  2.4501 -1.1906
33952SOL     OW 8716   6.662  11.816   4.343  0.3741 -0.0155 -0.1150
33952SOL    HW1 8717   6.684  11.725   4.322 -0.3151  0.4553 -3.3579
33952SOL    HW2 8718   6.572  11.826   4.313  0.9594  2.1324 -1.3139
33953SOL     OW 8719   2.372  11.492   9.656  0.2852 -0.4303  0.4433
33953SOL    HW1 8720   2.376  11.564   9.719  0.1752 -1.2210  1.3716
33953SOL    HW2 8721   2.398  11.414   9.706  1.5307 -0.8740 -0.8106
33954SOL     OW 8722   5.434   6.920  10.314 -0.4963 -0.0897 -0.1062
33954SOL    HW1 8723   5.411   6.828  10.329  1.4183 -0.8120 -1.1783
33954SOL    HW2 8724   5.420   6.963  10.398 -0.9817 -1.4646  0.5419
33955SOL     OW 8725   8.678   5.836   0.949 -0.4391  0.1996  0.0161
33955SOL    HW1 8726   8.636   5.757   0.983  0.0442 -0.7983 -1.5766
33955SOL    HW2 8727   8.744   5.859   1.014 -2.2825  0.8572  1.7687
33956SOL     OW 8728  12.205   5.664   5.379 -0.3618  0.2716  0.2961
33956SOL    HW1 8729  12.238   5.577   5.398 -0.8583  0.2264  1.0006
33956SOL    HW2 8730  12.192   5.666   5.285  0.0802 -0.2608  0.2251
33957SOL     OW 8731   0.262  10.083   7.361 -0.0810  0.0401  0.0914
33957SOL    HW1 8732   0.332  10.116   7.418  1.2784 -0.7985 -0.9983
33957SOL    HW2 8733   0.196  10.152   7.360  0.2807  0.4496  1.9256
33958SOL     OW 8734   5.689   0.384  11.547  0.5434 -0.0584 -0.3543
33958SOL    HW1 8735   5.748   0.456  11.525  0.1410  0.1644 -0.7126
33958SOL    HW2 8736   5.655   0.407  11.634  0.7611 -0.0431 -0.2724
33959SOL     OW 8737   4.135  10.335   8.253 -0.1336 -0.6441 -0.2936
33959SOL    HW1 8738   4.180  10.411   8.291  1.1072 -1.7735  0.5648
33959SOL    HW2 8739   4.070  10.374   8.194 -0.1771  1.1080  0.8190
33960SOL     OW 8740   0.843   5.407   9.110  0.2529 -0.1947 -0.0709
33960SOL    HW1 8741   0.753   5.421   9.080 -0.3921 -0.5834  1.5860
33960SOL    HW2 8742   0.834   5.361   9.194  2.0460 -1.4851 -0.5300
33961SOL     OW 8743   2.563   2.365  10.890 -0.5389 -0.0916  0.0709
33961SOL    HW1 8744   2.541   2.273  10.905  1.7047 -0.4119  1.8055
33961SOL    HW2 8745   2.535   2.410  10.970  0.5083  0.3104  0.2252
33962SOL     OW 8746   0.963   8.216   5.306 -0.5697 -0.0184  0.2848
33962SOL    HW1 8747   1.032   8.151   5.292  0.1184  0.9095 -0.8651
33962SOL    HW2 8748   0.937   8.205   5.398  1.5278 -0.0200  0.9366
33963SOL     OW 8749   3.262   8.505   1.719  0.1124  0.3997 -0.7275
33963SOL    HW1 8750   3.238   8.499   1.811  0.7420 -0.2149 -0.5927
33963SOL    HW2 8751   3.272   8.599   1.702  2.2881  0.4517  0.4581
33964SOL     OW 8752   7.568   5.718  10.276 -0.1070 -0.5393  0.7675
33964SOL    HW1 8753   7.602   5.642  10.228  0.2860  0.0443  0.1083
33964SOL    HW2 8754   7.555   5.685  10.365 -0.5146 -1.5394  0.3505
33965SOL     OW 8755   4.140   3.252   1.352  0.0708  0.5140 -0.4674
33965SOL    HW1 8756   4.234   3.254   1.367 -0.0098 -0.5503  0.2895
33965SOL    HW2 8757   4.126   3.312   1.278  1.1258  1.9482  0.4438
33966SOL     OW 8758   6.072  11.730  11.045  0.0566  0.6796 -0.0675
33966SOL    HW1 8759   6.029  11.700  11.126 -1.8436 -0.4871 -1.4177
33966SOL    HW2 8760   6.129  11.658  11.021  0.7986  1.1246  0.3299
33967SOL     OW 8761   9.647   2.918   7.920 -0.0215 -0.2897  0.1046
33967SOL    HW1 8762   9.707   2.981   7.959 -0.7511 -0.2174  1.1363
33967SOL    HW2 8763   9.572   2.916   7.979 -1.1281 -0.2459 -1.2465
33968SOL     OW 8764   5.444   3.770   6.175 -0.4170 -0.2996 -0.9921
33968SOL    HW1 8765   5.393   3.753   6.096 -1.3202  0.6808 -0.6431
33968SOL    HW2 8766   5.523   3.815   6.143  0.4908 -2.2027 -1.5744
33969SOL     OW 8767   5.393   4.265   8.718 -1.0301  0.3585 -0.5012
33969SOL    HW1 8768   5.429   4.195   8.772  0.0865 -1.0063 -2.8609
33969SOL    HW2 8769   5.459   4.335   8.722 -0.1071 -0.4310 -1.4171
33970SOL     OW 8770  10.045   7.154   4.254 -0.5330 -0.4726  0.1878
33970SOL    HW1 8771  10.126   7.118   4.289 -1.2743 -2.4523 -0.0420
33970SOL    HW2 8772   9.988   7.164   4.331  0.0888  1.5139  0.4455
33971SOL     OW 8773   7.993   0.701   5.183 -0.0222  0.1795  0.4920
33971SOL    HW1 8774   8.045   0.742   5.252 -1.1282  0.7133  1.0539
33971SOL    HW2 8775   8.021   0.744   5.102 -0.2081  1.1076  0.9032
33972SOL     OW 8776   0.533   6.850   8.957  1.0599 -0.4645 -0.6394
33972SOL    HW1 8777   0.542   6.943   8.977 -0.3909  0.2654 -2.9891
33972SOL    HW2 8778   0.529   6.807   9.043  1.4394  1.6345  0.4955
33973SOL     OW 8779   8.778   6.648  10.202 -0.2700  0.0157  0.2899
33973SOL    HW1 8780   8.714   6.625  10.135 -1.1317  0.4856  0.9288
33973SOL    HW2 8781   8.847   6.693  10.154 -0.2321 -0.8247 -0.4599
33974SOL     OW 8782   5.100   3.136   5.043  1.0033 -0.4794  0.0891
33974SOL    HW1 8783   5.050   3.068   5.000  0.3079 -1.8672  2.8261
33974SOL    HW2 8784   5.181   3.143   4.994 -0.6001 -0.2569 -2.7103
33975SOL     OW 8785   6.642   1.299   2.234 -0.3913  0.2086  0.2245
33975SOL    HW1 8786   6.550   1.300   2.259 -0.5178  0.6792 -0.2504
33975SOL    HW2 8787   6.647   1.353   2.155  0.2431 -0.0491  0.0772
33976SOL     OW 8788  12.102   1.068   8.045 -0.3422  0.0485 -0.6515
33976SOL    HW1 8789  12.064   0.994   7.998 -0.8646 -0.4203  0.4842
33976SOL    HW2 8790  12.126   1.130   7.976 -2.5054  0.0607 -1.4913
33977SOL     OW 8791  10.282   7.950  12.017 -0.6622  0.6864 -0.9285
33977SOL    HW1 8792  10.247   7.895  12.087  2.5342  0.3786  0.6228
33977SOL    HW2 8793  10.323   7.888  11.957 -1.8578  1.0750 -2.1794
33978SOL     OW 8794   0.561  10.082   7.124 -0.3684 -0.0246 -0.3838
33978SOL    HW1 8795   0.485  10.024   7.113 -2.3374  2.0207  1.3572
33978SOL    HW2 8796   0.606  10.049   7.202 -0.6506 -0.0614 -0.2359
33979SOL     OW 8797   5.826   7.828   4.241  0.5537 -0.4417 -0.2910
33979SOL    HW1 8798   5.856   7.796   4.326  2.0190  0.2392 -0.5041
33979SOL    HW2 8799   5.744   7.873   4.259 -0.5945 -2.6783  0.2882
33980SOL     OW 8800   4.927  10.623   6.476  0.4425  0.2537  0.1968
33980SOL    HW1 8801   4.996  10.670   6.429  0.5730  0.4286  0.5612
33980SOL    HW2 8802   4.854  10.621   6.415 -0.4111  2.9903  1.0057
33981SOL     OW 8803   7.712   2.108  11.399  0.3332 -0.7450  0.6845
33981SOL    HW1 8804   7.750   2.146  11.478 -2.6307 -1.2627  2.5089
33981SOL    HW2 8805   7.724   2.014  11.409 -0.6012 -0.8530  0.8536
33982SOL     OW 8806   3.319   2.077  10.036  0.1372 -0.6666 -0.1824
33982SOL    HW1 8807   3.310   2.109  10.126  3.3295 -0.3648  0.1621
33982SOL    HW2 8808   3.348   2.154   9.986  0.0545 -1.2219 -1.1130
33983SOL     OW 8809   9.769   7.468  10.077  0.3663 -0.0447 -0.6072
33983SOL    HW1 8810   9.775   7.530  10.003  0.7472  1.2736  0.4790
33983SOL    HW2 8811   9.855   7.471  10.117  0.1125 -0.6283 -0.0048
33984SOL     OW 8812   2.897   2.907   0.576  0.5856  0.1735  0.2062
33984SOL    HW1 8813   2.915   3.000   0.588  1.1493  0.0860  0.0765
33984SOL    HW2 8814   2.982   2.869   0.551  0.0993 -0.1461 -1.0458
33985SOL     OW 8815   8.513   6.553   9.618 -0.1646 -0.2372  0.2934
33985SOL    HW1 8816   8.530   6.461   9.600 -1.6848 -0.6426  0.7282
33985SOL    HW2 8817   8.454   6.580   9.547 -1.0137 -0.0595  1.0532
33986SOL     OW 8818  10.382   9.252   8.995 -0.1829 -0.3301  0.2006
33986SOL    HW1 8819  10.341   9.165   9.000 -0.7287 -0.0632  0.3733
33986SOL    HW2 8820  10.342   9.293   8.919 -0.0190 -0.1730  0.1981
33987SOL     OW 8821   6.268   1.215   5.862 -0.1671  0.0137  0.0048
33987SOL    HW1 8822   6.356   1.218   5.825  0.1907 -0.4049  0.7873
33987SOL    HW2 8823   6.235   1.304   5.854  0.9297  0.5490  1.0983
33988SOL     OW 8824  10.311   5.727   3.983  0.0730  0.3024  0.7525
33988SOL    HW1 8825  10.351   5.703   3.900  2.0764 -1.2159  2.0624
33988SOL    HW2 8826  10.350   5.812   4.004  0.2575  0.2711  0.5441
33989SOL     OW 8827   7.984  10.083   7.189  0.2440  0.5015  0.6678
33989SOL    HW1 8828   7.933  10.038   7.256 -1.5099  0.1043 -0.8417
33989SOL    HW2 8829   7.944  10.170   7.182 -0.0107  0.3164 -0.2927
33990SOL     OW 8830   8.679   8.496   3.433  0.3649  0.2563  0.4733
33990SOL    HW1 8831   8.614   8.515   3.501 -0.8687  1.0643 -0.8621
33990SOL    HW2 8832   8.686   8.401   3.432  0.0922  0.2133  1.4362
33991SOL     OW 8833  11.152   0.433   2.105  0.5002 -0.2296  0.1976
33991SOL    HW1 8834  11.116   0.346   2.091  0.0414  0.1617 -1.2700
33991SOL    HW2 8835  11.082   0.492   2.079  1.7217  0.5621 -1.4871
33992SOL     OW 8836  10.661  10.772  12.196 -0.0352  0.0050  0.5176
33992SOL    HW1 8837  10.661  10.719  12.117 -1.5006  1.0209 -0.1990
33992SOL    HW2 8838  10.743  10.822  12.192 -0.9047  1.4034 -1.3473
33993SOL     OW 8839  11.904   0.285   1.342  0.2928 -0.3854 -0.0863
33993SOL    HW1 8840  11.945   0.364   1.376 -0.6550 -0.3729  1.0891
33993SOL    HW2 8841  11.854   0.250   1.416 -0.9666 -0.9537 -1.1671
33994SOL     OW 8842   3.860  12.217  10.123  0.5799 -0.2872 -0.4848
33994SOL    HW1 8843   3.911  12.231  10.044  0.3275  0.9937 -0.4371
33994SOL    HW2 8844   3.772  12.249  10.102  1.2539  3.1616  1.2395
33995SOL     OW 8845   9.701   5.705   9.176  0.3612 -0.2815 -0.1030
33995SOL    HW1 8846   9.700   5.754   9.094 -0.4323 -0.9517 -0.5034
33995SOL    HW2 8847   9.653   5.624   9.157  1.8694 -1.3574  0.4714
33996SOL     OW 8848   0.449   6.515  10.646 -0.2324 -0.3518  0.5096
33996SOL    HW1 8849   0.498   6.455  10.703  0.3300 -0.5508 -0.1691
33996SOL    HW2 8850   0.453   6.600  10.692 -1.1241 -0.8359  1.5256
33997SOL     OW 8851  10.111   7.569  11.818  0.5541 -0.0306  0.2151
33997SOL    HW1 8852  10.048   7.609  11.878  1.3910  0.3490  0.8723
33997SOL    HW2 8853  10.165   7.513  11.875  1.6820  0.7248 -0.0770
33998SOL     OW 8854   8.415   9.471   9.292 -0.3928 -0.1381  0.3111
33998SOL    HW1 8855   8.325   9.472   9.325 -0.7232 -0.5264 -0.5332
33998SOL    HW2 8856   8.405   9.467   9.197  0.5200  1.3654  0.1180
33999SOL     OW 8857  11.503   9.216  12.303  0.3367  0.0218 -0.3276
33999SOL    HW1 8858  11.473   9.204  12.213  1.5940 -1.5032 -0.5961
33999SOL    HW2 8859  11.534   9.306  12.306 -1.4275  0.6992 -0.8506
34000SOL     OW 8860   4.620   8.008  10.069  0.2031  0.1508 -0.7841
34000SOL    HW1 8861   4.561   7.935  10.088 -0.9176  1.3385  0.5393
34000SOL    HW2 8862   4.563   8.084  10.059  1.4687  1.7095  2.3059
34001SOL     OW 8863   9.402   1.565  10.481 -0.4017 -0.0096  0.0739
34001SOL    HW1 8864   9.388   1.550  10.575 -0.9296 -0.1803 -0.0300
34001SOL    HW2 8865   9.377   1.657  10.468 -2.3245 -0.5393 -0.2653
34002SOL     OW 8866  10.607  12.089   7.428 -0.8407  0.1948 -0.7157
34002SOL    HW1 8867  10.534  12.094   7.368 -0.9913  0.0115 -0.5519
34002SOL    HW2 8868  10.638  12.179   7.438 -1.6878  0.4244 -0.0001
34003SOL     OW 8869   1.911   1.573  11.632  0.6033  0.2292 -0.3732
34003SOL    HW1 8870   1.999   1.577  11.596  0.7285  0.4875 -0.0376
34003SOL    HW2 8871   1.854   1.575  11.555  0.9152 -1.8564 -0.7186
34004SOL     OW 8872  10.461   4.768   8.955  0.2380 -0.1339  0.4840
34004SOL    HW1 8873  10.385   4.714   8.934  0.0223  0.0857  0.6846
34004SOL    HW2 8874  10.532   4.731   8.903  0.4875 -1.6163  1.8350
34005SOL     OW 8875  11.098   2.930   7.145  0.1720  0.0288 -0.5953
34005SOL    HW1 8876  11.007   2.932   7.115 -0.2174 -0.1857  0.5372
34005SOL    HW2 8877  11.138   3.007   7.103 -0.8468  0.8344 -0.1394
34006SOL     OW 8878   6.124   4.973   9.639  0.0794  0.4695 -0.3046
34006SOL    HW1 8879   6.192   4.958   9.704 -1.0624  3.7010  1.8458
34006SOL    HW2 8880   6.086   4.886   9.624  2.6390 -0.9173  0.6585
34007SOL     OW 8881  10.018   1.244   3.423  0.3862 -0.1897 -0.0428
34007SOL    HW1 8882  10.049   1.231   3.512  1.6968  1.9569 -0.1206
34007SOL    HW2 8883  10.053   1.329   3.397 -1.6255  0.1709 -1.9071
34008SOL     OW 8884   7.148   7.363  10.899 -0.0822  0.0884 -0.2339
34008SOL    HW1 8885   7.059   7.330  10.910 -0.2460  0.0164 -1.6044
34008SOL    HW2 8886   7.151   7.394  10.809  1.5024 -0.5846 -0.4419
34009SOL     OW 8887   0.726   9.367   9.563  0.5708 -0.8001  0.8070
34009SOL    HW1 8888   0.753   9.277   9.580 -0.6559 -1.4133 -0.3905
34009SOL    HW2 8889   0.706   9.370   9.469 -0.5109  0.4119  1.0405
34010SOL     OW 8890  11.131   8.598   6.045  0.3019 -0.1934 -0.6362
34010SOL    HW1 8891  11.146   8.515   6.000  0.9330 -0.0505 -0.7064
34010SOL    HW2 8892  11.201   8.655   6.013  0.3260  0.1315 -0.0156
34011SOL     OW 8893  10.373   6.576  10.719  0.2910  0.1303 -0.3724
34011SOL    HW1 8894  10.375   6.590  10.624 -1.1488  0.4316 -0.3801
34011SOL    HW2 8895  10.427   6.646  10.755 -1.6707  1.9987 -0.8103
34012SOL     OW 8896   2.218   1.253  10.191 -0.0887  0.1856 -0.1891
34012SOL    HW1 8897   2.288   1.311  10.221  0.7938 -0.9639  0.0221
34012SOL    HW2 8898   2.256   1.166  10.193 -1.4166 -0.4273 -0.4430
34013SOL     OW 8899  10.605   6.388  12.317 -0.4371  0.1436 -0.1657
34013SOL    HW1 8900  10.689   6.426  12.343 -0.3432 -0.1789  0.0079
34013SOL    HW2 8901  10.619   6.356  12.228 -0.7871  1.3416 -0.6675
34014SOL     OW 8902   3.099   3.152   7.735 -0.4049 -0.0681  0.0096
34014SOL    HW1 8903   3.008   3.178   7.749 -0.0840  0.8871  0.4063
34014SOL    HW2 8904   3.096   3.093   7.659 -1.3628 -0.1384  0.0956
34015SOL     OW 8905   9.245   6.868   2.230  0.1655 -0.6349  0.8535
34015SOL    HW1 8906   9.199   6.948   2.256 -0.2090 -0.0105 -1.5147
34015SOL    HW2 8907   9.282   6.834   2.312  3.6551  3.9697  1.6260
34016SOL     OW 8908   6.814   7.830   2.663  0.2714  0.4825 -0.5757
34016SOL    HW1 8909   6.865   7.889   2.607  1.5851  0.7677  0.8726
34016SOL    HW2 8910   6.765   7.888   2.721  2.4771  0.2887  1.6758
34017SOL     OW 8911   9.011   4.648   7.446  0.0763  0.0461  0.0802
34017SOL    HW1 8912   8.945   4.703   7.490  1.1688  0.9790  0.6077
34017SOL    HW2 8913   9.070   4.622   7.516 -0.6112 -2.1783 -0.0872
34018SOL     OW 8914   6.528   9.692   2.987  0.1354 -0.0590 -0.0858
34018SOL    HW1 8915   6.509   9.731   3.073 -1.9426 -1.6614  0.2819
34018SOL    HW2 8916   6.473   9.741   2.926  0.9634  0.5193 -0.3755
34019SOL     OW 8917   6.660   4.527   7.155 -0.3951 -0.4947  0.0804
34019SOL    HW1 8918   6.681   4.476   7.077  0.1403  0.8703 -0.7012
34019SOL    HW2 8919   6.566   4.515   7.166 -0.3145 -1.4975 -0.1764
34020SOL     OW 8920   7.039   6.309   7.924  0.1322 -0.2054 -0.0193
34020SOL    HW1 8921   7.066   6.393   7.890 -0.9190  0.0678 -0.2121
34020SOL    HW2 8922   7.062   6.246   7.856 -0.5871  0.1413 -0.5868
34021SOL     OW 8923   4.864   4.845  10.583  0.1329 -0.5351 -0.0529
34021SOL    HW1 8924   4.923   4.809  10.649 -0.3427 -1.3238 -0.0437
34021SOL    HW2 8925   4.836   4.929  10.620 -0.1434 -0.9747  0.7663
34022SOL     OW 8926   1.105   3.153   0.715  0.8649 -0.6547 -0.4114
34022SOL    HW1 8927   1.089   3.222   0.779  1.1514  0.8924 -1.9062
34022SOL    HW2 8928   1.019   3.133   0.679  0.9031 -0.2944 -0.7131
34023SOL     OW 8929   9.576   2.542   8.830 -0.4922 -0.4518  0.7508
34023SOL    HW1 8930   9.602   2.625   8.791  0.3764 -0.3423  1.5342
34023SOL    HW2 8931   9.496   2.518   8.784  0.2729 -0.1340 -0.8100
34024SOL     OW 8932   3.697   4.632   4.830  0.1808  0.3019 -0.6237
34024SOL    HW1 8933   3.763   4.645   4.898 -0.5584 -0.6562  0.3120
34024SOL    HW2 8934   3.720   4.548   4.790 -0.0371  0.3184 -0.7855
34025SOL     OW 8935   3.860   4.007  10.639  0.1166  0.2117 -0.1430
34025SOL    HW1 8936   3.955   4.012  10.652  0.0826  0.7683 -0.0906
34025SOL    HW2 8937   3.826   4.088  10.677 -0.0287  1.7914 -3.3117
34026SOL     OW 8938   8.525  12.097   2.028  0.3267 -0.6611 -0.4204
34026SOL    HW1 8939   8.434  12.093   2.001  0.4989  0.3285 -1.2036
34026SOL    HW2 8940   8.547  12.190   2.025  1.5134 -0.9376 -0.7681
34027SOL     OW 8941   2.564   0.126   3.626  0.3858  0.9447  0.4454
34027SOL    HW1 8942   2.598   0.157   3.542  2.1822 -0.9181  0.4043
34027SOL    HW2 8943   2.641   0.091   3.671 -1.0552 -0.9163  1.5669
34028SOL     OW 8944   2.250   3.024   0.052 -0.3147 -0.2942 -0.4044
34028SOL    HW1 8945   2.274   3.081   0.125 -2.6771  1.2022 -0.7011
34028SOL    HW2 8946   2.212   2.947   0.094  1.1918 -0.8852 -0.0469
34029SOL     OW 8947   3.605  12.413  10.658  0.2395 -1.0206  0.1247
34029SOL    HW1 8948   3.689  12.453  10.679 -0.7654  1.2985  0.0092
34029SOL    HW2 8949   3.548  12.437  10.731 -0.6816 -1.3703 -0.4636
34030SOL     OW 8950   4.801  10.764   5.882  0.2835 -0.4745  0.0732
34030SOL    HW1 8951   4.842  10.794   5.964 -0.7383 -2.1028  1.2530
34030SOL    HW2 8952   4.712  10.802   5.885  0.1358 -0.8043 -0.1197
34031SOL     OW 8953   9.242  10.526  10.623 -0.4256  0.2890  0.1713
34031SOL    HW1 8954   9.270  10.616  10.604  0.6345 -0.1262 -0.3571
34031SOL    HW2 8955   9.311  10.472  10.585 -2.4958 -0.8737 -2.2473
34032SOL     OW 8956   6.232  10.246   6.095  0.9178 -0.3451 -0.1814
34032SOL    HW1 8957   6.320  10.236   6.061 -0.2280 -1.7287 -3.0328
34032SOL    HW2 8958   6.190  10.161   6.081 -1.3842  0.7617 -0.5845
34033SOL     OW 8959   9.158   0.260   4.691  0.4079 -0.6848  0.1728
34033SOL    HW1 8960   9.217   0.191   4.660  1.6575  0.0560  0.8059
34033SOL    HW2 8961   9.215   0.319   4.740 -0.6278  0.8363 -0.4104
34034SOL     OW 8962   1.046   1.243   5.826 -0.0048  0.1588  0.2861
34034SOL    HW1 8963   1.128   1.221   5.781 -1.5499  0.7520 -3.0819
34034SOL    HW2 8964   1.052   1.195   5.909  3.2952 -0.5958 -0.2122
34035SOL     OW 8965   5.608   1.814   2.536 -0.0743  0.4382 -0.2621
34035SOL    HW1 8966   5.577   1.777   2.454 -1.0219  1.2552 -0.2914
34035SOL    HW2 8967   5.588   1.908   2.529  2.6659  1.1133 -0.4173
34036SOL     OW 8968   5.734   6.335   6.726  0.3941 -0.0358 -0.1910
34036SOL    HW1 8969   5.755   6.370   6.813  1.7453 -1.9464  0.3159
34036SOL    HW2 8970   5.801   6.373   6.669 -0.4039  1.1042 -0.3849
34037SOL     OW 8971  11.781   5.308   3.724  0.6292 -1.1019  0.1785
34037SOL    HW1 8972  11.814   5.391   3.757  0.7549 -0.9553 -0.3063
34037SOL    HW2 8973  11.838   5.242   3.764  0.5779 -0.9524  0.5012
34038SOL     OW 8974  10.472   3.151   4.756  0.0477 -0.1904 -0.2382
34038SOL    HW1 8975  10.554   3.108   4.734  0.8918  0.5942  1.2358
34038SOL    HW2 8976  10.420   3.084   4.800 -0.2576 -0.7777 -1.4530
34039SOL     OW 8977   8.313   6.284   0.965  0.0498  0.5543 -0.1698
34039SOL    HW1 8978   8.300   6.274   1.060  1.3939  0.2417  0.0001
34039SOL    HW2 8979   8.265   6.363   0.943 -1.6145 -0.2160  0.4733
34040SOL     OW 8980   5.996   6.814   9.469 -0.1916 -0.0995  0.0683
34040SOL    HW1 8981   6.020   6.861   9.389 -1.5424  1.0292  0.2973
34040SOL    HW2 8982   6.032   6.867   9.540  0.2310 -0.6235  0.2514
34041SOL     OW 8983   8.148   8.779   8.554 -0.0651  0.1137 -0.3836
34041SOL    HW1 8984   8.203   8.809   8.626 -0.8495 -0.0350  0.2905
34041SOL    HW2 8985   8.104   8.858   8.522 -0.5813  0.0001  0.0484
34042SOL     OW 8986   3.715  11.987   6.223  0.1107  0.1523  0.4152
34042SOL    HW1 8987   3.666  11.909   6.250  0.0639  0.4556  1.2607
34042SOL    HW2 8988   3.677  12.012   6.139 -1.5999  0.7002  1.3104
34043SOL     OW 8989   7.325   3.718   6.076  0.2243 -0.0225 -0.1254
34043SOL    HW1 8990   7.317   3.745   6.167 -0.0967  2.1410 -0.7239
34043SOL    HW2 8991   7.239   3.682   6.054 -0.1080  0.5955  0.1175
34044SOL     OW 8992   5.947   7.693   4.481  0.2731 -0.5712 -0.1585
34044SOL    HW1 8993   5.932   7.746   4.559  2.3393  1.6103 -1.1226
34044SOL    HW2 8994   6.002   7.621   4.511  1.1323  0.3084  0.4007
34045SOL     OW 8995   2.900  12.478   0.435  0.0894  0.0362  0.6249
34045SOL    HW1 8996   2.978  12.457   0.383 -1.6663 -2.0258 -1.3962
34045SOL    HW2 8997   2.927  12.462   0.525  1.7748 -1.6401 -0.0901
34046SOL     OW 8998   7.448   5.271   0.717 -0.2683 -0.0694  0.3202
34046SOL    HW1 8999   7.532   5.280   0.670 -0.5816 -0.6073 -0.3563
34046SOL    HW2 9000   7.391   5.335   0.674 -0.2286  0.2488  0.7375
34047SOL     OW 9001   5.117   4.038   4.661 -0.3188 -0.4460  0.6580
34047SOL    HW1 9002   5.198   4.008   4.704 -0.8205 -0.8135  1.3592
34047SOL    HW2 9003   5.109   3.982   4.585  1.2996  1.0865 -0.7324
34048SOL     OW 9004   1.466   6.613   6.572 -0.4570  0.8482 -0.6500
34048SOL    HW1 9005   1.463   6.632   6.479 -0.4168  1.4306 -0.5332
34048SOL    HW2 9006   1.552   6.644   6.601 -1.1936  2.4311 -0.0460
34049SOL     OW 9007  12.072   0.220  10.886  0.0170 -0.2066 -0.2366
34049SOL    HW1 9008  12.076   0.126  10.866 -0.3466 -0.4133  0.5927
34049SOL    HW2 9009  12.135   0.231  10.957 -0.0968  0.1310 -0.1880
34050SOL     OW 9010   9.736   2.729   1.888  0.1480  0.5589  1.0113
34050SOL    HW1 9011   9.823   2.756   1.918  0.4973  1.6336 -0.8001
34050SOL    HW2 9012   9.708   2.800   1.830 -2.0943  0.3766  1.7901
34051SOL     OW 9013   7.462   3.705   2.242  0.0132  0.2600 -0.5259
34051SOL    HW1 9014   7.432   3.761   2.314  0.5642  0.2696 -0.2924
34051SOL    HW2 9015   7.393   3.639   2.233 -0.1953  0.4230 -0.1695
34052SOL     OW 9016   7.058  10.692   6.841  0.1807 -0.0406 -0.0189
34052SOL    HW1 9017   6.996  10.728   6.904 -0.1871 -1.7236  0.6392
34052SOL    HW2 9018   7.002  10.655   6.772  0.3281 -2.5451  1.1094
34053SOL     OW 9019   3.596   9.617   9.042 -0.6104 -0.1501 -0.0095
34053SOL    HW1 9020   3.647   9.697   9.035  0.5654 -0.6431  1.9750
34053SOL    HW2 9021   3.656   9.548   9.013 -0.7977 -0.5222  0.4629
34054SOL     OW 9022   3.461   3.709   4.512  0.0640  0.4172 -0.0556
34054SOL    HW1 9023   3.394   3.658   4.557 -1.1194  0.7779 -1.3227
34054SOL    HW2 9024   3.434   3.800   4.525  1.0747  0.6489  0.5456
34055SOL     OW 9025   2.354   2.169  11.997  0.1574 -0.5955  0.5904
34055SOL    HW1 9026   2.291   2.204  12.061  0.4735 -2.3046  1.9273
34055SOL    HW2 9027   2.323   2.080  11.980  1.0722 -0.7525 -0.3081
34056SOL     OW 9028   4.076   8.454   9.256 -0.2502 -0.4388  0.3114
34056SOL    HW1 9029   4.122   8.456   9.171  1.5776  0.7403  1.2616
34056SOL    HW2 9030   3.990   8.492   9.237 -0.2880 -1.2103 -1.2195
34057SOL     OW 9031   2.584  10.560  12.253 -0.3225  0.3410  0.4906
34057SOL    HW1 9032   2.498  10.524  12.233 -0.5894  0.7572  0.8547
34057SOL    HW2 9033   2.587  10.643  12.205  0.9115 -0.8408 -1.6535
34058SOL     OW 9034   4.347  12.304   5.150 -0.6395 -0.5532 -0.1403
34058SOL    HW1 9035   4.308  12.353   5.223 -1.1614  1.2449 -1.5728
34058SOL    HW2 9036   4.383  12.226   5.192 -1.8283 -0.1026  1.9007
34059SOL     OW 9037   3.341   8.499   3.556  0.1960 -0.0976  0.0767
34059SOL    HW1 9038   3.318   8.519   3.465  0.8279 -0.2279 -0.1159
34059SOL    HW2 9039   3.434   8.519   3.563  0.2609 -0.5320  0.5705
34060SOL     OW 9040   2.365   8.217   3.228 -0.0273 -0.1357  0.1833
34060SOL    HW1 9041   2.354   8.122   3.217  0.4716 -0.3458  1.3476
34060SOL    HW2 9042   2.375   8.229   3.323  0.8305  0.9900 -0.0311
34061SOL     OW 9043   4.591   5.866   2.954  0.7291  0.3033  0.7737
34061SOL    HW1 9044   4.663   5.905   3.005  2.4176 -1.0069 -0.4674
34061SOL    HW2 9045   4.630   5.847   2.869 -0.2210 -3.0496  0.9405
34062SOL     OW 9046  10.935   8.081   1.534  0.2984 -0.0228 -0.8418
34062SOL    HW1 9047  10.847   8.076   1.570  0.6540 -0.9756 -0.0601
34062SOL    HW2 9048  10.950   7.994   1.496  0.6239  0.3736 -1.6374
34063SOL     OW 9049  11.858   7.647  10.971 -0.1261  0.0754 -0.1212
34063SOL    HW1 9050  11.873   7.739  10.992 -1.1493 -0.1486  1.7955
34063SOL    HW2 9051  11.765   7.633  10.988 -0.2316 -1.0644 -1.4615
34064SOL     OW 9052   8.112   3.786   0.196 -0.0660  0.0424 -0.8234
34064SOL    HW1 9053   8.134   3.767   0.287  1.6116  1.1007 -0.9600
34064SOL    HW2 9054   8.041   3.725   0.175 -1.0989  0.3532  1.4237
34065SOL     OW 9055   3.794   5.939   1.912  0.0317  0.0593  0.0352
34065SOL    HW1 9056   3.699   5.944   1.915 -0.0729  1.1742 -2.3633
34065SOL    HW2 9057   3.812   5.884   1.835  1.3342 -0.3338  0.5972
34066SOL     OW 9058  11.437   4.447   1.606 -0.1670 -0.0936  0.5228
34066SOL    HW1 9059  11.349   4.477   1.626  0.0350  0.9568 -0.0303
34066SOL    HW2 9060  11.445   4.362   1.648 -2.0594 -1.0493 -0.9359
34067SOL     OW 9061  11.018   2.738   5.103  0.6485  0.3560  0.0269
34067SOL    HW1 9062  10.958   2.812   5.097  2.6478  2.1859  0.9804
34067SOL    HW2 9063  11.102   2.773   5.072  1.3847 -1.9245 -0.7604
34068SOL     OW 9064   2.018   7.014  10.242  0.2486  0.4641  0.1121
34068SOL    HW1 9065   1.931   7.052  10.254  0.4914  1.1946 -0.3531
34068SOL    HW2 9066   2.010   6.925  10.274 -0.5445  0.6760  0.5252
34069SOL     OW 9067   7.503   7.326   7.752  0.8695 -0.4198  0.3418
34069SOL    HW1 9068   7.447   7.263   7.797  0.0128  0.5065  0.6276
34069SOL    HW2 9069   7.443   7.396   7.725  1.6360 -0.1856 -0.8131
34070SOL     OW 9070  10.818   3.872   1.627  0.1970 -0.0571 -0.1792
34070SOL    HW1 9071  10.908   3.903   1.639  0.6324 -0.9768 -0.9719
34070SOL    HW2 9072  10.823   3.778   1.640 -0.2793 -0.3835 -2.0382
34071SOL     OW 9073   8.559   1.329  11.670 -0.0979 -0.0966  0.3216
34071SOL    HW1 9074   8.534   1.350  11.760  1.6761 -1.6797  1.2745
34071SOL    HW2 9075   8.503   1.255  11.647  1.0683 -1.2772  1.0964
34072SOL     OW 9076   3.521  10.843   9.065 -0.2782  0.3445  0.0130
34072SOL    HW1 9077   3.483  10.888   9.141 -0.0057  1.0257 -0.2469
34072SOL    HW2 9078   3.608  10.818   9.094  0.3518  1.8377 -0.5162
34073SOL     OW 9079   4.384   6.067   1.791 -1.0124  0.1401  0.5749
34073SOL    HW1 9080   4.380   6.069   1.695 -0.9234 -0.3564  0.5560
34073SOL    HW2 9081   4.326   5.995   1.816 -0.8069  0.0771  0.8762
34074SOL     OW 9082   9.915  10.229   2.448 -0.5488  0.0427  0.3390
34074SOL    HW1 9083   9.872  10.306   2.485  0.1465  0.1845  0.8579
34074SOL    HW2 9084   9.923  10.167   2.520 -1.7430 -0.8168 -0.2346
34075SOL     OW 9085   9.647   1.332   4.736 -0.0646  0.7734  0.4233
34075SOL    HW1 9086   9.570   1.374   4.775  0.0341  1.3712 -0.0240
34075SOL    HW2 9087   9.639   1.350   4.643  0.1332  0.0384  0.2548
34076SOL     OW 9088  12.040   2.752  11.203 -0.1655  0.1664 -0.3129
34076SOL    HW1 9089  12.065   2.843  11.223 -0.7182  0.8026 -2.2925
34076SOL    HW2 9090  12.061   2.741  11.110  0.5282 -1.9950  0.0341
34077SOL     OW 9091   1.084   9.087   2.905 -0.0420 -0.5625  0.4033
34077SOL    HW1 9092   1.002   9.115   2.865  0.0546  0.7470  1.0528
34077SOL    HW2 9093   1.151   9.112   2.842  0.0605  0.9326  1.0691
34078SOL     OW 9094   3.266   4.801   3.727 -0.4119 -0.0400  0.2462
34078SOL    HW1 9095   3.245   4.894   3.727 -0.8212 -0.1053 -1.2032
34078SOL    HW2 9096   3.360   4.797   3.712 -0.5979  0.1407 -1.0828
34079SOL     OW 9097   3.554   0.665   1.109  0.1690 -0.2723  0.6358
34079SOL    HW1 9098   3.612   0.632   1.178 -0.0741 -1.1762  0.4265
34079SOL    HW2 9099   3.572   0.759   1.106  0.4050 -0.2615  1.7149
34080SOL     OW 9100  12.218   1.973   5.287 -0.7337  0.0997 -0.7457
34080SOL    HW1 9101  12.134   1.928   5.280 -1.7987  1.2316  2.5263
34080SOL    HW2 9102  12.250   1.950   5.375  1.1091  1.7519 -0.9127
34081SOL     OW 9103  10.075   6.560  11.239 -0.2762 -0.2655 -0.0476
34081SOL    HW1 9104  10.086   6.599  11.152  0.5875  2.7310  1.2832
34081SOL    HW2 9105  10.120   6.476  11.234  1.3674  0.6681 -1.9808
34082SOL     OW 9106   9.263  11.010   1.770 -0.1042 -0.1771  0.1262
34082SOL    HW1 9107   9.351  10.974   1.764 -0.7876 -1.6246 -2.4056
34082SOL    HW2 9108   9.205  10.934   1.778 -1.2810  0.6022 -0.5937
34083SOL     OW 9109   7.803   6.911   9.684  0.0319 -0.0399 -0.4895
34083SOL    HW1 9110   7.714   6.877   9.694 -1.4100  2.6625 -2.8828
34083SOL    HW2 9111   7.821   6.957   9.766 -1.4281  0.7558 -0.6002
34084SOL     OW 9112   1.633   8.356  11.072  0.2169 -0.1666  0.0193
34084SOL    HW1 9113   1.697   8.392  11.010  1.0902 -0.0840  0.9348
34084SOL    HW2 9114   1.673   8.274  11.102  0.0796  0.0666  0.8756
34085SOL     OW 9115   9.754   5.818  12.340 -1.0792 -0.1144 -0.3257
34085SOL    HW1 9116   9.800   5.768  12.272  1.4749 -1.0000  1.8593
34085SOL    HW2 9117   9.816   5.821  12.413 -2.8894  2.5170  1.2628
34086SOL     OW 9118   6.510   7.745   0.329 -0.0522 -0.2621  0.3634
34086SOL    HW1 9119   6.517   7.778   0.419  1.3418  1.7059 -0.3800
34086SOL    HW2 9120   6.456   7.810   0.284 -0.1595 -0.8635 -0.3919
34087SOL     OW 9121   2.128   6.478  11.001 -0.4290 -0.6418  0.3528
34087SOL    HW1 9122   2.108   6.513  10.914 -0.9323 -0.4193  0.5531
34087SOL    HW2 9123   2.061   6.411  11.016  0.4622 -1.6312  0.0178
34088SOL     OW 9124   8.830   9.205  11.411  0.0763  0.0772  0.4782
34088SOL    HW1 9125   8.831   9.283  11.355  3.2068 -0.6307 -0.6744
34088SOL    HW2 9126   8.764   9.148  11.372  0.0626  0.8371 -0.6593
34089SOL     OW 9127   3.779   9.917  10.989 -0.5045  0.0123 -0.5306
34089SOL    HW1 9128   3.872   9.895  10.987 -0.3151  0.6348  0.5706
34089SOL    HW2 9129   3.765   9.972  10.912  0.1000  0.1553 -0.5380
34090SOL     OW 9130   5.967  12.250   2.844 -0.1009  0.4716 -0.3746
34090SOL    HW1 9131   5.961  12.206   2.929 -0.0052  0.6544 -0.2739
34090SOL    HW2 9132   5.883  12.294   2.833 -0.4414 -0.2635 -0.7656
34091SOL     OW 9133   6.056   2.975   5.006  0.3452  0.1482 -0.2639
34091SOL    HW1 9134   5.963   2.990   5.024  0.6907  1.6550  0.4117
34091SOL    HW2 9135   6.079   2.899   5.060 -0.4508 -0.1562 -0.3341
34092SOL     OW 9136   0.868  12.145   9.731  0.5971 -0.3506 -0.2893
34092SOL    HW1 9137   0.889  12.168   9.822  0.3679 -0.7073 -0.1454
34092SOL    HW2 9138   0.924  12.203   9.679 -0.0745  0.6286  0.0599
34093SOL     OW 9139   6.399   6.512   1.665 -0.1465 -0.4907  0.2802
34093SOL    HW1 9140   6.397   6.544   1.574  1.7609 -0.3116  0.2706
34093SOL    HW2 9141   6.309   6.524   1.696 -1.0540 -1.2939 -1.8229
34094SOL     OW 9142   3.434  10.955   6.537  0.7593  0.0894  0.0569
34094SOL    HW1 9143   3.409  10.888   6.473  1.0732  0.1648 -0.1432
34094SOL    HW2 9144   3.372  10.942   6.609  1.8263 -1.5009  0.7499
34095SOL     OW 9145   9.637   2.179   0.759 -0.0917  0.1038  0.0843
34095SOL    HW1 9146   9.621   2.242   0.829  0.9634 -0.2193  0.6305
34095SOL    HW2 9147   9.685   2.108   0.800 -0.2958 -0.5476 -0.7664
34096SOL     OW 9148   8.260   2.001   2.500  0.0180  0.7881  0.1112
34096SOL    HW1 9149   8.301   2.036   2.580 -0.7456  1.2367  0.3164
34096SOL    HW2 9150   8.305   1.918   2.485  0.7770  1.1153  0.5110
34097SOL     OW 9151   2.671   7.188   8.930 -0.0709 -0.4708 -0.5323
34097SOL    HW1 9152   2.624   7.226   8.856 -1.3548 -0.0269  0.4866
34097SOL    HW2 9153   2.683   7.260   8.991  1.0830 -0.8084 -0.3230
34098SOL     OW 9154   2.128   1.933   1.205  0.1990 -0.3806  1.0672
34098SOL    HW1 9155   2.168   1.922   1.119 -1.2331  0.6255  0.2362
34098SOL    HW2 9156   2.036   1.913   1.191 -0.7325  2.9473  1.5811
34099SOL     OW 9157   0.115  12.239   0.131 -0.5727  0.7635  0.3259
34099SOL    HW1 9158   0.034  12.189   0.121  0.2755 -0.4217 -0.9454
34099SOL    HW2 9159   0.150  12.213   0.216  0.3273 -1.5991 -0.7031
34100SOL     OW 9160   4.792   1.636   1.609  0.1987  0.1889  0.1083
34100SOL    HW1 9161   4.792   1.720   1.655 -0.4227  0.2922 -0.0637
34100SOL    HW2 9162   4.883   1.607   1.610  0.4679  1.0091 -0.0872
34101SOL     OW 9163   4.778  11.383   5.372  0.1489  0.4188  0.8724
34101SOL    HW1 9164   4.726  11.305   5.391 -0.8700  0.7869 -0.3096
34101SOL    HW2 9165   4.767  11.397   5.278 -1.1844  3.0033  1.3289
34102SOL     OW 9166   9.139   8.983   2.644 -0.2591 -0.3287  0.5595
34102SOL    HW1 9167   9.053   8.949   2.668  0.0372 -0.5400  1.3584
34102SOL    HW2 9168   9.157   9.052   2.707 -0.6070  0.9664 -0.7099
34103SOL     OW 9169   1.070  10.308  12.405 -0.7596  0.1594 -0.0642
34103SOL    HW1 9170   1.164  10.312  12.424 -0.1105 -0.1227 -2.7635
34103SOL    HW2 9171   1.047  10.216  12.419 -0.3704 -0.0009 -0.4591
34104SOL     OW 9172   7.464   4.633  11.475  0.0341 -0.0430 -0.1822
34104SOL    HW1 9173   7.508   4.642  11.560 -0.6514 -1.4077  0.3500
34104SOL    HW2 9174   7.372   4.621  11.497 -0.2526  0.3093 -1.1578
34105SOL     OW 9175   5.730   8.633   9.023  0.1616 -0.2792  0.5200
34105SOL    HW1 9176   5.654   8.575   9.027  0.1077 -0.3031 -0.5372
34105SOL    HW2 9177   5.701   8.713   9.068 -0.5374 -0.2397  0.0194
34106SOL     OW 9178  12.059  10.636   5.103 -0.3313 -0.1803  0.5028
34106SOL    HW1 9179  12.009  10.666   5.178  0.9025  1.2816  0.7884
34106SOL    HW2 9180  12.130  10.699   5.094  0.0851 -0.8329 -1.3461
34107SOL     OW 9181   0.330   1.211   2.954  0.0984  0.2734 -0.0272
34107SOL    HW1 9182   0.320   1.131   2.903  0.8471  0.7104 -0.8914
34107SOL    HW2 9183   0.313   1.184   3.045 -2.8067 -0.2170 -0.6047
34108SOL     OW 9184   4.967   5.591  11.220 -0.0204  0.2514  0.3725
34108SOL    HW1 9185   4.965   5.685  11.205 -1.2611  0.2402  0.3659
34108SOL    HW2 9186   4.939   5.581  11.311 -1.0472 -0.1529  0.0334
34109SOL     OW 9187   2.920   7.847  12.196  0.3158  0.2252  0.0982
34109SOL    HW1 9188   3.015   7.849  12.182  0.5743 -1.4662  1.3027
34109SOL    HW2 9189   2.895   7.939  12.199  1.9359  0.7110 -0.1573
34110SOL     OW 9190   4.380   8.337   0.695 -0.5655  0.2946  0.8353
34110SOL    HW1 9191   4.314   8.383   0.644 -0.2725  1.0273  1.1000
34110SOL    HW2 9192   4.408   8.264   0.639  0.5130  1.6770 -0.5018
34111SOL     OW 9193  11.632   9.492   0.540 -0.8088 -0.5473 -0.2695
34111SOL    HW1 9194  11.647   9.412   0.489  2.9114 -0.6836  0.6828
34111SOL    HW2 9195  11.638   9.464   0.631 -2.5206  0.4188  0.1802
34112SOL     OW 9196   4.507   5.932  11.786 -0.5982 -0.8098 -0.0682
34112SOL    HW1 9197   4.483   5.839  11.779  1.2905 -1.4539  1.1505
34112SOL    HW2 9198   4.587   5.940  11.735 -0.9711  0.2664 -0.5108
34113SOL     OW 9199   6.347   4.732   6.528  0.7734 -0.2460  0.0332
34113SOL    HW1 9200   6.403   4.808   6.547  0.3717  0.3799 -1.1484
34113SOL    HW2 9201   6.259   4.761   6.553  0.9438 -1.2685  1.9959
34114SOL     OW 9202   5.099   4.996   4.686  0.2280 -0.1279  0.3108
34114SOL    HW1 9203   5.179   5.015   4.734  0.1326  0.0871  0.3831
34114SOL    HW2 9204   5.065   5.081   4.659  0.1961 -0.2371  0.0002
34115SOL     OW 9205  12.480   6.288   7.312  0.0040 -0.1272 -0.2427
34115SOL    HW1 9206  12.425   6.215   7.284 -1.2003 -0.2032  2.1160
34115SOL    HW2 9207  12.436   6.366   7.279  0.5016 -0.3414 -1.4894
34116SOL     OW 9208   4.528   4.712  10.203  0.7775 -0.1434 -0.4273
34116SOL    HW1 9209   4.623   4.699  10.199  0.5930 -1.4020 -2.2365
34116SOL    HW2 9210   4.497   4.680  10.118 -1.2671  0.2831  0.1236
34117SOL     OW 9211   4.171   3.246   1.843  0.0473 -0.0489 -0.5394
34117SOL    HW1 9212   4.248   3.274   1.792  0.2349 -0.4600 -0.4856
34117SOL    HW2 9213   4.122   3.190   1.782 -1.0964  1.5410 -1.1564
34118SOL     OW 9214   6.093   4.768   8.027 -0.3712  0.5884  0.0346
34118SOL    HW1 9215   6.027   4.733   8.087  0.4129 -0.7941  0.1175
34118SOL    HW2 9216   6.043   4.798   7.951 -1.0970 -0.3959  0.1120
34119SOL     OW 9217   8.876   1.038   0.963 -0.4892 -1.1823 -0.2475
34119SOL    HW1 9218   8.936   1.032   1.037 -0.7580 -0.4740  0.0331
34119SOL    HW2 9219   8.871   0.948   0.930  1.6810 -1.0685 -1.0686
34120SOL     OW 9220   8.823   7.745   3.002  0.0406  0.6963 -0.0010
34120SOL    HW1 9221   8.895   7.740   3.065 -0.2069 -1.0471  0.1738
34120SOL    HW2 9222   8.827   7.663   2.953 -0.5105  1.4968 -1.4776
34121SOL     OW 9223   0.227   6.954   1.890  0.0920 -0.3376  1.0563
34121SOL    HW1 9224   0.267   6.877   1.929 -1.0526  0.5174  4.2886
34121SOL    HW2 9225   0.133   6.946   1.910 -0.4909  0.5844 -0.9876
34122SOL     OW 9226   8.172   4.274   8.413  0.3396 -0.0763  0.3898
34122SOL    HW1 9227   8.101   4.332   8.384 -0.7593 -1.2660  0.6300
34122SOL    HW2 9228   8.226   4.330   8.469  1.0065  1.5317 -1.6975
34123SOL     OW 9229   0.938   8.316   8.929 -0.3129  0.7897  0.4542
34123SOL    HW1 9230   0.993   8.307   8.851 -0.1808  0.8274  0.5415
34123SOL    HW2 9231   1.000   8.339   8.999 -0.4537  0.9279  0.5331
34124SOL     OW 9232   7.670   7.935   0.391  0.3168 -0.0515 -0.4638
34124SOL    HW1 9233   7.607   7.883   0.341  1.4264 -1.2329 -0.6846
34124SOL    HW2 9234   7.756   7.905   0.361  1.0004  1.0794  0.2745
34125SOL     OW 9235  12.018   0.991   8.452 -0.2599 -0.6559 -0.1500
34125SOL    HW1 9236  11.976   0.927   8.395 -1.7376  1.5870 -1.7813
34125SOL    HW2 9237  12.089   1.027   8.398 -2.9120  2.9349 -1.6576
34126SOL     OW 9238   1.042   6.856   5.318  0.4721 -0.3503  0.1382
34126SOL    HW1 9239   0.990   6.936   5.314 -1.3118 -1.5021 -2.3403
34126SOL    HW2 9240   1.020   6.818   5.403 -1.8998 -0.1783 -0.3211
34127SOL     OW 9241   3.601   8.066   9.166  0.1346 -0.2834  0.0945
34127SOL    HW1 9242   3.591   7.985   9.115  0.7617 -0.0343 -0.4434
34127SOL    HW2 9243   3.642   8.128   9.105  0.0058  0.3263  0.6130
34128SOL     OW 9244   1.797   4.132   1.692  0.5623  0.3439 -0.7278
34128SOL    HW1 9245   1.726   4.096   1.746  0.0972  1.5314 -0.5095
34128SOL    HW2 9246   1.859   4.060   1.683  0.0269 -0.2770  0.3137
34129SOL     OW 9247   2.828   6.303   7.861 -0.9574  0.2479  0.6145
34129SOL    HW1 9248   2.905   6.341   7.905 -1.4881  0.3244  1.4998
34129SOL    HW2 9249   2.796   6.237   7.922 -1.4349  0.0263  0.1259
34130SOL     OW 9250   9.708   4.452  11.429  0.4650  0.2594 -0.3381
34130SOL    HW1 9251   9.801   4.451  11.409  0.1131 -2.0412 -2.2135
34130SOL    HW2 9252   9.673   4.524  11.376  0.7295 -0.9735 -2.2862
34131SOL     OW 9253   6.458   3.131   6.524 -0.4945 -0.0552 -0.3728
34131SOL    HW1 9254   6.533   3.165   6.474 -0.3023 -0.8859 -0.6785
34131SOL    HW2 9255   6.398   3.205   6.530  0.5023  0.7481  0.2007
34132SOL     OW 9256   7.681   7.160   1.394  0.5034  0.5338 -0.9885
34132SOL    HW1 9257   7.725   7.172   1.309  2.0444  0.8145 -0.1820
34132SOL    HW2 9258   7.752   7.153   1.457 -0.6223  0.2172  0.2862
34133SOL     OW 9259   4.867   2.803   7.408  0.0766  0.3619 -0.0423
34133SOL    HW1 9260   4.863   2.722   7.459 -1.1637  0.1727 -0.4222
34133SOL    HW2 9261   4.830   2.780   7.323  0.4038  1.1532 -0.4099
34134SOL     OW 9262   2.584   5.878   3.462  0.3417  0.0049 -0.3750
34134SOL    HW1 9263   2.590   5.787   3.490  0.6192 -0.5876 -2.2683
34134SOL    HW2 9264   2.500   5.908   3.497  0.8651 -0.5246  1.4283
34135SOL     OW 9265  10.881   2.877  10.678 -0.0743 -0.6300 -0.2998
34135SOL    HW1 9266  10.788   2.896  10.692 -0.0022 -0.8500  0.5219
34135SOL    HW2 9267  10.888   2.783  10.691  0.3290 -0.5605 -0.0164
34136SOL     OW 9268  10.201   3.100   7.845  0.0931 -0.1190 -0.0161
34136SOL    HW1 9269  10.243   3.110   7.759  0.6482  1.0162  0.3727
34136SOL    HW2 9270  10.228   3.013   7.875 -1.0624 -1.0427 -1.4754
34137SOL     OW 9271   8.388   6.810   7.632 -0.0033  0.5598  0.0780
34137SOL    HW1 9272   8.425   6.897   7.647 -0.0858  0.7454 -0.7407
34137SOL    HW2 9273   8.340   6.790   7.712  0.2828  1.1312  0.3969
34138SOL     OW 9274  11.130  10.454   2.448 -0.2098  0.1003 -0.1617
34138SOL    HW1 9275  11.225  10.446   2.448 -0.1534  0.1178 -2.6956
34138SOL    HW2 9276  11.112  10.533   2.499  1.1029 -0.0372  0.5363
34139SOL     OW 9277   5.266   6.123   0.588  0.0213  0.3611 -0.5008
34139SOL    HW1 9278   5.188   6.133   0.532 -0.4605  2.3377  0.4362
34139SOL    HW2 9279   5.257   6.192   0.654  1.7699 -0.4103  0.6084
34140SOL     OW 9280   8.840   0.506   5.249  0.1471  0.0454  0.4497
34140SOL    HW1 9281   8.757   0.549   5.224 -0.0281 -0.9468 -0.7871
34140SOL    HW2 9282   8.901   0.578   5.264 -0.1363  0.7790 -1.5856
34141SOL     OW 9283   5.635  11.113   2.674  0.9452  0.3026 -0.2244
34141SOL    HW1 9284   5.700  11.143   2.738  0.5462  0.2150  0.2221
34141SOL    HW2 9285   5.663  11.023   2.653  0.7705  0.1365  0.2340
34142SOL     OW 9286   0.720   0.211   9.158 -0.3150  0.3342  0.7468
34142SOL    HW1 9287   0.719   0.247   9.247  2.4331 -0.8211  1.3403
34142SOL    HW2 9288   0.779   0.269   9.110 -1.0620  0.4127 -0.0924
34143SOL     OW 9289   7.202  10.454   4.929  0.0366  0.4488 -0.2011
34143SOL    HW1 9290   7.123  10.506   4.946 -0.4591 -0.1546 -0.6238
34143SOL    HW2 9291   7.226  10.419   5.015  0.2681  1.2144  0.0569
34144SOL     OW 9292   2.168   0.899   2.033 -0.8155 -0.0943 -0.4046
34144SOL    HW1 9293   2.156   0.994   2.037  1.2537  0.1810  0.3576
34144SOL    HW2 9294   2.106   0.870   1.966  0.5966  2.2047 -2.9157
34145SOL     OW 9295   7.743  11.483   3.567  0.5547 -0.1504 -0.8019
34145SOL    HW1 9296   7.756  11.472   3.661 -0.9406 -0.1844 -0.5670
34145SOL    HW2 9297   7.741  11.394   3.532  1.3521 -0.1306 -0.9196
34146SOL     OW 9298   4.298   3.999   0.389 -0.3190 -0.3752 -0.1212
34146SOL    HW1 9299   4.219   3.986   0.336 -2.2867  1.1121  2.2244
34146SOL    HW2 9300   4.278   3.956   0.472  1.2080  0.3798  0.6711
34147SOL     OW 9301   3.317   0.393   2.298 -0.9512 -0.1701  0.5541
34147SOL    HW1 9302   3.341   0.484   2.282 -0.0245 -0.1597  1.8486
34147SOL    HW2 9303   3.393   0.356   2.343 -2.3513 -0.8023  2.5536
34148SOL     OW 9304   2.573   2.110   0.564 -0.3312 -0.4963 -0.4728
34148SOL    HW1 9305   2.594   2.097   0.471  0.0211  0.4387 -0.5336
34148SOL    HW2 9306   2.648   2.072   0.610  0.5648  1.0100 -0.6400
34149SOL     OW 9307   2.114   4.564   0.851  0.0935 -0.3028 -0.5807
34149SOL    HW1 9308   2.115   4.657   0.830 -0.9887  0.0711  0.8529
34149SOL    HW2 9309   2.022   4.546   0.872  0.4401 -1.5084 -0.0324
34150SOL     OW 9310  11.286   4.336   4.199  0.1668 -0.1969  0.3060
34150SOL    HW1 9311  11.219   4.390   4.241 -0.8591  0.1149 -1.6309
34150SOL    HW2 9312  11.313   4.386   4.122  1.9385 -0.7732  0.5126
34151SOL     OW 9313  12.293  11.908   3.740 -0.5216  0.1873  0.1772
34151SOL    HW1 9314  12.216  11.951   3.779 -0.3648 -1.1024  2.0517
34151SOL    HW2 9315  12.258  11.829   3.700 -0.1663 -0.6458  1.4460
34152SOL     OW 9316   4.017   1.953   2.608 -0.0595  0.3976  0.0652
34152SOL    HW1 9317   3.998   1.876   2.555  0.5323  1.6503 -2.0920
34152SOL    HW2 9318   3.948   1.953   2.674 -1.7615 -0.4763 -1.5881
34153SOL     OW 9319   2.458   1.383   2.553 -0.0300  0.1828 -0.6905
34153SOL    HW1 9320   2.382   1.440   2.552 -0.9883 -1.0740 -0.9899
34153SOL    HW2 9321   2.430   1.306   2.603  0.7763 -0.6536 -1.4925
34154SOL     OW 9322   1.025   4.212  11.653 -0.2453 -0.0623  0.6783
34154SOL    HW1 9323   1.055   4.254  11.573 -1.1621  1.0187  0.8677
34154SOL    HW2 9324   1.069   4.127  11.654  1.4040  0.7379  0.0871
34155SOL     OW 9325   5.188   0.516   6.359  0.0369 -0.1495 -0.2596
34155SOL    HW1 9326   5.203   0.598   6.406 -0.8710 -0.7430  1.1165
34155SOL    HW2 9327   5.275   0.486   6.336  0.7758 -0.9272  3.0072
34156SOL     OW 9328   3.673   9.546   5.644  0.4739 -0.2287  0.2370
34156SOL    HW1 9329   3.613   9.561   5.571  2.4410 -0.6802 -1.6011
34156SOL    HW2 9330   3.621   9.500   5.710 -1.8437  1.7382 -0.0782
34157SOL     OW 9331   0.835   3.789   8.996  0.2006  0.6313 -0.1503
34157SOL    HW1 9332   0.814   3.696   9.008  0.1777  0.3649 -1.9919
34157SOL    HW2 9333   0.769   3.835   9.048  0.0884 -0.3653  0.6230
34158SOL     OW 9334   9.204  11.574   5.309  0.2846  0.0879 -0.1989
34158SOL    HW1 9335   9.130  11.542   5.257  1.7001 -1.8348 -1.1968
34158SOL    HW2 9336   9.213  11.509   5.379  1.5994 -0.3107 -0.6981
34159SOL     OW 9337   0.300  10.198   4.656 -0.2248  0.1966  0.7678
34159SOL    HW1 9338   0.210  10.172   4.636  0.3338 -0.6595 -0.8747
34159SOL    HW2 9339   0.337  10.123   4.702  0.0970 -0.1108  0.0179
34160SOL     OW 9340   3.138   4.131  11.938 -0.1477  0.1696 -0.4260
34160SOL    HW1 9341   3.174   4.161  11.854  0.2411 -0.2531 -0.4169
34160SOL    HW2 9342   3.154   4.037  11.938  3.1479  0.5523  1.6540
34161SOL     OW 9343  11.485  10.054   6.378 -0.5037  0.4104 -0.3993
34161SOL    HW1 9344  11.549  10.078   6.445 -2.2096  1.6378  0.8987
34161SOL    HW2 9345  11.515  10.097   6.298  1.3313 -0.7107 -0.3673
34162SOL     OW 9346   0.987   0.281   9.082  0.3827  0.0231  0.0123
34162SOL    HW1 9347   0.989   0.186   9.087  0.8953 -0.0696 -1.4959
34162SOL    HW2 9348   1.069   0.305   9.038  0.8939  1.2658  1.5355
34163SOL     OW 9349  12.340   7.916   8.930  0.2375 -0.0895  0.3050
34163SOL    HW1 9350  12.287   7.851   8.976  0.0030  0.7944  1.3256
34163SOL    HW2 9351  12.390   7.865   8.866 -1.3646 -1.0147 -0.2471
34164SOL     OW 9352   7.285  12.275  12.400  1.2472  0.2858  0.6188
34164SOL    HW1 9353   7.341  12.219  12.347  0.0883 -1.1420  0.8039
34164SOL    HW2 9354   7.199  12.233  12.395  0.2078  2.3083  0.4507
34165SOL     OW 9355  12.415   0.887  10.679 -0.4575  0.0731 -0.2897
34165SOL    HW1 9356  12.470   0.818  10.641 -1.7432 -1.4219  0.4009
34165SOL    HW2 9357  12.449   0.968  10.643  1.7539 -0.8288 -0.4029
34166SOL     OW 9358   1.570  11.541   3.066  0.4319 -0.0488 -0.0406
34166SOL    HW1 9359   1.606  11.581   3.145 -0.1931  0.7863 -0.1632
34166SOL    HW2 9360   1.503  11.481   3.098 -0.3393  0.8331  0.0531
34167SOL     OW 9361   7.096   7.251   8.679 -0.1786 -0.1764 -1.2059
34167SOL    HW1 9362   7.174   7.305   8.665  1.2063 -1.5001  0.8953
34167SOL    HW2 9363   7.023   7.307   8.650  1.2119  2.6515  0.3158
34168SOL     OW 9364  12.122   8.547   2.908  0.1107  1.1249  0.0370
34168SOL    HW1 9365  12.063   8.476   2.882  0.1587 -0.5399  3.7979
34168SOL    HW2 9366  12.066   8.612   2.949  0.4485  1.6051 -0.2490
34169SOL     OW 9367   4.444   4.105   8.772  0.1077 -0.4896  0.6749
34169SOL    HW1 9368   4.416   4.132   8.685  1.4997 -0.4116  0.2147
34169SOL    HW2 9369   4.464   4.187   8.817 -0.9148 -0.5152  1.1875
34170SOL     OW 9370  12.458   7.851   2.792 -0.5660 -0.5098  0.4161
34170SOL    HW1 9371  12.444   7.757   2.784 -1.1423 -0.3762 -0.2044
34170SOL    HW2 9372  12.413   7.889   2.717 -0.2141  0.2535  0.5771
34171SOL     OW 9373  11.650  11.055   7.794 -0.2448 -0.1901 -0.3194
34171SOL    HW1 9374  11.637  11.038   7.887  2.1742  1.9028  0.5129
34171SOL    HW2 9375  11.644  11.150   7.786 -0.1703 -0.3098 -2.2687
34172SOL     OW 9376   7.838   8.039   1.683  0.7857 -0.2588  0.5724
34172SOL    HW1 9377   7.851   8.115   1.626 -0.4423 -0.1975  0.3369
34172SOL    HW2 9378   7.806   7.971   1.625 -0.5209 -0.1855  1.1507
34173SOL     OW 9379  12.027   3.464   7.758 -0.5317 -0.2059  0.6360
34173SOL    HW1 9380  12.085   3.521   7.809  0.6034 -1.1576  0.4315
34173SOL    HW2 9381  11.988   3.522   7.693  1.5231  0.1323 -0.3556
34174SOL     OW 9382  11.488  12.233  10.506 -0.4181 -0.0638  0.1211
34174SOL    HW1 9383  11.529  12.307  10.463  0.9324 -0.1706  1.1460
34174SOL    HW2 9384  11.550  12.207  10.574 -1.1728 -1.6857  0.2527
34175SOL     OW 9385   3.264   2.992   1.183  0.3660  0.0728 -0.3125
34175SOL    HW1 9386   3.304   2.978   1.269 -2.6833 -2.3810  0.9328
34175SOL    HW2 9387   3.326   3.046   1.135  2.2458  1.5267  3.4107
34176SOL     OW 9388   5.946   0.366   3.730 -0.6639 -0.0253 -0.3574
34176SOL    HW1 9389   5.904   0.313   3.662  0.9967  0.8377 -2.1270
34176SOL    HW2 9390   6.015   0.310   3.765 -0.9623 -0.1487  0.0534
34177SOL     OW 9391   6.528   1.748   9.969  0.4717 -0.0402  0.4005
34177SOL    HW1 9392   6.509   1.799   9.891  1.1473 -0.7433 -0.2532
34177SOL    HW2 9393   6.583   1.805  10.023 -1.0916  0.9407  1.0005
34178SOL     OW 9394   2.845   6.861   1.033 -0.1873  0.1984 -0.3746
34178SOL    HW1 9395   2.830   6.835   1.124  2.9383 -0.8095 -0.0210
34178SOL    HW2 9396   2.781   6.812   0.982 -1.5209  0.2364  1.2041
34179SOL     OW 9397  10.924   9.872   1.785  0.1153 -0.3468 -0.3879
34179SOL    HW1 9398  10.968   9.880   1.870 -0.8732 -0.9452  0.1965
34179SOL    HW2 9399  10.911   9.962   1.756  0.7208 -0.1445 -0.0542
34180SOL     OW 9400   0.773   2.319   1.595 -0.7192 -0.1755 -0.1816
34180SOL    HW1 9401   0.823   2.264   1.655 -0.7880 -2.2607 -1.9046
34180SOL    HW2 9402   0.686   2.325   1.635  0.2241  1.7883  1.8129
34181SOL     OW 9403   2.100   1.918  12.197  0.7298  0.8684 -0.1118
34181SOL    HW1 9404   2.178   1.889  12.150 -0.4332 -2.1624 -0.3538
34181SOL    HW2 9405   2.122   1.907  12.289  1.0307  1.3752 -0.1156
34182SOL     OW 9406   8.832   5.619  10.959  0.2406 -0.0159  0.2172
34182SOL    HW1 9407   8.846   5.600  10.866  0.0448  0.4462  0.0925
34182SOL    HW2 9408   8.743   5.588  10.976 -0.1857  1.0420 -0.0570
34183SOL     OW 9409   1.803  10.159   1.934  0.1945  0.1182 -0.5728
34183SOL    HW1 9410   1.719  10.202   1.945  0.0850 -0.1411 -0.3817
34183SOL    HW2 9411   1.798  10.118   1.848 -0.4233 -1.0839  0.0027
34184SOL     OW 9412   2.630   4.506   5.817 -0.6195  0.0605 -0.1382
34184SOL    HW1 9413   2.680   4.427   5.799 -0.5202  0.3886 -1.3745
34184SOL    HW2 9414   2.693   4.577   5.810 -0.5099  0.2164  1.8491
34185SOL     OW 9415   1.818   9.226   9.167  0.6110  0.1215 -0.4048
34185SOL    HW1 9416   1.875   9.302   9.162 -0.2906  0.8908  0.4534
34185SOL    HW2 9417   1.856   9.173   9.238  1.6676 -0.6274 -1.4983
34186SOL     OW 9418   0.198   7.179   1.612  0.1416 -0.5442  0.1075
34186SOL    HW1 9419   0.253   7.252   1.641  4.0213 -2.9905 -0.3718
34186SOL    HW2 9420   0.135   7.167   1.683  0.8202  1.8027  1.2133
34187SOL     OW 9421  10.641   6.170   6.618 -0.3384 -0.1475 -0.5210
34187SOL    HW1 9422  10.580   6.185   6.690  0.0236  0.9061 -0.4169
34187SOL    HW2 9423  10.631   6.246   6.561 -1.2243 -1.3540 -2.0559
34188SOL     OW 9424   9.949  11.519   0.453 -0.3830 -0.0169  0.0628
34188SOL    HW1 9425   9.889  11.579   0.409 -1.3316 -0.1127  1.1714
34188SOL    HW2 9426  10.036  11.555   0.435 -0.8880  1.2810  0.0886
34189SOL     OW 9427   3.728   6.671   5.414  0.0663 -0.4524  0.7420
34189SOL    HW1 9428   3.650   6.676   5.359 -1.4126 -0.6286  2.7114
34189SOL    HW2 9429   3.797   6.713   5.363 -1.3029 -0.3150 -1.0712
34190SOL     OW 9430  10.259   5.712   4.434 -0.0547 -0.1709  0.8499
34190SOL    HW1 9431  10.273   5.673   4.520 -1.1784 -0.0809  1.0814
34190SOL    HW2 9432  10.237   5.804   4.452 -1.0630 -0.3367  0.5251
34191SOL     OW 9433   2.098   6.585   8.930  0.0230  0.5223 -0.0786
34191SOL    HW1 9434   2.013   6.619   8.956 -0.7903 -0.5322 -1.2560
34191SOL    HW2 9435   2.121   6.521   8.998  0.0731  1.0861  0.4439
34192SOL     OW 9436  12.128   6.762   9.349 -0.3552  0.4994  0.9498
34192SOL    HW1 9437  12.104   6.772   9.441 -2.6058  2.6250  0.2523
34192SOL    HW2 9438  12.211   6.809   9.342 -2.2021  4.2538  1.2546
34193SOL     OW 9439   1.707   7.635   9.207  0.1298  0.0607 -0.2483
34193SOL    HW1 9440   1.740   7.578   9.138  2.5978  0.1177  0.7724
34193SOL    HW2 9441   1.784   7.654   9.260 -1.4057  1.2018  1.6783
34194SOL     OW 9442   5.310   1.265   8.039  0.2354  0.3405  0.5794
34194SOL    HW1 9443   5.356   1.184   8.016  1.3734  0.7210  1.4231
34194SOL    HW2 9444   5.219   1.239   8.052  0.8132 -1.0505  2.0851
34195SOL     OW 9445   4.708   4.119   6.355  0.6987 -0.3326  0.1448
34195SOL    HW1 9446   4.786   4.065   6.372  0.4518 -1.1789 -1.2613
34195SOL    HW2 9447   4.741   4.195   6.308  0.6561 -0.8542 -0.7496
34196SOL     OW 9448   4.675   7.051   8.820  0.0866  0.2158  0.3625
34196SOL    HW1 9449   4.666   7.013   8.907  0.3832  0.1893  0.3819
34196SOL    HW2 9450   4.631   6.989   8.762 -0.7315  0.5751  0.5738
34197SOL     OW 9451   9.589   9.525   0.623 -0.1820 -0.8011  0.5203
34197SOL    HW1 9452   9.670   9.521   0.674 -1.1841  0.3025  2.3006
34197SOL    HW2 9453   9.525   9.478   0.675 -0.4726 -2.8451 -1.4963
34198SOL     OW 9454   2.405   8.200   1.244  0.3774  0.1568  0.0572
34198SOL    HW1 9455   2.357   8.280   1.225  0.2864 -0.1869 -1.2638
34198SOL    HW2 9456   2.490   8.213   1.203 -0.0021 -0.8151 -1.1125
34199SOL     OW 9457   9.861   1.747   0.625 -0.2814  0.4662 -0.4001
34199SOL    HW1 9458   9.879   1.668   0.675  0.7209  1.0876  0.2452
34199SOL    HW2 9459   9.768   1.741   0.604 -0.5086 -0.2586  0.7309
34200SOL     OW 9460   2.210   5.295   9.906 -0.5789  0.1106 -0.5211
34200SOL    HW1 9461   2.270   5.343   9.848  0.1832 -0.8095 -0.5065
34200SOL    HW2 9462   2.245   5.206   9.909  0.6455  0.5759  3.0269
34201SOL     OW 9463   2.106   7.932   5.537  0.3683  0.1971  0.7525
34201SOL    HW1 9464   2.018   7.936   5.500 -0.1786 -0.3505  1.9472
34201SOL    HW2 9465   2.149   7.860   5.489  0.1535  0.4326  0.2033
34202SOL     OW 9466   4.199   8.497  12.247  0.4487  0.2539 -0.4013
34202SOL    HW1 9467   4.250   8.560  12.297  1.0653  1.3875 -2.3218
34202SOL    HW2 9468   4.142   8.455  12.311  0.1152  2.6732  1.0045
34203SOL     OW 9469   4.813   6.577   5.320 -0.3368  0.4002  0.1852
34203SOL    HW1 9470   4.755   6.574   5.396 -2.9409  1.1715 -1.6294
34203SOL    HW2 9471   4.820   6.486   5.291 -0.5783  0.2854  0.4803
34204SOL     OW 9472   3.608   1.802   8.221 -0.1580  0.0982 -0.6083
34204SOL    HW1 9473   3.575   1.825   8.134 -0.4420 -0.3083 -0.6086
34204SOL    HW2 9474   3.644   1.714   8.210 -0.3428 -0.0182 -0.2745
34205SOL     OW 9475   1.707   9.535   2.243  0.1410 -0.2356 -0.3185
34205SOL    HW1 9476   1.663   9.539   2.328 -1.4877 -0.2278 -1.1196
34205SOL    HW2 9477   1.656   9.593   2.187  2.1195  1.0110 -0.9402
34206SOL     OW 9478   5.657  10.506   7.432 -0.0703 -0.3648 -0.2958
34206SOL    HW1 9479   5.627  10.594   7.454 -0.4362  0.0710 -2.3852
34206SOL    HW2 9480   5.577  10.455   7.419 -0.0731  0.3108 -3.9480
34207SOL     OW 9481   9.208   0.783   2.029  0.3934  0.0612  0.4251
34207SOL    HW1 9482   9.280   0.759   2.088 -0.4518 -1.2991  0.9537
34207SOL    HW2 9483   9.136   0.805   2.087  0.8117  3.1990 -0.0436
34208SOL     OW 9484   8.595   4.887   9.989 -0.7444  0.0832 -0.1478
34208SOL    HW1 9485   8.634   4.931   9.914 -1.4587 -1.9645 -1.8026
34208SOL    HW2 9486   8.553   4.958  10.038  1.3884  1.7391 -0.5590
34209SOL     OW 9487   8.919   4.623   8.266 -0.1708 -0.3843 -0.2947
34209SOL    HW1 9488   8.981   4.619   8.193 -1.6830  1.0566 -1.7466
34209SOL    HW2 9489   8.873   4.706   8.254 -1.2627 -0.6431  1.6716
34210SOL     OW 9490   0.419   9.364   2.136  0.2444 -0.6472  0.4264
34210SOL    HW1 9491   0.484   9.432   2.154 -0.2281 -0.1436  0.2515
34210SOL    HW2 9492   0.376   9.348   2.220 -0.1416 -0.2091  0.3108
34211SOL     OW 9493   2.018   5.375   4.390  0.0751 -0.3572 -0.2035
34211SOL    HW1 9494   2.051   5.320   4.461  0.3756  1.4836  1.1778
34211SOL    HW2 9495   2.075   5.452   4.391 -0.9112  0.4353 -1.4022
34212SOL     OW 9496   9.572  12.064   5.493 -0.3767  0.3878 -0.8408
34212SOL    HW1 9497   9.656  12.107   5.476 -0.7825  0.8640 -1.6914
34212SOL    HW2 9498   9.587  12.013   5.572  0.3648  1.4203 -0.2951
34213SOL     OW 9499  12.216   9.815   7.670 -0.5213 -0.4302 -0.5018
34213SOL    HW1 9500  12.247   9.903   7.652 -0.3752  0.2010  2.3439
34213SOL    HW2 9501  12.297   9.763   7.679 -0.5852 -0.6734 -1.2317
34214SOL     OW 9502   8.804   8.389   8.148  0.0243  0.6883  0.3256
34214SOL    HW1 9503   8.728   8.338   8.118 -0.3166  1.1927  0.3242
34214SOL    HW2 9504   8.826   8.351   8.233 -0.0186  0.3164  0.1726
34215SOL     OW 9505  11.461   6.974  11.540  0.0122  0.3581 -0.1137
34215SOL    HW1 9506  11.391   6.998  11.480 -0.8172 -1.6317 -0.0277
34215SOL    HW2 9507  11.467   7.047  11.602 -1.5787  0.8220 -0.4827
34216SOL     OW 9508  11.028   4.476   2.583 -1.0289  0.1291 -0.5340
34216SOL    HW1 9509  11.122   4.490   2.573 -1.0326  0.7243  0.1806
34216SOL    HW2 9510  11.021   4.399   2.639 -0.8904  1.8897  2.0811
34217SOL     OW 9511   7.993   6.438   1.340 -0.3480 -0.2522 -0.1265
34217SOL    HW1 9512   8.031   6.402   1.420  1.3278 -1.0516 -1.2306
34217SOL    HW2 9513   7.898   6.433   1.355 -0.0822 -0.5772  1.7036
34218SOL     OW 9514   4.998  12.411   1.058 -0.0208 -0.2206 -0.6125
34218SOL    HW1 9515   5.084  12.368   1.063  1.3919  2.2251 -1.8718
34218SOL    HW2 9516   4.945  12.351   1.006  1.2141 -1.3474 -0.6511
34219SOL     OW 9517   0.894   4.792  12.480 -0.0742  0.3536 -0.8824
34219SOL    HW1 9518   0.885   4.877  12.523 -0.0724 -0.8192  1.6100
34219SOL    HW2 9519   0.979   4.760  12.509 -1.1503 -1.5622  0.3869
34220SOL     OW 9520   1.010   9.010   0.537  0.3824 -0.1164  0.0342
34220SOL    HW1 9521   0.970   9.078   0.591 -0.7103 -0.4929 -0.2753
34220SOL    HW2 9522   1.056   8.954   0.600  1.6563  1.1151  0.2502
34221SOL     OW 9523   1.280   5.367   3.105 -0.1720  0.5574  0.0238
34221SOL    HW1 9524   1.279   5.338   3.196  0.7350 -0.4190 -0.2514
34221SOL    HW2 9525   1.346   5.436   3.102 -1.3453  1.7330  0.4040
34222SOL     OW 9526   3.879   9.326   5.928 -0.1446  0.8155  0.0472
34222SOL    HW1 9527   3.906   9.358   5.842  1.0988  0.2735  0.2157
34222SOL    HW2 9528   3.912   9.236   5.932 -0.8871  0.5587  0.7878
34223SOL     OW 9529  10.203   9.974   1.794  1.0305 -0.1446 -0.4443
34223SOL    HW1 9530  10.248  10.045   1.749  1.0448  1.0541  1.3190
34223SOL    HW2 9531  10.181  10.011   1.880 -2.3246 -1.0346 -0.7912
34224SOL     OW 9532   5.233   2.873   1.644  0.1353  0.0657  0.1665
34224SOL    HW1 9533   5.268   2.934   1.709  2.7415 -0.8751 -0.2280
34224SOL    HW2 9534   5.207   2.796   1.695  2.2979 -0.7244  0.1970
34225SOL     OW 9535   4.680   8.719  10.967 -0.1883 -0.5544 -0.8249
34225SOL    HW1 9536   4.746   8.772  10.924 -1.0390  0.1933 -1.2375
34225SOL    HW2 9537   4.687   8.741  11.060  1.1576 -1.6275 -0.6445
34226SOL     OW 9538   6.269   5.581  10.596 -0.1063 -0.3432  0.1004
34226SOL    HW1 9539   6.200   5.520  10.571  2.6592 -2.9619 -1.9305
34226SOL    HW2 9540   6.275   5.643  10.523  0.8712 -1.2917 -0.6467
34227SOL     OW 9541   5.066   5.365  11.831 -0.2782 -0.0668 -0.5094
34227SOL    HW1 9542   5.080   5.446  11.781  2.7109 -0.6569 -0.8006
34227SOL    HW2 9543   5.074   5.392  11.923 -0.0493  0.0904 -0.5748
34228SOL     OW 9544   0.721   2.449   9.747 -0.4930 -0.2031 -0.6948
34228SOL    HW1 9545   0.776   2.467   9.822 -0.2750  1.4346 -1.1994
34228SOL    HW2 9546   0.684   2.362   9.763  0.6816 -0.4857  0.5808
34229SOL     OW 9547  11.540   4.541  10.565  0.5700 -0.2360 -0.1900
34229SOL    HW1 9548  11.606   4.479  10.596 -1.7400 -2.1648  1.2072
34229SOL    HW2 9549  11.470   4.486  10.528 -0.9623  1.5826 -0.1522
34230SOL     OW 9550   9.838  11.467   8.345  0.1599 -0.0472 -0.1838
34230SOL    HW1 9551   9.795  11.518   8.276  1.6754 -1.1352 -2.0612
34230SOL    HW2 9552   9.909  11.523   8.376 -1.0788  0.8095  1.2192
34231SOL     OW 9553   1.544   5.646   3.415 -0.0142  0.1554  0.0649
34231SOL    HW1 9554   1.619   5.644   3.475 -0.5293  3.8239  1.1155
34231SOL    HW2 9555   1.581   5.629   3.329  1.6973  0.0550  0.7912
34232SOL     OW 9556  10.791   9.969   0.807 -0.6097 -0.3588 -0.0621
34232SOL    HW1 9557  10.868   9.956   0.752  0.4072 -1.7912  1.6034
34232SOL    HW2 9558  10.724   9.911   0.770 -0.7183  0.4248 -1.1391
34233SOL     OW 9559   4.392   8.023   0.867 -0.2739  0.2874  0.6214
34233SOL    HW1 9560   4.461   7.977   0.914  1.6859  2.0061 -0.4166
34233SOL    HW2 9561   4.359   8.087   0.930 -0.3297  0.0410  0.8445
34234SOL     OW 9562   0.943   8.594   0.574  0.5552  0.1301  0.2592
34234SOL    HW1 9563   0.883   8.651   0.526 -0.6833 -0.7979  0.6311
34234SOL    HW2 9564   0.962   8.522   0.514  1.9672  0.8069 -0.1440
34235SOL     OW 9565   2.987   7.589   0.651 -0.3130  0.1991 -0.2638
34235SOL    HW1 9566   2.912   7.532   0.636 -0.8234  0.6727  0.4025
34235SOL    HW2 9567   3.018   7.564   0.738  0.8986 -0.6351 -0.9033
34236SOL     OW 9568  10.924   0.553   4.155  0.0100  0.5352 -0.1984
34236SOL    HW1 9569  11.010   0.582   4.123 -0.1113 -0.3070 -1.3415
34236SOL    HW2 9570  10.896   0.488   4.091 -1.0304  0.0542  0.7283
34237SOL     OW 9571   5.607   6.778   9.365 -0.1436 -0.1223 -0.4796
34237SOL    HW1 9572   5.639   6.832   9.293 -0.6597 -1.3918 -1.7123
34237SOL    HW2 9573   5.513   6.797   9.370 -0.1379 -0.1492 -0.2293
34238SOL     OW 9574   5.946  11.927   7.061  0.0338  0.7184  0.5063
34238SOL    HW1 9575   5.944  11.957   6.970 -0.0080  0.2992  0.3669
34238SOL    HW2 9576   6.026  11.965   7.097 -0.4221  1.6517  0.5654
34239SOL     OW 9577   7.524   4.318   2.575  0.6253  0.5081  0.1520
34239SOL    HW1 9578   7.470   4.385   2.618  0.5142  0.1268  0.6076
34239SOL    HW2 9579   7.462   4.249   2.552  0.7900  0.4295 -0.0559
34240SOL     OW 9580   0.402  10.157   1.321 -0.3233  0.4545 -0.2348
34240SOL    HW1 9581   0.437  10.214   1.390 -0.0519  0.7378 -0.6087
34240SOL    HW2 9582   0.330  10.207   1.283  0.2150  0.7430 -0.8773
34241SOL     OW 9583   1.476   9.042  10.311  0.4662 -0.3562  0.2148
34241SOL    HW1 9584   1.456   9.100  10.384  0.6217 -2.4484  2.0089
34241SOL    HW2 9585   1.449   8.955  10.341  1.8816 -1.5220 -1.6606
34242SOL     OW 9586   3.425   6.606   3.548 -0.1250  0.0468  0.1981
34242SOL    HW1 9587   3.363   6.670   3.514  0.2686  0.8428  0.9449
34242SOL    HW2 9588   3.374   6.525   3.558 -0.3601 -0.1033 -1.8092
34243SOL     OW 9589   7.746   7.117   9.961 -0.2346 -0.1444 -0.1666
34243SOL    HW1 9590   7.678   7.151  10.019 -0.6616 -0.4299 -0.4935
34243SOL    HW2 9591   7.726   7.023   9.954 -1.2468  0.1626 -2.1620
34244SOL     OW 9592   3.554   4.600  11.161 -0.5498  0.2017 -0.2396
34244SOL    HW1 9593   3.503   4.631  11.236 -0.7925  0.3995 -0.4871
34244SOL    HW2 9594   3.503   4.626  11.085  0.7465  1.9388 -0.5696
34245SOL     OW 9595   4.818   3.601   7.953  0.4734 -0.1345 -0.2643
34245SOL    HW1 9596   4.843   3.611   8.045  1.0461  1.1334 -0.5274
34245SOL    HW2 9597   4.771   3.682   7.933  0.5066 -0.3281 -1.1414
34246SOL     OW 9598   1.249   6.819   0.256  0.2559 -0.1059  0.0547
34246SOL    HW1 9599   1.322   6.807   0.316  0.4191 -0.1476 -0.1492
34246SOL    HW2 9600   1.186   6.751   0.281  1.0728 -1.2732 -0.9270
34247SOL     OW 9601  10.858   7.101   0.955 -0.3986  0.1138 -0.9934
34247SOL    HW1 9602  10.808   7.179   0.978 -1.7113 -1.4680  2.1383
34247SOL    HW2 9603  10.945   7.116   0.991 -0.7039  0.0779 -0.2290
34248SOL     OW 9604  12.449   3.356   8.838  0.1375  0.8659 -0.2600
34248SOL    HW1 9605  12.412   3.438   8.807 -1.7198  0.5831  1.0896
34248SOL    HW2 9606  12.510   3.381   8.907  1.1416  1.1966 -1.2202
34249SOL     OW 9607   4.225   6.203   0.063 -0.0027  0.0950 -0.4284
34249SOL    HW1 9608   4.172   6.144   0.009  0.3204 -0.9667  0.3823
34249SOL    HW2 9609   4.315   6.177   0.047  0.0596 -0.9380  1.3661
34250SOL     OW 9610   6.312   2.180   9.430  0.0420  0.2282 -0.1425
34250SOL    HW1 9611   6.283   2.104   9.381 -0.9194 -0.7062  1.7493
34250SOL    HW2 9612   6.394   2.152   9.472 -1.0118 -0.3142  1.6577
34251SOL     OW 9613   4.784   7.466   9.850  0.0285 -0.3928 -0.2075
34251SOL    HW1 9614   4.696   7.502   9.850 -0.7884 -1.9906  3.2483
34251SOL    HW2 9615   4.773   7.375   9.878  2.6979 -0.8690 -0.4169
34252SOL     OW 9616  10.932   7.535   1.964 -0.0190  0.2061 -0.0674
34252SOL    HW1 9617  11.001   7.506   2.023 -1.2141  0.8216  1.6881
34252SOL    HW2 9618  10.964   7.510   1.877  2.4360  0.5374  0.6604
34253SOL     OW 9619   2.044   7.046   7.646  0.1584  0.1010  0.3353
34253SOL    HW1 9620   2.126   7.095   7.639 -0.3514  1.0427  0.8252
34253SOL    HW2 9621   2.065   6.971   7.702  0.1882  1.4959  2.2910
34254SOL     OW 9622   8.423  10.448   6.870  0.3183 -0.3758 -0.2720
34254SOL    HW1 9623   8.498  10.460   6.928  0.5794 -1.3339 -0.3902
34254SOL    HW2 9624   8.444  10.499   6.792 -1.0543  2.8780  1.2714
34255SOL     OW 9625   0.304   8.203   9.806 -0.0421 -0.4166 -0.3774
34255SOL    HW1 9626   0.350   8.284   9.828 -0.9955 -0.1601  0.8070
34255SOL    HW2 9627   0.359   8.161   9.740  0.4257  1.2349 -1.0961
34256SOL     OW 9628   3.698  11.781   9.975 -0.1102  0.4972  0.5833
34256SOL    HW1 9629   3.653  11.726   9.910 -1.7249  0.2702  1.8178
34256SOL    HW2 9630   3.781  11.737   9.990 -1.4410 -1.8638  1.7350
34257SOL     OW 9631   2.923  10.126   6.112  0.2578 -0.1039 -0.1029
34257SOL    HW1 9632   2.926  10.186   6.037  0.3493 -0.4837 -0.4047
34257SOL    HW2 9633   2.924  10.039   6.073  1.0382 -0.3151  0.3535
34258SOL     OW 9634   1.189   2.946   2.416 -0.1259 -0.0533  0.7571
34258SOL    HW1 9635   1.146   2.905   2.341 -2.0810  0.9964  1.2441
34258SOL    HW2 9636   1.122   3.004   2.453  1.2725  0.5529  2.4377
34259SOL     OW 9637   2.101   5.746   9.068 -0.6964 -0.2930 -0.2688
34259SOL    HW1 9638   2.168   5.737   9.000 -1.0303 -0.1168 -0.6273
34259SOL    HW2 9639   2.131   5.691   9.139 -0.4293 -0.6208 -0.6336
34260SOL     OW 9640   0.190   5.204   8.001  0.0876 -0.3366  0.4222
34260SOL    HW1 9641   0.137   5.196   8.081 -1.0328 -1.5872 -0.3853
34260SOL    HW2 9642   0.238   5.121   7.996  2.4236  0.8778  1.2744
34261SOL     OW 9643   9.036   0.872  11.870  0.1991 -0.1057 -0.2432
34261SOL    HW1 9644   9.064   0.950  11.822  1.1057 -0.9827 -1.1775
34261SOL    HW2 9645   8.940   0.881  11.875  0.2093  0.6344 -1.0988
34262SOL     OW 9646  12.071  10.159   2.081  0.6047  0.0285  0.5384
34262SOL    HW1 9647  12.111  10.138   1.997 -0.0821 -1.9977  0.6703
34262SOL    HW2 9648  12.120  10.107   2.145  0.5477  0.8750  1.2892
34263SOL     OW 9649   3.370   8.527  12.217  0.2538  0.4442  0.1806
34263SOL    HW1 9650   3.436   8.463  12.191  0.2378  0.5433 -0.1000
34263SOL    HW2 9651   3.288   8.492  12.184  0.0061 -0.1917  1.3886
34264SOL     OW 9652   2.521   3.752   0.406 -0.0593 -0.1258  0.4750
34264SOL    HW1 9653   2.569   3.728   0.486 -1.1522 -0.2314  1.1239
34264SOL    HW2 9654   2.535   3.678   0.347  0.6421 -0.1137  0.6136
34265SOL     OW 9655   0.466   9.347   0.448  0.4262  0.6521  0.1486
34265SOL    HW1 9656   0.516   9.415   0.403 -1.0636  1.7056 -0.0171
34265SOL    HW2 9657   0.388   9.335   0.394 -0.9083  1.2078  1.8504
34266SOL     OW 9658  10.662   0.273   2.508  0.6661  0.0753  0.3157
34266SOL    HW1 9659  10.741   0.282   2.455 -0.5024 -0.3444 -1.5883
34266SOL    HW2 9660  10.651   0.179   2.520 -0.1855  0.0599 -0.4860
34267SOL     OW 9661   4.573  12.207   2.400  0.1025  0.2918 -0.5477
34267SOL    HW1 9662   4.534  12.125   2.431 -0.2796  0.3883 -0.7676
34267SOL    HW2 9663   4.665  12.201   2.427  0.1068 -0.2632 -0.6606
34268SOL     OW 9664   7.233  10.398  12.299 -0.0064  0.5403  0.4848
34268SOL    HW1 9665   7.162  10.389  12.363  0.1415 -0.7388  0.5075
34268SOL    HW2 9666   7.296  10.456  12.340  1.1352 -1.9602  2.5244
34269SOL     OW 9667   4.449   8.661   1.361  0.3222 -0.5355  0.0475
34269SOL    HW1 9668   4.372   8.716   1.345  0.1030 -0.9081 -0.1995
34269SOL    HW2 9669   4.480   8.638   1.273  1.9890  1.3516  0.0784
34270SOL     OW 9670   8.354   3.085   4.436  0.2647  0.7106 -0.0023
34270SOL    HW1 9671   8.331   3.178   4.440  0.3464  0.8451 -1.9180
34270SOL    HW2 9672   8.294   3.048   4.371 -0.1930 -0.7342  1.1874
34271SOL     OW 9673   0.733  10.215  11.512 -0.2493  0.2725 -0.4452
34271SOL    HW1 9674   0.754  10.121  11.514  0.0446  0.2411  3.6816
34271SOL    HW2 9675   0.665  10.223  11.445  2.0457 -2.2228 -3.3334
34272SOL     OW 9676  11.537   3.782   5.219 -0.4561  0.2449  0.1407
34272SOL    HW1 9677  11.561   3.815   5.132  0.1901  0.3825  0.3662
34272SOL    HW2 9678  11.458   3.731   5.204  0.0157 -0.2825 -0.6457
34273SOL     OW 9679   0.569   4.903  12.350 -0.0934  0.1087  0.3820
34273SOL    HW1 9680   0.653   4.861  12.372 -0.2648 -0.5156 -0.1518
34273SOL    HW2 9681   0.519   4.835  12.305 -0.0664  1.1150 -1.2387
34274SOL     OW 9682  10.961   5.778   7.848  0.0421 -0.0272  0.5139
34274SOL    HW1 9683  10.951   5.684   7.863  0.9016 -0.3495 -0.8109
34274SOL    HW2 9684  10.881   5.804   7.801  0.7471 -0.5529 -1.0327
34275SOL     OW 9685   8.992  11.586  10.154 -0.3222 -0.5683 -0.9704
34275SOL    HW1 9686   9.065  11.525  10.162 -0.0113 -0.1083 -0.0692
34275SOL    HW2 9687   8.922  11.546  10.205 -0.0579 -0.1184 -0.2197
34276SOL     OW 9688   7.339   8.566  12.119  0.4358  0.4545 -0.0193
34276SOL    HW1 9689   7.244   8.575  12.127  0.4977  1.2655 -0.1211
34276SOL    HW2 9690   7.352   8.522  12.036  0.1291 -0.2447  0.2921
34277SOL     OW 9691  12.340   5.018  10.495  0.3163 -0.2358 -0.6619
34277SOL    HW1 9692  12.374   5.005  10.584  0.7028 -2.3166 -1.0701
34277SOL    HW2 9693  12.262   4.964  10.491 -0.8871  1.4429 -0.9921
34278SOL     OW 9694   8.870   5.069   4.388 -0.5520  0.0056 -0.1050
34278SOL    HW1 9695   8.858   5.056   4.294  0.6715 -1.5273 -0.0800
34278SOL    HW2 9696   8.801   5.016   4.429  1.2102 -2.3979 -0.1065
34279SOL     OW 9697   5.753   7.241   4.289 -0.3300  0.1185  0.2340
34279SOL    HW1 9698   5.674   7.220   4.338  0.9314 -2.0897  1.4953
34279SOL    HW2 9699   5.749   7.184   4.212  0.6300 -1.0336  1.0005
34280SOL     OW 9700   0.173   5.023  10.972 -0.7194  0.3049  0.1427
34280SOL    HW1 9701   0.171   4.943  10.919 -0.5712  0.6334 -0.3646
34280SOL    HW2 9702   0.166   5.094  10.908  0.4753  0.7411  0.4717
34281SOL     OW 9703  12.221   9.806   1.338 -0.4243 -0.1699 -0.0468
34281SOL    HW1 9704  12.218   9.766   1.425 -1.2445 -0.1606 -0.0580
34281SOL    HW2 9705  12.262   9.739   1.283  0.3042 -0.0898  0.3845
34282SOL     OW 9706   9.092   1.960   0.102  0.0357  0.5815 -0.0548
34282SOL    HW1 9707   9.058   1.938   0.189 -0.5559 -0.5805 -0.5602
34282SOL    HW2 9708   9.102   1.876   0.058  2.2621  0.9845 -0.4361
34283SOL     OW 9709   9.321   4.581  10.818  0.3999  0.8475  0.2545
34283SOL    HW1 9710   9.247   4.641  10.814  0.3783  0.9092  1.3884
34283SOL    HW2 9711   9.347   4.570  10.727 -2.2044 -0.6675 -0.4287
34284SOL     OW 9712   1.782   6.106  12.345  0.0626 -0.5866  0.5575
34284SOL    HW1 9713   1.776   6.166  12.419  0.3861 -1.4237  1.2809
34284SOL    HW2 9714   1.695   6.067  12.339 -0.7737  1.3722 -1.1825
34285SOL     OW 9715   1.883   8.920   6.603  0.5778  0.3777  0.5978
34285SOL    HW1 9716   1.890   8.917   6.508  1.0631 -0.1644  0.6471
34285SOL    HW2 9717   1.885   8.829   6.631  0.8939  0.5486  1.1571
34286SOL     OW 9718   4.427   9.557  10.538 -0.3114 -0.2433 -0.0047
34286SOL    HW1 9719   4.334   9.565  10.517 -0.3499  0.8739  0.5014
34286SOL    HW2 9720   4.436   9.599  10.624  0.6927 -0.1388 -0.1455
34287SOL     OW 9721  12.317   2.877   4.882 -0.2916  0.2757  0.1999
34287SOL    HW1 9722  12.389   2.881   4.945 -1.0090 -1.5009  1.1973
34287SOL    HW2 9723  12.328   2.956   4.828  2.2148  0.1861  0.4799
34288SOL     OW 9724   2.986   3.387  10.705  0.2555  0.3445 -0.3874
34288SOL    HW1 9725   3.072   3.346  10.693 -0.2939 -0.8120 -0.5898
34288SOL    HW2 9726   2.978   3.448  10.632  0.8023  0.2769 -0.5107
34289SOL     OW 9727   5.842  10.950  10.614  0.0607  0.4408  0.1208
34289SOL    HW1 9728   5.801  11.025  10.570 -1.6271 -1.2075 -1.2857
34289SOL    HW2 9729   5.936  10.961  10.599 -0.3074  1.1783 -1.9081
34290SOL     OW 9730   6.504   5.111   9.380  0.0992 -0.1825 -0.0774
34290SOL    HW1 9731   6.514   5.029   9.428  1.1729 -0.8638 -1.3962
34290SOL    HW2 9732   6.429   5.154   9.421  0.1127 -1.3679  1.2660
34291SOL     OW 9733   1.421  12.040   9.706  0.3358  0.3069  0.0041
34291SOL    HW1 9734   1.464  12.108   9.758  1.8795 -1.3892  1.0560
34291SOL    HW2 9735   1.485  12.018   9.638  0.0809 -0.4597  0.0042
34292SOL     OW 9736   6.587  10.566   3.993  0.1233  0.1880  0.1479
34292SOL    HW1 9737   6.625  10.647   4.026  0.3468  0.8537 -1.6097
34292SOL    HW2 9738   6.662  10.516   3.961 -0.2744  1.3840 -3.0787
34293SOL     OW 9739  10.123   0.436  11.397 -0.2103  0.3193 -0.3031
34293SOL    HW1 9740  10.195   0.410  11.341 -0.7118  1.3880 -1.4953
34293SOL    HW2 9741  10.159   0.506  11.453  1.5433 -3.4399  3.8636
34294SOL     OW 9742   5.602   8.738   0.632 -0.5629 -0.0614  0.6580
34294SOL    HW1 9743   5.640   8.675   0.693  0.7989 -1.1975 -1.2608
34294SOL    HW2 9744   5.670   8.804   0.619  0.0577 -1.0247 -1.2727
34295SOL     OW 9745   6.077  12.207   5.174  0.5458  0.6190  0.0213
34295SOL    HW1 9746   6.147  12.230   5.113 -1.0498  1.4492 -1.5960
34295SOL    HW2 9747   6.057  12.115   5.154  2.1223 -0.1316  1.5592
34296SOL     OW 9748   4.828   8.105   7.475 -0.1643  0.5341  0.6257
34296SOL    HW1 9749   4.812   8.066   7.389  2.5640  1.2547 -0.2926
34296SOL    HW2 9750   4.881   8.183   7.457  0.0435  0.9962  2.9303
34297SOL     OW 9751   5.695  12.136   7.396  0.5488  0.3529 -0.1715
34297SOL    HW1 9752   5.616  12.187   7.416 -0.5815 -1.7347  1.1512
34297SOL    HW2 9753   5.683  12.109   7.305 -1.2802 -1.4731  0.5396
34298SOL     OW 9754  10.514   1.679   9.977 -0.0314  0.0041 -0.0015
34298SOL    HW1 9755  10.456   1.731   9.921 -1.2446  0.0821  1.2558
34298SOL    HW2 9756  10.536   1.738  10.050 -0.6057 -0.8826  0.9250
34299SOL     OW 9757   5.834   5.556   9.157  0.4712  0.1540  0.8266
34299SOL    HW1 9758   5.873   5.481   9.202 -0.7869  1.1240  3.7039
34299SOL    HW2 9759   5.893   5.629   9.176  0.2340  0.4662  0.3785
34300SOL     OW 9760   9.946  11.954   9.068  0.2651 -0.0861 -0.3646
34300SOL    HW1 9761   9.871  11.965   9.127 -0.9767  0.9272 -2.0299
34300SOL    HW2 9762  10.008  12.021   9.096 -0.5106  0.6990 -0.4701
34301SOL     OW 9763  11.549   2.037  12.417  0.3191  0.1199 -0.4212
34301SOL    HW1 9764  11.494   2.101  12.372  0.7752  0.7261 -0.1276
34301SOL    HW2 9765  11.496   1.957  12.420 -0.0607  0.3390 -1.2283
34302SOL     OW 9766   6.340   7.144   4.496  0.4647  0.0119  0.5392
34302SOL    HW1 9767   6.423   7.109   4.528  0.9205  0.0468 -0.5396
34302SOL    HW2 9768   6.327   7.225   4.545  1.2980  0.2269  0.4230
34303SOL     OW 9769   0.517  12.028  12.147  0.0461 -0.7162 -0.3583
34303SOL    HW1 9770   0.530  12.036  12.242 -0.0647  2.0105 -0.4955
34303SOL    HW2 9771   0.422  12.031  12.135  0.0856 -0.4300 -0.6037
34304SOL     OW 9772   9.188   0.114   7.163  0.2901  0.1986 -0.3358
34304SOL    HW1 9773   9.236   0.146   7.239  0.0852  0.0360 -0.1381
34304SOL    HW2 9774   9.140   0.191   7.131  0.0840  0.1766 -0.0798
34305SOL     OW 9775   3.271   8.292   5.252  0.1181 -0.5360 -0.7091
34305SOL    HW1 9776   3.322   8.366   5.283 -0.4433 -0.2847 -0.3801
34305SOL    HW2 9777   3.252   8.241   5.330 -0.9039 -0.1484 -0.6936
34306SOL     OW 9778   3.944   2.233   0.174 -0.0213  0.1716 -0.4388
34306SOL    HW1 9779   3.885   2.284   0.117 -0.0975  0.0024 -0.5119
34306SOL    HW2 9780   3.917   2.255   0.263  0.4181  0.8163 -0.4595
34307SOL     OW 9781   5.024   8.327   7.235 -0.7227 -0.5219  0.1754
34307SOL    HW1 9782   5.104   8.319   7.183 -0.8245 -0.7474  0.0522
34307SOL    HW2 9783   5.049   8.384   7.308 -0.2356 -1.2181  0.5640
34308SOL     OW 9784   7.404   0.375   6.592 -0.0440  0.4751  0.1202
34308SOL    HW1 9785   7.489   0.418   6.598 -0.4953  1.7457 -1.6338
34308SOL    HW2 9786   7.409   0.303   6.655  2.6112  0.0150 -0.4865
34309SOL     OW 9787   1.952   8.994  12.007  0.5673  0.1918 -0.1205
34309SOL    HW1 9788   2.013   9.008  11.934 -0.0917 -0.4999 -0.8250
34309SOL    HW2 9789   2.004   8.946  12.072  0.5423 -1.2749 -1.1247
34310SOL     OW 9790   4.660   4.976   1.611 -0.7397 -0.0891 -0.6667
34310SOL    HW1 9791   4.619   4.987   1.697 -0.7008 -0.8792 -0.5332
34310SOL    HW2 9792   4.661   5.063   1.573  2.1864  0.9426  1.4212
34311SOL     OW 9793   8.603  10.236  11.511  0.1664  0.2218  0.2004
34311SOL    HW1 9794   8.510  10.215  11.499 -0.5573  2.3947  1.3736
34311SOL    HW2 9795   8.619  10.307  11.449  1.0245 -0.0894  0.0669
34312SOL     OW 9796   9.557   9.731   2.922 -0.1532 -0.2747 -0.8315
34312SOL    HW1 9797   9.497   9.658   2.911 -1.2867  0.3558  0.8937
34312SOL    HW2 9798   9.594   9.720   3.010  1.0709  0.2351 -1.2477
34313SOL     OW 9799   1.049   0.765   9.349 -0.6817  0.5857  0.3927
34313SOL    HW1 9800   1.081   0.684   9.390 -0.7031  0.2338 -0.2709
34313SOL    HW2 9801   0.967   0.784   9.395 -0.6447  0.2660  0.5945
34314SOL     OW 9802  10.633  11.530  11.061  0.6695 -0.4592  0.3704
34314SOL    HW1 9803  10.550  11.484  11.074  0.8225 -0.5208  1.1836
34314SOL    HW2 9804  10.609  11.610  11.014  0.3809 -1.2953 -0.9682
34315SOL     OW 9805   2.918   8.993   2.809 -0.0155 -0.0750  0.0022
34315SOL    HW1 9806   2.985   8.978   2.743 -0.7545 -0.1394 -0.7573
34315SOL    HW2 9807   2.860   8.917   2.803 -0.1866 -0.0070  0.6164
34316SOL     OW 9808   6.928   8.620   6.807  0.1193 -0.2440 -0.1128
34316SOL    HW1 9809   6.964   8.650   6.724 -0.3356 -0.9251 -0.5605
34316SOL    HW2 9810   6.887   8.698   6.845  0.5355  0.1223 -0.4055
34317SOL     OW 9811   7.540   6.429   4.217 -0.2689  0.0036  0.0739
34317SOL    HW1 9812   7.533   6.374   4.295  0.2045 -1.2981 -0.7695
34317SOL    HW2 9813   7.528   6.368   4.144  3.4253  0.3269 -1.0271
34318SOL     OW 9814   6.988   3.303   2.761  0.0999 -0.4674 -0.3094
34318SOL    HW1 9815   6.998   3.397   2.750  0.3958 -0.5701 -0.9720
34318SOL    HW2 9816   6.957   3.292   2.851 -2.1458  0.3960 -0.9161
34319SOL     OW 9817   6.909   7.417   4.548  0.1078 -0.6336 -0.1538
34319SOL    HW1 9818   6.945   7.453   4.466  0.1741 -0.7461 -0.1745
34319SOL    HW2 9819   6.891   7.325   4.528  0.5819 -0.7834  0.1066
34320SOL     OW 9820   9.966   1.398  12.145  0.2366 -0.5718 -0.1189
34320SOL    HW1 9821   9.943   1.321  12.093 -0.5202  0.2122 -0.9760
34320SOL    HW2 9822   9.936   1.377  12.233 -1.0602 -0.7899 -0.5924
34321SOL     OW 9823   9.702   0.669   6.538 -0.0886  0.6149 -0.3901
34321SOL    HW1 9824   9.641   0.734   6.571  0.9576  1.9179 -0.9555
34321SOL    HW2 9825   9.770   0.719   6.493 -0.4322 -0.9348 -2.8939
34322SOL     OW 9826   9.347  12.180   2.921  0.0771  0.0734  0.5474
34322SOL    HW1 9827   9.347  12.250   2.986 -3.1538  1.7516 -1.0238
34322SOL    HW2 9828   9.370  12.223   2.839 -1.1356 -0.8399 -0.3131
34323SOL     OW 9829   7.720  11.234  11.426 -0.1552  0.5871 -0.0028
34323SOL    HW1 9830   7.770  11.166  11.471 -0.5486 -0.7993 -1.5493
34323SOL    HW2 9831   7.786  11.290  11.387  0.1920  0.2422  0.0778
34324SOL     OW 9832  11.833   7.370   9.995 -0.0917 -0.2280  0.5812
34324SOL    HW1 9833  11.765   7.414  10.046 -0.9614 -1.9100  0.9703
34324SOL    HW2 9834  11.813   7.277  10.005  0.8971 -0.6831 -1.2252
34325SOL     OW 9835   7.654  11.779  11.179  0.0189  0.1822  0.1827
34325SOL    HW1 9836   7.727  11.717  11.193 -0.7259 -0.8145 -0.2210
34325SOL    HW2 9837   7.619  11.795  11.267 -0.5954 -0.9970  0.1658
34326SOL     OW 9838   2.459   6.653   9.840 -0.2791 -0.7413 -0.0659
34326SOL    HW1 9839   2.550   6.636   9.860 -0.9576 -0.6780  3.7337
34326SOL    HW2 9840   2.415   6.568   9.851 -0.7642 -0.7562 -1.7478
34327SOL     OW 9841   6.176   2.912   0.869  0.0011  0.2761  0.7884
34327SOL    HW1 9842   6.110   2.920   0.801  0.6113 -0.0801  0.1404
34327SOL    HW2 9843   6.183   3.000   0.906 -0.9935  0.2587  1.0273
34328SOL     OW 9844  11.644   0.456   4.802  0.1813 -0.1630 -0.4794
34328SOL    HW1 9845  11.601   0.474   4.886 -3.1467 -4.1720 -0.9379
34328SOL    HW2 9846  11.601   0.514   4.740 -0.6491 -0.2841 -0.0335
34329SOL     OW 9847  10.342   2.500   8.099 -0.0999  0.5729 -0.2062
34329SOL    HW1 9848  10.292   2.484   8.179  0.8065 -0.5927  0.1516
34329SOL    HW2 9849  10.387   2.418   8.082  1.2301  1.4055 -0.8422
34330SOL     OW 9850  10.949   9.708   4.488 -0.3652  0.0957  0.2911
34330SOL    HW1 9851  10.996   9.748   4.414 -1.6690 -1.5191 -1.4882
34330SOL    HW2 9852  11.002   9.631   4.510  0.1968  0.7498  1.3105
34331SOL     OW 9853   6.842   2.671   0.008  0.0180 -0.1526  0.4148
34331SOL    HW1 9854   6.934   2.688   0.029  0.1521  0.4980 -0.6531
34331SOL    HW2 9855   6.795   2.741   0.053  0.1113 -0.0170  0.3016
34332SOL     OW 9856   1.955  11.266  12.247 -0.5105  0.4947  1.1163
34332SOL    HW1 9857   1.928  11.202  12.313 -1.8856  1.4790  1.5491
34332SOL    HW2 9858   2.016  11.218  12.191 -1.0715 -1.0291  1.7532
34333SOL     OW 9859   8.658   0.077   6.271  0.8490 -0.2148 -0.8658
34333SOL    HW1 9860   8.679   0.146   6.335  0.9484 -0.3181 -0.7870
34333SOL    HW2 9861   8.735   0.071   6.215  2.1595 -2.3863  0.9995
34334SOL     OW 9862   5.204   8.328   8.003 -0.2288 -0.0723  0.0264
34334SOL    HW1 9863   5.193   8.240   8.038  0.1550 -0.2633 -0.3253
34334SOL    HW2 9864   5.122   8.345   7.955 -0.0097 -0.5298 -0.5238
34335SOL     OW 9865   3.792   4.472   0.214 -0.3850  0.4120  0.2136
34335SOL    HW1 9866   3.802   4.564   0.238 -0.5245  0.5904 -0.3965
34335SOL    HW2 9867   3.715   4.469   0.158 -1.0171 -0.2490  1.0907
34336SOL     OW 9868   1.658  11.260  10.066  0.5218  0.3506 -0.4902
34336SOL    HW1 9869   1.714  11.335  10.045 -0.8740  1.2503 -1.1331
34336SOL    HW2 9870   1.575  11.300  10.093  0.8491 -0.8606  2.6919
34337SOL     OW 9871  10.871   9.593   4.107  0.0152  0.5148 -0.3987
34337SOL    HW1 9872  10.867   9.623   4.016 -1.1064 -1.4449 -1.0709
34337SOL    HW2 9873  10.785   9.554   4.123  0.8161 -0.8398  0.8779
34338SOL     OW 9874   6.021   9.076   4.346  0.1770 -0.4887 -0.5838
34338SOL    HW1 9875   5.963   9.136   4.393  0.0106 -1.4576  0.5105
34338SOL    HW2 9876   6.056   9.127   4.274 -0.0899  0.8641  0.2129
34339SOL     OW 9877  11.778   6.582   2.740  0.3670  0.5960 -0.2124
34339SOL    HW1 9878  11.721   6.538   2.676 -0.1251  1.9407 -0.7277
34339SOL    HW2 9879  11.853   6.523   2.749 -0.4301 -0.5173 -0.6081
34340SOL     OW 9880   0.325   3.963   5.345 -0.1085 -0.3126 -0.0246
34340SOL    HW1 9881   0.377   3.918   5.278  0.9167  0.4652  0.2281
34340SOL    HW2 9882   0.248   3.995   5.298 -0.4798 -1.6252 -0.3725
34341SOL     OW 9883   3.641   8.578  11.976 -0.4409 -0.5772 -0.4462
34341SOL    HW1 9884   3.646   8.624  12.060 -2.0442  1.7223 -1.4939
34341SOL    HW2 9885   3.720   8.525  11.973  0.5123  0.5766  1.7787
34342SOL     OW 9886   5.409   2.941   7.804 -0.4006  0.0340  0.8910
34342SOL    HW1 9887   5.371   3.028   7.818 -0.2216 -0.3610  4.8215
34342SOL    HW2 9888   5.333   2.883   7.795 -0.6479  0.0630  2.5858
34343SOL     OW 9889  10.329   7.316   4.923 -0.0257  0.0030  0.1894
34343SOL    HW1 9890  10.339   7.407   4.951  0.2749 -0.3644  1.3473
34343SOL    HW2 9891  10.403   7.300   4.865  0.8051  0.0626  1.2039
34344SOL     OW 9892  10.077   0.576   4.833 -0.2833  0.0907  0.5884
34344SOL    HW1 9893  10.045   0.637   4.767 -0.5580  0.3108  0.9190
34344SOL    HW2 9894  10.001   0.523   4.856 -0.5630  0.9722  1.7688
34345SOL     OW 9895   6.596   7.321   7.538  0.2519  0.5353  0.3733
34345SOL    HW1 9896   6.674   7.267   7.523  1.3499  1.7999  1.2420
34345SOL    HW2 9897   6.523   7.262   7.524  1.3663 -0.7044 -0.4865
34346SOL     OW 9898   7.520   1.331   1.427  0.6744 -0.3503 -0.0786
34346SOL    HW1 9899   7.583   1.277   1.474  0.8820 -0.5420 -0.5702
34346SOL    HW2 9900   7.435   1.308   1.465  0.9973  0.7691  1.4091
34347SOL     OW 9901   2.683   5.323   4.972  0.5091  0.3171  0.0762
34347SOL    HW1 9902   2.694   5.258   5.042 -0.5925  1.0406  0.9524
34347SOL    HW2 9903   2.700   5.407   5.014 -2.1982  0.9771  0.0776
34348SOL     OW 9904  11.423  12.210   7.719  0.3704  0.4581 -0.0106
34348SOL    HW1 9905  11.372  12.281   7.681 -0.1818  0.1887  0.2061
34348SOL    HW2 9906  11.494  12.194   7.657 -0.5235  0.0066 -0.9459
34349SOL     OW 9907   9.453   8.878   1.330 -0.3249 -0.1362 -0.2183
34349SOL    HW1 9908   9.399   8.934   1.385  0.6489  0.5409  0.0693
34349SOL    HW2 9909   9.539   8.920   1.329  0.0996 -0.9760 -0.9854
34350SOL     OW 9910   7.367   4.642  12.062  0.2313 -0.6980 -0.2704
34350SOL    HW1 9911   7.402   4.636  11.973 -0.2580  0.2890 -0.5485
34350SOL    HW2 9912   7.444   4.644  12.118  0.7068  1.7409 -0.8869
34351SOL     OW 9913  12.316  12.410   8.699 -0.7591  0.2947  0.2862
34351SOL    HW1 9914  12.320  12.398   8.794 -1.1189 -1.2818  0.1354
34351SOL    HW2 9915  12.333  12.322   8.663 -0.7524  0.8382 -1.1021
34352SOL     OW 9916   8.006   8.096   8.725  0.3196  0.1180 -0.0799
34352SOL    HW1 9917   8.054   8.053   8.654 -1.7976 -0.6544 -1.1209
34352SOL    HW2 9918   8.046   8.182   8.733  0.4216  0.3436 -2.4411
34353SOL     OW 9919   6.618   8.028   4.437 -0.2202 -0.1125 -1.1697
34353SOL    HW1 9920   6.640   8.069   4.353  0.7646 -0.3391 -1.0327
34353SOL    HW2 9921   6.526   8.050   4.451  0.3147  2.3739 -0.9455
34354SOL     OW 9922   0.563   7.600   2.347 -0.1457 -0.2074 -0.0640
34354SOL    HW1 9923   0.604   7.607   2.261 -0.7960  1.4685 -0.2706
34354SOL    HW2 9924   0.637   7.588   2.407  0.3651 -0.7146 -0.7662
34355SOL     OW 9925   2.524  12.245  12.271 -0.0690  0.5772  0.3777
34355SOL    HW1 9926   2.582  12.237  12.195  1.4540 -0.3778  1.5739
34355SOL    HW2 9927   2.476  12.163  12.274  2.3967 -0.9448  2.3272
34356SOL     OW 9928   6.033   1.711   1.449 -0.1010  0.4660 -0.4239
34356SOL    HW1 9929   6.031   1.777   1.519  2.4591  0.2615 -0.0499
34356SOL    HW2 9930   5.948   1.719   1.407 -1.8819  0.4601  2.8086
34357SOL     OW 9931   4.328   3.880  10.087 -0.1140  0.2511 -0.2864
34357SOL    HW1 9932   4.310   3.968  10.120  1.3796  0.2969  0.5261
34357SOL    HW2 9933   4.263   3.866  10.019 -2.7553  0.5398  2.0324
34358SOL     OW 9934  10.678   7.466   7.637 -0.5073  0.7543  0.2001
34358SOL    HW1 9935  10.661   7.554   7.669 -1.6301  1.1481 -1.3647
34358SOL    HW2 9936  10.746   7.432   7.695 -0.0960  2.6108  0.8692
34359SOL     OW 9937  10.651  12.281   2.264  0.0299 -0.0529  0.3003
34359SOL    HW1 9938  10.651  12.253   2.355 -2.1803 -0.9015  0.0966
34359SOL    HW2 9939  10.561  12.266   2.234  0.5253  0.8522 -1.8258
34360SOL     OW 9940   1.519   3.047   3.401  0.3032  0.0631 -0.2547
34360SOL    HW1 9941   1.586   3.091   3.453 -1.1757  0.0355  1.8038
34360SOL    HW2 9942   1.550   2.956   3.395 -0.6318 -0.5889  2.8852
34361SOL     OW 9943   0.005   0.767   9.949  0.4824  0.0185 -0.8960
34361SOL    HW1 9944   0.045   0.680   9.958 -0.2325 -0.2849 -0.6358
34361SOL    HW2 9945  -0.069   0.754   9.891  0.4665  0.4929 -0.9876
34362SOL     OW 9946   5.075   8.784   3.380  0.2673  0.0729  0.0178
34362SOL    HW1 9947   5.123   8.864   3.360 -0.9801  0.8246 -0.1050
34362SOL    HW2 9948   5.002   8.813   3.435 -0.1414 -0.9988  0.0682
34363SOL     OW 9949   4.918   1.209   8.320  0.2135 -0.1707  0.5277
34363SOL    HW1 9950   4.985   1.148   8.351 -0.2664  0.3074  2.7427
34363SOL    HW2 9951   4.968   1.280   8.279  1.0251 -0.2406  1.3538
34364SOL     OW 9952   6.307   5.383   3.816 -0.5916 -0.2096 -0.5880
34364SOL    HW1 9953   6.399   5.370   3.842 -0.9286 -2.5792 -0.3305
34364SOL    HW2 9954   6.310   5.452   3.750  1.4887 -0.7183 -1.0987
34365SOL     OW 9955  11.734   5.324   7.421 -0.4880 -0.1688 -0.0821
34365SOL    HW1 9956  11.723   5.338   7.327  0.4052 -0.9464 -0.3181
34365SOL    HW2 9957  11.829   5.317   7.434 -0.6208 -0.5572  0.7979
34366SOL     OW 9958   0.657   0.249   9.446 -0.4981  0.1272 -0.0982
34366SOL    HW1 9959   0.680   0.330   9.492  1.5011 -0.4624  0.0312
34366SOL    HW2 9960   0.561   0.251   9.440 -0.4827  2.6471 -0.4058
34367SOL     OW 9961  12.175   9.542  11.772  0.0720 -0.4904  0.1297
34367SOL    HW1 9962  12.095   9.533  11.824  0.1645 -0.3579  0.2925
34367SOL    HW2 9963  12.171   9.632  11.738  0.1511 -0.4851  0.1360
34368SOL     OW 9964   0.778   4.118   1.321 -0.3118 -0.1218 -0.5058
34368SOL    HW1 9965   0.720   4.083   1.254 -2.2915  1.3051  0.3399
34368SOL    HW2 9966   0.802   4.205   1.289 -0.2150  0.0549  0.0330
34369SOL     OW 9967   7.743   4.878   1.509 -0.3714 -0.2662  0.3108
34369SOL    HW1 9968   7.804   4.839   1.447 -0.3884 -0.9980  0.7434
34369SOL    HW2 9969   7.656   4.851   1.478 -0.8048  3.1783 -2.0416
34370SOL     OW 9970   9.496   1.533   8.213  0.1550 -0.4170 -0.2353
34370SOL    HW1 9971   9.507   1.582   8.131 -0.9803 -0.7540 -0.6048
34370SOL    HW2 9972   9.584   1.501   8.234  0.4097 -0.5737 -1.4800
34371SOL     OW 9973   4.632   1.933   6.310 -0.6393 -0.1849  0.4190
34371SOL    HW1 9974   4.686   1.903   6.237  0.0999  1.8425  0.0593
34371SOL    HW2 9975   4.693   1.976   6.370 -1.6660  1.1502  0.5700
34372SOL     OW 9976  11.804  10.018   3.860 -0.3653 -0.1758  0.5699
34372SOL    HW1 9977  11.748  10.055   3.928 -1.0668 -0.9400  0.4165
34372SOL    HW2 9978  11.751   9.952   3.818 -0.1172  0.6252 -1.0856
34373SOL     OW 9979   4.011   8.619   1.592  0.0437  0.1869 -0.1924
34373SOL    HW1 9980   3.970   8.601   1.677  0.8424 -0.0076  0.1556
34373SOL    HW2 9981   4.097   8.653   1.614 -0.4298  1.9241 -0.8972
34374SOL     OW 9982   7.812   2.365   1.441  0.2625  0.3874 -0.2425
34374SOL    HW1 9983   7.856   2.289   1.480  0.1961 -0.7098 -2.1967
34374SOL    HW2 9984   7.720   2.356   1.468  0.3887  0.1865  0.1322
34375SOL     OW 9985   0.496   0.895  10.912  0.1299 -0.4491  0.2074
34375SOL    HW1 9986   0.522   0.942  10.991 -2.1366  0.6969  0.3525
34375SOL    HW2 9987   0.564   0.917  10.848  1.4387 -0.5413  1.5094
34376SOL     OW 9988   9.241   7.481   1.406 -0.4555 -0.3707  0.4074
34376SOL    HW1 9989   9.254   7.387   1.407 -0.4372 -0.4960 -2.5612
34376SOL    HW2 9990   9.146   7.493   1.403 -0.5379 -0.1717  2.4371
34377SOL     OW 9991  11.454   7.843   3.942 -0.2676  0.0437  0.4950
34377SOL    HW1 9992  11.383   7.797   3.896  0.8016 -2.9124  1.5511
34377SOL    HW2 9993  11.525   7.846   3.879 -0.0437 -0.6367  0.7004
34378SOL     OW 9994  11.854  11.207   1.787 -0.5796 -0.3751 -0.9065
34378SOL    HW1 9995  11.876  11.287   1.835  0.2918 -1.4640  0.5600
34378SOL    HW2 9996  11.921  11.201   1.719  0.7203 -1.0112  0.3863
34379SOL     OW 9997   0.356  12.171   1.966  0.3664 -0.0748  0.0973
34379SOL    HW1 9998   0.437  12.187   1.917 -0.0124 -1.7291 -1.1728
34379SOL    HW2 9999   0.313  12.256   1.970  1.5692  0.5814 -0.2879
34380SOL     OW10000   3.249   5.166   2.635 -0.1638 -0.3178  0.2741
34380SOL    HW110001   3.238   5.097   2.570 -2.1876  1.1109 -1.0144
34380SOL    HW210002   3.302   5.126   2.704  0.2675 -2.5499 -1.2559
34381SOL     OW10003   8.051  12.274  11.863  0.4704  0.3427 -0.0415
34381SOL    HW110004   7.976  12.318  11.823  0.3433  0.4053  0.2665
34381SOL    HW210005   8.127  12.318  11.826  0.3937 -0.4941 -1.2745
34382SOL     OW10006   6.725   7.411   0.799 -0.2401 -0.1653 -0.0732
34382SOL    HW110007   6.674   7.480   0.841 -2.0066 -1.9598  0.9179
34382SOL    HW210008   6.666   7.373   0.735 -0.1694 -2.2360  1.0135
34383SOL     OW10009   2.160   4.243  12.389  0.3585 -0.4676  0.2067
34383SOL    HW110010   2.195   4.295  12.461 -2.6525  0.0553  1.4299
34383SOL    HW210011   2.192   4.154  12.406 -1.4659 -0.6788  3.1702
34384SOL     OW10012   0.205   9.643   0.238  0.0345 -0.1183  0.2588
34384SOL    HW110013   0.265   9.657   0.165  2.4237 -0.1543  2.0730
34384SOL    HW210014   0.243   9.569   0.286 -1.4639 -0.1141  1.5080
34385SOL     OW10015   2.705   3.860   7.410  0.0499  0.0536  0.5910
34385SOL    HW110016   2.759   3.785   7.382  0.8038  0.2889  1.3868
34385SOL    HW210017   2.736   3.880   7.498  0.3856  1.8010  0.1001
34386SOL     OW10018  10.519   4.911   4.847  0.6485  0.1799  0.0333
34386SOL    HW110019  10.527   4.901   4.752  2.5790  2.7695 -0.2159
34386SOL    HW210020  10.426   4.897   4.866  0.1491  0.0067 -2.2963
34387SOL     OW10021   7.876  11.518  11.634  0.2090 -0.2446 -0.0926
34387SOL    HW110022   7.895  11.512  11.540  0.0594 -0.9527 -0.0812
34387SOL    HW210023   7.954  11.482  11.676 -0.4805 -1.6858 -0.0036
34388SOL     OW10024   7.645   4.246   8.001  0.3475  0.9863 -0.2376
34388SOL    HW110025   7.728   4.206   8.028 -0.8358 -0.9290  0.8387
34388SOL    HW210026   7.637   4.324   8.055  1.4523  1.1983 -0.3648
34389SOL     OW10027   2.478   5.792   7.045 -0.0235 -0.3561  0.5087
34389SOL    HW110028   2.564   5.755   7.026  0.8667  0.8915  1.9079
34389SOL    HW210029   2.457   5.759   7.132  0.5219  1.8098  1.5387
34390SOL     OW10030   8.576   9.470  11.660  0.0676  0.5476  0.5212
34390SOL    HW110031   8.619   9.509  11.584  0.1426 -2.3622 -1.0887
34390SOL    HW210032   8.488   9.506  11.659  0.1913  0.8658 -0.7040
34391SOL     OW10033  10.012  11.007   2.275  0.0698 -0.3987  0.2009
34391SOL    HW110034  10.097  10.979   2.310 -0.0134 -1.2066 -0.2009
34391SOL    HW210035   9.954  11.006   2.351  0.6768  1.4087  0.7414
34392SOL     OW10036   5.725   6.198   1.557 -0.4874 -0.4129 -0.3539
34392SOL    HW110037   5.636   6.214   1.524 -1.1210 -1.8166  0.5822
34392SOL    HW210038   5.713   6.183   1.651  0.7839 -0.3777 -0.1672
34393SOL     OW10039  10.941   7.904   3.979  0.5110  0.5995 -0.3250
34393SOL    HW110040  10.971   7.815   3.995 -0.7428  0.3266  0.7015
34393SOL    HW210041  10.912   7.935   4.065  0.8547  1.9735 -0.6859
34394SOL     OW10042   4.458  11.637   6.722  0.0595  0.3186  0.2223
34394SOL    HW110043   4.513  11.561   6.744 -1.6402 -1.2491 -0.6112
34394SOL    HW210044   4.496  11.671   6.641  0.3176 -0.1950  0.1221
34395SOL     OW10045   0.543   7.491   5.671 -0.4802 -0.0526 -0.1173
34395SOL    HW110046   0.537   7.397   5.688  0.7674 -0.1728 -0.2517
34395SOL    HW210047   0.605   7.523   5.736  0.4325  0.3634 -1.1592
34396SOL     OW10048   8.879   6.801   7.534 -0.8642 -0.5261  0.0483
34396SOL    HW110049   8.872   6.706   7.535 -1.3342 -0.5949  3.6494
34396SOL    HW210050   8.960   6.820   7.582  0.3623  0.9596 -2.3923
34397SOL     OW10051  10.230   5.327   5.044 -0.0302 -0.2935 -0.5055
34397SOL    HW110052  10.322   5.303   5.031  0.0732  0.3368 -1.0049
34397SOL    HW210053  10.195   5.257   5.098  0.5812 -0.8843 -0.8484
34398SOL     OW10054   5.942   1.374   5.183  0.1419  0.1513 -0.0962
34398SOL    HW110055   5.968   1.466   5.181 -1.3014  0.5822 -0.2617
34398SOL    HW210056   5.847   1.376   5.186  0.1177 -1.3224  2.5873
34399SOL     OW10057   8.134   0.413   8.154 -0.3113 -0.2376  0.1092
34399SOL    HW110058   8.134   0.348   8.225  0.1341  0.2877  0.6003
34399SOL    HW210059   8.226   0.421   8.129 -0.4135 -0.0947 -0.2301
34400SOL     OW10060   1.262   8.477  11.699  0.7458 -0.1253  0.0480
34400SOL    HW110061   1.287   8.473  11.607  0.4973  0.0375 -0.0270
34400SOL    HW210062   1.184   8.532  11.701  0.5767 -0.3684  0.3189
34401SOL     OW10063   4.195   3.664   7.985  0.2664 -0.6489  0.2818
34401SOL    HW110064   4.241   3.740   7.950  0.1767 -0.6285  0.2092
34401SOL    HW210065   4.105   3.693   7.996  0.1914 -0.8015  0.0775
34402SOL     OW10066   8.195   6.313   0.150  0.8520  0.2497 -0.2544
34402SOL    HW110067   8.147   6.380   0.198 -0.2602 -0.7184  0.0256
34402SOL    HW210068   8.224   6.251   0.217 -3.0238 -2.5822 -0.8986
34403SOL     OW10069   3.591   7.463   8.192 -0.0587  1.1212  0.7441
34403SOL    HW110070   3.654   7.483   8.123 -0.9595  0.4592 -0.3105
34403SOL    HW210071   3.617   7.376   8.224 -0.7845  0.5738 -0.1223
34404SOL     OW10072   9.905  12.206  11.765 -0.3399 -0.5271  0.4099
34404SOL    HW110073   9.861  12.269  11.708  0.5170  0.6292  0.9819
34404SOL    HW210074   9.998  12.221  11.751 -0.0965 -0.1479  2.1218
34405SOL     OW10075   2.083  11.571  11.578  0.4433  0.0461 -0.5666
34405SOL    HW110076   2.031  11.566  11.498 -0.1001  0.8036 -0.2707
34405SOL    HW210077   2.019  11.590  11.647  0.9237 -0.4570  0.0317
34406SOL     OW10078   0.747   6.117   8.867  0.0760  0.2205 -0.1465
34406SOL    HW110079   0.791   6.119   8.782 -0.2105 -2.1431 -0.4429
34406SOL    HW210080   0.654   6.123   8.846  0.0654  1.2820  0.1591
34407SOL     OW10081   4.911   3.194   3.004 -0.2551 -0.0755  0.2836
34407SOL    HW110082   4.994   3.208   2.959  0.4164 -0.4775  1.3624
34407SOL    HW210083   4.929   3.125   3.068 -0.8323  1.3155  2.0276
34408SOL     OW10084   3.894  12.369   8.381 -0.1457 -0.6117  0.7307
34408SOL    HW110085   3.923  12.283   8.411  0.3402 -0.7549 -0.1011
34408SOL    HW210086   3.959  12.430   8.417 -1.8294 -0.2654  3.3628
34409SOL     OW10087   1.491  10.138   7.534 -0.2330 -0.0811  0.1914
34409SOL    HW110088   1.558  10.073   7.552 -0.6168 -1.2028 -2.0417
34409SOL    HW210089   1.511  10.170   7.446 -0.8262  1.9038  0.7182
34410SOL     OW10090   9.341   4.941   2.752  0.0525 -0.0068 -0.3852
34410SOL    HW110091   9.401   4.952   2.678 -0.5714  0.5002 -0.8262
34410SOL    HW210092   9.283   4.870   2.726 -0.2715  0.2803 -0.4555
34411SOL     OW10093   6.828   5.047   7.800  0.2027 -0.3491 -0.1232
34411SOL    HW110094   6.797   5.124   7.752 -0.0104 -0.6963 -0.5432
34411SOL    HW210095   6.748   5.000   7.825  0.2603  0.2728  1.3325
34412SOL     OW10096   6.202   5.798   0.629  0.2375  0.6509 -0.1759
34412SOL    HW110097   6.244   5.782   0.545 -1.2853 -1.2349 -0.6569
34412SOL    HW210098   6.273   5.825   0.687  1.6355  0.1609 -1.5815
34413SOL     OW10099   0.568   1.413  12.195  0.0071 -0.1291 -0.2220
34413SOL    HW110100   0.516   1.349  12.147  0.1974 -0.5097  0.0660
34413SOL    HW210101   0.554   1.390  12.287  0.5918 -0.1705 -0.1370
34414SOL     OW10102   4.504   1.856   9.830  0.8463  0.1604 -0.3716
34414SOL    HW110103   4.555   1.836   9.909  0.2117 -2.1569 -0.4661
34414SOL    HW210104   4.515   1.950   9.818 -0.9759  1.1377  3.8607
34415SOL     OW10105   0.444   6.249   4.923  0.5067  0.3984 -0.0006
34415SOL    HW110106   0.480   6.185   4.862  1.7147  0.0971  0.9940
34415SOL    HW210107   0.514   6.313   4.935 -0.6303  1.8728 -0.8757
34416SOL     OW10108  12.323   3.365   3.525 -0.2604  0.4491 -0.3516
34416SOL    HW110109  12.298   3.421   3.452 -1.5149  1.1350  0.5691
34416SOL    HW210110  12.305   3.276   3.494  1.8105  0.4639 -1.8496
34417SOL     OW10111   0.750   1.841   3.783  0.2409 -0.6300  0.3417
34417SOL    HW110112   0.690   1.776   3.818 -1.6353 -0.0983 -1.6137
34417SOL    HW210113   0.813   1.791   3.732 -0.2622 -1.0339  0.1093
34418SOL     OW10114   9.066  12.176   9.791 -0.1313  0.1516  0.2160
34418SOL    HW110115   9.131  12.245   9.803  0.9736 -0.8973  0.4644
34418SOL    HW210116   9.023  12.198   9.708  0.0115  1.2728  0.4274
34419SOL     OW10117   9.381  10.650   9.698  1.1340 -0.6743 -0.0109
34419SOL    HW110118   9.347  10.575   9.649 -0.0527  1.1440 -2.1438
34419SOL    HW210119   9.440  10.611   9.763 -0.4116 -3.5233 -0.1625
34420SOL     OW10120   3.740   9.820   5.540 -0.0923  0.0337  0.4361
34420SOL    HW110121   3.724   9.735   5.580  0.5320 -0.5910 -0.5904
34420SOL    HW210122   3.690   9.882   5.594  0.3282 -0.8149  1.8622
34421SOL     OW10123   5.491   2.384   2.915  0.0628 -0.2246 -0.0285
34421SOL    HW110124   5.467   2.361   3.005 -0.4065  0.5342  0.0554
34421SOL    HW210125   5.569   2.439   2.924  0.1491 -0.3367 -0.0977
34422SOL     OW10126   4.488   0.623  10.363  0.1138  0.0007 -0.6779
34422SOL    HW110127   4.546   0.605  10.288 -0.6488  0.1692 -1.3160
34422SOL    HW210128   4.530   0.696  10.408 -0.2842  1.0346 -1.9146
34423SOL     OW10129   3.238   3.578   3.810  0.1792 -0.5302 -0.1255
34423SOL    HW110130   3.184   3.513   3.855 -1.6126  1.0676  0.1644
34423SOL    HW210131   3.279   3.530   3.738 -1.7100 -1.8300 -0.4038
34424SOL     OW10132  12.364   3.953   6.393 -0.7457 -0.1065  0.2309
34424SOL    HW110133  12.399   4.037   6.366 -1.5548  0.1941  0.0729
34424SOL    HW210134  12.436   3.891   6.382 -0.2771  0.4925 -0.0643
34425SOL     OW10135   4.784  11.530   9.802 -0.1470  0.3082 -0.0583
34425SOL    HW110136   4.771  11.436   9.818  1.6116  0.1138  0.4537
34425SOL    HW210137   4.831  11.534   9.718  0.6241  0.6440  0.3721
34426SOL     OW10138   9.262   3.932  10.842  0.0377 -0.1342  0.2274
34426SOL    HW110139   9.291   3.930  10.933  1.0883 -0.3867 -0.0999
34426SOL    HW210140   9.268   3.841  10.813 -0.7148 -0.1299  0.0188
34427SOL     OW10141   7.948   1.374  11.582  0.3928 -0.2155  0.1151
34427SOL    HW110142   7.915   1.324  11.507 -0.5513  0.8722 -0.2105
34427SOL    HW210143   7.985   1.307  11.640  1.5423 -1.0619 -1.4820
34428SOL     OW10144   5.666   9.826  12.206 -0.7767  0.0648 -0.0994
34428SOL    HW110145   5.662   9.875  12.124 -1.6071  0.4303  0.1489
34428SOL    HW210146   5.594   9.764  12.200  0.4275 -1.3563 -0.5318
34429SOL     OW10147   8.049   6.404   4.032  0.1178  0.0065  0.5793
34429SOL    HW110148   7.983   6.470   4.011  1.2970  1.0343  0.0228
34429SOL    HW210149   8.019   6.366   4.115 -1.1220  0.4986  0.3794
34430SOL     OW10150  12.278   2.600   3.329 -0.0993 -0.4533 -0.4023
34430SOL    HW110151  12.199   2.620   3.278  0.4608  0.5653 -0.9005
34430SOL    HW210152  12.347   2.648   3.285  0.7588 -1.1120  0.2004
34431SOL     OW10153   4.496  11.454   1.135  0.6703  0.0076  0.0021
34431SOL    HW110154   4.500  11.390   1.206 -0.8600 -1.4613 -1.1634
34431SOL    HW210155   4.402  11.473   1.125  0.7704 -0.2852 -1.9703
34432SOL     OW10156   1.190  11.485  11.928  0.5608 -0.1642 -0.2475
34432SOL    HW110157   1.129  11.498  12.001  1.7228 -0.6360  0.8461
34432SOL    HW210158   1.179  11.394  11.903  1.1159 -0.3762  0.2534
34433SOL     OW10159   0.496  11.944   9.465  0.0000 -0.6057  0.1654
34433SOL    HW110160   0.582  11.964   9.502  0.3645 -1.0676 -0.4162
34433SOL    HW210161   0.510  11.863   9.416 -0.9141 -1.0200  0.5746
34434SOL     OW10162   8.582   1.589   3.031 -0.5866  0.0848 -0.5143
34434SOL    HW110163   8.676   1.579   3.017 -0.4568  0.1977  0.2094
34434SOL    HW210164   8.552   1.640   2.956 -0.1460 -0.3154 -0.9684
34435SOL     OW10165   6.976   0.075   0.869  0.3911  0.3108  0.3433
34435SOL    HW110166   6.985  -0.018   0.885  1.0495 -0.2266 -2.6266
34435SOL    HW210167   6.911   0.104   0.933 -1.7408 -2.6903 -0.2633
34436SOL     OW10168   7.363   4.736   3.462  0.2286  0.4952 -0.0894
34436SOL    HW110169   7.365   4.806   3.398  1.7870 -0.6575 -1.3804
34436SOL    HW210170   7.337   4.658   3.412  0.8907 -0.3203  0.7926
34437SOL     OW10171   6.365   1.522  12.085  0.5799  0.0509 -0.2597
34437SOL    HW110172   6.315   1.583  12.138  2.2835  1.3517 -0.0871
34437SOL    HW210173   6.374   1.444  12.140  0.3205  0.4866  0.4042
34438SOL     OW10174  12.212   3.078   7.496  0.2363  0.0839 -0.0132
34438SOL    HW110175  12.173   3.014   7.556 -2.3376 -1.4910 -3.0935
34438SOL    HW210176  12.171   3.161   7.520 -1.1378 -0.6083  0.1210
34439SOL     OW10177   0.476  11.918   0.489  0.8188  0.1812 -0.1963
34439SOL    HW110178   0.410  11.895   0.424  1.1676 -0.5052 -0.3166
34439SOL    HW210179   0.439  11.993   0.536 -1.2725 -1.7871  1.5281
34440SOL     OW10180  10.231   4.915   8.627 -0.1577  0.2232 -0.2088
34440SOL    HW110181  10.144   4.953   8.639  0.4594  1.6602 -0.0989
34440SOL    HW210182  10.284   4.954   8.697  0.8819  0.3420 -1.0469
34441SOL     OW10183   2.509   2.793  10.176  0.0214  0.3204  0.4845
34441SOL    HW110184   2.597   2.798  10.214 -0.1793 -0.0047  1.0059
34441SOL    HW210185   2.504   2.705  10.138 -0.4363 -0.0618  1.3867
34442SOL     OW10186  10.602  11.161   1.701  0.0955 -0.0038  0.2861
34442SOL    HW110187  10.600  11.256   1.713  1.9279 -0.0510  1.4013
34442SOL    HW210188  10.695  11.140   1.691 -0.3460 -1.5869 -0.9732
34443SOL     OW10189   1.719   0.287   0.858  0.6682  0.3528 -0.6425
34443SOL    HW110190   1.794   0.259   0.910 -1.0333 -1.7815  0.8129
34443SOL    HW210191   1.700   0.213   0.800 -1.2892  0.1265  0.2028
34444SOL     OW10192   3.263  12.018   0.765  0.0844  0.3930  0.0411
34444SOL    HW110193   3.343  12.049   0.806  0.6137 -0.2038 -0.5109
34444SOL    HW210194   3.215  12.097   0.741  0.7959  0.7577 -0.1878
34445SOL     OW10195  11.990  11.668   2.298 -0.2123  0.7249 -0.0795
34445SOL    HW110196  12.080  11.672   2.265 -0.2247 -0.1104 -0.2506
34445SOL    HW210197  11.946  11.607   2.239  0.0918 -1.8300  2.1474
34446SOL     OW10198   1.554  12.458  10.577  0.5391 -0.4455  0.8217
34446SOL    HW110199   1.642  12.464  10.614  0.3023  0.9358  1.2236
34446SOL    HW210200   1.497  12.487  10.648 -0.0236  1.1716 -0.2410
34447SOL     OW10201   5.476   3.703   1.055  0.4287 -0.2201 -0.1971
34447SOL    HW110202   5.525   3.781   1.031 -0.6842 -0.2710 -3.0316
34447SOL    HW210203   5.393   3.736   1.088  0.3274 -0.1785 -0.4884
34448SOL     OW10204  12.285   1.073   3.919  0.5369  0.1393  0.6276
34448SOL    HW110205  12.256   1.017   3.991  1.4888 -0.4579  0.5689
34448SOL    HW210206  12.313   1.155   3.962  0.8148 -0.1014  0.9108
34449SOL     OW10207   1.493   7.120   1.454 -0.4755 -0.2676  0.7036
34449SOL    HW110208   1.546   7.058   1.404  0.5434 -0.0708  1.4948
34449SOL    HW210209   1.546   7.139   1.532 -1.3080  0.6615  1.0633
34450SOL     OW10210   3.074  10.255   0.438  0.6681 -0.0136  0.0399
34450SOL    HW110211   3.111  10.284   0.354  0.4749 -0.0874 -0.0722
34450SOL    HW210212   3.149  10.227   0.489  0.8289  0.4240  0.0436
34451SOL     OW10213   0.641   7.384   7.147  0.1015  0.2124  0.8606
34451SOL    HW110214   0.703   7.372   7.075  0.1783 -0.7305  1.0708
34451SOL    HW210215   0.620   7.295   7.175 -1.4316  0.5173  0.7317
34452SOL     OW10216   5.432   5.899  10.105 -0.5870 -0.3725  0.0877
34452SOL    HW110217   5.421   5.812  10.067 -0.6205 -0.3683  0.0885
34452SOL    HW210218   5.505   5.937  10.056  1.7571 -1.6782  2.2927
34453SOL     OW10219   6.150   6.155   6.134 -0.1823 -0.4527 -0.6501
34453SOL    HW110220   6.067   6.115   6.161 -0.6320  1.2471  0.6532
34453SOL    HW210221   6.210   6.138   6.206  0.2093 -0.4845 -0.9799
34454SOL     OW10222   9.992   8.041   4.841  0.3344  0.0951 -0.0756
34454SOL    HW110223   9.983   8.116   4.783  0.6365 -0.2056 -0.5180
34454SOL    HW210224  10.081   8.047   4.876  0.5047 -0.2809 -0.4347
34455SOL     OW10225   9.546   0.282  11.728 -0.1244 -0.1884 -0.0372
34455SOL    HW110226   9.534   0.198  11.773  0.6064  0.2856  1.0726
34455SOL    HW210227   9.480   0.281  11.658  0.7981 -2.2924 -0.9646
34456SOL     OW10228   2.550   8.354   8.557 -0.4279 -0.3310 -0.6330
34456SOL    HW110229   2.465   8.334   8.518 -1.0595  1.8553 -0.4837
34456SOL    HW210230   2.560   8.448   8.546  2.4626 -0.6511 -1.5764
34457SOL     OW10231   1.875  11.756  11.705 -0.0088  0.1334 -0.2217
34457SOL    HW110232   1.860  11.812  11.782  0.6989 -0.1640  0.1404
34457SOL    HW210233   1.798  11.771  11.650 -1.2558 -0.7653  1.2104
34458SOL     OW10234   6.343   3.668   1.824  0.0629 -0.0580  0.2387
34458SOL    HW110235   6.313   3.642   1.737 -0.2014  1.6565 -0.2125
34458SOL    HW210236   6.325   3.592   1.879 -3.5015  0.1690 -0.3758
34459SOL     OW10237   5.075  11.952   0.892 -0.3578  0.9044  0.1706
34459SOL    HW110238   5.132  11.889   0.848  1.0573  3.1305 -1.3888
34459SOL    HW210239   5.081  11.928   0.985  0.2910 -1.0808 -0.3265
34460SOL     OW10240  11.398  11.708   2.265  0.5025  0.2775 -0.1940
34460SOL    HW110241  11.308  11.681   2.250  0.7047 -0.0897 -0.7819
34460SOL    HW210242  11.443  11.690   2.182  1.5700 -1.4131  0.6974
34461SOL     OW10243   0.958   5.626   2.282 -0.9308  0.0691  0.1651
34461SOL    HW110244   0.862   5.630   2.290 -0.9492 -0.0113 -0.0044
34461SOL    HW210245   0.976   5.534   2.263 -0.7723 -0.0347  0.7941
34462SOL     OW10246   1.785  12.220   3.515 -0.1554  0.8200  0.1984
34462SOL    HW110247   1.877  12.192   3.518 -0.3133  0.1901  3.6406
34462SOL    HW210248   1.783  12.301   3.565 -1.5118  0.5999  0.5481
34463SOL     OW10249  12.410  11.969   9.602  0.5970 -0.4416 -0.0202
34463SOL    HW110250  12.397  11.944   9.510  1.4359  1.7798 -0.8201
34463SOL    HW210251  12.505  11.970   9.613  0.5418  0.4605  0.4950
34464SOL     OW10252   8.800   2.743  10.067 -0.3040 -0.4414  0.4099
34464SOL    HW110253   8.866   2.675  10.082 -1.8863 -1.5109  3.1504
34464SOL    HW210254   8.831   2.789   9.989  1.0540 -3.9986 -1.3774
34465SOL     OW10255   5.587   5.681  12.393  0.3142 -0.0461 -0.2065
34465SOL    HW110256   5.665   5.735  12.407 -0.1899  0.3428  1.3694
34465SOL    HW210257   5.611   5.595  12.427 -0.2052  0.3259  1.2081
34466SOL     OW10258   1.978  10.802   7.629  0.2390 -0.1532 -0.2030
34466SOL    HW110259   2.064  10.832   7.599  0.6460 -1.2236 -0.1882
34466SOL    HW210260   1.921  10.811   7.554  0.9192 -1.5183 -0.9422
34467SOL     OW10261   4.677   6.334   6.115 -0.0151  0.5275  0.3843
34467SOL    HW110262   4.755   6.332   6.171  1.1370 -1.9018 -1.1277
34467SOL    HW210263   4.627   6.257   6.141 -0.9042  0.9478 -0.0431
34468SOL     OW10264   3.433   2.346  10.388 -0.4713  0.0100 -0.1187
34468SOL    HW110265   3.422   2.438  10.365  1.0489  0.6658  1.5324
34468SOL    HW210266   3.528   2.334  10.393 -0.6319 -0.8079  2.5537
34469SOL     OW10267   8.236   0.522   7.189 -0.2534 -0.1077  0.8472
34469SOL    HW110268   8.217   0.599   7.135 -1.8163 -0.9218  0.1477
34469SOL    HW210269   8.215   0.548   7.278 -2.9489 -0.3141  0.3588
34470SOL     OW10270   5.756   4.760   8.162 -0.2903  0.1174 -0.4496
34470SOL    HW110271   5.667   4.770   8.195  0.5907 -1.0987  2.6299
34470SOL    HW210272   5.803   4.836   8.195  0.4401 -0.7183  0.4862
34471SOL     OW10273   2.454   6.846   5.252 -0.6258  0.5531 -0.4041
34471SOL    HW110274   2.393   6.783   5.213  0.1799 -0.4815 -0.0568
34471SOL    HW210275   2.400   6.900   5.310 -1.4499  0.6329 -1.2223
34472SOL     OW10276   8.623   6.928   3.324 -0.0049 -0.6786 -0.2376
34472SOL    HW110277   8.668   6.880   3.255  0.6243 -0.1315 -0.2209
34472SOL    HW210278   8.684   6.927   3.398 -1.1084 -2.2048  0.7131
34473SOL     OW10279   8.580   6.527   1.661 -0.3045  0.5305  0.3570
34473SOL    HW110280   8.534   6.606   1.689 -0.5242  0.0835  1.3342
34473SOL    HW210281   8.644   6.511   1.730  1.7027  1.4198 -1.2257
34474SOL     OW10282   7.194   7.898   2.795 -0.1056  0.1075 -0.5692
34474SOL    HW110283   7.156   7.810   2.792 -1.0103  0.3701  1.5332
34474SOL    HW210284   7.289   7.882   2.793 -0.2143 -1.0515  1.0229
34475SOL     OW10285  10.622   4.253   7.035  0.5871 -0.2819  0.3692
34475SOL    HW110286  10.651   4.319   7.098 -2.7146  1.1010  0.6773
34475SOL    HW210287  10.595   4.179   7.089  0.2190 -0.1381  0.3858
34476SOL     OW10288   3.722  10.092   8.422 -0.0027 -0.5643 -0.5467
34476SOL    HW110289   3.682  10.005   8.430  0.2433 -0.6819 -0.5831
34476SOL    HW210290   3.710  10.115   8.330 -0.3647 -0.4137 -0.4646
34477SOL     OW10291   1.659   9.358   7.992  0.1025 -0.0762 -0.1833
34477SOL    HW110292   1.746   9.330   8.022 -0.6244  0.4554  2.7251
34477SOL    HW210293   1.659   9.338   7.899  2.7424 -1.6215  0.0269
34478SOL     OW10294   7.742   0.102   2.623 -0.0684  0.2400 -0.1973
34478SOL    HW110295   7.652   0.119   2.648  0.6116  1.8704  1.3921
34478SOL    HW210296   7.767   0.178   2.570  0.8815  0.7506  0.9243
34479SOL     OW10297   0.048   8.657   7.602 -0.1457  0.1840  0.0798
34479SOL    HW110298   0.057   8.619   7.689  2.2822  2.4201  0.9460
34479SOL    HW210299  -0.022   8.721   7.611  1.0244  1.3995  0.8425
34480SOL     OW10300  11.511  10.073   0.636 -0.1754  0.1122 -0.2026
34480SOL    HW110301  11.557  10.030   0.709 -1.1180  2.1024  1.7001
34480SOL    HW210302  11.569  10.145   0.610  0.7555 -1.3269 -2.4175
34481SOL     OW10303   7.790   2.470   0.204 -0.2242 -0.1007 -0.1884
34481SOL    HW110304   7.785   2.515   0.289 -1.3494  1.0632 -0.8372
34481SOL    HW210305   7.882   2.479   0.178 -0.1636  0.7601  0.2751
34482SOL     OW10306  11.880   5.078   5.797 -0.1598 -0.1431 -0.3710
34482SOL    HW110307  11.907   5.168   5.779 -1.1339  0.0238 -1.0613
34482SOL    HW210308  11.961   5.027   5.793  0.5936  0.8527  1.2027
34483SOL     OW10309   9.472   2.146  12.367 -0.0755  0.5953  0.7245
34483SOL    HW110310   9.448   2.090  12.293  0.4665  1.1901  0.0879
34483SOL    HW210311   9.429   2.105  12.442 -0.1704 -0.3407  0.1804
34484SOL     OW10312  11.398   5.813   6.646  0.4627  0.6794 -0.7088
34484SOL    HW110313  11.398   5.819   6.742  0.6354 -0.9185 -0.5828
34484SOL    HW210314  11.351   5.891   6.617  1.4007  1.7941  0.6267
34485SOL     OW10315   1.473   1.231   2.025 -0.5285 -0.2314  0.5005
34485SOL    HW110316   1.467   1.210   2.118  0.6913  1.8951  1.1215
34485SOL    HW210317   1.392   1.195   1.987 -1.1707 -0.9167  2.3986
34486SOL     OW10318   1.819   9.908   6.909  0.1355  0.3606 -0.1094
34486SOL    HW110319   1.833   9.953   6.825  3.5299 -0.0158  0.1395
34486SOL    HW210320   1.899   9.858   6.923 -0.3154  0.3947  3.3864
34487SOL     OW10321   2.020   1.711   0.041 -0.0485 -0.0676  0.1854
34487SOL    HW110322   1.928   1.736   0.051  0.3080  0.6390  2.0404
34487SOL    HW210323   2.070   1.789   0.064  1.0518 -0.3506 -1.0812
34488SOL     OW10324   5.535   0.139   8.400  0.0493  0.0946 -0.5384
34488SOL    HW110325   5.499   0.056   8.368  1.3013 -0.3313 -0.8733
34488SOL    HW210326   5.516   0.139   8.494 -1.8880  0.4546 -0.8680
34489SOL     OW10327   2.290   8.767   8.643 -0.0734 -0.2162  0.1990
34489SOL    HW110328   2.338   8.760   8.560  0.0472  1.4009  0.0887
34489SOL    HW210329   2.199   8.751   8.620  0.0112 -0.1585 -0.1816
34490SOL     OW10330   5.015   5.937   4.636  0.2056 -0.1266  0.3501
34490SOL    HW110331   4.985   6.012   4.585 -0.3462  0.0250  0.8985
34490SOL    HW210332   4.935   5.890   4.659  0.5898 -1.3344 -0.6592
34491SOL     OW10333   6.024   8.971   1.943 -0.1489  0.4276 -0.3547
34491SOL    HW110334   5.972   9.039   1.899  0.6678  1.8147  0.7201
34491SOL    HW210335   5.994   8.974   2.034 -0.7751 -1.3648 -0.4592
34492SOL     OW10336   1.868  10.316  10.011  0.1351 -0.2147  0.0898
34492SOL    HW110337   1.806  10.272  10.069 -0.0844  1.0427  0.8388
34492SOL    HW210338   1.815  10.346   9.937  0.0958 -0.2939  0.0865
34493SOL     OW10339   9.040   6.453  10.014  0.5608  0.1115  0.1260
34493SOL    HW110340   9.031   6.512   9.939 -0.3753 -1.3398 -0.9553
34493SOL    HW210341   8.956   6.407  10.019  0.9933 -0.5819  1.4043
34494SOL     OW10342  11.638   6.482   7.363 -0.0516 -0.1134  0.9862
34494SOL    HW110343  11.720   6.506   7.405 -0.0984  0.9860  0.4876
34494SOL    HW210344  11.655   6.495   7.269  0.0376 -2.4604  0.6157
34495SOL     OW10345   2.720   9.541   6.531  0.5959 -0.2431 -0.4642
34495SOL    HW110346   2.808   9.573   6.510  0.7159 -0.8678 -0.9439
34495SOL    HW210347   2.670   9.620   6.553  0.6111  0.3878 -2.5535
34496SOL     OW10348   6.331  11.640   9.839 -0.2424 -0.1216 -0.3021
34496SOL    HW110349   6.400  11.697   9.874 -0.3960 -0.3806  0.4449
34496SOL    HW210350   6.249  11.683   9.862 -0.3383  0.2514 -1.3055
34497SOL     OW10351   3.665   8.287   0.076  0.1721  0.0377  0.6431
34497SOL    HW110352   3.635   8.211   0.026  0.4845 -0.6779  1.4897
34497SOL    HW210353   3.585   8.324   0.114 -0.1006  0.7907 -0.6446
34498SOL     OW10354   2.607   7.541   7.957  0.0804 -0.9081 -0.2330
34498SOL    HW110355   2.552   7.489   8.016  1.8581 -1.8961  0.6165
34498SOL    HW210356   2.665   7.590   8.014  0.1808  0.0509 -1.1204
34499SOL     OW10357   2.777   4.665   6.936 -0.5713  0.4082 -0.8858
34499SOL    HW110358   2.745   4.596   6.994 -2.0133 -1.5560 -3.7632
34499SOL    HW210359   2.872   4.661   6.943 -0.6956  0.3627  1.3507
34500SOL     OW10360   1.211   7.087   2.436  0.2404 -0.2062 -1.2831
34500SOL    HW110361   1.216   7.182   2.447  1.4420 -0.1564 -1.9814
34500SOL    HW210362   1.119   7.069   2.417 -0.7059  0.3981  2.0631
34501SOL     OW10363  10.789   4.064   4.985  0.2383 -0.4525  0.3522
34501SOL    HW110364  10.698   4.035   4.994  0.5520 -2.2912 -1.6309
34501SOL    HW210365  10.833   4.031   5.063 -0.5394 -0.5610  0.7543
34502SOL     OW10366   6.274  10.781   4.774  0.0177  0.0974 -0.0199
34502SOL    HW110367   6.324  10.820   4.846 -0.5299  0.5822  0.1146
34502SOL    HW210368   6.186  10.769   4.811 -0.3362  0.5967 -0.6809
34503SOL     OW10369   5.461  11.360   6.202 -0.2680  0.8125 -0.4222
34503SOL    HW110370   5.532  11.393   6.258 -1.5956  2.5811  0.3072
34503SOL    HW210371   5.432  11.279   6.244  1.9169 -0.5145 -1.2898
34504SOL     OW10372   4.994   6.956   1.228  0.3677 -0.2202 -0.2178
34504SOL    HW110373   4.922   7.019   1.219  0.3808 -0.2315 -0.4098
34504SOL    HW210374   4.950   6.872   1.238  0.3425 -0.4237 -1.7417
34505SOL     OW10375   6.188   1.113   4.840  0.4031  0.2765 -0.7884
34505SOL    HW110376   6.258   1.145   4.897 -0.0093  0.6290 -0.4709
34505SOL    HW210377   6.185   1.177   4.769  0.0124  0.5853 -0.4946
34506SOL     OW10378   4.672   2.451   1.539  0.0464 -0.1484 -0.1850
34506SOL    HW110379   4.726   2.418   1.611 -1.2472 -0.2957  0.7417
34506SOL    HW210380   4.587   2.409   1.551 -0.6032  0.8783 -1.0123
34507SOL     OW10381   1.001   1.638   9.365  0.3829  0.4881  0.1533
34507SOL    HW110382   1.075   1.699   9.368  1.0825 -0.3670  1.2613
34507SOL    HW210383   0.959   1.655   9.280  1.7983  1.0566 -0.4674
34508SOL     OW10384   8.044   3.411  10.902 -0.2917 -0.0471  0.2032
34508SOL    HW110385   7.958   3.446  10.877  0.5546  0.6913 -1.9606
34508SOL    HW210386   8.038   3.317  10.883 -0.5292  0.0542 -0.2323
34509SOL     OW10387   3.738   6.422  10.177 -0.1307  0.1012  0.2135
34509SOL    HW110388   3.784   6.345  10.210 -1.3162 -0.4134  0.7091
34509SOL    HW210389   3.672   6.441  10.244 -0.9770  0.5185 -0.7116
34510SOL     OW10390   6.881   9.973   0.690 -0.3777  0.0790 -0.2414
34510SOL    HW110391   6.876  10.045   0.627 -1.1942  0.9625  0.8094
34510SOL    HW210392   6.885   9.894   0.635  2.4317  0.9191 -1.4692
34511SOL     OW10393   0.593   2.901  10.302 -0.0126  0.0664 -0.1624
34511SOL    HW110394   0.499   2.899  10.316 -0.1517 -1.3752 -1.1556
34511SOL    HW210395   0.626   2.821  10.342  0.8502  0.6945  0.4339
34512SOL     OW10396   5.131   6.581   9.986 -0.2229 -0.1392  0.0918
34512SOL    HW110397   5.183   6.520  10.038 -0.7979 -1.9026 -1.3152
34512SOL    HW210398   5.087   6.636  10.051  0.7959 -0.7902  1.3857
34513SOL     OW10399   4.044   8.828   4.599 -0.0257  0.7588  0.2738
34513SOL    HW110400   3.998   8.848   4.681 -0.7939 -0.5141  0.1717
34513SOL    HW210401   3.983   8.853   4.530 -2.2232 -4.0182  0.0922
34514SOL     OW10402   7.637   0.890   7.012  0.5249  0.8683 -0.4926
34514SOL    HW110403   7.666   0.908   7.101  0.3270  0.3577 -0.3268
34514SOL    HW210404   7.558   0.943   7.001 -2.2927 -2.5832  1.2822
34515SOL     OW10405   0.922   6.420   2.560 -0.0606 -0.2464  0.0631
34515SOL    HW110406   0.857   6.469   2.510 -0.6663 -1.0461  0.0365
34515SOL    HW210407   0.990   6.397   2.496 -0.3954 -0.5090 -0.2037
34516SOL     OW10408   3.174   7.330  11.468  0.9276  0.2425 -0.4468
34516SOL    HW110409   3.117   7.253  11.464  1.2479 -0.0357  0.1784
34516SOL    HW210410   3.237   7.317  11.397  1.2552 -0.3114 -0.0706
34517SOL     OW10411  11.106  10.643  11.703 -0.3387  1.0404 -0.0395
34517SOL    HW110412  11.174  10.692  11.657  1.8165 -1.3444  0.4452
34517SOL    HW210413  11.090  10.566  11.648  0.2030 -0.3891  1.6858
34518SOL     OW10414   3.041   7.400  10.558 -0.4687 -0.2572 -0.0723
34518SOL    HW110415   2.965   7.360  10.600  0.8793 -0.6466  2.1441
34518SOL    HW210416   3.016   7.492  10.547 -1.5939 -0.5712 -0.2100
34519SOL     OW10417   2.267   6.424   2.686  0.1396  0.6935  0.0809
34519SOL    HW110418   2.235   6.334   2.681 -1.6681  1.2660  0.4086
34519SOL    HW210419   2.335   6.422   2.753 -0.4052 -0.3086  0.6237
34520SOL     OW10420   4.629   0.290   6.559 -0.6750 -0.3879 -0.2407
34520SOL    HW110421   4.584   0.349   6.499 -0.3862 -1.5630 -1.6608
34520SOL    HW210422   4.722   0.304   6.542 -0.6047 -1.7468 -1.1418
34521SOL     OW10423   5.081  11.501   5.673 -0.8215 -0.2423 -0.1624
34521SOL    HW110424   5.013  11.434   5.675 -2.6456  1.5042 -0.1837
34521SOL    HW210425   5.058  11.561   5.744  0.4215  0.6696 -0.4901
34522SOL     OW10426   0.463   2.512   0.936 -0.2541 -0.0309  0.1173
34522SOL    HW110427   0.504   2.565   0.867 -0.7071  2.2145  1.4617
34522SOL    HW210428   0.535   2.482   0.990 -0.0571 -0.0205 -0.1357
34523SOL     OW10429   6.437   6.441   9.991  0.1706  0.4920  0.2111
34523SOL    HW110430   6.454   6.351   9.963  2.1825  0.4847  1.2425
34523SOL    HW210431   6.468   6.496   9.918 -0.5302  0.3640 -0.1846
34524SOL     OW10432   3.751   5.693  11.290  0.3002 -0.0441  0.1143
34524SOL    HW110433   3.842   5.689  11.320  0.1982  1.0037  0.6317
34524SOL    HW210434   3.706   5.626  11.341  0.7722 -0.5456 -0.1179
34525SOL     OW10435  10.070  11.618   2.410 -0.2087 -0.5154 -0.1786
34525SOL    HW110436  10.095  11.546   2.468 -0.0983 -2.1189 -2.0703
34525SOL    HW210437  10.152  11.648   2.371  0.1773  2.7739  2.7149
34526SOL     OW10438   5.680   7.935   8.897  0.4674 -0.3708 -0.4157
34526SOL    HW110439   5.637   7.927   8.812  0.7516 -1.7981 -0.4434
34526SOL    HW210440   5.614   7.977   8.953 -1.5178 -3.4926 -0.1435
34527SOL     OW10441   2.698   9.021   4.896  0.0243  0.2295 -0.2747
34527SOL    HW110442   2.628   9.019   4.962 -1.6670 -1.1932 -2.0014
34527SOL    HW210443   2.657   8.986   4.817  3.2435 -2.7945 -0.8423
34528SOL     OW10444  12.438  10.830   6.458 -0.5246 -0.2961 -0.0012
34528SOL    HW110445  12.382  10.756   6.480  2.6317 -1.9758  3.3821
34528SOL    HW210446  12.443  10.881   6.538  1.4588  0.6907 -0.6871
34529SOL     OW10447   6.992   3.443   4.514  0.2264 -0.2952  0.1798
34529SOL    HW110448   6.958   3.464   4.601 -0.4375  2.0953 -0.5721
34529SOL    HW210449   6.915   3.412   4.465  0.2736 -0.1218 -0.0037
34530SOL     OW10450   6.384   0.885   0.509 -0.3078 -0.1108  0.8499
34530SOL    HW110451   6.315   0.929   0.559  0.8546  1.0640  1.4591
34530SOL    HW210452   6.461   0.942   0.518  1.3081 -2.3097  1.7832
34531SOL     OW10453   5.603   6.041   7.753 -0.4219 -0.1391  0.2068
34531SOL    HW110454   5.562   6.032   7.667 -0.7656 -0.3488  0.3900
34531SOL    HW210455   5.542   6.097   7.803  1.0556  2.2648 -0.5065
34532SOL     OW10456   2.339   1.013  10.063  0.0122 -0.4332  0.1380
34532SOL    HW110457   2.418   0.967  10.090  0.3870 -0.5061 -1.0445
34532SOL    HW210458   2.367   1.105  10.056 -0.4631 -0.1743  1.4448
34533SOL     OW10459   4.447   3.987   7.627  0.1328 -0.1175 -0.3481
34533SOL    HW110460   4.474   4.055   7.689  0.5258 -0.6719  0.0942
34533SOL    HW210461   4.389   3.931   7.678  0.2944 -0.4562 -0.5382
34534SOL     OW10462   5.449  11.836   0.021 -0.6210  0.0114  0.2490
34534SOL    HW110463   5.437  11.836  -0.074 -2.6276  0.4346  0.4650
34534SOL    HW210464   5.528  11.888   0.035  0.5188 -1.2111 -1.2379
34535SOL     OW10465   7.927   1.294   4.532  0.5312 -0.1932 -0.1273
34535SOL    HW110466   7.915   1.348   4.454 -1.2985  1.8540  1.4430
34535SOL    HW210467   7.878   1.214   4.514  0.0582  0.2943 -1.0466
34536SOL     OW10468   9.315   6.164   8.684  0.0169  0.0082 -0.2193
34536SOL    HW110469   9.365   6.141   8.762 -2.0854 -0.2306  1.1473
34536SOL    HW210470   9.321   6.260   8.680 -1.3283  0.2195  1.3843
34537SOL     OW10471   8.321   1.513   5.277 -0.1147 -0.2035  0.2391
34537SOL    HW110472   8.342   1.510   5.183  0.7717  0.1442  0.4096
34537SOL    HW210473   8.315   1.421   5.304 -0.7563 -0.3048 -0.2337
34538SOL     OW10474   1.918   8.133   2.892 -0.0645 -0.4561  0.0409
34538SOL    HW110475   1.970   8.159   2.816 -2.0751  0.7692 -1.0028
34538SOL    HW210476   1.971   8.162   2.967  0.6169  1.0920 -0.9689
34539SOL     OW10477   5.375   6.925   6.330 -0.0562  0.1615  0.2615
34539SOL    HW110478   5.361   7.012   6.294 -1.0872  0.3323  1.0311
34539SOL    HW210479   5.387   6.939   6.424  0.0531 -0.4961  0.3526
34540SOL     OW10480   9.571   8.464   4.984  0.6360 -0.1933  0.1674
34540SOL    HW110481   9.656   8.478   5.027  0.9934 -2.0354  0.1601
34540SOL    HW210482   9.582   8.500   4.896  0.6255  1.6364  0.8786
34541SOL     OW10483   1.999   3.603   9.575  0.2406 -0.8549  0.0489
34541SOL    HW110484   1.954   3.629   9.494  1.1643  0.5409 -0.0352
34541SOL    HW210485   2.058   3.533   9.547 -0.1915 -1.0980 -0.2788
34542SOL     OW10486   7.215  10.607   7.176  0.0401  0.2908  0.4606
34542SOL    HW110487   7.129  10.607   7.135  0.0288 -2.5439  0.2427
34542SOL    HW210488   7.274  10.639   7.108 -0.4011 -1.4329 -0.8185
34543SOL     OW10489   3.353   7.335   4.726  0.7181 -0.1302 -0.6241
34543SOL    HW110490   3.347   7.244   4.754 -1.4994  0.1292 -0.0176
34543SOL    HW210491   3.280   7.378   4.771  1.3536  1.8183 -1.3619
34544SOL     OW10492   1.273   8.087   6.740  0.1602  0.4598 -0.0433
34544SOL    HW110493   1.178   8.075   6.735  0.2754 -0.4512 -0.3138
34544SOL    HW210494   1.301   8.023   6.805  0.6935  0.0208 -0.6923
34545SOL     OW10495   5.737   5.389   8.520 -0.5290 -0.0301 -0.0141
34545SOL    HW110496   5.781   5.337   8.588  2.5651  2.2384 -0.0462
34545SOL    HW210497   5.725   5.475   8.560 -0.0826  0.9142 -1.8058
34546SOL     OW10498   2.423   4.398   6.465 -0.0370  0.1166 -0.1925
34546SOL    HW110499   2.515   4.393   6.491  0.1003  1.2735 -0.3706
34546SOL    HW210500   2.375   4.372   6.543  0.4419 -1.1578 -0.3053
34547SOL     OW10501  11.916   3.042   9.551  0.4698  0.4405  0.5175
34547SOL    HW110502  11.907   3.096   9.630 -0.9332 -2.0767  2.2227
34547SOL    HW210503  11.957   2.961   9.583 -2.4607 -1.6841 -0.7579
34548SOL     OW10504   7.871   0.632  11.514  0.1448 -0.3325  0.3758
34548SOL    HW110505   7.918   0.558  11.477  0.8500  0.4898 -0.4526
34548SOL    HW210506   7.784   0.627  11.474  0.3334 -0.4654 -0.0304
34549SOL     OW10507  11.482   6.724  10.804  0.5425  0.0547 -0.2373
34549SOL    HW110508  11.388   6.742  10.798  0.3157 -0.9999 -0.0334
34549SOL    HW210509  11.523   6.809  10.788 -0.4842  0.9746  1.6590
34550SOL     OW10510   9.851   4.290  11.896  0.4165 -0.5138 -0.4191
34550SOL    HW110511   9.862   4.241  11.814  0.9272 -1.6681  0.3285
34550SOL    HW210512   9.898   4.372  11.881  0.9861 -0.9501 -1.0746
34551SOL     OW10513   8.710   6.410   5.712  0.4280  0.2221 -0.1666
34551SOL    HW110514   8.628   6.437   5.672  1.3568  0.2718 -2.2027
34551SOL    HW210515   8.777   6.443   5.652  1.9626  0.5191  1.6264
34552SOL     OW10516   6.835   1.834   9.591 -0.0020  0.4751 -0.2350
34552SOL    HW110517   6.887   1.871   9.520 -2.5810  1.9570 -1.5055
34552SOL    HW210518   6.846   1.895   9.663  0.0699  0.7554 -0.4801
34553SOL     OW10519   1.467  10.289   5.787 -0.1222  0.1355  0.2009
34553SOL    HW110520   1.514  10.223   5.837  0.5481  1.6142  1.6004
34553SOL    HW210521   1.529  10.319   5.722 -0.1038  0.0740  0.1896
34554SOL     OW10522   5.409  10.595   5.459 -0.0450  0.7778  0.1804
34554SOL    HW110523   5.505  10.592   5.454  0.0912 -3.0412  2.0666
34554SOL    HW210524   5.391  10.657   5.529  1.2491 -0.4893  1.7149
34555SOL     OW10525   9.564   6.825   2.825 -0.2357 -0.2613  0.4941
34555SOL    HW110526   9.652   6.852   2.853  0.0385  1.7710 -1.9297
34555SOL    HW210527   9.509   6.901   2.844 -0.8318 -0.3917 -0.6517
34556SOL     OW10528   5.667   9.561   7.330 -0.7829 -0.0326 -0.9407
34556SOL    HW110529   5.586   9.516   7.354 -0.2942  0.2991  1.5063
34556SOL    HW210530   5.737   9.508   7.368  0.0541  0.6390 -1.4918
34557SOL     OW10531  11.145  11.217   8.498  0.0646  0.1144 -0.2549
34557SOL    HW110532  11.222  11.168   8.525  0.3954  0.6458 -0.2128
34557SOL    HW210533  11.099  11.236   8.580 -0.1418 -0.2521 -0.2850
34558SOL     OW10534   7.522   5.700   5.903  0.2412 -0.1866 -0.2536
34558SOL    HW110535   7.541   5.791   5.928  2.2517 -0.7589  0.4656
34558SOL    HW210536   7.525   5.651   5.986 -2.7086 -0.6954 -0.3307
34559SOL     OW10537   9.821   9.296   2.620  0.5403  0.1219  0.2217
34559SOL    HW110538   9.761   9.270   2.551  0.1398  0.4433  0.4470
34559SOL    HW210539   9.798   9.387   2.640 -0.5930 -0.5180  2.0598
34560SOL     OW10540  11.622   7.570   7.398 -0.4327  0.8164 -0.0093
34560SOL    HW110541  11.627   7.664   7.414 -0.9325  0.5369  2.2215
34560SOL    HW210542  11.578   7.535   7.476 -0.0092 -1.2896 -0.6498
34561SOL     OW10543   0.145   0.140   8.875 -0.1675 -0.1475  0.4024
34561SOL    HW110544   0.058   0.109   8.900 -0.4037  1.3022  1.5425
34561SOL    HW210545   0.130   0.195   8.798 -0.0382 -1.1073 -0.3206
34562SOL     OW10546   2.145   1.032   1.486  0.2231  0.4507  0.2145
34562SOL    HW110547   2.157   1.084   1.566 -1.1040 -0.5686  1.1198
34562SOL    HW210548   2.050   1.022   1.478  0.3574  0.1705 -1.2766
34563SOL     OW10549  10.922  10.086   3.763 -0.4164  0.2088 -0.1760
34563SOL    HW110550  10.949  10.177   3.752 -0.0238 -0.0876 -1.8998
34563SOL    HW210551  10.826  10.091   3.770 -0.3072  0.8697  1.5991
34564SOL     OW10552   9.904   4.137   3.818 -0.2515 -0.4352  0.2781
34564SOL    HW110553   9.842   4.085   3.767 -1.8201  0.6601  0.9954
34564SOL    HW210554   9.849   4.192   3.874  1.2726  2.3551 -0.7781
34565SOL     OW10555   1.682   9.003   3.552 -0.3639 -0.7925 -0.1205
34565SOL    HW110556   1.604   9.035   3.597  1.1727  0.4467  1.8829
34565SOL    HW210557   1.705   8.922   3.597 -0.3867 -1.0447 -0.5615
34566SOL     OW10558   1.357   1.404  11.591  0.1613  0.0384  0.1291
34566SOL    HW110559   1.389   1.362  11.511  0.9821 -0.0137  0.4734
34566SOL    HW210560   1.434   1.444  11.630  0.3073 -1.9839  2.1411
34567SOL     OW10561  11.495   8.408   3.793 -0.2505 -0.1455 -0.0890
34567SOL    HW110562  11.558   8.464   3.839 -1.9838  1.4187  0.5124
34567SOL    HW210563  11.432   8.384   3.860 -1.7235  0.5137 -1.1945
34568SOL     OW10564   8.509   6.302   8.857  0.3218 -0.7241 -0.2937
34568SOL    HW110565   8.485   6.386   8.819  0.2184 -1.6683 -2.4228
34568SOL    HW210566   8.436   6.282   8.917  0.0795  0.4073 -0.1735
34569SOL     OW10567   9.733   7.497   0.292 -0.0336  0.6543 -0.1170
34569SOL    HW110568   9.679   7.432   0.246 -0.3625 -1.4088  2.8609
34569SOL    HW210569   9.703   7.492   0.383  3.1568  1.5608  1.1032
34570SOL     OW10570  12.293   3.428   1.274  0.5509 -0.2026  0.3089
34570SOL    HW110571  12.308   3.440   1.181  0.4536  0.0920  0.3303
34570SOL    HW210572  12.305   3.334   1.289  2.0453 -0.0477  0.2553
34571SOL     OW10573  11.397   8.176   6.234  0.3236  0.3411 -0.0635
34571SOL    HW110574  11.476   8.138   6.196  0.3954 -0.4909  0.8737
34571SOL    HW210575  11.325   8.126   6.196  0.4139 -0.7210  1.1079
34572SOL     OW10576   8.391   9.003   4.643  0.1935  0.1431 -0.0138
34572SOL    HW110577   8.390   8.924   4.590 -0.6518  0.5950 -0.6842
34572SOL    HW210578   8.316   9.054   4.614  0.4437  0.9865  0.7369
34573SOL     OW10579   3.165  11.722   8.216  0.0736 -0.1601  0.0706
34573SOL    HW110580   3.090  11.664   8.230 -0.0366  0.2893  1.4547
34573SOL    HW210581   3.225  11.702   8.287 -0.0123  1.4776  0.6424
34574SOL     OW10582   0.113   9.488   9.133 -0.1993  0.7426  0.1501
34574SOL    HW110583   0.140   9.546   9.062  1.1501  2.4081  1.9170
34574SOL    HW210584   0.021   9.509   9.148 -0.7548 -0.2691 -1.6365
34575SOL     OW10585  12.045   7.273   7.649 -0.1411  0.2922 -0.2485
34575SOL    HW110586  12.134   7.307   7.643  0.2551 -0.8011 -0.8347
34575SOL    HW210587  12.030   7.263   7.743 -0.6011  2.8356  0.0181
34576SOL     OW10588   7.892   0.261   3.438  0.6297  0.3670  0.6650
34576SOL    HW110589   7.969   0.315   3.460 -0.3668  2.2092 -0.1526
34576SOL    HW210590   7.927   0.172   3.428  2.5591  1.0595  0.8716
34577SOL     OW10591   4.410   4.921   3.586  0.1312 -0.2908  0.7802
34577SOL    HW110592   4.373   4.995   3.635 -0.8716  0.7273 -1.3768
34577SOL    HW210593   4.334   4.869   3.560  0.8088 -1.9949  2.0381
34578SOL     OW10594  10.863   3.833   3.174  0.4178 -0.2278 -0.2704
34578SOL    HW110595  10.828   3.805   3.258  0.0797 -0.6154 -0.5359
34578SOL    HW210596  10.904   3.918   3.192 -1.0105  0.4293 -0.0388
34579SOL     OW10597   9.557   8.096   8.819  0.3858  0.1116 -0.3833
34579SOL    HW110598   9.625   8.039   8.782  0.8653  0.1877  0.3795
34579SOL    HW210599   9.585   8.184   8.796 -1.2635  0.0285 -3.1300
34580SOL     OW10600   3.094   4.112   8.887  0.3762  0.3082  0.1361
34580SOL    HW110601   3.058   4.132   8.973  0.1963 -1.7405  0.6030
34580SOL    HW210602   3.128   4.023   8.896  2.4243  0.8701 -1.2770
34581SOL     OW10603   9.897   5.400   9.295  0.0868 -0.2158  0.0081
34581SOL    HW110604   9.848   5.403   9.213  1.6135  0.0155 -0.9349
34581SOL    HW210605   9.875   5.315   9.333 -2.5476  0.6625  0.6308
34582SOL     OW10606   7.761  12.041   1.803  0.4337 -0.3185 -0.0714
34582SOL    HW110607   7.736  12.113   1.861 -1.7500 -1.5405  0.6563
34582SOL    HW210608   7.800  11.976   1.862 -0.6471 -1.0484 -0.1243
34583SOL     OW10609   2.971   1.947  12.294  0.3111  0.4053 -0.0734
34583SOL    HW110610   2.969   1.957  12.199 -0.1389  0.1321 -0.0928
34583SOL    HW210611   3.065   1.947  12.316  0.4057  2.1734 -0.3218
34584SOL     OW10612   5.850   0.505   0.168 -0.5463  0.3908 -0.1164
34584SOL    HW110613   5.831   0.546   0.252  1.2667 -0.4220  0.7395
34584SOL    HW210614   5.788   0.432   0.162  0.4215 -0.5941  1.3517
34585SOL     OW10615   8.953  11.195  10.165 -0.3643 -0.3843  0.4559
34585SOL    HW110616   8.865  11.213  10.132 -0.4441 -0.6616  0.5140
34585SOL    HW210617   8.980  11.114  10.120 -0.5130 -0.8235  1.1345
34586SOL     OW10618  11.182   6.011   1.040 -0.1439  0.0284  0.0228
34586SOL    HW110619  11.263   5.978   1.079 -0.1775 -0.6748 -0.4973
34586SOL    HW210620  11.165   6.094   1.087  1.3953  0.6969 -0.5482
34587SOL     OW10621   1.899   2.968   1.287  0.0050 -0.5050 -0.1130
34587SOL    HW110622   1.833   3.037   1.294  1.2565  0.8288 -0.9558
34587SOL    HW210623   1.893   2.939   1.196  0.8965 -0.0096 -0.3442
34588SOL     OW10624   9.271   9.126  10.513 -0.3310 -0.1112 -0.4044
34588SOL    HW110625   9.338   9.192  10.497  0.3176 -0.5854  0.2664
34588SOL    HW210626   9.213   9.130  10.436  1.6652 -1.1453 -2.0805
34589SOL     OW10627   8.489   7.711  11.005 -0.7160 -0.2197  0.0008
34589SOL    HW110628   8.501   7.806  11.001 -0.8925 -0.2297 -0.8383
34589SOL    HW210629   8.550   7.676  10.940  0.5857 -0.8064  1.4769
34590SOL     OW10630  12.045  10.879   0.936  0.2232  0.4963 -0.6671
34590SOL    HW110631  12.083  10.957   0.977 -1.0189  1.0019 -0.4484
34590SOL    HW210632  11.993  10.838   1.006 -0.6501  0.5136 -1.2964
34591SOL     OW10633  11.494   2.230   5.791 -0.6377  0.3443  0.5911
34591SOL    HW110634  11.426   2.275   5.741 -0.5883 -0.1815  0.0500
34591SOL    HW210635  11.452   2.206   5.873 -1.1881 -0.2104  0.1537
34592SOL     OW10636   1.562   9.270   6.874 -0.3029 -0.2531  0.6123
34592SOL    HW110637   1.572   9.275   6.969 -0.4097 -0.9110  0.6606
34592SOL    HW210638   1.600   9.186   6.849 -0.9845 -0.4435  0.1686
34593SOL     OW10639  12.209   2.755   2.400  0.4325 -0.0858  0.3262
34593SOL    HW110640  12.211   2.661   2.415  3.2016 -0.1255  0.1920
34593SOL    HW210641  12.232   2.766   2.308 -0.2944  0.7301  0.2247
34594SOL     OW10642  12.415   2.495   8.720  0.5411  0.4038 -0.1987
34594SOL    HW110643  12.328   2.534   8.728  0.1726 -0.1253 -1.3579
34594SOL    HW210644  12.410   2.414   8.770  0.7379  0.9116  0.6743
34595SOL     OW10645   6.272  12.128   3.241  0.2968  0.4947 -0.4764
34595SOL    HW110646   6.339  12.065   3.216  0.5766  1.0249 -1.0833
34595SOL    HW210647   6.309  12.213   3.218 -0.6258  0.7876 -0.9250
34596SOL     OW10648   6.291   3.710   3.850  0.1859 -0.6493  0.2886
34596SOL    HW110649   6.275   3.716   3.756 -0.6814  0.0355  0.4699
34596SOL    HW210650   6.265   3.795   3.885 -0.3043 -1.1674  1.2604
34597SOL     OW10651   6.146  12.026   0.571 -0.0536 -0.2929  0.1268
34597SOL    HW110652   6.129  11.961   0.503  0.0537 -0.2812  0.0894
34597SOL    HW210653   6.147  11.975   0.653  0.1678 -0.3589  0.0830
34598SOL     OW10654   2.271   4.128   6.005  0.4949 -0.1185 -0.3985
34598SOL    HW110655   2.178   4.111   5.993  0.4447 -0.7328  0.7349
34598SOL    HW210656   2.279   4.157   6.096  1.3894  0.0038 -0.5058
34599SOL     OW10657   8.658   0.350   0.165 -0.1963 -0.6775 -0.4343
34599SOL    HW110658   8.631   0.350   0.256 -0.7496  0.1273 -0.5903
34599SOL    HW210659   8.733   0.410   0.161 -1.3425  0.7835 -0.8200
34600SOL     OW10660   1.618   3.024   4.567 -0.5527 -0.3241  0.3164
34600SOL    HW110661   1.640   3.013   4.474  0.8918 -3.7797  0.9191
34600SOL    HW210662   1.598   2.936   4.598  1.0423  0.3427  3.7424
34601SOL     OW10663   9.026   3.040   9.046 -0.4086 -0.1517  0.1262
34601SOL    HW110664   9.060   3.075   8.964 -1.2089 -2.0368 -1.0782
34601SOL    HW210665   9.082   3.079   9.114  1.0963  0.4672 -1.4035
34602SOL     OW10666   1.280   4.161   2.639  0.2636 -0.3729 -0.0764
34602SOL    HW110667   1.348   4.228   2.641  0.3785 -0.4995  0.3878
34602SOL    HW210668   1.232   4.173   2.720  0.2687 -0.8347 -0.0007
34603SOL     OW10669   7.329   1.864   6.308 -0.6241  1.0146  0.0907
34603SOL    HW110670   7.297   1.867   6.218 -1.4642  1.2126  0.3952
34603SOL    HW210671   7.424   1.856   6.299 -0.8167 -0.7035 -0.8173
34604SOL     OW10672  11.417   4.885   5.297 -0.6373 -0.8040  0.2404
34604SOL    HW110673  11.402   4.938   5.375  1.5580  0.1032  0.1153
34604SOL    HW210674  11.443   4.799   5.332  0.9522 -0.2255  0.5831
34605SOL     OW10675  12.222   8.281  10.514 -0.1374 -0.0391 -0.2546
34605SOL    HW110676  12.148   8.222  10.500  0.1528 -0.8657  1.4863
34605SOL    HW210677  12.192   8.365  10.479 -1.5879 -0.5614 -0.3186
34606SOL     OW10678   1.415   8.577   6.805  0.2064 -0.1556  0.0147
34606SOL    HW110679   1.485   8.567   6.869 -0.0510 -1.0881  0.1552
34606SOL    HW210680   1.399   8.489   6.772 -0.4153  0.1537 -0.5357
34607SOL     OW10681   5.772   1.758  11.781  0.1239 -0.1743 -0.5586
34607SOL    HW110682   5.689   1.723  11.749  0.0157  0.4223 -0.9374
34607SOL    HW210683   5.790   1.833  11.725  2.0326 -1.5877 -1.9404
34608SOL     OW10684   2.642  11.092   7.987 -0.5487 -0.4767  0.2457
34608SOL    HW110685   2.679  11.121   8.071 -0.7174  2.1857 -0.4953
34608SOL    HW210686   2.550  11.074   8.007 -0.9500  1.5440  0.4142
34609SOL     OW10687   7.327  10.082   9.868  0.0930 -0.6578 -0.3879
34609SOL    HW110688   7.331   9.988   9.886  2.3090 -0.4153  0.7147
34609SOL    HW210689   7.350  10.089   9.775 -0.5171 -1.2159 -0.5912
34610SOL     OW10690   3.465  11.257   5.073 -0.0617 -0.0705 -0.2199
34610SOL    HW110691   3.465  11.347   5.104  0.6490 -0.4723  1.0457
34610SOL    HW210692   3.402  11.255   5.001  0.2613  1.5259 -0.5776
34611SOL     OW10693   8.607   5.037   6.792  0.0999  0.1632  0.0860
34611SOL    HW110694   8.536   5.013   6.732 -0.3028  0.7387  0.3114
34611SOL    HW210695   8.566   5.099   6.853  1.2267  1.9410 -0.8832
34612SOL     OW10696   8.729   4.200   8.279  0.5873 -0.1054 -0.3474
34612SOL    HW110697   8.804   4.170   8.331  0.9531  0.9314 -0.2340
34612SOL    HW210698   8.671   4.124   8.273  0.3727 -0.1880  1.8755
34613SOL     OW10699   5.793  11.705   9.810 -0.5242 -0.0103  0.1668
34613SOL    HW110700   5.802  11.699   9.906 -1.9031  0.6243  0.3598
34613SOL    HW210701   5.719  11.764   9.797  0.7442  1.3644 -1.3197
34614SOL     OW10702   1.271   0.648   7.420  0.0608  0.5657  0.2240
34614SOL    HW110703   1.202   0.711   7.442  0.1108  2.2825 -3.6715
34614SOL    HW210704   1.225   0.565   7.407 -0.8366  1.0054  0.4835
34615SOL     OW10705   9.801  11.987   2.153 -0.6872  0.8965 -0.2410
34615SOL    HW110706   9.777  12.077   2.133  0.3253  1.2777  0.2012
34615SOL    HW210707   9.718  11.944   2.174 -1.0380  2.1459  1.1433
34616SOL     OW10708  11.479   1.435   2.630  0.1459 -0.2907  0.3110
34616SOL    HW110709  11.459   1.466   2.719  1.9107  1.6736  0.1077
34616SOL    HW210710  11.501   1.515   2.582  3.3026 -1.6397 -0.7505
34617SOL     OW10711   9.483   8.991   8.727 -0.1689 -0.5771 -0.4168
34617SOL    HW110712   9.506   9.017   8.816 -1.6206 -2.3993  0.5576
34617SOL    HW210713   9.403   9.040   8.708 -0.6446 -1.2323 -0.1462
34618SOL     OW10714   2.356   5.196   5.809  0.2013 -0.2672 -0.5683
34618SOL    HW110715   2.447   5.165   5.805  0.3901  0.3751 -2.0031
34618SOL    HW210716   2.325   5.191   5.718 -0.1934  2.3176 -0.6614
34619SOL     OW10717   4.666  12.434   6.085 -0.3687  0.6443  0.4297
34619SOL    HW110718   4.670  12.457   6.178  1.1644  1.7794  0.1225
34619SOL    HW210719   4.755  12.405   6.064 -0.9952 -0.7786 -0.4170
34620SOL     OW10720   7.313   0.612   0.049  0.0440 -0.8237 -0.7689
34620SOL    HW110721   7.343   0.618  -0.041  0.4388  0.5049 -0.5709
34620SOL    HW210722   7.390   0.634   0.102 -0.8899  1.4966 -0.2172
34621SOL     OW10723  11.858   2.858   3.963 -1.0752  0.2982  0.0375
34621SOL    HW110724  11.814   2.774   3.974 -0.6396 -0.0320 -0.6947
34621SOL    HW210725  11.937   2.851   4.016  0.4137 -0.8459 -2.2025
34622SOL     OW10726  11.234   3.869   0.801 -0.2809 -0.2242  0.6706
34622SOL    HW110727  11.156   3.915   0.833 -0.0291 -0.3830  1.5508
34622SOL    HW210728  11.269   3.826   0.879  1.6980  1.3059  0.6972
34623SOL     OW10729   3.733   7.019   5.233  0.0933  0.0536  0.2815
34623SOL    HW110730   3.751   7.031   5.326  1.1898 -0.2149  0.1157
34623SOL    HW210731   3.819   7.019   5.191 -0.4606  2.5898 -1.0639
34624SOL     OW10732  10.109   5.616   3.222 -0.1350  0.3388 -0.0745
34624SOL    HW110733  10.109   5.651   3.311 -0.3110  1.1898 -0.3996
34624SOL    HW210734  10.174   5.545   3.224 -0.4396  0.0784  0.8276
34625SOL     OW10735   5.528   4.843  12.268 -0.7302 -0.3300  0.0047
34625SOL    HW110736   5.586   4.809  12.336  0.5532  0.6974 -0.5442
34625SOL    HW210737   5.509   4.933  12.294 -0.1267  0.1153 -1.0338
34626SOL     OW10738  10.382   1.240   5.026  0.0248  0.4548 -0.4960
34626SOL    HW110739  10.292   1.271   5.038 -0.1293 -0.4750  1.1106
34626SOL    HW210740  10.410   1.215   5.114  1.4873 -0.2664 -1.1389
34627SOL     OW10741   3.042   9.490  10.561  0.0744 -0.6101  0.5797
34627SOL    HW110742   3.113   9.432  10.536 -1.8841 -2.4617 -1.1331
34627SOL    HW210743   2.995   9.507  10.479 -0.2320  2.3508  1.2591
34628SOL     OW10744   2.041   3.696   3.575 -0.3264  1.1420 -0.6588
34628SOL    HW110745   2.048   3.673   3.482 -2.2173 -0.9465 -0.3707
34628SOL    HW210746   2.122   3.663   3.614 -0.0813  0.9019 -1.3542
34629SOL     OW10747   1.301   9.867  11.301  0.3236 -0.3411  0.4840
34629SOL    HW110748   1.236   9.882  11.233  0.6217 -0.5817  0.1363
34629SOL    HW210749   1.287   9.937  11.364 -1.6911 -1.6107  1.5227
34630SOL     OW10750   1.313   0.883   2.451 -0.3077  0.3410  0.2880
34630SOL    HW110751   1.279   0.804   2.409 -0.5903  0.7062 -0.1869
34630SOL    HW210752   1.241   0.946   2.444  0.9590  1.7037 -2.2486
34631SOL     OW10753   9.256   7.485   4.995  0.1142 -0.0279 -0.2437
34631SOL    HW110754   9.330   7.542   5.017  0.2404 -0.2141 -0.1886
34631SOL    HW210755   9.222   7.456   5.080 -1.5692  2.0133 -0.1206
34632SOL     OW10756   3.406   3.695   6.357  0.1494 -0.0643 -0.0037
34632SOL    HW110757   3.446   3.722   6.439 -0.1979  2.4570 -0.5836
34632SOL    HW210758   3.373   3.606   6.374 -0.3560  0.5663  2.7222
34633SOL     OW10759  10.012   9.736   4.205  0.0212  0.1798  0.1902
34633SOL    HW110760   9.952   9.705   4.137  2.0557  0.0088 -1.6548
34633SOL    HW210761  10.035   9.657   4.254  1.6232 -0.5408 -1.5646
34634SOL     OW10762   4.676  11.559   3.921 -0.4981 -0.6584  0.0993
34634SOL    HW110763   4.719  11.578   3.838  2.7251  1.0831  1.9354
34634SOL    HW210764   4.603  11.620   3.926 -1.8451 -1.9568 -2.0616
34635SOL     OW10765   7.128   2.066  11.727  0.7222  0.6582  0.3081
34635SOL    HW110766   7.061   2.052  11.660  2.2398 -0.0265 -1.1378
34635SOL    HW210767   7.134   2.162  11.734 -0.5133  0.7336  0.6195
34636SOL     OW10768  10.990  10.663  12.351 -0.0365  0.2640 -0.0008
34636SOL    HW110769  11.022  10.713  12.275  1.1362  0.2925  0.4892
34636SOL    HW210770  11.015  10.573  12.332  0.2061  0.2619  0.3199
34637SOL     OW10771   1.547   5.260   0.527 -0.0650 -0.2746  0.2082
34637SOL    HW110772   1.601   5.291   0.599  0.1330  1.8492 -0.7624
34637SOL    HW210773   1.498   5.338   0.499 -1.3819 -1.4396 -0.8672
34638SOL     OW10774   6.843   5.920   2.971  0.2587  0.6378  0.1922
34638SOL    HW110775   6.884   5.844   3.012  1.3309  2.3817  2.6296
34638SOL    HW210776   6.814   5.889   2.886  2.3122 -1.9823  0.3179
34639SOL     OW10777   8.873  11.453   7.887 -0.1615  0.8417 -0.0716
34639SOL    HW110778   8.930  11.453   7.964 -0.2925  1.3446  0.0312
34639SOL    HW210779   8.808  11.521   7.906  0.1280  1.3583 -0.8536
34640SOL     OW10780   5.499   1.276   7.767  0.3970 -0.7257 -0.0728
34640SOL    HW110781   5.432   1.289   7.699 -0.0965  0.3774  0.5891
34640SOL    HW210782   5.524   1.365   7.792  0.8190 -1.1213  0.9505
34641SOL     OW10783  12.378   5.431   7.336 -0.4570  0.2902  0.7355
34641SOL    HW110784  12.373   5.462   7.246  0.7069  0.1442  0.6077
34641SOL    HW210785  12.402   5.339   7.328 -2.1417 -0.2205  1.1623
34642SOL     OW10786   8.192   6.499   4.336  0.0834  0.0440 -0.2863
34642SOL    HW110787   8.264   6.549   4.375 -0.1794  0.9336 -0.9081
34642SOL    HW210788   8.127   6.565   4.313  0.4677 -0.3350 -2.7804
34643SOL     OW10789   8.086   2.991   1.745  0.0501  0.4016  0.2065
34643SOL    HW110790   8.139   3.049   1.800  0.0142 -0.0855  0.7609
34643SOL    HW210791   8.009   2.970   1.798 -2.4202  3.6262 -1.6946
34644SOL     OW10792   8.627   1.738   1.466  0.1710 -0.0649  0.0797
34644SOL    HW110793   8.685   1.728   1.541  1.6957  0.5012 -0.9750
34644SOL    HW210794   8.614   1.833   1.459 -2.2957 -0.2184  1.2786
34645SOL     OW10795  11.717   8.838   7.924  0.1037  0.0421 -0.7994
34645SOL    HW110796  11.694   8.902   7.856 -0.6592 -0.1675 -0.7462
34645SOL    HW210797  11.636   8.790   7.940  0.4638 -0.3908 -0.2468
34646SOL     OW10798   6.397   7.436   3.085 -0.2824  0.1579  0.2359
34646SOL    HW110799   6.338   7.434   3.009  0.5252 -0.9645 -0.3919
34646SOL    HW210800   6.481   7.465   3.051 -0.2176  0.8315  0.9450
34647SOL     OW10801  10.181   2.744   0.581 -0.3126 -0.4846 -0.4300
34647SOL    HW110802  10.210   2.834   0.588 -0.1916 -0.5211 -0.4617
34647SOL    HW210803  10.086   2.750   0.569 -0.0985 -0.2682 -2.3900
34648SOL     OW10804   7.186   5.998   5.204  0.2063 -0.1326 -0.2222
34648SOL    HW110805   7.159   6.064   5.268  1.9255  0.3805  0.0142
34648SOL    HW210806   7.280   5.990   5.216  0.5813 -0.1126 -2.5948
34649SOL     OW10807   4.022   9.621   1.626  0.3404 -0.3607 -0.6078
34649SOL    HW110808   4.026   9.712   1.654  0.8501 -0.4087 -0.5104
34649SOL    HW210809   3.966   9.622   1.549  0.7779  0.1144 -0.9208
34650SOL     OW10810   8.293  11.822   9.404  0.5674 -0.1404  0.4719
34650SOL    HW110811   8.377  11.837   9.362 -0.3891 -1.2037 -2.0360
34650SOL    HW210812   8.299  11.733   9.439 -0.0220 -0.8806 -1.2101
34651SOL     OW10813  11.197  10.340   4.755  0.1973 -0.3331  0.1583
34651SOL    HW110814  11.253  10.309   4.685  1.6145  0.2099  1.0034
34651SOL    HW210815  11.243  10.316   4.835 -1.5717 -1.2935  0.9406
34652SOL     OW10816  10.160   9.555   8.105 -0.3748 -0.0725  0.2453
34652SOL    HW110817  10.168   9.592   8.017  1.3446  1.6692  1.0646
34652SOL    HW210818  10.250   9.540   8.134 -0.9425 -3.1612  0.7599
34653SOL     OW10819   8.634   3.666   1.995  0.2495 -0.0757 -0.1430
34653SOL    HW110820   8.599   3.722   2.064  0.5298  2.0303 -1.6102
34653SOL    HW210821   8.558   3.646   1.939 -0.3421 -3.1492  1.5008
34654SOL     OW10822   4.350  11.014  10.912 -0.2414  0.5412  0.0536
34654SOL    HW110823   4.364  11.108  10.902  0.1034  0.4183 -0.6619
34654SOL    HW210824   4.362  10.978  10.824 -0.7263 -0.1286  0.2502
34655SOL     OW10825   7.492  10.206   2.264  0.6240  0.3566  0.0529
34655SOL    HW110826   7.429  10.191   2.335  0.8549  0.7732  0.3576
34655SOL    HW210827   7.446  10.182   2.184 -0.0427  0.9928  0.2377
34656SOL     OW10828   7.088   3.702   3.778 -0.0979 -0.1972  0.4084
34656SOL    HW110829   7.110   3.730   3.867 -0.9775  0.5330  0.4158
34656SOL    HW210830   7.060   3.611   3.789  0.5618 -0.3621  0.7534
34657SOL     OW10831   8.824  11.198  12.107 -0.2456 -0.4408  0.3947
34657SOL    HW110832   8.867  11.151  12.036 -1.9167 -0.2996 -0.7820
34657SOL    HW210833   8.798  11.130  12.169 -0.7595 -0.8448 -0.2475
34658SOL     OW10834   0.784   7.364  12.386  0.0642 -0.5154  0.4610
34658SOL    HW110835   0.779   7.452  12.348 -0.2843 -0.9406 -0.5231
34658SOL    HW210836   0.700   7.324  12.362  0.6508 -1.4722 -0.0289
34659SOL     OW10837  11.711   5.733   9.579  0.1998 -0.1723  0.1596
34659SOL    HW110838  11.803   5.735   9.554  0.6541  0.4731  1.8115
34659SOL    HW210839  11.706   5.666   9.648 -0.6073 -0.3434 -0.0519
34660SOL     OW10840   3.077   4.094   2.240  0.0942  0.4194 -0.7216
34660SOL    HW110841   3.049   4.109   2.330  0.1916  0.0447 -0.6274
34660SOL    HW210842   3.116   4.178   2.213  1.5811  0.0492  0.1559
34661SOL     OW10843  11.094   1.399   1.764 -0.6571  0.0598 -0.9201
34661SOL    HW110844  11.001   1.390   1.743 -0.4428 -0.2101 -1.8101
34661SOL    HW210845  11.118   1.484   1.728  0.1911 -1.2759 -3.7443
34662SOL     OW10846   8.401   0.953  11.427  0.0303  0.0351  0.7305
34662SOL    HW110847   8.455   1.031  11.411 -0.7151  0.4344  0.0981
34662SOL    HW210848   8.360   0.935  11.342  1.5394 -2.1064  0.3792
34663SOL     OW10849  10.628   9.850   8.402  0.4778 -0.1675 -0.1739
34663SOL    HW110850  10.592   9.939   8.404  0.7588 -0.0544  1.3218
34663SOL    HW210851  10.564   9.800   8.352 -1.3122  0.2458  1.5340
34664SOL     OW10852  11.411   0.942  10.648  0.0423 -0.5473 -0.1995
34664SOL    HW110853  11.459   0.981  10.574 -1.0125  0.4569 -0.3954
34664SOL    HW210854  11.343   0.889  10.606 -0.3922 -0.1911  0.0513
34665SOL     OW10855  11.090   1.098   8.572 -0.0838 -0.1802  0.4215
34665SOL    HW110856  11.175   1.056   8.558 -0.2300 -0.1627 -0.5983
34665SOL    HW210857  11.034   1.060   8.504 -0.3053  1.4031 -0.3377
34666SOL     OW10858  10.638   6.020   6.930  0.5600  0.4117 -0.1163
34666SOL    HW110859  10.603   6.102   6.897  1.4396  0.9621  0.2920
34666SOL    HW210860  10.624   5.957   6.859  0.1262  0.9715 -0.5315
34667SOL     OW10861   9.547   4.492  10.953 -0.1764  0.4884  0.1383
34667SOL    HW110862   9.482   4.532  10.895  1.0429 -0.5576 -2.0819
34667SOL    HW210863   9.499   4.472  11.033 -2.7140 -0.6474 -1.5528
34668SOL     OW10864   0.129   5.908   9.083 -0.2814  0.2868 -0.1751
34668SOL    HW110865   0.190   5.953   9.024 -0.6133  2.4376  0.9933
34668SOL    HW210866   0.070   5.861   9.025 -0.1984  1.7987 -1.5767
34669SOL     OW10867   7.750   9.364  11.413 -0.1160 -0.1922 -0.5314
34669SOL    HW110868   7.789   9.425  11.476  3.8220 -1.0493 -1.8639
34669SOL    HW210869   7.764   9.405  11.328 -0.4107 -1.4444 -1.2059
34670SOL     OW10870  10.653   3.770   2.302  0.0737 -0.0107 -0.3791
34670SOL    HW110871  10.722   3.828   2.335  2.3418 -2.7108 -0.0244
34670SOL    HW210872  10.603   3.825   2.242  1.3749  2.5807  0.7511
34671SOL     OW10873  11.648   9.416   0.823 -0.2688 -0.3747 -0.2039
34671SOL    HW110874  11.596   9.490   0.854  1.2866  2.2839 -3.2169
34671SOL    HW210875  11.613   9.340   0.869 -3.1410  1.9548  1.8456
34672SOL     OW10876   7.419   3.393   5.185 -0.5557  0.0367 -0.1287
34672SOL    HW110877   7.399   3.422   5.275  1.4565  0.3583  0.2763
34672SOL    HW210878   7.408   3.472   5.132 -2.7463 -0.3904 -0.3746
34673SOL     OW10879   5.158   6.177   6.995 -0.1583  0.6196  0.0915
34673SOL    HW110880   5.202   6.135   6.921  0.3617  0.4956  0.4593
34673SOL    HW210881   5.127   6.105   7.049  0.9522  0.6829  0.8513
34674SOL     OW10882   8.798   3.558   2.534 -0.0599  0.1040 -0.2899
34674SOL    HW110883   8.847   3.551   2.616  0.5887  0.4594 -0.6292
34674SOL    HW210884   8.745   3.479   2.530  2.0446 -1.3704 -0.8869
34675SOL     OW10885   4.471  11.545   5.726  0.3397 -0.3483  0.2565
34675SOL    HW110886   4.521  11.573   5.802  0.6877 -0.7646  0.1870
34675SOL    HW210887   4.533  11.548   5.654 -0.7298  3.1568 -0.7254
34676SOL     OW10888  10.210   0.202   2.814  0.6201  0.1883  0.3223
34676SOL    HW110889  10.134   0.220   2.869  0.9934 -0.5276  1.1098
34676SOL    HW210890  10.273   0.162   2.874  1.9214  1.4630 -0.1351
34677SOL     OW10891   1.371   6.093   6.228  0.1158  0.7387 -0.8553
34677SOL    HW110892   1.356   6.036   6.303  1.6788 -1.1869 -1.9045
34677SOL    HW210893   1.283   6.118   6.199 -0.5823 -0.2739  0.2777
34678SOL     OW10894   1.027   6.948  11.407 -0.0541 -0.3358 -0.2752
34678SOL    HW110895   1.016   7.017  11.343  2.5033  1.5455  1.1545
34678SOL    HW210896   0.994   6.986  11.489  0.7032 -1.0807  0.3931
34679SOL     OW10897  10.120   2.792   3.488 -0.4808 -0.9394  1.0421
34679SOL    HW110898  10.029   2.791   3.458 -0.7106 -0.8183  1.7205
34679SOL    HW210899  10.164   2.729   3.431 -0.5763  0.3390 -0.5212
34680SOL     OW10900   2.061   5.852   0.034 -0.3717 -0.2189  0.0607
34680SOL    HW110901   2.090   5.943   0.041 -0.0773 -0.4119  1.7561
34680SOL    HW210902   2.031   5.829   0.122  1.2212 -2.3164  0.1390
34681SOL     OW10903   8.128   1.515   4.821 -0.1172 -0.0226  0.2450
34681SOL    HW110904   8.074   1.556   4.889 -0.3350 -0.7930  0.5487
34681SOL    HW210905   8.066   1.493   4.752  0.2685  1.8590 -0.7888
34682SOL     OW10906   7.097   1.652  10.217 -0.7653 -0.1158 -0.3286
34682SOL    HW110907   7.172   1.600  10.190 -1.2201 -0.6273 -0.6308
34682SOL    HW210908   7.099   1.651  10.312  0.7704  1.5715 -0.2894
34683SOL     OW10909  10.668   5.866   4.688 -0.2704  0.4563 -0.2674
34683SOL    HW110910  10.600   5.929   4.667 -1.2282 -1.1503 -2.5018
34683SOL    HW210911  10.746   5.918   4.707 -1.3132  2.2938 -0.8707
34684SOL     OW10912   7.146   1.399   4.960  0.4464 -0.0199 -0.2028
34684SOL    HW110913   7.159   1.395   5.055 -0.0265  0.6896 -0.1030
34684SOL    HW210914   7.176   1.313   4.928  0.4000 -0.3454  0.6072
34685SOL     OW10915   1.494   3.583   0.063 -0.3843  0.3723 -0.2158
34685SOL    HW110916   1.448   3.667   0.068  0.9525  1.1260 -0.1317
34685SOL    HW210917   1.440   3.523   0.114 -0.0850  1.8037  1.9310
34686SOL     OW10918  12.276   3.808   6.915  0.1893 -0.0337 -0.0916
34686SOL    HW110919  12.212   3.764   6.858  0.6877 -0.5037 -0.2914
34686SOL    HW210920  12.308   3.882   6.863  1.7592 -1.3196 -1.0490
34687SOL     OW10921   5.248   5.884   2.496 -0.1870 -0.2028  0.5276
34687SOL    HW110922   5.224   5.897   2.587  1.5565 -0.0079  0.9865
34687SOL    HW210923   5.274   5.971   2.465 -0.0686 -0.4031  0.0589
34688SOL     OW10924   2.781   0.916   0.088  0.0472 -0.0290  0.4655
34688SOL    HW110925   2.831   0.877   0.017 -0.2953 -1.6276  1.0572
34688SOL    HW210926   2.742   0.995   0.050  2.7662  1.1704 -0.0838
34689SOL     OW10927   3.471   8.406   0.524 -0.1733 -0.3446  0.2577
34689SOL    HW110928   3.487   8.348   0.598  1.3143  1.9835  1.8734
34689SOL    HW210929   3.419   8.478   0.560 -0.2731  0.3564 -1.1956
34690SOL     OW10930   5.414   2.996   7.409 -0.1516  0.0609 -0.6100
34690SOL    HW110931   5.495   3.047   7.408  0.1976 -0.4185  0.6491
34690SOL    HW210932   5.345   3.060   7.423  0.4125  0.1369  2.5357
34691SOL     OW10933   2.438  10.767   5.648  0.0071  0.0777 -0.3620
34691SOL    HW110934   2.354  10.782   5.605 -1.1879  0.6221  2.0129
34691SOL    HW210935   2.419  10.772   5.742  2.2284 -2.1939  0.3393
34692SOL     OW10936   8.686   9.822   5.283 -0.4021 -0.0429 -0.1374
34692SOL    HW110937   8.680   9.897   5.342  0.7404 -0.0661  0.0293
34692SOL    HW210938   8.693   9.746   5.341 -1.4547 -0.2821 -0.3056
34693SOL     OW10939   3.644   1.767   2.777 -0.0281  0.4103  0.0283
34693SOL    HW110940   3.670   1.730   2.693  2.1969 -1.3389  1.3782
34693SOL    HW210941   3.575   1.709   2.809 -1.7730  1.7859 -1.0398
34694SOL     OW10942   3.737   8.582  10.539 -0.0231 -0.4592  0.4011
34694SOL    HW110943   3.779   8.666  10.521 -2.0007  0.1879 -1.5931
34694SOL    HW210944   3.810   8.520  10.542  1.2271  0.4694 -3.7379
34695SOL     OW10945   6.255   0.946   0.846  0.0180 -0.4885  0.3018
34695SOL    HW110946   6.223   0.991   0.768  0.1410 -0.0235  0.5146
34695SOL    HW210947   6.216   0.859   0.841 -2.5507  0.4841  1.3020
34696SOL     OW10948   4.324   5.335   2.710 -0.3514 -0.6355  0.0781
34696SOL    HW110949   4.254   5.395   2.737  0.0919 -0.3397  0.5893
34696SOL    HW210950   4.403   5.370   2.751  0.2051 -0.6440 -0.9451
34697SOL     OW10951   5.751   7.604   3.748 -0.3803 -0.3501  0.0702
34697SOL    HW110952   5.729   7.549   3.823  2.2324 -0.3060  0.9414
34697SOL    HW210953   5.765   7.691   3.785  0.8558 -0.3101 -0.4722
34698SOL     OW10954  10.802  10.165   9.581 -0.3847  0.2844 -0.0712
34698SOL    HW110955  10.732  10.109   9.546 -1.3198  1.3244  0.0860
34698SOL    HW210956  10.818  10.132   9.669  0.1395 -0.6758 -0.5024
34699SOL     OW10957   1.646   6.320   0.766 -0.2593 -0.2674 -0.5098
34699SOL    HW110958   1.610   6.341   0.680 -0.8333  0.8415 -0.0308
34699SOL    HW210959   1.600   6.241   0.794 -0.8327 -0.0374 -0.7873
34700SOL     OW10960   3.235   7.637   8.652 -0.2485 -0.2049 -0.5629
34700SOL    HW110961   3.233   7.547   8.686  0.1321  0.4660  1.3866
34700SOL    HW210962   3.173   7.684   8.708  1.5636  1.3110  0.2696
34701SOL     OW10963   6.483   7.940  11.283 -0.0612 -0.2894  0.1483
34701SOL    HW110964   6.444   7.888  11.213 -1.6492  1.6163 -0.4912
34701SOL    HW210965   6.413   7.950  11.348  0.4556  0.3612  0.6203
34702SOL     OW10966  11.508   5.471   4.670  0.3872 -0.3294  1.1983
34702SOL    HW110967  11.567   5.544   4.653 -1.4057  1.4444  2.2056
34702SOL    HW210968  11.550   5.422   4.741  2.0622 -0.9003 -0.1162
34703SOL     OW10969   8.416   6.344  12.437  0.3263 -0.3519 -0.1517
34703SOL    HW110970   8.325   6.356  12.465 -0.0270 -2.8176 -0.0348
34703SOL    HW210971   8.468   6.382  12.508 -0.5610  1.2978 -0.3243
34704SOL     OW10972  11.892   7.598  10.437 -0.0114 -0.2872 -0.7337
34704SOL    HW110973  11.861   7.625  10.524  0.3805 -0.2876 -0.5916
34704SOL    HW210974  11.844   7.653  10.376  0.5920  0.5584 -0.4607
34705SOL     OW10975   9.787   2.755   0.022  0.2160  0.3582  0.2284
34705SOL    HW110976   9.830   2.784   0.102 -1.1822 -1.5284  1.7672
34705SOL    HW210977   9.698   2.790   0.029 -0.4499 -1.2816  0.4365
34706SOL     OW10978   8.821   0.013  10.912 -0.0204  0.3358 -0.1161
34706SOL    HW110979   8.804  -0.081  10.914  0.2759  0.2820 -0.1365
34706SOL    HW210980   8.762   0.047  10.844  1.2014 -0.1010 -1.4324
34707SOL     OW10981   3.655   7.376   5.823  0.0671  0.2944 -0.2404
34707SOL    HW110982   3.689   7.365   5.912  1.4771 -1.0078 -0.8882
34707SOL    HW210983   3.561   7.357   5.830  0.1869  0.0614  0.9408
34708SOL     OW10984   6.257   2.532   6.419 -0.1935 -0.0452 -0.0802
34708SOL    HW110985   6.333   2.542   6.361 -0.0054 -0.5933  0.0687
34708SOL    HW210986   6.291   2.550   6.507  0.1947 -2.0488  0.2217
34709SOL     OW10987  11.590   1.442   1.402  0.7612  0.2927  0.0118
34709SOL    HW110988  11.525   1.512   1.392  1.4087  0.7614 -1.1971
34709SOL    HW210989  11.542   1.362   1.380 -0.4858  0.0389  3.1958
34710SOL     OW10990  11.924   4.528   2.145  0.6583  0.2138 -0.1209
34710SOL    HW110991  11.987   4.464   2.176  0.5795  0.5829  0.8719
34710SOL    HW210992  11.947   4.544   2.054  1.8963  0.2186  0.1744
34711SOL     OW10993   9.642   5.311   1.662  0.4892 -0.0279 -0.0840
34711SOL    HW110994   9.697   5.321   1.739  0.2255 -0.9695  0.2437
34711SOL    HW210995   9.563   5.268   1.694  0.3530 -0.3769 -0.8671
34712SOL     OW10996   1.561   8.066   3.520 -0.0501 -0.3408 -0.1199
34712SOL    HW110997   1.563   8.116   3.438  1.2664  0.2270  0.2295
34712SOL    HW210998   1.470   8.040   3.531 -0.8477  2.2303 -0.1702
34713SOL     OW10999   0.860   1.787   2.117  0.3366 -0.0609  0.2849
34713SOL    HW111000   0.767   1.794   2.094  0.2071 -0.1026  0.7675
34713SOL    HW211001   0.907   1.807   2.036 -0.0832  1.1263  0.3086
34714SOL     OW11002   0.045   0.017   8.534  0.4285 -0.1572 -0.1092
34714SOL    HW111003   0.035   0.112   8.538  0.2360 -0.1297 -1.1144
34714SOL    HW211004  -0.010  -0.016   8.605  0.8213  0.4998  0.5113
34715SOL     OW11005   0.746   4.779   4.354 -0.1059  0.2594  0.1985
34715SOL    HW111006   0.706   4.851   4.305 -0.2639  0.7851  1.0853
34715SOL    HW211007   0.840   4.793   4.343 -0.1333  0.6810  0.4696
34716SOL     OW11008  11.612   8.600   4.301 -0.3638  0.0432 -0.6956
34716SOL    HW111009  11.643   8.666   4.238  0.7307 -0.6083 -0.8610
34716SOL    HW211010  11.517   8.601   4.291 -0.3296  1.1747 -1.1240
34717SOL     OW11011   5.326   4.651  10.916  0.4298  0.1154 -0.1574
34717SOL    HW111012   5.318   4.616  11.004 -0.3122 -1.9269 -0.9721
34717SOL    HW211013   5.388   4.593  10.872  1.7456  1.8160 -0.6730
34718SOL     OW11014   9.851   2.161   9.157 -0.0481  0.2825 -0.5045
34718SOL    HW111015   9.760   2.148   9.129 -0.9772  2.4799  1.2036
34718SOL    HW211016   9.874   2.248   9.126  0.5038  0.8556  1.3750
34719SOL     OW11017   2.225   4.279   5.032  0.2938 -0.5828 -0.0348
34719SOL    HW111018   2.184   4.207   4.985 -1.2519  0.9527 -1.1821
34719SOL    HW211019   2.263   4.334   4.963 -1.1702  1.2176  0.4957
34720SOL     OW11020   3.657   9.806   0.782  0.0477  0.5005  1.0841
34720SOL    HW111021   3.664   9.772   0.871 -0.8186 -3.6254 -0.2048
34720SOL    HW211022   3.566   9.790   0.757 -0.1482  2.9647 -0.1665
34721SOL     OW11023  10.890   8.994  11.736  0.1976 -0.0118 -0.4034
34721SOL    HW111024  10.802   8.958  11.726  0.3288  0.1200 -2.6860
34721SOL    HW211025  10.948   8.920  11.722  0.4428  0.2764 -0.9491
34722SOL     OW11026   6.866   7.824  10.224  0.3732 -0.2810 -0.0326
34722SOL    HW111027   6.916   7.773  10.160 -0.7668 -1.5853  0.0709
34722SOL    HW211028   6.812   7.759  10.270 -0.3402  0.8888  0.8400
34723SOL     OW11029   3.745  12.085   7.583 -0.3731  0.8075 -0.1371
34723SOL    HW111030   3.796  12.006   7.602  0.1610  1.1062 -0.2817
34723SOL    HW211031   3.809  12.156   7.591 -1.2608  1.4522  1.9832
34724SOL     OW11032  11.606  11.545   9.564 -0.2213 -0.0413 -0.0496
34724SOL    HW111033  11.695  11.556   9.598 -0.6436  0.6679  0.8966
34724SOL    HW211034  11.576  11.634   9.548 -0.6411 -0.2962 -0.7056
34725SOL     OW11035   3.748  10.828  11.144  0.0773  0.4393 -0.1858
34725SOL    HW111036   3.751  10.852  11.051 -0.4009  1.1984 -0.0110
34725SOL    HW211037   3.736  10.733  11.143 -1.8328  0.6357 -0.9456
34726SOL     OW11038   5.912  11.751   2.254 -0.0324  0.2740  0.3525
34726SOL    HW111039   5.968  11.804   2.310 -1.3722  0.3420  1.6983
34726SOL    HW211040   5.840  11.809   2.229 -0.4539 -0.3180  0.1519
34727SOL     OW11041   6.233   3.152   1.339 -0.3089 -0.1098  0.0620
34727SOL    HW111042   6.149   3.125   1.377 -0.4117 -0.7709 -0.6111
34727SOL    HW211043   6.229   3.123   1.248  0.3814  0.4607 -0.1624
34728SOL     OW11044  11.687   7.412   6.883  0.1058 -0.1926  0.6027
34728SOL    HW111045  11.701   7.318   6.876  0.1395 -0.1528  0.0866
34728SOL    HW211046  11.615   7.421   6.946 -1.7774 -0.7138 -1.3466
34729SOL     OW11047   2.848   6.251   1.179  0.1192  0.2094  0.4208
34729SOL    HW111048   2.760   6.274   1.150 -0.7242 -1.0484  1.8381
34729SOL    HW211049   2.876   6.325   1.233  0.6605  1.3856 -1.4111
34730SOL     OW11050  10.481   7.845   9.177 -0.2516 -0.0429 -0.7617
34730SOL    HW111051  10.486   7.905   9.251  0.6301 -1.5678  0.4733
34730SOL    HW211052  10.551   7.874   9.119 -0.7512  0.9742 -0.8813
34731SOL     OW11053   9.238   8.956  12.196  0.1644  0.3681 -0.1484
34731SOL    HW111054   9.155   8.948  12.244 -0.2581 -1.0454 -1.0476
34731SOL    HW211055   9.296   8.893  12.239 -0.2106 -0.8931 -1.4032
34732SOL     OW11056   3.839  10.958   0.070  0.2556  0.5014 -0.1543
34732SOL    HW111057   3.886  10.894   0.017  1.0855  0.0899  1.0483
34732SOL    HW211058   3.750  10.924   0.077  0.1017  0.6033 -1.3152
34733SOL     OW11059   3.308   9.024   2.842  0.3851  0.1695 -0.3116
34733SOL    HW111060   3.253   9.089   2.886  0.7812  0.0142  0.4351
34733SOL    HW211061   3.255   8.945   2.841  0.7445 -0.1065  0.8191
34734SOL     OW11062   4.567   4.837   3.970 -0.2095 -0.1001 -0.0258
34734SOL    HW111063   4.615   4.824   3.889 -1.6790 -1.4369 -0.7368
34734SOL    HW211064   4.476   4.846   3.943 -1.0465 -2.7539  1.5540
34735SOL     OW11065   1.592   3.881   1.481 -0.0982  0.0841 -0.0474
34735SOL    HW111066   1.561   3.911   1.395 -1.5754  1.4002  0.8981
34735SOL    HW211067   1.513   3.868   1.533  0.8088  1.0605  1.6702
34736SOL     OW11068   9.418   2.197   6.013  0.4136  0.1134 -0.5989
34736SOL    HW111069   9.361   2.255   5.961 -0.5877 -1.0723 -0.8553
34736SOL    HW211070   9.495   2.185   5.958  1.1660  2.0922 -0.0650
34737SOL     OW11071   3.873   4.851  12.263  0.3384  0.6581 -0.4806
34737SOL    HW111072   3.810   4.812  12.203  0.0322  0.5531 -0.0999
34737SOL    HW211073   3.924   4.911  12.209  0.0425  0.5956 -0.8344
34738SOL     OW11074   6.200   7.971  11.813 -0.7588 -0.4135 -0.1105
34738SOL    HW111075   6.263   7.919  11.763 -0.0006  0.4197 -0.0363
34738SOL    HW211076   6.202   8.058  11.773 -1.8503 -0.3619 -0.0915
34739SOL     OW11077   8.903   2.773   3.843  0.2490 -0.1295  0.4128
34739SOL    HW111078   8.974   2.757   3.780 -0.0303  2.2569 -0.5828
34739SOL    HW211079   8.890   2.688   3.886  2.0836 -1.2187 -1.0465
34740SOL     OW11080   2.831  10.986   7.494 -0.7925  0.5445 -0.2827
34740SOL    HW111081   2.907  10.972   7.550 -2.1471 -0.1025  1.5001
34740SOL    HW211082   2.834  11.080   7.474 -0.5383  0.9355  1.3792
34741SOL     OW11083   6.977   9.439   6.313  0.7025 -0.6616  0.0792
34741SOL    HW111084   6.886   9.462   6.296  0.4670 -1.8422 -0.3418
34741SOL    HW211085   7.002   9.494   6.388 -0.4652 -0.5862  0.4311
34742SOL     OW11086   8.094   3.413   0.884  0.4370 -0.6740 -0.0275
34742SOL    HW111087   8.076   3.350   0.955 -0.7848  0.7127  0.9490
34742SOL    HW211088   8.175   3.456   0.910 -0.2635  0.1783  0.8316
34743SOL     OW11089   5.735   5.539  11.462  0.1805 -0.1324  0.1388
34743SOL    HW111090   5.659   5.597  11.461  0.6107  0.4433  0.3239
34743SOL    HW211091   5.700   5.453  11.441 -0.3500  0.3370 -0.9805
34744SOL     OW11092   0.289   7.558   5.585 -0.1455  0.2038  0.0258
34744SOL    HW111093   0.370   7.534   5.629  0.0310  0.3846 -0.1978
34744SOL    HW211094   0.274   7.488   5.522 -1.1687 -0.8128  1.3560
34745SOL     OW11095   6.766   2.725  10.780 -0.2625 -0.1832 -0.0431
34745SOL    HW111096   6.826   2.767  10.718 -0.6995  1.8369  0.8077
34745SOL    HW211097   6.694   2.693  10.725  0.8211 -1.2256 -0.8886
34746SOL     OW11098   5.461   6.146   8.867  0.3922 -0.4762  0.2641
34746SOL    HW111099   5.517   6.219   8.838  0.6276 -0.6893  0.1768
34746SOL    HW211100   5.472   6.144   8.962 -0.5432  0.3559  0.4090
34747SOL     OW11101   3.925   9.111   0.936 -0.0590 -0.2978 -0.1747
34747SOL    HW111102   3.932   9.047   0.865 -0.6832 -0.6745  0.0926
34747SOL    HW211103   3.863   9.071   0.997 -0.7745  0.7649 -0.2005
34748SOL     OW11104   6.769   4.647   2.221 -0.3210  0.0832  0.0848
34748SOL    HW111105   6.708   4.603   2.280  0.9672 -1.6087  0.2166
34748SOL    HW211106   6.734   4.631   2.133  0.1340 -1.2489  0.1329
34749SOL     OW11107   3.628   9.413   6.063 -0.4294 -0.0153 -0.2225
34749SOL    HW111108   3.658   9.434   6.152 -1.0395 -2.1222  0.5513
34749SOL    HW211109   3.700   9.440   6.007 -0.4570  2.3466  0.7735
34750SOL     OW11110   7.937  10.311  10.078 -1.2026  0.0849 -0.0745
34750SOL    HW111111   7.897  10.398  10.082 -0.6858  0.2801  1.6957
34750SOL    HW211112   7.902  10.265  10.154  1.0282 -0.1211  0.8859
34751SOL     OW11113   0.935   6.637   1.815 -0.1945  0.0727 -0.5003
34751SOL    HW111114   0.977   6.721   1.835 -0.6003  0.4740 -1.2373
34751SOL    HW211115   0.984   6.603   1.741 -0.4178 -0.0329 -0.6007
34752SOL     OW11116  10.269   0.011   1.445  0.3993 -0.3928 -0.2187
34752SOL    HW111117  10.186  -0.012   1.486 -0.1352 -0.6392 -1.3913
34752SOL    HW211118  10.297   0.091   1.491 -0.8455  0.1026 -0.2749
34753SOL     OW11119   8.830   0.234   6.784 -0.1327 -0.1795  0.6676
34753SOL    HW111120   8.764   0.191   6.839 -0.4124 -1.4074 -0.5635
34753SOL    HW211121   8.866   0.163   6.731 -0.4268  1.0365 -1.2803
34754SOL     OW11122   8.174   3.627   1.357  0.2000  0.3199 -0.1792
34754SOL    HW111123   8.190   3.606   1.449  4.3422  0.4726 -0.6908
34754SOL    HW211124   8.130   3.550   1.322  1.2129 -0.9896  1.2945
34755SOL     OW11125   9.774  11.380   7.039 -0.1316 -0.0031 -0.0532
34755SOL    HW111126   9.702  11.390   6.976  1.9067 -0.9232 -2.7620
34755SOL    HW211127   9.807  11.468   7.052 -0.7582  0.2388 -0.0803
34756SOL     OW11128   3.841   1.847   9.757  0.6814  0.2562  0.3708
34756SOL    HW111129   3.855   1.797   9.676  0.1054  0.0311  0.4054
34756SOL    HW211130   3.746   1.850   9.767  0.7429  0.5230  0.8938
34757SOL     OW11131   5.264   2.654   0.361 -0.3473  0.2459 -0.0656
34757SOL    HW111132   5.192   2.668   0.300 -0.2709  1.5445  0.1111
34757SOL    HW211133   5.320   2.589   0.318 -2.0858 -1.5158  0.2323
34758SOL     OW11134  11.506  11.710   1.285  0.2983 -0.1093 -0.6159
34758SOL    HW111135  11.515  11.763   1.364 -1.1697 -1.6873  0.6715
34758SOL    HW211136  11.454  11.764   1.226  0.7097  0.7577 -0.2031
34759SOL     OW11137   4.515   0.692   4.295  0.5646  0.0814 -0.0971
34759SOL    HW111138   4.531   0.617   4.238  0.9468  0.8490 -1.0343
34759SOL    HW211139   4.550   0.665   4.380  2.7321 -0.0226 -0.9402
34760SOL     OW11140   3.042   8.622   4.934  0.3598  0.6252  0.4737
34760SOL    HW111141   3.003   8.618   4.846  1.9900  0.3960 -0.2656
34760SOL    HW211142   2.970   8.599   4.993 -0.6971  0.5052 -0.8161
34761SOL     OW11143   5.874   3.184   6.658  0.6004 -0.3211  0.4722
34761SOL    HW111144   5.870   3.094   6.691  3.4453 -0.4151  0.8677
34761SOL    HW211145   5.914   3.175   6.571  0.0274  0.4896  0.1200
34762SOL     OW11146   4.167   5.155  10.705  0.0571 -0.1109  0.0399
34762SOL    HW111147   4.218   5.227  10.668  1.4102 -0.1598  1.7015
34762SOL    HW211148   4.092   5.198  10.747 -0.1357  0.1361 -0.5293
34763SOL     OW11149   7.127   8.933   0.218  0.2348 -0.3161  0.1186
34763SOL    HW111150   7.194   8.949   0.152  0.8146 -0.9290  0.5555
34763SOL    HW211151   7.057   8.994   0.195  0.7703  0.0559 -0.5734
34764SOL     OW11152   3.412   9.083  12.389 -0.1236  0.1224 -0.2395
34764SOL    HW111153   3.504   9.077  12.361  0.5796  1.0220  1.6664
34764SOL    HW211154   3.380   8.993  12.387  1.3854 -0.4779  0.7827
34765SOL     OW11155   4.075   9.822   4.324 -0.8090 -0.5008  0.1090
34765SOL    HW111156   4.023   9.745   4.299 -2.1892  0.1935  0.6996
34765SOL    HW211157   4.058   9.886   4.255  1.4652 -1.1629 -1.1384
34766SOL     OW11158   9.421   2.448  11.978 -0.5246  0.0370  0.1087
34766SOL    HW111159   9.374   2.516  12.027 -0.8056  0.4811 -0.7617
34766SOL    HW211160   9.352   2.395  11.939 -0.3307  0.9184 -1.4899
34767SOL     OW11161   6.745   8.311  11.569  0.0026 -0.0891  0.3772
34767SOL    HW111162   6.696   8.257  11.507 -0.1046  1.0960 -0.6024
34767SOL    HW211163   6.836   8.284  11.557 -0.0497 -0.0634 -0.0897
34768SOL     OW11164   4.136   6.081  11.796 -0.3006  0.3354 -0.0394
34768SOL    HW111165   4.167   5.994  11.822  0.5561  0.6240 -0.0536
34768SOL    HW211166   4.056   6.094  11.846 -0.6440 -0.6169 -0.3311
34769SOL     OW11167   2.204   1.360  11.928  0.1979  0.0442 -0.0457
34769SOL    HW111168   2.181   1.343  11.836 -0.0129  1.1463 -0.2154
34769SOL    HW211169   2.124   1.341  11.976  0.1848 -0.1498 -0.1444
34770SOL     OW11170   8.660   7.795   8.983 -0.4208 -0.0104  0.0549
34770SOL    HW111171   8.678   7.884   9.013  1.8977 -0.4214  0.0030
34770SOL    HW211172   8.596   7.760   9.046  0.1607  1.0064  1.2367
34771SOL     OW11173   5.869   6.529   3.967  0.2739  0.1902 -0.2680
34771SOL    HW111174   5.808   6.573   3.908  1.2972 -0.0555 -1.5565
34771SOL    HW211175   5.844   6.436   3.963 -1.7921  0.5151  2.3365
34772SOL     OW11176   4.261   9.171   8.477 -0.4729  0.6383  0.3615
34772SOL    HW111177   4.236   9.125   8.558  0.5945  1.5627  1.2500
34772SOL    HW211178   4.221   9.119   8.407 -0.9857 -0.4881  1.4420
34773SOL     OW11179  11.390   6.843   8.808  0.6773  0.2172  0.3509
34773SOL    HW111180  11.426   6.845   8.897  0.2340 -0.2441  0.5438
34773SOL    HW211181  11.439   6.911   8.761  2.6561 -1.1555  0.2892
34774SOL     OW11182   8.629   6.105  10.511 -0.2327 -0.0639 -1.0213
34774SOL    HW111183   8.661   6.022  10.548 -0.2486  0.2223 -0.3454
34774SOL    HW211184   8.675   6.172  10.561 -0.0378  0.3369 -1.7324
34775SOL     OW11185   7.290   5.473   0.864  0.0365  0.4014 -0.7942
34775SOL    HW111186   7.265   5.385   0.893  0.4569  0.4691 -0.2126
34775SOL    HW211187   7.208   5.522   0.862 -0.3867 -0.3133 -2.2632
34776SOL     OW11188  11.411   3.109   9.891 -0.1163  0.3791 -0.0316
34776SOL    HW111189  11.391   3.194   9.930 -0.1847 -0.2636  1.3953
34776SOL    HW211190  11.504   3.112   9.871 -0.4110  1.2967 -1.3212
34777SOL     OW11191  11.413   2.420   5.271  0.3662 -0.3403  0.0434
34777SOL    HW111192  11.413   2.477   5.348  0.2770  0.2423 -0.3831
34777SOL    HW211193  11.323   2.426   5.238  1.1162  1.7412 -1.8015
34778SOL     OW11194   4.665   3.855   2.562 -0.6184  0.2071 -0.3170
34778SOL    HW111195   4.676   3.783   2.500 -1.0345 -1.4627  1.4602
34778SOL    HW211196   4.570   3.858   2.579 -0.4781  0.4243  0.4633
34779SOL     OW11197   1.439   1.592  10.691 -0.2656 -0.2920  0.9410
34779SOL    HW111198   1.503   1.595  10.619 -0.4064  0.2791  0.8377
34779SOL    HW211199   1.396   1.507  10.681 -2.5300  1.0290 -1.5973
34780SOL     OW11200  10.904   1.480  11.823 -0.0597  0.1647 -0.1687
34780SOL    HW111201  10.875   1.459  11.911  0.7863 -0.0288  0.0714
34780SOL    HW211202  10.824   1.496  11.774 -0.4947  1.7530  0.9931
34781SOL     OW11203  11.677   8.139  10.355 -0.3252  0.4173 -0.0726
34781SOL    HW111204  11.722   8.065  10.314  0.3974 -0.0859  1.5584
34781SOL    HW211205  11.671   8.205  10.286  0.2217 -0.6468 -1.1705
34782SOL     OW11206   6.912   6.519   3.392 -0.2805  0.2254  0.8432
34782SOL    HW111207   6.942   6.439   3.436  0.1864  0.6860  1.3884
34782SOL    HW211208   6.823   6.533   3.425 -0.6592 -0.4981  0.1378
34783SOL     OW11209   1.611   4.882   0.962  0.0491  0.2023  0.3130
34783SOL    HW111210   1.550   4.936   1.013 -1.4593 -2.0039  0.9781
34783SOL    HW211211   1.585   4.896   0.871 -2.5954 -1.7874  0.6252
34784SOL     OW11212   5.444   4.399  10.766 -0.4046  0.4960 -0.3540
34784SOL    HW111213   5.530   4.371  10.735 -0.8605 -1.1171 -0.2513
34784SOL    HW211214   5.404   4.320  10.802 -1.0140  1.7018  1.7906
34785SOL     OW11215  11.474   1.482  11.118 -0.2019 -0.0621 -0.1966
34785SOL    HW111216  11.518   1.467  11.202 -1.1491  0.4602  0.4144
34785SOL    HW211217  11.441   1.571  11.124 -2.6970 -0.9186  0.0510
34786SOL     OW11218   7.091   4.237   6.027  0.3620 -0.2749  0.4488
34786SOL    HW111219   7.035   4.159   6.018  0.1172 -0.0493 -0.0193
34786SOL    HW211220   7.175   4.202   6.056 -0.3359 -0.5134  2.3722
34787SOL     OW11221   8.322  11.010   5.576 -0.2325 -0.0737 -0.9470
34787SOL    HW111222   8.286  10.927   5.544 -0.2407 -0.2604 -0.4691
34787SOL    HW211223   8.309  11.072   5.504 -0.5137 -0.4113 -1.1883
34788SOL     OW11224   4.984  12.098  11.394  0.1740  0.2680 -0.0106
34788SOL    HW111225   4.974  12.130  11.484 -2.9396 -0.7567  0.1466
34788SOL    HW211226   5.070  12.056  11.392  0.4762  0.6514  2.3715
34789SOL     OW11227   4.969   3.796   8.833  0.0183  0.4249 -0.0945
34789SOL    HW111228   5.001   3.834   8.915 -0.0199 -1.4132  0.8067
34789SOL    HW211229   4.874   3.791   8.845 -0.3614  2.6518 -1.3955
34790SOL     OW11230   7.731  10.233   7.648 -0.0866 -0.3537  0.1485
34790SOL    HW111231   7.795  10.165   7.671 -2.2528 -2.3311  0.6715
34790SOL    HW211232   7.784  10.305   7.614  2.3987 -1.9082  0.4877
34791SOL     OW11233   8.440   8.888   9.749 -0.4167 -0.7956 -0.8646
34791SOL    HW111234   8.346   8.872   9.756 -0.7542  1.5336  1.2171
34791SOL    HW211235   8.447   8.974   9.709  0.5897  0.5814  1.9679
34792SOL     OW11236   6.618  12.410   5.220 -0.2745  0.7406 -0.7616
34792SOL    HW111237   6.681  12.343   5.249  0.9632  1.4244 -1.7771
34792SOL    HW211238   6.614  12.399   5.125 -2.2732  0.2498 -0.6591
34793SOL     OW11239   3.306   9.641   8.216  0.0186 -0.0717 -0.0005
34793SOL    HW111240   3.245   9.652   8.289 -0.2570  0.9563 -0.3603
34793SOL    HW211241   3.330   9.731   8.191  2.7007 -0.4396  0.9558
34794SOL     OW11242   2.990   9.864  11.557  0.7966  0.0177 -0.4581
34794SOL    HW111243   3.008   9.772  11.538  1.2065 -0.0809  0.3602
34794SOL    HW211244   3.052   9.886  11.627 -0.3196  0.4912  0.4030
34795SOL     OW11245  12.391   2.144   5.566 -0.2921 -0.6958  0.0980
34795SOL    HW111246  12.343   2.208   5.514 -1.2528 -0.7923  0.8548
34795SOL    HW211247  12.353   2.059   5.542 -2.0836 -0.5936  2.3129
34796SOL     OW11248   8.351   1.828   9.305  0.1563 -0.0900 -0.7051
34796SOL    HW111249   8.270   1.878   9.313  0.5225  0.3652  0.3087
34796SOL    HW211250   8.394   1.838   9.389  1.7296  0.4618 -1.5315
34797SOL     OW11251   3.027  11.052   7.892 -0.1274  0.5331  0.5592
34797SOL    HW111252   3.068  11.085   7.972 -1.5269 -0.3748  1.7122
34797SOL    HW211253   3.083  10.980   7.863 -0.4662 -0.1976  1.6713
34798SOL     OW11254   0.029  10.069   3.706 -0.0943  0.9279  0.0062
34798SOL    HW111255   0.025  10.116   3.623 -1.6903  1.6951  0.4889
34798SOL    HW211256   0.051  10.136   3.771  0.8664  0.3850  0.2776
34799SOL     OW11257   3.981   3.480   0.298  0.0890  0.1365 -0.2925
34799SOL    HW111258   3.952   3.437   0.379  0.5467  0.4399  0.0376
34799SOL    HW211259   3.904   3.477   0.241 -0.1025 -0.4886 -0.0194
34800SOL     OW11260   4.962   3.584   5.611 -0.7087 -0.2644  0.3422
34800SOL    HW111261   4.941   3.491   5.619  0.7222 -0.6233  0.1711
34800SOL    HW211262   5.055   3.589   5.630 -0.7833  1.1569  0.4227
34801SOL     OW11263   8.542  11.521   9.344 -0.3103 -0.0822  0.6603
34801SOL    HW111264   8.507  11.467   9.273  0.1562  0.7056 -0.1772
34801SOL    HW211265   8.465  11.543   9.397 -0.8004  0.0334 -0.0849
34802SOL     OW11266   4.032  10.112   7.122 -0.1834  0.1792 -0.2294
34802SOL    HW111267   4.119  10.151   7.114  0.0667 -0.3777 -0.2664
34802SOL    HW211268   3.987  10.166   7.187 -0.8913  2.4087 -2.3765
34803SOL     OW11269   9.636   3.238   9.947  0.2066 -0.0443  0.1148
34803SOL    HW111270   9.642   3.181   9.870 -2.0133  0.1646 -0.2681
34803SOL    HW211271   9.641   3.327   9.911  0.8578  0.0511  0.4202
34804SOL     OW11272   2.520   5.369   9.978 -0.5687  0.3064  0.2364
34804SOL    HW111273   2.611   5.393   9.964 -0.3828 -1.1319 -1.3469
34804SOL    HW211274   2.471   5.418   9.912 -0.6229 -0.7548 -0.5352
34805SOL     OW11275   7.100   2.707  12.376 -0.0523 -0.0228  0.1685
34805SOL    HW111276   7.078   2.778  12.315 -1.3027  0.0540  0.6745
34805SOL    HW211277   7.186   2.731  12.410  0.1042  0.5836 -0.6304
34806SOL     OW11278   4.916  11.061  10.257 -0.4080  0.0978  0.3694
34806SOL    HW111279   4.929  11.155  10.247 -0.6407  0.1462  0.5274
34806SOL    HW211280   4.869  11.034  10.179  1.3277 -0.2228 -0.6202
34807SOL     OW11281   1.242  11.584   1.613  0.3014 -0.2723  0.4248
34807SOL    HW111282   1.277  11.495   1.604 -0.0144 -0.2796 -1.1952
34807SOL    HW211283   1.179  11.579   1.684  0.2773 -1.3612  0.3353
34808SOL     OW11284   2.356   2.839   2.881  0.4844  0.7903  0.7775
34808SOL    HW111285   2.415   2.812   2.810 -1.5188 -2.3521  0.0753
34808SOL    HW211286   2.410   2.893   2.938  3.3486  0.0572 -1.0217
34809SOL     OW11287   9.005   6.495   3.421  0.9604 -0.0633 -0.5692
34809SOL    HW111288   9.081   6.456   3.464  1.1758  2.0508  1.1954
34809SOL    HW211289   9.021   6.589   3.426 -1.2597  0.4022 -1.1604
34810SOL     OW11290  10.249   9.963   8.035  0.6558 -0.4245  0.6109
34810SOL    HW111291  10.182   9.995   8.096  0.5054 -2.0772  1.3698
34810SOL    HW211292  10.286  10.042   7.996 -0.6372  0.5861  1.3663
34811SOL     OW11293  10.132   8.703   9.981  0.0100  0.7495 -0.3815
34811SOL    HW111294  10.167   8.702  10.070 -0.1431 -1.1779 -0.3174
34811SOL    HW211295  10.186   8.766   9.934  1.2057  0.5042  0.6372
34812SOL     OW11296   6.343  11.339   4.752 -0.3336  0.0831  0.4550
34812SOL    HW111297   6.356  11.403   4.822  1.1630 -0.4769  0.7298
34812SOL    HW211298   6.351  11.254   4.795  4.6441 -0.4203 -0.7791
34813SOL     OW11299   8.555   1.737   6.934 -0.4589  0.3006  0.5632
34813SOL    HW111300   8.651   1.745   6.934 -0.2681 -1.5313  0.3640
34813SOL    HW211301   8.524   1.824   6.961  1.3011  0.4780  2.2684
34814SOL     OW11302   5.499  11.872   4.999  0.2959 -0.3857  0.3220
34814SOL    HW111303   5.455  11.929   4.935 -0.3086 -0.0480  1.0138
34814SOL    HW211304   5.433  11.806   5.022  0.9102 -1.2211 -0.2841
34815SOL     OW11305   4.785   6.000   1.645 -0.1252 -0.2266 -0.5518
34815SOL    HW111306   4.877   5.986   1.622 -0.0722  0.5043 -0.8150
34815SOL    HW211307   4.787   6.027   1.737 -0.3680 -3.5519  0.5942
34816SOL     OW11308   7.200   8.225   2.574  0.0429  0.2609 -0.7390
34816SOL    HW111309   7.231   8.296   2.518  0.2635  0.2952 -0.5740
34816SOL    HW211310   7.194   8.264   2.661  0.6227 -0.0512 -0.5566
34817SOL     OW11311   6.576  11.051  10.550 -0.4854 -0.2777 -0.1284
34817SOL    HW111312   6.534  10.974  10.588 -1.5451  0.5175  0.3277
34817SOL    HW211313   6.505  11.100  10.509  0.3884 -0.2660 -1.7119
34818SOL     OW11314   7.771   1.237   0.635 -0.0188 -0.2313 -0.2830
34818SOL    HW111315   7.854   1.230   0.681  0.3810  1.1878 -0.7391
34818SOL    HW211316   7.762   1.154   0.588  1.2865 -0.2854 -0.4567
34819SOL     OW11317   7.401   4.454   1.999  0.4046  0.1926  0.3553
34819SOL    HW111318   7.398   4.513   1.923 -0.8116 -0.5996 -0.2371
34819SOL    HW211319   7.492   4.424   2.002  0.3871 -0.0625 -1.0458
34820SOL     OW11320  12.023   7.984   2.487 -0.0924  0.4959 -0.4722
34820SOL    HW111321  11.978   7.907   2.453 -2.0257  1.8424 -1.1270
34820SOL    HW211322  12.099   7.994   2.429  1.4589 -2.0581  0.9129
34821SOL     OW11323   5.917  12.108   8.336  0.4292  0.1464 -0.0016
34821SOL    HW111324   5.854  12.075   8.272  1.3433 -0.3521 -0.6785
34821SOL    HW211325   5.929  12.200   8.313  0.6737 -0.0056 -0.4876
34822SOL     OW11326   7.806   7.675   6.458  0.1175  0.2701 -0.0180
34822SOL    HW111327   7.765   7.698   6.375 -3.3144 -1.3958  1.0316
34822SOL    HW211328   7.872   7.609   6.435 -0.9667 -0.3810 -1.4384
34823SOL     OW11329   9.490   0.858   9.329 -0.4263  0.3982 -0.4862
34823SOL    HW111330   9.478   0.941   9.282 -2.2988 -1.8629 -4.5634
34823SOL    HW211331   9.402   0.823   9.338  0.1796 -0.6369  2.4717
34824SOL     OW11332  12.132  10.702   0.127  0.4358  0.1040 -0.1320
34824SOL    HW111333  12.116  10.682   0.220 -1.1687  0.6221 -0.2681
34824SOL    HW211334  12.174  10.788   0.128  0.1970  0.2177  0.0941
34825SOL     OW11335   9.334  10.297   9.918  0.3525  0.4575  0.1944
34825SOL    HW111336   9.321  10.287  10.012  1.1190  1.6988  0.4639
34825SOL    HW211337   9.256  10.258   9.878  0.1014 -0.2358  1.3323
34826SOL     OW11338   2.684   7.701   5.629 -0.1009 -0.2853 -0.1172
34826SOL    HW111339   2.606   7.748   5.659 -0.3108  0.0205 -1.0905
34826SOL    HW211340   2.686   7.622   5.682  0.5449  1.0242  1.9206
34827SOL     OW11341   9.560   9.278   1.890 -0.1049  0.8127  0.1216
34827SOL    HW111342   9.465   9.266   1.883  0.0399  0.0355 -0.5831
34827SOL    HW211343   9.591   9.199   1.934  0.2932  0.7492 -0.2701
34828SOL     OW11344   7.318   2.796   0.028 -0.1845 -0.4364 -0.3431
34828SOL    HW111345   7.313   2.868  -0.036 -0.5479  0.2084  0.3932
34828SOL    HW211346   7.407   2.761   0.017  0.6944  1.3510  0.5644
34829SOL     OW11347   5.556   4.769   9.175  0.0179  0.4421  0.0585
34829SOL    HW111348   5.614   4.705   9.133 -0.1680  1.2234 -1.4506
34829SOL    HW211349   5.615   4.830   9.218  0.1847 -1.2512  2.3809
34830SOL     OW11350   0.432   9.081   1.073  0.4567 -0.3239 -0.2222
34830SOL    HW111351   0.466   8.996   1.102  0.2979 -0.0836  0.7131
34830SOL    HW211352   0.479   9.145   1.126 -0.6349  0.0705  0.3131
34831SOL     OW11353   3.362  11.039   4.505  0.1324  0.2803  0.1887
34831SOL    HW111354   3.338  11.120   4.550  1.6777 -0.0170  1.6414
34831SOL    HW211355   3.379  10.976   4.575  1.5416 -0.5262 -0.8215
34832SOL     OW11356   5.582   9.229  11.339 -0.2528 -0.1601 -0.3230
34832SOL    HW111357   5.566   9.203  11.429 -1.3142 -1.0180 -0.7424
34832SOL    HW211358   5.674   9.257  11.339 -0.0271 -0.8088  0.8682
34833SOL     OW11359  11.378   1.881   2.901 -0.0962 -0.0783  0.6095
34833SOL    HW111360  11.444   1.813   2.893 -0.0082 -0.0371  0.9719
34833SOL    HW211361  11.322   1.852   2.973 -0.9515 -0.5073 -0.2106
34834SOL     OW11362   7.865   5.114   6.530  0.1549 -0.1170  0.0493
34834SOL    HW111363   7.818   5.165   6.595  2.0290  1.4191  0.2874
34834SOL    HW211364   7.872   5.172   6.454 -0.3076 -1.1696 -0.8435
34835SOL     OW11365   4.150   4.396   4.250  0.5683 -0.2267 -0.2967
34835SOL    HW111366   4.212   4.452   4.296 -1.2433  1.4366  0.2301
34835SOL    HW211367   4.069   4.447   4.244 -0.6792 -2.1472 -1.2887
34836SOL     OW11368  10.421   0.595   6.084  0.5639  0.4473  0.7713
34836SOL    HW111369  10.419   0.599   6.180  1.9972  1.2975  0.7918
34836SOL    HW211370  10.367   0.519   6.062 -1.8820  1.6801  2.1144
34837SOL     OW11371   9.844   2.932   1.301 -0.2173 -0.2975  0.0313
34837SOL    HW111372   9.790   3.010   1.289 -1.8106 -0.7480  3.1378
34837SOL    HW211373   9.820   2.874   1.229 -1.1804  0.9432 -0.6873
34838SOL     OW11374   7.907  12.033   2.122  0.7711  0.2038 -0.0040
34838SOL    HW111375   7.970  11.965   2.143  0.1572 -0.0030  1.2685
34838SOL    HW211376   7.822  11.991   2.134  0.3859  1.0892  0.4602
34839SOL     OW11377  11.216   4.488   6.481 -0.0971 -0.0364  0.6130
34839SOL    HW111378  11.294   4.462   6.432  0.8019 -0.3344  2.1236
34839SOL    HW211379  11.232   4.580   6.504 -0.0837 -0.1597  1.1056
34840SOL     OW11380   6.810   1.565   0.811 -0.3255 -0.1134 -0.2181
34840SOL    HW111381   6.734   1.603   0.766 -0.8813  0.3888  1.0989
34840SOL    HW211382   6.775   1.533   0.893  0.6051 -1.3649 -0.2876
34841SOL     OW11383   6.122   3.119   9.115 -0.2600  0.0049  0.1318
34841SOL    HW111384   6.193   3.136   9.054  0.7366 -0.7318  1.0471
34841SOL    HW211385   6.059   3.068   9.064  1.3337 -2.0917  0.1281
34842SOL     OW11386   4.110   2.739   0.774 -0.3863  0.0487  0.4405
34842SOL    HW111387   4.097   2.725   0.680 -0.5085  0.2647  0.4240
34842SOL    HW211388   4.038   2.797   0.800  0.6565  1.4673  0.3122
34843SOL     OW11389   2.610   6.234   9.063 -0.3298 -0.2511 -0.1470
34843SOL    HW111390   2.683   6.278   9.019  1.0165 -1.5951  0.6181
34843SOL    HW211391   2.535   6.246   9.005 -0.3348  3.7407  0.4045
34844SOL     OW11392   9.661  10.373  11.997 -0.3622 -0.5999  0.2072
34844SOL    HW111393   9.623  10.288  12.017  0.3488 -0.8424  0.5479
34844SOL    HW211394   9.750  10.369  12.031 -0.0579 -0.0033 -0.4801
34845SOL     OW11395   6.574  10.039   9.619 -0.0868  0.0557  0.3914
34845SOL    HW111396   6.620   9.966   9.577  0.6116  0.3919  0.5718
34845SOL    HW211397   6.626  10.116   9.598 -1.1411  0.6053 -0.2890
34846SOL     OW11398   7.764   2.419   6.059  0.0028 -0.4136 -0.3051
34846SOL    HW111399   7.734   2.493   6.111  1.6947  0.5219 -0.5799
34846SOL    HW211400   7.684   2.383   6.020 -1.2945 -0.9262  2.5487
34847SOL     OW11401   7.088   1.877   5.123 -0.3004 -0.1693  0.7783
34847SOL    HW111402   7.086   1.809   5.056 -1.6817 -0.6931  1.3141
34847SOL    HW211403   7.109   1.957   5.075  1.9140 -1.0121  0.2255
34848SOL     OW11404   6.500   8.535   9.747  0.0536  0.2958 -0.5401
34848SOL    HW111405   6.567   8.538   9.679 -0.1968 -0.0810 -0.8138
34848SOL    HW211406   6.417   8.539   9.699 -0.1177  0.8080 -0.2034
34849SOL     OW11407   7.473   9.502  10.021  0.2012 -0.0367  0.1143
34849SOL    HW111408   7.561   9.483  10.053  0.6156 -0.8229 -1.4393
34849SOL    HW211409   7.463   9.597  10.034  0.3916 -0.2640  2.3576
34850SOL     OW11410   5.983  11.438   2.914  0.2025  0.0584  0.6443
34850SOL    HW111411   6.033  11.467   2.838  0.1638 -1.5553 -0.0211
34850SOL    HW211412   6.037  11.370   2.954 -0.4690 -0.1650  1.1921
34851SOL     OW11413   2.887   7.868   9.126  0.9015  0.0269  0.3156
34851SOL    HW111414   2.870   7.863   9.031  2.2436 -0.9574  0.1128
34851SOL    HW211415   2.922   7.956   9.139 -1.2510  0.9688  0.2717
34852SOL     OW11416   5.174   9.357   0.969 -0.0865  0.3617 -0.1104
34852SOL    HW111417   5.180   9.262   0.974 -1.0306  0.1288 -2.1823
34852SOL    HW211418   5.101   9.379   1.028 -0.1731 -0.2477  0.0222
34853SOL     OW11419   0.360   6.710   0.194  0.0824 -0.5805  0.1111
34853SOL    HW111420   0.329   6.793   0.158  0.2916 -1.4638 -2.2654
34853SOL    HW211421   0.445   6.730   0.233 -0.3631  0.5062  0.5507
34854SOL     OW11422  10.183   0.156  10.847 -0.6094 -0.3950  0.7757
34854SOL    HW111423  10.180   0.248  10.874 -2.9303 -0.2759  0.3953
34854SOL    HW211424  10.151   0.157  10.757  0.5749 -1.4658  0.3212
34855SOL     OW11425   5.824   5.146   2.290 -0.2579 -0.2120  0.4453
34855SOL    HW111426   5.730   5.139   2.308  0.0240  0.0498  2.2296
34855SOL    HW211427   5.840   5.240   2.281 -0.2605 -0.2945 -0.5804
34856SOL     OW11428   2.141   4.079   2.352 -0.3558 -0.3215  0.4200
34856SOL    HW111429   2.197   4.155   2.370  0.7915 -0.2811 -2.7546
34856SOL    HW211430   2.202   4.011   2.323 -1.7665 -0.7600 -1.6916
34857SOL     OW11431   7.359  10.609   1.091 -0.5121 -0.8660 -0.2493
34857SOL    HW111432   7.445  10.590   1.053  0.1517  0.0815  0.7016
34857SOL    HW211433   7.315  10.524   1.095 -0.9875 -0.9109 -3.8600
34858SOL     OW11434   9.788   8.605  12.307 -0.0467 -0.4125 -0.2698
34858SOL    HW111435   9.705   8.606  12.260 -0.3516 -1.4210  0.2171
34858SOL    HW211436   9.836   8.531  12.270 -0.2614 -1.1843  0.9117
34859SOL     OW11437   2.352   3.163   2.934  0.8156  0.2851  0.0876
34859SOL    HW111438   2.390   3.099   2.994  0.3372 -1.2808 -1.2248
34859SOL    HW211439   2.410   3.161   2.858  1.1510  1.9153  0.2469
34860SOL     OW11440   9.632  10.485   3.942 -0.0562  0.1942  0.2332
34860SOL    HW111441   9.672  10.505   4.027  0.4118 -1.7891  0.5320
34860SOL    HW211442   9.567  10.554   3.930  1.2642  1.6941  1.2285
34861SOL     OW11443   7.579   0.889   3.500 -0.0585  0.3793  0.1178
34861SOL    HW111444   7.541   0.808   3.533 -0.2115  0.1107 -0.6961
34861SOL    HW211445   7.520   0.917   3.430 -0.3810  1.5591  0.8351
34862SOL     OW11446   9.732   1.206  10.371 -0.1638  0.2933 -0.2229
34862SOL    HW111447   9.709   1.198  10.278 -0.0745  1.9063 -0.3993
34862SOL    HW211448   9.786   1.285  10.376 -1.0097  0.8087  1.3571
34863SOL     OW11449   4.856  11.462  11.416 -0.3513 -0.0495 -0.2579
34863SOL    HW111450   4.909  11.487  11.492  0.1726  0.3524 -0.7514
34863SOL    HW211451   4.895  11.508  11.343 -1.0617 -0.1750 -0.7256
34864SOL     OW11452   3.248  10.596  10.808 -0.1666 -1.7384  0.7066
34864SOL    HW111453   3.233  10.649  10.730  2.0319 -0.4262  1.0739
34864SOL    HW211454   3.165  10.598  10.856 -1.2815 -1.8719 -1.1541
34865SOL     OW11455   5.249   7.890  10.505  0.4525 -0.2336  0.0165
34865SOL    HW111456   5.267   7.852  10.419  0.4558 -0.2752  0.0354
34865SOL    HW211457   5.196   7.968  10.486  0.4979 -0.2126 -0.0273
34866SOL     OW11458  10.218  11.675  11.452 -0.7245  0.4688  0.4471
34866SOL    HW111459  10.305  11.713  11.467 -0.3162 -0.9544  2.0321
34866SOL    HW211460  10.205  11.682  11.357  0.4811  2.0090  0.3594
34867SOL     OW11461   7.627   9.373   3.656 -0.0681 -0.4981 -0.3076
34867SOL    HW111462   7.680   9.312   3.606  0.8701 -0.1921  0.2734
34867SOL    HW211463   7.575   9.318   3.715  1.2685 -0.7440  0.6900
34868SOL     OW11464   3.421   7.452   6.782  0.1632 -0.1299 -0.1421
34868SOL    HW111465   3.395   7.361   6.799  1.5211 -0.3019  1.3023
34868SOL    HW211466   3.517   7.449   6.779  0.1966  0.9387 -2.2409
34869SOL     OW11467   0.934  11.224  11.212  0.1039  0.1280 -0.6569
34869SOL    HW111468   0.964  11.227  11.303  0.3194  2.1404 -0.7518
34869SOL    HW211469   0.958  11.137  11.182  0.8548 -0.2533  0.9352
34870SOL     OW11470   2.316   2.282   8.157  0.9713 -0.0771  0.3771
34870SOL    HW111471   2.234   2.235   8.169  1.5145 -1.0621  0.3401
34870SOL    HW211472   2.293   2.360   8.106 -0.1437  0.3290  1.4478
34871SOL     OW11473   0.159   4.027  12.460 -0.0952  0.3305  0.1836
34871SOL    HW111474   0.146   3.933  12.473  0.2188 -0.0227 -1.6923
34871SOL    HW211475   0.254   4.039  12.463 -0.1911  1.0293  2.7299
34872SOL     OW11476   2.749   0.986  10.333  0.3068  0.5255  0.0039
34872SOL    HW111477   2.722   0.915  10.391 -1.2737  0.4519 -0.7684
34872SOL    HW211478   2.804   1.042  10.388  0.1605 -0.3661  1.1074
34873SOL     OW11479   4.827   6.952   2.548 -0.4769  0.6952 -0.1515
34873SOL    HW111480   4.801   7.028   2.495 -0.8514  0.1841 -0.7131
34873SOL    HW211481   4.761   6.885   2.529  0.7194 -0.3195 -0.9071
34874SOL     OW11482  11.248  11.555   1.385 -0.1709 -0.3975 -0.3463
34874SOL    HW111483  11.269  11.479   1.439 -0.9163  0.3469  1.0277
34874SOL    HW211484  11.313  11.620   1.408 -0.8432  0.1253  0.1089
34875SOL     OW11485   4.304   2.022   4.949 -0.1486 -0.1976 -0.3256
34875SOL    HW111486   4.243   2.035   5.021 -0.4874 -1.9620 -0.2465
34875SOL    HW211487   4.249   2.010   4.872  0.1182 -0.6208 -0.4568
34876SOL     OW11488  11.336   7.838   6.269  0.0555  0.5300 -0.3588
34876SOL    HW111489  11.297   7.902   6.209 -1.5339  2.1533  2.2340
34876SOL    HW211490  11.406   7.887   6.313  0.1646 -0.1468  0.2256
34877SOL     OW11491   4.625   8.161   9.389  0.1533 -0.7627  0.3844
34877SOL    HW111492   4.544   8.211   9.400 -0.5545 -1.0412 -2.6942
34877SOL    HW211493   4.602   8.071   9.412 -0.3619 -0.7828 -0.1777
34878SOL     OW11494   3.447   4.280   1.389 -0.0176  0.5581  0.2173
34878SOL    HW111495   3.431   4.366   1.352  0.9766 -0.1781 -2.1154
34878SOL    HW211496   3.416   4.219   1.322  2.3500 -0.8581  0.2946
34879SOL     OW11497   8.334   1.992   4.737  0.1740  0.7561  0.4416
34879SOL    HW111498   8.269   1.949   4.793  0.0991  0.0573 -0.1759
34879SOL    HW211499   8.356   1.927   4.670  0.7023  1.3709  0.0035
34880SOL     OW11500  11.718   4.655   6.916  0.0417  0.6220  0.1406
34880SOL    HW111501  11.752   4.575   6.956 -1.5971  0.1578  0.6687
34880SOL    HW211502  11.662   4.693   6.983 -0.4504  1.3785 -0.6827
34881SOL     OW11503   1.215   9.490  10.327  0.4182 -0.3345 -0.0064
34881SOL    HW111504   1.135   9.522  10.286  1.5244  1.7908 -0.6476
34881SOL    HW211505   1.235   9.554  10.395  1.0570 -1.3950  0.8553
34882SOL     OW11506   3.151   8.542   0.774  0.2028  0.1461  0.4417
34882SOL    HW111507   3.064   8.542   0.814 -0.4811 -0.1831 -0.9789
34882SOL    HW211508   3.203   8.483   0.829 -0.7480 -0.4113  0.7651
34883SOL     OW11509   4.818   5.844  10.937  0.1163  0.7526  0.6116
34883SOL    HW111510   4.791   5.752  10.937  0.5912  0.5408 -1.8062
34883SOL    HW211511   4.737   5.893  10.945 -0.3629  0.1076 -0.1431
34884SOL     OW11512   3.165   4.114  10.006 -0.1764 -0.1417 -0.3228
34884SOL    HW111513   3.177   4.198   9.960  0.3939  0.9027  1.6298
34884SOL    HW211514   3.249   4.098  10.048  0.1085 -2.3477 -1.6019
34885SOL     OW11515   3.305   3.766   3.150  0.3615  0.4783  0.4873
34885SOL    HW111516   3.321   3.816   3.069 -1.3099  0.5577  0.1698
34885SOL    HW211517   3.392   3.753   3.187  1.1475  0.7604 -1.1361
34886SOL     OW11518   7.023   8.460   5.321  0.1321  0.2332  0.1323
34886SOL    HW111519   7.014   8.543   5.275 -3.6593  0.0328  0.2155
34886SOL    HW211520   7.076   8.405   5.263 -0.8528  1.3958 -1.9503
34887SOL     OW11521   9.460   6.094   8.882 -0.5877 -0.2889  0.4861
34887SOL    HW111522   9.552   6.120   8.886 -0.9438  1.0389  0.3493
34887SOL    HW211523   9.448   6.039   8.960  0.7341 -1.9525 -0.4198
34888SOL     OW11524   9.990   6.469   3.403  0.4637  0.0380  0.2519
34888SOL    HW111525  10.046   6.546   3.411  1.3070 -0.5990  0.7705
34888SOL    HW211526   9.996   6.444   3.311  1.0793 -0.0463  0.3108
34889SOL     OW11527   8.367   4.283  11.918 -0.2017  0.2914  0.4035
34889SOL    HW111528   8.397   4.192  11.922 -2.1465 -0.4189 -0.2045
34889SOL    HW211529   8.384   4.310  11.828  2.2543  1.2758  1.0796
34890SOL     OW11530   0.770   1.473   9.506  0.4261 -0.0114  0.2940
34890SOL    HW111531   0.760   1.509   9.594  1.3749 -0.4724  0.6063
34890SOL    HW211532   0.822   1.538   9.459  1.2951 -0.4928  0.5647
34891SOL     OW11533   7.659   0.674  10.986  0.0163 -0.6064 -0.1982
34891SOL    HW111534   7.684   0.757  10.945 -1.0088 -1.2380 -2.2368
34891SOL    HW211535   7.570   0.689  11.019 -0.1479 -0.8711 -0.5170
34892SOL     OW11536  11.523   5.408   9.816 -0.5280 -0.2728  0.1061
34892SOL    HW111537  11.484   5.463   9.749 -0.9683 -0.4328  0.2252
34892SOL    HW211538  11.616   5.432   9.816 -0.6646  0.2755 -0.0239
34893SOL     OW11539   3.790  11.185  10.827 -0.2040 -0.4892 -0.3818
34893SOL    HW111540   3.751  11.153  10.745  0.2401  0.7012 -1.0889
34893SOL    HW211541   3.731  11.253  10.857 -0.5087 -1.1143  0.4538
34894SOL     OW11542  11.970  12.107  10.654 -0.7192  0.2101  0.0118
34894SOL    HW111543  11.976  12.052  10.733  1.6387  0.7429  0.2601
34894SOL    HW211544  11.999  12.050  10.583  0.0576  0.5953  0.0090
34895SOL     OW11545   3.355   0.937   4.421 -0.5868  0.6668  0.2434
34895SOL    HW111546   3.281   0.894   4.464 -0.1033  0.4473  0.8678
34895SOL    HW211547   3.315   0.988   4.350 -0.9775 -3.3721 -2.8088
34896SOL     OW11548   6.307  10.433   3.508  0.0029  0.2662  0.2700
34896SOL    HW111549   6.271  10.413   3.422  0.3127 -0.5770  0.3249
34896SOL    HW211550   6.256  10.508   3.539  1.0095  1.6957 -1.3437
34897SOL     OW11551   9.296   6.845   3.049 -0.5246 -0.1287 -0.7444
34897SOL    HW111552   9.240   6.770   3.030  0.3797 -0.4846 -2.1788
34897SOL    HW211553   9.317   6.882   2.963 -1.1208  1.9274 -0.0632
34898SOL     OW11554   5.924   0.034   6.255 -0.3335 -0.3376  0.4712
34898SOL    HW111555   5.979   0.110   6.235  1.8637 -1.6776  1.0030
34898SOL    HW211556   5.902   0.044   6.348  0.2815 -0.5141  0.6427
34899SOL     OW11557  10.925   3.743   4.955 -0.0045 -0.5879 -0.0136
34899SOL    HW111558  10.972   3.809   4.903  2.6424 -2.0631  0.2991
34899SOL    HW211559  10.873   3.794   5.017 -0.4396  1.1817 -1.7280
34900SOL     OW11560   9.427   1.663   9.334  0.2419  0.3671 -0.1321
34900SOL    HW111561   9.402   1.593   9.274  3.6918 -0.5217 -0.7559
34900SOL    HW211562   9.458   1.618   9.412  1.3145  1.2242 -0.0346
34901SOL     OW11563   2.447   0.483   0.882  0.4592 -0.5631  0.2875
34901SOL    HW111564   2.514   0.426   0.844  0.1678 -0.1599 -0.8490
34901SOL    HW211565   2.497   0.551   0.927  0.8252 -1.8854  2.0121
34902SOL     OW11566   4.639  10.193   2.476  0.4829 -0.5710  0.2793
34902SOL    HW111567   4.597  10.171   2.393  0.5328 -2.4298  0.6997
34902SOL    HW211568   4.567  10.217   2.534  0.2180 -1.3746  0.2986
34903SOL     OW11569   4.928   8.994   9.253  0.3698  0.1644 -0.3212
34903SOL    HW111570   4.962   8.979   9.341  1.5572  0.4838 -0.6989
34903SOL    HW211571   4.876   8.916   9.234 -0.3426  0.3376  0.8577
34904SOL     OW11572   8.192   8.047   7.911 -0.1408 -0.3358  0.1781
34904SOL    HW111573   8.132   7.975   7.889 -1.0879  0.6270 -0.4830
34904SOL    HW211574   8.136   8.125   7.911  1.4343  0.9473 -2.6185
34905SOL     OW11575   4.428   4.185   9.090 -0.4405 -0.7858 -0.2648
34905SOL    HW111576   4.460   4.182   9.181 -0.0642 -1.7355 -0.4202
34905SOL    HW211577   4.477   4.258   9.051 -2.7867  1.6974  1.0691
34906SOL     OW11578   8.799   9.834   1.516  0.3525 -0.4113 -0.3070
34906SOL    HW111579   8.794   9.759   1.456  1.2979 -0.4582 -0.3462
34906SOL    HW211580   8.823   9.796   1.600 -0.1954 -0.2566 -0.0773
34907SOL     OW11581   3.609   9.901   2.708  0.0009 -0.0020  0.0659
34907SOL    HW111582   3.523   9.862   2.692  0.1118 -0.7187  1.0768
34907SOL    HW211583   3.655   9.893   2.625 -0.6502 -0.3007 -0.2730
34908SOL     OW11584   8.205   1.171   2.914 -0.0069  0.7831  0.7647
34908SOL    HW111585   8.217   1.222   2.834  1.3402  0.4101  0.7038
34908SOL    HW211586   8.140   1.104   2.891  1.5244 -0.3291 -0.5349
34909SOL     OW11587  10.945  11.493   0.308 -0.0551 -0.0513 -0.5266
34909SOL    HW111588  11.030  11.490   0.352  0.6703 -0.7887 -1.9416
34909SOL    HW211589  10.901  11.568   0.349  0.5709 -0.6741  1.4261
34910SOL     OW11590   2.203   0.688   2.994  0.0485 -0.1638 -0.2382
34910SOL    HW111591   2.265   0.704   3.065 -0.5742  0.2765  0.2174
34910SOL    HW211592   2.217   0.596   2.970  0.8819 -0.0669 -0.1564
34911SOL     OW11593  11.805   7.219  12.156 -0.2051 -0.0016 -0.0049
34911SOL    HW111594  11.882   7.274  12.170  2.2486 -2.9885 -0.8121
34911SOL    HW211595  11.794   7.217  12.061 -0.1208 -1.0069 -0.0078
34912SOL     OW11596   2.754  11.101   8.245 -0.1982 -0.1909 -0.3691
34912SOL    HW111597   2.694  11.044   8.294  0.0771 -0.4593 -0.3464
34912SOL    HW211598   2.778  11.170   8.308 -2.6317  1.5256 -1.1456
34913SOL     OW11599   1.954   0.652   0.694  1.0588 -0.1023 -0.6996
34913SOL    HW111600   2.012   0.593   0.742  0.2215 -0.7828 -0.4900
34913SOL    HW211601   1.931   0.720   0.757 -0.7913 -1.5022  0.2316
34914SOL     OW11602  12.075   5.311   8.611  0.3075 -0.4720  0.1023
34914SOL    HW111603  12.148   5.266   8.653  0.3474  1.2802  2.1256
34914SOL    HW211604  12.003   5.306   8.674 -0.5730 -0.1268 -0.8256
34915SOL     OW11605   3.335  11.270   2.136  0.1087  0.3095  0.6423
34915SOL    HW111606   3.262  11.263   2.199 -0.1128  0.5005  0.4113
34915SOL    HW211607   3.388  11.342   2.170 -0.2273  0.6795  0.4014
34916SOL     OW11608  12.143   5.527   6.298 -0.1432  0.0435 -0.0819
34916SOL    HW111609  12.102   5.441   6.288  0.2636 -0.3867  1.5677
34916SOL    HW211610  12.075   5.589   6.272 -0.4149 -0.7681 -1.3746
34917SOL     OW11611   4.831   4.762   9.261  0.2437  0.1528 -0.4177
34917SOL    HW111612   4.883   4.838   9.236  1.3247  0.2118  1.7781
34917SOL    HW211613   4.881   4.720   9.330 -0.5232 -2.3700 -1.2725
34918SOL     OW11614  11.044   5.620   6.950  0.1856 -0.2661 -0.1246
34918SOL    HW111615  11.060   5.659   7.036  0.3489 -0.3773 -0.1048
34918SOL    HW211616  10.989   5.684   6.904 -1.1464 -0.8564  0.5874
34919SOL     OW11617  12.340   2.712   5.486  0.6198  0.0664  0.1088
34919SOL    HW111618  12.355   2.784   5.425 -0.1867 -0.2946 -0.5191
34919SOL    HW211619  12.398   2.642   5.456  1.9201  0.6605  1.1252
34920SOL     OW11620   7.034   7.022   9.513 -0.3210  0.8243 -0.2990
34920SOL    HW111621   7.084   7.050   9.436  0.1258  0.4537 -0.1480
34920SOL    HW211622   6.967   6.964   9.478  0.8344 -0.5768 -0.2549
34921SOL     OW11623  11.629   9.064  10.387  0.6759 -0.6425 -0.4594
34921SOL    HW111624  11.723   9.050  10.399  0.5261 -0.5385  1.0138
34921SOL    HW211625  11.593   9.063  10.476 -0.6569 -0.2274 -0.9689
34922SOL     OW11626   2.128   2.158   3.088  0.3064 -0.5522 -0.7104
34922SOL    HW111627   2.098   2.211   3.014 -0.8625  0.2232  0.2727
34922SOL    HW211628   2.222   2.147   3.072  0.5851  1.7107 -1.0688
34923SOL     OW11629   3.749   5.355  10.505 -0.0004  0.0185  0.0973
34923SOL    HW111630   3.757   5.385  10.595 -0.1575 -0.2465  0.1993
34923SOL    HW211631   3.703   5.427  10.460  1.2338  0.7256 -0.0758
34924SOL     OW11632  10.846   0.214   0.055 -0.1688  0.2555 -0.0090
34924SOL    HW111633  10.781   0.181   0.118  0.9886 -0.4474  0.8479
34924SOL    HW211634  10.876   0.137   0.007 -0.0357  0.5892 -0.4700
34925SOL     OW11635  12.146   4.831   4.505  0.0421 -0.2333  0.4149
34925SOL    HW111636  12.082   4.820   4.434  2.0597 -1.3460 -1.3920
34925SOL    HW211637  12.180   4.742   4.520  1.8035  0.4270  0.6201
34926SOL     OW11638   4.952  10.249   8.117 -0.1248  0.0235  0.1440
34926SOL    HW111639   4.858  10.268   8.116 -0.2898 -0.6551 -1.9189
34926SOL    HW211640   4.958  10.155   8.130  0.3321  0.1566  1.0083
34927SOL     OW11641   8.357   0.162   9.897  0.3113  0.0041 -0.1377
34927SOL    HW111642   8.315   0.160   9.983 -1.4663  0.4465 -0.9429
34927SOL    HW211643   8.388   0.252   9.889 -0.1314  0.1513 -0.2257
34928SOL     OW11644   5.335   9.573  12.014 -0.1180  0.0340  0.4129
34928SOL    HW111645   5.276   9.500  11.993 -0.2632  0.6747 -1.6352
34928SOL    HW211646   5.277   9.646  12.034 -0.1341  0.8148 -2.1322
34929SOL     OW11647  12.141   9.441   5.808 -0.1874 -0.3732  1.0616
34929SOL    HW111648  12.211   9.435   5.873  1.0010 -1.5486 -0.2654
34929SOL    HW211649  12.114   9.351   5.794 -0.3382 -0.1504 -0.1548
34930SOL     OW11650   4.329   0.966   7.775  0.3559 -1.1185 -0.2578
34930SOL    HW111651   4.416   1.001   7.796 -0.2340 -0.0040  0.4396
34930SOL    HW211652   4.327   0.880   7.817  1.0072 -1.0214 -0.0116
34931SOL     OW11653  10.675   6.387   1.517  0.7166 -0.3282 -0.0298
34931SOL    HW111654  10.731   6.358   1.589  1.6600  2.3845  0.4453
34931SOL    HW211655  10.735   6.399   1.444 -0.1541 -2.5277 -1.2022
34932SOL     OW11656   8.251   9.183  12.262  0.3681  0.2613 -0.4718
34932SOL    HW111657   8.257   9.278  12.257 -0.8013  0.3822  0.0397
34932SOL    HW211658   8.292   9.161  12.346 -0.3361  0.4222 -0.0836
34933SOL     OW11659   9.957   8.876   6.561 -0.3124  0.3704  0.0591
34933SOL    HW111660  10.004   8.792   6.557  0.0598  0.5646  0.2484
34933SOL    HW211661   9.945   8.892   6.655  0.6442  1.0797  0.0804
34934SOL     OW11662  10.334   8.175  11.858 -0.3857 -0.7661  0.5590
34934SOL    HW111663  10.314   8.098  11.910 -0.9067 -1.9485 -1.3068
34934SOL    HW211664  10.281   8.166  11.779  0.5494  0.8238 -0.3151
34935SOL     OW11665   4.533   8.301   4.903  0.2189  0.8811  0.1959
34935SOL    HW111666   4.587   8.254   4.966 -0.4474 -1.2168 -0.6926
34935SOL    HW211667   4.557   8.264   4.818 -2.6554 -0.3154 -0.2295
34936SOL     OW11668   3.160   7.785  12.069  0.4270  0.2516  0.1183
34936SOL    HW111669   3.150   7.781  11.973 -0.7258  0.1102  0.2251
34936SOL    HW211670   3.194   7.873  12.086 -0.9745  0.9185 -0.3281
34937SOL     OW11671   4.328   7.733   8.631 -0.8393  0.4822 -0.5646
34937SOL    HW111672   4.304   7.657   8.684  0.1440 -0.2307 -1.1134
34937SOL    HW211673   4.353   7.696   8.546 -0.7186  1.4535 -0.9667
34938SOL     OW11674  11.991   1.858   6.232  0.4537 -0.7212  0.1043
34938SOL    HW111675  12.041   1.935   6.260  0.1566  0.8194 -3.0893
34938SOL    HW211676  12.032   1.832   6.149 -0.2200 -3.3374  0.4886
34939SOL     OW11677   9.484   1.483   6.619  0.4135 -0.3856 -0.1610
34939SOL    HW111678   9.482   1.422   6.693 -0.4596  0.2232  0.3293
34939SOL    HW211679   9.423   1.446   6.555 -0.4110  0.1633  0.2982
34940SOL     OW11680   9.913   9.171   0.211  0.7100 -0.0098 -0.0843
34940SOL    HW111681   9.859   9.179   0.132 -0.2660 -0.0054  0.5715
34940SOL    HW211682   9.990   9.121   0.182  1.1320  1.3067 -1.3978
34941SOL     OW11683   0.609   7.128   7.202 -0.0476 -0.5577 -0.2331
34941SOL    HW111684   0.689   7.077   7.217  0.5570  0.3090 -0.4861
34941SOL    HW211685   0.573   7.092   7.121 -0.5312 -1.7016  0.4547
34942SOL     OW11686   9.292   4.550   2.320 -0.0913  0.1708 -0.5129
34942SOL    HW111687   9.203   4.539   2.287 -0.8410  1.4731  0.9453
34942SOL    HW211688   9.327   4.461   2.325 -1.1642 -0.3271 -1.4621
34943SOL     OW11689   7.100   4.060   0.784  0.2991 -0.1505 -0.1263
34943SOL    HW111690   7.043   3.994   0.744  2.4218 -1.9114 -0.4646
34943SOL    HW211691   7.174   4.067   0.723  2.1568 -0.6296  1.9711
34944SOL     OW11692   6.688  12.210   1.801 -0.5401  0.1016 -0.0538
34944SOL    HW111693   6.741  12.156   1.743 -0.4109  1.1393 -0.9270
34944SOL    HW211694   6.609  12.159   1.816 -0.0021 -0.7500 -0.0614
34945SOL     OW11695  10.794   3.838   9.717  0.4015 -0.3856  0.0048
34945SOL    HW111696  10.708   3.877   9.733  0.3490 -0.4274 -0.1697
34945SOL    HW211697  10.784   3.747   9.746  0.2770 -0.4882 -0.3539
34946SOL     OW11698   4.077   8.832  11.858 -0.4367 -0.3570 -0.1412
34946SOL    HW111699   4.051   8.812  11.768  3.0922 -1.4098 -1.0547
34946SOL    HW211700   4.045   8.757  11.909 -2.5986  0.3226 -0.4088
34947SOL     OW11701   1.125  11.473   5.906 -0.2375  0.1948  0.1443
34947SOL    HW111702   1.053  11.411   5.919  0.2261 -0.7530 -1.5226
34947SOL    HW211703   1.182  11.430   5.842 -0.2211  2.6063 -1.5875
34948SOL     OW11704  11.408  10.071  10.729 -0.2133  0.5081  0.6505
34948SOL    HW111705  11.402  10.098  10.637 -0.9525  2.0414  1.1090
34948SOL    HW211706  11.501  10.083  10.751  0.2030 -0.9393 -0.1670
34949SOL     OW11707   0.483   9.560   6.396 -0.3047 -0.0958  0.0640
34949SOL    HW111708   0.455   9.473   6.368  0.2487  0.0127 -0.8825
34949SOL    HW211709   0.579   9.557   6.390 -0.3373  1.5352 -3.1129
34950SOL     OW11710   6.977  12.008   7.628  0.0302 -0.3460  0.0898
34950SOL    HW111711   6.934  12.012   7.542  0.6241 -1.4616 -0.2937
34950SOL    HW211712   7.014  11.920   7.631  0.7890 -0.0070  1.1322
34951SOL     OW11713  11.026   9.911   6.476  0.3430 -0.4952  0.6023
34951SOL    HW111714  11.002  10.004   6.465  0.8077 -0.5889 -1.6551
34951SOL    HW211715  11.121   9.912   6.482  0.3397 -0.8224  0.6878
34952SOL     OW11716   2.375   5.494   9.773  0.8060  0.0186 -0.0139
34952SOL    HW111717   2.423   5.444   9.708  1.0692  0.6295 -0.3016
34952SOL    HW211718   2.351   5.575   9.728 -0.9262 -0.4581 -0.0508
34953SOL     OW11719  12.110   7.539   8.056 -0.1744  0.1200 -0.0819
34953SOL    HW111720  12.015   7.535   8.063 -0.2352  0.9282 -0.2896
34953SOL    HW211721  12.126   7.569   7.967  0.3031 -0.6919 -0.2804
34954SOL     OW11722   4.995  11.419   2.189 -0.2755 -0.1682 -0.0707
34954SOL    HW111723   5.049  11.414   2.110 -1.1202  0.5556 -0.7187
34954SOL    HW211724   4.949  11.335   2.192 -0.8233  0.1004 -0.7921
34955SOL     OW11725   3.119  12.105   2.441 -0.0743 -0.3911  0.5341
34955SOL    HW111726   3.201  12.152   2.427 -0.4964 -0.3632 -2.5255
34955SOL    HW211727   3.058  12.172   2.473  0.8365 -0.2584  2.0988
34956SOL     OW11728   4.177   6.131   8.126 -0.2952  0.0095 -0.0569
34956SOL    HW111729   4.164   6.054   8.181 -1.4505  0.2052 -0.0289
34956SOL    HW211730   4.090   6.169   8.117 -0.1736 -0.0896 -2.1344
34957SOL     OW11731   1.607   6.375  11.667 -0.7431  0.4855  0.1043
34957SOL    HW111732   1.668   6.338  11.602 -1.0233  0.3451 -0.0801
34957SOL    HW211733   1.589   6.302  11.726 -2.1064  0.0159 -0.8544
34958SOL     OW11734   8.867   8.784  10.732  0.0269  0.0472 -0.0051
34958SOL    HW111735   8.863   8.765  10.826  1.6911 -1.9320 -0.2667
34958SOL    HW211736   8.777   8.771  10.702 -0.3785 -0.0494  1.1731
34959SOL     OW11737  10.498   9.819   5.675 -0.1575 -0.0416  0.4003
34959SOL    HW111738  10.563   9.860   5.619 -1.4081  0.4372 -0.7367
34959SOL    HW211739  10.437   9.889   5.698  0.7299 -0.0134  3.0656
34960SOL     OW11740   6.466   1.347   5.272  0.1589  0.3534  0.2419
34960SOL    HW111741   6.448   1.314   5.360 -0.1205  0.2894  0.1612
34960SOL    HW211742   6.442   1.275   5.213  2.6923 -0.5880  0.2100
34961SOL     OW11743   6.595   0.220   8.161 -0.3963  0.3851  0.2530
34961SOL    HW111744   6.679   0.220   8.207 -0.6072  2.7192  0.7623
34961SOL    HW211745   6.618   0.240   8.071 -0.3558  0.1087  0.1989
34962SOL     OW11746   0.093   6.974   7.826 -0.1064 -0.0864  0.0075
34962SOL    HW111747   0.158   7.007   7.763 -0.8268 -0.8686 -1.1928
34962SOL    HW211748   0.035   6.919   7.773 -0.9547 -0.4803  1.3119
34963SOL     OW11749   9.704   0.458   1.358 -0.0697  0.1409  0.1694
34963SOL    HW111750   9.760   0.523   1.400 -1.0510  1.2546 -0.1761
34963SOL    HW211751   9.615   0.494   1.366 -0.4376 -0.2562 -1.6334
34964SOL     OW11752   8.643   5.445   7.687 -0.3372 -0.3663 -0.3907
34964SOL    HW111753   8.582   5.506   7.727  0.3834 -0.1746  0.4443
34964SOL    HW211754   8.642   5.368   7.743  1.3128  0.2337  0.5392
34965SOL     OW11755   8.704   4.820   1.427 -0.4586  0.0814 -0.4516
34965SOL    HW111756   8.682   4.728   1.415 -3.1661  0.5080  0.3840
34965SOL    HW211757   8.737   4.825   1.517  1.9369 -0.3495 -1.2432
34966SOL     OW11758   1.608   0.957   2.566 -0.3582 -0.1357  0.6034
34966SOL    HW111759   1.524   0.913   2.559 -0.7519 -0.0164  3.4416
34966SOL    HW211760   1.660   0.902   2.624 -0.6231  2.5452  3.6967
34967SOL     OW11761   8.919   1.514  11.926 -0.4831 -0.6372 -0.4003
34967SOL    HW111762   8.898   1.425  11.898 -1.0934 -0.3647 -0.8418
34967SOL    HW211763   8.919   1.565  11.845 -0.8516 -0.1034 -0.0698
34968SOL     OW11764   2.352   5.818   5.941 -0.1513 -0.6327 -0.0638
34968SOL    HW111765   2.322   5.894   5.892  1.5042 -0.0098 -0.1716
34968SOL    HW211766   2.358   5.849   6.031  0.9209 -0.4947 -0.1741
34969SOL     OW11767  11.465   7.680   8.587 -0.3281 -0.6114  0.5455
34969SOL    HW111768  11.409   7.606   8.567 -0.2206 -0.4693 -0.2866
34969SOL    HW211769  11.408   7.757   8.578  0.1842 -0.3994 -1.1202
34970SOL     OW11770   5.694   4.369   5.998  0.5792 -0.1780 -0.1606
34970SOL    HW111771   5.772   4.314   6.000 -0.1256 -1.2060  2.0612
34970SOL    HW211772   5.656   4.361   6.086 -1.0309  1.7470 -0.6031
34971SOL     OW11773  10.547   0.666   9.753 -0.2246 -0.1698 -0.0183
34971SOL    HW111774  10.476   0.692   9.694  0.1477 -1.3621 -1.0087
34971SOL    HW211775  10.535   0.572   9.766  0.6634 -0.2198  0.5060
34972SOL     OW11776   8.271   6.736   4.848 -0.2165  0.0381  0.0383
34972SOL    HW111777   8.307   6.648   4.834 -1.9824 -0.7138 -0.0504
34972SOL    HW211778   8.220   6.729   4.929  1.2916  1.5603  1.1784
34973SOL     OW11779   2.302   8.502   9.864 -0.1815  0.0376  0.6246
34973SOL    HW111780   2.386   8.535   9.832 -0.4744  0.4002  0.2090
34973SOL    HW211781   2.273   8.568   9.927  0.0200 -0.2755  1.0465
34974SOL     OW11782   5.209   8.402   5.222  0.6418 -0.1977  0.1170
34974SOL    HW111783   5.206   8.497   5.211  1.3963 -0.1542  0.2283
34974SOL    HW211784   5.121   8.373   5.202  0.3387  0.5533  0.3193
34975SOL     OW11785   1.511   3.452   6.306 -0.2149 -0.2645 -0.6692
34975SOL    HW111786   1.582   3.501   6.349  0.4982 -0.8086 -1.2160
34975SOL    HW211787   1.527   3.463   6.213 -0.2741 -1.2040 -0.8005
34976SOL     OW11788   2.424  10.923   8.962  0.4244 -0.7274  0.4039
34976SOL    HW111789   2.407  10.828   8.962  0.8391 -0.8021  0.3434
34976SOL    HW211790   2.366  10.957   9.030  0.5424 -1.0741  0.6830
34977SOL     OW11791   4.389   1.298   6.564 -0.0571 -0.4876 -0.2011
34977SOL    HW111792   4.309   1.247   6.558 -0.8369  0.5495  0.9405
34977SOL    HW211793   4.417   1.311   6.473 -3.6413  2.8901 -1.0734
34978SOL     OW11794   3.229   7.138   2.076  0.2162 -0.4282  0.2655
34978SOL    HW111795   3.273   7.207   2.124  2.9226 -2.1630  0.4965
34978SOL    HW211796   3.291   7.065   2.077 -2.0127 -2.4730 -0.9459
34979SOL     OW11797   5.655   3.453   4.515  0.3178  0.3814  0.8906
34979SOL    HW111798   5.645   3.358   4.519 -0.0516  0.4284  1.0371
34979SOL    HW211799   5.719   3.467   4.444 -1.6170  0.1493 -0.9995
34980SOL     OW11800  10.311   1.658  10.805 -0.2461  0.0095  0.0982
34980SOL    HW111801  10.325   1.696  10.892  2.8286 -1.5977  0.4387
34980SOL    HW211802  10.240   1.595  10.818  0.4800 -0.5526  1.6200
34981SOL     OW11803  11.897   7.690   8.345 -0.0031 -0.0978  0.0518
34981SOL    HW111804  11.898   7.613   8.287 -2.0297  0.5633 -0.9578
34981SOL    HW211805  11.937   7.760   8.292  0.3830 -0.0603  0.3856
34982SOL     OW11806   6.005   6.543   6.626 -0.5255 -0.2660  0.7939
34982SOL    HW111807   5.987   6.501   6.542 -0.9162 -0.6739  1.0809
34982SOL    HW211808   6.058   6.479   6.674  2.2671  1.1013 -0.2321
34983SOL     OW11809   0.258   1.353   2.555  0.0402 -0.0124 -0.0583
34983SOL    HW111810   0.166   1.378   2.541  0.5222  0.7783 -2.1433
34983SOL    HW211811   0.260   1.259   2.538 -0.2292  0.1420 -1.0297
34984SOL     OW11812   6.793  11.859  11.268 -0.2767  0.3760  0.0759
34984SOL    HW111813   6.885  11.881  11.251 -0.9105  2.4666 -1.0465
34984SOL    HW211814   6.789  11.764  11.263  1.9933  0.1566  1.1834
34985SOL     OW11815   7.901   0.675   2.113  0.0967 -0.8646 -0.4123
34985SOL    HW111816   7.823   0.679   2.169 -0.3985 -1.8539 -1.0052
34985SOL    HW211817   7.881   0.608   2.048  2.1019 -2.3670  0.4162
34986SOL     OW11818   7.160   7.024   3.486  0.0365 -0.4123 -0.8122
34986SOL    HW111819   7.074   7.048   3.521  0.4040  0.1903 -0.2856
34986SOL    HW211820   7.175   6.936   3.518  0.3687  0.1320  0.5975
34987SOL     OW11821   9.322  11.244  11.939  0.5400  0.6010  0.5057
34987SOL    HW111822   9.387  11.175  11.931 -0.5509 -0.5819  1.3750
34987SOL    HW211823   9.369  11.318  11.978  1.7694  0.4325 -0.6070
34988SOL     OW11824  12.184   3.799   7.614  0.6131 -0.3079 -0.2622
34988SOL    HW111825  12.185   3.873   7.553  0.6831 -1.8051 -2.1597
34988SOL    HW211826  12.101   3.807   7.659  0.0719  0.2694 -1.3109
34989SOL     OW11827   6.012   9.163   5.102  0.3834  0.0765  0.2682
34989SOL    HW111828   5.970   9.161   5.188  0.3955 -0.6814  0.2622
34989SOL    HW211829   5.939   9.165   5.040  0.3509 -0.6105  0.2734
34990SOL     OW11830   3.296   5.800   0.206  0.0612 -0.0532 -0.5252
34990SOL    HW111831   3.366   5.864   0.197  2.0035 -1.7948  0.8562
34990SOL    HW211832   3.342   5.716   0.212 -2.3259 -1.5899 -2.0460
34991SOL     OW11833  12.410   0.310   1.670 -0.1231  0.4058 -0.0481
34991SOL    HW111834  12.480   0.278   1.613  1.3287  0.3435  1.6894
34991SOL    HW211835  12.389   0.397   1.636 -0.3021 -0.1580 -1.4909
34992SOL     OW11836   9.684   1.160   1.889 -0.4580 -0.5985 -0.0742
34992SOL    HW111837   9.720   1.213   1.818  1.1245  0.8597  1.6986
34992SOL    HW211838   9.592   1.185   1.892 -0.2922  0.1998 -0.8604
34993SOL     OW11839   0.474   7.684   5.978 -0.0688 -0.0987 -0.2631
34993SOL    HW111840   0.442   7.594   5.966 -0.5345  0.2005 -1.3542
34993SOL    HW211841   0.405   7.728   6.027 -0.4760  0.0273 -0.9383
34994SOL     OW11842   1.933   3.854   8.415 -0.0560  0.2456  0.3069
34994SOL    HW111843   1.977   3.913   8.354 -0.2458 -0.7771 -0.8600
34994SOL    HW211844   1.958   3.766   8.386 -0.7793 -0.2859  1.2337
34995SOL     OW11845   9.641   2.870   6.970 -0.0153  0.1782  0.0679
34995SOL    HW111846   9.559   2.919   6.981 -0.5724  0.0726 -2.7724
34995SOL    HW211847   9.626   2.816   6.892  2.4580 -0.4994 -0.0224
34996SOL     OW11848   7.954   0.265   5.615  0.7365  0.3643  0.1625
34996SOL    HW111849   7.909   0.329   5.559  1.4182  1.1310  0.4694
34996SOL    HW211850   7.934   0.180   5.575 -2.2311  0.4845  1.1148
34997SOL     OW11851   3.119   4.190   6.556  0.2051 -0.3528  0.3074
34997SOL    HW111852   3.196   4.166   6.608 -0.9371 -2.1862  1.2442
34997SOL    HW211853   3.104   4.282   6.576  2.1321  0.0483  0.0905
34998SOL     OW11854   1.546   0.001  10.010 -0.8082 -0.1078 -0.1938
34998SOL    HW111855   1.621  -0.052   9.983 -0.2142  0.1664  0.8274
34998SOL    HW211856   1.509  -0.046  10.084 -0.7306  0.5110  0.2462
34999SOL     OW11857   9.536   6.043   9.724  0.1548 -0.0678  0.0238
34999SOL    HW111858   9.583   6.122   9.753 -0.0411 -0.2990  1.0060
34999SOL    HW211859   9.547   6.042   9.629  0.9937  0.6140  0.1017
35000SOL     OW11860   2.290   9.498   9.460 -0.3799  0.3276  0.4796
35000SOL    HW111861   2.212   9.499   9.515 -0.2742  2.2560  0.6703
35000SOL    HW211862   2.261   9.536   9.377 -0.0325 -0.5536 -0.0593
35001SOL     OW11863   4.753   6.102   4.476 -0.3159 -0.1626  0.1114
35001SOL    HW111864   4.791   6.177   4.431 -0.5112  0.3422  0.7767
35001SOL    HW211865   4.701   6.057   4.409  0.4775 -0.1848 -0.4972
35002SOL     OW11866   8.388  10.808   9.784 -0.8860  0.1695  0.3505
35002SOL    HW111867   8.405  10.714   9.782 -0.1892  0.2515  1.4325
35002SOL    HW211868   8.426  10.837   9.867  2.3018  2.0428 -1.5638
35003SOL     OW11869   0.433  11.278   6.537  0.5235 -0.0325 -0.0016
35003SOL    HW111870   0.526  11.257   6.546  0.3444 -0.6910  0.4058
35003SOL    HW211871   0.389  11.192   6.535 -0.4419  0.2066  3.7629
35004SOL     OW11872   8.862   5.058   5.292  0.3205 -0.7499  0.3101
35004SOL    HW111873   8.954   5.086   5.283  0.6296 -1.7946  0.0537
35004SOL    HW211874   8.865   4.989   5.358 -0.4285 -0.1841  0.9496
35005SOL     OW11875   1.332   9.859   6.498 -0.5610 -0.2604  0.7241
35005SOL    HW111876   1.365   9.851   6.587 -0.3037  0.5949  0.7196
35005SOL    HW211877   1.259   9.921   6.505 -1.9400 -1.8255  0.6706
35006SOL     OW11878  12.455   5.661   3.425  0.7998  0.2118 -0.0118
35006SOL    HW111879  12.458   5.709   3.342 -0.6478  1.1379  0.4396
35006SOL    HW211880  12.497   5.577   3.405  1.1984  0.7224 -1.4667
35007SOL     OW11881   0.664   7.566   9.064  0.1193 -0.6769 -0.7321
35007SOL    HW111882   0.569   7.570   9.068  0.1154 -0.8438 -0.6204
35007SOL    HW211883   0.684   7.548   8.972  0.0397 -0.7137 -0.7424
35008SOL     OW11884   8.050  11.384   7.759  0.3571  0.0481 -0.7554
35008SOL    HW111885   7.984  11.424   7.816 -1.1208 -0.4046 -2.0954
35008SOL    HW211886   8.074  11.303   7.804 -1.7555 -0.9655 -1.3143
35009SOL     OW11887  11.315   0.988   3.867  0.1752  0.5220 -0.0278
35009SOL    HW111888  11.334   0.954   3.954  2.0762  1.7189  0.0850
35009SOL    HW211889  11.368   1.068   3.860  0.5179  0.1754 -2.4570
35010SOL     OW11890   3.767  10.245  10.745  0.4174  0.1775  0.1933
35010SOL    HW111891   3.724  10.287  10.820  0.3820  0.0482  0.2468
35010SOL    HW211892   3.858  10.275  10.749  0.0188  1.6304 -0.7627
35011SOL     OW11893   8.954  12.252  10.350 -0.3838  0.0866 -0.2348
35011SOL    HW111894   9.001  12.187  10.299 -1.2893 -1.4692  0.8289
35011SOL    HW211895   8.874  12.207  10.378 -0.9095  1.5687  0.7721
35012SOL     OW11896   0.422   9.122   4.690 -0.0348  0.6547 -0.1529
35012SOL    HW111897   0.358   9.193   4.684  0.8408  1.3724 -2.0058
35012SOL    HW211898   0.492   9.148   4.629  0.5873 -1.5269 -0.4597
35013SOL     OW11899   6.428   8.650   1.447  0.1740  0.2544 -0.1357
35013SOL    HW111900   6.459   8.722   1.502  1.9425  1.1713 -2.1877
35013SOL    HW211901   6.333   8.648   1.462  0.6095 -0.3110  3.6941
35014SOL     OW11902   1.548   8.719   7.416 -0.5601  0.0440 -0.2753
35014SOL    HW111903   1.503   8.750   7.337 -0.3307 -2.3314 -1.4332
35014SOL    HW211904   1.508   8.634   7.434  1.6876 -0.9902  0.1649
35015SOL     OW11905  11.393   5.922   0.761 -0.1673  0.3797 -0.0483
35015SOL    HW111906  11.484   5.922   0.731 -0.2957  1.4082 -0.5141
35015SOL    HW211907  11.366   5.831   0.756  1.2433 -0.1645  1.4188
35016SOL     OW11908  11.830   2.963   6.827 -0.0353 -0.4153  0.4223
35016SOL    HW111909  11.769   2.985   6.897  0.4934  2.0354  0.1799
35016SOL    HW211910  11.916   2.982   6.863  0.3449 -0.5532 -0.4008
35017SOL     OW11911   0.066   9.043  11.803 -0.0946  0.4226  0.2487
35017SOL    HW111912   0.061   9.023  11.709  2.1015  1.2095 -0.0863
35017SOL    HW211913   0.008   9.118  11.814 -0.5542  0.1835 -0.4114
35018SOL     OW11914   2.963   2.139   3.527  0.2779 -0.4872  0.3263
35018SOL    HW111915   2.906   2.145   3.451  2.2065 -1.3659 -1.2654
35018SOL    HW211916   3.011   2.222   3.528 -1.2698  0.4720  1.9638
35019SOL     OW11917   9.449  11.845   4.379 -0.1566 -0.7489  0.6436
35019SOL    HW111918   9.445  11.847   4.474  0.3782  0.4426  0.6577
35019SOL    HW211919   9.388  11.914   4.350 -1.3536 -1.9990  0.0666
35020SOL     OW11920   3.409   4.639   6.034 -0.3679  0.6967 -0.4520
35020SOL    HW111921   3.498   4.634   6.069  0.7610 -1.1842 -3.2450
35020SOL    HW211922   3.400   4.729   6.004  1.3729  0.4736 -1.8098
35021SOL     OW11923   5.255   3.097   3.455  0.0086  0.1716 -0.2195
35021SOL    HW111924   5.327   3.160   3.456 -1.9868  2.7307  2.8652
35021SOL    HW211925   5.262   3.053   3.540 -1.3414 -0.4464 -0.4141
35022SOL     OW11926  11.550   4.944  10.897  0.3365 -0.2876  0.0915
35022SOL    HW111927  11.457   4.946  10.919 -0.5658 -0.2639 -3.1782
35022SOL    HW211928  11.563   4.857  10.859  1.7917 -0.4661  0.9567
35023SOL     OW11929   3.615   0.306  10.928  0.2169 -0.1022 -0.1466
35023SOL    HW111930   3.663   0.224  10.916  0.5905 -0.2923  2.1306
35023SOL    HW211931   3.675   0.360  10.980 -0.7782  0.8923 -0.0117
35024SOL     OW11932  11.823   3.337   1.682 -0.0744 -0.1601 -0.3921
35024SOL    HW111933  11.809   3.402   1.613 -0.0225 -0.3624 -0.5967
35024SOL    HW211934  11.870   3.384   1.751  0.2726 -0.0690 -0.6863
35025SOL     OW11935   9.057  10.245   8.139 -0.2952  0.4362  0.2015
35025SOL    HW111936   9.009  10.205   8.066 -0.8463  2.1911 -0.4690
35025SOL    HW211937   9.009  10.326   8.156  1.4736  1.4362  0.6286
35026SOL     OW11938   0.019   8.441   3.509 -0.1507 -0.1382 -0.0922
35026SOL    HW111939   0.080   8.495   3.560 -0.5517 -1.7430  2.2707
35026SOL    HW211940   0.075   8.379   3.462  0.2120  1.1791 -1.4719
35027SOL     OW11941   9.187   6.665   6.197 -0.4447 -0.0722  0.3821
35027SOL    HW111942   9.143   6.750   6.187 -0.3012 -0.0064  0.2925
35027SOL    HW211943   9.244   6.659   6.120 -0.0992 -0.0344  0.6328
35028SOL     OW11944   4.066   2.717   1.725 -0.0056 -0.1282  0.1243
35028SOL    HW111945   3.971   2.725   1.714 -0.2954 -0.8749  1.7206
35028SOL    HW211946   4.080   2.624   1.743  0.8288  0.2096  1.3771
35029SOL     OW11947   2.119   7.945   9.304 -0.5444 -0.7091 -0.8566
35029SOL    HW111948   2.176   7.935   9.228 -0.5892  0.1863 -1.0162
35029SOL    HW211949   2.178   7.976   9.374 -0.4712 -1.6739 -0.4621
35030SOL     OW11950   2.824   4.455   3.504  0.2114 -0.2064  0.1693
35030SOL    HW111951   2.736   4.419   3.504  0.1297 -0.0780  1.7083
35030SOL    HW211952   2.824   4.520   3.575  1.0481  1.0607 -0.9427
35031SOL     OW11953   6.566   9.139  11.434  0.0206 -0.5948 -0.4870
35031SOL    HW111954   6.548   9.137  11.528 -1.3334 -0.9993 -0.7394
35031SOL    HW211955   6.573   9.233  11.414 -0.2838 -0.4832 -0.0961
35032SOL     OW11956   8.194  12.033   7.077 -0.0943 -0.4482 -0.1806
35032SOL    HW111957   8.204  11.959   7.136 -1.3372 -0.2964  0.2577
35032SOL    HW211958   8.100  12.052   7.078  0.1346  0.8293 -0.6485
35033SOL     OW11959  10.389   3.959   3.270  0.5712 -0.0592  0.5517
35033SOL    HW111960  10.348   3.872   3.274  0.2714 -0.0442 -1.3241
35033SOL    HW211961  10.320   4.019   3.297  0.8094 -0.3795  1.9638
35034SOL     OW11962  12.283   4.458   6.010 -0.7892  0.1475  0.4696
35034SOL    HW111963  12.203   4.493   5.970 -0.5728 -0.2621 -0.3471
35034SOL    HW211964  12.336   4.536   6.029 -1.2264  0.3970  0.6662
35035SOL     OW11965   6.794   4.547   9.851 -0.0358 -0.3615 -0.1688
35035SOL    HW111966   6.722   4.545   9.913  0.3113  0.5794  0.2902
35035SOL    HW211967   6.845   4.468   9.869 -0.9886 -1.0845 -0.5680
35036SOL     OW11968   0.133   2.570  10.776  0.2324 -0.7633 -0.4546
35036SOL    HW111969   0.131   2.476  10.756 -0.2299 -0.3479 -2.5762
35036SOL    HW211970   0.223   2.586  10.805  0.9169 -1.5168 -2.0516
35037SOL     OW11971  12.154  10.225  11.569 -0.6771  0.2326  0.2429
35037SOL    HW111972  12.232  10.277  11.548  0.5308 -0.9578  1.6196
35037SOL    HW211973  12.093  10.288  11.607  0.3170  0.8769  0.8200
35038SOL     OW11974   1.858   2.518   4.100 -0.1901  0.2719 -0.1340
35038SOL    HW111975   1.937   2.482   4.140  0.2301 -0.4636 -1.5351
35038SOL    HW211976   1.854   2.608   4.132  2.1416  0.8624 -1.2513
35039SOL     OW11977   3.511   5.863  10.037  0.3772  0.2377 -0.6874
35039SOL    HW111978   3.419   5.889  10.030  0.6571  0.8311 -3.2834
35039SOL    HW211979   3.509   5.767  10.029 -0.0151  0.2526 -0.7785
35040SOL     OW11980   6.830   1.755   4.537  0.1729  0.4367 -0.1470
35040SOL    HW111981   6.787   1.822   4.484  0.7717  0.8036 -0.1710
35040SOL    HW211982   6.760   1.693   4.558 -0.6811  1.6698  0.8570
35041SOL     OW11983   2.555  10.685   1.047 -0.2281  0.4086  0.5434
35041SOL    HW111984   2.511  10.696   1.132  1.4329  0.0187  1.4999
35041SOL    HW211985   2.547  10.771   1.005 -0.6960  0.7386  1.2738
35042SOL     OW11986   5.921  11.829   5.156  0.0475 -0.6767  0.0801
35042SOL    HW111987   5.870  11.889   5.211  1.0988  1.0846 -0.7477
35042SOL    HW211988   5.987  11.793   5.215  0.5178  0.3939  0.2311
35043SOL     OW11989   8.102  10.411  11.139 -0.4409  0.2606 -0.3197
35043SOL    HW111990   8.128  10.320  11.150  1.5431  0.8968  0.6957
35043SOL    HW211991   8.061  10.435  11.222 -1.2663  0.2184 -0.7052
35044SOL     OW11992   4.210   2.270  11.541  0.1319  0.1619 -0.4044
35044SOL    HW111993   4.153   2.285  11.466  2.1655 -1.2897 -2.4086
35044SOL    HW211994   4.153   2.231  11.607 -1.7253  1.3843 -1.1978
35045SOL     OW11995  11.804  11.222  11.753  0.0209  0.2743 -0.1974
35045SOL    HW111996  11.873  11.285  11.774  1.7599 -1.5563 -0.1387
35045SOL    HW211997  11.806  11.159  11.825 -0.5743 -0.7466 -1.0427
35046SOL     OW11998   3.934   6.792   7.176  0.6790  0.7013 -0.1608
35046SOL    HW111999   3.910   6.772   7.267 -1.1457  2.5919 -0.1569
35046SOL    HW212000   4.025   6.823   7.182  0.8617  0.0297  0.8798
35047SOL     OW12001  10.474   7.707   1.444 -0.0006 -0.0528 -0.5214
35047SOL    HW112002  10.430   7.700   1.529 -0.8027 -1.2738 -1.0011
35047SOL    HW212003  10.550   7.762   1.461  0.7671 -1.5533  1.3848
35048SOL     OW12004   5.865   5.707   8.216 -0.1137  0.1743 -0.7989
35048SOL    HW112005   5.958   5.731   8.221  0.0168 -0.4449 -0.0104
35048SOL    HW212006   5.850   5.687   8.124  0.3140  1.1220 -1.0903
35049SOL     OW12007   1.316   6.951   4.890 -0.6335 -0.4520 -0.3149
35049SOL    HW112008   1.266   6.870   4.899 -1.3823 -0.0990 -1.1626
35049SOL    HW212009   1.361   6.943   4.806 -1.5318  0.4270 -0.9037
35050SOL     OW12010   5.703   0.995   6.378 -0.1782  1.1342  0.2396
35050SOL    HW112011   5.613   1.002   6.346 -0.4050 -0.4460  0.4386
35050SOL    HW212012   5.748   1.070   6.340 -1.4481  1.6357 -0.3312
35051SOL     OW12013   9.470   3.952   2.199 -0.0439 -0.9118 -0.5968
35051SOL    HW112014   9.513   3.986   2.278  1.6622  0.0284 -1.8319
35051SOL    HW212015   9.380   3.934   2.225  0.5609 -0.9809  1.6317
35052SOL     OW12016   1.260   9.264   3.885  0.3635 -0.1635 -0.5259
35052SOL    HW112017   1.188   9.291   3.828 -0.6466 -0.2987  0.6664
35052SOL    HW212018   1.252   9.169   3.891  0.7120 -0.1894 -0.4642
35053SOL     OW12019   3.700  10.342   6.585 -0.0931  0.4107  0.0115
35053SOL    HW112020   3.686  10.280   6.656  0.7768  0.1542 -0.0276
35053SOL    HW212021   3.779  10.310   6.541  0.1912  1.3722 -0.1974
35054SOL     OW12022   0.501   5.056   0.617 -0.2492  0.0582  0.0243
35054SOL    HW112023   0.474   4.991   0.681  1.9090  0.4228  1.3872
35054SOL    HW212024   0.492   5.011   0.532 -0.0043 -1.5813  0.8305
35055SOL     OW12025  10.606  11.145  11.432  0.3622  0.0282 -0.3178
35055SOL    HW112026  10.570  11.056  11.441  1.2495 -0.3869 -0.7427
35055SOL    HW212027  10.541  11.201  11.473  0.8565 -1.0427  2.0650
35056SOL     OW12028   2.299   8.008   9.504  0.2744  0.4795 -0.4312
35056SOL    HW112029   2.394   8.000   9.513  0.3234  0.0203 -1.2191
35056SOL    HW212030   2.268   8.039   9.589  0.8623 -1.5538  0.5805
35057SOL     OW12031   7.617  10.270   4.903  0.4502 -0.6920  0.0362
35057SOL    HW112032   7.661  10.256   4.987 -0.1859 -2.1354  0.1623
35057SOL    HW212033   7.643  10.358   4.877  0.0226  0.1212  2.1395
35058SOL     OW12034   0.669   0.596   9.302 -0.4482 -0.2930  0.2265
35058SOL    HW112035   0.690   0.553   9.385 -0.4006 -1.4904 -0.3801
35058SOL    HW212036   0.741   0.574   9.244 -0.8699 -0.1393 -0.3718
35059SOL     OW12037   2.259   5.470   5.749 -0.3104  0.4024  0.0973
35059SOL    HW112038   2.305   5.394   5.784  1.9231  1.1478 -1.0027
35059SOL    HW212039   2.169   5.458   5.776 -0.2306 -3.0494 -0.6436
35060SOL     OW12040   7.165   1.633  10.775  0.3887  0.5850 -0.0937
35060SOL    HW112041   7.164   1.718  10.818  0.8205  0.5935 -0.0970
35060SOL    HW212042   7.231   1.583  10.822  0.5516  0.4460 -0.4645
35061SOL     OW12043  12.149   4.639   5.481  0.0585 -0.0610  0.2799
35061SOL    HW112044  12.156   4.600   5.568 -3.3471  1.7825  1.5792
35061SOL    HW212045  12.103   4.572   5.429 -1.9877  0.4725  1.2935
35062SOL     OW12046   4.755   8.436   9.588 -0.2072 -0.3697  0.1700
35062SOL    HW112047   4.795   8.468   9.669  0.2487 -0.0324 -0.1821
35062SOL    HW212048   4.664   8.464   9.593 -0.3105 -0.7896  0.7954
35063SOL     OW12049  10.769   5.795  10.025  0.1914  0.0800 -0.4225
35063SOL    HW112050  10.810   5.751   9.950  0.7035 -0.1588 -0.0135
35063SOL    HW212051  10.734   5.876   9.989  2.1185  0.9113 -0.5941
35064SOL     OW12052  12.335   7.036   5.912 -0.4981  0.4855 -0.3862
35064SOL    HW112053  12.382   6.962   5.950 -1.8019 -0.6818 -1.0124
35064SOL    HW212054  12.288   7.075   5.986  0.7320  1.1454  0.0792
35065SOL     OW12055   5.692   8.106   3.766 -0.1630 -0.0014  0.2118
35065SOL    HW112056   5.619   8.166   3.780 -0.9290 -0.6594 -0.7944
35065SOL    HW212057   5.709   8.110   3.672 -0.5235 -1.6507  0.0356
35066SOL     OW12058   7.530   7.853  12.462 -0.3027  0.2782 -0.1907
35066SOL    HW112059   7.569   7.910  12.395 -0.3738  0.0067 -0.4645
35066SOL    HW212060   7.436   7.857  12.445 -0.5697  2.1394  1.4121
35067SOL     OW12061   7.604  11.986  10.048  0.0114  0.4027 -0.2781
35067SOL    HW112062   7.558  12.048   9.991  1.3332  0.9342 -0.8079
35067SOL    HW212063   7.550  11.907  10.047 -1.8567  1.5864  0.6106
35068SOL     OW12064   9.218   8.938   0.647  0.0399  0.2227  0.3768
35068SOL    HW112065   9.205   8.995   0.723 -2.4483  1.8181 -1.0765
35068SOL    HW212066   9.297   8.971   0.604  0.4274  0.4803  1.2734
35069SOL     OW12067   4.821  12.176   2.571 -0.2656 -0.3226 -0.0400
35069SOL    HW112068   4.845  12.243   2.636 -0.9702 -0.0356 -0.0724
35069SOL    HW212069   4.902  12.125   2.559  0.4233  0.7884 -0.3365
35070SOL     OW12070   6.342  10.625   0.096  0.1328 -0.3470  0.2115
35070SOL    HW112071   6.427  10.644   0.136 -0.2371  0.0970  0.8092
35070SOL    HW212072   6.286  10.603   0.170  0.0562 -1.9469 -0.2992
35071SOL     OW12073   1.208  11.558   9.642  0.0156 -0.1628  0.3634
35071SOL    HW112074   1.275  11.625   9.658  0.7525 -0.5671 -0.8949
35071SOL    HW212075   1.196  11.559   9.547 -0.6242 -1.1947  0.4263
35072SOL     OW12076  10.009   4.789   8.013 -0.2359  0.4147 -0.0131
35072SOL    HW112077  10.020   4.801   8.108  1.4820  2.5972 -0.3941
35072SOL    HW212078   9.928   4.740   8.004 -0.4379  0.1302  2.5948
35073SOL     OW12079   5.324  11.674   5.054 -0.0337 -0.2051  0.0424
35073SOL    HW112080   5.262  11.648   4.986 -0.4125  1.2354 -0.1908
35073SOL    HW212081   5.275  11.663   5.136  0.1379 -1.1080  0.0398
35074SOL     OW12082   4.010   8.811   5.950 -0.6236  0.8732 -0.2759
35074SOL    HW112083   4.054   8.737   5.992 -1.2154  2.0055  2.6112
35074SOL    HW212084   3.922   8.779   5.930 -0.7243  0.6489  0.5024
35075SOL     OW12085  10.467   0.129   6.673 -0.0949  0.5729  0.1825
35075SOL    HW112086  10.433   0.114   6.584  3.4474 -1.2277 -1.0888
35075SOL    HW212087  10.524   0.205   6.664  1.8667 -0.7989  0.2762
35076SOL     OW12088   9.226   6.054  10.271 -0.4525  0.3100 -0.4250
35076SOL    HW112089   9.131   6.052  10.265 -0.5332  0.6098  0.6268
35076SOL    HW212090   9.255   5.976  10.223 -1.0417  1.9109 -3.6843
35077SOL     OW12091   3.114  11.366   8.537 -0.1414 -0.0717  0.3446
35077SOL    HW112092   3.141  11.287   8.583  1.0884  0.2424  0.1990
35077SOL    HW212093   3.166  11.366   8.457  0.8757  1.5121  0.9449
35078SOL     OW12094   9.628   5.255   9.774  0.5358 -0.8317 -0.2543
35078SOL    HW112095   9.688   5.209   9.833  0.0985 -1.4568 -0.2905
35078SOL    HW212096   9.578   5.185   9.732 -1.4071 -0.2878  1.0219
35079SOL     OW12097   1.857   0.651  11.913 -0.3632 -0.5486  0.2918
35079SOL    HW112098   1.763   0.636  11.906 -0.2234 -1.2830 -0.0478
35079SOL    HW212099   1.884   0.676  11.824 -0.3882  0.6020  0.5890
35080SOL     OW12100  10.622   6.787   1.061  0.4090 -0.1394 -0.7924
35080SOL    HW112101  10.704   6.833   1.043  1.1836 -1.1849 -0.0247
35080SOL    HW212102  10.641   6.695   1.041 -0.1671 -0.5914  0.6377
35081SOL     OW12103  10.436   7.336   9.745 -0.2056 -0.2036  0.1992
35081SOL    HW112104  10.498   7.300   9.683  1.7361  0.2393  1.7951
35081SOL    HW212105  10.383   7.397   9.694  0.6897 -0.5442 -1.1759
35082SOL     OW12106  10.728   9.875   5.520  0.1181 -0.8375 -0.0859
35082SOL    HW112107  10.794   9.859   5.587  0.2874 -2.6366 -0.6308
35082SOL    HW212108  10.779   9.898   5.442 -0.0970  2.0828  0.5126
35083SOL     OW12109   5.252  10.192   6.061 -0.3159  0.4268  0.1544
35083SOL    HW112110   5.213  10.280   6.057 -0.6293  0.2866  0.0779
35083SOL    HW212111   5.186  10.136   6.020 -0.3522  0.0749  0.6873
35084SOL     OW12112   7.930   8.188   8.263 -0.3465 -0.7365  0.1683
35084SOL    HW112113   8.011   8.141   8.283  1.3266  1.3802 -1.0965
35084SOL    HW212114   7.894   8.141   8.188 -0.4314 -1.8202  0.8622
35085SOL     OW12115  12.365   9.016   3.296  0.6500  0.0004  0.1600
35085SOL    HW112116  12.328   8.982   3.214 -1.3412  1.1285  0.5244
35085SOL    HW212117  12.329   8.959   3.363  1.1496 -0.0574  0.3809
35086SOL     OW12118   2.128  11.265   0.929 -0.4099 -0.1102 -0.0598
35086SOL    HW112119   2.181  11.240   1.005 -0.8342 -2.8098 -0.5685
35086SOL    HW212120   2.041  11.280   0.965 -1.3701 -4.2198 -0.1751
35087SOL     OW12121  11.170   3.655   9.261  0.3500  0.4945  0.2030
35087SOL    HW112122  11.130   3.718   9.201  0.9465 -0.1686 -0.9330
35087SOL    HW212123  11.257   3.690   9.279  0.3955  0.3921  0.1862
35088SOL     OW12124   3.120   3.943   0.614  0.1214  0.1024  0.1660
35088SOL    HW112125   3.111   3.890   0.693 -1.8879  0.3115  0.1319
35088SOL    HW212126   3.169   3.888   0.553  1.5015 -0.1404  1.4582
35089SOL     OW12127   3.303  12.370   7.000  0.4713 -0.6986 -0.1585
35089SOL    HW112128   3.389  12.336   7.025  0.5881 -1.9360 -2.0164
35089SOL    HW212129   3.265  12.302   6.944  0.0438  1.4951 -2.7952
35090SOL     OW12130  10.533  12.038   9.749 -0.5192 -0.0423  0.0401
35090SOL    HW112131  10.622  12.040   9.714 -0.5666  0.5569 -0.0651
35090SOL    HW212132  10.540  11.988   9.830  0.4268  2.0282  1.3261
35091SOL     OW12133  10.214   9.697   8.417 -0.1140  0.2070  0.6398
35091SOL    HW112134  10.253   9.610   8.402  0.0199  0.4187 -0.3257
35091SOL    HW212135  10.216   9.739   8.331 -0.5517  1.0204  1.0157
35092SOL     OW12136   1.239   5.928   2.252 -0.2804  0.4302  0.4496
35092SOL    HW112137   1.181   5.865   2.210 -1.6897  2.2214 -0.4215
35092SOL    HW212138   1.317   5.932   2.195  0.2594 -1.1742  1.0341
35093SOL     OW12139   2.831   2.304   0.653  0.3491  0.0063  0.2327
35093SOL    HW112140   2.793   2.284   0.738  1.2294 -1.7056  0.2617
35093SOL    HW212141   2.802   2.233   0.596 -1.1349  1.6877 -1.2407
35094SOL     OW12142  11.579   7.387  12.313  0.0665  0.1767 -0.5615
35094SOL    HW112143  11.620   7.301  12.304  0.8092  0.5355 -0.6775
35094SOL    HW212144  11.651   7.447  12.331 -0.3931  0.8481 -0.8818
35095SOL     OW12145   7.092   8.830  10.914  0.7395  0.6247 -0.5794
35095SOL    HW112146   7.183   8.839  10.889  1.1490  0.0325  0.6080
35095SOL    HW212147   7.093   8.823  11.010 -0.6740  2.0170 -0.4053
35096SOL     OW12148   1.941   1.209  11.956  0.2575  0.0391  0.3505
35096SOL    HW112149   1.925   1.231  11.864 -0.1794  1.7540  0.7907
35096SOL    HW212150   1.864   1.159  11.983  1.3027 -2.2573 -0.7123
35097SOL     OW12151   5.212  10.746  12.337  0.0488 -0.0762  0.7324
35097SOL    HW112152   5.298  10.789  12.339  0.5097 -0.9488  0.2296
35097SOL    HW212153   5.151  10.818  12.321  0.4200  0.8985  3.1818
35098SOL     OW12154  11.063   7.252  11.955  0.0911 -1.1151  0.3036
35098SOL    HW112155  11.084   7.267  12.047 -1.3201  0.0237  0.4832
35098SOL    HW212156  11.083   7.335  11.912  1.6149 -1.9174 -0.6261
35099SOL     OW12157  12.464   8.070   2.188  0.1732 -0.2846 -0.9961
35099SOL    HW112158  12.500   7.985   2.214  0.2695  0.4003  1.3252
35099SOL    HW212159  12.402   8.092   2.257 -0.1642  1.3620 -1.7812
35100SOL     OW12160   6.567   5.626   7.883 -0.3642  0.2543 -0.1025
35100SOL    HW112161   6.522   5.709   7.902 -0.1266  0.6984 -1.3972
35100SOL    HW212162   6.655   5.638   7.919 -0.4936  0.3620  0.1796
35101SOL     OW12163  11.119  11.026  11.214  0.3451 -0.8156  0.1539
35101SOL    HW112164  11.062  11.048  11.287 -2.4677 -1.0745 -1.8370
35101SOL    HW212165  11.125  10.931  11.216 -0.7090 -0.9137 -0.5860
35102SOL     OW12166  10.798  11.543   8.509 -0.0355 -0.0151 -0.1917
35102SOL    HW112167  10.861  11.603   8.550 -1.9357  1.8965  0.0603
35102SOL    HW212168  10.800  11.566   8.416  0.0829 -0.3975 -0.2863
35103SOL     OW12169  12.243   8.082   3.282  0.5219  0.0421 -0.0743
35103SOL    HW112170  12.292   8.016   3.332 -1.3297  0.9167  3.1271
35103SOL    HW212171  12.152   8.068   3.306 -0.0935  2.7477 -0.4921
35104SOL     OW12172   9.700   4.414   0.027 -0.3375 -0.5169 -0.5376
35104SOL    HW112173   9.794   4.433   0.027 -0.5197  0.4563 -0.9393
35104SOL    HW212174   9.669   4.442   0.113 -0.5815  1.0037 -1.0817
35105SOL     OW12175   9.761   4.727   0.803 -0.0311 -0.0621  0.2682
35105SOL    HW112176   9.786   4.789   0.735 -0.9918 -0.8445 -0.8261
35105SOL    HW212177   9.767   4.777   0.885 -1.1348  1.5774 -0.6114
35106SOL     OW12178   6.486  12.324   5.611 -0.5000 -0.0117  0.9919
35106SOL    HW112179   6.490  12.417   5.635 -1.8205  0.0583  1.0098
35106SOL    HW212180   6.392  12.307   5.598 -0.1984 -1.1391  0.1780
35107SOL     OW12181   1.918   6.404   8.348  0.1616 -0.4350 -0.0167
35107SOL    HW112182   1.960   6.479   8.307  0.3244 -0.6264 -0.1992
35107SOL    HW212183   1.826   6.431   8.358  0.0122 -0.5669 -0.9382
35108SOL     OW12184   6.531   1.616   1.294 -0.6555  0.3150  0.4959
35108SOL    HW112185   6.467   1.556   1.254  0.1031 -1.5766  1.9650
35108SOL    HW212186   6.516   1.700   1.249 -0.4946 -1.3618 -3.0666
35109SOL     OW12187  12.243   7.112  11.536  0.2475  0.7209 -0.1426
35109SOL    HW112188  12.219   7.099  11.444 -1.9180  2.5129  0.0725
35109SOL    HW212189  12.266   7.205  11.541  0.4179  0.6243  1.1188
35110SOL     OW12190   7.807   8.512   2.064  0.4377  0.6425 -0.7065
35110SOL    HW112191   7.764   8.568   2.129 -0.7489 -0.8912 -0.1137
35110SOL    HW212192   7.741   8.447   2.041  1.7678 -0.5205 -1.3765
35111SOL     OW12193   3.110  12.357   9.564 -0.7840 -0.0504 -0.3500
35111SOL    HW112194   3.179  12.410   9.605 -2.1914  1.4399  0.1800
35111SOL    HW212195   3.077  12.302   9.635 -0.6407 -0.2367 -0.4269
35112SOL     OW12196  10.036   3.817   4.877 -0.3040 -0.1319 -0.4619
35112SOL    HW112197  10.043   3.731   4.837 -3.9541 -1.2194  0.8345
35112SOL    HW212198  10.109   3.821   4.939  1.5311 -1.0902 -2.4436
35113SOL     OW12199   9.876   3.111   4.048 -0.3800  0.3714 -0.4070
35113SOL    HW112200   9.784   3.124   4.024 -0.9149 -0.7448  0.9200
35113SOL    HW212201   9.909   3.049   3.984 -0.7516  0.2167 -0.4489
35114SOL     OW12202   6.073   4.693   3.461  0.6654  0.2965  0.2284
35114SOL    HW112203   6.038   4.690   3.372 -0.7279 -2.8976  0.7285
35114SOL    HW212204   5.996   4.692   3.518  1.5201 -0.2006  1.4291
35115SOL     OW12205   2.229   7.404   1.328 -0.2383  0.1453 -0.4415
35115SOL    HW112206   2.313   7.377   1.365 -0.0092  0.6395 -0.5910
35115SOL    HW212207   2.244   7.405   1.233 -0.1319  1.1223 -0.4262
35116SOL     OW12208   0.228  11.604   3.015 -0.0191 -0.0804  0.1141
35116SOL    HW112209   0.215  11.521   3.060 -0.4930  0.2988  0.6950
35116SOL    HW212210   0.191  11.591   2.928  0.9645 -0.8430 -0.1984
35117SOL     OW12211   8.455   0.449  12.466  0.6149  0.3213 -0.2920
35117SOL    HW112212   8.513   0.419  12.535 -0.0293 -0.2037  0.0242
35117SOL    HW212213   8.428   0.537  12.494  0.8889  0.3834 -0.2178
35118SOL     OW12214   9.517   6.822   0.918  0.0585  0.0237 -0.4963
35118SOL    HW112215   9.541   6.758   0.851  0.3735 -0.1043 -0.2607
35118SOL    HW212216   9.446   6.873   0.878  0.9478  0.6439 -1.3337
35119SOL     OW12217   8.224   5.530   9.950 -0.7069 -0.2631 -0.1095
35119SOL    HW112218   8.260   5.589  10.017 -0.1730  0.9277 -1.4024
35119SOL    HW212219   8.161   5.585   9.903  0.0946 -0.5965 -1.6030
35120SOL     OW12220   6.471   8.824  12.079 -0.0626  0.5261 -0.0795
35120SOL    HW112221   6.464   8.747  12.023 -1.7566  0.4937  0.1152
35120SOL    HW212222   6.546   8.805  12.136 -0.3403 -0.9032 -0.1487
35121SOL     OW12223   2.888   8.224   2.072  0.3447 -0.1553  0.8664
35121SOL    HW112224   2.798   8.250   2.054  0.2830 -0.0769  1.2827
35121SOL    HW212225   2.911   8.165   1.999  0.4437  0.9371 -0.0102
35122SOL     OW12226   0.718   2.331  10.979  0.6926  0.3615  0.1689
35122SOL    HW112227   0.657   2.396  11.016 -0.6179 -1.3207  1.1187
35122SOL    HW212228   0.773   2.306  11.052  0.3473 -0.5020  0.1434
35123SOL     OW12229  11.899   5.308  11.611 -0.0891  0.3765 -0.7654
35123SOL    HW112230  11.974   5.354  11.648 -0.7171  1.7216 -1.1015
35123SOL    HW212231  11.937   5.237  11.560  0.8262 -0.6833  1.3127
35124SOL     OW12232   2.155   6.034   6.146 -0.2469  0.0229 -0.1953
35124SOL    HW112233   2.248   6.011   6.150 -0.1989  0.3136  0.3543
35124SOL    HW212234   2.133   6.027   6.053  0.1288 -0.8222 -0.2283
35125SOL     OW12235   9.047   0.905   0.316  0.0805 -0.5188  0.1092
35125SOL    HW112236   9.116   0.846   0.347  0.6488  0.2174  0.2780
35125SOL    HW212237   8.982   0.847   0.276  0.2778 -1.3157  0.9073
35126SOL     OW12238   2.945   1.814   0.397 -0.2525 -0.1430  1.1749
35126SOL    HW112239   2.994   1.740   0.361 -0.8471  0.1386 -0.2802
35126SOL    HW212240   3.013   1.875   0.427  0.2716 -0.3482  0.4362
35127SOL     OW12241   4.151   3.176   9.212 -0.4284  0.1739  0.2344
35127SOL    HW112242   4.218   3.244   9.219 -0.4522  0.1121  1.1339
35127SOL    HW212243   4.071   3.217   9.246 -0.7664  0.1218 -0.4734
35128SOL     OW12244   8.902   9.314   4.180 -0.7208 -0.0182  0.4227
35128SOL    HW112245   8.835   9.313   4.248 -0.1959  0.1348  0.9527
35128SOL    HW212246   8.859   9.355   4.105 -1.8309 -1.6751  0.1013
35129SOL     OW12247  10.080   5.744   4.219 -0.3346  0.6588 -0.5709
35129SOL    HW112248  10.169   5.758   4.253 -0.8095  1.7301  0.3091
35129SOL    HW212249  10.060   5.824   4.171 -1.2875  1.0050  0.3535
35130SOL     OW12250   0.188   6.348   4.866  0.3399  0.7006  0.2168
35130SOL    HW112251   0.179   6.330   4.772 -0.0069 -0.2057  0.4125
35130SOL    HW212252   0.262   6.294   4.893  1.8736  2.6224  0.0527
35131SOL     OW12253   3.806   3.977   8.960 -0.3122 -0.5579  0.1012
35131SOL    HW112254   3.841   3.903   8.910  0.1477 -0.3808  0.1570
35131SOL    HW212255   3.844   3.968   9.047 -0.8536 -0.6783  0.3294
35132SOL     OW12256   8.290   4.446   4.692 -0.3545  0.3608 -0.2211
35132SOL    HW112257   8.331   4.360   4.683  2.2847  1.4828  0.1189
35132SOL    HW212258   8.244   4.441   4.776  1.4345 -0.1493  0.7914
35133SOL     OW12259   9.779   7.032   9.190 -0.0423  0.5593 -0.6757
35133SOL    HW112260   9.692   7.027   9.151  0.8841 -1.2792 -2.7027
35133SOL    HW212261   9.783   6.958   9.250 -0.8199  2.3511  1.7824
35134SOL     OW12262   2.515   1.005  12.035  0.5640  0.4559 -0.3281
35134SOL    HW112263   2.445   0.967  12.088  0.1775  2.0076  0.3312
35134SOL    HW212264   2.584   0.938  12.035 -1.5435 -1.8770 -2.5111
35135SOL     OW12265   0.890  11.537   1.647  0.0996  0.2537  0.0772
35135SOL    HW112266   0.917  11.452   1.611  0.5058  1.4221 -2.6149
35135SOL    HW212267   0.955  11.555   1.716  1.1680 -0.7559 -0.6213
35136SOL     OW12268   9.351   4.400   3.300 -0.2346 -0.0060 -0.5233
35136SOL    HW112269   9.281   4.463   3.314 -1.0452 -0.7382 -1.2126
35136SOL    HW212270   9.356   4.350   3.381 -0.4255  0.1137 -0.4386
35137SOL     OW12271   0.011  10.606   2.064  0.0590  0.3411 -0.7000
35137SOL    HW112272   0.066  10.592   1.987 -1.3281  2.1642 -2.1478
35137SOL    HW212273   0.035  10.693   2.095 -0.4612  0.2460 -0.0033
35138SOL     OW12274   7.760   9.125  10.869 -0.4185 -0.3952  0.1279
35138SOL    HW112275   7.820   9.179  10.919 -0.7947 -0.8761  1.1345
35138SOL    HW212276   7.792   9.035  10.880  0.4649 -0.3880 -1.8904
35139SOL     OW12277  12.399   5.935   0.346  0.4938 -0.3440  1.2709
35139SOL    HW112278  12.429   5.854   0.388 -1.2828 -1.7019  0.0763
35139SOL    HW212279  12.475   5.965   0.295  0.5870 -2.5145 -0.0273
35140SOL     OW12280  11.470   6.771  10.504  0.2955  0.0766 -0.1811
35140SOL    HW112281  11.391   6.728  10.538 -0.4723  1.5115 -0.0897
35140SOL    HW212282  11.490   6.839  10.568  1.0127  0.3806 -0.7174
35141SOL     OW12283   3.728  11.350   7.979 -0.5330  0.3828 -0.4271
35141SOL    HW112284   3.674  11.364   8.057 -0.9982 -0.4805 -0.5874
35141SOL    HW212285   3.785  11.276   8.002 -0.5212  0.2672 -0.8265
35142SOL     OW12286   8.572   7.212   8.131 -0.3287  0.6381 -0.3799
35142SOL    HW112287   8.555   7.221   8.038  0.4306  3.3928 -0.3356
35142SOL    HW212288   8.496   7.250   8.174 -0.8506 -0.9676  0.1686
35143SOL     OW12289   6.896   3.936   0.621 -0.9723 -0.0885  0.2704
35143SOL    HW112290   6.875   3.862   0.563 -1.2313 -0.6300  1.0321
35143SOL    HW212291   6.902   4.011   0.563 -2.5136 -0.3811 -0.3176
35144SOL     OW12292   4.810   8.656   0.977 -0.0258 -0.2692  0.3633
35144SOL    HW112293   4.812   8.749   0.957  0.7075  0.1231  2.0860
35144SOL    HW212294   4.874   8.645   1.047 -0.6407 -1.9383  0.7108
35145SOL     OW12295   5.320   6.904   9.420 -0.3781 -0.1552  0.1551
35145SOL    HW112296   5.337   6.985   9.371 -1.6057 -0.6219 -1.1003
35145SOL    HW212297   5.334   6.929   9.511  2.7660  0.5430 -0.3807
35146SOL     OW12298   5.193   7.928   5.539 -0.0024  0.3134  0.1354
35146SOL    HW112299   5.196   8.023   5.548  2.1223  0.3686 -0.5032
35146SOL    HW212300   5.185   7.913   5.445  0.6376 -0.1148  0.1414
35147SOL     OW12301   5.113  10.964   8.303  0.0641  0.4660 -0.0079
35147SOL    HW112302   5.079  10.915   8.378 -0.5938 -0.0920 -0.6466
35147SOL    HW212303   5.186  10.911   8.270  0.1781  0.5731  0.0707
35148SOL     OW12304   6.048   7.331   5.915  0.8135  0.1698  0.0225
35148SOL    HW112305   6.081   7.328   5.825  1.0296  0.5661  0.0853
35148SOL    HW212306   6.072   7.419   5.946 -0.8744  0.7322 -0.1461
35149SOL     OW12307   5.237   1.214   5.288 -0.4975 -0.6321 -0.3853
35149SOL    HW112308   5.232   1.135   5.233 -1.8423 -0.3934 -0.6305
35149SOL    HW212309   5.284   1.278   5.234  0.2382 -1.1229 -0.3421
35150SOL     OW12310   4.929  11.799   2.559 -0.1275  0.0241 -0.3420
35150SOL    HW112311   4.926  11.744   2.481 -1.4737 -0.9780  0.3870
35150SOL    HW212312   4.984  11.873   2.534  0.6392 -0.9943 -1.7670
35151SOL     OW12313   0.891  10.276   9.380 -0.0530 -0.2360 -0.1270
35151SOL    HW112314   0.863  10.198   9.333 -0.0661  0.4451 -1.2941
35151SOL    HW212315   0.944  10.325   9.317  2.4354 -0.6682  1.4737
35152SOL     OW12316   4.721  11.061  10.738 -0.3599 -0.0347 -0.3094
35152SOL    HW112317   4.677  11.126  10.793 -1.0038 -0.2973 -0.5123
35152SOL    HW212318   4.689  11.079  10.650 -0.5895 -0.6739 -0.3570
35153SOL     OW12319   0.816   5.537  10.809 -0.0958  0.0058  0.4602
35153SOL    HW112320   0.772   5.608  10.856  0.5468  1.6053 -1.2309
35153SOL    HW212321   0.782   5.457  10.849 -1.8437  1.2282  1.5603
35154SOL     OW12322   4.389   2.887   4.711 -0.3752  0.3510  0.4011
35154SOL    HW112323   4.294   2.875   4.709 -0.2574 -0.5835 -0.2208
35154SOL    HW212324   4.401   2.982   4.714 -1.3385  0.4687  2.0982
35155SOL     OW12325   6.397   8.377   5.362 -0.1866 -0.0485 -0.3708
35155SOL    HW112326   6.369   8.326   5.286  0.2253 -0.0412 -0.5284
35155SOL    HW212327   6.420   8.311   5.428  1.4446 -0.1191 -0.9584
35156SOL     OW12328   9.468   9.175  11.435 -0.1641  0.1285 -0.8034
35156SOL    HW112329   9.404   9.238  11.468 -0.2064 -0.3172 -0.0035
35156SOL    HW212330   9.552   9.219  11.443 -0.0847 -0.2156  0.6159
35157SOL     OW12331   4.691  10.057  12.435  0.0714 -0.6923 -0.3007
35157SOL    HW112332   4.724  10.119  12.370 -0.3162 -0.9741 -0.7800
35157SOL    HW212333   4.692  10.105  12.517 -1.8793  0.5385 -0.9443
35158SOL     OW12334  11.566   3.517   0.396 -0.1521  0.5271 -0.0524
35158SOL    HW112335  11.484   3.560   0.420 -1.3464 -1.7159  0.2596
35158SOL    HW212336  11.542   3.460   0.322  0.5894 -1.6040  1.2412
35159SOL     OW12337   6.239   8.031  12.260  0.2742 -0.1906 -0.0964
35159SOL    HW112338   6.234   8.053  12.167 -1.1209  2.2007  0.4649
35159SOL    HW212339   6.330   8.007  12.274  0.8050  0.6315 -1.8488
35160SOL     OW12340   7.896   4.048   0.802 -0.4571  0.1939  0.0361
35160SOL    HW112341   7.858   4.045   0.890 -3.4400  0.6536 -1.0989
35160SOL    HW212342   7.925   4.139   0.792  2.0676 -0.3913  1.2642
35161SOL     OW12343   7.847   2.807  11.317  0.1567 -0.1772 -0.0236
35161SOL    HW112344   7.807   2.742  11.373  1.2246 -2.2016 -1.4767
35161SOL    HW212345   7.791   2.809  11.239  1.0795 -0.6783 -0.7184
35162SOL     OW12346   8.760  11.152   6.006 -0.2080 -0.3734 -0.2312
35162SOL    HW112347   8.693  11.118   6.066 -2.1357  1.5351 -1.1380
35162SOL    HW212348   8.818  11.204   6.061  0.2983 -1.6981  0.5149
35163SOL     OW12349   9.736   5.382   4.353 -0.0439 -0.5137  0.0418
35163SOL    HW112350   9.779   5.337   4.279  0.1278 -0.9470  0.3955
35163SOL    HW212351   9.708   5.466   4.317  2.5623  0.5220  0.1745
35164SOL     OW12352  11.933   8.578   9.527  0.2754  0.4520  0.4745
35164SOL    HW112353  11.852   8.621   9.555 -0.0964 -0.2156  0.4388
35164SOL    HW212354  11.999   8.608   9.590  0.1499  1.5091  0.1183
35165SOL     OW12355   8.871  11.482   5.961  0.1164  0.0594  0.5200
35165SOL    HW112356   8.848  11.542   6.031  0.4364 -0.1139  0.7787
35165SOL    HW212357   8.796  11.423   5.954  0.1620 -0.0383  0.8416
35166SOL     OW12358   7.134   3.611   6.967 -0.3111 -0.0252  0.0115
35166SOL    HW112359   7.069   3.665   7.012 -0.9233  0.0032 -0.8887
35166SOL    HW212360   7.104   3.607   6.876  1.1370  0.2822 -0.5108
35167SOL     OW12361  10.408   5.586   5.809 -0.4469  0.3284 -0.1719
35167SOL    HW112362  10.386   5.679   5.814  1.8421  0.8800  1.1340
35167SOL    HW212363  10.341   5.543   5.862 -1.2031  1.2898 -0.3027
35168SOL     OW12364   8.089   3.270   1.573  0.0610  0.6651 -0.3338
35168SOL    HW112365   8.036   3.190   1.575  0.7345  0.0758 -2.5648
35168SOL    HW212366   8.180   3.238   1.574  0.3374  1.3828 -0.9971
35169SOL     OW12367   8.069  10.671   9.691 -0.0222 -0.1787 -0.7090
35169SOL    HW112368   8.124  10.660   9.769  1.3047 -0.3991 -1.6341
35169SOL    HW212369   7.988  10.710   9.724  1.0741  1.1380  0.5815
35170SOL     OW12370   3.964   4.886  10.063 -0.7795 -0.7020 -0.1308
35170SOL    HW112371   4.041   4.833  10.083 -0.9481 -0.6212  0.7622
35170SOL    HW212372   3.941   4.927  10.146  0.6342  2.5206 -1.1863
35171SOL     OW12373   5.529   3.907   9.814 -0.0992  0.5020 -0.3799
35171SOL    HW112374   5.481   3.933   9.735  1.1126 -0.3479 -1.4267
35171SOL    HW212375   5.600   3.852   9.782  0.7196  0.5442  1.2725
35172SOL     OW12376   6.538   3.349   9.236 -0.0443 -0.6043 -0.0248
35172SOL    HW112377   6.556   3.344   9.142  1.2529  1.7901  0.0208
35172SOL    HW212378   6.459   3.403   9.243 -0.4267 -1.1882  0.2667
35173SOL     OW12379  12.350   0.715   0.501 -0.2237 -0.3415 -0.1303
35173SOL    HW112380  12.325   0.731   0.592  0.5437  0.6845 -0.0891
35173SOL    HW212381  12.308   0.631   0.480 -1.6973  0.1404  0.6781
35174SOL     OW12382   2.315   1.177  10.755  0.0764  0.2491  0.4185
35174SOL    HW112383   2.251   1.240  10.789 -1.0550  0.0517 -1.2800
35174SOL    HW212384   2.372   1.229  10.698  0.2049  0.0428  0.3565
35175SOL     OW12385   0.784   9.119   8.773 -0.1019  0.0917  0.1111
35175SOL    HW112386   0.853   9.180   8.801  0.4963 -0.0602 -0.9841
35175SOL    HW212387   0.789   9.047   8.836 -0.7845  1.1201  1.3930
35176SOL     OW12388   7.870   0.724   1.673 -0.0133  0.0209  0.2129
35176SOL    HW112389   7.775   0.738   1.674 -0.1922 -0.7559 -1.4617
35176SOL    HW212390   7.897   0.750   1.585  0.5886 -3.7851 -0.9197
35177SOL     OW12391  10.290   1.152   3.270  0.1730  0.3471  0.4631
35177SOL    HW112392  10.371   1.147   3.319  0.6489 -0.4373 -0.3736
35177SOL    HW212393  10.248   1.232   3.300  0.8216  0.2933  1.5539
35178SOL     OW12394  10.722   8.345   8.602 -0.0976 -0.1421  0.5326
35178SOL    HW112395  10.723   8.252   8.625 -0.9649  0.0589  1.4654
35178SOL    HW212396  10.747   8.390   8.683  0.4192  0.4373  0.0600
35179SOL     OW12397   7.215   8.206  10.812 -0.3536  0.0888  0.0648
35179SOL    HW112398   7.164   8.279  10.847 -0.3205 -0.1761  0.6702
35179SOL    HW212399   7.186   8.130  10.862 -0.2625 -0.2886 -0.4445
35180SOL     OW12400   6.629   2.821  11.688  0.2760 -0.2864 -0.1996
35180SOL    HW112401   6.667   2.886  11.630 -0.5764 -0.0419 -0.4986
35180SOL    HW212402   6.653   2.737  11.649  1.3471 -0.1664  0.1692
35181SOL     OW12403   9.848   3.822   5.624  0.2199 -0.6331 -0.0217
35181SOL    HW112404   9.938   3.850   5.611  0.3193 -1.4838 -1.4092
35181SOL    HW212405   9.847   3.731   5.593 -1.7409  0.2403 -2.8472
35182SOL     OW12406   0.736   2.754   4.392 -0.0890  0.2191 -0.0792
35182SOL    HW112407   0.790   2.730   4.468 -0.4756  1.4470  0.6115
35182SOL    HW212408   0.769   2.699   4.321  3.1824  1.9702 -0.1142
35183SOL     OW12409  10.421   5.687   3.715 -0.7055 -0.2444  0.1181
35183SOL    HW112410  10.418   5.721   3.625  0.6947  0.8137  0.4217
35183SOL    HW212411  10.461   5.601   3.707  0.1297  0.1621 -0.2212
35184SOL     OW12412  11.289   2.619   7.343 -0.0001  0.2629  0.4985
35184SOL    HW112413  11.302   2.667   7.261  0.2628  1.4815  1.2266
35184SOL    HW212414  11.368   2.637   7.394 -1.2706  1.7265  2.0666
35185SOL     OW12415   6.573   3.429   3.094 -0.4955 -0.0328  0.4417
35185SOL    HW112416   6.620   3.511   3.106  1.4768 -1.3533  2.5210
35185SOL    HW212417   6.617   3.387   3.019  1.9478 -1.3132  2.4439
35186SOL     OW12418   9.014   0.770   9.620  0.4553  0.1924  0.1657
35186SOL    HW112419   8.956   0.818   9.680 -0.1572  0.5085 -0.6608
35186SOL    HW212420   9.018   0.824   9.542  0.7383 -0.5134 -0.3209
35187SOL     OW12421   5.358   6.606  12.390  0.6507  1.0087  0.2624
35187SOL    HW112422   5.305   6.665  12.443 -0.0466  0.2610  0.4048
35187SOL    HW212423   5.297   6.570  12.325  0.9585  0.1004  0.4608
35188SOL     OW12424   4.846   2.554   7.909  0.0941  0.4540  0.2333
35188SOL    HW112425   4.936   2.558   7.879  0.0312 -0.0165 -0.0406
35188SOL    HW212426   4.804   2.632   7.873  0.2759  0.4263 -0.0411
35189SOL     OW12427   5.064   1.173  11.251 -0.7155 -0.7234 -0.3104
35189SOL    HW112428   5.006   1.112  11.296 -0.9673 -0.5352 -0.3784
35189SOL    HW212429   5.119   1.209  11.321 -1.1932 -0.3346 -0.1274
35190SOL     OW12430   0.161   0.150   3.593 -0.2716  0.3901  0.5895
35190SOL    HW112431   0.137   0.074   3.540 -0.5563  1.3001 -0.6419
35190SOL    HW212432   0.085   0.208   3.586  0.4144  1.3008  0.5114
35191SOL     OW12433   3.412   3.547   5.340 -0.2833  0.1456 -0.3511
35191SOL    HW112434   3.456   3.498   5.410 -1.2203 -0.2208  0.0024
35191SOL    HW212435   3.345   3.487   5.308  0.6410  0.0016 -2.1268
35192SOL     OW12436   8.371   3.207   1.454 -0.2309  0.0077  0.1157
35192SOL    HW112437   8.325   3.270   1.398  0.5228  0.5506  0.0871
35192SOL    HW212438   8.351   3.122   1.416 -0.9337  0.2592 -0.0931
35193SOL     OW12439   0.852   8.924   0.846 -0.1579  0.7724 -0.6706
35193SOL    HW112440   0.900   8.988   0.898  1.0527  1.3823 -2.4358
35193SOL    HW212441   0.848   8.846   0.901  0.2200  1.6790  0.6845
35194SOL     OW12442   3.022   9.784   5.446 -0.1566  0.3318  0.5086
35194SOL    HW112443   2.977   9.811   5.366 -1.0490 -0.3436  0.7632
35194SOL    HW212444   3.038   9.866   5.493 -2.0798  0.5577  0.8841
35195SOL     OW12445   5.279   3.733   5.379 -0.0438 -0.0921  0.1177
35195SOL    HW112446   5.330   3.735   5.460  0.3881 -0.3392 -0.1494
35195SOL    HW212447   5.256   3.825   5.363  1.5412  0.2164 -0.5310
35196SOL     OW12448   2.190   4.665   7.691 -0.2243  0.5089  0.1447
35196SOL    HW112449   2.221   4.577   7.670 -0.0128  1.0717 -2.2402
35196SOL    HW212450   2.255   4.700   7.751  1.0648 -0.0956 -0.8451
35197SOL     OW12451   2.403   4.791   8.620 -0.1470  0.0198  0.1772
35197SOL    HW112452   2.317   4.813   8.654 -0.5465 -2.4642  0.9502
35197SOL    HW212453   2.464   4.826   8.685 -0.6713 -0.0868  0.7355
35198SOL     OW12454   0.637  10.396   3.069  0.0875 -0.1625 -0.2137
35198SOL    HW112455   0.613  10.374   2.979 -1.7363 -0.0492  0.2227
35198SOL    HW212456   0.557  10.431   3.109  1.3023  1.5054  0.9403
35199SOL     OW12457   1.142   5.882   4.028  0.1884 -0.5793  0.1250
35199SOL    HW112458   1.138   5.797   3.985 -0.3725 -0.3822 -0.2196
35199SOL    HW212459   1.206   5.870   4.099  0.0103 -1.3244  0.1672
35200SOL     OW12460   6.052   8.125   2.468 -0.0294 -0.1476 -0.5467
35200SOL    HW112461   6.009   8.172   2.539 -1.2259  0.2096 -1.4705
35200SOL    HW212462   6.145   8.146   2.478 -0.1200 -0.4055  1.1103
35201SOL     OW12463   5.710  11.792  10.374  0.3559  0.3589 -0.7633
35201SOL    HW112464   5.794  11.832  10.395 -0.3230  0.8613  1.1731
35201SOL    HW212465   5.646  11.860  10.392 -0.4329  0.7369 -4.2582
35202SOL     OW12466   0.300   9.870   5.512  0.0174  0.3243  0.1881
35202SOL    HW112467   0.212   9.864   5.551 -0.3913  0.0236 -0.7525
35202SOL    HW212468   0.351   9.918   5.577 -0.7950  0.3459  0.8366
35203SOL     OW12469  10.589   2.113   1.985  0.1484  0.4799  0.6641
35203SOL    HW112470  10.495   2.113   1.966  0.4380 -0.3210 -1.0282
35203SOL    HW212471  10.602   2.037   2.041 -0.1251  0.1173  0.2494
35204SOL     OW12472  11.395   0.710   1.128  0.0654 -0.1055  0.6231
35204SOL    HW112473  11.306   0.682   1.105  0.3440  1.1309 -2.3381
35204SOL    HW212474  11.395   0.804   1.116  2.3105 -0.3018 -1.7353
35205SOL     OW12475   2.155  11.991   8.029 -0.2233 -0.1109  0.1514
35205SOL    HW112476   2.112  11.905   8.030  0.6836 -0.5917  1.7264
35205SOL    HW212477   2.248  11.971   8.017 -0.2196  0.7968 -1.5114
35206SOL     OW12478   0.836  11.033   9.618 -0.1679 -0.1180  0.4091
35206SOL    HW112479   0.802  11.001   9.702  0.4173 -0.6345  0.4581
35206SOL    HW212480   0.862  10.955   9.571  0.0888  0.2117 -0.0039
35207SOL     OW12481  10.439   7.134  11.455 -0.1638 -0.5686 -0.2391
35207SOL    HW112482  10.533   7.126  11.437  0.0623  0.8940  0.1574
35207SOL    HW212483  10.435   7.163  11.547 -1.0636 -2.0400  0.2184
35208SOL     OW12484   0.838   3.369   1.737  0.0414  0.4879  0.0113
35208SOL    HW112485   0.923   3.343   1.773  0.0079  0.9987  0.4956
35208SOL    HW212486   0.774   3.334   1.799 -0.0400  1.0372  0.2466
35209SOL     OW12487   6.250   2.494   2.573 -0.3602 -0.6567 -0.2187
35209SOL    HW112488   6.335   2.531   2.550  0.0060 -0.1734  1.7610
35209SOL    HW212489   6.266   2.446   2.654 -2.2225  0.5378  0.9280
35210SOL     OW12490   4.204   3.335   2.134  0.1938  0.4135 -0.3787
35210SOL    HW112491   4.224   3.264   2.072 -1.3321  0.5850 -1.1271
35210SOL    HW212492   4.125   3.376   2.098  0.0267  1.3668  1.0010
35211SOL     OW12493   6.426  11.837   6.628  0.1881  0.8776 -0.2668
35211SOL    HW112494   6.522  11.832   6.621  0.1267 -0.4415 -0.3822
35211SOL    HW212495   6.398  11.746   6.633 -0.8494  1.2587  2.6672
35212SOL     OW12496   7.031   5.463   2.920 -0.5463 -0.0551 -0.2522
35212SOL    HW112497   7.017   5.555   2.944 -0.3410 -0.4042  1.3201
35212SOL    HW212498   7.021   5.461   2.825 -0.7867  1.5513 -0.2853
35213SOL     OW12499   4.930   8.533  10.450 -0.4948 -0.8541 -0.0804
35213SOL    HW112500   4.960   8.446  10.425 -1.2353 -1.6491  1.6606
35213SOL    HW212501   4.993   8.562  10.516 -0.4072 -0.1526 -0.4510
35214SOL     OW12502   6.699   9.275   8.580  0.4404  0.2059 -0.8831
35214SOL    HW112503   6.660   9.291   8.494 -0.5689 -1.2318 -0.7368
35214SOL    HW212504   6.668   9.187   8.604  1.2773  0.2928  0.6354
35215SOL     OW12505  11.147   2.039   9.521 -0.6006  0.6293  0.0144
35215SOL    HW112506  11.135   2.132   9.499 -1.1359  0.2431 -1.3857
35215SOL    HW212507  11.135   1.993   9.439 -1.6325 -0.8093  0.9329
35216SOL     OW12508   1.939   5.875   1.856 -0.2395  0.2385  0.2040
35216SOL    HW112509   1.903   5.940   1.916 -0.7342  0.1913 -0.0342
35216SOL    HW212510   1.877   5.802   1.860  1.5366 -1.3252  2.3621
35217SOL     OW12511  12.465   3.863   3.476  0.0285  0.0642 -0.3445
35217SOL    HW112512  12.468   3.768   3.467  0.3969  0.0935 -0.5251
35217SOL    HW212513  12.555   3.889   3.493  0.1188  0.4883 -1.3893
35218SOL     OW12514   7.920  10.742  11.380  0.3700  0.3437  0.1677
35218SOL    HW112515   7.946  10.755  11.471 -0.6389 -0.4329  0.5872
35218SOL    HW212516   7.867  10.819  11.359  2.2534  1.5453 -0.4473
35219SOL     OW12517  10.665   5.292   1.880  0.0746 -0.5685 -0.1647
35219SOL    HW112518  10.586   5.238   1.878 -0.0307 -0.4031 -0.6221
35219SOL    HW212519  10.644   5.361   1.943  0.3951 -1.3269  0.7867
35220SOL     OW12520  10.886   8.590   4.832 -0.2709 -0.6134  0.2096
35220SOL    HW112521  10.817   8.635   4.880 -0.2046 -1.4639  1.1253
35220SOL    HW212522  10.925   8.658   4.777 -1.7633 -0.0952 -0.2721
35221SOL     OW12523   6.043   6.153   8.211 -0.2460 -0.0297 -0.3568
35221SOL    HW112524   6.038   6.243   8.180 -0.5559 -0.8133 -2.8109
35221SOL    HW212525   6.113   6.153   8.277 -0.3266  1.9871 -0.2343
35222SOL     OW12526   8.142   8.728  11.907 -0.3907  0.1561 -0.1639
35222SOL    HW112527   8.056   8.700  11.939 -0.1275 -1.1551 -0.5355
35222SOL    HW212528   8.155   8.677  11.827  1.1761 -0.4522  0.4422
35223SOL     OW12529   0.504   1.332   0.642 -0.2319  0.7466  0.0629
35223SOL    HW112530   0.546   1.365   0.563 -0.0472 -0.7688 -0.5103
35223SOL    HW212531   0.490   1.409   0.697  0.3165  1.7149 -1.1294
35224SOL     OW12532   4.467   6.560  10.938  0.0112 -0.2353 -0.4029
35224SOL    HW112533   4.529   6.488  10.945  1.3036  0.8110 -0.8655
35224SOL    HW212534   4.520   6.637  10.919 -1.0942  1.2716  2.1243
35225SOL     OW12535   8.230  12.146   4.511  0.1071 -0.2842  0.0359
35225SOL    HW112536   8.218  12.221   4.453 -0.9113  0.4929  1.2098
35225SOL    HW212537   8.325  12.137   4.519  0.2536  0.0843 -1.1044
35226SOL     OW12538   1.703   1.803  11.036  0.0448 -0.5545 -0.3978
35226SOL    HW112539   1.644   1.729  11.026 -0.2524 -0.6722  1.7759
35226SOL    HW212540   1.654   1.878  11.002 -0.6721 -0.9360 -0.2251
35227SOL     OW12541   2.511   4.565   1.870  0.3897 -0.1613  0.6373
35227SOL    HW112542   2.457   4.565   1.949  1.6790  1.4524  1.5929
35227SOL    HW212543   2.494   4.649   1.829 -1.1438 -1.4354 -1.5261
35228SOL     OW12544   8.692   8.153   7.222  0.3594  0.2213  0.6335
35228SOL    HW112545   8.606   8.123   7.251  0.3303 -1.6810 -1.1913
35228SOL    HW212546   8.729   8.197   7.299 -1.6812 -0.0991  1.8808
35229SOL     OW12547   0.055   7.913   0.101  0.0516  0.0251 -0.5540
35229SOL    HW112548   0.101   7.900   0.018  0.1486 -1.0365 -0.3490
35229SOL    HW212549   0.123   7.941   0.162  0.1779 -0.2034 -0.5876
35230SOL     OW12550   7.311   9.515   5.356 -0.2866  0.2787 -0.1491
35230SOL    HW112551   7.248   9.587   5.357 -0.0353  0.5169 -0.8509
35230SOL    HW212552   7.267   9.444   5.309 -0.0433  0.4386 -0.6238
35231SOL     OW12553  11.062   4.520   9.640  0.7812  0.1644  0.5864
35231SOL    HW112554  11.130   4.500   9.575 -0.1223  0.0842 -0.3553
35231SOL    HW212555  11.047   4.614   9.629  1.1195  0.2941  1.1834
35232SOL     OW12556   7.480   9.107   0.497  0.3542 -0.2154  0.1335
35232SOL    HW112557   7.462   9.020   0.460 -2.5217  0.0385  0.7011
35232SOL    HW212558   7.554   9.092   0.556 -0.1430 -2.3315  0.3238
35233SOL     OW12559   2.298   0.037   0.134 -0.5611 -0.0311  0.2110
35233SOL    HW112560   2.282  -0.016   0.056  2.7300 -1.5119  0.4020
35233SOL    HW212561   2.386   0.071   0.123 -1.9118  4.3231  0.8504
35234SOL     OW12562   6.546   9.402   6.919 -0.1846  0.4172  0.0304
35234SOL    HW112563   6.585   9.399   7.006  0.3729 -0.1095 -0.2324
35234SOL    HW212564   6.565   9.490   6.888 -0.5599  0.6766  0.5113
35235SOL     OW12565  11.133   1.307   9.340  0.1388 -0.2027 -0.4936
35235SOL    HW112566  11.050   1.260   9.337 -0.7033  1.1431  0.7544
35235SOL    HW212567  11.197   1.240   9.365 -1.3682 -0.4071  3.5627
35236SOL     OW12568   1.571  11.289   2.044 -0.0519  0.2856  0.0732
35236SOL    HW112569   1.545  11.318   1.957  0.0110  0.2604  0.0462
35236SOL    HW212570   1.665  11.271   2.037 -0.0526  0.2549  0.1383
35237SOL     OW12571  11.980   1.727  12.236 -0.4430 -0.7810 -0.2395
35237SOL    HW112572  11.992   1.809  12.188  0.5141 -0.7787 -0.0195
35237SOL    HW212573  11.889   1.701  12.218 -0.1603 -0.7001 -1.8987
35238SOL     OW12574   3.977   5.161   7.744 -0.0490 -0.5157 -0.2010
35238SOL    HW112575   4.043   5.218   7.783  0.0187 -1.1927  0.7265
35238SOL    HW212576   4.028   5.096   7.695 -0.0279 -0.8136  0.2041
35239SOL     OW12577   9.970  11.665  11.018 -0.0751 -0.0231  0.4846
35239SOL    HW112578   9.966  11.710  10.934 -0.9441 -0.5100  0.2437
35239SOL    HW212579   9.882  11.676  11.056 -0.0360 -0.7478  0.8157
35240SOL     OW12580  10.810   5.272   1.400  0.0079 -0.1827 -0.2401
35240SOL    HW112581  10.729   5.231   1.371  0.4556 -0.7479 -0.7155
35240SOL    HW212582  10.811   5.257   1.495 -0.8276  0.5413 -0.1027
35241SOL     OW12583  10.100  10.558   7.829 -0.5938  0.5799  0.3051
35241SOL    HW112584  10.178  10.612   7.844 -0.9182  0.9976  0.5269
35241SOL    HW212585  10.042  10.614   7.777 -0.7500  0.2815  0.1586
35242SOL     OW12586  10.763   0.689   7.158  0.6177  0.1491 -0.2651
35242SOL    HW112587  10.743   0.782   7.159 -0.9777 -0.1307 -1.6816
35242SOL    HW212588  10.724   0.657   7.077  0.8503 -1.8157  0.3481
35243SOL     OW12589   4.142   0.470   7.744  0.2766  0.1682 -0.0583
35243SOL    HW112590   4.107   0.544   7.793 -1.2244 -0.1063 -0.6727
35243SOL    HW212591   4.222   0.446   7.791 -1.1458 -0.1885  2.3590
35244SOL     OW12592  11.195  11.748   0.927 -0.2652 -0.0436  0.2820
35244SOL    HW112593  11.143  11.669   0.909  1.0246 -0.4313 -2.1332
35244SOL    HW212594  11.200  11.793   0.842  1.0305  1.3963  1.0789
35245SOL     OW12595   6.725  12.326   7.666  0.0009  0.6512 -0.4152
35245SOL    HW112596   6.667  12.400   7.684  0.0663  0.6383 -0.1503
35245SOL    HW212597   6.735  12.326   7.571  1.6568  2.2529 -0.2793
35246SOL     OW12598   1.945   4.157   2.761  0.5299  0.1237 -0.8352
35246SOL    HW112599   1.970   4.172   2.852  0.7606  1.3862 -1.0894
35246SOL    HW212600   2.027   4.129   2.719  1.0248  1.9756 -1.1684
35247SOL     OW12601   7.593   7.104   5.895  0.0432 -0.0234 -0.1453
35247SOL    HW112602   7.606   7.196   5.871 -2.7617  0.2052 -1.2730
35247SOL    HW212603   7.546   7.107   5.978 -1.0724 -0.3515 -0.7405
35248SOL     OW12604   8.239   6.972   1.373 -0.8898  0.3051 -0.8796
35248SOL    HW112605   8.283   6.922   1.304  2.5109  0.0811  1.2586
35248SOL    HW212606   8.249   7.064   1.345  1.7568  0.3197 -0.1621
35249SOL     OW12607   9.327   0.590   0.900 -0.9043 -0.8255 -0.3362
35249SOL    HW112608   9.405   0.601   0.846  0.3654  0.4565  1.6247
35249SOL    HW212609   9.309   0.677   0.936 -2.2759 -1.4123  0.5099
35250SOL     OW12610   6.376  10.020   3.687 -0.7243  0.2271 -0.6528
35250SOL    HW112611   6.439  10.036   3.616 -1.1025 -0.4880 -1.1528
35250SOL    HW212612   6.296   9.994   3.643 -0.9050 -0.4326  0.0484
35251SOL     OW12613  10.842   4.904   2.715  0.4542 -0.7330  0.4792
35251SOL    HW112614  10.877   4.982   2.672 -0.7009  0.0495  0.9035
35251SOL    HW212615  10.911   4.839   2.706  1.8343  0.6111  0.9447
35252SOL     OW12616  12.152   5.322   5.091 -0.3171 -0.0126 -0.2852
35252SOL    HW112617  12.109   5.252   5.043  0.3231  0.0271 -0.9361
35252SOL    HW212618  12.082   5.367   5.138 -0.7201 -1.1753  0.2569
35253SOL     OW12619   2.412   8.405  12.400  0.9293 -0.4064  0.1949
35253SOL    HW112620   2.408   8.351  12.480  0.8541 -1.2289 -0.3482
35253SOL    HW212621   2.464   8.353  12.339  0.5451 -0.0218 -0.4647
35254SOL     OW12622   7.182   0.104   8.545  0.1202 -0.3662  0.4392
35254SOL    HW112623   7.124   0.066   8.611  1.0253 -2.0439  0.3341
35254SOL    HW212624   7.123   0.136   8.476 -0.6948 -1.9820  0.3492
35255SOL     OW12625  10.303   1.463  10.437  0.1861 -0.3002 -0.2636
35255SOL    HW112626  10.391   1.501  10.431  0.3605 -0.5394  0.6416
35255SOL    HW212627  10.250   1.517  10.379  0.4805  1.1797  0.7798
35256SOL     OW12628  11.116   2.442   3.200 -0.3775  0.4179 -0.0764
35256SOL    HW112629  11.072   2.357   3.208 -1.6562  1.1541  1.2208
35256SOL    HW212630  11.068   2.499   3.260  0.1112  2.2147 -1.3248
35257SOL     OW12631   6.620   7.500   0.297 -0.1010 -0.3877 -0.3083
35257SOL    HW112632   6.554   7.570   0.295  0.1349 -0.1744 -1.3405
35257SOL    HW212633   6.676   7.522   0.371  0.0321  0.5848 -0.6861
35258SOL     OW12634   9.870  10.371   9.565  0.2578  0.6107 -0.2903
35258SOL    HW112635   9.899  10.336   9.649  1.6589  1.2067 -0.4900
35258SOL    HW212636   9.831  10.456   9.587  1.4044  1.1634 -0.3000
35259SOL     OW12637  10.093   5.094  12.190  0.4942  0.1256  0.0289
35259SOL    HW112638  10.035   5.051  12.252 -0.2026  1.2117  0.1643
35259SOL    HW212639  10.177   5.100  12.236  0.3091 -0.1409  0.4064
35260SOL     OW12640  11.131  11.489   1.146 -0.3259 -0.1100 -0.4860
35260SOL    HW112641  11.151  11.466   1.237 -1.0395  1.2157  0.0320
35260SOL    HW212642  11.041  11.461   1.133 -0.3068 -0.0709 -0.7125
35261SOL     OW12643   4.104   4.356   6.904 -0.5618 -0.1813  0.3328
35261SOL    HW112644   4.104   4.266   6.935 -0.1883 -0.2412  0.1718
35261SOL    HW212645   4.159   4.354   6.825 -0.7964  0.1284  0.1583
35262SOL     OW12646   0.738   0.871   3.107  0.1001 -0.2255  0.4648
35262SOL    HW112647   0.738   0.789   3.059  0.1608  0.9818 -1.7374
35262SOL    HW212648   0.690   0.932   3.052  0.0890  1.2574  2.0041
35263SOL     OW12649   5.436   8.061   4.164 -0.3283 -0.4133 -0.0822
35263SOL    HW112650   5.460   7.977   4.123  0.8279  1.2476 -3.1383
35263SOL    HW212651   5.343   8.071   4.143 -0.4687 -0.8970  0.2794
35264SOL     OW12652   8.690   0.269   2.207  0.5658 -0.9924  0.1304
35264SOL    HW112653   8.650   0.238   2.126  2.1777  0.8886 -1.4872
35264SOL    HW212654   8.710   0.190   2.256 -0.2916 -2.2025 -1.3930
35265SOL     OW12655   8.000   3.111   9.585 -0.4178  0.2405  0.5553
35265SOL    HW112656   8.011   3.098   9.680  0.7895  2.4094  0.7789
35265SOL    HW212657   7.960   3.197   9.578  0.1605  0.4073 -0.9164
35266SOL     OW12658  10.672   3.906  10.550  0.2386 -0.4050  0.9405
35266SOL    HW112659  10.649   3.956  10.472  0.5269  0.5449  1.4522
35266SOL    HW212660  10.690   3.972  10.617  0.9326 -1.1811  1.5471
35267SOL     OW12661   8.570  10.010   2.118  0.3404 -0.7962  0.0373
35267SOL    HW112662   8.545  10.100   2.094  0.4438 -0.3946  1.3599
35267SOL    HW212663   8.493   9.975   2.163 -0.0981 -1.7737 -1.4041
35268SOL     OW12664   8.990   8.386   1.439  0.5382  0.2276 -0.0663
35268SOL    HW112665   9.029   8.453   1.383 -0.0509  0.3017 -0.3970
35268SOL    HW212666   8.982   8.309   1.383 -0.8773  0.5666 -0.3675
35269SOL     OW12667   2.407   4.470   9.119  0.2803  0.1029  0.2774
35269SOL    HW112668   2.347   4.461   9.193 -0.6565 -0.2531 -0.5096
35269SOL    HW212669   2.488   4.428   9.149 -0.2689 -0.5561  0.8844
35270SOL     OW12670   0.443   2.020   9.274  0.5060 -0.3135 -0.0753
35270SOL    HW112671   0.389   1.947   9.247  1.6981 -1.3206  0.1631
35270SOL    HW212672   0.493   2.044   9.195  0.2259  0.1656 -0.1151
35271SOL     OW12673   8.118   7.684   4.010  0.0620  0.6859 -0.3766
35271SOL    HW112674   8.037   7.634   4.002  0.1825  0.4624 -0.1985
35271SOL    HW212675   8.156   7.682   3.923 -0.4842  1.4058 -0.6448
35272SOL     OW12676   2.859   6.544  12.017 -0.1853  0.5371  0.3581
35272SOL    HW112677   2.810   6.599  11.956  1.4015 -0.3524 -1.8314
35272SOL    HW212678   2.871   6.461  11.971  1.7237  0.0793  1.5761
35273SOL     OW12679   1.410   1.349   0.140  0.5905  0.1577 -0.3049
35273SOL    HW112680   1.402   1.439   0.170 -0.1688 -0.1643  0.4985
35273SOL    HW212681   1.347   1.300   0.193  1.5431 -0.9770 -0.1846
35274SOL     OW12682   9.268   1.779   1.175  0.5865  0.1892 -0.0867
35274SOL    HW112683   9.341   1.785   1.114 -0.1551  2.1978 -0.8524
35274SOL    HW212684   9.195   1.744   1.122  0.6154 -0.5109  0.3242
35275SOL     OW12685  12.202   0.375  10.664  0.4552 -0.3704 -0.1131
35275SOL    HW112686  12.133   0.342  10.721 -0.2217  0.7424 -0.2454
35275SOL    HW212687  12.268   0.306  10.662 -0.4562 -1.2703  0.3705
35276SOL     OW12688   6.171   9.987  11.977  0.2833 -0.0432  0.0687
35276SOL    HW112689   6.264  10.004  11.970  0.4400 -0.8841 -0.0209
35276SOL    HW212690   6.129  10.069  11.950  0.9834  0.1076 -0.5919
35277SOL     OW12691   1.046   2.382   0.697 -0.1648 -0.3614 -0.6896
35277SOL    HW112692   1.036   2.288   0.681  2.2316 -0.2222 -4.2004
35277SOL    HW212693   0.964   2.420   0.667 -1.9446 -1.2855  2.4993
35278SOL     OW12694   6.514  12.041   2.320 -0.2581 -0.0295  0.6211
35278SOL    HW112695   6.501  12.099   2.245 -0.8924 -3.0421 -1.8084
35278SOL    HW212696   6.602  12.060   2.351  1.1627 -0.4561 -2.7151
35279SOL     OW12697   5.180   0.131   7.220 -0.8174 -0.1275  0.2566
35279SOL    HW112698   5.177   0.138   7.125  1.9799 -2.4558 -0.1309
35279SOL    HW212699   5.118   0.061   7.241  0.0131 -0.9829 -0.1010
35280SOL     OW12700   5.178  11.497  11.774 -0.0118 -0.0154 -0.1804
35280SOL    HW112701   5.223  11.428  11.726  0.4091 -0.2414  0.5265
35280SOL    HW212702   5.085  11.473  11.769 -0.0460  0.3334 -1.4515
35281SOL     OW12703   3.426  11.240   5.772  0.0120 -0.5795 -0.0439
35281SOL    HW112704   3.455  11.149   5.780 -1.0176 -0.8284  1.0865
35281SOL    HW212705   3.463  11.269   5.689  1.9730 -1.4215  0.4591
35282SOL     OW12706   0.365   7.463   9.818  0.2938 -0.7551  0.0435
35282SOL    HW112707   0.372   7.442   9.911  0.0666  1.1288  0.5233
35282SOL    HW212708   0.272   7.481   9.805  0.1757 -1.8379 -0.7683
35283SOL     OW12709   0.775   8.556   7.646 -0.3179 -0.7879  0.1205
35283SOL    HW112710   0.777   8.462   7.662 -0.1008 -0.4563  2.4657
35283SOL    HW212711   0.857   8.588   7.683 -0.2455  0.2847 -0.9280
35284SOL     OW12712   5.937  11.804   4.443 -0.3217 -0.6378 -0.3298
35284SOL    HW112713   5.842  11.797   4.452 -0.2024 -0.7394  0.9530
35284SOL    HW212714   5.960  11.887   4.485  0.2132 -0.8336 -0.2195
35285SOL     OW12715   7.235   3.186   0.109  0.1166  0.0731  0.0623
35285SOL    HW112716   7.199   3.200   0.021 -0.3866  0.4285  0.3191
35285SOL    HW212717   7.318   3.234   0.109  1.8306 -2.6770 -1.3043
35286SOL     OW12718   8.616  12.380  11.839  0.5739  0.3538 -0.6322
35286SOL    HW112719   8.651  12.438  11.771  2.2442 -1.5538 -1.5069
35286SOL    HW212720   8.685  12.375  11.905  0.6991 -1.0162 -0.8362
35287SOL     OW12721   2.619   9.679   6.219  0.2130 -0.2792  0.2161
35287SOL    HW112722   2.578   9.758   6.183 -0.6945 -1.4443 -1.4011
35287SOL    HW212723   2.712   9.691   6.201  0.0190  0.1734 -0.5510
35288SOL     OW12724   8.301  11.287   0.847  0.1390  0.0791  0.4927
35288SOL    HW112725   8.266  11.324   0.766 -1.1228 -0.8809  0.5632
35288SOL    HW212726   8.230  11.300   0.911  0.9506  0.4374  1.3438
35289SOL     OW12727  11.724   1.467   1.090  0.5966  0.2011  0.3174
35289SOL    HW112728  11.756   1.465   1.180 -0.5173  1.9968  0.8085
35289SOL    HW212729  11.676   1.384   1.080  1.3853 -0.3695  1.0971
35290SOL     OW12730  11.743   4.247   2.355 -0.1063  0.4435  0.2964
35290SOL    HW112731  11.717   4.337   2.377  1.1034  1.2487 -1.4164
35290SOL    HW212732  11.828   4.235   2.398 -1.0090 -0.5480  1.9533
35291SOL     OW12733   8.946   9.452   2.472 -0.2707 -0.4277 -0.1903
35291SOL    HW112734   9.038   9.439   2.450 -0.3972 -1.1799 -0.2860
35291SOL    HW212735   8.914   9.514   2.406  0.1228 -0.3084 -0.2685
35292SOL     OW12736  10.026   1.069   8.588  0.1466 -0.5187 -0.6661
35292SOL    HW112737  10.040   1.157   8.552 -1.6873  0.2342  0.2973
35292SOL    HW212738  10.107   1.022   8.569  0.8479  1.1040 -1.9837
35293SOL     OW12739   1.335   5.044  11.953  0.9923  0.8013  0.1993
35293SOL    HW112740   1.354   5.007  12.039  0.8856 -0.1948 -0.1898
35293SOL    HW212741   1.251   5.089  11.964  0.8157  0.3970  0.5381
35294SOL     OW12742   3.873   6.116   6.020  0.5892 -0.0360 -0.4474
35294SOL    HW112743   3.860   6.175   5.946 -1.1724 -0.2199 -0.3300
35294SOL    HW212744   3.832   6.161   6.094 -0.4191 -1.1885 -0.2739
35295SOL     OW12745  10.512   6.856   7.116  0.2211 -0.0013 -0.3407
35295SOL    HW112746  10.500   6.764   7.093  0.2891 -0.4111  1.1549
35295SOL    HW212747  10.586   6.857   7.176 -0.2576  0.9165  0.2678
35296SOL     OW12748  11.030   7.155   3.654  0.3449  0.3699 -0.8737
35296SOL    HW112749  11.089   7.190   3.587  0.6605  2.8390  0.5704
35296SOL    HW212750  10.969   7.226   3.673  0.1519 -0.2789  1.3114
35297SOL     OW12751   1.157   3.407   1.523 -0.4784  0.4134  0.1987
35297SOL    HW112752   1.198   3.377   1.604  0.0168  1.1774  0.2453
35297SOL    HW212753   1.081   3.350   1.512  0.2902 -0.6907  0.3951
35298SOL     OW12754  11.059   2.198   8.410 -0.2099  0.0509 -0.0017
35298SOL    HW112755  11.143   2.153   8.420  0.0151  0.1523 -1.3434
35298SOL    HW212756  11.010   2.144   8.349  0.9651  2.7012 -3.6618
35299SOL     OW12757   3.283  10.401  11.190  0.6249  0.2167 -0.2168
35299SOL    HW112758   3.277  10.394  11.094  0.2031 -1.1335 -0.1020
35299SOL    HW212759   3.288  10.311  11.221 -0.0682  0.6033  1.1004
35300SOL     OW12760   3.307   0.953   0.436 -0.3207 -0.1121  0.1257
35300SOL    HW112761   3.344   1.026   0.487  0.1539 -0.6097  0.5001
35300SOL    HW212762   3.215   0.949   0.464 -0.2919  0.1976  0.2680
35301SOL     OW12763   5.240   2.401  12.426 -0.0843  0.8262  0.0845
35301SOL    HW112764   5.253   2.307  12.440  1.2650  0.5972 -2.2461
35301SOL    HW212765   5.269   2.441  12.508  0.0385 -0.7239  0.8450
35302SOL     OW12766   0.972   6.299   7.031  0.4539 -0.3240 -0.0116
35302SOL    HW112767   0.947   6.213   7.063  0.5069 -0.3320  0.0088
35302SOL    HW212768   0.999   6.347   7.109  0.3057 -0.2484 -0.0069
35303SOL     OW12769   7.826   2.559   2.960 -0.4876 -0.3265  0.5056
35303SOL    HW112770   7.833   2.642   3.007 -1.1683 -1.1106  2.0715
35303SOL    HW212771   7.915   2.522   2.964 -0.7137 -0.7649  1.9595
35304SOL     OW12772   4.917  10.500  11.544  0.4294 -0.4709 -0.1523
35304SOL    HW112773   4.898  10.593  11.547  1.4389 -0.1598 -1.9822
35304SOL    HW212774   4.832  10.458  11.534  0.1610  0.5233 -2.8946
35305SOL     OW12775  11.085   5.998   2.492  0.2240 -0.0342 -0.1070
35305SOL    HW112776  11.033   5.992   2.572 -0.3045 -0.1087 -0.4453
35305SOL    HW212777  11.073   6.088   2.461  1.7780  0.5073  0.7718
35306SOL     OW12778   9.380  12.391   9.704 -0.0137  0.2432  0.5699
35306SOL    HW112779   9.393  12.303   9.741 -0.4414 -0.0187  0.0955
35306SOL    HW212780   9.449  12.444   9.746  2.0430 -0.8983 -1.1641
35307SOL     OW12781   2.804   1.581   0.556 -0.0440  0.2089 -0.3445
35307SOL    HW112782   2.728   1.618   0.512  1.0187  1.6084 -1.0624
35307SOL    HW212783   2.879   1.609   0.504  0.8848 -2.9908 -0.9667
35308SOL     OW12784   5.585  10.039   8.548  0.7887 -0.3085 -0.1257
35308SOL    HW112785   5.593   9.959   8.497  0.4309 -1.0723  0.9981
35308SOL    HW212786   5.493  10.066   8.536  0.3597 -1.1715  1.0888
35309SOL     OW12787   4.373   4.191   0.665  0.1962  0.1016  0.0418
35309SOL    HW112788   4.334   4.211   0.580  0.7966  1.5659  0.0723
35309SOL    HW212789   4.308   4.219   0.729  0.1250 -0.1427  0.0792
35310SOL     OW12790   7.873   4.771   8.341  0.2831  0.1676 -0.1114
35310SOL    HW112791   7.904   4.710   8.408 -0.9657 -1.5806 -1.0430
35310SOL    HW212792   7.903   4.734   8.258  0.1064  1.2144 -0.6669
35311SOL     OW12793   5.766   7.583  11.475  0.4108  0.0716 -0.4660
35311SOL    HW112794   5.719   7.501  11.491 -0.9560  0.8640 -0.2400
35311SOL    HW212795   5.792   7.578  11.383  2.1182 -1.4603  0.0460
35312SOL     OW12796   9.108   7.036   1.461  0.0980  0.2810 -0.3376
35312SOL    HW112797   9.174   7.073   1.403  1.1405 -1.7463 -0.5260
35312SOL    HW212798   9.135   7.062   1.549  0.7953  0.0195 -0.4691
35313SOL     OW12799  12.017  10.919  10.945 -0.2332 -0.5550  0.4299
35313SOL    HW112800  12.052  11.001  10.908 -2.8819  0.2109 -0.6086
35313SOL    HW212801  11.935  10.945  10.987 -1.5366 -2.7551 -0.5851
35314SOL     OW12802  11.642   6.559  10.122 -0.1062  0.3511  0.1606
35314SOL    HW112803  11.563   6.561  10.177  0.1695 -0.2514  0.5826
35314SOL    HW212804  11.708   6.519  10.178 -0.0885 -1.2766 -0.9760
35315SOL     OW12805  11.180   8.863   2.593  0.0782  0.7422 -0.1708
35315SOL    HW112806  11.197   8.864   2.687 -0.0474  0.9760 -0.1498
35315SOL    HW212807  11.238   8.795   2.558 -0.3872  0.1734  0.1720
35316SOL     OW12808   7.414  11.448   9.423 -0.2011 -0.6010 -0.4365
35316SOL    HW112809   7.448  11.468   9.335 -2.5755 -0.2597 -1.3441
35316SOL    HW212810   7.394  11.355   9.421  1.4419 -1.0121  0.4137
35317SOL     OW12811   9.985   9.134   5.293  0.6518  0.1524  0.3551
35317SOL    HW112812   9.938   9.209   5.330  0.3909  0.5103 -0.6668
35317SOL    HW212813   9.970   9.141   5.198  0.8897 -1.0162  0.2210
35318SOL     OW12814   4.943   8.558  10.906 -0.3226  0.6447 -0.0020
35318SOL    HW112815   4.955   8.568  11.000  0.7454 -1.4333  0.1361
35318SOL    HW212816   4.848   8.561  10.894 -0.5321 -0.0066  1.2949
35319SOL     OW12817   5.404   8.555   5.013  0.4662  0.4378  0.4218
35319SOL    HW112818   5.421   8.497   5.087  0.1093 -3.0517 -2.0103
35319SOL    HW212819   5.488   8.561   4.967 -0.0849 -0.2474 -0.7082
35320SOL     OW12820   9.178   3.631   7.746  0.3436 -0.7793  0.0614
35320SOL    HW112821   9.213   3.721   7.748  1.5384 -1.2341  1.2990
35320SOL    HW212822   9.229   3.584   7.812 -2.2854 -1.6463  1.6290
35321SOL     OW12823  10.250   0.020   4.716 -0.3569 -0.2819 -0.0609
35321SOL    HW112824  10.203  -0.058   4.685  0.6332  0.0921 -2.8128
35321SOL    HW212825  10.319  -0.015   4.773 -0.7152 -1.3016 -0.2183
35322SOL     OW12826  11.104   7.618   3.643  0.1704  0.6138 -0.6036
35322SOL    HW112827  11.126   7.543   3.588  0.8374  0.1363  0.2861
35322SOL    HW212828  11.008   7.621   3.642  0.1670  0.5231 -1.6451
35323SOL     OW12829   6.337   5.101   6.402 -0.1193  0.0471 -0.5744
35323SOL    HW112830   6.313   5.065   6.317 -0.4883  0.2161 -0.5458
35323SOL    HW212831   6.272   5.065   6.463  0.2196 -0.1749 -0.3413
35324SOL     OW12832  10.129   9.905   6.374 -0.1654 -0.1629 -0.3468
35324SOL    HW112833  10.035   9.923   6.378 -0.0431  0.3470  1.2213
35324SOL    HW212834  10.139   9.816   6.408  0.0346  0.4660  1.3775
35325SOL     OW12835   5.587   0.452   9.373 -0.5109 -0.6869  0.4779
35325SOL    HW112836   5.514   0.397   9.346  0.3336 -1.6534  0.0988
35325SOL    HW212837   5.625   0.406   9.448  1.2112 -1.5362 -0.8541
35326SOL     OW12838  11.218   9.003   2.981 -0.3228  0.0700  0.7149
35326SOL    HW112839  11.256   9.019   2.895 -0.9945 -0.1810  0.3651
35326SOL    HW212840  11.133   8.963   2.963  0.1199 -1.2880  1.5105
35327SOL     OW12841   9.090   6.877  10.752  0.4703 -0.2541 -0.1787
35327SOL    HW112842   9.114   6.840  10.837  0.4031 -2.6182 -1.1010
35327SOL    HW212843   9.158   6.942  10.734 -0.0768  1.0553  2.0770
35328SOL     OW12844   8.626   7.749   9.369  0.7582  0.1497 -0.0277
35328SOL    HW112845   8.598   7.811   9.301  1.5836  2.6883  1.8038
35328SOL    HW212846   8.616   7.797   9.451  2.9599 -1.5981  1.3890
35329SOL     OW12847   4.808   5.426   4.782 -0.2577 -0.0202  0.4817
35329SOL    HW112848   4.843   5.475   4.708 -2.9311  0.5078 -0.5614
35329SOL    HW212849   4.806   5.490   4.854  1.5402 -0.2876  0.8047
35330SOL     OW12850  10.675   9.415   2.646  0.3003 -0.3254 -0.1549
35330SOL    HW112851  10.610   9.450   2.707 -0.4323  0.1490 -1.1928
35330SOL    HW212852  10.759   9.443   2.684 -0.2222  2.7705 -0.9597
35331SOL     OW12853   9.707   1.358   9.943  0.3565 -0.3650  0.1302
35331SOL    HW112854   9.749   1.414   9.879 -0.5341 -1.6504 -1.6833
35331SOL    HW212855   9.613   1.378   9.936  0.2431 -0.4334  1.1514
35332SOL     OW12856   4.900   0.857   7.763  0.1112  0.3920  0.1478
35332SOL    HW112857   4.840   0.791   7.797  0.3596  0.7803  1.3831
35332SOL    HW212858   4.947   0.888   7.840  0.7878  1.2098 -0.5830
35333SOL     OW12859   5.561  10.987  11.864 -0.2230 -0.1241 -0.3103
35333SOL    HW112860   5.587  10.937  11.787 -1.4133  0.4399 -1.1049
35333SOL    HW212861   5.640  11.036  11.888  0.7773 -1.8553  0.1177
35334SOL     OW12862   5.157  10.799   3.496 -0.0125  0.5793 -0.4759
35334SOL    HW112863   5.149  10.889   3.464 -0.1620  0.6904 -0.1295
35334SOL    HW212864   5.073  10.759   3.476 -0.4750  0.9361  0.6541
35335SOL     OW12865   1.683   1.094  12.060  1.1455  0.5533  0.2491
35335SOL    HW112866   1.652   1.009  12.026 -0.6658  1.4465 -0.4717
35335SOL    HW212867   1.681   1.083  12.155  1.9893 -0.5457  0.1690
35336SOL     OW12868   7.309   2.421  10.584 -0.1272 -0.4770  0.5679
35336SOL    HW112869   7.387   2.417  10.528 -0.6671  0.1091 -0.2506
35336SOL    HW212870   7.343   2.450  10.669  0.5136  0.0719  0.1372
35337SOL     OW12871   8.831   4.540   6.404 -0.3119  0.3339 -0.3395
35337SOL    HW112872   8.785   4.484   6.467 -0.6858 -0.5234 -1.3344
35337SOL    HW212873   8.865   4.478   6.338  0.7366  1.1245 -0.5754
35338SOL     OW12874   4.165   4.069   2.169  0.3989  0.0443 -0.3029
35338SOL    HW112875   4.245   4.033   2.207 -0.0315 -0.7643 -0.1534
35338SOL    HW212876   4.196   4.138   2.110  1.2150 -0.3501 -0.3454
35339SOL     OW12877   9.348   0.292   0.581 -0.8471 -0.5208  0.0819
35339SOL    HW112878   9.269   0.307   0.634 -0.6522 -1.1352  0.5579
35339SOL    HW212879   9.345   0.199   0.560 -0.9773 -0.2601 -1.0978
35340SOL     OW12880   4.030   4.827   5.776 -0.4143  0.4319 -0.0147
35340SOL    HW112881   4.037   4.856   5.685 -1.7323  1.0252  0.0486
35340SOL    HW212882   4.055   4.904   5.828  0.5959  0.0165  0.1433
35341SOL     OW12883   3.638   7.860   2.085  0.6446 -0.3432 -0.2792
35341SOL    HW112884   3.703   7.930   2.086 -0.3147  0.5764  0.6818
35341SOL    HW212885   3.673   7.794   2.144 -0.5644  1.4502  2.6936
35342SOL     OW12886   7.892  10.767   9.297 -0.3971  0.3799 -0.0071
35342SOL    HW112887   7.936  10.762   9.212 -1.3044  2.1486 -0.6296
35342SOL    HW212888   7.899  10.678   9.333  1.1272 -0.0861 -1.3427
35343SOL     OW12889   8.007   6.129   7.825  0.4263 -0.5749 -0.1218
35343SOL    HW112890   7.987   6.045   7.866 -0.6950 -0.8791 -1.2537
35343SOL    HW212891   7.952   6.132   7.747  0.9364  0.9293 -0.4573
35344SOL     OW12892   2.221   3.802   5.717 -0.3948 -0.1243  0.1545
35344SOL    HW112893   2.280   3.845   5.779 -3.1471  1.4674  1.8828
35344SOL    HW212894   2.197   3.720   5.760 -1.2106  0.3264  0.5859
35345SOL     OW12895   6.695   3.756   7.513 -0.2916 -0.3844 -0.8417
35345SOL    HW112896   6.653   3.671   7.523  1.7827 -1.1809  3.4223
35345SOL    HW212897   6.628   3.819   7.543 -0.2651 -1.0768  0.7460
35346SOL     OW12898   7.502  10.384   9.486 -0.0083  0.0885  0.0658
35346SOL    HW112899   7.534  10.296   9.464 -0.5774 -0.5261  1.5751
35346SOL    HW212900   7.407  10.377   9.479 -0.0846  0.4296  0.7249
35347SOL     OW12901  10.185   6.217   5.429  0.3076 -0.4932  0.1637
35347SOL    HW112902  10.152   6.133   5.461  1.2546 -0.9219  0.0385
35347SOL    HW212903  10.152   6.223   5.339 -0.8312 -0.1207  0.5783
35348SOL     OW12904   5.174   0.267   5.726 -0.0364 -0.0770  0.2511
35348SOL    HW112905   5.106   0.259   5.793 -1.4928 -0.1003 -1.1535
35348SOL    HW212906   5.196   0.177   5.704 -1.3710 -0.1320 -1.0026
35349SOL     OW12907   9.005   8.580   7.708  0.2273  0.2777 -0.6431
35349SOL    HW112908   9.025   8.491   7.680 -0.7713 -0.4918  0.9097
35349SOL    HW212909   8.961   8.569   7.793 -1.9464  2.1117 -1.4297
35350SOL     OW12910   5.224  11.955   7.977  0.0270 -0.2220  0.0201
35350SOL    HW112911   5.285  12.012   7.929  0.2780 -1.6452 -1.4557
35350SOL    HW212912   5.184  11.902   7.909 -3.4928  1.1389  0.8448
35351SOL     OW12913   5.801   8.704   0.375 -0.2755 -0.1980 -0.3482
35351SOL    HW112914   5.808   8.644   0.301  1.4398  1.3738 -1.5668
35351SOL    HW212915   5.707   8.712   0.390 -0.5716 -2.9049 -0.2910
35352SOL     OW12916   6.090   6.783   0.224  0.4731 -0.1435  0.3166
35352SOL    HW112917   6.133   6.709   0.268 -0.3430  1.2732  3.9021
35352SOL    HW212918   6.138   6.860   0.255 -0.7282  1.0359 -0.6230
35353SOL     OW12919   7.290   9.617   1.258 -0.6125  0.1742 -0.0984
35353SOL    HW112920   7.338   9.546   1.216  0.6006  1.1400 -0.4213
35353SOL    HW212921   7.327   9.696   1.221 -0.7580  1.0207  1.4620
35354SOL     OW12922   5.386   4.953   7.902 -0.4550 -0.2040  0.4916
35354SOL    HW112923   5.381   4.906   7.985 -0.5709 -0.4566  0.3433
35354SOL    HW212924   5.470   4.999   7.906  0.8629 -2.3636 -0.3584
35355SOL     OW12925   0.092  11.019  11.361  0.0147 -0.1098 -0.0010
35355SOL    HW112926   0.075  10.931  11.395 -1.5885  0.7125  1.4827
35355SOL    HW212927   0.029  11.030  11.290 -0.1812  0.0374  0.1927
35356SOL     OW12928  10.682  10.603   6.554 -0.2128 -0.0500  0.1212
35356SOL    HW112929  10.672  10.572   6.644 -1.0563  0.2246  0.1325
35356SOL    HW212930  10.772  10.634   6.549 -0.1004 -0.2571  0.8132
35357SOL     OW12931   1.940   8.764   5.923 -1.2083 -0.1475  0.2551
35357SOL    HW112932   1.876   8.752   5.853  2.3101 -1.9600 -2.9738
35357SOL    HW212933   1.937   8.682   5.972 -1.3984 -0.1674  0.2132
35358SOL     OW12934   2.763   4.586   1.030  0.1204  0.2349 -0.0400
35358SOL    HW112935   2.712   4.663   1.057 -0.4358 -0.2156  0.2088
35358SOL    HW212936   2.699   4.514   1.028  0.4452 -0.0476 -1.1469
35359SOL     OW12937   4.802  12.022   4.636  0.3069  0.2582 -0.1146
35359SOL    HW112938   4.894  12.044   4.647  0.8418 -1.9478  0.3247
35359SOL    HW212939   4.803  11.932   4.603 -1.6890  0.2863 -0.3654
35360SOL     OW12940   5.384   3.485   9.900 -0.2232 -0.3305  0.1166
35360SOL    HW112941   5.362   3.574   9.930 -0.5429 -0.5717  0.6176
35360SOL    HW212942   5.470   3.494   9.858 -1.0288  0.5408 -1.4357
35361SOL     OW12943   5.940  10.049   4.169  0.2110  0.4145 -0.3160
35361SOL    HW112944   5.866  10.012   4.217 -1.1381  1.7524 -1.2640
35361SOL    HW212945   5.995  10.088   4.236 -1.7299  2.4251  0.2321
35362SOL     OW12946   4.471  10.477   5.758 -0.2141 -0.4745  0.3089
35362SOL    HW112947   4.488  10.418   5.685 -0.9081 -1.3016  0.8055
35362SOL    HW212948   4.448  10.560   5.717 -1.5912 -1.2012 -0.4480
35363SOL     OW12949   6.115   5.402   1.212  0.2302  0.3652 -0.3682
35363SOL    HW112950   6.096   5.447   1.129  1.5847  0.7697 -0.4839
35363SOL    HW212951   6.208   5.415   1.225  0.2421 -0.6373  0.6850
35364SOL     OW12952   2.536  10.898   0.889  0.2910 -0.2004  0.3027
35364SOL    HW112953   2.539  10.927   0.798  1.4116 -1.4180 -0.0740
35364SOL    HW212954   2.448  10.920   0.918 -0.3026 -0.3543 -1.2678
35365SOL     OW12955   9.277  11.590   0.996 -0.1826 -0.4503  0.3484
35365SOL    HW112956   9.319  11.675   0.985 -0.2255 -0.4505  0.1736
35365SOL    HW212957   9.349  11.527   0.996 -0.0907 -0.3621  1.1473
35366SOL     OW12958   4.251  12.423   1.583 -0.3527 -0.3077 -0.2142
35366SOL    HW112959   4.210  12.355   1.637  0.1272  0.1133  0.7024
35366SOL    HW212960   4.257  12.384   1.496 -1.9677 -0.6580 -0.1844
35367SOL     OW12961   7.145   5.409   7.325  0.1016 -0.2991 -0.1963
35367SOL    HW112962   7.167   5.370   7.240 -0.0027  2.1324 -1.4246
35367SOL    HW212963   7.225   5.454   7.352  0.3136 -1.4778  1.3301
35368SOL     OW12964  10.308   7.823   0.682 -0.0156  0.1366  0.6318
35368SOL    HW112965  10.278   7.840   0.771 -1.7547 -2.5241  0.6844
35368SOL    HW212966  10.395   7.783   0.694 -0.9574 -1.8649  1.3760
35369SOL     OW12967   8.665   5.304   9.416  0.1460  0.1662 -0.5740
35369SOL    HW112968   8.640   5.253   9.338 -2.4203 -0.1698  0.3739
35369SOL    HW212969   8.653   5.395   9.390  1.4267  0.1839 -1.2003
35370SOL     OW12970   7.813   0.853   8.152 -0.0857 -0.4434  0.1983
35370SOL    HW112971   7.853   0.931   8.191 -0.4517 -0.8973  1.5286
35370SOL    HW212972   7.766   0.887   8.076  0.7555  0.4575  0.0512
35371SOL     OW12973   0.855  12.413  10.274 -0.4092 -0.1849 -0.0015
35371SOL    HW112974   0.858  12.318  10.267 -2.6175 -0.2766 -0.2700
35371SOL    HW212975   0.880  12.443  10.186  0.4030 -0.5048  0.1143
35372SOL     OW12976   1.770   1.276   8.119 -0.3595 -0.3087 -0.0305
35372SOL    HW112977   1.701   1.261   8.055 -1.5339  0.9700  0.8759
35372SOL    HW212978   1.781   1.371   8.121  1.1408 -0.4555  0.1722
35373SOL     OW12979   7.861   3.777   7.270 -0.7275 -0.5771 -0.2043
35373SOL    HW112980   7.872   3.872   7.280  0.4383 -0.6106 -0.9982
35373SOL    HW212981   7.818   3.749   7.351 -1.1380  0.6324  0.0125
35374SOL     OW12982   7.437  10.102   4.755  0.1305  0.2655 -0.2585
35374SOL    HW112983   7.508  10.146   4.802  0.6543 -0.8510  0.0452
35374SOL    HW212984   7.376  10.172   4.732  0.9292  1.1363  0.1913
35375SOL     OW12985   5.697   1.902   2.024 -0.1265  0.2844  0.3728
35375SOL    HW112986   5.771   1.942   2.069  0.4602 -0.6376  0.2606
35375SOL    HW212987   5.673   1.965   1.957  1.4225  0.0429 -0.4580
35376SOL     OW12988   6.575   1.681   4.680  0.3737 -0.2839  0.2592
35376SOL    HW112989   6.594   1.588   4.675 -0.5787 -0.4524 -0.5793
35376SOL    HW212990   6.491   1.686   4.726  1.0873  0.2608  1.5435
35377SOL     OW12991   6.316   5.212   4.232  0.2456 -0.3350  0.2246
35377SOL    HW112992   6.316   5.126   4.275  3.2049 -1.7505 -2.1753
35377SOL    HW212993   6.262   5.200   4.154  1.4425 -0.3708 -0.6235
35378SOL     OW12994  10.706   3.298   8.011 -0.2019  0.0220  0.1513
35378SOL    HW112995  10.698   3.264   8.100  0.3639  0.9327  0.5580
35378SOL    HW212996  10.717   3.220   7.956 -0.9447 -0.5669  0.8255
35379SOL     OW12997   7.472   3.276   2.786 -0.2382 -0.4168 -0.2414
35379SOL    HW112998   7.504   3.198   2.831 -1.2649 -1.0501 -0.5825
35379SOL    HW212999   7.551   3.317   2.751  0.4638 -0.4650  1.2478
35380SOL     OW13000  11.314   7.569   4.600  0.2672  0.2217 -0.1205
35380SOL    HW113001  11.374   7.641   4.619  0.4935  0.4530 -1.5905
35380SOL    HW213002  11.323   7.555   4.506 -0.6173 -0.9807 -0.0436
35381SOL     OW13003  11.918  12.144   5.999  0.1294  0.4296  0.6707
35381SOL    HW113004  11.943  12.158   6.090  0.7796 -0.8403  0.7101
35381SOL    HW213005  11.987  12.088   5.964 -0.8265 -0.2305 -0.2165
35382SOL     OW13006   0.494   2.860   9.895 -0.4522 -0.1282  0.3384
35382SOL    HW113007   0.422   2.895   9.843 -0.4679 -0.6195  0.0257
35382SOL    HW213008   0.459   2.858   9.985 -1.4638 -1.9570 -0.0433
35383SOL     OW13009   4.579   7.667   2.006  0.8269 -0.8204 -0.5178
35383SOL    HW113010   4.559   7.579   2.038 -1.0475 -0.9520 -1.9151
35383SOL    HW213011   4.675   7.670   2.001  0.9158 -2.7842 -0.5210
35384SOL     OW13012   8.744   0.593   3.935  0.3714 -0.4110 -0.4716
35384SOL    HW113013   8.803   0.534   3.888  0.7856  1.0348 -1.8415
35384SOL    HW213014   8.794   0.673   3.947 -0.5115  0.0277  0.4831
35385SOL     OW13015   8.655   5.859   5.934 -0.2818  0.1618  0.3415
35385SOL    HW113016   8.619   5.945   5.911  2.0066  1.0375 -0.2596
35385SOL    HW213017   8.601   5.830   6.007 -2.4073  1.1618 -0.7436
35386SOL     OW13018   2.032   3.598   7.014 -0.7584  0.3193 -0.9824
35386SOL    HW113019   2.049   3.517   6.966 -0.5877 -0.6991  0.7080
35386SOL    HW213020   1.948   3.629   6.980 -2.1462 -1.9857  0.0869
35387SOL     OW13021   2.580   2.990   0.583  0.5410  0.1404 -0.2919
35387SOL    HW113022   2.599   2.913   0.637  0.4159 -0.1732 -0.6916
35387SOL    HW213023   2.629   3.061   0.625  0.5326 -0.1235  0.1697
35388SOL     OW13024   6.494   5.224  11.538  0.6090 -0.4770 -0.3129
35388SOL    HW113025   6.399   5.233  11.530  0.5706  0.7101  1.0680
35388SOL    HW213026   6.512   5.135  11.507 -0.8725 -0.5387 -1.0976
35389SOL     OW13027  10.022  10.760   9.093  0.5430  0.5713 -0.2692
35389SOL    HW113028   9.989  10.672   9.074  0.2123  0.7576 -0.5732
35389SOL    HW213029  10.117  10.750   9.098  0.4185 -0.1377  1.4588
35390SOL     OW13030  12.127  10.875   3.013 -0.5919  0.5833  0.5459
35390SOL    HW113031  12.081  10.934   2.954 -0.2348  1.5684  1.2262
35390SOL    HW213032  12.127  10.920   3.098 -1.0494 -0.7810  1.2972
35391SOL     OW13033   5.209  10.499   0.330  0.5000 -0.3976 -0.4632
35391SOL    HW113034   5.230  10.440   0.403 -0.2768 -0.1735 -0.0523
35391SOL    HW213035   5.188  10.440   0.257 -0.6633 -0.6489  0.0548
35392SOL     OW13036   2.745   4.231   3.902  0.0899  0.2483 -0.0144
35392SOL    HW113037   2.836   4.201   3.903 -0.2176 -0.7292 -0.0277
35392SOL    HW213038   2.722   4.235   3.809 -0.6766 -2.1094  0.0167
35393SOL     OW13039   3.970   0.217   6.619 -0.4563 -0.1055 -1.7922
35393SOL    HW113040   4.023   0.249   6.545  2.5391 -0.3537  0.1024
35393SOL    HW213041   4.003   0.129   6.636 -1.1433 -0.0824 -0.2198
35394SOL     OW13042   8.053   2.486  10.062 -0.1914 -0.3093  0.2754
35394SOL    HW113043   8.018   2.502  10.149 -0.3712 -0.3584  0.2111
35394SOL    HW213044   8.007   2.548  10.006 -1.5277 -1.6120 -0.1370
35395SOL     OW13045   6.351   7.185   2.676 -0.0123  0.0879  0.2979
35395SOL    HW113046   6.332   7.206   2.584 -2.1247  0.4662  0.7507
35395SOL    HW213047   6.376   7.093   2.675 -0.4019 -0.0223 -0.6311
35396SOL     OW13048   7.096  11.786   0.540 -0.1006  0.2632  0.3038
35396SOL    HW113049   7.126  11.819   0.624  0.0972 -0.1920  0.4150
35396SOL    HW213050   7.153  11.711   0.521 -1.3542 -0.8288  0.6772
35397SOL     OW13051   0.233   5.118   6.940  0.0684 -0.2294 -0.0848
35397SOL    HW113052   0.235   5.035   6.891  1.5316  1.8441 -3.9413
35397SOL    HW213053   0.319   5.124   6.980  0.0574 -0.4339 -0.0283
35398SOL     OW13054   8.020   9.089   8.801  0.5035 -0.4188  0.2474
35398SOL    HW113055   8.000   9.183   8.796  2.7187  0.1075 -0.0728
35398SOL    HW213056   8.021   9.069   8.894  1.1971  0.2031  0.3886
35399SOL     OW13057   5.671  11.350   9.890  0.7631 -0.4156  0.2889
35399SOL    HW113058   5.576  11.339   9.898  0.5074  1.9256  1.4386
35399SOL    HW213059   5.688  11.343   9.796 -0.8893  1.1095 -0.1809
35400SOL     OW13060   9.719   8.499   8.362  1.5791  0.1662 -0.4541
35400SOL    HW113061   9.699   8.592   8.355  1.1396  0.2032  0.9538
35400SOL    HW213062   9.753   8.488   8.452 -0.1825 -1.3246  0.0893
35401SOL     OW13063   0.142   2.897   6.673  0.5926 -0.0194 -0.1892
35401SOL    HW113064   0.105   2.985   6.671 -0.7590 -0.5719 -2.2700
35401SOL    HW213065   0.212   2.898   6.608 -0.3675 -0.8078 -1.2899
35402SOL     OW13066   0.546   6.042   0.470  0.2369 -0.0837 -0.3928
35402SOL    HW113067   0.565   5.992   0.550  0.0744 -0.5373 -0.6313
35402SOL    HW213068   0.632   6.066   0.436  0.2898  1.0288  0.4801
35403SOL     OW13069   3.899   5.301   9.028  0.3869 -0.0472 -0.2834
35403SOL    HW113070   3.817   5.311   8.981  0.3918 -1.2797 -0.5967
35403SOL    HW213071   3.961   5.270   8.962  0.4169 -1.7258  0.4697
35404SOL     OW13072   6.692   9.385   1.212 -0.0452 -0.1038 -0.5068
35404SOL    HW113073   6.736   9.418   1.291 -0.4457 -0.4383 -0.1368
35404SOL    HW213074   6.618   9.334   1.246  1.3580 -2.5900 -0.9894
35405SOL     OW13075   4.058   1.207  10.063  0.1093  0.5159  0.1285
35405SOL    HW113076   3.971   1.245  10.077 -0.3685 -0.3491 -0.3564
35405SOL    HW213077   4.077   1.161  10.145 -0.8820 -1.1235 -0.5042
35406SOL     OW13078  11.852   3.941   1.989  0.4199  0.1067  0.2997
35406SOL    HW113079  11.886   4.026   1.961 -1.3031 -0.0207 -2.6691
35406SOL    HW213080  11.930   3.887   2.003  1.5619  0.9588 -2.2132
35407SOL     OW13081   8.048   5.834   4.941  0.3267 -0.0108  0.3789
35407SOL    HW113082   8.040   5.767   5.009 -0.5675 -0.1141  0.1953
35407SOL    HW213083   7.963   5.879   4.942  1.0767  1.4537  0.8370
35408SOL     OW13084  10.962   2.730   9.107  0.1426  0.4147 -0.4227
35408SOL    HW113085  10.943   2.823   9.100 -0.5537  0.5717  2.4798
35408SOL    HW213086  11.032   2.724   9.171  0.9027 -1.0248 -1.3404
35409SOL     OW13087   7.328   6.781   4.492  0.2016 -0.1304 -0.0490
35409SOL    HW113088   7.250   6.795   4.546  0.6899 -0.4425  0.7735
35409SOL    HW213089   7.378   6.862   4.500  1.1720 -0.8384  1.5390
35410SOL     OW13090   0.018   4.510  11.130  0.3338 -0.2082  1.1039
35410SOL    HW113091  -0.073   4.500  11.102  0.5211 -1.7972  0.9351
35410SOL    HW213092   0.065   4.534  11.050  0.0886  0.4559  1.1578
35411SOL     OW13093   5.532   6.715   9.843  0.3126  0.4284  0.1151
35411SOL    HW113094   5.580   6.714   9.926 -0.9126  0.7201  0.8660
35411SOL    HW213095   5.584   6.771   9.785  0.5760  1.2339  1.0940
35412SOL     OW13096   3.814   6.198  10.034 -0.0800  0.1636 -0.0366
35412SOL    HW113097   3.807   6.294  10.036 -1.1169  0.0893  0.7277
35412SOL    HW213098   3.726   6.169  10.009 -0.9337 -0.6921  3.4760
35413SOL     OW13099   5.641  10.195  12.216  0.0056 -0.9799  0.1334
35413SOL    HW113100   5.680  10.280  12.233 -1.4643  0.0940 -1.4429
35413SOL    HW213101   5.662  10.177  12.124  0.9457 -2.7125  0.6540
35414SOL     OW13102   0.352   2.921  12.245  0.4815  0.5686 -0.4242
35414SOL    HW113103   0.264   2.918  12.281  1.6886 -1.9294  2.8365
35414SOL    HW213104   0.362   3.011  12.213 -3.3282  0.7793 -1.4712
35415SOL     OW13105   7.127   6.457   2.816  0.0286 -0.4170 -0.0816
35415SOL    HW113106   7.080   6.540   2.817  0.3505 -0.2213 -0.5729
35415SOL    HW213107   7.081   6.404   2.751  0.1082 -0.4528 -0.1087
35416SOL     OW13108  11.309   8.605  11.703 -0.2067  0.0648  0.0543
35416SOL    HW113109  11.333   8.696  11.723  1.2856 -0.1524 -0.6051
35416SOL    HW213110  11.255   8.611  11.625  1.2607  0.3217 -0.9982
35417SOL     OW13111   9.117   7.683   3.666  0.0254 -0.4338 -0.7372
35417SOL    HW113112   9.136   7.644   3.581  2.5968  2.4477 -1.6925
35417SOL    HW213113   9.191   7.656   3.722  0.2318  0.5298 -0.5252
35418SOL     OW13114   6.846   4.228   2.516 -0.0397  0.0669  0.2651
35418SOL    HW113115   6.850   4.146   2.566 -0.5166 -0.7567 -1.0116
35418SOL    HW213116   6.755   4.236   2.489  0.5675 -0.6387 -2.2514
35419SOL     OW13117   9.104  10.177  11.712  0.2771  0.8575  0.1383
35419SOL    HW113118   9.065  10.227  11.784 -0.3045  0.6375 -0.0160
35419SOL    HW213119   9.034  10.170  11.647  1.5309  3.2116 -1.5920
35420SOL     OW13120  11.481   4.355   8.722  0.2366 -0.2504  0.0666
35420SOL    HW113121  11.574   4.373   8.728  0.3793 -1.3106  1.5469
35420SOL    HW213122  11.442   4.437   8.694  1.4727  0.5771  0.7002
35421SOL     OW13123  11.804   8.599  12.301 -0.1220 -0.5441  0.4627
35421SOL    HW113124  11.870   8.543  12.340 -0.5533 -1.5906 -0.2487
35421SOL    HW213125  11.835   8.615  12.212 -0.2075  0.0207  0.5290
35422SOL     OW13126   1.937   8.857   5.123 -0.4454 -0.5918  0.2014
35422SOL    HW113127   2.013   8.801   5.106 -0.9867 -1.5389  0.7940
35422SOL    HW213128   1.974   8.940   5.150  0.3844 -1.0567  0.5234
35423SOL     OW13129  12.444   6.859   3.897  0.0120  0.1864  0.0263
35423SOL    HW113130  12.419   6.947   3.922  0.9313  0.5701 -0.3621
35423SOL    HW213131  12.495   6.826   3.972  2.5954  1.2636 -1.1278
35424SOL     OW13132   4.419   1.178   0.169 -0.4019 -0.1798  0.0762
35424SOL    HW113133   4.389   1.087   0.171 -0.0400 -0.2959  0.2068
35424SOL    HW213134   4.339   1.229   0.183 -0.9118 -0.3991 -1.7965
35425SOL     OW13135   2.117   4.890   2.921 -0.1138 -0.4658  0.2822
35425SOL    HW113136   2.042   4.860   2.870 -1.0038  0.5124  0.9691
35425SOL    HW213137   2.081   4.913   3.007  0.8828  0.4363  0.4903
35426SOL     OW13138   9.116   5.825   6.283  0.9870 -0.0116  0.0946
35426SOL    HW113139   9.191   5.777   6.247 -0.3220 -2.2653  0.1645
35426SOL    HW213140   9.081   5.874   6.209  3.6382  2.7893  0.4969
35427SOL     OW13141  11.443   9.906   9.916 -0.1790  0.1337 -0.5029
35427SOL    HW113142  11.416   9.966   9.847  0.2779  1.6681  0.5958
35427SOL    HW213143  11.515   9.951   9.961  0.0804 -1.1632  0.4703
35428SOL     OW13144   9.966   2.758   8.402  0.3553 -0.2464 -0.0080
35428SOL    HW113145  10.011   2.746   8.485 -1.6059 -0.0854  1.1463
35428SOL    HW213146   9.909   2.833   8.416 -2.6086 -2.2706 -0.2279
35429SOL     OW13147   5.432   1.052   7.926 -0.1632 -0.0554  0.0691
35429SOL    HW113148   5.511   0.998   7.919  0.3443  0.0530  3.1323
35429SOL    HW213149   5.447   1.126   7.867  1.8527 -0.3034  0.2040
35430SOL     OW13150   9.160   7.010   6.793 -0.4477  0.7283  0.2127
35430SOL    HW113151   9.149   7.082   6.855  1.5680  0.4748  0.9591
35430SOL    HW213152   9.143   6.931   6.845  1.2348  0.5162  0.5084
35431SOL     OW13153   3.949  10.062   6.236 -0.2658 -0.0466  0.5242
35431SOL    HW113154   3.966  10.011   6.315 -0.4966 -0.5113  0.2753
35431SOL    HW213155   3.936   9.997   6.167 -0.3304  0.3501  0.1572
35432SOL     OW13156   4.981  11.165   0.264  1.3099 -0.0368 -0.2541
35432SOL    HW113157   4.949  11.174   0.354  1.0673  0.6200 -0.3998
35432SOL    HW213158   5.067  11.205   0.265  0.0751  2.8544 -0.9899
35433SOL     OW13159   4.159   5.508  11.228  1.0384 -1.2552 -0.1854
35433SOL    HW113160   4.115   5.538  11.308 -1.1582 -2.2311 -0.9512
35433SOL    HW213161   4.223   5.444  11.258  1.1735 -0.6318  0.8966
35434SOL     OW13162   5.876   1.262   7.566  0.1545 -0.0487  0.5609
35434SOL    HW113163   5.832   1.237   7.484  0.6544 -0.3440  0.3793
35434SOL    HW213164   5.902   1.354   7.552 -1.9541  0.7301  1.3445
35435SOL     OW13165   3.734   3.912   7.641 -0.0884 -0.2224  0.1310
35435SOL    HW113166   3.786   3.981   7.682 -0.3259  1.6130 -2.3420
35435SOL    HW213167   3.798   3.857   7.596 -0.0392  0.1604 -0.2855
35436SOL     OW13168   2.181   2.563   2.209 -0.1367 -0.5697 -0.4910
35436SOL    HW113169   2.243   2.524   2.271  2.8442  0.6453 -2.4482
35436SOL    HW213170   2.167   2.652   2.242  0.1445 -0.4592 -0.6614
35437SOL     OW13171   5.370   1.716   3.161 -0.0983 -0.1309  0.5797
35437SOL    HW113172   5.456   1.688   3.129  0.9976  3.2163  0.2012
35437SOL    HW213173   5.308   1.684   3.095  1.0883 -0.7975 -0.2485
35438SOL     OW13174  11.619  10.416   8.685  0.1234  0.4082  0.2651
35438SOL    HW113175  11.649  10.468   8.611  0.7890 -0.1528  0.1376
35438SOL    HW213176  11.529  10.393   8.664  0.6467 -0.6676 -0.8864
35439SOL     OW13177   3.015  12.051   8.295  0.2965 -0.3791  0.4135
35439SOL    HW113178   3.052  12.133   8.264  2.2687 -1.5417 -0.5132
35439SOL    HW213179   2.970  12.015   8.218 -1.7213  0.3961  1.1706
35440SOL     OW13180  11.073   1.127   7.531 -0.8911  0.1506  0.0931
35440SOL    HW113181  11.057   1.050   7.586 -1.1541  1.0195  1.2748
35440SOL    HW213182  11.047   1.201   7.586 -3.4815  0.9650 -2.0519
35441SOL     OW13183   1.150   7.589   1.246  0.0692 -0.2967  0.0240
35441SOL    HW113184   1.184   7.677   1.262  0.8572 -0.1718 -1.9403
35441SOL    HW213185   1.080   7.601   1.181 -2.1998 -0.8234  2.2126
35442SOL     OW13186  12.021   2.842   0.641 -0.2153  0.0257 -0.3074
35442SOL    HW113187  12.019   2.874   0.551  1.1779 -1.9689 -1.1153
35442SOL    HW213188  11.984   2.754   0.636 -0.8226  0.1620  1.2233
35443SOL     OW13189   6.599   5.231  12.439 -0.0267  0.1581 -0.3292
35443SOL    HW113190   6.674   5.235  12.499  0.9111  1.0552 -1.4983
35443SOL    HW213191   6.536   5.293  12.476  0.2655  0.2149  0.0856
35444SOL     OW13192  11.971   1.842   5.230 -0.1532 -0.2573 -0.1818
35444SOL    HW113193  11.925   1.888   5.159 -1.6616 -0.7681  0.4140
35444SOL    HW213194  11.902   1.822   5.293  0.6585 -2.2691  0.1461
35445SOL     OW13195   1.359   0.628  10.263 -0.4866  0.1757  0.1532
35445SOL    HW113196   1.273   0.614  10.303 -0.0309 -0.6412  0.8658
35445SOL    HW213197   1.398   0.699  10.313 -0.3717 -0.0801  0.4251
35446SOL     OW13198   3.791   4.602  10.882  0.2759  0.0166  0.4864
35446SOL    HW113199   3.730   4.535  10.912  0.2781  0.2655  1.0625
35446SOL    HW213200   3.744   4.650  10.814 -0.9075  1.4274  2.2130
35447SOL     OW13201   0.935   4.918   7.558  0.0101  0.2415 -0.4374
35447SOL    HW113202   0.921   4.931   7.652 -2.2315 -1.8984 -0.3843
35447SOL    HW213203   1.023   4.879   7.553 -0.2373 -0.5738  0.9062
35448SOL     OW13204   8.810   8.719   3.493 -0.1423  0.0714 -0.1964
35448SOL    HW113205   8.813   8.785   3.424 -2.3539  0.9162  0.4396
35448SOL    HW213206   8.775   8.641   3.450 -0.8673  0.3895 -0.1895
35449SOL     OW13207   5.249   4.839  10.529 -0.0565 -0.2207 -0.8306
35449SOL    HW113208   5.224   4.925  10.564 -2.8682 -1.6267  0.9238
35449SOL    HW213209   5.254   4.852  10.434  0.7584  2.1076 -0.5320
35450SOL     OW13210   9.508  10.441   6.926 -0.4268 -0.2860  0.3627
35450SOL    HW113211   9.425  10.407   6.959 -1.7116 -1.3638 -3.4216
35450SOL    HW213212   9.495  10.536   6.922 -2.4027 -0.5620 -2.0622
35451SOL     OW13213   4.905   1.009   3.816 -0.0109 -0.4633 -0.1574
35451SOL    HW113214   4.915   1.024   3.722 -0.6733 -0.7932 -0.2849
35451SOL    HW213215   4.954   1.081   3.857  1.3928 -1.0545 -0.7356
35452SOL     OW13216   5.055  11.048   0.030  0.7559 -0.6426  0.0062
35452SOL    HW113217   5.000  11.080   0.101  0.6890  1.0725 -0.7718
35452SOL    HW213218   4.998  11.045  -0.047  0.8147 -2.5136 -0.0140
35453SOL     OW13219  12.343   1.331   4.045  0.1895  0.0877  0.2217
35453SOL    HW113220  12.384   1.416   4.062 -3.7207  2.3870 -0.6477
35453SOL    HW213221  12.323   1.297   4.132  1.1816  0.3130  0.5611
35454SOL     OW13222  11.929   5.426   4.609  0.1553 -0.6677  0.1502
35454SOL    HW113223  11.887   5.366   4.671 -2.0863 -0.4609 -1.0607
35454SOL    HW213224  11.868   5.499   4.601  2.4362  1.4425  0.9379
35455SOL     OW13225   0.307  10.602   3.528  0.5215  0.1586  0.1586
35455SOL    HW113226   0.380  10.625   3.470  0.2450 -0.5941 -0.5085
35455SOL    HW213227   0.349  10.571   3.608  0.9696 -0.8926 -0.4572
35456SOL     OW13228   6.357   5.413   2.769 -0.1059 -0.1613  0.0330
35456SOL    HW113229   6.357   5.319   2.751 -0.4249  0.0273 -1.0141
35456SOL    HW213230   6.312   5.452   2.694  0.1510  0.8420  0.3821
35457SOL     OW13231   2.171  12.318   2.098  0.4430  0.2424 -0.2213
35457SOL    HW113232   2.244  12.336   2.039 -0.8372 -0.3299 -2.0784
35457SOL    HW213233   2.116  12.396   2.093  0.1575  0.0559 -0.0326
35458SOL     OW13234   6.705   8.307   4.924  0.2629  0.5200 -0.0678
35458SOL    HW113235   6.709   8.331   5.017  0.2047  0.5080 -0.0622
35458SOL    HW213236   6.772   8.361   4.883  0.5425  0.2596  0.0411
35459SOL     OW13237   4.158   2.661   5.079 -0.0248 -0.1553  0.6858
35459SOL    HW113238   4.089   2.722   5.052  0.0835 -0.1920  0.3226
35459SOL    HW213239   4.119   2.574   5.067  1.1203 -0.3561 -2.6557
35460SOL     OW13240   0.372  11.836  11.138  0.7878 -0.2429  0.2668
35460SOL    HW113241   0.468  11.844  11.145  0.5472  4.0808  1.7021
35460SOL    HW213242   0.350  11.887  11.060 -0.3883 -1.8668 -0.5156
35461SOL     OW13243   6.258   9.058   4.944 -0.1885 -0.0730  0.0188
35461SOL    HW113244   6.183   9.113   4.967  0.0434  1.1846 -1.9575
35461SOL    HW213245   6.327   9.084   5.004 -0.2968  1.3729 -0.4403
35462SOL     OW13246  10.620   6.201   9.845  0.0418  0.2523  0.1409
35462SOL    HW113247  10.546   6.229   9.899  1.7276  1.6727  1.8591
35462SOL    HW213248  10.657   6.127   9.892  2.0663  2.0543  1.5760
35463SOL     OW13249   2.936   9.221   3.133 -1.1319  0.6087  0.6542
35463SOL    HW113250   2.857   9.211   3.081  0.6383 -1.3546 -1.9660
35463SOL    HW213251   2.945   9.138   3.179  0.1249  0.1863 -0.2911
35464SOL     OW13252   2.947   9.885   7.161 -0.4159 -0.7203  0.0462
35464SOL    HW113253   2.956   9.831   7.240 -1.3352 -0.1458  0.5613
35464SOL    HW213254   3.034   9.923   7.149  0.3880 -2.5929 -0.5760
35465SOL     OW13255   9.733   4.836   1.740 -0.5505  0.3383  0.3716
35465SOL    HW113256   9.643   4.810   1.760 -0.2896 -1.8703 -1.0445
35465SOL    HW213257   9.780   4.823   1.822 -0.6897 -2.8346  0.0846
35466SOL     OW13258   5.621   1.349   2.437 -0.5165 -0.3096 -0.3101
35466SOL    HW113259   5.600   1.430   2.390  0.5881  0.0456 -0.2207
35466SOL    HW213260   5.616   1.374   2.529 -1.1488 -0.6026 -0.2642
35467SOL     OW13261   2.054  10.506   7.074 -0.1664  0.7633  0.3026
35467SOL    HW113262   2.005  10.484   7.153 -0.0691 -3.2640 -0.5841
35467SOL    HW213263   2.141  10.531   7.106 -0.6831  1.0770  1.5093
35468SOL     OW13264  11.180   5.445   6.587 -0.8113 -0.1919  0.2371
35468SOL    HW113265  11.109   5.479   6.533 -0.9183  0.7367  0.9566
35468SOL    HW213266  11.256   5.497   6.563 -0.6849 -0.2794  0.4424
35469SOL     OW13267   1.326   7.361   8.185 -0.1387 -0.6786  0.6882
35469SOL    HW113268   1.258   7.313   8.232 -0.8521 -0.0626  0.2941
35469SOL    HW213269   1.399   7.365   8.247 -0.1357 -2.0811  0.7975
35470SOL     OW13270   9.501   3.428   2.690 -0.0970  0.1163  0.1919
35470SOL    HW113271   9.457   3.407   2.608  0.0431 -0.1272  0.1781
35470SOL    HW213272   9.432   3.465   2.745 -1.1950 -3.2921  1.3827
35471SOL     OW13273   9.590   5.638   4.356  0.5760 -0.2562  0.3825
35471SOL    HW113274   9.556   5.628   4.445 -1.8621  0.8305 -0.3473
35471SOL    HW213275   9.565   5.727   4.330  1.2505 -0.5392 -1.3936
35472SOL     OW13276  10.848   8.328   9.156  0.2235  0.3499 -0.3922
35472SOL    HW113277  10.939   8.308   9.134  0.2284 -0.4957  0.3296
35472SOL    HW213278  10.835   8.417   9.124  0.8055 -0.0837 -1.9673
35473SOL     OW13279   0.238   1.494   3.966  0.2017  0.4512 -0.0873
35473SOL    HW113280   0.217   1.411   4.009 -0.0027 -0.4105 -1.7526
35473SOL    HW213281   0.244   1.471   3.873  1.1458  2.1236 -0.4692
35474SOL     OW13282   8.125   8.833  11.372 -0.2233 -0.6459  0.3621
35474SOL    HW113283   8.145   8.921  11.339 -1.5765 -0.4251  0.1012
35474SOL    HW213284   8.210   8.789  11.373  0.1943  0.0488 -1.2938
35475SOL     OW13285   9.994   8.919   9.522  0.2903  0.1938 -0.1457
35475SOL    HW113286   9.990   8.869   9.604  3.1721 -2.5584 -1.4543
35475SOL    HW213287  10.072   8.974   9.532  0.0729  0.5905 -0.6419
35476SOL     OW13288   6.646   0.742   3.110 -0.1310 -0.5304 -0.8105
35476SOL    HW113289   6.633   0.782   3.196  1.9549  0.6483 -0.9658
35476SOL    HW213290   6.566   0.763   3.061 -0.4727  0.5942  0.1839
35477SOL     OW13291   8.990   7.577  10.764  0.3375  0.3861  0.2096
35477SOL    HW113292   9.063   7.638  10.774  0.9074 -0.2537  0.0319
35477SOL    HW213293   9.030   7.490  10.769 -0.7105 -0.0240  2.4072
35478SOL     OW13294  12.250  10.669   3.952  0.3411  0.8763  1.1602
35478SOL    HW113295  12.207  10.687   3.868 -0.1649 -1.0767  0.9414
35478SOL    HW213296  12.188  10.697   4.018  0.0914  1.0072  0.8725
35479SOL     OW13297  10.314  10.359   1.334 -0.1161 -0.2078 -0.2952
35479SOL    HW113298  10.381  10.415   1.373  0.7262 -0.3026 -1.5458
35479SOL    HW213299  10.234  10.413   1.336  0.7866  1.3061 -1.9443
35480SOL     OW13300   6.686   9.527   1.615  0.3038  0.3103 -0.3153
35480SOL    HW113301   6.696   9.617   1.646  0.2258 -0.1791  1.2185
35480SOL    HW213302   6.596   9.505   1.637  0.8552 -0.7303  0.9913
35481SOL     OW13303   4.105   8.169   5.236  0.2998 -0.2037  0.4464
35481SOL    HW113304   4.172   8.193   5.172 -0.7228 -0.0670 -0.6129
35481SOL    HW213305   4.070   8.252   5.267  1.1212 -0.2566  1.5846
35482SOL     OW13306  10.337   2.512  10.744 -1.0666  0.4681 -0.0860
35482SOL    HW113307  10.346   2.601  10.711 -1.0494  0.1674 -0.9059
35482SOL    HW213308  10.422   2.492  10.782 -0.1352 -0.1771 -2.3777
35483SOL     OW13309   3.034   6.666   0.890  0.0929 -0.2263  0.3801
35483SOL    HW113310   2.954   6.659   0.837 -0.6734 -0.1482  1.4940
35483SOL    HW213311   3.031   6.755   0.926  0.0893 -0.6144  1.3544
35484SOL     OW13312   8.457   1.831   4.519  0.3646 -0.5707 -0.5002
35484SOL    HW113313   8.455   1.876   4.434 -1.1866  1.4664  0.5242
35484SOL    HW213314   8.547   1.841   4.549  0.0100  2.5797 -0.0697
35485SOL     OW13315   7.958   1.872   7.716 -0.1292 -0.1520  0.2832
35485SOL    HW113316   7.956   1.779   7.740 -2.3592  0.4122  2.7910
35485SOL    HW213317   8.004   1.914   7.789  1.6401  0.6922 -1.2419
35486SOL     OW13318   8.580  11.198   0.450  0.3651  0.3398 -0.6613
35486SOL    HW113319   8.585  11.290   0.475  0.7255  0.2987 -0.5848
35486SOL    HW213320   8.502  11.165   0.494 -1.2829  1.2415 -2.7132
35487SOL     OW13321   6.852   9.268   0.883 -0.0026 -0.4469 -0.0735
35487SOL    HW113322   6.810   9.221   0.812 -0.0144 -1.7676  0.7685
35487SOL    HW213323   6.850   9.207   0.957  0.9735  0.4710  0.7541
35488SOL     OW13324   4.494   6.859  11.738  0.0412  0.2319 -0.4180
35488SOL    HW113325   4.509   6.951  11.757 -0.9899  0.4452 -0.5649
35488SOL    HW213326   4.582   6.821  11.730  0.5011  0.8202  1.3418
35489SOL     OW13327   4.962   9.043   5.789  0.2850 -0.2749  0.4427
35489SOL    HW113328   4.873   9.011   5.775  0.1190  0.0632  0.7110
35489SOL    HW213329   4.982   9.092   5.709  0.6172 -1.1974 -0.0603
35490SOL     OW13330   3.873   2.603   9.218  0.1539  0.1989 -0.2739
35490SOL    HW113331   3.889   2.522   9.266  0.0293 -0.0286 -0.6147
35490SOL    HW213332   3.805   2.581   9.154  0.7639  0.3262 -0.9851
35491SOL     OW13333   0.363   5.840   0.800 -0.2873 -0.3689  0.7156
35491SOL    HW113334   0.328   5.751   0.807  1.3556 -1.0520  0.5049
35491SOL    HW213335   0.308   5.891   0.860 -1.7573 -1.3415  0.2578
35492SOL     OW13336   0.435   8.582  10.359 -0.3229  0.6551  0.2692
35492SOL    HW113337   0.394   8.502  10.326  1.1932 -0.4609  0.9351
35492SOL    HW213338   0.443   8.566  10.454  1.8630  0.6597  0.1346
35493SOL     OW13339  10.090  10.782   5.465 -0.1987 -0.5091 -0.4451
35493SOL    HW113340  10.060  10.843   5.398 -0.5482  0.3824  0.4867
35493SOL    HW213341  10.050  10.699   5.443  0.5422 -0.4999 -1.9303
35494SOL     OW13342  11.312  10.562   3.850 -0.1996  0.4538 -0.8971
35494SOL    HW113343  11.298  10.618   3.773 -0.2846  1.0333 -0.4653
35494SOL    HW213344  11.361  10.616   3.911 -1.5722  0.5969  0.1341
35495SOL     OW13345   6.163   0.578   8.047  0.5123  0.3508  0.0329
35495SOL    HW113346   6.254   0.550   8.033  0.5846  1.6878 -2.9281
35495SOL    HW213347   6.171   0.664   8.089  0.4778 -0.6534  2.2104
35496SOL     OW13348   7.798   0.356   9.914 -0.0421  0.0636  0.2268
35496SOL    HW113349   7.741   0.343   9.989  0.6348 -0.8792  0.5973
35496SOL    HW213350   7.870   0.410   9.947  1.2287 -1.8821  0.7949
35497SOL     OW13351   7.351  10.300   6.561 -0.4396  0.0151 -0.6836
35497SOL    HW113352   7.432  10.298   6.612 -0.2057 -0.7273 -1.0740
35497SOL    HW213353   7.290  10.246   6.612 -0.2455 -0.6175 -1.1034
35498SOL     OW13354   3.212   0.861   9.674 -0.1941  0.0544 -0.2303
35498SOL    HW113355   3.193   0.955   9.673 -0.2488  0.0443 -0.6571
35498SOL    HW213356   3.126   0.819   9.677 -0.1500  0.0099  1.5989
35499SOL     OW13357   8.913   2.807   6.632 -0.3049 -0.1079 -0.2769
35499SOL    HW113358   8.956   2.721   6.635  2.5816  1.2157 -0.2851
35499SOL    HW213359   8.925   2.842   6.720 -0.0189  0.9155 -0.7138
35500SOL     OW13360  10.887   0.942  12.308  0.3068  0.3653  0.1013
35500SOL    HW113361  10.892   1.031  12.272 -0.9730 -0.0877 -1.2620
35500SOL    HW213362  10.840   0.892  12.242  0.1279 -1.1106  1.3037
35501SOL     OW13363   7.150  12.034   5.268  0.0978 -0.4969  0.7393
35501SOL    HW113364   7.148  11.970   5.339  1.3359  0.3147  1.5392
35501SOL    HW213365   7.206  11.994   5.201  1.3001 -0.0563  1.4593
35502SOL     OW13366   8.358   7.912   9.404 -0.4799 -0.1757  0.2047
35502SOL    HW113367   8.372   8.006   9.401  0.6372 -0.3512 -0.5540
35502SOL    HW213368   8.374   7.888   9.495 -1.0474  0.3988  0.4613
35503SOL     OW13369   4.633   0.458   4.560  0.0111 -0.2079 -0.5602
35503SOL    HW113370   4.720   0.496   4.546  0.9686 -1.7434  0.8240
35503SOL    HW213371   4.621   0.400   4.485  1.6086 -2.3396  0.7254
35504SOL     OW13372   8.116  12.191   3.631 -0.3107  0.6840  0.0991
35504SOL    HW113373   8.062  12.124   3.590 -0.8841  1.1072  0.1508
35504SOL    HW213374   8.183  12.211   3.566 -2.1301  2.4929 -1.3648
35505SOL     OW13375   9.800   7.096   6.648  0.2821  0.4229 -0.1173
35505SOL    HW113376   9.810   7.191   6.646 -0.9074  0.5844  0.6682
35505SOL    HW213377   9.772   7.073   6.559 -0.2689  0.9143 -0.0751
35506SOL     OW13378   4.811   8.535   9.847  0.4089  0.3841  0.0519
35506SOL    HW113379   4.871   8.607   9.867  0.9295  0.6473 -2.1863
35506SOL    HW213380   4.724   8.573   9.860  0.6656  0.4109  1.9836
35507SOL     OW13381   3.505   4.577   3.842 -0.1726  0.1470  0.5677
35507SOL    HW113382   3.582   4.580   3.898  0.6066  0.9762 -0.4942
35507SOL    HW213383   3.516   4.498   3.789  0.4533  0.7495 -0.2326
35508SOL     OW13384   6.741   1.478   1.074  0.0413  0.5002  0.5599
35508SOL    HW113385   6.754   1.437   1.160  0.2509  0.6036  0.5789
35508SOL    HW213386   6.706   1.565   1.094 -0.9276  0.1381  0.5011
35509SOL     OW13387   8.517   5.185   8.897 -0.4925 -0.2842  0.0858
35509SOL    HW113388   8.537   5.264   8.948  0.7790 -0.4701 -0.0849
35509SOL    HW213389   8.435   5.152   8.934  0.4349 -0.4697  2.0726
35510SOL     OW13390   0.991   0.927  11.702 -0.3220  0.0440  0.1097
35510SOL    HW113391   0.917   0.949  11.758  0.0315  2.5442 -0.3183
35510SOL    HW213392   0.952   0.913  11.615 -0.7550 -2.9637  0.6778
35511SOL     OW13393   8.773   7.797   0.281  0.2564 -0.4028 -0.2669
35511SOL    HW113394   8.766   7.788   0.376 -0.1988 -1.6830 -0.3969
35511SOL    HW213395   8.788   7.891   0.267 -0.7655 -0.0148  0.9987
35512SOL     OW13396  12.465   1.214   4.595  0.4951 -0.2152 -0.0555
35512SOL    HW113397  12.544   1.171   4.561  0.6382 -0.6534  0.7900
35512SOL    HW213398  12.498   1.282   4.654  0.2505  0.3514 -0.5653
35513SOL     OW13399   6.959   7.228   0.017 -0.5013  0.0627  0.1854
35513SOL    HW113400   6.920   7.145   0.044 -1.1270  0.0805 -0.6233
35513SOL    HW213401   6.886   7.290   0.016 -0.6402 -0.0678 -2.0480
35514SOL     OW13402   3.476  11.030  11.396  0.1752 -0.0052 -0.1451
35514SOL    HW113403   3.459  11.112  11.350 -0.9777 -0.4282 -0.4969
35514SOL    HW213404   3.460  10.962  11.331  0.1356 -0.5453  0.4170
35515SOL     OW13405   5.671   3.824   2.536 -0.3569  0.0697  0.1982
35515SOL    HW113406   5.756   3.861   2.511 -0.6610  1.8400  1.5102
35515SOL    HW213407   5.689   3.733   2.556  1.3896  0.5571  1.0403
35516SOL     OW13408   1.392   5.595   6.690  0.2950  0.3151  0.4771
35516SOL    HW113409   1.479   5.555   6.691  0.2532  0.2251  0.7030
35516SOL    HW213410   1.394   5.659   6.761 -0.6590 -1.5348  2.2822
35517SOL     OW13411   6.850   4.144   8.000 -0.6798  0.4839 -0.0534
35517SOL    HW113412   6.893   4.162   8.084 -1.7422  2.9233  0.0676
35517SOL    HW213413   6.791   4.071   8.018 -0.3215  0.4671  1.1309
35518SOL     OW13414  11.365   7.353   6.626 -0.3780 -0.0476  0.5464
35518SOL    HW113415  11.387   7.345   6.718  2.0794  0.8818  0.1195
35518SOL    HW213416  11.348   7.446   6.613  1.2597  0.1772 -0.2701
35519SOL     OW13417  11.536   8.154   4.507 -0.1755 -0.0229 -0.7518
35519SOL    HW113418  11.571   8.077   4.462 -2.2414 -0.7420 -1.2338
35519SOL    HW213419  11.480   8.196   4.442 -0.0064  1.2548 -0.1086
35520SOL     OW13420   9.477  10.797   4.902 -0.1433 -0.4431  0.1934
35520SOL    HW113421   9.499  10.878   4.948  1.8992 -0.0353 -1.3392
35520SOL    HW213422   9.382  10.802   4.888 -0.2932  0.9392  1.4670
35521SOL     OW13423   3.193   6.577   0.647 -0.4511  0.4554 -0.3370
35521SOL    HW113424   3.135   6.501   0.651  0.3379 -0.1595 -0.4219
35521SOL    HW213425   3.169   6.629   0.724 -0.3842 -0.3274  0.2253
35522SOL     OW13426   1.446   0.764  10.628 -0.0730 -0.5456 -0.1191
35522SOL    HW113427   1.455   0.845  10.679  2.4827 -0.9786  0.2439
35522SOL    HW213428   1.444   0.793  10.537 -1.6759  0.0445  0.0764
35523SOL     OW13429   1.414   2.413   4.688  0.9595  0.1190 -0.1970
35523SOL    HW113430   1.505   2.395   4.662  0.2783 -2.5044 -1.1051
35523SOL    HW213431   1.369   2.329   4.677 -1.1039  0.7386  2.4323
35524SOL     OW13432  12.360   5.086  12.095 -0.0538  0.0424 -0.7712
35524SOL    HW113433  12.299   5.014  12.109 -0.1492  0.0808 -0.9872
35524SOL    HW213434  12.439   5.043  12.060  1.0115 -0.3573  1.8534
35525SOL     OW13435   6.570   1.374  11.695 -0.2682 -0.0206 -0.3050
35525SOL    HW113436   6.641   1.379  11.631  1.2663  0.9211  1.3965
35525SOL    HW213437   6.607   1.326  11.769 -1.9580 -0.9638 -0.0076
35526SOL     OW13438   5.118   3.697  10.170 -0.3852  0.2151 -0.7185
35526SOL    HW113439   5.107   3.608  10.205  0.4378  0.5071  0.3658
35526SOL    HW213440   5.046   3.747  10.208  2.0917  1.2470  3.2724
35527SOL     OW13441   0.256   9.999   3.984 -0.5948 -0.3582 -0.6044
35527SOL    HW113442   0.297  10.021   4.068  1.6704  0.1323 -1.7837
35527SOL    HW213443   0.244  10.083   3.940 -0.3110 -0.7419 -1.4223
35528SOL     OW13444   0.168   3.012   0.028  0.2870 -0.2882 -0.7022
35528SOL    HW113445   0.106   2.960   0.078  0.3753 -0.2903 -0.5957
35528SOL    HW213446   0.254   2.988   0.063  0.4272 -1.0531 -1.5371
35529SOL     OW13447   0.919   5.163   0.700  0.0885 -0.1571  0.3506
35529SOL    HW113448   0.829   5.188   0.719  0.7252  0.3340  3.2404
35529SOL    HW213449   0.968   5.245   0.702  0.8396 -0.6014  0.5557
35530SOL     OW13450   5.941   1.243   2.918  0.3883  0.4110 -0.4589
35530SOL    HW113451   5.939   1.312   2.852  1.7386  0.1781 -0.7822
35530SOL    HW213452   5.859   1.253   2.966 -0.1957  1.1787 -1.5665
35531SOL     OW13453   5.880   0.642   5.357 -0.1237 -0.0804 -0.1840
35531SOL    HW113454   5.947   0.640   5.289  0.1399  0.0424  0.0733
35531SOL    HW213455   5.914   0.586   5.427 -1.1785 -1.6597 -0.8747
35532SOL     OW13456   3.709  11.124   2.153 -0.2439 -0.9921 -0.4067
35532SOL    HW113457   3.635  11.077   2.193 -1.5732  0.2029 -1.3367
35532SOL    HW213458   3.711  11.092   2.063  1.8607 -2.6584  0.1582
35533SOL     OW13459   7.720   6.817   9.969 -0.1152 -0.2730  0.4611
35533SOL    HW113460   7.684   6.763   9.898 -1.8483  1.2080  0.1128
35533SOL    HW213461   7.651   6.818  10.036 -0.2420  1.5705  0.3712
35534SOL     OW13462  10.581   3.860   2.698 -0.2909  0.5132  0.2639
35534SOL    HW113463  10.498   3.870   2.653  0.4837 -1.0323 -1.6384
35534SOL    HW213464  10.607   3.949   2.722 -2.0675  1.0882  0.1735
35535SOL     OW13465   9.569   8.886   0.758 -0.4537  0.1360  0.3498
35535SOL    HW113466   9.539   8.799   0.785 -1.9719  0.6989  0.5629
35535SOL    HW213467   9.599   8.927   0.840 -1.8046  0.5858  0.6426
35536SOL     OW13468   8.292   5.404   4.457  0.1491 -0.0888  0.3526
35536SOL    HW113469   8.200   5.409   4.484  0.4561 -0.3607  1.4730
35536SOL    HW213470   8.303   5.314   4.425 -0.2240  0.2468 -0.7941
35537SOL     OW13471  11.994   3.439   4.944  0.1152 -0.1429 -0.0545
35537SOL    HW113472  11.972   3.372   4.879  0.1135 -1.8813  1.6524
35537SOL    HW213473  11.966   3.402   5.028  2.7220  0.7144  1.3233
35538SOL     OW13474  11.021   3.384   4.647 -0.2078 -0.1814 -0.0403
35538SOL    HW113475  11.061   3.432   4.719  0.3461 -0.7594  0.0473
35538SOL    HW213476  11.027   3.443   4.572  1.3474 -0.4478 -0.1695
35539SOL     OW13477   5.646   9.145   4.553 -0.0591  0.0753  0.1319
35539SOL    HW113478   5.642   9.212   4.484 -0.0726 -0.4207 -0.3604
35539SOL    HW213479   5.731   9.159   4.595  1.1862 -1.3078 -1.7640
35540SOL     OW13480  10.302   3.954   4.725 -0.0123  0.2024 -0.4521
35540SOL    HW113481  10.339   3.867   4.712  0.0747  0.4078 -1.7406
35540SOL    HW213482  10.293   3.963   4.820  2.9093 -0.0011 -0.0688
35541SOL     OW13483  10.915   1.425  10.048 -0.1003 -0.2401  0.3809
35541SOL    HW113484  10.954   1.359   9.990  0.7605  0.4507  0.1434
35541SOL    HW213485  10.895   1.499   9.989 -1.2403 -0.3552  0.6036
35542SOL     OW13486   8.964   7.928  11.045  0.2006  0.4408 -0.4708
35542SOL    HW113487   8.904   7.910  11.117 -0.7458  1.2406 -1.0207
35542SOL    HW213488   9.037   7.867  11.057 -1.1807 -1.2425 -0.3384
35543SOL     OW13489   3.578   0.985   8.535  0.0024  0.2420  0.3876
35543SOL    HW113490   3.592   0.906   8.588  0.6451  0.9029  1.2366
35543SOL    HW213491   3.485   1.004   8.546 -0.3220 -0.7705 -0.3897
35544SOL     OW13492   3.183  12.218  10.854  0.5775 -0.1173 -0.1152
35544SOL    HW113493   3.271  12.251  10.871  0.6770 -0.1860 -0.4830
35544SOL    HW213494   3.125  12.284  10.892  0.7835 -1.0059  1.8731
35545SOL     OW13495   4.335   8.740   4.651  0.0333 -0.2571 -0.0715
35545SOL    HW113496   4.332   8.807   4.581 -0.3318  1.5008  1.5462
35545SOL    HW213497   4.427   8.716   4.656  0.3095  0.7326 -0.1518
35546SOL     OW13498   0.309   7.119   0.946  0.2053 -0.1216 -0.2165
35546SOL    HW113499   0.390   7.151   0.985 -0.9749  1.7986  0.8125
35546SOL    HW213500   0.254   7.095   1.021 -0.2811 -1.1974 -0.8894
35547SOL     OW13501   3.734   6.787   6.979  0.3905  0.0321 -0.1105
35547SOL    HW113502   3.720   6.867   6.929 -0.8266 -0.0832  0.0204
35547SOL    HW213503   3.802   6.811   7.043  1.0613  0.5321 -0.9909
35548SOL     OW13504   6.865  10.841   5.593 -0.3219 -0.2218  0.0665
35548SOL    HW113505   6.900  10.753   5.575  0.8952  0.2542  0.0845
35548SOL    HW213506   6.793  10.825   5.654  0.6503 -1.1160  1.0325
35549SOL     OW13507   9.892   3.889   0.161  0.2411  0.3801 -0.3140
35549SOL    HW113508   9.927   3.904   0.249  2.4966 -0.5684 -0.9720
35549SOL    HW213509   9.810   3.938   0.159  0.8961  1.7004  1.7971
35550SOL     OW13510   8.221   4.827   6.016  0.3866 -0.0162 -0.0417
35550SOL    HW113511   8.177   4.808   5.932  1.4649 -0.8008 -0.4521
35550SOL    HW213512   8.163   4.890   6.059 -1.4933 -1.4633 -0.2774
35551SOL     OW13513   5.864   3.079   0.489  0.5772 -0.0867  0.2388
35551SOL    HW113514   5.875   3.174   0.479 -0.8497  0.3619  2.1536
35551SOL    HW213515   5.920   3.056   0.564 -1.2772 -0.1404  1.6916
35552SOL     OW13516   2.642   9.672   0.310  0.2461  0.0817 -0.6256
35552SOL    HW113517   2.564   9.687   0.364  1.9865 -0.9913  2.4329
35552SOL    HW213518   2.677   9.760   0.293 -1.5996  0.5867 -2.1589
35553SOL     OW13519  10.370  12.456  12.226 -0.0780  0.3882  0.1449
35553SOL    HW113520  10.407  12.459  12.315 -1.8343 -0.0494  0.9489
35553SOL    HW213521  10.285  12.499  12.235 -0.8316 -0.7848 -1.0197
35554SOL     OW13522   9.882   6.199   5.608  0.1652 -0.2923 -0.7929
35554SOL    HW113523   9.906   6.290   5.596  1.2093 -0.8280 -3.2918
35554SOL    HW213524   9.794   6.192   5.570 -0.0443 -0.3013 -0.3239
35555SOL     OW13525   7.104  10.287   7.088 -0.4344 -0.0117  0.3906
35555SOL    HW113526   7.192  10.323   7.080 -0.2541 -0.6197 -0.5172
35555SOL    HW213527   7.072  10.320   7.172  0.4874  0.5717  0.5264
35556SOL     OW13528  11.938   3.886   0.026 -0.1117  0.5856 -0.0696
35556SOL    HW113529  11.876   3.885  -0.046 -1.0846  1.8034  0.7050
35556SOL    HW213530  11.998   3.958   0.005  1.2496 -0.7694 -0.9566
35557SOL     OW13531  11.908   6.312   7.452  0.4050  0.3879 -0.2805
35557SOL    HW113532  11.903   6.281   7.542  3.7428  0.1908 -0.0252
35557SOL    HW213533  11.997   6.346   7.443 -1.1417  4.6067 -2.2774
35558SOL     OW13534   9.661  11.021   1.319 -0.0540 -0.4021 -0.5834
35558SOL    HW113535   9.631  10.982   1.238  0.3978 -0.2304 -0.8408
35558SOL    HW213536   9.676  10.947   1.378  1.4247 -0.6883 -1.2786
35559SOL     OW13537   5.712   9.602   8.793  0.2897 -0.2231 -0.3030
35559SOL    HW113538   5.773   9.599   8.866  0.8626  2.3385 -0.6048
35559SOL    HW213539   5.754   9.551   8.724  0.7250 -0.8878  0.4442
35560SOL     OW13540   4.990   0.979   6.975 -0.4797  0.3140  0.3802
35560SOL    HW113541   4.902   1.004   6.946 -0.8258 -0.7839  0.4173
35560SOL    HW213542   4.976   0.899   7.025  0.5834 -0.0672  0.0894
35561SOL     OW13543   7.635   3.391   1.875  0.2781  0.6068  0.2700
35561SOL    HW113544   7.632   3.444   1.954  0.6530 -1.5160  1.8074
35561SOL    HW213545   7.579   3.438   1.812 -0.9119  1.8326  2.1397
35562SOL     OW13546   5.412   4.568   4.713  0.2576 -0.2142 -0.2430
35562SOL    HW113547   5.401   4.594   4.622 -1.3453  1.0583  0.2515
35562SOL    HW213548   5.424   4.651   4.760  0.1178 -0.7748  0.8078
35563SOL     OW13549   7.053  10.199   0.559 -0.3077 -0.1961  0.4794
35563SOL    HW113550   7.109  10.122   0.568 -2.6229 -1.9432  0.7602
35563SOL    HW213551   7.000  10.181   0.481 -0.8627  1.1466  0.5181
35564SOL     OW13552   7.027   5.355   6.531 -0.1697  0.1488 -0.1739
35564SOL    HW113553   6.952   5.296   6.530  1.6605 -2.3327 -1.0363
35564SOL    HW213554   7.081   5.324   6.603 -0.2225  2.3617  0.9042
35565SOL     OW13555  11.044   2.782   6.799  0.1794 -0.2152 -0.6031
35565SOL    HW113556  11.033   2.711   6.862 -1.5390  1.3309  0.9251
35565SOL    HW213557  11.136   2.807   6.806  0.6658 -1.8204 -0.7305
35566SOL     OW13558   7.398   9.294   4.498  0.4046  0.2082  0.7154
35566SOL    HW113559   7.319   9.250   4.468  0.8197  0.8937 -1.5801
35566SOL    HW213560   7.441   9.231   4.555  0.4334 -2.0064 -1.5730
35567SOL     OW13561   8.249   9.390   7.731  0.7682 -0.3152  0.0507
35567SOL    HW113562   8.298   9.419   7.809  0.2606  0.1170  0.2114
35567SOL    HW213563   8.305   9.415   7.658  0.1828  1.4713  0.1552
35568SOL     OW13564   6.913   0.139   3.791 -0.6573  0.5602 -0.1263
35568SOL    HW113565   6.989   0.106   3.743 -0.5698 -0.7356  0.8409
35568SOL    HW213566   6.866   0.060   3.818 -0.6548  1.2134  1.9682
35569SOL     OW13567   9.653   1.474   2.058 -0.1183  0.0306  0.0957
35569SOL    HW113568   9.722   1.410   2.068  0.8102  0.8921 -0.6431
35569SOL    HW213569   9.625   1.493   2.148  1.5262  0.6405  0.5160
35570SOL     OW13570   7.481   5.013   8.602  0.5231  0.6385  0.0591
35570SOL    HW113571   7.557   4.988   8.653  0.1265 -0.0276  0.3389
35570SOL    HW213572   7.407   4.975   8.649  0.0336  1.1290 -0.2996
35571SOL     OW13573   9.695   1.268   6.791  0.1136  0.2792 -0.1706
35571SOL    HW113574   9.672   1.194   6.734 -0.7510  0.9254 -0.7004
35571SOL    HW213575   9.657   1.246   6.876 -0.6204  0.3551 -0.4733
35572SOL     OW13576   4.297   5.277   5.846 -0.3769  0.4631 -0.0360
35572SOL    HW113577   4.210   5.276   5.807 -0.0785  0.0770 -0.7265
35572SOL    HW213578   4.297   5.204   5.908 -0.7765  0.9242  0.5140
35573SOL     OW13579   2.811   2.188  12.420  0.2376 -0.3366 -0.3038
35573SOL    HW113580   2.746   2.188  12.350  0.3517  0.8272 -0.4312
35573SOL    HW213581   2.873   2.120  12.395  0.3738  0.1738 -1.4478
35574SOL     OW13582  10.420   2.606   8.723  0.3093  0.0401  0.0701
35574SOL    HW113583  10.373   2.637   8.801 -1.3085 -1.1715 -0.3662
35574SOL    HW213584  10.376   2.525   8.699  0.2584  0.7577 -2.5530
35575SOL     OW13585  11.217   3.893   5.866 -0.1867 -0.2778 -0.0163
35575SOL    HW113586  11.194   3.972   5.915  0.2531 -0.1257 -0.0442
35575SOL    HW213587  11.200   3.821   5.926 -1.2009 -0.2170 -0.2089
35576SOL     OW13588   4.619   4.755   3.480  0.6551  0.0417 -0.4273
35576SOL    HW113589   4.549   4.817   3.498 -1.1354 -2.0384  0.1803
35576SOL    HW213590   4.680   4.803   3.424 -1.8661  1.5373 -2.0602
35577SOL     OW13591   3.260   7.417   2.193 -0.3461 -0.5725 -0.2095
35577SOL    HW113592   3.191   7.483   2.194 -0.8900 -1.1304  0.7295
35577SOL    HW213593   3.303   7.425   2.278  0.1546 -0.8492 -0.4298
35578SOL     OW13594   9.399   6.661  11.571  0.5669 -0.2545  0.0078
35578SOL    HW113595   9.488   6.654  11.536  0.1601 -1.1061 -0.8971
35578SOL    HW213596   9.403   6.619  11.657  0.8852 -0.9137 -0.3218
35579SOL     OW13597   2.319   3.442   5.038  0.1061 -0.3472 -0.3318
35579SOL    HW113598   2.318   3.536   5.024 -3.4332 -0.2899 -0.5397
35579SOL    HW213599   2.322   3.404   4.950  4.5475 -0.6872 -0.2775
35580SOL     OW13600  12.210   4.727   3.306 -0.2329 -0.6843  0.2907
35580SOL    HW113601  12.260   4.790   3.254 -1.4542 -0.1487 -0.2769
35580SOL    HW213602  12.153   4.781   3.361  0.2791 -1.2723  1.4223
35581SOL     OW13603   9.398   2.151   9.737  0.2911 -0.3767 -0.5032
35581SOL    HW113604   9.401   2.094   9.660  3.3588  0.8815 -1.4677
35581SOL    HW213605   9.463   2.113   9.797  1.1782  1.1352 -0.4704
35582SOL     OW13606   8.668   2.321  10.025 -0.6861 -0.3059  0.0692
35582SOL    HW113607   8.726   2.320  10.101 -1.4507 -1.1738  0.6581
35582SOL    HW213608   8.714   2.269   9.959  0.1318  0.7238 -0.2021
35583SOL     OW13609   1.483   1.397   9.733 -0.1328  0.2610  0.1021
35583SOL    HW113610   1.441   1.337   9.672  0.4578 -1.0136  0.9239
35583SOL    HW213611   1.411   1.432   9.786 -0.3843 -0.3999  0.2031
35584SOL     OW13612   0.182  11.663   2.124 -0.3912  0.1118  0.3780
35584SOL    HW113613   0.264  11.706   2.149 -0.0773 -0.5603  0.5253
35584SOL    HW213614   0.138  11.645   2.207 -1.7869  2.5019  0.2511
35585SOL     OW13615   3.573   5.796   2.043 -0.7791  0.6121  0.9591
35585SOL    HW113616   3.562   5.821   1.951 -1.3956 -0.3688  0.7478
35585SOL    HW213617   3.500   5.737   2.060  0.1850 -0.4032  1.6519
35586SOL     OW13618   6.355   6.713  12.044  0.0482  0.1177 -0.5730
35586SOL    HW113619   6.440   6.691  12.082 -0.8557 -1.5383  0.6163
35586SOL    HW213620   6.333   6.638  11.988 -1.9079 -0.9094  1.4432
35587SOL     OW13621   6.339   6.161   6.318 -0.1836 -0.0111  0.2640
35587SOL    HW113622   6.404   6.208   6.267 -2.5147  1.3591 -1.6745
35587SOL    HW213623   6.371   6.071   6.322  1.8415  0.6312 -0.4591
35588SOL     OW13624  10.277   3.937   0.187  0.1899 -0.2866 -0.5875
35588SOL    HW113625  10.245   3.962   0.274 -2.2894 -0.0913 -1.4930
35588SOL    HW213626  10.248   4.008   0.130  0.9026 -0.9131 -1.7516
35589SOL     OW13627  10.140   9.288  10.023 -0.0172 -0.0539  0.4075
35589SOL    HW113628  10.119   9.205   9.980  0.7473  0.5955 -1.3497
35589SOL    HW213629  10.087   9.353   9.976  2.1782  0.9388 -0.8735
35590SOL     OW13630   0.973   4.445  11.466  0.0741 -0.1801 -0.1271
35590SOL    HW113631   0.992   4.394  11.387 -0.4229 -1.1701  0.3810
35590SOL    HW213632   0.887   4.485  11.448 -0.4105 -1.0475  0.2200
35591SOL     OW13633   9.135   0.642  10.422  0.0843  0.1523  0.1473
35591SOL    HW113634   9.057   0.604  10.382  0.1751  0.1843 -0.0630
35591SOL    HW213635   9.178   0.568  10.465 -0.4683  0.2795  0.9387
35592SOL     OW13636   5.255  10.813   5.920 -0.4059  0.1056 -0.3226
35592SOL    HW113637   5.201  10.818   5.841 -1.2319 -0.0023  0.2176
35592SOL    HW213638   5.216  10.741   5.971  0.3414 -0.0669  0.0177
35593SOL     OW13639   7.511   8.751   4.550 -0.1885  0.0323 -0.2396
35593SOL    HW113640   7.511   8.676   4.490  1.2115 -1.4261  1.4656
35593SOL    HW213641   7.421   8.754   4.584 -0.3395 -0.7049 -0.5527
35594SOL     OW13642   8.895   5.635   3.826 -0.0253 -0.0398 -0.4373
35594SOL    HW113643   8.882   5.723   3.789  1.8143 -0.3153 -1.8514
35594SOL    HW213644   8.885   5.576   3.752  0.9100 -0.8548  0.0644
35595SOL     OW13645   3.786   5.185  11.525  0.3498  0.6307  0.0136
35595SOL    HW113646   3.814   5.268  11.565 -0.1798  1.6837 -1.6902
35595SOL    HW213647   3.867   5.137  11.510  0.7283  1.1264  0.4414
35596SOL     OW13648   6.903  11.041   6.811  0.4710  0.1267  0.5968
35596SOL    HW113649   6.983  11.093   6.801  0.9839 -0.6225  0.7687
35596SOL    HW213650   6.923  10.979   6.881 -0.3090  0.0077  0.7278
35597SOL     OW13651   6.433   8.996   6.342 -0.5002 -0.2727 -0.4095
35597SOL    HW113652   6.367   8.929   6.320  0.1979 -1.8626  1.8874
35597SOL    HW213653   6.486   8.954   6.410  1.9854  1.5051 -1.1448
35598SOL     OW13654   5.217   1.019   3.643  0.2375 -0.2371  0.3383
35598SOL    HW113655   5.245   0.938   3.686 -1.1792 -0.5184  0.7901
35598SOL    HW213656   5.150   0.991   3.581 -0.5835  0.6213  0.8031
35599SOL     OW13657   7.476   4.014   5.691 -0.6100 -0.1591  0.1462
35599SOL    HW113658   7.509   3.990   5.605 -0.3785 -0.1353  0.2292
35599SOL    HW213659   7.392   4.057   5.673  0.7406  2.5282 -0.3210
35600SOL     OW13660  11.001  10.204   2.922  0.4043  0.5157 -0.8803
35600SOL    HW113661  10.929  10.229   2.864  0.3757  0.4778 -0.8615
35600SOL    HW213662  11.036  10.288   2.954 -0.0417  0.5225 -0.3904
35601SOL     OW13663   2.276   6.864   2.358  0.5990 -0.5714  0.0601
35601SOL    HW113664   2.206   6.848   2.294  0.1245  2.0387 -0.1564
35601SOL    HW213665   2.270   6.789   2.418 -1.4892 -1.1261 -0.7386
35602SOL     OW13666  11.005   4.854   7.657 -0.2711 -0.2016 -0.3193
35602SOL    HW113667  10.984   4.824   7.568 -1.6685 -0.5781  0.1151
35602SOL    HW213668  10.959   4.793   7.714  0.8000 -0.0924  0.6834
35603SOL     OW13669  10.487   6.411   8.966  0.2026  0.2763  0.2246
35603SOL    HW113670  10.517   6.410   9.057 -0.0658 -1.2843  0.3243
35603SOL    HW213671  10.439   6.328   8.956 -1.0015  1.0738 -0.9360
35604SOL     OW13672   9.780  12.455   9.353  0.0130  0.1749 -0.6324
35604SOL    HW113673   9.852  12.424   9.299  0.3277  0.0116 -0.1178
35604SOL    HW213674   9.820  12.519   9.412 -0.1574 -0.2924  0.0021
35605SOL     OW13675   9.828   9.389   4.127  0.2818  0.0959 -0.1381
35605SOL    HW113676   9.785   9.407   4.044  2.1532 -1.8185 -1.6561
35605SOL    HW213677   9.758   9.361   4.185 -1.1333  1.8525 -0.8897
35606SOL     OW13678   4.802  10.062   8.697 -0.1178 -0.3935 -0.4954
35606SOL    HW113679   4.894  10.074   8.675 -0.3383 -1.3452 -2.0707
35606SOL    HW213680   4.779   9.976   8.663 -2.6216  1.4183 -4.1380
35607SOL     OW13681   0.450  11.404   2.765 -0.3307  0.1086  0.6700
35607SOL    HW113682   0.369  11.371   2.726  0.9209 -0.3720 -1.7317
35607SOL    HW213683   0.466  11.347   2.840 -0.7076 -1.7071 -0.5753
35608SOL     OW13684   0.516   5.521   7.066  0.0935  0.1263  0.1574
35608SOL    HW113685   0.457   5.498   7.138  1.3834  0.0369  1.2351
35608SOL    HW213686   0.581   5.451   7.065  0.4697  0.4776 -0.6666
35609SOL     OW13687   8.066   1.174   9.158  0.0380  0.1141 -0.0135
35609SOL    HW113688   8.051   1.088   9.118 -0.2270  0.4368 -0.6214
35609SOL    HW213689   8.000   1.231   9.118  1.0773  0.9152 -0.6237
35610SOL     OW13690   2.074   9.546  11.241 -0.0255  0.1525 -0.5033
35610SOL    HW113691   2.150   9.589  11.282 -0.2584  1.1236 -1.0661
35610SOL    HW213692   2.083   9.564  11.148 -0.5354 -0.3997 -0.6668
35611SOL     OW13693   2.643   6.443   6.688 -0.2389 -0.3762 -0.0014
35611SOL    HW113694   2.598   6.391   6.755 -0.7318 -1.2410 -0.9660
35611SOL    HW213695   2.582   6.513   6.666 -1.5110 -1.9588 -1.8213
35612SOL     OW13696   4.770   0.357   3.364  0.2323 -0.1499  0.1722
35612SOL    HW113697   4.792   0.371   3.272 -1.0075  1.8647  0.1324
35612SOL    HW213698   4.688   0.308   3.362 -0.8136  1.5510  0.1396
35613SOL     OW13699  12.209   9.745   2.690  0.4845 -0.3370  0.1136
35613SOL    HW113700  12.148   9.766   2.619  1.9494  2.7266 -0.4111
35613SOL    HW213701  12.220   9.650   2.685 -2.7967 -0.7934 -0.8896
35614SOL     OW13702  11.280   6.511   9.436  0.1332 -0.0963  0.4675
35614SOL    HW113703  11.189   6.489   9.456 -0.4303  0.5848 -1.1628
35614SOL    HW213704  11.301   6.583   9.496 -0.0104 -0.9821  1.6141
35615SOL     OW13705   0.402   0.014   3.502 -0.0726  0.5268  0.6816
35615SOL    HW113706   0.348   0.070   3.446 -0.0811 -0.5879 -0.4868
35615SOL    HW213707   0.340  -0.042   3.547 -0.0009  0.5718  0.8347
35616SOL     OW13708   2.866   5.643  10.822  1.1427  0.3228 -0.2567
35616SOL    HW113709   2.805   5.632  10.750  1.2787 -0.7404 -0.2257
35616SOL    HW213710   2.910   5.558  10.830 -0.3499 -0.3318  2.4323
35617SOL     OW13711   1.739   1.473  12.334  0.8167 -0.5198  0.5461
35617SOL    HW113712   1.813   1.414  12.324  0.2885 -1.0572 -0.2738
35617SOL    HW213713   1.707   1.457  12.423  0.3840 -1.8324  0.1702
35618SOL     OW13714   6.561   3.178   1.006  0.1839  0.3205  0.3165
35618SOL    HW113715   6.627   3.156   1.071  0.4722  0.8359  0.2022
35618SOL    HW213716   6.598   3.149   0.923  0.3483  0.7648  0.2299
35619SOL     OW13717   8.442   3.642  11.932 -0.3534  0.0325  0.2479
35619SOL    HW113718   8.399   3.560  11.906 -0.3263  0.2887 -0.6286
35619SOL    HW213719   8.535   3.618  11.939 -0.3864 -0.0841  0.2909
35620SOL     OW13720  11.640   3.850   3.496 -0.4759  0.5775 -0.4063
35620SOL    HW113721  11.604   3.823   3.581 -1.4179 -0.6016 -1.1350
35620SOL    HW213722  11.681   3.770   3.461  1.0156  1.3686 -0.5290
35621SOL     OW13723   6.372   8.699  11.559  0.2870 -0.2867  0.8249
35621SOL    HW113724   6.287   8.725  11.523  0.7419 -1.3136 -1.0861
35621SOL    HW213725   6.435   8.759  11.519  0.4023  1.5079  3.4094
35622SOL     OW13726   9.521   1.774   2.606 -0.0995 -0.0278  0.3348
35622SOL    HW113727   9.567   1.770   2.521  2.1060 -0.1795  1.4575
35622SOL    HW213728   9.483   1.687   2.616  1.3455 -0.6861  0.3648
35623SOL     OW13729  11.919   7.907  12.239  0.6245 -0.4466 -0.1327
35623SOL    HW113730  11.852   7.845  12.209  0.1912  0.0451 -0.1772
35623SOL    HW213731  11.878   7.956  12.310 -0.2057  2.0331 -2.1858
35624SOL     OW13732  12.350   7.750   9.207  0.2164 -0.2152  0.5338
35624SOL    HW113733  12.328   7.676   9.264  0.9831  0.0182  1.1394
35624SOL    HW213734  12.429   7.722   9.160 -0.5632 -0.5215 -0.6500
35625SOL     OW13735  11.158   8.474   8.825 -0.4165 -0.4538 -0.1658
35625SOL    HW113736  11.220   8.546   8.820 -1.5188  0.7005  1.7043
35625SOL    HW213737  11.209   8.400   8.857  0.4037 -0.0829 -0.6019
35626SOL     OW13738  10.656  10.338  12.344 -0.3225 -0.0554 -0.3305
35626SOL    HW113739  10.677  10.430  12.359  1.0356 -0.3902 -0.1103
35626SOL    HW213740  10.689  10.292  12.421 -0.5929 -0.7877 -0.6411
35627SOL     OW13741  11.994   0.962   4.361 -0.0905 -0.0131  0.2636
35627SOL    HW113742  12.006   1.044   4.410 -0.9308  0.5856 -0.4986
35627SOL    HW213743  11.992   0.894   4.428  1.5813  0.4733  0.8431
35628SOL     OW13744   9.432   8.423   1.653  0.3744  0.6550  0.0115
35628SOL    HW113745   9.410   8.365   1.726 -0.7962  0.5072 -0.4398
35628SOL    HW213746   9.491   8.372   1.599  0.0783  0.2191  0.0927
35629SOL     OW13747   7.610   8.385   9.373  0.4744  0.6062 -1.0071
35629SOL    HW113748   7.699   8.352   9.384  0.5626  0.7393 -1.2929
35629SOL    HW213749   7.586   8.359   9.284  0.1086  0.2977 -0.8228
35630SOL     OW13750   9.670   2.073   6.553 -0.2241 -0.7901 -0.1602
35630SOL    HW113751   9.644   2.161   6.582 -3.5700 -0.4951 -3.2793
35630SOL    HW213752   9.595   2.018   6.576  0.1103 -1.9450 -1.7105
35631SOL     OW13753   4.555   0.203   3.312  0.3562  0.2105  0.3931
35631SOL    HW113754   4.474   0.254   3.312  0.5666  0.6575 -1.8233
35631SOL    HW213755   4.535   0.127   3.366 -1.8192 -0.0256 -0.6252
35632SOL     OW13756   9.133   3.380   6.118 -1.0964  0.5273  0.2210
35632SOL    HW113757   9.221   3.366   6.152 -0.9909 -2.1036 -0.8807
35632SOL    HW213758   9.128   3.474   6.100  1.3748  0.7658  0.5219
35633SOL     OW13759   1.185   2.337   4.057 -0.0101  0.2385  0.0443
35633SOL    HW113760   1.228   2.367   3.978  0.1744  1.2833  0.5211
35633SOL    HW213761   1.094   2.322   4.031  0.3456 -0.7514 -0.6671
35634SOL     OW13762   5.253   6.410  11.789 -0.0480 -0.5744  0.0302
35634SOL    HW113763   5.177   6.361  11.819 -1.0534  1.0930  0.3613
35634SOL    HW213764   5.306   6.421  11.868 -0.3352 -0.2617  0.1838
35635SOL     OW13765   9.238   9.991   8.154 -0.3895 -0.4275  0.2927
35635SOL    HW113766   9.172   9.922   8.141  0.3455 -1.5848  2.3085
35635SOL    HW213767   9.212  10.060   8.093 -2.6021 -1.4571 -0.0385
35636SOL     OW13768   5.044   3.096  12.193  0.2992 -0.2620 -0.2289
35636SOL    HW113769   4.973   3.057  12.142 -0.3797 -2.5932  2.2684
35636SOL    HW213770   5.007   3.177  12.228 -0.3948 -0.3955 -0.6313
35637SOL     OW13771   2.327   8.944   1.733  0.0743 -0.0935  0.0665
35637SOL    HW113772   2.311   9.005   1.661  0.5460 -0.0400  0.0060
35637SOL    HW213773   2.243   8.940   1.780 -0.4381 -0.6510 -0.8733
35638SOL     OW13774   5.939   5.062   3.985  0.4303  0.0756 -0.1738
35638SOL    HW113775   5.911   5.123   3.917  0.3833 -1.0061 -1.1646
35638SOL    HW213776   5.857   5.036   4.028  0.1108 -1.2383 -1.4765
35639SOL     OW13777   9.128  11.219  11.738 -0.2373  0.4505  0.0029
35639SOL    HW113778   9.154  11.289  11.678 -1.8934  0.7938 -0.3545
35639SOL    HW213779   9.186  11.230  11.814  0.7910  1.0138 -0.8448
35640SOL     OW13780   6.373   7.616   9.758 -0.6038  0.3044  0.5256
35640SOL    HW113781   6.402   7.669   9.832  1.1017  0.2026 -0.0114
35640SOL    HW213782   6.423   7.534   9.766 -1.5824 -0.3587  0.1362
35641SOL     OW13783   6.837  10.384   3.319  0.6255  0.0198 -0.7041
35641SOL    HW113784   6.887  10.302   3.318  1.6027  0.5922 -2.0932
35641SOL    HW213785   6.867  10.431   3.241  0.4986  1.9376  0.3450
35642SOL     OW13786  12.455   3.717  11.494 -0.0001  1.0341  0.2422
35642SOL    HW113787  12.441   3.811  11.501 -0.9936  1.1336 -2.0810
35642SOL    HW213788  12.550   3.706  11.492  0.1228  2.1060 -0.4273
35643SOL     OW13789  11.256   9.586   0.087 -0.6634  0.4329  0.2149
35643SOL    HW113790  11.266   9.681   0.080 -3.0280  0.7987  1.0346
35643SOL    HW213791  11.311   9.561   0.162  1.5316  0.7997 -1.1982
35644SOL     OW13792   5.486   3.609   4.665  0.1940 -0.1766 -0.0121
35644SOL    HW113793   5.552   3.543   4.643  1.1933  0.4412  1.0371
35644SOL    HW213794   5.437   3.571   4.738  1.4703  0.6347  1.3180
35645SOL     OW13795   4.905   9.090  11.486 -0.2214  0.1789  0.0705
35645SOL    HW113796   4.813   9.069  11.466  0.2329 -0.9646 -0.9112
35645SOL    HW213797   4.919   9.175  11.444 -0.6918  0.1222 -0.2111
35646SOL     OW13798   9.206   5.561   2.824 -0.8493 -0.3469  0.8888
35646SOL    HW113799   9.248   5.485   2.784  2.2570  0.9873  1.3338
35646SOL    HW213800   9.242   5.565   2.913 -2.4038  0.5973  1.5270
35647SOL     OW13801   0.690   9.484   7.991  0.3411 -0.0342  0.3426
35647SOL    HW113802   0.613   9.471   7.936  1.1900 -0.3015 -0.8487
35647SOL    HW213803   0.688   9.577   8.013 -0.1797  0.0182  0.0943
35648SOL     OW13804  12.193  12.345   2.182  0.3729 -0.6876  0.5878
35648SOL    HW113805  12.143  12.386   2.253  0.8298  1.6910 -0.3758
35648SOL    HW213806  12.127  12.330   2.113  0.5480  0.4553  0.1428
35649SOL     OW13807   2.290  10.878   7.791  0.5164 -0.2820  0.3214
35649SOL    HW113808   2.287  10.786   7.767  1.8593  0.1693 -1.8214
35649SOL    HW213809   2.382  10.902   7.784 -0.0909  1.8028 -1.7610
35650SOL     OW13810   9.783  12.476   8.228 -0.4187 -0.2264 -0.0887
35650SOL    HW113811   9.752  12.534   8.159 -0.6609  0.2760  0.4359
35650SOL    HW213812   9.732  12.501   8.305 -2.1704 -2.5993 -0.3406
35651SOL     OW13813   2.555   5.505   8.141 -0.0711 -0.1887  0.0003
35651SOL    HW113814   2.612   5.566   8.187 -1.4829 -1.1291  3.2850
35651SOL    HW213815   2.500   5.561   8.085  1.5317  1.0549 -0.4012
35652SOL     OW13816   9.052   8.114   2.263  0.2248 -0.2877  0.7308
35652SOL    HW113817   9.048   8.023   2.289  1.3002 -0.9447 -1.1698
35652SOL    HW213818   8.961   8.138   2.244  0.1983 -2.1411 -2.1720
35653SOL     OW13819   2.018   3.022   2.350  0.1859  0.4703  0.2563
35653SOL    HW113820   2.078   2.985   2.414 -0.9334 -0.4866  0.7914
35653SOL    HW213821   2.073   3.046   2.276  1.4846  1.4326  1.4789
35654SOL     OW13822   2.257   9.771   7.596 -0.0932  0.8047 -0.2805
35654SOL    HW113823   2.163   9.791   7.591  0.3285  2.8045 -0.9259
35654SOL    HW213824   2.287   9.775   7.506  0.4519 -0.9135 -0.2135
35655SOL     OW13825   4.129   7.710   6.969  0.4172  0.4255 -0.6930
35655SOL    HW113826   4.074   7.650   7.020  0.2760  0.0651 -1.2650
35655SOL    HW213827   4.141   7.786   7.026  1.7076 -0.6853  0.5983
35656SOL     OW13828   6.153   4.624   7.662 -0.0982  0.1921 -0.2370
35656SOL    HW113829   6.070   4.665   7.689 -0.7168  0.1908 -2.0100
35656SOL    HW213830   6.167   4.655   7.572  1.1365 -0.8726 -0.4367
35657SOL     OW13831   8.387  10.985   8.233  0.1788 -0.2865 -0.3397
35657SOL    HW113832   8.465  11.032   8.262  0.4340 -2.1027  2.1998
35657SOL    HW213833   8.315  11.044   8.254  0.6892  0.3913 -0.4382
35658SOL     OW13834  11.062   3.544   7.441 -0.5568  0.5463  0.1930
35658SOL    HW113835  11.009   3.554   7.520  0.1761  0.2144  0.7494
35658SOL    HW213836  11.139   3.495   7.471 -0.1969  0.5500 -0.7006
35659SOL     OW13837   3.436   7.526  11.325 -0.5720  0.0028 -0.0925
35659SOL    HW113838   3.402   7.439  11.304  0.4436 -0.2372 -0.8339
35659SOL    HW213839   3.362   7.585  11.311 -1.4483 -0.7992  1.0187
35660SOL     OW13840   0.971   4.662   7.928 -0.2737  0.4982 -0.3006
35660SOL    HW113841   0.982   4.691   8.018 -0.0595  1.1234 -0.5247
35660SOL    HW213842   1.049   4.609   7.910  0.0616  1.0002 -0.3563
35661SOL     OW13843   7.856  12.422   2.379 -0.3070 -0.0179  0.0472
35661SOL    HW113844   7.833  12.482   2.450  1.4426  0.4228  0.2912
35661SOL    HW213845   7.865  12.337   2.421  0.0706  0.1186  0.2540
35662SOL     OW13846  12.211   3.376   4.651  0.3260  0.0742  0.7327
35662SOL    HW113847  12.227   3.292   4.607  3.4372  0.6635  0.5566
35662SOL    HW213848  12.169   3.352   4.734 -1.1550 -1.4029 -0.3710
35663SOL     OW13849   3.355   5.643   9.811 -0.2763  0.1041 -0.2324
35663SOL    HW113850   3.397   5.623   9.727  0.3306  0.1388  0.0586
35663SOL    HW213851   3.283   5.702   9.788  2.4801  3.7500 -0.3003
35664SOL     OW13852   1.554  11.658   0.544  0.2971  0.4187  0.0294
35664SOL    HW113853   1.589  11.579   0.504  3.6266  0.4598  2.4047
35664SOL    HW213854   1.616  11.727   0.519 -0.6818  1.5619  0.6665
35665SOL     OW13855  10.920   9.404   9.608 -0.7558 -0.6218  0.5442
35665SOL    HW113856  11.004   9.451   9.605 -0.0103 -1.9316 -0.3101
35665SOL    HW213857  10.865   9.449   9.544  0.9714 -2.6264 -2.6463
35666SOL     OW13858   8.237   3.434   7.755  0.0578 -0.3547  0.6332
35666SOL    HW113859   8.279   3.490   7.819  1.6958 -0.3413 -0.4043
35666SOL    HW213860   8.277   3.348   7.768 -0.3661 -0.6061  0.3164
35667SOL     OW13861   4.540   9.922   8.035 -0.2541  0.2650 -0.0471
35667SOL    HW113862   4.588   9.967   7.965 -1.7639  1.9827 -0.0684
35667SOL    HW213863   4.567   9.831   8.028  0.3457  0.5444 -2.2940
35668SOL     OW13864   2.715   8.825   5.907  0.1872 -0.2078  0.0115
35668SOL    HW113865   2.809   8.830   5.893  0.0695  0.9834 -0.4014
35668SOL    HW213866   2.689   8.913   5.935 -0.8577 -0.4097 -0.2586
35669SOL     OW13867   1.750   3.920  10.276 -0.4562 -0.5105 -0.4237
35669SOL    HW113868   1.826   3.975  10.258 -1.1036  0.1870 -1.0691
35669SOL    HW213869   1.767   3.840  10.227 -0.5166 -0.0375 -1.2331
35670SOL     OW13870   5.121   6.950   9.705 -0.1188  0.1490 -0.4554
35670SOL    HW113871   5.169   7.029   9.729 -0.0029 -0.2009  0.5118
35670SOL    HW213872   5.174   6.878   9.739 -0.2299 -0.3608 -1.3149
35671SOL     OW13873   0.659   4.425   5.047  0.0938  0.0655  0.0507
35671SOL    HW113874   0.611   4.379   5.116  0.2787  1.0549  0.8664
35671SOL    HW213875   0.601   4.497   5.022  0.2855  0.0657 -0.3941
35672SOL     OW13876   1.234   3.487   0.948  0.2292  0.4475 -0.2310
35672SOL    HW113877   1.171   3.454   0.884 -0.3350  2.5683 -0.8598
35672SOL    HW213878   1.206   3.577   0.964  0.8820  0.2860  2.3613
35673SOL     OW13879  12.020   2.117   2.823 -0.5407 -0.6826  0.1596
35673SOL    HW113880  12.011   2.053   2.893 -0.4549 -0.4221  0.4135
35673SOL    HW213881  11.981   2.197   2.859 -2.4553 -1.0918 -0.8625
35674SOL     OW13882   9.674   5.867   8.506  0.3669 -0.4702  0.2968
35674SOL    HW113883   9.579   5.875   8.519  0.3793 -0.3751  0.3324
35674SOL    HW213884   9.697   5.786   8.550  0.1979 -0.8393 -0.2800
35675SOL     OW13885  10.004   4.129   8.230 -0.4386 -0.5629  0.2958
35675SOL    HW113886  10.064   4.055   8.235  0.3983  0.1066  0.3866
35675SOL    HW213887   9.986   4.152   8.321 -0.2610 -0.3132  0.2699
35676SOL     OW13888   0.190  11.641   4.210 -0.4653 -0.4409  0.0256
35676SOL    HW113889   0.193  11.597   4.295  0.2644 -0.3615  0.0523
35676SOL    HW213890   0.233  11.725   4.225 -0.5972 -0.3007 -0.3537
35677SOL     OW13891   8.091   9.321   6.585  0.2742 -0.5588  0.1618
35677SOL    HW113892   8.179   9.305   6.552  0.4187  1.0413 -0.3096
35677SOL    HW213893   8.101   9.321   6.680  0.6184 -1.1764  0.1331
35678SOL     OW13894   5.127  11.100   6.374 -0.6766  0.1506  0.2705
35678SOL    HW113895   5.117  11.079   6.467  0.3674  0.9581  0.5784
35678SOL    HW213896   5.116  11.195   6.370 -0.1841  0.1826 -0.3518
35679SOL     OW13897   1.287  10.023   7.890 -0.2941 -0.6787 -0.5026
35679SOL    HW113898   1.267  10.065   7.806 -0.7314  0.6910  0.2484
35679SOL    HW213899   1.202  10.009   7.931 -0.0773 -1.2348 -0.2311
35680SOL     OW13900  10.151   7.138  10.813 -0.2165  0.4270  0.0223
35680SOL    HW113901  10.196   7.170  10.735 -1.2823 -2.1964 -1.8345
35680SOL    HW213902  10.218   7.090  10.861 -0.5819 -2.8636 -2.3754
35681SOL     OW13903   8.993   8.722   3.834 -0.4802 -0.5677 -0.3786
35681SOL    HW113904   8.944   8.804   3.840 -0.9481 -0.7892 -1.1120
35681SOL    HW213905   8.931   8.659   3.798  0.2589 -0.9136 -1.0904
35682SOL     OW13906  10.728  11.967   6.851 -0.1491  0.3618  0.0297
35682SOL    HW113907  10.818  11.957   6.823 -1.0096 -1.4195 -2.4187
35682SOL    HW213908  10.710  11.891   6.906  0.1754  1.4457  1.7236
35683SOL     OW13909  12.152  12.399   9.448 -0.5173  0.2875 -0.3449
35683SOL    HW113910  12.213  12.352   9.505  0.3304  1.0285 -0.6112
35683SOL    HW213911  12.070  12.401   9.497 -1.2257 -3.1345 -1.0874
35684SOL     OW13912   5.358   9.313   8.608 -0.3979 -0.0687 -0.1070
35684SOL    HW113913   5.417   9.257   8.657 -2.2295 -2.2067 -0.2059
35684SOL    HW213914   5.352   9.273   8.521 -1.7622  0.2185 -0.1763
35685SOL     OW13915   3.948   8.262   5.857 -0.1751  0.0793 -0.5070
35685SOL    HW113916   3.934   8.167   5.855  0.3849 -0.0025 -0.5606
35685SOL    HW213917   4.007   8.279   5.784  0.1054  0.4077 -0.2054
35686SOL     OW13918   8.240   8.793   9.379  0.4695 -0.0492 -0.2608
35686SOL    HW113919   8.176   8.862   9.358 -1.4955 -0.8342  2.6061
35686SOL    HW213920   8.202   8.713   9.342 -0.5498 -0.6004  1.8626
35687SOL     OW13921   5.928   7.083   8.845 -0.0930  0.4183  0.0065
35687SOL    HW113922   5.929   6.989   8.861  0.3613  0.5590  0.8648
35687SOL    HW213923   6.003   7.117   8.894  0.6134  1.0608 -1.4237
35688SOL     OW13924  11.840   1.544   2.187  0.1762  0.8233  0.1512
35688SOL    HW113925  11.762   1.555   2.134  0.5881  3.6793 -0.0533
35688SOL    HW213926  11.812   1.490   2.261 -1.5592  0.4909 -0.7109
35689SOL     OW13927   3.020   4.096   7.503 -0.1860 -0.2113 -0.0536
35689SOL    HW113928   3.074   4.017   7.510 -0.4257 -0.2332  2.5530
35689SOL    HW213929   3.082   4.168   7.511 -0.1474 -0.1667 -0.7511
35690SOL     OW13930   6.814   7.204   0.577 -0.7693  0.0981 -0.0533
35690SOL    HW113931   6.843   7.275   0.634 -1.0006  0.1770 -0.0331
35690SOL    HW213932   6.872   7.209   0.501 -0.0402 -0.4090  0.4533
35691SOL     OW13933   8.987  12.111   8.510 -0.1557  0.0857 -0.2780
35691SOL    HW113934   8.999  12.198   8.547  0.3752  0.4937 -1.3741
35691SOL    HW213935   8.913  12.075   8.558  0.9308  0.3087  1.6618
35692SOL     OW13936  10.009   1.748   9.020  0.5853 -0.2338 -0.2719
35692SOL    HW113937  10.049   1.825   8.979  0.4251  0.1019  0.1897
35692SOL    HW213938  10.052   1.674   8.979  0.6863  0.1022 -0.7814
35693SOL     OW13939   8.043   1.516   6.037  0.2346  0.0468  0.0319
35693SOL    HW113940   8.127   1.485   6.005 -0.0476  0.2717 -0.9464
35693SOL    HW213941   7.993   1.435   6.053  0.6221 -0.0850  0.6076
35694SOL     OW13942   7.896   3.977  11.347 -0.1209  0.2983  0.1496
35694SOL    HW113943   7.979   3.972  11.395 -0.7599  2.1242  1.5578
35694SOL    HW213944   7.918   3.944  11.259  2.0517  0.5802  0.5179
35695SOL     OW13945   7.606   5.621   6.641  0.1621  0.4955 -0.1352
35695SOL    HW113946   7.685   5.581   6.604 -0.0140  0.3859 -0.3923
35695SOL    HW213947   7.581   5.687   6.577 -0.1633  0.2841 -0.2247
35696SOL     OW13948  11.046   6.631   4.339  0.2958 -0.1828 -0.1116
35696SOL    HW113949  11.124   6.576   4.342  0.8573  0.4918 -1.6973
35696SOL    HW213950  11.061   6.692   4.267 -2.0179 -0.5193 -0.9599
35697SOL     OW13951  11.942  11.981   9.321  0.0272 -0.3018  0.2498
35697SOL    HW113952  11.941  12.026   9.405 -1.4688  1.4212 -0.6103
35697SOL    HW213953  11.856  11.938   9.316  0.6004 -1.4590  0.1237
35698SOL     OW13954  11.421   2.924   5.799 -0.5599  0.1365  0.0513
35698SOL    HW113955  11.481   2.875   5.742 -0.7925  0.3110 -0.3474
35698SOL    HW213956  11.349   2.950   5.741 -1.1834 -0.3496  0.6015
35699SOL     OW13957   3.707   3.202   3.862  0.0303  0.5883  0.6847
35699SOL    HW113958   3.773   3.219   3.929  0.9516 -0.3812  0.0458
35699SOL    HW213959   3.674   3.289   3.838  0.7247  1.0501  1.3534
35700SOL     OW13960   3.340   7.044   4.477  0.5470 -0.2350  0.0760
35700SOL    HW113961   3.361   7.014   4.566  1.1260 -1.8331 -0.5641
35700SOL    HW213962   3.417   7.019   4.425 -0.3738 -0.5778 -1.1487
35701SOL     OW13963   1.970  10.721   0.501  1.1504  0.0733  0.2763
35701SOL    HW113964   2.004  10.804   0.468 -0.0383  0.9489  1.1599
35701SOL    HW213965   1.932  10.742   0.586 -0.4658 -1.0620 -0.0893
35702SOL     OW13966  12.151  10.483  10.436 -0.2868 -0.2780  0.1908
35702SOL    HW113967  12.161  10.449  10.347 -4.9657 -0.9150 -0.3169
35702SOL    HW213968  12.141  10.405  10.490 -0.0994  0.1732  0.8836
35703SOL     OW13969  12.252   8.120   7.638 -0.0787  0.0866  0.1618
35703SOL    HW113970  12.281   8.068   7.562 -0.6682 -2.0484  1.3031
35703SOL    HW213971  12.178   8.170   7.606  0.7187  0.5302 -1.0797
35704SOL     OW13972  11.020   7.366   5.493  0.4062  0.2050  0.0168
35704SOL    HW113973  11.052   7.325   5.573 -0.4155 -0.8404 -0.1684
35704SOL    HW213974  10.948   7.422   5.522 -0.0069 -0.3108 -0.0060
35705SOL     OW13975   9.105   6.524   9.316  0.3143 -0.2438 -0.0828
35705SOL    HW113976   9.146   6.606   9.292  0.5683 -1.1413 -3.0600
35705SOL    HW213977   9.168   6.482   9.375  1.6718  0.3085 -1.0918
35706SOL     OW13978   5.999   9.777   3.518  0.0445 -0.4769 -0.4381
35706SOL    HW113979   6.062   9.845   3.493  0.3323  0.6042  2.7443
35706SOL    HW213980   5.922   9.825   3.547 -0.1381 -1.5198  0.9024
35707SOL     OW13981   8.529   9.812  12.037 -0.2028  0.8644 -0.6917
35707SOL    HW113982   8.527   9.859  12.121  3.3204  0.9180 -0.4766
35707SOL    HW213983   8.456   9.751  12.042  0.5468  0.0205  3.0174
35708SOL     OW13984  11.443   1.777  11.231  0.3404 -0.6721  0.1366
35708SOL    HW113985  11.475   1.815  11.313 -1.6152  1.1153  0.1588
35708SOL    HW213986  11.513   1.794  11.168  0.2524  1.5579  0.5554
35709SOL     OW13987   5.920   0.038   4.098  0.1635  0.5165 -0.0218
35709SOL    HW113988   5.982   0.052   4.170  1.8809  0.1716 -1.3574
35709SOL    HW213989   5.870  -0.040   4.124  2.1040 -0.8123 -0.0089
35710SOL     OW13990   6.502   4.847   3.065 -0.3743 -0.5267 -0.0158
35710SOL    HW113991   6.532   4.759   3.091 -0.2187  0.4169  3.5850
35710SOL    HW213992   6.407   4.839   3.060 -0.3102 -1.0566 -0.5495
35711SOL     OW13993   3.318  11.322   4.849  0.2392 -0.2703  0.3347
35711SOL    HW113994   3.327  11.417   4.857  1.6419 -0.4276  0.8788
35711SOL    HW213995   3.346  11.302   4.760  2.4524 -0.4146  1.0197
35712SOL     OW13996  10.103  11.296   6.813  0.0524 -0.2857 -0.2484
35712SOL    HW113997  10.067  11.320   6.728 -0.2725  0.0543 -0.0211
35712SOL    HW213998  10.028  11.302   6.873 -0.1526 -2.2324 -0.2372
35713SOL     OW13999  11.896   4.375   5.872  0.1284  0.3799 -0.3739
35713SOL    HW114000  11.835   4.338   5.936 -0.0026 -0.2017 -0.8239
35713SOL    HW214001  11.877   4.468   5.872 -2.8878 -0.0930 -2.6756
35714SOL     OW14002  12.296  12.128   9.811  0.4840  0.1630 -0.1980
35714SOL    HW114003  12.334  12.071   9.745  0.9240 -1.2412  1.2191
35714SOL    HW214004  12.333  12.215   9.792  2.1805 -0.6106 -0.5759
35715SOL     OW14005   8.825   1.581   0.029 -0.3812 -0.2912  0.0403
35715SOL    HW114006   8.833   1.561   0.122  0.6859  2.1315  0.5565
35715SOL    HW214007   8.756   1.648   0.025  0.8370  0.9766 -0.6278
35716SOL     OW14008   1.743  11.718   8.519  0.2208  0.3259 -0.2270
35716SOL    HW114009   1.683  11.729   8.445 -0.3188 -0.2538  0.1164
35716SOL    HW214010   1.735  11.800   8.568  1.0961  0.9958 -1.1623
35717SOL     OW14011   6.458   5.959  12.179 -0.0432  0.1303  0.5618
35717SOL    HW114012   6.503   6.010  12.112  0.5391  0.4456  1.1793
35717SOL    HW214013   6.511   5.971  12.258 -1.1065  0.3460  1.2609
35718SOL     OW14014  11.340   2.250   3.449 -0.3243  0.6549  0.1394
35718SOL    HW114015  11.433   2.229   3.460 -0.6042 -1.1812 -0.6035
35718SOL    HW214016  11.327   2.331   3.498  2.3550  2.7280 -2.2544
35719SOL     OW14017   4.270   9.907   3.658 -0.5933  0.1621 -0.1646
35719SOL    HW114018   4.288  10.001   3.657 -1.4652  0.3593  0.5879
35719SOL    HW214019   4.213   9.895   3.734 -0.0212 -1.0704  0.0894
35720SOL     OW14020  11.702   4.653   0.325  0.5818 -0.5169  0.8581
35720SOL    HW114021  11.626   4.691   0.369 -1.4945 -1.8211 -1.3421
35720SOL    HW214022  11.691   4.558   0.337  1.1272 -0.7863 -0.5565
35721SOL     OW14023   3.310  11.321  12.476  0.5844  0.1119  1.0376
35721SOL    HW114024   3.373  11.249  12.479  1.0637  0.3337 -1.5507
35721SOL    HW214025   3.226  11.278  12.457  0.1701 -0.0438  3.0294
35722SOL     OW14026   2.977   2.955   3.381 -0.3408  0.1230 -0.0253
35722SOL    HW114027   3.014   2.918   3.301 -0.1596  0.5571 -0.1445
35722SOL    HW214028   3.033   2.922   3.451  0.9298  1.5918 -0.2913
35723SOL     OW14029   9.802   3.900   2.580 -0.0494  0.2793 -0.0961
35723SOL    HW114030   9.832   3.909   2.670  0.3711 -2.2797  0.0744
35723SOL    HW214031   9.829   3.812   2.554 -2.2356  0.0600 -1.9324
35724SOL     OW14032   8.220   0.585   9.549  0.0459 -0.4646 -0.5496
35724SOL    HW114033   8.218   0.490   9.547 -0.1760 -0.5516  1.3812
35724SOL    HW214034   8.154   0.613   9.486  0.0996 -1.5837 -1.1168
35725SOL     OW14035  12.376   7.853   7.695  0.2489 -0.0016 -0.2797
35725SOL    HW114036  12.352   7.761   7.706  0.9383 -0.0848  0.6832
35725SOL    HW214037  12.424   7.856   7.612 -1.3950 -0.1571 -1.2831
35726SOL     OW14038  11.061   3.900   2.088 -0.0529 -0.5149  0.4311
35726SOL    HW114039  10.979   3.872   2.048 -1.0100  0.0150  1.9248
35726SOL    HW214040  11.085   3.828   2.147 -0.1672 -0.1051  0.9886
35727SOL     OW14041   6.470  10.241   5.977 -0.2463 -0.2304 -0.3380
35727SOL    HW114042   6.465  10.241   5.881 -1.7614  0.4703 -0.2754
35727SOL    HW214043   6.544  10.298   5.997 -0.7467  0.7050 -1.0769
35728SOL     OW14044   2.929   3.846   2.194 -0.0353 -0.3668  0.1513
35728SOL    HW114045   2.873   3.852   2.117  0.5917 -1.4359 -0.4245
35728SOL    HW214046   2.984   3.924   2.190 -1.2177  0.5083  0.5318
35729SOL     OW14047  11.366   6.359   0.072  0.4921  0.0561  0.3673
35729SOL    HW114048  11.419   6.281   0.056  0.7236  0.1534  0.6545
35729SOL    HW214049  11.421   6.414   0.129 -0.4598 -0.4256  1.7891
35730SOL     OW14050   2.997  10.324   0.785  0.5005  0.2926 -0.2675
35730SOL    HW114051   2.916  10.346   0.832  0.3109 -2.3327  0.8060
35730SOL    HW214052   3.064  10.323   0.853  0.9410 -0.0895 -0.7037
35731SOL     OW14053  10.896   3.697   1.175  0.2162  0.0639 -0.1737
35731SOL    HW114054  10.915   3.616   1.127  0.5943 -1.4978  2.4471
35731SOL    HW214055  10.842   3.668   1.249  0.9356  2.1067  1.2128
35732SOL     OW14056   9.230   6.753   1.401  0.2821  0.0345 -0.4121
35732SOL    HW114057   9.257   6.748   1.310 -0.9423  1.1339 -0.8701
35732SOL    HW214058   9.170   6.828   1.404  0.3279  0.0389  1.3007
35733SOL     OW14059  10.346  10.070   6.066 -0.5838 -0.4788  0.0065
35733SOL    HW114060  10.394  10.129   6.008 -0.1959 -0.4968  0.3032
35733SOL    HW214061  10.266  10.050   6.019 -0.6604  0.1860 -0.1509
35734SOL     OW14062   3.182   2.008   8.485  1.0239  0.1261  0.1902
35734SOL    HW114063   3.249   2.042   8.426  0.3438 -1.3688 -1.5008
35734SOL    HW214064   3.103   2.002   8.431  0.1685 -0.5216  1.4695
35735SOL     OW14065  11.263   1.800   9.748 -0.8814 -0.5746 -0.0492
35735SOL    HW114066  11.244   1.871   9.687 -2.5589 -0.2628  0.7687
35735SOL    HW214067  11.189   1.801   9.810  0.0806 -1.7298  1.1858
35736SOL     OW14068   3.527   1.551   5.142 -0.4787  0.2608  0.3449
35736SOL    HW114069   3.509   1.458   5.131  0.4535  0.0216  0.7454
35736SOL    HW214070   3.564   1.559   5.230  1.0341  0.7355 -0.2911
35737SOL     OW14071  10.860   7.048  11.103 -0.1451 -0.4345 -0.4185
35737SOL    HW114072  10.911   6.995  11.164 -1.0066 -1.1208 -0.2831
35737SOL    HW214073  10.926   7.093  11.050  0.6479  0.5647  1.3069
35738SOL     OW14074   2.409   4.963  10.564  0.4073 -0.2500 -0.1517
35738SOL    HW114075   2.419   5.026  10.493 -0.6811 -0.2016 -0.2774
35738SOL    HW214076   2.493   4.917  10.566  0.9781  0.7369 -0.4935
35739SOL     OW14077   0.735   0.486   9.563  0.0447 -0.1408  0.0776
35739SOL    HW114078   0.711   0.569   9.605 -1.5382  0.1880 -1.3865
35739SOL    HW214079   0.819   0.464   9.602  0.7828  2.4171  0.1401
35740SOL     OW14080  11.740   4.052   6.244 -0.1441 -0.3407 -0.2160
35740SOL    HW114081  11.779   4.002   6.315  0.0864 -1.5514 -1.1683
35740SOL    HW214082  11.652   4.072   6.275 -0.6462 -2.3146 -0.2420
35741SOL     OW14083   8.691   0.414   4.159  0.3338 -0.6536 -1.0138
35741SOL    HW114084   8.776   0.413   4.204  0.5971  1.7505 -1.3295
35741SOL    HW214085   8.703   0.475   4.086 -0.8164 -2.5659 -2.9239
35742SOL     OW14086   8.129   2.607  12.195 -0.0244 -0.2875  0.3691
35742SOL    HW114087   8.144   2.645  12.109  1.2696  0.2848  0.8223
35742SOL    HW214088   8.206   2.552  12.210 -0.6875 -1.1200  0.7753
35743SOL     OW14089   4.631   3.654   2.382  0.2854 -0.6045  0.1891
35743SOL    HW114090   4.539   3.671   2.360  0.4487 -0.4852 -0.4344
35743SOL    HW214091   4.679   3.679   2.303  0.5823 -3.5747 -0.7264
35744SOL     OW14092   8.923   8.258   3.174  0.0381  0.3281  0.1827
35744SOL    HW114093   8.892   8.168   3.186  1.5872 -0.2576  0.0139
35744SOL    HW214094   8.960   8.282   3.259  1.0958  0.1939 -0.2259
35745SOL     OW14095  12.172   4.584   2.860 -0.4632  0.3267 -0.1019
35745SOL    HW114096  12.104   4.642   2.825  0.3600  2.3985  1.4877
35745SOL    HW214097  12.254   4.621   2.826  0.0183 -0.7960 -0.1912
35746SOL     OW14098  10.189   4.552   6.559  0.1431 -0.0522  0.1072
35746SOL    HW114099  10.242   4.526   6.483 -0.3649  1.3729 -0.7854
35746SOL    HW214100  10.252   4.583   6.623  0.5519 -0.8554  0.1078
35747SOL     OW14101   2.693   8.469   2.387  0.0342  0.4336 -0.1628
35747SOL    HW114102   2.721   8.518   2.310 -1.6022  0.1107 -1.0194
35747SOL    HW214103   2.725   8.380   2.373  0.4887  0.5794 -0.0428
35748SOL     OW14104   9.329  10.868   2.615 -0.0137 -0.0595  0.7103
35748SOL    HW114105   9.306  10.934   2.681 -0.8993  0.3972 -0.0354
35748SOL    HW214106   9.414  10.835   2.644  1.1369  2.3790  0.3676
35749SOL     OW14107   3.174   3.661   1.460 -0.7467  0.1148  0.3876
35749SOL    HW114108   3.106   3.725   1.480  0.2440  1.0336  0.9840
35749SOL    HW214109   3.233   3.665   1.536  0.9640  0.7260 -0.9126
35750SOL     OW14110   9.615   8.099   8.005 -0.5982 -0.0933 -0.2519
35750SOL    HW114111   9.522   8.078   7.992 -0.6089 -0.2360  0.0444
35750SOL    HW214112   9.654   8.018   8.037 -0.2046 -0.2647 -1.1376
35751SOL     OW14113   7.844   3.332  11.380  0.1962  0.3858  0.0679
35751SOL    HW114114   7.900   3.291  11.314  1.2547 -0.7712  1.6035
35751SOL    HW214115   7.889   3.414  11.402  1.5998 -0.7219  1.5789
35752SOL     OW14116  10.083   0.952   0.814 -0.3579  0.2394  1.0716
35752SOL    HW114117  10.001   0.902   0.817  0.2049 -0.7518  0.3382
35752SOL    HW214118  10.062   1.030   0.762 -0.8637  0.0490  0.9844
35753SOL     OW14119   7.766   0.978   9.984  0.6015 -0.6207  0.9996
35753SOL    HW114120   7.833   0.995  10.050  2.1861 -1.8870 -0.2223
35753SOL    HW214121   7.699   0.928  10.030  1.7746 -1.6550  1.6278
35754SOL     OW14122  10.382  10.825  11.263  1.2633  0.2044  0.0333
35754SOL    HW114123  10.443  10.766  11.218 -0.6699  1.5542 -5.0262
35754SOL    HW214124  10.399  10.911  11.224 -1.6062  1.2446  0.8204
35755SOL     OW14125   7.578   2.678  10.315  0.6325 -0.3179 -0.5416
35755SOL    HW114126   7.552   2.601  10.365  1.6749  0.0910  0.6519
35755SOL    HW214127   7.535   2.751  10.359  0.4768 -0.0895 -1.0559
35756SOL     OW14128   3.675   9.760   5.887 -0.3861  0.0365  0.0479
35756SOL    HW114129   3.630   9.812   5.954 -0.2772 -0.7252  0.7138
35756SOL    HW214130   3.604   9.719   5.838 -0.4769  0.8484 -0.5304
35757SOL     OW14131   5.638  10.177   8.237  0.2605 -0.0123  0.2305
35757SOL    HW114132   5.660  10.146   8.325 -0.0165 -2.5426 -0.5238
35757SOL    HW214133   5.675  10.112   8.178 -0.0265  1.3488 -1.5456
35758SOL     OW14134   4.209   2.107   7.063  0.2732  0.4745  0.4649
35758SOL    HW114135   4.227   2.018   7.092 -3.4597 -0.5050  0.2923
35758SOL    HW214136   4.143   2.140   7.125 -0.4920  2.0608 -1.1006
35759SOL     OW14137  10.690  10.412   3.467  0.0868 -0.2972  0.0030
35759SOL    HW114138  10.756  10.373   3.410 -0.3841  0.2544 -0.9563
35759SOL    HW214139  10.730  10.493   3.498  0.4565 -0.7434  0.7050
35760SOL     OW14140   2.859   6.659   7.871  0.0644 -0.2597  0.4227
35760SOL    HW114141   2.790   6.711   7.830 -0.6826  0.3569  2.3677
35760SOL    HW214142   2.886   6.597   7.803 -1.5424  0.2860 -0.7673
35761SOL     OW14143   3.146   8.419  10.647  0.5067  0.0618  0.0790
35761SOL    HW114144   3.119   8.443  10.559  0.5936 -0.3227 -0.0569
35761SOL    HW214145   3.193   8.495  10.680 -0.1159  0.4711  0.0518
35762SOL     OW14146   3.033   5.080   2.262  0.4306  0.2026  0.7111
35762SOL    HW114147   2.964   5.117   2.317 -1.4008 -0.3051 -1.1148
35762SOL    HW214148   2.987   5.042   2.187  2.8595  2.9480 -2.4839
35763SOL     OW14149   4.954   2.225   0.851 -0.5298 -0.4014 -0.1162
35763SOL    HW114150   4.941   2.205   0.758  1.9586 -0.4104 -0.5190
35763SOL    HW214151   5.000   2.149   0.886 -2.6569 -1.0323  1.5307
35764SOL     OW14152   4.982   6.818   5.206  0.4039 -0.0637 -0.2784
35764SOL    HW114153   5.029   6.776   5.133  0.7140 -1.2310  0.5568
35764SOL    HW214154   4.936   6.746   5.248 -0.9082  0.8275 -0.1480
35765SOL     OW14155  12.212   8.029   8.703 -0.3481  0.1034 -0.2557
35765SOL    HW114156  12.268   8.014   8.779 -0.1913 -0.2631 -0.4408
35765SOL    HW214157  12.123   8.036   8.739 -0.3831 -0.9499 -0.1240
35766SOL     OW14158   3.937   9.842   5.933  0.3312 -0.1309  0.2446
35766SOL    HW114159   3.974   9.778   5.873  0.4414 -0.7962  1.0089
35766SOL    HW214160   3.844   9.819   5.939  0.5374 -0.7608  1.1744
35767SOL     OW14161   9.385   0.042  11.191  0.7806 -0.4637 -0.5489
35767SOL    HW114162   9.370   0.110  11.126 -0.9266  0.0140  0.2937
35767SOL    HW214163   9.417  -0.033  11.141 -1.6299 -0.5221 -2.1481
35768SOL     OW14164   6.069   6.810   4.477  0.1767 -0.0010  0.3276
35768SOL    HW114165   6.020   6.892   4.470 -0.0285 -0.2420 -1.5610
35768SOL    HW214166   6.112   6.801   4.393  1.3756 -1.1260  1.0377
35769SOL     OW14167   1.974   2.635  10.680 -0.3298 -0.1734  0.2694
35769SOL    HW114168   1.979   2.678  10.595 -0.9854  0.5551  0.5945
35769SOL    HW214169   2.035   2.684  10.735 -1.9603  1.1529  0.9730
35770SOL     OW14170  11.947  11.783  11.930  0.7050 -0.6060  0.1351
35770SOL    HW114171  11.948  11.725  11.854  0.6092  0.4319 -0.6824
35770SOL    HW214172  11.860  11.823  11.929  1.0954  0.2676  0.1261
35771SOL     OW14173   6.140   5.412  11.751 -0.2247 -0.2317  0.0125
35771SOL    HW114174   6.092   5.377  11.826 -0.7225 -1.3445 -0.7863
35771SOL    HW214175   6.232   5.412  11.778 -0.5913  1.4429  1.3789
35772SOL     OW14176  10.285   2.508   5.769 -0.3870 -0.5153  0.1010
35772SOL    HW114177  10.371   2.475   5.747 -0.1857 -0.3659  0.6516
35772SOL    HW214178  10.244   2.528   5.685  1.0585  1.8352 -0.1406
35773SOL     OW14179   0.836   1.912   4.256  0.0346  0.1262  0.3366
35773SOL    HW114180   0.856   1.998   4.221 -0.2252 -0.8211 -2.3310
35773SOL    HW214181   0.918   1.883   4.296  0.9217  0.5714 -1.0803
35774SOL     OW14182  10.200  10.096   1.000 -0.6487 -0.0547 -0.0265
35774SOL    HW114183  10.172  10.059   1.084 -1.1013  0.3930  0.0306
35774SOL    HW214184  10.272  10.155   1.022  0.5784 -1.4430 -0.2104
35775SOL     OW14185   1.044   8.605   8.003 -0.4406  0.2138  0.3135
35775SOL    HW114186   1.051   8.700   8.008  0.3545  0.1595  0.3561
35775SOL    HW214187   1.026   8.577   8.093 -0.7228  0.3243  0.2924
35776SOL     OW14188   9.451   0.120   2.255 -0.0987  0.2454  0.7807
35776SOL    HW114189   9.539   0.142   2.224 -0.1338  0.4004  0.7881
35776SOL    HW214190   9.407   0.205   2.263 -0.3447  0.1435  0.4870
35777SOL     OW14191   1.774   7.913   9.398  0.1370  0.1191  0.1176
35777SOL    HW114192   1.838   7.854   9.438  2.4715  2.1923 -0.3129
35777SOL    HW214193   1.741   7.965   9.471  1.8105  1.5531 -0.0804
35778SOL     OW14194   0.105   5.391   1.458 -0.1340 -0.1569 -0.3336
35778SOL    HW114195   0.112   5.486   1.456  1.2180 -0.2314 -0.5686
35778SOL    HW214196   0.192   5.362   1.487 -0.7438 -1.2922  0.4258
35779SOL     OW14197  11.399   9.461  11.166  0.3933  0.3920 -0.2198
35779SOL    HW114198  11.381   9.402  11.239  1.4803  0.5184  0.1701
35779SOL    HW214199  11.321   9.456  11.110  0.1574 -0.8135  0.2054
35780SOL     OW14200   4.160   7.006   0.156  0.7575 -0.1076 -0.3718
35780SOL    HW114201   4.068   6.982   0.159  1.1774 -2.0939 -1.1441
35780SOL    HW214202   4.183   7.029   0.246 -0.8036  1.9605 -0.4318
35781SOL     OW14203   3.045  11.929   7.863  0.1045  0.2423  0.3691
35781SOL    HW114204   3.124  11.891   7.900 -0.5972 -0.3048  1.3417
35781SOL    HW214205   2.976  11.909   7.927 -0.6549  1.4560 -0.0376
35782SOL     OW14206  10.042  10.770  10.017  0.0839  0.3012 -0.2232
35782SOL    HW114207  10.078  10.809   9.937  0.7672  0.8235  0.3211
35782SOL    HW214208  10.085  10.818  10.088  0.4366 -0.9878  0.4719
35783SOL     OW14209   2.461   5.472   0.266 -0.0894  0.0465  0.6913
35783SOL    HW114210   2.510   5.466   0.348 -0.4642  0.8929  0.9864
35783SOL    HW214211   2.527   5.492   0.200  0.0980  0.1989  0.9232
35784SOL     OW14212   9.682  10.491  10.018  0.1153  0.0599  0.5459
35784SOL    HW114213   9.614  10.553   9.992 -0.4537 -0.2882  1.1814
35784SOL    HW214214   9.737  10.540  10.079  0.2800  0.2610  0.2355
35785SOL     OW14215   9.196   5.820   2.198 -0.2313 -0.3747  0.2403
35785SOL    HW114216   9.129   5.783   2.140 -0.0089 -0.0595 -0.2234
35785SOL    HW214217   9.277   5.816   2.147 -0.0603  0.0365  0.4758
35786SOL     OW14218   5.351   5.966  10.666  0.1153 -0.7303 -0.2368
35786SOL    HW114219   5.347   5.991  10.759 -1.8042 -1.6324 -0.0274
35786SOL    HW214220   5.309   6.038  10.620  0.4095 -0.6178 -0.3313
35787SOL     OW14221  10.540  10.716   0.965 -0.2599  0.4413 -0.3152
35787SOL    HW114222  10.466  10.726   0.906  0.0122  0.1745 -0.7097
35787SOL    HW214223  10.594  10.647   0.925  0.9962  1.7013 -0.8794
35788SOL     OW14224   8.415   8.221   3.588 -0.5428  0.3633 -0.6769
35788SOL    HW114225   8.384   8.277   3.659  0.0822 -0.5378  0.3261
35788SOL    HW214226   8.496   8.182   3.621 -0.9439 -1.1167 -1.3454
35789SOL     OW14227   7.905   9.027   6.242  0.2517 -0.2658 -0.5649
35789SOL    HW114228   7.945   9.002   6.326  1.8973  0.7950 -0.9909
35789SOL    HW214229   7.874   9.116   6.256  0.2086 -0.2158 -0.9800
35790SOL     OW14230  12.266   6.577   7.990 -0.2735 -0.1365  0.0803
35790SOL    HW114231  12.257   6.649   8.053  0.4676 -0.1614  0.2240
35790SOL    HW214232  12.285   6.500   8.043  1.5385  0.0586 -0.2131
35791SOL     OW14233  10.313   2.720   8.474 -0.5433  0.4921  0.0728
35791SOL    HW114234  10.345   2.692   8.560 -2.4516  1.8897  1.3048
35791SOL    HW214235  10.305   2.815   8.481 -0.7184  0.6393 -1.6881
35792SOL     OW14236  11.270   8.417   3.917  0.9971 -0.2205  0.1636
35792SOL    HW114237  11.299   8.508   3.914  0.2779  0.0175  0.1987
35792SOL    HW214238  11.249   8.402   4.010  1.2551 -0.4698  0.1833
35793SOL     OW14239   0.178   2.364   4.317  0.6929 -0.1021 -0.2835
35793SOL    HW114240   0.148   2.392   4.230  1.4709 -1.8361 -1.1822
35793SOL    HW214241   0.099   2.365   4.371 -0.2422 -0.9153 -1.5642
35794SOL     OW14242   6.638   5.619   4.215  0.2871 -0.1405  0.1334
35794SOL    HW114243   6.601   5.704   4.191  1.0912 -0.3119 -1.9366
35794SOL    HW214244   6.573   5.555   4.186 -0.3461 -0.2763  1.7474
35795SOL     OW14245   9.317   8.257   4.405  0.5039 -0.2570  0.4400
35795SOL    HW114246   9.267   8.299   4.475  1.2555  0.2674  0.6813
35795SOL    HW214247   9.393   8.315   4.393  0.2998 -0.2456 -0.9251
35796SOL     OW14248   8.182   8.790   9.032 -0.2234 -0.2059  0.3291
35796SOL    HW114249   8.109   8.729   9.041  0.7425 -1.3794  0.6627
35796SOL    HW214250   8.259   8.733   9.022  0.7826  0.9638  1.1162
35797SOL     OW14251   9.082   4.971   8.449  0.4118 -0.1883  0.1266
35797SOL    HW114252   9.031   4.977   8.530  2.7275 -0.7128  1.7303
35797SOL    HW214253   9.122   4.884   8.453  0.1176 -0.4637 -1.9148
35798SOL     OW14254   2.232   1.156   1.726 -0.3896 -0.2518  0.3007
35798SOL    HW114255   2.290   1.220   1.766  1.4863 -1.3523 -0.5509
35798SOL    HW214256   2.246   1.075   1.775 -2.1169 -0.2807  0.8335
35799SOL     OW14257   5.787   2.121   8.481  0.3639 -0.0923  0.1743
35799SOL    HW114258   5.728   2.196   8.490  1.1212  0.5705 -0.1661
35799SOL    HW214259   5.735   2.045   8.507 -0.8583  0.3794 -0.8019
35800SOL     OW14260   7.615   4.982   9.781  0.0636 -0.4129 -0.1834
35800SOL    HW114261   7.535   4.938   9.752  0.5471 -0.6416 -1.1856
35800SOL    HW214262   7.685   4.919   9.765  0.4128 -0.3784  1.0749
35801SOL     OW14263  10.938   9.710   3.359 -0.3802  0.2308  0.5659
35801SOL    HW114264  10.880   9.749   3.293  0.7503 -0.9949 -1.2658
35801SOL    HW214265  10.927   9.615   3.347 -0.1739 -0.0377  2.2215
35802SOL     OW14266   6.233   0.731   9.449  0.2713  0.1365  0.2393
35802SOL    HW114267   6.195   0.645   9.431 -0.2515  0.4152 -0.0366
35802SOL    HW214268   6.223   0.778   9.366  0.5140  0.4746  0.4038
35803SOL     OW14269   8.749   6.029   8.351  0.0026  0.3559 -0.3083
35803SOL    HW114270   8.780   5.984   8.429 -0.0210  0.8028 -0.0364
35803SOL    HW214271   8.768   6.121   8.367 -3.3115  0.9895  0.8374
35804SOL     OW14272   9.849   0.164   1.419  0.1093  0.3549 -0.0175
35804SOL    HW114273   9.906   0.234   1.453  0.8727 -0.0861 -0.3667
35804SOL    HW214274   9.792   0.209   1.356 -0.0907  0.8444  0.5035
35805SOL     OW14275   3.122   0.242   9.243  0.0337 -0.3273  0.3252
35805SOL    HW114276   3.215   0.257   9.224 -0.2926 -0.6060 -1.8195
35805SOL    HW214277   3.122   0.189   9.323  1.5957  1.6057  1.6850
35806SOL     OW14278   9.526   7.153   9.074  0.0040 -0.0772  0.3842
35806SOL    HW114279   9.529   7.201   8.991 -0.9501  0.5012  0.6625
35806SOL    HW214280   9.537   7.221   9.141 -2.1236 -0.0749  0.8146
35807SOL     OW14281   3.060   5.910   0.277 -0.2621 -0.5531 -0.1813
35807SOL    HW114282   3.143   5.889   0.234  1.0881  2.2812  0.8395
35807SOL    HW214283   3.061   5.858   0.357  0.1440 -1.1306 -0.5535
35808SOL     OW14284   3.667   4.538   8.696  0.3455 -0.1155  0.2548
35808SOL    HW114285   3.740   4.498   8.648 -0.9441  0.8512 -2.6771
35808SOL    HW214286   3.590   4.489   8.668 -0.6190  1.3038  0.3623
35809SOL     OW14287   2.705   6.021   8.419 -0.2344 -0.5228 -0.5058
35809SOL    HW114288   2.698   6.112   8.390 -3.2475 -0.2864  0.6026
35809SOL    HW214289   2.787   6.017   8.468 -0.2581  1.7390 -0.1941
35810SOL     OW14290  11.418   9.905   0.899 -0.4788 -0.1669  0.1131
35810SOL    HW114291  11.511   9.922   0.888 -0.8588  1.6804 -0.4803
35810SOL    HW214292  11.395   9.946   0.982 -0.7886 -0.5914  0.2444
35811SOL     OW14293   4.516   7.450   3.896  0.1953 -0.4835  0.2873
35811SOL    HW114294   4.560   7.511   3.955 -0.3623  0.5112 -0.2983
35811SOL    HW214295   4.426   7.447   3.927 -0.1850  0.3236 -0.7165
35812SOL     OW14296   5.406   0.032   5.719  0.1918  0.0377  0.1911
35812SOL    HW114297   5.403   0.077   5.804  0.5459 -1.0606  0.8072
35812SOL    HW214298   5.314   0.021   5.694  0.1074  1.8542 -0.4012
35813SOL     OW14299   1.307   5.582   2.418 -0.0717 -0.3434  0.4686
35813SOL    HW114300   1.399   5.564   2.436 -0.4238 -1.4634  1.2517
35813SOL    HW214301   1.261   5.503   2.445 -1.1352 -0.3561 -1.2253
35814SOL     OW14302   5.556   7.322   8.516 -0.2324  0.4209 -0.6218
35814SOL    HW114303   5.494   7.349   8.448 -0.5108  0.8074 -0.2201
35814SOL    HW214304   5.522   7.238   8.547 -0.3374  0.4427 -0.6779
35815SOL     OW14305   7.584   3.858   6.031 -0.3562 -0.0031 -0.2937
35815SOL    HW114306   7.501   3.810   6.024 -0.8665  1.0570 -1.8366
35815SOL    HW214307   7.560   3.943   6.068  0.1526  0.0325 -0.0402
35816SOL     OW14308   6.306   8.275   5.134  0.0708  0.1802  0.2389
35816SOL    HW114309   6.359   8.261   5.056 -0.1205  1.4381 -0.1425
35816SOL    HW214310   6.242   8.342   5.108 -3.9188 -3.3827 -0.3979
35817SOL     OW14311   8.412   1.554   2.209  0.6241  0.3618  0.0444
35817SOL    HW114312   8.353   1.528   2.138  1.2116 -0.2898 -0.2104
35817SOL    HW214313   8.411   1.480   2.269 -0.5406  1.2452  1.1796
35818SOL     OW14314   8.403  10.394   1.441  0.2886  0.4345  0.1355
35818SOL    HW114315   8.311  10.420   1.449  0.1296 -0.3774  1.1734
35818SOL    HW214316   8.452  10.473   1.463 -0.1664  0.6991  0.2141
35819SOL     OW14317   4.672   5.318   4.551 -0.0902  0.0441  0.2690
35819SOL    HW114318   4.735   5.357   4.611  2.3417 -1.0611 -1.3786
35819SOL    HW214319   4.631   5.393   4.506  0.7673  0.7779  0.7008
35820SOL     OW14320   7.411  11.423   1.365  0.1044  0.3237  0.5370
35820SOL    HW114321   7.495  11.416   1.411 -1.0117 -0.8531  2.5315
35820SOL    HW214322   7.346  11.435   1.434 -1.4526  0.6710 -0.9186
35821SOL     OW14323   5.822   0.840   6.784 -0.0473  0.0133  0.4130
35821SOL    HW114324   5.903   0.832   6.734  0.7764 -1.7479  1.9057
35821SOL    HW214325   5.831   0.923   6.831 -0.5059  1.3191 -1.6541
35822SOL     OW14326   8.173   7.214   7.707  0.6967 -0.0448  0.1685
35822SOL    HW114327   8.173   7.130   7.753 -0.8140  0.1265  0.5271
35822SOL    HW214328   8.136   7.276   7.769 -1.1884  0.2381 -1.1412
35823SOL     OW14329   7.295   7.568  11.000 -0.1359 -0.5703 -0.0141
35823SOL    HW114330   7.375   7.564  10.949  0.5791 -0.1101  1.0235
35823SOL    HW214331   7.246   7.490  10.976  0.3318 -0.5304 -1.1317
35824SOL     OW14332   2.129   4.576   5.575 -0.0533  0.6194 -0.3380
35824SOL    HW114333   2.218   4.562   5.607  0.0501  0.4842 -0.6879
35824SOL    HW214334   2.078   4.592   5.655  0.1081 -0.2541 -0.0474
35825SOL     OW14335   5.719   0.835  10.736 -0.5082  0.5222  0.4156
35825SOL    HW114336   5.713   0.928  10.712  0.2326  0.4995  0.0978
35825SOL    HW214337   5.714   0.834  10.832  0.9588  1.0421  0.5239
35826SOL     OW14338  11.698   3.869   7.220 -0.6344 -0.4862 -0.5978
35826SOL    HW114339  11.760   3.904   7.157 -0.3120 -0.0256 -0.0298
35826SOL    HW214340  11.646   3.945   7.247 -3.2965 -1.2214 -3.0348
35827SOL     OW14341   6.544   8.533  10.021 -0.3507 -0.3004  0.2477
35827SOL    HW114342   6.541   8.525   9.926 -1.9144  1.2989  0.1096
35827SOL    HW214343   6.492   8.459  10.053 -0.5080 -0.3726 -0.1731
35828SOL     OW14344   6.793   1.499   8.333 -0.3226 -0.5010  0.8804
35828SOL    HW114345   6.849   1.434   8.376 -0.5489 -0.5006  1.1773
35828SOL    HW214346   6.716   1.449   8.305  0.2404 -0.7004 -0.3846
35829SOL     OW14347   0.631   7.567   0.909 -0.1727  0.1274 -0.6378
35829SOL    HW114348   0.725   7.552   0.919 -0.3036  0.6110  1.9922
35829SOL    HW214349   0.625   7.634   0.841  1.4641  0.8971 -0.0696
35830SOL     OW14350   5.930   7.720   8.572 -0.4207 -0.0457  0.3016
35830SOL    HW114351   5.863   7.659   8.544 -0.1592 -0.1256 -0.1534
35830SOL    HW214352   5.906   7.742   8.662 -0.8874 -0.2990  0.2411
35831SOL     OW14353   5.741  10.533   9.136  0.2271  0.2387  0.4385
35831SOL    HW114354   5.677  10.513   9.067 -0.3995  1.6219  0.5750
35831SOL    HW214355   5.718  10.474   9.208  1.8679 -2.3345 -1.0277
35832SOL     OW14356   3.019   5.652   2.744 -0.4296 -0.1972  0.3258
35832SOL    HW114357   3.033   5.557   2.741 -2.7323 -0.6675  1.7616
35832SOL    HW214358   2.932   5.664   2.705  0.5792  1.5944 -1.5427
35833SOL     OW14359   8.222   3.075   7.272  0.0147  0.0216  0.0697
35833SOL    HW114360   8.315   3.052   7.262  0.1552 -0.3836  2.0024
35833SOL    HW214361   8.186   3.068   7.183  1.6010 -0.7907 -0.5481
35834SOL     OW14362   3.167   3.733   8.346  0.5540 -0.2620 -0.1578
35834SOL    HW114363   3.072   3.740   8.357  0.6603  0.3281  0.4539
35834SOL    HW214364   3.191   3.653   8.393 -0.0166 -2.2274 -2.9359
35835SOL     OW14365  11.105   0.896   5.448 -0.0897 -0.5783  0.5757
35835SOL    HW114366  11.108   0.870   5.356  0.6737 -0.1508  0.4621
35835SOL    HW214367  11.193   0.929   5.465 -0.8023  1.3269  0.8611
35836SOL     OW14368   7.684  11.118   7.838 -0.5472  0.1665 -0.0133
35836SOL    HW114369   7.697  11.124   7.743  1.5159  0.2154  0.2388
35836SOL    HW214370   7.707  11.028   7.859 -1.9726 -0.1372  0.3386
35837SOL     OW14371   6.384  12.274   7.661 -0.4359  0.2447 -0.0356
35837SOL    HW114372   6.355  12.365   7.662 -3.3673 -0.5693 -0.4973
35837SOL    HW214373   6.327  12.230   7.724  1.5298 -1.1485  0.8679
35838SOL     OW14374   6.238   4.007   3.911 -0.2058  0.2386  0.3493
35838SOL    HW114375   6.266   4.097   3.930  2.0651 -0.5300  0.9400
35838SOL    HW214376   6.199   3.977   3.993 -1.1664  0.7232  0.0866
35839SOL     OW14377  10.445   5.723   3.119 -0.3123 -0.4225 -0.0624
35839SOL    HW114378  10.354   5.739   3.145 -0.0539 -0.8332  1.1539
35839SOL    HW214379  10.442   5.641   3.070 -0.7061 -0.0149 -0.7318
35840SOL     OW14380   9.432   2.795   4.313  0.3694  0.0663 -0.1156
35840SOL    HW114381   9.513   2.839   4.337 -0.5196  1.3263  0.6889
35840SOL    HW214382   9.374   2.866   4.285 -0.7304 -0.7142  0.1388
35841SOL     OW14383   3.094   9.278   2.904 -0.4604  0.4126  0.2464
35841SOL    HW114384   3.039   9.240   2.972  0.2048 -0.3316  0.3885
35841SOL    HW214385   3.033   9.308   2.837 -1.0110 -0.9960  0.0912
35842SOL     OW14386   8.869   1.000  10.545  0.4377 -0.1875  0.5543
35842SOL    HW114387   8.829   1.059  10.481  0.1770 -2.2675 -1.3350
35842SOL    HW214388   8.897   1.057  10.616 -1.7807  1.9193 -0.1196
35843SOL     OW14389   5.966   1.100   1.541 -0.1644  0.7225  0.2893
35843SOL    HW114390   5.963   1.081   1.448 -1.1290  1.0870  0.2454
35843SOL    HW214391   5.946   1.017   1.584  4.0197 -0.5148  0.3231
35844SOL     OW14392   4.163   4.479   9.121  0.3863 -0.3634  0.0570
35844SOL    HW114393   4.235   4.520   9.072 -0.2691 -1.8727 -2.3678
35844SOL    HW214394   4.098   4.549   9.131  1.0279  0.2893 -0.2485
35845SOL     OW14395   0.763   4.497   6.092 -0.0186 -0.0905  0.4991
35845SOL    HW114396   0.815   4.544   6.157  0.1249 -0.0877  0.3831
35845SOL    HW214397   0.743   4.414   6.133 -0.8511  0.3367  0.9741
35846SOL     OW14398  11.245   5.623   6.009  0.2728  0.1337  0.5472
35846SOL    HW114399  11.278   5.617   6.098  0.2233  0.0418  0.5601
35846SOL    HW214400  11.175   5.688   6.013 -2.7277 -2.8543  1.5337
35847SOL     OW14401   5.485   7.000   0.506  0.0408  0.9274 -0.5422
35847SOL    HW114402   5.508   6.909   0.493 -0.9678  0.8167 -1.7413
35847SOL    HW214403   5.565   7.042   0.537  0.3647 -0.4623  0.5871
35848SOL     OW14404   4.953   3.031   9.240  0.0217  0.4799 -0.1531
35848SOL    HW114405   5.038   2.988   9.233 -0.1948  0.0824 -0.4423
35848SOL    HW214406   4.904   2.997   9.164 -1.6835 -2.2443  1.9742
35849SOL     OW14407   3.416   9.194  10.098  0.1930  0.0451  0.1891
35849SOL    HW114408   3.387   9.209  10.008  1.1385 -1.7386 -0.4484
35849SOL    HW214409   3.498   9.243  10.105 -0.0060  0.3853  0.1657
35850SOL     OW14410  11.318   1.911  12.061  0.3983  0.3763  0.5782
35850SOL    HW114411  11.358   1.825  12.047  0.2682  0.3526  0.3444
35850SOL    HW214412  11.269   1.901  12.142  0.9566  0.4410  0.9298
35851SOL     OW14413   3.237   7.744   1.472 -0.7254 -0.0339  0.4337
35851SOL    HW114414   3.147   7.755   1.501 -0.1499  1.0806  1.9927
35851SOL    HW214415   3.266   7.664   1.515 -2.0139 -2.6472 -3.1199
35852SOL     OW14416  11.495   2.230   9.085 -0.2369  0.2889  0.1053
35852SOL    HW114417  11.576   2.255   9.130 -0.4225  1.3730 -0.1410
35852SOL    HW214418  11.522   2.160   9.025  0.6056  0.9040 -0.2551
35853SOL     OW14419   8.779  12.163   3.208  0.0123  0.1709  0.4317
35853SOL    HW114420   8.818  12.247   3.234 -0.0690  0.1259  0.7046
35853SOL    HW214421   8.685  12.179   3.211  0.0100  0.2735 -0.2061
35854SOL     OW14422  11.158   5.191  12.193  0.4649 -0.0070  0.4726
35854SOL    HW114423  11.241   5.151  12.171  0.9290  0.4362  1.3647
35854SOL    HW214424  11.169   5.223  12.282 -0.2469  1.1213  0.1890
35855SOL     OW14425   7.499   8.270   9.113 -0.1844 -0.2773 -0.0935
35855SOL    HW114426   7.477   8.177   9.115 -1.2110 -0.0800  3.1250
35855SOL    HW214427   7.416   8.314   9.095  0.3481  0.0739 -1.8923
35856SOL     OW14428   9.849  11.749   8.675  0.4344 -0.4269 -0.3651
35856SOL    HW114429   9.935  11.714   8.697  0.4152 -0.5819 -0.5409
35856SOL    HW214430   9.834  11.817   8.741  0.5649 -0.5990 -0.1574
35857SOL     OW14431   7.199   4.146   4.742 -0.1024  0.4849 -0.2983
35857SOL    HW114432   7.119   4.198   4.731 -0.1006  0.7288  0.7324
35857SOL    HW214433   7.256   4.176   4.672 -0.3574  1.3993 -0.1367
35858SOL     OW14434   4.837   3.643   6.363 -1.2601  0.3540  0.7139
35858SOL    HW114435   4.880   3.658   6.278 -0.9701  0.9256  0.9571
35858SOL    HW214436   4.751   3.607   6.340 -1.4140  1.0501  0.1548
35859SOL     OW14437   1.811   1.473   3.624 -0.0067 -0.3098  0.2249
35859SOL    HW114438   1.817   1.568   3.632  1.8638 -0.2993 -0.6854
35859SOL    HW214439   1.900   1.442   3.645  0.0374 -1.6515 -1.7178
35860SOL     OW14440   6.229   5.402   5.522 -0.0696  0.3061  0.3276
35860SOL    HW114441   6.289   5.457   5.572 -0.8361  1.6310 -0.1846
35860SOL    HW214442   6.236   5.316   5.564 -0.1899  1.2056  2.2961
35861SOL     OW14443  10.784   2.623  11.827 -0.0596  0.2798 -0.5176
35861SOL    HW114444  10.803   2.636  11.734 -0.4396  0.7569 -0.5337
35861SOL    HW214445  10.775   2.712  11.862 -0.1681  0.0978 -0.0789
35862SOL     OW14446   7.273   7.900   8.622 -0.1683 -0.0524 -0.0932
35862SOL    HW114447   7.293   7.896   8.715  0.5589  1.2151 -0.1750
35862SOL    HW214448   7.216   7.977   8.613  1.9779  1.5288 -1.0268
35863SOL     OW14449   6.383   5.719  11.699 -0.2261 -0.1752  0.2758
35863SOL    HW114450   6.339   5.668  11.631 -0.2926  0.6300 -0.3066
35863SOL    HW214451   6.312   5.770  11.739  0.2607  2.1009 -1.5228
35864SOL     OW14452   5.466   5.228   1.635 -0.2826  0.3583 -0.7349
35864SOL    HW114453   5.510   5.298   1.684 -0.1885 -0.0346 -0.2452
35864SOL    HW214454   5.463   5.154   1.696 -0.7657  0.0695 -1.0958
35865SOL     OW14455   7.607   2.254   0.276  0.1548  0.6165  0.1042
35865SOL    HW114456   7.655   2.234   0.357  2.7991 -0.0266 -1.4871
35865SOL    HW214457   7.643   2.337   0.247  0.3371  0.1254 -1.1455
35866SOL     OW14458   8.694   0.124  12.424  0.0670  0.2696 -0.0237
35866SOL    HW114459   8.684   0.161  12.336  0.0442  0.1357 -0.0777
35866SOL    HW214460   8.666   0.194  12.483  0.6905  0.5886 -0.0998
35867SOL     OW14461   6.727   8.231   9.721 -0.3481 -0.1518  0.0739
35867SOL    HW114462   6.776   8.290   9.663  1.9152 -1.4600  0.5413
35867SOL    HW214463   6.753   8.257   9.809  0.5949 -1.6948  0.2918
35868SOL     OW14464   7.738   7.664   9.520  0.2251 -0.1696 -0.0628
35868SOL    HW114465   7.736   7.749   9.564  0.2026 -0.1316 -0.1375
35868SOL    HW214466   7.814   7.619   9.558  0.3927 -0.0143 -0.2126
35869SOL     OW14467   3.069   2.029   3.736  0.3461  0.1709  0.3793
35869SOL    HW114468   3.123   2.105   3.758 -1.2890  1.9074 -1.2479
35869SOL    HW214469   3.028   2.052   3.653 -2.3567 -1.3419  1.1842
35870SOL     OW14470   3.682   1.984   0.034 -0.4957  0.1881 -0.4642
35870SOL    HW114471   3.595   2.001   0.071 -0.3723  1.1131 -0.5780
35870SOL    HW214472   3.664   1.934  -0.046 -1.0364  1.5005 -1.2059
35871SOL     OW14473   7.571   7.447   9.459  0.2267  0.0940 -0.4346
35871SOL    HW114474   7.603   7.400   9.382 -0.7368 -1.6415  0.1695
35871SOL    HW214475   7.635   7.517   9.473  0.4783  0.3920 -2.7273
35872SOL     OW14476   3.034   2.672   3.196 -0.0088 -0.2062 -0.5052
35872SOL    HW114477   2.982   2.605   3.239 -2.6368  0.9794 -1.6180
35872SOL    HW214478   2.970   2.724   3.147  2.3611  0.7812 -2.7689
35873SOL     OW14479   8.336   0.777   3.277  0.5707 -0.0907 -0.2054
35873SOL    HW114480   8.301   0.795   3.190  0.3205  0.1084 -0.0652
35873SOL    HW214481   8.381   0.858   3.302  0.8407 -0.2265 -0.2421
35874SOL     OW14482   2.468   5.746   2.504  0.2950  0.5226 -0.1910
35874SOL    HW114483   2.477   5.834   2.466 -1.8330  0.1169 -1.7883
35874SOL    HW214484   2.468   5.761   2.598 -2.2802  2.5806 -0.4119
35875SOL     OW14485  11.040   6.357   9.737 -0.2890  0.2649  0.0204
35875SOL    HW114486  10.950   6.348   9.707 -0.3111 -2.0221  0.5838
35875SOL    HW214487  11.091   6.308   9.672  0.4110  0.5650  0.3333
35876SOL     OW14488   7.944   0.917   8.627  0.1012 -0.6536 -0.1297
35876SOL    HW114489   7.930   0.864   8.548 -0.9869 -0.2418 -0.2196
35876SOL    HW214490   8.039   0.928   8.631  0.2488 -1.5630 -0.8006
35877SOL     OW14491  11.578   1.391   8.102 -0.2951  0.2265  0.5723
35877SOL    HW114492  11.629   1.323   8.060 -0.2626 -0.7617  2.1481
35877SOL    HW214493  11.487   1.367   8.086 -0.2817  0.2260  0.4984
35878SOL     OW14494  11.812  10.954   8.286 -0.0081 -0.3231  0.5658
35878SOL    HW114495  11.739  10.892   8.293  1.2916 -2.2168 -1.3490
35878SOL    HW214496  11.770  11.040   8.282 -1.9506 -1.1121  2.1451
35879SOL     OW14497   4.185  12.121  11.638  0.2108 -0.0587 -0.7343
35879SOL    HW114498   4.161  12.116  11.730  0.4315 -0.7479 -0.7046
35879SOL    HW214499   4.162  12.035  11.603  1.0223 -0.1399 -1.0958
35880SOL     OW14500   3.233   5.363   1.533 -0.1261  0.5118  0.3458
35880SOL    HW114501   3.171   5.431   1.560 -0.8356 -0.3922  1.0604
35880SOL    HW214502   3.232   5.299   1.604  1.0664  0.0962  0.0166
35881SOL     OW14503   1.286   5.042   8.739  0.3639  0.3789 -0.5551
35881SOL    HW114504   1.379   5.046   8.715  0.5416 -2.7351 -0.7672
35881SOL    HW214505   1.287   5.029   8.834  0.2111 -0.4710 -0.6621
35882SOL     OW14506   8.645   1.967  11.756 -0.4553  0.0163  0.1824
35882SOL    HW114507   8.636   2.048  11.807  1.8657  0.7196 -0.3975
35882SOL    HW214508   8.739   1.950  11.756 -0.8821 -2.7937  0.3909
35883SOL     OW14509   3.056   5.913   1.607  0.1937  0.3719 -0.3540
35883SOL    HW114510   3.129   5.898   1.667  0.6302  0.2208 -0.9192
35883SOL    HW214511   3.000   5.975   1.653 -0.8087 -1.6774  1.3245
35884SOL     OW14512   9.828   8.901   5.085 -0.5688  0.5428 -0.0554
35884SOL    HW114513   9.745   8.935   5.119 -0.5185  1.0235 -0.3884
35884SOL    HW214514   9.880   8.980   5.066 -0.9174  0.3568 -2.0268
35885SOL     OW14515   4.823   0.568  10.281  0.3444  0.6676 -0.2540
35885SOL    HW114516   4.772   0.526  10.212  0.9959  1.3864 -1.1974
35885SOL    HW214517   4.787   0.657  10.287 -0.3773  0.3043  1.0461
35886SOL     OW14518  11.568   5.614   9.158  0.0036  0.0947 -0.4040
35886SOL    HW114519  11.652   5.600   9.115 -0.4484 -1.0520 -0.9477
35886SOL    HW214520  11.581   5.692   9.212  1.1347  0.4635 -1.1910
35887SOL     OW14521   0.718   1.979  10.359 -0.6483 -0.3344 -0.2494
35887SOL    HW114522   0.781   1.908  10.370  1.5089  1.7210  1.9165
35887SOL    HW214523   0.715   2.022  10.445 -3.3647  1.0195 -0.9052
35888SOL     OW14524   6.201   9.372   2.057 -0.2816  0.6048 -0.1782
35888SOL    HW114525   6.280   9.420   2.079 -0.0678 -0.0073  0.4188
35888SOL    HW214526   6.218   9.283   2.087 -1.6460  0.7250  1.0811
35889SOL     OW14527  10.925  10.401   4.008 -0.4839  0.1613  0.1325
35889SOL    HW114528  10.863  10.345   4.055  1.0427 -1.5337  0.2511
35889SOL    HW214529  11.007  10.394   4.058  0.5195  0.2425 -1.4195
35890SOL     OW14530   1.645   6.985   2.537  0.3777  0.1796  0.0219
35890SOL    HW114531   1.701   7.027   2.603  1.4077  0.4656 -0.9997
35890SOL    HW214532   1.706   6.954   2.470 -0.6972  0.6115 -1.1916
35891SOL     OW14533   6.042   0.086   0.448  0.6595  0.2445 -0.7479
35891SOL    HW114534   6.110   0.019   0.445  0.8691  0.3761  0.5868
35891SOL    HW214535   5.988   0.062   0.524 -1.1894 -0.2277 -2.1345
35892SOL     OW14536   4.554   3.986   5.964  0.2532 -0.0987  0.1766
35892SOL    HW114537   4.492   4.046   6.005 -0.4744  0.2724 -1.4141
35892SOL    HW214538   4.590   4.035   5.890 -1.4654 -2.0690 -2.0847
35893SOL     OW14539   9.167  11.843   5.468  0.7469  0.4028  0.1112
35893SOL    HW114540   9.206  11.924   5.436  2.0070 -0.2321 -0.0235
35893SOL    HW214541   9.223  11.773   5.433 -0.4101 -0.5500  0.0646
35894SOL     OW14542   4.038   6.528   7.477 -0.3799  0.0980 -0.1641
35894SOL    HW114543   3.997   6.443   7.496  0.0228  0.3769  2.2668
35894SOL    HW214544   4.114   6.507   7.423 -1.6195 -0.7878 -1.6622
35895SOL     OW14545   1.398   3.761   3.273  0.2700 -0.0716  0.3456
35895SOL    HW114546   1.347   3.747   3.352 -0.2081 -2.8357 -0.3520
35895SOL    HW214547   1.482   3.794   3.304 -0.2400 -0.1452  1.9009
35896SOL     OW14548   4.974   1.835  12.207 -0.3097 -0.3658  0.3020
35896SOL    HW114549   4.946   1.776  12.276  0.1784 -0.2140  0.6394
35896SOL    HW214550   5.050   1.881  12.244  1.6140 -2.1237 -1.2264
35897SOL     OW14551   2.127   8.662   5.057 -0.3323  0.0974  0.0882
35897SOL    HW114552   2.121   8.588   5.117  1.4820 -0.0525  0.1663
35897SOL    HW214553   2.166   8.625   4.977  1.2305  1.0376  0.3600
35898SOL     OW14554   3.966   8.997   6.766 -0.4584  0.0621 -0.3944
35898SOL    HW114555   3.978   9.068   6.703 -1.8147 -0.8575 -1.7536
35898SOL    HW214556   4.039   9.007   6.827  0.4783  1.4528 -1.6668
35899SOL     OW14557  11.450   8.150  11.573 -0.4226  0.2056  0.1609
35899SOL    HW114558  11.452   8.193  11.487 -1.6334 -0.1775 -0.0898
35899SOL    HW214559  11.494   8.211  11.632  0.7747  0.2958 -0.8022
35900SOL     OW14560   9.278  11.432   4.989 -0.2001 -0.2252 -0.3194
35900SOL    HW114561   9.236  11.359   5.036 -0.3530  0.2502  0.2976
35900SOL    HW214562   9.360  11.446   5.035  0.5754 -1.0189 -1.4023
35901SOL     OW14563   2.102   1.505  12.294  0.1533 -0.0797  0.1449
35901SOL    HW114564   2.053   1.563  12.352  1.1903  0.5192  0.4653
35901SOL    HW214565   2.065   1.521  12.207 -0.3361  0.2213  0.4035
35902SOL     OW14566  11.703   2.414   3.035  0.1474  0.3763 -0.0540
35902SOL    HW114567  11.654   2.420   3.117 -1.8690 -1.0078 -1.0658
35902SOL    HW214568  11.662   2.479   2.978  0.1284 -0.1127 -0.6075
35903SOL     OW14569   0.883  10.155   5.309  0.6592 -0.8400  0.0330
35903SOL    HW114570   0.790  10.162   5.291  0.8396 -0.4834 -0.8048
35903SOL    HW214571   0.890  10.083   5.372 -0.2389 -0.3992  0.6625
35904SOL     OW14572   8.019   9.136   5.119  0.0046 -0.1850 -0.1422
35904SOL    HW114573   8.099   9.088   5.096 -0.7312 -1.4670 -0.0933
35904SOL    HW214574   7.948   9.082   5.085 -0.9556 -0.1723  1.7138
35905SOL     OW14575   2.559   8.965   3.150 -0.8499 -0.2139  0.2177
35905SOL    HW114576   2.519   8.926   3.072 -0.1688 -1.0804  0.2931
35905SOL    HW214577   2.607   8.894   3.191  0.0168  0.5951  0.6383
35906SOL     OW14578   2.909  10.521   8.204 -0.1483  0.5134 -0.0746
35906SOL    HW114579   2.815  10.520   8.187 -0.3791 -0.1035  1.1680
35906SOL    HW214580   2.929  10.613   8.225 -0.5390  0.5704  0.0436
35907SOL     OW14581   1.557   9.442   1.389  0.1416 -0.6474 -0.0944
35907SOL    HW114582   1.534   9.453   1.481  1.1175  0.3216  0.0566
35907SOL    HW214583   1.636   9.387   1.390  0.2466 -0.5039 -0.3317
35908SOL     OW14584   4.739   4.630   1.338  0.6818  0.5584 -0.2422
35908SOL    HW114585   4.711   4.542   1.364  0.0544  1.0009  0.6230
35908SOL    HW214586   4.829   4.637   1.370  0.4231  0.5526  0.5057
35909SOL     OW14587  11.987   6.376  11.563  0.0884 -0.0039 -0.0299
35909SOL    HW114588  12.075   6.373  11.601 -0.4553  0.8410  1.3876
35909SOL    HW214589  11.999   6.413  11.476  1.1712 -0.2024  0.0206
35910SOL     OW14590   7.694   5.007   2.197 -0.3472 -0.8005  0.4808
35910SOL    HW114591   7.760   4.957   2.244  0.4707  0.3638  0.6121
35910SOL    HW214592   7.726   5.011   2.107  0.5868  1.0491  0.8489
35911SOL     OW14593   9.833   1.161   9.791  0.1890 -0.3023  0.4108
35911SOL    HW114594   9.798   1.241   9.831 -0.7115 -0.4561 -0.0444
35911SOL    HW214595   9.920   1.186   9.760 -0.1815  0.5777  0.0404
35912SOL     OW14596   5.389   6.367   1.228  0.7021  0.3672  0.5860
35912SOL    HW114597   5.319   6.302   1.222  1.0920 -0.1421  1.3711
35912SOL    HW214598   5.466   6.324   1.190  0.7343  0.7168  0.2452
35913SOL     OW14599   9.587   4.118   1.761 -0.3389 -0.0197 -0.0613
35913SOL    HW114600   9.640   4.065   1.820  0.9538 -0.2905 -1.4200
35913SOL    HW214601   9.643   4.192   1.737  0.0959 -1.1153 -2.7419
35914SOL     OW14602  11.264   6.548   7.714 -0.4804  0.3537  0.6305
35914SOL    HW114603  11.343   6.536   7.661 -0.0065  0.0083  1.3954
35914SOL    HW214604  11.209   6.473   7.691  0.1722 -0.3862  1.3718
35915SOL     OW14605   4.737  11.742   5.152 -0.0977 -0.3093 -0.2293
35915SOL    HW114606   4.782  11.739   5.068  1.2053 -0.1139  0.4335
35915SOL    HW214607   4.801  11.781   5.212 -1.4394  0.7309  0.5881
35916SOL     OW14608  10.886   7.892   0.449 -0.6943 -0.6195  0.6538
35916SOL    HW114609  10.938   7.937   0.515  0.1734 -0.2684 -0.2334
35916SOL    HW214610  10.951   7.845   0.396 -1.2480 -0.0746 -0.5462
35917SOL     OW14611  11.202   4.562   3.374  0.0193  0.0019  0.1572
35917SOL    HW114612  11.267   4.569   3.445 -0.1994 -2.5247  0.6891
35917SOL    HW214613  11.118   4.573   3.417 -0.0662 -0.3214  0.0710
35918SOL     OW14614   6.493   8.088   3.040 -0.3260 -0.6223 -0.0060
35918SOL    HW114615   6.551   8.074   2.965 -0.9502 -0.6803 -0.4854
35918SOL    HW214616   6.449   8.005   3.053  1.0163 -1.1455  1.5252
35919SOL     OW14617   8.389   2.984  12.068  0.6996  0.9714 -0.2324
35919SOL    HW114618   8.301   3.014  12.044  1.0206  1.2783 -1.0698
35919SOL    HW214619   8.380   2.956  12.159 -0.3558  0.6183 -0.4262
35920SOL     OW14620   4.975   2.618   1.999 -0.1779 -0.8633  0.0298
35920SOL    HW114621   5.025   2.672   2.060 -0.9031 -0.6615  0.4551
35920SOL    HW214622   4.887   2.656   1.999 -0.1541 -0.7521 -1.2812
35921SOL     OW14623   5.431   7.020   1.655 -0.4498 -0.0662 -0.2676
35921SOL    HW114624   5.416   7.056   1.743 -1.0163 -0.8826 -0.0223
35921SOL    HW214625   5.526   7.009   1.650 -0.4509 -0.4400  0.4163
35922SOL     OW14626   9.834   0.767  10.544  0.2724 -0.2990  0.2499
35922SOL    HW114627   9.834   0.745  10.451 -0.5331  0.7755 -0.0313
35922SOL    HW214628   9.830   0.863  10.546  0.3786 -0.3035  1.3878
35923SOL     OW14629  10.607   3.626   2.877 -0.0743  0.0508 -0.3386
35923SOL    HW114630  10.622   3.538   2.842 -1.4464 -1.3488  2.3163
35923SOL    HW214631  10.601   3.682   2.799  1.0597 -2.1354 -2.1012
35924SOL     OW14632   6.944   0.445   5.642 -0.0602 -0.7392 -0.1739
35924SOL    HW114633   6.858   0.462   5.605  0.6293 -0.3913 -1.7203
35924SOL    HW214634   6.947   0.350   5.654 -0.7540 -0.7206  0.1773
35925SOL     OW14635  10.029   1.470  11.616 -0.0029 -0.0309 -0.2788
35925SOL    HW114636  10.074   1.501  11.538  0.7163 -1.1105 -0.3166
35925SOL    HW214637  10.059   1.380  11.626 -1.6420 -0.5615  0.0926
35926SOL     OW14638   9.465   3.020   1.146  0.0096 -0.1673  0.4255
35926SOL    HW114639   9.457   2.944   1.203 -1.2324 -0.5472 -0.2033
35926SOL    HW214640   9.416   2.996   1.067  0.1389  1.0337 -0.0484
35927SOL     OW14641   2.177  10.642   8.351 -0.0256  0.0950 -0.1215
35927SOL    HW114642   2.187  10.564   8.406 -2.0492  2.2868  3.8510
35927SOL    HW214643   2.093  10.628   8.307 -0.0490 -0.2768  0.0302
35928SOL     OW14644  11.756   9.871   7.338 -0.2580 -0.1662 -0.1323
35928SOL    HW114645  11.680   9.812   7.342  1.1149 -1.9465  0.9896
35928SOL    HW214646  11.789   9.861   7.248  0.0355 -1.2496  0.0798
35929SOL     OW14647   2.904  10.917   0.510 -0.1498  0.2549  0.3956
35929SOL    HW114648   2.870  10.918   0.420  1.3147  0.5015 -0.1931
35929SOL    HW214649   2.858  10.845   0.552  0.0587 -0.7185 -0.9563
35930SOL     OW14650   1.596   3.246  12.068  0.3872 -0.6811 -0.3078
35930SOL    HW114651   1.516   3.212  12.109 -0.2160  1.7436  0.6743
35930SOL    HW214652   1.635   3.303  12.134  2.5605 -1.2077 -1.0560
35931SOL     OW14653   3.242   3.936   2.035  0.1871  0.5526 -0.4060
35931SOL    HW114654   3.201   3.984   2.107 -0.8273 -0.1434 -0.5024
35931SOL    HW214655   3.169   3.898   1.986  0.8606  0.9646 -1.7807
35932SOL     OW14656   2.346   4.771   7.908  0.0747 -0.2025 -0.0225
35932SOL    HW114657   2.374   4.862   7.913  0.3410 -0.3676  2.1635
35932SOL    HW214658   2.373   4.732   7.991 -0.5556 -2.1367 -0.6638
35933SOL     OW14659   6.256   3.323   6.489 -0.2788 -0.2519  0.1200
35933SOL    HW114660   6.212   3.262   6.429  0.8810  0.2669 -1.3205
35933SOL    HW214661   6.189   3.387   6.512 -0.9238 -0.8428 -0.0884
35934SOL     OW14662  11.357   3.378   0.134  0.3079 -0.3914  0.0720
35934SOL    HW114663  11.262   3.370   0.145  0.2260  0.2055 -0.1674
35934SOL    HW214664  11.393   3.348   0.217 -0.0720 -1.0211  0.0161
35935SOL     OW14665   2.331   9.292   6.606 -0.1219 -0.1568 -0.3215
35935SOL    HW114666   2.266   9.362   6.603 -0.9390 -0.9107 -0.5538
35935SOL    HW214667   2.394   9.320   6.673 -1.5566 -0.1753  1.0732
35936SOL     OW14668   7.938  10.396   3.685  0.5395 -0.3438  0.5948
35936SOL    HW114669   7.844  10.405   3.666  1.0866  0.8421 -1.9393
35936SOL    HW214670   7.949  10.303   3.707 -0.8991 -1.0255 -1.2911
35937SOL     OW14671   8.038  11.996   3.220  0.5186 -0.2792 -0.1813
35937SOL    HW114672   8.030  11.966   3.129  2.4169 -1.1969 -0.0971
35937SOL    HW214673   7.961  11.959   3.264 -0.4475  0.2118 -1.4040
35938SOL     OW14674  10.222   9.293   4.731 -0.0193 -0.6372 -0.1158
35938SOL    HW114675  10.315   9.283   4.750 -0.3190 -1.8568  0.8671
35938SOL    HW214676  10.190   9.354   4.797 -0.3819 -2.2345  1.2864
35939SOL     OW14677   5.673   1.443   4.236 -0.8743 -0.6026  0.0812
35939SOL    HW114678   5.675   1.348   4.244 -1.8791 -0.5276  1.5428
35939SOL    HW214679   5.602   1.461   4.175 -0.3759 -0.7890 -0.5661
35940SOL     OW14680   8.177  10.149   1.525 -0.4220  0.0748  0.9066
35940SOL    HW114681   8.084  10.131   1.531 -0.7152  1.4139  0.6137
35940SOL    HW214682   8.184  10.245   1.525  1.1162  0.0527  3.4401
35941SOL     OW14683   2.032   4.662   1.243 -0.3741  0.0335 -0.7670
35941SOL    HW114684   1.979   4.698   1.172  0.3328  1.5667 -0.5500
35941SOL    HW214685   2.115   4.638   1.201 -0.9056 -1.6538 -0.9562
35942SOL     OW14686   1.118   8.737   6.117  0.4125 -0.0051  0.0587
35942SOL    HW114687   1.157   8.747   6.203  1.0286  1.1647 -0.3295
35942SOL    HW214688   1.027   8.765   6.128  0.1338 -1.0874  0.5917
35943SOL     OW14689   1.705   8.994  10.000 -0.2725 -0.0380  0.0406
35943SOL    HW114690   1.655   8.918   9.970  0.0320 -0.3501  0.3056
35943SOL    HW214691   1.772   9.007   9.933 -1.0610  0.7419 -0.6120
35944SOL     OW14692  10.832   2.077  12.146  0.2250  0.3892 -0.3805
35944SOL    HW114693  10.750   2.090  12.098 -0.6483  2.5280  1.5030
35944SOL    HW214694  10.805   2.069  12.237  2.0352 -0.4826  0.1250
35945SOL     OW14695   3.211   9.269  10.657 -0.2067  0.3779  0.5112
35945SOL    HW114696   3.174   9.200  10.602  0.5946  0.2925  0.0494
35945SOL    HW214697   3.302   9.241  10.671 -0.3249  0.5269  1.6810
35946SOL     OW14698   4.396   7.113  10.576  0.1085 -0.4288  0.0274
35946SOL    HW114699   4.328   7.046  10.568  0.8442 -1.1733 -0.1876
35946SOL    HW214700   4.385   7.168  10.499  1.1956 -1.9566 -1.3121
35947SOL     OW14701   4.355   9.332   0.928 -0.4433 -0.0694 -0.0913
35947SOL    HW114702   4.330   9.254   0.978  0.9324  0.8941  2.2825
35947SOL    HW214703   4.441   9.310   0.891 -1.2035 -0.5647 -1.6779
35948SOL     OW14704   3.258   6.133   0.134  0.3113 -0.4600 -0.2023
35948SOL    HW114705   3.183   6.090   0.093  0.4661 -0.8331 -0.1024
35948SOL    HW214706   3.221   6.208   0.179 -0.1153 -1.0616  0.4726
35949SOL     OW14707   0.344   2.385   9.050  0.0680  0.6527 -0.3658
35949SOL    HW114708   0.277   2.402   9.116  0.4992 -1.6880  0.7738
35949SOL    HW214709   0.427   2.394   9.096  0.3892 -0.6472 -0.6429
35950SOL     OW14710   5.667   7.321   2.457  0.4987  0.0907  0.1054
35950SOL    HW114711   5.682   7.415   2.466  1.2434  0.1256 -1.1197
35950SOL    HW214712   5.574   7.313   2.436  0.2490  0.4804  1.0521
35951SOL     OW14713   2.246   7.876   8.837  0.2241  0.0902  0.0012
35951SOL    HW114714   2.261   7.825   8.916  2.7321  1.4580  0.5240
35951SOL    HW214715   2.201   7.955   8.867  0.8899  0.4645  0.0324
35952SOL     OW14716   3.924  12.436  11.901  0.2114 -0.0568  0.8386
35952SOL    HW114717   3.875  12.356  11.920  1.4800 -1.0854 -0.0194
35952SOL    HW214718   3.973  12.416  11.821  1.5676  1.1141  1.3276
35953SOL     OW14719   8.859   2.778   0.103  0.0574  0.2630  0.6953
35953SOL    HW114720   8.869   2.689   0.068 -0.9388  0.1450  0.7044
35953SOL    HW214721   8.948   2.803   0.127  0.3043 -0.8679  1.0233
35954SOL     OW14722   6.957   3.396   7.471  0.0227  0.3507  0.5166
35954SOL    HW114723   6.862   3.387   7.482 -0.3763 -1.9265 -3.1846
35954SOL    HW214724   6.967   3.448   7.391  1.8463 -0.6368  0.0472
35955SOL     OW14725   1.722   5.263   4.581 -0.3476 -0.3368  0.1903
35955SOL    HW114726   1.739   5.297   4.494 -0.3033 -1.9298 -0.4615
35955SOL    HW214727   1.689   5.338   4.631 -1.2276  0.4035 -1.4318
35956SOL     OW14728   3.131   2.099   9.044  0.3995 -0.8242  0.1296
35956SOL    HW114729   3.130   2.046   9.123 -0.2179 -0.9273  0.0512
35956SOL    HW214730   3.066   2.059   8.987  1.0590 -0.9421 -0.5605
35957SOL     OW14731  11.811   8.457   8.488 -0.2410  0.1398  0.3082
35957SOL    HW114732  11.750   8.508   8.435  1.8003  1.6916 -0.6495
35957SOL    HW214733  11.816   8.372   8.443 -0.2956  0.6287 -0.6454
35958SOL     OW14734   9.692   6.416   5.848  0.3044  0.1353  0.2413
35958SOL    HW114735   9.618   6.382   5.898  0.2472  0.8703  0.6704
35958SOL    HW214736   9.661   6.499   5.811  0.0875 -0.7343 -1.6728
35959SOL     OW14737   2.869   5.340  11.575  0.2435  0.4111  0.7239
35959SOL    HW114738   2.834   5.276  11.637  2.5648  0.1708  1.9038
35959SOL    HW214739   2.858   5.424  11.620  1.5239  0.2838  1.3169
35960SOL     OW14740   2.044   4.635  10.634  0.4622 -0.5790 -0.0821
35960SOL    HW114741   2.113   4.644  10.700  0.7135 -1.6562 -0.1694
35960SOL    HW214742   1.987   4.566  10.668  0.3308 -0.8151 -0.7636
35961SOL     OW14743   4.115  11.696   1.370  0.4588  0.2522  0.4511
35961SOL    HW114744   4.066  11.614   1.378  0.1407  0.5744  2.3167
35961SOL    HW214745   4.073  11.755   1.433  0.5711  1.9192 -0.9789
35962SOL     OW14746   9.284   4.711  11.339 -0.1907  0.2586 -0.1524
35962SOL    HW114747   9.340   4.687  11.412 -1.4375  0.1005  0.8006
35962SOL    HW214748   9.228   4.635  11.325  1.1184 -0.3705 -2.4242
35963SOL     OW14749   6.885  11.902   2.903 -0.3800 -0.4130  0.4319
35963SOL    HW114750   6.915  11.934   2.818  0.1758  0.9117  1.0947
35963SOL    HW214751   6.824  11.832   2.882 -1.9609  1.3208 -1.1604
35964SOL     OW14752   4.969   8.269  10.414  0.1732  0.0385 -0.3340
35964SOL    HW114753   4.954   8.270  10.508  1.0108 -0.1030 -0.1892
35964SOL    HW214754   4.977   8.176  10.392  0.0636  0.0738 -0.5299
35965SOL     OW14755   3.195   7.563   9.524  0.3624  0.2342 -0.4400
35965SOL    HW114756   3.290   7.550   9.521  0.2067 -1.4405  0.3972
35965SOL    HW214757   3.162   7.484   9.568 -1.5102  0.3437 -1.5624
35966SOL     OW14758   3.070  10.496   7.968 -0.0733 -0.1394 -0.3949
35966SOL    HW114759   3.006  10.521   8.035 -0.4856  1.6881 -1.3999
35966SOL    HW214760   3.019  10.490   7.887  0.9973  1.5355 -1.2505
35967SOL     OW14761   7.542   2.148   5.752  0.4556  0.2318 -0.2129
35967SOL    HW114762   7.464   2.096   5.732 -0.3407  0.8718  1.0573
35967SOL    HW214763   7.611   2.111   5.697  0.1365 -2.6880  1.1587
35968SOL     OW14764  11.432   2.866   5.408 -0.2154  0.0828 -1.3222
35968SOL    HW114765  11.494   2.934   5.381  0.1521  0.4212  0.3126
35968SOL    HW214766  11.373   2.910   5.469 -0.1564 -0.9936 -0.4565
35969SOL     OW14767   1.070   4.136   8.425 -0.2925  0.3352 -0.7829
35969SOL    HW114768   1.004   4.205   8.417 -0.2498  0.3087 -1.3978
35969SOL    HW214769   1.085   4.128   8.520 -0.6211  0.8578 -0.6827
35970SOL     OW14770   8.048   7.982  10.036  0.0046  0.2657  0.2699
35970SOL    HW114771   7.983   7.930   9.990  0.0758  0.3554  0.0674
35970SOL    HW214772   8.019   7.982  10.128  0.8204 -1.3872  0.5600
35971SOL     OW14773   1.826  10.082   8.846  0.1227 -0.3763 -0.3029
35971SOL    HW114774   1.871  10.130   8.916  0.5265  0.0776 -0.8632
35971SOL    HW214775   1.815   9.993   8.880 -0.2073 -0.0115  0.5633
35972SOL     OW14776   8.174   9.707   0.129 -0.0387  0.0749 -0.3648
35972SOL    HW114777   8.094   9.754   0.107  0.4611  0.6414 -1.0115
35972SOL    HW214778   8.171   9.627   0.076  0.3088  0.5871 -1.1677
35973SOL     OW14779  11.484   2.720   9.930 -0.0435  0.2822 -0.8340
35973SOL    HW114780  11.389   2.730   9.926 -0.0993  0.2494  0.0814
35973SOL    HW214781  11.519   2.801   9.892 -0.4615  2.2723  2.6100
35974SOL     OW14782   3.467  12.201   8.022 -0.1901  0.2360  0.0901
35974SOL    HW114783   3.430  12.213   8.109 -1.0555 -0.8236 -0.1085
35974SOL    HW214784   3.560  12.186   8.037 -0.6325 -1.9959  1.0499
35975SOL     OW14785   1.726   8.118   7.692 -0.3632  0.4253 -0.3244
35975SOL    HW114786   1.744   8.187   7.627  0.6421 -1.1056 -1.7485
35975SOL    HW214787   1.649   8.073   7.657 -0.8017  0.5669  0.4252
35976SOL     OW14788   2.134   9.265   3.780 -0.2686 -0.2648 -0.0761
35976SOL    HW114789   2.131   9.190   3.720  2.5992  0.0061 -0.6846
35976SOL    HW214790   2.087   9.334   3.733  1.3025 -0.2761 -1.7831
35977SOL     OW14791   4.019   6.225   2.226  0.1370  0.7240 -0.3147
35977SOL    HW114792   3.970   6.144   2.207 -0.1289  0.7602  0.1978
35977SOL    HW214793   4.061   6.207   2.310  1.8983  0.2861 -1.2492
35978SOL     OW14794  11.616  11.720   8.358 -0.0845  0.4786  0.2066
35978SOL    HW114795  11.675  11.788   8.391 -0.9129  1.4131 -0.1848
35978SOL    HW214796  11.622  11.728   8.263 -1.4725  1.1868  0.1529
35979SOL     OW14797  10.239   4.223   1.598  0.7264  0.1765 -0.2291
35979SOL    HW114798  10.306   4.156   1.585  0.1461 -0.1645 -1.5933
35979SOL    HW214799  10.206   4.241   1.510 -0.9234  0.3985  0.4082
35980SOL     OW14800   3.081   8.597   0.250  0.0261 -0.2906 -0.0687
35980SOL    HW114801   3.149   8.648   0.206 -0.1181 -2.0397 -2.5597
35980SOL    HW214802   2.999   8.629   0.211 -0.2705 -0.6028  0.2922
35981SOL     OW14803   2.768  10.369  12.207 -0.3900  0.2753  0.2284
35981SOL    HW114804   2.769  10.391  12.113  2.3718 -0.2788  0.0494
35981SOL    HW214805   2.695  10.420  12.242 -0.0491  2.3383 -1.8111
35982SOL     OW14806  10.608   7.854   2.180  0.0586  0.0070  0.3320
35982SOL    HW114807  10.686   7.833   2.129  0.2958 -0.4989  0.8928
35982SOL    HW214808  10.569   7.929   2.135  0.1933 -0.5103 -0.6558
35983SOL     OW14809   7.877   5.928   4.050 -0.4172  0.3308 -0.4463
35983SOL    HW114810   7.877   6.023   4.060 -0.6389  0.5465 -2.3162
35983SOL    HW214811   7.951   5.899   4.104 -0.1309  1.5902 -0.1358
35984SOL     OW14812   7.816   2.706   3.454  0.3744 -0.2482 -0.5134
35984SOL    HW114813   7.847   2.653   3.381  0.1455 -0.9844 -0.0941
35984SOL    HW214814   7.726   2.729   3.431  0.3383 -0.3913 -0.5202
35985SOL     OW14815   5.526   3.678   4.173 -0.3637  0.2778  0.2807
35985SOL    HW114816   5.487   3.614   4.114 -0.9021 -0.4196  1.3445
35985SOL    HW214817   5.620   3.661   4.169 -0.4108  0.1331 -0.2441
35986SOL     OW14818   1.771   2.205   3.644 -0.1770 -0.1390  0.6133
35986SOL    HW114819   1.860   2.238   3.631  0.7159 -1.4841  2.6492
35986SOL    HW214820   1.724   2.277   3.685  0.6742 -0.1565  1.6609
35987SOL     OW14821   2.038   1.962   8.960  0.5853 -0.8420  0.7511
35987SOL    HW114822   1.998   1.885   8.919 -0.3056 -0.2617  0.5079
35987SOL    HW214823   1.964   2.012   8.994  1.2048 -0.4387  1.5309
35988SOL     OW14824   8.362   3.312   1.838 -0.1020 -0.1832 -0.4224
35988SOL    HW114825   8.433   3.248   1.843 -0.5716 -0.6163  1.1520
35988SOL    HW214826   8.406   3.396   1.827  0.5894 -0.5653 -0.6580
35989SOL     OW14827   6.219   8.114   7.803 -0.6410 -0.3834  0.4687
35989SOL    HW114828   6.215   8.034   7.750 -0.3856  0.1999 -0.4592
35989SOL    HW214829   6.312   8.128   7.819 -0.7042 -0.4365  0.8898
35990SOL     OW14830   9.262   1.047   2.827  0.0032  0.5308  0.0696
35990SOL    HW114831   9.353   1.032   2.801 -0.0563  0.0524  0.1311
35990SOL    HW214832   9.215   1.061   2.745  0.3896  2.3054  0.1113
35991SOL     OW14833   2.470  10.623  11.037  0.3951 -0.7559 -0.2978
35991SOL    HW114834   2.543  10.581  11.083  0.6881 -1.0393 -1.0009
35991SOL    HW214835   2.511  10.695  10.989  0.0693 -0.3649  0.0048
35992SOL     OW14836   6.832   9.964   5.232 -0.4388  0.5399  0.0782
35992SOL    HW114837   6.760   9.964   5.295 -0.9030 -0.1787 -0.4447
35992SOL    HW214838   6.790   9.960   5.147  0.2062  0.7438 -0.2609
35993SOL     OW14839  10.852  10.049   4.303 -0.2987  0.2904 -0.0487
35993SOL    HW114840  10.936  10.052   4.349  0.6313  1.0884 -1.7238
35993SOL    HW214841  10.872  10.009   4.218 -0.9834  3.0097 -1.6182
35994SOL     OW14842   5.244  11.483   8.511  0.1446 -0.1125  0.1356
35994SOL    HW114843   5.291  11.536   8.575 -0.8524  1.8196 -0.6685
35994SOL    HW214844   5.157  11.523   8.505 -0.0270 -0.6476 -1.9015
35995SOL     OW14845  11.928   8.123   4.831  0.3750  0.1663  0.0330
35995SOL    HW114846  11.966   8.068   4.900 -2.5869 -2.8926 -0.4827
35995SOL    HW214847  11.857   8.170   4.874 -1.5563 -1.8388 -0.7781
35996SOL     OW14848   5.437   8.588  10.459  0.2374 -0.1676  0.8013
35996SOL    HW114849   5.502   8.656  10.439  1.0092 -0.6497  1.5696
35996SOL    HW214850   5.427   8.593  10.554 -1.6849  0.6121  0.5986
35997SOL     OW14851   6.439   0.830  11.920  0.4389  0.6350  0.2393
35997SOL    HW114852   6.450   0.922  11.943 -0.3474  0.6607  0.5445
35997SOL    HW214853   6.353   0.826  11.879  0.6298  0.0967 -0.1190
35998SOL     OW14854   0.939   8.458  11.004  0.0067 -0.4228 -0.5918
35998SOL    HW114855   0.936   8.364  11.024  0.6001 -0.5447 -1.0254
35998SOL    HW214856   1.017   8.468  10.949 -0.7306  0.1345 -1.5590
35999SOL     OW14857   0.302   3.140  11.129 -0.3893 -0.0689  0.1857
35999SOL    HW114858   0.382   3.101  11.166  0.5567  0.2368 -1.4440
35999SOL    HW214859   0.245   3.065  11.112  0.0962 -0.4369  0.1393
36000SOL     OW14860   6.975  10.585   1.062 -0.1519  0.3044 -0.3168
36000SOL    HW114861   6.954  10.643   0.988 -0.7070  1.2463  0.5609
36000SOL    HW214862   6.891  10.572   1.106  0.7730  3.9305  3.1276
36001SOL     OW14863   6.375   7.541   7.451  0.0163  0.5039  0.6209
36001SOL    HW114864   6.384   7.454   7.490 -1.3286  0.2613  0.4342
36001SOL    HW214865   6.463   7.562   7.419  0.2706 -0.9771  0.2718
36002SOL     OW14866   6.727   9.583   8.767  0.3785  0.0469 -0.5692
36002SOL    HW114867   6.794   9.515   8.762 -1.7786 -2.2657  0.0651
36002SOL    HW214868   6.740   9.635   8.687  2.2837 -0.8856 -0.9201
36003SOL     OW14869   7.777   6.169   6.200 -0.2182 -0.1243  0.1776
36003SOL    HW114870   7.697   6.221   6.191 -0.2781 -0.0302  1.0828
36003SOL    HW214871   7.765   6.095   6.141  1.0055  2.1515 -3.2440
36004SOL     OW14872   0.320   5.180   6.349  0.0076  0.5017  0.0839
36004SOL    HW114873   0.244   5.234   6.371 -1.7216 -1.6403 -0.3732
36004SOL    HW214874   0.355   5.151   6.433 -0.6574  0.2070  0.2594
36005SOL     OW14875   4.094  11.578   5.065 -0.1603 -0.6633  0.2360
36005SOL    HW114876   4.006  11.614   5.066 -1.1125 -2.7826 -0.8952
36005SOL    HW214877   4.149  11.647   5.103 -2.0918  1.1827 -0.1497
36006SOL     OW14878   1.850   6.314   4.386  0.2892  0.6012  0.2507
36006SOL    HW114879   1.798   6.393   4.397 -0.7510 -0.1785  1.2050
36006SOL    HW214880   1.911   6.314   4.460  0.6347  0.7651 -0.0330
36007SOL     OW14881   6.791  11.415   3.312 -0.0918 -0.0347 -0.1841
36007SOL    HW114882   6.703  11.421   3.348 -0.5734  0.4501 -1.3873
36007SOL    HW214883   6.843  11.477   3.364 -0.7882  0.7163 -0.3532
36008SOL     OW14884   9.069  11.468   0.045 -0.0634  0.6404  0.1437
36008SOL    HW114885   9.119  11.534   0.093 -1.7814  0.4179  2.3803
36008SOL    HW214886   8.998  11.517   0.003  0.2936  0.5663 -0.5583
36009SOL     OW14887   5.513  10.005   1.649  0.3549  0.1597  0.1245
36009SOL    HW114888   5.566   9.940   1.602 -1.3667 -1.4944  0.3256
36009SOL    HW214889   5.558  10.017   1.733  0.1645 -1.6601  0.5336
36010SOL     OW14890   5.039   6.442   1.413 -0.2396  0.7046  0.3013
36010SOL    HW114891   5.010   6.352   1.400  1.2238  0.1551  0.6827
36010SOL    HW214892   5.082   6.466   1.331 -1.5430  1.4523 -0.1956
36011SOL     OW14893   8.069   7.106   2.322  0.3068  0.1863  0.5755
36011SOL    HW114894   7.985   7.066   2.299  0.1717  1.4421 -1.3771
36011SOL    HW214895   8.126   7.033   2.343 -0.6090 -0.8539 -0.4509
36012SOL     OW14896   5.888   3.988   6.203 -0.8555 -0.2071  0.3259
36012SOL    HW114897   5.937   3.905   6.200 -1.5187 -0.6860  1.7616
36012SOL    HW214898   5.925   4.035   6.278 -0.0900  1.0877 -0.8189
36013SOL     OW14899  12.030   3.304  11.900 -0.4055 -0.2300  0.1543
36013SOL    HW114900  11.986   3.384  11.873 -1.7678 -0.2810  2.0413
36013SOL    HW214901  12.064   3.323  11.987  1.9812 -0.7424 -0.5883
36014SOL     OW14902   3.821   4.958   9.399  0.2168 -0.0402 -0.7241
36014SOL    HW114903   3.763   4.970   9.474  2.7196  2.1293  1.0599
36014SOL    HW214904   3.772   4.992   9.325 -1.0853  0.9621  0.5416
36015SOL     OW14905   7.015   6.670   7.614  0.0163 -0.0767  0.2936
36015SOL    HW114906   6.976   6.698   7.531 -1.7971  0.3470  1.2425
36015SOL    HW214907   7.051   6.583   7.595 -2.1742 -0.9002 -0.4894
36016SOL     OW14908   3.723  10.744   1.783 -0.4984  0.0885  0.2153
36016SOL    HW114909   3.802  10.734   1.729 -2.1143  1.4753 -2.6368
36016SOL    HW214910   3.721  10.665   1.837  1.2185 -1.4830 -1.8187
36017SOL     OW14911  12.441   8.259   1.283 -0.1285 -0.0399  0.3290
36017SOL    HW114912  12.377   8.300   1.342 -0.8758 -1.3244  0.4303
36017SOL    HW214913  12.422   8.166   1.287  0.9100 -0.3185 -0.6655
36018SOL     OW14914   7.189   0.467   4.446  0.1379  0.4015  0.6973
36018SOL    HW114915   7.214   0.510   4.365  0.7543  0.3709  0.8678
36018SOL    HW214916   7.184   0.537   4.510  0.5519  0.2986  0.8407
36019SOL     OW14917   2.820  10.735   4.723 -0.1002 -0.1925 -0.1254
36019SOL    HW114918   2.901  10.684   4.721  0.2333  0.3493 -0.8274
36019SOL    HW214919   2.845  10.822   4.691 -1.2832 -0.5310 -2.1528
36020SOL     OW14920  10.771  11.358  11.631  0.7288 -0.1526 -0.0015
36020SOL    HW114921  10.743  11.366  11.540 -0.1019 -0.5853  0.2080
36020SOL    HW214922  10.703  11.402  11.682  1.3394  0.3611  0.4037
36021SOL     OW14923   1.830   5.126   7.185  0.1901  0.7989  0.5190
36021SOL    HW114924   1.837   5.052   7.126 -1.0700 -2.0256  3.6007
36021SOL    HW214925   1.909   5.121   7.239  0.1680  1.8269  0.6680
36022SOL     OW14926   0.333  11.548  11.199  0.3546  0.4497 -0.2454
36022SOL    HW114927   0.268  11.607  11.236 -0.3750  0.9706 -2.2585
36022SOL    HW214928   0.352  11.486  11.270 -0.0077  2.1412  1.3949
36023SOL     OW14929  10.895   6.815   4.554  0.4115  0.0107 -0.5045
36023SOL    HW114930  10.937   6.845   4.474 -1.0056 -0.8915 -1.6230
36023SOL    HW214931  10.886   6.721   4.543 -2.1379  0.1894 -0.4538
36024SOL     OW14932   3.564   3.618   7.702 -0.6286  0.4958 -0.1624
36024SOL    HW114933   3.643   3.667   7.722  0.6647 -1.7345  0.5387
36024SOL    HW214934   3.499   3.649   7.765 -0.6057  2.8515 -1.1975
36025SOL     OW14935   4.436   7.373   6.620 -0.1674 -0.4668  0.0835
36025SOL    HW114936   4.475   7.344   6.538 -0.4566 -0.2709 -0.1279
36025SOL    HW214937   4.374   7.442   6.594  0.6245  0.4640  0.5902
36026SOL     OW14938   3.111   9.338   4.755  0.0658 -0.0922 -0.0454
36026SOL    HW114939   3.144   9.355   4.667 -1.3568  3.3493 -0.0620
36026SOL    HW214940   3.021   9.308   4.742  0.0637 -0.1985  0.2082
36027SOL     OW14941   8.928   7.791   1.288 -0.1369 -0.4308  0.3672
36027SOL    HW114942   8.882   7.730   1.231  0.0055 -1.0173  0.8679
36027SOL    HW214943   8.909   7.878   1.252 -0.4196 -0.7647 -0.2943
36028SOL     OW14944   9.532   0.580   3.504  0.1715  0.1552  0.1556
36028SOL    HW114945   9.439   0.600   3.517 -0.2612 -2.2387  1.1115
36028SOL    HW214946   9.577   0.657   3.540 -1.4006  1.4301 -0.4556
36029SOL     OW14947   5.494   9.151   0.783 -0.2333 -0.0339  0.0375
36029SOL    HW114948   5.582   9.188   0.789 -0.0343 -0.1562 -1.5682
36029SOL    HW214949   5.450   9.179   0.863  1.3076 -0.0901  0.9248
36030SOL     OW14950   5.909   2.664  11.366  0.2755  0.0075 -0.1882
36030SOL    HW114951   5.902   2.677  11.460  2.5643 -0.1298  0.0447
36030SOL    HW214952   5.819   2.647  11.338 -1.1052  3.7040  1.3518
36031SOL     OW14953   2.815   0.167   1.933  0.4166 -0.0158  0.2748
36031SOL    HW114954   2.754   0.181   1.861 -1.1511 -2.0574  1.1118
36031SOL    HW214955   2.863   0.088   1.909  0.6769 -0.0709  0.9486
36032SOL     OW14956   8.984  10.742  11.249 -0.1989  0.4466 -0.2487
36032SOL    HW114957   9.035  10.780  11.320 -0.7894 -1.3752  1.2376
36032SOL    HW214958   8.998  10.647  11.258  1.3058  0.1666 -3.8131
36033SOL     OW14959  11.885   6.788   0.487  0.0462  0.2145 -0.5875
36033SOL    HW114960  11.817   6.846   0.521  0.0735  0.1662 -0.4504
36033SOL    HW214961  11.838   6.709   0.462  0.4076 -1.1158  2.4577
36034SOL     OW14962  11.540   8.471  12.372 -0.2118  0.1237 -0.1332
36034SOL    HW114963  11.473   8.500  12.310 -1.5496  1.1277  1.6907
36034SOL    HW214964  11.606   8.541  12.370 -0.7784  0.6795  0.3410
36035SOL     OW14965  10.210   8.523   1.543 -0.0423 -0.2392  0.3544
36035SOL    HW114966  10.230   8.605   1.498  1.9939 -1.4033 -1.0325
36035SOL    HW214967  10.121   8.536   1.577  0.0057  2.3230 -0.2431
36036SOL     OW14968   0.267   4.545   6.663  0.0900  0.1481  0.0244
36036SOL    HW114969   0.335   4.487   6.628  0.5205  0.2626  0.6370
36036SOL    HW214970   0.204   4.553   6.592  0.5498 -0.2290 -0.4461
36037SOL     OW14971   3.537  10.450   9.519 -0.2963  0.3625  0.2671
36037SOL    HW114972   3.556  10.397   9.441  0.5590 -0.9970  1.3368
36037SOL    HW214973   3.535  10.540   9.487  0.9053 -0.0752 -1.1825
36038SOL     OW14974  10.140   1.995  10.773  0.2272  0.7072  0.1546
36038SOL    HW114975  10.162   2.047  10.696 -2.3898  2.6095  0.5441
36038SOL    HW214976  10.091   1.921  10.739  0.4822  0.6631 -0.1166
36039SOL     OW14977   8.574  10.521   4.487  0.6143 -0.1769 -0.1986
36039SOL    HW114978   8.558  10.472   4.407  0.1716  0.0507 -0.2523
36039SOL    HW214979   8.567  10.613   4.461  1.9364 -0.0638 -0.2075
36040SOL     OW14980   3.168   5.801   9.690  0.0124 -0.0671  0.8244
36040SOL    HW114981   3.207   5.822   9.605  0.1796  4.6131  1.7998
36040SOL    HW214982   3.074   5.806   9.675 -0.0441 -1.4304  0.5569
36041SOL     OW14983   1.815   3.411   5.993 -0.2857 -0.0323 -0.7572
36041SOL    HW114984   1.790   3.341   5.933 -0.1790  0.9391 -1.9740
36041SOL    HW214985   1.897   3.445   5.957  1.6963 -1.6528  1.8639
36042SOL     OW14986   5.950   1.913   6.823 -0.4286  0.7686  0.3076
36042SOL    HW114987   5.957   1.988   6.764  0.2809  0.0665 -0.5277
36042SOL    HW214988   5.860   1.916   6.855 -0.2158  2.3815  0.8638
36043SOL     OW14989   6.640   3.786   9.695 -0.0721 -0.4744 -0.1255
36043SOL    HW114990   6.705   3.725   9.660 -1.1011 -0.8457 -1.4975
36043SOL    HW214991   6.623   3.846   9.622  0.3800  1.0362  0.9527
36044SOL     OW14992   4.818   5.768   3.702 -0.1597  0.4409  0.2910
36044SOL    HW114993   4.835   5.846   3.649 -0.9006  0.3548 -0.0913
36044SOL    HW214994   4.723   5.757   3.698 -0.0049 -0.8695 -0.2321
36045SOL     OW14995   9.325   6.946  12.372 -0.1612  0.5765 -0.2389
36045SOL    HW114996   9.275   6.880  12.325 -2.6599  1.8276  0.4554
36045SOL    HW214997   9.385   6.982  12.307  0.4783 -1.5424 -0.9034
36046SOL     OW14998  10.674   5.890   9.315 -0.1116 -0.1154  0.0511
36046SOL    HW114999  10.710   5.802   9.312  3.0265  1.0399  0.1157
36046SOL    HW215000  10.684   5.923   9.225  0.7563  0.8341  0.4707
36047SOL     OW15001   9.847   3.770   6.215 -0.4205  0.2784  0.2901
36047SOL    HW115002   9.911   3.701   6.200 -0.6483 -0.3525  2.0398
36047SOL    HW215003   9.762   3.726   6.210 -0.7342  0.9737 -1.2989
36048SOL     OW15004   5.095   5.393   2.771  0.0510  0.3671  0.6275
36048SOL    HW115005   5.149   5.393   2.850  0.2751 -3.1400  0.6494
36048SOL    HW215006   5.011   5.358   2.799 -0.1839 -0.0188 -0.4789
36049SOL     OW15007   8.177   0.370   4.998  0.1999 -0.0163  0.7040
36049SOL    HW115008   8.238   0.316   5.049  1.1679  1.5662  1.2801
36049SOL    HW215009   8.151   0.440   5.057  0.9241  1.5598 -0.7712
36050SOL     OW15010   9.235  11.860   1.306 -0.5324 -0.0261  0.0639
36050SOL    HW115011   9.234  11.903   1.391  0.0616 -0.3003  0.2162
36050SOL    HW215012   9.218  11.930   1.243 -1.9199  0.0172  0.4570
36051SOL     OW15013  10.826   5.683  10.268 -0.1128 -0.5557 -0.0813
36051SOL    HW115014  10.805   5.671  10.175  0.2312  0.7037 -0.3396
36051SOL    HW215015  10.795   5.772  10.288 -0.9053 -1.0970  1.2287
36052SOL     OW15016   5.210   1.370   2.558  0.3531 -0.2859 -0.2192
36052SOL    HW115017   5.253   1.309   2.619 -0.7377 -2.3866 -1.4439
36052SOL    HW215018   5.250   1.455   2.578  3.4182 -1.6851  0.2241
36053SOL     OW15019  12.383   9.868   2.061  0.1083 -0.5021 -0.7856
36053SOL    HW115020  12.335   9.936   2.108  0.2428 -0.2318 -1.0328
36053SOL    HW215021  12.455   9.915   2.019 -0.4480 -0.6008 -1.9022
36054SOL     OW15022  12.158   0.521  11.277  0.1094 -0.2426 -0.0481
36054SOL    HW115023  12.208   0.534  11.196 -1.2051 -0.1748 -0.8724
36054SOL    HW215024  12.215   0.556  11.345  1.1793 -0.1410 -0.9608
36055SOL     OW15025   7.352  11.604   2.144 -0.4632 -0.4505 -0.2280
36055SOL    HW115026   7.395  11.530   2.187 -1.2066 -2.0493 -2.0914
36055SOL    HW215027   7.262  11.600   2.174 -0.6818 -0.7898 -0.9082
36056SOL     OW15028   1.821   6.519   8.648 -0.0210 -0.0055 -0.1707
36056SOL    HW115029   1.860   6.433   8.664 -0.5923 -0.1701  0.3861
36056SOL    HW215030   1.887   6.566   8.598  0.7260 -0.4174  0.4021
36057SOL     OW15031  12.130   0.821   6.113  0.3563 -0.4089  0.7306
36057SOL    HW115032  12.127   0.769   6.033  0.1834 -0.7604  0.9649
36057SOL    HW215033  12.213   0.870   6.108 -0.3619  0.7605 -0.4065
36058SOL     OW15034   1.512   2.879  12.469  0.1578 -0.1621  0.3601
36058SOL    HW115035   1.561   2.956  12.497 -1.0843  0.2856  1.4023
36058SOL    HW215036   1.430   2.915  12.434  0.4004 -0.9045 -1.0411
36059SOL     OW15037   9.042   4.634  11.061  0.5680  0.1076  0.4038
36059SOL    HW115038   8.962   4.645  11.112  0.2364 -1.0923  0.1681
36059SOL    HW215039   9.087   4.560  11.103 -0.4154 -1.8950 -1.8676
36060SOL     OW15040   4.975  11.136   3.986  0.5447  0.5808 -0.7842
36060SOL    HW115041   4.958  11.225   3.956  0.4782  0.2366 -1.8080
36060SOL    HW215042   4.918  11.124   4.062 -1.0860  0.6919 -1.9369
36061SOL     OW15043  10.939   9.016   1.212 -0.5251 -0.1938 -0.3445
36061SOL    HW115044  10.904   9.064   1.137  1.3314  0.1664 -1.0595
36061SOL    HW215045  10.921   8.924   1.191 -0.7163 -0.0463 -0.8620
36062SOL     OW15046   7.490   9.980   0.986  0.4713  0.0856 -0.1494
36062SOL    HW115047   7.485   9.931   1.068 -0.3656  2.4302  1.3019
36062SOL    HW215048   7.399   9.998   0.963  0.7092 -0.3328 -1.4890
36063SOL     OW15049   2.170   7.458   4.812 -0.0850  0.3460  0.0033
36063SOL    HW115050   2.125   7.517   4.752  0.7402  0.7085 -0.2775
36063SOL    HW215051   2.101   7.423   4.868 -0.5649  1.7885  0.3556
36064SOL     OW15052  11.309   4.143  12.093 -0.0866  0.0799  0.0365
36064SOL    HW115053  11.282   4.206  12.159  1.1068 -0.1341  0.7466
36064SOL    HW215054  11.404   4.135  12.104 -0.1984 -1.7934 -0.0655
36065SOL     OW15055  11.396  11.490   7.131 -1.2263 -0.3560 -0.0042
36065SOL    HW115056  11.335  11.452   7.194 -1.0157 -0.4877  0.1204
36065SOL    HW215057  11.479  11.494   7.178 -1.8029  2.8712  1.0552
36066SOL     OW15058   5.664   6.602   8.534 -0.0729  0.4342  0.1936
36066SOL    HW115059   5.688   6.646   8.452  1.3178  0.5310  0.6228
36066SOL    HW215060   5.576   6.634   8.553 -1.0326 -0.6815 -1.9880
36067SOL     OW15061  10.795  11.500   6.871  0.0222  0.1765 -0.0752
36067SOL    HW115062  10.741  11.578   6.860  0.5441  0.4549 -0.7486
36067SOL    HW215063  10.757  11.454   6.946 -0.9275  0.5463 -0.3223
36068SOL     OW15064  11.689   2.990  12.175  0.0931 -0.6045 -0.2688
36068SOL    HW115065  11.608   3.016  12.132 -1.0952 -0.4991  1.8720
36068SOL    HW215066  11.749   3.062  12.160 -0.9611  0.3483 -0.0330
36069SOL     OW15067   9.506   7.665   9.438 -0.4327 -0.5167  0.8532
36069SOL    HW115068   9.438   7.680   9.371 -1.0598 -1.9397  1.1197
36069SOL    HW215069   9.560   7.744   9.435 -0.0359 -0.7766 -1.7995
36070SOL     OW15070  10.550   9.459   2.098 -0.0220 -0.0424 -0.4877
36070SOL    HW115071  10.598   9.388   2.141 -1.6808 -0.9994 -0.1192
36070SOL    HW215072  10.503   9.502   2.169 -0.6712  0.0886 -0.9969
36071SOL     OW15073   0.109   1.201   3.467 -0.6375  0.6492 -0.1879
36071SOL    HW115074   0.071   1.128   3.418  0.2054  1.8825 -2.8444
36071SOL    HW215075   0.036   1.261   3.482 -0.9734  0.0945  0.4553
36072SOL     OW15076   0.429   0.746  10.706  0.0985 -0.6510 -0.2497
36072SOL    HW115077   0.440   0.778  10.795 -0.9163  0.2729 -0.4322
36072SOL    HW215078   0.489   0.672  10.699  0.3685 -0.5791  1.1154
36073SOL     OW15079  10.273   8.145   4.606 -0.5481  0.7110  0.2721
36073SOL    HW115080  10.319   8.106   4.532  2.7994 -1.9913  3.3437
36073SOL    HW215081  10.340   8.196   4.651 -1.6362  0.1303  2.7366
36074SOL     OW15082   6.453   3.885   3.257 -0.3838 -0.2864  0.0604
36074SOL    HW115083   6.472   3.893   3.164  0.7055 -1.7972  0.1093
36074SOL    HW215084   6.457   3.790   3.274  1.0383  0.0574  1.9433
36075SOL     OW15085  12.010   7.899  10.366 -0.5471 -0.8027 -0.5601
36075SOL    HW115086  12.087   7.863  10.321  0.1077  1.8722 -1.8070
36075SOL    HW215087  11.940   7.894  10.301 -0.7412 -0.8080 -0.3514
36076SOL     OW15088  12.373   6.089   8.699  0.5004 -0.4467 -0.1307
36076SOL    HW115089  12.298   6.122   8.649  0.2456  0.8665  1.0305
36076SOL    HW215090  12.387   6.000   8.667 -0.9735 -0.3902 -1.0157
36077SOL     OW15091   6.338   5.462   8.676  0.2153 -0.4652  0.3154
36077SOL    HW115092   6.326   5.509   8.593  2.0717 -2.5771 -1.2722
36077SOL    HW215093   6.284   5.384   8.667  0.5529 -0.7874  1.0222
36078SOL     OW15094   6.576   0.660   5.995  0.0981  0.3361 -0.5709
36078SOL    HW115095   6.644   0.640   6.059  0.4756  1.0916 -0.7373
36078SOL    HW215096   6.532   0.737   6.029 -1.7626 -1.0663  0.3767
36079SOL     OW15097   3.244   4.039   5.764 -0.3671  0.1253 -0.0866
36079SOL    HW115098   3.262   4.021   5.856  3.3302 -0.3522 -0.7449
36079SOL    HW215099   3.247   3.952   5.722 -0.9741  0.4385 -0.7968
36080SOL     OW15100  10.604  12.129   8.531  0.6482  0.3705 -0.2988
36080SOL    HW115101  10.564  12.054   8.486  1.2428  1.1362 -2.2003
36080SOL    HW215102  10.632  12.094   8.615 -0.5541 -1.1287 -0.4753
36081SOL     OW15103  10.803   4.854   5.456  0.0093  0.8415 -0.3492
36081SOL    HW115104  10.794   4.866   5.361 -0.2066  2.3432 -0.1702
36081SOL    HW215105  10.890   4.891   5.476 -0.5737  1.9515  0.2224
36082SOL     OW15106  11.464  11.657   2.009 -0.2114  0.4383 -1.2690
36082SOL    HW115107  11.402  11.619   1.948  0.0141  1.3295 -2.0884
36082SOL    HW215108  11.543  11.603   2.001 -0.0391  0.8035 -2.0926
36083SOL     OW15109   0.670  11.733   0.960 -0.4135 -0.1150 -0.0218
36083SOL    HW115110   0.627  11.811   0.924 -0.4270  0.0841  0.4102
36083SOL    HW215111   0.750  11.724   0.909  0.4063  1.1496  0.9742
36084SOL     OW15112   3.689  11.450   1.525  0.2321 -0.3948 -0.0366
36084SOL    HW115113   3.652  11.365   1.500 -0.0758 -0.3577  0.2818
36084SOL    HW215114   3.619  11.494   1.573  0.0483  0.4541 -1.0508
36085SOL     OW15115   7.946  11.507  10.412 -0.5138  0.1648  0.2818
36085SOL    HW115116   7.944  11.468  10.499 -2.4468  0.3608  0.3508
36085SOL    HW215117   7.859  11.543  10.398  0.7114  3.2243 -0.3898
36086SOL     OW15118   2.727   0.010  11.987 -0.6219  0.3405 -0.2811
36086SOL    HW115119   2.797   0.075  11.991  0.2805 -0.5125 -1.4392
36086SOL    HW215120   2.660   0.051  11.933 -0.7143  0.8864  0.2389
36087SOL     OW15121   8.043   3.713   5.549 -0.1043  0.0418 -0.2932
36087SOL    HW115122   7.961   3.747   5.515 -0.0599 -2.4179 -3.3109
36087SOL    HW215123   8.034   3.716   5.645 -3.6089 -0.0008 -0.5267
36088SOL     OW15124   4.375   1.725  10.079  0.3137 -0.0466  0.0406
36088SOL    HW115125   4.291   1.759  10.110  0.9710  0.0955  1.8115
36088SOL    HW215126   4.389   1.768   9.995 -1.1230  0.3375 -0.0253
36089SOL     OW15127   3.819   2.238   3.309  0.3510  0.3252  0.0116
36089SOL    HW115128   3.736   2.189   3.311  0.6434 -0.2170 -0.7297
36089SOL    HW215129   3.827   2.268   3.219  0.6520  0.9270  0.2345
36090SOL     OW15130  10.868   1.640   0.991 -0.0990 -0.0982  0.1544
36090SOL    HW115131  10.927   1.649   0.916 -0.2489  0.6044  0.1105
36090SOL    HW215132  10.846   1.547   0.993  0.8233 -0.3270  0.0335
36091SOL     OW15133   6.977   7.750   8.714 -0.0810 -0.0055  0.7048
36091SOL    HW115134   6.930   7.684   8.663 -0.5474  0.2857  0.7500
36091SOL    HW215135   7.010   7.812   8.649  0.3255 -0.2618  0.6645
36092SOL     OW15136   9.129  10.898   9.290  0.1956  0.3227  0.1026
36092SOL    HW115137   9.122  10.840   9.215  0.0902  0.9803 -0.4018
36092SOL    HW215138   9.133  10.839   9.366 -1.3963 -0.3301 -0.2781
36093SOL     OW15139  10.061  11.061   5.758 -0.7790 -0.2583 -0.4776
36093SOL    HW115140  10.117  10.985   5.747 -0.3321 -0.0152  0.0796
36093SOL    HW215141  10.008  11.042   5.835  0.5419  0.6934  0.7266
36094SOL     OW15142  10.181   2.568   3.355  0.6417  0.6963 -0.0409
36094SOL    HW115143  10.263   2.521   3.340 -0.3431 -0.9181 -0.6521
36094SOL    HW215144  10.131   2.555   3.274 -1.2739 -0.6800  1.2635
36095SOL     OW15145   2.740   7.671   0.086  0.1563 -0.0324  0.4724
36095SOL    HW115146   2.693   7.705   0.009  0.2969 -1.6396 -0.3687
36095SOL    HW215147   2.828   7.708   0.079  0.1799 -0.2036 -0.1831
36096SOL     OW15148   0.153   9.607  11.425  0.1208 -0.2204 -0.5348
36096SOL    HW115149   0.223   9.622  11.488  0.5878 -0.1924 -1.0533
36096SOL    HW215150   0.143   9.511  11.423 -1.8781 -0.1650  1.7018
36097SOL     OW15151   9.972   0.638   0.724  0.0271  0.3733 -0.0345
36097SOL    HW115152  10.047   0.669   0.672  0.1556  0.3917  0.1627
36097SOL    HW215153   9.925   0.718   0.747 -1.2594  0.2450 -1.9625
36098SOL     OW15154   8.381   3.905  11.246 -0.4887  0.1224 -0.5062
36098SOL    HW115155   8.472   3.913  11.218 -0.9544 -0.2691 -2.3062
36098SOL    HW215156   8.330   3.930  11.168 -1.9280  0.9616  0.6549
36099SOL     OW15157   6.087   0.247  11.579  0.0598  0.5568 -0.1757
36099SOL    HW115158   6.028   0.225  11.651 -0.1509  0.0760 -0.4929
36099SOL    HW215159   6.170   0.271  11.621  0.0975 -0.2286  0.2032
36100SOL     OW15160   7.089   7.630   0.875 -0.0336  0.0614  0.0159
36100SOL    HW115161   7.064   7.701   0.817  1.7836  1.6113  1.0210
36100SOL    HW215162   7.183   7.644   0.891  0.2082 -2.1336  0.8384
36101SOL     OW15163   5.555   9.981   1.230 -0.1685  0.9920 -0.4305
36101SOL    HW115164   5.519   9.974   1.318  0.2404  0.5017 -0.3027
36101SOL    HW215165   5.647  10.004   1.243  0.6856 -1.9053 -0.6023
36102SOL     OW15166  10.817   8.899   8.026  0.1279  0.0081  0.1242
36102SOL    HW115167  10.898   8.925   8.069  0.3261 -1.1198  0.4635
36102SOL    HW215168  10.822   8.939   7.939 -0.3547  2.4697  1.1425
36103SOL     OW15169  10.387   7.823   6.632 -0.3347  0.3051 -0.6225
36103SOL    HW115170  10.304   7.777   6.644  0.0237 -0.2024 -0.0726
36103SOL    HW215171  10.368   7.888   6.564 -1.4881  0.9462  0.2591
36104SOL     OW15172   8.215   9.204   1.066 -0.5285 -0.1355  0.5736
36104SOL    HW115173   8.203   9.271   0.999 -0.3062 -1.4689 -0.8373
36104SOL    HW215174   8.130   9.199   1.110 -0.6941  0.7217  0.3752
36105SOL     OW15175   3.643   8.169  11.709 -0.4486 -0.4824  0.1461
36105SOL    HW115176   3.690   8.141  11.631 -0.9272 -1.6383  0.2624
36105SOL    HW215177   3.711   8.190  11.772 -0.0529 -2.6969  0.5170
36106SOL     OW15178   6.266   8.836  12.259  0.1667 -0.3247 -0.1635
36106SOL    HW115179   6.249   8.920  12.302  1.2766 -0.0172 -0.2819
36106SOL    HW215180   6.336   8.856  12.196 -1.7456 -0.6480 -2.5145
36107SOL     OW15181   6.217   1.738  12.310  0.6616  0.5390 -0.0916
36107SOL    HW115182   6.156   1.792  12.360  0.0633  0.1711 -0.4137
36107SOL    HW215183   6.247   1.795  12.239  2.4451  1.4740  1.3149
36108SOL     OW15184   1.718   8.041   6.030  0.2998  0.1697 -0.2950
36108SOL    HW115185   1.649   8.094   5.989 -0.1755 -0.1627  0.0707
36108SOL    HW215186   1.707   8.057   6.123  1.9944  1.6943 -0.3179
36109SOL     OW15187  11.427  12.257  11.783 -0.2025 -0.5631  0.0275
36109SOL    HW115188  11.481  12.213  11.717  1.1314  0.1070  0.6182
36109SOL    HW215189  11.468  12.344  11.792  0.2127 -0.9409  2.3603
36110SOL     OW15190  10.561   6.056  11.034  0.2790 -0.0930  0.1283
36110SOL    HW115191  10.589   6.103  10.955  0.5940 -1.8205 -0.8389
36110SOL    HW215192  10.600   5.969  11.025 -1.7750 -1.1693  0.9045
36111SOL     OW15193   4.564   8.342   6.725  0.5120 -0.2555  0.5239
36111SOL    HW115194   4.638   8.402   6.716  1.4472 -1.5243 -0.6687
36111SOL    HW215195   4.514   8.376   6.800  0.8759  2.0971 -0.2196
36112SOL     OW15196   5.757   3.259   0.856 -0.0823  0.1318  0.2552
36112SOL    HW115197   5.794   3.346   0.869 -0.5711  0.5435 -0.9730
36112SOL    HW215198   5.700   3.268   0.780  0.4828 -1.4528 -0.4068
36113SOL     OW15199  11.133  11.226   6.794  0.5544 -0.0182 -0.2950
36113SOL    HW115200  11.061  11.281   6.763  0.9365 -0.5842 -2.3550
36113SOL    HW215201  11.176  11.196   6.714  2.0859 -1.0242  0.8488
36114SOL     OW15202   9.346  12.427   7.660 -0.2546 -0.1408  0.2336
36114SOL    HW115203   9.338  12.333   7.677  0.3055  0.1518  2.5012
36114SOL    HW215204   9.257  12.461   7.668 -0.3395 -0.3661  0.2467
36115SOL     OW15205   1.820  12.328   0.251 -0.5188 -0.0826  0.5771
36115SOL    HW115206   1.775  12.361   0.173 -1.5277 -0.4375  0.9956
36115SOL    HW215207   1.910  12.359   0.241 -1.1391  1.7730  0.3516
36116SOL     OW15208   2.180  12.480   2.819  0.2223  0.1090  0.6955
36116SOL    HW115209   2.139  12.429   2.749  0.2006  1.5296 -0.3757
36116SOL    HW215210   2.106  12.525   2.861  0.5398  1.9435 -0.6301
36117SOL     OW15211   7.584  11.070  10.532  0.4161 -0.5854 -0.6334
36117SOL    HW115212   7.668  11.043  10.495 -0.3263 -3.2804 -0.5834
36117SOL    HW215213   7.591  11.049  10.625 -0.8495 -2.5264 -0.9216
36118SOL     OW15214  11.317   5.441   9.984 -0.2437  1.2149 -0.4223
36118SOL    HW115215  11.321   5.384  10.061  0.9958  1.8739  0.0307
36118SOL    HW215216  11.403   5.431   9.942 -1.2478  0.0626 -2.3532
36119SOL     OW15217   6.938  10.970  10.857 -0.0521  1.0926  0.5373
36119SOL    HW115218   6.901  11.040  10.912 -0.6032 -0.5337  2.3385
36119SOL    HW215219   7.033  10.980  10.867 -0.1197  1.5690  0.7635
36120SOL     OW15220   0.222   3.933   0.285  0.1849 -0.0176  0.1039
36120SOL    HW115221   0.138   3.900   0.250  1.3579 -1.0438 -1.9719
36120SOL    HW215222   0.279   3.856   0.284  1.2821  0.7583  1.1249
36121SOL     OW15223   2.628   5.456   1.700 -0.0366 -0.3699 -0.2997
36121SOL    HW115224   2.688   5.410   1.642 -0.2788  0.3064 -1.1126
36121SOL    HW215225   2.597   5.389   1.761  0.2737 -1.0899 -0.9105
36122SOL     OW15226   1.572  11.636  11.743  0.1587 -0.1354 -0.0520
36122SOL    HW115227   1.481  11.630  11.773  0.4914  0.9263  1.2461
36122SOL    HW215228   1.575  11.714  11.689  0.2201 -0.3835 -0.4095
36123SOL     OW15229   4.457   7.690   2.273  0.3927 -0.0977  0.3187
36123SOL    HW115230   4.485   7.701   2.182  0.4374 -1.4794  0.1339
36123SOL    HW215231   4.537   7.668   2.320  0.1021 -1.1528  0.3429
36124SOL     OW15232   5.906   9.856   3.926  0.3211  0.3875  0.1885
36124SOL    HW115233   5.817   9.879   3.899  0.4489  0.8477  0.1649
36124SOL    HW215234   5.913   9.886   4.016  0.2513 -0.2041  0.3983
36125SOL     OW15235  12.446   1.606  10.164  0.6228  0.2581 -0.1473
36125SOL    HW115236  12.469   1.698  10.177 -0.2592  0.3920  0.5216
36125SOL    HW215237  12.521   1.569  10.116  0.3538  1.6409 -1.6746
36126SOL     OW15238   1.011   5.539   8.950  0.6421 -0.2453 -0.0177
36126SOL    HW115239   0.947   5.528   9.020  0.2521 -1.1481 -0.4882
36126SOL    HW215240   0.976   5.611   8.897 -1.1096 -2.0103 -1.4067
36127SOL     OW15241   7.978   7.786   5.383 -0.0153  0.1066  1.0187
36127SOL    HW115242   7.985   7.857   5.447 -0.4396  0.4017  0.7421
36127SOL    HW215243   7.907   7.731   5.416  0.1832 -0.0918  1.1275
36128SOL     OW15244   6.476  11.746   7.304  0.0989  0.0553 -0.2032
36128SOL    HW115245   6.500  11.833   7.271  0.1626  0.0562 -0.1550
36128SOL    HW215246   6.439  11.701   7.228 -0.3396  0.2760 -0.1237
36129SOL     OW15247  10.452   4.839  11.434  0.2363  0.1498  0.3686
36129SOL    HW115248  10.447   4.929  11.401  0.4036  0.4999  1.2690
36129SOL    HW215249  10.482   4.849  11.525 -0.9991 -0.7399  0.8899
36130SOL     OW15250  10.400   5.825   2.797  0.7128 -0.7333  0.3564
36130SOL    HW115251  10.352   5.796   2.874  0.8637 -1.3113  0.2390
36130SOL    HW215252  10.404   5.747   2.741  0.3785 -0.2572 -0.3491
36131SOL     OW15253   7.968  10.186  11.286 -0.5151 -0.2530 -0.2942
36131SOL    HW115254   7.903  10.117  11.295  0.2825 -0.8239  1.7856
36131SOL    HW215255   7.936  10.257  11.342  0.5078 -0.4823  0.6352
36132SOL     OW15256   6.570   0.531   4.912  0.1572  0.2830 -0.0821
36132SOL    HW115257   6.633   0.576   4.856  0.5782 -1.3342 -0.9599
36132SOL    HW215258   6.617   0.454   4.944 -0.2542  0.8387  2.0684
36133SOL     OW15259  10.857   9.260   6.544 -0.0307  0.4601 -0.3935
36133SOL    HW115260  10.803   9.328   6.584 -0.9639  0.0385 -0.9123
36133SOL    HW215261  10.943   9.300   6.536 -0.1983  1.0793  0.6323
36134SOL     OW15262   8.751   8.798   7.559 -0.0168 -0.1721 -0.0196
36134SOL    HW115263   8.712   8.767   7.641 -0.5133  0.9463  0.1884
36134SOL    HW215264   8.726   8.732   7.495 -0.8163 -0.3553  0.4615
36135SOL     OW15265   4.330   5.982   6.259  0.0588 -0.4577  0.5136
36135SOL    HW115266   4.282   5.957   6.338 -2.4052  1.2901 -0.3135
36135SOL    HW215267   4.275   5.952   6.187  1.9319 -1.4286 -0.5872
36136SOL     OW15268   9.602   4.970   8.525 -0.3803 -0.3105  0.7827
36136SOL    HW115269   9.531   4.908   8.506  0.6869 -1.0204 -1.0749
36136SOL    HW215270   9.564   5.056   8.505 -0.5623 -0.7315 -0.8083
36137SOL     OW15271   9.861   5.274  10.178  0.0947  0.1272  0.1868
36137SOL    HW115272   9.823   5.360  10.162  1.3615  0.8310  0.7742
36137SOL    HW215273   9.929   5.265  10.111  1.5528  0.6350  1.5313
36138SOL     OW15274   0.379   8.157   6.798  0.0479 -0.8324 -0.2989
36138SOL    HW115275   0.403   8.075   6.757 -1.0369 -1.2962 -0.0388
36138SOL    HW215276   0.392   8.142   6.892  0.1665 -0.5911 -0.2752
36139SOL     OW15277   9.431  10.094   4.906 -0.1780 -0.0871  0.1244
36139SOL    HW115278   9.437  10.017   4.962  3.5402  1.3553  2.0147
36139SOL    HW215279   9.411  10.166   4.966 -0.1929  0.9258 -1.0510
36140SOL     OW15280   4.589   2.391   4.178  0.2260 -0.1282 -0.1750
36140SOL    HW115281   4.613   2.481   4.201  0.4852  0.3066 -2.0332
36140SOL    HW215282   4.661   2.337   4.212  0.6735  0.4943 -0.1202
36141SOL     OW15283   8.078   2.489   5.018  0.6112  0.2480  0.2409
36141SOL    HW115284   8.153   2.539   4.986  0.4206  0.2494 -0.2044
36141SOL    HW215285   8.113   2.440   5.093  0.7399  1.2296  0.8491
36142SOL     OW15286   5.599   4.453   1.324 -0.3947 -0.7040 -0.2481
36142SOL    HW115287   5.541   4.525   1.348 -0.4625 -0.8973  0.1718
36142SOL    HW215288   5.618   4.468   1.231 -1.1992 -0.7004 -0.4242
36143SOL     OW15289   1.309  11.927   3.456  0.0672  0.2748 -0.2055
36143SOL    HW115290   1.291  12.002   3.513 -0.0974 -1.3246  1.9471
36143SOL    HW215291   1.257  11.856   3.493  0.4665 -1.0187 -1.9979
36144SOL     OW15292   6.560   9.623  10.251 -0.1159  0.2110  0.0900
36144SOL    HW115293   6.490   9.570  10.288  0.5575  0.2161  1.4146
36144SOL    HW215294   6.618   9.560  10.208 -1.4354  0.3019 -1.9357
36145SOL     OW15295   6.999  12.220   2.557  0.1866  0.2915  0.6337
36145SOL    HW115296   7.076  12.213   2.500 -0.1743 -0.3448  0.2099
36145SOL    HW215297   6.941  12.280   2.511  1.1352  2.2039  1.7980
36146SOL     OW15298   8.004   7.626   5.982  0.8329  0.1385  0.3679
36146SOL    HW115299   8.047   7.561   5.927 -0.4273 -1.3817  1.1120
36146SOL    HW215300   8.038   7.610   6.070  0.1012  0.1065  0.6521
36147SOL     OW15301   3.038   2.867   1.119  0.1293 -0.2030  0.6105
36147SOL    HW115302   3.103   2.926   1.158 -0.4256 -0.4909  2.0239
36147SOL    HW215303   2.976   2.850   1.190 -1.5049  0.0683 -0.6994
36148SOL     OW15304   9.612  10.379   7.195  0.1572  0.6226  0.3714
36148SOL    HW115305   9.596  10.309   7.258  1.1416  0.0278 -0.0207
36148SOL    HW215306   9.530  10.386   7.146  0.1065 -0.3815  0.2896
36149SOL     OW15307   6.806   9.318   6.078  0.0844 -0.0186  0.1681
36149SOL    HW115308   6.896   9.330   6.110  0.5806 -1.2890 -0.7076
36149SOL    HW215309   6.775   9.239   6.122 -1.1714  1.1824  1.5926
36150SOL     OW15310   4.734  11.499  11.990  0.4077 -0.6003  0.0334
36150SOL    HW115311   4.673  11.564  12.026  0.7733 -0.0831 -0.2557
36150SOL    HW215312   4.764  11.450  12.066  2.8953  1.9321  0.8979
36151SOL     OW15313   2.303   7.382   5.050 -0.4727  0.4244 -0.0929
36151SOL    HW115314   2.396   7.390   5.071 -0.4888 -1.4243  0.8589
36151SOL    HW215315   2.298   7.397   4.956  0.6867  1.1818 -0.0573
36152SOL     OW15316   9.897   7.581   0.109 -0.6384 -0.6875  0.3569
36152SOL    HW115317   9.850   7.554   0.188 -0.0583 -0.4444  0.7897
36152SOL    HW215318   9.989   7.582   0.135 -0.2969 -1.9826 -0.7270
36153SOL     OW15319   6.169  12.073  10.805  0.3357 -0.6652  0.3525
36153SOL    HW115320   6.088  12.048  10.760  0.0690 -0.4881  0.7366
36153SOL    HW215321   6.153  12.053  10.897  0.3515  0.3154  0.5778
36154SOL     OW15322   9.760   8.195   5.467  0.2213  0.2480 -0.4238
36154SOL    HW115323   9.851   8.166   5.467 -0.0634 -0.7606  0.9371
36154SOL    HW215324   9.752   8.249   5.546 -0.1948  0.9416 -0.9253
36155SOL     OW15325   2.573   5.854   8.243 -0.1135 -0.2306  0.1837
36155SOL    HW115326   2.603   5.926   8.299 -4.2483  1.3105  0.7150
36155SOL    HW215327   2.577   5.889   8.154  1.5172 -0.8177 -0.0059
36156SOL     OW15328   3.198   2.339   4.850  0.2964  0.0442 -0.0292
36156SOL    HW115329   3.239   2.419   4.816 -2.3094  0.5897 -2.2981
36156SOL    HW215330   3.250   2.268   4.812  1.5297  0.6421  0.4862
36157SOL     OW15331   1.768   5.996   7.840  0.2073 -0.3412  0.4363
36157SOL    HW115332   1.831   5.949   7.785  1.7225 -0.4473  2.1622
36157SOL    HW215333   1.816   6.073   7.870 -1.1016  0.5010  0.4153
36158SOL     OW15334   5.774   4.681   1.094 -0.7085 -0.1852 -0.4539
36158SOL    HW115335   5.789   4.737   1.018  0.3851 -0.6359 -0.5911
36158SOL    HW215336   5.754   4.595   1.057  1.2872 -0.7848 -0.2930
36159SOL     OW15337   5.960   1.751   4.508 -0.6258  0.2559  0.7122
36159SOL    HW115338   5.929   1.827   4.458  0.5655  1.5165  1.8113
36159SOL    HW215339   6.054   1.745   4.487 -0.7872 -1.2387  0.2767
36160SOL     OW15340   0.820  10.308  10.045  0.1927  0.7434  0.3034
36160SOL    HW115341   0.758  10.235  10.054  0.5191  0.3086 -0.8274
36160SOL    HW215342   0.816  10.332   9.953 -0.7025  2.8957  0.8588
36161SOL     OW15343   2.957   1.349  10.697 -0.6203 -0.3779  0.0627
36161SOL    HW115344   3.020   1.332  10.767  0.2594  0.5516 -0.4718
36161SOL    HW215345   2.892   1.280  10.707  0.6399 -1.5791  0.4529
36162SOL     OW15346   9.642   4.604   9.629 -0.2362  0.0765  0.3782
36162SOL    HW115347   9.653   4.614   9.724 -0.3536 -0.0578  0.4065
36162SOL    HW215348   9.547   4.602   9.616 -0.2173 -0.4361  0.3126
36163SOL     OW15349   2.436   5.984   8.542  0.1047  0.1179 -0.6301
36163SOL    HW115350   2.468   5.924   8.609 -1.6874 -1.7005 -1.3031
36163SOL    HW215351   2.516   6.016   8.499  1.1641 -0.6376  0.6951
36164SOL     OW15352   5.752   8.393  10.788  0.0560  0.3573 -0.2661
36164SOL    HW115353   5.768   8.435  10.703  0.2082 -1.8698 -1.4126
36164SOL    HW215354   5.691   8.322  10.769  0.5563 -0.5713  1.3857
36165SOL     OW15355   1.946   2.357  12.150 -0.2177  0.0848  0.5298
36165SOL    HW115356   1.867   2.337  12.199  0.6310  1.6266  2.6646
36165SOL    HW215357   1.945   2.451  12.137  1.0797  0.0943  0.2724
36166SOL     OW15358  12.011   1.900  12.039 -0.3609  1.2629  0.3249
36166SOL    HW115359  12.082   1.965  12.040 -0.7132  1.7037 -1.1784
36166SOL    HW215360  11.939   1.944  11.995 -0.0909 -0.6094 -2.1889
36167SOL     OW15361   4.360   1.493   2.764 -0.2109 -0.0114  0.0296
36167SOL    HW115362   4.454   1.491   2.780 -0.4607 -2.6906  1.6438
36167SOL    HW215363   4.349   1.454   2.678  0.1251 -0.1930  0.0685
36168SOL     OW15364  10.975   7.353   6.211  0.5252  0.2628 -0.1521
36168SOL    HW115365  11.016   7.311   6.136  0.6281 -1.3404  0.7427
36168SOL    HW215366  10.982   7.288   6.281  3.2204  2.7649  2.1982
36169SOL     OW15367  12.303   0.171   9.193  0.2795 -0.1612 -0.2621
36169SOL    HW115368  12.233   0.106   9.191 -1.0620  1.1976  0.3165
36169SOL    HW215369  12.311   0.200   9.102  1.0059 -1.2157 -0.5565
36170SOL     OW15370   4.058   1.603   0.581 -0.1871  0.2577 -0.4566
36170SOL    HW115371   4.071   1.646   0.666 -0.9232  0.4133 -0.4174
36170SOL    HW215372   3.993   1.657   0.537 -1.9987 -1.4394  0.0359
36171SOL     OW15373   0.075   1.894   9.677 -0.1462 -0.2446  0.3167
36171SOL    HW115374   0.023   1.819   9.706 -3.7121  2.6639  2.3308
36171SOL    HW215375   0.012   1.953   9.635  2.5193  1.5378 -1.5243
36172SOL     OW15376   8.272  12.049   8.760 -0.1768 -0.2967  0.8546
36172SOL    HW115377   8.181  12.057   8.791  0.3573 -1.0025  2.7300
36172SOL    HW215378   8.283  11.956   8.743 -0.4042  0.0461 -1.5055
36173SOL     OW15379  10.576   0.673   6.723 -0.1431  0.8237  0.8239
36173SOL    HW115380  10.531   0.702   6.802  0.3414  0.2491  1.3256
36173SOL    HW215381  10.649   0.620   6.755 -0.0169  0.4700 -0.0150
36174SOL     OW15382   7.289   9.285   5.182 -0.7831  0.0730  0.2111
36174SOL    HW115383   7.337   9.247   5.255  0.4156  1.0648 -0.0386
36174SOL    HW215384   7.236   9.212   5.149  0.6216 -1.1058  0.4243
36175SOL     OW15385   0.362  10.534   2.747 -0.0907 -0.0102  0.0570
36175SOL    HW115386   0.391  10.610   2.797 -1.2851  0.2322  0.3999
36175SOL    HW215387   0.267  10.540   2.746 -0.2664 -1.9229  0.7917
36176SOL     OW15388   0.346   9.720   3.845  0.2042  0.3011  0.1999
36176SOL    HW115389   0.442   9.716   3.850  0.2009  0.8834  0.7446
36176SOL    HW215390   0.322   9.797   3.896 -0.4030  1.6814 -2.0227
36177SOL     OW15391   3.499   7.120   4.940 -0.0703  0.2998 -0.5228
36177SOL    HW115392   3.436   7.189   4.963 -0.6049 -0.4237  0.2682
36177SOL    HW215393   3.445   7.051   4.902  0.4222  0.1906 -1.0184
36178SOL     OW15394   5.598   5.724  11.945  0.8152 -0.3984 -0.1368
36178SOL    HW115395   5.642   5.760  12.022  0.4047  0.5490 -0.3261
36178SOL    HW215396   5.643   5.765  11.871 -0.2812  0.5128 -0.3361
36179SOL     OW15397   0.915   4.730   4.059 -0.1837 -0.2953 -0.0103
36179SOL    HW115398   0.884   4.807   4.011 -0.1773 -0.0169  0.4346
36179SOL    HW215399   0.938   4.763   4.146 -1.4308 -1.0460  0.6227
36180SOL     OW15400   2.689   9.309   1.954 -0.1318  0.7001 -0.0385
36180SOL    HW115401   2.747   9.330   2.028 -0.4621  2.3523 -0.2016
36180SOL    HW215402   2.742   9.255   1.896  0.6653  0.7151  0.6614
36181SOL     OW15403  10.353  11.296   2.513  0.2976  0.5342  0.3899
36181SOL    HW115404  10.272  11.345   2.526 -0.7182 -0.4120 -1.7568
36181SOL    HW215405  10.341  11.215   2.563 -0.8036 -0.2670 -1.0780
36182SOL     OW15406   7.981   5.740   2.992 -0.1127 -0.0820  0.2628
36182SOL    HW115407   7.958   5.742   3.085  0.7746  1.0201  0.4944
36182SOL    HW215408   8.056   5.680   2.987 -0.1522 -0.1320  0.2680
36183SOL     OW15409  11.866   3.452   5.229 -0.1495  0.2062  0.2280
36183SOL    HW115410  11.841   3.543   5.247 -0.6587  0.4055 -1.3025
36183SOL    HW215411  11.785   3.402   5.240 -0.0208  0.0488  0.4404
36184SOL     OW15412  11.678   6.984  10.364 -0.2968 -0.0838 -0.0271
36184SOL    HW115413  11.728   6.985  10.282  0.1320  0.1084  0.2306
36184SOL    HW215414  11.639   7.072  10.369 -0.5368 -0.1819 -0.1508
36185SOL     OW15415   1.665   9.387  12.432  0.3934 -0.1912 -0.4167
36185SOL    HW115416   1.652   9.478  12.460 -0.9465 -0.5286  0.1504
36185SOL    HW215417   1.598   9.373  12.366  1.8107 -0.2258 -1.8982
36186SOL     OW15418   0.182   8.969  12.151 -0.0383 -0.2044 -0.3216
36186SOL    HW115419   0.094   8.979  12.188 -0.0481 -1.8961  0.2014
36186SOL    HW215420   0.234   9.038  12.192 -0.7754 -0.1642  0.5657
36187SOL     OW15421   9.654  11.411  10.508 -0.0058  0.1898  0.2952
36187SOL    HW115422   9.717  11.428  10.578  0.1872 -1.6222  0.5941
36187SOL    HW215423   9.642  11.497  10.467  0.7986  1.0571  1.7579
36188SOL     OW15424   8.802   3.087   9.399 -0.0445  0.3748  0.2520
36188SOL    HW115425   8.719   3.125   9.427  0.8132  2.6618 -0.1418
36188SOL    HW215426   8.832   3.143   9.328  1.5032 -0.8363 -0.0998
36189SOL     OW15427   9.705   5.248   0.973  0.0565 -0.1501  0.6599
36189SOL    HW115428   9.792   5.221   1.003  0.6373 -0.6537 -1.3403
36189SOL    HW215429   9.707   5.344   0.975  0.3801 -0.1670  1.3262
36190SOL     OW15430   4.288   4.343   0.072 -0.8989 -0.7015  0.0932
36190SOL    HW115431   4.342   4.344   0.151 -0.9908 -0.2899  0.1543
36190SOL    HW215432   4.202   4.370   0.102 -0.3736  1.9766 -0.5313
36191SOL     OW15433   1.785   2.277   0.851 -0.3057 -0.0993  0.0933
36191SOL    HW115434   1.752   2.191   0.824  0.2742  0.1905 -1.6988
36191SOL    HW215435   1.867   2.257   0.896 -0.4662 -0.5176  0.2063
36192SOL     OW15436  11.778   2.768   4.657 -0.1989  0.0693  0.4441
36192SOL    HW115437  11.724   2.696   4.624  0.8283 -0.8807  0.7519
36192SOL    HW215438  11.743   2.787   4.744  1.4580 -2.3029  1.7561
36193SOL     OW15439   6.239   1.328   7.175  0.3015  0.8370  0.0488
36193SOL    HW115440   6.240   1.423   7.185 -0.4192  0.6655  2.3160
36193SOL    HW215441   6.154   1.301   7.209  0.5417 -0.6572 -0.4441
36194SOL     OW15442   8.509   3.771   8.085 -0.6696 -0.1101 -0.2448
36194SOL    HW115443   8.462   3.723   8.153 -1.9400 -1.2867 -1.8708
36194SOL    HW215444   8.601   3.754   8.102 -0.8954  0.3390  1.6530
36195SOL     OW15445   7.840   2.319   5.488 -0.0798 -0.8814  0.0038
36195SOL    HW115446   7.842   2.278   5.574 -1.8868 -0.5501  0.2403
36195SOL    HW215447   7.808   2.250   5.429  0.2880 -0.8433 -0.2458
36196SOL     OW15448   5.020   2.087   6.259  0.2497  0.5636 -0.0516
36196SOL    HW115449   5.052   2.150   6.324  1.5393  1.2527 -1.3095
36196SOL    HW215450   4.967   2.139   6.199  1.2458  0.4416 -1.0474
36197SOL     OW15451  12.353   9.869  10.285 -0.8300 -0.8622  0.2302
36197SOL    HW115452  12.356   9.958  10.321 -1.0879 -0.1602 -1.3986
36197SOL    HW215453  12.297   9.820  10.345  0.7096 -0.4097  2.1295
36198SOL     OW15454   1.790   1.264  11.405  0.2633  0.2632  0.1036
36198SOL    HW115455   1.785   1.177  11.445 -0.9567  1.0638  1.8596
36198SOL    HW215456   1.883   1.281  11.397  0.5316 -1.1796 -0.2549
36199SOL     OW15457   5.873   7.384   4.994 -0.2682 -0.0221 -0.2840
36199SOL    HW115458   5.828   7.303   5.018  0.5756 -0.5127 -0.3563
36199SOL    HW215459   5.824   7.452   5.040 -0.6212 -0.6276  0.2563
36200SOL     OW15460   8.204   8.943   5.052  0.0402 -0.1368  0.3693
36200SOL    HW115461   8.206   8.858   5.095  0.2379 -0.6000 -0.5264
36200SOL    HW215462   8.205   8.922   4.959  0.3256  0.8526  0.1412
36201SOL     OW15463   8.556   1.354   1.591 -0.2224 -0.3219  0.0077
36201SOL    HW115464   8.634   1.304   1.567  0.5990  0.5915  0.7004
36201SOL    HW215465   8.590   1.435   1.629 -1.5177  0.3462 -0.2057
36202SOL     OW15466   2.252   8.608  11.678 -0.3784 -0.6450 -0.1694
36202SOL    HW115467   2.218   8.646  11.597  0.7391 -2.9797 -1.8540
36202SOL    HW215468   2.337   8.649  11.691 -1.0381  0.5582  0.4974
36203SOL     OW15469   7.478   5.715   4.044  0.1950  0.1427  0.2643
36203SOL    HW115470   7.549   5.660   4.079  0.4766  0.7799  0.7133
36203SOL    HW215471   7.510   5.743   3.958 -0.1068 -0.6758 -0.1326
36204SOL     OW15472   4.505   8.130   6.573 -0.1502 -0.3502  0.2087
36204SOL    HW115473   4.413   8.130   6.599 -0.3267  1.3074 -0.3183
36204SOL    HW215474   4.542   8.209   6.612  0.1248  1.0205 -2.5764
36205SOL     OW15475   1.782  10.315  11.093 -0.5880 -0.2439  0.4146
36205SOL    HW115476   1.736  10.359  11.164 -0.1701 -1.2008  1.2977
36205SOL    HW215477   1.736  10.231  11.083  0.1810 -0.6828  0.4735
36206SOL     OW15478   8.750   1.428  11.077  0.5171  0.2506  0.4303
36206SOL    HW115479   8.687   1.431  11.149 -1.5207 -1.7104 -1.1346
36206SOL    HW215480   8.798   1.346  11.091  0.0122 -0.2116 -0.4988
36207SOL     OW15481   6.178   9.373   0.279 -0.0634 -0.1034  0.4684
36207SOL    HW115482   6.169   9.281   0.303  0.5098  0.4595  3.1989
36207SOL    HW215483   6.088   9.405   0.270 -0.3933 -0.3073  2.4874
36208SOL     OW15484   7.744   1.869   4.421 -0.1034 -0.7574  0.0902
36208SOL    HW115485   7.685   1.794   4.431 -0.3714 -0.5200  0.3193
36208SOL    HW215486   7.831   1.830   4.413 -0.3663 -1.1460 -1.0544
36209SOL     OW15487   7.745   5.231   3.231 -0.0712 -0.0978 -0.0614
36209SOL    HW115488   7.769   5.139   3.225 -0.5705 -0.1965 -0.6645
36209SOL    HW215489   7.749   5.251   3.324 -0.0524 -0.7542  0.0827
36210SOL     OW15490  11.959   8.178  10.445  0.3714 -0.3238 -0.5226
36210SOL    HW115491  11.867   8.188  10.423 -0.4086  0.9507  2.7988
36210SOL    HW215492  11.974   8.083  10.445 -1.2864 -0.6050  0.1615
36211SOL     OW15493   9.405  11.831   0.956  0.7504  0.7622  0.2180
36211SOL    HW115494   9.347  11.897   0.993 -0.8494 -1.0690  1.1050
36211SOL    HW215495   9.407  11.851   0.862 -1.9739  0.4500  0.0241
36212SOL     OW15496   4.863   4.674   3.022 -0.2124 -0.1624  0.2217
36212SOL    HW115497   4.884   4.607   3.086 -1.1122  1.5535  2.4556
36212SOL    HW215498   4.947   4.716   3.003 -0.0588 -0.0481  1.0972
36213SOL     OW15499   4.949   7.658   0.426 -0.2281  0.1493 -0.7407
36213SOL    HW115500   4.991   7.574   0.447 -1.0030 -0.4958 -1.7112
36213SOL    HW215501   5.022   7.720   0.423  0.5130 -0.7085 -1.1368
36214SOL     OW15502  10.455  12.422   3.434 -0.3383  0.1773  0.8299
36214SOL    HW115503  10.424  12.471   3.510  0.0708  0.2730  0.9400
36214SOL    HW215504  10.493  12.489   3.377 -0.8232  0.1293  0.4491
36215SOL     OW15505   9.916   9.493  11.763 -0.2374 -0.1388 -0.0290
36215SOL    HW115506   9.928   9.399  11.746  0.2707 -0.1124  0.1592
36215SOL    HW215507   9.825   9.501  11.792  0.4712 -0.9866  2.6427
36216SOL     OW15508   6.777   4.743  11.256 -0.2989 -0.0056 -0.4551
36216SOL    HW115509   6.690   4.768  11.286  0.1706  0.3122  0.6837
36216SOL    HW215510   6.793   4.657  11.295  0.1587  0.2308 -0.1068
36217SOL     OW15511  11.526  10.024  10.324  0.4787  0.4980 -0.5706
36217SOL    HW115512  11.614   9.994  10.345 -0.2006  0.5964  2.9810
36217SOL    HW215513  11.469   9.950  10.345 -0.4105  0.9036 -1.4706
36218SOL     OW15514   1.810   5.396   2.279  0.5762 -0.1322  0.4736
36218SOL    HW115515   1.762   5.400   2.196  0.0108  1.0068  0.8366
36218SOL    HW215516   1.786   5.311   2.317 -0.1430 -0.1236  0.0558
36219SOL     OW15517   7.553  12.219  10.497  0.0992  0.0015 -0.2816
36219SOL    HW115518   7.570  12.268  10.416 -1.1388  1.4713  0.2979
36219SOL    HW215519   7.541  12.129  10.468 -0.9199  0.5954 -1.8440
36220SOL     OW15520   6.488   4.227  11.301  0.8148 -0.5412  0.5535
36220SOL    HW115521   6.509   4.168  11.373  1.8406  0.1947  0.8731
36220SOL    HW215522   6.469   4.169  11.227  3.8498 -1.3328  0.2522
36221SOL     OW15523   4.349   9.038   2.230 -0.0248 -0.2652  0.0497
36221SOL    HW115524   4.322   9.128   2.214  1.1934  0.2958  0.9482
36221SOL    HW215525   4.281   9.003   2.287 -0.1313  0.3254  0.2965
36222SOL     OW15526   6.638   8.601   3.635  1.0185 -0.0706 -0.9793
36222SOL    HW115527   6.695   8.526   3.650  2.2029  0.8364 -0.8123
36222SOL    HW215528   6.634   8.610   3.540  0.4862 -0.6093 -1.0180
36223SOL     OW15529  11.799   5.364   2.718  0.2675  0.0150 -0.2058
36223SOL    HW115530  11.828   5.383   2.807 -1.5752  1.2904  0.1686
36223SOL    HW215531  11.854   5.419   2.662 -0.4116  1.3093  0.3741
36224SOL     OW15532   8.376   3.104   9.158  0.3572  0.1306  0.2857
36224SOL    HW115533   8.309   3.042   9.185  0.3587  0.2772  0.6270
36224SOL    HW215534   8.444   3.050   9.117 -0.1976  0.0347 -0.5235
36225SOL     OW15535   7.556   8.068   9.516 -0.1980  0.1577 -0.4531
36225SOL    HW115536   7.540   8.157   9.548  0.1520  0.0418  0.0517
36225SOL    HW215537   7.469   8.035   9.493 -0.5268  0.0397  0.9237
36226SOL     OW15538   7.114   4.583  10.239  0.2434  0.0264  0.0844
36226SOL    HW115539   7.048   4.579  10.309 -0.4976  0.4618 -0.5673
36226SOL    HW215540   7.151   4.495  10.236 -2.0432 -0.9833 -1.1619
36227SOL     OW15541   6.707   3.255   6.424  0.2750  0.2055  0.4748
36227SOL    HW115542   6.724   3.325   6.487  0.9859  1.3440 -0.9295
36227SOL    HW215543   6.791   3.211   6.413  0.4080  0.6828 -0.4589
36228SOL     OW15544  12.030   8.472   5.242  0.7065 -0.2066  0.2061
36228SOL    HW115545  12.060   8.455   5.152  2.3506 -0.6458  0.7947
36228SOL    HW215546  12.106   8.511   5.286  0.3525 -1.1393  1.7312
36229SOL     OW15547   5.057   4.619   7.816 -0.4662 -0.1486 -0.1444
36229SOL    HW115548   5.083   4.549   7.876 -1.3056  1.1175  1.7904
36229SOL    HW215549   5.078   4.585   7.729  1.1031 -1.9355  0.8589
36230SOL     OW15550   9.207   9.414  12.173  0.5559 -0.1573 -0.2437
36230SOL    HW115551   9.116   9.430  12.146  0.2800 -0.7630  0.2871
36230SOL    HW215552   9.248   9.500  12.173 -0.0337  0.1302 -0.4336
36231SOL     OW15553  11.366   1.750   8.296 -0.0480 -0.3068  0.1068
36231SOL    HW115554  11.346   1.784   8.383 -0.2750  0.7438 -0.3336
36231SOL    HW215555  11.446   1.699   8.307  1.5938  2.1780  0.4551
36232SOL     OW15556   1.893  11.129   7.682  0.0781  0.1992 -0.1650
36232SOL    HW115557   1.867  11.092   7.598  1.4612 -1.1965 -0.0296
36232SOL    HW215558   1.839  11.082   7.747  0.7505 -0.5206 -0.1102
36233SOL     OW15559  11.958   8.377   5.707  0.0821 -0.0460  0.1017
36233SOL    HW115560  11.875   8.382   5.660  0.7775 -2.0111 -1.4926
36233SOL    HW215561  12.014   8.442   5.663 -0.2887  0.5694  0.5226
36234SOL     OW15562  10.968   9.038   0.690  0.3545  0.3473 -0.0869
36234SOL    HW115563  11.018   9.101   0.741 -0.1348  2.0377 -1.6222
36234SOL    HW215564  10.984   9.061   0.599 -0.6713 -1.0972 -0.6750
36235SOL     OW15565   9.165  12.364   3.213 -0.1939  0.2647  0.6486
36235SOL    HW115566   9.138  12.375   3.304 -1.3644 -0.7532  0.4521
36235SOL    HW215567   9.102  12.416   3.163 -0.9314 -0.9333  0.2850
36236SOL     OW15568   3.566   9.924   1.293 -0.3476  0.1563 -0.0669
36236SOL    HW115569   3.504   9.996   1.296 -0.5134  0.2214 -2.8237
36236SOL    HW215570   3.638   9.956   1.240  1.1812 -0.6145  1.4328
36237SOL     OW15571   3.209  11.914   7.101  0.0083  0.0940 -0.0107
36237SOL    HW115572   3.295  11.878   7.122 -1.3162 -3.2233  0.3729
36237SOL    HW215573   3.160  11.909   7.183 -1.1975 -0.2582 -0.7234
36238SOL     OW15574  11.796  12.090   2.312  0.1114 -0.1260 -0.1708
36238SOL    HW115575  11.744  12.160   2.350  0.8691  0.4908 -0.2295
36238SOL    HW215576  11.776  12.013   2.365  2.3702  1.0410  2.6577
36239SOL     OW15577  12.267   1.245   9.153  0.5245 -0.3331 -0.1227
36239SOL    HW115578  12.290   1.212   9.240 -0.2117  0.6479  0.4585
36239SOL    HW215579  12.187   1.295   9.167  1.4479  1.4718 -1.0062
36240SOL     OW15580   6.681   3.408   7.796  0.8614 -0.9361 -0.3583
36240SOL    HW115581   6.769   3.442   7.809 -0.5562  4.2681 -1.5708
36240SOL    HW215582   6.680   3.377   7.706  1.5987 -1.7462 -0.0972
36241SOL     OW15583   7.738   8.956  10.029 -0.1859  0.1761 -0.0288
36241SOL    HW115584   7.780   8.970  10.114 -0.9023  0.0834  0.3428
36241SOL    HW215585   7.703   8.867  10.033  0.4326 -0.1080 -0.7096
36242SOL     OW15586   4.830   0.587   5.546  0.0411 -0.1324 -0.8346
36242SOL    HW115587   4.791   0.670   5.517  2.8671  1.2479 -1.0164
36242SOL    HW215588   4.854   0.543   5.464 -3.3502 -2.2876 -0.8589
36243SOL     OW15589   5.352   5.679   2.250 -0.1941 -0.2841  0.3219
36243SOL    HW115590   5.351   5.750   2.186  0.8421  1.0261  1.7091
36243SOL    HW215591   5.418   5.618   2.216  2.0376  1.5097  1.2146
36244SOL     OW15592   4.266   3.177   2.825 -0.6243  0.0437 -0.4573
36244SOL    HW115593   4.230   3.235   2.758  0.2735  0.3842 -0.6596
36244SOL    HW215594   4.333   3.126   2.779  0.0973  0.3712  0.1882
36245SOL     OW15595   1.749  10.009   9.512  0.0830 -0.0664  0.3981
36245SOL    HW115596   1.709  10.061   9.442  1.2777  1.9661  1.1329
36245SOL    HW215597   1.676   9.988   9.571 -0.4304  0.9435  0.1464
36246SOL     OW15598   1.618  11.439   3.482 -0.4926  0.0510 -0.3376
36246SOL    HW115599   1.713  11.427   3.487 -0.7692 -2.2202  0.7671
36246SOL    HW215600   1.607  11.527   3.446  2.0254  1.3592  1.7032
36247SOL     OW15601   3.588   3.488   1.120  0.0355  0.4412  0.4116
36247SOL    HW115602   3.578   3.564   1.177  1.6738  0.1695  1.1315
36247SOL    HW215603   3.502   3.446   1.120 -0.0006  0.3890  2.8231
36248SOL     OW15604   2.966   2.027   8.825 -0.2367 -0.0777  0.5486
36248SOL    HW115605   2.892   2.073   8.784  1.3372  0.7744 -1.4647
36248SOL    HW215606   2.940   1.935   8.825 -0.8493  0.0682 -1.1457
36249SOL     OW15607   9.120   8.097   3.767 -0.2537  0.1839 -0.3787
36249SOL    HW115608   9.180   8.171   3.771 -1.2629  1.0576 -0.8482
36249SOL    HW215609   9.082   8.092   3.854  0.5415 -0.4277 -0.0529
36250SOL     OW15610   5.204   4.713   5.944 -0.4789 -0.0840 -0.2978
36250SOL    HW115611   5.230   4.729   5.853 -0.2270 -1.0913 -0.4100
36250SOL    HW215612   5.240   4.787   5.992  0.2861 -0.0826 -0.8601
36251SOL     OW15613   6.051   4.093   2.292  0.4299  0.0184  0.2153
36251SOL    HW115614   6.100   4.065   2.214  0.2699 -0.2599  0.2150
36251SOL    HW215615   6.009   4.175   2.266  1.1337  0.4255  0.3076
36252SOL     OW15616   8.158   1.462   7.140  0.1198 -0.2574 -0.2442
36252SOL    HW115617   8.068   1.470   7.172  0.1800 -2.1391  0.5127
36252SOL    HW215618   8.193   1.551   7.146 -1.5720  0.4486 -0.2352
36253SOL     OW15619   1.063   8.640   9.038  0.2151 -0.1365 -0.0072
36253SOL    HW115620   1.069   8.734   9.022  0.5295  0.0562  1.1064
36253SOL    HW215621   0.971   8.625   9.061  0.4448  0.1562  1.1746
36254SOL     OW15622  11.003   7.197   4.528 -0.3274 -0.6988  0.4595
36254SOL    HW115623  11.022   7.196   4.622 -2.1944 -1.1098  0.8742
36254SOL    HW215624  11.080   7.239   4.488 -0.5616  1.8485  2.4323
36255SOL     OW15625   7.262  11.826   0.192  0.2778 -0.2652  0.4023
36255SOL    HW115626   7.170  11.809   0.209  0.4327  0.3227  1.9715
36255SOL    HW215627   7.306  11.806   0.275  2.1620 -4.4126 -1.2861
36256SOL     OW15628   6.283   4.044   3.608  0.2068 -0.1903 -0.4967
36256SOL    HW115629   6.315   4.125   3.568 -1.4925  0.4362 -0.6716
36256SOL    HW215630   6.281   4.062   3.702  2.6802 -1.1184 -0.1804
36257SOL     OW15631  10.828   5.414  10.582  0.2959 -0.2140  0.2043
36257SOL    HW115632  10.748   5.417  10.529  0.4011 -1.9331 -0.1067
36257SOL    HW215633  10.897   5.438  10.521  0.1704 -0.0279  0.1337
36258SOL     OW15634   1.059   4.861  11.476 -0.0177 -0.1290 -0.1650
36258SOL    HW115635   1.044   4.955  11.470  0.0592 -0.0343  0.8937
36258SOL    HW215636   1.138   4.852  11.529 -0.9414 -0.7935  1.1892
36259SOL     OW15637   5.552  10.499   7.788  0.5591 -0.3825  0.0873
36259SOL    HW115638   5.577  10.588   7.810 -1.4682  0.6989 -1.6827
36259SOL    HW215639   5.630  10.461   7.748  0.4231  1.8800 -2.5804
36260SOL     OW15640  10.360   7.776  10.514  0.0110  0.2514  0.5667
36260SOL    HW115641  10.284   7.827  10.540 -0.2109 -0.2799  0.9857
36260SOL    HW215642  10.394   7.740  10.596  0.8266  0.6412  0.4035
36261SOL     OW15643   7.458   1.649   9.778 -0.3432  0.2086  0.5263
36261SOL    HW115644   7.422   1.569   9.816  1.0246 -0.3150  0.7831
36261SOL    HW215645   7.415   1.657   9.693 -0.7433 -0.6002  0.6458
36262SOL     OW15646   9.411   1.351   9.932 -0.4580 -0.2676  0.0534
36262SOL    HW115647   9.425   1.392  10.017  1.7241 -0.6086 -0.0730
36262SOL    HW215648   9.318   1.328   9.931 -1.3171  2.6721  0.9883
36263SOL     OW15649  11.714   0.066  10.865 -0.0308  0.3350 -0.3458
36263SOL    HW115650  11.753   0.052  10.952 -1.2861 -1.7037 -0.0492
36263SOL    HW215651  11.759   0.003  10.809  1.0391  1.8982 -1.3282
36264SOL     OW15652   9.248   2.239   2.025 -0.2152 -0.4048 -0.1163
36264SOL    HW115653   9.298   2.182   1.966  1.5502 -1.2296  2.0586
36264SOL    HW215654   9.306   2.313   2.041 -1.0214  0.2193 -0.0342
36265SOL     OW15655  11.406   0.700   5.186 -0.2253 -0.6181 -0.0595
36265SOL    HW115656  11.484   0.665   5.229  1.3750  1.3161 -1.2239
36265SOL    HW215657  11.423   0.794   5.179 -1.9178 -0.4013 -1.8822
36266SOL     OW15658   4.725  10.435  12.018  0.2837 -0.2274  0.3697
36266SOL    HW115659   4.778  10.513  12.034  0.0528 -0.1370  0.7056
36266SOL    HW215660   4.779  10.380  11.961  0.4191  0.2075  0.0698
36267SOL     OW15661  10.888  10.901  12.235  0.3427  0.0840 -0.5266
36267SOL    HW115662  10.890  10.996  12.234  0.6006  0.0994  0.4826
36267SOL    HW215663  10.973  10.875  12.199  1.0868  0.2750  1.0073
36268SOL     OW15664   0.868   6.050   6.253 -0.3392 -0.8239  0.5145
36268SOL    HW115665   0.942   5.991   6.263  2.1487  1.8382 -0.5762
36268SOL    HW215666   0.846   6.045   6.160 -0.0532 -0.0749  0.3932
36269SOL     OW15667   8.881   6.109   3.273  0.4767 -0.5674  0.6891
36269SOL    HW115668   8.849   6.054   3.344  0.7084 -0.7962  0.6173
36269SOL    HW215669   8.976   6.110   3.283  0.4474  0.1639  0.9365
36270SOL     OW15670   4.935   8.648   7.138  0.4465 -0.4136  0.1015
36270SOL    HW115671   4.926   8.618   7.228 -1.1138  0.4873  0.2909
36270SOL    HW215672   5.013   8.603   7.105 -0.4389 -2.8335  1.0509
36271SOL     OW15673   6.076   6.344   2.618  0.2177 -0.1719 -0.1753
36271SOL    HW115674   6.042   6.427   2.652  2.7458 -0.5219  3.8226
36271SOL    HW215675   6.000   6.287   2.614 -0.8901  1.1337  1.1514
36272SOL     OW15676  10.066  10.477   4.890 -0.2566 -1.0535  0.6072
36272SOL    HW115677  10.045  10.394   4.933  0.2002 -1.0204  0.8988
36272SOL    HW215678  10.158  10.469   4.864  0.1264 -0.2361  1.6078
36273SOL     OW15679   9.189   2.549   6.049  0.0731  0.2936  0.7272
36273SOL    HW115680   9.105   2.581   6.017 -0.0107  0.2957  0.9502
36273SOL    HW215681   9.212   2.478   5.989  0.8176  1.5057 -0.4987
36274SOL     OW15682   9.071   5.067   4.107 -0.7444 -0.3167 -0.3407
36274SOL    HW115683   9.050   4.976   4.089 -0.5632 -0.2575 -0.8695
36274SOL    HW215684   8.987   5.112   4.105 -1.0515 -0.7277  1.5800
36275SOL     OW15685  12.455   6.456   8.407  0.3812 -0.1247 -0.5193
36275SOL    HW115686  12.427   6.423   8.321  1.2595 -0.2072 -0.7878
36275SOL    HW215687  12.523   6.395   8.434  1.9252  1.3286 -0.9421
36276SOL     OW15688   0.883   4.725  10.401 -0.1696 -0.0879 -0.8037
36276SOL    HW115689   0.812   4.663  10.386  0.5540 -0.6885 -1.8285
36276SOL    HW215690   0.900   4.719  10.496 -0.5669 -0.9475 -0.7754
36277SOL     OW15691  12.286  11.556   1.367  0.0288  0.0366 -0.0366
36277SOL    HW115692  12.208  11.560   1.423 -1.0495  0.7930 -1.5130
36277SOL    HW215693  12.296  11.463   1.348 -0.8952 -0.0165 -0.3252
36278SOL     OW15694   7.069   5.858  10.245  0.4570  0.2395 -0.3667
36278SOL    HW115695   7.000   5.917  10.217  1.0731  1.3108  0.2921
36278SOL    HW215696   7.146   5.914  10.255  0.9275 -0.5608  0.8050
36279SOL     OW15697   8.725   9.315   6.766  0.2505  0.0137  0.2342
36279SOL    HW115698   8.762   9.227   6.761  1.6681  0.5106  1.2046
36279SOL    HW215699   8.771   9.364   6.699  0.0211  0.1959  0.2112
36280SOL     OW15700   4.076   4.098   6.337 -0.5853 -0.3657  0.7666
36280SOL    HW115701   4.160   4.070   6.372  0.3804  2.1399  0.6101
36280SOL    HW215702   4.086   4.091   6.242 -0.7521 -0.5142  0.7574
36281SOL     OW15703   4.265   2.902   1.226  0.0959  0.4270  0.5582
36281SOL    HW115704   4.320   2.902   1.304  0.3156  1.4298  0.4135
36281SOL    HW215705   4.309   2.960   1.165 -0.0448 -0.3839 -0.3462
36282SOL     OW15706   7.957   4.184  10.977  0.6036  0.1839  0.6230
36282SOL    HW115707   7.915   4.106  11.015 -0.9302  1.3878  1.5266
36282SOL    HW215708   7.974   4.160  10.886  0.2069 -1.2250  0.8918
36283SOL     OW15709  11.454  11.894   2.957 -0.0356 -0.4079 -0.6214
36283SOL    HW115710  11.540  11.903   2.917 -0.5552 -1.3432 -2.0490
36283SOL    HW215711  11.428  11.984   2.979  1.0899 -0.0715 -0.6184
36284SOL     OW15712   4.807   1.896   8.791  0.6043 -0.0178  0.6221
36284SOL    HW115713   4.745   1.868   8.724  2.3838 -0.7229 -0.8457
36284SOL    HW215714   4.817   1.820   8.848  0.0727  0.1263  0.9127
36285SOL     OW15715   7.413   9.831  11.150  0.0258 -0.4203 -0.5635
36285SOL    HW115716   7.451   9.919  11.153  0.4724 -0.6240  1.8165
36285SOL    HW215717   7.483   9.774  11.181 -0.9959 -1.2901  0.2037
36286SOL     OW15718  12.163   0.820   1.025 -0.0955 -0.2160 -0.5054
36286SOL    HW115719  12.070   0.797   1.035  0.2798 -1.5071  0.2084
36286SOL    HW215720  12.163   0.916   1.018 -1.2664  0.1509  2.7181
36287SOL     OW15721   5.598   9.032  10.829  0.2817  0.5644 -0.5196
36287SOL    HW115722   5.575   9.030  10.736  1.9256  0.5115 -0.9631
36287SOL    HW215723   5.678   8.980  10.834  0.1894  0.5360  0.9468
36288SOL     OW15724  11.680  11.855  11.910 -0.3789 -0.0464  0.6104
36288SOL    HW115725  11.604  11.797  11.908  0.0344 -0.6034  0.6744
36288SOL    HW215726  11.648  11.935  11.952 -0.8351 -0.4166  0.9839
36289SOL     OW15727   3.584   0.140  12.324  0.4296 -0.3862  0.2386
36289SOL    HW115728   3.618   0.132  12.235  0.3429 -0.2499  0.1935
36289SOL    HW215729   3.526   0.065  12.335 -2.6515  1.5524 -1.1783
36290SOL     OW15730  10.371   4.177   2.882 -0.4420 -0.4881 -0.1446
36290SOL    HW115731  10.349   4.136   2.798  0.7674 -2.1812  0.3280
36290SOL    HW215732  10.340   4.115   2.948 -0.3475  0.2869  0.6460
36291SOL     OW15733   0.703   4.315  12.026  0.0805 -0.0385 -0.3517
36291SOL    HW115734   0.756   4.301  11.947  1.1703  1.2676  0.1227
36291SOL    HW215735   0.766   4.321  12.097 -0.8740 -0.8321  0.5995
36292SOL     OW15736   6.848   5.963  11.979  0.2380  0.4474  0.1126
36292SOL    HW115737   6.800   5.954  11.896  0.7798 -1.5788 -0.0329
36292SOL    HW215738   6.935   5.994  11.953  0.4753 -0.3895 -0.1246
36293SOL     OW15739   6.195  12.362   2.733 -0.3686  0.0529 -0.0833
36293SOL    HW115740   6.274  12.336   2.781 -1.1743  2.4094  2.8744
36293SOL    HW215741   6.126  12.306   2.769 -0.8053  1.1818  0.9177
36294SOL     OW15742   7.759   5.819  10.592  0.0054  0.1465 -0.3066
36294SOL    HW115743   7.846   5.783  10.575  0.9519  0.6569  2.8921
36294SOL    HW215744   7.765   5.910  10.564  0.4242  0.1401 -0.2341
36295SOL     OW15745   0.781   0.574   5.927 -0.0354 -0.0425  0.9048
36295SOL    HW115746   0.748   0.492   5.892 -0.4594 -0.2407  1.7494
36295SOL    HW215747   0.717   0.640   5.899  1.9684  0.6666 -2.7059
36296SOL     OW15748   7.366   6.478   0.686  1.4450 -0.5721 -0.8001
36296SOL    HW115749   7.448   6.435   0.662  1.7228 -0.2042 -0.5291
36296SOL    HW215750   7.386   6.572   0.681  1.5907 -0.4610  1.0308
36297SOL     OW15751   0.157  10.869   3.883  0.0789  0.6616 -0.3357
36297SOL    HW115752   0.158  10.826   3.969 -1.1750 -1.5133 -1.3098
36297SOL    HW215753   0.076  10.919   3.882 -0.3483 -0.0318 -0.5666
36298SOL     OW15754  10.223   8.884   7.782  0.4392 -0.0930  0.2149
36298SOL    HW115755  10.257   8.945   7.715 -1.1565 -2.1248 -2.6690
36298SOL    HW215756  10.131   8.910   7.793  0.4074 -0.4518  0.8062
36299SOL     OW15757   6.579  12.089   3.353 -0.3111  0.0533  0.0757
36299SOL    HW115758   6.613  12.135   3.276 -0.1028  0.1331  0.2136
36299SOL    HW215759   6.615  12.138   3.427 -1.5623  0.7888  0.2392
36300SOL     OW15760   0.454   8.120   9.592  0.3589 -0.2513 -0.7405
36300SOL    HW115761   0.455   8.026   9.575  0.3718 -0.8980  2.2788
36300SOL    HW215762   0.527   8.133   9.653 -2.2443  0.8483  2.4297
36301SOL     OW15763  11.119   4.318   0.053 -0.6003 -0.0210  0.5302
36301SOL    HW115764  11.068   4.334   0.133 -1.4559 -1.5098  0.3176
36301SOL    HW215765  11.171   4.240   0.074 -1.1209 -0.6540 -0.4903
36302SOL     OW15766   5.610   6.665   6.746  0.2288 -0.1777 -0.1282
36302SOL    HW115767   5.523   6.632   6.726 -0.2623  1.7979 -1.6364
36302SOL    HW215768   5.595   6.742   6.801  1.0928 -0.3471  0.3707
36303SOL     OW15769  11.116   3.385   0.252 -0.3450 -0.1129 -0.1262
36303SOL    HW115770  11.063   3.450   0.299 -0.7649  0.6909 -1.6554
36303SOL    HW215771  11.066   3.303   0.260 -1.0397  0.2935 -0.2321
36304SOL     OW15772   9.406   2.704   2.745  0.1645 -0.4284 -0.1460
36304SOL    HW115773   9.453   2.756   2.810  1.3864 -2.2131  0.4947
36304SOL    HW215774   9.359   2.638   2.796 -2.9750  1.1207 -0.7847
36305SOL     OW15775  10.759   6.399  11.155 -0.2258  0.1376 -0.5170
36305SOL    HW115776  10.665   6.381  11.165 -0.1105 -1.0580 -1.3370
36305SOL    HW215777  10.781   6.363  11.069  0.9594  0.5427 -0.4021
36306SOL     OW15778  11.283  10.854   8.934 -0.4288 -0.6036  0.2502
36306SOL    HW115779  11.350  10.915   8.903 -1.5356  0.2360 -0.5628
36306SOL    HW215780  11.300  10.773   8.887 -0.8906  0.0715 -1.1332
36307SOL     OW15781   7.023  12.416   7.199 -0.2521  0.1022  0.2344
36307SOL    HW115782   7.064  12.337   7.164 -0.7261 -0.4303  0.8500
36307SOL    HW215783   6.986  12.460   7.122 -0.1918 -0.3989 -0.0884
36308SOL     OW15784   9.973   1.267   6.047  0.5520 -0.0113 -0.2231
36308SOL    HW115785   9.899   1.236   6.100  0.0200 -0.5494 -1.2485
36308SOL    HW215786  10.016   1.188   6.016  0.8836  0.2895 -0.5494
36309SOL     OW15787   7.018   6.790   7.020 -0.2833 -0.1643  0.2370
36309SOL    HW115788   7.090   6.742   6.979 -0.4442 -0.1711 -0.0421
36309SOL    HW215789   7.051   6.816   7.106 -1.0771 -3.1582  1.6014
36310SOL     OW15790   7.635   8.747  10.931 -0.2330  0.5782  0.3463
36310SOL    HW115791   7.619   8.779  11.020  0.0171  0.1528  0.5433
36310SOL    HW215792   7.705   8.683  10.940 -1.7938 -1.2150  0.1677
36311SOL     OW15793   7.263   0.615   4.241 -0.5931 -0.1565 -0.3303
36311SOL    HW115794   7.194   0.664   4.196  0.8547  0.7185 -1.6709
36311SOL    HW215795   7.327   0.594   4.173  0.7860 -0.3886  0.9807
36312SOL     OW15796   8.894   8.355  11.940  0.2075  0.0528 -0.4881
36312SOL    HW115797   8.914   8.440  11.980  0.3699  0.0660 -0.5981
36312SOL    HW215798   8.978   8.309  11.939 -0.0516 -0.4780  0.4341
36313SOL     OW15799   4.164   6.700   6.048 -0.2606  0.1811  0.5380
36313SOL    HW115800   4.240   6.716   6.103  0.1165  1.3173 -0.2727
36313SOL    HW215801   4.200   6.668   5.966 -0.6757  0.4028  0.2649
36314SOL     OW15802  11.378   4.664   1.012  0.2806  0.1939  0.1351
36314SOL    HW115803  11.323   4.700   1.083 -0.9495 -0.7718 -0.2974
36314SOL    HW215804  11.351   4.714   0.935 -0.9644 -1.1585 -0.3380
36315SOL     OW15805   0.406  10.402   2.503 -0.2227 -0.2310  0.0125
36315SOL    HW115806   0.381  10.455   2.579 -0.3624  1.0997 -0.9208
36315SOL    HW215807   0.497  10.429   2.485 -0.9282  1.2193 -1.6610
36316SOL     OW15808   9.089   3.866   8.299  0.0654  0.2540  0.8060
36316SOL    HW115809   9.038   3.828   8.228  1.8915 -2.0655  0.5762
36316SOL    HW215810   9.071   3.959   8.296  0.2520  0.2952 -2.9067
36317SOL     OW15811   0.820   8.352   9.478 -0.4877  0.4460 -0.4062
36317SOL    HW115812   0.850   8.427   9.528 -1.3811  0.3533  0.2984
36317SOL    HW215813   0.897   8.324   9.429  0.4332  0.5502  0.9089
36318SOL     OW15814   5.782   6.939   3.301 -0.0942  0.0837  0.3984
36318SOL    HW115815   5.816   7.014   3.252 -0.7027 -1.9638 -3.5188
36318SOL    HW215816   5.694   6.966   3.327  0.3232  1.3111  0.6131
36319SOL     OW15817  10.655  10.697  10.655 -0.2018 -0.1783 -0.1000
36319SOL    HW115818  10.674  10.733  10.568  0.9850  0.3834  0.3645
36319SOL    HW215819  10.563  10.674  10.652 -0.0724 -0.6122 -1.6757
36320SOL     OW15820   9.608   6.109   2.453  0.3856  0.1134  0.1196
36320SOL    HW115821   9.531   6.163   2.435  1.4914  1.2305 -1.6799
36320SOL    HW215822   9.590   6.068   2.537 -1.4808  1.5823  0.5099
36321SOL     OW15823   3.060   3.886   6.126  0.1514 -0.0480  0.7489
36321SOL    HW115824   3.138   3.934   6.153  0.6562 -0.3531 -0.1342
36321SOL    HW215825   3.012   3.871   6.208  0.0468  1.7969  1.0625
36322SOL     OW15826   5.839  11.757   1.246  0.0640  0.7845 -0.1789
36322SOL    HW115827   5.839  11.662   1.234  1.1388  1.0344 -2.8055
36322SOL    HW215828   5.769  11.773   1.310  1.1384 -1.8831  1.8736
36323SOL     OW15829  12.478   7.960   8.381  0.4880 -0.2217 -0.2382
36323SOL    HW115830  12.391   7.930   8.409  0.0142  0.5182 -0.8658
36323SOL    HW215831  12.522   7.987   8.461 -0.9382  2.1295 -0.1491
36324SOL     OW15832   8.737   0.436   7.975 -0.3299 -0.2972  0.2218
36324SOL    HW115833   8.799   0.504   7.999  0.8946 -0.6768 -1.6494
36324SOL    HW215834   8.719   0.390   8.057  0.3699  0.9894  1.1468
36325SOL     OW15835   1.861   8.655  12.394  0.8519 -0.5639  0.1473
36325SOL    HW115836   1.904   8.727  12.440  1.1533 -0.9227  0.4381
36325SOL    HW215837   1.822   8.602  12.463 -1.2382  0.4782 -0.1875
36326SOL     OW15838   0.098   2.767   9.349 -0.1343 -0.1262 -0.5537
36326SOL    HW115839   0.164   2.764   9.280  0.5965 -1.6211  0.1552
36326SOL    HW215840   0.147   2.747   9.429 -1.4132 -1.1347  0.0056
36327SOL     OW15841   6.332   0.343  11.327  0.6798  0.1106 -0.1418
36327SOL    HW115842   6.387   0.410  11.287 -0.8405  0.6840 -1.3698
36327SOL    HW215843   6.383   0.262  11.319  2.3076  0.9715  0.8680
36328SOL     OW15844  10.179   7.214   9.478  0.5574  0.4407  0.2246
36328SOL    HW115845  10.103   7.256   9.438  1.2653  0.5255 -1.0845
36328SOL    HW215846  10.254   7.269   9.452  1.2362 -0.4502  0.2302
36329SOL     OW15847   8.576   3.057  11.178 -0.0487  0.0265  0.9026
36329SOL    HW115848   8.540   3.017  11.257  2.3246 -0.3498  1.8853
36329SOL    HW215849   8.641   2.994  11.146 -0.8059  0.2601 -1.2769
36330SOL     OW15850   8.618  10.908  10.444 -0.5325  0.1755  0.7802
36330SOL    HW115851   8.585  10.830  10.489  0.4505  0.1669  1.5157
36330SOL    HW215852   8.696  10.933  10.494 -0.2629  1.0379 -0.0528
36331SOL     OW15853   9.532  10.498   8.138  0.0111 -0.5905  0.1041
36331SOL    HW115854   9.479  10.457   8.207  2.1713 -0.7105  1.7925
36331SOL    HW215855   9.519  10.592   8.151 -0.8148 -0.6239 -0.3799
36332SOL     OW15856   8.805   4.542   4.444 -0.1020 -0.7198 -0.0275
36332SOL    HW115857   8.744   4.470   4.430  0.7521 -1.1718 -1.7735
36332SOL    HW215858   8.891   4.505   4.424  0.6226  0.2238  1.1757
36333SOL     OW15859   4.099   4.991  11.059 -0.2366 -0.5118 -0.3159
36333SOL    HW115860   4.192   4.994  11.082 -0.4408  1.0825  0.4593
36333SOL    HW215861   4.085   4.902  11.026  1.6890 -0.5961 -1.0328
36334SOL     OW15862   2.738   0.982   3.786  0.2130  0.5156  0.0224
36334SOL    HW115863   2.798   0.913   3.814  0.5809  0.6452 -0.4427
36334SOL    HW215864   2.677   0.938   3.727  0.5525  0.6166 -0.4113
36335SOL     OW15865   4.742  11.860  12.346 -0.4593  0.3416  0.2107
36335SOL    HW115866   4.705  11.781  12.386 -0.2174 -0.1748 -0.5663
36335SOL    HW215867   4.680  11.929  12.369 -1.7591 -0.4442 -0.7708
36336SOL     OW15868   8.873   8.068   1.575 -0.9652 -0.3721  0.4017
36336SOL    HW115869   8.890   8.119   1.495 -0.1113 -1.4575 -0.1351
36336SOL    HW215870   8.850   8.133   1.641 -1.2180  0.5882 -0.6098
36337SOL     OW15871   1.682   5.867   7.049 -0.1425 -0.3019 -0.2575
36337SOL    HW115872   1.731   5.889   7.128 -0.7326  1.3811 -0.3171
36337SOL    HW215873   1.736   5.901   6.977 -0.7052  0.3287 -0.4032
36338SOL     OW15874   7.633  11.922  10.315  0.2911  0.1320  0.0121
36338SOL    HW115875   7.538  11.915  10.304  0.3564 -1.4697  0.1782
36338SOL    HW215876   7.664  11.960  10.232 -0.3792 -0.6676 -0.6248
36339SOL     OW15877   5.161   0.799   2.080 -1.0531 -0.2182  0.4186
36339SOL    HW115878   5.177   0.710   2.049 -0.2643  0.6264 -1.8219
36339SOL    HW215879   5.239   0.821   2.130  0.6757  0.4989 -2.3547
36340SOL     OW15880  10.385   4.411   7.073 -0.6743 -0.1415  0.0928
36340SOL    HW115881  10.300   4.368   7.076 -0.4559 -0.7887 -1.7183
36340SOL    HW215882  10.443   4.349   7.029  0.2124  1.0997 -0.5799
36341SOL     OW15883   2.716   4.965   5.448 -0.1993  0.3182  1.1540
36341SOL    HW115884   2.694   4.892   5.507  2.5702 -1.8675 -0.2628
36341SOL    HW215885   2.686   4.935   5.362 -1.5464  2.1743  0.9284
36342SOL     OW15886   0.138   8.779   6.456  0.2046 -0.4290  0.6324
36342SOL    HW115887   0.125   8.684   6.452 -2.3351 -0.1575  1.2496
36342SOL    HW215888   0.146   8.798   6.549 -2.3424  0.2498  0.7772
36343SOL     OW15889  12.031   9.365   5.331  0.3764 -0.4778 -0.2448
36343SOL    HW115890  12.058   9.436   5.389  0.6524  0.0629 -1.0299
36343SOL    HW215891  11.977   9.308   5.387  0.8662 -0.1215  0.6160
36344SOL     OW15892  11.225   0.404   8.191 -0.2449  0.1020 -1.0839
36344SOL    HW115893  11.286   0.331   8.180 -0.7887 -0.7792  1.1350
36344SOL    HW215894  11.277   0.471   8.235 -0.8864 -0.8199  1.2219
36345SOL     OW15895   9.580   2.395   5.029  0.0579 -0.5389  0.3427
36345SOL    HW115896   9.492   2.399   5.065 -0.4298 -0.7724 -0.7847
36345SOL    HW215897   9.573   2.436   4.943  0.6359 -2.2105 -0.5373
36346SOL     OW15898  12.327   5.420   5.371  0.0547  0.1564  0.3715
36346SOL    HW115899  12.412   5.376   5.371  1.0002  1.9032  0.5588
36346SOL    HW215900  12.265   5.352   5.344  1.8829 -0.4466 -2.7770
36347SOL     OW15901   9.955  10.786   1.103 -0.1919 -0.0215 -0.0200
36347SOL    HW115902   9.945  10.804   1.197  0.2973 -0.7175  0.1769
36347SOL    HW215903  10.030  10.839   1.077 -0.3816  0.2392 -0.0388
36348SOL     OW15904   9.668   6.686   1.419  0.3153 -0.1989  0.3353
36348SOL    HW115905   9.754   6.693   1.459  0.3075  0.2185  0.2872
36348SOL    HW215906   9.685   6.692   1.325  0.4058 -1.8914  0.2213
36349SOL     OW15907   2.663   6.322  10.904 -0.2468 -0.5998  0.0041
36349SOL    HW115908   2.673   6.274  10.986  0.1410 -1.0065 -0.2765
36349SOL    HW215909   2.726   6.282  10.845 -1.0283 -0.7891 -0.7174
36350SOL     OW15910   4.772   4.017   3.902  0.4424 -0.4412  0.6027
36350SOL    HW115911   4.859   4.004   3.863  1.1708 -2.2681  2.6456
36350SOL    HW215912   4.753   3.935   3.946 -1.9552  0.2559  0.9949
36351SOL     OW15913   7.801   2.311   1.129  0.4305  1.0171 -0.3781
36351SOL    HW115914   7.778   2.272   1.213  0.5740  1.6431 -0.0403
36351SOL    HW215915   7.894   2.290   1.117 -0.2566 -1.6392 -1.8125
36352SOL     OW15916  11.138   9.181   5.873  0.1905  0.2675  0.1976
36352SOL    HW115917  11.089   9.193   5.954 -1.9735  0.4830 -1.0450
36352SOL    HW215918  11.102   9.247   5.813  1.5190 -0.0553 -1.0311
36353SOL     OW15919   8.301   1.245   1.586  0.2405 -0.0616 -0.6620
36353SOL    HW115920   8.268   1.330   1.615 -0.0160 -0.2548 -0.3892
36353SOL    HW215921   8.395   1.249   1.601  0.3995  0.6154 -1.7457
36354SOL     OW15922  12.299   2.373  11.142 -0.3085  0.4042 -0.1311
36354SOL    HW115923  12.215   2.341  11.110 -0.9652  0.1704  1.7476
36354SOL    HW215924  12.301   2.465  11.115  0.0199 -0.2123 -2.4301
36355SOL     OW15925   8.274   2.866   5.161  0.3143 -0.0610 -0.1337
36355SOL    HW115926   8.282   2.843   5.253  2.9878 -1.1534 -0.5435
36355SOL    HW215927   8.315   2.952   5.154  0.0255  0.0637 -0.2728
36356SOL     OW15928   4.358   6.413  10.365  0.3317  0.5211 -0.0194
36356SOL    HW115929   4.415   6.421  10.441  0.4971  0.5087 -0.1432
36356SOL    HW215930   4.319   6.501  10.355 -2.2504 -0.2357  2.0760
36357SOL     OW15931  11.552   5.970  12.224  0.2972  0.1300 -0.1428
36357SOL    HW115932  11.638   5.954  12.264 -0.3737 -1.4869  0.7337
36357SOL    HW215933  11.537   6.064  12.237  1.9981  0.4851 -0.4790
36358SOL     OW15934  12.109   8.644  11.849  0.3087 -0.0313  0.2359
36358SOL    HW115935  12.180   8.599  11.895 -1.2537 -2.3687  0.5346
36358SOL    HW215936  12.126   8.737  11.862  3.7093 -0.4598 -0.3399
36359SOL     OW15937   3.599   7.179   3.379 -0.6548  0.2719 -0.1312
36359SOL    HW115938   3.509   7.211   3.372 -0.7812 -0.3290 -1.5214
36359SOL    HW215939   3.597   7.092   3.341  0.5405  0.2924 -0.2788
36360SOL     OW15940  12.019   7.846   8.147 -0.4739 -0.0019  0.0960
36360SOL    HW115941  12.090   7.828   8.085 -1.1796  0.8188 -1.0064
36360SOL    HW215942  12.044   7.929   8.189  0.3520 -0.9144  1.4840
36361SOL     OW15943  11.673   2.866   7.892 -0.3089  0.1615 -0.1213
36361SOL    HW115944  11.755   2.912   7.909  0.6426 -1.5460  0.2052
36361SOL    HW215945  11.621   2.881   7.971  0.1020  0.4201  0.1058
36362SOL     OW15946   8.367   1.473   6.282  0.1751  0.4926 -0.2165
36362SOL    HW115947   8.357   1.501   6.191 -0.9683  0.3514 -0.1490
36362SOL    HW215948   8.383   1.554   6.330 -0.0307  0.6615 -0.4301
36363SOL     OW15949   7.513  12.224   1.396 -0.0499 -0.4625 -0.8088
36363SOL    HW115950   7.522  12.133   1.365  0.5001 -1.2607  1.4768
36363SOL    HW215951   7.592  12.239   1.448 -1.0016  0.6965  0.3488
36364SOL     OW15952   3.116   6.951   7.562  0.1832 -0.0459 -0.1582
36364SOL    HW115953   3.125   6.857   7.547 -0.0040 -0.3797  1.5564
36364SOL    HW215954   3.028   6.972   7.532  0.0426 -0.5271 -0.0925
36365SOL     OW15955  10.609   8.423   9.788  0.0683 -0.1361 -0.0595
36365SOL    HW115956  10.653   8.453   9.868 -1.4642  0.7737  0.4940
36365SOL    HW215957  10.661   8.459   9.717  0.0740  1.1701  0.5760
36366SOL     OW15958   0.017   1.881   2.704  0.9624  0.2089  0.4414
36366SOL    HW115959   0.062   1.960   2.675  1.0812 -0.2105 -0.5607
36366SOL    HW215960  -0.074   1.893   2.677  0.3323  1.2111  2.7767
36367SOL     OW15961   5.952  12.393   9.072 -0.3657  0.0342 -0.1893
36367SOL    HW115962   5.890  12.392   8.999  0.0081 -2.0369 -0.5471
36367SOL    HW215963   6.038  12.403   9.029 -0.1430 -1.2230 -0.0699
36368SOL     OW15964  12.099   8.764  11.256  0.3143 -0.1991 -0.6215
36368SOL    HW115965  12.086   8.757  11.350 -0.8487  1.2305 -0.6310
36368SOL    HW215966  12.098   8.674  11.224  0.0357 -0.6597  0.6558
36369SOL     OW15967   9.374   7.884   7.454  0.0470 -0.7338  0.2155
36369SOL    HW115968   9.327   7.935   7.520  0.2629 -0.2025 -0.0386
36369SOL    HW215969   9.414   7.949   7.396 -0.6650 -1.1829 -0.8229
36370SOL     OW15970   8.636  11.556   7.625  0.1318  0.4409 -0.1682
36370SOL    HW115971   8.652  11.578   7.533 -1.1446 -1.0400 -0.7760
36370SOL    HW215972   8.692  11.479   7.641 -1.1881 -0.5948 -0.3515
36371SOL     OW15973   5.088   3.403   8.142  0.2478 -0.1085 -0.5357
36371SOL    HW115974   5.095   3.496   8.166 -0.1168 -0.0195 -0.7663
36371SOL    HW215975   5.172   3.365   8.169 -0.3422 -0.1484  1.4448
36372SOL     OW15976   5.482   3.644   2.168 -0.0912 -0.1727  0.3010
36372SOL    HW115977   5.401   3.619   2.124  0.5045 -1.3011 -0.2135
36372SOL    HW215978   5.477   3.602   2.254 -0.6348  0.8698  0.7883
36373SOL     OW15979   5.856   2.980   2.673  0.0546 -0.0280 -0.5564
36373SOL    HW115980   5.872   2.899   2.721 -2.7409 -1.6846 -2.0948
36373SOL    HW215981   5.862   2.955   2.581  0.7293  1.9494 -1.1076
36374SOL     OW15982   9.945   0.481   2.760 -0.1618  0.3002 -0.1127
36374SOL    HW115983   9.924   0.392   2.789  0.9397  0.4843  1.3829
36374SOL    HW215984   9.915   0.485   2.669 -3.2107 -0.5372  0.7466
36375SOL     OW15985  10.438   0.846  10.889 -0.0370  0.4608 -0.5442
36375SOL    HW115986  10.342   0.847  10.881 -0.0229  0.3153 -0.7534
36375SOL    HW215987  10.468   0.816  10.803  0.1309 -1.4073  0.1420
36376SOL     OW15988   5.724   9.990   9.885 -0.6018 -0.2262  0.6728
36376SOL    HW115989   5.680  10.053   9.828  2.0199  1.7688  0.6569
36376SOL    HW215990   5.697  10.014   9.974 -1.7881 -0.9277  0.5134
36377SOL     OW15991   2.210   1.445   0.744  0.3005 -0.1500  0.2579
36377SOL    HW115992   2.136   1.424   0.687 -0.3871  0.9293  0.7245
36377SOL    HW215993   2.174   1.441   0.832  0.9338 -0.1366  0.5212
36378SOL     OW15994   4.447   4.222   6.331 -0.1203 -0.3975  0.2192
36378SOL    HW115995   4.533   4.189   6.305  0.1944  0.0114  0.7334
36378SOL    HW215996   4.412   4.263   6.251  0.5300  0.2038  0.2404
36379SOL     OW15997   5.228   2.774   7.711  0.3630 -0.1343  0.0952
36379SOL    HW115998   5.223   2.679   7.703  0.2866 -0.1470  0.2965
36379SOL    HW215999   5.137   2.804   7.702  0.4481 -0.0361 -0.5191
36380SOL     OW16000   9.146   3.257   5.713 -0.1257  0.2597 -0.0472
36380SOL    HW116001   9.231   3.235   5.674  0.1143  1.4723 -0.2457
36380SOL    HW216002   9.144   3.353   5.714 -0.3767  0.3010  2.3367
36381SOL     OW16003   1.691   0.807   0.147  0.3170  0.1029  0.2324
36381SOL    HW116004   1.721   0.776   0.061 -0.1609 -1.1795  0.5032
36381SOL    HW216005   1.598   0.786   0.149  0.1326  0.9336  0.7277
36382SOL     OW16006   8.812   4.434  11.511  0.1288 -0.3909  0.3327
36382SOL    HW116007   8.732   4.435  11.459  1.5505  0.3481 -2.0224
36382SOL    HW216008   8.787   4.395  11.595 -2.5158 -0.7409 -0.5473
36383SOL     OW16009   3.904  10.545   5.503  0.0830 -0.0203  0.2279
36383SOL    HW116010   3.822  10.514   5.542  0.3503 -1.0179  0.0292
36383SOL    HW216011   3.945  10.466   5.468  0.8659  0.5515 -0.1720
36384SOL     OW16012   4.516   5.361   5.668  0.6058 -0.6216  0.3044
36384SOL    HW116013   4.463   5.374   5.589  2.2129  1.8318 -0.4906
36384SOL    HW216014   4.453   5.333   5.735 -1.2786 -0.1444 -1.1833
36385SOL     OW16015  10.850   3.374   1.317  0.0745  0.3486 -0.0749
36385SOL    HW116016  10.901   3.404   1.242 -0.4966  0.4435 -0.4266
36385SOL    HW216017  10.764   3.351   1.281  0.1021 -0.5284  0.3818
36386SOL     OW16018   0.235   3.649  12.274  0.4450 -0.2417  0.6820
36386SOL    HW116019   0.164   3.612  12.222 -0.3436 -0.2718  1.7505
36386SOL    HW216020   0.314   3.634  12.221  0.0169 -2.4828  0.5757
36387SOL     OW16021   5.567   8.000   3.356  0.4084  1.4824  0.1105
36387SOL    HW116022   5.623   8.015   3.431  0.5756  1.2104  0.0410
36387SOL    HW216023   5.573   7.906   3.339 -0.6613  1.3140  0.5679
36388SOL     OW16024   5.256   6.792   2.684 -0.0353  0.2787  0.7188
36388SOL    HW116025   5.332   6.746   2.721  0.0213 -0.1790  0.0573
36388SOL    HW216026   5.183   6.767   2.741  0.0717 -0.3125  0.6047
36389SOL     OW16027  11.231   0.487   5.772 -0.2680  0.5112 -0.1658
36389SOL    HW116028  11.191   0.414   5.819  1.5589 -0.6425 -0.2949
36389SOL    HW216029  11.290   0.445   5.709 -0.4603  2.0764 -1.4650
36390SOL     OW16030   0.158   9.999   6.504 -0.0523  0.6591  0.3437
36390SOL    HW116031   0.236   9.951   6.474 -0.0932  1.0787 -0.4612
36390SOL    HW216032   0.086   9.962   6.454 -0.3726  0.3358  1.0214
36391SOL     OW16033   3.516   0.953   3.030 -0.7240 -0.1063 -0.3577
36391SOL    HW116034   3.577   0.993   2.968  1.1580 -0.6974  1.0373
36391SOL    HW216035   3.463   1.027   3.061 -2.0841  0.1431 -2.9305
36392SOL     OW16036   5.062   0.384   9.323  0.3536 -0.2790 -0.3692
36392SOL    HW116037   5.012   0.461   9.349 -1.6923 -0.8007 -2.3988
36392SOL    HW216038   5.032   0.314   9.381 -0.0591 -0.2111 -0.4993
36393SOL     OW16039   8.712  10.452   1.937  0.1324  0.5938  0.1206
36393SOL    HW116040   8.740  10.539   1.966  1.9861  0.5903 -1.4138
36393SOL    HW216041   8.654  10.469   1.862 -0.1716  0.5127  0.3349
36394SOL     OW16042   6.332   6.195  12.335  0.2913  0.0028  0.1534
36394SOL    HW116043   6.376   6.250  12.401  0.4480  1.3914 -1.0463
36394SOL    HW216044   6.391   6.121  12.322  0.4578 -0.0801  1.2486
36395SOL     OW16045   4.352   8.750   5.827  0.1846 -0.0194  0.3242
36395SOL    HW116046   4.319   8.835   5.855  0.7903 -0.3487  2.1383
36395SOL    HW216047   4.338   8.692   5.902  1.4822 -1.0679 -0.1984
36396SOL     OW16048   1.953   4.073  10.142  0.0828  0.5062  0.6878
36396SOL    HW116049   1.922   4.012  10.075 -0.3604 -1.0262  2.2225
36396SOL    HW216050   2.042   4.095  10.115 -0.1753  0.1590 -0.5296
36397SOL     OW16051  10.826   7.854   9.344 -0.0298  0.3237 -0.8465
36397SOL    HW116052  10.779   7.829   9.424  1.8041  0.6754  0.3984
36397SOL    HW216053  10.823   7.949   9.343 -0.8875  0.2982 -1.7478
36398SOL     OW16054   7.560   2.381   5.595 -0.5562  0.0142 -0.3071
36398SOL    HW116055   7.552   2.308   5.657  0.2464 -0.2905 -0.5473
36398SOL    HW216056   7.540   2.342   5.510 -1.2520  0.3408 -0.3035
36399SOL     OW16057   9.260   7.413  11.176 -0.3128  0.2386 -0.5946
36399SOL    HW116058   9.299   7.417  11.088  2.0055 -1.9402  0.2169
36399SOL    HW216059   9.243   7.320  11.190 -0.5508  0.5326  1.3042
36400SOL     OW16060   2.788  11.674   9.052  0.1431  0.9369  0.3920
36400SOL    HW116061   2.753  11.651   9.138  0.8218 -0.1621  0.4003
36400SOL    HW216062   2.801  11.590   9.008  0.9796  1.4114 -0.3146
36401SOL     OW16063   1.327   8.336   4.709  0.3118 -0.0226  0.4512
36401SOL    HW116064   1.346   8.304   4.621  1.6154 -1.3319  1.1666
36401SOL    HW216065   1.339   8.259   4.765 -3.4164 -0.0175  1.4945
36402SOL     OW16066  10.422   1.598   3.921 -0.1769  0.0388 -0.3021
36402SOL    HW116067  10.484   1.560   3.858 -1.2954  0.4748 -1.7011
36402SOL    HW216068  10.465   1.586   4.006  0.6254 -2.1071 -0.9318
36403SOL     OW16069  10.015   9.057   2.209 -0.2570 -0.5999 -0.1682
36403SOL    HW116070  10.110   9.072   2.203 -0.4052  0.6363  0.2139
36403SOL    HW216071   9.981   9.092   2.127 -0.3107 -1.7755 -0.6556
36404SOL     OW16072   6.315   0.406   9.041 -0.4702  0.7381 -0.1335
36404SOL    HW116073   6.332   0.315   9.066 -1.2190  0.7043  0.2671
36404SOL    HW216074   6.348   0.457   9.115 -1.3288  0.7152  0.2722
36405SOL     OW16075   4.614   7.053   4.009 -0.1730  0.1158  0.1854
36405SOL    HW116076   4.590   7.009   4.090 -0.2205  0.2806  0.2625
36405SOL    HW216077   4.575   7.000   3.940 -1.5355  0.8689  0.3494
36406SOL     OW16078   0.307   6.583   9.061 -0.3885 -0.0614 -0.2450
36406SOL    HW116079   0.293   6.651   9.127  0.1484 -0.2557  0.0742
36406SOL    HW216080   0.280   6.502   9.103 -1.0714 -0.0501 -0.6416
36407SOL     OW16081   0.270  10.847   1.080 -0.1250  0.0005 -0.0150
36407SOL    HW116082   0.334  10.853   1.009  1.4236  1.1859  1.3913
36407SOL    HW216083   0.207  10.781   1.051 -1.0235  2.1508 -3.5944
36408SOL     OW16084   7.645  10.318   9.874 -0.0823  0.1445  0.0506
36408SOL    HW116085   7.666  10.346   9.784 -1.2956 -2.4475 -1.1358
36408SOL    HW216086   7.730  10.315   9.918  0.5869  1.1394 -1.1027
36409SOL     OW16087   8.375   7.389   3.123  0.0788 -0.1680 -0.1357
36409SOL    HW116088   8.367   7.300   3.089 -3.0766  0.1766 -0.6541
36409SOL    HW216089   8.353   7.445   3.048  0.9998  1.0140  0.4452
36410SOL     OW16090   2.651   6.840   8.401 -0.0971 -0.2939 -0.0227
36410SOL    HW116091   2.645   6.905   8.471  1.5618  1.4129 -1.3487
36410SOL    HW216092   2.584   6.776   8.422 -0.0359  0.4199  2.8150
36411SOL     OW16093  11.133  10.200   2.265 -0.1472 -0.3157 -0.2262
36411SOL    HW116094  11.210  10.199   2.321 -0.4780 -0.3439  0.2327
36411SOL    HW216095  11.059  10.182   2.324 -0.7076  1.3863 -0.3614
36412SOL     OW16096   9.508   4.133   1.377  0.0420 -0.0482  0.0962
36412SOL    HW116097   9.439   4.179   1.425  0.1103 -0.3018  0.4379
36412SOL    HW216098   9.570   4.202   1.352 -0.1546  0.1295  0.0953
36413SOL     OW16099   5.348  12.455   2.185  0.3207 -0.5286  0.3100
36413SOL    HW116100   5.379  12.371   2.218 -0.2414 -0.5735  0.7313
36413SOL    HW216101   5.289  12.433   2.113 -0.8738 -0.5651  1.2710
36414SOL     OW16102   6.543   1.261   3.002 -0.1575  0.3694 -0.0601
36414SOL    HW116103   6.544   1.179   3.052  0.8051  1.5773  2.0487
36414SOL    HW216104   6.534   1.329   3.069  1.6851  2.1337 -1.4855
36415SOL     OW16105  10.805   2.037   1.737 -0.3819  0.3251 -0.3508
36415SOL    HW116106  10.876   2.055   1.676 -0.9067  2.0816 -0.5065
36415SOL    HW216107  10.848   2.009   1.817  0.4156  0.1272 -0.8392
36416SOL     OW16108   4.933   3.662   8.597 -0.1466 -0.4964  0.0532
36416SOL    HW116109   4.914   3.676   8.690 -0.7262 -0.8868 -0.0046
36416SOL    HW216110   5.027   3.645   8.595  0.1368  0.9176  0.4000
36417SOL     OW16111   5.016   9.240   8.551 -0.5800 -0.3686 -0.1718
36417SOL    HW116112   5.000   9.187   8.630 -0.3879  1.5140  1.1942
36417SOL    HW216113   4.942   9.220   8.494 -1.4764 -0.7409  1.0688
36418SOL     OW16114  11.361   1.013  11.632 -0.0660  0.6433 -0.6149
36418SOL    HW116115  11.323   1.055  11.555 -1.6668  0.3588 -0.0037
36418SOL    HW216116  11.358   0.919  11.613 -1.4135  0.5043  0.1843
36419SOL     OW16117   1.238   7.590   6.769  0.1005  0.5630  0.6168
36419SOL    HW116118   1.260   7.615   6.859  1.0157 -0.6820  0.7720
36419SOL    HW216119   1.212   7.498   6.776  0.1857  0.4566 -0.3905
36420SOL     OW16120   7.649   5.283   1.799  0.8238  0.6743  0.7983
36420SOL    HW116121   7.705   5.222   1.847  2.2861  2.0075  0.8395
36420SOL    HW216122   7.672   5.269   1.707 -1.6977 -1.5990  0.3595
36421SOL     OW16123   1.407  11.244  11.780 -0.1303  0.5048  0.4655
36421SOL    HW116124   1.358  11.315  11.740  1.2423  1.3150  0.1588
36421SOL    HW216125   1.419  11.180  11.709 -2.2671 -0.5986  1.0010
36422SOL     OW16126   2.771   3.379   0.857 -0.1620 -0.5289  0.1667
36422SOL    HW116127   2.797   3.319   0.926 -0.5357  0.0477  0.8208
36422SOL    HW216128   2.835   3.450   0.861 -0.8523  0.0823  0.7022
36423SOL     OW16129   4.288   0.714   8.819  0.6178 -0.2026  0.1509
36423SOL    HW116130   4.255   0.801   8.796  1.5502  0.1399  0.0821
36423SOL    HW216131   4.263   0.659   8.745  0.4437  0.1057 -0.0219
36424SOL     OW16132   1.061   9.834   4.171 -0.4547  0.0732 -0.3350
36424SOL    HW116133   1.132   9.840   4.107 -0.0835  2.9894  0.2332
36424SOL    HW216134   1.025   9.746   4.158  2.5060 -1.1286 -1.4056
36425SOL     OW16135   2.105   0.651   2.515  0.0899  0.5099  0.2326
36425SOL    HW116136   2.198   0.658   2.494  0.2686  0.8433  1.0724
36425SOL    HW216137   2.060   0.656   2.431  0.8860 -0.9558 -0.3202
36426SOL     OW16138   4.737  10.412   5.122 -0.4187  0.1581  0.4390
36426SOL    HW116139   4.784  10.332   5.147  1.2114  0.7070 -0.6654
36426SOL    HW216140   4.655  10.381   5.083  0.4868 -1.0433 -0.5952
36427SOL     OW16141   1.720   6.491   3.100  0.1145  0.4752 -0.1459
36427SOL    HW116142   1.767   6.434   3.039  2.4763 -0.2611  2.1820
36427SOL    HW216143   1.782   6.560   3.121 -1.4267  1.9279 -0.1512
36428SOL     OW16144   7.922  10.818   6.812  0.4487 -0.1769  0.4987
36428SOL    HW116145   7.993  10.775   6.765  0.2420 -2.1354  1.8370
36428SOL    HW216146   7.871  10.746   6.849 -1.1724  1.2128  1.1024
36429SOL     OW16147   9.101   5.273   3.558 -0.2052  0.5872 -0.0497
36429SOL    HW116148   9.177   5.321   3.590  0.0417 -0.4075  0.9603
36429SOL    HW216149   9.063   5.234   3.637 -0.8064 -0.2711 -0.7391
36430SOL     OW16150   5.405  12.182   4.375  0.2063 -0.5370  0.0955
36430SOL    HW116151   5.474  12.203   4.438 -0.5646 -1.8271  1.4241
36430SOL    HW216152   5.362  12.105   4.411 -2.5821  0.7845 -0.1829
36431SOL     OW16153   3.873   5.248   0.570  0.6436  0.6180 -0.1489
36431SOL    HW116154   3.951   5.284   0.527  0.4790  0.5349 -0.5217
36431SOL    HW216155   3.899   5.159   0.595  1.0732  0.9981  0.8340
36432SOL     OW16156   4.540   2.263  10.771 -0.2224 -0.5361 -0.3802
36432SOL    HW116157   4.558   2.357  10.772  0.5818 -0.6915 -0.2566
36432SOL    HW216158   4.610   2.225  10.719 -1.0462 -0.9760 -1.2105
36433SOL     OW16159   1.908   9.261   9.448 -0.2983 -0.9796 -0.3640
36433SOL    HW116160   1.860   9.323   9.503  1.3122 -1.3021  1.4991
36433SOL    HW216161   1.903   9.178   9.495 -0.2351 -1.6633 -1.5301
36434SOL     OW16162   8.351  11.537   4.215  0.0591  0.1936  0.0811
36434SOL    HW116163   8.258  11.517   4.205  0.4515 -1.1081 -1.3417
36434SOL    HW216164   8.380  11.562   4.128  0.8911  1.3726  0.6708
36435SOL     OW16165   8.568   5.566   9.424  0.2166  0.3194  0.2043
36435SOL    HW116166   8.514   5.574   9.502  0.7783  1.5346  0.4875
36435SOL    HW216167   8.558   5.650   9.379 -0.5514 -0.5542 -1.3525
36436SOL     OW16168   5.967   0.121   2.830 -0.2018 -0.2488 -0.1491
36436SOL    HW116169   5.986   0.202   2.783  1.0843 -0.8321 -0.6777
36436SOL    HW216170   6.032   0.059   2.798 -0.1472 -1.0473  1.4297
36437SOL     OW16171   7.521   8.968  11.544 -0.1794 -0.1447  0.5701
36437SOL    HW116172   7.552   9.029  11.476  2.2050 -2.3344 -0.4804
36437SOL    HW216173   7.576   8.987  11.620  2.2563 -2.3292 -0.4874
36438SOL     OW16174   6.896   4.591   5.239 -0.0893 -0.4002 -0.0539
36438SOL    HW116175   6.972   4.625   5.192 -0.0609 -1.6434 -0.9543
36438SOL    HW216176   6.822   4.607   5.181  0.0989 -2.9618 -1.1414
36439SOL     OW16177   9.710   9.875   0.382 -0.1169  0.5184 -0.6975
36439SOL    HW116178   9.767   9.898   0.454  0.9148 -0.1101 -1.2879
36439SOL    HW216179   9.643   9.943   0.382  0.4619  1.1095  0.1898
36440SOL     OW16180   4.012   7.982  10.069  0.0102  0.1960  0.1127
36440SOL    HW116181   4.005   8.039  10.146  2.1921  0.3110  0.2938
36440SOL    HW216182   3.993   8.040   9.995 -0.2104  0.5566  0.4460
36441SOL     OW16183   2.559  11.000  12.389  0.2270 -0.1629  0.2395
36441SOL    HW116184   2.611  10.938  12.440  0.9974  0.5767  0.3717
36441SOL    HW216185   2.500  10.945  12.337  0.0558 -0.9626  1.2412
36442SOL     OW16186   4.641  10.807  10.279 -0.0766 -0.2584  0.3667
36442SOL    HW116187   4.610  10.897  10.291 -0.1876 -0.3523  0.7983
36442SOL    HW216188   4.653  10.774  10.368 -0.1652 -0.7150  0.2122
36443SOL     OW16189   3.622   3.941   5.670 -0.0283  0.2267 -0.2801
36443SOL    HW116190   3.540   3.899   5.644  0.3964 -0.9250  0.1738
36443SOL    HW216191   3.644   3.999   5.597 -1.3021  0.6520 -0.3480
36444SOL     OW16192   0.210   2.526   9.574 -0.5007  0.2458 -0.1984
36444SOL    HW116193   0.200   2.434   9.553  2.6455 -0.6888  1.7371
36444SOL    HW216194   0.301   2.546   9.552 -0.4517  2.2490  1.4935
36445SOL     OW16195   0.421   3.820  12.386  0.3533  0.0653  0.5353
36445SOL    HW116196   0.422   3.911  12.355  2.7092  0.0729  0.4487
36445SOL    HW216197   0.330   3.793  12.378 -0.6031  2.7298  1.4912
36446SOL     OW16198   9.434   2.829  11.941  0.2503 -0.5393  0.0840
36446SOL    HW116199   9.480   2.900  11.896 -1.1585 -0.5837 -1.5247
36446SOL    HW216200   9.425   2.860  12.031 -0.0771  1.2127 -0.5053
36447SOL     OW16201   8.825  12.157   2.547  0.4949  0.4070 -0.2593
36447SOL    HW116202   8.882  12.080   2.542  1.2983  1.0370 -1.4101
36447SOL    HW216203   8.845  12.196   2.632  0.8501 -0.0824 -0.1156
36448SOL     OW16204   0.690   0.723   2.143  0.0602  0.1621 -0.1287
36448SOL    HW116205   0.605   0.755   2.173 -0.9550 -1.5686 -0.9974
36448SOL    HW216206   0.680   0.628   2.138  2.0416 -0.0905 -0.3126
36449SOL     OW16207  12.355   2.297   6.901 -0.0936  0.4405  0.2563
36449SOL    HW116208  12.396   2.314   6.986  0.1466  0.6136  0.1059
36449SOL    HW216209  12.403   2.222   6.866  0.0409  0.5885  0.1192
36450SOL     OW16210  11.920   7.031   2.877  0.2836  0.4670 -0.4163
36450SOL    HW116211  11.865   6.978   2.819  0.6944 -0.7441  0.2636
36450SOL    HW216212  11.911   6.991   2.963  0.7381  1.4156  0.0907
36451SOL     OW16213   7.151   2.551   8.392  0.7063  0.0018 -0.2595
36451SOL    HW116214   7.127   2.491   8.321 -0.1937 -0.1362  0.1407
36451SOL    HW216215   7.224   2.602   8.357  0.5814 -0.3840 -1.1106
36452SOL     OW16216  12.440   1.395   6.160  0.4425  0.4297 -0.4566
36452SOL    HW116217  12.405   1.359   6.242  0.3754 -4.2316 -2.2244
36452SOL    HW216218  12.387   1.473   6.144  0.1382  1.2844  3.5873
36453SOL     OW16219   0.588   4.131   6.518 -0.2069 -0.9887  0.6622
36453SOL    HW116220   0.618   4.151   6.430  1.2502 -0.4830  1.2365
36453SOL    HW216221   0.504   4.087   6.506  0.3720 -1.7031 -1.0144
36454SOL     OW16222  11.370   3.118   3.273  0.1714  0.1503 -0.3800
36454SOL    HW116223  11.311   3.074   3.334  1.4804 -1.8132 -0.4294
36454SOL    HW216224  11.394   3.199   3.317 -1.0470  0.0712  0.4783
36455SOL     OW16225   3.864   8.762   2.574  0.1270  0.3107 -0.0357
36455SOL    HW116226   3.775   8.763   2.610 -0.0012  0.2366 -0.3472
36455SOL    HW216227   3.909   8.833   2.620 -0.3108  0.8485 -0.4125
36456SOL     OW16228   4.437   9.010   7.642  0.5480  0.4917  0.0816
36456SOL    HW116229   4.516   9.011   7.696  1.2168 -3.3088 -0.5877
36456SOL    HW216230   4.386   8.937   7.675 -1.1762  0.8581 -1.5934
36457SOL     OW16231   0.582   0.842   0.750  0.2828 -0.0425  0.0766
36457SOL    HW116232   0.656   0.899   0.767 -0.7056  1.6907 -1.0514
36457SOL    HW216233   0.563   0.800   0.834  0.2686  2.3085  1.3309
36458SOL     OW16234   9.737   9.560  12.437 -0.4353 -0.0328 -0.2048
36458SOL    HW116235   9.752   9.605  12.520  0.1671  0.5258 -0.6061
36458SOL    HW216236   9.824   9.530  12.409 -0.5760  0.1012 -0.8071
36459SOL     OW16237   7.109  12.334   8.728  0.0142  0.1050  0.5002
36459SOL    HW116238   7.110  12.359   8.821  1.8480  0.4929  0.4147
36459SOL    HW216239   7.195  12.295   8.713 -0.3568 -0.2019 -0.9867
36460SOL     OW16240   7.992   4.942   4.049 -0.5709 -0.0618 -0.2659
36460SOL    HW116241   7.919   5.005   4.043 -1.1622 -0.5758  1.0407
36460SOL    HW216242   7.961   4.876   4.111  0.8283 -0.5697 -0.0777
36461SOL     OW16243  10.159   2.007   8.852 -0.4485  0.7644  0.1246
36461SOL    HW116244  10.254   2.009   8.862 -0.5101 -0.6204  1.3010
36461SOL    HW216245  10.135   2.098   8.835  1.0641  1.1492 -0.1102
36462SOL     OW16246   0.431  11.855   8.465 -0.1728 -0.1976 -0.3501
36462SOL    HW116247   0.423  11.868   8.560 -0.5210 -1.0658 -0.2545
36462SOL    HW216248   0.351  11.892   8.429 -0.8094 -1.3243 -0.1451
36463SOL     OW16249   7.774   6.207   1.628 -0.1538  0.9082  0.2146
36463SOL    HW116250   7.749   6.151   1.554  0.7986  1.6210 -0.6879
36463SOL    HW216251   7.754   6.155   1.706 -1.4931  0.2638 -0.5267
36464SOL     OW16252   5.725   3.631   9.446  0.3069  0.7433  0.0644
36464SOL    HW116253   5.736   3.671   9.360 -1.9990  1.9781  0.2603
36464SOL    HW216254   5.788   3.558   9.447  1.7010  1.8272 -1.9124
36465SOL     OW16255   7.961   8.086  11.402  0.1817 -0.1230  0.2524
36465SOL    HW116256   7.878   8.042  11.418  0.8551 -0.9333  1.6602
36465SOL    HW216257   8.019   8.018  11.366  0.0230  0.6373 -1.5782
36466SOL     OW16258  11.254   3.486   6.572  0.2469 -0.0489  0.1408
36466SOL    HW116259  11.219   3.435   6.645 -2.4105  1.5162  0.1021
36466SOL    HW216260  11.224   3.441   6.494 -0.0617  0.2416  0.0868
36467SOL     OW16261   4.695  10.119  10.860  0.5250 -0.0137  0.3010
36467SOL    HW116262   4.713  10.137  10.767  1.9487 -1.3101  0.2811
36467SOL    HW216263   4.758  10.172  10.907  0.5684 -0.2260  0.4815
36468SOL     OW16264  10.624   8.754  10.329 -0.0335  0.4608  0.0118
36468SOL    HW116265  10.577   8.730  10.249 -1.4862 -0.1244  0.9830
36468SOL    HW216266  10.642   8.670  10.371  0.3918  0.7789  0.4679
36469SOL     OW16267   3.338   9.552   1.371  0.3047 -0.2186  0.0958
36469SOL    HW116268   3.251   9.536   1.408 -0.3179  0.8630 -0.8699
36469SOL    HW216269   3.349   9.484   1.304  0.3683 -0.5680  0.4514
36470SOL     OW16270  12.418   4.838   6.551 -0.1720 -0.4011 -0.0734
36470SOL    HW116271  12.416   4.893   6.629  0.9943 -1.5243  0.7965
36470SOL    HW216272  12.361   4.882   6.488  0.4302  1.5823  0.7116
36471SOL     OW16273   0.445  10.344   9.838  0.5822  0.5995  0.4802
36471SOL    HW116274   0.425  10.345   9.932  0.0439  1.1025  0.3656
36471SOL    HW216275   0.371  10.296   9.799  1.1746 -0.2647  0.3870
36472SOL     OW16276  10.081  10.256   3.190 -0.6128  0.3767  0.2089
36472SOL    HW116277  10.006  10.247   3.132  0.0859 -0.3918 -0.5951
36472SOL    HW216278  10.043  10.286   3.273 -2.0702 -1.9001  0.4511
36473SOL     OW16279   1.835   8.808  10.340 -0.5874 -0.5537 -0.3307
36473SOL    HW116280   1.755   8.818  10.392  0.4336  2.3091  0.8753
36473SOL    HW216281   1.900   8.777  10.402  0.1613  0.9531 -0.3291
36474SOL     OW16282  10.841   2.592   6.624 -0.2378 -0.0687 -0.2922
36474SOL    HW116283  10.841   2.678   6.582  4.2948 -0.3022 -1.3523
36474SOL    HW216284  10.898   2.602   6.700 -2.1299 -1.5081  1.4243
36475SOL     OW16285   3.180   5.527   5.095  0.4806  0.2707  0.2858
36475SOL    HW116286   3.145   5.539   5.184  1.0665 -1.4884  0.7934
36475SOL    HW216287   3.143   5.599   5.045 -0.6430  0.7570  1.7421
36476SOL     OW16288   4.577   6.897  10.605  0.0298  0.0868 -0.3368
36476SOL    HW116289   4.646   6.916  10.541  0.9265 -0.2893  0.5004
36476SOL    HW216290   4.530   6.980  10.613  2.5448  1.4858  1.6251
36477SOL     OW16291   1.250   6.667   3.169  0.3592 -0.1083  0.3751
36477SOL    HW116292   1.308   6.604   3.125  0.4141  0.3234 -0.1730
36477SOL    HW216293   1.304   6.745   3.182  0.5518 -0.4541  1.8280
36478SOL     OW16294   3.385   5.874   8.618 -0.4567 -0.4443 -0.0507
36478SOL    HW116295   3.338   5.873   8.701 -1.2363  0.9934 -0.4337
36478SOL    HW216296   3.315   5.877   8.552  0.1543 -1.3435 -0.7668
36479SOL     OW16297  11.637   1.850   1.756  0.3244  0.2854  0.3394
36479SOL    HW116298  11.692   1.916   1.798  0.0556 -0.0513  1.2650
36479SOL    HW216299  11.681   1.767   1.775  0.0022  0.0987  0.2732
36480SOL     OW16300   8.733   8.559   4.611 -0.4378 -0.2891  0.2961
36480SOL    HW116301   8.654   8.508   4.630  0.2328 -0.8326  1.7694
36480SOL    HW216302   8.769   8.581   4.697  2.6644 -2.6667 -0.2284
36481SOL     OW16303   7.912   1.188   5.353  0.6102  0.0643 -0.0069
36481SOL    HW116304   7.877   1.254   5.292 -0.4381 -0.9320 -0.5195
36481SOL    HW216305   7.921   1.235   5.436 -1.5979  0.5043  0.0527
36482SOL     OW16306   0.797   6.576   4.153 -0.4914 -0.0250 -0.7501
36482SOL    HW116307   0.892   6.577   4.164 -0.3768 -2.2978 -0.9874
36482SOL    HW216308   0.774   6.666   4.129  1.2830  1.1351  1.5156
36483SOL     OW16309   4.230  10.676   1.131 -0.5847  0.2024 -0.1753
36483SOL    HW116310   4.185  10.746   1.083 -0.9433 -1.1010 -1.8280
36483SOL    HW216311   4.322  10.686   1.108 -0.5192  0.5675  0.2124
36484SOL     OW16312   4.551   5.571   4.462  0.8855 -0.2299 -0.2241
36484SOL    HW116313   4.462   5.564   4.426  1.2460  1.0248 -1.4654
36484SOL    HW216314   4.604   5.601   4.388  2.3830 -1.0734  0.4573
36485SOL     OW16315   9.022   3.853   2.782  0.0710  0.1357  0.0594
36485SOL    HW116316   9.080   3.920   2.818  1.7411 -1.0162 -0.3638
36485SOL    HW216317   8.984   3.894   2.704 -0.5775  1.2913  0.9476
36486SOL     OW16318   9.432   5.644   6.995 -0.4433 -0.3210 -0.5392
36486SOL    HW116319   9.504   5.652   7.057 -0.5864  0.0104 -0.4095
36486SOL    HW216320   9.426   5.551   6.976  1.1315 -0.2008 -1.8660
36487SOL     OW16321   2.467   2.390  11.376  0.5867 -0.6245  0.0352
36487SOL    HW116322   2.424   2.460  11.425  0.6614  0.5530 -1.5023
36487SOL    HW216323   2.470   2.316  11.436  0.1094  0.5607  1.5609
36488SOL     OW16324  10.397   9.004  11.944  0.1921  0.4729  0.5008
36488SOL    HW116325  10.418   8.972  12.031 -0.2190 -1.0341  0.0703
36488SOL    HW216326  10.452   8.952  11.885  0.9328  1.9036 -0.1251
36489SOL     OW16327  10.329   3.579   6.587 -0.0950  0.3087 -0.1093
36489SOL    HW116328  10.398   3.627   6.541 -0.4824  2.5790  1.4964
36489SOL    HW216329  10.258   3.573   6.523  0.7968 -0.1601 -1.0854
36490SOL     OW16330   3.831   0.997   2.432  0.0547  0.5180 -0.2524
36490SOL    HW116331   3.833   0.934   2.504 -0.1818  2.8121  1.9229
36490SOL    HW216332   3.746   0.984   2.390  0.3179 -1.0642 -0.3342
36491SOL     OW16333   5.902   4.419   2.855  1.1836  0.2352  0.0005
36491SOL    HW116334   5.936   4.376   2.933  0.6127  0.9234  0.6482
36491SOL    HW216335   5.829   4.365   2.827 -0.1698  1.2320  1.3897
36492SOL     OW16336   1.026  10.398   5.330 -0.1294 -0.1686  0.3593
36492SOL    HW116337   0.976  10.317   5.337 -0.1288 -0.4350 -2.0653
36492SOL    HW216338   1.117  10.372   5.344 -0.2197 -0.3931  0.5394
36493SOL     OW16339   3.622   6.915   2.516 -0.4733  0.0667 -0.0408
36493SOL    HW116340   3.574   6.954   2.444 -0.5978 -1.1769 -0.6615
36493SOL    HW216341   3.708   6.958   2.514 -0.7905  0.6931 -0.3475
36494SOL     OW16342   4.743   2.324  12.275  0.0824 -0.1091  0.1003
36494SOL    HW116343   4.743   2.230  12.254 -2.8320 -0.0255 -0.7535
36494SOL    HW216344   4.689   2.363  12.206  3.6520  2.7747 -1.4554
36495SOL     OW16345   5.441   6.298   3.631  0.2462 -0.2445 -0.1421
36495SOL    HW116346   5.362   6.245   3.621  0.5739 -1.2587  2.1826
36495SOL    HW216347   5.509   6.250   3.584 -0.7066  1.4054 -3.5253
36496SOL     OW16348   4.388   2.359   1.870  0.5503 -0.5001  0.0079
36496SOL    HW116349   4.389   2.399   1.783 -2.5284  0.6726  0.4171
36496SOL    HW216350   4.358   2.269   1.855  0.1427 -0.3376 -0.1357
36497SOL     OW16351   8.515  11.808   9.245 -0.0521 -0.2997 -0.2455
36497SOL    HW116352   8.547  11.719   9.264 -0.1744 -0.3689 -0.3627
36497SOL    HW216353   8.505  11.810   9.150  1.2532  0.2827 -0.3964
36498SOL     OW16354   3.172   3.532  11.266  0.0509 -0.4191  0.0030
36498SOL    HW116355   3.133   3.447  11.248  0.2036 -0.4340 -0.2798
36498SOL    HW216356   3.104   3.595  11.242  0.0908 -0.4525 -0.2040
36499SOL     OW16357   4.937   5.903   2.849  0.2389  0.0172 -0.0732
36499SOL    HW116358   5.015   5.957   2.839 -0.4140  0.7803 -1.3033
36499SOL    HW216359   4.876   5.935   2.782 -0.3321 -1.9607 -0.5841
36500SOL     OW16360   7.186   6.531   4.618 -0.1544 -0.2880 -0.1272
36500SOL    HW116361   7.165   6.503   4.707  0.4603 -3.2311 -0.8007
36500SOL    HW216362   7.279   6.553   4.621 -0.1123 -0.4729 -0.0618
36501SOL     OW16363   8.969   3.504   0.902  0.5516 -0.0236 -1.1787
36501SOL    HW116364   9.019   3.437   0.948 -0.7900  0.9106  1.8748
36501SOL    HW216365   9.027   3.580   0.901 -0.3140  0.7587  1.4794
36502SOL     OW16366  11.953   4.993   3.325  0.1033 -0.1851  0.0664
36502SOL    HW116367  12.015   4.963   3.392 -0.0974  0.2670  0.4515
36502SOL    HW216368  12.008   5.037   3.260 -0.0054  2.3650  1.5627
36503SOL     OW16369  11.576   6.266   0.568 -0.0390 -0.3689 -0.1084
36503SOL    HW116370  11.655   6.273   0.514 -1.3604  0.5996 -2.0427
36503SOL    HW216371  11.520   6.205   0.520 -0.7968 -0.3836  0.7776
36504SOL     OW16372   3.942  11.664  10.039  0.3616 -0.2045 -0.3837
36504SOL    HW116373   4.000  11.686   9.966 -0.8193  0.1784 -1.2438
36504SOL    HW216374   3.976  11.713  10.113  0.6132  0.7280 -1.0914
36505SOL     OW16375   5.529   7.346   9.234  0.2548  0.1700  0.2859
36505SOL    HW116376   5.559   7.409   9.168  0.3543 -1.5423 -1.3736
36505SOL    HW216377   5.482   7.400   9.298  1.2186  2.0562 -0.5100
36506SOL     OW16378   5.292  10.743   9.273 -0.1645 -0.1177  0.5055
36506SOL    HW116379   5.320  10.723   9.362 -0.1672  0.9601  0.7679
36506SOL    HW216380   5.372  10.771   9.228  0.3933 -3.1679 -0.6545
36507SOL     OW16381   5.330   7.027   0.237 -0.3566 -0.0574  0.3584
36507SOL    HW116382   5.370   7.100   0.285 -1.4824  1.1777 -0.4787
36507SOL    HW216383   5.314   6.960   0.303 -0.9862  1.2118  1.5370
36508SOL     OW16384   8.385   0.026   7.954  0.1783 -0.8582 -0.3365
36508SOL    HW116385   8.316  -0.036   7.932 -1.0613 -0.6758  2.5701
36508SOL    HW216386   8.358   0.108   7.912 -1.1547 -0.9090  0.3832
36509SOL     OW16387  12.322   9.376   1.336  0.0464 -0.0807 -0.0478
36509SOL    HW116388  12.279   9.298   1.302 -0.4294  0.5812 -0.9924
36509SOL    HW216389  12.254   9.420   1.389  0.0483  0.1302 -0.2185
36510SOL     OW16390   2.567   2.258   8.303 -0.1403 -0.5073 -0.5685
36510SOL    HW116391   2.484   2.240   8.258 -0.1873 -1.1846 -0.2255
36510SOL    HW216392   2.580   2.353   8.293  0.3736 -0.7628 -2.8959
36511SOL     OW16393   2.201   3.244  12.080 -0.3328  0.2133  0.4151
36511SOL    HW116394   2.275   3.227  12.023 -1.3120 -2.1240 -0.3059
36511SOL    HW216395   2.131   3.188  12.045 -2.9039  3.2425  0.2361
36512SOL     OW16396   6.789   9.937   7.820 -0.2553 -0.1152  0.0167
36512SOL    HW116397   6.783   9.845   7.847 -0.4749 -0.1699 -0.2191
36512SOL    HW216398   6.835   9.934   7.737 -0.8869 -0.0758 -0.3391
36513SOL     OW16399   4.169   6.186   9.748 -0.6204  0.2087 -0.0950
36513SOL    HW116400   4.131   6.188   9.836 -3.2063 -0.4155 -1.1227
36513SOL    HW216401   4.114   6.244   9.696 -0.1972 -0.7760 -1.7079
36514SOL     OW16402   3.593   6.091   6.201  0.0447 -0.5898  0.3786
36514SOL    HW116403   3.612   6.120   6.290 -2.0231 -0.5861  0.8842
36514SOL    HW216404   3.596   6.171   6.149  3.9641 -0.9239 -0.1982
36515SOL     OW16405  11.763   3.595   8.379 -0.3454  0.4462 -0.4408
36515SOL    HW116406  11.846   3.557   8.348  0.8604  2.1506  0.4829
36515SOL    HW216407  11.790   3.661   8.443 -2.5858 -0.9336  2.1034
36516SOL     OW16408   3.234   3.711  10.539 -0.4881  0.1150 -0.2877
36516SOL    HW116409   3.288   3.745  10.611  0.7604  1.4929 -1.7816
36516SOL    HW216410   3.154   3.763  10.543  0.3503  1.5339 -0.9791
36517SOL     OW16411   0.532   3.872   3.216 -0.2223  0.1428 -0.3672
36517SOL    HW116412   0.559   3.923   3.140 -0.9295 -0.2591 -0.8981
36517SOL    HW216413   0.560   3.925   3.292  1.3587  0.0936 -0.8767
36518SOL     OW16414   5.952   1.319   0.809 -0.0420  0.5406  0.1556
36518SOL    HW116415   5.878   1.377   0.828 -0.5845  0.4182 -1.4323
36518SOL    HW216416   5.984   1.347   0.724 -0.7501 -1.8449 -0.9948
36519SOL     OW16417   5.818  11.616   8.717  0.2626 -0.1924 -0.5355
36519SOL    HW116418   5.791  11.626   8.625 -0.4821  1.6569 -0.1551
36519SOL    HW216419   5.895  11.673   8.726 -0.4446  0.6527  0.2862
36520SOL     OW16420   7.397   4.544   0.397  0.3892 -0.0666  0.2864
36520SOL    HW116421   7.432   4.487   0.329  0.7048  2.9959 -2.3996
36520SOL    HW216422   7.473   4.592   0.430 -0.1483  0.5191  0.7160
36521SOL     OW16423   4.150   9.078   6.981  0.3151  0.2335  0.5049
36521SOL    HW116424   4.209   9.073   7.056 -1.4272  0.0015  1.9440
36521SOL    HW216425   4.190   9.142   6.922  1.7272  0.4320  1.6444
36522SOL     OW16426   1.201   3.839   6.868  0.3440 -0.9636 -0.1509
36522SOL    HW116427   1.273   3.794   6.914  0.4146 -1.5666 -0.8386
36522SOL    HW216428   1.224   3.832   6.775  1.1684  1.8445 -0.2553
36523SOL     OW16429   4.807   2.542   5.094 -0.2169 -0.4660  0.3926
36523SOL    HW116430   4.794   2.480   5.023 -0.0808 -1.9231  1.5876
36523SOL    HW216431   4.848   2.491   5.164 -3.0067  0.1146  2.6571
36524SOL     OW16432   9.489   0.911   1.847  0.1185 -0.2651  0.4638
36524SOL    HW116433   9.455   0.952   1.926 -0.9139  0.6203 -0.3997
36524SOL    HW216434   9.457   0.967   1.775  0.9216 -1.1005 -0.5818
36525SOL     OW16435   1.170   9.801   2.505 -0.0232  0.2434 -0.2165
36525SOL    HW116436   1.153   9.795   2.599  1.1695 -0.1371 -0.0102
36525SOL    HW216437   1.265   9.811   2.498 -0.1092  0.3794 -1.3778
36526SOL     OW16438   6.800   7.463  10.174  0.5047 -0.3538 -0.6356
36526SOL    HW116439   6.747   7.430  10.101 -0.9878  0.6626 -0.0665
36526SOL    HW216440   6.855   7.389  10.199 -0.1490 -1.2345 -1.7161
36527SOL     OW16441  10.640   8.422   8.960  0.0587 -0.0147 -0.5348
36527SOL    HW116442  10.735   8.423   8.949  0.0091 -0.1143 -0.9832
36527SOL    HW216443  10.618   8.330   8.975  0.3825  0.3478  2.7940
36528SOL     OW16444   9.863  11.825   4.719  0.4325 -0.1468 -0.2202
36528SOL    HW116445   9.873  11.730   4.721  1.7451 -0.0237 -0.0466
36528SOL    HW216446   9.824  11.844   4.634  0.8102 -0.7910 -0.5384
36529SOL     OW16447   7.478   8.422  11.461  0.6525 -0.0324  0.3487
36529SOL    HW116448   7.537   8.374  11.402  0.4683 -0.4721  0.5192
36529SOL    HW216449   7.496   8.514  11.443  1.7569 -0.1535  0.7596
36530SOL     OW16450   3.014   6.875   0.290 -0.1649 -0.3109 -0.1326
36530SOL    HW116451   2.957   6.856   0.216 -0.6794  1.2665 -0.1853
36530SOL    HW216452   3.088   6.923   0.252  0.2901 -0.7501  0.1858
36531SOL     OW16453   0.517   3.574  12.423 -0.4300  0.3475 -0.3730
36531SOL    HW116454   0.442   3.536  12.469 -0.6755  1.0752 -0.1577
36531SOL    HW216455   0.492   3.665  12.408 -0.1962  0.2135 -1.6325
36532SOL     OW16456   1.142   1.751   1.023  0.2490  0.1190  0.3474
36532SOL    HW116457   1.063   1.715   0.981  1.1272 -0.9393 -0.4672
36532SOL    HW216458   1.151   1.701   1.104 -0.3921  0.8462  0.8749
36533SOL     OW16459   8.654   6.905   7.955  0.0298  0.4186  0.2014
36533SOL    HW116460   8.652   6.832   7.893  0.4082 -0.0395  0.7164
36533SOL    HW216461   8.684   6.979   7.903 -0.2088  0.1729 -0.2951
36534SOL     OW16462   9.301   2.392   5.842  0.3514 -0.2105  0.0499
36534SOL    HW116463   9.396   2.395   5.837  0.3950  0.2375  0.9070
36534SOL    HW216464   9.271   2.433   5.761  0.8988  0.8197  0.3474
36535SOL     OW16465  11.305   8.739   0.435 -0.0570  0.0067 -0.8353
36535SOL    HW116466  11.321   8.793   0.513 -1.6603  1.2988 -1.3290
36535SOL    HW216467  11.352   8.785   0.365  0.8137 -0.7736 -0.7839
36536SOL     OW16468   0.388   0.269  10.211  0.0490  0.3170 -0.3668
36536SOL    HW116469   0.371   0.347  10.158 -0.1712  1.2978  1.0979
36536SOL    HW216470   0.468   0.232  10.173  1.5916  2.6433  0.3778
36537SOL     OW16471  12.156   8.664   3.870 -0.6025 -0.5300  0.0816
36537SOL    HW116472  12.154   8.601   3.943 -0.9240 -0.3632  0.2149
36537SOL    HW216473  12.141   8.610   3.792  0.4427 -0.8212  0.0570
36538SOL     OW16474   5.758   9.459   8.045 -0.3646  0.0272 -0.2110
36538SOL    HW116475   5.697   9.532   8.038 -2.9677 -1.8169  1.4409
36538SOL    HW216476   5.722   9.393   7.986  1.2441 -0.4162 -0.7456
36539SOL     OW16477  11.153   6.575   2.436 -0.1520 -0.5456 -0.4023
36539SOL    HW116478  11.124   6.627   2.511 -1.0116  2.2342 -2.4834
36539SOL    HW216479  11.248   6.567   2.447 -0.0607  1.1005  0.2577
36540SOL     OW16480  10.459   5.486  11.350  0.0063  0.4975 -0.2171
36540SOL    HW116481  10.490   5.566  11.394 -1.6799  1.1742 -0.1849
36540SOL    HW216482  10.436   5.427  11.422 -1.0863  0.9394 -0.1870
36541SOL     OW16483  11.248   0.659  10.884 -0.4867  0.4362 -0.3208
36541SOL    HW116484  11.297   0.647  10.965 -0.5301 -0.3861 -0.4133
36541SOL    HW216485  11.295   0.606  10.820 -1.1114  0.1772 -0.5645
36542SOL     OW16486   5.043   5.249   9.178  0.0961 -0.4664  0.0403
36542SOL    HW116487   5.015   5.157   9.176  0.0713 -0.4599  0.0710
36542SOL    HW216488   5.010   5.282   9.262  1.7588 -0.9416  0.9294
36543SOL     OW16489   5.554   8.275   8.517 -0.2639 -0.2855 -0.1923
36543SOL    HW116490   5.505   8.231   8.586 -0.3830 -0.8568 -0.6343
36543SOL    HW216491   5.596   8.350   8.560 -0.0110 -0.8691  0.5803
36544SOL     OW16492  11.767   8.545   0.737 -0.3217 -0.6400  0.0443
36544SOL    HW116493  11.768   8.626   0.788  0.3185 -0.9316  0.5050
36544SOL    HW216494  11.723   8.569   0.655 -0.0697  0.1955  0.1428
36545SOL     OW16495   5.548   7.840   5.992  0.3840 -0.3116 -0.1136
36545SOL    HW116496   5.494   7.767   5.962  0.0476  0.7095 -2.1566
36545SOL    HW216497   5.628   7.798   6.024  0.2431 -1.5939 -1.3105
36546SOL     OW16498  10.426   2.012   8.879 -0.3164  0.0413  0.0465
36546SOL    HW116499  10.453   2.032   8.790 -0.3988  0.0082  0.0153
36546SOL    HW216500  10.500   2.040   8.933 -0.3247  0.1911 -0.0202
36547SOL     OW16501   5.929  10.810   6.228  0.3913  0.4354  0.0042
36547SOL    HW116502   5.980  10.795   6.148  1.5986  1.2234  0.5849
36547SOL    HW216503   5.993  10.844   6.290 -0.2536 -1.2612  1.7037
36548SOL     OW16504   4.311   8.826   2.603  0.3664 -0.1040  0.8890
36548SOL    HW116505   4.399   8.822   2.563  0.3497  2.3567  0.4214
36548SOL    HW216506   4.264   8.751   2.565  1.1886  0.5636 -1.7002
36549SOL     OW16507   3.892   1.527  11.524 -0.1285 -0.2233 -0.5857
36549SOL    HW116508   3.895   1.545  11.617  2.0388  0.1386 -0.6857
36549SOL    HW216509   3.837   1.449  11.516 -0.7928  0.0696  0.9064
36550SOL     OW16510   2.988   7.795   6.925  0.0295 -0.7084  0.1906
36550SOL    HW116511   3.061   7.846   6.960 -0.0630  0.8686 -1.7845
36550SOL    HW216512   3.025   7.748   6.850 -0.8111 -0.3993 -0.4297
36551SOL     OW16513   7.350   0.469  11.495  0.7331 -0.0207 -0.2523
36551SOL    HW116514   7.345   0.400  11.429 -1.6798 -0.5993  0.4531
36551SOL    HW216515   7.281   0.448  11.557  0.8721  2.2545  0.7681
36552SOL     OW16516   6.809   8.718   4.997 -0.0507  0.0811  0.4879
36552SOL    HW116517   6.728   8.691   5.039 -0.6405 -2.0323 -1.7750
36552SOL    HW216518   6.829   8.647   4.935  0.5944  2.9650 -2.9392
36553SOL     OW16519   3.858   7.993   4.449  0.1024  0.3643 -0.2897
36553SOL    HW116520   3.878   7.935   4.375 -2.1980  0.1335 -0.7895
36553SOL    HW216521   3.791   7.947   4.498  1.2024  0.7619  1.6998
36554SOL     OW16522   6.360  11.899   5.326 -0.0991 -0.4773  0.0756
36554SOL    HW116523   6.369  11.928   5.235 -0.8227 -3.5540 -1.1402
36554SOL    HW216524   6.448  11.874   5.352  0.3745  1.7706  0.8292
36555SOL     OW16525   9.350   3.469   9.775 -0.2722  0.3634  0.1159
36555SOL    HW116526   9.329   3.429   9.859 -0.9526  1.6754  0.5925
36555SOL    HW216527   9.265   3.495   9.739  0.1060  0.8563 -0.4379
36556SOL     OW16528  10.906   5.948   5.524  0.1291  0.1988  0.0789
36556SOL    HW116529  10.865   5.921   5.442 -0.8349  0.4413  0.4645
36556SOL    HW216530  10.887   6.042   5.531  0.1274  0.1652  0.6106
36557SOL     OW16531   0.169   3.702   9.901 -0.4093 -0.2125  0.0434
36557SOL    HW116532   0.151   3.611   9.879 -2.7305  0.0299  0.7529
36557SOL    HW216533   0.162   3.707   9.996 -0.6256  0.7677 -0.0084
36558SOL     OW16534   9.649   9.626  10.733  0.1612  0.5639  0.1278
36558SOL    HW116535   9.706   9.553  10.758 -1.1114 -0.3422  0.5024
36558SOL    HW216536   9.626   9.667  10.816  0.4699  1.0963 -0.0441
36559SOL     OW16537   2.803   7.364   7.802  0.4393 -0.1027 -0.5540
36559SOL    HW116538   2.811   7.409   7.717 -0.2111 -0.5091 -0.8356
36559SOL    HW216539   2.743   7.418   7.852  1.7927  0.8215  0.1247
36560SOL     OW16540   5.766   1.661   7.146 -0.6999 -0.2777  0.5888
36560SOL    HW116541   5.759   1.618   7.232  1.2150  0.4957  1.1876
36560SOL    HW216542   5.813   1.597   7.092 -0.5880 -0.1827  0.5724
36561SOL     OW16543   6.117  11.819  11.521 -0.5540 -0.5823  0.6600
36561SOL    HW116544   6.210  11.802  11.506 -0.2466  1.3573  0.0708
36561SOL    HW216545   6.094  11.887  11.457 -1.5212  1.3845  2.9531
36562SOL     OW16546   4.942   7.411   7.451 -0.3468  0.8605  0.3709
36562SOL    HW116547   4.944   7.344   7.521  0.1897  1.5188  0.9991
36562SOL    HW216548   4.966   7.363   7.372  2.3380  0.7138  1.1814
36563SOL     OW16549   2.157   6.446   7.209  0.1092 -0.2447 -0.2780
36563SOL    HW116550   2.088   6.489   7.259  0.3194 -0.7708  0.4888
36563SOL    HW216551   2.188   6.513   7.149 -0.2909  0.3489  0.1576
36564SOL     OW16552   1.274   8.414   4.187  0.2842 -0.0306 -0.4392
36564SOL    HW116553   1.339   8.365   4.135 -1.1561 -1.6245 -0.8047
36564SOL    HW216554   1.191   8.397   4.143 -0.6289  0.6490  0.9781
36565SOL     OW16555   5.749   0.287   2.372 -0.7270 -0.1858  0.4322
36565SOL    HW116556   5.830   0.238   2.358 -0.7510  0.1041 -0.8269
36565SOL    HW216557   5.683   0.237   2.325 -0.7641  0.9978 -0.8371
36566SOL     OW16558   4.634   4.055  10.699  0.6364 -0.5985  0.3549
36566SOL    HW116559   4.637   4.145  10.666  0.2784 -0.5105  0.5661
36566SOL    HW216560   4.553   4.050  10.749  1.6683 -0.3976  2.1542
36567SOL     OW16561   1.332   7.513   6.477 -0.7407  0.0217  0.7741
36567SOL    HW116562   1.425   7.491   6.490 -0.9313 -1.3397  0.0534
36567SOL    HW216563   1.305   7.554   6.559  0.6586  1.0550  0.7513
36568SOL     OW16564   4.952   5.492   7.009  0.0469  0.6489  0.2010
36568SOL    HW116565   5.019   5.424   7.009  0.4289  1.0183 -0.4953
36568SOL    HW216566   4.887   5.463   6.946  0.2712  0.9816 -0.1889
36569SOL     OW16567   4.115   6.219   6.473  0.4124  0.8517  0.1735
36569SOL    HW116568   4.181   6.268   6.424 -0.1360  1.7115  0.2766
36569SOL    HW216569   4.136   6.127   6.456  3.1102  0.9864  2.1328
36570SOL     OW16570   6.133  10.787   8.967  0.0660  0.0024  0.2544
36570SOL    HW116571   6.170  10.772   9.053  1.6254 -0.0800 -0.3996
36570SOL    HW216572   6.168  10.872   8.940  0.4615 -0.4542 -0.7234
36571SOL     OW16573   1.116   3.941   0.119  0.4578  0.5409 -0.7810
36571SOL    HW116574   1.058   4.007   0.081  0.6580  1.7413  0.8612
36571SOL    HW216575   1.064   3.901   0.189  1.1410  0.7196 -0.1498
36572SOL     OW16576  11.351   0.049   1.182 -0.8270 -0.5989 -0.4747
36572SOL    HW116577  11.272   0.089   1.218  0.1094  2.2873 -1.3625
36572SOL    HW216578  11.378   0.108   1.112  3.8764  0.4062  1.8019
36573SOL     OW16579   6.872   7.563  10.873  0.3291  0.4193 -0.1700
36573SOL    HW116580   6.789   7.532  10.909  0.0550  0.4411 -0.7718
36573SOL    HW216581   6.917   7.484  10.843 -0.0553  0.5160 -1.0428
36574SOL     OW16582  11.673  11.893   3.386 -0.8061  0.0745 -0.3104
36574SOL    HW116583  11.755  11.907   3.432 -0.2198 -1.1519 -0.9248
36574SOL    HW216584  11.607  11.883   3.455 -0.2292 -0.1668  0.2086
36575SOL     OW16585   7.920  11.290   9.085 -0.0595  0.4757 -0.1625
36575SOL    HW116586   7.959  11.246   9.161 -1.0972 -0.6715 -0.2465
36575SOL    HW216587   7.884  11.371   9.120 -1.5534 -0.5625  0.8737
36576SOL     OW16588   8.790  10.570   4.653  0.7893 -0.1797 -0.2821
36576SOL    HW116589   8.706  10.536   4.623  0.5910  1.0044 -1.1789
36576SOL    HW216590   8.806  10.527   4.737 -0.7535 -0.3753 -0.0665
36577SOL     OW16591   6.812   1.608   0.277 -0.5287 -0.1463 -0.3120
36577SOL    HW116592   6.876   1.663   0.232 -0.4900  1.6433  1.7552
36577SOL    HW216593   6.863   1.562   0.344 -1.2062  0.5263  0.6915
36578SOL     OW16594  12.337   2.154   0.124  0.2990  0.7281  0.1889
36578SOL    HW116595  12.386   2.095   0.067  0.1333  1.6884 -0.9988
36578SOL    HW216596  12.248   2.119   0.125  0.4947  0.2363  0.5405
36579SOL     OW16597   4.098   5.206   4.676  0.2127  0.2023 -0.1311
36579SOL    HW116598   4.136   5.283   4.635  1.0910  0.0382  0.3568
36579SOL    HW216599   4.166   5.139   4.669 -0.6671 -0.6573 -0.8883
36580SOL     OW16600   3.269   3.901  12.423  0.1371 -0.0570  0.1960
36580SOL    HW116601   3.189   3.951  12.440 -1.2951 -2.5780  1.3503
36580SOL    HW216602   3.324   3.961  12.372 -2.5344  1.7040 -0.8308
36581SOL     OW16603   3.321   3.228   5.592  0.0865  0.0877  0.5320
36581SOL    HW116604   3.364   3.269   5.517 -0.5439 -0.5084 -0.1689
36581SOL    HW216605   3.256   3.293   5.620 -0.8666 -0.3788 -0.5356
36582SOL     OW16606   3.632   7.993   5.979 -0.0528 -0.4032 -0.4797
36582SOL    HW116607   3.583   7.912   5.963 -2.4010  0.5864  1.2390
36582SOL    HW216608   3.674   7.979   6.064 -3.0015  1.1677  1.4045
36583SOL     OW16609   1.505   3.861   1.181 -0.3550  0.5769  0.2295
36583SOL    HW116610   1.581   3.916   1.161 -0.4579  1.0146  0.9693
36583SOL    HW216611   1.522   3.779   1.136 -1.3504  1.9827 -3.0101
36584SOL     OW16612   0.042   5.563  11.991  0.1539  0.1278  0.4010
36584SOL    HW116613   0.083   5.619  11.926  0.2545 -0.5116 -0.0973
36584SOL    HW216614   0.033   5.618  12.069 -2.3579  1.7555 -0.8898
36585SOL     OW16615   2.696  11.742  12.347  0.8444  0.8211  0.2084
36585SOL    HW116616   2.730  11.669  12.296  1.6900  0.1384  1.6958
36585SOL    HW216617   2.737  11.820  12.308  2.7109  0.1814  0.7987
36586SOL     OW16618   0.303   7.386   1.272 -0.0021  0.3770 -0.1516
36586SOL    HW116619   0.336   7.461   1.223  3.0941 -0.7408  0.0221
36586SOL    HW216620   0.257   7.424   1.347  1.4398  2.1197 -0.0976
36587SOL     OW16621  11.347  11.534   1.798  0.2441 -0.1257  0.1414
36587SOL    HW116622  11.317  11.591   1.727 -1.7386 -0.3800  0.7147
36587SOL    HW216623  11.305  11.450   1.779  2.3341 -1.1793 -0.1559
36588SOL     OW16624   2.406   1.038   3.075  0.4413  0.2529  0.4673
36588SOL    HW116625   2.459   0.960   3.090 -1.6023 -1.2328  0.5042
36588SOL    HW216626   2.318   1.004   3.059 -0.3384  2.5240 -0.5221
36589SOL     OW16627  10.706   8.643   1.603  0.1845 -0.5039  0.1664
36589SOL    HW116628  10.614   8.643   1.629  0.0013 -1.3433 -0.4533
36589SOL    HW216629  10.727   8.552   1.584  0.2983 -0.0143 -2.5485
36590SOL     OW16630   2.025   3.658   8.949 -0.5521  0.3473 -0.4320
36590SOL    HW116631   1.959   3.594   8.973  0.4924 -0.4798  0.2905
36590SOL    HW216632   2.006   3.734   9.004 -0.1245 -0.3645  0.7332
36591SOL     OW16633   4.996   2.416  10.577  0.0518  0.2240  0.2951
36591SOL    HW116634   4.954   2.392  10.660 -2.3464  1.3357 -0.4920
36591SOL    HW216635   4.956   2.358  10.513  0.6789  0.4561 -0.3156
36592SOL     OW16636  11.222   6.446   5.771  0.0338 -0.1864  0.3162
36592SOL    HW116637  11.160   6.503   5.725 -0.0683 -1.6225 -1.3947
36592SOL    HW216638  11.182   6.432   5.857 -1.3384 -0.0175 -0.2816
36593SOL     OW16639   7.109   2.593   5.735  0.1032 -0.0663  0.0768
36593SOL    HW116640   7.110   2.507   5.693  0.6963 -1.1354  2.1124
36593SOL    HW216641   7.142   2.576   5.824 -0.6076  2.1157  0.8188
36594SOL     OW16642   5.698   7.324  11.520 -0.4757 -0.3779 -0.4637
36594SOL    HW116643   5.745   7.295  11.443 -0.8256 -0.9985 -0.4477
36594SOL    HW216644   5.758   7.307  11.593 -0.3036 -0.1599 -0.5538
36595SOL     OW16645   3.769  10.982   9.525  0.3185  0.3343 -0.0206
36595SOL    HW116646   3.688  11.032   9.520  1.0950  1.7009  0.5105
36595SOL    HW216647   3.825  11.020   9.457  0.2030 -1.2534 -1.0714
36596SOL     OW16648   0.176   3.948   1.287 -0.1684 -0.8250 -0.2287
36596SOL    HW116649   0.084   3.931   1.305 -0.3137 -0.4111 -0.5675
36596SOL    HW216650   0.221   3.926   1.369 -0.7605  0.5937  0.5057
36597SOL     OW16651  11.514   1.649  10.851  0.5395  0.1818  0.0177
36597SOL    HW116652  11.428   1.609  10.863 -0.2104  1.9998  1.2248
36597SOL    HW216653  11.576   1.577  10.859 -0.8292 -1.0633 -0.1854
36598SOL     OW16654  11.717  11.473  11.895 -0.1782  0.1582  0.5531
36598SOL    HW116655  11.779  11.546  11.890 -0.8025  0.6464 -0.3654
36598SOL    HW216656  11.672  11.474  11.811 -0.1138 -1.3765  0.4688
36599SOL     OW16657   2.558   2.850   5.648 -0.4491  0.0035 -0.0921
36599SOL    HW116658   2.564   2.931   5.700 -3.1517 -1.2472  2.4871
36599SOL    HW216659   2.484   2.865   5.590 -0.4704 -0.3321 -0.1507
36600SOL     OW16660   9.438  10.342   0.526 -0.0972 -0.5359  0.0928
36600SOL    HW116661   9.444  10.285   0.449  2.7797 -2.4128  1.5545
36600SOL    HW216662   9.408  10.285   0.596  0.6990  0.2705  1.1169
36601SOL     OW16663   9.142  10.421   0.721 -0.1441  0.2984 -0.1060
36601SOL    HW116664   9.134  10.516   0.722  1.5918  0.4644  0.0709
36601SOL    HW216665   9.174  10.398   0.808 -1.5688 -0.5841  0.2237
36602SOL     OW16666   3.065   9.633  11.463 -0.0648 -0.7360  0.0785
36602SOL    HW116667   3.081   9.540  11.448  2.1692 -0.7281  1.8571
36602SOL    HW216668   3.086   9.675  11.380 -1.3525 -1.7892 -0.8294
36603SOL     OW16669   2.843   3.642   2.332  0.1174  0.2035 -0.2551
36603SOL    HW116670   2.884   3.702   2.269  1.2954 -1.8133 -1.5198
36603SOL    HW216671   2.916   3.587   2.362 -0.6005  0.4906  2.2046
36604SOL     OW16672   3.450   7.199   2.920 -0.2758 -0.0554 -0.7552
36604SOL    HW116673   3.390   7.131   2.949  1.7657 -0.6011  2.9021
36604SOL    HW216674   3.522   7.152   2.878 -0.4898  0.1858 -1.3931
36605SOL     OW16675   1.318   4.692   2.418 -0.7790  0.0636  0.3145
36605SOL    HW116676   1.362   4.651   2.344 -0.6314 -2.5604  1.7439
36605SOL    HW216677   1.307   4.784   2.392  1.5775 -0.1773 -1.8590
36606SOL     OW16678   3.459   8.760   4.130 -0.1431 -0.3533  0.1591
36606SOL    HW116679   3.448   8.831   4.066  2.4845 -0.0021 -0.0091
36606SOL    HW216680   3.473   8.682   4.076  1.1437 -0.2212  0.2732
36607SOL     OW16681   3.268  11.185   6.748 -0.6021 -0.4757  0.1241
36607SOL    HW116682   3.240  11.094   6.756  0.9780 -0.8919  1.3811
36607SOL    HW216683   3.353  11.188   6.792  0.8226  0.9512 -2.4845
36608SOL     OW16684  12.164   8.586   5.587  0.1062  0.8147 -0.3065
36608SOL    HW116685  12.250   8.568   5.623 -0.9494  0.6379  2.3628
36608SOL    HW216686  12.178   8.659   5.527  2.2838 -0.1146 -1.0393
36609SOL     OW16687   9.591  10.631   6.184  0.9022 -0.3335 -0.0141
36609SOL    HW116688   9.516  10.690   6.197  0.0115 -1.0627 -1.5285
36609SOL    HW216689   9.590  10.574   6.260  0.0798 -0.1369  0.1380
36610SOL     OW16690   0.425   4.910   1.216 -0.3958  0.7291  0.4870
36610SOL    HW116691   0.506   4.887   1.171 -0.5250 -0.0632  0.6443
36610SOL    HW216692   0.452   4.929   1.306 -0.2016  1.8556  0.2059
36611SOL     OW16693   4.319   5.488   2.420 -1.1729  0.1007 -0.1708
36611SOL    HW116694   4.270   5.538   2.486 -0.4887  3.0946 -1.7338
36611SOL    HW216695   4.271   5.502   2.339  0.5774  0.6395 -1.1761
36612SOL     OW16696   9.698   4.091   0.085  0.2188 -0.1820  0.6197
36612SOL    HW116697   9.667   4.036   0.013  0.7992 -0.1542  0.3435
36612SOL    HW216698   9.756   4.154   0.044  1.0663 -0.5689  1.1969
36613SOL     OW16699  10.732   8.126   7.440 -0.1143 -0.1743 -0.2870
36613SOL    HW116700  10.708   8.102   7.529 -1.1916 -0.3073 -0.5933
36613SOL    HW216701  10.735   8.043   7.392 -2.1530  0.0697 -0.9527
36614SOL     OW16702   0.616   9.143   0.565 -0.1232  0.0641  0.8123
36614SOL    HW116703   0.535   9.165   0.519  1.0519 -2.5546 -2.9647
36614SOL    HW216704   0.682   9.201   0.528  0.2797  0.3336  1.8987
36615SOL     OW16705   6.211   4.537   8.091  0.9089 -0.2853  0.3215
36615SOL    HW116706   6.242   4.517   8.003 -0.0113 -0.3987  0.0078
36615SOL    HW216707   6.184   4.629   8.086  0.6075 -0.3684  0.4081
36616SOL     OW16708   2.478  11.257   0.872 -0.0848 -0.2405 -0.2314
36616SOL    HW116709   2.444  11.169   0.855 -1.4336  0.4097 -1.0523
36616SOL    HW216710   2.465  11.304   0.790  0.6224  0.7396  0.1992
36617SOL     OW16711   7.200   1.642   5.700 -0.2472 -0.3508  0.1662
36617SOL    HW116712   7.192   1.730   5.663 -0.7317  0.2623  1.6598
36617SOL    HW216713   7.261   1.652   5.773 -0.7604 -1.1300  0.7247
36618SOL     OW16714  11.859   6.168   9.698  0.1124  0.1971 -0.2226
36618SOL    HW116715  11.850   6.143   9.790  0.9072  0.4140 -0.0720
36618SOL    HW216716  11.939   6.123   9.669 -1.5536 -2.0933 -1.5884
36619SOL     OW16717  10.756   0.218   9.012  0.1226  0.5679 -0.5094
36619SOL    HW116718  10.806   0.229   9.093  1.0049 -0.6438 -0.8706
36619SOL    HW216719  10.676   0.174   9.039  0.7652 -0.5626 -0.3702
36620SOL     OW16720   3.631   2.722   2.965  0.6570  0.8144  0.4900
36620SOL    HW116721   3.615   2.721   2.870 -0.5479 -1.3364  0.6762
36620SOL    HW216722   3.670   2.637   2.984 -0.5764  0.5916  2.1651
36621SOL     OW16723  10.145   6.382   0.654 -0.3391 -0.2729 -0.4059
36621SOL    HW116724  10.113   6.344   0.572 -0.5176  0.8297 -0.8797
36621SOL    HW216725  10.168   6.472   0.630  0.3163 -0.1650  0.5991
36622SOL     OW16726   8.503   6.800   9.109 -0.0400 -0.3451  0.7080
36622SOL    HW116727   8.553   6.880   9.091  1.2441 -1.1786  0.3839
36622SOL    HW216728   8.524   6.742   9.035 -0.1217 -1.3491  1.4554
36623SOL     OW16729   9.628   8.577   1.752  0.3134 -0.5674  0.3647
36623SOL    HW116730   9.609   8.565   1.845  0.4910 -1.6707  0.2783
36623SOL    HW216731   9.550   8.544   1.707 -0.8284  2.2123  0.1250
36624SOL     OW16732   2.444   6.428   1.658 -0.1083 -1.1638  0.3388
36624SOL    HW116733   2.364   6.435   1.710  0.0545  0.4007  0.4338
36624SOL    HW216734   2.427   6.484   1.582  1.0816 -0.3489  0.6480
36625SOL     OW16735   0.036  11.624   5.673  0.3666  0.2165 -0.9484
36625SOL    HW116736  -0.017  11.548   5.695  2.5364 -1.0940  0.0566
36625SOL    HW216737   0.038  11.625   5.577  0.1039 -0.8469 -0.9742
36626SOL     OW16738   3.101   1.587   1.412  0.3260  0.5150  0.0133
36626SOL    HW116739   3.044   1.543   1.348  1.0822  1.0792 -1.0820
36626SOL    HW216740   3.134   1.664   1.366  2.5081 -0.1388  0.3653
36627SOL     OW16741   0.133   6.587   3.859  0.3713  0.5055  0.1361
36627SOL    HW116742   0.049   6.575   3.814  0.2005 -1.4555  0.8989
36627SOL    HW216743   0.191   6.621   3.791 -0.3016 -0.8285 -1.1838
36628SOL     OW16744  11.363   1.458  11.933  0.2882  0.1974 -0.2642
36628SOL    HW116745  11.319   1.516  11.871  0.6034 -1.4240 -2.0868
36628SOL    HW216746  11.293   1.404  11.969  0.2704  0.2846 -0.1683
36629SOL     OW16747   3.145   2.944   4.270 -0.0950 -0.0820 -0.3649
36629SOL    HW116748   3.123   2.962   4.179 -0.1810  0.0188 -0.3247
36629SOL    HW216749   3.154   3.031   4.310 -0.4491 -0.1273 -0.1828
36630SOL     OW16750   8.486  10.210   9.319  0.8452 -0.1902 -0.6176
36630SOL    HW116751   8.561  10.175   9.272  0.3526  0.5678 -2.0238
36630SOL    HW216752   8.439  10.263   9.255 -0.3875  0.1171  0.4744
36631SOL     OW16753   3.873   1.562   2.742  0.4422 -0.2715 -0.0207
36631SOL    HW116754   3.813   1.560   2.668 -0.3786  2.6074  0.4305
36631SOL    HW216755   3.907   1.651   2.743  1.3970 -0.5821  2.3173
36632SOL     OW16756   0.032  10.411   6.756 -0.0373  0.1580 -0.3261
36632SOL    HW116757   0.035  10.473   6.684  0.2169  1.0049  0.3903
36632SOL    HW216758   0.104  10.350   6.739 -0.3979 -0.0619 -1.1243
36633SOL     OW16759   6.256   2.522   9.544  0.0046 -0.0716 -0.0838
36633SOL    HW116760   6.271   2.491   9.454  0.3664  0.1788 -0.1124
36633SOL    HW216761   6.297   2.609   9.546 -2.3762  1.1363 -0.4811
36634SOL     OW16762  10.099   6.174   4.733  0.0538 -0.0041 -0.1578
36634SOL    HW116763  10.152   6.254   4.739 -2.5656  1.8149  0.0669
36634SOL    HW216764  10.064   6.163   4.821 -1.0793 -0.3313 -0.6413
36635SOL     OW16765   7.009   3.176   5.737  0.3664  0.2941 -0.0287
36635SOL    HW116766   6.918   3.169   5.766  0.6398  0.5142  0.9203
36635SOL    HW216767   7.048   3.092   5.761  0.2437 -0.0712 -1.0801
36636SOL     OW16768   6.962   0.568   5.189  0.3538  0.1741  0.1337
36636SOL    HW116769   6.981   0.487   5.236 -0.8999  0.1165  0.5755
36636SOL    HW216770   6.998   0.637   5.245  2.5999 -0.0981 -0.8636
36637SOL     OW16771   8.444   5.732  11.881 -0.0463  0.2130  0.4382
36637SOL    HW116772   8.461   5.729  11.787 -0.6273 -0.0059  0.3367
36637SOL    HW216773   8.531   5.731  11.921  0.2139  0.7558 -0.1061
36638SOL     OW16774   3.151  10.486   0.542  0.8501  0.0763  0.3504
36638SOL    HW116775   3.227  10.453   0.493  1.0357 -0.5526  1.0355
36638SOL    HW216776   3.081  10.423   0.522  0.2021  1.1904 -1.0591
36639SOL     OW16777  11.088   8.908   5.828 -0.0853 -0.4127  0.2613
36639SOL    HW116778  11.138   8.990   5.821  0.0795 -0.6230 -1.6520
36639SOL    HW216779  11.104   8.863   5.745 -0.0508 -2.4898  1.3237
36640SOL     OW16780   1.593  11.531   0.783 -0.2024 -0.0990 -0.2765
36640SOL    HW116781   1.508  11.526   0.827 -0.1143  1.9812  0.2252
36640SOL    HW216782   1.579  11.588   0.708  0.4232 -1.0004 -1.1218
36641SOL     OW16783  10.497   6.399   2.576  0.1589  0.2409 -0.2120
36641SOL    HW116784  10.514   6.352   2.658  1.1009  0.3649 -0.3241
36641SOL    HW216785  10.453   6.335   2.520 -0.0531  0.0043  0.2244
36642SOL     OW16786  11.589   3.448   8.250  0.1770  0.2686 -0.3754
36642SOL    HW116787  11.566   3.517   8.188 -0.2351  0.0074 -0.5200
36642SOL    HW216788  11.656   3.487   8.307 -1.1667  1.3110  0.5507
36643SOL     OW16789  10.210   3.906   0.807  0.2368  0.4280 -0.0432
36643SOL    HW116790  10.123   3.940   0.789 -0.3342 -0.7309  0.3744
36643SOL    HW216791  10.234   3.945   0.891 -0.1637  0.2623  0.1547
36644SOL     OW16792   3.236   7.036   5.061 -0.1689  0.6872 -0.1309
36644SOL    HW116793   3.232   7.105   5.127  2.1640  1.3501 -0.5557
36644SOL    HW216794   3.251   6.956   5.111  1.1973  1.1279  0.2228
36645SOL     OW16795  10.503   4.306   1.208  0.3273 -0.0650  0.2943
36645SOL    HW116796  10.599   4.306   1.204  0.3371  1.6699 -0.2312
36645SOL    HW216797  10.476   4.284   1.119  0.2599  1.0583  0.0298
36646SOL     OW16798   9.514   7.785   3.710  0.0150 -0.3488  0.2347
36646SOL    HW116799   9.525   7.859   3.769  4.9663 -0.1719 -0.4856
36646SOL    HW216800   9.429   7.800   3.668 -0.6111  3.1545  2.3500
36647SOL     OW16801   4.242  11.636   9.447 -0.1930  0.2607  0.3208
36647SOL    HW116802   4.224  11.558   9.394  1.3119  0.9315 -1.2608
36647SOL    HW216803   4.170  11.696   9.426 -1.3659 -0.6704  1.5593
36648SOL     OW16804   1.664   4.685   3.883 -0.2724 -0.1547  0.3098
36648SOL    HW116805   1.649   4.729   3.967  0.1111  1.0117 -0.2304
36648SOL    HW216806   1.601   4.613   3.884 -0.0745 -0.3555  1.7310
36649SOL     OW16807   6.945  10.211   8.425  0.3047 -0.1316 -0.4121
36649SOL    HW116808   7.012  10.189   8.361  0.6230  0.5068 -0.2994
36649SOL    HW216809   6.985  10.192   8.509  0.0652 -0.4853 -0.3749
36650SOL     OW16810   8.382  10.321   7.414  0.7551 -0.9653 -0.3660
36650SOL    HW116811   8.316  10.281   7.358  0.7333  0.2462 -1.2431
36650SOL    HW216812   8.344  10.318   7.502 -0.6258  0.0032 -0.9000
36651SOL     OW16813   6.109   4.969   1.784 -0.1393 -0.0842 -0.2846
36651SOL    HW116814   6.066   4.903   1.729 -1.6261  0.7135 -0.1189
36651SOL    HW216815   6.085   4.945   1.874 -2.3407  1.7277 -0.3084
36652SOL     OW16816   8.086   1.040   6.697 -0.0819  0.4750  0.0769
36652SOL    HW116817   8.081   1.066   6.789  0.6060  0.7751  0.0328
36652SOL    HW216818   8.136   0.958   6.699 -1.6169 -0.5189  0.1430
36653SOL     OW16819   9.288  12.056   5.411  0.1559 -0.1090  0.4194
36653SOL    HW116820   9.370  12.048   5.459  1.3518 -0.1392 -1.5030
36653SOL    HW216821   9.310  12.112   5.336 -1.8001  0.5413  0.2676
36654SOL     OW16822   8.878   0.001  10.588  0.3042  0.1732  0.0845
36654SOL    HW116823   8.898  -0.057  10.662 -0.3740 -0.4201 -0.1915
36654SOL    HW216824   8.963   0.038  10.565  0.9741 -1.5955 -0.4595
36655SOL     OW16825   4.559   6.701   4.617 -0.3771  0.0555  0.2742
36655SOL    HW116826   4.633   6.707   4.556 -0.7284  1.8189 -0.0234
36655SOL    HW216827   4.482   6.701   4.561 -0.6528 -1.0660  0.6234
36656SOL     OW16828   3.377   5.731  11.193 -0.7251 -0.3473  0.2578
36656SOL    HW116829   3.464   5.753  11.160 -0.5381  1.2889  1.6989
36656SOL    HW216830   3.330   5.696  11.117  1.1699 -1.2684 -0.5520
36657SOL     OW16831   8.383   3.673  11.411  0.2433  0.3182  0.2075
36657SOL    HW116832   8.436   3.714  11.479  0.1270  0.4229  0.2355
36657SOL    HW216833   8.357   3.746  11.354  2.3046 -0.0468 -1.3171
36658SOL     OW16834   2.304   9.100   2.748 -0.4585 -0.0707 -0.4473
36658SOL    HW116835   2.271   9.189   2.749 -0.3399 -0.0305 -0.1860
36658SOL    HW216836   2.399   9.109   2.748 -0.4441 -0.2049  0.4602
36659SOL     OW16837   7.199  10.642  10.838  0.5969 -0.3804 -0.0146
36659SOL    HW116838   7.289  10.651  10.871  1.1128  1.8007 -1.7418
36659SOL    HW216839   7.199  10.693  10.756 -2.0589 -0.8645 -0.3902
36660SOL     OW16840   3.499  11.986   7.582  0.4848  0.4072 -0.0238
36660SOL    HW116841   3.581  12.035   7.576  0.5444  0.5087  1.3101
36660SOL    HW216842   3.476  11.989   7.675 -0.0286 -1.2587 -0.0647
36661SOL     OW16843   9.934   0.563   8.554  0.4459 -0.0993 -0.1055
36661SOL    HW116844   9.956   0.477   8.520 -2.8880 -0.6841 -1.0654
36661SOL    HW216845   9.850   0.584   8.515  0.0973  2.6509  1.8362
36662SOL     OW16846   3.796  10.727   5.748  0.3076  0.6864  0.5341
36662SOL    HW116847   3.780  10.822   5.741 -0.0601  0.5989  0.1587
36662SOL    HW216848   3.847  10.705   5.670  1.9450  0.8827  1.5059
36663SOL     OW16849   0.323   9.757   1.361 -0.1709  0.7869 -0.3937
36663SOL    HW116850   0.324   9.819   1.434 -0.1473  0.9803 -0.5601
36663SOL    HW216851   0.415   9.738   1.345  0.0151  2.8146 -2.1438
36664SOL     OW16852   8.034   7.867   3.120 -0.2768  0.2342  0.7227
36664SOL    HW116853   8.079   7.815   3.054 -2.2243 -0.1082 -0.3848
36664SOL    HW216854   7.996   7.941   3.072 -2.9547 -0.7700  1.1081
36665SOL     OW16855   6.513   8.673   5.685  0.5114  0.4915  0.3819
36665SOL    HW116856   6.418   8.660   5.681  0.4256  1.3817 -1.3575
36665SOL    HW216857   6.546   8.637   5.603  1.6335  0.5585  0.7901
36666SOL     OW16858   4.440   6.825   6.750 -0.0251 -0.0957  0.0273
36666SOL    HW116859   4.418   6.780   6.669 -1.2343  0.3417  0.0826
36666SOL    HW216860   4.378   6.897   6.755  2.1907  1.9542 -0.3350
36667SOL     OW16861   0.357   4.199   1.628 -0.0308  0.4763 -0.3380
36667SOL    HW116862   0.421   4.148   1.577  2.1543  1.2723  1.4396
36667SOL    HW216863   0.407   4.273   1.662 -1.4325  0.1839  2.6704
36668SOL     OW16864   6.643  11.886   4.609  0.2778 -0.8106  0.5257
36668SOL    HW116865   6.559  11.858   4.646 -0.0218 -0.9275 -0.2246
36668SOL    HW216866   6.628  11.889   4.515  0.4857  1.3038  0.5243
36669SOL     OW16867  10.588   3.942   4.528  0.6546  0.7172  0.0329
36669SOL    HW116868  10.615   4.022   4.572  0.3159  1.7346 -1.5176
36669SOL    HW216869  10.576   3.968   4.436 -0.2512 -0.9211 -0.3545
36670SOL     OW16870   3.358  11.830   6.617 -0.6724 -0.2380  0.3805
36670SOL    HW116871   3.347  11.827   6.712  0.7823 -1.1401  0.5482
36670SOL    HW216872   3.379  11.922   6.599  2.8470 -0.6519  1.4813
36671SOL     OW16873  10.523  11.327   3.274 -0.2125  0.5112 -0.0344
36671SOL    HW116874  10.613  11.306   3.301 -0.5274 -1.3635 -0.3657
36671SOL    HW216875  10.484  11.368   3.351  0.4754 -0.0420  0.6215
36672SOL     OW16876   9.881  11.751  12.260 -0.2868  0.1801  0.3836
36672SOL    HW116877   9.830  11.689  12.313  1.3593 -1.3084  0.3023
36672SOL    HW216878   9.844  11.744  12.172  1.0631 -2.1617 -0.0644
36673SOL     OW16879   1.834  10.254  12.328  0.4663 -0.5920 -0.4815
36673SOL    HW116880   1.830  10.169  12.283  0.6626 -0.4826 -0.7044
36673SOL    HW216881   1.815  10.318  12.260  0.3909 -0.4527 -0.3272
36674SOL     OW16882   3.520   2.518   4.208  0.2604 -1.0375  0.2382
36674SOL    HW116883   3.544   2.563   4.127 -0.0849 -1.1736  0.0563
36674SOL    HW216884   3.499   2.588   4.269  3.5713 -0.7459  1.2637
36675SOL     OW16885   5.112   3.823   2.923 -0.1243 -0.1355  0.2827
36675SOL    HW116886   5.075   3.910   2.908  1.1733  0.6934  1.6568
36675SOL    HW216887   5.160   3.803   2.843 -1.6119 -0.2517 -0.6206
36676SOL     OW16888   4.064   0.556  12.316 -0.5652  0.0105  0.1523
36676SOL    HW116889   4.105   0.521  12.395  1.6392 -0.3924 -1.0805
36676SOL    HW216890   4.116   0.519  12.244  0.5996  3.9966 -1.3204
36677SOL     OW16891   5.021   1.771   3.403 -0.3190  0.1566  1.0791
36677SOL    HW116892   4.982   1.856   3.385 -1.2999 -0.2300  1.2720
36677SOL    HW216893   5.017   1.725   3.319  1.9769  0.9362  0.4735
36678SOL     OW16894  11.476   5.253   8.636  0.1052 -0.3021  0.1241
36678SOL    HW116895  11.458   5.206   8.717 -0.7427 -1.7943 -0.8811
36678SOL    HW216896  11.407   5.226   8.576  0.3945  1.1926 -0.9428
36679SOL     OW16897   5.384   8.563   7.449  0.6457  0.2448 -0.0198
36679SOL    HW116898   5.370   8.484   7.502 -0.8848 -0.2653 -1.1189
36679SOL    HW216899   5.479   8.579   7.455  0.4694  0.6948  3.4924
36680SOL     OW16900   3.422  11.111  11.859  0.3208 -0.2630  0.3745
36680SOL    HW116901   3.432  11.054  11.783 -1.4252 -0.0177 -0.0991
36680SOL    HW216902   3.507  11.152  11.871  0.2554  0.9511 -2.4864
36681SOL     OW16903   1.624   1.226   0.255 -0.4679 -0.2853  0.1932
36681SOL    HW116904   1.551   1.267   0.207  0.3566 -0.8347 -1.5964
36681SOL    HW216905   1.683   1.299   0.275 -1.6985  0.2694  2.1851
36682SOL     OW16906   4.974  10.971   3.678  0.4615 -0.0011  0.1476
36682SOL    HW116907   5.021  11.008   3.753  1.2680 -0.1859 -0.2582
36682SOL    HW216908   5.026  10.996   3.603 -1.1318  1.5002 -0.5332
36683SOL     OW16909  10.759   0.546   1.748 -0.1005  0.1869 -0.1176
36683SOL    HW116910  10.665   0.560   1.753 -0.0056  0.5195  4.1033
36683SOL    HW216911  10.774   0.464   1.796  1.7066 -0.3942 -1.5424
36684SOL     OW16912   7.414  12.423  10.206  0.6422  0.2569 -0.6085
36684SOL    HW116913   7.353  12.471  10.262 -0.2713 -2.0339  0.5148
36684SOL    HW216914   7.501  12.446  10.238  0.2444  1.2166 -0.1978
36685SOL     OW16915   7.766  10.450  11.915  0.2512  0.1414  0.3293
36685SOL    HW116916   7.706  10.482  11.983  0.5171  0.8314  0.2409
36685SOL    HW216917   7.787  10.361  11.942 -0.2553  0.1410  0.7414
36686SOL     OW16918   1.647   6.964   0.040 -0.1199 -0.0576 -0.1598
36686SOL    HW116919   1.673   7.039  -0.014  0.0141 -0.1996 -0.2917
36686SOL    HW216920   1.570   6.995   0.088 -0.8496 -0.2629 -1.1695
36687SOL     OW16921  12.055   2.388  11.034 -0.4714 -0.3822  0.4092
36687SOL    HW116922  12.012   2.444  11.100 -0.9235 -0.0251 -0.1767
36687SOL    HW216923  12.061   2.444  10.956 -0.6546 -1.0564 -0.0902
36688SOL     OW16924   1.118   3.656   8.385  0.5261 -0.1771  0.7086
36688SOL    HW116925   1.130   3.562   8.371  1.6075 -0.0136  0.4189
36688SOL    HW216926   1.061   3.661   8.462 -0.1449 -1.0614  0.2980
36689SOL     OW16927   8.579   2.411   2.760  0.1223 -0.0460 -0.1006
36689SOL    HW116928   8.590   2.412   2.855  1.2886 -1.1944 -0.2047
36689SOL    HW216929   8.579   2.318   2.736 -3.1734  0.0512 -0.9287
36690SOL     OW16930   0.660   5.923   3.329 -0.3079 -0.1295 -0.1712
36690SOL    HW116931   0.681   5.903   3.238  1.8407 -1.3848  0.5186
36690SOL    HW216932   0.656   5.837   3.373 -1.5143  0.4311  0.8883
36691SOL     OW16933   1.021   4.255  11.194  0.2792  0.5401  0.4882
36691SOL    HW116934   0.963   4.181  11.214 -0.4285  1.0054  0.2044
36691SOL    HW216935   1.103   4.233  11.238  0.5172 -1.0311 -0.6606
36692SOL     OW16936   0.933   2.405   0.951  0.0082  0.6153 -0.5497
36692SOL    HW116937   0.920   2.318   0.988 -0.4572  1.4507  1.3948
36692SOL    HW216938   0.940   2.391   0.857  0.1438 -1.5264 -0.2629
36693SOL     OW16939   3.728   0.018   8.191  0.1420  0.5102 -0.3616
36693SOL    HW116940   3.750   0.111   8.197 -1.0009  0.7161  1.1807
36693SOL    HW216941   3.777  -0.023   8.263 -0.7802  0.2155  0.1037
36694SOL     OW16942   5.118  11.709   1.750  0.0635  0.1689  0.0660
36694SOL    HW116943   5.175  11.667   1.686  2.8454  0.0742  2.3821
36694SOL    HW216944   5.178  11.745   1.815 -2.5288  1.4306  1.9537
36695SOL     OW16945  12.233   9.465   7.774 -0.7188  0.6262  0.1123
36695SOL    HW116946  12.245   9.513   7.692  0.5276  1.1300  0.5608
36695SOL    HW216947  12.309   9.407   7.779 -2.3639 -1.7394 -0.5954
36696SOL     OW16948   0.463   3.161  12.127  0.2933 -0.3627 -0.7240
36696SOL    HW116949   0.463   3.210  12.209 -1.5816 -1.3188 -0.0925
36696SOL    HW216950   0.555   3.155  12.102  0.8197  0.6919  0.8435
36697SOL     OW16951   8.841  11.758  11.205  0.3032 -0.2260 -0.2712
36697SOL    HW116952   8.881  11.672  11.219 -0.6208 -0.7162 -0.5336
36697SOL    HW216953   8.753  11.749  11.242 -0.2099  0.2358 -1.3375
36698SOL     OW16954   6.739   6.512   4.641  0.1897  0.3598 -0.0265
36698SOL    HW116955   6.683   6.549   4.709  0.1416  0.4033 -0.0906
36698SOL    HW216956   6.827   6.537   4.667 -0.0032  3.0988 -1.6337
36699SOL     OW16957  11.148   4.679   7.998 -0.3379 -0.0236 -0.3449
36699SOL    HW116958  11.091   4.650   7.927  1.5304 -0.4218 -1.7811
36699SOL    HW216959  11.229   4.629   7.985  0.1812  0.1064  1.9226
36700SOL     OW16960   7.753  10.022   5.649  0.3331 -0.0651 -0.2235
36700SOL    HW116961   7.820  10.022   5.581  1.1197 -1.1900  0.5083
36700SOL    HW216962   7.670  10.033   5.602  0.9349  0.0579 -1.2719
36701SOL     OW16963  10.503   7.407   2.601 -0.0469 -0.4859 -0.2255
36701SOL    HW116964  10.500   7.317   2.569  2.3895 -0.8273  0.2719
36701SOL    HW216965  10.538   7.458   2.528 -1.1196  0.0383 -0.3989
36702SOL     OW16966   1.538  10.256   8.302 -0.1985 -0.0279 -0.1904
36702SOL    HW116967   1.452  10.264   8.344 -0.5526 -0.7101 -0.7614
36702SOL    HW216968   1.600  10.261   8.375 -0.7686 -0.5138  0.3520
36703SOL     OW16969   3.714   9.299   1.969  0.8126  0.5156 -0.2387
36703SOL    HW116970   3.754   9.331   1.888  0.8491  0.1132 -0.3832
36703SOL    HW216971   3.651   9.366   1.994  0.4714  0.4215 -0.8488
36704SOL     OW16972   8.720  11.955   0.724  0.1539 -0.5431 -0.1060
36704SOL    HW116973   8.750  12.021   0.787  2.1017 -1.0905 -0.3785
36704SOL    HW216974   8.723  11.873   0.773  0.0800 -0.7466 -0.4426
36705SOL     OW16975   2.432   3.033  10.095  0.0031 -0.1128  0.2712
36705SOL    HW116976   2.346   3.023  10.054 -0.1650 -0.6634  0.7349
36705SOL    HW216977   2.449   2.948  10.135  0.2019  0.3713  1.2473
36706SOL     OW16978  11.396   8.646   4.483 -0.2235  0.3137  0.2531
36706SOL    HW116979  11.454   8.673   4.554  0.2582  0.4951 -0.2079
36706SOL    HW216980  11.393   8.721   4.424  2.2440 -1.0124 -1.7747
36707SOL     OW16981   3.092   7.041   5.721 -0.0744 -0.3746  0.5905
36707SOL    HW116982   3.023   7.057   5.656 -0.1445 -2.9093 -0.0653
36707SOL    HW216983   3.125   7.129   5.742 -0.5729  0.6342 -2.3012
36708SOL     OW16984   3.965   5.455   4.419 -0.0171  0.1187 -0.3094
36708SOL    HW116985   3.940   5.421   4.506 -2.5972  1.3536 -0.5001
36708SOL    HW216986   4.045   5.406   4.398  2.5008  1.7694  3.9772
36709SOL     OW16987   2.722  10.855   6.846  0.2356 -0.3997 -0.2744
36709SOL    HW116988   2.643  10.874   6.796  0.4884 -1.0896 -0.9475
36709SOL    HW216989   2.705  10.771   6.887 -0.3659  0.6006  1.6413
36710SOL     OW16990   0.275   2.564   5.722  0.2412 -0.0573  0.2495
36710SOL    HW116991   0.247   2.638   5.776 -0.0809 -1.1606  1.6521
36710SOL    HW216992   0.193   2.519   5.699  0.5044 -0.5126  0.2040
36711SOL     OW16993   9.695  12.036   3.205  0.0433  0.5948  0.4143
36711SOL    HW116994   9.728  12.103   3.145  0.6039 -0.4365 -0.4623
36711SOL    HW216995   9.754  11.961   3.193 -1.0537 -0.3592  0.7565
36712SOL     OW16996   8.598   2.071   7.554  0.3277 -0.1580  0.2741
36712SOL    HW116997   8.597   2.163   7.581 -0.4758 -0.4259  1.2019
36712SOL    HW216998   8.554   2.024   7.625 -2.7089 -0.7734 -1.7737
36713SOL     OW16999   6.612   6.705   8.284  0.1516  0.1528  0.1699
36713SOL    HW117000   6.697   6.733   8.248 -0.8738  2.4359 -0.6839
36713SOL    HW217001   6.618   6.724   8.377  1.1977 -1.4812  0.4815
36714SOL     OW17002   9.258   0.435   1.717 -0.1375 -0.2361  0.0982
36714SOL    HW117003   9.231   0.365   1.778 -0.4593  1.2842  1.7836
36714SOL    HW217004   9.203   0.509   1.740  0.4113  0.6854 -1.4523
36715SOL     OW17005  10.590   4.120  10.405  0.3395  0.1873 -0.2317
36715SOL    HW117006  10.588   4.216  10.400 -0.4000  0.1883  0.0102
36715SOL    HW217007  10.499   4.094  10.401  0.5856 -0.5633 -1.1384
36716SOL     OW17008   3.572   6.282   5.521 -0.7163  0.2938 -0.1104
36716SOL    HW117009   3.549   6.278   5.614 -0.7186  1.8191 -0.0259
36716SOL    HW217010   3.512   6.221   5.480 -2.5783  1.5590  0.5716
36717SOL     OW17011   9.168   9.720   0.144 -0.0997  0.0258 -0.3071
36717SOL    HW117012   9.136   9.771   0.069 -0.3682 -0.7855 -0.7534
36717SOL    HW217013   9.121   9.636   0.138 -0.1694 -0.0308  0.8069
36718SOL     OW17014   6.028   5.243   1.869 -0.0025  0.1741 -0.5006
36718SOL    HW117015   5.984   5.177   1.815 -1.0902  0.3054  0.1995
36718SOL    HW217016   6.042   5.199   1.953 -1.4562  1.0520  0.2414
36719SOL     OW17017   3.505  12.044   3.042  0.1634  0.2657  0.8778
36719SOL    HW117018   3.583  12.044   3.098  1.6280  0.9862 -1.0371
36719SOL    HW217019   3.447  11.978   3.081  2.2691 -1.2408  1.6506
36720SOL     OW17020  11.349   5.942   2.548  0.3018 -0.1905 -0.8225
36720SOL    HW117021  11.261   5.975   2.565 -0.1073 -1.8507  0.5682
36720SOL    HW217022  11.336   5.867   2.489  0.8581  0.0057 -1.2066
36721SOL     OW17023   6.942   7.634   4.368  0.2428  0.3350 -0.0803
36721SOL    HW117024   6.896   7.702   4.320  1.8582  1.1796 -0.5187
36721SOL    HW217025   6.997   7.591   4.302  0.3841 -0.3790  0.4819
36722SOL     OW17026   1.466  11.075  11.553 -0.5374  0.2309  0.1518
36722SOL    HW117027   1.372  11.056  11.560 -0.5745  0.8738  1.6768
36722SOL    HW217028   1.482  11.077  11.459 -2.5695  2.4613 -0.2439
36723SOL     OW17029   8.644  11.481   6.402 -0.3953  0.3302  0.0389
36723SOL    HW117030   8.686  11.562   6.433 -0.6995  0.5755 -0.1785
36723SOL    HW217031   8.622  11.434   6.482 -0.6595  0.6947  0.1835
36724SOL     OW17032   1.818   9.837   1.966 -0.3904  0.0534 -0.2056
36724SOL    HW117033   1.910   9.843   1.994  0.5974 -0.7675 -2.9873
36724SOL    HW217034   1.796   9.925   1.935  0.4309 -0.3785 -2.1388
36725SOL     OW17035   9.738   8.483   0.054  0.1258 -0.1563  0.6817
36725SOL    HW117036   9.825   8.445   0.067  0.7013  1.3151  1.4476
36725SOL    HW217037   9.746   8.531  -0.028  0.0692  0.0372  0.7886
36726SOL     OW17038  12.471   6.894   0.303 -0.2409 -0.2579  0.1449
36726SOL    HW117039  12.505   6.955   0.237 -1.5497  0.3576  0.0077
36726SOL    HW217040  12.454   6.949   0.379 -1.3348 -0.4495  0.0579
36727SOL     OW17041   4.729   4.052   1.438  0.0509 -0.4893 -0.4745
36727SOL    HW117042   4.707   3.991   1.508  1.7446 -0.0197  0.5057
36727SOL    HW217043   4.737   3.996   1.360  0.2975 -1.3479  0.1463
36728SOL     OW17044   6.358   1.570   0.423 -0.5740 -0.0938  0.2667
36728SOL    HW117045   6.428   1.513   0.391 -0.0152  1.1742 -0.9150
36728SOL    HW217046   6.358   1.558   0.518  0.6185 -0.8219  0.1963
36729SOL     OW17047   9.332   6.737   6.679 -0.8908 -0.1310 -0.3238
36729SOL    HW117048   9.262   6.704   6.624 -1.2940 -1.5883  0.9982
36729SOL    HW217049   9.403   6.757   6.618 -1.8983 -0.0637 -1.5215
36730SOL     OW17050   2.238   0.367  12.470 -0.2105  0.0294  0.6897
36730SOL    HW117051   2.320   0.329  12.439 -1.3902 -2.4597  0.3125
36730SOL    HW217052   2.172   0.334  12.409 -1.8950 -0.6781  2.7339
36731SOL     OW17053  10.095   5.345   5.642  0.3391 -0.1867 -0.6373
36731SOL    HW117054  10.046   5.338   5.724  0.5799  2.8619 -0.1094
36731SOL    HW217055  10.154   5.270   5.642 -0.8907 -1.2042  1.1165
36732SOL     OW17056   3.763   8.239   5.325  0.1216 -0.2028 -0.3824
36732SOL    HW117057   3.823   8.313   5.319  0.8643 -0.6913  0.5942
36732SOL    HW217058   3.748   8.229   5.419  0.5443 -1.6713 -0.4446
36733SOL     OW17059   2.724  12.213  12.047  0.1259  0.3699  0.0823
36733SOL    HW117060   2.732  12.305  12.021 -0.0548  0.8086  1.5379
36733SOL    HW217061   2.737  12.165  11.965  1.3569  1.6365 -0.5188
36734SOL     OW17062   5.987   1.393   4.769 -0.4914  0.2010  0.3523
36734SOL    HW117063   5.970   1.344   4.850 -3.6390  1.5063  0.6036
36734SOL    HW217064   5.905   1.386   4.720 -0.0685  2.8284 -0.8665
36735SOL     OW17065   3.176   1.164  10.517  0.1130  0.4887 -0.2782
36735SOL    HW117066   3.219   1.198  10.438  2.6093 -0.9973  0.3372
36735SOL    HW217067   3.223   1.205  10.589  0.5201 -1.1240  0.4219
36736SOL     OW17068   3.708   5.757   7.822 -0.0984  0.0013  0.4059
36736SOL    HW117069   3.672   5.836   7.782 -1.5415 -1.3944 -1.1988
36736SOL    HW217070   3.646   5.736   7.893 -0.5291 -0.4649 -0.1001
36737SOL     OW17071   9.847   4.725  11.764 -0.2569  0.3770  0.0191
36737SOL    HW117072   9.822   4.765  11.681 -1.5459  1.3077  0.8107
36737SOL    HW217073   9.824   4.632  11.753  2.1368 -0.1204 -1.5916
36738SOL     OW17074   8.913   6.119   6.817  0.2224  0.1225  0.1167
36738SOL    HW117075   8.922   6.035   6.863  0.6327 -0.0719 -0.3050
36738SOL    HW217076   8.898   6.094   6.726 -1.1560  0.4971  0.2275
36739SOL     OW17077   4.809   0.541   1.249 -0.1598 -0.4577 -0.0894
36739SOL    HW117078   4.730   0.569   1.295 -0.4679  2.2240 -1.9821
36739SOL    HW217079   4.782   0.533   1.157  1.7700  0.9608 -0.8624
36740SOL     OW17080   3.185   9.065   1.436 -0.0283 -0.9309  0.0093
36740SOL    HW117081   3.208   9.130   1.502 -1.8226 -1.6646  1.4614
36740SOL    HW217082   3.264   9.012   1.425  0.0140 -1.4946  2.4705
36741SOL     OW17083   7.302   6.732   9.897 -0.1196 -0.0479 -0.1821
36741SOL    HW117084   7.297   6.814   9.946  0.5642 -0.4318  0.5575
36741SOL    HW217085   7.212   6.717   9.868 -0.7454 -0.2159  1.6560
36742SOL     OW17086   9.999  12.212  10.829  0.5380  0.0994 -0.1408
36742SOL    HW117087   9.955  12.261  10.759  1.0833  0.0953 -0.4926
36742SOL    HW217088  10.012  12.276  10.899  1.8456  0.6512 -0.8560
36743SOL     OW17089  11.490   4.490   9.546 -0.0498 -0.1120  0.5881
36743SOL    HW117090  11.491   4.413   9.489 -2.2209 -0.9195  1.5183
36743SOL    HW217091  11.447   4.557   9.493  0.1165 -0.1286  0.4319
36744SOL     OW17092   5.586   3.420  11.288  0.0933  0.1704 -0.1646
36744SOL    HW117093   5.532   3.496  11.309 -1.0223 -0.5492 -0.3638
36744SOL    HW217094   5.668   3.457  11.255  0.4353  1.3071  1.8159
36745SOL     OW17095   3.350   8.098   1.800  0.1058  0.1239  0.5758
36745SOL    HW117096   3.418   8.038   1.832  0.5796  0.9220  1.0760
36745SOL    HW217097   3.397   8.175   1.771 -0.4262 -0.1096 -0.9971
36746SOL     OW17098   6.593   9.909  10.285  0.1028  0.6753 -0.2615
36746SOL    HW117099   6.684   9.896  10.259  0.4814 -1.1198  1.6859
36746SOL    HW217100   6.548   9.830  10.255 -0.3797  0.6398  0.5403
36747SOL     OW17101   8.432   5.265   3.267  0.3128 -0.3537 -0.4445
36747SOL    HW117102   8.351   5.241   3.311  0.8826 -1.4276  0.0619
36747SOL    HW217103   8.476   5.181   3.250  1.7400  0.2457  0.1277
36748SOL     OW17104   7.019   8.282  11.203 -0.3973 -0.0443  0.1127
36748SOL    HW117105   6.929   8.290  11.170 -0.1947 -1.2434 -0.8095
36748SOL    HW217106   7.073   8.320  11.134 -0.1246 -0.5265  0.0533
36749SOL     OW17107   4.459   8.861   1.095  0.1605  0.2240  0.0062
36749SOL    HW117108   4.504   8.777   1.088 -0.8645 -0.6941  2.9141
36749SOL    HW217109   4.377   8.848   1.048  1.1330  0.5718 -1.8761
36750SOL     OW17110  10.923  10.708   6.537 -0.6052  0.0036  0.1680
36750SOL    HW117111  10.983  10.682   6.468 -0.4461 -0.0950  0.3418
36750SOL    HW217112  10.923  10.804   6.535 -0.5171  0.0023  0.1029
36751SOL     OW17113   5.796   3.101  11.869 -0.2548 -0.2182 -0.0501
36751SOL    HW117114   5.714   3.140  11.838 -0.6034 -0.3448  0.6797
36751SOL    HW217115   5.778   3.078  11.960  0.3875 -0.8342 -0.0679
36752SOL     OW17116  10.606   5.305   5.749  0.1028  0.4704  0.0407
36752SOL    HW117117  10.587   5.318   5.657 -2.0926 -0.5463  0.2973
36752SOL    HW217118  10.599   5.392   5.788  0.3001  0.7806 -0.6111
36753SOL     OW17119  10.225   6.275  12.090  0.2169 -0.5587 -0.1544
36753SOL    HW117120  10.292   6.332  12.053  0.4226 -0.9821 -0.4499
36753SOL    HW217121  10.207   6.211  12.020  0.5008 -1.2788  0.4187
36754SOL     OW17122  10.806   4.833   5.134  0.2710 -0.1154 -0.1089
36754SOL    HW117123  10.897   4.809   5.148  0.1469 -0.3263  0.3506
36754SOL    HW217124  10.774   4.771   5.069 -0.3923 -2.0543  1.9549
36755SOL     OW17125   6.619   1.097   6.341  0.3136  0.0360 -0.2179
36755SOL    HW117126   6.688   1.053   6.390 -0.2297 -0.7800 -0.1708
36755SOL    HW217127   6.553   1.029   6.326 -0.8278  0.9731  0.3996
36756SOL     OW17128   0.653   4.741   5.598  0.3882  0.1136 -0.2490
36756SOL    HW117129   0.567   4.744   5.640 -0.4874 -0.1464 -1.9462
36756SOL    HW217130   0.648   4.665   5.539  1.7557  0.1521 -0.4421
36757SOL     OW17131   7.098  11.381  10.395  0.5935 -0.2055 -0.2979
36757SOL    HW117132   7.163  11.315  10.368  0.4573 -0.1191 -0.8437
36757SOL    HW217133   7.019  11.357  10.347 -0.1488 -1.0396  1.2994
36758SOL     OW17134   5.746   1.164   4.456 -0.6704 -0.4713 -0.7563
36758SOL    HW117135   5.842   1.172   4.456 -0.6137 -1.1309 -0.7279
36758SOL    HW217136   5.721   1.179   4.365 -0.7482  1.9344 -0.4085
36759SOL     OW17137   5.436   4.804   9.594 -0.5107  0.2010 -0.1707
36759SOL    HW117138   5.489   4.878   9.566  1.4320 -0.8299  0.6178
36759SOL    HW217139   5.347   4.839   9.599 -0.1067  1.7683 -2.4135
36760SOL     OW17140   0.328  12.213   3.126 -0.0616  0.2520  0.4373
36760SOL    HW117141   0.373  12.294   3.150 -0.0557  0.4245 -0.1503
36760SOL    HW217142   0.257  12.241   3.068  0.9643 -0.3011 -1.1587
36761SOL     OW17143   0.885   4.619  12.242 -0.0812 -0.1877 -0.2283
36761SOL    HW117144   0.873   4.622  12.337  0.1220  1.4663 -0.2269
36761SOL    HW217145   0.962   4.563  12.229  0.7723  0.7254  0.6964
36762SOL     OW17146   3.238  11.707  10.844  0.1340 -0.3239 -0.2970
36762SOL    HW117147   3.171  11.681  10.781  1.1904 -1.0749 -1.1405
36762SOL    HW217148   3.256  11.799  10.822 -0.1891 -0.2991 -0.4664
36763SOL     OW17149   5.560  11.642   5.712  0.2429  0.5032 -0.1692
36763SOL    HW117150   5.500  11.579   5.752 -0.0533  0.2730 -0.9659
36763SOL    HW217151   5.543  11.636   5.619  2.0101 -0.0994 -0.4919
36764SOL     OW17152   7.972  11.961   4.878 -0.3690  0.3427  0.2780
36764SOL    HW117153   8.053  11.984   4.925 -0.2426  0.6503 -0.0868
36764SOL    HW217154   7.976  12.012   4.798 -0.7823  0.1219  0.1162
36765SOL     OW17155   5.605   6.761   5.695 -0.2420  0.3509  0.1467
36765SOL    HW117156   5.599   6.742   5.789 -0.2548 -1.5202 -0.1992
36765SOL    HW217157   5.688   6.808   5.686  0.3322 -0.4596  0.9644
36766SOL     OW17158   6.902   1.451   9.071  0.2012  0.0336 -0.0219
36766SOL    HW117159   6.833   1.506   9.109 -2.5092 -2.9953 -0.1720
36766SOL    HW217160   6.938   1.504   8.999 -0.7848  2.3584  1.0941
36767SOL     OW17161   1.673   3.996  10.686 -0.5679 -0.2507 -0.1986
36767SOL    HW117162   1.615   3.961  10.619  0.0096  0.1018 -0.8889
36767SOL    HW217163   1.756   3.950  10.673 -0.9035 -1.3649  1.3132
36768SOL     OW17164   1.146   5.428   1.458 -0.5096  0.1924  0.1630
36768SOL    HW117165   1.238   5.455   1.462 -0.3974 -0.1847  0.0859
36768SOL    HW217166   1.137   5.364   1.529 -1.2134  1.7373  1.5446
36769SOL     OW17167   6.327  11.152   7.313 -0.2684 -0.4956  0.1863
36769SOL    HW117168   6.234  11.157   7.287 -0.3297 -0.3715  0.4274
36769SOL    HW217169   6.337  11.064   7.349 -0.1180 -0.7665 -0.5062
36770SOL     OW17170  11.090   2.142  10.970 -0.0476  0.1234 -0.1451
36770SOL    HW117171  10.995   2.140  10.983  0.1142  0.6602  1.2895
36770SOL    HW217172  11.106   2.221  10.919 -0.4048 -0.2387 -0.8341
36771SOL     OW17173  10.896   9.642   1.649  0.0996 -0.1890  0.2986
36771SOL    HW117174  10.908   9.717   1.706  2.2544  0.5660 -1.0202
36771SOL    HW217175  10.846   9.579   1.701  0.3134  1.2035  2.2681
36772SOL     OW17176   8.963   7.464   1.899 -0.5789  0.1903  0.4577
36772SOL    HW117177   9.035   7.447   1.959 -0.2644  0.3367  0.1264
36772SOL    HW217178   9.000   7.451   1.812 -1.4374 -1.5955  0.3192
36773SOL     OW17179  10.566   6.033   0.449 -0.2083  0.0917  0.1500
36773SOL    HW117180  10.626   6.105   0.427 -1.9349  1.1274 -1.4015
36773SOL    HW217181  10.490   6.047   0.393 -1.3581 -1.9568  1.0996
36774SOL     OW17182   3.009  10.994   1.559  0.0025 -0.0533  0.3050
36774SOL    HW117183   3.075  10.934   1.524  0.9301  1.5805 -0.8568
36774SOL    HW217184   3.057  11.050   1.619 -0.3167  1.1156 -0.5088
36775SOL     OW17185   1.335   3.479   2.299 -0.9057 -0.7451 -0.1016
36775SOL    HW117186   1.378   3.536   2.362  0.6770  0.7079 -2.3355
36775SOL    HW217187   1.353   3.391   2.330  3.7949 -0.2782 -0.7667
36776SOL     OW17188   5.810   7.144   3.969 -0.2005  0.3279 -0.6149
36776SOL    HW117189   5.880   7.149   3.903 -0.9164 -0.6277 -1.4823
36776SOL    HW217190   5.737   7.192   3.930 -0.9023 -0.9328 -0.9037
36777SOL     OW17191   0.472   7.381  11.937  0.2660  0.1545  0.0451
36777SOL    HW117192   0.378   7.392  11.951 -0.0798  1.1972 -2.4868
36777SOL    HW217193   0.480   7.297  11.893  0.4932  0.1197  0.1542
36778SOL     OW17194  10.232   7.068   2.051 -0.2552  0.2224  0.4376
36778SOL    HW117195  10.311   7.021   2.026  0.9984  2.0314  0.7822
36778SOL    HW217196  10.213   7.124   1.976 -0.4974  0.6614  0.8219
36779SOL     OW17197   3.357  10.054  10.286  0.1756 -0.2379  0.0940
36779SOL    HW117198   3.433  10.112  10.284  0.1136 -0.0571  1.7169
36779SOL    HW217199   3.383   9.981  10.342 -0.5955 -0.5467  0.0627
36780SOL     OW17200   3.266   7.301   8.637  0.2700 -0.3707  0.2835
36780SOL    HW117201   3.305   7.345   8.561  1.3551  0.6930  1.4255
36780SOL    HW217202   3.210   7.233   8.598 -0.6218  1.2719 -1.5347
36781SOL     OW17203   3.201  12.079   3.166 -0.0216 -0.6958 -0.1368
36781SOL    HW117204   3.194  12.069   3.071  0.7558 -1.1940 -0.1497
36781SOL    HW217205   3.131  12.141   3.189 -0.1485 -0.4922 -1.0423
36782SOL     OW17206   4.975   0.260   6.995 -0.7214 -0.1400 -0.3571
36782SOL    HW117207   5.029   0.338   7.010 -1.1665 -0.3719  3.1456
36782SOL    HW217208   4.892   0.296   6.961 -1.0272  1.0089  1.4723
36783SOL     OW17209   0.851   9.441  10.544 -0.1957  0.1278  0.1489
36783SOL    HW117210   0.773   9.479  10.584  0.1635  0.5468  0.4640
36783SOL    HW217211   0.862   9.356  10.588 -0.2276  0.2587  0.4119
36784SOL     OW17212   5.966   6.327   9.487  0.0936  0.4779 -0.1689
36784SOL    HW117213   6.031   6.396   9.496  2.4576 -1.7045  0.4786
36784SOL    HW217214   5.931   6.338   9.398  1.5408  1.5538 -0.6274
36785SOL     OW17215   5.496   6.059   6.294  0.0380  0.0631 -0.5003
36785SOL    HW117216   5.491   6.099   6.207 -0.9774  0.9390 -0.0628
36785SOL    HW217217   5.531   6.128   6.350  0.0474 -0.2776 -0.0808
36786SOL     OW17218   2.680  12.475   1.238  0.5800  0.0592 -0.1155
36786SOL    HW117219   2.602  12.421   1.229  0.1086  0.6183  0.5643
36786SOL    HW217220   2.725  12.466   1.154  0.3107 -1.0659 -0.1575
36787SOL     OW17221   8.324   2.413   9.750 -0.2282 -0.1398 -0.5790
36787SOL    HW117222   8.303   2.442   9.661 -1.3208 -1.0925 -0.6601
36787SOL    HW217223   8.372   2.331   9.738  1.5971  0.8289 -0.3152
36788SOL     OW17224  12.302   9.369   0.781 -0.2885 -0.0271  0.0967
36788SOL    HW117225  12.240   9.385   0.711  2.3632  2.2663 -1.9542
36788SOL    HW217226  12.258   9.402   0.860 -1.8945  0.9738 -1.1422
36789SOL     OW17227   3.168   7.050  10.389  0.1938 -0.2289 -0.2665
36789SOL    HW117228   3.128   7.134  10.369  0.1297 -0.0947  0.4095
36789SOL    HW217229   3.222   7.066  10.466 -0.0882 -0.8869  0.0755
36790SOL     OW17230  11.299   1.222   3.394 -0.3356 -0.2238 -0.4467
36790SOL    HW117231  11.328   1.143   3.438 -0.3386 -0.0641 -0.1523
36790SOL    HW217232  11.203   1.221   3.403 -0.3524 -0.2970 -0.6327
36791SOL     OW17233  11.696   3.118   8.375  0.0847 -0.5773  0.0588
36791SOL    HW117234  11.771   3.124   8.434  1.0595 -1.5474 -1.0349
36791SOL    HW217235  11.652   3.202   8.384  0.3643 -0.5956  1.9352
36792SOL     OW17236   7.230   8.446   3.937 -0.0250  0.4818  0.2003
36792SOL    HW117237   7.165   8.511   3.910  0.1404  1.0708  1.1722
36792SOL    HW217238   7.178   8.368   3.958 -0.2415  0.3410 -0.8069
36793SOL     OW17239   8.162   2.291  12.480  0.4664 -0.0584  0.6643
36793SOL    HW117240   8.189   2.221  12.420 -1.0266  0.3368 -0.5488
36793SOL    HW217241   8.228   2.291  12.549  1.8221 -1.0585 -0.5769
36794SOL     OW17242  11.249  10.770   4.662 -0.5607  0.0805  0.0436
36794SOL    HW117243  11.266  10.843   4.602  0.2353 -0.3958 -0.3355
36794SOL    HW217244  11.276  10.693   4.613 -4.7727 -0.9416 -1.0198
36795SOL     OW17245   7.636   0.849   2.570  0.3551 -0.5863  0.3971
36795SOL    HW117246   7.544   0.829   2.591 -0.0198 -1.3211 -1.6861
36795SOL    HW217247   7.685   0.811   2.643 -0.9227 -1.1001  1.0399
36796SOL     OW17248   1.192   9.557   2.408  0.7092 -0.1768 -0.3167
36796SOL    HW117249   1.196   9.639   2.457  1.9471 -0.8823  0.8127
36796SOL    HW217250   1.109   9.517   2.435  1.2254 -0.4081  0.9994
36797SOL     OW17251   1.974   4.188   3.638 -0.5407  0.5545  0.3380
36797SOL    HW117252   2.035   4.155   3.571 -1.0951 -1.2988  0.6875
36797SOL    HW217253   2.028   4.240   3.696  0.3544  0.4544 -0.3805
36798SOL     OW17254   4.159   8.261   7.216 -0.3705  0.7438  0.3248
36798SOL    HW117255   4.085   8.290   7.162 -0.9282  0.4938  0.9365
36798SOL    HW217256   4.196   8.187   7.168 -0.7850  0.6002  0.2187
36799SOL     OW17257   4.271   7.419   1.775 -0.0180  0.2769 -0.3245
36799SOL    HW117258   4.350   7.421   1.721  1.2668  1.0925  1.5063
36799SOL    HW217259   4.273   7.334   1.818  0.8040  0.9466  1.0118
36800SOL     OW17260   3.468   3.496   7.196  0.0323  0.4288 -0.6533
36800SOL    HW117261   3.400   3.559   7.218  0.1752  0.5243 -0.4820
36800SOL    HW217262   3.422   3.412   7.191 -0.1332  0.5247 -0.7472
36801SOL     OW17263   2.033   5.653  10.527 -0.0105 -0.2507 -0.1609
36801SOL    HW117264   2.009   5.568  10.563 -1.0173  0.4832  1.0046
36801SOL    HW217265   2.044   5.638  10.433  0.8509 -1.8500  0.1667
36802SOL     OW17266  12.096   6.375  11.052 -0.7758  0.0680 -0.5066
36802SOL    HW117267  12.092   6.419  10.967  1.4209 -0.7258 -1.0845
36802SOL    HW217268  12.153   6.300  11.037  0.6176  0.5554  1.9374
36803SOL     OW17269   0.048   9.085   8.710 -0.1232 -0.8717 -0.2630
36803SOL    HW117270   0.008   9.022   8.769 -0.3908 -1.5425 -1.1428
36803SOL    HW217271   0.086   9.033   8.640  0.6421 -0.1213 -0.4231
36804SOL     OW17272   2.862   7.103   5.558  0.1723  0.9047 -0.0628
36804SOL    HW117273   2.817   7.133   5.637  0.3376  2.0184 -0.3796
36804SOL    HW217274   2.791   7.076   5.499  0.0083  0.9358  0.1167
36805SOL     OW17275   5.700  11.367  11.376 -0.6877  0.1802 -0.2053
36805SOL    HW117276   5.776  11.327  11.334 -0.5092  1.5264 -1.2143
36805SOL    HW217277   5.735  11.408  11.455 -0.4640  0.3194 -0.3756
36806SOL     OW17278   7.932   8.038   0.908  0.3866  0.3022  0.5572
36806SOL    HW117279   7.898   7.949   0.912  2.1653 -0.3876  1.0034
36806SOL    HW217280   7.918   8.065   0.817  0.5866 -0.7332  0.2058
36807SOL     OW17281   3.477   3.544   9.080 -0.6422 -0.2202 -0.2665
36807SOL    HW117282   3.546   3.605   9.054 -0.9287  1.0140  1.6127
36807SOL    HW217283   3.396   3.584   9.049 -0.5947 -1.5278 -2.2259
36808SOL     OW17284   2.626   4.815   6.030  0.1835  0.0950 -0.9214
36808SOL    HW117285   2.553   4.792   5.972  0.6124  0.7029 -1.7334
36808SOL    HW217286   2.600   4.898   6.070  0.3612  0.2548 -1.1266
36809SOL     OW17287   0.525   9.375   9.242 -0.0621  0.3317 -0.4950
36809SOL    HW117288   0.534   9.460   9.199 -0.2514  0.1888 -0.8203
36809SOL    HW217289   0.608   9.331   9.227 -0.1485  0.2602 -0.7627
36810SOL     OW17290   5.132   5.574  12.383  0.4926  0.0884 -0.2439
36810SOL    HW117291   5.077   5.564  12.306  0.7499 -0.7380 -0.3309
36810SOL    HW217292   5.189   5.648  12.363  0.2374  0.1796 -0.6452
36811SOL     OW17293   6.198   1.100  11.866 -0.1662  0.2071 -0.0042
36811SOL    HW117294   6.210   1.005  11.856 -0.6416  0.1075  0.3449
36811SOL    HW217295   6.129   1.109  11.931  0.2264  0.8029  0.3422
36812SOL     OW17296   6.039   2.582   8.208  0.8302  0.2801  0.0467
36812SOL    HW117297   5.944   2.585   8.194  0.6563  0.8725  1.2551
36812SOL    HW217298   6.076   2.601   8.122 -0.1693  3.1849  0.1598
36813SOL     OW17299   1.399  11.885   8.746 -0.0087 -0.0344 -0.7612
36813SOL    HW117300   1.483  11.924   8.718 -0.0092  0.8490  0.3834
36813SOL    HW217301   1.354  11.865   8.665  0.9746  0.2419 -1.3974
36814SOL     OW17302   9.750   2.984  10.078  0.4239  0.3768 -0.5381
36814SOL    HW117303   9.813   2.918  10.049  1.5952  0.6017  1.3819
36814SOL    HW217304   9.771   3.061  10.025  0.5060 -0.1121 -1.2313
36815SOL     OW17305  10.166   5.494   7.478 -0.3242 -0.2622  0.3213
36815SOL    HW117306  10.216   5.489   7.559  1.5884  0.7848 -0.7073
36815SOL    HW217307  10.124   5.579   7.481 -0.3747 -0.2859  0.2867
36816SOL     OW17308   9.052   5.164   1.872 -0.3329 -0.2424  0.0190
36816SOL    HW117309   8.958   5.178   1.886 -0.6763 -1.4698 -0.8483
36816SOL    HW217310   9.056   5.092   1.810  1.2130 -0.8120  0.7311
36817SOL     OW17311   5.438   2.325  12.002  0.0424  0.2079 -0.9022
36817SOL    HW117312   5.491   2.397  12.038  0.6017 -1.5653  2.1592
36817SOL    HW217313   5.349   2.361  11.999  0.2302  0.9374  0.9737
36818SOL     OW17314   5.641   7.676   1.370  0.4880 -0.0561  0.5256
36818SOL    HW117315   5.735   7.681   1.385  0.6620 -0.9838 -0.1129
36818SOL    HW217316   5.620   7.583   1.383 -0.3193  0.1282  0.5779
36819SOL     OW17317   8.816   0.894   5.021 -0.0456  0.8311 -0.4678
36819SOL    HW117318   8.851   0.808   5.000  1.6314  1.2120  0.5517
36819SOL    HW217319   8.887   0.938   5.069 -0.8473  2.7742 -0.9520
36820SOL     OW17320   4.658   2.956  10.820 -0.7940 -0.1220  0.1182
36820SOL    HW117321   4.569   2.960  10.854  0.0432 -0.0259  2.5603
36820SOL    HW217322   4.649   2.961  10.725 -3.2732  1.9148  0.3607
36821SOL     OW17323   5.162   2.628  10.549  0.1103 -0.3334 -0.3341
36821SOL    HW117324   5.185   2.634  10.456 -2.8514  0.5066 -1.1209
36821SOL    HW217325   5.107   2.550  10.555  0.0757 -0.2479  0.6829
36822SOL     OW17326   7.514   3.465  11.446  0.3813 -0.8132  0.0615
36822SOL    HW117327   7.516   3.526  11.520 -0.0336 -0.7657  0.0336
36822SOL    HW217328   7.592   3.489  11.395  0.2965 -0.3911  0.1193
36823SOL     OW17329   7.188   7.965  11.462 -0.0532  0.2494 -0.1278
36823SOL    HW117330   7.195   8.028  11.390 -2.8597 -0.3621 -1.0559
36823SOL    HW217331   7.244   7.892  11.435  0.6676  0.9520 -0.5984
36824SOL     OW17332   2.321  11.463   2.435  0.0911 -0.1970 -0.5257
36824SOL    HW117333   2.373  11.543   2.420 -0.4389 -0.0955 -2.0297
36824SOL    HW217334   2.322  11.451   2.530  1.9910  0.3736 -0.4275
36825SOL     OW17335  12.351   3.785   2.775 -0.4351 -0.4841 -0.3357
36825SOL    HW117336  12.363   3.856   2.712 -0.1914  0.3336  0.6174
36825SOL    HW217337  12.439   3.757   2.797 -0.5006 -0.2438  0.2320
36826SOL     OW17338   7.094   7.504   7.840 -0.0560 -0.3876 -0.4128
36826SOL    HW117339   7.140   7.525   7.759 -0.6320  2.2181 -0.1649
36826SOL    HW217340   7.004   7.487   7.812  0.0246 -0.7497 -0.4479
36827SOL     OW17341   5.614   6.921   2.068  0.7372  0.0753 -0.3214
36827SOL    HW117342   5.581   7.010   2.051  2.2823  1.2466  2.2532
36827SOL    HW217343   5.557   6.887   2.137  2.9081  0.9983  2.0854
36828SOL     OW17344  12.470   4.955   7.148 -0.5675  0.1558  0.3841
36828SOL    HW117345  12.535   4.926   7.212 -0.4128 -0.4132 -0.0275
36828SOL    HW217346  12.394   4.900   7.165 -0.1548 -0.7720 -0.6246
36829SOL     OW17347  10.085   0.378   8.160  0.3451 -0.4842 -0.0113
36829SOL    HW117348  10.180   0.388   8.146  0.3505 -2.2877 -1.7769
36829SOL    HW217349  10.046   0.412   8.079 -0.4241 -1.0480  0.1125
36830SOL     OW17350  11.670   7.886  11.727  0.0056  0.2053 -0.0045
36830SOL    HW117351  11.582   7.908  11.697  0.0477  1.0132  0.4406
36830SOL    HW217352  11.712   7.844  11.651  0.0796  2.0977 -1.0565
36831SOL     OW17353   9.229  11.055   0.102 -0.0682  0.3217 -0.0595
36831SOL    HW117354   9.194  10.967   0.089 -2.4649  0.4407  3.8630
36831SOL    HW217355   9.173  11.111   0.048 -0.5732 -0.2864 -0.1832
36832SOL     OW17356   3.886  12.389  10.400  0.0186  0.3484 -0.2354
36832SOL    HW117357   3.947  12.338  10.346  1.4125  1.7220 -0.0239
36832SOL    HW217358   3.888  12.476  10.361 -0.1346  0.9726  1.1204
36833SOL     OW17359   0.866   9.082   7.494 -0.5960 -0.0062 -0.3465
36833SOL    HW117360   0.874   9.057   7.586  0.4148 -0.2849 -0.4954
36833SOL    HW217361   0.908   9.010   7.446  0.3043  0.8662 -0.9251
36834SOL     OW17362   2.522  10.508   9.395 -0.0100 -0.2979 -1.0078
36834SOL    HW117363   2.444  10.561   9.379  0.4662  0.2631 -1.5152
36834SOL    HW217364   2.488  10.419   9.405 -0.7594  0.0028 -0.7516
36835SOL     OW17365   0.787  10.808  11.231 -0.0007  0.4895  0.6985
36835SOL    HW117366   0.709  10.860  11.211  0.0903  0.7713  1.0775
36835SOL    HW217367   0.860  10.860  11.196 -0.0928 -0.5330 -1.1581
36836SOL     OW17368   8.560   9.732   3.521  0.1430 -0.3483  0.2606
36836SOL    HW117369   8.494   9.665   3.500  0.3649 -0.7452  0.8079
36836SOL    HW217370   8.642   9.697   3.486  0.6989 -1.4419  2.4360
36837SOL     OW17371   8.687   3.865   1.557  0.7065 -0.0399 -0.2754
36837SOL    HW117372   8.743   3.862   1.480 -0.0379  0.7052 -0.8645
36837SOL    HW217373   8.745   3.895   1.627  1.5390 -1.3346 -0.3818
36838SOL     OW17374   5.130   5.294   9.936  0.0209 -0.0309 -0.2008
36838SOL    HW117375   5.128   5.344  10.017 -3.2777  0.2495 -0.3253
36838SOL    HW217376   5.099   5.207   9.960 -0.2760 -0.1657 -1.0385
36839SOL     OW17377   6.518   7.173   3.132 -0.2210  0.0220  0.3959
36839SOL    HW117378   6.440   7.217   3.096 -1.5615 -2.1940  0.4366
36839SOL    HW217379   6.535   7.220   3.214 -0.9260  1.1266 -0.0574
36840SOL     OW17380   0.425   7.940  10.794 -0.2699  0.0401 -0.5407
36840SOL    HW117381   0.496   8.002  10.778  0.2217 -0.3893 -0.0655
36840SOL    HW217382   0.427   7.882  10.719 -0.3740  0.2679 -0.7202
36841SOL     OW17383   1.294  10.901   2.730  0.4713 -0.1010 -0.2954
36841SOL    HW117384   1.304  10.983   2.681 -1.4294  0.0993 -0.4136
36841SOL    HW217385   1.303  10.832   2.663  0.8787  0.0419 -0.3936
36842SOL     OW17386   0.257   1.634  10.982  0.0840 -0.4153 -0.8033
36842SOL    HW117387   0.336   1.610  11.030  0.0026  0.5053 -0.1840
36842SOL    HW217388   0.248   1.566  10.915  0.1909 -1.7532  0.4801
36843SOL     OW17389   2.527  11.277   3.225 -0.0430 -0.6483  0.5105
36843SOL    HW117390   2.585  11.243   3.293 -1.2841 -0.7923  1.5460
36843SOL    HW217391   2.448  11.305   3.272 -0.8059 -0.4203 -0.8332
36844SOL     OW17392   0.674   6.665  10.759 -0.3131 -0.5738 -0.0386
36844SOL    HW117393   0.711   6.604  10.695  0.1697 -0.3824  0.0525
36844SOL    HW217394   0.720   6.645  10.841 -0.5154 -0.4285  0.1121
36845SOL     OW17395   6.085   3.295   3.943 -0.4834  0.3648 -0.0051
36845SOL    HW117396   6.164   3.348   3.954 -0.2710 -0.0510  0.5046
36845SOL    HW217397   6.103   3.238   3.869  0.0395 -0.3432  0.6581
36846SOL     OW17398  10.568   0.542  10.227 -0.0544  0.1178 -0.3285
36846SOL    HW117399  10.568   0.638  10.223 -0.0197  0.0846 -1.1817
36846SOL    HW217400  10.486   0.516  10.185  0.9714 -0.2929 -2.1788
36847SOL     OW17401   9.299  11.807   9.877 -0.5487 -0.4309  0.8658
36847SOL    HW117402   9.204  11.817   9.871 -0.3283  1.2946 -0.8421
36847SOL    HW217403   9.319  11.822   9.969 -1.8440  0.0785  1.0831
36848SOL     OW17404   5.580  10.125   3.638  0.1636 -0.1012  0.3189
36848SOL    HW117405   5.615  10.165   3.559  2.7938  0.4051  1.6423
36848SOL    HW217406   5.557  10.199   3.695 -0.5856 -0.4655  0.5105
36849SOL     OW17407  11.777  12.258   3.852 -0.6555 -0.4792  0.2607
36849SOL    HW117408  11.718  12.328   3.878 -0.4895 -0.3809  0.3770
36849SOL    HW217409  11.861  12.303   3.837 -1.0468 -0.3024 -1.7096
36850SOL     OW17410   0.967   5.895   3.616 -0.0621  0.1927  0.2232
36850SOL    HW117411   1.025   5.866   3.546 -1.1811 -2.5410  0.3040
36850SOL    HW217412   0.884   5.851   3.598 -0.7340  0.3592  2.5774
36851SOL     OW17413  11.586   3.914   2.943  0.2272 -0.4058 -0.0713
36851SOL    HW117414  11.638   3.985   2.903 -1.9162  1.5390  0.3811
36851SOL    HW217415  11.564   3.947   3.030 -0.1811 -2.0270  0.4700
36852SOL     OW17416  10.234   2.518   7.772  0.0622 -0.0668  0.7113
36852SOL    HW117417  10.180   2.563   7.837 -0.4998 -0.7382  0.7087
36852SOL    HW217418  10.174   2.460   7.726  0.6268 -0.2279  0.1659
36853SOL     OW17419   5.597   5.036   0.278 -0.3846  0.3264 -0.2469
36853SOL    HW117420   5.562   5.046   0.367 -0.4018  0.1386 -0.2317
36853SOL    HW217421   5.574   4.947   0.254  1.4932 -0.3744  0.3781
36854SOL     OW17422  11.392   3.968   2.742 -0.3480  0.7852 -0.2932
36854SOL    HW117423  11.430   3.883   2.718  1.9779  1.5804  0.3216
36854SOL    HW217424  11.420   3.982   2.832 -0.8852  2.1120 -0.3094
36855SOL     OW17425   1.280  10.129   3.679 -0.2456 -0.5685 -0.0912
36855SOL    HW117426   1.260  10.192   3.609 -0.5585  0.7853  1.1702
36855SOL    HW217427   1.227  10.157   3.753 -0.7805 -2.6516  0.3848
36856SOL     OW17428   7.052   7.846   5.677 -0.2176 -0.4850  0.7357
36856SOL    HW117429   6.981   7.866   5.616  0.1194  0.1527  0.5417
36856SOL    HW217430   7.126   7.823   5.621  0.5416  1.5514  0.8023
36857SOL     OW17431   3.991   7.900  11.263  0.1300 -0.3549  0.0865
36857SOL    HW117432   4.009   7.813  11.299  0.0983 -0.6571 -0.6087
36857SOL    HW217433   4.076   7.930  11.228 -0.3067 -1.0833 -1.7111
36858SOL     OW17434   3.695   9.955   7.402 -0.1968  0.0201 -0.4633
36858SOL    HW117435   3.627   9.948   7.468 -0.1526  1.0196 -0.2889
36858SOL    HW217436   3.719  10.048   7.402  1.6630 -0.4042 -0.0034
36859SOL     OW17437  11.425   8.729   2.451  0.2132  0.3300 -0.4529
36859SOL    HW117438  11.480   8.654   2.428  1.1344  0.5171  1.0573
36859SOL    HW217439  11.342   8.713   2.405  1.1082 -0.5273 -1.8517
36860SOL     OW17440  10.854   3.830  12.478  0.0694 -0.3989 -0.0576
36860SOL    HW117441  10.763   3.842  12.454  0.2488 -0.3147 -0.7275
36860SOL    HW217442  10.903   3.870  12.406  0.6441 -1.6988 -0.4221
36861SOL     OW17443  10.141   3.303   3.918 -0.2187  0.3439  0.0768
36861SOL    HW117444  10.218   3.313   3.861 -0.4191 -1.5344 -0.6043
36861SOL    HW217445  10.159   3.223   3.968 -0.1832  1.8114  2.5114
36862SOL     OW17446   1.416   3.690   8.069  0.1387 -0.2026  0.0433
36862SOL    HW117447   1.408   3.611   8.122  0.8922 -0.1715  0.2205
36862SOL    HW217448   1.510   3.700   8.056  0.0182  0.3754 -0.4181
36863SOL     OW17449   6.556  10.365  11.150  0.3983 -0.0921  0.2615
36863SOL    HW117450   6.619  10.436  11.163 -1.4271  2.0391 -1.7908
36863SOL    HW217451   6.481  10.406  11.109 -0.5064 -3.3647 -1.7049
36864SOL     OW17452  11.215   5.439   4.644 -0.0540  0.1254 -0.1019
36864SOL    HW117453  11.309   5.424   4.658  0.0739  1.3447  0.4694
36864SOL    HW217454  11.191   5.375   4.576  1.3344  0.2379 -0.7459
36865SOL     OW17455   1.385   9.145   1.832  0.3623  0.2737 -0.5019
36865SOL    HW117456   1.350   9.203   1.900 -1.0643 -0.5982 -0.4708
36865SOL    HW217457   1.322   9.149   1.761  0.7040 -0.5645 -0.8643
36866SOL     OW17458   9.068   1.645  10.882  0.2261  0.1162  0.6055
36866SOL    HW117459   9.060   1.710  10.951  0.9850  1.1213 -0.2206
36866SOL    HW217460   9.138   1.587  10.911  0.2212  0.2544  0.8936
36867SOL     OW17461  12.188   4.229   7.182  0.3650 -0.0209 -0.3331
36867SOL    HW117462  12.106   4.235   7.230 -0.0513 -0.6290 -0.9567
36867SOL    HW217463  12.255   4.248   7.247 -0.1699 -1.1311  0.5768
36868SOL     OW17464  10.227   9.304   7.730 -0.1145 -0.2520  0.0384
36868SOL    HW117465  10.171   9.373   7.696  0.0070  0.3347  0.9982
36868SOL    HW217466  10.172   9.257   7.793  0.3762  0.1690  0.7987
36869SOL     OW17467   3.514   5.611   9.613  0.0871 -0.2579 -0.2276
36869SOL    HW117468   3.589   5.668   9.599  0.3880 -0.0201  2.0400
36869SOL    HW217469   3.546   5.523   9.594  0.4320  0.0115 -0.9210
36870SOL     OW17470   4.141  11.159   0.846  0.2819 -0.3822  0.1855
36870SOL    HW117471   4.234  11.138   0.842  0.0896 -1.3676  0.5581
36870SOL    HW217472   4.129  11.228   0.781  1.6502  1.2836  1.5979
36871SOL     OW17473   8.688   7.371  10.682 -0.3556  0.2118  0.5023
36871SOL    HW117474   8.617   7.360  10.618 -1.0305 -0.9932  1.4189
36871SOL    HW217475   8.723   7.282  10.694 -0.4862  0.3472  2.0823
36872SOL     OW17476   9.304   0.812   5.961  0.3955 -0.4833 -0.4220
36872SOL    HW117477   9.299   0.908   5.962 -1.1277 -0.5391  0.9731
36872SOL    HW217478   9.223   0.785   5.918 -1.1118 -1.1566  2.5709
36873SOL     OW17479   8.892   7.287  11.063  0.2516 -0.5268  0.9686
36873SOL    HW117480   8.813   7.251  11.022  0.4590 -0.3839  0.4299
36873SOL    HW217481   8.860   7.358  11.119 -0.0430 -0.7447  1.0767
36874SOL     OW17482   1.007   3.064   4.897  0.0730  0.4543  0.5547
36874SOL    HW117483   1.040   3.021   4.818  0.3258 -0.9093  1.3800
36874SOL    HW217484   1.051   3.149   4.898 -0.5491  0.8353 -1.1856
36875SOL     OW17485   7.551   3.997  10.554  0.0026  0.4096  0.1182
36875SOL    HW117486   7.495   4.026  10.626 -1.7432  0.0994 -1.0712
36875SOL    HW217487   7.556   4.071  10.495 -0.9551 -0.2554 -0.8308
36876SOL     OW17488   8.442  12.324   7.531 -0.3499  0.3192  0.0497
36876SOL    HW117489   8.376  12.373   7.579 -0.8238  0.2996 -0.5747
36876SOL    HW217490   8.522  12.335   7.583 -0.0421  3.0429 -0.8574
36877SOL     OW17491   6.623   2.166   5.570 -0.3610 -0.4394  0.0682
36877SOL    HW117492   6.572   2.150   5.491 -1.0338 -0.5010  0.5013
36877SOL    HW217493   6.636   2.261   5.571  0.2424 -0.5135 -0.4676
36878SOL     OW17494   9.622  11.663  12.136  0.0993 -0.6483 -0.3236
36878SOL    HW117495   9.608  11.754  12.159  0.0999 -1.0333  1.3404
36878SOL    HW217496   9.598  11.614  12.215  0.2405 -2.0769 -1.1223
36879SOL     OW17497   4.191   3.392   3.142 -0.1100 -0.9105 -0.2191
36879SOL    HW117498   4.181   3.321   3.205  1.4489 -0.1604  0.9357
36879SOL    HW217499   4.106   3.436   3.141 -1.1515 -2.8206 -1.0667
36880SOL     OW17500   5.154   1.954   7.881  0.5928 -0.4486 -0.1623
36880SOL    HW117501   5.238   1.992   7.853  0.6139 -1.0786 -1.0247
36880SOL    HW217502   5.158   1.864   7.849 -1.7672  0.3751 -3.3415
36881SOL     OW17503   2.515   1.958   2.026  0.1226 -0.5229 -0.8711
36881SOL    HW117504   2.519   1.863   2.018 -0.4717 -0.6038 -0.2596
36881SOL    HW217505   2.597   1.989   1.987  0.9808 -1.3602  0.2051
36882SOL     OW17506  11.188   4.391  10.383 -0.1317  0.0133  0.3963
36882SOL    HW117507  11.162   4.422  10.296  0.1804  0.9022  0.6058
36882SOL    HW217508  11.259   4.329  10.367 -1.1712 -1.0914 -0.0711
36883SOL     OW17509   6.154   0.734   2.033 -0.0064  0.3619  0.0582
36883SOL    HW117510   6.186   0.824   2.034 -0.3401  0.5001  2.0440
36883SOL    HW217511   6.221   0.684   2.080  0.2071 -0.4692 -1.0814
36884SOL     OW17512   8.595   0.611  12.017  0.4243  0.3062 -0.3322
36884SOL    HW117513   8.662   0.542  12.013 -0.2092 -0.3155 -0.4428
36884SOL    HW217514   8.627   0.679  11.958  1.6567  0.6556  0.6997
36885SOL     OW17515   5.734   6.938   9.735  0.1113 -0.8609  0.1739
36885SOL    HW117516   5.767   6.929   9.824 -0.2307  1.1038  0.5457
36885SOL    HW217517   5.769   7.022   9.705 -1.5429 -0.4454 -0.7297
36886SOL     OW17518   4.284   7.981  11.248  0.0811  0.3040  0.3092
36886SOL    HW117519   4.327   8.065  11.234  2.2008 -0.6707  0.6092
36886SOL    HW217520   4.300   7.931  11.168  1.5721 -0.8840  1.2901
36887SOL     OW17521  11.773  10.011   2.542 -0.6868 -0.6912  0.0824
36887SOL    HW117522  11.796  10.074   2.474 -1.3571 -2.2650 -1.7040
36887SOL    HW217523  11.680   9.995   2.529 -0.2483 -3.1358 -0.5810
36888SOL     OW17524   5.530   9.850  11.324 -0.1200  0.1295  0.0046
36888SOL    HW117525   5.479   9.827  11.246 -0.4957 -1.3505  0.6507
36888SOL    HW217526   5.561   9.766  11.358 -0.4884  0.6721  1.8003
36889SOL     OW17527   1.179   4.777   0.754 -0.0514  0.0907 -0.1360
36889SOL    HW117528   1.203   4.766   0.846 -0.1563  1.3458  0.0553
36889SOL    HW217529   1.119   4.851   0.753  1.1287  1.0990 -1.3842
36890SOL     OW17530   3.610   7.507   7.182 -0.5932 -0.9666  0.1768
36890SOL    HW117531   3.548   7.446   7.223  0.0708 -0.3088  2.2789
36890SOL    HW217532   3.695   7.465   7.193 -0.4654 -1.2251 -1.4779
36891SOL     OW17533   3.704   9.503   3.133  0.1215 -0.0888  0.0860
36891SOL    HW117534   3.622   9.467   3.100 -0.7621 -0.4720  2.4617
36891SOL    HW217535   3.682   9.536   3.221  2.4333  0.1105  0.6602
36892SOL     OW17536  11.169   2.286   6.277  0.0292 -0.1490  0.0141
36892SOL    HW117537  11.261   2.292   6.301  0.5326  0.8672 -2.0258
36892SOL    HW217538  11.148   2.192   6.285  1.7931 -0.7152 -1.3775
36893SOL     OW17539   9.532  12.339   3.672  0.1078  0.3891 -0.0157
36893SOL    HW117540   9.437  12.330   3.677 -0.0498  1.9022  0.0348
36893SOL    HW217541   9.558  12.375   3.757  0.8005 -0.4736  0.1567
36894SOL     OW17542   7.156   8.527   7.221  0.7506 -0.1672 -0.4522
36894SOL    HW117543   7.248   8.525   7.247  0.4918  0.2226  0.5421
36894SOL    HW217544   7.152   8.593   7.152  1.5857 -1.7552 -2.1063
36895SOL     OW17545   2.359   2.505  10.581 -0.1781 -0.2290 -0.0177
36895SOL    HW117546   2.311   2.428  10.549 -0.0060 -0.2355 -0.2658
36895SOL    HW217547   2.336   2.511  10.673  0.0037 -0.7336  0.0669
36896SOL     OW17548   2.926   1.213   8.374 -0.0181 -0.1001 -0.2607
36896SOL    HW117549   2.889   1.244   8.291  1.2354 -1.1442 -1.2535
36896SOL    HW217550   3.004   1.164   8.349 -0.7395 -2.2346  1.3623
36897SOL     OW17551  10.120   1.901   8.279  0.1547  0.5781  0.5863
36897SOL    HW117552  10.108   1.920   8.186  0.1751 -1.0009  0.2271
36897SOL    HW217553  10.035   1.867   8.307  0.2165  0.8353  1.0900
36898SOL     OW17554   9.099   1.261   6.882 -0.2833 -0.3003  0.2580
36898SOL    HW117555   9.115   1.355   6.876 -0.8180 -0.3045 -1.6343
36898SOL    HW217556   9.037   1.242   6.812  0.2777 -2.1663  0.2158
36899SOL     OW17557   5.089   2.671   4.915 -0.2646 -0.3704 -0.6905
36899SOL    HW117558   5.068   2.580   4.937 -1.3664 -0.2327 -1.1309
36899SOL    HW217559   5.173   2.666   4.870  0.6243 -0.9637  0.9499
36900SOL     OW17560  11.948   2.234   3.876 -0.3965  0.2962  0.8043
36900SOL    HW117561  11.976   2.217   3.966 -1.7561 -0.1094  1.1676
36900SOL    HW217562  11.886   2.164   3.856  0.1898  0.1501 -0.6079
36901SOL     OW17563  11.724   2.673   0.078  0.5057  0.2593 -0.0535
36901SOL    HW117564  11.635   2.699   0.053 -0.1683 -0.4687  1.4628
36901SOL    HW217565  11.741   2.593   0.028  0.4033  0.5227 -0.5138
36902SOL     OW17566  11.126   0.160   5.575  0.0233 -0.3090  0.1302
36902SOL    HW117567  11.121   0.214   5.497 -0.8375 -1.2006 -0.4507
36902SOL    HW217568  11.053   0.190   5.630 -1.3660 -1.8037 -0.8252
36903SOL     OW17569   4.298   3.541   0.552 -0.5803  0.2337  0.1274
36903SOL    HW117570   4.240   3.514   0.481 -0.7495 -0.2394  0.4403
36903SOL    HW217571   4.374   3.483   0.544  0.0062  1.0520 -0.4711
36904SOL     OW17572   6.309   3.188   1.895 -0.0020  0.1208  0.2360
36904SOL    HW117573   6.288   3.252   1.827 -0.7439 -1.2833 -0.9194
36904SOL    HW217574   6.386   3.142   1.863  0.0938 -0.0566  0.7054
36905SOL     OW17575   5.933   9.000   9.408  0.3104 -0.3323 -0.8989
36905SOL    HW117576   6.012   8.949   9.391  0.5810  0.0083 -0.6745
36905SOL    HW217577   5.958   9.061   9.477  0.2053  0.6238 -1.6940
36906SOL     OW17578   8.564   6.890   2.555 -0.1387  0.8263 -0.0035
36906SOL    HW117579   8.612   6.861   2.633 -0.1918  0.9498  0.0741
36906SOL    HW217580   8.540   6.808   2.511 -1.6889  0.6684  1.0412
36907SOL     OW17581  11.980   7.834   7.113  0.1478  0.1516  0.6756
36907SOL    HW117582  11.950   7.851   7.203 -1.1156 -1.4916  0.6004
36907SOL    HW217583  11.918   7.882   7.058 -1.2413 -1.6611  0.5920
36908SOL     OW17584   5.492  10.381  10.058 -0.2474 -0.1333  0.0096
36908SOL    HW117585   5.552  10.400  10.130  0.6307  0.1492 -0.7854
36908SOL    HW217586   5.419  10.335  10.099  0.3365 -0.1508  1.0450
36909SOL     OW17587  10.904  11.951   7.130 -0.2576  0.9621 -0.4953
36909SOL    HW117588  10.977  11.902   7.093  0.1004  0.7776  0.4310
36909SOL    HW217589  10.904  12.034   7.082  2.2094  2.0695  1.2088
36910SOL     OW17590   1.406  11.140   8.110 -0.2957 -0.3506 -0.2876
36910SOL    HW117591   1.472  11.189   8.063 -0.7769  0.3432 -0.2487
36910SOL    HW217592   1.355  11.096   8.041  0.2628 -0.9691 -0.3116
36911SOL     OW17593   3.153   7.885   2.835 -0.0505 -0.4139  0.1116
36911SOL    HW117594   3.151   7.852   2.925 -1.6349 -1.4638 -0.2485
36911SOL    HW217595   3.182   7.976   2.843  0.9799 -0.8330  1.5414
36912SOL     OW17596   8.303   3.262  11.045 -0.3580 -0.8800 -0.2043
36912SOL    HW117597   8.330   3.189  10.990 -1.1452 -0.7932 -0.7112
36912SOL    HW217598   8.272   3.328  10.983  1.4185  0.3703  0.1458
36913SOL     OW17599   3.586   8.330   8.814  0.0563  0.0536 -0.1605
36913SOL    HW117600   3.667   8.284   8.833  1.1775  1.3031 -1.6270
36913SOL    HW217601   3.606   8.422   8.834 -1.5767  0.1711  1.1146
36914SOL     OW17602  12.338   6.409   5.749  0.2027 -0.4336 -0.2947
36914SOL    HW117603  12.307   6.344   5.688  0.2261 -1.1076  0.3959
36914SOL    HW217604  12.406   6.457   5.701 -1.5316  0.7616 -1.6566
36915SOL     OW17605   0.570   9.941   0.988 -0.7651 -0.6929 -0.3907
36915SOL    HW117606   0.545   9.982   0.905 -1.9955  1.2641  0.8598
36915SOL    HW217607   0.492   9.896   1.018 -0.7435 -0.2988  0.2950
36916SOL     OW17608   7.198   7.759   7.933 -0.3814  0.1462 -0.0956
36916SOL    HW117609   7.186   7.669   7.902  0.7301  0.2842 -1.0088
36916SOL    HW217610   7.196   7.752   8.028 -4.7777 -0.1738 -0.0359
36917SOL     OW17611   6.167   5.327   5.900 -0.4496  0.6173 -0.0829
36917SOL    HW117612   6.101   5.322   5.969 -0.6875 -0.3380 -0.3679
36917SOL    HW217613   6.251   5.320   5.946 -0.6302 -1.3066  0.0299
36918SOL     OW17614  12.306  10.950   5.846 -0.0100  0.0160  0.5741
36918SOL    HW117615  12.305  10.999   5.764  1.5166  0.8317  0.9869
36918SOL    HW217616  12.289  10.859   5.821  1.9325 -0.0139 -0.8912
36919SOL     OW17617  11.308   2.848   1.061  0.2082 -0.0370  0.3078
36919SOL    HW117618  11.393   2.886   1.037 -0.4794  2.0083  0.8778
36919SOL    HW217619  11.244   2.911   1.027 -1.0955 -1.4793  0.0038
36920SOL     OW17620  12.436   7.249  11.139 -0.2235 -0.0824  0.3076
36920SOL    HW117621  12.528   7.242  11.166 -0.3235  1.9200  1.4076
36920SOL    HW217622  12.396   7.303  11.207 -1.6910  0.9859 -1.3267
36921SOL     OW17623   1.517   6.892  12.134 -0.0404  0.4833 -0.2226
36921SOL    HW117624   1.573   6.892  12.057 -1.2710  0.6478 -1.1412
36921SOL    HW217625   1.521   6.981  12.167  0.4070  0.4363 -0.1365
36922SOL     OW17626   8.184  11.940   6.403 -0.1111  0.4381  0.5308
36922SOL    HW117627   8.158  11.995   6.477 -1.1776 -0.2568  0.7020
36922SOL    HW217628   8.166  11.994   6.326  0.7592  1.0678  0.7582
36923SOL     OW17629   2.327  10.709  11.403 -0.0462  0.4529  0.1896
36923SOL    HW117630   2.342  10.631  11.349  0.1272  1.0836 -0.6922
36923SOL    HW217631   2.272  10.678  11.475  1.1912 -0.7905  0.6501
36924SOL     OW17632   9.051   8.740   0.694  0.0314 -0.2748  0.2780
36924SOL    HW117633   9.102   8.664   0.665 -1.0585 -0.9751  0.1198
36924SOL    HW217634   9.114   8.812   0.697  0.6559 -0.6520 -1.8148
36925SOL     OW17635  11.661   2.533  12.300  0.7460 -0.5960 -0.7685
36925SOL    HW117636  11.674   2.451  12.251  0.7343 -0.8786 -0.3086
36925SOL    HW217637  11.689   2.602  12.240  0.3119 -0.9055 -1.3311
36926SOL     OW17638   8.532   1.339   3.071  0.2141 -0.3902  0.1439
36926SOL    HW117639   8.445   1.313   3.101  0.5266 -2.2614 -0.4525
36926SOL    HW217640   8.537   1.433   3.089 -2.5343  0.1298 -1.2981
36927SOL     OW17641   4.887   0.945   8.551 -0.2842  0.0597  0.6053
36927SOL    HW117642   4.968   0.982   8.517 -1.3322  1.0728 -0.9138
36927SOL    HW217643   4.840   0.915   8.473 -1.8735  0.5418  1.3327
36928SOL     OW17644   4.238   7.566   4.033  0.4399  0.1419  0.3129
36928SOL    HW117645   4.186   7.621   4.091  1.1086  1.3643 -0.1949
36928SOL    HW217646   4.317   7.546   4.082 -0.2814 -1.3626  0.9254
36929SOL     OW17647  10.505   9.619   9.458  0.0681 -0.2887 -0.0517
36929SOL    HW117648  10.429   9.618   9.518 -1.0413  0.5460 -1.3807
36929SOL    HW217649  10.566   9.680   9.499  0.8743 -2.3267  1.9703
36930SOL     OW17650  11.006   3.223   9.210 -0.1807  0.2447  0.5621
36930SOL    HW117651  11.050   3.159   9.265 -0.2601  1.3772  2.0260
36930SOL    HW217652  11.068   3.296   9.204 -0.0094 -0.0021 -1.2156
36931SOL     OW17653   0.477   4.000  11.081 -0.2777  0.2407 -0.5758
36931SOL    HW117654   0.383   4.017  11.073 -0.3053  0.9305  0.9329
36931SOL    HW217655   0.517   4.087  11.084  0.2959 -0.0301 -0.0482
36932SOL     OW17656   5.092   7.159   1.789  0.0697  0.6634  0.9327
36932SOL    HW117657   5.017   7.113   1.750  0.3661 -0.1559  1.2927
36932SOL    HW217658   5.116   7.225   1.724 -0.7674  0.7200  0.6741
36933SOL     OW17659  11.941  12.327   9.671 -0.0451 -0.7180  0.0346
36933SOL    HW117660  11.894  12.408   9.690  1.6120  0.2144  0.2528
36933SOL    HW217661  11.976  12.299   9.755 -0.5040 -1.6154 -0.0619
36934SOL     OW17662   3.116   6.575   6.126 -0.7671 -0.0398 -0.4830
36934SOL    HW117663   3.154   6.651   6.171  2.2167 -0.8746 -1.3804
36934SOL    HW217664   3.055   6.538   6.189  1.2198  0.4149  1.8623
36935SOL     OW17665   7.834   8.661   1.771  0.3144  0.2424  0.4016
36935SOL    HW117666   7.824   8.755   1.788  0.6785  0.2309  0.6929
36935SOL    HW217667   7.893   8.630   1.840  0.8916 -0.0319 -0.1997
36936SOL     OW17668   9.520   8.727   8.766  0.2187  0.1497  0.4495
36936SOL    HW117669   9.501   8.821   8.772  0.3892  0.1530  0.9352
36936SOL    HW217670   9.448   8.692   8.713  1.8251  1.0633 -2.6081
36937SOL     OW17671   9.243   0.911   0.657  0.4047 -0.1188 -0.1984
36937SOL    HW117672   9.233   0.859   0.577  0.4293 -0.1620 -0.1732
36937SOL    HW217673   9.336   0.933   0.659  0.3190  0.2643 -0.4216
36938SOL     OW17674   4.970  11.563   8.474  0.1772 -0.0045  0.1214
36938SOL    HW117675   4.967  11.650   8.433 -0.4152  0.3355  0.8570
36938SOL    HW217676   4.879  11.544   8.496  0.4602 -0.2080  1.1904
36939SOL     OW17677  10.774   0.564  10.689 -0.2887 -0.7917 -0.2180
36939SOL    HW117678  10.716   0.637  10.711  0.7155  0.5726 -1.8380
36939SOL    HW217679  10.828   0.552  10.767 -0.1775  0.5169 -0.0734
36940SOL     OW17680   0.302   8.193   8.695 -0.1013 -0.0229  0.1376
36940SOL    HW117681   0.240   8.200   8.622 -0.9868  1.2138  0.9739
36940SOL    HW217682   0.374   8.141   8.660 -0.9024 -0.1892 -1.3477
36941SOL     OW17683   7.617   9.171   6.428 -0.2079 -0.2791 -0.0967
36941SOL    HW117684   7.672   9.215   6.493 -0.5672  0.6850 -0.4333
36941SOL    HW217685   7.629   9.078   6.446 -0.1420 -0.0377  1.2323
36942SOL     OW17686   1.431   1.646   0.482  0.2203 -0.3832 -0.5227
36942SOL    HW117687   1.491   1.644   0.556 -3.6436  0.7496  2.9892
36942SOL    HW217688   1.469   1.712   0.423  2.4374  0.2083  1.4069
36943SOL     OW17689   0.728   7.806   1.876  0.9695  0.1610  0.2943
36943SOL    HW117690   0.773   7.855   1.807  1.7434  0.3811  0.9549
36943SOL    HW217691   0.797   7.774   1.933  0.2231  2.7661  2.8707
36944SOL     OW17692   3.748   1.919   1.184 -0.3519 -0.0811 -0.4645
36944SOL    HW117693   3.806   1.890   1.254  0.5432 -1.9572 -1.8586
36944SOL    HW217694   3.807   1.962   1.121 -0.6087 -1.0053 -1.3718
36945SOL     OW17695   6.662   8.860   0.313  0.3968 -0.5915  0.3938
36945SOL    HW117696   6.755   8.857   0.338  0.2631 -2.5177  0.8578
36945SOL    HW217697   6.618   8.807   0.378 -1.3443  1.6309  1.1337
36946SOL     OW17698   2.761   3.510   5.556 -0.3942 -0.0625  0.0245
36946SOL    HW117699   2.683   3.560   5.530 -2.5570 -3.0402  0.3171
36946SOL    HW217700   2.764   3.517   5.651 -0.6561 -0.4104  0.0597
36947SOL     OW17701   7.935  10.336   6.723  0.3980  0.0551 -0.1016
36947SOL    HW117702   7.963  10.244   6.718  0.5688  0.1384 -3.6140
36947SOL    HW217703   8.016  10.385   6.735  1.0432 -0.0998 -3.0507
36948SOL     OW17704   1.339   6.812  10.586 -0.0033 -0.3832 -0.2170
36948SOL    HW117705   1.335   6.756  10.508 -1.3671 -0.2995 -0.2317
36948SOL    HW217706   1.275   6.882  10.568  1.2787  0.8938  0.0282
36949SOL     OW17707   5.947   2.954  12.285  0.2903  0.1713 -0.0505
36949SOL    HW117708   6.035   2.933  12.316 -0.1279 -1.2953  0.2050
36949SOL    HW217709   5.961   3.018  12.216  1.3926  1.7933  1.5654
36950SOL     OW17710   1.241   1.032   0.683 -0.0749 -0.2114 -0.0645
36950SOL    HW117711   1.161   1.046   0.632 -0.6344 -1.6047  0.3866
36950SOL    HW217712   1.217   1.059   0.772  0.3687  0.5676 -0.1684
36951SOL     OW17713   2.408   4.806   9.458 -0.2842  0.0236 -0.3828
36951SOL    HW117714   2.453   4.802   9.543  0.7147 -1.4460 -0.9438
36951SOL    HW217715   2.342   4.737   9.463 -0.4386  0.1455 -0.7034
36952SOL     OW17716  10.081  10.173   5.502 -0.1095  0.7834 -0.0873
36952SOL    HW117717  10.031  10.114   5.560 -1.4506  2.2302  0.3037
36952SOL    HW217718  10.076  10.131   5.416  1.8165 -1.3466  0.7426
36953SOL     OW17719  10.717  10.778  10.385 -0.1481 -0.0085 -0.0249
36953SOL    HW117720  10.812  10.784  10.401 -0.1942 -0.3364  0.3758
36953SOL    HW217721  10.702  10.840  10.314  0.3799 -0.0055 -0.1433
36954SOL     OW17722   9.182   8.541   0.960  0.4900  0.0740  0.0783
36954SOL    HW117723   9.262   8.571   1.002 -0.1405  0.5635  0.9847
36954SOL    HW217724   9.196   8.557   0.867  1.6102 -0.2810  0.1717
36955SOL     OW17725   4.746   7.831   2.256  0.0796 -0.3616  0.3095
36955SOL    HW117726   4.758   7.800   2.166 -2.4464  1.3336 -0.7137
36955SOL    HW217727   4.834   7.856   2.285  1.0747 -1.7496 -1.3529
36956SOL     OW17728   1.551   9.621   5.980 -0.1072  0.2936 -0.3209
36956SOL    HW117729   1.470   9.622   6.031 -0.3705 -0.3922 -0.7177
36956SOL    HW217730   1.533   9.681   5.907 -0.8196 -1.0019 -1.2415
36957SOL     OW17731   6.019   1.036   6.407  0.0329  1.1704  0.2606
36957SOL    HW117732   5.954   1.088   6.361 -0.9890  0.7027  1.1357
36957SOL    HW217733   6.029   1.079   6.492  0.5280  0.9727  0.3087
36958SOL     OW17734   6.018   3.772   9.729  0.2479  0.5239 -0.0648
36958SOL    HW117735   6.087   3.820   9.683  2.2871 -0.4500  1.7658
36958SOL    HW217736   6.053   3.683   9.738 -2.0777 -0.5111 -0.6458
36959SOL     OW17737  10.529   8.624   3.658 -0.1290 -0.3161 -0.1755
36959SOL    HW117738  10.616   8.660   3.642 -0.1362  0.1210  0.7503
36959SOL    HW217739  10.477   8.698   3.689 -0.2030 -1.0480  1.5612
36960SOL     OW17740   2.930   8.483   9.926  0.2673 -0.1000  0.2463
36960SOL    HW117741   2.888   8.472   9.841  1.4781  0.3234 -0.4432
36960SOL    HW217742   2.994   8.553   9.911  1.5725 -1.0703  1.0897
36961SOL     OW17743   4.864  10.248   7.084 -0.0959 -0.7159  0.4884
36961SOL    HW117744   4.924  10.312   7.122 -0.6470 -1.3167  2.4892
36961SOL    HW217745   4.839  10.192   7.158 -1.3536 -1.8659 -0.7565
36962SOL     OW17746   1.829   5.960   6.857 -0.1555 -0.1261 -0.1096
36962SOL    HW117747   1.902   5.942   6.798  0.0140  0.1809  0.0044
36962SOL    HW217748   1.757   5.985   6.799  0.1620  0.6884 -0.1629
36963SOL     OW17749  11.961   2.038   0.935 -0.5698 -0.1493 -0.0551
36963SOL    HW117750  11.886   2.019   0.880 -0.8654 -0.0198  0.2992
36963SOL    HW217751  11.990   2.126   0.908  0.0001 -0.5589 -0.7978
36964SOL     OW17752   0.988   9.566   7.572 -0.0820  0.6789  0.0202
36964SOL    HW117753   0.905   9.577   7.526 -0.6531  0.8642  1.0733
36964SOL    HW217754   0.966   9.519   7.652  0.9305  0.1719  0.0204
36965SOL     OW17755  12.105   2.177   5.176 -0.0199 -0.2431 -0.3150
36965SOL    HW117756  12.142   2.101   5.222 -3.2453 -0.0191  3.1298
36965SOL    HW217757  12.012   2.158   5.171 -0.4393  2.0054 -2.6105
36966SOL     OW17758   8.426   1.951   6.395 -0.4359  0.5216  0.6451
36966SOL    HW117759   8.472   2.011   6.454 -0.3235  0.9882  0.0890
36966SOL    HW217760   8.489   1.933   6.325 -0.5495 -0.0675  0.6913
36967SOL     OW17761  10.524   8.733   0.713 -0.2700  0.1010 -0.6722
36967SOL    HW117762  10.496   8.733   0.621  1.1447 -2.5241 -1.2020
36967SOL    HW217763  10.612   8.696   0.711  0.1407  0.8251  1.6834
36968SOL     OW17764   8.073   5.763  11.968  0.5327 -0.4654  0.2579
36968SOL    HW117765   8.059   5.669  11.959 -1.1978 -0.2537  0.4975
36968SOL    HW217766   8.151   5.770  12.024 -0.6124 -1.7831  2.1227
36969SOL     OW17767   0.800   7.865   4.924 -0.2217  0.2925 -0.1835
36969SOL    HW117768   0.884   7.821   4.935 -0.8975 -0.8467  0.7735
36969SOL    HW217769   0.784   7.908   5.008 -0.3261  0.9939 -0.5578
36970SOL     OW17770   7.694   5.645   7.147  0.2153 -0.0057 -0.0968
36970SOL    HW117771   7.629   5.674   7.084 -0.1156  2.5915  1.3040
36970SOL    HW217772   7.645   5.591   7.209 -1.0121  2.8507  1.5931
36971SOL     OW17773   1.907  10.826   0.060  0.3099  0.3879 -0.1790
36971SOL    HW117774   1.861  10.783   0.132 -1.3311  1.8510 -0.2862
36971SOL    HW217775   1.843  10.830  -0.011  1.3841  0.4014 -1.1797
36972SOL     OW17776   6.817   9.837   6.756 -0.0228 -0.8624 -0.3749
36972SOL    HW117777   6.754   9.906   6.776 -1.2986 -1.7172 -1.2034
36972SOL    HW217778   6.883   9.879   6.702 -0.5621 -0.1998 -0.5281
36973SOL     OW17779  11.819   8.195  11.561 -0.5831  0.7915  0.2309
36973SOL    HW117780  11.764   8.273  11.557  0.3641  1.4570 -0.1428
36973SOL    HW217781  11.821   8.172  11.654 -2.0429  0.3360  0.1720
36974SOL     OW17782   2.664   1.829   1.105 -0.2490  0.1997 -0.2982
36974SOL    HW117783   2.674   1.862   1.195 -0.6643  2.9635 -1.1539
36974SOL    HW217784   2.752   1.836   1.067  0.4548 -3.1096  0.4301
36975SOL     OW17785  11.550   7.496  10.429  0.1509  0.5133 -0.0123
36975SOL    HW117786  11.527   7.588  10.414 -0.4879  0.3848  0.1603
36975SOL    HW217787  11.535   7.483  10.523  1.8301  0.6727  0.3079
36976SOL     OW17788   3.672  10.904   8.356  0.0632  0.0993 -0.0500
36976SOL    HW117789   3.651  10.944   8.440 -0.2669  1.4559 -0.7416
36976SOL    HW217790   3.767  10.903   8.352  0.0757  0.5654  0.1015
36977SOL     OW17791  11.836   9.308   1.308 -0.5073  0.1081 -0.5790
36977SOL    HW117792  11.768   9.339   1.248  0.0242  1.0060 -0.7343
36977SOL    HW217793  11.841   9.376   1.375 -0.3029 -0.3398 -0.1374
36978SOL     OW17794   7.845   6.830   4.794  0.6075 -0.6640  0.6822
36978SOL    HW117795   7.868   6.737   4.798  0.6063 -0.6377  2.8363
36978SOL    HW217796   7.768   6.833   4.737  2.2572 -1.5468 -1.7390
36979SOL     OW17797  11.106   8.539   0.490 -0.0827 -0.3450  0.6398
36979SOL    HW117798  11.117   8.485   0.411 -1.1242 -0.6342  0.6770
36979SOL    HW217799  11.158   8.618   0.472 -0.2572 -0.4311 -0.3180
36980SOL     OW17800   3.685   5.018   2.690  0.0041 -0.3456  0.0498
36980SOL    HW117801   3.751   5.012   2.759  0.5384 -1.3509 -0.5273
36980SOL    HW217802   3.624   4.947   2.710 -0.3045 -0.1092 -0.0455
36981SOL     OW17803   0.697   2.669   4.065 -0.0559 -0.5374 -0.3407
36981SOL    HW117804   0.646   2.725   4.122 -0.6048 -1.1658 -0.2044
36981SOL    HW217805   0.657   2.679   3.979  0.6166  0.2169 -0.5852
36982SOL     OW17806   5.672   7.517   0.329 -0.9525  0.2349  0.2411
36982SOL    HW117807   5.689   7.426   0.304 -2.2981 -0.2752  1.0653
36982SOL    HW217808   5.581   7.532   0.302 -0.6046  1.4850 -0.2715
36983SOL     OW17809  11.318   8.434   5.287  0.0429 -0.1307 -0.2510
36983SOL    HW117810  11.244   8.487   5.259 -0.8200 -1.2462 -0.1364
36983SOL    HW217811  11.352   8.395   5.207 -0.3351 -0.6662 -0.1580
36984SOL     OW17812   8.560   2.066  10.050 -0.1033 -0.4012  0.7385
36984SOL    HW117813   8.566   2.161  10.058 -2.7910 -0.1820  1.1256
36984SOL    HW217814   8.649   2.035  10.062  0.7796  2.0495  0.9729
36985SOL     OW17815   8.638   6.218   3.018  0.5796  0.5740  0.4708
36985SOL    HW117816   8.630   6.268   3.100 -0.4263  0.2483  0.5752
36985SOL    HW217817   8.709   6.155   3.036  0.5464  0.6822  1.0001
36986SOL     OW17818   6.279   5.014   1.065  0.0434 -0.6292  0.0967
36986SOL    HW117819   6.360   5.067   1.064 -0.8619  0.8083 -0.0915
36986SOL    HW217820   6.259   5.005   1.158 -0.5482  0.6076  0.1136
36987SOL     OW17821   6.027   8.925   5.608 -0.2875 -0.0202  0.0158
36987SOL    HW117822   6.022   9.004   5.663 -0.5253 -0.3662  0.4935
36987SOL    HW217823   6.001   8.955   5.520 -2.5078  0.0097  0.6247
36988SOL     OW17824   1.923   9.402   7.788 -0.5285 -0.1448  0.1256
36988SOL    HW117825   1.836   9.382   7.753 -1.1511 -0.3837  1.6906
36988SOL    HW217826   1.978   9.415   7.711 -1.6349 -1.3520 -0.9270
36989SOL     OW17827   8.594   5.929   6.359  0.1420  0.6193  0.0068
36989SOL    HW117828   8.658   5.942   6.290  0.5995  0.1100  0.3316
36989SOL    HW217829   8.565   6.018   6.382 -1.0855  0.7425 -1.8190
36990SOL     OW17830   8.498   8.413   2.835 -0.4048  0.5333  0.1603
36990SOL    HW117831   8.434   8.349   2.803 -1.5684  2.4401 -1.5214
36990SOL    HW217832   8.552   8.433   2.759  0.0650  1.4264  0.7122
36991SOL     OW17833   8.995  11.782   4.708 -0.1014 -0.2674  0.1808
36991SOL    HW117834   9.059  11.845   4.676 -0.5702  0.6200  0.9654
36991SOL    HW217835   9.041  11.735   4.777 -0.3804  0.5654  0.9410
36992SOL     OW17836  11.894   1.904   3.839  0.2069 -0.4164 -0.7057
36992SOL    HW117837  11.986   1.929   3.849 -0.1293  0.3909  0.5308
36992SOL    HW217838  11.897   1.810   3.821  1.1839 -0.9391  1.8080
36993SOL     OW17839   0.797   8.473   4.673 -1.1512  0.0257  0.7389
36993SOL    HW117840   0.891   8.453   4.671 -1.0373  0.5115 -1.8718
36993SOL    HW217841   0.779   8.489   4.766  1.0747 -1.1719  1.4809
36994SOL     OW17842   6.041   2.877   3.654  0.6562 -0.5206  0.3752
36994SOL    HW117843   5.997   2.867   3.738  2.0425 -2.2357  0.9538
36994SOL    HW217844   5.993   2.947   3.610 -2.2907 -1.9058  1.1512
36995SOL     OW17845   0.603   5.825  10.620  0.4754 -0.0656 -1.1721
36995SOL    HW117846   0.658   5.802  10.545  0.8485 -0.5072 -0.7739
36995SOL    HW217847   0.640   5.907  10.653  2.2196 -1.3715  0.3210
36996SOL     OW17848   4.946   6.147   1.386 -0.6924 -0.3293  0.9486
36996SOL    HW117849   4.881   6.176   1.450 -0.2644  3.5383 -0.1077
36996SOL    HW217850   4.896   6.094   1.324 -2.2278  0.2199  1.6624
36997SOL     OW17851   9.264   8.098   0.715  0.1370  0.4627 -0.6977
36997SOL    HW117852   9.289   8.007   0.699 -0.9861  0.3655 -2.0392
36997SOL    HW217853   9.273   8.141   0.631  1.9471  1.9713  0.1923
36998SOL     OW17854   7.130   1.377  11.630 -0.6094  0.1359  0.5700
36998SOL    HW117855   7.115   1.409  11.541 -0.4987  1.2681  0.9520
36998SOL    HW217856   7.223   1.353  11.631 -0.1115  1.9276  0.9073
36999SOL     OW17857   2.295   6.059   9.469 -0.1535  0.1960  0.0135
36999SOL    HW117858   2.292   6.126   9.400 -0.0649 -0.4889 -0.6731
36999SOL    HW217859   2.224   5.999   9.446  0.5532 -0.6104 -0.0888
37000SOL     OW17860   3.039   1.413   1.642  0.4999 -0.5948  0.0494
37000SOL    HW117861   3.079   1.445   1.561 -0.0181  0.2773  0.1270
37000SOL    HW217862   3.015   1.493   1.689 -0.1258 -1.1053  0.6027
37001SOL     OW17863  10.933   6.707   7.508 -0.4351 -0.7507 -0.0820
37001SOL    HW117864  10.909   6.645   7.576 -1.8315  1.3501  1.4491
37001SOL    HW217865  11.004   6.760   7.546 -0.0486 -0.6440 -0.9128
37002SOL     OW17866   4.456   0.169  11.591 -0.0713 -0.0992 -0.6608
37002SOL    HW117867   4.450   0.173  11.495  1.2032 -0.9041 -0.7926
37002SOL    HW217868   4.550   0.164  11.609 -0.3255 -0.7310  0.6058
37003SOL     OW17869   7.327   5.050   6.036 -0.0990 -0.6847 -1.1389
37003SOL    HW117870   7.362   5.109   5.970  1.7999 -0.0974  0.3045
37003SOL    HW217871   7.311   4.968   5.989  2.0780 -0.5820 -2.1900
37004SOL     OW17872   7.858   2.782   4.765 -0.0418 -0.0652  0.4352
37004SOL    HW117873   7.923   2.830   4.714  0.6639 -0.5163  0.8821
37004SOL    HW217874   7.848   2.699   4.718  1.3537 -0.9024  1.5023
37005SOL     OW17875   5.169   6.372   9.221 -0.4410  0.2619 -0.3603
37005SOL    HW117876   5.102   6.439   9.210 -1.4503 -0.9245 -1.7474
37005SOL    HW217877   5.121   6.291   9.238  0.7194 -0.2903  0.4741
37006SOL     OW17878   2.861  11.137   8.664 -0.2656  0.5950  0.0174
37006SOL    HW117879   2.842  11.148   8.757 -0.5549  0.2403  0.0022
37006SOL    HW217880   2.794  11.190   8.620 -1.8110 -1.2963 -0.0642
37007SOL     OW17881   2.228   9.454  10.127 -0.0830  0.3602  0.3522
37007SOL    HW117882   2.188   9.368  10.121 -1.1490  0.8232  0.7072
37007SOL    HW217883   2.313   9.444  10.082 -0.0481 -0.9390  0.6733
37008SOL     OW17884   4.090   3.561   8.584  0.1087 -0.8440 -0.0268
37008SOL    HW117885   4.172   3.600   8.555  0.1589 -0.1969  0.9548
37008SOL    HW217886   4.025   3.630   8.572  0.0169 -0.7853  0.7697
37009SOL     OW17887   5.989   7.142   8.520 -0.5118  0.4579 -0.4325
37009SOL    HW117888   6.072   7.187   8.514  0.5474 -1.3668 -0.3243
37009SOL    HW217889   5.995   7.090   8.600 -2.2712  1.2344  0.2668
37010SOL     OW17890   9.001   0.094   0.727 -0.4429  0.2512  0.0138
37010SOL    HW117891   9.025   0.024   0.666  1.0514  1.4536 -0.8516
37010SOL    HW217892   8.975   0.048   0.807 -2.6333 -1.3820 -1.5088
37011SOL     OW17893   7.104  10.190   0.827 -0.2558 -0.0782 -0.3285
37011SOL    HW117894   7.061  10.204   0.743  1.5438  0.1710 -1.2382
37011SOL    HW217895   7.118  10.278   0.862  1.2243 -0.0489 -0.9473
37012SOL     OW17896   5.442   3.047  11.662  0.1265  0.8426 -0.2566
37012SOL    HW117897   5.400   3.097  11.592  0.5455  1.2543 -0.2216
37012SOL    HW217898   5.461   3.112  11.730 -3.0127 -0.0133  1.6172
37013SOL     OW17899   9.786   1.077   2.102  0.1590  0.6222  0.1089
37013SOL    HW117900   9.738   0.995   2.116  1.1863  0.0080  0.1117
37013SOL    HW217901   9.754   1.109   2.018 -1.1802  0.8985  0.6954
37014SOL     OW17902   5.597   2.657   4.203 -0.1854 -0.4240 -0.4685
37014SOL    HW117903   5.687   2.687   4.207 -0.0214 -0.9928  2.6909
37014SOL    HW217904   5.602   2.570   4.162  0.8475 -0.8783  0.5904
37015SOL     OW17905   6.824   1.299   6.676 -0.1041 -0.5240  0.3324
37015SOL    HW117906   6.863   1.340   6.599 -1.0421  0.0560  0.1414
37015SOL    HW217907   6.830   1.205   6.659 -0.5119 -0.4000 -0.5769
37016SOL     OW17908  12.321  11.405   4.157  0.2214  0.1364  0.1153
37016SOL    HW117909  12.355  11.486   4.121  0.4154  0.6786  1.4536
37016SOL    HW217910  12.227  11.421   4.169  0.0430 -0.2622 -0.7127
37017SOL     OW17911   1.188   4.231   0.962  0.1562  0.2892 -0.8732
37017SOL    HW117912   1.202   4.153   1.016  0.9667 -0.0442 -1.5432
37017SOL    HW217913   1.270   4.280   0.968 -0.5767  1.4769  0.1057
37018SOL     OW17914   8.512   0.086   2.903 -0.1496  0.1980  0.0915
37018SOL    HW117915   8.458   0.077   2.824 -0.7763  0.6954  0.4607
37018SOL    HW217916   8.467   0.033   2.969  0.8152 -0.8987 -0.0869
37019SOL     OW17917   4.848   1.551   4.100 -0.1486 -0.2766 -0.1197
37019SOL    HW117918   4.813   1.522   4.016 -1.4052  0.3720  0.1634
37019SOL    HW217919   4.937   1.516   4.101  0.2256  0.4806 -2.1068
37020SOL     OW17920   8.262   9.806   8.034 -0.0511 -0.1157 -0.2002
37020SOL    HW117921   8.181   9.822   8.082 -0.8185 -0.1248 -1.4338
37020SOL    HW217922   8.257   9.714   8.009  1.3508 -0.6794  1.4912
37021SOL     OW17923   1.037   2.356   3.577  0.5635 -0.0684 -0.3377
37021SOL    HW117924   1.080   2.382   3.658  1.4327  1.4257 -1.2321
37021SOL    HW217925   0.944   2.351   3.599  0.5867  1.9748  0.3759
37022SOL     OW17926  12.281   8.622  10.985 -0.2295 -0.2841  0.3073
37022SOL    HW117927  12.348   8.651  11.046 -0.4882 -1.3581  1.1377
37022SOL    HW217928  12.278   8.527  10.996  0.2103 -0.5958 -1.8994
37023SOL     OW17929   7.102   7.312   6.907  0.0014  0.0414  0.7393
37023SOL    HW117930   7.052   7.349   6.833 -0.4238 -1.1172  0.4231
37023SOL    HW217931   7.091   7.376   6.977 -0.1058  0.8708 -0.0103
37024SOL     OW17932   4.428  10.938   7.343 -0.2015 -0.1421 -0.2402
37024SOL    HW117933   4.502  10.960   7.400 -0.5331  0.2808  0.0315
37024SOL    HW217934   4.406  10.848   7.367 -0.7145  0.2237  0.7352
37025SOL     OW17935   3.258   7.174   0.489 -0.3392 -0.4698  0.6619
37025SOL    HW117936   3.251   7.231   0.413 -1.1996  1.4089  2.0671
37025SOL    HW217937   3.172   7.132   0.495 -0.1256 -0.9555  0.3541
37026SOL     OW17938   9.790   7.577   7.987 -0.1374  0.4227  0.3087
37026SOL    HW117939   9.880   7.605   8.005 -0.4553  1.6778  0.0112
37026SOL    HW217940   9.741   7.658   7.977 -1.0591 -0.2497 -0.8268
37027SOL     OW17941   7.458   8.822   1.512  0.3963 -0.2838  0.8799
37027SOL    HW117942   7.519   8.868   1.570 -0.7761  0.8638  1.2558
37027SOL    HW217943   7.372   8.856   1.536 -0.2131 -0.4150 -0.9457
37028SOL     OW17944   1.149   8.750   3.090  0.4616  0.1115 -0.1291
37028SOL    HW117945   1.075   8.810   3.101 -0.3447 -0.8096 -0.3840
37028SOL    HW217946   1.209   8.796   3.031  0.0454  0.8221 -0.0073
37029SOL     OW17947   5.943   4.339   1.917 -0.4808  0.5602  0.2282
37029SOL    HW117948   5.963   4.246   1.927  2.1165  1.0619  0.3117
37029SOL    HW217949   5.870   4.354   1.978 -0.7622 -1.3378  0.4215
37030SOL     OW17950   5.446   8.452   3.534 -0.2358  0.4687  0.3239
37030SOL    HW117951   5.391   8.510   3.482  1.4181  1.5312 -0.3395
37030SOL    HW217952   5.470   8.504   3.610 -0.0834  0.0501  0.5671
37031SOL     OW17953   5.324   3.472   7.757 -0.1532 -0.5083 -0.3674
37031SOL    HW117954   5.359   3.407   7.695  2.4540  0.3672  0.0845
37031SOL    HW217955   5.274   3.532   7.702 -0.5995 -1.5260 -1.1224
37032SOL     OW17956   6.649   4.461  11.326 -0.0391 -0.1638  0.3173
37032SOL    HW117957   6.618   4.373  11.345 -1.3592  0.6601  2.3365
37032SOL    HW217958   6.570   4.515  11.328  1.0304  1.4468  1.7596
37033SOL     OW17959   3.055   7.259  10.285  0.2494 -0.1127  0.0722
37033SOL    HW117960   3.134   7.307  10.260 -0.1239  1.8622  2.3165
37033SOL    HW217961   3.013   7.314  10.351 -1.2631 -2.6591  1.4278
37034SOL     OW17962   4.787   4.824   8.315 -0.1515 -0.1165 -0.0277
37034SOL    HW117963   4.735   4.835   8.394  2.1944  0.1628  1.5423
37034SOL    HW217964   4.865   4.877   8.328 -0.8146  2.1121 -3.6964
37035SOL     OW17965   7.070   0.360   9.112 -0.3895  0.0166 -0.0558
37035SOL    HW117966   7.082   0.402   9.027  1.4780  0.6987  0.4985
37035SOL    HW217967   7.125   0.282   9.108  0.1274  0.3304  0.6891
37036SOL     OW17968   3.917  11.756  11.872 -0.2795  0.1576 -0.2530
37036SOL    HW117969   3.889  11.787  11.786  0.3968  0.1974 -0.4623
37036SOL    HW217970   3.905  11.832  11.930 -2.8716 -0.4989  0.1925
37037SOL     OW17971   0.435   3.710   8.635  0.1567  0.1250 -0.3286
37037SOL    HW117972   0.475   3.637   8.588 -0.2273 -0.2151 -0.1303
37037SOL    HW217973   0.468   3.788   8.590 -0.0691 -0.1862 -1.0523
37038SOL     OW17974   4.027   9.382  10.396  0.1824  0.6928 -0.2279
37038SOL    HW117975   4.022   9.287  10.383  0.2901  0.7547 -0.7373
37038SOL    HW217976   3.944   9.405  10.439  0.2381  0.3455  0.0788
37039SOL     OW17977  10.947  12.346   2.846  0.1834  0.0067 -0.0793
37039SOL    HW117978  10.977  12.297   2.922  0.2470  0.2702  0.0680
37039SOL    HW217979  11.027  12.363   2.795 -0.2501 -3.5928 -2.3102
37040SOL     OW17980   0.412   2.726   3.167 -0.1590 -0.4011  0.6701
37040SOL    HW117981   0.446   2.750   3.081 -0.7582  0.8104  0.7407
37040SOL    HW217982   0.489   2.729   3.225  0.1978 -0.9673  0.2317
37041SOL     OW17983   5.829   1.977   4.322  0.0763 -0.0781  0.1487
37041SOL    HW117984   5.909   2.022   4.293 -0.0463  0.1912  0.2235
37041SOL    HW217985   5.766   2.048   4.338  0.1396 -0.2137  1.0696
37042SOL     OW17986   0.194   9.404   1.763 -0.0357 -0.1961  0.0109
37042SOL    HW117987   0.153   9.323   1.793 -0.0144 -0.6225 -1.0576
37042SOL    HW217988   0.288   9.385   1.765  0.0228  0.1327  0.6497
37043SOL     OW17989   5.608   5.120   3.934  0.0233  0.2446 -0.0423
37043SOL    HW117990   5.526   5.165   3.958 -0.5057 -1.0626  0.6825
37043SOL    HW217991   5.586   5.072   3.855  0.2532  0.3241 -0.1544
37044SOL     OW17992   1.414   4.252   1.795 -0.3997 -0.4583  0.2405
37044SOL    HW117993   1.378   4.227   1.710  0.6126 -1.5657  0.1194
37044SOL    HW217994   1.508   4.260   1.780 -0.5591  3.7614  0.1916
37045SOL     OW17995   3.820   4.471   6.826  0.1625  0.1903 -0.4129
37045SOL    HW117996   3.890   4.409   6.807 -1.3211 -1.3332 -1.2246
37045SOL    HW217997   3.823   4.534   6.755  0.6478  0.0715 -0.4980
37046SOL     OW17998   5.465  11.876   1.676  0.0362 -0.5994  0.0007
37046SOL    HW117999   5.559  11.854   1.681  0.0464 -0.5267  0.1165
37046SOL    HW218000   5.446  11.918   1.759 -0.2765 -1.3042  0.2960
37047SOL     OW18001   1.463   6.787   2.627  0.2029  0.2274 -0.6199
37047SOL    HW118002   1.409   6.862   2.651  2.0304  1.9116 -1.5849
37047SOL    HW218003   1.547   6.824   2.602  1.6546 -2.2614  0.2370
37048SOL     OW18004   2.279   8.174   6.259  0.2308 -0.2696 -0.0796
37048SOL    HW118005   2.320   8.260   6.248  0.4666 -0.3952 -0.2017
37048SOL    HW218006   2.337   8.114   6.212  0.5715 -0.6358  0.7741
37049SOL     OW18007   3.276  10.395   9.609 -0.2028 -0.1367  0.8493
37049SOL    HW118008   3.368  10.415   9.592 -0.0939 -0.6619  0.7821
37049SOL    HW218009   3.253  10.333   9.539 -0.6174  0.0304  0.8413
37050SOL     OW18010  11.661   3.491   1.486  0.5718  0.2557 -0.4513
37050SOL    HW118011  11.699   3.485   1.398  1.7523 -0.4695  0.0855
37050SOL    HW218012  11.570   3.465   1.474  1.1252 -1.4923 -1.2060
37051SOL     OW18013  11.206   7.157   7.041 -0.1584 -0.3530  0.0656
37051SOL    HW118014  11.197   7.184   7.132  1.3182  0.0134  0.1314
37051SOL    HW218015  11.142   7.087   7.030  0.0770 -0.8347  1.5768
37052SOL     OW18016   7.991   0.692   6.810 -0.2239 -0.0766  0.0947
37052SOL    HW118017   8.049   0.705   6.734  1.2589  0.8674  1.3283
37052SOL    HW218018   7.913   0.744   6.789  0.4338  0.7022 -0.5216
37053SOL     OW18019  10.679  10.386   5.621  0.1693 -0.2328  0.4426
37053SOL    HW118020  10.606  10.420   5.672  0.4460 -1.2556  1.5792
37053SOL    HW218021  10.672  10.428   5.536 -0.8468  0.8341  1.0396
37054SOL     OW18022   8.978   4.696   6.610  0.0463  0.4063  0.2413
37054SOL    HW118023   8.899   4.657   6.573 -0.8653  1.9446  0.5050
37054SOL    HW218024   8.964   4.695   6.705  0.7187 -0.0503  0.3471
37055SOL     OW18025   4.801   8.340   5.476  0.8816  0.0660  0.1055
37055SOL    HW118026   4.777   8.251   5.501 -0.8782  1.1182  2.4988
37055SOL    HW218027   4.755   8.354   5.393  2.3054 -1.6561 -1.0507
37056SOL     OW18028  11.840   9.920  11.125  0.0084  0.1781  0.4167
37056SOL    HW118029  11.796  10.004  11.138 -1.0438 -0.2601 -0.1525
37056SOL    HW218030  11.823   9.872  11.206 -0.5054  0.0436  0.2341
37057SOL     OW18031   4.535   5.144   3.986  0.1975 -1.0304 -0.2305
37057SOL    HW118032   4.527   5.069   4.044  2.6297 -1.3053 -0.1280
37057SOL    HW218033   4.621   5.134   3.945  1.1179  2.2013  0.5875
37058SOL     OW18034   8.597   2.065   3.145  0.1504 -0.4062  0.3152
37058SOL    HW118035   8.681   2.033   3.178 -0.1960 -0.5918  1.0300
37058SOL    HW218036   8.531   2.021   3.198 -0.4713 -1.2018 -1.0454
37059SOL     OW18037   2.280   7.218   3.568  0.2543 -0.6444 -0.0001
37059SOL    HW118038   2.312   7.304   3.541  0.2503 -0.4347  0.6351
37059SOL    HW218039   2.356   7.176   3.608 -0.3059 -0.0107  1.8359
37060SOL     OW18040   8.010   6.525   7.713 -0.7171 -0.4515  0.0543
37060SOL    HW118041   8.013   6.619   7.696  3.4243 -0.2353  0.9580
37060SOL    HW218042   8.018   6.485   7.626  1.6372  0.2285 -0.1201
37061SOL     OW18043   3.519   0.815   0.041 -0.6622  0.2772 -0.3747
37061SOL    HW118044   3.568   0.828  -0.041  0.2842 -0.1775  0.0991
37061SOL    HW218045   3.505   0.720   0.045  0.5463  0.1187  0.6680
37062SOL     OW18046   9.638  12.350   4.823  0.5945 -0.7050  0.0713
37062SOL    HW118047   9.715  12.334   4.878  0.9356 -0.3136 -0.2805
37062SOL    HW218048   9.675  12.370   4.737  0.2174  1.8260  0.4377
37063SOL     OW18049  11.283   3.037   0.496  0.4617 -0.1691 -0.1106
37063SOL    HW118050  11.286   2.944   0.475  0.1948 -0.3250  0.5100
37063SOL    HW218051  11.213   3.072   0.440  0.6539 -0.3123 -0.4426
37064SOL     OW18052   5.639  11.849  10.915  0.1743 -0.2055  0.0408
37064SOL    HW118053   5.722  11.815  10.882 -0.6617 -1.2732 -1.0573
37064SOL    HW218054   5.618  11.922  10.857  1.1681  1.2296  1.4019
37065SOL     OW18055   7.414   6.950   2.040  0.1180 -0.4274  0.2057
37065SOL    HW118056   7.427   6.992   1.955 -1.3226  1.0489  0.6800
37065SOL    HW218057   7.322   6.923   2.040 -0.4325  1.2629  1.9810
37066SOL     OW18058  11.765  11.627   9.341  0.4097  0.4719  0.1896
37066SOL    HW118059  11.703  11.554   9.333 -0.3707  1.2862 -1.9879
37066SOL    HW218060  11.794  11.624   9.432 -1.1881 -1.2658  0.7103
37067SOL     OW18061  10.504   7.621   3.420 -0.0371 -0.8823  0.1137
37067SOL    HW118062  10.420   7.575   3.412 -0.0663 -0.9140  0.5497
37067SOL    HW218063  10.526   7.614   3.513  0.1809 -0.4046  0.1047
37068SOL     OW18064   7.534   1.599   0.798 -0.0552  0.1436 -0.6518
37068SOL    HW118065   7.473   1.526   0.805  2.8458 -2.6685 -2.0524
37068SOL    HW218066   7.514   1.639   0.714 -1.1212  0.5114 -0.2499
37069SOL     OW18067   0.192   6.012   1.980  0.1585  0.6565  0.2117
37069SOL    HW118068   0.268   6.010   1.922 -1.2251 -0.9706 -1.6712
37069SOL    HW218069   0.117   5.992   1.923 -1.8941  3.2735  1.7598
37070SOL     OW18070   0.814   2.073   1.279  0.0308  0.5032 -0.6163
37070SOL    HW118071   0.861   2.111   1.204 -0.7240  0.1807 -1.2675
37070SOL    HW218072   0.772   2.148   1.321  2.2414  1.0220  0.8399
37071SOL     OW18073   6.073   0.535   0.466  0.1121  0.1094  0.6033
37071SOL    HW118074   6.121   0.459   0.436 -1.5489 -0.3154 -1.1616
37071SOL    HW218075   6.052   0.583   0.386  0.9121  2.3378  1.6445
37072SOL     OW18076   4.753   1.300   2.489 -0.1231 -0.0074  0.1018
37072SOL    HW118077   4.686   1.341   2.434 -0.5552  0.9906  1.3218
37072SOL    HW218078   4.819   1.368   2.502 -1.3359  0.8187  2.9909
37073SOL     OW18079   4.963  11.819   6.656 -0.5402 -0.3429 -0.0853
37073SOL    HW118080   5.019  11.897   6.661  1.9381 -1.9922 -0.2865
37073SOL    HW218081   4.945  11.797   6.748 -0.8960  0.1987 -0.0202
37074SOL     OW18082  10.700   2.353  10.200 -0.3470 -0.0504  0.0697
37074SOL    HW118083  10.729   2.444  10.211  0.5959 -0.4182  0.8687
37074SOL    HW218084  10.764   2.302  10.251 -0.0030 -1.3005 -1.5459
37075SOL     OW18085   1.442   8.146  10.682 -0.3747  0.0815  0.0838
37075SOL    HW118086   1.412   8.232  10.650  0.3997  0.3369  0.0357
37075SOL    HW218087   1.435   8.153  10.777 -0.1370  0.2643  0.0886
37076SOL     OW18088  10.772   7.625   4.586 -0.4515 -0.0244  0.0534
37076SOL    HW118089  10.758   7.715   4.614  2.2192  1.3353 -2.3874
37076SOL    HW218090  10.827   7.586   4.654 -2.5498 -0.3249  1.7000
37077SOL     OW18091   9.023   9.695   6.878  0.4494  0.0745  0.7491
37077SOL    HW118092   8.987   9.687   6.966  1.7901  2.2376  1.5803
37077SOL    HW218093   8.979   9.770   6.840  1.3986  0.4837  0.4146
37078SOL     OW18094  11.355  12.348   8.687 -0.4201 -0.1111 -0.1445
37078SOL    HW118095  11.389  12.437   8.678  1.0623 -0.4922  1.2850
37078SOL    HW218096  11.313  12.330   8.603  0.3360  1.4778 -0.9090
37079SOL     OW18097   7.845   9.550  11.242  0.0166 -0.1740  0.0874
37079SOL    HW118098   7.867   9.548  11.148  0.4216  3.4926 -0.0288
37079SOL    HW218099   7.930   9.550  11.286  0.0085  1.8444  0.1988
37080SOL     OW18100   9.322   3.491   0.305 -0.4918 -0.5139  0.3510
37080SOL    HW118101   9.274   3.448   0.377  0.4361  0.2939  1.4890
37080SOL    HW218102   9.347   3.420   0.247 -0.1948 -1.3534  1.4763
37081SOL     OW18103   5.207   4.181   6.072  0.0971 -0.6029  0.0286
37081SOL    HW118104   5.160   4.099   6.080 -2.1194  0.4342 -1.4899
37081SOL    HW218105   5.178   4.218   5.989  0.1428  2.2497  1.1684
37082SOL     OW18106   0.296   7.662   0.120 -0.0742 -0.1321 -0.3366
37082SOL    HW118107   0.217   7.665   0.174  1.0464 -1.5688  1.4881
37082SOL    HW218108   0.322   7.570   0.120  2.8230  0.5644  1.0509
37083SOL     OW18109   5.785   4.413   4.921  0.7776  0.1464  0.2069
37083SOL    HW118110   5.836   4.335   4.904 -0.4362 -0.6537  0.0877
37083SOL    HW218111   5.802   4.433   5.013  1.1401 -0.2242  0.2233
37084SOL     OW18112   8.906   1.951   1.860 -0.4288 -0.3565 -0.4121
37084SOL    HW118113   8.932   2.041   1.879 -2.0644  0.1355 -0.3530
37084SOL    HW218114   8.970   1.920   1.796  0.5264  0.6161  0.0484
37085SOL     OW18115   9.351   1.780   4.967  0.1961 -0.0725 -0.4685
37085SOL    HW118116   9.363   1.748   4.877  0.1611 -0.0605 -0.4774
37085SOL    HW218117   9.262   1.754   4.990  0.6732 -1.3124  0.0742
37086SOL     OW18118   2.079   6.331   2.091  0.6194  0.0220 -0.4439
37086SOL    HW118119   2.020   6.288   2.030 -0.9633  1.3962  0.0273
37086SOL    HW218120   2.107   6.262   2.151  0.0792 -0.7977 -1.1211
37087SOL     OW18121   6.061   9.925   2.902  0.3594 -0.2426  0.2442
37087SOL    HW118122   6.044  10.014   2.871  0.3428 -0.0604  0.7548
37087SOL    HW218123   5.979   9.878   2.887 -0.2914  0.3526  1.7340
37088SOL     OW18124   4.300   7.431  12.439  0.8608 -0.1356 -0.2394
37088SOL    HW118125   4.312   7.440  12.534  0.4851 -1.0646 -0.0836
37088SOL    HW218126   4.368   7.369  12.412 -0.0007 -1.0923 -0.2926
37089SOL     OW18127  10.394   1.631   0.805  0.0667  0.0963 -0.3460
37089SOL    HW118128  10.311   1.676   0.824  0.7193  1.7571 -1.1994
37089SOL    HW218129  10.386   1.607   0.713  0.4027 -0.0106 -0.3453
37090SOL     OW18130   4.187   2.933   3.569 -0.8656 -0.1354  0.0151
37090SOL    HW118131   4.115   2.945   3.507  1.4474  0.4858 -2.8328
37090SOL    HW218132   4.228   2.851   3.541  0.5489  0.4304  0.3276
37091SOL     OW18133   1.638   5.747   0.097  0.7041  0.1705 -0.5498
37091SOL    HW118134   1.634   5.744   0.193  0.0613  0.4607 -0.5598
37091SOL    HW218135   1.730   5.757   0.076  0.7705  0.8526  0.0622
37092SOL     OW18136  10.796   2.305   3.163  0.5161  0.7803  0.2678
37092SOL    HW118137  10.872   2.258   3.198  1.0091  1.2407 -0.1653
37092SOL    HW218138  10.789   2.383   3.219 -3.3848 -2.0443  4.4445
37093SOL     OW18139  10.614  11.685   6.906  0.1046 -0.5083 -0.0032
37093SOL    HW118140  10.537  11.667   6.852 -0.0998 -0.8428  0.3933
37093SOL    HW218141  10.587  11.661   6.995  0.6878 -0.6910  0.1259
37094SOL     OW18142   1.748   3.461   3.875 -0.3082  0.4674  0.6456
37094SOL    HW118143   1.733   3.501   3.789 -0.8190 -0.0306  0.5012
37094SOL    HW218144   1.837   3.487   3.897 -0.6601  1.8027  0.6157
37095SOL     OW18145  10.804   9.736  11.982  0.0495  0.7756  0.0971
37095SOL    HW118146  10.877   9.699  12.033 -0.3307  0.9249  0.7717
37095SOL    HW218147  10.727   9.688  12.012  0.0301 -0.2694 -1.5397
37096SOL     OW18148   6.278   8.908  11.062 -0.0211 -0.1327  0.3404
37096SOL    HW118149   6.273   8.966  10.986  0.7312 -0.4580  0.0315
37096SOL    HW218150   6.365   8.869  11.056  0.2586  0.2594  1.6883
37097SOL     OW18151   7.152   8.579   5.910 -0.0035 -0.4181  0.0794
37097SOL    HW118152   7.175   8.583   5.818 -0.5192 -1.5044 -0.1106
37097SOL    HW218153   7.083   8.513   5.915  0.3314 -0.7037  1.3056
37098SOL     OW18154   8.834   0.928   3.169 -0.1643  0.2101  0.1094
37098SOL    HW118155   8.780   1.006   3.180 -1.1391 -0.4894  0.4017
37098SOL    HW218156   8.772   0.857   3.153  0.7622 -0.2981 -1.5136
37099SOL     OW18157   7.104   7.154  11.697  0.3792  0.1067  0.2854
37099SOL    HW118158   7.028   7.108  11.733 -0.4189  0.9455 -0.2903
37099SOL    HW218159   7.122   7.109  11.614  0.5049 -0.0735  0.4084
37100SOL     OW18160   5.604   4.615  11.204  0.3352 -0.7815 -0.5366
37100SOL    HW118161   5.609   4.710  11.215  1.9603 -0.7325 -1.4020
37100SOL    HW218162   5.673   4.581  11.261 -1.8032 -1.6850  1.7038
37101SOL     OW18163   4.483   9.905   7.539  0.2994 -0.1532  0.1978
37101SOL    HW118164   4.495   9.999   7.551 -2.2239  0.6561 -2.4452
37101SOL    HW218165   4.500   9.891   7.445 -1.0022 -2.0123  0.1864
37102SOL     OW18166   9.605   0.678   1.715 -0.1861 -0.6715 -0.4574
37102SOL    HW118167   9.700   0.694   1.710 -0.1855 -0.6421 -0.3362
37102SOL    HW218168   9.568   0.761   1.745 -0.3926 -0.2363 -1.8080
37103SOL     OW18169  12.461   9.935   2.762  0.0784 -0.3874 -0.0506
37103SOL    HW118170  12.469   9.923   2.857 -0.3071  1.4056  0.2405
37103SOL    HW218171  12.377   9.896   2.739 -1.8829  2.7719  1.1116
37104SOL     OW18172   7.527  11.528   3.915 -0.2898 -0.2243  0.8164
37104SOL    HW118173   7.601  11.586   3.898  0.0922 -0.9109  0.0454
37104SOL    HW218174   7.465  11.582   3.964 -0.6719  1.3948 -1.2703
37105SOL     OW18175   8.780  10.331   6.372 -0.0411  0.1584 -0.4037
37105SOL    HW118176   8.739  10.268   6.313 -0.3856 -1.1318  1.1405
37105SOL    HW218177   8.758  10.300   6.460 -1.1098  2.9963  0.4601
37106SOL     OW18178   1.246   2.111  12.275  0.0154 -0.0520  0.0298
37106SOL    HW118179   1.246   2.049  12.202 -0.5485 -0.1768  0.1266
37106SOL    HW218180   1.184   2.179  12.249 -0.0474 -0.0003  0.3095
37107SOL     OW18181  11.185   4.780   9.731 -0.3617 -0.6379 -0.1624
37107SOL    HW118182  11.275   4.747   9.734 -0.3237 -0.5831 -0.6388
37107SOL    HW218183  11.193   4.872   9.757 -0.0592 -0.2074 -1.7134
37108SOL     OW18184   5.923   2.215   5.965  0.0808 -0.2582  0.1470
37108SOL    HW118185   5.900   2.296   6.011 -2.7833 -0.5634 -0.5906
37108SOL    HW218186   5.927   2.148   6.033 -0.4565 -0.0220  0.4145
37109SOL     OW18187   4.566   5.679   2.296 -0.3326 -0.2316 -0.2715
37109SOL    HW118188   4.653   5.659   2.262 -1.1280 -0.2180 -2.4935
37109SOL    HW218189   4.553   5.617   2.368  0.4100 -2.2197 -1.7653
37110SOL     OW18190   8.137   5.552   5.331 -0.1246 -0.2979  0.1829
37110SOL    HW118191   8.213   5.518   5.283 -0.6290 -0.7407 -0.3137
37110SOL    HW218192   8.084   5.475   5.349 -0.0796 -0.0938  1.2267
37111SOL     OW18193   9.956   0.548   5.454  0.5154 -0.1024  0.0952
37111SOL    HW118194   9.959   0.639   5.426  1.4931 -0.0793  0.2412
37111SOL    HW218195   9.872   0.515   5.420 -0.6950  1.3186  1.5433
37112SOL     OW18196   8.072  11.493   0.321 -0.0595  0.4621 -0.1716
37112SOL    HW118197   8.162  11.473   0.297 -0.5971 -1.2785 -0.8842
37112SOL    HW218198   8.024  11.489   0.239 -0.9362  0.4948  0.3283
37113SOL     OW18199  11.078   0.607   3.606  0.0463 -0.3093 -0.2830
37113SOL    HW118200  11.113   0.682   3.655 -0.0598  0.6482 -1.6230
37113SOL    HW218201  11.154   0.549   3.593  0.3325  0.0113 -0.0597
37114SOL     OW18202   2.010   7.334  10.009  0.2025 -0.4198  0.2858
37114SOL    HW118203   2.016   7.260  10.069  0.0592 -0.0212  0.8035
37114SOL    HW218204   2.032   7.410  10.064  0.9230 -0.1420 -0.3721
37115SOL     OW18205   7.003   1.096   4.895 -0.0770  0.2857 -0.3687
37115SOL    HW118206   6.931   1.077   4.954  1.9763  0.8746  2.5292
37115SOL    HW218207   6.962   1.145   4.823 -2.8157 -1.1551  0.0747
37116SOL     OW18208   4.503   8.061   1.745 -0.7586  0.2230 -0.8795
37116SOL    HW118209   4.554   8.080   1.666  2.3613 -0.8285  0.6884
37116SOL    HW218210   4.505   7.965   1.751 -3.0422  0.1429 -0.7375
37117SOL     OW18211   4.060   1.761  10.378 -0.3803  0.1819 -0.1501
37117SOL    HW118212   4.086   1.688  10.323  1.6328  1.0345 -0.4193
37117SOL    HW218213   3.964   1.766  10.369 -0.1971 -0.1642 -2.9678
37118SOL     OW18214  10.210   5.703   4.743  0.3309 -0.5764  0.1557
37118SOL    HW118215  10.130   5.649   4.746 -0.7039  0.7805 -1.4009
37118SOL    HW218216  10.210   5.751   4.825 -0.6617 -0.3273  0.0190
37119SOL     OW18217   6.819  10.923   8.982  0.8446  0.7315 -0.2144
37119SOL    HW118218   6.818  11.008   8.939 -2.2682 -0.4671 -2.9843
37119SOL    HW218219   6.841  10.861   8.913 -2.2057 -1.1149  0.2624
37120SOL     OW18220  12.294   0.375   7.837  0.8092 -0.6662 -0.8257
37120SOL    HW118221  12.270   0.286   7.811  1.1416 -1.5826  1.7435
37120SOL    HW218222  12.372   0.364   7.891  1.2306  1.2742 -0.9799
37121SOL     OW18223  11.268   2.036  10.656  0.1451 -0.2280 -0.2129
37121SOL    HW118224  11.340   1.977  10.636  0.8849  0.5447  0.0971
37121SOL    HW218225  11.207   1.983  10.707  1.3105 -0.4603  1.0052
37122SOL     OW18226   1.182   0.236   9.674 -0.1333  0.3255  0.3310
37122SOL    HW118227   1.253   0.229   9.738  1.0208  0.7154 -0.8574
37122SOL    HW218228   1.192   0.324   9.637  1.6408 -1.0657 -3.0045
37123SOL     OW18229  11.507   6.230  10.633 -0.2942  0.0934 -0.0412
37123SOL    HW118230  11.422   6.187  10.639 -0.4564 -0.0270 -2.5563
37123SOL    HW218231  11.489   6.321  10.659 -0.9273 -0.2026  0.5938
37124SOL     OW18232   4.879  10.202   2.299 -0.6325 -0.3369 -0.1980
37124SOL    HW118233   4.788  10.182   2.323 -1.0852  0.4844 -1.1592
37124SOL    HW218234   4.881  10.297   2.290  0.3660 -0.3342 -0.0821
37125SOL     OW18235   6.101   9.806   8.585 -0.2670  0.5376  0.3208
37125SOL    HW118236   6.145   9.733   8.628 -2.3394 -0.8597  0.2181
37125SOL    HW218237   6.105   9.878   8.648 -2.6739 -1.2479  2.7416
37126SOL     OW18238   4.944   9.780   1.871  0.1209  0.1696 -0.5557
37126SOL    HW118239   4.892   9.809   1.797  0.1048 -1.2406 -1.1282
37126SOL    HW218240   5.033   9.776   1.838  0.2828  0.5958 -0.1747
37127SOL     OW18241  10.194   0.368   3.909  0.1619 -0.0081 -0.6508
37127SOL    HW118242  10.235   0.452   3.888  0.1124  0.3192  0.4956
37127SOL    HW218243  10.111   0.368   3.861 -1.2570  1.9207  1.5814
37128SOL     OW18244   9.416  10.353  11.210  0.0659  0.4323  0.2552
37128SOL    HW118245   9.421  10.433  11.261  0.9866 -0.7663  2.1863
37128SOL    HW218246   9.470  10.290  11.259 -1.5503 -1.6955 -0.5093
37129SOL     OW18247   6.901   6.650  10.645  0.0383 -0.3853  0.1630
37129SOL    HW118248   6.850   6.622  10.721  0.7182 -0.1158  0.7295
37129SOL    HW218249   6.840   6.703  10.594 -0.4128 -0.5301  0.5417
37130SOL     OW18250   0.793   4.222   6.152  0.2062  0.3796 -0.1387
37130SOL    HW118251   0.841   4.197   6.073 -0.3578  0.2734 -0.4537
37130SOL    HW218252   0.842   4.181   6.223  1.4708  1.5412 -0.2853
37131SOL     OW18253  10.156   2.290   9.400  0.1786  0.0623 -0.4318
37131SOL    HW118254  10.182   2.213   9.450  0.5859  0.1894 -0.4424
37131SOL    HW218255  10.076   2.321   9.442  0.1336 -0.2433 -0.2968
37132SOL     OW18256   1.617  12.281  12.190  0.1109 -0.6096 -0.3667
37132SOL    HW118257   1.572  12.320  12.265  1.8466  0.7125  0.0547
37132SOL    HW218258   1.551  12.277  12.122 -0.4972  1.9740 -0.0187
37133SOL     OW18259   7.552   5.100  10.502  0.3096 -0.2961 -0.1595
37133SOL    HW118260   7.576   5.138  10.586  1.1762 -2.1753  0.5020
37133SOL    HW218261   7.528   5.175  10.447 -0.4995  0.9548  1.8018
37134SOL     OW18262   8.065   2.101   9.773 -0.4753 -0.0954  0.3293
37134SOL    HW118263   8.129   2.054   9.720  0.3095 -0.5563  1.6485
37134SOL    HW218264   8.005   2.033   9.806 -0.4073  0.0532  0.7723
37135SOL     OW18265   0.326   9.481   2.680  0.1138 -0.4284  0.2690
37135SOL    HW118266   0.389   9.498   2.610  1.4519  3.5229  2.1391
37135SOL    HW218267   0.240   9.497   2.641  0.6780 -0.1980 -0.9078
37136SOL     OW18268   7.188   4.325  10.983 -0.3816 -0.0669 -0.3659
37136SOL    HW118269   7.206   4.265  10.911 -0.9092  0.4656 -0.9508
37136SOL    HW218270   7.115   4.285  11.031  0.6536 -0.9546  0.5207
37137SOL     OW18271  10.834   8.626   0.756  0.3044 -0.2396  0.3955
37137SOL    HW118272  10.834   8.624   0.852  1.3580 -3.5505  0.4493
37137SOL    HW218273  10.911   8.575   0.731 -0.3474 -0.0777 -2.2089
37138SOL     OW18274   6.083   3.564   9.136 -0.0815  0.2463 -0.3113
37138SOL    HW118275   6.166   3.519   9.121 -0.2195 -0.0752 -0.1290
37138SOL    HW218276   6.096   3.652   9.099  1.1124  0.9837  1.7209
37139SOL     OW18277   5.088   2.690   9.134 -0.3860 -0.0356  0.2971
37139SOL    HW118278   5.112   2.601   9.160 -1.4272  0.1943  2.2049
37139SOL    HW218279   5.008   2.679   9.082 -0.3069 -0.2457  0.2183
37140SOL     OW18280  10.397   0.991   9.231 -0.6304 -0.0214 -0.2906
37140SOL    HW118281  10.483   1.032   9.216 -0.5980 -0.1061 -0.3368
37140SOL    HW218282  10.335   1.063   9.223 -0.5221  0.1370  0.2488
37141SOL     OW18283  11.612   0.151   2.348  0.3042  0.4191 -0.6283
37141SOL    HW118284  11.691   0.204   2.354  1.5403 -1.1474 -1.9914
37141SOL    HW218285  11.565   0.186   2.272  0.1726  0.7391 -0.3997
37142SOL     OW18286   4.119   4.246   4.724  0.0402 -0.3449 -0.2900
37142SOL    HW118287   4.069   4.260   4.644 -1.1511  1.8617  0.7582
37142SOL    HW218288   4.193   4.306   4.717  1.0157 -1.5289 -0.5371
37143SOL     OW18289  10.735   3.670   1.417  0.4130  0.5619  0.5921
37143SOL    HW118290  10.658   3.641   1.368  0.6439  0.7691  0.1004
37143SOL    HW218291  10.714   3.650   1.508  0.1860 -0.3030  0.3662
37144SOL     OW18292   4.650  11.648   8.174  0.0577  0.4464  0.3150
37144SOL    HW118293   4.728  11.699   8.153  0.8255 -0.8445 -0.1412
37144SOL    HW218294   4.685  11.563   8.202 -1.1794 -0.1573  0.0858
37145SOL     OW18295   4.872   4.762   6.194 -0.1026  0.7038  0.5726
37145SOL    HW118296   4.923   4.825   6.246  0.3561 -0.0184  1.0119
37145SOL    HW218297   4.869   4.800   6.106 -0.8684  1.9339  1.1045
37146SOL     OW18298   4.209   4.097   5.440 -0.1033  0.0666  0.2388
37146SOL    HW118299   4.170   4.109   5.353  1.9269  2.6565 -0.4409
37146SOL    HW218300   4.240   4.007   5.440 -0.3130 -0.0552 -1.6944
37147SOL     OW18301   2.581   3.564   2.373 -0.6016  0.0568 -0.3240
37147SOL    HW118302   2.676   3.574   2.370 -0.6176  0.1046 -0.6525
37147SOL    HW218303   2.547   3.638   2.323 -0.7810 -0.5502 -1.1041
37148SOL     OW18304   4.347   3.446  11.174 -0.1237  0.0849  0.1762
37148SOL    HW118305   4.378   3.367  11.218 -2.4793 -1.5498 -0.8628
37148SOL    HW218306   4.345   3.422  11.081 -1.1149  1.2743 -0.1356
37149SOL     OW18307   6.174   3.328   8.206  0.5082 -0.1106 -0.5774
37149SOL    HW118308   6.088   3.345   8.168  0.0969  0.0484  0.3897
37149SOL    HW218309   6.178   3.233   8.213  0.3133 -0.1080 -0.4108
37150SOL     OW18310   4.270   9.181   3.487 -0.2244 -0.4300 -0.5214
37150SOL    HW118311   4.313   9.266   3.485 -0.6698 -0.1263  1.2264
37150SOL    HW218312   4.300   9.141   3.569 -2.0862 -0.8248  0.0112
37151SOL     OW18313   4.505  11.196   9.926  0.2513  0.3976 -0.0760
37151SOL    HW118314   4.595  11.209   9.897  0.1415  0.6049 -0.3293
37151SOL    HW218315   4.484  11.107   9.898 -0.3880  1.1202 -2.1014
37152SOL     OW18316   7.506   6.384   3.716 -0.5234 -0.0488  0.0609
37152SOL    HW118317   7.476   6.356   3.629 -1.0999  0.9809 -0.0778
37152SOL    HW218318   7.599   6.360   3.717 -0.2385  0.8908 -1.2686
37153SOL     OW18319  10.235  10.811   1.616  0.0849  0.4168 -0.0429
37153SOL    HW118320  10.192  10.745   1.669 -2.5203  1.9736 -0.0285
37153SOL    HW218321  10.164  10.866   1.583  1.9635  2.2305 -1.4037
37154SOL     OW18322   4.013   6.959   5.149 -0.1916 -0.0102  0.1489
37154SOL    HW118323   4.105   6.944   5.127  0.1070  0.9587  0.6563
37154SOL    HW218324   3.986   6.881   5.197  0.6164  0.0509  0.7195
37155SOL     OW18325   5.314   4.446   2.809  0.0544 -0.6866  0.8215
37155SOL    HW118326   5.226   4.417   2.833  0.4291 -0.9916  1.8643
37155SOL    HW218327   5.355   4.371   2.768 -0.1870 -0.5292  0.2910
37156SOL     OW18328   9.129   6.324   4.288 -0.0747 -0.1767 -0.0406
37156SOL    HW118329   9.094   6.312   4.376 -0.2731  0.9081  0.0382
37156SOL    HW218330   9.178   6.407   4.292 -0.3176  0.0330 -1.0146
37157SOL     OW18331   2.203   1.683  12.043 -0.0809 -0.7683  0.0613
37157SOL    HW118332   2.266   1.634  11.992 -0.3091  0.5586 -1.5854
37157SOL    HW218333   2.123   1.683  11.990 -0.2785  0.7926  0.2816
37158SOL     OW18334   3.901   2.959  12.079 -0.0156 -0.3991  0.1279
37158SOL    HW118335   3.867   2.990  11.996  0.2686 -1.2833 -0.3367
37158SOL    HW218336   3.834   2.897  12.110  0.8064 -1.6354 -0.4655
37159SOL     OW18337   1.869   5.413  11.335  0.2394  0.3115  0.1885
37159SOL    HW118338   1.917   5.343  11.292  0.5234 -0.4679  1.7084
37159SOL    HW218339   1.806   5.443  11.269 -1.3013 -2.7638  0.0781
37160SOL     OW18340   9.007   2.827   1.782 -0.4313  0.2247  0.2690
37160SOL    HW118341   9.033   2.742   1.745  1.7328  0.7895  0.3511
37160SOL    HW218342   8.944   2.804   1.850 -1.9217 -1.0817 -1.4473
37161SOL     OW18343   3.007   7.485   8.898  0.1460  0.1480  0.4176
37161SOL    HW118344   2.917   7.474   8.868  0.2946 -0.3798  0.1384
37161SOL    HW218345   3.000   7.522   8.986 -0.3827 -1.0837  0.9193
37162SOL     OW18346   4.233   6.910  10.461  0.2042 -0.6120  0.5486
37162SOL    HW118347   4.166   6.964  10.420  0.8955 -0.8970 -1.0131
37162SOL    HW218348   4.206   6.905  10.553 -1.3779  0.0726  0.1611
37163SOL     OW18349  10.935   5.102   7.750 -0.2824  0.2181 -0.3738
37163SOL    HW118350  10.951   5.008   7.741  0.4700  0.1386  1.4491
37163SOL    HW218351  10.843   5.108   7.777  0.1782 -0.1648  1.4237
37164SOL     OW18352  10.485   7.913   7.524  0.3885  0.2493 -0.1088
37164SOL    HW118353  10.404   7.958   7.548 -1.9367 -3.7635  0.3508
37164SOL    HW218354  10.548   7.940   7.591 -1.3801  1.2702  1.2485
37165SOL     OW18355   8.654   7.551  10.465  0.5696 -0.1727  0.0138
37165SOL    HW118356   8.680   7.480  10.405  0.1924  0.5782 -1.0708
37165SOL    HW218357   8.584   7.597  10.418  0.1574  0.3473  1.1134
37166SOL     OW18358   6.105   1.957  10.437  0.4124 -0.0470 -0.7279
37166SOL    HW118359   6.166   1.897  10.480  0.0325 -0.7433 -1.1453
37166SOL    HW218360   6.156   1.997  10.367  0.6818  0.1716 -0.4144
37167SOL     OW18361  10.791   0.155   8.196 -0.0873 -0.2044 -0.2765
37167SOL    HW118362  10.782   0.067   8.233 -0.4580  0.9198  2.5278
37167SOL    HW218363  10.879   0.156   8.159  0.5548 -1.2719  1.1062
37168SOL     OW18364   4.291   9.695   6.561 -0.6457 -0.0578  0.2588
37168SOL    HW118365   4.288   9.779   6.514 -1.6038 -0.9281 -1.3298
37168SOL    HW218366   4.384   9.674   6.566 -0.3939  1.0749  0.6627
37169SOL     OW18367   6.256   6.641   7.336  0.7957 -0.0065 -0.2196
37169SOL    HW118368   6.205   6.589   7.274  0.2671  1.5779 -1.1933
37169SOL    HW218369   6.317   6.579   7.376 -0.2916 -1.4820 -0.7719
37170SOL     OW18370   5.924   6.433   4.661 -0.2025  0.3974  0.0377
37170SOL    HW118371   5.878   6.349   4.661  0.1998  0.1701  0.4817
37170SOL    HW218372   5.949   6.447   4.752 -1.6044  1.7644  0.2637
37171SOL     OW18373   1.367   7.564   4.360 -0.5985  0.5700 -0.2876
37171SOL    HW118374   1.433   7.508   4.400 -1.5522 -0.3637 -0.0026
37171SOL    HW218375   1.288   7.549   4.411 -0.8341  2.3550 -0.0544
37172SOL     OW18376   0.352   3.149   1.234  0.2169  0.2496  0.4818
37172SOL    HW118377   0.263   3.175   1.255 -0.1248 -0.8916  0.5227
37172SOL    HW218378   0.407   3.210   1.282 -0.5465  0.4697  1.0919
37173SOL     OW18379   1.139   0.057   2.383  0.3902 -0.2356  0.8210
37173SOL    HW118380   1.155   0.008   2.302  1.1738  0.0097  0.8187
37173SOL    HW218381   1.132   0.148   2.354 -3.4285 -0.4832  0.4946
37174SOL     OW18382   9.738   8.822   9.724 -0.0617  0.3627 -0.0971
37174SOL    HW118383   9.824   8.815   9.765 -1.0738  1.8758  2.5128
37174SOL    HW218384   9.724   8.736   9.684  1.8127 -0.5923  1.1384
37175SOL     OW18385   2.919  11.152  12.172 -0.0795  0.3225  0.0512
37175SOL    HW118386   2.944  11.222  12.112  0.3079 -0.7658 -1.0881
37175SOL    HW218387   2.937  11.071  12.125 -0.0994 -0.5773  1.5040
37176SOL     OW18388   8.664  11.887   5.329  0.1933  0.3760  0.5225
37176SOL    HW118389   8.718  11.941   5.272  0.7484 -1.7271 -1.0960
37176SOL    HW218390   8.725  11.855   5.396 -0.0622  1.4453  1.2853
37177SOL     OW18391  10.035   7.252  11.853 -0.7118 -0.3152  0.0143
37177SOL    HW118392   9.965   7.251  11.788 -0.3735  0.0548 -0.3592
37177SOL    HW218393   9.989   7.253  11.937 -1.2407  2.2759 -0.2064
37178SOL     OW18394   1.450   8.548   7.739  0.5226 -0.2299  0.2716
37178SOL    HW118395   1.389   8.503   7.681  0.9224 -1.6641  0.9154
37178SOL    HW218396   1.466   8.486   7.810  2.8510  0.0077  0.0390
37179SOL     OW18397  11.893   3.649   2.647 -0.4436  0.0725 -0.0055
37179SOL    HW118398  11.865   3.617   2.733 -0.3177  0.4621  0.1802
37179SOL    HW218399  11.978   3.691   2.664 -0.4646  0.2327 -0.3043
37180SOL     OW18400   5.669   6.323   0.063 -0.1218 -0.3510  0.0480
37180SOL    HW118401   5.595   6.370   0.102 -0.4892 -1.4033  0.6646
37180SOL    HW218402   5.656   6.232   0.089  0.1852 -0.9287 -1.7256
37181SOL     OW18403   3.867  10.493   4.261 -0.0802 -0.9386  0.3782
37181SOL    HW118404   3.873  10.535   4.346  1.9222 -0.9324  0.2790
37181SOL    HW218405   3.873  10.399   4.279 -1.1666 -1.0335  0.3329
37182SOL     OW18406   5.824   9.801   0.964 -0.0270 -0.3619  0.3880
37182SOL    HW118407   5.912   9.789   0.929  0.5762  0.4312  1.5603
37182SOL    HW218408   5.834   9.870   1.030 -1.2288 -1.3299  1.6318
37183SOL     OW18409   7.023  12.293  10.659 -0.1754 -0.7435  0.8865
37183SOL    HW118410   7.035  12.272  10.566  0.5276  1.4476  0.4251
37183SOL    HW218411   7.106  12.268  10.700  0.1874 -0.0500  0.5830
37184SOL     OW18412   5.783  10.835   8.678  0.4642 -0.1031  0.0691
37184SOL    HW118413   5.824  10.916   8.712 -0.9651  0.6367  0.0962
37184SOL    HW218414   5.788  10.774   8.752 -1.1922  0.9824  1.1432
37185SOL     OW18415   8.259  10.927   9.371 -0.1001 -0.4077 -0.4812
37185SOL    HW118416   8.167  10.912   9.391  0.3503 -1.0929  1.2950
37185SOL    HW218417   8.305  10.902   9.451  1.6823 -0.6714 -1.5413
37186SOL     OW18418  11.474  12.170   6.378 -0.1785  0.2170  0.2561
37186SOL    HW118419  11.475  12.257   6.338  0.3005  0.5866  1.0272
37186SOL    HW218420  11.527  12.181   6.458  1.3844 -1.2141 -0.5163
37187SOL     OW18421   0.829   5.633  11.558 -0.5420  0.4045  0.2407
37187SOL    HW118422   0.841   5.548  11.600 -0.3439  0.1076 -0.4052
37187SOL    HW218423   0.734   5.643  11.550 -0.5621  0.1747  0.1921
37188SOL     OW18424   7.284   1.814   9.173  0.0958 -0.1026  0.4021
37188SOL    HW118425   7.342   1.851   9.239 -1.0583  0.4424  1.1462
37188SOL    HW218426   7.199   1.856   9.190 -0.2596 -0.0581 -1.3372
37189SOL     OW18427  11.437   6.006   5.144 -0.0896  0.0675  0.4367
37189SOL    HW118428  11.500   5.984   5.213 -0.6754 -1.6883  0.4472
37189SOL    HW218429  11.462   5.950   5.071 -0.5091  0.7164 -0.2105
37190SOL     OW18430   4.914  11.896   3.113  0.2513  0.3023 -0.4600
37190SOL    HW118431   4.953  11.862   3.033 -0.0821 -0.2323 -0.4039
37190SOL    HW218432   4.988  11.906   3.173  1.0605  3.8066 -1.8007
37191SOL     OW18433   4.551   7.038   3.494  0.0922  0.5179  0.3544
37191SOL    HW118434   4.569   7.126   3.529  0.3090  0.3776  0.5930
37191SOL    HW218435   4.469   7.048   3.447 -0.1798  0.7184  0.8667
37192SOL     OW18436   0.252   7.566   6.580  0.1648 -0.2687 -0.0423
37192SOL    HW118437   0.168   7.554   6.535  0.9993 -1.5915 -1.3449
37192SOL    HW218438   0.244   7.651   6.624 -0.8916  0.8560 -2.2716
37193SOL     OW18439   4.568   5.700  11.030 -0.1608 -0.1151 -0.1997
37193SOL    HW118440   4.508   5.664  10.965  1.0371  0.9938 -2.0145
37193SOL    HW218441   4.620   5.625  11.059 -0.1316 -0.4886 -1.1977
37194SOL     OW18442  10.736   6.288   9.264 -0.3637 -0.1141 -0.0380
37194SOL    HW118443  10.682   6.364   9.286  1.9791  2.1338 -1.5078
37194SOL    HW218444  10.736   6.286   9.168  2.3073  0.1618 -0.1078
37195SOL     OW18445   8.649   7.706   1.430  0.0842 -0.2408  0.5375
37195SOL    HW118446   8.584   7.645   1.396  1.5904 -1.5822 -0.0605
37195SOL    HW218447   8.697   7.737   1.353 -0.3838  1.4421  0.8714
37196SOL     OW18448   1.307   5.812   0.613 -0.1702  0.2441  0.5903
37196SOL    HW118449   1.392   5.814   0.657 -0.6571  1.5398  1.5141
37196SOL    HW218450   1.272   5.900   0.623 -0.8549  0.2416 -1.3480
37197SOL     OW18451  11.658   0.929  11.056 -0.2314 -0.2046 -0.6294
37197SOL    HW118452  11.584   0.967  11.103 -0.7882 -1.8958 -0.0901
37197SOL    HW218453  11.619   0.885  10.981  0.6637  2.7904 -3.0623
37198SOL     OW18454   7.260   1.891   3.461  0.9031 -0.4748 -0.2910
37198SOL    HW118455   7.283   1.959   3.524  1.7707  0.2833 -1.3819
37198SOL    HW218456   7.292   1.810   3.500  2.0444  0.0700 -0.0479
37199SOL     OW18457   0.168   4.743   9.743  0.3552 -0.4260  0.0636
37199SOL    HW118458   0.202   4.814   9.798  1.3411 -0.5140 -0.4063
37199SOL    HW218459   0.085   4.720   9.784  1.2619 -0.8092  1.8230
37200SOL     OW18460   5.951   3.863  10.261 -0.0418  0.1154  0.1204
37200SOL    HW118461   5.906   3.797  10.210 -0.1686  0.5454 -0.3266
37200SOL    HW218462   5.996   3.918  10.197  1.0197 -0.2303  0.5490
37201SOL     OW18463   5.784  11.525   4.097 -0.8684 -0.0592  0.0008
37201SOL    HW118464   5.756  11.495   4.183 -2.5110  1.9968  0.2587
37201SOL    HW218465   5.874  11.555   4.111  0.0367 -2.5911  0.2038
37202SOL     OW18466   5.370   3.298   0.396  0.2845  0.0133  0.1742
37202SOL    HW118467   5.432   3.228   0.416 -0.8610 -1.3499 -0.8166
37202SOL    HW218468   5.364   3.298   0.300 -0.5748  0.6881  0.2157
37203SOL     OW18469   4.959   1.270   0.629 -0.0671 -0.3316  0.1544
37203SOL    HW118470   5.016   1.205   0.671 -0.3069 -0.8724 -0.3361
37203SOL    HW218471   4.917   1.222   0.557 -0.7666  0.1866  0.2053
37204SOL     OW18472   6.291   7.821   6.014  0.2829 -0.6698  0.2264
37204SOL    HW118473   6.357   7.864   6.069  1.2778 -0.9707 -0.7013
37204SOL    HW218474   6.287   7.875   5.935  0.2782 -1.3126 -0.2161
37205SOL     OW18475   1.527   7.177  12.085 -0.3130 -0.0235 -0.8748
37205SOL    HW118476   1.496   7.224  12.008 -0.8694 -0.5808 -0.9970
37205SOL    HW218477   1.479   7.217  12.158 -0.4008 -0.0493 -0.9173
37206SOL     OW18478   5.809   4.556   5.832 -0.1477 -0.0288  0.1801
37206SOL    HW118479   5.774   4.502   5.903 -1.0715 -0.2990 -0.4525
37206SOL    HW218480   5.847   4.492   5.771 -0.2666  0.1155 -0.0469
37207SOL     OW18481   5.750   7.279   3.486  0.1268  0.8624 -0.4441
37207SOL    HW118482   5.740   7.292   3.392 -0.5505 -0.6584 -0.6209
37207SOL    HW218483   5.842   7.295   3.504  1.0866 -2.0814 -2.0054
37208SOL     OW18484   1.941  11.928  10.688 -0.0710 -0.1626 -0.0087
37208SOL    HW118485   2.031  11.915  10.717  0.0844 -0.5641 -0.6540
37208SOL    HW218486   1.939  12.019  10.656  0.0918 -0.1396  0.0467
37209SOL     OW18487   0.906   8.410   3.270 -0.4573 -0.2615 -0.1245
37209SOL    HW118488   0.817   8.377   3.258 -1.0283  0.2453  2.1009
37209SOL    HW218489   0.954   8.337   3.308 -0.2722 -0.1732 -0.1883
37210SOL     OW18490   5.406   1.695   1.246  0.3008 -0.4872 -0.2343
37210SOL    HW118491   5.354   1.697   1.166  0.6024 -2.8221 -0.5615
37210SOL    HW218492   5.345   1.666   1.314  0.2059  0.8392  0.2742
37211SOL     OW18493   1.549  10.744  10.464 -0.0380 -0.1898 -0.0911
37211SOL    HW118494   1.569  10.661  10.508  0.3410  0.2591  0.6209
37211SOL    HW218495   1.626  10.798  10.481  0.8370 -0.5110 -2.6939
37212SOL     OW18496   3.892  11.828  11.409 -0.3312  0.4797 -0.0893
37212SOL    HW118497   3.906  11.844  11.316 -0.4459  0.6225 -0.0831
37212SOL    HW218498   3.798  11.807  11.415  0.1868 -2.4124 -0.4188
37213SOL     OW18499   4.377  11.154   3.564 -0.7005 -0.1206 -0.5588
37213SOL    HW118500   4.353  11.062   3.569 -2.1257  0.1973 -1.1418
37213SOL    HW218501   4.345  11.183   3.479 -0.4519  0.9736 -0.2994
37214SOL     OW18502  10.999  12.232  11.259  0.0081  0.3393 -0.3694
37214SOL    HW118503  11.007  12.139  11.283  2.6469  0.2969 -1.1103
37214SOL    HW218504  11.063  12.277  11.313 -0.9665  1.7098 -0.3058
37215SOL     OW18505   2.043  11.234   5.918 -0.0784  0.5422  0.6951
37215SOL    HW118506   2.028  11.327   5.935  2.2234  0.9635  0.6959
37215SOL    HW218507   2.120  11.232   5.860  0.4885 -1.3780  1.4382
37216SOL     OW18508  11.904  11.917  12.464  0.5510  0.4947  0.2047
37216SOL    HW118509  11.853  11.944  12.541 -2.9257  0.3268 -1.8150
37216SOL    HW218510  11.838  11.900  12.397  3.3601  0.0040 -2.6653
37217SOL     OW18511   5.885   1.497   9.022 -0.3148  0.3741  0.4673
37217SOL    HW118512   5.896   1.515   8.928  1.2798  0.2845  0.6121
37217SOL    HW218513   5.960   1.442   9.044 -1.6699 -1.1722  1.4086
37218SOL     OW18514   5.674   8.839   2.315 -0.5415  1.0314  0.3046
37218SOL    HW118515   5.669   8.750   2.350  0.4626  1.0700  0.5577
37218SOL    HW218516   5.584   8.860   2.291 -1.2287  0.9189  2.6092
37219SOL     OW18517   9.828   6.800   2.623 -0.2328 -0.3558 -0.0282
37219SOL    HW118518   9.808   6.885   2.661  1.5626 -0.6740  1.8548
37219SOL    HW218519   9.748   6.749   2.634  0.1391 -0.4153  3.5355
37220SOL     OW18520  10.982   9.030   2.519  0.4190 -0.5353 -0.8153
37220SOL    HW118521  10.969   9.015   2.426  1.1730 -1.9000 -0.7257
37220SOL    HW218522  11.063   8.983   2.540 -0.3280 -1.1971  0.7411
37221SOL     OW18523   1.414  10.727   3.375  0.1274 -0.2765 -0.1339
37221SOL    HW118524   1.422  10.794   3.308  0.1517 -0.5365 -0.3895
37221SOL    HW218525   1.343  10.670   3.344  1.2261 -1.3459 -0.7570
37222SOL     OW18526  12.088   0.098   6.694 -0.1616 -0.0738 -0.0149
37222SOL    HW118527  12.169   0.108   6.745  0.4086 -1.1915 -0.6863
37222SOL    HW218528  12.091   0.170   6.631  0.4859 -0.3266 -0.2766
37223SOL     OW18529   5.252   2.308   2.759  0.3577  0.3131 -0.1696
37223SOL    HW118530   5.232   2.223   2.799 -0.3973  0.4285 -0.2802
37223SOL    HW218531   5.299   2.356   2.828 -2.9963  1.4056  1.6007
37224SOL     OW18532   2.979   4.411   6.656 -0.7711 -0.8643 -0.4893
37224SOL    HW118533   2.891   4.443   6.673 -1.5839 -2.1123 -2.0374
37224SOL    HW218534   2.992   4.341   6.720 -1.1712 -1.0977 -0.6574
37225SOL     OW18535   0.070   9.112   6.982 -0.1025 -0.1416  0.0220
37225SOL    HW118536   0.148   9.057   6.971  0.7248  1.0459 -0.2418
37225SOL    HW218537   0.057   9.152   6.896 -0.8565 -0.1386  0.1363
37226SOL     OW18538   4.682   5.578   8.078 -0.4366 -0.7070 -0.1877
37226SOL    HW118539   4.706   5.644   8.144 -0.2265 -0.4158 -0.5532
37226SOL    HW218540   4.668   5.629   7.998  0.9784 -1.2459 -0.7994
37227SOL     OW18541   0.437  11.816  11.823 -0.3460  0.0936  0.2066
37227SOL    HW118542   0.424  11.881  11.754  3.4632  1.1173  0.2436
37227SOL    HW218543   0.526  11.831  11.853 -0.1383 -3.6260  1.9263
37228SOL     OW18544   4.541   9.150   9.486 -0.1237 -0.2450  0.1506
37228SOL    HW118545   4.568   9.066   9.524  0.5453  0.7406  2.0017
37228SOL    HW218546   4.623   9.188   9.454 -0.0913  0.5093  1.0813
37229SOL     OW18547   5.789   5.494   3.306 -0.0618 -0.2285  0.1295
37229SOL    HW118548   5.713   5.437   3.319 -1.0192  0.4058 -2.1546
37229SOL    HW218549   5.752   5.583   3.304  0.8929  0.1753  0.0276
37230SOL     OW18550   6.803   0.234   9.857 -0.1333  0.0707 -0.2526
37230SOL    HW118551   6.722   0.245   9.907  0.3008  2.0116  0.1139
37230SOL    HW218552   6.873   0.247   9.922  0.4608 -0.4650 -0.7757
37231SOL     OW18553   7.568   1.635   3.005  0.0567  0.6140  0.6138
37231SOL    HW118554   7.593   1.614   3.095  0.1532 -2.0577  0.0601
37231SOL    HW218555   7.586   1.554   2.956 -4.4396  0.2494 -0.8864
37232SOL     OW18556   2.939   6.691   5.935 -0.6240 -0.2598  0.1211
37232SOL    HW118557   2.999   6.624   5.969 -1.1777 -0.3482  0.9462
37232SOL    HW218558   2.856   6.646   5.925 -0.3147 -0.4486 -2.1469
37233SOL     OW18559   9.545   0.187   8.288 -0.3209  0.1782 -0.2960
37233SOL    HW118560   9.494   0.263   8.319  0.7553  0.7519  0.1273
37233SOL    HW218561   9.566   0.138   8.367 -1.4778 -0.9021 -0.6185
37234SOL     OW18562   0.311   5.261   7.675  0.2939 -0.1537 -0.7383
37234SOL    HW118563   0.226   5.238   7.637 -1.2553  2.7736  0.5417
37234SOL    HW218564   0.348   5.178   7.705 -1.1359 -1.7812 -3.1548
37235SOL     OW18565   5.528  10.219   5.954  0.0354 -0.3443  0.0447
37235SOL    HW118566   5.587  10.283   5.993 -1.5341  1.8414 -0.9805
37235SOL    HW218567   5.450  10.222   6.010  0.1930 -1.9381  0.3981
37236SOL     OW18568   3.836   4.031   8.567 -0.0054 -0.6174 -0.1753
37236SOL    HW118569   3.741   4.036   8.576  0.0435 -0.4369  0.2996
37236SOL    HW218570   3.866   3.998   8.652  0.2706 -1.7714 -0.6967
37237SOL     OW18571   1.722   4.357   0.477  0.9891  0.0380 -0.3812
37237SOL    HW118572   1.811   4.376   0.509  0.8513 -0.0931  0.0816
37237SOL    HW218573   1.676   4.324   0.554  1.1951 -2.1241 -1.1226
37238SOL     OW18574   9.258   5.693   4.684  0.1536 -0.1840  0.0609
37238SOL    HW118575   9.174   5.668   4.644 -0.3260 -2.3523  2.1719
37238SOL    HW218576   9.234   5.730   4.769  1.3276 -0.2523  0.4413
37239SOL     OW18577   4.193   8.124   3.322  0.2235 -0.3371  0.3748
37239SOL    HW118578   4.245   8.203   3.310  0.7300 -0.7464 -0.1674
37239SOL    HW218579   4.115   8.153   3.369  1.0124  0.2586  1.3455
37240SOL     OW18580   8.178   3.793   2.884 -0.4536 -0.0234  0.0238
37240SOL    HW118581   8.205   3.750   2.965 -1.7231 -0.0709  0.4407
37240SOL    HW218582   8.258   3.796   2.831  0.0441 -1.4081  0.6361
37241SOL     OW18583   4.487  10.463   0.614 -0.1625  0.4805  0.0672
37241SOL    HW118584   4.562  10.409   0.641 -0.2939  0.2975  0.0730
37241SOL    HW218585   4.411  10.410   0.638 -0.2792  0.0334 -1.1863
37242SOL     OW18586  11.334   2.504   7.934  0.4827  0.1235  0.3314
37242SOL    HW118587  11.400   2.451   7.980 -0.7350 -0.5435  1.4056
37242SOL    HW218588  11.319   2.578   7.993  0.0366  0.0868  0.2637
37243SOL     OW18589   2.470  10.343   4.869 -0.1526  0.1488 -0.2306
37243SOL    HW118590   2.408  10.278   4.837  0.2924 -0.2756 -0.2464
37243SOL    HW218591   2.417  10.421   4.887 -0.9179 -0.6388  1.0792
37244SOL     OW18592   2.145   0.406   9.800 -0.0671  0.3700 -0.4822
37244SOL    HW118593   2.136   0.460   9.721  1.0202  0.6102 -0.4475
37244SOL    HW218594   2.152   0.468   9.872 -0.4871  0.1568 -0.2540
37245SOL     OW18595   8.038   7.923   5.946  0.1038  1.1195 -0.7675
37245SOL    HW118596   7.955   7.876   5.936  0.4680  0.3749 -0.3050
37245SOL    HW218597   8.101   7.873   5.893  1.3381 -1.0805  2.4690
37246SOL     OW18598   6.051  12.080   5.438  0.4182  0.0322  0.2513
37246SOL    HW118599   6.089  12.117   5.359  0.8729  1.0457  0.9264
37246SOL    HW218600   6.127  12.059   5.493  0.0629  1.2524  1.2495
37247SOL     OW18601   3.881   2.673   8.833 -0.1433 -0.0170 -0.2333
37247SOL    HW118602   3.818   2.602   8.825 -1.1326  0.9166 -0.9152
37247SOL    HW218603   3.904   2.696   8.743 -1.0499  1.5667 -0.1024
37248SOL     OW18604   8.213   4.667   7.233  0.2056  0.1227 -0.4026
37248SOL    HW118605   8.284   4.645   7.293  0.5085 -1.0695 -1.1683
37248SOL    HW218606   8.208   4.763   7.236  1.6065  0.2058 -0.0804
37249SOL     OW18607  10.133   6.024   0.810 -0.4751  0.0031  0.3693
37249SOL    HW118608  10.110   6.091   0.875 -1.7444 -0.1397  0.0939
37249SOL    HW218609  10.070   6.038   0.739  0.3841 -0.3597 -0.4793
37250SOL     OW18610  12.095   7.065   0.705  0.2639  0.0962  0.2048
37250SOL    HW118611  12.082   7.146   0.754 -0.9410  1.1120 -1.6803
37250SOL    HW218612  12.017   7.056   0.652  1.2463 -1.2692 -1.0983
37251SOL     OW18613   3.806   8.029   2.222 -0.0886 -0.1301 -0.2001
37251SOL    HW118614   3.863   7.992   2.289 -1.3078 -1.6887  0.0170
37251SOL    HW218615   3.719   8.033   2.263  0.0943  4.2938  0.2926
37252SOL     OW18616  10.393   9.591   5.792 -0.3362 -0.3158  0.3174
37252SOL    HW118617  10.299   9.600   5.803 -0.2922  0.3510  0.1907
37252SOL    HW218618  10.423   9.678   5.765  0.4369 -0.2781  1.2129
37253SOL     OW18619  12.050   6.813   9.041  0.4738  0.5233 -0.0960
37253SOL    HW118620  12.046   6.798   9.136  1.2855 -0.7721 -0.2447
37253SOL    HW218621  11.959   6.816   9.013  0.2352  0.0862  0.6086
37254SOL     OW18622   5.352  10.958   1.323  0.0680  0.0822  0.2897
37254SOL    HW118623   5.276  10.984   1.376  0.0427 -2.1970  1.5415
37254SOL    HW218624   5.425  11.007   1.361 -0.5220  1.1913  0.0390
37255SOL     OW18625   3.336   7.921   1.056 -0.4415 -0.3476  0.0327
37255SOL    HW118626   3.333   7.861   0.981  0.9260 -1.8512  1.1079
37255SOL    HW218627   3.429   7.926   1.079 -0.7474  0.6751  1.1676
37256SOL     OW18628   4.851   5.621  10.735 -0.1124 -0.7543  0.9410
37256SOL    HW118629   4.939   5.658  10.725 -0.3050 -0.5190  0.0590
37256SOL    HW218630   4.866   5.533  10.771  0.6719 -1.5959 -1.2214
37257SOL     OW18631   6.128   6.112   2.302 -0.7684 -0.3730  0.0303
37257SOL    HW118632   6.186   6.058   2.356  1.2160  0.1390 -1.4621
37257SOL    HW218633   6.040   6.092   2.334  0.2316 -0.6812  2.8584
37258SOL     OW18634   6.437   4.401   3.578 -0.0389  0.2177 -0.4886
37258SOL    HW118635   6.500   4.401   3.507  0.5835 -2.0052 -0.0182
37258SOL    HW218636   6.353   4.422   3.537  0.1448 -1.9039 -2.1094
37259SOL     OW18637   8.499   8.544   7.063 -0.0470  0.1783 -0.1198
37259SOL    HW118638   8.587   8.547   7.027  0.7353  1.9298  1.7493
37259SOL    HW218639   8.450   8.609   7.011 -0.6197 -1.5807 -1.9002
37260SOL     OW18640   6.541   3.334   2.030  0.0643  0.2436 -0.6655
37260SOL    HW118641   6.448   3.341   2.011 -0.0289  1.6311  0.1535
37260SOL    HW218642   6.550   3.371   2.118  1.6509  2.0376 -1.5115
37261SOL     OW18643  11.645   1.181   4.422 -0.0808  0.0234  0.2771
37261SOL    HW118644  11.729   1.134   4.417 -1.4632 -2.6496  0.4213
37261SOL    HW218645  11.627   1.186   4.516 -0.3124  0.1497  0.2247
37262SOL     OW18646   7.107  10.420  10.386  0.1403 -0.0802  0.3143
37262SOL    HW118647   7.112  10.384  10.475  1.0454  0.7875  0.6291
37262SOL    HW218648   7.159  10.500  10.389  0.3104 -0.1131 -1.0461
37263SOL     OW18649  11.730   4.894   2.179  0.2378 -0.4895 -0.1106
37263SOL    HW118650  11.668   4.923   2.112  0.0221  1.7841  0.9812
37263SOL    HW218651  11.679   4.833   2.233 -0.3436 -0.3928 -0.5329
37264SOL     OW18652   8.944  11.973  11.821  0.4643  0.1573 -0.4862
37264SOL    HW118653   8.870  11.938  11.871  0.6988 -1.5927 -1.2961
37264SOL    HW218654   8.967  12.054  11.866  0.0083 -0.8198  1.6240
37265SOL     OW18655   9.118  12.326   1.594 -0.0451  0.7259  0.0794
37265SOL    HW118656   9.172  12.333   1.515  1.4109  0.0737  0.9714
37265SOL    HW218657   9.168  12.268   1.652 -1.9392 -0.2547  0.7940
37266SOL     OW18658   7.037   6.574   6.268 -0.1806 -0.6700  0.5436
37266SOL    HW118659   6.961   6.631   6.281  0.6561  0.6673 -0.2461
37266SOL    HW218660   7.104   6.609   6.326 -0.0538 -1.7015  1.0577
37267SOL     OW18661   3.028   6.109   3.337 -0.2349  0.3142  0.3590
37267SOL    HW118662   2.984   6.054   3.402 -0.8084 -0.2262 -0.4550
37267SOL    HW218663   3.121   6.103   3.359 -0.5343  1.6669  2.2636
37268SOL     OW18664   4.793   1.763   4.300  0.2155 -0.5564  0.1159
37268SOL    HW118665   4.726   1.770   4.232  0.0555  0.0626  0.3319
37268SOL    HW218666   4.859   1.704   4.263 -0.0067 -0.4469 -0.4601
37269SOL     OW18667   1.622  10.223   7.295 -0.0849  0.3559 -0.4905
37269SOL    HW118668   1.548  10.274   7.264 -0.0280  1.5496  1.1649
37269SOL    HW218669   1.625  10.146   7.238 -3.1179 -0.1947 -0.0882
37270SOL     OW18670   9.842   6.766   0.863  0.0645  0.2611 -0.4828
37270SOL    HW118671   9.841   6.682   0.909 -0.0147  0.6224  0.1781
37270SOL    HW218672   9.935   6.786   0.852  0.1707  1.4668  1.9400
37271SOL     OW18673   6.305   0.612   4.400  0.0037 -0.1557 -0.2560
37271SOL    HW118674   6.216   0.645   4.408  0.3032  0.5621  0.1585
37271SOL    HW218675   6.299   0.519   4.424 -0.5927 -0.0699 -0.0658
37272SOL     OW18676  11.741   9.923   5.147  0.1947  0.5545  0.2211
37272SOL    HW118677  11.781   9.853   5.199 -1.3377 -0.5267  0.0243
37272SOL    HW218678  11.663   9.882   5.108  0.4400  1.7598 -1.6651
37273SOL     OW18679   9.018   9.862   3.334 -0.0411  0.4421  0.5814
37273SOL    HW118680   9.003   9.956   3.321 -1.1094  0.1687 -0.3030
37273SOL    HW218681   9.109   9.856   3.363  0.5062  1.6454 -0.7641
37274SOL     OW18682  10.477   1.141   6.828 -0.1437  0.3993 -0.2925
37274SOL    HW118683  10.427   1.165   6.906 -0.4482  0.1561 -0.4097
37274SOL    HW218684  10.568   1.138   6.858 -0.2694  0.2051  0.0827
37275SOL     OW18685   5.546   6.298   2.619 -0.5317  0.4228 -0.6985
37275SOL    HW118686   5.553   6.355   2.542 -0.3243  1.5556  0.1366
37275SOL    HW218687   5.605   6.225   2.600 -0.2242  0.8574 -1.4725
37276SOL     OW18688  11.427   9.512   7.702 -0.3816  0.1038  0.4714
37276SOL    HW118689  11.383   9.520   7.787 -2.1386 -2.9145  0.0147
37276SOL    HW218690  11.519   9.499   7.724 -0.9016 -1.3651  2.0431
37277SOL     OW18691   7.620   1.513   6.609  0.1400  0.4512 -0.6013
37277SOL    HW118692   7.710   1.542   6.594  0.2484 -0.3263 -1.5136
37277SOL    HW218693   7.613   1.431   6.561 -0.6937 -0.1433  0.4899
37278SOL     OW18694   1.631   5.433   8.165  0.0383  0.2962 -0.1161
37278SOL    HW118695   1.594   5.345   8.156  0.9637 -0.2668  1.1735
37278SOL    HW218696   1.685   5.428   8.244  2.6171  1.1339 -1.6934
37279SOL     OW18697   2.188   9.011  12.479  0.3218 -0.0136  0.1510
37279SOL    HW118698   2.264   8.999  12.537  0.3770  1.2859  0.3677
37279SOL    HW218699   2.222   9.059  12.404  0.0872 -1.0580 -0.6517
37280SOL     OW18700   8.194   7.539   7.045 -0.0455  1.1880 -0.6628
37280SOL    HW118701   8.121   7.534   6.984 -0.8885  2.7118  0.1310
37280SOL    HW218702   8.162   7.598   7.114  0.1213 -1.8660  2.2740
37281SOL     OW18703  11.816   3.520  11.504 -0.0899 -0.1418 -0.0612
37281SOL    HW118704  11.836   3.609  11.532 -1.1595  0.2815 -0.6038
37281SOL    HW218705  11.843   3.519  11.412  0.3642 -0.5369  0.0700
37282SOL     OW18706   4.371   3.562  12.105 -0.6823 -0.2303 -0.5719
37282SOL    HW118707   4.464   3.557  12.087 -0.5226 -0.1319  0.1663
37282SOL    HW218708   4.363   3.626  12.176 -1.0718 -1.6483  0.7477
37283SOL     OW18709   2.894  11.585  12.206  0.0870 -0.4170 -0.1398
37283SOL    HW118710   2.957  11.632  12.260  2.3620 -0.8192 -2.2347
37283SOL    HW218711   2.946  11.518  12.161 -2.2049 -1.9716 -0.6641
37284SOL     OW18712   4.503   0.555   9.711 -0.6851  0.1176  0.1942
37284SOL    HW118713   4.534   0.619   9.647 -1.1819 -1.1676 -1.4009
37284SOL    HW218714   4.410   0.573   9.720 -0.7256 -0.0587  0.1283
37285SOL     OW18715   2.182   8.587   6.388 -0.3344 -0.3612  0.6617
37285SOL    HW118716   2.173   8.682   6.390  0.1741 -0.3090  0.3705
37285SOL    HW218717   2.102   8.557   6.345 -1.2264 -0.1710  2.1170
37286SOL     OW18718   2.016  10.376   7.682  0.1906  0.0150 -0.4071
37286SOL    HW118719   1.987  10.290   7.712  0.0113  0.0770 -0.4044
37286SOL    HW218720   1.997  10.376   7.588 -0.6354  0.3837 -0.2496
37287SOL     OW18721   8.379   7.472   7.366 -0.1573 -0.1442  0.8419
37287SOL    HW118722   8.431   7.552   7.369  0.6921 -0.6635  0.1088
37287SOL    HW218723   8.441   7.403   7.345 -1.4478 -0.4918 -2.2697
37288SOL     OW18724   6.324   5.284   9.540 -0.3476  0.1357  0.2038
37288SOL    HW118725   6.312   5.373   9.572  1.2889 -0.1777  1.8967
37288SOL    HW218726   6.325   5.230   9.620  3.4757 -0.7706 -0.2291
37289SOL     OW18727   6.367   7.487  10.494 -0.0020 -0.1728  0.4733
37289SOL    HW118728   6.461   7.503  10.501 -0.3642  2.0201  0.8653
37289SOL    HW218729   6.345   7.439  10.575  0.8469 -1.2895  0.0683
37290SOL     OW18730   0.915   8.959   1.291 -0.3609  0.1606 -0.0810
37290SOL    HW118731   0.822   8.981   1.285 -0.8114 -1.3702  0.8074
37290SOL    HW218732   0.937   8.973   1.383  0.6055  1.5766 -0.4921
37291SOL     OW18733   3.549   7.889  11.577 -0.1169 -0.3308  0.0387
37291SOL    HW118734   3.529   7.982  11.565 -0.6237 -0.3721  0.4732
37291SOL    HW218735   3.463   7.848  11.589  0.0883 -0.8898 -0.3792
37292SOL     OW18736   9.413   9.846   1.565  0.3829  0.0763 -0.4881
37292SOL    HW118737   9.479   9.847   1.635  0.7751  1.4725 -0.8478
37292SOL    HW218738   9.400   9.938   1.543 -1.0365 -0.2329 -1.0624
37293SOL     OW18739   8.549  11.721   4.726 -0.1958 -0.3880 -0.0422
37293SOL    HW118740   8.516  11.663   4.657  1.2109 -2.3663  0.8330
37293SOL    HW218741   8.601  11.663   4.782  1.3186  1.7766  0.8928
37294SOL     OW18742   4.162   5.245   0.230 -0.5370  0.4221  0.0478
37294SOL    HW118743   4.101   5.181   0.195 -0.9211  0.7629  0.0922
37294SOL    HW218744   4.108   5.309   0.276 -0.3067  1.5871 -1.2410
37295SOL     OW18745  12.255   4.582   2.382 -0.1166  0.0024 -0.2127
37295SOL    HW118746  12.272   4.643   2.454  1.9764  1.9440 -2.1672
37295SOL    HW218747  12.192   4.628   2.327 -2.0710 -1.6686  0.5337
37296SOL     OW18748   5.101   1.042   0.719  0.4547  0.3027 -0.6670
37296SOL    HW118749   5.181   1.048   0.771  1.1579  0.2946 -1.7305
37296SOL    HW218750   5.082   0.948   0.715 -0.8262  0.4148  1.3597
37297SOL     OW18751   7.631   1.779   8.424  0.1139 -0.3261 -0.4161
37297SOL    HW118752   7.560   1.785   8.360 -0.0220 -0.9150 -0.3282
37297SOL    HW218753   7.710   1.763   8.372  0.0163 -0.7248 -0.4405
37298SOL     OW18754   4.516   2.046   9.367 -0.2570  0.5668  0.2367
37298SOL    HW118755   4.607   2.052   9.339 -0.6308 -0.8897 -1.5180
37298SOL    HW218756   4.518   1.989   9.444  0.4671  2.1295  1.4444
37299SOL     OW18757   4.091   0.344  11.270  0.2086 -0.8845  0.2857
37299SOL    HW118758   4.115   0.408  11.203 -2.5627  0.3872  0.4094
37299SOL    HW218759   4.120   0.383  11.352 -1.0948  0.0384  0.3192
37300SOL     OW18760   0.498   4.992   2.973 -0.6630  0.0818  0.6698
37300SOL    HW118761   0.472   4.931   3.042 -0.3713  1.5873  2.1795
37300SOL    HW218762   0.444   4.968   2.898 -0.8356 -1.7540  1.3364
37301SOL     OW18763   2.439   3.410   5.703  0.2038  0.1073 -0.3203
37301SOL    HW118764   2.347   3.423   5.727 -0.0847 -0.2126 -1.1959
37301SOL    HW218765   2.451   3.465   5.626  0.6076 -0.2368 -0.5063
37302SOL     OW18766   5.854   1.860   0.963 -0.2363 -0.2245  0.6717
37302SOL    HW118767   5.871   1.944   0.922  0.3522 -0.5340  0.2738
37302SOL    HW218768   5.801   1.812   0.899 -0.8123 -0.0625  1.0141
37303SOL     OW18769   0.407   0.302  10.529 -0.0159 -0.3823  0.2573
37303SOL    HW118770   0.318   0.328  10.553  0.2842 -0.6218  1.7331
37303SOL    HW218771   0.396   0.236  10.461 -0.9293  0.1650 -0.1399
37304SOL     OW18772   9.757   5.856   9.819 -0.0418 -0.3999  0.8317
37304SOL    HW118773   9.721   5.841   9.907  0.0587 -0.5790  0.8416
37304SOL    HW218774   9.700   5.923   9.782 -0.4465 -0.7509  0.8131
37305SOL     OW18775   1.932   5.726   7.866 -0.6448  0.1657  0.7225
37305SOL    HW118776   1.850   5.689   7.835 -0.5325  0.8139 -0.3966
37305SOL    HW218777   1.953   5.796   7.803  1.5489 -0.9872  0.0625
37306SOL     OW18778   6.668   7.215   5.153  0.4719  0.1635 -0.7382
37306SOL    HW118779   6.679   7.140   5.094  1.4883  0.7587 -1.3434
37306SOL    HW218780   6.731   7.199   5.224  0.3653  0.2226 -0.6303
37307SOL     OW18781  10.759   0.321   1.880 -0.3487  0.2712 -0.2154
37307SOL    HW118782  10.719   0.354   1.960 -0.3330 -0.4336  0.0909
37307SOL    HW218783  10.746   0.227   1.883  0.7162  0.0993 -0.4520
37308SOL     OW18784   9.018  11.678   1.086  0.2247 -0.1716  0.4157
37308SOL    HW118785   8.996  11.592   1.120  0.1294 -0.2573  0.1470
37308SOL    HW218786   9.113  11.682   1.088  0.4252 -1.4108 -2.1927
37309SOL     OW18787  11.857   3.608   9.775  0.5891 -0.1333 -0.0705
37309SOL    HW118788  11.933   3.608   9.833  1.3718 -1.0559 -1.0382
37309SOL    HW218789  11.813   3.691   9.793  1.2184 -0.0590  1.2793
37310SOL     OW18790   2.069  10.962   6.605  0.4951 -0.2639 -0.1378
37310SOL    HW118791   2.075  10.897   6.675  0.4149 -0.2734 -0.1394
37310SOL    HW218792   2.116  11.038   6.639  1.6563 -0.7451 -0.6135
37311SOL     OW18793  10.522   5.815   0.262  0.0186 -0.0827 -0.0701
37311SOL    HW118794  10.446   5.760   0.279  0.2936 -0.5174 -0.2530
37311SOL    HW218795  10.545   5.852   0.347  1.0291 -1.7797  0.4394
37312SOL     OW18796   4.771   2.836   9.524  0.2435 -0.1007 -0.1368
37312SOL    HW118797   4.778   2.909   9.463 -1.7993  1.2143  1.0718
37312SOL    HW218798   4.861   2.816   9.550  0.8927  1.3994 -1.1516
37313SOL     OW18799   3.996   8.191   9.866  0.2771 -0.9271  0.4102
37313SOL    HW118800   3.953   8.197   9.780 -0.4775 -1.8689  0.7025
37313SOL    HW218801   4.038   8.276   9.878 -1.9002  0.2029  0.3227
37314SOL     OW18802   3.489   6.882   9.869  0.4373 -0.2240  0.0604
37314SOL    HW118803   3.426   6.828   9.916 -1.7232  1.4079 -0.7461
37314SOL    HW218804   3.523   6.943   9.934  1.6016 -1.4386  0.6096
37315SOL     OW18805  12.147  10.325   0.405  0.2436  0.0929 -0.3270
37315SOL    HW118806  12.137  10.418   0.383 -0.2405  0.2813  0.6566
37315SOL    HW218807  12.161  10.282   0.321  0.9420  1.1156 -0.7510
37316SOL     OW18808  12.157   1.884   5.964  0.1591 -0.6950  0.1548
37316SOL    HW118809  12.132   1.931   5.885  1.3547  0.2136  0.2958
37316SOL    HW218810  12.198   1.950   6.019  2.1201 -1.9337  0.2589
37317SOL     OW18811   4.684   9.932   3.144 -0.1093  0.0578  0.2641
37317SOL    HW118812   4.707   9.871   3.214  0.5649 -0.1456 -0.1327
37317SOL    HW218813   4.734  10.011   3.163  0.4027 -0.1426 -0.2130
37318SOL     OW18814  11.676   3.438  12.210 -0.3290 -0.2456 -0.3512
37318SOL    HW118815  11.770   3.440  12.231 -0.7292  0.6441  1.5334
37318SOL    HW218816  11.634   3.407  12.291 -1.7896  1.0061 -0.5837
37319SOL     OW18817   5.887   4.315   9.751 -0.3345 -0.2075  0.1447
37319SOL    HW118818   5.929   4.352   9.828 -0.0605 -2.1165  0.9881
37319SOL    HW218819   5.793   4.330   9.764 -0.3976 -1.5720  1.5028
37320SOL     OW18820   1.929   4.286   4.607 -0.2383  0.2406 -0.0264
37320SOL    HW118821   1.907   4.196   4.633 -1.0399  0.9523  2.0281
37320SOL    HW218822   1.866   4.306   4.538 -0.0318 -0.7773 -0.5365
37321SOL     OW18823   6.181   8.892   0.059 -0.1015 -0.1022 -0.4635
37321SOL    HW118824   6.149   8.822   0.003 -1.1837 -0.7581  0.9264
37321SOL    HW218825   6.255   8.853   0.106  0.8296  0.4594 -1.4075
37322SOL     OW18826   3.692   8.695   3.920 -0.3292 -0.6599  0.0730
37322SOL    HW118827   3.769   8.680   3.866 -0.9146 -1.2377 -0.6167
37322SOL    HW218828   3.727   8.706   4.009  0.5430 -0.9070 -0.2301
37323SOL     OW18829   3.893   3.583   4.918  0.3199  0.3725  0.2951
37323SOL    HW118830   3.870   3.650   4.853 -0.8997  0.0418  0.3569
37323SOL    HW218831   3.905   3.631   4.999  1.2293  0.7150 -0.0276
37324SOL     OW18832   4.605   9.732   0.335  0.2157 -0.1400 -0.1147
37324SOL    HW118833   4.519   9.775   0.341  0.7849  0.9365  0.6953
37324SOL    HW218834   4.596   9.671   0.262 -1.4368 -0.4944  0.3388
37325SOL     OW18835   7.990   5.235   5.956  0.2519  0.1765  0.1449
37325SOL    HW118836   7.959   5.325   5.959  1.3237  0.6195 -0.9927
37325SOL    HW218837   8.045   5.231   5.877 -0.0112 -1.5492  0.0070
37326SOL     OW18838   3.174   8.036   2.005  0.2591  0.4255  0.1668
37326SOL    HW118839   3.175   8.069   2.095  0.1975 -0.8163  0.6316
37326SOL    HW218840   3.250   8.076   1.964  0.7083  0.4173  0.9827
37327SOL     OW18841   4.130   9.075   3.869  0.5129 -0.1598 -0.3018
37327SOL    HW118842   4.148   9.142   3.934 -0.1134 -0.5424  0.2788
37327SOL    HW218843   4.192   9.093   3.798 -0.8188  2.1450 -0.9884
37328SOL     OW18844   7.174   6.812   8.011 -0.6553  0.5710  0.1578
37328SOL    HW118845   7.179   6.893   7.960 -0.1692  1.2466  1.2350
37328SOL    HW218846   7.175   6.842   8.102  2.0270 -0.7026  0.6578
37329SOL     OW18847   9.139   0.424  11.934  0.3149  0.0728  0.3855
37329SOL    HW118848   9.119   0.461  12.021  0.1963 -0.3255  0.5290
37329SOL    HW218849   9.069   0.457  11.878  0.4514  0.4208  0.4137
37330SOL     OW18850   7.432  12.400   2.956  0.1128  0.1835 -0.0275
37330SOL    HW118851   7.341  12.371   2.961  0.7469 -1.8062  2.3916
37330SOL    HW218852   7.448  12.442   3.040  2.1186 -2.0534  0.8206
37331SOL     OW18853   7.842  12.295   4.587 -0.0883 -0.0535 -0.3606
37331SOL    HW118854   7.871  12.384   4.610 -2.3996  1.0959 -1.5799
37331SOL    HW218855   7.848  12.292   4.492 -1.0708 -0.8192 -0.4028
37332SOL     OW18856   8.388   2.502  12.251 -0.4026  0.0833 -0.0737
37332SOL    HW118857   8.433   2.586  12.262 -2.7215  1.3579  0.3324
37332SOL    HW218858   8.453   2.437  12.276  1.6632  1.6876 -0.9226
37333SOL     OW18859  12.228   4.820   7.224 -0.2967  0.2821  0.1889
37333SOL    HW118860  12.213   4.859   7.310 -0.6858 -2.3452  1.4288
37333SOL    HW218861  12.140   4.805   7.189 -0.1387  2.5663 -1.3498
37334SOL     OW18862   7.034   9.812  11.467 -0.3067 -0.4126  0.1581
37334SOL    HW118863   6.965   9.839  11.528 -0.0209  0.1302  0.2487
37334SOL    HW218864   7.036   9.881  11.401 -0.1318 -0.6416 -0.0794
37335SOL     OW18865   9.282   9.048   1.069 -0.1126  0.5005 -0.2087
37335SOL    HW118866   9.218   9.058   0.999 -0.5544  1.6203  0.3145
37335SOL    HW218867   9.237   9.084   1.147  0.2258 -1.0384  0.7269
37336SOL     OW18868   4.909   1.117   5.455 -0.1539 -0.0188 -0.4608
37336SOL    HW118869   4.983   1.132   5.514 -1.0061  1.9664  0.1932
37336SOL    HW218870   4.927   1.174   5.379 -1.3747  1.1859  0.0983
37337SOL     OW18871   1.904   5.323   4.946 -0.3676  0.5363  0.0099
37337SOL    HW118872   1.938   5.281   5.025 -0.8310  1.1520  0.5595
37337SOL    HW218873   1.854   5.255   4.901  1.5348 -0.3757 -0.8081
37338SOL     OW18874   1.325   0.396   0.650  0.2312  0.3687 -0.0360
37338SOL    HW118875   1.370   0.313   0.661 -1.8478 -0.9343 -0.9087
37338SOL    HW218876   1.350   0.426   0.563  0.1382  0.1540 -0.1341
37339SOL     OW18877   9.002   3.150   9.900  0.2011 -0.2536 -0.1961
37339SOL    HW118878   8.958   3.069   9.927  0.7964 -0.4790  0.1106
37339SOL    HW218879   8.971   3.216   9.963  0.8866 -0.5827  0.5108
37340SOL     OW18880   0.946   9.238  12.399 -0.7192  0.4075  0.3907
37340SOL    HW118881   1.022   9.280  12.361 -0.0438  0.2910  1.5573
37340SOL    HW218882   0.948   9.149  12.365 -0.2280  0.3535  0.5556
37341SOL     OW18883   4.909   6.616   2.598 -0.7411  0.3404  0.5617
37341SOL    HW118884   4.842   6.577   2.542  0.0556 -0.8582  0.4119
37341SOL    HW218885   4.983   6.634   2.540 -0.6675  1.0232  0.8521
37342SOL     OW18886   9.961   4.531  11.920 -0.5915 -0.3112 -0.1169
37342SOL    HW118887   9.933   4.613  11.880 -1.7562  0.4006  2.0206
37342SOL    HW218888  10.055   4.541  11.932 -0.9405  1.4744  1.6213
37343SOL     OW18889   9.286   7.899   3.629 -0.1426  0.7635  0.0879
37343SOL    HW118890   9.224   7.955   3.676 -0.6440 -0.7356  1.2861
37343SOL    HW218891   9.231   7.832   3.589  0.5176  0.6632 -0.6521
37344SOL     OW18892   3.519   0.136   0.979  0.1604 -0.0048  0.0399
37344SOL    HW118893   3.571   0.113   0.902 -1.1733  2.5413 -1.7705
37344SOL    HW218894   3.559   0.217   1.011 -1.2046  0.6887  0.0565
37345SOL     OW18895   5.300   3.017   4.879  0.6077  0.3199  0.3616
37345SOL    HW118896   5.263   2.943   4.831  1.0334  0.2390  0.1556
37345SOL    HW218897   5.389   3.025   4.846  0.4564  1.1445  0.1315
37346SOL     OW18898  11.396   6.173   9.925 -0.3671  0.2433  0.1692
37346SOL    HW118899  11.465   6.185   9.860  0.5501  0.0391  1.0798
37346SOL    HW218900  11.322   6.223   9.891  0.3581  0.8048 -0.6246
37347SOL     OW18901  12.475  11.207   2.422  0.2075  0.2729  0.0152
37347SOL    HW118902  12.449  11.125   2.382 -1.7549  1.6122 -1.6647
37347SOL    HW218903  12.534  11.182   2.493  0.7172 -2.4622 -1.2497
37348SOL     OW18904   9.728   6.887   5.381 -0.1456  0.5802 -0.6336
37348SOL    HW118905   9.736   6.802   5.423 -0.1990 -0.0876 -1.9180
37348SOL    HW218906   9.686   6.943   5.446  2.0923  0.3336  1.1418
37349SOL     OW18907   6.625   5.577   8.900 -0.2475 -0.5235  0.2618
37349SOL    HW118908   6.605   5.621   8.818 -0.7045  2.5290  1.8778
37349SOL    HW218909   6.717   5.551   8.892 -0.2665 -0.2200 -1.1457
37350SOL     OW18910   0.322   5.690   2.793  0.3656  0.1620  0.2863
37350SOL    HW118911   0.363   5.771   2.825  2.1531 -0.5068 -0.1762
37350SOL    HW218912   0.237   5.717   2.760  0.4547  1.6586  1.1856
37351SOL     OW18913  10.809  12.435   5.247  0.3824  0.2197 -0.0934
37351SOL    HW118914  10.770  12.522   5.257 -0.8836 -0.5557  2.3296
37351SOL    HW218915  10.899  12.445   5.278  0.5395  0.8538 -0.7266
37352SOL     OW18916   6.816   0.341  10.137 -0.1017  0.4859  0.5006
37352SOL    HW118917   6.779   0.429  10.124  0.1636  0.5311  0.0139
37352SOL    HW218918   6.740   0.283  10.141 -0.2724  0.7193  0.6408
37353SOL     OW18919   9.266  12.152   7.621  0.6104  0.4265  0.0393
37353SOL    HW118920   9.360  12.135   7.625  0.9564  2.3439  0.9779
37353SOL    HW218921   9.230  12.098   7.692  0.7591 -1.4457 -1.2367
37354SOL     OW18922   9.847   9.181   0.656 -0.0378  0.3304 -0.0664
37354SOL    HW118923   9.912   9.169   0.725 -0.8101 -0.6762  0.5154
37354SOL    HW218924   9.861   9.271   0.625  0.4791  0.7135  1.2191
37355SOL     OW18925   4.595  10.142   1.240 -0.5355  0.2561 -0.5511
37355SOL    HW118926   4.623  10.109   1.154  0.5681 -0.0974 -0.0754
37355SOL    HW218927   4.606  10.067   1.299 -1.2730  0.5002 -0.0866
37356SOL     OW18928  12.313   6.780   4.186 -0.3062  0.1333  0.6268
37356SOL    HW118929  12.327   6.686   4.188 -0.4500  0.0743 -0.5235
37356SOL    HW218930  12.391   6.817   4.228  0.5111 -0.4383 -0.3510
37357SOL     OW18931   4.035   6.125   5.435  0.1033 -0.0643  0.5013
37357SOL    HW118932   4.080   6.158   5.358  0.9296 -1.3150  0.4058
37357SOL    HW218933   4.097   6.138   5.507 -0.0102 -0.3743  0.6583
37358SOL     OW18934  10.869   8.918   4.837  0.0537  0.4722 -0.0292
37358SOL    HW118935  10.840   8.869   4.913  0.5191  0.5971  0.2347
37358SOL    HW218936  10.957   8.948   4.860 -0.5935  2.2997  0.2356
37359SOL     OW18937   9.484  10.704   0.855 -0.0482 -0.3731  0.2389
37359SOL    HW118938   9.552  10.768   0.832 -0.0799  1.4998  4.4245
37359SOL    HW218939   9.404  10.738   0.814  0.6189  0.0930 -0.7170
37360SOL     OW18940   3.687   4.057  11.256  0.2279  0.1180  0.4220
37360SOL    HW118941   3.659   4.047  11.347 -1.8446  0.7709 -0.1057
37360SOL    HW218942   3.766   4.112  11.261  0.2061  0.0545  1.8171
37361SOL     OW18943  10.880   0.413   5.302  0.5853 -0.0656  0.3026
37361SOL    HW118944  10.873   0.491   5.358 -0.7526  0.0973 -0.0564
37361SOL    HW218945  10.953   0.363   5.339  0.3767  0.5315  1.5765
37362SOL     OW18946   6.101   6.254  11.043 -0.5047  0.3373 -0.1041
37362SOL    HW118947   6.029   6.233  11.102  0.0647  1.9182  1.2409
37362SOL    HW218948   6.062   6.311  10.977 -0.6644  0.4494  0.0878
37363SOL     OW18949   2.241   8.161   6.551 -0.0177 -0.1773  0.3036
37363SOL    HW118950   2.328   8.188   6.524  0.5180  0.1529  2.2004
37363SOL    HW218951   2.256   8.088   6.612 -1.0344  0.1220  0.9340
37364SOL     OW18952   3.121   5.541   5.361 -0.0636 -0.3627  0.2327
37364SOL    HW118953   3.066   5.610   5.398 -0.5651 -0.5477 -0.1694
37364SOL    HW218954   3.166   5.504   5.437 -2.1693 -1.7174  0.9062
37365SOL     OW18955   2.213  10.138  10.708 -0.7421 -0.0089  0.2962
37365SOL    HW118956   2.141  10.109  10.764 -0.4804 -0.6348  0.3210
37365SOL    HW218957   2.267  10.193  10.765 -1.7066  1.2685  0.0116
37366SOL     OW18958   9.950  11.900   3.551  0.2876 -0.4531 -0.3744
37366SOL    HW118959   9.871  11.858   3.517 -0.2902 -1.0534  1.6289
37366SOL    HW218960  10.019  11.873   3.491 -0.9124 -0.2781 -1.9111
37367SOL     OW18961   4.205   6.613   6.727 -0.4081 -0.4240  0.0610
37367SOL    HW118962   4.112   6.623   6.750 -0.3603 -0.8622  0.4516
37367SOL    HW218963   4.222   6.686   6.667 -1.1117 -0.5830 -0.3509
37368SOL     OW18964   0.402   8.292   1.272 -0.5132  0.2155  0.2705
37368SOL    HW118965   0.450   8.359   1.321 -0.3224  1.4021 -1.4590
37368SOL    HW218966   0.459   8.215   1.273  0.9949  1.2620 -0.8455
37369SOL     OW18967   0.609   4.169   5.873  0.1172 -0.2485  0.1622
37369SOL    HW118968   0.527   4.139   5.912 -1.1011  0.5004 -1.6851
37369SOL    HW218969   0.675   4.110   5.909 -1.4897 -2.1265  0.2456
37370SOL     OW18970   2.001  11.781   8.067  0.0921  0.5893  0.4884
37370SOL    HW118971   1.949  11.744   7.995 -0.3604  4.3332 -1.3885
37370SOL    HW218972   1.949  11.763   8.145 -0.5688 -1.6541 -0.3772
37371SOL     OW18973   8.200   6.402   4.645  0.1032  0.1292  0.5450
37371SOL    HW118974   8.229   6.443   4.727 -0.2485  0.6650  0.4087
37371SOL    HW218975   8.278   6.358   4.611  0.1243 -0.5457  1.4274
37372SOL     OW18976   9.271   4.243   8.059  0.1588  0.2651 -0.4227
37372SOL    HW118977   9.206   4.214   7.996  0.1573 -1.2080  0.2018
37372SOL    HW218978   9.222   4.297   8.121 -0.6463 -1.3415  0.3993
37373SOL     OW18979   1.890   6.093   2.547 -0.0397 -0.0179 -0.1205
37373SOL    HW118980   1.811   6.100   2.494  0.0866 -0.5887 -0.3902
37373SOL    HW218981   1.904   5.999   2.557  2.4000 -0.0911 -2.8345
37374SOL     OW18982   6.500   6.071   3.605 -0.5136 -0.3342  0.4643
37374SOL    HW118983   6.429   6.023   3.562  0.1844 -1.0719  0.1102
37374SOL    HW218984   6.563   6.003   3.629 -0.3224  0.2140  1.5597
37375SOL     OW18985   0.571   5.160   8.175  0.1374 -0.0255 -0.2342
37375SOL    HW118986   0.577   5.216   8.097 -1.8426 -0.3185 -0.6673
37375SOL    HW218987   0.543   5.220   8.244  0.1240 -0.0793 -0.1933
37376SOL     OW18988   9.001   5.184   0.899  0.9854  1.1665  0.0901
37376SOL    HW118989   9.046   5.143   0.825  1.7946  0.4779  0.9331
37376SOL    HW218990   8.922   5.223   0.861  0.5500 -0.5464 -0.8939
37377SOL     OW18991  12.040   0.734   6.574  0.0761 -0.0290  0.2315
37377SOL    HW118992  12.016   0.649   6.609 -0.2432  0.3502  0.9536
37377SOL    HW218993  11.985   0.745   6.496 -0.5614 -0.0894  0.6638
37378SOL     OW18994   7.290   5.120   8.403  0.1517  0.5661  0.4140
37378SOL    HW118995   7.359   5.088   8.461  0.8511  0.4219 -0.4833
37378SOL    HW218996   7.210   5.082   8.440  0.6510 -0.0291  0.9262
37379SOL     OW18997   0.006   2.784  10.154 -0.3588  0.6361  0.6413
37379SOL    HW118998   0.047   2.869  10.168 -2.3081  1.9066 -0.7684
37379SOL    HW218999  -0.067   2.782  10.216 -1.2186  0.6789 -0.3392
37380SOL     OW19000   4.251   3.938   5.132  0.0662  0.4621 -0.3535
37380SOL    HW119001   4.204   4.020   5.116 -1.5347 -0.6189 -1.3953
37380SOL    HW219002   4.183   3.871   5.131  1.3754 -0.9221  0.2789
37381SOL     OW19003   0.927   7.805   2.971 -0.4174 -0.1610 -0.1090
37381SOL    HW119004   0.883   7.831   2.890 -0.5766  1.9558  0.5741
37381SOL    HW219005   1.020   7.807   2.950 -0.4945 -2.4091 -0.9437
37382SOL     OW19006   4.944   9.563  12.348  0.1311  0.1688  0.1312
37382SOL    HW119007   5.030   9.589  12.314 -0.6343  1.7281 -0.7171
37382SOL    HW219008   4.957   9.554  12.442  0.9168  1.7474  0.1998
37383SOL     OW19009   1.486  11.480   0.058 -0.3620  0.3813 -0.1556
37383SOL    HW119010   1.467  11.564   0.099 -1.1257  0.3741 -0.4895
37383SOL    HW219011   1.412  11.463   0.001  0.7974  0.5072 -1.7591
37384SOL     OW19012   1.298  12.307  11.492 -0.0699  1.0799  0.0412
37384SOL    HW119013   1.387  12.311  11.526  0.3295  0.5438 -0.9172
37384SOL    HW219014   1.246  12.275  11.566  0.8120 -0.2553  0.1257
37385SOL     OW19015   1.893   5.472   1.667  0.8332 -0.1244 -0.2517
37385SOL    HW119016   1.860   5.472   1.577  0.7050  0.4842 -0.2089
37385SOL    HW219017   1.987   5.483   1.658  0.5671  3.2418 -0.2620
37386SOL     OW19018   1.155   4.131   7.943  0.1896 -0.2475  0.3873
37386SOL    HW119019   1.190   4.046   7.968 -0.0255 -0.5235 -0.2176
37386SOL    HW219020   1.110   4.115   7.860 -1.0483  0.1732  0.9474
37387SOL     OW19021   6.214   4.549   5.149 -0.2186  0.2572 -0.0529
37387SOL    HW119022   6.273   4.530   5.076 -1.2643 -0.4194 -0.7565
37387SOL    HW219023   6.201   4.644   5.146  1.7632  0.6016  0.8801
37388SOL     OW19024   7.334   6.656   2.744  0.4893  0.1564  0.1992
37388SOL    HW119025   7.371   6.743   2.761 -0.4753  0.7190 -0.5057
37388SOL    HW219026   7.245   6.661   2.777  0.3792 -0.5243  0.0157
37389SOL     OW19027  10.437   1.134  11.400  0.2807  0.1031 -0.3434
37389SOL    HW119028  10.509   1.195  11.417  0.0366  0.0843  0.8733
37389SOL    HW219029  10.428   1.085  11.482 -0.6345 -0.3980 -0.7329
37390SOL     OW19030   9.236   7.748  10.718  0.3219 -0.5424 -0.3381
37390SOL    HW119031   9.248   7.793  10.634 -0.5064 -0.3379 -0.3535
37390SOL    HW219032   9.275   7.661  10.704  2.0703  0.1858 -0.2578
37391SOL     OW19033   7.147  11.122   5.176 -0.3656 -0.3595  0.2545
37391SOL    HW119034   7.060  11.128   5.217 -0.4806 -2.0858  0.3677
37391SOL    HW219035   7.150  11.032   5.142  1.4738 -0.4019  0.4715
37392SOL     OW19036   0.977   5.079   9.233 -0.0531 -0.2007  0.3584
37392SOL    HW119037   1.012   5.108   9.149  1.4232 -2.1962  0.2231
37392SOL    HW219038   1.045   5.024   9.271 -0.3647  1.1906  3.2465
37393SOL     OW19039   3.815   1.063   1.614  0.2468 -0.5763 -0.2625
37393SOL    HW119040   3.906   1.082   1.637  0.7361 -0.5575 -2.0727
37393SOL    HW219041   3.766   1.139   1.646  1.1043  0.1888 -0.7027
37394SOL     OW19042   6.543   6.445   2.227  0.3136 -0.8740 -0.9752
37394SOL    HW119043   6.592   6.406   2.300  0.9048  1.5336  0.0040
37394SOL    HW219044   6.609   6.467   2.162 -0.0434 -1.6902 -1.6335
37395SOL     OW19045   5.389  10.830   5.607  0.0258  0.4835  0.2671
37395SOL    HW119046   5.398  10.909   5.660 -2.4672 -0.1091  1.7061
37395SOL    HW219047   5.341  10.859   5.529 -0.1841  0.5329  0.4149
37396SOL     OW19048   6.748   3.202   5.773  0.0888  0.0803 -0.2935
37396SOL    HW119049   6.670   3.188   5.826 -0.6340  0.4902 -1.2421
37396SOL    HW219050   6.718   3.250   5.696  1.1641 -0.3001 -0.9799
37397SOL     OW19051   6.798   5.192  11.943  0.2822 -0.7227 -0.0428
37397SOL    HW119052   6.711   5.210  11.980  0.6138 -0.9626  0.8606
37397SOL    HW219053   6.786   5.204  11.848 -0.3850  0.6672  0.1934
37398SOL     OW19054  10.063  10.419   8.071  0.3323 -0.5202  0.1198
37398SOL    HW119055  10.053  10.457   7.984  0.4873 -0.8024 -0.0242
37398SOL    HW219056   9.973  10.401   8.099  0.0146  2.4021  1.3302
37399SOL     OW19057   3.849   2.145   6.915  0.2046  0.4605  0.0279
37399SOL    HW119058   3.756   2.167   6.913 -0.2884 -1.5874 -1.6546
37399SOL    HW219059   3.889   2.207   6.854  0.0621  1.6053  1.0436
37400SOL     OW19060  11.872   6.692  11.805 -0.0695  0.0731 -0.1610
37400SOL    HW119061  11.790   6.728  11.770 -1.0152 -0.3373  1.4880
37400SOL    HW219062  11.935   6.702  11.734 -1.7354 -0.3193 -1.7939
37401SOL     OW19063   0.858   1.217  10.015  0.5503 -0.6744 -0.3688
37401SOL    HW119064   0.842   1.227   9.921 -1.1256  0.1457 -0.0375
37401SOL    HW219065   0.953   1.208  10.023  0.9283  1.2615 -1.9798
37402SOL     OW19066  10.914   1.516  11.398  0.4927  0.4751 -0.1916
37402SOL    HW119067  10.998   1.474  11.417 -0.0664 -1.2677 -1.3537
37402SOL    HW219068  10.910   1.519  11.302 -0.2766  1.6274 -0.1440
37403SOL     OW19069  12.179   3.730   8.227 -0.0320  0.5124  0.0630
37403SOL    HW119070  12.174   3.818   8.188  0.1732  0.4447 -0.1173
37403SOL    HW219071  12.259   3.732   8.280 -1.7129  1.5046  2.7232
37404SOL     OW19072   2.169   5.810   0.776  0.1686 -0.3199 -0.6099
37404SOL    HW119073   2.180   5.861   0.857  1.8260  0.1184 -1.0803
37404SOL    HW219074   2.155   5.876   0.708 -2.6078 -0.7303 -0.5563
37405SOL     OW19075  12.046   2.934   4.962  0.0946 -0.4250  0.0884
37405SOL    HW119076  12.141   2.940   4.972  0.0890  0.6243 -0.3381
37405SOL    HW219077  12.032   2.865   4.898  0.7132  0.9626 -1.6262
37406SOL     OW19078   9.400   8.973   9.533 -0.5810  0.1879 -0.1361
37406SOL    HW119079   9.328   9.036   9.525  0.2627  1.0537 -1.1919
37406SOL    HW219080   9.455   8.990   9.457  1.4664  0.4601  1.3366
37407SOL     OW19081   3.299   9.242   7.405  0.1795 -0.2654 -0.2026
37407SOL    HW119082   3.310   9.330   7.441  0.0934  0.2280 -1.3500
37407SOL    HW219083   3.215   9.245   7.359  0.0705 -1.0230 -0.0750
37408SOL     OW19084  10.228   0.313   9.843  0.0375 -0.2181 -0.0736
37408SOL    HW119085  10.236   0.220   9.865 -1.7110 -0.3329  0.2292
37408SOL    HW219086  10.139   0.322   9.811  0.1681  1.3831 -0.0568
37409SOL     OW19087   4.900   6.107   3.267 -0.5023  0.1390 -0.0044
37409SOL    HW119088   4.977   6.050   3.257 -0.1940  0.2293  1.5286
37409SOL    HW219089   4.877   6.133   3.178 -0.1514 -1.7231 -0.6807
37410SOL     OW19090   3.030   8.909   9.198  0.5582 -0.6678 -0.2705
37410SOL    HW119091   3.029   8.835   9.138  1.1070 -1.9773  1.2418
37410SOL    HW219092   2.938   8.921   9.223  0.2517  0.2531 -1.7457
37411SOL     OW19093  11.762   9.822   4.498 -0.2452 -0.6118  0.0051
37411SOL    HW119094  11.831   9.888   4.506  0.0633 -1.0529  1.1364
37411SOL    HW219095  11.706   9.855   4.427  0.6230  0.2005 -0.3263
37412SOL     OW19096   8.854   5.178  10.843  1.0452 -0.2378 -0.3711
37412SOL    HW119097   8.845   5.230  10.923 -2.0054 -0.9377 -0.1157
37412SOL    HW219098   8.873   5.090  10.874 -1.2426 -0.7446 -0.2582
37413SOL     OW19099   7.172   1.193  11.916  0.4104  0.2253  0.0641
37413SOL    HW119100   7.088   1.184  11.872  0.6001 -2.1646  0.0716
37413SOL    HW219101   7.158   1.263  11.980 -1.7175 -0.4244  0.3913
37414SOL     OW19102  10.282   3.177   8.849 -0.0650 -0.5518  0.3950
37414SOL    HW119103  10.338   3.103   8.825 -1.5175 -1.0801 -1.6063
37414SOL    HW219104  10.207   3.138   8.894  0.2450 -0.0340  1.3968
37415SOL     OW19105   0.375   4.459   5.206 -0.0807  0.3744  0.1359
37415SOL    HW119106   0.386   4.534   5.148  3.3256 -0.6165 -0.7184
37415SOL    HW219107   0.367   4.384   5.147  0.4862 -0.3253  0.9283
37416SOL     OW19108   2.975   8.865   5.145 -0.0555 -0.5562 -0.0802
37416SOL    HW119109   3.049   8.845   5.202  0.1489 -0.9436 -0.4769
37416SOL    HW219110   2.907   8.802   5.169  0.1028 -0.8529 -0.3966
37417SOL     OW19111  11.406  10.589   5.081 -0.2700  0.3647 -0.3022
37417SOL    HW119112  11.339  10.521   5.092  0.0082  0.0276 -0.6706
37417SOL    HW219113  11.429  10.614   5.170 -0.2164 -0.1858 -0.1547
37418SOL     OW19114  11.489   4.197   6.303 -0.5236  0.1623  0.4785
37418SOL    HW119115  11.427   4.140   6.349 -1.1176 -0.6917 -1.2694
37418SOL    HW219116  11.433   4.261   6.258  0.0220  0.8263  0.7262
37419SOL     OW19117   9.524   8.802   7.007  0.3393 -0.2723 -0.2835
37419SOL    HW119118   9.609   8.841   6.986  0.3292 -0.3526 -0.4786
37419SOL    HW219119   9.462   8.875   7.002  0.1829 -0.4661 -1.5259
37420SOL     OW19120   0.294  10.470  10.924 -0.4598  0.4436  0.1910
37420SOL    HW119121   0.263  10.560  10.914  0.7661  0.7231 -1.6369
37420SOL    HW219122   0.291  10.454  11.018 -1.0953  2.2377  0.5253
37421SOL     OW19123  12.126   7.492   4.755  0.3283  0.0524 -0.0761
37421SOL    HW119124  12.121   7.577   4.799 -0.4982 -0.8154  1.5973
37421SOL    HW219125  12.041   7.482   4.711 -0.5340 -0.8763  1.6949
37422SOL     OW19126  12.271   1.094   0.897  0.0345  0.8492  0.5620
37422SOL    HW119127  12.363   1.076   0.919 -0.2019 -0.2176  0.7384
37422SOL    HW219128  12.236   1.136   0.976 -0.2664 -1.0607  1.4930
37423SOL     OW19129  10.710   8.077   8.699  0.1255  0.2091 -0.1786
37423SOL    HW119130  10.778   8.013   8.682  0.0874  0.2168 -0.3629
37423SOL    HW219131  10.629   8.034   8.672 -0.0416 -0.1075  0.8105
37424SOL     OW19132   0.020   2.703   4.472  0.1207 -0.3848 -0.4450
37424SOL    HW119133   0.065   2.783   4.500  0.8465 -1.0202  0.2610
37424SOL    HW219134   0.014   2.710   4.377 -2.9281  2.1199 -0.2200
37425SOL     OW19135   4.975   8.292   8.624  0.5144  0.3759  0.4673
37425SOL    HW119136   5.004   8.319   8.537  2.0473 -0.8390  0.5709
37425SOL    HW219137   5.021   8.209   8.640  1.2948  1.2221  2.9679
37426SOL     OW19138  10.209   3.799   6.788 -0.1088 -0.1601 -0.3824
37426SOL    HW119139  10.239   3.801   6.697 -1.8050 -1.9085 -1.0468
37426SOL    HW219140  10.127   3.750   6.785 -0.0710 -0.4954  2.1505
37427SOL     OW19141   1.667   1.006   0.961 -0.2961  0.5270 -0.2733
37427SOL    HW119142   1.712   0.922   0.949 -0.4209  0.5913 -1.3486
37427SOL    HW219143   1.611   1.013   0.884  0.4397  2.0522 -0.7031
37428SOL     OW19144   4.370   7.437   0.869 -0.2817 -0.1082  0.5013
37428SOL    HW119145   4.326   7.384   0.803  0.7325 -1.9064  1.1821
37428SOL    HW219146   4.463   7.418   0.856  0.1042  1.3160  0.9755
37429SOL     OW19147   9.877   7.716   9.128 -0.0329  0.1424  0.7793
37429SOL    HW119148   9.881   7.811   9.114  0.2048 -0.0947 -0.9265
37429SOL    HW219149   9.785   7.693   9.116  0.3294 -0.2266 -1.9550
37430SOL     OW19150   3.183  10.597   5.180  0.1423  0.0704  0.1642
37430SOL    HW119151   3.112  10.553   5.131 -0.0918 -0.5371  1.0341
37430SOL    HW219152   3.143  10.622   5.263  1.3340 -1.6969  1.3354
37431SOL     OW19153  11.794  11.200  10.824 -0.2343  0.7871 -0.4549
37431SOL    HW119154  11.889  11.197  10.813 -0.1098  1.6696  0.2761
37431SOL    HW219155  11.766  11.273  10.770 -0.4597  0.6960 -0.4606
37432SOL     OW19156   6.026   8.798   3.323 -0.5262  0.0331 -0.6108
37432SOL    HW119157   6.004   8.713   3.361 -0.8999 -0.0201 -0.9404
37432SOL    HW219158   5.945   8.827   3.280 -1.2622  1.8106  1.7753
37433SOL     OW19159   7.617   2.319   2.907  0.2821 -0.3865  0.0972
37433SOL    HW119160   7.676   2.389   2.881  0.6752 -0.7178  0.0917
37433SOL    HW219161   7.529   2.353   2.889  0.5117 -0.2961 -0.8861
37434SOL     OW19162   2.665  11.579   0.108 -0.4133 -0.6231 -0.0540
37434SOL    HW119163   2.659  11.597   0.014  1.3056 -0.7029 -0.2119
37434SOL    HW219164   2.658  11.665   0.150 -1.9790 -0.6647 -0.1777
37435SOL     OW19165  11.341   8.171   7.806 -0.0701 -0.1774  0.2926
37435SOL    HW119166  11.364   8.079   7.813  0.4989  0.0602  2.2744
37435SOL    HW219167  11.395   8.204   7.734 -1.4522 -1.6669 -1.5273
37436SOL     OW19168   3.386   8.609   6.595  0.5803  0.4539 -0.1507
37436SOL    HW119169   3.450   8.539   6.584  1.6477  1.2920  0.4409
37436SOL    HW219170   3.351   8.595   6.683 -1.2134 -0.8929 -1.0226
37437SOL     OW19171   6.177   3.872   7.584  0.2009  0.0246 -0.2475
37437SOL    HW119172   6.174   3.910   7.672  2.9841 -0.8149  0.2992
37437SOL    HW219173   6.124   3.792   7.591 -1.4651  1.1114 -0.0058
37438SOL     OW19174   9.882   7.773   6.050  0.0586  0.1204 -0.3652
37438SOL    HW119175   9.856   7.711   5.982 -0.2361 -1.2876  0.9677
37438SOL    HW219176   9.866   7.859   6.012  1.1810 -0.5569 -2.5713
37439SOL     OW19177   8.802  10.528  12.111 -0.2845  0.3574  0.1702
37439SOL    HW119178   8.767  10.587  12.177  1.4044  1.5205  0.0740
37439SOL    HW219179   8.729  10.469  12.090 -1.6566  1.6724  1.0986
37440SOL     OW19180  10.641   2.177   1.149  0.3369  0.5246  0.2647
37440SOL    HW119181  10.587   2.124   1.091  0.5326 -0.9219  1.3496
37440SOL    HW219182  10.685   2.240   1.091  0.5738 -0.9049 -1.1539
37441SOL     OW19183  12.478   7.223   1.783  0.6797 -0.1525 -0.3124
37441SOL    HW119184  12.425   7.152   1.747 -1.1751  0.8249  0.3733
37441SOL    HW219185  12.498   7.195   1.872  2.0613 -0.8704 -0.8104
37442SOL     OW19186   6.260   8.719   3.982  0.6831 -0.2952  0.4435
37442SOL    HW119187   6.248   8.735   3.889  0.4382 -0.0812  0.5113
37442SOL    HW219188   6.329   8.653   3.986 -0.6824 -1.8078  0.0383
37443SOL     OW19189   8.344  10.026   1.743 -0.3475  0.0476 -0.3939
37443SOL    HW119190   8.296  10.077   1.677 -0.4641 -0.5837 -0.8121
37443SOL    HW219191   8.435  10.055   1.734 -0.5630  0.9063  0.0757
37444SOL     OW19192  10.572   8.640   6.320  0.0323 -0.0120  0.2169
37444SOL    HW119193  10.638   8.700   6.286  1.5480 -0.1934  2.5926
37444SOL    HW219194  10.489   8.682   6.300  0.9921  2.0667  0.3349
37445SOL     OW19195   4.038   3.312   9.669  0.3063 -0.4661  0.2278
37445SOL    HW119196   4.046   3.329   9.762 -0.5031 -2.7523  0.7767
37445SOL    HW219197   4.116   3.351   9.631 -0.5979  2.8255  1.4281
37446SOL     OW19198   8.233  10.526   0.309  0.7067 -0.0702  0.9255
37446SOL    HW119199   8.198  10.556   0.225  0.6444 -0.3547  0.8495
37446SOL    HW219200   8.161  10.539   0.371  0.2339 -1.2519  0.6475
37447SOL     OW19201  12.187   2.133   2.083  0.2070  0.4294 -0.3720
37447SOL    HW119202  12.134   2.131   2.163  0.8042  2.5586  0.1477
37447SOL    HW219203  12.178   2.223   2.052  0.6245 -0.1642 -2.2962
37448SOL     OW19204   5.163   8.648   8.185  0.0222  0.0952 -0.1645
37448SOL    HW119205   5.116   8.624   8.105 -0.3348  0.1551  0.0280
37448SOL    HW219206   5.245   8.599   8.179 -0.6910 -1.2088  0.2232
37449SOL     OW19207  11.331   9.152  11.417  0.2284  0.0010  0.5550
37449SOL    HW119208  11.240   9.122  11.408 -0.7261  2.9372 -0.5559
37449SOL    HW219209  11.374   9.118  11.339 -0.7852  1.2555 -0.5973
37450SOL     OW19210   4.606   3.556   3.578 -0.4530  0.3741  0.3562
37450SOL    HW119211   4.547   3.575   3.504  1.4167 -0.5585 -1.4810
37450SOL    HW219212   4.693   3.575   3.544  0.5473 -0.9425  2.0455
37451SOL     OW19213   2.564   9.374   2.666 -0.1495 -0.8758  0.3407
37451SOL    HW119214   2.480   9.392   2.708 -0.7367 -2.3401 -0.1539
37451SOL    HW219215   2.582   9.451   2.612 -1.8062 -1.0635 -0.5239
37452SOL     OW19216   4.256   8.764   2.966 -0.0951  0.2060  0.2602
37452SOL    HW119217   4.292   8.737   3.051  1.4846 -0.6391 -0.6273
37452SOL    HW219218   4.161   8.758   2.977  0.0537 -3.8461  0.8045
37453SOL     OW19219   3.065   4.100   6.302 -0.1482  0.2801  0.3902
37453SOL    HW119220   3.063   4.130   6.393 -0.2847 -1.4990  1.0131
37453SOL    HW219221   3.021   4.015   6.304  0.1362  0.0653 -1.2871
37454SOL     OW19222   4.470  11.473   9.809  0.3044 -0.6239  0.1664
37454SOL    HW119223   4.487  11.387   9.847 -0.8764 -1.1615 -0.4730
37454SOL    HW219224   4.376  11.474   9.792  0.2920  0.8018  0.1699
37455SOL     OW19225   0.264   4.373   0.211  0.0223 -0.1990  0.1182
37455SOL    HW119226   0.237   4.309   0.276  2.0440 -0.9130  0.3185
37455SOL    HW219227   0.204   4.447   0.223 -0.3842 -0.7966  1.9859
37456SOL     OW19228  10.060   6.694   2.778 -0.0223 -0.3904  0.4348
37456SOL    HW119229   9.985   6.737   2.737  1.3896 -0.2752 -2.3052
37456SOL    HW219230  10.123   6.765   2.794 -0.1537 -0.5901  2.0028
37457SOL     OW19231   5.806   9.787   3.171  0.5292  0.1498 -0.3163
37457SOL    HW119232   5.783   9.759   3.260  0.1345  0.9079 -0.1729
37457SOL    HW219233   5.797   9.707   3.118 -2.0240  0.2770 -0.1856
37458SOL     OW19234   7.584   7.748   9.825 -0.3280 -0.0140  0.0454
37458SOL    HW119235   7.640   7.794   9.763 -1.9749  0.5936 -1.0747
37458SOL    HW219236   7.534   7.687   9.770 -2.6198  1.3030  0.5179
37459SOL     OW19237   8.408   1.679   4.841 -0.3014  0.0576  0.2869
37459SOL    HW119238   8.336   1.736   4.868  0.4136  1.1212 -0.0116
37459SOL    HW219239   8.373   1.591   4.851 -2.0256  0.5564 -0.8435
37460SOL     OW19240  10.658   4.995   2.456 -0.0488 -0.3366  0.7311
37460SOL    HW119241  10.721   5.025   2.391 -0.9768 -2.4463 -1.3085
37460SOL    HW219242  10.710   4.946   2.520  0.5726 -0.8282 -0.1312
37461SOL     OW19243   5.815   5.299  11.111 -0.2059  0.2494 -0.0066
37461SOL    HW119244   5.862   5.249  11.178 -0.9222 -1.6985 -0.8925
37461SOL    HW219245   5.880   5.360  11.077  0.4428  0.6197  1.7475
37462SOL     OW19246   6.818   5.627   8.034  0.0684  0.0014 -0.1911
37462SOL    HW119247   6.823   5.536   8.003  0.9025  0.0241 -0.1475
37462SOL    HW219248   6.828   5.620   8.129 -2.1615 -0.0406  0.0828
37463SOL     OW19249   5.858   5.129   9.555  0.3042  0.3868 -0.3496
37463SOL    HW119250   5.953   5.130   9.549  0.2819 -1.9080 -2.7645
37463SOL    HW219251   5.832   5.221   9.551  2.3600  0.9855 -0.8660
37464SOL     OW19252   3.122   4.624   6.598 -0.0604  0.2814  0.4099
37464SOL    HW119253   3.062   4.549   6.595 -0.7948  0.8431 -3.2657
37464SOL    HW219254   3.209   4.584   6.605 -0.5939 -0.6985  2.0257
37465SOL     OW19255   7.210   3.711   3.225  0.2284 -0.6894 -0.0790
37465SOL    HW119256   7.210   3.805   3.242 -0.8575 -0.6396 -0.2823
37465SOL    HW219257   7.266   3.701   3.148  3.2095 -0.6497  1.9102
37466SOL     OW19258  10.505   0.631   1.703 -0.4255  0.2188  0.1650
37466SOL    HW119259  10.445   0.676   1.763 -0.1264  1.8733 -0.6900
37466SOL    HW219260  10.480   0.664   1.616  0.5079 -0.5108 -0.3981
37467SOL     OW19261   5.967   2.217   8.313  0.1729  0.0070 -0.1666
37467SOL    HW119262   5.918   2.223   8.231 -0.1417 -0.5098 -0.0237
37467SOL    HW219263   5.907   2.175   8.374 -0.4453  2.4320  1.0207
37468SOL     OW19264   0.024   7.935  11.720  0.6491  0.5705  0.3838
37468SOL    HW119265   0.020   8.003  11.652  2.7316  0.9171  0.5424
37468SOL    HW219266   0.031   7.984  11.802  0.1225  0.1495  0.6855
37469SOL     OW19267  12.301   4.540  11.553 -0.5645  0.5380  0.1836
37469SOL    HW119268  12.256   4.577  11.478  0.8598  1.7314 -0.1232
37469SOL    HW219269  12.387   4.513  11.520  0.1782  1.2988  1.4062
37470SOL     OW19270   5.090   7.788   7.307 -0.0440  0.2586  0.2634
37470SOL    HW119271   5.184   7.808   7.306 -0.1364  0.7539  0.8531
37470SOL    HW219272   5.048   7.873   7.291 -0.4041  0.1361  0.5611
37471SOL     OW19273  11.089  10.878   3.411  0.3501 -0.3252 -0.0318
37471SOL    HW119274  10.994  10.882   3.423  0.2808  0.5095 -0.7128
37471SOL    HW219275  11.103  10.801   3.356 -0.0264  0.0116 -0.6176
37472SOL     OW19276   0.198   8.488   6.148 -0.2142  0.1385  0.3493
37472SOL    HW119277   0.237   8.512   6.232  0.4834  0.3357 -0.0288
37472SOL    HW219278   0.121   8.545   6.140  0.9771  1.7615 -0.1816
37473SOL     OW19279   0.536  12.261   8.252  0.4320  0.0616  0.2247
37473SOL    HW119280   0.559  12.339   8.202 -0.6315  0.5676  0.4994
37473SOL    HW219281   0.560  12.283   8.342  0.7644 -0.1953  0.2010
37474SOL     OW19282   6.442   8.012   7.561 -0.2793 -0.1219 -0.0989
37474SOL    HW119283   6.505   8.050   7.499 -1.5818  1.6049 -0.4325
37474SOL    HW219284   6.412   7.932   7.518 -0.9032  0.8593 -1.5740
37475SOL     OW19285   3.017  11.269   3.952  0.0840  0.6834  0.0324
37475SOL    HW119286   3.065  11.204   3.902 -0.1657  1.6228 -1.4997
37475SOL    HW219287   3.033  11.246   4.044  0.1721 -1.3733 -0.4527
37476SOL     OW19288   2.590   4.783  11.107  0.1253 -0.4275  0.2394
37476SOL    HW119289   2.585   4.787  11.011  0.1377 -2.0543  0.1406
37476SOL    HW219290   2.681   4.760  11.125  0.4088  0.9928  0.7176
37477SOL     OW19291   3.438   9.643   4.827  0.0889  0.0964 -0.2357
37477SOL    HW119292   3.366   9.674   4.882 -0.5528  1.0759 -1.5765
37477SOL    HW219293   3.432   9.548   4.831 -0.1534  0.1468  1.0893
37478SOL     OW19294  11.725   9.126   7.796  0.5131  0.5307 -0.4744
37478SOL    HW119295  11.646   9.154   7.750  0.2984 -0.6763 -0.8776
37478SOL    HW219296  11.795   9.176   7.754 -0.0788  2.0468  0.2844
37479SOL     OW19297   4.769  11.531   2.502 -0.5976  0.0961 -0.1312
37479SOL    HW119298   4.847  11.578   2.471 -0.9132  0.4967 -0.3214
37479SOL    HW219299   4.759  11.459   2.441  0.2184 -0.5676  0.4888
37480SOL     OW19300   7.762   6.507   0.207  0.1248 -0.4933  0.2967
37480SOL    HW119301   7.789   6.568   0.138  1.5161 -0.7820  0.5545
37480SOL    HW219302   7.667   6.513   0.208 -0.0106 -1.1915 -2.3006
37481SOL     OW19303   9.794   8.430   8.615  0.3083  0.4232 -0.2626
37481SOL    HW119304   9.729   8.361   8.604 -1.9720  2.0398  1.8567
37481SOL    HW219305   9.870   8.386   8.653 -1.1475 -0.9471  1.2225
37482SOL     OW19306   5.608   7.174   7.482 -0.5203 -0.1618 -0.1187
37482SOL    HW119307   5.648   7.160   7.396 -0.3035  0.3396 -0.1080
37482SOL    HW219308   5.553   7.098   7.497 -0.1191 -0.5195 -0.4568
37483SOL     OW19309   5.582   8.097   9.589 -0.2164 -0.2684  0.3230
37483SOL    HW119310   5.502   8.145   9.612  0.6530  0.7743  1.3234
37483SOL    HW219311   5.619   8.146   9.516 -0.2523 -0.4752  0.1663
37484SOL     OW19312   5.254  10.763  10.411  0.2495 -0.0184  0.5253
37484SOL    HW119313   5.336  10.764  10.462  0.9358  1.2494 -0.5454
37484SOL    HW219314   5.193  10.817  10.462 -0.2741 -1.7737  1.8283
37485SOL     OW19315   5.994   4.655   5.383 -0.2351  0.3110 -0.0760
37485SOL    HW119316   5.957   4.581   5.335  0.0860  0.0105  0.1389
37485SOL    HW219317   6.083   4.664   5.348 -0.0659  0.2112  0.3261
37486SOL     OW19318  11.273   0.064   9.902 -0.3116  0.1404  0.0505
37486SOL    HW119319  11.221   0.043   9.824  0.0034  0.0711 -0.1438
37486SOL    HW219320  11.290   0.158   9.894 -1.1690  0.3502  0.5836
37487SOL     OW19321   6.919   7.199   1.290  0.9384 -1.1853  0.2527
37487SOL    HW119322   6.881   7.283   1.263 -1.5605 -2.7493 -1.5870
37487SOL    HW219323   6.910   7.198   1.385  0.8954  0.5497  0.2938
37488SOL     OW19324   7.447   6.856  10.810 -0.3233  0.8463  0.9127
37488SOL    HW119325   7.515   6.790  10.828 -0.4568  0.3822 -0.2000
37488SOL    HW219326   7.365   6.808  10.816 -0.4395  0.9719  0.3825
37489SOL     OW19327   2.621   4.029   9.614 -0.1012  0.0823 -0.2145
37489SOL    HW119328   2.547   3.988   9.569  0.1679 -0.7384  0.0739
37489SOL    HW219329   2.698   3.986   9.578  0.1639  0.0121  0.4274
37490SOL     OW19330   6.660   9.870   9.975  0.3148  0.2668  0.1309
37490SOL    HW119331   6.738   9.924   9.984  1.4429 -1.0678 -1.0658
37490SOL    HW219332   6.656   9.850   9.881 -0.1350 -1.5323  0.4908
37491SOL     OW19333   3.388  11.819   1.075  0.0266  0.1276 -0.2287
37491SOL    HW119334   3.355  11.825   1.165  0.3875 -0.3013 -0.0632
37491SOL    HW219335   3.466  11.764   1.082 -0.6460 -0.9652 -0.9839
37492SOL     OW19336   9.305   2.801   3.869  0.0718  0.1247 -0.4352
37492SOL    HW119337   9.389   2.828   3.832  0.3290  1.0974  0.7968
37492SOL    HW219338   9.322   2.714   3.906  0.3892  0.0758 -0.6916
37493SOL     OW19339   0.093   5.435   8.641  0.3272 -0.5230  0.1294
37493SOL    HW119340   0.158   5.483   8.590 -0.3858  0.1033 -0.2260
37493SOL    HW219341   0.040   5.391   8.575 -0.8763  0.6406  0.2636
37494SOL     OW19342   1.976   4.262   7.190  0.2880 -0.6847  0.4173
37494SOL    HW119343   1.978   4.273   7.285  0.3265 -1.9748  0.5747
37494SOL    HW219344   1.885   4.239   7.170  0.0568  0.4998  0.0155
37495SOL     OW19345   4.204   3.250  10.081 -0.0311 -0.0321  0.0196
37495SOL    HW119346   4.248   3.256  10.165 -0.4204  1.8454  0.1349
37495SOL    HW219347   4.274   3.244  10.017  0.3023 -0.1723  0.3983
37496SOL     OW19348   9.821   7.140   3.748 -0.5043 -0.4491  0.0999
37496SOL    HW119349   9.754   7.101   3.804  0.0347 -2.4472 -0.5625
37496SOL    HW219350   9.776   7.157   3.665 -0.7321  0.3572  0.3801
37497SOL     OW19351   8.196   4.834   1.971 -0.2269  0.0094  0.1243
37497SOL    HW119352   8.223   4.758   2.023  0.6004 -0.9753 -1.6709
37497SOL    HW219353   8.277   4.870   1.936 -0.7536  0.7338 -0.3888
37498SOL     OW19354   3.043   8.820   4.051  0.0182  0.0433 -0.2752
37498SOL    HW119355   3.101   8.745   4.037 -1.0661 -1.4653  2.5240
37498SOL    HW219356   2.991   8.796   4.127 -2.0306  2.7159 -0.6860
37499SOL     OW19357   9.683  10.904  11.119 -0.7106 -0.0064 -0.1515
37499SOL    HW119358   9.606  10.952  11.147 -0.5584  0.4869 -0.5473
37499SOL    HW219359   9.681  10.822  11.168 -2.5737 -0.9130 -1.6128
37500SOL     OW19360   8.728   4.963   6.519  0.2502  0.2704  0.5166
37500SOL    HW119361   8.713   4.921   6.604 -2.3917 -0.3040 -0.1344
37500SOL    HW219362   8.641   4.996   6.494  0.5788 -1.0250 -2.7007
37501SOL     OW19363   4.041   9.064   0.026 -0.2803  0.5278 -0.2254
37501SOL    HW119364   4.030   8.993   0.090 -0.3640  0.6540 -0.1011
37501SOL    HW219365   3.957   9.109   0.025  0.3073  1.7159  0.9856
37502SOL     OW19366  11.251  11.908   4.773  0.1592 -0.1393 -0.0263
37502SOL    HW119367  11.304  11.875   4.846  1.7401  1.8720 -0.1827
37502SOL    HW219368  11.168  11.861   4.781  0.9639 -1.3633  1.9166
37503SOL     OW19369   6.414  11.346  12.370 -0.5047  0.2475  0.1838
37503SOL    HW119370   6.357  11.287  12.323  3.7459 -3.3518 -1.1558
37503SOL    HW219371   6.408  11.319  12.462 -1.3101  0.3203  0.1534
37504SOL     OW19372   0.129   8.874   2.838  0.4090 -0.2201 -0.9106
37504SOL    HW119373   0.044   8.864   2.882  0.2351 -3.4369 -1.7076
37504SOL    HW219374   0.115   8.944   2.774 -0.0128  2.9334  2.2892
37505SOL     OW19375   3.592  10.943   8.662 -0.6416 -0.4920 -0.1812
37505SOL    HW119376   3.649  10.873   8.693  1.4653  1.5326  0.8033
37505SOL    HW219377   3.538  10.966   8.738 -0.5076 -0.2888 -0.1459
37506SOL     OW19378   9.345   3.679  12.035 -0.2872 -0.3110  0.3022
37506SOL    HW119379   9.406   3.744  12.071 -0.8016  0.1255  0.3940
37506SOL    HW219380   9.291   3.652  12.110 -0.5295 -0.3367  0.1195
37507SOL     OW19381   1.746   3.198  11.040 -0.4452  0.3239 -0.2631
37507SOL    HW119382   1.805   3.197  11.116 -0.6390 -0.5896 -0.1094
37507SOL    HW219383   1.714   3.108  11.033 -2.0296  0.8471 -0.1950
37508SOL     OW19384  12.442   5.120   3.379  0.1926 -0.2914  0.3272
37508SOL    HW119385  12.524   5.073   3.364  1.1703  1.4057  0.1382
37508SOL    HW219386  12.404   5.077   3.455  0.5972 -1.9318 -0.3367
37509SOL     OW19387   1.132   6.874   7.142  0.5726  1.0947  0.2851
37509SOL    HW119388   1.125   6.810   7.071 -2.6950  0.6751  0.8192
37509SOL    HW219389   1.138   6.822   7.222 -0.6758  1.4342  0.6225
37510SOL     OW19390   3.547  11.547   5.179 -0.0564 -0.2567 -0.0647
37510SOL    HW119391   3.482  11.581   5.240  0.8974  0.5213  0.5411
37510SOL    HW219392   3.621  11.608   5.186  0.4164 -0.6591 -1.3417
37511SOL     OW19393  10.839   8.685   8.762  0.6673  0.2370 -0.2081
37511SOL    HW119394  10.808   8.734   8.686 -3.0086  0.4884  1.2145
37511SOL    HW219395  10.809   8.737   8.837 -1.6857 -3.0277  1.3709
37512SOL     OW19396   0.251   9.997  11.354  0.1862  0.0587  0.1725
37512SOL    HW119397   0.225   9.949  11.275  0.3899 -0.9614  0.6974
37512SOL    HW219398   0.180  10.059  11.369 -1.8312 -2.3649  1.3432
37513SOL     OW19399   5.644   2.155  10.632  0.4661 -0.2591  0.4626
37513SOL    HW119400   5.679   2.222  10.574 -1.4438  0.3466 -0.0652
37513SOL    HW219401   5.639   2.198  10.718 -0.1571  0.0895  0.2609
37514SOL     OW19402   1.476   5.172  10.588 -0.4953 -0.3657 -0.7167
37514SOL    HW119403   1.438   5.260  10.581 -0.3659 -0.3756 -1.7139
37514SOL    HW219404   1.409   5.115  10.550 -1.7374 -1.0829  2.2094
37515SOL     OW19405   4.367   4.027   3.259  0.4789 -0.4926 -0.1955
37515SOL    HW119406   4.353   4.047   3.351 -0.0041  0.8734 -0.5403
37515SOL    HW219407   4.307   3.954   3.241 -1.7979  1.2500 -0.1389
37516SOL     OW19408   8.092   3.223   8.136 -0.3052 -0.1739 -0.0700
37516SOL    HW119409   8.172   3.271   8.157 -0.3244 -0.3527  0.4079
37516SOL    HW219410   8.035   3.288   8.094 -0.1316  0.0898  0.1036
37517SOL     OW19411  10.062   1.160  11.625  0.8126  0.5771  0.0360
37517SOL    HW119412  10.119   1.107  11.680 -1.8087 -0.6984  1.7430
37517SOL    HW219413   9.973   1.137  11.653 -0.6450  1.4853 -3.3085
37518SOL     OW19414   0.929   7.408   5.264 -0.4482 -0.2837 -0.2666
37518SOL    HW119415   0.844   7.414   5.307 -0.9426  0.5495 -1.3245
37518SOL    HW219416   0.956   7.499   5.251  0.6153 -0.5379  0.0501
37519SOL     OW19417   8.224   5.250  12.194  0.0096  0.0633 -0.6229
37519SOL    HW119418   8.203   5.157  12.206 -1.0792  0.3760  0.0674
37519SOL    HW219419   8.201   5.268  12.103 -0.5926 -0.1559 -0.5221
37520SOL     OW19420   8.214  11.214   6.828 -0.5254 -0.2580 -0.1318
37520SOL    HW119421   8.143  11.236   6.767 -0.4214 -1.1790 -0.5949
37520SOL    HW219422   8.256  11.138   6.789  1.1320  0.6531 -0.1880
37521SOL     OW19423  10.406  12.479   0.756  0.3475 -0.2963 -0.1558
37521SOL    HW119424  10.448  12.497   0.672  0.9878 -0.2558  0.1711
37521SOL    HW219425  10.389  12.566   0.793 -1.0868 -0.2772 -0.7962
37522SOL     OW19426   2.299   9.191   3.306 -0.0570  0.3399  0.5014
37522SOL    HW119427   2.308   9.218   3.398  1.3891  1.4327  0.0797
37522SOL    HW219428   2.367   9.240   3.260  0.3253 -1.4197 -0.9214
37523SOL     OW19429   1.997   8.237   1.303 -0.0367  0.9653 -0.5498
37523SOL    HW119430   2.001   8.159   1.248 -0.2982  0.1428  0.5597
37523SOL    HW219431   2.081   8.282   1.288  1.7268 -1.4084  1.4397
37524SOL     OW19432  11.799   9.054  12.399 -0.5201  0.5616 -0.2201
37524SOL    HW119433  11.798   9.133  12.453 -0.0994 -0.3653  1.2103
37524SOL    HW219434  11.843   9.080  12.318  1.6253  1.2650  1.1040
37525SOL     OW19435   9.665   7.843   8.236  0.5585 -0.3137 -0.0857
37525SOL    HW119436   9.683   7.823   8.327  2.3811 -1.8862 -0.7150
37525SOL    HW219437   9.650   7.758   8.195  3.2526 -0.0399 -1.8764
37526SOL     OW19438   9.739   3.456   7.448  0.2846  0.1189  0.0304
37526SOL    HW119439   9.829   3.461   7.416  1.3894 -1.6130  2.6069
37526SOL    HW219440   9.687   3.431   7.371  2.2870 -0.7019 -1.1131
37527SOL     OW19441  10.350   1.199   0.822 -0.0054  0.2192 -0.6023
37527SOL    HW119442  10.356   1.114   0.778  0.5216 -0.0588 -0.0086
37527SOL    HW219443  10.333   1.177   0.913  0.6515  0.7342 -0.3507
37528SOL     OW19444   2.383   3.072   3.506  0.5254  0.0961  0.2412
37528SOL    HW119445   2.389   3.166   3.523  1.2389  0.5078 -2.0189
37528SOL    HW219446   2.427   3.032   3.581  1.6133  1.6346  0.4791
37529SOL     OW19447   2.902   3.711   3.017 -0.0390  0.5214  0.4187
37529SOL    HW119448   2.996   3.692   3.021 -0.5515 -2.7482 -0.2520
37529SOL    HW219449   2.890   3.761   2.937  0.8363 -1.7456 -1.2132
37530SOL     OW19450  11.559  11.570   7.737  0.1149 -0.1728  0.5224
37530SOL    HW119451  11.598  11.539   7.820 -0.3610  0.6256  1.0581
37530SOL    HW219452  11.621  11.634   7.704  1.0937 -1.6460 -0.5797
37531SOL     OW19453  10.974  10.018   7.340 -0.1805  0.5203 -0.2592
37531SOL    HW119454  11.034  10.015   7.414 -1.3578  0.8076  0.7367
37531SOL    HW219455  11.003   9.947   7.283 -0.2742 -0.7954  1.2814
37532SOL     OW19456   3.314   6.521   2.781 -0.7173  0.6269  0.0191
37532SOL    HW119457   3.401   6.559   2.770  0.3596 -1.5817  0.3095
37532SOL    HW219458   3.330   6.436   2.822 -3.1882  0.9588  1.8807
37533SOL     OW19459   5.746   0.277   9.549 -0.0540 -0.3387  0.4369
37533SOL    HW119460   5.824   0.331   9.553  0.0324 -0.3709 -0.5114
37533SOL    HW219461   5.763   0.205   9.610  1.4263 -1.2872 -0.9918
37534SOL     OW19462   6.614   7.670  11.213 -0.0663 -0.1571 -0.4536
37534SOL    HW119463   6.574   7.715  11.287  0.5708 -1.6032  0.8234
37534SOL    HW219464   6.706   7.694  11.217  0.4681 -2.0921  0.7683
37535SOL     OW19465   7.370   2.414   6.411 -0.6293 -0.2038  0.0688
37535SOL    HW119466   7.387   2.452   6.325 -1.6102  0.1673  0.0261
37535SOL    HW219467   7.275   2.409   6.416 -0.6402  0.8980  1.6043
37536SOL     OW19468   1.540  10.132  12.311 -0.2203  0.3497 -0.2329
37536SOL    HW119469   1.563  10.174  12.394  0.5220  0.9576 -0.7463
37536SOL    HW219470   1.622  10.093  12.280 -0.3840  0.5480 -0.9280
37537SOL     OW19471   7.745   1.873  12.439 -0.4032  0.4389 -0.9031
37537SOL    HW119472   7.701   1.873  12.524  0.9028 -0.5681 -0.1910
37537SOL    HW219473   7.800   1.951  12.439  1.1328 -0.5817  0.0602
37538SOL     OW19474   9.151   6.623   4.542  0.1472  0.8149  0.0256
37538SOL    HW119475   9.227   6.649   4.489 -0.1137 -0.8067 -1.2664
37538SOL    HW219476   9.154   6.527   4.540 -2.5715  0.6710 -1.0814
37539SOL     OW19477   3.063   5.388   4.637 -0.7407 -0.1515  0.3724
37539SOL    HW119478   2.984   5.364   4.684 -0.1855  0.0126  1.4316
37539SOL    HW219479   3.092   5.469   4.679 -0.1868 -0.0322 -0.2179
37540SOL     OW19480   1.477   7.411   9.635  0.7602 -0.2407 -0.2111
37540SOL    HW119481   1.425   7.352   9.581  1.5811 -1.2542  0.0681
37540SOL    HW219482   1.509   7.478   9.574  1.0972 -0.9736 -0.8486
37541SOL     OW19483  11.299   2.630   9.224 -0.4299  0.8411  0.3486
37541SOL    HW119484  11.349   2.624   9.142 -0.3344 -0.4832  0.4845
37541SOL    HW219485  11.293   2.539   9.255 -0.2832  1.3415  1.9207
37542SOL     OW19486   0.937   7.723   8.610  0.0225  0.4824  0.1687
37542SOL    HW119487   0.994   7.715   8.533  0.3550 -1.3637  0.5463
37542SOL    HW219488   0.860   7.770   8.578  0.9497  1.3873 -0.8127
37543SOL     OW19489  12.302  11.213   8.360 -0.2096 -0.3223  0.1363
37543SOL    HW119490  12.247  11.139   8.387  1.2410 -0.9905  1.4366
37543SOL    HW219491  12.302  11.271   8.436 -0.4425  0.5110 -0.4800
37544SOL     OW19492  10.347  11.288   2.235  0.1662 -0.2926 -0.4588
37544SOL    HW119493  10.339  11.292   2.330 -1.6177 -0.7693 -0.5545
37544SOL    HW219494  10.441  11.290   2.219  0.4838  0.4747  1.2714
37545SOL     OW19495  10.757   6.506  11.661 -0.0172  0.3218 -0.4486
37545SOL    HW119496  10.699   6.461  11.600 -2.1901  0.9232  1.0412
37545SOL    HW219497  10.731   6.598  11.655 -0.0731  0.4308  1.1282
37546SOL     OW19498   3.632   6.636  10.450  0.2012  0.3490 -0.1541
37546SOL    HW119499   3.676   6.720  10.460 -0.9206  0.8925  0.4577
37546SOL    HW219500   3.609   6.610  10.539  0.3939 -0.5260 -0.3561
37547SOL     OW19501   0.355   4.007   5.746 -0.3873 -0.5706  0.1483
37547SOL    HW119502   0.290   4.051   5.800  0.2460 -1.3072  1.5840
37547SOL    HW219503   0.356   4.056   5.664 -0.4612  1.4263  1.2734
37548SOL     OW19504   2.932   7.212   0.670 -0.2590  0.4319 -0.0955
37548SOL    HW119505   2.937   7.170   0.584 -0.6400 -0.7324  0.4279
37548SOL    HW219506   2.898   7.300   0.652  1.5517  0.9247 -1.3400
37549SOL     OW19507   4.545  12.171   7.722 -0.7584  0.5018 -0.0259
37549SOL    HW119508   4.453  12.165   7.697 -0.7850  0.2069  0.1475
37549SOL    HW219509   4.548  12.145   7.814 -0.6935  1.8244  0.3671
37550SOL     OW19510   0.769  10.346  12.481  0.8140  0.0277  1.0826
37550SOL    HW119511   0.838  10.281  12.469  0.2840 -0.4273  0.3940
37550SOL    HW219512   0.816  10.428  12.498  1.5230 -0.2876  0.7136
37551SOL     OW19513   8.776   3.332   6.020 -0.0702  0.5577  0.1763
37551SOL    HW119514   8.852   3.277   6.001  0.4530  1.6296 -0.9961
37551SOL    HW219515   8.702   3.272   6.020  0.3397 -0.0483 -2.1457
37552SOL     OW19516   9.285   8.555   3.852 -0.2398  0.4392 -0.4941
37552SOL    HW119517   9.210   8.504   3.883  0.5362 -0.2259  0.3339
37552SOL    HW219518   9.333   8.578   3.931  0.9028  0.1057 -1.0680
37553SOL     OW19519   8.642   3.617   9.008 -0.3425  0.8411 -0.7954
37553SOL    HW119520   8.556   3.619   9.049 -0.1768  1.4306 -0.4625
37553SOL    HW219521   8.696   3.565   9.069 -0.0305  1.9332 -0.1077
37554SOL     OW19522  10.459   5.544   8.572 -0.3517  0.4988  0.2986
37554SOL    HW119523  10.416   5.561   8.656 -4.3558  0.5783 -1.5381
37554SOL    HW219524  10.489   5.630   8.542  0.2561  0.6099  1.1925
37555SOL     OW19525   7.646   9.669  11.656  0.2433  0.3386 -0.1697
37555SOL    HW119526   7.594   9.749  11.652  0.8941  0.7731 -0.0551
37555SOL    HW219527   7.605   9.617  11.726 -1.7764 -0.5994 -1.9375
37556SOL     OW19528   3.452   0.220   1.915 -0.4201 -0.2897  0.1795
37556SOL    HW119529   3.388   0.237   1.983 -0.3719  0.0726  0.1348
37556SOL    HW219530   3.529   0.271   1.940 -1.3668  2.1900 -1.6088
37557SOL     OW19531   6.742   6.698   7.779 -0.4240  0.1099  0.2475
37557SOL    HW119532   6.757   6.788   7.810  0.2931 -0.0291  0.3133
37557SOL    HW219533   6.826   6.671   7.742 -0.6253 -0.5537  0.2617
37558SOL     OW19534  10.335   9.288  11.736 -0.4019  0.3150 -0.1822
37558SOL    HW119535  10.408   9.227  11.727  0.8445  1.6972  0.1906
37558SOL    HW219536  10.269   9.239  11.785  0.0849 -1.1071 -0.8989
37559SOL     OW19537   8.401   5.609   4.955  0.0551  0.0409 -0.2384
37559SOL    HW119538   8.415   5.704   4.956 -0.7794  0.1742  0.8521
37559SOL    HW219539   8.425   5.582   4.866  0.9479  1.1620 -0.3572
37560SOL     OW19540   8.831   6.455   1.076  0.2990  0.6692 -0.9162
37560SOL    HW119541   8.814   6.545   1.102  0.6927  1.0998 -2.0814
37560SOL    HW219542   8.921   6.438   1.104 -0.6041 -0.2991  1.7146
37561SOL     OW19543   6.507   5.955   0.406 -0.6069  0.5322 -0.0816
37561SOL    HW119544   6.491   6.029   0.466  0.7586  0.8654 -0.0856
37561SOL    HW219545   6.539   5.996   0.326  0.9288 -0.0759  0.1820
37562SOL     OW19546   5.343   2.734   4.261 -0.2441  0.4833  0.0994
37562SOL    HW119547   5.302   2.757   4.178  1.5151 -0.3473 -1.0678
37562SOL    HW219548   5.436   2.721   4.239  0.3889  0.8137  2.3053
37563SOL     OW19549   4.132   7.630   3.146 -0.4192 -0.7469 -0.3952
37563SOL    HW119550   4.058   7.595   3.196 -1.9288  3.1359  0.4571
37563SOL    HW219551   4.091   7.685   3.079  1.7314  0.0858 -1.0912
37564SOL     OW19552   5.135   1.611   7.047  0.0106 -0.4776  0.0561
37564SOL    HW119553   5.065   1.672   7.071  0.1424 -0.5581  0.6835
37564SOL    HW219554   5.117   1.587   6.956 -0.5784 -0.2302  0.1028
37565SOL     OW19555   6.573  12.190   8.119 -0.3083 -0.0493 -0.1249
37565SOL    HW119556   6.525  12.108   8.121 -1.6044  0.6803 -0.1441
37565SOL    HW219557   6.515  12.251   8.072  0.9981  0.6487 -0.9137
37566SOL     OW19558   9.746  11.870   8.423  0.6702  0.6686 -0.4455
37566SOL    HW119559   9.764  11.805   8.356  0.4335 -0.0523  0.1777
37566SOL    HW219560   9.800  11.843   8.498  0.3520  1.0245 -0.0822
37567SOL     OW19561   2.120   4.834   7.390 -0.1083  0.0464 -0.7425
37567SOL    HW119562   2.172   4.791   7.459 -0.2887 -1.2848 -1.4127
37567SOL    HW219563   2.037   4.855   7.433  0.1778  0.2161 -0.2578
37568SOL     OW19564   4.354   6.616  11.334 -0.5097  0.0651 -0.4601
37568SOL    HW119565   4.287   6.551  11.357  0.4404 -1.3695 -1.5936
37568SOL    HW219566   4.306   6.685  11.287 -1.2651 -0.7200 -0.8553
37569SOL     OW19567   4.417   1.541   6.649 -0.3791 -0.5583  0.1874
37569SOL    HW119568   4.404   1.450   6.620 -0.3232 -0.6511  0.4445
37569SOL    HW219569   4.466   1.582   6.578  0.3902 -0.9787  0.4593
37570SOL     OW19570   1.333   0.939   8.476 -0.7097  0.0377 -0.3404
37570SOL    HW119571   1.401   0.956   8.411  0.5081 -0.0674  0.8830
37570SOL    HW219572   1.308   0.848   8.460 -0.0342 -0.1547 -0.3082
37571SOL     OW19573  11.844   4.778   0.811  0.2798  0.3602  0.6763
37571SOL    HW119574  11.818   4.867   0.788  0.8780  0.2566 -0.4553
37571SOL    HW219575  11.789   4.756   0.887 -1.8696  0.6855 -0.6875
37572SOL     OW19576   6.044   3.532   4.618 -0.1052 -0.1037  0.4134
37572SOL    HW119577   6.020   3.501   4.531 -0.5031 -1.7371  1.0643
37572SOL    HW219578   6.133   3.499   4.631  1.1615  2.6787 -0.4889
37573SOL     OW19579   4.824   3.023   1.385  0.4463 -0.0508 -0.3706
37573SOL    HW119580   4.740   3.015   1.431  0.8778 -2.9805  0.0897
37573SOL    HW219581   4.885   3.054   1.452  0.1886 -0.0148 -0.1468
37574SOL     OW19582   7.643  12.405   3.358 -0.2731 -0.1549  0.0094
37574SOL    HW119583   7.726  12.367   3.331  0.5225  1.1200  0.5941
37574SOL    HW219584   7.622  12.469   3.290  0.1113  0.7546  0.7270
37575SOL     OW19585   2.493   2.116  10.907 -0.5323  0.0038 -0.0040
37575SOL    HW119586   2.409   2.070  10.904 -0.7544  0.0319  2.9110
37575SOL    HW219587   2.558   2.046  10.914 -0.4473  0.0189 -0.6472
37576SOL     OW19588  11.888   6.544   0.845  0.6974  0.4269 -0.3103
37576SOL    HW119589  11.848   6.499   0.919  0.5046  0.3467 -0.4615
37576SOL    HW219590  11.956   6.484   0.814 -0.9809 -0.7635 -1.8693
37577SOL     OW19591   2.295   7.264  10.860 -0.0349 -0.0941  0.1181
37577SOL    HW119592   2.335   7.242  10.776 -0.7831 -0.8462 -0.0624
37577SOL    HW219593   2.282   7.179  10.903 -2.0796  0.0414 -0.1471
37578SOL     OW19594  12.300  11.788   1.202 -0.1624 -0.1058 -0.5846
37578SOL    HW119595  12.375  11.743   1.162  0.2690  0.1049 -0.0176
37578SOL    HW219596  12.266  11.725   1.266 -1.4365 -0.8269 -1.8954
37579SOL     OW19597   6.673   5.895   4.170  0.6189 -0.1420 -0.0861
37579SOL    HW119598   6.609   5.868   4.105  1.5347 -0.1357 -1.0220
37579SOL    HW219599   6.724   5.964   4.127  1.8383 -0.7795  0.2765
37580SOL     OW19600   1.591   4.354   7.349  0.5679 -0.3684  0.1626
37580SOL    HW119601   1.658   4.375   7.285  1.0324 -0.0075  0.7561
37580SOL    HW219602   1.634   4.365   7.434 -0.6441  1.3941  0.6095
37581SOL     OW19603   2.268   6.097  12.112  0.4980 -0.5572  0.0387
37581SOL    HW119604   2.341   6.089  12.174  2.2812  1.5682 -1.6455
37581SOL    HW219605   2.201   6.146  12.160  1.0613 -0.6184  0.9022
37582SOL     OW19606   7.190  11.020   2.338  0.2798 -0.0887 -0.0965
37582SOL    HW119607   7.110  11.058   2.375  0.6631  0.6796 -0.0346
37582SOL    HW219608   7.163  10.935   2.304 -0.1562 -0.7309  1.7116
37583SOL     OW19609   9.469   3.869  12.177 -0.5011 -0.5023  0.9061
37583SOL    HW119610   9.411   3.934  12.138 -0.1350 -0.2931  0.7137
37583SOL    HW219611   9.505   3.912  12.254  2.0654  0.6509 -0.8096
37584SOL     OW19612   7.779   0.396   8.942 -0.4623  0.9124 -0.1812
37584SOL    HW119613   7.828   0.371   8.865 -1.1231  0.3100 -0.4240
37584SOL    HW219614   7.840   0.386   9.015  0.1531  1.4596 -0.6200
37585SOL     OW19615   8.388   3.248  10.297  0.3908  0.7472 -0.1149
37585SOL    HW119616   8.415   3.158  10.315  0.2175  0.4814 -1.1492
37585SOL    HW219617   8.400   3.294  10.381  0.5396 -0.2149  0.4026
37586SOL     OW19618   0.879   7.301  11.734 -0.4377 -0.5778  0.5035
37586SOL    HW119619   0.796   7.347  11.744  0.0993  0.0852  2.3023
37586SOL    HW219620   0.898   7.265  11.821  0.5603 -1.7809 -0.1673
37587SOL     OW19621  11.827   2.836  11.006  0.2443  0.0497 -0.3606
37587SOL    HW119622  11.869   2.845  11.092  1.5284 -0.6781 -0.8935
37587SOL    HW219623  11.879   2.891  10.948 -0.9797  1.0237 -0.5920
37588SOL     OW19624   6.719   6.300   5.764 -0.1760  0.3629  0.1755
37588SOL    HW119625   6.775   6.264   5.694  0.6055  0.7831  0.5724
37588SOL    HW219626   6.636   6.254   5.753  0.6028 -1.1472  0.2949
37589SOL     OW19627  12.281   9.392   8.584  0.7040  0.3033 -0.1625
37589SOL    HW119628  12.298   9.385   8.678  1.9642 -1.7686 -0.4869
37589SOL    HW219629  12.267   9.302   8.555 -3.1848  1.1358 -1.4208
37590SOL     OW19630   9.830   6.383   2.359  0.1873  0.2470 -0.5236
37590SOL    HW119631   9.810   6.448   2.292  0.3095 -0.9742 -1.7847
37590SOL    HW219632   9.891   6.323   2.317 -0.6523 -1.2245  0.2648
37591SOL     OW19633   4.909   8.109   2.481  0.5400  0.4666  0.1378
37591SOL    HW119634   4.928   8.019   2.453  1.3662  0.7108 -0.1222
37591SOL    HW219635   4.873   8.151   2.404 -0.3630  0.2181  0.4127
37592SOL     OW19636   3.467   5.349   7.671 -0.1321  0.5950  0.1112
37592SOL    HW119637   3.532   5.280   7.679 -0.6827 -0.3794 -2.7121
37592SOL    HW219638   3.516   5.430   7.684  1.4691 -0.1700 -0.8373
37593SOL     OW19639   4.436   8.619  10.879  0.4346  0.7235  0.0327
37593SOL    HW119640   4.508   8.646  10.935 -0.4451 -0.1216  1.6408
37593SOL    HW219641   4.361   8.671  10.908 -0.1840 -0.1634  0.0952
37594SOL     OW19642   8.598   5.389   9.879  0.1798  0.0919  0.4033
37594SOL    HW119643   8.573   5.334   9.805 -0.1854 -1.1268  1.3972
37594SOL    HW219644   8.679   5.350   9.911 -0.3411 -0.1847  1.4200
37595SOL     OW19645   8.827   5.355  10.353  0.1755  0.4433  0.4415
37595SOL    HW119646   8.899   5.333  10.413 -0.5094  1.0532  1.5130
37595SOL    HW219647   8.767   5.406  10.406  0.6966  3.1556 -1.3865
37596SOL     OW19648   1.536  11.998  10.886 -0.1944  1.0030 -0.0197
37596SOL    HW119649   1.510  11.981  10.976  1.6612  0.4363  0.4567
37596SOL    HW219650   1.455  12.025  10.842 -0.9299  2.4337  2.0562
37597SOL     OW19651  11.314  11.831   9.515  0.8131 -0.6438 -0.5980
37597SOL    HW119652  11.275  11.745   9.535 -0.2705 -0.2978 -1.0974
37597SOL    HW219653  11.282  11.850   9.427  1.9323 -0.2005 -0.9223
37598SOL     OW19654   5.175  11.274   9.857 -0.4553  0.1659 -0.1360
37598SOL    HW119655   5.143  11.189   9.889  0.0812  0.1312  0.3138
37598SOL    HW219656   5.139  11.338   9.918  0.5584  0.1003  0.5491
37599SOL     OW19657   2.952   9.043   4.383  0.2316  0.0737  0.3762
37599SOL    HW119658   2.938   9.137   4.389  0.7204  0.1682  0.1580
37599SOL    HW219659   3.012   9.033   4.308 -1.6892 -0.6052 -1.1675
37600SOL     OW19660   0.713   3.066   8.754  0.2160  0.1656  0.1544
37600SOL    HW119661   0.645   3.018   8.708 -0.0553 -1.2102  1.9086
37600SOL    HW219662   0.666   3.134   8.803  0.0678 -0.7715  1.3496
37601SOL     OW19663   4.386   7.261   9.578 -0.3582  0.4381  0.2314
37601SOL    HW119664   4.389   7.285   9.486 -1.3424  0.3762  0.1747
37601SOL    HW219665   4.478   7.253   9.604 -0.0398 -1.6525 -1.2889
37602SOL     OW19666  10.808   4.606   9.440 -0.1706 -0.2624  0.7559
37602SOL    HW119667  10.793   4.683   9.495  0.6187 -0.6968  1.5900
37602SOL    HW219668  10.755   4.537   9.480 -1.8907  0.1115 -0.7082
37603SOL     OW19669   3.243   4.487  11.122 -0.1306 -0.0958  0.3256
37603SOL    HW119670   3.265   4.429  11.049  1.0950 -0.0593  0.6537
37603SOL    HW219671   3.210   4.428  11.190 -2.8115  0.0027 -0.7581
37604SOL     OW19672   5.278   8.690  12.178  0.3870 -0.6821 -0.5078
37604SOL    HW119673   5.303   8.782  12.184  0.4492 -0.7362  0.1856
37604SOL    HW219674   5.207   8.688  12.115  0.9489 -0.2793 -1.1619
37605SOL     OW19675   8.331   4.593   6.138 -0.1857 -0.2662 -1.1219
37605SOL    HW119676   8.307   4.664   6.077 -0.2803  0.0909 -0.6753
37605SOL    HW219677   8.405   4.629   6.188  0.3135 -0.8029 -1.4697
37606SOL     OW19678   7.312  10.753   4.029 -0.1451 -0.6940  0.4817
37606SOL    HW119679   7.394  10.781   3.989 -0.6883  0.3978  0.1018
37606SOL    HW219680   7.306  10.659   4.009  0.4022 -0.5154 -0.5536
37607SOL     OW19681   0.762   0.288  10.859 -0.2328  0.4226 -0.2186
37607SOL    HW119682   0.764   0.258  10.949  0.3283 -0.7637 -0.6052
37607SOL    HW219683   0.678   0.258  10.825  0.0799 -0.2125 -0.4378
37608SOL     OW19684   4.350   0.143   2.906 -0.0774  0.6233  0.1239
37608SOL    HW119685   4.299   0.199   2.847 -0.6102  1.4184  1.3011
37608SOL    HW219686   4.285   0.099   2.960  0.4419  1.4192  1.4494
37609SOL     OW19687   3.469  10.921   7.105 -0.4220  0.1597 -0.1017
37609SOL    HW119688   3.541  10.937   7.166  1.6368 -0.4462 -2.2010
37609SOL    HW219689   3.414  10.998   7.111  1.2683  1.3742  0.4748
37610SOL     OW19690  10.152   2.204   1.310  0.3823  0.2422  0.3064
37610SOL    HW119691  10.141   2.109   1.312 -1.1165  0.3924  1.4078
37610SOL    HW219692  10.235   2.220   1.354 -0.1081 -0.5077  1.5705
37611SOL     OW19693   9.458   7.083   2.792  0.3944  0.2179  0.1226
37611SOL    HW119694   9.483   7.059   2.703  2.1820  1.8900  0.1260
37611SOL    HW219695   9.434   7.175   2.787  1.1758  0.5254  1.4972
37612SOL     OW19696   4.863   6.174  11.655 -0.4071  0.6380 -0.2741
37612SOL    HW119697   4.818   6.150  11.574  1.6341 -0.7336 -1.0761
37612SOL    HW219698   4.891   6.090  11.693  2.1236  1.4092 -0.2510
37613SOL     OW19699   4.780   9.298   2.717  0.4915 -0.6917  0.4160
37613SOL    HW119700   4.699   9.260   2.752 -0.1023 -1.2256 -1.4251
37613SOL    HW219701   4.755   9.386   2.688  0.7095 -0.6477  0.3581
37614SOL     OW19702   4.837  12.123   5.010 -0.1425 -0.1813 -0.4587
37614SOL    HW119703   4.788  12.172   5.077  0.4835 -1.7797  1.2662
37614SOL    HW219704   4.787  12.137   4.929 -1.2847  1.3315  0.4526
37615SOL     OW19705   1.030   6.764  10.686 -0.4909 -0.3456 -0.8411
37615SOL    HW119706   1.018   6.723  10.600 -1.3563  0.1904 -0.9842
37615SOL    HW219707   1.056   6.854  10.666  0.8687 -0.6557 -0.5267
37616SOL     OW19708   7.288   7.605   1.916 -0.3026 -0.3519 -0.3855
37616SOL    HW119709   7.349   7.679   1.912 -0.5256  0.0009  1.6871
37616SOL    HW219710   7.339   7.534   1.955 -1.3035  0.1555  2.0439
37617SOL     OW19711   9.271   7.757   9.325  0.2251 -0.0758 -0.1917
37617SOL    HW119712   9.202   7.718   9.378 -0.2573 -0.8349 -1.3181
37617SOL    HW219713   9.266   7.851   9.344  0.7580 -0.4186  1.8392
37618SOL     OW19714   9.329   8.134   1.359 -0.5994  0.5272  0.5869
37618SOL    HW119715   9.343   8.181   1.442  0.0906  1.5993 -0.1054
37618SOL    HW219716   9.367   8.192   1.293 -0.4006 -0.6887 -0.3924
37619SOL     OW19717   7.346  10.723   0.650 -0.1812  0.3987 -0.4084
37619SOL    HW119718   7.304  10.640   0.672 -0.4610 -0.5604 -3.8811
37619SOL    HW219719   7.274  10.786   0.644 -0.4546  0.0434 -1.0354
37620SOL     OW19720   7.359   4.125  10.120  0.0576  0.3270 -0.1017
37620SOL    HW119721   7.371   4.125  10.215 -0.4281  0.0416 -0.0379
37620SOL    HW219722   7.405   4.046  10.090  0.3500  0.5046 -0.1236
37621SOL     OW19723   1.718   3.848   6.160 -0.2003 -0.3408 -0.5663
37621SOL    HW119724   1.751   3.826   6.073  2.1322 -0.4161  0.2560
37621SOL    HW219725   1.730   3.768   6.211  1.5039  0.5851  0.5939
37622SOL     OW19726   2.120   8.029   7.358 -0.3185 -0.5855  0.8596
37622SOL    HW119727   2.113   8.124   7.354 -1.0392 -0.6613 -0.4754
37622SOL    HW219728   2.049   8.003   7.416  1.5027 -0.2038  3.4143
37623SOL     OW19729   8.797   7.632   1.113 -0.0312  0.0949  0.0710
37623SOL    HW119730   8.820   7.546   1.078  0.1966  1.0825 -2.3392
37623SOL    HW219731   8.723   7.661   1.060 -0.9417  0.8876  1.6917
37624SOL     OW19732   5.848   6.349   2.888  0.3308 -0.3014 -0.0943
37624SOL    HW119733   5.868   6.280   2.824  0.7003 -0.5844  0.3174
37624SOL    HW219734   5.771   6.393   2.852 -0.5073 -1.5373  0.1008
37625SOL     OW19735  11.552   3.790   0.619 -0.3398  0.3667  0.0833
37625SOL    HW119736  11.543   3.866   0.562 -0.4437  0.0876 -0.2778
37625SOL    HW219737  11.619   3.815   0.682  1.1396  0.0119 -1.2882
37626SOL     OW19738   7.552   1.005   4.949  0.1765  0.2525 -0.5409
37626SOL    HW119739   7.599   1.031   5.029  2.6899 -3.7146 -0.4266
37626SOL    HW219740   7.489   0.940   4.980  1.4081 -1.5792 -1.6884
37627SOL     OW19741   5.840   6.686  10.991 -0.6704 -0.7737  0.2691
37627SOL    HW119742   5.795   6.757  10.944 -0.8663 -0.6929  0.5746
37627SOL    HW219743   5.924   6.676  10.945 -0.1621  0.4161  0.8960
37628SOL     OW19744  10.619   3.703   4.059 -0.2471 -0.0955 -0.4573
37628SOL    HW119745  10.683   3.739   3.998  0.6153 -1.4793 -0.4122
37628SOL    HW219746  10.554   3.773   4.070  1.5696  1.6052 -0.0029
37629SOL     OW19747   2.247   8.086  10.811 -0.5218 -1.1385  0.0944
37629SOL    HW119748   2.280   8.012  10.862 -1.4910 -2.0016 -0.4820
37629SOL    HW219749   2.202   8.045  10.736 -1.3128  0.0212 -0.0928
37630SOL     OW19750   6.802   0.982   7.556  0.0391  0.1258 -1.1071
37630SOL    HW119751   6.861   0.941   7.618  0.6690  1.8431 -0.5081
37630SOL    HW219752   6.739   0.913   7.533  0.0751 -0.7047  1.0461
37631SOL     OW19753  12.018   5.457   1.627  0.1445  0.1551  0.1820
37631SOL    HW119754  12.012   5.485   1.718 -2.9656 -1.4651  0.6004
37631SOL    HW219755  12.028   5.538   1.577 -1.8573  1.4617  1.7541
37632SOL     OW19756   0.615  11.563   0.187 -0.9494  0.1342 -0.3531
37632SOL    HW119757   0.692  11.607   0.150 -0.8247  0.2458  0.0386
37632SOL    HW219758   0.649  11.483   0.226 -0.5998  1.4116  2.1491
37633SOL     OW19759   1.020   4.434   8.545  0.1104 -0.1425  0.2915
37633SOL    HW119760   0.971   4.409   8.623  0.1538 -1.1161  0.0226
37633SOL    HW219761   1.047   4.524   8.560  0.6799 -0.5261  1.6992
37634SOL     OW19762   2.141   1.685   9.658  0.0118  0.7037  0.0731
37634SOL    HW119763   2.148   1.616   9.724 -2.8762 -0.3647 -0.5605
37634SOL    HW219764   2.196   1.655   9.586  0.9410  0.4627  0.8693
37635SOL     OW19765   7.341   4.883   8.102  0.7445  0.0250 -0.1727
37635SOL    HW119766   7.431   4.916   8.101  0.0155  2.1326 -0.0481
37635SOL    HW219767   7.292   4.946   8.155 -1.0098 -0.5210 -1.0597
37636SOL     OW19768   7.572  10.998   0.073  0.1285 -0.2683 -0.0638
37636SOL    HW119769   7.641  10.938   0.045  1.4108  0.1487  1.9415
37636SOL    HW219770   7.601  11.084   0.043  0.4949 -0.1057  0.7050
37637SOL     OW19771  11.483   0.718   5.943  0.2109  0.5208 -0.2781
37637SOL    HW119772  11.520   0.631   5.927  1.1044  0.9589 -0.6736
37637SOL    HW219773  11.391   0.702   5.960  0.6358 -0.6443  1.0896
37638SOL     OW19774   4.498   8.863   0.097  0.5310 -0.3028  0.1597
37638SOL    HW119775   4.517   8.891   0.187 -2.2684  0.0124  0.7509
37638SOL    HW219776   4.501   8.767   0.101  2.2344 -0.2864  0.0840
37639SOL     OW19777  12.367  12.042   1.312  0.9212 -0.3516 -0.0724
37639SOL    HW119778  12.305  12.110   1.340  1.7294 -0.1327  1.2845
37639SOL    HW219779  12.312  11.973   1.275  0.0314  0.7100 -0.8047
37640SOL     OW19780   5.626   1.274   5.542  0.1508 -0.6152  0.1192
37640SOL    HW119781   5.624   1.289   5.636 -0.7365  0.8169 -0.0877
37640SOL    HW219782   5.628   1.362   5.504 -0.4613 -1.1404 -1.1929
37641SOL     OW19783   2.292   7.322   6.022 -0.3806  0.8405  0.1055
37641SOL    HW119784   2.198   7.304   6.017 -0.4504  0.6059  1.7413
37641SOL    HW219785   2.319   7.287   6.106  1.3457  0.2603 -0.6404
37642SOL     OW19786   2.450   0.705  12.481  0.1675 -0.1979 -0.1435
37642SOL    HW119787   2.423   0.684  12.571 -0.6562  0.3222 -0.2580
37642SOL    HW219788   2.435   0.799  12.473 -1.6972 -0.5551 -1.4439
37643SOL     OW19789   5.856   0.176  12.155  0.0600 -0.6213  0.0244
37643SOL    HW119790   5.845   0.095  12.205  0.9424 -0.7803 -0.0236
37643SOL    HW219791   5.767   0.203  12.134 -0.3500 -0.5827  1.6436
37644SOL     OW19792   4.836   9.177   9.052  0.1513  0.1695  0.2252
37644SOL    HW119793   4.863   9.123   9.125  0.3160  0.4779  0.3957
37644SOL    HW219794   4.904   9.166   8.986  0.5985  0.7810  0.5703
37645SOL     OW19795   4.662   7.183   9.911 -0.1292  0.1171 -0.2013
37645SOL    HW119796   4.677   7.092   9.887 -1.3607  0.1338 -1.1212
37645SOL    HW219797   4.573   7.185   9.946 -1.4730  1.4436 -3.2755
37646SOL     OW19798  11.331   6.184   4.210 -0.2261 -0.0413  0.3088
37646SOL    HW119799  11.262   6.248   4.191  0.2199  0.0066 -1.2726
37646SOL    HW219800  11.311   6.110   4.152  0.1283 -0.7008  1.0214
37647SOL     OW19801   5.682   7.803   1.645  0.3150  0.0957  0.2928
37647SOL    HW119802   5.651   7.786   1.734  0.7862  1.9398  0.8687
37647SOL    HW219803   5.635   7.741   1.590 -3.4267  1.7926  1.2633
37648SOL     OW19804   9.789   8.076   7.677 -0.9007  0.2073  0.2376
37648SOL    HW119805   9.784   8.071   7.582  0.9158  2.4529 -0.0797
37648SOL    HW219806   9.726   8.144   7.701  0.1840  1.2119  0.3486
37649SOL     OW19807   4.384   8.772   8.758  0.1120 -0.1982  0.0309
37649SOL    HW119808   4.414   8.794   8.846  0.8446 -2.0793  0.2899
37649SOL    HW219809   4.378   8.676   8.758  1.0917 -0.3084 -2.2741
37650SOL     OW19810   0.237   4.024   0.721 -0.0972  0.7300  0.4937
37650SOL    HW119811   0.331   4.045   0.723  0.1556 -0.2519  0.0866
37650SOL    HW219812   0.195   4.094   0.770  0.7176  1.8762 -0.3966
37651SOL     OW19813   8.583  11.535   5.703  0.4718 -0.4619 -0.8291
37651SOL    HW119814   8.514  11.544   5.769 -0.7608 -0.4093 -2.0713
37651SOL    HW219815   8.616  11.446   5.716 -0.5626 -0.8703 -0.8735
37652SOL     OW19816   3.634   4.516   3.301  0.1029 -0.4985 -0.1701
37652SOL    HW119817   3.563   4.574   3.330 -0.6410 -1.5147  0.1017
37652SOL    HW219818   3.617   4.503   3.207  0.6709  0.2532 -0.3881
37653SOL     OW19819   8.693   8.156   4.143 -0.4883  0.1751 -0.1871
37653SOL    HW119820   8.682   8.143   4.237 -3.3897  0.9102 -0.3229
37653SOL    HW219821   8.653   8.078   4.103 -0.8189  0.6412 -0.7910
37654SOL     OW19822   8.871   3.794   9.138  0.4920 -0.0556 -0.1656
37654SOL    HW119823   8.855   3.705   9.170  0.2391 -0.2375 -0.7845
37654SOL    HW219824   8.792   3.842   9.161  0.0227 -0.3547 -1.0893
37655SOL     OW19825   5.365   6.699   1.153 -0.1065  0.0764  0.2396
37655SOL    HW119826   5.381   6.609   1.182 -0.3478 -0.6034 -1.6082
37655SOL    HW219827   5.452   6.737   1.143 -0.0071  0.1086  1.1460
37656SOL     OW19828   6.379   1.430   1.573  0.1119  0.2102  0.5023
37656SOL    HW119829   6.439   1.464   1.639 -0.4367  1.0014  0.6081
37656SOL    HW219830   6.374   1.336   1.592  1.5537  0.0612  0.2848
37657SOL     OW19831   7.490   0.187   8.686 -0.5040  0.2748  0.3084
37657SOL    HW119832   7.429   0.200   8.759 -1.3000 -1.0366 -0.0852
37657SOL    HW219833   7.469   0.099   8.653 -0.3090  0.9003 -1.6168
37658SOL     OW19834  10.138   0.358   7.649 -0.7955  0.7072  0.1796
37658SOL    HW119835  10.094   0.325   7.571  0.1446 -0.0080 -0.0760
37658SOL    HW219836  10.206   0.416   7.616 -0.9040  1.0279  0.5109
37659SOL     OW19837   1.314   9.603  10.783  0.0933 -0.2720 -0.1348
37659SOL    HW119838   1.313   9.617  10.688  1.0252 -1.0331 -0.2779
37659SOL    HW219839   1.405   9.618  10.808  0.1117 -1.2746  0.4423
37660SOL     OW19840  10.788   6.273   0.909 -0.4905  0.0030  0.5135
37660SOL    HW119841  10.736   6.250   0.986 -0.1367  1.0857  1.1006
37660SOL    HW219842  10.726   6.319   0.852 -0.9173 -1.3571 -0.1677
37661SOL     OW19843   6.642  12.354  12.372  0.3074 -0.0579 -0.0401
37661SOL    HW119844   6.656  12.409  12.295  1.3010  2.2096  1.6262
37661SOL    HW219845   6.637  12.416  12.445 -1.5666 -2.0187  1.6468
37662SOL     OW19846  11.211   2.771   1.296  0.4676 -0.7995 -0.1312
37662SOL    HW119847  11.249   2.803   1.214 -1.5586  2.2143 -0.0370
37662SOL    HW219848  11.121   2.749   1.274 -0.0722 -0.0625  1.2079
37663SOL     OW19849   0.455   9.580   7.161 -0.6048 -0.1479  0.0246
37663SOL    HW119850   0.454   9.626   7.077  0.4159  1.9407  1.0828
37663SOL    HW219851   0.530   9.521   7.156  0.0206  0.6581 -0.2052
37664SOL     OW19852   3.755   9.733   9.448  0.1217 -0.1717 -0.1911
37664SOL    HW119853   3.728   9.700   9.533  2.4827  0.6202  0.9477
37664SOL    HW219854   3.711   9.676   9.385  2.3196 -4.2480  1.6040
37665SOL     OW19855   4.683   8.503   5.894  0.1705 -0.0699  0.3137
37665SOL    HW119856   4.668   8.597   5.906 -0.3699  0.1695 -1.7545
37665SOL    HW219857   4.778   8.494   5.895  0.3369  0.9056 -1.6883
37666SOL     OW19858  10.129  11.427   2.625  0.2930  0.4764  0.5912
37666SOL    HW119859  10.062  11.362   2.645  2.2675 -1.8897  0.1347
37666SOL    HW219860  10.151  11.467   2.709 -0.7944  0.3798  0.9271
37667SOL     OW19861   6.312   1.849  10.630 -0.5476  0.5822 -0.0310
37667SOL    HW119862   6.250   1.803  10.686 -0.7980  0.2477 -0.5744
37667SOL    HW219863   6.351   1.780  10.576  0.3558  0.7739  0.3551
37668SOL     OW19864   7.223   6.047   1.860  0.0909  0.6589 -0.1680
37668SOL    HW119865   7.198   5.969   1.812  0.0807  0.4166  0.2240
37668SOL    HW219866   7.223   6.020   1.952  1.8395  0.6180 -0.1424
37669SOL     OW19867   7.649  11.970   9.077 -0.5392  0.7997 -0.4097
37669SOL    HW119868   7.585  11.910   9.114 -1.5521  3.1579  1.9755
37669SOL    HW219869   7.728  11.957   9.131  0.0767 -0.0864 -1.4933
37670SOL     OW19870   4.006   3.677  10.584 -0.1531  0.1510  0.8439
37670SOL    HW119871   3.927   3.730  10.583 -1.1226 -1.2494  0.5010
37670SOL    HW219872   4.035   3.676  10.493  0.4761  0.9530  1.0277
37671SOL     OW19873   7.628   3.771  11.062  0.4853 -0.4698  0.4444
37671SOL    HW119874   7.567   3.829  11.016 -0.7300 -1.7787  0.3098
37671SOL    HW219875   7.604   3.779  11.154 -0.7452 -1.8444  0.2900
37672SOL     OW19876   8.569   9.015   2.094 -0.1196 -0.1940  0.4262
37672SOL    HW119877   8.527   9.096   2.067 -1.6852 -1.1093 -0.0267
37672SOL    HW219878   8.544   9.004   2.186 -1.4878 -1.0747 -0.0264
37673SOL     OW19879  11.373   3.007   2.025  0.3148  0.2634  0.2103
37673SOL    HW119880  11.305   3.004   2.091 -0.5187 -1.1952 -0.6691
37673SOL    HW219881  11.335   2.964   1.948  0.7334  3.0296 -1.7257
37674SOL     OW19882   0.752   0.404   3.686  0.2265  0.0518  0.2702
37674SOL    HW119883   0.677   0.355   3.653 -0.4486  0.8112  0.6396
37674SOL    HW219884   0.781   0.457   3.611 -0.4582  0.7634  0.4975
37675SOL     OW19885  11.304   5.802   1.301 -0.4197  0.0094  0.3423
37675SOL    HW119886  11.365   5.729   1.312  0.9677  0.8081 -1.5738
37675SOL    HW219887  11.349   5.863   1.243 -2.8027  0.9747 -0.6213
37676SOL     OW19888   4.721   6.534  12.011  0.1886  1.0338  0.0088
37676SOL    HW119889   4.693   6.500  11.926  0.2445 -0.1052  0.4292
37676SOL    HW219890   4.792   6.476  12.037  0.5780  1.7499  0.5645
37677SOL     OW19891   7.308   2.724   9.481  0.1014 -0.0671  0.5129
37677SOL    HW119892   7.372   2.696   9.547 -0.8283  0.9230  1.9009
37677SOL    HW219893   7.224   2.718   9.526 -0.3965  2.2856  0.0186
37678SOL     OW19894   9.226   9.235  11.749 -0.1851 -0.0175 -0.2924
37678SOL    HW119895   9.291   9.303  11.739 -1.7720  2.0162  2.1287
37678SOL    HW219896   9.243   9.196  11.834 -1.5696 -0.0277  0.0145
37679SOL     OW19897  11.870   3.535   4.693 -0.2496  0.2654 -0.8315
37679SOL    HW119898  11.942   3.587   4.728 -0.0838  0.6889 -1.7763
37679SOL    HW219899  11.891   3.445   4.716  0.0992  0.4784 -0.2913
37680SOL     OW19900   0.601   5.367   9.734  0.0733  0.1914  0.1232
37680SOL    HW119901   0.595   5.365   9.830  1.2328  1.7088  0.2700
37680SOL    HW219902   0.671   5.304   9.714  1.9151  1.9950  0.5634
37681SOL     OW19903   3.567   3.364   6.818  0.0596  0.2863  0.4266
37681SOL    HW119904   3.493   3.325   6.864  0.3733  0.0845  0.7682
37681SOL    HW219905   3.640   3.305   6.835 -0.0952 -0.4880 -1.4018
37682SOL     OW19906   4.004  10.372  11.340 -0.2366  0.1013  0.5236
37682SOL    HW119907   4.055  10.292  11.340  1.0557  0.8738  1.8246
37682SOL    HW219908   3.913  10.343  11.330  0.3246 -1.3803 -0.6108
37683SOL     OW19909   7.560   1.098   7.364  0.4435 -0.7667  0.2598
37683SOL    HW119910   7.531   1.020   7.317  1.0922 -0.0122 -1.4818
37683SOL    HW219911   7.631   1.134   7.310 -0.4873  1.5589  0.4718
37684SOL     OW19912   7.062  12.392   9.802 -0.0029 -0.4323  0.3816
37684SOL    HW119913   7.071  12.476   9.756  6.3241 -1.5495 -1.2808
37684SOL    HW219914   7.092  12.410   9.891 -1.9888 -0.4092  1.0998
37685SOL     OW19915   6.573   2.394   2.291 -0.3569  0.1062  0.2786
37685SOL    HW119916   6.549   2.454   2.362 -0.8296 -0.0346  0.2451
37685SOL    HW219917   6.578   2.448   2.213  2.7497  0.7499  0.8335
37686SOL     OW19918  11.704   2.531   0.335 -0.6098  0.0996  0.1760
37686SOL    HW119919  11.726   2.447   0.293  1.3137  0.4022  0.4705
37686SOL    HW219920  11.706   2.595   0.264  1.6411  0.4458  0.4618
37687SOL     OW19921  10.698   4.807   1.579  0.5368  0.3789  0.6682
37687SOL    HW119922  10.742   4.723   1.594 -0.7094 -0.3106  0.5828
37687SOL    HW219923  10.767   4.872   1.591  1.2211 -0.5665  2.2168
37688SOL     OW19924   3.677   7.823  11.962 -0.1837 -0.5898 -0.3704
37688SOL    HW119925   3.722   7.834  12.046  1.5574 -1.2080 -1.1691
37688SOL    HW219926   3.598   7.773  11.984  0.6837 -1.5318  0.7991
37689SOL     OW19927  10.753   2.521   3.328 -0.3198  0.3297 -0.3870
37689SOL    HW119928  10.687   2.564   3.382  0.0111  0.0042  0.2850
37689SOL    HW219929  10.827   2.582   3.327 -0.0512  0.0156  0.1298
37690SOL     OW19930   7.484  11.640   0.317 -0.4229  0.2207 -0.3799
37690SOL    HW119931   7.538  11.624   0.240 -0.6507 -3.1822 -0.0063
37690SOL    HW219932   7.546  11.637   0.390 -0.3393  2.5060 -0.2993
37691SOL     OW19933  10.124   1.646   3.143  0.7858 -0.0649 -0.3232
37691SOL    HW119934  10.138   1.605   3.058  0.5293 -0.5026 -0.1599
37691SOL    HW219935  10.200   1.703   3.156  0.9668 -0.2190 -0.7161
37692SOL     OW19936   5.466   8.759   3.344  0.7259  0.2805 -0.3058
37692SOL    HW119937   5.534   8.725   3.285 -0.2740 -1.6547 -0.4541
37692SOL    HW219938   5.413   8.682   3.364 -1.0080  1.5973  0.3581
37693SOL     OW19939   0.980   4.417   5.367  0.2487 -0.2061  0.5891
37693SOL    HW119940   1.044   4.394   5.300 -0.3369  0.3981 -0.1966
37693SOL    HW219941   0.924   4.340   5.374  1.2100 -0.8493  1.4889
37694SOL     OW19942   4.498   3.587   4.232 -0.3142 -0.3208  0.0020
37694SOL    HW119943   4.587   3.617   4.249 -0.2576 -0.7578  0.4917
37694SOL    HW219944   4.448   3.667   4.217 -0.4857  0.1923  2.7662
37695SOL     OW19945   9.119   0.886   3.978  0.2523 -0.0782 -0.2120
37695SOL    HW119946   9.084   0.855   3.895  1.0731 -1.2660 -0.1480
37695SOL    HW219947   9.161   0.969   3.958 -0.1930  0.0010 -0.8309
37696SOL     OW19948   6.493   1.184   7.758  0.7686 -0.2254  0.1438
37696SOL    HW119949   6.559   1.234   7.710  1.3196 -0.4424  0.6819
37696SOL    HW219950   6.520   1.093   7.749  0.7201 -0.2877  0.6446
37697SOL     OW19951   3.280   7.202  12.453  0.0848  0.3317  0.3774
37697SOL    HW119952   3.208   7.227  12.395  1.4653 -1.1345 -2.1199
37697SOL    HW219953   3.347   7.268  12.439  1.3634 -1.2651 -1.6737
37698SOL     OW19954   4.992   7.849  10.038  0.0101 -0.3976  0.3510
37698SOL    HW119955   5.004   7.936   9.999  1.9650  0.1441  2.0170
37698SOL    HW219956   5.017   7.788   9.968  1.8522  0.5032  0.1659
37699SOL     OW19957   5.634   7.444   8.993  0.2444 -0.3935 -0.2914
37699SOL    HW119958   5.665   7.368   8.942  1.0175  0.1345 -0.6310
37699SOL    HW219959   5.618   7.511   8.927  0.3548 -0.0007  0.0799
37700SOL     OW19960  11.634   8.487   8.910 -0.0302 -0.2999  0.1256
37700SOL    HW119961  11.673   8.571   8.886 -0.0526 -0.4435 -0.4132
37700SOL    HW219962  11.546   8.509   8.939 -1.2043 -0.4420 -2.9978
37701SOL     OW19963   2.073   9.511   3.460 -0.3954 -0.2426  0.2244
37701SOL    HW119964   2.015   9.513   3.536 -1.2413  0.5439 -0.4223
37701SOL    HW219965   2.035   9.444   3.403 -0.5707  0.1493 -0.1213
37702SOL     OW19966   3.762   4.114   6.146  0.1087 -0.3337  0.2800
37702SOL    HW119967   3.775   4.207   6.128 -0.5873 -0.2514  0.1774
37702SOL    HW219968   3.830   4.070   6.094  1.2686  0.1687  1.3285
37703SOL     OW19969   4.938   3.049   7.181  0.8246  0.2960 -0.0268
37703SOL    HW119970   4.873   3.048   7.251 -1.6412  0.0236 -2.1631
37703SOL    HW219971   5.010   2.996   7.215 -1.3924 -2.0620  1.3609
37704SOL     OW19972   9.320   2.071   2.863 -0.0966 -0.0794 -0.0087
37704SOL    HW119973   9.407   2.033   2.850  0.7461  1.5629  0.5639
37704SOL    HW219974   9.269   2.002   2.905  0.9160 -1.0725 -0.3802
37705SOL     OW19975   3.229   6.154  12.025  0.0828  0.4409  0.0568
37705SOL    HW119976   3.267   6.159  12.113  0.6294  0.5136 -0.1862
37705SOL    HW219977   3.218   6.245  11.998  0.5065  0.4123 -0.2095
37706SOL     OW19978   7.258  11.798   8.675 -0.2929  0.1193  0.2142
37706SOL    HW119979   7.207  11.879   8.668 -0.9880 -0.3674 -0.4998
37706SOL    HW219980   7.255  11.760   8.588  0.8348 -0.2092  0.3023
37707SOL     OW19981   7.670   4.570   1.068 -0.2729 -0.4679  0.2215
37707SOL    HW119982   7.672   4.556   0.974 -1.7027 -1.5535  0.3054
37707SOL    HW219983   7.713   4.493   1.105 -0.6220 -0.5458  0.4738
37708SOL     OW19984   5.423   2.402   1.531 -0.4853 -0.2585 -0.1202
37708SOL    HW119985   5.332   2.430   1.538 -0.6645 -0.7660 -0.3942
37708SOL    HW219986   5.432   2.374   1.440 -0.0787 -0.2929 -0.0708
37709SOL     OW19987   0.934  10.653   2.049 -0.0718  0.1730 -0.1496
37709SOL    HW119988   0.976  10.568   2.066 -1.5923 -0.6594 -0.3614
37709SOL    HW219989   0.954  10.672   1.958  0.9771  0.4751  0.1284
37710SOL     OW19990   6.008   5.109  11.228 -0.3337 -0.2393  0.4746
37710SOL    HW119991   6.062   5.051  11.175  0.4201  0.6785  0.2083
37710SOL    HW219992   5.989   5.059  11.308  2.3301 -0.0119  1.3326
37711SOL     OW19993   0.065   7.042   4.659 -0.0934 -0.0551  0.2898
37711SOL    HW119994   0.097   7.122   4.616 -2.8572  1.5576  0.9922
37711SOL    HW219995   0.035   6.987   4.587 -2.9820  1.8471 -0.1176
37712SOL     OW19996  11.276  10.110   3.333 -0.1010  0.5607  0.2963
37712SOL    HW119997  11.206  10.174   3.320 -1.0810  0.3755  3.7402
37712SOL    HW219998  11.233  10.025   3.321  0.5050  0.4334 -1.2906
37713SOL     OW19999   0.205   2.508  10.483  0.2667  0.9584  0.2081
37713SOL    HW120000   0.115   2.505  10.451  1.1839 -2.0515 -2.6949
37713SOL    HW220001   0.211   2.435  10.545  0.9064  0.4403 -0.4428
37714SOL     OW20002   4.219   6.563   5.545 -0.0201  0.2895 -0.1986
37714SOL    HW120003   4.202   6.650   5.581  1.0545  0.1944  0.5848
37714SOL    HW220004   4.142   6.543   5.493 -0.2465  1.7481 -0.4598
37715SOL     OW20005   7.736   7.533   8.864 -0.6666 -0.0748 -0.6477
37715SOL    HW120006   7.647   7.520   8.831 -0.9579  0.9033 -0.2787
37715SOL    HW220007   7.756   7.624   8.846  0.0118 -0.1080 -0.1173
37716SOL     OW20008   0.104  11.707   0.579  0.5065 -0.2940  0.7655
37716SOL    HW120009   0.099  11.694   0.674 -0.6397  2.0867  1.1153
37716SOL    HW220010   0.056  11.789   0.564  3.9800  1.5671 -1.3827
37717SOL     OW20011   3.554   2.765   0.133 -0.1214  0.0653  0.2523
37717SOL    HW120012   3.558   2.860   0.119  1.2138  0.3126  1.9041
37717SOL    HW220013   3.645   2.740   0.151 -0.5107 -1.4809  0.1396
37718SOL     OW20014   6.663   5.639  11.073  0.0941  0.2555  0.0317
37718SOL    HW120015   6.686   5.684  11.155 -1.0773  1.9204 -0.5024
37718SOL    HW220016   6.737   5.580  11.058  0.3186 -0.1461  2.2979
37719SOL     OW20017   8.201   6.857   7.037 -0.2825 -0.3440 -0.3349
37719SOL    HW120018   8.125   6.903   7.001  0.0666 -0.2644 -0.9894
37719SOL    HW220019   8.195   6.769   6.999  0.3099 -0.1398 -0.9224
37720SOL     OW20020   3.106   1.777   2.697  1.0745 -0.0563 -0.2007
37720SOL    HW120021   3.182   1.804   2.645  0.5785  0.4680 -0.6667
37720SOL    HW220022   3.063   1.712   2.642  1.2971 -0.5147  0.1586
37721SOL     OW20023   5.188  12.114  10.832 -0.0342  0.4798 -0.5386
37721SOL    HW120024   5.272  12.157  10.817 -0.0893  0.4612 -0.9044
37721SOL    HW220025   5.169  12.070  10.749 -2.0937  3.3263 -1.7203
37722SOL     OW20026   7.431   4.784   6.502  0.0175  0.2942 -0.2344
37722SOL    HW120027   7.393   4.809   6.585 -0.0560  0.0965 -0.2066
37722SOL    HW220028   7.523   4.810   6.508  0.5533 -1.6021  0.7432
37723SOL     OW20029   4.989   3.580   2.995 -0.1437  0.2184 -0.4459
37723SOL    HW120030   4.917   3.532   2.954  0.4769 -0.8838 -0.2831
37723SOL    HW220031   4.980   3.669   2.962 -0.7269 -0.2325 -1.5530
37724SOL     OW20032   6.272  10.382   9.506  0.6515 -0.1069  0.6628
37724SOL    HW120033   6.274  10.339   9.421  2.1025  1.4383 -0.1482
37724SOL    HW220034   6.316  10.466   9.491 -1.5089  1.4120  2.2888
37725SOL     OW20035   5.756   3.623   0.568  0.4406 -0.5477  0.0399
37725SOL    HW120036   5.772   3.717   0.562  0.9331 -0.6200  0.2041
37725SOL    HW220037   5.704   3.612   0.648  0.9572 -0.4861  0.3889
37726SOL     OW20038   7.189   5.849   0.206  0.7880  0.2706  0.0924
37726SOL    HW120039   7.234   5.848   0.121 -0.1750  1.4334 -0.4605
37726SOL    HW220040   7.103   5.886   0.187  0.0974 -0.6134  1.3748
37727SOL     OW20041   9.253   9.022   1.497 -0.1314  0.2262 -0.7254
37727SOL    HW120042   9.197   9.078   1.551 -2.4101 -0.9401 -1.7578
37727SOL    HW220043   9.236   9.051   1.407  2.0362  0.7418 -1.0523
37728SOL     OW20044   4.286   9.328   2.451 -0.0479  0.7334  0.3678
37728SOL    HW120045   4.311   9.347   2.360  0.4685  0.3072  0.4130
37728SOL    HW220046   4.273   9.233   2.453  0.3803  0.6785  0.8383
37729SOL     OW20047   2.774   0.371   8.900  0.3806  0.2314 -0.6130
37729SOL    HW120048   2.868   0.353   8.902  0.5882  1.2915 -0.2340
37729SOL    HW220049   2.745   0.338   8.814  0.8793 -1.0521 -0.3099
37730SOL     OW20050   3.343   2.188  12.064 -0.2791 -0.2365  0.2009
37730SOL    HW120051   3.263   2.238  12.053  0.0059  0.0615 -0.5640
37730SOL    HW220052   3.327   2.105  12.020  0.0947  0.1181 -0.6207
37731SOL     OW20053   8.757  11.055  11.094 -0.6559  0.4559 -0.3753
37731SOL    HW120054   8.771  11.140  11.137 -1.0573 -0.6343  2.0308
37731SOL    HW220055   8.845  11.029  11.064 -0.6394  2.0048 -1.8597
37732SOL     OW20056  12.118   3.732   4.504 -0.2230  0.2534  0.1591
37732SOL    HW120057  12.146   3.665   4.441 -0.1840  0.6508 -0.2557
37732SOL    HW220058  12.198   3.780   4.524  0.0034 -0.6079  1.4363
37733SOL     OW20059   5.481   7.823   4.064 -0.3700  0.0003  0.3058
37733SOL    HW120060   5.416   7.760   4.032  0.7627 -0.7214 -0.6708
37733SOL    HW220061   5.522   7.779   4.139 -0.3930  0.0747  0.3621
37734SOL     OW20062  11.699  10.351   8.411 -0.0172 -0.0008 -0.3874
37734SOL    HW120063  11.653  10.266   8.413  0.6762 -0.3713  0.3592
37734SOL    HW220064  11.642  10.407   8.359 -0.3458 -1.0095 -1.1668
37735SOL     OW20065  11.184   3.387   5.226  0.0344  0.0279 -0.1403
37735SOL    HW120066  11.111   3.375   5.288  0.9530  0.5005  1.0729
37735SOL    HW220067  11.142   3.415   5.145 -1.4108 -2.6042 -0.4331
37736SOL     OW20068  10.602   0.887  12.460 -0.0095 -0.1723  0.0155
37736SOL    HW120069  10.627   0.834  12.535  0.4880 -0.1991 -0.1597
37736SOL    HW220070  10.647   0.846  12.386 -1.1549 -0.6388 -0.4374
37737SOL     OW20071   9.208  12.119   9.440 -0.9717 -0.2077  0.2597
37737SOL    HW120072   9.179  12.182   9.507 -0.5710 -0.5842  0.7998
37737SOL    HW220073   9.186  12.033   9.477 -0.7180 -0.4204 -0.0803
37738SOL     OW20074   3.155   2.832   0.491  0.2360 -0.7953 -0.2058
37738SOL    HW120075   3.218   2.890   0.447  1.3415 -0.9874  1.0747
37738SOL    HW220076   3.144   2.759   0.431 -1.1458  0.6609 -1.8404
37739SOL     OW20077   1.046   4.097   7.292 -0.0556 -0.1006  0.7755
37739SOL    HW120078   1.090   4.125   7.372  0.6423 -0.5254  0.5532
37739SOL    HW220079   0.996   4.173   7.264 -0.1775  0.1031  1.5269
37740SOL     OW20080   2.271   4.616  12.057  0.3218  0.2546  0.5785
37740SOL    HW120081   2.340   4.663  12.010  1.4971 -0.4267  1.5367
37740SOL    HW220082   2.210   4.588  11.989  1.0156  0.8389 -0.3086
37741SOL     OW20083  10.526  10.986   8.805 -0.1440  0.1099 -0.7349
37741SOL    HW120084  10.503  10.944   8.722  0.3396 -0.0872 -0.7692
37741SOL    HW220085  10.512  11.079   8.790 -0.9264 -0.0052 -0.7543
37742SOL     OW20086   8.879  11.026   2.548 -0.3392 -0.4771  0.3001
37742SOL    HW120087   8.965  11.016   2.507 -0.6782  0.9586 -0.8613
37742SOL    HW220088   8.891  11.095   2.613 -0.9437  0.9295 -1.0241
37743SOL     OW20089   5.001  12.238   8.553  0.3935  0.0217  0.0525
37743SOL    HW120090   4.994  12.324   8.595 -0.7022 -0.0920  0.1366
37743SOL    HW220091   4.946  12.181   8.607 -0.7555 -0.2110 -1.3085
37744SOL     OW20092   1.470   7.133   8.380 -0.2889  0.3469  0.1719
37744SOL    HW120093   1.536   7.068   8.403 -1.6237 -0.4079  2.1256
37744SOL    HW220094   1.520   7.214   8.369  1.0781 -0.3907  0.6051
37745SOL     OW20095   1.951   8.934   8.694 -0.0534 -0.6461  0.3427
37745SOL    HW120096   1.969   9.025   8.667  0.3170 -1.1450 -1.1800
37745SOL    HW220097   2.030   8.907   8.740  0.3591 -0.5946 -0.3171
37746SOL     OW20098   2.550  10.622   4.215 -0.6744  0.1477  0.1244
37746SOL    HW120099   2.464  10.579   4.217 -1.4248  1.5886 -0.0318
37746SOL    HW220100   2.612  10.549   4.209 -1.8144 -0.9870  1.2264
37747SOL     OW20101   7.730  11.666   4.705 -0.2718  0.4031  0.3485
37747SOL    HW120102   7.646  11.637   4.669  0.0704 -0.1174 -0.0303
37747SOL    HW220103   7.706  11.712   4.786 -0.8633 -0.3966  0.6401
37748SOL     OW20104   4.071  10.440   7.727 -0.2842 -0.0250  0.2034
37748SOL    HW120105   4.166  10.445   7.713 -0.3070  1.2156  0.4305
37748SOL    HW220106   4.038  10.395   7.649  0.5526 -1.1050  0.4390
37749SOL     OW20107  12.426  12.371   1.960  0.2328 -0.2417 -0.2077
37749SOL    HW120108  12.382  12.456   1.965  1.8108  0.6236 -0.5065
37749SOL    HW220109  12.386  12.319   2.030 -0.4986  0.8539  0.2155
37750SOL     OW20110  10.387   5.272   7.398  0.8678  0.1789  0.0649
37750SOL    HW120111  10.409   5.317   7.317  1.3449  0.9368  0.6003
37750SOL    HW220112  10.342   5.338   7.451 -1.9658 -1.0356 -0.6125
37751SOL     OW20113  11.707  12.377   4.653 -0.2777  0.0044 -0.4186
37751SOL    HW120114  11.674  12.422   4.731 -2.2319  0.7598 -1.6123
37751SOL    HW220115  11.634  12.321   4.625  0.4897 -0.4662 -1.5499
37752SOL     OW20116   4.531   2.893   3.393 -0.1887  0.2502  0.2663
37752SOL    HW120117   4.508   2.843   3.471  0.9018  0.8714  1.0033
37752SOL    HW220118   4.610   2.850   3.360  0.9736  1.6777  1.1140
37753SOL     OW20119   4.971   6.087   2.485  0.4312  0.2866  0.1517
37753SOL    HW120120   4.911   6.144   2.534  0.7414 -0.0559  0.9629
37753SOL    HW220121   4.938   6.088   2.396 -2.3971 -1.8971  1.0027
37754SOL     OW20122   7.256   6.570  11.276  0.2282  0.5708 -0.1574
37754SOL    HW120123   7.225   6.590  11.187  0.4586 -0.0768 -0.3890
37754SOL    HW220124   7.348   6.596  11.275  0.0358  1.2945  0.1388
37755SOL     OW20125  12.289   2.199   7.186 -0.5038  0.4962 -0.2684
37755SOL    HW120126  12.202   2.233   7.165 -0.9091 -0.4367 -0.1280
37755SOL    HW220127  12.284   2.105   7.167  1.2827  0.8122 -2.9093
37756SOL     OW20128   5.436   6.629   7.194 -0.0094  0.0625 -0.2041
37756SOL    HW120129   5.505   6.661   7.251  0.4150 -0.8455 -0.2063
37756SOL    HW220130   5.413   6.705   7.139  1.0956  0.3176 -0.3226
37757SOL     OW20131   5.023   2.859   6.342  0.4130 -0.2617  0.0384
37757SOL    HW120132   4.947   2.852   6.285  1.2201  1.3823 -1.3384
37757SOL    HW220133   5.087   2.909   6.291  1.1513  1.3903  2.3879
37758SOL     OW20134   6.905  11.081   5.870  0.2247 -0.0865  0.0777
37758SOL    HW120135   6.937  11.150   5.928  0.7463 -0.3546  0.1129
37758SOL    HW220136   6.815  11.066   5.899  0.9832 -1.3953  1.9525
37759SOL     OW20137   1.684   7.970  10.392  0.4460  0.4122  0.0271
37759SOL    HW120138   1.631   7.996  10.317  0.8561  1.0872 -0.0422
37759SOL    HW220139   1.621   7.949  10.461  0.0680 -0.1614 -0.4816
37760SOL     OW20140   8.276  11.871   9.977 -0.2605 -0.3547 -0.0992
37760SOL    HW120141   8.237  11.815   9.910 -1.6076  2.1686 -1.5866
37760SOL    HW220142   8.202  11.911  10.022  0.5745  1.4379 -0.2126
37761SOL     OW20143   4.307   5.087   1.693 -0.0932  0.2976 -0.2336
37761SOL    HW120144   4.335   5.161   1.639  0.4867 -0.2993 -0.7699
37761SOL    HW220145   4.356   5.097   1.774 -0.3800  0.7677 -0.1151
37762SOL     OW20146  11.170   9.398   9.423  0.0315 -0.6001  0.2992
37762SOL    HW120147  11.124   9.319   9.453 -0.3621 -0.6830 -0.4810
37762SOL    HW220148  11.107   9.441   9.365 -0.3200  1.0842  1.8606
37763SOL     OW20149  11.425  10.825   8.190  0.0480  0.2733  0.4217
37763SOL    HW120150  11.360  10.836   8.259 -0.9337 -0.0185 -0.4276
37763SOL    HW220151  11.415  10.902   8.135  1.7966  1.2245  1.3280
37764SOL     OW20152   5.419   5.223   1.373 -0.3266  0.1402  0.2824
37764SOL    HW120153   5.451   5.306   1.339 -1.8760  1.4099  1.7759
37764SOL    HW220154   5.443   5.223   1.466  1.7001 -2.1799 -0.1157
37765SOL     OW20155   0.036   2.650   6.782  0.4626 -0.1500  0.4871
37765SOL    HW120156   0.100   2.580   6.794  0.6913 -0.4839 -2.0487
37765SOL    HW220157   0.088   2.727   6.758  0.0667 -0.9742 -3.9508
37766SOL     OW20158   8.197  10.735   0.779 -0.3391  0.1654 -0.3858
37766SOL    HW120159   8.271  10.795   0.787 -0.0408 -0.2070 -0.3459
37766SOL    HW220160   8.236  10.651   0.754 -0.7895  0.0807 -0.8338
37767SOL     OW20161   8.593  12.336   1.949  0.4862 -0.1574  0.4325
37767SOL    HW120162   8.576  12.415   1.899 -0.5728 -0.4516  0.2945
37767SOL    HW220163   8.688  12.324   1.945  0.5287  0.4451 -0.5312
37768SOL     OW20164   7.714   2.423  11.166  0.0252  0.1752 -0.8163
37768SOL    HW120165   7.689   2.342  11.211  4.2933 -1.4328 -0.8347
37768SOL    HW220166   7.714   2.399  11.073 -0.3280  0.7563 -0.9686
37769SOL     OW20167   7.302   9.133  10.290 -0.2050 -0.4890 -0.3970
37769SOL    HW120168   7.285   9.219  10.252  2.7706  1.5299  2.3300
37769SOL    HW220169   7.383   9.104  10.249  1.8869  0.7589  2.5217
37770SOL     OW20170   1.037   1.732   1.903  0.4990  0.1609 -0.0901
37770SOL    HW120171   1.080   1.646   1.907 -0.0691 -0.1923 -1.1690
37770SOL    HW220172   1.103   1.793   1.934  0.8252 -0.6918  0.9549
37771SOL     OW20173   1.846   3.724   4.119 -0.4872 -0.0593  0.5791
37771SOL    HW120174   1.913   3.717   4.188 -0.8912 -1.4846  0.8654
37771SOL    HW220175   1.873   3.660   4.053 -2.0691 -1.4085  1.1724
37772SOL     OW20176   0.911   5.403   7.660  0.3118 -0.0329  0.3176
37772SOL    HW120177   0.841   5.461   7.690 -1.5873 -2.0510  0.0701
37772SOL    HW220178   0.897   5.395   7.566  0.5688 -0.8616  0.3435
37773SOL     OW20179  11.616   7.601   0.821  0.0201  0.3639 -0.5743
37773SOL    HW120180  11.577   7.514   0.812  0.1778  0.4624 -2.5549
37773SOL    HW220181  11.608   7.620   0.914 -1.5080 -1.0756 -0.3454
37774SOL     OW20182   2.269   1.662  10.639  0.5617 -0.9988  0.5293
37774SOL    HW120183   2.357   1.643  10.673  0.7946 -0.1984  0.4023
37774SOL    HW220184   2.283   1.728  10.571 -0.1613 -0.6281  0.7226
37775SOL     OW20185  11.991  10.702  10.721 -0.5212  0.4097  0.3455
37775SOL    HW120186  12.008  10.770  10.655  0.0226 -0.4899 -0.4707
37775SOL    HW220187  12.036  10.733  10.800  1.6050  0.0148 -0.6319
37776SOL     OW20188  11.373   2.796   8.887  0.0497 -0.3582 -0.5517
37776SOL    HW120189  11.393   2.765   8.798  0.6181 -0.3268 -0.4362
37776SOL    HW220190  11.284   2.832   8.880 -0.6842 -2.0929 -0.6728
37777SOL     OW20191  11.003   8.199  10.400 -0.4746 -0.0360  0.2535
37777SOL    HW120192  11.082   8.148  10.417 -0.6342  0.0491  1.3078
37777SOL    HW220193  10.988   8.248  10.481 -1.8939 -0.4241  0.2487
37778SOL     OW20194   5.656  10.756   4.312 -0.8737 -0.0146  0.4917
37778SOL    HW120195   5.745  10.720   4.312 -0.2763  1.3557 -0.8955
37778SOL    HW220196   5.602  10.688   4.272 -0.2212 -0.3486  0.1656
37779SOL     OW20197   5.303   7.109   3.182  0.4685 -0.3661  0.0123
37779SOL    HW120198   5.236   7.067   3.129  1.2677 -1.3073 -0.2918
37779SOL    HW220199   5.306   7.200   3.151 -0.0087 -0.5640 -0.6139
37780SOL     OW20200   2.482   3.328  11.433  0.2249  0.0547 -0.5423
37780SOL    HW120201   2.460   3.273  11.509 -0.1592  0.0272 -0.6729
37780SOL    HW220202   2.432   3.408  11.447  1.4859  0.7447  0.1159
37781SOL     OW20203   9.966   4.887   3.994  0.0046 -0.2355  0.1632
37781SOL    HW120204  10.043   4.935   3.962 -0.7240  1.3861  0.7456
37781SOL    HW220205   9.977   4.885   4.089 -0.5873 -0.1543  0.2360
37782SOL     OW20206   7.708  11.836   7.893  0.3807  0.2247  0.0455
37782SOL    HW120207   7.713  11.760   7.835  2.2142 -0.2007  0.6930
37782SOL    HW220208   7.616  11.864   7.888 -0.6873 -2.7742  0.7615
37783SOL     OW20209  12.064   8.471  11.248 -0.0902 -0.1498  0.2508
37783SOL    HW120210  12.092   8.463  11.157  2.0094  2.4019  0.5331
37783SOL    HW220211  12.084   8.387  11.288  2.9604  0.0176 -0.7233
37784SOL     OW20212   7.308   0.227   1.039  0.0645  0.1773  0.5040
37784SOL    HW120213   7.262   0.293   0.986  1.4945  2.3135  1.7842
37784SOL    HW220214   7.296   0.145   0.990  0.0184  1.7378 -2.3258
37785SOL     OW20215   7.310   2.359   4.180  0.6608 -0.1770  0.1225
37785SOL    HW120216   7.372   2.326   4.115  1.3918  0.0742  0.6879
37785SOL    HW220217   7.347   2.442   4.208  0.0050  0.0301  0.3856
37786SOL     OW20218  12.104   2.001   0.095  0.2610 -0.1225 -0.1672
37786SOL    HW120219  12.071   1.911   0.097  0.6040 -0.2538 -0.3998
37786SOL    HW220220  12.085   2.035   0.182 -1.9138  0.3169 -0.7514
37787SOL     OW20221   0.246   3.976   3.513 -0.2096 -0.5521 -0.3002
37787SOL    HW120222   0.322   3.980   3.455  0.3724 -1.4994  0.3753
37787SOL    HW220223   0.283   3.957   3.600 -0.8162  3.2576  0.9498
37788SOL     OW20224   8.919   9.333  10.173 -0.0297  0.2725  0.3478
37788SOL    HW120225   8.948   9.302  10.259  0.5781 -0.7732 -0.2163
37788SOL    HW220226   8.998   9.367  10.132 -0.6555  2.6220  0.9165
37789SOL     OW20227   5.088  11.364   6.334  0.1760 -0.6169 -0.2915
37789SOL    HW120228   5.139  11.391   6.257  0.6408 -2.3242 -0.6254
37789SOL    HW220229   5.085  11.442   6.389  2.4511 -0.2069 -0.6481
37790SOL     OW20230   6.548   7.633   8.952 -0.0393  0.0773  0.3292
37790SOL    HW120231   6.487   7.682   8.896  0.0304 -0.6441 -0.3877
37790SOL    HW220232   6.580   7.562   8.897  3.0291  1.5553 -0.0075
37791SOL     OW20233   6.092  11.552   5.056 -0.5144 -0.0209 -0.3488
37791SOL    HW120234   6.117  11.470   5.099  1.7535 -0.4243 -2.2295
37791SOL    HW220235   6.117  11.620   5.118  0.4971 -0.6601 -0.0301
37792SOL     OW20236   5.507   3.165   8.405 -0.5043  0.1681 -0.0690
37792SOL    HW120237   5.535   3.246   8.446  1.4327 -0.4103 -0.1494
37792SOL    HW220238   5.568   3.153   8.332  1.0492 -2.6742  1.5088
37793SOL     OW20239   6.929  10.848   7.020  0.0436  0.2015  0.5453
37793SOL    HW120240   6.852  10.797   7.045  0.7126 -0.9981  0.2262
37793SOL    HW220241   6.948  10.902   7.097 -0.6639 -0.0436  0.9022
37794SOL     OW20242   8.751   7.844   8.714 -0.0635  0.5562 -0.0679
37794SOL    HW120243   8.712   7.929   8.738  0.3076  0.6147  0.3393
37794SOL    HW220244   8.829   7.837   8.769 -0.3647 -0.2786  0.2684
37795SOL     OW20245   5.739   7.693   2.721 -0.1974  0.7488 -0.3349
37795SOL    HW120246   5.749   7.776   2.768  0.5471 -0.9658  2.7949
37795SOL    HW220247   5.660   7.654   2.759  0.6604 -0.9022 -0.1892
37796SOL     OW20248   0.039  10.560   2.667  0.7640 -0.0301  0.2940
37796SOL    HW120249   0.058  10.615   2.743 -0.8082  1.3277 -0.2316
37796SOL    HW220250  -0.016  10.615   2.611  2.1439 -0.8698 -1.9946
37797SOL     OW20251   1.899   7.401  11.205 -0.0732  0.0585 -0.3993
37797SOL    HW120252   1.828   7.442  11.154 -0.2945 -0.4494 -0.5005
37797SOL    HW220253   1.875   7.309  11.209 -1.0043  0.3402  2.1473
37798SOL     OW20254   7.743  10.127   2.431  0.4393 -0.0677 -0.1552
37798SOL    HW120255   7.804  10.156   2.364  0.3620  0.7355  0.1111
37798SOL    HW220256   7.667  10.185   2.421 -0.6269 -1.5452 -1.0005
37799SOL     OW20257   2.085   9.982  12.071 -0.0865 -0.2302  0.0370
37799SOL    HW120258   2.016   9.924  12.039 -1.7361  0.5331  1.9780
37799SOL    HW220259   2.090  10.052  12.006 -1.4004 -0.1420 -0.0007
37800SOL     OW20260  12.136   7.206   6.137 -0.4394  0.4196  0.3062
37800SOL    HW120261  12.114   7.113   6.138  0.4623  0.1975  0.9575
37800SOL    HW220262  12.063   7.249   6.183 -0.9016  0.0582 -0.0798
37801SOL     OW20263   4.242   4.607   1.178  0.3616  0.1660  0.5266
37801SOL    HW120264   4.233   4.702   1.163  1.6624  0.2247 -0.0558
37801SOL    HW220265   4.280   4.601   1.265  1.1211  0.2339  0.2081
37802SOL     OW20266   5.119  10.199   0.704  0.7186 -0.6028  0.0164
37802SOL    HW120267   5.167  10.129   0.749  1.1008 -1.9593 -2.3384
37802SOL    HW220268   5.040  10.211   0.756  1.3390 -1.7574  1.2900
37803SOL     OW20269   5.354   0.869   8.334 -0.3939  0.2931  0.1544
37803SOL    HW120270   5.429   0.889   8.278 -0.9884 -0.3838 -0.9332
37803SOL    HW220271   5.379   0.899   8.421  1.8399 -1.5418  0.2122
37804SOL     OW20272   8.741   2.368   5.341 -0.0773 -0.4135  0.1258
37804SOL    HW120273   8.735   2.350   5.434  0.3660  1.7167  0.6273
37804SOL    HW220274   8.677   2.309   5.301  1.4234 -3.1345  1.4364
37805SOL     OW20275   3.782   1.032   9.005  0.1090  0.0617  0.0630
37805SOL    HW120276   3.726   1.034   9.083 -1.4807  2.3824 -1.0221
37805SOL    HW220277   3.722   1.013   8.933  1.4704 -1.5372 -0.7037
37806SOL     OW20278  10.075   8.979   3.665  0.2622  0.1242 -0.1079
37806SOL    HW120279  10.077   8.906   3.726  0.5182 -0.7045 -1.0827
37806SOL    HW220280   9.985   9.013   3.671  0.5316  0.6785  1.3961
37807SOL     OW20281   7.737   0.633   5.830 -0.4145 -0.1092  0.4169
37807SOL    HW120282   7.758   0.628   5.923 -1.2552  1.2494  0.7089
37807SOL    HW220283   7.693   0.717   5.820 -4.5165 -2.0825 -0.3510
37808SOL     OW20284   3.761  10.582  10.276 -0.0373  0.2048 -0.3173
37808SOL    HW120285   3.713  10.562  10.356  0.4386 -2.0895 -0.5132
37808SOL    HW220286   3.852  10.565  10.298  0.4324  2.1164 -0.6422
37809SOL     OW20287   7.619   9.584  12.266 -0.2415 -0.6698 -0.3227
37809SOL    HW120288   7.604   9.490  12.278  1.3660 -1.0651 -1.2354
37809SOL    HW220289   7.708   9.591  12.231 -0.3136  1.2010 -0.2527
37810SOL     OW20290   9.917   1.580   2.379 -0.7995 -0.5327 -0.0312
37810SOL    HW120291   9.928   1.674   2.365  1.1347 -0.8028 -0.7067
37810SOL    HW220292   9.826   1.562   2.355 -1.1400  1.1152 -0.1103
37811SOL     OW20293  11.497   2.562   9.003  0.3460  0.1879  0.2311
37811SOL    HW120294  11.587   2.552   8.972  1.0219  0.5867  1.9218
37811SOL    HW220295  11.472   2.650   8.974  1.4045  1.0462  1.7084
37812SOL     OW20296  10.588   8.438   5.255  0.1345  0.1696 -0.8297
37812SOL    HW120297  10.639   8.519   5.246  1.4573 -0.6784 -1.3064
37812SOL    HW220298  10.607   8.389   5.176 -0.6757 -0.6081 -0.5581
37813SOL     OW20299   3.082   5.850   2.542 -0.5287  0.0893 -0.0470
37813SOL    HW120300   3.099   5.782   2.607 -0.1640 -0.4193 -0.6626
37813SOL    HW220301   2.987   5.850   2.532 -0.8639  1.8874  2.2848
37814SOL     OW20302   9.309   6.130   0.636 -0.2360  0.6754 -0.3555
37814SOL    HW120303   9.223   6.113   0.596  0.5489  1.8572 -2.7531
37814SOL    HW220304   9.340   6.044   0.664 -2.0445  0.1890  0.2800
37815SOL     OW20305  12.248   6.611   0.715 -0.5609 -0.0293 -0.7230
37815SOL    HW120306  12.210   6.534   0.757 -0.6337  1.4640  2.2172
37815SOL    HW220307  12.176   6.674   0.708  0.1822  0.9667  0.1097
37816SOL     OW20308   5.159  11.573   2.882  0.5610  0.3208 -0.1156
37816SOL    HW120309   5.127  11.529   2.960  3.3594 -1.2381  0.2736
37816SOL    HW220310   5.250  11.543   2.872  0.2613  0.1777 -4.1522
37817SOL     OW20311   9.334   5.629   6.426  0.1340  0.3459 -0.0579
37817SOL    HW120312   9.338   5.711   6.476  3.4749  2.1037 -2.8287
37817SOL    HW220313   9.401   5.573   6.465  0.7684  0.6146 -0.7377
37818SOL     OW20314   7.530   7.395   4.760 -0.0709  0.2547 -0.0996
37818SOL    HW120315   7.476   7.388   4.839  0.0850  1.1578  0.0919
37818SOL    HW220316   7.606   7.339   4.778 -1.0927 -1.3571 -0.5299
37819SOL     OW20317   0.099   1.120   0.869  0.9499  0.3551 -0.1515
37819SOL    HW120318   0.086   1.043   0.813  0.5682  0.7065 -0.5618
37819SOL    HW220319   0.157   1.177   0.818  1.9338 -0.0244  0.5191
37820SOL     OW20320   0.118   8.958   2.258 -0.3534  0.2619  0.0779
37820SOL    HW120321   0.054   9.007   2.309 -1.9341 -1.0212 -0.5897
37820SOL    HW220322   0.152   8.892   2.318  0.4049  0.9726  0.4457
37821SOL     OW20323   1.560   6.574   2.780  0.5648  0.0750  0.3093
37821SOL    HW120324   1.525   6.642   2.723 -0.0421 -1.0250 -0.6875
37821SOL    HW220325   1.527   6.596   2.867  1.0281  1.4674  0.1515
37822SOL     OW20326   7.297  12.177  10.168  0.1885 -0.3202  0.0497
37822SOL    HW120327   7.331  12.265  10.187  2.2071 -0.8179 -0.9184
37822SOL    HW220328   7.296  12.173  10.073  0.5863 -1.4999  0.0857
37823SOL     OW20329   3.712   3.808  10.533  0.2825 -0.1674 -0.2367
37823SOL    HW120330   3.759   3.881  10.573  1.2638  0.0990 -1.7902
37823SOL    HW220331   3.620   3.833  10.535  0.4228  0.3086  0.8338
37824SOL     OW20332   7.048   7.218   8.388  0.2927 -0.3185  0.1197
37824SOL    HW120333   7.008   7.244   8.471  0.4915 -4.6044  1.8614
37824SOL    HW220334   6.985   7.243   8.322 -1.6648 -0.0071  1.9917
37825SOL     OW20335   4.885   4.685  10.911  0.7004 -0.0387 -0.0655
37825SOL    HW120336   4.891   4.622  10.983  1.4184 -0.9709 -0.9053
37825SOL    HW220337   4.970   4.679  10.867  0.1244  0.1733 -1.2551
37826SOL     OW20338   8.404   6.759  11.091 -0.1365  0.1936 -0.3516
37826SOL    HW120339   8.405   6.852  11.113  0.0417  0.3286 -0.9295
37826SOL    HW220340   8.357   6.718  11.164 -0.8833  0.8300 -0.4581
37827SOL     OW20341  11.363  10.034   2.109  0.2208 -1.2112  0.0727
37827SOL    HW120342  11.304  10.107   2.128  2.7324  1.3348 -1.0934
37827SOL    HW220343  11.400  10.010   2.194 -2.0524 -2.6168  0.7657
37828SOL     OW20344   3.778   8.054  10.787  0.3135 -0.1263 -0.5186
37828SOL    HW120345   3.748   8.144  10.799  0.4567  0.1187 -1.8325
37828SOL    HW220346   3.724   8.020  10.715  1.3906 -0.5229 -1.1685
37829SOL     OW20347   5.619  10.452   2.539  0.3446 -0.1225 -0.0463
37829SOL    HW120348   5.659  10.527   2.494  0.1448 -0.8021 -1.3866
37829SOL    HW220349   5.615  10.383   2.473 -0.1223 -1.1000  0.9718
37830SOL     OW20350   5.816   5.784  11.778 -0.4822  0.0101  0.1106
37830SOL    HW120351   5.835   5.781  11.872  1.3613  0.1310 -0.2299
37830SOL    HW220352   5.883   5.729  11.738 -1.1530  0.0765 -1.1666
37831SOL     OW20353   7.850   2.787   4.203  0.1272  0.2936  0.0835
37831SOL    HW120354   7.791   2.738   4.260  1.5403 -0.3722  1.0279
37831SOL    HW220355   7.827   2.757   4.115 -0.4532 -0.4921  0.4827
37832SOL     OW20356   2.231  11.227   3.236 -0.0238  0.1078 -0.1622
37832SOL    HW120357   2.167  11.192   3.174 -0.6467  0.0240  0.5239
37832SOL    HW220358   2.238  11.320   3.213 -0.7357  0.2148  0.0597
37833SOL     OW20359   7.278  10.884   6.805  0.4799  0.5315 -0.3402
37833SOL    HW120360   7.291  10.924   6.719 -0.5797  1.4430 -0.0866
37833SOL    HW220361   7.203  10.827   6.794  1.5484 -0.9014 -0.5105
37834SOL     OW20362  10.425   5.147   8.135  0.0762  0.3950 -0.0758
37834SOL    HW120363  10.388   5.101   8.059 -0.1790  1.8082 -0.8349
37834SOL    HW220364  10.352   5.152   8.197  0.1437 -0.3286  0.0705
37835SOL     OW20365  11.825   6.818   3.519  0.5092 -0.2898  0.5422
37835SOL    HW120366  11.736   6.793   3.495  0.1965 -0.0994  1.4462
37835SOL    HW220367  11.818   6.910   3.547  0.9177 -0.3796  0.9590
37836SOL     OW20368  10.298   7.101   9.834  0.1448 -0.0504  0.2600
37836SOL    HW120369  10.352   7.176   9.811 -0.9679 -0.0409 -2.6842
37836SOL    HW220370  10.209   7.124   9.806 -0.8571 -1.2739  2.1389
37837SOL     OW20371   0.199  11.485   8.854  0.3432 -0.2191  0.2747
37837SOL    HW120372   0.193  11.495   8.759  2.0958 -1.2142  0.0097
37837SOL    HW220373   0.215  11.574   8.886  1.1929 -0.0614 -0.5238
37838SOL     OW20374   1.789   5.275   2.634  0.6098 -0.1987  0.3779
37838SOL    HW120375   1.870   5.229   2.657  0.7644  0.4590  1.2090
37838SOL    HW220376   1.816   5.367   2.629 -0.4317  0.2834  2.5012
37839SOL     OW20377   4.863   0.804   2.205 -0.4127 -0.2206 -0.1034
37839SOL    HW120378   4.900   0.881   2.249  0.9293  0.0918 -1.6691
37839SOL    HW220379   4.811   0.840   2.133 -1.6017 -0.7450  0.4752
37840SOL     OW20380   2.527   5.764   4.845 -0.4802 -0.2827 -0.1181
37840SOL    HW120381   2.529   5.804   4.932  0.6597  1.7694 -1.0325
37840SOL    HW220382   2.434   5.761   4.823 -0.6448  1.7427  0.0927
37841SOL     OW20383  12.075   3.001  11.058  0.3978  0.9269  0.1547
37841SOL    HW120384  12.154   3.004  11.112  0.7018 -0.0783 -0.2038
37841SOL    HW220385  12.024   3.077  11.085  0.1340  0.0137  2.4970
37842SOL     OW20386   3.372  11.889   3.253  0.2129  0.3595 -0.0038
37842SOL    HW120387   3.315  11.823   3.214  0.8017 -1.0830  1.4888
37842SOL    HW220388   3.327  11.972   3.236 -2.5868 -0.7246  1.4825
37843SOL     OW20389   2.246  11.879   1.256  0.0157  0.1371 -0.0550
37843SOL    HW120390   2.222  11.854   1.167 -0.6551  0.4394  0.0330
37843SOL    HW220391   2.213  11.808   1.311  0.2443  0.0512 -0.0278
37844SOL     OW20392   7.616  12.212   1.974 -0.8041  0.0390 -0.0774
37844SOL    HW120393   7.529  12.249   1.960 -0.7724 -0.4236 -1.6952
37844SOL    HW220394   7.652  12.263   2.047 -2.9154 -0.6557  1.5666
37845SOL     OW20395   8.694  10.738   9.357  0.0503  0.1109 -0.0211
37845SOL    HW120396   8.632  10.777   9.419 -0.5454 -0.8606  0.0106
37845SOL    HW220397   8.778  10.779   9.380 -0.4435  0.9413  0.3761
37846SOL     OW20398  12.284   1.034  11.797  0.0522  0.1765 -0.0002
37846SOL    HW120399  12.302   1.089  11.873  0.3162  0.8166 -0.5210
37846SOL    HW220400  12.222   1.085  11.744 -0.8726 -0.6691  0.2366
37847SOL     OW20401   6.865   8.887   5.446  0.3942 -0.1984 -0.1199
37847SOL    HW120402   6.790   8.896   5.506 -0.3019 -1.5676 -0.7369
37847SOL    HW220403   6.933   8.844   5.498  0.4447  0.2549  0.1940
37848SOL     OW20404   7.874   7.211   3.429 -0.1746 -0.4548  0.0967
37848SOL    HW120405   7.940   7.158   3.385  0.7181 -1.1479  2.1305
37848SOL    HW220406   7.900   7.302   3.411 -0.9181 -0.6478 -2.2602
37849SOL     OW20407   5.030   7.972   2.014  0.4629  0.2867 -0.2455
37849SOL    HW120408   5.083   8.010   2.083 -0.5372  0.6493  0.3547
37849SOL    HW220409   5.073   7.998   1.933  0.7550  1.2359  0.2014
37850SOL     OW20410   0.506  12.245   2.644 -0.4417 -0.3681 -0.0681
37850SOL    HW120411   0.558  12.189   2.701 -2.5533 -0.0428  2.3323
37850SOL    HW220412   0.571  12.291   2.590  1.5893 -1.6049  1.1968
37851SOL     OW20413  10.475   9.073   9.805  0.4143  1.0987  0.0742
37851SOL    HW120414  10.439   9.159   9.788  1.2534  1.4345 -0.0492
37851SOL    HW220415  10.537   9.058   9.733 -0.6029 -0.1211 -0.5804
37852SOL     OW20416   1.910   4.254   8.343 -0.6572 -0.1501  0.0560
37852SOL    HW120417   1.942   4.344   8.347  0.2785 -0.4638 -0.0706
37852SOL    HW220418   1.828   4.256   8.393 -0.1576  0.5672  0.8844
37853SOL     OW20419   0.315   9.285  10.441  0.4512 -0.0899  0.3368
37853SOL    HW120420   0.388   9.283  10.503  0.4772 -0.7787  0.2923
37853SOL    HW220421   0.265   9.206  10.461 -0.5854  0.6426  0.7195
37854SOL     OW20422   9.011   3.602   6.275  0.2354  0.2339 -0.2508
37854SOL    HW120423   9.049   3.647   6.199 -0.9065 -1.4071 -1.8947
37854SOL    HW220424   9.086   3.563   6.320  1.0074  1.8521 -0.0938
37855SOL     OW20425   4.972  11.799   2.849 -0.0358 -0.4616  0.1589
37855SOL    HW120426   4.956  11.832   2.760 -0.7427  0.9023  0.7477
37855SOL    HW220427   5.021  11.718   2.837  0.9282  0.3096 -1.4321
37856SOL     OW20428   5.631   5.337   3.065 -0.1172  0.1657  0.1528
37856SOL    HW120429   5.646   5.253   3.108 -1.7286  0.1897  0.8437
37856SOL    HW220430   5.547   5.367   3.100 -0.1556  1.4921 -0.9898
37857SOL     OW20431  11.773   9.302   2.928  0.2722 -0.3192  0.4941
37857SOL    HW120432  11.728   9.233   2.880 -0.0356 -1.0082  1.7264
37857SOL    HW220433  11.722   9.381   2.910 -1.4984 -1.0847  1.8911
37858SOL     OW20434   6.539   6.136   0.174 -0.1646  0.3779  0.3610
37858SOL    HW120435   6.633   6.153   0.180 -0.2996  1.7239 -0.8248
37858SOL    HW220436   6.499   6.223   0.170 -1.5502 -0.1507  1.6700
37859SOL     OW20437   1.932   9.334  11.333  0.3681  0.1480  0.3900
37859SOL    HW120438   1.981   9.414  11.315 -0.2504  0.5635  0.4996
37859SOL    HW220439   1.928   9.289  11.249  2.7427 -0.9553  0.8003
37860SOL     OW20440   2.012  10.014   6.045 -1.1222 -0.4209  0.0037
37860SOL    HW120441   1.959  10.093   6.053 -2.1362 -1.1496  0.7848
37860SOL    HW220442   2.050  10.001   6.132 -0.7091 -0.6233 -0.2019
37861SOL     OW20443   7.695   5.857  11.390 -0.0895  0.2912 -0.0375
37861SOL    HW120444   7.753   5.854  11.315 -0.4286  1.1149 -0.3370
37861SOL    HW220445   7.753   5.864  11.466  0.2477 -0.4645 -0.2163
37862SOL     OW20446   0.637   8.044   2.009  0.1292 -0.8728 -0.4799
37862SOL    HW120447   0.679   8.086   1.935  1.3285  1.4761  1.4066
37862SOL    HW220448   0.625   7.953   1.981 -0.4977  0.0941 -3.9060
37863SOL     OW20449   0.464   5.799  10.873  0.8908  0.1464  0.0190
37863SOL    HW120450   0.377   5.838  10.863  0.4405 -0.7581  0.2231
37863SOL    HW220451   0.495   5.786  10.784 -0.6687 -2.6321 -0.2651
37864SOL     OW20452   4.801  11.470  10.077  0.0286  0.3683  0.2759
37864SOL    HW120453   4.853  11.516  10.011 -1.0264  1.7568  0.3839
37864SOL    HW220454   4.864  11.411  10.120  1.0533  0.5351 -0.9396
37865SOL     OW20455  11.052   6.232   1.161 -0.3618 -0.0743 -0.2422
37865SOL    HW120456  10.965   6.192   1.151 -1.1884  1.2314  1.2906
37865SOL    HW220457  11.042   6.320   1.124  0.9508 -0.5992 -1.9984
37866SOL     OW20458   6.254   7.385   2.854 -0.3176  0.2665  0.5458
37866SOL    HW120459   6.159   7.392   2.840 -0.3661 -0.7624  0.2481
37866SOL    HW220460   6.273   7.292   2.842  0.8564  0.5748 -0.2141
37867SOL     OW20461   1.143  12.449   1.482 -0.0129  0.5336 -0.8186
37867SOL    HW120462   1.173  12.500   1.407  1.4265 -2.2080 -2.2493
37867SOL    HW220463   1.222  12.406   1.515 -1.2340 -1.3832 -0.2202
37868SOL     OW20464  10.269   5.991   6.133  0.1072  0.4497  0.3373
37868SOL    HW120465  10.214   6.059   6.094 -0.2782  0.3803  0.7542
37868SOL    HW220466  10.321   5.957   6.060 -1.3715 -0.4175 -0.3627
37869SOL     OW20467   8.521   7.290   3.772 -0.1173 -0.0389  0.3227
37869SOL    HW120468   8.515   7.205   3.815 -0.6385  0.5752  1.5128
37869SOL    HW220469   8.578   7.342   3.829  1.7528 -0.1309 -1.3503
37870SOL     OW20470   0.507   6.226   5.855  0.0383 -0.3621  0.8012
37870SOL    HW120471   0.515   6.145   5.905 -0.1852 -1.3784 -0.7326
37870SOL    HW220472   0.555   6.209   5.774 -1.4399  0.3945 -0.2809
37871SOL     OW20473  10.608   7.511   4.396 -0.0450  0.3748 -0.3685
37871SOL    HW120474  10.674   7.451   4.431 -1.9853 -1.2760  0.6599
37871SOL    HW220475  10.592   7.574   4.466 -0.3106  0.1328 -0.2103
37872SOL     OW20476   8.677   1.726   9.988 -0.1544  0.0816 -0.4451
37872SOL    HW120477   8.677   1.779  10.068 -0.9592  1.9724 -1.6171
37872SOL    HW220478   8.688   1.636  10.019 -0.6408  0.7225  1.8048
37873SOL     OW20479   1.794   7.157  11.186 -0.1137 -0.2541 -0.2166
37873SOL    HW120480   1.724   7.192  11.242  0.6417  0.2981  0.4063
37873SOL    HW220481   1.823   7.078  11.231  0.4008  0.1160  0.1146
37874SOL     OW20482  10.325   1.785   9.791  0.0320  0.5812  0.4370
37874SOL    HW120483  10.387   1.761   9.722  1.0223  0.0840  1.4674
37874SOL    HW220484  10.268   1.850   9.750  2.2780  2.3730 -0.0750
37875SOL     OW20485  10.348  10.431   3.481 -0.6374  0.9361 -0.1853
37875SOL    HW120486  10.384  10.349   3.515 -1.9693 -0.9463 -2.9695
37875SOL    HW220487  10.278  10.454   3.543 -1.4582 -1.0787 -0.2826
37876SOL     OW20488   4.819   9.884   1.653 -0.0639 -0.2229  0.3698
37876SOL    HW120489   4.752   9.906   1.587  1.6562  1.0680 -1.0766
37876SOL    HW220490   4.863   9.967   1.669  1.8073 -1.2107  0.5422
37877SOL     OW20491   3.538   2.381   0.558  0.2228  0.2616 -0.3298
37877SOL    HW120492   3.449   2.352   0.580  0.4687  1.1592  2.1536
37877SOL    HW220493   3.594   2.310   0.589  0.4466  0.3134 -0.6137
37878SOL     OW20494   5.814   4.608   7.718  0.9382  0.3865  0.1255
37878SOL    HW120495   5.729   4.602   7.761  0.3338  2.5743 -0.6230
37878SOL    HW220496   5.877   4.585   7.786 -0.1609  0.5240  1.2230
37879SOL     OW20497   2.819   2.522   0.339  0.5800  0.0045  0.4658
37879SOL    HW120498   2.833   2.446   0.283 -0.6773 -0.8527  1.2805
37879SOL    HW220499   2.727   2.519   0.362  0.7960  1.0436  1.5677
37880SOL     OW20500   1.536   3.880  10.490 -0.4458 -0.4806 -0.3787
37880SOL    HW120501   1.580   3.909  10.410 -0.3921 -0.4498 -0.3386
37880SOL    HW220502   1.506   3.792  10.471 -0.6472 -0.3823 -0.5160
37881SOL     OW20503  12.292   2.198   2.447 -0.4747 -0.0488 -0.3856
37881SOL    HW120504  12.215   2.205   2.391 -0.7200 -0.1662 -0.0678
37881SOL    HW220505  12.366   2.213   2.389 -0.8068  1.8355 -0.3787
37882SOL     OW20506   8.524   0.922   7.651 -0.2255 -0.0463 -0.0517
37882SOL    HW120507   8.481   1.001   7.617 -1.3165 -1.0104 -0.9521
37882SOL    HW220508   8.499   0.919   7.743 -0.5076  0.4489 -0.1072
37883SOL     OW20509   6.177   0.113   1.995 -0.6035  0.2131 -0.2601
37883SOL    HW120510   6.268   0.134   2.018 -0.1024 -1.2770 -0.7486
37883SOL    HW220511   6.183   0.073   1.908 -1.6000 -0.7962  0.1079
37884SOL     OW20512   4.928   5.342   9.665  0.2626  0.3102  0.1305
37884SOL    HW120513   4.933   5.436   9.677  1.4735  0.0637  1.9689
37884SOL    HW220514   4.855   5.315   9.721 -0.2191  0.1621 -0.5555
37885SOL     OW20515   8.081   2.420   6.093 -0.0684 -0.1182  0.0300
37885SOL    HW120516   8.105   2.513   6.099  0.9918 -0.2736 -1.3216
37885SOL    HW220517   7.986   2.420   6.104  0.1108  0.8966  1.9933
37886SOL     OW20518   4.266   1.468   0.989 -0.2291 -0.3826  0.1634
37886SOL    HW120519   4.269   1.472   1.085 -1.4484  0.4895  0.1920
37886SOL    HW220520   4.286   1.377   0.969  0.2242 -0.5422  1.2442
37887SOL     OW20521   4.780   2.806  11.226 -0.5492 -0.5652 -0.0848
37887SOL    HW120522   4.768   2.884  11.281  0.0301 -0.2099 -0.4463
37887SOL    HW220523   4.875   2.794  11.222 -0.3706  0.9166 -2.9807
37888SOL     OW20524   3.539   4.666  11.685  0.2381 -0.4459 -0.6152
37888SOL    HW120525   3.550   4.732  11.753 -2.0451 -2.0155  1.4470
37888SOL    HW220526   3.520   4.716  11.606 -2.4918  1.5000  1.0695
37889SOL     OW20527   9.429   0.033   0.514 -0.5117  0.0296  0.0301
37889SOL    HW120528   9.488  -0.010   0.452 -0.4571 -0.1659  0.2172
37889SOL    HW220529   9.474   0.029   0.598 -0.6551  0.1528  0.1142
37890SOL     OW20530   2.577   5.967   2.627  0.1815  0.3207 -0.4532
37890SOL    HW120531   2.561   6.014   2.545 -0.4320  2.7489  0.9309
37890SOL    HW220532   2.569   6.035   2.695  1.6040 -1.3858  1.5524
37891SOL     OW20533   2.942   4.191   9.101  0.0743  0.2875  0.1896
37891SOL    HW120534   2.931   4.106   9.143 -0.2828 -0.7505 -1.8902
37891SOL    HW220535   2.855   4.230   9.101 -0.0143  0.0920  0.0405
37892SOL     OW20536   7.042   2.699   9.589  0.1606  0.0042 -0.0604
37892SOL    HW120537   7.026   2.642   9.665 -0.8914 -0.6428 -0.7485
37892SOL    HW220538   6.995   2.657   9.517  0.3803  1.1066 -0.8663
37893SOL     OW20539  12.204   4.239   9.739  0.2842 -0.0978 -0.4345
37893SOL    HW120540  12.202   4.165   9.678 -1.3808 -1.1781  0.8302
37893SOL    HW220541  12.257   4.207   9.812  0.1153  0.2138 -0.1751
37894SOL     OW20542  10.558   4.264   1.474  0.1769  0.2350 -0.0085
37894SOL    HW120543  10.586   4.352   1.501 -0.7786 -0.0922  2.2785
37894SOL    HW220544  10.507   4.279   1.394 -1.5330  2.0518  1.3278
37895SOL     OW20545   0.265   7.703   3.733  0.0976 -0.3046  0.0489
37895SOL    HW120546   0.276   7.609   3.752 -0.2648 -0.5128 -0.7381
37895SOL    HW220547   0.205   7.706   3.658  0.4603  0.5387 -0.2236
37896SOL     OW20548   8.644   2.490   0.064  0.5894  0.7306  0.1452
37896SOL    HW120549   8.634   2.528  -0.023  1.4995 -0.4019 -0.4864
37896SOL    HW220550   8.737   2.499   0.084  0.7230 -0.5731  0.2244
37897SOL     OW20551   6.520   4.264   2.548 -0.1844 -0.6260  0.2821
37897SOL    HW120552   6.439   4.285   2.594 -1.8579 -1.7334 -1.9651
37897SOL    HW220553   6.558   4.192   2.598  0.5488  1.1749  2.4923
37898SOL     OW20554   1.286   4.374   7.972  0.7999 -0.4811 -0.1220
37898SOL    HW120555   1.224   4.302   7.981  0.3696  0.1699  3.2150
37898SOL    HW220556   1.234   4.445   7.932 -0.2946 -0.3804  1.3904
37899SOL     OW20557   3.802   6.877   2.896  0.0193 -0.4227  0.2002
37899SOL    HW120558   3.837   6.962   2.867  0.8612 -0.5072  0.9257
37899SOL    HW220559   3.860   6.812   2.855 -0.0591 -0.6157  0.3914
37900SOL     OW20560   3.860  10.920   5.414  0.0740  0.8412  0.2898
37900SOL    HW120561   3.921  10.946   5.344  1.6702  1.0399  1.6974
37900SOL    HW220562   3.815  10.843   5.378  1.4715  0.4195 -0.6672
37901SOL     OW20563   2.979   0.749  11.682  0.0675 -0.5453 -0.2245
37901SOL    HW120564   3.041   0.696  11.731  1.2128  0.9343  0.0066
37901SOL    HW220565   3.004   0.738  11.590  1.0019  0.3890 -0.1033
37902SOL     OW20566   6.247   8.582   1.167 -0.4322  0.2213 -0.3101
37902SOL    HW120567   6.327   8.543   1.131 -0.2022  0.6416 -0.2619
37902SOL    HW220568   6.259   8.677   1.155 -0.6024  0.3300  0.3559
37903SOL     OW20569   4.688   6.120   6.706  0.2826  0.3712 -0.4848
37903SOL    HW120570   4.741   6.043   6.729 -1.1125 -0.3946  0.3457
37903SOL    HW220571   4.611   6.113   6.762 -0.1811  2.0471 -0.8660
37904SOL     OW20572   7.636   5.543   0.755 -0.0967 -1.1362  0.3489
37904SOL    HW120573   7.714   5.497   0.727  0.7586  1.2207 -1.5093
37904SOL    HW220574   7.565   5.502   0.706  0.9623  0.8164 -3.1813
37905SOL     OW20575   9.133   8.534  11.369  0.1648  0.4686 -0.2301
37905SOL    HW120576   9.056   8.533  11.312 -0.4644  2.7879  0.4613
37905SOL    HW220577   9.207   8.547  11.310 -0.3330  1.4347 -0.6687
37906SOL     OW20578   6.302  10.506   1.109 -0.2339  0.7312  0.0125
37906SOL    HW120579   6.207  10.514   1.122 -0.1668  0.1698  0.9445
37906SOL    HW220580   6.321  10.414   1.128  0.3201  0.5254 -1.4541
37907SOL     OW20581   5.618   3.919   6.983  0.1694 -0.2500 -0.1333
37907SOL    HW120582   5.684   3.979   6.948  1.5083 -1.4055  0.3028
37907SOL    HW220583   5.547   3.921   6.919 -0.4633  2.7307  0.4641
37908SOL     OW20584   6.484   7.907  12.434  0.0820 -0.1656 -0.1661
37908SOL    HW120585   6.434   7.943  12.507 -2.2282  0.8532 -2.1295
37908SOL    HW220586   6.553   7.972  12.418  1.6549 -1.1637  2.0064
37909SOL     OW20587   2.507   7.773   7.811 -0.4358  0.3980 -0.1389
37909SOL    HW120588   2.490   7.852   7.862  3.0407  1.3047 -0.1530
37909SOL    HW220589   2.527   7.706   7.876 -1.7910 -0.0932 -0.1918
37910SOL     OW20590  10.569   4.669  12.355  0.1611  0.3911  0.2471
37910SOL    HW120591  10.581   4.577  12.331  0.6127  1.0828 -2.5687
37910SOL    HW220592  10.631   4.684  12.426 -1.0023 -1.8047  1.8540
37911SOL     OW20593  10.850   5.029   3.387 -0.0398 -0.2390  0.1539
37911SOL    HW120594  10.860   5.114   3.430  0.2815 -0.4575  0.5115
37911SOL    HW220595  10.772   4.990   3.428  0.2660 -0.4472  0.5478
37912SOL     OW20596   7.085   8.550   5.625  0.2660 -0.0227  0.1783
37912SOL    HW120597   7.117   8.607   5.554 -0.8416 -1.2501 -1.3784
37912SOL    HW220598   6.992   8.541   5.608 -0.4447  1.1081  2.9231
37913SOL     OW20599  11.622   4.222   8.473 -0.0924 -0.6806  0.1830
37913SOL    HW120600  11.528   4.219   8.493 -0.2627 -0.9802 -0.6279
37913SOL    HW220601  11.660   4.274   8.543 -1.2426  1.6768 -0.8362
37914SOL     OW20602   9.341   1.299  10.465  0.2257  0.0773 -0.2774
37914SOL    HW120603   9.326   1.238  10.392  2.6202 -1.0998  0.1032
37914SOL    HW220604   9.360   1.382  10.422 -0.5538 -0.0440 -0.8951
37915SOL     OW20605   7.848   1.509   1.611 -0.2757  0.1848  0.9886
37915SOL    HW120606   7.773   1.523   1.553  0.7402  1.0515 -0.1742
37915SOL    HW220607   7.901   1.443   1.565  1.0497  1.6212  0.3726
37916SOL     OW20608   0.683   5.619   1.563 -0.5756 -0.2762  0.0544
37916SOL    HW120609   0.627   5.581   1.496 -1.7439 -0.7015  1.2255
37916SOL    HW220610   0.623   5.666   1.621  0.3493 -0.2160  1.0020
37917SOL     OW20611   5.954   8.550  12.421  0.1606  0.0445 -1.2371
37917SOL    HW120612   5.967   8.601  12.340 -0.5224  2.6923  0.1981
37917SOL    HW220613   6.024   8.580  12.479 -0.2289 -0.7443 -0.3501
37918SOL     OW20614   2.833   4.012  12.197  0.3168 -0.5673 -0.3862
37918SOL    HW120615   2.741   3.990  12.212 -0.4737  1.1213 -2.1767
37918SOL    HW220616   2.835   4.108  12.197  2.3882 -0.5569  1.0946
37919SOL     OW20617   4.396  10.684   4.241  0.1659  0.1802  0.0801
37919SOL    HW120618   4.489  10.667   4.255  0.3904  0.4688 -0.9524
37919SOL    HW220619   4.358  10.597   4.226  0.0453 -0.0607  1.5881
37920SOL     OW20620  11.994  11.506   2.521 -0.3872  0.4356  0.3312
37920SOL    HW120621  11.956  11.548   2.445  0.7027  2.1519  0.6964
37920SOL    HW220622  12.001  11.414   2.496  0.6844  1.0684 -1.9500
37921SOL     OW20623   8.192   8.706   6.190 -0.5493 -0.2220  0.0125
37921SOL    HW120624   8.219   8.631   6.137  0.2902  0.6463 -0.7992
37921SOL    HW220625   8.138   8.759   6.132  0.9698  1.1072 -0.2407
37922SOL     OW20626   9.344  11.351   7.069  0.3797  0.1731  0.1164
37922SOL    HW120627   9.382  11.438   7.067  1.9951 -0.4631  1.0636
37922SOL    HW220628   9.253  11.363   7.042  0.3264  2.2658  1.0767
37923SOL     OW20629   6.389   5.589   5.984  0.0697 -0.1943  0.8279
37923SOL    HW120630   6.467   5.644   5.994 -0.2881  0.3653  0.5828
37923SOL    HW220631   6.349   5.589   6.071 -0.4084  0.6781  0.6241
37924SOL     OW20632   5.433   5.426   7.137 -0.1740  0.0214 -0.6901
37924SOL    HW120633   5.442   5.432   7.232 -0.5813 -1.3274 -0.5440
37924SOL    HW220634   5.368   5.492   7.114  0.1474  0.5579 -0.0758
37925SOL     OW20635   2.897   6.710  11.324 -0.0809  0.2482  0.5252
37925SOL    HW120636   2.806   6.734  11.308 -0.4209 -0.3476  1.5200
37925SOL    HW220637   2.946   6.792  11.312 -0.2295 -0.0449 -3.5565
37926SOL     OW20638  10.317  11.535   8.344  0.0840  0.0617  0.2517
37926SOL    HW120639  10.351  11.508   8.258  1.5082  2.1593  0.1011
37926SOL    HW220640  10.386  11.510   8.406  0.8747  2.0947  0.2542
37927SOL     OW20641   7.789   4.131   8.944  0.2828  0.2189 -0.3232
37927SOL    HW120642   7.713   4.147   9.000  0.2257 -0.2726 -0.2572
37927SOL    HW220643   7.819   4.043   8.968  0.4911  0.1582 -0.7905
37928SOL     OW20644  11.620   6.538  11.905 -0.1083  0.4843 -0.8595
37928SOL    HW120645  11.696   6.491  11.871  0.7055  1.2964 -0.2326
37928SOL    HW220646  11.643   6.630  11.895  0.3146  0.7787  2.0767
37929SOL     OW20647   2.921   6.874   8.356 -0.1223 -0.0468 -0.0998
37929SOL    HW120648   2.833   6.840   8.372 -0.3223  1.4230  2.3567
37929SOL    HW220649   2.946   6.916   8.438  1.5648  2.4469 -1.7567
37930SOL     OW20650   3.885   9.205   3.368 -0.0281 -0.8502 -0.3277
37930SOL    HW120651   3.812   9.265   3.379 -0.4598 -1.3409 -0.4537
37930SOL    HW220652   3.936   9.213   3.449  0.2940  0.1661 -0.6246
37931SOL     OW20653   2.254   8.912   4.392  0.5909 -0.6248 -0.1915
37931SOL    HW120654   2.214   8.993   4.362  0.2621  0.2935  2.4197
37931SOL    HW220655   2.348   8.931   4.391  0.4684  0.8920  2.7711
37932SOL     OW20656  10.414  11.670  12.061 -0.0282  0.1735 -0.6932
37932SOL    HW120657  10.350  11.672  12.132  0.1938 -1.5686 -0.4151
37932SOL    HW220658  10.445  11.761  12.055  0.0035  0.3664  1.4851
37933SOL     OW20659   1.327  12.389   2.959  0.4644  0.0820 -0.1003
37933SOL    HW120660   1.256  12.443   2.925 -0.0360 -0.7525 -0.4264
37933SOL    HW220661   1.285  12.334   3.025  0.7032 -0.7186 -0.6012
37934SOL     OW20662  11.897  12.322   2.841 -0.0903 -0.0023  0.1193
37934SOL    HW120663  11.841  12.386   2.798  0.4982  0.0716 -0.5651
37934SOL    HW220664  11.978  12.369   2.860  0.0759 -0.3450  0.2752
37935SOL     OW20665   3.275  10.867   2.869 -0.1751  0.4608  0.0451
37935SOL    HW120666   3.258  10.812   2.793  2.1091 -1.0459  0.5391
37935SOL    HW220667   3.304  10.807   2.937 -2.0922  1.7654  2.1885
37936SOL     OW20668   5.933   5.763   4.957  0.3045  0.4494 -0.1242
37936SOL    HW120669   5.963   5.838   4.905 -1.4923 -0.1873 -2.2450
37936SOL    HW220670   5.837   5.770   4.955  0.1605 -0.7128  1.5053
37937SOL     OW20671  12.341   0.321   0.834 -0.0754 -0.0586 -0.1269
37937SOL    HW120672  12.388   0.317   0.751  1.2951  1.5820  0.5093
37937SOL    HW220673  12.312   0.231   0.849  0.2022 -0.5176 -2.0414
37938SOL     OW20674   2.158   4.308   7.898 -0.3938 -0.6334  0.2989
37938SOL    HW120675   2.189   4.332   7.811  0.6854  1.6748  1.2257
37938SOL    HW220676   2.076   4.356   7.909 -0.5195 -0.8995  0.5401
37939SOL     OW20677  10.734   6.667   3.715  0.2482 -0.2800  0.3133
37939SOL    HW120678  10.744   6.610   3.791 -0.2634  0.0530  0.6331
37939SOL    HW220679  10.643   6.696   3.718  1.1495  2.8537  1.7905
37940SOL     OW20680   5.094  10.026   5.291 -0.7257 -0.5597 -0.0474
37940SOL    HW120681   5.012  10.052   5.248 -1.2345  0.0527  1.2195
37940SOL    HW220682   5.152  10.001   5.220 -0.7359  2.5431 -1.2979
37941SOL     OW20683   6.600  11.161   3.618 -0.7483  0.2699  0.2592
37941SOL    HW120684   6.584  11.248   3.581 -1.9476  0.3347  0.8925
37941SOL    HW220685   6.695  11.156   3.626 -0.6164  1.2376 -0.4473
37942SOL     OW20686   9.958   1.068   1.595  0.3408  0.2428  0.0779
37942SOL    HW120687   9.993   1.035   1.512  1.7268  2.1973 -0.1847
37942SOL    HW220688   9.959   1.163   1.585 -0.7965  0.4864  1.8361
37943SOL     OW20689   9.788   5.891   8.248 -0.2268 -0.1862  0.1628
37943SOL    HW120690   9.731   5.917   8.321  0.1259  0.0078  0.3736
37943SOL    HW220691   9.729   5.848   8.186 -0.4805 -0.6186  0.6961
37944SOL     OW20692   2.702   9.270   6.488  0.7435  0.1774  0.0642
37944SOL    HW120693   2.718   9.350   6.538  0.6270  0.7638 -0.8131
37944SOL    HW220694   2.777   9.263   6.430  1.0625 -0.7036  0.5604
37945SOL     OW20695   2.673  10.400  10.934  0.0624 -0.1649  0.1299
37945SOL    HW120696   2.635  10.436  10.854  0.4331 -0.7191 -0.3073
37945SOL    HW220697   2.627  10.318  10.948 -0.2996  0.1328  0.7329
37946SOL     OW20698   9.953   8.502  11.439  0.1295 -0.0423 -0.0844
37946SOL    HW120699  10.032   8.556  11.441  0.9333 -1.1824  0.5238
37946SOL    HW220700   9.918   8.514  11.351 -1.3271  3.6098  0.8105
37947SOL     OW20701   9.026   5.874   7.964  0.1858  0.2795  0.0402
37947SOL    HW120702   8.948   5.836   7.923  1.3963  0.9726 -3.1932
37947SOL    HW220703   9.090   5.803   7.965  0.7831  0.7789 -1.1514
37948SOL     OW20704   8.492   1.909   7.741  0.4174 -0.0931 -0.3696
37948SOL    HW120705   8.445   1.897   7.823 -1.3556  0.4885 -1.2215
37948SOL    HW220706   8.516   1.821   7.713  1.6407 -0.2424  1.0735
37949SOL     OW20707   6.241   3.589   6.278  0.0690 -0.4322  0.5270
37949SOL    HW120708   6.306   3.572   6.210  1.4840  0.7638  1.5326
37949SOL    HW220709   6.277   3.549   6.357 -0.8580 -0.5233  0.9250
37950SOL     OW20710   6.245   5.906   9.926 -0.1362 -0.1628  0.0083
37950SOL    HW120711   6.290   5.868   9.851  0.2454 -0.5187  0.4074
37950SOL    HW220712   6.225   5.996   9.900  0.7838 -0.0069 -0.1890
37951SOL     OW20713   1.177  11.334   7.872 -0.2302  0.1625 -0.3772
37951SOL    HW120714   1.093  11.293   7.893  1.1487 -1.8259  1.9145
37951SOL    HW220715   1.233  11.312   7.947  1.9887  2.4951 -1.2051
37952SOL     OW20716  11.031  11.749   4.782 -0.3290 -0.5563 -0.3561
37952SOL    HW120717  10.987  11.797   4.712 -0.4241 -2.3520 -1.6157
37952SOL    HW220718  10.978  11.671   4.794  2.5934 -3.1536 -2.3684
37953SOL     OW20719   3.082   3.025   7.475  0.0199 -0.5123  0.8250
37953SOL    HW120720   3.120   3.067   7.398  2.2655 -2.2222  0.9033
37953SOL    HW220721   3.015   2.968   7.440  1.8656 -2.2356 -0.0986
37954SOL     OW20722   9.043   6.782   3.402  0.1580  0.5161 -0.7743
37954SOL    HW120723   8.959   6.817   3.432  0.1368 -1.3447  1.6681
37954SOL    HW220724   9.109   6.836   3.445  0.1267 -1.0995  1.4490
37955SOL     OW20725   2.360   7.108   9.357  0.1213  0.2007 -0.1866
37955SOL    HW120726   2.317   7.022   9.357  3.0569 -1.5762  3.4836
37955SOL    HW220727   2.425   7.102   9.287 -0.1203 -0.3235 -0.3718
37956SOL     OW20728   1.394   0.489  12.308 -0.6212 -0.9756  0.0770
37956SOL    HW120729   1.309   0.533  12.303  0.8266  2.0443 -0.3420
37956SOL    HW220730   1.401   0.461  12.399 -1.3869  0.3619  0.5845
37957SOL     OW20731   1.664   5.997   5.028 -0.1599  0.6267  0.2585
37957SOL    HW120732   1.614   5.915   5.030  0.6780 -0.0015 -1.5908
37957SOL    HW220733   1.599   6.066   5.030 -1.0861 -0.1548 -1.2867
37958SOL     OW20734  12.291   7.776   0.093 -0.3412  0.4396 -0.6280
37958SOL    HW120735  12.291   7.740   0.181 -0.6154 -0.0624 -0.8288
37958SOL    HW220736  12.371   7.828   0.088  0.4808 -0.7697 -0.5853
37959SOL     OW20737   4.472   3.701   5.370 -1.0973 -0.0305 -0.0890
37959SOL    HW120738   4.500   3.609   5.368 -2.0129 -0.3193 -1.5291
37959SOL    HW220739   4.494   3.734   5.283 -0.2424  1.3137  0.6073
37960SOL     OW20740   7.553   7.994   1.355  0.1115 -0.0216 -0.4089
37960SOL    HW120741   7.604   7.936   1.299 -0.6475 -0.8166 -0.2929
37960SOL    HW220742   7.575   8.082   1.325 -0.4867 -0.4340 -2.1442
37961SOL     OW20743   3.286   4.831   3.213 -0.5711  0.0173 -0.8740
37961SOL    HW120744   3.324   4.744   3.229  1.2666  0.7308 -1.1916
37961SOL    HW220745   3.280   4.871   3.300 -0.1144  0.0750 -0.8636
37962SOL     OW20746   8.697   7.293   3.971 -0.2852  0.4966 -0.0509
37962SOL    HW120747   8.785   7.331   3.967 -0.0918  0.1453  0.7707
37962SOL    HW220748   8.669   7.306   4.061  0.5515 -2.9072  0.8428
37963SOL     OW20749   1.804   0.565  11.293  0.6016 -0.2468  0.3674
37963SOL    HW120750   1.748   0.616  11.352  0.5506 -2.3586  2.2972
37963SOL    HW220751   1.873   0.626  11.267 -0.6061  1.3906  0.8211
37964SOL     OW20752   2.897  11.399   3.588 -0.1582  0.0121  0.0224
37964SOL    HW120753   2.965  11.344   3.549 -0.8555 -1.8323  1.2397
37964SOL    HW220754   2.862  11.449   3.514  1.0982 -0.5346 -0.9948
37965SOL     OW20755  11.598  10.036  12.323 -0.2093  0.1566  0.0562
37965SOL    HW120756  11.552  10.117  12.301  1.4395  0.6669 -1.8604
37965SOL    HW220757  11.545   9.966  12.284 -1.3379  0.3404  1.2197
37966SOL     OW20758   4.504  10.085   4.373  0.2590 -0.5189 -0.4814
37966SOL    HW120759   4.586  10.057   4.414  0.1643 -0.4275 -0.2281
37966SOL    HW220760   4.529  10.162   4.322  0.1925 -0.0483  0.1832
37967SOL     OW20761   6.401   4.623   4.448 -0.3976  0.5007  0.1445
37967SOL    HW120762   6.379   4.553   4.510 -0.0224 -0.7052 -1.0290
37967SOL    HW220763   6.326   4.684   4.453 -1.8943 -1.1889 -0.4787
37968SOL     OW20764   1.653   9.515   9.271 -0.2951  0.2263 -0.1992
37968SOL    HW120765   1.696   9.600   9.284 -1.3192  0.5511  1.3214
37968SOL    HW220766   1.639   9.482   9.359 -0.9877 -0.9853 -0.7509
37969SOL     OW20767   2.310   6.510   3.451 -0.1474  0.3279  0.3505
37969SOL    HW120768   2.325   6.534   3.360 -0.8796  0.7874  0.3474
37969SOL    HW220769   2.316   6.592   3.499 -2.0550  0.4719  0.4134
37970SOL     OW20770   2.507   3.997  11.046  0.1299 -0.3849  0.0404
37970SOL    HW120771   2.442   4.064  11.026 -0.1029 -0.3071  0.9999
37970SOL    HW220772   2.494   3.930  10.980  0.0527  0.2921 -0.6527
37971SOL     OW20773   4.393   1.697   1.395 -0.3694 -0.5690  0.9486
37971SOL    HW120774   4.308   1.661   1.419 -1.4730  1.3700  0.1422
37971SOL    HW220775   4.404   1.773   1.452 -0.1027  0.3555 -0.3152
37972SOL     OW20776   7.419   9.584   3.076  0.1373  0.5526  0.2121
37972SOL    HW120777   7.385   9.636   3.149 -1.5359  0.1069 -0.1967
37972SOL    HW220778   7.407   9.493   3.104 -2.7446  0.2830 -1.4288
37973SOL     OW20779   8.499   6.945  10.002  0.1198  0.3687 -0.6717
37973SOL    HW120780   8.405   6.962  10.008  0.0313 -0.3059 -0.0530
37973SOL    HW220781   8.520   6.894  10.080  0.7755 -0.4957 -1.3800
37974SOL     OW20782   8.709   1.166   2.097  0.0787 -0.1403 -0.1135
37974SOL    HW120783   8.762   1.088   2.079 -0.1973 -0.8571  1.9601
37974SOL    HW220784   8.771   1.238   2.099  0.3896 -0.3136 -1.6744
37975SOL     OW20785  11.680   6.232   2.565 -0.3181 -0.3916 -0.6359
37975SOL    HW120786  11.646   6.320   2.581 -0.3673 -0.6349  0.7270
37975SOL    HW220787  11.775   6.241   2.575 -0.3892 -0.6477  0.4168
37976SOL     OW20788   2.990  11.403  12.025  0.4276 -0.2999 -0.3428
37976SOL    HW120789   2.988  11.437  11.936 -0.4352 -1.2015 -0.6868
37976SOL    HW220790   3.082  11.399  12.048  0.6328  0.3449 -1.0370
37977SOL     OW20791   4.702   6.162   5.597 -0.0054  0.5141 -0.1054
37977SOL    HW120792   4.738   6.075   5.611 -2.5132 -0.3274  1.9287
37977SOL    HW220793   4.722   6.209   5.678  0.1399  1.3738 -0.6345
37978SOL     OW20794   2.151  11.857   4.550 -0.0971  0.2468 -0.4934
37978SOL    HW120795   2.061  11.837   4.525 -0.3672 -0.6604  1.1036
37978SOL    HW220796   2.174  11.790   4.614  1.0957  1.5141  0.4604
37979SOL     OW20797  11.398   2.755   0.738 -0.0332  0.0177  0.2728
37979SOL    HW120798  11.387   2.846   0.709 -1.7018 -0.6764 -1.4804
37979SOL    HW220799  11.479   2.726   0.697  0.2946  0.5721  0.5098
37980SOL     OW20800  12.327   8.111   0.203  0.1002 -0.2544 -0.1069
37980SOL    HW120801  12.288   8.087   0.287  0.0539  0.5383  0.1074
37980SOL    HW220802  12.252   8.131   0.147  0.1640  1.7816  0.4592
37981SOL     OW20803   1.322  10.073   4.266  0.4123 -0.1529  0.6116
37981SOL    HW120804   1.245  10.115   4.304  0.2380  1.2766 -1.1736
37981SOL    HW220805   1.308  10.079   4.172  3.0214  0.7520  0.2254
37982SOL     OW20806  10.936   8.014   6.801  0.0892  0.2803  0.0385
37982SOL    HW120807  10.890   8.029   6.718  0.6996 -0.4542 -0.4522
37982SOL    HW220808  10.868   7.980   6.860 -0.2150  0.1577 -0.3721
37983SOL     OW20809   7.897   3.909   8.420  0.0515  0.2145  0.4802
37983SOL    HW120810   7.828   3.859   8.463 -1.8756  0.3725 -2.1857
37983SOL    HW220811   7.864   3.999   8.420 -0.3369  0.1235 -1.7510
37984SOL     OW20812   6.527  11.768   0.375 -0.5145 -0.6634  0.0870
37984SOL    HW120813   6.554  11.711   0.447 -0.7135 -1.3025 -0.3358
37984SOL    HW220814   6.608  11.808   0.344 -0.7259  3.0907  3.4276
37985SOL     OW20815  12.406   4.018   0.326  0.0441  0.0009 -0.0230
37985SOL    HW120816  12.395   4.105   0.366 -3.1376  0.0808 -0.7498
37985SOL    HW220817  12.393   4.034   0.232 -0.4409 -1.2035 -0.1762
37986SOL     OW20818   3.493   2.783   1.477 -0.3041  0.3048 -0.6079
37986SOL    HW120819   3.556   2.840   1.433 -0.1142  0.4353 -0.1726
37986SOL    HW220820   3.457   2.838   1.547  0.7291 -0.4519  0.5612
37987SOL     OW20821   0.531   4.879   7.238  0.1070  0.0299  0.5346
37987SOL    HW120822   0.555   4.786   7.233  2.0585  0.4823  0.6014
37987SOL    HW220823   0.508   4.892   7.330  1.5435 -0.0564  0.9417
37988SOL     OW20824   9.662  10.891   0.776 -0.2321 -0.0299  0.1254
37988SOL    HW120825   9.640  10.984   0.769  0.4418  0.1347  0.0487
37988SOL    HW220826   9.711  10.871   0.696 -0.2757 -0.4192  0.1926
37989SOL     OW20827   2.957   5.180   9.881  0.2056  0.0377 -0.1347
37989SOL    HW120828   3.019   5.188   9.809 -0.2087  0.5253 -0.4436
37989SOL    HW220829   2.948   5.085   9.894  2.0050 -0.0548  0.8000
37990SOL     OW20830   5.762   5.511   0.595 -0.3168 -0.0933  0.5638
37990SOL    HW120831   5.834   5.504   0.532  0.0946  1.0565  0.8825
37990SOL    HW220832   5.691   5.553   0.546  0.6731  2.6711  1.3326
37991SOL     OW20833   3.046   4.224   6.849 -0.5782  0.1688  0.8162
37991SOL    HW120834   3.130   4.255   6.883  1.2754 -1.9698 -1.4640
37991SOL    HW220835   3.061   4.134   6.823 -3.6794 -0.3802  0.4444
37992SOL     OW20836   8.804   0.017   2.978 -0.2700  0.0416 -0.1880
37992SOL    HW120837   8.723   0.067   2.982 -0.0437  0.3300  1.8938
37992SOL    HW220838   8.819  -0.013   3.068 -0.1239 -3.3805 -1.1859
37993SOL     OW20839  12.308   4.669   9.739 -0.1840 -0.1896  0.0756
37993SOL    HW120840  12.352   4.610   9.801 -1.1351  0.8657  1.8564
37993SOL    HW220841  12.231   4.620   9.710  0.5335 -0.8880 -0.7123
37994SOL     OW20842   9.564  11.023   4.777  0.3922 -0.1940 -0.2913
37994SOL    HW120843   9.558  10.963   4.703 -0.9623  0.5648 -0.8189
37994SOL    HW220844   9.475  11.056   4.790  0.7469  0.2849  1.1876
37995SOL     OW20845   3.812  10.852  10.835  0.2754  0.5160 -0.0470
37995SOL    HW120846   3.897  10.895  10.823  0.6279 -0.3822 -0.8953
37995SOL    HW220847   3.757  10.887  10.764  0.4606 -0.1714 -0.5319
37996SOL     OW20848   4.556   3.372  10.912  0.2317 -0.1998 -0.1232
37996SOL    HW120849   4.618   3.304  10.938  0.0175 -0.3326  0.0493
37996SOL    HW220850   4.471   3.327  10.909  0.1736 -0.0599 -0.5352
37997SOL     OW20851   2.313   0.716   1.301 -0.4013  0.5729 -0.7127
37997SOL    HW120852   2.343   0.801   1.271 -2.2056  1.0199 -1.4237
37997SOL    HW220853   2.349   0.707   1.389 -0.2994  2.1449 -0.5701
37998SOL     OW20854   8.721   6.971  11.359  0.6521 -0.0287 -0.9988
37998SOL    HW120855   8.801   6.921  11.377  0.3139  0.0622  0.9809
37998SOL    HW220856   8.653   6.905  11.349  0.3882 -0.0359  0.6342
37999SOL     OW20857   3.646  11.923   3.263  0.3113  0.1790  0.6012
37999SOL    HW120858   3.690  11.844   3.295  0.0042  0.6636  2.3587
37999SOL    HW220859   3.553  11.906   3.276  0.2464  0.8474  1.1116
38000SOL     OW20860   1.538   6.204   1.385  0.8336 -0.1566 -0.2702
38000SOL    HW120861   1.478   6.258   1.436  0.0859 -2.9416  2.0506
38000SOL    HW220862   1.484   6.170   1.313 -0.0758 -1.5180  0.9992
38001SOL     OW20863  11.725   6.494   7.757 -0.5519 -0.1670 -0.4538
38001SOL    HW120864  11.790   6.538   7.812  0.2752 -0.0071 -1.5180
38001SOL    HW220865  11.770   6.416   7.725 -1.4877 -0.9916  0.1654
38002SOL     OW20866   2.090   6.654   0.073  0.5207  0.5108  0.4110
38002SOL    HW120867   2.063   6.723   0.134  2.4922  0.7619  1.0693
38002SOL    HW220868   2.172   6.685   0.037  0.3619 -0.5541 -0.9175
38003SOL     OW20869  10.622   0.676   8.056 -0.3789 -0.2327  0.0028
38003SOL    HW120870  10.592   0.625   8.132 -0.2538  0.6111  0.6364
38003SOL    HW220871  10.576   0.759   8.063  1.1498  0.6312  0.3129
38004SOL     OW20872   8.893  11.734   2.115  0.4256  0.2021  0.5361
38004SOL    HW120873   8.880  11.828   2.103 -0.7340  0.0090  0.1283
38004SOL    HW220874   8.987  11.721   2.104  0.5677  1.2757  0.3572
38005SOL     OW20875   3.890   3.256   6.790  0.3132  0.1708 -0.1294
38005SOL    HW120876   3.911   3.274   6.699  2.9696  0.6224  0.4832
38005SOL    HW220877   3.899   3.161   6.799  0.4052  0.1692 -0.2478
38006SOL     OW20878   4.662   8.137   1.552 -0.0136 -0.0560 -0.5305
38006SOL    HW120879   4.731   8.114   1.490 -0.0299  0.1790 -0.6355
38006SOL    HW220880   4.679   8.229   1.575  0.3494 -0.3090  0.2692
38007SOL     OW20881   8.179  11.623   4.562  0.3631  0.1629  0.4885
38007SOL    HW120882   8.206  11.654   4.649  0.6107 -2.1507  1.3148
38007SOL    HW220883   8.259  11.584   4.525  0.2448  1.0758 -0.7818
38008SOL     OW20884  12.312   8.852   6.889 -0.5114  0.5304 -0.0897
38008SOL    HW120885  12.259   8.782   6.928  0.6192 -0.2932  0.0311
38008SOL    HW220886  12.384   8.864   6.951  0.3886  0.3957 -1.0707
38009SOL     OW20887   8.623   5.803  12.478 -0.7690 -0.1336 -0.7297
38009SOL    HW120888   8.709   5.763  12.489 -1.3654 -1.0458  1.0128
38009SOL    HW220889   8.629   5.887  12.524 -1.0766 -0.6486  0.2858
38010SOL     OW20890   8.972   4.293   4.578  0.5254 -0.2345 -1.0993
38010SOL    HW120891   9.055   4.337   4.561  0.1872  0.7006 -0.4556
38010SOL    HW220892   8.941   4.264   4.492 -0.2918  2.7653 -1.9451
38011SOL     OW20893   9.891  11.706   7.368  0.1090 -0.2044  0.2182
38011SOL    HW120894   9.954  11.749   7.426  0.0042 -1.2875  1.1690
38011SOL    HW220895   9.946  11.670   7.297  0.4290 -0.1612  0.4401
38012SOL     OW20896   5.106   0.074   3.080  0.3756  0.0911  0.9694
38012SOL    HW120897   5.121   0.162   3.116  0.1267  0.5207  0.0557
38012SOL    HW220898   5.012   0.073   3.060  0.4769 -0.2025  0.5068
38013SOL     OW20899   0.161   7.111   9.626 -0.1965  0.0833  0.5530
38013SOL    HW120900   0.072   7.115   9.591  0.2291 -0.2197 -0.6136
38013SOL    HW220901   0.155   7.050   9.699 -0.8573 -0.3102  0.1872
38014SOL     OW20902   4.409   2.456   7.676 -0.3734 -0.0779  0.6338
38014SOL    HW120903   4.488   2.496   7.639 -0.3516 -1.7013 -1.3013
38014SOL    HW220904   4.345   2.526   7.679  0.4547  0.7313 -0.0612
38015SOL     OW20905   4.135   1.289   0.256  0.0880  0.0565  0.4617
38015SOL    HW120906   4.160   1.370   0.302 -0.6477  0.4624  0.1585
38015SOL    HW220907   4.144   1.310   0.163 -1.7498  0.3790  0.3081
38016SOL     OW20908  11.274   7.787   1.737 -0.0877 -0.7560  0.0681
38016SOL    HW120909  11.356   7.776   1.689 -1.7482 -2.6046 -2.6439
38016SOL    HW220910  11.236   7.699   1.740 -3.6714  0.4828 -2.2066
38017SOL     OW20911   1.925  12.208   9.140  0.0088 -0.3629 -0.1844
38017SOL    HW120912   1.989  12.162   9.194 -0.1984 -1.0951 -0.5458
38017SOL    HW220913   1.949  12.185   9.050  1.8671  2.7338 -0.6572
38018SOL     OW20914   2.297   2.954   0.526 -0.1572 -0.0294 -0.2801
38018SOL    HW120915   2.299   2.864   0.559  0.4580  0.2869  0.5933
38018SOL    HW220916   2.390   2.977   0.515 -0.3318  0.0703 -1.7381
38019SOL     OW20917   4.892   9.784   5.324 -0.0025  0.4911  0.0899
38019SOL    HW120918   4.839   9.801   5.247 -0.7230  0.3017  0.5319
38019SOL    HW220919   4.909   9.689   5.322 -1.9110  0.0613  1.3108
38020SOL     OW20920   9.453   8.048   7.255  0.4283 -0.7160 -0.1111
38020SOL    HW120921   9.441   8.025   7.162  0.5150 -1.1730 -0.0080
38020SOL    HW220922   9.548   8.052   7.266  0.4885 -2.9419  0.5113
38021SOL     OW20923   5.622   0.665   4.832  0.5832  0.4689 -0.4467
38021SOL    HW120924   5.560   0.606   4.874  3.0531 -2.3715 -0.4432
38021SOL    HW220925   5.595   0.753   4.860 -1.0287 -0.8760  2.7337
38022SOL     OW20926   8.701   7.294   9.873 -0.9407  0.1827  0.1706
38022SOL    HW120927   8.627   7.270   9.819  0.0318 -2.9265  0.0603
38022SOL    HW220928   8.766   7.329   9.812 -1.5957  1.1979  0.0355
38023SOL     OW20929   8.199   9.477  11.859  0.4573 -0.6035 -0.6416
38023SOL    HW120930   8.120   9.474  11.913  0.6157 -0.9384 -0.4290
38023SOL    HW220931   8.253   9.546  11.899  0.0857 -0.0667 -1.0510
38024SOL     OW20932   9.815   5.287  11.572  0.7765  0.3148  0.2327
38024SOL    HW120933   9.794   5.200  11.607  0.4256 -0.2918 -1.4040
38024SOL    HW220934   9.899   5.276  11.528  0.9965  0.9486  0.4876
38025SOL     OW20935   2.576   5.665   7.657  0.0140 -0.4713  0.3576
38025SOL    HW120936   2.507   5.731   7.663  0.1039 -0.4340  0.9915
38025SOL    HW220937   2.535   5.593   7.609 -0.8755 -0.9557  1.7816
38026SOL     OW20938  12.202   3.708  11.970 -0.1623  0.4894  0.0480
38026SOL    HW120939  12.133   3.719  12.035  0.3359  1.5608  0.4142
38026SOL    HW220940  12.190   3.781  11.910  2.1385  2.2172  1.5251
38027SOL     OW20941   1.872   9.607   0.724 -0.1226  0.0671 -0.1525
38027SOL    HW120942   1.794   9.552   0.736 -1.4229  1.9322  0.2895
38027SOL    HW220943   1.897   9.594   0.633 -1.4113 -0.0014 -0.5179
38028SOL     OW20944   0.498   9.874   2.594  0.5065 -0.5071  0.4352
38028SOL    HW120945   0.505   9.807   2.526  0.9500 -1.6900  1.6133
38028SOL    HW220946   0.406   9.872   2.620  0.6462 -1.0999  0.8945
38029SOL     OW20947   3.823   3.810  12.275 -0.1574  0.2640 -0.0375
38029SOL    HW120948   3.798   3.875  12.341 -0.7635 -1.2378  1.2785
38029SOL    HW220949   3.760   3.823  12.204 -0.0716  1.3095  0.0680
38030SOL     OW20950  10.133   2.973   1.101 -0.3120  0.3782 -0.1846
38030SOL    HW120951  10.114   2.911   1.030 -1.2263  1.7243 -1.1470
38030SOL    HW220952  10.057   2.967   1.158  0.3365 -0.5581  0.6218
38031SOL     OW20953   7.699   8.316   1.015  0.1303 -0.1535 -0.3630
38031SOL    HW120954   7.626   8.377   1.013 -0.7073 -1.0700  0.6707
38031SOL    HW220955   7.667   8.238   0.970  1.2966  0.2530 -1.9626
38032SOL     OW20956   5.517   4.897   7.163 -0.7186 -0.3897  0.2740
38032SOL    HW120957   5.439   4.914   7.110 -1.1161  0.0919  1.0072
38032SOL    HW220958   5.586   4.948   7.121 -0.3116 -2.2536 -1.4921
38033SOL     OW20959   4.115  12.211   3.133  0.0851 -0.1327  0.8743
38033SOL    HW120960   4.193  12.156   3.146  0.3573  0.0991  0.2284
38033SOL    HW220961   4.116  12.270   3.208  2.1679  1.8245 -0.5612
38034SOL     OW20962   9.490   0.373   7.949 -0.0657 -0.0405 -0.3428
38034SOL    HW120963   9.533   0.363   8.034 -1.3807  1.0653  0.4935
38034SOL    HW220964   9.562   0.379   7.886  0.9267 -2.6676  0.4239
38035SOL     OW20965  10.049   6.353  10.098 -0.0061 -1.1216 -0.1062
38035SOL    HW120966  10.071   6.443  10.121 -1.6506 -0.8992  0.7369
38035SOL    HW220967  10.042   6.353  10.002  0.5583 -0.5170 -0.1544
38036SOL     OW20968   3.928  10.463   8.113  0.5746  0.1290  0.5447
38036SOL    HW120969   3.887  10.538   8.156 -1.8431  0.5764 -2.1784
38036SOL    HW220970   3.860  10.396   8.113  1.3128 -0.6385 -0.4825
38037SOL     OW20971   8.246   1.070   0.552 -0.3167 -0.3488  0.2428
38037SOL    HW120972   8.323   1.078   0.607 -0.0510 -1.4661  0.0596
38037SOL    HW220973   8.261   1.131   0.480 -0.4344  0.7438  1.1333
38038SOL     OW20974   6.527  10.845  10.022 -0.0983  0.1868 -0.1013
38038SOL    HW120975   6.449  10.803   9.987  0.7916 -0.4006 -1.4799
38038SOL    HW220976   6.517  10.938   9.999 -0.5240  0.1621 -0.0117
38039SOL     OW20977   3.169   8.420   4.544 -0.1506  0.4354 -0.4126
38039SOL    HW120978   3.232   8.460   4.603  2.0884 -0.8831 -1.7916
38039SOL    HW220979   3.184   8.326   4.552 -2.4761  0.0064 -0.2697
38040SOL     OW20980   9.092  10.617  10.332  0.5410 -0.1537 -0.1465
38040SOL    HW120981   9.003  10.600  10.302 -0.1105  0.4050  1.3572
38040SOL    HW220982   9.110  10.547  10.394 -0.3637  1.7317  2.4555
38041SOL     OW20983   6.290   3.809   7.315  0.1868 -0.0892  0.1098
38041SOL    HW120984   6.376   3.852   7.311 -0.6551  1.7428  0.6919
38041SOL    HW220985   6.245   3.851   7.388 -1.0786 -1.3041  0.0813
38042SOL     OW20986   6.351   0.817   8.982 -0.4613 -0.9887  0.4327
38042SOL    HW120987   6.404   0.892   9.008 -0.1604 -1.3653  0.9304
38042SOL    HW220988   6.266   0.855   8.957  0.6153 -0.1523 -2.3136
38043SOL     OW20989   0.971   4.852  10.914 -0.8938  0.4119 -0.0770
38043SOL    HW120990   0.893   4.901  10.888 -1.1903  0.7740  1.4150
38043SOL    HW220991   0.947   4.811  10.997 -0.4415 -1.7994 -0.9590
38044SOL     OW20992   5.629   2.775   7.851  0.0292 -0.1151 -0.2024
38044SOL    HW120993   5.700   2.812   7.799 -0.5448 -0.6397 -1.4120
38044SOL    HW220994   5.553   2.829   7.831 -0.4650 -1.0068 -0.8349
38045SOL     OW20995   9.664   8.448  10.224  0.4482  0.1729 -0.4701
38045SOL    HW120996   9.728   8.409  10.284 -2.5279 -2.5721  1.1849
38045SOL    HW220997   9.655   8.539  10.254  1.5452 -0.1708  1.0269
38046SOL     OW20998   8.144   1.384  11.989  0.1818  0.6745 -0.1052
38046SOL    HW120999   8.183   1.371  12.075  1.1881 -0.6812 -0.7166
38046SOL    HW221000   8.165   1.475  11.966  2.2102  0.2709 -0.0061
38047SOL     OW21001   9.692  11.731  11.128  0.8065 -0.2573 -0.4352
38047SOL    HW121002   9.718  11.725  11.220 -0.1142 -1.9141 -0.2489
38047SOL    HW221003   9.623  11.666  11.118  1.3206 -0.5647 -2.4645
38048SOL     OW21004  12.033  10.093   7.858  0.1416 -0.2366 -0.6742
38048SOL    HW121005  12.062  10.002   7.865 -1.5428 -1.0587 -3.2325
38048SOL    HW221006  11.973  10.104   7.933 -0.0574 -1.4171 -0.6324
38049SOL     OW21007   8.301   2.257  10.474 -0.6644 -0.5825  0.2341
38049SOL    HW121008   8.369   2.321  10.452 -0.0871 -1.0217  0.6773
38049SOL    HW221009   8.237   2.265  10.404  0.0642 -0.4611 -0.4370
38050SOL     OW21010  12.058   9.927   5.925 -0.1779 -0.5936  0.7962
38050SOL    HW121011  12.053   9.843   5.879  2.4505 -0.6668  0.4783
38050SOL    HW221012  11.992   9.981   5.883  0.6554 -1.3428 -1.6539
38051SOL     OW21013  11.001  11.746   9.011  0.0706 -0.2499  0.1264
38051SOL    HW121014  11.092  11.722   8.992  0.0986 -0.0070 -0.0570
38051SOL    HW221015  10.967  11.673   9.061  1.3461  0.9869  3.0433
38052SOL     OW21016   9.414   3.804   9.611 -0.0578  0.4169  0.0261
38052SOL    HW121017   9.342   3.852   9.651  0.3877  1.6051 -0.5422
38052SOL    HW221018   9.438   3.857   9.535  0.5750 -0.6283 -0.5200
38053SOL     OW21019   9.722  10.188   0.079 -0.2768 -0.5274 -0.2113
38053SOL    HW121020   9.700  10.280   0.069  0.1224 -0.1566  1.8223
38053SOL    HW221021   9.809  10.179   0.042 -1.0659 -0.5580 -2.1912
38054SOL     OW21022   5.551   3.945   5.466  0.4532  0.3715  0.1921
38054SOL    HW121023   5.500   3.967   5.388 -0.3365 -0.5739  0.4231
38054SOL    HW221024   5.633   3.910   5.432  0.1486  0.0477 -0.2075
38055SOL     OW21025   2.371   9.759   3.156  0.2668 -0.3923  0.0909
38055SOL    HW121026   2.284   9.718   3.163  0.7041 -1.5734 -0.8711
38055SOL    HW221027   2.425   9.691   3.115  2.0509 -0.2612  2.0763
38056SOL     OW21028   8.305   0.201   4.454 -0.5354 -0.6165  0.5199
38056SOL    HW121029   8.362   0.208   4.531 -1.5095  2.7862  1.1023
38056SOL    HW221030   8.366   0.200   4.380  0.3528 -1.5057  1.2371
38057SOL     OW21031  11.402   6.743   5.421  0.0219  0.6439  0.1628
38057SOL    HW121032  11.424   6.698   5.503 -1.7531  0.2750  0.4904
38057SOL    HW221033  11.419   6.678   5.353  0.4485  0.5679  0.3404
38058SOL     OW21034  10.699   6.701   4.086  0.1924 -0.0955 -0.4958
38058SOL    HW121035  10.710   6.788   4.047 -0.3297 -0.0251 -0.4962
38058SOL    HW221036  10.610   6.676   4.062  0.1965 -0.4522 -0.1401
38059SOL     OW21037   7.880   3.401  12.027 -0.1498 -0.2316 -0.1151
38059SOL    HW121038   7.916   3.416  11.939 -0.4180  0.0486 -0.1786
38059SOL    HW221039   7.814   3.469  12.038  0.5495  0.3434  0.6838
38060SOL     OW21040  11.020   1.526   7.908  0.1964  0.5411  0.3677
38060SOL    HW121041  11.044   1.484   7.991  1.7532  0.7480  0.0538
38060SOL    HW221042  11.079   1.600   7.900 -0.4898  1.0151 -0.5461
38061SOL     OW21043   9.221   5.429  11.386  0.0999 -0.7324 -0.2250
38061SOL    HW121044   9.269   5.417  11.304 -0.5976 -0.9537 -0.6151
38061SOL    HW221045   9.163   5.353  11.391  0.2519 -0.8080  0.5624
38062SOL     OW21046   9.296   8.075   8.056  0.2678 -0.1010  0.3089
38062SOL    HW121047   9.282   7.981   8.045  0.5347 -0.1295  0.1919
38062SOL    HW221048   9.218   8.116   8.019 -0.0898 -0.2923  0.8446
38063SOL     OW21049   9.114   9.886   9.420 -0.1856  0.0155 -0.1495
38063SOL    HW121050   9.040   9.933   9.382  0.4511  0.8286 -0.4423
38063SOL    HW221051   9.189   9.915   9.367  0.0287 -2.6122 -1.4351
38064SOL     OW21052   2.372   2.709   6.376  0.0455 -0.3230 -0.2911
38064SOL    HW121053   2.388   2.676   6.288  2.2548  0.3430 -0.1863
38064SOL    HW221054   2.443   2.674   6.429 -0.2657  0.7060  0.8574
38065SOL     OW21055   7.287   4.924   2.773 -0.0259  0.5216 -0.1258
38065SOL    HW121056   7.223   4.859   2.803  1.7538 -1.3602 -0.1557
38065SOL    HW221057   7.287   4.991   2.841  0.1559 -1.0185  1.4842
38066SOL     OW21058   4.820   6.979  10.231  0.3172  0.1931 -0.1386
38066SOL    HW121059   4.741   6.925  10.234 -0.2255  0.9842  0.2237
38066SOL    HW221060   4.887   6.921  10.194  0.2927 -1.3719  2.0668
38067SOL     OW21061   7.079   2.975   0.483  0.0211 -0.5436 -0.0633
38067SOL    HW121062   7.071   2.889   0.523  2.1609 -1.2637 -1.0443
38067SOL    HW221063   7.104   2.957   0.392 -3.9393  1.0120 -1.6939
38068SOL     OW21064   3.374   6.700   8.902 -0.8222  0.7066  0.2062
38068SOL    HW121065   3.384   6.645   8.824 -0.8576 -0.5513  1.0597
38068SOL    HW221066   3.286   6.680   8.935 -0.2765  0.1389  1.3658
38069SOL     OW21067   5.218   6.813  11.888  0.2673 -0.0820  0.2421
38069SOL    HW121068   5.179   6.900  11.882 -0.2981 -0.4131 -1.4010
38069SOL    HW221069   5.312   6.830  11.896  0.1667  0.6867 -0.1208
38070SOL     OW21070  11.678   1.578   1.670 -0.1748  0.6155  0.1398
38070SOL    HW121071  11.608   1.630   1.631  0.3938  0.2953 -1.3819
38070SOL    HW221072  11.690   1.504   1.610  1.5684  0.7425  0.2749
38071SOL     OW21073   7.221   4.358  10.029 -0.6183 -0.0056 -0.4199
38071SOL    HW121074   7.127   4.363  10.044 -0.9597  0.1052 -2.3154
38071SOL    HW221075   7.250   4.286  10.084 -1.6683  0.4505  0.7793
38072SOL     OW21076  10.035   6.151   8.924 -0.9083  0.0975 -0.2519
38072SOL    HW121077   9.981   6.170   9.001  0.2956 -0.6910  0.8303
38072SOL    HW221078   9.985   6.085   8.875 -1.7918  0.7746 -0.2886
38073SOL     OW21079   0.691   3.950   0.294 -0.1659 -0.4886  0.1569
38073SOL    HW121080   0.622   4.002   0.254 -0.2051 -0.7469 -0.1213
38073SOL    HW221081   0.772   3.988   0.261 -0.0981  0.7724  1.6543
38074SOL     OW21082   2.527  12.088   3.774 -0.0068  0.1156  0.1707
38074SOL    HW121083   2.488  12.135   3.701  1.7480  0.9697 -0.2505
38074SOL    HW221084   2.464  12.100   3.846 -1.1544  0.3016 -0.8355
38075SOL     OW21085   9.703   6.053   7.610 -0.1713 -0.2587  0.0016
38075SOL    HW121086   9.799   6.055   7.609 -0.1575 -0.0378 -1.4870
38075SOL    HW221087   9.678   6.140   7.579 -0.7617 -1.2305 -2.5550
38076SOL     OW21088   8.484   6.347   7.678  0.1363 -0.3363  0.2205
38076SOL    HW121089   8.398   6.307   7.689  0.4707 -1.0175  0.3612
38076SOL    HW221090   8.541   6.275   7.653  0.5014  0.2506 -0.7055
38077SOL     OW21091   8.818   7.510   9.727  0.3901 -0.2942  0.2253
38077SOL    HW121092   8.728   7.541   9.717  0.4288 -0.3507 -0.3687
38077SOL    HW221093   8.860   7.574   9.784 -0.4079 -1.0327  1.6927
38078SOL     OW21094  11.237   9.891   1.533  0.5473  0.3790 -0.3077
38078SOL    HW121095  11.149   9.883   1.496  0.6292 -1.1099 -0.2238
38078SOL    HW221096  11.255   9.805   1.572  1.3257  1.2123  1.2796
38079SOL     OW21097   5.561   0.856   8.158 -0.1735  0.3300 -0.0502
38079SOL    HW121098   5.620   0.912   8.108  0.3284  0.1283  0.3031
38079SOL    HW221099   5.619   0.803   8.213 -0.5775 -1.1542 -0.9955
38080SOL     OW21100   2.090   1.481   2.993  0.1029 -0.3287  0.1515
38080SOL    HW121101   2.008   1.510   3.034  0.0225  1.1696 -0.9532
38080SOL    HW221102   2.089   1.522   2.907  1.1607 -1.8160 -0.6113
38081SOL     OW21103  10.707   3.550   5.855  0.0875  0.0916  0.2492
38081SOL    HW121104  10.746   3.462   5.855 -1.5847 -0.7087  1.3013
38081SOL    HW221105  10.686   3.567   5.763 -0.2252 -0.9431  0.1144
38082SOL     OW21106  10.892   1.888   4.202  0.7079  0.1704  0.2748
38082SOL    HW121107  10.899   1.886   4.106 -2.6346 -0.1949 -0.0706
38082SOL    HW221108  10.916   1.978   4.225 -0.9063  1.0512 -1.2264
38083SOL     OW21109   4.551   4.612  12.306  0.2857 -0.4710 -0.2425
38083SOL    HW121110   4.464   4.604  12.347  0.9020 -0.5812  1.0847
38083SOL    HW221111   4.564   4.706  12.298 -0.0822 -0.4579 -0.7277
38084SOL     OW21112   5.669   2.164  11.786 -0.3797  0.2356  0.4558
38084SOL    HW121113   5.685   2.258  11.772 -0.7676  0.3680  0.8689
38084SOL    HW221114   5.594   2.144  11.731 -0.6443  0.2966  0.7909
38085SOL     OW21115   9.104   4.076  10.326  0.4837 -0.4474  0.0917
38085SOL    HW121116   9.050   4.028  10.389 -0.7757  0.4104 -0.2899
38085SOL    HW221117   9.111   4.164  10.362  0.0862 -0.0575 -0.7380
38086SOL     OW21118   9.288   2.767  10.275 -0.3547  0.3027  0.3404
38086SOL    HW121119   9.384   2.773  10.269 -0.4530  3.1062  0.2670
38086SOL    HW221120   9.268   2.800  10.362 -1.3157  1.1682 -0.1926
38087SOL     OW21121   7.265   5.825   4.857 -0.2245 -0.3085 -0.6210
38087SOL    HW121122   7.256   5.880   4.934  0.6194  0.1805 -0.8643
38087SOL    HW221123   7.342   5.859   4.812  0.3608 -1.7321 -0.7392
38088SOL     OW21124   4.423   8.256  10.092 -0.5386  0.0653  0.0644
38088SOL    HW121125   4.442   8.337  10.138 -0.1123 -0.1298  0.2330
38088SOL    HW221126   4.414   8.282  10.000  1.1935  0.0752 -0.1328
38089SOL     OW21127   5.050   1.421  10.831  0.2944 -0.4856 -0.2951
38089SOL    HW121128   5.125   1.432  10.889 -0.6599 -2.7240  1.5307
38089SOL    HW221129   5.066   1.338  10.787 -0.4375 -0.2607 -1.0138
38090SOL     OW21130   6.288   8.633   9.607  0.1346 -0.5384 -0.4847
38090SOL    HW121131   6.222   8.568   9.580 -1.4923  1.4800 -1.6906
38090SOL    HW221132   6.301   8.688   9.529  1.0754  0.8749  0.6130
38091SOL     OW21133   5.619   0.623   0.719  0.1938  0.3019 -0.0326
38091SOL    HW121134   5.571   0.700   0.748 -0.5488  0.5048 -1.6959
38091SOL    HW221135   5.575   0.549   0.761 -0.7150  0.5946 -0.4554
38092SOL     OW21136   2.003   6.349   3.229 -0.3819  0.2933 -0.5371
38092SOL    HW121137   2.045   6.381   3.149 -0.1453 -0.0812 -0.5668
38092SOL    HW221138   1.957   6.269   3.201  1.9602 -1.4437  0.2022
38093SOL     OW21139   1.709  10.032  11.515 -0.0459  0.2791 -0.5734
38093SOL    HW121140   1.648   9.959  11.527  1.3930 -1.0285 -0.7776
38093SOL    HW221141   1.656  10.110  11.526 -2.2414 -0.7250 -2.8470
38094SOL     OW21142   3.101   5.811   1.143  0.5929 -0.3702  0.6180
38094SOL    HW121143   3.130   5.899   1.121  0.0242 -0.3441 -0.0566
38094SOL    HW221144   3.006   5.812   1.131  0.7273 -1.4727 -0.9336
38095SOL     OW21145  11.465  11.155   0.000  0.0542  0.4379 -0.0831
38095SOL    HW121146  11.395  11.190   0.056 -1.0844 -0.0116 -1.1698
38095SOL    HW221147  11.458  11.206  -0.081 -0.3420 -0.9591 -0.9475
38096SOL     OW21148   7.834   1.005  10.657 -0.1101  0.3271 -0.0066
38096SOL    HW121149   7.777   1.080  10.645 -0.3468  0.7515  3.0038
38096SOL    HW221150   7.818   0.976  10.747  1.4159 -2.1176 -0.4108
38097SOL     OW21151   3.812   7.764   6.675  0.2137 -0.3526 -0.9881
38097SOL    HW121152   3.815   7.756   6.770  0.1723  0.5631 -0.8991
38097SOL    HW221153   3.768   7.685   6.645  0.2651 -0.6653 -0.2479
38098SOL     OW21154   2.496  10.404   0.425 -0.1271  0.0755 -0.5749
38098SOL    HW121155   2.531  10.399   0.514 -2.8355 -1.0828  0.5508
38098SOL    HW221156   2.471  10.495   0.413 -1.6971 -0.1572  0.7222
38099SOL     OW21157   5.818   2.553  10.117 -1.2260  0.0667  0.1659
38099SOL    HW121158   5.805   2.462  10.089 -0.4736  0.2654 -0.8852
38099SOL    HW221159   5.880   2.547  10.189  0.0499 -0.1539 -0.9173
38100SOL     OW21160   3.561   5.119   4.363  0.2250  0.2795 -0.5267
38100SOL    HW121161   3.556   5.106   4.457 -2.3452  1.0563 -0.4625
38100SOL    HW221162   3.528   5.037   4.326 -2.3096  1.2106 -0.5517
38101SOL     OW21163   5.066   8.717  12.013  0.0487 -0.2915 -0.3917
38101SOL    HW121164   5.031   8.806  12.005 -0.9932 -0.6585 -0.0275
38101SOL    HW221165   5.025   8.669  11.941 -1.0815 -0.9945  0.6880
38102SOL     OW21166   7.867   8.388  11.915 -0.1980 -0.5135  0.3212
38102SOL    HW121167   7.848   8.383  11.821 -0.6134  0.4282  0.3435
38102SOL    HW221168   7.794   8.342  11.957 -0.0353 -0.8967  0.1965
38103SOL     OW21169   9.606   4.769   5.677 -0.1900 -0.6262 -0.5175
38103SOL    HW121170   9.524   4.726   5.653 -0.7388  1.3983 -2.6230
38103SOL    HW221171   9.582   4.859   5.696  1.5191  0.0535 -1.3001
38104SOL     OW21172   4.538   3.276  11.919 -0.0681 -0.6138 -0.4531
38104SOL    HW121173   4.580   3.193  11.943  3.0430  0.7077 -0.8830
38104SOL    HW221174   4.574   3.339  11.982 -3.8262  0.2256  1.1310
38105SOL     OW21175  11.782   6.547   4.604  0.0187  0.0654 -0.1207
38105SOL    HW121176  11.831   6.623   4.571  1.5804 -0.9932 -0.3342
38105SOL    HW221177  11.752   6.502   4.525 -0.2204  0.0209 -0.0058
38106SOL     OW21178   8.212   0.071  12.404  0.1794  0.2691  0.1133
38106SOL    HW121179   8.119   0.066  12.426  0.1483 -1.2971 -0.2306
38106SOL    HW221180   8.214   0.070  12.308  0.5592 -0.3959  0.1209
38107SOL     OW21181   6.592  12.307  11.392 -0.4397  0.1672  0.0732
38107SOL    HW121182   6.622  12.285  11.304 -0.0658  2.6160 -0.4713
38107SOL    HW221183   6.669  12.295  11.447 -0.4267 -0.4883 -0.0772
38108SOL     OW21184  12.277   6.468   2.009 -0.1202 -0.1296  0.0972
38108SOL    HW121185  12.239   6.545   2.051  0.5568 -0.6781  1.7822
38108SOL    HW221186  12.202   6.422   1.971 -0.5241  1.4099 -1.1147
38109SOL     OW21187  10.170   8.160  12.165  0.3640  0.5361  0.3805
38109SOL    HW121188  10.212   8.129  12.084  0.2748 -0.1129  0.5769
38109SOL    HW221189  10.215   8.113  12.235  0.3634  1.0130  0.7067
38110SOL     OW21190   6.224   4.758   0.381 -0.4486  0.0446  0.1865
38110SOL    HW121191   6.286   4.798   0.442 -0.1436 -2.9668  2.0846
38110SOL    HW221192   6.278   4.700   0.327 -1.1072  0.5432 -1.0409
38111SOL     OW21193   2.671   5.108  10.694  0.1130  0.3459  0.5178
38111SOL    HW121194   2.613   5.179  10.665  0.0373  0.5325  1.1145
38111SOL    HW221195   2.737   5.101  10.625 -0.0912  0.7496  0.2786
38112SOL     OW21196   6.572   7.061   6.917 -0.1203 -0.2644  0.0675
38112SOL    HW121197   6.624   6.980   6.920 -1.6517 -1.2732  1.2554
38112SOL    HW221198   6.534   7.068   7.004  0.7903  2.3614  0.3197
38113SOL     OW21199  10.915  12.288   8.780  0.2835  0.0040 -0.4804
38113SOL    HW121200  10.928  12.354   8.848 -0.5048 -0.9943  0.6806
38113SOL    HW221201  10.945  12.330   8.700 -0.7381  1.9833  0.1178
38114SOL     OW21202   9.438   5.480   3.723  0.2741 -0.1296 -0.3057
38114SOL    HW121203   9.480   5.536   3.788 -1.0978  2.8078 -1.8131
38114SOL    HW221204   9.509   5.456   3.663  0.8025  0.2475  0.1544
38115SOL     OW21205   5.957   7.089   0.032 -0.4448 -0.1287 -1.0815
38115SOL    HW121206   6.038   7.135   0.054  1.5412 -3.0926 -1.5891
38115SOL    HW221207   5.939   7.114  -0.058 -1.1740  1.9217 -0.4153
38116SOL     OW21208  11.448  10.526  11.683 -0.3343  0.4087  0.1401
38116SOL    HW121209  11.534  10.494  11.655 -0.4427  0.7171 -0.5548
38116SOL    HW221210  11.468  10.585  11.756 -0.0629 -0.4757  0.8026
38117SOL     OW21211  11.596   0.825   3.606  0.5923  0.3553 -0.0746
38117SOL    HW121212  11.662   0.770   3.565 -0.0802 -0.9271  0.4953
38117SOL    HW221213  11.646   0.884   3.663  1.3581  0.6372 -1.0150
38118SOL     OW21214   5.928   3.538   3.685  0.4682 -0.1541  0.1243
38118SOL    HW121215   5.836   3.558   3.669 -0.2200 -0.1787  3.3336
38118SOL    HW221216   5.946   3.460   3.633 -1.1486  0.1406 -0.9347
38119SOL     OW21217   6.366   1.240   1.277 -0.3603  0.5293  0.4884
38119SOL    HW121218   6.424   1.221   1.351 -0.7633  0.1460  0.7115
38119SOL    HW221219   6.278   1.225   1.312 -0.5222 -0.4091 -0.2869
38120SOL     OW21220   3.987   6.385   9.636 -0.7264  0.4667 -0.3994
38120SOL    HW121221   4.055   6.436   9.593  1.4344  0.2735  2.4959
38120SOL    HW221222   3.942   6.448   9.693 -0.1473 -0.1639  0.8052
38121SOL     OW21223   9.963   9.284   5.653  0.2429 -0.2442  0.3576
38121SOL    HW121224   9.962   9.322   5.741 -0.1809 -0.4447  0.4425
38121SOL    HW221225   9.870   9.272   5.632  0.3267  0.3007 -0.3335
38122SOL     OW21226   7.905   1.424   0.115 -0.0710  0.1137  1.1891
38122SOL    HW121227   7.910   1.480   0.037 -0.3632 -1.1642  0.2196
38122SOL    HW221228   7.897   1.486   0.188  1.3168  1.3888  0.3316
38123SOL     OW21229   4.407   3.835   0.840 -0.3607  0.1605  0.5348
38123SOL    HW121230   4.463   3.910   0.859  1.2412 -0.9027  0.1941
38123SOL    HW221231   4.441   3.800   0.758 -2.8440  0.6571 -0.8050
38124SOL     OW21232   8.703  11.536  12.029  0.2449  0.1150  0.8794
38124SOL    HW121233   8.643  11.499  12.094 -0.5806 -1.3736 -0.6268
38124SOL    HW221234   8.789  11.529  12.069 -0.2000 -1.0801  1.7128
38125SOL     OW21235   1.096   1.098  10.070 -0.3003 -0.1914 -0.1309
38125SOL    HW121236   1.159   1.085  10.141  0.4662 -0.8513 -0.8972
38125SOL    HW221237   1.026   1.036  10.089 -0.5743  0.3224  0.5611
38126SOL     OW21238   8.157   5.632   3.445  0.6082  0.1975 -0.4886
38126SOL    HW121239   8.226   5.634   3.379  1.3909 -0.3395  0.2884
38126SOL    HW221240   8.143   5.725   3.467  0.8195  0.3334 -0.9101
38127SOL     OW21241  10.061  11.924   3.813  0.6342  0.0339 -0.4116
38127SOL    HW121242  10.021  11.946   3.729 -1.5106  1.7987  0.9847
38127SOL    HW221243  10.038  11.832   3.826 -1.6864  0.5387 -0.4370
38128SOL     OW21244   1.566  10.098   6.657  0.2266 -0.1502  0.0266
38128SOL    HW121245   1.511  10.033   6.699  0.2428  0.0072  0.2960
38128SOL    HW221246   1.505  10.149   6.603  0.2382 -0.4788 -0.2989
38129SOL     OW21247   7.139  11.804   1.610 -0.1344 -0.0545 -0.4235
38129SOL    HW121248   7.044  11.806   1.606 -0.0953  0.8766 -2.0527
38129SOL    HW221249   7.161  11.846   1.693 -1.1343 -0.4819  0.0681
38130SOL     OW21250   7.705   0.180   6.941  0.4556 -0.0332  0.1906
38130SOL    HW121251   7.789   0.218   6.969  0.2563  1.1386 -0.7033
38130SOL    HW221252   7.728   0.093   6.910  1.0580 -0.3951  1.5953
38131SOL     OW21253   9.532  10.700   9.926 -0.8577  0.7269 -0.2422
38131SOL    HW121254   9.548  10.777   9.872 -2.2072  1.5469  0.4967
38131SOL    HW221255   9.462  10.726   9.986 -0.3245 -0.6015  1.0077
38132SOL     OW21256   7.023   5.024  10.018  0.4195  0.2974 -0.3438
38132SOL    HW121257   7.027   4.969   9.940  0.9185  0.5384 -0.4941
38132SOL    HW221258   7.106   5.007  10.063 -0.4216 -0.8799  0.8593
38133SOL     OW21259  10.525   8.078   7.958 -0.1724 -0.1693  0.3802
38133SOL    HW121260  10.502   8.156   8.009 -0.2098 -1.3240  2.2114
38133SOL    HW221261  10.620   8.079   7.952 -0.2117  0.4418 -0.3573
38134SOL     OW21262  10.031   1.184   6.951 -0.2132  0.2811  0.4275
38134SOL    HW121263   9.982   1.103   6.937  2.1864 -0.7143 -4.1155
38134SOL    HW221264   9.964   1.253   6.947 -2.0026 -1.2398  2.0296
38135SOL     OW21265  10.473  11.495   0.775  0.6698 -0.5120  0.4511
38135SOL    HW121266  10.497  11.587   0.760  0.5231 -0.5611 -0.0828
38135SOL    HW221267  10.551  11.445   0.749  0.6663 -0.5578  0.5255
38136SOL     OW21268   6.535   1.781   1.588 -0.7688  0.2037  0.1170
38136SOL    HW121269   6.535   1.715   1.657  1.9346 -0.3969 -0.3258
38136SOL    HW221270   6.542   1.731   1.507  1.5591  0.9233 -0.2186
38137SOL     OW21271   8.332   1.301   0.922  0.3428 -0.1827 -0.8885
38137SOL    HW121272   8.381   1.371   0.879  2.0437 -1.4405 -1.1179
38137SOL    HW221273   8.386   1.276   0.997 -0.3744 -1.0439 -0.6299
38138SOL     OW21274   4.909   1.106   3.579  0.0624 -0.5400 -0.0407
38138SOL    HW121275   4.933   1.178   3.520  0.5534 -0.6785 -0.0087
38138SOL    HW221276   4.813   1.108   3.581 -0.0289 -1.3722 -1.8799
38139SOL     OW21277   9.367   9.017   1.879 -0.0662  0.2586  0.0953
38139SOL    HW121278   9.290   9.068   1.903 -0.0879  0.4371 -0.3302
38139SOL    HW221279   9.332   8.939   1.836 -0.0414 -0.2495  0.9820
38140SOL     OW21280   1.389   1.058   1.749  0.2003 -0.2557  0.1763
38140SOL    HW121281   1.463   1.101   1.707 -0.4715  0.4661 -0.2924
38140SOL    HW221282   1.429   1.006   1.819  1.0640  0.9533  0.6208
38141SOL     OW21283   3.282   7.301  10.640  0.2310 -0.2125 -0.3576
38141SOL    HW121284   3.212   7.340  10.587 -1.7740 -1.1081  1.4725
38141SOL    HW221285   3.257   7.319  10.730  2.5491 -0.3696  0.3813
38142SOL     OW21286   6.131   4.665   9.083  0.2970 -0.1975 -0.1027
38142SOL    HW121287   6.226   4.673   9.088  0.6103 -1.5097 -2.5666
38142SOL    HW221288   6.104   4.733   9.021 -0.2699 -0.4073 -0.0980
38143SOL     OW21289   5.184   8.359   6.076 -0.5876 -0.0641  0.1225
38143SOL    HW121290   5.275   8.388   6.076 -0.9040  0.9550 -0.0228
38143SOL    HW221291   5.153   8.374   6.165  0.1687 -3.0849  1.0308
38144SOL     OW21292  10.658   0.319  10.398 -0.4166  0.4668 -0.2603
38144SOL    HW121293  10.711   0.267  10.338 -0.5206 -1.9003  1.5406
38144SOL    HW221294  10.608   0.378  10.342  0.3647 -0.7812 -2.3719
38145SOL     OW21295   9.276   8.493   8.958 -0.1523 -0.2250 -0.0579
38145SOL    HW121296   9.355   8.538   8.989  0.1265 -0.5296 -0.3265
38145SOL    HW221297   9.230   8.558   8.905  1.1399 -0.7648 -1.9528
38146SOL     OW21298   2.241  11.490   8.585  0.4798  0.2777  0.0239
38146SOL    HW121299   2.168  11.499   8.524  0.4172  3.7769  0.3874
38146SOL    HW221300   2.319  11.500   8.531  0.5738 -0.0516  0.0939
38147SOL     OW21301   0.370   4.665  10.304 -0.2750  0.1741  0.3473
38147SOL    HW121302   0.343   4.756  10.319 -2.4772 -0.4568  0.5568
38147SOL    HW221303   0.337   4.617  10.380 -1.8857 -1.2728 -1.1668
38148SOL     OW21304   4.851   4.071  12.310 -0.0367  0.2209  0.0877
38148SOL    HW121305   4.930   4.084  12.257 -0.2227  0.7107 -0.0723
38148SOL    HW221306   4.779   4.092  12.251 -0.2627  0.3580  0.4126
38149SOL     OW21307   8.232   1.692   0.895 -0.2104 -0.1212 -0.2134
38149SOL    HW121308   8.214   1.777   0.934 -1.0770 -0.5103  0.2672
38149SOL    HW221309   8.156   1.674   0.840  0.1101 -0.4535 -0.5590
38150SOL     OW21310  10.339   2.202   0.121  0.2748 -0.1106 -0.1192
38150SOL    HW121311  10.366   2.185   0.211  1.3928  1.2845 -0.1581
38150SOL    HW221312  10.335   2.115   0.080  1.8795 -0.6048  0.7018
38151SOL     OW21313   6.396   7.068   0.960 -0.0907 -0.0627  0.1390
38151SOL    HW121314   6.369   7.006   0.892 -2.5822  1.1025 -0.0580
38151SOL    HW221315   6.469   7.116   0.920  0.3995 -1.3223 -0.5594
38152SOL     OW21316   4.646   0.367   8.405 -0.1276 -0.8126  0.7561
38152SOL    HW121317   4.635   0.283   8.359  1.7368 -0.0074 -1.3442
38152SOL    HW221318   4.707   0.347   8.476  0.3859 -1.2496  0.2090
38153SOL     OW21319   3.687   8.610   8.635 -0.1419  0.1279  0.3281
38153SOL    HW121320   3.779   8.601   8.662 -0.0555 -0.2846 -0.0984
38153SOL    HW221321   3.691   8.616   8.539 -0.6099 -0.5464  0.2645
38154SOL     OW21322   3.071  11.632   2.483 -0.0219 -0.2873  0.3016
38154SOL    HW121323   3.021  11.705   2.520  0.7223 -0.3696  1.5293
38154SOL    HW221324   3.162  11.660   2.490  0.1544 -0.1207 -1.9559
38155SOL     OW21325   6.935   5.657  10.367 -0.1074 -0.2167 -0.2537
38155SOL    HW121326   7.001   5.725  10.359  0.9336 -1.1697 -0.0467
38155SOL    HW221327   6.966   5.602  10.440 -0.3939 -1.4603 -1.0367
38156SOL     OW21328   6.003  10.223  10.234 -0.2272 -0.3282 -0.4932
38156SOL    HW121329   6.004  10.215  10.329  1.8649 -0.6516 -0.4829
38156SOL    HW221330   6.000  10.318  10.218 -1.4186 -0.2910 -0.1529
38157SOL     OW21331   8.797   8.795  10.209  0.3962 -0.1059  0.1059
38157SOL    HW121332   8.708   8.762  10.191  0.4017 -0.2893  0.4059
38157SOL    HW221333   8.793   8.887  10.185  0.6714 -0.5446 -1.7447
38158SOL     OW21334   8.488  10.925  10.017 -0.7305 -0.3854 -0.1206
38158SOL    HW121335   8.530  10.882  10.093 -0.7969  2.5901  1.7627
38158SOL    HW221336   8.557  10.980   9.980 -0.8548 -1.4187 -1.9937
38159SOL     OW21337   4.761   7.452  10.857 -0.1943  0.4167 -0.0745
38159SOL    HW121338   4.713   7.398  10.793 -0.3295 -0.6039  0.8526
38159SOL    HW221339   4.803   7.520  10.804 -3.1526  1.7873 -0.8937
38160SOL     OW21340   7.443   0.147  10.864  0.1176  0.1896  0.2023
38160SOL    HW121341   7.467   0.201  10.939 -3.2983 -0.3075  1.8534
38160SOL    HW221342   7.414   0.064  10.903 -1.2008 -0.3062 -1.7045
38161SOL     OW21343   5.484   1.706   3.421  0.8285 -0.0111  0.2369
38161SOL    HW121344   5.506   1.793   3.453 -0.2823  0.8377 -1.2131
38161SOL    HW221345   5.464   1.718   3.329 -0.2345 -1.6568  0.2067
38162SOL     OW21346   4.700   1.895   0.547  0.1388  0.1073  0.9385
38162SOL    HW121347   4.704   1.800   0.557  0.8368  0.1080  0.7159
38162SOL    HW221348   4.631   1.909   0.482  0.7719 -0.3214  0.1452
38163SOL     OW21349   6.708   5.741  10.669  0.0194 -0.3333 -1.0016
38163SOL    HW121350   6.667   5.779  10.747 -0.5871 -1.6439 -0.6556
38163SOL    HW221351   6.636   5.705  10.618  0.5386 -0.6736 -1.5083
38164SOL     OW21352   9.467   3.815   5.830 -0.1784 -0.0349 -0.1401
38164SOL    HW121353   9.393   3.872   5.807  0.3310  0.7848  0.1868
38164SOL    HW221354   9.443   3.729   5.796 -0.2051  0.7517 -2.2550
38165SOL     OW21355   8.933   9.460  12.119 -0.1632  0.6241 -0.1838
38165SOL    HW121356   8.871   9.425  12.055 -0.4713 -1.1752  1.0343
38165SOL    HW221357   8.883   9.525  12.168 -0.7670  0.0100  0.0272
38166SOL     OW21358   9.907   7.993   7.137  0.0819 -0.5461 -0.3421
38166SOL    HW121359   9.884   7.955   7.053 -1.0349  0.5715 -0.5730
38166SOL    HW221360   9.998   7.966   7.151  1.4991  1.9355 -3.4952
38167SOL     OW21361   7.255   6.981   0.101  0.0001  0.4188 -0.1547
38167SOL    HW121362   7.232   6.979   0.008 -0.2353  3.2837 -0.2483
38167SOL    HW221363   7.347   7.008   0.103  0.2658 -0.4609  0.4599
38168SOL     OW21364   9.222   9.341   9.613 -0.4036 -0.5722  0.8621
38168SOL    HW121365   9.224   9.424   9.564 -0.7731 -0.2665  1.3565
38168SOL    HW221366   9.198   9.275   9.547  2.3482 -0.7296 -0.1231
38169SOL     OW21367   7.301  10.546   6.777 -0.3707 -0.0182  0.0271
38169SOL    HW121368   7.321  10.571   6.687  0.0187  1.6331  0.5491
38169SOL    HW221369   7.212  10.579   6.792 -0.3329 -0.0570  0.3332
38170SOL     OW21370   4.393  12.045   2.742 -0.3404  0.5185 -0.0092
38170SOL    HW121371   4.373  12.045   2.836 -0.2402  0.5099  0.0123
38170SOL    HW221372   4.308  12.040   2.699 -0.3422 -0.6442  0.0888
38171SOL     OW21373   5.045   5.796   7.626 -0.3587  0.6383  0.2848
38171SOL    HW121374   4.969   5.742   7.648 -2.6381  3.1319 -0.8689
38171SOL    HW221375   5.041   5.869   7.687 -0.3047  1.9805 -1.2512
38172SOL     OW21376  11.477   5.988   3.173  0.0118 -0.0786 -0.0532
38172SOL    HW121377  11.557   6.002   3.223  0.3064 -1.8162  0.0049
38172SOL    HW221378  11.468   5.893   3.167 -1.4965  0.0850 -0.9454
38173SOL     OW21379   2.779   4.221   9.383 -0.2369 -0.8417  0.6918
38173SOL    HW121380   2.737   4.156   9.439 -0.9219 -0.3238  0.8065
38173SOL    HW221381   2.831   4.274   9.443 -1.5056  0.1342  0.9713
38174SOL     OW21382   7.111   2.308   7.420  0.1776  0.0374 -0.1260
38174SOL    HW121383   7.168   2.288   7.346 -2.5111 -0.1904 -2.3022
38174SOL    HW221384   7.068   2.226   7.442 -1.0802  0.6495 -0.1815
38175SOL     OW21385   0.316   6.271   0.288 -0.2531  0.0470 -0.2942
38175SOL    HW121386   0.403   6.276   0.247 -0.1707 -2.0499 -0.4927
38175SOL    HW221387   0.267   6.343   0.250  1.2518  0.9823 -0.5442
38176SOL     OW21388   9.811   5.373  10.735  0.1437 -0.8350  0.3286
38176SOL    HW121389   9.718   5.361  10.716 -0.2818  0.4769  1.3640
38176SOL    HW221390   9.813   5.447  10.796  1.7003 -2.1672  2.0185
38177SOL     OW21391   5.775   4.186   2.098  0.1359  0.0718  0.0461
38177SOL    HW121392   5.737   4.205   2.011  0.8604 -0.5459 -0.4157
38177SOL    HW221393   5.790   4.092   2.097  1.0353  0.2030  0.4852
38178SOL     OW21394   6.581   3.979   0.586  0.4805  0.1315 -0.2341
38178SOL    HW121395   6.588   3.941   0.498 -0.8833  0.9889 -0.7591
38178SOL    HW221396   6.620   4.066   0.578  0.0273  0.3508 -0.0921
38179SOL     OW21397   9.958   7.965   5.252 -0.5080 -0.7446 -0.3164
38179SOL    HW121398   9.905   8.044   5.239 -1.8008 -1.1250  2.0257
38179SOL    HW221399  10.040   7.984   5.207 -1.2319  1.4361 -0.8738
38180SOL     OW21400  12.157   6.706   8.812  0.2361 -0.0172 -0.1562
38180SOL    HW121401  12.187   6.778   8.757 -1.2210  0.0505 -0.9052
38180SOL    HW221402  12.124   6.749   8.891  1.3019 -0.0305  0.3026
38181SOL     OW21403   7.014   9.737   1.815  0.9426 -0.2746  0.4275
38181SOL    HW121404   7.088   9.774   1.861  1.5127 -0.1954 -0.5211
38181SOL    HW221405   6.944   9.734   1.880  1.6778 -0.0570  1.2468
38182SOL     OW21406   0.571   0.564   1.435 -0.0869  0.2334  0.1151
38182SOL    HW121407   0.540   0.539   1.522 -1.7305  0.6583 -0.3222
38182SOL    HW221408   0.503   0.535   1.375  0.5359  0.8573 -0.9421
38183SOL     OW21409   4.479   0.943   3.782  0.0972 -0.3568 -0.2207
38183SOL    HW121410   4.427   1.023   3.792  1.0563  0.1692  0.7289
38183SOL    HW221411   4.541   0.945   3.855 -2.2145 -3.8500  2.1515
38184SOL     OW21412   9.544   5.293  10.380 -0.3278 -0.2293 -0.3461
38184SOL    HW121413   9.524   5.209  10.338  1.6722 -1.4160  0.8958
38184SOL    HW221414   9.638   5.288  10.398 -0.4146  1.7792  0.8712
38185SOL     OW21415   6.091  10.280   3.978 -0.4967  0.1167  0.8144
38185SOL    HW121416   6.164  10.280   3.916  0.2395 -0.4228  1.6614
38185SOL    HW221417   6.132  10.275   4.064 -1.5271 -0.1189  1.3127
38186SOL     OW21418   9.886  10.682   3.992 -0.3570 -0.5643  0.8077
38186SOL    HW121419   9.826  10.747   4.029 -0.2790 -1.1798  2.0684
38186SOL    HW221420   9.851  10.665   3.904  0.7803  2.6425 -0.4009
38187SOL     OW21421  12.249   5.807  11.595  0.1277  0.1301  0.0472
38187SOL    HW121422  12.288   5.766  11.673  1.1582  1.2332  0.1501
38187SOL    HW221423  12.158   5.779  11.596  0.4924 -1.1088  0.8036
38188SOL     OW21424   6.199   9.578   3.027  0.9954 -0.1412  0.1792
38188SOL    HW121425   6.214   9.659   2.978 -1.5347  0.0650 -0.3923
38188SOL    HW221426   6.169   9.608   3.113 -1.8254 -0.3333 -0.6364
38189SOL     OW21427   5.677  10.594   3.598 -0.1267 -0.5636 -0.2707
38189SOL    HW121428   5.734  10.526   3.633 -1.0158 -1.1626  0.0546
38189SOL    HW221429   5.728  10.675   3.605  0.8306 -1.1467 -0.3937
38190SOL     OW21430   6.082   7.226   9.754  0.2716  0.1027  0.2774
38190SOL    HW121431   6.157   7.224   9.814 -0.1253  1.8868  0.8996
38190SOL    HW221432   6.121   7.209   9.668  1.4264  0.9615  0.5922
38191SOL     OW21433   7.625   1.324   4.068  0.0821 -0.4443  0.1524
38191SOL    HW121434   7.694   1.390   4.055  0.2036 -0.2985  1.4254
38191SOL    HW221435   7.549   1.360   4.022  0.3456  0.2523  0.2463
38192SOL     OW21436   0.397  10.249   9.112  0.4319  0.0069 -0.0187
38192SOL    HW121437   0.382  10.327   9.165  2.0587  0.7670 -0.5983
38192SOL    HW221438   0.359  10.270   9.027  1.9327  0.6980 -0.5499
38193SOL     OW21439  10.841  10.762   1.562  0.2527 -0.3555 -0.0168
38193SOL    HW121440  10.912  10.725   1.510  0.0453 -0.5425 -0.1684
38193SOL    HW221441  10.857  10.731   1.651  0.1182 -0.7624 -0.1307
38194SOL     OW21442   9.857   9.929   6.355 -0.1744 -0.4229 -0.3671
38194SOL    HW121443   9.787   9.863   6.350  0.5523 -1.3791  1.5629
38194SOL    HW221444   9.869   9.944   6.448 -0.5075  2.7159 -0.7315
38195SOL     OW21445   6.775   9.010   1.956  0.0673  0.1025 -0.0902
38195SOL    HW121446   6.721   9.040   1.883 -1.0912 -1.1721  0.2066
38195SOL    HW221447   6.827   8.938   1.921  2.4909  1.9959 -0.6719
38196SOL     OW21448   7.327   3.887   3.048 -0.0549 -0.0354  0.5522
38196SOL    HW121449   7.303   3.973   3.083  0.0108  0.5278 -0.7175
38196SOL    HW221450   7.289   3.886   2.960 -0.0964 -1.3370  0.5607
38197SOL     OW21451   4.281   1.156  10.332  0.3945  0.5990 -0.7618
38197SOL    HW121452   4.345   1.180  10.265  2.3165  0.8386  1.0727
38197SOL    HW221453   4.328   1.098  10.391 -1.1171  0.7050  0.6214
38198SOL     OW21454   6.289   0.057   7.723  0.1192  0.3861 -0.0442
38198SOL    HW121455   6.309   0.099   7.807 -2.0378  0.3489  0.5550
38198SOL    HW221456   6.312   0.123   7.657  0.5032  0.9584  0.6505
38199SOL     OW21457   4.722   4.589   8.753 -0.1802  0.1326 -0.0119
38199SOL    HW121458   4.795   4.618   8.808  0.5484  1.1316 -1.4403
38199SOL    HW221459   4.764   4.535   8.686 -0.9688 -0.5248  0.0148
38200SOL     OW21460  10.886   2.836   0.959  0.2993 -0.9362 -0.0279
38200SOL    HW121461  10.832   2.790   0.896  0.6503 -0.8781 -0.3732
38200SOL    HW221462  10.835   2.914   0.982  1.4072  0.6002 -2.4590
38201SOL     OW21463   5.594   5.596   3.650  0.2977 -0.4141  0.4830
38201SOL    HW121464   5.689   5.582   3.649  0.0978 -2.1293  1.2208
38201SOL    HW221465   5.583   5.691   3.647  2.0025 -0.1990 -0.7260
38202SOL     OW21466   9.793   4.158   0.469  0.0716 -0.1321  0.0512
38202SOL    HW121467   9.839   4.093   0.418  0.2905  0.7031 -0.8446
38202SOL    HW221468   9.738   4.205   0.406 -0.7266 -0.0022  0.8136
38203SOL     OW21469   4.064   4.247  10.546 -0.2874 -0.3639 -0.4210
38203SOL    HW121470   4.039   4.324  10.597 -0.5885 -0.8102  0.1134
38203SOL    HW221471   4.110   4.191  10.608  1.1663 -0.0164 -1.1464
38204SOL     OW21472  10.056  12.065   9.948 -0.1933  0.1567 -0.0018
38204SOL    HW121473   9.973  12.098   9.912  0.5734  1.0768 -1.0021
38204SOL    HW221474  10.123  12.119   9.906  0.9983 -1.3504 -0.1101
38205SOL     OW21475   3.524   5.365   2.027 -0.2475  0.0620  0.3565
38205SOL    HW121476   3.506   5.272   2.045 -0.3080 -0.1951 -0.9265
38205SOL    HW221477   3.496   5.377   1.936  0.2898  1.2053  0.3294
38206SOL     OW21478   0.075   4.380   4.844 -0.4476  0.0577 -0.4151
38206SOL    HW121479   0.066   4.305   4.903 -2.0825  1.7026  1.6029
38206SOL    HW221480   0.012   4.362   4.774  2.2560 -2.4232 -2.4523
38207SOL     OW21481   6.194   3.571  10.823  0.1966  0.0217 -0.1266
38207SOL    HW121482   6.141   3.645  10.855 -1.7071 -1.1834 -0.3254
38207SOL    HW221483   6.161   3.554  10.735 -0.2816 -1.8009  0.3536
38208SOL     OW21484   7.524   3.638  12.143  0.3795 -0.2147 -0.3555
38208SOL    HW121485   7.561   3.636  12.231  0.7469  1.3956 -0.4335
38208SOL    HW221486   7.457   3.708  12.147 -0.6457 -1.1294 -0.9701
38209SOL     OW21487   7.429   6.055   6.336 -0.0886  0.4467 -0.2530
38209SOL    HW121488   7.426   6.052   6.240 -1.4342 -0.5722 -0.2094
38209SOL    HW221489   7.359   6.116   6.360  0.7505  1.3005  0.0803
38210SOL     OW21490   6.509   4.420   3.091 -0.0413 -0.2487  0.1339
38210SOL    HW121491   6.483   4.446   3.003 -0.2233  1.1135  0.5662
38210SOL    HW221492   6.571   4.349   3.078  1.2578  1.0671 -1.1655
38211SOL     OW21493  11.933   5.644   9.471 -0.1641  0.2963  0.5929
38211SOL    HW121494  11.996   5.590   9.423 -2.0177 -0.1694 -1.4900
38211SOL    HW221495  11.951   5.734   9.442 -0.1765  0.2055  0.2928
38212SOL     OW21496   4.563  11.950   6.595 -0.1511 -0.1711  0.1397
38212SOL    HW121497   4.600  12.010   6.530 -0.0295  0.2764  0.6184
38212SOL    HW221498   4.509  11.891   6.544 -1.7727  1.4777 -0.1590
38213SOL     OW21499  10.735   6.086  10.204 -0.0719 -0.1679 -0.3102
38213SOL    HW121500  10.643   6.091  10.179 -0.6334  1.1101  1.7506
38213SOL    HW221501  10.739   6.016  10.269  0.5764 -0.7088 -0.9086
38214SOL     OW21502   8.900  11.832  10.129 -0.1473  0.4159 -0.5394
38214SOL    HW121503   8.857  11.815  10.045  0.3363 -0.2104 -0.6647
38214SOL    HW221504   8.958  11.758  10.142 -0.6619  0.1928  0.6538
38215SOL     OW21505   4.640   0.689   7.760 -0.4337 -0.1498  0.0137
38215SOL    HW121506   4.643   0.602   7.721  1.4260 -0.2263  0.2509
38215SOL    HW221507   4.562   0.688   7.815 -0.7274 -1.4850 -0.4022
38216SOL     OW21508   3.711   7.933   8.436 -0.0141  0.3513 -0.5791
38216SOL    HW121509   3.708   8.029   8.438  1.5663  0.4623 -1.7145
38216SOL    HW221510   3.726   7.907   8.527  0.2333  1.2158 -0.3656
38217SOL     OW21511   3.398   2.429   1.843  0.0250 -0.5081  0.0523
38217SOL    HW121512   3.468   2.443   1.907 -0.1705 -1.5349  0.5087
38217SOL    HW221513   3.431   2.468   1.762  0.8736 -0.4452  0.4153
38218SOL     OW21514   0.337  12.371   0.811  1.1176 -0.2823 -0.4335
38218SOL    HW121515   0.256  12.337   0.850  1.2910 -1.4388 -1.0505
38218SOL    HW221516   0.308  12.409   0.728  0.6295  2.8340  1.0107
38219SOL     OW21517   1.298   4.963   4.411  0.4549 -0.1766 -0.3039
38219SOL    HW121518   1.321   4.947   4.503  1.6515 -1.8903 -0.8565
38219SOL    HW221519   1.205   4.985   4.413  0.2818 -0.9073  1.2604
38220SOL     OW21520  11.494   8.213   7.073  0.2662  0.2780 -0.3021
38220SOL    HW121521  11.570   8.259   7.037  0.4452  0.3879  0.2034
38220SOL    HW221522  11.508   8.216   7.168 -1.5552  2.3998 -0.0369
38221SOL     OW21523   2.299   9.927   4.207 -0.2537  0.4165  0.6551
38221SOL    HW121524   2.236   9.898   4.141  1.8404  0.0094 -1.3300
38221SOL    HW221525   2.253   9.993   4.259 -2.0458  0.6749 -1.1638
38222SOL     OW21526   1.217   2.842  11.273 -0.0055  0.7247  0.7131
38222SOL    HW121527   1.307   2.832  11.305  0.2478 -0.1166 -0.2296
38222SOL    HW221528   1.163   2.797  11.339  0.5808 -1.6581 -0.3381
38223SOL     OW21529   1.467   4.926   6.992 -0.4674  0.2876 -0.1774
38223SOL    HW121530   1.386   4.973   6.970 -1.6625 -1.1154  0.9788
38223SOL    HW221531   1.437   4.852   7.045  1.7252  0.6605  1.7447
38224SOL     OW21532   1.584   9.026   1.710  0.8148  0.0742 -0.4616
38224SOL    HW121533   1.669   9.070   1.717  0.0944  1.2016  2.3932
38224SOL    HW221534   1.537   9.052   1.788 -2.2412 -0.4594 -1.9738
38225SOL     OW21535   6.965   4.922   2.395 -0.2274 -0.4215 -0.0017
38225SOL    HW121536   6.929   4.936   2.483  0.6491 -1.7518  0.5943
38225SOL    HW221537   7.048   4.969   2.396 -0.9435  0.9102 -0.6841
38226SOL     OW21538   2.292  10.330   1.203  0.7864 -0.0622 -0.2174
38226SOL    HW121539   2.257  10.303   1.118  3.0089  1.0294 -1.5847
38226SOL    HW221540   2.326  10.249   1.241  0.2857 -0.4708 -0.6256
38227SOL     OW21541   7.786   2.062  10.908 -0.0686  0.4904  0.9952
38227SOL    HW121542   7.790   1.997  10.979  1.2250  1.8837  2.2561
38227SOL    HW221543   7.715   2.121  10.934 -0.8278 -0.0313  0.1615
38228SOL     OW21544   0.618   0.162  10.116 -0.6346  0.0847  0.1079
38228SOL    HW121545   0.678   0.170  10.042  0.3245 -1.1263  0.7169
38228SOL    HW221546   0.668   0.195  10.191 -0.2925 -1.9160  0.8111
38229SOL     OW21547  12.449  11.231   6.786  0.2760 -0.0053 -0.0918
38229SOL    HW121548  12.422  11.214   6.877  1.2054 -2.7497 -0.2593
38229SOL    HW221549  12.542  11.250   6.792 -0.0257  1.7581 -0.3346
38230SOL     OW21550   3.826   2.595   1.561  0.1164  0.4965 -0.3682
38230SOL    HW121551   3.852   2.509   1.595 -0.4936  0.8609  1.1056
38230SOL    HW221552   3.797   2.643   1.639  2.1194  2.6653 -0.8470
38231SOL     OW21553   9.883   5.521  11.249 -0.3726  0.2675 -0.2680
38231SOL    HW121554   9.966   5.502  11.292 -1.1417 -2.1352  0.3328
38231SOL    HW221555   9.854   5.603  11.288 -0.4383 -1.1826  3.0433
38232SOL     OW21556   5.796  11.135   0.504 -0.3326 -0.4521  0.0542
38232SOL    HW121557   5.785  11.060   0.446  1.7324 -1.1362  0.4674
38232SOL    HW221558   5.818  11.207   0.445 -0.9152 -0.4839 -0.2155
38233SOL     OW21559   0.948   4.033   4.656 -0.1018  0.4069  0.5833
38233SOL    HW121560   1.021   4.093   4.643  0.5800 -0.4164  0.5223
38233SOL    HW221561   0.935   3.992   4.570 -1.5090  1.4814  0.2389
38234SOL     OW21562  11.809   0.695   5.390 -0.1973 -0.2584 -0.0594
38234SOL    HW121563  11.776   0.664   5.474  0.1900  0.8922  0.5425
38234SOL    HW221564  11.871   0.764   5.413  1.2445 -1.1122 -1.2327
38235SOL     OW21565   4.557   5.692   4.700 -0.8143  0.5334  0.1850
38235SOL    HW121566   4.561   5.647   4.615  0.0218  1.2457 -0.1763
38235SOL    HW221567   4.505   5.634   4.755 -1.8348  0.2999 -0.9624
38236SOL     OW21568   6.899   8.788   1.541  0.0462  0.0215  0.2665
38236SOL    HW121569   6.909   8.790   1.636 -0.0818  0.2395  0.2766
38236SOL    HW221570   6.931   8.702   1.515  1.3114  0.4521  0.3593
38237SOL     OW21571   5.876   4.186   5.961 -0.1177 -0.1462 -0.3829
38237SOL    HW121572   5.893   4.127   6.035  1.8679  1.3330  0.4405
38237SOL    HW221573   5.900   4.135   5.884 -0.3855 -1.0814  0.1388
38238SOL     OW21574   7.815  10.894   7.892  0.3251 -0.0451  0.3146
38238SOL    HW121575   7.890  10.880   7.949 -0.2730  0.5423  1.2823
38238SOL    HW221576   7.757  10.820   7.909  1.3685 -1.3996 -1.6541
38239SOL     OW21577  10.397   7.846   7.949  0.4815  0.4072 -0.0051
38239SOL    HW121578  10.426   7.937   7.949  0.0979  0.5454  1.0620
38239SOL    HW221579  10.322   7.844   8.009  1.0808 -0.7772  0.7744
38240SOL     OW21580   2.164   1.668  11.548 -0.1535 -0.7202 -0.3277
38240SOL    HW121581   2.176   1.763  11.545  0.2221 -0.7695 -0.4624
38240SOL    HW221582   2.179   1.640  11.458 -0.4453 -0.8898 -0.3248
38241SOL     OW21583   8.169   3.976   8.523 -0.4695 -0.2472 -0.5277
38241SOL    HW121584   8.143   4.063   8.494  2.0962  1.1351  0.8996
38241SOL    HW221585   8.194   3.930   8.443 -1.4313  0.4755 -1.2620
38242SOL     OW21586   5.506   6.525   0.108 -0.5189 -0.3076 -0.5031
38242SOL    HW121587   5.440   6.525   0.040  0.3383  0.0901 -1.3569
38242SOL    HW221588   5.549   6.610   0.100 -2.3583  1.0607  2.5145
38243SOL     OW21589   0.386   5.582  12.179 -0.8522  0.5728 -0.1083
38243SOL    HW121590   0.319   5.595  12.112 -1.4226 -0.2967  0.2854
38243SOL    HW221591   0.393   5.487  12.188  0.1543  0.6613  0.1397
38244SOL     OW21592   0.596  11.618   8.490  0.2412 -0.0540  0.2270
38244SOL    HW121593   0.592  11.595   8.397 -0.9628  0.5588  0.1000
38244SOL    HW221594   0.564  11.708   8.493 -0.0157 -0.1748  1.2679
38245SOL     OW21595  11.044   6.470   3.981  0.4859 -0.5154 -0.1305
38245SOL    HW121596  11.123   6.418   3.995  1.0477  0.5882  0.9971
38245SOL    HW221597  11.065   6.556   4.017 -1.1159 -0.0867 -0.1228
38246SOL     OW21598   7.562   3.794   1.623 -0.1262 -0.3513 -0.3267
38246SOL    HW121599   7.647   3.757   1.645 -0.4271 -0.6047  0.4516
38246SOL    HW221600   7.570   3.821   1.532  0.7614 -0.4376 -0.2804
38247SOL     OW21601   9.053  11.167   9.116  0.5186  0.9487 -0.8719
38247SOL    HW121602   9.002  11.086   9.112  0.1423  1.0310  1.0284
38247SOL    HW221603   9.144  11.138   9.118  0.3955  0.5618 -0.4565
38248SOL     OW21604   7.205   8.984   9.514  0.3013 -1.1511 -0.4688
38248SOL    HW121605   7.163   8.956   9.595 -1.2048  1.6460 -0.1324
38248SOL    HW221606   7.297   8.962   9.525  0.4627  0.5386  2.7890
38249SOL     OW21607   5.232   1.649   5.224  0.2090 -0.6399 -0.0093
38249SOL    HW121608   5.201   1.610   5.305 -0.1643 -1.1143 -0.3784
38249SOL    HW221609   5.248   1.575   5.166 -0.3865 -0.2623 -0.6717
38250SOL     OW21610   6.757   6.548   6.710 -0.0301  0.0059  0.4212
38250SOL    HW121611   6.700   6.559   6.786  1.6823 -1.7270  2.0630
38250SOL    HW221612   6.713   6.481   6.657 -0.9864  0.8674  0.0932
38251SOL     OW21613   5.396  12.465   1.848  0.3770  0.1676 -0.7685
38251SOL    HW121614   5.446  12.384   1.840 -0.1756 -0.3565  0.6434
38251SOL    HW221615   5.377  12.492   1.758  0.1752 -1.5302 -1.2626
38252SOL     OW21616  11.295   6.345   3.977  0.5695  0.5476 -0.2579
38252SOL    HW121617  11.340   6.271   3.936  2.4417 -0.0641  2.5692
38252SOL    HW221618  11.352   6.420   3.959  1.0720  0.3927  0.6234
38253SOL     OW21619   4.084   5.491   5.731 -0.3736  0.2294 -0.2993
38253SOL    HW121620   4.170   5.515   5.765  0.1848 -2.9248  0.9008
38253SOL    HW221621   4.022   5.529   5.794  0.3872 -0.5534  0.9808
38254SOL     OW21622   2.805  12.292   9.416 -0.7524  0.5030  0.2006
38254SOL    HW121623   2.877  12.353   9.432  1.2377 -1.7358  0.4383
38254SOL    HW221624   2.775  12.314   9.327  1.5498  0.3369 -0.7025
38255SOL     OW21625   8.870   8.826   4.173 -0.4202 -0.1242  0.1023
38255SOL    HW121626   8.875   8.883   4.249 -0.9070 -0.5701  0.4706
38255SOL    HW221627   8.790   8.776   4.185 -0.9866  0.4264 -1.1485
38256SOL     OW21628   4.106   4.437  12.326 -0.3490  0.7102  0.1265
38256SOL    HW121629   4.141   4.349  12.312  0.7683  1.4085 -1.8336
38256SOL    HW221630   4.013   4.424  12.341 -0.3136 -0.7622 -0.7855
38257SOL     OW21631   7.992   2.281   4.455 -0.2027  0.5034 -0.0258
38257SOL    HW121632   8.046   2.214   4.497  0.4377  0.8693 -0.2357
38257SOL    HW221633   8.010   2.271   4.362 -1.8903 -0.5318 -0.2697
38258SOL     OW21634  11.213   2.283  11.523 -0.0445  0.0664 -0.5237
38258SOL    HW121635  11.145   2.347  11.501 -0.2738 -0.9047 -3.0271
38258SOL    HW221636  11.174   2.227  11.590 -0.8239  0.9157 -0.2594
38259SOL     OW21637  10.295   1.746  11.874 -0.5396 -0.0824 -0.3314
38259SOL    HW121638  10.389   1.754  11.894 -0.9160  2.2459  0.8268
38259SOL    HW221639  10.258   1.707  11.953 -0.5221 -1.4283 -0.9631
38260SOL     OW21640   7.728   5.001   3.552 -0.4318  0.1653  0.5191
38260SOL    HW121641   7.821   4.981   3.541 -0.4836  0.6161 -0.9634
38260SOL    HW221642   7.697   4.937   3.616  1.3766  1.4703  2.8588
38261SOL     OW21643   9.410   2.453   3.569  0.1133  0.0489 -0.0155
38261SOL    HW121644   9.357   2.383   3.608  0.4766 -0.0919  0.2220
38261SOL    HW221645   9.474   2.476   3.636  0.4079  0.1647 -0.3339
38262SOL     OW21646  11.136   0.305   5.357  0.6802 -0.0090  0.1766
38262SOL    HW121647  11.156   0.314   5.264  2.1641 -1.6477  0.2840
38262SOL    HW221648  11.186   0.376   5.399 -1.2703  1.7833 -0.3330
38263SOL     OW21649   1.180   5.377  11.364  0.1959 -0.4430  0.7281
38263SOL    HW121650   1.167   5.345  11.275 -2.2105 -0.6241  1.0533
38263SOL    HW221651   1.171   5.473  11.357 -0.6462 -0.5003  0.8148
38264SOL     OW21652   6.254   0.907   5.822 -0.1294 -0.0953  0.0845
38264SOL    HW121653   6.194   0.979   5.803  0.7739  0.6162 -0.1560
38264SOL    HW221654   6.197   0.833   5.842 -1.1179  0.0025 -2.0912
38265SOL     OW21655   5.553   0.806   6.612  0.0208 -0.4617  0.3286
38265SOL    HW121656   5.612   0.805   6.537  0.6553 -1.6351  0.8193
38265SOL    HW221657   5.610   0.814   6.688 -0.5881  0.2698  0.7342
38266SOL     OW21658  11.696   4.275   9.255  0.2776 -0.2087  0.2899
38266SOL    HW121659  11.608   4.250   9.284  0.0779 -2.2957 -1.8249
38266SOL    HW221660  11.709   4.363   9.292 -2.6623  0.1642  0.6925
38267SOL     OW21661   1.535   2.279   2.472  0.3787 -0.6734 -0.1583
38267SOL    HW121662   1.594   2.303   2.544 -1.3226 -0.6219  1.2902
38267SOL    HW221663   1.518   2.361   2.426  2.1545 -0.8467 -1.2121
38268SOL     OW21664   2.982   4.405   5.122 -0.5599 -0.1447  0.1547
38268SOL    HW121665   3.044   4.455   5.068 -0.5814 -0.4225 -0.1279
38268SOL    HW221666   2.998   4.437   5.211 -0.0994 -0.1191  0.0703
38269SOL     OW21667   5.083   5.943   6.638  0.2681 -0.0443 -1.0960
38269SOL    HW121668   5.073   6.032   6.670  0.9107 -0.2442 -0.2904
38269SOL    HW221669   5.177   5.926   6.645 -0.0413 -1.3798  0.4589
38270SOL     OW21670  11.241   3.210   7.244 -0.3730  0.1597  0.3593
38270SOL    HW121671  11.222   3.178   7.156  1.9551  0.6406 -0.3947
38270SOL    HW221672  11.156   3.237   7.279 -1.3128  0.2619 -1.8571
38271SOL     OW21673   6.741  11.243   7.938  0.0850 -0.0408 -0.4681
38271SOL    HW121674   6.792  11.244   8.019  1.3701  1.5295 -1.2337
38271SOL    HW221675   6.668  11.303   7.955  0.3394  0.2668 -0.4560
38272SOL     OW21676   6.485   3.158   7.539  0.1148  0.1448 -0.0330
38272SOL    HW121677   6.420   3.226   7.558  2.4431  2.6497 -0.5247
38272SOL    HW221678   6.432   3.082   7.513 -2.6378  1.4812  1.2109
38273SOL     OW21679   7.755   4.470   6.130  0.2903  0.3245 -0.6221
38273SOL    HW121680   7.682   4.532   6.124  0.9239  1.1847  0.1622
38273SOL    HW221681   7.796   4.473   6.044  0.6999  1.5213 -0.4112
38274SOL     OW21682   8.493   9.255   3.237  0.3058  0.3899 -0.2615
38274SOL    HW121683   8.475   9.256   3.143 -0.9327 -0.8469 -0.0725
38274SOL    HW221684   8.503   9.162   3.257 -0.1465  0.5983  0.9567
38275SOL     OW21685  11.338   6.737  11.614  0.1369 -0.6124  0.0868
38275SOL    HW121686  11.375   6.815  11.573 -0.1186  0.3029  1.5189
38275SOL    HW221687  11.280   6.700  11.548  0.3697  0.3217 -0.6698
38276SOL     OW21688   6.142   4.943   5.875  0.5528 -0.2337  0.0258
38276SOL    HW121689   6.132   4.889   5.797  1.2197 -0.5180  0.1312
38276SOL    HW221690   6.053   4.954   5.908  0.5171 -2.5850  0.8961
38277SOL     OW21691   3.767  11.620   5.755 -0.8936  0.6395  0.3329
38277SOL    HW121692   3.780  11.525   5.760 -0.5422  0.6436 -0.3582
38277SOL    HW221693   3.786  11.652   5.843  1.4254  0.3591 -0.0173
38278SOL     OW21694   4.397   1.979  11.614  0.3986 -0.5485  0.2868
38278SOL    HW121695   4.373   1.994  11.523  0.5965  0.5898  0.3957
38278SOL    HW221696   4.477   1.928  11.611  0.6334 -0.1560 -0.1954
38279SOL     OW21697   6.710   3.694  11.404 -0.1577  0.4662 -0.3643
38279SOL    HW121698   6.779   3.731  11.350  0.3847 -3.2395 -2.5265
38279SOL    HW221699   6.755   3.641  11.469 -0.8994 -0.0912 -0.2833
38280SOL     OW21700   3.346   0.745   8.556  0.5225  0.0850 -0.3035
38280SOL    HW121701   3.355   0.705   8.470  0.3285  1.0466 -0.7904
38280SOL    HW221702   3.416   0.707   8.609  1.7495  0.7810 -1.3968
38281SOL     OW21703   5.121  10.738   4.575  0.6997  0.0377 -0.3349
38281SOL    HW121704   5.143  10.684   4.500 -1.3570 -1.0312 -0.2373
38281SOL    HW221705   5.027  10.756   4.566  0.9496  2.1458  0.5809
38282SOL     OW21706   7.486   2.927   9.826  0.5001  0.5601  0.6062
38282SOL    HW121707   7.394   2.951   9.818  0.2599  0.3030  2.2715
38282SOL    HW221708   7.495   2.847   9.774 -0.1963  0.6189  0.3922
38283SOL     OW21709   8.941  11.063   3.024  0.0269  0.0141 -0.0168
38283SOL    HW121710   8.881  11.104   3.086 -0.6232 -1.6266  0.5088
38283SOL    HW221711   8.998  11.008   3.078 -0.3209 -1.1679 -0.8059
38284SOL     OW21712   0.122  11.307  12.230  0.3121  0.3912  0.1732
38284SOL    HW121713   0.094  11.333  12.318 -0.9354  0.4307 -0.2170
38284SOL    HW221714   0.054  11.245  12.201  1.9346 -1.4801  0.1422
38285SOL     OW21715   0.054   1.997   4.483  0.3019  0.1536 -0.1575
38285SOL    HW121716   0.072   2.045   4.402  1.2635 -0.2494 -0.1892
38285SOL    HW221717  -0.036   1.964   4.472  0.6410 -0.4243 -1.3130
38286SOL     OW21718   2.961   4.673   3.753  0.1202 -0.0815 -0.6122
38286SOL    HW121719   3.020   4.603   3.727  0.2267 -0.3797  0.3695
38286SOL    HW221720   2.980   4.686   3.846 -1.2537 -0.0868 -0.3131
38287SOL     OW21721   1.231   3.555   4.364 -0.1289 -0.2010 -0.7946
38287SOL    HW121722   1.297   3.487   4.354  0.6840  0.6441 -1.3243
38287SOL    HW221723   1.189   3.560   4.278 -0.0601  0.0814 -0.8129
38288SOL     OW21724   5.877   8.987  12.109 -0.0867 -0.3129  0.1922
38288SOL    HW121725   5.825   9.065  12.130  0.9610  0.8481 -1.1898
38288SOL    HW221726   5.935   9.017  12.039  0.6278 -2.2658 -0.1030
38289SOL     OW21727   8.735  11.938  12.008 -0.2459 -0.0318 -0.5178
38289SOL    HW121728   8.809  11.980  12.053  1.1932 -0.8262 -2.0453
38289SOL    HW221729   8.663  11.941  12.072  0.4355  2.6932  0.2595
38290SOL     OW21730   9.182   6.569  10.201  0.3090  0.1581 -0.0866
38290SOL    HW121731   9.127   6.517  10.143 -0.4338  0.2318  0.5309
38290SOL    HW221732   9.146   6.553  10.288  2.2376 -1.0269  0.5541
38291SOL     OW21733   8.822   1.998   7.060 -0.5348 -0.1360  0.3513
38291SOL    HW121734   8.855   1.912   7.033  0.8161 -0.0992  1.7520
38291SOL    HW221735   8.767   1.980   7.136 -3.1020 -0.0791 -1.3689
38292SOL     OW21736   0.701   9.141   9.778 -0.3848  0.1378  0.1019
38292SOL    HW121737   0.625   9.193   9.803  0.8216  1.4077  1.2932
38292SOL    HW221738   0.713   9.080   9.850 -0.9116 -0.8446 -0.6116
38293SOL     OW21739   1.321   5.703   5.962  0.4294  0.5924 -0.2625
38293SOL    HW121740   1.350   5.749   5.883  1.0197  1.5819  0.5174
38293SOL    HW221741   1.389   5.636   5.976  0.0236  0.0304 -0.9033
38294SOL     OW21742   0.011   5.669  10.914  0.0228 -0.4540 -0.2209
38294SOL    HW121743   0.080   5.735  10.903  1.0454 -1.7300 -1.9730
38294SOL    HW221744  -0.050   5.686  10.843 -1.0712  0.1549  0.8383
38295SOL     OW21745   8.708   3.654   0.148 -0.5059 -0.3265 -0.1626
38295SOL    HW121746   8.669   3.740   0.157 -0.7251 -0.5423  1.0133
38295SOL    HW221747   8.674   3.603   0.221  0.9345 -0.9142  0.1412
38296SOL     OW21748   4.207   2.625   9.643  0.8233 -0.4590  0.0381
38296SOL    HW121749   4.216   2.668   9.728 -0.8614  0.5533 -0.2611
38296SOL    HW221750   4.249   2.685   9.581 -0.3283  0.1354 -0.1911
38297SOL     OW21751  10.602   3.449   0.747 -0.4704 -0.1155  0.0024
38297SOL    HW121752  10.689   3.487   0.748 -1.1449  1.4981 -0.0813
38297SOL    HW221753  10.615   3.360   0.713  1.2255 -0.1964  0.7632
38298SOL     OW21754   1.437   0.828  11.632  0.2025  0.7358 -0.1154
38298SOL    HW121755   1.359   0.803  11.681  1.0915  0.2267  1.0966
38298SOL    HW221756   1.438   0.924  11.636  0.5221  0.6918  1.3395
38299SOL     OW21757   2.697  10.297   2.189  0.0084  0.6073 -0.4765
38299SOL    HW121758   2.778  10.323   2.233  0.1379 -0.7954  0.1732
38299SOL    HW221759   2.717  10.301   2.096  0.5603  1.0557 -0.3411
38300SOL     OW21760   8.446   0.615   1.769 -0.1950  0.0341 -0.2366
38300SOL    HW121761   8.458   0.695   1.821  0.6302  1.1702 -2.0857
38300SOL    HW221762   8.514   0.556   1.801 -0.2592  0.3825  0.5692
38301SOL     OW21763   3.341  11.695  10.050 -0.3361 -0.2845 -0.1524
38301SOL    HW121764   3.315  11.780  10.014  0.5294  0.9435  1.9144
38301SOL    HW221765   3.344  11.636   9.975 -0.9390  1.5208 -1.6514
38302SOL     OW21766   9.182   7.378   2.086  0.4725  0.3200 -0.4866
38302SOL    HW121767   9.234   7.396   2.164  0.5953  1.2528 -0.7738
38302SOL    HW221768   9.243   7.390   2.013 -0.1509  1.4747 -0.8311
38303SOL     OW21769  11.464   5.299   1.571  0.3185  0.0560  0.4349
38303SOL    HW121770  11.553   5.264   1.568  0.3115  0.1086 -0.3919
38303SOL    HW221771  11.408   5.224   1.552  0.2565  0.2931 -0.3495
38304SOL     OW21772   5.247   6.215  10.613  0.1260  0.4139 -0.8788
38304SOL    HW121773   5.190   6.276  10.659  0.1950 -1.2780  1.6739
38304SOL    HW221774   5.333   6.225  10.654  0.6046 -0.1023 -1.6993
38305SOL     OW21775  11.723   8.921   2.977 -0.3252 -0.0532  0.3845
38305SOL    HW121776  11.642   8.878   2.951 -0.1485  0.0372 -0.3293
38305SOL    HW221777  11.695   8.989   3.039 -0.8209  0.1316 -0.0353
38306SOL     OW21778   8.840   1.168   3.446 -0.2312  0.0267  0.4606
38306SOL    HW121779   8.761   1.154   3.393 -0.3566  0.2051  0.6002
38306SOL    HW221780   8.841   1.262   3.465 -0.5839 -0.1390  1.3805
38307SOL     OW21781   6.092   3.800   6.145 -0.6156  0.4810  0.6743
38307SOL    HW121782   6.123   3.875   6.195  1.2643  0.9792 -1.1326
38307SOL    HW221783   6.135   3.724   6.185  2.8495  1.1045 -1.4734
38308SOL     OW21784   9.373   0.729  10.304 -0.6146  0.2030  0.0052
38308SOL    HW121785   9.351   0.820  10.285 -1.4831 -0.0076 -0.0213
38308SOL    HW221786   9.297   0.694  10.350  0.3330 -0.0772  1.4579
38309SOL     OW21787   7.059  11.039  11.178 -0.1003 -0.4528 -0.2144
38309SOL    HW121788   7.004  10.979  11.127 -1.0796 -0.9087  1.3042
38309SOL    HW221789   7.038  11.126  11.143 -0.7506 -0.7484 -0.5916
38310SOL     OW21790   7.323   5.657   7.355 -0.2764  0.6124  0.2748
38310SOL    HW121791   7.288   5.717   7.289  1.8169  0.1570 -1.3703
38310SOL    HW221792   7.326   5.709   7.435 -0.8739  1.8869 -0.4961
38311SOL     OW21793  11.687  10.206   9.463 -0.6010  0.5859  0.4145
38311SOL    HW121794  11.697  10.280   9.402  1.4339 -0.8756 -1.2036
38311SOL    HW221795  11.655  10.134   9.408  3.5412 -1.4595  0.2742
38312SOL     OW21796   8.953   9.233  10.432  0.1856  0.1794  0.3024
38312SOL    HW121797   9.029   9.194  10.390  0.8194  0.6306  1.0042
38312SOL    HW221798   8.956   9.201  10.522 -0.5285  0.0975  0.3025
38313SOL     OW21799  10.181   1.220   5.623 -0.5587  0.0074 -0.2630
38313SOL    HW121800  10.125   1.149   5.590 -1.9092  0.8937  0.0467
38313SOL    HW221801  10.240   1.176   5.684 -1.4518 -0.8636  0.0190
38314SOL     OW21802   0.051   6.048  11.243 -0.1866 -0.0594  0.0707
38314SOL    HW121803   0.002   5.988  11.186 -0.7289  1.3873 -1.0723
38314SOL    HW221804   0.142   6.023  11.232 -0.4895 -1.5060  0.6576
38315SOL     OW21805   0.244   6.361   8.450 -0.3954  0.4366 -0.4909
38315SOL    HW121806   0.238   6.331   8.541 -1.7028 -0.6414 -0.8950
38315SOL    HW221807   0.298   6.296   8.406 -1.4690 -0.1940 -0.9105
38316SOL     OW21808  10.017   2.097  11.379  0.5268 -0.2059 -1.2305
38316SOL    HW121809   9.946   2.147  11.418  2.1804  0.2093  1.4744
38316SOL    HW221810   9.973   2.037  11.319 -2.1653 -0.3012  0.6511
38317SOL     OW21811   5.266   2.912   6.863  0.2324  0.8002 -0.0472
38317SOL    HW121812   5.216   2.988   6.833  0.2414  0.2783 -1.5139
38317SOL    HW221813   5.356   2.944   6.870  0.0791  1.1625  0.2800
38318SOL     OW21814   7.691   1.386   1.864 -0.2131  0.0207 -0.5760
38318SOL    HW121815   7.612   1.363   1.815  1.0540  0.7683 -3.1612
38318SOL    HW221816   7.717   1.305   1.908 -0.4781 -1.2627 -2.6374
38319SOL     OW21817   3.607   8.356   2.025  0.1132  1.1291  0.2012
38319SOL    HW121818   3.513   8.372   2.031 -0.0956  0.1978 -0.3977
38319SOL    HW221819   3.614   8.269   1.986  1.2086  0.4791  1.7291
38320SOL     OW21820   1.216   4.596   7.801 -0.0147  0.5646  0.1853
38320SOL    HW121821   1.159   4.608   7.725  0.1123 -1.2674 -0.2560
38320SOL    HW221822   1.296   4.558   7.765 -0.6337 -2.1040  1.3430
38321SOL     OW21823   0.890   3.502   3.762 -0.1915 -0.0646  0.4283
38321SOL    HW121824   0.917   3.413   3.739  0.1781  0.2915 -0.5580
38321SOL    HW221825   0.797   3.505   3.741 -0.7089 -0.8266  2.4024
38322SOL     OW21826   6.408   6.678   3.560 -0.0859 -0.9093 -0.2548
38322SOL    HW121827   6.328   6.724   3.537  0.1947 -0.6064 -0.6318
38322SOL    HW221828   6.462   6.744   3.604  0.2663 -0.9036 -0.6855
38323SOL     OW21829   2.315   6.537   7.427 -0.5219 -0.2724  0.6515
38323SOL    HW121830   2.260   6.478   7.375  0.9121 -0.6541 -0.5156
38323SOL    HW221831   2.312   6.620   7.380  3.2666 -1.3799 -2.1694
38324SOL     OW21832   6.771   3.709   4.576  0.2292 -0.8185 -0.1735
38324SOL    HW121833   6.772   3.621   4.615  0.3295 -1.3953 -1.4442
38324SOL    HW221834   6.706   3.703   4.506 -0.2956  0.3450  0.1841
38325SOL     OW21835   9.408  11.794   8.425  0.3810  0.4892  0.0299
38325SOL    HW121836   9.488  11.812   8.474  0.7546  1.8591 -1.0105
38325SOL    HW221837   9.429  11.817   8.335  0.1396 -3.1567 -1.1471
38326SOL     OW21838  11.246   9.497   1.976 -0.2444 -0.0769  0.2161
38326SOL    HW121839  11.335   9.532   1.968  0.5858 -1.8656  1.0789
38326SOL    HW221840  11.201   9.561   2.031  0.4586  0.9305 -0.3408
38327SOL     OW21841   0.694   7.280   1.705 -0.5597  0.0252 -0.6159
38327SOL    HW121842   0.663   7.194   1.732  1.5516 -0.5062  0.3897
38327SOL    HW221843   0.667   7.338   1.776 -1.4941  0.1011 -1.0211
38328SOL     OW21844   6.545   3.907   2.639 -0.2748 -0.7536  0.4855
38328SOL    HW121845   6.545   3.991   2.686  0.9383 -0.5362  0.1501
38328SOL    HW221846   6.569   3.931   2.549 -1.8401 -1.2468 -0.0961
38329SOL     OW21847  12.168   3.655   7.915 -0.0306 -0.1874 -0.2124
38329SOL    HW121848  12.132   3.744   7.924 -0.9406 -0.5532 -0.1361
38329SOL    HW221849  12.141   3.611   7.996  1.7766 -0.0847  0.4861
38330SOL     OW21850  11.264   5.056   6.078 -0.3945 -0.3897 -0.5472
38330SOL    HW121851  11.293   5.134   6.030  0.3864 -0.8933 -0.9190
38330SOL    HW221852  11.325   4.987   6.051  0.4340 -0.5780  1.5875
38331SOL     OW21853   9.732   6.841   8.653  0.1078  0.2338  0.3749
38331SOL    HW121854   9.729   6.887   8.737 -0.3402  0.7849  0.0704
38331SOL    HW221855   9.786   6.764   8.669  4.0331  2.6148  0.0371
38332SOL     OW21856   5.089   5.609  10.340 -0.2144 -0.6940  0.4705
38332SOL    HW121857   5.109   5.695  10.376  0.6929  0.3486 -2.2510
38332SOL    HW221858   4.994   5.602  10.345 -0.4190  1.0260 -0.3491
38333SOL     OW21859   7.438   7.069   5.351 -0.1521  0.6470 -0.5239
38333SOL    HW121860   7.530   7.046   5.335 -0.0978  0.3317  0.2226
38333SOL    HW221861   7.442   7.156   5.392 -0.0933  0.0052  0.8652
38334SOL     OW21862  12.383   5.980  11.957  0.0451 -0.1950 -0.0561
38334SOL    HW121863  12.450   6.034  11.998  0.4077 -0.5753 -0.1392
38334SOL    HW221864  12.429   5.933  11.887 -0.3068 -0.4565 -0.1176
38335SOL     OW21865   7.814  12.285   6.535  0.0308  0.1205 -0.4436
38335SOL    HW121866   7.768  12.209   6.572 -1.4439  0.9438 -0.5049
38335SOL    HW221867   7.788  12.285   6.443 -0.0073  0.7253 -0.4314
38336SOL     OW21868   4.406   5.620  10.801  0.8141 -0.2491 -0.1497
38336SOL    HW121869   4.391   5.533  10.766  3.0705 -1.1892  1.0195
38336SOL    HW221870   4.456   5.665  10.733 -1.2714  0.6070 -1.2252
38337SOL     OW21871  10.367   8.493   0.777  0.6342  0.2366  0.4783
38337SOL    HW121872  10.372   8.573   0.725  1.6093  0.3272  0.6948
38337SOL    HW221873  10.305   8.514   0.847  1.4576  1.0760  0.9818
38338SOL     OW21874   3.640   1.256   6.522  0.4567  0.4557  0.4527
38338SOL    HW121875   3.574   1.322   6.540  0.6370  0.5754  0.6855
38338SOL    HW221876   3.674   1.278   6.435  1.0452  1.1244  0.8387
38339SOL     OW21877   5.766   3.267   7.669  0.0025  0.7758 -0.7780
38339SOL    HW121878   5.861   3.257   7.670  0.0217  0.9795 -0.2700
38339SOL    HW221879   5.748   3.333   7.736 -0.4415  1.2515 -1.3603
38340SOL     OW21880   3.429   2.383   3.937 -0.3610 -0.2937  0.1154
38340SOL    HW121881   3.477   2.420   3.863 -1.3874  1.6316  0.3373
38340SOL    HW221882   3.381   2.458   3.974 -0.0423 -1.2250  2.5973
38341SOL     OW21883  10.443   0.036   6.925  0.2806 -0.0904 -0.1812
38341SOL    HW121884  10.445   0.049   6.830  0.0132  0.7874 -0.0730
38341SOL    HW221885  10.482   0.116   6.961  0.0769 -0.2740  0.4607
38342SOL     OW21886   2.635   5.786   0.270 -0.2016  0.1001 -0.5359
38342SOL    HW121887   2.655   5.698   0.240 -0.4519  0.8574 -3.1236
38342SOL    HW221888   2.707   5.840   0.237  0.1557  0.8502  1.3395
38343SOL     OW21889   5.793   6.145   8.487 -0.4676 -0.8237  0.3464
38343SOL    HW121890   5.873   6.179   8.447 -0.9635 -0.0770 -0.0460
38343SOL    HW221891   5.800   6.170   8.580  0.0969 -1.4312  0.4685
38344SOL     OW21892   3.964   2.763  11.277  0.1294 -0.1867  0.4202
38344SOL    HW121893   3.982   2.671  11.299 -1.8542 -0.7898 -0.2567
38344SOL    HW221894   3.991   2.811  11.355  0.2664 -1.4673  1.2003
38345SOL     OW21895   7.990  10.011   4.821 -0.0072 -0.1495  0.1133
38345SOL    HW121896   8.050  10.080   4.847 -0.4795  0.3636 -0.1573
38345SOL    HW221897   7.969  10.031   4.730 -0.7367 -0.2251  0.2649
38346SOL     OW21898   6.390   4.561   3.883 -0.2352  0.3192 -0.4451
38346SOL    HW121899   6.304   4.550   3.842  0.1709  2.4248 -2.0405
38346SOL    HW221900   6.451   4.517   3.822 -0.1147 -1.1694  0.6788
38347SOL     OW21901   3.354  11.238   1.155 -0.1497  0.1706 -0.4069
38347SOL    HW121902   3.393  11.324   1.163 -0.9555  0.6796 -1.6220
38347SOL    HW221903   3.428  11.177   1.149  0.4806  1.0271 -1.9113
38348SOL     OW21904  10.623   8.891   7.558 -0.6710 -0.1765 -0.1508
38348SOL    HW121905  10.538   8.926   7.586 -0.8619 -0.5079 -0.3168
38348SOL    HW221906  10.678   8.969   7.547 -1.3045  0.1527 -1.2184
38349SOL     OW21907  10.316   6.116   2.990 -0.4619  0.2319 -0.0851
38349SOL    HW121908  10.273   6.101   3.074  1.1933 -0.8176  0.6217
38349SOL    HW221909  10.262   6.069   2.927 -1.5031  0.7082  0.4223
38350SOL     OW21910  11.190   3.145   7.006 -0.2389 -0.5709  0.2657
38350SOL    HW121911  11.134   3.152   6.929 -0.9959  1.5021  0.9497
38350SOL    HW221912  11.279   3.145   6.970 -0.5075  1.9450 -0.6136
38351SOL     OW21913   6.235   2.441   5.715 -0.2909 -0.1462  0.5278
38351SOL    HW121914   6.238   2.403   5.628  1.1293  0.9028  0.0773
38351SOL    HW221915   6.232   2.366   5.774  2.2749 -1.0342 -0.3205
38352SOL     OW21916  11.000  10.095   5.448  0.0131 -0.0697  0.4507
38352SOL    HW121917  10.916  10.061   5.480  0.3393 -1.0569  0.2898
38352SOL    HW221918  11.036  10.025   5.394  0.0668  1.0719 -1.0795
38353SOL     OW21919   2.758  11.011   3.958 -0.2564  0.4745 -0.3647
38353SOL    HW121920   2.702  10.944   3.999 -0.8187  0.4601 -1.1428
38353SOL    HW221921   2.841  10.966   3.943 -0.2680  0.2800  0.1210
38354SOL     OW21922   5.104   2.989  11.602 -0.5024  0.1152  0.6174
38354SOL    HW121923   5.120   2.896  11.588 -0.5578 -0.2512  2.6225
38354SOL    HW221924   5.022   2.991  11.653 -1.6933  1.4041 -1.2148
38355SOL     OW21925  11.832   2.123  11.561  0.2168 -0.0374 -0.1849
38355SOL    HW121926  11.877   2.070  11.495 -0.3137 -1.4640  0.5608
38355SOL    HW221927  11.759   2.163  11.514  0.7309  0.1936 -0.8023
38356SOL     OW21928  12.473   6.528   3.139 -0.1102  0.5447  0.2732
38356SOL    HW121929  12.501   6.487   3.220  1.1775  0.4755 -0.1812
38356SOL    HW221930  12.393   6.481   3.115  0.5673 -0.7698  0.4847
38357SOL     OW21931   3.648   3.221  12.413  0.0378  0.4402  0.3898
38357SOL    HW121932   3.603   3.289  12.364  1.7332  0.7097 -0.9020
38357SOL    HW221933   3.717   3.190  12.354  0.3580 -1.2487  1.5590
38358SOL     OW21934  11.605   0.738   8.421 -0.3238 -0.6818  0.4163
38358SOL    HW121935  11.624   0.736   8.515 -1.1278 -0.8028  0.5804
38358SOL    HW221936  11.556   0.819   8.408  0.7686 -0.0895 -0.0973
38359SOL     OW21937   0.876   4.542   8.277 -0.9226 -0.3186 -0.2245
38359SOL    HW121938   0.925   4.517   8.355 -0.4731 -1.7688 -0.9252
38359SOL    HW221939   0.799   4.485   8.277 -1.0607 -0.1389 -0.7007
38360SOL     OW21940   2.201   2.930   9.991  0.7339 -0.3310 -0.7132
38360SOL    HW121941   2.175   2.857  10.047  1.7075  1.3424  2.1241
38360SOL    HW221942   2.120   2.979   9.977  0.7083 -0.0387  0.4012
38361SOL     OW21943   7.869  10.331  11.662 -0.4347  0.4005 -0.4596
38361SOL    HW121944   7.848  10.362  11.750 -1.4849 -1.8332  0.1459
38361SOL    HW221945   7.962  10.308  11.667 -1.0201 -1.9588  0.8568
38362SOL     OW21946  10.686   8.812   3.878  0.5478  0.2520  0.7654
38362SOL    HW121947  10.621   8.853   3.821 -0.4562 -2.3573 -0.1626
38362SOL    HW221948  10.770   8.827   3.835 -0.1781 -1.6174 -1.5318
38363SOL     OW21949   8.535   2.416  11.662 -0.2390  0.5900  0.0631
38363SOL    HW121950   8.445   2.388  11.680 -0.6657  0.5977 -1.9100
38363SOL    HW221951   8.580   2.407  11.746 -1.5006 -1.5854  0.5643
38364SOL     OW21952   8.896  10.178   8.854  0.7039 -0.3188  0.2366
38364SOL    HW121953   8.853  10.169   8.768 -1.1199 -1.7211  1.2242
38364SOL    HW221954   8.929  10.090   8.873 -2.0276 -1.0080  2.4467
38365SOL     OW21955   2.827   5.402   9.968  0.0545 -0.2386  0.1107
38365SOL    HW121956   2.850   5.372  10.056  1.7261 -1.3706 -0.6380
38365SOL    HW221957   2.860   5.332   9.911  1.9506  1.9114 -1.6127
38366SOL     OW21958   8.089  12.027   6.634  0.2466 -0.5498  0.0380
38366SOL    HW121959   8.016  12.020   6.696  0.1245 -0.6342 -0.1157
38366SOL    HW221960   8.165  12.047   6.689 -0.1282  0.9007  0.0809
38367SOL     OW21961  10.759   3.518   8.524 -0.3823 -0.4008 -0.4557
38367SOL    HW121962  10.713   3.576   8.584 -0.7470 -0.1673 -0.9524
38367SOL    HW221963  10.850   3.549   8.526 -0.0866 -1.2668  1.0119
38368SOL     OW21964   0.660  10.387   7.139  0.2939  0.1973  0.5893
38368SOL    HW121965   0.598  10.316   7.155  0.1089  0.5166  1.3619
38368SOL    HW221966   0.746  10.347   7.153  0.2191 -0.0217  0.4252
38369SOL     OW21967   3.704   6.107  10.674 -0.4611 -0.1174 -0.2833
38369SOL    HW121968   3.626   6.155  10.646 -0.7730 -0.5774 -0.2186
38369SOL    HW221969   3.682   6.073  10.761 -0.8471 -1.6630 -0.9444
38370SOL     OW21970   8.709   5.518   9.194 -0.9370 -0.3978 -0.2220
38370SOL    HW121971   8.788   5.552   9.237  0.9542  0.1853 -3.8138
38370SOL    HW221972   8.638   5.550   9.249  1.1377  2.2885  1.1809
38371SOL     OW21973   5.612   5.067  12.442  0.1080 -0.4329 -0.1709
38371SOL    HW121974   5.677   5.003  12.471  0.5422  0.9542  2.2223
38371SOL    HW221975   5.534   5.047  12.492 -0.1333  0.1558 -0.3007
38372SOL     OW21976   8.435   7.363   5.125  0.3170 -0.4929  0.3841
38372SOL    HW121977   8.512   7.382   5.179  0.0141 -0.6395  0.8738
38372SOL    HW221978   8.444   7.421   5.049 -0.3147  1.2738  1.5936
38373SOL     OW21979   7.456   0.913   9.620 -0.2442 -0.0298  0.4211
38373SOL    HW121980   7.550   0.896   9.615 -0.2595  0.2057 -1.8670
38373SOL    HW221981   7.420   0.838   9.667  1.0128 -0.3981  0.8243
38374SOL     OW21982   7.500   5.288   2.151  0.0220  0.4631  0.0857
38374SOL    HW121983   7.594   5.291   2.173  0.1852  2.3850 -0.7074
38374SOL    HW221984   7.496   5.228   2.077  0.5097 -0.2083  0.5826
38375SOL     OW21985   5.766   8.004   0.059  0.2779  0.3877 -0.6019
38375SOL    HW121986   5.688   8.059   0.071  1.6687  2.1362  0.8605
38375SOL    HW221987   5.830   8.061   0.017  1.3809 -0.4324 -0.0946
38376SOL     OW21988   5.878  10.543   4.286  0.2540 -1.1999  0.2947
38376SOL    HW121989   5.947  10.498   4.335 -0.3264 -1.5168  0.8232
38376SOL    HW221990   5.812  10.475   4.270  0.1477 -0.9460 -0.3767
38377SOL     OW21991   9.733   6.621   4.293  0.5870 -0.4514  0.1791
38377SOL    HW121992   9.667   6.642   4.359  0.8237  0.6353  0.0927
38377SOL    HW221993   9.790   6.698   4.292  1.2542 -0.9453 -0.4785
38378SOL     OW21994   4.485   7.528   4.155 -0.2487  0.6724 -0.2714
38378SOL    HW121995   4.577   7.506   4.139 -0.5375 -0.7414 -0.1418
38378SOL    HW221996   4.458   7.467   4.224 -1.0361  1.7040  0.3594
38379SOL     OW21997   5.448   1.929   6.995 -0.0012 -0.3891 -0.3995
38379SOL    HW121998   5.451   2.022   6.972 -1.8775 -0.1461  0.1546
38379SOL    HW221999   5.392   1.925   7.073  0.7069 -1.9049  0.0697
38380SOL     OW22000   1.063   1.586   2.861 -0.6671  0.7209  0.5499
38380SOL    HW122001   1.004   1.638   2.916 -0.8975  0.3206  0.6852
38380SOL    HW222002   1.048   1.496   2.889 -0.2694  0.5817  0.3157
38381SOL     OW22003   6.743   8.002   3.263 -0.6186  0.4312  0.2058
38381SOL    HW122004   6.827   7.960   3.284 -0.3556  1.2444  0.8298
38381SOL    HW222005   6.691   7.992   3.343 -1.1237 -0.0490 -0.1699
38382SOL     OW22006   0.088   6.676   2.257  0.5759 -0.1464 -0.0259
38382SOL    HW122007   0.149   6.712   2.321  0.6301 -0.7591  0.2699
38382SOL    HW222008   0.016   6.641   2.310  1.2647 -1.9182 -0.1832
38383SOL     OW22009   9.665   8.104   9.713  0.4224  0.3766 -0.2397
38383SOL    HW122010   9.680   8.010   9.710 -1.5735  0.0430 -1.6057
38383SOL    HW222011   9.740   8.142   9.667 -0.1258 -0.7576 -2.1499
38384SOL     OW22012   8.987   8.235   0.174 -0.1826 -0.5273  0.3761
38384SOL    HW122013   9.067   8.267   0.214  0.3136 -3.7482  2.3228
38384SOL    HW222014   9.016   8.169   0.111 -1.2154  1.1181 -1.9642
38385SOL     OW22015   4.717   2.875   3.940  0.0128  0.6749  0.1511
38385SOL    HW122016   4.717   2.922   3.857  0.3345 -2.3148 -1.6913
38385SOL    HW222017   4.634   2.827   3.939  0.6809 -0.5170  0.8605
38386SOL     OW22018   2.278   9.803   0.060 -0.5074 -0.2775 -0.1786
38386SOL    HW122019   2.268   9.724   0.008  1.8750  0.0804 -1.2914
38386SOL    HW222020   2.229   9.785   0.140  0.4000 -3.1089 -0.1456
38387SOL     OW22021  12.219   9.036  10.826  0.3307  0.1989  0.3478
38387SOL    HW122022  12.129   9.044  10.794  0.1989  0.6106  0.7989
38387SOL    HW222023  12.215   9.067  10.917  1.1437  1.3060  0.0292
38388SOL     OW22024   4.096  11.125   8.683 -0.2189  0.4627 -0.2183
38388SOL    HW122025   4.127  11.037   8.660 -0.2383  0.3866  0.0513
38388SOL    HW222026   4.043  11.112   8.761 -1.1495  0.5498 -0.8118
38389SOL     OW22027  12.197   6.785   8.206 -0.1202  0.8882  0.4160
38389SOL    HW122028  12.199   6.776   8.301  0.9641 -0.1535  0.3201
38389SOL    HW222029  12.264   6.851   8.187  1.5071 -0.7368  0.2425
38390SOL     OW22030   6.636   3.552   2.591 -0.2891 -0.5652  0.0420
38390SOL    HW122031   6.557   3.602   2.613 -0.8204 -0.9236 -0.9923
38390SOL    HW222032   6.641   3.556   2.496  0.5683 -1.1278  0.0538
38391SOL     OW22033   8.532  10.651   8.871  0.2243 -0.2518 -0.2283
38391SOL    HW122034   8.587  10.600   8.931  1.3689 -0.8254 -1.6944
38391SOL    HW222035   8.443  10.626   8.893  0.6639 -1.2481  0.5193
38392SOL     OW22036   9.190  11.706   9.462 -0.0088 -0.1903 -0.0931
38392SOL    HW122037   9.137  11.647   9.516 -0.2682 -0.3215 -0.4850
38392SOL    HW222038   9.280  11.676   9.474 -0.2854 -1.7966 -1.6418
38393SOL     OW22039   1.317  11.032   7.818 -0.2283  0.2477 -0.0771
38393SOL    HW122040   1.345  10.982   7.741 -0.9452 -0.6502  0.2246
38393SOL    HW222041   1.317  11.123   7.789  0.4879  0.0155 -0.8356
38394SOL     OW22042   5.675   4.735  11.789  0.1596  0.4124  0.5745
38394SOL    HW122043   5.767   4.762  11.783  0.0663  0.5284 -0.5197
38394SOL    HW222044   5.649   4.758  11.879  1.1357  0.5573  0.8332
38395SOL     OW22045   1.187   6.318   8.523 -0.2176 -0.2490 -0.2700
38395SOL    HW122046   1.277   6.322   8.490  0.2935 -1.4487  0.8658
38395SOL    HW222047   1.196   6.333   8.617 -1.2552 -0.0642 -0.1906
38396SOL     OW22048  10.649  12.479   1.603 -0.4130 -0.1162 -0.7381
38396SOL    HW122049  10.596  12.516   1.673  1.0377  0.7878 -0.0590
38396SOL    HW222050  10.653  12.385   1.622  0.8808  0.2696  1.0797
38397SOL     OW22051   6.002  10.596   2.207  0.2050 -0.1498 -0.4831
38397SOL    HW122052   6.054  10.674   2.188  1.5204 -1.0512 -0.7202
38397SOL    HW222053   6.061  10.541   2.259 -1.4510 -0.0582  1.6213
38398SOL     OW22054   8.752   3.286   6.992  0.2042  0.2864  0.6563
38398SOL    HW122055   8.820   3.225   7.020  0.0499  0.0647  0.5600
38398SOL    HW222056   8.793   3.372   6.995  0.4986  0.1515  0.5630
38399SOL     OW22057  10.955   4.144   1.914  0.0670  0.1547  0.3269
38399SOL    HW122058  10.957   4.222   1.858 -0.5341  0.2093  0.3734
38399SOL    HW222059  10.968   4.071   1.854  2.4979  0.3591  0.4921
38400SOL     OW22060   9.754   6.680   4.726 -0.6877  0.1318  0.0779
38400SOL    HW122061   9.738   6.739   4.799 -0.1543  1.1816 -0.6361
38400SOL    HW222062   9.678   6.691   4.669 -1.7204 -1.5951  1.0026
38401SOL     OW22063   4.928   7.240   2.015 -0.1123 -0.5186  0.1970
38401SOL    HW122064   4.973   7.243   1.930 -0.4959 -0.3588 -0.0059
38401SOL    HW222065   4.855   7.180   2.000 -0.4673 -0.1111  0.2698
38402SOL     OW22066   5.194   5.526   5.604  0.4502  0.6164 -0.2253
38402SOL    HW122067   5.157   5.438   5.617  0.2741  0.3491 -2.1913
38402SOL    HW222068   5.202   5.562   5.692 -0.0793 -1.1283  0.5832
38403SOL     OW22069   2.500   5.537   8.852 -0.3797  0.5817 -0.4207
38403SOL    HW122070   2.562   5.551   8.781 -0.7761  0.6217 -0.7632
38403SOL    HW222071   2.553   5.536   8.932 -0.1228  2.1769 -0.5531
38404SOL     OW22072   9.778   0.089   3.322 -0.2922 -0.0930  0.2060
38404SOL    HW122073   9.743   0.141   3.249  0.3466  0.4305  0.2580
38404SOL    HW222074   9.872   0.085   3.305  0.0153  0.8546  1.4947
38405SOL     OW22075   1.654   4.566   4.678  0.1815  0.1045 -0.0875
38405SOL    HW122076   1.603   4.587   4.600 -0.1630  1.4302  0.4549
38405SOL    HW222077   1.636   4.474   4.695  0.4771 -0.2860 -1.7148
38406SOL     OW22078   2.770   6.108   5.883  0.3758 -0.1240  0.4207
38406SOL    HW122079   2.761   6.019   5.917  1.8022 -0.0711  1.0427
38406SOL    HW222080   2.864   6.117   5.865  0.5379  1.7187  1.8030
38407SOL     OW22081   4.516   1.580   9.072 -0.2663 -0.6811 -0.7575
38407SOL    HW122082   4.445   1.643   9.059  0.4276  0.0822 -1.0151
38407SOL    HW222083   4.480   1.513   9.130 -1.1116 -0.1852 -0.6959
38408SOL     OW22084   5.341   6.626  10.963  0.1229 -0.8240  0.0967
38408SOL    HW122085   5.254   6.664  10.968  1.0337  1.3310  1.1095
38408SOL    HW222086   5.400   6.702  10.955  1.8207 -2.2437 -2.4530
38409SOL     OW22087   1.977   5.648   6.844 -0.1769 -0.1004 -0.0849
38409SOL    HW122088   1.949   5.730   6.803 -4.4530 -0.2088  2.0485
38409SOL    HW222089   1.921   5.581   6.803  2.5734 -1.9490 -1.1215
38410SOL     OW22090   6.772  10.607   4.338  0.9793 -0.0533  0.2242
38410SOL    HW122091   6.731  10.522   4.321  1.8865 -0.9247  2.0897
38410SOL    HW222092   6.739  10.634   4.424  2.6671  0.1899  0.8508
38411SOL     OW22093   8.656   2.071   2.837 -0.4875  0.1099  0.6205
38411SOL    HW122094   8.657   2.106   2.926  3.4828  1.4763  0.2790
38411SOL    HW222095   8.717   1.997   2.839 -2.2096 -1.4435 -0.5321
38412SOL     OW22096   3.641  10.255   4.045  0.3780 -0.0337  1.0637
38412SOL    HW122097   3.572  10.267   3.981 -1.8434  0.0300  3.3120
38412SOL    HW222098   3.677  10.169   4.026  0.6521  0.4761 -0.9619
38413SOL     OW22099   0.078   3.250   1.211 -0.5488 -0.2020 -0.0505
38413SOL    HW122100   0.018   3.194   1.261 -0.9240 -0.4281 -0.7413
38413SOL    HW222101   0.032   3.334   1.205 -1.9664 -1.0669 -2.6772
38414SOL     OW22102   8.983   2.892   3.542  0.0488 -0.4311  0.1204
38414SOL    HW122103   9.057   2.837   3.567 -0.5006 -0.6368  1.3563
38414SOL    HW222104   9.019   2.953   3.478  1.2368 -0.6636  0.5500
38415SOL     OW22105   6.964   6.619   4.708  0.3911  0.1723  0.7492
38415SOL    HW122106   7.035   6.594   4.647 -0.3557 -0.9961  0.3159
38415SOL    HW222107   7.005   6.615   4.794  0.4816 -2.1283  0.6579
38416SOL     OW22108   7.234   8.287   9.679  0.3714  0.7283 -0.3253
38416SOL    HW122109   7.262   8.312   9.591  1.8501  1.0137  0.1933
38416SOL    HW222110   7.312   8.246   9.718 -1.3092 -3.0509 -0.4651
38417SOL     OW22111  11.793  11.999   9.770  0.7003 -0.1980  0.1602
38417SOL    HW122112  11.827  12.031   9.854  1.8771  0.8802 -0.6860
38417SOL    HW222113  11.795  11.904   9.777  2.8414 -0.1662  0.6029
38418SOL     OW22114   0.747  11.045  11.976  0.3079  0.0737  0.7559
38418SOL    HW122115   0.685  11.022  12.044  0.4728 -1.9865  0.2529
38418SOL    HW222116   0.761  11.139  11.988 -2.6295  0.5712  1.0679
38419SOL     OW22117   1.600  11.943   0.313  0.0158  0.3522 -0.1017
38419SOL    HW122118   1.626  12.026   0.354  0.2207  1.1837 -1.8012
38419SOL    HW222119   1.651  11.877   0.358 -1.0459  0.9587  2.1397
38420SOL     OW22120   5.074   4.952   4.360 -0.1963  0.2427  0.2924
38420SOL    HW122121   5.034   4.867   4.340 -0.7391  0.9036 -1.5940
38420SOL    HW222122   5.029   4.981   4.440 -0.3330 -1.0098  0.7021
38421SOL     OW22123   2.661   8.713  11.876  0.0650 -0.0451 -0.2958
38421SOL    HW122124   2.609   8.743  11.801 -1.5964 -0.7709  0.5015
38421SOL    HW222125   2.645   8.618  11.879 -0.0541 -0.0008  1.0645
38422SOL     OW22126   3.333   4.560   8.420  0.3456  0.0628  0.4122
38422SOL    HW122127   3.284   4.625   8.470 -1.4372 -0.7128 -0.2270
38422SOL    HW222128   3.393   4.611   8.366  0.1493  1.0718  1.1254
38423SOL     OW22129   0.574   8.000  10.160  0.3683 -0.5886  0.2522
38423SOL    HW122130   0.647   7.968  10.213 -1.2066 -1.7757  1.7991
38423SOL    HW222131   0.590   8.094  10.152 -0.1630  0.0366  4.3865
38424SOL     OW22132   6.752   7.519   3.649 -0.0777 -0.2464  0.0411
38424SOL    HW122133   6.831   7.518   3.704  0.3990  0.6557 -0.6129
38424SOL    HW222134   6.746   7.609   3.616  0.1841 -0.9778 -2.1537
38425SOL     OW22135   3.525  12.278   0.332 -0.3236 -0.3166  0.0156
38425SOL    HW122136   3.480  12.195   0.344  0.1823 -0.4565  1.1175
38425SOL    HW222137   3.488  12.315   0.252 -1.6950 -0.8662  0.3784
38426SOL     OW22138   5.586  10.082   2.539 -0.4271 -0.5675  0.1506
38426SOL    HW122139   5.564  10.117   2.625  2.0276  1.5781  0.0286
38426SOL    HW222140   5.506  10.092   2.488 -0.9995  1.1654  1.3129
38427SOL     OW22141  10.775   7.367   0.797 -0.1079 -0.2730  0.1663
38427SOL    HW122142  10.811   7.455   0.786 -1.3038  0.0547 -1.3917
38427SOL    HW222143  10.772   7.354   0.892  1.6215  0.6906  0.3981
38428SOL     OW22144  12.177   8.745   3.077  0.0743  0.3214  0.2058
38428SOL    HW122145  12.177   8.773   3.169 -1.2392 -1.1294  0.6849
38428SOL    HW222146  12.084   8.744   3.052  0.3056 -0.6382 -0.7005
38429SOL     OW22147   7.364   9.934   5.720  0.2203  0.1316 -0.4070
38429SOL    HW122148   7.388   9.848   5.752 -3.1626 -0.7502  0.1087
38429SOL    HW222149   7.349   9.987   5.798 -0.3475  0.3583 -0.6576
38430SOL     OW22150   4.231  12.357   7.434  0.0634  0.3669 -0.1275
38430SOL    HW122151   4.244  12.263   7.419  2.3118  0.6175 -0.0245
38430SOL    HW222152   4.245  12.368   7.528  1.4435  1.0154 -0.3874
38431SOL     OW22153  11.839   1.028   4.956 -0.0137  0.1898  0.1327
38431SOL    HW122154  11.812   1.040   5.047  0.8229  0.2531  0.3858
38431SOL    HW222155  11.821   1.113   4.915 -0.4095  0.1554  0.2295
38432SOL     OW22156   8.664  10.533   7.513  0.1877 -0.0138  0.2518
38432SOL    HW122157   8.751  10.519   7.475 -0.3205 -2.4268 -0.1341
38432SOL    HW222158   8.672  10.500   7.602 -0.4480 -0.7189  0.0549
38433SOL     OW22159   0.196   9.634   1.622 -0.1568 -0.2651  0.1417
38433SOL    HW122160   0.288   9.647   1.598 -0.6578  0.8292 -1.3609
38433SOL    HW222161   0.194   9.551   1.668  1.8000  0.3532  1.4604
38434SOL     OW22162  10.678   4.182   4.615 -0.1709  0.4512  0.1217
38434SOL    HW122163  10.758   4.160   4.663  1.0681  1.8060 -1.2153
38434SOL    HW222164  10.633   4.244   4.672 -0.8298 -1.0816  1.3387
38435SOL     OW22165   0.411   2.871   4.564  0.0818 -0.3702 -0.4103
38435SOL    HW122166   0.417   2.800   4.500 -1.4924 -2.4161  1.5419
38435SOL    HW222167   0.437   2.831   4.647  1.2215  1.9638  0.4448
38436SOL     OW22168   1.525   8.248   0.955  0.2497  0.0916  0.8150
38436SOL    HW122169   1.459   8.195   0.999 -1.1841  1.0105 -0.1545
38436SOL    HW222170   1.546   8.317   1.018 -1.1686  0.9118  0.4343
38437SOL     OW22171   4.459   3.337   2.448 -0.3546  0.1910 -0.1375
38437SOL    HW122172   4.495   3.398   2.513  1.4610 -0.5768 -0.3554
38437SOL    HW222173   4.508   3.355   2.368 -2.8115  1.3567 -1.4727
38438SOL     OW22174   2.174  10.585   2.406  0.1963  0.0162  0.7118
38438SOL    HW122175   2.114  10.652   2.441 -0.6604 -1.1803  1.6252
38438SOL    HW222176   2.116  10.520   2.367  0.9006 -1.1246  1.5187
38439SOL     OW22177  11.074   4.561   9.349 -0.7846  0.4083 -0.3691
38439SOL    HW122178  11.087   4.596   9.261 -2.3954  0.3841 -0.6459
38439SOL    HW222179  10.988   4.594   9.376 -0.9516 -0.7555  0.6248
38440SOL     OW22180   3.100   5.139   9.666 -0.1968 -0.0757  0.5025
38440SOL    HW122181   3.166   5.074   9.690 -1.1474 -0.5100  2.1040
38440SOL    HW222182   3.045   5.095   9.603  0.4523 -0.0439 -0.1004
38441SOL     OW22183   8.398   4.627   0.821  0.1636 -0.5462 -0.0068
38441SOL    HW122184   8.396   4.651   0.914  0.8283 -1.3894  0.2347
38441SOL    HW222185   8.485   4.590   0.808  0.5525  0.7454 -1.2854
38442SOL     OW22186   8.448   5.143   1.482  0.9572  0.1791 -0.2674
38442SOL    HW122187   8.515   5.188   1.533  0.5717 -0.6560  1.0075
38442SOL    HW222188   8.383   5.212   1.464  1.3691  0.6122 -0.1351
38443SOL     OW22189   6.183   7.725   7.392  0.2608 -0.5536 -0.0487
38443SOL    HW122190   6.242   7.751   7.321 -0.0116 -1.2400 -0.5443
38443SOL    HW222191   6.228   7.653   7.435  0.0393 -0.7027 -0.0664
38444SOL     OW22192   6.159   8.581   1.531  0.1162  0.0305  0.3131
38444SOL    HW122193   6.082   8.635   1.550  0.2696  0.6164 -0.6711
38444SOL    HW222194   6.122   8.495   1.511 -0.3663  0.4947 -0.9004
38445SOL     OW22195   8.537   1.021   4.262 -0.1113  0.0826  0.3277
38445SOL    HW122196   8.555   1.111   4.237  0.5320  0.3922  1.8422
38445SOL    HW222197   8.578   1.010   4.347 -1.1812 -1.2921  0.7134
38446SOL     OW22198   3.646   4.524   2.636 -0.4774  0.2105 -0.9516
38446SOL    HW122199   3.723   4.542   2.582 -0.2047 -0.8029 -0.9427
38446SOL    HW222200   3.678   4.459   2.700 -0.8906  1.0710  0.1647
38447SOL     OW22201   7.964   2.137   2.889  0.5131  0.3038 -0.2669
38447SOL    HW122202   8.051   2.128   2.927  0.7569  2.8049 -0.0621
38447SOL    HW222203   7.973   2.207   2.823 -1.1751  0.1466 -0.7227
38448SOL     OW22204   2.038   8.919   2.159 -0.2225 -0.0255 -0.2745
38448SOL    HW122205   2.019   8.955   2.245 -2.2182 -0.9651 -0.2679
38448SOL    HW222206   2.104   8.852   2.175 -3.3020 -2.9938  1.2786
38449SOL     OW22207  12.234  10.234   4.873  0.3123 -0.0742  0.0617
38449SOL    HW122208  12.328  10.249   4.864 -0.0029  1.4588 -1.0807
38449SOL    HW222209  12.196  10.274   4.795 -1.5105  1.9077  1.8417
38450SOL     OW22210  11.804   1.401   9.342 -0.1326  0.0680  0.1155
38450SOL    HW122211  11.753   1.331   9.300  1.1376  0.2593 -1.8989
38450SOL    HW222212  11.761   1.482   9.314 -0.6761  0.1544  1.1678
38451SOL     OW22213   8.251  10.630   9.177 -0.2247  0.1014 -1.0857
38451SOL    HW122214   8.297  10.566   9.124  0.2836 -0.9011  0.5172
38451SOL    HW222215   8.257  10.597   9.267 -1.9177  1.2209 -0.5070
38452SOL     OW22216   1.945   7.532   0.455  0.7448 -0.1786 -0.2224
38452SOL    HW122217   1.952   7.437   0.466 -1.0992 -0.5093 -1.3781
38452SOL    HW222218   1.852   7.550   0.467  0.5743  1.0594 -2.7643
38453SOL     OW22219   7.548   2.291   1.459  0.4224  0.0144 -0.0172
38453SOL    HW122220   7.504   2.258   1.380  1.4270  1.4140 -1.1936
38453SOL    HW222221   7.477   2.302   1.522 -0.2249 -2.4623 -0.1836
38454SOL     OW22222  11.360   6.232   4.499 -0.4705  0.1855  0.0679
38454SOL    HW122223  11.379   6.205   4.410  2.1658  0.9167  0.3047
38454SOL    HW222224  11.265   6.233   4.505 -0.6985 -0.7608 -2.4346
38455SOL     OW22225   2.161   6.373   4.551  0.6711  0.2879  0.0256
38455SOL    HW122226   2.205   6.308   4.606 -1.7437 -0.8488  0.7558
38455SOL    HW222227   2.146   6.327   4.469  0.2861  0.4351  0.0148
38456SOL     OW22228   6.416   1.170  10.775 -0.4407  0.3756 -0.4303
38456SOL    HW122229   6.335   1.204  10.813 -0.4665 -0.0252 -0.1199
38456SOL    HW222230   6.405   1.075  10.776  0.3246  0.2867  0.2709
38457SOL     OW22231  10.064   6.423   2.015  0.5652  0.5722 -0.2696
38457SOL    HW122232  10.004   6.352   2.036 -0.1366  1.2311  0.0057
38457SOL    HW222233  10.100   6.399   1.930  0.4581 -0.1893 -0.1061
38458SOL     OW22234   5.901   0.175   0.220  0.2384 -0.0908 -0.5346
38458SOL    HW122235   5.958   0.143   0.290  0.2168 -0.4029 -0.6556
38458SOL    HW222236   5.961   0.197   0.148  0.2803  0.4533 -0.3367
38459SOL     OW22237   0.341   8.343  10.550  0.0504  0.1445 -0.3267
38459SOL    HW122238   0.304   8.256  10.537  0.5975 -0.0286 -0.7543
38459SOL    HW222239   0.381   8.340  10.637  3.3803 -1.2760 -1.7405
38460SOL     OW22240   4.532   3.891   0.585 -0.4184  0.0399  0.3394
38460SOL    HW122241   4.607   3.948   0.567  0.2321 -0.7886  0.3328
38460SOL    HW222242   4.467   3.916   0.520  0.5572 -0.4595 -0.8862
38461SOL     OW22243   9.351   5.320   3.227 -0.4395  0.0418 -0.6186
38461SOL    HW122244   9.389   5.408   3.222  0.1670 -0.2733 -1.9652
38461SOL    HW222245   9.357   5.296   3.319  0.3500  0.9974 -0.4101
38462SOL     OW22246   0.613   5.018  10.303 -0.7825  0.0733  0.4146
38462SOL    HW122247   0.702   5.038  10.274 -1.4976  3.1854  0.0109
38462SOL    HW222248   0.624   4.963  10.380  1.4526 -0.1110  0.0251
38463SOL     OW22249   3.818   0.759   7.982  0.2887  0.2262  0.7587
38463SOL    HW122250   3.747   0.788   8.040 -0.3136 -2.3266  1.4203
38463SOL    HW222251   3.793   0.792   7.896 -1.7125 -0.5014  0.9919
38464SOL     OW22252   8.550   0.613   4.779 -0.2112 -0.7344 -0.1267
38464SOL    HW122253   8.619   0.577   4.835 -0.6718 -0.5739  0.5531
38464SOL    HW222254   8.501   0.537   4.748 -0.2554 -0.7906  0.0834
38465SOL     OW22255   6.953  10.140   7.825  0.1107  0.2492  0.3037
38465SOL    HW122256   7.042  10.108   7.810  0.1444  0.4354  0.1039
38465SOL    HW222257   6.902  10.061   7.842  0.3858  0.1771  0.7878
38466SOL     OW22258   9.430   4.809   1.120  0.7555 -0.1539  0.4456
38466SOL    HW122259   9.405   4.811   1.213 -0.0126 -0.0196  0.2376
38466SOL    HW222260   9.399   4.723   1.090  0.8608 -0.1291  0.2692
38467SOL     OW22261   0.651   0.290   1.560  0.7535 -0.3183 -0.1065
38467SOL    HW122262   0.645   0.361   1.497 -0.9374  1.7335  2.1823
38467SOL    HW222263   0.736   0.302   1.603  0.4047  0.4696  0.3864
38468SOL     OW22264   9.806   3.278   2.197 -0.8183 -0.2720 -0.0320
38468SOL    HW122265   9.734   3.266   2.259  1.5476 -1.5619  2.6973
38468SOL    HW222266   9.825   3.190   2.164  0.3925 -0.1915  0.3963
38469SOL     OW22267   2.808   7.609   9.267  0.0484  0.0263  0.3766
38469SOL    HW122268   2.828   7.698   9.238 -1.7522 -0.0428 -1.2767
38469SOL    HW222269   2.821   7.612   9.362 -1.5107  2.5577  0.6113
38470SOL     OW22270  11.424   8.258   9.519  0.9761 -0.2826  0.1656
38470SOL    HW122271  11.441   8.217   9.434 -0.2332 -1.9622  0.6771
38470SOL    HW222272  11.342   8.306   9.506  0.3810 -1.1639  0.5480
38471SOL     OW22273   6.985  11.562   3.463  0.3798  0.7664  0.2103
38471SOL    HW122274   7.075  11.575   3.435  0.2245  2.4185  0.3679
38471SOL    HW222275   6.991  11.546   3.557  0.5042  1.0331  0.2487
38472SOL     OW22276   5.097   5.634   1.346  0.1429 -0.1943 -0.2261
38472SOL    HW122277   5.040   5.596   1.414 -1.0023  1.3239 -0.2673
38472SOL    HW222278   5.173   5.666   1.394 -1.1601  1.8650  0.5824
38473SOL     OW22279   0.424   3.065   3.949  0.2743 -0.4050 -0.7082
38473SOL    HW122280   0.505   3.111   3.928 -0.1144 -0.0424 -1.4318
38473SOL    HW222281   0.393   3.032   3.865 -1.3355  1.1200 -0.7495
38474SOL     OW22282   4.006   1.808  11.538 -0.0587  1.1667 -0.7231
38474SOL    HW122283   3.992   1.841  11.449 -0.0751 -1.4316 -1.7924
38474SOL    HW222284   4.013   1.713  11.527 -1.5154  0.5952  2.2623
38475SOL     OW22285   9.928   1.770   9.699 -0.1150  0.1559  0.0530
38475SOL    HW122286   9.943   1.741   9.609  0.1964 -0.3623  0.2662
38475SOL    HW222287  10.016   1.786   9.733 -0.2358  0.3981  0.2533
38476SOL     OW22288   0.785   1.568  12.096  0.4322 -0.1251 -0.2345
38476SOL    HW122289   0.859   1.569  12.157 -0.7059  0.9708  1.2028
38476SOL    HW222290   0.720   1.513  12.139 -0.2444  0.3411 -0.6578
38477SOL     OW22291   0.018   2.220  10.263  0.0522  0.3150 -0.1520
38477SOL    HW122292   0.075   2.200  10.337 -0.3201 -0.2548 -0.0222
38477SOL    HW222293  -0.071   2.218  10.299 -0.0367  1.6587 -0.2487
38478SOL     OW22294   7.551   6.116   2.085  0.7706 -0.0846  0.7383
38478SOL    HW122295   7.544   6.159   2.171  2.0047 -0.4146  1.0318
38478SOL    HW222296   7.535   6.024   2.104 -0.2020  0.0133  0.3961
38479SOL     OW22297   6.902  11.759   9.656 -0.0097  0.0278 -0.5063
38479SOL    HW122298   6.933  11.744   9.567  0.7540 -1.0235 -0.0879
38479SOL    HW222299   6.888  11.671   9.692 -0.0650  0.4229  0.4791
38480SOL     OW22300  10.320   5.938   2.198  0.1054  0.0483  0.1177
38480SOL    HW122301  10.384   6.008   2.215  0.0706  0.2576 -0.6058
38480SOL    HW222302  10.294   5.951   2.107 -0.2104 -0.6641  0.1044
38481SOL     OW22303   5.401   7.984  11.774  0.3589 -0.5132  0.0573
38481SOL    HW122304   5.485   7.941  11.794  1.2685  0.7847 -0.8705
38481SOL    HW222305   5.348   7.915  11.734  2.5158 -0.4201 -3.3578
38482SOL     OW22306   9.330   7.745   2.149 -0.2925  0.3503  0.6718
38482SOL    HW122307   9.236   7.740   2.132 -0.0864  0.9052 -0.7825
38482SOL    HW222308   9.358   7.653   2.157 -0.4191 -0.0747 -2.3686
38483SOL     OW22309   9.963   3.485  10.226 -0.3087 -0.5096  0.3604
38483SOL    HW122310   9.980   3.482  10.320 -0.4106 -1.5369  0.3555
38483SOL    HW222311  10.046   3.462  10.186  0.2239  1.5866  0.1168
38484SOL     OW22312   8.028   3.570   4.781  0.4690 -0.2105 -0.0344
38484SOL    HW122313   8.064   3.546   4.866  0.1124 -1.8667 -0.3093
38484SOL    HW222314   8.056   3.500   4.722 -0.9074 -0.1317 -0.8504
38485SOL     OW22315   6.828   4.521   0.000  0.0093 -0.3477  0.4099
38485SOL    HW122316   6.777   4.585   0.049 -0.0264  0.5061 -0.6995
38485SOL    HW222317   6.919   4.551   0.010  0.0952 -0.6891  0.6856
38486SOL     OW22318   7.788  11.485  12.077  0.5026  0.7050 -0.6149
38486SOL    HW122319   7.797  11.411  12.017  0.8778  0.3572 -0.1351
38486SOL    HW222320   7.821  11.560  12.027 -1.3207  0.8685 -1.6771
38487SOL     OW22321   7.054   1.532  12.402 -0.2843 -0.3646 -0.5143
38487SOL    HW122322   7.094   1.488  12.477 -1.3475 -0.1976  0.1729
38487SOL    HW222323   7.116   1.601  12.379 -0.5076  0.3970  1.0292
38488SOL     OW22324   2.625  10.677   5.922  0.4118 -0.2743  0.2206
38488SOL    HW122325   2.589  10.765   5.933  1.1697  0.1971 -0.8954
38488SOL    HW222326   2.644  10.648   6.011 -2.2564 -0.3911  0.8437
38489SOL     OW22327   0.141   1.467   4.706  0.4002 -0.3527 -0.0507
38489SOL    HW122328   0.204   1.440   4.639  0.6056  1.4554 -0.6385
38489SOL    HW222329   0.195   1.497   4.779  0.1767 -1.6584  0.6783
38490SOL     OW22330  11.994   1.919   4.681 -0.2054  0.3547  0.0601
38490SOL    HW122331  12.027   2.000   4.642 -0.1949 -0.3084 -1.3322
38490SOL    HW222332  12.020   1.926   4.773 -0.5798  2.1252  0.0750
38491SOL     OW22333  10.967   6.505   3.352 -0.3743 -0.3026 -0.3280
38491SOL    HW122334  10.908   6.446   3.398  0.5526 -0.1860  1.0750
38491SOL    HW222335  11.053   6.489   3.392  0.2417  0.6834 -1.1949
38492SOL     OW22336  12.394   8.008   9.270 -0.0529  0.0143  0.6593
38492SOL    HW122337  12.368   7.917   9.274  0.9568 -0.2803  0.9002
38492SOL    HW222338  12.486   8.006   9.243  0.2248  0.9138  1.4507
38493SOL     OW22339   7.267  11.030   9.183 -0.4184 -0.3972  0.1681
38493SOL    HW122340   7.306  10.967   9.244 -0.8576  0.6563  1.5848
38493SOL    HW222341   7.248  10.978   9.105  4.1612 -0.9349 -0.8741
38494SOL     OW22342   5.573  10.233   7.183  0.1172  0.1777  0.6120
38494SOL    HW122343   5.520  10.242   7.262  0.2794 -1.2899  0.9197
38494SOL    HW222344   5.653  10.190   7.213  1.1853  1.6559  0.0178
38495SOL     OW22345   6.447  12.054   2.993  0.3995  0.3842 -0.2497
38495SOL    HW122346   6.433  11.984   3.057  2.3578 -0.3431 -0.5599
38495SOL    HW222347   6.452  12.008   2.909 -0.1165  1.1189 -0.6885
38496SOL     OW22348   4.229   3.331   5.240 -0.5780  0.4002 -0.1001
38496SOL    HW122349   4.179   3.250   5.226 -0.7254  0.1648  1.4828
38496SOL    HW222350   4.275   3.315   5.323  0.4263  1.4518 -0.4327
38497SOL     OW22351   5.395  11.958   2.172  0.8952 -0.7211 -0.0758
38497SOL    HW122352   5.478  11.930   2.135 -0.2239 -3.0347 -1.0224
38497SOL    HW222353   5.375  11.893   2.239  0.9698  1.1945  1.9414
38498SOL     OW22354  10.749   7.299   2.046  0.6774 -0.2556  0.2248
38498SOL    HW122355  10.815   7.249   1.999  0.9189  0.5683 -0.3364
38498SOL    HW222356  10.794   7.380   2.072 -0.1379  0.3934 -0.3162
38499SOL     OW22357   6.524   2.165   7.443 -0.5801  0.1028  0.1844
38499SOL    HW122358   6.617   2.186   7.451 -0.4750 -0.4556  0.4799
38499SOL    HW222359   6.500   2.129   7.529 -1.5560  2.0703  0.8083
38500SOL     OW22360   2.241   4.405   7.620 -0.0257  0.1187 -0.0703
38500SOL    HW122361   2.201   4.350   7.553 -0.9711 -0.0036  0.5864
38500SOL    HW222362   2.335   4.387   7.612 -0.2026 -0.5600 -0.7611
38501SOL     OW22363   9.318  11.290   4.023 -0.0817 -0.4582  0.5453
38501SOL    HW122364   9.406  11.280   4.058 -0.5433  0.0913  1.9266
38501SOL    HW222365   9.260  11.270   4.097 -1.1296 -1.2931 -0.4601
38502SOL     OW22366   8.148   9.086   9.922 -0.1547  0.1125 -0.0458
38502SOL    HW122367   8.146   9.074   9.827  0.9513  0.6546 -0.1491
38502SOL    HW222368   8.064   9.126   9.943 -0.0519  0.8123 -0.9126
38503SOL     OW22369   1.367  11.364   2.578  0.1908  0.0400 -0.1113
38503SOL    HW122370   1.430  11.429   2.546 -1.6230  1.2762 -1.4228
38503SOL    HW222371   1.308  11.414   2.635  0.8397 -1.2623  1.7734
38504SOL     OW22372   9.376   3.044   4.037 -0.4771 -0.0258  0.1176
38504SOL    HW122373   9.371   2.979   3.968  0.2999  0.2039 -0.1707
38504SOL    HW222374   9.442   3.010   4.098  0.8290  1.0143 -0.6456
38505SOL     OW22375   4.227  10.100   2.186 -0.6692  0.0456  0.0007
38505SOL    HW122376   4.269  10.175   2.143  0.9017 -0.8917 -0.1920
38505SOL    HW222377   4.225  10.124   2.279 -0.8233  0.6154 -0.1476
38506SOL     OW22378   7.731   8.055  10.080 -0.0950  0.7063 -0.2581
38506SOL    HW122379   7.792   8.067  10.153  0.4265  0.7835 -0.6987
38506SOL    HW222380   7.675   8.132  10.083  0.1603  0.8903 -0.1594
38507SOL     OW22381   6.937  10.433   4.738  0.0301 -0.0526 -0.1943
38507SOL    HW122382   6.985  10.439   4.655 -0.4495  0.1554 -0.4646
38507SOL    HW222383   6.975  10.358   4.783  0.5693  0.0774 -0.4266
38508SOL     OW22384   6.320   5.858   7.988 -0.1658  0.1203  0.0474
38508SOL    HW122385   6.329   5.948   7.959 -1.8359 -0.1644 -1.5099
38508SOL    HW222386   6.271   5.814   7.919 -0.1586 -1.7866  1.1588
38509SOL     OW22387   7.413   3.852   7.164 -0.3369 -0.6111  0.0954
38509SOL    HW122388   7.433   3.943   7.185 -0.8444 -0.0777 -1.5685
38509SOL    HW222389   7.499   3.810   7.157  0.0471  0.3902 -1.7086
38510SOL     OW22390   4.217   8.840   0.993  0.0619  0.1314 -0.5018
38510SOL    HW122391   4.266   8.805   0.919 -0.9923 -0.2318 -1.0503
38510SOL    HW222392   4.125   8.826   0.970 -0.2875  0.0897  0.8405
38511SOL     OW22393   9.690   3.145   1.242  0.0979 -0.4882 -0.4169
38511SOL    HW122394   9.678   3.235   1.211 -0.9604 -0.0933  1.0044
38511SOL    HW222395   9.622   3.095   1.197 -1.4077  0.0740  1.1033
38512SOL     OW22396   4.933   1.580   3.206  0.0152 -0.6910 -0.8486
38512SOL    HW122397   4.992   1.510   3.233  2.2877  1.8240  1.1829
38512SOL    HW222398   4.853   1.565   3.256  1.1686 -0.8343  1.0559
38513SOL     OW22399   0.714   9.653   0.073  0.0322  0.0171 -0.1890
38513SOL    HW122400   0.630   9.615   0.098 -0.1916  1.2501  1.0067
38513SOL    HW222401   0.773   9.578   0.066 -0.5150 -0.6356  1.6265
38514SOL     OW22402   9.865   8.481   0.615  0.5261 -0.8938 -0.1856
38514SOL    HW122403   9.793   8.422   0.636 -0.1252 -0.2143 -0.4698
38514SOL    HW222404   9.858   8.496   0.521  0.1524  0.3034  0.0114
38515SOL     OW22405   7.380  12.444   0.174  0.4834 -0.0853 -0.0583
38515SOL    HW122406   7.462  12.466   0.218  0.0236 -0.2690  0.9264
38515SOL    HW222407   7.357  12.358   0.208 -0.1777  0.0152 -0.2278
38516SOL     OW22408   8.375   5.722  10.187 -0.1285 -0.8905 -0.6443
38516SOL    HW122409   8.373   5.756  10.276 -0.8413 -0.7974 -0.6898
38516SOL    HW222410   8.433   5.783  10.140  0.3513 -1.0143 -0.2255
38517SOL     OW22411   3.361   1.094   2.364  0.0293 -0.1030  0.5922
38517SOL    HW122412   3.285   1.055   2.322  1.0156 -0.0711 -1.3196
38517SOL    HW222413   3.380   1.036   2.438 -1.2945 -0.6017  0.5639
38518SOL     OW22414   7.829   9.427   6.467  0.9050  0.3466  0.4667
38518SOL    HW122415   7.920   9.411   6.492  0.8814 -0.0630  0.2880
38518SOL    HW222416   7.778   9.404   6.545  0.8883 -0.2477  0.2829
38519SOL     OW22417   7.438   6.491  10.036 -0.0895  0.1330 -0.2000
38519SOL    HW122418   7.517   6.507   9.985 -0.3906 -0.1161 -0.7486
38519SOL    HW222419   7.370   6.542   9.993 -0.8129 -1.7096 -1.3286
38520SOL     OW22420   8.637  11.224   8.936  0.0564 -0.6889 -0.5202
38520SOL    HW122421   8.566  11.160   8.932 -0.4449 -0.4442  2.3171
38520SOL    HW222422   8.592  11.308   8.950  0.8713 -0.5338  1.3561
38521SOL     OW22423   9.974  12.393   0.285  0.2195 -0.2342 -0.0981
38521SOL    HW122424   9.935  12.318   0.329 -0.0733 -0.7302 -1.1863
38521SOL    HW222425   9.948  12.468   0.339  1.1903 -0.9687  1.4529
38522SOL     OW22426   5.986   9.827   0.688  0.1080  0.1561 -0.2024
38522SOL    HW122427   5.941   9.745   0.667  0.0939  0.2173 -0.4163
38522SOL    HW222428   5.928   9.896   0.655  0.4652  0.2278 -0.6771
38523SOL     OW22429  10.467   5.158   9.236 -0.0761  0.3974 -0.0637
38523SOL    HW122430  10.499   5.203   9.314 -1.6057  0.6985  0.4018
38523SOL    HW222431  10.436   5.228   9.178 -0.0820  0.0964 -0.4335
38524SOL     OW22432  11.299   1.200   8.944  0.2526 -0.1772  0.3571
38524SOL    HW122433  11.262   1.115   8.918 -1.1664  0.5485 -0.1078
38524SOL    HW222434  11.225   1.260   8.939  0.9583  0.8587  1.8728
38525SOL     OW22435   3.597   7.894   4.186 -0.1493 -0.0869  0.2030
38525SOL    HW122436   3.591   7.822   4.249 -0.2737  0.1403  0.4538
38525SOL    HW222437   3.513   7.941   4.195  1.0968  1.9553  2.3190
38526SOL     OW22438   4.970   0.633   9.389 -0.0599  0.0962 -0.0365
38526SOL    HW122439   4.999   0.647   9.479  0.7477  0.2866 -0.3252
38526SOL    HW222440   4.888   0.682   9.383  0.6530  1.3571  0.1513
38527SOL     OW22441  10.046   5.984  12.243 -0.1962 -0.2521 -0.1878
38527SOL    HW122442  10.128   6.019  12.210  0.1353 -1.6018 -0.8592
38527SOL    HW222443  10.014   6.051  12.304 -0.4394  1.9776 -2.6016
38528SOL     OW22444   2.252   1.229   2.836  0.2539 -0.2928 -0.4644
38528SOL    HW122445   2.232   1.316   2.869  0.3563 -0.3999 -0.1087
38528SOL    HW222446   2.171   1.179   2.850  1.1597 -1.1362  2.3658
38529SOL     OW22447  11.214  10.054   5.897  0.0980 -0.1729 -0.1546
38529SOL    HW122448  11.181   9.966   5.880  0.4359 -0.3144 -0.1053
38529SOL    HW222449  11.258  10.080   5.816 -0.6800  0.2722 -0.4409
38530SOL     OW22450   4.535   2.469   4.866  0.2712  0.1283 -0.0675
38530SOL    HW122451   4.484   2.479   4.786  0.3270  0.0400 -0.1131
38530SOL    HW222452   4.509   2.544   4.920 -0.8359 -0.5729  0.4118
38531SOL     OW22453   2.457   5.115   5.104 -0.1933 -0.1400  0.3379
38531SOL    HW122454   2.521   5.184   5.118  0.1838 -0.5699  0.7402
38531SOL    HW222455   2.382   5.160   5.065 -0.7576  0.8835  2.4565
38532SOL     OW22456   9.042  11.808   6.482  0.1307 -0.2748 -0.1187
38532SOL    HW122457   9.032  11.726   6.531  3.6208 -1.0745 -0.5097
38532SOL    HW222458   8.991  11.872   6.532 -1.1010 -2.2410  1.2839
38533SOL     OW22459  11.765   3.973  10.443 -0.4552  0.4924  0.0885
38533SOL    HW122460  11.717   3.900  10.404  0.1414  0.8159 -1.3119
38533SOL    HW222461  11.788   4.029  10.369  1.4345  0.7257  0.7964
38534SOL     OW22462   1.906  10.936   9.013 -0.3294 -0.3160  0.7437
38534SOL    HW122463   1.950  10.851   9.006  2.0569  0.9610 -0.8831
38534SOL    HW222464   1.892  10.964   8.923 -1.1893  0.9931  1.2463
38535SOL     OW22465   3.053  11.172  10.481 -0.1822  0.0076  0.1088
38535SOL    HW122466   3.126  11.232  10.475  1.1122 -1.6154 -1.5231
38535SOL    HW222467   2.991  11.214  10.541  1.3636  2.1463  0.2823
38536SOL     OW22468   2.552   8.660   0.308 -0.1870  0.3263 -0.0239
38536SOL    HW122469   2.489   8.702   0.366 -1.0518 -1.1986  0.1697
38536SOL    HW222470   2.624   8.633   0.365 -1.2001 -1.4963  0.4545
38537SOL     OW22471   1.980   5.868   0.312  0.3466  0.4404 -0.3853
38537SOL    HW122472   1.904   5.858   0.370  1.1704  2.5509  1.1683
38537SOL    HW222473   2.055   5.849   0.368  1.0504 -1.6985 -1.9275
38538SOL     OW22474   3.620   9.227   5.561  0.0093  0.0373  0.3805
38538SOL    HW122475   3.588   9.292   5.623  0.2620  0.8429 -0.3130
38538SOL    HW222476   3.667   9.163   5.615 -2.1440 -0.8252  1.3443
38539SOL     OW22477  10.562  12.352   8.905 -0.0209  0.1774  0.0511
38539SOL    HW122478  10.488  12.320   8.957  0.3468  0.0468  0.4979
38539SOL    HW222479  10.598  12.274   8.864  1.0812 -0.0573  1.4055
38540SOL     OW22480   8.763   1.593   6.695 -0.3965 -0.3791  0.1470
38540SOL    HW122481   8.716   1.545   6.763 -1.4041  0.9056  0.3906
38540SOL    HW222482   8.713   1.577   6.616 -2.3256  2.3025  0.6928
38541SOL     OW22483   3.916   8.118   1.674  0.1544 -0.3705  0.1794
38541SOL    HW122484   3.841   8.127   1.615  1.7555  2.5110 -1.6432
38541SOL    HW222485   3.935   8.208   1.702  0.6557 -1.4210  3.7113
38542SOL     OW22486   4.734   8.883  12.283  0.6760  0.0303 -0.2698
38542SOL    HW122487   4.705   8.972  12.301  0.8913  0.1817 -0.6555
38542SOL    HW222488   4.796   8.863  12.353  0.9131  0.3272 -0.3922
38543SOL     OW22489   2.990   3.353   7.504  0.4334 -0.9676 -0.0943
38543SOL    HW122490   2.996   3.390   7.416  2.1887 -0.5464  0.1736
38543SOL    HW222491   2.952   3.266   7.491 -0.3500 -0.4959 -1.1261
38544SOL     OW22492   5.673   7.668   3.447  0.0620  0.0768  0.2881
38544SOL    HW122493   5.760   7.679   3.409  0.2109 -1.5264  0.0990
38544SOL    HW222494   5.689   7.655   3.540  0.1685 -1.5919  0.0643
38545SOL     OW22495   9.596   1.649   7.601 -0.2762 -0.1686  0.0163
38545SOL    HW122496   9.593   1.708   7.677  1.1120 -0.0004 -0.0288
38545SOL    HW222497   9.506   1.643   7.571 -0.4561  1.9139  0.0468
38546SOL     OW22498   4.716   4.826   8.067 -0.0292 -0.2126  0.1580
38546SOL    HW122499   4.627   4.793   8.081 -0.8400  1.4192 -0.7964
38546SOL    HW222500   4.754   4.829   8.154 -0.7189 -1.4088  0.5254
38547SOL     OW22501   1.656  10.413  11.719  0.2522  0.3041  0.4223
38547SOL    HW122502   1.729  10.469  11.745  1.0493 -0.4532 -0.1402
38547SOL    HW222503   1.611  10.393  11.802  0.4511  1.0808  0.7224
38548SOL     OW22504   7.555   9.373   3.223  0.0327  0.6087 -0.0372
38548SOL    HW122505   7.584   9.460   3.253  2.1127  0.1423 -0.4888
38548SOL    HW222506   7.636   9.331   3.195 -0.5467 -2.3309  2.2391
38549SOL     OW22507   2.821  10.030   9.299  0.1266  1.0534 -0.0729
38549SOL    HW122508   2.856  10.112   9.334  1.0016  0.0235  1.6401
38549SOL    HW222509   2.737  10.018   9.343  0.2012  0.8217  0.0085
38550SOL     OW22510   4.414   1.409  10.783  0.1139 -0.0046  0.2053
38550SOL    HW122511   4.501   1.369  10.780 -0.1126 -0.4479 -1.2824
38550SOL    HW222512   4.391   1.424  10.691 -0.6250  1.8102  0.6439
38551SOL     OW22513   1.359  10.139   4.744 -0.1093 -0.2759 -0.0207
38551SOL    HW122514   1.443  10.117   4.705  0.7218 -0.3261  1.7071
38551SOL    HW222515   1.367  10.231   4.769 -0.0529 -0.6268  1.3307
38552SOL     OW22516   0.414  11.962   3.349  0.6062 -0.0993  0.7255
38552SOL    HW122517   0.499  12.005   3.357 -0.2682  1.7537  0.5160
38552SOL    HW222518   0.408  11.938   3.256  0.6601  0.3229  0.6092
38553SOL     OW22519   3.763  12.044  10.611 -0.0324  0.3744 -0.0576
38553SOL    HW122520   3.822  12.119  10.620  2.3283 -1.0510 -2.1524
38553SOL    HW222521   3.801  11.993  10.540 -2.8140 -1.6778 -0.2293
38554SOL     OW22522   4.286  10.049   7.291 -0.4922  0.8618 -0.0895
38554SOL    HW122523   4.343   9.972   7.296 -0.6986  0.7663  1.0663
38554SOL    HW222524   4.333  10.110   7.234 -0.1020  0.0767 -0.6327
38555SOL     OW22525   1.696   8.703   5.799 -0.3347  0.5215  0.0191
38555SOL    HW122526   1.708   8.621   5.847  0.1232  1.1924  1.1142
38555SOL    HW222527   1.629   8.751   5.849  1.8321  2.2550  1.5092
38556SOL     OW22528   7.621   1.130   2.571  0.5541  0.1098 -0.1198
38556SOL    HW122529   7.636   1.045   2.529  3.1940  0.6686 -0.4789
38556SOL    HW222530   7.706   1.174   2.568 -0.4682  2.3489  1.0443
38557SOL     OW22531   6.221   8.529   2.191  0.0939  0.4314  0.7537
38557SOL    HW122532   6.261   8.597   2.136 -0.2963  1.1568  1.3481
38557SOL    HW222533   6.189   8.464   2.129  0.7455  0.6367  0.1847
38558SOL     OW22534   8.451   3.485   9.956 -0.4075  0.0814  0.0874
38558SOL    HW122535   8.493   3.465  10.039  0.3767  0.1105 -0.2886
38558SOL    HW222536   8.366   3.523   9.980 -0.8697 -1.3698  0.8426
38559SOL     OW22537   5.687   2.655   1.052  0.5686 -0.3111  0.3247
38559SOL    HW122538   5.621   2.663   0.983 -0.9713 -0.4054  1.7182
38559SOL    HW222539   5.665   2.574   1.097  2.3047 -0.8937  0.2116
38560SOL     OW22540   6.536   0.231   4.146  0.5441  0.1944  0.0647
38560SOL    HW122541   6.610   0.189   4.103  0.4386 -0.7346  0.7723
38560SOL    HW222542   6.516   0.306   4.090  1.2909 -0.1875 -0.7438
38561SOL     OW22543   3.092   3.508   4.360  0.1701 -0.0516 -0.0318
38561SOL    HW122544   3.079   3.582   4.301 -0.0829 -1.1810 -1.4609
38561SOL    HW222545   3.018   3.450   4.342  0.7201 -0.9540  0.5485
38562SOL     OW22546   7.268   9.070   1.227 -0.1447  0.5970 -0.4136
38562SOL    HW122547   7.264   9.039   1.136  2.2176 -0.2417 -0.3064
38562SOL    HW222548   7.246   8.993   1.279 -0.2321  0.7340 -0.2479
38563SOL     OW22549   0.308  12.189   8.063  0.2072 -0.2217  0.0978
38563SOL    HW122550   0.221  12.228   8.078  1.2045  2.0872  0.3375
38563SOL    HW222551   0.363  12.225   8.132  2.3970  2.1626 -2.5783
38564SOL     OW22552   0.686   6.439  12.279  0.3958 -0.2866 -0.2524
38564SOL    HW122553   0.735   6.467  12.202 -0.0615 -1.7627 -1.1224
38564SOL    HW222554   0.668   6.520  12.327  0.9984  0.6207 -1.5067
38565SOL     OW22555  10.534  12.473   7.988  0.0703  0.3611 -0.0153
38565SOL    HW122556  10.447  12.485   8.027 -0.2709  1.5044 -1.0564
38565SOL    HW222557  10.516  12.444   7.899  0.8015 -0.6872  0.1671
38566SOL     OW22558   1.701   3.712   1.022  0.0504  0.0065 -0.6547
38566SOL    HW122559   1.638   3.660   0.971  1.7108 -2.2994 -0.5190
38566SOL    HW222560   1.713   3.792   0.971  0.3160 -1.4264 -2.9930
38567SOL     OW22561   5.680   4.901   3.401  0.7511  0.0167 -0.0229
38567SOL    HW122562   5.755   4.843   3.411  0.7568 -0.1610 -0.9828
38567SOL    HW222563   5.605   4.842   3.396  0.8375 -0.0181 -1.8983
38568SOL     OW22564   3.943   6.184  10.964  0.0829  0.1415 -0.1945
38568SOL    HW122565   3.904   6.174  11.051 -0.8728  0.1095 -0.6207
38568SOL    HW222566   3.875   6.225  10.911 -0.7874 -3.1749 -1.9375
38569SOL     OW22567  11.150   4.608   0.381  0.1864 -0.1860  0.1843
38569SOL    HW122568  11.111   4.578   0.462 -0.8459  1.4618  0.3384
38569SOL    HW222569  11.242   4.626   0.403  0.4270 -1.6641  0.4495
38570SOL     OW22570   6.863   9.436   7.796  0.0594 -0.8206  0.3181
38570SOL    HW122571   6.777   9.403   7.770  0.7596 -2.0109 -0.6222
38570SOL    HW222572   6.886   9.500   7.729 -0.6454  0.5002  1.3063
38571SOL     OW22573   5.368   1.729   0.474  0.3608  0.3469 -0.2953
38571SOL    HW122574   5.329   1.800   0.526 -1.2639  0.0884 -1.1146
38571SOL    HW222575   5.325   1.650   0.505  2.2781 -0.3569  0.7214
38572SOL     OW22576   9.176   0.834  10.727 -0.0701  0.4195 -0.6736
38572SOL    HW122577   9.151   0.748  10.761 -0.3593  0.4098 -0.9117
38572SOL    HW222578   9.266   0.822  10.696 -0.3401  0.0272 -1.3195
38573SOL     OW22579   8.136   2.269   0.351  0.3524  0.1767 -0.4493
38573SOL    HW122580   8.078   2.242   0.280  0.1768 -0.2369 -0.1502
38573SOL    HW222581   8.152   2.362   0.335  0.7051 -0.0301 -1.3031
38574SOL     OW22582   2.831   8.896  11.748 -0.4832 -0.2960 -0.0090
38574SOL    HW122583   2.927   8.897  11.752 -0.5153 -0.8453  1.7064
38574SOL    HW222584   2.805   8.826  11.809 -1.9876  0.1329 -0.1173
38575SOL     OW22585  11.276  11.655   0.126 -0.0344  0.3787  0.3865
38575SOL    HW122586  11.281  11.587   0.059 -0.4748  1.2896 -0.6007
38575SOL    HW222587  11.339  11.628   0.193  0.7561 -0.3075 -0.6178
38576SOL     OW22588   5.498   4.224   2.752  0.3935 -0.7359 -0.1677
38576SOL    HW122589   5.522   4.191   2.665  0.5825 -0.8685 -0.0681
38576SOL    HW222590   5.543   4.165   2.812  1.0586 -0.0585  0.0109
38577SOL     OW22591   6.102   0.328   3.102  0.2521  0.0462 -0.6697
38577SOL    HW122592   6.031   0.291   3.153 -1.7085  2.5577 -1.3834
38577SOL    HW222593   6.117   0.264   3.031 -0.6390 -0.9335  0.0016
38578SOL     OW22594   3.307   4.022   7.358 -0.7638 -0.3152  0.1896
38578SOL    HW122595   3.278   4.107   7.323 -2.8700 -0.9765  0.1845
38578SOL    HW222596   3.303   4.033   7.453 -1.4187 -0.5007  0.1909
38579SOL     OW22597   8.989  11.226  11.450  0.1263  0.3247  0.1474
38579SOL    HW122598   9.007  11.307  11.402 -0.0773  0.7329  0.7573
38579SOL    HW222599   8.902  11.239  11.488 -0.0380 -0.3023 -0.0008
38580SOL     OW22600   5.258   8.614   6.706  0.1593  0.2952  0.1584
38580SOL    HW122601   5.291   8.550   6.770 -0.8125 -0.9827 -0.5690
38580SOL    HW222602   5.278   8.699   6.745  2.2226 -0.4133  0.7881
38581SOL     OW22603   7.555   4.069   5.428  0.0489  0.1154  0.1463
38581SOL    HW122604   7.494   4.132   5.387 -0.2248 -0.1110  0.2053
38581SOL    HW222605   7.564   4.000   5.363 -0.0600 -0.0412  0.2986
38582SOL     OW22606   9.544  11.229   4.989  0.0062  0.0884 -0.4618
38582SOL    HW122607   9.562  11.218   5.082  2.7982  0.7280 -0.8299
38582SOL    HW222608   9.562  11.143   4.950  2.5719  0.7230 -0.8286
38583SOL     OW22609   9.004   0.841   9.063  0.2850 -0.5560  0.6772
38583SOL    HW122610   8.968   0.752   9.070  1.2137 -1.0258 -0.2374
38583SOL    HW222611   8.936   0.897   9.101 -1.0646 -1.4844 -0.2552
38584SOL     OW22612  11.531   6.771   9.414  0.1245 -0.6090 -0.3757
38584SOL    HW122613  11.515   6.725   9.496 -0.8181 -1.6222 -1.1092
38584SOL    HW222614  11.448   6.813   9.394  0.5139  0.0947 -0.5469
38585SOL     OW22615   0.113   6.870   0.898 -0.5978 -0.7307  0.4777
38585SOL    HW122616   0.029   6.831   0.922 -0.4554 -0.7453  0.9801
38585SOL    HW222617   0.104   6.963   0.918 -1.1169 -0.3810 -1.2198
38586SOL     OW22618   6.342  10.631   3.116  0.0896 -0.0291 -0.4670
38586SOL    HW122619   6.364  10.723   3.102 -1.7453  0.3710 -0.9348
38586SOL    HW222620   6.422  10.583   3.092  1.8624  1.5043  1.9422
38587SOL     OW22621   8.857   4.868   5.517  0.3290 -0.1376  0.7549
38587SOL    HW122622   8.939   4.846   5.562  0.8197 -0.7294 -0.3862
38587SOL    HW222623   8.819   4.939   5.569  2.5356  1.5109  0.2569
38588SOL     OW22624   8.816   2.316  10.239 -0.3522 -0.1985  0.1691
38588SOL    HW122625   8.736   2.311  10.291 -0.6168  0.2724 -0.1831
38588SOL    HW222626   8.876   2.368  10.292 -0.0130 -1.1677  0.7600
38589SOL     OW22627   4.446   5.646   9.789 -0.1299  0.5774  0.1926
38589SOL    HW122628   4.418   5.555   9.799  0.9064 -0.2506 -3.1039
38589SOL    HW222629   4.373   5.689   9.744  0.3849  0.7010 -0.5355
38590SOL     OW22630  11.288   0.396  10.733  0.2142  0.0880  0.2076
38590SOL    HW122631  11.306   0.387  10.640  2.0113  0.2341  0.4894
38590SOL    HW222632  11.222   0.331  10.752 -1.3489  1.1046 -1.4510
38591SOL     OW22633  11.699   5.047   7.379 -0.3809  0.0533  0.2874
38591SOL    HW122634  11.767   5.045   7.312 -1.0603  0.5823 -0.4447
38591SOL    HW222635  11.684   5.140   7.396 -1.7931  0.0136 -0.5169
38592SOL     OW22636  12.194  11.527   9.445  0.5152  0.3318 -0.7342
38592SOL    HW122637  12.196  11.603   9.502  0.5224  0.0389 -0.3445
38592SOL    HW222638  12.286  11.503   9.431  0.4804 -0.5560  0.4198
38593SOL     OW22639   2.857   3.248   4.665 -0.4008  0.5784 -0.2696
38593SOL    HW122640   2.888   3.164   4.699  1.0013  0.4344 -1.8068
38593SOL    HW222641   2.919   3.312   4.700  0.9409  0.4526 -2.2852
38594SOL     OW22642   0.712  11.970  11.596  0.4126 -0.2537  0.6001
38594SOL    HW122643   0.758  11.898  11.639  0.4501 -0.1616  0.7150
38594SOL    HW222644   0.624  11.968  11.633 -0.0891 -1.2715 -0.6010
38595SOL     OW22645   7.898   4.806  10.744 -0.0344 -0.2582 -0.2305
38595SOL    HW122646   7.814   4.848  10.763  0.8335  1.3229  0.3247
38595SOL    HW222647   7.888   4.716  10.776 -1.1843  0.1885  0.7193
38596SOL     OW22648   6.402   4.988  10.356 -0.2363 -0.3509  1.0099
38596SOL    HW122649   6.383   5.057  10.291  0.0756  0.1774  1.4761
38596SOL    HW222650   6.495   4.969  10.344 -0.0947 -0.0052  1.5313
38597SOL     OW22651   1.853   6.196   0.160 -0.4648 -0.2410 -0.4166
38597SOL    HW122652   1.891   6.277   0.127 -0.0380  1.6333  3.9312
38597SOL    HW222653   1.916   6.128   0.135  0.8010  1.2634 -1.5316
38598SOL     OW22654   9.254   3.277  11.587  0.6132 -0.3471 -0.5016
38598SOL    HW122655   9.275   3.210  11.652 -0.8848 -0.2815  0.0998
38598SOL    HW222656   9.320   3.345  11.600  1.9290 -1.5185 -0.8636
38599SOL     OW22657   4.450   8.162   8.057 -0.2026 -0.2543  0.0590
38599SOL    HW122658   4.377   8.224   8.063 -0.0197  0.2249 -1.8392
38599SOL    HW222659   4.522   8.214   8.021  0.7073 -1.0198  0.7349
38600SOL     OW22660   4.252   2.683   7.693 -0.6995 -0.3477  0.5847
38600SOL    HW122661   4.211   2.723   7.770 -0.3214 -1.6132  1.4761
38600SOL    HW222662   4.314   2.748   7.661 -3.4414  1.7243 -0.9289
38601SOL     OW22663   2.995   6.207   8.918  0.3380 -0.9611  0.2633
38601SOL    HW122664   3.075   6.179   8.964  1.3531  0.0929 -0.7967
38601SOL    HW222665   2.958   6.126   8.884  0.6307 -1.5335  1.2488
38602SOL     OW22666   6.154   3.964   3.052 -0.1447 -0.1234 -0.0586
38602SOL    HW122667   6.066   3.970   3.089  0.2650 -0.5272  1.0083
38602SOL    HW222668   6.194   3.890   3.097  0.7125  0.0019 -0.5970
38603SOL     OW22669   8.502   0.657   4.336 -0.4456  0.1545  0.0876
38603SOL    HW122670   8.577   0.689   4.285  0.4443 -1.1067  0.5634
38603SOL    HW222671   8.440   0.626   4.271 -0.6933  1.4454 -0.3238
38604SOL     OW22672   7.788   4.706   5.812 -0.5412 -0.2988 -0.0533
38604SOL    HW122673   7.841   4.783   5.833 -0.7865 -0.8608  3.2289
38604SOL    HW222674   7.848   4.632   5.827 -1.0608 -0.8132 -0.4953
38605SOL     OW22675  11.074   6.877  11.251  0.1866  0.1386 -0.0010
38605SOL    HW122676  11.133   6.908  11.319 -0.3577  0.4389  0.3472
38605SOL    HW222677  11.117   6.900  11.169  0.8384 -0.2060  0.2358
38606SOL     OW22678  11.131   8.026   0.976  0.4633  0.6634  0.3066
38606SOL    HW122679  11.094   8.073   1.051  1.5181  1.6544  0.2473
38606SOL    HW222680  11.205   7.977   1.012  0.1391  0.0441  0.1436
38607SOL     OW22681   0.075   9.922   4.744  0.1371 -0.1094  0.1252
38607SOL    HW122682   0.115   9.940   4.828 -0.0315 -1.6170  0.5634
38607SOL    HW222683   0.011   9.852   4.762 -0.8265  0.4381 -1.0143
38608SOL     OW22684   0.951   8.681   2.404 -0.6205  0.3317  0.0377
38608SOL    HW122685   0.900   8.722   2.335  0.9724  0.9729 -0.7981
38608SOL    HW222686   1.034   8.658   2.362 -0.5469 -1.5481  1.1068
38609SOL     OW22687   3.800  12.362   1.246 -0.0189  0.3662  0.3522
38609SOL    HW122688   3.713  12.385   1.278 -0.2142  3.3881 -2.0185
38609SOL    HW222689   3.853  12.440   1.262  1.5331 -0.4081 -0.8057
38610SOL     OW22690   9.475   3.768   9.089 -0.4746  0.5785  0.3603
38610SOL    HW122691   9.499   3.722   9.169  2.3765 -0.8193 -1.1554
38610SOL    HW222692   9.544   3.834   9.077 -0.5292  0.3825 -1.2072
38611SOL     OW22693  10.524   6.701   7.962 -0.0968  0.1506  0.0421
38611SOL    HW122694  10.580   6.758   7.908 -0.1995  1.5853  1.3817
38611SOL    HW222695  10.435   6.730   7.942 -0.5445 -2.6581 -2.6871
38612SOL     OW22696   0.466   3.911   7.091  0.0030  0.6317 -0.0438
38612SOL    HW122697   0.397   3.858   7.052  0.7070 -0.3903  0.0590
38612SOL    HW222698   0.547   3.871   7.060  0.5647  2.1698 -0.6424
38613SOL     OW22699   1.505   2.084   0.524  0.1685 -0.0146 -0.7378
38613SOL    HW122700   1.410   2.081   0.530  0.1944 -0.3224 -0.4572
38613SOL    HW222701   1.525   2.175   0.499 -0.1103  0.5582  0.9970
38614SOL     OW22702   6.844  11.524  11.541 -0.4917  0.4647  0.1791
38614SOL    HW122703   6.927  11.530  11.494  1.4094  0.9161  3.3406
38614SOL    HW222704   6.823  11.430  11.542  1.0905  0.0893  1.0495
38615SOL     OW22705  11.610   7.746   6.025  0.1940  0.6448 -0.5663
38615SOL    HW122706  11.567   7.665   5.997  0.3839  1.1698 -2.5067
38615SOL    HW222707  11.701   7.735   5.998  0.2107  1.5174 -0.8782
38616SOL     OW22708   1.585   9.638  11.411  0.0598 -0.7095 -0.0668
38616SOL    HW122709   1.548   9.561  11.369 -0.4594  0.7950 -2.5566
38616SOL    HW222710   1.658   9.663  11.354  1.3116 -0.3096  1.6337
38617SOL     OW22711  11.908   0.197   6.907 -0.5467 -0.6883 -0.0039
38617SOL    HW122712  11.966   0.215   6.833  2.3939 -2.1015  1.7315
38617SOL    HW222713  11.866   0.114   6.886  0.5065 -1.2373 -0.0096
38618SOL     OW22714   6.888   5.113   5.888  0.2890  0.7043 -0.4713
38618SOL    HW122715   6.918   5.194   5.929  2.7153 -0.9422  1.2523
38618SOL    HW222716   6.940   5.105   5.808  2.5844 -0.7082  1.0562
38619SOL     OW22717   3.863   9.640   2.962  0.2323  0.1276 -0.2338
38619SOL    HW122718   3.825   9.593   3.036  1.5947  0.6822  0.8572
38619SOL    HW222719   3.951   9.663   2.991 -0.1059  2.6777 -1.0165
38620SOL     OW22720   1.635   1.723   8.765 -0.0721 -0.2014 -0.5205
38620SOL    HW122721   1.569   1.790   8.749 -0.5565 -0.6984 -0.6319
38620SOL    HW222722   1.679   1.712   8.681  1.3536  1.3828 -0.0196
38621SOL     OW22723  10.457   3.888   9.062 -0.2648 -0.1333  0.6362
38621SOL    HW122724  10.461   3.792   9.063  1.8098 -0.1134 -0.5040
38621SOL    HW222725  10.363   3.908   9.062 -0.7406 -2.1663  0.5626
38622SOL     OW22726   2.035   8.724   8.882 -0.2016 -0.2063  0.1460
38622SOL    HW122727   2.099   8.658   8.908 -0.4850 -0.3389  0.5160
38622SOL    HW222728   1.950   8.683   8.896 -0.3764 -0.4493 -1.4258
38623SOL     OW22729   4.131   1.634   9.762 -0.2180  0.1221  0.5079
38623SOL    HW122730   4.106   1.679   9.681  0.5541 -0.9581 -0.3547
38623SOL    HW222731   4.223   1.655   9.774 -0.1674 -0.2496  0.7687
38624SOL     OW22732   5.042   5.016  10.032 -0.3794 -0.0059  0.0467
38624SOL    HW122733   5.030   4.973  10.117  0.4792  2.2021  1.3700
38624SOL    HW222734   5.110   4.964   9.989  0.6794  0.0152  1.6154
38625SOL     OW22735  12.183   8.240  10.794 -0.2113 -0.0129 -0.0287
38625SOL    HW122736  12.104   8.187  10.781  0.2603 -0.2806 -2.2498
38625SOL    HW222737  12.214   8.258  10.705  0.5201  2.6982  0.6766
38626SOL     OW22738   6.320  12.333  11.476  0.0758  0.1321  0.1617
38626SOL    HW122739   6.412  12.344  11.451  0.4138 -2.7869 -0.1468
38626SOL    HW222740   6.271  12.348  11.395  0.4986 -0.7148 -0.2639
38627SOL     OW22741   5.021   8.325  11.944 -0.0776 -0.1011 -0.0541
38627SOL    HW122742   4.989   8.272  11.870 -0.1262 -1.0833  0.6559
38627SOL    HW222743   5.041   8.262  12.012 -0.4498  0.8243  0.9472
38628SOL     OW22744   3.529   2.109   8.812 -0.6167  0.9035 -0.3692
38628SOL    HW122745   3.483   2.109   8.895  1.7254  0.0673  1.0416
38628SOL    HW222746   3.483   2.044   8.759 -2.1529  1.4575  0.2445
38629SOL     OW22747  12.035   8.222  12.257 -0.1577  0.0583 -0.5498
38629SOL    HW122748  12.103   8.235  12.191 -0.0138  2.4851 -0.0140
38629SOL    HW222749  11.953   8.240  12.210 -0.1266  0.8185 -0.3257
38630SOL     OW22750   2.326   4.061  11.690 -1.0459  0.7015 -0.0212
38630SOL    HW122751   2.261   4.083  11.757 -0.8057  1.8267 -0.1293
38630SOL    HW222752   2.411   4.076  11.732 -0.7859 -1.6231  0.4126
38631SOL     OW22753   0.090  11.205  11.542  0.1527  0.4778  0.6533
38631SOL    HW122754   0.091  11.139  11.473  2.3336  0.3200  0.7710
38631SOL    HW222755   0.029  11.171  11.607 -2.1658  0.7517 -1.2382
38632SOL     OW22756   1.050  10.892   5.155  0.0108 -0.1051 -0.4239
38632SOL    HW122757   1.145  10.902   5.152 -0.0067  0.0341 -0.4786
38632SOL    HW222758   1.030  10.833   5.082  0.0503 -0.1138 -0.4275
38633SOL     OW22759   2.677   7.479   5.423 -0.2459 -0.2767 -0.0371
38633SOL    HW122760   2.713   7.444   5.505 -1.2776 -1.8613 -0.2174
38633SOL    HW222761   2.728   7.558   5.406  0.1775 -0.0668  1.9864
38634SOL     OW22762   4.704  11.370   4.510 -0.4801  0.3306 -0.4385
38634SOL    HW122763   4.712  11.288   4.557 -1.9166 -0.2124 -1.0808
38634SOL    HW222764   4.768  11.364   4.439 -0.0389  0.1137 -0.0242
38635SOL     OW22765   8.844   5.458   1.343 -0.4926  0.4707 -0.2499
38635SOL    HW122766   8.820   5.410   1.263 -2.3720  1.7044 -0.4996
38635SOL    HW222767   8.887   5.537   1.311  2.1847 -0.7169  0.1468
38636SOL     OW22768   0.728  10.475   4.132  0.2712  0.1153  0.6305
38636SOL    HW122769   0.676  10.556   4.127  1.1300  0.6932  0.8781
38636SOL    HW222770   0.813  10.500   4.096  0.8317 -0.4409  1.5510
38637SOL     OW22771   2.425   4.450  12.235 -0.5088 -0.6046 -0.5424
38637SOL    HW122772   2.495   4.513  12.215 -1.4814  0.6523 -0.1025
38637SOL    HW222773   2.353   4.475  12.177 -2.2358  1.0791  2.1039
38638SOL     OW22774   1.079  11.615   3.195 -0.3299  0.0626 -0.0267
38638SOL    HW122775   1.023  11.588   3.267 -1.3315  0.5914 -0.5786
38638SOL    HW222776   1.021  11.616   3.119  0.4079  0.7037 -0.6014
38639SOL     OW22777   1.476  11.873  10.006 -0.0877  0.4844  0.1219
38639SOL    HW122778   1.493  11.817  10.082 -1.5120 -1.0425 -0.5955
38639SOL    HW222779   1.508  11.822   9.932 -0.6989  0.9551 -0.4762
38640SOL     OW22780   0.849  12.478   9.100 -0.4553  0.0720  0.1046
38640SOL    HW122781   0.784  12.543   9.128 -0.8186  0.4054 -1.4233
38640SOL    HW222782   0.818  12.449   9.015 -0.7039 -2.6805  1.0382
38641SOL     OW22783   5.136   6.547  10.527 -0.2960 -0.5695  0.1252
38641SOL    HW122784   5.096   6.497  10.599 -0.7096 -0.6092 -0.1253
38641SOL    HW222785   5.130   6.638  10.556  0.7562 -0.6862  0.7251
38642SOL     OW22786   3.031   7.844   5.365  0.5500 -0.1892  0.0255
38642SOL    HW122787   3.035   7.757   5.406 -0.5998 -0.3813 -0.2328
38642SOL    HW222788   2.940   7.853   5.338  1.2520 -0.1318 -2.5758
38643SOL     OW22789   8.856   1.142   7.013  0.4670  0.2100 -0.0578
38643SOL    HW122790   8.941   1.187   7.007  0.6217  0.2608  1.9911
38643SOL    HW222791   8.863   1.088   7.091 -0.9874 -0.7191 -0.5410
38644SOL     OW22792  10.864   0.603   3.444 -0.0887 -0.6136  0.0331
38644SOL    HW122793  10.935   0.609   3.508 -1.9521  2.1748  2.0612
38644SOL    HW222794  10.908   0.612   3.359  2.0526  0.2654  1.1527
38645SOL     OW22795   9.710  10.776  11.373  0.3745 -0.6069  0.0464
38645SOL    HW122796   9.672  10.775  11.461 -1.5937 -2.0101 -0.7501
38645SOL    HW222797   9.783  10.838  11.379  0.3174 -0.6865  2.6539
38646SOL     OW22798   9.082  10.751   6.466 -0.0543  0.2883 -0.1157
38646SOL    HW122799   9.166  10.717   6.496 -0.1215 -1.9758 -2.1212
38646SOL    HW222800   9.018  10.684   6.493 -0.9128  1.0183 -0.2979
38647SOL     OW22801   9.431  11.846   6.188 -0.9724 -0.4587 -0.5707
38647SOL    HW122802   9.367  11.808   6.249 -0.9591  0.3858 -0.0100
38647SOL    HW222803   9.460  11.772   6.135  0.2773 -1.5791  1.5489
38648SOL     OW22804   5.307   4.642   3.586 -0.4497 -0.2993  0.2839
38648SOL    HW122805   5.345   4.577   3.646 -1.5825  0.6828  2.1889
38648SOL    HW222806   5.241   4.593   3.537 -1.1238 -0.6751  1.5253
38649SOL     OW22807   5.325   3.358  12.388  0.7718 -0.0857 -0.1984
38649SOL    HW122808   5.252   3.390  12.335 -0.6707 -0.2147  1.6059
38649SOL    HW222809   5.374   3.436  12.411 -0.3052  0.3633  0.6835
38650SOL     OW22810   2.322   3.861   4.901 -0.1125 -0.3282 -0.0462
38650SOL    HW122811   2.350   3.869   4.992  0.4068  2.8659 -0.3392
38650SOL    HW222812   2.400   3.885   4.850 -0.6168 -1.2556 -1.3237
38651SOL     OW22813  11.785   6.105   2.091 -0.4486 -0.0646  0.2316
38651SOL    HW122814  11.739   6.114   2.007 -1.0607  0.1413  0.5820
38651SOL    HW222815  11.876   6.089   2.067 -0.9676 -2.2007 -0.5228
38652SOL     OW22816  10.059   1.515  10.910 -0.5870  0.2053 -0.3929
38652SOL    HW122817  10.040   1.457  10.984 -3.3288  0.9423 -0.4367
38652SOL    HW222818  10.078   1.599  10.950 -0.3397  0.1932 -0.4813
38653SOL     OW22819   7.009   8.641   9.065 -0.7618  0.3525 -0.6798
38653SOL    HW122820   6.966   8.713   9.112  0.6042  0.5406  0.3473
38653SOL    HW222821   6.952   8.566   9.081  0.0256  0.2160  2.0529
38654SOL     OW22822   0.044   9.735   8.635 -0.8015  0.5042  0.0442
38654SOL    HW122823  -0.034   9.736   8.578 -0.7928 -2.0222 -0.1203
38654SOL    HW222824   0.009   9.715   8.722 -0.3400 -1.7582 -0.2147
38655SOL     OW22825   3.637  10.538   7.684 -0.1616 -0.0794  0.4448
38655SOL    HW122826   3.722  10.546   7.726 -0.1164  0.8843  0.1931
38655SOL    HW222827   3.657  10.528   7.591 -0.3284  1.0959  0.2671
38656SOL     OW22828   9.137   5.802   1.491  0.2349  0.0668  0.2397
38656SOL    HW122829   9.130   5.897   1.502 -0.7206 -0.1236  1.4213
38656SOL    HW222830   9.113   5.766   1.576  1.5170 -1.2181  0.0944
38657SOL     OW22831  10.333  11.001   7.520  0.1259 -0.2035 -0.2688
38657SOL    HW122832  10.318  10.931   7.457  0.2842 -1.6121  1.1995
38657SOL    HW222833  10.296  10.969   7.602 -1.4157  2.1810  0.0826
38658SOL     OW22834   4.434  10.401   0.073  0.4080  0.1009  0.5149
38658SOL    HW122835   4.401  10.491   0.080 -1.6093 -0.5908  0.6508
38658SOL    HW222836   4.467  10.381   0.161 -1.0137  0.0666  1.0717
38659SOL     OW22837   1.758   7.891   6.910 -0.4671 -0.4768 -0.5134
38659SOL    HW122838   1.760   7.961   6.846 -0.7638 -1.4645 -1.6303
38659SOL    HW222839   1.828   7.832   6.883 -1.3897 -1.5277 -0.6691
38660SOL     OW22840   7.861  11.256   8.050 -0.1848  0.4920 -0.4076
38660SOL    HW122841   7.783  11.212   8.015  0.4805 -1.3103  0.2552
38660SOL    HW222842   7.834  11.285   8.137 -0.7579  1.8344 -1.0092
38661SOL     OW22843  12.289   7.293   0.130 -0.3197  0.0264  0.4829
38661SOL    HW122844  12.381   7.314   0.142 -0.4573  0.0238  1.6031
38661SOL    HW222845  12.242   7.373   0.154 -0.6101  0.0999 -0.2891
38662SOL     OW22846   7.494   4.394   0.212  0.0330 -0.6871  0.3807
38662SOL    HW122847   7.554   4.324   0.184  0.0867 -1.1743  1.6354
38662SOL    HW222848   7.474   4.441   0.131  1.8069 -0.7376 -0.1497
38663SOL     OW22849   5.878   2.624   2.441 -0.6074 -0.2741 -0.0236
38663SOL    HW122850   5.893   2.701   2.385  1.5689  0.4631  1.4568
38663SOL    HW222851   5.931   2.555   2.402  0.4094  0.0646  0.7145
38664SOL     OW22852   2.833  10.432   0.585  0.4843  0.0417 -0.3362
38664SOL    HW122853   2.892  10.401   0.654  0.0242 -0.3971 -0.1405
38664SOL    HW222854   2.823  10.525   0.603  1.1226  0.1274 -0.3748
38665SOL     OW22855  10.098   3.282   4.451  0.2400 -0.0699  0.3891
38665SOL    HW122856  10.138   3.347   4.393 -0.5664  0.1834  0.1123
38665SOL    HW222857  10.051   3.223   4.393 -0.8079  0.3456  0.7896
38666SOL     OW22858  10.700   2.644   5.972 -0.5079  0.2006 -0.0329
38666SOL    HW122859  10.656   2.701   6.034 -4.4443 -4.0614  1.6763
38666SOL    HW222860  10.752   2.584   6.027 -1.7170 -1.8176 -0.9725
38667SOL     OW22861   8.536   7.218   9.644 -0.2849  0.6786 -0.0080
38667SOL    HW122862   8.516   7.310   9.658  0.3978  0.7339  0.7629
38667SOL    HW222863   8.514   7.201   9.553 -0.5780  1.5575 -0.1081
38668SOL     OW22864   0.951   5.439   0.408 -0.0923  0.0270  0.2840
38668SOL    HW122865   1.015   5.446   0.479 -0.0039 -0.0707  0.2124
38668SOL    HW222866   0.941   5.529   0.377  0.0976  0.0261  0.2176
38669SOL     OW22867   3.600  11.081  12.206 -0.3428 -0.2521  0.0688
38669SOL    HW122868   3.622  10.997  12.167 -0.1179 -0.1453 -0.0307
38669SOL    HW222869   3.606  11.144  12.134 -2.3942 -0.4294 -0.3258
38670SOL     OW22870  11.302  10.025   8.383  0.4406 -0.0055  0.5732
38670SOL    HW122871  11.285   9.931   8.380 -0.1280  0.1049  0.0799
38670SOL    HW222872  11.234  10.063   8.328  0.7446  0.6861  0.6657
38671SOL     OW22873   0.898   6.884  11.098 -0.0219  0.0322  0.4220
38671SOL    HW122874   0.828   6.849  11.153 -2.3115  2.3460 -0.7844
38671SOL    HW222875   0.918   6.969  11.137 -0.4926  0.9584 -1.2652
38672SOL     OW22876   2.903  10.436   6.832  0.1218 -0.4153  0.1731
38672SOL    HW122877   2.962  10.368   6.865  0.6591  0.4109  0.9656
38672SOL    HW222878   2.895  10.418   6.738 -0.2642 -1.9399  0.4701
38673SOL     OW22879  11.691   7.125  12.367  0.1107  0.3744  0.2948
38673SOL    HW122880  11.745   7.137  12.289 -1.9005  0.7993 -1.1199
38673SOL    HW222881  11.745   7.155  12.439  2.3662 -0.8243 -0.8016
38674SOL     OW22882  12.356   8.305   3.176 -0.2822  0.0440  0.2460
38674SOL    HW122883  12.399   8.267   3.100 -0.9565  0.1692 -0.2125
38674SOL    HW222884  12.331   8.230   3.230 -0.5941 -0.1041 -0.0976
38675SOL     OW22885   3.086   8.057   3.187 -0.1067 -0.2117  0.1184
38675SOL    HW122886   3.034   8.075   3.266 -1.3496  0.7492 -0.8859
38675SOL    HW222887   3.070   8.132   3.130  0.6743 -0.9484 -1.1158
38676SOL     OW22888   8.651  11.075   7.496  1.0438  0.3626 -0.1359
38676SOL    HW122889   8.591  11.031   7.557  0.6092  0.9982 -0.0903
38676SOL    HW222890   8.645  11.023   7.416  1.2680 -0.2124  0.2167
38677SOL     OW22891   6.644  11.604   0.579 -0.2432  0.0743  0.2429
38677SOL    HW122892   6.720  11.571   0.531  1.0625  1.1153  1.5048
38677SOL    HW222893   6.663  11.584   0.671 -1.4926  0.3762  0.5834
38678SOL     OW22894   0.711   3.961   0.880 -0.5210  0.3001  0.5576
38678SOL    HW122895   0.697   4.055   0.876  0.2437  0.4331  0.9433
38678SOL    HW222896   0.635   3.924   0.835 -0.1953  1.1371 -0.7286
38679SOL     OW22897  11.994   1.643  11.926  0.5554 -0.0016  0.4698
38679SOL    HW122898  12.009   1.693  11.845  1.0445  0.7113  0.9916
38679SOL    HW222899  12.013   1.705  11.996  1.1280 -0.9205  1.1346
38680SOL     OW22900   6.551   3.794  11.912 -0.0243 -0.3634 -0.1337
38680SOL    HW122901   6.511   3.707  11.901 -1.8174  0.2650  1.0295
38680SOL    HW222902   6.640   3.775  11.942 -0.8546 -1.8209  1.6061
38681SOL     OW22903   6.723   6.958   5.547 -0.5624  0.1130  0.2233
38681SOL    HW122904   6.765   6.903   5.612 -0.6131 -0.3737 -0.1467
38681SOL    HW222905   6.633   6.968   5.579 -0.4113  0.4264  0.5614
38682SOL     OW22906   4.728   8.091   5.554 -0.6982 -0.1134  0.1984
38682SOL    HW122907   4.644   8.045   5.544 -0.1758 -0.9439 -0.4995
38682SOL    HW222908   4.794   8.022   5.550  0.1157  0.6852 -0.8605
38683SOL     OW22909  12.154   0.506   0.567  0.0380  0.1759  0.9584
38683SOL    HW122910  12.224   0.443   0.588 -0.4072 -0.1826  1.3876
38683SOL    HW222911  12.095   0.502   0.642 -1.1031 -0.4449  0.0616
38684SOL     OW22912   7.308   1.206   4.449 -0.4742 -0.8885 -0.8391
38684SOL    HW122913   7.325   1.158   4.530  0.0792 -0.9507 -0.9860
38684SOL    HW222914   7.253   1.280   4.475  0.4109 -0.4194 -0.2606
38685SOL     OW22915   4.932   7.094   3.691 -0.2280 -0.3254  0.3159
38685SOL    HW122916   4.894   7.154   3.756 -0.1992  0.5825 -0.4930
38685SOL    HW222917   5.025   7.113   3.692 -0.4963  1.3216 -1.6012
38686SOL     OW22918   0.271   9.082   5.820 -0.2149 -0.1983  0.0140
38686SOL    HW122919   0.266   9.014   5.753 -3.7528 -2.0866  1.8839
38686SOL    HW222920   0.215   9.152   5.787 -0.9868 -0.6121  0.4160
38687SOL     OW22921   9.939   2.196   7.205  0.1091 -0.0632  0.2992
38687SOL    HW122922  10.016   2.151   7.238  0.1306 -0.4815 -0.2968
38687SOL    HW222923   9.883   2.127   7.169  0.5698  0.4325 -1.4920
38688SOL     OW22924   4.341   1.175   7.151 -0.1815  0.1669  0.3132
38688SOL    HW122925   4.418   1.200   7.201  0.7671 -0.4223 -0.8138
38688SOL    HW222926   4.277   1.244   7.168  0.7099  0.8385  0.9817
38689SOL     OW22927  10.325   8.408   5.093  0.1474  0.0027  0.1408
38689SOL    HW122928  10.293   8.495   5.116 -0.0284 -0.1563  0.5119
38689SOL    HW222929  10.409   8.400   5.137  0.0804 -0.0826  0.2548
38690SOL     OW22930   2.528   0.486   5.293  0.4567 -0.4312 -0.0875
38690SOL    HW122931   2.525   0.560   5.354 -0.1795  0.1062 -0.7569
38690SOL    HW222932   2.531   0.527   5.206  0.6451 -1.1919 -0.4428
38691SOL     OW22933  10.467   1.339   4.488 -0.1592 -0.5238 -0.3503
38691SOL    HW122934  10.424   1.320   4.572  0.7380 -0.1046  0.2203
38691SOL    HW222935  10.475   1.254   4.446 -3.2212 -0.4168 -1.3390
38692SOL     OW22936   4.636   6.612   2.120  0.2293 -0.3955  0.2847
38692SOL    HW122937   4.571   6.682   2.108  0.9731  0.1523 -0.6671
38692SOL    HW222938   4.720   6.657   2.122  0.9289 -1.3766 -2.4851
38693SOL     OW22939   2.775   0.155   0.262  0.0502 -0.5818  0.5754
38693SOL    HW122940   2.836   0.228   0.268  0.3138 -0.8415  1.0764
38693SOL    HW222941   2.809   0.090   0.322  0.2791 -1.4649 -0.4715
38694SOL     OW22942  10.549   5.178   0.888  0.0719  0.1183 -0.0822
38694SOL    HW122943  10.564   5.184   0.793 -2.4066  1.2530 -0.4750
38694SOL    HW222944  10.459   5.147   0.896 -0.0951  0.9734  1.8913
38695SOL     OW22945   4.693   8.322   3.021  0.3152  0.0403 -0.5631
38695SOL    HW122946   4.707   8.227   3.017  1.2601  0.2005 -1.3536
38695SOL    HW222947   4.609   8.336   2.976  0.1946 -0.4032 -0.4857
38696SOL     OW22948   0.733   5.682   7.206 -0.1736 -0.0574  0.3494
38696SOL    HW122949   0.662   5.617   7.206  0.3624 -0.6512 -0.1281
38696SOL    HW222950   0.767   5.681   7.117  0.4563  0.2018  0.5792
38697SOL     OW22951  11.960   5.360  11.300 -0.2636 -0.3923  0.1781
38697SOL    HW122952  11.896   5.306  11.347 -1.4919  1.2406  0.4741
38697SOL    HW222953  12.033   5.369  11.361 -1.3897  0.8237  1.4213
38698SOL     OW22954   0.914   3.377   5.300 -0.5790  0.1253  0.2866
38698SOL    HW122955   0.862   3.297   5.286 -3.0593  2.1217 -3.3496
38698SOL    HW222956   0.866   3.424   5.368 -2.1089  0.7347 -1.1577
38699SOL     OW22957   5.621   2.983   2.817 -0.2077  0.2036 -0.4915
38699SOL    HW122958   5.608   2.890   2.803  1.5084 -0.3975  1.4415
38699SOL    HW222959   5.686   3.009   2.752 -0.1787 -0.1083 -0.5887
38700SOL     OW22960   9.746   4.978   3.689 -0.6524 -0.2094 -0.5149
38700SOL    HW122961   9.816   4.972   3.623 -0.4758 -1.7671 -0.2375
38700SOL    HW222962   9.741   5.071   3.711  0.2700  0.1403 -1.6733
38701SOL     OW22963   6.170  10.803   7.833  0.4676 -0.0722 -0.3558
38701SOL    HW122964   6.106  10.855   7.784  0.0732  0.9438  1.1826
38701SOL    HW222965   6.153  10.824   7.924  1.6168 -1.4316  0.2034
38702SOL     OW22966   9.551   5.144   5.144  0.3173 -0.3101  0.2638
38702SOL    HW122967   9.566   5.110   5.232  2.0863 -1.6348 -0.4818
38702SOL    HW222968   9.543   5.238   5.156  2.0254 -0.2890  1.7115
38703SOL     OW22969  11.710   4.587   4.938  0.6792  0.4973  0.1974
38703SOL    HW122970  11.636   4.531   4.918  0.3619 -0.3432  3.2430
38703SOL    HW222971  11.708   4.655   4.870 -1.1949 -0.9980 -1.3651
38704SOL     OW22972   5.238  12.120   3.630  0.6792  0.0183 -0.2069
38704SOL    HW122973   5.253  12.066   3.553  2.1635 -0.1212  0.1478
38704SOL    HW222974   5.204  12.203   3.595 -0.7812 -0.8087 -0.8129
38705SOL     OW22975   7.563   8.645   9.847  0.3501 -0.0988 -0.4589
38705SOL    HW122976   7.478   8.639   9.804  0.7779  0.0626 -1.3537
38705SOL    HW222977   7.623   8.598   9.788  1.1479  1.0663 -0.6081
38706SOL     OW22978   7.652   3.359   9.679  0.0423  0.1269 -0.0451
38706SOL    HW122979   7.625   3.281   9.630  0.5827 -0.1486  0.0820
38706SOL    HW222980   7.747   3.363   9.666 -0.0118  0.9112 -0.2587
38707SOL     OW22981   8.770   5.182   1.907 -0.0348  0.6621 -0.1241
38707SOL    HW122982   8.734   5.152   1.824  0.1112  0.9951 -0.3072
38707SOL    HW222983   8.705   5.153   1.972  0.2781 -0.3677 -0.2466
38708SOL     OW22984   3.904   8.497   4.207 -0.7551 -0.1610 -0.2276
38708SOL    HW122985   3.988   8.490   4.252  0.5198  2.1528 -1.9704
38708SOL    HW222986   3.850   8.427   4.244  1.1334 -0.2601  2.6369
38709SOL     OW22987   8.875   7.746   7.134 -0.5025 -0.5487 -0.5343
38709SOL    HW122988   8.800   7.697   7.101 -1.4916 -0.7413  1.7788
38709SOL    HW222989   8.898   7.703   7.217  2.0297 -0.3319 -1.0398
38710SOL     OW22990   9.360   3.765   0.337  0.3245  0.3510 -0.5725
38710SOL    HW122991   9.337   3.672   0.339  0.9824  0.1637 -1.1841
38710SOL    HW222992   9.369   3.789   0.429 -1.1984  0.1680 -0.3511
38711SOL     OW22993   7.403   6.420   2.205 -0.6156  0.3764  0.3034
38711SOL    HW122994   7.423   6.357   2.273  0.4053  0.6623  0.2850
38711SOL    HW222995   7.487   6.436   2.161 -1.4949 -0.9516 -2.0238
38712SOL     OW22996   4.052   0.382   8.077  0.3217 -0.2678 -0.1970
38712SOL    HW122997   4.107   0.345   8.147 -0.5731 -1.3951 -0.0523
38712SOL    HW222998   4.054   0.316   8.008 -1.0521 -0.4661 -0.0735
38713SOL     OW22999  12.461   5.687   0.489  0.1799  0.2808  0.6501
38713SOL    HW123000  12.414   5.655   0.566 -3.5609 -0.9939 -1.8452
38713SOL    HW223001  12.474   5.609   0.435 -1.5945  1.6144 -1.9364
38714SOL     OW23002  11.874   0.845   7.212  0.3392  0.0729  0.0121
38714SOL    HW123003  11.896   0.784   7.141 -2.4504  0.2540 -1.1215
38714SOL    HW223004  11.952   0.845   7.268  1.5884 -2.2029 -1.5503
38715SOL     OW23005   0.362   5.402   5.496 -0.1755 -0.2309 -0.0393
38715SOL    HW123006   0.326   5.472   5.550 -1.0794 -0.4415 -0.3509
38715SOL    HW223007   0.429   5.361   5.551 -0.9091 -0.2913  0.8250
38716SOL     OW23008   7.574   2.472   8.416  0.8658  0.3122 -0.5861
38716SOL    HW123009   7.493   2.517   8.439  0.4022  0.2254 -1.9749
38716SOL    HW223010   7.620   2.532   8.359  0.8606 -0.4198 -1.3819
38717SOL     OW23011   4.532   3.458   9.564 -1.6168 -0.1917  0.1320
38717SOL    HW123012   4.554   3.465   9.471  1.4093 -1.4658  0.6175
38717SOL    HW223013   4.551   3.544   9.601 -0.1044 -0.4496  0.0019
38718SOL     OW23014   3.015  10.036   5.637  0.3753 -0.0448 -0.0496
38718SOL    HW123015   2.991  10.129   5.638 -0.9222 -0.3771  0.3763
38718SOL    HW223016   3.100  10.033   5.682  0.2090  0.8707  0.3456
38719SOL     OW23017   2.003   2.267   5.084  0.5444 -0.2050 -0.4756
38719SOL    HW123018   2.093   2.257   5.112  0.6417 -1.5926 -1.1535
38719SOL    HW223019   2.001   2.227   4.996 -0.8130 -0.6531 -0.2671
38720SOL     OW23020   6.934  10.158   2.875  0.2980  0.1018 -0.6626
38720SOL    HW123021   6.900  10.101   2.805  1.7696 -0.8317 -0.6543
38720SOL    HW223022   6.957  10.098   2.945 -0.9436  1.0134  0.5841
38721SOL     OW23023   5.115   8.174  11.158  0.4782  0.4100  0.1756
38721SOL    HW123024   5.121   8.091  11.110  1.4510  0.7556 -0.3298
38721SOL    HW223025   5.129   8.241  11.092  0.5281  0.9473  0.7264
38722SOL     OW23026   9.063   5.718   9.038 -0.2230  0.6034  0.4696
38722SOL    HW123027   9.050   5.679   9.124 -0.6668 -1.6320 -0.5275
38722SOL    HW223028   9.158   5.719   9.026 -0.0735  2.2041  1.4686
38723SOL     OW23029   6.344  11.400   6.825  0.1926 -0.2264 -0.2400
38723SOL    HW123030   6.366  11.427   6.914 -1.2119  0.0219  0.0535
38723SOL    HW223031   6.293  11.473   6.790  1.8818  0.2801 -1.7613
38724SOL     OW23032   7.786  11.478   9.246 -0.3919 -0.3458 -0.0321
38724SOL    HW123033   7.769  11.516   9.332  0.8976 -0.5594  0.3344
38724SOL    HW223034   7.727  11.524   9.187  0.9505  2.0902  0.4149
38725SOL     OW23035   8.477   2.457   9.239 -0.0946 -0.6526 -0.1008
38725SOL    HW123036   8.417   2.382   9.232 -1.4910  0.3254  0.7863
38725SOL    HW223037   8.437   2.524   9.184  0.2130 -0.0006  0.4631
38726SOL     OW23038   5.089   6.661  12.079 -0.6615  0.1132  0.0047
38726SOL    HW123039   5.125   6.730  12.024 -1.9045  0.3793 -0.4952
38726SOL    HW223040   5.054   6.706  12.155 -1.1324 -0.0017 -0.1413
38727SOL     OW23041   5.704  10.497  12.103  0.2945 -0.4486  0.9221
38727SOL    HW123042   5.784  10.535  12.139  0.0600 -0.6814  1.7079
38727SOL    HW223043   5.640  10.505  12.173 -0.3871 -0.2452  0.2953
38728SOL     OW23044   2.336   8.496   3.446  0.8616  0.3428 -0.2470
38728SOL    HW123045   2.319   8.575   3.497  1.8172 -0.7163  1.8483
38728SOL    HW223046   2.252   8.476   3.404 -0.0515  1.1710  1.1187
38729SOL     OW23047   5.646   2.404   7.602 -0.0526 -0.5115 -0.2537
38729SOL    HW123048   5.665   2.444   7.686 -0.1614 -0.2000 -0.3776
38729SOL    HW223049   5.701   2.325   7.600 -0.4686 -0.8258  0.3445
38730SOL     OW23050   6.560  11.448   3.466 -0.4650 -0.3488 -0.6548
38730SOL    HW123051   6.467  11.461   3.481 -0.4248 -0.8986  0.0894
38730SOL    HW223052   6.604  11.495   3.537 -0.2114 -0.9728 -0.3876
38731SOL     OW23053   9.749   6.524   0.640  0.7694 -0.1064  0.3569
38731SOL    HW123054   9.752   6.481   0.554 -2.0514  0.6747 -0.2274
38731SOL    HW223055   9.799   6.604   0.628 -1.2308  1.0034 -1.2781
38732SOL     OW23056   7.550   0.962   1.487 -0.2408  0.0826  0.4246
38732SOL    HW123057   7.576   0.968   1.395  1.8940 -0.3245  0.9382
38732SOL    HW223058   7.598   1.034   1.529  0.4207 -0.9762  1.5204
38733SOL     OW23059   0.406   4.226   5.098  0.0487 -0.1252  0.4302
38733SOL    HW123060   0.485   4.201   5.145  0.3211  0.4889  0.3056
38733SOL    HW223061   0.404   4.170   5.021  0.5916  0.1556  0.2112
38734SOL     OW23062   7.015   5.140   1.106 -0.6168  0.1106 -0.1660
38734SOL    HW123063   7.057   5.146   1.192  1.0629 -1.1432 -0.8149
38734SOL    HW223064   7.088   5.143   1.044 -1.4861 -1.8291 -1.3976
38735SOL     OW23065   7.680   0.402  10.896  0.4348  0.0018 -0.4346
38735SOL    HW123066   7.681   0.490  10.933  0.1293  1.0265 -2.7276
38735SOL    HW223067   7.646   0.347  10.967 -0.1201  1.8202  0.7884
38736SOL     OW23068   0.980   6.672   9.288 -0.1700 -0.3226  0.4436
38736SOL    HW123069   1.016   6.667   9.199  0.7984 -0.9314  0.8595
38736SOL    HW223070   0.903   6.616   9.285 -0.1712 -0.3047 -0.0227
38737SOL     OW23071   8.563   3.167   5.045  0.2445  0.1917  0.4783
38737SOL    HW123072   8.618   3.241   5.018 -0.7909  0.6620 -0.3918
38737SOL    HW223073   8.619   3.090   5.033  1.6856  0.8603  2.3137
38738SOL     OW23074   3.995   8.637   5.503 -0.0559 -0.4248  0.2508
38738SOL    HW123075   4.068   8.645   5.565  0.6419 -0.6737 -0.5279
38738SOL    HW223076   4.022   8.688   5.427 -1.1421  0.3304  0.3324
38739SOL     OW23077   7.477   4.298   6.718  0.1486  0.0503 -0.4982
38739SOL    HW123078   7.491   4.229   6.782 -1.4405  0.7642  0.6894
38739SOL    HW223079   7.534   4.275   6.644  1.0317 -1.4995  0.6166
38740SOL     OW23080   9.803   8.295   6.141 -0.2346  0.5023  0.1312
38740SOL    HW123081   9.723   8.340   6.167  1.5089  3.1181  1.3213
38740SOL    HW223082   9.801   8.295   6.045 -2.7749 -1.7883  0.0563
38741SOL     OW23083   6.580   4.060   8.653  0.4063  1.0138 -0.7261
38741SOL    HW123084   6.561   4.039   8.744  0.3116 -0.5267 -1.0795
38741SOL    HW223085   6.568   3.978   8.606  1.3580  1.5565 -1.9935
38742SOL     OW23086   7.157   6.956   1.951  0.3372  0.2797 -0.0278
38742SOL    HW123087   7.062   6.949   1.956  0.2724  1.4233  1.1958
38742SOL    HW223088   7.179   6.936   1.860 -0.9423 -1.1846 -0.0362
38743SOL     OW23089   8.267  10.354   9.611 -0.5357  0.1085 -0.1691
38743SOL    HW123090   8.229  10.337   9.697 -1.8779  1.2822 -0.4945
38743SOL    HW223091   8.317  10.275   9.591  1.6063  0.5941  2.5784
38744SOL     OW23092  12.431   5.714  10.635 -0.7213  0.3190 -0.3913
38744SOL    HW123093  12.517   5.727  10.594  0.1466  1.7283  1.7567
38744SOL    HW223094  12.369   5.741  10.567  0.4306 -1.2947 -2.2203
38745SOL     OW23095  10.345   4.195   9.642 -0.3559  0.1427  0.2901
38745SOL    HW123096  10.280   4.144   9.593 -0.4275 -0.6874  1.2185
38745SOL    HW223097  10.422   4.195   9.585 -0.9867  0.6655 -0.5765
38746SOL     OW23098   4.628   3.305   5.129  0.4236 -0.0256 -0.2478
38746SOL    HW123099   4.713   3.324   5.088  0.4938  0.1644 -0.0113
38746SOL    HW223100   4.574   3.273   5.057  0.1887  1.3936 -0.7281
38747SOL     OW23101  11.613   3.899  11.271 -0.0019 -0.1720 -0.0703
38747SOL    HW123102  11.543   3.965  11.271 -0.3973 -0.5224  2.1774
38747SOL    HW223103  11.685   3.940  11.320  0.2939 -0.8684  0.0908
38748SOL     OW23104   3.883  10.529   0.990 -0.0819 -0.6320  0.1421
38748SOL    HW123105   3.895  10.610   0.940  1.2006  1.2734  3.2909
38748SOL    HW223106   3.796  10.538   1.029 -0.8000 -1.8133 -1.0746
38749SOL     OW23107   2.241   2.405   2.684  0.5618  0.0920 -0.4926
38749SOL    HW123108   2.219   2.498   2.680  0.5694  0.0357 -2.5841
38749SOL    HW223109   2.319   2.401   2.739  0.1194  1.2012  0.2638
38750SOL     OW23110   5.446   2.202   3.574 -0.1724  0.2729  0.7430
38750SOL    HW123111   5.445   2.260   3.650 -0.1117  2.6465 -0.9527
38750SOL    HW223112   5.355   2.199   3.544 -0.0550  0.0710  0.4011
38751SOL     OW23113   3.255   3.258   0.808 -0.6723 -0.0955 -0.0981
38751SOL    HW123114   3.323   3.233   0.745 -1.7969 -0.0233 -1.4066
38751SOL    HW223115   3.248   3.353   0.799 -1.5763 -0.2032 -0.6777
38752SOL     OW23116   1.345  10.130  11.446 -0.4107 -0.7236  0.2764
38752SOL    HW123117   1.293  10.147  11.525 -1.4637  1.5443 -0.7973
38752SOL    HW223118   1.430  10.168  11.465 -1.1342  1.2478 -0.1583
38753SOL     OW23119   7.937   1.694  10.823  0.6505  0.0961  0.4378
38753SOL    HW123120   7.922   1.787  10.807  0.4714 -0.2020 -1.2801
38753SOL    HW223121   7.850   1.655  10.821  0.7887 -0.2144  0.4015
38754SOL     OW23122   8.541   7.790   2.882 -0.2580 -0.3035  0.4325
38754SOL    HW123123   8.605   7.784   2.953 -0.0507 -2.1706  0.1384
38754SOL    HW223124   8.590   7.766   2.804 -0.4962  1.6722 -0.3944
38755SOL     OW23125  10.545   6.291   2.850  0.4559 -0.3452  0.4770
38755SOL    HW123126  10.528   6.201   2.879 -1.9435 -0.7540 -1.7517
38755SOL    HW223127  10.474   6.342   2.890 -0.1197 -0.0880 -0.8247
38756SOL     OW23128   1.764  12.384   0.857  0.5318 -0.9655  0.1579
38756SOL    HW123129   1.829  12.325   0.820  0.5217 -0.8085 -0.1126
38756SOL    HW223130   1.754  12.355   0.948  1.2853 -0.7254  0.3222
38757SOL     OW23131   0.113   2.487   4.071  0.7269  0.0852  0.0584
38757SOL    HW123132   0.049   2.509   4.003  0.3022  3.3582  1.3414
38757SOL    HW223133   0.185   2.446   4.023 -0.5439  0.1030 -2.0043
38758SOL     OW23134   8.622   1.781   0.606 -0.2789  0.1544 -0.2356
38758SOL    HW123135   8.659   1.869   0.614  0.7371 -0.3213  0.4371
38758SOL    HW223136   8.607   1.753   0.696  2.4820 -1.6118 -0.2117
38759SOL     OW23137   0.416   3.226   0.284  0.2685  0.5630 -0.0398
38759SOL    HW123138   0.388   3.185   0.366 -0.7508  0.9330 -0.1854
38759SOL    HW223139   0.503   3.260   0.303  0.3738 -0.0575  0.6442
38760SOL     OW23140   1.714   0.006   1.337 -0.0350 -0.2488 -0.1318
38760SOL    HW123141   1.695   0.057   1.258 -0.2315 -1.1525 -0.6821
38760SOL    HW223142   1.748  -0.077   1.305  1.7135  0.0463  0.7721
38761SOL     OW23143   6.004   0.604   1.520  0.0941 -0.0797  0.0300
38761SOL    HW123144   6.074   0.639   1.576 -0.7799  0.3237  0.9082
38761SOL    HW223145   6.024   0.511   1.512 -0.0329 -0.2565  1.4543
38762SOL     OW23146   6.058  10.465   4.680  0.1769 -0.2177 -0.1688
38762SOL    HW123147   5.966  10.445   4.698 -0.3053  1.2218 -0.8705
38762SOL    HW223148   6.075  10.424   4.596  0.5008 -1.3867  0.4562
38763SOL     OW23149   4.721  11.992   6.835 -0.0657  0.5972 -0.0697
38763SOL    HW123150   4.742  11.905   6.869  0.0911  0.6910  0.0734
38763SOL    HW223151   4.700  11.977   6.742  0.1237  0.4290 -0.0865
38764SOL     OW23152   5.931   3.428   7.109  0.0037  0.1868  0.3885
38764SOL    HW123153   5.975   3.507   7.140 -1.8627  0.8420  1.5305
38764SOL    HW223154   5.907   3.381   7.189 -2.0353  0.2627 -0.1321
38765SOL     OW23155   3.238   0.492   6.611  0.2360  0.1478  0.1946
38765SOL    HW123156   3.308   0.461   6.669  2.8148 -1.3951 -3.3727
38765SOL    HW223157   3.255   0.448   6.528 -1.7285  3.9239 -2.4929
38766SOL     OW23158   3.424   2.570  11.079  0.6772  0.4494 -0.3571
38766SOL    HW123159   3.455   2.624  11.007 -0.8948 -0.6220 -1.9156
38766SOL    HW223160   3.435   2.480  11.048 -1.5274 -0.0048  0.0417
38767SOL     OW23161   3.559   6.205   0.892 -0.1575 -0.7414  0.1559
38767SOL    HW123162   3.556   6.167   0.980  1.2837 -1.3624 -0.0400
38767SOL    HW223163   3.484   6.264   0.889  0.3775  0.1129  2.1859
38768SOL     OW23164   3.951   4.450  10.666  0.5888  0.1285  0.4456
38768SOL    HW123165   3.923   4.511  10.597 -0.9504 -1.8009 -0.7415
38768SOL    HW223166   3.907   4.482  10.745  1.3819  1.6486  0.3147
38769SOL     OW23167   3.686  10.945   4.608 -0.7753 -0.3174 -0.5113
38769SOL    HW123168   3.775  10.912   4.606 -0.7463 -0.2344 -2.1955
38769SOL    HW223169   3.662  10.956   4.516 -2.0915  0.8199 -0.0783
38770SOL     OW23170   5.057   8.240   0.352 -0.0065  0.1055 -0.2960
38770SOL    HW123171   5.053   8.146   0.335 -0.3749  0.0400  0.1249
38770SOL    HW223172   5.016   8.280   0.276 -1.8439 -0.1962  0.4771
38771SOL     OW23173   6.247   0.436   2.128 -0.4722 -0.1890 -0.4094
38771SOL    HW123174   6.302   0.474   2.059 -1.5875  0.4043 -1.0003
38771SOL    HW223175   6.159   0.433   2.090 -0.8464 -1.1769  0.4928
38772SOL     OW23176   5.085   7.615   3.073  0.2974  0.2176 -0.3813
38772SOL    HW123177   5.044   7.567   3.001 -0.6899 -0.0617  0.3486
38772SOL    HW223178   5.024   7.606   3.146  1.2962  0.4721  0.5081
38773SOL     OW23179   0.687   6.958   6.471 -0.2142  0.2579 -0.3398
38773SOL    HW123180   0.673   7.035   6.415 -2.3377 -1.5654 -2.5442
38773SOL    HW223181   0.774   6.926   6.446 -0.5523  0.2782 -1.6124
38774SOL     OW23182   8.810   2.677   6.896 -0.4413  0.4786  0.0557
38774SOL    HW123183   8.886   2.709   6.944 -0.2756 -0.1352  0.2221
38774SOL    HW223184   8.827   2.583   6.886 -2.2303 -0.1491  2.1263
38775SOL     OW23185   2.535   2.284   9.765  0.3187 -0.0440 -0.5635
38775SOL    HW123186   2.531   2.254   9.856 -0.0280 -2.1872 -1.2389
38775SOL    HW223187   2.542   2.379   9.772  1.1512 -0.2075  1.7107
38776SOL     OW23188   4.281   7.967   0.202 -0.1047  0.2655 -0.5954
38776SOL    HW123189   4.319   7.912   0.133 -0.1253 -0.8218  0.2194
38776SOL    HW223190   4.296   7.917   0.282 -1.2215  0.8859  0.0260
38777SOL     OW23191   1.324   9.773   1.065  0.8512 -0.7087  0.4465
38777SOL    HW123192   1.289   9.827   0.994  1.0497 -2.0156 -0.6972
38777SOL    HW223193   1.302   9.683   1.040  0.4060 -1.1777  2.3625
38778SOL     OW23194   7.511  10.507   0.508 -0.3122  0.4952  0.5559
38778SOL    HW123195   7.457  10.434   0.539 -1.4254  0.3015 -1.6487
38778SOL    HW223196   7.494  10.577   0.571 -1.3271 -0.3061  1.2184
38779SOL     OW23197   6.667   8.395  12.475 -0.5662 -0.0810 -0.3970
38779SOL    HW123198   6.574   8.388  12.452 -0.8147 -0.0743  0.5314
38779SOL    HW223199   6.670   8.374  12.569  0.4556 -0.6737 -0.5457
38780SOL     OW23200   0.796   3.560   5.042  0.5100  0.3674  0.2658
38780SOL    HW123201   0.749   3.571   4.959 -0.5853  2.5681  1.1117
38780SOL    HW223202   0.816   3.467   5.045 -2.6953 -0.4931 -0.7631
38781SOL     OW23203   6.654   7.038   1.750  0.6188  0.3396 -0.1625
38781SOL    HW123204   6.625   6.957   1.709  0.4224  0.4822 -0.3085
38781SOL    HW223205   6.730   7.013   1.802 -0.5539 -0.2938  1.3057
38782SOL     OW23206   2.081  10.196   8.748 -0.2038 -0.0797  0.1938
38782SOL    HW123207   1.998  10.149   8.760 -0.5061  0.4849  0.3661
38782SOL    HW223208   2.093  10.199   8.653  0.2065 -1.1522  0.1954
38783SOL     OW23209   8.275   6.849   4.020  0.0564  0.0680 -0.3367
38783SOL    HW123210   8.230   6.840   3.936  0.2082  2.0598 -0.6940
38783SOL    HW223211   8.205   6.846   4.085 -0.1188 -0.9650 -0.5604
38784SOL     OW23212   9.310   0.431   4.848 -0.2605  0.9037  0.5278
38784SOL    HW123213   9.326   0.523   4.825 -3.0508  1.4002  0.2121
38784SOL    HW223214   9.245   0.434   4.918  0.0895 -0.8478  0.9804
38785SOL     OW23215   6.611   1.545   5.565  0.5020 -0.5407 -0.6250
38785SOL    HW123216   6.661   1.626   5.556  0.4377 -0.4756 -0.3794
38785SOL    HW223217   6.520   1.571   5.559  0.2544 -0.0700  2.9811
38786SOL     OW23218   2.944   0.732   7.088  0.0581  0.1158  0.0403
38786SOL    HW123219   2.984   0.649   7.063  1.8949  0.9127  0.1891
38786SOL    HW223220   2.877   0.708   7.152  0.0310 -1.3028 -0.4872
38787SOL     OW23221   5.509   0.515   6.551 -0.2354  0.2538 -0.3147
38787SOL    HW123222   5.532   0.497   6.643 -1.0781  0.4529 -0.0524
38787SOL    HW223223   5.504   0.611   6.546  2.0239  0.3690 -1.1451
38788SOL     OW23224   1.167   9.179   8.514 -0.3870 -0.0496  0.0717
38788SOL    HW123225   1.247   9.157   8.561 -0.6138  0.2629  0.6164
38788SOL    HW223226   1.128   9.250   8.566 -1.2615 -0.5282  0.0841
38789SOL     OW23227   8.420  10.325   2.520  0.0861 -0.2304  0.4411
38789SOL    HW123228   8.449  10.325   2.611  0.6473  3.1171  0.4209
38789SOL    HW223229   8.346  10.386   2.519  0.0757 -0.2254 -1.3252
38790SOL     OW23230  11.298  10.328   5.667 -0.0317 -0.0510  0.0667
38790SOL    HW123231  11.278  10.247   5.715  2.8886 -0.3986  0.8622
38790SOL    HW223232  11.260  10.314   5.580 -0.4072 -1.8782  0.4810
38791SOL     OW23233   0.600   1.014  12.055 -0.1383  0.1129 -0.6604
38791SOL    HW123234   0.529   0.971  12.102  0.0540  0.3056 -0.1947
38791SOL    HW223235   0.666   0.945  12.044 -0.0551  0.1493 -0.3842
38792SOL     OW23236   9.812   3.432   9.629  0.0377  0.2455 -0.3347
38792SOL    HW123237   9.739   3.489   9.654 -0.2550  0.3631 -1.4151
38792SOL    HW223238   9.888   3.491   9.622  0.2623  0.1136  0.8458
38793SOL     OW23239  11.449  11.276   2.183 -0.2142  0.2238  0.2399
38793SOL    HW123240  11.499  11.295   2.104  0.4056  1.3272  0.8619
38793SOL    HW223241  11.357  11.281   2.156 -0.0079  0.7256 -0.3792
38794SOL     OW23242   6.026   6.670   8.054 -0.4531  0.0821 -0.1809
38794SOL    HW123243   6.059   6.622   8.130  0.1878  0.5943 -0.1279
38794SOL    HW223244   6.104   6.710   8.016 -0.9332  0.7894 -0.4211
38795SOL     OW23245   8.402   9.618   7.886 -0.6547  0.0088 -0.1499
38795SOL    HW123246   8.411   9.678   7.813  2.3808 -0.0141  0.1041
38795SOL    HW223247   8.468   9.646   7.949  0.2866 -2.9681  0.3680
38796SOL     OW23248  10.031   5.878  10.085 -0.2134 -0.2961 -0.1080
38796SOL    HW123249  10.060   5.885   9.994 -1.3563 -0.9203 -0.5329
38796SOL    HW223250  10.018   5.785  10.099 -0.7736 -0.1382  0.4604
38797SOL     OW23251  11.360  10.872   5.423  0.0895 -0.4893 -0.2635
38797SOL    HW123252  11.264  10.868   5.424  0.0716 -0.1267 -0.3375
38797SOL    HW223253  11.388  10.780   5.423 -0.2281 -0.6389  1.8151
38798SOL     OW23254   6.138   4.535   0.534 -0.2490  0.0128  0.4902
38798SOL    HW123255   6.081   4.486   0.475 -1.0065 -0.5962  1.6713
38798SOL    HW223256   6.164   4.612   0.484 -2.1971  0.3598 -0.0714
38799SOL     OW23257   6.398   9.031   3.000  0.2563 -0.1922 -0.1081
38799SOL    HW123258   6.430   8.993   2.918  0.5778 -0.7782  0.2849
38799SOL    HW223259   6.313   8.989   3.014  0.7308 -0.9689  0.4631
38800SOL     OW23260   8.289   9.545   2.605 -0.0437 -0.2441  0.1479
38800SOL    HW123261   8.329   9.463   2.577 -0.2406 -0.3497  0.1770
38800SOL    HW223262   8.363   9.604   2.621  0.1270 -0.6550  0.8878
38801SOL     OW23263   8.473   0.236   4.233 -0.1621 -0.2825 -0.0150
38801SOL    HW123264   8.552   0.283   4.205 -0.3965  0.5241  0.6506
38801SOL    HW223265   8.479   0.152   4.188  0.2150  0.4104 -1.3198
38802SOL     OW23266  11.211   1.037  12.024  0.2951 -0.1954 -0.2166
38802SOL    HW123267  11.129   1.085  12.027  0.5883  0.3356 -0.4962
38802SOL    HW223268  11.224   1.005  12.113 -0.9538 -1.5782 -0.4747
38803SOL     OW23269   8.304   7.202   0.473  0.3329 -0.1713  0.0112
38803SOL    HW123270   8.245   7.242   0.408 -1.9167 -1.8493  0.8857
38803SOL    HW223271   8.315   7.269   0.540 -1.1209 -0.0317  0.1326
38804SOL     OW23272   5.588   6.948  12.408 -0.3345 -0.1389  0.2911
38804SOL    HW123273   5.643   6.955  12.486 -0.0812  0.1104  0.0909
38804SOL    HW223274   5.649   6.923  12.338 -0.4196  0.4697 -0.0031
38805SOL     OW23275   0.764  10.077   7.372  0.2878 -0.2494  0.1027
38805SOL    HW123276   0.686  10.023   7.382  0.2598 -0.9354 -2.9644
38805SOL    HW223277   0.805  10.076   7.458 -1.9544 -1.6084  1.2377
38806SOL     OW23278   7.994   6.558   5.599 -0.2213  0.0153 -0.9501
38806SOL    HW123279   7.901   6.546   5.577 -0.1427 -0.1802 -1.1722
38806SOL    HW223280   7.993   6.575   5.693 -0.4089 -0.9463 -0.7606
38807SOL     OW23281   4.664   1.610   1.381  0.0770  0.8921  0.1998
38807SOL    HW123282   4.570   1.622   1.392 -0.3038  0.3649 -1.9317
38807SOL    HW223283   4.703   1.638   1.464 -1.9950  0.5133  1.3409
38808SOL     OW23284  10.761   1.749  11.503 -0.0174 -0.2605 -0.8181
38808SOL    HW123285  10.743   1.786  11.417  0.9148 -1.0848 -1.3844
38808SOL    HW223286  10.827   1.682  11.488  0.1051 -0.4849  0.5301
38809SOL     OW23287  11.700   6.276   1.338 -0.6023 -0.6632  0.1066
38809SOL    HW123288  11.699   6.368   1.362  2.5319 -0.7062  0.8440
38809SOL    HW223289  11.719   6.275   1.245 -2.1356 -0.6061 -0.2345
38810SOL     OW23290   4.642   4.320   7.433 -0.1128  0.5190 -0.4345
38810SOL    HW123291   4.611   4.305   7.344 -0.1671  2.0792 -0.7075
38810SOL    HW223292   4.701   4.396   7.425 -2.0705  2.3362  1.2163
38811SOL     OW23293   3.822   6.595   5.867  0.1521  0.2127 -0.0810
38811SOL    HW123294   3.733   6.561   5.876  0.1218  0.6832  1.7341
38811SOL    HW223295   3.852   6.561   5.782 -2.1242  0.9823 -1.2709
38812SOL     OW23296   4.884   5.765   5.147  0.2554 -0.1081  0.5888
38812SOL    HW123297   4.937   5.760   5.067 -0.9345  0.4015 -0.2610
38812SOL    HW223298   4.935   5.820   5.206  1.3927 -0.9080  0.3917
38813SOL     OW23299   2.607   2.906   1.990  0.9077  0.1705  0.3935
38813SOL    HW123300   2.602   3.001   2.003  0.0033  0.1341  0.4113
38813SOL    HW223301   2.523   2.873   2.024  0.1228 -0.3461 -1.8502
38814SOL     OW23302   0.649   9.131   1.279 -0.1166 -0.1128  0.3788
38814SOL    HW123303   0.630   9.176   1.362  2.6327  0.1717  0.9702
38814SOL    HW223304   0.697   9.196   1.228 -2.5499  0.0322 -1.9234
38815SOL     OW23305   9.918   8.529   4.610  0.2222 -0.2954  0.7395
38815SOL    HW123306   9.996   8.581   4.627  0.2116 -0.3914  1.0993
38815SOL    HW223307   9.851   8.594   4.585  0.2379 -0.1445  1.0817
38816SOL     OW23308   8.542   8.011   6.027 -0.8541  0.2481 -0.1051
38816SOL    HW123309   8.588   7.927   6.024 -0.2215  0.4746  2.0378
38816SOL    HW223310   8.540   8.040   5.936  0.4310 -1.2661 -0.6628
38817SOL     OW23311   2.586   8.221   6.893  0.0761 -0.0652 -0.3897
38817SOL    HW123312   2.578   8.277   6.970  1.5028 -1.1211  0.5747
38817SOL    HW223313   2.523   8.151   6.908 -0.1986  0.1417 -0.5678
38818SOL     OW23314   9.325   0.389   7.016  0.1481 -0.5912 -0.7489
38818SOL    HW123315   9.421   0.389   7.027  0.3386  0.7640 -2.0531
38818SOL    HW223316   9.297   0.473   7.052 -0.3896 -0.4586 -1.4482
38819SOL     OW23317   0.580   1.447   9.827 -0.7777 -0.0527  0.1476
38819SOL    HW123318   0.546   1.407   9.907 -2.1597  0.2119 -0.2685
38819SOL    HW223319   0.624   1.375   9.781 -1.1834 -0.5379  0.5015
38820SOL     OW23320  11.627   3.394   4.984  0.6193 -0.4829 -0.1125
38820SOL    HW123321  11.679   3.441   4.919  2.2347  0.4757  1.7629
38820SOL    HW223322  11.537   3.400   4.952  1.1503  1.3900 -1.4353
38821SOL     OW23323   4.651   7.029   2.289 -0.0810 -0.1611  0.3411
38821SOL    HW123324   4.623   6.940   2.312  0.6443 -0.6952 -0.7048
38821SOL    HW223325   4.584   7.086   2.325 -2.6457 -1.3481 -2.1273
38822SOL     OW23326   3.991   7.533   2.336  0.3590 -0.4836 -0.3610
38822SOL    HW123327   4.081   7.536   2.368  0.1422 -0.1212  0.2291
38822SOL    HW223328   3.946   7.474   2.396  0.0027  0.0119 -0.1398
38823SOL     OW23329  11.349  10.328   8.708 -0.1858  0.2960 -0.3363
38823SOL    HW123330  11.328  10.249   8.659  0.7850  0.4038 -0.9579
38823SOL    HW223331  11.341  10.302   8.800  2.4207 -1.2585 -0.4385
38824SOL     OW23332  12.157   2.206   9.824 -0.2951 -0.0119 -0.3054
38824SOL    HW123333  12.248   2.188   9.847 -0.2308  0.9999  0.3125
38824SOL    HW223334  12.156   2.212   9.729  0.3092  0.0748 -0.3067
38825SOL     OW23335   0.260   5.592   0.779  0.0966 -0.3565  0.0412
38825SOL    HW123336   0.242   5.592   0.685 -1.9826  0.8360  0.3666
38825SOL    HW223337   0.214   5.515   0.812 -2.4255  1.2422  0.5154
38826SOL     OW23338   5.480   2.910   7.156 -0.0582 -0.5665 -0.1507
38826SOL    HW123339   5.447   2.962   7.083  0.7510  0.7246  0.3437
38826SOL    HW223340   5.426   2.936   7.230  0.6470 -0.0439  0.1993
38827SOL     OW23341   7.185  12.194   0.419 -0.1339  0.0390 -0.2485
38827SOL    HW123342   7.220  12.190   0.330 -0.6067  0.2961 -0.4505
38827SOL    HW223343   7.109  12.135   0.417 -0.3750  0.3441 -0.1224
38828SOL     OW23344   5.186  10.484  12.254 -0.0527  0.2992 -0.0929
38828SOL    HW123345   5.216  10.564  12.297 -0.7248  0.6086 -0.1861
38828SOL    HW223346   5.259  10.458  12.197  0.4349  0.4567  0.4563
38829SOL     OW23347   8.544  12.418   8.434  1.0020  0.5525 -0.2045
38829SOL    HW123348   8.484  12.469   8.488  0.7780  1.9797 -1.7560
38829SOL    HW223349   8.511  12.427   8.345  1.5455 -1.5022 -0.6646
38830SOL     OW23350   1.243   1.918  12.070 -1.1180  0.1184  0.2073
38830SOL    HW123351   1.317   1.930  12.010 -1.3911  1.4168  0.1104
38830SOL    HW223352   1.266   1.839  12.120  1.1450  1.3674  1.3106
38831SOL     OW23353   3.965   5.783   5.872 -0.2091 -0.2024  0.2962
38831SOL    HW123354   3.951   5.700   5.918 -0.5780 -0.9836 -1.1781
38831SOL    HW223355   3.878   5.823   5.868 -0.3054 -0.4618 -0.3067
38832SOL     OW23356   1.813   4.947   6.634 -0.5373  0.9647 -0.2855
38832SOL    HW123357   1.875   5.000   6.583  1.9110  0.0087  1.5005
38832SOL    HW223358   1.846   4.858   6.626 -2.0645  0.3164  0.2640
38833SOL     OW23359   2.198   1.178   0.914 -0.1681  0.3085 -0.5987
38833SOL    HW123360   2.141   1.103   0.898 -0.3876  0.6723 -1.5911
38833SOL    HW223361   2.238   1.196   0.829 -0.2198  1.3881 -0.4091
38834SOL     OW23362   0.663   8.759   9.321 -0.4227  0.0906  0.3534
38834SOL    HW123363   0.569   8.753   9.305 -0.5893  0.8232  1.0043
38834SOL    HW223364   0.676   8.847   9.357  0.6889  0.4758 -0.9163
38835SOL     OW23365   0.635   9.001   7.340  0.4162 -0.1447 -0.4749
38835SOL    HW123366   0.715   9.007   7.394  0.7692 -0.2119 -0.9864
38835SOL    HW223367   0.657   9.046   7.259 -0.8057  1.8360  0.2264
38836SOL     OW23368   8.607   8.588  12.073  0.2801 -0.3124 -0.0955
38836SOL    HW123369   8.667   8.515  12.092  1.3218  0.6418  0.3726
38836SOL    HW223370   8.530   8.569  12.127  0.8528 -0.6831  0.6148
38837SOL     OW23371   7.380   6.017  10.845  0.0387  0.5711  0.7161
38837SOL    HW123372   7.343   5.942  10.799 -0.8508  1.0367  0.6395
38837SOL    HW223373   7.420   5.980  10.923  1.6598 -0.2432 -0.4541
38838SOL     OW23374   7.326  11.602  11.121 -0.1346  0.1202  0.2445
38838SOL    HW123375   7.373  11.529  11.082  0.7226  0.8093 -0.0342
38838SOL    HW223376   7.321  11.580  11.214 -0.8778 -0.8172 -0.0009
38839SOL     OW23377   0.288   6.608  11.551 -0.8680  0.2166 -0.3270
38839SOL    HW123378   0.243   6.554  11.486 -2.7970  1.6957 -0.3394
38839SOL    HW223379   0.217   6.640  11.607  0.6851 -0.6094  2.2408
38840SOL     OW23380   1.348   5.919   2.498  0.1891 -0.1871  0.0837
38840SOL    HW123381   1.386   6.004   2.519  1.3448 -0.6877  0.1251
38840SOL    HW223382   1.316   5.928   2.408 -2.6885  1.2609  1.1552
38841SOL     OW23383   2.599   6.475   0.197  0.3130  0.2190 -0.2516
38841SOL    HW123384   2.543   6.543   0.235  0.4126 -0.0872  0.4572
38841SOL    HW223385   2.538   6.412   0.159  0.1172 -0.6285  1.3988
38842SOL     OW23386   5.920   7.008  10.953  0.0487  1.0520 -0.0355
38842SOL    HW123387   5.908   7.009  11.048 -0.0520  3.2018 -0.0247
38842SOL    HW223388   5.832   7.020  10.917  0.0812  0.2109 -0.4259
38843SOL     OW23389  10.668   8.723   9.493  0.4470 -0.2247 -0.1408
38843SOL    HW123390  10.709   8.637   9.505  0.0519 -0.0931  2.8293
38843SOL    HW223391  10.720   8.782   9.548 -2.7385  0.1987  2.7217
38844SOL     OW23392   2.144   4.058   2.632 -0.1559  0.5742 -0.7090
38844SOL    HW123393   2.156   4.087   2.541 -0.8833 -0.2393 -1.0877
38844SOL    HW223394   2.232   4.039   2.663  0.0084 -0.6956 -1.8105
38845SOL     OW23395   1.529   7.356   3.041  0.1428 -0.1878  0.1797
38845SOL    HW123396   1.541   7.337   2.948  0.1649 -1.1808  0.3758
38845SOL    HW223397   1.442   7.323   3.061  0.4131 -0.6240  0.6618
38846SOL     OW23398   2.274   1.187   1.253  0.2337 -0.4792  0.4410
38846SOL    HW123399   2.236   1.154   1.334 -2.2906  1.2022  0.0412
38846SOL    HW223400   2.340   1.250   1.281  1.0450 -1.6105  1.1521
38847SOL     OW23401   0.663   9.739   8.071 -0.1676 -0.8226  0.4923
38847SOL    HW123402   0.696   9.803   8.134  0.9767  0.0171 -0.8800
38847SOL    HW223403   0.571   9.764   8.057  0.6737  1.6943 -1.2700
38848SOL     OW23404   4.159   3.653  11.117 -0.0494 -0.8536  0.0891
38848SOL    HW123405   4.218   3.717  11.078  0.6280  0.1689  2.5348
38848SOL    HW223406   4.212   3.574  11.127  0.0985 -0.7754 -0.0733
38849SOL     OW23407  12.024   7.186   8.943  0.2143  0.1633 -0.4890
38849SOL    HW123408  11.970   7.128   8.996  0.3010  1.2966  0.9086
38849SOL    HW223409  11.961   7.233   8.889  0.1055 -0.8492 -1.2730
38850SOL     OW23410   4.851   9.650  11.258  0.3303 -0.5887 -0.3529
38850SOL    HW123411   4.935   9.685  11.230  0.9445 -1.0850  0.7853
38850SOL    HW223412   4.796   9.727  11.271  0.9685 -0.1828 -0.0151
38851SOL     OW23413   1.061   7.852   1.116 -0.3485  0.4180 -0.6321
38851SOL    HW123414   1.151   7.864   1.145  0.1985 -1.6699 -1.3035
38851SOL    HW223415   1.030   7.940   1.098  1.2339  1.2690  0.5129
38852SOL     OW23416   9.497   2.266   1.403  0.1114  0.6249  0.0289
38852SOL    HW123417   9.522   2.175   1.388  0.6607  0.5033  1.5265
38852SOL    HW223418   9.408   2.273   1.366  0.3868 -0.2733 -0.8412
38853SOL     OW23419   0.079   4.031   2.700  0.2740 -0.0550  0.0923
38853SOL    HW123420   0.130   3.950   2.697 -0.0130 -0.2139 -0.6104
38853SOL    HW223421   0.113   4.084   2.628 -0.3266 -0.0197 -0.1653
38854SOL     OW23422  11.986   0.559   1.418  0.1111 -0.9685  0.6966
38854SOL    HW123423  12.048   0.579   1.348  1.0135 -1.4660  1.3386
38854SOL    HW223424  11.941   0.642   1.434  1.2362 -0.3688  0.8245
38855SOL     OW23425  11.920   0.419   4.781 -0.4240  0.6808  0.4202
38855SOL    HW123426  11.924   0.402   4.875 -0.2536 -1.4282  0.0911
38855SOL    HW223427  11.831   0.452   4.767 -2.4534 -3.8187  0.7850
38856SOL     OW23428  10.072   8.930  10.371 -0.6437  0.5978  0.1387
38856SOL    HW123429  10.131   8.990  10.417 -0.3077  0.1343  0.3205
38856SOL    HW223430  10.129   8.878  10.315 -0.9036  0.2740  0.1701
38857SOL     OW23431   7.982  11.634  12.371 -0.4633  0.5234  0.2313
38857SOL    HW123432   7.975  11.723  12.405 -1.7742  0.8504 -0.8216
38857SOL    HW223433   7.991  11.645  12.276  1.1644 -0.4320  0.2370
38858SOL     OW23434   7.535  11.823   8.649 -0.2271  0.0885  0.1069
38858SOL    HW123435   7.575  11.884   8.587  0.7295 -1.0752 -0.4732
38858SOL    HW223436   7.441  11.840   8.643 -0.2563 -0.5814 -2.3515
38859SOL     OW23437   5.367   2.553  10.067  0.1142 -0.2100 -0.1380
38859SOL    HW123438   5.434   2.569  10.001 -1.0033  0.3329 -1.1745
38859SOL    HW223439   5.377   2.460  10.090 -0.0255 -0.6364 -1.7251
38860SOL     OW23440   9.282   7.817  10.452 -0.7086 -0.5174  0.7022
38860SOL    HW123441   9.364   7.769  10.451  1.3198  2.6796  0.2485
38860SOL    HW223442   9.233   7.782  10.378  1.0123 -1.2736 -0.1283
38861SOL     OW23443   9.338   4.367   5.092  0.2497 -0.5429 -0.2269
38861SOL    HW123444   9.296   4.420   5.160 -4.5303 -1.9240 -1.7146
38861SOL    HW223445   9.320   4.415   5.011  0.5880 -1.7912 -1.0568
38862SOL     OW23446   7.335   2.940   3.532  0.0488 -0.2642  0.2580
38862SOL    HW123447   7.396   2.950   3.459  0.0879 -0.1577  0.3059
38862SOL    HW223448   7.356   2.855   3.570 -0.4509 -0.6532 -0.3072
38863SOL     OW23449  12.348   4.674  11.792 -0.0295  0.5721  0.2412
38863SOL    HW123450  12.318   4.619  11.720  1.1215 -0.6756  0.6835
38863SOL    HW223451  12.443   4.680  11.781 -0.0914  2.3721  0.2933
38864SOL     OW23452   4.956   2.721   2.925 -0.4674  0.0349 -0.1015
38864SOL    HW123453   5.040   2.680   2.908 -0.5847 -0.5755  0.7511
38864SOL    HW223454   4.977   2.800   2.975 -0.4408 -0.4652  0.6889
38865SOL     OW23455   4.183   6.866   9.432 -0.5908 -0.3991  0.5101
38865SOL    HW123456   4.248   6.828   9.373  0.1032  0.3497  0.7629
38865SOL    HW223457   4.182   6.809   9.508  0.3076 -0.0316  0.8110
38866SOL     OW23458   7.966   7.622   1.836  0.1382 -0.4797  0.0733
38866SOL    HW123459   8.007   7.658   1.758  0.1073  2.4477  1.2951
38866SOL    HW223460   8.024   7.646   1.908 -1.0283 -0.9901  1.2343
38867SOL     OW23461   3.760   7.548   2.838  0.4545 -0.1735 -0.4025
38867SOL    HW123462   3.705   7.610   2.887 -0.5294 -1.4687  0.1825
38867SOL    HW223463   3.819   7.512   2.904  3.4562  2.5888 -1.3374
38868SOL     OW23464  10.679   3.307  12.287  0.2495 -0.0493  0.3517
38868SOL    HW123465  10.714   3.255  12.215 -0.4734 -0.6528  0.4229
38868SOL    HW223466  10.603   3.352  12.249  1.3435  1.6492  0.0541
38869SOL     OW23467  11.277  10.991  12.291 -0.0027  0.4196 -0.7348
38869SOL    HW123468  11.202  11.050  12.280  0.2818  1.0219  0.3761
38869SOL    HW223469  11.347  11.033  12.242  0.0779  0.7809 -0.3151
38870SOL     OW23470   9.904   4.277   2.624 -0.4683  0.4133  0.4224
38870SOL    HW123471   9.825   4.325   2.648 -0.7034 -0.5095  1.5773
38870SOL    HW223472   9.944   4.253   2.708  1.1243  0.9762 -0.1264
38871SOL     OW23473   8.348   6.328   2.519 -0.5230 -0.0274 -0.2943
38871SOL    HW123474   8.286   6.396   2.547 -0.1190  0.6158 -0.9091
38871SOL    HW223475   8.321   6.308   2.429  0.2126  0.3381 -0.6050
38872SOL     OW23476   2.330   5.152   8.162 -0.3298  0.2179  0.6413
38872SOL    HW123477   2.292   5.226   8.210 -1.2655  0.4817 -0.4685
38872SOL    HW223478   2.393   5.114   8.223 -0.4700  1.3938  1.5588
38873SOL     OW23479   6.379   5.221   8.340  0.7327  0.4861 -0.4357
38873SOL    HW123480   6.437   5.297   8.326 -0.0736  1.2019  0.0360
38873SOL    HW223481   6.291   5.255   8.325  0.1951  0.1274  1.5797
38874SOL     OW23482   9.935  10.053  10.146 -0.0257  0.1362 -0.3240
38874SOL    HW123483   9.859  10.110  10.137 -0.0352  0.2906  0.5764
38874SOL    HW223484  10.010  10.112  10.139  0.0070  0.0240 -0.9362
38875SOL     OW23485   4.045   8.275  11.188  0.3201  0.1052 -0.0929
38875SOL    HW123486   4.140   8.272  11.201  0.6272  2.6555 -1.2727
38875SOL    HW223487   4.028   8.211  11.119  0.8935 -1.5905  1.2664
38876SOL     OW23488   6.714  12.218  10.219 -0.2470 -0.3103 -0.6412
38876SOL    HW123489   6.631  12.195  10.260  0.0373  0.1877  0.2380
38876SOL    HW223490   6.758  12.134  10.204 -0.2523 -0.4911  0.3026
38877SOL     OW23491  12.344   7.029  11.941 -0.2449  0.1111 -0.0661
38877SOL    HW123492  12.262   7.073  11.920 -0.6372  0.3148  1.7863
38877SOL    HW223493  12.330   6.991  12.027  1.8279  0.7438  0.6091
38878SOL     OW23494  11.161  11.499   9.255 -0.8034 -0.4649 -0.4233
38878SOL    HW123495  11.153  11.439   9.329 -1.1817  1.8405  1.5240
38878SOL    HW223496  11.072  11.509   9.222 -0.4941 -2.3751 -2.0492
38879SOL     OW23497   5.255   5.151  10.493 -0.7393 -0.2909 -0.6303
38879SOL    HW123498   5.271   5.196  10.576 -0.4307  0.5369 -1.1260
38879SOL    HW223499   5.330   5.093  10.482 -0.4521  0.0797 -0.6418
38880SOL     OW23500   0.251   0.446   0.487 -0.0247 -0.2737  0.3904
38880SOL    HW123501   0.262   0.381   0.557 -1.2528  1.3814  2.2035
38880SOL    HW223502   0.325   0.505   0.497  0.3597 -0.5973 -0.4111
38881SOL     OW23503   4.387  10.235  10.087 -0.7638 -0.1902 -0.1658
38881SOL    HW123504   4.436  10.237  10.005  0.0452 -3.3095  0.1355
38881SOL    HW223505   4.448  10.271  10.152 -0.1465 -0.8331 -0.3809
38882SOL     OW23506   4.852   1.313   9.636 -0.1484  0.3683  0.2757
38882SOL    HW123507   4.827   1.256   9.563  2.8522 -1.1741  0.2885
38882SOL    HW223508   4.820   1.268   9.714 -3.3648  2.0217  0.1024
38883SOL     OW23509   0.132   4.092   5.863 -0.3037  0.2169  0.4299
38883SOL    HW123510   0.083   4.011   5.848 -0.5073  0.8578 -3.1858
38883SOL    HW223511   0.097   4.127   5.944 -0.7244 -2.9005  1.7329
38884SOL     OW23512   2.039   4.949   0.993  0.1119 -0.2303 -0.5538
38884SOL    HW123513   2.081   4.927   0.911  0.7228 -0.7936 -0.1022
38884SOL    HW223514   1.955   4.903   0.990  0.0320 -0.0575 -0.9614
38885SOL     OW23515  11.467   9.591  10.258 -0.0518  0.1755  0.1116
38885SOL    HW123516  11.529   9.615  10.326  1.2166 -1.6015 -0.3373
38885SOL    HW223517  11.410   9.526  10.299  0.7851 -0.9837 -0.4829
38886SOL     OW23518   3.898   5.638  11.702  0.3543 -0.2502  0.2453
38886SOL    HW123519   3.823   5.691  11.676 -0.0218 -0.4404  0.9254
38886SOL    HW223520   3.964   5.701  11.732 -0.1346 -0.1691  1.1632
38887SOL     OW23521   5.355   5.902   4.063  0.7297  0.0217 -0.4565
38887SOL    HW123522   5.308   5.975   4.104  0.4113 -0.3537 -0.1511
38887SOL    HW223523   5.300   5.826   4.079  2.2149 -0.7442  1.3586
38888SOL     OW23524   0.499   8.987   8.049 -0.1641  0.5083 -0.3574
38888SOL    HW123525   0.551   8.907   8.058 -1.0368  0.0641  0.9336
38888SOL    HW223526   0.564   9.058   8.055  0.2773 -0.0097  1.9501
38889SOL     OW23527  12.392  10.040   6.254 -0.1450 -0.1506  0.1547
38889SOL    HW123528  12.339  10.051   6.175  0.6873 -0.1113 -0.4133
38889SOL    HW223529  12.410  10.130   6.283  2.0646 -0.0171 -1.3603
38890SOL     OW23530  12.001   2.330   1.730 -0.2283 -0.2586  0.0857
38890SOL    HW123531  11.934   2.386   1.690 -0.1772  0.5041  1.0474
38890SOL    HW223532  11.951   2.262   1.776 -0.3654  0.5122  1.0985
38891SOL     OW23533   1.184   1.072   3.090 -0.4571  0.6090  0.2071
38891SOL    HW123534   1.125   1.017   3.039  0.0307  0.8061 -0.5797
38891SOL    HW223535   1.138   1.086   3.173 -1.2000  0.1897 -0.1273
38892SOL     OW23536  12.417   8.045  12.356 -0.4384  0.0371 -0.2242
38892SOL    HW123537  12.440   7.958  12.322  0.4041  0.7814 -1.6628
38892SOL    HW223538  12.447   8.044  12.447  0.5450 -0.8143 -0.5305
38893SOL     OW23539   6.213   0.666  11.001 -0.0132 -0.3070  0.1388
38893SOL    HW123540   6.187   0.587  11.049 -1.1489  0.4252  0.7825
38893SOL    HW223541   6.159   0.735  11.039 -1.6347  0.1797 -2.7419
38894SOL     OW23542   5.313   4.366   5.392 -0.0038  0.2035 -0.6006
38894SOL    HW123543   5.248   4.386   5.325 -0.1348  0.3787 -0.4233
38894SOL    HW223544   5.263   4.364   5.474 -0.0480 -1.1458 -0.6428
38895SOL     OW23545   3.205   3.879   8.740  0.2523  0.2605  0.0260
38895SOL    HW123546   3.137   3.826   8.783  1.8512 -1.1171  0.9874
38895SOL    HW223547   3.266   3.815   8.703  0.9789  1.4502 -0.9235
38896SOL     OW23548   5.333   4.144  12.466  0.5550 -0.0053  0.0805
38896SOL    HW123549   5.398   4.113  12.529  0.5459 -1.6983 -0.6726
38896SOL    HW223550   5.378   4.210  12.414  0.9795  0.4125  0.9584
38897SOL     OW23551   3.683  10.135   6.747  0.6173  0.2494  0.3596
38897SOL    HW123552   3.615  10.105   6.808  0.2326 -0.6397 -0.4877
38897SOL    HW223553   3.760  10.147   6.802  0.4590 -1.1728  0.9432
38898SOL     OW23554   6.674   4.157   5.817  0.6094  0.6593  0.0313
38898SOL    HW123555   6.692   4.081   5.762 -4.0577  0.5981 -1.8863
38898SOL    HW223556   6.646   4.121   5.901  1.5843  0.4778  0.2930
38899SOL     OW23557   9.609   9.020   6.011 -0.2794  0.2605  0.5408
38899SOL    HW123558   9.523   9.046   5.977 -0.4455 -1.1365 -0.2266
38899SOL    HW223559   9.614   8.926   5.993 -0.0008 -0.4374  3.6712
38900SOL     OW23560  10.188   9.865   8.634 -0.1290  0.3225 -0.6806
38900SOL    HW123561  10.182   9.801   8.563  0.3705  1.1519 -1.4831
38900SOL    HW223562  10.138   9.941   8.603  0.6793  0.9611 -0.4573
38901SOL     OW23563   4.885   6.961   9.399 -0.2240  0.8225  0.1391
38901SOL    HW123564   4.920   7.037   9.447  2.0575 -1.3197  2.1609
38901SOL    HW223565   4.928   6.966   9.314  2.9930 -0.0978  1.5437
38902SOL     OW23566   6.600   4.289  10.697 -0.6516 -0.4808  0.5852
38902SOL    HW123567   6.508   4.268  10.681 -0.5574 -0.2330 -0.2800
38902SOL    HW223568   6.618   4.366  10.643 -0.6146  1.0797  2.6837
38903SOL     OW23569   0.297   8.099  11.515  0.4171 -0.6712 -0.1071
38903SOL    HW123570   0.356   8.125  11.444  1.0622 -0.1714  0.5911
38903SOL    HW223571   0.355   8.069  11.585 -0.2184 -1.3750  0.1336
38904SOL     OW23572   4.689   1.503   8.477 -0.2436  0.1160  0.0668
38904SOL    HW123573   4.682   1.474   8.386 -2.3419 -2.1077  0.8473
38904SOL    HW223574   4.623   1.572   8.484 -1.2564 -0.8419  0.2565
38905SOL     OW23575   5.571   5.214  12.061  0.2300 -0.3747 -0.5327
38905SOL    HW123576   5.546   5.278  11.995  0.7670 -1.3045 -1.6637
38905SOL    HW223577   5.490   5.193  12.107 -0.4671 -0.8790 -1.9395
38906SOL     OW23578   6.878   4.310  10.914 -0.1690  0.8349 -0.4112
38906SOL    HW123579   6.792   4.273  10.929  0.7505 -1.2332  0.0795
38906SOL    HW223580   6.864   4.378  10.848 -1.8436 -1.0253 -2.1043
38907SOL     OW23581   8.253   7.669  11.937 -0.7158  0.2088 -0.1792
38907SOL    HW123582   8.237   7.647  12.029 -2.2669 -0.2354 -0.5139
38907SOL    HW223583   8.309   7.746  11.940 -1.5585  0.8127  1.1752
38908SOL     OW23584  11.788   5.443   8.518 -0.3610  0.3771  0.5629
38908SOL    HW123585  11.850   5.515   8.526  1.2686 -1.1105  2.0980
38908SOL    HW223586  11.777   5.410   8.607 -1.9333 -0.5923  0.0557
38909SOL     OW23587   5.526   4.171   1.186 -0.4268 -0.2552 -0.2787
38909SOL    HW123588   5.541   4.265   1.194 -1.5395 -0.2065  1.7734
38909SOL    HW223589   5.436   4.163   1.154  0.3212 -0.6582 -2.4898
38910SOL     OW23590  10.557   7.361   5.568 -0.0855  0.6300  0.2437
38910SOL    HW123591  10.498   7.291   5.540  0.8369 -1.1461  2.5414
38910SOL    HW223592  10.528   7.383   5.656  0.1903  2.6077 -0.1123
38911SOL     OW23593   1.921   2.625  11.624 -0.3111  0.5445  0.0701
38911SOL    HW123594   1.935   2.540  11.581 -1.3972  0.2096  0.3433
38911SOL    HW223595   1.875   2.603  11.705  0.2904  1.3162  0.6363
38912SOL     OW23596  11.295   9.251   0.515  0.0871 -0.1108 -0.1490
38912SOL    HW123597  11.216   9.199   0.528 -0.1190  0.3727  0.5731
38912SOL    HW223598  11.288   9.323   0.578  0.5545  0.5790 -0.8596
38913SOL     OW23599   1.399   1.954   1.133  0.5165 -0.3856 -0.0935
38913SOL    HW123600   1.423   1.933   1.224  2.4390 -0.5667 -0.6022
38913SOL    HW223601   1.413   1.873   1.085  0.2641 -0.0761 -0.7052
38914SOL     OW23602   6.647   9.555  11.440 -0.2532 -0.2175 -0.1993
38914SOL    HW123603   6.623   9.645  11.459 -1.2166 -0.6818  0.9769
38914SOL    HW223604   6.563   9.510  11.427  0.2075 -0.9343 -0.7619
38915SOL     OW23605   9.386  10.841   5.945 -0.1991  0.0653  0.0245
38915SOL    HW123606   9.303  10.819   5.986 -0.6020  0.1717 -0.7242
38915SOL    HW223607   9.365  10.908   5.880  0.5410  0.4236  0.1396
38916SOL     OW23608   5.004  11.252   8.361 -0.3625 -0.3561  0.2488
38916SOL    HW123609   5.018  11.158   8.373  0.7787 -0.0305  1.7584
38916SOL    HW223610   5.053  11.293   8.432 -0.7449  1.4010 -0.4469
38917SOL     OW23611   8.990   5.625   4.669  0.9757  0.2880  0.6657
38917SOL    HW123612   8.942   5.551   4.707  1.8648 -1.0839 -0.7836
38917SOL    HW223613   8.958   5.631   4.579  2.1710  0.5184  0.2393
38918SOL     OW23614   6.849   6.216  11.117 -0.5466  0.1968 -0.4465
38918SOL    HW123615   6.890   6.297  11.087 -0.8528  0.0908 -1.1713
38918SOL    HW223616   6.761   6.217  11.079 -1.6968  0.9820  2.0368
38919SOL     OW23617   7.146   7.710   2.204 -0.3871  0.0146  0.0855
38919SOL    HW123618   7.175   7.627   2.165  1.2856 -0.4643  2.1686
38919SOL    HW223619   7.213   7.773   2.178 -1.1803  0.5364 -0.7457
38920SOL     OW23620  12.276   8.110  11.098 -0.1810 -0.2063 -0.6686
38920SOL    HW123621  12.352   8.071  11.057  0.8223  1.7055 -0.7251
38920SOL    HW223622  12.291   8.099  11.192 -0.8070 -1.5215 -0.6968
38921SOL     OW23623   2.485   4.033   0.288 -0.0146  0.3274 -0.6397
38921SOL    HW123624   2.459   4.007   0.376  0.1117  1.2416 -0.3123
38921SOL    HW223625   2.410   4.012   0.233  0.1079 -0.7396 -0.4126
38922SOL     OW23626   3.837   5.288   3.551 -1.2252  0.4811  0.0293
38922SOL    HW123627   3.900   5.271   3.480 -1.7992 -1.1639 -0.1206
38922SOL    HW223628   3.814   5.380   3.541 -0.7357  0.4660 -1.4795
38923SOL     OW23629   9.841   1.325   2.178  0.4265  0.0180 -0.0477
38923SOL    HW123630   9.848   1.233   2.154  3.9034  0.1112  0.1721
38923SOL    HW223631   9.866   1.327   2.271 -0.7761  1.0842  0.2776
38924SOL     OW23632   2.866   8.410   4.056  0.0232 -0.0254 -0.5599
38924SOL    HW123633   2.842   8.339   4.116  1.1595 -1.1094 -1.3251
38924SOL    HW223634   2.785   8.457   4.040 -0.9862 -1.7804 -0.8218
38925SOL     OW23635   7.773   9.379   7.390  0.1437  0.2454 -0.1404
38925SOL    HW123636   7.843   9.421   7.441 -1.6464  3.7878 -0.2795
38925SOL    HW223637   7.813   9.361   7.305  2.0397 -2.0344  1.1197
38926SOL     OW23638   6.487   4.281   6.467  0.1631  0.2211  0.0092
38926SOL    HW123639   6.472   4.370   6.436  0.5823  0.8851  1.5733
38926SOL    HW223640   6.579   4.264   6.446  0.5940  0.8638  1.2446
38927SOL     OW23641   2.680  10.366   7.527 -0.1226  0.1209  0.4719
38927SOL    HW123642   2.675  10.307   7.453 -2.8719  0.3228  0.3825
38927SOL    HW223643   2.629  10.322   7.596  2.2140  0.0053  2.2416
38928SOL     OW23644  11.395   5.839  11.517  0.4814 -0.5597 -0.1133
38928SOL    HW123645  11.467   5.899  11.500 -1.0708  1.0933 -1.3241
38928SOL    HW223646  11.379   5.795  11.433 -0.3108 -0.4148 -0.0541
38929SOL     OW23647   7.457  10.669  10.157  0.0666  0.0755 -0.2669
38929SOL    HW123648   7.496  10.733  10.217  1.8124 -1.2762  0.1114
38929SOL    HW223649   7.438  10.720  10.078  0.8764  1.1907  0.2263
38930SOL     OW23650   6.878   2.174  10.309  0.2071 -0.2015  0.0431
38930SOL    HW123651   6.879   2.254  10.256 -0.4108  0.0668  0.4255
38930SOL    HW223652   6.910   2.202  10.395 -1.1067 -0.0995  0.5255
38931SOL     OW23653   0.518   5.860   4.141 -0.1610  0.2637 -0.0660
38931SOL    HW123654   0.531   5.836   4.233  0.2921  2.0821  0.3866
38931SOL    HW223655   0.604   5.886   4.110 -0.1899 -0.8917 -1.2228
38932SOL     OW23656  10.208   3.627   7.239  0.8831 -0.1267 -0.3598
38932SOL    HW123657  10.274   3.697   7.239  1.3256 -0.5373 -0.1907
38932SOL    HW223658  10.232   3.572   7.164 -0.8745  1.1968 -1.9844
38933SOL     OW23659   5.011  10.454   0.804  0.0229  0.3542  0.4186
38933SOL    HW123660   5.029  10.540   0.766 -1.2153  0.6342  0.4479
38933SOL    HW223661   5.072  10.448   0.878  0.1388  1.1936  0.4034
38934SOL     OW23662   5.994   5.188   2.814 -0.1889  0.7844  0.6756
38934SOL    HW123663   5.905   5.169   2.785  0.4408  0.5449 -1.2182
38934SOL    HW223664   5.986   5.202   2.909 -2.2597  1.0230  0.5051
38935SOL     OW23665   3.644   3.060  11.960 -0.2242 -0.3963 -0.5603
38935SOL    HW123666   3.599   2.978  11.980  0.3654 -0.0686  2.5486
38935SOL    HW223667   3.574   3.120  11.935 -0.9739 -1.0937 -0.1946
38936SOL     OW23668   8.473   1.457   9.662  0.1580  0.2303 -0.5539
38936SOL    HW123669   8.476   1.388   9.595 -0.1919  0.1395 -0.4776
38936SOL    HW223670   8.532   1.524   9.630  0.0867  0.1316 -0.8937
38937SOL     OW23671   3.974  11.821   3.894 -0.0124 -0.4131 -0.8569
38937SOL    HW123672   3.986  11.781   3.808 -0.7080 -0.2240 -1.0478
38937SOL    HW223673   4.012  11.758   3.955 -1.6841 -1.7297 -1.0803
38938SOL     OW23674   7.888  11.240   1.489  0.0916 -0.0764 -0.1381
38938SOL    HW123675   7.978  11.208   1.496  1.5723  3.6665  0.3975
38938SOL    HW223676   7.847  11.214   1.572  0.5716 -1.9097 -0.4210
38939SOL     OW23677   7.390   1.137   5.738  0.3555 -0.3055  0.0420
38939SOL    HW123678   7.388   1.067   5.672 -2.6381 -0.5495  0.2486
38939SOL    HW223679   7.333   1.205   5.702  0.9490  0.8225  1.1390
38940SOL     OW23680   3.919   5.473   6.290 -0.4337  0.1177 -0.3370
38940SOL    HW123681   3.825   5.463   6.303 -0.8140  0.5346 -2.4877
38940SOL    HW223682   3.959   5.406   6.346 -1.8787  0.9874  1.8791
38941SOL     OW23683   1.808   9.815   9.257 -0.3130  0.3734  0.4209
38941SOL    HW123684   1.797   9.808   9.162 -0.0520  1.2236  0.3235
38941SOL    HW223685   1.772   9.900   9.280 -2.5984 -0.7700  1.4483
38942SOL     OW23686  10.962   8.500   4.533  0.6600 -0.0840  0.1484
38942SOL    HW123687  11.020   8.457   4.596 -1.1370  0.5068  2.3568
38942SOL    HW223688  10.955   8.590   4.565 -1.0482 -0.0145 -0.3275
38943SOL     OW23689   2.633   5.258   5.249  0.2787  0.0538  0.3518
38943SOL    HW123690   2.697   5.326   5.271  0.1831  0.0450  0.6628
38943SOL    HW223691   2.615   5.214   5.333 -2.1840  1.8127  0.8485
38944SOL     OW23692   9.307   4.140   6.483 -0.1386  0.3904  0.0265
38944SOL    HW123693   9.354   4.091   6.551 -1.9109 -2.3876 -0.6143
38944SOL    HW223694   9.362   4.132   6.405 -0.1522 -0.1534  0.0662
38945SOL     OW23695  12.465   0.252   7.614 -0.8214 -0.0818  0.2732
38945SOL    HW123696  12.383   0.218   7.649 -2.0921  0.9093 -1.5582
38945SOL    HW223697  12.499   0.309   7.683 -1.5589 -0.6547  1.1284
38946SOL     OW23698   6.813   7.822  11.558  0.1401 -0.1029  0.2746
38946SOL    HW123699   6.735   7.767  11.568 -2.3765  2.9864 -0.7096
38946SOL    HW223700   6.853   7.792  11.477 -1.5933 -0.0609 -0.6432
38947SOL     OW23701   7.455   8.660   2.433  0.0118 -0.5720  0.3276
38947SOL    HW123702   7.530   8.602   2.422 -0.3697 -1.5835  2.6475
38947SOL    HW223703   7.488   8.734   2.483 -0.2952 -0.4747  0.3934
38948SOL     OW23704  12.370  11.349  10.341 -0.1281  0.3412 -0.4493
38948SOL    HW123705  12.430  11.382  10.274 -3.2850  3.1450 -2.1840
38948SOL    HW223706  12.323  11.278  10.298 -0.0882  0.1320 -0.1483
38949SOL     OW23707   6.389   8.767   0.198  0.6433  0.3684  0.1126
38949SOL    HW123708   6.423   8.745   0.284  0.0042 -1.2191 -0.0151
38949SOL    HW223709   6.450   8.727   0.136  1.9423  2.7486 -0.2567
38950SOL     OW23710   7.739   3.994  11.552 -0.2346 -0.4911  0.0189
38950SOL    HW123711   7.786   3.988  11.469  1.0496 -0.1312  0.7042
38950SOL    HW223712   7.728   4.088  11.567  0.6453 -0.5064  0.8464
38951SOL     OW23713   3.766   3.345   9.927  0.3248 -0.1379  0.3118
38951SOL    HW123714   3.843   3.389   9.892  0.4453  1.7753  2.7640
38951SOL    HW223715   3.780   3.252   9.907  1.3035  0.5649 -2.7355
38952SOL     OW23716   2.813   9.581   0.637  0.0027 -0.4784 -0.0088
38952SOL    HW123717   2.805   9.669   0.599 -0.7088  1.1323  3.5007
38952SOL    HW223718   2.907   9.563   0.636  0.1015 -0.0121 -1.3515
38953SOL     OW23719  11.870   2.172   2.604 -0.4559 -0.2410  0.4596
38953SOL    HW123720  11.943   2.230   2.626 -0.4519 -0.5505  1.3115
38953SOL    HW223721  11.884   2.095   2.659 -0.1298 -1.3328 -1.0746
38954SOL     OW23722   3.247   6.795   2.696 -0.0748 -0.0659 -0.3070
38954SOL    HW123723   3.237   6.715   2.747  1.6912  1.1648  2.1495
38954SOL    HW223724   3.317   6.774   2.634 -1.2666 -1.1263 -1.3532
38955SOL     OW23725   8.065   0.905   3.987  0.5475  0.1525 -0.3430
38955SOL    HW123726   8.072   0.824   4.037 -1.0587  0.3898  0.3335
38955SOL    HW223727   8.060   0.974   4.054 -1.6359  0.4800 -0.7722
38956SOL     OW23728   9.174   8.859   5.175  0.4594 -0.1939 -0.2199
38956SOL    HW123729   9.241   8.791   5.173  0.5744 -0.0714 -0.7026
38956SOL    HW223730   9.168   8.885   5.267  0.5778 -0.6956 -0.0715
38957SOL     OW23731   3.304   7.642   0.564  0.1280  0.1431  0.4597
38957SOL    HW123732   3.211   7.625   0.549 -0.2875  0.1806  2.6525
38957SOL    HW223733   3.344   7.555   0.569  0.2228  0.1277 -0.5086
38958SOL     OW23734   8.885   7.998   7.955 -0.2213 -0.4253 -0.0133
38958SOL    HW123735   8.905   7.927   7.894  0.9825 -1.2993  1.3318
38958SOL    HW223736   8.796   8.024   7.932 -0.4751 -1.9577 -0.9540
38959SOL     OW23737   2.654   0.522   2.216 -0.0795 -0.4145  0.1936
38959SOL    HW123738   2.744   0.523   2.182 -0.9129 -0.6106 -2.2917
38959SOL    HW223739   2.634   0.613   2.236 -0.2731  0.1396 -2.2229
38960SOL     OW23740   9.512   0.344   7.228 -0.3430 -0.0798 -0.5007
38960SOL    HW123741   9.422   0.312   7.239  0.0146 -1.6490 -1.8980
38960SOL    HW223742   9.508   0.436   7.256 -2.1976 -0.3265  0.1813
38961SOL     OW23743   3.227  12.234  12.374  0.3012  0.1898 -0.5204
38961SOL    HW123744   3.171  12.242  12.452  0.7354 -2.4378  0.1788
38961SOL    HW223745   3.165  12.227  12.301 -0.1994  0.2095 -0.1082
38962SOL     OW23746   2.993   1.950   2.204 -0.2031 -0.2041 -0.1341
38962SOL    HW123747   2.978   2.021   2.142  1.8518  1.0957  0.7628
38962SOL    HW223748   2.937   1.971   2.279 -1.6705 -1.0608 -0.9456
38963SOL     OW23749   2.204  10.109   5.586  0.2762  0.0327 -0.2921
38963SOL    HW123750   2.278  10.076   5.638 -0.2238  0.0442  0.4323
38963SOL    HW223751   2.137  10.132   5.651 -0.3268  0.1228 -0.9381
38964SOL     OW23752  11.216   9.642   5.213  0.1866  0.5447 -0.0598
38964SOL    HW123753  11.153   9.584   5.170  0.4628  1.0391 -1.1709
38964SOL    HW223754  11.296   9.591   5.219  0.1505  0.4785 -0.1423
38965SOL     OW23755   1.694   8.865  12.327  0.2857 -1.1184  0.3902
38965SOL    HW123756   1.628   8.860  12.396 -0.6911 -0.2274 -0.4519
38965SOL    HW223757   1.746   8.786  12.338 -0.1755 -1.2509  1.8134
38966SOL     OW23758   7.011   8.064   3.524 -0.0727  0.3301 -0.5287
38966SOL    HW123759   7.095   8.108   3.519  0.6438 -0.9534 -0.2435
38966SOL    HW223760   7.000   8.022   3.439  0.3622 -0.8611 -0.0109
38967SOL     OW23761   5.848   6.414   0.275  0.5898 -0.1391  0.3663
38967SOL    HW123762   5.778   6.379   0.220  0.8085 -0.0456  0.0221
38967SOL    HW223763   5.860   6.349   0.344 -0.1732  0.0821  0.7141
38968SOL     OW23764   7.313   7.901   2.111 -0.2248 -0.6359  0.3142
38968SOL    HW123765   7.355   7.917   2.195  0.3832 -1.1145  0.1095
38968SOL    HW223766   7.255   7.977   2.098  1.0135  0.3400  0.3351
38969SOL     OW23767   8.417   2.662   8.165  0.1817  0.0726 -0.3029
38969SOL    HW123768   8.477   2.731   8.138  0.7727 -0.9492 -1.7471
38969SOL    HW223769   8.367   2.700   8.237  2.3024  1.0910  0.7252
38970SOL     OW23770   0.423  10.733   1.989 -0.0771  0.2386 -0.5892
38970SOL    HW123771   0.436  10.666   1.922  1.0916 -0.0274 -0.1179
38970SOL    HW223772   0.503  10.731   2.041 -0.6662  0.9386  0.3803
38971SOL     OW23773   1.978   3.341  10.289  0.3624 -0.8014 -0.4432
38971SOL    HW123774   2.015   3.328  10.376 -1.2523  2.3346  0.8615
38971SOL    HW223775   2.013   3.426  10.261 -0.4112 -1.0051 -2.1325
38972SOL     OW23776   1.226  10.179   1.524  0.0120 -0.2517  0.1780
38972SOL    HW123777   1.174  10.100   1.515 -1.6026  0.5968  1.5163
38972SOL    HW223778   1.195  10.237   1.455  0.9165 -0.6082 -0.5504
38973SOL     OW23779   2.223   0.774   9.718 -0.3545  0.0013  0.1586
38973SOL    HW123780   2.243   0.867   9.733  0.4234 -0.1594  0.1833
38973SOL    HW223781   2.196   0.741   9.804  0.8892 -0.1450  0.5253
38974SOL     OW23782   8.474   8.422   0.943  0.0923 -0.3044  0.1307
38974SOL    HW123783   8.430   8.479   0.879  1.9610 -0.5125 -1.4150
38974SOL    HW223784   8.565   8.418   0.914  0.3417 -2.9455  1.0177
38975SOL     OW23785   2.710   0.291   0.689 -0.2627 -0.1180 -0.3358
38975SOL    HW123786   2.800   0.304   0.659 -0.7924  1.0971 -1.4551
38975SOL    HW223787   2.676   0.222   0.633  0.0412 -0.7612  0.2610
38976SOL     OW23788   6.031   0.587   6.753 -0.2727 -0.0996 -0.8407
38976SOL    HW123789   6.014   0.620   6.665 -1.9967  2.2770  0.2764
38976SOL    HW223790   6.057   0.664   6.803  2.9584 -1.7331  0.3147
38977SOL     OW23791   9.778   1.402   8.003 -0.3534 -0.6529  0.1484
38977SOL    HW123792   9.731   1.411   7.920 -2.5617  0.6672  1.4515
38977SOL    HW223793   9.776   1.490   8.040  0.1615 -1.3248  1.8223
38978SOL     OW23794   9.322   7.062   7.387  0.4814  0.3137  0.2136
38978SOL    HW123795   9.283   6.988   7.340  1.0900 -0.3037  0.6744
38978SOL    HW223796   9.373   7.022   7.457  2.2299  1.0786 -0.5659
38979SOL     OW23797   7.000  12.085   1.654  0.4421 -0.1810  0.0803
38979SOL    HW123798   6.956  12.167   1.633 -1.5485 -1.6094 -1.8175
38979SOL    HW223799   7.089  12.097   1.620 -0.3686  0.5608 -1.9649
38980SOL     OW23800   5.386   8.433  12.268 -0.1681 -0.0635 -0.4440
38980SOL    HW123801   5.476   8.449  12.240 -0.7859  0.7398 -2.1228
38980SOL    HW223802   5.340   8.515  12.250 -1.0599 -0.1362  1.2868
38981SOL     OW23803   3.145   5.238   1.041  0.6891 -0.5902 -0.1471
38981SOL    HW123804   3.148   5.245   1.136  0.2143 -1.0136 -0.0997
38981SOL    HW223805   3.157   5.145   1.023 -1.3971 -0.8473 -0.3993
38982SOL     OW23806   1.395   2.762   1.109  0.1342  0.8669  0.3124
38982SOL    HW123807   1.432   2.725   1.030  2.1673 -0.0578  1.6278
38982SOL    HW223808   1.345   2.838   1.079 -0.8920 -0.6224 -2.0363
38983SOL     OW23809   7.634   9.720  11.293 -0.4115 -0.7722 -0.2610
38983SOL    HW123810   7.726   9.696  11.309 -0.8297 -1.6224  1.0492
38983SOL    HW223811   7.585   9.668  11.356 -1.5151  2.7676  2.1014
38984SOL     OW23812  12.358   8.213   1.657  0.2893  0.3166  0.7414
38984SOL    HW123813  12.360   8.201   1.752  1.4491 -2.8044  0.4328
38984SOL    HW223814  12.315   8.134   1.624  2.2975  0.0339 -1.4396
38985SOL     OW23815   8.080  10.307   8.436  0.0060  0.0038  0.1308
38985SOL    HW123816   8.047  10.397   8.440  0.7098  0.4138 -2.0520
38985SOL    HW223817   8.005  10.255   8.407 -0.0446  0.1078  0.0762
38986SOL     OW23818  12.264   0.133   3.173 -0.2250 -0.2958  0.5149
38986SOL    HW123819  12.316   0.149   3.094  1.1597  0.1181  1.4765
38986SOL    HW223820  12.270   0.214   3.223 -2.4452  0.0244  0.3380
38987SOL     OW23821   0.000   7.008   2.621  0.6723 -0.1779 -0.3488
38987SOL    HW123822   0.066   6.949   2.583  1.4748 -0.2081  1.0402
38987SOL    HW223823  -0.013   6.975   2.710  0.8668  1.5243  0.3439
38988SOL     OW23824   1.859   7.375   0.094 -0.1253 -0.6605  0.5164
38988SOL    HW123825   1.941   7.391   0.140  1.0815 -0.2733 -1.6349
38988SOL    HW223826   1.801   7.446   0.122  0.4706 -0.5855  1.5979
38989SOL     OW23827   8.668   2.721   9.489 -0.2943  0.2089  0.7258
38989SOL    HW123828   8.733   2.775   9.535  1.1168 -0.4621 -0.3854
38989SOL    HW223829   8.584   2.746   9.527  0.6227  1.0674  2.2666
38990SOL     OW23830   9.241   9.294   5.615 -0.0701  0.2828  0.4155
38990SOL    HW123831   9.159   9.287   5.567 -0.1751 -0.1884  0.6595
38990SOL    HW223832   9.308   9.270   5.552 -0.2535 -0.8774  0.6492
38991SOL     OW23833  11.016   0.660   1.389  0.1406  0.2295 -0.0001
38991SOL    HW123834  10.936   0.679   1.438 -0.5981  1.1049 -1.4690
38991SOL    HW223835  11.036   0.569   1.410 -0.5096  0.3803  1.3904
38992SOL     OW23836   7.068   3.873   0.020 -0.0302 -0.0010 -0.0515
38992SOL    HW123837   7.084   3.966   0.002 -1.0037 -0.0088 -1.0635
38992SOL    HW223838   7.035   3.838  -0.063  2.0345 -1.6732 -0.2578
38993SOL     OW23839   0.543   1.872   9.602  0.0778 -0.9734  0.3029
38993SOL    HW123840   0.496   1.840   9.524 -0.7929 -0.9669  0.8094
38993SOL    HW223841   0.474   1.910   9.657  0.2250 -3.2916  2.2824
38994SOL     OW23842   8.551   8.432  11.649 -0.2156 -0.4191  0.0098
38994SOL    HW123843   8.574   8.512  11.602 -2.4695  1.0974  1.2916
38994SOL    HW223844   8.631   8.380  11.648  1.3394  1.8203 -0.9296
38995SOL     OW23845   8.634   0.446  10.421 -0.7257  0.1395 -0.3008
38995SOL    HW123846   8.632   0.449  10.517 -0.7797  2.3895 -0.3162
38995SOL    HW223847   8.606   0.533  10.394 -0.1637 -0.2734 -2.3762
38996SOL     OW23848   8.187   7.229   5.223 -0.0203 -0.3617 -0.7561
38996SOL    HW123849   8.268   7.280   5.221  0.2820 -0.7782  0.0722
38996SOL    HW223850   8.124   7.282   5.176  0.3840  0.6109 -0.2394
38997SOL     OW23851   8.016   8.580  10.291 -0.4058 -0.3401 -0.1252
38997SOL    HW123852   7.983   8.566  10.202  0.1845  1.4481 -0.6716
38997SOL    HW223853   8.105   8.615  10.277 -1.0594  1.9791  1.0647
38998SOL     OW23854   1.877   7.360   7.014  0.0142  0.5022  0.4919
38998SOL    HW123855   1.883   7.357   7.109  1.9717  1.5610  0.4513
38998SOL    HW223856   1.966   7.340   6.984 -0.0026  2.4191 -1.0234
38999SOL     OW23857   2.918   2.298  11.223 -0.4453 -0.4059  0.1562
38999SOL    HW123858   3.007   2.331  11.209 -1.0789  1.0366 -0.8270
38999SOL    HW223859   2.908   2.229  11.158 -0.2591 -0.1279 -0.1724
39000SOL     OW23860   9.922  10.076   8.888  0.2493 -0.0237 -0.7724
39000SOL    HW123861   9.857  10.075   8.958 -2.4293  1.1463 -3.0506
39000SOL    HW223862   9.893  10.010   8.826  3.0020 -1.5955 -0.5574
39001SOL     OW23863   3.267   7.495   7.093 -0.4453  0.3706 -0.4510
39001SOL    HW123864   3.248   7.527   7.005 -0.4119  0.7433 -0.3205
39001SOL    HW223865   3.266   7.572   7.148  2.9308  0.7195 -0.6679
39002SOL     OW23866   3.401   4.212  12.468 -0.0266 -0.0742  0.5777
39002SOL    HW123867   3.471   4.225  12.532  0.8138  1.5360 -0.6137
39002SOL    HW223868   3.407   4.287  12.409 -0.6810 -1.5490 -1.4795
39003SOL     OW23869   5.154   4.624  11.750  0.1429  0.4806  0.2026
39003SOL    HW123870   5.104   4.666  11.680 -0.1137 -0.5152 -0.2271
39003SOL    HW223871   5.162   4.533  11.722  1.3915  0.4176  0.7215
39004SOL     OW23872   7.650   0.780   9.330  0.2511 -0.9044 -0.4241
39004SOL    HW123873   7.555   0.768   9.335 -0.1066  1.5112 -0.3492
39004SOL    HW223874   7.674   0.738   9.247 -0.3494 -4.0497  0.8281
39005SOL     OW23875   7.591   4.219   5.884  0.5991 -0.0118  0.1873
39005SOL    HW123876   7.551   4.306   5.880  0.5502  0.3633  4.4759
39005SOL    HW223877   7.530   4.162   5.837 -0.1672  1.9489 -1.3413
39006SOL     OW23878   1.973   7.791   9.516  0.0001 -0.0319 -0.2473
39006SOL    HW123879   2.059   7.830   9.498 -0.6439  1.6825  0.2054
39006SOL    HW223880   1.970   7.713   9.461  2.5642 -1.1544  1.0353
39007SOL     OW23881   9.076   4.684   0.071  0.0349 -0.0870 -0.4521
39007SOL    HW123882   9.112   4.745   0.135 -0.8639  0.6091 -0.5912
39007SOL    HW223883   9.100   4.598   0.105  0.8534  0.3154  0.0322
39008SOL     OW23884   2.373   4.490   4.581  0.7311 -0.0940 -0.7093
39008SOL    HW123885   2.358   4.460   4.670  0.6068 -1.7168 -1.2457
39008SOL    HW223886   2.436   4.428   4.545 -2.1058 -1.9181 -2.9711
39009SOL     OW23887   9.339  10.657  10.212  0.2811 -0.0523 -0.2135
39009SOL    HW123888   9.370  10.566  10.208 -1.6330 -0.7107 -1.8330
39009SOL    HW223889   9.246  10.649  10.234  0.2434  1.5740  0.3193
39010SOL     OW23890  11.625   7.122   0.844 -0.1048 -0.2158 -0.1968
39010SOL    HW123891  11.539   7.113   0.885  0.3567 -1.2065  0.6048
39010SOL    HW223892  11.633   7.215   0.825 -0.9265  0.0465  0.6645
39011SOL     OW23893   9.970   1.755   0.061 -0.1190 -0.3241  0.6807
39011SOL    HW123894   9.992   1.740   0.153  0.8344 -1.1549  0.3446
39011SOL    HW223895  10.053   1.783   0.021 -0.5808  0.2920  0.1213
39012SOL     OW23896   5.990  12.011   3.371  0.1177  0.1325  0.0797
39012SOL    HW123897   5.946  12.031   3.288  1.1602 -1.3932 -0.8886
39012SOL    HW223898   6.030  12.094   3.397 -0.9213  0.8382 -0.5082
39013SOL     OW23899   0.185   7.739   4.148  0.0599  0.2762  0.3707
39013SOL    HW123900   0.197   7.686   4.069  0.7238 -1.1258  1.3730
39013SOL    HW223901   0.090   7.745   4.158 -0.0312 -0.7793  0.2522
39014SOL     OW23902   6.914   5.495  10.145  0.2429 -0.3960 -0.2829
39014SOL    HW123903   6.982   5.431  10.164 -1.9568 -2.4132  1.3810
39014SOL    HW223904   6.937   5.571  10.199  2.3950 -0.0175 -1.5903
39015SOL     OW23905   4.758   5.864  11.600  0.4444 -0.1653  0.3628
39015SOL    HW123906   4.722   5.780  11.572 -2.0232  0.8649  0.1406
39015SOL    HW223907   4.753   5.919  11.521  0.3281  0.6757  0.9405
39016SOL     OW23908   6.701   0.612  10.085  0.4033 -0.9599  0.2347
39016SOL    HW123909   6.777   0.660  10.052 -0.3747  0.4107  0.3518
39016SOL    HW223910   6.671   0.663  10.160  0.8678 -2.8720  1.8182
39017SOL     OW23911  10.330   6.397   2.998 -0.5188  0.1139  0.0792
39017SOL    HW123912  10.257   6.403   2.936 -0.7601  0.6737  0.4097
39017SOL    HW223913  10.332   6.305   3.024 -0.6850 -0.0389 -0.4379
39018SOL     OW23914  11.185  11.753  11.442 -0.3449  0.6407 -0.3569
39018SOL    HW123915  11.279  11.761  11.455 -0.2548  1.0015 -1.1851
39018SOL    HW223916  11.166  11.806  11.365 -1.2857  0.8796  0.0141
39019SOL     OW23917   8.192  10.802   5.494 -0.2100  0.1858  0.3325
39019SOL    HW123918   8.124  10.735   5.491 -1.1728  1.1659 -1.7432
39019SOL    HW223919   8.258  10.772   5.431  1.8467 -1.1809  2.9027
39020SOL     OW23920  11.608   3.516   2.036 -0.0403  0.4297  0.0089
39020SOL    HW123921  11.518   3.530   2.007  0.4447  0.9701 -1.3071
39020SOL    HW223922  11.632   3.429   2.004 -1.1314 -1.2090  3.2148
39021SOL     OW23923   6.830   5.051  11.537 -0.7909  0.3055 -0.4073
39021SOL    HW123924   6.872   4.968  11.558 -0.5300  0.8652  1.4564
39021SOL    HW223925   6.860   5.071  11.448  0.0778 -1.0111 -0.4396
39022SOL     OW23926   1.750   4.062   7.991 -0.4139 -0.3403 -0.0143
39022SOL    HW123927   1.671   4.104   8.024 -1.9262 -1.8452 -1.5396
39022SOL    HW223928   1.720   3.979   7.954  1.8699 -0.9224 -0.7376
39023SOL     OW23929   6.054  10.414   7.333  0.1444  0.2704 -0.6143
39023SOL    HW123930   6.128  10.472   7.350  1.4890 -1.7962  1.2358
39023SOL    HW223931   6.009  10.407   7.418 -0.0194 -1.2599 -0.7921
39024SOL     OW23932   4.646   1.994   0.829 -0.1109  0.1303 -0.6358
39024SOL    HW123933   4.686   1.995   0.742  0.4162  0.3909 -0.3945
39024SOL    HW223934   4.715   1.959   0.887 -0.4030  0.1033 -0.3006
39025SOL     OW23935  10.282   4.024   2.672  0.3482 -0.3550 -0.2608
39025SOL    HW123936  10.246   3.941   2.641 -0.3964 -0.2443  0.2804
39025SOL    HW223937  10.219   4.090   2.644 -0.1046 -0.2044  1.0476
39026SOL     OW23938   1.496   7.910  10.565  0.0285 -0.0972  0.4187
39026SOL    HW123939   1.494   7.842  10.632 -0.1019 -1.6573 -1.1196
39026SOL    HW223940   1.479   7.991  10.614 -0.4036 -1.2033  2.2119
39027SOL     OW23941   4.075   6.523   4.632  0.6109 -0.0288  0.1309
39027SOL    HW123942   4.033   6.443   4.665  0.0729 -0.1678 -0.8443
39027SOL    HW223943   4.063   6.518   4.537  1.7671  0.5511 -0.0608
39028SOL     OW23944   7.731   6.773   8.417  0.1151 -0.5716  0.2834
39028SOL    HW123945   7.676   6.695   8.423  1.0290 -1.2882 -0.3466
39028SOL    HW223946   7.808   6.745   8.367  0.3607  0.7923 -0.1622
39029SOL     OW23947   6.571  11.890   3.775  0.1494 -0.4362  0.1172
39029SOL    HW123948   6.587  11.967   3.721 -1.2829 -0.3613 -0.2458
39029SOL    HW223949   6.610  11.912   3.859 -3.4798  2.4016  1.3317
39030SOL     OW23950  10.334  10.825   9.505  0.3007 -0.2697  0.4741
39030SOL    HW123951  10.418  10.822   9.461 -0.4053  0.2476 -0.9766
39030SOL    HW223952  10.349  10.881   9.582  1.1685  0.1562  0.0067
39031SOL     OW23953  10.364  12.251   1.358  0.0230  0.4985 -0.4706
39031SOL    HW123954  10.291  12.227   1.301 -0.3099  1.6163 -0.5384
39031SOL    HW223955  10.346  12.342   1.383  1.1604  0.6432 -0.1251
39032SOL     OW23956   3.930   3.901  11.800 -0.4897 -0.5861 -0.4644
39032SOL    HW123957   3.981   3.981  11.783  0.4378 -1.1382 -0.3466
39032SOL    HW223958   3.982   3.831  11.762 -2.3324 -0.9379 -2.5311
39033SOL     OW23959  10.413   7.758   1.707  0.0225  0.0393 -0.5080
39033SOL    HW123960  10.475   7.768   1.780  0.0134 -2.0555 -0.1650
39033SOL    HW223961  10.327   7.755   1.749 -0.0966  0.2262 -0.7392
39034SOL     OW23962   4.884   4.892   1.888 -0.3432 -0.6880  0.0747
39034SOL    HW123963   4.974   4.877   1.917 -0.1197 -0.0526 -0.2715
39034SOL    HW223964   4.893   4.943   1.807 -1.0188 -0.2922  0.2377
39035SOL     OW23965   7.456   2.559  12.292 -0.3791 -0.6601  0.4011
39035SOL    HW123966   7.437   2.594  12.205 -0.4297 -1.7108 -0.0264
39035SOL    HW223967   7.527   2.495  12.278  0.8975  0.4662  1.4103
39036SOL     OW23968   4.055   8.498   2.838  0.3472  0.2153  0.2200
39036SOL    HW123969   4.047   8.495   2.743 -0.3773 -0.5118  0.2895
39036SOL    HW223970   4.044   8.591   2.860  3.1534  0.8354 -0.5838
39037SOL     OW23971   5.617   3.405   0.137  0.8341  0.3816 -0.2389
39037SOL    HW123972   5.598   3.360   0.219 -1.4755  1.1002 -0.2985
39037SOL    HW223973   5.680   3.349   0.092 -2.8040 -3.5963 -0.9335
39038SOL     OW23974  10.807   6.888   8.717 -0.3143  0.1792  0.3819
39038SOL    HW123975  10.878   6.952   8.717  1.4420 -1.6520  0.0134
39038SOL    HW223976  10.760   6.903   8.635 -1.4050  2.4326  1.3419
39039SOL     OW23977   9.539   3.421   0.651  0.2414 -0.4039 -0.2302
39039SOL    HW123978   9.490   3.503   0.665 -1.3337 -1.0010 -1.9101
39039SOL    HW223979   9.525   3.371   0.731 -0.6694  0.0590 -0.0885
39040SOL     OW23980   7.404  10.644   2.568 -0.0914  0.5214 -0.9044
39040SOL    HW123981   7.434  10.619   2.655  2.0003 -1.3204 -2.0606
39040SOL    HW223982   7.319  10.685   2.583 -0.0603 -0.2558  1.9392
39041SOL     OW23983   9.385  11.724   0.454  0.3739  0.5001 -0.0873
39041SOL    HW123984   9.402  11.632   0.473 -2.0265 -0.0056 -0.1484
39041SOL    HW223985   9.422  11.738   0.367  0.6529 -0.4388 -0.1301
39042SOL     OW23986   5.882  11.458  10.436  0.0122 -0.5943 -0.0898
39042SOL    HW123987   5.871  11.495  10.348 -0.0954  0.1612  0.2294
39042SOL    HW223988   5.793  11.434  10.462 -0.2838  1.1403  0.6288
39043SOL     OW23989   9.122   2.339   0.088  0.0482  0.5562 -0.5025
39043SOL    HW123990   9.154   2.298   0.168  0.4690  0.6880 -0.6010
39043SOL    HW223991   9.200   2.355   0.037 -0.2842 -0.3187 -1.3231
39044SOL     OW23992  11.970   7.869   7.410  0.3093 -0.2307 -0.4273
39044SOL    HW123993  11.948   7.863   7.503 -1.7826 -1.9515 -0.9725
39044SOL    HW223994  11.926   7.949   7.380 -0.3048 -0.5031 -0.2588
39045SOL     OW23995   9.608   7.439   2.920 -0.2030 -0.1042 -0.1909
39045SOL    HW123996   9.690   7.392   2.906 -1.2939 -1.7406 -1.5476
39045SOL    HW223997   9.608   7.461   3.013  2.0835  0.6316 -0.3006
39046SOL     OW23998  12.416  11.746   2.400 -0.3884 -0.1567  0.1242
39046SOL    HW123999  12.438  11.826   2.449 -0.5902  0.7966 -1.2658
39046SOL    HW224000  12.399  11.777   2.311 -0.6830 -1.7439 -0.4018
39047SOL     OW24001   7.497   5.832   2.129  0.0138  0.4963 -0.3090
39047SOL    HW124002   7.460   5.746   2.108 -2.3727  0.9052  1.6525
39047SOL    HW224003   7.514   5.829   2.223 -2.1596  2.7434  0.2821
39048SOL     OW24004  12.268   6.054   4.554  0.0726  0.3980 -0.3787
39048SOL    HW124005  12.258   5.978   4.612 -1.8121 -1.5039 -2.9753
39048SOL    HW224006  12.326   6.023   4.485  1.6685  2.3714  0.0127
39049SOL     OW24007   6.905   6.501  10.414 -0.7896  1.3531 -0.0685
39049SOL    HW124008   6.949   6.567  10.468  0.9130 -0.3053  0.6838
39049SOL    HW224009   6.966   6.483  10.343 -0.5165 -0.4670  0.5867
39050SOL     OW24010   3.752   6.344   3.612  0.5055  0.5858  0.1132
39050SOL    HW124011   3.819   6.283   3.642  0.5003  0.9402  0.8753
39050SOL    HW224012   3.704   6.296   3.545  2.8193  1.0120 -1.9769
39051SOL     OW24013   8.564  12.270   0.712  0.7943  0.3702  0.3340
39051SOL    HW124014   8.608  12.258   0.797 -1.8374 -1.6461  1.5322
39051SOL    HW224015   8.503  12.343   0.727  0.5220  0.1950  0.0778
39052SOL     OW24016   6.283  11.439   9.182  0.0202 -0.3307 -0.9005
39052SOL    HW124017   6.357  11.420   9.124  0.6011 -2.1502  0.3646
39052SOL    HW224018   6.206  11.423   9.128  0.5500 -0.4333 -1.6423
39053SOL     OW24019   0.580  10.045   9.294 -0.6648  0.3135  0.2955
39053SOL    HW124020   0.515  10.082   9.354 -0.9655 -1.4887  1.1621
39053SOL    HW224021   0.541  10.054   9.207 -0.1199  3.1796  0.2627
39054SOL     OW24022   0.052   3.076   6.450 -0.1411  0.2921  0.3296
39054SOL    HW124023   0.018   2.997   6.492  1.1919  0.0263  0.9625
39054SOL    HW224024   0.042   3.059   6.356 -0.7033 -0.2427  0.4772
39055SOL     OW24025   3.420  11.590   6.512  0.0830  0.8340  0.1338
39055SOL    HW124026   3.395  11.676   6.547  2.2665  1.0701  1.3029
39055SOL    HW224027   3.370  11.527   6.564 -2.1085  1.3420 -1.2314
39056SOL     OW24028   3.984   0.298   9.593 -0.2823 -0.4073 -0.1225
39056SOL    HW124029   4.077   0.281   9.581  0.4408  0.9942  2.7796
39056SOL    HW224030   3.951   0.315   9.504  1.9668 -1.9075 -1.3279
39057SOL     OW24031   4.061   8.386   6.083  0.1027 -0.1155 -0.0115
39057SOL    HW124032   3.988   8.405   6.141  0.3703 -1.9640  0.9976
39057SOL    HW224033   4.025   8.326   6.018  0.9886 -2.2192  1.3406
39058SOL     OW24034   3.318   0.107   1.480  0.2789 -0.3297 -0.4950
39058SOL    HW124035   3.263   0.147   1.546  0.1205 -0.4069 -0.5776
39058SOL    HW224036   3.262   0.040   1.440  0.0607  0.3336 -1.3357
39059SOL     OW24037   4.472   4.621  10.615  0.3243 -0.0363 -0.8894
39059SOL    HW124038   4.555   4.590  10.650  0.5025  1.5109  0.1388
39059SOL    HW224039   4.406   4.565  10.657  0.6454  0.8162  0.8272
39060SOL     OW24040   0.443   9.842   0.288  0.0414 -0.1282 -0.4627
39060SOL    HW124041   0.470   9.929   0.317 -0.4481 -0.4091  0.9512
39060SOL    HW224042   0.436   9.849   0.193 -1.1996  1.7286 -0.2841
39061SOL     OW24043   3.698   2.763   4.390 -0.0427  0.3351 -0.0074
39061SOL    HW124044   3.775   2.707   4.393 -0.9161 -0.9223 -0.2162
39061SOL    HW224045   3.695   2.797   4.301 -1.1210 -1.7125 -0.8243
39062SOL     OW24046   8.388  11.593   5.904  0.9404 -0.0894  0.2561
39062SOL    HW124047   8.297  11.621   5.914  0.6283 -0.4900 -1.2009
39062SOL    HW224048   8.435  11.635   5.975 -0.6399 -1.0322  1.9361
39063SOL     OW24049   1.806   9.821   8.988  0.2355 -0.3521  0.0618
39063SOL    HW124050   1.886   9.774   8.964 -0.7698 -1.5646 -1.0537
39063SOL    HW224051   1.738   9.783   8.933 -1.1900  0.4172  1.2100
39064SOL     OW24052   1.190   6.800  11.128 -0.2227  0.5876  0.3493
39064SOL    HW124053   1.104   6.826  11.160 -0.3231 -0.4151  0.9152
39064SOL    HW224054   1.183   6.806  11.032 -0.4080  2.0570  0.4387
39065SOL     OW24055   8.816  10.957   4.555  0.2498 -0.2136 -0.6582
39065SOL    HW124056   8.769  10.928   4.477  0.5758  2.4677 -1.9831
39065SOL    HW224057   8.909  10.956   4.529  0.3891  0.3771 -0.2166
39066SOL     OW24058  10.779   1.716   9.857  0.6155 -0.1113  0.2196
39066SOL    HW124059  10.692   1.692   9.889  0.6132  1.5269  1.5512
39066SOL    HW224060  10.776   1.812   9.850  2.4136 -0.0055  0.5735
39067SOL     OW24061   9.231   4.013   7.222  0.6650  0.0300  0.6179
39067SOL    HW124062   9.183   3.937   7.190  1.8424 -0.5415  0.1466
39067SOL    HW224063   9.194   4.087   7.173 -1.9383  0.1483  2.5505
39068SOL     OW24064   0.511   4.982  11.696 -0.0106 -0.2092 -0.4327
39068SOL    HW124065   0.579   4.932  11.651 -2.1059 -0.7733 -3.2532
39068SOL    HW224066   0.529   5.073  11.675  0.5129 -0.2464 -0.1641
39069SOL     OW24067  10.960   9.710   9.403  0.0469  0.2209 -0.2006
39069SOL    HW124068  11.024   9.750   9.462 -0.7058 -0.4773  1.1332
39069SOL    HW224069  10.878   9.710   9.453 -0.4010 -1.2282 -0.8944
39070SOL     OW24070  12.232   4.088  10.776 -0.5207 -0.1740  0.1106
39070SOL    HW124071  12.298   4.047  10.833  1.2257  0.2773 -1.4865
39070SOL    HW224072  12.153   4.092  10.830  1.0043  0.1557  2.4859
39071SOL     OW24073   7.490   6.050  11.359  0.2727  0.4754  0.4581
39071SOL    HW124074   7.460   6.077  11.446  2.5530  2.4343  0.7473
39071SOL    HW224075   7.576   6.011  11.375  0.6801  0.7777 -0.8998
39072SOL     OW24076   2.118   8.554   7.293 -0.3417  0.1718 -0.6418
39072SOL    HW124077   2.104   8.614   7.366 -2.8184 -0.5650 -0.4145
39072SOL    HW224078   2.146   8.610   7.220  1.0160  1.0632  0.5120
39073SOL     OW24079   4.486  11.492   8.000 -0.1017 -0.1104  0.3249
39073SOL    HW124080   4.444  11.562   7.951 -1.0492 -0.4732  0.5962
39073SOL    HW224081   4.530  11.536   8.073 -1.5017  0.1396  1.0520
39074SOL     OW24082  10.940   0.775  10.083 -0.2563  0.0136 -0.6378
39074SOL    HW124083  10.860   0.741  10.044 -0.5249  0.4406 -0.4683
39074SOL    HW224084  10.992   0.806  10.009  0.2312 -1.2363 -0.8476
39075SOL     OW24085   2.360   6.790   6.246 -0.4191 -0.5681 -0.6775
39075SOL    HW124086   2.384   6.865   6.191 -1.8211 -0.7377 -1.5723
39075SOL    HW224087   2.443   6.762   6.285  0.1867  1.2467 -0.5653
39076SOL     OW24088   4.907  10.265   2.640  0.2591 -0.0470  0.1350
39076SOL    HW124089   4.826  10.255   2.589  0.1979 -0.5810  0.3359
39076SOL    HW224090   4.883  10.243   2.729  0.6218 -0.1825  0.2018
39077SOL     OW24091   0.405   8.236   4.145  0.1158  0.1990  0.2698
39077SOL    HW124092   0.471   8.290   4.102  0.1560 -0.8692 -1.1038
39077SOL    HW224093   0.430   8.234   4.237  1.1269  1.0432  0.0237
39078SOL     OW24094   9.995   7.719   5.027  0.3728 -0.0575  0.0074
39078SOL    HW124095  10.025   7.699   5.116 -0.4519  0.2536  0.3634
39078SOL    HW224096  10.075   7.713   4.973  0.8875 -0.2111  0.7665
39079SOL     OW24097   9.357   0.669   3.918 -0.1699  0.5903  0.4468
39079SOL    HW124098   9.297   0.740   3.939  0.0137  1.0446 -0.5144
39079SOL    HW224099   9.423   0.709   3.860 -0.2378 -0.4196 -0.3667
39080SOL     OW24100   7.945  11.628   5.957 -0.5486  0.1966 -0.3263
39080SOL    HW124101   7.868  11.685   5.959  0.0998  1.0998 -0.3308
39080SOL    HW224102   7.935  11.572   6.034 -1.3997  0.0405 -0.5365
39081SOL     OW24103   3.151   9.975   4.792  0.2278  0.2328 -0.3917
39081SOL    HW124104   3.069   9.931   4.815 -0.4570  0.6477 -1.9003
39081SOL    HW224105   3.186   9.923   4.720  1.0412  0.3593 -0.0956
39082SOL     OW24106   8.884   7.272   6.983 -0.6351  0.4330  0.0858
39082SOL    HW124107   8.963   7.219   6.995 -0.5089  0.3013 -1.1575
39082SOL    HW224108   8.914   7.349   6.934 -1.0946  0.9165  0.5426
39083SOL     OW24109   3.061   1.616   3.349 -0.4940  0.0376  0.2567
39083SOL    HW124110   2.967   1.623   3.363 -0.0429  0.6495  3.7269
39083SOL    HW224111   3.097   1.697   3.385  1.4105 -0.1548 -1.0300
39084SOL     OW24112   3.472   3.167   1.331  0.5075  0.4222  0.4280
39084SOL    HW124113   3.398   3.139   1.385  0.5267  1.0742  0.8093
39084SOL    HW224114   3.437   3.240   1.279  0.9298  0.8636  0.7577
39085SOL     OW24115   7.394   7.486   3.067  0.5050 -0.3624  0.1294
39085SOL    HW124116   7.470   7.544   3.072  1.4612 -1.6275  0.9333
39085SOL    HW224117   7.381   7.471   2.973 -0.1691  1.6116 -0.1417
39086SOL     OW24118   7.068   8.336  11.855 -0.1675 -0.3377  0.5430
39086SOL    HW124119   6.994   8.275  11.858 -0.7534  0.2889 -0.7033
39086SOL    HW224120   7.118   8.309  11.778  0.1952  0.0618  0.6376
39087SOL     OW24121   5.823   8.499   0.203  0.0447  0.2319  0.1532
39087SOL    HW124122   5.906   8.528   0.165  0.2032 -0.5223 -0.0975
39087SOL    HW224123   5.759   8.510   0.132  0.1900 -0.4218 -0.0925
39088SOL     OW24124  11.923   7.468   3.632  0.2187 -0.8630  0.0196
39088SOL    HW124125  11.845   7.452   3.684 -1.6375 -1.5822 -2.7489
39088SOL    HW224126  11.957   7.381   3.611  1.4723 -0.5693  0.7189
39089SOL     OW24127   5.977   7.268   1.056 -0.1486 -0.0839  0.1446
39089SOL    HW124128   6.059   7.296   1.098 -1.4008  0.1489  2.5771
39089SOL    HW224129   5.967   7.177   1.082 -0.5113 -0.2052 -0.4172
39090SOL     OW24130  11.953   4.137   0.664 -0.3482  0.2189 -0.2330
39090SOL    HW124131  11.936   4.120   0.756  0.8123  0.7150  0.0997
39090SOL    HW224132  11.947   4.232   0.655 -1.0585  0.1286 -0.8092
39091SOL     OW24133   6.934   5.611   2.420  0.2559  0.3300  0.5739
39091SOL    HW124134   6.964   5.563   2.343  0.8625 -0.0124  1.0082
39091SOL    HW224135   6.958   5.702   2.402  0.5968  0.2182  0.4464
39092SOL     OW24136  11.399   8.176   9.253  0.0689 -0.6129  0.5531
39092SOL    HW124137  11.341   8.113   9.211 -1.7681  0.4331  1.4039
39092SOL    HW224138  11.471   8.188   9.191 -0.6155 -1.9479 -0.5430
39093SOL     OW24139   5.150   5.508   1.776 -0.3409  0.2255  0.3147
39093SOL    HW124140   5.063   5.493   1.812 -1.1430  2.5197 -0.4917
39093SOL    HW224141   5.145   5.594   1.735  2.0311 -0.0091 -0.6569
39094SOL     OW24142   7.811   2.829  12.284 -0.5568  0.3977  0.2045
39094SOL    HW124143   7.887   2.881  12.258 -0.3532 -0.6941 -1.4678
39094SOL    HW224144   7.742   2.855  12.223 -1.1825  0.4330  0.9024
39095SOL     OW24145  11.374   5.082   1.926 -0.5514  0.3898  0.2449
39095SOL    HW124146  11.311   5.063   1.857  1.7942 -0.8194 -1.7506
39095SOL    HW224147  11.387   5.176   1.922 -1.8988  0.6015  0.4359
39096SOL     OW24148   8.938   6.239  10.814  0.3676 -0.2114 -0.6994
39096SOL    HW124149   8.881   6.262  10.741 -0.5420  0.1917  0.1092
39096SOL    HW224150   9.015   6.200  10.774 -0.3769 -0.5480 -1.8409
39097SOL     OW24151   5.231   0.399   5.482 -0.2130 -0.3046 -0.2083
39097SOL    HW124152   5.261   0.490   5.488 -0.7700 -0.1065 -0.3538
39097SOL    HW224153   5.242   0.365   5.571  0.3721 -0.2209 -0.2432
39098SOL     OW24154   8.775   3.659   8.171  0.1148  0.0500  0.3984
39098SOL    HW124155   8.760   3.566   8.156 -1.5751 -0.0094  2.0995
39098SOL    HW224156   8.852   3.680   8.118 -0.9912 -1.7019 -2.1340
39099SOL     OW24157   1.388  10.647   7.451 -0.5929  0.2762 -0.0727
39099SOL    HW124158   1.458  10.582   7.452  1.5612  2.4071  2.0627
39099SOL    HW224159   1.351  10.642   7.363  1.1470 -2.0608 -0.7527
39100SOL     OW24160   1.863  12.070   1.984  0.7790  0.0248 -0.0641
39100SOL    HW124161   1.800  12.123   2.034  0.9544 -0.3760  0.5898
39100SOL    HW224162   1.809  12.021   1.922  0.4064 -0.5100  0.6608
39101SOL     OW24163   8.543   5.698   8.737 -0.2435 -0.3460  0.3097
39101SOL    HW124164   8.503   5.615   8.710  0.4284  0.1399 -2.4122
39101SOL    HW224165   8.591   5.676   8.818 -1.9057 -2.0410  0.9189
39102SOL     OW24166   0.199   2.917   1.492 -0.1522  0.3701  0.0410
39102SOL    HW124167   0.204   2.929   1.587 -0.7551 -1.7405  0.3837
39102SOL    HW224168   0.131   2.850   1.479  0.3378  0.1670 -1.8427
39103SOL     OW24169  12.014   0.211   8.979  0.2843 -0.1815  0.0141
39103SOL    HW124170  11.974   0.287   9.021 -1.7017 -1.2162  0.1371
39103SOL    HW224171  12.003   0.140   9.042 -2.3819 -1.6791 -1.9117
39104SOL     OW24172  12.153   6.026  12.211  0.3740  0.0980  0.0057
39104SOL    HW124173  12.148   6.012  12.306 -1.6541 -1.0673 -0.1932
39104SOL    HW224174  12.209   5.955  12.179  1.7446  0.9833  0.3854
39105SOL     OW24175  10.199   7.277  10.091  0.1285  0.5361  0.2266
39105SOL    HW124176  10.278   7.328  10.073  0.2189  1.6949  3.2411
39105SOL    HW224177  10.127   7.340  10.079 -0.4929 -0.6035 -2.8607
39106SOL     OW24178   3.242   3.279   9.004  0.2781 -0.2295 -0.0167
39106SOL    HW124179   3.188   3.281   9.083  1.8177 -1.8604  1.1442
39106SOL    HW224180   3.268   3.370   8.990 -1.1309  0.2813  0.5309
39107SOL     OW24181   3.271   7.108  11.789 -0.2752  0.5322  0.0957
39107SOL    HW124182   3.262   7.012  11.793 -0.7788  0.5913  0.5923
39107SOL    HW224183   3.222   7.139  11.865  1.4570  1.0933  1.0372
39108SOL     OW24184   4.705   9.459  12.161  0.3107  0.3801 -0.3789
39108SOL    HW124185   4.702   9.372  12.121  1.6711 -1.1986  2.6481
39108SOL    HW224186   4.792   9.492  12.139  0.6254  0.0032  0.2707
39109SOL     OW24187   9.733   8.032   7.369  0.0290  0.2750  0.2444
39109SOL    HW124188   9.757   7.941   7.388 -0.0478  0.1766 -0.1369
39109SOL    HW224189   9.793   8.059   7.300  0.1333  0.5576  0.4407
39110SOL     OW24190   7.326   8.269   0.556  0.5031  0.3654 -0.4929
39110SOL    HW124191   7.372   8.284   0.473  0.1581  0.5630 -0.6502
39110SOL    HW224192   7.390   8.224   0.611  0.4150 -0.6978 -1.2177
39111SOL     OW24193   9.668   2.561   3.081  0.0577  0.1250  0.0556
39111SOL    HW124194   9.706   2.474   3.065 -0.2793  0.0708 -0.4619
39111SOL    HW224195   9.642   2.559   3.173  1.2355  0.1342  0.4074
39112SOL     OW24196   2.406   4.721   4.381 -0.6605  0.1435  0.1692
39112SOL    HW124197   2.499   4.743   4.377 -0.4981 -0.6482 -1.0415
39112SOL    HW224198   2.398   4.660   4.455 -0.3889  0.9211  0.8528
39113SOL     OW24199   2.329  10.868   7.047  0.4572  0.4346  0.3863
39113SOL    HW124200   2.385  10.944   7.065 -0.1683  0.8884  0.4691
39113SOL    HW224201   2.384  10.792   7.065  1.1851  0.8633  0.0318
39114SOL     OW24202   0.697   3.344   1.191  0.6747  0.5716  0.2303
39114SOL    HW124203   0.612   3.363   1.231  0.8870  0.2634  0.8522
39114SOL    HW224204   0.683   3.264   1.141  0.7360  0.1981  0.8047
39115SOL     OW24205   2.717   3.971   2.023 -0.0859 -0.5250 -0.7401
39115SOL    HW124206   2.652   3.958   1.954 -0.6684 -3.5485  0.2224
39115SOL    HW224207   2.770   4.045   1.993 -0.6989 -1.2847 -4.0932
39116SOL     OW24208   7.441  12.065   4.345  0.6131 -0.1030  0.4722
39116SOL    HW124209   7.463  12.049   4.254 -1.0800  1.0482 -0.1933
39116SOL    HW224210   7.383  11.992   4.369  0.8409 -0.2607  0.5438
39117SOL     OW24211   8.589  12.356   8.800 -0.4776 -0.0719 -0.1360
39117SOL    HW124212   8.516  12.313   8.755 -0.2347 -2.0068  1.2074
39117SOL    HW224213   8.632  12.408   8.732 -0.2092 -2.7472 -2.1801
39118SOL     OW24214   3.925  10.282   3.340 -0.0537  1.0915  0.6375
39118SOL    HW124215   3.836  10.309   3.320 -0.6780 -0.4741  1.1689
39118SOL    HW224216   3.948  10.220   3.271  0.3975  1.0419  0.8274
39119SOL     OW24217   5.576   5.974   3.345 -0.5695  0.0978  0.0001
39119SOL    HW124218   5.582   5.952   3.437 -0.9061  3.5479  0.9813
39119SOL    HW224219   5.499   6.030   3.338  0.1461  0.9399 -2.1255
39120SOL     OW24220   7.563   9.554  10.821  0.0722 -0.1301  0.6388
39120SOL    HW124221   7.523   9.641  10.826 -0.8394 -0.6009  2.2406
39120SOL    HW224222   7.492   9.493  10.841  0.7682 -1.2389 -0.1486
39121SOL     OW24223   7.650   3.743   4.717 -0.0767  0.0247  0.0744
39121SOL    HW124224   7.573   3.717   4.666  0.4460  0.6480 -1.0686
39121SOL    HW224225   7.616   3.807   4.780 -0.7002 -0.6069  0.3928
39122SOL     OW24226   7.970   6.706   0.092 -0.0392  0.4891  0.3181
39122SOL    HW124227   8.010   6.642   0.151  1.1073 -1.7638 -2.6502
39122SOL    HW224228   8.040   6.767   0.071 -0.2075  0.7846  0.6074
39123SOL     OW24229   3.510   5.003   7.283  0.1061  0.0611  0.1838
39123SOL    HW124230   3.588   5.031   7.236  0.4889  0.6210  1.1270
39123SOL    HW224231   3.496   5.071   7.349 -1.1263 -0.0807  0.0810
39124SOL     OW24232   9.441   7.982   4.169 -0.1398  0.2952  0.1931
39124SOL    HW124233   9.523   8.026   4.190 -1.3310  2.3345  0.8902
39124SOL    HW224234   9.436   7.909   4.231  0.1483  1.4871  1.6973
39125SOL     OW24235   5.758   8.571   9.745 -0.1897  0.0143  0.3222
39125SOL    HW124236   5.710   8.517   9.682 -0.9212  0.9089  0.0964
39125SOL    HW224237   5.709   8.653   9.749  2.0201  1.5022 -0.9188
39126SOL     OW24238   5.255  10.258  11.604  0.8335  0.4070  0.0689
39126SOL    HW124239   5.169  10.215  11.609  0.9725 -0.2334 -1.9299
39126SOL    HW224240   5.317  10.187  11.620  1.0116  0.5831  0.1563
39127SOL     OW24241   6.798   9.034   7.600  0.4402 -0.5098 -0.0908
39127SOL    HW124242   6.707   9.050   7.622  0.1783  1.3117 -2.2170
39127SOL    HW224243   6.821   8.956   7.651 -2.5660 -1.6317 -0.2464
39128SOL     OW24244   4.831   0.998   0.471 -0.2115  0.1453  0.2397
39128SOL    HW124245   4.799   0.923   0.521 -0.8728  0.6441  0.5804
39128SOL    HW224246   4.755   1.029   0.423  0.3183 -0.0684 -0.7760
39129SOL     OW24247  12.316  10.556   1.365  0.3995  0.1568 -0.0348
39129SOL    HW124248  12.380  10.623   1.387  0.4598 -0.0542  0.4395
39129SOL    HW224249  12.252  10.602   1.309  1.2936  0.2097 -1.0510
39130SOL     OW24250   5.675  10.672   5.397 -0.1196 -0.0475  0.2613
39130SOL    HW124251   5.714  10.585   5.400 -0.0615  0.0017  2.0758
39130SOL    HW224252   5.690  10.702   5.308  0.6657 -1.5242 -0.1386
39131SOL     OW24253   3.166  10.907   1.118  0.4275  0.0561 -0.4752
39131SOL    HW124254   3.216  10.921   1.198  0.0920  2.1104 -0.5523
39131SOL    HW224255   3.075  10.925   1.142  0.2036 -0.1732 -1.1122
39132SOL     OW24256  10.452   0.081   9.575  0.1241  0.0413 -0.1348
39132SOL    HW124257  10.387   0.086   9.645 -0.9184 -0.7765 -0.9993
39132SOL    HW224258  10.534   0.060   9.619 -0.3580  0.2790  0.9031
39133SOL     OW24259   2.205  10.427   7.963 -0.6727  0.0603  0.3887
39133SOL    HW124260   2.253  10.507   7.940 -1.8137  1.7287  3.3234
39133SOL    HW224261   2.124  10.432   7.913  0.5659 -0.9808 -1.8695
39134SOL     OW24262   6.375   5.106   0.403 -0.0212 -0.3084  0.8110
39134SOL    HW124263   6.465   5.096   0.372  0.3731  0.0055  1.8236
39134SOL    HW224264   6.322   5.067   0.333  0.7822  0.8819 -0.5187
39135SOL     OW24265   8.585   7.933  10.856  0.5307 -0.3792 -0.3160
39135SOL    HW124266   8.641   7.996  10.811 -0.6082  0.2211 -0.9432
39135SOL    HW224267   8.600   7.850  10.811 -2.6479  0.7010 -3.9359
39136SOL     OW24268   3.897   8.619   9.146  0.3377  0.5234  0.2217
39136SOL    HW124269   3.806   8.591   9.132 -0.1545  1.9648  0.3593
39136SOL    HW224270   3.918   8.669   9.067  0.4339  1.5874  0.9105
39137SOL     OW24271   8.394   0.916   0.252  0.1373 -0.3775 -0.2975
39137SOL    HW124272   8.485   0.894   0.270  0.2802 -0.9916 -1.6421
39137SOL    HW224273   8.384   1.006   0.282  0.6396 -0.9350  1.6573
39138SOL     OW24274   7.073   7.874   0.715 -0.5076 -0.1687 -0.3713
39138SOL    HW124275   7.017   7.822   0.656 -1.2094  0.5724 -0.3778
39138SOL    HW224276   7.057   7.965   0.688  2.9623  0.0061 -2.4023
39139SOL     OW24277   0.150   0.779  11.868  0.0590 -0.1501  0.2260
39139SOL    HW124278   0.136   0.776  11.773  0.0820  0.1670  0.2107
39139SOL    HW224279   0.226   0.723  11.882  0.6606  0.5709 -0.0645
39140SOL     OW24280   4.263   2.374   1.372  0.5425 -0.3133  0.6518
39140SOL    HW124281   4.264   2.469   1.357  0.3784 -0.4652 -0.3761
39140SOL    HW224282   4.177   2.345   1.341  1.0156 -0.9520 -0.1018
39141SOL     OW24283   1.764   8.449   7.745  0.2150 -0.4206  0.1604
39141SOL    HW124284   1.743   8.386   7.815 -0.1515  0.1575  0.5830
39141SOL    HW224285   1.701   8.521   7.758 -0.4145 -0.6726 -1.2837
39142SOL     OW24286   9.708   0.713   0.023  0.4456 -0.0412 -0.0047
39142SOL    HW124287   9.755   0.795   0.036 -1.8980  1.3027  0.5882
39142SOL    HW224288   9.765   0.662  -0.034  3.4235  0.6818  2.0743
39143SOL     OW24289   8.572   3.293   9.149  0.9966  0.4504 -0.5740
39143SOL    HW124290   8.558   3.381   9.186  4.2877  0.7560  0.2694
39143SOL    HW224291   8.493   3.245   9.173 -0.2552  2.7375  0.2794
39144SOL     OW24292  11.881   2.424   5.903  0.4878 -0.1895  0.5649
39144SOL    HW124293  11.976   2.437   5.902  0.3974  0.4612  0.1215
39144SOL    HW224294  11.849   2.486   5.968  0.3486 -0.3001  0.6023
39145SOL     OW24295   2.006   4.339   6.471 -0.4941  0.0201  0.1525
39145SOL    HW124296   1.945   4.272   6.440 -2.4862  1.7885 -0.0435
39145SOL    HW224297   2.003   4.333   6.566 -0.8600 -0.0079  0.1397
39146SOL     OW24298   2.776   0.535   0.812 -0.1846 -0.0711 -0.1441
39146SOL    HW124299   2.809   0.476   0.881  1.4347 -0.1049 -0.9132
39146SOL    HW224300   2.751   0.476   0.741 -1.5114 -0.0066  0.2309
39147SOL     OW24301   6.700   1.270   0.909  0.2162  1.1269  0.0880
39147SOL    HW124302   6.780   1.272   0.856  0.0645  1.6898 -0.1351
39147SOL    HW224303   6.718   1.328   0.982 -0.2554  1.8831 -0.3776
39148SOL     OW24304   1.864   8.576   3.969  0.1823 -0.1395  0.3428
39148SOL    HW124305   1.798   8.625   4.019 -0.2253 -0.4170  0.0795
39148SOL    HW224306   1.817   8.544   3.892  1.1695  1.5802 -1.0312
39149SOL     OW24307   9.892   3.268   6.199 -0.1027 -0.2197  0.1998
39149SOL    HW124308   9.898   3.282   6.293  1.8492  0.1014  0.0697
39149SOL    HW224309   9.938   3.343   6.161  0.4792 -1.1361 -0.9485
39150SOL     OW24310   5.246   5.507   7.732 -0.2920 -0.3346 -0.8187
39150SOL    HW124311   5.295   5.586   7.755 -0.9968  1.3099 -4.3090
39150SOL    HW224312   5.154   5.532   7.743 -0.5707 -0.0900 -3.2102
39151SOL     OW24313  10.685   2.085   4.896 -0.0860 -0.4516  0.8519
39151SOL    HW124314  10.623   2.103   4.966  0.4357 -0.7600  1.4091
39151SOL    HW224315  10.723   2.000   4.919  2.6371  0.9639  2.1235
39152SOL     OW24316   9.491   1.882   4.632 -0.3513 -0.0422 -0.0448
39152SOL    HW124317   9.406   1.913   4.600 -1.5685 -0.9542  2.0978
39152SOL    HW224318   9.519   1.818   4.566 -0.5009  1.4129 -1.5988
39153SOL     OW24319   4.088   7.731   4.235 -0.3148  0.2992 -0.1040
39153SOL    HW124320   4.004   7.775   4.226 -1.1752 -1.3794 -0.6975
39153SOL    HW224321   4.086   7.694   4.324 -0.0478  0.5345  0.0025
39154SOL     OW24322   4.036   3.324  10.805  0.0407 -0.0837 -0.2071
39154SOL    HW124323   3.952   3.364  10.829  0.1425  0.3431 -0.5478
39154SOL    HW224324   4.012   3.239  10.769 -0.2516  0.0710 -0.3843
39155SOL     OW24325   7.139   8.150   8.109  0.0825  0.4387 -0.3580
39155SOL    HW124326   7.091   8.192   8.180 -1.4078 -1.0516 -0.4178
39155SOL    HW224327   7.190   8.220   8.068  0.7860  1.3739  1.9995
39156SOL     OW24328   6.151   2.472   7.339 -0.5427  0.4127  0.1656
39156SOL    HW124329   6.069   2.462   7.387  0.2311 -1.5958  1.1703
39156SOL    HW224330   6.201   2.393   7.359  1.7161  1.6396 -0.2949
39157SOL     OW24331   1.922  11.505   8.832 -0.1843 -0.2093 -0.0493
39157SOL    HW124332   1.990  11.456   8.878 -1.2987 -2.2613 -0.4530
39157SOL    HW224333   1.840  11.479   8.874 -0.8055  1.9985  0.2648
39158SOL     OW24334   2.193  10.166   4.076 -0.5014 -0.2521  0.1439
39158SOL    HW124335   2.197  10.258   4.100  0.3883  0.2659 -1.8215
39158SOL    HW224336   2.177  10.166   3.981 -0.5964 -2.1155  0.1235
39159SOL     OW24337   7.068   8.608  12.290 -0.7360 -0.5879 -0.1177
39159SOL    HW124338   6.994   8.613  12.350 -1.0261 -0.9459 -0.4448
39159SOL    HW224339   7.029   8.597  12.204 -0.3635  1.0325 -0.5335
39160SOL     OW24340   3.775  10.466   4.758 -0.3349 -0.1624 -0.2671
39160SOL    HW124341   3.699  10.456   4.701 -0.9682 -1.4783  0.7468
39160SOL    HW224342   3.837  10.399   4.727  1.0750  1.8203 -2.0048
39161SOL     OW24343   3.358   4.297   3.273  0.0668 -0.0914 -0.1736
39161SOL    HW124344   3.347   4.326   3.182 -0.3706 -0.2760 -0.1830
39161SOL    HW224345   3.282   4.240   3.289  1.3208 -1.9367 -0.4334
39162SOL     OW24346   1.389  12.223  11.109  0.3269  0.1127 -0.3255
39162SOL    HW124347   1.419  12.139  11.142  0.9028  0.7811  0.9459
39162SOL    HW224348   1.315  12.202  11.052  0.2422 -1.2175  0.2426
39163SOL     OW24349  10.159   5.681  11.760 -0.4225  0.6140 -0.3011
39163SOL    HW124350  10.111   5.617  11.706  0.0308  0.7079 -0.8277
39163SOL    HW224351  10.213   5.729  11.697 -0.7689  1.5355  0.0812
39164SOL     OW24352   9.149   7.560  12.476  0.4815 -0.2752 -0.0937
39164SOL    HW124353   9.065   7.593  12.508  0.0805 -0.3125 -1.0503
39164SOL    HW224354   9.198   7.639  12.453 -0.0698 -0.2826 -1.3877
39165SOL     OW24355   6.557   5.407   9.784 -0.3768  0.1666  0.1925
39165SOL    HW124356   6.508   5.367   9.855  0.6751 -0.0139  0.8480
39165SOL    HW224357   6.635   5.444   9.826  0.1869  0.2075 -0.8316
39166SOL     OW24358   7.836   0.318   2.497  0.6408  0.3205  0.3818
39166SOL    HW124359   7.889   0.293   2.422 -2.0406 -0.3056 -1.4591
39166SOL    HW224360   7.833   0.414   2.494 -0.2106  0.2825 -0.9706
39167SOL     OW24361   5.408   7.004   6.580 -0.2522 -0.0933 -0.0824
39167SOL    HW124362   5.471   6.976   6.647  0.5552  0.4277 -0.6022
39167SOL    HW224363   5.325   6.965   6.607  0.5957 -2.0965 -0.1784
39168SOL     OW24364  10.460   0.787   3.153  0.5663  0.1741  0.0329
39168SOL    HW124365  10.378   0.736   3.158 -0.3120  1.6370  1.4164
39168SOL    HW224366  10.498   0.761   3.069 -0.4993 -1.7447  0.0582
39169SOL     OW24367   7.162   7.978   9.512  0.2619 -0.0440  0.2300
39169SOL    HW124368   7.147   7.887   9.490 -0.7006  0.3087 -0.6541
39169SOL    HW224369   7.150   7.983   9.607  1.3053 -1.0012  0.4345
39170SOL     OW24370   7.581   6.806   4.703  0.1783  0.6167  0.1234
39170SOL    HW124371   7.566   6.725   4.653  0.7713  0.9024 -0.5424
39170SOL    HW224372   7.542   6.875   4.649 -0.9188  0.7075  1.0100
39171SOL     OW24373  10.984   2.451   8.778  0.6719 -0.6745  0.0980
39171SOL    HW124374  10.999   2.479   8.868 -1.3211  0.1807  0.2165
39171SOL    HW224375  11.071   2.450   8.738  1.2604  2.5814  0.9918
39172SOL     OW24376  11.871   0.007   2.576 -0.0137  0.0992 -0.1577
39172SOL    HW124377  11.800  -0.049   2.544  0.2298 -1.0847  1.2659
39172SOL    HW224378  11.896   0.061   2.501 -2.1491  0.2785 -0.7974
39173SOL     OW24379  11.699   3.147   0.214 -0.2156  0.0886  0.5625
39173SOL    HW124380  11.624   3.201   0.240  0.8017  0.6800  2.4104
39173SOL    HW224381  11.687   3.135   0.120 -1.5101  1.9293  0.4193
39174SOL     OW24382   7.300   6.215   8.616  0.1434  0.2786  0.8100
39174SOL    HW124383   7.259   6.140   8.659  1.1448 -0.1660  1.0112
39174SOL    HW224384   7.262   6.215   8.528  1.1938 -1.3857  0.3009
39175SOL     OW24385   4.902   5.108   6.432 -0.3699  0.2890 -0.3159
39175SOL    HW124386   4.991   5.112   6.396 -1.3545 -0.6056 -3.0920
39175SOL    HW224387   4.888   5.015   6.450 -0.9884  0.3377 -0.5414
39176SOL     OW24388   7.178   1.018   6.696  0.0859 -0.1965 -0.1942
39176SOL    HW124389   7.154   1.010   6.604 -0.9436  0.1792  0.0213
39176SOL    HW224390   7.098   0.997   6.743  0.8603 -1.3219  0.6494
39177SOL     OW24391   8.591   2.888  10.710 -0.2595 -0.4626 -0.4096
39177SOL    HW124392   8.617   2.854  10.796  1.2694 -1.0540 -1.0688
39177SOL    HW224393   8.662   2.946  10.685 -0.6249 -0.4028 -1.3394
39178SOL     OW24394   2.321  10.753   4.589 -0.1391 -0.5857 -0.1454
39178SOL    HW124395   2.399  10.777   4.540 -0.3738 -0.5065 -0.4821
39178SOL    HW224396   2.252  10.809   4.553  0.0177  0.7052  1.4187
39179SOL     OW24397   2.481   8.405   0.288  0.0189 -0.6327  0.5081
39179SOL    HW124398   2.505   8.498   0.289 -0.9073 -0.3298 -1.2499
39179SOL    HW224399   2.563   8.360   0.268  0.2443 -0.0872  0.1673
39180SOL     OW24400   5.079   2.963  12.473 -0.1828  0.1495  0.4260
39180SOL    HW124401   4.994   2.918  12.473 -0.6574  0.9743 -0.7825
39180SOL    HW224402   5.084   3.004  12.386  0.9912  0.9886  0.8611
39181SOL     OW24403   9.606   7.439  10.315 -0.1744 -0.5079  0.1261
39181SOL    HW124404   9.663   7.459  10.389 -0.9139 -1.0988  0.8794
39181SOL    HW224405   9.658   7.459  10.238  1.2824 -1.6394  0.7737
39182SOL     OW24406   8.314  12.368   1.182  0.1153  0.3418  0.0348
39182SOL    HW124407   8.221  12.392   1.181 -0.0390  0.0841  2.3328
39182SOL    HW224408   8.320  12.297   1.118 -0.8182  1.7243 -1.6651
39183SOL     OW24409   5.895   2.906   2.301  0.8870 -0.4164 -0.0599
39183SOL    HW124410   5.898   2.860   2.217 -1.4672  0.1775 -0.5587
39183SOL    HW224411   5.908   2.998   2.278  0.6272 -0.2950  0.2655
39184SOL     OW24412   4.046   2.319  11.338  0.2213 -0.0819 -0.0097
39184SOL    HW124413   4.004   2.374  11.271 -0.6423 -1.6121 -0.7803
39184SOL    HW224414   4.112   2.269  11.290 -0.8874 -1.7215  0.0720
39185SOL     OW24415   3.577   8.185   6.482 -0.2192 -0.6668 -0.1523
39185SOL    HW124416   3.542   8.262   6.528 -0.8371 -0.7540 -0.4596
39185SOL    HW224417   3.592   8.120   6.550 -0.8122 -0.6798 -0.0293
39186SOL     OW24418   0.249  11.201   6.830  0.2364  0.2702  0.2292
39186SOL    HW124419   0.323  11.184   6.772  0.4002  1.2128  0.1523
39186SOL    HW224420   0.260  11.139   6.902 -0.2151 -1.2379 -0.9394
39187SOL     OW24421   3.004   5.019   4.618  0.0742  0.2607 -0.1004
39187SOL    HW124422   3.088   5.051   4.585  0.2137  1.0303  0.9583
39187SOL    HW224423   2.998   5.054   4.706 -1.0949 -0.2939  0.0584
39188SOL     OW24424   3.810   8.737   6.595 -0.2217 -1.0133 -0.3924
39188SOL    HW124425   3.748   8.743   6.522  0.5271 -0.1090 -0.9928
39188SOL    HW224426   3.875   8.805   6.576 -0.7608  0.2486  1.8717
39189SOL     OW24427   4.374   2.573  10.960  0.7605 -0.3702 -0.1551
39189SOL    HW124428   4.460   2.613  10.962  0.2106  0.8273  0.9472
39189SOL    HW224429   4.347   2.568  11.052  0.2486 -2.1103 -0.3482
39190SOL     OW24430  10.031   7.710   1.454 -0.2087 -0.3581  0.3758
39190SOL    HW124431  10.083   7.639   1.416 -1.3186 -0.7150 -0.4933
39190SOL    HW224432   9.947   7.669   1.475 -0.5417  0.4911  0.7026
39191SOL     OW24433   7.835   9.761   2.872  0.4902  0.5349 -0.1737
39191SOL    HW124434   7.861   9.749   2.781  0.3966  0.2263 -0.1595
39191SOL    HW224435   7.777   9.687   2.891 -0.0819  0.9944 -0.0896
39192SOL     OW24436   7.190  10.215  11.110 -0.0596  0.7627 -0.0249
39192SOL    HW124437   7.199  10.224  11.205 -0.8104  0.6466  0.0709
39192SOL    HW224438   7.237  10.289  11.074  0.5383  0.6102  0.4249
39193SOL     OW24439   6.107   2.273   1.031  0.0695  0.4202  0.6342
39193SOL    HW124440   6.145   2.200   0.982 -1.1844  1.0300 -1.3276
39193SOL    HW224441   6.171   2.290   1.101  0.3338 -2.5960  1.2502
39194SOL     OW24442   3.911   7.033   9.102  0.0131 -0.4317 -0.0020
39194SOL    HW124443   3.948   7.043   9.190  1.5511 -0.7847 -0.5830
39194SOL    HW224444   3.866   6.949   9.104 -1.8051  0.5061  1.0462
39195SOL     OW24445   5.061   1.403   7.473 -0.6913 -0.3070 -0.2479
39195SOL    HW124446   5.113   1.346   7.530 -1.0868 -0.6455 -0.2193
39195SOL    HW224447   4.986   1.428   7.526 -0.0807  0.9726  0.0437
39196SOL     OW24448  10.150   9.615   7.841 -0.1581 -0.0932  0.1135
39196SOL    HW124449  10.183   9.684   7.783  2.1681 -0.4435  0.9259
39196SOL    HW224450  10.060   9.602   7.813 -0.3351  2.4786 -0.8258
39197SOL     OW24451  11.079   1.220  12.351 -0.0991  0.5748  0.4521
39197SOL    HW124452  11.162   1.178  12.329 -0.4501 -0.3168  0.7654
39197SOL    HW224453  11.015   1.181  12.292 -0.4549  0.5906  0.8191
39198SOL     OW24454   1.683  12.407   8.680  0.1963  0.6592  0.3127
39198SOL    HW124455   1.654  12.327   8.724  1.3367  0.4022  0.6271
39198SOL    HW224456   1.778  12.403   8.684  0.2667  2.0118  0.2709
39199SOL     OW24457   9.925  11.519   5.610 -0.1931  0.1171  0.1726
39199SOL    HW124458   9.891  11.454   5.672 -2.0353  0.1902 -0.6794
39199SOL    HW224459  10.019  11.505   5.609 -0.1894 -0.3604  2.4271
39200SOL     OW24460   9.460   8.621   0.827 -0.0439 -0.1917  0.0038
39200SOL    HW124461   9.510   8.544   0.855 -0.8296 -0.5628  0.4417
39200SOL    HW224462   9.464   8.680   0.902 -1.4571 -0.8359  0.6175
39201SOL     OW24463   4.409  12.332   2.236 -0.4696  0.3227  0.4194
39201SOL    HW124464   4.480  12.308   2.296  2.1351 -0.4885 -2.6937
39201SOL    HW224465   4.443  12.408   2.188 -0.7311 -1.2762 -2.5340
39202SOL     OW24466   5.040  10.471   6.707 -0.5020  0.0263 -0.4072
39202SOL    HW124467   4.988  10.525   6.648  0.5905  0.6910 -0.7824
39202SOL    HW224468   4.978  10.443   6.774 -1.2918  1.0014 -0.7043
39203SOL     OW24469   0.753   5.126   2.554  0.0471  0.4525 -0.0407
39203SOL    HW124470   0.681   5.159   2.609 -1.7337 -0.8764 -1.4687
39203SOL    HW224471   0.748   5.031   2.563  1.8187  0.3365  0.0068
39204SOL     OW24472   6.665   2.234   7.117  0.0316  0.5672 -0.2960
39204SOL    HW124473   6.598   2.294   7.085 -0.5123 -0.0945 -0.4099
39204SOL    HW224474   6.645   2.150   7.075 -2.9885 -1.4542  4.3313
39205SOL     OW24475  10.380  12.052   3.083  0.1172  0.0856  0.2175
39205SOL    HW124476  10.452  12.093   3.131  1.1904 -0.5861 -0.7598
39205SOL    HW224477  10.407  11.961   3.071  0.1784  0.3413 -2.0906
39206SOL     OW24478  11.183   0.576  11.278 -0.0712  0.4160  0.2622
39206SOL    HW124479  11.256   0.519  11.253  0.6448  1.8767 -1.1129
39206SOL    HW224480  11.112   0.551  11.219 -0.2128  0.0136  0.5977
39207SOL     OW24481   8.269   1.731   8.675  0.0482  0.6365  0.4439
39207SOL    HW124482   8.193   1.721   8.617  1.0763 -0.3593 -0.7969
39207SOL    HW224483   8.247   1.679   8.752  0.3342 -1.5328 -0.8537
39208SOL     OW24484   5.063   8.354   4.160 -0.0250  0.2915  0.1676
39208SOL    HW124485   5.087   8.383   4.072  1.4993  0.8474  0.7377
39208SOL    HW224486   5.102   8.267   4.169  0.8176  0.7113  0.6840
39209SOL     OW24487   1.039  11.563   8.785 -0.7298  0.1727 -0.0036
39209SOL    HW124488   1.043  11.647   8.739 -0.3939  0.2169  0.0998
39209SOL    HW224489   1.124  11.556   8.830  0.2753 -1.3189 -1.9570
39210SOL     OW24490   5.136  10.901   0.499 -0.1304 -0.0815 -0.1695
39210SOL    HW124491   5.199  10.893   0.570 -0.6601 -0.0508  0.3185
39210SOL    HW224492   5.075  10.969   0.529 -0.5607 -0.3157 -0.4938
39211SOL     OW24493   9.723   8.299   2.875  0.0509  0.0348  0.4171
39211SOL    HW124494   9.723   8.205   2.859  0.7148 -0.1414  1.3781
39211SOL    HW224495   9.748   8.337   2.791 -2.4639 -0.4792 -0.6450
39212SOL     OW24496   6.374   0.060   7.283  0.1632 -0.3742  0.9767
39212SOL    HW124497   6.338  -0.027   7.264  0.5858 -0.5393  0.9230
39212SOL    HW224498   6.464   0.056   7.251  0.0070  0.2758  0.4229
39213SOL     OW24499   4.921   6.768  12.293  0.0694  0.0177 -0.2620
39213SOL    HW124500   4.898   6.861  12.286 -2.2396 -0.2778  2.1406
39213SOL    HW224501   4.854   6.723  12.241 -0.3308 -0.4424  0.6458
39214SOL     OW24502  11.924   7.037   9.854 -0.4007  0.1902  0.0961
39214SOL    HW124503  12.018   7.055   9.862 -0.3530 -0.1813  0.4327
39214SOL    HW224504  11.882   7.098   9.914 -0.3499  0.1587  0.1633
39215SOL     OW24505   0.617  12.322  10.804  0.0468 -0.4857 -0.5342
39215SOL    HW124506   0.644  12.404  10.845  0.8970 -1.7565  1.5701
39215SOL    HW224507   0.583  12.349  10.718  0.7212  1.9957 -0.1063
39216SOL     OW24508   9.072  11.256  10.928 -0.3738 -0.2340 -0.1754
39216SOL    HW124509   9.146  11.262  10.867  0.8164  1.2608  1.3247
39216SOL    HW224510   9.107  11.208  11.003 -1.6425 -1.5066 -0.3365
39217SOL     OW24511  11.207   8.446   7.551  0.3619  0.4024  0.1933
39217SOL    HW124512  11.122   8.483   7.527  0.2236  0.3089  0.5427
39217SOL    HW224513  11.257   8.519   7.587  0.7538  0.6643 -0.8187
39218SOL     OW24514   9.828   0.992   8.877 -0.3181  0.3292 -0.2070
39218SOL    HW124515   9.793   0.928   8.815  0.3065 -0.5271  0.3046
39218SOL    HW224516   9.785   0.973   8.959  0.7498 -0.2329  0.2432
39219SOL     OW24517   0.978   5.631   7.103 -0.0959  0.7191  0.3416
39219SOL    HW124518   1.031   5.701   7.064 -0.2935  1.2506  1.0154
39219SOL    HW224519   0.919   5.676   7.164 -1.7820  0.2084 -0.8515
39220SOL     OW24520   2.198   3.940   3.693 -0.0417 -0.2816  0.2940
39220SOL    HW124521   2.167   3.985   3.614  0.0373 -2.5602 -1.1262
39220SOL    HW224522   2.124   3.886   3.720  0.3279 -0.3941  1.1096
39221SOL     OW24523   8.889   1.866   2.774 -0.0851 -0.8173 -0.2825
39221SOL    HW124524   8.942   1.942   2.800 -1.5924  0.6406 -1.2433
39221SOL    HW224525   8.848   1.837   2.855 -0.6693  0.3954 -0.1118
39222SOL     OW24526   8.892   6.795   2.239  0.2642 -0.0473 -0.0381
39222SOL    HW124527   8.955   6.789   2.168 -0.9111  0.2323 -1.1424
39222SOL    HW224528   8.945   6.799   2.318  1.6319  0.4176 -0.9419
39223SOL     OW24529   8.099   7.749   2.060  1.0128  0.3028  0.0793
39223SOL    HW124530   8.012   7.785   2.078  0.0686 -2.3021  1.2432
39223SOL    HW224531   8.158   7.796   2.119  0.0368  0.6301  0.7984
39224SOL     OW24532   4.121   4.670   5.509  0.7011 -0.3232  0.0350
39224SOL    HW124533   4.168   4.616   5.446  1.3951 -1.3190  1.3699
39224SOL    HW224534   4.181   4.680   5.583  0.4044  1.8896  0.0444
39225SOL     OW24535   3.155   3.366   9.911 -1.2854  0.2351  0.1952
39225SOL    HW124536   3.075   3.387   9.959 -0.1311  2.4831  1.3149
39225SOL    HW224537   3.225   3.387   9.972  0.2427  2.4487 -2.1109
39226SOL     OW24538   7.663   7.905   5.176  0.0864 -0.2188 -0.4424
39226SOL    HW124539   7.646   7.976   5.114 -1.3277 -1.3195 -1.3759
39226SOL    HW224540   7.724   7.848   5.130 -1.0176 -1.0722 -0.8762
39227SOL     OW24541   9.124  10.485   0.169 -0.2572 -0.3116 -0.2218
39227SOL    HW124542   9.045  10.534   0.193 -0.0563  0.4958 -1.1564
39227SOL    HW224543   9.185  10.501   0.240 -1.0046 -1.1511  0.6451
39228SOL     OW24544   0.490   2.685   3.507  0.1877 -0.1063  0.9307
39228SOL    HW124545   0.520   2.610   3.559 -1.0311 -1.6429 -0.4880
39228SOL    HW224546   0.560   2.698   3.443  0.3716 -0.0476  1.1388
39229SOL     OW24547   1.387   7.038   0.190 -0.4090 -0.2115 -0.4884
39229SOL    HW124548   1.376   7.123   0.233  1.1472 -0.6731  0.8916
39229SOL    HW224549   1.331   6.978   0.240  2.0893 -0.9451  1.6493
39230SOL     OW24550   2.529  10.916   7.633 -0.0337 -0.4497  0.4986
39230SOL    HW124551   2.621  10.934   7.618 -0.3729  0.1478 -1.1106
39230SOL    HW224552   2.484  10.959   7.560 -1.7085  0.4857  1.9851
39231SOL     OW24553  12.074  12.267   9.939 -0.1367  0.2707 -0.4158
39231SOL    HW124554  12.130  12.232  10.008 -0.4866  3.3536  1.6388
39231SOL    HW224555  12.133  12.316   9.882 -0.3498  1.3517  0.2604
39232SOL     OW24556   5.886   0.448   0.983 -0.1247  0.1223  0.3869
39232SOL    HW124557   5.944   0.477   0.913  0.2003 -0.2694  0.4931
39232SOL    HW224558   5.846   0.368   0.950  0.3296 -0.2791  0.8074
39233SOL     OW24559   7.583  10.099   7.305  0.4778  0.5119 -0.3873
39233SOL    HW124560   7.563  10.006   7.310  0.2063  0.6352  1.6679
39233SOL    HW224561   7.677  10.105   7.323  0.7508  0.5808 -1.7019
39234SOL     OW24562   6.102   6.557   9.529  0.6511 -0.2585  0.0219
39234SOL    HW124563   6.023   6.600   9.495  1.1785 -0.8961 -2.1960
39234SOL    HW224564   6.173   6.617   9.507  1.1126 -1.1100 -0.9003
39235SOL     OW24565   8.624   5.520  11.335 -0.7436 -0.1757 -0.4762
39235SOL    HW124566   8.601   5.509  11.242 -0.4687  2.2121 -0.8832
39235SOL    HW224567   8.709   5.563  11.334  0.4812 -2.3886  0.9639
39236SOL     OW24568  10.815   1.909   7.123  0.0464  0.1609  0.0659
39236SOL    HW124569  10.894   1.898   7.176 -0.7346 -2.3161  0.8891
39236SOL    HW224570  10.776   1.991   7.154 -0.0941 -0.9148  3.0484
39237SOL     OW24571   3.587   7.314  10.997  0.2682  0.1196 -0.0166
39237SOL    HW124572   3.680   7.303  11.016  0.1490 -0.2774  0.3358
39237SOL    HW224573   3.573   7.409  11.000  0.7692  0.2199 -0.6013
39238SOL     OW24574  10.378   7.068   7.467 -0.0340  0.1087  0.7687
39238SOL    HW124575  10.418   7.128   7.404  0.8245 -1.0154  0.2037
39238SOL    HW224576  10.293   7.107   7.487  0.0520  0.9428 -0.4103
39239SOL     OW24577   5.259   1.983  10.962 -0.4594 -0.1868  0.3513
39239SOL    HW124578   5.232   1.892  10.950 -2.1568  0.3325 -0.0152
39239SOL    HW224579   5.265   2.019  10.873 -0.4313  0.2398  0.5207
39240SOL     OW24580  11.522   1.478   8.594 -0.2894  0.3623  0.6618
39240SOL    HW124581  11.438   1.435   8.610 -1.1205  1.2851 -0.9087
39240SOL    HW224582  11.540   1.461   8.501  2.3595 -1.6191  1.4133
39241SOL     OW24583   1.875  12.249   3.028  0.2701  0.5808 -0.2701
39241SOL    HW124584   1.860  12.250   2.933  2.0304  0.9775 -0.5720
39241SOL    HW224585   1.917  12.334   3.046  0.9014  0.0778  0.6904
39242SOL     OW24586  12.071   6.594  10.549  0.0265 -0.7807  0.6533
39242SOL    HW124587  12.135   6.547  10.497  1.5339  0.0866  1.6570
39242SOL    HW224588  12.093   6.686  10.538 -2.9394 -0.1636 -1.3746
39243SOL     OW24589   4.110   3.965   9.418  0.3529  0.5066 -0.0376
39243SOL    HW124590   4.092   3.972   9.512 -0.5345  1.1518 -0.2382
39243SOL    HW224591   4.126   3.872   9.403  0.9522  0.4640  0.8272
39244SOL     OW24592   5.697  11.972   4.742  0.3171  0.1904 -0.2509
39244SOL    HW124593   5.644  11.934   4.672 -0.5141 -1.0603  1.0178
39244SOL    HW224594   5.684  11.914   4.817  0.3642  2.0597  1.2710
39245SOL     OW24595   9.831  11.865   0.952 -0.2648 -0.1928  0.3017
39245SOL    HW124596   9.774  11.824   1.017 -0.9674  1.1530  0.5639
39245SOL    HW224597   9.920  11.841   0.979 -0.5910 -0.3782  1.2562
39246SOL     OW24598   3.843   0.345  10.540 -0.1259  0.0876  0.2774
39246SOL    HW124599   3.843   0.440  10.545 -1.2310  0.1254 -0.0390
39246SOL    HW224600   3.921   0.318  10.587  0.8040  1.1916 -0.5854
39247SOL     OW24601   9.926   8.027   8.276 -0.2491  0.2185  0.6179
39247SOL    HW124602   9.978   8.062   8.204  0.4997 -1.1758  0.4451
39247SOL    HW224603   9.854   7.981   8.234  0.1758 -0.5789  0.7342
39248SOL     OW24604  11.190   9.152  10.282 -0.2100 -0.1518  0.0415
39248SOL    HW124605  11.260   9.160  10.217 -1.4804 -1.3864 -1.5868
39248SOL    HW224606  11.157   9.241  10.293 -0.2532  0.0345 -1.3757
39249SOL     OW24607   5.134   7.052  11.730 -0.4232 -0.5193 -0.4936
39249SOL    HW124608   5.118   6.972  11.679 -0.1545 -0.0295 -1.3696
39249SOL    HW224609   5.108   7.123  11.672 -3.4028  0.0128  1.2949
39250SOL     OW24610   8.714  12.326  11.471 -0.1692 -0.4718  0.0109
39250SOL    HW124611   8.639  12.282  11.431 -0.6389  0.1698  0.1831
39250SOL    HW224612   8.728  12.280  11.553 -1.2769  0.3063  0.6585
39251SOL     OW24613   4.590  11.786   2.368  0.3720  0.5722 -0.0958
39251SOL    HW124614   4.587  11.859   2.430  0.2772  1.1779 -0.7944
39251SOL    HW224615   4.542  11.715   2.411 -0.1875  1.1708  0.2794
39252SOL     OW24616   9.134   6.605   7.863  0.1950  0.2849  0.3052
39252SOL    HW124617   9.041   6.586   7.856  0.1534  1.1710 -2.4224
39252SOL    HW224618   9.176   6.519   7.856 -0.3512  0.0964 -0.8499
39253SOL     OW24619   2.312   4.340   6.710 -0.1744 -0.2696  0.1184
39253SOL    HW124620   2.347   4.253   6.725  0.5381 -0.6609 -3.0436
39253SOL    HW224621   2.364   4.397   6.767  1.5601 -1.5495 -0.1014
39254SOL     OW24622   7.017   0.522   6.945 -0.4418 -0.1915 -0.1224
39254SOL    HW124623   7.057   0.441   6.914  0.8635 -0.1080  1.2399
39254SOL    HW224624   7.085   0.589   6.933 -0.7660  0.2928  0.6791
39255SOL     OW24625   3.746   9.669   9.712  0.3615 -0.2919 -0.0031
39255SOL    HW124626   3.693   9.592   9.733  0.5504 -0.3738  0.1647
39255SOL    HW224627   3.828   9.633   9.678  0.3642 -0.1637 -0.1352
39256SOL     OW24628   5.601   7.840   9.639  0.9919  0.3432  0.7695
39256SOL    HW124629   5.611   7.935   9.638  0.7503  0.3858  1.5693
39256SOL    HW224630   5.682   7.808   9.679  2.2646  0.0042 -1.8139
39257SOL     OW24631   6.261   3.321   2.163  0.4231  0.6315  0.0837
39257SOL    HW124632   6.227   3.397   2.116  2.0675  1.5879  0.3405
39257SOL    HW224633   6.256   3.249   2.100 -1.6902  0.7825  0.0251
39258SOL     OW24634   5.815   2.035  12.144  0.9941 -0.0689  0.5459
39258SOL    HW124635   5.834   1.944  12.167  1.2908 -0.1591 -0.0213
39258SOL    HW224636   5.865   2.050  12.063  0.5159  0.4304  0.3375
39259SOL     OW24637   5.942   2.949  10.250 -0.4173 -0.8184  0.0787
39259SOL    HW124638   5.874   2.950  10.184 -1.1011  0.8587  0.7472
39259SOL    HW224639   5.897   2.973  10.331  0.9907  0.7145  0.4667
39260SOL     OW24640   5.850   2.106   3.519  0.7176 -0.0586  0.0467
39260SOL    HW124641   5.829   2.013   3.526  1.5156 -0.1539  1.5718
39260SOL    HW224642   5.893   2.113   3.433  0.3648 -1.0268 -0.2304
39261SOL     OW24643   6.827  10.467   4.016  0.1776  0.5603 -0.5018
39261SOL    HW124644   6.872  10.552   4.015  0.7914  0.2409 -0.3482
39261SOL    HW224645   6.885  10.410   4.066 -0.1134 -0.0199 -0.8231
39262SOL     OW24646   2.994   6.340   0.506 -0.0052  0.7998  0.1507
39262SOL    HW124647   3.025   6.251   0.518 -3.1445 -0.2815  1.2659
39262SOL    HW224648   2.999   6.355   0.411 -2.3681 -1.8516 -0.5139
39263SOL     OW24649  11.128   1.790  11.507 -0.4064 -0.6097  0.2139
39263SOL    HW124650  11.066   1.786  11.434  0.1734  0.2397 -0.3463
39263SOL    HW224651  11.114   1.876  11.546  1.2820  0.1584 -0.7444
39264SOL     OW24652   4.902   9.328   5.360 -0.5184 -0.1785  0.3302
39264SOL    HW124653   4.836   9.369   5.415 -0.9619  1.2639 -1.1739
39264SOL    HW224654   4.955   9.401   5.328  0.0089 -1.0005 -0.7588
39265SOL     OW24655   3.643   0.618   9.576  0.5069  0.5027 -0.0696
39265SOL    HW124656   3.675   0.539   9.621 -2.4314 -1.0934 -0.5038
39265SOL    HW224657   3.663   0.689   9.636  0.8028 -0.9617  1.6743
39266SOL     OW24658   0.054  11.097   0.045  0.1402 -1.0264  0.1650
39266SOL    HW124659   0.076  11.167   0.107  1.7984  0.1794 -1.6564
39266SOL    HW224660  -0.025  11.128   0.002  1.1832  0.1126 -1.0437
39267SOL     OW24661   1.945   1.226   8.962  0.0637 -0.4471 -0.3276
39267SOL    HW124662   1.948   1.286   8.888  0.5751  1.7241  1.3628
39267SOL    HW224663   1.856   1.236   8.998 -0.0866 -1.2565 -0.4526
39268SOL     OW24664   1.026   2.061   0.109  0.4109  1.0149 -0.5520
39268SOL    HW124665   1.024   2.099   0.197 -1.1111  1.2720 -0.6686
39268SOL    HW224666   0.940   2.081   0.072  0.4413 -0.4545 -1.5225
39269SOL     OW24667  11.884   0.318   0.963  0.5467  0.7531  0.7377
39269SOL    HW124668  11.898   0.409   0.936 -0.2540  1.3560  2.2117
39269SOL    HW224669  11.969   0.292   1.000  1.1737  0.4364 -0.8623
39270SOL     OW24670   8.184   3.626  10.544  0.0279  0.1835  0.2185
39270SOL    HW124671   8.163   3.550  10.599  0.5030  1.3770  2.1253
39270SOL    HW224672   8.176   3.593  10.454 -1.1224 -1.7504  0.9674
39271SOL     OW24673   0.818   6.351   1.943 -0.0491 -0.3745  0.1840
39271SOL    HW124674   0.884   6.420   1.954  0.5556 -0.7530 -0.8968
39271SOL    HW224675   0.863   6.270   1.966 -0.4437 -0.5279  0.4247
39272SOL     OW24676   3.536  10.236   6.358  0.2514 -0.1778 -0.1287
39272SOL    HW124677   3.599  10.266   6.425  1.0123 -0.0067 -0.8945
39272SOL    HW224678   3.472  10.307   6.352  0.3523 -0.0577  0.2064
39273SOL     OW24679   4.751   1.720   4.557 -0.4156 -0.2953 -0.2434
39273SOL    HW124680   4.762   1.738   4.464  0.1053 -1.7884 -0.4934
39273SOL    HW224681   4.799   1.790   4.602 -0.5820  0.3666 -1.0740
39274SOL     OW24682   6.426  10.873   8.960 -0.1651 -0.0714 -0.2643
39274SOL    HW124683   6.424  10.945   9.024 -2.8916  1.2604 -1.6713
39274SOL    HW224684   6.463  10.799   9.008 -0.6447  1.2821  2.3829
39275SOL     OW24685   4.855   1.731   5.547  0.7056 -0.1321  0.4977
39275SOL    HW124686   4.853   1.689   5.461  0.4704  2.0576 -0.6570
39275SOL    HW224687   4.948   1.743   5.566  0.8441 -2.3799  1.5478
39276SOL     OW24688   1.453   4.872  12.204  0.1679  0.1764 -0.1866
39276SOL    HW124689   1.381   4.824  12.163  0.4966  0.3658 -0.9978
39276SOL    HW224690   1.532   4.841  12.159  0.3803  1.5606 -0.8282
39277SOL     OW24691  12.278   6.106   7.438  0.5451 -0.5538  0.1997
39277SOL    HW124692  12.244   6.116   7.350  0.1365 -0.4006  0.3720
39277SOL    HW224693  12.318   6.019   7.439 -0.0245 -0.8212  0.0516
39278SOL     OW24694   3.349   9.526   8.933 -0.0073 -0.3473 -0.1932
39278SOL    HW124695   3.281   9.511   8.999  0.6845 -0.4666  0.5094
39278SOL    HW224696   3.403   9.596   8.970  0.6820 -0.7561 -0.4003
39279SOL     OW24697   5.854   5.123  10.828 -0.1928 -0.3888 -0.7017
39279SOL    HW124698   5.817   5.093  10.745  0.7746 -0.6594 -1.0451
39279SOL    HW224699   5.858   5.044  10.883 -2.1273  0.0330  0.1328
39280SOL     OW24700   8.953   2.508   7.521 -0.4042 -0.3441  0.1036
39280SOL    HW124701   8.876   2.555   7.553 -0.0262  0.4581 -0.1315
39280SOL    HW224702   9.006   2.575   7.479  0.4195 -0.8929  0.2414
39281SOL     OW24703  11.193   8.875  11.705  0.0036  0.4666 -0.3320
39281SOL    HW124704  11.176   8.962  11.742 -0.2064  0.9704 -1.5577
39281SOL    HW224705  11.162   8.881  11.614 -4.0437 -2.1769  0.6154
39282SOL     OW24706   8.815  10.783  10.799 -1.1156 -0.2748 -0.1187
39282SOL    HW124707   8.813  10.706  10.855  1.5406  0.1061  0.6399
39282SOL    HW224708   8.860  10.753  10.720 -0.1518  0.4595  0.1447
39283SOL     OW24709   5.284   8.061   5.779 -0.2627  0.5510  0.1983
39283SOL    HW124710   5.338   8.025   5.709 -1.3266  0.7038 -0.7344
39283SOL    HW224711   5.229   8.126   5.736 -1.7650 -0.1807  0.9292
39284SOL     OW24712   8.798   8.752  11.305 -0.4629  0.2226 -0.2285
39284SOL    HW124713   8.778   8.846  11.301  0.5901  0.4805  0.2270
39284SOL    HW224714   8.882   8.743  11.260 -0.3603 -0.4407  0.0848
39285SOL     OW24715   4.841   6.441   4.069  0.3895 -0.3312  0.0632
39285SOL    HW124716   4.762   6.429   4.014  0.7048 -0.0385 -0.4595
39285SOL    HW224717   4.850   6.535   4.077  0.3595 -0.3749  0.6134
39286SOL     OW24718   5.916   7.689  10.031  0.3943 -0.1197 -0.0338
39286SOL    HW124719   5.967   7.642   9.965  1.4131  1.3258 -0.3285
39286SOL    HW224720   5.850   7.626  10.059  0.8597 -1.2625 -1.3616
39287SOL     OW24721   6.004   4.174   3.599  0.4413 -0.1841  0.0443
39287SOL    HW124722   5.977   4.164   3.690  0.6734  0.3228  0.1722
39287SOL    HW224723   6.070   4.243   3.601 -1.4611  1.7971 -0.8278
39288SOL     OW24724   6.454   1.020   2.007 -0.0815  0.1930  0.0311
39288SOL    HW124725   6.460   0.952   2.074  0.8378  1.1845  0.9772
39288SOL    HW224726   6.528   1.003   1.949  0.4515  0.6662  0.5563
39289SOL     OW24727   0.979   1.993  10.926 -0.2484 -0.2562 -0.0743
39289SOL    HW124728   0.958   2.039  10.844  0.6483 -1.8327 -1.2453
39289SOL    HW224729   1.006   1.906  10.898  3.1891  0.1050  1.6476
39290SOL     OW24730   6.219   5.604   4.605 -0.6975  1.0886  0.1761
39290SOL    HW124731   6.221   5.551   4.526  0.9729  1.3860 -0.0132
39290SOL    HW224732   6.136   5.580   4.648 -0.2044 -1.3673 -0.0936
39291SOL     OW24733   7.464   6.488   0.371 -0.1182  0.4234  0.1729
39291SOL    HW124734   7.527   6.491   0.443  0.1471 -0.4568 -0.0138
39291SOL    HW224735   7.438   6.580   0.358 -0.1143  0.5985  1.3296
39292SOL     OW24736   9.973  11.965   2.368 -0.1959  0.1884 -0.2424
39292SOL    HW124737   9.936  11.956   2.280  0.1885 -0.4927 -0.3365
39292SOL    HW224738   9.909  11.921   2.425  1.3605 -2.8300 -0.6268
39293SOL     OW24739   2.487   3.388   6.409  0.0151 -0.4248  0.7756
39293SOL    HW124740   2.430   3.315   6.385  0.8500 -1.1864  1.0522
39293SOL    HW224741   2.576   3.353   6.398  0.4391  0.7939  0.1628
39294SOL     OW24742  11.838   9.293   2.136  0.3449  0.4866 -0.6981
39294SOL    HW124743  11.889   9.326   2.062 -0.7405 -0.3976 -1.8932
39294SOL    HW224744  11.843   9.198   2.128  0.3801  0.3659  0.5196
39295SOL     OW24745   4.445   8.277   0.402 -0.2701  0.0979 -0.1380
39295SOL    HW124746   4.439   8.195   0.451  0.2994 -0.1867 -0.5318
39295SOL    HW224747   4.365   8.280   0.350  0.6316 -1.2623 -1.6976
39296SOL     OW24748   6.495   6.161   2.152 -0.1502  0.5439 -0.8852
39296SOL    HW124749   6.528   6.197   2.070  1.4321  1.3610  0.0612
39296SOL    HW224750   6.472   6.238   2.204 -0.5177  0.0574 -0.3255
39297SOL     OW24751   1.523   7.419   2.343 -0.3757 -0.0722  0.1702
39297SOL    HW124752   1.530   7.329   2.313 -0.5439  0.0254 -0.1659
39297SOL    HW224753   1.550   7.471   2.267  1.1334  0.1238  0.8031
39298SOL     OW24754  11.213   0.005  10.755 -0.1999  0.2253 -0.1732
39298SOL    HW124755  11.168   0.068  10.812 -0.0982 -2.0357  2.6160
39298SOL    HW224756  11.302   0.038  10.747  0.2021 -0.1029  2.2973
39299SOL     OW24757  11.878   4.360   2.839  0.4594 -0.2308 -0.0383
39299SOL    HW124758  11.910   4.351   2.929 -0.2198 -2.0909  0.0517
39299SOL    HW224759  11.946   4.320   2.785  0.9212  0.9870 -0.3941
39300SOL     OW24760  10.325   9.209   0.114 -0.3623 -0.0411 -1.0236
39300SOL    HW124761  10.382   9.140   0.081 -0.1294 -0.5749  0.4189
39300SOL    HW224762  10.245   9.163   0.140 -0.0820  0.1510  0.2597
39301SOL     OW24763   1.548   8.486  11.301 -0.4362  0.3403  0.2689
39301SOL    HW124764   1.557   8.450  11.213 -0.9939 -2.8325  1.3563
39301SOL    HW224765   1.637   8.482  11.337 -0.1256  2.0621 -0.2638
39302SOL     OW24766   4.818   9.129   8.132  0.3901 -0.2692 -0.1686
39302SOL    HW124767   4.749   9.091   8.187 -0.0258 -0.7545 -1.0025
39302SOL    HW224768   4.876   9.055   8.113  2.1659  0.4792  1.9768
39303SOL     OW24769  11.994   8.899   0.988 -0.1749  0.9229  0.2063
39303SOL    HW124770  12.036   8.905   1.074  0.3932 -0.6474  0.0752
39303SOL    HW224771  11.979   8.989   0.962  0.5999  1.4493  1.4938
39304SOL     OW24772   4.449   4.535   1.991 -0.2665  1.2100  0.2536
39304SOL    HW124773   4.508   4.536   1.916 -0.3466 -0.3542  0.1237
39304SOL    HW224774   4.503   4.560   2.065  0.7019 -0.5577  0.1979
39305SOL     OW24775  11.440   1.874   2.031  1.0862 -0.1053 -0.0942
39305SOL    HW124776  11.521   1.917   2.001  1.9776 -0.8246  1.1929
39305SOL    HW224777  11.379   1.886   1.958  2.9974 -1.3687 -2.0521
39306SOL     OW24778  10.709   7.548   9.765 -0.0793  0.2827 -0.1133
39306SOL    HW124779  10.621   7.581   9.781 -0.3980  0.6314 -2.2992
39306SOL    HW224780  10.763   7.589   9.833 -1.7332 -0.8097  1.9512
39307SOL     OW24781   3.683   4.981   9.630 -0.1735  0.3580 -0.0864
39307SOL    HW124782   3.697   4.992   9.724 -2.8696  1.6145  0.2833
39307SOL    HW224783   3.669   4.888   9.618  0.4373  0.1541  0.7006
39308SOL     OW24784  11.509  11.848   2.480 -0.1702 -0.9389  0.0382
39308SOL    HW124785  11.568  11.791   2.529 -0.9688  0.1603  2.4710
39308SOL    HW224786  11.479  11.795   2.406 -0.2907 -3.4246  1.7358
39309SOL     OW24787   2.617  11.685  11.609  0.0150 -0.1904 -0.0514
39309SOL    HW124788   2.595  11.706  11.700  1.7149  1.1649  0.1047
39309SOL    HW224789   2.624  11.771  11.566 -0.3886 -0.7964 -1.3842
39310SOL     OW24790   7.190   5.402   8.074  0.2108  0.0022 -0.3059
39310SOL    HW124791   7.206   5.454   8.152 -1.7794 -0.7327  0.6403
39310SOL    HW224792   7.240   5.321   8.088  0.7848  0.3427 -0.3496
39311SOL     OW24793  12.288   4.386  10.135  0.1288 -0.2604  0.1705
39311SOL    HW124794  12.287   4.294  10.108 -1.1737  0.0865 -1.1279
39311SOL    HW224795  12.209   4.423  10.095  0.9422  1.5625  0.1555
39312SOL     OW24796   4.306   6.659   9.679 -0.1237 -0.2126  0.2840
39312SOL    HW124797   4.316   6.598   9.753  0.4805 -0.7096 -0.1964
39312SOL    HW224798   4.391   6.704   9.674 -0.0294 -0.4552 -0.3456
39313SOL     OW24799   8.351  12.041   0.433 -0.0167  0.2154 -0.8509
39313SOL    HW124800   8.265  12.015   0.466  0.3559  1.1125  0.9474
39313SOL    HW224801   8.412  11.981   0.475  0.5765  2.0762  1.1200
39314SOL     OW24802   7.919  11.648  11.131  0.1395  0.4787 -0.4316
39314SOL    HW124803   7.974  11.724  11.113 -0.9897  0.6645 -3.5471
39314SOL    HW224804   7.958  11.578  11.079 -1.8310  0.3202 -1.7700
39315SOL     OW24805   5.220   0.561   2.980 -0.2186 -0.3035  0.4111
39315SOL    HW124806   5.280   0.596   3.046 -0.1903  1.6622 -0.5745
39315SOL    HW224807   5.262   0.581   2.896  0.5076 -4.1419 -0.3035
39316SOL     OW24808   6.445   9.407   7.355 -0.2426  0.0819  0.2359
39316SOL    HW124809   6.439   9.344   7.427 -0.2092  0.8819  0.9513
39316SOL    HW224810   6.444   9.493   7.398  1.6119  0.5647 -0.5578
39317SOL     OW24811   1.743   4.730   9.090  0.5205  0.2829  0.4353
39317SOL    HW124812   1.759   4.813   9.135  0.7450  0.5805 -0.1848
39317SOL    HW224813   1.824   4.680   9.105 -0.0819 -0.3290  1.8601
39318SOL     OW24814   6.136   9.903  10.921 -0.3100  0.6829  0.1520
39318SOL    HW124815   6.159   9.988  10.959 -0.1428 -0.0496  1.7943
39318SOL    HW224816   6.218   9.853  10.922 -0.2018  0.7633 -1.6310
39319SOL     OW24817   5.236   8.223   0.580  0.1873  0.1738 -0.6479
39319SOL    HW124818   5.173   8.240   0.510  1.0815  0.2280 -1.4580
39319SOL    HW224819   5.248   8.128   0.579 -1.0545 -0.0443  0.5800
39320SOL     OW24820   5.297   3.711  12.102  0.5059 -0.2565 -0.0444
39320SOL    HW124821   5.381   3.722  12.058  0.1798  1.0711 -0.3676
39320SOL    HW224822   5.302   3.767  12.179  0.1029 -0.5762  0.2217
39321SOL     OW24823   2.945   4.340  11.928  0.2438 -0.1432  0.2869
39321SOL    HW124824   2.884   4.312  11.859 -0.5939  0.8583  0.6020
39321SOL    HW224825   2.988   4.259  11.956  0.3794 -0.6137 -1.1934
39322SOL     OW24826   8.083   3.102  10.930 -0.1179  0.3582  0.0725
39322SOL    HW124827   7.999   3.057  10.939 -1.2415  2.2636 -0.2797
39322SOL    HW224828   8.086   3.162  11.004  2.1605 -1.4066  1.5464
39323SOL     OW24829   5.144  11.608   0.420  0.2057 -0.0677 -0.2375
39323SOL    HW124830   5.157  11.701   0.439  2.8448 -0.5283  0.6584
39323SOL    HW224831   5.227  11.567   0.446 -0.8894 -2.6782 -0.6182
39324SOL     OW24832   4.100  10.644  10.397  0.1750  0.1658 -0.4756
39324SOL    HW124833   4.072  10.590  10.471  1.5320  0.3831  0.2158
39324SOL    HW224834   4.192  10.622  10.385 -0.0136  0.1528 -2.1052
39325SOL     OW24835   2.478   6.109   5.653  0.2534  1.2140  0.3095
39325SOL    HW124836   2.457   6.196   5.618  0.0195  1.0356 -0.0044
39325SOL    HW224837   2.442   6.109   5.742 -0.8412  1.0232 -0.1059
39326SOL     OW24838   3.724   3.698   6.323  0.1736  0.0045  0.2187
39326SOL    HW124839   3.775   3.694   6.242 -0.1061  1.2772 -0.0477
39326SOL    HW224840   3.788   3.716   6.391  0.2236  0.5872  0.0279
39327SOL     OW24841  10.846   9.810   0.228  0.5128 -0.0775 -0.0220
39327SOL    HW124842  10.796   9.733   0.258  1.3302 -1.1587 -1.3062
39327SOL    HW224843  10.782   9.881   0.229 -0.1900 -0.6807  1.5217
39328SOL     OW24844  11.915   0.229   0.552 -0.2857  0.0244 -1.1168
39328SOL    HW124845  11.857   0.153   0.547 -1.8675  0.9789  1.0535
39328SOL    HW224846  12.001   0.192   0.570 -0.9309 -1.2965 -0.5813
39329SOL     OW24847   7.874  12.430   6.090 -0.6115 -1.1138  0.4089
39329SOL    HW124848   7.901  12.506   6.141 -2.4515 -0.6584  0.7815
39329SOL    HW224849   7.835  12.371   6.154  1.5500 -2.8235  0.2699
39330SOL     OW24850   3.151   2.195   2.610  0.5415 -0.5397  0.4441
39330SOL    HW124851   3.193   2.190   2.695  0.7094  0.2729  0.4186
39330SOL    HW224852   3.178   2.115   2.565  1.3456 -0.4521  0.7529
39331SOL     OW24853   5.641   9.899   9.485  0.4960  0.3989 -0.1020
39331SOL    HW124854   5.706   9.914   9.416  0.6064  0.3899  0.0003
39331SOL    HW224855   5.566   9.952   9.459  0.9517  1.2831  0.3549
39332SOL     OW24856   7.471   8.062   8.469  0.0232 -0.1361 -0.6970
39332SOL    HW124857   7.406   8.050   8.400  1.1478 -0.8969 -1.6715
39332SOL    HW224858   7.429   8.118   8.533 -1.2562  0.1301 -1.7429
39333SOL     OW24859   5.730  10.828   5.614 -0.4068 -0.4403  0.9010
39333SOL    HW124860   5.695  10.774   5.543 -1.2670 -0.5761  1.4151
39333SOL    HW224861   5.700  10.916   5.594  1.5310  0.0043 -0.2825
39334SOL     OW24862   4.232  12.323   1.332 -0.4332 -0.3760  0.2144
39334SOL    HW124863   4.181  12.310   1.252  1.1340 -0.0610 -0.8882
39334SOL    HW224864   4.322  12.307   1.305  0.1790  0.1888  1.8241
39335SOL     OW24865   7.552  12.445   4.782 -0.2186 -0.3198 -0.5358
39335SOL    HW124866   7.555  12.465   4.689 -2.1031 -0.3650 -0.6445
39335SOL    HW224867   7.624  12.496   4.820  0.0055  0.3997 -1.8754
39336SOL     OW24868   8.960   2.485   1.298  0.0334  0.0447  0.1895
39336SOL    HW124869   9.000   2.459   1.215  1.0615  2.7273 -0.2621
39336SOL    HW224870   9.003   2.431   1.364  2.1542  0.6486 -0.6263
39337SOL     OW24871   3.145   7.653   3.345 -0.0620 -0.5004 -0.4314
39337SOL    HW124872   3.086   7.699   3.405  1.2613  1.2955 -0.4455
39337SOL    HW224873   3.138   7.561   3.371 -1.4093 -0.0844  0.8138
39338SOL     OW24874   6.074   8.820   8.763 -0.2674  0.1767  0.0671
39338SOL    HW124875   6.142   8.807   8.829  1.1592 -0.7743 -1.4936
39338SOL    HW224876   6.011   8.879   8.804  0.5827 -0.3128  2.2220
39339SOL     OW24877   7.184   7.762   3.450 -0.6384  0.2036  0.6477
39339SOL    HW124878   7.268   7.751   3.405 -1.9384  0.3337 -1.9637
39339SOL    HW224879   7.208   7.775   3.542  2.1543 -0.3326  0.0841
39340SOL     OW24880   1.841   1.004  11.135  0.0708 -0.1977  0.1750
39340SOL    HW124881   1.752   1.006  11.170 -0.4666 -1.4076 -1.0197
39340SOL    HW224882   1.878   0.922  11.170  0.3023 -0.2791 -0.2603
39341SOL     OW24883   5.632   5.354   0.772  0.1413  0.0954 -0.5478
39341SOL    HW124884   5.632   5.415   0.845  2.9967 -0.1403 -0.2148
39341SOL    HW224885   5.672   5.403   0.700  0.4254 -0.6899 -0.9328
39342SOL     OW24886   8.863   9.511   3.702  0.0896 -0.4940 -0.0305
39342SOL    HW124887   8.814   9.485   3.624 -1.1266  0.9363  0.2058
39342SOL    HW224888   8.910   9.590   3.676 -0.1263 -0.1519  0.5912
39343SOL     OW24889   4.161   0.763  10.616 -0.3741  0.1697 -0.2950
39343SOL    HW124890   4.174   0.743  10.523  0.6462  2.7587 -0.7851
39343SOL    HW224891   4.076   0.807  10.619  0.0743  1.0520 -0.2039
39344SOL     OW24892   2.744   2.380  11.914  0.5581 -0.3225  0.6056
39344SOL    HW124893   2.751   2.474  11.932 -0.0548  0.3647 -2.3343
39344SOL    HW224894   2.834   2.348  11.920  1.2476  1.0966 -1.2225
39345SOL     OW24895   6.034   8.511   7.256 -0.2643 -0.3607  0.1691
39345SOL    HW124896   6.063   8.499   7.346 -1.8448 -0.2808  0.7189
39345SOL    HW224897   6.006   8.423   7.228 -1.8412  0.0029  0.5335
39346SOL     OW24898   4.157   8.742   7.202  0.2797 -0.1186 -0.2101
39346SOL    HW124899   4.196   8.828   7.188 -0.8644  0.4164 -0.2848
39346SOL    HW224900   4.095   8.732   7.129 -0.9589 -0.1734  0.8067
39347SOL     OW24901   9.995   6.290   1.286  0.2230  0.0320 -0.5433
39347SOL    HW124902  10.037   6.373   1.310 -1.0585  0.7940 -0.8212
39347SOL    HW224903   9.903   6.301   1.314  0.1628 -1.5300 -0.0527
39348SOL     OW24904   0.120   4.808   1.841  0.4023  1.3215  0.4570
39348SOL    HW124905   0.164   4.736   1.797  1.5296  1.8198  0.7382
39348SOL    HW224906   0.039   4.822   1.791  0.7564  0.6630 -0.3122
39349SOL     OW24907   5.447   2.928   8.514  0.2284 -0.3636 -0.2323
39349SOL    HW124908   5.465   3.021   8.502 -0.3224 -0.1525  0.5302
39349SOL    HW224909   5.521   2.883   8.473  0.6954  0.4124 -0.2380
39350SOL     OW24910   8.212  11.443   1.985 -0.3791 -0.3384 -0.0718
39350SOL    HW124911   8.245  11.374   1.927 -3.1801 -1.7289 -0.1771
39350SOL    HW224912   8.214  11.403   2.072  1.5600  0.8932  0.5154
39351SOL     OW24913   1.868   8.420   1.025 -0.3384  0.0166  0.3178
39351SOL    HW124914   1.949   8.467   1.041 -0.3192 -0.3593  1.4214
39351SOL    HW224915   1.811   8.443   1.099 -1.0235 -0.1691 -0.1407
39352SOL     OW24916   7.211   8.452   3.034 -0.3071 -0.4951 -0.2428
39352SOL    HW124917   7.302   8.438   3.062 -0.4214  0.2748  0.6058
39352SOL    HW224918   7.204   8.408   2.950  1.1632  0.3168 -0.8406
39353SOL     OW24919   1.659   3.181   8.201  0.5180  0.5531 -0.0113
39353SOL    HW124920   1.682   3.137   8.119 -2.2337  0.7395 -0.9852
39353SOL    HW224921   1.667   3.112   8.268  0.6683 -0.2108 -0.7956
39354SOL     OW24922   3.115   6.762   1.271 -0.0437 -0.2425  0.0403
39354SOL    HW124923   3.114   6.829   1.204  2.6718  0.6900  0.7919
39354SOL    HW224924   3.073   6.802   1.347  0.6036  0.2553  0.1470
39355SOL     OW24925   1.206   5.622   8.085  0.3825 -0.4293  0.0188
39355SOL    HW124926   1.145   5.575   8.142 -0.1469 -0.7418 -0.7806
39355SOL    HW224927   1.156   5.697   8.054  0.7424 -0.1385  0.1427
39356SOL     OW24928   9.690   3.359  10.249  0.0232 -0.2290  0.5543
39356SOL    HW124929   9.647   3.411  10.180 -2.5107 -1.6925  0.9046
39356SOL    HW224930   9.783   3.380  10.241 -0.4875  1.5121 -1.6962
39357SOL     OW24931  11.753   3.092   2.453 -0.1864  0.1329 -0.4204
39357SOL    HW124932  11.791   3.004   2.449 -1.8375 -0.9223  2.8532
39357SOL    HW224933  11.808   3.139   2.515 -1.0044  0.3916  0.1290
39358SOL     OW24934   9.528  10.003   2.339 -0.3766  0.4627 -0.2554
39358SOL    HW124935   9.592   9.932   2.337 -1.1399 -0.5014  2.8934
39358SOL    HW224936   9.443   9.959   2.338 -0.9270  1.5109 -0.9809
39359SOL     OW24937  11.885  11.601   4.321  0.1794  0.2466  0.5296
39359SOL    HW124938  11.897  11.588   4.415 -2.0452 -2.4612  0.5322
39359SOL    HW224939  11.848  11.689   4.314 -1.4454 -0.2257  2.4050
39360SOL     OW24940   9.371   0.622   7.347 -1.1097 -0.8553 -0.4490
39360SOL    HW124941   9.435   0.689   7.324 -0.8241 -1.1382 -0.4885
39360SOL    HW224942   9.366   0.625   7.442 -1.2317 -0.6548 -0.4618
39361SOL     OW24943   8.669   6.029   9.403  0.1442 -0.1394 -0.1256
39361SOL    HW124944   8.754   6.070   9.389 -0.5458  1.4623  0.1790
39361SOL    HW224945   8.609   6.102   9.422 -1.0242 -1.3212  1.0315
39362SOL     OW24946   0.676   8.697   4.565  0.0694  0.1059  0.6619
39362SOL    HW124947   0.747   8.637   4.589  0.8964  0.7226 -0.1832
39362SOL    HW224948   0.623   8.705   4.645 -0.1614 -1.8635  0.7500
39363SOL     OW24949   4.636   8.492   5.102 -0.7451 -0.4524 -0.3332
39363SOL    HW124950   4.638   8.414   5.157  0.2973 -0.7801 -0.8154
39363SOL    HW224951   4.583   8.466   5.026 -1.6420 -0.2019  0.1867
39364SOL     OW24952   0.062   9.994  11.099 -0.1641  0.2352  0.0697
39364SOL    HW124953   0.018   9.909  11.096 -0.6353  0.5115 -1.7524
39364SOL    HW224954   0.140   9.983  11.045 -0.0593  0.8819  0.0809
39365SOL     OW24955   2.031   3.104  10.532  0.5369  0.0444  0.3983
39365SOL    HW124956   1.954   3.091  10.478  0.5365 -0.6718  0.5597
39365SOL    HW224957   2.101   3.056  10.487  0.4980 -0.6980  1.0944
39366SOL     OW24958   4.777   7.550   1.063  0.4267  0.1001  0.5450
39366SOL    HW124959   4.848   7.486   1.055  0.2931 -0.1056  0.9960
39366SOL    HW224960   4.809   7.614   1.127  0.8491  0.8826 -0.4179
39367SOL     OW24961  10.687   8.077   1.661  0.1640  0.0892  0.5726
39367SOL    HW124962  10.598   8.049   1.640  0.2591  0.0338  0.2387
39367SOL    HW224963  10.699   8.052   1.753  0.6463 -2.0530 -0.0137
39368SOL     OW24964   5.431   9.636   1.541 -0.0226 -0.0600 -0.2737
39368SOL    HW124965   5.513   9.671   1.576 -0.3841  0.6745 -0.1493
39368SOL    HW224966   5.438   9.541   1.553  0.6638  0.0263  0.0423
39369SOL     OW24967   9.269   7.382   9.130  0.0601  0.2373  0.5341
39369SOL    HW124968   9.354   7.427   9.132  1.0394 -1.4450  3.4070
39369SOL    HW224969   9.219   7.427   9.061  2.7871  2.1474 -0.3615
39370SOL     OW24970   9.489   5.594   1.083 -0.1009 -0.2840  0.1537
39370SOL    HW124971   9.572   5.560   1.049  0.6968  0.0317  1.6914
39370SOL    HW224972   9.454   5.646   1.012  0.9869 -0.4875 -0.5639
39371SOL     OW24973   5.456   6.437  11.122 -0.1241  0.5614 -0.0184
39371SOL    HW124974   5.405   6.479  11.053  0.6996 -1.7966 -2.2534
39371SOL    HW224975   5.390   6.396  11.178 -0.8014  1.4089 -0.1824
39372SOL     OW24976  10.894  10.187   6.676 -0.2351 -0.4183  0.1252
39372SOL    HW124977  10.988  10.181   6.657 -0.1731 -1.5010  0.6953
39372SOL    HW224978  10.882  10.276   6.709  0.8188 -0.6583  1.2237
39373SOL     OW24979   0.745   8.668   1.454  0.3052 -0.1179  0.3895
39373SOL    HW124980   0.678   8.724   1.415  0.6338 -0.3601 -0.5315
39373SOL    HW224981   0.746   8.693   1.546 -1.8422 -0.8622  0.6748
39374SOL     OW24982   0.609   4.407   8.424  0.1928  0.4749  0.1136
39374SOL    HW124983   0.526   4.402   8.377 -1.0813  1.8010  2.0365
39374SOL    HW224984   0.587   4.450   8.507  2.5358 -0.5249  1.3608
39375SOL     OW24985   3.150   4.931   5.187  0.5552 -0.1911 -0.4032
39375SOL    HW124986   3.091   5.002   5.211  0.8223  0.3388 -1.2691
39375SOL    HW224987   3.172   4.948   5.095 -0.5805 -2.2426 -1.1198
39376SOL     OW24988   2.900   2.600   8.880  0.4091  0.5033 -0.0760
39376SOL    HW124989   2.809   2.606   8.852  0.3903 -1.2846 -0.5452
39376SOL    HW224990   2.944   2.557   8.807  0.9772 -1.4831  1.3416
39377SOL     OW24991  12.098  11.274   4.620 -0.0184 -0.2726  0.2044
39377SOL    HW124992  12.009  11.305   4.640 -0.5069 -1.7947  0.5610
39377SOL    HW224993  12.146  11.353   4.596 -1.5511  0.5579 -0.3004
39378SOL     OW24994   6.133   6.318   6.743  0.2254 -0.4098  0.3219
39378SOL    HW124995   6.080   6.246   6.777 -1.4309  0.7777  0.3778
39378SOL    HW224996   6.143   6.300   6.650  2.2180 -2.1198  0.8039
39379SOL     OW24997  12.442   3.121  12.038 -0.1224 -0.1526  0.0546
39379SOL    HW124998  12.397   3.039  12.060  0.6560 -0.5834  0.1097
39379SOL    HW224999  12.521   3.092  11.993  0.7244  0.5101  1.0710
39380SOL     OW25000   7.635   0.802   1.813 -0.4308  0.1892 -0.3722
39380SOL    HW125001   7.593   0.717   1.804 -0.8745  0.3227  0.3588
39380SOL    HW225002   7.568   0.858   1.852  0.3444  0.4723  0.5861
39381SOL     OW25003   4.130   2.538  11.599  0.0744  0.2810 -0.1173
39381SOL    HW125004   4.164   2.449  11.608 -0.5007  0.1644  1.1275
39381SOL    HW225005   4.048   2.527  11.550 -0.4567 -0.0068  0.8063
39382SOL     OW25006   8.492   6.032   3.246 -0.2571  0.2529 -0.0090
39382SOL    HW125007   8.441   6.113   3.236  0.3534  1.2012  3.4763
39382SOL    HW225008   8.501   5.999   3.156 -0.7095  3.9164 -1.5923
39383SOL     OW25009   3.393   3.683   0.928 -0.2842  0.4322  0.3410
39383SOL    HW125010   3.449   3.756   0.902  0.0895 -0.5311 -1.7248
39383SOL    HW225011   3.404   3.677   1.023  0.3470  2.4850  0.4325
39384SOL     OW25012   2.920  11.795  11.496  0.3267  0.2449 -0.3701
39384SOL    HW125013   2.898  11.837  11.413  2.0938  0.4800 -0.7778
39384SOL    HW225014   2.923  11.701  11.475  0.3519  0.2676 -0.4689
39385SOL     OW25015   3.845   8.680   4.814  0.0104  0.0281  0.2256
39385SOL    HW125016   3.801   8.595   4.808 -2.8729  1.3019  1.4071
39385SOL    HW225017   3.778   8.743   4.786  1.7365  2.0034  0.3547
39386SOL     OW25018  10.883   3.602   0.828  0.0797  0.1520 -0.2504
39386SOL    HW125019  10.867   3.693   0.852  1.6513  0.5628 -0.6820
39386SOL    HW225020  10.910   3.605   0.736 -0.9171 -0.8784 -0.6127
39387SOL     OW25021   6.521  11.512   5.142 -0.0269  0.4676 -0.5980
39387SOL    HW125022   6.520  11.596   5.096  1.5749  1.6676  1.4038
39387SOL    HW225023   6.459  11.524   5.215  1.1647  0.4330  0.4576
39388SOL     OW25024   1.931   4.098   1.402 -0.2499 -0.3152 -0.0074
39388SOL    HW125025   1.943   4.192   1.416 -0.6763 -0.2544 -0.0643
39388SOL    HW225026   2.017   4.067   1.374  0.2360 -0.1659  1.2485
39389SOL     OW25027   7.159   2.819   4.616  0.1190  0.8605  0.4113
39389SOL    HW125028   7.156   2.731   4.653  0.5631  1.1220  1.0909
39389SOL    HW225029   7.083   2.823   4.558 -0.6081  0.4404  1.3128
39390SOL     OW25030   6.812   9.566   9.525 -0.7108  0.0584  0.0737
39390SOL    HW125031   6.796   9.590   9.434 -0.1321 -1.4460 -0.4630
39390SOL    HW225032   6.788   9.474   9.530 -0.5646  0.0764  1.4029
39391SOL     OW25033   7.236   5.807   4.108  0.3608 -0.6756 -0.2212
39391SOL    HW125034   7.327   5.781   4.093  0.0394 -3.1316  1.5719
39391SOL    HW225035   7.185   5.741   4.062 -0.4854 -1.7058  2.0634
39392SOL     OW25036   9.198   8.048   2.029 -0.0087  0.2555 -0.5105
39392SOL    HW125037   9.188   8.091   2.114  1.4442  2.1337 -1.2188
39392SOL    HW225038   9.280   7.999   2.037  0.2486  0.6243 -0.9078
39393SOL     OW25039   3.699  11.336  10.522 -0.3521 -0.0414 -0.1774
39393SOL    HW125040   3.780  11.367  10.563 -0.1238 -2.4166  1.3923
39393SOL    HW225041   3.723  11.251  10.484 -1.7057  0.0474 -1.3032
39394SOL     OW25042  11.566   1.518   3.805  1.0027  0.1727 -0.0924
39394SOL    HW125043  11.548   1.527   3.711  1.2868 -0.8064 -0.2497
39394SOL    HW225044  11.619   1.438   3.812 -1.7901 -1.7090  1.2487
39395SOL     OW25045  11.627  10.539   2.598  0.6661  0.1060  0.6420
39395SOL    HW125046  11.558  10.492   2.552  0.5921  1.2275 -0.4438
39395SOL    HW225047  11.581  10.590   2.665  0.6799 -0.8211  1.3700
39396SOL     OW25048  12.034   0.896   6.785 -0.1607  0.2373  0.1257
39396SOL    HW125049  12.069   0.838   6.717  0.7043 -0.3651  1.0619
39396SOL    HW225050  12.102   0.962   6.798 -1.5581  2.1600 -1.6661
39397SOL     OW25051  12.249   5.517   9.593 -0.3866 -0.2415 -0.1611
39397SOL    HW125052  12.186   5.503   9.664 -1.7733  0.9529 -1.0808
39397SOL    HW225053  12.194   5.539   9.517  1.1377  0.6784 -1.0466
39398SOL     OW25054   9.015   5.337  10.551  1.0076 -0.0182  0.2980
39398SOL    HW125055   8.975   5.411  10.596  1.8602  0.3695  0.4267
39398SOL    HW225056   9.086   5.309  10.609  0.5090 -1.1436  0.4032
39399SOL     OW25057   4.451   4.680   2.781  0.2404 -0.4332  0.0494
39399SOL    HW125058   4.401   4.755   2.814 -0.1898 -0.0323 -1.4290
39399SOL    HW225059   4.401   4.649   2.705  2.2184 -0.0072 -1.5128
39400SOL     OW25060   5.844   5.842  11.345  0.2233 -0.0169  0.1585
39400SOL    HW125061   5.789   5.795  11.282  0.4025  1.5648 -1.2482
39400SOL    HW225062   5.933   5.829  11.312  0.3657  0.4060  0.3774
39401SOL     OW25063   8.765   6.138   0.629 -0.1771 -0.3050  0.0850
39401SOL    HW125064   8.679   6.157   0.589  0.2626 -1.2601 -1.4300
39401SOL    HW225065   8.760   6.045   0.651  0.5917 -0.4516 -0.3505
39402SOL     OW25066  11.762   9.856   8.370  0.9320  0.3772 -0.1595
39402SOL    HW125067  11.794   9.945   8.356  0.8855  0.2368 -1.3086
39402SOL    HW225068  11.748   9.822   8.281  0.2758 -0.5287  0.2745
39403SOL     OW25069  11.372  12.305   8.950 -0.1852  0.1036  0.0919
39403SOL    HW125070  11.307  12.361   8.992  0.2093  0.6866 -0.0689
39403SOL    HW225071  11.347  12.303   8.858  0.3153  0.7458 -0.0637
39404SOL     OW25072   5.117   9.149  12.186  0.0457 -0.4462 -0.2463
39404SOL    HW125073   5.057   9.153  12.260 -0.7282 -0.1594 -0.8766
39404SOL    HW225074   5.082   9.079  12.130 -0.3511  0.4577 -1.1628
39405SOL     OW25075   4.489   6.475   7.845  0.0583  0.1350  0.0439
39405SOL    HW125076   4.498   6.549   7.904 -1.8906  0.5402 -0.0773
39405SOL    HW225077   4.560   6.415   7.869  1.1282  1.6226  0.7384
39406SOL     OW25078   0.677   1.214   9.052  0.3240 -0.4745  1.0412
39406SOL    HW125079   0.690   1.239   9.144  1.2447 -1.2544  1.1451
39406SOL    HW225080   0.587   1.183   9.048 -0.2389  1.0327  1.3221
39407SOL     OW25081  12.448   9.959  10.571  0.3676  0.0417  0.1305
39407SOL    HW125082  12.537   9.957  10.535 -0.5941 -1.3998 -2.4722
39407SOL    HW225083  12.425   9.867  10.584 -1.2768  0.2731 -0.8407
39408SOL     OW25084   5.470  11.413   8.915 -0.0912  0.3856  0.6054
39408SOL    HW125085   5.393  11.411   8.858  1.4357  0.5404 -1.5506
39408SOL    HW225086   5.487  11.506   8.929 -0.4585  0.3490  1.3448
39409SOL     OW25087   0.090  11.380  10.162 -0.1862  0.6100 -0.5618
39409SOL    HW125088   0.168  11.395  10.216 -0.6526  2.2956 -0.2910
39409SOL    HW225089   0.119  11.321  10.093  1.4120  1.4268 -0.6320
39410SOL     OW25090  10.894   9.553   2.123  0.5533  0.5370 -0.2672
39410SOL    HW125091  10.873   9.460   2.122  0.6351  0.5205 -0.4000
39410SOL    HW225092  10.983   9.557   2.158  0.8105  0.5128 -0.8974
39411SOL     OW25093  10.721   8.527  10.766 -0.0626  0.1042  0.3799
39411SOL    HW125094  10.747   8.613  10.733  1.2598 -0.6514 -0.6611
39411SOL    HW225095  10.627   8.524  10.753 -0.0968  1.3008  0.1971
39412SOL     OW25096   2.914   7.017   3.373  0.7869 -0.9942  0.2329
39412SOL    HW125097   2.991   7.006   3.428  1.9162 -0.0291 -1.1069
39412SOL    HW225098   2.887   7.107   3.387  1.3669 -0.5906 -1.1083
39413SOL     OW25099   2.197   7.841  10.049  0.5379 -0.3468  0.3718
39413SOL    HW125100   2.275   7.798  10.015 -0.4255 -2.5022  0.7204
39413SOL    HW225101   2.145   7.770  10.087 -0.8365  1.2474  1.6387
39414SOL     OW25102   6.788   8.291   3.283  0.0386 -0.4915  1.3962
39414SOL    HW125103   6.796   8.196   3.280  0.3497 -0.4528  0.9648
39414SOL    HW225104   6.878   8.323   3.279 -0.1264 -0.1449  0.2058
39415SOL     OW25105   2.241  10.864   9.807 -0.0864  0.3322 -0.7160
39415SOL    HW125106   2.186  10.941   9.792 -1.1525 -0.2968 -0.1394
39415SOL    HW225107   2.188  10.807   9.863 -0.1154 -1.6740 -2.6665
39416SOL     OW25108  11.800  10.145   2.095 -0.4094 -0.2285 -0.3537
39416SOL    HW125109  11.894  10.141   2.109 -0.4504 -1.6001 -0.2965
39416SOL    HW225110  11.766  10.066   2.138 -1.5163 -0.0526 -0.8646
39417SOL     OW25111  10.562   1.720   9.653 -0.0885 -0.4937 -0.2345
39417SOL    HW125112  10.568   1.646   9.592  0.1591 -2.6534  2.1966
39417SOL    HW225113  10.652   1.749   9.664 -0.1042 -0.2653 -0.6738
39418SOL     OW25114   1.047   3.307   2.081 -0.1103  0.0416 -0.3943
39418SOL    HW125115   1.065   3.392   2.123  0.1722  0.5033 -1.4339
39418SOL    HW225116   0.957   3.287   2.107  0.0246  0.3549  0.3570
39419SOL     OW25117   6.673   3.768   5.343 -0.5494 -0.2918  0.0228
39419SOL    HW125118   6.637   3.766   5.254  0.1213  0.7099 -0.2881
39419SOL    HW225119   6.596   3.767   5.400 -1.1330  2.0107 -0.6222
39420SOL     OW25120   2.888  11.838   2.446 -0.6172 -0.4357 -0.3899
39420SOL    HW125121   2.929  11.921   2.422 -0.2909 -0.1489  1.0957
39420SOL    HW225122   2.824  11.822   2.377  1.5618 -0.6275 -2.4869
39421SOL     OW25123  12.208   2.660   5.012  0.3492 -0.0104 -0.2113
39421SOL    HW125124  12.273   2.712   4.964  0.0021 -0.2878 -0.9921
39421SOL    HW225125  12.129   2.664   4.958  0.8972 -3.1033 -1.4486
39422SOL     OW25126   0.311   0.336   2.844  0.1307 -0.1621 -0.3852
39422SOL    HW125127   0.284   0.245   2.858 -2.0606  0.6228  1.0624
39422SOL    HW225128   0.402   0.339   2.874 -0.2663 -1.5519  1.0750
39423SOL     OW25129   4.894   3.583   1.256 -0.4622 -0.2512  0.4989
39423SOL    HW125130   4.924   3.495   1.280 -1.2505 -0.6130  0.2169
39423SOL    HW225131   4.907   3.588   1.161 -1.0169 -0.3140  0.4140
39424SOL     OW25132   9.995  10.668   0.271 -0.5112  0.0885  0.2677
39424SOL    HW125133  10.086  10.697   0.278  0.3451 -1.8448 -1.6820
39424SOL    HW225134   9.944  10.747   0.289  1.5324  1.4231  0.6365
39425SOL     OW25135   7.865  10.137   9.670  0.7075  0.0197  0.6165
39425SOL    HW125136   7.815  10.056   9.666 -0.1670  0.5852 -0.3200
39425SOL    HW225137   7.909  10.133   9.755  0.3553 -1.2331  0.7679
39426SOL     OW25138   9.323  11.732   6.455 -0.1679  0.5294  0.3339
39426SOL    HW125139   9.350  11.755   6.544 -0.3249  0.5968  0.3649
39426SOL    HW225140   9.233  11.764   6.449 -0.1024  0.6679  0.0977
39427SOL     OW25141   4.116   1.373   9.731  0.5339 -0.6731  0.4098
39427SOL    HW125142   4.095   1.463   9.756  0.8936  0.1924 -2.1137
39427SOL    HW225143   4.175   1.382   9.656  1.3558 -3.0276  0.6885
39428SOL     OW25144   8.217   4.382   8.879  0.3545  0.1291  0.0017
39428SOL    HW125145   8.161   4.355   8.951  0.5412 -1.4672 -0.4050
39428SOL    HW225146   8.161   4.436   8.823 -0.5304 -0.6651  0.0848
39429SOL     OW25147  11.177  10.286   6.923 -0.2450 -0.4966 -0.1409
39429SOL    HW125148  11.195  10.246   6.838 -0.6673 -1.2680  0.1155
39429SOL    HW225149  11.083  10.272   6.937 -0.5160  1.0656 -0.2572
39430SOL     OW25150   7.515   9.792   3.861 -0.2486  0.1031  0.4867
39430SOL    HW125151   7.561   9.868   3.898 -0.1132  0.9221 -1.2636
39430SOL    HW225152   7.571   9.718   3.882 -0.6110  0.3916  2.6481
39431SOL     OW25153   0.245   5.550   0.010 -0.1431  0.2987  0.4917
39431SOL    HW125154   0.317   5.491  -0.012 -0.5795 -0.0613 -0.0068
39431SOL    HW225155   0.177   5.493   0.045 -0.9006  0.3585 -0.7938
39432SOL     OW25156   7.008   6.344   9.989  0.5842  0.5077 -0.2113
39432SOL    HW125157   6.989   6.252  10.010  0.7082  0.4292 -0.4487
39432SOL    HW225158   7.078   6.340   9.924  1.1715  0.7928  0.3974
39433SOL     OW25159   5.508  12.055  11.098 -0.2435 -0.2668  0.7276
39433SOL    HW125160   5.504  11.961  11.112 -1.1767 -0.3575 -0.0664
39433SOL    HW225161   5.491  12.067  11.005  1.3607  0.6053  0.4984
39434SOL     OW25162  10.895   7.548   0.404  0.6145 -0.4194 -0.1440
39434SOL    HW125163  10.845   7.588   0.475  1.2771 -1.5243  0.9800
39434SOL    HW225164  10.986   7.550   0.434  0.9473 -0.5856 -1.1147
39435SOL     OW25165   1.650   8.325   1.556 -0.5102 -0.4096  0.0604
39435SOL    HW125166   1.674   8.319   1.648 -3.0701 -0.1783  0.8340
39435SOL    HW225167   1.676   8.240   1.519  1.4733 -0.1255  0.6986
39436SOL     OW25168   5.330   0.223   1.998  0.6027  0.4653  0.7669
39436SOL    HW125169   5.369   0.303   1.961  0.4389  0.6573  1.0031
39436SOL    HW225170   5.386   0.152   1.967  0.3911  0.6125  0.0409
39437SOL     OW25171   7.031   3.696  10.486 -0.0849  0.2328 -0.0697
39437SOL    HW125172   6.990   3.783  10.493 -2.8155 -1.0882  3.1976
39437SOL    HW225173   7.003   3.663  10.401 -1.3803  1.4567 -0.1553
39438SOL     OW25174   2.937   9.364   1.366 -0.3213 -0.2468  0.2675
39438SOL    HW125175   2.994   9.405   1.301 -0.3432 -1.1400 -0.3282
39438SOL    HW225176   2.866   9.326   1.315  0.4076 -2.2210  0.6408
39439SOL     OW25177   7.573   9.418   1.842 -0.2955  0.4106 -0.0455
39439SOL    HW125178   7.547   9.497   1.889 -0.2613  0.8974 -0.8251
39439SOL    HW225179   7.500   9.357   1.856 -0.6561  0.8365 -0.0412
39440SOL     OW25180   6.362  10.143   0.144 -0.6565 -0.7420 -0.2277
39440SOL    HW125181   6.448  10.166   0.107 -0.0396 -1.5142  0.6904
39440SOL    HW225182   6.381  10.080   0.213 -1.9159 -0.4076  0.4613
39441SOL     OW25183   7.602   3.341  11.183 -0.2554 -0.6283 -0.0809
39441SOL    HW125184   7.661   3.274  11.218  0.4760 -0.2251 -0.5139
39441SOL    HW225185   7.602   3.325  11.088 -1.8011 -1.3791  0.0102
39442SOL     OW25186   6.860   7.988   0.533  0.3405 -0.7335  0.1525
39442SOL    HW125187   6.927   8.036   0.485  0.3316  0.1424  0.9787
39442SOL    HW225188   6.779   8.007   0.486  0.5738 -1.2997 -0.4909
39443SOL     OW25189  10.040   6.069  11.545  0.4745  0.0799  0.2418
39443SOL    HW125190  10.008   6.007  11.611  1.0805  0.7159  1.1562
39443SOL    HW225191  10.028   6.155  11.586  0.1488  0.5356 -0.7952
39444SOL     OW25192   9.654   7.923   9.413  0.0038 -0.0497  0.1735
39444SOL    HW125193   9.707   7.910   9.491 -0.6702  1.3644  0.9153
39444SOL    HW225194   9.710   7.973   9.353  0.3123 -0.6114 -0.0072
39445SOL     OW25195   9.092   3.249   3.697  0.6044  0.1542  0.6714
39445SOL    HW125196   9.054   3.164   3.721 -1.5554  0.0010 -2.6950
39445SOL    HW225197   9.020   3.311   3.708  1.2267  0.9999  0.1010
39446SOL     OW25198   4.347   2.720   1.675 -0.4069 -0.4889  0.2933
39446SOL    HW125199   4.375   2.798   1.721 -0.6714  0.0905 -0.5124
39446SOL    HW225200   4.252   2.716   1.691 -0.4686 -0.3888 -0.0482
39447SOL     OW25201   9.581   3.033  11.205 -0.2388  0.3788 -0.2125
39447SOL    HW125202   9.596   3.111  11.153 -0.1967  1.0889  0.8383
39447SOL    HW225203   9.507   2.989  11.162  0.3991  0.4420 -1.4028
39448SOL     OW25204   0.881   6.159   8.622  0.5957  0.7017  0.6854
39448SOL    HW125205   0.826   6.213   8.565  2.1295  1.9568  0.3278
39448SOL    HW225206   0.887   6.074   8.577 -0.5547  0.7339  0.4540
39449SOL     OW25207   4.573   2.112   4.632 -0.1126 -0.0721  0.3189
39449SOL    HW125208   4.588   2.059   4.554 -1.3971  0.4396 -0.3244
39449SOL    HW225209   4.619   2.067   4.702  0.2242 -1.1008 -0.5424
39450SOL     OW25210   1.868  11.074   7.008  0.1714 -0.4586  0.5962
39450SOL    HW125211   1.788  11.047   7.053 -1.1994  0.8010 -0.9531
39450SOL    HW225212   1.849  11.163   6.977  1.6091 -0.6850 -1.1167
39451SOL     OW25213   5.830   9.613   3.782 -0.1584  0.1796 -0.3416
39451SOL    HW125214   5.832   9.599   3.877  2.1901  0.7957 -0.2354
39451SOL    HW225215   5.802   9.704   3.772 -1.6806 -0.2612 -0.3436
39452SOL     OW25216   6.385  10.165   6.639  0.4995 -0.1855 -0.2860
39452SOL    HW125217   6.291  10.145   6.646  0.8155 -1.1376  2.8885
39452SOL    HW225218   6.388  10.255   6.604 -1.7128  0.6329  1.3993
39453SOL     OW25219  10.586   0.653   4.835  0.2425 -0.5242  0.4531
39453SOL    HW125220  10.638   0.579   4.803  0.5602 -0.3101  0.4690
39453SOL    HW225221  10.495   0.625   4.824  0.2714 -2.2744  3.4509
39454SOL     OW25222  11.803   8.844   0.517 -0.4493  0.4084 -0.0870
39454SOL    HW125223  11.834   8.910   0.455  1.8794 -1.2848 -0.9059
39454SOL    HW225224  11.873   8.778   0.518 -1.6224 -0.9438  2.3716
39455SOL     OW25225   3.256  12.280  11.157 -0.1130  0.5759 -0.2749
39455SOL    HW125226   3.318  12.322  11.218  0.7338  0.4395 -1.0235
39455SOL    HW225227   3.268  12.186  11.172  1.3430  0.4723 -1.8057
39456SOL     OW25228   1.550   0.910   0.726 -0.2499 -0.4105 -0.0277
39456SOL    HW125229   1.499   0.949   0.655 -1.2920  0.3142  1.0899
39456SOL    HW225230   1.496   0.838   0.759  0.6619 -1.3929 -0.5702
39457SOL     OW25231  10.834   3.915   6.460 -0.2270  0.5238 -0.4655
39457SOL    HW125232  10.798   3.974   6.394 -1.6587 -0.4403 -0.6099
39457SOL    HW225233  10.792   3.941   6.542 -0.1281  0.3302 -0.3506
39458SOL     OW25234   8.870  11.800   6.838  0.0615  0.1782  0.0750
39458SOL    HW125235   8.833  11.847   6.763 -0.1202  2.2690  1.3919
39458SOL    HW225236   8.900  11.869   6.897  0.2665 -1.3879  1.9024
39459SOL     OW25237   0.352   5.444   6.850 -0.4585  0.0437  0.3282
39459SOL    HW125238   0.391   5.361   6.824 -2.1054 -1.2383  1.7291
39459SOL    HW225239   0.406   5.475   6.922  0.3260  0.3611 -0.3796
39460SOL     OW25240  11.557  11.275   6.421 -0.7413 -0.0393 -0.9914
39460SOL    HW125241  11.536  11.366   6.438 -0.5175 -0.2394  0.5444
39460SOL    HW225242  11.567  11.269   6.326 -0.2248  1.6500 -1.0732
39461SOL     OW25243   3.978   9.976  11.590  0.0825 -0.2189 -0.5829
39461SOL    HW125244   3.941   9.898  11.632 -1.1554  0.1083 -1.0213
39461SOL    HW225245   3.960   9.964  11.497 -0.2888  0.6728 -0.6368
39462SOL     OW25246   5.566   9.966   2.000 -0.4254 -0.2618 -0.4431
39462SOL    HW125247   5.588   9.916   2.079  0.1229  4.8318  3.0754
39462SOL    HW225248   5.650   9.992   1.963 -0.6593  0.3321 -0.5679
39463SOL     OW25249   9.451   9.499   3.104  0.1390 -0.1940  0.0606
39463SOL    HW125250   9.478   9.575   3.155  2.4219  0.7652 -2.3520
39463SOL    HW225251   9.487   9.424   3.152  2.3248  0.6798 -0.0886
39464SOL     OW25252   2.753  10.568   5.689 -0.3855 -0.1451  0.5962
39464SOL    HW125253   2.704  10.628   5.633 -4.1109 -1.3780  2.1605
39464SOL    HW225254   2.755  10.612   5.775  2.3684  0.3228  0.3618
39465SOL     OW25255   8.436   4.957   4.352 -0.6981  0.2640 -0.5139
39465SOL    HW125256   8.491   4.897   4.301 -1.2697  0.5148 -1.4475
39465SOL    HW225257   8.355   4.964   4.301 -0.5767  1.9732 -0.5398
39466SOL     OW25258   9.551  10.044   1.342 -0.2462  0.2400 -0.0554
39466SOL    HW125259   9.625  10.078   1.392 -0.8853  1.4830  0.0605
39466SOL    HW225260   9.533  10.110   1.275 -0.5705 -0.5504 -0.7705
39467SOL     OW25261   8.314   5.484   7.042 -0.4156  0.1039 -0.1126
39467SOL    HW125262   8.276   5.569   7.060  0.3901  0.2157  1.1660
39467SOL    HW225263   8.366   5.463   7.119 -0.5402 -1.5215 -0.4170
39468SOL     OW25264   6.305   0.031   5.999 -0.0753  0.3606  0.4024
39468SOL    HW125265   6.234   0.063   6.055 -0.4220  0.2429  0.0360
39468SOL    HW225266   6.383   0.078   6.030 -0.4762  1.1564  0.2277
39469SOL     OW25267   9.005   9.460  10.769  0.3624  0.1597  0.3481
39469SOL    HW125268   9.099   9.454  10.783  0.2395 -2.1840  0.5848
39469SOL    HW225269   8.995   9.519  10.694  1.8493  2.1700  1.6700
39470SOL     OW25270  11.255   8.298   9.985  0.4710  0.2388  0.1088
39470SOL    HW125271  11.310   8.274   9.911  0.2644  3.0159 -1.0844
39470SOL    HW225272  11.188   8.229   9.989  2.5220 -1.8761  0.0405
39471SOL     OW25273   3.381   0.150  11.941 -0.5793 -0.5066  0.6508
39471SOL    HW125274   3.410   0.236  11.971  1.1032 -1.0666  0.6897
39471SOL    HW225275   3.288   0.148  11.963 -0.9381  1.7199 -0.3468
39472SOL     OW25276   1.846   6.437   1.536 -0.5963  0.0212  0.5296
39472SOL    HW125277   1.941   6.431   1.542 -0.5105 -1.7182 -1.5058
39472SOL    HW225278   1.817   6.451   1.627  1.5509  0.4280  1.2141
39473SOL     OW25279   5.733  11.135  10.031  0.5861  0.4204 -0.3518
39473SOL    HW125280   5.650  11.102  10.067  0.3027  1.1864 -0.2892
39473SOL    HW225281   5.708  11.213   9.982  1.1295  0.0630 -1.2261
39474SOL     OW25282   4.658  12.041   9.211  0.6292  0.4294 -0.1327
39474SOL    HW125283   4.700  11.975   9.156 -0.2126 -0.8023  0.6425
39474SOL    HW225284   4.568  12.046   9.177 -0.3211 -1.3524  1.8858
39475SOL     OW25285   1.132   7.913   0.030  0.4157  0.0440 -0.3472
39475SOL    HW125286   1.106   7.919   0.122 -0.9777  0.7264 -0.7687
39475SOL    HW225287   1.141   8.004   0.001 -0.4452 -0.1412 -1.2363
39476SOL     OW25288   4.852   4.762   0.865 -0.3495 -0.0476 -0.2420
39476SOL    HW125289   4.836   4.669   0.848 -0.5846  0.2041 -1.5741
39476SOL    HW225290   4.817   4.778   0.952  1.2298 -1.5707  0.7111
39477SOL     OW25291   1.070   2.359   1.670 -0.3141 -0.3590  0.6613
39477SOL    HW125292   1.125   2.282   1.687  0.4134  0.1591  0.6806
39477SOL    HW225293   1.131   2.431   1.662 -1.0925  0.6236  2.7339
39478SOL     OW25294  10.007   4.416  11.257 -0.6965  0.0621 -0.3386
39478SOL    HW125295   9.989   4.508  11.241 -0.3602 -0.1952 -2.4695
39478SOL    HW225296  10.084   4.397  11.203 -0.6336 -1.4219  0.2247
39479SOL     OW25297   9.729   3.711   1.783  0.1035  1.2373 -0.7336
39479SOL    HW125298   9.672   3.764   1.837 -1.3016 -0.1639 -0.7710
39479SOL    HW225299   9.703   3.621   1.801 -0.4912  0.6896 -3.7377
39480SOL     OW25300   3.072   7.677   7.648  0.3348 -0.1011  0.7069
39480SOL    HW125301   3.142   7.739   7.631 -0.2858  0.0975 -1.3660
39480SOL    HW225302   3.115   7.603   7.691  2.1956 -0.7099 -1.9390
39481SOL     OW25303   1.381   8.170   5.999 -0.1706  0.0586 -0.2145
39481SOL    HW125304   1.316   8.238   6.016  1.1731  1.0453  1.2635
39481SOL    HW225305   1.414   8.189   5.911 -0.0552  1.1223  0.0478
39482SOL     OW25306   7.406   9.287   5.804  0.4443 -0.1803  0.0767
39482SOL    HW125307   7.329   9.240   5.834  0.9381 -1.2496 -0.2517
39482SOL    HW225308   7.423   9.352   5.872  0.0097 -0.7977  0.7924
39483SOL     OW25309   3.111  11.405   6.097  0.1127 -0.9225 -0.1049
39483SOL    HW125310   3.097  11.457   6.018 -1.8457 -1.3209 -0.0663
39483SOL    HW225311   3.081  11.461   6.168  2.4128 -0.3368  0.4946
39484SOL     OW25312  10.670   2.211  10.471 -0.1368 -0.0643 -0.4842
39484SOL    HW125313  10.610   2.285  10.461 -1.0976 -0.6482  0.7088
39484SOL    HW225314  10.748   2.249  10.512 -0.6579  0.2748  0.2116
39485SOL     OW25315   8.991  11.359   6.699 -0.1710 -0.2807  0.3137
39485SOL    HW125316   8.934  11.288   6.670 -1.5816  0.5725  0.9051
39485SOL    HW225317   9.063  11.315   6.744 -0.7086 -1.3646  0.1489
39486SOL     OW25318  12.068   5.015  11.096  0.0825  0.0890 -0.1931
39486SOL    HW125319  12.112   5.039  11.178 -0.1630 -0.2397  0.0403
39486SOL    HW225320  12.077   5.092  11.040 -0.1658  0.4940  0.3212
39487SOL     OW25321   6.048   2.540   9.208  0.2936  0.5671 -0.3151
39487SOL    HW125322   6.038   2.624   9.253  3.2097  0.1745  1.3930
39487SOL    HW225323   5.961   2.502   9.207 -0.7621  2.7946  0.5880
39488SOL     OW25324   1.672   9.021   4.379 -0.1345  0.1160 -0.1546
39488SOL    HW125325   1.613   9.027   4.304  1.8311 -0.4315 -1.8617
39488SOL    HW225326   1.654   9.100   4.431 -3.1144 -0.6249  0.0811
39489SOL     OW25327   1.540   4.896  10.381  0.2461 -0.1955  0.4535
39489SOL    HW125328   1.566   4.863  10.468 -2.9036 -0.2790  1.4863
39489SOL    HW225329   1.471   4.837  10.353 -0.2692  1.1059 -1.1656
39490SOL     OW25330   1.153   9.974   1.307  0.5369 -0.1505  0.1631
39490SOL    HW125331   1.188   9.891   1.339  1.0246 -0.5181 -1.2322
39490SOL    HW225332   1.070   9.951   1.265  0.5072  0.1250  0.0632
39491SOL     OW25333   1.479   5.431   7.611  0.5202  0.1043 -0.9128
39491SOL    HW125334   1.504   5.342   7.634  0.6501  0.5187  0.6418
39491SOL    HW225335   1.384   5.432   7.622  0.5337  0.1976 -0.8106
39492SOL     OW25336   4.799   3.795   3.351  0.0842  0.7024 -0.2696
39492SOL    HW125337   4.833   3.723   3.404  0.4579  1.6541  0.8117
39492SOL    HW225338   4.869   3.813   3.288  0.8720  1.4651  0.7920
39493SOL     OW25339   5.973   3.937   0.654 -0.2132  0.1146  0.2186
39493SOL    HW125340   6.045   4.000   0.645  0.3949 -0.3861  1.3642
39493SOL    HW225341   5.927   3.942   0.571  0.3841  1.3871 -0.0667
39494SOL     OW25342   2.114   8.021  10.575  0.8884  0.2299  0.3454
39494SOL    HW125343   2.161   8.103  10.555  1.2564 -0.0969 -0.1824
39494SOL    HW225344   2.023   8.039  10.550  1.1249  0.2164 -0.5863
39495SOL     OW25345   4.411   6.726   0.563 -0.3222  0.2466 -0.2885
39495SOL    HW125346   4.454   6.811   0.552  0.6046  0.1011  1.7277
39495SOL    HW225347   4.356   6.736   0.641 -0.1918 -0.9816 -0.0120
39496SOL     OW25348   6.230  10.605   2.366 -0.7717  0.5088  0.0841
39496SOL    HW125349   6.301  10.669   2.371  0.1066 -0.4011 -0.5645
39496SOL    HW225350   6.180  10.619   2.446  0.9553  0.2222  1.2669
39497SOL     OW25351   5.213   4.087  10.190  0.0949  0.1557 -0.1129
39497SOL    HW125352   5.305   4.110  10.181 -0.1090  1.2366  0.3931
39497SOL    HW225353   5.168   4.172  10.196 -0.8825 -0.3668  0.0936
39498SOL     OW25354   9.961   8.966   1.430  0.1608  0.6500  0.0528
39498SOL    HW125355   9.888   8.984   1.489  0.6076  0.9258  0.5261
39498SOL    HW225356   9.950   9.029   1.359  0.3235  1.1494  0.4670
39499SOL     OW25357   3.457   9.652   2.901  0.3506  0.2635  0.5091
39499SOL    HW125358   3.528   9.690   2.953  2.7577  0.8665 -2.8923
39499SOL    HW225359   3.499   9.585   2.847 -2.2175 -1.2489  0.2170
39500SOL     OW25360   6.922   1.532   1.676 -0.5180  0.7612  0.2355
39500SOL    HW125361   7.008   1.574   1.669 -1.0977  1.7428 -1.6069
39500SOL    HW225362   6.870   1.572   1.606 -1.5864 -1.9390 -0.6399
39501SOL     OW25363   5.973   1.491  10.996 -0.5806 -0.4563  0.1120
39501SOL    HW125364   5.893   1.453  11.031 -0.4862  0.2113  1.1066
39501SOL    HW225365   5.998   1.558  11.060  0.1486  0.1312 -0.7516
39502SOL     OW25366   1.296   8.359   5.558  0.0562 -0.0047 -0.0746
39502SOL    HW125367   1.210   8.366   5.516 -0.6710 -0.3876  1.2978
39502SOL    HW225368   1.315   8.449   5.586 -0.7147 -0.1844  1.1222
39503SOL     OW25369   3.555   4.441   1.164  0.1380  0.1577 -0.0971
39503SOL    HW125370   3.530   4.386   1.090  0.5837  1.1936 -1.0353
39503SOL    HW225371   3.641   4.407   1.191 -0.8283 -1.4055  1.1567
39504SOL     OW25372   7.618   7.066  11.171  0.0927 -0.1369 -0.3455
39504SOL    HW125373   7.635   7.061  11.265 -0.7203  0.5272 -0.1419
39504SOL    HW225374   7.607   7.160  11.154  0.0844 -0.2641 -1.0709
39505SOL     OW25375   1.498   9.446  10.533 -0.3447 -0.0862  0.4062
39505SOL    HW125376   1.554   9.524  10.535  0.4036 -0.5401 -1.2813
39505SOL    HW225377   1.550   9.380  10.488 -1.6975 -0.9722  0.0806
39506SOL     OW25378   4.416   7.990   9.767  0.1052 -0.0374 -0.5724
39506SOL    HW125379   4.508   7.962   9.765  0.0903 -0.0946 -0.4485
39506SOL    HW225380   4.368   7.918   9.727 -0.1101 -0.8550  1.0957
39507SOL     OW25381   9.652   5.461   6.305  0.5144  0.6531 -0.2265
39507SOL    HW125382   9.619   5.501   6.386 -1.0991  0.4894 -0.7804
39507SOL    HW225383   9.647   5.532   6.240 -2.0408 -0.2541 -1.1344
39508SOL     OW25384   7.331   1.688   2.459  0.3301 -0.0525 -0.1717
39508SOL    HW125385   7.271   1.761   2.477  0.2020  0.1209 -1.2056
39508SOL    HW225386   7.299   1.651   2.377  1.8316  0.2585 -0.9375
39509SOL     OW25387   8.633   5.690   3.602 -0.0602  0.2564 -0.3396
39509SOL    HW125388   8.607   5.599   3.588  0.3674  0.1944 -0.7626
39509SOL    HW225389   8.626   5.731   3.516  2.6560 -0.1508 -0.8583
39510SOL     OW25390   0.834   3.818  12.131  0.4059 -0.6995 -0.4342
39510SOL    HW125391   0.801   3.887  12.188  1.5276  0.0057 -0.6127
39510SOL    HW225392   0.897   3.770  12.185  1.2843 -0.1879 -0.9707
39511SOL     OW25393   2.281   9.630   0.661  0.1849  0.1401 -0.0158
39511SOL    HW125394   2.231   9.556   0.696 -1.6862  1.9549  1.3402
39511SOL    HW225395   2.306   9.681   0.738  0.7542  1.3641 -0.9670
39512SOL     OW25396   0.998   4.293   2.869 -0.0623  0.4858 -0.3026
39512SOL    HW125397   1.064   4.270   2.935 -1.2471  2.0874  1.5282
39512SOL    HW225398   1.035   4.369   2.824 -0.0991  0.5866 -0.1628
39513SOL     OW25399   4.503   7.724   1.523 -0.2814 -0.2803 -0.0336
39513SOL    HW125400   4.595   7.742   1.505 -1.0035  1.0876 -3.0896
39513SOL    HW225401   4.493   7.631   1.504  0.3953 -0.3645 -0.0173
39514SOL     OW25402   2.136   4.962   5.886  0.0365  0.5339  1.0356
39514SOL    HW125403   2.088   4.967   5.804 -1.9388  1.7441  2.1869
39514SOL    HW225404   2.191   5.040   5.886  1.3589 -0.3612  0.1393
39515SOL     OW25405  10.287   7.195   6.989 -0.5351  0.0548 -0.3688
39515SOL    HW125406  10.381   7.206   7.003 -0.5595  1.0401 -0.9230
39515SOL    HW225407  10.271   7.227   6.901 -1.1490 -1.6597 -0.9241
39516SOL     OW25408   9.251   7.103   6.145 -0.0074 -0.0101  0.2223
39516SOL    HW125409   9.285   7.102   6.235 -0.3506 -1.7700  0.3749
39516SOL    HW225410   9.180   7.039   6.146  1.0645 -1.3231 -1.6916
39517SOL     OW25411   4.422   7.210  10.019 -0.1661  0.6375 -0.2566
39517SOL    HW125412   4.372   7.191   9.940  0.6393  0.2728 -0.6801
39517SOL    HW225413   4.396   7.141  10.081  2.2010 -1.5901 -1.5438
39518SOL     OW25414   8.694   5.130   8.288 -0.0584  0.2660 -0.6826
39518SOL    HW125415   8.624   5.081   8.244  0.0684 -0.1899 -0.3776
39518SOL    HW225416   8.775   5.092   8.254  0.0495 -0.6015  0.4827
39519SOL     OW25417   8.606   6.091   7.631  0.2138  0.1788 -0.2882
39519SOL    HW125418   8.679   6.092   7.692  0.3958  1.5077 -0.4852
39519SOL    HW225419   8.647   6.081   7.545 -0.0051 -1.1723 -0.2589
39520SOL     OW25420   1.494   3.683   9.569 -0.5259 -0.1129 -0.2620
39520SOL    HW125421   1.421   3.632   9.603  0.6390 -2.3921 -0.9169
39520SOL    HW225422   1.561   3.678   9.639  0.5739 -1.8460 -1.3562
39521SOL     OW25423   9.844   7.654   2.527  0.3142 -0.4535  0.2393
39521SOL    HW125424   9.778   7.722   2.512  1.1880  0.3841  0.1085
39521SOL    HW225425   9.861   7.618   2.440  0.2190 -0.4954  0.2376
39522SOL     OW25426   0.608   2.166   6.533  0.5530  0.1264  0.0277
39522SOL    HW125427   0.577   2.235   6.590 -1.1850  1.5434 -2.4302
39522SOL    HW225428   0.567   2.086   6.567  0.1329  0.7908  1.1266
39523SOL     OW25429   9.123  11.974   8.939 -0.2201 -0.2726 -0.1312
39523SOL    HW125430   9.083  12.032   9.004 -1.8559 -1.3547 -0.1200
39523SOL    HW225431   9.136  11.891   8.984  0.1479 -0.5577 -0.7344
39524SOL     OW25432   1.118   4.530   6.560 -0.2821 -0.2235  0.0868
39524SOL    HW125433   1.086   4.588   6.630  1.1275 -0.0472  0.6163
39524SOL    HW225434   1.150   4.590   6.492  3.0145 -0.2163  1.4580
39525SOL     OW25435   4.251   2.502  10.309  0.6181 -0.2927  0.3183
39525SOL    HW125436   4.316   2.488  10.378 -0.1899 -0.4506  1.0700
39525SOL    HW225437   4.289   2.571  10.254  1.0715  0.1823  1.2010
39526SOL     OW25438   8.399   6.264  10.537 -0.0099  0.3478 -0.4242
39526SOL    HW125439   8.410   6.331  10.604 -2.5667 -1.8981  2.5181
39526SOL    HW225440   8.477   6.209  10.545 -1.0922 -0.9499  2.1810
39527SOL     OW25441   6.066  11.042   0.983  0.3890  0.0071  0.0358
39527SOL    HW125442   6.119  11.015   0.908  0.9344 -0.9260  0.7368
39527SOL    HW225443   6.119  11.108   1.028 -0.5044  1.5603 -1.1055
39528SOL     OW25444   6.819   3.179  11.516  0.3505  0.5740 -0.7129
39528SOL    HW125445   6.856   3.216  11.435  0.9001 -0.4159 -0.9380
39528SOL    HW225446   6.768   3.103  11.486  2.4194 -1.2129 -0.0081
39529SOL     OW25447   7.014   1.749   0.157  0.1401 -0.0126 -0.2885
39529SOL    HW125448   7.078   1.806   0.201 -2.4467  2.0647  1.0573
39529SOL    HW225449   7.067   1.694   0.100  3.0864  1.8750  0.3937
39530SOL     OW25450   2.858   2.315   0.195  0.6022  0.5414 -0.1520
39530SOL    HW125451   2.944   2.328   0.155  0.4921  1.4755 -0.1143
39530SOL    HW225452   2.802   2.287   0.124  1.0468 -0.6112 -0.0750
39531SOL     OW25453  10.534   3.536   1.976 -0.6380  0.0196  0.1831
39531SOL    HW125454  10.588   3.458   1.964 -2.2346 -1.0795 -0.0612
39531SOL    HW225455  10.584   3.590   2.037  0.6578 -1.0231  0.0893
39532SOL     OW25456   2.202  11.342   1.490  0.7184  0.3827 -0.0739
39532SOL    HW125457   2.261  11.271   1.466 -0.5614 -0.8034  0.1863
39532SOL    HW225458   2.183  11.327   1.583 -1.3257 -0.2796 -0.5619
39533SOL     OW25459   8.231   4.890   4.149 -0.0591 -0.3933 -0.0912
39533SOL    HW125460   8.301   4.948   4.119 -0.0771 -1.4405 -2.3572
39533SOL    HW225461   8.152   4.927   4.110 -0.4744 -0.4163  0.7101
39534SOL     OW25462   5.047   6.697   7.908 -0.4197 -0.4965 -0.2122
39534SOL    HW125463   4.989   6.632   7.948 -0.1367 -0.6632 -0.0752
39534SOL    HW225464   5.033   6.777   7.961  0.4753 -0.9041  0.6800
39535SOL     OW25465  10.269   3.775   3.925 -0.1545  0.5273  0.1418
39535SOL    HW125466  10.190   3.823   3.900 -0.2569  0.0060 -0.5604
39535SOL    HW225467  10.294   3.728   3.846  0.6901  0.4534  0.4494
39536SOL     OW25468   7.523   3.326   7.697 -1.0927  0.0416 -0.0820
39536SOL    HW125469   7.457   3.376   7.649  0.6517  3.2404  0.5474
39536SOL    HW225470   7.603   3.378   7.688  0.1530 -1.0513  3.3003
39537SOL     OW25471  10.247   6.392  10.856 -0.9022  0.5823  0.3204
39537SOL    HW125472  10.275   6.462  10.797 -1.4253 -0.2148 -0.9221
39537SOL    HW225473  10.249   6.313  10.802  0.6877 -0.5768  1.9496
39538SOL     OW25474  10.721  12.344   3.063  0.4830  0.3504 -0.2789
39538SOL    HW125475  10.657  12.308   3.124  1.2062  0.0371  0.3246
39538SOL    HW225476  10.738  12.432   3.096 -0.7954  1.0196 -1.3659
39539SOL     OW25477   3.450  12.456   1.781 -0.1847 -0.0508  0.3792
39539SOL    HW125478   3.471  12.524   1.845  0.8240 -0.3772  0.4271
39539SOL    HW225479   3.364  12.480   1.746  0.0390  1.0985  0.5827
39540SOL     OW25480  11.088   6.105  12.040 -0.6148  0.1702 -0.3083
39540SOL    HW125481  11.102   6.086  12.133 -2.1120 -0.6991 -0.2238
39540SOL    HW225482  11.101   6.020  11.997 -0.0217  0.5507 -0.8860
39541SOL     OW25483  11.943   6.908   8.096 -0.1516  0.1450  0.1745
39541SOL    HW125484  12.025   6.858   8.100  0.0398  0.4965  0.8977
39541SOL    HW225485  11.876   6.844   8.118  0.1838  0.3654  2.0858
39542SOL     OW25486   9.690   3.059   2.556  0.8325  0.0752 -0.1087
39542SOL    HW125487   9.733   3.051   2.641  2.1755  2.5188 -0.4596
39542SOL    HW225488   9.735   2.996   2.500 -0.1941 -1.6958  0.9755
39543SOL     OW25489   6.296   0.985   2.505  0.4330 -0.5672 -0.7503
39543SOL    HW125490   6.254   0.902   2.524 -1.3989  0.0181 -1.9476
39543SOL    HW225491   6.349   1.004   2.582 -1.7395 -1.2383  1.0062
39544SOL     OW25492  12.393   3.076   3.497  0.2940  0.2143 -0.0199
39544SOL    HW125493  12.461   3.129   3.456 -1.1757  1.4409 -0.9846
39544SOL    HW225494  12.431   3.048   3.580  1.7786  1.2715 -0.3106
39545SOL     OW25495   0.789   7.391  10.574  0.1069  0.3989 -0.6618
39545SOL    HW125496   0.825   7.467  10.527  1.9647 -0.0241 -0.0087
39545SOL    HW225497   0.808   7.409  10.666  0.0166 -0.5822 -0.4440
39546SOL     OW25498   8.947  10.923   6.307 -0.3657 -0.1153 -0.2577
39546SOL    HW125499   8.866  10.891   6.347  0.1577  0.0412  0.9689
39546SOL    HW225500   9.016  10.898   6.369  0.7431 -1.6581 -2.0082
39547SOL     OW25501   9.644  10.285   2.967 -0.5197 -0.8578  0.1004
39547SOL    HW125502   9.593  10.311   2.890 -0.9528 -3.3306 -0.5311
39547SOL    HW225503   9.599  10.207   3.000 -0.1980 -0.0191  2.7648
39548SOL     OW25504   6.245   9.985   9.851  0.1630  0.2017 -0.0841
39548SOL    HW125505   6.334  10.021   9.840  0.1492  0.4851  0.6409
39548SOL    HW225506   6.233   9.983   9.946 -0.5835  0.1028 -0.1817
39549SOL     OW25507  10.072   4.835   5.458 -0.3853 -0.4091  0.0200
39549SOL    HW125508  10.154   4.877   5.433 -0.0706 -0.4067  1.0090
39549SOL    HW225509  10.041   4.884   5.534 -1.5747 -0.0954 -0.6497
39550SOL     OW25510   7.328   2.633   1.405  0.3840  0.1799  0.6419
39550SOL    HW125511   7.334   2.538   1.395  0.2668  0.1700  0.6622
39550SOL    HW225512   7.394   2.654   1.472  1.2474  0.2609 -0.2056
39551SOL     OW25513  11.722  11.028   8.848 -0.0301 -0.0684  0.3100
39551SOL    HW125514  11.712  11.112   8.803  1.7592 -1.0524 -2.1497
39551SOL    HW225515  11.813  11.004   8.833 -1.0362 -3.5890 -1.2845
39552SOL     OW25516   7.735  10.011  12.149 -0.0500 -0.4129  0.1969
39552SOL    HW125517   7.792  10.053  12.213  0.3016  0.9084 -0.9330
39552SOL    HW225518   7.671   9.962  12.201  0.4668  0.3002  1.5314
39553SOL     OW25519   4.168   5.011   0.419  0.2553  0.0845  0.1881
39553SOL    HW125520   4.232   5.020   0.490  0.4082 -2.5927  0.5015
39553SOL    HW225521   4.212   4.955   0.355 -1.1500 -0.3798 -0.4043
39554SOL     OW25522   5.409  11.927   6.647 -0.3828  0.4571 -0.1234
39554SOL    HW125523   5.443  12.016   6.640 -0.7758  0.8606  2.1464
39554SOL    HW225524   5.428  11.887   6.563 -1.9683  3.2597 -1.9858
39555SOL     OW25525   5.599  11.397   3.060 -0.1057  0.8257  0.2241
39555SOL    HW125526   5.654  11.345   3.119  0.6524 -0.1309 -1.2622
39555SOL    HW225527   5.645  11.480   3.052  0.2224  0.6565  0.3390
39556SOL     OW25528   4.435   0.947   7.370  0.1869 -0.2198  0.2219
39556SOL    HW125529   4.364   0.911   7.424 -0.1425 -0.5457 -0.4233
39556SOL    HW225530   4.514   0.905   7.404  0.1098  0.3159  1.0957
39557SOL     OW25531   4.566   6.885   4.973  0.4319  0.2827  0.2407
39557SOL    HW125532   4.537   6.839   5.052  1.7146 -0.0584  0.5436
39557SOL    HW225533   4.647   6.927   5.000  1.5526 -0.8460 -1.2162
39558SOL     OW25534   9.896   8.427   4.951  0.4021  0.1043 -0.3413
39558SOL    HW125535   9.856   8.514   4.945 -1.0760 -0.5619 -0.7699
39558SOL    HW225536   9.936   8.413   4.865  0.4189  0.2707 -0.3600
39559SOL     OW25537   8.729  10.052   5.473  0.7988 -0.0652  0.0486
39559SOL    HW125538   8.814  10.092   5.489 -0.1759  1.4286  1.9085
39559SOL    HW225539   8.671  10.125   5.450 -0.2217 -0.8804 -0.0768
39560SOL     OW25540   0.682   2.398  10.321 -0.0601  0.6401  0.0158
39560SOL    HW125541   0.747   2.352  10.374 -0.6566 -1.7832 -1.1888
39560SOL    HW225542   0.691   2.360  10.233 -1.6656  1.7647 -0.6936
39561SOL     OW25543   4.772   9.197   6.682 -0.1061  0.2742 -0.8434
39561SOL    HW125544   4.867   9.209   6.685 -0.0112 -0.0231 -2.1890
39561SOL    HW225545   4.743   9.219   6.770  1.3223 -0.6676 -0.0967
39562SOL     OW25546   4.860   1.011   6.329  0.0379 -0.3176 -0.2122
39562SOL    HW125547   4.864   0.922   6.292 -2.7368 -0.9047  0.6259
39562SOL    HW225548   4.798   1.003   6.402 -0.3295  2.3362 -0.1580
39563SOL     OW25549   4.556   4.257   8.503 -0.1067 -0.3599 -0.1447
39563SOL    HW125550   4.469   4.235   8.535  0.3986 -2.6624 -0.1651
39563SOL    HW225551   4.568   4.203   8.425  1.4546 -0.3800  0.0645
39564SOL     OW25552   5.377  10.154   5.492  0.3691 -0.2440 -0.1360
39564SOL    HW125553   5.450  10.161   5.553 -0.2132 -2.7440  0.9921
39564SOL    HW225554   5.305  10.198   5.536  0.3931 -0.5738  0.2454
39565SOL     OW25555  12.071   6.352   1.853 -0.5115 -0.1823 -0.0069
39565SOL    HW125556  12.062   6.447   1.842 -0.2959 -0.1549  0.0551
39565SOL    HW225557  12.118   6.323   1.775  0.9389 -0.0000  0.7691
39566SOL     OW25558   5.260   7.870  10.781  0.6582 -0.4950 -0.8812
39566SOL    HW125559   5.283   7.880  10.689 -0.3767 -1.3612 -1.2614
39566SOL    HW225560   5.343   7.853  10.826  0.9691 -2.0366 -1.9630
39567SOL     OW25561   6.673   8.103  10.133  0.3714  0.2550 -0.0124
39567SOL    HW125562   6.613   8.088  10.206 -0.7693  0.8131 -0.7953
39567SOL    HW225563   6.722   8.021  10.125  1.6422  0.7017  2.3269
39568SOL     OW25564   0.227   4.908   0.579  0.0431  0.4717  0.2496
39568SOL    HW125565   0.226   4.837   0.644 -0.5865  0.3997  0.1657
39568SOL    HW225566   0.229   4.988   0.632 -1.3879  0.4368  0.3874
39569SOL     OW25567   7.670   6.980  11.451  0.3898 -0.1280  0.3123
39569SOL    HW125568   7.683   7.002  11.544  3.5712 -0.1410  0.0015
39569SOL    HW225569   7.677   6.885  11.448 -1.6387 -0.3146  0.2241
39570SOL     OW25570   8.320   4.522   9.707  0.4009 -0.8172  0.3409
39570SOL    HW125571   8.300   4.551   9.796  1.8988 -0.2583  0.5179
39570SOL    HW225572   8.411   4.549   9.692 -0.0540 -0.1540 -1.6526
39571SOL     OW25573  10.678  12.163   1.608 -0.0492  0.3670 -0.1214
39571SOL    HW125574  10.742  12.176   1.679 -1.0951  0.1604  0.8968
39571SOL    HW225575  10.726  12.115   1.541  1.4004  1.8372 -0.2133
39572SOL     OW25576   2.275   4.673   1.072 -0.2823  0.4234  0.9645
39572SOL    HW125577   2.279   4.649   0.979 -1.1096 -0.5402  1.1602
39572SOL    HW225578   2.301   4.765   1.074  1.5066 -0.0233 -0.0044
39573SOL     OW25579   7.450   7.439   0.852  0.4814  0.3637 -0.1133
39573SOL    HW125580   7.445   7.356   0.899 -0.4327  0.6525  0.3042
39573SOL    HW225581   7.508   7.421   0.778  2.4041  0.0461  1.3785
39574SOL     OW25582   0.687   4.739   8.946 -0.3263  0.0118 -0.1422
39574SOL    HW125583   0.684   4.709   9.037 -0.3647  1.3216  0.3037
39574SOL    HW225584   0.730   4.824   8.949  0.2945 -0.2214 -1.4461
39575SOL     OW25585   0.809   7.930   1.650 -0.3777 -0.2792  0.3666
39575SOL    HW125586   0.730   7.981   1.632  0.1657  0.7730  0.8203
39575SOL    HW225587   0.880   7.996   1.651  0.6037 -1.2828 -0.7096
39576SOL     OW25588   7.598  11.629   7.026  0.6237 -0.7000 -0.6317
39576SOL    HW125589   7.548  11.697   7.071 -2.7163 -2.8759 -0.6907
39576SOL    HW225590   7.616  11.666   6.940  0.9175  0.9190  0.0853
39577SOL     OW25591   6.073   8.273   6.795  0.1471  0.2247  0.8792
39577SOL    HW125592   6.153   8.282   6.846  0.2620 -0.9001  0.9257
39577SOL    HW225593   6.098   8.299   6.706  1.7382 -3.8390 -0.0902
39578SOL     OW25594   9.449   6.578   6.110  0.1499 -0.0106 -0.1316
39578SOL    HW125595   9.475   6.490   6.085 -0.8626 -0.6012  0.8622
39578SOL    HW225596   9.431   6.573   6.204  1.2504  1.5321  0.2134
39579SOL     OW25597  10.668   1.332   0.612 -0.5928 -0.0990 -0.1660
39579SOL    HW125598  10.634   1.242   0.617 -0.8807 -0.0627 -1.2277
39579SOL    HW225599  10.641   1.372   0.695  0.2768 -1.2254  0.7014
39580SOL     OW25600   0.945  10.811  12.155  0.5098 -0.2509  0.1121
39580SOL    HW125601   0.945  10.781  12.064  0.5568 -2.4723  0.7929
39580SOL    HW225602   1.038  10.821  12.177  0.5327 -0.6228  0.1884
39581SOL     OW25603   3.692  11.118   4.845 -0.6490 -0.0273 -0.0872
39581SOL    HW125604   3.671  11.046   4.787 -1.3084  0.7974 -0.9030
39581SOL    HW225605   3.664  11.197   4.798  0.0326  0.7679  0.7764
39582SOL     OW25606  10.061   0.120   3.557  0.3263 -0.6381  0.1298
39582SOL    HW125607  10.033   0.137   3.467 -1.0993 -1.2085  0.4389
39582SOL    HW225608  10.011   0.182   3.610 -0.1403 -1.4676  0.6767
39583SOL     OW25609  11.300   9.132   3.630  0.4082  0.5085  0.2008
39583SOL    HW125610  11.218   9.124   3.679  0.1641 -0.3936 -0.3404
39583SOL    HW225611  11.365   9.155   3.696  0.0317 -0.4203  0.9058
39584SOL     OW25612  11.376   5.884  10.532 -0.4085 -0.4624 -0.0787
39584SOL    HW125613  11.411   5.886  10.621  1.9352 -1.6816 -0.9122
39584SOL    HW225614  11.390   5.795  10.502 -2.3698 -0.4357 -1.2672
39585SOL     OW25615   2.142   6.124   0.031  0.5175 -0.8752  0.3277
39585SOL    HW125616   2.173   6.206  -0.006  0.7713 -0.2826  1.7818
39585SOL    HW225617   2.142   6.139   0.125  0.7738 -2.6180  0.6362
39586SOL     OW25618  11.058   5.636   3.318 -0.0655 -1.0657 -0.5588
39586SOL    HW125619  10.975   5.599   3.286  0.6003 -1.3361 -2.0836
39586SOL    HW225620  11.078   5.705   3.255  0.8691 -1.0242 -0.2199
39587SOL     OW25621  10.601   0.599  12.078  0.2473 -0.3170  0.3439
39587SOL    HW125622  10.688   0.571  12.107  0.9083  0.4113 -0.8912
39587SOL    HW225623  10.600   0.694  12.095 -0.3088 -0.3212  0.3376
39588SOL     OW25624   1.165   9.922  10.331 -0.3143 -0.1901 -0.3406
39588SOL    HW125625   1.080   9.946  10.368 -0.3340 -1.9148  0.8854
39588SOL    HW225626   1.144   9.885  10.245 -0.5715  1.2184 -0.9020
39589SOL     OW25627   1.077  10.155  11.063 -0.4280  0.4082 -0.0029
39589SOL    HW125628   1.075  10.068  11.023 -0.3100 -0.1530  1.1714
39589SOL    HW225629   0.986  10.171  11.089 -1.0044  1.7859 -2.5138
39590SOL     OW25630   7.793   8.923   2.686  0.0937 -0.4483  0.6396
39590SOL    HW125631   7.730   8.968   2.630  1.0685 -1.3125 -1.2317
39590SOL    HW225632   7.775   8.956   2.774 -2.4616 -0.1132  0.0657
39591SOL     OW25633   2.274   3.438   2.755 -0.0114  0.0758 -0.0363
39591SOL    HW125634   2.206   3.404   2.813  0.7905 -0.3139  0.6861
39591SOL    HW225635   2.287   3.528   2.785 -1.1179  0.5863 -1.0224
39592SOL     OW25636   6.632   7.589   0.980  0.0689  0.1365  0.4630
39592SOL    HW125637   6.707   7.648   0.974  1.5378 -1.6231  1.0334
39592SOL    HW225638   6.597   7.604   1.068  0.5810  0.0007  0.6934
39593SOL     OW25639   2.870   7.845   4.966 -0.7150  0.0511 -0.0697
39593SOL    HW125640   2.873   7.931   4.923  2.1563 -0.2023 -0.5798
39593SOL    HW225641   2.804   7.855   5.035 -0.4917  2.6759 -0.1258
39594SOL     OW25642   1.438   7.804   3.331  0.1896 -0.9770  0.5994
39594SOL    HW125643   1.370   7.808   3.264  0.1628  0.4799  0.6808
39594SOL    HW225644   1.405   7.859   3.402  1.1498 -0.7985  0.9241
39595SOL     OW25645   0.619   6.820   5.581 -0.0977 -0.4813  0.3245
39595SOL    HW125646   0.561   6.813   5.657 -0.1598  0.3569  0.3606
39595SOL    HW225647   0.706   6.835   5.618  0.3019 -2.4706  0.2972
39596SOL     OW25648   6.052   4.700   0.186  0.4519  0.2646  0.1480
39596SOL    HW125649   6.112   4.740   0.250  1.2148  1.1983 -1.0887
39596SOL    HW225650   6.082   4.734   0.102  0.9685 -2.7631 -0.9887
39597SOL     OW25651   4.418  12.088   9.530 -0.5707 -0.3902 -0.2856
39597SOL    HW125652   4.327  12.057   9.533 -0.0754 -1.8583  0.2808
39597SOL    HW225653   4.414  12.166   9.474 -2.1919 -0.3597 -0.1829
39598SOL     OW25654   0.630   1.782  10.172  0.4492 -0.3741  0.0801
39598SOL    HW125655   0.656   1.850  10.234 -1.5181 -0.2041  0.7889
39598SOL    HW225656   0.598   1.831  10.096  0.1307 -0.5099  0.1233
39599SOL     OW25657  11.920   5.460  10.515  0.0792 -0.1807  0.0193
39599SOL    HW125658  11.904   5.549  10.547 -0.8704 -0.1889 -0.3851
39599SOL    HW225659  11.925   5.469  10.420 -2.5100 -0.8536 -0.2510
39600SOL     OW25660   4.136  10.634   9.405  0.2135  0.4775 -0.1432
39600SOL    HW125661   4.155  10.601   9.493  0.8560 -0.2258 -0.5401
39600SOL    HW225662   4.216  10.620   9.356 -0.2435  0.5871 -0.9367
39601SOL     OW25663   9.518   1.467  10.208  1.1080 -0.1047 -0.1184
39601SOL    HW125664   9.493   1.487  10.298 -0.4728  0.2037 -0.5884
39601SOL    HW225665   9.477   1.536  10.155  0.6381 -1.1705 -1.2104
39602SOL     OW25666   9.926   7.302   1.585  0.6304  0.1434  0.8694
39602SOL    HW125667   9.861   7.368   1.606  0.3899  0.2122 -0.0632
39602SOL    HW225668   9.939   7.309   1.490  1.4466 -0.3674  0.9252
39603SOL     OW25669   8.218   7.025  10.073  0.0883 -0.5529  0.4342
39603SOL    HW125670   8.234   6.996  10.163 -1.3962  0.0244  0.9140
39603SOL    HW225671   8.123   7.022  10.064  0.2131 -0.5235 -1.1079
39604SOL     OW25672   4.765   8.442  11.986 -0.2274  0.0424 -0.0359
39604SOL    HW125673   4.845   8.405  11.947 -1.0581  0.0907 -1.9053
39604SOL    HW225674   4.716   8.365  12.014 -0.8815 -0.2194 -1.7499
39605SOL     OW25675   6.046   2.366   4.986  0.7190  0.3545  1.1326
39605SOL    HW125676   5.962   2.347   5.028  0.9875 -0.2990  1.3809
39605SOL    HW225677   6.036   2.336   4.896  0.1952  1.6146  0.7459
39606SOL     OW25678   5.467   6.280   6.780  0.0625 -0.0015  0.4004
39606SOL    HW125679   5.551   6.265   6.737 -0.0512 -0.0378  0.1884
39606SOL    HW225680   5.489   6.321   6.863  0.1822  2.3160 -0.6992
39607SOL     OW25681   5.290   1.006   3.237  0.2223  0.0449 -0.3372
39607SOL    HW125682   5.358   1.042   3.294 -1.0030 -0.0168  1.2338
39607SOL    HW225683   5.210   1.014   3.288 -0.5441 -2.3275 -1.0624
39608SOL     OW25684   5.260  10.551   9.061  0.1446  0.3055  0.0335
39608SOL    HW125685   5.253  10.608   9.137 -2.4602  0.1690 -0.0168
39608SOL    HW225686   5.207  10.475   9.082 -2.4088  1.1706 -2.6217
39609SOL     OW25687  12.160   0.268   9.438 -0.1882  0.1956  0.5598
39609SOL    HW125688  12.222   0.340   9.450 -1.3635  1.1337  1.2850
39609SOL    HW225689  12.183   0.230   9.354  2.6267 -0.7673  1.6263
39610SOL     OW25690  11.538   0.207  11.593 -0.2734  0.1457  0.2364
39610SOL    HW125691  11.501   0.172  11.512 -0.1236  0.4189  0.0493
39610SOL    HW225692  11.548   0.301  11.576 -1.1432  0.3726  0.9142
39611SOL     OW25693   9.829   1.993   4.348 -0.0021  0.0056  0.2336
39611SOL    HW125694   9.878   1.988   4.430 -0.1470 -0.3295  0.3019
39611SOL    HW225695   9.893   2.025   4.283  0.1659  0.0715  0.4322
39612SOL     OW25696  11.077   1.109   0.811  0.0830 -0.0417 -0.1257
39612SOL    HW125697  11.080   1.069   0.724 -2.1161  1.4331 -0.9653
39612SOL    HW225698  11.083   1.035   0.872 -2.5835 -1.6023 -1.5908
39613SOL     OW25699   5.030  11.627   5.158  0.6624 -0.3347  0.0133
39613SOL    HW125700   5.067  11.682   5.227 -2.1229 -0.3247  1.6575
39613SOL    HW225701   5.049  11.538   5.185  2.4717 -0.3269 -1.0439
39614SOL     OW25702   7.395   1.335  11.680 -0.3505  0.3242 -0.1408
39614SOL    HW125703   7.484   1.343  11.714  0.5108  0.1118 -2.1589
39614SOL    HW225704   7.346   1.405  11.723  0.3171 -0.6245  2.3129
39615SOL     OW25705   9.716   9.232   5.584 -0.1996  0.7285  0.0331
39615SOL    HW125706   9.743   9.251   5.494  0.7011 -2.3604 -0.4732
39615SOL    HW225707   9.625   9.205   5.576  0.4845 -1.7800 -0.4596
39616SOL     OW25708   6.904  10.981   1.480  0.8183 -0.1097  0.0132
39616SOL    HW125709   6.933  10.908   1.425 -1.7074 -1.3377  0.1873
39616SOL    HW225710   6.898  10.944   1.568  0.6592  0.6428  0.3295
39617SOL     OW25711   4.101  11.780   8.277  0.0357 -0.2116 -0.3477
39617SOL    HW125712   4.036  11.847   8.256  0.0370 -0.3648 -0.8681
39617SOL    HW225713   4.142  11.760   8.192 -0.3993 -1.3205 -0.3162
39618SOL     OW25714   7.636   6.857  12.434 -0.0439  0.2466 -0.0689
39618SOL    HW125715   7.642   6.906  12.351  5.0381 -0.4791 -0.4626
39618SOL    HW225716   7.574   6.786  12.416  0.9936  0.0158 -3.4082
39619SOL     OW25717   9.662   4.364   1.405 -0.2564 -0.9433 -0.1911
39619SOL    HW125718   9.688   4.341   1.494  1.1365  0.4233 -0.2083
39619SOL    HW225719   9.619   4.449   1.414 -0.5676 -1.0322 -0.7696
39620SOL     OW25720   2.585   8.062  10.360  0.0877  0.3413 -0.7758
39620SOL    HW125721   2.504   8.072  10.410 -0.2934  0.8127 -1.4761
39620SOL    HW225722   2.641   8.133  10.392 -0.0768  0.5117 -0.8602
39621SOL     OW25723  12.364   5.692   8.528 -0.3149 -0.4610  0.1513
39621SOL    HW125724  12.445   5.705   8.578 -0.2599  1.5814 -0.3792
39621SOL    HW225725  12.307   5.643   8.587 -0.0544  1.3774  2.0213
39622SOL     OW25726   5.420   8.450   1.440 -0.0230 -0.0640 -0.1397
39622SOL    HW125727   5.504   8.434   1.397 -0.7112 -0.8226 -1.2316
39622SOL    HW225728   5.430   8.408   1.526  0.4819 -0.7556 -0.5213
39623SOL     OW25729   5.251   7.346   3.051  0.1911 -0.0034 -0.0315
39623SOL    HW125730   5.215   7.406   2.986  0.6336 -0.7550 -0.9961
39623SOL    HW225731   5.188   7.349   3.124  0.7702  2.4412  0.4527
39624SOL     OW25732   7.123   1.617   8.350 -0.1097  0.1350  0.0225
39624SOL    HW125733   7.167   1.667   8.419  0.1206 -0.7830  0.5529
39624SOL    HW225734   7.151   1.527   8.364 -0.1650 -0.0861 -1.2020
39625SOL     OW25735   8.051  10.275   1.179  0.1233 -0.1243  0.7233
39625SOL    HW125736   8.031  10.365   1.151  1.0912  0.0092  0.4306
39625SOL    HW225737   8.146  10.272   1.182  0.2119 -1.7598 -1.3123
39626SOL     OW25738   8.344  10.773   7.034 -0.0324  0.5037  0.3516
39626SOL    HW125739   8.342  10.695   6.979  0.4614  0.2704  0.6627
39626SOL    HW225740   8.260  10.816   7.018  0.2811  0.6690 -0.9057
39627SOL     OW25741   4.131  11.537   0.170 -0.4938 -0.0249 -1.0011
39627SOL    HW125742   4.147  11.628   0.148 -2.4247 -0.1080 -3.0695
39627SOL    HW225743   4.212  11.491   0.147  1.2540  1.2925  1.8614
39628SOL     OW25744   0.628   7.214   2.074 -0.1147  0.1671  0.5357
39628SOL    HW125745   0.589   7.134   2.109 -0.2353  0.2283  0.5416
39628SOL    HW225746   0.721   7.193   2.066  0.1191  0.5225  1.9797
39629SOL     OW25747  10.663   2.356   9.924 -0.8118  0.3869 -0.0994
39629SOL    HW125748  10.619   2.272   9.911 -2.7735  1.1064  1.3900
39629SOL    HW225749  10.697   2.351  10.013 -0.6745  1.0569 -0.1101
39630SOL     OW25750  11.776   6.028  11.308  0.0989 -0.1752  0.6567
39630SOL    HW125751  11.691   6.035  11.353 -1.1168  0.7233 -1.6329
39630SOL    HW225752  11.789   6.113  11.268 -0.0504 -1.5280 -2.5540
39631SOL     OW25753  10.510   0.290   5.039  0.0870 -0.4157 -0.0387
39631SOL    HW125754  10.527   0.261   4.950  0.9453  2.4386 -0.9196
39631SOL    HW225755  10.451   0.224   5.076  1.1791 -2.6519 -2.0486
39632SOL     OW25756   1.950  10.348   7.392 -0.8269  0.8704 -0.2998
39632SOL    HW125757   1.863  10.307   7.392 -0.1288 -0.7812  1.3539
39632SOL    HW225758   1.992  10.313   7.313  0.1561 -2.8104  1.6307
39633SOL     OW25759   7.443   7.284  11.528  0.3836 -0.5704  0.0658
39633SOL    HW125760   7.469   7.196  11.556  0.4469 -1.0569 -1.4503
39633SOL    HW225761   7.353   7.293  11.561  0.5424 -1.0049  0.6414
39634SOL     OW25762   9.541  10.610  10.757  0.5007 -0.1175  0.2044
39634SOL    HW125763   9.592  10.690  10.742  0.9596 -0.8207 -2.4985
39634SOL    HW225764   9.528  10.573  10.670 -2.7877 -1.1494  0.9864
39635SOL     OW25765   8.779   5.380   1.094 -0.1636 -0.0086 -0.2042
39635SOL    HW125766   8.822   5.363   1.010  1.4327  1.7167  0.2117
39635SOL    HW225767   8.708   5.315   1.098  1.4761 -1.9949 -1.5736
39636SOL     OW25768  11.011  11.632   2.510 -0.3213 -0.2045 -0.6604
39636SOL    HW125769  10.951  11.644   2.584  1.5220  0.8999  0.7542
39636SOL    HW225770  11.026  11.720   2.477  1.0354 -0.3456 -0.4985
39637SOL     OW25771   2.961   0.407   1.593 -1.0420 -0.2388  0.0481
39637SOL    HW125772   2.913   0.467   1.651 -2.8065 -1.7860  0.2956
39637SOL    HW225773   2.966   0.452   1.509 -0.3216  1.1652  0.8168
39638SOL     OW25774   6.628   5.352   8.562  0.2266  0.3832  0.4839
39638SOL    HW125775   6.595   5.368   8.473  0.8448 -0.5039  0.0836
39638SOL    HW225776   6.553   5.371   8.619 -0.6126 -0.4158 -0.3214
39639SOL     OW25777   4.926   4.964   9.070  0.6509  0.4086  0.1094
39639SOL    HW125778   4.969   4.973   8.985 -0.1542  0.3210 -0.3213
39639SOL    HW225779   4.841   5.007   9.058  0.1713 -0.3736  0.6004
39640SOL     OW25780  12.050   7.828   0.354  0.0649 -0.4698 -0.3660
39640SOL    HW125781  12.108   7.899   0.383 -0.4993  0.6891 -1.9235
39640SOL    HW225782  12.109   7.760   0.322  0.5927 -0.3174  0.2501
39641SOL     OW25783  12.299   4.454  12.009 -0.8127 -0.1971 -0.1776
39641SOL    HW125784  12.342   4.479  12.091 -1.3373  0.9841 -0.2527
39641SOL    HW225785  12.293   4.535  11.959 -0.2276 -0.9431 -1.5339
39642SOL     OW25786   7.885   8.611  10.982 -0.2664  0.0635 -0.5038
39642SOL    HW125787   7.909   8.568  10.900 -0.2229  2.0980 -1.6358
39642SOL    HW225788   7.960   8.599  11.039  0.2800 -0.2076 -1.2637
39643SOL     OW25789   0.486   4.829   2.675  0.4677  0.0436  0.2526
39643SOL    HW125790   0.396   4.844   2.707 -0.2799  1.0000 -2.0939
39643SOL    HW225791   0.522   4.764   2.735 -1.4068  0.4418  1.9299
39644SOL     OW25792   2.172   8.491   7.787 -0.5583 -0.0931 -0.4384
39644SOL    HW125793   2.263   8.463   7.791 -0.6116 -0.3352 -0.8628
39644SOL    HW225794   2.135   8.443   7.713 -0.9794  0.1537 -0.3928
39645SOL     OW25795   6.709   8.219   1.355  0.2740  0.2840 -0.2388
39645SOL    HW125796   6.667   8.303   1.332 -0.3117  0.7231  2.2112
39645SOL    HW225797   6.791   8.244   1.397  1.0523 -0.4727 -1.2702
39646SOL     OW25798  12.415  11.687   4.850  0.3302  0.2652  0.3769
39646SOL    HW125799  12.434  11.652   4.763 -0.4953  1.8769 -0.4879
39646SOL    HW225800  12.416  11.782   4.839  0.1355  0.5030  2.1211
39647SOL     OW25801   1.690  10.633   0.780  0.1602  0.3709  0.1038
39647SOL    HW125802   1.691  10.644   0.875 -0.0738 -2.1214  0.4549
39647SOL    HW225803   1.741  10.553   0.764 -0.2131  0.4566 -1.8213
39648SOL     OW25804   8.273  11.869   7.697  0.0999  0.6485  0.0827
39648SOL    HW125805   8.325  11.802   7.742 -1.2476  0.5953  1.6376
39648SOL    HW225806   8.337  11.937   7.675  1.3297 -0.6892 -0.6800
39649SOL     OW25807   7.018  12.295   0.877  0.6335  0.0960 -0.1000
39649SOL    HW125808   6.970  12.236   0.818 -0.7848  1.3041 -0.2074
39649SOL    HW225809   7.067  12.236   0.934 -0.1865 -1.1751 -0.6538
39650SOL     OW25810   6.520   4.696   8.475  0.1583  0.1911  0.4631
39650SOL    HW125811   6.610   4.723   8.495 -0.0088  0.8354  0.3677
39650SOL    HW225812   6.497   4.745   8.396 -0.3898  0.2700  0.6655
39651SOL     OW25813   8.308   5.472   0.294  0.2229  0.4423  0.3037
39651SOL    HW125814   8.323   5.409   0.224  1.5343 -0.1780  1.1036
39651SOL    HW225815   8.265   5.420   0.363 -0.8586  0.9944  0.0709
39652SOL     OW25816   0.977   9.517   5.494 -0.1964  0.6578  0.3735
39652SOL    HW125817   1.050   9.474   5.538 -0.1034 -0.4714 -0.8340
39652SOL    HW225818   0.899   9.470   5.526 -0.2101  0.4642  0.0557
39653SOL     OW25819  11.744   9.136  11.917  0.5521 -0.3330  0.1303
39653SOL    HW125820  11.811   9.157  11.982 -1.2601 -0.1645  2.0736
39653SOL    HW225821  11.700   9.059  11.952 -0.0711 -0.6409 -1.2618
39654SOL     OW25822   5.835   0.250   5.478  0.1759 -0.1379 -0.3913
39654SOL    HW125823   5.860   0.183   5.414  0.7728 -0.3174  0.0241
39654SOL    HW225824   5.750   0.222   5.511  0.2258 -0.4574 -0.5364
39655SOL     OW25825   0.400   8.440   2.022  0.1369 -0.5150 -0.4600
39655SOL    HW125826   0.310   8.424   2.048 -0.3638 -0.0549 -1.8308
39655SOL    HW225827   0.452   8.417   2.099 -1.1893 -0.1262  0.5853
39656SOL     OW25828   1.815   4.442   2.206 -0.7831  0.3424 -0.5344
39656SOL    HW125829   1.842   4.424   2.116  0.8889 -0.2791  0.0578
39656SOL    HW225830   1.846   4.367   2.256  1.1609  2.0962  1.0608
39657SOL     OW25831   2.485   6.492   8.614 -0.5246  0.2626 -0.3601
39657SOL    HW125832   2.424   6.423   8.639 -2.0992  1.0200 -1.8035
39657SOL    HW225833   2.530   6.516   8.695 -1.2874 -1.1495  0.5241
39658SOL     OW25834   0.223   9.601   8.461  0.3900 -0.0949  0.4648
39658SOL    HW125835   0.166   9.547   8.407  1.2087 -2.7088  1.9723
39658SOL    HW225836   0.164   9.647   8.521 -0.4590  2.2880 -2.0146
39659SOL     OW25837   6.923   9.911   7.592  0.2812 -0.5253  0.1450
39659SOL    HW125838   6.979   9.966   7.537  1.1023 -0.6565  0.8197
39659SOL    HW225839   6.882   9.850   7.531 -1.8473  1.7497 -0.8506
39660SOL     OW25840   7.380   2.981   2.400  0.0470  0.1876  0.2267
39660SOL    HW125841   7.308   2.948   2.454  2.1041 -2.1659  1.7644
39660SOL    HW225842   7.399   3.067   2.436 -0.6956 -0.0133  1.1513
39661SOL     OW25843   3.218   5.755   2.934 -0.0119 -0.2631  0.1617
39661SOL    HW125844   3.284   5.692   2.907 -1.3168 -2.1667  1.1536
39661SOL    HW225845   3.143   5.737   2.877 -0.0980  1.0601 -0.1679
39662SOL     OW25846   0.261  11.314   9.418 -0.3067  0.1302 -0.4428
39662SOL    HW125847   0.301  11.238   9.374 -1.3445 -0.3368 -0.5965
39662SOL    HW225848   0.273  11.296   9.511  1.4214  0.8666 -0.4745
39663SOL     OW25849   1.771  10.720   8.354  0.6886 -0.7195  0.6615
39663SOL    HW125850   1.684  10.692   8.324  0.5727 -0.1325  0.4393
39663SOL    HW225851   1.768  10.816   8.350  1.4101 -0.7020  0.4698
39664SOL     OW25852   5.392  11.998   1.905 -0.1335 -0.0564  0.7570
39664SOL    HW125853   5.319  12.057   1.885  0.6479  0.9158  0.7205
39664SOL    HW225854   5.386  11.984   1.999 -0.3388  0.0494  0.7608
39665SOL     OW25855   9.619   4.313   3.049 -0.3445 -0.2562 -0.5932
39665SOL    HW125856   9.652   4.318   3.138 -1.1656 -1.5686 -0.1763
39665SOL    HW225857   9.525   4.328   3.057 -0.0882  2.2650 -1.6108
39666SOL     OW25858   6.096   7.944   6.796  0.2302  0.4777  0.0767
39666SOL    HW125859   6.158   7.973   6.728  1.8322 -0.2957  1.1480
39666SOL    HW225860   6.024   7.904   6.747  1.9028 -1.1511 -1.1705
39667SOL     OW25861  12.030  11.077  10.095  0.2086 -0.0399 -0.3658
39667SOL    HW125862  11.996  11.167  10.101 -0.7179 -0.2612 -1.8050
39667SOL    HW225863  11.990  11.042  10.015 -0.8557 -2.3297  1.0764
39668SOL     OW25864   7.232   1.350   5.686  0.2023  0.0540 -0.4052
39668SOL    HW125865   7.257   1.438   5.656  0.7814  0.1629  0.3797
39668SOL    HW225866   7.171   1.319   5.619  0.1890  0.9531 -0.8282
39669SOL     OW25867  11.899   4.909  10.918 -0.1708 -0.5007  0.4023
39669SOL    HW125868  11.851   4.844  10.968  1.9990 -1.7270  1.0023
39669SOL    HW225869  11.938   4.967  10.983  1.0346 -0.9241  0.1002
39670SOL     OW25870   0.000   6.611  11.524  0.4701 -0.2927  0.1057
39670SOL    HW125871  -0.045   6.693  11.504  0.3192 -0.2552  0.5806
39670SOL    HW225872  -0.055   6.543  11.484  0.5564 -0.1704 -0.2246
39671SOL     OW25873  12.096   5.082   4.263  0.5688  0.0769  0.0065
39671SOL    HW125874  12.127   5.157   4.213  0.3458  0.2868  0.1852
39671SOL    HW225875  12.144   5.008   4.226  0.3577  0.2185 -0.5662
39672SOL     OW25876   4.354   4.463   2.410 -0.1726 -0.0077  0.2033
39672SOL    HW125877   4.352   4.378   2.454  0.1342 -0.6583 -1.0003
39672SOL    HW225878   4.296   4.518   2.461  2.0292  0.0192  2.9154
39673SOL     OW25879   6.797   0.385   1.086 -0.3294  0.6714 -0.6626
39673SOL    HW125880   6.792   0.391   0.990  2.1536 -0.3955 -0.9211
39673SOL    HW225881   6.867   0.445   1.111  0.5419 -0.6564  0.2255
39674SOL     OW25882  12.221  11.915   3.014 -0.0842 -0.3382  0.6131
39674SOL    HW125883  12.312  11.914   2.983 -0.7015 -2.7927 -1.4374
39674SOL    HW225884  12.228  11.901   3.109  1.7112  2.1976  0.9448
39675SOL     OW25885  11.300  10.389   3.497  0.0633 -0.0290 -0.2749
39675SOL    HW125886  11.323  10.465   3.551 -2.0499 -0.0479  0.7627
39675SOL    HW225887  11.376  10.332   3.501  0.9880  1.2138  0.4364
39676SOL     OW25888   0.491   5.502   3.020  0.3287  0.4195  0.2793
39676SOL    HW125889   0.583   5.482   3.035  0.0369 -0.7938  0.6365
39676SOL    HW225890   0.485   5.522   2.927  1.2721  2.6185  0.6309
39677SOL     OW25891   4.132  11.185  10.712 -0.8150 -0.7190  0.3482
39677SOL    HW125892   4.125  11.280  10.709  1.1857 -0.5329 -0.0509
39677SOL    HW225893   4.102  11.161  10.800  0.6646  0.5365  1.2535
39678SOL     OW25894   2.592   5.668   5.768  0.0050 -0.1206 -0.0708
39678SOL    HW125895   2.640   5.748   5.788  1.3690 -1.0705  0.6033
39678SOL    HW225896   2.562   5.636   5.854  1.6747 -1.6453  0.0002
39679SOL     OW25897  11.661   4.483   4.148  0.2318 -0.1610 -0.3960
39679SOL    HW125898  11.574   4.495   4.111  1.0964 -1.5429 -3.2348
39679SOL    HW225899  11.699   4.571   4.148 -0.2348  0.0695 -1.8211
39680SOL     OW25900   9.847  10.740   2.480  0.4418  0.2401  0.2019
39680SOL    HW125901   9.925  10.730   2.534  0.1662  1.5707  0.9051
39680SOL    HW225902   9.875  10.715   2.392  2.0297  1.8086  0.1958
39681SOL     OW25903   6.933  11.295   3.113 -0.2150  0.1829 -0.5824
39681SOL    HW125904   6.990  11.223   3.140 -1.7124 -1.1694 -0.8694
39681SOL    HW225905   6.849  11.275   3.154 -0.0419  3.2141  1.5345
39682SOL     OW25906   8.358  11.458   2.712  0.3954 -0.2780 -0.1150
39682SOL    HW125907   8.337  11.395   2.781 -0.1837 -1.4922 -1.3498
39682SOL    HW225908   8.454  11.462   2.711  0.4296  0.8364  1.6439
39683SOL     OW25909  11.061   1.269  11.719 -0.9027 -0.1495  0.2876
39683SOL    HW125910  10.998   1.337  11.743  0.6356  0.1380  4.4221
39683SOL    HW225911  11.115   1.309  11.651 -3.1759  0.6901 -1.1420
39684SOL     OW25912   0.187   1.209   1.112 -0.4541  0.7087 -0.5298
39684SOL    HW125913   0.137   1.167   1.042 -0.1647  0.4005 -0.5585
39684SOL    HW225914   0.123   1.261   1.160 -0.9135 -0.0846 -0.2499
39685SOL     OW25915   2.025   9.788   4.775 -0.3954 -0.3208  0.2297
39685SOL    HW125916   2.015   9.811   4.682 -1.0729 -2.1566 -0.1902
39685SOL    HW225917   1.940   9.754   4.801 -0.3034  0.4760  1.6446
39686SOL     OW25918  10.708   1.583   3.592 -0.5816 -0.9264 -0.0486
39686SOL    HW125919  10.783   1.552   3.541 -1.2398 -0.6546 -1.2227
39686SOL    HW225920  10.635   1.526   3.566 -1.4646  0.6152 -1.1389
39687SOL     OW25921   0.402   2.297   3.528  0.0989  0.4243 -0.1267
39687SOL    HW125922   0.434   2.215   3.490  1.2482  0.5593  0.4886
39687SOL    HW225923   0.307   2.286   3.534  0.1231 -0.4099 -1.0927
39688SOL     OW25924  11.460  12.363   9.260  0.1709  0.4462 -0.3879
39688SOL    HW125925  11.398  12.320   9.201  1.0265 -2.1815  0.4607
39688SOL    HW225926  11.496  12.291   9.313  3.4695  1.9102 -0.4054
39689SOL     OW25927   2.724   6.395   4.236 -0.6126 -0.1493  0.2285
39689SOL    HW125928   2.763   6.478   4.265  0.7628  0.0293 -1.9255
39689SOL    HW225929   2.699   6.411   4.145  1.9750 -2.7688 -1.0988
39690SOL     OW25930   8.677  10.414   6.973 -0.3965 -0.1705  0.0626
39690SOL    HW125931   8.728  10.447   6.899 -1.6704 -1.5685 -1.5340
39690SOL    HW225932   8.732  10.430   7.050  0.8273  1.6506 -1.1286
39691SOL     OW25933   9.320   5.050   0.375  0.6524 -0.2037 -0.6364
39691SOL    HW125934   9.318   4.973   0.319 -1.1163 -0.4374 -0.2993
39691SOL    HW225935   9.413   5.072   0.382  1.1386 -1.9398 -1.2158
39692SOL     OW25936   9.222   6.030   4.369 -0.2569  0.1726  0.0864
39692SOL    HW125937   9.194   6.105   4.316 -0.0916  0.9831  1.1162
39692SOL    HW225938   9.160   6.028   4.442  0.2488 -0.1789  0.5135
39693SOL     OW25939  10.285   7.310  11.938  0.0005  0.4109 -0.2024
39693SOL    HW125940  10.276   7.249  12.012 -0.3940  1.3023  0.5048
39693SOL    HW225941  10.203   7.301  11.889 -0.3389  0.8357  0.2733
39694SOL     OW25942   7.932   3.648   1.923 -0.2440  0.2709  0.7915
39694SOL    HW125943   8.015   3.602   1.911  0.5310  1.5387  1.1957
39694SOL    HW225944   7.873   3.607   1.860  0.7095 -0.5651  0.4166
39695SOL     OW25945   9.777   4.567  10.533 -0.3928 -0.1342 -0.4203
39695SOL    HW125946   9.763   4.629  10.462  0.0194 -0.7299 -1.0289
39695SOL    HW225947   9.710   4.500  10.522 -0.7312  0.1010  0.1389
39696SOL     OW25948   3.061  10.588   6.651  0.4406 -0.1072  0.2413
39696SOL    HW125949   3.020  10.548   6.728  0.9897 -1.3956 -0.1022
39696SOL    HW225950   3.150  10.608   6.678 -0.1394  1.9485  0.7416
39697SOL     OW25951  10.539   7.103  10.779  0.4676 -0.3150  0.0120
39697SOL    HW125952  10.513   7.053  10.857 -0.8141  0.5582  0.1915
39697SOL    HW225953  10.509   7.192  10.798 -1.7519 -0.4649 -2.2730
39698SOL     OW25954   7.562   8.902   9.256  0.0261 -0.0194  0.2531
39698SOL    HW125955   7.492   8.966   9.271  1.6510  1.5608  1.4592
39698SOL    HW225956   7.516   8.818   9.247 -2.0192  0.9632  0.9392
39699SOL     OW25957   0.916  10.229   6.947  0.4625 -0.0403 -0.3511
39699SOL    HW125958   0.914  10.198   7.038  3.0110 -2.1801 -0.8838
39699SOL    HW225959   0.825  10.228   6.919 -0.2026 -1.1621  1.6431
39700SOL     OW25960  10.390   8.601   4.330  0.6326 -0.3175 -0.2002
39700SOL    HW125961  10.336   8.665   4.284  0.7230  0.3746  0.6389
39700SOL    HW225962  10.327   8.545   4.375  0.5652  1.2505  1.8107
39701SOL     OW25963  11.252  10.375   4.050  0.3398 -0.1706  0.1033
39701SOL    HW125964  11.249  10.438   3.979  2.1735  1.1042  1.0639
39701SOL    HW225965  11.299  10.300   4.013 -0.2098 -0.2216 -0.5064
39702SOL     OW25966   4.448  11.334   4.154  0.1738 -0.4398  0.1631
39702SOL    HW125967   4.433  11.353   4.061  0.6204 -0.4897  0.0770
39702SOL    HW225968   4.525  11.385   4.177  0.0398 -0.3960  0.5184
39703SOL     OW25969   5.925   2.051   7.320  0.4644  0.0307 -0.0331
39703SOL    HW125970   5.975   2.033   7.240  2.4424  1.8397  0.6962
39703SOL    HW225971   5.848   2.099   7.289  0.7880 -0.0002 -0.9316
39704SOL     OW25972   1.750   3.593  12.241 -0.0865  0.3196  0.0324
39704SOL    HW125973   1.795   3.516  12.207  2.9270  2.5908 -1.5921
39704SOL    HW225974   1.815   3.637  12.296 -1.5013  2.0192  0.4339
39705SOL     OW25975   1.875   3.465  11.871 -0.0217 -0.6942  0.8542
39705SOL    HW125976   1.809   3.531  11.895 -0.4547 -0.7344 -0.1745
39705SOL    HW225977   1.825   3.385  11.858  0.0097 -0.4091 -1.2878
39706SOL     OW25978   3.903   7.717   9.501 -0.0363  0.3070 -0.4002
39706SOL    HW125979   3.992   7.751   9.492 -0.4884  1.1561 -1.9943
39706SOL    HW225980   3.879   7.738   9.591  1.4343 -0.1234  0.1278
39707SOL     OW25981   2.294  10.018   5.989  0.2517  0.1030 -1.3229
39707SOL    HW125982   2.288  10.087   5.923  1.0763  0.2593 -1.2496
39707SOL    HW225983   2.220   9.960   5.971 -1.3667  1.8180 -0.4236
39708SOL     OW25984   0.593   8.454   1.099 -0.6052  0.1442 -0.9725
39708SOL    HW125985   0.615   8.361   1.101 -0.6538  0.1243  1.5353
39708SOL    HW225986   0.504   8.458   1.135 -0.0188  1.2548  0.4722
39709SOL     OW25987   6.564   2.598  10.631 -0.2406 -0.7209  0.0836
39709SOL    HW125988   6.495   2.618  10.694 -0.0934 -0.8352  0.2811
39709SOL    HW225989   6.547   2.657  10.558  0.0968  0.0203  0.5939
39710SOL     OW25990   7.748   9.146   0.300  0.0303 -0.0144  0.2122
39710SOL    HW125991   7.694   9.173   0.375  0.0028 -2.6415  1.2551
39710SOL    HW225992   7.685   9.108   0.238  0.2352  0.7887 -0.5106
39711SOL     OW25993   7.295   1.808  11.292 -0.4175  0.0732 -0.0941
39711SOL    HW125994   7.286   1.877  11.227  2.0876  0.2395 -0.3639
39711SOL    HW225995   7.287   1.852  11.377 -0.8606  0.3418 -0.2774
39712SOL     OW25996   0.494   5.047   9.768 -0.3653 -0.4127  0.1679
39712SOL    HW125997   0.579   5.070   9.805  0.1926 -0.3823 -1.0727
39712SOL    HW225998   0.498   4.953   9.752 -0.5371 -0.3999  0.0346
39713SOL     OW25999   9.391   7.597   8.366  0.8820 -0.3278 -0.2441
39713SOL    HW126000   9.327   7.529   8.389  0.9148 -0.5060 -0.6773
39713SOL    HW226001   9.475   7.559   8.393  0.9369 -0.6002 -0.7925
39714SOL     OW26002   1.699   7.850   0.303 -0.3477 -0.0239 -0.5008
39714SOL    HW126003   1.614   7.894   0.295 -0.5292  0.0847  1.5005
39714SOL    HW226004   1.759   7.920   0.330 -0.5018 -0.7826  2.0468
39715SOL     OW26005   1.959   9.878   0.774  0.3531 -0.5409 -0.3837
39715SOL    HW126006   1.872   9.917   0.784  0.3614 -0.5580 -0.2506
39715SOL    HW226007   1.943   9.785   0.760  0.4187 -0.8521  1.3880
39716SOL     OW26008  12.399   6.136   6.431 -0.0520 -0.3646  0.1054
39716SOL    HW126009  12.494   6.136   6.419  0.1736 -1.5125  1.5731
39716SOL    HW226010  12.371   6.053   6.393 -0.1563 -1.0146  1.5295
39717SOL     OW26011  10.917  11.810   5.122  0.0703  0.4307 -0.1251
39717SOL    HW126012  10.865  11.840   5.047  1.6653 -1.9250 -2.3721
39717SOL    HW226013  10.978  11.883   5.139  0.4356  0.6030 -1.9479
39718SOL     OW26014   6.813   5.230   1.706 -0.3509 -0.4405  0.8016
39718SOL    HW126015   6.797   5.241   1.799 -1.8903 -0.4936  0.5717
39718SOL    HW226016   6.762   5.299   1.664  0.6623 -0.1381 -0.0047
39719SOL     OW26017   1.478   4.986  10.821  0.1129 -0.1751 -0.2867
39719SOL    HW126018   1.427   4.964  10.742  0.4781  0.5242 -0.7267
39719SOL    HW226019   1.467   5.080  10.831  0.1912 -0.2387  0.4271
39720SOL     OW26020   1.127  11.173   3.307  0.1297 -0.0725  0.2892
39720SOL    HW126021   1.077  11.217   3.238  0.1649  2.3950  1.7153
39720SOL    HW226022   1.217  11.174   3.275 -0.1489 -0.9740 -0.5717
39721SOL     OW26023   1.169   6.981   9.973  0.0168 -0.1702  0.1793
39721SOL    HW126024   1.232   6.925   9.927  0.2935  1.3027 -1.3297
39721SOL    HW226025   1.169   6.947  10.063  1.0969 -1.7699 -0.3698
39722SOL     OW26026  10.055   6.250  10.463  0.3208  0.0313 -0.2141
39722SOL    HW126027  10.059   6.170  10.412  1.4750 -0.5858  0.7895
39722SOL    HW226028  10.139   6.294  10.446 -0.0239  0.6916 -0.2356
39723SOL     OW26029  11.456   8.224   8.161 -0.0342  0.0685 -0.1548
39723SOL    HW126030  11.407   8.282   8.219 -1.7406 -0.4292 -1.0285
39723SOL    HW226031  11.525   8.187   8.216 -0.4730  1.0040  1.0531
39724SOL     OW26032   3.322   6.348   3.255  0.4477 -0.2981 -0.6706
39724SOL    HW126033   3.403   6.359   3.303 -1.0692  0.7630  1.8478
39724SOL    HW226034   3.301   6.436   3.223  0.1736 -0.5209 -1.1167
39725SOL     OW26035   7.312   9.567  12.302 -0.1410  0.5925  0.0221
39725SOL    HW126036   7.326   9.530  12.215  0.6845  1.8357 -0.3952
39725SOL    HW226037   7.400   9.577  12.339 -0.5165 -1.1644  1.5820
39726SOL     OW26038   7.064   4.973   5.109  0.1324 -0.5549 -0.7771
39726SOL    HW126039   7.043   4.892   5.062 -0.3616 -1.8963  1.5951
39726SOL    HW226040   7.023   4.962   5.194  0.2804  2.1281 -0.2999
39727SOL     OW26041   0.833   6.523   3.739  0.4816 -0.3947  0.0951
39727SOL    HW126042   0.853   6.559   3.653  1.7254 -0.7994  0.1912
39727SOL    HW226043   0.898   6.454   3.752  0.3579 -0.3014  1.3823
39728SOL     OW26044   6.694  12.414  11.687  0.0483  0.4088 -0.3022
39728SOL    HW126045   6.673  12.365  11.766 -0.6299 -0.9190 -1.2602
39728SOL    HW226046   6.689  12.506  11.713 -1.3785  0.0282  0.8917
39729SOL     OW26047   8.313   7.022  11.956  0.7299 -0.7321  0.0397
39729SOL    HW126048   8.294   7.010  11.863  1.3768  0.8193 -0.3343
39729SOL    HW226049   8.308   7.117  11.969 -0.7852 -1.0174  1.9298
39730SOL     OW26050   6.657   0.057   0.745 -0.4253 -0.0275 -0.0235
39730SOL    HW126051   6.657  -0.038   0.743 -0.5580 -0.0433  0.4303
39730SOL    HW226052   6.614   0.084   0.664 -0.1964 -0.3487 -0.2515
39731SOL     OW26053   5.423  10.333   4.185 -0.7270  0.7051 -0.2487
39731SOL    HW126054   5.365  10.287   4.123 -1.3588  1.4985 -0.2653
39731SOL    HW226055   5.466  10.263   4.233 -0.5251  0.0660 -1.3105
39732SOL     OW26056   4.196   5.161   5.075 -0.2362  0.7012  0.2372
39732SOL    HW126057   4.261   5.098   5.043 -1.2199 -1.1093  1.6548
39732SOL    HW226058   4.233   5.195   5.156 -0.4739  0.6549  0.3656
39733SOL     OW26059   4.252   4.722   5.139  0.7732 -0.0140  0.0547
39733SOL    HW126060   4.292   4.651   5.089  0.8047 -0.6249  0.9133
39733SOL    HW226061   4.161   4.696   5.149  0.3476  0.9628 -1.1715
39734SOL     OW26062   9.427   4.748   6.874 -0.5620  0.2407  0.8088
39734SOL    HW126063   9.400   4.658   6.858 -0.8972  0.3223  0.8857
39734SOL    HW226064   9.423   4.790   6.788 -1.7668  0.5262  0.9837
39735SOL     OW26065   2.363   4.924   5.336 -0.5815 -0.3087  0.4765
39735SOL    HW126066   2.408   4.847   5.299 -1.4189 -1.1340  1.1381
39735SOL    HW226067   2.391   4.996   5.279 -0.3525 -1.2185 -0.6255
39736SOL     OW26068   4.087   7.895  10.591 -0.6026  0.3816 -0.1021
39736SOL    HW126069   4.154   7.892  10.523 -0.0557  0.3534  0.4241
39736SOL    HW226070   4.017   7.950  10.554 -0.9792 -0.8319 -1.2523
39737SOL     OW26071   5.161   8.038   6.639  0.0607  0.1722  0.1685
39737SOL    HW126072   5.204   8.115   6.601  0.7255  0.3167  1.1835
39737SOL    HW226073   5.167   7.971   6.570 -0.6430  1.0464 -0.7774
39738SOL     OW26074   0.518   8.305   6.340 -0.2623 -0.3748 -0.3082
39738SOL    HW126075   0.522   8.283   6.433  1.2069  0.0802 -0.2318
39738SOL    HW226076   0.425   8.301   6.318 -0.4831 -2.4768  0.6954
39739SOL     OW26077   8.590   9.417   4.770  0.0868 -0.3632 -0.0579
39739SOL    HW126078   8.583   9.511   4.754  3.0919 -0.3800 -2.1144
39739SOL    HW226079   8.540   9.377   4.699 -0.0610 -0.3317  0.0281
39740SOL     OW26080  12.306   6.806   4.764  0.5132  0.2748 -0.4826
39740SOL    HW126081  12.306   6.801   4.668  0.1978  1.1191 -0.5440
39740SOL    HW226082  12.397   6.793   4.789  0.6926  0.6083 -0.9405
39741SOL     OW26083   4.697   3.571   0.066  0.2071 -0.2220 -0.4388
39741SOL    HW126084   4.610   3.548   0.035  0.2615 -0.2695 -0.5604
39741SOL    HW226085   4.737   3.487   0.089 -0.1741 -0.1051  0.6957
39742SOL     OW26086   9.160   8.377   6.174 -0.1026  0.3112  0.2497
39742SOL    HW126087   9.205   8.324   6.108 -1.0827  0.5226 -0.6174
39742SOL    HW226088   9.075   8.333   6.186 -0.7630  1.4223 -0.1849
39743SOL     OW26089   5.096   5.180   3.916 -0.4036  0.0199  0.0923
39743SOL    HW126090   5.062   5.100   3.957  1.4236  0.4377  2.7141
39743SOL    HW226091   5.055   5.251   3.964  0.6179  0.5754  0.1719
39744SOL     OW26092   2.593  11.235   7.559  0.0869  0.9912  0.1242
39744SOL    HW126093   2.675  11.226   7.510  0.6908 -0.8966  1.3510
39744SOL    HW226094   2.531  11.178   7.512  0.2548  0.3368  0.6710
39745SOL     OW26095   8.013   5.858   7.064  0.5797  0.0584  0.3294
39745SOL    HW126096   7.949   5.819   7.125  0.1240 -0.9784 -0.7645
39745SOL    HW226097   7.963   5.923   7.015  1.0328  1.1518  1.2636
39746SOL     OW26098   3.901  11.215   0.958  0.4976 -0.1080 -0.2865
39746SOL    HW126099   3.912  11.234   1.052  0.7830 -1.2550 -0.0713
39746SOL    HW226100   3.981  11.170   0.933 -0.0438 -0.7989 -0.8177
39747SOL     OW26101   6.748   5.977  11.674 -0.3447  0.1214  0.1706
39747SOL    HW126102   6.840   5.959  11.657 -0.8603 -0.9095 -1.8474
39747SOL    HW226103   6.708   5.891  11.685 -1.1778  0.5277  0.4742
39748SOL     OW26104   4.960   0.917   4.826  0.2140  0.0716  0.3290
39748SOL    HW126105   5.042   0.874   4.851 -0.0520  0.1309  1.3774
39748SOL    HW226106   4.899   0.845   4.809  0.4220  0.0291 -0.2599
39749SOL     OW26107   4.059   1.129   9.502  0.3456  1.0094 -0.1980
39749SOL    HW126108   3.984   1.157   9.554 -0.4316 -1.3593  0.0671
39749SOL    HW226109   4.135   1.162   9.550 -0.4335  0.6598  1.3241
39750SOL     OW26110   1.296   4.751  10.363  0.6482  0.0741 -0.0485
39750SOL    HW126111   1.251   4.673  10.333  2.5789 -1.1483  0.0702
39750SOL    HW226112   1.311   4.736  10.456  1.4616  0.3450 -0.1289
39751SOL     OW26113  12.141   5.171   2.429  0.2190  0.1918  0.1362
39751SOL    HW126114  12.072   5.230   2.400 -0.7577  0.3773  2.5857
39751SOL    HW226115  12.215   5.229   2.447  0.0366  0.3832  0.2806
39752SOL     OW26116   4.314   3.670   8.491  0.5257  0.4201 -0.1363
39752SOL    HW126117   4.385   3.674   8.427  0.7501  0.6309  0.1200
39752SOL    HW226118   4.310   3.758   8.528 -0.6724  0.7610 -0.9990
39753SOL     OW26119  10.371   1.561  11.679 -0.2585  0.1544  0.2712
39753SOL    HW126120  10.362   1.474  11.716  2.2821 -0.3560 -0.1457
39753SOL    HW226121  10.329   1.619  11.743  0.5843 -1.0912  2.0346
39754SOL     OW26122   1.828   1.767   3.621 -0.1353 -0.2823  0.1255
39754SOL    HW126123   1.757   1.802   3.567 -0.5128 -0.5800  0.4315
39754SOL    HW226124   1.838   1.831   3.692 -0.6043 -0.6168  0.5002
39755SOL     OW26125   7.625   3.761   1.005  0.2150  0.4686  0.1486
39755SOL    HW126126   7.597   3.674   1.034  0.1249 -0.0540 -1.4451
39755SOL    HW226127   7.547   3.801   0.968  0.1900  1.3659  1.1143
39756SOL     OW26128   7.630   6.524  12.075  0.2339  0.6338 -0.6724
39756SOL    HW126129   7.618   6.430  12.083  3.3769  0.3104  3.4633
39756SOL    HW226130   7.705   6.534  12.016  0.3566  0.4877 -0.5408
39757SOL     OW26131   5.819   2.961   5.749  0.8486 -0.2119  0.0394
39757SOL    HW126132   5.900   2.968   5.698  1.5052 -1.6995  0.8157
39757SOL    HW226133   5.834   2.887   5.808 -1.3486 -0.9801 -0.2809
39758SOL     OW26134  11.440  10.299   3.815  0.4250  0.4147  0.2988
39758SOL    HW126135  11.376  10.371   3.820 -1.6753 -1.0257 -2.7228
39758SOL    HW226136  11.511  10.334   3.761  1.6713  1.5788  2.5524
39759SOL     OW26137   6.339   1.439   6.648 -0.0539 -0.5571 -0.7340
39759SOL    HW126138   6.328   1.525   6.690  0.7540 -1.0476  0.5416
39759SOL    HW226139   6.434   1.428   6.640 -0.1702 -0.9551 -1.7333
39760SOL     OW26140   3.791   7.859  12.250  0.0331 -0.3877  0.0824
39760SOL    HW126141   3.803   7.764  12.250  0.2403 -0.3673 -0.3375
39760SOL    HW226142   3.865   7.893  12.300  1.7535 -0.2732 -2.3085
39761SOL     OW26143   4.895   6.279  11.039 -0.0480 -0.4143 -0.0184
39761SOL    HW126144   4.927   6.312  10.955 -0.1158 -2.9413 -1.1065
39761SOL    HW226145   4.930   6.341  11.103  0.3557  1.3617 -1.8294
39762SOL     OW26146  12.480   1.910  11.229 -0.7572 -0.4156  0.2785
39762SOL    HW126147  12.568   1.933  11.200 -1.3765 -0.2298 -1.5669
39762SOL    HW226148  12.491   1.826  11.274  0.1812 -1.0863 -1.1321
39763SOL     OW26149   1.250   6.633   6.292  0.7801  0.2493  0.3077
39763SOL    HW126150   1.184   6.663   6.355 -0.0698 -0.6134 -0.1527
39763SOL    HW226151   1.252   6.538   6.303  0.9871  0.1422 -0.6189
39764SOL     OW26152  11.166  12.197   9.825 -0.2954 -0.3404  0.2784
39764SOL    HW126153  11.107  12.123   9.811 -2.6200  0.7990  3.1802
39764SOL    HW226154  11.138  12.262   9.761 -0.8570 -0.5130  0.3470
39765SOL     OW26155  11.559   3.617  12.037 -0.4622  0.0103 -0.3350
39765SOL    HW126156  11.582   3.538  12.086 -1.3509 -0.9849 -1.4375
39765SOL    HW226157  11.545   3.684  12.103  1.4361 -0.4440  0.5653
39766SOL     OW26158   0.400   4.049   2.845  0.4899  0.1163 -0.0008
39766SOL    HW126159   0.327   4.017   2.897  1.0184 -0.0798  0.6390
39766SOL    HW226160   0.360   4.102   2.776 -0.2634 -0.2168  0.1757
39767SOL     OW26161   5.350   7.640   5.939  0.3373 -0.4376  0.2874
39767SOL    HW126162   5.269   7.589   5.936  1.2853 -1.9581 -2.1733
39767SOL    HW226163   5.352   7.688   5.856  2.4018 -1.2001 -0.1621
39768SOL     OW26164   4.782   7.349   3.233 -0.2312  0.1820  0.1021
39768SOL    HW126165   4.821   7.434   3.253  1.7854 -0.8654  0.9155
39768SOL    HW226166   4.767   7.308   3.318  0.4550 -0.9436 -0.2926
39769SOL     OW26167   7.860   3.012   9.895  0.0710 -0.4123 -0.4069
39769SOL    HW126168   7.784   3.070   9.901 -0.0737 -0.7151  3.8277
39769SOL    HW226169   7.932   3.070   9.870 -0.6716  0.9948  0.5305
39770SOL     OW26170   3.467   8.966   4.547 -0.2825  0.1204  0.3501
39770SOL    HW126171   3.475   8.988   4.454 -1.0537 -0.0880  0.2304
39770SOL    HW226172   3.390   8.910   4.552 -0.9878  1.1424  1.2830
39771SOL     OW26173   0.234   6.367  11.395 -0.4193  0.2004  0.1317
39771SOL    HW126174   0.224   6.280  11.436 -0.2740 -0.6702 -1.5906
39771SOL    HW226175   0.159   6.375  11.337 -1.4775  2.0923  1.6638
39772SOL     OW26176   0.142   2.815   5.089  0.5629  0.3861  0.2629
39772SOL    HW126177   0.180   2.751   5.149 -0.8193 -0.7535 -0.0132
39772SOL    HW226178   0.153   2.776   5.002 -0.3540  0.4660  0.0992
39773SOL     OW26179   5.117  11.636   4.242 -0.4592  0.3133  0.5469
39773SOL    HW126180   5.115  11.726   4.275  0.2064  0.7139 -0.4659
39773SOL    HW226181   5.180  11.591   4.298 -0.9551  0.3989  1.1984
39774SOL     OW26182   9.439   0.147  10.936 -0.8796 -0.2231 -0.0542
39774SOL    HW126183   9.487   0.227  10.915 -0.3006 -0.0814  1.6748
39774SOL    HW226184   9.410   0.114  10.851 -0.8619  1.6420 -0.8356
39775SOL     OW26185   7.069  12.048   5.675 -0.1670  0.3959  0.1623
39775SOL    HW126186   6.984  12.038   5.719  0.1003  0.5873  0.7342
39775SOL    HW226187   7.075  11.973   5.616 -0.3907 -0.0486  0.6973
39776SOL     OW26188   5.307   7.539   4.598 -0.5890  0.2742  0.3133
39776SOL    HW126189   5.279   7.624   4.633  0.1817  0.4873  0.4373
39776SOL    HW226190   5.298   7.479   4.671  1.5488  0.8285  1.1145
39777SOL     OW26191   4.558   2.684   9.413  0.1015  0.4016  0.8763
39777SOL    HW126192   4.599   2.606   9.375 -1.0983  0.5967 -0.9151
39777SOL    HW226193   4.627   2.725   9.465  1.2173 -0.9811  0.5270
39778SOL     OW26194   4.141   0.666   3.559 -0.4814  0.2740  0.4750
39778SOL    HW126195   4.097   0.584   3.537 -0.5451  0.4521 -0.0701
39778SOL    HW226196   4.160   0.659   3.653 -0.8512 -0.1893  0.5160
39779SOL     OW26197   1.380   6.203   6.996 -0.0010  0.1835  0.2686
39779SOL    HW126198   1.412   6.147   6.926  0.3846  1.2891 -0.4564
39779SOL    HW226199   1.284   6.196   6.991  0.0171  0.3925 -0.4890
39780SOL     OW26200   9.810   0.769   1.101 -0.2520 -0.6377  0.2396
39780SOL    HW126201   9.804   0.795   1.009  0.2220 -0.1808  0.3273
39780SOL    HW226202   9.799   0.674   1.101  0.7167 -0.7633 -0.4012
39781SOL     OW26203   8.062   3.248   2.783  0.4973  0.1972  0.5787
39781SOL    HW126204   7.981   3.209   2.750  0.8103  0.1524 -0.1365
39781SOL    HW226205   8.130   3.185   2.759  0.9505  0.9833 -0.2220
39782SOL     OW26206   0.829   3.476   5.539  0.6936 -0.6077 -0.8488
39782SOL    HW126207   0.796   3.421   5.610  0.5108 -2.2881 -2.1596
39782SOL    HW226208   0.880   3.545   5.583 -0.9357 -0.4939  0.9723
39783SOL     OW26209   7.776   8.494   4.342 -0.7311  0.4852  0.3472
39783SOL    HW126210   7.781   8.452   4.427  0.0501 -0.5247 -0.1780
39783SOL    HW226211   7.682   8.497   4.321 -0.8123 -0.9325  0.4363
39784SOL     OW26212   8.015  12.079   8.854 -0.3662 -0.1290 -0.4552
39784SOL    HW126213   7.947  12.092   8.788  0.0060 -1.4350 -1.1382
39784SOL    HW226214   7.984  12.125   8.931 -0.6947  1.6922 -1.6097
39785SOL     OW26215   7.953   8.185   5.860 -0.4807 -0.5987 -0.2750
39785SOL    HW126216   7.952   8.194   5.955  1.0230  1.2618 -0.3768
39785SOL    HW226217   8.012   8.111   5.843  0.2016 -0.1668  0.2066
39786SOL     OW26218  10.669   0.618   1.332 -0.1557 -0.0152 -0.3670
39786SOL    HW126219  10.601   0.674   1.370  0.5433  1.2769 -0.9382
39786SOL    HW226220  10.727   0.679   1.286  2.5256 -0.7919  1.7312
39787SOL     OW26221  12.163   7.561   1.298 -0.1737  0.2018 -0.5937
39787SOL    HW126222  12.091   7.598   1.248 -0.3530  2.6942  1.2931
39787SOL    HW226223  12.230   7.540   1.233 -1.5426  0.3995 -2.1167
39788SOL     OW26224   4.661  10.588   4.218 -0.5016 -0.2009  0.0335
39788SOL    HW126225   4.677  10.666   4.165  1.7381 -0.9629 -0.5297
39788SOL    HW226226   4.718  10.600   4.295 -1.9535 -0.2004  1.1508
39789SOL     OW26227   9.164   4.608   6.434  0.8580  0.2731  0.0966
39789SOL    HW126228   9.125   4.637   6.517 -1.6641  2.8390 -1.7523
39789SOL    HW226229   9.250   4.650   6.432  1.6477 -1.1270  2.0107
39790SOL     OW26230   4.013   4.919   7.541  0.0366  0.1561  0.1501
39790SOL    HW126231   3.973   4.898   7.625  0.6406  0.5611  0.5418
39790SOL    HW226232   3.939   4.934   7.482 -0.4161 -1.5744  0.2199
39791SOL     OW26233   0.296   1.944   0.422  0.0050 -0.0020  0.6154
39791SOL    HW126234   0.293   1.951   0.327 -1.2753 -1.8343  0.4789
39791SOL    HW226235   0.217   1.990   0.452  0.6814  1.0385  0.8598
39792SOL     OW26236   2.926   0.904   8.624  0.2659 -0.3711 -0.0951
39792SOL    HW126237   2.887   0.884   8.539 -1.7065 -0.9778  0.8774
39792SOL    HW226238   3.018   0.920   8.605 -0.2170  0.1007 -2.4167
39793SOL     OW26239  10.428   3.226  10.438 -0.6514 -0.6131  0.6328
39793SOL    HW126240  10.469   3.245  10.354  0.8145 -0.5188  1.3366
39793SOL    HW226241  10.367   3.156  10.420  0.0323 -0.9538 -0.4243
39794SOL     OW26242   6.978   9.705   8.532 -0.2006  0.1637 -0.2421
39794SOL    HW126243   6.900   9.653   8.511 -0.3453 -0.4134  1.5747
39794SOL    HW226244   6.980   9.773   8.465 -2.2866  0.1952 -0.3279
39795SOL     OW26245  11.125  12.141   4.326  0.2432  0.2850 -0.1914
39795SOL    HW126246  11.116  12.069   4.263  2.4324 -0.0359 -0.2344
39795SOL    HW226247  11.205  12.119   4.375 -1.4888  0.3674  2.9210
39796SOL     OW26248   2.340   4.899   6.193  0.5295  0.3881  0.4906
39796SOL    HW126249   2.415   4.953   6.170  2.0495 -1.5919  0.4472
39796SOL    HW226250   2.379   4.817   6.224 -1.6206 -0.3890  1.3405
39797SOL     OW26251   9.984   7.663   9.363  0.7888 -0.6345  0.3435
39797SOL    HW126252   9.949   7.685   9.277 -1.0818 -1.9507  0.6833
39797SOL    HW226253  10.017   7.745   9.398  1.4214 -0.0400 -1.5366
39798SOL     OW26254   4.558  12.425   9.336  0.1456 -0.4696 -0.3844
39798SOL    HW126255   4.620  12.449   9.267  0.6384  1.9392  0.8033
39798SOL    HW226256   4.489  12.377   9.290  0.8534  0.3414 -2.4090
39799SOL     OW26257   0.175   8.595   3.937 -0.2250 -0.0307 -0.0803
39799SOL    HW126258   0.267   8.593   3.914 -0.8764  2.3294 -3.6458
39799SOL    HW226259   0.136   8.524   3.886 -0.8850  1.7999 -2.3243
39800SOL     OW26260   3.141  12.441  10.169  0.3509 -0.6778  0.4029
39800SOL    HW126261   3.056  12.485  10.167  0.8407  0.2937 -1.4093
39800SOL    HW226262   3.202  12.507  10.202  0.9419 -0.2025 -1.5251
39801SOL     OW26263   2.330   7.842  10.878  0.4319  0.2874 -0.0830
39801SOL    HW126264   2.421   7.817  10.893  0.8538  0.7553 -1.6411
39801SOL    HW226265   2.288   7.761  10.847  0.0632 -0.1519  1.4512
39802SOL     OW26266   8.345   0.033   1.426 -0.4330 -0.0368  0.3819
39802SOL    HW126267   8.340  -0.024   1.350  4.0396 -0.6300  0.3036
39802SOL    HW226268   8.380  -0.022   1.496  0.9316  1.7694  1.2138
39803SOL     OW26269   0.300   7.450   1.770  0.8303  0.4861  0.0524
39803SOL    HW126270   0.350   7.375   1.803 -0.6690 -0.8600 -0.5777
39803SOL    HW226271   0.249   7.479   1.846  0.2034 -0.1887 -0.0997
39804SOL     OW26272  11.120   1.244   6.118  0.0521 -0.4407 -0.6190
39804SOL    HW126273  11.045   1.188   6.096 -0.9637  0.9990 -1.0047
39804SOL    HW226274  11.196   1.197   6.085 -0.6225 -2.1211  0.1011
39805SOL     OW26275   9.329   6.729   2.432  0.6225  0.6354  0.0883
39805SOL    HW126276   9.358   6.641   2.409 -0.8077  0.1160  0.1776
39805SOL    HW226277   9.286   6.720   2.516 -2.7231  0.6602 -1.4631
39806SOL     OW26278   4.948  10.760   0.034  0.5803  0.0913 -0.0339
39806SOL    HW126279   4.949  10.805  -0.050  1.9865  1.0588  0.4721
39806SOL    HW226280   4.995  10.678   0.018 -1.2961 -0.8869 -0.7610
39807SOL     OW26281   4.780   9.649   7.328 -0.4661 -0.6452 -0.0584
39807SOL    HW126282   4.764   9.568   7.279 -1.0249  0.2428 -1.4359
39807SOL    HW226283   4.781   9.717   7.260  2.5004  0.2428  0.7098
39808SOL     OW26284   3.193   2.727   8.847  0.0011 -0.3054 -0.7664
39808SOL    HW126285   3.246   2.651   8.822 -0.5853 -0.8445 -0.4111
39808SOL    HW226286   3.116   2.689   8.890 -0.9550  0.4281 -1.7799
39809SOL     OW26287  11.152   1.614   4.048  0.1534  0.3197 -0.4486
39809SOL    HW126288  11.070   1.579   4.013  1.1842 -0.6578 -1.9694
39809SOL    HW226289  11.135   1.708   4.057 -0.6898  0.3757 -2.1418
39810SOL     OW26290   0.553   5.536   2.755  0.0673  0.5811  0.2076
39810SOL    HW126291   0.484   5.588   2.715 -0.2008 -0.2257 -0.4038
39810SOL    HW226292   0.635   5.575   2.723 -0.1205  0.9043  0.1219
39811SOL     OW26293   9.528   4.289   4.550 -0.5417  0.3138  0.1034
39811SOL    HW126294   9.552   4.371   4.505 -1.3716  1.2161  1.2423
39811SOL    HW226295   9.580   4.222   4.507  0.3547  1.4856 -0.7003
39812SOL     OW26296  11.440   5.936   1.118 -0.1849  0.6517  0.0767
39812SOL    HW126297  11.463   5.932   1.025  1.2104 -1.9688  0.4520
39812SOL    HW226298  11.524   5.948   1.162 -0.6387  0.1443  1.0901
39813SOL     OW26299   4.141   7.236  11.113 -0.1466 -0.0809  0.7755
39813SOL    HW126300   4.166   7.152  11.073 -2.5472  0.2322 -1.5919
39813SOL    HW226301   4.185   7.302  11.060 -0.2095  0.2323  1.1111
39814SOL     OW26302   2.861  10.637   1.374  0.0969  1.1435  0.0367
39814SOL    HW126303   2.870  10.635   1.279  2.0477  1.4616  0.1706
39814SOL    HW226304   2.818  10.721   1.392  0.2142  1.3276 -0.5262
39815SOL     OW26305  11.398  11.426  11.818 -0.4763 -0.0811  0.0961
39815SOL    HW126306  11.448  11.467  11.747 -1.7124  0.9362 -0.2354
39815SOL    HW226307  11.404  11.332  11.800 -1.3830  0.1786 -1.8266
39816SOL     OW26308   2.726   9.679   5.886 -0.5367 -0.4420  0.1877
39816SOL    HW126309   2.812   9.656   5.851  1.3177  3.4280  1.6510
39816SOL    HW226310   2.725   9.642   5.974  0.2846  0.6636  0.6816
39817SOL     OW26311   0.631   5.275   0.719 -0.3768  0.5351  0.4006
39817SOL    HW126312   0.576   5.344   0.681 -1.0619 -1.3822 -2.3748
39817SOL    HW226313   0.591   5.193   0.691  2.0030 -1.0128  1.1494
39818SOL     OW26314   7.862   6.941   3.253  0.3042  0.0103  0.2393
39818SOL    HW126315   7.872   6.962   3.160  0.5301  1.3431  0.5342
39818SOL    HW226316   7.769   6.954   3.271  0.2272 -0.4254  0.1652
39819SOL     OW26317  11.444   5.954   0.193  0.1912  0.4102 -0.5605
39819SOL    HW126318  11.487   6.028   0.151 -2.5785  2.5934  0.1630
39819SOL    HW226319  11.384   5.920   0.126 -0.7213  0.7720  0.0632
39820SOL     OW26320   6.329   5.517   7.856  0.0423 -0.1837  0.4640
39820SOL    HW126321   6.278   5.598   7.849  0.6759  0.3697  1.9180
39820SOL    HW226322   6.420   5.548   7.859  0.3769 -1.0502 -0.3959
39821SOL     OW26323   2.652   4.557   8.513 -0.2628 -0.5917  0.1687
39821SOL    HW126324   2.664   4.488   8.578 -1.1749  1.4131  2.6017
39821SOL    HW226325   2.569   4.599   8.537  0.6906  1.9387 -0.6091
39822SOL     OW26326  11.952  11.055   4.141 -0.0131 -0.0420 -0.2594
39822SOL    HW126327  11.912  11.088   4.221 -1.5038 -0.9203 -0.6106
39822SOL    HW226328  11.899  11.091   4.071  0.6763 -0.0954 -0.8233
39823SOL     OW26329   2.057  10.300  11.026  0.5736  0.3074 -0.2314
39823SOL    HW126330   1.971  10.326  11.059  0.8927 -2.4764  3.3498
39823SOL    HW226331   2.112  10.377  11.040 -0.7479  1.3166 -0.3165
39824SOL     OW26332  10.905   1.178  10.984  0.1898  0.3092  0.1325
39824SOL    HW126333  10.830   1.135  10.943 -0.3455  0.4780  0.9070
39824SOL    HW226334  10.901   1.149  11.075  0.8934  0.5636  0.2473
39825SOL     OW26335  10.228   7.608   3.657 -0.3602  0.0218  0.1202
39825SOL    HW126336  10.180   7.691   3.657 -2.3929 -1.0651 -0.9536
39825SOL    HW226337  10.190   7.559   3.585  1.5642 -1.4518  0.0244
39826SOL     OW26338   4.554   2.374   2.711  0.5298 -0.5755  0.4165
39826SOL    HW126339   4.505   2.434   2.655  1.1195 -0.0223  0.4811
39826SOL    HW226340   4.548   2.289   2.666 -0.7928 -0.6105  0.6179
39827SOL     OW26341   8.211   1.148   6.463  0.1237  0.0189 -0.2730
39827SOL    HW126342   8.166   1.123   6.543 -0.4423 -0.6398 -0.7869
39827SOL    HW226343   8.265   1.072   6.441  0.9138  0.5056 -0.0822
39828SOL     OW26344   3.814  10.749   9.853  0.0528 -0.0224  0.3727
39828SOL    HW126345   3.832  10.660   9.883  0.1205 -0.0597  0.2268
39828SOL    HW226346   3.750  10.783   9.915 -0.5849 -0.4552 -0.0318
39829SOL     OW26347   0.806   0.162   5.970  0.5198 -0.1606  0.1006
39829SOL    HW126348   0.822   0.088   6.029  0.6868 -0.0403  0.2061
39829SOL    HW226349   0.892   0.199   5.953  0.7593 -1.5698 -2.0494
39830SOL     OW26350  12.126   9.517   1.522 -0.5335  0.1546  0.3481
39830SOL    HW126351  12.058   9.583   1.512 -0.7635 -0.1518 -0.1268
39830SOL    HW226352  12.208   9.564   1.503 -0.6228  0.4880  0.7839
39831SOL     OW26353   8.160   3.408  12.376 -0.0717  0.1743 -0.5014
39831SOL    HW126354   8.217   3.370  12.444 -1.9968 -0.0150  1.1040
39831SOL    HW226355   8.147   3.498  12.404  0.3951  0.5782 -1.5421
39832SOL     OW26356  11.498   3.326  12.387 -0.0781  0.0665 -0.1845
39832SOL    HW126357  11.533   3.249  12.431 -0.3911  0.2689  0.4249
39832SOL    HW226358  11.435   3.363  12.449  0.9514  1.5129  0.0524
39833SOL     OW26359   3.416   6.778   0.911  0.0609  0.4365 -0.1119
39833SOL    HW126360   3.482   6.846   0.896 -0.8431  1.0722 -1.4231
39833SOL    HW226361   3.333   6.819   0.887 -0.8213 -0.3869  1.3838
39834SOL     OW26362   4.440   0.749  11.645 -0.5976  0.1072 -0.2178
39834SOL    HW126363   4.410   0.788  11.563 -0.5847  0.9369  0.1662
39834SOL    HW226364   4.475   0.664  11.619 -0.6453  0.3371 -1.0704
39835SOL     OW26365  10.220   4.742   9.379  0.5232 -0.0018  0.3325
39835SOL    HW126366  10.247   4.812   9.438 -0.2426 -0.7504  1.6183
39835SOL    HW226367  10.260   4.765   9.295 -0.6602  2.5830  0.4024
39836SOL     OW26368  12.045   4.448   0.421  0.5502 -0.4000 -0.2237
39836SOL    HW126369  11.963   4.442   0.470  0.0527 -0.0694 -0.9985
39836SOL    HW226370  12.027   4.512   0.352  1.4164 -0.4391 -0.4968
39837SOL     OW26371   7.388   2.090  10.813 -0.8006  0.2438 -0.4956
39837SOL    HW126372   7.345   2.106  10.897 -0.2994 -0.7698 -0.0314
39837SOL    HW226373   7.467   2.144  10.815 -0.2381 -0.5752  0.1480
39838SOL     OW26374   3.768   3.207   8.040 -0.3761 -0.2747 -0.3470
39838SOL    HW126375   3.815   3.291   8.041 -0.4361 -0.2464  0.3371
39838SOL    HW226376   3.805   3.158   8.114 -0.3098 -0.8723 -0.7711
39839SOL     OW26377   3.897   6.313  11.634  0.0315 -0.2092  0.1609
39839SOL    HW126378   3.947   6.245  11.589  0.3012  0.6007 -0.8060
39839SOL    HW226379   3.948   6.393  11.620 -0.6933  0.3372  0.5863
39840SOL     OW26380   9.591   8.937   5.500 -0.4508 -0.9204 -0.0962
39840SOL    HW126381   9.680   8.971   5.497 -0.2877 -1.3592 -0.2085
39840SOL    HW226382   9.585   8.877   5.426 -1.3689  0.3875 -1.1053
39841SOL     OW26383   0.135  10.966   0.738  0.3313  0.0871  0.0684
39841SOL    HW126384   0.175  11.046   0.705  0.3253 -0.2180 -0.6979
39841SOL    HW226385   0.203  10.899   0.728 -0.1705 -0.3144 -0.7116
39842SOL     OW26386   0.636   8.354   3.235  0.2998 -0.4758  0.3276
39842SOL    HW126387   0.610   8.385   3.322  0.2997 -2.8897  1.2642
39842SOL    HW226388   0.565   8.384   3.178 -0.7528 -0.5610  1.5257
39843SOL     OW26389   7.741   8.212   8.447  0.6370  0.3804  0.1158
39843SOL    HW126390   7.702   8.126   8.461 -1.0965  1.0218 -0.4974
39843SOL    HW226391   7.809   8.198   8.381 -0.2659 -0.3814 -0.6747
39844SOL     OW26392   9.171   2.541   2.821 -0.1650  0.2888 -0.3230
39844SOL    HW126393   9.080   2.517   2.806  0.2416 -0.5242 -1.6768
39844SOL    HW226394   9.217   2.457   2.826  0.5490  0.6959  0.1006
39845SOL     OW26395   9.067  12.169   0.837 -0.0262  0.9341 -0.0546
39845SOL    HW126396   9.115  12.183   0.755 -0.2227  2.0839  0.0155
39845SOL    HW226397   9.027  12.082   0.826  0.2626  0.9079 -1.0245
39846SOL     OW26398  10.146   6.638   1.631  0.5107 -0.5481 -0.1324
39846SOL    HW126399  10.237   6.614   1.648  0.2565 -1.2541  0.2805
39846SOL    HW226400  10.152   6.721   1.584  1.3660 -0.5715 -0.0923
39847SOL     OW26401   8.573   1.976   5.323 -0.2437  0.2711  0.5432
39847SOL    HW126402   8.666   1.973   5.303 -0.3991 -0.0445 -0.1699
39847SOL    HW226403   8.549   2.068   5.309 -0.1985  0.1969 -0.0536
39848SOL     OW26404   0.694   1.248   9.319  0.1177  0.0596 -0.2204
39848SOL    HW126405   0.716   1.314   9.385  1.3813 -0.8649  0.3317
39848SOL    HW226406   0.750   1.173   9.340 -1.5866 -1.3926 -0.5237
39849SOL     OW26407   3.172  11.646   7.398 -0.0613  0.4297 -0.3369
39849SOL    HW126408   3.118  11.703   7.452 -0.8812  0.8826 -1.5972
39849SOL    HW226409   3.261  11.682   7.407 -0.3931  1.2643 -0.3044
39850SOL     OW26410   5.431   8.974   9.294  0.1479 -0.3907  0.4859
39850SOL    HW126411   5.353   8.936   9.334  0.5911 -0.7940  0.9751
39850SOL    HW226412   5.450   9.051   9.348 -0.4940  0.3063 -0.2445
39851SOL     OW26413  11.419  10.799  10.815 -0.1100  0.3220 -0.1317
39851SOL    HW126414  11.328  10.775  10.832 -0.7983  2.8418  0.2512
39851SOL    HW226415  11.453  10.824  10.901  1.5105 -2.1211  0.0115
39852SOL     OW26416   3.803   6.907   9.855 -0.2276 -0.2063  0.4135
39852SOL    HW126417   3.785   6.982   9.911  0.1776 -0.6938  1.2125
39852SOL    HW226418   3.719   6.886   9.815 -0.6567 -0.2495  1.3320
39853SOL     OW26419   4.868  11.836  10.599 -0.3625 -0.0553 -0.2993
39853SOL    HW126420   4.828  11.803  10.518 -0.1905  0.0370 -0.4218
39853SOL    HW226421   4.808  11.904  10.628 -1.7361 -1.7211  0.9741
39854SOL     OW26422   9.305   8.453   2.059 -0.4267 -0.1921  0.3468
39854SOL    HW126423   9.393   8.490   2.047 -0.4983  0.4883  1.7212
39854SOL    HW226424   9.293   8.395   1.984  1.3436 -0.5827  0.3238
39855SOL     OW26425   2.217   9.605   1.327 -0.2801  0.0606  0.1895
39855SOL    HW126426   2.297   9.557   1.343  0.7246  1.3633 -0.6932
39855SOL    HW226427   2.188   9.634   1.413  1.7699  1.9456  0.3209
39856SOL     OW26428   3.880   5.580  10.127 -0.6224 -0.1350 -0.5265
39856SOL    HW126429   3.813   5.616  10.069 -0.5564  1.8503  0.5648
39856SOL    HW226430   3.841   5.582  10.214  0.1270 -0.8883 -0.1581
39857SOL     OW26431   6.385   3.081  12.479  0.2692 -0.2429 -0.3385
39857SOL    HW126432   6.314   3.024  12.450  0.3991 -0.4945 -0.1668
39857SOL    HW226433   6.430   3.031  12.547  0.2916  0.1269 -0.0759
39858SOL     OW26434   8.630   8.025   7.856 -0.2720 -0.7847  0.1885
39858SOL    HW126435   8.564   7.956   7.868  0.0749 -1.1512  0.0069
39858SOL    HW226436   8.591   8.085   7.793 -0.5279 -0.8768  0.2577
39859SOL     OW26437   4.319   4.208  12.289  0.4077 -0.4231  0.0459
39859SOL    HW126438   4.305   4.242  12.378  1.2113  0.3848 -0.1196
39859SOL    HW226439   4.410   4.179  12.289  0.3298 -0.6736 -0.4370
39860SOL     OW26440   3.185   8.949   0.447 -0.3985 -0.4175 -0.6790
39860SOL    HW126441   3.198   8.945   0.541  0.4854 -2.3707 -0.8337
39860SOL    HW226442   3.183   9.043   0.427  0.3691  0.0300  1.1539
39861SOL     OW26443   5.594  11.538   3.440 -0.0523 -0.7548 -0.0180
39861SOL    HW126444   5.606  11.534   3.535 -0.3713 -1.1233  0.0064
39861SOL    HW226445   5.675  11.502   3.404 -1.4960 -4.5939  0.1615
39862SOL     OW26446   2.382   9.896   2.121 -0.2746 -0.1446 -0.4770
39862SOL    HW126447   2.341   9.913   2.206  0.0147 -0.0272 -0.3612
39862SOL    HW226448   2.327   9.941   2.058  0.5161  1.3027 -0.1751
39863SOL     OW26449   2.058   2.509  12.395 -0.0670  0.0605 -0.0759
39863SOL    HW126450   2.102   2.484  12.314  0.2970  1.0785 -0.2089
39863SOL    HW226451   2.072   2.435  12.454 -0.4330 -0.7366 -0.9688
39864SOL     OW26452   5.265   9.843   9.641  0.3075 -0.0067  0.5204
39864SOL    HW126453   5.294   9.785   9.571 -1.0616 -0.3559  0.2055
39864SOL    HW226454   5.345   9.881   9.676  1.0279  0.1678 -1.2235
39865SOL     OW26455  11.689  10.161   4.086 -0.4611 -0.6993 -0.7607
39865SOL    HW126456  11.730  10.188   4.168  0.2787  1.6100 -1.8319
39865SOL    HW226457  11.600  10.138   4.111 -0.1635 -0.3295  0.7381
39866SOL     OW26458   2.382   8.425   6.301 -0.4102  0.1546  0.1763
39866SOL    HW126459   2.341   8.507   6.327  0.5053  0.3427  1.1129
39866SOL    HW226460   2.399   8.379   6.383 -0.6620 -0.8514 -0.3198
39867SOL     OW26461   4.749   3.153   0.850 -0.5004 -0.6544 -0.2725
39867SOL    HW126462   4.799   3.200   0.783 -0.5757 -1.3414 -0.8236
39867SOL    HW226463   4.752   3.210   0.926  0.0843 -0.1226 -0.6802
39868SOL     OW26464   0.184   8.038   8.883 -0.1995  0.5376  0.2210
39868SOL    HW126465   0.231   8.095   8.823 -0.2366 -1.4882 -1.8720
39868SOL    HW226466   0.110   8.091   8.913  1.1437  2.4081  0.4285
39869SOL     OW26467   1.470   3.189   0.077  0.4211  0.2815 -0.2927
39869SOL    HW126468   1.543   3.168   0.136  0.2593  0.4402 -0.0363
39869SOL    HW226469   1.512   3.234   0.003  0.6475 -0.0871 -0.3907
39870SOL     OW26470   1.613  10.148   4.643  0.0779 -0.5797 -0.3522
39870SOL    HW126471   1.586  10.145   4.551 -1.3008 -0.3740  0.0293
39870SOL    HW226472   1.705  10.175   4.640 -0.0503 -0.2275 -1.6459
39871SOL     OW26473   6.921  10.712   0.508 -0.3814  0.2229  0.0483
39871SOL    HW126474   6.953  10.736   0.421 -1.1052  0.0643 -0.2783
39871SOL    HW226475   6.885  10.624   0.496  0.3302 -0.1611  0.7251
39872SOL     OW26476   5.797   5.370   7.461  0.0139 -0.2837  0.0636
39872SOL    HW126477   5.767   5.287   7.498 -0.0754 -1.2702 -2.0680
39872SOL    HW226478   5.892   5.370   7.474 -0.1178 -0.1743  1.0744
39873SOL     OW26479   9.516  12.027  11.044  0.2277 -0.0499 -0.0088
39873SOL    HW126480   9.476  11.984  11.120  0.8351 -0.2605  0.1977
39873SOL    HW226481   9.609  12.030  11.064  0.2772  0.7626 -0.3251
39874SOL     OW26482   9.291   6.465  11.300 -0.7670  0.7865  0.2805
39874SOL    HW126483   9.368   6.434  11.347 -0.3782  0.2339 -0.6884
39874SOL    HW226484   9.240   6.385  11.283  0.0055  0.6801 -1.8159
39875SOL     OW26485   7.862   9.477   0.405  0.1597 -0.0064 -0.5875
39875SOL    HW126486   7.925   9.405   0.407 -0.3568 -0.5270 -1.9131
39875SOL    HW226487   7.804   9.456   0.331  0.5973  2.2502 -1.6579
39876SOL     OW26488   3.965   2.024   9.503  0.1354  0.0794 -0.3566
39876SOL    HW126489   4.059   2.011   9.511  0.0840 -0.1285 -0.0275
39876SOL    HW226490   3.927   1.940   9.531 -0.1670  0.3947  0.1927
39877SOL     OW26491   0.143   9.942   7.567 -0.2769  0.2120  0.3074
39877SOL    HW126492   0.181   9.958   7.480  0.3987 -0.3143  0.4984
39877SOL    HW226493   0.053   9.975   7.560 -0.2718  0.0505 -0.6320
39878SOL     OW26494   0.097   4.371   7.722  0.0247  0.2053  0.1065
39878SOL    HW126495   0.055   4.419   7.651 -0.5480  1.5253  1.3033
39878SOL    HW226496   0.156   4.434   7.763  1.2650 -0.8864  0.0769
39879SOL     OW26497   6.479   3.352   4.331 -0.1144  0.3298  0.1846
39879SOL    HW126498   6.550   3.316   4.278  0.1490  0.7986  0.2157
39879SOL    HW226499   6.431   3.275   4.362  0.4447  0.0065  0.2602
39880SOL     OW26500   1.438   3.136   9.824 -0.2457 -0.2994  0.1374
39880SOL    HW126501   1.392   3.055   9.843 -1.4212  0.2976 -0.1141
39880SOL    HW226502   1.508   3.110   9.764 -0.6607 -1.1029 -0.0122
39881SOL     OW26503   5.290   3.449   4.779 -0.3144  0.2967 -0.3688
39881SOL    HW126504   5.210   3.403   4.755 -2.5927  2.9489  1.5283
39881SOL    HW226505   5.280   3.470   4.872  2.2784  1.3224 -0.2302
39882SOL     OW26506   5.195   1.650   5.514  0.1225  0.0011 -0.4034
39882SOL    HW126507   5.155   1.575   5.472 -1.7250  1.7019 -1.9023
39882SOL    HW226508   5.274   1.616   5.556 -0.2768 -2.5874 -1.6095
39883SOL     OW26509   3.303   7.350  10.106  0.0211 -0.5828  0.0575
39883SOL    HW126510   3.299   7.257  10.080 -0.3683 -0.3393 -0.7851
39883SOL    HW226511   3.389   7.380  10.075 -0.0156 -0.5588 -0.0198
39884SOL     OW26512   9.553   1.554   1.643  0.2991  0.0877  0.0648
39884SOL    HW126513   9.499   1.627   1.674 -0.2219 -0.5923  0.8113
39884SOL    HW226514   9.490   1.486   1.619  0.8040 -0.7706  1.0811
39885SOL     OW26515   9.085   0.926   7.026  0.1747 -0.0447  0.0655
39885SOL    HW126516   9.171   0.886   7.015 -1.3922 -3.6550 -0.7276
39885SOL    HW226517   9.083   0.952   7.118  1.4607 -1.8251  0.6717
39886SOL     OW26518   7.229   9.238  10.692 -0.1601 -0.0689 -0.5101
39886SOL    HW126519   7.313   9.273  10.663  0.4866 -0.5315  0.7245
39886SOL    HW226520   7.170   9.253  10.619  0.2015  3.1116 -0.2749
39887SOL     OW26521   9.005  11.018   4.096  0.2955 -0.2361 -0.4290
39887SOL    HW126522   9.034  11.096   4.144 -0.1161 -0.1893 -0.2540
39887SOL    HW226523   8.990  11.049   4.007 -0.6068  0.0560 -0.1813
39888SOL     OW26524   7.619   4.919   3.825  0.5576 -0.0656  0.8704
39888SOL    HW126525   7.526   4.937   3.812  0.2606  0.1046  2.8675
39888SOL    HW226526   7.623   4.827   3.849  1.2709 -0.8646 -1.9627
39889SOL     OW26527   5.592   5.739  10.395  0.0703 -0.1338 -0.2001
39889SOL    HW126528   5.577   5.652  10.359 -0.4609  0.4014 -1.3007
39889SOL    HW226529   5.661   5.776  10.340  1.2469 -0.3208  1.0767
39890SOL     OW26530  12.302   2.642   0.736 -0.3428 -0.3175 -0.1553
39890SOL    HW126531  12.282   2.557   0.695  2.1038 -0.4630 -1.2133
39890SOL    HW226532  12.284   2.706   0.666  1.1370 -0.3120 -0.5562
39891SOL     OW26533   2.725   1.237  11.249  0.8867 -0.6334 -0.3399
39891SOL    HW126534   2.697   1.217  11.160  1.7272 -1.0074 -0.5316
39891SOL    HW226535   2.665   1.305  11.279  1.1455  0.1330 -1.5152
39892SOL     OW26536   8.054   5.664   0.981 -0.4543 -0.5093 -0.0796
39892SOL    HW126537   8.036   5.594   0.918 -0.3141 -0.1715 -0.5043
39892SOL    HW226538   8.058   5.620   1.066  0.7965 -1.2037 -0.4729
39893SOL     OW26539   3.716   5.972  11.379 -0.1574  0.0509 -0.8929
39893SOL    HW126540   3.721   5.883  11.345 -0.1270  0.6192 -2.4663
39893SOL    HW226541   3.623   5.986  11.397 -0.1109 -0.4177 -0.2362
39894SOL     OW26542   1.703   0.618   9.996  0.2981 -0.2425 -0.2843
39894SOL    HW126543   1.683   0.711   9.996  2.3417  0.2547 -0.2599
39894SOL    HW226544   1.695   0.592  10.088  0.7463  0.1800 -0.1197
39895SOL     OW26545   5.740  11.796   0.355  0.2511 -0.2730 -0.6508
39895SOL    HW126546   5.790  11.725   0.394 -0.0068 -0.1778 -0.1322
39895SOL    HW226547   5.698  11.757   0.278  2.2586  0.0166 -1.9561
39896SOL     OW26548  11.854  11.791   6.826 -0.0538  0.5062 -0.6421
39896SOL    HW126549  11.779  11.757   6.875  1.4031 -0.3491  1.1104
39896SOL    HW226550  11.830  11.881   6.804 -2.1336 -0.1689 -1.3736
39897SOL     OW26551   4.511   9.835   7.280  0.7638  0.5615  0.2209
39897SOL    HW126552   4.468   9.749   7.277 -1.0946  1.4594 -0.5571
39897SOL    HW226553   4.572   9.833   7.207  1.1655 -0.2887  0.5600
39898SOL     OW26554   4.122   4.782   2.116  0.1654  0.2508 -0.0754
39898SOL    HW126555   4.059   4.751   2.051 -3.4270  1.9900  2.2556
39898SOL    HW226556   4.145   4.704   2.166 -2.3796 -0.0717  0.7025
39899SOL     OW26557   1.101   3.306   5.992 -0.7336  0.1549  0.2101
39899SOL    HW126558   1.060   3.368   6.052  0.6009  0.7823  0.5229
39899SOL    HW226559   1.176   3.272   6.041 -0.8328 -0.9163 -0.3508
39900SOL     OW26560   5.740   2.509   6.943 -0.1991  0.8374  0.4960
39900SOL    HW126561   5.758   2.480   6.854  4.8527  2.9949  0.4514
39900SOL    HW226562   5.689   2.589   6.933 -0.3416  0.6291 -0.4349
39901SOL     OW26563   2.474  12.341   1.439  0.4992  0.0034  0.2154
39901SOL    HW126564   2.530  12.308   1.510 -0.2124 -1.1186  0.2839
39901SOL    HW226565   2.472  12.270   1.375  1.2496  1.0658 -1.0249
39902SOL     OW26566   1.255   4.391   5.916  0.0773  0.7553 -0.8265
39902SOL    HW126567   1.341   4.373   5.877  0.5539  2.0297 -0.4396
39902SOL    HW226568   1.275   4.422   6.004 -0.8192  0.5446 -0.5408
39903SOL     OW26569   8.315  11.735   1.070 -0.6296  0.1304 -0.5090
39903SOL    HW126570   8.379  11.799   1.037  2.7910 -1.7492  1.9138
39903SOL    HW226571   8.339  11.653   1.027 -1.8502 -0.5484  0.0524
39904SOL     OW26572   4.092   6.806   1.011 -0.4590 -0.0209  0.2059
39904SOL    HW126573   4.050   6.769   1.089  0.4398  0.4081  0.9114
39904SOL    HW226574   4.023   6.857   0.968 -0.7172  0.5275  1.2397
39905SOL     OW26575   9.136   3.093   0.333 -0.3936  0.4824 -0.6402
39905SOL    HW126576   9.192   3.105   0.410 -1.3930  1.8365 -0.0772
39905SOL    HW226577   9.054   3.058   0.368 -0.1760 -0.7969 -1.3627
39906SOL     OW26578   0.517  11.198  10.563 -0.3131  0.5352 -0.1268
39906SOL    HW126579   0.474  11.222  10.481 -0.0328  1.1079 -0.1130
39906SOL    HW226580   0.581  11.131  10.539  0.0088  0.9492 -0.4377
39907SOL     OW26581   9.423  11.944   9.310 -0.1173 -0.4388  0.0108
39907SOL    HW126582   9.359  12.016   9.314 -0.5366 -0.7903 -0.3306
39907SOL    HW226583   9.502  11.980   9.351  0.0293  0.5832 -1.1144
39908SOL     OW26584   9.775   5.539  11.848  0.2370  0.1682  0.1577
39908SOL    HW126585   9.721   5.526  11.770  0.4976  0.8280 -0.1319
39908SOL    HW226586   9.863   5.512  11.821  0.3251  0.3855  0.2259
39909SOL     OW26587  10.426  10.253   9.764  0.3323  0.4392  0.1522
39909SOL    HW126588  10.450  10.206   9.843 -0.7777 -1.9035 -0.7940
39909SOL    HW226589  10.331  10.264   9.771  0.2884  0.6166 -0.6319
39910SOL     OW26590   4.447   5.626   2.992 -0.2033 -0.7583  0.4109
39910SOL    HW126591   4.369   5.659   2.947 -0.2637  0.0052  1.0575
39910SOL    HW226592   4.508   5.699   2.991  0.9881 -1.7158 -1.1308
39911SOL     OW26593  10.990   1.960   0.973  0.3066  0.3434 -0.2242
39911SOL    HW126594  11.044   2.004   0.907  0.8687 -0.9108 -0.6360
39911SOL    HW226595  10.930   1.905   0.922  0.5320 -0.3888  0.2820
39912SOL     OW26596   5.674  11.540   7.308  0.1138  0.0921 -0.4993
39912SOL    HW126597   5.676  11.573   7.218 -0.9712 -1.5525 -1.1543
39912SOL    HW226598   5.671  11.445   7.299 -0.6412 -0.0807  1.2657
39913SOL     OW26599   0.924   1.178   2.173 -0.6426 -0.4011 -0.3345
39913SOL    HW126600   0.881   1.198   2.090 -0.0727 -0.1988 -0.5903
39913SOL    HW226601   0.877   1.102   2.207 -1.3445 -0.0396 -0.4896
39914SOL     OW26602   3.777   5.361   2.148 -0.8745  0.3843  0.3145
39914SOL    HW126603   3.691   5.402   2.147 -1.5245 -0.9385 -0.2503
39914SOL    HW226604   3.765   5.278   2.101  0.2725 -0.6529  1.7581
39915SOL     OW26605   2.177   9.235   9.355  0.2935 -0.4783 -0.2795
39915SOL    HW126606   2.083   9.244   9.373  0.4983 -0.3457  0.7808
39915SOL    HW226607   2.219   9.299   9.414  0.9608  0.6349 -1.8944
39916SOL     OW26608  11.483   7.497   7.620 -0.1137  0.4235  0.3172
39916SOL    HW126609  11.403   7.550   7.625 -1.2680 -1.2716  0.7644
39916SOL    HW226610  11.458   7.413   7.658  1.3192 -0.8344 -1.3750
39917SOL     OW26611   2.240  11.468   6.796 -0.0563 -0.3995  0.0842
39917SOL    HW126612   2.270  11.544   6.847 -2.1532  2.0887 -2.1095
39917SOL    HW226613   2.319  11.415   6.784  0.6873 -1.0110  5.3343
39918SOL     OW26614   9.747  12.227   9.994  0.7515  0.1853 -0.2400
39918SOL    HW126615   9.697  12.153  10.029 -0.4374  1.4900  0.9187
39918SOL    HW226616   9.746  12.214   9.899 -2.2304  0.3869 -0.3274
39919SOL     OW26617   5.628   1.376   8.463 -0.4079 -0.1451  0.2969
39919SOL    HW126618   5.685   1.304   8.494 -0.6676 -1.0295 -1.1889
39919SOL    HW226619   5.657   1.392   8.373 -0.9304  1.0491  0.3272
39920SOL     OW26620   5.363   5.904   2.089 -0.1629 -0.4791 -0.0100
39920SOL    HW126621   5.455   5.926   2.077 -0.0345 -0.6489  0.6180
39920SOL    HW226622   5.341   5.848   2.014  0.4466 -1.0409  0.2187
39921SOL     OW26623   4.851   0.302   7.884  0.6527  0.2403 -0.6955
39921SOL    HW126624   4.821   0.299   7.975 -0.7888  0.9266 -1.1083
39921SOL    HW226625   4.839   0.213   7.852 -0.4094  0.3450 -0.6502
39922SOL     OW26626   8.342   3.059   6.804 -0.1217 -0.2542 -0.0686
39922SOL    HW126627   8.253   3.057   6.840  0.1564 -3.0193  0.6667
39922SOL    HW226628   8.397   3.088   6.877 -0.0224 -2.1511  0.6569
39923SOL     OW26629   5.329   2.422   6.979  0.1912  0.8793  0.1265
39923SOL    HW126630   5.333   2.469   6.896 -1.4654  0.7882 -0.0336
39923SOL    HW226631   5.366   2.483   7.043 -0.4614  1.7780 -0.3383
39924SOL     OW26632  11.432   9.700   8.169 -0.1478  0.6301  0.0584
39924SOL    HW126633  11.518   9.699   8.128 -1.5173  0.3837 -3.0377
39924SOL    HW226634  11.444   9.651   8.251  2.6319  0.6851 -0.2244
39925SOL     OW26635   6.709   2.939   0.057  0.3805  0.5626 -0.7280
39925SOL    HW126636   6.718   3.009   0.121 -1.4076  0.8647 -0.7286
39925SOL    HW226637   6.639   2.883   0.092  0.5752 -0.2428 -1.5734
39926SOL     OW26638   7.992   5.750   0.251  0.7554 -0.7139  0.4675
39926SOL    HW126639   7.950   5.794   0.325 -0.9394 -1.3144 -0.0855
39926SOL    HW226640   8.086   5.760   0.267  0.4231  0.3114  1.9947
39927SOL     OW26641   3.944   4.671   1.947  0.0298  0.0907 -0.3899
39927SOL    HW126642   3.926   4.646   1.856  0.1981  0.4253 -0.5162
39927SOL    HW226643   3.870   4.635   1.997  0.1537 -0.4541 -0.6015
39928SOL     OW26644   9.464   4.586   9.251  0.0514 -0.7365  0.1292
39928SOL    HW126645   9.396   4.646   9.220  0.9996  1.2606  1.6496
39928SOL    HW226646   9.425   4.499   9.242 -1.6994  0.1305 -1.4241
39929SOL     OW26647   6.548  11.105   0.957  0.0626  0.5615 -0.0852
39929SOL    HW126648   6.540  11.125   0.864 -0.9904  0.2230 -0.0839
39929SOL    HW226649   6.574  11.187   0.997  0.2669  0.7761 -0.6463
39930SOL     OW26650   6.861   3.942   5.024  0.3973  0.4918  0.1752
39930SOL    HW126651   6.887   3.899   4.942  0.3468  1.5254 -0.3952
39930SOL    HW226652   6.943   3.953   5.072  0.3604 -0.6267  0.5421
39931SOL     OW26653   9.578   0.734  11.538 -0.1359 -0.0195 -0.0439
39931SOL    HW126654   9.508   0.707  11.597 -0.5594 -1.0292 -0.9819
39931SOL    HW226655   9.536   0.743  11.452  0.8111 -0.3008 -0.5553
39932SOL     OW26656   8.431   5.223   3.728 -0.7614  0.3131  0.3082
39932SOL    HW126657   8.339   5.200   3.721 -0.9037 -0.8043  3.9231
39932SOL    HW226658   8.476   5.138   3.734  0.6942  0.8032 -2.1648
39933SOL     OW26659   1.358   1.068  10.532 -0.5458 -0.0010  0.1690
39933SOL    HW126660   1.314   1.016  10.600  0.7289  0.8715  1.7485
39933SOL    HW226661   1.448   1.077  10.565 -0.3352  1.8754 -0.8179
39934SOL     OW26662   3.728   9.710   0.349  0.1335 -0.1177 -0.0837
39934SOL    HW126663   3.645   9.680   0.312 -0.3786 -0.5395  1.3373
39934SOL    HW226664   3.723   9.685   0.441  2.0278 -0.5470 -0.0636
39935SOL     OW26665   1.481   4.947  12.463 -0.1219  0.2708 -0.2686
39935SOL    HW126666   1.403   4.999  12.480  0.6595  2.0976 -1.9676
39935SOL    HW226667   1.458   4.892  12.388 -0.6367 -1.2770  0.9539
39936SOL     OW26668   4.317   2.337   0.010 -0.3505  0.1250  0.0087
39936SOL    HW126669   4.383   2.338  -0.058 -0.4474 -0.2941 -0.0950
39936SOL    HW226670   4.249   2.278  -0.023  0.8373 -2.3429  1.6053
39937SOL     OW26671   9.786   0.274   2.477  0.3523 -0.5875 -0.4373
39937SOL    HW126672   9.825   0.187   2.471  0.2092 -0.6066 -1.1971
39937SOL    HW226673   9.702   0.259   2.521  0.0157 -0.9454 -1.1849
39938SOL     OW26674  12.391   8.450   3.932 -0.2449  0.2160  0.3830
39938SOL    HW126675  12.387   8.364   3.891 -1.5130  1.5230 -2.5312
39938SOL    HW226676  12.315   8.453   3.989 -0.2485 -0.5639  0.4278
39939SOL     OW26677   6.385   4.165  10.065 -0.1029  0.4219 -0.1207
39939SOL    HW126678   6.417   4.213  10.141  3.7188 -0.7493 -0.7635
39939SOL    HW226679   6.436   4.083  10.066 -1.6230 -0.6559 -2.6562
39940SOL     OW26680   8.603   8.453   1.675  0.7806  0.3816 -0.3646
39940SOL    HW126681   8.570   8.485   1.591  0.1239 -0.7821 -0.5715
39940SOL    HW226682   8.582   8.359   1.675  0.6544  0.3833  1.1442
39941SOL     OW26683  10.293   9.078   2.191 -0.2806  0.6054  0.0220
39941SOL    HW126684  10.307   9.110   2.102  1.4091 -0.8760 -0.3159
39941SOL    HW226685  10.364   9.117   2.242 -0.5914  0.5838  0.4722
39942SOL     OW26686   4.093  10.348  10.559  0.2129  0.6438 -0.2789
39942SOL    HW126687   4.135  10.321  10.640 -1.1301  0.6065  0.4294
39942SOL    HW226688   4.119  10.280  10.496  1.9722  1.1418 -0.1440
39943SOL     OW26689  10.278   6.982   0.048 -0.3765  0.5959  0.0984
39943SOL    HW126690  10.308   6.976  -0.043  0.9123 -2.1456  0.6093
39943SOL    HW226691  10.350   7.023   0.094 -1.4858  3.0675 -0.2161
39944SOL     OW26692  10.865   5.780   6.825 -0.2980 -0.7353 -0.2816
39944SOL    HW126693  10.789   5.745   6.779 -0.2167 -0.1471 -0.8840
39944SOL    HW226694  10.829   5.846   6.884 -0.4002 -1.4749  0.4900
39945SOL     OW26695  10.624   5.110   7.741 -0.2233 -0.1679 -0.2117
39945SOL    HW126696  10.560   5.069   7.683 -1.1555 -1.0046  1.3306
39945SOL    HW226697  10.619   5.058   7.822  1.5469  0.4954  0.3675
39946SOL     OW26698   8.370   8.241   9.488  0.1233 -0.1774  0.1734
39946SOL    HW126699   8.320   8.272   9.413  0.1956  0.2977  0.3174
39946SOL    HW226700   8.313   8.258   9.563 -0.4711 -1.7721  0.1256
39947SOL     OW26701  12.289   8.892   8.355  0.4188  0.1087  0.0563
39947SOL    HW126702  12.260   8.817   8.406 -0.4706 -0.1535 -0.8041
39947SOL    HW226703  12.380   8.905   8.381  0.1089 -0.2445  1.4135
39948SOL     OW26704   0.751   9.861   0.258 -0.4490 -0.1836  0.5132
39948SOL    HW126705   0.710   9.827   0.338  1.3005 -0.3877  1.3785
39948SOL    HW226706   0.748   9.788   0.197 -0.7153 -0.4233  0.8056
39949SOL     OW26707   6.266  11.327   5.982  0.3409  0.2469  0.1988
39949SOL    HW126708   6.304  11.290   5.903 -1.6824 -0.3762 -0.5586
39949SOL    HW226709   6.211  11.399   5.951  1.1995  1.4155  1.2771
39950SOL     OW26710  11.432  11.038   7.621 -0.6957 -0.4290  0.2897
39950SOL    HW126711  11.521  11.047   7.655 -0.1038 -3.7611 -0.0306
39950SOL    HW226712  11.394  10.967   7.673 -1.9392 -1.3971 -1.8186
39951SOL     OW26713  11.406   9.097   6.965  0.0434  0.0600  0.5982
39951SOL    HW126714  11.489   9.051   6.979 -0.2967 -1.0824 -0.8570
39951SOL    HW226715  11.427   9.189   6.982  1.5302 -0.2472  0.6079
39952SOL     OW26716   6.062   9.615   3.327 -0.3230  0.9154 -0.4185
39952SOL    HW126717   6.026   9.673   3.394 -0.1479  0.6352 -0.0765
39952SOL    HW226718   6.156   9.614   3.345 -0.1498  1.5663 -1.2441
39953SOL     OW26719   9.582   8.655  12.164  0.0063  0.1760  0.2812
39953SOL    HW126720   9.616   8.730  12.116  1.2070 -1.0338 -0.8294
39953SOL    HW226721   9.511   8.691  12.217 -2.1903  1.4183 -3.2016
39954SOL     OW26722   6.355  12.424   6.477  0.1141  0.0230  0.4066
39954SOL    HW126723   6.260  12.436   6.476  0.1633  0.4985  0.9618
39954SOL    HW226724   6.371  12.356   6.542  0.3330  1.8977  2.4512
39955SOL     OW26725   8.869   9.045   9.341  0.0100  0.0618  0.3954
39955SOL    HW126726   8.920   9.037   9.260  0.3200  0.9450  0.4957
39955SOL    HW226727   8.800   8.978   9.332  0.4798 -0.3481 -0.2633
39956SOL     OW26728   3.127   5.836  11.057  0.0720  0.4747  0.0707
39956SOL    HW126729   3.054   5.892  11.033  0.3795  0.0756 -1.9365
39956SOL    HW226730   3.188   5.894  11.102  0.4145  1.8269 -1.9938
39957SOL     OW26731  11.810   6.481  10.558 -0.1433 -0.5167  0.4783
39957SOL    HW126732  11.887   6.532  10.535 -0.1473 -1.1089 -0.9990
39957SOL    HW226733  11.823   6.457  10.650  0.9451  0.2167  0.5331
39958SOL     OW26734   2.588   7.441   3.548 -0.0586 -0.3407 -0.1943
39958SOL    HW126735   2.511   7.442   3.491 -0.1296  0.8072 -0.0918
39958SOL    HW226736   2.555   7.469   3.633  0.7703  1.8898 -0.5655
39959SOL     OW26737   8.715   2.694   1.037  0.5059  0.2143 -0.1073
39959SOL    HW126738   8.721   2.603   1.008 -0.9793  0.6951 -2.1831
39959SOL    HW226739   8.753   2.745   0.965  1.2956  1.2643  1.0069
39960SOL     OW26740   1.037  10.961  11.423 -0.1302  0.2128 -0.0049
39960SOL    HW126741   1.081  10.971  11.339 -0.7657 -0.8873 -0.4900
39960SOL    HW226742   0.951  10.999  11.410 -0.9390 -1.6614 -0.4921
39961SOL     OW26743  11.155   6.866   9.386  0.0805 -0.1167 -0.0222
39961SOL    HW126744  11.141   6.955   9.355  1.6980  0.4704  0.8240
39961SOL    HW226745  11.120   6.810   9.316  2.0310  1.1488 -2.1222
39962SOL     OW26746   7.175   9.195   5.929 -0.4147  0.5775 -0.3165
39962SOL    HW126747   7.155   9.161   5.842 -0.8189  0.6156 -0.2370
39962SOL    HW226748   7.178   9.117   5.985  0.4435  0.4832 -0.4699
39963SOL     OW26749   9.938   6.428  10.961  0.1403  0.3161 -0.3377
39963SOL    HW126750   9.944   6.385  10.875  0.2485  0.6431 -0.4957
39963SOL    HW226751  10.000   6.379  11.016 -0.3227 -0.2354 -0.2952
39964SOL     OW26752   8.766   9.132   0.725  0.3197  0.1781 -0.6983
39964SOL    HW126753   8.682   9.111   0.684  0.3155 -1.2765 -0.0008
39964SOL    HW226754   8.819   9.054   0.712  1.5982  1.1009 -1.1640
39965SOL     OW26755   6.525   4.847   3.642  0.2413  0.2902  0.2105
39965SOL    HW126756   6.431   4.845   3.659  0.2320  0.5110  0.1917
39965SOL    HW226757   6.534   4.909   3.569  0.5615  1.4701  1.2300
39966SOL     OW26758   3.653   8.511   7.869  0.2755  0.0061 -0.5405
39966SOL    HW126759   3.674   8.542   7.957  0.3301 -0.1045 -0.5138
39966SOL    HW226760   3.738   8.502   7.826  0.3620 -1.3271 -0.1317
39967SOL     OW26761   0.933  12.169  11.753  0.2779 -0.1710  0.0428
39967SOL    HW126762   0.848  12.142  11.718 -0.2298  3.3272 -1.8928
39967SOL    HW226763   0.918  12.179  11.847 -2.1713  2.2233 -0.4649
39968SOL     OW26764   9.702   4.121  10.691 -0.2824  0.0633  0.6347
39968SOL    HW126765   9.785   4.092  10.652 -0.6436 -0.7903  0.4766
39968SOL    HW226766   9.727   4.156  10.777  0.5729  2.2681 -0.4297
39969SOL     OW26767   1.361   4.363   3.667 -0.0363  0.1940  0.5238
39969SOL    HW126768   1.302   4.291   3.642  0.2376 -0.1673  0.9091
39969SOL    HW226769   1.417   4.375   3.590 -0.8725  0.8114  0.0010
39970SOL     OW26770   7.553   7.293  10.949  0.2106  0.2699 -0.1875
39970SOL    HW126771   7.649   7.290  10.949  0.2156 -0.1108 -1.5457
39970SOL    HW226772   7.527   7.230  10.882 -1.1255 -2.8860  2.9111
39971SOL     OW26773  10.321   2.999   8.189  0.2142 -0.6818 -0.2828
39971SOL    HW126774  10.415   3.005   8.206  0.2517  0.0344 -0.7100
39971SOL    HW226775  10.281   2.992   8.276  0.5608  0.5434 -0.0023
39972SOL     OW26776   8.965   4.000   1.728  0.2413  0.5569  0.0561
39972SOL    HW126777   8.894   3.963   1.779 -0.0497 -0.0582 -0.7677
39972SOL    HW226778   9.026   4.036   1.793 -0.3000  0.1382  0.8040
39973SOL     OW26779   5.609   1.553  11.027 -0.4198 -0.1955 -0.1874
39973SOL    HW126780   5.522   1.573  11.064  0.3536 -0.3995  1.8917
39973SOL    HW226781   5.647   1.638  11.007 -0.3270  0.0306  0.8682
39974SOL     OW26782   8.181   9.426  10.184 -0.0951 -0.1016 -0.4125
39974SOL    HW126783   8.142   9.446  10.099 -0.4833  2.0043  0.1959
39974SOL    HW226784   8.270   9.461  10.179  0.6028 -1.8000 -0.6094
39975SOL     OW26785   7.877  11.176   2.991 -0.6671 -0.5805 -0.0756
39975SOL    HW126786   7.863  11.240   3.060  0.4189 -1.1272  0.6645
39975SOL    HW226787   7.925  11.224   2.923 -1.5647 -0.0983 -0.3836
39976SOL     OW26788   6.725   3.254   8.312 -0.2830 -0.4259 -0.6642
39976SOL    HW126789   6.738   3.348   8.299  0.1888 -0.4841 -0.6268
39976SOL    HW226790   6.792   3.213   8.258 -2.2641 -0.8261 -2.9718
39977SOL     OW26791   9.615   7.190   4.594 -0.7291  0.4365  0.5664
39977SOL    HW126792   9.590   7.272   4.551 -1.0840  0.7653  1.3729
39977SOL    HW226793   9.549   7.179   4.663 -0.5655 -0.4266  0.5903
39978SOL     OW26794   8.959  10.550   1.340 -0.0658 -1.3567  0.3800
39978SOL    HW126795   8.888  10.493   1.369  1.6364 -2.5810  2.5200
39978SOL    HW226796   8.995  10.507   1.263 -1.4836 -0.8051 -0.6282
39979SOL     OW26797   6.824   3.639   7.301 -0.2340 -0.4707 -0.3139
39979SOL    HW126798   6.862   3.717   7.262  0.1054 -0.8200 -0.6950
39979SOL    HW226799   6.757   3.672   7.361 -0.2402  0.1007 -0.6287
39980SOL     OW26800  10.874  11.125   3.789 -0.5256 -0.4278  0.1974
39980SOL    HW126801  10.808  11.178   3.745 -0.5047 -0.3009  0.3205
39980SOL    HW226802  10.881  11.162   3.877 -1.4041 -1.4140  0.6950
39981SOL     OW26803   4.033   7.634   8.145 -0.1899 -0.1193 -0.1105
39981SOL    HW126804   3.989   7.710   8.183  0.8309  0.1842  0.5017
39981SOL    HW226805   4.074   7.667   8.065  0.6213  0.0868  0.3845
39982SOL     OW26806  10.158  10.654   0.739  0.0357  0.2450 -0.0004
39982SOL    HW126807  10.147  10.600   0.817  0.6463 -1.5820 -1.1200
39982SOL    HW226808  10.183  10.740   0.773 -1.4711  0.0210  1.8661
39983SOL     OW26809   7.829   9.032   3.967  0.0561  0.2630 -0.0974
39983SOL    HW126810   7.761   9.027   3.900  1.1465 -0.7983 -1.1850
39983SOL    HW226811   7.852   9.125   3.969 -0.2051  0.3637 -1.0024
39984SOL     OW26812   7.510   0.328  11.102 -0.0624 -0.4157  0.0169
39984SOL    HW126813   7.444   0.372  11.155  0.7230  0.7647  0.0458
39984SOL    HW226814   7.517   0.241  11.141 -0.7984 -0.1765  0.7094
39985SOL     OW26815   7.974   5.739   2.139 -0.1826  0.1763 -0.4573
39985SOL    HW126816   7.977   5.810   2.204 -0.1191  0.2248 -0.5139
39985SOL    HW226817   8.030   5.671   2.177 -0.1320  0.2111 -0.4682
39986SOL     OW26818  10.301   3.557   1.450  0.1636  0.1482  0.2724
39986SOL    HW126819  10.276   3.505   1.526  1.1031 -1.3953 -0.4125
39986SOL    HW226820  10.236   3.534   1.383  0.9013 -0.6230 -0.2050
39987SOL     OW26821   1.206  10.299   6.108 -0.5069  0.1588  0.2973
39987SOL    HW126822   1.118  10.313   6.143 -0.4175  5.4328 -0.8207
39987SOL    HW226823   1.264  10.329   6.177  0.2867 -0.3178 -0.1547
39988SOL     OW26824   9.159  11.522   7.403  0.6474 -0.1437  0.2955
39988SOL    HW126825   9.125  11.547   7.490  0.3352 -0.3511  0.2319
39988SOL    HW226826   9.112  11.579   7.342  1.2430  0.3729  0.2960
39989SOL     OW26827  11.437   2.073  10.961  0.6377 -0.4524 -0.0650
39989SOL    HW126828  11.355   2.025  10.954  0.7945 -0.9302  1.1395
39989SOL    HW226829  11.462   2.090  10.870 -0.1479 -1.3960 -0.4859
39990SOL     OW26830   9.655   0.671   4.881  0.2084 -0.0975  0.7881
39990SOL    HW126831   9.720   0.658   4.950  0.8199 -0.2215  0.2010
39990SOL    HW226832   9.594   0.734   4.918  0.5255 -0.1666  1.4466
39991SOL     OW26833  10.563   0.243   7.088 -0.1165 -0.0815  0.0712
39991SOL    HW126834  10.639   0.242   7.145 -0.4952  0.4009  0.5873
39991SOL    HW226835  10.525   0.330   7.099 -0.6213 -0.2409 -0.3489
39992SOL     OW26836   0.458   8.683   2.589 -0.1653  0.0073 -0.5275
39992SOL    HW126837   0.465   8.740   2.512 -0.5885  1.1798  0.2702
39992SOL    HW226838   0.393   8.617   2.564  1.3811 -1.0392 -1.9875
39993SOL     OW26839   1.106   5.335   4.692 -1.0218 -0.0377 -0.8285
39993SOL    HW126840   1.108   5.254   4.744 -0.0029 -0.5250 -1.6009
39993SOL    HW226841   1.197   5.349   4.667 -1.2339  1.2073 -0.9473
39994SOL     OW26842  10.071   7.017   6.585  0.0543 -0.3445  0.0733
39994SOL    HW126843  10.134   7.064   6.641  1.5900  1.8058 -3.1529
39994SOL    HW226844   9.987   7.030   6.629  1.1073  1.3895  1.7774
39995SOL     OW26845  12.399   0.478   9.709 -0.4660  0.3158 -0.1920
39995SOL    HW126846  12.425   0.398   9.663 -0.0841 -0.5124  1.4033
39995SOL    HW226847  12.305   0.487   9.689  0.0477  1.0051 -2.5607
39996SOL     OW26848   4.322   4.969   8.741  0.5721  0.2476  0.2224
39996SOL    HW126849   4.248   4.910   8.730  2.1965 -1.9793  0.6139
39996SOL    HW226850   4.395   4.912   8.764  2.5050  2.3131 -0.4520
39997SOL     OW26851  11.024   0.598   8.519  0.1380 -0.2581 -0.1265
39997SOL    HW126852  11.039   0.663   8.451 -1.7944  0.9414  0.5177
39997SOL    HW226853  10.972   0.529   8.477 -2.1159  1.0629  0.3227
39998SOL     OW26854  10.868   3.447   0.604  0.1967 -0.1189  0.3196
39998SOL    HW126855  10.924   3.389   0.655  0.3694  0.4595  0.8027
39998SOL    HW226856  10.818   3.389   0.547  1.0790 -0.6653  0.0850
39999SOL     OW26857  12.453  10.969  10.885 -0.0745 -0.2317  0.1390
39999SOL    HW126858  12.511  11.045  10.881 -1.0366  0.5921  1.0993
39999SOL    HW226859  12.407  10.969  10.801  0.1467  0.0734  0.0178
40000SOL     OW26860   4.439   9.674   9.034  0.1288 -0.0252 -0.1656
40000SOL    HW126861   4.360   9.717   9.000 -0.6283 -1.1346  0.1423
40000SOL    HW226862   4.420   9.580   9.025  2.0173 -0.3362 -1.4883
40001SOL     OW26863   1.892   8.098   2.001 -0.1325  0.0778 -0.1399
40001SOL    HW126864   1.922   8.142   2.081 -0.8241  1.1090 -0.4255
40001SOL    HW226865   1.862   8.012   2.030  0.7666 -0.0316  0.5166
40002SOL     OW26866   3.718  10.141   5.527 -0.0570 -0.0210  0.1277
40002SOL    HW126867   3.770  10.121   5.605 -2.0898  3.6749  2.7371
40002SOL    HW226868   3.631  10.106   5.547 -0.6966  1.2985 -0.2400
40003SOL     OW26869   5.405   7.466  10.870 -0.3371  0.8880 -0.1598
40003SOL    HW126870   5.339   7.450  10.937  2.0453 -1.1430  1.8915
40003SOL    HW226871   5.428   7.558  10.880 -0.6609  0.8331  1.2457
40004SOL     OW26872  11.648   7.467   2.569  0.3489 -0.0959  0.5516
40004SOL    HW126873  11.711   7.427   2.509 -0.5657 -0.4307 -0.2102
40004SOL    HW226874  11.587   7.397   2.590  0.6626  0.0042  1.9241
40005SOL     OW26875   0.743   1.563   2.315  0.2958 -0.1304  0.0865
40005SOL    HW126876   0.757   1.620   2.239  1.3263 -0.5014 -0.0254
40005SOL    HW226877   0.752   1.620   2.391  0.1424  0.0749 -0.0484
40006SOL     OW26878   8.474   2.218   7.124 -0.4114 -0.4038  0.3357
40006SOL    HW126879   8.548   2.256   7.076 -0.9016 -2.5974 -2.4084
40006SOL    HW226880   8.514   2.162   7.190  0.4759 -1.8579 -1.3536
40007SOL     OW26881   7.255   2.754   0.695  0.0451  0.2308  0.2367
40007SOL    HW126882   7.294   2.718   0.615 -0.8111 -0.1855 -0.0100
40007SOL    HW226883   7.330   2.775   0.751  0.7988  2.3765 -1.4128
40008SOL     OW26884   7.508   3.473   4.046 -0.7117  0.0226 -0.2430
40008SOL    HW126885   7.581   3.502   4.101 -2.9880  0.8880  2.5591
40008SOL    HW226886   7.466   3.403   4.096 -0.6370 -1.9705 -2.7806
40009SOL     OW26887  12.324   8.657   8.795  0.1561 -0.2538 -0.1125
40009SOL    HW126888  12.362   8.744   8.800 -0.0389 -0.1849  0.1653
40009SOL    HW226889  12.328   8.634   8.702  0.6885 -0.1652 -0.1120
40010SOL     OW26890   9.375   6.041   4.671 -1.0553 -0.3821 -0.4923
40010SOL    HW126891   9.362   5.985   4.595 -0.5846 -1.8741  0.4636
40010SOL    HW226892   9.425   6.115   4.638  0.3600 -1.6748 -1.4046
40011SOL     OW26893   9.148   1.240   0.886 -0.7434 -0.3677  0.2050
40011SOL    HW126894   9.211   1.301   0.926  1.0878  1.4804 -4.6778
40011SOL    HW226895   9.183   1.153   0.905  1.1347  0.4729  0.8328
40012SOL     OW26896  10.558   0.592   7.556 -0.5525 -0.6418  0.0323
40012SOL    HW126897  10.635   0.591   7.499 -0.5897 -1.1359 -0.0201
40012SOL    HW226898  10.591   0.565   7.641 -0.8811 -2.2138 -0.3023
40013SOL     OW26899  10.798   2.942   1.902 -0.1563  0.3128  0.1002
40013SOL    HW126900  10.805   2.912   1.811 -1.8194 -1.2828  0.4400
40013SOL    HW226901  10.704   2.943   1.919  0.1542 -0.6122  2.1736
40014SOL     OW26902   9.981   7.407   8.430  0.0281 -0.0249 -0.0097
40014SOL    HW126903   9.901   7.385   8.477  0.2792 -0.4123  0.2482
40014SOL    HW226904  10.031   7.325   8.430  1.6595  0.8727  2.2803
40015SOL     OW26905   3.905   5.724   2.099 -0.1107  0.3011  0.0161
40015SOL    HW126906   3.816   5.738   2.133  0.9115  1.2903  2.5348
40015SOL    HW226907   3.917   5.791   2.033 -1.3667 -0.1053 -0.6485
40016SOL     OW26908   6.136  12.473   3.335  0.1994  0.2415 -0.1654
40016SOL    HW126909   6.126  12.463   3.240 -1.7069  0.3588 -0.0220
40016SOL    HW226910   6.090  12.554   3.355 -0.4034 -0.3591  0.9832
40017SOL     OW26911   0.899   8.196   2.792  0.5197 -0.2999 -0.1965
40017SOL    HW126912   0.835   8.253   2.835  0.2986  0.0079 -0.9159
40017SOL    HW226913   0.976   8.198   2.849 -0.0454 -0.5364  0.5894
40018SOL     OW26914   4.075   8.718   8.504  0.1274 -0.1145 -0.9301
40018SOL    HW126915   4.059   8.685   8.592 -1.0261  0.8880 -0.7366
40018SOL    HW226916   4.039   8.807   8.505  1.9291  0.6865 -1.8072
40019SOL     OW26917   7.325   7.823   5.544  0.2435  0.7657  0.7171
40019SOL    HW126918   7.344   7.904   5.590  0.7850  1.0517  0.0112
40019SOL    HW226919   7.404   7.769   5.557  0.7637  1.1856 -0.5724
40020SOL     OW26920   9.112   6.339  12.338  0.4540 -0.0926  0.3056
40020SOL    HW126921   9.028   6.332  12.291 -0.3728 -0.2456  1.7604
40020SOL    HW226922   9.112   6.265  12.398 -0.1116  1.9370  2.9803
40021SOL     OW26923   7.365  11.425   1.084  0.0692 -0.3701  0.4634
40021SOL    HW126924   7.273  11.453   1.080  0.3656  0.5749  0.2042
40021SOL    HW226925   7.385  11.423   1.177  0.1330  0.5964  0.4787
40022SOL     OW26926  10.882   0.844   5.278  0.1585  0.2553 -0.1339
40022SOL    HW126927  10.931   0.800   5.347 -0.5421 -2.4600 -1.2407
40022SOL    HW226928  10.814   0.781   5.253 -1.3235  2.2520 -1.4329
40023SOL     OW26929  10.468   7.408  10.306  0.3134  0.1272  0.2812
40023SOL    HW126930  10.386   7.404  10.356 -0.5283 -1.6872 -1.1381
40023SOL    HW226931  10.445   7.456  10.227  1.0487  0.9538  0.5516
40024SOL     OW26932   8.737   6.150   5.765  0.3818  0.1685  0.7478
40024SOL    HW126933   8.708   6.153   5.674 -0.1477 -3.6080  0.6495
40024SOL    HW226934   8.710   6.234   5.802 -2.2799  0.5641 -1.7695
40025SOL     OW26935   6.501   0.251   3.791 -0.0584 -0.1318  0.2810
40025SOL    HW126936   6.529   0.165   3.823  0.8273  0.1332  0.2481
40025SOL    HW226937   6.580   0.304   3.794  0.0747 -0.0535 -2.2144
40026SOL     OW26938   7.168  11.372   8.821 -0.4158 -0.2041  0.2176
40026SOL    HW126939   7.219  11.299   8.854  0.0275 -0.1978 -0.4293
40026SOL    HW226940   7.097  11.383   8.884  0.3630 -0.2255  1.1152
40027SOL     OW26941   5.021   7.862   3.956 -0.0739 -0.8261  0.1683
40027SOL    HW126942   4.989   7.859   3.866  1.4273  1.0389 -0.4918
40027SOL    HW226943   5.109   7.825   3.951 -0.4138 -1.8145  1.1274
40028SOL     OW26944   3.673   6.181   0.066  0.1969  0.0891  0.1756
40028SOL    HW126945   3.760   6.179   0.106  0.2373 -3.2744  0.2112
40028SOL    HW226946   3.624   6.113   0.112 -2.2846  1.4023 -0.3319
40029SOL     OW26947   8.332   0.292   1.783  0.1424  0.7402  0.5037
40029SOL    HW126948   8.372   0.309   1.698 -0.7830 -0.4293 -0.1955
40029SOL    HW226949   8.268   0.363   1.795 -0.6689  0.1859 -0.4080
40030SOL     OW26950   3.786   4.609   9.342 -0.6620 -0.4352 -0.0207
40030SOL    HW126951   3.785   4.518   9.369 -0.6205 -0.4976 -0.2232
40030SOL    HW226952   3.819   4.657   9.417 -0.2194 -0.6438 -0.0811
40031SOL     OW26953   0.413  10.897   4.478 -0.2805  0.6115  0.5729
40031SOL    HW126954   0.487  10.957   4.484  0.2507  0.1004 -0.5464
40031SOL    HW226955   0.337  10.951   4.495  0.2793  1.3431  0.7933
40032SOL     OW26956   5.514   2.337   9.575  0.7278 -0.2595  0.0468
40032SOL    HW126957   5.604   2.347   9.544  0.8919  0.3584  0.6838
40032SOL    HW226958   5.483   2.427   9.588 -0.5854 -0.3814 -1.7809
40033SOL     OW26959   7.657   5.911   4.895 -0.3659 -0.0627  0.0612
40033SOL    HW126960   7.620   5.898   4.982 -1.8237 -1.3162 -0.7099
40033SOL    HW226961   7.585   5.945   4.842  0.8060  1.8560 -0.4279
40034SOL     OW26962   4.926   8.162   8.110  0.0410 -0.4198 -0.0187
40034SOL    HW126963   4.994   8.095   8.115  0.2120 -0.2230  0.3404
40034SOL    HW226964   4.847   8.115   8.084 -0.0572 -0.9252  1.1102
40035SOL     OW26965   2.237  10.068   7.531  0.1184 -0.1734  0.2874
40035SOL    HW126966   2.330  10.058   7.551  0.8721  1.2152 -2.1260
40035SOL    HW226967   2.232  10.058   7.436 -2.1860  0.0186  0.3356
40036SOL     OW26968  10.597  11.355   2.166  0.0335 -1.3815  0.0203
40036SOL    HW126969  10.606  11.365   2.071  0.8975 -0.7955  0.1558
40036SOL    HW226970  10.607  11.444   2.201 -0.2845 -1.5909  0.6591
40037SOL     OW26971   0.929   9.322   7.190  0.2393 -0.3610 -0.3008
40037SOL    HW126972   0.949   9.349   7.100  0.3166 -0.3402 -0.2773
40037SOL    HW226973   1.013   9.324   7.235  0.3051 -0.9629 -0.3844
40038SOL     OW26974  11.099   1.082   4.634  0.0002  0.2065 -0.1825
40038SOL    HW126975  11.169   1.136   4.599  0.5635 -1.5738 -2.0251
40038SOL    HW226976  11.029   1.087   4.568 -0.2476 -0.6431 -0.0059
40039SOL     OW26977   6.928   6.949   3.133  0.1153  1.1462 -0.4933
40039SOL    HW126978   6.862   6.985   3.074 -0.6225  1.1364  0.2940
40039SOL    HW226979   6.951   7.023   3.190  0.7276  1.1277 -0.7205
40040SOL     OW26980   4.734   4.140  10.377  0.1335 -0.0032  0.6042
40040SOL    HW126981   4.675   4.200  10.422  1.1771  1.9465 -0.4994
40040SOL    HW226982   4.710   4.146  10.285 -1.0273 -2.8562  0.6192
40041SOL     OW26983   7.461   5.928   5.142  0.0490 -0.1830 -0.7569
40041SOL    HW126984   7.441   6.005   5.195 -1.9753 -0.4851 -0.9954
40041SOL    HW226985   7.459   5.855   5.203 -0.5259 -0.3200 -0.9287
40042SOL     OW26986   2.066   6.629   4.502  0.3515  0.2614  0.3628
40042SOL    HW126987   2.104   6.549   4.539 -0.0488 -0.2302 -0.2743
40042SOL    HW226988   1.990   6.647   4.557 -1.1521 -1.3362 -1.1019
40043SOL     OW26989   1.020  12.259  10.719 -0.3597 -0.2498  0.4503
40043SOL    HW126990   0.983  12.323  10.659  0.0346 -0.5364 -0.1091
40043SOL    HW226991   1.105  12.237  10.681 -1.1261 -2.2715 -0.2395
40044SOL     OW26992   6.798   7.172   5.408 -0.2262  0.3639 -0.0101
40044SOL    HW126993   6.858   7.121   5.354 -1.0627 -1.4227  0.6787
40044SOL    HW226994   6.763   7.110   5.471  0.2052  2.2412  2.2043
40045SOL     OW26995  10.390  11.510   3.121  0.2324 -0.2513 -0.2490
40045SOL    HW126996  10.470  11.461   3.138  1.8312  1.4825 -2.1362
40045SOL    HW226997  10.361  11.478   3.036 -1.3685 -1.1373  0.5917
40046SOL     OW26998   5.878   1.718   8.259  0.3991  0.1405  0.0492
40046SOL    HW126999   5.787   1.688   8.265 -0.5900  2.5590 -1.4729
40046SOL    HW227000   5.874   1.795   8.203  3.6276 -0.6082 -1.4674
40047SOL     OW27001   5.916   8.273   4.098 -0.4886 -0.6761  0.3435
40047SOL    HW127002   5.924   8.219   4.177 -0.8484 -1.6268 -0.2423
40047SOL    HW227003   5.828   8.252   4.065 -0.6754  0.3659  0.1542
40048SOL     OW27004   0.216   7.158  12.227 -0.9877  0.2877  0.3622
40048SOL    HW127005   0.124   7.145  12.249 -0.4840 -1.1457  1.7850
40048SOL    HW227006   0.245   7.230  12.282 -0.9760 -0.0271  0.7708
40049SOL     OW27007   3.009  11.850   0.725 -0.2041  0.2549 -0.6886
40049SOL    HW127008   3.079  11.797   0.688 -0.4986 -1.1153  0.6346
40049SOL    HW227009   2.952  11.870   0.651  0.9577  0.4374 -1.5663
40050SOL     OW27010  11.934  11.789   3.700  0.6100  0.0105  0.2763
40050SOL    HW127011  11.891  11.861   3.655  0.8022  0.3772  0.6785
40050SOL    HW227012  11.980  11.829   3.773 -1.0232 -0.7323  1.7930
40051SOL     OW27013   6.582   6.011  11.232  0.3685 -0.0226  0.3364
40051SOL    HW127014   6.586   6.077  11.163  1.2060  0.1540  0.5409
40051SOL    HW227015   6.669   5.971  11.231  0.8334  0.8541  2.1184
40052SOL     OW27016   1.554   3.955  12.444  0.1974 -0.1404  0.3201
40052SOL    HW127017   1.503   4.008  12.505 -0.0105 -0.8118  0.7441
40052SOL    HW227018   1.526   3.983  12.357 -0.9892 -0.5780  0.5435
40053SOL     OW27019   3.963   5.493   1.983 -0.1630  0.6900  0.4489
40053SOL    HW127020   3.976   5.582   2.016 -0.4397  0.3566  1.4700
40053SOL    HW227021   3.891   5.458   2.035  0.9104 -0.6520  1.0833
40054SOL     OW27022   5.894   4.358   5.671 -0.7139  0.1591  0.1564
40054SOL    HW127023   5.980   4.398   5.672 -0.2736 -0.7646  0.4623
40054SOL    HW227024   5.909   4.266   5.696 -2.0951  0.5870  2.9612
40055SOL     OW27025   0.097   3.684   4.018 -0.0398 -0.0848 -0.7079
40055SOL    HW127026   0.034   3.622   4.054  0.4617 -0.4514 -0.4500
40055SOL    HW227027   0.161   3.630   3.972  1.9656 -0.0613  1.8572
40056SOL     OW27028   1.734   4.658   5.236  0.1858 -0.4306 -0.6234
40056SOL    HW127029   1.817   4.618   5.263  0.0691 -0.1286  0.2278
40056SOL    HW227030   1.669   4.621   5.295 -0.1738 -0.1717 -0.8553
40057SOL     OW27031   8.228  10.018   0.649  0.4068 -0.1769 -0.1875
40057SOL    HW127032   8.155   9.984   0.597  0.0817 -1.0606  0.8298
40057SOL    HW227033   8.256   9.945   0.702 -0.0955  1.0117  1.8272
40058SOL     OW27034  10.039   0.080   3.254  0.0180 -0.2831 -0.9725
40058SOL    HW127035  10.117   0.025   3.247  1.0592  1.1743 -1.2024
40058SOL    HW227036  10.044   0.139   3.179 -0.0527  1.3739  0.2618
40059SOL     OW27037   0.588   3.452   3.708 -0.6580 -0.0201 -0.1506
40059SOL    HW127038   0.493   3.456   3.698 -0.5758  1.1171 -0.6903
40059SOL    HW227039   0.616   3.543   3.705  0.5120 -0.3723 -0.6356
40060SOL     OW27040   6.972  10.580   8.559  0.1946  0.0257  0.0115
40060SOL    HW127041   7.051  10.536   8.529  0.0295  0.2047 -0.7112
40060SOL    HW227042   6.915  10.582   8.482 -0.7433 -0.6097  0.6784
40061SOL     OW27043   5.116   6.471   7.785  0.3432 -0.3178  0.6482
40061SOL    HW127044   5.103   6.559   7.820 -1.2729 -0.8521  1.5016
40061SOL    HW227045   5.209   6.467   7.764  0.3253  1.8011 -0.0175
40062SOL     OW27046  11.390  10.119   7.013 -0.3849  0.1931 -0.3168
40062SOL    HW127047  11.337  10.051   7.055 -0.2113  1.4646  2.1336
40062SOL    HW227048  11.329  10.164   6.955 -1.5767  0.4989  1.1167
40063SOL     OW27049  11.000   3.854   2.455 -0.7274  0.3632  0.1960
40063SOL    HW127050  11.095   3.852   2.468 -0.6042  0.7424 -0.6241
40063SOL    HW227051  10.967   3.783   2.511  0.0489  0.1616  0.4059
40064SOL     OW27052   0.878   5.314   5.749  0.2125 -0.5409 -0.0798
40064SOL    HW127053   0.816   5.249   5.784  0.0515 -0.9911 -1.1621
40064SOL    HW227054   0.927   5.267   5.682  1.7593 -0.1816  0.7767
40065SOL     OW27055  11.078  11.953   1.303 -0.6144  0.0770  0.3174
40065SOL    HW127056  11.089  11.914   1.390 -1.7149 -0.7996  0.0836
40065SOL    HW227057  11.143  12.023   1.300 -1.0499  0.6150  2.1311
40066SOL     OW27058  10.275   6.998   5.219  0.4463  0.4506 -0.3300
40066SOL    HW127059  10.182   6.988   5.241  0.5384 -0.0304 -0.1472
40066SOL    HW227060  10.321   6.959   5.293  0.7718 -1.3643 -1.4395
40067SOL     OW27061   6.711  11.947   6.878 -0.1624 -0.1396  0.3240
40067SOL    HW127062   6.719  11.977   6.788 -0.6327  0.2561  0.4074
40067SOL    HW227063   6.719  11.852   6.873  0.8475 -0.0451 -0.0046
40068SOL     OW27064  11.281  11.983   7.741  0.0867  0.3191  0.5779
40068SOL    HW127065  11.362  11.933   7.730 -0.2239  0.1061 -0.9355
40068SOL    HW227066  11.309  12.075   7.739  0.3510  0.2370  0.4819
40069SOL     OW27067   2.459   0.410  11.546  0.2371  0.1472  0.3225
40069SOL    HW127068   2.423   0.391  11.459 -0.1146  1.0624  0.2614
40069SOL    HW227069   2.383   0.435  11.598  0.4957 -0.0569  0.8005
40070SOL     OW27070   8.276   7.814   5.810  0.1708  0.0228 -0.0096
40070SOL    HW127071   8.273   7.718   5.809 -0.5597  0.0460 -1.2681
40070SOL    HW227072   8.301   7.836   5.900 -0.8982 -1.3173  0.6504
40071SOL     OW27073   8.662   4.360   3.529  0.0610 -0.4692  0.0858
40071SOL    HW127074   8.601   4.391   3.462  0.1656  0.8952  0.5937
40071SOL    HW227075   8.723   4.433   3.541  1.3823 -1.5391  0.0841
40072SOL     OW27076   2.549   1.034  11.736 -0.2048  0.3066 -0.0993
40072SOL    HW127077   2.517   1.060  11.823 -1.5580  0.0043 -0.4881
40072SOL    HW227078   2.589   0.948  11.750  0.9325  0.8965  0.4789
40073SOL     OW27079   2.584   3.419  10.438 -0.4661  0.1597  0.1963
40073SOL    HW127080   2.572   3.429  10.343 -1.6617  0.3221  0.3423
40073SOL    HW227081   2.558   3.328  10.455 -0.0332  0.0624  0.3437
40074SOL     OW27082   9.526   5.473   9.916  0.2615  0.5022 -0.1890
40074SOL    HW127083   9.544   5.541   9.851  0.2441  1.0873  0.4127
40074SOL    HW227084   9.545   5.391   9.870  2.3375  0.9766 -0.3083
40075SOL     OW27085  10.662   2.266   4.163 -0.0527  0.0280 -0.4463
40075SOL    HW127086  10.749   2.270   4.125  0.7472  2.7732  1.3199
40075SOL    HW227087  10.668   2.199   4.231  1.1251  0.9892  0.4559
40076SOL     OW27088   6.960   3.698   8.950  0.6989 -0.2227 -0.0825
40076SOL    HW127089   6.907   3.715   9.027  0.4009 -1.1666 -0.0653
40076SOL    HW227090   7.001   3.782   8.930  1.5832 -0.2006  1.6850
40077SOL     OW27091   3.263   5.973  10.001  0.9515 -0.2810 -0.0588
40077SOL    HW127092   3.239   6.010   9.916  0.2838 -0.1270  0.1929
40077SOL    HW227093   3.180   5.958  10.045  1.1243 -2.6614 -0.3796
40078SOL     OW27094   4.223   2.417   6.755  0.2404 -0.1442 -0.1352
40078SOL    HW127095   4.188   2.329   6.743 -4.9258  1.5533  0.1211
40078SOL    HW227096   4.264   2.415   6.842  0.7340 -2.3404 -0.3592
40079SOL     OW27097   5.175   3.494   2.423  0.5445  0.1352 -0.0554
40079SOL    HW127098   5.160   3.587   2.440 -0.5463 -0.0671  0.1791
40079SOL    HW227099   5.161   3.484   2.329  0.0024  0.1014  0.0246
40080SOL     OW27100   5.626   1.354   5.184  0.3816 -0.1836 -0.2682
40080SOL    HW127101   5.669   1.307   5.255  1.3407  0.2446 -0.5369
40080SOL    HW227102   5.590   1.286   5.128  0.2752 -0.5406  0.2265
40081SOL     OW27103   4.327   8.856   9.519 -0.1295  0.7514  0.0925
40081SOL    HW127104   4.279   8.928   9.478  0.6743  0.9124 -0.5832
40081SOL    HW227105   4.286   8.777   9.483 -1.1469  0.8412  0.9903
40082SOL     OW27106   8.134   8.800  10.514  0.1719 -0.2895 -0.0106
40082SOL    HW127107   8.085   8.869  10.560  0.9806 -0.3529  0.9876
40082SOL    HW227108   8.068   8.754  10.462 -0.3460  1.4278 -0.9770
40083SOL     OW27109  12.165   9.786  11.356 -0.3648  0.0278  0.4852
40083SOL    HW127110  12.102   9.717  11.333 -0.0856 -0.2337  0.5023
40083SOL    HW227111  12.120   9.838  11.422 -1.6932  1.5370 -1.4802
40084SOL     OW27112   3.508   8.943  11.177  0.1706 -0.3461  0.0892
40084SOL    HW127113   3.479   8.937  11.268  0.4916 -0.7731  0.1697
40084SOL    HW227114   3.524   8.852  11.151  0.3008 -0.2084 -0.3223
40085SOL     OW27115  11.777  10.486   8.135 -0.0835  0.3335 -0.5929
40085SOL    HW127116  11.734  10.531   8.207  0.2883 -0.7622  0.3374
40085SOL    HW227117  11.871  10.500   8.150 -0.0248  0.7113 -1.2756
40086SOL     OW27118   9.826   7.581   9.729  0.5549  0.7064  0.4313
40086SOL    HW127119   9.803   7.565   9.638 -0.1507 -0.5327  0.8108
40086SOL    HW227120   9.913   7.543   9.740  0.2131 -0.0629  0.5222
40087SOL     OW27121   0.804   4.776   9.459  0.6079 -0.3222 -0.1185
40087SOL    HW127122   0.779   4.869   9.464 -0.5360 -0.6749  1.5981
40087SOL    HW227123   0.742   4.738   9.397  0.3407 -0.1330  0.0271
40088SOL     OW27124   4.833   5.186   3.095  0.2688  0.5277  0.0178
40088SOL    HW127125   4.866   5.206   3.183  0.2516 -1.1592  0.4326
40088SOL    HW227126   4.743   5.156   3.109  1.0223 -2.0810 -0.2551
40089SOL     OW27127   8.762   2.293   7.596  0.4068 -0.6544 -0.5413
40089SOL    HW127128   8.844   2.255   7.625  0.4272  0.3853  0.8847
40089SOL    HW227129   8.741   2.359   7.662 -1.9272 -1.3565 -0.4602
40090SOL     OW27130  11.020   2.672   5.715 -0.5390 -0.0192 -0.0112
40090SOL    HW127131  11.020   2.608   5.787  2.3897 -0.1183  0.0459
40090SOL    HW227132  11.037   2.619   5.637 -1.3229  0.3669 -0.4552
40091SOL     OW27133   8.836   1.747  12.048  0.5170  0.3193 -0.0495
40091SOL    HW127134   8.859   1.674  11.990  1.2155 -0.4240  1.1115
40091SOL    HW227135   8.741   1.750  12.047  0.4963 -0.2775 -0.5094
40092SOL     OW27136   9.671   7.925  10.647 -0.4759 -0.4035  0.2344
40092SOL    HW127137   9.741   7.990  10.645  0.4538 -1.3181  1.3407
40092SOL    HW227138   9.658   7.901  10.555 -1.4130  1.8764 -0.2945
40093SOL     OW27139   4.770   8.399   7.167  0.4497  0.2106 -0.5561
40093SOL    HW127140   4.792   8.482   7.126  0.1193  0.4874 -0.1738
40093SOL    HW227141   4.854   8.352   7.172  1.0312  1.3423  1.1049
40094SOL     OW27142  11.942   6.990   4.965  0.0509 -0.1030 -0.2867
40094SOL    HW127143  11.995   6.910   4.969 -0.6334 -0.6461 -1.4272
40094SOL    HW227144  12.003   7.059   4.940  0.7921 -0.1057  1.4072
40095SOL     OW27145   0.089   4.641   3.247 -0.8862  0.1721  0.0273
40095SOL    HW127146   0.001   4.616   3.220 -0.4266  0.0873 -1.5393
40095SOL    HW227147   0.129   4.676   3.167  0.7150 -0.4476  0.5095
40096SOL     OW27148  12.078   2.904   7.285  0.4773 -0.1152  0.3840
40096SOL    HW127149  12.130   2.923   7.364 -1.1840 -1.2066  1.8316
40096SOL    HW227150  12.046   2.989   7.257  1.2411  0.3185  0.7732
40097SOL     OW27151   5.569   1.163   9.906  0.3998 -0.1861  0.2076
40097SOL    HW127152   5.509   1.142   9.835  0.9701  1.9455 -0.9831
40097SOL    HW227153   5.539   1.248   9.939  0.9125 -0.5421  1.6964
40098SOL     OW27154   3.034   5.733   5.009  0.3958  0.2929 -0.0691
40098SOL    HW127155   2.957   5.789   4.997  0.0212 -0.6054 -2.4488
40098SOL    HW227156   3.096   5.788   5.056 -1.6214  1.0768  1.8697
40099SOL     OW27157   0.927   7.235   0.925 -0.2707  0.6541 -0.1021
40099SOL    HW127158   1.000   7.191   0.881  0.0860  1.2010 -0.0799
40099SOL    HW227159   0.856   7.171   0.925 -0.1770  0.5246 -1.1911
40100SOL     OW27160   9.998  12.241   4.194 -0.5464  0.0805  0.5214
40100SOL    HW127161   9.995  12.333   4.221  0.7755  0.0371  0.9008
40100SOL    HW227162   9.916  12.204   4.225 -1.3097  1.2324 -0.0527
40101SOL     OW27163  10.321  10.489   6.464  0.5137 -0.3099 -0.0056
40101SOL    HW127164  10.238  10.530   6.440 -0.4674 -2.4367 -0.5054
40101SOL    HW227165  10.388  10.547   6.428 -0.6364  2.3708  1.8401
40102SOL     OW27166   5.434   2.485   1.095 -0.5033 -0.2812 -0.4646
40102SOL    HW127167   5.408   2.576   1.109  0.4806  0.2682 -2.0596
40102SOL    HW227168   5.367   2.450   1.036 -2.4901 -1.4998  2.2459
40103SOL     OW27169   7.652  10.950   7.212  0.0407  0.1866 -0.1792
40103SOL    HW127170   7.594  10.874   7.209  1.1626 -0.9379  2.7855
40103SOL    HW227171   7.699  10.941   7.295  1.8900  2.9316 -0.7924
40104SOL     OW27172   6.440   7.363   5.560  0.0616  0.2506 -0.3645
40104SOL    HW127173   6.533   7.385   5.554  0.3918 -1.0823 -0.5022
40104SOL    HW227174   6.418   7.331   5.473  0.0463 -1.4572  0.2231
40105SOL     OW27175   7.219  10.243  12.071  0.2346  0.4992 -0.3676
40105SOL    HW127176   7.212  10.150  12.091 -2.7195  0.6313 -0.3770
40105SOL    HW227177   7.231  10.285  12.156 -0.1059  0.2191 -0.1779
40106SOL     OW27178   2.611  10.319   0.649 -0.1448 -1.0267  0.0466
40106SOL    HW127179   2.632  10.230   0.679  1.1194 -0.1668  1.8636
40106SOL    HW227180   2.696  10.360   0.635 -0.6281  0.7390  1.9232
40107SOL     OW27181  10.909   7.031   0.099 -0.4046 -0.1109  0.6138
40107SOL    HW127182  10.937   7.092   0.030 -0.7518  0.0977  0.6499
40107SOL    HW227183  10.942   7.071   0.180 -0.0412 -0.3288  0.5745
40108SOL     OW27184   6.958  11.675   6.190  0.0223  0.4035 -0.2325
40108SOL    HW127185   7.038  11.630   6.163 -0.1395  0.2421 -0.4552
40108SOL    HW227186   6.988  11.757   6.230  0.2585  0.9555 -1.4874
40109SOL     OW27187   2.501   6.045   2.382  0.2664 -0.0469  0.1434
40109SOL    HW127188   2.535   6.013   2.299  0.4096  0.9398 -0.1933
40109SOL    HW227189   2.512   6.140   2.377 -0.3683  0.0825  1.0043
40110SOL     OW27190   3.925  12.472   8.759 -0.2646  0.3681 -0.1639
40110SOL    HW127191   3.847  12.447   8.708 -0.7149  0.5644  0.4097
40110SOL    HW227192   3.889  12.508   8.840  0.4015 -2.8324  1.7439
40111SOL     OW27193   0.134   9.643   6.522 -0.5541  0.6738  0.3170
40111SOL    HW127194   0.186   9.608   6.594 -1.0230 -1.8780 -0.4694
40111SOL    HW227195   0.049   9.663   6.560 -0.5709  0.0296  0.6289
40112SOL     OW27196   3.715  10.480  12.153  0.1727 -0.4828 -0.3666
40112SOL    HW127197   3.768  10.404  12.176  1.1871  0.1303 -0.5785
40112SOL    HW227198   3.759  10.517  12.077 -1.5399 -0.8990 -1.6051
40113SOL     OW27199  10.190  10.785   3.467  0.2017 -0.1481 -0.1511
40113SOL    HW127200  10.133  10.740   3.404  0.6107 -0.3567 -0.3762
40113SOL    HW227201  10.278  10.755   3.445  0.5338  1.0942 -0.5739
40114SOL     OW27202   3.637   8.630   0.456  0.1247 -0.0646 -0.4040
40114SOL    HW127203   3.637   8.550   0.510 -1.1823  0.5031  0.4961
40114SOL    HW227204   3.557   8.623   0.404 -1.1442  1.5544  1.1678
40115SOL     OW27205   2.352   3.704   2.969 -0.7724 -0.2637  0.5444
40115SOL    HW127206   2.390   3.626   3.010 -0.8014 -0.9899 -0.7375
40115SOL    HW227207   2.425   3.765   2.960  0.1064 -1.5045 -1.5574
40116SOL     OW27208   8.325   7.557   1.571  0.0480 -0.1452  0.3021
40116SOL    HW127209   8.363   7.550   1.484 -1.2850 -0.0183 -0.3294
40116SOL    HW227210   8.356   7.641   1.605  0.5771 -0.1970 -0.0582
40117SOL     OW27211   8.885   6.499   8.138  0.1028  0.0188 -0.1462
40117SOL    HW127212   8.880   6.591   8.111  0.3113  0.0486 -0.0869
40117SOL    HW227213   8.880   6.450   8.057  1.1342  0.1193 -0.2862
40118SOL     OW27214   5.295   4.713   6.620  0.3595  0.3116 -0.4054
40118SOL    HW127215   5.348   4.790   6.638  1.9111 -0.3174 -1.9761
40118SOL    HW227216   5.338   4.671   6.545 -0.7188 -1.8064  0.0751
40119SOL     OW27217   8.501   8.321  10.684 -0.0137 -0.5568 -0.4570
40119SOL    HW127218   8.570   8.254  10.681  2.2002  1.2919  2.6310
40119SOL    HW227219   8.549   8.404  10.687 -2.5366  1.0044 -0.8856
40120SOL     OW27220   6.225   3.389   6.824  0.6156  0.3826  0.4320
40120SOL    HW127221   6.197   3.416   6.737 -0.3552 -2.3087 -0.2091
40120SOL    HW227222   6.304   3.439   6.841  0.7333  1.1180 -1.9043
40121SOL     OW27223   6.311   6.327  10.490  0.3948 -0.5924 -0.3517
40121SOL    HW127224   6.352   6.413  10.495 -0.6215 -0.1447  1.2443
40121SOL    HW227225   6.318   6.292  10.579 -0.8018 -1.3653 -0.5368
40122SOL     OW27226   3.849   0.077   9.938  0.0111 -0.4127 -0.4443
40122SOL    HW127227   3.802   0.075   9.855 -0.9276  0.8430  0.0267
40122SOL    HW227228   3.781   0.067  10.005  0.5979 -0.1701  0.2077
40123SOL     OW27229   1.038   7.023  12.139 -0.0185 -1.2326  0.3645
40123SOL    HW127230   1.122   7.000  12.180  0.6437 -0.3751 -0.4530
40123SOL    HW227231   1.045   6.988  12.050  0.5100  0.8955 -0.5054
40124SOL     OW27232   7.745  11.750  10.472 -0.2140  0.2556  0.5520
40124SOL    HW127233   7.691  11.810  10.421 -1.9499 -1.5987  0.0583
40124SOL    HW227234   7.821  11.801  10.498 -0.1374  1.8057 -2.3571
40125SOL     OW27235   9.672   3.594   4.951  1.2820 -0.0932 -0.2075
40125SOL    HW127236   9.768   3.594   4.950  1.3458  2.4009 -0.3708
40125SOL    HW227237   9.650   3.594   5.044  1.5499  1.7695 -0.1080
40126SOL     OW27238   5.764   1.866   8.820 -0.1756 -0.3345 -0.3142
40126SOL    HW127239   5.834   1.891   8.881 -0.4045  0.0119 -0.1930
40126SOL    HW227240   5.807   1.809   8.756 -0.2032 -1.8854  0.9753
40127SOL     OW27241   9.368   8.814   8.399 -0.0554  0.5482  0.7732
40127SOL    HW127242   9.295   8.823   8.337  0.4426  0.8783  0.2252
40127SOL    HW227243   9.381   8.903   8.434  2.1011  1.2177 -1.4687
40128SOL     OW27244   7.025   2.679  10.021  0.1509 -0.0481 -0.0410
40128SOL    HW127245   7.120   2.691  10.027  0.1689 -1.0221  3.3161
40128SOL    HW227246   7.006   2.607  10.081 -2.9442  1.5034  1.0362
40129SOL     OW27247  10.904  10.295  11.832  0.4320 -0.2283 -0.4599
40129SOL    HW127248  10.940  10.248  11.757 -0.3149  1.0399 -1.6502
40129SOL    HW227249  10.812  10.269  11.836 -0.0237  1.1578 -1.2075
40130SOL     OW27250   8.622  11.794   3.924  0.0760  0.1483 -0.0888
40130SOL    HW127251   8.702  11.844   3.909  0.8106 -1.0421 -0.2838
40130SOL    HW227252   8.608  11.801   4.019  0.9088 -0.3287  0.0846
40131SOL     OW27253   7.400  11.764   5.688  0.4225 -0.2803 -0.3213
40131SOL    HW127254   7.335  11.744   5.621  1.2319 -0.7900 -0.9700
40131SOL    HW227255   7.409  11.860   5.684  0.0771 -0.2556 -0.5592
40132SOL     OW27256  11.663   4.969  12.168  0.3534  0.0634 -0.0429
40132SOL    HW127257  11.604   4.915  12.220  1.9863  0.1499  2.0120
40132SOL    HW227258  11.695   5.036  12.229  1.8105  0.6170 -1.3491
40133SOL     OW27259   8.048   7.515   0.309 -0.0846  0.5949 -0.3989
40133SOL    HW127260   8.083   7.427   0.299 -0.4803  0.4824 -0.8221
40133SOL    HW227261   8.092   7.550   0.387 -0.5339 -0.2717  0.2557
40134SOL     OW27262   4.459  10.673   0.098  0.2114 -0.2168 -0.0267
40134SOL    HW127263   4.374  10.715   0.081 -0.4400 -1.4281  0.1333
40134SOL    HW227264   4.471  10.679   0.193  0.5950  0.4651 -0.1097
40135SOL     OW27265   9.590   0.660   2.404  0.1371 -0.0353 -0.2289
40135SOL    HW127266   9.669   0.629   2.448  0.9669  0.8474 -1.0490
40135SOL    HW227267   9.536   0.696   2.475  1.5417  1.5524  0.1126
40136SOL     OW27268   7.565  11.889   7.584  0.0045  0.0684 -0.3666
40136SOL    HW127269   7.651  11.908   7.547 -0.4970  0.8270 -1.1706
40136SOL    HW227270   7.543  11.802   7.549 -0.0741  0.3935 -1.1478
40137SOL     OW27271   6.059  12.258   0.300  0.4690 -0.3760 -0.4426
40137SOL    HW127272   6.075  12.326   0.365  0.9330 -2.2989  1.5738
40137SOL    HW227273   6.143  12.215   0.289 -0.1428 -1.6109 -0.4768
40138SOL     OW27274   7.372   7.274   9.533  0.3126 -0.6088 -0.0449
40138SOL    HW127275   7.440   7.319   9.483 -0.2132 -0.4881 -0.6660
40138SOL    HW227276   7.351   7.334   9.605 -1.3920  0.8684 -1.6594
40139SOL     OW27277   4.241   6.707   4.807 -0.6586  0.2989 -0.0195
40139SOL    HW127278   4.188   6.650   4.752 -1.5125  0.8902  0.1711
40139SOL    HW227279   4.180   6.774   4.837  0.0294  0.5604  0.8193
40140SOL     OW27280   1.523   5.912   7.816 -0.7149 -0.3138 -0.2438
40140SOL    HW127281   1.524   5.828   7.771 -0.2319  1.0304 -2.9093
40140SOL    HW227282   1.613   5.944   7.811 -1.0564  0.7406 -0.0607
40141SOL     OW27283   6.240   4.857  12.101  0.0801  0.2078 -0.5073
40141SOL    HW127284   6.269   4.938  12.060 -0.0097 -0.9928 -3.0955
40141SOL    HW227285   6.158   4.880  12.144  1.1552  1.9566  0.7664
40142SOL     OW27286   9.139   2.341   1.115  0.4180 -0.0868 -0.1338
40142SOL    HW127287   9.197   2.266   1.098  0.0153 -0.1344 -1.3427
40142SOL    HW227288   9.199   2.415   1.128  0.7764 -0.1542 -1.2827
40143SOL     OW27289   1.035   3.070   3.395 -0.0435  0.4073 -0.0394
40143SOL    HW127290   1.079   3.025   3.467  1.6853  0.3699 -1.0532
40143SOL    HW227291   0.963   3.012   3.370  1.3444 -1.1980 -0.4725
40144SOL     OW27292   8.658   4.205  12.244 -0.1351  0.1574 -0.0669
40144SOL    HW127293   8.633   4.115  12.222 -0.6205  0.3022 -0.1140
40144SOL    HW227294   8.754   4.204  12.241 -0.1462 -0.2443 -0.5328
40145SOL     OW27295   0.766   3.401   0.630 -0.3513 -0.3600  0.1903
40145SOL    HW127296   0.756   3.371   0.540 -1.7099 -0.8519  0.4893
40145SOL    HW227297   0.678   3.399   0.666  0.3178 -1.3550  1.8999
40146SOL     OW27298   2.794   4.793  10.293 -0.0876  0.0337 -0.1681
40146SOL    HW127299   2.865   4.735  10.319  1.2128  1.7544  0.2642
40146SOL    HW227300   2.724   4.734  10.266  0.4966 -1.7510  1.9539
40147SOL     OW27301   5.285   4.308  11.019 -0.3053  0.1841 -0.2265
40147SOL    HW127302   5.377   4.330  11.037 -0.6565  1.3093  0.3208
40147SOL    HW227303   5.236   4.380  11.059 -1.4331 -0.4695 -0.4131
40148SOL     OW27304   2.209   3.234   4.560 -0.2243 -0.0938  0.8817
40148SOL    HW127305   2.285   3.187   4.526  0.4127  2.5173 -1.6839
40148SOL    HW227306   2.134   3.195   4.515  0.1385  0.2960 -0.0877
40149SOL     OW27307  10.364   6.808   7.396  0.1865 -0.1123  0.7651
40149SOL    HW127308  10.362   6.904   7.391 -0.9814 -0.1798 -2.2498
40149SOL    HW227309  10.339   6.779   7.308  0.5400 -3.2134  1.5699
40150SOL     OW27310   0.127   9.136   1.650  0.2322  0.4881 -0.3416
40150SOL    HW127311   0.093   9.052   1.617  0.7630  0.6102 -1.2228
40150SOL    HW227312   0.098   9.200   1.585 -0.4533  1.0506  0.4987
40151SOL     OW27313   6.315   1.897   5.336 -0.1236  0.1781 -0.7426
40151SOL    HW127314   6.347   1.815   5.298  2.2968  0.8762 -0.3502
40151SOL    HW227315   6.333   1.888   5.430  1.6505  1.7406 -0.8853
40152SOL     OW27316   4.370   8.216   9.494 -0.6711 -0.0888  0.0904
40152SOL    HW127317   4.321   8.212   9.577 -1.8711 -2.0199 -0.6367
40152SOL    HW227318   4.303   8.209   9.427  0.3189  1.1252 -1.0745
40153SOL     OW27319   8.946   0.660   4.961 -0.4260 -0.3917 -0.0704
40153SOL    HW127320   8.863   0.612   4.968 -0.4235 -0.3207  0.5866
40153SOL    HW227321   9.012   0.592   4.952 -0.4837 -0.4923  0.2263
40154SOL     OW27322  11.829   4.745   6.094 -0.6739 -0.0301 -0.3597
40154SOL    HW127323  11.886   4.810   6.134 -1.1719  0.0189  0.2836
40154SOL    HW227324  11.751   4.744   6.149 -0.3996 -1.6519  0.0461
40155SOL     OW27325  10.619   1.289   1.205 -0.3257  0.1730 -0.3258
40155SOL    HW127326  10.553   1.250   1.262  0.7858  1.3974  1.9502
40155SOL    HW227327  10.629   1.379   1.239  3.1552 -0.2632  0.1202
40156SOL     OW27328  12.438  12.064   3.578 -0.3001 -0.0731  0.1012
40156SOL    HW127329  12.374  12.021   3.635 -0.2749  2.4185  2.1646
40156SOL    HW227330  12.488  11.991   3.540 -1.0097 -1.9069  2.4353
40157SOL     OW27331  11.080   0.379   6.987 -0.0363  0.5206 -0.8087
40157SOL    HW127332  11.167   0.388   7.025 -0.2145  0.5804 -0.4182
40157SOL    HW227333  11.023   0.427   7.046 -0.9708 -2.6412  1.1255
40158SOL     OW27334   8.526   6.602  12.120 -0.4403  0.1027  0.5291
40158SOL    HW127335   8.509   6.668  12.052 -0.4246 -1.6180 -1.2542
40158SOL    HW227336   8.444   6.595  12.169 -0.5593  1.1645  0.4870
40159SOL     OW27337   6.236   7.985   2.949 -0.2947 -0.2471  0.9808
40159SOL    HW127338   6.281   7.901   2.957 -0.2180 -0.4861 -1.3705
40159SOL    HW227339   6.176   7.987   3.023  0.4977 -1.8629  1.7224
40160SOL     OW27340   1.759   2.471   6.852  0.2278  0.1611  0.0759
40160SOL    HW127341   1.847   2.481   6.888  1.2824  0.3939 -2.3839
40160SOL    HW227342   1.733   2.559   6.825 -0.7999  0.1023  0.8078
40161SOL     OW27343   6.209   0.936   4.593 -0.0435  0.0357 -0.0154
40161SOL    HW127344   6.162   1.017   4.578 -0.4874  0.0584  1.3935
40161SOL    HW227345   6.263   0.953   4.670  0.3556 -0.7964 -0.0972
40162SOL     OW27346   9.215   3.522   7.462 -0.0322 -0.1429  1.0409
40162SOL    HW127347   9.229   3.577   7.539  0.3356 -1.1380  1.7089
40162SOL    HW227348   9.130   3.549   7.428 -0.5649 -0.2029  2.2565
40163SOL     OW27349   4.904   8.698   2.754 -0.2575  0.0575  0.0031
40163SOL    HW127350   4.923   8.687   2.661  0.4996  0.3188  0.1209
40163SOL    HW227351   4.988   8.720   2.794 -0.7146  0.7303  0.6330
40164SOL     OW27352   8.711  10.088   9.611 -0.3333  0.2606 -0.4941
40164SOL    HW127353   8.804  10.088   9.629 -0.3507  0.9138 -0.3742
40164SOL    HW227354   8.688   9.996   9.602  0.5275  0.1305 -1.6095
40165SOL     OW27355   4.918   2.516   6.652  0.0743 -0.1802 -0.3041
40165SOL    HW127356   4.970   2.596   6.645  0.5083 -0.5283 -1.3177
40165SOL    HW227357   4.836   2.544   6.692  0.3783  0.6971 -0.2686
40166SOL     OW27358  10.257  10.179   8.311 -0.2160 -0.2192 -0.0335
40166SOL    HW127359  10.179  10.142   8.271  0.5360 -0.2738 -1.5159
40166SOL    HW227360  10.278  10.256   8.258  0.4764  0.0613  0.6180
40167SOL     OW27361   1.336   1.612   1.772 -0.0301 -1.3286 -0.2987
40167SOL    HW127362   1.255   1.565   1.790  0.0075 -0.6713  1.8423
40167SOL    HW227363   1.381   1.618   1.857  1.4653 -0.2149 -1.1007
40168SOL     OW27364   7.154   4.183   0.539 -0.1678 -0.0235  0.1146
40168SOL    HW127365   7.177   4.270   0.569  2.1558 -0.1750 -0.9866
40168SOL    HW227366   7.086   4.197   0.473  1.2507  1.1642 -1.1754
40169SOL     OW27367  10.835   2.002   3.022 -0.2151 -0.2943  0.1095
40169SOL    HW127368  10.752   1.973   3.059  0.0425 -2.0124 -0.5510
40169SOL    HW227369  10.810   2.062   2.951 -0.9274 -0.9788 -0.2348
40170SOL     OW27370   5.169   4.856   1.991 -0.0395  0.2601  0.0470
40170SOL    HW127371   5.182   4.761   1.982  1.9883  0.5734 -1.0486
40170SOL    HW227372   5.156   4.869   2.085 -0.7249 -1.1359  0.1709
40171SOL     OW27373   1.915   1.221  12.390  0.1459  0.0855 -0.9528
40171SOL    HW127374   1.967   1.205  12.311 -0.1710  0.9127 -1.3313
40171SOL    HW227375   1.966   1.283  12.441 -0.1625  0.3872 -1.0123
40172SOL     OW27376   2.601   2.173  10.516  0.1417 -0.3423 -0.3112
40172SOL    HW127377   2.680   2.159  10.465 -0.3590  0.6762 -1.4155
40172SOL    HW227378   2.622   2.247  10.573  0.1826 -0.4549 -0.1807
40173SOL     OW27379   6.517   0.735   2.562 -0.4453 -0.1410 -0.0299
40173SOL    HW127380   6.608   0.709   2.551  0.1210  1.5856  0.2989
40173SOL    HW227381   6.467   0.657   2.537  1.0796 -0.7964 -1.2444
40174SOL     OW27382   3.998   5.638  11.427  0.2067 -0.2336 -0.0325
40174SOL    HW127383   3.977   5.599  11.511  1.1393 -1.8093 -0.4798
40174SOL    HW227384   4.059   5.709  11.448 -0.9477  0.5668  0.7366
40175SOL     OW27385   6.129   8.228   0.135  0.1511 -0.2119 -0.1734
40175SOL    HW127386   6.115   8.137   0.107 -1.4463 -0.0787  0.0957
40175SOL    HW227387   6.087   8.280   0.067  0.3732  0.2931  0.0758
40176SOL     OW27388   7.304   7.362   4.981  0.1619 -0.2478  0.2321
40176SOL    HW127389   7.307   7.453   5.009 -0.3775  0.1703 -0.9699
40176SOL    HW227390   7.212   7.337   4.988  0.3971 -0.9045  1.1342
40177SOL     OW27391  10.324   6.484   7.687 -0.3800 -0.6927 -0.2540
40177SOL    HW127392  10.414   6.483   7.655 -0.1497  1.5400  0.2109
40177SOL    HW227393  10.328   6.435   7.770  0.6184  0.1846  0.2361
40178SOL     OW27394   4.265   4.991   7.780 -0.4960  0.1752 -0.1553
40178SOL    HW127395   4.288   4.962   7.692  0.1194  0.3430 -0.0585
40178SOL    HW227396   4.172   4.969   7.790 -0.5006 -0.0832 -0.7454
40179SOL     OW27397   9.846   2.243   5.063  0.0765 -0.3845 -0.1035
40179SOL    HW127398   9.766   2.296   5.059 -0.8268 -1.7461 -0.7284
40179SOL    HW227399   9.817   2.160   5.102  1.5960 -0.2035  1.5216
40180SOL     OW27400   3.979   8.237   3.442 -0.2434 -0.0026  0.9454
40180SOL    HW127401   3.896   8.272   3.411  0.8880  0.6078 -1.6619
40180SOL    HW227402   3.994   8.281   3.526 -2.3371  0.1326  1.2909
40181SOL     OW27403   6.959  10.706  10.647 -0.2401  0.0611  0.1455
40181SOL    HW127404   6.888  10.686  10.709  0.3167  0.4542  0.9354
40181SOL    HW227405   6.934  10.662  10.566  0.1140 -2.4010  1.3028
40182SOL     OW27406   6.599   5.742   6.034 -0.1457 -0.0902  0.3078
40182SOL    HW127407   6.588   5.825   6.079 -0.4668  0.1139 -0.1372
40182SOL    HW227408   6.693   5.736   6.018 -0.2317  0.6846 -0.5723
40183SOL     OW27409  11.456   6.071   2.766 -0.0261 -0.3336  0.1442
40183SOL    HW127410  11.425   6.022   2.689 -1.1581 -0.0686  0.4053
40183SOL    HW227411  11.492   6.004   2.824 -0.4892 -0.7172 -0.0011
40184SOL     OW27412   6.301   9.744   9.379  0.2938 -0.7643 -0.3354
40184SOL    HW127413   6.223   9.731   9.433 -0.5692  0.2470 -1.2830
40184SOL    HW227414   6.318   9.838   9.384  0.4806 -0.7270 -1.4063
40185SOL     OW27415  10.062   4.763  10.105 -0.3049  0.5841 -0.1712
40185SOL    HW127416   9.968   4.776  10.090 -0.1937  0.2353 -1.2690
40185SOL    HW227417  10.102   4.780  10.020  0.3598 -1.6644 -0.3674
40186SOL     OW27418  10.457   2.621   6.503 -0.3196 -0.4479  0.1174
40186SOL    HW127419  10.531   2.659   6.456 -0.4175 -0.4027 -0.0013
40186SOL    HW227420  10.483   2.530   6.519  0.5592  0.0657  1.7624
40187SOL     OW27421   0.731  10.422   9.099 -0.5211 -0.3214 -0.0421
40187SOL    HW127422   0.681  10.376   9.032  0.3299 -1.6675  0.2048
40187SOL    HW227423   0.671  10.430   9.173 -0.7513 -0.8742 -0.1634
40188SOL     OW27424   3.786   9.819   1.859  0.0682 -0.8036  0.1986
40188SOL    HW127425   3.878   9.839   1.843 -0.6062  1.9666 -0.7167
40188SOL    HW227426   3.749   9.805   1.772 -0.9954  1.3936  0.2364
40189SOL     OW27427   2.296   8.932  11.024 -1.1038 -0.1422 -0.0650
40189SOL    HW127428   2.265   8.946  10.935 -0.8031  2.4519  0.1644
40189SOL    HW227429   2.269   9.010  11.072 -0.7043 -1.1806  1.9892
40190SOL     OW27430   3.324   8.839  12.347  0.5548  0.0190 -0.2350
40190SOL    HW127431   3.232   8.847  12.320  0.4954  1.3533  0.3221
40190SOL    HW227432   3.363   8.781  12.281 -1.0445 -1.9558  0.4321
40191SOL     OW27433  10.664   9.745  11.138  0.0252  0.1839  0.2440
40191SOL    HW127434  10.655   9.829  11.095 -1.5611  1.0436  2.0883
40191SOL    HW227435  10.758   9.737  11.156  0.3324  1.0473 -0.8851
40192SOL     OW27436   8.940   3.919   3.281  0.0722  0.0044 -0.2307
40192SOL    HW127437   8.961   4.011   3.292  2.6669 -0.2702 -1.8789
40192SOL    HW227438   8.896   3.893   3.362 -0.4876  2.5878  0.3598
40193SOL     OW27439  10.342   6.065   1.956 -0.3878 -0.6657  0.2232
40193SOL    HW127440  10.382   5.989   1.913  0.3426 -0.7400  1.0187
40193SOL    HW227441  10.378   6.140   1.909 -1.4131 -0.8069 -0.8212
40194SOL     OW27442   2.407   8.655   0.990  0.3219  0.4785  0.2089
40194SOL    HW127443   2.408   8.720   0.920  0.2731  0.1116 -0.1351
40194SOL    HW227444   2.316   8.625   0.995  0.8033 -1.4730 -1.4359
40195SOL     OW27445   5.821   8.319   2.584 -0.7198 -0.0882  0.2121
40195SOL    HW127446   5.896   8.334   2.642 -1.7156 -0.6615  1.7044
40195SOL    HW227447   5.794   8.229   2.603 -1.3560 -0.1257 -0.8151
40196SOL     OW27448   5.078   0.469  10.525  0.5196  0.2752 -0.1182
40196SOL    HW127449   5.061   0.432  10.438 -0.5826 -0.9172  0.5744
40196SOL    HW227450   5.012   0.429  10.581  2.4974 -0.5861  1.7057
40197SOL     OW27451   2.270   9.190   7.826 -1.0802 -0.3030  0.2164
40197SOL    HW127452   2.222   9.154   7.901 -0.3075 -2.8955 -0.4078
40197SOL    HW227453   2.347   9.231   7.864 -1.0232 -1.0243  0.9050
40198SOL     OW27454   7.362   2.096   7.254  0.2071 -0.4031  0.1597
40198SOL    HW127455   7.388   2.010   7.287  1.3925  0.1912  0.8347
40198SOL    HW227456   7.279   2.080   7.210  0.7521 -2.0295 -0.3642
40199SOL     OW27457   6.853   5.725   8.306  0.1799  0.7524  0.0220
40199SOL    HW127458   6.895   5.683   8.381  1.1625  1.5925 -0.0444
40199SOL    HW227459   6.764   5.743   8.336  0.2045  0.0157  0.5732
40200SOL     OW27460  12.421   8.789   2.605  0.3404 -0.4231  0.1589
40200SOL    HW127461  12.381   8.826   2.683  0.3816 -0.8094  0.3648
40200SOL    HW227462  12.394   8.847   2.534  1.3067  0.6498  0.6362
40201SOL     OW27463   4.073  10.470   1.170 -0.4646 -0.0477 -0.0374
40201SOL    HW127464   4.017  10.488   1.095  1.3569 -1.2742 -1.7766
40201SOL    HW227465   4.123  10.550   1.183  0.1439 -0.2610 -0.9971
40202SOL     OW27466   5.646   0.775   8.557 -0.0677 -0.3058 -0.4596
40202SOL    HW127467   5.668   0.685   8.536  1.7108 -0.4962  1.7945
40202SOL    HW227468   5.555   0.772   8.586 -0.1519 -1.2753 -0.7925
40203SOL     OW27469   3.174  11.740   1.513  0.0539  0.1969 -0.4779
40203SOL    HW127470   3.119  11.705   1.442 -0.7311 -2.0503  1.1142
40203SOL    HW227471   3.134  11.824   1.534 -1.1526 -0.1835 -1.1239
40204SOL     OW27472   3.318   5.981   2.730 -0.3133 -0.0588 -0.2394
40204SOL    HW127473   3.407   5.996   2.700  0.2410 -0.3171  1.1782
40204SOL    HW227474   3.316   5.888   2.753 -1.2132 -0.2577 -1.0530
40205SOL     OW27475   0.517   5.852   8.892 -0.1632  0.3516  0.3012
40205SOL    HW127476   0.594   5.818   8.938 -0.6780 -1.1980  0.0977
40205SOL    HW227477   0.516   5.805   8.808 -0.9895  0.7786  0.0559
40206SOL     OW27478   4.453   9.406   7.117 -0.5009  0.3769  0.3728
40206SOL    HW127479   4.455   9.466   7.043 -2.4949  0.3220  0.2440
40206SOL    HW227480   4.546   9.392   7.137  0.1567 -0.1249 -2.5014
40207SOL     OW27481   8.755   3.665   1.360 -0.1799 -0.0732 -0.4657
40207SOL    HW127482   8.791   3.719   1.289 -0.4339  0.8097  0.0659
40207SOL    HW227483   8.824   3.601   1.378 -0.5750 -1.0847 -2.3049
40208SOL     OW27484  11.088   9.449   4.079 -0.1398  0.0836 -0.3189
40208SOL    HW127485  10.994   9.467   4.086 -0.0896 -0.0435  0.9003
40208SOL    HW227486  11.095   9.355   4.090  0.2794  0.3116  1.6512
40209SOL     OW27487   1.246   7.560  10.753  0.7397  0.4742  0.2894
40209SOL    HW127488   1.272   7.510  10.675  0.4400  0.5110  0.1633
40209SOL    HW227489   1.191   7.630  10.718 -1.5558 -0.9825  0.7512
40210SOL     OW27490   0.907   9.885   9.248 -0.9622  0.3201 -0.5532
40210SOL    HW127491   0.980   9.947   9.252 -1.8938  1.4056  0.3560
40210SOL    HW227492   0.924   9.832   9.170  0.4911  0.9163 -0.6662
40211SOL     OW27493  10.021   0.915   9.307 -0.4601  0.2451 -0.0916
40211SOL    HW127494  10.062   0.946   9.226 -1.4662  0.3343 -0.5856
40211SOL    HW227495   9.969   0.840   9.279 -0.7421  0.2234  0.4927
40212SOL     OW27496   1.160   6.381   0.768 -0.9098  0.4635  0.5623
40212SOL    HW127497   1.200   6.336   0.694 -1.0528  1.2230  0.0025
40212SOL    HW227498   1.119   6.311   0.819  0.8486 -0.3005  1.0069
40213SOL     OW27499   0.013   6.706  11.822 -0.2329 -0.2472  0.0021
40213SOL    HW127500  -0.067   6.653  11.822 -0.9066  0.7387  0.0512
40213SOL    HW227501   0.018   6.742  11.911  0.7000 -0.9221  0.2371
40214SOL     OW27502   9.838   8.863   4.301  0.7177  0.0846 -0.5868
40214SOL    HW127503   9.900   8.890   4.232 -0.5180 -0.0626 -1.7844
40214SOL    HW227504   9.784   8.940   4.315  0.8844  0.0706  0.1545
40215SOL     OW27505   4.944   3.300   9.182  1.1602 -0.0683 -0.1394
40215SOL    HW127506   4.943   3.220   9.234  0.8196  0.3792  0.5519
40215SOL    HW227507   4.991   3.276   9.102 -0.7183 -1.5296 -0.8707
40216SOL     OW27508   7.764  11.835   5.714 -0.6819 -0.3407  0.4701
40216SOL    HW127509   7.857  11.857   5.702 -1.0374  1.0740  0.1111
40216SOL    HW227510   7.749  11.845   5.808 -0.4100 -0.8839  0.5774
40217SOL     OW27511   3.843  11.382   2.661  0.4645 -0.1010 -0.3966
40217SOL    HW127512   3.862  11.471   2.689 -0.7644 -0.2455  1.0555
40217SOL    HW227513   3.750  11.370   2.682  0.6728 -1.8107 -0.3024
40218SOL     OW27514   4.603   7.315   1.298  0.2716  0.8236  0.1939
40218SOL    HW127515   4.588   7.243   1.237 -0.3787 -0.9469  2.2946
40218SOL    HW227516   4.685   7.291   1.342  2.0659  3.2883 -1.5130
40219SOL     OW27517   7.443   4.066   6.406  0.3627  0.0749  0.6086
40219SOL    HW127518   7.519   4.092   6.458 -0.9692  1.5159  1.9255
40219SOL    HW227519   7.470   4.081   6.316  1.2947  1.6202  1.0999
40220SOL     OW27520  10.222   9.640   3.095  0.4798 -0.0355 -0.0723
40220SOL    HW127521  10.174   9.613   3.017 -0.8361  0.0489  0.6849
40220SOL    HW227522  10.209   9.734   3.101  0.7987  0.0012  0.1160
40221SOL     OW27523   7.130   7.657   1.506  0.6710  0.6750  0.4549
40221SOL    HW127524   7.136   7.699   1.421 -0.1447  0.8334  0.4680
40221SOL    HW227525   7.073   7.581   1.491  1.8604 -0.2625  0.4995
40222SOL     OW27526   8.229   6.120   6.521  0.3700  0.2054 -0.1694
40222SOL    HW127527   8.261   6.127   6.611  0.7966  0.0742 -0.3087
40222SOL    HW227528   8.308   6.114   6.468  0.1057 -0.6483 -0.4757
40223SOL     OW27529   4.543   0.717  10.039 -0.1923 -0.3670 -0.8245
40223SOL    HW127530   4.485   0.650  10.004  0.7755 -1.0224 -1.2340
40223SOL    HW227531   4.485   0.784  10.076 -1.1826 -1.0081 -1.2037
40224SOL     OW27532   2.138   6.778   1.898  0.1010 -0.0490  0.1840
40224SOL    HW127533   2.216   6.723   1.914  0.4821  0.5715  0.4785
40224SOL    HW227534   2.134   6.785   1.802 -0.6330 -1.5522  0.0751
40225SOL     OW27535   0.822   1.795   1.157 -0.7304 -0.5631 -0.0639
40225SOL    HW127536   0.776   1.877   1.139  0.7889  0.0591 -1.2658
40225SOL    HW227537   0.869   1.812   1.239 -0.3691 -0.1995 -0.3420
40226SOL     OW27538   0.739   8.107   3.113  0.2234  0.4154  0.3093
40226SOL    HW127539   0.791   8.155   3.048  1.8513  0.7655  1.8006
40226SOL    HW227540   0.691   8.175   3.160 -0.9232  0.1657 -0.4579
40227SOL     OW27541  10.646   5.470  10.398  0.0796  0.3711 -0.6410
40227SOL    HW127542  10.556   5.477  10.366 -0.5077  1.7314  1.1458
40227SOL    HW227543  10.681   5.558  10.391  0.2569  0.5095  1.3724
40228SOL     OW27544   0.587   4.701   3.659  0.1611  0.2671  0.0180
40228SOL    HW127545   0.605   4.666   3.747  0.2940  2.1972  0.8240
40228SOL    HW227546   0.674   4.726   3.625  0.2288 -1.4108 -1.1247
40229SOL     OW27547  11.980   5.184   2.931 -0.2923  0.2223  0.7871
40229SOL    HW127548  12.032   5.160   3.008  0.7073  0.9840  0.3780
40229SOL    HW227549  11.992   5.112   2.869  0.1220  0.3058  0.7701
40230SOL     OW27550   1.808  11.993   9.531 -0.6963  0.6315 -0.1405
40230SOL    HW127551   1.798  12.088   9.523  0.9093  0.9085  0.8165
40230SOL    HW227552   1.899  11.976   9.510 -1.6427 -1.1558 -3.5341
40231SOL     OW27553   8.029  11.766   2.211 -0.4647  0.3240 -0.2286
40231SOL    HW127554   8.003  11.807   2.294  0.0819 -1.2925  0.7867
40231SOL    HW227555   8.125  11.767   2.213 -0.4036 -1.8862  0.3448
40232SOL     OW27556  11.593   1.040   6.576  0.4073  0.1071 -0.3158
40232SOL    HW127557  11.592   1.048   6.480 -1.8705  0.1002 -0.3326
40232SOL    HW227558  11.506   1.068   6.604  0.6886 -0.8459  1.6873
40233SOL     OW27559   9.322  11.363   9.464 -0.7533 -0.1661 -0.1434
40233SOL    HW127560   9.234  11.395   9.446 -0.1161  0.7763 -1.7698
40233SOL    HW227561   9.335  11.291   9.403  0.1380  0.7156 -1.0322
40234SOL     OW27562  12.266   7.353   7.246  0.0038 -0.1606  0.9250
40234SOL    HW127563  12.205   7.426   7.258 -0.5696 -0.2539 -1.0779
40234SOL    HW227564  12.210   7.276   7.240  0.1588 -0.1653 -1.6683
40235SOL     OW27565   0.515   8.269   1.763  0.1023 -0.5281  0.0331
40235SOL    HW127566   0.499   8.277   1.857  1.0853 -1.7080  0.3196
40235SOL    HW227567   0.442   8.317   1.723 -0.4657 -0.2048  1.3827
40236SOL     OW27568  11.388   0.208   8.109 -0.6007 -0.1128  0.2944
40236SOL    HW127569  11.431   0.153   8.174  1.2679 -0.3057 -1.0207
40236SOL    HW227570  11.380   0.152   8.032  0.6414  1.1680 -0.8298
40237SOL     OW27571  10.420   9.286   0.710  0.3212 -0.1909 -0.1944
40237SOL    HW127572  10.476   9.219   0.749  0.6994 -0.0116 -0.4107
40237SOL    HW227573  10.428   9.361   0.768 -2.7020 -1.3190  1.9131
40238SOL     OW27574   7.556  10.024   7.878  0.1667 -0.0377  0.0156
40238SOL    HW127575   7.555   9.977   7.794  0.4681  0.0940 -0.0629
40238SOL    HW227576   7.579   9.957   7.942  1.1409  0.1102 -0.1673
40239SOL     OW27577  10.017  10.065  10.721 -0.1506  0.6667  0.3191
40239SOL    HW127578  10.048  10.041  10.634  0.8302  3.5574 -0.2446
40239SOL    HW227579   9.939  10.119  10.705 -1.5677 -0.9540  1.4208
40240SOL     OW27580   9.091   9.650   9.832  0.0534 -0.2751 -0.9231
40240SOL    HW127581   9.116   9.742   9.819 -0.7138 -0.1031 -1.2632
40240SOL    HW227582   9.172   9.601   9.816  0.9248  0.4409  0.9873
40241SOL     OW27583   7.472   4.675   4.693  0.3753  0.5232 -0.4955
40241SOL    HW127584   7.506   4.623   4.766 -1.7111 -3.4278 -2.0458
40241SOL    HW227585   7.449   4.759   4.732 -0.6561 -1.3696  3.4524
40242SOL     OW27586   8.788   6.691  12.122  0.1536 -0.7714 -0.0338
40242SOL    HW127587   8.699   6.666  12.148 -0.0857  1.0982  1.1517
40242SOL    HW227588   8.787   6.688  12.026 -1.4191 -0.1092 -0.0622
40243SOL     OW27589   9.769  10.489   6.948  0.7592 -0.6092 -0.3782
40243SOL    HW127590   9.674  10.493   6.958  0.7714  0.8237 -0.6207
40243SOL    HW227591   9.791  10.398   6.966 -0.8523 -1.4006 -2.0080
40244SOL     OW27592   0.000   2.094   4.052  0.2214 -0.2723  0.2512
40244SOL    HW127593   0.075   2.040   4.079 -0.4377 -0.6017  1.4902
40244SOL    HW227594   0.025   2.127   3.965  2.3184  0.5759  1.0999
40245SOL     OW27595   3.525  11.577  12.122  0.2153 -0.2156  0.0354
40245SOL    HW127596   3.517  11.651  12.062 -0.4743 -1.0681 -0.9671
40245SOL    HW227597   3.435  11.558  12.149  0.5556  0.4689  1.7818
40246SOL     OW27598   1.393   8.712   2.740 -0.4286  0.7303 -0.2755
40246SOL    HW127599   1.309   8.739   2.778  0.6183  0.9771  2.0443
40246SOL    HW227600   1.369   8.670   2.657 -3.1213 -1.2904  1.3268
40247SOL     OW27601   3.521   8.057   7.793 -0.6118 -0.1357 -0.0354
40247SOL    HW127602   3.551   8.086   7.707  1.8308  1.3229  1.2026
40247SOL    HW227603   3.540   8.130   7.852  0.6677 -2.1508  2.2636
40248SOL     OW27604   8.451  10.515   9.790  0.2442  0.3385  0.2910
40248SOL    HW127605   8.385  10.511   9.722  1.0782 -0.6100 -0.4843
40248SOL    HW227606   8.524  10.465   9.756  1.2228  1.0292  1.2982
40249SOL     OW27607   8.717   0.259   0.690 -0.3671 -0.1444 -0.0448
40249SOL    HW127608   8.682   0.173   0.668 -1.3045  0.1663  0.1569
40249SOL    HW227609   8.641   0.317   0.686  0.3012  0.7324 -0.4604
40250SOL     OW27610   0.391  11.445  10.000  0.2406 -0.0889  0.0080
40250SOL    HW127611   0.406  11.536  10.026 -0.9597  0.5268 -1.2716
40250SOL    HW227612   0.472  11.400  10.022  1.9306  1.8602 -1.7528
40251SOL     OW27613   1.930   3.854   7.400 -0.3791 -0.1909 -0.2986
40251SOL    HW127614   1.911   3.850   7.493  0.0162  1.3291 -0.1170
40251SOL    HW227615   2.018   3.892   7.395 -0.7842  0.6740 -1.2976
40252SOL     OW27616   3.027   8.242   3.896  0.3070 -0.3620 -0.0683
40252SOL    HW127617   2.962   8.300   3.936 -0.8922 -1.1315 -0.8376
40252SOL    HW227618   3.085   8.219   3.968 -0.3926  0.1797  0.6915
40253SOL     OW27619   1.041  11.241   9.323 -0.1097 -0.1036  0.1126
40253SOL    HW127620   0.946  11.232   9.335 -0.1425  0.7462  0.4879
40253SOL    HW227621   1.050  11.292   9.243  0.0568 -1.0539 -0.4975
40254SOL     OW27622   8.701  10.102   8.271  0.3210  0.1645  0.2543
40254SOL    HW127623   8.772  10.075   8.213  0.0885  0.6477 -0.2603
40254SOL    HW227624   8.626  10.115   8.213 -0.2644 -0.5893  0.8208
40255SOL     OW27625  11.727   3.338   6.451 -0.3689 -0.5448 -0.0324
40255SOL    HW127626  11.740   3.262   6.508 -0.7032 -0.0450  0.7287
40255SOL    HW227627  11.787   3.404   6.485  1.7607 -1.2057 -2.1910
40256SOL     OW27628   6.953   9.788  11.770 -0.2412  0.3867 -0.3520
40256SOL    HW127629   6.976   9.696  11.764 -1.0440  0.2699 -2.2021
40256SOL    HW227630   6.861   9.788  11.796 -0.0037  0.6992  0.5162
40257SOL     OW27631   7.639   0.686  11.355 -0.4370 -0.3313  0.5226
40257SOL    HW127632   7.668   0.755  11.295 -0.6333 -1.0727 -0.4488
40257SOL    HW227633   7.544   0.684  11.344 -0.3713 -1.2112  0.0250
40258SOL     OW27634   5.433   0.795   3.522  0.5207  0.2797 -0.3419
40258SOL    HW127635   5.447   0.710   3.563 -0.5901 -0.9032 -2.2517
40258SOL    HW227636   5.487   0.794   3.443  0.3637  1.2644 -0.4819
40259SOL     OW27637   0.689  11.785   4.067 -0.4493 -0.1007  0.6438
40259SOL    HW127638   0.749  11.759   3.998 -1.5865 -1.8854  0.2560
40259SOL    HW227639   0.733  11.757   4.148  0.1605  0.5327  0.5437
40260SOL     OW27640  11.162   9.337   5.429  0.3034  0.5187 -0.2093
40260SOL    HW127641  11.236   9.341   5.489  0.7834 -0.6847 -0.6760
40260SOL    HW227642  11.118   9.254   5.449  0.4606  0.0990 -1.4710
40261SOL     OW27643   7.189   8.036  11.193  0.5812 -0.3031 -0.1404
40261SOL    HW127644   7.147   8.102  11.138 -0.2891 -0.0431  0.8100
40261SOL    HW227645   7.228   7.974  11.130 -1.0497 -0.4464 -1.0741
40262SOL     OW27646   7.535   0.437   5.705  0.9233 -0.4723  0.3487
40262SOL    HW127647   7.574   0.351   5.696  2.1303  0.2121 -1.3326
40262SOL    HW227648   7.609   0.498   5.703  0.0061  0.6777  0.1786
40263SOL     OW27649   2.849   9.348  11.038 -0.8326 -0.1265  0.0121
40263SOL    HW127650   2.854   9.265  11.086 -0.9674  0.9125  1.8973
40263SOL    HW227651   2.807   9.325  10.955  0.0766 -2.1151  0.0494
40264SOL     OW27652   9.106   0.564   6.418  0.1745 -0.0962 -0.1348
40264SOL    HW127653   9.024   0.612   6.412  0.3992  0.2215 -0.7501
40264SOL    HW227654   9.104   0.524   6.505 -0.8407 -0.4901 -0.3196
40265SOL     OW27655   3.952   3.072   5.082 -0.0149  0.5941 -0.0068
40265SOL    HW127656   3.879   3.134   5.073 -1.7957 -1.4368 -0.4333
40265SOL    HW227657   3.951   3.048   5.175 -0.9130 -0.5263 -0.2763
40266SOL     OW27658   3.910   5.902   0.289 -0.6448 -0.1350  0.0344
40266SOL    HW127659   3.948   5.896   0.377  2.3544 -0.3290 -1.1362
40266SOL    HW227660   3.905   5.996   0.271  0.9982 -0.0993 -0.3987
40267SOL     OW27661   8.409   4.612   8.777  0.1564 -0.0788 -0.1189
40267SOL    HW127662   8.382   4.690   8.825 -1.1244  0.5265 -1.7342
40267SOL    HW227663   8.396   4.540   8.839  0.3888  0.8581  1.0505
40268SOL     OW27664   6.703   3.650   3.099 -0.4698  0.1484 -0.0735
40268SOL    HW127665   6.658   3.719   3.050 -0.8550  1.1402  1.5821
40268SOL    HW227666   6.753   3.697   3.166 -0.4627 -1.1473  0.8818
40269SOL     OW27667   3.086  10.239   6.775  0.4301  0.4343 -0.2814
40269SOL    HW127668   3.098  10.152   6.813  0.7995  1.4839  2.1954
40269SOL    HW227669   3.144  10.240   6.699  1.2705 -1.1233  0.2844
40270SOL     OW27670   9.550   5.606  10.539 -0.4582 -0.1367  0.2787
40270SOL    HW127671   9.489   5.668  10.500  0.2709  1.3103  1.3752
40270SOL    HW227672   9.626   5.658  10.564  0.7306 -1.6820  0.1007
40271SOL     OW27673  10.570  12.061   2.688 -0.5288  0.5177 -0.0696
40271SOL    HW127674  10.612  12.127   2.743  0.9827 -0.4589 -0.0063
40271SOL    HW227675  10.578  11.980   2.738 -0.3005 -0.1410 -1.1412
40272SOL     OW27676   8.389   9.824   0.226  0.3363 -0.2579  0.3330
40272SOL    HW127677   8.377   9.907   0.180  1.5007 -0.5805 -0.6027
40272SOL    HW227678   8.312   9.772   0.202  0.9852 -0.4750 -1.4653
40273SOL     OW27679  10.921   4.495   0.684 -0.3980  0.5792 -0.0368
40273SOL    HW127680  10.950   4.428   0.746 -0.6112  0.3619 -0.1707
40273SOL    HW227681  10.991   4.560   0.684 -0.4544  0.6460  0.5304
40274SOL     OW27682   2.956  11.552  11.787 -0.4629 -0.2019 -0.1271
40274SOL    HW127683   2.883  11.504  11.750 -2.3710  1.9713  0.6244
40274SOL    HW227684   2.939  11.644  11.766  1.8232  0.4370  0.4734
40275SOL     OW27685   8.640   8.001   1.282 -0.1230  0.0820  0.0965
40275SOL    HW127686   8.599   8.087   1.292  0.6304  0.2321  2.5939
40275SOL    HW227687   8.721   8.019   1.235 -0.6460  0.4947 -0.6719
40276SOL     OW27688  11.561  12.037   5.292 -0.3551 -0.7900 -0.2687
40276SOL    HW127689  11.634  11.994   5.247  0.6378  0.2450  0.3033
40276SOL    HW227690  11.540  12.113   5.237 -0.6467 -0.7806 -0.1457
40277SOL     OW27691   0.456   5.514   1.396 -0.7897 -0.0220  0.1574
40277SOL    HW127692   0.492   5.447   1.337 -1.1943  0.4981 -0.7002
40277SOL    HW227693   0.427   5.464   1.473  0.0595 -0.6682  0.0767
40278SOL     OW27694   1.800   2.557   8.737 -0.5889  0.1279  0.4433
40278SOL    HW127695   1.823   2.629   8.678 -1.8020 -0.2942 -0.5918
40278SOL    HW227696   1.832   2.584   8.822  1.1307  0.8131 -0.3807
40279SOL     OW27697   7.920  11.372  10.645 -0.0087  0.3609 -0.1627
40279SOL    HW127698   7.946  11.334  10.728 -1.1262 -1.7731 -0.7114
40279SOL    HW227699   7.868  11.448  10.668 -1.6959 -1.1187  1.2119
40280SOL     OW27700  10.876   1.518  11.126  0.2627 -0.1733 -0.3076
40280SOL    HW127701  10.919   1.545  11.045  1.1925  0.4016  0.3466
40280SOL    HW227702  10.799   1.469  11.098  1.0632 -0.7746 -1.5289
40281SOL     OW27703   7.491   4.142  11.984 -0.0605 -0.1543  0.9785
40281SOL    HW127704   7.403   4.105  11.980 -0.3409  0.5202  0.7303
40281SOL    HW227705   7.548   4.071  11.957 -0.7372  0.0891 -1.2962
40282SOL     OW27706   6.047   0.378   9.986  0.5065 -0.6705  0.0927
40282SOL    HW127707   6.009   0.465  10.000  2.3959  0.4849 -1.5066
40282SOL    HW227708   5.996   0.341   9.914 -1.4155 -1.6900  1.8577
40283SOL     OW27709   1.925   6.301   4.647 -0.2697  0.0288  0.0946
40283SOL    HW127710   2.007   6.349   4.643 -1.1684  1.6338  0.1175
40283SOL    HW227711   1.910   6.286   4.740  0.0216 -0.3136  0.0867
40284SOL     OW27712  12.053   1.638   8.684 -0.0905 -0.1023  0.1415
40284SOL    HW127713  12.057   1.580   8.761  0.3212 -0.3821 -0.0882
40284SOL    HW227714  12.062   1.580   8.609 -0.2642  0.1976 -0.1157
40285SOL     OW27715   3.890  11.036   6.361 -0.3216  0.2642 -0.2187
40285SOL    HW127716   3.908  11.098   6.291 -2.1942  0.0556 -0.9456
40285SOL    HW227717   3.904  10.950   6.321  3.6064  0.0774  1.1535
40286SOL     OW27718   3.881   4.951  10.547  0.0447  0.0191  0.2077
40286SOL    HW127719   3.975   4.952  10.531 -0.0921 -0.5960 -0.6738
40286SOL    HW227720   3.871   4.988  10.635  1.1798 -0.6998  0.6604
40287SOL     OW27721   9.730   1.271   8.693  0.2916 -0.2535 -0.0925
40287SOL    HW127722   9.786   1.198   8.668  1.3542  0.7490 -0.7640
40287SOL    HW227723   9.644   1.249   8.658  0.0750 -2.1013  1.4694
40288SOL     OW27724   7.020  11.268   6.995  0.1652 -0.0960 -0.3196
40288SOL    HW127725   7.070  11.344   7.024 -0.5778 -0.4629  2.1604
40288SOL    HW227726   7.062  11.241   6.913  1.0826  2.3270 -0.7230
40289SOL     OW27727   5.964   6.373   0.932 -0.4019  0.2963 -0.3454
40289SOL    HW127728   5.913   6.306   0.977  0.5462  0.0012  0.3267
40289SOL    HW227729   6.051   6.367   0.971 -0.7309  3.1648  1.0916
40290SOL     OW27730   2.850   7.859   6.647  0.3765  0.1443  0.3623
40290SOL    HW127731   2.855   7.925   6.716  1.9703  2.0642 -1.4154
40290SOL    HW227732   2.941   7.830   6.635  0.4820  1.1525 -1.9646
40291SOL     OW27733  11.265  11.338   1.567 -0.2168 -0.0223 -0.7551
40291SOL    HW127734  11.342  11.287   1.544  0.7941  1.5396 -0.9700
40291SOL    HW227735  11.243  11.310   1.656  1.2191  0.2315 -0.3030
40292SOL     OW27736   4.567   6.101   6.187  0.3780  0.3636  0.3976
40292SOL    HW127737   4.499   6.039   6.213  1.0846 -0.7288 -0.2975
40292SOL    HW227738   4.633   6.095   6.256  0.8709 -0.3525 -0.1206
40293SOL     OW27739   3.162   0.313   4.392  0.1896  0.4251  0.6725
40293SOL    HW127740   3.086   0.261   4.419  0.3663  0.1609  0.6658
40293SOL    HW227741   3.165   0.302   4.297  0.5143  0.0520  0.7251
40294SOL     OW27742   7.683   0.385  11.342  0.1864  0.1011 -0.2455
40294SOL    HW127743   7.763   0.428  11.371  0.1523  0.4280 -0.6287
40294SOL    HW227744   7.656   0.434  11.265  0.0110 -0.4603 -0.5457
40295SOL     OW27745   8.048   6.490   9.327 -0.6224  0.1580 -0.5060
40295SOL    HW127746   8.103   6.550   9.277 -1.5659  1.3313 -0.1857
40295SOL    HW227747   7.980   6.463   9.266 -0.5358 -0.1190 -0.4795
40296SOL     OW27748   7.381   4.491   7.906  0.3034 -0.2588 -0.0878
40296SOL    HW127749   7.398   4.570   7.855 -0.7982  0.3499  0.4425
40296SOL    HW227750   7.389   4.520   7.997 -2.6533 -0.0493  0.2139
40297SOL     OW27751   8.381   0.236   4.716 -0.1587  0.2712 -0.9172
40297SOL    HW127752   8.323   0.197   4.782  0.3335 -0.5369 -0.9522
40297SOL    HW227753   8.469   0.226   4.752  0.0975  0.0314 -1.5985
40298SOL     OW27754   0.595  10.874   7.029 -0.3280 -0.0979  1.0759
40298SOL    HW127755   0.610  10.780   7.014 -1.2946  0.2353 -3.0664
40298SOL    HW227756   0.682  10.913   7.024 -0.2140 -0.4848 -0.5518
40299SOL     OW27757   2.752   8.509   7.812 -0.2871 -0.1512  0.5703
40299SOL    HW127758   2.768   8.480   7.722 -0.8278 -3.5325  1.4456
40299SOL    HW227759   2.839   8.526   7.847 -0.1283  3.2473 -1.0530
40300SOL     OW27760   7.546   6.823   9.747 -0.6196 -0.3002 -0.5391
40300SOL    HW127761   7.490   6.892   9.712 -0.8930  0.6441  1.6534
40300SOL    HW227762   7.491   6.776   9.809  0.1473 -1.2743 -0.5799
40301SOL     OW27763   7.696   6.713   3.101  0.8003  0.1780 -0.0589
40301SOL    HW127764   7.696   6.808   3.094  0.7247  0.1378 -0.6024
40301SOL    HW227765   7.647   6.695   3.182  1.1119  0.6114  0.2256
40302SOL     OW27766   3.372   4.895   1.254 -0.0711 -0.1710  0.5991
40302SOL    HW127767   3.331   4.823   1.207 -0.9079  0.2359  0.6851
40302SOL    HW227768   3.319   4.905   1.333 -0.5805  1.1846  0.1089
40303SOL     OW27769   5.590   3.644  11.593 -0.1269  0.0201  0.2559
40303SOL    HW127770   5.672   3.648  11.642 -0.0667  0.3392  0.1318
40303SOL    HW227771   5.565   3.736  11.581  0.4973  0.0195 -1.3886
40304SOL     OW27772   8.179   8.109   3.110 -0.2512  0.4952 -0.7573
40304SOL    HW127773   8.265   8.112   3.068 -0.6178 -0.0599 -1.5754
40304SOL    HW227774   8.160   8.016   3.120 -0.6264  0.6174 -0.2923
40305SOL     OW27775   0.028   1.498   9.374  0.3591 -0.3463  0.5321
40305SOL    HW127776   0.099   1.551   9.409  0.7081 -0.8012  0.5219
40305SOL    HW227777   0.043   1.411   9.411 -0.7046 -0.2441  1.2486
40306SOL     OW27778  10.334   3.074   6.366 -0.5144 -0.1572  0.7178
40306SOL    HW127779  10.303   3.005   6.425 -0.1092 -1.1386 -0.1947
40306SOL    HW227780  10.423   3.091   6.395 -0.5386 -0.1682  0.7992
40307SOL     OW27781  11.243   0.606   4.274  0.1436  0.0780  0.0398
40307SOL    HW127782  11.329   0.646   4.272  0.2528  0.2421  3.2903
40307SOL    HW227783  11.190   0.664   4.328 -2.5054  0.6890 -2.8971
40308SOL     OW27784  10.305   3.064   5.443  0.2332  0.3946 -0.2704
40308SOL    HW127785  10.386   3.095   5.484  1.1410 -1.7576 -0.2799
40308SOL    HW227786  10.301   3.111   5.360  0.2413  2.1816  0.6799
40309SOL     OW27787   7.216   3.871   6.700 -0.1173  0.3639  0.2533
40309SOL    HW127788   7.189   3.885   6.791 -1.2446  0.6080 -0.1023
40309SOL    HW227789   7.303   3.832   6.707 -0.6812 -0.7737  1.4673
40310SOL     OW27790   1.139  10.603  11.476  0.6154 -0.1277 -0.4066
40310SOL    HW127791   1.220  10.633  11.517  0.8624 -0.3682 -0.7124
40310SOL    HW227792   1.157  10.606  11.382  0.9762 -2.0523 -0.4528
40311SOL     OW27793   7.524   9.832  12.010  0.1599 -0.3980 -0.3609
40311SOL    HW127794   7.441   9.846  11.965  0.8383  0.8437 -1.2794
40311SOL    HW227795   7.572   9.914  11.999 -0.4495  0.9427  4.5195
40312SOL     OW27796   2.832   6.822   2.849  0.6971  0.0432  0.3972
40312SOL    HW127797   2.924   6.834   2.872  1.0187 -0.7350 -0.4182
40312SOL    HW227798   2.794   6.910   2.854  1.6519  0.4860  0.0447
40313SOL     OW27799   4.141   7.695   1.024 -0.3495 -0.4095 -0.6748
40313SOL    HW127800   4.106   7.606   1.018 -1.9490  0.1093  0.2804
40313SOL    HW227801   4.234   7.683   1.043 -0.7826 -1.9069  0.7048
40314SOL     OW27802   2.847   3.807   3.452 -0.5291 -0.2193  0.2975
40314SOL    HW127803   2.930   3.773   3.418 -1.3255 -1.5554 -0.3820
40314SOL    HW227804   2.781   3.775   3.390 -1.6064  0.3943  1.1088
40315SOL     OW27805   7.718   2.342  12.292  0.2823 -0.5501  0.3460
40315SOL    HW127806   7.767   2.411  12.335  2.5482 -1.5860 -0.4276
40315SOL    HW227807   7.725   2.362  12.199 -1.6948 -0.1703  0.2406
40316SOL     OW27808   0.329   9.617   5.767  0.3838  0.9237 -0.4587
40316SOL    HW127809   0.293   9.704   5.787 -0.1485  0.7744 -0.7643
40316SOL    HW227810   0.256   9.557   5.778  0.7589  0.5035 -0.2229
40317SOL     OW27811   4.164   1.067   9.122 -0.4374 -0.7242 -0.6691
40317SOL    HW127812   4.078   1.038   9.150 -0.3958  0.0321  0.2989
40317SOL    HW227813   4.226   1.027   9.183 -0.2172 -0.2604 -0.5758
40318SOL     OW27814   7.208  12.089   6.320  0.6035  0.5676 -0.3174
40318SOL    HW127815   7.172  12.178   6.329  1.3601  0.8323  0.2399
40318SOL    HW227816   7.241  12.068   6.407 -0.0084 -0.4732 -0.3184
40319SOL     OW27817  10.113  10.848  11.701  0.5748 -0.0731  0.4659
40319SOL    HW127818  10.070  10.823  11.783  0.6973 -0.1236  0.5150
40319SOL    HW227819  10.152  10.767  11.669 -2.3835 -0.9172 -1.4452
40320SOL     OW27820   5.335   9.517   5.242 -0.4703  0.1814  0.2209
40320SOL    HW127821   5.359   9.443   5.187 -1.1173 -0.2233  0.4599
40320SOL    HW227822   5.418   9.558   5.267 -0.0870 -0.6617  0.3530
40321SOL     OW27823   8.719   0.384   9.668  0.5478 -0.2618 -0.0044
40321SOL    HW127824   8.623   0.392   9.672  0.4759 -0.8238 -0.3886
40321SOL    HW227825   8.750   0.432   9.744 -0.1617 -1.7604  1.3129
40322SOL     OW27826   7.608  10.668   0.257 -0.6363 -0.4831  0.2625
40322SOL    HW127827   7.689  10.627   0.288 -0.8861 -1.9824 -0.9612
40322SOL    HW227828   7.559  10.687   0.337  1.5265  1.8738  1.1422
40323SOL     OW27829   3.528   2.927   0.437 -0.4688  0.1893 -0.0519
40323SOL    HW127830   3.605   2.960   0.391  0.1460 -0.3313  0.5854
40323SOL    HW227831   3.492   2.860   0.378 -0.1590  0.1002 -0.1412
40324SOL     OW27832  11.035   5.389   5.980 -0.1853 -0.5043 -0.4903
40324SOL    HW127833  11.121   5.430   5.981 -0.8945  1.1105  1.2470
40324SOL    HW227834  10.985   5.438   5.914  0.8335 -3.0515 -3.3652
40325SOL     OW27835   2.739   7.670   0.390 -0.1790 -0.2382 -0.3100
40325SOL    HW127836   2.667   7.705   0.337  0.4525 -0.7131 -1.5105
40325SOL    HW227837   2.755   7.583   0.353  0.8847 -0.2150  0.0766
40326SOL     OW27838  10.530  12.291  10.714  0.0340  0.4172  0.3123
40326SOL    HW127839  10.517  12.384  10.696 -0.4234  0.3339  0.2046
40326SOL    HW227840  10.577  12.289  10.798  1.0357  0.7692 -0.2358
40327SOL     OW27841   7.372   7.422   8.137 -0.0264  0.2743 -0.0796
40327SOL    HW127842   7.456   7.468   8.134  1.4146 -2.1763 -1.2824
40327SOL    HW227843   7.367   7.387   8.226 -0.4130  1.4677  0.3817
40328SOL     OW27844   7.056  11.264   0.484 -0.1985 -0.1020  0.1887
40328SOL    HW127845   6.987  11.204   0.509 -0.0268  0.3343  1.8245
40328SOL    HW227846   7.016  11.322   0.420 -1.4702  0.3643  1.3703
40329SOL     OW27847   5.811   1.080   6.900 -0.2116  0.3248 -0.4741
40329SOL    HW127848   5.733   1.071   6.954  0.1584  2.4879  0.5231
40329SOL    HW227849   5.782   1.132   6.825 -0.1874 -0.6973 -1.2106
40330SOL     OW27850   5.014   0.391  10.222  0.3521  0.2324 -0.6282
40330SOL    HW127851   4.957   0.447  10.274 -0.2473  0.7673 -1.8246
40330SOL    HW227852   5.031   0.441  10.141  0.1576 -1.1089 -1.5313
40331SOL     OW27853  11.719   2.812   8.508 -0.0261 -0.2697 -0.3973
40331SOL    HW127854  11.771   2.854   8.440 -0.1635  0.2056 -0.2071
40331SOL    HW227855  11.779   2.747   8.546  0.1757 -0.2637 -0.6999
40332SOL     OW27856   5.476   3.063  10.460 -0.2354  0.0326 -0.4728
40332SOL    HW127857   5.520   3.147  10.473  0.4803 -0.5759  1.5051
40332SOL    HW227858   5.547   2.999  10.456 -0.7458 -0.4812 -2.3674
40333SOL     OW27859   7.057   1.747   7.663  0.0456  0.2425 -0.2815
40333SOL    HW127860   7.015   1.803   7.597  0.6244  0.4852 -0.4495
40333SOL    HW227861   7.141   1.722   7.624 -0.0456 -0.4461 -0.0500
40334SOL     OW27862   9.033   5.150   1.480  0.1597  0.1184  0.1390
40334SOL    HW127863   9.127   5.164   1.479  0.1502  0.9520  2.6844
40334SOL    HW227864   9.019   5.070   1.428  2.2600 -0.0733 -0.1853
40335SOL     OW27865   0.352  10.623   1.346 -0.1919  0.2335 -0.4688
40335SOL    HW127866   0.437  10.601   1.383 -1.5507 -0.3728  2.6202
40335SOL    HW227867   0.346  10.719   1.354  0.3597  0.3310 -1.1524
40336SOL     OW27868   6.767   0.203  12.404  0.1820 -0.5375  0.3110
40336SOL    HW127869   6.690   0.178  12.455 -0.6906  2.4652  0.6440
40336SOL    HW227870   6.764   0.298  12.401  3.0403 -0.3870 -1.0527
40337SOL     OW27871   5.793   9.063   7.727 -0.4928  0.0081  0.6240
40337SOL    HW127872   5.836   9.027   7.805  0.2782  0.8730  0.6127
40337SOL    HW227873   5.841   9.144   7.709 -1.1688  0.2100 -0.2940
40338SOL     OW27874   0.610   9.295  10.310 -0.6061  0.2021 -0.3472
40338SOL    HW127875   0.601   9.263  10.400  1.1404 -1.2578 -0.6518
40338SOL    HW227876   0.609   9.216  10.256 -0.3940  0.9821 -1.5223
40339SOL     OW27877   3.853   7.588  11.644  0.2548  0.1010  0.6227
40339SOL    HW127878   3.822   7.678  11.630 -1.0585  0.0524  2.6977
40339SOL    HW227879   3.892   7.590  11.732  1.2904 -1.1154  0.2245
40340SOL     OW27880   9.852   1.484   9.760 -0.4293  0.7333  0.3503
40340SOL    HW127881   9.836   1.574   9.732 -0.9625 -0.0023 -1.8900
40340SOL    HW227882   9.909   1.448   9.692 -1.5065 -1.0768  0.3563
40341SOL     OW27883   7.006   4.335  11.676 -0.0488 -0.6173  0.2320
40341SOL    HW127884   7.026   4.324  11.583 -1.5583  0.2633 -0.2277
40341SOL    HW227885   7.083   4.376  11.713  0.2231 -0.1578 -0.8201
40342SOL     OW27886   9.923   0.212   4.630 -0.0016  0.4714  0.3527
40342SOL    HW127887   9.911   0.138   4.690  0.2047  1.6795  1.9426
40342SOL    HW227888   9.888   0.287   4.677 -0.2844  1.4018 -1.2653
40343SOL     OW27889   5.059  12.348   4.788 -0.4105 -0.1145 -0.0794
40343SOL    HW127890   5.003  12.396   4.849 -1.9158 -3.0747  1.0842
40343SOL    HW227891   5.002  12.279   4.754  1.4585 -0.7612 -2.0366
40344SOL     OW27892   6.705   7.242   7.240  0.0148 -0.1847  0.0223
40344SOL    HW127893   6.799   7.235   7.261  0.1556 -0.5313 -0.6844
40344SOL    HW227894   6.665   7.166   7.284  0.2193 -0.5855 -0.4701
40345SOL     OW27895   7.347   3.328   1.401  0.0604 -0.2142 -0.2699
40345SOL    HW127896   7.374   3.264   1.467  0.7501  0.4466  0.1011
40345SOL    HW227897   7.372   3.413   1.438 -1.7861  0.3691 -0.2891
40346SOL     OW27898   3.476   8.708   5.718  0.0942 -0.1347  0.0770
40346SOL    HW127899   3.406   8.764   5.686 -0.9442 -1.8841 -0.8639
40346SOL    HW227900   3.517   8.673   5.639 -0.4511 -2.0515  0.5755
40347SOL     OW27901  11.634   7.237   7.481 -0.0578 -0.4293  0.4363
40347SOL    HW127902  11.581   7.285   7.545  0.3286 -0.2707  0.6392
40347SOL    HW227903  11.640   7.295   7.406 -0.4440 -0.5823  0.2838
40348SOL     OW27904   3.292   9.000   8.519  0.5094 -0.1878 -0.1816
40348SOL    HW127905   3.340   8.927   8.481  0.5847 -0.3100  0.1499
40348SOL    HW227906   3.203   8.989   8.485  0.7729  0.1961 -1.0123
40349SOL     OW27907  11.650   4.035   5.765 -0.5335  0.4770  0.4880
40349SOL    HW127908  11.742   4.008   5.769 -0.6708 -0.3020 -0.7745
40349SOL    HW227909  11.600   3.955   5.781 -0.9559  0.2795 -1.4547
40350SOL     OW27910   4.119   4.134  12.112  0.7038  0.0491 -1.0050
40350SOL    HW127911   4.168   4.171  12.039  0.1755  4.3128  0.4973
40350SOL    HW227912   4.179   4.140  12.186 -0.1380 -0.3231 -0.2735
40351SOL     OW27913  12.467   0.938   2.914 -0.4791 -0.7932 -0.4052
40351SOL    HW127914  12.519   0.932   2.994 -0.1835 -0.7669 -0.5927
40351SOL    HW227915  12.479   1.028   2.883 -0.8442 -0.7111 -0.3115
40352SOL     OW27916  11.552   0.234   7.335  0.5218 -0.1635  0.2881
40352SOL    HW127917  11.502   0.313   7.355 -0.4771 -0.8886  0.7593
40352SOL    HW227918  11.636   0.246   7.380  0.5290  0.7812  0.0399
40353SOL     OW27919   9.949   3.691   2.060 -0.1361 -0.7709  0.0065
40353SOL    HW127920   9.978   3.747   1.987 -0.0842 -0.9442 -0.1058
40353SOL    HW227921  10.024   3.635   2.078  0.1140 -0.2349  0.6760
40354SOL     OW27922   4.334   8.858  11.761 -0.2100 -0.7001  0.1918
40354SOL    HW127923   4.259   8.893  11.810  0.7408 -2.6703  3.3280
40354SOL    HW227924   4.318   8.764  11.755  0.8160 -0.8186 -1.4455
40355SOL     OW27925  10.443   7.767   3.680 -0.3241 -0.4215 -0.0432
40355SOL    HW127926  10.474   7.722   3.758  0.9544  0.7693  0.1686
40355SOL    HW227927  10.375   7.709   3.645 -1.4959 -0.6158  2.3448
40356SOL     OW27928  11.883   1.128   0.914  0.2732 -0.0054 -0.1305
40356SOL    HW127929  11.952   1.123   0.848 -0.5600  1.0849 -1.1372
40356SOL    HW227930  11.817   1.185   0.875 -1.8190 -2.0188  0.2216
40357SOL     OW27931   5.806   3.823  12.052  0.7501  0.5317 -0.2915
40357SOL    HW127932   5.840   3.854  11.968 -0.2735 -0.5031 -1.1165
40357SOL    HW227933   5.884   3.815  12.107  1.8830 -1.4020 -2.0163
40358SOL     OW27934   3.775   4.628   1.683  0.3670  0.5107 -0.3981
40358SOL    HW127935   3.716   4.554   1.667 -0.3010  0.5441  1.6140
40358SOL    HW227936   3.855   4.605   1.635 -0.0955 -1.1433 -0.4487
40359SOL     OW27937   8.339   3.045  10.877 -0.1692 -0.3873 -0.5624
40359SOL    HW127938   8.360   2.955  10.903 -0.6441 -0.0837  1.0323
40359SOL    HW227939   8.245   3.054  10.895 -0.5749 -0.1618 -2.6356
40360SOL     OW27940   8.480   4.444  12.214 -0.3886  0.3195  0.3583
40360SOL    HW127941   8.562   4.463  12.259 -0.4468 -1.1163  1.1485
40360SOL    HW227942   8.491   4.355  12.180 -1.3578  0.3638 -0.1189
40361SOL     OW27943   1.697  12.374   2.731  0.0931  0.2893  0.1339
40361SOL    HW127944   1.634  12.435   2.691  0.7372  0.0435 -1.2963
40361SOL    HW227945   1.709  12.407   2.820 -1.6241  0.6682  0.2612
40362SOL     OW27946   8.873   7.789   3.679 -0.6469 -0.3874  0.6486
40362SOL    HW127947   8.842   7.765   3.767 -2.0125 -0.7548  0.0927
40362SOL    HW227948   8.966   7.768   3.680 -0.6232 -0.3230  2.0324
40363SOL     OW27949   6.522  10.315   7.986 -0.1172  0.3840 -0.0065
40363SOL    HW127950   6.593  10.277   8.038  0.1036 -0.3640 -0.8289
40363SOL    HW227951   6.481  10.240   7.942 -1.0566  0.8721  0.0093
40364SOL     OW27952   5.237  11.163   2.545 -0.0891 -0.3962  0.4427
40364SOL    HW127953   5.225  11.242   2.494  0.0041  0.8075  2.1946
40364SOL    HW227954   5.154  11.151   2.591 -0.4601 -1.9163 -0.5397
40365SOL     OW27955   2.722   4.734   1.350  0.2929  0.0955 -0.7888
40365SOL    HW127956   2.646   4.677   1.362  0.7647 -0.9798 -2.5361
40365SOL    HW227957   2.785   4.704   1.415  0.3596 -1.1114 -1.3828
40366SOL     OW27958   0.104   7.661   9.431 -0.0688 -0.3367 -0.3409
40366SOL    HW127959   0.140   7.572   9.435 -0.0884 -0.3791 -1.0114
40366SOL    HW227960   0.149   7.702   9.357  0.5491  0.4900  0.4670
40367SOL     OW27961   4.327  10.887   3.623 -0.0200  0.5349 -0.4226
40367SOL    HW127962   4.238  10.899   3.657 -0.6266  0.7200 -1.9792
40367SOL    HW227963   4.317  10.826   3.551  1.2214  0.1130 -0.2616
40368SOL     OW27964   6.552   8.430   1.613 -0.0574  0.0857 -0.3035
40368SOL    HW127965   6.606   8.424   1.534  1.0197  1.0719  0.3219
40368SOL    HW227966   6.552   8.341   1.649  0.1681 -0.1762 -0.9376
40369SOL     OW27967  10.031   2.342  12.378  0.2147 -0.1653 -0.0976
40369SOL    HW127968   9.961   2.381  12.431  0.5802  2.9017 -1.6736
40369SOL    HW227969  10.103   2.331  12.439 -1.1013 -2.0437  1.2377
40370SOL     OW27970   2.374  11.104   2.071  0.0108  0.2875 -0.5406
40370SOL    HW127971   2.357  11.010   2.069  0.7295  0.0997  0.9724
40370SOL    HW227972   2.366  11.129   2.163  0.8498  1.5112 -0.7642
40371SOL     OW27973   4.131   2.888   8.359  0.5424  0.3788 -0.2307
40371SOL    HW127974   4.205   2.835   8.387  0.6686  0.7380  0.1348
40371SOL    HW227975   4.129   2.961   8.422 -1.8553 -1.1050  1.5891
40372SOL     OW27976  10.487  10.889   8.554 -0.2295  0.1556  0.8168
40372SOL    HW127977  10.432  10.965   8.534 -2.8466 -0.6669  3.9485
40372SOL    HW227978  10.445  10.816   8.509 -1.3170 -0.3315  2.5256
40373SOL     OW27979   0.664   4.364   7.120 -0.5641 -0.8543  0.2849
40373SOL    HW127980   0.705   4.344   7.036  0.2398 -2.0227  0.9141
40373SOL    HW227981   0.655   4.278   7.163 -3.2028 -0.6023  0.4160
40374SOL     OW27982   2.878   5.771   6.673  0.0077  0.7339  0.2105
40374SOL    HW127983   2.883   5.700   6.738  2.0062  1.0805  0.5139
40374SOL    HW227984   2.958   5.761   6.621 -0.6206  1.6403 -0.9661
40375SOL     OW27985   8.892   0.742   4.682 -0.6334 -0.0299  0.6317
40375SOL    HW127986   8.920   0.733   4.773  2.5859 -0.5916 -0.3000
40375SOL    HW227987   8.901   0.836   4.663  2.0837 -0.3291  0.0290
40376SOL     OW27988  11.347  10.082   3.717 -0.5086  0.1644 -0.5536
40376SOL    HW127989  11.322  10.120   3.632 -0.3687  1.3382 -0.0894
40376SOL    HW227990  11.413  10.142   3.751 -0.8527 -0.0876  0.5743
40377SOL     OW27991   0.031   5.361  12.181  0.2456 -0.1090 -0.2142
40377SOL    HW127992  -0.055   5.341  12.218  0.7684 -1.3533  0.3875
40377SOL    HW227993   0.012   5.398  12.094 -0.8867 -0.2245 -0.0312
40378SOL     OW27994  10.120  11.312   1.193 -0.4780 -0.3495 -0.1839
40378SOL    HW127995  10.029  11.286   1.184 -0.9318  1.0664  0.0744
40378SOL    HW227996  10.140  11.299   1.285 -0.5467 -0.2903 -0.1604
40379SOL     OW27997  11.913  11.534   5.464  0.1814  0.5482  0.0608
40379SOL    HW127998  11.924  11.463   5.402  0.9954  0.6768  0.0554
40379SOL    HW227999  11.852  11.499   5.530  1.5339 -0.6170  0.7430
40380SOL     OW28000   7.531   8.293  10.199  0.7964  0.1434 -0.2121
40380SOL    HW128001   7.513   8.237  10.275 -0.8529 -0.8338 -1.2492
40380SOL    HW228002   7.577   8.369  10.235 -1.7162  0.7081  2.1217
40381SOL     OW28003  10.801   8.786   5.629 -0.2980  0.5233  0.0008
40381SOL    HW128004  10.767   8.700   5.655 -0.1616  0.1220 -1.0914
40381SOL    HW228005  10.796   8.839   5.709 -1.4133 -0.1759  0.4249
40382SOL     OW28006   7.810  11.376   9.687  0.0544 -0.7314 -0.3021
40382SOL    HW128007   7.765  11.304   9.733  0.7754 -2.9580 -2.8016
40382SOL    HW228008   7.902  11.363   9.707  0.0443  0.8909  0.9528
40383SOL     OW28009   8.219   2.705   5.730 -0.1172 -0.1585  0.2996
40383SOL    HW128010   8.158   2.631   5.721  0.0930 -0.2078 -0.9235
40383SOL    HW228011   8.163   2.782   5.739 -0.3494 -0.3303  0.3408
40384SOL     OW28012   7.967   2.225   4.843 -0.4712 -0.3273 -0.2007
40384SOL    HW128013   8.051   2.224   4.797 -0.4426  0.5487 -0.1832
40384SOL    HW228014   7.979   2.287   4.915 -0.2584 -2.2941  1.5407
40385SOL     OW28015   6.142   2.781   9.919 -0.0234  0.6379  0.5189
40385SOL    HW128016   6.084   2.794   9.844 -0.4471  0.7520  0.8689
40385SOL    HW228017   6.128   2.689   9.944 -0.7847  0.9385  1.2177
40386SOL     OW28018  11.613   2.066  10.735  0.3506 -0.0944 -0.0422
40386SOL    HW128019  11.696   2.036  10.772  0.2258 -1.2333 -0.6492
40386SOL    HW228020  11.573   1.988  10.697 -0.8326  0.5047 -0.0951
40387SOL     OW28021   2.051   1.433   1.250 -0.1770 -0.3659 -0.8415
40387SOL    HW128022   2.088   1.445   1.337 -1.2380 -0.5671 -0.3373
40387SOL    HW228023   1.965   1.392   1.266  0.1178 -1.5375 -2.0454
40388SOL     OW28024   7.703   7.009   9.119 -0.4360 -0.0478 -0.2984
40388SOL    HW128025   7.633   6.973   9.066  1.2065 -1.6447 -1.5143
40388SOL    HW228026   7.698   6.962   9.202 -1.5127  0.7416  0.1174
40389SOL     OW28027   7.830   5.834   0.452  0.5981 -0.0920 -0.4236
40389SOL    HW128028   7.739   5.807   0.439  1.1025 -1.0399 -2.2708
40389SOL    HW228029   7.831   5.871   0.541 -1.1710 -1.8227  0.4099
40390SOL     OW28030   0.451   9.920   6.183 -0.2703 -0.0198 -0.1400
40390SOL    HW128031   0.497   9.994   6.144  0.8562  0.3511  1.7929
40390SOL    HW228032   0.483   9.844   6.135  0.5749  0.4835 -0.3870
40391SOL     OW28033   8.088   6.348   6.502  0.4205  0.1277  0.1966
40391SOL    HW128034   8.143   6.271   6.514 -0.0048 -0.3227 -0.6636
40391SOL    HW228035   7.998   6.315   6.508  0.2274  0.8634  1.6371
40392SOL     OW28036   6.870  12.459   1.145  0.2603 -0.9939 -0.5233
40392SOL    HW128037   6.780  12.449   1.176 -0.0208 -1.4322 -1.4546
40392SOL    HW228038   6.896  12.545   1.178 -0.6649 -0.6503 -0.6398
40393SOL     OW28039   0.844  12.021  11.347 -0.0033 -0.8823 -0.2650
40393SOL    HW128040   0.829  11.995  11.256 -3.0683 -0.8549  0.1243
40393SOL    HW228041   0.760  12.006  11.391  0.4156  1.9850  1.8499
40394SOL     OW28042   7.840   0.586   3.531 -0.1388 -0.5944 -0.0003
40394SOL    HW128043   7.904   0.572   3.601 -2.4456 -0.2719  2.3066
40394SOL    HW228044   7.781   0.511   3.538 -0.6663 -0.3283 -1.3520
40395SOL     OW28045   5.679   8.674  10.011  0.2979 -0.0338  0.2131
40395SOL    HW128046   5.638   8.684  10.097 -0.0155  1.2191 -0.0539
40395SOL    HW228047   5.658   8.585   9.984  1.1013 -0.7239  1.7793
40396SOL     OW28048   2.544   2.480   0.351  0.1381 -0.4039 -0.4537
40396SOL    HW128049   2.521   2.572   0.366  1.3214 -0.2816  0.8563
40396SOL    HW228050   2.471   2.431   0.388 -0.6141 -0.0109 -1.3713
40397SOL     OW28051   3.826   7.432  10.693 -0.8127 -0.0386 -0.2526
40397SOL    HW128052   3.851   7.455  10.782  0.7016 -0.7007 -0.4769
40397SOL    HW228053   3.781   7.509  10.659  2.5609  2.0501 -0.4160
40398SOL     OW28054   9.046   9.696   6.062  0.5573 -0.2158 -0.2801
40398SOL    HW128055   8.954   9.694   6.034  0.6837  2.6815 -1.2918
40398SOL    HW228056   9.047   9.648   6.145 -1.7342 -0.8389 -0.5325
40399SOL     OW28057   8.642   8.475   7.837  0.4782 -0.0532  0.5375
40399SOL    HW128058   8.720   8.439   7.879  0.0378 -0.8209  0.7249
40399SOL    HW228059   8.590   8.398   7.812 -0.2438  0.4402  0.4653
40400SOL     OW28060   0.996   1.943   3.132 -0.0375 -0.4298  0.1274
40400SOL    HW128061   0.957   2.025   3.164 -0.5483 -1.6423  2.8859
40400SOL    HW228062   1.053   1.971   3.061 -0.2328  2.3215  0.9036
40401SOL     OW28063   6.145   2.625   3.698 -0.4005 -0.1168 -0.0827
40401SOL    HW128064   6.146   2.718   3.677  0.3860 -0.3353 -1.1000
40401SOL    HW228065   6.060   2.611   3.739 -1.1167  0.7794 -1.1939
40402SOL     OW28066  12.242  10.961   1.169  0.5262 -0.1653 -0.1628
40402SOL    HW128067  12.232  10.866   1.158 -3.5999  0.3650 -3.3486
40402SOL    HW228068  12.308  10.985   1.103  0.5732 -0.6780 -0.3105
40403SOL     OW28069   5.313   2.149   0.059 -0.1517  0.2363 -0.0672
40403SOL    HW128070   5.244   2.092   0.094 -0.6795  0.3878 -0.8226
40403SOL    HW228071   5.359   2.182   0.136 -0.8995  0.0934  0.4546
40404SOL     OW28072   9.033   8.700   6.683 -0.4951  0.2011 -0.3732
40404SOL    HW128073   9.070   8.721   6.597  0.5627  0.7342  0.1996
40404SOL    HW228074   9.109   8.688   6.740 -1.1682 -0.9125  0.3228
40405SOL     OW28075  12.111  11.840   6.128 -0.3233  0.2746 -0.4296
40405SOL    HW128076  12.137  11.890   6.051 -0.7337  0.8427 -0.2023
40405SOL    HW228077  12.020  11.815   6.111 -0.0639 -0.5676 -0.6279
40406SOL     OW28078   5.650   8.635  11.998  0.2142 -0.1244 -0.4312
40406SOL    HW128079   5.737   8.595  12.004  0.5674  0.4999 -1.1699
40406SOL    HW228080   5.633   8.672  12.084  1.3228  1.0193 -0.6781
40407SOL     OW28081   7.835   4.685  11.664 -0.3034 -0.1413  0.5629
40407SOL    HW128082   7.752   4.659  11.704 -0.4718 -0.1093  0.2344
40407SOL    HW228083   7.853   4.618  11.599 -0.4026  0.1984  0.1791
40408SOL     OW28084   6.370   4.120   2.977  0.2392 -0.0998 -0.7874
40408SOL    HW128085   6.454   4.103   3.020 -0.4192 -1.6630 -0.0251
40408SOL    HW228086   6.305   4.102   3.045 -0.7081  2.3095 -0.9760
40409SOL     OW28087   6.105  10.336  11.502  0.5822 -0.2275  0.4427
40409SOL    HW128088   6.118  10.413  11.557 -0.8856  1.2166 -1.1425
40409SOL    HW228089   6.191  10.294  11.500  1.2090  0.8819  2.0102
40410SOL     OW28090   9.016  10.108   2.938  0.5717  0.2759  0.0614
40410SOL    HW128091   9.026  10.013   2.934  0.0261  0.2627 -1.4046
40410SOL    HW228092   8.972  10.131   2.856  0.4323  1.7610  0.5298
40411SOL     OW28093   0.299   3.787   0.603  0.6177  0.2901 -0.1695
40411SOL    HW128094   0.265   3.867   0.643 -0.2821  0.3182 -0.9331
40411SOL    HW228095   0.232   3.763   0.538  0.3866 -1.6081  0.6922
40412SOL     OW28096   2.589   7.660  12.338  0.5622  0.1849  0.3442
40412SOL    HW128097   2.547   7.583  12.375  1.8774 -0.6766  0.0779
40412SOL    HW228098   2.515   7.717  12.314 -0.4858 -1.4210 -0.4402
40413SOL     OW28099   1.450   5.899   3.318 -0.5510  0.0416 -0.2525
40413SOL    HW128100   1.493   5.827   3.363 -1.3039 -0.4041 -0.2283
40413SOL    HW228101   1.488   5.900   3.230  1.7626  1.6304  0.6725
40414SOL     OW28102   5.232   7.135   4.949  0.0743 -0.3121 -0.0737
40414SOL    HW128103   5.210   7.163   5.038 -0.4741 -2.6679  0.5975
40414SOL    HW228104   5.163   7.073   4.925  1.7528 -1.9417 -0.9712
40415SOL     OW28105   0.292  11.175   1.715  0.1178 -0.3859  0.2603
40415SOL    HW128106   0.366  11.171   1.775  0.0972  1.3984  0.4486
40415SOL    HW228107   0.215  11.181   1.772  0.1589  2.3608  0.1536
40416SOL     OW28108   7.171   3.426   3.096 -0.8476 -0.1507 -0.4635
40416SOL    HW128109   7.090   3.468   3.066 -2.3503 -2.2375  0.3880
40416SOL    HW228110   7.175   3.445   3.190 -0.5816 -0.4296 -0.4169
40417SOL     OW28111   3.334   9.342  11.407  0.1677 -0.1751  0.0884
40417SOL    HW128112   3.415   9.374  11.366 -0.4353  2.5197  0.7916
40417SOL    HW228113   3.342   9.367  11.499 -0.9328 -1.0255  0.4373
40418SOL     OW28114   6.388   7.443  10.797 -0.5348 -0.2426  0.2286
40418SOL    HW128115   6.465   7.393  10.770 -1.9070 -1.9520 -0.7378
40418SOL    HW228116   6.418   7.497  10.870  1.6038 -0.7139 -0.2533
40419SOL     OW28117   8.230   8.242   5.132  0.7876  0.0421 -0.0520
40419SOL    HW128118   8.211   8.245   5.225 -2.3552  0.5800 -0.6148
40419SOL    HW228119   8.236   8.149   5.111  0.4283 -0.1097  0.5078
40420SOL     OW28120  11.953   4.006   5.203 -0.0593 -0.3785 -0.4114
40420SOL    HW128121  12.042   4.022   5.170 -0.5105 -1.1852 -2.1621
40420SOL    HW228122  11.953   4.042   5.291  2.4121 -1.5007  0.1443
40421SOL     OW28123   2.304   9.341   9.115  0.4439 -0.6997 -0.0658
40421SOL    HW128124   2.261   9.426   9.110  1.5960  0.0558  1.6852
40421SOL    HW228125   2.246   9.287   9.168  0.6343 -0.3589  0.4963
40422SOL     OW28126  10.896   1.453   6.398 -0.3157  0.4226 -0.3208
40422SOL    HW128127  10.885   1.457   6.303 -1.1152  1.3379 -0.2017
40422SOL    HW228128  10.832   1.515   6.432  0.8235  1.0574  0.7511
40423SOL     OW28129   6.814  10.845   0.048  0.2932 -0.4458  0.1017
40423SOL    HW128130   6.882  10.903   0.011  0.4214  0.7763  2.1250
40423SOL    HW228131   6.734  10.872   0.004  0.8689 -1.0003 -1.3535
40424SOL     OW28132   5.138   8.718   7.904  0.0134 -0.2820  0.2032
40424SOL    HW128133   5.170   8.706   7.815 -1.1944  0.0228 -0.2838
40424SOL    HW228134   5.197   8.782   7.943  0.9452 -0.9086 -0.1572
40425SOL     OW28135   5.051   0.308   3.817  0.0768 -0.7266 -0.1609
40425SOL    HW128136   5.065   0.266   3.901 -0.7362 -0.9412 -0.1250
40425SOL    HW228137   5.121   0.275   3.761  0.4711 -0.7735  0.3586
40426SOL     OW28138   7.451   3.988   8.304 -0.0748 -0.3338 -0.3076
40426SOL    HW128139   7.373   3.941   8.332  0.9288 -1.5485  0.5165
40426SOL    HW228140   7.521   3.955   8.359  0.7355  2.0060  0.1814
40427SOL     OW28141   2.114   6.768   5.840 -0.0627  0.0827  0.0036
40427SOL    HW128142   2.129   6.854   5.879 -1.2840  0.7094 -0.8361
40427SOL    HW228143   2.153   6.774   5.753  2.0527 -1.0800  0.8185
40428SOL     OW28144   7.420   5.886   1.028  0.0124 -0.6067 -0.1487
40428SOL    HW128145   7.448   5.813   0.973 -1.3311 -1.3493  0.1255
40428SOL    HW228146   7.487   5.953   1.013  1.0134 -1.6933 -0.7755
40429SOL     OW28147   8.752   7.805   5.973 -0.1349  0.4764 -0.2845
40429SOL    HW128148   8.748   7.762   5.887  0.4318 -0.3194  0.0739
40429SOL    HW228149   8.745   7.734   6.036  1.3691  0.8252  0.3285
40430SOL     OW28150   3.731   7.132   3.105  0.1676 -0.2181 -0.7081
40430SOL    HW128151   3.709   7.051   3.152  0.9088  0.1142  0.2366
40430SOL    HW228152   3.761   7.102   3.019  0.7544 -0.9853 -0.2498
40431SOL     OW28153   4.356   2.471   4.652  0.3497  0.6238 -0.2121
40431SOL    HW128154   4.382   2.548   4.601  0.6539  0.1037 -0.8627
40431SOL    HW228155   4.341   2.403   4.586 -0.5193  0.2965  0.3080
40432SOL     OW28156   8.695  10.834   2.536  0.4028 -0.0754 -0.2388
40432SOL    HW128157   8.771  10.891   2.543  1.6458 -1.8291  1.1579
40432SOL    HW228158   8.724  10.749   2.568 -1.7472 -1.2040 -1.0256
40433SOL     OW28159   5.522  10.253   6.507  0.3735  0.4513  0.2599
40433SOL    HW128160   5.513  10.324   6.443 -0.3775  0.4166  0.3120
40433SOL    HW228161   5.560  10.294   6.584  0.9263  0.5742 -0.0689
40434SOL     OW28162  12.207   3.444   0.729  0.9762 -0.0889  0.1994
40434SOL    HW128163  12.249   3.430   0.813  0.4049 -0.3228  0.4530
40434SOL    HW228164  12.264   3.504   0.682  1.2735  0.0720  0.7717
40435SOL     OW28165  10.050   9.892   1.559  0.0306  0.1636 -0.5772
40435SOL    HW128166  10.137   9.861   1.532 -0.2064 -0.4552 -0.6442
40435SOL    HW228167  10.058   9.907   1.653 -0.2414 -1.4720 -0.2769
40436SOL     OW28168   7.355   5.996   3.604 -1.0258  0.6319 -0.2126
40436SOL    HW128169   7.429   5.936   3.598 -0.6731  1.2000 -1.9433
40436SOL    HW228170   7.329   6.012   3.513 -2.5320  1.3701  0.3103
40437SOL     OW28171   1.312   6.534   4.348  0.3299  0.4304 -0.1993
40437SOL    HW128172   1.251   6.460   4.341  0.3754  0.5480 -2.4389
40437SOL    HW228173   1.314   6.555   4.441 -1.7654 -0.6448  0.1285
40438SOL     OW28174   6.810  11.414  10.371 -0.5393 -0.7799 -0.5075
40438SOL    HW128175   6.769  11.341  10.325  0.9374 -2.2360  0.4058
40438SOL    HW228176   6.743  11.445  10.432  0.0438 -4.2073  2.1872
40439SOL     OW28177   5.158  11.419  10.624  0.3779 -0.6086 -0.0386
40439SOL    HW128178   5.237  11.465  10.596 -0.8073  1.9220  0.5522
40439SOL    HW228179   5.150  11.439  10.717 -1.1854 -0.4588 -0.1787
40440SOL     OW28180   4.281   1.981  11.354  0.0261  0.5712 -0.0071
40440SOL    HW128181   4.274   2.063  11.306  0.5856  0.5616 -0.1207
40440SOL    HW228182   4.241   1.916  11.296  1.7765  0.3416 -1.0591
40441SOL     OW28183  10.122  10.299   2.224 -0.0957  0.3034 -0.2791
40441SOL    HW128184  10.204  10.282   2.269  1.4095 -1.2150 -3.2966
40441SOL    HW228185  10.056  10.300   2.293  2.3556  1.3436  2.2355
40442SOL     OW28186   1.272   3.526  12.289  0.4424 -0.1448 -0.2907
40442SOL    HW128187   1.276   3.593  12.358 -1.4328 -2.2419  2.0303
40442SOL    HW228188   1.328   3.561  12.219  2.9015  1.9097  2.4259
40443SOL     OW28189  12.403   3.957   7.113  0.0707 -0.2695 -0.4437
40443SOL    HW128190  12.362   3.885   7.065  0.3734 -0.3265 -0.6168
40443SOL    HW228191  12.465   3.996   7.051  0.2762 -0.1796 -0.1860
40444SOL     OW28192   2.169   6.956  11.462  0.4646  0.4847  0.3980
40444SOL    HW128193   2.172   7.019  11.390 -0.9946 -0.1854 -0.2998
40444SOL    HW228194   2.235   6.890  11.440 -0.7675 -0.3416 -0.9819
40445SOL     OW28195   0.967   6.084  10.110 -0.0360 -0.4863 -0.0427
40445SOL    HW128196   0.957   5.991  10.134  0.6851 -0.0209  2.3562
40445SOL    HW228197   0.888   6.105  10.061 -0.8583 -2.0299  0.5613
40446SOL     OW28198   4.505   8.871   1.598 -0.3083 -0.1815  0.7032
40446SOL    HW128199   4.474   8.932   1.531 -0.9411 -0.1638  0.9973
40446SOL    HW228200   4.576   8.823   1.556  1.3685  1.8818  0.9943
40447SOL     OW28201   0.209  10.155   2.737 -0.3207 -0.7304 -0.1016
40447SOL    HW128202   0.273  10.091   2.769  1.7660  1.5718  0.6374
40447SOL    HW228203   0.218  10.151   2.641  2.0208  0.5093  0.0122
40448SOL     OW28204   9.194   2.669   6.495 -0.2266 -0.0901  0.4147
40448SOL    HW128205   9.143   2.633   6.567 -4.2788  0.4128 -1.9079
40448SOL    HW228206   9.171   2.614   6.420  0.6528  1.7618 -1.3007
40449SOL     OW28207   2.866   6.078   4.138  0.3340  0.5641  0.0076
40449SOL    HW128208   2.901   6.066   4.050 -0.5294 -2.8001  0.0013
40449SOL    HW228209   2.789   6.134   4.126 -1.1408 -1.6907 -1.8323
40450SOL     OW28210   1.242   0.175   8.017 -0.1342  0.5062  0.4521
40450SOL    HW128211   1.274   0.258   7.982  0.7072  0.0380  0.0853
40450SOL    HW228212   1.156   0.164   7.976 -0.8826  1.8313  1.5419
40451SOL     OW28213   5.388   5.462   3.202 -0.0556  0.0963 -0.6611
40451SOL    HW128214   5.404   5.402   3.275  0.3037  0.4219 -0.4659
40451SOL    HW228215   5.383   5.549   3.243 -0.9498  0.1605 -0.8919
40452SOL     OW28216   4.519  12.191   0.322 -0.0930 -0.1411 -0.9163
40452SOL    HW128217   4.509  12.255   0.252 -0.7509  2.0553  1.0369
40452SOL    HW228218   4.433  12.188   0.365  0.7102 -0.1433  0.7875
40453SOL     OW28219   3.279   1.365   2.454 -0.1946 -0.2589  0.2681
40453SOL    HW128220   3.283   1.441   2.397 -0.2506 -0.2175  0.3198
40453SOL    HW228221   3.299   1.291   2.397  1.7454 -0.0331  0.5863
40454SOL     OW28222   9.595   3.598   6.166 -0.5512 -0.3790  0.7908
40454SOL    HW128223   9.520   3.577   6.111  0.4781 -0.9464 -0.4366
40454SOL    HW228224   9.651   3.521   6.162 -0.2628 -0.2889  2.3541
40455SOL     OW28225   0.970   1.173   6.397 -0.5357 -0.2708 -0.7333
40455SOL    HW128226   0.895   1.118   6.372 -0.3344 -0.1287 -1.6546
40455SOL    HW228227   0.934   1.261   6.403 -0.8320 -0.4587  0.6282
40456SOL     OW28228  10.645   3.306   7.429 -0.5265 -0.3797 -0.1720
40456SOL    HW128229  10.627   3.304   7.335 -1.0060 -1.0558 -0.0701
40456SOL    HW228230  10.716   3.244   7.441 -1.2656 -1.1971  0.0695
40457SOL     OW28231  10.797   2.422   6.157 -0.1234  0.1871  0.3747
40457SOL    HW128232  10.854   2.367   6.210  3.5236  0.4666 -2.8155
40457SOL    HW228233  10.743   2.360   6.107 -1.8006 -0.1093  2.4165
40458SOL     OW28234   0.301   0.771   1.556  0.1778 -0.7261 -0.0324
40458SOL    HW128235   0.330   0.685   1.586 -0.3150 -0.5985  0.8219
40458SOL    HW228236   0.253   0.808   1.629  0.1660  0.1826 -0.4781
40459SOL     OW28237   6.374  10.657   4.492 -0.0858  0.6464  0.4502
40459SOL    HW128238   6.366  10.593   4.422  1.2943 -0.5025  1.2912
40459SOL    HW228239   6.342  10.612   4.570 -0.2251  1.4008  0.8406
40460SOL     OW28240   9.134   6.270   7.636 -0.3758  0.5007 -0.1916
40460SOL    HW128241   9.210   6.321   7.607 -0.6434  0.6911 -0.5646
40460SOL    HW228242   9.110   6.217   7.560 -0.2590  0.0069  0.1127
40461SOL     OW28243  11.935   9.834   2.043  0.6446  0.2253 -0.0767
40461SOL    HW128244  11.885   9.822   1.963  0.3607 -2.6951  0.4303
40461SOL    HW228245  12.011   9.776   2.033  2.2485  2.1020  0.5452
40462SOL     OW28246   6.835   3.524  11.072  0.0508  0.3962 -0.0557
40462SOL    HW128247   6.771   3.465  11.113 -0.8773 -0.1263 -2.1047
40462SOL    HW228248   6.917   3.507  11.119 -0.8540 -0.4011  1.3053
40463SOL     OW28249   9.116  11.244  12.399 -0.4065 -0.1999 -0.0699
40463SOL    HW128250   9.027  11.216  12.419 -0.8023  0.7889 -0.3821
40463SOL    HW228251   9.121  11.334  12.432  0.8465 -0.6122  0.9697
40464SOL     OW28252   7.190   7.389  10.000 -0.4251  1.0966 -0.0998
40464SOL    HW128253   7.233   7.472   9.983  1.7177  0.2154  0.6734
40464SOL    HW228254   7.152   7.398  10.087 -0.3399  1.3050 -0.0860
40465SOL     OW28255   5.248  11.518   7.798 -0.3998 -0.4762 -0.3705
40465SOL    HW128256   5.195  11.488   7.724 -1.9163  2.1518 -0.4784
40465SOL    HW228257   5.320  11.566   7.757 -0.5474 -0.0796 -0.1675
40466SOL     OW28258  10.264  12.265   0.995 -0.1407  0.5359  0.3152
40466SOL    HW128259  10.274  12.352   1.033  0.6205  0.5992 -0.0072
40466SOL    HW228260  10.195  12.224   1.047  0.0030  1.0708  0.9430
40467SOL     OW28261   3.693   5.583   0.950 -0.2227  0.3114  0.0057
40467SOL    HW128262   3.618   5.543   0.906  0.9118 -0.8394 -0.9868
40467SOL    HW228263   3.763   5.581   0.884  1.3362 -0.7813  1.6055
40468SOL     OW28264   5.174   0.778   9.257  0.0807 -0.8439 -0.2720
40468SOL    HW128265   5.221   0.801   9.337 -0.2887  1.8415 -0.7055
40468SOL    HW228266   5.094   0.734   9.287  0.4453 -0.8067  0.7688
40469SOL     OW28267   1.674   8.782   3.316  0.1691 -0.4978 -0.3124
40469SOL    HW128268   1.702   8.869   3.345  1.8615  0.0412 -3.1281
40469SOL    HW228269   1.589   8.796   3.275 -0.6700 -0.6692  1.2907
40470SOL     OW28270  11.774   2.629   9.538  0.1256 -0.3579  0.4533
40470SOL    HW128271  11.790   2.538   9.562  0.2296 -0.6263 -0.5890
40470SOL    HW228272  11.701   2.625   9.476 -2.3295  0.5981  3.0503
40471SOL     OW28273   7.379   3.895  11.806  0.0746  0.0500 -0.1769
40471SOL    HW128274   7.463   3.902  11.852 -0.4141 -0.8313  0.8974
40471SOL    HW228275   7.400   3.914  11.715  1.6399 -1.1055 -0.1081
40472SOL     OW28276   9.831   2.802   3.518 -0.1349  0.0435 -0.1747
40472SOL    HW128277   9.867   2.751   3.591  2.1998  0.1828 -1.1198
40472SOL    HW228278   9.833   2.741   3.444  2.2503  1.2592 -1.2088
40473SOL     OW28279   6.290   9.143   2.154 -0.5850  0.0503  0.0972
40473SOL    HW128280   6.226   9.077   2.182 -2.4896  2.3048  1.5526
40473SOL    HW228281   6.366   9.093   2.127 -2.7455 -2.8184 -1.2211
40474SOL     OW28282   8.111   2.942  10.429  0.4915  0.3865 -0.0461
40474SOL    HW128283   8.104   3.005  10.501  1.3308 -0.4312  0.7821
40474SOL    HW228284   8.112   2.996  10.350 -5.0813  1.2437  0.0374
40475SOL     OW28285  12.465   5.040  11.184 -0.6930 -0.0186  0.1746
40475SOL    HW128286  12.449   4.946  11.175 -0.3310 -0.1476  0.8619
40475SOL    HW228287  12.532   5.059  11.118 -0.0209 -0.4406  0.7285
40476SOL     OW28288   9.091  11.494   1.601 -0.2916  0.1300  0.1801
40476SOL    HW128289   9.001  11.513   1.627 -0.6456 -1.5344  0.3021
40476SOL    HW228290   9.105  11.544   1.521 -0.8685  1.4216  0.8565
40477SOL     OW28291  12.199  12.252   1.689 -0.2399 -0.2549 -0.1067
40477SOL    HW128292  12.286  12.254   1.730 -1.0994 -2.6052  2.0425
40477SOL    HW228293  12.197  12.171   1.639 -1.0450  0.0619 -0.6176
40478SOL     OW28294   7.928   7.968  10.325 -0.0741 -0.7636  0.6270
40478SOL    HW128295   7.869   8.022  10.379  0.0960 -0.6752  0.7255
40478SOL    HW228296   7.922   7.881  10.364  0.4528 -0.5858  1.1241
40479SOL     OW28297   9.345   2.444   5.197 -0.3268  0.3893 -0.3012
40479SOL    HW128298   9.335   2.508   5.267  0.2930  0.6431 -0.4350
40479SOL    HW228299   9.292   2.369   5.224  1.5363 -0.3759  1.4600
40480SOL     OW28300   3.600  10.102  11.099  0.0551  0.3105  0.0592
40480SOL    HW128301   3.509  10.073  11.091 -0.4246  1.6933  0.3072
40480SOL    HW228302   3.651  10.029  11.063 -1.1901 -0.1396 -0.8702
40481SOL     OW28303   2.983  10.815   8.788  0.2378 -0.1600 -0.0224
40481SOL    HW128304   2.933  10.752   8.840 -0.0734 -0.6179 -0.8604
40481SOL    HW228305   3.054  10.763   8.750 -0.2393 -0.1025 -1.0226
40482SOL     OW28306   7.484  11.474   0.844  0.2457 -0.1284 -0.3928
40482SOL    HW128307   7.420  11.447   0.778  0.5223 -0.6311 -0.4645
40482SOL    HW228308   7.439  11.462   0.927  0.4839 -1.1924 -0.4019
40483SOL     OW28309   4.022   1.369   0.693  0.0150  0.0171  0.6442
40483SOL    HW128310   3.984   1.407   0.772  1.1688  0.4600  1.0189
40483SOL    HW228311   4.060   1.443   0.646  0.5078 -0.4100  0.3509
40484SOL     OW28312   3.148  11.400   6.507  0.0974 -0.1885 -0.0621
40484SOL    HW128313   3.213  11.357   6.562 -0.0088 -0.6423 -0.2833
40484SOL    HW228314   3.142  11.344   6.429 -1.2977 -0.7205  0.3994
40485SOL     OW28315   6.088   6.266  11.351  0.3352 -0.5448 -0.0780
40485SOL    HW128316   6.111   6.358  11.335 -0.3923  0.5171  3.9614
40485SOL    HW228317   6.001   6.256  11.312  0.4339  0.4252 -0.5748
40486SOL     OW28318   6.914   2.718   3.378  0.5606  0.2024 -0.2772
40486SOL    HW128319   6.829   2.760   3.364 -0.5154 -1.6223  0.4288
40486SOL    HW228320   6.976   2.791   3.380 -0.9198  1.5750 -1.0891
40487SOL     OW28321   9.331   0.997  10.272  0.3161  0.5428 -0.1273
40487SOL    HW128322   9.321   1.028  10.182 -1.8315  1.0582  0.2303
40487SOL    HW228323   9.245   0.962  10.295 -0.8177  4.7620  3.2813
40488SOL     OW28324  10.489   2.001  11.378 -0.4848 -0.0091  0.3279
40488SOL    HW128325  10.489   2.062  11.452 -4.0480  0.8731 -0.1932
40488SOL    HW228326  10.462   1.918  11.416 -2.5747  0.5043  0.1046
40489SOL     OW28327   9.902   2.448   1.459 -0.1494 -0.6704  0.2462
40489SOL    HW128328   9.843   2.459   1.533  0.3274 -2.8413  1.0031
40489SOL    HW228329   9.965   2.519   1.468  0.3700 -1.3397  2.3940
40490SOL     OW28330   5.312   9.839   4.867  0.4590  0.0740 -1.1563
40490SOL    HW128331   5.225   9.846   4.827  0.1618 -0.7961 -0.6674
40490SOL    HW228332   5.373   9.841   4.793 -0.0432 -0.6282 -1.5950
40491SOL     OW28333   9.319   2.894   3.296 -0.0739 -0.1538  0.1938
40491SOL    HW128334   9.413   2.910   3.302 -0.0829  0.1663 -0.4329
40491SOL    HW228335   9.311   2.799   3.298  0.1296 -0.1671  1.9479
40492SOL     OW28336   4.293   5.618   4.406 -0.0611 -0.7273 -0.3217
40492SOL    HW128337   4.261   5.573   4.328 -2.1116 -0.7057  0.4524
40492SOL    HW228338   4.232   5.690   4.418  1.8618  0.9747 -0.2500
40493SOL     OW28339   0.475   5.328   1.092  0.0931 -0.0986 -0.0612
40493SOL    HW128340   0.537   5.345   1.163  1.8408 -0.2140 -1.5055
40493SOL    HW228341   0.496   5.393   1.025 -0.5044 -0.9565 -1.1128
40494SOL     OW28342   8.808   0.784   7.074 -0.2921  0.5364  0.1851
40494SOL    HW128343   8.879   0.804   7.013 -1.8104  0.3806 -1.7297
40494SOL    HW228344   8.804   0.860   7.133  0.2911  1.3765 -0.8293
40495SOL     OW28345   6.825   2.149   2.548  0.3542  0.0634 -0.3175
40495SOL    HW128346   6.757   2.109   2.602  1.6701 -0.9499  0.6709
40495SOL    HW228347   6.793   2.140   2.458 -0.3665 -1.2888  0.0525
40496SOL     OW28348   4.974   7.660   9.082  0.3333  0.2934  0.3947
40496SOL    HW128349   5.058   7.627   9.114  0.1752  0.2345  0.7461
40496SOL    HW228350   4.971   7.632   8.990 -0.1330 -1.3343  0.8763
40497SOL     OW28351  10.126   7.007  10.115  0.1271  0.0089  0.2384
40497SOL    HW128352  10.043   7.001  10.069 -0.4603  0.0996  1.2407
40497SOL    HW228353  10.153   7.098  10.103 -1.0005  0.5691  1.6554
40498SOL     OW28354   5.183   0.103  12.357  0.1047 -0.0419 -0.3742
40498SOL    HW128355   5.256   0.063  12.309  1.0742  0.8774  0.2916
40498SOL    HW228356   5.225   0.157  12.424 -1.1660  1.5851 -0.8298
40499SOL     OW28357   9.670  10.241   8.575  0.4051  0.1463 -0.3119
40499SOL    HW128358   9.577  10.253   8.558  0.2514 -1.4288 -0.7298
40499SOL    HW228359   9.694  10.162   8.525  2.4597  1.7260 -2.0391
40500SOL     OW28360   2.441   2.369   2.871 -0.1094  0.0989  0.3206
40500SOL    HW128361   2.536   2.373   2.865 -0.0141 -2.0107 -0.5098
40500SOL    HW228362   2.422   2.367   2.965  0.7788 -0.8575  0.4945
40501SOL     OW28363  10.307   9.647   5.249  0.1055 -0.6524 -0.6589
40501SOL    HW128364  10.392   9.661   5.290 -0.4887 -0.5332  0.5704
40501SOL    HW228365  10.254   9.605   5.316 -0.4947 -1.7199 -1.7657
40502SOL     OW28366   4.180   7.856   0.469  0.2604  0.1470  0.1661
40502SOL    HW128367   4.158   7.948   0.481  1.7303  0.7046 -1.1223
40502SOL    HW228368   4.097   7.810   0.486 -0.7273  1.7605 -0.0288
40503SOL     OW28369   8.277   2.456   1.803  0.6597 -0.4363  0.4386
40503SOL    HW128370   8.195   2.405   1.802  0.0302  0.5512 -0.0580
40503SOL    HW228371   8.251   2.541   1.837  1.0944  0.5000 -1.4459
40504SOL     OW28372   0.787   4.374   3.863  0.7856 -0.0819 -1.0437
40504SOL    HW128373   0.696   4.367   3.836  0.0973  1.8345  0.6192
40504SOL    HW228374   0.832   4.306   3.812 -1.8031 -2.2201 -0.6644
40505SOL     OW28375  11.030   0.357   1.285 -0.2927  0.2322 -0.2081
40505SOL    HW128376  11.059   0.278   1.330 -1.3406  0.0868  0.2353
40505SOL    HW228377  10.955   0.387   1.336  1.3867  2.7620  0.9727
40506SOL     OW28378   8.399   9.330   3.906 -0.3436  0.0127 -0.3196
40506SOL    HW128379   8.403   9.346   4.000 -1.1483  1.1521 -0.4615
40506SOL    HW228380   8.379   9.236   3.899  1.6369 -0.5345  0.5825
40507SOL     OW28381   0.185   3.199   6.026  0.3103 -0.7009  0.2451
40507SOL    HW128382   0.243   3.139   6.073 -0.1632  0.7217  2.8268
40507SOL    HW228383   0.106   3.147   6.009  0.7204 -1.4242  0.4827
40508SOL     OW28384   5.710   1.931   5.954 -0.8369  0.8803 -0.0532
40508SOL    HW128385   5.677   1.902   5.870 -0.7965  2.0173 -0.4826
40508SOL    HW228386   5.772   1.863   5.981 -1.6188  0.0065 -0.4453
40509SOL     OW28387  10.351   7.695  10.222 -0.1413 -0.3541  0.3708
40509SOL    HW128388  10.444   7.714  10.209 -0.1986  0.1389  0.6623
40509SOL    HW228389  10.336   7.713  10.314 -0.5907 -0.1640  0.2607
40510SOL     OW28390   1.340   9.837   9.566  0.3105  1.0037 -0.0385
40510SOL    HW128391   1.294   9.890   9.501 -0.2905  2.4232  1.5004
40510SOL    HW228392   1.272   9.804   9.624  0.9161  0.5118  0.4086
40511SOL     OW28393  11.125  10.160  10.986 -0.1076 -0.4404 -0.0467
40511SOL    HW128394  11.203  10.167  11.041  1.2296  0.1680 -1.9240
40511SOL    HW228395  11.125  10.240  10.934 -1.4379 -0.9072 -0.8044
40512SOL     OW28396   4.071   6.380   0.396  0.0245  0.0170 -0.0822
40512SOL    HW128397   4.095   6.472   0.399  0.3183 -0.0553 -0.1342
40512SOL    HW228398   4.135   6.336   0.452  0.8291 -0.3465 -1.2439
40513SOL     OW28399   2.979   3.708  11.189 -0.1048 -0.2487  0.0909
40513SOL    HW128400   3.019   3.732  11.106 -2.2206 -2.0988 -1.6313
40513SOL    HW228401   2.905   3.768  11.199  0.2680  0.1053  0.7513
40514SOL     OW28402  10.681   4.642  10.246 -0.8229  0.1404 -0.5257
40514SOL    HW128403  10.757   4.682  10.204  0.3194 -1.1632  0.2226
40514SOL    HW228404  10.629   4.608  10.173  0.4004 -0.8227 -0.9889
40515SOL     OW28405   4.960   9.301   2.439 -1.1511 -0.3622 -0.0774
40515SOL    HW128406   4.907   9.280   2.516 -0.7683  1.1665  0.6336
40515SOL    HW228407   4.903   9.353   2.383 -0.4486  1.3267  0.7102
40516SOL     OW28408   5.109   8.151  12.102 -0.2732 -0.3292  0.1073
40516SOL    HW128409   5.136   8.179  12.189 -0.3136  2.7033 -0.7430
40516SOL    HW228410   5.190   8.122  12.060 -0.2244 -1.6088  1.0284
40517SOL     OW28411  11.800  10.393   9.269  0.1271 -0.2594  0.2624
40517SOL    HW128412  11.837  10.305   9.272  2.7092  0.7090  0.1167
40517SOL    HW228413  11.869  10.449   9.304 -1.6398  1.6679  0.8603
40518SOL     OW28414  10.161   2.728   3.914 -0.3880 -0.4013 -0.3593
40518SOL    HW128415  10.232   2.740   3.977 -0.7315 -0.4392  0.0400
40518SOL    HW228416  10.197   2.669   3.848  0.1858  0.1269 -0.5338
40519SOL     OW28417   2.593   5.947   2.154 -0.1598  0.1095  0.4181
40519SOL    HW128418   2.683   5.923   2.173 -0.6923 -1.6465  0.9487
40519SOL    HW228419   2.594   5.980   2.064  0.7152 -1.7118 -0.2754
40520SOL     OW28420   8.378   6.152   9.878  0.2046  0.2260 -0.5743
40520SOL    HW128421   8.424   6.177   9.798 -1.4763  0.7933 -1.4175
40520SOL    HW228422   8.313   6.088   9.849 -0.3139  0.3120  0.3600
40521SOL     OW28423   0.838   1.205   9.728 -0.0602  0.7071  0.4600
40521SOL    HW128424   0.910   1.232   9.671  0.8728 -3.1800 -0.4395
40521SOL    HW228425   0.762   1.198   9.669 -0.0382  0.3445  0.4763
40522SOL     OW28426   1.295   6.499  12.379  0.5257 -0.8812 -0.1246
40522SOL    HW128427   1.367   6.503  12.316 -0.2255  1.4158 -0.9517
40522SOL    HW228428   1.225   6.453  12.333 -0.4333  1.8062 -1.5377
40523SOL     OW28429   8.965   8.230   4.103  0.1870 -0.5163 -0.2782
40523SOL    HW128430   9.011   8.199   4.181 -0.6911 -1.6409 -0.1656
40523SOL    HW228431   8.875   8.198   4.115 -0.5664  1.3521 -0.6190
40524SOL     OW28432   6.894  10.846  12.218  0.4119  0.0347  0.0050
40524SOL    HW128433   6.827  10.913  12.202  0.4605  0.0107 -0.2947
40524SOL    HW228434   6.944  10.880  12.292  1.2236  0.9345 -0.9313
40525SOL     OW28435  10.538  10.169   0.516 -0.2474  0.4468  0.1673
40525SOL    HW128436  10.581  10.098   0.469 -1.1536 -0.4684  0.6800
40525SOL    HW228437  10.561  10.156   0.607  0.4925  1.4868  0.1486
40526SOL     OW28438   8.137   3.980   0.632  0.3383 -0.1819 -0.2315
40526SOL    HW128439   8.043   3.998   0.632  0.1091 -1.2270 -1.4915
40526SOL    HW228440   8.162   3.981   0.724 -0.8424  0.4497  0.0924
40527SOL     OW28441   6.731  10.324   1.623  0.2185 -0.6953 -1.0576
40527SOL    HW128442   6.652  10.319   1.677 -0.3420  1.2764 -1.6266
40527SOL    HW228443   6.717  10.400   1.567  1.9525 -1.1179 -2.1286
40528SOL     OW28444   8.635  11.067   9.481  0.0586  0.2855 -0.0787
40528SOL    HW128445   8.717  11.018   9.478  0.1515  0.3428  1.3142
40528SOL    HW228446   8.615  11.085   9.389 -0.5944 -3.3570 -0.8053
40529SOL     OW28447  10.043   3.455   9.233 -0.8191 -0.5114  0.3052
40529SOL    HW128448  10.041   3.369   9.276 -0.7310 -0.2021  0.9364
40529SOL    HW228449  10.111   3.504   9.280  0.0485 -0.5151 -0.8751
40530SOL     OW28450   9.402   7.885   8.726 -0.0396 -0.0896  0.2581
40530SOL    HW128451   9.435   7.970   8.754 -0.3769  0.9333 -2.2138
40530SOL    HW228452   9.383   7.839   8.808  0.0930  2.2103  1.6806
40531SOL     OW28453   1.361  12.384   8.478  0.1751 -0.5855 -0.2891
40531SOL    HW128454   1.310  12.428   8.411 -1.2876 -1.7115  0.0397
40531SOL    HW228455   1.360  12.291   8.452  0.4900 -0.8823  0.7124
40532SOL     OW28456   0.589  10.533   7.449 -0.0032 -0.1323  0.1748
40532SOL    HW128457   0.552  10.621   7.458  0.1889 -0.1748  1.8815
40532SOL    HW228458   0.673  10.538   7.496 -0.5464 -1.5167  1.3681
40533SOL     OW28459  10.451  11.488   0.338  0.3291 -0.0469 -0.0771
40533SOL    HW128460  10.484  11.453   0.255 -1.9623  0.5456 -1.3419
40533SOL    HW228461  10.461  11.583   0.329  0.0167  0.0252  0.3093
40534SOL     OW28462   8.029  11.440   4.844 -0.2615 -0.0261  0.3634
40534SOL    HW128463   7.951  11.487   4.872 -0.0954  0.3638  0.1797
40534SOL    HW228464   8.087  11.508   4.809  0.0951 -0.3310  0.3538
40535SOL     OW28465   7.867   6.211   7.597  0.1427 -0.2346 -0.4363
40535SOL    HW128466   7.816   6.182   7.521  1.4481  1.6597 -2.1611
40535SOL    HW228467   7.906   6.294   7.569  2.4777 -0.5513  1.5350
40536SOL     OW28468   2.498  11.322   3.546  0.0636  0.7336 -0.1796
40536SOL    HW128469   2.575  11.305   3.491 -0.3629  1.2792 -0.9585
40536SOL    HW228470   2.535  11.347   3.631  0.7372  0.2575 -0.3217
40537SOL     OW28471   8.506   3.707   3.501  0.6374  0.0693  0.5129
40537SOL    HW128472   8.570   3.730   3.433  0.6505 -2.6326 -0.5222
40537SOL    HW228473   8.544   3.739   3.582  2.5521 -0.0349 -0.2924
40538SOL     OW28474   2.681  10.066   0.778  0.4436  0.1592 -0.4553
40538SOL    HW128475   2.758  10.100   0.731  1.4280 -1.0324  0.2056
40538SOL    HW228476   2.719  10.012   0.848 -0.9682  1.7094  1.6085
40539SOL     OW28477   2.969  11.005   6.210 -0.1143  0.2241  0.1250
40539SOL    HW128478   2.918  10.966   6.139  1.1716 -1.2830 -0.0329
40539SOL    HW228479   2.919  10.984   6.289  0.3286 -1.4656 -0.0022
40540SOL     OW28480   5.132   0.007   1.999 -0.0074  0.3793 -0.5885
40540SOL    HW128481   5.194   0.079   2.010 -0.7529  0.9278  0.1247
40540SOL    HW228482   5.113   0.006   1.905  2.2515 -0.8180 -1.0881
40541SOL     OW28483   5.924   0.488  12.324  0.4161  0.1734 -0.0031
40541SOL    HW128484   5.908   0.539  12.403  1.0446  1.4152 -0.6567
40541SOL    HW228485   5.871   0.409  12.335 -0.4249  0.8784  1.1150
40542SOL     OW28486   1.858   7.321   6.587  0.4834 -0.1169 -0.6504
40542SOL    HW128487   1.924   7.279   6.643  0.5568 -0.1171 -0.7364
40542SOL    HW228488   1.909   7.367   6.521  0.4302  0.8305 -0.0480
40543SOL     OW28489   9.067   2.960   0.764  0.3389  0.5302 -0.0602
40543SOL    HW128490   9.133   3.021   0.795  1.2110  0.5327 -1.8208
40543SOL    HW228491   9.100   2.874   0.788  0.2496  0.6172  0.3734
40544SOL     OW28492   3.844   5.072   0.904 -0.5975 -0.0749  0.6754
40544SOL    HW128493   3.755   5.108   0.908 -0.4468  0.4795 -0.4743
40544SOL    HW228494   3.833   4.978   0.919 -1.5309 -0.1805 -0.4767
40545SOL     OW28495  11.447   0.633   3.796  0.1211  0.1698 -0.1715
40545SOL    HW128496  11.502   0.584   3.856 -0.8421 -0.3244  0.3417
40545SOL    HW228497  11.508   0.682   3.741  1.2305 -2.8247 -1.8319
40546SOL     OW28498   0.729   0.690   0.078  0.2061 -0.6873  0.4600
40546SOL    HW128499   0.675   0.768   0.088  0.0190 -0.7027 -0.3377
40546SOL    HW228500   0.715   0.662  -0.013 -0.9458 -2.5420  1.1424
40547SOL     OW28501   8.842   9.805   0.118  0.0016 -0.3952 -0.1314
40547SOL    HW128502   8.933   9.819   0.091  0.8089 -1.6598  1.7287
40547SOL    HW228503   8.812   9.891   0.148  0.7014 -0.0448 -0.4267
40548SOL     OW28504   5.996   7.502  11.063  0.6363  0.1723  0.1393
40548SOL    HW128505   6.057   7.500  10.990  1.2546 -2.8320  0.6016
40548SOL    HW228506   5.909   7.495  11.023  0.7909  0.9673 -0.3604
40549SOL     OW28507  10.773   7.305  11.099  0.8389  0.0158  0.2834
40549SOL    HW128508  10.826   7.352  11.163  0.5251  0.4150  0.2609
40549SOL    HW228509  10.781   7.213  11.124  0.2404  0.2080  1.2806
40550SOL     OW28510  12.462   2.445   4.509 -0.1545 -0.2720  0.2091
40550SOL    HW128511  12.449   2.424   4.602 -2.8499  0.7309  0.1505
40550SOL    HW228512  12.467   2.541   4.507 -0.3788 -0.2762 -0.6981
40551SOL     OW28513   4.947   4.479   6.931 -0.1859 -0.5761 -0.0055
40551SOL    HW128514   4.950   4.424   7.010 -0.4928  1.4384  1.4896
40551SOL    HW228515   4.858   4.470   6.898 -0.6379 -0.0061  1.0007
40552SOL     OW28516   0.038   1.279   0.262  0.2253 -0.2450 -0.1900
40552SOL    HW128517  -0.036   1.306   0.316  0.9511  1.5065 -0.0162
40552SOL    HW228518   0.115   1.299   0.314  0.8745 -0.9861 -0.8343
40553SOL     OW28519   0.926   6.718  11.852  0.1623 -0.0613 -0.5918
40553SOL    HW128520   0.979   6.798  11.848  0.7965 -0.4970 -1.2046
40553SOL    HW228521   0.955   6.667  11.776  0.2018 -1.1323  0.1337
40554SOL     OW28522   6.797   7.161   1.560  0.6934  0.1255 -0.3620
40554SOL    HW128523   6.747   7.102   1.616 -0.0581 -0.6819 -1.8096
40554SOL    HW228524   6.870   7.191   1.614  0.7284 -1.6314  0.6142
40555SOL     OW28525   4.453   3.243   8.364  0.2306  0.1162  0.7094
40555SOL    HW128526   4.372   3.223   8.412 -1.1934  0.5866 -1.3702
40555SOL    HW228527   4.507   3.165   8.376 -1.5394 -1.2661  0.2116
40556SOL     OW28528   1.447   8.565   4.348 -0.3139 -0.0172 -0.4638
40556SOL    HW128529   1.369   8.536   4.300 -0.5364 -0.7275  0.2918
40556SOL    HW228530   1.433   8.532   4.437  1.9165 -2.2335 -0.8196
40557SOL     OW28531   8.289  11.083  10.109 -0.5369  0.1974 -0.0399
40557SOL    HW128532   8.351  11.027  10.063 -1.3011 -1.3400  0.7161
40557SOL    HW228533   8.312  11.076  10.201 -1.7852 -0.3808  0.2547
40558SOL     OW28534   7.212   1.491   2.700  0.3765 -0.0134 -0.0102
40558SOL    HW128535   7.259   1.528   2.626  1.3401  1.4929  1.3017
40558SOL    HW228536   7.277   1.438   2.747  0.7202  1.6343  1.5015
40559SOL     OW28537   7.673   1.104   9.221  0.7624  0.0716 -0.0075
40559SOL    HW128538   7.718   1.117   9.305  2.2257 -1.8781 -0.4231
40559SOL    HW228539   7.653   1.011   9.219 -1.4551  0.5096 -0.8155
40560SOL     OW28540   3.635  11.335  11.789 -0.5458 -0.0963 -0.1826
40560SOL    HW128541   3.716  11.374  11.758 -0.8723 -0.2966 -1.3741
40560SOL    HW228542   3.573  11.349  11.717 -1.4357 -0.3481  0.5146
40561SOL     OW28543   3.112   6.599   2.326  0.2711 -0.0203 -0.3065
40561SOL    HW128544   3.192   6.561   2.362 -0.4207 -0.3881  0.9195
40561SOL    HW228545   3.041   6.552   2.370 -0.6204  0.3904 -1.2602
40562SOL     OW28546   4.880   2.700   4.329  0.0171  0.2202  0.2045
40562SOL    HW128547   4.952   2.675   4.387  0.2176  1.4157  0.5025
40562SOL    HW228548   4.917   2.696   4.241  0.0778 -0.3775  0.2526
40563SOL     OW28549   0.993  11.120   8.400 -0.2966  0.0752 -0.3474
40563SOL    HW128550   1.073  11.067   8.398 -0.7110 -0.9071  3.1221
40563SOL    HW228551   1.017  11.197   8.452 -1.3035  0.3772 -0.3126
40564SOL     OW28552   6.634   2.547   8.634 -0.2750 -0.0042  0.0447
40564SOL    HW128553   6.628   2.641   8.648 -2.3918  0.2299 -1.8270
40564SOL    HW228554   6.702   2.537   8.568  0.6470  0.0920  0.9627
40565SOL     OW28555   0.171   7.614   5.914 -0.0315  0.2981  0.1337
40565SOL    HW128556   0.134   7.560   5.843  1.1349 -0.4355  0.0551
40565SOL    HW228557   0.148   7.704   5.890 -1.0915 -0.0700 -0.2976
40566SOL     OW28558   7.502   8.519   0.089 -0.5242 -0.1152  0.2479
40566SOL    HW128559   7.581   8.465   0.092 -0.7223 -0.4561 -0.4743
40566SOL    HW228560   7.465   8.511   0.177 -1.0750 -1.9776 -0.0968
40567SOL     OW28561   4.175  11.912   9.628 -0.4063  0.1304  0.1172
40567SOL    HW128562   4.124  11.982   9.585 -2.3008 -1.1835  0.0841
40567SOL    HW228563   4.190  11.848   9.558  1.7868  0.6931  0.0169
40568SOL     OW28564  11.685  11.204   8.237 -0.0617  0.1023  0.3507
40568SOL    HW128565  11.618  11.218   8.170  0.5568  1.2450 -0.0504
40568SOL    HW228566  11.691  11.288   8.283  1.5602  0.2527 -0.0646
40569SOL     OW28567  10.694  10.720   0.333 -0.1213 -0.1686 -0.3009
40569SOL    HW128568  10.775  10.687   0.373  0.8307  0.3646 -1.7055
40569SOL    HW228569  10.662  10.647   0.280 -0.4229 -0.2852  0.0359
40570SOL     OW28570   8.214   4.268   5.603 -0.2177  0.3834 -0.6242
40570SOL    HW128571   8.288   4.228   5.558  0.0614  1.4770 -1.1705
40570SOL    HW228572   8.148   4.282   5.535  0.1050  1.7965 -0.6825
40571SOL     OW28573   9.745  10.553   9.208 -0.1277 -0.3217 -0.0911
40571SOL    HW128574   9.751  10.470   9.255 -0.4879 -0.8470 -0.9496
40571SOL    HW228575   9.726  10.618   9.276 -2.1677 -1.2872  0.3419
40572SOL     OW28576   2.461   4.786   9.744  0.2759  0.0369 -0.2277
40572SOL    HW128577   2.368   4.776   9.767  0.3778  2.2079  1.3909
40572SOL    HW228578   2.495   4.697   9.748 -1.2748 -0.5512  1.3462
40573SOL     OW28579   6.970  11.437  12.104  0.0875  0.3229 -0.1681
40573SOL    HW128580   7.060  11.460  12.080 -0.4882  1.9282 -0.8996
40573SOL    HW228581   6.916  11.503  12.062 -1.2946  0.8475  2.2524
40574SOL     OW28582   7.892   8.828   3.266  0.6027 -0.1798 -0.5037
40574SOL    HW128583   7.798   8.844   3.276  0.3461 -0.8661 -1.6203
40574SOL    HW228584   7.924   8.906   3.220 -0.0781 -1.3603 -3.1567
40575SOL     OW28585   3.785   2.899   8.955 -0.4430  0.0029  0.2270
40575SOL    HW128586   3.837   2.835   8.907 -0.8219 -1.0553  1.1702
40575SOL    HW228587   3.731   2.847   9.014 -2.5543  1.0539 -0.6482
40576SOL     OW28588   5.731   3.704   3.473 -0.4217  0.4094  0.4494
40576SOL    HW128589   5.703   3.795   3.480 -0.5508  0.6871 -2.3511
40576SOL    HW228590   5.774   3.699   3.387 -0.4108 -2.1748  0.5189
40577SOL     OW28591   4.391   1.166   8.849 -0.5758 -0.2397 -0.0671
40577SOL    HW128592   4.423   1.213   8.772 -0.5740 -0.0371  0.0559
40577SOL    HW228593   4.333   1.229   8.893 -1.2913 -0.6550 -0.3853
40578SOL     OW28594   6.698   2.525   7.757  0.0290 -0.6210  0.1863
40578SOL    HW128595   6.709   2.439   7.797 -0.6290  0.0886  2.0366
40578SOL    HW228596   6.686   2.584   7.832  0.1887  1.0319 -1.0446
40579SOL     OW28597   0.705  10.567  10.738  1.0512 -0.1580 -0.3279
40579SOL    HW128598   0.710  10.634  10.806  0.6694  0.2205 -0.6652
40579SOL    HW228599   0.771  10.502  10.763 -0.4220 -1.0487  1.4934
40580SOL     OW28600   3.490   6.159   4.906 -0.8059 -1.3839  0.1125
40580SOL    HW128601   3.573   6.169   4.860 -0.9154  1.4205  0.3489
40580SOL    HW228602   3.441   6.096   4.853 -0.0018 -0.1649 -2.2200
40581SOL     OW28603   7.675  10.486   9.655 -0.2958 -0.0612 -0.0705
40581SOL    HW128604   7.741  10.508   9.589 -0.0677 -1.7106 -0.4341
40581SOL    HW228605   7.599  10.457   9.604 -0.1870 -1.1536  0.3597
40582SOL     OW28606  11.442   4.710   2.229 -0.1774  0.2532  0.0606
40582SOL    HW128607  11.449   4.738   2.321  1.6539  1.1951 -0.3190
40582SOL    HW228608  11.407   4.786   2.184  1.1116  0.6252 -0.3570
40583SOL     OW28609   3.920   0.475   7.348  0.3069 -0.2385 -0.0534
40583SOL    HW128610   3.977   0.491   7.272 -0.5279 -0.1863 -0.6885
40583SOL    HW228611   3.867   0.399   7.322  1.3706 -1.4817  1.2784
40584SOL     OW28612   1.941   7.022   9.424 -0.1833  0.4615  0.2950
40584SOL    HW128613   1.942   7.115   9.446  0.5748  0.5398 -0.0168
40584SOL    HW228614   1.901   6.979   9.499 -0.4838  1.0316  0.4646
40585SOL     OW28615   2.662   8.430   9.421  0.4102 -0.1338  0.8799
40585SOL    HW128616   2.569   8.420   9.438  0.0707  0.7406 -0.2864
40585SOL    HW228617   2.702   8.349   9.453 -0.7669 -0.6020  1.2078
40586SOL     OW28618   7.865   8.970   6.903 -0.2974 -1.0284 -0.2684
40586SOL    HW128619   7.954   8.981   6.869  0.0203 -1.2134  0.4926
40586SOL    HW228620   7.860   8.878   6.928 -0.7307 -1.0346 -0.3600
40587SOL     OW28621  11.125  10.665   6.300  0.4192 -0.0665 -0.2073
40587SOL    HW128622  11.192  10.726   6.332 -1.0765  1.1574  0.7361
40587SOL    HW228623  11.087  10.709   6.224 -1.3655  0.7489  1.0772
40588SOL     OW28624   3.937   7.015   3.398  0.0747 -0.3084 -0.0045
40588SOL    HW128625   3.866   7.079   3.404  1.1888  0.8974  1.1382
40588SOL    HW228626   4.016   7.069   3.386  1.2722 -1.2815  2.7231
40589SOL     OW28627   4.566  11.100  10.217 -0.2076 -0.2022  0.4746
40589SOL    HW128628   4.631  11.114  10.148 -0.0961  1.0009  0.8114
40589SOL    HW228629   4.483  11.126  10.177 -0.2122  0.0512  0.6530
40590SOL     OW28630   4.186   2.021   1.136 -0.3058 -0.1001 -0.0476
40590SOL    HW128631   4.231   1.970   1.068 -0.0625 -0.2366  0.2146
40590SOL    HW228632   4.120   2.071   1.088 -0.5131 -0.6215 -0.3139
40591SOL     OW28633   7.275   5.439  10.189  0.1000  0.1560 -0.3516
40591SOL    HW128634   7.349   5.382  10.169  0.7740  1.2583 -1.1379
40591SOL    HW228635   7.282   5.456  10.283 -0.8887 -2.0738  0.1846
40592SOL     OW28636   5.028   6.610   0.215  0.1399 -0.6108 -0.2604
40592SOL    HW128637   5.077   6.640   0.291 -0.3115  0.3565 -0.3313
40592SOL    HW228638   5.067   6.657   0.141  0.5764 -1.5416 -0.6446
40593SOL     OW28639   7.341  12.290  11.958 -0.0274 -0.0886  0.0681
40593SOL    HW128640   7.272  12.224  11.965 -1.7865  1.6943  0.4547
40593SOL    HW228641   7.320  12.338  11.878  0.6637  0.6269  0.3047
40594SOL     OW28642  10.173   1.191   3.653  0.8166 -0.0396  0.1714
40594SOL    HW128643  10.255   1.151   3.682  0.9783  0.0725 -0.1287
40594SOL    HW228644  10.198   1.279   3.623  1.0078 -0.8524 -2.2446
40595SOL     OW28645  10.349   4.429   2.085 -0.4195 -0.3169  0.0246
40595SOL    HW128646  10.393   4.513   2.102 -0.6442 -0.1813 -0.0629
40595SOL    HW228647  10.411   4.380   2.031 -0.7163  0.1886 -0.7832
40596SOL     OW28648   5.730   6.503   2.144  0.7772 -0.7803  0.0725
40596SOL    HW128649   5.723   6.592   2.177  1.1469 -1.5655  2.4502
40596SOL    HW228650   5.755   6.513   2.052 -0.7928  1.5586 -0.1759
40597SOL     OW28651   2.845   5.028  11.337 -0.2868 -0.1032 -0.2863
40597SOL    HW128652   2.766   5.054  11.385 -0.0892  0.3531 -0.1929
40597SOL    HW228653   2.859   5.099  11.274 -0.9663 -1.0571 -1.5614
40598SOL     OW28654   5.825   1.202   8.583 -0.1660  0.0283  0.2457
40598SOL    HW128655   5.843   1.142   8.655  0.9217  0.9755  0.8070
40598SOL    HW228656   5.853   1.154   8.504  0.1792 -0.4109  0.6301
40599SOL     OW28657   4.316  10.455  11.698  0.1724  0.3154 -0.8420
40599SOL    HW128658   4.382  10.520  11.724 -1.6099  1.9084 -0.0429
40599SOL    HW228659   4.289  10.482  11.610  0.9457 -0.6589 -1.3912
40600SOL     OW28660   9.247   9.772   1.120 -0.5264  0.0155 -0.0221
40600SOL    HW128661   9.250   9.850   1.065 -1.9755  0.7193  0.8232
40600SOL    HW228662   9.309   9.789   1.191 -0.6846  0.3189  0.0430
40601SOL     OW28663   6.307  10.838  12.390  0.0568 -0.1606  0.4640
40601SOL    HW128664   6.336  10.754  12.353 -1.7532  0.0240 -1.5989
40601SOL    HW228665   6.292  10.819  12.482  0.1927 -2.0033  0.1548
40602SOL     OW28666   7.016  11.654   2.481  0.6686 -0.0151  0.3297
40602SOL    HW128667   7.046  11.736   2.441 -0.3106  0.8783  1.3690
40602SOL    HW228668   7.076  11.641   2.555  0.4624  0.0879  0.5171
40603SOL     OW28669   6.810   4.011   5.503  0.1960 -0.7659  0.0726
40603SOL    HW128670   6.855   4.018   5.587 -0.7218 -1.4722  0.6483
40603SOL    HW228671   6.743   3.945   5.518 -1.5570  0.8037 -0.5181
40604SOL     OW28672   4.008   6.447   5.376  0.3156  0.1102  0.3183
40604SOL    HW128673   4.069   6.385   5.336 -1.0623 -1.4988  0.6022
40604SOL    HW228674   3.935   6.452   5.315 -0.9529 -0.9223  1.6679
40605SOL     OW28675   8.538   6.596   5.407  0.0337  0.2344  0.1867
40605SOL    HW128676   8.512   6.514   5.450  1.3496  0.7581  2.1333
40605SOL    HW228677   8.469   6.658   5.430  0.3839  0.3330  0.9975
40606SOL     OW28678  10.828   7.181  12.242  0.0135  0.2545  0.2548
40606SOL    HW128679  10.871   7.257  12.204  0.8204  1.4891  3.2823
40606SOL    HW228680  10.734   7.201  12.236  0.0343 -0.0829 -1.8387
40607SOL     OW28681   8.102   0.938   3.527 -0.0996 -0.4577 -0.1035
40607SOL    HW128682   8.012   0.907   3.520  0.4035 -2.4728  1.3375
40607SOL    HW228683   8.155   0.861   3.506  1.3661  1.1625 -2.8396
40608SOL     OW28684   6.129   0.785   9.199 -0.1542 -0.1305 -0.8726
40608SOL    HW128685   6.178   0.831   9.132  1.5432  0.9039  0.9639
40608SOL    HW228686   6.118   0.696   9.165 -2.2410  1.1033 -3.8828
40609SOL     OW28687   5.928   8.298  11.001 -0.8156 -0.3993 -0.1090
40609SOL    HW128688   5.870   8.328  10.931 -0.2778 -0.3034 -0.5160
40609SOL    HW228689   5.988   8.371  11.016  0.2574 -1.1011 -0.8412
40610SOL     OW28690   7.596   6.482  10.723 -0.0547  0.3371 -0.2644
40610SOL    HW128691   7.520   6.485  10.781  0.9435  0.4178  1.0899
40610SOL    HW228692   7.635   6.396  10.739  2.0270  1.5281  1.6496
40611SOL     OW28693  10.443   3.297  12.125  0.0984 -0.2554 -0.3526
40611SOL    HW128694  10.390   3.289  12.204  0.1282  1.0962 -0.1784
40611SOL    HW228695  10.420   3.220  12.073 -1.6583  0.0284 -0.0553
40612SOL     OW28696   7.088   6.924  12.375  0.0318  0.5745 -0.1704
40612SOL    HW128697   7.081   6.914  12.280  0.6862 -1.3806 -0.0508
40612SOL    HW228698   6.998   6.912  12.407  0.0069  0.0172 -0.4473
40613SOL     OW28699  11.619  12.169   7.519 -0.3477  0.1826  0.4341
40613SOL    HW128700  11.559  12.125   7.458 -0.9424  2.3982 -0.6676
40613SOL    HW228701  11.671  12.227   7.464 -0.6001  1.9522  1.9729
40614SOL     OW28702   2.597   1.186   8.819  0.0375  0.0503 -0.0533
40614SOL    HW128703   2.660   1.241   8.866  0.1049  0.7446 -0.9222
40614SOL    HW228704   2.641   1.163   8.737 -0.7637  0.4392 -0.6169
40615SOL     OW28705   3.953  11.878  11.147  0.0727  0.5589 -0.4409
40615SOL    HW128706   3.993  11.964  11.135 -0.9737  1.1409  0.0750
40615SOL    HW228707   3.943  11.844  11.058  1.7757  0.3423 -0.5721
40616SOL     OW28708  12.412   1.468   2.236  0.7787  0.2111 -0.1860
40616SOL    HW128709  12.436   1.435   2.150  0.1416 -1.4723  0.2359
40616SOL    HW228710  12.316   1.473   2.233  0.4010 -3.0927  1.4058
40617SOL     OW28711   4.254   3.271   0.108 -0.0369 -0.6202 -0.8164
40617SOL    HW128712   4.244   3.226   0.192 -1.0247  2.3939  0.8473
40617SOL    HW228713   4.165   3.288   0.079  0.2374  1.1469 -0.7657
40618SOL     OW28714   6.054   8.896  10.206 -0.0230 -0.3115 -0.2878
40618SOL    HW128715   6.050   8.964  10.138  0.9831 -1.0287 -1.0972
40618SOL    HW228716   6.072   8.815  10.158  1.9627 -0.6500  0.9083
40619SOL     OW28717  11.036   2.796   1.676  0.0302  0.4198  0.2920
40619SOL    HW128718  10.949   2.826   1.651  0.4487  1.8957  0.5118
40619SOL    HW228719  11.094   2.836   1.612  0.4991 -1.3201 -0.4409
40620SOL     OW28720   1.839   4.112   5.210  0.4757 -0.0637  0.2241
40620SOL    HW128721   1.921   4.155   5.233  0.6492  0.2598 -0.9238
40620SOL    HW228722   1.860   4.019   5.205  0.3678 -0.1729  1.5870
40621SOL     OW28723  10.411   0.746   9.062  0.3312  0.1206 -0.4814
40621SOL    HW128724  10.398   0.745   8.967 -0.8884 -0.5236 -0.3264
40621SOL    HW228725  10.365   0.825   9.091  0.9914  0.4988 -0.4620
40622SOL     OW28726  10.898   5.468   6.744  0.2208  0.2620 -0.0098
40622SOL    HW128727  10.989   5.495   6.757  0.3220  0.6309 -1.3497
40622SOL    HW228728  10.869   5.440   6.830  0.8967  2.2688  0.9289
40623SOL     OW28729   0.126   5.550   7.123 -0.8551 -0.2297 -0.4379
40623SOL    HW128730   0.176   5.578   7.046 -0.8949 -1.2536 -0.8539
40623SOL    HW228731   0.042   5.522   7.088 -1.2175  0.1817  0.0996
40624SOL     OW28732   8.947  10.288   1.928  0.1306  0.6026 -1.1722
40624SOL    HW128733   8.861  10.328   1.918 -0.0098  1.0727  1.1766
40624SOL    HW228734   8.999  10.355   1.973  1.3128 -0.1683 -1.3467
40625SOL     OW28735   7.383  11.797   7.949 -0.1498  0.7107  0.1654
40625SOL    HW128736   7.404  11.746   7.870  0.0245  0.0690  0.6117
40625SOL    HW228737   7.367  11.885   7.917 -0.7002  0.3266 -0.6692
40626SOL     OW28738   0.535  10.695   9.976  0.1206 -0.1348 -0.4068
40626SOL    HW128739   0.579  10.744  10.046 -0.9106  0.4372 -0.1347
40626SOL    HW228740   0.447  10.680  10.010  0.0564 -1.1358 -0.9988
40627SOL     OW28741   0.526   4.728   7.700 -0.4358  0.0477  0.0084
40627SOL    HW128742   0.482   4.671   7.637 -2.3167 -0.7793  1.9496
40627SOL    HW228743   0.597   4.675   7.736 -1.3797 -0.6739  0.8699
40628SOL     OW28744   2.232   9.596   9.146  0.0513  0.2551  0.0055
40628SOL    HW128745   2.228   9.657   9.072  0.8777  1.1580  0.6709
40628SOL    HW228746   2.184   9.640   9.216  0.4468  0.0447  0.4157
40629SOL     OW28747   0.255   3.708   5.442 -0.3250 -0.2416 -0.4376
40629SOL    HW128748   0.239   3.801   5.424 -0.6019 -0.3780 -0.9356
40629SOL    HW228749   0.259   3.702   5.537 -1.1558  0.1528 -0.3667
40630SOL     OW28750   9.874   9.513  10.508  0.2075  0.4649  0.2336
40630SOL    HW128751   9.906   9.509  10.599 -0.9132  1.5344  0.7167
40630SOL    HW228752   9.807   9.582  10.510  1.1089  1.4700 -1.7057
40631SOL     OW28753   1.635   8.812  10.526  0.7571  0.4181  0.4258
40631SOL    HW128754   1.641   8.848  10.614 -0.6680  2.3381 -0.1776
40631SOL    HW228755   1.554   8.761  10.527 -0.3625  2.0817 -0.2300
40632SOL     OW28756  10.822   7.358   1.061 -0.3959 -0.6658  0.2786
40632SOL    HW128757  10.796   7.315   1.143  0.7393 -2.4818 -0.2494
40632SOL    HW228758  10.868   7.437   1.089 -1.3709 -0.4345  1.3308
40633SOL     OW28759   6.627   2.411   5.212 -0.2685  0.0172 -0.0193
40633SOL    HW128760   6.709   2.445   5.246 -1.1026  1.2372  0.8411
40633SOL    HW228761   6.562   2.477   5.235 -1.4379 -0.7532 -0.9959
40634SOL     OW28762   0.423   2.952   1.061  0.7572 -0.5054  0.0515
40634SOL    HW128763   0.398   2.862   1.082  1.3264 -1.4013 -2.7945
40634SOL    HW228764   0.400   3.001   1.140 -1.1461 -2.8237  1.0843
40635SOL     OW28765   2.206   3.128   1.666  0.6034 -0.3081  0.2370
40635SOL    HW128766   2.240   3.041   1.644 -1.0447 -0.9218 -0.0306
40635SOL    HW228767   2.156   3.154   1.589  1.3646  1.0641  0.1699
40636SOL     OW28768   4.441  12.082   5.271 -0.2300  0.0210 -0.1895
40636SOL    HW128769   4.392  12.051   5.347  1.7133  1.8618  1.9671
40636SOL    HW228770   4.532  12.078   5.298  0.4705  1.6325 -2.0819
40637SOL     OW28771  10.304   7.471   7.977  0.1222  0.3361 -0.0343
40637SOL    HW128772  10.368   7.407   7.946  0.4698  0.0045  1.2900
40637SOL    HW228773  10.237   7.419   8.022  0.6070  0.9009  1.3952
40638SOL     OW28774   6.017   0.478  11.379  0.1197  0.0850  0.3341
40638SOL    HW128775   6.082   0.548  11.378  0.8739 -0.5550 -2.0378
40638SOL    HW228776   6.054   0.412  11.437  0.6742  0.5148  0.4813
40639SOL     OW28777  11.473   8.291   7.586 -0.1005  0.5876 -0.3946
40639SOL    HW128778  11.522   8.322   7.509  0.7821 -0.5220 -0.2951
40639SOL    HW228779  11.382   8.287   7.556  0.4288 -1.4191 -1.9378
40640SOL     OW28780   1.269   8.792   1.033 -0.0653 -0.0873  0.0004
40640SOL    HW128781   1.218   8.732   0.978  1.6991 -3.3265  1.5763
40640SOL    HW228782   1.302   8.858   0.973 -1.5927 -1.0586 -2.0283
40641SOL     OW28783   1.768   6.592  11.174 -0.7093 -0.5370 -0.0999
40641SOL    HW128784   1.713   6.658  11.132  0.1992  0.8284  0.7376
40641SOL    HW228785   1.827   6.563  11.105  1.1767  2.1223  0.2105
40642SOL     OW28786   2.903   2.600   1.497  0.2061 -1.3026 -0.4239
40642SOL    HW128787   2.808   2.608   1.501  0.3077 -0.5599  1.7775
40642SOL    HW228788   2.927   2.559   1.580  1.8314 -1.4636 -0.9327
40643SOL     OW28789  11.655   5.027   9.520 -0.3401 -0.0112  0.5674
40643SOL    HW128790  11.749   5.044   9.515 -0.3108 -0.4810 -1.9532
40643SOL    HW228791  11.641   4.990   9.607  1.6939  0.5864  1.1940
40644SOL     OW28792   8.216   3.212  11.495  0.3498  0.2726 -0.3274
40644SOL    HW128793   8.231   3.156  11.418  0.9527 -1.3018  0.8757
40644SOL    HW228794   8.270   3.173  11.564 -1.8712  0.2525  1.5319
40645SOL     OW28795   9.968  12.006   2.927  0.3443  0.1688  0.2875
40645SOL    HW128796  10.055  12.019   2.889  0.6043 -0.6262  0.5872
40645SOL    HW228797   9.979  12.027   3.020  0.1018  0.5372  0.2319
40646SOL     OW28798   9.344   5.107  10.599 -0.5912  0.6753 -0.4432
40646SOL    HW128799   9.289   5.150  10.664  0.7726  4.2488 -1.3844
40646SOL    HW228800   9.304   5.130  10.515  0.1108 -0.1303 -1.0129
40647SOL     OW28801   9.081   4.429   7.608 -0.3997 -0.4148 -0.0304
40647SOL    HW128802   9.101   4.393   7.521  0.8204 -0.0105  0.0562
40647SOL    HW228803   9.153   4.490   7.625 -3.1905  3.5129 -0.9406
40648SOL     OW28804   3.433  11.770   1.360  0.4115 -0.0775  0.2834
40648SOL    HW128805   3.384  11.746   1.439  0.4134 -2.8737 -0.4612
40648SOL    HW228806   3.524  11.772   1.388  0.2964  0.2325  0.6376
40649SOL     OW28807   5.451  10.608   2.862 -0.4159  0.2175 -0.4454
40649SOL    HW128808   5.513  10.536   2.858 -1.1267 -0.5028  0.8876
40649SOL    HW228809   5.440  10.636   2.771 -0.2297 -1.4326 -0.9954
40650SOL     OW28810  10.701   3.619   2.611 -0.3937  0.4372  0.3093
40650SOL    HW128811  10.680   3.713   2.610 -1.9316  0.1236  0.5311
40650SOL    HW228812  10.796   3.616   2.619 -0.2991  1.9819  0.1133
40651SOL     OW28813   2.166   4.209   7.457  0.5470 -0.2026 -0.0728
40651SOL    HW128814   2.072   4.195   7.470  1.0366 -2.2569  1.9541
40651SOL    HW228815   2.201   4.121   7.442  2.1139  0.5775 -1.2581
40652SOL     OW28816  11.231   9.484   8.715  0.4428  0.4239 -0.4589
40652SOL    HW128817  11.273   9.418   8.771  1.2159  1.4671  0.2375
40652SOL    HW228818  11.290   9.493   8.640  0.9119  1.0725 -0.0289
40653SOL     OW28819  11.536   2.344  10.579 -0.0096 -0.1830  0.7777
40653SOL    HW128820  11.522   2.337  10.484  2.9764  2.0448  0.0274
40653SOL    HW228821  11.540   2.253  10.609 -0.7627 -0.9543 -1.2724
40654SOL     OW28822  10.967   9.793   5.656  0.0781  0.3853  0.1626
40654SOL    HW128823  11.025   9.750   5.593 -0.7656  1.5300 -1.4915
40654SOL    HW228824  11.008   9.878   5.672 -0.4500  0.6734  0.0188
40655SOL     OW28825   2.085   8.635   2.555 -0.4274  0.1366  0.5443
40655SOL    HW128826   2.037   8.718   2.553 -0.1075  0.3080 -1.3159
40655SOL    HW228827   2.029   8.574   2.508  1.1907  0.4086 -1.9340
40656SOL     OW28828   2.620  10.949   8.427 -0.2842  0.4136  0.4201
40656SOL    HW128829   2.640  10.887   8.497  1.2947  1.4317  0.8970
40656SOL    HW228830   2.526  10.967   8.438 -1.0540 -2.4810 -0.2569
40657SOL     OW28831   9.746   6.432   8.994 -0.2236 -0.5263 -0.4797
40657SOL    HW128832   9.824   6.461   9.039 -0.8930  0.9887 -0.2575
40657SOL    HW228833   9.716   6.508   8.945 -0.7784 -1.4849 -1.7087
40658SOL     OW28834   6.864   2.051   7.788 -0.2882  0.2324  0.3322
40658SOL    HW128835   6.936   2.062   7.850 -1.7016 -0.5390  2.1729
40658SOL    HW228836   6.907   2.022   7.707  1.5162  0.4167  1.1708
40659SOL     OW28837   8.731  11.099   9.984 -0.9754  0.1484 -0.0250
40659SOL    HW128838   8.782  11.150   9.921 -1.0359  0.2718  0.0261
40659SOL    HW228839   8.790  11.028  10.011 -0.4819  0.8420  0.7619
40660SOL     OW28840   2.382   5.358  12.249  0.1680  0.0711 -0.0851
40660SOL    HW128841   2.292   5.389  12.244  0.2458  0.2002 -3.9484
40660SOL    HW228842   2.380   5.270  12.211  1.4539 -0.7608  1.6063
40661SOL     OW28843   8.071   9.195   7.790  0.5338 -0.2818  0.4375
40661SOL    HW128844   8.124   9.267   7.757 -0.1580  1.4632  2.8560
40661SOL    HW228845   8.118   9.165   7.869 -0.5046 -0.7494  0.8952
40662SOL     OW28846   9.858   8.311   9.240  0.7273  0.6402 -0.0558
40662SOL    HW128847   9.768   8.340   9.251 -0.0669 -1.7235  0.2045
40662SOL    HW228848   9.891   8.364   9.167 -1.1552  0.9508 -0.7373
40663SOL     OW28849   4.238   6.770   3.005  0.4221  0.1648 -0.1724
40663SOL    HW128850   4.237   6.708   3.078  1.3107  1.6658  1.1711
40663SOL    HW228851   4.319   6.750   2.958  1.4433  1.1754  1.0873
40664SOL     OW28852   7.636  10.963   8.217 -0.1925 -0.6027 -0.2065
40664SOL    HW128853   7.597  10.990   8.300 -0.8098 -2.9171  0.3142
40664SOL    HW228854   7.589  11.015   8.151  0.4107  1.3776  0.8425
40665SOL     OW28855   2.062   5.068  11.985  0.3111  0.2618  1.1081
40665SOL    HW128856   2.118   5.126  11.933 -0.5641  0.6804  0.6126
40665SOL    HW228857   1.978   5.114  11.991 -0.2116 -0.6739  1.2199
40666SOL     OW28858   4.076  10.142  11.000  0.3688 -0.6132  0.2976
40666SOL    HW128859   4.039  10.079  11.061 -1.0248 -0.9377 -0.8311
40666SOL    HW228860   4.100  10.089  10.923 -2.5197  0.3635 -1.4332
40667SOL     OW28861   2.565   1.365   9.309 -0.4241 -0.0794  0.6466
40667SOL    HW128862   2.574   1.271   9.323 -0.6603 -0.4947 -1.5870
40667SOL    HW228863   2.621   1.384   9.234 -0.1559  1.6379  1.2270
40668SOL     OW28864   5.191  11.882   1.137 -0.2673 -0.7027 -0.5766
40668SOL    HW128865   5.204  11.789   1.117 -2.1125 -0.7301 -1.9095
40668SOL    HW228866   5.160  11.882   1.228  0.7212 -1.2780 -0.2195
40669SOL     OW28867   5.357   6.482  12.062 -0.9703 -0.6951  0.6539
40669SOL    HW128868   5.320   6.570  12.051 -1.9245 -1.0716  0.7155
40669SOL    HW228869   5.450   6.492  12.043 -1.2293  0.1482 -0.2309
40670SOL     OW28870   1.383   9.714  12.218  0.0760 -0.7242  0.3641
40670SOL    HW128871   1.408   9.806  12.215  1.6312 -1.0936  0.9916
40670SOL    HW228872   1.294   9.712  12.185  0.6656  0.7600 -1.4799
40671SOL     OW28873   1.861   8.631  12.100  0.3925  0.5819 -0.0577
40671SOL    HW128874   1.871   8.537  12.085  1.0771  0.9836 -2.4855
40671SOL    HW228875   1.836   8.638  12.192  3.3346 -1.7824  1.0647
40672SOL     OW28876   0.133   9.475   8.061  0.1785 -0.2210  0.1920
40672SOL    HW128877   0.176   9.534   8.000 -0.2241  0.1501  0.2676
40672SOL    HW228878   0.187   9.479   8.140  0.1392  0.0608  0.2051
40673SOL     OW28879   2.156   4.884   0.074  0.1257  0.0713  0.0527
40673SOL    HW128880   2.242   4.926   0.064  0.3797 -0.3394  0.4868
40673SOL    HW228881   2.095   4.957   0.086  0.1451  0.4860 -1.9203
40674SOL     OW28882   9.128   8.750   1.814 -0.2955 -0.4546 -0.9003
40674SOL    HW128883   9.159   8.707   1.734  0.2173 -0.1879 -0.8462
40674SOL    HW228884   9.056   8.805   1.785 -0.9679 -1.3417 -0.9746
40675SOL     OW28885   8.069   0.140  10.060 -0.5095  0.4332 -0.2318
40675SOL    HW128886   8.157   0.118  10.092 -0.1812 -0.8150 -1.8428
40675SOL    HW228887   8.026   0.182  10.134  1.6014  1.5511  0.4640
40676SOL     OW28888  11.345  12.480   3.177 -0.5551  0.2831  0.0853
40676SOL    HW128889  11.429  12.449   3.208 -0.5424 -1.0860 -1.1912
40676SOL    HW228890  11.306  12.525   3.252 -0.4968 -2.7365  2.0626
40677SOL     OW28891  11.678  10.144   4.627  0.0883 -0.0455 -0.0331
40677SOL    HW128892  11.595  10.192   4.617 -0.1908 -0.6949 -1.0468
40677SOL    HW228893  11.697  10.149   4.720  0.2781  2.3635 -0.1203
40678SOL     OW28894   4.327   1.212  11.512 -0.1330 -0.0294  0.3120
40678SOL    HW128895   4.260   1.280  11.517  0.5084  0.6382  0.0683
40678SOL    HW228896   4.279   1.131  11.496 -0.7412  0.8243 -2.8441
40679SOL     OW28897   3.479   7.602   1.554  0.4589  0.8460  0.3992
40679SOL    HW128898   3.519   7.516   1.540  2.1634  1.4203  1.4037
40679SOL    HW228899   3.550   7.664   1.535 -0.8911  2.0789 -0.8194
40680SOL     OW28900   5.480   2.370   0.734  0.2785 -0.4758  0.2478
40680SOL    HW128901   5.396   2.325   0.724 -0.8333  1.2637  1.1652
40680SOL    HW228902   5.531   2.314   0.792 -0.8243 -0.8508  0.8751
40681SOL     OW28903   5.319   6.194   8.481  0.4204  0.0554  0.0097
40681SOL    HW128904   5.246   6.238   8.523  0.8854  1.5648 -0.6826
40681SOL    HW228905   5.392   6.257   8.487  1.3494 -0.9534 -0.2862
40682SOL     OW28906   3.592   0.565   6.873 -0.2520 -0.1527 -0.1082
40682SOL    HW128907   3.578   0.517   6.791 -0.6517  0.1335 -0.2103
40682SOL    HW228908   3.535   0.642   6.866 -0.2682 -0.1109  0.4246
40683SOL     OW28909   9.089  10.495   2.526 -0.1278  0.0586 -0.0750
40683SOL    HW128910   9.141  10.548   2.587 -0.6232 -0.2819  0.6555
40683SOL    HW228911   9.008  10.545   2.514 -0.5864 -0.5088  0.5965
40684SOL     OW28912  10.940   1.452   2.562  0.1998  0.7822  0.0736
40684SOL    HW128913  10.898   1.414   2.640 -0.2886  1.4647  0.1555
40684SOL    HW228914  11.033   1.453   2.583  0.4574 -1.8688 -0.5745
40685SOL     OW28915   3.321   0.455   8.654 -0.8712  0.5825  0.1160
40685SOL    HW128916   3.259   0.521   8.685 -0.4899  0.5591  0.9516
40685SOL    HW228917   3.357   0.416   8.734 -1.8929 -1.4122 -0.3243
40686SOL     OW28918   8.496   5.265   6.931 -0.0635  0.1799  0.3327
40686SOL    HW128919   8.459   5.238   7.015  1.0984  1.9682  1.5133
40686SOL    HW228920   8.431   5.325   6.894  0.2369  0.9074  0.9331
40687SOL     OW28921   0.864   4.963   3.916  0.4202 -0.2829 -0.4349
40687SOL    HW128922   0.959   4.952   3.911  0.4093  0.0571 -1.8415
40687SOL    HW228923   0.851   5.049   3.956  0.6652 -0.9141  1.0516
40688SOL     OW28924   9.007   1.042   8.320 -0.2068  0.0718 -0.6683
40688SOL    HW128925   9.039   1.056   8.409  0.5568  0.2867 -0.9705
40688SOL    HW228926   9.013   1.128   8.279  0.0646 -0.1662 -1.1272
40689SOL     OW28927  11.449   4.389   1.022  0.1124 -0.3420 -0.4112
40689SOL    HW128928  11.418   4.372   0.933  0.9238 -1.4464 -0.4951
40689SOL    HW228929  11.416   4.477   1.042 -2.8563 -1.3193 -0.5763
40690SOL     OW28930   5.572   5.298   9.752  0.2349 -0.1240 -0.6824
40690SOL    HW128931   5.484   5.319   9.720 -0.2313 -1.7817 -0.5988
40690SOL    HW228932   5.598   5.374   9.802 -0.6388  0.9212 -1.7518
40691SOL     OW28933  10.692   1.642   6.425  0.0104 -0.0320  0.0229
40691SOL    HW128934  10.598   1.624   6.414  0.3624 -1.6772 -0.6859
40691SOL    HW228935  10.719   1.678   6.342 -0.0108  0.5548  0.2689
40692SOL     OW28936   8.494   4.033   9.671 -0.4587  0.1061 -0.1641
40692SOL    HW128937   8.586   4.058   9.681 -0.6608  0.9458 -0.3775
40692SOL    HW228938   8.444   4.110   9.698 -1.0818  0.2943 -1.7733
40693SOL     OW28939   8.150   7.660  11.438 -0.1614  0.3404  0.6106
40693SOL    HW128940   8.082   7.647  11.372  2.4199  2.0820 -2.6535
40693SOL    HW228941   8.129   7.744  11.479 -1.5264 -0.5422  1.8423
40694SOL     OW28942   0.079   4.776   7.723  0.0795 -0.0056  0.3821
40694SOL    HW128943   0.010   4.743   7.666 -0.0874 -1.8140  1.5476
40694SOL    HW228944   0.130   4.699   7.747  1.3341  1.0015  1.0914
40695SOL     OW28945   6.973  10.724  10.982 -0.0189 -0.1879 -0.8261
40695SOL    HW128946   7.034  10.674  10.927 -0.7719 -1.1466 -0.8207
40695SOL    HW228947   6.944  10.796  10.927  0.5128 -0.1830 -1.1040
40696SOL     OW28948   6.113   4.451   6.908  0.6331 -0.0850 -0.1668
40696SOL    HW128949   6.143   4.538   6.882 -2.0641  1.5555  1.5870
40696SOL    HW228950   6.064   4.418   6.832  1.2883  0.1059 -0.6783
40697SOL     OW28951   3.864   3.939   4.477 -0.3829  0.1580  0.5899
40697SOL    HW128952   3.788   3.892   4.445 -0.9252  0.7808  0.9315
40697SOL    HW228953   3.859   4.024   4.433  0.2507  0.1188  0.4331
40698SOL     OW28954   2.927   9.916   3.113  0.0829 -0.2382  0.7654
40698SOL    HW128955   3.010   9.919   3.162 -0.0110  0.0166  0.9093
40698SOL    HW228956   2.910  10.007   3.089  1.2097 -0.5597 -1.5871
40699SOL     OW28957  11.110   5.153   1.702 -0.4904 -0.5110 -0.6219
40699SOL    HW128958  11.108   5.163   1.606  1.0868  1.0294 -0.5414
40699SOL    HW228959  11.091   5.241   1.735  1.1178 -0.5151  0.4125
40700SOL     OW28960  10.533   4.887   0.333  0.2132 -0.3539 -0.1598
40700SOL    HW128961  10.565   4.814   0.385 -1.3657 -2.0030 -1.4177
40700SOL    HW228962  10.608   4.912   0.279  0.7540 -1.0611  0.2505
40701SOL     OW28963   5.813   9.767   1.363  0.6308  0.3302 -0.8725
40701SOL    HW128964   5.901   9.734   1.377  0.1743 -0.7861 -0.5720
40701SOL    HW228965   5.775   9.771   1.451 -0.2524 -1.0304 -1.1712
40702SOL     OW28966  12.173   2.756   8.909  0.5473  0.1603  0.7585
40702SOL    HW128967  12.179   2.818   8.837 -0.3620 -1.2730 -0.6176
40702SOL    HW228968  12.117   2.799   8.973  1.1043  1.3292  0.4735
40703SOL     OW28969  11.020  11.444  11.399  0.1547  0.7344 -0.3774
40703SOL    HW128970  11.048  11.359  11.433  1.2105  1.6087  1.0131
40703SOL    HW228971  10.936  11.425  11.357 -0.0483 -0.8446  0.6317
40704SOL     OW28972   3.337   0.155   9.980 -0.2120 -0.0589 -0.2149
40704SOL    HW128973   3.271   0.224   9.988  0.6821  1.1235 -2.2446
40704SOL    HW228974   3.385   0.158  10.063 -0.7447  1.1801  0.0689
40705SOL     OW28975  10.606   6.288  12.044 -0.7643  0.0901  0.3664
40705SOL    HW128976  10.530   6.326  11.999 -1.0218  0.7667  1.3160
40705SOL    HW228977  10.669   6.271  11.975 -1.7909 -0.5143 -0.4563
40706SOL     OW28978   9.568   7.062   7.802  0.1173  0.6723 -0.3945
40706SOL    HW128979   9.644   7.114   7.774  1.8202 -0.3773  2.0049
40706SOL    HW228980   9.508   7.126   7.839 -0.1905  1.5084 -2.2257
40707SOL     OW28981   3.392  10.046   2.904 -0.1259  0.1035  0.2578
40707SOL    HW128982   3.470  10.092   2.873 -0.2803 -1.3333 -2.5054
40707SOL    HW228983   3.426   9.966   2.944 -0.1355  0.0461  0.1495
40708SOL     OW28984   9.953   9.850   7.743 -0.4297  0.2078 -0.3776
40708SOL    HW128985   9.897   9.926   7.724 -1.4212 -1.0637 -3.0115
40708SOL    HW228986  10.005   9.838   7.664 -0.7844 -2.2411 -0.3217
40709SOL     OW28987   3.938  12.290   6.533 -0.0095 -0.0676  0.0220
40709SOL    HW128988   3.939  12.221   6.599  0.7840  0.8851  1.0360
40709SOL    HW228989   3.999  12.356   6.565 -0.2299  0.8080 -1.2576
40710SOL     OW28990  12.166  12.158   6.997  0.2958  0.1430 -0.1650
40710SOL    HW128991  12.109  12.224   7.036  1.6207  1.4070 -0.2790
40710SOL    HW228992  12.125  12.139   6.912 -1.2411 -0.7965  0.7265
40711SOL     OW28993  11.613   8.383   8.645  0.2290 -0.7208  0.7822
40711SOL    HW128994  11.688   8.410   8.592  0.2629 -1.2612  0.5418
40711SOL    HW228995  11.634   8.410   8.734  0.3181 -0.0934  0.5703
40712SOL     OW28996   5.525   9.508  11.031 -0.7153 -0.2847 -0.1198
40712SOL    HW128997   5.610   9.548  11.011  0.5088 -1.2752  2.5760
40712SOL    HW228998   5.534   9.417  11.003 -1.3251 -0.1124 -0.8837
40713SOL     OW28999   6.456   3.041   5.638  0.0871 -0.5785 -0.3354
40713SOL    HW129000   6.435   3.120   5.590  0.8655 -0.7513 -0.9882
40713SOL    HW229001   6.444   2.970   5.575  0.8481 -0.8365 -0.2012
40714SOL     OW29002  11.842   8.292   0.527  0.1041 -0.2194  0.3612
40714SOL    HW129003  11.769   8.234   0.550 -0.9926  1.0507  0.1889
40714SOL    HW229004  11.850   8.284   0.432 -0.9582  0.9183  0.1563
40715SOL     OW29005   7.637   8.381   6.861 -0.0533  0.1757 -0.1933
40715SOL    HW129006   7.680   8.312   6.811 -0.3227  1.9196 -2.9992
40715SOL    HW229007   7.556   8.339   6.894 -0.0835 -0.9361 -1.5788
40716SOL     OW29008   8.769   2.807   7.924 -0.0709 -0.2029 -0.6909
40716SOL    HW129009   8.801   2.798   8.013  0.8483  3.2773 -0.4952
40716SOL    HW229010   8.675   2.788   7.929 -0.5469  2.1568  1.6348
40717SOL     OW29011   8.799  11.618  12.476 -0.3062 -0.5590  0.0510
40717SOL    HW129012   8.826  11.657  12.559  1.8287 -0.4130 -0.6471
40717SOL    HW229013   8.746  11.542  12.500  0.2459 -0.4910  1.5338
40718SOL     OW29014   2.329   6.635  10.357 -0.5770  1.3283 -0.0398
40718SOL    HW129015   2.314   6.542  10.340  2.6524  0.4693  0.9954
40718SOL    HW229016   2.340   6.673  10.270  1.1573  0.0296 -0.4446
40719SOL     OW29017   3.563  12.311   7.070  0.4724 -0.1949 -0.5404
40719SOL    HW129018   3.531  12.297   7.159 -0.0286 -0.2944 -0.7322
40719SOL    HW229019   3.619  12.235   7.052 -0.2528 -0.7065 -0.6811
40720SOL     OW29020   9.531  10.366   9.033  0.2942  0.2279  0.0995
40720SOL    HW129021   9.614  10.344   8.992  0.1670 -0.1587  0.0404
40720SOL    HW229022   9.518  10.459   9.014  1.2499  0.5729  1.0820
40721SOL     OW29023   3.519   9.339   3.773 -0.5973 -0.2037 -0.6602
40721SOL    HW129024   3.614   9.334   3.766 -0.5026  1.0767 -0.5414
40721SOL    HW229025   3.491   9.248   3.786  0.6127 -0.5769 -0.5293
40722SOL     OW29026  10.776   2.169   2.813  0.3634  0.1039  0.2825
40722SOL    HW129027  10.849   2.196   2.757 -0.0106  0.6118  0.0391
40722SOL    HW229028  10.709   2.137   2.752 -0.3847  1.4507  0.3605
40723SOL     OW29029   7.425   9.288   3.445 -0.2403  0.5448 -0.2260
40723SOL    HW129030   7.460   9.355   3.505  1.7506 -1.9378  1.6087
40723SOL    HW229031   7.473   9.303   3.363 -0.0191  1.5305  0.0680
40724SOL     OW29032   5.779   9.829   5.994  0.3362 -0.0430 -0.0019
40724SOL    HW129033   5.856   9.831   5.938  0.9331 -1.1904  0.7411
40724SOL    HW229034   5.792   9.902   6.056  1.1253 -0.5882  0.4854
40725SOL     OW29035   5.106  11.946   1.954  0.7194 -0.2928 -0.2002
40725SOL    HW129036   5.023  11.972   1.993  0.2026 -1.5249 -0.4084
40725SOL    HW229037   5.137  12.023   1.908 -0.4584  0.1029 -0.3565
40726SOL     OW29038   3.558   7.492  11.559  0.4820  0.4835  0.1570
40726SOL    HW129039   3.508   7.419  11.596  0.4144 -0.3615 -1.5212
40726SOL    HW229040   3.524   7.502  11.470  2.2415  0.9145 -0.5079
40727SOL     OW29041   5.094   5.871  12.110  0.2160 -0.0326  0.0633
40727SOL    HW129042   5.049   5.786  12.107  0.8488 -0.3922  0.4615
40727SOL    HW229043   5.168   5.857  12.170  0.4101  0.7624  0.0242
40728SOL     OW29044   4.446   9.472   1.562 -0.2668 -0.2828 -0.0594
40728SOL    HW129045   4.401   9.529   1.500 -1.6725 -1.0478  0.2212
40728SOL    HW229046   4.527   9.518   1.583 -0.0265  0.2618 -2.0144
40729SOL     OW29047  10.656   1.113  11.606  0.3830  0.3112  0.4839
40729SOL    HW129048  10.635   1.161  11.687 -0.9670 -0.0601  0.3731
40729SOL    HW229049  10.705   1.176  11.553  1.7507  0.3991  1.7739
40730SOL     OW29050   8.117   3.139  10.614  0.4310 -0.7298 -0.4277
40730SOL    HW129051   8.201   3.172  10.583  1.1621 -1.5381  0.6428
40730SOL    HW229052   8.128   3.127  10.708 -1.0554 -0.3564 -0.1708
40731SOL     OW29053   4.283  10.859   4.427  0.5420  0.7477  0.0122
40731SOL    HW129054   4.329  10.809   4.360 -1.2043 -0.4545 -0.3585
40731SOL    HW229055   4.318  10.826   4.510 -1.3083 -2.0408 -0.1624
40732SOL     OW29056   3.028   5.559   0.930  0.9497 -0.3550 -0.2066
40732SOL    HW129057   3.001   5.532   1.018 -0.6530  0.3799 -0.4400
40732SOL    HW229058   3.124   5.556   0.933  0.9125 -1.1966  1.2842
40733SOL     OW29059   2.966   8.895  10.470 -0.3747 -0.0205  0.1837
40733SOL    HW129060   2.954   8.833  10.542 -0.0736 -0.6414 -0.2863
40733SOL    HW229061   2.928   8.977  10.502  0.8281  0.0587  1.5184
40734SOL     OW29062   4.902  11.167   2.202  0.6685  0.4597 -0.2642
40734SOL    HW129063   4.986  11.129   2.225  1.7193  2.2948 -0.8195
40734SOL    HW229064   4.877  11.124   2.120  0.1524 -1.3413  0.7859
40735SOL     OW29065  12.071   1.913   1.160  0.2246 -0.1786  0.6094
40735SOL    HW129066  12.038   1.967   1.088  1.9853 -0.9596 -0.8590
40735SOL    HW229067  12.003   1.919   1.228 -0.5568  2.2236 -0.2880
40736SOL     OW29068  10.173   7.583   3.190 -0.2541 -0.1129 -0.9473
40736SOL    HW129069  10.158   7.677   3.203  0.6306  0.0563 -1.1078
40736SOL    HW229070  10.094   7.541   3.224 -0.8823  0.7155 -1.3607
40737SOL     OW29071   2.944   7.956  11.425 -0.3679  0.1922  0.2476
40737SOL    HW129072   2.884   7.925  11.357  0.4760 -2.0785  0.4818
40737SOL    HW229073   2.983   8.035  11.388 -0.5788 -0.5004 -1.5437
40738SOL     OW29074   7.944   5.022   0.368  0.3047  0.1692  1.1305
40738SOL    HW129075   7.901   4.972   0.299  1.9494 -0.6455  0.6444
40738SOL    HW229076   7.877   5.034   0.435 -0.9081 -0.2813  0.0249
40739SOL     OW29077   7.259  11.490   1.599  0.5943  0.3704  0.0525
40739SOL    HW129078   7.202  11.544   1.654  0.9168  0.4072  0.3552
40739SOL    HW229079   7.241  11.400   1.626  1.3396  0.4333  0.8018
40740SOL     OW29080  11.620   0.458   2.787  0.3815 -0.0128  0.7279
40740SOL    HW129081  11.525   0.458   2.775  0.3943  0.9946  0.5176
40740SOL    HW229082  11.645   0.366   2.783 -0.5174 -0.2464  0.2347
40741SOL     OW29083   6.149  10.755  10.927  0.5721  0.6579  0.1521
40741SOL    HW129084   6.178  10.771  10.837 -0.8895 -1.2556 -0.7473
40741SOL    HW229085   6.062  10.794  10.932 -0.8461 -2.1510 -0.4700
40742SOL     OW29086   5.720   8.183   1.160 -0.6198  0.2373 -0.5364
40742SOL    HW129087   5.774   8.164   1.083  1.0272  0.0380  0.6153
40742SOL    HW229088   5.695   8.096   1.193 -0.0605  0.2623 -0.0179
40743SOL     OW29089   5.067   7.558   5.270 -0.5021 -0.7513 -0.0168
40743SOL    HW129090   4.998   7.539   5.207 -0.9538  0.5252  0.0631
40743SOL    HW229091   5.023   7.558   5.355 -0.6822  1.2031 -0.0683
40744SOL     OW29092   5.946   6.990  10.465  0.1559  0.2676  0.2643
40744SOL    HW129093   5.872   7.030  10.419 -0.9574  1.7095  3.0364
40744SOL    HW229094   6.020   7.000  10.405 -1.1751  1.9230 -1.2257
40745SOL     OW29095   0.081  10.130   3.444 -0.2615  0.3310 -0.7140
40745SOL    HW129096   0.073  10.217   3.483  0.3774 -0.6879  1.9257
40745SOL    HW229097   0.162  10.135   3.392 -0.4998  1.4245 -1.0092
40746SOL     OW29098   4.197   6.968   0.605 -0.3339 -0.7369  0.0925
40746SOL    HW129099   4.145   7.024   0.663 -0.0450 -2.1089  1.7570
40746SOL    HW229100   4.159   6.881   0.616 -0.4878 -0.9934 -2.1082
40747SOL     OW29101   8.442  11.694  10.476  0.7862  0.2613 -0.1712
40747SOL    HW129102   8.450  11.779  10.519 -0.3718 -0.5603  1.7682
40747SOL    HW229103   8.393  11.713  10.395  2.1194  1.6768 -0.6927
40748SOL     OW29104   0.974   5.790   8.235  0.3095 -0.2855  0.3765
40748SOL    HW129105   1.005   5.873   8.272  1.1024 -0.3270 -0.1840
40748SOL    HW229106   0.989   5.726   8.305 -1.5780  0.2506  1.3416
40749SOL     OW29107  10.083   5.654   7.175 -0.0108  0.2018  0.0962
40749SOL    HW129108  10.104   5.697   7.259 -0.0385  0.1531  0.1281
40749SOL    HW229109  10.096   5.561   7.192  2.7738  0.3501 -0.7313
40750SOL     OW29110   9.856   5.315   4.096  0.1728  0.6397  0.3720
40750SOL    HW129111   9.942   5.282   4.119  0.0664  1.0167  1.3343
40750SOL    HW229112   9.871   5.406   4.071  0.2931  0.2363 -1.1538
40751SOL     OW29113   8.942   2.629  11.516  0.0343 -0.1701 -0.4795
40751SOL    HW129114   8.940   2.713  11.562  2.9688  0.3828 -1.1520
40751SOL    HW229115   8.919   2.565  11.583  0.5919  0.9319  0.8203
40752SOL     OW29116   7.135   0.518   2.640 -0.2760  0.0580  0.0988
40752SOL    HW129117   7.123   0.460   2.716 -2.0440 -1.1413 -1.0363
40752SOL    HW229118   7.166   0.460   2.571  1.2133  1.1237 -0.1674
40753SOL     OW29119   6.392   7.881   1.216  0.4195  0.4160  0.2220
40753SOL    HW129120   6.466   7.921   1.171  0.3071  1.4030  0.8950
40753SOL    HW229121   6.327   7.951   1.222 -0.0573 -0.0712  0.8015
40754SOL     OW29122  10.321   1.776   8.043 -0.3945  0.0622  0.0511
40754SOL    HW129123  10.266   1.854   8.033 -0.1604  0.1122 -0.9458
40754SOL    HW229124  10.263   1.712   8.085 -0.6405  0.7111  0.7137
40755SOL     OW29125   6.340   1.667   8.220 -0.0986  0.7156 -0.1051
40755SOL    HW129126   6.414   1.714   8.182 -0.6742  1.0268 -0.8648
40755SOL    HW229127   6.361   1.660   8.313  1.9069 -1.0933 -0.5992
40756SOL     OW29128   3.292   8.523   0.001  0.0538  0.2676  0.2756
40756SOL    HW129129   3.334   8.551  -0.080  0.8175 -0.8314  0.2710
40756SOL    HW229130   3.291   8.602   0.056 -1.1966  1.2293 -1.0756
40757SOL     OW29131   7.699   3.892   4.121  0.4228  0.1660  0.3305
40757SOL    HW129132   7.740   3.979   4.127  1.4604 -0.2400 -0.5522
40757SOL    HW229133   7.606   3.909   4.137  0.5318  1.5140 -0.3013
40758SOL     OW29134   3.161   2.090   3.227  0.1222 -0.0509  0.2554
40758SOL    HW129135   3.122   2.136   3.152  0.3254 -0.3842 -0.0626
40758SOL    HW229136   3.097   2.024   3.251  0.6061 -0.8043 -0.4666
40759SOL     OW29137   7.099   8.939   9.758 -0.6608 -0.3278  0.3627
40759SOL    HW129138   7.158   8.902   9.823 -1.4485 -0.2788  1.1184
40759SOL    HW229139   7.012   8.929   9.796 -1.3323 -1.9291 -1.4393
40760SOL     OW29140  11.818   5.873   8.888 -1.1182  0.9177 -0.3050
40760SOL    HW129141  11.859   5.921   8.816  0.7776  0.6312  0.5128
40760SOL    HW229142  11.781   5.941   8.944  0.9023  1.4529  0.4610
40761SOL     OW29143   1.843  10.776   2.997  0.2189 -0.2322  0.2221
40761SOL    HW129144   1.841  10.693   3.044  0.1733  0.4429  1.4642
40761SOL    HW229145   1.753  10.788   2.967 -0.1173  0.0424  1.2985
40762SOL     OW29146   4.280   2.129   4.604  0.1540 -0.6297 -0.4020
40762SOL    HW129147   4.232   2.141   4.686 -1.1144 -0.5113 -1.1482
40762SOL    HW229148   4.372   2.123   4.632 -0.0335  1.3305  0.8539
40763SOL     OW29149   7.200   9.518   3.679 -0.0382 -0.4963 -0.2039
40763SOL    HW129150   7.135   9.504   3.611 -0.5545  2.0749 -0.3245
40763SOL    HW229151   7.280   9.540   3.632 -0.3188  0.9884 -0.0362
40764SOL     OW29152   6.072   1.002   3.995  0.0400 -0.3915  0.1335
40764SOL    HW129153   6.116   1.006   3.910 -0.3651 -2.1423 -0.1754
40764SOL    HW229154   6.119   0.934   4.043  0.5502  0.8818  1.5063
40765SOL     OW29155  12.057  11.383   6.019 -0.3956 -0.3582  0.4159
40765SOL    HW129156  12.049  11.293   5.989 -0.8415 -0.2445  0.1865
40765SOL    HW229157  12.040  11.436   5.942 -1.1707 -0.0697  0.7721
40766SOL     OW29158   4.313   9.130   9.798  0.2106  0.0559 -0.0372
40766SOL    HW129159   4.221   9.155   9.796  0.2090  0.2333  1.2733
40766SOL    HW229160   4.358   9.207   9.834  0.7623 -0.3235  0.0933
40767SOL     OW29161   2.168   7.673   2.507  0.2067 -0.1569  0.5879
40767SOL    HW129162   2.115   7.593   2.513  1.9032 -1.4757 -0.8086
40767SOL    HW229163   2.154   7.703   2.417 -2.5571  2.8286  1.7802
40768SOL     OW29164   8.784   3.861   7.730  0.4242  0.2758 -0.0225
40768SOL    HW129165   8.812   3.770   7.722  0.8151  0.4423 -0.6368
40768SOL    HW229166   8.840   3.909   7.668  0.6621  1.0304  0.7558
40769SOL     OW29167   7.462   7.576   5.785  0.0765 -0.4322  0.5626
40769SOL    HW129168   7.490   7.594   5.696 -1.7533 -2.1159 -0.4227
40769SOL    HW229169   7.450   7.663   5.824  0.8970  0.3290 -0.8093
40770SOL     OW29170   3.705   6.991   4.640 -0.4569 -0.0020  0.3466
40770SOL    HW129171   3.688   7.085   4.631  0.7003  0.3116  1.2102
40770SOL    HW229172   3.782   6.976   4.585  0.3456 -0.1041  1.4607
40771SOL     OW29173   5.605   1.660   8.225  0.1122  0.3990 -0.1158
40771SOL    HW129174   5.545   1.588   8.205 -0.6302  0.6827  0.9632
40771SOL    HW229175   5.562   1.737   8.189 -0.5706  0.7115  1.3054
40772SOL     OW29176   5.537  11.844   9.695 -0.1321 -0.3086 -0.2292
40772SOL    HW129177   5.458  11.880   9.654  0.0057  2.0236  1.3492
40772SOL    HW229178   5.574  11.785   9.630 -3.0181 -1.2870 -1.1144
40773SOL     OW29179  11.013   3.505   1.552 -0.3626 -0.6839  0.0717
40773SOL    HW129180  10.933   3.507   1.500  0.3360  0.5405 -0.9867
40773SOL    HW229181  11.046   3.416   1.540 -1.7325 -1.3364  0.8387
40774SOL     OW29182  10.644  12.313   8.162 -0.2225 -0.3783  0.1194
40774SOL    HW129183  10.644  12.352   8.250  1.0626  0.5171 -0.2520
40774SOL    HW229184  10.607  12.381   8.106  1.6151  0.1945 -0.4627
40775SOL     OW29185   1.739  11.025   6.260  0.5270 -0.1557 -0.3915
40775SOL    HW129186   1.761  11.067   6.343  0.8544 -0.6653 -0.2111
40775SOL    HW229187   1.811  11.046   6.202  2.7250 -3.5031  0.7881
40776SOL     OW29188  11.348   2.332  10.015  0.2864 -0.1800 -0.2736
40776SOL    HW129189  11.408   2.401   9.987 -0.4470 -0.3104 -2.3230
40776SOL    HW229190  11.402   2.253  10.019  0.4002 -0.1885 -1.5773
40777SOL     OW29191   3.199   6.050   2.025  0.3800 -0.4187 -0.3490
40777SOL    HW129192   3.176   6.005   2.107 -1.7185 -0.8861 -1.1214
40777SOL    HW229193   3.261   6.118   2.052  0.4234 -1.1229  1.4940
40778SOL     OW29194   2.992   9.818   8.170  0.8177 -0.5732  0.8607
40778SOL    HW129195   2.995   9.888   8.235 -3.0546  0.0637  0.6249
40778SOL    HW229196   3.008   9.862   8.086  0.4542 -0.3169  0.9193
40779SOL     OW29197   1.767   3.308   9.717  0.1544 -0.2602  0.4730
40779SOL    HW129198   1.714   3.327   9.639 -1.1602 -1.1807  1.1007
40779SOL    HW229199   1.841   3.258   9.684  1.0029  1.5277 -0.5037
40780SOL     OW29200   6.673   3.856   1.405  0.5402  0.4962 -0.6018
40780SOL    HW129201   6.664   3.786   1.341 -1.0576 -0.3883  0.5238
40780SOL    HW229202   6.721   3.925   1.359  0.7987 -0.7178 -2.2209
40781SOL     OW29203   6.137   8.826   7.555 -0.0097 -0.0014  0.0334
40781SOL    HW129204   6.129   8.848   7.648 -0.2405  1.0830 -0.2300
40781SOL    HW229205   6.230   8.810   7.541  0.1023  0.3887  0.3322
40782SOL     OW29206   5.287   8.974   7.250  0.3586 -0.4869 -0.8851
40782SOL    HW129207   5.232   9.010   7.321  0.8969 -0.2921 -0.5589
40782SOL    HW229208   5.227   8.920   7.199  0.0240 -0.8919 -0.0936
40783SOL     OW29209   8.536   4.981   1.277 -0.1292 -0.3469  0.3575
40783SOL    HW129210   8.597   4.916   1.310  0.2172  0.7840  2.0704
40783SOL    HW229211   8.516   5.037   1.352 -0.1110  1.7574 -1.0961
40784SOL     OW29212   6.588  10.570   5.474 -0.8913 -0.3081  0.3289
40784SOL    HW129213   6.638  10.489   5.466  4.1329  2.4711 -0.8451
40784SOL    HW229214   6.535  10.573   5.395 -0.0514 -1.8060 -0.3467
40785SOL     OW29215   2.740   6.006  11.406  0.0945  0.5095 -0.3273
40785SOL    HW129216   2.768   5.958  11.328 -1.3317  0.6356 -0.9438
40785SOL    HW229217   2.787   5.963  11.478 -1.6497 -2.3690 -0.7448
40786SOL     OW29218   4.629   3.031   6.321 -0.3233  0.1276  0.4323
40786SOL    HW129219   4.699   2.982   6.279  0.3767  0.7353  0.8671
40786SOL    HW229220   4.561   2.966   6.338  0.9756 -0.9175  1.8890
40787SOL     OW29221   5.574   8.214   4.607 -0.2922  0.7107 -0.6523
40787SOL    HW129222   5.630   8.277   4.652 -0.9779  0.3259  0.7916
40787SOL    HW229223   5.490   8.259   4.598 -0.5945  0.2563 -0.1922
40788SOL     OW29224   4.699   5.393   5.314 -0.3674  0.7675 -0.0244
40788SOL    HW129225   4.694   5.488   5.303  1.2605  0.7403 -1.3653
40788SOL    HW229226   4.785   5.378   5.353  0.2960 -0.2554 -1.7498
40789SOL     OW29227   0.166   1.188  10.054 -0.1741 -0.4800 -0.3473
40789SOL    HW129228   0.223   1.186  10.131  0.2550  0.5983 -0.6213
40789SOL    HW229229   0.164   1.097  10.023  0.5387 -0.7205  0.2835
40790SOL     OW29230  11.056  11.098   9.722 -0.1534  0.5130  0.0071
40790SOL    HW129231  11.135  11.141   9.756 -0.6154  0.9859  0.5167
40790SOL    HW229232  11.054  11.122   9.629  0.5558  0.0958 -0.1205
40791SOL     OW29233   2.731  10.212   4.137  0.0632  0.9133 -0.1849
40791SOL    HW129234   2.641  10.211   4.104  0.0486  0.0578 -0.1233
40791SOL    HW229235   2.766  10.126   4.114  0.2000  0.4479  1.6589
40792SOL     OW29236   1.437  10.390   1.217  0.5391  0.1744 -0.1527
40792SOL    HW129237   1.409  10.305   1.184 -0.4291  0.3430  0.2128
40792SOL    HW229238   1.470  10.436   1.140  0.9071 -0.4566 -0.3855
40793SOL     OW29239  10.089   4.490   4.458  0.2212  0.3512 -0.2561
40793SOL    HW129240  10.040   4.472   4.378  0.1860 -0.7991  0.0034
40793SOL    HW229241  10.077   4.583   4.474 -0.2007  0.4815 -1.3026
40794SOL     OW29242   2.955  10.505   1.863 -0.0879 -0.1830  0.4141
40794SOL    HW129243   3.043  10.542   1.873 -0.1317 -0.5426  2.7890
40794SOL    HW229244   2.909  10.567   1.806  1.3353  0.6427  0.1009
40795SOL     OW29245   7.369   3.623  10.310 -0.5133  0.1042  0.0423
40795SOL    HW129246   7.345   3.698  10.365 -1.5092 -0.1164 -0.0608
40795SOL    HW229247   7.290   3.606  10.259  0.1334 -0.2019 -0.8798
40796SOL     OW29248  10.141   7.653   6.963 -0.0746 -0.5124 -0.1213
40796SOL    HW129249  10.136   7.574   7.016 -0.4170 -0.5729 -0.2429
40796SOL    HW229250  10.099   7.720   7.016  0.5283 -0.3249  0.1322
40797SOL     OW29251   7.869   9.762   7.858 -1.0165 -0.2131 -0.3342
40797SOL    HW129252   7.929   9.688   7.843 -0.5100  0.2583 -0.6824
40797SOL    HW229253   7.812   9.733   7.929  0.5304 -0.1435  0.9925
40798SOL     OW29254   6.409   0.303  10.962 -0.0475 -0.0860 -0.5346
40798SOL    HW129255   6.415   0.393  10.931  1.5371 -0.1342 -0.4848
40798SOL    HW229256   6.484   0.259  10.921  0.8676 -0.6827  1.5880
40799SOL     OW29257   3.869   8.214   9.615 -0.2319  0.0080  0.0882
40799SOL    HW129258   3.815   8.293   9.611 -0.2459 -0.0050  0.0162
40799SOL    HW229259   3.866   8.178   9.526  1.0568  0.7898 -0.3024
40800SOL     OW29260   1.679   7.549   7.410  0.1433 -0.1246  0.3526
40800SOL    HW129261   1.642   7.461   7.406 -1.2127  0.2409  2.9472
40800SOL    HW229262   1.617   7.603   7.361  0.3332 -0.4236 -0.2197
40801SOL     OW29263   0.780   3.450   6.856 -0.4250 -0.2774  0.0987
40801SOL    HW129264   0.832   3.403   6.790 -0.4546 -1.1393  0.6770
40801SOL    HW229265   0.844   3.492   6.912 -0.3872 -0.0546 -0.1099
40802SOL     OW29266   1.854   6.250   9.109  0.0204 -0.0098  0.2395
40802SOL    HW129267   1.810   6.319   9.158 -2.0183 -1.3200  0.3671
40802SOL    HW229268   1.820   6.169   9.146  0.3608 -1.0654 -1.6272
40803SOL     OW29269   6.163   2.841   0.529  0.0939  0.4022  0.6813
40803SOL    HW129270   6.188   2.927   0.564  0.7766  0.2019  0.6850
40803SOL    HW229271   6.160   2.784   0.605  2.0212 -0.1410  0.3909
40804SOL     OW29272   6.139   4.035   7.369  0.3718  0.3163  0.6264
40804SOL    HW129273   6.049   4.066   7.366  0.0904 -0.5023  0.1759
40804SOL    HW229274   6.156   4.017   7.461  1.0651  3.1989  1.1549
40805SOL     OW29275   5.414   7.515   1.161 -0.2505 -0.9266 -0.1443
40805SOL    HW129276   5.460   7.591   1.125 -0.5333 -1.1509 -1.0080
40805SOL    HW229277   5.477   7.475   1.221  0.1388 -0.3946 -0.1891
40806SOL     OW29278   6.721   9.257   4.930  0.3388  0.5683  0.1304
40806SOL    HW129279   6.807   9.224   4.957  0.9954  0.8254 -1.5096
40806SOL    HW229280   6.740   9.340   4.887 -0.4448 -0.3617 -2.1592
40807SOL     OW29281   4.731   1.199   9.017 -0.2556 -0.3623  0.2889
40807SOL    HW129282   4.755   1.268   8.955 -1.0240 -0.7946 -0.5118
40807SOL    HW229283   4.814   1.172   9.057  0.1549  0.4353 -0.0007
40808SOL     OW29284   2.140   6.822   7.797  0.0791  0.1087  0.1724
40808SOL    HW129285   2.117   6.770   7.720 -0.9564  0.3843  0.2812
40808SOL    HW229286   2.129   6.762   7.871  0.2718  0.0819  0.1808
40809SOL     OW29287  11.844   0.862   1.858  0.0843 -0.3760  0.3715
40809SOL    HW129288  11.806   0.779   1.828 -0.3189 -0.5653  1.3838
40809SOL    HW229289  11.768   0.920   1.869  0.2951 -0.1025  0.3951
40810SOL     OW29290  10.467   4.429  10.864  0.3169 -0.0305  0.3653
40810SOL    HW129291  10.466   4.417  10.770  2.1196  2.1447 -0.0285
40810SOL    HW229292  10.430   4.516  10.879  1.2347  0.2089  1.4983
40811SOL     OW29293   8.453   4.354   5.349 -0.2214  0.0649 -0.2226
40811SOL    HW129294   8.480   4.430   5.297  0.1497  0.8124  1.0324
40811SOL    HW229295   8.441   4.284   5.284  0.8481  0.7945 -1.2538
40812SOL     OW29296   7.371   5.892  11.850 -0.3031  0.1502 -0.1087
40812SOL    HW129297   7.359   5.955  11.779 -3.1534 -0.2785 -0.1202
40812SOL    HW229298   7.362   5.944  11.930  1.3953  0.3742 -0.0273
40813SOL     OW29299  12.434   4.156   7.304  0.1084  0.0742  0.5122
40813SOL    HW129300  12.401   4.109   7.380 -0.6307 -0.4841 -0.1344
40813SOL    HW229301  12.434   4.091   7.234 -2.7542  1.4156 -0.9208
40814SOL     OW29302   6.728  10.789   7.728 -0.2891  0.3681 -0.0450
40814SOL    HW129303   6.804  10.735   7.706 -0.9269  0.1749 -1.9366
40814SOL    HW229304   6.766  10.868   7.768  0.9134  0.1921 -0.7678
40815SOL     OW29305   6.560  10.363   9.382  0.1618 -0.9156 -0.2031
40815SOL    HW129306   6.534  10.442   9.430  1.5271 -1.1755  1.0545
40815SOL    HW229307   6.627  10.323   9.437 -1.3120 -3.6146 -0.2111
40816SOL     OW29308   7.934   4.626   9.055 -0.4362 -0.3349  0.5262
40816SOL    HW129309   7.889   4.546   9.082  1.4054 -1.8402 -0.6073
40816SOL    HW229310   7.975   4.604   8.971  0.0097  1.8569  0.1034
40817SOL     OW29311   7.980   3.023   3.025 -0.2736 -0.2685 -0.4623
40817SOL    HW129312   8.016   3.110   3.041 -1.2203 -0.0211  0.3728
40817SOL    HW229313   8.056   2.971   2.999  0.6986  0.2770  1.1067
40818SOL     OW29314  10.385   9.389   3.072  0.1074 -0.2328  0.1737
40818SOL    HW129315  10.304   9.364   3.026  0.3068 -0.8014  0.1223
40818SOL    HW229316  10.371   9.480   3.097  0.4240  0.4824 -1.9809
40819SOL     OW29317   3.157  11.050   6.017 -0.0974 -0.5187  0.1086
40819SOL    HW129318   3.241  11.042   6.062 -0.4493 -1.0554  0.6800
40819SOL    HW229319   3.091  11.044   6.087 -0.6544 -1.4758 -0.4870
40820SOL     OW29320  10.286   5.079   3.622 -0.3433  0.2659  0.7515
40820SOL    HW129321  10.309   5.135   3.547  1.8527  0.2096  1.3232
40820SOL    HW229322  10.283   4.991   3.585 -2.0258  0.4947  0.2215
40821SOL     OW29323   9.028   4.231   8.750  0.1590  0.2923  0.1683
40821SOL    HW129324   9.017   4.171   8.824 -0.9684  1.3495  0.9025
40821SOL    HW229325   8.944   4.278   8.744 -0.7900 -1.4833 -3.4156
40822SOL     OW29326   6.935   5.468   3.286  0.6767 -0.4119  0.0461
40822SOL    HW129327   6.927   5.542   3.226 -2.7732 -0.8053 -0.1403
40822SOL    HW229328   6.968   5.397   3.232  2.2822  0.4409 -0.1792
40823SOL     OW29329   8.865   7.227  10.453  0.6306 -0.5839  0.4510
40823SOL    HW129330   8.889   7.150  10.402  1.6181 -0.8252  1.2449
40823SOL    HW229331   8.891   7.205  10.543 -1.1578 -0.2156  1.0887
40824SOL     OW29332   2.088  10.052  10.489 -0.1444  0.3454 -0.2308
40824SOL    HW129333   2.131  10.082  10.569 -0.9215 -1.0846  0.7801
40824SOL    HW229334   2.109   9.959  10.484 -1.0978  0.1534 -1.0246
40825SOL     OW29335   7.492   4.629   3.908  0.5038 -0.0065 -0.5529
40825SOL    HW129336   7.402   4.660   3.899  1.0189  1.2544 -1.6923
40825SOL    HW229337   7.520   4.610   3.819  1.4231 -0.2243 -0.2287
40826SOL     OW29338   2.541   5.577   6.395  1.3347  0.4466  0.1267
40826SOL    HW129339   2.604   5.638   6.432  2.3999 -2.1432  3.0963
40826SOL    HW229340   2.589   5.531   6.326  2.0210  0.0156  0.8743
40827SOL     OW29341   7.866   7.548   4.776 -0.0353 -0.3052  0.0366
40827SOL    HW129342   7.926   7.604   4.727 -0.3323 -0.6063 -0.7000
40827SOL    HW229343   7.779   7.571   4.742 -0.3665  0.2794  1.2419
40828SOL     OW29344  10.760   2.765   1.386 -0.0640 -0.2945  0.0450
40828SOL    HW129345  10.771   2.819   1.464 -0.3600 -0.1018 -0.0451
40828SOL    HW229346  10.728   2.681   1.419 -0.0036 -0.2775  0.1473
40829SOL     OW29347  11.869   7.436   9.116  0.0556  0.4205 -0.1183
40829SOL    HW129348  11.878   7.353   9.163  0.0220  0.0343 -0.7872
40829SOL    HW229349  11.955   7.450   9.075  1.0232  2.1192  2.2202
40830SOL     OW29350   3.745  10.291   6.169  0.0264 -0.1390  0.2125
40830SOL    HW129351   3.780  10.246   6.245 -2.5486 -1.7832  0.5699
40830SOL    HW229352   3.683  10.355   6.206  0.0772  0.2995 -0.4448
40831SOL     OW29353   6.323   2.235   2.056  0.1212  0.2053 -0.2277
40831SOL    HW129354   6.299   2.321   2.090  1.5071  0.2987  0.5499
40831SOL    HW229355   6.292   2.174   2.122  0.5896  0.2229  0.0115
40832SOL     OW29356  12.299   0.153   9.654  0.7961 -0.3097  0.3277
40832SOL    HW129357  12.395   0.162   9.653  0.8344 -0.6393 -0.6452
40832SOL    HW229358  12.272   0.176   9.565 -0.0480 -0.0734  0.6375
40833SOL     OW29359   1.211   8.694   5.347  0.0732 -0.4444 -0.1518
40833SOL    HW129360   1.232   8.619   5.291 -2.2501 -1.6303  0.4454
40833SOL    HW229361   1.136   8.665   5.399 -1.4009  2.5385 -0.4021
40834SOL     OW29362   7.492  11.167   1.846  0.2629 -0.1492 -0.2317
40834SOL    HW129363   7.466  11.182   1.937 -1.1564  0.5777 -0.7327
40834SOL    HW229364   7.552  11.092   1.851 -1.2923 -1.3969  1.0923
40835SOL     OW29365   9.261   1.144   9.036 -0.1635 -0.3039 -0.3416
40835SOL    HW129366   9.236   1.235   9.054 -0.7083 -0.3304 -0.9595
40835SOL    HW229367   9.217   1.122   8.954  2.3087 -0.1789 -1.8054
40836SOL     OW29368  11.708   7.314   1.068  0.1609  0.2917 -0.0782
40836SOL    HW129369  11.669   7.245   1.123 -0.0812 -1.3980 -2.2556
40836SOL    HW229370  11.716   7.389   1.127  0.3255 -1.5244  2.3817
40837SOL     OW29371   0.349  11.045   5.388 -0.3784 -0.0707  0.4289
40837SOL    HW129372   0.318  11.120   5.440 -0.9302 -0.3195  0.4636
40837SOL    HW229373   0.283  11.034   5.320  0.1910  0.0632 -0.1605
40838SOL     OW29374   0.630   6.671  12.419  0.3515  0.0590  0.2102
40838SOL    HW129375   0.545   6.711  12.400  0.4485  0.2535  0.1925
40838SOL    HW229376   0.694   6.726  12.374  0.6497  0.9192  1.6332
40839SOL     OW29377   9.381   5.020   1.723 -0.0350 -1.1079  0.2329
40839SOL    HW129378   9.410   4.951   1.783 -0.7136  0.2616  2.2315
40839SOL    HW229379   9.408   5.102   1.765 -3.4934  0.0834  0.4734
40840SOL     OW29380   9.391   0.930   4.236 -0.2906  0.2211  0.0068
40840SOL    HW129381   9.348   1.009   4.269  0.9248  1.6192 -1.5911
40840SOL    HW229382   9.326   0.861   4.246 -0.3356  0.6251  4.4597
40841SOL     OW29383   8.071   2.000   7.929 -0.0344  0.1847 -0.4240
40841SOL    HW129384   8.116   2.019   8.011  1.3507 -0.4916 -1.0016
40841SOL    HW229385   7.982   2.032   7.943  0.7685  2.1859  0.5075
40842SOL     OW29386   3.539  12.377   7.812 -0.3564  0.9340  0.9441
40842SOL    HW129387   3.512  12.301   7.864 -0.3370  0.7110  0.6301
40842SOL    HW229388   3.468  12.440   7.823 -0.7341  0.5739  0.5865
40843SOL     OW29389   6.960   4.367  12.118 -0.4576  0.0927  1.0045
40843SOL    HW129390   6.892   4.433  12.136 -0.9443  0.4782 -1.7801
40843SOL    HW229391   6.913   4.293  12.081  0.4333 -0.5481  1.1149
40844SOL     OW29392   7.419   5.901   8.074 -0.4550  0.5145 -0.1582
40844SOL    HW129393   7.376   5.844   8.137 -0.2405 -0.1747 -0.6327
40844SOL    HW229394   7.365   5.980   8.072 -0.1900  0.7678  1.2658
40845SOL     OW29395   3.552   6.512  11.753  0.7052 -0.3184  0.0720
40845SOL    HW129396   3.484   6.446  11.769 -0.5426  0.9214  0.1171
40845SOL    HW229397   3.622   6.490  11.814 -0.7230 -0.1622  1.8647
40846SOL     OW29398   1.220   8.878   4.404  0.0542 -0.4495  0.2447
40846SOL    HW129399   1.166   8.802   4.426 -1.0137  0.3643  0.4538
40846SOL    HW229400   1.194   8.946   4.466  0.5023  0.3223 -0.3912
40847SOL     OW29401   6.997   3.440   7.856  0.0230 -0.2390  0.2257
40847SOL    HW129402   7.087   3.461   7.830 -0.5844  2.9815  0.2816
40847SOL    HW229403   6.960   3.394   7.781  0.9918  0.6813 -0.8530
40848SOL     OW29404   1.804  12.419   2.104 -0.4688 -0.4694 -0.0394
40848SOL    HW129405   1.811  12.453   2.194 -1.5587  1.9839 -0.8007
40848SOL    HW229406   1.865  12.472   2.054 -1.8970  0.0997 -1.2243
40849SOL     OW29407   1.831   5.022   9.480  0.5803  0.5995  0.3971
40849SOL    HW129408   1.767   4.989   9.542 -0.4275 -2.0671 -1.8444
40849SOL    HW229409   1.916   4.998   9.518  0.0224 -0.4655  1.0205
40850SOL     OW29410   4.743   5.665   6.675 -0.5701 -0.0228  0.5165
40850SOL    HW129411   4.752   5.758   6.694  2.0822 -0.5621  2.6450
40850SOL    HW229412   4.811   5.647   6.610 -1.9873 -0.2725 -0.9401
40851SOL     OW29413   7.475   3.055   9.007 -0.3708  0.1710  0.2168
40851SOL    HW129414   7.533   2.979   9.006 -0.7238 -0.1212  0.9812
40851SOL    HW229415   7.463   3.077   8.915  2.2463  1.2544  0.0351
40852SOL     OW29416   6.666  10.461   6.090  0.2232 -0.1134  0.1301
40852SOL    HW129417   6.739  10.417   6.044  1.5298  1.1495  0.9082
40852SOL    HW229418   6.709  10.522   6.149 -1.5178  1.6464 -0.3249
40853SOL     OW29419   5.551   8.677   4.099 -0.2952  0.1376 -0.0578
40853SOL    HW129420   5.613   8.672   4.171  0.7812  1.0539 -0.8849
40853SOL    HW229421   5.603   8.703   4.023 -1.4543 -0.4569 -1.1054
40854SOL     OW29422   3.448  11.381   6.003  0.1439  0.0005 -0.2979
40854SOL    HW129423   3.355  11.370   6.025 -0.4635  2.3810 -1.3647
40854SOL    HW229424   3.454  11.356   5.911  0.6263 -0.3901 -0.1632
40855SOL     OW29425   6.861   2.555   5.201  0.3716 -0.2711 -0.6958
40855SOL    HW129426   6.930   2.614   5.233  0.8610 -1.8146  1.3329
40855SOL    HW229427   6.807   2.610   5.145  2.7694  1.2208 -1.7460
40856SOL     OW29428   5.065   0.045   1.717 -0.6972 -0.3050 -0.3437
40856SOL    HW129429   5.056   0.111   1.649  2.0084 -1.2982 -1.8301
40856SOL    HW229430   4.975   0.022   1.740 -1.7315  3.1204 -0.4112
40857SOL     OW29431   7.107   2.195   4.349  0.0663 -0.9343 -0.6152
40857SOL    HW129432   7.086   2.288   4.333  0.4707 -0.3957  1.6965
40857SOL    HW229433   7.201   2.189   4.332  0.5095 -0.3466  1.3572
40858SOL     OW29434  10.365  12.332   1.843 -0.4653 -0.6746  0.0639
40858SOL    HW129435  10.385  12.261   1.904 -1.4764 -1.4762 -0.5046
40858SOL    HW229436  10.293  12.298   1.789  0.0805  0.1884 -1.2611
40859SOL     OW29437  10.853   6.810  11.409 -0.0040  0.2720 -0.2112
40859SOL    HW129438  10.933   6.833  11.362  0.4942  0.0251  0.5029
40859SOL    HW229439  10.816   6.738  11.359  1.2970 -0.9857  0.5559
40860SOL     OW29440   1.033   5.165   2.614  0.0604 -0.1972 -0.1755
40860SOL    HW129441   0.942   5.170   2.642 -0.1246 -1.7508 -0.4362
40860SOL    HW229442   1.045   5.075   2.585  1.9033 -0.2401  0.5911
40861SOL     OW29443   8.639   0.405   7.213 -0.2945  0.1407 -0.1288
40861SOL    HW129444   8.714   0.444   7.167 -0.6025  0.1442 -0.6312
40861SOL    HW229445   8.587   0.364   7.144 -0.3747 -0.4945  0.3080
40862SOL     OW29446   7.544   1.591   5.344 -0.0333 -0.1438  0.1331
40862SOL    HW129447   7.507   1.576   5.257  1.4625 -1.2168 -0.3650
40862SOL    HW229448   7.519   1.680   5.366 -1.1962 -0.1629 -1.0013
40863SOL     OW29449   9.655   8.265   0.482 -0.1075  0.6476  0.3625
40863SOL    HW129450   9.719   8.200   0.509  0.0661  0.0709 -1.3020
40863SOL    HW229451   9.699   8.316   0.415 -0.7924  1.4194  0.4818
40864SOL     OW29452   3.272   0.472   3.469 -0.1884  0.4243 -0.1366
40864SOL    HW129453   3.354   0.430   3.496  0.7359  2.7379  0.9521
40864SOL    HW229454   3.256   0.438   3.381  0.7093 -1.7803  0.4916
40865SOL     OW29455   4.028   4.755  11.963 -0.0099 -0.7497  0.0809
40865SOL    HW129456   4.045   4.716  12.049  0.8512  1.0243  0.7703
40865SOL    HW229457   4.102   4.814  11.949  1.3050 -2.8785 -3.1095
40866SOL     OW29458   9.094  11.220   1.652 -0.0950  0.1485  0.0925
40866SOL    HW129459   9.119  11.312   1.648 -1.6358  0.6543  1.2086
40866SOL    HW229460   9.172  11.176   1.686  1.4228  0.6499 -2.4674
40867SOL     OW29461   5.157   2.441  11.196  0.4011 -0.1457  0.0153
40867SOL    HW129462   5.108   2.398  11.266  1.0983  0.2298  0.7507
40867SOL    HW229463   5.167   2.373  11.129  0.0826 -0.6373  0.4552
40868SOL     OW29464   3.190   1.359   2.929 -0.1459  0.0646 -0.7068
40868SOL    HW129465   3.150   1.354   2.842 -1.4625 -1.0353 -0.0768
40868SOL    HW229466   3.187   1.452   2.951  0.7085  0.4453 -2.0309
40869SOL     OW29467   6.913   4.363   3.849 -0.0759  0.3720  0.2290
40869SOL    HW129468   6.956   4.430   3.796  0.0688  0.5714  0.5899
40869SOL    HW229469   6.820   4.372   3.828  0.0273  0.1196 -0.3540
40870SOL     OW29470   8.537   5.186   5.580  0.7019 -0.0376  0.1579
40870SOL    HW129471   8.631   5.203   5.579  0.9547 -1.3779 -0.7097
40870SOL    HW229472   8.497   5.273   5.567  1.7593  0.7019  1.6095
40871SOL     OW29473   8.566  12.384   6.814  0.3959  0.4187 -0.6291
40871SOL    HW129474   8.618  12.381   6.894 -0.2557  1.1963 -0.1592
40871SOL    HW229475   8.515  12.303   6.815  0.9559  0.0614 -0.6561
40872SOL     OW29476  11.132   2.306   9.446 -0.4510  0.1167 -0.1718
40872SOL    HW129477  11.171   2.329   9.362 -0.5911 -3.3211 -1.3249
40872SOL    HW229478  11.046   2.347   9.445  0.5576  2.3611 -0.4342
40873SOL     OW29479  10.004   3.031   6.356  0.4032 -0.0051 -0.4478
40873SOL    HW129480  10.003   3.049   6.262 -2.2099  2.2340 -0.1289
40873SOL    HW229481  10.061   3.099   6.392 -0.4917  0.6544 -0.2420
40874SOL     OW29482   4.388   2.465   1.631  0.4116 -0.2702 -0.1906
40874SOL    HW129483   4.345   2.448   1.547 -1.1787  1.2134  0.2769
40874SOL    HW229484   4.390   2.560   1.639  0.1499 -0.3798  1.6364
40875SOL     OW29485   9.097   8.717   3.457 -0.4233  0.4749  0.2949
40875SOL    HW129486   9.004   8.716   3.481 -0.0921  1.7584  1.7830
40875SOL    HW229487   9.139   8.659   3.520 -0.0212  1.1544  0.6710
40876SOL     OW29488   9.225   2.820  11.666  0.1309 -0.1674  1.0529
40876SOL    HW129489   9.221   2.753  11.735 -1.9791  0.1424  1.3037
40876SOL    HW229490   9.159   2.884  11.692 -1.0646 -0.2644 -1.4604
40877SOL     OW29491   6.119  11.809   1.952  0.1580  0.1619  0.0625
40877SOL    HW129492   6.176  11.883   1.974  0.3948 -0.1489  0.4959
40877SOL    HW229493   6.179  11.741   1.921  0.0009 -0.0698  0.2608
40878SOL     OW29494   8.803  10.539   2.883  0.6347 -0.2824  0.2248
40878SOL    HW129495   8.887  10.571   2.850  0.3588 -0.3839 -0.6133
40878SOL    HW229496   8.825  10.458   2.929  0.7992 -1.4632 -1.7769
40879SOL     OW29497   0.801  11.814   2.230 -0.0224 -0.1155  0.0695
40879SOL    HW129498   0.796  11.853   2.317  3.1893 -2.9112  1.7348
40879SOL    HW229499   0.728  11.752   2.228  0.0025 -0.1885  0.8941
40880SOL     OW29500  11.397  11.645   6.763  0.5415 -0.2196 -0.6476
40880SOL    HW129501  11.371  11.562   6.804  0.4143  0.2529  0.2463
40880SOL    HW229502  11.460  11.620   6.695 -0.1550 -1.1254 -0.9794
40881SOL     OW29503   8.254   0.960   7.235  0.3300 -0.3907  0.3366
40881SOL    HW129504   8.346   0.986   7.242  0.1739 -0.0631  1.3681
40881SOL    HW229505   8.210   1.037   7.200  0.4509 -0.5702 -0.2209
40882SOL     OW29506   4.202  12.148   8.353 -0.0110 -0.4162  0.2211
40882SOL    HW129507   4.222  12.240   8.371 -1.6919  0.1949 -0.7604
40882SOL    HW229508   4.260  12.125   8.281 -0.4682  0.2842 -0.3856
40883SOL     OW29509   1.816   4.562   7.406 -0.3226  0.3500  0.0921
40883SOL    HW129510   1.783   4.638   7.454 -2.4714 -1.7697  2.2460
40883SOL    HW229511   1.888   4.529   7.458 -0.5544 -0.1008  0.1350
40884SOL     OW29512   0.264   6.105   9.824  0.3027  0.1384  0.3540
40884SOL    HW129513   0.313   6.058   9.756 -1.5569  0.0952 -1.0355
40884SOL    HW229514   0.218   6.174   9.776 -2.1552 -0.7339  1.2679
40885SOL     OW29515   9.168  11.257   5.250 -0.4474 -0.3593 -0.1470
40885SOL    HW129516   9.104  11.319   5.216 -0.4632 -0.5329 -0.4351
40885SOL    HW229517   9.172  11.276   5.344 -0.3874  0.1340 -0.2450
40886SOL     OW29518   6.758   8.196   8.164  0.3810 -0.0931  0.0867
40886SOL    HW129519   6.775   8.122   8.107 -2.4046 -0.4723 -0.4041
40886SOL    HW229520   6.688   8.244   8.121  0.1438  1.2019  1.7983
40887SOL     OW29521   9.430  10.809   5.552 -0.4611 -0.0987  0.4710
40887SOL    HW129522   9.434  10.826   5.457 -3.0349 -1.2820  0.0646
40887SOL    HW229523   9.353  10.857   5.581 -0.9204 -1.4305  1.5509
40888SOL     OW29524   0.075   3.461   5.988 -0.3021  0.2826  0.0411
40888SOL    HW129525   0.135   3.396   6.025 -1.9065 -1.3788 -0.0994
40888SOL    HW229526   0.009   3.474   6.055  0.4997  2.6130  0.4725
40889SOL     OW29527   0.692   5.046   7.524 -0.2259 -0.2627 -0.1718
40889SOL    HW129528   0.785   5.024   7.530  0.6878  2.8654 -0.9672
40889SOL    HW229529   0.678   5.111   7.593 -1.3467  0.5541 -1.1294
40890SOL     OW29530   2.842   6.784   6.602 -0.0629 -0.3684 -0.6629
40890SOL    HW129531   2.886   6.830   6.674 -0.3040 -1.6109  0.3326
40890SOL    HW229532   2.811   6.853   6.544 -0.7337  0.7651  0.9502
40891SOL     OW29533   3.298  11.491  10.256  0.2976  0.1365 -0.0012
40891SOL    HW129534   3.296  11.553  10.184 -0.5122  0.0254 -0.0826
40891SOL    HW229535   3.374  11.436  10.239 -0.4609 -0.5392 -1.3264
40892SOL     OW29536  11.299   6.624  12.188 -0.2509 -0.8365 -0.7351
40892SOL    HW129537  11.210   6.650  12.163  0.0216  0.2371 -0.6607
40892SOL    HW229538  11.325   6.561  12.121 -0.5861 -0.1489 -1.5414
40893SOL     OW29539   9.519   1.921   1.840 -0.3124 -0.1528 -0.4581
40893SOL    HW129540   9.572   1.994   1.809  0.0009 -0.1305  0.1075
40893SOL    HW229541   9.583   1.858   1.874 -0.4860 -1.2260 -2.0019
40894SOL     OW29542   1.048   8.464   5.453 -0.2623 -0.5648 -0.0313
40894SOL    HW129543   1.003   8.405   5.391  1.4459 -1.8358 -0.1467
40894SOL    HW229544   0.992   8.464   5.530 -0.5548 -1.9965 -0.2044
40895SOL     OW29545  10.392   7.985   1.274  0.2953  0.3035  0.3976
40895SOL    HW129546  10.413   7.892   1.277  1.0193  0.4229 -0.5324
40895SOL    HW229547  10.468   8.025   1.232 -0.1957  1.2568  0.4033
40896SOL     OW29548   6.144   8.687  10.348 -0.0803 -0.1909  0.2416
40896SOL    HW129549   6.180   8.734  10.423 -1.2785  0.9774  0.1429
40896SOL    HW229550   6.086   8.751  10.306 -1.1039 -1.5012 -0.4291
40897SOL     OW29551   8.491   8.916   3.368  0.2890  0.0518  0.6063
40897SOL    HW129552   8.424   8.919   3.300  1.6591 -0.5602 -0.8262
40897SOL    HW229553   8.573   8.935   3.322  1.5119 -2.2651  1.6935
40898SOL     OW29554  10.501  10.907   5.630 -0.3445  0.2443  0.2593
40898SOL    HW129555  10.442  10.924   5.556  1.0479  1.2225 -0.6790
40898SOL    HW229556  10.443  10.906   5.707 -1.7235 -0.0052 -0.7386
40899SOL     OW29557   9.843   2.416   6.563 -0.3766 -0.0391 -0.2051
40899SOL    HW129558   9.937   2.412   6.542  0.3289  0.2115  2.4893
40899SOL    HW229559   9.808   2.480   6.501  1.6274  1.2748 -0.0880
40900SOL     OW29560   5.321  12.240   8.704  0.7483 -0.1246  0.3237
40900SOL    HW129561   5.406  12.227   8.746  1.5454  0.2811 -1.0927
40900SOL    HW229562   5.305  12.159   8.656  0.8648  0.2194 -0.3027
40901SOL     OW29563   8.774   4.403   5.267 -0.3419 -0.6238  0.1369
40901SOL    HW129564   8.779   4.492   5.302 -1.5115  0.2213 -1.6683
40901SOL    HW229565   8.737   4.350   5.338 -1.1435  0.6785  0.7180
40902SOL     OW29566  11.543   7.890  10.815  0.6050  0.0101  0.2097
40902SOL    HW129567  11.556   7.829  10.887 -0.1746 -0.8836 -0.3763
40902SOL    HW229568  11.524   7.974  10.857  1.5777 -0.1629  1.0244
40903SOL     OW29569   5.597   4.134   1.849  0.4433 -0.8851 -0.4432
40903SOL    HW129570   5.667   4.146   1.785  0.2272 -1.2813 -0.7639
40903SOL    HW229571   5.517   4.126   1.795 -0.2182  1.9553 -0.0204
40904SOL     OW29572   8.183   9.279   5.908 -0.4339  0.4884 -0.6932
40904SOL    HW129573   8.106   9.222   5.909 -1.1612  1.4475 -0.1799
40904SOL    HW229574   8.160   9.351   5.849  0.8600 -0.2306 -2.1322
40905SOL     OW29575   0.217   4.789   8.676 -0.4290 -0.1635  0.3186
40905SOL    HW129576   0.286   4.790   8.741 -0.2613 -0.4809  0.1440
40905SOL    HW229577   0.258   4.824   8.597 -1.0777  1.9231  0.8254
40906SOL     OW29578   0.384   5.945   5.197 -0.6150 -0.1453 -0.3270
40906SOL    HW129579   0.289   5.940   5.191 -0.6944 -1.4259  1.4558
40906SOL    HW229580   0.416   5.873   5.142 -0.6374  0.2962 -0.9405
40907SOL     OW29581  10.832   7.901   3.704  0.1807 -0.0638  0.2731
40907SOL    HW129582  10.745   7.940   3.711 -0.4092 -1.2531 -0.2337
40907SOL    HW229583  10.867   7.903   3.793 -1.0272 -1.0478  0.7829
40908SOL     OW29584   0.100  12.186   3.809 -0.5432  0.0575  0.1762
40908SOL    HW129585   0.051  12.157   3.732 -2.6157 -0.7842  1.7182
40908SOL    HW229586   0.190  12.158   3.791 -0.9538 -0.0867 -1.9258
40909SOL     OW29587  10.239   7.963   2.349 -0.1057  0.2310  0.3439
40909SOL    HW129588  10.241   7.944   2.255  0.6173  1.1696  0.1547
40909SOL    HW229589  10.190   7.890   2.387 -0.5065 -0.1077 -0.7727
40910SOL     OW29590  11.005   7.702   7.341 -0.1757  0.3864 -0.2756
40910SOL    HW129591  11.043   7.639   7.403 -0.2303 -0.0278 -0.6581
40910SOL    HW229592  11.081   7.743   7.299 -0.1143 -1.1870 -1.7942
40911SOL     OW29593   9.365   7.304   7.554  0.0395 -0.1317 -0.1456
40911SOL    HW129594   9.452   7.269   7.533  0.4077  0.0533  0.9738
40911SOL    HW229595   9.307   7.228   7.549  0.2936 -0.2939 -0.7154
40912SOL     OW29596   7.471   0.473   8.761  0.3740 -0.0145 -0.1289
40912SOL    HW129597   7.504   0.404   8.818  2.2616 -0.4295 -1.6406
40912SOL    HW229598   7.539   0.539   8.761 -0.9457  1.4104  0.4419
40913SOL     OW29599   7.865   9.547  11.557 -0.1975 -0.1270 -1.0919
40913SOL    HW129600   7.806   9.606  11.604 -0.7979 -1.8518  0.4323
40913SOL    HW229601   7.941   9.601  11.537 -1.0692  1.3850 -0.5395
40914SOL     OW29602   8.989   3.263  11.510  0.0332  0.2496 -0.0830
40914SOL    HW129603   9.071   3.294  11.549 -0.6674  0.5709  1.1865
40914SOL    HW229604   8.930   3.252  11.584 -0.3535 -2.3063 -0.6844
40915SOL     OW29605   9.450  10.084   5.708 -0.1825  0.1171 -0.2450
40915SOL    HW129606   9.470  10.164   5.758  2.1529 -0.6502  0.1336
40915SOL    HW229607   9.437  10.017   5.775 -2.4634  0.1727 -0.5506
40916SOL     OW29608   5.651   8.940   3.480  0.0388 -0.3913  0.3626
40916SOL    HW129609   5.674   8.998   3.407 -1.4569  1.6102  1.3633
40916SOL    HW229610   5.614   8.863   3.438 -0.4187  0.5406 -1.0371
40917SOL     OW29611   6.646   3.691   5.081 -0.0586 -0.0363  0.0091
40917SOL    HW129612   6.682   3.750   5.015  0.6901 -0.7884 -0.2553
40917SOL    HW229613   6.657   3.604   5.045  0.0350 -0.4382  0.9703
40918SOL     OW29614   1.216   7.148   3.360 -0.7097  0.1578 -0.2979
40918SOL    HW129615   1.225   7.197   3.442  1.0867 -0.7829  0.1133
40918SOL    HW229616   1.129   7.107   3.366 -0.9996  0.8948  0.6889
40919SOL     OW29617  10.892   5.769  12.456 -0.1505 -0.0274 -0.2976
40919SOL    HW129618  10.920   5.860  12.467 -2.1602  0.6677 -0.5086
40919SOL    HW229619  10.925   5.724  12.534  0.3829  0.9947  0.0829
40920SOL     OW29620   4.403   3.806   5.787 -0.0295  0.6585 -0.2385
40920SOL    HW129621   4.363   3.873   5.733 -2.4808  0.6321  1.3506
40920SOL    HW229622   4.452   3.854   5.854 -0.7273  0.8530  0.1425
40921SOL     OW29623   1.048   7.847   0.297  0.3588  0.6337  0.3544
40921SOL    HW129624   1.056   7.928   0.347  0.9403  0.5840  0.3471
40921SOL    HW229625   0.957   7.819   0.310 -0.3340  2.1423 -0.9746
40922SOL     OW29626   0.992   4.051  12.331 -0.3226  0.5968 -0.1506
40922SOL    HW129627   1.058   3.989  12.302 -1.8466 -1.4098  0.3907
40922SOL    HW229628   0.919   4.038  12.271 -0.4871  2.3466 -0.3931
40923SOL     OW29629  11.017   5.056   9.558  0.3661  0.0136 -0.0821
40923SOL    HW129630  11.072   5.060   9.636 -0.2908 -1.4379  0.4864
40923SOL    HW229631  11.078   5.066   9.485  1.9044 -3.9965  0.3921
40924SOL     OW29632   5.612   8.842   5.621  0.1794 -0.0333  0.0298
40924SOL    HW129633   5.633   8.919   5.569 -0.1463 -0.3543 -0.5867
40924SOL    HW229634   5.624   8.871   5.712 -2.5387  1.5657 -0.0246
40925SOL     OW29635  10.048   3.429   8.457 -0.2476 -0.0811 -0.3963
40925SOL    HW129636  10.082   3.506   8.411 -1.5178  0.7354 -0.0052
40925SOL    HW229637  10.115   3.409   8.522 -0.4349  1.4403  0.3059
40926SOL     OW29638   6.042   3.847   3.800  0.1033  0.3021  0.2674
40926SOL    HW129639   5.993   3.870   3.721  0.5894  1.2173  0.2130
40926SOL    HW229640   6.095   3.924   3.818  2.0804 -0.9165 -0.0869
40927SOL     OW29641   9.797   3.735   9.842 -0.7798  0.1033 -0.2106
40927SOL    HW129642   9.721   3.696   9.799 -0.5349  0.9452 -1.4542
40927SOL    HW229643   9.834   3.794   9.776 -0.2458  1.2583  1.0834
40928SOL     OW29644   7.600   6.338   0.606 -0.0307 -0.3265  0.5620
40928SOL    HW129645   7.651   6.419   0.618  0.7416 -0.9587  1.7550
40928SOL    HW229646   7.666   6.269   0.603 -0.6937 -0.9321 -0.2976
40929SOL     OW29647   0.078   0.894  11.147  0.1989 -0.0906 -0.2655
40929SOL    HW129648   0.048   0.820  11.200  0.6408  0.4197  0.7309
40929SOL    HW229649   0.134   0.854  11.080  0.8742 -0.6239  0.5921
40930SOL     OW29650   0.223   0.055   0.577  0.2666 -0.0661 -0.4991
40930SOL    HW129651   0.248   0.058   0.485  1.4070 -1.0734 -0.2562
40930SOL    HW229652   0.148  -0.004   0.580  0.3493 -0.1868 -0.7619
40931SOL     OW29653   5.143   8.215   5.582 -0.1085 -0.5018 -0.3328
40931SOL    HW129654   5.205   8.260   5.524  0.5437 -2.1359 -0.9667
40931SOL    HW229655   5.097   8.286   5.627  1.6756  0.7904 -0.4212
40932SOL     OW29656   5.667   7.070   2.705  0.3638  0.2491  0.0242
40932SOL    HW129657   5.640   6.995   2.758 -0.4894  1.5550  1.5169
40932SOL    HW229658   5.748   7.100   2.746  1.1944 -0.3523 -1.1171
40933SOL     OW29659   6.875   3.007   8.569  0.6201 -0.6822  0.3662
40933SOL    HW129660   6.902   3.061   8.494  1.3424  2.6736  2.7904
40933SOL    HW229661   6.792   2.969   8.542  0.1284  1.5502 -1.6780
40934SOL     OW29662   4.853   7.039   4.601 -0.1787 -0.0720 -0.7719
40934SOL    HW129663   4.852   6.979   4.676 -0.1902  0.0417 -0.6799
40934SOL    HW229664   4.902   7.116   4.633  1.1462 -0.6394 -1.3704
40935SOL     OW29665  11.279   1.235   1.658  0.0101 -0.7004  0.1853
40935SOL    HW129666  11.285   1.171   1.729  0.6593 -1.5982 -0.6430
40935SOL    HW229667  11.214   1.298   1.688 -1.5765 -2.3969  0.5531
40936SOL     OW29668  11.049   2.941   8.381  0.4803  0.2063 -0.4828
40936SOL    HW129669  11.024   2.874   8.318 -0.9032 -0.7540  1.0124
40936SOL    HW229670  11.096   3.007   8.329 -0.2855 -0.7069 -2.4202
40937SOL     OW29671   7.777   1.886   8.067 -0.3290  0.3820 -1.2246
40937SOL    HW129672   7.847   1.822   8.079 -0.0468  1.0426  1.1070
40937SOL    HW229673   7.696   1.835   8.072 -0.1047  0.1398  0.5447
40938SOL     OW29674  11.810  11.610   8.842  0.0209 -0.4027  0.0531
40938SOL    HW129675  11.824  11.702   8.864  0.4879 -0.1404 -1.2350
40938SOL    HW229676  11.854  11.561   8.912  2.3466  0.3903 -0.7832
40939SOL     OW29677   7.525   0.027  12.396 -0.0315  0.1661  0.1210
40939SOL    HW129678   7.560   0.075  12.322  0.4830 -0.0878  0.1942
40939SOL    HW229679   7.591   0.036  12.465 -0.7701  0.8975  0.7542
40940SOL     OW29680   9.403   0.914   7.913  0.0606 -0.3053 -0.6102
40940SOL    HW129681   9.457   0.906   7.835  1.4171  0.4852  0.2189
40940SOL    HW229682   9.425   0.837   7.965 -0.3383 -0.4788 -0.6916
40941SOL     OW29683   4.844   8.931   6.179 -0.2303 -0.2290  0.4818
40941SOL    HW129684   4.891   8.888   6.250 -2.3348 -0.9701  1.4917
40941SOL    HW229685   4.913   8.972   6.127  1.5215 -1.2809  1.8498
40942SOL     OW29686   1.131   9.862  10.071  0.1505  0.2985 -0.3583
40942SOL    HW129687   1.171   9.784  10.032  0.0391 -0.1697  0.4477
40942SOL    HW229688   1.038   9.854  10.051 -0.2733 -1.1165  1.8859
40943SOL     OW29689   9.344   6.858   8.906  0.1253 -0.6169  0.3636
40943SOL    HW129690   9.261   6.851   8.858 -1.1939  2.7311  1.8159
40943SOL    HW229691   9.319   6.893   8.992  3.0559  1.2286  0.6190
40944SOL     OW29692   0.110   7.226   2.458 -0.1047 -0.3351  0.0476
40944SOL    HW129693   0.030   7.256   2.415  0.0591  1.6680  1.0381
40944SOL    HW229694   0.082   7.155   2.515 -0.9036 -0.6474 -0.7129
40945SOL     OW29695  10.520  10.713   6.356  0.0138 -0.8964 -0.2472
40945SOL    HW129696  10.539  10.804   6.381 -0.0193 -0.6188 -1.1808
40945SOL    HW229697  10.574  10.661   6.415 -0.1416 -0.2821  0.4614
40946SOL     OW29698   2.942   6.396  10.451 -0.3302 -0.6787 -0.1962
40946SOL    HW129699   2.922   6.439  10.535 -0.5631  0.4903 -0.8155
40946SOL    HW229700   2.996   6.321  10.474  0.2221  0.0401  0.9405
40947SOL     OW29701   5.317  12.291   4.697  0.0668  0.0827  0.4123
40947SOL    HW129702   5.241  12.326   4.744 -1.1805 -0.4735 -1.0956
40947SOL    HW229703   5.362  12.368   4.663 -2.0121  0.4179 -1.9025
40948SOL     OW29704   6.292   3.126  10.391  0.6645 -0.1272  0.5311
40948SOL    HW129705   6.258   3.037  10.379  1.2854 -0.1777 -1.2427
40948SOL    HW229706   6.366   3.132  10.331 -0.2394  2.0296 -0.5047
40949SOL     OW29707   0.594   6.707   0.712 -0.7739  0.1072  0.3713
40949SOL    HW129708   0.536   6.767   0.759 -1.7130  2.0284 -2.8691
40949SOL    HW229709   0.535   6.655   0.657  0.3941  0.2672 -1.0841
40950SOL     OW29710   1.350   6.973   3.230 -0.2238  0.4595 -0.4933
40950SOL    HW129711   1.295   7.045   3.262 -1.9003 -0.5897 -0.9319
40950SOL    HW229712   1.366   6.919   3.308  0.3183  0.8246 -0.3422
40951SOL     OW29713   5.320   2.641   8.387 -0.0402 -0.4618 -0.6610
40951SOL    HW129714   5.267   2.671   8.313 -0.1629  0.1130 -0.3416
40951SOL    HW229715   5.301   2.703   8.457  0.9623 -0.3232 -0.4995
40952SOL     OW29716   8.486   6.002   4.318  0.3798 -0.4006  1.4019
40952SOL    HW129717   8.503   5.960   4.402  0.1202 -1.0092  1.1532
40952SOL    HW229718   8.479   5.930   4.256 -1.4541 -0.0864  1.2036
40953SOL     OW29719   4.666   4.155  12.123 -0.0560 -0.1789 -0.0455
40953SOL    HW129720   4.650   4.217  12.194 -1.2157  1.2491 -1.4542
40953SOL    HW229721   4.661   4.209  12.044 -0.0833 -1.9167 -1.2787
40954SOL     OW29722   5.343  11.202  12.351  0.1017 -0.5447 -0.1901
40954SOL    HW129723   5.276  11.139  12.376 -0.0678  0.7310  3.1732
40954SOL    HW229724   5.329  11.276  12.410 -0.3197  3.2189 -4.5046
40955SOL     OW29725   4.218   4.743  10.799  0.1348  0.1099 -0.4777
40955SOL    HW129726   4.148   4.744  10.865  0.9170  1.1351  0.3743
40955SOL    HW229727   4.231   4.650  10.779 -0.3613 -0.1983  0.5503
40956SOL     OW29728  10.082   6.596   0.378  0.3399  0.3842  0.4176
40956SOL    HW129729  10.030   6.647   0.440 -1.4738  0.0538 -0.7771
40956SOL    HW229730  10.113   6.661   0.314  1.2797  0.5538  1.0313
40957SOL     OW29731  12.021   8.663   0.465 -0.3903 -0.2090  0.8199
40957SOL    HW129732  12.085   8.600   0.431  0.7012  1.6085 -0.7057
40957SOL    HW229733  12.068   8.745   0.470 -2.5204  1.1652 -0.1062
40958SOL     OW29734   2.001   8.354   7.629 -0.0865  0.1275  0.2237
40958SOL    HW129735   1.912   8.390   7.634 -0.9226 -1.8483  0.5240
40958SOL    HW229736   2.018   8.346   7.535  0.8084  2.7654  0.0767
40959SOL     OW29737   2.181   3.906   1.082 -0.2774  0.1533  0.4627
40959SOL    HW129738   2.101   3.955   1.062 -0.0577 -0.1283 -1.2634
40959SOL    HW229739   2.150   3.818   1.103 -0.4019 -0.4111 -1.7793
40960SOL     OW29740  11.765   7.984   6.474  0.6952  0.2926  0.4736
40960SOL    HW129741  11.833   7.918   6.460 -0.1925 -0.6832  0.6941
40960SOL    HW229742  11.813   8.067   6.477  1.7056 -0.1980 -1.0204
40961SOL     OW29743   8.255   1.888   6.755  0.2108 -0.6607 -0.4218
40961SOL    HW129744   8.240   1.946   6.681 -0.7030  0.0309  0.2948
40961SOL    HW229745   8.295   1.943   6.822 -0.4856 -0.8911  0.1947
40962SOL     OW29746   4.500   1.940   6.892 -0.0975  0.3616 -0.2145
40962SOL    HW129747   4.569   1.939   6.958  1.5749  1.4731 -1.8270
40962SOL    HW229748   4.497   1.850   6.858  0.7667  0.3561 -0.2960
40963SOL     OW29749   9.557  10.356   9.791  0.6497 -0.0018 -0.1647
40963SOL    HW129750   9.608  10.392   9.863  0.5104  2.9366 -1.4032
40963SOL    HW229751   9.469  10.345   9.827  0.4537  1.9378  0.0282
40964SOL     OW29752  11.290   5.593   3.909  0.3956 -0.3262 -0.0674
40964SOL    HW129753  11.198   5.616   3.921  0.6527  1.2697 -0.8470
40964SOL    HW229754  11.299   5.581   3.814  1.4477  1.8366 -0.2885
40965SOL     OW29755   0.353   5.330  11.015 -0.0931 -0.3469  0.1709
40965SOL    HW129756   0.264   5.347  10.984  0.1839  0.8612 -0.0236
40965SOL    HW229757   0.389   5.417  11.030  0.6954 -0.8592  1.2920
40966SOL     OW29758  11.015   8.570  10.982 -0.5546  0.7706  0.5759
40966SOL    HW129759  10.955   8.507  11.020 -2.2353  1.6649 -0.4958
40966SOL    HW229760  10.980   8.655  11.008 -0.4418  1.3412 -1.0537
40967SOL     OW29761   2.904   0.747   1.899  0.1292  0.3104  0.5771
40967SOL    HW129762   2.888   0.654   1.882  0.6886  0.1894  0.6922
40967SOL    HW229763   2.818   0.788   1.893 -0.2457 -0.3414  1.3119
40968SOL     OW29764   2.883   4.206   2.013  0.3928  0.3130 -0.6387
40968SOL    HW129765   2.869   4.248   2.097  0.4069 -0.0361 -0.4605
40968SOL    HW229766   2.821   4.250   1.954  0.3071  0.4830 -0.4244
40969SOL     OW29767   9.570   1.332   8.943  0.1265 -0.3416  0.7001
40969SOL    HW129768   9.598   1.365   8.858 -1.6461  1.0257  0.5770
40969SOL    HW229769   9.649   1.298   8.984  1.2196  0.0573 -1.0147
40970SOL     OW29770   9.214  11.464   8.445 -0.0349 -0.7659 -0.0629
40970SOL    HW129771   9.204  11.422   8.531 -1.8054 -0.4225 -0.0554
40970SOL    HW229772   9.144  11.529   8.442  1.9627  1.4841 -0.5147
40971SOL     OW29773   1.500   6.943   4.697 -0.2917 -0.2556  0.0904
40971SOL    HW129774   1.510   7.023   4.645 -1.5606  1.6589  2.5691
40971SOL    HW229775   1.568   6.950   4.765 -0.0011 -1.6260 -0.0301
40972SOL     OW29776   2.842  12.128   2.757  0.2349 -0.4251  0.5690
40972SOL    HW129777   2.799  12.166   2.833  0.6510  0.8604  0.1746
40972SOL    HW229778   2.886  12.201   2.714 -0.7327 -0.9398 -1.4346
40973SOL     OW29779   4.465   2.965   2.198 -0.1619 -0.1947 -0.0902
40973SOL    HW129780   4.492   3.008   2.280  1.5427 -0.0663 -0.6790
40973SOL    HW229781   4.371   2.955   2.207 -0.5064  2.7068  0.5484
40974SOL     OW29782   7.029  12.390   5.187  0.8264 -0.2336 -0.2260
40974SOL    HW129783   6.951  12.377   5.133  1.1299  0.3063 -0.8088
40974SOL    HW229784   7.092  12.325   5.155  0.5622 -0.8118  0.3842
40975SOL     OW29785   8.328   8.234   4.300 -0.0987  0.4427  0.3740
40975SOL    HW129786   8.385   8.310   4.292 -0.6313  0.8566  0.4557
40975SOL    HW229787   8.342   8.184   4.220  0.3590  0.5522  0.3848
40976SOL     OW29788   1.336   7.079   2.702  0.5318 -0.3850  0.6234
40976SOL    HW129789   1.271   7.092   2.632  1.0329 -1.0403  0.0303
40976SOL    HW229790   1.293   7.114   2.781  0.6067  1.9817 -0.2996
40977SOL     OW29791   6.931  10.389   7.655  0.2606  0.0301  0.3903
40977SOL    HW129792   6.871  10.317   7.672  0.4660 -1.3238 -3.5294
40977SOL    HW229793   7.018  10.347   7.654  0.4859  0.4793 -0.8546
40978SOL     OW29794   5.196   3.705  11.571 -0.0572  0.2992  0.7361
40978SOL    HW129795   5.203   3.691  11.477  3.2326  0.4130  0.8635
40978SOL    HW229796   5.196   3.617  11.608  0.2867  0.2784  0.6893
40979SOL     OW29797  11.126   4.744   6.426  0.1886 -0.0174 -0.1272
40979SOL    HW129798  11.102   4.652   6.418  0.0357 -0.2152  2.0374
40979SOL    HW229799  11.181   4.761   6.349  0.8512 -2.1146 -0.1803
40980SOL     OW29800  10.016  11.230  11.369  0.7177  0.3854 -0.5974
40980SOL    HW129801  10.021  11.297  11.437 -0.3883  0.0679 -0.1822
40980SOL    HW229802   9.926  11.236  11.336  0.4560 -1.1803 -0.2404
40981SOL     OW29803   6.294   3.132   4.458 -0.0063 -0.1811  0.8705
40981SOL    HW129804   6.210   3.086   4.464 -0.2876  0.3976  1.5423
40981SOL    HW229805   6.347   3.078   4.400 -0.6223 -0.9027  0.9655
40982SOL     OW29806   2.987   0.722  11.407  0.1193  0.0737  0.4236
40982SOL    HW129807   2.925   0.756  11.342 -2.7966 -0.5868  2.6762
40982SOL    HW229808   3.014   0.637  11.372 -3.0248 -1.2501  0.8407
40983SOL     OW29809   5.201   9.346   3.042 -0.0987  0.0029 -0.2614
40983SOL    HW129810   5.210   9.278   3.109 -0.8767  0.6580  0.5298
40983SOL    HW229811   5.119   9.325   2.997 -0.1462  0.1908 -0.2655
40984SOL     OW29812   3.914  10.014   3.091  0.1183  0.0967  0.1248
40984SOL    HW129813   3.929  10.076   3.020  0.4184 -1.0583 -0.8486
40984SOL    HW229814   3.819  10.004   3.094  0.1334 -0.2563 -0.4803
40985SOL     OW29815   3.264  10.871  10.614  0.2368 -0.3498 -0.0421
40985SOL    HW129816   3.299  10.922  10.541  0.4419 -0.1883  0.1699
40985SOL    HW229817   3.231  10.791  10.573 -1.4302  0.5726 -0.5732
40986SOL     OW29818   6.723   9.926   2.137  0.4000  0.1015  0.1334
40986SOL    HW129819   6.692   9.836   2.125 -2.3271  0.9558  0.2456
40986SOL    HW229820   6.757   9.951   2.051  1.6985 -1.1618  0.2313
40987SOL     OW29821  10.802  10.014   5.804  0.7016 -0.2521  0.1590
40987SOL    HW129822  10.792   9.983   5.894  0.2059  1.0241  0.5719
40987SOL    HW229823  10.712  10.021   5.771  0.9053 -1.4143 -0.7077
40988SOL     OW29824  12.105   6.945   6.125  0.6222  0.1630  0.3260
40988SOL    HW129825  12.139   6.932   6.214 -0.4883 -1.2047  0.5885
40988SOL    HW229826  12.050   6.868   6.109  0.4717  0.5932 -1.3983
40989SOL     OW29827   5.117  10.569   4.378  0.5713  0.4577 -0.4564
40989SOL    HW129828   5.193  10.512   4.385  1.2957  1.4013 -0.3920
40989SOL    HW229829   5.133  10.620   4.298 -0.4139  0.0785 -0.9118
40990SOL     OW29830   0.021   2.222   1.929  1.1779 -0.0778 -0.5003
40990SOL    HW129831   0.073   2.146   1.953 -0.1836 -1.1163 -0.7053
40990SOL    HW229832  -0.037   2.190   1.859  1.3328  1.4417 -1.3713
40991SOL     OW29833   0.323   2.467   2.730 -0.5713 -0.3952  0.5368
40991SOL    HW129834   0.236   2.499   2.753  0.1257  0.6104  1.9376
40991SOL    HW229835   0.336   2.390   2.787 -0.6619 -0.7369  0.0998
40992SOL     OW29836  10.695  11.864   7.307  0.0043 -0.4565 -0.2242
40992SOL    HW129837  10.664  11.930   7.369  0.2574 -0.3514 -0.2091
40992SOL    HW229838  10.768  11.907   7.261  0.2941 -0.7915 -0.0814
40993SOL     OW29839   5.240   5.049   5.723 -0.1531  0.4438  0.1307
40993SOL    HW129840   5.223   5.085   5.636  1.1410 -0.7461 -0.6400
40993SOL    HW229841   5.335   5.046   5.730 -0.1788  1.9458  2.2283
40994SOL     OW29842   2.456   3.865   3.395 -0.4262  0.2896 -0.3151
40994SOL    HW129843   2.538   3.896   3.355  0.2356 -1.5048 -0.4722
40994SOL    HW229844   2.483   3.794   3.454 -1.6807  1.0488  1.2498
40995SOL     OW29845   3.970  11.912  12.394 -0.2054  0.1240  0.3174
40995SOL    HW129846   3.959  11.989  12.450 -0.7186 -0.5739  1.2057
40995SOL    HW229847   3.881  11.879  12.379  0.0637 -0.9771  0.9569
40996SOL     OW29848   9.446   0.177  11.467 -0.2384 -0.5078 -0.1357
40996SOL    HW129849   9.381   0.109  11.484  1.1098 -1.6670  0.6059
40996SOL    HW229850   9.488   0.149  11.386  0.4759 -0.6921  0.2927
40997SOL     OW29851   0.999  11.394   8.558 -0.0182  0.0873 -0.4112
40997SOL    HW129852   1.004  11.441   8.641 -0.0895 -1.5809  0.5697
40997SOL    HW229853   0.955  11.455   8.499 -1.1952  0.7980  1.1352
40998SOL     OW29854   0.999  10.439   0.447 -0.1930 -0.1041  0.1357
40998SOL    HW129855   1.045  10.409   0.525  0.4395 -1.1273 -0.6012
40998SOL    HW229856   0.907  10.423   0.466 -0.0146 -0.7046  0.5372
40999SOL     OW29857   0.724   7.825   4.668 -0.1165 -0.0498  0.3135
40999SOL    HW129858   0.737   7.829   4.763 -2.1044  0.2196  0.6088
40999SOL    HW229859   0.730   7.917   4.640 -0.7693  0.0091  0.3652
41000SOL     OW29860  11.508   7.008   5.484  0.2434 -0.6892 -0.2244
41000SOL    HW129861  11.474   6.925   5.450 -1.4806  0.1640 -0.7006
41000SOL    HW229862  11.542   7.053   5.407  0.1225 -0.4837 -0.1595
41001SOL     OW29863   9.697   1.138   7.717 -0.4410  0.3355  0.3637
41001SOL    HW129864   9.733   1.136   7.629 -1.4012  1.0580 -0.0521
41001SOL    HW229865   9.703   1.229   7.744  3.6016 -0.3504  2.6863
41002SOL     OW29866   6.459   5.821   9.042  0.2752 -0.0323  0.1307
41002SOL    HW129867   6.386   5.797   8.985 -0.1524 -1.4817  1.2238
41002SOL    HW229868   6.521   5.749   9.035 -0.0278 -0.5171  1.8299
41003SOL     OW29869   6.431   7.234  10.156 -0.3226  0.9414  0.0367
41003SOL    HW129870   6.485   7.251  10.233  0.0955  1.1833 -0.3059
41003SOL    HW229871   6.493   7.215  10.086 -0.5403  2.9773 -0.8112
41004SOL     OW29872   9.525   1.068  10.483 -0.0279 -0.1034 -0.1936
41004SOL    HW129873   9.595   1.118  10.443  0.7090 -0.7904  0.2185
41004SOL    HW229874   9.470   1.041  10.410  0.7599 -0.5167 -0.6419
41005SOL     OW29875   5.582  10.638   4.996  0.2046  0.2614 -0.3194
41005SOL    HW129876   5.502  10.585   4.989 -0.1321  0.9127 -1.8714
41005SOL    HW229877   5.555  10.715   5.047  1.1191 -1.7009  3.4802
41006SOL     OW29878   8.288  11.785   0.145  0.2514  0.0152  0.0541
41006SOL    HW129879   8.223  11.806   0.212  1.6778  0.7465  1.2730
41006SOL    HW229880   8.350  11.726   0.189 -0.5075 -2.1713 -1.6203
41007SOL     OW29881   4.489   3.225   3.465 -0.2900 -0.0939  0.0862
41007SOL    HW129882   4.511   3.273   3.385 -0.0465  0.1294  0.2861
41007SOL    HW229883   4.446   3.289   3.521 -0.6801 -0.3128  0.0386
41008SOL     OW29884  10.101   0.410  10.910 -0.4340 -0.3542  0.8255
41008SOL    HW129885  10.084   0.474  10.840  2.2017 -0.3592  0.0981
41008SOL    HW229886  10.133   0.463  10.983 -0.4628 -0.6367  1.0445
41009SOL     OW29887  10.759   8.780   4.250  0.1024 -0.3528  0.7416
41009SOL    HW129888  10.747   8.719   4.177  0.4731  1.2267 -0.6931
41009SOL    HW229889  10.847   8.816   4.237 -0.0693  0.4204  1.6263
41010SOL     OW29890   2.172   6.727   5.217  0.1856  0.2032  0.0810
41010SOL    HW129891   2.101   6.684   5.265  0.8581 -1.6758 -0.4913
41010SOL    HW229892   2.133   6.755   5.134 -0.0987 -0.0313  0.1362
41011SOL     OW29893   2.592   5.055   5.764  0.5695 -0.2909 -0.0889
41011SOL    HW129894   2.614   4.973   5.721  2.6118 -1.2742  2.5729
41011SOL    HW229895   2.551   5.029   5.846  1.4221  1.3253  0.8974
41012SOL     OW29896   1.289   9.743   1.326 -0.2346 -0.5657  0.4824
41012SOL    HW129897   1.380   9.729   1.353  0.0792 -0.4118 -0.4421
41012SOL    HW229898   1.295   9.764   1.232 -1.2822 -1.2520  0.2435
41013SOL     OW29899   9.494   3.656   7.775 -0.0489 -0.0284  0.0278
41013SOL    HW129900   9.469   3.746   7.794 -0.2706 -0.3986  1.6083
41013SOL    HW229901   9.549   3.662   7.696 -0.7775  1.3734 -0.3967
41014SOL     OW29902   8.385   9.919  10.315 -0.4711  0.1070  0.0302
41014SOL    HW129903   8.418   9.888  10.400  0.6269 -3.3239 -1.4295
41014SOL    HW229904   8.301   9.874  10.305 -0.2808 -0.0507 -0.9304
41015SOL     OW29905   7.238   7.417   5.489  0.5637  0.1668 -0.5265
41015SOL    HW129906   7.206   7.448   5.573 -0.2532  1.1558 -1.1775
41015SOL    HW229907   7.325   7.382   5.508  1.5159  2.7345  0.3228
41016SOL     OW29908   9.826   5.232   2.575  0.4393 -0.4882  0.1290
41016SOL    HW129909   9.747   5.217   2.628  1.4404  0.3528  1.9307
41016SOL    HW229910   9.846   5.145   2.538 -0.2920 -1.1171  1.1472
41017SOL     OW29911  12.150   5.970   0.261  0.3050  0.5324 -0.4791
41017SOL    HW129912  12.235   5.947   0.299  0.1661 -2.1652 -1.5796
41017SOL    HW229913  12.096   5.891   0.273 -1.6728  1.7682 -0.8560
41018SOL     OW29914   4.224  10.183   3.742 -0.7655  0.4866  0.5457
41018SOL    HW129915   4.191  10.215   3.658 -1.2849 -0.3252  0.4206
41018SOL    HW229916   4.165  10.221   3.807 -0.2124  1.3157  0.5752
41019SOL     OW29917  10.775   2.145   6.193 -0.3360  0.3532  0.4563
41019SOL    HW129918  10.716   2.198   6.247 -0.9566  0.7916 -0.6268
41019SOL    HW229919  10.804   2.075   6.252 -1.3151  0.5790  1.2419
41020SOL     OW29920   7.310   7.875   1.092  0.0499  0.0123  0.5085
41020SOL    HW129921   7.279   7.951   1.043 -1.2245  0.7025  2.2902
41020SOL    HW229922   7.328   7.809   1.024  1.1773  1.8461 -1.0791
41021SOL     OW29923   5.182   0.320  11.774 -0.3030  0.0543  0.3503
41021SOL    HW129924   5.238   0.343  11.848  1.9274  0.3422 -1.3224
41021SOL    HW229925   5.171   0.225  11.779  0.1616  0.0263  0.8275
41022SOL     OW29926   5.360  10.291   8.206  0.5275 -0.4903  0.0781
41022SOL    HW129927   5.336  10.268   8.116  0.0317  2.1370 -0.5495
41022SOL    HW229928   5.447  10.254   8.219  0.7246 -0.6575 -1.6003
41023SOL     OW29929   9.212   1.672  10.642 -0.0555  0.3108  0.1512
41023SOL    HW129930   9.241   1.594  10.688  0.8134  0.5553  0.0327
41023SOL    HW229931   9.222   1.743  10.705 -0.7507  0.3500  0.2277
41024SOL     OW29932  10.196   5.817   8.893  0.4815  0.0547 -0.1201
41024SOL    HW129933  10.197   5.791   8.985 -1.1675 -1.1192 -0.3983
41024SOL    HW229934  10.106   5.847   8.878  0.1881 -1.4832 -1.7641
41025SOL     OW29935   1.454   7.147   7.707  0.0350  0.6646  0.4885
41025SOL    HW129936   1.519   7.098   7.657  0.8461  2.2159 -0.0546
41025SOL    HW229937   1.384   7.166   7.645 -0.4103 -0.0298  0.7714
41026SOL     OW29938   1.378   6.291   2.415  0.0301 -0.5055 -0.0335
41026SOL    HW129939   1.363   6.373   2.368  1.3205 -1.1083 -1.5560
41026SOL    HW229940   1.413   6.319   2.500 -2.4079  0.5985  0.6893
41027SOL     OW29941   2.327   7.005   7.809 -0.0900  0.0403 -0.5211
41027SOL    HW129942   2.361   6.997   7.898  2.1740 -0.6905 -1.3726
41027SOL    HW229943   2.252   6.945   7.807 -0.4664  0.4137  0.9860
41028SOL     OW29944   8.886   9.067   8.210 -0.3054 -0.0605 -0.3515
41028SOL    HW129945   8.863   8.984   8.169 -1.3129 -0.0362  0.1387
41028SOL    HW229946   8.844   9.133   8.155 -0.3527  0.0654 -0.1636
41029SOL     OW29947   9.140   5.210  10.755 -0.5791 -0.5489  0.2290
41029SOL    HW129948   9.059   5.245  10.790 -1.5967 -2.6654  0.1958
41029SOL    HW229949   9.200   5.206  10.829 -1.0258 -0.3667  0.5998
41030SOL     OW29950   4.427   4.095   4.752  0.5877  0.0950 -0.3591
41030SOL    HW129951   4.456   4.011   4.787  0.9573  0.7598  0.9756
41030SOL    HW229952   4.399   4.146   4.828 -0.3026  0.9432 -1.2077
41031SOL     OW29953   3.187   8.963   2.218  0.0849 -0.4442  0.1447
41031SOL    HW129954   3.251   9.024   2.256  0.1699 -0.5876  0.2341
41031SOL    HW229955   3.232   8.926   2.142 -0.0056 -0.3166  0.0305
41032SOL     OW29956   2.402  11.216  10.045 -0.2072  0.0119 -0.1480
41032SOL    HW129957   2.409  11.129  10.086  2.0685  0.2146 -0.0199
41032SOL    HW229958   2.438  11.205   9.958 -2.3436  0.2804 -1.1393
41033SOL     OW29959   1.339   6.790   9.288 -0.9139 -0.0005 -0.6118
41033SOL    HW129960   1.336   6.853   9.216 -1.6955  0.6093 -0.0635
41033SOL    HW229961   1.354   6.844   9.366 -0.2417 -0.6346 -0.2884
41034SOL     OW29962   7.532   2.425  10.454 -0.1902 -1.0720 -0.2281
41034SOL    HW129963   7.609   2.387  10.497  0.1795  1.7108  1.8686
41034SOL    HW229964   7.520   2.372  10.375  1.9171 -3.5978  0.9886
41035SOL     OW29965   8.480   0.527  10.785  0.1035  0.7369  0.2784
41035SOL    HW129966   8.419   0.569  10.846  0.5415  1.2886  0.3431
41035SOL    HW229967   8.566   0.558  10.812  0.2675  1.3599 -0.9244
41036SOL     OW29968   4.380   9.492   4.416  0.7328 -0.7911  0.0777
41036SOL    HW129969   4.390   9.576   4.372  1.2195  0.4405  2.3989
41036SOL    HW229970   4.469   9.465   4.439  0.7051 -2.5691 -1.6319
41037SOL     OW29971   4.761   2.548   0.587  0.0366  0.6408  0.3591
41037SOL    HW129972   4.739   2.592   0.669 -1.8591 -0.1119  0.3082
41037SOL    HW229973   4.726   2.605   0.519 -1.7774 -0.5242  0.2660
41038SOL     OW29974   7.968  12.472   0.533 -0.0256 -0.0892  0.0817
41038SOL    HW129975   7.905  12.409   0.567 -1.8939  0.3110 -2.3500
41038SOL    HW229976   7.937  12.557   0.565  1.6784 -0.1802  2.1840
41039SOL     OW29977   6.182   3.736   9.369 -0.4645 -0.9034 -0.1238
41039SOL    HW129978   6.110   3.778   9.322 -1.0766 -1.7307  0.0579
41039SOL    HW229979   6.252   3.730   9.305  0.2950  1.9572  0.3080
41040SOL     OW29980  12.001   9.873  12.078 -0.2262 -0.2772 -0.0957
41040SOL    HW129981  11.996   9.782  12.107  0.3140 -1.0011 -2.1032
41040SOL    HW229982  12.007   9.924  12.159  0.1746 -2.0653  1.0590
41041SOL     OW29983   3.205   7.925  11.519 -0.0500  0.0475 -0.1275
41041SOL    HW129984   3.113   7.908  11.499  0.2891 -0.7557 -1.0381
41041SOL    HW229985   3.235   7.848  11.567  0.1986  0.2331  0.0218
41042SOL     OW29986  10.340   0.982   2.596  0.0196 -0.0814  0.5212
41042SOL    HW129987  10.415   1.032   2.567 -0.0646 -0.7614 -0.9682
41042SOL    HW229988  10.273   0.997   2.530  0.4580 -3.2044 -0.8407
41043SOL     OW29989   9.587   0.843  11.885 -0.0041  0.2732 -0.2204
41043SOL    HW129990   9.529   0.849  11.961 -0.0266 -0.2855 -0.1920
41043SOL    HW229991   9.591   0.750  11.865  3.0801 -0.1017  1.4738
41044SOL     OW29992   4.839   1.476  10.639 -0.2150  0.6260 -0.1825
41044SOL    HW129993   4.912   1.471  10.701  0.4310 -0.9643 -0.9972
41044SOL    HW229994   4.846   1.564  10.601 -0.2463  1.3934  1.4943
41045SOL     OW29995   0.219   1.052   9.642  0.2449  0.3780 -0.0174
41045SOL    HW129996   0.222   0.974   9.698 -1.2466  0.3342  0.0319
41045SOL    HW229997   0.235   1.019   9.554 -2.0422 -0.3043 -0.2471
41046SOL     OW29998   3.281   6.377   3.552  0.1937 -0.1254  0.0104
41046SOL    HW129999   3.191   6.356   3.579  0.2625  1.0449  1.2703
41046SOL    HW230000   3.298   6.318   3.479 -1.6152 -0.3581 -0.2827
41047SOL     OW30001   4.589   6.196   4.135  0.1116  0.6346 -0.1116
41047SOL    HW130002   4.603   6.273   4.191  0.4227  1.9161 -1.8707
41047SOL    HW230003   4.494   6.185   4.133  0.0483  1.1057 -0.0164
41048SOL     OW30004   2.463   7.066   1.991  0.2283 -0.2426  0.2687
41048SOL    HW130005   2.502   7.049   1.906 -0.0155  0.5030 -0.0011
41048SOL    HW230006   2.458   6.980   2.033 -1.5591 -0.9650 -1.2926
41049SOL     OW30007  12.190   6.603  11.177 -0.0260  0.5626  0.0812
41049SOL    HW130008  12.156   6.522  11.141 -0.5959  0.6315  0.4516
41049SOL    HW230009  12.180   6.667  11.106  0.0838  0.3954 -0.0862
41050SOL     OW30010   5.138   3.233   4.706 -0.1486 -0.4632 -0.6127
41050SOL    HW130011   5.052   3.197   4.727  0.0727 -1.2498 -1.0261
41050SOL    HW230012   5.199   3.176   4.753  0.1140  0.7056  0.5175
41051SOL     OW30013   7.686   1.793   6.010 -0.5334  0.5642 -0.3367
41051SOL    HW130014   7.684   1.788   6.106  1.4095 -1.7516 -0.3098
41051SOL    HW230015   7.596   1.810   5.985 -0.9475  2.1517  1.9125
41052SOL     OW30016   9.893  10.176  11.055  0.2970  0.0495 -0.4949
41052SOL    HW130017   9.936  10.252  11.017  0.5938  0.1288 -0.0030
41052SOL    HW230018   9.943  10.156  11.134  0.1111 -0.5431 -0.5187
41053SOL     OW30019   1.279   8.259   3.825 -0.1878 -0.0412  0.1026
41053SOL    HW130020   1.192   8.242   3.861 -1.9077  2.4465 -2.4120
41053SOL    HW230021   1.281   8.353   3.809  2.9945 -0.0090 -0.0412
41054SOL     OW30022   6.395   4.281   8.527 -0.2431  0.2587 -0.5391
41054SOL    HW130023   6.368   4.310   8.614 -0.6124  0.1873 -0.6288
41054SOL    HW230024   6.453   4.206   8.543 -0.6703 -0.0374 -0.3698
41055SOL     OW30025   7.976   4.109  12.042  0.4961 -0.3177  0.3306
41055SOL    HW130026   7.996   4.072  11.956  1.0932 -0.3700  0.4834
41055SOL    HW230027   7.940   4.196  12.023 -2.9680 -1.7116 -0.1439
41056SOL     OW30028   8.322   3.011   0.907 -0.0689 -0.1098  0.1072
41056SOL    HW130029   8.401   3.050   0.944 -0.2945 -0.7191  1.2997
41056SOL    HW230030   8.294   3.071   0.838  0.4705  0.9911  0.8303
41057SOL     OW30031   5.757   3.822   1.582  0.1066 -0.3671  0.0728
41057SOL    HW130032   5.704   3.815   1.661  0.9508 -0.0082  0.6912
41057SOL    HW230033   5.728   3.903   1.540 -0.7040 -0.8242 -0.2716
41058SOL     OW30034   4.203   3.662   1.980  0.0730 -0.2255 -0.7632
41058SOL    HW130035   4.121   3.613   1.968  0.2908 -0.4571 -1.3080
41058SOL    HW230036   4.195   3.737   1.921 -1.9082  2.5831  2.6560
41059SOL     OW30037  10.905   7.880   0.848 -1.5111  0.3356  0.4816
41059SOL    HW130038  10.960   7.901   0.923 -2.6650  2.5297  0.7816
41059SOL    HW230039  10.818   7.864   0.884 -1.6102 -0.8818 -0.2070
41060SOL     OW30040   4.342   1.126   6.052 -0.3313 -0.0378  0.6967
41060SOL    HW130041   4.432   1.101   6.033  0.0301  0.8807  1.0929
41060SOL    HW230042   4.320   1.192   5.986 -0.6792 -0.1993  0.6491
41061SOL     OW30043   9.692  10.963  10.221  0.1497 -0.7426  0.2278
41061SOL    HW130044   9.750  11.010  10.279 -0.3650  0.5643 -0.2779
41061SOL    HW230045   9.715  10.994  10.133 -0.9554 -0.5533 -0.0205
41062SOL     OW30046   1.139  12.273   9.668 -0.3715  0.7499  0.1683
41062SOL    HW130047   1.091  12.356   9.668  1.9594  2.2397 -1.5331
41062SOL    HW230048   1.220  12.293   9.715 -0.2731 -0.9441  0.7733
41063SOL     OW30049   7.235   4.409   8.460 -0.0740  0.4833 -0.4470
41063SOL    HW130050   7.321   4.375   8.435  0.4656  0.7312  0.9519
41063SOL    HW230051   7.246   4.504   8.457 -0.0192  0.5165  0.5804
41064SOL     OW30052   6.922   1.699   6.337 -0.8276  0.5586  0.1799
41064SOL    HW130053   6.931   1.642   6.413 -3.3745  0.4283  0.4714
41064SOL    HW230054   6.914   1.639   6.263  1.2773  0.6819 -0.2202
41065SOL     OW30055   1.266  10.053   2.324  0.1727  0.5310  0.4110
41065SOL    HW130056   1.346  10.004   2.343 -0.7769 -0.8924  0.8476
41065SOL    HW230057   1.239  10.022   2.238 -1.2463 -0.9158  1.3140
41066SOL     OW30058  11.241   3.844   6.962 -0.7547 -0.9299  0.1172
41066SOL    HW130059  11.268   3.762   6.920 -0.7385 -1.1013  0.4597
41066SOL    HW230060  11.153   3.860   6.928 -0.2947 -0.4629 -0.8639
41067SOL     OW30061   9.439   6.437   4.805  0.2854  0.2510  0.1368
41067SOL    HW130062   9.369   6.429   4.740  0.3373 -1.7669  0.2469
41067SOL    HW230063   9.519   6.422   4.755  0.3062 -1.6217  0.6553
41068SOL     OW30064   7.067   0.226  10.778  0.3998 -0.5491  0.2373
41068SOL    HW130065   6.996   0.194  10.722  0.6013 -1.6093  0.5558
41068SOL    HW230066   7.071   0.320  10.761 -0.1213 -0.7114 -0.8577
41069SOL     OW30067   9.714   9.807  11.498  0.0346 -0.0239  0.3671
41069SOL    HW130068   9.623   9.812  11.528  0.0822  0.7130  0.3999
41069SOL    HW230069   9.726   9.884  11.442  0.3391 -0.6718 -0.4752
41070SOL     OW30070  11.722   7.284   6.123 -0.2544  0.0785 -0.0512
41070SOL    HW130071  11.765   7.343   6.061 -0.4989 -0.5331 -0.8219
41070SOL    HW230072  11.650   7.336   6.159 -0.9900  0.0223 -1.3421
41071SOL     OW30073   3.598   4.349  12.115 -0.5879 -0.0664  0.2313
41071SOL    HW130074   3.573   4.300  12.037 -0.0254 -0.7828  0.4828
41071SOL    HW230075   3.689   4.324  12.131 -0.1577  1.3513  0.1696
41072SOL     OW30076   3.337   4.748   8.836 -0.1091 -0.3696 -0.3398
41072SOL    HW130077   3.421   4.774   8.799 -0.1228  1.1930  0.6776
41072SOL    HW230078   3.282   4.730   8.759  1.5311 -2.9403 -1.0371
41073SOL     OW30079   2.714  12.401  10.072  0.2595  0.0505 -0.0313
41073SOL    HW130080   2.756  12.409   9.986  1.2232  1.9216  0.5644
41073SOL    HW230081   2.771  12.343  10.121  0.2151 -0.2749 -0.3607
41074SOL     OW30082   9.711   7.436  12.442  0.1331 -0.4174  0.0968
41074SOL    HW130083   9.789   7.478  12.478 -0.0406  0.4425 -0.4992
41074SOL    HW230084   9.699   7.358  12.496 -0.8713  1.4253  2.7441
41075SOL     OW30085   4.390   2.833   0.828 -0.2458  0.3565  0.0142
41075SOL    HW130086   4.415   2.909   0.775  1.4259 -0.9292 -1.1405
41075SOL    HW230087   4.301   2.812   0.798 -0.7397  1.8314  0.3607
41076SOL     OW30088   5.202   8.626   0.523  0.5936 -0.2763  0.0082
41076SOL    HW130089   5.270   8.641   0.588  0.1178 -0.6381  0.6014
41076SOL    HW230090   5.215   8.695   0.457  0.3865  0.8013  1.0627
41077SOL     OW30091  12.172   6.249   9.776  0.1335  0.0954 -0.4368
41077SOL    HW130092  12.095   6.306   9.774 -1.5570 -2.0463 -0.5854
41077SOL    HW230093  12.157   6.192   9.852  1.4534 -0.5646 -0.6489
41078SOL     OW30094   7.669   1.998  12.105 -0.6279  0.0874 -0.2922
41078SOL    HW130095   7.758   2.010  12.138 -1.0883  0.5623  0.8241
41078SOL    HW230096   7.674   2.021  12.012  0.3980  0.1556 -0.2268
41079SOL     OW30097   1.788   6.088   3.359 -0.5865  0.3884  0.1644
41079SOL    HW130098   1.814   6.173   3.392 -0.7977  0.6130 -0.2403
41079SOL    HW230099   1.768   6.103   3.267 -4.8244  0.8439  0.9726
41080SOL     OW30100   0.191   8.045   5.953 -0.1698  0.3072 -0.4310
41080SOL    HW130101   0.277   8.059   5.914  0.4691  1.6827  1.3355
41080SOL    HW230102   0.136   8.016   5.880  1.8561 -1.0316 -1.5360
41081SOL     OW30103   9.593   4.657  11.281 -0.8737  0.1704  0.1456
41081SOL    HW130104   9.653   4.695  11.217 -2.7214  1.8303 -0.7096
41081SOL    HW230105   9.534   4.602  11.229  1.1021 -3.3139  1.2297
41082SOL     OW30106   4.182   1.691   8.738 -0.2612  0.5984 -0.0416
41082SOL    HW130107   4.173   1.776   8.694 -2.7327  0.2145 -0.3956
41082SOL    HW230108   4.097   1.677   8.780 -0.5671 -2.5298 -1.4828
41083SOL     OW30109   9.682   5.650   3.808  0.7691  0.7847  0.8756
41083SOL    HW130110   9.674   5.570   3.860 -0.5000  0.6580  0.5232
41083SOL    HW230111   9.776   5.663   3.798  1.1828 -2.6195 -1.9952
41084SOL     OW30112   5.634   6.705   1.854  0.1406 -0.3330  0.1924
41084SOL    HW130113   5.675   6.743   1.932  1.5069 -3.1493  0.9856
41084SOL    HW230114   5.547   6.678   1.885  0.7398 -1.5949  0.8468
41085SOL     OW30115  12.391   2.609   7.177 -0.4822 -0.2715 -0.4620
41085SOL    HW130116  12.390   2.532   7.234  1.4707 -0.3315 -0.4515
41085SOL    HW230117  12.300   2.641   7.179 -0.7694 -1.0204  1.6432
41086SOL     OW30118  12.454   6.053   9.963  0.0698  0.8975 -0.0673
41086SOL    HW130119  12.548   6.048   9.978 -0.0142  1.1937  0.5989
41086SOL    HW230120  12.429   5.964   9.938  0.3056  0.4805  1.1294
41087SOL     OW30121   4.867   8.769   4.122  0.4403 -0.2359  0.1945
41087SOL    HW130122   4.806   8.714   4.172 -1.2705  1.1667 -0.2253
41087SOL    HW230123   4.952   8.752   4.161 -0.3440 -1.6191  1.4208
41088SOL     OW30124   1.983  10.544   0.873 -0.4276  0.2173  0.0474
41088SOL    HW130125   2.044  10.483   0.913 -0.1069  0.5139  0.0138
41088SOL    HW230126   1.923  10.489   0.823  0.1555 -0.0404 -0.3814
41089SOL     OW30127   5.368  12.453   9.603  0.2506 -0.4022  0.0134
41089SOL    HW130128   5.301  12.405   9.651 -0.6734  0.2318 -0.6075
41089SOL    HW230129   5.431  12.387   9.576 -1.2584 -1.3559 -1.2659
41090SOL     OW30130   6.081  10.933   7.035  0.1356 -0.8646  0.1563
41090SOL    HW130131   6.176  10.941   7.041  0.0904 -0.3534  0.2348
41090SOL    HW230132   6.056  11.000   6.971 -0.3503  0.2865  1.4811
41091SOL     OW30133   6.931   2.709   9.311  0.1851  0.1531  0.3722
41091SOL    HW130134   6.924   2.709   9.216  0.7874 -0.6136  0.3154
41091SOL    HW230135   6.960   2.798   9.333  0.2681  0.2689 -0.1820
41092SOL     OW30136   9.962  11.074   5.491 -0.2394  0.0460 -0.0543
41092SOL    HW130137   9.987  10.984   5.470 -0.1626  0.2561 -0.9157
41092SOL    HW230138   9.995  11.088   5.580  0.9919 -0.3290 -0.4280
41093SOL     OW30139   2.298   3.608   3.735 -0.0971 -0.4786 -0.1656
41093SOL    HW130140   2.285   3.654   3.818  0.8937  0.2912 -0.4158
41093SOL    HW230141   2.370   3.655   3.693 -0.2086 -1.2131 -1.2082
41094SOL     OW30142   4.939  12.081   7.081 -0.3638  0.0991 -0.1553
41094SOL    HW130143   4.886  12.069   7.002 -1.8403 -2.1148  1.0602
41094SOL    HW230144   4.886  12.136   7.138 -0.4227 -0.3500  0.2332
41095SOL     OW30145   7.864   4.990   7.286 -0.0134  0.1009  0.5712
41095SOL    HW130146   7.948   5.035   7.276 -0.3495  0.5621 -0.2631
41095SOL    HW230147   7.867   4.952   7.374  2.0062 -1.8680 -0.2559
41096SOL     OW30148   8.425   7.999   2.537  0.4663 -0.3731  0.5131
41096SOL    HW130149   8.336   7.974   2.560  0.5449  0.3032  1.6338
41096SOL    HW230150   8.427   8.094   2.547  1.4774 -0.4440  1.1211
41097SOL     OW30151   0.569  11.245   0.082 -0.2403  0.1051  0.5241
41097SOL    HW130152   0.502  11.207   0.025 -0.2022 -0.9788  1.1748
41097SOL    HW230153   0.630  11.287   0.022 -2.3617  2.6374 -0.0155
41098SOL     OW30154  10.148   7.216   7.502  0.0456  0.3501 -0.6787
41098SOL    HW130155  10.128   7.293   7.556  2.4164 -0.9081  2.3375
41098SOL    HW230156  10.094   7.146   7.539 -0.1150 -0.0044 -1.5812
41099SOL     OW30157   5.541   0.917   5.771 -0.4540 -0.3574 -0.6568
41099SOL    HW130158   5.574   0.832   5.801  0.1470 -0.3039 -1.1329
41099SOL    HW230159   5.569   0.979   5.838 -0.6874 -0.4994 -0.4269
41100SOL     OW30160  11.293   0.185   0.544 -0.0652 -0.3721  0.6191
41100SOL    HW130161  11.205   0.208   0.514  0.3665  1.2189  0.4410
41100SOL    HW230162  11.289   0.091   0.561 -1.2165 -0.7571 -1.3816
41101SOL     OW30163   0.150   9.548   3.270 -0.6548 -0.0795  0.3175
41101SOL    HW130164   0.204   9.475   3.301 -2.3376 -1.9223 -0.8768
41101SOL    HW230165   0.135   9.601   3.349 -0.3910 -1.6908  1.5035
41102SOL     OW30166   8.441   0.135   6.635 -0.3524 -0.2558  0.4499
41102SOL    HW130167   8.481   0.057   6.674 -1.0426  0.3589  2.5474
41102SOL    HW230168   8.380   0.166   6.702  1.8575  3.6991  0.9370
41103SOL     OW30169  12.393   6.721   9.644 -0.1669  0.0519  0.1318
41103SOL    HW130170  12.484   6.704   9.619  0.0176  0.5272  0.4688
41103SOL    HW230171  12.342   6.660   9.591  0.2709  0.4542 -0.7684
41104SOL     OW30172   0.981  10.999   2.348 -0.1368 -0.0325  0.5536
41104SOL    HW130173   1.017  10.911   2.334 -1.0184 -0.3746  0.3145
41104SOL    HW230174   1.053  11.058   2.327  0.8362 -0.7105  1.8880
41105SOL     OW30175  11.630   4.191  12.402  0.5858  0.2618 -0.1665
41105SOL    HW130176  11.625   4.166  12.494 -0.1467  2.7761  0.5594
41105SOL    HW230177  11.693   4.264  12.399  0.2859  0.5069 -1.5707
41106SOL     OW30178   2.068   0.907   2.611  0.2228 -0.1070 -0.1452
41106SOL    HW130179   2.039   0.897   2.701 -1.0516  0.0015 -0.5195
41106SOL    HW230180   2.102   0.821   2.587 -0.8126 -0.5618 -0.0191
41107SOL     OW30181   6.646  10.033  11.638 -0.3316 -0.5836  0.2984
41107SOL    HW130182   6.695  10.097  11.586 -2.3256  1.1315  0.3971
41107SOL    HW230183   6.674  10.049  11.728  0.4413 -1.0623  0.1534
41108SOL     OW30184  10.888   8.506  11.337  0.2857  0.2308  0.2336
41108SOL    HW130185  10.798   8.531  11.361 -0.5767 -1.4048 -1.0912
41108SOL    HW230186  10.886   8.499  11.242  2.2905  1.7182  0.0335
41109SOL     OW30187   8.229  12.413   4.411 -0.0427  0.3874  0.2751
41109SOL    HW130188   8.246  12.507   4.420 -0.7669  0.7033 -1.3091
41109SOL    HW230189   8.160  12.408   4.344  0.4747 -1.3101 -0.1582
41110SOL     OW30190   3.349   6.138   7.712 -0.0692 -0.5742  0.4188
41110SOL    HW130191   3.263   6.151   7.752 -0.4510 -0.8772 -0.2813
41110SOL    HW230192   3.370   6.222   7.671 -0.8769 -1.0370 -0.9841
41111SOL     OW30193   3.795   0.781   2.101  0.4472 -0.3504  0.0074
41111SOL    HW130194   3.727   0.794   2.035  1.0568 -0.2191 -0.6014
41111SOL    HW230195   3.857   0.719   2.061  2.7912  2.4700 -1.1153
41112SOL     OW30196   9.528  12.465   9.052 -0.1030 -0.1631  0.3953
41112SOL    HW130197   9.551  12.415   8.974  0.2779  0.2698  0.2272
41112SOL    HW230198   9.553  12.555   9.031 -1.3748  0.2214  0.4458
41113SOL     OW30199   6.185  11.361   4.310 -0.0859  0.2055 -0.2174
41113SOL    HW130200   6.127  11.313   4.369 -0.3120 -0.5514 -1.0368
41113SOL    HW230201   6.197  11.446   4.352 -4.1175  1.5446 -1.3984
41114SOL     OW30202   1.063   9.877   5.711  0.3075  0.3030  0.0433
41114SOL    HW130203   0.987   9.910   5.664  1.3275  1.4396 -0.8736
41114SOL    HW230204   1.072   9.935   5.787  0.0039 -0.1273  0.4196
41115SOL     OW30205  12.192   0.910   9.899 -0.3254 -0.0631 -0.1977
41115SOL    HW130206  12.188   0.816   9.914 -0.5317 -0.3303 -1.8016
41115SOL    HW230207  12.233   0.945   9.979 -1.4273 -1.3345  0.9794
41116SOL     OW30208   5.580   1.170  11.202 -0.2726 -0.8415  0.0990
41116SOL    HW130209   5.494   1.194  11.167 -0.1659  0.0280  0.4095
41116SOL    HW230210   5.579   1.075  11.207 -1.1083 -0.8491 -0.1791
41117SOL     OW30211   6.115   3.485   4.288 -0.2029  0.0523  0.0536
41117SOL    HW130212   6.191   3.428   4.277 -1.1662 -1.1342 -0.6778
41117SOL    HW230213   6.143   3.569   4.250 -0.5168 -1.4759 -4.0161
41118SOL     OW30214   2.660   3.607   9.937 -0.1614  0.2216  0.0228
41118SOL    HW130215   2.573   3.611   9.897 -0.4500  2.7774  0.7089
41118SOL    HW230216   2.645   3.627  10.030  1.0858  0.0583  0.2780
41119SOL     OW30217  10.086   3.587   6.432  0.3719 -0.3516  0.5489
41119SOL    HW130218  10.092   3.680   6.454  0.0739 -0.5903  1.6796
41119SOL    HW230219  10.071   3.586   6.337  1.5006  0.7094  0.3309
41120SOL     OW30220   4.735  11.928   3.358 -0.2464 -0.1914 -1.0778
41120SOL    HW130221   4.719  11.934   3.264  1.6022 -0.7556 -1.4608
41120SOL    HW230222   4.826  11.956   3.370  0.3417 -2.3865  0.2150
41121SOL     OW30223  11.943   3.081   1.665  0.1575  0.1713 -0.0593
41121SOL    HW130224  11.916   3.048   1.750  1.2009  0.3858  0.3735
41121SOL    HW230225  11.925   3.175   1.668  0.8932  0.3055  0.2105
41122SOL     OW30226   0.591  11.273   3.011  0.7769  0.7993 -0.0885
41122SOL    HW130227   0.541  11.258   3.091 -0.2070 -1.1598 -0.9842
41122SOL    HW230228   0.645  11.194   3.002  0.9654  1.0481 -1.2603
41123SOL     OW30229  10.601   9.521   4.238 -0.4475  0.2247 -0.8168
41123SOL    HW130230  10.547   9.559   4.307  0.2994 -0.3457  0.0852
41123SOL    HW230231  10.663   9.465   4.283  0.9804  0.9253 -1.8282
41124SOL     OW30232   9.292   2.488  10.169 -0.3814 -1.5400  0.2028
41124SOL    HW130233   9.385   2.466  10.175 -0.3968 -1.9558 -0.9233
41124SOL    HW230234   9.278   2.549  10.242  1.2591  0.1658 -0.8084
41125SOL     OW30235   7.360   7.836   9.204  0.3620  0.1950 -0.1615
41125SOL    HW130236   7.401   7.759   9.242 -0.1460 -0.1448 -0.2948
41125SOL    HW230237   7.428   7.876   9.150  0.1991 -1.0005 -1.2984
41126SOL     OW30238   1.995   8.331   3.738  0.5690 -0.3816 -0.6454
41126SOL    HW130239   1.927   8.370   3.682  0.8225 -0.2768 -0.8819
41126SOL    HW230240   2.025   8.254   3.690 -0.9595 -1.7494  0.4824
41127SOL     OW30241   3.937   9.142   0.562  0.1458 -0.2979 -0.1661
41127SOL    HW130242   3.879   9.081   0.608 -0.7249 -0.4758 -1.4511
41127SOL    HW230243   4.025   9.106   0.574  0.0148 -0.0668  1.7503
41128SOL     OW30244  10.373   3.620   2.983  0.1265  0.1352  0.4951
41128SOL    HW130245  10.465   3.640   2.962 -0.3699  1.4899 -0.5802
41128SOL    HW230246  10.326   3.700   2.959 -1.8088 -1.6716 -2.3664
41129SOL     OW30247   9.763   6.834   3.371  0.1428 -0.0825  0.2726
41129SOL    HW130248   9.720   6.752   3.395  1.4982 -0.5243  1.2814
41129SOL    HW230249   9.822   6.853   3.444 -0.2398  1.8833  0.1287
41130SOL     OW30250  11.362   6.317  11.926  0.7144 -0.4704 -0.7955
41130SOL    HW130251  11.303   6.286  11.856  0.1867 -0.5641 -0.3177
41130SOL    HW230252  11.449   6.292  11.896  0.3666 -1.7888 -0.7563
41131SOL     OW30253   0.285   6.641   7.146  0.0639 -0.1365  0.0925
41131SOL    HW130254   0.206   6.628   7.199  0.2984  0.4424  0.5982
41131SOL    HW230255   0.271   6.724   7.101  1.0341  0.7960  1.4196
41132SOL     OW30256   4.541  11.862   0.235 -0.6036 -0.5459  0.4477
41132SOL    HW130257   4.539  11.950   0.273  1.1799  0.3722 -1.3502
41132SOL    HW230258   4.540  11.877   0.140 -0.3740 -2.4671  0.1001
41133SOL     OW30259  10.800  11.676   7.635 -0.9461 -0.3004  0.6764
41133SOL    HW130260  10.841  11.715   7.712  1.4484  0.6582 -0.9673
41133SOL    HW230261  10.736  11.741   7.606 -2.6040 -1.0981  2.3318
41134SOL     OW30262   6.549   1.793   7.101 -0.4242 -0.2010 -0.0925
41134SOL    HW130263   6.579   1.809   7.190  2.5608  0.7318 -1.1529
41134SOL    HW230264   6.499   1.871   7.078 -0.5997 -0.1249  0.5331
41135SOL     OW30265   1.910   0.649  11.640  0.7577  0.0224 -0.2994
41135SOL    HW130266   1.910   0.555  11.655 -2.2781  0.0422  0.4491
41135SOL    HW230267   1.872   0.659  11.553 -0.2953  0.5732  0.2097
41136SOL     OW30268  10.881   4.386  10.380  0.4041 -0.7562  0.7325
41136SOL    HW130269  10.863   4.346  10.295  1.8161 -1.9645  0.9586
41136SOL    HW230270  10.975   4.372  10.393  1.0821  2.8987  0.7426
41137SOL     OW30271   9.567   2.676   8.399  0.1205 -0.4479  0.1901
41137SOL    HW130272   9.524   2.597   8.368  1.4016 -0.3303 -2.1092
41137SOL    HW230273   9.499   2.743   8.398 -0.7129 -1.2538  1.1162
41138SOL     OW30274   1.399   1.617   1.197  0.6621 -0.3430  0.1962
41138SOL    HW130275   1.471   1.558   1.176 -0.4531 -1.7348  0.1490
41138SOL    HW230276   1.389   1.611   1.292  1.3401  0.7597  0.3588
41139SOL     OW30277   3.105   9.527   0.508 -0.2791 -0.0570 -0.4817
41139SOL    HW130278   3.131   9.613   0.473 -0.1129  0.0899 -0.0151
41139SOL    HW230279   3.126   9.533   0.601 -3.9301  0.8271  0.4167
41140SOL     OW30280   0.393   3.016   3.386 -0.5089 -0.5385 -0.2569
41140SOL    HW130281   0.462   3.042   3.324  0.5328 -0.6425  0.8154
41140SOL    HW230282   0.323   3.080   3.372  0.2146  0.1847 -0.6858
41141SOL     OW30283   1.160   8.526   1.642  0.2015  0.1120  0.0068
41141SOL    HW130284   1.234   8.486   1.596  0.0531  0.0266 -0.1571
41141SOL    HW230285   1.083   8.481   1.607  0.1177 -0.2766  0.6659
41142SOL     OW30286  12.264   6.302   5.479  0.0929  0.2983  0.2647
41142SOL    HW130287  12.265   6.229   5.418 -0.0443 -0.3460  1.0052
41142SOL    HW230288  12.241   6.378   5.426 -1.0696 -0.4154 -0.3101
41143SOL     OW30289   7.508   0.833   4.600 -0.8780  0.2885  0.0788
41143SOL    HW130290   7.465   0.800   4.679 -0.5776 -0.7625 -0.1950
41143SOL    HW230291   7.586   0.780   4.590 -1.0104  0.2729 -1.0369
41144SOL     OW30292   8.371   8.663   0.837  0.4098  0.2526  0.0055
41144SOL    HW130293   8.353   8.755   0.853  0.1954  0.0239  1.1821
41144SOL    HW230294   8.436   8.663   0.767 -0.8444  1.2240 -1.2278
41145SOL     OW30295   6.786   8.026   5.387 -0.4768 -0.2785  0.7808
41145SOL    HW130296   6.714   8.036   5.323  1.6179  0.3908 -1.6497
41145SOL    HW230297   6.848   8.095   5.363  1.3729 -1.3569  2.2475
41146SOL     OW30298  11.469   2.705  12.452 -0.3764 -0.0954  0.0013
41146SOL    HW130299  11.409   2.761  12.403  0.8518  0.8774 -0.4535
41146SOL    HW230300  11.502   2.642  12.387 -1.8540 -1.4923  0.5387
41147SOL     OW30301  10.578   0.763  10.621 -0.4166  0.1320  0.2285
41147SOL    HW130302  10.532   0.841  10.590 -0.0078  0.5276  0.6088
41147SOL    HW230303  10.525   0.690  10.589 -1.3729  0.5843  0.7403
41148SOL     OW30304   8.263   5.087  10.343 -0.2392 -0.6559  0.7881
41148SOL    HW130305   8.191   5.125  10.295 -0.3235  0.3957  1.7079
41148SOL    HW230306   8.275   5.144  10.419  2.0719 -0.3309  0.2519
41149SOL     OW30307   6.290  11.526  11.027 -0.1273  0.2120  0.1125
41149SOL    HW130308   6.378  11.528  10.991  0.0887  1.2768  0.6620
41149SOL    HW230309   6.300  11.484  11.113 -0.2465 -0.1526 -0.0506
41150SOL     OW30310   6.567   3.182   6.003  0.1268 -0.1288 -0.0724
41150SOL    HW130311   6.542   3.243   6.072  0.3998  0.3483 -0.3873
41150SOL    HW230312   6.488   3.130   5.987 -0.7308  1.3936 -1.0996
41151SOL     OW30313   0.452   9.219   3.737 -0.4563 -0.4105 -0.8614
41151SOL    HW130314   0.381   9.155   3.729 -1.0678  0.3198 -1.3553
41151SOL    HW230315   0.425   9.277   3.808  0.1162 -0.6958 -0.3916
41152SOL     OW30316   6.745   4.161  12.126  0.6389 -0.1671 -0.3834
41152SOL    HW130317   6.771   4.077  12.090  0.8670 -0.0486 -0.5000
41152SOL    HW230318   6.655   4.148  12.156  1.1314 -0.8588  0.8919
41153SOL     OW30319   3.388   0.021  10.866 -0.4332  0.7150  0.0603
41153SOL    HW130320   3.414   0.111  10.885 -1.7268  1.3676 -1.1101
41153SOL    HW230321   3.359  -0.014  10.950 -1.3916  1.9175  0.2553
41154SOL     OW30322   2.382   8.256   9.756 -0.5029  0.5809  0.3560
41154SOL    HW130323   2.312   8.191   9.746 -0.2230  0.4472 -0.9066
41154SOL    HW230324   2.349   8.317   9.822 -0.8714 -0.6972  1.4063
41155SOL     OW30325   3.201   2.076   1.875 -0.6615 -0.0736 -0.3180
41155SOL    HW130326   3.216   2.150   1.816  0.9482  0.8552  1.1717
41155SOL    HW230327   3.270   2.013   1.852 -1.4850 -0.7729 -0.9770
41156SOL     OW30328   3.155   3.042  10.809  0.1294 -0.4714  0.8425
41156SOL    HW130329   3.239   3.013  10.845  0.0996 -0.2164  1.1200
41156SOL    HW230330   3.152   3.136  10.827 -0.0051 -0.3896  0.4124
41157SOL     OW30331   5.705   3.589   3.051  0.0184 -0.0758 -0.1783
41157SOL    HW130332   5.699   3.645   2.974 -0.1231  0.9067  0.5353
41157SOL    HW230333   5.799   3.589   3.072  0.0538 -0.3266 -0.3278
41158SOL     OW30334   8.662   4.532   0.867  0.2680  0.1328 -0.2916
41158SOL    HW130335   8.695   4.447   0.839  0.5177 -0.4071  1.5277
41158SOL    HW230336   8.696   4.593   0.801 -1.0694 -1.2802 -2.4339
41159SOL     OW30337   2.255  11.646  10.948  0.2351  0.4360  0.3095
41159SOL    HW130338   2.205  11.685  11.020  1.0990  0.3465  0.9641
41159SOL    HW230339   2.188  11.622  10.883 -0.6240 -0.1902  1.4029
41160SOL     OW30340  10.932   7.492   5.248  0.2382 -0.1889 -0.5857
41160SOL    HW130341  11.017   7.490   5.204  0.0193  2.4007 -1.2819
41160SOL    HW230342  10.949   7.455   5.334  2.1348  0.4382 -0.6495
41161SOL     OW30343  10.087   7.826   4.208  0.3049  0.2786 -0.4850
41161SOL    HW130344  10.117   7.832   4.298 -1.0445  2.0450 -0.1132
41161SOL    HW230345  10.004   7.777   4.213  0.6779 -0.4198 -0.9026
41162SOL     OW30346   6.294  10.911   3.078  0.0921 -0.2357  0.4417
41162SOL    HW130347   6.281  10.934   3.170  1.1289  1.6343  0.1872
41162SOL    HW230348   6.210  10.931   3.036  0.1551  0.6204  0.7015
41163SOL     OW30349  11.946   2.341   2.945 -0.4644 -0.3556 -0.5417
41163SOL    HW130350  11.866   2.378   2.983  0.5515  0.0126  1.3193
41163SOL    HW230351  11.980   2.410   2.889  0.4733  0.9645  1.5296
41164SOL     OW30352   0.910   0.329  11.343 -0.0681 -0.2062 -0.1980
41164SOL    HW130353   0.920   0.288  11.257 -1.6205 -0.0240 -0.4788
41164SOL    HW230354   0.885   0.257  11.401 -0.5205 -0.0686 -0.2186
41165SOL     OW30355  11.276   9.690   8.939 -0.6571 -0.0236  0.1808
41165SOL    HW130356  11.297   9.609   8.892  0.3553  1.0046 -1.1999
41165SOL    HW230357  11.360   9.720   8.974 -0.9802  0.5950  0.4386
41166SOL     OW30358   3.885   1.266   9.623 -1.2511  0.2501 -0.3089
41166SOL    HW130359   3.804   1.316   9.632 -0.2607  1.7245  0.7402
41166SOL    HW230360   3.945   1.306   9.685 -0.5398 -2.5721  0.9615
41167SOL     OW30361   6.956   1.313   8.110  0.1349 -0.3946  0.2370
41167SOL    HW130362   6.947   1.221   8.133 -0.2224 -0.0862  1.4017
41167SOL    HW230363   7.006   1.351   8.183  2.1589 -0.0639 -1.2263
41168SOL     OW30364   8.182   8.940   3.914  0.1343  0.1689 -0.2551
41168SOL    HW130365   8.206   8.854   3.947 -0.8462 -1.2016 -2.8395
41168SOL    HW230366   8.261   8.973   3.872 -0.3639 -1.0448 -2.2476
41169SOL     OW30367  10.456   5.702   3.401 -0.0250  0.1833 -0.2103
41169SOL    HW130368  10.461   5.702   3.305 -0.2292 -1.2136 -0.2420
41169SOL    HW230369  10.466   5.794   3.425 -0.2482  0.6020 -1.5882
41170SOL     OW30370   8.807   3.833  11.328 -0.0332  0.1066 -0.4448
41170SOL    HW130371   8.868   3.785  11.272 -0.0402 -1.7375  1.0104
41170SOL    HW230372   8.764   3.765  11.380 -1.1144  1.6093  0.7193
41171SOL     OW30373   7.860   1.622   3.678 -0.0083 -0.0383  0.4929
41171SOL    HW130374   7.821   1.657   3.759  0.8716 -0.2006  1.0046
41171SOL    HW230375   7.953   1.612   3.699  0.5060  1.2128 -0.9770
41172SOL     OW30376   9.446   8.318   5.898 -0.4951 -0.0806  0.2007
41172SOL    HW130377   9.374   8.273   5.943 -2.4681  2.2762 -0.3943
41172SOL    HW230378   9.428   8.411   5.910  0.5120  0.6493 -2.9743
41173SOL     OW30379   4.968   8.446   0.914  0.2295 -0.5015  0.1017
41173SOL    HW130380   4.900   8.513   0.919  1.4242  0.8719 -1.0203
41173SOL    HW230381   5.047   8.489   0.947  1.0068 -1.3993 -0.5178
41174SOL     OW30382  12.254   6.844   6.756  0.3561 -0.1291  0.1290
41174SOL    HW130383  12.340   6.864   6.793  0.4430  0.2673 -0.2765
41174SOL    HW230384  12.246   6.903   6.681 -0.4698  0.1778  0.4439
41175SOL     OW30385   2.894   5.868  11.249 -0.4223 -0.3279 -0.3963
41175SOL    HW130386   2.914   5.841  11.339 -0.1827 -0.0037 -0.3514
41175SOL    HW230387   2.962   5.931  11.227 -0.7384 -0.0710 -0.6501
41176SOL     OW30388  11.363   3.297  11.051  0.4069 -0.0335  0.3357
41176SOL    HW130389  11.278   3.255  11.062  0.3941 -0.8510 -2.2031
41176SOL    HW230390  11.427   3.227  11.066  0.5326 -0.0060 -0.0470
41177SOL     OW30391   6.237  10.506  11.103 -0.0691  0.4032  0.3956
41177SOL    HW130392   6.220  10.597  11.129 -0.5658  0.1934  0.8162
41177SOL    HW230393   6.300  10.514  11.032  2.1707  0.9306  2.3310
41178SOL     OW30394   4.093   4.378   1.713  0.3920 -0.0645 -0.4069
41178SOL    HW130395   4.121   4.467   1.733  1.4796 -0.4372 -0.1894
41178SOL    HW230396   4.169   4.337   1.671  0.0081 -0.9655 -0.2635
41179SOL     OW30397   1.461   6.350   6.185 -0.2492 -0.1190  0.3331
41179SOL    HW130398   1.425   6.398   6.260 -2.4204 -0.6953 -0.2748
41179SOL    HW230399   1.445   6.258   6.206 -0.3217 -0.3187 -0.5774
41180SOL     OW30400  12.008   9.840   6.373  0.1545  0.1004  0.0808
41180SOL    HW130401  11.917   9.822   6.350  0.1326  1.0037 -0.6321
41180SOL    HW230402  12.056   9.826   6.291  0.6952 -0.5927  0.5078
41181SOL     OW30403   8.083   4.346   0.433  0.2066  0.7758  0.0817
41181SOL    HW130404   8.126   4.386   0.508  0.9153  0.6676 -0.2607
41181SOL    HW230405   8.137   4.270   0.412 -1.7251 -1.1052  1.4494
41182SOL     OW30406   9.997  12.088   8.284 -0.4789 -0.5007  0.2287
41182SOL    HW130407  10.044  12.152   8.337 -1.4937  1.0607 -0.6710
41182SOL    HW230408  10.045  12.006   8.297  1.4058  0.6175  0.7142
41183SOL     OW30409   9.117   5.437   5.777  0.0827 -1.0191  0.3751
41183SOL    HW130410   9.022   5.426   5.786 -0.3823  0.5701 -1.6714
41183SOL    HW230411   9.143   5.489   5.853 -0.7819 -1.0543  0.7038
41184SOL     OW30412   5.866   6.509   4.390  0.4412 -0.2412  1.1172
41184SOL    HW130413   5.925   6.455   4.336  0.8265  0.8906  0.3783
41184SOL    HW230414   5.884   6.480   4.479  1.2433 -0.7675  0.8082
41185SOL     OW30415  10.844   1.740   0.393 -0.8213  0.0589  0.3092
41185SOL    HW130416  10.787   1.670   0.425 -0.6533  0.2549  1.0462
41185SOL    HW230417  10.818   1.818   0.442  0.9489 -0.1357  1.6464
41186SOL     OW30418   8.035   6.659   3.282 -0.0569  0.2839  0.1232
41186SOL    HW130419   7.984   6.628   3.207 -0.8681 -0.6637  1.0396
41186SOL    HW230420   8.096   6.588   3.301 -1.2717 -0.4090  1.6340
41187SOL     OW30421   0.471   6.236   8.352 -0.4867 -1.1376  0.1196
41187SOL    HW130422   0.498   6.177   8.282 -0.4478  0.6030 -1.3998
41187SOL    HW230423   0.552   6.261   8.395 -0.4937 -2.0677  0.7009
41188SOL     OW30424   4.121   1.661   0.870 -0.5889 -0.4794 -0.1575
41188SOL    HW130425   4.196   1.712   0.901 -0.7777  1.2464 -2.2913
41188SOL    HW230426   4.132   1.575   0.911  1.6677  0.1969  0.8318
41189SOL     OW30427   2.574  10.008   9.411  0.5165 -0.0047  0.2665
41189SOL    HW130428   2.546   9.966   9.330  1.4147 -0.1442  0.0207
41189SOL    HW230429   2.525   9.962   9.480 -0.9917  0.7624 -0.2491
41190SOL     OW30430   0.933   9.752   1.604  0.6504 -0.0720  0.1291
41190SOL    HW130431   0.895   9.833   1.639 -1.3322 -0.9936  0.2417
41190SOL    HW230432   0.983   9.780   1.528 -0.6210  1.2062 -0.2836
41191SOL     OW30433  12.142   2.500   2.479 -0.2223  0.1483  0.7398
41191SOL    HW130434  12.095   2.448   2.413 -0.6528  0.1468  1.0454
41191SOL    HW230435  12.085   2.500   2.555  0.0281  0.6077  0.9325
41192SOL     OW30436   1.848   5.690  10.196 -0.3293 -0.2005 -0.0471
41192SOL    HW130437   1.819   5.601  10.177 -0.3258 -0.2141  0.0108
41192SOL    HW230438   1.934   5.679  10.238 -0.9453 -0.2450  1.2335
41193SOL     OW30439   5.108   4.495   8.108 -0.1908  0.3768  0.2632
41193SOL    HW130440   5.167   4.469   8.179 -0.1594  2.4173  1.0452
41193SOL    HW230441   5.022   4.495   8.148 -0.3349  0.3793 -0.0469
41194SOL     OW30442   1.988  10.188   0.616 -0.5951 -0.0217  0.3626
41194SOL    HW130443   2.039  10.268   0.627 -0.3614  0.0150 -0.8472
41194SOL    HW230444   2.039  10.136   0.553 -0.8907 -0.9916  0.9090
41195SOL     OW30445   5.938   1.180  12.031 -0.3578  0.3634 -0.3408
41195SOL    HW130446   5.943   1.131  11.948 -1.2099 -0.3588  0.0236
41195SOL    HW230447   5.869   1.244  12.016 -0.5553  0.1904 -0.1685
41196SOL     OW30448   8.224   0.290   3.195  0.4972 -0.0774 -0.4243
41196SOL    HW130449   8.175   0.370   3.217  1.1727  0.4013 -0.6248
41196SOL    HW230450   8.235   0.295   3.100 -0.5852 -1.0783 -0.6251
41197SOL     OW30451   8.600   8.892   3.953 -0.3396 -0.4392  0.1332
41197SOL    HW130452   8.653   8.944   4.013 -0.7341 -1.3793  1.3368
41197SOL    HW230453   8.658   8.873   3.880  0.3412  0.2367  0.4782
41198SOL     OW30454  11.312   6.797   3.413  0.4378  0.1951 -0.0443
41198SOL    HW130455  11.281   6.767   3.327 -0.2244 -1.7431  0.8208
41198SOL    HW230456  11.234   6.832   3.455  0.9209  1.8809 -0.4942
41199SOL     OW30457   8.931   5.821  10.045 -0.6404  0.3880 -0.0290
41199SOL    HW130458   8.940   5.912  10.016 -0.7753  0.1184 -0.9408
41199SOL    HW230459   8.981   5.817  10.127  2.5170  0.4250 -1.7935
41200SOL     OW30460   8.659   4.523   3.794  0.2325  0.2616  0.0838
41200SOL    HW130461   8.668   4.500   3.886 -2.3143  0.4845  0.4470
41200SOL    HW230462   8.591   4.464   3.761  0.6292  0.6322 -1.5200
41201SOL     OW30463   2.696  10.615   9.185  0.0178  0.1152 -0.1183
41201SOL    HW130464   2.661  10.548   9.244  0.0859 -0.3300 -0.5821
41201SOL    HW230465   2.708  10.692   9.241  0.4807 -0.4304  0.5453
41202SOL     OW30466   5.207   9.597   4.308  0.5454  0.2459 -0.0416
41202SOL    HW130467   5.281   9.656   4.322 -0.1237  1.5291 -1.5796
41202SOL    HW230468   5.238   9.536   4.241  1.2894 -1.3131  1.6552
41203SOL     OW30469   7.262   6.395   3.292  0.1112  0.1600 -0.3272
41203SOL    HW130470   7.245   6.489   3.294 -0.7256  0.0021  0.4909
41203SOL    HW230471   7.284   6.377   3.200  0.0122  1.1052 -0.5467
41204SOL     OW30472   8.779  11.476  10.678  0.1675 -0.0940  0.5558
41204SOL    HW130473   8.828  11.528  10.742  0.6885 -1.6452  1.4905
41204SOL    HW230474   8.838  11.404  10.657 -0.8709 -0.8040  0.0085
41205SOL     OW30475  10.902   6.442   0.626 -0.1575 -0.1220  0.3774
41205SOL    HW130476  10.891   6.372   0.562 -0.2535 -0.3554  0.6501
41205SOL    HW230477  10.949   6.402   0.699  1.9886  0.6768 -0.4723
41206SOL     OW30478   3.799   7.123   7.885 -0.0761 -0.0085 -0.2786
41206SOL    HW130479   3.768   7.035   7.905 -0.0684 -0.4553 -2.0681
41206SOL    HW230480   3.886   7.127   7.924 -1.1245  0.2440  2.2505
41207SOL     OW30481   6.272   8.321   8.287 -0.3170 -0.4287 -0.1053
41207SOL    HW130482   6.297   8.413   8.280 -0.0182 -0.6705 -4.0799
41207SOL    HW230483   6.191   8.323   8.337  0.3757  1.7967  1.0984
41208SOL     OW30484   0.000   7.626   6.471 -0.0768  0.6410 -0.1993
41208SOL    HW130485  -0.059   7.582   6.410  1.3986 -1.7681 -0.0038
41208SOL    HW230486  -0.006   7.719   6.448 -2.6915  0.2938 -1.2049
41209SOL     OW30487   0.107   6.276   5.893 -0.0089  0.7815  0.0112
41209SOL    HW130488   0.128   6.296   5.802 -0.7808  0.3901 -0.2617
41209SOL    HW230489   0.012   6.290   5.900  0.0304  0.7325  0.7339
41210SOL     OW30490   2.853   3.157   0.677  0.0697  0.4971 -0.2947
41210SOL    HW130491   2.920   3.118   0.733  2.5463  1.7809 -2.1423
41210SOL    HW230492   2.820   3.231   0.727  0.6543  0.3561  0.3106
41211SOL     OW30493   4.598   1.523  11.468 -0.6687 -0.1348 -0.0004
41211SOL    HW130494   4.549   1.561  11.395 -0.3970  0.5260  0.1572
41211SOL    HW230495   4.625   1.437  11.436 -1.3805 -0.2536 -0.3212
41212SOL     OW30496   5.878   3.948   8.951 -0.4746  0.2073 -0.1552
41212SOL    HW130497   5.934   4.002   8.895 -0.7125  1.2140  0.5586
41212SOL    HW230498   5.865   4.000   9.030 -0.4324 -1.0444  0.7019
41213SOL     OW30499   9.521   3.205   9.091  0.1966 -0.2800  0.6784
41213SOL    HW130500   9.534   3.282   9.147 -1.9199 -1.2391  2.6380
41213SOL    HW230501   9.607   3.166   9.083  1.0193  1.3784  0.9945
41214SOL     OW30502   1.070   9.248   8.962  0.2680 -0.7865  0.3065
41214SOL    HW130503   1.116   9.168   8.936  1.1938  0.1235 -0.9936
41214SOL    HW230504   1.057   9.296   8.880  1.6020  1.3441  1.2449
41215SOL     OW30505   4.250   8.623   6.099  0.3841 -0.5693  0.5643
41215SOL    HW130506   4.192   8.547   6.095  0.4477 -0.5771 -1.4055
41215SOL    HW230507   4.305   8.607   6.175 -1.9854 -0.6805  2.3525
41216SOL     OW30508  11.785  11.388   5.007  0.4202 -0.3708  0.0176
41216SOL    HW130509  11.708  11.395   5.063 -0.7834  2.4457 -1.7810
41216SOL    HW230510  11.758  11.331   4.935  0.8692 -1.2975  0.5572
41217SOL     OW30511   4.496   4.296  11.379 -0.0142  0.1555  0.0842
41217SOL    HW130512   4.421   4.322  11.325 -0.7605 -1.1685  0.4364
41217SOL    HW230513   4.473   4.209  11.412  1.4482 -0.0523  0.6454
41218SOL     OW30514   8.071   4.202  10.446 -0.4274  0.9888  0.6839
41218SOL    HW130515   8.065   4.281  10.499 -1.5604  0.6432  1.0953
41218SOL    HW230516   8.139   4.222  10.381 -1.2245  2.5795  0.2836
41219SOL     OW30517  10.102   5.863   6.551 -0.2555 -0.0055  0.0428
41219SOL    HW130518  10.178   5.892   6.501 -0.5894 -1.2290 -1.2305
41219SOL    HW230519  10.056   5.944   6.574  0.9919  0.6978  0.1621
41220SOL     OW30520   3.711   1.028   9.332 -0.0936  0.9358 -0.9398
41220SOL    HW130521   3.664   1.108   9.358 -1.6584 -1.0432  3.2711
41220SOL    HW230522   3.642   0.965   9.312  0.8324 -0.6934  0.6928
41221SOL     OW30523   9.289   0.800  11.046 -0.2019 -0.4450  0.0826
41221SOL    HW130524   9.374   0.782  11.006  0.6464  0.6110  1.3346
41221SOL    HW230525   9.260   0.880  11.004 -0.2121 -0.3899  0.1938
41222SOL     OW30526   5.190   1.105  12.151 -0.2337  0.0193 -0.3894
41222SOL    HW130527   5.115   1.131  12.206  0.7686 -1.2771  1.7158
41222SOL    HW230528   5.239   1.187  12.139 -1.1713  0.5853 -0.4914
41223SOL     OW30529   6.830   0.181   9.398 -0.0893  0.1029 -0.7075
41223SOL    HW130530   6.803   0.273   9.407  0.1259  0.1403 -0.4428
41223SOL    HW230531   6.870   0.160   9.482 -0.3204 -0.2970 -0.6981
41224SOL     OW30532   1.989  12.409   2.635 -0.8657 -0.2507  0.9645
41224SOL    HW130533   1.936  12.474   2.681 -1.8891 -1.7986  2.0883
41224SOL    HW230534   1.951  12.325   2.661  0.3904 -1.3121 -0.4461
41225SOL     OW30535   9.893   2.896   9.491  0.3679  0.6698 -0.0221
41225SOL    HW130536   9.946   2.821   9.463 -1.2337 -0.5391  0.0063
41225SOL    HW230537   9.845   2.863   9.568 -0.2767  1.7740  0.0624
41226SOL     OW30538  12.086   1.100   0.719  0.3961  0.1667 -0.3210
41226SOL    HW130539  12.078   1.006   0.699 -0.3669  0.1330  0.1195
41226SOL    HW230540  12.165   1.106   0.773 -1.3331 -0.7185  2.4857
41227SOL     OW30541   7.372   6.115   3.849  0.4556 -0.3178 -0.3009
41227SOL    HW130542   7.376   6.052   3.777 -0.2205 -0.0498 -0.5773
41227SOL    HW230543   7.415   6.193   3.814 -1.5704  0.4891 -1.1336
41228SOL     OW30544   9.657   6.288   2.998 -0.3012  0.2296 -0.5469
41228SOL    HW130545   9.651   6.369   3.048 -0.7192 -1.8199  3.0902
41228SOL    HW230546   9.751   6.277   2.983 -0.2403  1.3675 -1.0924
41229SOL     OW30547  12.412   6.878  11.474 -0.1982 -0.2011  0.1630
41229SOL    HW130548  12.465   6.957  11.467  1.5372 -1.0818  2.3786
41229SOL    HW230549  12.336   6.904  11.526 -1.1985  0.6479 -1.6080
41230SOL     OW30550   4.924   3.631   7.452  0.1191  0.0256  0.2517
41230SOL    HW130551   4.916   3.542   7.419  0.1510  0.5126 -1.1523
41230SOL    HW230552   4.853   3.639   7.516  0.2368 -1.0549  0.5339
41231SOL     OW30553   5.861  10.022   1.156 -0.1825 -0.0021  0.5168
41231SOL    HW130554   5.892   9.952   1.213  0.1411 -0.8503 -0.6690
41231SOL    HW230555   5.939  10.073   1.134 -0.1918 -0.1037  0.2501
41232SOL     OW30556   8.785   5.731   5.544 -0.0627 -0.9037 -0.5351
41232SOL    HW130557   8.863   5.675   5.544 -0.4475 -1.4578 -0.0651
41232SOL    HW230558   8.754   5.728   5.454  0.9818  0.0862 -0.9567
41233SOL     OW30559  11.203   3.596   9.769  0.2390 -0.3545 -0.3233
41233SOL    HW130560  11.122   3.610   9.720 -0.6934  0.9992  1.5009
41233SOL    HW230561  11.261   3.552   9.706 -0.8400  1.2986 -2.6606
41234SOL     OW30562   0.503   9.339   4.484  0.1053 -0.3012  0.1196
41234SOL    HW130563   0.532   9.356   4.574 -0.9901 -2.3528  0.9268
41234SOL    HW230564   0.494   9.425   4.445  0.3174  0.6601  2.0752
41235SOL     OW30565   6.845  10.574  10.444  0.2984 -0.3953  0.0881
41235SOL    HW130566   6.848  10.503  10.379 -0.5325 -0.0087 -0.3889
41235SOL    HW230567   6.752  10.584  10.464  0.3634  0.8190 -0.1443
41236SOL     OW30568  12.257   4.637   4.287 -0.5393 -0.1369  0.5140
41236SOL    HW130569  12.342   4.597   4.303  0.5802  1.1907 -1.6677
41236SOL    HW230570  12.224   4.593   4.208 -0.1059  1.8292 -0.8448
41237SOL     OW30571   3.012   7.361   1.816  0.3327  0.1069  0.0881
41237SOL    HW130572   3.105   7.376   1.829  0.3903  0.2068 -0.4517
41237SOL    HW230573   2.969   7.429   1.868  0.5744  1.1470 -1.0375
41238SOL     OW30574   9.486   9.401   0.043  0.7528 -0.4177  0.3991
41238SOL    HW130575   9.574   9.435   0.024  0.9038 -0.9016  0.2160
41238SOL    HW230576   9.501   9.311   0.071  0.1783 -1.1029 -1.3995
41239SOL     OW30577  12.283  11.568   7.631 -0.6893  0.4785 -0.0607
41239SOL    HW130578  12.221  11.576   7.559 -0.7407  0.5475 -0.0092
41239SOL    HW230579  12.350  11.633   7.613 -0.6447  0.4199 -0.1049
41240SOL     OW30580   0.996   5.075  10.611  0.6613 -0.0966 -0.0717
41240SOL    HW130581   1.054   5.133  10.661  1.2849 -1.1624  0.4949
41240SOL    HW230582   0.934   5.041  10.676  0.1991  0.0618 -0.4261
41241SOL     OW30583   6.668   3.517   8.765 -0.2174 -0.1082  0.6551
41241SOL    HW130584   6.689   3.606   8.794  1.3547 -0.4497  0.6582
41241SOL    HW230585   6.741   3.493   8.707 -1.0284 -1.1018  0.0181
41242SOL     OW30586   0.413   5.953   6.419  0.4377  0.0198  0.2962
41242SOL    HW130587   0.373   5.882   6.469  1.0705 -1.5011 -1.2731
41242SOL    HW230588   0.505   5.928   6.412  0.4294  0.3656 -1.3077
41243SOL     OW30589   9.982   5.609   7.812 -0.0460  0.2981  0.4216
41243SOL    HW130590  10.049   5.545   7.787 -0.5393 -0.1464  0.2187
41243SOL    HW230591   9.913   5.556   7.853 -0.6156  0.6520 -0.0652
41244SOL     OW30592   7.072  10.794   9.962 -0.2105  0.0305  0.1593
41244SOL    HW130593   7.161  10.827   9.954 -0.5500  0.8632 -0.4074
41244SOL    HW230594   7.062  10.775  10.056 -0.1047  1.9734  0.6212
41245SOL     OW30595   8.798   3.869   3.501 -0.0440  0.4882  0.1254
41245SOL    HW130596   8.843   3.941   3.544 -0.3880 -0.1492  1.5978
41245SOL    HW230597   8.840   3.790   3.535 -0.9088 -0.0541 -0.0264
41246SOL     OW30598   2.558   9.413   7.853  0.1447  0.1175 -0.4763
41246SOL    HW130599   2.501   9.487   7.871 -0.8275 -0.6691 -0.1872
41246SOL    HW230600   2.520   9.341   7.904  0.3906 -0.8550 -1.6193
41247SOL     OW30601   0.336   3.504   1.025  0.7816 -0.3264 -0.2962
41247SOL    HW130602   0.417   3.551   1.006  0.3289  1.2668  1.4210
41247SOL    HW230603   0.352   3.415   0.993  3.6874 -0.4172  1.0966
41248SOL     OW30604   8.962   3.821   6.825 -0.3383  0.7164  0.0310
41248SOL    HW130605   9.037   3.874   6.797  0.6891 -0.1534  1.0466
41248SOL    HW230606   8.903   3.883   6.867  0.8899  1.0820  1.3026
41249SOL     OW30607   7.564   2.218   2.531 -0.2750 -0.3890  1.0460
41249SOL    HW130608   7.612   2.301   2.528 -0.8786 -0.0507  0.2767
41249SOL    HW230609   7.513   2.217   2.450 -2.0359 -0.4529  2.0936
41250SOL     OW30610   4.727   6.442  10.661  0.2669 -0.3842 -0.3179
41250SOL    HW130611   4.814   6.409  10.686  0.6074  0.3004 -0.5641
41250SOL    HW230612   4.719   6.525  10.710 -0.7962 -1.0649  0.7262
41251SOL     OW30613   5.982   4.724   9.660 -0.0996 -0.6331 -0.0856
41251SOL    HW130614   5.927   4.706   9.736 -1.7644 -1.3921 -1.4097
41251SOL    HW230615   5.973   4.647   9.605  1.4169 -0.2753 -0.8879
41252SOL     OW30616   2.438   4.447   0.418 -0.3268 -0.1528 -0.2626
41252SOL    HW130617   2.357   4.409   0.451  0.2851 -0.8508  0.4682
41252SOL    HW230618   2.476   4.378   0.364  2.0530 -1.7039  3.0731
41253SOL     OW30619   3.042   4.707   0.448 -0.2511  0.3734  0.3468
41253SOL    HW130620   2.988   4.632   0.471  1.6119 -1.3991 -0.6732
41253SOL    HW230621   3.085   4.682   0.367 -0.1848  2.9369 -0.5241
41254SOL     OW30622   3.028  10.409   2.827  0.0191  0.4740  0.2279
41254SOL    HW130623   3.060  10.447   2.909  0.5460  1.6423 -0.5043
41254SOL    HW230624   3.035  10.314   2.840 -0.0703  0.6421  1.5898
41255SOL     OW30625   4.243   4.813   4.608 -0.3281  0.3441 -0.2309
41255SOL    HW130626   4.190   4.801   4.529 -0.7925 -1.3353  0.3043
41255SOL    HW230627   4.186   4.787   4.680  0.3398  1.1334  0.6034
41256SOL     OW30628   8.119   8.632   7.172 -0.3660  0.5818 -0.1560
41256SOL    HW130629   8.076   8.578   7.106  0.0904 -0.1467  0.1337
41256SOL    HW230630   8.122   8.719   7.133 -1.3698  0.4716 -0.5117
41257SOL     OW30631  10.149   5.855   1.371 -0.4736 -0.4713 -0.7438
41257SOL    HW130632  10.241   5.829   1.380  0.6333  3.0923 -0.1204
41257SOL    HW230633  10.145   5.894   1.283 -0.7737  1.3029  0.0199
41258SOL     OW30634   7.893   4.075   3.256 -0.3007  0.4467 -0.3924
41258SOL    HW130635   7.859   4.085   3.167 -2.7033 -0.3859  0.3534
41258SOL    HW230636   7.911   3.981   3.265  0.0553  0.5428 -0.0172
41259SOL     OW30637   0.881   3.361   9.534 -0.3192  0.5716  0.4717
41259SOL    HW130638   0.915   3.330   9.618 -0.8086  1.0658  0.8557
41259SOL    HW230639   0.959   3.368   9.478  0.3405  2.2890  1.5305
41260SOL     OW30640   5.328   9.178   4.493  0.0121 -0.0099  0.1060
41260SOL    HW130641   5.350   9.119   4.565 -3.1424 -0.6501  0.7069
41260SOL    HW230642   5.350   9.129   4.414  0.5295 -0.6088  0.6099
41261SOL     OW30643   1.047   9.726   9.058 -0.2077 -0.7410 -0.3148
41261SOL    HW130644   0.976   9.667   9.031  1.1200 -1.9041 -1.4163
41261SOL    HW230645   1.107   9.727   8.984  1.0062  0.1089  0.6422
41262SOL     OW30646  11.669  12.357  11.996  0.0336 -0.3679  0.1959
41262SOL    HW130647  11.725  12.375  11.921  2.1344  3.1876  2.3669
41262SOL    HW230648  11.611  12.432  12.002 -0.4073 -0.7985  1.8437
41263SOL     OW30649   9.538   7.438   1.222  0.1530 -0.5304  0.4500
41263SOL    HW130650   9.466   7.463   1.164  0.1656 -1.9531 -0.2302
41263SOL    HW230651   9.601   7.393   1.164  0.8801 -0.6243  1.2958
41264SOL     OW30652   6.763   5.120   4.475  0.4582 -0.3312  0.1904
41264SOL    HW130653   6.723   5.035   4.457  0.3664  0.2866 -3.2537
41264SOL    HW230654   6.689   5.177   4.495  0.1723 -0.4168 -0.5830
41265SOL     OW30655   4.334   4.587  12.424  0.3562 -0.2471  0.3965
41265SOL    HW130656   4.284   4.641  12.486  0.2525  0.3131 -0.1644
41265SOL    HW230657   4.310   4.497  12.447 -0.8426  0.0038  0.2118
41266SOL     OW30658   1.958   9.255  10.375 -0.5089  0.1130 -0.1453
41266SOL    HW130659   1.898   9.198  10.327 -0.4416  0.9120 -1.1969
41266SOL    HW230660   2.016   9.195  10.422 -1.3043 -0.6697 -0.1445
41267SOL     OW30661   8.081   9.303   4.755 -0.6697 -0.8681 -0.6169
41267SOL    HW130662   8.004   9.351   4.723 -0.2554 -1.7770 -3.1493
41267SOL    HW230663   8.076   9.312   4.851 -0.5110  4.3462 -0.8142
41268SOL     OW30664  10.103   3.233   1.461 -0.2256  0.1588  0.1825
41268SOL    HW130665  10.117   3.280   1.543 -4.2769 -2.6408  2.8991
41268SOL    HW230666  10.015   3.258   1.434  0.2466 -0.5495 -2.2354
41269SOL     OW30667   8.508   9.675  12.348  0.8214 -0.3661 -0.5315
41269SOL    HW130668   8.496   9.770  12.348  1.1394 -0.3173  0.0012
41269SOL    HW230669   8.531   9.654  12.439  1.3171 -0.8819 -0.7690
41270SOL     OW30670   6.864   5.392   5.176  0.4994  0.4992  1.0209
41270SOL    HW130671   6.896   5.452   5.243 -0.0150  1.0852  0.7537
41270SOL    HW230672   6.806   5.446   5.122  0.4557 -0.1086  0.4543
41271SOL     OW30673   3.973   8.936   9.268 -0.1988 -0.0846  0.0151
41271SOL    HW130674   3.975   8.840   9.263 -1.7138 -0.1100 -3.4316
41271SOL    HW230675   3.909   8.955   9.337 -0.4454 -1.5966  0.2404
41272SOL     OW30676   0.884  11.720   3.025 -0.0867 -0.0958  0.0161
41272SOL    HW130677   0.814  11.778   3.054 -0.2489  0.0720 -0.6945
41272SOL    HW230678   0.842  11.634   3.019 -1.0609  0.4725 -3.1915
41273SOL     OW30679   7.837   5.797  11.653 -0.4015  0.0667 -0.2104
41273SOL    HW130680   7.808   5.771  11.740 -0.1303  2.4233  0.6352
41273SOL    HW230681   7.890   5.723  11.623 -1.6152 -1.3868  1.0055
41274SOL     OW30682   9.716   4.798   1.078  0.0952  0.7705  0.0294
41274SOL    HW130683   9.728   4.759   1.164 -1.3199  0.5379  0.1517
41274SOL    HW230684   9.622   4.818   1.074  0.0091  0.2151 -1.6833
41275SOL     OW30685   9.858   1.999   9.379 -0.2711  0.0244 -0.4496
41275SOL    HW130686   9.859   2.065   9.309  0.7539  1.5343  0.9276
41275SOL    HW230687   9.823   1.920   9.336  1.0508  0.6392 -2.8671
41276SOL     OW30688   6.465   5.577   2.964  0.4393  0.3938  0.0647
41276SOL    HW130689   6.416   5.547   2.887  0.2711 -0.5984  0.5314
41276SOL    HW230690   6.554   5.547   2.949  0.4381  0.3316  0.1727
41277SOL     OW30691  11.314   2.905   2.703  0.1696  0.0617  0.1563
41277SOL    HW130692  11.359   2.843   2.761 -1.2251 -0.2587  0.9283
41277SOL    HW230693  11.353   2.990   2.725  0.6036 -0.2433  0.5976
41278SOL     OW30694   6.610   6.945  10.241  0.3272  0.1799 -0.7155
41278SOL    HW130695   6.673   6.880  10.270  0.5988  0.7415 -0.0275
41278SOL    HW230696   6.657   6.997  10.176  0.0608 -0.3935 -1.3821
41279SOL     OW30697   7.046   0.371   2.868 -0.2982 -0.2605  0.1828
41279SOL    HW130698   7.047   0.309   2.940  1.9271 -2.1129 -1.3170
41279SOL    HW230699   6.963   0.354   2.823  1.0099 -3.6235 -1.2643
41280SOL     OW30700   0.210   5.810   0.547  0.2063  0.4098 -0.0906
41280SOL    HW130701   0.131   5.767   0.516  0.1602 -0.3715  1.0277
41280SOL    HW230702   0.279   5.744   0.536  0.4535  0.6397  0.0713
41281SOL     OW30703   8.609   1.208   8.992 -0.3225 -0.3961 -0.0515
41281SOL    HW130704   8.522   1.172   9.010  0.2458 -1.5640  0.4656
41281SOL    HW230705   8.635   1.169   8.909 -1.0403  1.4398 -1.2145
41282SOL     OW30706   9.036   7.689   3.266 -0.4742 -0.2621  0.0079
41282SOL    HW130707   9.055   7.640   3.186 -0.7864 -1.7575  0.7965
41282SOL    HW230708   9.086   7.770   3.258  0.5600 -0.9723 -1.1000
41283SOL     OW30709   0.067  11.005   4.802 -0.1688  0.0057  0.0680
41283SOL    HW130710   0.045  11.091   4.837 -1.7037 -0.3650  0.0959
41283SOL    HW230711   0.018  10.999   4.720  0.1218 -0.7375 -0.0630
41284SOL     OW30712  11.330   3.910   9.809 -0.2517 -0.4078 -0.1162
41284SOL    HW130713  11.260   3.975   9.814 -1.2207 -1.5054  1.6799
41284SOL    HW230714  11.336   3.887   9.716 -1.3450  0.6693 -0.4706
41285SOL     OW30715   3.326   6.408   7.083 -0.1446  0.2549  0.1391
41285SOL    HW130716   3.291   6.336   7.030  0.7346  0.5705 -0.9274
41285SOL    HW230717   3.330   6.482   7.022  2.3035  0.2339  0.1746
41286SOL     OW30718   9.119   5.098   5.237 -0.3566 -0.3771 -0.5015
41286SOL    HW130719   9.191   5.069   5.293 -0.4842 -0.4810 -0.3923
41286SOL    HW230720   9.162   5.148   5.167 -0.2874  0.8664  0.3929
41287SOL     OW30721   2.183   4.117   0.228 -0.0675  0.1807 -0.2606
41287SOL    HW130722   2.227   4.200   0.212 -0.7969  0.7136  0.4359
41287SOL    HW230723   2.149   4.124   0.317  1.1736 -1.4602  0.3928
41288SOL     OW30724   0.097  11.909  10.508 -0.0485 -0.0688  0.4350
41288SOL    HW130725   0.061  11.868  10.429 -0.7681 -1.8703  1.6193
41288SOL    HW230726   0.159  11.845  10.543 -1.5727 -0.4935  2.6253
41289SOL     OW30727   0.360  11.041  12.413  0.1178  0.0845 -0.2938
41289SOL    HW130728   0.368  10.966  12.354 -0.6094  1.4650 -2.2481
41289SOL    HW230729   0.273  11.031  12.453 -1.1848  1.2516 -2.6518
41290SOL     OW30730   6.076  10.403   5.335 -0.3625 -0.3759 -0.1433
41290SOL    HW130731   5.981  10.405   5.330 -0.5863  1.2903  2.8488
41290SOL    HW230732   6.103  10.495   5.325  0.7463 -0.5404  1.0722
41291SOL     OW30733  10.175   5.360   0.971  0.4474  0.4529  0.1773
41291SOL    HW130734  10.244   5.406   0.923  0.7604 -0.5063 -0.3247
41291SOL    HW230735  10.105   5.348   0.906 -0.5985  2.1938  0.9094
41292SOL     OW30736   5.997  10.043   5.024 -0.0947  0.5227  0.1695
41292SOL    HW130737   6.032  10.124   5.060  1.7242 -0.4198  0.6338
41292SOL    HW230738   5.998   9.981   5.096  0.1163 -0.3797 -0.5814
41293SOL     OW30739   4.211  10.285   9.333  0.5330 -0.7138 -0.1457
41293SOL    HW130740   4.279  10.352   9.331  0.9329 -1.0983  0.3512
41293SOL    HW230741   4.145  10.319   9.393 -0.1275  0.0434 -1.2761
41294SOL     OW30742  11.184   5.047  10.703  0.7465  0.4704  0.2331
41294SOL    HW130743  11.263   4.998  10.683  2.5484  2.6080  1.6477
41294SOL    HW230744  11.157   5.086  10.620  1.6800  0.3987 -0.1097
41295SOL     OW30745   6.325   0.908   7.947 -0.3361  0.3582  0.3056
41295SOL    HW130746   6.335   0.853   8.025 -1.3523  1.0990  0.9846
41295SOL    HW230747   6.413   0.916   7.912  0.1918  0.2536  1.5593
41296SOL     OW30748   1.610  10.258   9.650  0.2647  0.2612 -0.2696
41296SOL    HW130749   1.609  10.162   9.660  1.8387  0.2198 -0.1478
41296SOL    HW230750   1.537  10.288   9.704  0.8288 -0.7841  1.1763
41297SOL     OW30751   5.315   2.746   1.113  0.0328 -0.2339 -0.0975
41297SOL    HW130752   5.253   2.803   1.158  1.0943  0.3408  0.6691
41297SOL    HW230753   5.363   2.804   1.054  0.6553 -0.4338  0.1944
41298SOL     OW30754  10.601  11.082   7.445  0.6063  0.6534 -0.1464
41298SOL    HW130755  10.660  11.137   7.496  1.0386  0.6103 -0.5951
41298SOL    HW230756  10.540  11.046   7.510  0.9532  0.8460  0.2934
41299SOL     OW30757   9.484   2.773   8.678 -0.4203 -0.4109 -0.4790
41299SOL    HW130758   9.461   2.714   8.606 -1.0832 -0.8151  0.0494
41299SOL    HW230759   9.409   2.833   8.684 -1.1684 -1.4209  0.9348
41300SOL     OW30760   7.854   4.669   6.593 -0.7001 -0.0550 -0.1953
41300SOL    HW130761   7.823   4.608   6.526 -0.1832  0.5624 -1.0173
41300SOL    HW230762   7.945   4.642   6.609 -0.7123  0.0179 -0.0040
41301SOL     OW30763   7.658   2.170   3.373 -0.3929  0.1212 -0.3886
41301SOL    HW130764   7.606   2.115   3.314  1.2736 -2.3053  0.2580
41301SOL    HW230765   7.743   2.178   3.330 -0.5129  2.0823 -0.3518
41302SOL     OW30766  12.217   9.131   8.498  0.0196 -0.2263  0.1903
41302SOL    HW130767  12.151   9.089   8.553  0.2913 -0.6241  0.2138
41302SOL    HW230768  12.235   9.067   8.429  0.4368 -0.1465  0.2239
41303SOL     OW30769   0.637   5.633   9.605  0.0674  0.5925  0.0498
41303SOL    HW130770   0.551   5.618   9.643  0.4871 -1.4248  0.3182
41303SOL    HW230771   0.633   5.588   9.520  0.7681  0.7093 -0.0482
41304SOL     OW30772   2.520   6.610  10.560 -0.9286 -0.1303 -0.3679
41304SOL    HW130773   2.482   6.633  10.475 -0.0877 -2.0920 -1.3380
41304SOL    HW230774   2.447   6.577  10.611 -1.3794  0.7499 -0.4243
41305SOL     OW30775  11.941  11.737   9.835  0.1497 -0.2432  0.6973
41305SOL    HW130776  11.994  11.810   9.865  0.3616 -0.1143  0.0054
41305SOL    HW230777  11.893  11.709   9.914  0.6198  0.1585  1.1313
41306SOL     OW30778   2.438   2.966   2.404  0.2023 -0.7596  0.5852
41306SOL    HW130779   2.471   2.889   2.450 -1.1914 -1.0921  1.0911
41306SOL    HW230780   2.345   2.969   2.426  0.1236  0.7904  0.1662
41307SOL     OW30781   6.635   1.552   0.573  0.2135  0.0666 -0.4345
41307SOL    HW130782   6.560   1.526   0.627 -0.3914 -0.9795 -1.7115
41307SOL    HW230783   6.637   1.648   0.579  1.2054 -0.0482  2.7323
41308SOL     OW30784   8.020  11.600   9.202  0.4370  0.4495 -0.5363
41308SOL    HW130785   7.929  11.579   9.222  0.7631 -0.8710 -0.3433
41308SOL    HW230786   8.061  11.613   9.288  1.2926 -2.8918 -0.2815
41309SOL     OW30787   8.268   4.038   8.848 -0.4468 -0.8508  0.5765
41309SOL    HW130788   8.219   4.114   8.816 -0.3168 -1.0233 -0.0381
41309SOL    HW230789   8.206   3.965   8.842 -0.4303 -0.8789  0.7500
41310SOL     OW30790   8.879   8.645   8.274  0.3829  0.1694  0.1567
41310SOL    HW130791   8.922   8.585   8.334  0.2639  0.1990  0.2731
41310SOL    HW230792   8.843   8.588   8.206 -0.3915  0.0267  0.6711
41311SOL     OW30793   3.413   8.836   2.076  0.1124 -0.3921 -0.1531
41311SOL    HW130794   3.441   8.846   2.167 -0.3020  1.2667 -0.1689
41311SOL    HW230795   3.459   8.759   2.044  1.0249 -0.4160  1.1736
41312SOL     OW30796   9.792   5.886   6.658 -0.2757 -0.9064 -0.1022
41312SOL    HW130797   9.824   5.974   6.640 -1.3817 -0.2521  0.9992
41312SOL    HW230798   9.870   5.837   6.684  0.0342  0.3832  1.5878
41313SOL     OW30799   4.017   0.377   1.435 -0.5248 -0.2666 -0.4819
41313SOL    HW130800   4.017   0.470   1.411  0.1912  0.0588  0.6767
41313SOL    HW230801   4.109   0.353   1.437 -0.5119 -0.2273  1.9705
41314SOL     OW30802   8.344  10.262   7.676 -0.1195 -0.0507  1.1939
41314SOL    HW130803   8.411  10.205   7.640 -0.4948 -0.0799  0.5155
41314SOL    HW230804   8.390  10.319   7.737  0.9554  1.4338 -0.8837
41315SOL     OW30805  10.864   7.433   4.770 -0.2227  0.0998  0.5209
41315SOL    HW130806  10.818   7.452   4.851 -0.8121  0.3004  0.1471
41315SOL    HW230807  10.903   7.347   4.783 -3.2722 -1.5139 -0.2546
41316SOL     OW30808   3.046   4.730   4.726 -0.1340 -0.5297  0.2185
41316SOL    HW130809   2.986   4.767   4.792  1.0679  0.6189  0.7212
41316SOL    HW230810   3.054   4.800   4.660  0.0176 -0.9997 -0.2671
41317SOL     OW30811   3.730  11.092  11.197  0.1052 -0.2465  0.6747
41317SOL    HW130812   3.686  11.091  11.112  0.7165 -2.4402  0.3363
41317SOL    HW230813   3.719  11.004  11.232  0.2178  0.4934  2.7176
41318SOL     OW30814   7.664   0.763  10.261 -0.0567 -0.3223 -0.8079
41318SOL    HW130815   7.598   0.817  10.304 -0.6963 -0.8229 -1.1523
41318SOL    HW230816   7.747   0.791  10.300 -0.6107 -0.7981  0.7720
41319SOL     OW30817   3.361   8.574   4.691 -0.2245 -0.4329  0.4026
41319SOL    HW130818   3.312   8.535   4.764  0.7211 -0.3667  1.0874
41319SOL    HW230819   3.340   8.667   4.696  0.7842 -0.2493  1.3427
41320SOL     OW30820   9.384   9.224  12.199 -0.0769  0.2341  0.3801
41320SOL    HW130821   9.324   9.299  12.196  0.9656  1.1148  0.7894
41320SOL    HW230822   9.329   9.150  12.222 -1.2135  0.7900 -0.4499
41321SOL     OW30823   3.422  10.964   3.346 -0.0346  0.3767  0.1877
41321SOL    HW130824   3.469  10.907   3.406  0.5738  1.7432  1.0525
41321SOL    HW230825   3.332  10.932   3.348  0.2656 -0.4583  0.7534
41322SOL     OW30826   7.419   5.866   9.030 -0.4675  0.5506 -0.1134
41322SOL    HW130827   7.341   5.812   9.016 -0.9895  1.4899 -1.0028
41322SOL    HW230828   7.477   5.842   8.958  0.5105 -0.8439  1.0798
41323SOL     OW30829  12.108   8.676   0.868  0.0438  0.1150 -0.2445
41323SOL    HW130830  12.162   8.718   0.801  0.8930  0.4096  0.6149
41323SOL    HW230831  12.105   8.739   0.940 -1.7151  0.2400 -0.3904
41324SOL     OW30832   1.615   6.065  10.266 -0.5074 -0.4411 -0.0656
41324SOL    HW130833   1.528   6.057  10.304  0.4651  2.8976  3.4447
41324SOL    HW230834   1.608   6.138  10.205 -0.3177 -0.7458 -0.4626
41325SOL     OW30835   8.451   3.811   2.773  0.4867 -0.6173  0.0257
41325SOL    HW130836   8.470   3.903   2.792 -1.1537 -0.0134 -1.0275
41325SOL    HW230837   8.526   3.763   2.809  1.5253  1.1410  0.3316
41326SOL     OW30838  11.999   5.893   9.373  0.2968 -0.4264 -0.2614
41326SOL    HW130839  11.990   5.988   9.379  1.7955 -0.3599  3.2684
41326SOL    HW230840  12.084   5.879   9.333  0.3987 -0.2738 -0.0976
41327SOL     OW30841   4.324   1.715   4.222 -0.5953 -0.3385  0.6131
41327SOL    HW130842   4.258   1.646   4.213 -1.5343  0.6658 -0.5871
41327SOL    HW230843   4.404   1.677   4.187 -1.1220 -0.8160 -0.1022
41328SOL     OW30844  11.023   4.219   2.767  0.2074 -0.4120  0.9279
41328SOL    HW130845  11.050   4.281   2.834 -1.8099  0.1649  1.2909
41328SOL    HW230846  10.941   4.182   2.801  0.3551 -1.8511 -0.1679
41329SOL     OW30847   9.650   6.375  11.643 -0.1920  0.1379  0.3347
41329SOL    HW130848   9.629   6.297  11.694 -0.8448  0.6602  0.8672
41329SOL    HW230849   9.715   6.421  11.695 -0.0078  0.0958  0.1461
41330SOL     OW30850   8.205   0.310  11.629  0.2328  0.3397  0.2831
41330SOL    HW130851   8.199   0.240  11.565  2.6900 -1.6815  2.0799
41330SOL    HW230852   8.161   0.276  11.707 -0.9557  1.9415  0.3671
41331SOL     OW30853   3.581   1.630   8.495 -0.1885 -0.0641 -0.0921
41331SOL    HW130854   3.581   1.682   8.414  0.6061 -0.7163 -0.5266
41331SOL    HW230855   3.632   1.684   8.557 -2.7967  1.5747  0.7861
41332SOL     OW30856   1.336   7.633   8.807 -0.0249  0.1147 -0.2488
41332SOL    HW130857   1.245   7.644   8.780 -0.2886 -1.2370  0.0469
41332SOL    HW230858   1.359   7.545   8.778  0.6883 -0.1562  1.0824
41333SOL     OW30859   9.747  11.515   8.902  0.9147 -0.3542 -0.4006
41333SOL    HW130860   9.816  11.517   8.836  1.3101 -0.1335  0.0124
41333SOL    HW230861   9.777  11.576   8.970  0.0222  0.2139 -0.5013
41334SOL     OW30862   2.374  11.848   7.896 -0.1759  0.1894  0.0615
41334SOL    HW130863   2.451  11.841   7.840  0.2994 -2.4368  0.8953
41334SOL    HW230864   2.300  11.847   7.835  0.3783 -0.9926 -0.6288
41335SOL     OW30865  10.118  10.596  10.533 -0.0288 -0.4424  0.5885
41335SOL    HW130866  10.111  10.628  10.443 -1.6730 -0.5274  0.6559
41335SOL    HW230867  10.124  10.501  10.524 -0.1220 -0.4462  0.5637
41336SOL     OW30868   1.167   0.123  12.239 -0.3757 -0.0632  0.3707
41336SOL    HW130869   1.127   0.049  12.285  1.1356 -1.0847  0.1186
41336SOL    HW230870   1.100   0.151  12.176 -0.2886 -2.5534 -0.9711
41337SOL     OW30871  11.135   1.953   9.137 -0.2812 -0.2471 -0.0671
41337SOL    HW130872  11.124   2.043   9.105  1.6999 -0.7662 -2.5393
41337SOL    HW230873  11.228   1.945   9.154 -0.6831 -1.3783  1.7757
41338SOL     OW30874   8.337   2.519   9.495 -0.1601 -0.5311 -0.2790
41338SOL    HW130875   8.248   2.525   9.457 -0.7275 -0.1424  1.0714
41338SOL    HW230876   8.395   2.546   9.423 -1.3328  2.2136 -0.3485
41339SOL     OW30877  11.032  12.245   7.200  0.2344 -0.2678 -0.5760
41339SOL    HW130878  11.067  12.268   7.287  1.7037  1.0694 -1.4587
41339SOL    HW230879  10.940  12.223   7.216  0.7089 -1.0015  1.4451
41340SOL     OW30880   8.138   6.584   6.647  0.1526 -0.3921  0.0650
41340SOL    HW130881   8.114   6.498   6.614 -1.5619 -0.4284  1.2802
41340SOL    HW230882   8.234   6.584   6.646  0.1939 -1.2554 -2.5320
41341SOL     OW30883   7.043   5.154  12.455  0.1779 -0.1497 -0.9744
41341SOL    HW130884   6.998   5.158  12.371 -0.7119  1.4300 -0.4737
41341SOL    HW230885   7.115   5.217  12.447  1.7480 -1.9164 -1.4170
41342SOL     OW30886   9.306   7.861   8.314 -0.2741 -0.4885 -0.1050
41342SOL    HW130887   9.261   7.835   8.394  0.8708 -1.5492  0.2253
41342SOL    HW230888   9.355   7.783   8.287 -0.9044 -0.2659 -2.0490
41343SOL     OW30889   6.578   8.505   6.682  0.8631 -0.2054 -0.4749
41343SOL    HW130890   6.641   8.541   6.619  0.6907  1.1470  0.1017
41343SOL    HW230891   6.494   8.507   6.636  0.5671  1.6725  0.0896
41344SOL     OW30892   1.445   8.590   1.794  0.1456 -0.2518  0.3442
41344SOL    HW130893   1.363   8.580   1.746 -0.3434  0.2673  1.0530
41344SOL    HW230894   1.503   8.636   1.733  0.5409 -2.2032 -0.8375
41345SOL     OW30895  10.076  12.092  10.432  0.1186  0.0875  0.0437
41345SOL    HW130896  10.094  12.155  10.363  0.0969  0.7721  0.6559
41345SOL    HW230897  10.059  12.010  10.386 -0.7454  0.7228 -0.8128
41346SOL     OW30898   9.178  12.163  12.280 -0.3794 -0.4096  0.0611
41346SOL    HW130899   9.212  12.182  12.193 -0.4544  0.0660  0.1352
41346SOL    HW230900   9.256  12.154  12.335 -0.3431 -0.3403  0.0210
41347SOL     OW30901   7.831   7.232   8.502  0.2057  0.5027 -0.5372
41347SOL    HW130902   7.757   7.290   8.522  0.2697 -0.2172  2.2197
41347SOL    HW230903   7.794   7.144   8.508  1.1256  0.1541  0.1966
41348SOL     OW30904   7.465   5.550   8.185 -0.2780 -0.4854  0.3639
41348SOL    HW130905   7.540   5.494   8.206  0.7144  0.7587  0.2859
41348SOL    HW230906   7.492   5.637   8.213 -1.4953  0.0847 -0.1728
41349SOL     OW30907   7.884  10.310   7.921  0.4059 -0.0916 -0.0471
41349SOL    HW130908   7.918  10.307   7.832  0.4105  0.3312 -0.0573
41349SOL    HW230909   7.906  10.223   7.957 -0.3623 -0.5838 -0.7255
41350SOL     OW30910   9.924   9.826  11.966  0.3993 -0.9859  0.3846
41350SOL    HW130911   9.940   9.875  12.047  1.5364 -1.7186  0.6354
41350SOL    HW230912   9.938   9.889  11.896  1.4515 -0.8291  0.7159
41351SOL     OW30913   2.700   1.292   0.525  0.4222  0.2579  0.5383
41351SOL    HW130914   2.698   1.291   0.429  1.3209  0.0275  0.5192
41351SOL    HW230915   2.737   1.377   0.548  0.6032  0.1428  0.6742
41352SOL     OW30916   0.641   9.001   6.821 -0.1563  0.3661 -0.0913
41352SOL    HW130917   0.680   9.069   6.766 -1.2089  0.3005 -0.9598
41352SOL    HW230918   0.607   8.936   6.759  1.1393 -1.1529  0.7330
41353SOL     OW30919   7.734   1.462   9.184  0.0872 -0.3882  0.1324
41353SOL    HW130920   7.658   1.423   9.226 -0.1684  0.3119  0.3407
41353SOL    HW230921   7.757   1.401   9.114 -0.3334 -0.8721  0.4074
41354SOL     OW30922   3.552   3.526   0.432 -0.0622 -0.1450 -0.4691
41354SOL    HW130923   3.549   3.622   0.431  4.3783  0.1779 -1.5370
41354SOL    HW230924   3.555   3.503   0.525  1.2084  0.9758 -0.2035
41355SOL     OW30925   4.797   6.290   5.838  0.8350  0.4842 -0.2188
41355SOL    HW130926   4.769   6.319   5.924  1.0684  0.2668 -0.0672
41355SOL    HW230927   4.792   6.195   5.842  0.2743  0.4955 -0.6403
41356SOL     OW30928   7.430   5.373   5.015  0.2395  0.5890  0.3270
41356SOL    HW130929   7.380   5.315   5.073  0.1199  1.1080  0.7436
41356SOL    HW230930   7.364   5.421   4.966  0.2717 -1.5262 -2.0208
41357SOL     OW30931   6.497   2.073   1.663  0.0491  0.0341  0.2384
41357SOL    HW130932   6.403   2.057   1.653 -0.1630  0.9571  0.6204
41357SOL    HW230933   6.538   1.991   1.636 -0.8653 -0.3943  0.0921
41358SOL     OW30934   3.771   1.288  11.483  0.7478 -0.9742  0.4525
41358SOL    HW130935   3.684   1.326  11.475  1.3867  0.6843  0.9940
41358SOL    HW230936   3.757   1.207  11.531 -0.3474 -0.0269  1.8302
41359SOL     OW30937   8.258   5.468  10.286  0.4424  0.3073 -0.4894
41359SOL    HW130938   8.325   5.399  10.284  0.8154  0.4354  2.7741
41359SOL    HW230939   8.301   5.544  10.247  0.8733 -0.5908 -1.8484
41360SOL     OW30940   9.951   9.901   2.389 -0.1197  0.0091  0.3408
41360SOL    HW130941   9.943   9.993   2.367 -0.9030 -0.4997 -1.7555
41360SOL    HW230942  10.045   9.887   2.401  0.2225  0.7173 -1.2261
41361SOL     OW30943  11.787  10.255  10.012  0.3309 -0.2922  0.1514
41361SOL    HW130944  11.696  10.227  10.005  0.0465  0.6646 -0.2069
41361SOL    HW230945  11.833  10.179  10.046 -0.9441 -0.1918  2.3214
41362SOL     OW30946   8.544   8.370   9.792 -0.1761  0.0745  0.0584
41362SOL    HW130947   8.455   8.338   9.806 -0.2024  0.2226  0.2482
41362SOL    HW230948   8.532   8.463   9.773 -0.1287 -0.1039 -0.8627
41363SOL     OW30949   1.639   9.144   4.785 -0.1586  0.2761 -0.1114
41363SOL    HW130950   1.562   9.191   4.753 -0.6004 -0.8427 -0.7519
41363SOL    HW230951   1.604   9.061   4.816  0.7723 -0.1605 -0.2227
41364SOL     OW30952   0.541   4.602   9.627 -0.1905  0.0731  0.2653
41364SOL    HW130953   0.502   4.648   9.701 -0.1206  0.7978 -0.1433
41364SOL    HW230954   0.636   4.607   9.643 -0.2143 -1.5955  1.2027
41365SOL     OW30955   1.267   9.673   4.946 -0.3788 -0.2385  0.5030
41365SOL    HW130956   1.325   9.671   5.022  0.5610  2.0994 -0.1030
41365SOL    HW230957   1.259   9.765   4.923 -0.0986 -0.8885 -2.6635
41366SOL     OW30958  11.000   3.458   7.168  0.7132 -0.4869  0.3236
41366SOL    HW130959  10.975   3.374   7.206 -2.4975  0.0771 -0.2121
41366SOL    HW230960  11.026   3.512   7.243  1.8910 -1.6400  0.7718
41367SOL     OW30961   6.819   1.388   2.466 -0.0696  0.4015  0.1825
41367SOL    HW130962   6.790   1.478   2.478 -0.1724  0.2824  0.8227
41367SOL    HW230963   6.771   1.358   2.389  0.8219  1.2507 -0.7505
41368SOL     OW30964   5.587  10.758   8.469 -0.0503  0.2055  0.2735
41368SOL    HW130965   5.524  10.827   8.447 -0.5939 -1.1416 -3.0595
41368SOL    HW230966   5.651  10.801   8.525 -1.1283  3.0465 -0.4873
41369SOL     OW30967   5.424   5.724   1.075 -0.0500 -0.3921  0.0058
41369SOL    HW130968   5.367   5.773   1.135  1.8717  1.3641  0.5058
41369SOL    HW230969   5.365   5.693   1.006 -2.0051 -0.8375  1.7677
41370SOL     OW30970   0.575   8.947  12.306  0.1426  0.3744  0.3722
41370SOL    HW130971   0.504   9.010  12.308 -0.9031 -0.7898  1.5753
41370SOL    HW230972   0.565   8.902  12.222 -0.7481  0.0101  0.6654
41371SOL     OW30973   1.087   6.655  10.428 -0.5684  0.3890 -0.7467
41371SOL    HW130974   1.148   6.597  10.382 -0.6962 -0.7465  0.4347
41371SOL    HW230975   1.005   6.605  10.430 -0.3786  0.0598  1.2902
41372SOL     OW30976   0.978  12.008  10.684 -0.1249  0.1680  0.1990
41372SOL    HW130977   0.886  11.993  10.703 -0.0242 -1.0993 -0.1972
41372SOL    HW230978   0.993  12.100  10.705 -1.9508  0.9407 -1.5386
41373SOL     OW30979   8.205   0.595  10.959  0.8424  0.3307  0.0741
41373SOL    HW130980   8.206   0.561  11.048  2.2478 -1.8729 -0.7017
41373SOL    HW230981   8.154   0.676  10.964  0.7039  0.1402  2.8038
41374SOL     OW30982   3.252  12.035  10.498 -0.3340  0.0753 -0.4229
41374SOL    HW130983   3.329  11.979  10.488 -0.0833  0.4813 -0.7805
41374SOL    HW230984   3.276  12.117  10.454 -1.0424  0.1283 -0.7201
41375SOL     OW30985   3.805   6.367   2.648 -0.2078  0.6994  0.0627
41375SOL    HW130986   3.828   6.393   2.737  0.2773  1.5993 -0.3066
41375SOL    HW230987   3.881   6.393   2.595  0.4067 -1.7090 -0.3273
41376SOL     OW30988   9.775   8.524   1.105 -0.1440 -0.5397 -0.5107
41376SOL    HW130989   9.774   8.615   1.134  0.1587 -0.2852 -1.2779
41376SOL    HW230990   9.853   8.487   1.147  0.1640 -0.2344 -0.7998
41377SOL     OW30991   8.436  10.154   9.592 -0.2010  0.0543  0.3321
41377SOL    HW130992   8.528  10.136   9.611 -0.2647  0.6423  1.2625
41377SOL    HW230993   8.437  10.198   9.507  0.2799 -0.8212 -0.1278
41378SOL     OW30994  10.574   3.560  10.171 -0.0526  0.4040 -0.0819
41378SOL    HW130995  10.601   3.638  10.218  0.3983  1.5416 -2.0809
41378SOL    HW230996  10.652   3.535  10.121 -0.9181  0.1844 -1.3743
41379SOL     OW30997   3.633   9.762   1.044  0.0827  0.2668  0.5502
41379SOL    HW130998   3.645   9.773   1.139 -0.3028 -0.4822  0.6907
41379SOL    HW230999   3.549   9.803   1.025  0.8276  1.7479  0.2658
41380SOL     OW31000   8.548  10.119   8.499  0.1870  0.6824  0.1621
41380SOL    HW131001   8.608  10.117   8.425  1.1181 -2.1948  0.8583
41380SOL    HW231002   8.462  10.133   8.459  0.9432  1.8830 -1.1427
41381SOL     OW31003   1.686   8.236   6.906  0.0605  0.0516  0.2853
41381SOL    HW131004   1.649   8.241   6.994 -0.2366  2.1006  0.0978
41381SOL    HW231005   1.652   8.154   6.870 -1.6299  0.2721  1.2860
41382SOL     OW31006   0.156   7.394   9.496 -0.3572 -0.1799  0.5635
41382SOL    HW131007   0.140   7.346   9.415  1.4407 -1.6522  1.0184
41382SOL    HW231008   0.148   7.329   9.566 -1.4653  0.9690  1.5633
41383SOL     OW31009   7.845   5.603   1.607  0.9647 -0.3429  0.1155
41383SOL    HW131010   7.879   5.691   1.593  2.7144 -1.0697 -0.3894
41383SOL    HW231011   7.761   5.617   1.651  0.7078  1.6027 -0.8846
41384SOL     OW31012   4.199   1.472   8.426  0.2719 -0.2732 -0.1349
41384SOL    HW131013   4.281   1.521   8.427  0.4181 -0.4693 -1.3638
41384SOL    HW231014   4.204   1.415   8.503  2.2597 -1.8433 -1.3320
41385SOL     OW31015   3.614  11.675  12.453  0.0792  0.0429 -0.1136
41385SOL    HW131016   3.668  11.616  12.506 -1.2210 -1.9102 -0.8583
41385SOL    HW231017   3.524  11.647  12.470 -0.7453  2.7410  0.5435
41386SOL     OW31018  12.222   9.052   6.715  0.2228 -0.0562  0.1632
41386SOL    HW131019  12.292   9.067   6.652  0.4289 -1.4170  0.0507
41386SOL    HW231020  12.262   9.002   6.785 -0.6569 -0.9783  0.0355
41387SOL     OW31021   0.432   7.777   6.510  0.6258  0.3085  0.2844
41387SOL    HW131022   0.525   7.762   6.496  0.7067  1.8107 -1.1534
41387SOL    HW231023   0.390   7.693   6.487  1.5906 -0.2702  0.6136
41388SOL     OW31024  11.861   6.923  11.981  0.2925 -0.4437  0.5504
41388SOL    HW131025  11.865   6.833  11.950  3.2405 -0.3692  0.4362
41388SOL    HW231026  11.939   6.933  12.037  1.2359  2.5390 -1.0328
41389SOL     OW31027   8.645   0.135   4.701 -0.3257  0.4547  0.6467
41389SOL    HW131028   8.676   0.052   4.666  0.3467  1.1187 -0.4167
41389SOL    HW231029   8.724   0.188   4.711 -0.9193  1.6845 -0.7399
41390SOL     OW31030  10.859   2.198   3.899  0.1884  0.4431  0.2398
41390SOL    HW131031  10.889   2.107   3.904  0.3175  0.5468  1.5225
41390SOL    HW231032  10.764   2.190   3.885  0.2865  0.1233 -0.2960
41391SOL     OW31033  10.164   4.804   9.839  0.0291  0.0866  0.4209
41391SOL    HW131034  10.235   4.841   9.785  1.0296 -2.2296  0.0218
41391SOL    HW231035  10.135   4.727   9.790 -3.1232  1.1880  0.3797
41392SOL     OW31036   0.312   8.954   6.085 -0.1200 -0.9317 -0.3097
41392SOL    HW131037   0.335   9.014   6.013  0.5766 -1.7970 -0.8290
41392SOL    HW231038   0.313   8.868   6.045 -1.0014 -1.3112  0.4628
41393SOL     OW31039   7.294   7.544   5.247  0.3319  0.1910 -0.1157
41393SOL    HW131040   7.230   7.615   5.243 -0.0457 -0.1255  0.1747
41393SOL    HW231041   7.280   7.505   5.333  0.6465 -0.1341 -0.2116
41394SOL     OW31042   9.887  11.598   6.111 -0.1771 -0.0460  0.5330
41394SOL    HW131043   9.964  11.637   6.152 -0.3351  1.7957 -0.8048
41394SOL    HW231044   9.920  11.558   6.031 -0.6717  1.4308 -0.4480
41395SOL     OW31045   0.263  12.241  10.871  0.3984 -0.1201 -0.2416
41395SOL    HW131046   0.260  12.148  10.893  1.4775  0.1757  1.3446
41395SOL    HW231047   0.349  12.253  10.831  1.2307  0.5600  1.6398
41396SOL     OW31048  10.441   3.579   0.943 -0.4693 -0.1487 -0.7640
41396SOL    HW131049  10.471   3.669   0.957 -1.7526  0.4395 -1.5903
41396SOL    HW231050  10.510   3.539   0.891 -0.3292  0.6605 -1.2205
41397SOL     OW31051   3.482   0.603   2.125  0.9535 -0.3061 -0.4691
41397SOL    HW131052   3.505   0.648   2.206 -0.0370 -0.6395  0.0062
41397SOL    HW231053   3.395   0.635   2.103  0.8897 -0.8072 -0.9743
41398SOL     OW31054   3.729   8.525  11.275 -0.1285 -0.0914  0.0299
41398SOL    HW131055   3.803   8.547  11.218  0.1138 -1.2415 -0.1243
41398SOL    HW231056   3.697   8.441  11.241 -2.9726  1.4140 -1.3744
41399SOL     OW31057   8.971  10.081   9.232 -0.9361  0.0572 -0.2962
41399SOL    HW131058   9.029  10.141   9.185 -1.7601  0.4078 -0.8885
41399SOL    HW231059   8.882  10.109   9.208 -1.3458 -1.4208 -0.6460
41400SOL     OW31060  11.921   8.983   5.262 -0.0955  0.3693  0.0833
41400SOL    HW131061  11.979   9.051   5.297  0.3032 -0.7133  1.6529
41400SOL    HW231062  11.980   8.912   5.237 -0.6494 -0.2924  0.6139
41401SOL     OW31063  11.422   6.462   7.094  0.0176  0.5085  0.0444
41401SOL    HW131064  11.361   6.432   7.162 -0.1471  1.8554  0.5254
41401SOL    HW231065  11.442   6.552   7.119  2.7917 -0.1057  0.3017
41402SOL     OW31066   4.375   7.870   7.576  0.1137 -0.7958 -0.2570
41402SOL    HW131067   4.444   7.864   7.642  0.9028 -0.9178 -1.0728
41402SOL    HW231068   4.387   7.957   7.537 -0.6798 -0.5127  0.1074
41403SOL     OW31069   3.317   8.009   8.076 -0.3126  0.7548  0.0676
41403SOL    HW131070   3.311   7.967   8.162  3.1879  1.5889  0.9084
41403SOL    HW231071   3.306   8.102   8.094  0.1931  0.9109 -0.4154
41404SOL     OW31072   4.182   9.312   5.694 -0.4414  0.0544 -0.2108
41404SOL    HW131073   4.166   9.227   5.736 -1.8904  0.1658 -0.5165
41404SOL    HW231074   4.102   9.331   5.645  0.8031  0.4182 -2.2212
41405SOL     OW31075   1.995   8.885  11.101 -0.2916 -0.2952  0.1107
41405SOL    HW131076   1.952   8.880  11.186  0.7807  0.8690  0.7498
41405SOL    HW231077   2.082   8.849  11.116  0.1736  0.6349 -0.3009
41406SOL     OW31078   7.712   6.279   0.077 -0.4803 -0.3373 -0.3239
41406SOL    HW131079   7.789   6.250   0.028 -0.3108 -0.4652  0.0163
41406SOL    HW231080   7.742   6.353   0.129 -0.7505  0.0303 -0.6832
41407SOL     OW31081   7.005   5.045   9.085  0.0192  0.1578 -0.0940
41407SOL    HW131082   7.028   5.002   9.168  0.1601  0.9195  0.2662
41407SOL    HW231083   7.027   4.980   9.018  0.4021 -0.2667  0.4313
41408SOL     OW31084   2.207   7.134  11.700 -0.2354 -0.0407 -0.3351
41408SOL    HW131085   2.239   7.046  11.679  0.5326 -0.0076  0.6410
41408SOL    HW231086   2.116   7.121  11.728  1.0950 -1.2743  4.3694
41409SOL     OW31087   7.249   1.172  11.042 -0.4803  0.2919 -0.7448
41409SOL    HW131088   7.170   1.226  11.042 -0.8842 -0.2923 -0.9748
41409SOL    HW231089   7.226   1.094  10.992  0.4445  0.3970 -1.3662
41410SOL     OW31090   0.218  10.474   4.102  0.8809 -0.2010 -0.7379
41410SOL    HW131091   0.161  10.550   4.091  1.7427  0.5062 -0.4222
41410SOL    HW231092   0.171  10.418   4.165  0.8395  0.6875  0.0476
41411SOL     OW31093  11.972   6.668   9.627 -0.6586 -0.3383  0.5488
41411SOL    HW131094  12.016   6.752   9.639 -1.8172  0.3008  0.4388
41411SOL    HW231095  12.043   6.605   9.617  0.2844  0.9560 -1.6890
41412SOL     OW31096   3.381   6.167   1.533 -0.1774 -0.2019 -0.6870
41412SOL    HW131097   3.472   6.190   1.517 -0.5243  0.0781 -2.5710
41412SOL    HW231098   3.371   6.079   1.496 -0.4596 -0.6165  0.3476
41413SOL     OW31099   9.359   6.947   7.637 -0.5611  0.2027  0.1475
41413SOL    HW131100   9.269   6.929   7.663 -0.4738 -0.6063 -0.0835
41413SOL    HW231101   9.407   6.951   7.720 -0.4290 -1.5627  0.2034
41414SOL     OW31102   0.736   2.423  11.411  0.0739  0.6378  0.1833
41414SOL    HW131103   0.789   2.457  11.483 -1.7068 -1.4592  2.6980
41414SOL    HW231104   0.797   2.373  11.357  1.4598  2.2462  0.1977
41415SOL     OW31105   3.414   3.864   8.389 -1.1002  0.2233 -0.0002
41415SOL    HW131106   3.446   3.817   8.467  1.1012  3.0279  0.9748
41415SOL    HW231107   3.321   3.841   8.384 -1.1146 -0.8654  2.8754
41416SOL     OW31108   5.860  12.277   5.513 -0.3730  0.2795  0.0333
41416SOL    HW131109   5.922  12.207   5.491 -1.3880 -1.0082  1.1315
41416SOL    HW231110   5.906  12.358   5.489  0.6740 -0.7482 -1.6764
41417SOL     OW31111   5.081   3.154  10.493 -0.1570  0.1140  0.0316
41417SOL    HW131112   5.115   3.071  10.461 -0.7998 -0.2145  0.1774
41417SOL    HW231113   5.057   3.203  10.415 -2.1604 -0.8697 -0.0315
41418SOL     OW31114  10.927   7.460  11.697 -0.4137  0.6045  0.0739
41418SOL    HW131115  11.015   7.428  11.679 -1.0029 -0.6523 -0.7319
41418SOL    HW231116  10.937   7.555  11.708  1.0084  0.4901 -0.1268
41419SOL     OW31117  10.648  10.701   4.339  0.7906  0.9632  0.1899
41419SOL    HW131118  10.582  10.686   4.407  1.0830  1.4694  0.5975
41419SOL    HW231119  10.698  10.619   4.336  1.7089  1.4211  1.6549
41420SOL     OW31120   4.841   7.242   5.802  0.1526  0.6987 -0.0785
41420SOL    HW131121   4.853   7.337   5.805 -1.4387  1.0731 -2.4303
41420SOL    HW231122   4.750   7.230   5.776 -0.4647 -1.5803  2.6269
41421SOL     OW31123  10.935   1.252   0.518 -0.2571  0.3230  0.4715
41421SOL    HW131124  10.854   1.278   0.560 -0.1785 -0.4462  1.1333
41421SOL    HW231125  10.908   1.194   0.447 -0.3752  1.4198 -0.4068
41422SOL     OW31126   5.241   5.603   7.108 -0.5384  0.0277 -0.5675
41422SOL    HW131127   5.161   5.558   7.134 -0.4970  0.7313  0.9291
41422SOL    HW231128   5.263   5.657   7.184  1.6961 -0.6049 -0.7087
41423SOL     OW31129  11.343   7.984  10.192  0.3299  0.1181  0.0723
41423SOL    HW131130  11.388   7.981  10.108 -0.3879 -2.6651 -0.3120
41423SOL    HW231131  11.256   7.948  10.174 -0.4281  1.0079  1.7193
41424SOL     OW31132   8.297   8.454   4.949 -0.0319 -0.0705 -0.4573
41424SOL    HW131133   8.273   8.526   5.006 -0.7016 -0.0555 -0.7469
41424SOL    HW231134   8.283   8.375   5.001 -2.7289 -0.1994 -1.2332
41425SOL     OW31135  10.095   7.322   0.647  0.2397  0.4962 -0.9732
41425SOL    HW131136  10.149   7.250   0.614  0.3791  1.1443 -2.2398
41425SOL    HW231137  10.154   7.397   0.650  0.0909  0.5749  0.3193
41426SOL     OW31138   7.364  11.022   7.788 -0.2599  0.1365  0.4988
41426SOL    HW131139   7.278  11.042   7.753 -0.4509 -1.3808  0.0129
41426SOL    HW231140   7.426  11.057   7.724 -0.4122  2.5671  1.5653
41427SOL     OW31141   7.881  11.385   3.257  0.1675 -0.1669 -0.2271
41427SOL    HW131142   7.880  11.341   3.341  0.2708  1.5092  0.6970
41427SOL    HW231143   7.789  11.402   3.238  0.2363  1.3078  0.6074
41428SOL     OW31144   5.543   6.941   7.783 -0.7473  0.2130  0.0719
41428SOL    HW131145   5.625   6.990   7.779 -0.9032  0.5502  0.7906
41428SOL    HW231146   5.480   7.003   7.819 -1.1630 -0.2502  0.1529
41429SOL     OW31147   4.283  11.871   7.404 -0.4416  0.0311  0.0016
41429SOL    HW131148   4.290  11.777   7.388 -0.1879  0.4277 -2.5318
41429SOL    HW231149   4.370  11.897   7.435  0.1670 -0.2197 -1.4518
41430SOL     OW31150   0.531   9.423   0.079 -0.3994  0.5859 -0.3361
41430SOL    HW131151   0.524   9.455   0.169  1.9084  1.2827 -0.3428
41430SOL    HW231152   0.468   9.477   0.030 -0.3180  1.5141  0.5509
41431SOL     OW31153  12.104   7.101   7.231  0.2249  0.2728 -0.2623
41431SOL    HW131154  12.154   7.044   7.290 -2.4618 -1.3217  0.6246
41431SOL    HW231155  12.117   7.062   7.144  0.5271 -0.0897 -0.0593
41432SOL     OW31156   3.732   3.730   7.244 -0.2332 -0.2978 -0.0046
41432SOL    HW131157   3.726   3.699   7.154 -0.6947 -0.5798  0.1147
41432SOL    HW231158   3.646   3.770   7.261  0.4563  1.3407 -0.2530
41433SOL     OW31159   3.937   4.562   4.277  0.1578  0.5191  0.8233
41433SOL    HW131160   3.966   4.647   4.311 -1.8405  1.3444  0.6453
41433SOL    HW231161   3.869   4.534   4.339 -1.0807  0.3691 -0.5443
41434SOL     OW31162  12.404   9.394   3.640  0.1493 -0.6192 -0.3779
41434SOL    HW131163  12.405   9.464   3.575 -2.5567 -0.9426 -0.8797
41434SOL    HW231164  12.311   9.383   3.662  0.8264 -1.4215  2.5839
41435SOL     OW31165   0.596   3.864   5.834  0.3135 -0.3389  0.2867
41435SOL    HW131166   0.544   3.831   5.907 -0.5000 -0.8218 -0.4974
41435SOL    HW231167   0.550   3.942   5.805  0.6231 -0.1608  0.2690
41436SOL     OW31168   4.183   2.466   4.285 -0.2443  0.1662  0.0534
41436SOL    HW131169   4.129   2.389   4.272 -2.0167  1.2823  0.5035
41436SOL    HW231170   4.248   2.439   4.350 -0.4209 -1.1221 -0.2809
41437SOL     OW31171   6.440   8.167   5.562  0.2623 -0.3294 -0.0527
41437SOL    HW131172   6.453   8.248   5.611  0.6722  0.2179 -1.0405
41437SOL    HW231173   6.498   8.104   5.604  0.6322  0.1444  0.1521
41438SOL     OW31174   2.744   7.329   9.673 -1.0673 -0.2994  0.0592
41438SOL    HW131175   2.821   7.335   9.730  0.1873 -0.0133 -1.5685
41438SOL    HW231176   2.686   7.267   9.716  0.7655 -1.7117  0.5873
41439SOL     OW31177  10.838   2.957   7.026  0.1002  0.0726  0.2411
41439SOL    HW131178  10.839   2.864   7.000  1.6498  0.1491 -0.0661
41439SOL    HW231179  10.798   3.001   6.951 -1.9008 -0.4681  0.9453
41440SOL     OW31180   2.252   1.426   2.183 -0.4822 -0.6058  0.1716
41440SOL    HW131181   2.250   1.452   2.275  1.1964 -1.0351  0.3685
41440SOL    HW231182   2.185   1.480   2.141 -0.8213  0.0649  1.5227
41441SOL     OW31183   8.183   3.183   8.909 -0.5894 -0.2800 -0.2154
41441SOL    HW131184   8.159   3.126   8.982 -0.6861 -0.5471 -0.4532
41441SOL    HW231185   8.236   3.128   8.852  0.3299  0.2210  0.1455
41442SOL     OW31186   1.966   3.166   0.133  0.4185 -0.1429 -0.4582
41442SOL    HW131187   1.969   3.258   0.109  2.2534 -0.3378 -1.1123
41442SOL    HW231188   2.021   3.122   0.068 -0.0494 -1.6420  0.1081
41443SOL     OW31189   2.369   7.338  11.807  0.7416  0.3414 -0.5535
41443SOL    HW131190   2.322   7.314  11.887  2.0670  0.8060  0.3893
41443SOL    HW231191   2.356   7.264  11.748  0.1202 -0.2026  0.2477
41444SOL     OW31192   5.477  12.430  10.922  0.1593  0.3850 -0.7360
41444SOL    HW131193   5.459  12.340  10.893 -1.7318  1.4671 -3.3205
41444SOL    HW231194   5.505  12.476  10.843  2.2436  1.8750  0.7572
41445SOL     OW31195   0.415   6.741   5.772  0.2389 -0.1836 -0.7316
41445SOL    HW131196   0.434   6.710   5.861  0.9163 -1.1471 -1.2040
41445SOL    HW231197   0.323   6.767   5.775 -0.4630 -2.5312 -0.3809
41446SOL     OW31198   4.728   4.107   3.168  0.2692 -0.3489  0.4224
41446SOL    HW131199   4.813   4.092   3.126 -0.9363 -2.2794 -1.5334
41446SOL    HW231200   4.700   4.192   3.135 -0.8136 -1.9541 -3.2923
41447SOL     OW31201   5.217   1.442   0.985 -0.2780  0.8048 -0.6525
41447SOL    HW131202   5.149   1.410   0.926 -1.1738  2.8707 -0.8350
41447SOL    HW231203   5.221   1.378   1.055 -1.2490 -0.1927 -1.4771
41448SOL     OW31204  12.162  10.980   9.010  0.7221  0.0682 -0.3886
41448SOL    HW131205  12.196  10.895   8.980  0.3881 -0.0846 -0.3455
41448SOL    HW231206  12.234  11.019   9.058  0.2936 -1.0300  1.2525
41449SOL     OW31207   4.144   9.344   4.371  0.6180  0.7578  0.3196
41449SOL    HW131208   4.150   9.251   4.348  0.7579  1.1149 -1.2126
41449SOL    HW231209   4.229   9.364   4.411  0.3104  0.0756  1.3743
41450SOL     OW31210  10.301   6.115   8.004  0.0371  0.2094 -1.0005
41450SOL    HW131211  10.244   6.079   7.936  0.3432 -1.3241 -0.5002
41450SOL    HW231212  10.334   6.038   8.050  0.9283  1.1555  0.0026
41451SOL     OW31213   9.278   3.050  10.519 -0.3522 -0.2233  0.3753
41451SOL    HW131214   9.309   3.119  10.461  0.6765  0.9990  2.2759
41451SOL    HW231215   9.357   3.003  10.545 -0.1496  1.7325  3.7820
41452SOL     OW31216   8.212  11.167   2.590 -0.2953  0.1993 -0.3175
41452SOL    HW131217   8.143  11.140   2.529  1.6766 -1.4892 -1.9697
41452SOL    HW231218   8.271  11.220   2.537  1.3596 -1.1294  0.1172
41453SOL     OW31219  10.886  10.833   0.058  0.0152 -0.3127 -0.2932
41453SOL    HW131220  10.942  10.804  -0.014 -0.4793  0.2852 -0.9394
41453SOL    HW231221  10.797  10.823   0.024 -0.2399 -0.3887  0.3852
41454SOL     OW31222   3.042   4.243  10.878 -0.6968  0.3335 -0.5469
41454SOL    HW131223   3.073   4.167  10.927 -2.3872  0.3542  0.6659
41454SOL    HW231224   3.115   4.305  10.879 -0.5448  0.1874  1.6996
41455SOL     OW31225   3.691   5.303   0.024  0.2686 -0.3058  0.3075
41455SOL    HW131226   3.741   5.382   0.003  2.3075 -0.7988  2.8061
41455SOL    HW231227   3.699   5.247  -0.053  4.8091 -0.8695  0.9469
41456SOL     OW31228  11.252   2.020   5.224 -0.3968 -0.5135 -0.1996
41456SOL    HW131229  11.223   1.929   5.214 -0.7825 -0.3426 -0.6840
41456SOL    HW231230  11.173   2.066   5.252 -0.2884 -0.2591 -0.3196
41457SOL     OW31231  10.012   5.138   7.523 -0.2068 -0.0062  0.1183
41457SOL    HW131232  10.005   5.222   7.570 -0.4479 -0.0982  0.2517
41457SOL    HW231233  10.015   5.072   7.592 -1.6591 -0.2224  0.0152
41458SOL     OW31234   7.288   3.049  10.859 -0.2314 -0.1262  0.7875
41458SOL    HW131235   7.351   3.100  10.809  0.2048 -0.2151  1.2308
41458SOL    HW231236   7.262   3.106  10.931 -0.9780  0.0616  0.3709
41459SOL     OW31237   1.338  11.862   2.202 -0.1253 -0.1225  0.1893
41459SOL    HW131238   1.362  11.940   2.153 -0.8345 -0.5376 -0.8650
41459SOL    HW231239   1.419  11.811   2.209 -0.3193 -0.8525 -2.0844
41460SOL     OW31240   2.973  11.852  11.061 -0.0024  0.3103 -0.0684
41460SOL    HW131241   2.955  11.904  10.983  0.9785  0.0360 -0.4857
41460SOL    HW231242   3.068  11.851  11.069 -0.0179 -0.9025  0.2802
41461SOL     OW31243   2.887   5.789   9.245  0.0673  0.5285 -0.7461
41461SOL    HW131244   2.815   5.822   9.191  0.2481  0.3660 -1.0871
41461SOL    HW231245   2.853   5.709   9.285  1.0292 -1.3217 -3.3121
41462SOL     OW31246  11.352   0.884   4.135  0.1580 -0.2936 -0.3697
41462SOL    HW131247  11.269   0.922   4.164  0.4566 -0.2040  0.4064
41462SOL    HW231248  11.418   0.928   4.189  0.5280 -1.7283  0.4090
41463SOL     OW31249   4.351   8.540  11.623  0.6049  0.1679  0.0804
41463SOL    HW131250   4.442   8.564  11.639  0.7748 -0.6270  0.3257
41463SOL    HW231251   4.329   8.584  11.541  1.4469 -0.2494 -0.3844
41464SOL     OW31252   0.735   8.420   6.210  0.2587  0.1811 -0.0503
41464SOL    HW131253   0.728   8.370   6.128  1.9894 -1.0090  0.4724
41464SOL    HW231254   0.664   8.386   6.265 -0.3881  0.3976 -0.7253
41465SOL     OW31255   8.982   0.697   3.230 -0.2963 -0.4874 -0.4561
41465SOL    HW131256   8.959   0.788   3.208  0.9826  0.2516  1.0940
41465SOL    HW231257   9.065   0.682   3.184 -0.2744 -0.7288 -0.3373
41466SOL     OW31258   4.504   9.567   2.897  0.7013 -0.7552  0.2155
41466SOL    HW131259   4.417   9.560   2.936  0.5072  1.8081  0.4345
41466SOL    HW231260   4.561   9.521   2.958 -0.1646 -0.2346  1.4643
41467SOL     OW31261  10.275   5.786   8.278  0.4910 -0.4563  0.0848
41467SOL    HW131262  10.286   5.766   8.185 -0.2384  0.7747 -0.2966
41467SOL    HW231263  10.201   5.847   8.281  0.9087  0.0363  1.4124
41468SOL     OW31264   1.604   5.529   8.606  0.3242 -0.0816 -0.1511
41468SOL    HW131265   1.645   5.611   8.632  0.0190  0.1664 -0.4364
41468SOL    HW231266   1.613   5.472   8.682  2.9710 -0.7162 -0.8619
41469SOL     OW31267   0.551   7.485  10.693 -0.4813  0.7377 -0.1252
41469SOL    HW131268   0.492   7.412  10.715 -0.5477  0.7060 -0.4057
41469SOL    HW231269   0.621   7.445  10.642  0.8263  0.4348  1.8226
41470SOL     OW31270  12.132   2.456   7.433 -0.4043  0.0173 -0.0279
41470SOL    HW131271  12.095   2.462   7.521 -0.1319  0.2524  0.0715
41470SOL    HW231272  12.197   2.526   7.429 -1.4474  0.9768 -0.9106
41471SOL     OW31273   2.415   4.637   5.276 -0.1592  0.1974  0.3465
41471SOL    HW131274   2.391   4.545   5.283  2.0484 -0.3388  2.0671
41471SOL    HW231275   2.474   4.652   5.349  0.4983  2.6924 -0.5864
41472SOL     OW31276   5.603  11.687   8.889 -0.9073  0.4586 -0.1977
41472SOL    HW131277   5.595  11.754   8.957 -0.2657  0.6283 -0.2892
41472SOL    HW231278   5.697  11.669   8.884 -0.9837  0.2404 -0.8456
41473SOL     OW31279   7.618   4.612  10.647  0.2957 -0.2564  0.4346
41473SOL    HW131280   7.585   4.569  10.726 -2.9821  1.0124 -0.0635
41473SOL    HW231281   7.644   4.700  10.677  3.3841 -1.1736  0.7813
41474SOL     OW31282  12.115  11.950   9.896  0.2249 -0.0568  0.8730
41474SOL    HW131283  12.174  12.025   9.906 -0.8794  0.9367  0.1646
41474SOL    HW231284  12.118  11.907   9.981  2.2601 -0.2735  0.7418
41475SOL     OW31285   7.694  11.383  10.109 -0.2308 -0.0988 -0.4201
41475SOL    HW131286   7.693  11.465  10.159 -0.6192 -0.1491 -0.3369
41475SOL    HW231287   7.772  11.337  10.139 -1.4017 -0.9538  1.5014
41476SOL     OW31288  10.532   2.354  12.409  0.2248 -0.2541  0.0599
41476SOL    HW131289  10.551   2.266  12.442 -2.3834 -1.5857 -1.6918
41476SOL    HW231290  10.457   2.383  12.461 -2.8446 -1.6919 -3.2114
41477SOL     OW31291   5.425   7.480   3.285  0.4457 -0.1529 -0.2990
41477SOL    HW131292   5.380   7.531   3.217  1.1387  1.0188  0.0938
41477SOL    HW231293   5.448   7.398   3.241 -1.8099 -0.7097 -0.5899
41478SOL     OW31294   8.215   3.625   3.817  0.3602 -0.0193  0.1772
41478SOL    HW131295   8.254   3.543   3.787 -1.5053 -0.6255 -0.7786
41478SOL    HW231296   8.227   3.686   3.743  1.0430  0.3414  0.5765
41479SOL     OW31297   4.617  10.541   9.390  0.0300 -0.0833 -0.1185
41479SOL    HW131298   4.576  10.481   9.452  0.0118 -0.0307 -0.0794
41479SOL    HW231299   4.694  10.494   9.357 -0.7581 -0.6896 -1.1527
41480SOL     OW31300   8.043   0.985   5.237  0.3349 -0.2557 -0.0930
41480SOL    HW131301   8.022   0.924   5.309 -0.7255 -0.7098 -0.7501
41480SOL    HW231302   7.988   1.061   5.254 -0.4881 -0.6715 -0.8056
41481SOL     OW31303   1.919   0.354   1.920 -0.6041  0.1190 -0.2281
41481SOL    HW131304   1.959   0.280   1.965  0.3727 -0.8677 -2.5566
41481SOL    HW231305   1.825   0.332   1.918 -0.3222 -1.1340 -0.9533
41482SOL     OW31306   9.781  10.294   4.543  0.5335  0.1825  0.4519
41482SOL    HW131307   9.802  10.372   4.595 -1.3846  2.0140 -1.3135
41482SOL    HW231308   9.688  10.277   4.562 -0.1588  0.7644 -2.0243
41483SOL     OW31309  11.554  10.310  11.909  0.0885 -0.5894  0.3195
41483SOL    HW131310  11.634  10.310  11.857  1.4978  1.4408  2.2896
41483SOL    HW231311  11.578  10.353  11.991 -2.8397 -0.5954  1.3249
41484SOL     OW31312   3.793   5.456  10.856  0.4968  0.2733 -0.7462
41484SOL    HW131313   3.719   5.401  10.882  0.9418 -0.4265 -0.9341
41484SOL    HW231314   3.846   5.465  10.935 -0.1782  1.4392 -0.3951
41485SOL     OW31315   3.923   6.632   6.756  0.1926  0.8460  0.5072
41485SOL    HW131316   3.872   6.644   6.836  0.6982 -0.7405  1.1059
41485SOL    HW231317   3.885   6.555   6.714  0.5869  1.0567 -0.2565
41486SOL     OW31318  12.170  10.567   9.065 -0.0884 -0.1017 -0.5414
41486SOL    HW131319  12.219  10.485   9.077 -0.5494 -0.2709  0.2430
41486SOL    HW231320  12.113  10.572   9.142 -1.9808 -0.3676 -1.8561
41487SOL     OW31321   6.041   4.964   0.445  0.0517 -0.1130 -0.0668
41487SOL    HW131322   5.999   5.001   0.367 -1.1979 -1.0864  0.1092
41487SOL    HW231323   6.099   4.897   0.411 -0.5842 -0.6226 -0.1687
41488SOL     OW31324   0.607   4.934   8.581 -0.4000  0.5451  0.7773
41488SOL    HW131325   0.633   4.847   8.549 -1.3644  0.8210 -0.8876
41488SOL    HW231326   0.686   4.969   8.623  0.2644 -0.7646  0.6793
41489SOL     OW31327  11.880   6.972   7.345 -0.5995  0.1674 -0.1591
41489SOL    HW131328  11.947   6.993   7.279  0.0043 -0.4110  0.2527
41489SOL    HW231329  11.882   7.046   7.406 -0.5654  0.3089 -0.3303
41490SOL     OW31330   0.464  11.061   2.783  0.6715  0.0172 -0.1675
41490SOL    HW131331   0.420  11.077   2.699 -1.1034  0.9560  0.8906
41490SOL    HW231332   0.430  10.977   2.812  3.8270 -2.0485 -1.8641
41491SOL     OW31333   5.781  11.041   8.240 -0.6072 -1.0345 -0.1068
41491SOL    HW131334   5.779  11.129   8.276 -1.7624 -0.8775 -0.5107
41491SOL    HW231335   5.805  11.053   8.148  0.1253 -1.2255  0.0588
41492SOL     OW31336   9.374   6.363   1.227 -0.2699  0.1939 -0.4373
41492SOL    HW131337   9.395   6.272   1.204  1.1535  1.0348 -2.7804
41492SOL    HW231338   9.417   6.377   1.311  0.7153 -0.9048 -0.7271
41493SOL     OW31339   6.446   3.187   3.872  0.3927  0.2417  0.4839
41493SOL    HW131340   6.442   3.282   3.885 -0.9035  0.0899  1.3493
41493SOL    HW231341   6.527   3.173   3.823  1.3192  1.6670  1.5105
41494SOL     OW31342   5.119  11.965   4.727 -0.5677 -0.5801  0.3067
41494SOL    HW131343   5.094  11.937   4.815  0.5171 -1.0617  0.4686
41494SOL    HW231344   5.102  11.889   4.672 -1.6100 -0.1568  0.0150
41495SOL     OW31345   7.376   1.777  10.462 -0.0823  0.3051  0.5915
41495SOL    HW131346   7.295   1.817  10.494 -0.3403  0.8350 -0.6461
41495SOL    HW231347   7.435   1.780  10.537 -1.1749 -0.0129  1.4936
41496SOL     OW31348   7.298   8.357  10.404 -0.4480 -0.0590 -0.9915
41496SOL    HW131349   7.311   8.432  10.462  1.2215 -0.3072 -0.9899
41496SOL    HW231350   7.245   8.296  10.455  2.7224 -1.1970  1.2145
41497SOL     OW31351   9.539   5.888   3.485  0.1937 -0.0116 -1.0001
41497SOL    HW131352   9.451   5.877   3.521  1.0448 -0.7323  0.9958
41497SOL    HW231353   9.582   5.804   3.502  1.3167  0.3785 -1.8171
41498SOL     OW31354   3.416   1.297   1.862  0.3029  0.3867 -0.2366
41498SOL    HW131355   3.475   1.361   1.822 -0.0753  0.2687 -0.9943
41498SOL    HW231356   3.473   1.242   1.916  1.2320 -0.9406 -2.4384
41499SOL     OW31357   2.614   0.320  10.808 -0.1247 -0.2144 -0.1384
41499SOL    HW131358   2.570   0.237  10.789 -0.8359  0.4628 -1.6226
41499SOL    HW231359   2.561   0.360  10.876 -1.6358  0.3988 -1.6141
41500SOL     OW31360   2.230  10.863   7.322  0.0194  0.4014  0.0846
41500SOL    HW131361   2.242  10.887   7.230  1.4033 -0.0447  0.1210
41500SOL    HW231362   2.256  10.941   7.371 -0.1141  0.4317  0.1066
41501SOL     OW31363   1.753   2.917   9.018  1.0171 -0.3525 -0.0417
41501SOL    HW131364   1.824   2.980   9.006  2.8987 -2.6405 -2.1605
41501SOL    HW231365   1.696   2.931   8.943  1.3476 -0.9902 -0.4254
41502SOL     OW31366  12.038   2.768   4.766  0.6459  0.4181  0.4123
41502SOL    HW131367  11.958   2.796   4.721 -0.5440 -1.9298  0.8863
41502SOL    HW231368  12.079   2.707   4.705  0.6449 -0.4183  1.2216
41503SOL     OW31369   7.106   6.389  11.721 -0.2183 -0.1518  0.2069
41503SOL    HW131370   7.148   6.304  11.713 -0.5241 -0.3956  1.0692
41503SOL    HW231371   7.012   6.370  11.721 -0.3085  0.2620 -0.3693
41504SOL     OW31372   6.556  11.783   9.899 -0.3959  0.1334 -0.3707
41504SOL    HW131373   6.608  11.821   9.828 -0.6388  1.4334  0.1196
41504SOL    HW231374   6.605  11.805   9.978  0.2012 -1.8393 -0.1301
41505SOL     OW31375  11.577  10.776   0.218  0.2082  0.5044 -0.2726
41505SOL    HW131376  11.613  10.690   0.195 -2.1233 -1.0973  1.5551
41505SOL    HW231377  11.607  10.791   0.308  1.1822  1.9956 -0.8174
41506SOL     OW31378   0.601   4.238  11.093 -0.0794 -0.1598 -0.1330
41506SOL    HW131379   0.648   4.246  11.010  1.4818  0.1806  0.7487
41506SOL    HW231380   0.565   4.326  11.108 -0.0736 -0.1294 -0.2951
41507SOL     OW31381   6.751   9.388  11.891 -0.3104  0.4881  0.5267
41507SOL    HW131382   6.690   9.445  11.846  2.0518  2.3440 -0.5820
41507SOL    HW231383   6.791   9.335  11.821  1.9231  1.9518  0.5801
41508SOL     OW31384   5.693   9.411   8.334 -0.5135  0.5434  0.3814
41508SOL    HW131385   5.630   9.442   8.269  0.6600  0.6918 -0.7369
41508SOL    HW231386   5.754   9.357   8.284 -1.2443 -1.8124  1.9001
41509SOL     OW31387   6.974   7.573   3.798  0.5259  0.5817  0.5288
41509SOL    HW131388   7.049   7.549   3.744  0.5866 -1.9647  1.6213
41509SOL    HW231389   6.980   7.517   3.875 -2.8779 -0.2665  0.3396
41510SOL     OW31390   4.939   3.052   4.260  0.4966 -0.5534 -0.5554
41510SOL    HW131391   4.937   3.137   4.215  0.5628 -0.2498  0.0082
41510SOL    HW231392   5.005   3.063   4.329  0.8775 -1.2314 -0.8009
41511SOL     OW31393   9.234   5.283   8.979 -0.3379 -0.0882 -0.1364
41511SOL    HW131394   9.141   5.304   8.980 -0.6152 -1.1847 -0.8424
41511SOL    HW231395   9.260   5.294   8.888  0.7110  2.0631  0.3615
41512SOL     OW31396   2.612  10.872   2.425 -0.4323 -0.3248 -0.1378
41512SOL    HW131397   2.629  10.838   2.513  0.3655  1.1473  0.3059
41512SOL    HW231398   2.691  10.919   2.402 -1.1031  0.3345 -1.1637
41513SOL     OW31399   0.311   3.539  11.632 -0.4100  0.2824  0.3279
41513SOL    HW131400   0.380   3.493  11.680 -0.3126 -2.1647 -1.9143
41513SOL    HW231401   0.232   3.523  11.683 -0.0732 -0.9181  0.5053
41514SOL     OW31402   1.535   8.381   5.153 -0.4900 -0.0775  0.1763
41514SOL    HW131403   1.494   8.294   5.149  0.1148 -0.3310 -0.6950
41514SOL    HW231404   1.623   8.367   5.119 -0.0990  0.7208  0.8381
41515SOL     OW31405   2.917   0.227   9.537 -0.0941 -0.1820  0.5403
41515SOL    HW131406   2.944   0.318   9.523 -1.7872  0.2767  0.0313
41515SOL    HW231407   2.996   0.184   9.570  1.4457  0.8956 -1.4786
41516SOL     OW31408   7.211   4.319   4.202  0.0905 -0.6467  0.1294
41516SOL    HW131409   7.116   4.324   4.195  0.0194 -0.1601  1.1840
41516SOL    HW231410   7.239   4.409   4.218  0.6779 -0.8681  0.3853
41517SOL     OW31411   7.662  10.853   6.548  0.2685 -0.8712  0.0191
41517SOL    HW131412   7.588  10.869   6.490  0.7506 -0.9007 -0.6230
41517SOL    HW231413   7.706  10.777   6.510 -0.1640 -1.7543  1.1999
41518SOL     OW31414   8.069   7.660   8.824 -0.4062  0.1855  0.5387
41518SOL    HW131415   8.034   7.578   8.857  0.1001 -0.3249 -0.1656
41518SOL    HW231416   8.115   7.636   8.744 -0.7390  1.2406  0.0140
41519SOL     OW31417  11.626  10.197   1.570  0.2511 -0.4420  1.0259
41519SOL    HW131418  11.573  10.127   1.608  0.9267 -1.9980 -0.7077
41519SOL    HW231419  11.709  10.193   1.618 -0.2137  0.1731  1.9051
41520SOL     OW31420  12.140   3.677   4.968  0.0309  0.2811  0.2761
41520SOL    HW131421  12.196   3.652   5.042  0.7330  1.1605  0.0658
41520SOL    HW231422  12.100   3.595   4.939  0.7634 -0.2813  0.8111
41521SOL     OW31423  11.911   7.556   3.292 -0.4565  0.3830 -0.2280
41521SOL    HW131424  11.950   7.602   3.367 -1.7036  0.4549  0.3972
41521SOL    HW231425  11.817   7.564   3.306 -0.6937 -0.5028 -1.2678
41522SOL     OW31426   7.462   6.851   8.110 -0.2357  0.0152  0.0921
41522SOL    HW131427   7.477   6.762   8.140 -2.4865 -0.0568  1.2295
41522SOL    HW231428   7.422   6.841   8.023  0.5938 -0.0082 -0.2981
41523SOL     OW31429   8.300   9.660  12.066 -0.4904  0.2699 -0.0533
41523SOL    HW131430   8.305   9.580  12.118 -0.1055 -0.0284 -0.5395
41523SOL    HW231431   8.206   9.680  12.061 -0.7051 -0.8784 -1.0135
41524SOL     OW31432   4.566   6.951   6.964 -0.7313 -0.4462  0.0414
41524SOL    HW131433   4.513   6.895   6.906 -0.5023 -1.7309  1.0314
41524SOL    HW231434   4.585   7.028   6.911 -1.5339 -1.0483 -1.1846
41525SOL     OW31435  11.311   1.962   7.849  0.1505  0.1565  0.4027
41525SOL    HW131436  11.310   1.955   7.753  0.7234  0.5565  0.3587
41525SOL    HW231437  11.237   1.909   7.878  0.5358 -0.7358 -0.2143
41526SOL     OW31438   3.127   9.190   3.697 -0.6734  0.4417  0.2325
41526SOL    HW131439   3.160   9.248   3.766  0.7050 -0.6548  0.5283
41526SOL    HW231440   3.121   9.247   3.620  1.0666  0.9309  0.4040
41527SOL     OW31441   7.083   5.860   9.243 -1.2125  0.0575  0.1821
41527SOL    HW131442   7.117   5.857   9.154 -1.7164 -0.6602  0.0063
41527SOL    HW231443   7.152   5.821   9.296 -0.3832  1.6138  0.2967
41528SOL     OW31444   8.897   1.144   7.965 -0.0625 -0.3536 -0.2298
41528SOL    HW131445   8.834   1.106   8.027 -0.1280 -0.3592 -0.2999
41528SOL    HW231446   8.982   1.127   8.005 -0.0430 -1.2829 -0.6430
41529SOL     OW31447   4.607   7.856   2.881 -0.0786  0.1457  0.0660
41529SOL    HW131448   4.593   7.776   2.931 -0.3039  0.8380  1.1210
41529SOL    HW231449   4.535   7.857   2.817 -0.2628 -0.3183  0.2618
41530SOL     OW31450   6.028   3.046   5.529  0.0143  0.0549  0.0825
41530SOL    HW131451   6.058   3.103   5.457  0.1894 -0.0791  0.0497
41530SOL    HW231452   6.108   3.005   5.561  0.0867  0.8929  1.0355
41531SOL     OW31453   5.678  10.482  11.835 -0.1974 -0.2953  0.3693
41531SOL    HW131454   5.592  10.519  11.816 -0.0350 -0.5950 -1.0886
41531SOL    HW231455   5.682  10.478  11.931 -1.7869 -0.2498  0.4670
41532SOL     OW31456   0.681  10.075   9.677  0.8649  0.2301 -0.1680
41532SOL    HW131457   0.591  10.051   9.653  0.8059  1.0247 -0.7964
41532SOL    HW231458   0.705  10.012   9.745  0.2042 -0.6508 -0.7224
41533SOL     OW31459  10.990   0.228   9.775 -0.2026  0.7202 -0.7118
41533SOL    HW131460  11.048   0.303   9.785  0.7552 -0.0017 -0.7392
41533SOL    HW231461  10.922   0.241   9.841  2.6593 -0.8885  2.8878
41534SOL     OW31462   2.931   6.674  11.600 -0.6415  0.1383 -0.0485
41534SOL    HW131463   2.913   6.663  11.506 -2.1569 -3.0476  0.4648
41534SOL    HW231464   2.887   6.599  11.641 -0.8907  1.9609  3.3431
41535SOL     OW31465   0.061   0.914   3.573 -0.0489  0.3703  0.0643
41535SOL    HW131466   0.042   0.842   3.512 -0.9923  3.2191 -3.3514
41535SOL    HW231467  -0.021   0.926   3.621 -0.1062 -0.3522  0.1675
41536SOL     OW31468   9.555   5.529   5.065 -0.2234 -0.2054  0.1445
41536SOL    HW131469   9.517   5.615   5.048  0.8810  0.3007  0.1018
41536SOL    HW231470   9.551   5.484   4.981  0.0579  0.1614 -0.0654
41537SOL     OW31471   6.919   3.015  12.379 -0.0764 -0.4345 -0.4366
41537SOL    HW131472   6.842   3.017  12.435  0.1324 -1.2475 -0.0935
41537SOL    HW231473   6.885   2.992  12.292 -0.3300  0.2061 -0.5074
41538SOL     OW31474   2.603   8.872  10.479 -0.2366  0.3926 -0.0154
41538SOL    HW131475   2.637   8.802  10.424 -1.8314 -1.5464  1.3059
41538SOL    HW231476   2.537   8.915  10.424  1.1720  1.3215 -1.0465
41539SOL     OW31477   3.115   4.380   9.214  0.2381  0.6790  0.0644
41539SOL    HW131478   3.050   4.450   9.204 -0.3425  0.1745  0.2771
41539SOL    HW231479   3.077   4.305   9.169  1.6495  0.9764 -1.7057
41540SOL     OW31480   9.486   9.930   7.354 -0.1922 -0.7055 -0.1778
41540SOL    HW131481   9.398   9.893   7.360 -0.1932 -0.6240  0.3760
41540SOL    HW231482   9.476  10.020   7.384  0.3288 -1.0989  1.2357
41541SOL     OW31483   1.535  10.146  10.833 -0.4125 -0.5463  0.4096
41541SOL    HW131484   1.587  10.117  10.908 -1.0330 -1.0410  0.6576
41541SOL    HW231485   1.546  10.077  10.767 -0.5808 -0.5483  0.3827
41542SOL     OW31486   1.280   7.678   2.681  0.4406 -0.4292 -0.3088
41542SOL    HW131487   1.316   7.726   2.607  1.0280 -0.3153  0.0477
41542SOL    HW231488   1.328   7.595   2.681  1.8184  0.3189  1.0726
41543SOL     OW31489  10.289   0.084  11.207  0.1934 -0.1926  0.1539
41543SOL    HW131490  10.315   0.008  11.154  0.5819 -0.0454  0.1285
41543SOL    HW231491  10.201   0.062  11.239 -0.4069  0.0824 -1.2391
41544SOL     OW31492   8.634   6.736   4.714 -0.6075 -0.0756 -0.4243
41544SOL    HW131493   8.571   6.664   4.711 -0.7926  0.1098 -1.2931
41544SOL    HW231494   8.686   6.727   4.635 -0.4954  0.6234 -0.4438
41545SOL     OW31495   4.321   8.619   0.853  0.3704  0.4414  0.3943
41545SOL    HW131496   4.367   8.694   0.814  0.2899  1.6839  2.5248
41545SOL    HW231497   4.260   8.591   0.785  0.1973  2.4964 -0.3854
41546SOL     OW31498   3.580   7.384  12.017  0.8858 -0.1580 -0.4645
41546SOL    HW131499   3.524   7.334  12.076 -0.2102 -0.3506 -1.6368
41546SOL    HW231500   3.595   7.327  11.942  1.9458  0.2269 -0.5732
41547SOL     OW31501   0.078  10.625  11.192  0.1936  0.3911 -0.2345
41547SOL    HW131502   0.116  10.712  11.185 -0.7617  0.6704 -3.0600
41547SOL    HW231503   0.004  10.625  11.132 -2.3643 -1.1554  2.6062
41548SOL     OW31504   2.380   2.980   0.842 -0.1936  0.0805 -0.5956
41548SOL    HW131505   2.318   2.960   0.771 -0.0653  0.4349 -0.8110
41548SOL    HW231506   2.365   2.911   0.907 -2.3205  1.3201  0.3361
41549SOL     OW31507   2.307  11.083   8.009  0.1728 -0.3183  0.1826
41549SOL    HW131508   2.251  11.132   8.069  0.4933 -0.9069  0.9915
41549SOL    HW231509   2.247  11.027   7.960 -0.4621  2.3026 -2.2798
41550SOL     OW31510   7.811   0.454   5.473 -0.1488 -0.2953  0.6002
41550SOL    HW131511   7.775   0.524   5.526 -1.6450 -0.5894  0.0165
41550SOL    HW231512   7.884   0.495   5.425 -2.1822  1.4380 -1.2142
41551SOL     OW31513   4.651   9.429   3.566 -0.0078 -0.2882 -0.0688
41551SOL    HW131514   4.716   9.477   3.515 -0.6969  0.1217 -0.5777
41551SOL    HW231515   4.702   9.364   3.615  0.8326  0.3523 -0.0742
41552SOL     OW31516   4.778   5.606  12.356  0.5690  0.7388  0.4245
41552SOL    HW131517   4.715   5.674  12.381 -1.8009 -0.8550 -0.7828
41552SOL    HW231518   4.786   5.552  12.434 -2.0992 -0.7943 -0.2339
41553SOL     OW31519   4.152   2.448   3.173  0.4309  0.0019 -0.1880
41553SOL    HW131520   4.176   2.541   3.176 -0.5851  0.3653 -2.0234
41553SOL    HW231521   4.093   2.437   3.248  1.5435  0.5055  0.7932
41554SOL     OW31522   3.417   2.879   4.517  0.0254 -0.3045 -0.5016
41554SOL    HW131523   3.399   2.970   4.538 -0.9986 -0.3421 -1.1496
41554SOL    HW231524   3.511   2.876   4.499 -0.0003  0.7067 -0.8579
41555SOL     OW31525  12.438   8.878   8.872 -0.3414 -0.3897  0.2903
41555SOL    HW131526  12.506   8.914   8.928 -2.5626  1.8356  1.8263
41555SOL    HW231527  12.356   8.901   8.917 -2.2210 -0.0363 -2.9818
41556SOL     OW31528   3.770   8.459   5.929 -0.1174 -0.4102 -0.2093
41556SOL    HW131529   3.727   8.412   6.000 -1.8925  0.6423 -0.5371
41556SOL    HW231530   3.831   8.395   5.892  0.8069 -1.0263  2.1565
41557SOL     OW31531   3.329   8.764   7.093 -0.0548  0.0589  0.4420
41557SOL    HW131532   3.317   8.837   7.033 -0.2764 -0.7121 -0.4763
41557SOL    HW231533   3.282   8.691   7.052  2.8257 -1.4899 -0.3255
41558SOL     OW31534  11.520   9.860  11.752  0.2394 -0.4014  0.4194
41558SOL    HW131535  11.612   9.834  11.760  0.7836  1.0286 -0.7368
41558SOL    HW231536  11.508   9.930  11.815  0.3768  0.4356 -0.4575
41559SOL     OW31537   3.056   5.520   7.916  0.0124 -0.1963 -0.0727
41559SOL    HW131538   3.110   5.468   7.856  0.6876  0.6755 -0.2422
41559SOL    HW231539   2.967   5.505   7.886  0.3796  0.7519 -1.7620
41560SOL     OW31540   0.292   9.350   0.216 -0.5997 -0.1399 -0.0030
41560SOL    HW131541   0.278   9.281   0.151 -1.0400 -0.1612  0.1142
41560SOL    HW231542   0.230   9.331   0.286 -0.2149 -0.0433  0.3706
41561SOL     OW31543   8.053   4.635   2.854 -0.1446 -0.4956 -0.0065
41561SOL    HW131544   8.121   4.600   2.797 -0.7040  0.2975 -1.1972
41561SOL    HW231545   7.975   4.584   2.834  0.1532 -1.6880  1.6612
41562SOL     OW31546   8.217   9.474   1.391  0.6625  0.6255  0.0665
41562SOL    HW131547   8.124   9.465   1.371  0.5174  1.2837  0.4049
41562SOL    HW231548   8.219   9.498   1.484  1.2287 -0.5559  0.3802
41563SOL     OW31549   0.173  12.277   4.308 -0.0869 -0.2491 -0.4399
41563SOL    HW131550   0.110  12.349   4.311 -0.4513 -0.5860  0.2742
41563SOL    HW231551   0.196  12.269   4.216 -0.4857  0.4039 -0.6005
41564SOL     OW31552   6.075   0.169   8.355  0.0573  0.3536 -0.4581
41564SOL    HW131553   6.061   0.237   8.289 -0.7333  0.0634 -0.6037
41564SOL    HW231554   6.154   0.123   8.325  0.2523  0.8223 -0.6799
41565SOL     OW31555   4.788  10.139   0.809  0.4318 -1.0188  0.3256
41565SOL    HW131556   4.735  10.081   0.864 -1.9246  1.4841  0.9427
41565SOL    HW231557   4.830  10.199   0.871  0.2553 -0.0996 -0.4274
41566SOL     OW31558   0.662   3.085   0.477 -0.6692 -0.3210 -0.0491
41566SOL    HW131559   0.671   2.990   0.473  1.0168 -0.1726 -1.7549
41566SOL    HW231560   0.705   3.116   0.396  3.1796  2.1210  2.5725
41567SOL     OW31561   4.933  10.382   1.592  0.0837 -0.2547 -0.2956
41567SOL    HW131562   4.876  10.381   1.515  0.6833  0.9438 -0.7885
41567SOL    HW231563   4.986  10.462   1.581 -0.2900  0.3065  1.7175
41568SOL     OW31564   2.510  10.334   8.182 -0.7765 -0.1491 -0.0010
41568SOL    HW131565   2.422  10.304   8.207 -0.4101 -0.9098  0.4215
41568SOL    HW231566   2.509  10.336   8.087 -1.6484  1.0917  0.0108
41569SOL     OW31567   3.500   9.006   6.900  0.0058  0.2221 -0.3713
41569SOL    HW131568   3.569   8.944   6.875 -0.8708 -0.5628 -0.9435
41569SOL    HW231569   3.534   9.092   6.876  1.2540 -0.0252  0.4391
41570SOL     OW31570   6.594  11.333   1.147  0.0258 -0.1077 -0.2820
41570SOL    HW131571   6.636  11.324   1.232 -0.3395  2.2410  0.2097
41570SOL    HW231572   6.514  11.382   1.165  0.2365  0.9518 -2.0544
41571SOL     OW31573   9.450   5.262   1.878  0.3836 -0.1379 -0.5555
41571SOL    HW131574   9.477   5.280   1.968  0.3057 -0.2408 -0.5114
41571SOL    HW231575   9.356   5.281   1.877 -0.0729 -2.1963 -0.0680
41572SOL     OW31576  11.639  11.363   3.869  0.5934  0.5066  0.1847
41572SOL    HW131577  11.688  11.392   3.791  0.2890 -0.7642 -0.5084
41572SOL    HW231578  11.551  11.397   3.855  0.5161  0.2046 -0.0791
41573SOL     OW31579   0.934   7.761  12.197  0.1346 -0.1363 -0.4624
41573SOL    HW131580   0.900   7.675  12.173 -0.5254  0.4872 -1.8302
41573SOL    HW231581   1.019   7.743  12.237 -1.3241 -1.6848  2.3124
41574SOL     OW31582   1.688  10.929   9.215  0.1999 -0.5346  0.5005
41574SOL    HW131583   1.755  10.876   9.170 -0.5417 -1.1175  0.0586
41574SOL    HW231584   1.626  10.865   9.249 -2.5334 -0.0000 -2.8495
41575SOL     OW31585  12.089   2.885   7.935  0.6176  0.3599  0.0142
41575SOL    HW131586  12.102   2.813   7.997 -1.8239 -0.9664 -0.8671
41575SOL    HW231587  12.006   2.924   7.960  1.4532  2.3386 -0.1116
41576SOL     OW31588   1.832   5.797   1.389 -0.2060 -0.0858  0.2992
41576SOL    HW131589   1.828   5.842   1.474 -2.8976 -0.4880  0.4693
41576SOL    HW231590   1.824   5.868   1.325  0.9890  0.1441  0.3970
41577SOL     OW31591   0.789  11.340   4.951 -0.0420 -0.1895 -0.0032
41577SOL    HW131592   0.784  11.343   5.046 -2.5739 -1.3228 -0.0216
41577SOL    HW231593   0.844  11.415   4.928  1.5074 -0.4879  2.3534
41578SOL     OW31594  12.228   2.913   5.647 -0.0560 -0.5078 -0.3299
41578SOL    HW131595  12.244   2.989   5.590  1.3380 -1.2423 -0.9568
41578SOL    HW231596  12.281   2.843   5.609  0.2047 -1.2717  1.3545
41579SOL     OW31597   3.820  12.068   8.257  0.0358  0.4703 -0.8897
41579SOL    HW131598   3.857  12.105   8.337  1.1711  0.1542 -1.2586
41579SOL    HW231599   3.778  11.987   8.286  2.4955 -0.8983 -0.9288
41580SOL     OW31600   1.430   5.559  12.458  0.9836  0.3053 -0.1702
41580SOL    HW131601   1.484   5.637  12.447  1.9753 -0.2142  0.8469
41580SOL    HW231602   1.423   5.547  12.553  0.2249 -0.4179 -0.3063
41581SOL     OW31603  11.577  10.427   9.095 -0.2555  0.3689 -0.2389
41581SOL    HW131604  11.656  10.440   9.149  0.1712  2.7501 -1.3125
41581SOL    HW231605  11.554  10.515   9.065 -0.8735 -0.7352 -3.3603
41582SOL     OW31606  11.296   4.850   3.776 -0.0908 -0.5057 -0.5059
41582SOL    HW131607  11.294   4.884   3.865 -0.3950  0.3771 -0.8419
41582SOL    HW231608  11.379   4.883   3.740  0.1223 -1.0166 -0.4954
41583SOL     OW31609  11.939   6.735   4.440 -0.3307  0.3312 -0.0009
41583SOL    HW131610  11.924   6.777   4.356 -0.0845  0.9068  0.2403
41583SOL    HW231611  12.021   6.687   4.428  0.2197  1.2018  0.2006
41584SOL     OW31612   3.687   4.381   6.121  0.3552  0.5140  0.2943
41584SOL    HW131613   3.692   4.477   6.117  1.7980  0.4801  0.7693
41584SOL    HW231614   3.614   4.363   6.179 -2.1235  1.2593 -2.3729
41585SOL     OW31615  10.521   9.861   6.203 -0.3710 -0.4849  0.0105
41585SOL    HW131616  10.609   9.857   6.167 -0.7631 -0.3693 -0.9993
41585SOL    HW231617  10.473   9.918   6.142 -1.9591 -3.0000 -1.2563
41586SOL     OW31618   0.246   4.941   9.897 -0.5258 -0.1660 -0.3495
41586SOL    HW131619   0.339   4.961   9.885 -0.0078 -1.9964  0.2751
41586SOL    HW231620   0.231   4.948   9.991 -0.3153 -2.4316 -0.0895
41587SOL     OW31621  11.646   3.983   1.551  0.2703 -0.1426  0.1532
41587SOL    HW131622  11.595   3.949   1.625  0.0549 -1.1631 -0.4529
41587SOL    HW231623  11.702   3.911   1.524 -0.8311 -0.3725 -1.7236
41588SOL     OW31624   8.557   6.445   3.205 -0.3924  0.1534  0.0760
41588SOL    HW131625   8.612   6.413   3.276 -0.5187  0.3542  0.2651
41588SOL    HW231626   8.542   6.537   3.226  1.4356  0.8549 -1.3670
41589SOL     OW31627   0.429   1.967   1.373 -0.1159 -0.2207  0.6835
41589SOL    HW131628   0.344   2.012   1.371 -0.0152 -0.0043 -1.6454
41589SOL    HW231629   0.478   2.011   1.442 -0.9779  1.4211  0.3056
41590SOL     OW31630   7.648   1.040   0.483 -0.2829 -0.9080  0.1073
41590SOL    HW131631   7.558   1.008   0.473 -0.3225 -0.6688 -0.3057
41590SOL    HW231632   7.701   0.980   0.429 -0.5709  0.7428 -2.1397
41591SOL     OW31633  10.837   3.418   6.814 -0.1844 -0.5304  0.2792
41591SOL    HW131634  10.767   3.483   6.824  0.1005 -0.4880  2.3605
41591SOL    HW231635  10.802   3.356   6.750 -2.9358 -1.4491  2.4368
41592SOL     OW31636   4.835   1.285   8.561 -0.2000  0.5572 -0.3336
41592SOL    HW131637   4.866   1.238   8.484 -2.4566 -0.5584 -0.6353
41592SOL    HW231638   4.771   1.347   8.527  0.6985  1.9509  0.3949
41593SOL     OW31639   0.380   6.988   1.577 -0.2801  0.6075  0.1113
41593SOL    HW131640   0.400   7.037   1.497  1.3060 -0.2616 -0.0603
41593SOL    HW231641   0.305   7.035   1.615 -0.1442  1.9053 -1.1135
41594SOL     OW31642   4.141   4.743   6.835 -0.1961  0.0739  0.3664
41594SOL    HW131643   4.107   4.829   6.859 -1.6534 -0.4316  0.2161
41594SOL    HW231644   4.235   4.749   6.851 -0.3145  1.5965  0.6255
41595SOL     OW31645   5.351   6.099  11.357 -0.2025 -0.1638  0.0390
41595SOL    HW131646   5.383   6.011  11.339  2.3415  0.3129  1.7934
41595SOL    HW231647   5.275   6.109  11.298 -0.7693 -3.5673 -0.0071
41596SOL     OW31648   8.523   5.399   2.991  0.2980 -0.7925 -0.3545
41596SOL    HW131649   8.556   5.487   3.009  3.1689 -1.8544  0.1523
41596SOL    HW231650   8.488   5.369   3.075  0.0548 -0.4544 -0.3318
41597SOL     OW31651  10.977  10.073   9.278  0.0516  0.4944 -0.3649
41597SOL    HW131652  10.916  10.079   9.351 -0.8517  0.0238 -1.0610
41597SOL    HW231653  10.965  10.156   9.231  0.2405  0.5688 -0.2841
41598SOL     OW31654   8.023   6.459   6.926  0.5925  0.1066 -0.5125
41598SOL    HW131655   8.045   6.366   6.923  0.1194  0.0133 -1.6061
41598SOL    HW231656   8.094   6.502   6.878 -0.6207 -0.0257 -2.5748
41599SOL     OW31657   3.757   6.299   7.678 -0.4838 -0.4044  0.2131
41599SOL    HW131658   3.799   6.266   7.598 -2.0186 -1.2586 -0.2739
41599SOL    HW231659   3.791   6.242   7.747  0.4803  0.0312  0.1173
41600SOL     OW31660   7.826   7.504  10.256 -0.1241  0.1527 -0.2027
41600SOL    HW131661   7.918   7.499  10.229 -0.4591  0.5304 -1.4708
41600SOL    HW231662   7.796   7.413  10.256 -0.1760  0.1592 -1.3769
41601SOL     OW31663   6.387   0.112   8.563  0.3820  0.3383  0.9636
41601SOL    HW131664   6.292   0.105   8.575 -0.1646  1.4951 -1.9592
41601SOL    HW231665   6.416   0.167   8.636 -1.5983  2.0202  0.5839
41602SOL     OW31666   5.620   8.644   3.118  0.1670 -0.8784 -0.4974
41602SOL    HW131667   5.648   8.559   3.085 -2.2503 -1.4763 -1.1865
41602SOL    HW231668   5.527   8.649   3.097  0.0697  1.6398  0.1966
41603SOL     OW31669   0.581   7.350   9.709 -0.3006 -0.6752 -0.2205
41603SOL    HW131670   0.633   7.331   9.787  0.3634 -3.0994 -1.1713
41603SOL    HW231671   0.508   7.403   9.742  0.6542 -0.4927  1.7954
41604SOL     OW31672   5.510   3.970  11.753  0.3956  0.3436 -0.0664
41604SOL    HW131673   5.589   3.960  11.699  1.1752  0.3553  1.0486
41604SOL    HW231674   5.446   4.011  11.694  1.0097 -0.2179 -1.1664
41605SOL     OW31675   8.508   8.177   9.137  0.0882  0.5378 -0.9577
41605SOL    HW131676   8.586   8.146   9.090  0.8218  0.6503  0.1339
41605SOL    HW231677   8.437   8.121   9.107  0.5861  0.4314 -1.9805
41606SOL     OW31678  10.586   4.606   8.742 -0.4699  0.3891  0.4417
41606SOL    HW131679  10.513   4.553   8.709  0.2891 -1.2099  1.1743
41606SOL    HW231680  10.657   4.590   8.679 -0.0532  0.0171  0.9873
41607SOL     OW31681  10.853   9.389   3.627  0.3818 -0.0654 -0.1678
41607SOL    HW131682  10.861   9.362   3.718  2.3196  1.9364  0.3366
41607SOL    HW231683  10.763   9.368   3.603 -0.3507 -0.0664  2.3857
41608SOL     OW31684   9.914   9.154   1.254 -0.6915  0.1755  0.0135
41608SOL    HW131685   9.963   9.152   1.172 -0.0893  0.0549  0.3700
41608SOL    HW231686   9.918   9.246   1.282 -0.7654  0.1876 -0.0166
41609SOL     OW31687   0.924   2.704   9.647  0.5410  0.3891  0.3882
41609SOL    HW131688   0.879   2.769   9.701  0.4052  2.4364 -2.0063
41609SOL    HW231689   0.870   2.626   9.653  1.0285  0.1927  3.8586
41610SOL     OW31690  10.631   2.805   2.838 -0.4886 -0.2134 -0.2462
41610SOL    HW131691  10.673   2.738   2.785  2.3008  0.7146  0.6300
41610SOL    HW231692  10.678   2.886   2.818 -1.5901  0.8294  1.1229
41611SOL     OW31693  11.232  11.912   9.272 -0.2241  0.2530 -0.4934
41611SOL    HW131694  11.151  11.929   9.224 -0.9289 -0.7990  0.2720
41611SOL    HW231695  11.256  11.996   9.311  1.4883  1.6984 -4.2275
41612SOL     OW31696   7.343  11.614   5.928 -0.2022 -0.0444 -0.0516
41612SOL    HW131697   7.309  11.612   5.839 -0.5777 -0.6031  0.1025
41612SOL    HW231698   7.432  11.579   5.921  0.1700  0.9211 -0.3679
41613SOL     OW31699   8.154   6.823   5.731 -0.0790 -0.2733 -0.0529
41613SOL    HW131700   8.149   6.740   5.685 -0.8801  0.1454 -0.7409
41613SOL    HW231701   8.072   6.829   5.780  0.6204 -0.5715  1.2294
41614SOL     OW31702  11.192   4.075   5.417 -0.5927 -0.0014 -0.5629
41614SOL    HW131703  11.262   4.064   5.353  1.0153  1.3265  0.8701
41614SOL    HW231704  11.210   4.010   5.484 -0.4690  0.6302  0.0255
41615SOL     OW31705   4.010   9.845   5.533 -0.5009  0.6148 -0.2442
41615SOL    HW131706   4.051   9.852   5.446 -0.7053 -0.9684 -0.4882
41615SOL    HW231707   3.917   9.856   5.516 -0.4555  1.3107 -0.0762
41616SOL     OW31708   4.879   9.669   4.236 -0.0290 -0.2066  0.1415
41616SOL    HW131709   4.943   9.633   4.175  1.6057  3.4270 -0.5633
41616SOL    HW231710   4.827   9.730   4.183 -1.2795  0.0542  1.5915
41617SOL     OW31711   3.599  10.542  12.398  0.8248  0.3068 -0.2931
41617SOL    HW131712   3.638  10.514  12.315 -1.3205 -0.0906 -1.2218
41617SOL    HW231713   3.646  10.493  12.465  2.0023 -0.0230 -1.3323
41618SOL     OW31714   2.250   7.015  10.107  0.5270 -0.3190 -0.5696
41618SOL    HW131715   2.251   7.105  10.141 -1.8339 -0.4219 -0.0373
41618SOL    HW231716   2.167   6.979  10.138  0.7659 -2.2224 -1.9719
41619SOL     OW31717   7.296   3.757   5.651  0.5358 -0.5726 -0.4049
41619SOL    HW131718   7.378   3.725   5.689 -0.1587 -0.8446  0.9309
41619SOL    HW231719   7.295   3.851   5.669  0.5750 -0.5611 -0.4632
41620SOL     OW31720   7.057  11.053   3.178 -0.0190 -0.1221 -0.1202
41620SOL    HW131721   7.006  11.002   3.116  0.4596 -0.9734  0.1742
41620SOL    HW231722   7.049  11.006   3.261  2.0912 -0.8932 -0.2899
41621SOL     OW31723   8.869   1.997   5.933 -0.3118 -0.6551 -0.1235
41621SOL    HW131724   8.817   1.945   5.872 -0.6343  0.3177 -0.7139
41621SOL    HW231725   8.951   1.949   5.943  0.1827 -0.3182 -2.1596
41622SOL     OW31726   8.277   6.253   9.453  0.0630 -0.1280  0.2442
41622SOL    HW131727   8.358   6.241   9.502  0.2046  0.3575  0.1418
41622SOL    HW231728   8.239   6.333   9.490 -0.3957 -0.3804  0.3241
41623SOL     OW31729   7.168   8.668  10.069 -0.1482 -0.8105 -0.0157
41623SOL    HW131730   7.131   8.657  10.156  1.2144 -0.2082  0.6807
41623SOL    HW231731   7.140   8.590  10.021  0.4741 -2.0472  1.4962
41624SOL     OW31732   4.194   9.195   1.542  0.1704 -0.3293 -0.1818
41624SOL    HW131733   4.281   9.198   1.582  0.0284  1.8414  0.0995
41624SOL    HW231734   4.211   9.208   1.448  0.1197  2.0153  0.0637
41625SOL     OW31735   4.665   5.165   6.908 -1.0556 -0.3389  0.1792
41625SOL    HW131736   4.706   5.079   6.898  0.1902  0.0623  1.4734
41625SOL    HW231737   4.728   5.226   6.870 -0.7204  0.2368  1.6174
41626SOL     OW31738   8.920   3.067   8.106  0.2626 -0.1073  0.0417
41626SOL    HW131739   9.011   3.085   8.082  0.4729 -1.9242 -0.6769
41626SOL    HW231740   8.927   3.024   8.192  0.3058 -2.1771 -0.9434
41627SOL     OW31741   2.128   9.425   9.861  0.2973 -0.1352 -0.1352
41627SOL    HW131742   2.059   9.361   9.879  0.2947 -0.3061 -0.7137
41627SOL    HW231743   2.180   9.427   9.941 -1.9423  2.0362  1.4261
41628SOL     OW31744   9.703   6.705   9.148 -0.4990 -0.2275  0.3821
41628SOL    HW131745   9.701   6.763   9.072 -0.9832 -0.4765  0.2057
41628SOL    HW231746   9.786   6.727   9.192 -0.2930  0.0266 -0.1248
41629SOL     OW31747   7.440  11.666   3.204 -0.0888  0.3266 -0.5603
41629SOL    HW131748   7.444  11.748   3.154  2.1001  0.7341  0.1411
41629SOL    HW231749   7.497  11.682   3.280  0.3518 -1.8228 -0.3801
41630SOL     OW31750   3.282   6.139  12.309 -0.0409 -0.0160  0.0716
41630SOL    HW131751   3.199   6.108  12.345 -0.1316  1.1064  0.8743
41630SOL    HW231752   3.322   6.189  12.380  1.4272 -0.6934 -0.2350
41631SOL     OW31753   0.912   9.368   1.994 -0.0292 -0.2880  0.1043
41631SOL    HW131754   0.836   9.358   2.050 -0.9086 -0.7243 -1.1399
41631SOL    HW231755   0.968   9.431   2.040 -0.5543 -0.9018  1.6200
41632SOL     OW31756   4.251  12.182   4.107  0.0195  0.2046 -0.3758
41632SOL    HW131757   4.323  12.153   4.163 -0.1050  0.2385 -0.1989
41632SOL    HW231758   4.175  12.134   4.138 -0.1298  0.5056 -0.2670
41633SOL     OW31759   3.163   6.041   4.490  0.1776  0.4064 -0.5406
41633SOL    HW131760   3.143   6.078   4.576 -0.0262 -0.1265 -0.3571
41633SOL    HW231761   3.078   6.012   4.456  0.2070  0.9317 -1.0705
41634SOL     OW31762   5.833   4.325  10.383 -0.1162  0.3647  0.6708
41634SOL    HW131763   5.832   4.361  10.295  1.7526  0.9417  0.8278
41634SOL    HW231764   5.873   4.239  10.373  0.5477  0.6248  0.9902
41635SOL     OW31765  11.080   6.548   7.090 -0.3196 -0.2548 -0.0853
41635SOL    HW131766  11.078   6.585   7.003 -1.1613 -0.3115 -0.0999
41635SOL    HW231767  11.129   6.611   7.143  1.5038 -0.9369 -0.9104
41636SOL     OW31768  11.191   8.386  11.849 -0.1580  0.0181 -0.7691
41636SOL    HW131769  11.173   8.392  11.943  1.7859 -0.1107 -0.3468
41636SOL    HW231770  11.187   8.477  11.818 -0.5779  0.0848 -0.5256
41637SOL     OW31771   9.502   9.097   1.613 -0.0795 -0.1504  0.0111
41637SOL    HW131772   9.425   9.080   1.560  1.4580 -2.4971 -1.6187
41637SOL    HW231773   9.497   9.034   1.685  0.0791  0.0244  0.1790
41638SOL     OW31774   3.617   5.019   8.157  0.2206  0.2888 -0.2619
41638SOL    HW131775   3.587   5.060   8.076  0.8522  0.1320 -0.5819
41638SOL    HW231776   3.544   4.963   8.185 -0.2768  0.8938 -0.3302
41639SOL     OW31777   4.748   5.466   3.230 -0.2764 -0.1878 -0.4034
41639SOL    HW131778   4.798   5.388   3.253  1.3547  1.3826  1.7903
41639SOL    HW231779   4.806   5.514   3.170 -0.3184  0.3758  0.0064
41640SOL     OW31780   0.843   1.676   9.126  0.3682  0.3540 -0.2621
41640SOL    HW131781   0.821   1.594   9.081 -1.0103  0.7244 -0.3139
41640SOL    HW231782   0.800   1.744   9.074  0.0470  0.9336  0.7286
41641SOL     OW31783  11.082   9.635   7.009  0.5359 -0.3127  0.5016
41641SOL    HW131784  11.098   9.634   7.104  0.4497 -1.3764  0.5130
41641SOL    HW231785  11.161   9.599   6.971 -0.8087 -3.4835  0.4253
41642SOL     OW31786   9.166   5.713   5.356  0.1336  0.1923  0.1769
41642SOL    HW131787   9.234   5.779   5.342  1.1616 -0.3776  2.1593
41642SOL    HW231788   9.160   5.667   5.272  1.7182  0.7127 -0.2577
41643SOL     OW31789  10.087   5.407   6.396  0.3613  0.4627  0.2847
41643SOL    HW131790  10.171   5.406   6.349  0.2888 -1.2361  0.1281
41643SOL    HW231791  10.024   5.442   6.333  0.5627 -0.3013 -0.3503
41644SOL     OW31792  11.710   6.061  10.687 -0.4429  0.3589 -0.1537
41644SOL    HW131793  11.625   6.097  10.661  0.3053  1.8410 -0.6694
41644SOL    HW231794  11.759   6.054  10.605  0.8853  2.1960  0.3986
41645SOL     OW31795   4.046   9.779   6.990  0.3228  0.5609 -0.0737
41645SOL    HW131796   3.978   9.805   7.053  0.8992  1.2196  0.2899
41645SOL    HW231797   4.117   9.841   7.005  0.6497  0.4417 -1.0726
41646SOL     OW31798   4.811   5.957   0.336 -0.1613  0.2478 -0.0043
41646SOL    HW131799   4.853   5.948   0.251 -0.4078 -2.7582  0.0892
41646SOL    HW231800   4.717   5.949   0.318 -0.2305 -0.1494  0.5126
41647SOL     OW31801   7.393   3.671   3.426  0.1983 -0.0763 -0.4399
41647SOL    HW131802   7.348   3.709   3.502  1.0295  1.9893 -0.8948
41647SOL    HW231803   7.325   3.664   3.359 -0.4262 -1.4302  0.2878
41648SOL     OW31804  10.541   9.599   6.911  0.1798  0.4595  0.3264
41648SOL    HW131805  10.505   9.618   6.998 -2.0697 -3.0781  0.3352
41648SOL    HW231806  10.635   9.588   6.926 -0.2505 -0.6933  2.4612
41649SOL     OW31807  11.218   6.188   3.522  0.1324  0.0460 -0.0472
41649SOL    HW131808  11.192   6.157   3.435 -0.1417  0.8173 -0.2525
41649SOL    HW231809  11.163   6.140   3.583  0.1306 -0.2961 -0.3171
41650SOL     OW31810   7.574   0.181   3.707  0.2609  0.3469  0.4373
41650SOL    HW131811   7.594   0.160   3.799 -0.7009 -1.9878  0.1892
41650SOL    HW231812   7.510   0.114   3.681 -0.3805  1.6705 -1.6105
41651SOL     OW31813  12.364   4.937   5.227 -0.0505 -0.1743  0.1062
41651SOL    HW131814  12.360   4.907   5.317 -2.4796  1.0388  0.5089
41651SOL    HW231815  12.288   4.897   5.185 -0.3877  1.2158 -0.6969
41652SOL     OW31816   9.200   9.383   1.237 -0.0260  0.7904 -1.2949
41652SOL    HW131817   9.112   9.346   1.243 -0.4025  1.4540 -2.4083
41652SOL    HW231818   9.235   9.377   1.326 -0.2380 -1.7833 -1.3049
41653SOL     OW31819  11.829   2.212   7.123 -0.5317 -0.2508 -0.2808
41653SOL    HW131820  11.891   2.186   7.055  0.1329 -0.8202  0.5359
41653SOL    HW231821  11.875   2.197   7.205 -0.9756  1.2951  0.2972
41654SOL     OW31822   7.916   5.797   9.134  0.0613 -0.6557 -0.3566
41654SOL    HW131823   7.858   5.855   9.184  0.9633 -0.2962  0.2901
41654SOL    HW231824   7.973   5.758   9.201  0.7001 -0.8559 -1.0165
41655SOL     OW31825   9.621   2.906   6.316  0.3527 -0.3147  0.1319
41655SOL    HW131826   9.594   2.963   6.243  1.4233 -0.1139 -0.1315
41655SOL    HW231827   9.632   2.966   6.389  0.4383 -0.3451  0.1431
41656SOL     OW31828  10.274   8.878   3.923 -0.3991 -0.4138 -0.4489
41656SOL    HW131829  10.290   8.860   4.015 -0.5652 -0.3919 -0.4153
41656SOL    HW231830  10.218   8.806   3.893  1.1562 -1.4439 -1.0039
41657SOL     OW31831   8.005   6.106   1.181  0.0305 -0.5942  0.3493
41657SOL    HW131832   7.921   6.110   1.226  0.5791  1.7867  1.2953
41657SOL    HW231833   7.998   6.029   1.124 -1.6396 -2.2185  2.5884
41658SOL     OW31834   0.702   9.764  10.294  0.7321 -0.1024  0.3657
41658SOL    HW131835   0.659   9.680  10.306  0.2761  0.0386 -0.2479
41658SOL    HW231836   0.656   9.824  10.352 -2.4794  0.9398 -2.8547
41659SOL     OW31837   2.420   4.729   9.074 -0.0193  0.0566  0.3908
41659SOL    HW131838   2.439   4.637   9.056 -2.2245 -0.3585 -0.0974
41659SOL    HW231839   2.327   4.731   9.094 -0.2774  2.3405 -0.7092
41660SOL     OW31840   3.590   4.725   9.580  0.2018  0.2874 -0.3683
41660SOL    HW131841   3.520   4.772   9.535  0.6193  2.3063  0.9736
41660SOL    HW231842   3.545   4.659   9.632 -0.6095  0.7935 -0.4125
41661SOL     OW31843   4.476   9.053   8.026  0.7692 -0.1432 -0.4869
41661SOL    HW131844   4.498   9.106   8.102 -0.1710 -0.7889  0.2748
41661SOL    HW231845   4.384   9.073   8.009  0.1690 -1.9783  0.2674
41662SOL     OW31846   9.005  11.163   6.133  0.4749  0.4152 -0.3641
41662SOL    HW131847   8.996  11.069   6.150  3.5244  0.2140  0.7559
41662SOL    HW231848   8.970  11.205   6.212  0.6750  0.1331 -0.1218
41663SOL     OW31849   6.145  12.180  12.467  0.2861  0.2872 -0.4198
41663SOL    HW131850   6.082  12.117  12.431  0.6908  0.5010 -1.5439
41663SOL    HW231851   6.230  12.151  12.433  0.6327  0.7263  0.0630
41664SOL     OW31852   0.720   7.777   3.444 -0.1038 -0.4409 -0.0930
41664SOL    HW131853   0.809   7.746   3.462  0.4280  0.7036 -0.6082
41664SOL    HW231854   0.730   7.830   3.364 -0.9610  0.9375  0.6762
41665SOL     OW31855  11.724   4.977  11.573  0.0750  0.0684  0.2651
41665SOL    HW131856  11.785   4.984  11.646 -0.6719  0.7671  0.8357
41665SOL    HW231857  11.658   4.915  11.603 -1.6210  2.2194  1.2354
41666SOL     OW31858   0.859   7.955  10.244 -0.5227  0.3064 -0.3784
41666SOL    HW131859   0.904   7.884  10.200  0.0752 -0.2092  1.0118
41666SOL    HW231860   0.881   8.033  10.194  0.4999 -0.1943 -0.7252
41667SOL     OW31861   6.612   6.888   0.069 -0.9616 -0.3206 -0.2353
41667SOL    HW131862   6.538   6.933   0.030 -2.6271 -2.2445  0.4908
41667SOL    HW231863   6.586   6.873   0.160  0.5676 -0.5432  0.1978
41668SOL     OW31864   2.760   2.804   0.346  0.6330 -0.0926  0.3643
41668SOL    HW131865   2.814   2.858   0.403 -0.1250  0.7545  0.2990
41668SOL    HW231866   2.779   2.714   0.373  1.1860  0.2437  1.1241
41669SOL     OW31867   7.300   7.185  11.044  0.1823  0.6387 -0.4874
41669SOL    HW131868   7.361   7.238  11.096  1.6083  0.6765 -2.1239
41669SOL    HW231869   7.249   7.249  10.995  0.2301  0.5570 -0.6434
41670SOL     OW31870   3.440   7.407   3.119  0.3138 -0.0729  0.0875
41670SOL    HW131871   3.433   7.339   3.052 -2.9195 -0.5032  0.7138
41670SOL    HW231872   3.395   7.483   3.080  1.1809  0.7195  0.5941
41671SOL     OW31873  11.106   4.683   0.717 -0.1035  0.1052 -0.0413
41671SOL    HW131874  11.070   4.760   0.672 -1.0340  0.7391  1.6718
41671SOL    HW231875  11.196   4.707   0.738 -0.5957  1.0413  1.0911
41672SOL     OW31876   7.803   9.243   3.167 -0.1983 -0.0180  0.1923
41672SOL    HW131877   7.834   9.332   3.185  0.1659 -0.0959 -0.0285
41672SOL    HW231878   7.883   9.192   3.158 -0.3952 -0.2140 -0.4538
41673SOL     OW31879  10.912   0.771   4.887  0.8045 -0.2639 -0.1296
41673SOL    HW131880  10.915   0.694   4.944  1.6180  0.1067  0.3582
41673SOL    HW231881  10.880   0.738   4.803 -1.1506 -0.6949  0.7258
41674SOL     OW31882   4.711   7.044  11.488  0.0016  0.1461 -0.3824
41674SOL    HW131883   4.636   6.988  11.507  1.0914 -0.5578  2.3514
41674SOL    HW231884   4.770   6.988  11.437 -0.4426  0.0299 -0.7774
41675SOL     OW31885  10.027   3.918   1.960  0.1170 -0.2854  0.3288
41675SOL    HW131886  10.050   3.951   2.047 -0.6188  1.5996 -0.1459
41675SOL    HW231887  10.110   3.916   1.913 -0.0500  3.5639 -0.4325
41676SOL     OW31888   7.459   1.280   1.809  0.7300  0.2161  0.0084
41676SOL    HW131889   7.433   1.233   1.888  0.3895 -0.6776 -0.6155
41676SOL    HW231890   7.415   1.233   1.738  0.5119  1.3889 -0.6599
41677SOL     OW31891  11.683   1.814   7.804 -0.3587 -0.6241 -0.2472
41677SOL    HW131892  11.641   1.755   7.868  0.0946 -1.9285 -1.0998
41677SOL    HW231893  11.623   1.814   7.730 -0.2047 -0.2321 -0.3736
41678SOL     OW31894   5.674  11.604   1.883  0.0322  0.0137  0.7732
41678SOL    HW131895   5.706  11.570   1.966 -0.4301  0.3407  1.0896
41678SOL    HW231896   5.725  11.683   1.867  0.3879 -0.2552  0.5489
41679SOL     OW31897   4.405  10.295   4.800 -0.3938 -0.1098 -0.2112
41679SOL    HW131898   4.394  10.201   4.816  2.6465 -0.6107 -0.4646
41679SOL    HW231899   4.416  10.303   4.705  1.2009  0.2138 -0.0257
41680SOL     OW31900   6.762  12.381   5.806 -0.1145 -0.3315 -0.1425
41680SOL    HW131901   6.697  12.450   5.791 -0.6961 -0.5962  1.0977
41680SOL    HW231902   6.844  12.428   5.821 -0.1270  0.0174 -1.0671
41681SOL     OW31903   4.208   2.709   6.694  0.5841 -0.8335  0.0415
41681SOL    HW131904   4.222   2.707   6.599  0.1430 -2.3441 -0.0144
41681SOL    HW231905   4.203   2.617   6.719 -1.5120 -0.4661  1.1979
41682SOL     OW31906   4.061  10.607   2.401  0.4637 -0.0466 -0.4810
41682SOL    HW131907   3.979  10.643   2.434 -0.1394  1.8392 -3.6176
41682SOL    HW231908   4.039  10.570   2.316  2.4887 -1.5545 -0.4379
41683SOL     OW31909   2.987   2.451   2.813 -0.2466 -0.4431 -0.5726
41683SOL    HW131910   2.941   2.401   2.746 -2.2416  1.4815 -0.7678
41683SOL    HW231911   3.031   2.521   2.765  1.1884 -1.0311 -0.1625
41684SOL     OW31912   6.825   2.302  11.577 -0.3933  0.0702 -0.5063
41684SOL    HW131913   6.888   2.317  11.506  1.3120  0.6143  1.0580
41684SOL    HW231914   6.785   2.218  11.556  0.9823 -0.3732 -1.4795
41685SOL     OW31915   7.009   6.353   8.196 -0.2756  0.5295 -0.1271
41685SOL    HW131916   6.917   6.381   8.199 -0.4024  0.0939  0.2890
41685SOL    HW231917   7.023   6.326   8.106  0.1601  2.9194 -0.8395
41686SOL     OW31918   6.111   3.878  11.955  0.2525 -0.5660  0.3154
41686SOL    HW131919   6.133   3.848  12.043  0.1828 -0.4121  0.3866
41686SOL    HW231920   6.138   3.807  11.897  0.8232 -0.4333  0.4143
41687SOL     OW31921   8.799  10.285   3.049  0.0303  0.5089 -0.0099
41687SOL    HW131922   8.876  10.240   3.014  0.6173  1.1143  0.4923
41687SOL    HW231923   8.748  10.215   3.090  0.4073  0.1337 -0.1693
41688SOL     OW31924   9.919   3.405   8.837  0.8093 -0.5578  0.2307
41688SOL    HW131925   9.871   3.363   8.908 -0.6598 -0.3032 -0.5657
41688SOL    HW231926   9.956   3.484   8.876 -2.0407  0.9254  0.2398
41689SOL     OW31927   9.658   8.977  12.444 -0.2591 -0.2969  0.3272
41689SOL    HW131928   9.665   9.030  12.364 -1.3357 -2.6179 -1.4378
41689SOL    HW231929   9.621   9.036  12.509 -0.0840  1.4839 -1.1010
41690SOL     OW31930   8.074   9.997   0.146  0.0679  0.2560 -0.2084
41690SOL    HW131931   8.002   9.980   0.086 -0.1021 -0.9599  0.3074
41690SOL    HW231932   8.150  10.012   0.089 -0.9471  3.9245 -0.8683
41691SOL     OW31933   7.839   7.664   2.562  0.2964  0.0451  0.5990
41691SOL    HW131934   7.930   7.656   2.535  0.0569  1.0936 -0.6166
41691SOL    HW231935   7.795   7.707   2.489 -1.3052 -0.9194  0.9288
41692SOL     OW31936   2.566  11.549  10.586 -0.6155  0.1267 -0.1082
41692SOL    HW131937   2.572  11.547  10.682  0.2989  0.0719 -0.1507
41692SOL    HW231938   2.588  11.640  10.564  0.1146 -0.0889 -0.3032
41693SOL     OW31939   5.322   3.781   7.158 -0.1434 -0.2534 -0.0841
41693SOL    HW131940   5.339   3.874   7.146  0.0698 -0.4419 -1.5077
41693SOL    HW231941   5.328   3.766   7.252  1.5464  0.8406  0.0096
41694SOL     OW31942   7.188   6.685  12.424  0.2956  0.4155  0.4860
41694SOL    HW131943   7.234   6.646  12.349 -0.6390 -0.7906  0.5123
41694SOL    HW231944   7.183   6.778  12.403  1.4074  0.3461 -0.2151
41695SOL     OW31945   9.048  10.166   0.550 -0.0927  0.1200  0.3140
41695SOL    HW131946   9.046  10.078   0.588 -0.5182  0.0843  0.2196
41695SOL    HW231947   9.084  10.221   0.620  1.1570 -0.2951  0.0043
41696SOL     OW31948   3.747  12.297   6.347  0.2696  0.0422  0.8484
41696SOL    HW131949   3.794  12.268   6.269  0.1500  0.9875  0.4022
41696SOL    HW231950   3.807  12.281   6.419  0.1775 -1.3395  0.6489
41697SOL     OW31951  11.296   3.975   9.392 -0.4663 -0.3915 -0.6330
41697SOL    HW131952  11.224   3.936   9.443 -0.4211 -0.6205 -0.7408
41697SOL    HW231953  11.252   4.030   9.328 -0.5296 -0.2106 -0.4354
41698SOL     OW31954   6.886   2.651   8.399  0.5950 -0.0114 -0.1934
41698SOL    HW131955   6.889   2.566   8.356 -1.9404  1.0481 -2.8617
41698SOL    HW231956   6.972   2.689   8.384  1.1957 -1.4087 -0.4481
41699SOL     OW31957  12.147   0.229   9.848 -0.4089  0.2892  0.3647
41699SOL    HW131958  12.204   0.200   9.777 -0.1802 -0.4944  0.8570
41699SOL    HW231959  12.196   0.209   9.928 -1.1712  0.0364  0.7794
41700SOL     OW31960   7.689   0.329   2.029 -0.0053  0.3406  0.0329
41700SOL    HW131961   7.723   0.243   2.005  0.4478  0.2687  0.9021
41700SOL    HW231962   7.767   0.383   2.040 -0.2997  1.7753 -3.5990
41701SOL     OW31963  10.905   6.082   2.207  0.0623  0.4736 -0.2225
41701SOL    HW131964  10.838   6.105   2.142 -2.7705  0.3899  2.4298
41701SOL    HW231965  10.938   6.166   2.239  0.0952  0.5424 -0.4330
41702SOL     OW31966   9.404   0.779   2.598 -0.4360  0.1271  0.2189
41702SOL    HW131967   9.434   0.834   2.670 -0.5782 -1.0190  1.1828
41702SOL    HW231968   9.370   0.700   2.641  0.5432 -1.0847 -1.1603
41703SOL     OW31969  10.386   9.356   5.662 -0.5564 -0.0734  0.2967
41703SOL    HW131970  10.368   9.431   5.719 -0.7720  1.5715 -1.8002
41703SOL    HW231971  10.475   9.329   5.684  0.6560  2.6854 -0.7899
41704SOL     OW31972   5.249   5.866   9.577  0.0684 -0.3775  0.1440
41704SOL    HW131973   5.186   5.902   9.515  0.5522  0.9688  0.4037
41704SOL    HW231974   5.331   5.863   9.528  0.9558  2.6389  1.2152
41705SOL     OW31975  10.279  11.462  10.278  0.3863 -0.2291  0.4703
41705SOL    HW131976  10.324  11.545  10.265 -0.0278 -0.0019  0.4461
41705SOL    HW231977  10.263  11.429  10.189  1.3143 -0.7656  0.4900
41706SOL     OW31978   3.281   5.127   4.146 -0.5707  0.2725 -0.1978
41706SOL    HW131979   3.323   5.145   4.062  0.6638 -0.5956  0.2002
41706SOL    HW231980   3.348   5.081   4.196 -1.6663 -0.2089  0.8610
41707SOL     OW31981   7.183   1.753  11.950  0.0149 -0.3467 -0.0170
41707SOL    HW131982   7.096   1.768  11.987 -1.0716  0.9403 -2.7753
41707SOL    HW231983   7.227   1.838  11.956  0.0267 -0.2650 -1.0446
41708SOL     OW31984   9.709   4.961   3.969  0.0360 -0.4278 -0.2502
41708SOL    HW131985   9.730   4.984   3.879 -2.1598 -1.1299 -1.0133
41708SOL    HW231986   9.786   4.915   4.001  0.9059 -0.0568 -1.7147
41709SOL     OW31987   0.069   5.847  10.422 -0.3736  0.2040 -0.1408
41709SOL    HW131988   0.014   5.846  10.343  0.0636  0.2733 -0.4489
41709SOL    HW231989   0.086   5.939  10.439  0.0226  0.1682 -0.3158
41710SOL     OW31990   1.145   7.108   6.143 -0.0106  0.5762 -0.3849
41710SOL    HW131991   1.172   7.199   6.143  0.8136  0.3388 -0.3727
41710SOL    HW231992   1.101   7.095   6.059  1.8386  0.4192 -1.3596
41711SOL     OW31993   1.152   9.448   2.739 -0.2196 -0.1060  0.3036
41711SOL    HW131994   1.247   9.436   2.739 -0.3711 -1.7029 -0.7079
41711SOL    HW231995   1.139   9.542   2.743  1.4028  0.1340  0.6241
41712SOL     OW31996   7.182   0.915   8.655  0.2079  0.5410  0.3879
41712SOL    HW131997   7.177   0.908   8.750 -0.9054 -2.2902  0.2216
41712SOL    HW231998   7.168   0.826   8.624  0.1019  1.4565 -2.4654
41713SOL     OW31999   6.478   5.776   7.243 -0.5312 -0.1864 -0.4956
41713SOL    HW132000   6.558   5.819   7.212  0.3449 -0.7969  0.8306
41713SOL    HW232001   6.440   5.838   7.306 -0.4726 -0.3983 -0.2515
41714SOL     OW32002  10.189   2.327   4.575  0.0877  0.2433 -0.0121
41714SOL    HW132003  10.282   2.341   4.555 -0.1905  1.9348 -0.3091
41714SOL    HW232004  10.156   2.277   4.500  0.6127  0.1986 -0.2181
41715SOL     OW32005   3.024   1.206   2.190 -0.0652  0.1246 -0.1539
41715SOL    HW132006   3.058   1.154   2.117 -1.5716  0.0731 -0.8570
41715SOL    HW232007   3.024   1.146   2.264  0.2942 -0.2053 -0.4156
41716SOL     OW32008  11.975   6.236   8.072  0.1207 -0.9401  0.2175
41716SOL    HW132009  12.022   6.268   8.149 -1.1840  0.1940  0.6000
41716SOL    HW232010  11.967   6.313   8.016 -2.1021 -0.8097  0.6210
41717SOL     OW32011   7.045   9.123   4.332 -0.4154  0.2768  0.1393
41717SOL    HW132012   7.082   9.117   4.420  1.3223 -0.9106 -0.6094
41717SOL    HW232013   6.970   9.065   4.333  1.2498 -2.0071  0.1200
41718SOL     OW32014   6.356   7.164   7.526  0.2341  0.0292 -0.4757
41718SOL    HW132015   6.275   7.210   7.546  0.2550 -0.1162 -0.0386
41718SOL    HW232016   6.328   7.079   7.492  0.1823 -0.6572  1.1694
41719SOL     OW32017   8.657   5.362   1.503 -0.3847 -0.2800  0.1299
41719SOL    HW132018   8.617   5.448   1.516 -0.8565 -0.3941 -0.5229
41719SOL    HW232019   8.723   5.376   1.435  0.4856 -0.1600  0.9787
41720SOL     OW32020  10.712   9.990  11.062  0.0997 -0.1164 -0.3317
41720SOL    HW132021  10.765   9.954  10.991  1.7879  1.3994  0.1041
41720SOL    HW232022  10.771  10.049  11.109 -2.0712  2.0951 -0.1504
41721SOL     OW32023   3.544   8.709  11.390  0.2021  0.3924  0.1344
41721SOL    HW132024   3.524   8.712  11.483 -1.1117  1.1040 -0.1387
41721SOL    HW232025   3.638   8.691  11.386  0.6342  2.0196  1.6319
41722SOL     OW32026   5.817  11.057  12.140  0.7798 -0.6097  0.0625
41722SOL    HW132027   5.741  11.081  12.193  2.2098  1.3656  1.3883
41722SOL    HW232028   5.888  11.110  12.176  2.0799  0.1350 -3.2465
41723SOL     OW32029   7.317   6.842   5.493 -0.6698 -0.2207  0.1875
41723SOL    HW132030   7.245   6.847   5.430 -0.3107 -0.0518 -0.2097
41723SOL    HW232031   7.381   6.906   5.462 -0.8510  0.4586  1.1850
41724SOL     OW32032  12.187  11.635   3.680  0.7574  0.3909 -0.0452
41724SOL    HW132033  12.250  11.567   3.706  0.4097  0.5829  1.4253
41724SOL    HW232034  12.127  11.641   3.754 -0.5925  0.7054 -1.1288
41725SOL     OW32035  12.329   4.863   9.533  0.4039 -0.0347 -0.2079
41725SOL    HW132036  12.323   4.814   9.615 -0.8553  2.8780  1.6017
41725SOL    HW232037  12.261   4.825   9.478  0.2327 -1.0527  0.6564
41726SOL     OW32038   0.223  11.781   8.144  0.1428 -0.0569  0.0683
41726SOL    HW132039   0.168  11.808   8.218  0.6938 -0.2992  0.5776
41726SOL    HW232040   0.182  11.702   8.110  1.0446 -1.1769  1.4756
41727SOL     OW32041   8.879   6.544   2.968  0.6302  0.2554 -0.0085
41727SOL    HW132042   8.804   6.498   2.931 -1.4493  1.1878  2.7615
41727SOL    HW232043   8.924   6.478   3.022  1.4767 -0.1184 -1.1232
41728SOL     OW32044   7.913  10.061   5.443 -0.0035 -0.6063  0.8183
41728SOL    HW132045   7.896  10.038   5.352  0.9135 -0.5274  0.6224
41728SOL    HW232046   7.934  10.154   5.441 -1.1683 -0.3087  1.2802
41729SOL     OW32047   3.132   9.105   0.709 -0.8081 -0.0958  0.0605
41729SOL    HW132048   3.150   9.060   0.792 -0.6661  0.2641  0.2315
41729SOL    HW232049   3.040   9.087   0.691 -1.2674  1.0742  1.0927
41730SOL     OW32050   8.765   8.007   7.586  0.1108  0.1543  0.0165
41730SOL    HW132051   8.705   8.079   7.607 -0.7209 -0.8033  1.0440
41730SOL    HW232052   8.776   7.960   7.669  0.7634 -0.8158 -0.6029
41731SOL     OW32053   5.889   3.197   8.053 -0.2992 -0.6797  0.1673
41731SOL    HW132054   5.896   3.279   8.005 -0.4278  0.7555  2.4277
41731SOL    HW232055   5.947   3.137   8.007  1.5978  1.3574 -0.2722
41732SOL     OW32056  11.249  10.018   9.329  0.2397  0.1579  0.3595
41732SOL    HW132057  11.160  10.044   9.308  0.9111  2.4985  0.0669
41732SOL    HW232058  11.263   9.937   9.280 -1.5105  0.0738 -0.0730
41733SOL     OW32059   8.825   5.755   7.827  0.3704 -0.2197 -0.2441
41733SOL    HW132060   8.876   5.775   7.749  0.4072  1.7528  0.2260
41733SOL    HW232061   8.747   5.711   7.794  1.2346 -1.0750 -1.1997
41734SOL     OW32062   9.715   1.426   7.732 -0.1245  0.1329 -0.2233
41734SOL    HW132063   9.662   1.492   7.686  0.6863  0.5730 -0.5389
41734SOL    HW232064   9.804   1.439   7.699  0.3974  0.1684  1.1461
41735SOL     OW32065   7.565   7.822   6.886 -0.6412  0.1280 -0.3410
41735SOL    HW132066   7.652   7.834   6.849 -1.9893 -0.2312 -4.0536
41735SOL    HW232067   7.570   7.739   6.933  1.3881  0.9803  1.0854
41736SOL     OW32068   7.496   1.916   9.572 -0.1130 -0.0445  0.9511
41736SOL    HW132069   7.568   1.859   9.544 -0.9674 -0.1137 -1.3295
41736SOL    HW232070   7.422   1.856   9.584  0.0772  0.0707  2.9139
41737SOL     OW32071   9.502   5.633   5.883 -0.0870  0.0185  0.0449
41737SOL    HW132072   9.511   5.716   5.836  1.4151  0.9511  1.8604
41737SOL    HW232073   9.487   5.659   5.974 -1.4525 -1.7315  0.3808
41738SOL     OW32074   7.052  11.964  10.482  0.3571 -0.3793  0.2711
41738SOL    HW132075   7.108  11.898  10.441 -0.8848 -1.5872  0.4836
41738SOL    HW232076   7.030  11.928  10.568 -1.4978 -0.3890 -0.1675
41739SOL     OW32077   5.212   2.867   1.360  0.3036  0.0515  0.1801
41739SOL    HW132078   5.209   2.869   1.456 -1.9318  0.1027  0.1685
41739SOL    HW232079   5.257   2.948   1.335  0.7601  0.1204  1.1635
41740SOL     OW32080   7.566   3.059   4.463  0.4680 -0.0594 -0.2044
41740SOL    HW132081   7.549   3.153   4.459 -2.1482 -0.4893 -0.9702
41740SOL    HW232082   7.562   3.030   4.372 -2.4936 -1.3729  0.2058
41741SOL     OW32083   2.173   2.233  12.199  0.0374 -0.2876 -0.3736
41741SOL    HW132084   2.164   2.161  12.261 -2.0229  0.4176  0.2267
41741SOL    HW232085   2.083   2.255  12.174  0.7250  0.6521 -2.2292
41742SOL     OW32086   8.636   9.901   5.668  0.1408 -0.6043 -0.1192
41742SOL    HW132087   8.677   9.961   5.606  0.9334 -0.7056  0.2907
41742SOL    HW232088   8.702   9.833   5.682  0.0886 -0.4330  1.0446
41743SOL     OW32089  10.777   6.663  11.194 -0.3020 -0.0114 -0.5716
41743SOL    HW132090  10.782   6.711  11.112 -0.0828 -0.2637 -0.7073
41743SOL    HW232091  10.782   6.571  11.168  1.3514 -0.0647 -0.1739
41744SOL     OW32092   2.472  10.469   6.206  0.1155  0.2044  0.1929
41744SOL    HW132093   2.396  10.524   6.184 -0.7367 -1.0817 -0.2127
41744SOL    HW232094   2.435  10.383   6.224  1.5215 -0.6003 -0.5410
41745SOL     OW32095   4.149  10.235   4.164  0.1970  0.0620 -0.3622
41745SOL    HW132096   4.230  10.185   4.173 -0.6263 -1.0758  1.1820
41745SOL    HW232097   4.117  10.246   4.254 -0.4783  2.0223 -0.7910
41746SOL     OW32098   8.908   3.595   7.702  0.3214  0.3917 -0.0518
41746SOL    HW132099   8.895   3.572   7.610  0.6272 -1.2325  0.2823
41746SOL    HW232100   8.995   3.561   7.724  0.9005  2.1171  0.4475
41747SOL     OW32101   9.040   7.883   5.228 -0.4650 -0.0452 -0.0094
41747SOL    HW132102   9.017   7.804   5.179 -2.8619 -0.6054  1.8216
41747SOL    HW232103   9.129   7.904   5.200  0.0031 -2.9975 -1.0603
41748SOL     OW32104   0.733   4.903  11.570 -0.4428  0.6369  0.1972
41748SOL    HW132105   0.750   4.981  11.516 -1.0562  1.1999  0.7913
41748SOL    HW232106   0.812   4.893  11.622 -0.5064  1.1023  0.3942
41749SOL     OW32107   9.357   3.444   8.786 -0.5332 -0.1693 -0.3131
41749SOL    HW132108   9.317   3.507   8.845  0.0583 -0.4334  0.3827
41749SOL    HW232109   9.318   3.463   8.700 -1.7466 -0.0898  0.2396
41750SOL     OW32110   9.932   5.707   3.732 -0.0386 -0.6533 -0.2082
41750SOL    HW132111  10.015   5.755   3.725  0.2008 -1.0602 -0.1759
41750SOL    HW232112   9.957   5.615   3.737 -0.5321 -0.8569 -1.1250
41751SOL     OW32113   4.196   9.269   0.675  0.2468  0.0398  0.1236
41751SOL    HW132114   4.106   9.300   0.668  0.6421  1.0271 -0.8698
41751SOL    HW232115   4.190   9.191   0.730 -1.2065  0.1063  0.1027
41752SOL     OW32116   3.205   1.705   2.349  0.5303  0.0144 -0.4647
41752SOL    HW132117   3.240   1.635   2.294  0.4826 -1.1546  0.9255
41752SOL    HW232118   3.268   1.711   2.422  0.2773  1.1031 -0.3216
41753SOL     OW32119   4.969   6.603  10.307  0.1604 -0.0941  0.1062
41753SOL    HW132120   5.029   6.560  10.367 -0.4272 -0.2083  0.6214
41753SOL    HW232121   4.922   6.531  10.265  0.1337  0.0048 -0.0343
41754SOL     OW32122   4.335   8.246   5.892  0.2657  0.1646 -0.5695
41754SOL    HW132123   4.302   8.161   5.921 -0.2321  0.5518  0.0339
41754SOL    HW232124   4.271   8.309   5.925  0.8778  0.8119 -0.5926
41755SOL     OW32125   0.017   0.574   5.346  0.1996  0.1434  0.7874
41755SOL    HW132126  -0.043   0.503   5.368 -0.6763  0.0635 -1.6294
41755SOL    HW232127  -0.040   0.648   5.326  1.0829  1.4236  2.7357
41756SOL     OW32128   4.926   4.675   8.951  0.1754  0.3735  0.5317
41756SOL    HW132129   5.004   4.647   8.998  0.6617  0.5455 -0.1491
41756SOL    HW232130   4.926   4.771   8.961  0.3511  0.4239  0.0981
41757SOL     OW32131   3.559   3.304   4.889  0.6859 -0.4788  0.4124
41757SOL    HW132132   3.550   3.211   4.868 -1.6339  0.1541 -1.8536
41757SOL    HW232133   3.549   3.349   4.805  1.3069  1.8664  1.5153
41758SOL     OW32134   4.960  11.750   3.537  0.7784 -0.1683 -0.2356
41758SOL    HW132135   4.956  11.839   3.502 -0.4014 -0.3381 -0.5700
41758SOL    HW232136   5.050  11.722   3.521  0.6170  0.2105 -2.0457
41759SOL     OW32137   2.148   7.435   0.149  0.0483  0.0919 -0.2147
41759SOL    HW132138   2.160   7.526   0.175 -1.7880  0.2054  0.3651
41759SOL    HW232139   2.168   7.385   0.228 -0.3611  0.0965 -0.1056
41760SOL     OW32140  10.340   9.830   2.767 -0.2073 -0.5040 -0.2902
41760SOL    HW132141  10.376   9.891   2.703  1.5589  0.8958  1.8938
41760SOL    HW232142  10.246   9.826   2.747 -0.0824  1.6037 -1.5370
41761SOL     OW32143   0.652   1.049   6.372 -0.2165 -0.1793 -1.0777
41761SOL    HW132144   0.705   0.981   6.414 -1.6543 -0.6628  0.0546
41761SOL    HW232145   0.664   1.035   6.278 -0.5484 -2.0783 -0.8730
41762SOL     OW32146   1.855   9.881   4.041  0.0407  0.0117 -0.1097
41762SOL    HW132147   1.786   9.833   3.996 -0.2573  0.0850  0.2621
41762SOL    HW232148   1.818   9.901   4.127 -0.1395  1.5494 -0.5143
41763SOL     OW32149   8.222   1.540   2.957  0.4107  0.0138 -0.0975
41763SOL    HW132150   8.252   1.630   2.954  0.7989 -0.0961  0.4132
41763SOL    HW232151   8.184   1.524   2.871 -0.4498  0.9343  0.1006
41764SOL     OW32152   6.263   1.146   6.653 -0.0402 -0.2269  0.3793
41764SOL    HW132153   6.324   1.207   6.695 -1.5158  1.9648 -0.4945
41764SOL    HW232154   6.176   1.177   6.680 -0.8484 -2.2971  0.3131
41765SOL     OW32155  10.759   1.662   3.239  0.7953  0.0057  0.1150
41765SOL    HW132156  10.830   1.723   3.221  1.0056 -0.1366  0.4391
41765SOL    HW232157  10.799   1.595   3.294  0.6384 -0.5898 -0.4963
41766SOL     OW32158   1.301  12.400   1.946 -0.0476  0.4655  0.6277
41766SOL    HW132159   1.391  12.379   1.919 -0.8233  0.0257 -1.8333
41766SOL    HW232160   1.301  12.494   1.960  0.8364  0.4415  0.8370
41767SOL     OW32161   9.954   9.680   6.066 -0.2810 -0.3024 -0.4606
41767SOL    HW132162  10.049   9.691   6.070 -0.3924  1.3962 -1.5067
41767SOL    HW232163   9.930   9.650   6.154  1.3843 -2.6082 -0.6824
41768SOL     OW32164   2.098   6.560   0.505 -0.1100  0.3651  0.0840
41768SOL    HW132165   2.065   6.599   0.586 -1.3464  0.9596 -0.6671
41768SOL    HW232166   2.080   6.466   0.514  0.0378  0.3873  0.6257
41769SOL     OW32167   7.840   6.801   7.872 -0.3129  0.0447 -0.0633
41769SOL    HW132168   7.874   6.856   7.942 -0.0333  0.9423 -0.8805
41769SOL    HW232169   7.823   6.717   7.914  1.7165 -0.0731  0.6788
41770SOL     OW32170   8.597   7.439   6.661  0.0151  0.3823 -0.2966
41770SOL    HW132171   8.613   7.413   6.752  0.5806  0.9171 -0.2340
41770SOL    HW232172   8.522   7.498   6.666 -1.3942 -1.3038 -0.4614
41771SOL     OW32173   0.116   3.962   5.153  0.2906  0.1262 -0.0966
41771SOL    HW132174   0.172   3.896   5.113 -0.6310  0.2148 -1.6128
41771SOL    HW232175   0.124   4.038   5.096 -0.5057  0.5098  0.2817
41772SOL     OW32176   9.582   4.713   8.659  0.2152 -0.3128  0.3743
41772SOL    HW132177   9.657   4.681   8.710 -0.3772 -0.2400  1.3113
41772SOL    HW232178   9.618   4.729   8.572  1.2614 -0.4171  0.7674
41773SOL     OW32179   7.277  11.044   0.026 -0.2757 -0.2787 -0.2140
41773SOL    HW132180   7.299  11.119   0.082  0.3527 -0.0849 -0.7042
41773SOL    HW232181   7.356  10.990   0.027 -0.9723 -1.3341  0.7235
41774SOL     OW32182  11.194   6.416   9.024  0.1544  0.1566 -0.0051
41774SOL    HW132183  11.264   6.472   9.058  0.7553  0.2540 -1.3253
41774SOL    HW232184  11.218   6.328   9.051  1.2345  0.0881 -1.0920
41775SOL     OW32185  10.555   2.358   8.848  0.2100 -0.1185 -0.1409
41775SOL    HW132186  10.588   2.353   8.758 -0.7288  0.8947 -0.5636
41775SOL    HW232187  10.584   2.444   8.879 -1.3789  0.4968 -0.2799
41776SOL     OW32188   7.193   0.296   2.469  0.1285 -0.0951 -0.1081
41776SOL    HW132189   7.179   0.309   2.375  2.0210  0.4011 -0.3740
41776SOL    HW232190   7.138   0.221   2.491  0.0038 -0.5267 -1.7248
41777SOL     OW32191   3.104   1.419   9.732 -0.0639  0.2483  0.6129
41777SOL    HW132192   3.160   1.407   9.655 -1.3958 -1.1990 -0.1725
41777SOL    HW232193   3.132   1.504   9.768  0.9360  0.7277 -1.1496
41778SOL     OW32194   8.849   0.325   3.136 -0.4941  0.3727 -0.2881
41778SOL    HW132195   8.765   0.285   3.113  0.5551 -1.9818 -0.3135
41778SOL    HW232196   8.895   0.333   3.053 -0.7236  1.8874 -0.3083
41779SOL     OW32197   4.357  11.405   8.830 -0.1967 -1.1264 -0.1027
41779SOL    HW132198   4.408  11.466   8.777  0.3436 -2.3213 -0.9922
41779SOL    HW232199   4.370  11.320   8.789 -2.0912 -1.6471  0.2444
41780SOL     OW32200   2.319   1.013   9.754  0.6248 -0.5519  0.1232
41780SOL    HW132201   2.395   1.062   9.723 -0.3413  1.0290  0.1497
41780SOL    HW232202   2.320   1.023   9.849  0.6614 -0.9747  0.1711
41781SOL     OW32203   4.454  10.067  12.287 -0.4635 -0.2394 -0.3148
41781SOL    HW132204   4.512  10.051  12.362  0.2488  1.3257 -0.5062
41781SOL    HW232205   4.410  10.150  12.307  2.0635  1.9403 -2.9577
41782SOL     OW32206   3.206   5.487   7.310  0.9596  0.1912 -0.6461
41782SOL    HW132207   3.239   5.404   7.344 -1.4120 -0.0281  1.4663
41782SOL    HW232208   3.257   5.554   7.355  0.5808 -0.1482  0.3252
41783SOL     OW32209   4.903  10.958   9.770  0.0097  0.0331 -0.9786
41783SOL    HW132210   4.877  10.934   9.681  0.0184 -0.8630 -0.7551
41783SOL    HW232211   4.955  10.883   9.800  0.7971  0.7399 -0.5536
41784SOL     OW32212  10.727   3.252   5.565 -0.1137  0.1296 -0.0983
41784SOL    HW132213  10.791   3.288   5.627 -0.1250  1.4471 -0.8116
41784SOL    HW232214  10.718   3.160   5.591  1.6421  0.0518  0.3801
41785SOL     OW32215   3.818  11.041   1.729  0.1971 -0.1635  0.3088
41785SOL    HW132216   3.870  11.090   1.793  0.1567  1.2249 -0.6665
41785SOL    HW232217   3.732  11.033   1.768  0.0223  1.1352  0.2526
41786SOL     OW32218   0.568   4.419   3.287  0.0917 -0.3026 -0.0933
41786SOL    HW132219   0.501   4.352   3.272  1.4585 -2.2887  2.0243
41786SOL    HW232220   0.568   4.432   3.382 -0.8637  3.6570 -0.4200
41787SOL     OW32221   2.417   8.556  11.281  0.4583 -0.5188  0.2351
41787SOL    HW132222   2.401   8.472  11.237  2.8277 -1.1511  0.4428
41787SOL    HW232223   2.482   8.536  11.349  0.1797  1.2739  1.1025
41788SOL     OW32224  12.124   7.501   9.014 -0.3416 -0.8288 -0.0878
41788SOL    HW132225  12.168   7.443   8.952  0.3901  0.0629 -0.4253
41788SOL    HW232226  12.188   7.515   9.084 -1.2618 -2.0565  1.0424
41789SOL     OW32227   2.643   7.846   7.352  0.3060  0.2958  0.1273
41789SOL    HW132228   2.560   7.841   7.304 -0.1542  2.7106  0.5384
41789SOL    HW232229   2.689   7.765   7.329 -1.1964 -0.0680 -1.8995
41790SOL     OW32230   8.739   8.829   9.261  0.6781  0.4599 -0.0082
41790SOL    HW132231   8.649   8.859   9.262  0.6506  0.4383  1.6985
41790SOL    HW232232   8.756   8.804   9.170 -0.9726  0.5974 -0.3735
41791SOL     OW32233  11.415   9.339   1.079  0.2063  0.2752 -0.0860
41791SOL    HW132234  11.326   9.355   1.108  0.3507  1.0675 -0.0769
41791SOL    HW232235  11.422   9.243   1.075  0.3899  0.0569  3.1964
41792SOL     OW32236   9.828  12.310   3.511 -0.0933 -0.2541  0.1669
41792SOL    HW132237   9.854  12.401   3.517 -2.3263  0.3374  2.0688
41792SOL    HW232238   9.815  12.282   3.601 -1.2103 -1.9032 -0.4518
41793SOL     OW32239   0.507   2.114   0.119 -0.1438  0.0942 -0.4255
41793SOL    HW132240   0.502   2.188   0.180 -1.5915 -0.5854  0.3159
41793SOL    HW232241   0.420   2.076   0.120 -0.1509 -0.0780 -2.7824
41794SOL     OW32242   2.576   3.728   0.914  0.1280 -0.0512  0.1856
41794SOL    HW132243   2.521   3.678   0.855 -0.6496 -0.3682  1.1525
41794SOL    HW232244   2.537   3.816   0.915 -0.9063 -0.4927  1.5099
41795SOL     OW32245   7.952   6.553   0.590  0.0105 -0.1092  0.0087
41795SOL    HW132246   8.048   6.550   0.592  0.1010  1.0762 -0.8383
41795SOL    HW232247   7.928   6.601   0.670  0.2855  1.4049 -0.7674
41796SOL     OW32248   1.642  11.317   9.602  0.3347 -0.1137 -0.5327
41796SOL    HW132249   1.691  11.379   9.548 -0.8486  1.1157 -0.2550
41796SOL    HW232250   1.564  11.296   9.550 -0.0805 -0.0761  0.0582
41797SOL     OW32251   4.615   8.574   1.117  0.2274  0.4377 -0.3067
41797SOL    HW132252   4.578   8.509   1.057  1.0881 -0.3868  0.0366
41797SOL    HW232253   4.680   8.621   1.064  0.4247  0.2397 -0.2422
41798SOL     OW32254   3.519  11.228   6.876 -0.0597 -0.4399  0.0675
41798SOL    HW132255   3.599  11.264   6.914  0.6556 -2.6110  0.7152
41798SOL    HW232256   3.453  11.240   6.944 -0.2830  1.1355 -0.3774
41799SOL     OW32257   7.614   1.002   0.097 -0.6926  0.2384 -0.0279
41799SOL    HW132258   7.709   1.013   0.093 -0.7823  0.6461 -1.6709
41799SOL    HW232259   7.580   1.088   0.123 -0.6239  0.1250  0.4419
41800SOL     OW32260   9.557  12.047   1.774 -0.4731 -0.5235 -0.7322
41800SOL    HW132261   9.595  12.125   1.734  0.8835  0.2757  1.9068
41800SOL    HW232262   9.631  11.987   1.783 -0.9810 -1.1104 -0.3938
41801SOL     OW32263   8.297   8.143  10.591  0.0342  0.4178 -0.7267
41801SOL    HW132264   8.380   8.167  10.632 -0.5852 -0.7147  1.3440
41801SOL    HW232265   8.230   8.173  10.653 -0.8848 -3.0654  0.2412
41802SOL     OW32266   6.641  10.963   5.982  0.0334 -0.1211  0.0840
41802SOL    HW132267   6.616  10.985   6.072  1.5463  0.1527  0.4642
41802SOL    HW232268   6.620  10.870   5.973  0.0037 -0.1821  0.7709
41803SOL     OW32269  11.177   3.439   9.101 -0.2899  0.4381 -0.5479
41803SOL    HW132270  11.147   3.519   9.144 -0.2258 -0.1430  0.6220
41803SOL    HW232271  11.271   3.435   9.122 -0.5227 -0.5268  0.3905
41804SOL     OW32272   9.549   0.005  11.774  0.1599 -0.1022 -0.1317
41804SOL    HW132273   9.490  -0.070  11.767 -0.0703  0.1670 -1.3428
41804SOL    HW232274   9.617  -0.012  11.709  0.0915  0.7320 -0.4371
41805SOL     OW32275   6.770   3.713   3.781  0.2005 -0.1922  0.0954
41805SOL    HW132276   6.756   3.745   3.870  0.7883 -1.4046  0.6395
41805SOL    HW232277   6.862   3.684   3.780  0.0557 -0.6477 -0.7559
41806SOL     OW32278   4.175  11.017   9.188 -0.0766  0.2531  0.2311
41806SOL    HW132279   4.223  11.092   9.153 -0.4529  0.5853  0.4036
41806SOL    HW232280   4.203  10.943   9.135  0.0890  0.5691 -0.1283
41807SOL     OW32281   2.462   9.424   6.396  0.5611 -0.3990 -0.3384
41807SOL    HW132282   2.522   9.483   6.443  0.7327 -0.0477 -0.9913
41807SOL    HW232283   2.427   9.367   6.465  0.1534  0.6580  0.3665
41808SOL     OW32284   9.077   6.011   2.620 -0.4521  0.2141  0.3415
41808SOL    HW132285   9.109   6.011   2.530 -0.7288  2.0731  0.2041
41808SOL    HW232286   9.027   5.929   2.627  0.1068 -0.2755 -0.9838
41809SOL     OW32287   6.059   2.894   2.911 -0.1497 -0.0136  0.0913
41809SOL    HW132288   6.138   2.930   2.952 -0.9731  1.8677  0.1604
41809SOL    HW232289   6.083   2.881   2.820  0.0396  1.3755 -0.0867
41810SOL     OW32290   6.583   4.999   6.509  0.0316 -0.0739  0.3202
41810SOL    HW132291   6.544   4.973   6.593 -0.0047 -0.1509  0.2788
41810SOL    HW232292   6.512   5.044   6.463 -0.2927 -1.0399 -0.1486
41811SOL     OW32293   8.845   6.271   6.394 -0.1108 -0.2157  0.2497
41811SOL    HW132294   8.836   6.366   6.387  0.8093 -0.0210  1.3140
41811SOL    HW232295   8.808   6.237   6.313 -0.2228  1.0696 -0.2650
41812SOL     OW32296   5.283   8.196   4.438 -0.6355  0.4545  0.6259
41812SOL    HW132297   5.207   8.235   4.482  0.2537  2.5299  0.4166
41812SOL    HW232298   5.324   8.268   4.392  0.4891 -0.9864 -0.7327
41813SOL     OW32299   7.391  10.492   2.346  0.1008  0.3542  0.1550
41813SOL    HW132300   7.401  10.531   2.433 -0.1202  0.5506  0.0922
41813SOL    HW232301   7.330  10.419   2.360  0.5341  0.0080  0.2773
41814SOL     OW32302  10.938   7.154   1.886 -0.1690 -0.4544  0.2869
41814SOL    HW132303  10.974   7.103   1.814  0.5594  1.7904 -1.0347
41814SOL    HW232304  10.987   7.124   1.963  2.5431  0.4024 -0.9604
41815SOL     OW32305  10.799   1.668   2.439  0.4236 -0.0122  0.1267
41815SOL    HW132306  10.851   1.746   2.418  1.1415 -0.3708  0.4970
41815SOL    HW232307  10.862   1.609   2.481  0.2313 -1.3438 -1.3705
41816SOL     OW32308   4.728  11.980   9.482  0.3021 -0.7099  0.0314
41816SOL    HW132309   4.819  11.949   9.482  0.4505 -0.2684  0.1979
41816SOL    HW232310   4.713  12.011   9.393  0.1281 -1.3242 -0.1594
41817SOL     OW32311   2.474   8.146   0.898 -0.1250  0.2265 -0.0773
41817SOL    HW132312   2.413   8.200   0.847 -1.3231 -1.3396 -0.4020
41817SOL    HW232313   2.492   8.198   0.977 -2.6810  0.4029  0.4991
41818SOL     OW32314   7.760   4.611   0.175  0.2139 -0.1653 -0.6893
41818SOL    HW132315   7.672   4.641   0.153  0.3033 -0.0666 -0.9164
41818SOL    HW232316   7.815   4.688   0.166  0.5405 -0.5152 -1.8661
41819SOL     OW32317   5.477   1.370   0.844 -0.0963 -0.1237 -0.0359
41819SOL    HW132318   5.383   1.373   0.860 -0.3450 -0.2615 -1.3902
41819SOL    HW232319   5.486   1.368   0.749  1.3624  2.7797 -0.0765
41820SOL     OW32320   2.982   4.570  11.465 -0.4812  0.8162  0.5827
41820SOL    HW132321   2.994   4.641  11.400 -1.1768  0.8888  0.5320
41820SOL    HW232322   2.986   4.490  11.413 -0.5543  0.8543  0.5179
41821SOL     OW32323   1.755   8.386   6.686  0.4880  0.5361  0.3540
41821SOL    HW132324   1.827   8.339   6.645 -1.4059 -1.6775 -0.7082
41821SOL    HW232325   1.735   8.335   6.765  0.1937  1.2196  0.7323
41822SOL     OW32326   1.565   8.774   7.796  0.4947 -0.5695 -0.1310
41822SOL    HW132327   1.641   8.734   7.838 -0.5965 -1.1684  1.3834
41822SOL    HW232328   1.523   8.703   7.749  1.5887  0.0552 -2.1696
41823SOL     OW32329   1.886   6.004   9.510 -0.4668 -0.4711 -0.4310
41823SOL    HW132330   1.838   5.978   9.588  0.8926 -0.2615  0.5236
41823SOL    HW232331   1.964   5.949   9.510  0.2768  0.5377 -0.8047
41824SOL     OW32332   8.014   2.128   2.487 -0.1574  0.0328  0.7604
41824SOL    HW132333   8.092   2.082   2.516 -0.7057 -0.9684  0.6791
41824SOL    HW232334   8.047   2.201   2.435  0.7611  0.3646  1.7702
41825SOL     OW32335  10.650   0.315   1.208  0.2711 -0.0714 -0.0396
41825SOL    HW132336  10.689   0.383   1.264 -0.4193 -0.0333  0.4060
41825SOL    HW232337  10.700   0.321   1.127 -1.3889  2.7808 -1.0202
41826SOL     OW32338   6.134   4.309  12.061 -0.1252 -0.8322 -0.0481
41826SOL    HW132339   6.209   4.250  12.065  1.2010  0.7768 -0.3201
41826SOL    HW232340   6.080   4.285  12.137  2.0981 -0.1757  1.8625
41827SOL     OW32341   9.933   6.920  10.879 -0.1088  0.0321 -0.4483
41827SOL    HW132342   9.844   6.913  10.912  0.9890 -0.4727  2.7531
41827SOL    HW232343   9.976   6.840  10.909  1.2328 -0.2232 -2.8006
41828SOL     OW32344   9.707  12.280   5.716 -0.5300  0.7498 -0.4118
41828SOL    HW132345   9.665  12.318   5.639 -0.1078  0.6779 -0.6806
41828SOL    HW232346   9.801  12.289   5.699 -0.4311  0.2921 -0.1302
41829SOL     OW32347   5.609   3.210  12.248  0.3858 -0.0554 -0.4270
41829SOL    HW132348   5.658   3.206  12.330 -1.4338  1.4281  0.7911
41829SOL    HW232349   5.527   3.254  12.270 -1.0754 -1.4708 -2.6088
41830SOL     OW32350  11.849   4.681  12.267 -0.4691 -0.1349 -0.4348
41830SOL    HW132351  11.804   4.726  12.339  0.9783 -1.7397  1.5891
41830SOL    HW232352  11.783   4.620  12.234 -1.0638  0.3990 -0.2756
41831SOL     OW32353   5.106   2.002   0.895  0.1165 -0.1136  0.1639
41831SOL    HW132354   5.124   2.019   0.988 -1.7373 -0.7358  0.6925
41831SOL    HW232355   5.129   1.910   0.882 -0.1079 -0.1660  0.1372
41832SOL     OW32356   6.009   0.386   1.238 -0.0314 -0.1734  0.3274
41832SOL    HW132357   5.968   0.418   1.157 -0.9193 -1.0880  0.3890
41832SOL    HW232358   6.075   0.323   1.208 -1.3239 -1.5835  0.3178
41833SOL     OW32359   7.842   5.009  12.246 -0.2638 -0.0445 -0.2006
41833SOL    HW132360   7.857   5.064  12.324  0.6792  0.1882 -0.5314
41833SOL    HW232361   7.832   4.921  12.282 -0.6029  0.1711  0.2490
41834SOL     OW32362   7.664   0.575   1.424 -0.1283 -0.0207 -0.4749
41834SOL    HW132363   7.753   0.607   1.438 -0.4478  0.3136  0.9635
41834SOL    HW232364   7.675   0.486   1.391  0.7463  0.4841 -1.5764
41835SOL     OW32365   8.867   1.164   4.275 -0.2887 -0.2281 -0.6952
41835SOL    HW132366   8.861   1.188   4.368  1.4419 -1.5549 -0.1861
41835SOL    HW232367   8.807   1.224   4.231  0.1476  1.6159  1.0631
41836SOL     OW32368  12.225   0.201   2.748  0.2501 -0.0279 -0.2796
41836SOL    HW132369  12.197   0.288   2.777  2.2599  0.1532  1.3664
41836SOL    HW232370  12.143   0.154   2.732 -0.9558  1.2320  1.6951
41837SOL     OW32371  10.514   8.317   0.932 -0.3469  0.3786  0.2517
41837SOL    HW132372  10.465   8.379   0.878 -0.7451  0.0538  0.2376
41837SOL    HW232373  10.452   8.290   0.999  0.3557  1.3288  1.3308
41838SOL     OW32374   6.701   0.032   1.421 -0.1452  0.2568 -0.3053
41838SOL    HW132375   6.666   0.099   1.363 -0.4138  0.8372  0.5056
41838SOL    HW232376   6.765   0.078   1.475  2.1049 -0.8124 -1.8732
41839SOL     OW32377   6.604   7.226   4.499  0.5551 -0.1061 -0.1195
41839SOL    HW132378   6.569   7.314   4.486  0.4293  0.1614  1.7766
41839SOL    HW232379   6.628   7.196   4.411  1.8909  2.3435 -0.6830
41840SOL     OW32380   4.785   6.387   9.403 -0.2548  0.1435  0.5507
41840SOL    HW132381   4.730   6.417   9.476  2.7238  2.0176  2.2341
41840SOL    HW232382   4.840   6.318   9.440  0.7900  0.5984 -0.0923
41841SOL     OW32383   5.551   7.377   1.347  0.4227 -0.1650  0.7677
41841SOL    HW132384   5.500   7.311   1.393  1.6065 -1.1852  0.6747
41841SOL    HW232385   5.618   7.328   1.300  2.3322  1.1493  1.9423
41842SOL     OW32386   4.513   0.215   7.654  0.4275  0.1827 -0.4864
41842SOL    HW132387   4.499   0.256   7.569 -0.4198 -1.3870 -1.1319
41842SOL    HW232388   4.539   0.125   7.634  0.4769 -0.1361  0.9071
41843SOL     OW32389   1.115  11.488   6.812 -0.0969 -0.0072  0.2302
41843SOL    HW132390   1.136  11.403   6.773  0.7925  0.3089 -0.0259
41843SOL    HW232391   1.169  11.550   6.763  2.6309  0.2097  3.1747
41844SOL     OW32392   3.477   3.881   9.920  0.4412 -0.3212  0.1470
41844SOL    HW132393   3.446   3.970   9.938 -1.7589 -1.1907  1.1337
41844SOL    HW232394   3.571   3.890   9.906  0.5668  1.9402  1.8312
41845SOL     OW32395  10.170  11.877   8.267  0.5103 -0.3942  1.2672
41845SOL    HW132396  10.128  11.815   8.326 -0.4966 -2.9107 -1.7943
41845SOL    HW232397  10.185  11.828   8.186 -0.5614  3.3687 -1.5499
41846SOL     OW32398  10.563   8.937  11.465 -0.3132  0.3679 -0.1431
41846SOL    HW132399  10.576   8.875  11.394  1.0131  0.5996 -0.1335
41846SOL    HW232400  10.562   8.883  11.544  0.9059  0.3389 -0.1299
41847SOL     OW32401   6.469   3.844   7.609 -0.4012  0.2716 -0.7287
41847SOL    HW132402   6.494   3.758   7.643  0.0881  1.2991  1.7355
41847SOL    HW232403   6.374   3.841   7.602 -0.4928 -0.0723  0.5545
41848SOL     OW32404  11.805   5.246   1.785 -0.3284  0.4401 -0.3270
41848SOL    HW132405  11.862   5.211   1.716 -0.9690  0.7987 -1.0553
41848SOL    HW232406  11.722   5.200   1.773 -0.3860  0.3624  0.3381
41849SOL     OW32407   6.950   1.461   3.025  0.0439  0.7055  0.6233
41849SOL    HW132408   6.899   1.401   2.971 -0.0352  0.8453  0.5410
41849SOL    HW232409   6.969   1.411   3.105 -2.2695  1.4188  1.7187
41850SOL     OW32410   8.370  11.990   3.489  0.4484  0.2538  0.3096
41850SOL    HW132411   8.306  11.929   3.526 -0.6460  2.1980  1.7629
41850SOL    HW232412   8.454  11.961   3.524 -0.0375 -0.4200  0.9487
41851SOL     OW32413  12.083   7.433  12.209 -0.3035 -0.2419 -0.1959
41851SOL    HW132414  12.116   7.375  12.277  1.7718  1.5814  0.4881
41851SOL    HW232415  12.161   7.459  12.160 -1.3352  0.9524 -1.2710
41852SOL     OW32416   0.812   0.999   1.337  0.8140  0.0032 -0.6491
41852SOL    HW132417   0.767   0.980   1.254  0.4921  0.9795 -0.7117
41852SOL    HW232418   0.899   0.960   1.327 -0.1722 -2.5058 -0.2838
41853SOL     OW32419   1.420   8.136   5.124  0.8216 -0.5878  0.4883
41853SOL    HW132420   1.498   8.080   5.125 -0.1832 -2.0370 -0.2661
41853SOL    HW232421   1.379   8.120   5.039 -1.1840 -1.1177  1.5019
41854SOL     OW32422  10.755   5.921  12.076  0.3762 -0.0586 -0.4441
41854SOL    HW132423  10.840   5.938  12.035  0.1499  1.4863 -0.3347
41854SOL    HW232424  10.691   5.947  12.010 -0.0023 -0.0898 -0.0924
41855SOL     OW32425  11.673  11.972  10.238 -0.4068  0.2696  0.2209
41855SOL    HW132426  11.636  11.948  10.153  0.3679  1.0698 -0.3663
41855SOL    HW232427  11.736  12.041  10.217  0.0545  0.2242  1.4070
41856SOL     OW32428   5.807   3.714   8.824  0.1863 -0.2820 -0.0974
41856SOL    HW132429   5.807   3.736   8.730 -0.6675  0.1766  0.0010
41856SOL    HW232430   5.814   3.798   8.868  0.4572 -0.4888  0.2588
41857SOL     OW32431   0.808   1.836  10.649  0.5654 -0.2025 -0.0106
41857SOL    HW132432   0.756   1.764  10.685 -1.1233  0.3411 -1.2319
41857SOL    HW232433   0.856   1.796  10.576 -1.9296  0.2116 -2.0223
41858SOL     OW32434   4.955  11.835   3.921 -0.1247 -0.4170 -0.0528
41858SOL    HW132435   4.909  11.913   3.890  0.5345 -0.0252 -0.0838
41858SOL    HW232436   5.037  11.835   3.871 -1.0462 -2.3867 -1.6995
41859SOL     OW32437   5.039   8.399  10.033  0.4501 -0.2774  0.4413
41859SOL    HW132438   4.987   8.402   9.952 -0.4651 -1.4038  0.9681
41859SOL    HW232439   5.099   8.473  10.025 -0.6502  0.5461 -0.5758
41860SOL     OW32440   3.716  10.655   8.682 -0.3158  0.4509 -0.6039
41860SOL    HW132441   3.746  10.571   8.647  1.8961  0.4288  1.0967
41860SOL    HW232442   3.652  10.631   8.749 -1.9488  0.3382 -2.1240
41861SOL     OW32443   9.590   7.578   1.884  0.0161 -0.3652  0.1163
41861SOL    HW132444   9.612   7.648   1.946  0.7976  0.5615 -1.1544
41861SOL    HW232445   9.532   7.619   1.821  1.9124 -0.2788 -1.6925
41862SOL     OW32446   7.387   4.891   5.750  0.2440 -0.3053  0.1088
41862SOL    HW132447   7.305   4.860   5.788  0.8471 -1.7084  0.3140
41862SOL    HW232448   7.416   4.819   5.694  2.0501 -0.4215  1.1377
41863SOL     OW32449   1.611   1.389  10.370  0.1566  0.5679  0.1984
41863SOL    HW132450   1.614   1.316  10.431  0.6728  0.8976  0.5805
41863SOL    HW232451   1.622   1.349  10.284  0.9000  0.2286  0.4387
41864SOL     OW32452   4.155   5.144   7.475  0.7455  0.3890 -0.2472
41864SOL    HW132453   4.201   5.124   7.393  0.4743  1.1011 -0.5802
41864SOL    HW232454   4.104   5.066   7.493 -0.9095  1.0020 -1.9386
41865SOL     OW32455   7.640   6.662   5.178  0.2182 -0.4089 -0.2208
41865SOL    HW132456   7.657   6.753   5.205  1.3473 -1.0199  1.2376
41865SOL    HW232457   7.578   6.629   5.243  0.7755 -1.0569 -0.0162
41866SOL     OW32458   9.289   5.826  10.135  0.2168 -0.4318 -0.2884
41866SOL    HW132459   9.313   5.843  10.044  2.9448 -0.0590  0.4039
41866SOL    HW232460   9.216   5.764  10.130 -0.8781  0.8986 -2.7048
41867SOL     OW32461   2.995   8.594   9.419 -0.0237 -0.4341 -0.1087
41867SOL    HW132462   2.924   8.545   9.378 -0.3783  0.5311 -0.6741
41867SOL    HW232463   3.064   8.597   9.353 -0.0666 -0.0508 -0.1411
41868SOL     OW32464   5.349   0.650  11.820 -0.2069 -0.1819  0.5251
41868SOL    HW132465   5.382   0.736  11.845 -1.0545  0.2938  0.0738
41868SOL    HW232466   5.254   0.657  11.832 -0.3613 -0.7947 -0.2692
41869SOL     OW32467   7.490   2.148   8.577  0.2662  0.7476  0.8794
41869SOL    HW132468   7.405   2.105   8.579  1.4913 -2.1510 -0.8940
41869SOL    HW232469   7.536   2.115   8.654  1.0121 -0.8624 -0.1855
41870SOL     OW32470   7.741   5.264   2.380  0.2321 -0.4285 -0.0763
41870SOL    HW132471   7.757   5.312   2.300  1.1478 -0.8386 -0.1599
41870SOL    HW232472   7.718   5.175   2.351  1.5529 -0.8510  0.1120
41871SOL     OW32473   8.870   8.829   4.796 -0.2910 -0.1644 -0.5138
41871SOL    HW132474   8.913   8.869   4.872 -0.4291  0.2616 -0.6568
41871SOL    HW232475   8.841   8.903   4.743 -1.5425 -0.4271 -0.2357
41872SOL     OW32476   3.372   3.771   1.232  0.3690  0.1137  0.5052
41872SOL    HW132477   3.316   3.755   1.308  0.4976  2.2990  1.1130
41872SOL    HW232478   3.461   3.755   1.263  0.2933 -0.9882  0.2082
41873SOL     OW32479  12.049   7.559   3.983 -0.2245 -0.1145 -0.1118
41873SOL    HW132480  12.070   7.477   3.938  0.8799  0.3070 -0.4058
41873SOL    HW232481  11.961   7.581   3.953 -0.2233 -0.7901 -0.6380
41874SOL     OW32482   8.187   2.712  11.945  0.1437 -0.2063 -0.0225
41874SOL    HW132483   8.114   2.775  11.944  1.1726  1.1435  2.4830
41874SOL    HW232484   8.164   2.649  11.877 -1.8112  1.8982 -1.4879
41875SOL     OW32485  11.545  10.374   2.144 -0.3400  0.1909  0.2445
41875SOL    HW132486  11.494  10.386   2.064  1.1993 -1.9545 -1.1504
41875SOL    HW232487  11.566  10.281   2.146  1.1267  0.4966  2.2628
41876SOL     OW32488   6.505   1.625   0.080 -0.2284 -0.0142  0.0224
41876SOL    HW132489   6.559   1.642   0.157  0.4853  0.2921 -0.5330
41876SOL    HW232490   6.475   1.535   0.090  0.4543 -0.2133  0.3058
41877SOL     OW32491   6.561   1.328   8.904  0.7127  0.4360 -0.0265
41877SOL    HW132492   6.514   1.249   8.928  1.8952 -0.5133 -0.7424
41877SOL    HW232493   6.584   1.369   8.987 -1.4529  1.0051  0.3441
41878SOL     OW32494  10.233   1.697   9.370 -0.0586  0.2303 -0.2092
41878SOL    HW132495  10.285   1.777   9.371  3.7375 -1.9615  0.2189
41878SOL    HW232496  10.218   1.679   9.277  0.5835  0.6182 -0.3957
41879SOL     OW32497   9.537   6.640   7.489  0.5437 -0.2723 -0.0631
41879SOL    HW132498   9.525   6.734   7.475  1.0667 -0.2389 -0.3044
41879SOL    HW232499   9.586   6.609   7.413 -0.0316 -0.8335 -0.2126
41880SOL     OW32500   8.421   3.355   0.474  0.1413 -0.4896  0.4671
41880SOL    HW132501   8.435   3.434   0.527 -0.5285  0.4337 -0.6835
41880SOL    HW232502   8.357   3.304   0.523 -2.6277  1.6398 -0.6618
41881SOL     OW32503  11.409   8.726   1.956  0.2973  0.1953 -0.1968
41881SOL    HW132504  11.436   8.817   1.943  1.3089  0.1080  1.0984
41881SOL    HW232505  11.389   8.695   1.868  1.5176  1.1924 -0.8686
41882SOL     OW32506   1.943   6.977   6.407 -0.5023 -0.4215  0.0713
41882SOL    HW132507   1.933   6.887   6.438 -1.3185 -1.1762 -2.1863
41882SOL    HW232508   2.038   6.991   6.408 -0.3628 -1.2901  0.4768
41883SOL     OW32509   2.525   6.015   6.871 -0.1270 -0.2197  0.3431
41883SOL    HW132510   2.533   5.936   6.924 -1.0407 -0.6757 -0.1814
41883SOL    HW232511   2.485   5.986   6.789 -1.6453  0.9559  0.6115
41884SOL     OW32512   1.003   6.389   0.186 -0.1804 -0.0122 -0.1691
41884SOL    HW132513   0.990   6.473   0.141  1.1925  0.4350  0.2271
41884SOL    HW232514   0.983   6.323   0.119 -2.2139  0.5841 -0.2228
41885SOL     OW32515   5.707   7.159  11.934 -0.2868  0.0520  0.0299
41885SOL    HW132516   5.738   7.120  12.016 -1.3785 -2.0475 -0.4939
41885SOL    HW232517   5.622   7.199  11.957 -0.9187 -1.1324 -0.1971
41886SOL     OW32518   4.313   7.868  10.408 -0.2482 -0.0931 -0.7192
41886SOL    HW132519   4.293   7.960  10.388 -1.6793 -0.0481  0.6731
41886SOL    HW232520   4.325   7.827  10.323 -1.0903  1.0734 -1.4365
41887SOL     OW32521   6.785   5.486   9.903  0.2608 -0.0481 -0.1245
41887SOL    HW132522   6.834   5.445   9.974 -0.2128 -1.4617 -0.5705
41887SOL    HW232523   6.829   5.569   9.888  1.5778 -0.6066  0.4946
41888SOL     OW32524   7.830   7.569   0.582  0.4042 -0.3772  0.4735
41888SOL    HW132525   7.862   7.659   0.595 -1.4400  0.4661 -0.4317
41888SOL    HW232526   7.889   7.533   0.516 -1.1280  1.6134 -2.2010
41889SOL     OW32527  11.586   7.333   4.289 -0.2476 -0.9563 -0.0997
41889SOL    HW132528  11.543   7.270   4.230 -0.7944 -0.2631 -0.4662
41889SOL    HW232529  11.634   7.391   4.230  1.6906 -2.0370  0.3300
41890SOL     OW32530   8.928   7.506  11.256  0.0165 -0.2536 -0.1338
41890SOL    HW132531   9.011   7.531  11.215  0.2186  1.5293  1.2374
41890SOL    HW232532   8.945   7.513  11.350 -1.7023  0.2489  0.1709
41891SOL     OW32533   6.958   8.914   4.845 -0.3803 -0.7888 -0.6604
41891SOL    HW132534   6.995   8.848   4.904 -2.5011 -2.5018 -1.1180
41891SOL    HW232535   6.888   8.955   4.896 -0.0222  0.1104 -0.8762
41892SOL     OW32536  12.274   6.463   7.694 -0.0494  0.5155  0.1272
41892SOL    HW132537  12.215   6.471   7.769 -0.5909 -1.5921  0.0022
41892SOL    HW232538  12.361   6.484   7.729 -0.0684 -1.7748  1.7781
41893SOL     OW32539   1.255   7.190   4.471  0.1368  0.6569  0.4850
41893SOL    HW132540   1.267   7.189   4.376  0.7969  1.0436  0.5607
41893SOL    HW232541   1.165   7.222   4.483 -0.7318 -1.4318 -0.0514
41894SOL     OW32542   9.866  12.226  12.440 -0.4279 -0.0012  0.1303
41894SOL    HW132543   9.878  12.314  12.474  0.5203 -0.1865  0.3045
41894SOL    HW232544   9.888  12.232  12.348  2.3628 -0.5677  0.6705
41895SOL     OW32545   3.681   1.948  11.492  0.2058  0.3885 -0.0105
41895SOL    HW132546   3.703   2.041  11.483  2.0894  0.1119  1.1588
41895SOL    HW232547   3.741   1.916  11.559 -0.1953 -1.7527 -0.6033
41896SOL     OW32548   8.590   5.521   7.171 -0.4085 -0.3861  0.8562
41896SOL    HW132549   8.571   5.458   7.240  2.2415 -0.5695  1.5323
41896SOL    HW232550   8.633   5.470   7.102 -1.6977  0.0571 -0.3290
41897SOL     OW32551  11.850   2.156   6.688  0.1768  0.1279 -0.1180
41897SOL    HW132552  11.767   2.111   6.704  0.9188 -0.9694  0.7756
41897SOL    HW232553  11.824   2.244   6.660 -1.3245  0.8591  3.1084
41898SOL     OW32554  11.840   3.802   8.776  0.4944 -0.6405  0.1093
41898SOL    HW132555  11.903   3.739   8.740  1.5114 -0.4878  1.5780
41898SOL    HW232556  11.784   3.749   8.834 -0.7226 -0.7583 -1.1032
41899SOL     OW32557   7.317   9.660   8.281 -0.3764 -0.3492  0.3697
41899SOL    HW132558   7.305   9.607   8.203  0.0712  0.9729 -0.6358
41899SOL    HW232559   7.244   9.722   8.280 -0.7635 -0.7513  1.3998
41900SOL     OW32560  10.520   7.242   9.027 -0.1083  0.1392 -0.0460
41900SOL    HW132561  10.518   7.154   8.990  1.9786 -0.2089  0.5409
41900SOL    HW232562  10.519   7.300   8.951  1.1493 -0.4790 -0.5539
41901SOL     OW32563   4.167   7.056   2.072 -0.2782  0.2281  0.3849
41901SOL    HW132564   4.109   7.125   2.039 -1.2036 -0.8434 -0.3369
41901SOL    HW232565   4.220   7.031   1.996  2.0220  1.9607  1.3007
41902SOL     OW32566   8.299   5.663   7.937 -0.3270 -0.1421 -0.1271
41902SOL    HW132567   8.237   5.679   8.009 -2.6222 -0.9451 -1.8192
41902SOL    HW232568   8.294   5.742   7.883 -0.0707 -0.3249 -0.4192
41903SOL     OW32569   2.671   0.396   1.430 -0.2359 -0.0343  0.3033
41903SOL    HW132570   2.697   0.359   1.346  1.0425  0.5722  0.3943
41903SOL    HW232571   2.747   0.380   1.487  0.3274  2.5080  0.3877
41904SOL     OW32572   1.439   6.525   3.062 -0.3431 -0.4272 -0.2378
41904SOL    HW132573   1.530   6.497   3.075 -0.0402  0.3830 -0.5068
41904SOL    HW232574   1.389   6.444   3.059  0.6328 -1.0497 -2.1344
41905SOL     OW32575   7.545  10.827   4.677  0.4173 -0.0822 -0.1570
41905SOL    HW132576   7.493  10.765   4.728 -0.0798  0.6016  0.1940
41905SOL    HW232577   7.536  10.798   4.587  0.9107 -1.0277  0.0774
41906SOL     OW32578   5.412   4.970   1.236 -0.2583 -0.6508  0.5327
41906SOL    HW132579   5.420   5.047   1.291  1.3469 -0.8678  0.6602
41906SOL    HW232580   5.327   4.980   1.193  0.2755  1.6395 -0.1311
41907SOL     OW32581   8.024  10.793   8.526 -0.0924  0.2268 -0.3552
41907SOL    HW132582   8.080  10.845   8.583 -1.2141  1.0192  0.0448
41907SOL    HW232583   7.974  10.857   8.476 -0.2844 -0.4643 -1.0775
41908SOL     OW32584   4.873   6.309   5.214  0.6361 -0.6215  0.4624
41908SOL    HW132585   4.894   6.304   5.121  1.6249  0.6836  0.5797
41908SOL    HW232586   4.943   6.261   5.257  2.1991  1.6709  0.6969
41909SOL     OW32587   6.183   0.825   7.696 -0.1345  0.1582  0.3198
41909SOL    HW132588   6.091   0.849   7.682  0.6478  2.2566 -2.3679
41909SOL    HW232589   6.208   0.872   7.775 -1.2444  0.0016  0.7819
41910SOL     OW32590   7.090  10.309   2.161 -0.6691 -0.6020  0.0310
41910SOL    HW132591   7.141  10.381   2.126  2.0380 -0.5711  3.5656
41910SOL    HW232592   7.006  10.316   2.116 -0.0402  3.7836 -0.9348
41911SOL     OW32593   4.995  10.109   4.910 -0.3760  0.7859 -0.2127
41911SOL    HW132594   5.019  10.032   4.858  1.2838  0.6410  0.7083
41911SOL    HW232595   4.906  10.130   4.881  0.2614  0.4011 -2.7146
41912SOL     OW32596   6.217   3.819   2.818  0.1876 -0.4441 -0.6748
41912SOL    HW132597   6.212   3.869   2.899  0.4357 -2.1538  0.4657
41912SOL    HW232598   6.161   3.866   2.756  0.7645  1.4398  0.1701
41913SOL     OW32599   1.262   4.973  10.636 -0.1406 -0.7205  0.5621
41913SOL    HW132600   1.181   5.024  10.640 -0.1710 -0.6306 -0.7612
41913SOL    HW232601   1.233   4.882  10.649 -0.7348 -0.8935 -1.5305
41914SOL     OW32602  10.903  11.996   2.185 -0.0453 -0.3773  0.6744
41914SOL    HW132603  10.873  11.998   2.275  0.8943 -2.1627  1.0694
41914SOL    HW232604  10.960  12.073   2.177 -0.6140  0.1325  1.4095
41915SOL     OW32605   5.837   7.999   4.984  0.1254 -0.5119  0.8471
41915SOL    HW132606   5.911   8.051   4.954 -0.4990 -0.0130  0.1264
41915SOL    HW232607   5.802   7.959   4.904 -2.3417  1.8367  0.5992
41916SOL     OW32608   0.829  11.066   7.524  0.3992  0.1407 -0.5171
41916SOL    HW132609   0.800  10.977   7.500  1.5575 -0.4337  0.1403
41916SOL    HW232610   0.755  11.122   7.501  0.1235 -0.8194 -2.1544
41917SOL     OW32611   7.461  10.052   8.292 -0.0402  0.0856 -0.2377
41917SOL    HW132612   7.435  10.010   8.210  1.8456 -0.0389 -0.8151
41917SOL    HW232613   7.533  10.110   8.268 -1.0134  1.8698  0.9654
41918SOL     OW32614   6.307  10.008  11.672  0.3995  0.2748 -0.3723
41918SOL    HW132615   6.370  10.026  11.742  0.3105  0.7032 -0.3995
41918SOL    HW232616   6.342  10.051  11.595 -0.6796  1.8743 -0.0256
41919SOL     OW32617   3.124   8.806   2.980 -0.1751  0.2297  0.5585
41919SOL    HW132618   3.053   8.828   3.040  0.1604 -0.4025  1.2097
41919SOL    HW232619   3.081   8.764   2.906 -0.5891  0.9534  0.3814
41920SOL     OW32620   6.842  11.211   3.601 -0.8460 -0.1885 -0.2177
41920SOL    HW132621   6.912  11.150   3.625 -0.6861 -0.0750 -0.3841
41920SOL    HW232622   6.873  11.251   3.520 -0.3191  1.0810  0.5757
41921SOL     OW32623   7.069   5.651  10.925 -0.0996  0.1948  0.5959
41921SOL    HW132624   7.029   5.568  10.950  0.5633 -0.8974 -1.6909
41921SOL    HW232625   7.026   5.674  10.842  0.5324  1.5585  0.6175
41922SOL     OW32626   6.177   4.403   7.201 -0.6818 -0.8032 -0.8140
41922SOL    HW132627   6.156   4.310   7.202  3.1791 -1.8406 -0.3953
41922SOL    HW232628   6.177   4.426   7.108 -1.1798 -1.3056 -0.9487
41923SOL     OW32629   7.673   0.372   3.519 -0.0564  0.3846  0.3699
41923SOL    HW132630   7.759   0.334   3.500  0.7380  1.4982  1.5219
41923SOL    HW232631   7.623   0.301   3.558 -0.3285 -0.7956 -1.9823
41924SOL     OW32632   8.593   5.760   3.319 -0.2335 -0.5731  0.0707
41924SOL    HW132633   8.529   5.831   3.310  0.2526 -0.0896  0.3845
41924SOL    HW232634   8.676   5.805   3.333  0.1014 -1.2090  0.1218
41925SOL     OW32635   2.285   9.587   5.102  0.1969  0.0914  0.2697
41925SOL    HW132636   2.279   9.619   5.012  2.2409 -0.2289 -0.0360
41925SOL    HW232637   2.364   9.628   5.136  0.6166 -1.4197  1.2110
41926SOL     OW32638   3.257   3.531   3.405 -0.3324  0.6304  0.2142
41926SOL    HW132639   3.240   3.449   3.359 -1.7876 -0.8889  3.1747
41926SOL    HW232640   3.317   3.507   3.476 -0.0726  2.3369  0.6186
41927SOL     OW32641  10.391   3.905   5.267 -0.0544  0.8536 -0.1488
41927SOL    HW132642  10.384   3.852   5.346 -1.5730 -0.2297 -0.9599
41927SOL    HW232643  10.472   3.876   5.225 -0.3619 -0.1414 -0.0739
41928SOL     OW32644   2.285  11.778   0.114  1.1356  0.2328  0.3102
41928SOL    HW132645   2.331  11.745   0.037  0.9832  0.2304  0.2182
41928SOL    HW232646   2.196  11.797   0.082  1.1585  0.5162  0.4155
41929SOL     OW32647  10.656   4.523   4.588  0.1383  0.2107 -0.2778
41929SOL    HW132648  10.645   4.485   4.675  0.9832 -0.0001 -0.2552
41929SOL    HW232649  10.750   4.539   4.581  0.0053  0.7383 -0.9416
41930SOL     OW32650   3.359  10.471   4.857  0.2994 -0.0380  0.1594
41930SOL    HW132651   3.389  10.552   4.900 -1.7517  0.9251 -0.1010
41930SOL    HW232652   3.358  10.406   4.927  2.4683 -0.0286  0.2686
41931SOL     OW32653  12.088   2.606  10.888  0.0993 -0.0516 -0.1633
41931SOL    HW132654  12.169   2.609  10.836  0.9978  0.6282  1.2275
41931SOL    HW232655  12.029   2.668  10.843 -0.4425 -1.9896 -2.3437
41932SOL     OW32656   6.129  10.010   8.774 -0.3390  0.5686 -0.1075
41932SOL    HW132657   6.183  10.076   8.818 -0.9200  0.3604  0.9444
41932SOL    HW232658   6.043  10.051   8.765 -0.9778 -0.3676  1.4336
41933SOL     OW32659   1.655   9.848   1.271  0.1770  0.1091 -0.0853
41933SOL    HW132660   1.698   9.926   1.308  1.4319 -0.6087  0.0211
41933SOL    HW232661   1.589   9.824   1.336  0.2111  0.7091  0.1812
41934SOL     OW32662   8.383  11.169   1.894  0.0661  0.2639  0.6335
41934SOL    HW132663   8.333  11.119   1.829  0.2056 -2.2975  2.3358
41934SOL    HW232664   8.413  11.247   1.847 -3.0947  0.5105 -1.2460
41935SOL     OW32665  10.414   4.657  10.550  0.5862  0.0988  0.3489
41935SOL    HW132666  10.396   4.568  10.581 -1.1015  0.1879 -0.2727
41935SOL    HW232667  10.468   4.644  10.472  0.2347 -0.3877  0.1784
41936SOL     OW32668  11.673   7.726   7.772 -0.2838 -0.2960 -0.3635
41936SOL    HW132669  11.617   7.672   7.827  1.1216 -1.3663  0.0709
41936SOL    HW232670  11.723   7.779   7.834 -0.0206 -0.1606 -0.6864
41937SOL     OW32671   0.766   8.200   6.567  0.5534  0.1140 -0.0504
41937SOL    HW132672   0.846   8.246   6.541  0.1269  0.6893 -0.3757
41937SOL    HW232673   0.726   8.258   6.632  0.0699  0.1526 -0.3797
41938SOL     OW32674   8.921   4.472   9.034 -0.2371 -0.0997  0.1010
41938SOL    HW132675   8.881   4.407   9.093 -0.9609  2.5022  2.6967
41938SOL    HW232676   8.847   4.508   8.985 -0.3498  0.9972  1.0446
41939SOL     OW32677   2.727   9.112   3.004  0.2247  0.1677 -1.0018
41939SOL    HW132678   2.788   9.058   2.954  0.2874  0.4751 -1.2624
41939SOL    HW232679   2.668   9.050   3.046  0.8686 -0.1459 -0.5447
41940SOL     OW32680  11.516   7.015   8.649 -0.4978 -0.5342  0.1626
41940SOL    HW132681  11.460   7.080   8.605 -1.0526 -1.9314 -1.2849
41940SOL    HW232682  11.602   7.057   8.653 -0.1919 -0.5754 -3.0510
41941SOL     OW32683  10.179   4.845  11.500  0.1141 -0.1960 -0.1007
41941SOL    HW132684  10.266   4.808  11.490  0.7929  1.5789 -1.2728
41941SOL    HW232685  10.145   4.853  11.411 -1.0634 -0.3955  0.3001
41942SOL     OW32686   7.906   9.489   0.828 -0.1611  0.1446  0.0484
41942SOL    HW132687   7.831   9.472   0.886  0.7133  0.2451  1.2629
41942SOL    HW232688   7.972   9.426   0.856  0.5450  0.7041 -0.3413
41943SOL     OW32689   5.122   7.261   5.173 -0.2098 -0.1121  0.7174
41943SOL    HW132690   5.110   7.327   5.242  1.0143  0.4242  0.4532
41943SOL    HW232691   5.045   7.271   5.116  0.0036  1.1816  0.6256
41944SOL     OW32692   4.733  11.007  11.714 -0.2331 -0.3502  0.3506
41944SOL    HW132693   4.797  11.030  11.781 -1.4449 -1.5673  2.0315
41944SOL    HW232694   4.654  10.984  11.764 -1.7432  0.3051 -1.5854
41945SOL     OW32695   3.665   4.054   3.700 -0.5401 -0.1888  0.2151
41945SOL    HW132696   3.626   4.015   3.622 -3.3553  1.6999  0.5312
41945SOL    HW232697   3.740   4.104   3.667 -0.0576 -1.5467 -0.8477
41946SOL     OW32698   7.675   8.114  11.120 -0.1131 -0.6782 -0.0546
41946SOL    HW132699   7.697   8.201  11.087  0.0221 -0.2886  1.0157
41946SOL    HW232700   7.597   8.088  11.070  0.5492 -0.4708 -1.2284
41947SOL     OW32701  11.348   7.017   8.147  0.1390  0.3039 -0.5473
41947SOL    HW132702  11.277   7.050   8.201 -1.4888 -0.4543 -2.1354
41947SOL    HW232703  11.337   7.061   8.063  0.3955 -1.2100 -1.4057
41948SOL     OW32704   0.185   6.043   7.147 -0.3459 -0.2937  0.6186
41948SOL    HW132705   0.279   6.039   7.129 -0.3119 -1.1608  0.9759
41948SOL    HW232706   0.144   6.025   7.062 -0.2084  0.9839  0.2570
41949SOL     OW32707  11.177   4.155   2.110 -0.2048  0.7112  0.0753
41949SOL    HW132708  11.110   4.091   2.085 -0.0620  0.6910 -0.2476
41949SOL    HW232709  11.135   4.240   2.096 -0.0790  0.7030 -0.3625
41950SOL     OW32710   7.481   1.731   1.238 -0.2524 -0.5453 -0.1197
41950SOL    HW132711   7.476   1.781   1.156 -2.7521  1.2549  1.0002
41950SOL    HW232712   7.491   1.797   1.306 -0.4622 -1.8253  1.1945
41951SOL     OW32713   4.574   8.884   9.605  0.0997  0.0507 -0.3815
41951SOL    HW132714   4.484   8.851   9.602  0.3664 -0.8941  0.8538
41951SOL    HW232715   4.576   8.941   9.682  0.5261  0.1526 -0.4662
41952SOL     OW32716   3.038   3.362   1.990  0.0074  0.4912  0.3434
41952SOL    HW132717   3.023   3.319   2.075 -1.5138  1.4296  0.5816
41952SOL    HW232718   2.988   3.310   1.928 -2.7307  2.3899  0.7963
41953SOL     OW32719   0.483   3.769  11.218 -0.0631  0.0709 -0.1178
41953SOL    HW132720   0.390   3.746  11.221 -0.4185  1.3891 -0.4383
41953SOL    HW232721   0.485   3.853  11.172  1.6056 -1.5338 -3.2471
41954SOL     OW32722   9.750   2.051   9.615  0.2801  0.0476 -0.4417
41954SOL    HW132723   9.779   2.019   9.530 -0.3189  0.1713 -0.7004
41954SOL    HW232724   9.660   2.081   9.600  0.1499  0.0204  0.2464
41955SOL     OW32725  10.678   2.557   4.854 -0.0157  0.3832 -0.2863
41955SOL    HW132726  10.620   2.592   4.787 -0.6029 -0.5584 -0.2892
41955SOL    HW232727  10.752   2.520   4.806 -0.5385 -0.4817 -0.4432
41956SOL     OW32728   5.342   5.290   6.658 -0.5482 -0.0768  0.4899
41956SOL    HW132729   5.313   5.371   6.700  1.8454 -0.1159  2.4453
41956SOL    HW232730   5.394   5.246   6.725 -1.2640 -2.9753 -0.7222
41957SOL     OW32731   4.991   6.415   5.694  0.0152 -0.0988 -0.0849
41957SOL    HW132732   5.020   6.464   5.771  0.6776 -0.0734 -0.3474
41957SOL    HW232733   4.912   6.369   5.724 -1.4916  2.2211 -0.2130
41958SOL     OW32734   7.877  11.224   2.303  0.3063 -0.1970  0.5339
41958SOL    HW132735   7.909  11.314   2.296 -0.9293  0.1943 -0.4327
41958SOL    HW232736   7.787  11.228   2.268  0.3496 -1.8547  0.1750
41959SOL     OW32737   1.349  12.045  11.919  0.0361 -0.4418  0.6536
41959SOL    HW132738   1.378  12.136  11.922  0.4129 -0.4801 -0.9727
41959SOL    HW232739   1.423  11.995  11.953  0.6355 -0.2815 -0.3797
41960SOL     OW32740   3.350   8.374   0.920 -0.3234 -0.2273 -0.2587
41960SOL    HW132741   3.443   8.367   0.899 -0.5727  0.9669 -1.9684
41960SOL    HW232742   3.312   8.292   0.888  0.4322 -1.9857  2.8541
41961SOL     OW32743  11.503  11.286   9.583 -0.4085  0.4228  0.5933
41961SOL    HW132744  11.528  11.375   9.561 -1.6710  0.4648 -0.8164
41961SOL    HW232745  11.419  11.273   9.539  0.3433 -1.8957 -0.2820
41962SOL     OW32746  10.670  10.935   5.385  0.3540 -0.1182 -0.7984
41962SOL    HW132747  10.670  10.861   5.324 -2.0243  0.3060 -1.4203
41962SOL    HW232748  10.637  10.898   5.467  1.3569 -0.1957 -0.4147
41963SOL     OW32749  10.182   7.553  11.096  0.6870  0.7062  0.2888
41963SOL    HW132750  10.113   7.520  11.038 -0.3894  1.5786  1.0313
41963SOL    HW232751  10.180   7.495  11.172 -0.5161  1.7823  1.1349
41964SOL     OW32752  11.921   1.688  11.349 -0.4401  0.0963 -0.0636
41964SOL    HW132753  11.865   1.741  11.406  0.3174 -0.5445  1.3326
41964SOL    HW232754  12.009   1.722  11.364  0.0612 -1.5231  0.8551
41965SOL     OW32755   8.456   5.212   5.087  0.2937  0.1780  0.6684
41965SOL    HW132756   8.456   5.155   5.010 -0.8447 -0.0972  0.8575
41965SOL    HW232757   8.409   5.162   5.153  1.7093  0.1832  1.7373
41966SOL     OW32758   1.146  12.034   2.568  0.3890 -0.1569  0.3569
41966SOL    HW132759   1.181  12.022   2.657  0.1322 -0.4239  0.4218
41966SOL    HW232760   1.150  11.948   2.528 -2.3523 -0.7600  1.1529
41967SOL     OW32761   2.679   5.740   9.437 -0.0751 -0.3268 -0.1116
41967SOL    HW132762   2.648   5.805   9.500 -1.1224 -0.3199 -0.6108
41967SOL    HW232763   2.737   5.683   9.487  0.4259  0.6572  0.4617
41968SOL     OW32764   1.500   6.569  10.469  0.0188  0.2318 -0.2644
41968SOL    HW132765   1.459   6.504  10.412  0.1574 -0.3575  0.2829
41968SOL    HW232766   1.458   6.555  10.554 -0.3890  1.2860 -0.2860
41969SOL     OW32767   6.056  11.413  10.889  0.1783  0.5487  0.0655
41969SOL    HW132768   6.104  11.441  10.967 -0.4109  1.7607  0.0103
41969SOL    HW232769   6.119  11.424  10.818  0.7144 -0.5482  0.3303
41970SOL     OW32770   1.773   4.176   6.641  0.3285  0.7486  0.5568
41970SOL    HW132771   1.807   4.097   6.682  0.1500  0.7643  0.7358
41970SOL    HW232772   1.706   4.145   6.580 -0.8191  0.8514  1.7111
41971SOL     OW32773   4.393   3.301   9.894 -0.3107  0.4115  0.0389
41971SOL    HW132774   4.362   3.233   9.834 -2.7674  0.5508  1.0362
41971SOL    HW232775   4.488   3.301   9.883 -0.5342 -0.6520 -2.6574
41972SOL     OW32776   1.867   9.667   7.549  0.0474  0.4284  0.0517
41972SOL    HW132777   1.938   9.607   7.572 -1.1392 -0.8770  0.4341
41972SOL    HW232778   1.903   9.721   7.479  0.9617 -1.1460 -0.7409
41973SOL     OW32779   2.724   8.182   4.893  0.3584  0.3862 -0.5765
41973SOL    HW132780   2.631   8.200   4.884  0.4143 -0.1024 -2.9904
41973SOL    HW232781   2.734   8.091   4.865  1.3963 -0.0963  1.1963
41974SOL     OW32782   1.972   6.705   6.498 -0.5319  0.0214  0.3229
41974SOL    HW132783   1.967   6.654   6.417 -0.6066 -0.1963  0.4624
41974SOL    HW232784   2.063   6.694   6.526 -0.7869 -0.8436  0.8645
41975SOL     OW32785   7.591   4.012   7.686 -0.2314 -0.1076  0.0684
41975SOL    HW132786   7.552   4.052   7.608 -0.0523 -1.2941 -0.6643
41975SOL    HW232787   7.516   3.984   7.739 -0.4119 -1.2527 -0.7392
41976SOL     OW32788   0.161  10.636   1.822  0.3595 -0.0955 -0.3999
41976SOL    HW132789   0.174  10.596   1.736  2.3642 -4.0057  1.4573
41976SOL    HW232790   0.241  10.686   1.838  1.7731 -2.4795  0.5311
41977SOL     OW32791   7.195   8.738   3.091 -0.1696 -0.1363  0.6510
41977SOL    HW132792   7.242   8.791   3.027  0.4569  0.1531  1.3424
41977SOL    HW232793   7.195   8.650   3.054  2.1607 -0.4579  1.2548
41978SOL     OW32794   9.742   6.161  12.207 -0.2985 -0.0519 -0.1755
41978SOL    HW132795   9.792   6.166  12.289 -2.3503  2.4899  1.0803
41978SOL    HW232796   9.731   6.253  12.181 -2.3588 -0.6432 -1.6103
41979SOL     OW32797   2.475  10.887   2.875 -0.1272  0.0950 -0.1005
41979SOL    HW132798   2.439  10.949   2.939  1.1565  1.1760 -0.3849
41979SOL    HW232799   2.421  10.809   2.885  0.2573  0.0768  2.6056
41980SOL     OW32800   5.954  12.374  11.808 -0.1966  0.1542  0.0841
41980SOL    HW132801   5.981  12.396  11.718 -0.8280 -1.2401 -0.4836
41980SOL    HW232802   5.957  12.278  11.810  1.0459  0.1935  1.9615
41981SOL     OW32803  12.210   9.173   2.709 -0.3152  0.1227  0.3896
41981SOL    HW132804  12.156   9.252   2.709  1.6894  1.5576  0.5618
41981SOL    HW232805  12.158   9.109   2.758 -1.8619  1.4038  0.4988
41982SOL     OW32806   8.838   0.012  10.016  0.4536  0.2851  0.4528
41982SOL    HW132807   8.866   0.040   9.929 -3.0899  0.1214 -0.8895
41982SOL    HW232808   8.871  -0.077  10.025 -1.2249 -0.6807 -1.9062
41983SOL     OW32809   7.714   3.700  11.751 -0.5225 -0.7304 -0.2829
41983SOL    HW132810   7.618   3.707  11.755 -0.5076  1.2890 -1.7930
41983SOL    HW232811   7.739   3.659  11.834 -2.7265 -2.0121 -0.1750
41984SOL     OW32812   4.664   4.088  11.758 -0.4626 -0.3254 -0.0138
41984SOL    HW132813   4.708   4.171  11.739 -1.6486  0.1582 -0.7593
41984SOL    HW232814   4.700   4.061  11.842 -0.0441  0.9552  0.2446
41985SOL     OW32815   4.746   3.085  12.177  0.0663 -0.2721  0.1815
41985SOL    HW132816   4.781   3.169  12.206  1.1707 -0.5872 -0.1986
41985SOL    HW232817   4.659   3.080  12.218 -0.6488  1.6784 -0.9232
41986SOL     OW32818  11.322   1.471   2.889 -0.5271 -0.4274  0.9774
41986SOL    HW132819  11.388   1.539   2.898 -0.2210 -0.7356  1.0760
41986SOL    HW232820  11.342   1.408   2.959 -0.2957 -1.0422  0.3749
41987SOL     OW32821   5.846  11.810   8.149  0.0706 -0.1483  0.2323
41987SOL    HW132822   5.898  11.828   8.071  2.8647 -1.5394  1.6314
41987SOL    HW232823   5.816  11.719   8.137 -1.4285  0.3669 -0.1731
41988SOL     OW32824   7.894   7.612  12.244  0.2365  0.1303  0.0003
41988SOL    HW132825   7.826   7.559  12.203 -0.2105  0.4246  0.3492
41988SOL    HW232826   7.879   7.700  12.211  0.2759  0.2455  0.2856
41989SOL     OW32827   5.519   4.750   8.578  0.2847  0.4856  0.2607
41989SOL    HW132828   5.516   4.810   8.653 -0.0858  0.2189  0.4594
41989SOL    HW232829   5.543   4.806   8.504 -0.8505  1.0385  0.2919
41990SOL     OW32830   8.028   0.821   0.265 -0.3219  0.3884  0.0772
41990SOL    HW132831   8.036   0.746   0.205 -1.2791  0.5071 -0.2135
41990SOL    HW232832   8.097   0.807   0.330  0.0351 -0.3160 -0.4359
41991SOL     OW32833  11.586   6.609   3.162  0.2830 -0.6845 -0.1529
41991SOL    HW132834  11.645   6.544   3.124 -0.8706 -0.4422 -2.5462
41991SOL    HW232835  11.585   6.681   3.099 -1.7141 -0.2013  0.3435
41992SOL     OW32836   9.218   5.912   8.244 -0.2334 -0.3117 -0.0116
41992SOL    HW132837   9.199   5.966   8.320 -0.0549  1.3233 -1.0786
41992SOL    HW232838   9.177   5.958   8.170 -0.2977 -1.7722 -0.9341
41993SOL     OW32839   6.384   6.491   8.605  0.2136 -0.2240 -0.0579
41993SOL    HW132840   6.364   6.474   8.698 -0.7539  1.2756  0.0315
41993SOL    HW232841   6.321   6.558   8.579  2.1785  1.2879 -1.0949
41994SOL     OW32842   3.894   6.115   0.674 -0.3612 -0.6067  0.1271
41994SOL    HW132843   3.811   6.114   0.627 -0.8644  0.2053  0.9693
41994SOL    HW232844   3.916   6.023   0.686  0.5956 -0.9074 -3.0449
41995SOL     OW32845   4.820   2.316   3.701 -0.1560 -0.1075 -0.7582
41995SOL    HW132846   4.724   2.320   3.705 -0.3105 -1.4106 -2.4212
41995SOL    HW232847   4.846   2.404   3.673 -0.8123  0.4230  0.2405
41996SOL     OW32848   3.766   9.431  10.001 -0.4369 -0.4306  0.1657
41996SOL    HW132849   3.737   9.339  10.002 -1.3080 -0.1901  2.6646
41996SOL    HW232850   3.685   9.481  10.015  0.3355  0.5970  1.0528
41997SOL     OW32851   7.655   6.473   8.480  0.1394 -0.0766 -0.6055
41997SOL    HW132852   7.568   6.489   8.443 -0.7390 -1.5510  0.6867
41997SOL    HW232853   7.668   6.378   8.470  0.8003 -0.1664  0.8600
41998SOL     OW32854   2.307   2.359  10.822 -0.3989 -0.0237 -0.1249
41998SOL    HW132855   2.402   2.359  10.839 -0.4084  0.7354 -0.0527
41998SOL    HW232856   2.270   2.410  10.895 -0.6758  1.2195 -1.0999
41999SOL     OW32857   1.282   6.108   7.584  0.0957 -0.2116  0.2658
41999SOL    HW132858   1.244   6.036   7.635 -0.4359  1.0290  1.6955
41999SOL    HW232859   1.301   6.176   7.649  1.0264  0.7721 -0.9804
42000SOL     OW32860   4.535   3.390  10.218  0.1942 -0.6188 -0.5017
42000SOL    HW132861   4.488   3.470  10.194 -0.0979 -0.5206  0.3427
42000SOL    HW232862   4.474   3.343  10.274  2.2361  1.2045  3.7649
42001SOL     OW32863  12.064   9.706   5.771 -0.2808  0.0399 -0.6369
42001SOL    HW132864  11.978   9.693   5.730 -0.4287  1.1005 -0.6761
42001SOL    HW232865  12.076   9.627   5.825 -1.6486  0.2312  0.0108
42002SOL     OW32866  10.880   5.165   4.698  0.3607 -0.1095  0.0083
42002SOL    HW132867  10.800   5.171   4.646  0.3513  3.1073  0.2305
42002SOL    HW232868  10.850   5.173   4.789  0.8881  0.8182  0.1123
42003SOL     OW32869   6.918   0.823   3.152  0.0922  0.3294 -0.2423
42003SOL    HW132870   6.890   0.915   3.155 -2.2062 -0.2288 -1.8843
42003SOL    HW232871   6.837   0.774   3.140  1.3826 -1.8437 -0.5627
42004SOL     OW32872   0.489   2.490   2.529 -0.6076  0.0728  0.1849
42004SOL    HW132873   0.555   2.433   2.568  0.1644  1.0729  0.3815
42004SOL    HW232874   0.415   2.487   2.590 -0.1253  0.1719  0.7896
42005SOL     OW32875   6.743   5.998   6.258 -0.4236  0.1502  0.4758
42005SOL    HW132876   6.744   6.093   6.275  0.1290 -0.0391  1.5933
42005SOL    HW232877   6.819   5.965   6.307  0.3840 -0.6515 -1.2432
42006SOL     OW32878   9.551  10.615   2.299  0.0403 -0.2421  0.3331
42006SOL    HW132879   9.633  10.620   2.251 -0.7124  0.1036 -0.9663
42006SOL    HW232880   9.521  10.706   2.306 -0.5911 -0.4242  0.1276
42007SOL     OW32881   2.006   9.416   6.815 -0.3120 -0.6574  0.0386
42007SOL    HW132882   1.985   9.340   6.760  0.2715 -0.9094  0.1516
42007SOL    HW232883   2.097   9.401   6.842  0.0380  0.4109 -0.4926
42008SOL     OW32884  10.225   6.665  11.639 -0.0836 -0.6823  0.5690
42008SOL    HW132885  10.288   6.593  11.633 -0.5940 -1.2416  1.6874
42008SOL    HW232886  10.156   6.640  11.578  1.3738  0.6321 -1.7882
42009SOL     OW32887  10.672   4.411   5.167  0.0583  0.5441  0.0167
42009SOL    HW132888  10.587   4.451   5.185 -0.2521 -0.0265 -0.1667
42009SOL    HW232889  10.691   4.358   5.245 -0.4908 -0.5648 -0.5742
42010SOL     OW32890   2.242   6.511   9.377 -0.2205 -0.1454  0.4090
42010SOL    HW132891   2.244   6.451   9.303  1.0945 -0.0278  0.3170
42010SOL    HW232892   2.318   6.568   9.363 -1.7755  1.9664  0.1420
42011SOL     OW32893  11.925   3.564  11.870 -0.1004  0.0643  0.1731
42011SOL    HW132894  11.832   3.565  11.850  0.1383  1.7089 -1.1073
42011SOL    HW232895  11.931   3.601  11.958 -0.5522  2.2552 -0.6423
42012SOL     OW32896   3.995   7.231   5.233 -0.2437  0.1472 -1.3084
42012SOL    HW132897   4.050   7.159   5.203  2.1175  1.9006 -1.5058
42012SOL    HW232898   4.001   7.229   5.329 -1.6857 -0.9596 -1.2098
42013SOL     OW32899   4.798   9.162   1.167  0.4419  0.3676 -0.2642
42013SOL    HW132900   4.767   9.132   1.081  1.3972  1.4096 -0.9995
42013SOL    HW232901   4.727   9.216   1.201  0.8129  1.5254 -1.2729
42014SOL     OW32902   4.261  10.806   9.880 -0.0562 -0.1829 -0.1347
42014SOL    HW132903   4.181  10.796   9.828 -1.0342 -0.8948  1.4174
42014SOL    HW232904   4.300  10.719   9.879  0.1580 -0.0871 -0.0404
42015SOL     OW32905  10.114   8.391   2.539  0.3984  0.4884  0.2046
42015SOL    HW132906  10.136   8.483   2.520  1.7216  0.3488  0.9438
42015SOL    HW232907  10.179   8.364   2.604 -0.6299 -0.6679  0.7837
42016SOL     OW32908  11.043   0.352  12.259 -0.1176 -0.4441 -0.0219
42016SOL    HW132909  11.127   0.357  12.213 -0.4793  1.4341 -0.5682
42016SOL    HW232910  11.052   0.411  12.333 -0.9561 -0.2339 -0.0769
42017SOL     OW32911   2.534   4.280   8.098  0.0191 -0.0073 -0.0478
42017SOL    HW132912   2.440   4.263   8.094  0.1170 -0.6219  0.1554
42017SOL    HW232913   2.541   4.365   8.142 -0.4795  0.5687 -1.0242
42018SOL     OW32914   6.097  11.748   7.963  0.6378  0.3319  0.6721
42018SOL    HW132915   6.172  11.732   7.905  0.4513 -1.3448  0.8399
42018SOL    HW232916   6.132  11.733   8.051 -0.0190 -1.1565  0.7103
42019SOL     OW32917   3.248   1.285  10.297 -0.0619  0.3392  0.1832
42019SOL    HW132918   3.160   1.319  10.285 -0.3626 -1.0427 -1.8413
42019SOL    HW232919   3.282   1.271  10.209  2.1809  0.7304  0.8934
42020SOL     OW32920   6.375   2.705   5.016 -0.0322  0.4046 -0.0482
42020SOL    HW132921   6.283   2.685   5.000 -0.4988  1.5539  1.0757
42020SOL    HW232922   6.406   2.741   4.933 -0.9341  1.1790 -0.0593
42021SOL     OW32923   6.475   1.633  11.874  0.7349 -0.4208  0.4319
42021SOL    HW132924   6.472   1.577  11.796  0.0042 -0.2472  0.3259
42021SOL    HW232925   6.459   1.573  11.947  0.6587 -0.4595  0.3838
42022SOL     OW32926   4.961   4.892   0.166  0.4588  0.5298  0.6302
42022SOL    HW132927   4.880   4.943   0.177  0.1654  0.4664 -0.9663
42022SOL    HW232928   4.965   4.874   0.072  2.4359  0.6930  0.6407
42023SOL     OW32929   5.584   2.798   0.462 -0.3677 -0.2400  0.1593
42023SOL    HW132930   5.622   2.712   0.443  0.7474  0.2839 -0.0776
42023SOL    HW232931   5.648   2.860   0.428 -1.1671  0.6885  0.3173
42024SOL     OW32932   0.035   6.845   8.772  0.3403 -0.2176  1.0815
42024SOL    HW132933   0.024   6.799   8.855  0.0532 -0.6420  0.8096
42024SOL    HW232934   0.028   6.777   8.706  1.0429  0.0475  0.7276
42025SOL     OW32935   2.622   1.690   2.383  0.4252  0.4442  0.4477
42025SOL    HW132936   2.585   1.757   2.441 -1.3946  0.0945 -0.2230
42025SOL    HW232937   2.639   1.616   2.441 -0.9972  0.2382  0.6486
42026SOL     OW32938   2.739  10.089   7.597  0.7874 -0.2693 -0.3939
42026SOL    HW132939   2.776  10.031   7.530  2.1991  1.1991 -0.9455
42026SOL    HW232940   2.814  10.114   7.651  0.0556  0.3975  0.3280
42027SOL     OW32941   4.258   6.106   1.520 -0.0454  0.2665 -0.0684
42027SOL    HW132942   4.194   6.056   1.471 -2.0403  0.6011  2.0057
42027SOL    HW232943   4.298   6.165   1.456 -1.8599  0.0742 -1.4398
42028SOL     OW32944  10.474   5.210   4.969 -0.1890 -0.3102  0.2704
42028SOL    HW132945  10.547   5.172   4.920  1.6410  0.0547  2.4819
42028SOL    HW232946  10.476   5.166   5.054 -1.4539  0.9199  0.9973
42029SOL     OW32947  12.361  11.482   0.177  0.3165 -0.4737 -0.4664
42029SOL    HW132948  12.362  11.387   0.177 -2.0908 -0.5433 -0.6828
42029SOL    HW232949  12.399  11.506   0.262  1.1698 -1.5928 -0.5117
42030SOL     OW32950   1.175   8.916  10.503 -0.0867 -0.4858 -0.4368
42030SOL    HW132951   1.127   8.914  10.585  1.0374 -0.4593  0.2414
42030SOL    HW232952   1.156   8.831  10.462  0.8999 -1.3417  0.7909
42031SOL     OW32953   9.087   6.078  11.090  0.0298  0.5076  0.4183
42031SOL    HW132954   8.991   6.084  11.082  0.0589  0.0010 -0.4711
42031SOL    HW232955   9.120   6.143  11.028  0.2652 -0.7087 -0.7599
42032SOL     OW32956   3.226   1.561   0.134 -0.0868 -0.6157  0.1056
42032SOL    HW132957   3.312   1.521   0.125 -0.4361 -1.7347  1.5087
42032SOL    HW232958   3.244   1.645   0.177  0.2749 -1.0098  0.7395
42033SOL     OW32959   5.376  10.139   1.392 -0.0610  0.2564  0.0074
42033SOL    HW132960   5.284  10.113   1.394 -0.8127  2.0722 -3.2974
42033SOL    HW232961   5.391  10.180   1.478 -2.1770 -0.4553  0.7897
42034SOL     OW32962   9.022   7.176   3.755 -0.7140 -0.0381 -0.4103
42034SOL    HW132963   8.998   7.227   3.833 -0.5369 -1.2847  0.4933
42034SOL    HW232964   8.938   7.150   3.717 -0.8235 -0.6886  0.2442
42035SOL     OW32965   4.116  10.046   9.491 -0.5237  0.0887 -0.5808
42035SOL    HW132966   4.113  10.132   9.449  1.3632  1.1309  1.2446
42035SOL    HW232967   4.179   9.996   9.439 -0.4079  0.3653 -0.7089
42036SOL     OW32968   5.441  10.176  10.733 -0.0783  0.3494  0.4063
42036SOL    HW132969   5.407  10.229  10.804 -0.3132 -1.3658  1.6276
42036SOL    HW232970   5.396  10.092  10.741  1.4887 -0.6279 -0.4125
42037SOL     OW32971   4.368   4.227  11.995  0.0339  0.5523 -0.0939
42037SOL    HW132972   4.408   4.308  11.963 -1.6740  1.0553 -1.0736
42037SOL    HW232973   4.390   4.224  12.088  2.5078  0.6509 -0.5933
42038SOL     OW32974   5.223   9.365  10.026  0.0811 -0.1329  0.0745
42038SOL    HW132975   5.302   9.403  10.065 -0.3367  1.9904 -0.9714
42038SOL    HW232976   5.154   9.384  10.088 -0.0299  0.3401 -0.1878
42039SOL     OW32977   7.683   3.169  10.914 -0.0661  0.0583  0.2564
42039SOL    HW132978   7.599   3.213  10.928 -0.4021 -0.9259  1.4414
42039SOL    HW232979   7.708   3.194  10.824 -0.5874  2.0507  0.6088
42040SOL     OW32980   1.303   4.486   8.803 -0.3118 -0.2198  0.0917
42040SOL    HW132981   1.374   4.422   8.801  0.3061  0.4620 -0.5694
42040SOL    HW232982   1.223   4.433   8.802  0.1676 -0.9997 -1.8046
42041SOL     OW32983   6.514   0.826   4.470 -0.6578 -0.3150  0.3235
42041SOL    HW132984   6.477   0.748   4.428 -1.2505 -0.2247  0.6640
42041SOL    HW232985   6.438   0.876   4.499 -0.2719  0.1151  0.6148
42042SOL     OW32986   0.340   2.518  10.242 -0.2055  0.1115  0.2290
42042SOL    HW132987   0.367   2.434  10.206 -0.6619  0.6993 -1.5515
42042SOL    HW232988   0.271   2.497  10.304  0.4621 -0.9051  0.6496
42043SOL     OW32989  11.219  10.434   3.102 -0.2084  0.0773 -0.5386
42043SOL    HW132990  11.212  10.483   3.020  0.1260  1.0561  0.0087
42043SOL    HW232991  11.264  10.353   3.078 -2.3173 -0.8161 -1.7933
42044SOL     OW32992   7.821   2.187   8.642  0.1225 -0.0657  0.3255
42044SOL    HW132993   7.765   2.109   8.637 -0.1195  0.0841  0.6599
42044SOL    HW232994   7.782   2.240   8.711  0.4951  0.1896  0.3438
42045SOL     OW32995   3.428   4.000  11.740  0.8994 -0.6105 -0.3960
42045SOL    HW132996   3.341   4.000  11.780  1.5385  0.4121  1.0711
42045SOL    HW232997   3.467   3.917  11.768  1.3119  0.0617  1.1048
42046SOL     OW32998   1.017   5.738   1.252  0.0403 -0.8451 -0.2615
42046SOL    HW132999   1.035   5.775   1.339 -0.6936 -0.0742 -0.4214
42046SOL    HW233000   0.986   5.813   1.200 -1.1982 -1.6195 -0.6866
42047SOL     OW33001  11.279   5.326   4.216  0.1933  0.2267 -0.1626
42047SOL    HW133002  11.350   5.363   4.269  1.5568 -0.0349 -1.7143
42047SOL    HW233003  11.264   5.239   4.253 -1.6260  1.4118  2.2104
42048SOL     OW33004  12.334   2.834   8.160  0.2123  0.2311  0.4145
42048SOL    HW133005  12.415   2.828   8.111 -0.4783  2.9287 -1.2970
42048SOL    HW233006  12.361   2.837   8.252  1.8140 -1.3221  0.0242
42049SOL     OW33007  11.153   6.074   0.768 -0.4144 -0.3550  0.1379
42049SOL    HW133008  11.152   6.061   0.863 -0.2679 -0.0491  0.1830
42049SOL    HW233009  11.239   6.043   0.740 -0.5345 -0.6367  0.0745
42050SOL     OW33010  11.521   9.036   3.199  0.5130  0.1533  0.2260
42050SOL    HW133011  11.501   9.061   3.290  1.2570  1.9848 -0.0773
42050SOL    HW233012  11.438   9.002   3.166 -0.1358  0.6944  1.2079
42051SOL     OW33013  10.847   0.177   1.505  0.4035  0.5517  0.0750
42051SOL    HW133014  10.818   0.260   1.467  0.1518  0.3497 -0.1808
42051SOL    HW233015  10.766   0.137   1.538  0.2123 -0.4450 -1.4734
42052SOL     OW33016  10.611   4.424   0.568  0.5098  0.2761  0.5800
42052SOL    HW133017  10.563   4.350   0.606 -1.0263  0.6131 -0.6088
42052SOL    HW233018  10.697   4.389   0.547  0.8459 -0.3610  2.7506
42053SOL     OW33019   7.185  11.583   3.922  0.5519 -0.5005  0.3555
42053SOL    HW133020   7.146  11.549   4.002 -0.6539  0.2168  0.0959
42053SOL    HW233021   7.232  11.662   3.950 -1.6722  1.0117  0.0995
42054SOL     OW33022   9.318   2.681   4.840 -0.7312  0.0628 -0.4242
42054SOL    HW133023   9.308   2.674   4.745 -3.4497  1.0225 -0.2929
42054SOL    HW233024   9.390   2.620   4.861 -0.0976 -0.2140 -3.0471
42055SOL     OW33025   8.519   3.973   4.003  0.0788 -0.3385  0.3409
42055SOL    HW133026   8.566   4.052   3.974 -0.2081  0.1556  1.1834
42055SOL    HW233027   8.428   3.990   3.981 -0.4463  0.8149  2.9712
42056SOL     OW33028   4.991   0.084  12.154  0.4366  0.0372  0.0802
42056SOL    HW133029   4.916   0.036  12.190  1.6040 -2.2977 -0.3499
42056SOL    HW233030   5.050   0.097  12.228  0.4563  0.0932  0.0544
42057SOL     OW33031   6.955   7.852   3.335  0.7250  0.3032  0.1075
42057SOL    HW133032   6.989   7.834   3.248 -0.5047 -1.8142  0.0075
42057SOL    HW233033   7.030   7.839   3.393  1.0933 -0.1261 -0.4603
42058SOL     OW33034   1.709   5.867  10.042  0.1940 -0.3464  0.3514
42058SOL    HW133035   1.674   5.939  10.096 -0.7830 -1.9580  1.9774
42058SOL    HW233036   1.770   5.822  10.101  2.4751  0.3769 -1.3423
42059SOL     OW33037  11.733   2.441   6.976 -0.0511 -0.1957  0.4973
42059SOL    HW133038  11.782   2.384   7.035 -0.9623 -1.1017  0.4117
42059SOL    HW233039  11.674   2.489   7.034 -0.3474 -0.4572  0.4114
42060SOL     OW33040  11.048   2.957   0.318 -0.0680 -0.2732  0.1335
42060SOL    HW133041  11.036   2.952   0.223 -0.7705 -0.2250  0.2161
42060SOL    HW233042  11.085   2.871   0.341  1.5241  0.2357 -0.3624
42061SOL     OW33043  11.905   2.070   4.282 -0.4506 -0.1177 -0.3950
42061SOL    HW133044  11.885   2.015   4.207 -0.3320 -0.1330 -0.4157
42061SOL    HW233045  11.825   2.069   4.335 -0.9754  0.8822 -1.1317
42062SOL     OW33046   2.741   7.835   9.954 -0.2546 -0.6649  0.4839
42062SOL    HW133047   2.806   7.766   9.946 -0.3585 -0.5903 -1.4800
42062SOL    HW233048   2.658   7.794   9.929  0.0559  0.6315 -3.4247
42063SOL     OW33049   9.168   1.926   6.716  0.3569  0.1461  0.6221
42063SOL    HW133050   9.171   1.853   6.778 -0.7711 -0.2835  0.1850
42063SOL    HW233051   9.218   1.995   6.760  2.9011 -1.3651  0.3642
42064SOL     OW33052   7.358   4.497   1.681  0.6084 -0.3231  0.0121
42064SOL    HW133053   7.327   4.586   1.666  0.1098 -0.6017 -0.6605
42064SOL    HW233054   7.451   4.499   1.659  0.3627 -0.2128 -1.0761
42065SOL     OW33055   2.849   0.904  11.221 -0.8596 -0.1146 -0.4592
42065SOL    HW133056   2.896   0.879  11.142 -1.2847  0.9643 -1.0651
42065SOL    HW233057   2.834   0.998  11.212  2.7945  1.0486  2.8078
42066SOL     OW33058   5.577   9.884   0.868  0.1760 -0.1625 -0.3076
42066SOL    HW133059   5.549   9.894   0.777  1.1511  1.3143 -0.4765
42066SOL    HW233060   5.670   9.861   0.863 -0.5856 -4.0636  0.2716
42067SOL     OW33061   2.820   4.458   1.448  0.2178 -0.7651 -0.4159
42067SOL    HW133062   2.732   4.421   1.448  0.2786 -1.3590  3.9494
42067SOL    HW233063   2.870   4.401   1.389 -1.9005 -1.3727 -1.7384
42068SOL     OW33064   5.548   4.895   2.094  0.0312  0.5853  0.6358
42068SOL    HW133065   5.474   4.955   2.102 -0.8416  0.0051 -2.0709
42068SOL    HW233066   5.518   4.814   2.135 -0.5161  0.6290  0.3295
42069SOL     OW33067   6.842   1.370   1.313  0.1915 -0.3907  0.4201
42069SOL    HW133068   6.930   1.406   1.309 -0.2098  0.5534 -0.7281
42069SOL    HW233069   6.853   1.281   1.344  1.4895 -0.1076  0.8129
42070SOL     OW33070   4.760   3.998   5.717 -0.1237 -0.6162  0.2265
42070SOL    HW133071   4.699   3.937   5.675 -0.7780 -0.5966  1.1320
42070SOL    HW233072   4.783   4.060   5.648 -1.6430 -0.2238  0.0486
42071SOL     OW33073   6.684   5.757   2.502 -0.2125  0.1074 -0.4114
42071SOL    HW133074   6.669   5.810   2.423 -0.3869  0.1936 -0.3221
42071SOL    HW233075   6.735   5.682   2.472 -0.8473 -0.2007 -0.7298
42072SOL     OW33076   4.637  11.361   2.300  0.0276 -0.4711 -0.2601
42072SOL    HW133077   4.704  11.333   2.238 -0.2677  1.3330 -1.4869
42072SOL    HW233078   4.558  11.316   2.271 -0.0850  0.2722 -1.1992
42073SOL     OW33079  10.229   3.371   8.654  0.4869 -0.5290 -0.8777
42073SOL    HW133080  10.308   3.418   8.627  1.9072 -2.5466 -0.4237
42073SOL    HW233081  10.260   3.304   8.714 -1.4955 -1.8817 -1.2606
42074SOL     OW33082   2.600   9.878   6.570  0.6229  0.3949 -0.1251
42074SOL    HW133083   2.674   9.936   6.585  0.6728  0.2459  0.2121
42074SOL    HW233084   2.561   9.910   6.489  0.7774  0.7657 -0.0569
42075SOL     OW33085  12.310  11.744   9.099 -0.2267 -0.0152 -0.6444
42075SOL    HW133086  12.356  11.745   9.015 -0.3273  1.2118 -0.7008
42075SOL    HW233087  12.237  11.804   9.087 -0.9018 -0.6914 -0.0259
42076SOL     OW33088   3.734  11.228   9.065  0.3096  0.3627  0.3328
42076SOL    HW133089   3.776  11.313   9.082 -1.9808  1.1156  2.9531
42076SOL    HW233090   3.640  11.248   9.063 -0.2345 -1.9839  0.0583
42077SOL     OW33091   4.012   2.723   0.534  0.2179  0.1001 -0.6613
42077SOL    HW133092   4.032   2.724   0.441 -0.9527  0.4660 -0.9313
42077SOL    HW233093   3.973   2.810   0.551 -0.6539 -0.3782 -0.1043
42078SOL     OW33094   4.481   9.971  11.779  0.3495  0.0871  0.0664
42078SOL    HW133095   4.486  10.066  11.778  0.1911  0.0935 -0.2908
42078SOL    HW233096   4.531   9.943  11.702 -0.3882 -0.0752 -0.3687
42079SOL     OW33097  12.462  10.550  10.542 -0.6136 -0.1615  0.1684
42079SOL    HW133098  12.534  10.493  10.513  0.1512  1.6961 -1.8289
42079SOL    HW233099  12.398  10.544  10.472 -1.4138 -0.0548  0.8753
42080SOL     OW33100   2.388   9.982   0.870 -0.1913  0.1033 -0.2527
42080SOL    HW133101   2.400   9.897   0.912  0.1125 -0.0204 -0.5803
42080SOL    HW233102   2.477  10.009   0.846 -0.2723  0.5772 -0.0286
42081SOL     OW33103  12.315   4.553   3.521  0.0861  0.5012 -0.0614
42081SOL    HW133104  12.280   4.599   3.597  0.3748 -0.3209  0.5935
42081SOL    HW233105  12.364   4.620   3.473  3.5409  0.2919  2.7196
42082SOL     OW33106   6.498   8.156  10.460  0.5252  0.3075 -0.3080
42082SOL    HW133107   6.513   8.251  10.462  0.0547  0.3705  0.4282
42082SOL    HW233108   6.579   8.119  10.495  0.4612  0.4660  0.0105
42083SOL     OW33109  11.849  12.104   1.826  0.2149  1.0776 -0.4300
42083SOL    HW133110  11.782  12.121   1.759  0.1535  1.1135 -0.3602
42083SOL    HW233111  11.817  12.025   1.871  0.6133  0.6392 -0.8999
42084SOL     OW33112   9.363   6.624   3.577 -0.2258  0.2101  0.2644
42084SOL    HW133113   9.368   6.535   3.614 -2.4235 -0.5360 -1.0542
42084SOL    HW233114   9.398   6.614   3.488 -1.2626  0.4588 -0.1788
42085SOL     OW33115  11.287   0.634   6.288  0.3945 -1.1954 -0.1331
42085SOL    HW133116  11.261   0.607   6.200 -1.2139 -0.8077  0.1765
42085SOL    HW233117  11.299   0.552   6.336  1.3983 -1.4109 -0.7209
42086SOL     OW33118   2.487   7.730   1.853  0.1016 -0.4870  0.3652
42086SOL    HW133119   2.572   7.746   1.812 -0.3627 -0.8031 -0.7613
42086SOL    HW233120   2.430   7.705   1.780 -1.5059  1.6931  0.7841
42087SOL     OW33121  11.921   9.668  11.284 -0.2565  0.1945  0.4002
42087SOL    HW133122  11.867   9.625  11.218 -0.5613  1.7016 -0.3716
42087SOL    HW233123  11.859   9.713  11.341  0.0453 -0.5309  1.3276
42088SOL     OW33124  10.366   5.074   0.605 -0.3072  0.1123  0.5824
42088SOL    HW133125  10.371   5.010   0.676  2.7999 -1.5886 -0.9723
42088SOL    HW233126  10.336   5.024   0.529  0.4537  0.8903 -0.2554
42089SOL     OW33127   5.151   3.307   0.531  0.3827  0.3641  0.0417
42089SOL    HW133128   5.153   3.242   0.600 -1.2722 -0.5745 -0.7309
42089SOL    HW233129   5.240   3.307   0.495  1.1618  0.6215  1.8925
42090SOL     OW33130   4.046  10.859   4.220  0.2067 -0.1255  0.0984
42090SOL    HW133131   4.045  10.943   4.266  0.0283 -0.6406  1.0539
42090SOL    HW233132   4.040  10.793   4.289 -3.0193 -0.9063 -0.7639
42091SOL     OW33133   3.835   4.950  10.281  0.3609 -0.1094 -0.4551
42091SOL    HW133134   3.856   5.043  10.265 -0.6930  0.0585 -0.9877
42091SOL    HW233135   3.833   4.942  10.376  1.9474  0.0446 -0.3765
42092SOL     OW33136   8.440  10.590  12.383  0.4071  0.5468 -0.9654
42092SOL    HW133137   8.480  10.516  12.429  1.3093  1.1955 -0.6738
42092SOL    HW233138   8.504  10.661  12.391  0.5677  0.7018 -3.2157
42093SOL     OW33139   1.506  10.862  12.458 -0.7455  0.3463 -0.2418
42093SOL    HW133140   1.434  10.863  12.394  0.0983 -1.9494 -1.3100
42093SOL    HW233141   1.468  10.821  12.536 -1.3160  1.6737  0.2177
42094SOL     OW33142   9.976   6.160   7.085 -0.5732 -0.6006 -0.1867
42094SOL    HW133143   9.887   6.144   7.056 -0.1431 -1.6597 -0.9860
42094SOL    HW233144  10.013   6.073   7.098  0.5749 -0.1881 -0.5740
42095SOL     OW33145   3.579   6.383   7.163 -0.1240  0.2542  0.1122
42095SOL    HW133146   3.567   6.290   7.144  0.1131  0.2513 -0.0330
42095SOL    HW233147   3.491   6.418   7.169 -0.2121  0.1399 -0.4401
42096SOL     OW33148  11.273   0.729   2.581  0.2527  0.3267 -0.3347
42096SOL    HW133149  11.203   0.762   2.638  0.8331  0.0889  0.5226
42096SOL    HW233150  11.344   0.793   2.590  0.9433 -0.5292  0.4403
42097SOL     OW33151   4.509  10.665   2.277 -0.1732 -0.0820 -0.4458
42097SOL    HW133152   4.445  10.701   2.338 -1.5428  1.3324 -2.6135
42097SOL    HW233153   4.573  10.735   2.266 -0.2805 -0.0906 -1.1214
42098SOL     OW33154   2.721  10.485  10.113 -1.0914  0.5531 -0.5621
42098SOL    HW133155   2.764  10.434  10.045 -1.0729  0.5071 -0.5154
42098SOL    HW233156   2.692  10.565  10.069 -1.3464  0.3901 -0.6928
42099SOL     OW33157   9.648   5.686   3.255  0.1006 -0.4492  0.1009
42099SOL    HW133158   9.668   5.679   3.349 -1.0650 -0.4500  0.3715
42099SOL    HW233159   9.559   5.650   3.248 -0.7000  1.5779 -0.6492
42100SOL     OW33160   7.720  12.097   6.710  0.4688  0.0626  0.3322
42100SOL    HW133161   7.776  12.048   6.771  1.0550  1.8322  1.3179
42100SOL    HW233162   7.643  12.121   6.762 -0.1730 -0.4445 -0.3604
42101SOL     OW33163  10.683  11.616   5.043 -0.1251 -0.7257  0.5152
42101SOL    HW133164  10.611  11.594   5.101 -0.2896 -1.4483  0.0507
42101SOL    HW233165  10.683  11.712   5.039  1.5069 -0.4662  3.7276
42102SOL     OW33166   4.180   3.929   9.111  0.2684 -0.0696 -0.1631
42102SOL    HW133167   4.104   3.944   9.167 -0.2145 -0.0140 -0.8197
42102SOL    HW233168   4.185   4.008   9.056 -0.6512 -1.0768 -1.7721
42103SOL     OW33169   7.041   4.328   5.060  0.3572 -0.2990 -0.0962
42103SOL    HW133170   6.960   4.349   5.014 -0.0490 -1.7256 -0.1033
42103SOL    HW233171   7.021   4.345   5.152  0.2450 -0.0912 -0.1584
42104SOL     OW33172   1.670   5.881  10.639 -0.3389  0.2789  0.2469
42104SOL    HW133173   1.669   5.805  10.697  1.1571 -0.1540 -0.2531
42104SOL    HW233174   1.659   5.845  10.551  3.7178  0.1375 -0.3956
42105SOL     OW33175   3.416   7.184   9.320  0.5693 -0.4570 -0.2964
42105SOL    HW133176   3.424   7.277   9.298  1.6241 -0.3743  0.3675
42105SOL    HW233177   3.478   7.140   9.261  1.0694 -0.5814  0.3115
42106SOL     OW33178  11.658  10.059   5.551 -0.1633 -0.4965 -0.3482
42106SOL    HW133179  11.677  10.149   5.525 -0.3604 -0.6228 -0.9285
42106SOL    HW233180  11.741  10.013   5.540 -0.4504 -0.7436 -1.5976
42107SOL     OW33181   5.407   6.665  10.435  0.0120 -0.6611 -0.4931
42107SOL    HW133182   5.333   6.626  10.481 -0.8062  0.6247 -0.6701
42107SOL    HW233183   5.448   6.592  10.389 -0.1481 -1.6844  0.9228
42108SOL     OW33184   6.484  11.179   3.871 -0.1127  0.4707 -0.0009
42108SOL    HW133185   6.516  11.165   3.782  1.7914  1.5645  0.4438
42108SOL    HW233186   6.472  11.091   3.906  1.7361 -0.0434 -0.4956
42109SOL     OW33187   0.762   8.786  11.902  0.2492 -0.5810 -0.1531
42109SOL    HW133188   0.774   8.721  11.834  1.4840 -2.5722  1.8347
42109SOL    HW233189   0.796   8.744  11.982 -1.7346  1.3322  1.8387
42110SOL     OW33190   2.844   0.088   9.328  0.1923  0.2804  0.5035
42110SOL    HW133191   2.844   0.146   9.405  1.6226  1.1650 -0.1155
42110SOL    HW233192   2.809   0.143   9.257  0.8629  0.1590  0.0708
42111SOL     OW33193   9.368   3.547   1.045 -0.4786 -0.4018  0.2764
42111SOL    HW133194   9.398   3.471   1.094  0.0673  0.0567  0.6724
42111SOL    HW233195   9.430   3.617   1.069 -0.0090 -0.2398 -1.2912
42112SOL     OW33196   7.792   3.659   6.077 -0.7186 -0.2050 -0.6842
42112SOL    HW133197   7.785   3.603   6.155  1.0859 -0.0002 -0.3233
42112SOL    HW233198   7.723   3.724   6.088  0.7569  1.1310  1.9020
42113SOL     OW33199   8.932  10.532   0.912 -0.0897 -0.2717  0.3161
42113SOL    HW133200   8.979  10.607   0.876 -3.1788  0.7261 -2.1526
42113SOL    HW233201   8.855  10.523   0.855 -0.8322 -4.1952  1.6522
42114SOL     OW33202   2.802   4.744   3.363  0.0093 -0.3607  0.2832
42114SOL    HW133203   2.825   4.661   3.322 -3.5672 -0.7025 -1.4797
42114SOL    HW233204   2.815   4.809   3.294  0.2297  0.1373  0.7870
42115SOL     OW33205   9.110   0.525   9.778  0.0910 -0.4047 -0.3114
42115SOL    HW133206   9.109   0.613   9.740  1.2804 -1.1954 -2.3766
42115SOL    HW233207   9.145   0.537   9.866  1.2311  1.0877 -0.9219
42116SOL     OW33208   8.055   2.700   6.780  0.2487  0.0593 -0.1201
42116SOL    HW133209   7.960   2.683   6.781  0.1427  0.5793  1.6363
42116SOL    HW233210   8.093   2.626   6.827  0.5161  0.7480  0.7867
42117SOL     OW33211   2.014   5.893   6.654 -0.1500  0.0762 -0.6686
42117SOL    HW133212   1.985   5.832   6.586  2.9682 -1.1488 -1.0759
42117SOL    HW233213   2.039   5.972   6.607  0.9297 -0.3640 -0.8772
42118SOL     OW33214   2.572   8.952   1.040  0.1907 -0.0016 -0.3068
42118SOL    HW133215   2.547   9.000   0.961  0.8109  0.0501 -0.4779
42118SOL    HW233216   2.606   8.869   1.008  0.7377  0.1425 -0.1255
42119SOL     OW33217   4.813   8.363   8.867 -0.1989 -0.0508  0.1586
42119SOL    HW133218   4.767   8.282   8.888 -1.1957  0.9903  2.3066
42119SOL    HW233219   4.885   8.336   8.809 -2.0862 -2.0464 -1.4003
42120SOL     OW33220   7.736   9.849   6.087 -0.3157  0.3482  0.0096
42120SOL    HW133221   7.718   9.930   6.040 -1.6573 -0.0048 -0.1278
42120SOL    HW233222   7.650   9.808   6.097  0.0998 -0.1839  1.6796
42121SOL     OW33223   5.363  10.278  11.256 -0.4302 -0.4457 -0.0250
42121SOL    HW133224   5.335  10.369  11.244 -0.9307 -0.8471 -2.2108
42121SOL    HW233225   5.415  10.280  11.337 -0.9152  1.6577  0.2982
42122SOL     OW33226   8.299   0.489   4.256  0.3067 -0.0179  0.0899
42122SOL    HW133227   8.247   0.501   4.335  0.0530 -0.5088  0.0013
42122SOL    HW233228   8.330   0.399   4.262  1.4100  0.3534  0.2965
42123SOL     OW33229   1.987   3.618   2.638  0.6217 -0.6931  0.1727
42123SOL    HW133230   1.983   3.687   2.704  0.1530 -0.4940 -0.0589
42123SOL    HW233231   2.071   3.631   2.594  0.4219 -0.1200 -0.0359
42124SOL     OW33232   8.082   6.225  12.015  0.1359 -0.7563 -0.1443
42124SOL    HW133233   8.024   6.156  11.981  0.5678 -1.7089  0.9756
42124SOL    HW233234   8.120   6.187  12.094  1.0056  0.4888  0.0624
42125SOL     OW33235   0.628   9.777  12.229 -0.3086 -0.1789 -0.2674
42125SOL    HW133236   0.546   9.747  12.192  0.4589 -1.4252 -1.0124
42125SOL    HW233237   0.636   9.868  12.199 -1.1003 -0.2536 -0.7204
42126SOL     OW33238   3.712   3.495  11.281 -0.0632  0.5488  0.7002
42126SOL    HW133239   3.633   3.540  11.310 -0.8337  0.5239 -1.1983
42126SOL    HW233240   3.685   3.404  11.267 -0.2758  0.9298 -1.8227
42127SOL     OW33241   4.996   0.758   4.105  0.0695  0.0644  0.1010
42127SOL    HW133242   5.038   0.819   4.044 -0.2733  0.1508 -0.0520
42127SOL    HW233243   5.065   0.696   4.128  0.5700  0.8237  0.6787
42128SOL     OW33244  12.358   5.835   9.838 -0.3258 -0.1394 -0.2251
42128SOL    HW133245  12.302   5.759   9.854 -0.4907 -0.1584 -0.8836
42128SOL    HW233246  12.369   5.838   9.743 -1.2216  1.2880 -0.3198
42129SOL     OW33247   9.838   6.373  10.267  0.3487  0.1653 -0.0138
42129SOL    HW133248   9.877   6.381  10.354 -0.8524  0.2147  0.5316
42129SOL    HW233249   9.910   6.342  10.212  1.0586 -0.1365  1.0466
42130SOL     OW33250   6.656   7.615  11.870 -0.7371  0.1856  0.7367
42130SOL    HW133251   6.614   7.583  11.950 -0.2380 -0.8327  0.6056
42130SOL    HW233252   6.713   7.543  11.842  0.4105  1.1823  0.4219
42131SOL     OW33253  12.333   6.419   7.076 -0.7181 -0.2589 -0.6062
42131SOL    HW133254  12.348   6.513   7.064 -0.4391 -0.3506 -0.9751
42131SOL    HW233255  12.291   6.390   6.995  0.5623 -0.7460 -1.1129
42132SOL     OW33256   9.845   9.878   8.021  0.3398  0.3684 -0.0871
42132SOL    HW133257   9.902   9.839   7.956 -1.0322 -1.7522 -0.1139
42132SOL    HW233258   9.853   9.972   8.007  2.1166  0.0541 -1.5078
42133SOL     OW33259   1.075   6.550   4.211  0.4720  0.6359  0.8184
42133SOL    HW133260   1.096   6.546   4.118 -1.4034  1.7027  0.3062
42133SOL    HW233261   1.157   6.578   4.253  1.9824 -1.9885 -0.1844
42134SOL     OW33262   1.289   3.192   2.315  0.3289  0.3699 -0.2209
42134SOL    HW133263   1.241   3.226   2.240 -1.1724 -1.5860 -0.2215
42134SOL    HW233264   1.275   3.097   2.312  1.0680  0.1292  1.9672
42135SOL     OW33265   3.652  11.150   7.249  0.5415  0.1943 -0.2860
42135SOL    HW133266   3.581  11.194   7.296 -0.8558 -0.0306 -2.0887
42135SOL    HW233267   3.697  11.220   7.202  1.0676  0.2409  0.2797
42136SOL     OW33268   3.946   9.896   9.094 -0.6842 -0.4775 -0.4061
42136SOL    HW133269   3.869   9.848   9.064 -1.2377 -1.4719  2.2795
42136SOL    HW233270   3.910   9.965   9.149  0.2958  0.0961 -0.4768
42137SOL     OW33271   3.573   6.401  12.438 -0.2690 -0.2230 -0.0993
42137SOL    HW133272   3.597   6.312  12.466 -1.0725 -0.5279 -0.3508
42137SOL    HW233273   3.597   6.404  12.346  0.9532  0.2695  0.2095
42138SOL     OW33274   5.127   1.756   1.124 -0.0698 -0.9916  0.0531
42138SOL    HW133275   5.157   1.696   1.056  0.0797 -1.9473  0.9448
42138SOL    HW233276   5.051   1.712   1.162 -0.3601 -0.3047  0.2773
42139SOL     OW33277   7.880   7.494  11.952  0.1119 -0.0528  0.0368
42139SOL    HW133278   7.836   7.578  11.965  1.1303  0.2913  1.4932
42139SOL    HW233279   7.936   7.508  11.875 -0.7003  0.1690 -0.5265
42140SOL     OW33280  12.439   2.199   0.919 -0.0661 -0.6424 -0.0155
42140SOL    HW133281  12.480   2.252   0.851 -0.6935  0.7620  0.6530
42140SOL    HW233282  12.458   2.246   1.001  1.4376 -2.7393  0.9392
42141SOL     OW33283  11.670   2.730   1.166 -0.2229 -0.1599 -0.0479
42141SOL    HW133284  11.760   2.709   1.141  0.6473  1.2084  1.7115
42141SOL    HW233285  11.658   2.821   1.138 -0.1666  0.4866  1.9072
42142SOL     OW33286   8.178   9.739  11.071  0.5316  0.2987 -0.2255
42142SOL    HW133287   8.174   9.834  11.068  1.0581  0.3245 -0.1413
42142SOL    HW233288   8.203   9.712  10.983 -0.3194  0.1921 -0.4496
42143SOL     OW33289   1.428   5.031   6.370 -0.0353 -0.5908 -0.1307
42143SOL    HW133290   1.485   5.059   6.441 -1.7940  1.9835  0.3890
42143SOL    HW233291   1.461   5.078   6.293 -1.7690  1.5150  0.3244
42144SOL     OW33292  11.102   9.360   1.791 -0.0851 -0.1693  0.1336
42144SOL    HW133293  11.179   9.407   1.823 -0.0077 -0.4017  0.2888
42144SOL    HW233294  11.059   9.328   1.870 -0.2639 -0.1628  0.0394
42145SOL     OW33295   5.203   2.373   3.743 -0.8730 -0.1329 -0.0212
42145SOL    HW133296   5.186   2.416   3.826 -1.5632  1.5857 -1.0006
42145SOL    HW233297   5.237   2.287   3.767 -0.0489  0.6992  2.0285
42146SOL     OW33298   0.065   2.540   3.444 -0.2445  1.0543  0.4282
42146SOL    HW133299  -0.010   2.598   3.462  1.2347  3.2424 -0.0623
42146SOL    HW233300   0.136   2.600   3.419  1.1888 -1.0619 -0.8379
42147SOL     OW33301   1.412   8.332   3.072 -0.0549  0.0493  0.5562
42147SOL    HW133302   1.458   8.381   3.004 -0.2245 -1.3864 -0.6368
42147SOL    HW233303   1.335   8.385   3.091 -0.5941 -0.0407 -1.1991
42148SOL     OW33304   6.757  11.951   9.047  0.1250 -0.1403 -0.1237
42148SOL    HW133305   6.718  11.991   8.969  0.5986  0.2273 -0.1717
42148SOL    HW233306   6.757  11.858   9.028  1.2096  0.0233 -1.0130
42149SOL     OW33307   5.072   9.060   6.055 -0.0369  0.3003 -0.4069
42149SOL    HW133308   5.051   9.042   5.964 -2.5801 -1.2104  0.3554
42149SOL    HW233309   5.113   8.979   6.086 -2.4396 -0.6517  0.5765
42150SOL     OW33310  11.124   5.445   5.393 -0.2393  0.3671  0.3414
42150SOL    HW133311  11.103   5.397   5.313  1.8339 -0.0886  0.0290
42150SOL    HW233312  11.156   5.530   5.363 -1.6663  1.1095  0.8102
42151SOL     OW33313   7.237   6.510   8.142  0.0186  0.1040  0.9021
42151SOL    HW133314   7.172   6.442   8.158 -0.2398  0.2172  0.3486
42151SOL    HW233315   7.187   6.586   8.114  0.4398 -0.0948 -0.4580
42152SOL     OW33316   7.747  10.718   3.215 -0.2479 -0.5285  0.1068
42152SOL    HW133317   7.788  10.800   3.188 -0.6123 -0.9363 -1.8572
42152SOL    HW233318   7.653  10.735   3.206 -0.3763 -0.7260  1.0558
42153SOL     OW33319   4.961   8.365   3.645 -0.7346  0.0804  0.5135
42153SOL    HW133320   4.962   8.379   3.550  3.2523 -0.7642  0.2665
42153SOL    HW233321   4.910   8.285   3.657 -0.1604 -0.5623 -1.0912
42154SOL     OW33322  11.341   1.420   1.146  0.0521  0.0824 -0.1270
42154SOL    HW133323  11.384   1.472   1.079 -2.1790  0.6126 -1.2730
42154SOL    HW233324  11.339   1.331   1.109 -0.9865  0.3319 -0.7136
42155SOL     OW33325   5.694   9.271   2.068 -0.0529 -0.1171  0.3701
42155SOL    HW133326   5.686   9.288   1.974  0.7999  0.9656  0.4741
42155SOL    HW233327   5.745   9.344   2.101  1.2617 -1.4449  1.3905
42156SOL     OW33328  11.668   1.175   9.297  0.0806 -0.1488  0.0299
42156SOL    HW133329  11.640   1.132   9.377 -1.0121  1.6196  0.6622
42156SOL    HW233330  11.602   1.152   9.232 -0.2167  0.1317  0.2283
42157SOL     OW33331   1.524   6.700   4.896 -0.1228 -0.4536  0.2695
42157SOL    HW133332   1.432   6.683   4.916 -0.5795  0.2989 -1.0821
42157SOL    HW233333   1.546   6.638   4.826  0.5852 -1.0319  0.9815
42158SOL     OW33334   4.797   4.752  10.091 -0.2362 -0.4999 -0.5607
42158SOL    HW133335   4.778   4.829  10.039 -2.7859 -1.5203 -1.2699
42158SOL    HW233336   4.831   4.786  10.174 -1.3333  1.3822 -0.8491
42159SOL     OW33337   2.859   5.029   9.463 -0.3064  0.6079 -0.3247
42159SOL    HW133338   2.885   4.963   9.399 -2.5208 -0.0487 -0.6442
42159SOL    HW233339   2.841   4.979   9.543  3.0986  1.4864  1.1798
42160SOL     OW33340   7.143   5.369   7.737  0.4471 -0.1327 -0.6764
42160SOL    HW133341   7.203   5.412   7.676  0.4710 -0.6145 -1.0046
42160SOL    HW233342   7.200   5.330   7.803  0.3920  0.8306 -0.0450
42161SOL     OW33343   5.744   8.747   5.045 -0.3999 -0.1287 -0.0605
42161SOL    HW133344   5.816   8.707   4.996 -0.7634  0.6707 -1.2651
42161SOL    HW233345   5.787   8.790   5.119  0.3985  0.5772 -0.9199
42162SOL     OW33346   6.844   9.486  11.192  0.4174 -0.0161 -0.2225
42162SOL    HW133347   6.834   9.582  11.193 -0.4819 -0.1029  0.5500
42162SOL    HW233348   6.776   9.455  11.251  0.1962 -1.1947 -1.0842
42163SOL     OW33349   0.913   0.650   6.159 -0.1419 -0.1262  0.4605
42163SOL    HW133350   0.963   0.577   6.196 -1.7333 -1.8420 -0.5168
42163SOL    HW233351   0.863   0.609   6.088 -2.2109  1.6266  0.8220
42164SOL     OW33352   8.365   9.449  12.314  0.0229 -1.0330 -0.0980
42164SOL    HW133353   8.414   9.530  12.302 -0.3604 -0.4142  1.9883
42164SOL    HW233354   8.425   9.391  12.361 -0.7851 -0.6982  1.4169
42165SOL     OW33355   3.825   3.070   2.920 -1.1661  0.3776  0.2037
42165SOL    HW133356   3.888   3.086   2.850  1.4239  0.2141  2.3758
42165SOL    HW233357   3.833   3.146   2.977 -3.9681  0.9932 -0.0673
42166SOL     OW33358   9.865  12.443   6.523  0.5073 -0.0283 -0.0743
42166SOL    HW133359   9.782  12.432   6.568  0.3837 -1.5129 -0.5903
42166SOL    HW233360   9.866  12.534   6.494  0.2510  0.7402  2.1943
42167SOL     OW33361   1.749   5.279   6.340 -0.2592 -0.5314 -0.0177
42167SOL    HW133362   1.770   5.200   6.291 -0.2335  0.2249 -1.2742
42167SOL    HW233363   1.756   5.253   6.432  2.5481 -1.2514 -0.3500
42168SOL     OW33364  10.436   3.112   8.587  0.0018 -0.5590 -0.0539
42168SOL    HW133365  10.461   3.169   8.514  0.2494 -1.9650 -1.1218
42168SOL    HW233366  10.501   3.129   8.654 -0.3213  0.8863 -0.0710
42169SOL     OW33367  11.730   4.864   4.857  0.4667  0.4713  0.0605
42169SOL    HW133368  11.652   4.872   4.912  0.7002  1.1156  0.3099
42169SOL    HW233369  11.716   4.927   4.786  0.2209 -0.2726 -0.5655
42170SOL     OW33370  11.232   7.877  11.662  0.8071  0.7162  0.7072
42170SOL    HW133371  11.220   7.971  11.653  1.7236  0.7566 -0.4104
42170SOL    HW233372  11.322   7.861  11.633  0.2705 -0.6378 -0.3643
42171SOL     OW33373   1.842   4.141   5.751  0.2480 -0.1181 -0.1558
42171SOL    HW133374   1.923   4.099   5.723  0.7799  1.1622 -0.5795
42171SOL    HW233375   1.834   4.218   5.695 -1.0169  0.0356  0.2063
42172SOL     OW33376   5.138   9.475   6.793  0.0368 -0.4898  0.0970
42172SOL    HW133377   5.155   9.551   6.849 -0.0754 -1.1652  1.0635
42172SOL    HW233378   5.175   9.500   6.708  0.5912  0.3882  0.5760
42173SOL     OW33379  10.395   7.662   8.367  0.3568 -0.4537 -0.0524
42173SOL    HW133380  10.459   7.666   8.296  1.0274  1.0981  0.5890
42173SOL    HW233381  10.333   7.732   8.348 -0.6155 -1.3143 -0.1455
42174SOL     OW33382   1.821   6.577   7.972 -0.1989 -0.1079 -0.3318
42174SOL    HW133383   1.786   6.666   7.976  0.3161  0.0652  0.6626
42174SOL    HW233384   1.755   6.528   7.924 -1.2741  0.4586  0.5047
42175SOL     OW33385  10.784   2.909   1.623 -0.2978  0.2543 -0.0376
42175SOL    HW133386  10.694   2.921   1.653  0.5140  0.2902  2.7283
42175SOL    HW233387  10.804   2.987   1.571 -1.4309  0.9032  0.4694
42176SOL     OW33388   2.312   6.758   7.289 -0.2041  0.1728  0.7220
42176SOL    HW133389   2.374   6.730   7.221 -0.2363 -0.6324  1.0214
42176SOL    HW233390   2.262   6.828   7.247  0.4759  0.3991  0.2614
42177SOL     OW33391  10.628   7.103   3.099 -0.3435  0.1369  0.0362
42177SOL    HW133392  10.628   7.172   3.165  2.7314 -0.0940  0.4069
42177SOL    HW233393  10.578   7.031   3.139  3.1521 -0.8321  3.2029
42178SOL     OW33394   9.956   2.379   1.842  0.4060 -0.3775  0.0536
42178SOL    HW133395   9.978   2.286   1.848  0.4671 -0.4711 -1.3552
42178SOL    HW233396  10.030   2.418   1.796  0.9944  0.6299  1.7682
42179SOL     OW33397   5.526  10.149  10.440  0.0913 -0.2970 -0.1096
42179SOL    HW133398   5.527  10.245  10.442  1.4959 -0.3121  1.2248
42179SOL    HW233399   5.462  10.128  10.372 -0.7738  1.5721  0.0557
42180SOL     OW33400   4.155   0.623   8.184 -0.1721 -0.1253 -0.1654
42180SOL    HW133401   4.106   0.555   8.138  0.6740 -1.8781  1.3815
42180SOL    HW233402   4.090   0.666   8.239 -0.3310 -1.2952  0.6022
42181SOL     OW33403   4.353   8.538   4.916  0.1595 -0.5173 -0.0384
42181SOL    HW133404   4.368   8.453   4.875 -2.8372 -2.0108  1.5857
42181SOL    HW233405   4.293   8.583   4.857 -0.8389 -0.9346  0.6332
42182SOL     OW33406   0.875   7.917   8.093 -0.0005  0.2566  0.4348
42182SOL    HW133407   0.820   7.945   8.021  0.6768 -1.5506 -0.8641
42182SOL    HW233408   0.848   7.827   8.110  0.2827  0.4439  2.0419
42183SOL     OW33409   8.247   1.700   3.386  0.0328 -0.3838 -0.3367
42183SOL    HW133410   8.273   1.755   3.459  0.3504 -0.8775 -0.0725
42183SOL    HW233411   8.321   1.640   3.373 -0.0026 -0.2774 -1.0826
42184SOL     OW33412  12.285   6.392   8.190 -0.2996  0.6294  0.2048
42184SOL    HW133413  12.220   6.379   8.258 -1.0413 -1.1271 -0.7549
42184SOL    HW233414  12.297   6.305   8.152  0.9961  1.3271 -1.0947
42185SOL     OW33415   9.310   0.536   5.700 -0.2413  0.1467  0.5286
42185SOL    HW133416   9.239   0.578   5.748 -0.3502  0.7685 -0.1638
42185SOL    HW233417   9.378   0.521   5.766 -0.9371 -0.2907  1.1523
42186SOL     OW33418  11.377   7.397  11.562 -0.0691 -0.2766  0.3308
42186SOL    HW133419  11.443   7.465  11.550  0.1139 -0.4755  0.1804
42186SOL    HW233420  11.425   7.325  11.604 -0.3682 -0.1407  0.9090
42187SOL     OW33421   1.827   0.959  10.856  0.2038 -0.1405  0.3965
42187SOL    HW133422   1.835   0.996  10.944 -0.2356  1.8043 -0.3251
42187SOL    HW233423   1.909   0.983  10.813 -0.9577  2.0737 -0.7692
42188SOL     OW33424  11.073   8.420   2.099 -0.2867 -0.1457 -0.2620
42188SOL    HW133425  10.989   8.377   2.117 -0.8136  0.2535 -1.6343
42188SOL    HW233426  11.053   8.485   2.032  1.2162 -0.3443 -0.9416
42189SOL     OW33427   9.715   4.769   2.594  0.1800 -0.1730  0.3428
42189SOL    HW133428   9.772   4.840   2.562  0.3656 -0.4084  0.1520
42189SOL    HW233429   9.726   4.698   2.531 -1.9140  0.5055 -0.9035
42190SOL     OW33430   3.539   9.095   3.535  0.0083  0.1666 -0.2508
42190SOL    HW133431   3.582   9.026   3.484 -1.5167 -2.3486  1.5915
42190SOL    HW233432   3.583   9.176   3.509  2.2137 -1.5318 -2.2411
42191SOL     OW33433   8.300  10.326   2.983  0.2214  0.0819  0.3742
42191SOL    HW133434   8.337  10.404   3.025 -0.3935 -0.2317  1.5401
42191SOL    HW233435   8.375  10.271   2.964  0.3941 -0.8593  3.3448
42192SOL     OW33436   0.674   8.395   6.747  0.2917 -0.1067  0.4327
42192SOL    HW133437   0.661   8.366   6.837 -0.9165 -2.7826 -0.5170
42192SOL    HW233438   0.685   8.490   6.754  1.6081 -0.3738  3.5007
42193SOL     OW33439   9.687   8.840  11.991  0.1441  0.0212 -0.3724
42193SOL    HW133440   9.776   8.844  11.957 -0.2867  1.0512 -1.4278
42193SOL    HW233441   9.642   8.914  11.950 -1.2589 -0.6105 -0.0255
42194SOL     OW33442  11.082   9.916   6.798  0.2582 -0.0030  0.0743
42194SOL    HW133443  11.066   9.997   6.750 -0.8389  0.2143  0.7831
42194SOL    HW233444  11.100   9.851   6.729 -1.7797  0.1931 -0.7001
42195SOL     OW33445   5.390   2.500   5.377  0.0059 -0.3035 -0.0202
42195SOL    HW133446   5.410   2.481   5.468 -0.6666  0.6628  0.3481
42195SOL    HW233447   5.426   2.588   5.362  1.5405 -1.0633 -1.1745
42196SOL     OW33448  11.268   7.817   0.389 -0.2458 -0.0860 -0.3497
42196SOL    HW133449  11.321   7.744   0.358  0.4586  0.5265 -0.6159
42196SOL    HW233450  11.329   7.874   0.435 -1.1067 -0.5208  1.4084
42197SOL     OW33451   9.513   3.731   4.766 -0.2782  0.9068 -0.1942
42197SOL    HW133452   9.573   3.710   4.837 -0.7722 -1.3687 -0.3660
42197SOL    HW233453   9.517   3.656   4.707  0.1818  2.7294 -2.6811
42198SOL     OW33454   3.385  10.877   9.586  0.3436 -0.5438  0.2039
42198SOL    HW133455   3.321  10.825   9.539  1.0750 -1.2983  0.0227
42198SOL    HW233456   3.351  10.882   9.675 -1.0041  0.8243 -0.3536
42199SOL     OW33457   3.260   2.781   9.513 -0.1140 -0.1160  0.4125
42199SOL    HW133458   3.174   2.741   9.502  0.3694 -1.9323  2.4228
42199SOL    HW233459   3.322   2.707   9.510  1.2298  0.9646  0.3531
42200SOL     OW33460   8.838   6.772   8.125  0.1116 -0.2076 -1.1175
42200SOL    HW133461   8.856   6.848   8.181  1.3220 -0.4344 -1.1732
42200SOL    HW233462   8.785   6.806   8.054 -1.6418  0.0555  0.2605
42201SOL     OW33463  12.158   7.277   4.288  0.1097 -0.0514 -0.1041
42201SOL    HW133464  12.066   7.284   4.262 -0.2707 -3.1875  0.0392
42201SOL    HW233465  12.158   7.301   4.381 -1.2458 -2.9934  0.7839
42202SOL     OW33466   1.641   3.078  11.496  0.6844 -0.2744  0.2488
42202SOL    HW133467   1.685   3.157  11.467 -1.7431  0.8139 -0.7308
42202SOL    HW233468   1.575   3.060  11.428 -1.7905 -0.5622  2.5349
42203SOL     OW33469   9.901   5.908   2.866  0.1441  0.0419 -0.2769
42203SOL    HW133470   9.923   5.855   2.790 -3.4707  0.6966 -1.9667
42203SOL    HW233471   9.863   5.845   2.928 -2.2595  0.2319 -1.4598
42204SOL     OW33472   8.264   5.333  12.469 -0.2376  0.0015  0.1050
42204SOL    HW133473   8.256   5.293  12.382 -0.5420 -1.7372  0.8954
42204SOL    HW233474   8.352   5.371  12.469 -0.0298 -0.4347 -0.7801
42205SOL     OW33475   1.224   0.336   8.950  0.1646  0.2745 -0.5183
42205SOL    HW133476   1.299   0.387   8.982 -0.3106  0.2423  0.7063
42205SOL    HW233477   1.261   0.280   8.882  1.3345  0.0279  0.2887
42206SOL     OW33478   7.193   0.779   9.530 -0.4506  0.0408 -0.6224
42206SOL    HW133479   7.249   0.738   9.597  1.4170  1.1259 -1.4368
42206SOL    HW233480   7.120   0.815   9.579  0.9448  0.9435  0.9001
42207SOL     OW33481   5.082  10.472  10.086 -0.4797  0.0799 -0.2907
42207SOL    HW133482   5.142  10.462  10.160  1.8139 -0.5816 -2.1560
42207SOL    HW233483   5.046  10.560  10.097  0.4888  0.3384  1.1123
42208SOL     OW33484   7.711  12.078   0.069  0.1166  0.1267  0.1143
42208SOL    HW133485   7.749  12.029  -0.004  0.2269 -1.1799  1.0166
42208SOL    HW233486   7.617  12.082   0.049  0.3787  1.3526 -0.9754
42209SOL     OW33487   4.342  11.013   7.751  0.7431 -0.9876 -0.4779
42209SOL    HW133488   4.400  11.085   7.777  0.3294 -1.0044  0.5426
42209SOL    HW233489   4.399  10.936   7.747  0.8016 -1.0229  0.6050
42210SOL     OW33490  12.045   6.202   1.333  0.4228 -0.3704  0.7934
42210SOL    HW133491  12.118   6.229   1.277 -1.4795  0.7196 -1.3259
42210SOL    HW233492  11.992   6.281   1.343 -1.4096 -1.5312  0.7045
42211SOL     OW33493   7.413   8.988   5.664  0.0383  0.3981  0.1491
42211SOL    HW133494   7.484   9.009   5.724 -1.5407  0.4463  2.0982
42211SOL    HW233495   7.335   8.982   5.720 -1.7937  1.8322 -2.0613
42212SOL     OW33496   4.274   6.955   3.587 -0.0675  0.2721 -0.2605
42212SOL    HW133497   4.191   6.989   3.620 -0.3126 -0.8486  0.3171
42212SOL    HW233498   4.341   7.008   3.631 -0.4600  0.9908 -0.5155
42213SOL     OW33499   5.810   0.754   9.704 -0.2718  0.5524 -0.6157
42213SOL    HW133500   5.783   0.829   9.757  0.3722  1.0011 -0.9063
42213SOL    HW233501   5.790   0.677   9.758 -1.4531  0.9016 -0.5460
42214SOL     OW33502   9.176  10.553   1.531  0.3410  0.8322 -0.2476
42214SOL    HW133503   9.110  10.570   1.463  1.1213  3.9956 -0.3908
42214SOL    HW233504   9.260  10.558   1.485  0.8251  1.6049  0.6937
42215SOL     OW33505   4.325   1.944   7.961 -0.0046  0.1843  0.0167
42215SOL    HW133506   4.257   1.904   8.014 -0.6982 -0.7249 -1.5148
42215SOL    HW233507   4.295   2.034   7.947 -0.6802 -0.0852 -0.2875
42216SOL     OW33508   7.454   0.863   7.265 -0.2552 -0.1746 -0.2085
42216SOL    HW133509   7.369   0.828   7.238 -0.9168 -0.7094  2.2571
42216SOL    HW233510   7.498   0.789   7.306  1.7209 -0.0674 -1.9893
42217SOL     OW33511   8.770   3.126   3.091 -0.1797 -0.1241  0.2929
42217SOL    HW133512   8.678   3.150   3.106 -0.3376  0.1065 -0.9410
42217SOL    HW233513   8.818   3.208   3.101 -0.6145  0.6666 -3.0250
42218SOL     OW33514   3.587   2.165  10.919 -0.2695  0.0863  0.1842
42218SOL    HW133515   3.627   2.169  11.006  1.3989 -1.0750 -0.4663
42218SOL    HW233516   3.643   2.220  10.865 -1.6321  1.2723 -0.0844
42219SOL     OW33517   5.938   8.581   6.616 -0.2208 -0.9579  0.0296
42219SOL    HW133518   5.905   8.645   6.553  0.0294  1.0758  1.8495
42219SOL    HW233519   6.010   8.537   6.570  1.7567  2.3254 -0.3240
42220SOL     OW33520   4.227   7.772  11.041  0.1890  0.2195 -0.6987
42220SOL    HW133521   4.166   7.801  10.974  0.5057 -2.4401 -2.2899
42220SOL    HW233522   4.187   7.693  11.077  1.8262 -0.5591 -0.5128
42221SOL     OW33523   7.452  11.578   5.418 -0.3736 -0.4885 -0.7169
42221SOL    HW133524   7.519  11.646   5.427 -0.5112 -0.5685  1.3897
42221SOL    HW233525   7.502  11.498   5.401 -0.1994  0.0261 -2.9496
42222SOL     OW33526   6.518   4.414   1.380  0.1684 -0.1743 -0.4564
42222SOL    HW133527   6.535   4.405   1.473 -1.5771  1.7309  0.1248
42222SOL    HW233528   6.454   4.346   1.360 -0.5016  0.2810  0.0825
42223SOL     OW33529   6.796   5.229   0.650 -0.2517 -0.0989  0.5043
42223SOL    HW133530   6.889   5.213   0.636 -0.2697 -1.7385  1.9611
42223SOL    HW233531   6.774   5.181   0.730 -1.9530  1.7895  1.2782
42224SOL     OW33532   6.038   1.708  11.159 -0.0562  0.5444  0.0177
42224SOL    HW133533   5.952   1.746  11.179 -1.1272 -0.6984 -1.9264
42224SOL    HW233534   6.089   1.781  11.125 -0.5288  1.1667  0.6011
42225SOL     OW33535   6.230   9.933   4.643  0.1276 -0.2417  0.6287
42225SOL    HW133536   6.195   9.895   4.723 -0.2934 -1.0119  0.0935
42225SOL    HW233537   6.318   9.965   4.667 -0.0775 -0.2737  1.4342
42226SOL     OW33538   5.896  10.782   5.225 -0.2114 -0.0720  0.0470
42226SOL    HW133539   5.905  10.757   5.133  2.2950 -0.8728  0.4385
42226SOL    HW233540   5.982  10.765   5.263 -1.2592 -0.0590  2.6331
42227SOL     OW33541   7.303  11.472   2.828  0.1854 -0.5080 -0.2373
42227SOL    HW133542   7.238  11.452   2.895 -0.9991 -1.2128 -1.5655
42227SOL    HW233543   7.331  11.387   2.794  1.0474 -0.1765 -0.4071
42228SOL     OW33544   5.499  12.227   2.179  0.1530 -0.0557 -0.0378
42228SOL    HW133545   5.468  12.136   2.183 -0.0052  0.0140  0.4688
42228SOL    HW233546   5.573  12.229   2.240  0.0539  0.1953  0.0726
42229SOL     OW33547   1.432   9.712   4.509  0.0459 -0.4230 -0.3767
42229SOL    HW133548   1.408   9.762   4.431  1.3593 -1.9688 -1.8484
42229SOL    HW233549   1.360   9.651   4.522 -1.0760  1.0676  0.8196
42230SOL     OW33550  11.015  11.843   5.542  0.4878 -0.2977  0.0559
42230SOL    HW133551  11.011  11.882   5.455 -0.2418  0.4744  0.4202
42230SOL    HW233552  10.941  11.881   5.589  1.0157 -0.5110  1.0957
42231SOL     OW33553   5.491   1.414   8.173  0.4296 -0.2995  0.1160
42231SOL    HW133554   5.441   1.348   8.125  0.3098  0.2992 -0.5970
42231SOL    HW233555   5.430   1.447   8.238 -0.5288  1.2329 -1.4735
42232SOL     OW33556   6.589   7.976   6.411  0.4843 -0.4499 -0.0672
42232SOL    HW133557   6.605   7.985   6.505 -1.1848  0.3058  0.1874
42232SOL    HW233558   6.626   8.056   6.373  1.7598 -1.0671 -0.1609
42233SOL     OW33559  11.416   0.051   4.564  0.1609  0.5116 -0.1085
42233SOL    HW133560  11.413   0.042   4.469 -2.1998 -0.0816 -0.0320
42233SOL    HW233561  11.465   0.132   4.579  0.0991  0.9061 -1.8337
42234SOL     OW33562   3.916   5.890   5.271  0.0115 -0.0157 -0.2218
42234SOL    HW133563   3.953   5.960   5.325 -1.1133  1.0175 -0.7392
42234SOL    HW233564   3.991   5.837   5.245  0.7138  0.0905  1.4368
42235SOL     OW33565   6.099   1.387   9.955 -0.0442  0.5969 -0.0701
42235SOL    HW133566   6.124   1.475   9.983 -0.2625  0.6325  0.0106
42235SOL    HW233567   6.074   1.343  10.036 -0.6707  0.6966 -0.2047
42236SOL     OW33568  11.903   5.079   7.205  0.6617  0.5770 -0.5103
42236SOL    HW133569  11.931   5.162   7.165  2.7118 -0.6140 -1.7254
42236SOL    HW233570  11.977   5.053   7.259 -0.0628 -0.3551  0.0450
42237SOL     OW33571  10.505   3.716   4.900  0.0560 -0.0472  0.5193
42237SOL    HW133572  10.454   3.636   4.905 -1.4803  0.5154 -2.9960
42237SOL    HW233573  10.592   3.688   4.870 -0.5701 -0.4697 -1.0110
42238SOL     OW33574   6.690   5.442   3.406  0.1883  0.3036 -0.0553
42238SOL    HW133575   6.658   5.355   3.386  0.1660  0.1477  0.6529
42238SOL    HW233576   6.780   5.443   3.372  0.7256 -0.5085  1.2692
42239SOL     OW33577  11.697   2.634  11.414  0.0577 -0.0295  0.2069
42239SOL    HW133578  11.614   2.676  11.393  0.5218  1.1162  0.6030
42239SOL    HW233579  11.723   2.591  11.333  0.5910  2.2037 -0.8924
42240SOL     OW33580   4.850  10.828   4.520 -0.0698 -0.5377 -0.0106
42240SOL    HW133581   4.768  10.787   4.549  0.0913 -0.2013  0.9417
42240SOL    HW233582   4.823  10.915   4.491 -0.0070 -0.3176  0.5884
42241SOL     OW33583   9.795   8.047   9.970  0.0821  0.4144 -1.0520
42241SOL    HW133584   9.845   7.991   9.911 -1.1647 -1.1862 -0.6569
42241SOL    HW233585   9.716   8.070   9.921 -1.1897 -1.3129  0.0547
42242SOL     OW33586  10.545  12.067  11.880 -0.6526  0.3988  0.7675
42242SOL    HW133587  10.572  11.985  11.920  1.8478 -0.0469 -1.5030
42242SOL    HW233588  10.503  12.042  11.798 -0.7147  1.3500  0.4941
42243SOL     OW33589   5.219   9.954   5.887 -0.1064  0.1652 -0.2772
42243SOL    HW133590   5.163   9.877   5.892 -1.4063  1.1567  2.8457
42243SOL    HW233591   5.308   9.920   5.897 -0.4981 -1.0513 -0.7711
42244SOL     OW33592   0.085   3.956   3.799  0.0875  0.1540  0.0842
42244SOL    HW133593   0.125   4.037   3.832 -0.8371  0.6445  0.0319
42244SOL    HW233594   0.155   3.891   3.804  1.0456  1.1102 -0.5042
42245SOL     OW33595  10.505   9.939  12.101 -0.0184 -0.2719  0.2420
42245SOL    HW133596  10.486   9.948  12.007 -1.9010  1.4130  0.7209
42245SOL    HW233597  10.526   9.846  12.112 -0.7925 -0.7251 -1.6753
42246SOL     OW33598   0.320  10.779   2.432 -0.2410  0.2695  0.7584
42246SOL    HW133599   0.246  10.765   2.490 -0.4952 -2.2630 -0.0330
42246SOL    HW233600   0.397  10.759   2.486 -0.3348  0.1021  0.8318
42247SOL     OW33601   3.988   1.689   7.267 -0.2949 -0.0741 -0.0693
42247SOL    HW133602   4.031   1.630   7.205 -1.7238  0.4527 -1.6428
42247SOL    HW233603   4.058   1.749   7.295  0.4942 -0.6337 -0.7826
42248SOL     OW33604   0.515   6.495  11.359  0.3365  0.6626 -0.2487
42248SOL    HW133605   0.452   6.515  11.429  1.2609  0.3962  0.6957
42248SOL    HW233606   0.488   6.550  11.286 -1.3631  0.1084 -0.1011
42249SOL     OW33607   1.649   5.763   2.359  0.4633  0.1690 -0.2542
42249SOL    HW133608   1.625   5.816   2.434  0.6361  0.3386 -0.3192
42249SOL    HW233609   1.645   5.823   2.284  0.9196  0.1573 -0.2898
42250SOL     OW33610   7.221   0.132   7.349 -0.3371 -0.5345 -0.8502
42250SOL    HW133611   7.279   0.164   7.417 -1.4185 -0.0705 -0.1199
42250SOL    HW233612   7.230   0.037   7.352 -1.7611 -0.6506  1.2483
42251SOL     OW33613   2.686   1.540   9.858 -0.0751  0.2031  0.2587
42251SOL    HW133614   2.641   1.513   9.938 -1.0247  0.9780 -0.0010
42251SOL    HW233615   2.763   1.587   9.889  0.3115 -0.6971  0.7055
42252SOL     OW33616   7.562   4.636   3.640  0.3511  0.2381  0.0453
42252SOL    HW133617   7.495   4.687   3.594  1.4250  0.6523 -1.1058
42252SOL    HW233618   7.552   4.547   3.606 -0.3844  0.0213  0.7792
42253SOL     OW33619   2.926   8.271   3.097  0.3030 -0.2735 -0.0196
42253SOL    HW133620   2.838   8.252   3.130  0.7395 -2.0673  0.2214
42253SOL    HW233621   2.926   8.365   3.082 -1.6902 -0.2465 -0.1187
42254SOL     OW33622   8.164   9.559   8.755 -0.1760 -0.0573 -0.6114
42254SOL    HW133623   8.143   9.647   8.788  1.0329  0.3058 -0.7837
42254SOL    HW233624   8.254   9.544   8.782  0.2606 -0.4779 -2.2281
42255SOL     OW33625   0.955  10.245   8.160  0.1595 -0.1256 -0.1774
42255SOL    HW133626   1.031  10.245   8.101  1.1088 -4.5657  0.6530
42255SOL    HW233627   0.879  10.239   8.102  0.6518  1.1511 -0.9814
42256SOL     OW33628  12.424   0.233  11.279  0.1471  0.3625 -0.4861
42256SOL    HW133629  12.492   0.183  11.324 -0.1834 -1.7730 -2.1998
42256SOL    HW233630  12.425   0.319  11.321  1.8002 -0.5866  1.5657
42257SOL     OW33631   3.327   9.890   0.700  0.3688 -0.1029 -0.8042
42257SOL    HW133632   3.320   9.866   0.608 -2.1186 -1.3688 -0.3757
42257SOL    HW233633   3.255   9.951   0.715  0.1982 -0.5812  0.4811
42258SOL     OW33634  10.614   7.360   3.906  0.1501  0.1754 -0.2418
42258SOL    HW133635  10.600   7.434   3.966  0.7586 -1.1926  1.7094
42258SOL    HW233636  10.557   7.291   3.940  0.9483 -0.8362 -0.9047
42259SOL     OW33637  10.860   1.914   6.402 -0.1016 -0.1337  0.0855
42259SOL    HW133638  10.918   1.845   6.432  0.6739  0.7782  0.7483
42259SOL    HW233639  10.822   1.950   6.483 -1.4126 -0.5531 -0.3188
42260SOL     OW33640   2.777   3.125  11.889 -0.1752  0.3373 -0.1414
42260SOL    HW133641   2.795   3.093  11.978 -4.8756 -0.2115  0.8924
42260SOL    HW233642   2.773   3.220  11.899 -2.6948  0.2054  0.8850
42261SOL     OW33643   1.574   6.542  10.190 -0.0595 -0.0757 -0.0124
42261SOL    HW133644   1.628   6.597  10.133 -1.5522 -1.7158 -3.2529
42261SOL    HW233645   1.495   6.595  10.207  0.5510  0.5629  0.9282
42262SOL     OW33646   1.233   9.056   9.736 -0.3228  0.1682  0.3969
42262SOL    HW133647   1.203   8.965   9.735 -0.5143  0.2309 -0.9709
42262SOL    HW233648   1.267   9.071   9.648  0.8453  1.0616  0.9787
42263SOL     OW33649   6.714  12.196   6.990  0.2333  0.0890  0.0482
42263SOL    HW133650   6.709  12.186   7.085  0.5144 -1.8271 -0.1113
42263SOL    HW233651   6.728  12.108   6.957 -1.6714  0.4403 -1.9166
42264SOL     OW33652   4.289  12.300  10.405  0.4458 -0.5621  0.2443
42264SOL    HW133653   4.241  12.341  10.333  0.7919 -1.2427 -0.3914
42264SOL    HW233654   4.263  12.349  10.482 -1.4418 -1.0412 -0.0362
42265SOL     OW33655   6.196   6.137   9.826 -0.4146 -0.1403 -0.0749
42265SOL    HW133656   6.216   6.222   9.786 -1.3375  0.5157  0.8275
42265SOL    HW233657   6.114   6.109   9.785 -0.5641 -0.1855  0.2501
42266SOL     OW33658   8.777  11.373   9.243  0.2761  0.2959  0.7334
42266SOL    HW133659   8.726  11.449   9.274  0.2528  0.8717 -0.6716
42266SOL    HW233660   8.711  11.305   9.229 -0.0983  0.8994 -0.6470
42267SOL     OW33661   2.034   7.140   1.818 -0.3645 -0.4458 -0.4161
42267SOL    HW133662   1.994   7.183   1.743  0.0327 -0.6002 -0.7198
42267SOL    HW233663   2.049   7.050   1.789  0.5824 -0.2839 -0.4564
42268SOL     OW33664  10.449   4.296  12.020 -0.0938  0.5081 -0.2040
42268SOL    HW133665  10.543   4.290  12.038 -0.4695 -2.1773  1.6252
42268SOL    HW233666  10.429   4.216  11.971 -1.4578  0.8634 -0.2694
42269SOL     OW33667  10.967   4.194  10.760 -0.4517  0.4252 -0.2529
42269SOL    HW133668  11.056   4.162  10.779 -0.7888 -0.5137 -0.1856
42269SOL    HW233669  10.976   4.289  10.757  0.3935  0.3956  0.6165
42270SOL     OW33670   2.967   1.002  12.128 -0.0667 -0.1577  0.1474
42270SOL    HW133671   2.874   0.981  12.141  0.0170 -1.6128 -1.2806
42270SOL    HW233672   3.007   0.919  12.100  1.4835  0.6391 -0.1171
42271SOL     OW33673   1.186   1.833   8.126  0.1639 -0.2586  0.1532
42271SOL    HW133674   1.225   1.851   8.041 -1.4570 -1.0064 -0.7809
42271SOL    HW233675   1.232   1.755   8.158  0.5818 -0.1385 -0.1517
42272SOL     OW33676   2.453  10.874   1.211 -0.6385 -0.7717 -0.6954
42272SOL    HW133677   2.504  10.955   1.203 -0.0711 -1.2007 -1.5106
42272SOL    HW233678   2.458  10.853   1.304  1.1765 -1.1069 -0.8242
42273SOL     OW33679   6.616   4.953   0.206  0.0434 -0.0953 -0.4801
42273SOL    HW133680   6.601   4.964   0.300  0.9475  1.0158 -0.4381
42273SOL    HW233681   6.706   4.984   0.193 -0.9607  2.3733 -2.1148
42274SOL     OW33682   5.806   7.938   2.187  0.0612  0.5925 -0.1872
42274SOL    HW133683   5.779   7.860   2.235  1.5252  1.9715  3.2370
42274SOL    HW233684   5.846   7.905   2.107 -2.5955 -1.8797 -0.6409
42275SOL     OW33685  11.675   6.572   2.183  0.0649  0.4163  0.1115
42275SOL    HW133686  11.729   6.625   2.124 -1.4022  4.4114  2.0241
42275SOL    HW233687  11.590   6.568   2.141  0.2755 -1.0217 -0.2457
42276SOL     OW33688   8.748  11.548   3.303  0.5356 -0.2926 -0.1568
42276SOL    HW133689   8.690  11.589   3.239  2.9764  1.5616 -1.3429
42276SOL    HW233690   8.748  11.607   3.378  0.5134 -0.5624  0.0609
42277SOL     OW33691   8.253   3.834  10.980 -0.3147 -0.3215  0.4444
42277SOL    HW133692   8.201   3.830  10.901 -0.6037 -0.9969  0.6613
42277SOL    HW233693   8.225   3.759  11.032  1.8972 -1.6031 -0.0729
42278SOL     OW33694   9.137  10.783   6.076 -0.1468  0.2667  0.3031
42278SOL    HW133695   9.061  10.824   6.118 -0.8213  0.2898 -0.8919
42278SOL    HW233696   9.099  10.722   6.013  0.7881  1.6096 -1.6562
42279SOL     OW33697  10.639   8.940   4.436  1.2808 -0.5811  0.8462
42279SOL    HW133698  10.658   8.900   4.352 -2.1090  0.6359 -0.6788
42279SOL    HW233699  10.606   8.869   4.491  1.1879 -0.9679  0.2908
42280SOL     OW33700   8.847  10.902   7.655 -0.7779 -0.1827  0.3016
42280SOL    HW133701   8.767  10.922   7.607 -0.7291  0.5135  0.5055
42280SOL    HW233702   8.842  10.956   7.733  0.1151  0.2273  0.0847
42281SOL     OW33703   8.201   5.251   3.428 -0.3090  0.3036 -0.5766
42281SOL    HW133704   8.127   5.288   3.379 -0.0808  0.5275 -0.7620
42281SOL    HW233705   8.193   5.288   3.516  0.4078  1.5182 -0.9934
42282SOL     OW33706   3.068   6.858   8.907  0.7565  0.2121 -1.0164
42282SOL    HW133707   3.042   6.901   8.826  0.5391  0.3727 -0.8631
42282SOL    HW233708   3.058   6.926   8.974  0.8365  0.0503 -0.8406
42283SOL     OW33709   7.752   0.827   6.741  0.1958 -0.1723 -0.2593
42283SOL    HW133710   7.719   0.841   6.830  0.8051 -0.1281 -0.0315
42283SOL    HW233711   7.676   0.798   6.691 -0.2727  0.3409  0.1442
42284SOL     OW33712  11.088   6.600   5.580  0.1638  0.1283  0.4264
42284SOL    HW133713  11.006   6.643   5.606 -0.7058 -1.1854 -0.0392
42284SOL    HW233714  11.125   6.657   5.513 -0.4447  0.6585  0.5270
42285SOL     OW33715   8.601   4.970   7.630 -0.1192 -0.2160  0.5370
42285SOL    HW133716   8.564   4.906   7.569 -0.3297 -0.1115  0.5557
42285SOL    HW233717   8.688   4.989   7.595 -0.5720  0.5178 -0.2332
42286SOL     OW33718   3.919  10.610   4.516  0.1871 -0.3743 -0.0870
42286SOL    HW133719   3.886  10.585   4.602  1.0333 -0.8062  0.1353
42286SOL    HW233720   3.949  10.700   4.527 -1.0245  0.0746 -0.3346
42287SOL     OW33721   9.217   9.414   7.127 -0.5683 -0.4468  0.0935
42287SOL    HW133722   9.177   9.494   7.161  0.4570  0.6548 -1.1900
42287SOL    HW233723   9.163   9.391   7.052  0.6363  0.5654 -1.1298
42288SOL     OW33724   8.470   2.809   4.419  0.2739 -0.6344 -0.3809
42288SOL    HW133725   8.454   2.843   4.330  0.3705 -1.6548 -0.7955
42288SOL    HW233726   8.400   2.848   4.472 -0.1902 -0.5520 -1.0371
42289SOL     OW33727   5.636   3.266   1.537  0.1165  0.3227 -0.4201
42289SOL    HW133728   5.567   3.330   1.554 -0.0207 -0.4844  2.9660
42289SOL    HW233729   5.595   3.181   1.558  1.7763 -0.2796  0.5913
42290SOL     OW33730   8.260   0.078   7.670  0.4206 -0.2404 -0.6565
42290SOL    HW133731   8.327   0.127   7.620  1.2275 -1.0121 -0.3569
42290SOL    HW233732   8.187   0.139   7.677  2.1564  1.8006  1.5215
42291SOL     OW33733   7.728   0.196   3.006  0.1654  0.0981  0.5273
42291SOL    HW133734   7.751   0.185   2.914  0.4701  1.6781  0.3911
42291SOL    HW233735   7.805   0.236   3.045 -0.4540  0.6839  1.1757
42292SOL     OW33736   4.837   6.538   6.984 -0.2782 -0.0557 -0.4034
42292SOL    HW133737   4.788   6.568   6.908 -0.8240 -0.7001 -0.3161
42292SOL    HW233738   4.866   6.618   7.027 -0.9231  0.3320 -0.6787
42293SOL     OW33739  12.071   4.058  11.300 -0.0993  0.3436 -0.3332
42293SOL    HW133740  12.123   4.063  11.220  0.7408 -0.9250  0.0950
42293SOL    HW233741  12.084   3.968  11.331 -1.0080  0.5878  0.8224
42294SOL     OW33742  11.863  11.198  12.051  0.0724  0.1035 -0.3393
42294SOL    HW133743  11.802  11.167  12.117 -0.3223 -1.7337 -1.5076
42294SOL    HW233744  11.822  11.277  12.015 -1.5198 -0.9604 -0.9335
42295SOL     OW33745   3.054   3.828   7.853 -0.5526 -0.2766 -0.6321
42295SOL    HW133746   3.045   3.896   7.786 -1.0818  0.7827  0.4717
42295SOL    HW233747   3.091   3.873   7.928 -2.0419 -0.9025  0.5357
42296SOL     OW33748   9.719   7.468   0.575 -0.0872  0.1246  0.0195
42296SOL    HW133749   9.647   7.425   0.621  0.4744  0.1388  0.9443
42296SOL    HW233750   9.791   7.405   0.578 -0.4988 -0.5454 -2.2947
42297SOL     OW33751   3.808   8.011   1.302  0.0551  0.4029  0.3247
42297SOL    HW133752   3.845   8.095   1.331 -0.0433  0.4657  0.2692
42297SOL    HW233753   3.885   7.955   1.288  0.1049  0.3883  0.6557
42298SOL     OW33754   8.545   7.652  10.177 -0.3595  0.1250  0.3788
42298SOL    HW133755   8.522   7.745  10.177  0.1855  0.2653  0.8180
42298SOL    HW233756   8.482   7.612  10.237 -0.7450  0.1682  0.0075
42299SOL     OW33757   4.722   8.209   9.139 -0.2043  0.4412  0.6215
42299SOL    HW133758   4.697   8.169   9.222 -0.8175  1.0627  0.7414
42299SOL    HW233759   4.691   8.299   9.145  2.3222  1.3704  0.9085
42300SOL     OW33760   8.672   3.719  10.716  0.4066  0.6982 -0.2372
42300SOL    HW133761   8.602   3.785  10.718  0.1546  0.4270  0.4319
42300SOL    HW233762   8.626   3.636  10.727  0.8151  0.4956 -0.0522
42301SOL     OW33763   7.744   4.779  12.375 -0.0373  0.2924  0.0868
42301SOL    HW133764   7.669   4.793  12.432  0.0846 -0.3744  0.4243
42301SOL    HW233765   7.805   4.727  12.427 -0.1743 -0.8340 -0.8259
42302SOL     OW33766  11.043  11.293  10.503  0.2728  0.8339  0.2500
42302SOL    HW133767  10.996  11.363  10.548 -0.9689  0.0683  0.2107
42302SOL    HW233768  10.975  11.228  10.484  1.4368 -0.5024  0.5259
42303SOL     OW33769   8.451   4.089   5.192 -0.4989 -0.2425 -0.2226
42303SOL    HW133770   8.534   4.103   5.147 -0.0519 -1.4589  0.1855
42303SOL    HW233771   8.389   4.068   5.123  0.2824 -2.5573 -0.2975
42304SOL     OW33772   0.150   4.481   1.410  0.4721 -0.1028 -0.4815
42304SOL    HW133773   0.233   4.441   1.385 -0.5161 -1.3852 -2.0036
42304SOL    HW233774   0.136   4.550   1.345  1.9551  2.6089  1.8773
42305SOL     OW33775   2.438   5.613  11.104  0.5966  0.5601 -0.5433
42305SOL    HW133776   2.479   5.527  11.101  0.1622  0.3784 -2.2952
42305SOL    HW233777   2.434   5.641  11.013 -0.5173  1.8355 -0.1340
42306SOL     OW33778  11.382   9.827   0.036  0.0372  0.4494  0.9782
42306SOL    HW133779  11.441   9.864   0.102  0.8116  2.0873 -0.5313
42306SOL    HW233780  11.326   9.901   0.011 -1.2004 -0.5213  0.8335
42307SOL     OW33781   6.052   9.730   6.638  0.4976 -0.3273 -0.0505
42307SOL    HW133782   6.033   9.779   6.718  0.4149  1.0581 -0.8743
42307SOL    HW233783   5.997   9.771   6.571  0.7166 -1.3156 -0.8675
42308SOL     OW33784  10.527  12.462   1.109 -0.4789 -0.1467 -0.2476
42308SOL    HW133785  10.513  12.555   1.125  0.2502 -0.3952  2.2330
42308SOL    HW233786  10.438  12.424   1.111 -0.6203  0.2057  1.1015
42309SOL     OW33787   2.101   9.244   1.269 -0.3366  0.1683 -0.1745
42309SOL    HW133788   2.069   9.330   1.241  0.9747  0.8977  0.5012
42309SOL    HW233789   2.091   9.245   1.364  1.5898  0.4190  0.0672
42310SOL     OW33790  11.790   1.779   2.717  0.3976 -0.1770 -0.5886
42310SOL    HW133791  11.718   1.738   2.764  0.5645 -0.1078 -0.2679
42310SOL    HW233792  11.856   1.711   2.709  0.9688  0.2085  0.5724
42311SOL     OW33793   5.419   0.013  11.678  0.0457 -0.4666  0.3311
42311SOL    HW133794   5.414  -0.010  11.771  0.1527 -1.5235  0.0865
42311SOL    HW233795   5.509  -0.009  11.653  0.0029 -0.2264 -0.0342
42312SOL     OW33796   4.702   7.013   0.037  0.0673  0.1729 -0.5468
42312SOL    HW133797   4.686   7.106   0.052  0.6235  0.1600  0.1916
42312SOL    HW233798   4.797   7.004   0.037  0.0535 -0.6900  1.4929
42313SOL     OW33799   6.249   8.987  11.367 -0.1550 -0.1958 -0.4176
42313SOL    HW133800   6.230   9.069  11.322 -0.2012  0.1087  0.1514
42313SOL    HW233801   6.341   8.969  11.346  0.4070  0.9392  0.8827
42314SOL     OW33802   0.487   6.622   7.663  0.0177 -0.0836  0.1402
42314SOL    HW133803   0.523   6.710   7.665 -0.1961  0.0079 -0.1039
42314SOL    HW233804   0.405   6.630   7.615  0.8589 -0.7320 -1.4755
42315SOL     OW33805   5.692  10.058   2.966  0.3561 -0.3351  0.0586
42315SOL    HW133806   5.703  10.092   3.055 -0.8087 -0.1627  0.1518
42315SOL    HW233807   5.780  10.059   2.929  0.7907 -0.0100  1.0668
42316SOL     OW33808  10.446   9.025  12.435 -0.0155  0.4728  0.3138
42316SOL    HW133809  10.355   8.994  12.438 -0.0745  0.7069  2.2858
42316SOL    HW233810  10.497   8.947  12.412 -0.6216  0.1154  0.1481
42317SOL     OW33811   0.220   5.228  10.451  0.1543 -0.0436  0.0370
42317SOL    HW133812   0.181   5.216  10.537 -0.1690 -2.7133 -0.3813
42317SOL    HW233813   0.226   5.323  10.440 -1.6865  0.4014  2.1253
42318SOL     OW33814   4.083   9.544   6.234 -0.3197  0.1762 -0.2029
42318SOL    HW133815   4.170   9.553   6.194 -0.9365  0.0284 -1.6403
42318SOL    HW233816   4.075   9.451   6.255  0.8404  0.5603  2.3477
42319SOL     OW33817  10.092   7.631   0.422 -0.5534  0.1249  0.5848
42319SOL    HW133818  10.187   7.641   0.427 -0.6553  1.4972  0.1306
42319SOL    HW233819  10.079   7.548   0.377  0.4395  0.3148 -0.0850
42320SOL     OW33820   9.873   3.893   3.186  0.3107  0.4252 -0.0932
42320SOL    HW133821   9.826   3.919   3.265  1.7781  0.4355  0.7986
42320SOL    HW233822   9.804   3.870   3.124 -0.8896  1.3394  0.8600
42321SOL     OW33823   8.889   5.247   9.896 -0.3776 -0.3419  0.1176
42321SOL    HW133824   8.956   5.293   9.846 -0.0277 -1.7831 -0.8060
42321SOL    HW233825   8.937   5.179   9.944 -1.0793 -0.9922 -0.0720
42322SOL     OW33826   6.434   8.406  11.501 -0.1745  0.6144 -0.4814
42322SOL    HW133827   6.359   8.370  11.455  0.0472  0.4864 -0.7505
42322SOL    HW233828   6.425   8.501  11.492 -0.7040  0.6256  0.1373
42323SOL     OW33829   5.439  12.269   7.950 -0.0260  0.0948  0.1548
42323SOL    HW133830   5.530  12.275   7.980  0.3482 -0.9311 -0.7391
42323SOL    HW233831   5.432  12.183   7.911 -1.6457 -0.1814  0.9866
42324SOL     OW33832   3.732   9.328  12.143 -0.4521  0.4428  0.0532
42324SOL    HW133833   3.821   9.343  12.111 -0.1863 -1.2046 -0.0823
42324SOL    HW233834   3.676   9.370  12.078  0.1738 -0.5042 -1.1464
42325SOL     OW33835   0.895   7.274   2.452  0.3475  0.3142  0.5642
42325SOL    HW133836   0.890   7.188   2.411  0.8535  1.1182 -1.2574
42325SOL    HW233837   0.899   7.336   2.379 -0.0605  1.9035  1.8246
42326SOL     OW33838   2.634  10.106   5.956  0.3829 -0.0573 -0.6474
42326SOL    HW133839   2.692  10.058   5.897  0.2272 -0.8081 -0.2059
42326SOL    HW233840   2.568  10.145   5.899  0.5048 -0.3793 -1.0112
42327SOL     OW33841   5.440   7.267   6.592 -0.3503  0.8767 -0.2788
42327SOL    HW133842   5.526   7.304   6.608 -0.0250 -0.2685  0.8203
42327SOL    HW233843   5.457   7.178   6.562 -1.1309  0.3736  0.6876
42328SOL     OW33844   6.573   0.987   9.618  0.3529  0.3079  0.3675
42328SOL    HW133845   6.618   1.000   9.535  0.1516  0.1063  0.2266
42328SOL    HW233846   6.608   1.056   9.675  2.2878 -1.0145  0.8643
42329SOL     OW33847   7.740  12.441   6.749  0.3651  0.6490 -0.2604
42329SOL    HW133848   7.768  12.387   6.675  2.8368  0.2334  0.8745
42329SOL    HW233849   7.752  12.384   6.825 -2.2533  1.0135  0.5170
42330SOL     OW33850   8.327   1.560   9.159 -0.5601 -0.4358 -0.0064
42330SOL    HW133851   8.321   1.650   9.191 -0.5194 -0.2278 -0.5791
42330SOL    HW233852   8.308   1.565   9.066 -2.8899 -1.3433  0.3598
42331SOL     OW33853   9.383   4.354   7.842 -0.1465 -0.6323  0.6213
42331SOL    HW133854   9.362   4.320   7.929  0.5078  0.1615  1.1133
42331SOL    HW233855   9.379   4.278   7.785 -0.2416 -1.2358  1.4073
42332SOL     OW33856   7.193   4.016   8.573  0.1632 -0.0794 -0.1423
42332SOL    HW133857   7.141   3.938   8.590  0.6593  0.0300  2.2312
42332SOL    HW233858   7.278   3.983   8.545  0.9151 -0.5583  2.4134
42333SOL     OW33859   4.888   1.717  11.119 -0.9645  0.1244 -0.3574
42333SOL    HW133860   4.823   1.647  11.129 -1.8476  1.0250  0.4519
42333SOL    HW233861   4.840   1.788  11.075  0.1352 -0.0472 -1.9106
42334SOL     OW33862   3.022   5.635  12.071 -0.2059  0.1477  0.0499
42334SOL    HW133863   2.934   5.606  12.049 -1.6796  2.0964  2.7741
42334SOL    HW233864   3.030   5.721  12.030 -1.0487  1.5472  2.6100
42335SOL     OW33865   4.979  10.107   1.693  0.8842 -0.2462 -0.2354
42335SOL    HW133866   4.974  10.194   1.655 -0.0575 -0.3503 -0.3570
42335SOL    HW233867   5.047  10.062   1.642  0.5007  0.0133 -0.9742
42336SOL     OW33868   3.804   0.789   0.250 -0.1080  0.5944  0.2699
42336SOL    HW133869   3.817   0.753   0.338 -0.3373 -2.2869 -0.7660
42336SOL    HW233870   3.720   0.753   0.221 -0.5899  2.4120 -0.7513
42337SOL     OW33871   5.617   1.548   6.895 -0.0061 -0.0511 -0.0182
42337SOL    HW133872   5.602   1.623   6.953 -0.3720 -0.1552  0.0222
42337SOL    HW233873   5.702   1.513   6.923 -0.3886 -0.3831  0.7631
42338SOL     OW33874   2.832  10.862  12.178 -0.2263 -0.6324 -0.3095
42338SOL    HW133875   2.753  10.912  12.200  0.2909 -0.6073  1.7234
42338SOL    HW233876   2.867  10.905  12.101 -0.5083  1.3548  0.6089
42339SOL     OW33877   9.868   2.753   7.826 -0.1548  0.6898  0.1624
42339SOL    HW133878   9.950   2.797   7.850 -0.2560 -0.0444  2.0147
42339SOL    HW233879   9.801   2.799   7.876 -1.2225  2.4088 -2.6220
42340SOL     OW33880  11.028   6.939   1.716 -0.0232 -0.0394 -0.3259
42340SOL    HW133881  10.977   6.858   1.722  0.8553 -0.5268  0.9248
42340SOL    HW233882  11.012   6.971   1.627 -0.2844 -1.6511 -0.8900
42341SOL     OW33883   8.829   5.301   8.491 -0.0588 -0.0462 -0.6803
42341SOL    HW133884   8.916   5.306   8.453 -0.3271 -1.6208 -1.6077
42341SOL    HW233885   8.772   5.277   8.418 -1.3552  1.3752 -0.1819
42342SOL     OW33886   7.788   6.530   7.043 -0.1551 -0.1287 -0.4605
42342SOL    HW133887   7.868   6.493   7.005 -0.9492 -1.6212 -0.7523
42342SOL    HW233888   7.798   6.520   7.137  0.5389  0.8613 -0.4188
42343SOL     OW33889   3.598   3.122   5.342  0.1342 -0.8225  0.4292
42343SOL    HW133890   3.592   3.196   5.403 -1.3200 -0.6759  0.1523
42343SOL    HW233891   3.665   3.066   5.380 -0.3981 -0.5073  1.9313
42344SOL     OW33892   8.219   0.313   2.095  0.3365 -0.4004  0.1580
42344SOL    HW133893   8.247   0.399   2.127  0.2466 -1.0111  1.9972
42344SOL    HW233894   8.153   0.332   2.028  0.9373  0.9617 -0.0741
42345SOL     OW33895   8.143   9.047   5.692 -0.0941  0.2273  0.0276
42345SOL    HW133896   8.146   8.953   5.672  0.2820  0.7378 -2.6892
42345SOL    HW233897   8.058   9.059   5.735  0.4678 -1.5328  1.8216
42346SOL     OW33898   6.273   3.275   8.904 -0.1442 -0.3374  0.5365
42346SOL    HW133899   6.329   3.198   8.909 -0.2680 -0.4807 -0.1775
42346SOL    HW233900   6.317   3.332   8.841 -0.5511 -0.2432  0.3360
42347SOL     OW33901   9.605   5.034  11.226 -0.1964 -0.1178 -0.0706
42347SOL    HW133902   9.512   5.015  11.241  0.1428 -1.3596  0.5603
42347SOL    HW233903   9.610   5.130  11.229 -1.6451  0.0559 -1.3180
42348SOL     OW33904  11.505   1.616   0.950  0.0597  0.1806 -0.2822
42348SOL    HW133905  11.581   1.589   1.001  0.4187  0.3155 -0.7433
42348SOL    HW233906  11.498   1.710   0.966 -2.1541 -0.3041  2.6429
42349SOL     OW33907   7.249   1.568   0.462 -0.5329 -0.4939  0.1981
42349SOL    HW133908   7.184   1.499   0.469 -0.2957 -0.5139  3.3857
42349SOL    HW233909   7.326   1.535   0.509 -0.3897  1.8149  1.7890
42350SOL     OW33910   4.627  10.454  11.626  0.0581  0.4370  0.3410
42350SOL    HW133911   4.578  10.488  11.551 -0.0378 -1.3701 -0.4808
42350SOL    HW233912   4.586  10.495  11.702 -1.5516  0.3894 -0.4560
42351SOL     OW33913   4.499   2.948   6.005 -0.3523 -0.4306  0.3152
42351SOL    HW133914   4.522   2.971   5.915 -2.0842 -0.1017 -0.0807
42351SOL    HW233915   4.478   3.031   6.047 -0.7493 -0.7045  0.6671
42352SOL     OW33916  11.661   7.886  12.177 -0.1402 -0.2262  0.0474
42352SOL    HW133917  11.599   7.830  12.225 -0.3496  0.6182  0.7920
42352SOL    HW233918  11.679   7.959  12.237  0.2088  0.4528 -0.8569
42353SOL     OW33919   9.802   3.424   8.603  0.0608  0.7680  0.1788
42353SOL    HW133920   9.883   3.420   8.553  0.0694 -0.7408  0.2535
42353SOL    HW233921   9.829   3.445   8.692  0.5195 -0.7774  0.4345
42354SOL     OW33922   8.626   7.661   4.528  0.0151  0.0351 -0.3686
42354SOL    HW133923   8.638   7.708   4.611 -3.5985 -0.2918  0.5460
42354SOL    HW233924   8.573   7.721   4.475  0.3679 -0.6692 -1.5325
42355SOL     OW33925  12.217   6.273   6.584  0.4082  0.7776  0.1479
42355SOL    HW133926  12.172   6.336   6.528 -1.5084 -0.6097  0.0443
42355SOL    HW233927  12.262   6.214   6.524 -0.8720 -0.1470  0.0704
42356SOL     OW33928   2.687   5.125   7.648  0.6260  0.2354  0.1514
42356SOL    HW133929   2.723   5.037   7.637 -2.1618 -0.9588 -0.1881
42356SOL    HW233930   2.661   5.151   7.560  1.2071  1.3280  0.2912
42357SOL     OW33931   7.479   2.956   8.358 -0.1404  0.1615 -0.0145
42357SOL    HW133932   7.438   3.022   8.413 -0.0510  0.5455 -0.4067
42357SOL    HW233933   7.529   3.006   8.293  0.4636 -0.2875  0.0882
42358SOL     OW33934   0.844   4.007   8.843  0.1026 -0.6050  0.6837
42358SOL    HW133935   0.819   3.931   8.790  0.0289  0.3343 -0.6853
42358SOL    HW233936   0.843   3.975   8.933  0.1953 -2.2546  0.1308
42359SOL     OW33937  11.355   1.617  10.242  0.6539  0.3772 -0.4258
42359SOL    HW133938  11.425   1.552  10.235  1.4296  0.7775  2.3032
42359SOL    HW233939  11.287   1.585  10.183  1.0651 -2.8522  0.6094
42360SOL     OW33940   0.198   0.476   1.464  0.0325 -0.1631  0.2162
42360SOL    HW133941   0.139   0.401   1.473 -0.4544  0.0125 -1.2444
42360SOL    HW233942   0.237   0.487   1.551  0.8680 -2.7168  0.2327
42361SOL     OW33943  11.098   9.681   3.754 -0.5682  0.3087 -0.5447
42361SOL    HW133944  11.132   9.652   3.669 -2.5036 -1.6796 -0.7508
42361SOL    HW233945  11.011   9.717   3.734 -0.6932  0.6124  0.4933
42362SOL     OW33946   1.987   7.945   6.512  0.1900  0.9796  0.3820
42362SOL    HW133947   1.957   7.855   6.500 -1.0474  1.3580  0.4139
42362SOL    HW233948   2.051   7.941   6.583  0.6010  0.0444 -0.0337
42363SOL     OW33949   7.411   6.765   0.288 -0.0123  0.0443  0.2211
42363SOL    HW133950   7.364   6.742   0.208 -1.0715  0.6723  0.6464
42363SOL    HW233951   7.349   6.817   0.339  0.4346 -0.8377  1.7378
42364SOL     OW33952   4.227   1.621   3.629  0.2167  0.1377  0.5130
42364SOL    HW133953   4.182   1.599   3.547 -0.7499 -0.2686  1.1428
42364SOL    HW233954   4.242   1.537   3.671 -0.6451  0.4354  1.4499
42365SOL     OW33955   3.165  11.074   3.715 -0.4429 -0.8588 -0.2140
42365SOL    HW133956   3.223  11.149   3.727 -0.5557 -0.9119  0.7833
42365SOL    HW233957   3.219  11.009   3.670  0.0420 -0.6367  0.0366
42366SOL     OW33958   8.549   6.238  10.076  0.1287  0.3203  0.0258
42366SOL    HW133959   8.546   6.164  10.137 -0.6759  1.0672  0.9279
42366SOL    HW233960   8.509   6.204   9.996  1.6118 -0.8110 -0.2864
42367SOL     OW33961   4.567   9.800  11.992  0.0775  0.2648 -0.4314
42367SOL    HW133962   4.551   9.883  11.948 -1.3570  2.1230  3.1473
42367SOL    HW233963   4.485   9.752  11.986 -0.5210  1.0460  1.0994
42368SOL     OW33964  12.065   0.654  10.554 -0.2345  0.5684 -0.3182
42368SOL    HW133965  12.128   0.628  10.487 -1.7466 -1.2987 -1.0884
42368SOL    HW233966  12.054   0.577  10.609 -0.1997  1.5865  1.1971
42369SOL     OW33967   0.708   4.872   6.439  0.2854  0.2590  0.2368
42369SOL    HW133968   0.636   4.930   6.413  0.6249  1.0844  1.0742
42369SOL    HW233969   0.674   4.784   6.425 -1.1138  0.6132  1.1816
42370SOL     OW33970  10.479   6.315   0.871  0.1793  0.0949 -0.4465
42370SOL    HW133971  10.460   6.221   0.874  0.9054 -0.0406  0.1393
42370SOL    HW233972  10.395   6.357   0.891  0.2357 -0.4759  1.1248
42371SOL     OW33973   4.554  12.358   8.479 -0.2674  0.5043 -0.4621
42371SOL    HW133974   4.598  12.294   8.535  1.5304  1.2223 -0.9767
42371SOL    HW233975   4.583  12.337   8.390 -2.0529  0.1901 -1.0209
42372SOL     OW33976   4.247   7.315   7.943 -0.3931  0.0993 -0.4343
42372SOL    HW133977   4.234   7.404   7.909 -0.8438 -0.9736 -3.3557
42372SOL    HW233978   4.316   7.279   7.888 -1.5614 -1.9687 -0.6199
42373SOL     OW33979   4.877   3.915   1.688 -0.2351 -0.1361 -0.5138
42373SOL    HW133980   4.842   3.905   1.599  0.5791  0.0231 -0.8591
42373SOL    HW233981   4.801   3.939   1.741 -0.3822  1.9252 -1.5492
42374SOL     OW33982  10.160   2.501   8.622  0.1693  0.2807 -0.4676
42374SOL    HW133983  10.161   2.479   8.529  1.4386 -0.2205 -0.3511
42374SOL    HW233984  10.203   2.427   8.665  0.9482  1.1887  0.3564
42375SOL     OW33985   3.944   5.560  11.080 -0.2682  0.3554  0.1124
42375SOL    HW133986   4.014   5.570  11.145  0.2068 -0.1502 -0.3055
42375SOL    HW233987   3.941   5.644  11.034  0.3731  0.2311 -0.1628
42376SOL     OW33988  11.656   2.077  11.343  0.2155  0.2495  0.3089
42376SOL    HW133989  11.599   2.111  11.275  0.6538 -1.6495 -1.1119
42376SOL    HW233990  11.742   2.072  11.302  1.3479  2.4711  2.2127
42377SOL     OW33991  10.047   0.442   7.095 -0.5086 -0.0102 -0.4628
42377SOL    HW133992   9.977   0.377   7.099 -0.3170 -0.2006 -0.0379
42377SOL    HW233993  10.003   0.526   7.089 -0.8531  0.0362  1.7346
42378SOL     OW33994  11.270   1.483   9.674  0.0394  0.3511  1.0439
42378SOL    HW133995  11.339   1.549   9.667  0.8105 -0.6239 -2.1276
42378SOL    HW233996  11.317   1.401   9.685 -0.2047 -0.6962 -3.7145
42379SOL     OW33997   3.437   3.804   6.966  0.3495  0.2266  0.5309
42379SOL    HW133998   3.397   3.728   6.924  1.7749 -0.4929  0.4180
42379SOL    HW233999   3.530   3.799   6.942  0.7322  1.2098  1.6922
42380SOL     OW34000   8.414   7.648   8.832 -0.3332  0.2188 -0.0155
42380SOL    HW134001   8.397   7.611   8.919 -0.0923  2.0295  0.8392
42380SOL    HW234002   8.327   7.658   8.793 -0.3738 -2.2291 -0.7689
42381SOL     OW34003   3.819   4.177   3.495  0.0734  0.0493 -0.4046
42381SOL    HW134004   3.890   4.235   3.469  0.9722 -1.5584 -1.7838
42381SOL    HW234005   3.786   4.141   3.413 -0.6078 -1.1584  0.3573
42382SOL     OW34006   7.252   3.661   2.680  0.1558 -0.0282  0.9022
42382SOL    HW134007   7.272   3.601   2.752  2.7593  0.1508  0.4170
42382SOL    HW234008   7.191   3.613   2.624 -0.8428 -0.6791  2.4877
42383SOL     OW34009   1.723  11.952   2.757 -0.2753  0.4935  0.2439
42383SOL    HW134010   1.680  11.867   2.754 -0.5038  0.5718 -3.6005
42383SOL    HW234011   1.661  12.013   2.717  0.9215  1.9152  0.4356
42384SOL     OW34012   2.917   3.466   8.224 -0.2872  0.1212 -0.0527
42384SOL    HW134013   2.896   3.505   8.139 -0.7744  2.0979  0.9090
42384SOL    HW234014   2.989   3.407   8.206 -0.6104  0.2255 -1.9021
42385SOL     OW34015  10.457   4.274   3.718  0.1087  0.2472 -0.0570
42385SOL    HW134016  10.444   4.359   3.677  0.8723 -0.9512 -3.1655
42385SOL    HW234017  10.552   4.268   3.732 -0.1291  0.5662  1.8315
42386SOL     OW34018   2.797   0.995   2.112  0.0097  0.1636 -0.5036
42386SOL    HW134019   2.793   1.090   2.119 -0.2048  0.2580 -1.6642
42386SOL    HW234020   2.707   0.969   2.092 -0.7873 -0.6720  3.3849
42387SOL     OW34021   8.084   4.691   3.907  0.2849 -0.0884  0.2848
42387SOL    HW134022   8.089   4.668   3.999  0.2396  0.5625  0.4500
42387SOL    HW234023   8.013   4.755   3.901  0.4971  0.1128 -0.1511
42388SOL     OW34024   8.140   0.487   0.752  0.0886 -0.4525 -0.1858
42388SOL    HW134025   8.100   0.516   0.670  1.5239 -0.3166 -0.8751
42388SOL    HW234026   8.091   0.532   0.821 -0.7352 -0.0892 -0.9969
42389SOL     OW34027  10.877  12.030  10.584 -0.7111  0.2701  0.5020
42389SOL    HW134028  10.908  12.119  10.566  2.0169 -0.6697  0.0555
42389SOL    HW234029  10.936  11.999  10.653 -0.8108 -1.5818 -0.1973
42390SOL     OW34030   7.375   4.413   0.900 -0.4808  0.1693  0.7663
42390SOL    HW134031   7.466   4.405   0.870 -0.7805 -1.3057  0.1890
42390SOL    HW234032   7.374   4.369   0.985 -0.4414  1.1383  1.2861
42391SOL     OW34033   3.815   0.193  11.591 -0.0535 -0.2763 -0.5559
42391SOL    HW134034   3.720   0.197  11.600  0.1312  1.5140  1.5374
42391SOL    HW234035   3.846   0.272  11.634  2.4235 -0.9592 -0.9325
42392SOL     OW34036   1.978   4.811   4.417 -0.1537 -0.4559  0.3245
42392SOL    HW134037   2.045   4.762   4.368  0.5408 -0.9810  1.7564
42392SOL    HW234038   1.959   4.757   4.493 -0.1568  0.9941  1.4027
42393SOL     OW34039   9.590   6.094   0.083  0.3289 -0.5058  0.4086
42393SOL    HW134040   9.676   6.090   0.124  0.3572 -0.8577  0.3207
42393SOL    HW234041   9.553   6.007   0.097  0.1815 -0.5063  0.0268
42394SOL     OW34042  11.787   9.409   9.774  0.1638  0.2703 -0.2019
42394SOL    HW134043  11.851   9.473   9.806  0.5431  0.9232 -2.1022
42394SOL    HW234044  11.702   9.446   9.795  0.3953  0.9154 -0.3804
42395SOL     OW34045  10.705   2.551   0.298 -0.9177  0.0576 -0.2518
42395SOL    HW134046  10.761   2.612   0.251 -0.5310 -0.0824  0.0155
42395SOL    HW234047  10.752   2.468   0.294 -0.1140  0.3659  1.6756
42396SOL     OW34048   8.164   5.759   5.708 -1.0311 -0.2878  0.6212
42396SOL    HW134049   8.207   5.788   5.628 -0.4960 -0.2997  0.9017
42396SOL    HW234050   8.221   5.690   5.742 -1.2342 -0.2519  1.0351
42397SOL     OW34051   9.735   9.784   2.295 -0.1212  0.9497 -0.2295
42397SOL    HW134052   9.738   9.720   2.223 -0.9004 -0.5835  1.0290
42397SOL    HW234053   9.826   9.792   2.323 -0.1492 -0.7846  0.5214
42398SOL     OW34054   4.826   8.368  10.194  0.4172  0.1812  0.7275
42398SOL    HW134055   4.892   8.383  10.125 -0.4470  1.6944  0.1688
42398SOL    HW234056   4.875   8.327  10.265  1.6551 -0.0728 -0.2252
42399SOL     OW34057   0.130  11.431   7.684 -0.4705  0.0558  0.1783
42399SOL    HW134058   0.066  11.389   7.741 -0.1899  0.2770  0.6594
42399SOL    HW234059   0.211  11.431   7.735  0.5500 -2.3588 -1.2750
42400SOL     OW34060   9.134   0.649   8.350  0.6808  0.4735 -0.5430
42400SOL    HW134061   9.086   0.604   8.420  2.2713  0.2227  0.4312
42400SOL    HW234062   9.204   0.696   8.395  1.6345  0.4610 -1.9527
42401SOL     OW34063  12.220   6.121   8.085  0.1947 -0.3682 -0.0090
42401SOL    HW134064  12.128   6.145   8.073 -0.1044 -0.7219  1.4304
42401SOL    HW234065  12.240   6.066   8.009 -0.2985  0.9923 -1.1752
42402SOL     OW34066   9.752   5.080   7.167 -0.4234 -0.6499 -0.2093
42402SOL    HW134067   9.837   5.118   7.146 -1.7729  1.1156 -3.0097
42402SOL    HW234068   9.753   5.071   7.263  1.7627  2.1749  0.1802
42403SOL     OW34069   4.241   7.709   7.346  0.1836  0.2818  0.1571
42403SOL    HW134070   4.169   7.770   7.332  0.7413  0.7754 -0.6707
42403SOL    HW234071   4.316   7.751   7.304  0.9180 -0.2897  0.8750
42404SOL     OW34072   7.323   2.671   3.645 -0.3043  0.1100  0.0287
42404SOL    HW134073   7.227   2.667   3.652 -0.2183 -0.8929  0.9735
42404SOL    HW234074   7.347   2.595   3.593 -0.0183  0.3200 -0.1470
42405SOL     OW34075   3.192   9.462  10.867  0.3569  0.6051 -0.0701
42405SOL    HW134076   3.176   9.479  10.774 -0.1624 -1.1799 -0.3402
42405SOL    HW234077   3.138   9.527  10.913 -1.3900 -0.0901 -1.0261
42406SOL     OW34078   4.578   7.244  11.636 -0.0800 -0.3763 -0.2492
42406SOL    HW134079   4.639   7.203  11.574 -2.1591 -2.5930 -0.9545
42406SOL    HW234080   4.634   7.274  11.707  1.9613 -1.4041 -1.3209
42407SOL     OW34081   1.565   7.185   0.549  0.4780 -0.0813  0.1618
42407SOL    HW134082   1.613   7.243   0.608 -1.7703  2.6665 -0.4928
42407SOL    HW234083   1.575   7.224   0.463 -1.3177 -0.5085 -0.2822
42408SOL     OW34084  11.501  10.203   3.477 -0.1950  0.1861 -0.6311
42408SOL    HW134085  11.426  10.175   3.424 -0.6573 -0.8919  0.5648
42408SOL    HW234086  11.555  10.124   3.486  0.4045  0.6212 -0.3409
42409SOL     OW34087   4.962   4.724   3.882  0.1384  0.1533 -0.3637
42409SOL    HW134088   4.972   4.629   3.887  1.0478  0.2976  1.6407
42409SOL    HW234089   4.875   4.737   3.845 -0.7034 -1.5149  0.8996
42410SOL     OW34090   4.433   6.405   5.558  0.0610 -0.3207 -0.2507
42410SOL    HW134091   4.364   6.459   5.519 -0.3889  0.4472  1.5128
42410SOL    HW234092   4.419   6.413   5.652  1.6189 -1.4224  0.1082
42411SOL     OW34093   3.690   5.629  10.656  0.1252  0.0173 -0.1922
42411SOL    HW134094   3.718   5.719  10.642 -0.0013 -0.2690 -2.7922
42411SOL    HW234095   3.761   5.590  10.708  0.4741  1.4215  0.4407
42412SOL     OW34096   3.036   9.861   8.787 -0.0354 -0.0071 -0.1588
42412SOL    HW134097   3.024   9.768   8.804 -0.4017 -0.2161 -1.4240
42412SOL    HW234098   2.947   9.896   8.781  0.0696  0.8273  2.1369
42413SOL     OW34099   2.582   4.407   4.028 -0.3240 -0.4084  0.1519
42413SOL    HW134100   2.625   4.323   4.017 -1.9490 -1.2159 -0.4585
42413SOL    HW234101   2.651   4.467   4.056  1.3145 -1.4457 -1.4747
42414SOL     OW34102   7.121  12.434   7.626  0.0138 -0.5365 -0.2717
42414SOL    HW134103   7.035  12.445   7.666 -0.2064 -0.1783 -0.8418
42414SOL    HW234104   7.160  12.521   7.626  1.0506 -0.9506  1.4646
42415SOL     OW34105   0.920   9.813   8.512 -0.1825 -0.8161  0.3826
42415SOL    HW134106   0.863   9.770   8.575 -0.4804 -0.8382  0.0990
42415SOL    HW234107   0.958   9.742   8.461 -2.1649 -0.7085 -1.3892
42416SOL     OW34108  11.272   4.898  10.990 -0.3741 -0.0367 -0.5085
42416SOL    HW134109  11.227   4.982  10.995 -0.2381  0.0253 -0.3485
42416SOL    HW234110  11.258   4.858  11.076  0.9697  0.5331 -0.0011
42417SOL     OW34111   5.740   0.325  10.224  0.3736  0.0605 -0.1409
42417SOL    HW134112   5.834   0.330  10.240  0.3614  0.4147 -0.1602
42417SOL    HW234113   5.704   0.400  10.272 -0.1266 -1.1692  1.4946
42418SOL     OW34114   9.720  10.574   7.850 -0.8423  0.2294  0.1067
42418SOL    HW134115   9.638  10.619   7.833 -0.0769  1.1376 -1.4026
42418SOL    HW234116   9.758  10.619   7.925 -0.4785  1.6105 -0.8679
42419SOL     OW34117   3.606   4.246  10.762 -0.3112 -0.2345 -0.1676
42419SOL    HW134118   3.608   4.320  10.702 -0.2347  0.2431  0.4199
42419SOL    HW234119   3.575   4.173  10.708  2.1291 -0.4323 -1.4573
42420SOL     OW34120   9.175   8.363  10.567 -0.4101  0.4595  0.1154
42420SOL    HW134121   9.166   8.338  10.476  1.3498  0.7861 -0.1857
42420SOL    HW234122   9.174   8.459  10.566  0.5476  0.4803  0.3071
42421SOL     OW34123   6.112   6.833   1.677  0.2856  0.0765  0.6531
42421SOL    HW134124   6.199   6.827   1.715  1.2009  0.7065 -1.2368
42421SOL    HW234125   6.126   6.825   1.583 -1.7417 -0.1196  0.3227
42422SOL     OW34126   5.779   9.657  10.968  0.5345  0.0476 -0.4195
42422SOL    HW134127   5.850   9.697  11.018  0.5020 -2.4773  1.8500
42422SOL    HW234128   5.820   9.583  10.923 -0.5463 -1.4917  0.9836
42423SOL     OW34129   8.856   7.881   8.235 -1.1826  0.5696 -0.3615
42423SOL    HW134130   8.853   7.919   8.147 -0.3687 -0.6069 -0.9405
42423SOL    HW234131   8.933   7.920   8.275  0.0749 -0.9041 -1.2159
42424SOL     OW34132   2.210  10.468   3.085 -0.5180  0.2169  0.2355
42424SOL    HW134133   2.200  10.523   3.162 -0.2637  0.5760  0.0117
42424SOL    HW234134   2.120  10.448   3.059 -0.6085 -0.5763  1.0911
42425SOL     OW34135   6.428  10.321   7.003  0.0513 -0.5903 -0.0858
42425SOL    HW134136   6.352  10.332   7.060  0.1729 -1.2987  0.2256
42425SOL    HW234137   6.414  10.237   6.959  2.1994 -2.4821  2.4746
42426SOL     OW34138  11.599   5.535  11.808 -0.4695  0.6012  0.1378
42426SOL    HW134139  11.579   5.453  11.853  1.2575  0.0898  0.0539
42426SOL    HW234140  11.678   5.567  11.850 -0.8128  1.9733 -0.1981
42427SOL     OW34141   9.285   2.395   6.690 -0.1377 -0.1728 -0.3968
42427SOL    HW134142   9.323   2.334   6.753 -0.0661 -1.5054 -1.6681
42427SOL    HW234143   9.322   2.369   6.606 -0.5311  1.3032 -1.0698
42428SOL     OW34144   1.641   3.917   6.825 -0.0947 -0.1750  0.0724
42428SOL    HW134145   1.728   3.927   6.863  0.4130  1.5787 -1.4194
42428SOL    HW234146   1.595   3.998   6.847  0.2992  1.0521 -3.0310
42429SOL     OW34147   2.781  12.453   3.318 -0.3428 -0.5654  0.7117
42429SOL    HW134148   2.695  12.415   3.332 -0.6661  0.2305  0.9133
42429SOL    HW234149   2.777  12.490   3.230 -0.0867 -0.8359  0.5839
42430SOL     OW34150   1.164   4.886   2.806 -0.1871  0.2614 -0.4613
42430SOL    HW134151   1.192   4.867   2.895  0.1402  0.0359 -0.6110
42430SOL    HW234152   1.071   4.863   2.804  0.0728 -0.8158 -0.4962
42431SOL     OW34153   2.081   5.111  10.608 -0.1027  0.6400  0.0848
42431SOL    HW134154   2.072   5.018  10.629  0.2230  0.9834  1.9153
42431SOL    HW234155   2.043   5.156  10.683 -0.6611  2.0076 -0.9669
42432SOL     OW34156   4.481   3.193  11.290 -0.3151  0.9378 -0.3217
42432SOL    HW134157   4.433   3.111  11.282  0.7543  0.3527 -1.0293
42432SOL    HW234158   4.530   3.201  11.208  0.1509  1.9181  0.0301
42433SOL     OW34159   7.722   2.327   7.747  0.1033 -0.3336  0.0318
42433SOL    HW134160   7.757   2.287   7.668  3.1987  2.0329  0.0290
42433SOL    HW234161   7.755   2.417   7.746  0.2754 -0.1584  3.9837
42434SOL     OW34162   9.560   8.430   0.988 -0.3670 -0.1165  0.2591
42434SOL    HW134163   9.590   8.347   0.952  0.6800  1.3485 -2.5178
42434SOL    HW234164   9.635   8.465   1.035  0.0701  0.4273 -0.8233
42435SOL     OW34165   2.754  10.498  10.409  0.7146  0.4368  0.1546
42435SOL    HW134166   2.817  10.521  10.341  0.7521  2.0657  0.6886
42435SOL    HW234167   2.788  10.539  10.489 -0.9679  1.3614  0.4566
42436SOL     OW34168   4.185   2.410   9.152 -0.0745  0.6109  0.0029
42436SOL    HW134169   4.107   2.427   9.205 -1.2883 -1.8770 -0.8771
42436SOL    HW234170   4.154   2.407   9.062  0.9163 -0.9337 -0.3262
42437SOL     OW34171   8.702   0.060   2.364 -0.2576  0.0680  0.1601
42437SOL    HW134172   8.689   0.024   2.452  0.7295 -0.2850  0.1766
42437SOL    HW234173   8.735  -0.014   2.313  0.9974  0.7358 -0.0191
42438SOL     OW34174  11.211   2.247   2.588 -0.2848  0.5912  0.6292
42438SOL    HW134175  11.299   2.284   2.578  0.1146  0.2431  2.4666
42438SOL    HW234176  11.174   2.247   2.500  1.9637 -0.2590 -0.3809
42439SOL     OW34177   8.260   9.625   5.279  0.4804 -0.3045  0.1988
42439SOL    HW134178   8.315   9.680   5.223 -0.2087 -1.2209 -1.4559
42439SOL    HW234179   8.285   9.535   5.255 -1.1208 -0.7264  0.0095
42440SOL     OW34180   8.344   6.822   9.639 -0.3298  0.2265  0.1585
42440SOL    HW134181   8.318   6.759   9.706 -0.0835  1.1317  1.1334
42440SOL    HW234182   8.339   6.907   9.683  2.1871  0.6459 -0.2534
42441SOL     OW34183  11.759   4.902   1.807 -0.3153 -0.2341 -0.0994
42441SOL    HW134184  11.829   4.923   1.869  0.3841 -0.0100 -0.9504
42441SOL    HW234185  11.679   4.912   1.857  0.2158  0.3877  0.6487
42442SOL     OW34186  12.102   9.823   7.924  0.5072 -0.1058  0.5635
42442SOL    HW134187  12.109   9.729   7.939  1.5631 -0.0981  0.1970
42442SOL    HW234188  12.138   9.836   7.836 -0.0397  0.5883  0.4328
42443SOL     OW34189   4.677   8.767   4.544  0.0112  0.0103  0.6170
42443SOL    HW134190   4.598   8.808   4.508 -0.4632 -0.5779  0.9611
42443SOL    HW234191   4.735   8.840   4.563 -0.0902  0.3962 -0.4783
42444SOL     OW34192   9.946  11.063   3.808  0.3749 -0.0334  0.1290
42444SOL    HW134193  10.012  11.051   3.739 -0.7488  0.5397 -1.0875
42444SOL    HW234194   9.986  11.024   3.886  1.0683 -2.1050 -1.1777
42445SOL     OW34195   6.086   7.761  11.469  0.1305 -0.0616  0.5656
42445SOL    HW134196   6.032   7.701  11.521  0.6654 -0.2527  0.9063
42445SOL    HW234197   6.108   7.711  11.390  0.8841 -0.4597  1.0156
42446SOL     OW34198   1.938   4.730   9.845  0.0496 -0.3972 -0.0856
42446SOL    HW134199   1.846   4.723   9.821 -0.4458  2.4423  0.6042
42446SOL    HW234200   1.947   4.673   9.922 -1.4058  0.0253  0.4364
42447SOL     OW34201   6.030   1.817   9.230  0.2862  0.5773 -0.2274
42447SOL    HW134202   6.077   1.733   9.229 -0.7661 -0.1030  1.9344
42447SOL    HW234203   5.959   1.806   9.166 -0.8702 -0.8644  1.2333
42448SOL     OW34204   5.041   7.312   6.126 -0.3713 -0.1070 -0.4717
42448SOL    HW134205   5.097   7.244   6.163  2.4478  2.0432 -0.4270
42448SOL    HW234206   4.952   7.284   6.148  0.6156 -3.5437 -0.1916
42449SOL     OW34207  10.646   1.674   6.110  0.7575 -0.0907  0.1920
42449SOL    HW134208  10.568   1.630   6.076  0.4384 -0.4045  1.3073
42449SOL    HW234209  10.632   1.767   6.089 -0.0371 -0.1090  0.6045
42450SOL     OW34210  10.046  10.728   7.576 -0.1830 -0.2484 -0.7330
42450SOL    HW134211  10.127  10.754   7.621 -0.0271 -2.4087  0.4167
42450SOL    HW234212  10.046  10.778   7.495  1.4321  1.0668  0.0146
42451SOL     OW34213   5.107   3.840   5.122 -0.1715  0.4384 -0.2767
42451SOL    HW134214   5.088   3.932   5.106 -2.0975  0.0364 -0.6398
42451SOL    HW234215   5.198   3.829   5.096 -1.0618  1.3382 -4.5829
42452SOL     OW34216   8.768   0.436  12.316 -0.6081 -0.2084 -0.1936
42452SOL    HW134217   8.695   0.481  12.359 -0.0976  0.9246 -0.4585
42452SOL    HW234218   8.839   0.439  12.381 -0.3932 -0.1176 -0.4312
42453SOL     OW34219   6.224  10.400   7.705  0.0761 -0.2845  0.3086
42453SOL    HW134220   6.285  10.396   7.631 -2.1391 -0.9243 -1.6276
42453SOL    HW234221   6.275  10.436   7.777  1.9621  1.9813 -1.9865
42454SOL     OW34222  12.268   9.206   4.672  0.3218  0.3209 -0.1494
42454SOL    HW134223  12.350   9.158   4.676  0.5906  0.5011 -2.2245
42454SOL    HW234224  12.233   9.188   4.585 -1.6191  0.6301  0.5017
42455SOL     OW34225   9.556   0.517   4.676  0.8632 -0.0292  0.2530
42455SOL    HW134226   9.561   0.586   4.609  2.2219  0.1185  0.4787
42455SOL    HW234227   9.581   0.560   4.757  2.5566 -0.9587  0.2571
42456SOL     OW34228   2.563   1.930   2.505  0.4306 -0.1600 -0.4526
42456SOL    HW134229   2.619   2.001   2.538 -1.1533  0.7939  0.2679
42456SOL    HW234230   2.522   1.893   2.582  0.4938 -1.2569 -0.9212
42457SOL     OW34231   0.776   2.095   1.839  0.0262  0.4088  0.0708
42457SOL    HW134232   0.817   2.129   1.919  1.1030 -1.4821  0.3875
42457SOL    HW234233   0.842   2.037   1.801 -1.4384 -0.7749 -0.7762
42458SOL     OW34234   8.856   9.877  12.269 -0.1769  0.2444  0.0646
42458SOL    HW134235   8.764   9.901  12.272 -0.6496 -0.4597 -4.0026
42458SOL    HW234236   8.856   9.781  12.274  0.5587  0.2929  1.7816
42459SOL     OW34237   0.601   6.870   7.704  0.2828  0.3788 -0.1444
42459SOL    HW134238   0.664   6.820   7.652 -1.1400 -1.3834 -0.2420
42459SOL    HW234239   0.616   6.961   7.678  2.2588 -0.0584 -0.7103
42460SOL     OW34240  11.518   7.769  10.344  0.0897  0.2649  0.3585
42460SOL    HW134241  11.425   7.789  10.355 -0.1933 -0.9985  0.4147
42460SOL    HW234242  11.541   7.808  10.259 -0.2278  1.4145  0.7766
42461SOL     OW34243   9.971   6.558   9.442 -0.2851 -0.0215 -0.1519
42461SOL    HW134244  10.042   6.495   9.427 -0.4605  0.2311 -2.4642
42461SOL    HW234245   9.896   6.505   9.466 -0.5921 -0.8689 -2.6408
42462SOL     OW34246   0.283   0.607   1.230 -0.0393 -0.0856 -0.2656
42462SOL    HW134247   0.261   0.700   1.232 -0.0232 -0.0917  0.8864
42462SOL    HW234248   0.221   0.566   1.290 -0.9833 -1.0502 -1.8523
42463SOL     OW34249   2.204   7.040  11.001 -0.0526 -0.2223 -0.0555
42463SOL    HW134250   2.121   7.027  10.955 -0.3784  1.9242 -0.1561
42463SOL    HW234251   2.254   6.961  10.982 -1.0255 -0.3801 -2.2493
42464SOL     OW34252   3.202   8.082   5.417  0.1824 -0.7627 -0.1215
42464SOL    HW134253   3.277   8.033   5.451  0.3373 -0.4423  0.0026
42464SOL    HW234254   3.138   8.014   5.393 -0.2314 -0.9819  1.4768
42465SOL     OW34255   8.702   3.268   7.613 -0.1557 -0.5127  0.3802
42465SOL    HW134256   8.725   3.208   7.683 -1.2342  0.3464  1.5127
42465SOL    HW234257   8.633   3.223   7.564  0.0641 -0.7917  0.3246
42466SOL     OW34258   5.262   7.107   7.759  0.0742 -0.2042 -0.2804
42466SOL    HW134259   5.221   7.161   7.827 -0.7240  1.2452 -1.8307
42466SOL    HW234260   5.295   7.171   7.696  1.5411 -1.4839 -0.8636
42467SOL     OW34261   8.156   7.925  11.280  0.1939  0.6413 -0.3319
42467SOL    HW134262   8.180   7.833  11.280  2.1326  1.1109 -0.3443
42467SOL    HW234263   8.145   7.947  11.188  0.4948  0.6112 -0.3748
42468SOL     OW34264   5.266  10.682   8.459 -0.5434  0.3284 -0.2344
42468SOL    HW134265   5.355  10.647   8.462 -1.2098 -1.4791  0.9006
42468SOL    HW234266   5.226  10.640   8.383  0.2527  3.2024 -2.4122
42469SOL     OW34267  11.571   8.610   5.920  0.0811  0.2706 -0.3155
42469SOL    HW134268  11.580   8.516   5.937 -0.5169  0.3196  0.3517
42469SOL    HW234269  11.660   8.641   5.907  0.2672 -0.4344 -0.7820
42470SOL     OW34270   8.793   0.582   6.115 -0.1818  0.4188 -0.5249
42470SOL    HW134271   8.810   0.676   6.111 -0.3020  0.4373 -0.6059
42470SOL    HW234272   8.839   0.552   6.193 -1.1863  0.7691  0.2297
42471SOL     OW34273   1.261   2.290   8.360  0.2826 -0.1290 -0.0986
42471SOL    HW134274   1.196   2.221   8.349 -0.5114  0.2955  1.5316
42471SOL    HW234275   1.249   2.347   8.284 -0.8877 -0.3534 -0.1059
42472SOL     OW34276   7.898  10.255  10.605 -0.3591 -0.1332 -0.4577
42472SOL    HW134277   7.972  10.315  10.615 -0.6322  0.4044 -1.5432
42472SOL    HW234278   7.821  10.309  10.625 -0.5758 -0.2150 -1.0540
42473SOL     OW34279  10.481   2.633   9.128  0.2276  0.1269  0.3969
42473SOL    HW134280  10.508   2.714   9.172  0.2324  0.7759 -0.7541
42473SOL    HW234281  10.550   2.617   9.063 -0.2246 -0.3143  0.0167
42474SOL     OW34282   5.868   9.689   4.450 -0.2657 -0.3195  0.0523
42474SOL    HW134283   5.797   9.626   4.451  0.1528 -0.8019 -0.1330
42474SOL    HW234284   5.930   9.655   4.385 -0.4507  0.7431 -0.7233
42475SOL     OW34285   2.198  10.998   9.112  0.1879 -0.2693 -0.1988
42475SOL    HW134286   2.134  10.929   9.129 -1.1357  0.6886 -1.0350
42475SOL    HW234287   2.158  11.077   9.149 -0.3084  0.8166 -2.7978
42476SOL     OW34288   9.576  11.039  11.952  0.1707  0.4709 -0.1361
42476SOL    HW134289   9.613  11.120  11.916  1.2523  0.2341  0.4175
42476SOL    HW234290   9.538  10.994  11.876 -0.8126  1.6813 -0.3882
42477SOL     OW34291   3.159   7.813   2.384  0.1988 -0.6007 -0.5031
42477SOL    HW134292   3.229   7.803   2.320  1.6328 -0.7527  1.0252
42477SOL    HW234293   3.198   7.861   2.456 -1.1874 -0.9619  0.5420
42478SOL     OW34294  10.809   0.969   7.288 -0.4007 -0.5274  0.1033
42478SOL    HW134295  10.904   0.961   7.282 -0.5360 -3.0043  0.2901
42478SOL    HW234296  10.778   0.963   7.198 -0.3872  1.0190 -0.0348
42479SOL     OW34297   3.931   4.516  11.431  0.3475 -0.1564 -0.4728
42479SOL    HW134298   3.850   4.488  11.388 -0.6496  1.2364  0.4233
42479SOL    HW234299   3.983   4.436  11.437  0.5686 -0.4971 -4.1831
42480SOL     OW34300   7.246  12.327   4.709  0.4919 -0.0846 -0.6494
42480SOL    HW134301   7.184  12.398   4.690 -0.3624 -0.6638 -0.1132
42480SOL    HW234302   7.280  12.302   4.623 -0.0542  0.2207 -0.9681
42481SOL     OW34303   5.793  12.263   4.147 -0.3845 -0.2464  0.7047
42481SOL    HW134304   5.818  12.231   4.233  1.9965  0.7911  0.4936
42481SOL    HW234305   5.865  12.236   4.089 -0.9964  0.6769 -0.5561
42482SOL     OW34306   8.977   7.399   8.224 -0.2993 -0.5094 -0.2500
42482SOL    HW134307   8.982   7.486   8.185 -0.1100 -1.6506 -3.0401
42482SOL    HW234308   8.883   7.384   8.239 -0.3216  0.1814  0.3427
42483SOL     OW34309   7.641   5.329  11.992 -0.3903 -0.0596 -0.4402
42483SOL    HW134310   7.642   5.272  11.915  1.6787  1.1105 -1.3793
42483SOL    HW234311   7.631   5.417  11.956  3.9338  0.9068  0.1599
42484SOL     OW34312   7.617   9.941  11.436 -0.0611  0.5599 -0.0005
42484SOL    HW134313   7.556   9.918  11.506 -2.7903  1.5299 -1.9151
42484SOL    HW234314   7.623   9.862  11.382  2.1851 -0.2500  1.2660
42485SOL     OW34315   4.076   7.514   5.701  0.3616  0.5457  0.3213
42485SOL    HW134316   4.144   7.520   5.634 -0.3259  0.4561 -0.4136
42485SOL    HW234317   4.089   7.429   5.742  2.1080  1.4641  1.7999
42486SOL     OW34318   1.893   1.712   9.541 -0.2685 -0.0390 -0.2314
42486SOL    HW134319   1.972   1.705   9.595 -1.6509  0.9486  2.1202
42486SOL    HW234320   1.828   1.658   9.587 -1.8478  1.8074 -0.1584
42487SOL     OW34321  10.965   6.210   1.664  0.5712 -0.2510 -0.3805
42487SOL    HW134322  10.988   6.250   1.748 -0.2407  1.5351 -0.9746
42487SOL    HW234323  11.003   6.268   1.598 -0.1752 -0.7449 -1.2658
42488SOL     OW34324   2.289   6.113   3.371  0.5535  0.1838  0.2558
42488SOL    HW134325   2.262   6.126   3.280 -0.4499 -1.2408  0.3189
42488SOL    HW234326   2.384   6.123   3.370  0.4265  1.5138 -0.6867
42489SOL     OW34327  11.335   9.613   9.561  0.3776 -0.4902 -0.2105
42489SOL    HW134328  11.421   9.575   9.544 -0.8265 -3.5490 -0.0423
42489SOL    HW234329  11.278   9.577   9.493 -1.3455 -0.8203  1.3098
42490SOL     OW34330   6.168   8.106   3.928  0.1445 -0.2740 -0.0888
42490SOL    HW134331   6.119   8.186   3.909 -0.1171 -0.2261  0.7461
42490SOL    HW234332   6.122   8.067   4.002 -0.0609 -1.4936 -0.8324
42491SOL     OW34333   8.628   7.651   0.876 -0.0698 -0.1350 -0.0158
42491SOL    HW134334   8.550   7.708   0.882  0.6229  1.1508 -1.9229
42491SOL    HW234335   8.592   7.563   0.870 -1.3835  0.3846 -0.3267
42492SOL     OW34336  11.114   4.160   8.047  0.3567  0.4061 -0.0210
42492SOL    HW134337  11.106   4.100   7.973 -0.7429  0.6509 -0.1178
42492SOL    HW234338  11.197   4.206   8.032  1.3953 -1.2986  0.2273
42493SOL     OW34339   9.211   4.095   2.568  0.1288 -0.2125 -0.1227
42493SOL    HW134340   9.280   4.048   2.613  0.3286  0.5171  0.3521
42493SOL    HW234341   9.202   4.177   2.616 -0.5764  0.0089 -0.6067
42494SOL     OW34342   3.932   3.090  10.501 -0.6153 -0.1855 -0.0751
42494SOL    HW134343   3.943   3.167  10.445 -0.2467 -0.0768  0.1393
42494SOL    HW234344   3.891   3.025  10.444 -1.6579  0.4250 -0.0339
42495SOL     OW34345   3.558   7.775   7.147 -0.3898  0.7950  0.2786
42495SOL    HW134346   3.650   7.798   7.160 -0.2908  2.2790 -2.4323
42495SOL    HW234347   3.559   7.681   7.127  0.7517  1.0881 -1.2137
42496SOL     OW34348   1.724   3.465   6.698  0.3300 -0.3630  0.1790
42496SOL    HW134349   1.811   3.494   6.725  0.2441 -1.1793  1.4002
42496SOL    HW234350   1.685   3.542   6.656  0.2701  1.1995  2.9031
42497SOL     OW34351   3.286   5.116  10.897 -0.3443 -0.0738  0.0667
42497SOL    HW134352   3.373   5.129  10.860 -1.1363 -0.3645 -2.0162
42497SOL    HW234353   3.297   5.044  10.959  0.9200  0.0382  0.0053
42498SOL     OW34354   1.114   0.244   1.769 -0.6360 -0.5674 -0.8272
42498SOL    HW134355   1.197   0.199   1.759 -1.3237 -1.6419 -1.9016
42498SOL    HW234356   1.085   0.261   1.679 -1.6345 -0.3244 -0.4714
42499SOL     OW34357   6.805   4.996   6.286  0.0518  0.4877  0.4858
42499SOL    HW134358   6.814   5.086   6.316 -1.6213  1.6525 -2.1297
42499SOL    HW234359   6.769   4.949   6.361 -2.2207  2.7694  0.9717
42500SOL     OW34360  12.103   1.301   5.096  0.2572 -0.3225 -0.0165
42500SOL    HW134361  12.092   1.391   5.126 -0.2988 -0.2499 -0.4234
42500SOL    HW234362  12.057   1.248   5.161  0.7014 -0.3338  0.2976
42501SOL     OW34363   9.205  11.795   9.175 -0.1654  0.6074  0.8495
42501SOL    HW134364   9.277  11.744   9.139  0.4110  2.6769 -1.1682
42501SOL    HW234365   9.247  11.857   9.235 -0.4150  0.9567  0.6671
42502SOL     OW34366  10.382   1.649   7.797  0.3789 -0.2356  0.1420
42502SOL    HW134367  10.371   1.701   7.877 -1.0819 -1.4369  0.7726
42502SOL    HW234368  10.420   1.567   7.826 -0.3602 -0.7653 -0.3573
42503SOL     OW34369   0.353   8.994   4.057  0.8380  0.0102 -0.4539
42503SOL    HW134370   0.373   9.059   4.125  2.0034 -2.8123  2.1884
42503SOL    HW234371   0.439   8.969   4.022  0.3687  0.2594 -1.8319
42504SOL     OW34372   5.155   0.621   2.339  0.4745  0.2306  0.4378
42504SOL    HW134373   5.076   0.584   2.380  1.0444  1.4240  2.7575
42504SOL    HW234374   5.122   0.664   2.260 -0.9589 -0.5758  0.5503
42505SOL     OW34375   6.552   3.142  11.629  0.0174  0.0172 -0.5954
42505SOL    HW134376   6.461   3.120  11.648  0.2275 -0.6355 -0.3070
42505SOL    HW234377   6.571   3.096  11.547 -0.3703  1.4240 -1.5052
42506SOL     OW34378   1.514   9.323   2.191  0.6285  0.5357  0.0126
42506SOL    HW134379   1.482   9.235   2.175  0.4462  0.6405 -0.2115
42506SOL    HW234380   1.609   9.316   2.187  0.5941  0.5172 -0.9259
42507SOL     OW34381  11.587   5.507   8.720 -0.4523 -0.1378  0.1355
42507SOL    HW134382  11.680   5.512   8.738 -0.4138  1.4411 -0.3764
42507SOL    HW234383  11.572   5.415   8.697  1.3920  0.0140 -1.9472
42508SOL     OW34384   6.857   5.193  12.241  1.0108  0.6055 -0.3661
42508SOL    HW134385   6.805   5.271  12.263 -1.4078 -1.1200  0.5017
42508SOL    HW234386   6.842   5.179  12.148  0.4558  0.5243 -0.2690
42509SOL     OW34387  11.623   3.489   7.820  0.2394 -0.0222  0.1012
42509SOL    HW134388  11.631   3.545   7.743  2.2565 -0.8264 -0.3450
42509SOL    HW234389  11.532   3.461   7.821  0.3748 -0.8795 -2.6953
42510SOL     OW34390   6.218   5.759   3.979 -0.9410 -0.5041 -0.0798
42510SOL    HW134391   6.205   5.680   4.031 -0.3716 -0.1057  0.6810
42510SOL    HW234392   6.155   5.750   3.907 -0.5255 -1.9031 -0.3129
42511SOL     OW34393  10.348  10.899   6.909 -0.5371 -0.3387  0.0249
42511SOL    HW134394  10.294  10.946   6.846  0.4822  1.0407  0.1109
42511SOL    HW234395  10.432  10.887   6.865 -1.1964 -3.5729 -0.5894
42512SOL     OW34396   6.292   6.558   1.341  0.0671 -0.2205 -0.2270
42512SOL    HW134397   6.355   6.630   1.351  1.1474 -0.8449 -2.1153
42512SOL    HW234398   6.219   6.582   1.398  0.9494  1.7442  0.1455
42513SOL     OW34399  10.179   9.174   7.380 -0.3943 -0.3796  0.3143
42513SOL    HW134400  10.267   9.198   7.349 -0.2757  1.9010  2.0978
42513SOL    HW234401  10.189   9.084   7.413  0.5319 -1.1811 -1.9612
42514SOL     OW34402   8.031   2.377   2.370 -0.3452  0.2679  0.5105
42514SOL    HW134403   8.073   2.376   2.284 -1.5407  1.8970 -0.1672
42514SOL    HW234404   8.071   2.451   2.415  0.8671 -1.0760  1.7239
42515SOL     OW34405   7.135   9.010  11.808  0.2056 -0.0489 -0.6042
42515SOL    HW134406   7.182   9.069  11.749 -0.0691  0.6574 -0.1176
42515SOL    HW234407   7.183   8.927  11.801  0.7399  0.2929 -1.0985
42516SOL     OW34408   1.158   2.774   5.025 -0.6988  0.0440 -0.0894
42516SOL    HW134409   1.155   2.714   4.951 -0.1558  0.0341 -0.1127
42516SOL    HW234410   1.067   2.800   5.040 -0.5892  2.0976 -2.4404
42517SOL     OW34411   9.193  11.089   0.509 -0.2119 -0.3314 -0.3589
42517SOL    HW134412   9.195  11.126   0.597  1.9407 -0.7343 -0.1899
42517SOL    HW234413   9.178  11.165   0.452  1.9313  0.5239  0.1301
42518SOL     OW34414  10.879   7.920  10.152 -0.1911 -0.3176  0.3964
42518SOL    HW134415  10.836   7.918  10.237 -0.3725 -0.0061  0.3105
42518SOL    HW234416  10.822   7.973  10.097  0.5019  0.4387  0.3938
42519SOL     OW34417   6.551   6.021   6.937 -0.0731 -0.0255  0.1655
42519SOL    HW134418   6.555   5.928   6.916  0.2044  0.6293 -3.2929
42519SOL    HW234419   6.616   6.062   6.880 -0.4461  2.3517  1.2939
42520SOL     OW34420  10.875   8.513   2.950  0.6972 -0.1268 -0.5459
42520SOL    HW134421  10.843   8.428   2.982 -1.2513  0.4771 -0.7508
42520SOL    HW234422  10.832   8.524   2.865  0.7789  1.1538 -0.4352
42521SOL     OW34423   4.809   2.275  11.800  0.1703  0.3407  0.2378
42521SOL    HW134424   4.897   2.276  11.836  0.0532  0.7838  0.5261
42521SOL    HW234425   4.754   2.241  11.872  0.1678 -0.3691 -0.0948
42522SOL     OW34426   8.790   9.877   8.447 -0.2028 -0.1987  0.0823
42522SOL    HW134427   8.728   9.822   8.401  0.5219 -0.9401 -0.0440
42522SOL    HW234428   8.795   9.958   8.395 -2.2016  0.5451  0.9348
42523SOL     OW34429  10.369   6.972  12.272 -0.3887  0.1793 -0.2098
42523SOL    HW134430  10.450   6.963  12.223  0.0883 -1.5531  0.8192
42523SOL    HW234431  10.306   6.918  12.224 -0.5230  0.2818 -0.1505
42524SOL     OW34432   6.050   5.159   1.321  0.5284  0.5653 -0.4018
42524SOL    HW134433   6.053   5.250   1.293  0.5831  0.8171  0.4036
42524SOL    HW234434   5.992   5.117   1.258 -0.8464  1.5116  0.1868
42525SOL     OW34435   1.660   9.340   7.706 -0.7565 -0.3605 -0.1331
42525SOL    HW134436   1.649   9.247   7.730 -0.2165 -0.6395 -0.9473
42525SOL    HW234437   1.572   9.369   7.683 -0.8138 -0.8773 -0.5915
42526SOL     OW34438   6.585  10.415  10.734  0.1849 -0.2230  0.1368
42526SOL    HW134439   6.499  10.405  10.774  0.7234 -2.3320  0.8909
42526SOL    HW234440   6.633  10.472  10.793 -0.3473  0.1075  0.2579
42527SOL     OW34441  11.789   9.171  10.139  0.5840 -0.4536 -0.1878
42527SOL    HW134442  11.713   9.129  10.179 -0.8900 -0.2663 -2.5569
42527SOL    HW234443  11.782   9.263  10.166 -0.9089 -0.1395 -1.4457
42528SOL     OW34444  12.134   7.759   4.228 -0.7437  0.1267 -0.7999
42528SOL    HW134445  12.176   7.842   4.205  0.9520 -0.4173  0.1997
42528SOL    HW234446  12.185   7.693   4.182 -1.0740 -0.4969 -0.2813
42529SOL     OW34447  10.299  11.523   9.947  0.0509  0.2292 -0.3251
42529SOL    HW134448  10.239  11.597   9.949 -0.4706 -0.1296 -1.7709
42529SOL    HW234449  10.386  11.563   9.957 -0.2715  0.9562 -0.3516
42530SOL     OW34450   7.642   8.548  10.330 -0.3854 -0.6361 -0.2712
42530SOL    HW134451   7.689   8.631  10.339 -0.7038 -0.5507  0.7423
42530SOL    HW234452   7.550   8.573  10.327 -0.3999 -0.8037 -2.2179
42531SOL     OW34453   5.928   3.782  10.742 -0.0092  0.5108 -0.1551
42531SOL    HW134454   5.952   3.828  10.662  0.3275  0.7142  0.0621
42531SOL    HW234455   5.899   3.695  10.712 -1.5245  1.1452 -0.6528
42532SOL     OW34456  12.314   7.970  10.282  0.1892 -0.2235 -0.5276
42532SOL    HW134457  12.250   8.031  10.246  0.9736  0.3700 -0.9412
42532SOL    HW234458  12.295   7.887  10.238  1.1394  0.4874 -2.3832
42533SOL     OW34459  12.063   9.150   7.124 -0.2959  0.0175 -0.3360
42533SOL    HW134460  12.062   9.134   7.030 -2.5492  0.4702 -0.4369
42533SOL    HW234461  12.150   9.121   7.152 -0.6583 -3.1305 -2.0267
42534SOL     OW34462   5.364   4.873   1.566  0.0287  0.2483  0.1953
42534SOL    HW134463   5.446   4.916   1.590  0.1075  2.3182 -3.0657
42534SOL    HW234464   5.340   4.913   1.482 -2.3076 -3.0399 -0.9325
42535SOL     OW34465   4.202   8.806   1.350  0.5714 -0.4682  0.3854
42535SOL    HW134466   4.132   8.856   1.392  1.2436  0.1489  0.7949
42535SOL    HW234467   4.174   8.798   1.259 -1.1871 -2.3200  1.0298
42536SOL     OW34468  10.653   0.088   7.444 -0.2550 -0.1805  0.6570
42536SOL    HW134469  10.685   0.169   7.404 -0.0978 -0.7330 -0.3725
42536SOL    HW234470  10.563   0.107   7.470 -0.1052  0.4267  0.7436
42537SOL     OW34471   5.799  12.260   9.262  0.5601  0.1522  0.6119
42537SOL    HW134472   5.862  12.289   9.196  0.6524 -1.0943  0.1265
42537SOL    HW234473   5.825  12.306   9.342  0.1935  2.0142 -0.2980
42538SOL     OW34474   1.815   8.671   7.138  0.0888  0.3935  0.5142
42538SOL    HW134475   1.897   8.720   7.149  0.9247 -0.5196 -1.2055
42538SOL    HW234476   1.800   8.630   7.224  1.9199 -0.1138  0.6373
42539SOL     OW34477  10.164   1.130  11.924 -0.2193 -0.0522  0.2958
42539SOL    HW134478  10.194   1.040  11.930  0.4068  0.1543  0.3475
42539SOL    HW234479  10.079   1.130  11.967 -2.2781 -1.5036 -3.3108
42540SOL     OW34480   8.414   9.393   9.042  0.0987  0.0986  0.2852
42540SOL    HW134481   8.392   9.457   8.974 -1.0476 -0.4922  0.0785
42540SOL    HW234482   8.457   9.321   8.995  2.2711  1.0799  0.6369
42541SOL     OW34483  11.684   5.763   7.440  0.0724 -0.1773  0.0052
42541SOL    HW134484  11.653   5.767   7.349  0.6544 -1.2051 -0.2563
42541SOL    HW234485  11.647   5.682   7.475  1.0074 -0.5266  0.2263
42542SOL     OW34486  12.402   1.303  11.489 -0.8748 -0.4274 -0.0058
42542SOL    HW134487  12.350   1.228  11.517 -0.4065 -0.5322  0.6153
42542SOL    HW234488  12.345   1.378  11.503 -0.8668 -0.5391  0.6936
42543SOL     OW34489   0.585   6.389   2.994 -0.4540  0.1956  0.8646
42543SOL    HW134490   0.672   6.428   2.993 -0.5223  0.3454  0.1207
42543SOL    HW234491   0.554   6.396   2.904 -1.3093  0.2990  1.1539
42544SOL     OW34492   1.614   7.963   5.042  0.0594 -0.6457  0.1215
42544SOL    HW134493   1.633   7.880   4.999 -0.1920 -0.8422  0.3860
42544SOL    HW234494   1.687   8.020   5.018  0.3552 -1.0166  0.1320
42545SOL     OW34495   8.727   2.377   2.150  0.0225 -0.2868 -0.1748
42545SOL    HW134496   8.800   2.436   2.128 -0.7574  0.9683  0.5180
42545SOL    HW234497   8.770   2.298   2.183  1.0814  0.6309  0.7337
42546SOL     OW34498   9.671   9.613   5.892 -0.4060 -0.3258  0.0342
42546SOL    HW134499   9.669   9.673   5.967 -1.2709 -1.1692  0.7015
42546SOL    HW234500   9.669   9.671   5.816 -2.7343  0.4927  0.6496
42547SOL     OW34501   2.495   5.778   9.052 -0.6617  0.4204 -0.2353
42547SOL    HW134502   2.526   5.701   9.100  0.4123  0.1266 -1.3397
42547SOL    HW234503   2.485   5.845   9.119 -2.6996 -0.9438  0.9256
42548SOL     OW34504   9.342   6.476   9.447  0.5200  0.3851  0.4784
42548SOL    HW134505   9.419   6.458   9.393  1.7370  1.9030  1.5769
42548SOL    HW234506   9.369   6.550   9.502 -1.1444 -0.1362  2.1057
42549SOL     OW34507   7.516   3.999   9.692  0.7443 -0.2961  0.2866
42549SOL    HW134508   7.520   3.904   9.704  1.1963 -0.4302 -0.7863
42549SOL    HW234509   7.507   4.011   9.597  1.3872  0.7474  0.3362
42550SOL     OW34510   7.792   9.768  11.006  0.1598 -0.2633  0.6353
42550SOL    HW134511   7.795   9.835  11.074 -1.8719  2.2511 -1.5308
42550SOL    HW234512   7.711   9.720  11.023 -0.6450  0.7302 -0.2065
42551SOL     OW34513  10.603   8.528   8.271 -0.3650  0.2400  0.1747
42551SOL    HW134514  10.687   8.519   8.316  0.3866  1.5284 -0.8791
42551SOL    HW234515  10.626   8.571   8.188 -2.2544  2.2346  0.6032
42552SOL     OW34516  11.852   0.657   7.737 -0.2871  0.2603 -0.0279
42552SOL    HW134517  11.775   0.706   7.709 -0.8418  0.3151  1.4759
42552SOL    HW234518  11.926   0.714   7.718 -0.5937  0.1778 -1.5646
42553SOL     OW34519   0.112   7.529   8.433  0.2169 -0.4521 -0.2957
42553SOL    HW134520   0.084   7.536   8.342  0.6623 -0.7794 -0.4576
42553SOL    HW234521   0.142   7.439   8.443 -0.8889 -0.7574  0.4847
42554SOL     OW34522   2.041   7.725  10.870 -0.1775  0.2971  0.1212
42554SOL    HW134523   2.014   7.649  10.818 -0.9559  0.7267 -0.1285
42554SOL    HW234524   1.980   7.794  10.844  1.4549  1.4681 -0.7788
42555SOL     OW34525   0.301   5.647   4.826  0.0634 -0.1915  0.2209
42555SOL    HW134526   0.283   5.734   4.862  0.4883  0.3811 -0.9165
42555SOL    HW234527   0.250   5.643   4.746 -2.0443 -2.0243  1.5371
42556SOL     OW34528   8.973   1.702   8.877  0.3615  0.3030 -0.6544
42556SOL    HW134529   8.980   1.662   8.790  4.3266  0.2276 -0.4732
42556SOL    HW234530   8.941   1.632   8.933 -1.5278  0.1377 -1.8259
42557SOL     OW34531   5.393   5.052   8.914 -0.1129 -0.1002 -0.2900
42557SOL    HW134532   5.393   5.135   8.961 -0.5343 -0.9604  1.2943
42557SOL    HW234533   5.483   5.019   8.925 -0.3838 -0.6037  0.5114
42558SOL     OW34534  12.005  12.117   1.433 -0.1040  0.2545 -0.4790
42558SOL    HW134535  12.010  12.021   1.435 -0.1321  0.2352 -1.0321
42558SOL    HW234536  11.982  12.142   1.522 -0.0242 -0.2518 -0.3134
42559SOL     OW34537   2.059   5.074   4.474  0.3731  0.1694  0.0550
42559SOL    HW134538   2.033   4.986   4.448  1.0409  0.8277 -3.4345
42559SOL    HW234539   2.006   5.093   4.551 -0.9478 -2.6802 -0.0169
42560SOL     OW34540   0.441   6.435   6.465 -0.2321  0.0563 -0.2828
42560SOL    HW134541   0.501   6.361   6.473 -0.8475 -0.7530 -2.3690
42560SOL    HW234542   0.491   6.510   6.497  0.7853 -1.0660  0.8897
42561SOL     OW34543   6.492   4.952   1.856  0.5906 -0.3126  0.3404
42561SOL    HW134544   6.498   4.907   1.940 -1.3881 -0.4541  0.4470
42561SOL    HW234545   6.510   4.885   1.791 -0.7989 -0.9237  0.5597
42562SOL     OW34546   5.855   4.924   8.802  0.4005  0.1962 -0.2371
42562SOL    HW134547   5.846   4.840   8.756  0.4184 -0.4474  0.8907
42562SOL    HW234548   5.933   4.912   8.857  1.2054  1.4479 -1.0713
42563SOL     OW34549   4.657   5.571   9.315  0.0168 -0.5141  0.0621
42563SOL    HW134550   4.562   5.586   9.314  0.2797  1.7756  1.3575
42563SOL    HW234551   4.684   5.592   9.404  1.9570  0.6762 -0.7248
42564SOL     OW34552   3.978  10.292   7.537 -0.2480 -0.0630 -0.4494
42564SOL    HW134553   3.979  10.211   7.485 -1.0503 -0.4891  0.1726
42564SOL    HW234554   3.920  10.351   7.490 -0.9927 -0.4574 -0.0523
42565SOL     OW34555  12.449   9.754   6.097 -0.2732  0.2077  0.1173
42565SOL    HW134556  12.537   9.720   6.112  0.5589  2.5646  1.0413
42565SOL    HW234557  12.451   9.843   6.132 -2.7863  0.6458 -0.6250
42566SOL     OW34558   1.057  10.736   2.298  0.2155  0.2012 -0.6185
42566SOL    HW134559   1.025  10.716   2.211 -0.5137  0.0229 -0.3157
42566SOL    HW234560   1.139  10.687   2.305  0.5551  0.6355 -1.3825
42567SOL     OW34561   7.862   2.171   6.145 -0.6426 -0.1454 -0.1640
42567SOL    HW134562   7.853   2.257   6.103  1.2283  0.8911  1.4088
42567SOL    HW234563   7.804   2.175   6.221  1.6053  0.9763  1.6280
42568SOL     OW34564  12.224   5.299  12.126 -0.1476  0.3301 -0.5819
42568SOL    HW134565  12.287   5.228  12.115  0.5007  0.8440 -0.2477
42568SOL    HW234566  12.144   5.267  12.084  0.8484  0.3762 -2.6246
42569SOL     OW34567   9.321   5.662   8.988  0.5697 -0.3922  0.1228
42569SOL    HW134568   9.300   5.641   8.897 -1.8711 -1.8594  0.9288
42569SOL    HW234569   9.395   5.605   9.009  0.6303 -0.6312 -0.7079
42570SOL     OW34570   0.338   3.361   0.657  0.6556  0.1132 -0.2959
42570SOL    HW134571   0.365   3.356   0.749  0.8655 -0.3465 -0.3815
42570SOL    HW234572   0.402   3.420   0.616  0.0497  1.0269  0.0331
42571SOL     OW34573   8.455   0.602   1.429 -1.1350  0.0504 -0.9660
42571SOL    HW134574   8.497   0.619   1.513 -1.3350  0.8798 -1.0237
42571SOL    HW234575   8.439   0.508   1.428  0.8503 -0.3267 -1.0039
42572SOL     OW34576   0.495   9.019   8.688 -0.0468 -0.3768  0.2584
42572SOL    HW134577   0.542   9.100   8.711  3.2123 -2.0389 -0.0284
42572SOL    HW234578   0.523   8.956   8.755 -0.9270 -1.8040 -0.6853
42573SOL     OW34579   5.973  11.980   6.797  0.0129 -0.4927 -0.3975
42573SOL    HW134580   5.940  12.035   6.726  1.7729 -0.4546 -1.2634
42573SOL    HW234581   5.972  11.891   6.760 -0.3422 -0.6728  0.0386
42574SOL     OW34582   5.641   8.690   8.286 -0.4017 -0.2066 -0.2437
42574SOL    HW134583   5.583   8.749   8.334 -1.5126 -0.6368 -1.0128
42574SOL    HW234584   5.645   8.727   8.197  2.1075  0.9229  0.2485
42575SOL     OW34585   4.557   6.851  12.376  0.4709 -0.0907  0.9422
42575SOL    HW134586   4.601   6.766  12.370  0.2904 -0.1130 -0.3147
42575SOL    HW234587   4.614   6.904  12.432  2.0684 -0.1423 -0.5708
42576SOL     OW34588   7.492   2.008   8.010 -0.2234 -0.1926 -0.7757
42576SOL    HW134589   7.446   2.039   7.932 -1.5045 -1.4402 -0.5575
42576SOL    HW234590   7.572   2.061   8.013 -1.4781  1.8820 -1.3419
42577SOL     OW34591   1.760   0.203   9.602  0.3746  0.1538 -0.0981
42577SOL    HW134592   1.702   0.176   9.673  0.1342 -0.1776 -0.4176
42577SOL    HW234593   1.843   0.158   9.619  0.4544  0.4158  0.2097
42578SOL     OW34594   2.702   8.794   8.733  0.0244  0.3856 -0.4761
42578SOL    HW134595   2.685   8.712   8.779 -0.2671  0.3289 -0.6807
42578SOL    HW234596   2.655   8.861   8.784 -1.0720  0.1905 -1.1897
42579SOL     OW34597   8.456   6.509   2.121 -0.2410  0.0649  1.1027
42579SOL    HW134598   8.431   6.452   2.049  0.5017  2.3059 -1.0787
42579SOL    HW234599   8.540   6.475   2.152 -0.0265 -0.2998  0.1472
42580SOL     OW34600  11.594   3.245   8.046 -0.0708  0.2816  0.3290
42580SOL    HW134601  11.633   3.309   7.987  0.0402  0.7060  0.8468
42580SOL    HW234602  11.623   3.272   8.133 -1.4139  0.5485  0.7272
42581SOL     OW34603   2.234   4.973   4.834 -0.0977  0.9462 -0.2534
42581SOL    HW134604   2.286   5.004   4.908 -1.7688  0.3551  1.2437
42581SOL    HW234605   2.247   4.878   4.833  0.6900  1.0508 -1.3681
42582SOL     OW34606   1.177   5.959   7.334 -0.2560  0.0916  0.2850
42582SOL    HW134607   1.167   5.894   7.403 -0.0879 -0.0741  0.1524
42582SOL    HW234608   1.212   6.036   7.378  2.3731 -0.8209 -0.0214
42583SOL     OW34609   1.804   4.956   4.871  0.3514 -0.1190  0.1081
42583SOL    HW134610   1.721   4.914   4.848  0.4223  0.0097 -0.3990
42583SOL    HW234611   1.852   4.890   4.920  0.4157 -0.5969 -0.5833
42584SOL     OW34612   7.406   2.920  11.915 -0.6662 -0.1306  0.3867
42584SOL    HW134613   7.313   2.943  11.904 -0.6157 -0.0711  0.0579
42584SOL    HW234614   7.430   2.878  11.832 -0.6318 -0.9510  0.8034
42585SOL     OW34615   8.445  10.728  11.889  0.4062  0.5067  0.4342
42585SOL    HW134616   8.368  10.689  11.848  1.7376  0.3021 -2.0694
42585SOL    HW234617   8.437  10.704  11.982 -1.5428 -1.1082 -0.0607
42586SOL     OW34618  11.876   3.635   7.594  0.4297 -0.3163  0.1423
42586SOL    HW134619  11.798   3.588   7.565  0.5052 -1.7181  2.0448
42586SOL    HW234620  11.878   3.714   7.540 -1.1830 -1.2167 -1.3148
42587SOL     OW34621   1.663   4.798   6.820  0.0744 -0.5528  0.0196
42587SOL    HW134622   1.612   4.867   6.861  0.4328 -1.7304  2.6168
42587SOL    HW234623   1.706   4.841   6.745 -1.7708  1.3262 -0.0420
42588SOL     OW34624   8.944   5.961   2.032 -0.4042  0.2245 -0.3682
42588SOL    HW134625   8.877   5.987   1.969 -0.9274 -1.3701 -0.5034
42588SOL    HW234626   8.942   5.866   2.032  0.5404  0.1698  1.0532
42589SOL     OW34627   8.315   6.052   8.200 -0.3280 -0.0674 -0.1367
42589SOL    HW134628   8.259   5.981   8.169  0.4636 -1.1032  0.7687
42589SOL    HW234629   8.382   6.010   8.253  0.4348  1.3099  0.0532
42590SOL     OW34630   0.097   0.853   2.079  0.2645 -0.1705  0.0828
42590SOL    HW134631   0.130   0.784   2.136 -0.2971 -1.2796 -0.9018
42590SOL    HW234632   0.167   0.918   2.078  0.8382 -0.7468  0.9655
42591SOL     OW34633   9.930   8.206   4.262 -0.0638  0.6549 -0.5388
42591SOL    HW134634   9.866   8.136   4.277  0.4775  0.3555  0.4428
42591SOL    HW234635   9.877   8.284   4.244 -0.6765  0.1118 -1.1633
42592SOL     OW34636   0.996   2.438  11.986 -0.9935  0.2585 -0.4495
42592SOL    HW134637   0.946   2.483  11.918 -0.2791 -0.2882 -1.3618
42592SOL    HW234638   0.998   2.347  11.958 -1.2025 -0.1031  0.6376
42593SOL     OW34639   8.524   7.161   2.620  0.4389  0.4560 -0.0891
42593SOL    HW134640   8.541   7.070   2.597  1.7036  0.9321 -1.1567
42593SOL    HW234641   8.589   7.211   2.571 -0.9028  2.0214 -0.3757
42594SOL     OW34642   8.436   8.338   2.384 -0.3552 -0.0308  0.2176
42594SOL    HW134643   8.526   8.366   2.400  0.4933 -0.9915 -2.3155
42594SOL    HW234644   8.445   8.250   2.347 -2.0468  0.9336 -2.7908
42595SOL     OW34645   5.018   3.583   4.961 -0.5781 -0.1874 -0.6099
42595SOL    HW134646   5.113   3.594   4.972 -0.8127  2.4290 -0.5116
42595SOL    HW234647   5.005   3.575   4.867 -0.3182  0.4241 -0.7024
42596SOL     OW34648   2.465   6.597  12.187  0.0944 -0.1829  0.1601
42596SOL    HW134649   2.496   6.507  12.181  1.8290  0.3605  0.1653
42596SOL    HW234650   2.419   6.612  12.105  3.0888  0.0244 -1.6185
42597SOL     OW34651   4.731  11.735   3.697 -0.2237 -0.3251 -0.2847
42597SOL    HW134652   4.808  11.723   3.641 -0.0545  1.1131 -0.3813
42597SOL    HW234653   4.766  11.769   3.780 -0.8264  1.4930 -0.7340
42598SOL     OW34654   8.216  10.717  11.325 -0.0997 -0.1401  0.3227
42598SOL    HW134655   8.128  10.739  11.353  0.5517 -0.7522  3.1346
42598SOL    HW234656   8.254  10.668  11.398  2.9473  0.9975 -0.3316
42599SOL     OW34657   8.825   2.256  10.810  0.2653 -0.0047  0.7222
42599SOL    HW134658   8.826   2.348  10.786 -0.3450 -0.1880 -0.0265
42599SOL    HW234659   8.736   2.226  10.792  0.2615 -0.5796  1.5999
42600SOL     OW34660   0.705   9.850   4.662  0.0791 -0.1790  0.3274
42600SOL    HW134661   0.661   9.861   4.746  0.7964 -1.0982  0.8298
42600SOL    HW234662   0.795   9.829   4.684 -0.1538 -2.4052 -0.6318
42601SOL     OW34663   7.188   0.267   1.971 -0.0548  0.0169  0.0010
42601SOL    HW134664   7.208   0.208   2.043 -2.5177 -0.8937  0.0540
42601SOL    HW234665   7.257   0.252   1.906  1.1648 -0.4847  1.3749
42602SOL     OW34666  10.035   3.989   3.578 -0.2811 -0.1602  0.0938
42602SOL    HW134667  10.073   3.902   3.566 -1.3843 -0.3080 -3.5729
42602SOL    HW234668  10.110   4.046   3.594  0.6784 -1.4249  0.2627
42603SOL     OW34669  10.422   9.894   6.497  0.3973  0.3658  0.4715
42603SOL    HW134670  10.375   9.811   6.500 -0.5116  0.8833  0.8271
42603SOL    HW234671  10.454   9.900   6.407 -1.1340  0.4885 -0.0970
42604SOL     OW34672   0.034   3.947  11.199  0.0085 -0.5909 -0.3184
42604SOL    HW134673  -0.040   3.892  11.223  0.5264 -1.1400  0.0766
42604SOL    HW234674   0.067   3.909  11.118  1.2686 -1.8301  0.7116
42605SOL     OW34675  11.258   7.400  10.207 -0.0400 -0.3121  0.4637
42605SOL    HW134676  11.196   7.468  10.184  0.1773  0.5074  2.1306
42605SOL    HW234677  11.218   7.355  10.281 -0.0795 -1.9038 -0.4691
42606SOL     OW34678  10.726   7.962   9.083 -0.2472 -0.3608 -0.4386
42606SOL    HW134679  10.799   7.988   9.027  0.3528  2.6082  1.4907
42606SOL    HW234680  10.767   7.930   9.163 -1.1128 -2.0241 -0.6109
42607SOL     OW34681   8.755   3.436   0.615  0.4415  0.1365 -0.2010
42607SOL    HW134682   8.681   3.408   0.669  0.0136  1.5360 -0.0336
42607SOL    HW234683   8.790   3.513   0.660  0.3695  1.0512 -1.6719
42608SOL     OW34684   6.718  10.558   9.058  0.1373  0.3132  0.2771
42608SOL    HW134685   6.707  10.560   8.963 -0.9693  1.6288  0.4012
42608SOL    HW234686   6.662  10.628   9.090  0.3671 -0.2145  1.9271
42609SOL     OW34687  11.893   3.183   2.667 -0.1405 -0.0404  0.3071
42609SOL    HW134688  11.810   3.217   2.700  0.7167  2.7322 -0.1572
42609SOL    HW234689  11.921   3.120   2.734 -2.2053 -0.4738  0.8348
42610SOL     OW34690   6.278   3.028  11.634  0.1193 -0.4895  1.3376
42610SOL    HW134691   6.301   2.949  11.683  0.3349 -0.3295  1.4966
42610SOL    HW234692   6.226   3.081  11.695  2.2501  0.7360  2.2198
42611SOL     OW34693   2.525  12.103   1.931 -0.0948  0.1759  0.3682
42611SOL    HW134694   2.445  12.145   1.901 -0.5284 -0.6839  0.2978
42611SOL    HW234695   2.497  12.018   1.964  0.8124 -0.2084  0.1726
42612SOL     OW34696   9.861   9.158   2.028 -0.0580 -1.0456  0.5220
42612SOL    HW134697   9.774   9.119   2.030  0.7608 -2.9769  0.6707
42612SOL    HW234698   9.846   9.249   2.002 -2.0210 -1.5881 -0.4449
42613SOL     OW34699   4.524   1.003  10.744  0.4447 -0.2305 -0.4210
42613SOL    HW134700   4.534   1.077  10.685  0.2990  0.2965  0.2082
42613SOL    HW234701   4.613   0.982  10.772  0.4192  0.1744 -0.0327
42614SOL     OW34702  11.450   0.577   7.782  0.5170  0.0566 -0.0844
42614SOL    HW134703  11.401   0.497   7.762 -0.2057  0.4884 -0.0792
42614SOL    HW234704  11.476   0.611   7.696 -0.9313  0.8868 -0.2241
42615SOL     OW34705  10.743  10.170   7.241  0.1229  0.4357  0.1828
42615SOL    HW134706  10.808  10.113   7.283 -0.8623  0.0586  1.2636
42615SOL    HW234707  10.670  10.172   7.303 -0.1847  2.2804 -0.1826
42616SOL     OW34708  12.050   7.171   2.519 -0.1336  0.0112 -0.3497
42616SOL    HW134709  12.104   7.151   2.595  1.8575  1.9246 -1.1270
42616SOL    HW234710  12.088   7.119   2.448 -0.0672  0.4718 -0.6557
42617SOL     OW34711   4.786   8.859  10.020 -0.1792  0.4644 -0.3106
42617SOL    HW134712   4.833   8.934   9.985 -1.5105  1.1123 -0.7587
42617SOL    HW234713   4.846   8.821  10.084  0.3370  2.1686  0.2493
42618SOL     OW34714   1.150   3.672   1.680 -0.6973  0.0755  0.6640
42618SOL    HW134715   1.148   3.585   1.642 -1.9039  0.4744 -0.2778
42618SOL    HW234716   1.105   3.727   1.615 -0.7522  1.2195  1.6346
42619SOL     OW34717   8.082   5.543   2.312  0.1567 -0.1884 -0.1809
42619SOL    HW134718   8.051   5.453   2.322  0.3109 -0.1284  0.9364
42619SOL    HW234719   8.176   5.534   2.298  0.4329 -0.1497  1.4863
42620SOL     OW34720   7.982   8.881   4.124  0.0093  0.3318 -0.0305
42620SOL    HW134721   8.054   8.904   4.066  1.0505 -0.7186  0.8203
42620SOL    HW234722   7.904   8.888   4.069  0.8275  0.7201 -1.1704
42621SOL     OW34723   2.460   8.630   7.791 -0.5953  0.3610 -0.8739
42621SOL    HW134724   2.468   8.535   7.802 -2.5938  0.0647 -1.5747
42621SOL    HW234725   2.517   8.650   7.716 -1.4631 -0.5829 -1.8163
42622SOL     OW34726  11.270   3.543   1.947 -0.5072  0.5690  0.6698
42622SOL    HW134727  11.242   3.611   2.009 -0.7707  1.6039 -0.5462
42622SOL    HW234728  11.245   3.461   1.989  0.0097  1.1961  2.2722
42623SOL     OW34729   5.255   6.106   6.169 -0.0374 -0.1261  0.5151
42623SOL    HW134730   5.206   6.143   6.243  0.0329  1.0438 -0.0026
42623SOL    HW234731   5.329   6.060   6.209  0.3365  1.0071  1.1462
42624SOL     OW34732   1.336   3.740   5.098  0.0996  1.1914 -0.4922
42624SOL    HW134733   1.404   3.672   5.095 -1.0721 -0.1272  1.0553
42624SOL    HW234734   1.258   3.694   5.129 -1.2987  2.8459 -1.3948
42625SOL     OW34735  10.152  10.979   1.063 -0.2888 -0.5433 -0.0234
42625SOL    HW134736  10.209  10.991   1.140 -0.1180 -1.9138  0.0894
42625SOL    HW234737  10.212  10.977   0.989 -0.4427  0.6330 -0.2118
42626SOL     OW34738   5.301   9.341   7.857 -0.1112 -0.7964 -0.0664
42626SOL    HW134739   5.269   9.266   7.906  0.5145 -1.6925 -0.9980
42626SOL    HW234740   5.292   9.316   7.765  0.8929 -0.0683 -0.3794
42627SOL     OW34741  10.974   1.125   6.410 -0.6670  0.2402  0.1551
42627SOL    HW134742  11.010   1.109   6.323 -1.0368 -0.3033  0.0932
42627SOL    HW234743  10.899   1.065   6.416  0.1742 -0.7366  1.3605
42628SOL     OW34744   8.340  11.125   3.402  0.2391  0.9954 -0.5738
42628SOL    HW134745   8.394  11.112   3.324  1.5030  1.4901  0.1843
42628SOL    HW234746   8.399  11.169   3.464  0.0547 -1.5810  1.5860
42629SOL     OW34747  12.402  11.539   6.703  0.3544  0.1324  0.5428
42629SOL    HW134748  12.450  11.457   6.717  1.3549  0.8805  1.6842
42629SOL    HW234749  12.370  11.533   6.613 -1.6193 -2.5051  1.3041
42630SOL     OW34750   2.684   4.163  10.406  0.1801 -0.2786  0.5603
42630SOL    HW134751   2.628   4.113  10.464  0.5714 -0.4352  0.8079
42630SOL    HW234752   2.772   4.130  10.424  0.2860 -0.4551 -0.2453
42631SOL     OW34753   2.670   2.088   0.914  0.0545 -0.0874  0.2707
42631SOL    HW134754   2.701   2.066   0.827 -0.9072  0.2987 -0.1822
42631SOL    HW234755   2.716   2.027   0.972 -0.4890 -1.4332 -0.6633
42632SOL     OW34756   1.577  10.446   8.670  0.0185  0.1167  0.1957
42632SOL    HW134757   1.651  10.426   8.613 -1.3096 -1.8996 -0.9523
42632SOL    HW234758   1.557  10.363   8.714 -2.0020  0.3745 -0.1171
42633SOL     OW34759   3.806   0.673   0.804 -0.1986  0.0841  0.3811
42633SOL    HW134760   3.809   0.594   0.858 -0.0161  1.6069  2.7381
42633SOL    HW234761   3.859   0.737   0.852  2.3114  0.8234 -2.9739
42634SOL     OW34762   2.671   8.559   6.378 -0.7764 -0.3073 -0.3436
42634SOL    HW134763   2.652   8.639   6.329  0.0399 -0.2036 -0.4910
42634SOL    HW234764   2.599   8.553   6.442  0.0959  1.5356  0.9053
42635SOL     OW34765   1.442  10.645   5.286 -0.0009 -0.6136  0.0886
42635SOL    HW134766   1.449  10.683   5.374  0.5598 -1.7350  0.5469
42635SOL    HW234767   1.494  10.565   5.290  1.5680  0.2091 -1.8006
42636SOL     OW34768   0.347   9.261   8.617  0.3243  0.0446  0.0225
42636SOL    HW134769   0.372   9.170   8.634  1.1840 -0.0063 -1.3372
42636SOL    HW234770   0.384   9.280   8.531 -0.8269  1.3233 -0.2322
42637SOL     OW34771   4.608   4.127   8.284  0.3342 -0.0995 -0.2806
42637SOL    HW134772   4.667   4.162   8.218  0.8765 -1.3666 -0.5068
42637SOL    HW234773   4.659   4.058   8.328 -0.9103 -1.1586 -0.4136
42638SOL     OW34774   4.312   7.438   8.720 -0.1187 -0.2143 -0.4900
42638SOL    HW134775   4.362   7.468   8.796 -0.9536  0.1134 -0.0518
42638SOL    HW234776   4.376   7.433   8.649  0.1993  2.0485 -0.4464
42639SOL     OW34777   5.435   3.565   3.952  0.1736  0.3255  0.2068
42639SOL    HW134778   5.472   3.610   3.876 -0.9119 -0.6152 -0.9024
42639SOL    HW234779   5.410   3.479   3.920 -0.5619  0.0070  1.5592
42640SOL     OW34780   1.865  10.492   1.700  0.6158 -0.4441  0.3679
42640SOL    HW134781   1.803  10.534   1.640  1.9835 -0.3519 -1.0622
42640SOL    HW234782   1.882  10.407   1.661  0.8736 -0.7417  1.1139
42641SOL     OW34783   7.858  11.652   2.700  0.5964 -0.3346 -0.3579
42641SOL    HW134784   7.891  11.613   2.781  1.4557 -0.4145 -0.7295
42641SOL    HW234785   7.801  11.724   2.729  1.5419  0.1636  0.3138
42642SOL     OW34786   1.582   4.919   7.796  0.0274  0.1924 -0.0659
42642SOL    HW134787   1.530   4.911   7.876 -0.5700  0.0095 -0.4666
42642SOL    HW234788   1.519   4.907   7.725  0.1659  2.4418 -0.6245
42643SOL     OW34789   2.563   2.477  10.066  0.9130  0.0672  0.3958
42643SOL    HW134790   2.579   2.525   9.986  0.0809 -0.0618  0.1365
42643SOL    HW234791   2.636   2.416  10.074  1.1639  0.3070 -0.0929
42644SOL     OW34792  11.375  11.178   2.440 -0.5065  0.1837 -0.7075
42644SOL    HW134793  11.405  11.192   2.350  0.3403  0.8752 -0.3216
42644SOL    HW234794  11.326  11.257   2.462 -0.4698  0.1354 -0.4514
42645SOL     OW34795   5.010   2.779   6.998  0.4759 -0.2278 -0.0083
42645SOL    HW134796   4.956   2.856   6.986 -0.4644 -1.1460 -2.0507
42645SOL    HW234797   5.066   2.776   6.920  0.8032 -1.3673  0.2516
42646SOL     OW34798   4.043  11.926   5.771 -0.1431 -0.4868  0.0537
42646SOL    HW134799   4.135  11.952   5.779  0.0720 -0.6249 -1.7120
42646SOL    HW234800   4.045  11.848   5.715 -1.5172  0.9238 -2.0915
42647SOL     OW34801   5.997   6.749  12.452  0.4206 -0.3533 -0.3700
42647SOL    HW134802   6.022   6.791  12.534 -0.4350 -1.7445  0.6475
42647SOL    HW234803   5.960   6.665  12.478 -1.4018 -0.1686 -2.0593
42648SOL     OW34804  12.115   5.956   1.702 -0.1130  0.0231  0.3221
42648SOL    HW134805  12.149   5.899   1.633 -0.5235 -1.1503  1.0534
42648SOL    HW234806  12.116   6.044   1.663  0.4942 -0.4734 -0.8540
42649SOL     OW34807   8.087   1.432  11.191 -0.2817  0.0601 -0.2604
42649SOL    HW134808   8.165   1.462  11.144  0.3528  1.1988  1.4083
42649SOL    HW234809   8.022   1.501  11.175  0.4576  1.3042  1.7563
42650SOL     OW34810   6.603  10.244   0.038  0.0444 -0.3643 -0.1835
42650SOL    HW134811   6.572  10.241  -0.052  0.5073 -3.0729 -0.3147
42650SOL    HW234812   6.698  10.247   0.031  0.2522  5.5416  0.2537
42651SOL     OW34813   7.372   4.366   3.803  0.2981  0.8334  0.2542
42651SOL    HW134814   7.465   4.382   3.819  0.3315 -0.4131  1.5128
42651SOL    HW234815   7.348   4.298   3.866 -1.5384  1.3275  0.1506
42652SOL     OW34816   1.873   7.869   0.924  0.3205  0.2962  0.6389
42652SOL    HW134817   1.810   7.850   0.855 -0.5865  0.4590  1.3911
42652SOL    HW234818   1.868   7.964   0.936  0.1769  0.2241  1.1822
42653SOL     OW34819   0.922  11.401   4.387 -0.0602 -0.4501  0.1186
42653SOL    HW134820   0.905  11.321   4.438 -1.7533  0.0252  0.3474
42653SOL    HW234821   1.001  11.380   4.336  0.1133 -1.8990  0.9222
42654SOL     OW34822   9.285   6.881   5.790  0.4151 -0.4689  0.5379
42654SOL    HW134823   9.246   6.803   5.831  1.1104 -0.2112  1.7497
42654SOL    HW234824   9.298   6.941   5.863 -0.9926  1.2018 -0.5018
42655SOL     OW34825   5.883   4.986   5.940  0.4665  0.4744 -0.7638
42655SOL    HW134826   5.817   4.921   5.918  0.9266 -0.7332  1.1395
42655SOL    HW234827   5.844   5.037   6.011  0.9663  0.7643 -0.6900
42656SOL     OW34828   1.156   4.658   8.609  0.4222  0.1210  0.2649
42656SOL    HW134829   1.218   4.611   8.665 -0.2937 -2.3570 -0.9086
42656SOL    HW234830   1.097   4.702   8.670  2.0674  0.8847  1.3998
42657SOL     OW34831   2.528   7.141   0.002 -0.6566 -0.6660  0.2744
42657SOL    HW134832   2.548   7.083   0.075  0.0147  0.4436  1.0056
42657SOL    HW234833   2.494   7.221   0.044  0.8180  0.4258 -0.5244
42658SOL     OW34834   1.138   5.847   4.490  0.0118  0.0043  0.0679
42658SOL    HW134835   1.154   5.926   4.541  0.2326 -0.0217  0.0398
42658SOL    HW234836   1.163   5.775   4.548  0.2483 -0.0260 -0.0722
42659SOL     OW34837   1.045   4.726  10.135  0.6740 -0.5146  0.8631
42659SOL    HW134838   1.042   4.813  10.175 -1.1102 -0.9431  1.7869
42659SOL    HW234839   1.009   4.668  10.203 -3.6264 -1.1395 -1.5653
42660SOL     OW34840   9.604   5.181   2.715  0.1259 -0.3023 -0.0812
42660SOL    HW134841   9.580   5.144   2.800  0.8229  0.1877  0.3389
42660SOL    HW234842   9.567   5.120   2.652 -1.7090  0.1273  0.5254
42661SOL     OW34843   5.776  10.384   2.765  0.2180  0.1640  0.0527
42661SOL    HW134844   5.748  10.415   2.679 -1.4444 -1.8462 -0.2346
42661SOL    HW234845   5.696  10.387   2.819  0.8786 -0.0026  1.0761
42662SOL     OW34846   8.704   8.625   4.947  0.1014 -0.1551 -0.2657
42662SOL    HW134847   8.632   8.595   4.893  0.8009 -0.0363 -1.2863
42662SOL    HW234848   8.735   8.705   4.904  1.5442 -0.8020 -0.4691
42663SOL     OW34849   2.164  11.660   9.434 -0.6779 -0.0300 -0.4556
42663SOL    HW134850   2.115  11.586   9.396 -0.1433  0.6612 -2.6205
42663SOL    HW234851   2.133  11.665   9.524 -2.8354 -1.1182 -1.0656
42664SOL     OW34852   2.709   7.185  11.020  0.1273  0.6120 -0.3312
42664SOL    HW134853   2.796   7.209  10.988 -0.1398 -0.5719 -2.0900
42664SOL    HW234854   2.649   7.240  10.970 -0.1971  0.5712  0.0100
42665SOL     OW34855   6.006   4.953   2.080 -0.6672  0.0245  0.7464
42665SOL    HW134856   5.939   5.001   2.128 -0.1490 -0.2554  1.7798
42665SOL    HW234857   6.088   4.979   2.122 -0.1662 -0.0364 -0.1581
42666SOL     OW34858  12.423   2.250   8.792  0.3412 -0.2949 -0.5021
42666SOL    HW134859  12.432   2.182   8.858 -1.9607 -0.5883 -0.4023
42666SOL    HW234860  12.340   2.231   8.749 -0.0379  2.0260 -0.9469
42667SOL     OW34861   6.054   0.460   1.902 -0.3358 -0.5656  0.7351
42667SOL    HW134862   5.994   0.526   1.936 -1.0895 -0.8409 -0.0369
42667SOL    HW234863   5.998   0.395   1.860  0.5172  0.0199 -1.4919
42668SOL     OW34864   0.755   7.442   6.071 -0.0438  0.0431  0.0077
42668SOL    HW134865   0.773   7.534   6.056 -1.5881  0.2291 -1.0310
42668SOL    HW234866   0.839   7.403   6.093  0.8135  1.4950 -0.6138
42669SOL     OW34867   3.220   7.631   5.883 -0.4950 -0.8145 -0.0858
42669SOL    HW134868   3.126   7.634   5.899 -0.4953 -2.5604  0.4265
42669SOL    HW234869   3.257   7.593   5.963  0.3069 -2.8752 -1.3605
42670SOL     OW34870   8.548  12.231   2.657  0.7125  0.0249  0.9542
42670SOL    HW134871   8.565  12.137   2.644  0.0547 -0.0702  0.7354
42670SOL    HW234872   8.456  12.242   2.632  1.1895  1.0043 -0.4880
42671SOL     OW34873   8.115   4.775   1.668 -0.4952  0.6294  0.4578
42671SOL    HW134874   8.200   4.735   1.651  0.3965  1.7352  2.0245
42671SOL    HW234875   8.103   4.766   1.763 -2.4492 -0.0700  0.1954
42672SOL     OW34876   6.284   5.247  10.754  0.2123  0.3601  0.1248
42672SOL    HW134877   6.312   5.338  10.764  2.3309 -0.1252 -0.8745
42672SOL    HW234878   6.202   5.253  10.705 -0.9536  1.7920  2.1020
42673SOL     OW34879   9.096   5.093   9.468  0.7911  0.3435  0.2882
42673SOL    HW134880   9.121   5.141   9.389 -1.6795  0.0874 -0.7713
42673SOL    HW234881   9.030   5.148   9.510 -2.7603 -2.2049 -1.4187
42674SOL     OW34882   9.000   0.115   6.546 -0.4762  0.0690 -0.7364
42674SOL    HW134883   8.992   0.041   6.606 -0.0367  0.0061 -0.7535
42674SOL    HW234884   9.015   0.075   6.461 -2.9629  0.0856 -1.2574
42675SOL     OW34885   5.424   7.816   0.635 -0.5649  0.4343  0.0858
42675SOL    HW134886   5.339   7.858   0.628 -1.0950 -0.6957 -0.5406
42675SOL    HW234887   5.462   7.823   0.548 -0.4551  0.0391  0.0991
42676SOL     OW34888   2.173   8.707  10.577 -0.4424  0.0389  0.1683
42676SOL    HW134889   2.212   8.657  10.506 -1.5487  1.1400 -1.2825
42676SOL    HW234890   2.123   8.642  10.627  1.0356 -0.8952  0.4883
42677SOL     OW34891  11.746  12.442   8.453 -0.3897  0.5233 -0.1815
42677SOL    HW134892  11.826  12.391   8.445 -1.0832 -1.0445  2.0315
42677SOL    HW234893  11.748  12.479   8.541 -2.2150  0.2099  0.0385
42678SOL     OW34894   4.413   6.715   9.312 -0.2352  0.1416  0.5349
42678SOL    HW134895   4.441   6.684   9.226  0.4694  0.2960  0.7005
42678SOL    HW234896   4.485   6.772   9.341 -1.0031  1.0473  0.7103
42679SOL     OW34897   9.736   0.404   3.489  0.4990 -0.0788  0.3689
42679SOL    HW134898   9.689   0.339   3.541 -0.9471  0.9577  0.4301
42679SOL    HW234899   9.678   0.481   3.489  1.6655  0.8416 -0.5808
42680SOL     OW34900   2.978  11.220  10.933 -0.2824 -0.4539  0.1671
42680SOL    HW134901   2.905  11.211  10.995 -1.1838  2.8268 -0.2696
42680SOL    HW234902   2.938  11.247  10.851  1.3559  1.0884 -0.1868
42681SOL     OW34903   4.857   1.559   1.189  0.4864  0.1682 -0.2690
42681SOL    HW134904   4.795   1.497   1.152 -0.1018  0.7550 -0.2789
42681SOL    HW234905   4.808   1.606   1.256  0.3435  1.9063 -1.5101
42682SOL     OW34906  12.319   0.019   7.396  0.1687  0.4724  0.2952
42682SOL    HW134907  12.336   0.002   7.489  0.5787 -2.4593 -0.2048
42682SOL    HW234908  12.226   0.000   7.385  0.4568 -0.8443 -0.1296
42683SOL     OW34909   5.856  11.536   5.187  0.2566 -0.4331 -0.5168
42683SOL    HW134910   5.854  11.630   5.170 -0.5887 -0.7027 -2.1937
42683SOL    HW234911   5.922  11.503   5.126  0.7592 -0.9082  0.2690
42684SOL     OW34912   0.601   0.749   3.626 -0.0451  0.1565 -0.3270
42684SOL    HW134913   0.552   0.723   3.548 -0.4509  0.1502 -0.0733
42684SOL    HW234914   0.646   0.830   3.600  0.4759 -0.2804 -0.8203
42685SOL     OW34915   4.747  10.422   0.940  0.0728  0.5005 -0.3020
42685SOL    HW134916   4.835  10.435   0.903 -0.3818  2.6008 -0.7682
42685SOL    HW234917   4.740  10.490   1.007 -0.7859 -0.4136  0.5557
42686SOL     OW34918   4.129   0.658   1.409 -0.4208 -0.3093 -0.1582
42686SOL    HW134919   4.097   0.707   1.334  1.2099  1.1849  0.0656
42686SOL    HW234920   4.140   0.723   1.478  0.3355 -1.2391  0.6315
42687SOL     OW34921  11.605  11.320   8.992 -0.1428  0.2983 -0.4713
42687SOL    HW134922  11.578  11.389   8.932 -0.0925  1.3522  0.6868
42687SOL    HW234923  11.582  11.353   9.079 -0.6451 -1.3841  0.0820
42688SOL     OW34924   6.730   0.452   9.408 -0.1147  0.3610 -0.8931
42688SOL    HW134925   6.664   0.517   9.433 -0.2139 -0.5045  1.3576
42688SOL    HW234926   6.794   0.501   9.357 -1.8333  1.4859 -2.0867
42689SOL     OW34927   1.231  11.785   8.161  0.0544  0.4786 -0.4407
42689SOL    HW134928   1.158  11.726   8.143  0.1341  0.5184 -0.9104
42689SOL    HW234929   1.192  11.873   8.155  0.0886  0.4934 -0.4447
42690SOL     OW34930   5.680   1.755   1.583  0.0133 -0.4900  0.2354
42690SOL    HW134931   5.707   1.668   1.613 -0.6967 -1.0780 -0.7937
42690SOL    HW234932   5.758   1.810   1.597  0.8717 -1.5534 -0.1968
42691SOL     OW34933  10.731   7.146   4.769 -0.3394  0.2651 -0.1565
42691SOL    HW134934  10.733   7.167   4.676  0.9048 -1.0687 -0.4701
42691SOL    HW234935  10.819   7.114   4.788 -0.4743  0.8070  1.5636
42692SOL     OW34936   8.246   2.265   4.730  0.1992  0.1989 -0.0201
42692SOL    HW134937   8.282   2.177   4.712  0.3084 -0.0091  1.1308
42692SOL    HW234938   8.321   2.314   4.764 -0.2829  0.1450  1.1852
42693SOL     OW34939   8.449   9.318   8.449 -0.0150  0.0576  0.4364
42693SOL    HW134940   8.376   9.334   8.509 -0.7195 -1.0762 -0.0804
42693SOL    HW234941   8.450   9.223   8.437  1.8571  0.0028  0.7760
42694SOL     OW34942   3.303   5.809  11.723 -0.8602 -0.2801 -0.0353
42694SOL    HW134943   3.226   5.801  11.779 -1.6029 -1.4315 -1.1332
42694SOL    HW234944   3.272   5.858  11.647 -0.6243 -1.0021 -0.6184
42695SOL     OW34945  11.483  10.002   6.075 -0.6156 -0.2015 -0.4178
42695SOL    HW134946  11.479  10.024   5.982 -1.3816 -1.1197 -0.6239
42695SOL    HW234947  11.572  10.024   6.102  0.4130 -2.1350 -1.9722
42696SOL     OW34948   4.717   0.666   0.157 -0.2749  0.5089 -0.1484
42696SOL    HW134949   4.786   0.600   0.166 -1.0204 -0.6272 -2.0160
42696SOL    HW234950   4.708   0.704   0.244  1.0410 -1.0033  0.7051
42697SOL     OW34951  10.048   3.358   1.845  0.2665  0.0878 -0.2612
42697SOL    HW134952  10.052   3.288   1.910 -2.2031  2.1598  2.3516
42697SOL    HW234953   9.981   3.329   1.783 -0.2695 -0.1439  0.4196
42698SOL     OW34954   8.898   7.020  10.294  0.0447 -0.7338  0.9707
42698SOL    HW134955   8.963   6.956  10.321  1.5281  0.1491 -0.3224
42698SOL    HW234956   8.885   7.002  10.200  0.1408  0.5464  0.6970
42699SOL     OW34957   4.107   7.718   6.692 -0.0382 -0.4267  0.2717
42699SOL    HW134958   4.016   7.737   6.668  0.1802  0.4585  0.0992
42699SOL    HW234959   4.109   7.725   6.788 -0.2996 -1.1480  0.3336
42700SOL     OW34960   3.571   5.432   2.677 -0.1596 -0.7197  0.5828
42700SOL    HW134961   3.507   5.493   2.643  0.3763 -0.5608 -0.1601
42700SOL    HW234962   3.565   5.355   2.620  0.3200 -0.6924  0.4884
42701SOL     OW34963   5.740   0.102   6.779 -0.3435  0.2263 -0.1955
42701SOL    HW134964   5.794   0.097   6.701 -0.2930 -1.9853 -0.0826
42701SOL    HW234965   5.800   0.129   6.849  0.1364 -0.0851 -0.4829
42702SOL     OW34966   7.576  11.808   4.910  0.0094 -0.1980 -0.8955
42702SOL    HW134967   7.494  11.815   4.959 -1.0757 -1.3068 -2.4359
42702SOL    HW234968   7.644  11.822   4.975 -1.3920  0.8750  0.4206
42703SOL     OW34969  10.613   1.822   2.982  0.2410  0.1628 -0.1205
42703SOL    HW134970  10.690   1.803   2.928  0.1372 -0.5647 -0.0186
42703SOL    HW234971  10.646   1.823   3.072 -0.0357 -1.1448  0.0121
42704SOL     OW34972  10.534   4.089   7.256 -0.6042  0.1985  0.6966
42704SOL    HW134973  10.585   4.009   7.267 -0.2825 -0.1407 -2.4659
42704SOL    HW234974  10.444   4.064   7.276 -0.4062 -0.7628  0.4085
42705SOL     OW34975   5.502   3.026   0.202  0.0138  0.4485  0.1513
42705SOL    HW134976   5.449   3.104   0.186 -0.2875  1.2072  3.9345
42705SOL    HW234977   5.566   3.053   0.268  1.5429 -1.9123 -0.2256
42706SOL     OW34978   0.261   1.483  12.344  0.8295 -0.0984  0.5457
42706SOL    HW134979   0.252   1.435  12.426  2.0198 -0.5008  0.4506
42706SOL    HW234980   0.210   1.432  12.281 -0.6224  0.5554  1.1505
42707SOL     OW34981   7.821   7.969   3.661 -0.9734  0.7375  0.0504
42707SOL    HW134982   7.849   7.880   3.683 -1.0016  1.0694  1.6060
42707SOL    HW234983   7.727   7.963   3.650 -1.0369  0.6317  0.5932
42708SOL     OW34984   7.781   1.954   7.529  0.2061 -0.4428 -0.0706
42708SOL    HW134985   7.842   1.942   7.602  0.7899  1.3479 -0.2203
42708SOL    HW234986   7.780   2.049   7.514  0.7899 -0.8029 -2.9525
42709SOL     OW34987   7.067   6.060   3.607  0.6500 -0.0454  0.4143
42709SOL    HW134988   7.101   5.973   3.590 -0.4269 -0.6892  1.3836
42709SOL    HW234989   7.071   6.070   3.702  1.1721  1.1572  0.2942
42710SOL     OW34990   5.759  10.434   5.076  0.2361 -0.0988 -0.3814
42710SOL    HW134991   5.698  10.504   5.057  0.9506  1.1813  1.7130
42710SOL    HW234992   5.805  10.419   4.994  0.3678  2.2137 -0.7894
42711SOL     OW34993   8.071  10.603  12.110 -0.6035  0.4067 -0.3709
42711SOL    HW134994   8.046  10.673  12.050 -0.8698  1.3288  0.7825
42711SOL    HW234995   8.053  10.638  12.197  0.8046 -0.4688  0.3157
42712SOL     OW34996   5.080  10.188  10.116  0.4477  0.4720 -0.3212
42712SOL    HW134997   5.027  10.230  10.183 -0.1201  0.1776 -0.5762
42712SOL    HW234998   5.106  10.259  10.058  0.0902  0.5757 -0.3566
42713SOL     OW34999   5.414   3.370   1.286  0.7247  1.0580  0.1144
42713SOL    HW135000   5.484   3.412   1.235  1.5977  1.8639  1.8813
42713SOL    HW235001   5.425   3.405   1.374 -0.6586 -0.3752  0.9012
42714SOL     OW35002  12.216   5.641   8.066 -0.2513  0.0069 -0.5264
42714SOL    HW135003  12.150   5.709   8.081  0.5702  0.8270 -0.5568
42714SOL    HW235004  12.166   5.560   8.059 -1.0796  0.2089  2.0773
42715SOL     OW35005   7.671   6.412   3.034  0.6022 -0.1160 -0.4526
42715SOL    HW135006   7.668   6.384   2.942 -1.8002  0.5659 -0.6511
42715SOL    HW235007   7.673   6.507   3.030  0.7881 -0.0897  0.1968
42716SOL     OW35008   0.889   4.378   4.888  0.6205  0.0985  0.6675
42716SOL    HW135009   0.814   4.420   4.931  0.3971 -0.1734  0.5528
42716SOL    HW235010   0.925   4.320   4.955  0.7199  0.2189  0.7180
42717SOL     OW35011   4.364   1.217   2.633 -0.0728 -0.1810  0.0838
42717SOL    HW135012   4.342   1.208   2.725  2.0443  2.1089  0.9131
42717SOL    HW235013   4.279   1.225   2.589 -1.1775 -2.4889  1.5882
42718SOL     OW35014   6.715   5.080   3.662 -0.0524 -0.3795  0.2778
42718SOL    HW135015   6.628   5.043   3.677 -0.2312 -1.4101 -2.6206
42718SOL    HW235016   6.700   5.175   3.656 -0.8698 -0.4942  0.3774
42719SOL     OW35017  12.120  10.981  11.210 -0.2563 -0.2984 -0.3958
42719SOL    HW135018  12.067  10.976  11.130 -1.3930  1.0208  0.2466
42719SOL    HW235019  12.075  10.925  11.273  0.0510 -0.4953 -0.3479
42720SOL     OW35020  11.479   3.029  11.016  0.2230 -0.1428  0.5848
42720SOL    HW135021  11.426   2.968  10.965 -0.6105  0.2392  0.9614
42720SOL    HW235022  11.545   2.974  11.058  1.0769 -0.4300 -1.0651
42721SOL     OW35023   9.909   7.083   1.981  0.1934 -0.5270 -0.2977
42721SOL    HW135024   9.837   7.074   1.919  0.6271 -1.1552 -0.7109
42721SOL    HW235025   9.936   7.175   1.973 -1.2468  0.0356  0.6387
42722SOL     OW35026   0.507   9.484  10.053 -0.4163 -0.0523 -0.0180
42722SOL    HW135027   0.520   9.519  10.141 -1.5374  0.3445  0.0114
42722SOL    HW235028   0.497   9.390  10.065 -0.0700 -0.0563  0.2260
42723SOL     OW35029   6.115   4.166   8.047 -0.2048  0.0144 -0.0200
42723SOL    HW135030   6.193   4.195   8.095 -0.1429 -1.5955  0.9124
42723SOL    HW235031   6.046   4.225   8.076  0.0828 -0.2373  1.2498
42724SOL     OW35032   5.944   0.314   2.633 -0.3548  0.1976 -0.0479
42724SOL    HW135033   5.861   0.330   2.589 -0.6945 -1.2710 -0.0076
42724SOL    HW235034   5.997   0.268   2.569  0.0452  0.2165  0.2641
42725SOL     OW35035  10.891   0.206   4.990 -0.1432  0.3377  0.2668
42725SOL    HW135036  10.960   0.141   5.002 -0.4739  0.2140  1.6953
42725SOL    HW235037  10.890   0.223   4.896 -1.1819 -2.9972 -0.4508
42726SOL     OW35038   9.142   7.679   4.562  0.4282  0.6842  0.6474
42726SOL    HW135039   9.152   7.664   4.656 -0.1967  1.5485  0.8617
42726SOL    HW235040   9.063   7.631   4.538  1.2532 -0.5449  0.3044
42727SOL     OW35041   0.922   8.198   4.821  0.8798  0.5413 -0.2828
42727SOL    HW135042   0.969   8.268   4.775  1.3061 -0.5426 -1.5577
42727SOL    HW235043   0.883   8.145   4.751 -0.3540  0.1110  0.6914
42728SOL     OW35044   6.489   2.135   5.817  0.2304 -0.5414 -0.2043
42728SOL    HW135045   6.514   2.155   5.727  0.4123 -1.7829 -0.4474
42728SOL    HW235046   6.565   2.089   5.853  0.4252  0.5199  0.8094
42729SOL     OW35047   9.238   8.170   6.002 -0.0698  0.0279  0.0442
42729SOL    HW135048   9.279   8.092   6.039  0.8206 -0.4672 -1.8722
42729SOL    HW235049   9.145   8.147   5.995  0.3586 -1.4356 -1.7135
42730SOL     OW35050  12.001   5.824   2.199  0.3732  0.0598 -0.1403
42730SOL    HW135051  12.008   5.759   2.130  1.6039  0.4118 -0.3816
42730SOL    HW235052  12.091   5.835   2.231 -0.1025  0.1866  1.2583
42731SOL     OW35053   7.658   4.596   7.487 -0.4402 -0.4059 -0.3966
42731SOL    HW135054   7.650   4.512   7.533  1.4749 -0.5064 -0.1782
42731SOL    HW235055   7.601   4.586   7.411 -0.1688 -1.9683 -0.4454
42732SOL     OW35056  12.168   2.751   6.028 -0.1356 -0.0692 -0.0888
42732SOL    HW135057  12.110   2.757   5.951  1.5911 -0.9762 -1.5282
42732SOL    HW235058  12.256   2.745   5.991  0.7122 -1.1331  1.9605
42733SOL     OW35059  10.308   4.057   3.593 -0.2962  0.0874  0.3457
42733SOL    HW135060  10.352   4.135   3.628  1.9613 -0.4073 -1.1431
42733SOL    HW235061  10.272   4.086   3.509  1.5655 -0.6786 -0.7718
42734SOL     OW35062  10.414  10.195   2.987 -0.3897  0.3836 -0.0511
42734SOL    HW135063  10.409  10.221   3.079 -0.1315 -0.6727  0.2739
42734SOL    HW235064  10.416  10.099   2.989 -1.8705  0.2979 -1.2287
42735SOL     OW35065  11.498   0.526  12.105  0.2743  0.4724 -0.4083
42735SOL    HW135066  11.492   0.523  12.010  0.5616 -0.6382 -0.4059
42735SOL    HW235067  11.592   0.527  12.123  0.2246  1.3533 -0.1352
42736SOL     OW35068   3.237   6.801   3.436 -0.3384  0.5125 -0.1141
42736SOL    HW135069   3.259   6.879   3.387  1.2314 -0.2676 -0.7246
42736SOL    HW235070   3.202   6.833   3.519 -0.2769  1.8423 -0.5917
42737SOL     OW35071   3.018   5.392   9.532 -0.0077  0.3696  0.5405
42737SOL    HW135072   3.043   5.315   9.582 -1.4425 -0.7960 -0.4584
42737SOL    HW235073   2.979   5.358   9.452  1.3700  2.1588 -1.0068
42738SOL     OW35074   2.652   4.277   5.272 -0.7372  0.5636 -0.1903
42738SOL    HW135075   2.604   4.210   5.225 -0.3237 -0.0806  0.2957
42738SOL    HW235076   2.692   4.231   5.346 -1.0068  1.4672  0.5357
42739SOL     OW35077   4.523   1.677   8.203  0.2890 -0.2182  0.4063
42739SOL    HW135078   4.451   1.622   8.171  0.0137 -1.8012  3.4007
42739SOL    HW235079   4.478   1.754   8.239  0.4116  0.3989 -0.7135
42740SOL     OW35080   5.318   5.505   6.815 -0.0636 -0.2033 -0.4556
42740SOL    HW135081   5.301   5.471   6.903  0.1167 -1.6064 -0.9470
42740SOL    HW235082   5.240   5.557   6.795 -0.0839  0.1805  0.5431
42741SOL     OW35083   0.762  10.731   8.505  0.0672 -0.0037  0.2698
42741SOL    HW135084   0.850  10.739   8.543  0.4228 -0.8817 -0.3412
42741SOL    HW235085   0.763  10.647   8.460 -1.1870 -0.1588  0.4965
42742SOL     OW35086   5.629  10.399  11.342  0.2055 -0.8845  0.2093
42742SOL    HW135087   5.582  10.479  11.318  1.3222 -0.2760 -0.0193
42742SOL    HW235088   5.664  10.416  11.429 -1.0953 -1.8488  0.9550
42743SOL     OW35089   3.479   1.597   1.796  0.2897  0.1838 -0.2610
42743SOL    HW135090   3.446   1.570   1.710 -0.2569  0.2296 -0.0694
42743SOL    HW235091   3.404   1.588   1.854  0.4497  0.9017  0.0611
42744SOL     OW35092   5.726   8.022  11.195  0.3439  0.1238  0.1779
42744SOL    HW135093   5.680   8.003  11.277  0.6041  0.9641  0.5221
42744SOL    HW235094   5.818   8.003  11.215  0.1841 -1.4970 -0.4908
42745SOL     OW35095   0.336   1.237  10.879 -0.3777  0.0789 -0.1936
42745SOL    HW135096   0.293   1.228  10.964  0.1835  1.3333  0.2445
42745SOL    HW235097   0.297   1.315  10.841  1.2999  1.1243  0.1227
42746SOL     OW35098  11.216  10.654   0.236 -0.2891  0.4667  0.1957
42746SOL    HW135099  11.123  10.631   0.232 -0.3777  0.3724  2.0624
42746SOL    HW235100  11.229  10.712   0.161 -1.6702 -0.1053 -0.5377
42747SOL     OW35101   3.072   4.500   0.166 -0.3477 -0.4278  0.1357
42747SOL    HW135102   3.051   4.417   0.208 -1.2122 -0.9497 -1.2816
42747SOL    HW235103   3.091   4.478   0.075 -0.1959  0.8762 -0.1724
42748SOL     OW35104   3.303   8.516   6.864  0.1734  0.1132  0.5004
42748SOL    HW135105   3.214   8.483   6.870  0.4445 -0.7087  0.1870
42748SOL    HW235106   3.355   8.455   6.915  0.3367  1.5519  2.1317
42749SOL     OW35107   1.743   4.789   7.538 -0.0650 -0.5229  0.5724
42749SOL    HW135108   1.670   4.792   7.600  0.8090  1.3746  1.5810
42749SOL    HW235109   1.797   4.865   7.559  0.8334 -0.3846 -1.8811
42750SOL     OW35110   1.920   7.364   4.614  0.4058  0.1975 -0.0406
42750SOL    HW135111   1.916   7.274   4.645  1.2178 -0.1668 -0.9298
42750SOL    HW235112   1.845   7.373   4.555  2.4258 -1.1872 -3.0799
42751SOL     OW35113   5.244  10.759  10.998  0.4777  0.1333  0.1093
42751SOL    HW135114   5.193  10.685  11.029  1.1412 -1.0195 -1.4592
42751SOL    HW235115   5.215  10.773  10.908  1.8331  0.4347 -0.3051
42752SOL     OW35116  10.327   5.783   9.187 -0.1727  0.1472  0.2857
42752SOL    HW135117  10.301   5.873   9.204 -1.6509 -0.3826  0.9895
42752SOL    HW235118  10.408   5.791   9.136 -0.4217  1.8587  0.0874
42753SOL     OW35119   5.763   6.566  11.273  0.3300  0.3226  0.3554
42753SOL    HW135120   5.786   6.574  11.181 -0.7828  0.6212  0.0889
42753SOL    HW235121   5.797   6.480  11.299  1.2738  0.5403 -0.1362
42754SOL     OW35122   8.901   6.944  11.056 -0.1017 -0.3117  0.0205
42754SOL    HW135123   8.877   6.853  11.075 -0.0800 -1.0949 -3.2002
42754SOL    HW235124   8.966   6.965  11.123 -2.3070 -1.5225  2.7705
42755SOL     OW35125   3.053   2.436   0.723  0.3679 -0.3551 -0.1535
42755SOL    HW135126   2.989   2.381   0.678  0.0886  1.0761 -1.5984
42755SOL    HW235127   3.112   2.466   0.654  1.2487  0.1701  0.7917
42756SOL     OW35128   8.027   1.051   3.767 -0.0467 -0.5553  1.0398
42756SOL    HW135129   8.066   1.017   3.686  1.0708  0.4242  1.1335
42756SOL    HW235130   8.055   0.989   3.835  1.0950 -0.0691  1.0436
42757SOL     OW35131   7.249   4.918  12.144  0.2687  0.6504 -0.0486
42757SOL    HW135132   7.273   4.855  12.077  0.8044 -0.6137  1.2767
42757SOL    HW235133   7.264   5.004  12.104  2.1323 -0.0684 -0.9878
42758SOL     OW35134   6.250   7.566   7.030  0.4536  0.0062 -0.0155
42758SOL    HW135135   6.195   7.645   7.032  1.0084  0.3932  1.0571
42758SOL    HW235136   6.338   7.600   7.016  0.4274 -0.6330 -2.1057
42759SOL     OW35137   3.746   1.914   3.558 -0.3963  0.3197  0.2937
42759SOL    HW135138   3.819   1.862   3.592 -1.7136 -0.6229  1.7789
42759SOL    HW235139   3.755   1.908   3.463  1.5019  0.3053  0.4365
42760SOL     OW35140  12.001   2.982   9.972  0.0925  0.1682 -0.1221
42760SOL    HW135141  11.954   2.901   9.956 -1.0742  0.6162  0.9229
42760SOL    HW235142  12.003   2.991  10.067  1.5259  0.6231 -0.1693
42761SOL     OW35143   7.065   0.295   4.204  0.1894 -0.1525 -0.0036
42761SOL    HW135144   7.113   0.340   4.274  1.3007 -1.3503  0.0479
42761SOL    HW235145   7.081   0.348   4.126 -1.1171  1.2359  0.6185
42762SOL     OW35146  11.585  10.862   3.644 -0.0378 -0.1808  0.1945
42762SOL    HW135147  11.515  10.893   3.586 -0.5290  0.5576  1.1586
42762SOL    HW235148  11.541  10.847   3.728  0.9817  0.4326  0.8539
42763SOL     OW35149   8.844   3.824   6.495 -0.5006  0.3098  0.7186
42763SOL    HW135150   8.903   3.801   6.567 -0.6529  1.0555  1.0967
42763SOL    HW235151   8.898   3.817   6.417  0.4829  2.1382  1.1599
42764SOL     OW35152  10.809   1.431   0.140  0.7450  0.3069 -0.1685
42764SOL    HW135153  10.744   1.375   0.097  0.5373  0.5133 -0.1242
42764SOL    HW235154  10.780   1.435   0.232  1.2396 -0.2111  0.0151
42765SOL     OW35155  10.180   4.625   1.876 -0.2196  0.2102  0.4957
42765SOL    HW135156  10.242   4.697   1.865 -0.5354  0.3077 -0.9032
42765SOL    HW235157  10.231   4.546   1.858 -0.3498  0.2539 -0.1088
42766SOL     OW35158   6.287   1.118   3.538  0.1953 -0.0392 -0.6339
42766SOL    HW135159   6.329   1.201   3.517  0.5823 -0.6846 -2.6903
42766SOL    HW235160   6.264   1.081   3.453 -2.0493 -1.0148  0.2995
42767SOL     OW35161  11.956  10.872   8.629  0.8282 -0.3362 -0.4138
42767SOL    HW135162  11.951  10.846   8.720 -0.8835 -0.6514 -0.5735
42767SOL    HW235163  11.877  10.837   8.589  1.9744 -1.0074 -2.2464
42768SOL     OW35164   4.755   8.702   7.404 -0.0772 -0.0510  0.3110
42768SOL    HW135165   4.740   8.736   7.492 -0.6681 -0.2566  0.2905
42768SOL    HW235166   4.726   8.611   7.407  0.7487 -0.3334  0.1446
42769SOL     OW35167   2.307  12.372  12.370 -0.1464  0.4870  0.3170
42769SOL    HW135168   2.393  12.355  12.331 -0.0276 -1.2412  1.2746
42769SOL    HW235169   2.258  12.291  12.357 -0.4046  0.1487  2.9391
42770SOL     OW35170   4.810   7.885  11.286 -0.1063 -0.1734 -0.5218
42770SOL    HW135171   4.823   7.968  11.331  0.8133  0.3507 -1.7079
42770SOL    HW235172   4.858   7.894  11.204  0.3448 -2.0160 -0.5098
42771SOL     OW35173   2.410   4.531  10.261 -0.3141  0.0016 -0.4109
42771SOL    HW135174   2.505   4.525  10.275  0.2551  0.5578 -3.3471
42771SOL    HW235175   2.372   4.516  10.347  2.5130  2.2905  1.4150
42772SOL     OW35176   3.042   0.478   9.566  0.4317  0.1692 -0.4050
42772SOL    HW135177   3.110   0.454   9.629  0.1800 -0.9873 -0.5408
42772SOL    HW235178   3.002   0.557   9.602  0.5372 -0.2668  0.6948
42773SOL     OW35179   2.323   5.988  10.301 -0.3069 -0.6474  0.5880
42773SOL    HW135180   2.263   6.036  10.243  1.8859 -0.9412 -2.1620
42773SOL    HW235181   2.369   6.057  10.349 -0.6555 -0.2691  0.3879
42774SOL     OW35182   2.117   5.737   5.154  0.0171  0.2564  0.1350
42774SOL    HW135183   2.046   5.675   5.171  1.0508 -1.1171 -0.3855
42774SOL    HW235184   2.086   5.819   5.193 -1.3029 -0.6208  1.0427
42775SOL     OW35185  10.010   0.650  12.091  0.1271  0.2876  0.2543
42775SOL    HW135186   9.976   0.677  12.005 -1.0508  1.0170  0.9203
42775SOL    HW235187  10.063   0.573  12.073  1.0821  1.2480 -1.3284
42776SOL     OW35188   8.818  10.095   8.607 -0.4710 -0.5918 -0.1855
42776SOL    HW135189   8.858  10.013   8.577  1.3465 -0.2321  1.0579
42776SOL    HW235190   8.729  10.093   8.571 -0.1073 -2.5628 -1.1316
42777SOL     OW35191   3.144   3.092  11.249  0.1969 -0.5470  0.0396
42777SOL    HW135192   3.105   3.005  11.253 -5.2658  1.5673  2.3679
42777SOL    HW235193   3.170   3.111  11.339  2.9233 -0.1996 -0.7176
42778SOL     OW35194  11.466  10.340   9.849 -0.2649  0.5553  0.7472
42778SOL    HW135195  11.472  10.256   9.894  1.4582  0.1449 -0.1689
42778SOL    HW235196  11.372  10.358   9.844 -0.6636 -1.2448  1.0825
42779SOL     OW35197   5.376   7.339   2.455  0.0588 -0.4706  0.0293
42779SOL    HW135198   5.319   7.269   2.423  2.0454 -1.3781 -1.8035
42779SOL    HW235199   5.359   7.412   2.396  0.5049 -0.6237 -0.2953
42780SOL     OW35200   0.470  11.115   1.910  0.2468  0.7998  0.2886
42780SOL    HW135201   0.450  11.074   1.994 -1.0938 -1.2460 -0.9175
42780SOL    HW235202   0.508  11.044   1.858 -2.9429  0.6612 -2.1871
42781SOL     OW35203   3.934   2.273   9.571  0.1585  0.3489 -0.6546
42781SOL    HW135204   3.908   2.186   9.542 -0.0922 -0.3008  1.3617
42781SOL    HW235205   4.029   2.268   9.580  0.0912  0.0855 -0.0148
42782SOL     OW35206   5.988   1.491   7.458  0.4771 -0.5359  0.0471
42782SOL    HW135207   6.056   1.515   7.395 -0.0540  1.5957  0.2090
42782SOL    HW235208   6.018   1.530   7.541  0.2685 -1.7397  0.7197
42783SOL     OW35209   9.694   1.514   9.166 -0.3484 -0.1031 -0.0054
42783SOL    HW135210   9.601   1.491   9.172 -0.4657  0.5580  0.8161
42783SOL    HW235211   9.740   1.443   9.210 -0.3992 -0.7726 -0.9942
42784SOL     OW35212   2.612   3.241  10.116  0.4069 -0.8928  0.0650
42784SOL    HW135213   2.547   3.312  10.122  0.5399 -0.4014 -3.0167
42784SOL    HW235214   2.566   3.170  10.072  1.9798 -0.3493 -2.6517
42785SOL     OW35215   6.884   6.418   6.088  0.2501  0.2509  0.5680
42785SOL    HW135216   6.930   6.458   6.162 -0.4017  1.5886  0.2889
42785SOL    HW235217   6.903   6.476   6.014 -0.3288 -0.2332  0.0272
42786SOL     OW35218   0.368   1.248  12.092 -0.8378  0.2375 -0.4722
42786SOL    HW135219   0.317   1.253  12.173  0.4897 -0.3081  0.4417
42786SOL    HW235220   0.351   1.160  12.059  0.5393 -0.4755  0.5930
42787SOL     OW35221   6.336   9.419  11.717  0.2168  0.2891 -0.4020
42787SOL    HW135222   6.271   9.412  11.788 -0.6258 -0.8161 -1.2467
42787SOL    HW235223   6.285   9.411  11.637  1.4413 -1.2588 -1.0874
42788SOL     OW35224   5.433   0.816  10.867 -0.2880  0.4093  0.0370
42788SOL    HW135225   5.474   0.745  10.915  0.2084 -0.5295 -1.6763
42788SOL    HW235226   5.485   0.894  10.889 -0.4706  0.1496  1.4562
42789SOL     OW35227   1.360   2.898   9.907 -0.3010 -0.1191 -0.9834
42789SOL    HW135228   1.428   2.833   9.923 -0.0975  0.1550 -0.7318
42789SOL    HW235229   1.319   2.912   9.992  1.3505  1.9841 -0.4441
42790SOL     OW35230  10.714   2.512   1.538 -0.0816  0.2717 -0.2837
42790SOL    HW135231  10.752   2.452   1.474  1.2614  0.8316 -0.0482
42790SOL    HW235232  10.780   2.520   1.606 -0.9789  0.6480  0.5601
42791SOL     OW35233   0.758  10.797   0.878 -0.0849 -0.3518  0.0774
42791SOL    HW135234   0.788  10.852   0.805 -1.1387  0.2093  0.0477
42791SOL    HW235235   0.723  10.718   0.837 -3.1151  1.0460 -0.3061
42792SOL     OW35236  11.253   0.419   1.125  0.5338  0.4667  0.2957
42792SOL    HW135237  11.191   0.413   1.198  0.1252  2.6707  0.2112
42792SOL    HW235238  11.231   0.502   1.082  2.2685  0.3390 -0.9484
42793SOL     OW35239   7.622  10.136   0.258  0.1515  0.1912 -0.2741
42793SOL    HW135240   7.706  10.094   0.280  0.9012  0.9795 -1.5543
42793SOL    HW235241   7.595  10.179   0.340  0.0140 -1.6405  0.6968
42794SOL     OW35242   1.835   3.052   0.632  0.1697  0.2130  0.0634
42794SOL    HW135243   1.804   3.126   0.685  0.5954 -0.4205  1.2223
42794SOL    HW235244   1.892   3.093   0.566 -0.5086  1.0316 -0.0333
42795SOL     OW35245   4.446  10.452   1.367  0.0846  0.2316 -0.2651
42795SOL    HW135246   4.489  10.369   1.387 -1.2141 -0.2428  0.7536
42795SOL    HW235247   4.402  10.436   1.284  0.4673  0.1504 -0.4534
42796SOL     OW35248   3.208   8.882   7.467  0.8294 -0.5572  0.0698
42796SOL    HW135249   3.166   8.826   7.532  1.0837  1.4193  2.0967
42796SOL    HW235250   3.137   8.910   7.410  0.0571 -0.2814  1.1293
42797SOL     OW35251  10.374   8.246   0.317  0.3955  0.1630  0.4152
42797SOL    HW135252  10.458   8.258   0.361  1.1274 -1.6686 -0.3998
42797SOL    HW235253  10.395   8.199   0.237 -1.3926 -0.2362  0.1437
42798SOL     OW35254   4.976   5.985   5.649 -0.2322  0.0155  0.2284
42798SOL    HW135255   4.971   5.939   5.732 -0.4208  1.5153  1.0891
42798SOL    HW235256   4.919   5.936   5.590 -1.2790 -0.2189  1.4111
42799SOL     OW35257   3.615   8.996   7.153 -0.3731 -0.3739 -0.5435
42799SOL    HW135258   3.541   9.015   7.096 -1.2875  0.7331  0.9238
42799SOL    HW235259   3.612   9.065   7.220  1.8340 -0.4452 -0.2886
42800SOL     OW35260   1.122   0.577   1.104 -0.2791  0.2231 -0.4894
42800SOL    HW135261   1.213   0.605   1.094  0.0533 -0.6456  0.0310
42800SOL    HW235262   1.075   0.624   1.035  0.5244  0.8505 -0.6190
42801SOL     OW35263   2.601   0.218   1.754 -0.3933  0.7939 -0.0457
42801SOL    HW135264   2.546   0.217   1.833 -1.2009 -1.8621 -0.5535
42801SOL    HW235265   2.601   0.310   1.727 -1.0761  1.5774  2.3599
42802SOL     OW35266  10.057  12.141  12.197 -0.2732  0.1006  0.5392
42802SOL    HW135267  10.141  12.187  12.194 -1.5656  2.6286 -0.1544
42802SOL    HW235268  10.080  12.050  12.213  2.5197  0.8833  1.6300
42803SOL     OW35269   6.965   2.174  11.964 -0.5334 -0.4778 -0.1580
42803SOL    HW135270   6.968   2.140  12.053  0.3206 -1.3683 -0.5095
42803SOL    HW235271   7.016   2.112  11.912 -0.2051  0.5337 -1.1002
42804SOL     OW35272   9.139  10.697   3.604  0.3508 -0.2146  0.2386
42804SOL    HW135273   9.175  10.612   3.576 -0.2604 -0.4972  0.2901
42804SOL    HW235274   9.094  10.730   3.526  0.8048  0.1849  0.1422
42805SOL     OW35275   2.605   5.544   4.640  0.0389  0.1584  0.1822
42805SOL    HW135276   2.601   5.634   4.671  0.2045  0.8229 -1.5905
42805SOL    HW235277   2.597   5.551   4.545  1.8533 -1.5609 -0.1612
42806SOL     OW35278   8.379   0.867   5.305 -0.1176 -0.0597 -0.0384
42806SOL    HW135279   8.473   0.877   5.294 -0.0810 -0.1637  0.1590
42806SOL    HW235280   8.340   0.928   5.242  0.0721 -0.9539 -1.0513
42807SOL     OW35281   3.485   7.622  10.991  0.1891  0.1215 -0.2212
42807SOL    HW135282   3.465   7.676  11.068  0.9387  0.1551 -0.0433
42807SOL    HW235283   3.579   7.632  10.980  0.0249  0.4521 -1.3975
42808SOL     OW35284   3.356   8.435   6.362  0.4473 -0.8216  0.3939
42808SOL    HW135285   3.338   8.341   6.375 -1.7920 -0.5221 -0.1359
42808SOL    HW235286   3.288   8.479   6.414  0.7712  0.4973 -0.2752
42809SOL     OW35287   3.598   2.358   8.178  0.4953  0.1413  0.0238
42809SOL    HW135288   3.527   2.307   8.139  0.0639  0.6730  0.0987
42809SOL    HW235289   3.599   2.331   8.269  0.8411 -0.3683 -0.1309
42810SOL     OW35290   6.274  11.353   4.044  0.3468 -0.1511  0.3097
42810SOL    HW135291   6.303  11.266   4.017  0.2049 -0.6349  1.6443
42810SOL    HW235292   6.252  11.343   4.137 -0.2916  1.1558  0.3176
42811SOL     OW35293   1.950   8.794   9.160 -0.2348 -0.5438 -0.0072
42811SOL    HW135294   1.975   8.818   9.071 -0.3188 -0.9940 -0.1530
42811SOL    HW235295   2.030   8.758   9.199 -0.0975  0.0040  0.2246
42812SOL     OW35296   1.215   6.030  11.432  0.4042  0.0827  0.2055
42812SOL    HW135297   1.301   6.070  11.426  1.0336 -1.0332  1.3128
42812SOL    HW235298   1.231   5.942  11.466 -1.2637  0.3074  1.8004
42813SOL     OW35299   4.538   1.203  10.560 -0.0607  0.4064  0.2804
42813SOL    HW135300   4.508   1.278  10.508  0.7807  1.0756  0.7221
42813SOL    HW235301   4.634   1.211  10.559  0.0089 -0.2250  0.9789
42814SOL     OW35302  10.766   6.112   8.649 -0.6754  0.0794  0.0244
42814SOL    HW135303  10.770   6.019   8.624 -2.0100  0.2101 -0.7833
42814SOL    HW235304  10.843   6.151   8.607 -0.5426 -0.5078 -0.2967
42815SOL     OW35305   8.661   0.786   5.227  0.1890  0.0734  0.2865
42815SOL    HW135306   8.695   0.858   5.280 -0.1451  0.3230  0.1694
42815SOL    HW235307   8.686   0.808   5.137  1.4720 -0.7657  0.4229
42816SOL     OW35308   7.066   5.032   8.523  0.2938 -0.4338  0.3476
42816SOL    HW135309   7.009   5.108   8.515 -0.0402 -0.5403  1.5011
42816SOL    HW235310   7.020   4.973   8.583  2.2506  0.1159  2.5456
42817SOL     OW35311   0.739   5.188   0.999  0.1144 -0.3348  0.1510
42817SOL    HW135312   0.665   5.182   1.060 -0.0403 -1.4843 -0.1352
42817SOL    HW235313   0.698   5.194   0.913  0.3569 -0.7347  0.0083
42818SOL     OW35314   7.662   6.176   4.042 -0.4629  0.6504 -0.7352
42818SOL    HW135315   7.671   6.164   4.137  0.5136  1.5186 -0.6972
42818SOL    HW235316   7.597   6.111   4.016  0.1930 -0.4828  0.3354
42819SOL     OW35317   4.005   0.324   2.080 -0.3632  0.0383  0.2837
42819SOL    HW135318   3.988   0.407   2.033 -1.2543 -1.4671 -2.2882
42819SOL    HW235319   4.100   0.321   2.088 -0.3625  2.1932  2.3064
42820SOL     OW35320  11.928   3.550   5.496  0.1752 -1.1024  0.1046
42820SOL    HW135321  11.910   3.608   5.422  1.5641 -0.1156  0.4959
42820SOL    HW235322  11.899   3.464   5.467 -0.9761 -0.4091 -0.8966
42821SOL     OW35323   1.078   7.341   3.645 -0.4811 -0.1321  0.6318
42821SOL    HW135324   1.116   7.426   3.621 -1.0704  0.3231  1.2801
42821SOL    HW235325   1.003   7.331   3.585  0.1694 -0.6734 -0.1224
42822SOL     OW35326  10.726   2.240   0.210 -0.0055 -0.0071  0.3854
42822SOL    HW135327  10.643   2.222   0.254 -0.5039  1.6657  0.2009
42822SOL    HW235328  10.790   2.248   0.281 -0.2612 -0.0392  0.6197
42823SOL     OW35329   3.651   8.547   7.541 -0.7419 -0.1701  0.1720
42823SOL    HW135330   3.630   8.585   7.456 -0.7744 -0.0750  0.2221
42823SOL    HW235331   3.599   8.598   7.603 -1.0289 -0.4994  0.2081
42824SOL     OW35332   7.043   1.889   4.347  0.0058 -0.3383 -0.1158
42824SOL    HW135333   6.972   1.859   4.290  0.3118  1.6841 -1.6895
42824SOL    HW235334   7.022   1.980   4.366  1.3174 -0.1914  0.8011
42825SOL     OW35335   0.339  10.903   1.331 -0.0227 -0.7105 -0.5942
42825SOL    HW135336   0.426  10.941   1.328 -0.9237  1.6595  0.9430
42825SOL    HW235337   0.317  10.887   1.239  1.7537 -0.7677 -1.0422
42826SOL     OW35338   8.585  12.171  12.272 -0.5097  0.6297  0.2455
42826SOL    HW135339   8.555  12.137  12.187 -0.7815  0.4258  0.4240
42826SOL    HW235340   8.655  12.233  12.249 -0.2972  0.2631 -0.1043
42827SOL     OW35341  11.434  11.636   4.304 -0.2406  0.2318 -0.1876
42827SOL    HW135342  11.501  11.602   4.244  0.1099 -0.4528  0.5580
42827SOL    HW235343  11.484  11.674   4.376 -0.6036  2.9692 -1.2536
42828SOL     OW35344  10.399   6.541   8.172 -0.5206  0.0329 -0.0928
42828SOL    HW135345  10.436   6.623   8.140  0.1869 -0.1218  0.3055
42828SOL    HW235346  10.471   6.499   8.220 -1.1111 -0.4415  0.3985
42829SOL     OW35347   1.650  11.526   7.152  0.3360 -0.0528 -0.2284
42829SOL    HW135348   1.562  11.563   7.167  0.2197 -0.0654 -0.8502
42829SOL    HW235349   1.707  11.603   7.145  0.2823 -0.0273 -0.3844
42830SOL     OW35350   5.764   0.402   7.156 -0.3975 -0.1693 -0.6213
42830SOL    HW135351   5.791   0.417   7.065 -1.7062 -1.7288 -1.3362
42830SOL    HW235352   5.687   0.346   7.148 -1.5369  0.9905  1.4181
42831SOL     OW35353   3.768  11.352  11.231  0.6150 -0.3358  1.0288
42831SOL    HW135354   3.763  11.262  11.200 -0.6084 -0.0794  0.3937
42831SOL    HW235355   3.855  11.360  11.269  1.2762 -1.3726 -0.1956
42832SOL     OW35356   1.308   3.456   0.264 -0.2891  0.5849  0.5531
42832SOL    HW135357   1.340   3.378   0.309  0.1747  0.9124  0.7872
42832SOL    HW235358   1.258   3.504   0.331 -1.2332  0.1045  0.2068
42833SOL     OW35359  10.370  11.075  12.223  0.4310  0.2866  0.2784
42833SOL    HW135360  10.344  11.074  12.316 -1.0341  1.8510 -0.0479
42833SOL    HW235361  10.352  10.987  12.192  2.5331 -0.7828  1.8324
42834SOL     OW35362   7.458  10.275   0.922 -0.4467  0.3599  0.6395
42834SOL    HW135363   7.429  10.240   1.006  1.9850 -0.2957  1.2582
42834SOL    HW235364   7.553  10.266   0.923 -0.3356  0.4902 -2.1331
42835SOL     OW35365  10.207   4.967   1.944  0.3611 -0.3098 -0.1407
42835SOL    HW135366  10.126   4.956   1.894 -0.0871 -1.6230  0.7879
42835SOL    HW235367  10.271   4.912   1.898 -0.2872 -2.2523  1.1390
42836SOL     OW35368   9.075  11.031   8.271  0.1969  0.0217 -0.1536
42836SOL    HW135369   9.088  11.100   8.207 -1.3974 -1.3326 -2.0480
42836SOL    HW235370   9.013  11.067   8.334  1.6650  1.3139  0.6292
42837SOL     OW35371   7.854   4.269   5.079  0.2937 -0.3381  0.3190
42837SOL    HW135372   7.834   4.253   4.987  0.6395 -1.6337  0.4399
42837SOL    HW235373   7.921   4.337   5.078  0.4372 -0.4786 -0.3941
42838SOL     OW35374  11.420  10.232   6.691 -0.5291 -0.2857 -0.1258
42838SOL    HW135375  11.449  10.318   6.659 -0.3006  0.6350  2.2989
42838SOL    HW235376  11.501  10.182   6.700 -0.3274  0.2180  1.0152
42839SOL     OW35377   8.136   6.208   6.933  0.1613 -0.0355  0.0498
42839SOL    HW135378   8.094   6.124   6.918 -1.3452  0.8610 -1.0404
42839SOL    HW235379   8.220   6.186   6.974 -0.9773 -1.9333  1.5161
42840SOL     OW35380   6.448   3.058   1.506  0.5200  1.0750  0.0214
42840SOL    HW135381   6.529   3.106   1.488  0.2513  1.2577 -0.7187
42840SOL    HW235382   6.385   3.093   1.445 -0.1997  1.1012  0.7655
42841SOL     OW35383   5.730   0.509   8.522 -0.1022 -0.0267  0.3525
42841SOL    HW135384   5.788   0.434   8.509 -0.4943  0.0642 -2.4340
42841SOL    HW235385   5.679   0.515   8.442 -2.8893  0.8821  2.0604
42842SOL     OW35386   5.217   1.232   1.173 -0.3413 -0.0913  0.0373
42842SOL    HW135387   5.132   1.192   1.161  0.0124 -0.6394 -0.7473
42842SOL    HW235388   5.253   1.191   1.251 -0.7001 -0.0242  0.2389
42843SOL     OW35389   6.401   3.223   2.391  0.0447  0.4337  0.0301
42843SOL    HW135390   6.367   3.268   2.468 -0.7909 -1.2974  0.7313
42843SOL    HW235391   6.334   3.236   2.324 -0.4577 -0.1954  0.3991
42844SOL     OW35392   0.851   6.042   5.595 -0.6100  0.0333  0.4515
42844SOL    HW135393   0.881   5.964   5.549 -0.6122 -1.4124  2.7279
42844SOL    HW235394   0.920   6.061   5.658 -0.6378  1.8875 -0.0210
42845SOL     OW35395  10.080  11.301   0.777 -0.3435  0.1072 -0.7529
42845SOL    HW135396  10.044  11.295   0.689 -0.2137 -1.6260 -0.7264
42845SOL    HW235397  10.161  11.250   0.773 -1.3028 -1.6776  0.7996
42846SOL     OW35398   3.766   4.464   1.993 -0.0968 -0.2873 -0.0622
42846SOL    HW135399   3.729   4.464   1.905  1.2720  1.7684 -0.7005
42846SOL    HW235400   3.840   4.404   1.989 -1.1265 -1.6253  0.2402
42847SOL     OW35401   6.281   9.100  12.022 -0.5097  0.0385  0.0416
42847SOL    HW135402   6.366   9.087  11.979 -0.0474  3.5440 -0.3641
42847SOL    HW235403   6.222   9.041  11.975  1.4508 -1.7937 -0.3066
42848SOL     OW35404   0.086   7.298  10.838  0.2609  0.2675 -0.8013
42848SOL    HW135405   0.078   7.238  10.912  1.4761  0.6330 -0.3386
42848SOL    HW235406   0.034   7.258  10.768 -1.2549  0.1461  0.3669
42849SOL     OW35407   9.373   2.951   7.034 -0.6369  0.0206  0.5867
42849SOL    HW135408   9.349   3.012   6.965 -1.9481  1.4913  2.2505
42849SOL    HW235409   9.291   2.908   7.059 -0.2200 -0.3817  1.3184
42850SOL     OW35410   7.930   1.614   9.504  0.2784 -0.7392 -0.3138
42850SOL    HW135411   7.998   1.567   9.552 -1.1490 -4.3482 -1.5003
42850SOL    HW235412   7.917   1.563   9.424 -0.8070  2.3288 -2.2880
42851SOL     OW35413   0.119   6.243   8.221  0.0362  0.5844  0.5037
42851SOL    HW135414   0.159   6.316   8.268  1.4291  0.7567 -0.8544
42851SOL    HW235415   0.135   6.262   8.129 -1.8935 -0.1491 -0.0339
42852SOL     OW35416   3.965   9.968  12.380 -0.2215  0.9098 -0.7967
42852SOL    HW135417   4.034   9.943  12.318  0.1234  2.3777 -1.0308
42852SOL    HW235418   3.959   9.894  12.441  1.2480  0.5731 -1.0354
42853SOL     OW35419   7.605   4.430   8.826 -0.1320 -0.1243 -0.4671
42853SOL    HW135420   7.615   4.525   8.819  2.4849 -0.3552 -0.9418
42853SOL    HW235421   7.519   4.418   8.866 -0.6839  2.4194 -0.7047
42854SOL     OW35422   0.187   5.002  12.049 -0.1031  0.2424  0.2032
42854SOL    HW135423   0.137   4.921  12.050 -0.3183  0.3703  1.1458
42854SOL    HW235424   0.136   5.061  11.993 -0.8185  0.2430  0.8297
42855SOL     OW35425   2.257  10.401   7.446  0.0122  0.3691 -0.1366
42855SOL    HW135426   2.165  10.380   7.435 -0.0341  0.8322 -0.6898
42855SOL    HW235427   2.303  10.336   7.393  0.0626 -0.4021  0.8269
42856SOL     OW35428   5.234   2.214   7.358 -0.0084 -0.0745 -0.8234
42856SOL    HW135429   5.309   2.262   7.391 -0.2524 -0.5001  0.4059
42856SOL    HW235430   5.170   2.281   7.336 -1.5720  0.2873  3.7865
42857SOL     OW35431   1.072   5.747   7.500 -0.5282  0.2227  0.2822
42857SOL    HW135432   1.093   5.716   7.588  1.1146  1.4883  0.3811
42857SOL    HW235433   1.067   5.667   7.447  0.3633 -0.4232  1.1428
42858SOL     OW35434   9.289   3.726   0.046 -0.4441 -0.1306 -0.3345
42858SOL    HW135435   9.322   3.716   0.135 -2.9398 -1.5603  0.5264
42858SOL    HW235436   9.289   3.821   0.031  1.8385  0.0488  0.3718
42859SOL     OW35437   6.510   5.669   8.278 -0.6175 -0.0428 -0.1055
42859SOL    HW135438   6.417   5.692   8.286 -0.6445  0.5594 -1.7355
42859SOL    HW235439   6.556   5.753   8.279 -0.4193 -0.0287 -2.6218
42860SOL     OW35440  11.984   4.206   3.514 -0.2577 -0.7217 -0.1534
42860SOL    HW135441  11.990   4.186   3.420 -0.1344 -0.7415 -0.1417
42860SOL    HW235442  11.892   4.192   3.535 -0.4881  0.2229 -0.4810
42861SOL     OW35443   5.958   9.105   0.849 -0.0272 -0.3305  0.3840
42861SOL    HW135444   5.900   9.180   0.838  2.0793  1.4978  0.8291
42861SOL    HW235445   5.915   9.050   0.914 -1.4903  0.6407  0.2812
42862SOL     OW35446   4.268   9.166   4.855 -0.5892  0.2561 -0.4275
42862SOL    HW135447   4.243   9.140   4.767 -1.4631 -0.6510  0.0664
42862SOL    HW235448   4.200   9.129   4.912  0.0100  0.7244  0.6386
42863SOL     OW35449   5.460   6.239  10.848  0.5436  0.3600  0.1182
42863SOL    HW135450   5.532   6.188  10.885  1.1091  2.0298  1.4365
42863SOL    HW235451   5.405   6.260  10.923 -0.9664 -0.2859 -0.7744
42864SOL     OW35452   4.033   6.000   2.034  0.4833 -0.0475  0.4164
42864SOL    HW135453   3.950   6.013   1.989  1.0636 -0.8579 -0.9320
42864SOL    HW235454   4.091   5.963   1.968  1.2972 -1.5660  1.9002
42865SOL     OW35455   7.388   0.908   2.188 -0.4697 -0.5670  0.6091
42865SOL    HW135456   7.469   0.910   2.240 -0.0344 -1.9272  0.0376
42865SOL    HW235457   7.324   0.956   2.241  0.9054  1.2600  0.7079
42866SOL     OW35458   7.685  11.130   5.225 -0.1230 -0.1944  0.5223
42866SOL    HW135459   7.761  11.181   5.254 -1.5577  1.2522  1.9476
42866SOL    HW235460   7.657  11.082   5.302 -0.0471 -1.5607 -0.2745
42867SOL     OW35461   9.453   8.521   0.367 -0.3429 -0.6435 -0.3921
42867SOL    HW135462   9.548   8.518   0.377 -0.3931 -2.2125 -0.0459
42867SOL    HW235463   9.424   8.591   0.426  0.4856 -1.1394  0.6332
42868SOL     OW35464  11.181   1.449   2.016 -0.1622  0.5407  0.7967
42868SOL    HW135465  11.199   1.372   2.069 -0.4897  0.0440  0.1997
42868SOL    HW235466  11.137   1.415   1.938 -0.1042  1.3036  0.4195
42869SOL     OW35467   5.506   1.941   7.356  0.1831 -0.1641  0.2120
42869SOL    HW135468   5.499   1.848   7.333  0.7099 -0.0735 -0.3550
42869SOL    HW235469   5.423   1.979   7.327  0.5706 -0.1818 -0.9575
42870SOL     OW35470   0.897   2.638   1.479 -0.6433  0.3289 -0.5409
42870SOL    HW135471   0.890   2.685   1.396  0.9663  1.7836  0.0784
42870SOL    HW235472   0.944   2.558   1.458 -1.0056  0.2798 -1.1704
42871SOL     OW35473   1.864   3.318   3.357  0.2628 -0.4690 -0.1948
42871SOL    HW135474   1.909   3.249   3.308  1.7728  1.4276 -1.6197
42871SOL    HW235475   1.867   3.394   3.299 -0.4607  1.0860  1.7146
42872SOL     OW35476   2.335   7.381   8.398  0.0604 -0.2402 -0.4893
42872SOL    HW135477   2.325   7.394   8.492  1.0042 -0.2274 -0.3809
42872SOL    HW235478   2.247   7.392   8.363 -0.2581  0.0121  0.3595
42873SOL     OW35479   3.062   8.209  11.355  0.0236 -0.6149 -0.4726
42873SOL    HW135480   3.080   8.221  11.262  0.1125 -0.3148 -0.4149
42873SOL    HW235481   3.109   8.280  11.399 -1.0792  0.0159 -0.2967
42874SOL     OW35482   9.355  11.858   7.525  0.1819  0.0077 -0.1771
42874SOL    HW135483   9.325  11.862   7.616 -0.9307  0.3674 -0.5440
42874SOL    HW235484   9.280  11.890   7.474  0.7213 -0.3894 -1.2353
42875SOL     OW35485   9.984   7.069   6.944 -0.0708  0.1569  0.3229
42875SOL    HW135486  10.057   7.045   7.002 -0.0881  0.9628  0.6872
42875SOL    HW235487   9.950   6.985   6.914 -0.1155 -0.2991  1.5606
42876SOL     OW35488  11.537   8.117   2.137  0.5351  0.2273  0.1104
42876SOL    HW135489  11.617   8.071   2.110 -0.2496 -1.3262  0.3781
42876SOL    HW235490  11.515   8.172   2.061  0.0577 -1.7758 -1.2694
42877SOL     OW35491   2.140   5.035  11.065 -0.2309  0.2432  0.1418
42877SOL    HW135492   2.228   5.051  11.099 -0.5595 -0.5244  1.4219
42877SOL    HW235493   2.145   4.948  11.025 -0.2070  0.5484 -0.5301
42878SOL     OW35494  10.033  12.313   4.670  0.2156  0.0579  0.2379
42878SOL    HW135495   9.977  12.300   4.746  1.1874  0.2025  1.0040
42878SOL    HW235496  10.090  12.236   4.668 -0.4700 -0.4529 -0.9691
42879SOL     OW35497  12.394   1.533   4.857 -0.1060  0.0228  0.0182
42879SOL    HW135498  12.370   1.440   4.855 -1.1216  0.2667  0.2575
42879SOL    HW235499  12.476   1.538   4.808 -0.9403 -0.7517 -1.5256
42880SOL     OW35500  12.011   0.663   9.031 -0.2258  0.2063 -0.1929
42880SOL    HW135501  12.015   0.598   8.961 -0.0275 -0.8619  0.7816
42880SOL    HW235502  11.957   0.622   9.098 -1.7686  1.8640 -0.3555
42881SOL     OW35503   5.763   4.235   2.498 -0.1344 -0.0106 -0.1169
42881SOL    HW135504   5.806   4.249   2.414  0.0648  0.1953  0.0185
42881SOL    HW235505   5.678   4.196   2.475  0.2130 -0.6257 -0.3733
42882SOL     OW35506   2.233   3.262   6.038  0.8515 -0.2034 -0.6781
42882SOL    HW135507   2.248   3.329   5.972  0.3431  0.1806 -0.4136
42882SOL    HW235508   2.163   3.207   6.001 -0.7247  1.0745  0.2789
42883SOL     OW35509   6.811   0.942   8.378 -0.2127  0.1147  0.6840
42883SOL    HW135510   6.878   0.877   8.357  1.4989  1.4049  1.8679
42883SOL    HW235511   6.793   0.929   8.472 -1.3673  0.0567  0.4770
42884SOL     OW35512  11.256   4.531   3.817 -0.2594  0.0995 -0.3931
42884SOL    HW135513  11.285   4.588   3.746 -1.8137 -0.4578 -1.5420
42884SOL    HW235514  11.200   4.466   3.774 -0.0381 -1.1814  1.1416
42885SOL     OW35515   8.288   4.246   5.868 -0.5082  0.1277  0.3522
42885SOL    HW135516   8.250   4.272   5.784 -1.3576  0.9789  0.9843
42885SOL    HW235517   8.303   4.152   5.859 -1.0092  0.1201 -0.5866
42886SOL     OW35518  10.815   0.899   0.821  0.6331 -0.1555 -0.6836
42886SOL    HW135519  10.740   0.936   0.867 -0.3616  1.0266 -3.1086
42886SOL    HW235520  10.891   0.945   0.857  0.0251 -0.0324  0.4759
42887SOL     OW35521   1.315   2.029   9.493  0.0087 -0.7084 -0.9044
42887SOL    HW135522   1.253   2.101   9.481  0.2921 -0.3029 -0.0441
42887SOL    HW235523   1.388   2.051   9.434  1.1242  0.9498  0.9519
42888SOL     OW35524   9.685   9.330   6.779 -0.8300  0.3412 -0.3984
42888SOL    HW135525   9.714   9.355   6.867 -1.2792  0.7918 -0.3767
42888SOL    HW235526   9.705   9.237   6.773 -0.8493  0.2957  0.2005
42889SOL     OW35527  12.115  10.373   7.548  0.0246 -0.2325 -0.4582
42889SOL    HW135528  12.174  10.365   7.623  0.0710 -0.6261 -0.5349
42889SOL    HW235529  12.100  10.468   7.539 -0.6878 -0.2344  0.5824
42890SOL     OW35530   7.514   1.884   7.628  0.2452  0.2057  0.1898
42890SOL    HW135531   7.480   1.965   7.668  0.0604  0.1963  0.0552
42890SOL    HW235532   7.590   1.913   7.578  1.5768 -0.0440  1.9718
42891SOL     OW35533   3.182   8.289   8.666 -0.0830  0.2006  0.1586
42891SOL    HW135534   3.193   8.233   8.743  2.3928  0.6062  0.1648
42891SOL    HW235535   3.189   8.228   8.592  1.4379  0.2844  0.1981
42892SOL     OW35536   5.881   3.899   9.929  0.2068  0.1250  0.2004
42892SOL    HW135537   5.904   3.849   9.850 -0.1381  0.5471 -0.1689
42892SOL    HW235538   5.962   3.941   9.955  0.3094  0.0341  0.0316
42893SOL     OW35539  11.450   4.122  11.304 -0.4631 -0.0778  0.4108
42893SOL    HW135540  11.364   4.145  11.268  0.0135  1.1787  0.0442
42893SOL    HW235541  11.446   4.151  11.396 -0.5844 -0.4205  0.5141
42894SOL     OW35542   9.112   8.639   7.430  0.0031 -0.1518  0.2578
42894SOL    HW135543   9.178   8.572   7.410 -0.9431 -1.3406  1.0122
42894SOL    HW235544   9.062   8.603   7.502 -0.7211  1.2741  0.5065
42895SOL     OW35545  11.703   2.413   0.790 -0.3016 -0.3011 -0.1431
42895SOL    HW135546  11.627   2.388   0.739  0.7279 -2.5641 -0.6943
42895SOL    HW235547  11.667   2.453   0.869 -1.9859  0.2784 -1.1623
42896SOL     OW35548   7.862   7.071   0.315 -0.1127  0.3100  0.0086
42896SOL    HW135549   7.775   7.102   0.341 -0.0301  1.4273 -0.9402
42896SOL    HW235550   7.844   6.997   0.256 -0.3960  0.1019  0.3540
42897SOL     OW35551   7.276   8.895   2.893  0.6181 -0.4707  0.5463
42897SOL    HW135552   7.210   8.961   2.916 -0.0734 -1.2382  0.8193
42897SOL    HW235553   7.264   8.882   2.799  0.6347 -0.3411  0.5254
42898SOL     OW35554   5.088  11.586  10.249 -0.1495 -0.0972 -0.6608
42898SOL    HW135555   5.068  11.591  10.343  0.6414 -0.3229 -0.4748
42898SOL    HW235556   5.052  11.667  10.213 -1.1853 -0.3812 -0.3104
42899SOL     OW35557   4.721  10.188  10.557  0.4986 -0.2500 -0.4179
42899SOL    HW135558   4.650  10.153  10.502  0.5082 -0.2878 -0.4058
42899SOL    HW235559   4.702  10.282  10.563 -0.4640 -0.4980  0.9360
42900SOL     OW35560   6.225  10.230   5.790 -0.3357 -0.0302 -0.6535
42900SOL    HW135561   6.268  10.259   5.871  1.1844 -0.7974 -1.1566
42900SOL    HW235562   6.186  10.310   5.755  0.7659  0.7282 -0.2171
42901SOL     OW35563  11.219  11.703  10.982 -0.3130  0.3428  0.3092
42901SOL    HW135564  11.273  11.766  11.029 -0.0152  0.6119 -0.3867
42901SOL    HW235565  11.271  11.622  10.982  1.5729  1.3629 -2.9966
42902SOL     OW35566   0.636   9.751   3.838 -0.1953  0.2494  0.2243
42902SOL    HW135567   0.629   9.845   3.824  0.4175  0.2367 -0.2238
42902SOL    HW235568   0.666   9.742   3.929 -2.0473  0.4102  0.8830
42903SOL     OW35569   7.704  11.600   7.736  0.2033  0.1070  0.0886
42903SOL    HW135570   7.727  11.554   7.656 -0.5715 -1.8103  0.8942
42903SOL    HW235571   7.763  11.564   7.802 -1.1991 -0.6478  0.9812
42904SOL     OW35572   0.477   6.984   5.982 -0.2335  0.1017 -0.4839
42904SOL    HW135573   0.503   6.924   6.052  2.2112  0.2794 -1.1510
42904SOL    HW235574   0.446   7.062   6.028 -0.4920 -0.5090  0.3972
42905SOL     OW35575   9.160   5.573   5.094 -0.0144  0.0380 -0.5141
42905SOL    HW135576   9.188   5.533   5.012 -0.5049  0.5167 -0.9264
42905SOL    HW235577   9.071   5.541   5.107 -0.2180  0.5649 -0.5766
42906SOL     OW35578   5.139   9.685  11.250 -0.0851  0.1198  0.1419
42906SOL    HW135579   5.205   9.616  11.253 -1.6812 -1.4617  2.1102
42906SOL    HW235580   5.140   9.723  11.338 -1.9405 -0.1476  0.3250
42907SOL     OW35581   2.201   7.218   4.193  0.8683  0.3425 -0.1238
42907SOL    HW135582   2.259   7.286   4.228 -0.4451 -0.0396  3.2409
42907SOL    HW235583   2.114   7.241   4.226  0.0148 -1.8157 -0.6837
42908SOL     OW35584   8.814   5.476   5.006  0.6244 -0.0213  0.1331
42908SOL    HW135585   8.804   5.441   4.918 -0.1107 -0.0195  0.2115
42908SOL    HW235586   8.770   5.412   5.062 -1.0801  1.1970  0.2460
42909SOL     OW35587   2.230   4.313   5.804 -0.1337  0.1656 -0.1982
42909SOL    HW135588   2.276   4.278   5.881  0.4236 -1.7658 -1.3412
42909SOL    HW235589   2.138   4.314   5.831  0.3423  3.1016  1.7567
42910SOL     OW35590   9.942  11.519   3.044  0.1550  0.0572  0.1018
42910SOL    HW135591   9.988  11.504   3.126 -1.8183 -2.4928  0.8916
42910SOL    HW235592   9.937  11.432   3.003 -2.1132  0.5497 -0.8418
42911SOL     OW35593   4.399   8.885   7.392  0.2917 -0.9240 -0.0846
42911SOL    HW135594   4.352   8.807   7.422  2.6181 -1.7350  1.6967
42911SOL    HW235595   4.395   8.946   7.466 -0.7981  0.4068 -1.1671
42912SOL     OW35596   6.154   7.133  10.892  0.2991 -0.4053  0.1023
42912SOL    HW135597   6.069   7.102  10.921  0.6114 -0.7949  0.6164
42912SOL    HW235598   6.150   7.127  10.796 -0.4059  0.0258  0.0920
42913SOL     OW35599   6.382   2.870   6.461  0.4743 -0.4063  0.4840
42913SOL    HW135600   6.372   2.952   6.510 -0.7337 -0.7367  0.8059
42913SOL    HW235601   6.463   2.832   6.497 -0.8269 -1.0820  2.9291
42914SOL     OW35602   5.641  11.195   8.862 -0.0753 -0.3373  0.6396
42914SOL    HW135603   5.587  11.274   8.866  1.2028  0.6727 -0.8465
42914SOL    HW235604   5.609  11.147   8.786  0.4821 -0.2191  0.3277
42915SOL     OW35605  11.419   0.208   9.018  0.3167 -0.0607 -0.1627
42915SOL    HW135606  11.388   0.288   8.976 -0.3942 -0.5880 -0.6664
42915SOL    HW235607  11.509   0.197   8.986  0.6810  0.9127  0.4824
42916SOL     OW35608   1.671   1.110   9.398 -0.9293 -0.2672 -0.2087
42916SOL    HW135609   1.658   1.197   9.359 -0.6433 -0.0114  0.2483
42916SOL    HW235610   1.600   1.057   9.363 -1.3415  0.2604 -0.1891
42917SOL     OW35611  10.713   0.121   4.561 -0.1603 -0.0419  0.1613
42917SOL    HW135612  10.643   0.072   4.519 -1.0717  0.1046  1.4330
42917SOL    HW235613  10.757   0.167   4.490 -0.7903 -0.8407 -0.7685
42918SOL     OW35614  10.682   8.349   7.065  0.4906  0.2114 -0.3426
42918SOL    HW135615  10.723   8.391   6.990  1.1699  0.4108  0.1367
42918SOL    HW235616  10.749   8.351   7.134  0.2509 -0.9058 -0.0559
42919SOL     OW35617   5.962  11.420   1.026  0.1570  0.0598  0.3515
42919SOL    HW135618   5.930  11.340   0.985  2.0117 -0.7530  0.3622
42919SOL    HW235619   5.886  11.477   1.032 -0.8858 -1.1196 -1.0580
42920SOL     OW35620   4.237   5.583  10.407 -0.0706 -0.1498  0.5420
42920SOL    HW135621   4.202   5.591  10.318 -0.5996  0.7414  0.8149
42920SOL    HW235622   4.170   5.621  10.463  0.6315  0.1028  1.2367
42921SOL     OW35623   6.581   4.844   9.459 -0.0850  0.5855  0.5379
42921SOL    HW135624   6.592   4.860   9.553 -1.0002  0.5598  0.6658
42921SOL    HW235625   6.620   4.757   9.445 -0.7442  0.1903  1.0825
42922SOL     OW35626   2.313   0.276   2.549 -0.4106 -0.4408  0.1745
42922SOL    HW135627   2.384   0.324   2.506 -0.1656 -1.0549 -0.1257
42922SOL    HW235628   2.346   0.186   2.554  0.1352 -0.1573  2.8390
42923SOL     OW35629  12.299   7.006  11.009 -0.3331 -0.3063  0.5651
42923SOL    HW135630  12.323   7.097  11.026  1.8009 -0.7017  0.0986
42923SOL    HW235631  12.211   6.996  11.044 -2.5369  3.0980 -3.1782
42924SOL     OW35632   6.744   1.730   6.085 -0.5873 -0.0583 -0.4042
42924SOL    HW135633   6.798   1.652   6.095  0.2974  0.6031  0.1093
42924SOL    HW235634   6.657   1.703   6.116 -0.8253 -1.3908 -2.0989
42925SOL     OW35635   0.049   4.643   2.327 -0.0533  0.2242  0.2526
42925SOL    HW135636   0.054   4.675   2.417 -0.4461  0.9747  0.0184
42925SOL    HW235637  -0.037   4.601   2.322  0.6299 -1.2714  0.6769
42926SOL     OW35638   0.508   7.938   5.568  0.4914  0.1509  0.2238
42926SOL    HW135639   0.588   7.900   5.531  0.4175 -0.2852  0.5043
42926SOL    HW235640   0.448   7.945   5.494  0.0096 -1.6020  0.4214
42927SOL     OW35641   2.185   2.073   2.358 -0.0086 -0.4621 -0.3900
42927SOL    HW135642   2.207   2.090   2.267  0.8976  1.4730  0.1275
42927SOL    HW235643   2.250   2.008   2.386 -0.5390 -1.3607 -1.2081
42928SOL     OW35644  10.884   4.885   4.596 -0.0258 -0.7711 -0.6804
42928SOL    HW135645  10.832   4.932   4.530  1.5143  0.5101 -1.0418
42928SOL    HW235646  10.878   4.940   4.674 -0.1511 -1.2207 -0.3711
42929SOL     OW35647  11.969   7.464  11.490 -0.3520 -0.1283  0.7903
42929SOL    HW135648  12.049   7.469  11.437 -1.5924 -0.3958 -1.2356
42929SOL    HW235649  11.961   7.551  11.529  0.4717  0.1870  0.2769
42930SOL     OW35650   7.046   1.119  11.642 -0.1697 -0.0096 -0.2801
42930SOL    HW135651   7.093   1.052  11.692 -2.1078  0.1708  1.9851
42930SOL    HW235652   7.115   1.171  11.602  1.4592 -1.6205  0.2677
42931SOL     OW35653   1.935   5.200   1.099  0.2733  0.3541  0.5121
42931SOL    HW135654   1.934   5.259   1.024 -0.9296  0.4354  0.5638
42931SOL    HW235655   1.979   5.121   1.067  0.1627  0.5496 -0.1402
42932SOL     OW35656   8.889   0.220   7.791  0.4014  0.8259  0.5155
42932SOL    HW135657   8.806   0.173   7.794  0.9370 -0.1490  0.5019
42932SOL    HW235658   8.872   0.301   7.839 -0.5821  0.6930  0.4194
42933SOL     OW35659   7.660   6.739  10.577  0.2316  0.4811  0.6235
42933SOL    HW135660   7.743   6.719  10.533  0.5786  2.8148  0.0634
42933SOL    HW235661   7.624   6.654  10.602  2.0522 -0.6714 -0.4926
42934SOL     OW35662   2.566  10.665   2.235  0.0402 -0.3372 -0.1708
42934SOL    HW135663   2.541  10.596   2.296 -0.4196  0.2546  0.3218
42934SOL    HW235664   2.596  10.737   2.290  1.5634 -0.5201 -0.7079
42935SOL     OW35665   1.176  10.062   8.957 -0.3652  0.1102  0.2242
42935SOL    HW135666   1.126  10.022   8.885 -1.9292  0.7495  0.9217
42935SOL    HW235667   1.211  10.143   8.919  0.6345 -0.6019 -0.4245
42936SOL     OW35668   2.706  11.969   1.217 -0.5126  0.1600  0.6361
42936SOL    HW135669   2.671  11.880   1.222  0.7923 -0.3515  1.0690
42936SOL    HW235670   2.796  11.957   1.187 -0.1817  1.2974  1.1446
42937SOL     OW35671   5.563  10.770   0.412 -0.1760 -0.7563 -0.1109
42937SOL    HW135672   5.527  10.756   0.324  0.1100  1.1660 -0.5704
42937SOL    HW235673   5.497  10.733   0.471 -1.8636  0.6313 -1.0358
42938SOL     OW35674  10.659  11.793   8.686  0.0266 -0.5820 -0.0231
42938SOL    HW135675  10.634  11.774   8.596  0.3309  1.0096 -0.4710
42938SOL    HW235676  10.587  11.845   8.721 -0.2935 -1.5575  0.8159
42939SOL     OW35677   3.775   8.906  10.440 -0.2409 -0.6435 -0.2045
42939SOL    HW135678   3.735   8.993  10.441  0.8812 -0.0938  1.2186
42939SOL    HW235679   3.823   8.903  10.357 -2.5763 -1.0627 -1.6168
42940SOL     OW35680  11.120   9.283   1.102 -0.3706 -0.4504  0.1422
42940SOL    HW135681  11.062   9.313   1.171 -1.1268 -0.7252 -0.3566
42940SOL    HW235682  11.173   9.214   1.143 -0.4715 -0.2738  0.5738
42941SOL     OW35683   1.933   5.419   8.856  0.3508 -0.1021 -0.1305
42941SOL    HW135684   1.996   5.429   8.785  0.9181  3.8149  0.6512
42941SOL    HW235685   1.987   5.415   8.935 -0.3346 -2.1506  0.2913
42942SOL     OW35686   9.684   9.044   1.331 -0.5826  0.4525 -0.1539
42942SOL    HW135687   9.764   9.081   1.293 -0.0737 -1.1065 -0.6650
42942SOL    HW235688   9.627   9.120   1.344  0.8969  1.5805  0.0522
42943SOL     OW35689   5.364   5.994  12.217  0.4873 -0.1866  0.0631
42943SOL    HW135690   5.454   6.027  12.218  0.1930  0.6553 -0.1454
42943SOL    HW235691   5.310   6.073  12.210 -0.2608 -0.6952 -0.0025
42944SOL     OW35692   2.778   8.882   6.255  0.5452 -0.1492  0.0746
42944SOL    HW135693   2.851   8.873   6.195 -0.4183 -0.7809 -1.0489
42944SOL    HW235694   2.700   8.866   6.201 -0.3655 -0.5140  1.4383
42945SOL     OW35695  10.152   4.537   2.568  0.7436  0.2967 -0.3358
42945SOL    HW135696  10.220   4.530   2.635 -1.5273  0.3659  2.1674
42945SOL    HW235697  10.149   4.451   2.527  0.9889 -0.3509  0.9525
42946SOL     OW35698  12.332  12.244   4.300  0.1598  0.5671 -0.5330
42946SOL    HW135699  12.412  12.260   4.251 -0.4573  3.0740 -0.9103
42946SOL    HW235700  12.355  12.264   4.391  0.1492  0.6584 -0.5494
42947SOL     OW35701   7.246  10.466   5.856 -0.3959 -0.3260  0.5204
42947SOL    HW135702   7.180  10.455   5.788  0.8462  0.5817 -0.9085
42947SOL    HW235703   7.250  10.382   5.900 -3.2933 -0.0736  1.4451
42948SOL     OW35704   4.095   2.135  10.436 -0.0145 -0.7832 -0.5838
42948SOL    HW135705   4.015   2.083  10.440 -0.7999  0.3755 -0.5348
42948SOL    HW235706   4.069   2.214  10.388  0.4166  0.7804  1.6207
42949SOL     OW35707   9.188   8.469   7.994  0.1971 -0.1121 -0.5447
42949SOL    HW135708   9.170   8.378   8.019  0.4797  0.6996  3.1558
42949SOL    HW235709   9.228   8.508   8.072  0.3177  3.1630 -2.0683
42950SOL     OW35710   5.141   0.786   3.513  0.1064 -0.3096 -0.0425
42950SOL    HW135711   5.094   0.825   3.439  0.5776 -2.2013 -1.4222
42950SOL    HW235712   5.233   0.800   3.492  0.2493  0.9078  1.2450
42951SOL     OW35713   5.554   5.412  11.892  0.1087  0.0659  0.0133
42951SOL    HW135714   5.627   5.402  11.830 -0.1209  1.0819 -0.4397
42951SOL    HW235715   5.560   5.503  11.922 -1.7095  0.5589 -0.9894
42952SOL     OW35716   2.129   4.510   8.667  0.6092  0.0167  0.3792
42952SOL    HW135717   2.135   4.508   8.571 -3.1654  2.1591 -0.1172
42952SOL    HW235718   2.188   4.581   8.693  0.7095  0.2915 -0.5497
42953SOL     OW35719   1.072   5.439   5.918  0.5265 -0.6130 -0.0663
42953SOL    HW135720   1.021   5.437   6.000  0.4108  0.9141 -0.0796
42953SOL    HW235721   1.029   5.374   5.862 -1.6594  0.8276 -0.1902
42954SOL     OW35722   1.885   4.199   2.305  0.0449 -0.0871  0.1368
42954SOL    HW135723   1.971   4.161   2.324 -0.2723 -0.2779  1.2762
42954SOL    HW235724   1.838   4.193   2.388 -1.2878 -0.5428 -0.6277
42955SOL     OW35725   6.305   0.143   3.630 -0.1915  0.1510  0.3193
42955SOL    HW135726   6.366   0.176   3.695  1.0933  1.4338 -1.4440
42955SOL    HW235727   6.223   0.128   3.678  0.8854  0.4161  2.3111
42956SOL     OW35728   2.809   9.250   6.915  0.2712  0.5180 -1.1485
42956SOL    HW135729   2.869   9.184   6.882 -0.2535 -1.0421  0.8240
42956SOL    HW235730   2.734   9.247   6.855  0.1375 -0.9037 -0.9444
42957SOL     OW35731   1.725   7.383   0.711  0.1521  0.2103 -0.6528
42957SOL    HW135732   1.675   7.450   0.663  0.2382  0.9879  0.2997
42957SOL    HW235733   1.815   7.393   0.680  0.1347  0.4338 -0.6328
42958SOL     OW35734  10.371   2.112   5.651 -0.2820 -0.2604 -0.2981
42958SOL    HW135735  10.443   2.054   5.675  0.4719  0.9028  0.3574
42958SOL    HW235736  10.407   2.167   5.581 -0.7843 -0.1634 -0.4852
42959SOL     OW35737   0.463  11.666   7.130 -0.4992  0.2008  0.0494
42959SOL    HW135738   0.476  11.660   7.035  2.3869  0.9233  0.2867
42959SOL    HW235739   0.401  11.738   7.141 -1.1735 -0.1371 -1.2776
42960SOL     OW35740   7.007   9.116   4.612 -0.4176  0.1055 -0.1386
42960SOL    HW135741   7.049   9.162   4.685  0.0629  0.9060 -0.8959
42960SOL    HW235742   7.037   9.026   4.621  0.3026  0.3643  0.1879
42961SOL     OW35743   1.223   4.172   3.562 -0.5510  0.2550 -0.2281
42961SOL    HW135744   1.247   4.120   3.485 -1.6285 -0.7506  0.0780
42961SOL    HW235745   1.206   4.107   3.630 -0.0047  1.1148  0.7542
42962SOL     OW35746   2.902   2.592   3.990  0.0223  0.0360  0.4197
42962SOL    HW135747   2.866   2.551   3.912  0.5886  0.3055  0.0121
42962SOL    HW235748   2.920   2.519   4.050  0.6700 -0.2784 -0.1520
42963SOL     OW35749   9.858   9.529  11.203  0.1536 -0.0726  0.0753
42963SOL    HW135750   9.888   9.566  11.120 -0.7161 -3.9064 -2.1836
42963SOL    HW235751   9.936   9.494  11.244  0.2639 -0.3093 -0.3369
42964SOL     OW35752   8.580   3.163  10.771 -0.1719 -0.6482  0.2715
42964SOL    HW135753   8.503   3.123  10.811  0.0835 -0.7114  0.7112
42964SOL    HW235754   8.650   3.151  10.836 -0.2071  0.9464  0.6544
42965SOL     OW35755   8.453  11.571   6.666 -0.1616 -0.0394 -0.0557
42965SOL    HW135756   8.460  11.476   6.677 -1.0745 -0.2060 -0.7833
42965SOL    HW235757   8.513  11.591   6.594 -0.0477 -0.0854  0.0271
42966SOL     OW35758  11.241   5.320   5.049  0.2699  0.4480 -0.3050
42966SOL    HW135759  11.191   5.356   4.975  1.2904  1.4661 -0.5293
42966SOL    HW235760  11.307   5.264   5.009  1.1828  1.4336 -0.2423
42967SOL     OW35761   0.233   2.310  11.147  0.1750 -0.7835  0.3099
42967SOL    HW135762   0.268   2.248  11.082  1.2090 -0.6345  0.6949
42967SOL    HW235763   0.286   2.389  11.135 -0.4277 -0.3420  0.5344
42968SOL     OW35764   1.469   6.257   4.501  0.6574  0.1230  0.4539
42968SOL    HW135765   1.485   6.187   4.565 -1.2744 -0.2983  0.5417
42968SOL    HW235766   1.471   6.212   4.416  1.1864  0.2955  0.3759
42969SOL     OW35767   7.161   4.300   7.867 -0.3714 -0.3763  0.3522
42969SOL    HW135768   7.078   4.346   7.862 -0.0550  0.3189  1.1569
42969SOL    HW235769   7.227   4.369   7.862  0.1011 -0.6643  2.0736
42970SOL     OW35770  10.027   9.165   3.977 -0.3446  0.6420  0.4452
42970SOL    HW135771  10.019   9.157   4.072 -0.4037 -1.0568  0.3238
42970SOL    HW235772   9.937   9.160   3.944 -0.3697  1.6935  0.3027
42971SOL     OW35773   4.825  10.913   9.196  0.0220 -0.2683 -0.5295
42971SOL    HW135774   4.852  10.824   9.220 -1.8195 -0.9311 -0.7559
42971SOL    HW235775   4.899  10.948   9.146  1.6028 -0.9110  1.2506
42972SOL     OW35776  11.884   8.728   3.880 -0.3471 -0.6939 -0.2258
42972SOL    HW135777  11.846   8.789   3.816 -1.4131  3.0933  3.5683
42972SOL    HW235778  11.978   8.728   3.860 -0.4831  1.2771 -1.1175
42973SOL     OW35779   8.880   7.069  11.676 -0.3028  0.3787 -0.2753
42973SOL    HW135780   8.928   7.111  11.748 -0.0424  0.0402 -0.2500
42973SOL    HW235781   8.887   7.131  11.603  0.4392  0.1997 -0.3663
42974SOL     OW35782  10.415   4.566   5.210 -0.3375  0.2008 -0.3621
42974SOL    HW135783  10.324   4.545   5.231  0.7240 -4.4102  0.8668
42974SOL    HW235784  10.420   4.559   5.115 -1.4290  1.6414 -0.5519
42975SOL     OW35785  11.016   5.056   8.204  0.5960  0.0102  0.0826
42975SOL    HW135786  10.960   5.131   8.227  0.2204 -0.7386  1.8058
42975SOL    HW235787  11.065   5.085   8.128 -1.2685  1.1489 -0.7515
42976SOL     OW35788   2.869   8.948   9.761 -0.4090  0.1116 -0.7305
42976SOL    HW135789   2.924   9.025   9.744 -0.6791  0.7370  1.0105
42976SOL    HW235790   2.852   8.911   9.674  4.0433 -1.0639 -1.3618
42977SOL     OW35791   8.207   4.799   8.265  0.2597 -0.2533  0.4212
42977SOL    HW135792   8.240   4.803   8.354 -0.4051  1.1769  0.6278
42977SOL    HW235793   8.236   4.714   8.232  1.2754 -0.4218  1.6874
42978SOL     OW35794   3.355   9.843   1.468  0.0553  0.1609 -0.4098
42978SOL    HW135795   3.327   9.753   1.450 -0.8628  0.8873 -2.8981
42978SOL    HW235796   3.436   9.853   1.419 -0.0805  0.8353 -0.5033
42979SOL     OW35797  11.606  10.683   9.968 -0.0626  0.2059  0.4398
42979SOL    HW135798  11.511  10.683   9.963 -0.0233  1.6369 -1.9751
42979SOL    HW235799  11.634  10.621   9.901  0.7304  0.2105  0.7494
42980SOL     OW35800   8.019   2.751   1.318 -0.1029  0.7292  0.1576
42980SOL    HW135801   8.084   2.802   1.367  0.1643  0.1324  0.4357
42980SOL    HW235802   8.032   2.661   1.348 -0.0490  0.3777 -0.8803
42981SOL     OW35803   0.849   7.018  12.360  0.2865 -0.3496  0.6384
42981SOL    HW135804   0.772   6.967  12.336 -0.3652  0.5357  0.7702
42981SOL    HW235805   0.912   7.003  12.290  0.2923 -1.6799  0.9063
42982SOL     OW35806   8.096   3.740  10.776  0.2349  0.3396  0.5779
42982SOL    HW135807   8.008   3.710  10.799  0.1976  0.4136  0.5309
42982SOL    HW235808   8.121   3.685  10.701  0.5922 -0.3131  1.1601
42983SOL     OW35809   1.487   0.378  10.950 -0.4404  0.3676 -0.2914
42983SOL    HW135810   1.565   0.324  10.947  0.9590  2.2736  0.1720
42983SOL    HW235811   1.482   0.419  10.864 -1.1269  0.0293 -0.4248
42984SOL     OW35812   8.865   3.265   9.636  0.1952  0.4285 -0.6674
42984SOL    HW135813   8.817   3.282   9.717 -1.4004  0.4126 -1.5677
42984SOL    HW235814   8.882   3.171   9.638 -0.1373  0.3698 -0.5058
42985SOL     OW35815   7.418   4.861   0.962 -0.1950  0.0819  0.3344
42985SOL    HW135816   7.391   4.903   0.880 -0.9068  0.8917  0.9737
42985SOL    HW235817   7.429   4.769   0.939  2.0107  0.6627 -1.2581
42986SOL     OW35818   0.108   3.773   0.011 -0.7600 -0.0567 -0.1521
42986SOL    HW135819   0.051   3.718   0.065  0.0405 -0.2025  0.5696
42986SOL    HW235820   0.135   3.716  -0.061  1.5759 -1.3088  1.5801
42987SOL     OW35821   0.924   0.240   3.884 -0.5917 -0.0402 -0.3676
42987SOL    HW135822   0.921   0.328   3.846  1.1882  1.7806  3.2343
42987SOL    HW235823   0.841   0.232   3.931  0.0699  0.5879  0.9390
42988SOL     OW35824   8.050   2.956   9.362 -0.1542  0.7041 -0.2035
42988SOL    HW135825   7.996   2.993   9.292 -2.2520 -0.4836  0.6786
42988SOL    HW235826   8.043   3.019   9.434  1.8493  1.8330 -0.9334
42989SOL     OW35827   7.236   1.857   8.271  0.1717  0.5093  0.0699
42989SOL    HW135828   7.169   1.909   8.227 -0.2376 -0.8141 -0.9031
42989SOL    HW235829   7.191   1.777   8.299  0.9447  0.3688  0.9800
42990SOL     OW35830   7.428  12.104   3.831 -0.1752 -0.1569  0.2905
42990SOL    HW135831   7.420  12.073   3.741 -1.4540  1.5444 -0.2272
42990SOL    HW235832   7.486  12.040   3.873  0.3133 -1.0872 -1.6739
42991SOL     OW35833   9.881   4.595   8.631 -0.0366 -0.3795 -0.5589
42991SOL    HW135834   9.949   4.543   8.589 -0.9757 -0.6137 -1.8504
42991SOL    HW235835   9.860   4.663   8.567  0.1854  0.7521  0.5298
42992SOL     OW35836  11.009   0.608   3.216 -0.4140 -0.0210  0.5085
42992SOL    HW135837  11.011   0.578   3.125 -1.6994 -0.1324  0.4960
42992SOL    HW235838  11.101   0.618   3.241 -0.0537  0.8060 -1.0620
42993SOL     OW35839   0.640   5.162   3.501 -0.2474 -0.2009 -0.1103
42993SOL    HW135840   0.630   5.190   3.410  0.7224  0.4027 -0.0438
42993SOL    HW235841   0.701   5.225   3.539 -0.1883 -0.7900  0.8034
42994SOL     OW35842   4.932  10.242   3.230  0.0007  0.4290 -0.1883
42994SOL    HW135843   4.934  10.188   3.309  1.1677  2.4830  1.2981
42994SOL    HW235844   4.933  10.180   3.157 -0.8686 -1.5336  1.3914
42995SOL     OW35845   1.073   2.879   1.876 -0.2609 -0.7493  0.0584
42995SOL    HW135846   1.029   2.846   1.954 -0.2794 -1.2273 -0.1484
42995SOL    HW235847   1.006   2.879   1.808 -0.2009 -0.5018 -0.0020
42996SOL     OW35848   1.254  10.821   8.026  0.4074  1.0284  0.1470
42996SOL    HW135849   1.181  10.777   7.982  1.5633 -0.5481 -0.3107
42996SOL    HW235850   1.252  10.911   7.993 -1.3494  1.0503  0.2224
42997SOL     OW35851   5.845   9.597   0.697  0.3151  0.2778 -0.6360
42997SOL    HW135852   5.838   9.557   0.783 -2.1076 -1.3154 -1.4980
42997SOL    HW235853   5.917   9.550   0.655  1.4567  1.0083  0.4226
42998SOL     OW35854   6.991   3.444  11.898 -0.1796  0.3940  0.9057
42998SOL    HW135855   7.029   3.466  11.812 -1.8906  0.4400  0.1250
42998SOL    HW235856   6.943   3.523  11.923  1.0158  0.7113  2.3719
42999SOL     OW35857   3.599   8.728   4.352 -0.5884  0.0386 -0.5797
42999SOL    HW135858   3.573   8.646   4.396  0.0998  0.3683  0.4936
42999SOL    HW235859   3.528   8.746   4.291 -1.5637 -0.4820  0.3629
43000SOL     OW35860  10.654   3.319   6.110 -0.2272  0.3269  0.0716
43000SOL    HW135861  10.654   3.400   6.059 -0.1464  0.8943  0.9518
43000SOL    HW235862  10.575   3.325   6.164 -0.0412 -0.0161  0.3841
43001SOL     OW35863  10.206   3.623   5.887  0.3963  0.2358 -0.3114
43001SOL    HW135864  10.132   3.592   5.834  1.0604  1.4128 -2.0294
43001SOL    HW235865  10.198   3.718   5.885  1.4541  0.3450  0.2260
43002SOL     OW35866  10.357  10.773   7.315 -0.6113  0.0705  0.6000
43002SOL    HW135867  10.306  10.705   7.272  0.3163 -0.6083  0.5319
43002SOL    HW235868  10.354  10.848   7.256 -0.5422 -0.3681  0.0408
43003SOL     OW35869   4.540   1.454   3.730  0.4058 -0.1286  0.1835
43003SOL    HW135870   4.555   1.410   3.646 -0.1918 -0.4586  0.2436
43003SOL    HW235871   4.559   1.546   3.712 -2.4977  0.3212 -1.1236
43004SOL     OW35872   0.284  11.800   2.730 -0.0719 -0.2272  0.6711
43004SOL    HW135873   0.220  11.730   2.741 -1.9611  1.4759  1.1468
43004SOL    HW235874   0.368  11.758   2.746 -1.1291 -2.3438  1.0615
43005SOL     OW35875  12.033   8.684   8.566 -0.2407  0.5623 -0.0224
43005SOL    HW135876  12.077   8.640   8.493  2.0626  1.9256  0.4384
43005SOL    HW235877  11.947   8.642   8.571  0.9105 -2.1622 -1.1139
43006SOL     OW35878  11.261   6.490   4.468 -0.3361 -0.0793 -0.0137
43006SOL    HW135879  11.337   6.545   4.450 -0.5079  0.1781  0.0457
43006SOL    HW235880  11.293   6.401   4.456 -0.7664  0.0772 -2.8827
43007SOL     OW35881  11.549   8.105   5.053 -0.0956 -0.2601 -0.1104
43007SOL    HW135882  11.513   8.049   5.122  2.5122 -0.6584  1.0304
43007SOL    HW235883  11.609   8.048   5.004  0.2393  0.7546 -0.9286
43008SOL     OW35884   9.217  10.483  10.976 -0.0942 -0.3104  0.0284
43008SOL    HW135885   9.161  10.531  10.914 -0.1701  0.0242  0.3486
43008SOL    HW235886   9.293  10.540  10.988 -0.4238 -0.0238  0.8073
43009SOL     OW35887  10.550   3.621   8.780 -0.5046  0.2769  0.2543
43009SOL    HW135888  10.527   3.710   8.756 -0.0904  0.9135  2.0461
43009SOL    HW235889  10.504   3.566   8.717 -2.7133  1.6653  0.5750
43010SOL     OW35890   9.992   0.135   9.925  0.1301  0.2526  0.1157
43010SOL    HW135891   9.984   0.166  10.016 -0.7020 -0.3636  0.2559
43010SOL    HW235892   9.904   0.143   9.889  0.3685  0.0873 -0.5132
43011SOL     OW35893   7.486   6.571   3.960 -0.6846 -0.0846 -0.3864
43011SOL    HW135894   7.445   6.489   3.933  2.3784 -1.0625 -2.6937
43011SOL    HW235895   7.465   6.633   3.890 -1.2630  0.5166  0.3016
43012SOL     OW35896  10.360   6.875   2.744  0.4634  0.3009  0.2825
43012SOL    HW135897  10.414   6.953   2.753  0.8133  0.3829 -1.8351
43012SOL    HW235898  10.338   6.850   2.833  0.9981  2.3512  1.0481
43013SOL     OW35899   0.755   0.773  11.971  0.6317 -0.3636 -0.7960
43013SOL    HW135900   0.750   0.713  11.896  1.7592 -0.2886 -0.9473
43013SOL    HW235901   0.822   0.736  12.027 -0.7721 -0.8691  0.6220
43014SOL     OW35902   0.384   8.633   1.826  0.0423  0.2022  0.0594
43014SOL    HW135903   0.474   8.611   1.849  0.2131 -1.4203 -1.8910
43014SOL    HW235904   0.334   8.553   1.844 -1.6458  1.8456  3.6898
43015SOL     OW35905  10.159   1.988   9.700  0.2807 -0.5207 -0.0082
43015SOL    HW135906  10.173   2.082   9.716  0.5812 -0.5176 -0.2701
43015SOL    HW235907  10.140   1.983   9.606 -0.0700 -0.6849  0.0727
43016SOL     OW35908   5.936   5.946   1.937  0.0290 -0.0473 -0.2611
43016SOL    HW135909   5.924   5.916   1.847  0.5843  0.4676 -0.5106
43016SOL    HW235910   5.900   6.035   1.938  0.5833  0.1788 -0.1331
43017SOL     OW35911   0.370  11.867   3.610 -0.0343  0.3607 -0.0766
43017SOL    HW135912   0.460  11.840   3.630 -0.1021 -0.0498 -0.3026
43017SOL    HW235913   0.373  11.889   3.517 -0.3501 -0.4587 -0.2918
43018SOL     OW35914   3.299   3.318  12.457 -0.5260  0.3446 -0.2259
43018SOL    HW135915   3.344   3.298  12.539 -1.1607  0.4311  0.1502
43018SOL    HW235916   3.354   3.279  12.389 -0.7602 -1.0317  0.3436
43019SOL     OW35917   8.967   5.836  12.033 -0.1664 -0.1947  0.2241
43019SOL    HW135918   8.889   5.788  12.062 -0.9077  1.2565  0.7795
43019SOL    HW235919   9.016   5.852  12.113  0.7474 -1.1433 -0.1336
43020SOL     OW35920   8.352  11.930   3.866  0.2448  0.2223  0.0335
43020SOL    HW135921   8.383  11.934   3.957 -0.0553 -0.7470  0.1954
43020SOL    HW235922   8.424  11.888   3.818  0.0511 -0.0787  0.0006
43021SOL     OW35923   5.776  10.393   5.322 -0.0559  0.0190 -0.0637
43021SOL    HW135924   5.737  10.310   5.350  0.6678 -0.3081 -0.0134
43021SOL    HW235925   5.758  10.398   5.229  0.7079 -0.6502 -0.2582
43022SOL     OW35926   8.795   6.879   5.529  0.1696  0.6096  0.1908
43022SOL    HW135927   8.857   6.876   5.456 -0.7566  2.2332 -0.7393
43022SOL    HW235928   8.746   6.960   5.515 -1.8995 -0.4110  1.1047
43023SOL     OW35929   6.726   0.932  11.975 -0.4640  0.1867 -0.8283
43023SOL    HW135930   6.804   0.879  11.959 -0.4561 -0.3913  0.8893
43023SOL    HW235931   6.655   0.886  11.931 -0.4219 -1.1912  0.4806
43024SOL     OW35932   4.093   3.468  10.251  0.5391  0.1947  0.5798
43024SOL    HW135933   4.109   3.552  10.294 -0.8400  0.0958  1.3225
43024SOL    HW235934   4.148   3.471  10.173  0.1252  2.0058  0.3111
43025SOL     OW35935   5.692   0.661   6.393 -0.0509  0.4383  0.2684
43025SOL    HW135936   5.626   0.594   6.373  1.4270 -0.5972 -1.5109
43025SOL    HW235937   5.664   0.738   6.343 -1.5970  1.1252  2.0880
43026SOL     OW35938   9.470   9.539   7.105  0.0507  0.2615 -0.6182
43026SOL    HW135939   9.392   9.490   7.131  1.4327 -1.9499 -0.3334
43026SOL    HW235940   9.507   9.571   7.187  0.4167 -0.3015 -0.5562
43027SOL     OW35941   9.027   9.628  10.550  0.0427 -0.2140  0.2238
43027SOL    HW135942   9.109   9.625  10.501  0.7570  5.7437  0.4051
43027SOL    HW235943   8.959   9.621  10.483  0.8767  1.1048 -0.8013
43028SOL     OW35944   5.911  11.340   7.236 -0.4612  0.3129  0.0462
43028SOL    HW135945   5.996  11.351   7.193 -1.0966  0.5917 -1.1852
43028SOL    HW235946   5.847  11.357   7.167 -1.5297  0.8320  1.1292
43029SOL     OW35947   6.045   1.133  12.454 -0.7765 -0.2652 -0.1438
43029SOL    HW135948   6.035   1.227  12.473  0.1682 -0.1011 -0.3600
43029SOL    HW235949   6.108   1.131  12.382 -0.0645 -1.1071  0.4790
43030SOL     OW35950  11.913   7.772   8.641 -0.1910  0.0987  0.5735
43030SOL    HW135951  11.898   7.700   8.703  2.8795 -0.7714  0.4532
43030SOL    HW235952  11.914   7.730   8.555  0.7493  0.4172  0.4212
43031SOL     OW35953  10.433   6.689  10.431 -0.0902 -0.0820  0.2842
43031SOL    HW135954  10.480   6.756  10.381 -0.9858 -0.3345 -0.9263
43031SOL    HW235955  10.462   6.606  10.393 -2.4925 -0.2101 -1.4373
43032SOL     OW35956   2.330   7.610  11.802  0.2414 -0.5814 -0.2972
43032SOL    HW135957   2.345   7.517  11.789  0.1711 -0.6995  0.4163
43032SOL    HW235958   2.400   7.637  11.862 -0.3406 -0.4072  0.3254
43033SOL     OW35959   0.388   7.575   9.093  0.1399  0.3948  0.6612
43033SOL    HW135960   0.324   7.647   9.098  0.9735  1.2125 -0.2036
43033SOL    HW235961   0.392   7.552   9.000  1.8045  1.0196  0.5438
43034SOL     OW35962   5.242   2.755   5.883  0.0270 -0.0128  0.1382
43034SOL    HW135963   5.276   2.816   5.948  0.5862 -0.3836  0.2036
43034SOL    HW235964   5.195   2.810   5.820  0.3462  0.4595  0.3080
43035SOL     OW35965   4.921   6.501   8.037  0.1067  0.3466  0.1977
43035SOL    HW135966   4.862   6.508   8.112  0.5337 -3.3657  1.0661
43035SOL    HW235967   4.886   6.428   7.985  1.6566  0.7106 -1.4839
43036SOL     OW35968   4.229   1.547   9.161 -0.7726  0.2004  0.3228
43036SOL    HW135969   4.260   1.478   9.103 -0.7736 -0.2107  0.8131
43036SOL    HW235970   4.166   1.596   9.108  0.4961  0.8944 -0.6071
43037SOL     OW35971   0.759   9.122   3.362 -0.3038  0.5383  0.1077
43037SOL    HW135972   0.723   9.197   3.315 -0.0757  1.1632  0.9026
43037SOL    HW235973   0.683   9.068   3.383 -0.4511  0.4622 -0.6063
43038SOL     OW35974   3.921   2.180  11.694 -0.3730 -0.6560  0.1579
43038SOL    HW135975   3.931   2.157  11.786 -1.2265 -0.7273  0.2371
43038SOL    HW235976   3.834   2.219  11.688 -0.3317 -0.6690 -0.6193
43039SOL     OW35977   3.600   9.235   7.357  0.0038  0.2013 -0.9244
43039SOL    HW135978   3.667   9.282   7.406  1.6217 -3.1443  0.3644
43039SOL    HW235979   3.517   9.270   7.390  1.0778  0.1328  2.2035
43040SOL     OW35980   7.974   0.409  11.412 -0.2200  0.1800  0.6881
43040SOL    HW135981   7.972   0.407  11.316  1.4115  2.0577  0.5521
43040SOL    HW235982   8.042   0.347  11.436  0.4726  0.8638  0.5234
43041SOL     OW35983  11.510  11.902  11.097  0.1411 -0.4710 -0.0352
43041SOL    HW135984  11.539  11.880  11.186 -1.7062 -1.3242  0.4078
43041SOL    HW235985  11.577  11.865  11.040  0.8967 -0.7012  0.9668
43042SOL     OW35986   4.557   8.904   3.636  0.2700  0.1323  0.1510
43042SOL    HW135987   4.639   8.861   3.659  0.8216  0.2933 -1.3561
43042SOL    HW235988   4.489   8.847   3.670  0.9836 -1.5541 -1.1202
43043SOL     OW35989   9.901   7.180   4.505  0.1031 -0.4306 -0.0505
43043SOL    HW135990   9.974   7.147   4.557  0.0846  0.8378  0.8473
43043SOL    HW235991   9.825   7.174   4.564  0.3824  2.5630  0.7703
43044SOL     OW35992   6.885   2.707   1.728 -0.0310  0.2787  0.4383
43044SOL    HW135993   6.907   2.799   1.714 -0.3588 -0.0952 -3.7367
43044SOL    HW235994   6.797   2.697   1.693 -0.1000 -1.6073  1.0068
43045SOL     OW35995   9.538   0.929   3.091  0.2293  0.1206 -0.2133
43045SOL    HW135996   9.565   0.850   3.138 -2.6927  0.6103  2.6030
43045SOL    HW235997   9.574   1.001   3.142 -1.1196  0.6466  0.0306
43046SOL     OW35998   9.079  10.066   4.337  0.4742 -0.2964  0.2202
43046SOL    HW135999   8.995  10.087   4.296  1.2638 -0.7485 -1.7588
43046SOL    HW236000   9.115  10.151   4.363 -0.0104  0.0147 -0.1111
43047SOL     OW36001   5.414   8.848   9.916 -0.0167 -0.3616  0.3250
43047SOL    HW136002   5.473   8.871   9.844 -1.5805  1.0063 -0.6111
43047SOL    HW236003   5.345   8.797   9.873 -0.9657  0.4646  0.8425
43048SOL     OW36004  10.816  11.879   4.619 -0.3378  0.0510  0.5809
43048SOL    HW136005  10.809  11.965   4.660 -0.5345  0.2978  0.0413
43048SOL    HW236006  10.726  11.854   4.598 -0.3990 -0.8194  1.7906
43049SOL     OW36007   4.981   4.351   0.309  0.3994  0.1046 -0.1443
43049SOL    HW136008   5.024   4.284   0.256  2.0380  0.8861  0.1478
43049SOL    HW236009   5.052   4.407   0.339 -0.8255  1.3690  0.4844
43050SOL     OW36010   7.891   8.389   4.765  0.3068  0.2910  0.1556
43050SOL    HW136011   7.953   8.462   4.758  0.2012  0.4466  0.7980
43050SOL    HW236012   7.867   8.387   4.857  0.2410 -0.5122  0.1235
43051SOL     OW36013  10.011   4.268   6.314  0.6740  0.1269 -0.0982
43051SOL    HW136014  10.076   4.245   6.381  0.6621 -1.0025 -0.4573
43051SOL    HW236015   9.962   4.187   6.299 -0.9140  0.9875  0.2416
43052SOL     OW36016   4.297  11.175  10.137  0.3485  0.1612 -0.3818
43052SOL    HW136017   4.216  11.227  10.136 -0.5189 -1.0859  0.5263
43052SOL    HW236018   4.345  11.203  10.060 -0.3325  1.8953 -0.2147
43053SOL     OW36019   6.563  10.594   2.554 -0.0519 -0.5561  0.1755
43053SOL    HW136020   6.481  10.544   2.548 -1.9240  2.4446 -2.1753
43053SOL    HW236021   6.614  10.565   2.479  0.4500 -1.3743  0.8129
43054SOL     OW36022  12.031   7.073  10.851 -0.0002 -0.2226  0.2133
43054SOL    HW136023  12.012   7.158  10.891 -1.0802 -0.5627  0.4669
43054SOL    HW236024  11.963   7.062  10.784 -0.5921 -1.3846  0.9649
43055SOL     OW36025   3.021   4.696   9.962 -0.5019  0.7164 -0.1631
43055SOL    HW136026   3.109   4.701   9.924  0.5835 -1.1640  1.8384
43055SOL    HW236027   2.976   4.773   9.928  2.2037  2.2662 -0.5895
43056SOL     OW36028  11.431   8.539   0.571 -0.2662  0.1179 -0.0588
43056SOL    HW136029  11.518   8.512   0.541 -1.1087 -1.7591 -0.9741
43056SOL    HW236030  11.404   8.606   0.509 -0.2718 -0.7404 -1.0061
43057SOL     OW36031  10.367  11.913   1.229 -0.1861  0.2252 -0.3532
43057SOL    HW136032  10.367  11.917   1.133  0.0558  1.9755 -0.3196
43057SOL    HW236033  10.296  11.853   1.251  0.8785 -1.5709 -1.6409
43058SOL     OW36034   8.343  10.716  10.240 -0.3349 -0.3966  0.5149
43058SOL    HW136035   8.260  10.751  10.272  0.3691 -0.2719  2.3043
43058SOL    HW236036   8.376  10.663  10.312  0.5848 -1.4241 -0.6207
43059SOL     OW36037   4.672   7.433   6.418  0.2762 -0.6876  0.1220
43059SOL    HW136038   4.760   7.413   6.450  0.9832 -0.7044 -1.7093
43059SOL    HW236039   4.652   7.362   6.357 -1.0554 -0.7256  0.5741
43060SOL     OW36040   1.746   4.371   8.090  0.3759 -0.4098  0.3837
43060SOL    HW136041   1.670   4.313   8.098 -0.0543  0.2736  1.5443
43060SOL    HW236042   1.812   4.331   8.146 -0.0742  0.4177  1.5491
43061SOL     OW36043   0.482   1.369   2.702 -0.2659 -0.5956  0.3006
43061SOL    HW136044   0.447   1.344   2.788  0.3260  0.1920  0.7786
43061SOL    HW236045   0.405   1.376   2.646 -0.7081 -0.5697  0.9041
43062SOL     OW36046  10.733   7.778   6.700  0.1757  0.0772 -0.5962
43062SOL    HW136047  10.640   7.783   6.681  0.3277 -0.0648 -1.4174
43062SOL    HW236048  10.739   7.788   6.795 -0.9969 -3.6929  0.0297
43063SOL     OW36049  12.079   1.183   3.803 -0.1866 -0.5411  0.5186
43063SOL    HW136050  12.153   1.162   3.860 -0.4144 -0.4547  0.8497
43063SOL    HW236051  12.027   1.103   3.800 -0.0979 -0.5914  0.3130
43064SOL     OW36052   9.157  10.978   6.576 -0.5579 -0.0803  0.5728
43064SOL    HW136053   9.175  11.032   6.499 -0.5615 -0.4922  0.2835
43064SOL    HW236054   9.134  10.892   6.541 -1.7112  0.0407  0.9926
43065SOL     OW36055   9.846   6.303   6.487 -0.0271 -0.0324 -0.2074
43065SOL    HW136056   9.754   6.311   6.462 -0.5130  1.1316  1.7999
43065SOL    HW236057   9.883   6.390   6.470  0.1437  0.1500  1.0468
43066SOL     OW36058   2.453   0.830   2.594 -0.1503 -0.5428 -0.0248
43066SOL    HW136059   2.467   0.782   2.676 -1.9613  0.5411  0.9675
43066SOL    HW236060   2.406   0.768   2.538 -0.7461 -0.6081  0.5326
43067SOL     OW36061   5.569   0.487   4.422 -0.1735  0.2760 -0.1571
43067SOL    HW136062   5.532   0.457   4.339  1.1920  1.4243 -1.2318
43067SOL    HW236063   5.518   0.441   4.489 -0.1911 -2.0306 -1.6289
43068SOL     OW36064   5.367   7.628   3.010 -0.4235 -0.5936 -0.9608
43068SOL    HW136065   5.398   7.560   2.949  0.3352 -1.9436  0.8402
43068SOL    HW236066   5.274   7.610   3.020 -0.1842 -1.5494 -0.3171
43069SOL     OW36067  10.839  11.155  12.075  0.1720 -0.4386 -0.3861
43069SOL    HW136068  10.835  11.124  11.984 -0.3714 -0.7277 -0.2677
43069SOL    HW236069  10.767  11.217  12.082  1.5979  1.3596 -0.7921
43070SOL     OW36070   9.949   5.767   9.287 -0.2118  0.2697  0.4759
43070SOL    HW136071  10.000   5.687   9.279  0.0477  0.6365 -2.4981
43070SOL    HW236072   9.868   5.749   9.239 -1.7860  0.6436  2.8034
43071SOL     OW36073  10.280   5.698   0.294 -0.7024 -0.1817  0.2570
43071SOL    HW136074  10.248   5.692   0.384  0.4722  1.0871  0.8092
43071SOL    HW236075  10.251   5.784   0.264  0.4396  0.1691  0.0852
43072SOL     OW36076   6.631   1.600   3.017 -0.2971  0.2014 -0.2385
43072SOL    HW136077   6.706   1.639   3.062 -1.6728  3.1646 -0.2674
43072SOL    HW236078   6.611   1.522   3.067  2.7144 -0.6757 -0.2041
43073SOL     OW36079   1.018   9.200   5.456  0.1220 -0.4498 -0.3788
43073SOL    HW136080   1.052   9.111   5.456 -2.9805 -1.8064 -1.5016
43073SOL    HW236081   0.988   9.215   5.546  1.1552 -0.2715 -0.0497
43074SOL     OW36082   1.491   5.056   6.037 -0.7100 -0.7223 -0.1111
43074SOL    HW136083   1.569   5.012   6.002 -0.8536 -1.0456 -0.0274
43074SOL    HW236084   1.419   5.021   5.985 -0.6026  0.9851 -1.5040
43075SOL     OW36085   7.352   2.200   3.712  0.0236 -0.4525 -0.6910
43075SOL    HW136086   7.448   2.198   3.705  0.1009 -3.3871 -0.2149
43075SOL    HW236087   7.333   2.275   3.767  2.0044  0.5100 -1.2339
43076SOL     OW36088   7.583   6.725   3.642  0.1435 -0.4689  0.0083
43076SOL    HW136089   7.496   6.707   3.678 -0.3243 -1.4682 -1.5411
43076SOL    HW236090   7.627   6.776   3.710 -0.7440 -2.1056  1.9160
43077SOL     OW36091   3.824   5.767   1.706  0.1009 -0.3813 -0.3138
43077SOL    HW136092   3.749   5.763   1.647 -0.3802  0.0429  0.2503
43077SOL    HW236093   3.900   5.755   1.650 -0.2847  0.9876 -1.1701
43078SOL     OW36094   2.145   8.032  11.886 -0.3481  0.1013  0.2293
43078SOL    HW136095   2.166   8.124  11.869 -2.2639  0.5014 -0.2246
43078SOL    HW236096   2.113   8.000  11.802 -0.2647 -0.8150  0.5423
43079SOL     OW36097   2.570   3.688  10.203  0.1917  0.0525 -0.0152
43079SOL    HW136098   2.570   3.781  10.181 -0.7143  0.2114  0.6143
43079SOL    HW236099   2.480   3.669  10.228  0.7706 -0.5634  1.7117
43080SOL     OW36100   3.076   7.057   1.883 -0.2467  0.0073  0.4043
43080SOL    HW136101   3.065   7.137   1.831 -0.2801  1.0781  1.9724
43080SOL    HW236102   3.137   7.082   1.952 -0.6735 -1.1698  1.2352
43081SOL     OW36103   6.750   7.729   9.100  0.3314 -0.4134 -0.4034
43081SOL    HW136104   6.766   7.797   9.036 -0.2514 -0.9300 -1.1221
43081SOL    HW236105   6.663   7.694   9.077  0.6367 -1.4202 -0.0888
43082SOL     OW36106   8.427   3.242  12.145 -0.2192  0.3150  0.2679
43082SOL    HW136107   8.420   3.152  12.114  0.7280  0.5766 -0.7755
43082SOL    HW236108   8.347   3.285  12.114 -0.1519  0.1093 -0.1844
43083SOL     OW36109  12.030   9.742   9.855  0.3924 -0.1211 -0.0928
43083SOL    HW136110  12.114   9.703   9.882  1.3013  1.1931 -0.9329
43083SOL    HW236111  11.984   9.758   9.938  0.3409 -2.1108  0.3302
43084SOL     OW36112   8.440  11.958  10.609 -0.0514  0.0105  0.2904
43084SOL    HW136113   8.512  11.912  10.652 -0.2550 -0.5187  0.0774
43084SOL    HW236114   8.458  12.051  10.624 -0.8159 -0.1627  2.6490
43085SOL     OW36115   5.518   3.192   3.366 -0.2906 -0.2163  0.3643
43085SOL    HW136116   5.576   3.120   3.343  1.1764  0.9520  0.3048
43085SOL    HW236117   5.576   3.266   3.384 -1.6054  0.2620  3.1246
43086SOL     OW36118  11.069   8.948   1.450  0.1496  0.0217  0.0304
43086SOL    HW136119  11.112   9.034   1.448 -0.5808  0.3893 -0.5595
43086SOL    HW236120  10.990   8.960   1.397  0.5596 -1.3077 -0.9135
43087SOL     OW36121   6.716  11.907  10.120  0.2966  0.3933 -0.4013
43087SOL    HW136122   6.762  11.897  10.204  0.1724 -3.5241 -0.6466
43087SOL    HW236123   6.787  11.920  10.057  0.8423 -1.4487 -0.2353
43088SOL     OW36124   5.992  12.063   9.180  0.3118  0.1486 -0.3017
43088SOL    HW136125   5.946  12.050   9.263 -0.3475 -2.0204 -0.9207
43088SOL    HW236126   6.084  12.057   9.203  0.5280  4.7390  0.9863
43089SOL     OW36127   9.521   9.431   4.274  0.1767 -0.2398 -0.2411
43089SOL    HW136128   9.445   9.480   4.242  1.4248  0.4661 -2.3035
43089SOL    HW236129   9.540   9.368   4.205  0.3498 -1.7103  1.1085
43090SOL     OW36130   0.020  12.082   7.624 -0.0733 -0.6344 -0.0962
43090SOL    HW136131   0.076  12.035   7.685  1.1030  0.8121 -0.0237
43090SOL    HW236132   0.021  12.029   7.544  1.6783 -0.4766 -0.2026
43091SOL     OW36133   7.679   4.881   6.527  0.2582 -0.0469 -0.1905
43091SOL    HW136134   7.739   4.954   6.544  0.2448 -0.5320  2.3419
43091SOL    HW236135   7.736   4.805   6.516  0.1915 -0.1117 -0.0940
43092SOL     OW36136   6.524   2.058   3.449  0.2541  0.5231  0.4959
43092SOL    HW136137   6.511   2.024   3.360  1.2129 -0.8064  0.8247
43092SOL    HW236138   6.437   2.082   3.479 -0.4044 -1.0769 -0.0272
43093SOL     OW36139   3.488  12.124   8.546 -0.0265  0.2367  0.1056
43093SOL    HW136140   3.395  12.113   8.527 -0.2327  1.3720  0.3948
43093SOL    HW236141   3.494  12.119   8.642  0.3009 -0.4462  0.0540
43094SOL     OW36142   8.956   7.961   5.923  0.0823 -0.7124 -0.0506
43094SOL    HW136143   8.881   7.909   5.950 -0.2368  0.2816  1.1030
43094SOL    HW236144   8.964   7.946   5.829 -0.8576 -1.7061  0.0070
43095SOL     OW36145   5.735   4.892   9.858  0.6981 -0.0582 -0.3068
43095SOL    HW136146   5.830   4.889   9.867  0.5158 -0.1102  2.4955
43095SOL    HW236147   5.706   4.949   9.929 -1.4016 -0.7212 -0.5714
43096SOL     OW36148  10.628   5.484  12.408 -0.3438 -0.9931 -0.2885
43096SOL    HW136149  10.538   5.512  12.394 -0.5494 -1.8522 -0.7837
43096SOL    HW236150  10.676   5.564  12.428 -1.4205 -0.6577  1.0751
43097SOL     OW36151   1.424   1.640   9.506  0.0837  0.0937 -0.0393
43097SOL    HW136152   1.374   1.701   9.452 -0.3468  1.3007  1.6588
43097SOL    HW236153   1.360   1.578   9.539 -0.0351  0.6026  0.7253
43098SOL     OW36154   5.066   7.837   5.814  0.5532  0.1595  0.3572
43098SOL    HW136155   5.142   7.829   5.870  0.5865 -0.1708  0.2670
43098SOL    HW236156   5.035   7.927   5.828  0.4525  0.0208  1.0355
43099SOL     OW36157   7.222   0.998   9.383  0.4973 -0.3405 -0.4820
43099SOL    HW136158   7.311   1.034   9.388  1.3004 -2.2846  0.0975
43099SOL    HW236159   7.223   0.924   9.444 -1.3975 -0.6543 -0.7952
43100SOL     OW36160   0.207   4.191   0.423 -0.4433  0.2787  0.2786
43100SOL    HW136161   0.280   4.187   0.486  0.1061 -0.0218 -0.3643
43100SOL    HW236162   0.192   4.099   0.399 -0.5280  0.4052 -0.1585
43101SOL     OW36163   0.191   4.070  11.400 -0.7323 -0.3534 -0.1935
43101SOL    HW136164   0.150   4.015  11.332 -0.6792 -0.7268  0.0749
43101SOL    HW236165   0.278   4.033  11.411 -1.1786 -1.0993  0.9859
43102SOL     OW36166   3.331   5.882   4.829  0.0385  0.0743 -0.3934
43102SOL    HW136167   3.346   5.838   4.746 -2.0707 -1.3560 -0.0848
43102SOL    HW236168   3.366   5.822   4.895 -0.7477 -0.0988 -0.1158
43103SOL     OW36169   4.956  11.873   9.384 -0.1167  0.3528 -0.2968
43103SOL    HW136170   4.987  11.879   9.293  0.7553  0.0670 -0.0329
43103SOL    HW236171   4.943  11.779   9.398 -0.4728  0.4156 -0.1956
43104SOL     OW36172   9.249   1.716   2.782 -0.1664 -0.0030  0.2648
43104SOL    HW136173   9.280   1.755   2.700  0.6389 -1.6980 -0.3010
43104SOL    HW236174   9.239   1.789   2.842  1.3391  1.0438 -0.6989
43105SOL     OW36175   3.301   2.176   2.827  0.5634 -0.2808 -0.1512
43105SOL    HW136176   3.352   2.246   2.870  0.1548 -0.9894  1.5610
43105SOL    HW236177   3.349   2.096   2.848 -0.6878 -0.8455  0.6312
43106SOL     OW36178   8.148   8.280   3.977  0.7020 -0.1606 -0.2826
43106SOL    HW136179   8.069   8.298   3.925 -0.0954 -1.3900  0.4576
43106SOL    HW236180   8.115   8.257   4.064  2.0357  2.8086  1.1613
43107SOL     OW36181   1.500   2.793   0.506 -0.1889  0.0201  0.4464
43107SOL    HW136182   1.535   2.841   0.430  1.8627 -2.8955 -0.5966
43107SOL    HW236183   1.417   2.756   0.474 -0.2984  0.3869  0.2943
43108SOL     OW36184   7.452   2.353   7.298  0.2959 -0.2054 -0.5462
43108SOL    HW136185   7.430   2.261   7.282 -0.8458  0.2875 -2.0515
43108SOL    HW236186   7.448   2.394   7.211 -1.8395  1.7928  0.3788
43109SOL     OW36187   9.997   7.434   4.313 -0.3748  0.5204  0.1018
43109SOL    HW136188  10.002   7.348   4.271  0.6615  0.7410 -0.2442
43109SOL    HW236189  10.051   7.490   4.258  0.2393  1.0383  1.2222
43110SOL     OW36190   3.307   6.236   2.218 -0.9089 -0.1520  0.4597
43110SOL    HW136191   3.401   6.245   2.237 -0.6816 -1.3461 -0.0215
43110SOL    HW236192   3.273   6.185   2.291 -1.2236  0.3802  0.6943
43111SOL     OW36193   1.519   0.628   2.435 -0.1790  0.2563  0.7451
43111SOL    HW136194   1.425   0.610   2.425 -0.2884  0.9244  0.4506
43111SOL    HW236195   1.528   0.654   2.527 -0.2931  0.2380  0.7619
43112SOL     OW36196   9.684   1.684   1.901 -0.5758  0.0084  0.4865
43112SOL    HW136197   9.673   1.604   1.954  0.5425 -1.4040 -1.2744
43112SOL    HW236198   9.704   1.651   1.813  1.7745  2.2098  0.0840
43113SOL     OW36199  10.904  10.952   2.117 -0.2781  0.2322  0.1626
43113SOL    HW136200  10.904  11.041   2.151 -0.7523 -0.1639  1.2549
43113SOL    HW236201  10.995  10.935   2.093 -0.1975  1.0223 -0.1104
43114SOL     OW36202   3.728  12.010   9.501 -0.0201 -0.2657 -0.0749
43114SOL    HW136203   3.686  12.009   9.416  0.3245  0.2635 -0.2618
43114SOL    HW236204   3.793  12.081   9.495 -1.0260  0.8156  1.1215
43115SOL     OW36205   0.540  11.195   4.293  0.0123 -0.1312  0.2006
43115SOL    HW136206   0.562  11.185   4.386 -0.5049 -0.8487  0.2507
43115SOL    HW236207   0.572  11.283   4.271  1.1142 -0.3646  0.7686
43116SOL     OW36208   1.823  11.226   0.179 -0.4818 -0.5437  0.9384
43116SOL    HW136209   1.905  11.185   0.152 -0.1598 -0.1842  1.3673
43116SOL    HW236210   1.769  11.153   0.210 -1.1112 -1.0781 -1.2070
43117SOL     OW36211  11.845  10.100   8.073  0.0554 -0.4016  0.5763
43117SOL    HW136212  11.859  10.098   8.167 -1.0436 -2.2899  0.7540
43117SOL    HW236213  11.750  10.100   8.062  0.1616 -0.7383 -0.5180
43118SOL     OW36214  12.000   6.057   3.196  0.1357 -0.9668  0.2798
43118SOL    HW136215  12.066   6.126   3.191  0.3698 -1.2563 -0.9998
43118SOL    HW236216  12.026   6.005   3.272 -0.2070  0.4842  1.4385
43119SOL     OW36217   6.210  10.345   4.245  0.2673 -0.2002  0.4689
43119SOL    HW136218   6.296  10.323   4.281  0.7194 -1.1791 -1.1323
43119SOL    HW236219   6.223  10.429   4.201  1.0062 -1.3305 -1.6004
43120SOL     OW36220  10.194  11.071   9.126  0.2771 -0.0558 -0.0747
43120SOL    HW136221  10.251  11.001   9.157  0.4350 -0.2962 -0.8745
43120SOL    HW236222  10.113  11.060   9.175  0.6095 -0.2565  0.4353
43121SOL     OW36223   3.818  12.453   2.393 -0.2305 -0.3952  0.1665
43121SOL    HW136224   3.856  12.509   2.326  2.1834 -1.4258  0.5814
43121SOL    HW236225   3.883  12.452   2.463 -1.8123 -0.9134  1.6984
43122SOL     OW36226   3.752   0.113   0.089 -0.3364 -0.4414  0.3987
43122SOL    HW136227   3.815   0.185   0.093 -1.0595  0.1722  1.3308
43122SOL    HW236228   3.693   0.136   0.018  0.9355 -1.4447 -1.0669
43123SOL     OW36229  12.261  12.409   9.827 -0.2469  0.0434  0.1822
43123SOL    HW136230  12.339  12.429   9.880  0.4348 -0.8494 -0.4548
43123SOL    HW236231  12.256  12.481   9.764 -1.4836  1.5179  1.8398
43124SOL     OW36232   3.607   8.001   8.079  0.0093 -0.1746  0.2020
43124SOL    HW136233   3.553   7.994   8.158 -0.8520  1.4218 -0.1961
43124SOL    HW236234   3.624   8.095   8.070  0.9026 -0.4229 -0.9810
43125SOL     OW36235   5.382  10.421  12.039 -0.3010  0.1394 -0.2437
43125SOL    HW136236   5.440  10.400  12.113 -0.8894 -1.2127 -0.1476
43125SOL    HW236237   5.380  10.517  12.038 -0.3233  0.1949  1.5409
43126SOL     OW36238   2.092   7.097   8.174  0.4412  0.3705  0.0248
43126SOL    HW136239   2.030   7.027   8.157  0.4046  0.6800 -1.2084
43126SOL    HW236240   2.084   7.155   8.098  3.1361 -0.2453 -0.8678
43127SOL     OW36241  11.265  12.148   3.817 -0.2610 -0.1307  0.3181
43127SOL    HW136242  11.189  12.092   3.834  0.0124 -0.8767 -0.8453
43127SOL    HW236243  11.317  12.100   3.753  1.5690  0.0465  1.6165
43128SOL     OW36244  10.488   6.697  11.914 -0.0537 -0.3341 -0.7838
43128SOL    HW136245  10.444   6.778  11.891  0.3196  0.2799  0.5234
43128SOL    HW236246  10.579   6.710  11.887  0.0313 -0.2568 -0.4731
43129SOL     OW36247  12.289  11.480   1.759 -0.7081  0.2568  0.0193
43129SOL    HW136248  12.287  11.515   1.848  0.0273 -1.3381  0.7019
43129SOL    HW236249  12.346  11.540   1.710 -1.4022  1.3403  0.5080
43130SOL     OW36250   4.310   9.139  10.335 -0.0000 -0.1380  0.2206
43130SOL    HW136251   4.272   9.203  10.274 -1.8368 -2.1905 -0.9368
43130SOL    HW236252   4.312   9.185  10.419 -1.7144  1.2978 -0.4445
43131SOL     OW36253   6.048  11.674  12.215  0.4229  0.0243 -0.3431
43131SOL    HW136254   6.058  11.769  12.209  2.5857 -0.1422 -0.4336
43131SOL    HW236255   6.125  11.646  12.265 -1.0678 -1.5468  1.1637
43132SOL     OW36256   7.349  12.425  11.313 -0.1123 -0.0773 -0.1215
43132SOL    HW136257   7.258  12.443  11.337 -0.0650 -0.5788  0.4762
43132SOL    HW236258   7.364  12.335  11.342  0.5267 -0.0506 -0.3531
43133SOL     OW36259   1.404   3.899   2.596  0.1352  0.3345 -0.0945
43133SOL    HW136260   1.354   3.976   2.622  0.7108  0.7264 -0.1265
43133SOL    HW236261   1.472   3.891   2.663  1.0635  0.8121 -0.9572
43134SOL     OW36262  11.723   0.469   7.922 -0.0018  0.5561  0.2711
43134SOL    HW136263  11.795   0.486   7.860 -0.2499 -1.3168 -0.5993
43134SOL    HW236264  11.644   0.489   7.872 -0.1831 -0.5197  0.1005
43135SOL     OW36265   3.979   1.244   8.530 -0.2212  0.5990  0.2882
43135SOL    HW136266   3.961   1.298   8.607 -0.1106  0.6885  0.2514
43135SOL    HW236267   3.902   1.257   8.474  0.1306  1.2941 -0.0467
43136SOL     OW36268   0.491   3.539   5.635  0.3511  0.4531  0.4446
43136SOL    HW136269   0.468   3.474   5.701 -1.9215  0.3777 -0.3375
43136SOL    HW236270   0.422   3.606   5.642  1.4326  1.6915 -0.2204
43137SOL     OW36271   1.088   9.435   9.158 -0.4016 -0.8686  0.2931
43137SOL    HW136272   1.181   9.456   9.142 -0.1185 -3.0632 -1.4183
43137SOL    HW236273   1.067   9.368   9.093 -2.8933 -1.2831  1.4143
43138SOL     OW36274   6.846  11.539   0.089 -0.7369 -0.0230  0.6735
43138SOL    HW136275   6.776  11.598   0.062  1.0210  0.8564 -2.5215
43138SOL    HW236276   6.835  11.462   0.032  1.2330  0.4745 -0.4768
43139SOL     OW36277   7.105   0.938   6.079 -0.3507 -0.0684 -0.5593
43139SOL    HW136278   7.016   0.972   6.076  0.4350  2.1214 -0.4445
43139SOL    HW236279   7.135   0.941   5.989 -0.4832 -1.1414 -0.6528
43140SOL     OW36280   4.586   8.576   6.309  0.4663  0.2929 -0.0701
43140SOL    HW136281   4.495   8.566   6.339 -0.5296 -0.4023 -3.0433
43140SOL    HW236282   4.626   8.491   6.327 -0.4315 -0.4884 -1.5714
43141SOL     OW36283  10.039  10.280   7.328  0.2841  0.0265  0.7020
43141SOL    HW136284  10.032  10.289   7.233  1.1693 -1.3835  0.4897
43141SOL    HW236285  10.038  10.371   7.360 -0.6615  0.5034 -0.5792
43142SOL     OW36286   8.962   5.464   2.538  0.6205 -0.4292 -0.1397
43142SOL    HW136287   9.053   5.435   2.541  0.9241  0.5974  0.8822
43142SOL    HW236288   8.960   5.528   2.468  1.0780  0.7875  0.9258
43143SOL     OW36289   7.140   6.234  12.273 -0.2604  0.2894  0.2947
43143SOL    HW136290   7.050   6.268  12.275  0.1980  1.5917 -0.5346
43143SOL    HW236291   7.189   6.290  12.333  0.3882  0.7809 -0.6730
43144SOL     OW36292   5.081   3.590   4.145 -0.0463  0.5408 -0.3119
43144SOL    HW136293   5.080   3.686   4.137  1.2002  0.4507 -1.8329
43144SOL    HW236294   5.107   3.559   4.059  2.7637 -1.0287  0.9906
43145SOL     OW36295   5.657   5.071   3.159 -0.0304  0.3196 -0.4651
43145SOL    HW136296   5.661   5.008   3.231 -0.7700  1.1801  0.3655
43145SOL    HW236297   5.580   5.046   3.108 -0.8201  1.0277  0.3505
43146SOL     OW36298  10.497   5.426  10.934  0.2807  0.3398 -0.3012
43146SOL    HW136299  10.529   5.408  11.022  0.0183  2.1354  0.1959
43146SOL    HW236300  10.558   5.379  10.877  0.6325 -0.5997  0.8078
43147SOL     OW36301   6.235   4.873   4.592 -0.1403  0.6527 -0.2925
43147SOL    HW136302   6.242   4.968   4.583 -1.8017  0.9251  0.8037
43147SOL    HW236303   6.275   4.854   4.676 -0.0675  0.4100 -0.3810
43148SOL     OW36304   1.304   7.597   7.046 -0.3154 -0.5606  0.1561
43148SOL    HW136305   1.279   7.509   7.074  0.2035 -0.4442  1.0180
43148SOL    HW236306   1.389   7.613   7.087 -0.6040  0.5092  0.3904
43149SOL     OW36307   9.528   7.963  12.450  0.3430 -0.0264 -0.0185
43149SOL    HW136308   9.613   7.919  12.446  2.2044  3.2748 -0.0310
43149SOL    HW236309   9.543   8.039  12.505 -2.5367  0.8749 -0.3303
43150SOL     OW36310   9.028  10.699   9.120  0.0210 -0.3390  0.5080
43150SOL    HW136311   9.010  10.605   9.126  0.0163 -0.3806 -0.0882
43150SOL    HW236312   9.093  10.706   9.050  0.9652 -0.0183  1.3961
43151SOL     OW36313   9.288   4.813   0.229  0.5956 -0.4836  0.2447
43151SOL    HW136314   9.307   4.719   0.225 -0.4876 -0.6930 -1.6518
43151SOL    HW236315   9.313   4.846   0.142 -1.7095  0.3721 -0.1641
43152SOL     OW36316   4.846  10.678   1.472 -0.3455 -0.4023 -0.2102
43152SOL    HW136317   4.878  10.692   1.383 -0.5347  0.4436 -0.1540
43152SOL    HW236318   4.924  10.661   1.523 -0.2233 -0.7736 -0.5107
43153SOL     OW36319   2.504   1.635   0.563  0.2157 -0.5292 -0.4140
43153SOL    HW136320   2.555   1.703   0.519  0.8629 -1.5286 -1.2446
43153SOL    HW236321   2.429   1.682   0.600  0.7759  0.6712 -0.7474
43154SOL     OW36322   5.012   0.917   3.276  0.3773 -0.2659  0.1841
43154SOL    HW136323   4.950   0.985   3.248  1.3802  0.5182 -0.2031
43154SOL    HW236324   4.980   0.837   3.235  0.4290  0.4004 -1.2263
43155SOL     OW36325   0.507   8.593  11.785 -0.0471 -0.0214 -0.0107
43155SOL    HW136326   0.488   8.540  11.707 -1.0110  1.8729 -1.1416
43155SOL    HW236327   0.544   8.531  11.848 -0.9757 -1.9847 -1.3010
43156SOL     OW36328   8.444   4.531   4.143  0.3243  0.2326 -0.0294
43156SOL    HW136329   8.392   4.539   4.223  1.2438 -1.1438  0.7453
43156SOL    HW236330   8.387   4.483   4.082 -0.4623  1.4763 -0.3254
43157SOL     OW36331   6.666   4.111   5.177 -0.1528  0.3222 -0.5404
43157SOL    HW136332   6.706   4.055   5.111  1.2240  1.9014 -1.1292
43157SOL    HW236333   6.738   4.138   5.233 -0.6014  2.0158 -0.7015
43158SOL     OW36334   7.937  11.964   2.781 -0.5520 -0.0823  0.0948
43158SOL    HW136335   8.001  12.032   2.801  0.8686 -0.9561 -1.3219
43158SOL    HW236336   7.968  11.887   2.827 -0.5533 -0.5310 -0.6468
43159SOL     OW36337   0.068   9.957   6.774  0.4042  0.0321 -0.3093
43159SOL    HW136338   0.095   9.979   6.684  0.3307 -0.9647 -0.5851
43159SOL    HW236339   0.032   9.868   6.767  1.0041 -0.3147  0.8232
43160SOL     OW36340   9.731   7.865   7.847 -0.0997  0.1113 -0.5648
43160SOL    HW136341   9.678   7.847   7.770 -0.1644 -2.5025  0.0130
43160SOL    HW236342   9.769   7.951   7.830 -1.8766  0.5963 -2.4722
43161SOL     OW36343   5.771   1.748   0.293  0.4186 -0.0641  0.0786
43161SOL    HW136344   5.861   1.744   0.259  0.4973  1.2646  0.0870
43161SOL    HW236345   5.747   1.840   0.285 -0.7800 -0.3308  0.5227
43162SOL     OW36346   7.556   9.714   5.703 -0.2733  0.4050  0.2426
43162SOL    HW136347   7.536   9.776   5.633 -1.7048 -0.6756 -0.3557
43162SOL    HW236348   7.639   9.675   5.678 -0.1553  0.9356 -0.1982
43163SOL     OW36349  12.391   0.634  12.474 -0.1859 -0.5091 -0.1632
43163SOL    HW136350  12.343   0.712  12.447 -1.0548 -0.0775  2.3892
43163SOL    HW236351  12.456   0.666  12.537  0.9588 -1.5972 -0.7368
43164SOL     OW36352   0.647   5.606   5.961 -0.2912  0.0280 -0.8149
43164SOL    HW136353   0.717   5.669   5.981 -1.5650  1.0692  0.5666
43164SOL    HW236354   0.649   5.599   5.865  1.5026  0.2294 -0.8424
43165SOL     OW36355   3.659   5.762   7.326  0.0384  0.7143 -0.0795
43165SOL    HW136356   3.699   5.783   7.242  0.1504  0.0173 -0.2116
43165SOL    HW236357   3.716   5.694   7.363 -0.4907  0.3993  0.1671
43166SOL     OW36358   4.114   1.026   2.423 -0.4002  0.1638  0.7048
43166SOL    HW136359   4.142   0.936   2.403 -0.3189 -0.0935  1.8881
43166SOL    HW236360   4.019   1.019   2.434 -0.8209  0.7733 -1.9226
43167SOL     OW36361   6.685   4.172   1.381  0.1321 -0.1040  0.3647
43167SOL    HW136362   6.600   4.213   1.394  0.3148  0.4309 -0.1058
43167SOL    HW236363   6.731   4.185   1.465  0.1976  0.6761  0.2092
43168SOL     OW36364   4.064  12.282   1.143  0.2911  0.3135 -0.3544
43168SOL    HW136365   4.005  12.345   1.184 -0.5799  0.2589 -1.4813
43168SOL    HW236366   4.009  12.234   1.081  1.3143 -0.3951 -0.7470
43169SOL     OW36367   9.078   6.291  11.283  0.4013  0.0957 -0.3129
43169SOL    HW136368   9.088   6.215  11.226 -0.0677  0.5839 -1.0662
43169SOL    HW236369   9.095   6.257  11.371  0.2246 -0.8722 -0.6353
43170SOL     OW36370   2.059  12.455   0.544  0.0546  0.6944 -0.0301
43170SOL    HW136371   2.144  12.495   0.560  0.2412  1.1312 -1.8725
43170SOL    HW236372   2.057  12.439   0.449 -1.0997 -1.1949  0.2452
43171SOL     OW36373   9.425   0.189   8.735 -0.1793 -0.5102 -0.1213
43171SOL    HW136374   9.498   0.252   8.739 -1.5895  1.2617 -0.8013
43171SOL    HW236375   9.356   0.230   8.787 -0.2853 -2.8281  1.7008
43172SOL     OW36376   2.792   9.590   1.422  0.1922  0.3987  0.0580
43172SOL    HW136377   2.760   9.585   1.512 -2.2510  3.9302 -0.3906
43172SOL    HW236378   2.833   9.505   1.406 -1.8405 -1.4684  3.5372
43173SOL     OW36379   1.100  11.598   7.833  0.5360 -0.0738 -0.1136
43173SOL    HW136380   1.155  11.521   7.818 -1.1361 -1.5474  0.8665
43173SOL    HW236381   1.074  11.591   7.925 -0.5788  1.0485 -0.3149
43174SOL     OW36382   4.333   3.620   3.497  0.2568 -0.4775  0.2580
43174SOL    HW136383   4.309   3.710   3.518 -0.8141 -0.0429 -2.4316
43174SOL    HW236384   4.279   3.566   3.554  1.2998  0.5311  2.2836
43175SOL     OW36385   8.230  11.576   3.397 -0.0665  0.4389  0.4844
43175SOL    HW136386   8.237  11.514   3.325  0.1060  1.1273 -0.1102
43175SOL    HW236387   8.136  11.593   3.406  0.0075  1.6369 -0.7290
43176SOL     OW36388  11.758  10.518   2.250 -0.5177 -0.2528  0.1252
43176SOL    HW136389  11.826  10.476   2.197 -0.3740 -1.6782  1.3622
43176SOL    HW236390  11.676  10.477   2.221 -0.5123 -0.5729  0.5586
43177SOL     OW36391  10.080  11.887  12.333  0.5704  0.0156  0.0901
43177SOL    HW136392  10.003  11.838  12.305  0.5908 -0.3575  0.6724
43177SOL    HW236393  10.154  11.836  12.300  0.5982 -0.5172  0.9581
43178SOL     OW36394   4.833   6.258   3.813  0.0911 -0.5470 -0.1212
43178SOL    HW136395   4.893   6.297   3.877 -1.5014  0.5944  0.7616
43178SOL    HW236396   4.793   6.184   3.858 -1.2322  0.4191  0.3534
43179SOL     OW36397  12.158   2.235   9.558 -0.2716  0.2151  0.0518
43179SOL    HW136398  12.214   2.312   9.548  0.4552 -0.4801 -1.8037
43179SOL    HW236399  12.112   2.228   9.474 -1.0180 -0.8453  0.5268
43180SOL     OW36400   9.402   2.274   7.119  0.3438  0.3919 -0.4951
43180SOL    HW136401   9.363   2.361   7.107 -1.6624 -0.4682 -0.5809
43180SOL    HW236402   9.413   2.266   7.214 -1.3628 -0.0082 -0.3068
43181SOL     OW36403   6.123   4.148   7.140  0.7262 -0.5433 -0.6218
43181SOL    HW136404   6.187   4.121   7.075  1.6981 -0.5150  0.3008
43181SOL    HW236405   6.136   4.089   7.213  0.6488  0.3430  0.1265
43182SOL     OW36406   4.094  11.434  10.777  0.2865  0.4616  0.0375
43182SOL    HW136407   4.145  11.514  10.758 -0.2794  0.5333 -1.2674
43182SOL    HW236408   4.005  11.466  10.790 -0.4558 -0.1218 -2.9128
43183SOL     OW36409   2.930   6.090  10.367 -0.6051  0.0832  0.0199
43183SOL    HW136410   2.981   6.027  10.316 -1.1924 -1.0830  0.8353
43183SOL    HW236411   2.989   6.116  10.438 -0.3838  0.4169 -0.2827
43184SOL     OW36412   5.890   8.458   0.775  0.4315  0.0174  0.1738
43184SOL    HW136413   5.970   8.435   0.823 -0.2218  0.7524  1.7035
43184SOL    HW236414   5.868   8.379   0.726  2.0821 -0.1998 -0.2704
43185SOL     OW36415   6.887  10.184   0.360 -0.2863  0.4662  0.4242
43185SOL    HW136416   6.883  10.119   0.290  0.9607  0.3283  0.4550
43185SOL    HW236417   6.797  10.192   0.391 -1.3095  2.1765 -2.6726
43186SOL     OW36418   7.118  11.011  10.535  0.1782  0.1234 -0.4474
43186SOL    HW136419   7.061  10.947  10.576 -1.3214  0.9636 -1.1075
43186SOL    HW236420   7.058  11.078  10.501  1.5046  0.6803 -1.8321
43187SOL     OW36421   8.954   4.810   8.924 -0.0072 -0.1169  0.2111
43187SOL    HW136422   8.867   4.770   8.927  0.1598 -0.5378 -0.3403
43187SOL    HW236423   8.960   4.859   9.005  0.0114 -1.6984  1.2198
43188SOL     OW36424   3.259  10.366  10.089 -0.2045  0.0394  0.0194
43188SOL    HW136425   3.344  10.410  10.086  0.4964 -1.2742  0.0201
43188SOL    HW236426   3.267  10.292  10.030 -1.3036 -0.2075  0.1445
43189SOL     OW36427   6.434  10.151  10.977 -0.0506  0.1606  0.0904
43189SOL    HW136428   6.352  10.141  11.026 -0.0421 -1.3950 -0.1471
43189SOL    HW236429   6.503  10.131  11.041  0.0237 -0.5425 -0.1963
43190SOL     OW36430   8.298  10.016   4.089 -0.4119 -0.8189 -0.0769
43190SOL    HW136431   8.311  10.035   4.182 -1.1621  0.0103 -0.1306
43190SOL    HW236432   8.380   9.973   4.062  0.0814 -0.4594  0.7982
43191SOL     OW36433  10.656   6.768   9.203 -0.4433 -0.8130  0.0332
43191SOL    HW136434  10.680   6.831   9.272  1.0309  0.2243 -1.3290
43191SOL    HW236435  10.643   6.686   9.249 -3.0555  0.5606  1.9768
43192SOL     OW36436   7.518   1.986   1.640 -0.0421  0.3491 -0.3412
43192SOL    HW136437   7.588   1.922   1.644 -0.1034  0.1805 -1.6811
43192SOL    HW236438   7.554   2.064   1.684  0.9442  0.2248 -0.9049
43193SOL     OW36439   2.276   0.046   1.193  0.0647 -0.4967 -0.1896
43193SOL    HW136440   2.196   0.029   1.241  1.4194 -1.4663  1.8940
43193SOL    HW236441   2.276  -0.018   1.122 -1.3528  0.0724 -0.7376
43194SOL     OW36442   8.889   0.786   9.923  0.5372 -0.1486  0.5005
43194SOL    HW136443   8.973   0.762   9.961 -0.0109  0.4636  2.2106
43194SOL    HW236444   8.824   0.742   9.977 -0.2710 -0.3674 -0.6063
43195SOL     OW36445  10.360  10.453   0.900  0.2160  0.3184  0.1704
43195SOL    HW136446  10.340  10.417   0.814  0.9228 -1.8450  0.8519
43195SOL    HW236447  10.452  10.480   0.894  0.6298 -0.9250  0.5432
43196SOL     OW36448  12.072  11.047   8.218 -0.6322  0.3980 -0.2263
43196SOL    HW136449  11.982  11.043   8.250 -0.9889 -0.9664 -1.3186
43196SOL    HW236450  12.063  11.070   8.126  0.0804 -0.6995 -0.5753
43197SOL     OW36451   0.951   9.169  11.965  0.1796  0.1265 -0.1438
43197SOL    HW136452   0.946   9.252  12.013 -0.8713  0.2920 -0.5056
43197SOL    HW236453   1.018   9.119  12.011 -0.5795  0.3970  1.3480
43198SOL     OW36454   3.795   8.495  10.066  0.2165  0.1945 -0.2764
43198SOL    HW136455   3.704   8.523  10.063 -0.1458 -0.9877 -2.2735
43198SOL    HW236456   3.791   8.404  10.096  1.0206  0.8691  2.1456
43199SOL     OW36457   2.721  10.616   2.000 -0.4359  0.1315 -0.1143
43199SOL    HW136458   2.683  10.617   2.088 -0.8113 -0.5186 -0.2559
43199SOL    HW236459   2.798  10.671   2.006 -0.5395  0.2089  0.5887
43200SOL     OW36460  11.323   2.253   6.642 -0.0980  0.4489  0.0408
43200SOL    HW136461  11.373   2.276   6.720 -0.3025  1.0874 -0.0060
43200SOL    HW236462  11.233   2.242   6.673 -0.3166  1.4368 -0.2154
43201SOL     OW36463   2.709   0.932   1.524 -0.0381  0.0138 -0.2697
43201SOL    HW136464   2.664   1.011   1.496  1.2408  1.0588  0.4675
43201SOL    HW236465   2.794   0.936   1.481  0.8818  0.2100  1.4545
43202SOL     OW36466   1.675   0.395  12.107 -0.2607 -0.0485  0.0641
43202SOL    HW136467   1.768   0.373  12.111  0.0184  1.2268  1.9772
43202SOL    HW236468   1.633   0.330  12.164 -1.0468 -2.4698 -3.0188
43203SOL     OW36469   2.762   9.401   6.211  0.3896  0.4752 -0.0124
43203SOL    HW136470   2.707   9.381   6.135  0.3047  0.2519  0.1073
43203SOL    HW236471   2.718   9.475   6.253 -1.4535 -1.4460  1.7019
43204SOL     OW36472   6.087   3.083  10.024  0.1806  0.1947  0.3444
43204SOL    HW136473   6.159   3.033   9.986  1.6021  0.7277  2.2028
43204SOL    HW236474   6.059   3.031  10.100  1.1211  1.6995  1.8080
43205SOL     OW36475   5.939   7.044   6.309  0.0632  0.1719  0.5980
43205SOL    HW136476   5.983   7.108   6.252  0.9657  0.6135  1.7360
43205SOL    HW236477   5.861   7.018   6.261  0.8439  0.4406 -0.8864
43206SOL     OW36478   9.837   9.158   8.079 -0.3519  0.2558 -0.0754
43206SOL    HW136479   9.794   9.083   8.040  1.7309 -0.4012 -1.2858
43206SOL    HW236480   9.786   9.179   8.157 -1.5103 -1.8121 -0.2422
43207SOL     OW36481   0.236   7.757   6.179 -0.3767  0.4250 -0.6452
43207SOL    HW136482   0.148   7.778   6.148 -0.7680  0.4415  0.4405
43207SOL    HW236483   0.266   7.837   6.222 -0.9628 -0.4213  1.4661
43208SOL     OW36484   6.198  10.063  10.114  0.1195  0.0397 -0.5058
43208SOL    HW136485   6.283  10.096  10.141  0.6886 -1.2763 -0.5824
43208SOL    HW236486   6.135  10.106  10.172  0.9553  0.1453  0.3414
43209SOL     OW36487   5.189   3.830   0.184  0.5278 -0.3349  0.6599
43209SOL    HW136488   5.175   3.755   0.242 -0.5749 -0.5163  0.1929
43209SOL    HW236489   5.131   3.898   0.219  1.3096  0.2152  0.9124
43210SOL     OW36490   8.968   6.211   4.888 -0.2613 -0.2344 -0.0462
43210SOL    HW136491   9.063   6.211   4.901 -0.2682 -1.3929  0.0962
43210SOL    HW236492   8.932   6.219   4.977 -0.2981  0.0143 -0.0834
43211SOL     OW36493   8.572   1.031   4.897  0.0864 -0.2831  0.1583
43211SOL    HW136494   8.650   0.997   4.941 -0.4764  2.7959  4.2431
43211SOL    HW236495   8.602   1.111   4.855 -0.5089 -0.0119  0.2413
43212SOL     OW36496   1.427  11.197   0.515  0.6874  0.3120  0.1869
43212SOL    HW136497   1.447  11.246   0.434 -1.4490  0.5724 -0.2616
43212SOL    HW236498   1.440  11.106   0.491 -0.4147  0.3459 -0.6709
43213SOL     OW36499   7.724   6.810   6.054 -0.4583  0.2848 -0.0714
43213SOL    HW136500   7.716   6.901   6.080  2.5282  1.5899 -3.0091
43213SOL    HW236501   7.755   6.765   6.132  0.7590  2.3761  0.7224
43214SOL     OW36502  10.013  10.887  12.108  0.0472 -0.2813 -0.2867
43214SOL    HW136503  10.000  10.831  12.185  0.7348 -0.6379 -0.4182
43214SOL    HW236504   9.934  10.875  12.056  0.2168 -1.2117 -0.3575
43215SOL     OW36505   3.999   2.998   9.611 -0.6520  0.4829 -0.4634
43215SOL    HW136506   3.923   3.048   9.583 -0.0958  1.0921 -0.8954
43215SOL    HW236507   4.070   3.027   9.554 -0.0861 -0.0556 -0.0465
43216SOL     OW36508   3.985   2.876   1.139 -0.3278 -0.2876 -0.2761
43216SOL    HW136509   3.931   2.834   1.206 -0.1193 -3.2110 -1.8172
43216SOL    HW236510   4.072   2.882   1.179 -0.8871  1.0658  0.8496
43217SOL     OW36511   5.976   7.821   4.778  0.0202 -0.1042 -0.0693
43217SOL    HW136512   6.049   7.878   4.752 -0.1836 -0.3824 -1.3344
43217SOL    HW236513   5.992   7.802   4.870  0.3767  1.5809  0.2616
43218SOL     OW36514   2.374   7.432   9.747 -0.5237 -0.0234  0.3495
43218SOL    HW136515   2.282   7.458   9.743 -1.0415 -1.7260  0.3435
43218SOL    HW236516   2.388   7.380   9.668  0.5245  0.4284  0.2193
43219SOL     OW36517   5.944   2.939   6.189 -0.4223 -0.0124 -0.0200
43219SOL    HW136518   6.024   2.978   6.154 -0.2917 -1.6751 -1.7576
43219SOL    HW236519   5.973   2.891   6.267  0.4978 -1.4185 -1.1849
43220SOL     OW36520   6.567   9.152   3.946  0.5757 -0.1075  0.1297
43220SOL    HW136521   6.594   9.098   3.872  0.9262 -2.1787  1.6767
43220SOL    HW236522   6.475   9.173   3.928  1.0471  0.7313 -1.5747
43221SOL     OW36523   1.051  10.850   3.175  0.1568 -0.2799  0.7035
43221SOL    HW136524   1.063  10.886   3.263 -0.5480 -0.2333  0.7829
43221SOL    HW236525   1.113  10.899   3.121  1.5414 -1.2003  1.3961
43222SOL     OW36526  10.500   5.788   8.483 -0.0499 -0.7518 -0.3233
43222SOL    HW136527  10.426   5.830   8.527 -0.5038 -0.4817 -1.3376
43222SOL    HW236528  10.577   5.830   8.522 -0.4888  0.9985 -1.2667
43223SOL     OW36529   5.250  10.753   5.098 -0.0748 -0.7157 -0.3281
43223SOL    HW136530   5.163  10.747   5.138  0.9325  0.7201  2.3557
43223SOL    HW236531   5.264  10.847   5.084  1.6305 -0.7409  0.8601
43224SOL     OW36532   6.741   2.942   3.576  0.4605 -0.2993 -0.5412
43224SOL    HW136533   6.730   2.897   3.493  1.9049 -0.6389 -0.5896
43224SOL    HW236534   6.775   2.874   3.635  2.2551  0.5782 -0.4975
43225SOL     OW36535   7.398   3.841   0.022 -0.2561 -0.5372 -0.1561
43225SOL    HW136536   7.404   3.802   0.110 -1.4870 -0.9603 -0.2451
43225SOL    HW236537   7.390   3.935   0.038 -1.2153 -0.6745  0.2300
43226SOL     OW36538   5.704   9.659   2.573  0.5012  0.2664  0.1722
43226SOL    HW136539   5.624   9.607   2.568 -0.9929  2.3407  1.0641
43226SOL    HW236540   5.772   9.595   2.595 -0.7932 -1.6245 -0.9442
43227SOL     OW36541  11.759   6.802   6.920  0.2629 -0.6263  0.2944
43227SOL    HW136542  11.845   6.844   6.916  0.4953 -1.1852 -1.9223
43227SOL    HW236543  11.697   6.871   6.896  0.1059 -0.3205  1.5241
43228SOL     OW36544   9.284   3.807   5.195  0.1105 -0.4129  0.4457
43228SOL    HW136545   9.293   3.729   5.139 -1.9889 -0.0457 -0.4676
43228SOL    HW236546   9.237   3.776   5.272 -2.5917  0.2375 -0.8109
43229SOL     OW36547   7.087   4.821   5.622  0.0082  0.1322 -0.2882
43229SOL    HW136548   7.016   4.796   5.563 -1.2701 -0.7390  1.5298
43229SOL    HW236549   7.057   4.795   5.709  2.2997  0.2999  0.6374
43230SOL     OW36550   8.258  12.072   1.930 -0.0346 -0.1537  0.1679
43230SOL    HW136551   8.233  12.099   1.841  1.7984  3.4497  0.5470
43230SOL    HW236552   8.187  12.104   1.985 -0.5488 -1.2302  0.1463
43231SOL     OW36553   5.898  11.560   6.386  0.1781  0.3799  0.1343
43231SOL    HW136554   5.912  11.599   6.472  0.9373  1.8652 -0.6020
43231SOL    HW236555   5.986  11.536   6.356  0.2081  1.6977 -0.9874
43232SOL     OW36556  11.648  11.169   0.960  0.8341 -1.0022 -0.0680
43232SOL    HW136557  11.675  11.201   0.873 -0.7332 -0.0374 -0.2416
43232SOL    HW236558  11.677  11.078   0.962  0.7767 -1.0919 -1.6728
43233SOL     OW36559   5.048  10.697   3.098 -0.3750  0.4306 -0.1087
43233SOL    HW136560   5.111  10.627   3.113 -0.1581  0.8870  1.1627
43233SOL    HW236561   5.006  10.711   3.183  0.0276  2.2638 -0.1842
43234SOL     OW36562   7.182   4.760   4.747  1.2246  0.0700  0.1684
43234SOL    HW136563   7.192   4.665   4.737  0.3827  0.2473 -3.9681
43234SOL    HW236564   7.205   4.796   4.662 -1.2427  3.3317  0.6771
43235SOL     OW36565  12.060   1.928  11.193  0.3810 -0.1067 -0.5989
43235SOL    HW136566  12.129   1.990  11.217  2.1264 -1.5530 -1.6228
43235SOL    HW236567  11.979   1.976  11.209  1.6154  2.5911 -1.6119
43236SOL     OW36568  11.602   7.422   4.659 -0.2438  0.2946  0.3585
43236SOL    HW136569  11.563   7.354   4.605  0.3752  0.0425  0.2288
43236SOL    HW236570  11.598   7.501   4.605 -1.3850  0.4792  0.6831
43237SOL     OW36571   7.098   5.712  12.233  0.4085 -0.5234 -0.0725
43237SOL    HW136572   7.087   5.807  12.234  1.0754 -0.3173 -2.9254
43237SOL    HW236573   7.009   5.678  12.235  0.1544  0.1475  0.7639
43238SOL     OW36574   9.914   7.502   8.867 -0.2070  0.8362 -0.2500
43238SOL    HW136575   9.984   7.453   8.824 -0.2615 -0.5539  1.1533
43238SOL    HW236576   9.936   7.498   8.960 -1.2589  1.8485  0.0565
43239SOL     OW36577   3.909   4.227   9.112 -0.2961  0.5709  0.1217
43239SOL    HW136578   3.980   4.175   9.076 -1.2402 -1.0776  0.5066
43239SOL    HW236579   3.950   4.282   9.178  0.7181  0.1538 -0.1479
43240SOL     OW36580   2.210   8.887  10.380 -0.2654 -0.3367 -0.5973
43240SOL    HW136581   2.211   8.818  10.447  0.3855 -1.4195 -1.6809
43240SOL    HW236582   2.137   8.943  10.405  1.4168  0.7897  2.4541
43241SOL     OW36583   4.302   7.338  12.048  0.0116  0.4258 -0.4304
43241SOL    HW136584   4.300   7.279  11.972  0.9481  0.1287 -0.2413
43241SOL    HW236585   4.225   7.313  12.099  1.1343 -1.6661  0.3673
43242SOL     OW36586   3.377   5.675   2.695  0.0812 -0.4461  0.3673
43242SOL    HW136587   3.309   5.610   2.677 -0.4500  0.3761 -0.6944
43242SOL    HW236588   3.384   5.726   2.614  2.0846 -0.6105  0.3928
43243SOL     OW36589   8.005  12.255   2.006 -0.1978  0.1304  0.2191
43243SOL    HW136590   8.057  12.311   2.064  0.9524 -0.1895 -0.4719
43243SOL    HW236591   7.965  12.191   2.064  0.6190  0.0568  0.7194
43244SOL     OW36592  11.914   3.087   6.035 -0.1437 -0.1398  0.6698
43244SOL    HW136593  11.923   3.120   5.945 -0.4935  0.9423  1.0109
43244SOL    HW236594  11.944   2.997   6.031  1.0036  0.2606 -0.2884
43245SOL     OW36595   7.990   7.099   9.082 -0.5401 -0.1940  0.7090
43245SOL    HW136596   8.013   7.087   8.990  0.1002  3.1295  0.3332
43245SOL    HW236597   7.904   7.056   9.091  0.1023 -1.9610 -0.9712
43246SOL     OW36598   2.997   8.564   7.930  0.2086  0.5039  0.5537
43246SOL    HW136599   3.015   8.598   8.017  0.3767  0.2693  0.6106
43246SOL    HW236600   3.065   8.498   7.915  0.1317  0.4841  0.2795
43247SOL     OW36601   3.346   3.722   4.260 -0.0788 -0.1907  0.3488
43247SOL    HW136602   3.382   3.639   4.227  1.6881  1.3443 -1.8763
43247SOL    HW236603   3.379   3.728   4.350  3.0089 -0.2468 -0.6523
43248SOL     OW36604   0.384   4.963  11.162  0.1085  0.1471 -0.2469
43248SOL    HW136605   0.329   5.014  11.103  0.9113  0.2663 -0.9154
43248SOL    HW236606   0.361   4.994  11.250 -0.1289  0.9419 -0.5819
43249SOL     OW36607  10.977  10.504   0.765 -0.6045 -0.2572  0.0187
43249SOL    HW136608  11.051  10.557   0.796 -1.1919  1.2492 -1.0031
43249SOL    HW236609  11.015  10.444   0.702 -0.1970  0.3370 -0.3149
43250SOL     OW36610   5.082   2.411   9.173  0.5211 -0.5229  0.0747
43250SOL    HW136611   4.992   2.426   9.202  0.0789 -1.5825 -0.6649
43250SOL    HW236612   5.117   2.349   9.236  0.1643 -1.4044 -0.5715
43251SOL     OW36613   8.274   1.855  11.013  0.7892 -0.5167  0.5161
43251SOL    HW136614   8.195   1.858  11.067  1.4059  1.1560  1.3882
43251SOL    HW236615   8.280   1.764  10.985 -1.8059 -0.5668 -0.1460
43252SOL     OW36616  11.088   0.828   8.100  0.1940 -0.1889 -0.4581
43252SOL    HW136617  11.142   0.757   8.066  1.0951  0.4210 -0.3524
43252SOL    HW236618  11.145   0.906   8.094  0.7997 -0.1714  3.2370
43253SOL     OW36619   8.781   1.591  10.854  0.1774 -0.6403 -0.2433
43253SOL    HW136620   8.870   1.628  10.855 -0.2778  0.4658  0.5970
43253SOL    HW236621   8.784   1.519  10.917  1.0272 -2.0154 -1.7731
43254SOL     OW36622   2.913   6.294  10.775  0.2145  0.1496  0.0950
43254SOL    HW136623   2.924   6.380  10.735  1.6174 -0.2834 -0.5425
43254SOL    HW236624   2.958   6.301  10.860 -0.1437  0.2000  0.2814
43255SOL     OW36625  11.413   6.680   2.176  0.3757  0.0020  0.7468
43255SOL    HW136626  11.446   6.727   2.099 -1.4851 -0.6495 -0.5303
43255SOL    HW236627  11.379   6.750   2.233  0.7138  0.4240  0.4382
43256SOL     OW36628   3.433   1.586  10.053  0.0248 -0.1033 -0.3277
43256SOL    HW136629   3.465   1.524  10.118 -1.4691 -0.5337  0.0222
43256SOL    HW236630   3.461   1.672  10.086 -0.7860 -0.3081  0.9324
43257SOL     OW36631   3.077   2.024   0.780 -0.0140 -0.4008 -0.8223
43257SOL    HW136632   3.146   1.959   0.776 -1.6285 -2.1780 -1.3068
43257SOL    HW236633   3.118   2.101   0.820  1.5752 -2.2377  1.2973
43258SOL     OW36634  11.404   1.822   0.056  0.5015 -0.5198 -0.1932
43258SOL    HW136635  11.431   1.733   0.036 -0.9054 -0.6483 -1.7912
43258SOL    HW236636  11.465   1.852   0.123  2.1884 -2.0127 -0.9943
43259SOL     OW36637  10.679   9.064   9.623  0.9019 -0.0383  0.3290
43259SOL    HW136638  10.732   8.996   9.665  0.9222 -0.2199  0.0106
43259SOL    HW236639  10.715   9.072   9.535  0.6382  0.0993  0.2317
43260SOL     OW36640   4.162   1.407   1.665  0.0603  0.2702 -0.3698
43260SOL    HW136641   4.159   1.462   1.586  0.5024  1.8948  0.6888
43260SOL    HW236642   4.249   1.423   1.701  0.6381 -2.0571 -0.6092
43261SOL     OW36643   8.356   0.989   3.460 -0.3376  0.2329  0.3054
43261SOL    HW136644   8.325   1.039   3.384  0.6804  1.2868  0.5569
43261SOL    HW236645   8.286   0.998   3.524 -1.8851 -1.8613 -0.9350
43262SOL     OW36646   5.950   5.423   4.814 -0.6321 -0.2872  0.0612
43262SOL    HW136647   5.965   5.475   4.893 -0.7453  1.8738 -1.2335
43262SOL    HW236648   5.911   5.342   4.845  0.3847  0.0086  2.2953
43263SOL     OW36649   8.905   8.885   2.826  0.1088  0.0585  0.9749
43263SOL    HW136650   8.909   8.790   2.836  0.6568  0.1131  1.3095
43263SOL    HW236651   8.959   8.919   2.898  0.8055  0.5855  0.2290
43264SOL     OW36652  12.326   6.922   9.042  0.8665  0.2080 -0.4792
43264SOL    HW136653  12.384   6.850   9.017  0.7773 -0.0161 -0.0433
43264SOL    HW236654  12.240   6.881   9.053  0.3614  0.7169 -2.2181
43265SOL     OW36655   7.396   9.756   0.083 -0.1888  0.3544  0.2501
43265SOL    HW136656   7.371   9.666   0.105 -1.2971  0.4869 -0.3984
43265SOL    HW236657   7.490   9.759   0.100 -0.3563 -0.5583  1.4816
43266SOL     OW36658   9.938  12.167   0.727 -0.0731  0.2662  0.4868
43266SOL    HW136659   9.912  12.252   0.764 -0.2584  0.1319  0.6684
43266SOL    HW236660  10.027  12.181   0.695  0.3067  0.2411  1.4758
43267SOL     OW36661   5.415   0.066   4.549  0.3814 -0.0816  0.0753
43267SOL    HW136662   5.504   0.037   4.528  0.8501  1.7459 -0.7042
43267SOL    HW236663   5.420   0.093   4.641  0.8862  0.7888 -0.1908
43268SOL     OW36664   9.553   0.189  10.202  0.2772  0.0088 -0.1769
43268SOL    HW136665   9.502   0.128  10.149  0.3792 -0.4207  0.2089
43268SOL    HW236666   9.489   0.227  10.262  0.2212  0.2512 -0.3884
43269SOL     OW36667  12.381   9.194   1.035 -0.2197 -0.0731 -0.3252
43269SOL    HW136668  12.407   9.233   0.952 -0.8280 -1.5880 -1.2461
43269SOL    HW236669  12.286   9.202   1.037 -0.0964  2.0234  1.3142
43270SOL     OW36670   2.571   8.472  11.483 -0.0247  0.4222  0.8817
43270SOL    HW136671   2.562   8.388  11.527  0.1861  0.6557  1.3846
43270SOL    HW236672   2.665   8.478  11.463 -0.3822 -0.5363 -1.3542
43271SOL     OW36673  11.558   8.745   9.175 -0.5639  0.6726 -0.2290
43271SOL    HW136674  11.637   8.727   9.126 -0.6338  1.1120 -0.5129
43271SOL    HW236675  11.536   8.836   9.153 -1.2023  0.5240 -0.2404
43272SOL     OW36676  11.623   1.608   2.404 -0.2160  0.2372  0.1118
43272SOL    HW136677  11.568   1.662   2.348 -2.1686 -1.5540  0.1625
43272SOL    HW236678  11.600   1.518   2.381  3.4279 -0.7200 -0.5034
43273SOL     OW36679  10.577   6.802   3.237 -0.2846  0.0152 -0.2376
43273SOL    HW136680  10.600   6.709   3.242 -0.5966  0.0022  1.5370
43273SOL    HW236681  10.592   6.835   3.325  0.5206  1.8405 -1.0179
43274SOL     OW36682   5.181  12.344   4.306 -0.2748 -0.0133  0.0389
43274SOL    HW136683   5.153  12.355   4.397  0.4226  0.9869  0.1408
43274SOL    HW236684   5.274  12.321   4.312 -0.7095 -2.1043 -0.3515
43275SOL     OW36685   2.406   0.425  10.978 -0.2991 -0.1683  0.1735
43275SOL    HW136686   2.378   0.397  11.065 -0.5019 -3.2234 -0.7666
43275SOL    HW236687   2.331   0.405  10.922  0.6153 -0.2732 -1.0276
43276SOL     OW36688   6.766   0.725   4.356 -0.0375  0.0640 -0.0610
43276SOL    HW136689   6.762   0.760   4.267  0.9569  1.1497  0.2987
43276SOL    HW236690   6.695   0.770   4.402  0.1666  0.3521 -0.0251
43277SOL     OW36691   6.176   8.032   5.769  0.7640  0.0568 -0.0503
43277SOL    HW136692   6.220   8.116   5.781  0.8286  0.2505 -1.5043
43277SOL    HW236693   6.106   8.033   5.834 -0.1123  1.8727 -0.9394
43278SOL     OW36694   9.972   1.374   4.364 -0.4833  0.0345  0.4231
43278SOL    HW136695   9.924   1.396   4.284 -0.7792 -4.3802 -0.8583
43278SOL    HW236696  10.063   1.393   4.344 -0.7693  0.8270 -0.1821
43279SOL     OW36697  10.091   4.094  10.974 -0.5270 -0.0724  0.1486
43279SOL    HW136698  10.102   4.168  10.915 -0.5359 -1.3611 -1.5345
43279SOL    HW236699  10.178   4.052  10.976 -0.7771 -0.5932  0.2686
43280SOL     OW36700   1.032   4.850   8.796  0.0390  0.2565 -0.0718
43280SOL    HW136701   1.013   4.797   8.873 -0.8027  0.4868 -0.1088
43280SOL    HW236702   1.119   4.887   8.813 -0.2300  0.4812  0.8702
43281SOL     OW36703   4.099   7.230   5.798  0.1266  0.0406 -0.7189
43281SOL    HW136704   4.172   7.172   5.780 -0.9469 -1.6382  0.1230
43281SOL    HW236705   4.083   7.221   5.892 -2.9683 -1.9687 -1.2879
43282SOL     OW36706   4.502   7.403   5.370 -0.0525  0.1515 -0.1813
43282SOL    HW136707   4.515   7.476   5.310 -0.5765 -1.2596 -2.1193
43282SOL    HW236708   4.589   7.365   5.381 -0.0712 -0.0303 -0.6541
43283SOL     OW36709  11.141   5.103   2.856 -0.0124  0.0688  0.2217
43283SOL    HW136710  11.175   5.014   2.860  0.3195  0.0854 -1.4404
43283SOL    HW236711  11.051   5.096   2.886  0.1240 -0.7605  0.4615
43284SOL     OW36712  10.165   4.498   3.764  0.3591 -0.4437  0.2480
43284SOL    HW136713  10.251   4.457   3.754 -0.0967 -1.2666 -0.4261
43284SOL    HW236714  10.107   4.448   3.705 -0.5826  0.0850  0.6975
43285SOL     OW36715   6.219   0.098   1.205  0.0582  0.1449  0.4779
43285SOL    HW136716   6.127   0.090   1.180 -0.3787  1.3079  1.5978
43285SOL    HW236717   6.266   0.100   1.122 -0.8174 -1.3739 -0.0976
43286SOL     OW36718   0.947   7.303   0.129 -0.0546  0.4228 -0.2548
43286SOL    HW136719   0.904   7.330   0.048 -1.3910  0.3391  0.4000
43286SOL    HW236720   1.040   7.299   0.106 -0.4076  0.3210 -1.7930
43287SOL     OW36721  11.436   4.705   6.827 -0.4171  0.4539 -0.3212
43287SOL    HW136722  11.519   4.737   6.862  0.9871 -3.3696  0.2480
43287SOL    HW236723  11.374   4.718   6.899  0.6147 -0.1427  0.7108
43288SOL     OW36724   3.704   1.534   9.884  0.4986 -0.3080  0.0508
43288SOL    HW136725   3.628   1.478   9.872 -0.5496  0.9783  0.4815
43288SOL    HW236726   3.677   1.620   9.852  1.6595  0.2589  0.5025
43289SOL     OW36727   6.815  12.314   7.389 -0.0622 -0.2030  0.0181
43289SOL    HW136728   6.881  12.341   7.326  0.0730 -1.1585 -0.2682
43289SOL    HW236729   6.839  12.224   7.412  0.0416  0.2102  1.6304
43290SOL     OW36730   6.250  12.107   2.414  0.0439  0.1065  0.2257
43290SOL    HW136731   6.306  12.046   2.365 -0.8432 -0.4875 -0.0716
43290SOL    HW236732   6.265  12.084   2.506 -0.2251 -0.5230  0.1184
43291SOL     OW36733   5.075   5.773   4.945  0.0566 -0.4122 -0.0280
43291SOL    HW136734   5.162   5.733   4.948  0.0958 -0.3133  0.1960
43291SOL    HW236735   5.070   5.811   4.857  1.6497  2.6737  1.0770
43292SOL     OW36736  12.062   5.922   6.086 -0.3011  0.7547  0.0112
43292SOL    HW136737  12.088   5.926   5.994  1.5366  0.7287  0.4869
43292SOL    HW236738  11.966   5.923   6.084 -0.3737 -1.5773 -1.9885
43293SOL     OW36739   6.304   9.609   3.422  0.1543 -0.3130  0.4085
43293SOL    HW136740   6.359   9.627   3.499  0.4931 -0.9008  0.3134
43293SOL    HW236741   6.311   9.515   3.409 -2.0562 -0.6366  1.2569
43294SOL     OW36742  11.598   1.650   0.338 -0.1836 -0.5946 -0.5691
43294SOL    HW136743  11.511   1.670   0.372  0.3316  0.9844 -0.0754
43294SOL    HW236744  11.620   1.725   0.282  1.2843 -0.4239  0.1825
43295SOL     OW36745  10.078   1.497   2.892  0.3978 -0.1434 -0.4131
43295SOL    HW136746  10.025   1.484   2.813  1.0867 -0.4678 -0.8304
43295SOL    HW236747  10.165   1.467   2.867  0.5210 -0.6673  0.6130
43296SOL     OW36748   5.822  11.795  11.662 -0.3223 -0.5452 -0.4897
43296SOL    HW136749   5.888  11.760  11.722 -0.3425  1.3853  0.7144
43296SOL    HW236750   5.852  11.766  11.575  1.5164 -0.6276  0.1266
43297SOL     OW36751   5.083   0.561   1.209 -0.2714  0.2536  0.4730
43297SOL    HW136752   5.064   0.561   1.115 -0.4420  0.4133  0.5056
43297SOL    HW236753   4.998   0.579   1.251 -0.2739 -0.2287  0.6758
43298SOL     OW36754   9.978   2.305   0.256 -0.1944  0.1844  0.2107
43298SOL    HW136755   9.892   2.305   0.298 -0.3475 -1.4786 -0.0383
43298SOL    HW236756   9.975   2.231   0.195  1.2501  0.3881 -0.1434
43299SOL     OW36757   4.851   0.831   0.987 -0.1245 -0.4366  0.4568
43299SOL    HW136758   4.860   0.743   0.948  0.4450 -0.0576 -0.3036
43299SOL    HW236759   4.805   0.882   0.920  1.4639  0.4123 -0.0469
43300SOL     OW36760  10.406   6.597   5.612 -0.0097 -0.0633 -0.0089
43300SOL    HW136761  10.333   6.536   5.625 -1.1066  0.9241 -1.2276
43300SOL    HW236762  10.367   6.684   5.623  0.4111  0.5924 -2.8866
43301SOL     OW36763   2.072   1.221  11.407  0.0556 -0.4297 -0.5157
43301SOL    HW136764   2.111   1.231  11.320  0.4992 -0.8355 -0.3694
43301SOL    HW236765   2.146   1.231  11.467 -0.4019  0.8834 -0.1224
43302SOL     OW36766   4.840  11.577   7.816 -0.5776 -0.0753 -0.4756
43302SOL    HW136767   4.774  11.512   7.842 -1.0639  1.3632  2.2547
43302SOL    HW236768   4.912  11.563   7.878 -0.1335  1.1030 -0.7048
43303SOL     OW36769   9.588  11.512   6.406 -0.1009  0.2373 -0.0286
43303SOL    HW136770   9.607  11.599   6.439  2.2959  0.0285 -0.6725
43303SOL    HW236771   9.655  11.496   6.340 -2.7393 -0.6274 -2.7138
43304SOL     OW36772   2.807   8.616  10.601 -0.5197  0.1103  0.4332
43304SOL    HW136773   2.713   8.634  10.609 -1.0026 -1.6249 -0.8657
43304SOL    HW236774   2.813   8.545  10.537  1.9601  3.2253 -3.2920
43305SOL     OW36775   9.559   1.353   2.759  0.1414  0.3096 -0.2678
43305SOL    HW136776   9.635   1.356   2.817 -0.0334  0.9900 -0.0754
43305SOL    HW236777   9.484   1.369   2.817 -0.1021  0.2057 -0.5524
43306SOL     OW36778  10.137   8.223   0.530 -0.0271  0.4071 -0.3234
43306SOL    HW136779  10.209   8.214   0.468  1.0298  0.3508  0.8532
43306SOL    HW236780  10.062   8.249   0.477  0.7167 -0.0852 -1.6675
43307SOL     OW36781   7.408  11.914   3.594  0.0005 -0.3991 -0.6367
43307SOL    HW136782   7.500  11.899   3.617  0.1629  0.3603 -0.7530
43307SOL    HW236783   7.359  11.854   3.650  0.3201  1.8415  2.3586
43308SOL     OW36784   5.341   3.166   7.063  0.1267 -0.0761 -0.2202
43308SOL    HW136785   5.364   3.245   7.113 -0.9756 -0.3477  0.7559
43308SOL    HW236786   5.284   3.198   6.993 -0.4989 -0.0166  0.3055
43309SOL     OW36787   8.128  10.440   4.988  0.2615  0.0856 -0.2340
43309SOL    HW136788   8.201  10.447   4.926  2.1390 -0.2603  1.7791
43309SOL    HW236789   8.076  10.519   4.972  1.9164  1.1420 -0.7866
43310SOL     OW36790   4.916  10.861   6.793 -0.2108 -0.0130  0.0242
43310SOL    HW136791   4.890  10.845   6.883  1.1221 -0.2188  0.3908
43310SOL    HW236792   4.855  10.809   6.741 -3.0918  2.5959  0.5451
43311SOL     OW36793   6.318   3.777  11.273 -0.1031 -0.0106  0.9024
43311SOL    HW136794   6.352   3.830  11.346 -2.2558 -1.0640  2.8319
43311SOL    HW236795   6.256   3.835  11.228  0.8651  0.4898  0.2008
43312SOL     OW36796   6.125   0.977   8.964 -0.3541 -0.5340  0.0151
43312SOL    HW136797   6.033   0.966   8.989 -0.3841 -1.7563 -0.5471
43312SOL    HW236798   6.123   1.038   8.890 -0.6090  0.1904  0.6063
43313SOL     OW36799  11.630  10.660   8.315 -0.1719  0.6643 -0.4800
43313SOL    HW136800  11.579  10.714   8.254 -0.5221 -1.9437 -2.6687
43313SOL    HW236801  11.571  10.646   8.389 -0.7976  1.6310 -0.7750
43314SOL     OW36802   1.480   7.829   2.952  0.6588 -0.0356  0.5384
43314SOL    HW136803   1.387   7.815   2.932  1.4668 -2.9401 -1.8174
43314SOL    HW236804   1.490   7.925   2.952 -1.8382  0.3531 -1.7341
43315SOL     OW36805   4.413   9.457   9.281  0.1877  0.5675  0.0987
43315SOL    HW136806   4.482   9.471   9.216  0.0969  2.1554  0.2983
43315SOL    HW236807   4.440   9.511   9.355 -1.1394  0.9980  0.2876
43316SOL     OW36808   2.250   9.868   1.175 -0.6028  0.4101  0.2164
43316SOL    HW136809   2.175   9.866   1.115 -0.7012 -0.2470  0.3578
43316SOL    HW236810   2.286   9.780   1.172 -2.3553 -0.5557  3.2986
43317SOL     OW36811   3.067  12.376   3.004  0.1263  0.1117  0.0347
43317SOL    HW136812   3.150  12.352   3.046 -0.5255 -2.2526  0.0847
43317SOL    HW236813   3.085  12.370   2.910  0.3641  0.9812  0.0152
43318SOL     OW36814   0.539   8.773   1.142  0.7657 -0.0771 -0.2222
43318SOL    HW136815   0.542   8.805   1.233 -3.1905  1.1041 -0.3205
43318SOL    HW236816   0.485   8.694   1.146 -0.3291  0.5526 -1.6059
43319SOL     OW36817   6.508   1.216  11.409 -0.2180  0.0425 -0.2721
43319SOL    HW136818   6.453   1.182  11.479  0.0477  0.3208  0.0707
43319SOL    HW236819   6.457   1.288  11.371 -0.8160 -0.7575 -1.0498
43320SOL     OW36820   6.462   3.402   3.493  0.2292  0.1534 -0.0459
43320SOL    HW136821   6.539   3.385   3.438  0.3341 -0.6470  0.3320
43320SOL    HW236822   6.496   3.449   3.568  0.1532  0.8635 -0.4455
43321SOL     OW36823   6.498   9.599   9.746 -0.0298  0.1784  0.2760
43321SOL    HW136824   6.424   9.659   9.741 -0.2943 -0.2079 -0.7471
43321SOL    HW236825   6.483   9.550   9.827 -0.0071  1.2140  0.9266
43322SOL     OW36826   0.663   0.610   3.036  0.2415  0.7962 -0.2241
43322SOL    HW136827   0.608   0.644   3.106 -1.0291 -0.3261 -0.6260
43322SOL    HW236828   0.716   0.542   3.078 -0.3305  0.3079 -0.2742
43323SOL     OW36829   3.904   2.921   0.832  0.0418  0.1727 -0.4566
43323SOL    HW136830   3.813   2.951   0.839 -0.4485 -1.5067  1.2219
43323SOL    HW236831   3.951   2.969   0.900 -0.2675 -1.0738  0.6897
43324SOL     OW36832   4.739   5.292  10.854  0.2404  0.0852 -0.2187
43324SOL    HW136833   4.820   5.342  10.863  0.4862 -0.4385  0.5837
43324SOL    HW236834   4.689   5.311  10.933 -0.5327  0.5648 -0.7962
43325SOL     OW36835   7.844   9.993   0.330  0.6934 -0.0272  0.1722
43325SOL    HW136836   7.836   9.940   0.410  2.1538  1.7801  1.6001
43325SOL    HW236837   7.937   9.992   0.311  0.3232 -0.7466 -1.8053
43326SOL     OW36838   7.056   3.402  10.538 -0.5303  0.1517 -0.4803
43326SOL    HW136839   7.066   3.321  10.488  2.7825 -0.7595  1.3925
43326SOL    HW236840   7.058   3.471  10.471 -2.0212 -1.1629 -1.9903
43327SOL     OW36841   5.585   8.134   7.164 -0.1032 -0.2853 -0.2271
43327SOL    HW136842   5.594   8.097   7.077 -2.1577 -0.8042 -0.2724
43327SOL    HW236843   5.589   8.229   7.150  1.1636 -0.3841 -0.6428
43328SOL     OW36844   8.323   4.188  10.622 -0.0992  0.9849  0.0529
43328SOL    HW136845   8.282   4.275  10.615 -1.2589  0.3479 -1.7138
43328SOL    HW236846   8.249   4.128  10.627  0.6520 -0.0848 -1.2856
43329SOL     OW36847   0.353   9.156   1.803 -0.3250 -0.0151 -0.0359
43329SOL    HW136848   0.273   9.137   1.755 -0.9483 -1.0268  1.3164
43329SOL    HW236849   0.334   9.128   1.893  1.7389 -0.8621  0.2088
43330SOL     OW36850   7.272   8.257   0.065 -0.7533  0.3622  0.3078
43330SOL    HW136851   7.347   8.225   0.115  0.3695  2.4342  0.0916
43330SOL    HW236852   7.301   8.251  -0.027 -0.9639  0.8885  0.2039
43331SOL     OW36853  12.241  11.341   2.472  0.3813  0.3523  0.1457
43331SOL    HW136854  12.303  11.269   2.475  0.0282  0.0638  0.5892
43331SOL    HW236855  12.215  11.355   2.563  1.1702  1.6807  0.1891
43332SOL     OW36856   8.683   8.221   3.423 -0.1432 -0.0356 -0.2636
43332SOL    HW136857   8.725   8.171   3.494 -0.2655  0.1845 -0.0321
43332SOL    HW236858   8.681   8.161   3.349  0.2579 -0.1717 -0.1705
43333SOL     OW36859   0.583   4.767  11.082  0.3253  0.0370  0.5800
43333SOL    HW136860   0.557   4.853  11.114  0.7563  0.1368  0.6699
43333SOL    HW236861   0.668   4.750  11.123  1.3955  0.6092 -1.2488
43334SOL     OW36862   2.699   9.845   3.395 -0.1087  0.1225 -0.3451
43334SOL    HW136863   2.756   9.912   3.356 -0.0214  0.7987  0.8857
43334SOL    HW236864   2.759   9.773   3.415 -0.1349 -0.1819 -1.3311
43335SOL     OW36865  11.320   8.226   8.948 -0.1644  0.2679  0.1226
43335SOL    HW136866  11.402   8.233   8.996  1.5524  0.7589 -2.6627
43335SOL    HW236867  11.333   8.153   8.888 -1.3733  0.9331 -1.0167
43336SOL     OW36868   3.601   5.730   1.571  0.3232 -0.4335  0.1954
43336SOL    HW136869   3.606   5.707   1.478  0.0717 -2.2684  0.5955
43336SOL    HW236870   3.520   5.689   1.601  2.0241 -2.7633  1.9245
43337SOL     OW36871   5.934   2.288   3.271  0.2682 -0.2461  0.5276
43337SOL    HW136872   5.933   2.362   3.331 -1.1624  0.1087  0.1002
43337SOL    HW236873   5.864   2.307   3.208 -0.1048 -1.9369  0.3817
43338SOL     OW36874   9.306   3.788   7.025  0.2524 -0.5922  0.0326
43338SOL    HW136875   9.264   3.796   6.939 -0.0575  0.4490  0.2608
43338SOL    HW236876   9.399   3.804   7.007 -0.0450  1.4786  0.1203
43339SOL     OW36877   3.325   4.477   1.873 -0.0703 -0.0181  0.3085
43339SOL    HW136878   3.336   4.477   1.778 -1.0217 -0.3720  0.1849
43339SOL    HW236879   3.287   4.391   1.892  0.0681  0.0702  1.0104
43340SOL     OW36880   4.179  10.733  11.218 -0.3947 -0.1213  0.8215
43340SOL    HW136881   4.166  10.732  11.313 -3.0115 -0.6145  0.5357
43340SOL    HW236882   4.253  10.792  11.204 -1.4068  1.8201  3.0411
43341SOL     OW36883   4.156  12.306  12.412 -0.1184  0.0481 -0.1547
43341SOL    HW136884   4.191  12.221  12.440  0.9609 -0.2781 -2.3072
43341SOL    HW236885   4.165  12.306  12.317 -1.8150  1.8568 -0.3798
43342SOL     OW36886   8.757   6.710   6.870  0.2489  0.4069  0.0391
43342SOL    HW136887   8.846   6.701   6.838 -0.3088  0.4445 -1.6002
43342SOL    HW236888   8.736   6.803   6.857 -0.8309 -0.0562 -1.9033
43343SOL     OW36889   5.970   8.758  12.222 -0.0379  0.2300 -0.3102
43343SOL    HW136890   5.926   8.829  12.176  0.1584 -0.5063 -1.6687
43343SOL    HW236891   6.044   8.801  12.265 -0.7450  1.0817  0.1075
43344SOL     OW36892   6.957   7.746   2.378 -0.2392 -0.1399  0.1735
43344SOL    HW136893   7.018   7.726   2.307 -0.4411 -0.6583  0.1423
43344SOL    HW236894   7.000   7.815   2.428  0.5299 -0.7509  0.3554
43345SOL     OW36895   0.882   7.466   1.052 -0.3571  0.5512  0.3313
43345SOL    HW136896   0.905   7.387   1.002  0.4635  1.0018 -0.0139
43345SOL    HW236897   0.903   7.445   1.142  1.8665  1.0847 -0.0114
43346SOL     OW36898   5.608  11.680   4.798  0.0317  0.1908 -0.0510
43346SOL    HW136899   5.695  11.702   4.829 -0.1979 -0.8280  1.4225
43346SOL    HW236900   5.548  11.724   4.859 -0.4370 -1.0882  0.4582
43347SOL     OW36901   2.874   6.444   0.264 -0.1074 -0.0892 -0.0596
43347SOL    HW136902   2.812   6.398   0.321  0.3309 -0.1410  0.3797
43347SOL    HW236903   2.827   6.524   0.237 -0.2899 -0.0247  0.4399
43348SOL     OW36904   1.315   6.781   5.281 -0.2727 -0.0768 -0.2339
43348SOL    HW136905   1.222   6.804   5.281 -0.1302  0.5362  0.5701
43348SOL    HW236906   1.360   6.862   5.303  0.2888 -0.9015  1.9220
43349SOL     OW36907  12.329   2.193   2.724  0.0573  0.2987 -0.3384
43349SOL    HW136908  12.263   2.132   2.756 -1.5726  1.8990 -0.5395
43349SOL    HW236909  12.306   2.210   2.633  1.6812 -0.2986 -0.8986
43350SOL     OW36910  10.108   0.393   2.100  1.2586 -0.4997  0.1494
43350SOL    HW136911  10.109   0.383   2.195  0.8490  0.5239  0.2672
43350SOL    HW236912  10.199   0.378   2.074  1.6460  0.5107  0.8535
43351SOL     OW36913   4.880   3.836   5.455 -0.4350  0.4659  0.9670
43351SOL    HW136914   4.928   3.788   5.523 -1.7610 -1.9848  0.3031
43351SOL    HW236915   4.789   3.836   5.486 -1.1778 -1.2074 -0.9656
43352SOL     OW36916   0.726   7.652  11.940  0.5160  0.6003 -0.3631
43352SOL    HW136917   0.809   7.628  11.981 -1.6784 -3.1711  2.4907
43352SOL    HW236918   0.713   7.587  11.871  0.5591  2.1110 -1.8505
43353SOL     OW36919   3.572   9.436   9.759  0.0250 -0.5038 -0.6623
43353SOL    HW136920   3.614   9.381   9.825  1.0010  1.0579  0.1001
43353SOL    HW236921   3.480   9.409   9.759  0.1586 -1.0478  0.8098
43354SOL     OW36922   3.344   9.524   0.858  0.1913  0.2991  0.0668
43354SOL    HW136923   3.359   9.595   0.921 -0.9509  1.3252 -0.7669
43354SOL    HW236924   3.427   9.516   0.811  0.8386 -0.0214  1.2276
43355SOL     OW36925   4.808  10.726   3.637  0.1365 -0.2601  0.0707
43355SOL    HW136926   4.867  10.800   3.653 -0.3254 -0.2828  2.1358
43355SOL    HW236927   4.727  10.749   3.682 -1.2978 -0.4992 -2.2068
43356SOL     OW36928   7.412   1.554   1.802  0.4947 -0.1498 -0.0270
43356SOL    HW136929   7.405   1.580   1.894  2.3229  0.2424  0.0323
43356SOL    HW236930   7.410   1.458   1.804 -1.0278 -0.1298  0.2521
43357SOL     OW36931   0.405   4.786   3.936 -0.1609 -0.3680 -0.2623
43357SOL    HW136932   0.391   4.796   3.841  3.2091 -1.9979 -1.1086
43357SOL    HW236933   0.494   4.750   3.943 -0.7188 -1.4383  3.5065
43358SOL     OW36934   9.716   8.906   1.063 -0.1808  0.2206  0.7291
43358SOL    HW136935   9.724   8.869   1.151 -0.6548 -1.9936 -0.1020
43358SOL    HW236936   9.804   8.897   1.025 -0.1364  0.5863  0.7378
43359SOL     OW36937   9.188   4.025   4.041  0.5083 -0.4092  0.4745
43359SOL    HW136938   9.195   3.947   4.096  2.0193 -0.2380  0.5763
43359SOL    HW236939   9.273   4.068   4.050  0.4919  0.0766 -1.3500
43360SOL     OW36940   7.945   6.739  10.479 -0.1116  0.6360 -0.3992
43360SOL    HW136941   7.971   6.707  10.565 -1.3740  0.5041 -0.0501
43360SOL    HW236942   8.025   6.732  10.426  0.3023 -0.6660  0.3526
43361SOL     OW36943   1.505   3.314   0.819  0.0615 -0.4832 -0.4940
43361SOL    HW136944   1.499   3.221   0.838 -0.7211 -0.0276  1.8912
43361SOL    HW236945   1.599   3.332   0.814  0.3231 -1.0305  1.5135
43362SOL     OW36946   3.206   2.408  10.539  0.3409 -0.4930 -0.2215
43362SOL    HW136947   3.272   2.380  10.475  0.4730 -1.8399  0.4558
43362SOL    HW236948   3.123   2.379  10.502  0.4811 -1.9305  0.4980
43363SOL     OW36949   3.198   0.103  11.323  0.2921  0.1749 -0.3615
43363SOL    HW136950   3.129   0.038  11.330 -0.6892  1.2211  0.2018
43363SOL    HW236951   3.252   0.075  11.249 -0.5352 -0.8454 -0.5947
43364SOL     OW36952   3.377   7.867   5.498 -0.2561  0.0179 -0.4282
43364SOL    HW136953   3.349   7.783   5.535  2.3327 -1.4679 -1.5829
43364SOL    HW236954   3.458   7.847   5.450  1.0282  3.3455  0.0436
43365SOL     OW36955   8.941   9.714   2.301 -0.3848 -0.2459 -0.6293
43365SOL    HW136956   8.998   9.771   2.249  1.0677 -1.3824 -0.3800
43365SOL    HW236957   8.876   9.682   2.239 -1.2201  1.6019 -0.7813
43366SOL     OW36958   9.520  12.014   5.937 -0.2038  0.0495  0.3637
43366SOL    HW136959   9.439  11.963   5.943 -0.6917  0.8880  1.2149
43366SOL    HW236960   9.590  11.950   5.948 -0.7984 -0.4836  1.1918
43367SOL     OW36961   0.942   7.167   4.564  0.0999  0.1158 -0.0113
43367SOL    HW136962   1.015   7.151   4.624  0.5872  2.2156  0.0410
43367SOL    HW236963   0.867   7.122   4.604  0.9510 -0.5640  0.8647
43368SOL     OW36964   7.132   3.545   9.558  0.1617 -0.5686 -0.5167
43368SOL    HW136965   7.211   3.491   9.546  1.1738  0.2109  1.8737
43368SOL    HW236966   7.064   3.482   9.580  0.2865 -1.1840 -1.7765
43369SOL     OW36967   0.029   6.236   7.703  0.0553  0.6358  0.2361
43369SOL    HW136968   0.021   6.142   7.686  0.2461  0.5531  0.5860
43369SOL    HW236969   0.099   6.265   7.644 -1.3770  0.9753 -1.3843
43370SOL     OW36970  10.098   2.721   0.960  0.5256  0.3939 -0.7329
43370SOL    HW136971  10.044   2.670   0.899  0.0226  0.7730 -0.6102
43370SOL    HW236972  10.059   2.705   1.046 -0.8034  2.4043 -0.8865
43371SOL     OW36973   1.547   2.115  11.001 -0.4505 -0.0624 -0.4372
43371SOL    HW136974   1.632   2.101  10.959 -0.0165  0.2578  0.3137
43371SOL    HW236975   1.491   2.045  10.967  0.5130 -1.1352  0.1284
43372SOL     OW36976   1.367   6.223   3.151 -0.1973 -0.2765  0.0805
43372SOL    HW136977   1.434   6.177   3.101  1.4878  1.5060  0.5752
43372SOL    HW236978   1.304   6.254   3.085  0.0417 -1.0258 -0.5086
43373SOL     OW36979   5.297   1.258   3.514 -0.7411 -0.3375  0.1884
43373SOL    HW136980   5.391   1.259   3.497 -0.6885  1.2496  0.3962
43373SOL    HW236981   5.285   1.191   3.581  0.3546 -0.0300  0.7164
43374SOL     OW36982   5.776   2.170   3.786  0.4249  0.5773  0.6758
43374SOL    HW136983   5.702   2.229   3.774 -2.9118 -2.8777  2.2502
43374SOL    HW236984   5.795   2.136   3.698 -0.7389  0.6330  0.3863
43375SOL     OW36985   1.880   8.578   3.580  0.6108  0.1898  0.1358
43375SOL    HW136986   1.827   8.498   3.575 -0.5431  0.9410  0.0097
43375SOL    HW236987   1.948   8.565   3.514 -1.0883  0.3740 -1.7382
43376SOL     OW36988   4.292   4.145  10.180 -0.2923  0.4411 -0.1248
43376SOL    HW136989   4.202   4.169  10.161 -0.6556  1.5309  2.5137
43376SOL    HW236990   4.344   4.220  10.149 -0.4197  0.4126 -0.4121
43377SOL     OW36991  10.128  10.539   4.054 -0.4732 -0.9320  0.2040
43377SOL    HW136992  10.040  10.574   4.041 -1.1153 -2.8337 -0.7972
43377SOL    HW236993  10.134  10.525   4.149 -0.7694  0.3440  0.4317
43378SOL     OW36994   5.141  10.387   0.097 -0.3375  0.0230 -0.2146
43378SOL    HW136995   5.220  10.374   0.044 -1.6159 -1.9685 -1.7880
43378SOL    HW236996   5.071  10.397   0.033 -1.4514  1.5702  1.1463
43379SOL     OW36997  11.247   1.835   8.537 -0.0089  0.1320 -0.1784
43379SOL    HW136998  11.337   1.818   8.564 -0.3934  0.6168  1.5493
43379SOL    HW236999  11.219   1.908   8.592 -1.2957  0.3504 -1.0659
43380SOL     OW37000   0.281   9.313   0.664 -0.2255  0.2902 -0.4734
43380SOL    HW137001   0.360   9.276   0.624  0.3800  2.1336 -1.0459
43380SOL    HW237002   0.272   9.265   0.747  1.2533 -0.2265 -0.5848
43381SOL     OW37003   8.240   5.733   7.011 -0.1345  0.4504  0.0140
43381SOL    HW137004   8.230   5.699   6.922  0.7318  2.1654 -0.8051
43381SOL    HW237005   8.158   5.777   7.030 -0.1193  0.5569 -0.1652
43382SOL     OW37006   5.641   6.243   4.926  0.2047  0.4541  0.7274
43382SOL    HW137007   5.546   6.253   4.918  0.3783  1.4550 -0.2815
43382SOL    HW237008   5.673   6.244   4.835  0.9672 -2.3806  0.8779
43383SOL     OW37009   2.234   6.975   6.848 -0.3364 -0.9909  0.1932
43383SOL    HW137010   2.161   7.012   6.799 -0.4391  0.1872  1.1681
43383SOL    HW237011   2.298   7.046   6.852  1.3388 -2.3090 -1.4872
43384SOL     OW37012  11.655   8.970   5.614  0.1595 -0.0691  0.1132
43384SOL    HW137013  11.606   8.953   5.694 -1.5642  1.0177 -0.6549
43384SOL    HW237014  11.717   8.897   5.608 -0.7019 -0.9841  1.6216
43385SOL     OW37015  11.909   1.198   8.173 -0.3561  0.5009  0.1770
43385SOL    HW137016  11.983   1.172   8.119  0.0989  0.5857  0.7597
43385SOL    HW237017  11.928   1.163   8.260 -0.4351  1.5205  0.6159
43386SOL     OW37018   5.038   9.868   8.706  0.1592  0.6649 -0.3854
43386SOL    HW137019   5.038   9.961   8.726 -2.3075  0.9021 -1.2128
43386SOL    HW237020   5.068   9.863   8.615 -0.6280  0.7439 -0.6508
43387SOL     OW37021   8.984  11.624   6.651  0.0845  0.5301 -0.6497
43387SOL    HW137022   8.964  11.671   6.732  1.7155  0.4431 -0.1569
43387SOL    HW237023   8.979  11.531   6.676 -1.5971  0.4107 -1.2407
43388SOL     OW37024   5.348   8.615   3.022  0.1366 -0.4324 -0.4871
43388SOL    HW137025   5.259   8.592   3.049 -0.0235  0.9061  0.2357
43388SOL    HW237026   5.337   8.676   2.949  0.4395 -0.0200 -0.1965
43389SOL     OW37027  11.329   8.296   2.038  0.2648  0.5817  0.4024
43389SOL    HW137028  11.237   8.310   2.057 -0.7005 -2.1779 -1.5050
43389SOL    HW237029  11.355   8.224   2.095  0.2573 -0.7947 -1.2479
43390SOL     OW37030   4.609   0.842  12.189  0.3305  0.1769 -0.1177
43390SOL    HW137031   4.663   0.814  12.263 -0.3386  1.7256  1.0071
43390SOL    HW237032   4.659   0.816  12.112  0.8349 -1.9208  0.8387
43391SOL     OW37033  12.219   6.074   8.449 -0.1824 -0.5700  0.4514
43391SOL    HW137034  12.288   6.068   8.383  0.6277  0.0790  1.2205
43391SOL    HW237035  12.149   6.017   8.416  0.7404 -1.2951 -0.3065
43392SOL     OW37036  10.771   4.292   1.242  0.3471  0.2263  1.0912
43392SOL    HW137037  10.826   4.217   1.265 -0.8726 -0.7322  0.9841
43392SOL    HW237038  10.831   4.354   1.201  1.2638 -0.9766  0.5503
43393SOL     OW37039   0.152   9.062  10.480  0.0532  0.2738  0.0612
43393SOL    HW137040   0.193   8.977  10.465 -1.2049 -0.1773 -0.9895
43393SOL    HW237041   0.111   9.054  10.566 -1.9855 -1.0425 -0.9444
43394SOL     OW37042   6.511   5.026   4.047  0.1318 -0.7813  0.0282
43394SOL    HW137043   6.545   5.102   4.094 -0.0309 -1.5841  1.4702
43394SOL    HW237044   6.416   5.029   4.062  0.0365 -0.8714 -0.5221
43395SOL     OW37045  12.243  12.171   8.367  0.4295 -0.0640  0.0288
43395SOL    HW137046  12.212  12.081   8.355  1.4740 -0.4860  0.4224
43395SOL    HW237047  12.288  12.192   8.285 -0.6431  0.4685 -0.4503
43396SOL     OW37048   0.935  11.792  11.735  0.0948 -0.6937 -0.0628
43396SOL    HW137049   0.998  11.828  11.797 -0.0617 -0.7120  0.1065
43396SOL    HW237050   0.971  11.814  11.649 -1.5353  2.6752 -0.0350
43397SOL     OW37051  10.122   6.421   4.996  0.2940 -0.2515 -0.1666
43397SOL    HW137052  10.203   6.467   4.977  0.3322  0.1299  0.8746
43397SOL    HW237053  10.059   6.456   4.933  1.1442 -1.2509 -1.6390
43398SOL     OW37054   5.634   5.377  10.869 -0.1090  0.1583 -0.3801
43398SOL    HW137055   5.634   5.392  10.963 -1.4510  2.0463 -0.6342
43398SOL    HW237056   5.704   5.313  10.855 -0.7547 -1.1885  2.0179
43399SOL     OW37057   8.585   7.675   7.334 -0.3886 -0.0336 -0.6195
43399SOL    HW137058   8.658   7.715   7.380 -0.2113  0.3495 -1.2196
43399SOL    HW237059   8.589   7.712   7.246 -0.3632 -1.2091 -1.1195
43400SOL     OW37060   4.438   4.686   7.254  0.4365  0.7394  0.4634
43400SOL    HW137061   4.396   4.607   7.222 -1.0407  1.7813 -0.2733
43400SOL    HW237062   4.532   4.668   7.246  0.1356 -0.9025  0.2958
43401SOL     OW37063  12.018   2.044   5.775 -0.1674  0.4825 -0.7732
43401SOL    HW137064  12.046   2.117   5.720 -0.0254  1.8561  1.0421
43401SOL    HW237065  11.950   2.080   5.831  1.3258 -0.1438  1.5992
43402SOL     OW37066   2.627   2.993   4.252 -0.0689 -0.1332  0.0466
43402SOL    HW137067   2.720   3.003   4.270 -0.2133 -1.5762  1.7934
43402SOL    HW237068   2.605   2.904   4.280 -1.9910  0.1819 -0.2710
43403SOL     OW37069   3.195  12.375   3.382 -0.5723  0.0995  0.5408
43403SOL    HW137070   3.111  12.343   3.349  0.2214  0.9670 -2.6675
43403SOL    HW237071   3.253  12.373   3.306  1.9677  0.8251  2.3170
43404SOL     OW37072  11.731   2.375   9.957  0.3916 -0.3730  0.5661
43404SOL    HW137073  11.736   2.346   9.866  0.2318  0.2497  0.3546
43404SOL    HW237074  11.817   2.413   9.976 -0.0267  0.7870  0.2201
43405SOL     OW37075   1.006   9.223   0.319 -0.3995  0.3671  0.4594
43405SOL    HW137076   1.059   9.163   0.371 -0.9246 -1.3921 -0.9055
43405SOL    HW237077   1.070   9.281   0.276  0.3236 -0.6781  0.0836
43406SOL     OW37078   1.327   7.878   7.984 -0.1988 -0.6026  0.5549
43406SOL    HW137079   1.303   7.861   7.893  0.2716 -0.2911  0.3667
43406SOL    HW237080   1.371   7.798   8.013  2.0014  0.1966 -0.3233
43407SOL     OW37081   1.305   6.957   9.566 -0.6515  0.3887  0.4061
43407SOL    HW137082   1.228   6.922   9.521  0.7230 -2.3597 -0.0640
43407SOL    HW237083   1.292   6.935   9.658  0.1236 -1.4083  0.1366
43408SOL     OW37084  11.631   9.512   5.815 -0.1961  0.5969 -0.0306
43408SOL    HW137085  11.722   9.505   5.843 -0.3056 -2.6692 -0.1361
43408SOL    HW237086  11.584   9.542   5.893  0.8323  1.5987  0.2299
43409SOL     OW37087   7.390   2.696   6.211 -0.2697  0.4631 -0.8752
43409SOL    HW137088   7.343   2.778   6.196 -1.2063 -0.1386 -1.3915
43409SOL    HW237089   7.397   2.657   6.123 -1.2056 -0.7100 -0.4586
43410SOL     OW37090   6.554   3.648  10.029  0.4417  0.0801  0.3403
43410SOL    HW137091   6.543   3.613  10.118 -0.3516  0.2913  0.3401
43410SOL    HW237092   6.648   3.648  10.014  0.6314  0.6401  1.4369
43411SOL     OW37093   3.851   6.163   7.217  0.7634 -0.0166 -0.2647
43411SOL    HW137094   3.775   6.114   7.184  1.5899 -1.3677 -0.2298
43411SOL    HW237095   3.863   6.234   7.154  0.3417 -0.6355 -1.0526
43412SOL     OW37096  11.132   8.393   4.994 -0.1010 -0.2130 -0.2528
43412SOL    HW137097  11.084   8.345   5.062 -0.1798 -0.4266 -0.4581
43412SOL    HW237098  11.224   8.380   5.017 -0.0101 -2.3038 -1.5000
43413SOL     OW37099   6.851   6.936   0.595 -0.0188  0.5560  0.1873
43413SOL    HW137100   6.853   7.026   0.564 -0.2644  0.5842  0.2538
43413SOL    HW237101   6.834   6.942   0.689 -0.4903  0.4280  0.1148
43414SOL     OW37102  10.068   2.764   8.665  0.7712  0.3462 -0.4790
43414SOL    HW137103  10.118   2.814   8.729  0.4450  0.2923 -0.1774
43414SOL    HW237104  10.113   2.680   8.659  0.6867  0.2798 -0.1716
43415SOL     OW37105   2.922   0.933   9.922  0.5331 -0.0680 -0.0635
43415SOL    HW137106   2.855   0.972   9.979  1.4422  1.9581 -0.2792
43415SOL    HW237107   2.967   0.870   9.978  0.1980  0.5251  0.9019
43416SOL     OW37108   6.649  10.710   4.573 -0.5990 -0.3259 -0.0160
43416SOL    HW137109   6.696  10.793   4.574 -0.4115 -0.3868 -1.5012
43416SOL    HW237110   6.556  10.736   4.570 -0.5937 -0.1997  0.6017
43417SOL     OW37111   9.621   7.881   0.330  0.3303 -0.0512 -0.8677
43417SOL    HW137112   9.668   7.841   0.403 -0.5652 -0.6049 -0.5755
43417SOL    HW237113   9.664   7.965   0.316 -0.5471  0.8447  1.4108
43418SOL     OW37114   0.080  11.645   8.384  0.4236  0.2555  0.0270
43418SOL    HW137115   0.047  11.732   8.363 -0.9214  0.1752  1.5847
43418SOL    HW237116   0.004  11.587   8.376  0.6249 -0.2997  1.6444
43419SOL     OW37117  10.671  10.167   2.773 -0.0839 -0.3119  0.3440
43419SOL    HW137118  10.714  10.084   2.794  0.3458  0.1286  1.3082
43419SOL    HW237119  10.603  10.176   2.840 -1.8371 -1.0629 -1.2380
43420SOL     OW37120   5.744  11.048   9.091 -0.3834 -0.2427  0.2267
43420SOL    HW137121   5.696  11.090   9.020 -1.5764  0.1804  1.2533
43420SOL    HW237122   5.795  10.979   9.048 -1.7218 -0.5461 -0.9432
43421SOL     OW37123   7.202   5.700   3.097 -0.2424  0.6470 -0.2111
43421SOL    HW137124   7.107   5.695   3.107 -0.1152  0.8110  1.4093
43421SOL    HW237125   7.229   5.769   3.158  0.8558  1.1347 -1.1968
43422SOL     OW37126   7.136   6.746   4.018 -0.0121 -0.3163 -0.1597
43422SOL    HW137127   7.147   6.772   4.110 -0.2411  0.9008 -0.4571
43422SOL    HW237128   7.069   6.677   4.021 -1.3403  0.9407  0.4406
43423SOL     OW37129   0.956   7.265   7.068  0.6450 -0.2496  0.0319
43423SOL    HW137130   0.914   7.180   7.052 -0.3775 -0.2879  2.4881
43423SOL    HW237131   0.903   7.327   7.018 -1.0761 -0.6111  1.2948
43424SOL     OW37132  12.164   3.770   9.791 -0.6501  0.0085  0.2773
43424SOL    HW137133  12.249   3.813   9.806 -0.2831 -0.7971  0.5684
43424SOL    HW237134  12.183   3.677   9.801 -1.4263 -0.2261 -0.4012
43425SOL     OW37135  11.194   1.897   1.873 -0.2677  0.0675  0.0753
43425SOL    HW137136  11.153   1.830   1.819 -2.4773 -0.7804  2.5866
43425SOL    HW237137  11.126   1.922   1.936  1.8502  1.5951  1.9246
43426SOL     OW37138   4.599  10.607   8.726  0.3364  0.0488  0.4153
43426SOL    HW137139   4.528  10.625   8.789  0.2598  0.4496  0.2168
43426SOL    HW237140   4.618  10.515   8.739 -1.6822 -0.6341 -0.9989
43427SOL     OW37141   8.536   8.647  12.409  0.1586  0.1312 -0.5276
43427SOL    HW137142   8.478   8.584  12.366 -2.8502  1.7577  0.9087
43427SOL    HW237143   8.576   8.598  12.481  1.7199 -1.3521 -2.2840
43428SOL     OW37144  10.828  10.161   6.980 -0.3431  0.0264 -0.2156
43428SOL    HW137145  10.787  10.158   7.066 -1.8262  0.2637 -0.8810
43428SOL    HW237146  10.834  10.069   6.953  0.6794 -0.0981  0.3565
43429SOL     OW37147  11.820  10.051   1.396 -0.3485  0.1691 -0.0757
43429SOL    HW137148  11.884  10.075   1.330  0.0300 -1.6963 -0.4470
43429SOL    HW237149  11.791  10.134   1.434  0.3642  1.1930 -1.6922
43430SOL     OW37150   7.349   9.991   6.318  0.2538  0.9538  0.3728
43430SOL    HW137151   7.339  10.084   6.299  0.9473  1.5652  2.7535
43430SOL    HW237152   7.377   9.987   6.409 -1.8601 -1.7060  1.0370
43431SOL     OW37153   7.369   0.228   1.747  0.4241 -0.4172 -0.0703
43431SOL    HW137154   7.352   0.322   1.749  0.5882 -0.3821  2.2223
43431SOL    HW237155   7.380   0.207   1.654  1.9173  2.0975 -0.5331
43432SOL     OW37156   0.671  10.409   3.576  1.1563  0.5814  0.2997
43432SOL    HW137157   0.585  10.368   3.571  1.4839 -0.0891  0.0211
43432SOL    HW237158   0.719  10.372   3.502  1.6772  0.9726  0.4348
43433SOL     OW37159  12.190  11.503   5.492 -0.0249 -0.4235  0.2844
43433SOL    HW137160  12.110  11.551   5.514  0.7332  0.5312  1.0225
43433SOL    HW237161  12.189  11.426   5.549 -2.2554 -2.5263 -2.2512
43434SOL     OW37162   9.210   0.724   0.408 -0.1540  0.1566  0.0530
43434SOL    HW137163   9.147   0.660   0.441 -0.2176 -0.6545 -1.5413
43434SOL    HW237164   9.294   0.695   0.443 -0.3268 -0.1883  0.1869
43435SOL     OW37165   9.214   4.817   7.025  0.4764  0.1145 -0.3832
43435SOL    HW137166   9.231   4.910   7.039  1.7296  0.1336 -1.7207
43435SOL    HW237167   9.284   4.789   6.967 -1.5593 -0.9476 -2.5272
43436SOL     OW37168   0.714   9.186   8.339 -0.1105  0.0327 -0.1950
43436SOL    HW137169   0.694   9.105   8.386  2.1997 -0.3265  0.3322
43436SOL    HW237170   0.713   9.162   8.247 -1.0051 -0.1803 -0.1380
43437SOL     OW37171   2.620   2.673   1.439  0.7673 -0.4118  0.3496
43437SOL    HW137172   2.543   2.730   1.445  0.2306 -0.9513 -0.9300
43437SOL    HW237173   2.600   2.600   1.497 -0.0052 -0.8718 -0.4691
43438SOL     OW37174   0.017   3.195   2.228  0.0360 -0.1924 -0.1745
43438SOL    HW137175   0.079   3.160   2.291 -1.6754 -1.0381  1.1098
43438SOL    HW237176   0.062   3.271   2.190  0.7904  0.9601  2.7465
43439SOL     OW37177   6.006   0.159   6.873 -0.1491  0.1057  0.0129
43439SOL    HW137178   6.020   0.205   6.956  0.0245 -0.0105  0.0493
43439SOL    HW237179   6.089   0.114   6.856  0.1692  0.9527 -0.7430
43440SOL     OW37180   6.735   0.468  12.470  0.5442 -0.6503 -0.0283
43440SOL    HW137181   6.733   0.437  12.561  1.8823  3.5592  1.6823
43440SOL    HW237182   6.661   0.529  12.464  1.4757  0.4184 -1.1767
43441SOL     OW37183   9.619   6.250   6.388 -0.1460  0.5893 -0.5158
43441SOL    HW137184   9.627   6.224   6.296  2.0921  0.9118 -0.4636
43441SOL    HW237185   9.589   6.170   6.433 -0.2920  0.1530 -1.3768
43442SOL     OW37186  12.140   1.181  11.117  0.6813  0.3290  0.2190
43442SOL    HW137187  12.149   1.255  11.176  0.6960  1.8917 -1.6372
43442SOL    HW237188  12.046   1.173  11.103  0.7720  1.9136 -1.7687
43443SOL     OW37189   0.657   1.329  11.232 -0.0269 -0.2624  0.3308
43443SOL    HW137190   0.607   1.260  11.188 -4.1708  1.1673  2.2287
43443SOL    HW237191   0.660   1.302  11.323  0.2153  1.0056  0.7209
43444SOL     OW37192   5.446   4.143   2.135 -0.1597 -0.4186  0.2705
43444SOL    HW137193   5.479   4.157   2.047 -0.1508  0.7875  0.4450
43444SOL    HW237194   5.362   4.098   2.122 -1.4384  2.0204 -0.5458
43445SOL     OW37195   1.136  10.450   6.539  0.0298 -0.8314 -0.2680
43445SOL    HW137196   1.106  10.362   6.561  0.7030 -1.0003  0.0133
43445SOL    HW237197   1.205  10.436   6.474  0.4225 -0.5388  0.0823
43446SOL     OW37198   2.155   4.679   3.773  0.5647 -0.4678  0.6255
43446SOL    HW137199   2.204   4.610   3.728  0.1675 -1.6969  1.9909
43446SOL    HW237200   2.202   4.760   3.753  2.1709 -1.3850  0.5262
43447SOL     OW37201   2.994   4.784   4.385 -0.0333 -0.2335 -0.1524
43447SOL    HW137202   3.071   4.789   4.328 -1.1406  0.3480 -1.6551
43447SOL    HW237203   2.977   4.874   4.411  1.0281 -0.5667  2.0056
43448SOL     OW37204   4.423   4.892   2.525  0.0114 -0.7214 -0.3699
43448SOL    HW137205   4.336   4.899   2.485 -0.2287  0.8767  0.3354
43448SOL    HW237206   4.432   4.973   2.576  2.6866  0.0773 -1.9060
43449SOL     OW37207   7.885   9.372   1.492  0.3064 -0.0114 -0.0679
43449SOL    HW137208   7.912   9.459   1.463  1.1771 -0.2531 -0.0218
43449SOL    HW237209   7.852   9.329   1.412 -0.0833  0.3417 -0.0981
43450SOL     OW37210   4.707   5.091   3.447 -0.0146 -0.1524 -0.8814
43450SOL    HW137211   4.676   5.148   3.517 -0.0224 -1.4289  0.1914
43450SOL    HW237212   4.781   5.044   3.485  1.6058  0.9276 -2.5522
43451SOL     OW37213  11.304   9.902   8.028 -0.5091  0.0885  0.3432
43451SOL    HW137214  11.366   9.845   8.074 -0.4724 -0.4261 -0.3389
43451SOL    HW237215  11.219   9.881   8.067 -0.5200 -0.5543 -0.0227
43452SOL     OW37216   7.933   4.668   9.328 -0.1745 -0.1543  0.1576
43452SOL    HW137217   7.934   4.677   9.233 -1.6717 -0.5463  0.0946
43452SOL    HW237218   8.021   4.635   9.349  0.6343  1.1841 -0.9316
43453SOL     OW37219   1.732   7.522  10.447 -0.2657 -0.3996 -0.3251
43453SOL    HW137220   1.786   7.446  10.424 -0.4941 -0.8163  0.4892
43453SOL    HW237221   1.706   7.507  10.538 -0.2266  0.7089 -0.1142
43454SOL     OW37222   1.034   5.868   2.963  0.5010  0.7233 -0.6677
43454SOL    HW137223   0.952   5.823   2.942  0.6886 -0.6766  1.3096
43454SOL    HW237224   1.008   5.959   2.978 -1.2665 -0.2005  2.6923
43455SOL     OW37225   3.673   5.937   9.763 -0.1861 -0.4694 -0.2564
43455SOL    HW137226   3.660   5.994   9.838 -0.7126  0.5667 -1.1133
43455SOL    HW237227   3.755   5.967   9.723  0.0164 -0.9217 -0.1924
43456SOL     OW37228   9.240   7.941   6.332  0.2089  0.5069  0.0830
43456SOL    HW137229   9.160   7.955   6.281  1.1949  0.3062 -1.5933
43456SOL    HW237230   9.311   7.949   6.268  1.4094 -1.8565  1.0111
43457SOL     OW37231   9.843   1.143   7.469 -0.7539 -0.1636 -0.2302
43457SOL    HW137232   9.890   1.173   7.547 -1.6791 -1.0049  0.6974
43457SOL    HW237233   9.866   1.206   7.401  0.3677  0.3926  0.6252
43458SOL     OW37234   6.859   4.259   5.342 -0.1630 -0.5704  0.4333
43458SOL    HW137235   6.879   4.316   5.416 -0.0856 -0.3998  0.2814
43458SOL    HW237236   6.833   4.319   5.272 -1.2127 -0.7797  0.6221
43459SOL     OW37237   4.430   5.851  11.191  0.0313 -0.5709  0.0124
43459SOL    HW137238   4.444   5.937  11.152  2.1259 -0.4492  0.9489
43459SOL    HW237239   4.477   5.791  11.133 -1.9900 -1.2698 -1.0366
43460SOL     OW37240   4.876   2.373  10.817 -0.2579 -0.0000  0.4900
43460SOL    HW137241   4.832   2.449  10.778  1.4526  0.7293 -0.1338
43460SOL    HW237242   4.853   2.377  10.910 -0.6396  0.9507  0.3693
43461SOL     OW37243   6.075   0.012   9.326 -0.4242 -0.8642 -0.4925
43461SOL    HW137244   6.099   0.044   9.239  1.5880 -0.6827  0.0992
43461SOL    HW237245   5.996   0.062   9.349  0.8251  1.4250 -0.8999
43462SOL     OW37246   7.466   4.628   8.130 -0.1800  0.1022  0.5259
43462SOL    HW137247   7.517   4.635   8.210  0.8511  0.0593 -0.1089
43462SOL    HW237248   7.417   4.710   8.125 -0.2634  0.0971  1.1934
43463SOL     OW37249   3.514   2.480   2.747  0.0656 -0.1401 -0.0455
43463SOL    HW137250   3.432   2.475   2.698 -0.2533 -0.0398  0.4646
43463SOL    HW237251   3.500   2.424   2.823  0.2546  0.3212  0.3390
43464SOL     OW37252   8.264   1.472   9.841 -0.1217  0.0477 -0.1799
43464SOL    HW137253   8.355   1.448   9.823  0.0159 -0.6171  1.3369
43464SOL    HW237254   8.264   1.568   9.840  0.5089  0.0487 -0.5530
43465SOL     OW37255  10.225   5.481   0.117 -0.0648  0.2353 -0.0920
43465SOL    HW137256  10.251   5.557   0.168  1.1122 -0.5337  0.5117
43465SOL    HW237257  10.297   5.418   0.130  0.1103 -0.1196 -2.4248
43466SOL     OW37258   2.454   9.946   3.368  0.0878 -0.0898 -0.0254
43466SOL    HW137259   2.405   9.890   3.308 -0.5904  0.0149  0.4091
43466SOL    HW237260   2.537   9.900   3.382  0.5282  0.2068 -1.5357
43467SOL     OW37261   7.150   2.790  10.917 -0.4037 -0.2309 -0.1037
43467SOL    HW137262   7.208   2.862  10.893  0.5226 -0.7937  0.3671
43467SOL    HW237263   7.183   2.760  11.001 -1.3866 -0.5761  0.1702
43468SOL     OW37264   6.586   4.926   4.388 -0.5758  0.0497  0.6549
43468SOL    HW137265   6.620   4.882   4.310 -0.3144 -0.0625  0.8313
43468SOL    HW237266   6.496   4.947   4.366 -1.1247 -1.7371  1.0451
43469SOL     OW37267   8.383  11.250   7.958  0.0227  0.1504  0.2871
43469SOL    HW137268   8.393  11.265   7.864 -0.1342 -0.0330  0.2416
43469SOL    HW237269   8.290  11.235   7.970  0.0137  0.3799  0.5025
43470SOL     OW37270  10.815   8.691  12.441 -0.3687  0.3128 -0.4798
43470SOL    HW137271  10.889   8.713  12.384 -1.6922  1.0139 -2.0131
43470SOL    HW237272  10.841   8.724  12.527  0.9350  0.9138 -1.0603
43471SOL     OW37273   0.406   0.799   9.892  0.4341  0.4436  0.4141
43471SOL    HW137274   0.393   0.820   9.799  1.6050 -1.0554 -0.1234
43471SOL    HW237275   0.478   0.736   9.893  0.0595 -0.0216  2.3046
43472SOL     OW37276   0.655   9.277   3.152  0.0324 -0.2724  0.1150
43472SOL    HW137277   0.573   9.229   3.137  0.2160  0.2229 -3.3669
43472SOL    HW237278   0.629   9.369   3.153  0.4665 -0.1290 -0.7077
43473SOL     OW37279   6.584   3.112  12.290  0.0459 -0.4962  0.4340
43473SOL    HW137280   6.513   3.093  12.352 -0.7342  0.9510  0.0199
43473SOL    HW237281   6.657   3.140  12.345 -1.0223  1.9978  0.7385
43474SOL     OW37282   6.076   6.091   8.622 -0.4692  0.0258 -0.2604
43474SOL    HW137283   6.022   6.157   8.665  1.3979  1.5494 -0.1429
43474SOL    HW237284   6.091   6.024   8.690 -0.6631  0.5121  0.2700
43475SOL     OW37285   4.580   5.733  10.339 -0.5204 -0.6009  0.3933
43475SOL    HW137286   4.547   5.754  10.251  0.0814 -1.6726 -0.1134
43475SOL    HW237287   4.506   5.693  10.383 -1.7341  2.4933  1.4256
43476SOL     OW37288   3.244   3.476   8.392 -0.3808 -0.1000  0.6890
43476SOL    HW137289   3.196   3.399   8.362  1.0700 -0.8682  0.2271
43476SOL    HW237290   3.318   3.440   8.440  0.3533  1.0009  0.4062
43477SOL     OW37291   1.588  12.230   8.857 -0.0357  0.0664 -0.3030
43477SOL    HW137292   1.594  12.141   8.893  1.7697  0.0593 -0.5389
43477SOL    HW237293   1.538  12.279   8.922 -1.6959 -1.2593 -0.5020
43478SOL     OW37294   1.822  10.827   4.768  0.0895 -0.5983  0.3789
43478SOL    HW137295   1.866  10.832   4.683  1.3527  0.2639  1.0525
43478SOL    HW237296   1.891  10.801   4.829 -0.4927  0.1049  1.3590
43479SOL     OW37297  11.223   7.665   0.093  0.1138  0.1421 -0.3739
43479SOL    HW137298  11.287   7.605   0.055  0.3074 -1.4701  2.2287
43479SOL    HW237299  11.145   7.611   0.107  0.3964  0.3005  2.3443
43480SOL     OW37300   4.559  11.041   2.420 -0.3751 -0.6356 -0.5623
43480SOL    HW137301   4.616  11.007   2.489 -0.2562 -0.3626 -0.5244
43480SOL    HW237302   4.578  10.986   2.344 -0.5784 -0.9994 -0.3486
43481SOL     OW37303   1.894   2.692   3.524 -0.3228  0.0804  0.1424
43481SOL    HW137304   1.800   2.698   3.512 -0.0391  0.4032 -2.6113
43481SOL    HW237305   1.920   2.614   3.475  0.9627  0.7559 -0.3216
43482SOL     OW37306   1.378  11.613   7.192  0.4592 -0.2243 -0.6289
43482SOL    HW137307   1.363  11.560   7.270 -1.5409  2.0108  0.6419
43482SOL    HW237308   1.328  11.568   7.123 -1.2344 -0.0168  0.4190
43483SOL     OW37309   5.209   2.900   8.371 -0.0192  0.3980 -0.6530
43483SOL    HW137310   5.299   2.913   8.400 -0.6988  2.2205  0.8305
43483SOL    HW237311   5.207   2.936   8.282  0.2333  2.4946  0.1481
43484SOL     OW37312   7.851  11.115   6.503  0.3238  0.3184  0.1024
43484SOL    HW137313   7.780  11.096   6.565  0.9094  1.0722  1.0220
43484SOL    HW237314   7.806  11.144   6.424 -0.4043  0.3233  0.5110
43485SOL     OW37315   1.930   4.617  10.113  0.5659 -0.1568  0.0041
43485SOL    HW137316   1.876   4.687  10.148 -0.8678 -1.1064 -0.2273
43485SOL    HW237317   1.959   4.568  10.190  0.8065  0.1349  0.1025
43486SOL     OW37318   2.489   1.638   1.144  0.1408  0.0293  0.3121
43486SOL    HW137319   2.547   1.704   1.108 -1.6837  0.9587 -1.1031
43486SOL    HW237320   2.463   1.673   1.230  0.4717  0.3428  0.2847
43487SOL     OW37321   3.965   4.761   1.270  0.1972 -0.2786  0.4254
43487SOL    HW137322   3.870   4.759   1.270  0.1988 -1.9445  1.4905
43487SOL    HW237323   3.988   4.816   1.195 -1.5885  0.4135  0.3483
43488SOL     OW37324   4.552   7.785   4.096 -0.4878  0.1245 -0.2676
43488SOL    HW137325   4.638   7.777   4.138 -0.9166  1.5306  0.9760
43488SOL    HW237326   4.508   7.702   4.115  0.3875 -0.4094 -0.4851
43489SOL     OW37327  11.556   2.446   2.146 -0.0959  0.1172 -0.5540
43489SOL    HW137328  11.546   2.427   2.053 -2.4380  0.2404 -0.3783
43489SOL    HW237329  11.604   2.529   2.148  1.1417 -0.5344 -1.5772
43490SOL     OW37330   6.376  10.447   4.697 -0.5380  0.3453 -0.5976
43490SOL    HW137331   6.456  10.453   4.749 -0.1838  1.7386 -1.2674
43490SOL    HW237332   6.306  10.462   4.760 -0.1720  0.9789 -0.3347
43491SOL     OW37333   4.849   7.536   4.813  0.2873 -0.5400 -0.1613
43491SOL    HW137334   4.811   7.622   4.795 -0.5829 -0.6852  0.8802
43491SOL    HW237335   4.878   7.504   4.727  1.2445  1.0580 -0.4800
43492SOL     OW37336   6.293   5.794   0.353  0.2292  0.3949  0.3396
43492SOL    HW137337   6.348   5.722   0.320  1.7738  1.3363  0.7219
43492SOL    HW237338   6.356   5.858   0.385 -1.1498  1.2022  1.5397
43493SOL     OW37339   0.839   5.253   8.887  0.3779 -0.2228  0.9443
43493SOL    HW137340   0.752   5.292   8.877  0.3079 -0.7758 -1.1038
43493SOL    HW237341   0.876   5.296   8.965 -0.1934  2.9519 -0.3658
43494SOL     OW37342   8.737   7.691   5.661  0.5874 -0.6919 -0.1631
43494SOL    HW137343   8.807   7.676   5.598  1.7499 -1.8419  1.3317
43494SOL    HW237344   8.692   7.607   5.667 -0.0629 -0.3459 -0.0803
43495SOL     OW37345  10.550   9.129   5.247  0.0504  0.5300 -0.3860
43495SOL    HW137346  10.571   9.173   5.165  1.1078 -0.3355 -0.5947
43495SOL    HW237347  10.455   9.141   5.256  0.0660  1.4802 -1.2185
43496SOL     OW37348   4.703  12.260   0.546 -0.1439  0.0840 -0.3834
43496SOL    HW137349   4.649  12.235   0.472  0.5152  0.3986 -0.9816
43496SOL    HW237350   4.693  12.189   0.609 -1.4238  0.2410 -0.3835
43497SOL     OW37351  11.998  11.341  10.172 -0.0022  0.0191 -0.3826
43497SOL    HW137352  12.037  11.429  10.177  0.2574 -0.0429 -1.1586
43497SOL    HW237353  11.928  11.350  10.107 -1.5778  0.2276  1.2835
43498SOL     OW37354   5.754   8.768   3.892 -0.2916 -0.3271  0.7015
43498SOL    HW137355   5.840   8.745   3.928  0.6495 -1.6341 -2.1221
43498SOL    HW237356   5.771   8.837   3.829 -1.2591 -0.7833 -0.0886
43499SOL     OW37357   9.507   9.467   2.369  0.5577 -0.3750 -0.1008
43499SOL    HW137358   9.532   9.473   2.277 -1.3165 -1.5924 -0.7628
43499SOL    HW237359   9.558   9.395   2.404  1.3882  0.1892 -0.1299
43500SOL     OW37360   8.325   7.123   6.410 -0.1916  0.3857 -0.2385
43500SOL    HW137361   8.401   7.172   6.441 -0.3374  0.6528 -0.3035
43500SOL    HW237362   8.357   7.078   6.331  0.3808 -0.8643  0.6746
43501SOL     OW37363   5.850  10.696   8.923 -0.3891 -0.1659 -0.0036
43501SOL    HW137364   5.941  10.713   8.949 -0.6831  0.1737  0.8310
43501SOL    HW237365   5.817  10.636   8.990 -0.3320 -1.5115 -1.1491
43502SOL     OW37366   7.607   1.650   7.765  0.0036  0.1307 -0.5933
43502SOL    HW137367   7.571   1.734   7.738 -1.9883 -0.9380 -1.5331
43502SOL    HW237368   7.559   1.629   7.846 -2.4859 -1.7933 -2.4075
43503SOL     OW37369   8.929   0.294  10.348 -0.0733  0.2296 -0.4482
43503SOL    HW137370   8.889   0.325  10.429  0.7707  0.0667  0.0409
43503SOL    HW237371   8.912   0.200  10.347  1.5473 -0.0957  0.5037
43504SOL     OW37372  10.178   8.932   7.475 -0.4037 -0.1642  0.5139
43504SOL    HW137373  10.231   8.864   7.434 -1.4948  0.4239 -2.0977
43504SOL    HW237374  10.093   8.891   7.489 -0.7843  0.3580 -0.1936
43505SOL     OW37375  12.300   9.407   6.242  0.4986 -0.0626  0.2361
43505SOL    HW137376  12.217   9.363   6.221  1.2587 -1.2858 -0.4000
43505SOL    HW237377  12.307   9.402   6.337  0.5070 -1.2977  0.1961
43506SOL     OW37378   9.323   7.654   3.836 -0.1810  0.1807 -0.4570
43506SOL    HW137379   9.408   7.684   3.804  0.0901 -1.4744 -1.4100
43506SOL    HW237380   9.336   7.561   3.855 -1.8486 -0.1807 -0.9269
43507SOL     OW37381   3.621   8.174   3.990 -0.1968 -0.3188  0.3627
43507SOL    HW137382   3.682   8.107   3.960  0.7157  0.1499  1.1315
43507SOL    HW237383   3.664   8.257   3.968 -0.0202  0.0224  1.9236
43508SOL     OW37384   7.071   9.324   0.733 -0.2854 -0.0463 -0.6027
43508SOL    HW137385   7.070   9.390   0.664  0.6672  0.5218 -0.1031
43508SOL    HW237386   6.989   9.337   0.780  0.3333  1.5407  0.1458
43509SOL     OW37387   1.576   8.476   8.008 -0.3710  0.1502  0.0431
43509SOL    HW137388   1.637   8.549   8.013 -0.6242  0.3267  0.6417
43509SOL    HW237389   1.630   8.398   8.026 -0.3574  0.3294  0.8320
43510SOL     OW37390   4.211   2.257  10.651  0.0303 -0.5060 -0.1306
43510SOL    HW137391   4.166   2.219  10.575  0.1808 -1.5109  0.2709
43510SOL    HW237392   4.296   2.284  10.618 -0.3889  0.2482 -0.6093
43511SOL     OW37393  10.232   8.581   9.660  0.3417  0.9204  0.3624
43511SOL    HW137394  10.138   8.576   9.644  0.1023 -0.8043  1.9428
43511SOL    HW237395  10.264   8.493   9.641  1.0480  0.5709  2.7968
43512SOL     OW37396   0.480   9.680   1.680 -0.8681  0.0438  0.0121
43512SOL    HW137397   0.477   9.767   1.719 -1.4959 -0.7634  1.8871
43512SOL    HW237398   0.461   9.620   1.752  1.9557 -1.8624 -0.6111
43513SOL     OW37399   3.952   1.796   3.687 -0.3573 -0.2312  0.8140
43513SOL    HW137400   3.922   1.859   3.753 -0.7172 -1.6688  2.0618
43513SOL    HW237401   4.041   1.772   3.715  0.4207  0.8627 -0.5499
43514SOL     OW37402   4.655  10.163   7.607 -0.1267 -0.2355 -0.2573
43514SOL    HW137403   4.708  10.128   7.535  1.6040  0.0351  0.8339
43514SOL    HW237404   4.655  10.257   7.593  1.0228 -0.0893  0.5842
43515SOL     OW37405   0.542   9.435   5.954 -0.2480  0.2473  0.7503
43515SOL    HW137406   0.574   9.357   5.909 -0.2954 -0.3237  1.6573
43515SOL    HW237407   0.448   9.418   5.967 -0.0963  0.0440  1.7050
43516SOL     OW37408  11.564   0.715  11.833 -0.1719 -0.4703 -0.1640
43516SOL    HW137409  11.593   0.777  11.766  0.2818  1.5830  1.8224
43516SOL    HW237410  11.582   0.759  11.916 -0.8316 -2.8545  1.3367
43517SOL     OW37411   4.621  11.393   6.799  0.2265  0.1454 -0.5525
43517SOL    HW137412   4.629  11.414   6.892  0.2264  1.0737 -0.7575
43517SOL    HW237413   4.605  11.298   6.797 -2.5657  0.5087  0.5260
43518SOL     OW37414  12.276   6.442   8.878 -0.2036  0.2778 -0.0541
43518SOL    HW137415  12.242   6.526   8.907 -0.7925 -0.0227  0.1485
43518SOL    HW237416  12.199   6.385   8.872  0.4331 -0.9680  2.2462
43519SOL     OW37417   3.921   7.477   7.842 -0.5895  0.3009 -0.0953
43519SOL    HW137418   3.930   7.406   7.779  0.3945 -1.3322  1.7766
43519SOL    HW237419   3.827   7.486   7.855 -0.7373 -0.5945 -0.4776
43520SOL     OW37420   7.421   7.553   6.725  0.0964  0.2641  0.1578
43520SOL    HW137421   7.511   7.567   6.695 -0.7370  0.7299 -2.3337
43520SOL    HW237422   7.429   7.546   6.821  2.7566  0.2812  0.0223
43521SOL     OW37423   5.993   5.617  11.653  0.3586 -0.0073 -0.0336
43521SOL    HW137424   6.050   5.553  11.696  1.2842  1.3241  0.7960
43521SOL    HW237425   6.030   5.628  11.566  0.2791 -0.5013 -0.1304
43522SOL     OW37426   1.986   5.935   3.745 -0.1806 -0.2497  0.1308
43522SOL    HW137427   2.023   6.022   3.761  0.7993 -0.2480 -1.7855
43522SOL    HW237428   2.025   5.879   3.813  0.1528  0.5634  0.6209
43523SOL     OW37429   8.643   3.582   3.726  0.0703 -0.0276  0.1650
43523SOL    HW137430   8.632   3.672   3.755  1.9854 -0.0779  1.2029
43523SOL    HW237431   8.640   3.530   3.806  1.9854 -0.5343 -0.0383
43524SOL     OW37432   3.272  11.595   4.722  0.2117 -0.0542  0.2128
43524SOL    HW137433   3.362  11.570   4.741 -0.2855 -2.3484 -0.1960
43524SOL    HW237434   3.264  11.588   4.627 -0.6771 -1.0038  0.3375
43525SOL     OW37435  12.363   8.562   5.087  0.4642 -0.1609 -0.3663
43525SOL    HW137436  12.437   8.513   5.052 -0.0310 -1.2928  0.1253
43525SOL    HW237437  12.332   8.614   5.013  0.2425 -1.5247 -1.2758
43526SOL     OW37438  12.287   0.744   2.738 -0.1255 -0.2746 -0.0982
43526SOL    HW137439  12.342   0.800   2.685 -0.0705 -0.9589 -0.7880
43526SOL    HW237440  12.242   0.803   2.798  0.5388  0.4028 -0.2622
43527SOL     OW37441   3.991   3.091   8.973  0.1212 -0.6444 -0.1226
43527SOL    HW137442   3.927   3.022   8.989 -0.3385 -0.0797  0.5199
43527SOL    HW237443   4.048   3.090   9.050 -0.6504  0.5082  0.4960
43528SOL     OW37444   6.664   1.677  10.348 -0.4543 -0.1457  0.5120
43528SOL    HW137445   6.708   1.762  10.341 -0.0057 -0.5115 -1.5802
43528SOL    HW237446   6.724   1.615  10.306 -1.7198 -1.1257  0.0932
43529SOL     OW37447   3.208   7.965   0.534 -0.7847 -0.1377  0.4480
43529SOL    HW137448   3.174   7.981   0.446 -0.0420 -0.8983  0.0009
43529SOL    HW237449   3.261   8.042   0.555  0.2832 -0.6149 -0.4149
43530SOL     OW37450   5.599   8.438   6.383 -0.7641  0.5100 -0.2388
43530SOL    HW137451   5.644   8.511   6.425 -1.0350  0.9600 -0.7227
43530SOL    HW237452   5.506   8.456   6.395 -0.8505  0.6461 -1.0045
43531SOL     OW37453   4.681   2.315   6.470  0.0374 -0.3394 -0.7726
43531SOL    HW137454   4.607   2.349   6.420 -1.6434 -2.0701  0.4051
43531SOL    HW237455   4.688   2.223   6.445  0.8751 -0.5612  0.1895
43532SOL     OW37456   8.549   6.881   8.235 -0.0855  0.1610  0.0791
43532SOL    HW137457   8.581   6.888   8.145  0.8481  1.6604  0.4832
43532SOL    HW237458   8.605   6.941   8.285 -2.3090  1.4662  1.1676
43533SOL     OW37459  11.509   1.187   5.382  0.0719  0.0399 -0.1530
43533SOL    HW137460  11.555   1.267   5.407  0.2057  0.0177 -0.3232
43533SOL    HW237461  11.578   1.129   5.350 -0.1403  0.2256 -0.9751
43534SOL     OW37462  10.916   6.549   6.396 -0.5091  0.4377 -0.4784
43534SOL    HW137463  10.891   6.506   6.315  0.6200 -1.9719  0.3345
43534SOL    HW237464  10.913   6.479   6.462 -0.8838  2.1815  1.4527
43535SOL     OW37465   3.326   3.668   7.521 -1.0684 -0.0579  0.6289
43535SOL    HW137466   3.357   3.594   7.575  1.8049  0.5063 -0.0851
43535SOL    HW237467   3.391   3.736   7.535 -2.3094  1.4659 -0.6901
43536SOL     OW37468   5.097   9.205   6.719  0.0642  0.4052 -0.0679
43536SOL    HW137469   5.146   9.259   6.657 -0.0473 -0.1447 -0.6489
43536SOL    HW237470   5.108   9.249   6.803  0.6142  0.9057 -0.3913
43537SOL     OW37471   0.249   6.568   0.832  0.1021  0.4554 -0.2252
43537SOL    HW137472   0.234   6.645   0.776 -0.6278  0.9395  0.6051
43537SOL    HW237473   0.170   6.515   0.821 -0.6658  1.1884  1.2946
43538SOL     OW37474  10.049   3.900   9.938  0.4123  0.1365 -0.1392
43538SOL    HW137475   9.962   3.940   9.941 -0.2123 -1.1662 -0.2506
43538SOL    HW237476  10.033   3.811   9.907  2.0048  0.4494 -2.0237
43539SOL     OW37477   7.547   6.582   1.797 -0.2035  0.5480 -0.7779
43539SOL    HW137478   7.641   6.585   1.817 -0.4551 -0.6989  0.8017
43539SOL    HW237479   7.532   6.491   1.770 -0.6766  1.1605 -2.6739
43540SOL     OW37480   3.843   9.591   1.021 -0.9978  0.2255 -0.1086
43540SOL    HW137481   3.903   9.664   1.009  0.3208 -0.9133 -0.8261
43540SOL    HW237482   3.758   9.631   1.039 -0.4748  1.9236 -1.2316
43541SOL     OW37483   8.801   7.565  10.160  0.1818  0.3890 -0.1430
43541SOL    HW137484   8.709   7.570  10.133 -0.7731  0.4256  2.8204
43541SOL    HW237485   8.822   7.654  10.189  0.9377  0.2037 -0.1101
43542SOL     OW37486   5.886   9.326   0.289  0.4357  0.1461  0.6228
43542SOL    HW137487   5.803   9.371   0.271  0.6220  0.1516 -0.2380
43542SOL    HW237488   5.882   9.246   0.236  1.2742  0.4802  0.0375
43543SOL     OW37489  12.415   2.532   2.384 -0.4491  0.2151 -0.0942
43543SOL    HW137490  12.392   2.499   2.297 -1.8259 -0.5736  0.5241
43543SOL    HW237491  12.335   2.520   2.436  0.1204  1.3152  1.1002
43544SOL     OW37492  10.718   5.417  11.943 -0.0320  0.5489 -0.0840
43544SOL    HW137493  10.750   5.358  12.011 -1.4130  0.8559  0.8673
43544SOL    HW237494  10.797   5.448  11.899  0.8857  0.2673  1.3088
43545SOL     OW37495   7.753   6.108   2.428 -0.3554 -0.2247 -0.2785
43545SOL    HW137496   7.692   6.040   2.458 -1.4063  0.6368 -0.4039
43545SOL    HW237497   7.839   6.074   2.450 -0.9883  0.1563  3.4803
43546SOL     OW37498   5.521   6.429   6.996 -0.2265  0.6961 -0.3309
43546SOL    HW137499   5.481   6.504   7.039 -1.3277 -0.0716  0.0421
43546SOL    HW237500   5.614   6.447   6.997 -0.4371  1.8229  0.1916
43547SOL     OW37501   0.668   5.854   6.419  0.0251  0.3655  0.0652
43547SOL    HW137502   0.748   5.893   6.383 -0.7980  1.6383 -0.4516
43547SOL    HW237503   0.645   5.786   6.356  1.3224 -0.8281  0.8279
43548SOL     OW37504  11.137   4.984   4.957 -0.2354  0.4543 -0.2825
43548SOL    HW137505  11.151   5.025   4.872 -0.1293 -1.6223 -1.3260
43548SOL    HW237506  11.090   4.903   4.938 -0.3323 -0.0022  1.6502
43549SOL     OW37507   9.068   1.912   0.600 -0.2171 -0.2353  0.0288
43549SOL    HW137508   9.100   1.866   0.678  1.2838 -3.5239 -2.2920
43549SOL    HW237509   9.141   1.968   0.575  0.3650 -1.1620 -0.4128
43550SOL     OW37510   8.911   8.663   2.597 -0.3284  0.5260  0.1995
43550SOL    HW137511   8.932   8.685   2.506 -1.4840  2.1875  0.3001
43550SOL    HW237512   8.845   8.594   2.591 -0.9683  1.1679 -0.2506
43551SOL     OW37513   8.739   8.804   3.735  0.0716 -0.3004 -0.4024
43551SOL    HW137514   8.770   8.766   3.652  1.8188 -1.6341  0.7996
43551SOL    HW237515   8.780   8.890   3.738  1.1812 -0.8139 -0.2927
43552SOL     OW37516   3.222   7.489   4.218  0.3565  0.1541 -0.7134
43552SOL    HW137517   3.299   7.483   4.161  1.1869 -1.9447  0.5274
43552SOL    HW237518   3.258   7.503   4.306 -0.7209  0.0990 -0.2483
43553SOL     OW37519   9.647  11.756   6.508 -0.3231  0.2797  0.3536
43553SOL    HW137520   9.656  11.783   6.599 -1.5534  0.8114  0.3361
43553SOL    HW237521   9.653  11.838   6.458  0.8692 -0.0629 -0.1062
43554SOL     OW37522   1.537  12.196   4.490  0.0028  0.1754  0.1399
43554SOL    HW137523   1.489  12.272   4.456 -1.6421 -0.9762 -0.2490
43554SOL    HW237524   1.627  12.211   4.463 -0.3956  1.6699 -0.5030
43555SOL     OW37525   0.840   1.943   8.575 -0.4685  0.0253  0.4206
43555SOL    HW137526   0.836   1.861   8.624 -0.3890  1.1819  2.4899
43555SOL    HW237527   0.750   1.957   8.545 -0.5286 -0.6833  0.2525
43556SOL     OW37528  10.489   5.860   5.976  0.3339  0.1175  0.5349
43556SOL    HW137529  10.503   5.767   5.993 -2.0007 -0.5934 -0.9018
43556SOL    HW237530  10.548   5.905   6.036  0.9428 -2.2681  1.8491
43557SOL     OW37531  10.653  11.954   3.404 -0.5898 -0.1916  0.6629
43557SOL    HW137532  10.624  11.930   3.492  1.5398 -1.3018  1.1194
43557SOL    HW237533  10.700  11.877   3.372  0.4762  0.9359 -0.6112
43558SOL     OW37534  11.106   7.197   6.029  0.0640 -0.1174  0.1464
43558SOL    HW137535  11.084   7.105   6.017 -0.0814 -0.3890  2.1443
43558SOL    HW237536  11.114   7.232   5.940 -0.6587 -1.8553 -0.6422
43559SOL     OW37537   6.430   6.022  10.807 -0.5823 -0.3554 -0.4456
43559SOL    HW137538   6.459   6.027  10.716  0.1407 -0.3740 -0.2229
43559SOL    HW237539   6.482   5.952  10.845  0.8794  1.2343  0.6021
43560SOL     OW37540   7.498   4.307   7.756 -0.0421 -0.1031 -0.0656
43560SOL    HW137541   7.551   4.278   7.830 -0.2779  0.0593  0.1682
43560SOL    HW237542   7.441   4.375   7.792 -1.4565 -1.2977  0.0379
43561SOL     OW37543  11.851   9.638   8.768  0.0324  0.5908  0.2504
43561SOL    HW137544  11.777   9.602   8.817 -0.4766  1.5090  0.1865
43561SOL    HW237545  11.811   9.675   8.689  0.7292 -0.0404 -0.4050
43562SOL     OW37546  10.327   7.975   6.071  0.1708 -0.1156 -0.0649
43562SOL    HW137547  10.278   7.947   5.994  1.6884  0.9257 -1.4839
43562SOL    HW237548  10.267   8.033   6.118 -1.1585 -1.5964  0.1693
43563SOL     OW37549   7.385   2.347   1.685 -0.4796  0.1715  0.2825
43563SOL    HW137550   7.438   2.271   1.707 -0.2689 -0.6712 -2.7272
43563SOL    HW237551   7.295   2.319   1.703 -0.3016 -0.2233  0.5769
43564SOL     OW37552   1.521   1.485   7.915 -0.2141  0.1112 -0.3023
43564SOL    HW137553   1.491   1.489   7.825  0.3947 -0.8189 -0.5552
43564SOL    HW237554   1.564   1.400   7.923  0.9123  0.7242  0.4937
43565SOL     OW37555   0.167   6.569   1.698  0.3807  0.0931 -0.5599
43565SOL    HW137556   0.102   6.634   1.726 -0.8466 -1.0517 -0.6258
43565SOL    HW237557   0.222   6.616   1.635 -2.1746  0.3901 -2.7663
43566SOL     OW37558  11.062   2.416   8.028 -0.0739  0.7972 -0.2328
43566SOL    HW137559  11.156   2.408   8.012 -0.1179  2.4193 -1.6425
43566SOL    HW237560  11.052   2.403   8.123  1.1600 -2.2044 -0.4119
43567SOL     OW37561   1.126   5.873   3.378 -0.7601  0.0688 -0.1479
43567SOL    HW137562   1.126   5.814   3.302  0.7297 -0.1763 -0.0020
43567SOL    HW237563   1.205   5.927   3.366 -0.1586 -0.3817  1.5044
43568SOL     OW37564   0.175   7.564  12.100 -0.6713  0.1336  0.3918
43568SOL    HW137565   0.187   7.473  12.071 -1.8446 -0.3006  1.2060
43568SOL    HW237566   0.184   7.615  12.020 -0.3671 -0.7318 -0.1458
43569SOL     OW37567   5.756   4.731  10.755 -0.4628 -0.3117 -0.1268
43569SOL    HW137568   5.724   4.730  10.665 -2.2007 -0.4999  0.4693
43569SOL    HW237569   5.785   4.641  10.771  1.8775  0.1828 -1.1396
43570SOL     OW37570   3.312   4.529   5.592 -0.3875  0.3109 -0.3950
43570SOL    HW137571   3.294   4.617   5.627 -0.3152 -0.2289  1.0722
43570SOL    HW237572   3.271   4.470   5.655  0.6162 -0.7420 -0.7104
43571SOL     OW37573   7.733   0.045   1.702  0.4295 -0.1896 -0.3659
43571SOL    HW137574   7.788   0.001   1.637 -1.1289 -0.7733 -1.3403
43571SOL    HW237575   7.681  -0.026   1.740 -0.3413  0.4798 -0.1581
43572SOL     OW37576   5.047  10.714   2.568 -0.6668  0.3965 -0.5683
43572SOL    HW137577   5.115  10.781   2.562 -1.3588  1.0184 -1.8338
43572SOL    HW237578   5.083  10.649   2.629  1.2517  0.4988 -1.4966
43573SOL     OW37579   8.016   9.212  10.215 -0.7067  0.0303 -0.4250
43573SOL    HW137580   8.089   9.274  10.205 -0.7440  0.2866  0.6977
43573SOL    HW237581   8.056   9.132  10.246 -1.0110  0.6566  1.8022
43574SOL     OW37582   6.517   4.584   6.745 -0.5978  0.1989 -0.0730
43574SOL    HW137583   6.551   4.660   6.791  2.2642  0.1148 -1.8083
43574SOL    HW237584   6.448   4.619   6.689 -0.3602  1.2250  0.2504
43575SOL     OW37585  11.675  10.434  11.572  0.1675 -0.1733 -0.3594
43575SOL    HW137586  11.671  10.472  11.484  2.3101 -0.5480 -0.6558
43575SOL    HW237587  11.767  10.439  11.596 -0.0570 -1.9198  1.0538
43576SOL     OW37588   7.188  12.258   9.317  0.4656  0.4387 -0.1606
43576SOL    HW137589   7.134  12.326   9.278  0.0261 -0.2972 -0.8780
43576SOL    HW237590   7.169  12.263   9.410 -1.1528 -0.0417 -0.4235
43577SOL     OW37591   4.351   4.167   7.269 -0.5402  0.4213 -0.0538
43577SOL    HW137592   4.270   4.151   7.317 -0.2006 -0.5721  0.2043
43577SOL    HW237593   4.414   4.105   7.306  0.3597  1.2167 -0.2080
43578SOL     OW37594   1.831  11.691   2.185  0.0266  0.3466 -0.1801
43578SOL    HW137595   1.894  11.721   2.120 -0.2445  2.9765  0.6292
43578SOL    HW237596   1.875  11.706   2.269 -0.6639 -0.3833  0.3262
43579SOL     OW37597   4.116  12.019  10.377 -0.7339  0.2791 -0.2054
43579SOL    HW137598   4.027  12.000  10.346 -0.3798 -2.0939  0.0442
43579SOL    HW237599   4.171  12.005  10.299 -0.2384 -2.0311  0.4793
43580SOL     OW37600   5.505  11.824   8.480 -0.3043 -0.0569 -0.5012
43580SOL    HW137601   5.486  11.859   8.393 -0.0518 -1.1781 -1.0283
43580SOL    HW237602   5.576  11.879   8.514 -0.8954  0.8442 -0.6884
43581SOL     OW37603   0.224   1.384   6.142 -0.3401 -0.0469 -0.6043
43581SOL    HW137604   0.130   1.399   6.153 -0.1929 -0.3016  1.3276
43581SOL    HW237605   0.230   1.323   6.068 -1.6459  0.3824 -1.0971
43582SOL     OW37606   5.417   2.331   4.350 -0.0350 -0.1242  0.2550
43582SOL    HW137607   5.403   2.239   4.329 -0.2297 -0.0222 -0.0590
43582SOL    HW237608   5.329   2.368   4.355 -0.1079 -0.4619  2.6986
43583SOL     OW37609  12.464  12.211  12.326  0.0506  0.1955 -0.3767
43583SOL    HW137610  12.430  12.183  12.411  0.2200  0.1186 -0.3347
43583SOL    HW237611  12.385  12.223  12.272  0.0296 -1.9308 -0.8998
43584SOL     OW37612  10.552   5.379   6.044  0.0120  0.7009 -0.7296
43584SOL    HW137613  10.623   5.315   6.043 -0.3596  0.2795 -0.7853
43584SOL    HW237614  10.594   5.463   6.062  0.4069  0.3119  0.2339
43585SOL     OW37615  12.408   5.828  11.120  0.0290 -0.2373  0.0187
43585SOL    HW137616  12.312   5.824  11.120  0.0178 -0.3278 -0.8750
43585SOL    HW237617  12.434   5.779  11.042  0.8031 -0.1989  0.2410
43586SOL     OW37618   6.431   9.402   3.025 -0.0191 -0.2813 -0.0502
43586SOL    HW137619   6.472   9.488   3.013 -0.3270 -0.0984  0.1829
43586SOL    HW237620   6.499   9.348   3.066  0.2315 -0.2003 -0.3581
43587SOL     OW37621   5.136   7.620   5.579  0.0362 -0.6997 -0.8820
43587SOL    HW137622   5.150   7.711   5.607 -0.1637 -0.9267  0.0025
43587SOL    HW237623   5.224   7.583   5.573  0.1402 -0.3358 -1.6418
43588SOL     OW37624  12.234   6.281   9.404  0.1650  0.1728  0.3176
43588SOL    HW137625  12.314   6.229   9.410  1.9797  2.9449  2.4042
43588SOL    HW237626  12.253   6.346   9.336 -0.8300  0.1152 -0.0316
43589SOL     OW37627   6.010   8.668   2.630 -0.3288  0.3252 -0.3201
43589SOL    HW137628   6.003   8.575   2.606  0.3333  0.4812 -1.1699
43589SOL    HW237629   6.015   8.667   2.725 -0.1585 -0.5295 -0.3268
43590SOL     OW37630   6.140   5.132   6.971  0.0672 -0.3107 -0.2685
43590SOL    HW137631   6.135   5.196   7.042  0.1762  0.0290 -0.5639
43590SOL    HW237632   6.091   5.171   6.899 -0.5501 -0.9192 -0.1910
43591SOL     OW37633   3.052   6.190  10.585 -0.4834  0.2396  0.6637
43591SOL    HW137634   3.137   6.173  10.626 -1.3280  0.4580  2.6109
43591SOL    HW237635   2.992   6.200  10.658 -2.0713  0.8002 -0.6627
43592SOL     OW37636   0.432  11.209   0.316 -0.4105 -0.0234  0.3600
43592SOL    HW137637   0.484  11.244   0.244 -1.2938  0.0812 -0.2492
43592SOL    HW237638   0.484  11.226   0.395  0.3086  0.3787 -0.1951
43593SOL     OW37639   3.887   2.562   4.038  0.8157 -0.0374 -0.2118
43593SOL    HW137640   3.848   2.583   3.953  0.6002 -2.8929 -0.9345
43593SOL    HW237641   3.812   2.554   4.097  0.3675 -2.8921 -0.9922
43594SOL     OW37642   9.521   3.991  11.457  0.1977 -0.8889  0.2389
43594SOL    HW137643   9.437   4.037  11.462  0.4243 -0.4400 -0.0740
43594SOL    HW237644   9.582   4.055  11.422  0.0404 -2.0389 -2.3626
43595SOL     OW37645   6.789   8.706  10.136 -0.0223  0.2609 -0.7347
43595SOL    HW137646   6.725   8.656  10.085 -0.6451  0.9154 -0.6155
43595SOL    HW237647   6.783   8.669  10.224 -0.6678  0.6887 -0.5860
43596SOL     OW37648  10.316  10.846   9.222 -0.2598 -0.4461  0.5526
43596SOL    HW137649  10.335  10.871   9.313 -1.7739  1.5974  0.3804
43596SOL    HW237650  10.401  10.824   9.185  0.5715  0.0050  2.0951
43597SOL     OW37651  10.427   7.418  10.032  0.2769  0.1084 -0.4493
43597SOL    HW137652  10.489   7.372   9.976 -0.8589  0.2885 -1.8949
43597SOL    HW237653  10.402   7.496   9.982 -1.0750  0.0673  0.1293
43598SOL     OW37654   9.342   3.605   4.993 -0.3334  0.5284 -0.2658
43598SOL    HW137655   9.376   3.519   5.017  0.7683  1.2146  0.7405
43598SOL    HW237656   9.371   3.618   4.902  2.7801  1.3440  0.7347
43599SOL     OW37657   3.192   4.552   7.493  0.1936  0.1876 -0.0133
43599SOL    HW137658   3.115   4.565   7.438  1.3171  0.2978 -1.6093
43599SOL    HW237659   3.228   4.639   7.506  0.5169  0.0496  0.0349
43600SOL     OW37660   7.071   5.547   1.579  0.7348 -0.1101  0.3708
43600SOL    HW137661   7.026   5.549   1.494 -0.6660 -0.7456  1.0723
43600SOL    HW237662   7.034   5.620   1.627  0.7068 -0.4191  0.8257
43601SOL     OW37663   9.549   3.002  10.559  0.3585  0.3120 -0.1220
43601SOL    HW137664   9.574   2.983  10.469  0.8034  1.5422 -0.2738
43601SOL    HW237665   9.571   3.094  10.571 -1.9434  0.8394  0.4781
43602SOL     OW37666   0.660   9.433   7.068 -0.4298 -1.0931 -0.2403
43602SOL    HW137667   0.706   9.516   7.059 -0.5489 -1.0234 -0.2027
43602SOL    HW237668   0.619   9.419   6.982  1.2812 -2.1253 -0.9554
43603SOL     OW37669  10.768   0.772   6.104  0.3925 -0.1721  0.1856
43603SOL    HW137670  10.787   0.803   6.193 -0.4016  1.3376 -0.1444
43603SOL    HW237671  10.746   0.680   6.115  1.1566 -0.2251  1.4413
43604SOL     OW37672  12.370  12.271   9.231  0.4195 -0.4596 -0.2527
43604SOL    HW137673  12.328  12.193   9.268 -0.4131 -0.2095 -0.6412
43604SOL    HW237674  12.322  12.345   9.268  2.5029  0.0148  1.7608
43605SOL     OW37675   0.026   6.971   2.213  0.5341  0.1115  0.1248
43605SOL    HW137676  -0.027   6.944   2.288 -0.9188  0.8500 -0.5929
43605SOL    HW237677   0.081   6.896   2.195  1.7943  0.3151  2.6402
43606SOL     OW37678   0.196   9.882   3.129  0.9666 -0.2360 -0.3011
43606SOL    HW137679   0.207   9.864   3.036  3.5616  1.8111 -0.5275
43606SOL    HW237680   0.278   9.852   3.169  0.2886 -0.2173  1.1629
43607SOL     OW37681   7.170   1.395   0.157 -0.4731  0.0693  0.4133
43607SOL    HW137682   7.161   1.379   0.251 -3.1193 -1.0693  0.0444
43607SOL    HW237683   7.259   1.365   0.136 -0.0583 -0.2536  2.4035
43608SOL     OW37684   6.212   4.202   0.360  0.1164  0.5783 -0.2172
43608SOL    HW137685   6.158   4.128   0.334 -0.5640  0.4402  1.4535
43608SOL    HW237686   6.163   4.279   0.332 -0.3062  0.4303  0.1125
43609SOL     OW37687   8.349   0.939  10.291  0.3238 -0.0256  0.2234
43609SOL    HW137688   8.385   0.992  10.362  1.4900 -0.1517 -0.2554
43609SOL    HW237689   8.377   0.984  10.212  0.0472 -0.5446 -0.1698
43610SOL     OW37690  12.159   9.240   5.122  0.1372  0.8186  0.3743
43610SOL    HW137691  12.240   9.231   5.172  1.2837  0.3299 -1.4708
43610SOL    HW237692  12.106   9.302   5.172  1.4212  0.7479  1.8899
43611SOL     OW37693   4.783   5.987   7.162 -0.2098  0.2995 -0.2949
43611SOL    HW137694   4.693   6.000   7.190 -0.4643  0.6942 -1.2419
43611SOL    HW237695   4.803   5.896   7.184 -0.3045  0.6528  1.3288
43612SOL     OW37696  11.490   3.032   8.586  0.0887 -0.0386 -0.1169
43612SOL    HW137697  11.555   3.064   8.523  1.1879  1.8644  1.8381
43612SOL    HW237698  11.540   2.977   8.647 -0.5944 -0.4043  0.1247
43613SOL     OW37699   3.530   7.576   5.131 -0.4943 -0.1803  0.0316
43613SOL    HW137700   3.559   7.664   5.108 -1.5481 -0.4127 -2.5165
43613SOL    HW237701   3.445   7.589   5.173  0.0891  0.0650  1.1931
43614SOL     OW37702   3.328   7.887   6.617  0.5640 -0.6254  0.3307
43614SOL    HW137703   3.319   7.981   6.636 -0.5565 -0.3465 -1.4217
43614SOL    HW237704   3.369   7.851   6.696 -0.4532  1.0606  1.7020
43615SOL     OW37705   7.566   5.196  10.772 -0.4308 -0.1924 -0.1064
43615SOL    HW137706   7.561   5.155  10.858  1.4979 -0.2079  0.0324
43615SOL    HW237707   7.576   5.290  10.790 -2.2247  0.0867 -0.3811
43616SOL     OW37708  11.895   9.664   2.695 -0.3912  0.2547 -0.2306
43616SOL    HW137709  11.958   9.656   2.767 -0.6243  2.4990  0.2940
43616SOL    HW237710  11.927   9.739   2.644 -1.6260  0.2685 -1.0141
43617SOL     OW37711   8.163   6.841  12.205 -0.1181  0.0108 -0.1508
43617SOL    HW137712   8.242   6.887  12.178  0.3854 -0.3678  0.6342
43617SOL    HW237713   8.091   6.899  12.179  0.4281  0.4718 -0.6418
43618SOL     OW37714   8.942   1.834   8.092  0.1799 -0.1010  0.3046
43618SOL    HW137715   8.848   1.836   8.075 -0.0184  1.3072  1.4306
43618SOL    HW237716   8.982   1.844   8.005 -0.7339  1.3799  0.0175
43619SOL     OW37717  10.299   4.949   5.364  0.0193 -0.1365 -0.5761
43619SOL    HW137718  10.366   4.886   5.337 -0.0670 -1.6563  2.4345
43619SOL    HW237719  10.349   5.028   5.386  0.5874 -0.5571 -0.3481
43620SOL     OW37720   3.475   6.696   2.586 -0.4278 -0.2530 -0.1845
43620SOL    HW137721   3.524   6.660   2.659 -0.7504  1.3648  0.8850
43620SOL    HW237722   3.519   6.778   2.565 -1.4634  0.2327 -0.5342
43621SOL     OW37723   4.744   2.739   3.343  0.0090  0.0868 -0.4398
43621SOL    HW137724   4.832   2.706   3.358 -1.0744 -1.9715  2.0318
43621SOL    HW237725   4.712   2.687   3.269  0.3299 -0.2610 -0.3382
43622SOL     OW37726  10.582   3.895  11.466  0.1105 -0.0240  0.3135
43622SOL    HW137727  10.495   3.902  11.505 -0.3552  3.8335 -0.9198
43622SOL    HW237728  10.566   3.860  11.378 -0.3798  1.2943 -0.1548
43623SOL     OW37729   9.524   4.704   6.060 -0.2893 -0.0575  0.1749
43623SOL    HW137730   9.538   4.698   5.966 -3.6423  1.2861 -0.5497
43623SOL    HW237731   9.524   4.798   6.079 -2.0779 -0.1709  0.9899
43624SOL     OW37732   3.792   1.873   6.982  0.1976  0.4754  0.4061
43624SOL    HW137733   3.806   1.960   6.943  0.5214  1.2591  2.1654
43624SOL    HW237734   3.875   1.827   6.968  0.1404  0.5567 -0.2385
43625SOL     OW37735   6.744   8.827   9.060  0.1318  0.5773 -0.1839
43625SOL    HW137736   6.727   8.865   8.973  0.3765  1.2096  0.0376
43625SOL    HW237737   6.817   8.879   9.094 -1.5384  1.9958  1.4377
43626SOL     OW37738   9.893   7.057  10.597  0.1324  0.7616  0.0964
43626SOL    HW137739   9.868   7.075  10.688  0.4578  0.2854  0.2787
43626SOL    HW237740   9.961   6.991  10.603 -0.5611 -0.0314 -0.5424
43627SOL     OW37741   9.472   0.196   1.592  0.1395 -0.5328  0.1623
43627SOL    HW137742   9.530   0.248   1.537 -0.6180 -1.2205 -1.3601
43627SOL    HW237743   9.493   0.222   1.681  1.4941  0.5495 -0.4396
43628SOL     OW37744  11.247   6.548   1.093 -0.0742  0.1483 -0.3800
43628SOL    HW137745  11.325   6.503   1.125 -1.4018 -1.8089  0.2337
43628SOL    HW237746  11.246   6.530   0.999 -0.4716 -0.9641 -0.1764
43629SOL     OW37747  10.042   0.827  12.371  0.2537 -0.0427  0.1471
43629SOL    HW137748   9.971   0.857  12.314 -0.2477 -1.0478  0.2117
43629SOL    HW237749  10.119   0.822  12.314 -0.2025 -0.8741 -0.4106
43630SOL     OW37750   3.851   0.455  11.679  0.8019 -0.2012 -0.7200
43630SOL    HW137751   3.854   0.543  11.642  0.7305  0.9798  1.8492
43630SOL    HW237752   3.940   0.438  11.709  0.5302 -0.4297 -0.0194
43631SOL     OW37753   1.246   7.356   9.270 -0.5445  0.0125  0.2873
43631SOL    HW137754   1.216   7.304   9.345 -0.5263 -0.6037 -0.1213
43631SOL    HW237755   1.335   7.323   9.253 -0.3987  0.4260  0.2399
43632SOL     OW37756   8.329   9.834   2.922  0.3153  0.7264 -0.5351
43632SOL    HW137757   8.262   9.884   2.876 -0.5488  0.1221  0.0227
43632SOL    HW237758   8.400   9.897   2.938  0.8200  0.8528 -2.9828
43633SOL     OW37759   7.763  10.080  11.738  0.3119  0.5924 -0.3536
43633SOL    HW137760   7.684  10.079  11.792  0.2705 -0.9381 -0.3865
43633SOL    HW237761   7.818  10.147  11.777 -0.5738  0.9502  0.3158
43634SOL     OW37762   9.059   4.177   3.265 -0.5778  0.5099 -0.1697
43634SOL    HW137763   9.058   4.233   3.187  1.2698  0.1678 -0.4706
43634SOL    HW237764   9.079   4.237   3.337 -1.9510  0.7664  0.0389
43635SOL     OW37765   2.687   5.614   3.330 -0.2641  0.5143  0.7697
43635SOL    HW137766   2.733   5.697   3.316  2.5187 -0.9958  0.4010
43635SOL    HW237767   2.651   5.592   3.244  1.8002 -0.2049  0.0469
43636SOL     OW37768   1.206   4.488  12.374  0.2117 -0.2433 -0.3425
43636SOL    HW137769   1.263   4.475  12.297  0.9201  0.0556  0.1179
43636SOL    HW237770   1.244   4.563  12.419 -0.6342  0.0371 -0.0811
43637SOL     OW37771   8.556   4.721  11.438  0.5176  0.0749 -0.8852
43637SOL    HW137772   8.559   4.718  11.534 -3.4825  1.2884 -0.5558
43637SOL    HW237773   8.553   4.629  11.411  0.7589 -0.2659  0.2050
43638SOL     OW37774   8.368   1.653   1.398 -0.3674  0.5256  0.8666
43638SOL    HW137775   8.338   1.698   1.476 -1.1613  0.6707  0.4853
43638SOL    HW237776   8.463   1.668   1.395 -0.1622 -0.3114  2.3303
43639SOL     OW37777  11.675  10.655   3.494 -0.1189 -0.5483 -0.7624
43639SOL    HW137778  11.591  10.651   3.448  1.0040 -0.4307 -2.9556
43639SOL    HW237779  11.666  10.731   3.552 -1.4634 -0.4265 -1.0878
43640SOL     OW37780   9.166   5.004   6.265 -0.7324 -0.6076 -0.0150
43640SOL    HW137781   9.235   5.043   6.318 -1.5648  1.6512 -0.4920
43640SOL    HW237782   9.099   4.976   6.328 -0.7499  0.0545  0.2608
43641SOL     OW37783   3.439   2.720  12.375 -0.1876  0.3779  0.1193
43641SOL    HW137784   3.346   2.718  12.398 -0.1084  1.1295  0.5708
43641SOL    HW237785   3.484   2.722  12.460  0.3192 -1.5967 -0.0545
43642SOL     OW37786   1.313   9.177   4.175 -0.0411 -0.6052  0.8661
43642SOL    HW137787   1.370   9.102   4.193  0.0825 -1.1215 -1.3776
43642SOL    HW237788   1.332   9.201   4.084 -0.6266  1.6952  1.2839
43643SOL     OW37789  12.004   8.060   9.841  0.4277 -0.2664  0.0164
43643SOL    HW137790  11.916   8.094   9.851 -0.0477 -2.0877  4.1344
43643SOL    HW237791  11.991   7.967   9.819  1.2755 -0.6300  0.9912
43644SOL     OW37792   4.357  11.280   9.079  0.0076 -0.1699  0.0878
43644SOL    HW137793   4.440  11.233   9.069  0.1006 -0.1609  0.7918
43644SOL    HW237794   4.351  11.335   9.000  0.8232  0.0603  0.1804
43645SOL     OW37795   3.550   5.248   9.173  0.1293  0.5190 -0.3666
43645SOL    HW137796   3.621   5.185   9.167 -1.5258 -1.3914 -1.2489
43645SOL    HW237797   3.522   5.262   9.083 -1.3373  0.2942  0.0253
43646SOL     OW37798   2.354  10.826   5.895 -0.1088 -0.2874  0.2492
43646SOL    HW137799   2.378  10.851   5.984 -1.7278 -0.1051  0.6724
43646SOL    HW237800   2.258  10.818   5.898 -0.1560 -0.6122 -1.3914
43647SOL     OW37801   7.998   6.808   6.636  0.1815 -0.2936  0.4108
43647SOL    HW137802   8.053   6.736   6.666  2.0995  0.1832 -1.7057
43647SOL    HW237803   7.973   6.854   6.716  2.5964 -0.7766  1.5310
43648SOL     OW37804   0.253   5.900   7.820 -0.2561  0.0197 -0.0017
43648SOL    HW137805   0.319   5.895   7.750  0.3056 -0.6243  0.5585
43648SOL    HW237806   0.169   5.896   7.774  0.0871  0.7383 -0.7191
43649SOL     OW37807   0.131   5.235   2.765  0.2064  0.2024  0.0936
43649SOL    HW137808   0.157   5.150   2.799  0.7009 -0.2631 -1.3751
43649SOL    HW237809   0.068   5.268   2.829  0.2359 -1.1254  0.8399
43650SOL     OW37810   4.412   3.246   5.489 -0.3607 -0.4017  0.0746
43650SOL    HW137811   4.341   3.241   5.553  0.3469  0.5990  0.9762
43650SOL    HW237812   4.454   3.160   5.493 -0.5672 -0.4791  0.6781
43651SOL     OW37813   8.449   0.365   2.721 -0.2097 -0.0051  0.1153
43651SOL    HW137814   8.423   0.401   2.636  0.6051  0.9159  0.2443
43651SOL    HW237815   8.536   0.327   2.706 -0.2139 -0.1540  0.4629
43652SOL     OW37816   7.873   3.124   7.119  0.5497 -0.1847  0.0151
43652SOL    HW137817   7.908   3.213   7.118 -1.0262  0.5335  1.9418
43652SOL    HW237818   7.825   3.118   7.202  0.6007 -2.8424 -0.0565
43653SOL     OW37819   5.204   9.329   7.589  0.7549  0.4153 -0.1255
43653SOL    HW137820   5.112   9.350   7.573  1.0251  2.5972  0.8168
43653SOL    HW237821   5.252   9.375   7.520  1.2099  0.3403  0.1333
43654SOL     OW37822   5.593   0.272   1.647  0.6676  0.7978  0.3782
43654SOL    HW137823   5.629   0.196   1.602  0.0035 -0.2228  1.5097
43654SOL    HW237824   5.640   0.347   1.609  0.4892 -0.0394 -1.6116
43655SOL     OW37825   0.162   3.566   0.489  0.0335  0.2847  0.3875
43655SOL    HW137826   0.165   3.490   0.547  0.8136  0.6255  0.8090
43655SOL    HW237827   0.074   3.564   0.452 -0.1947 -0.4168  0.9391
43656SOL     OW37828   4.337   6.150   9.389 -0.1909 -0.1570  0.0028
43656SOL    HW137829   4.242   6.140   9.382 -0.1479  0.3914 -1.8196
43656SOL    HW237830   4.362   6.197   9.310  1.4976  0.5863  0.9388
43657SOL     OW37831   3.199  11.840   6.354 -0.2027  0.0939  0.0761
43657SOL    HW137832   3.126  11.792   6.316 -1.9573  0.5821  2.5768
43657SOL    HW237833   3.235  11.781   6.421 -0.7841  1.2557  1.4610
43658SOL     OW37834  11.279   3.459  11.912 -0.2368 -0.3741 -0.1308
43658SOL    HW137835  11.243   3.539  11.875 -2.2375 -1.2523 -0.1843
43658SOL    HW237836  11.367   3.483  11.941 -0.3338  1.4939 -1.2800
43659SOL     OW37837   6.620   0.213   1.246  0.2128 -0.7037  0.3096
43659SOL    HW137838   6.694   0.243   1.194  0.3587  1.6510  1.7204
43659SOL    HW237839   6.550   0.198   1.183  0.4966  1.6608 -0.6674
43660SOL     OW37840  11.099   5.200  11.227  0.0888  0.0397  0.7265
43660SOL    HW137841  11.126   5.183  11.137 -1.1811  0.2596  0.2832
43660SOL    HW237842  11.173   5.171  11.280  0.3619 -1.2952 -0.3169
43661SOL     OW37843   9.455   8.698   9.527  0.3715 -0.0885 -0.3817
43661SOL    HW137844   9.452   8.791   9.546 -1.3514 -0.3220  0.7539
43661SOL    HW237845   9.363   8.670   9.528  0.9412 -2.2674  2.0176
43662SOL     OW37846   5.373  12.013   0.577 -0.0623  0.4060  0.0889
43662SOL    HW137847   5.435  12.043   0.511  0.0820 -2.2251 -1.1002
43662SOL    HW237848   5.404  12.052   0.659  2.6688 -0.0887 -0.6175
43663SOL     OW37849   6.260   6.225  10.743 -0.2161 -0.4980 -0.5377
43663SOL    HW137850   6.329   6.170  10.782 -0.9283 -0.6518  0.5685
43663SOL    HW237851   6.181   6.171  10.748 -0.7908  0.3632 -0.0596
43664SOL     OW37852   8.396   7.475   6.314 -0.3932  0.0577 -0.1054
43664SOL    HW137853   8.451   7.431   6.249  2.2158  1.8743  0.7209
43664SOL    HW237854   8.417   7.431   6.396 -0.9253  0.1602  0.0907
43665SOL     OW37855   6.986   5.678   7.031  0.1298 -0.1997  0.3452
43665SOL    HW137856   6.914   5.717   6.981  0.0908  0.6381  1.0311
43665SOL    HW237857   7.002   5.594   6.989  0.3987  0.6623 -1.3536
43666SOL     OW37858   0.360   7.024   0.156 -0.8604  0.2195 -0.0715
43666SOL    HW137859   0.402   7.109   0.172  0.8201 -0.5623 -0.1473
43666SOL    HW237860   0.332   6.995   0.243  1.9211 -0.7867  0.6202
43667SOL     OW37861  12.216   0.707   1.701  0.4952  0.9459 -0.2709
43667SOL    HW137862  12.226   0.707   1.606  0.9236 -0.3414 -0.2398
43667SOL    HW237863  12.275   0.638   1.732 -1.5663 -0.5052  0.6948
43668SOL     OW37864   7.667   5.345   3.990  0.7462  0.1726 -0.0380
43668SOL    HW137865   7.696   5.433   3.966  1.0908 -0.3876 -1.8282
43668SOL    HW237866   7.729   5.286   3.947 -1.3406 -0.9920 -1.7195
43669SOL     OW37867   1.249   3.657   9.376 -0.0827 -0.1333  0.2118
43669SOL    HW137868   1.231   3.633   9.285 -1.0178 -0.7409  0.5356
43669SOL    HW237869   1.231   3.577   9.426  0.3574  0.2087  0.9375
43670SOL     OW37870   1.709   3.892   3.997  0.6815  0.3787 -0.0965
43670SOL    HW137871   1.742   3.816   4.046 -0.0399  0.0609 -0.0935
43670SOL    HW237872   1.786   3.948   3.986  0.7103  0.8799  2.1601
43671SOL     OW37873   4.200   1.251  10.857 -0.1164 -0.0932 -0.2450
43671SOL    HW137874   4.228   1.160  10.854  0.0659 -0.0471 -3.8143
43671SOL    HW237875   4.273   1.300  10.819 -1.9656  0.9244 -2.7592
43672SOL     OW37876   1.493   2.087   2.673  0.1076 -0.3681  0.5324
43672SOL    HW137877   1.448   2.007   2.644 -0.9766  0.2184  0.5500
43672SOL    HW237878   1.499   2.141   2.594  2.6943 -1.2662  0.0258
43673SOL     OW37879  12.219   4.116   0.965 -0.2211  0.2856  0.1295
43673SOL    HW137880  12.127   4.133   0.982 -0.3675 -0.5116  0.1928
43673SOL    HW237881  12.247   4.187   0.907 -0.5608  1.1917  1.0475
43674SOL     OW37882  11.568   9.379   8.071  0.4555 -0.2550  0.1274
43674SOL    HW137883  11.586   9.436   7.997 -1.1623  1.9028  1.2918
43674SOL    HW237884  11.531   9.299   8.032  2.2705 -0.3538 -1.4969
43675SOL     OW37885   9.261   3.271   4.146 -0.7791  0.3301  0.1528
43675SOL    HW137886   9.177   3.274   4.101 -1.4660 -0.2222  1.3338
43675SOL    HW237887   9.302   3.190   4.116 -0.8286  0.4108 -0.1372
43676SOL     OW37888   9.776   7.132  10.175 -1.1402  0.9687  0.1149
43676SOL    HW137889   9.682   7.149  10.164 -1.0257  0.9921 -0.9508
43676SOL    HW237890   9.812   7.141  10.087 -0.1204  1.0198  0.5271
43677SOL     OW37891   6.510   4.243  12.241  0.2736 -0.5249 -0.0242
43677SOL    HW137892   6.561   4.288  12.309 -0.5912  0.3969  0.0345
43677SOL    HW237893   6.424   4.228  12.281  0.0256 -0.7357 -0.6266
43678SOL     OW37894   1.602   5.421   6.606 -0.4272 -0.3871 -0.1989
43678SOL    HW137895   1.689   5.452   6.631 -0.8215  0.6109 -0.0480
43678SOL    HW237896   1.579   5.357   6.674 -0.6215  0.7720  0.8491
43679SOL     OW37897   6.973   9.571   3.169 -0.3986  0.3684 -0.1927
43679SOL    HW137898   6.925   9.489   3.173  0.1438  0.1001  1.3414
43679SOL    HW237899   7.054   9.555   3.217 -0.2856  1.8051  0.1518
43680SOL     OW37900   2.911   9.269   5.606 -0.9531  0.0405  0.5044
43680SOL    HW137901   2.900   9.199   5.670 -0.9432 -0.5853 -0.1588
43680SOL    HW237902   2.873   9.234   5.525 -0.0054  0.3888 -0.1108
43681SOL     OW37903  10.716   4.103  10.051  0.2589  0.1194  0.2151
43681SOL    HW137904  10.750   4.070  10.134 -0.6902 -0.9592  0.1983
43681SOL    HW237905  10.633   4.056  10.039 -0.7041  1.8751 -0.2643
43682SOL     OW37906   3.725   8.339   5.600 -0.0173 -0.2559 -0.1033
43682SOL    HW137907   3.728   8.271   5.667  1.3863 -0.3606 -0.2377
43682SOL    HW237908   3.634   8.341   5.571  0.0027 -2.3984 -0.4318
43683SOL     OW37909   7.624   1.406  10.486 -0.5701  0.3436 -0.8329
43683SOL    HW137910   7.579   1.339  10.434 -0.6667 -0.4895  0.2980
43683SOL    HW237911   7.716   1.397  10.462 -0.5277 -0.4940 -0.3556
43684SOL     OW37912   0.606   3.026   2.036 -1.0646  0.2781  0.0499
43684SOL    HW137913   0.686   3.019   1.984  0.2292  1.3646  1.7935
43684SOL    HW237914   0.599   2.941   2.080 -2.4084 -0.8148 -2.0893
43685SOL     OW37915  12.231   9.738   0.536  0.1180  0.2594 -0.6496
43685SOL    HW137916  12.240   9.768   0.626 -0.1771 -0.5133 -0.3536
43685SOL    HW237917  12.317   9.753   0.497  0.1683  0.8452 -0.3221
43686SOL     OW37918   9.681  10.337   2.055  0.3203  0.1484  0.1809
43686SOL    HW137919   9.611  10.329   2.120  0.3880  0.6377  0.3187
43686SOL    HW237920   9.722  10.421   2.074  0.5777  0.1273 -0.2637
43687SOL     OW37921   8.871   2.728   8.790 -0.2618  0.0767  0.0493
43687SOL    HW137922   8.806   2.792   8.758  0.6514  0.9028 -0.2004
43687SOL    HW237923   8.859   2.729   8.885  0.6107  1.6335  0.1811
43688SOL     OW37924   1.421   4.001   7.805 -0.4130  0.5861 -0.0485
43688SOL    HW137925   1.382   3.943   7.870  1.6339 -0.8008  0.0588
43688SOL    HW237926   1.402   3.958   7.721  0.9479 -0.1953  0.0175
43689SOL     OW37927   4.146   3.834   8.702 -0.1122 -0.0186 -0.3230
43689SOL    HW137928   4.117   3.925   8.700 -0.4812 -0.1405 -2.0698
43689SOL    HW237929   4.219   3.833   8.765 -1.0839  1.1513  0.8659
43690SOL     OW37930   9.156   5.003  11.507  0.2570  0.1765 -0.0612
43690SOL    HW137931   9.177   5.091  11.538  2.0037  0.2675 -1.3689
43690SOL    HW237932   9.160   4.948  11.585 -1.0836  1.2480  0.8139
43691SOL     OW37933  10.015   5.042   8.701 -0.0113  0.1222 -0.0064
43691SOL    HW137934   9.936   5.012   8.747  0.2078  0.2603  0.4665
43691SOL    HW237935  10.064   5.092   8.768  1.8773 -2.3062  0.5530
43692SOL     OW37936   1.180   5.348   2.429 -0.2687 -0.2858  0.1272
43692SOL    HW137937   1.125   5.286   2.477 -0.1385 -0.5861 -0.1132
43692SOL    HW237938   1.142   5.351   2.341 -0.9226  0.7801  0.4281
43693SOL     OW37939   6.479   7.889  12.122  0.2898 -0.5444 -0.8404
43693SOL    HW137940   6.398   7.838  12.112  0.7404 -1.6289  0.6767
43693SOL    HW237941   6.496   7.924  12.035 -2.4594  0.7462 -0.9383
43694SOL     OW37942   5.321  10.574   4.881  0.1158 -0.0939  0.4370
43694SOL    HW137943   5.274  10.627   4.945 -2.4553 -1.4874 -0.1566
43694SOL    HW237944   5.253  10.521   4.839  1.9579 -0.6460 -2.0854
43695SOL     OW37945   7.729   5.000   2.572 -0.5051 -0.3560  0.7192
43695SOL    HW137946   7.641   5.026   2.597 -0.7221 -0.6848  0.3081
43695SOL    HW237947   7.720   4.909   2.542 -0.0700 -0.3212  0.4698
43696SOL     OW37948   4.465   8.645  10.635 -0.0178 -0.2928 -0.1086
43696SOL    HW137949   4.437   8.629  10.725 -0.5878  1.3437  0.0293
43696SOL    HW237950   4.559   8.628  10.636  0.1821  0.7485  1.0699
43697SOL     OW37951   9.826   2.012  11.190  0.0976  0.3566  0.5550
43697SOL    HW137952   9.798   1.988  11.102 -1.0757 -0.4435  1.1288
43697SOL    HW237953   9.746   2.038  11.235  0.4753 -0.4623  1.7652
43698SOL     OW37954   2.029   3.782  11.686  0.7027  0.7621  0.1899
43698SOL    HW137955   2.056   3.700  11.727 -1.3607 -0.2754 -0.3634
43698SOL    HW237956   2.052   3.850  11.750  1.8606 -0.2956  0.9413
43699SOL     OW37957  10.265   0.836  12.200 -0.9222  0.2863  0.5384
43699SOL    HW137958  10.294   0.745  12.200 -0.7019  0.3055  3.1351
43699SOL    HW237959  10.250   0.856  12.107 -1.3677 -2.4875 -0.0676
43700SOL     OW37960  12.199   4.601   8.411 -0.2055  0.3248  0.2612
43700SOL    HW137961  12.121   4.627   8.362 -1.4731 -0.9907  1.4989
43700SOL    HW237962  12.254   4.556   8.347 -1.2402 -0.2207 -0.2650
43701SOL     OW37963  11.752   1.145   5.242 -0.4704  0.6046  0.6432
43701SOL    HW137964  11.719   1.206   5.176  0.8666 -2.4774 -3.2612
43701SOL    HW237965  11.837   1.181   5.268  1.6415 -0.6101 -3.6944
43702SOL     OW37966   1.088   7.251   8.365  0.2152 -0.0995 -0.0216
43702SOL    HW137967   1.059   7.323   8.309  2.8793  0.9372 -0.2195
43702SOL    HW237968   1.013   7.192   8.369 -1.8119  2.2914 -0.4623
43703SOL     OW37969   0.231   7.719   2.997  0.1069 -0.1274  0.2208
43703SOL    HW137970   0.154   7.673   2.964  0.0368 -0.2604  0.5719
43703SOL    HW237971   0.289   7.649   3.028 -0.4579  0.0552  1.7761
43704SOL     OW37972   3.831   4.392  12.385 -0.0390  0.1701 -0.2405
43704SOL    HW137973   3.813   4.365  12.475  0.3027  0.0301 -0.2141
43704SOL    HW237974   3.838   4.310  12.336 -0.8689  0.2562 -0.5266
43705SOL     OW37975   8.107   8.580   7.447 -0.2778  0.4220 -0.1017
43705SOL    HW137976   8.107   8.601   7.354  0.0881 -3.7673 -1.2479
43705SOL    HW237977   8.038   8.515   7.457 -0.1012  0.5413  2.5345
43706SOL     OW37978   6.017   7.404   3.493 -0.2163  0.3179  0.2305
43706SOL    HW137979   6.113   7.404   3.497 -0.2379  1.3967  2.3966
43706SOL    HW237980   5.997   7.439   3.407  1.2434 -2.9760 -1.6513
43707SOL     OW37981   3.319  10.714   6.048  0.4168  0.0433 -0.0550
43707SOL    HW137982   3.319  10.750   6.137 -1.5772  1.8821 -0.7106
43707SOL    HW237983   3.227  10.705   6.026  0.8789 -2.0064 -1.3612
43708SOL     OW37984   1.160   4.820   8.184  0.0588 -0.2965  0.5049
43708SOL    HW137985   1.113   4.904   8.176  3.4177  1.6598 -0.8217
43708SOL    HW237986   1.188   4.817   8.275 -0.1875 -0.0619  0.5915
43709SOL     OW37987   6.573   6.949   1.349 -0.2135  0.5845  1.0151
43709SOL    HW137988   6.600   7.040   1.359  1.6695  0.2212 -0.1548
43709SOL    HW237989   6.655   6.902   1.331 -1.5279 -0.7783 -2.0759
43710SOL     OW37990   8.311  10.435   7.113  0.2419  0.3704  0.4359
43710SOL    HW137991   8.288  10.342   7.111  0.2092  0.3545  1.1794
43710SOL    HW237992   8.350  10.452   7.028 -1.3681  0.0915 -0.4113
43711SOL     OW37993   5.718   9.555   5.927  0.3208 -0.3414  1.1929
43711SOL    HW137994   5.700   9.646   5.949  1.2308  0.6182 -1.5303
43711SOL    HW237995   5.644   9.529   5.871  0.5619 -0.9291  1.1366
43712SOL     OW37996   8.243   3.623   7.547  0.0748 -0.1542  0.3561
43712SOL    HW137997   8.157   3.606   7.507  0.0907  0.1882  0.1727
43712SOL    HW237998   8.242   3.572   7.628  0.7832 -2.5000 -1.0006
43713SOL     OW37999   6.754  12.103   8.796 -0.2367  0.4516 -0.1769
43713SOL    HW138000   6.709  12.067   8.719 -1.0750  2.5616 -0.7188
43713SOL    HW238001   6.847  12.099   8.772 -0.3978 -0.1122 -0.7494
43714SOL     OW38002   1.029   6.889   1.030  0.0328 -0.1844  0.4749
43714SOL    HW138003   1.101   6.948   1.008  0.4635 -0.6925  0.5071
43714SOL    HW238004   0.989   6.867   0.945 -1.2007  1.4572  0.5682
43715SOL     OW38005   4.703   1.898  11.046  0.1493 -0.0276  0.8568
43715SOL    HW138006   4.645   1.884  11.121  1.1577 -0.5673  1.5581
43715SOL    HW238007   4.646   1.934  10.978 -1.1908 -1.3506  1.2282
43716SOL     OW38008   3.400   5.206  12.374  0.1827 -0.5743 -0.7832
43716SOL    HW138009   3.467   5.170  12.316  0.6925 -1.5886  0.4211
43716SOL    HW238010   3.430   5.295  12.392  1.2950 -1.0699 -0.1313
43717SOL     OW38011   2.761   7.995   7.093  0.6341 -0.4077  0.0481
43717SOL    HW138012   2.810   7.931   7.041  0.1158 -0.5147 -0.3121
43717SOL    HW238013   2.674   7.995   7.055  0.5001  0.1739  0.3497
43718SOL     OW38014   7.736   6.044  10.415 -0.5928 -0.4146 -0.1187
43718SOL    HW138015   7.688   6.122  10.446  0.1187  0.4736 -1.1710
43718SOL    HW238016   7.821   6.078  10.389  0.2082 -1.7910  0.6232
43719SOL     OW38017  12.359   0.214   4.515 -0.2682  0.3667  0.4317
43719SOL    HW138018  12.279   0.161   4.515 -0.2850  0.3548  1.5235
43719SOL    HW238019  12.369   0.243   4.425 -1.5479  0.4328  0.2910
43720SOL     OW38020  10.729   4.652   8.500 -0.9112  0.3222  0.5891
43720SOL    HW138021  10.824   4.640   8.504 -0.8094  0.5591 -0.5815
43720SOL    HW238022  10.718   4.746   8.485 -1.4012  0.5277  2.0700
43721SOL     OW38023  12.168   8.838   1.733  0.0122 -0.0193 -0.4736
43721SOL    HW138024  12.105   8.788   1.681 -0.7661  1.5567 -1.1250
43721SOL    HW238025  12.213   8.893   1.669  1.0355 -0.0812  0.1770
43722SOL     OW38026  10.427   5.099   8.498 -0.2780 -0.1453  0.3729
43722SOL    HW138027  10.446   5.022   8.551 -1.4189  0.3645  1.5888
43722SOL    HW238028  10.339   5.084   8.463 -0.2988  0.3646  0.1986
43723SOL     OW38029   9.054   8.178   2.816  0.2965  0.0027 -0.2198
43723SOL    HW138030   8.989   8.109   2.803 -0.2361  0.1388  1.5131
43723SOL    HW238031   9.138   8.134   2.807 -0.0394 -0.5357 -0.7482
43724SOL     OW38032   1.359   0.251   1.054  0.1231 -0.2959 -0.1662
43724SOL    HW138033   1.336   0.339   1.083 -0.9582 -0.4426 -0.5466
43724SOL    HW238034   1.288   0.225   0.995 -0.7401 -2.2289  1.5748
43725SOL     OW38035   3.391   5.308   7.391 -0.4539 -0.0838 -0.4324
43725SOL    HW138036   3.351   5.223   7.408  0.2168 -0.3227  0.0136
43725SOL    HW238037   3.409   5.344   7.478 -1.3276  0.8110 -0.6065
43726SOL     OW38038   5.149   8.994   8.372  0.0065  0.1352  0.3423
43726SOL    HW138039   5.078   8.975   8.310  0.3501  0.1309 -0.0528
43726SOL    HW238040   5.108   8.986   8.458 -0.5022  0.2415  0.1168
43727SOL     OW38041   3.583   0.272  10.421  0.3647 -0.2274  0.2165
43727SOL    HW138042   3.653   0.319  10.466  0.7419 -0.6924  0.1256
43727SOL    HW238043   3.618   0.253  10.334 -0.4665  0.9171 -0.3918
43728SOL     OW38044   6.725  10.130   4.735 -0.0583  0.0882 -0.6425
43728SOL    HW138045   6.794  10.133   4.801  0.8634 -1.7870 -1.4550
43728SOL    HW238046   6.768  10.157   4.654  0.1413 -2.3138 -1.4175
43729SOL     OW38047   2.055  10.197   3.832  0.6746 -0.1547  0.0047
43729SOL    HW138048   2.003  10.277   3.821  0.1821 -0.5073 -0.2239
43729SOL    HW238049   2.058  10.159   3.744  0.0397 -0.9315  0.3087
43730SOL     OW38050   0.887   1.692   8.730 -0.6050 -0.5326  0.3567
43730SOL    HW138051   0.867   1.611   8.683 -0.7145 -0.5244  0.3878
43730SOL    HW238052   0.840   1.683   8.813 -1.4714  0.0177 -0.0666
43731SOL     OW38053   8.136   0.471   1.800  0.5550 -0.2357  0.2737
43731SOL    HW138054   8.043   0.449   1.800  0.1514  1.2409  2.0200
43731SOL    HW238055   8.139   0.566   1.812  2.2875 -0.0594 -1.1600
43732SOL     OW38056   0.451   9.284   5.583 -0.1850 -0.0077 -0.6555
43732SOL    HW138057   0.405   9.222   5.527 -1.3937  0.2562  0.0054
43732SOL    HW238058   0.390   9.357   5.592 -0.8027 -0.7780  2.4004
43733SOL     OW38059   1.719   4.675   1.336  0.1771 -0.2565 -0.2180
43733SOL    HW138060   1.669   4.631   1.267  1.1335 -0.9246 -0.5065
43733SOL    HW238061   1.757   4.752   1.293  0.2032 -0.2923 -0.2591
43734SOL     OW38062   1.875   9.199   4.305  0.6535  0.4675  0.3637
43734SOL    HW138063   1.827   9.161   4.378  0.0754  0.8767  0.1946
43734SOL    HW238064   1.851   9.291   4.304  0.8963  0.5324 -0.1508
43735SOL     OW38065   4.658   0.458   4.838  0.4237 -0.0552  0.1612
43735SOL    HW138066   4.695   0.378   4.801 -0.1772 -0.0059 -0.5741
43735SOL    HW238067   4.612   0.499   4.765  0.2819  0.6972  0.6607
43736SOL     OW38068  11.020  11.313   0.639  0.4140  0.2289  0.1093
43736SOL    HW138069  11.097  11.263   0.665 -0.5264 -1.1493  0.3370
43736SOL    HW238070  10.982  11.265   0.566 -0.6803  0.4375  0.5173
43737SOL     OW38071  11.907  11.466   0.702 -0.5323 -0.6490  0.3371
43737SOL    HW138072  11.906  11.521   0.623 -1.0748 -1.1693 -0.0293
43737SOL    HW238073  11.998  11.439   0.711 -0.6257 -1.3558 -0.6652
43738SOL     OW38074  10.397   3.373   3.762 -0.1954  0.1642 -0.0409
43738SOL    HW138075  10.481   3.410   3.789 -0.1522  0.2328 -0.2602
43738SOL    HW238076  10.368   3.431   3.691 -0.9272  0.7597  0.7343
43739SOL     OW38077   5.777  10.838   2.869 -0.0836 -0.2261  0.1734
43739SOL    HW138078   5.763  10.835   2.775 -0.9634 -2.2456  0.3222
43739SOL    HW238079   5.828  10.760   2.889 -0.3257 -0.0977  1.4256
43740SOL     OW38080   2.794  11.727   2.162 -0.1866  0.0873 -0.4593
43740SOL    HW138081   2.781  11.821   2.148  1.9248  0.4368 -0.5067
43740SOL    HW238082   2.729  11.686   2.105 -1.8364  1.4866  0.3197
43741SOL     OW38083   8.031   2.278   6.781 -0.0639 -0.2554  0.2628
43741SOL    HW138084   8.022   2.191   6.821 -0.5161 -0.4054 -0.1383
43741SOL    HW238085   8.101   2.267   6.717 -1.7021 -1.0304 -1.5210
43742SOL     OW38086   1.779   3.537   7.263  0.2802  0.4834  0.2776
43742SOL    HW138087   1.805   3.577   7.347 -0.0242 -0.2022  0.7111
43742SOL    HW238088   1.737   3.455   7.288  1.3792 -0.3853 -0.6133
43743SOL     OW38089   2.217  10.355   1.733 -0.2053 -0.0040  0.0625
43743SOL    HW138090   2.296  10.349   1.787 -0.0692  1.0584 -0.0092
43743SOL    HW238091   2.240  10.307   1.653 -0.5553 -1.9671  1.0690
43744SOL     OW38092   7.851  10.876   5.448 -0.0497 -0.5497 -0.2644
43744SOL    HW138093   7.872  10.784   5.459  0.9391 -0.4667 -1.2855
43744SOL    HW238094   7.762  10.885   5.484 -0.4871 -2.0526 -0.8865
43745SOL     OW38095   4.097   8.145   5.537 -0.7113  0.2928  0.2941
43745SOL    HW138096   4.059   8.152   5.449 -2.0825  1.9528  0.9823
43745SOL    HW238097   4.048   8.074   5.579 -0.1211 -0.4361 -0.2170
43746SOL     OW38098   2.949  10.803   4.275  0.1568 -1.4233  0.1346
43746SOL    HW138099   3.023  10.863   4.269  0.3124 -1.6865 -0.7041
43746SOL    HW238100   2.982  10.729   4.326 -0.1484 -0.6568  1.5043
43747SOL     OW38101   9.909   2.513  10.069  0.0011 -0.3273  0.0486
43747SOL    HW138102   9.826   2.549  10.039  0.3099  1.2821  1.0079
43747SOL    HW238103   9.894   2.487  10.159 -0.0230 -2.0852 -0.4225
43748SOL     OW38104   5.950   3.521   1.717  0.5623 -0.5084 -0.5339
43748SOL    HW138105   6.007   3.495   1.645 -0.6044 -0.9911 -1.3129
43748SOL    HW238106   5.935   3.614   1.703  0.5784 -0.5355 -0.7324
43749SOL     OW38107   2.491  11.190   2.564 -0.7475 -0.5365 -0.1283
43749SOL    HW138108   2.559  11.171   2.628 -0.0996  2.0867  0.0622
43749SOL    HW238109   2.435  11.112   2.565  2.0282 -2.6950 -0.0887
43750SOL     OW38110  11.355   2.996  12.139 -0.2121  0.6240  0.0521
43750SOL    HW138111  11.396   3.080  12.118  0.3096  0.3487 -0.0528
43750SOL    HW238112  11.324   2.963  12.055  1.7280 -0.3997 -0.3309
43751SOL     OW38113   1.933   9.114   6.958 -0.6525 -0.5997  0.8109
43751SOL    HW138114   2.012   9.098   7.010  0.3885  1.4392 -0.0236
43751SOL    HW238115   1.868   9.145   7.020 -0.4383 -1.1761  1.3328
43752SOL     OW38116   4.740  12.312   5.743  0.0031 -0.2510  0.1021
43752SOL    HW138117   4.734  12.286   5.835  2.6485  0.4280  0.5700
43752SOL    HW238118   4.663  12.274   5.701 -0.0096 -2.6670  2.1234
43753SOL     OW38119   3.140  12.131  11.777  0.0491 -0.1039  0.7972
43753SOL    HW138120   3.078  12.070  11.735 -0.0776 -0.1486  1.0478
43753SOL    HW238121   3.164  12.088  11.859  0.5388 -0.1591  0.6253
43754SOL     OW38122   1.459   3.080   8.941 -0.4642  0.1207 -0.1633
43754SOL    HW138123   1.402   3.019   8.894 -0.8903  0.7487 -0.4797
43754SOL    HW238124   1.443   3.165   8.899  0.5793  0.3403 -0.1314
43755SOL     OW38125   8.467   7.841  12.088  0.4544  0.5778 -0.1447
43755SOL    HW138126   8.553   7.847  12.130  0.9677  0.1937 -1.1033
43755SOL    HW238127   8.416   7.912  12.127  1.2727  0.9454  0.2897
43756SOL     OW38128   7.073   8.657   1.133  0.5318  0.8721 -0.4828
43756SOL    HW138129   6.984   8.691   1.124  0.8409  2.1877  1.0274
43756SOL    HW238130   7.094   8.622   1.047 -2.6606 -2.5932 -0.1476
43757SOL     OW38131   2.006   8.819   9.961  0.0690 -0.3578  0.0397
43757SOL    HW138132   1.977   8.903   9.925 -1.8350  0.4007  2.9394
43757SOL    HW238133   1.925   8.770   9.974  0.9090 -1.5908  0.8309
43758SOL     OW38134  11.375   9.665   4.509 -0.0593 -0.0125 -0.2951
43758SOL    HW138135  11.335   9.724   4.445 -0.1999  1.1642  0.8560
43758SOL    HW238136  11.428   9.722   4.564 -1.4348 -0.6848  1.8286
43759SOL     OW38137   1.722  10.187   0.487  0.3869  0.3068  0.8362
43759SOL    HW138138   1.647  10.247   0.494  1.1185  1.5169 -0.9492
43759SOL    HW238139   1.789  10.226   0.544  1.0003  1.4644 -0.6305
43760SOL     OW38140   0.729  11.860   8.661  0.5391  0.2174 -0.1984
43760SOL    HW138141   0.788  11.922   8.704 -1.2140  1.5071  0.4546
43760SOL    HW238142   0.688  11.911   8.591  0.5038 -0.7819 -0.9252
43761SOL     OW38143   4.288   6.162  10.253  0.2632 -0.0393  0.1236
43761SOL    HW138144   4.307   6.238  10.308 -0.5059  1.0356 -1.0094
43761SOL    HW238145   4.290   6.087  10.312  0.4214  0.9446  1.4034
43762SOL     OW38146   7.075   9.977   3.734  0.2415  0.2104  0.2597
43762SOL    HW138147   7.096  10.044   3.799  1.4923 -0.6675  0.8065
43762SOL    HW238148   7.159   9.958   3.693  0.1185 -1.7538  0.8445
43763SOL     OW38149   1.931   7.602   0.815 -0.0990  0.2381 -0.7852
43763SOL    HW138150   1.974   7.632   0.735  2.5311  1.9569  1.1082
43763SOL    HW238151   1.892   7.681   0.853 -1.2188 -0.5243 -0.2798
43764SOL     OW38152   8.899   6.438  10.318 -0.3225 -0.0815 -0.8166
43764SOL    HW138153   8.863   6.373  10.257 -0.4167  0.3216 -1.1935
43764SOL    HW238154   8.861   6.521  10.289 -2.0320 -0.1497  1.0428
43765SOL     OW38155  11.023   5.563  12.191  0.0155  0.1035 -0.1327
43765SOL    HW138156  10.940   5.517  12.175  0.4601 -1.0201  0.6754
43765SOL    HW238157  11.055   5.526  12.274  1.7131 -0.0743 -0.8274
43766SOL     OW38158   1.080   6.941  11.855 -0.2590 -0.2510  0.5294
43766SOL    HW138159   1.030   6.978  11.782 -0.5084  0.0985  0.8727
43766SOL    HW238160   1.162   6.989  11.855 -0.0788 -0.5569  0.2061
43767SOL     OW38161   8.601   1.503   6.493  0.0023 -0.0095  0.1085
43767SOL    HW138162   8.546   1.440   6.540  1.8707 -0.3118  2.0814
43767SOL    HW238163   8.548   1.582   6.486  0.1423  0.7073  4.5139
43768SOL     OW38164  11.403   0.967   3.478 -0.4175  0.0664 -0.0424
43768SOL    HW138165  11.458   0.913   3.534  2.4118  0.9363 -1.7638
43768SOL    HW238166  11.406   0.924   3.392 -0.9848  1.1039 -0.6111
43769SOL     OW38167   6.524   6.686   0.298 -0.4016 -0.4222 -0.2902
43769SOL    HW138168   6.526   6.590   0.306 -0.3909 -0.4570 -0.6732
43769SOL    HW238169   6.585   6.718   0.364  1.5038 -0.7804 -1.7752
43770SOL     OW38170   2.656   4.875   2.161  0.1414 -0.3795  0.2311
43770SOL    HW138171   2.652   4.880   2.256 -1.2341  0.6368  0.1570
43770SOL    HW238172   2.574   4.916   2.131  0.0800 -1.5481 -1.3606
43771SOL     OW38173   3.044   3.744   4.975 -0.6396  0.0514 -0.3074
43771SOL    HW138174   3.086   3.799   4.908  0.1814 -0.8107 -0.5138
43771SOL    HW238175   3.114   3.726   5.038 -1.2458  0.3201  0.4512
43772SOL     OW38176   2.253   8.934   9.355 -0.2458 -0.7624 -1.0184
43772SOL    HW138177   2.163   8.906   9.369 -0.0830 -1.9223 -2.0876
43772SOL    HW238178   2.251   9.029   9.365 -1.5320 -0.7990 -0.7848
43773SOL     OW38179   0.125   0.765   4.445  0.0136  0.2430  0.0749
43773SOL    HW138180   0.154   0.778   4.354  0.0558  1.4454  0.2513
43773SOL    HW238181   0.166   0.682   4.471  2.6428  1.4304  0.0409
43774SOL     OW38182   1.338   9.529   2.182  0.0739 -0.2782 -0.0659
43774SOL    HW138183   1.296   9.527   2.268  0.8224  0.8379  0.3551
43774SOL    HW238184   1.398   9.454   2.183 -1.5319 -1.6397 -0.5199
43775SOL     OW38185   3.030   9.850   9.614  0.4879 -0.2543  0.5392
43775SOL    HW138186   2.964   9.816   9.674  1.3771 -0.7660  1.2623
43775SOL    HW238187   3.043   9.941   9.641  0.4460 -0.3022  0.7183
43776SOL     OW38188   5.533  10.465   8.966  0.0785  0.2119  0.1780
43776SOL    HW138189   5.533  10.398   8.897 -0.7215  0.3642  0.0193
43776SOL    HW238190   5.447  10.457   9.008 -0.9121  2.4497 -1.1872
43777SOL     OW38191   2.386   9.659   0.407  0.0290 -0.6771  0.1894
43777SOL    HW138192   2.372   9.679   0.499 -1.1767  3.5000 -0.6745
43777SOL    HW238193   2.297   9.645   0.373  0.3788 -1.2908 -0.4770
43778SOL     OW38194   4.857   4.104   7.517 -0.1312  0.0286 -0.0361
43778SOL    HW138195   4.801   4.076   7.589 -1.4842 -0.0522 -1.0885
43778SOL    HW238196   4.821   4.188   7.489  0.5789  0.2190 -0.4126
43779SOL     OW38197  11.169   6.907   8.598  0.2089  0.0181 -0.3493
43779SOL    HW138198  11.172   6.969   8.525 -0.1474 -0.1620 -0.5181
43779SOL    HW238199  11.124   6.954   8.668 -1.2587 -0.4958 -0.9179
43780SOL     OW38200   5.987   0.268   5.951  0.4188  0.4432  0.6145
43780SOL    HW138201   6.020   0.333   5.889  0.2175 -0.2871 -0.2920
43780SOL    HW238202   6.007   0.183   5.910 -0.3821 -0.0439  1.1908
43781SOL     OW38203   3.403   0.412   1.739  0.1593  0.2612 -0.3015
43781SOL    HW138204   3.428   0.334   1.788 -0.2791  0.2434 -0.0988
43781SOL    HW238205   3.463   0.480   1.769  1.2638 -0.2560 -1.2791
43782SOL     OW38206   6.937   3.849   9.792  0.3777  0.6010  0.1039
43782SOL    HW138207   6.919   3.886   9.878  1.2238 -2.7162  1.8605
43782SOL    HW238208   7.031   3.865   9.778  0.7216 -0.7034  0.8179
43783SOL     OW38209   6.816   5.930   5.802  0.6996  0.5762 -0.0862
43783SOL    HW138210   6.850   5.865   5.864 -0.8240 -0.5906 -0.4323
43783SOL    HW238211   6.749   5.978   5.851  1.9234  2.0912  0.2247
43784SOL     OW38212   0.222   2.856   5.509  0.1388  0.2082 -0.2088
43784SOL    HW138213   0.138   2.875   5.550  0.0003 -0.0597 -0.3640
43784SOL    HW238214   0.237   2.931   5.451  1.9322  2.3194  2.7014
43785SOL     OW38215  11.468   3.612   8.078 -0.1161  0.4944  0.0852
43785SOL    HW138216  11.387   3.663   8.070 -2.2904 -2.6745 -0.0600
43785SOL    HW238217  11.483   3.579   7.989  0.6467  0.0680  0.3715
43786SOL     OW38218  12.283  12.055   0.957 -0.0537  0.2709 -0.1011
43786SOL    HW138219  12.280  12.017   0.869 -0.4172  0.4089 -0.1530
43786SOL    HW238220  12.213  12.010   1.004  0.3011  0.0223  0.1904
43787SOL     OW38221  11.737  11.179   3.233  0.2714  0.0901  0.2635
43787SOL    HW138222  11.749  11.139   3.146  0.2294  1.8391 -0.5878
43787SOL    HW238223  11.681  11.254   3.217  2.5990  2.1903  1.2809
43788SOL     OW38224  11.905   5.972   1.443  0.8888 -0.1016 -0.4411
43788SOL    HW138225  11.880   5.974   1.535 -1.9257 -0.9788 -1.0888
43788SOL    HW238226  11.942   6.059   1.426  0.9546  0.2578  1.3608
43789SOL     OW38227   0.111   4.197   4.579 -0.0134 -0.0277 -0.2742
43789SOL    HW138228   0.159   4.257   4.521  1.3571 -0.8690 -0.0577
43789SOL    HW238229   0.078   4.129   4.520 -1.1660  0.6613 -0.4532
43790SOL     OW38230   4.999   7.549   6.760  0.4998  0.2389 -0.2595
43790SOL    HW138231   4.959   7.622   6.807  0.8314 -0.4495  1.1584
43790SOL    HW238232   5.087   7.579   6.737  0.5085  0.4114  0.0006
43791SOL     OW38233   0.886   3.526   2.782  0.3340 -0.2812  0.1062
43791SOL    HW138234   0.823   3.483   2.839 -0.4981  0.2477 -0.3978
43791SOL    HW238235   0.878   3.619   2.802 -0.8484  0.0522 -1.6896
43792SOL     OW38236  11.702  11.275   0.686  0.0413 -0.4189  0.1237
43792SOL    HW138237  11.773  11.337   0.666  1.9490 -1.7715  2.1767
43792SOL    HW238238  11.725  11.197   0.635 -0.4730 -0.5711  0.1250
43793SOL     OW38239   4.993   8.606   6.172 -0.2539  0.5665 -0.1503
43793SOL    HW138240   4.964   8.667   6.240  0.1357  0.3689  0.1967
43793SOL    HW238241   5.016   8.526   6.219 -0.1275  0.3755 -0.5305
43794SOL     OW38242   8.271  11.926   6.841  0.3263  0.1102 -0.5501
43794SOL    HW138243   8.255  11.997   6.904 -0.0049 -0.3308 -0.1259
43794SOL    HW238244   8.330  11.866   6.888 -0.8320 -0.8033 -0.2086
43795SOL     OW38245  12.317  11.940   4.214 -0.0400  0.1275  0.3299
43795SOL    HW138246  12.366  11.938   4.132  0.4497 -0.6579  0.6255
43795SOL    HW238247  12.316  12.032   4.240  2.0612  0.0592  0.7786
43796SOL     OW38248   4.045  11.458   5.897  0.2170 -0.2043 -0.1078
43796SOL    HW138249   4.061  11.483   5.806  0.2029  0.9056  0.1737
43796SOL    HW238250   4.117  11.400   5.920 -0.1054 -0.9784 -1.0033
43797SOL     OW38251   9.860   5.788   1.292  0.0933  0.2929 -0.1713
43797SOL    HW138252   9.775   5.746   1.280  0.9667 -1.3414 -0.8471
43797SOL    HW238253   9.867   5.850   1.220 -0.5370  0.4773 -0.0788
43798SOL     OW38254   7.535  10.726   4.425 -0.0243 -0.2069  0.2595
43798SOL    HW138255   7.470  10.782   4.382 -1.4128 -0.7233  1.6026
43798SOL    HW238256   7.549  10.654   4.363  2.4223  1.8725 -1.8913
43799SOL     OW38257   3.896   0.044   7.300 -0.0436 -0.1325  0.2602
43799SOL    HW138258   3.824   0.033   7.363  0.3803  1.1863  0.9923
43799SOL    HW238259   3.963  -0.018   7.330 -0.7988 -1.3133 -0.3787
43800SOL     OW38260   8.784   1.546   0.336 -0.2427 -0.1532  0.4354
43800SOL    HW138261   8.878   1.542   0.356 -0.0735 -0.9236 -0.4373
43800SOL    HW238262   8.755   1.628   0.375  0.9207  0.3873  0.2184
43801SOL     OW38263   8.461   9.239   7.874  0.6217  0.1220 -0.0603
43801SOL    HW138264   8.452   9.317   7.928  0.5457 -0.1942  0.3830
43801SOL    HW238265   8.555   9.232   7.856  0.5627  0.6729 -0.6392
43802SOL     OW38266  10.132   8.258   7.102 -0.4590 -0.1255 -0.1413
43802SOL    HW138267  10.175   8.218   7.026 -0.5854 -1.3270  0.3966
43802SOL    HW238268  10.174   8.217   7.177 -0.7173  0.6511  0.4331
43803SOL     OW38269  10.168   5.309   6.865 -0.1912  0.3127 -0.2355
43803SOL    HW138270  10.218   5.341   6.790  0.0324  0.7461  0.0942
43803SOL    HW238271  10.100   5.375   6.879  0.2687  0.6573  0.4421
43804SOL     OW38272   8.431   6.983   3.542 -0.3081 -0.1036  0.4298
43804SOL    HW138273   8.480   6.939   3.473 -1.2332  0.2164 -0.4529
43804SOL    HW238274   8.422   7.073   3.511 -1.3999 -0.1468  0.5936
43805SOL     OW38275   8.879   9.946   5.123  0.0517  0.5969  0.5346
43805SOL    HW138276   8.928   9.868   5.147 -0.9579 -1.4140 -3.1804
43805SOL    HW238277   8.799   9.942   5.176  0.2454 -0.6362  0.7583
43806SOL     OW38278  10.556   6.669  10.997  0.1305 -0.4728 -0.4743
43806SOL    HW138279  10.531   6.578  11.011 -0.2762 -0.3919 -0.6437
43806SOL    HW238280  10.635   6.666  10.944 -1.1592 -0.7069 -2.4991
43807SOL     OW38281   9.292   2.567   1.202  0.2262  0.5710 -0.3114
43807SOL    HW138282   9.336   2.610   1.129  1.1127 -0.4493 -0.4022
43807SOL    HW238283   9.363   2.534   1.257 -0.3988 -0.6511 -0.1909
43808SOL     OW38284   6.012   2.040   1.266  1.1284 -0.4315 -0.2150
43808SOL    HW138285   6.071   2.116   1.263  1.2766 -0.4389  1.5494
43808SOL    HW238286   6.070   1.965   1.250  1.0201 -0.2368 -1.7243
43809SOL     OW38287   9.180   1.702   5.485 -0.3987  0.5908 -0.0762
43809SOL    HW138288   9.269   1.711   5.519 -0.1547  0.3831 -0.6571
43809SOL    HW238289   9.191   1.666   5.397 -0.9570  2.1858 -0.8415
43810SOL     OW38290   0.363   9.606   0.899  0.0986  0.1369 -0.4713
43810SOL    HW138291   0.437   9.547   0.888  0.2133 -0.1328  1.4242
43810SOL    HW238292   0.317   9.602   0.816  0.7083 -1.8019 -0.7706
43811SOL     OW38293  11.639   7.911   3.259 -0.3345  0.3295  0.5051
43811SOL    HW138294  11.650   7.995   3.215 -0.3952 -0.2277 -0.6187
43811SOL    HW238295  11.729   7.881   3.276 -0.2532 -0.2645 -0.8744
43812SOL     OW38296   0.711   5.764   0.028  0.2041 -0.0118  0.1746
43812SOL    HW138297   0.698   5.690  -0.030  0.1921  0.4243 -0.3886
43812SOL    HW238298   0.739   5.835  -0.029  0.3417  0.3836  0.7228
43813SOL     OW38299   2.527   4.641   2.178  0.2394 -0.2329  0.4060
43813SOL    HW138300   2.442   4.680   2.191 -0.9229 -2.2332 -0.6182
43813SOL    HW238301   2.582   4.712   2.143 -1.4530  0.7019 -0.4479
43814SOL     OW38302  11.493   5.709   2.719 -0.5078 -0.4466  0.4381
43814SOL    HW138303  11.540   5.760   2.785  0.7495  0.1157 -0.8374
43814SOL    HW238304  11.455   5.774   2.660  1.0260 -0.9101 -1.1466
43815SOL     OW38305  10.756   1.251   9.785  0.4799  0.1254 -0.6138
43815SOL    HW138306  10.698   1.292   9.850 -0.6073 -0.2368 -1.3184
43815SOL    HW238307  10.839   1.240   9.830  0.0464  0.8174  0.3869
43816SOL     OW38308   7.944   4.778   0.901 -0.0149 -0.2339 -0.1482
43816SOL    HW138309   8.030   4.814   0.923 -0.2581 -0.0522  0.5466
43816SOL    HW238310   7.919   4.726   0.978 -1.5935  1.7103  0.7587
43817SOL     OW38311   4.980   3.926  10.168  0.0988 -0.2835 -0.1896
43817SOL    HW138312   4.948   4.010  10.201  0.2569 -0.2148 -0.2126
43817SOL    HW238313   5.071   3.942  10.145  0.7634 -0.9986  1.7520
43818SOL     OW38314   9.999   6.438   5.348  0.3415  0.3362  0.0848
43818SOL    HW138315  10.030   6.355   5.384 -1.4544 -0.1215  0.7072
43818SOL    HW238316   9.950   6.412   5.269  1.0574  0.9628 -0.5769
43819SOL     OW38317   5.020   5.627   3.499  0.2043 -0.2949  0.6552
43819SOL    HW138318   4.952   5.682   3.537 -0.9590 -2.0720  1.2895
43819SOL    HW238319   5.019   5.649   3.405  1.2155  2.1713  1.1503
43820SOL     OW38320   4.161   4.121   7.545 -0.6161 -0.0540  0.3236
43820SOL    HW138321   4.138   4.030   7.527 -1.0982  0.4570 -1.9292
43820SOL    HW238322   4.190   4.120   7.636 -0.3446 -2.4975  0.2909
43821SOL     OW38323  11.953  10.109   7.469  0.0543 -0.1189 -0.4702
43821SOL    HW138324  11.991  10.172   7.530  0.5677 -2.6778  2.1097
43821SOL    HW238325  12.027  10.080   7.415  0.4448 -0.5226  0.2641
43822SOL     OW38326   5.181   9.689   5.768 -0.8924  0.0344  0.2312
43822SOL    HW138327   5.088   9.701   5.749 -0.7533  1.7227  0.4181
43822SOL    HW238328   5.224   9.709   5.684 -0.6552  0.3311  0.4218
43823SOL     OW38329   8.727  10.860  12.018 -0.2331  0.4243 -0.7053
43823SOL    HW138330   8.788  10.875  11.945  0.3372 -0.8714 -0.5130
43823SOL    HW238331   8.758  10.779  12.059 -0.5768  1.0923  0.9468
43824SOL     OW38332   1.225   1.966   3.648 -0.8853 -0.0346  0.2358
43824SOL    HW138333   1.133   1.940   3.646 -1.6100  2.3070  0.0424
43824SOL    HW238334   1.230   2.030   3.719  0.2007  1.1708 -0.8824
43825SOL     OW38335   0.758   8.257   0.658  0.1685 -0.3505 -0.1731
43825SOL    HW138336   0.816   8.188   0.690  0.9262 -0.5739 -1.9425
43825SOL    HW238337   0.681   8.251   0.715  2.0513  0.3744  2.6784
43826SOL     OW38338  11.366   5.586   5.096  0.0281  0.0416 -0.4078
43826SOL    HW138339  11.448   5.635   5.100  0.5720 -0.6793 -1.9024
43826SOL    HW238340  11.390   5.496   5.119 -0.1321 -0.3722 -1.7575
43827SOL     OW38341   9.790  12.242  12.129 -0.0580 -0.3034  0.1014
43827SOL    HW138342   9.786  12.327  12.084  0.5139 -0.7466 -0.8233
43827SOL    HW238343   9.880  12.213  12.118  0.2554 -0.1951  2.0443
43828SOL     OW38344   5.043   0.117   8.189  0.1299 -0.0531  0.9847
43828SOL    HW138345   5.071   0.197   8.144 -0.6312 -0.9888 -1.2750
43828SOL    HW238346   5.119   0.059   8.183 -0.4230 -0.6832 -0.4432
43829SOL     OW38347   8.836   3.036  10.654 -0.1385 -0.1389 -0.1448
43829SOL    HW138348   8.808   3.110  10.708  0.5825  0.5415 -0.6764
43829SOL    HW238349   8.827   3.067  10.564 -1.4040 -1.2835 -0.4546
43830SOL     OW38350   3.893   4.993   6.772  0.3752 -0.0516 -0.0137
43830SOL    HW138351   3.898   4.901   6.744  1.7297 -0.0429  0.1491
43830SOL    HW238352   3.969   5.005   6.828 -0.7269  0.7338  1.3625
43831SOL     OW38353   6.349  10.895  10.332  0.3498  0.0987 -0.1715
43831SOL    HW138354   6.341  10.932  10.244 -0.4359 -0.5566 -0.3843
43831SOL    HW238355   6.383  10.967  10.386  3.9057 -0.2857 -1.5932
43832SOL     OW38356   3.944   3.816   7.978 -0.4722 -0.4962  0.0071
43832SOL    HW138357   3.887   3.788   8.050 -0.0318 -0.8852  0.2100
43832SOL    HW238358   3.934   3.747   7.912  0.0900 -0.7851  0.2216
43833SOL     OW38359   6.265   1.939   9.004  0.2482  0.1967 -0.4775
43833SOL    HW138360   6.262   1.962   9.097  1.3072 -3.7671  0.7383
43833SOL    HW238361   6.200   1.996   8.963 -1.5389  0.9260  2.9772
43834SOL     OW38362   2.290  10.538   6.709 -0.2129  0.0612  0.1980
43834SOL    HW138363   2.299  10.628   6.738  1.7086 -0.4357  1.3197
43834SOL    HW238364   2.221  10.502   6.764 -0.9965  0.8226 -0.2656
43835SOL     OW38365  11.646   9.835   3.793 -0.0070  0.6166  0.1130
43835SOL    HW138366  11.555   9.840   3.763 -0.2786 -0.6596  0.6313
43835SOL    HW238367  11.648   9.757   3.849  1.3869  0.6825  0.1868
43836SOL     OW38368   6.676   8.904   5.630  0.5580  0.3461 -0.5333
43836SOL    HW138369   6.659   8.979   5.688  2.7117  0.4903  0.0167
43836SOL    HW238370   6.626   8.832   5.668  0.1923  0.9796  0.2223
43837SOL     OW38371   6.668   6.345   4.025 -0.2004  0.5865  0.6842
43837SOL    HW138372   6.674   6.314   4.115  0.3310  0.0413  0.4670
43837SOL    HW238373   6.676   6.266   3.971 -2.2776  0.6536  0.1737
43838SOL     OW38374   9.269   8.895   5.442 -0.1523  0.1612  0.2372
43838SOL    HW138375   9.281   8.800   5.440 -2.3513 -0.1929  0.9061
43838SOL    HW238376   9.320   8.925   5.517  0.8046 -0.4289 -0.1582
43839SOL     OW38377   0.241   4.305   8.149 -0.2566  0.2484  0.6141
43839SOL    HW138378   0.296   4.271   8.078 -0.2194 -0.2275  0.8648
43839SOL    HW238379   0.215   4.227   8.198 -1.3217  0.4335  0.3811
43840SOL     OW38380   3.626   9.970   8.741  0.3521  0.0951  0.0703
43840SOL    HW138381   3.693  10.038   8.730 -0.2769  0.6889 -0.0974
43840SOL    HW238382   3.543  10.016   8.738 -0.0965 -0.7115 -0.3192
43841SOL     OW38383   5.877   5.839   8.486 -0.1199  0.3626 -0.0962
43841SOL    HW138384   5.830   5.830   8.403  2.1571  0.4329 -1.4842
43841SOL    HW238385   5.907   5.930   8.487  1.1851 -0.0425  0.0248
43842SOL     OW38386   8.281   6.071   4.173 -0.4237  0.5075 -0.2615
43842SOL    HW138387   8.216   6.124   4.219  0.6042  0.5282  1.2444
43842SOL    HW238388   8.356   6.068   4.232  0.7243 -0.0346 -1.6713
43843SOL     OW38389   6.802   0.999   6.550  0.2486 -0.4203 -0.4281
43843SOL    HW138390   6.833   0.968   6.635  0.4241 -0.1700 -0.3983
43843SOL    HW238391   6.779   0.919   6.502 -1.7414 -0.4980  0.5532
43844SOL     OW38392   7.953   1.216   2.489 -0.0168 -0.2664  0.3795
43844SOL    HW138393   7.930   1.147   2.427  0.0755 -0.1722  0.2418
43844SOL    HW238394   7.970   1.293   2.435  0.2237 -0.2281  0.5102
43845SOL     OW38395   0.076   5.148   1.367  0.4024 -0.3504 -0.0422
43845SOL    HW138396  -0.017   5.126   1.375  0.6026 -1.8182 -1.2710
43845SOL    HW238397   0.085   5.230   1.416 -1.4530 -0.3663  0.4253
43846SOL     OW38398   8.139   4.999   5.644  0.3733  0.4613 -0.4833
43846SOL    HW138399   8.199   5.056   5.692  1.1389  0.2752 -1.2012
43846SOL    HW238400   8.190   4.967   5.570  0.0108 -1.2657 -0.0332
43847SOL     OW38401   3.202   8.195   6.420 -0.9403  0.0958 -0.8020
43847SOL    HW138402   3.265   8.136   6.378  0.5981  2.5390 -2.1646
43847SOL    HW238403   3.127   8.195   6.360 -0.0507  1.1381 -1.9597
43848SOL     OW38404   4.437   0.966  10.444 -0.1736 -0.5731 -0.0918
43848SOL    HW138405   4.478   1.043  10.482  1.0695 -0.1094 -2.1945
43848SOL    HW238406   4.475   0.892  10.492  1.3419 -0.0139 -0.3714
43849SOL     OW38407   6.183  11.237   1.148  0.3032 -0.3140 -0.3572
43849SOL    HW138408   6.253  11.302   1.153  1.1916 -1.3188  1.1851
43849SOL    HW238409   6.103  11.288   1.134  0.9256  1.1543  1.0731
43850SOL     OW38410   7.441   6.113   3.209 -0.0304  0.2202  0.5894
43850SOL    HW138411   7.530   6.104   3.242 -0.1462 -0.0337  0.8382
43850SOL    HW238412   7.446   6.086   3.117  0.3180  1.0497  0.3560
43851SOL     OW38413   8.875   3.616   3.592  0.1153  0.5102 -0.1962
43851SOL    HW138414   8.904   3.540   3.541 -1.2497  1.2717 -2.2707
43851SOL    HW238415   8.780   3.606   3.597  0.0154  1.6019  0.3195
43852SOL     OW38416   9.011  11.920   3.304  0.1987  0.7035 -0.1361
43852SOL    HW138417   8.985  11.858   3.236  0.6298 -0.4008  0.6852
43852SOL    HW238418   9.028  12.002   3.256  1.7624 -0.3843 -1.5596
43853SOL     OW38419   9.410   8.623   1.220  0.3829  0.0788  0.4945
43853SOL    HW138420   9.487   8.568   1.207 -0.8594 -1.9870  1.3413
43853SOL    HW238421   9.428   8.670   1.302  2.2841  2.5678 -1.2051
43854SOL     OW38422   2.783   6.944   8.983  0.3725  0.4200  0.1881
43854SOL    HW138423   2.865   6.985   9.013  0.7667  0.0948 -0.4267
43854SOL    HW238424   2.739   7.013   8.934  1.1646  0.0621 -1.0799
43855SOL     OW38425   7.558   3.705   2.962  0.3464 -0.0685  0.2715
43855SOL    HW138426   7.482   3.653   2.933 -0.3858  1.0970  0.0152
43855SOL    HW238427   7.520   3.774   3.016  1.0412  1.3811 -1.0040
43856SOL     OW38428  10.398   2.179  10.692  0.0354  0.7662  0.3928
43856SOL    HW138429  10.432   2.206  10.776  1.0921  0.4088  0.0970
43856SOL    HW238430  10.414   2.084  10.689  1.5582  1.0166 -0.8657
43857SOL     OW38431   7.814   4.524   2.815  0.6033 -0.2175 -0.3268
43857SOL    HW138432   7.762   4.490   2.887 -1.5287 -0.1264 -1.7505
43857SOL    HW238433   7.807   4.458   2.746  0.9138  0.6160 -1.1871
43858SOL     OW38434   5.165  12.229  10.369  0.1805 -0.2837  0.7088
43858SOL    HW138435   5.208  12.164  10.314 -0.8751 -1.3572  1.0995
43858SOL    HW238436   5.219  12.307  10.361 -0.0239 -0.3216 -1.9738
43859SOL     OW38437   0.508   5.095   7.073 -0.0072  0.5180  0.1670
43859SOL    HW138438   0.526   5.007   7.106 -2.1451  0.6358  1.8417
43859SOL    HW238439   0.560   5.153   7.128  0.4744  0.4027 -0.1560
43860SOL     OW38440   2.431   2.088   0.025  0.0664  0.3823 -0.3077
43860SOL    HW138441   2.475   2.049  -0.050 -1.6752  0.5323 -1.4563
43860SOL    HW238442   2.491   2.155   0.056  1.6317 -0.9422 -0.3844
43861SOL     OW38443   6.045   5.633   4.257 -0.3738  0.6308 -0.3029
43861SOL    HW138444   5.960   5.675   4.269 -1.3310 -1.2203 -0.2814
43861SOL    HW238445   6.047   5.564   4.322  0.2074 -0.7434 -1.7190
43862SOL     OW38446   5.960   8.186   2.823 -0.6098  0.4134 -0.3140
43862SOL    HW138447   5.969   8.225   2.909  0.4211 -1.0669  0.3044
43862SOL    HW238448   6.041   8.208   2.777 -0.7450  0.4112 -0.5589
43863SOL     OW38449   0.311   7.041   5.769  0.3437 -0.0075 -0.0942
43863SOL    HW138450   0.367   7.021   5.844 -0.4028  2.2199  1.1365
43863SOL    HW238451   0.248   6.968   5.766  1.1544 -0.7622  0.6295
43864SOL     OW38452   9.096  12.331   9.551  0.1377  0.3964  0.1290
43864SOL    HW138453   9.004  12.354   9.562 -0.1792  0.2420 -1.8770
43864SOL    HW238454   9.132  12.399   9.494  1.6137  1.1378  1.8532
43865SOL     OW38455   4.389   6.516  12.009 -0.3324  0.2398 -0.0570
43865SOL    HW138456   4.435   6.526  11.926  0.0077  1.6301  0.2650
43865SOL    HW238457   4.296   6.518  11.986 -0.2667  1.8634 -0.3335
43866SOL     OW38458   8.025   1.782   3.296 -0.0482  0.3905 -0.2325
43866SOL    HW138459   8.097   1.738   3.342 -1.7063 -0.9952  1.2026
43866SOL    HW238460   7.997   1.719   3.230 -1.2329  0.0197  0.5882
43867SOL     OW38461   7.518   3.273   9.174  0.0629  0.1770 -0.1991
43867SOL    HW138462   7.592   3.225   9.212 -0.4386 -1.6052 -1.3824
43867SOL    HW238463   7.482   3.214   9.108 -0.1249  2.4705 -2.3020
43868SOL     OW38464  10.477   2.117   4.481  0.3191  0.4039  0.4379
43868SOL    HW138465  10.551   2.064   4.453 -0.1323 -0.7985  1.4650
43868SOL    HW238466  10.471   2.104   4.575 -0.5977  1.2779  0.5253
43869SOL     OW38467   0.307   9.441   1.121 -0.3215  0.2455 -0.4289
43869SOL    HW138468   0.340   9.485   1.043  1.4758 -0.7328 -0.2813
43869SOL    HW238469   0.365   9.471   1.191 -1.5082  0.6135  0.4294
43870SOL     OW38470   9.432   2.329   8.056 -0.2518 -0.5268  0.2487
43870SOL    HW138471   9.352   2.304   8.009 -0.8428 -0.2471  1.0709
43870SOL    HW238472   9.458   2.249   8.103 -0.6605 -0.3385  0.8130
43871SOL     OW38473   8.192   4.839   0.989  0.4029 -0.2287  0.4762
43871SOL    HW138474   8.258   4.904   1.011 -0.5768  0.6992  0.7966
43871SOL    HW238475   8.231   4.755   1.013  1.5519  0.2719  0.4056
43872SOL     OW38476   2.954  11.075   3.509  0.6415  0.6703  0.1442
43872SOL    HW138477   3.000  10.993   3.525  0.7878  0.8013  0.4017
43872SOL    HW238478   2.928  11.105   3.596 -1.0844 -0.0626 -0.0804
43873SOL     OW38479   6.169   0.674   0.828  0.3454  0.4034 -0.3965
43873SOL    HW138480   6.221   0.593   0.826 -0.8572 -0.5478  2.1572
43873SOL    HW238481   6.103   0.663   0.760  0.9240 -0.2118 -0.8721
43874SOL     OW38482   7.500   8.158   0.203 -0.7396 -0.2139  0.7709
43874SOL    HW138483   7.513   8.065   0.186 -0.0223 -0.0920  0.6199
43874SOL    HW238484   7.532   8.171   0.293  3.0764  0.6127 -0.5260
43875SOL     OW38485   2.199   8.220  12.253  0.2593  0.2496  0.0308
43875SOL    HW138486   2.120   8.271  12.273  0.6537  0.8464  0.0972
43875SOL    HW238487   2.224   8.248  12.165  0.3638  0.0242 -0.0116
43876SOL     OW38488   7.002   3.953   8.356  0.2607 -0.4216  0.0095
43876SOL    HW138489   7.030   3.976   8.268 -0.3059 -2.6927 -0.8284
43876SOL    HW238490   7.071   3.987   8.413  0.3340  1.6367 -1.1943
43877SOL     OW38491   3.895   5.011   4.188  0.2914  0.3596  0.6487
43877SOL    HW138492   3.857   5.096   4.166 -2.4218 -0.8170  0.3462
43877SOL    HW238493   3.913   4.970   4.103 -0.4936 -0.1827  0.7296
43878SOL     OW38494   3.544   0.269   3.174 -0.1083 -0.6102 -0.3913
43878SOL    HW138495   3.604   0.235   3.240 -1.1187 -1.1152  0.2835
43878SOL    HW238496   3.490   0.333   3.220  1.0117  1.1592 -1.3926
43879SOL     OW38497   3.969   5.782  10.884  0.2293 -0.3317  0.0844
43879SOL    HW138498   3.905   5.834  10.836 -0.6887  0.4942  2.0636
43879SOL    HW238499   4.050   5.832  10.879  0.4444 -0.7879 -1.4343
43880SOL     OW38500  10.900   4.247   8.325  0.6237  0.4446 -0.2215
43880SOL    HW138501  10.903   4.266   8.419  0.4099 -1.0938  0.1189
43880SOL    HW238502  10.860   4.325   8.286 -2.9859 -0.3817  1.4311
43881SOL     OW38503  12.335  10.135  10.389  0.1366  0.0549  0.1988
43881SOL    HW138504  12.380  10.093  10.462  0.4374  1.6781  0.9865
43881SOL    HW238505  12.385  10.214  10.372 -0.2058 -0.0333 -1.4796
43882SOL     OW38506   6.451   4.885   6.727  0.1118  0.1885  0.3923
43882SOL    HW138507   6.377   4.914   6.781 -0.9689  1.0278 -1.4726
43882SOL    HW238508   6.514   4.852   6.791 -0.9745  1.3973  2.2028
43883SOL     OW38509  10.141   4.274  11.773  0.4819  0.1488 -0.2448
43883SOL    HW138510  10.159   4.283  11.679  0.2240  1.0766 -0.2167
43883SOL    HW238511  10.157   4.362  11.808  1.1336 -0.3238  0.6811
43884SOL     OW38512   8.903   2.717  10.467  0.4426 -0.8222  0.0348
43884SOL    HW138513   8.895   2.745  10.558  0.4361 -1.6545  0.3001
43884SOL    HW238514   8.969   2.774  10.429 -0.4986  0.4101  0.1932
43885SOL     OW38515   6.225   6.784   3.806 -0.9728  0.3156 -0.4530
43885SOL    HW138516   6.217   6.778   3.710  0.8671 -0.0176 -0.6112
43885SOL    HW238517   6.187   6.703   3.838 -0.7321 -0.0108 -0.9712
43886SOL     OW38518   5.020  11.014   9.406 -0.1992 -0.1630 -0.6205
43886SOL    HW138519   5.092  10.965   9.447 -0.7756 -0.7585 -0.3027
43886SOL    HW238520   4.941  10.984   9.452 -0.6468  0.5538 -0.8966
43887SOL     OW38521   5.975   5.415   3.871 -0.2696 -0.1179 -0.5192
43887SOL    HW138522   5.926   5.386   3.794 -0.5603  0.4450 -0.5483
43887SOL    HW238523   5.918   5.394   3.945  0.2181 -1.1170 -0.4028
43888SOL     OW38524   3.776   0.037   6.178 -0.0692 -0.0366  0.2794
43888SOL    HW138525   3.769  -0.032   6.244  0.1369 -0.2431  0.0874
43888SOL    HW238526   3.792   0.117   6.228  0.8595 -0.3103  0.4462
43889SOL     OW38527  10.764  12.118  10.050  0.6277 -0.8047 -0.4513
43889SOL    HW138528  10.705  12.180  10.093 -0.4420 -1.2053 -1.2905
43889SOL    HW238529  10.848  12.130  10.094  0.1150  0.3213  0.2632
43890SOL     OW38530   7.654   9.118  11.348 -0.3601  0.1285  0.2611
43890SOL    HW138531   7.584   9.161  11.298  0.8006  0.5551 -1.0550
43890SOL    HW238532   7.722   9.185  11.356  0.5377 -0.7551  0.1592
43891SOL     OW38533  10.089   6.976   2.776 -0.2992 -0.1711 -0.4612
43891SOL    HW138534  10.163   7.026   2.810 -0.0758 -0.3736 -0.6498
43891SOL    HW238535  10.068   7.018   2.692  0.4465 -0.9292 -1.0389
43892SOL     OW38536  11.917   0.972   1.598  0.1981 -0.1410  0.6309
43892SOL    HW138537  11.870   1.055   1.595  0.1588 -0.0881  2.0898
43892SOL    HW238538  11.896   0.936   1.684  0.7817 -1.3358  0.2924
43893SOL     OW38539   5.902   5.435   3.591  0.2005 -0.1868 -0.1166
43893SOL    HW138540   5.891   5.358   3.534 -0.8214 -0.0789 -0.0764
43893SOL    HW238541   5.985   5.473   3.563  1.6751 -2.2929  1.0551
43894SOL     OW38542   5.978   7.245   0.757 -0.6936  0.2517 -0.0803
43894SOL    HW138543   5.956   7.315   0.819 -1.6852 -1.7340  1.9516
43894SOL    HW238544   5.968   7.164   0.807 -0.5496 -1.4409 -2.5799
43895SOL     OW38545   6.320   7.747  11.710  0.6107  0.6413 -0.0068
43895SOL    HW138546   6.297   7.730  11.619  2.8122  0.2661 -0.5460
43895SOL    HW238547   6.328   7.660  11.750 -2.0801  0.7905  1.1087
43896SOL     OW38548   8.300   2.316  11.721 -0.2712 -0.4153 -0.4050
43896SOL    HW138549   8.242   2.240  11.711 -1.7207  0.6833 -0.6948
43896SOL    HW238550   8.318   2.320  11.815  2.9716 -3.2849 -0.7000
43897SOL     OW38551   1.333   6.895   6.618 -0.4123  0.5767 -0.0296
43897SOL    HW138552   1.386   6.907   6.539 -0.0349 -0.1571  0.1066
43897SOL    HW238553   1.276   6.821   6.597  1.3509 -1.2220  1.2298
43898SOL     OW38554  11.278   9.046   2.285  0.3743 -0.2628  0.0648
43898SOL    HW138555  11.267   9.134   2.250 -0.3764 -0.5333 -0.3915
43898SOL    HW238556  11.213   8.993   2.239 -0.7875 -0.5913  1.9586
43899SOL     OW38557  11.962   8.204   5.329  0.0953  0.3748 -0.2503
43899SOL    HW138558  11.881   8.163   5.296 -1.2231  2.1500  0.6278
43899SOL    HW238559  11.977   8.278   5.270  2.1614 -0.9458 -1.5091
43900SOL     OW38560   6.540   3.452   1.117  0.1391  0.3290 -0.2681
43900SOL    HW138561   6.584   3.370   1.093  0.8870  0.3541  0.9336
43900SOL    HW238562   6.473   3.426   1.180  1.8933  0.8430  1.9211
43901SOL     OW38563   0.138   7.313   4.619 -0.1787 -0.0348  0.2398
43901SOL    HW138564   0.130   7.327   4.713  0.5518  0.0256  0.2984
43901SOL    HW238565   0.154   7.399   4.582 -0.1633 -0.1008  0.0885
43902SOL     OW38566   4.501  10.312   0.340 -0.1404  0.6457 -0.1886
43902SOL    HW138567   4.574  10.258   0.310  0.6585  0.8467  1.2935
43902SOL    HW238568   4.520  10.329   0.433 -1.9583  0.8904  0.1780
43903SOL     OW38569  10.174   2.133   2.501  0.0509 -0.0872 -0.7167
43903SOL    HW138570  10.099   2.124   2.560 -0.2666 -0.3263 -1.1556
43903SOL    HW238571  10.248   2.100   2.552  0.2106  1.8655  0.4073
43904SOL     OW38572  10.789  12.252   0.937  0.5989  0.1800 -0.2888
43904SOL    HW138573  10.786  12.261   1.032  0.9995  1.7617 -0.3919
43904SOL    HW238574  10.698  12.239   0.911  0.2936  1.1810  0.2162
43905SOL     OW38575   8.923   3.278   0.116 -0.3010 -0.3796 -0.4279
43905SOL    HW138576   8.950   3.252   0.027  0.6514 -1.9396  0.2781
43905SOL    HW238577   8.873   3.204   0.148  1.2832 -0.8434  1.1379
43906SOL     OW38578   4.973   7.624   7.913 -0.1523  0.1968 -0.4796
43906SOL    HW138579   4.954   7.686   7.842 -0.2422 -0.7292 -1.2940
43906SOL    HW238580   4.894   7.622   7.966  1.2479  4.0256  2.1834
43907SOL     OW38581   7.832  11.908   9.255 -0.0659  0.6489 -0.0121
43907SOL    HW138582   7.835  11.892   9.349 -2.2242 -0.3037 -0.0414
43907SOL    HW238583   7.922  11.895   9.225  0.4544 -0.1216  1.7548
43908SOL     OW38584   7.489   8.366   4.656 -0.3207 -0.2231  0.0392
43908SOL    HW138585   7.507   8.358   4.749  1.2218 -0.2676 -0.2353
43908SOL    HW238586   7.410   8.420   4.650  0.1353  0.6026  1.3285
43909SOL     OW38587   4.071   5.500   5.277 -0.1781 -0.2122  1.2648
43909SOL    HW138588   3.987   5.487   5.233  1.4848 -1.6171 -1.7376
43909SOL    HW238589   4.097   5.589   5.252 -0.4025 -0.0551  1.5785
43910SOL     OW38590   6.200  11.260   5.496 -0.4411 -0.6020  0.2391
43910SOL    HW138591   6.216  11.259   5.590  1.8992 -2.2497 -0.0867
43910SOL    HW238592   6.181  11.169   5.473 -3.5620  0.1348 -0.6101
43911SOL     OW38593  10.868   3.857   7.864 -0.1140 -0.7257  0.7148
43911SOL    HW138594  10.857   3.950   7.881 -1.5097 -0.6991 -0.1894
43911SOL    HW238595  10.811   3.814   7.927  1.2329 -1.0461  1.7622
43912SOL     OW38596   6.217   2.865   5.569 -0.1857 -0.1457 -0.2002
43912SOL    HW138597   6.227   2.810   5.646 -1.3129  0.4909  0.4073
43912SOL    HW238598   6.289   2.838   5.512  0.6701 -0.6182  1.0612
43913SOL     OW38599  11.990  12.418   1.014 -0.1544  0.0778 -0.1139
43913SOL    HW138600  12.066  12.407   1.070 -1.2043  0.6489  1.5015
43913SOL    HW238601  11.922  12.454   1.072 -1.7221 -0.6121 -1.4352
43914SOL     OW38602   4.764   1.232   2.761 -0.1364  0.2100 -0.0595
43914SOL    HW138603   4.716   1.249   2.681  2.1178  0.3069 -1.4590
43914SOL    HW238604   4.833   1.298   2.764  0.5204 -0.4758  1.3680
43915SOL     OW38605   9.071   6.394   1.192  0.2762  0.4917  0.1507
43915SOL    HW138606   9.067   6.300   1.214 -1.7076  0.5865  0.4092
43915SOL    HW238607   9.145   6.427   1.242 -0.0607 -0.6125  1.4508
43916SOL     OW38608   5.983  12.205   6.234 -0.1002  0.1897 -0.3680
43916SOL    HW138609   5.975  12.300   6.228  0.6570  0.3131  0.3764
43916SOL    HW238610   6.077  12.188   6.236 -0.2183 -0.4669  0.7429
43917SOL     OW38611   9.448   2.881   8.117 -0.0009  0.4919 -0.0850
43917SOL    HW138612   9.353   2.869   8.120  0.0231  0.4036  0.3940
43917SOL    HW238613   9.463   2.966   8.159  0.1108  0.6356 -0.4114
43918SOL     OW38614  11.564   6.627   1.036  0.0041  0.0810 -0.0112
43918SOL    HW138615  11.556   6.563   0.965  2.6297  0.8726 -1.1333
43918SOL    HW238616  11.590   6.708   0.992 -0.6594  1.2565  1.6538
43919SOL     OW38617  10.142  11.323   1.466 -0.4532  0.3854 -0.7368
43919SOL    HW138618  10.111  11.406   1.503 -1.4673 -0.0240 -0.6254
43919SOL    HW238619  10.228  11.310   1.505 -1.1158  0.4062  0.8251
43920SOL     OW38620  10.035   3.610  11.893  0.1145  0.2005 -0.1348
43920SOL    HW138621  10.104   3.619  11.959 -0.0022  1.2099 -0.1326
43920SOL    HW238622  10.015   3.700  11.867 -1.1591 -0.0765 -0.1823
43921SOL     OW38623   1.004   7.267   5.053  0.0831  0.2589 -0.4871
43921SOL    HW138624   0.989   7.327   5.127  0.0249 -0.7506  0.3485
43921SOL    HW238625   0.916   7.240   5.027  0.1678 -1.4589  0.8588
43922SOL     OW38626   5.045   1.975   2.376 -0.0457  0.2250  0.4012
43922SOL    HW138627   5.028   1.975   2.470 -1.2727  0.9880  0.1894
43922SOL    HW238628   5.040   2.066   2.350 -0.7201 -0.0740 -0.5737
43923SOL     OW38629  10.973   2.893   5.506 -0.0348  0.0396 -0.0056
43923SOL    HW138630  10.976   2.798   5.496  0.2039  0.0206  0.2493
43923SOL    HW238631  10.914   2.922   5.436  0.6244 -0.2065 -0.6807
43924SOL     OW38632   7.911  11.014  10.662  0.1524 -0.1766 -0.0856
43924SOL    HW138633   7.892  11.007  10.569 -0.5458 -0.2492  0.0600
43924SOL    HW238634   7.990  11.068  10.667  0.2297 -0.2319 -0.7190
43925SOL     OW38635   0.951  10.740   9.084  0.4400 -0.1103  0.5157
43925SOL    HW138636   1.030  10.785   9.115  2.0874 -1.1076 -1.9346
43925SOL    HW238637   0.962  10.736   8.989 -2.5998 -0.3190  0.0843
43926SOL     OW38638   1.082  11.887   0.290  0.3421 -0.2733 -0.4994
43926SOL    HW138639   1.089  11.810   0.347 -2.0294  0.5900  1.1290
43926SOL    HW238640   1.144  11.950   0.328  0.0294 -0.3099  0.0843
43927SOL     OW38641  11.776  11.313  10.529  0.1932  0.8969 -0.0651
43927SOL    HW138642  11.748  11.224  10.505  1.3971  0.0955  1.3156
43927SOL    HW238643  11.743  11.368  10.458 -1.4201 -0.5005 -0.4854
43928SOL     OW38644   7.594   1.095   3.685 -0.2460 -0.3822 -0.0746
43928SOL    HW138645   7.558   1.026   3.629  0.6245  0.0424 -1.1741
43928SOL    HW238646   7.517   1.130   3.731 -1.3711  0.7570 -2.6399
43929SOL     OW38647   6.844   7.782   6.089 -0.5212 -0.0081 -0.2863
43929SOL    HW138648   6.795   7.736   6.021 -1.1841  1.2119 -0.6771
43929SOL    HW238649   6.932   7.791   6.053 -0.1347 -1.6781  0.1625
43930SOL     OW38650  10.287   3.397   4.248  0.5356  0.4717  0.5779
43930SOL    HW138651  10.254   3.469   4.195 -0.4911 -0.9885 -0.8798
43930SOL    HW238652  10.348   3.350   4.190 -0.0979 -0.7740  0.8789
43931SOL     OW38653   8.311   4.151   2.619  0.0079  0.8180  0.1599
43931SOL    HW138654   8.309   4.072   2.565  0.2752 -0.2209  1.6096
43931SOL    HW238655   8.218   4.175   2.630 -0.2112 -0.3370  1.1220
43932SOL     OW38656   9.588   6.737   9.913  0.3272  0.8664  0.5594
43932SOL    HW138657   9.563   6.829   9.902  0.7455  0.8569 -0.6609
43932SOL    HW238658   9.540   6.709   9.991  1.3748  2.5310  1.8908
43933SOL     OW38659   2.560  10.703   0.512 -0.2662  0.8210  0.2907
43933SOL    HW138660   2.514  10.647   0.575 -1.1972 -0.7789 -1.6918
43933SOL    HW238661   2.558  10.790   0.552 -0.8463 -0.0918  2.4214
43934SOL     OW38662   7.382   9.507   2.639  0.1585 -0.1951 -0.1993
43934SOL    HW138663   7.474   9.533   2.635 -0.0361  0.7431  0.8760
43934SOL    HW238664   7.347   9.556   2.713 -0.7520 -2.0027  0.6281
43935SOL     OW38665   6.410   7.069   6.361 -0.6391  0.2268 -0.1829
43935SOL    HW138666   6.401   7.124   6.283 -0.2439 -1.5549 -1.5517
43935SOL    HW238667   6.346   6.999   6.348 -1.2221  0.3966  1.5785
43936SOL     OW38668  12.131   7.857   5.688  0.1856  0.1829  0.3588
43936SOL    HW138669  12.137   7.786   5.624  0.2968 -0.0340  0.6059
43936SOL    HW238670  12.123   7.936   5.635  1.8751  0.1811  0.0430
43937SOL     OW38671   8.101   8.344   5.517 -0.2716  0.1113  0.3602
43937SOL    HW138672   8.118   8.421   5.570  0.7016  1.2107 -1.4574
43937SOL    HW238673   8.176   8.287   5.532 -0.7164 -0.2520  1.2655
43938SOL     OW38674   6.894   2.295  10.588  0.1119  0.3977  0.1678
43938SOL    HW138675   6.802   2.312  10.564 -0.1505 -0.1772  0.7375
43938SOL    HW238676   6.894   2.204  10.618  0.5925  0.8076  1.4957
43939SOL     OW38677   0.003   7.926   4.001 -1.0374  0.0951  0.7166
43939SOL    HW138678   0.077   7.901   3.946 -0.3194  0.2395  1.6005
43939SOL    HW238679  -0.072   7.882   3.961 -0.4021 -0.4556  0.1034
43940SOL     OW38680   5.874   7.688   0.898 -0.7243  0.2507 -0.1460
43940SOL    HW138681   5.820   7.620   0.938 -0.6839 -0.5327 -1.3891
43940SOL    HW238682   5.814   7.734   0.839 -0.4543  0.5194 -0.2138
43941SOL     OW38683   6.249   8.385  10.688 -0.4202 -0.2578 -0.0623
43941SOL    HW138684   6.334   8.392  10.645  1.3375  1.1933  3.2186
43941SOL    HW238685   6.239   8.291  10.707 -0.5468 -0.6992 -2.1350
43942SOL     OW38686   4.801  10.551  11.164  0.1540  0.0936  0.4405
43942SOL    HW138687   4.751  10.473  11.187  0.5260  0.4972  2.8589
43942SOL    HW238688   4.735  10.620  11.155 -0.3497 -0.6400 -3.1327
43943SOL     OW38689   0.080   2.611   2.705  0.3033 -0.0459  0.4579
43943SOL    HW138690  -0.008   2.576   2.720  0.7577 -1.5842 -0.2535
43943SOL    HW238691   0.080   2.637   2.613  0.7462 -0.5748  0.3015
43944SOL     OW38692   2.758   8.498   9.171 -0.0974 -0.4891 -0.0620
43944SOL    HW138693   2.754   8.406   9.145  1.8832 -0.5285 -0.3450
43944SOL    HW238694   2.721   8.499   9.260 -1.4383 -1.2970 -0.5790
43945SOL     OW38695   2.907   8.133   1.814  0.2138 -0.4388  0.0440
43945SOL    HW138696   2.928   8.085   1.734 -1.6288 -2.2430  0.5333
43945SOL    HW238697   2.813   8.150   1.808  0.1785  0.0646  1.4765
43946SOL     OW38698  10.883   9.375   5.194 -0.4990 -0.1228 -0.1458
43946SOL    HW138699  10.926   9.440   5.138  1.6959  0.4009  1.9529
43946SOL    HW238700  10.890   9.293   5.145 -1.3822  0.7932 -1.8973
43947SOL     OW38701   3.313   5.153   9.296 -0.0633 -0.2539  0.3448
43947SOL    HW138702   3.320   5.120   9.386 -0.1431 -0.2349  0.3583
43947SOL    HW238703   3.395   5.201   9.281  0.3118 -0.9544  0.1175
43948SOL     OW38704   9.698   2.532   4.205  0.6523  0.2520 -0.4502
43948SOL    HW138705   9.787   2.504   4.184  1.0152  0.7101  0.4568
43948SOL    HW238706   9.654   2.452   4.233  1.0507  0.1893  0.0031
43949SOL     OW38707   7.007   9.737  10.296  0.2238  0.4422  0.3945
43949SOL    HW138708   7.012   9.803  10.227  0.9602 -0.0305 -0.0145
43949SOL    HW238709   6.936   9.678  10.268 -1.8015  2.1028  1.7195
43950SOL     OW38710  11.665   3.252   4.346 -0.3278  0.3916  0.6523
43950SOL    HW138711  11.759   3.268   4.340 -0.0276 -1.1469  0.9168
43950SOL    HW238712  11.646   3.190   4.275 -1.4635  1.8780 -0.4250
43951SOL     OW38713   3.732   1.914   8.768  0.0891 -0.4427 -0.1434
43951SOL    HW138714   3.657   1.861   8.795 -0.3494  0.4857  0.5135
43951SOL    HW238715   3.693   1.993   8.730  0.7320 -0.2099 -0.3287
43952SOL     OW38716   9.816  12.165   2.639  0.3725 -0.4343 -0.3646
43952SOL    HW138717   9.772  12.091   2.681  1.3401 -1.1899 -0.6168
43952SOL    HW238718   9.752  12.200   2.577 -0.4188 -0.4774  0.4208
43953SOL     OW38719   7.833   7.762   3.290 -0.2872  0.0505  0.0660
43953SOL    HW138720   7.840   7.829   3.359  0.5609  1.7143 -1.5597
43953SOL    HW238721   7.897   7.788   3.224 -2.0339 -0.6734 -2.0363
43954SOL     OW38722  11.668   3.253   5.207 -0.3134  0.1788  0.1329
43954SOL    HW138723  11.582   3.226   5.239 -0.3852 -0.4743 -0.5994
43954SOL    HW238724  11.650   3.297   5.124 -0.0396  1.0766  0.5314
43955SOL     OW38725   7.331   9.755   7.811  0.3446 -0.0115  0.3130
43955SOL    HW138726   7.426   9.745   7.810  0.2907 -0.5753 -0.2319
43955SOL    HW238727   7.299   9.682   7.757 -0.3920  0.1995  0.4512
43956SOL     OW38728   5.022   5.176   6.086  0.1720  0.1043 -0.4045
43956SOL    HW138729   4.944   5.120   6.088 -0.0415  0.3157 -1.7551
43956SOL    HW238730   4.987   5.265   6.087  0.4835  0.2311  0.9569
43957SOL     OW38731   4.288   0.523  10.771 -0.1514 -0.2213  0.0235
43957SOL    HW138732   4.240   0.598  10.736  0.1268 -0.2447 -0.4120
43957SOL    HW238733   4.341   0.560  10.842 -1.3779 -0.3279  1.0403
43958SOL     OW38734   3.814   6.492  11.833 -0.1454 -0.3562 -0.1317
43958SOL    HW138735   3.843   6.404  11.856  0.1075 -0.9555 -2.4992
43958SOL    HW238736   3.874   6.520  11.764 -1.5105  0.8286 -0.9080
43959SOL     OW38737   4.680   2.126   0.223 -0.3665 -0.3343  0.0840
43959SOL    HW138738   4.702   2.186   0.294 -0.6991 -1.2871  1.0246
43959SOL    HW238739   4.765   2.099   0.187 -0.1993  0.2374  0.0471
43960SOL     OW38740  11.292  10.618  10.067  0.2155  0.1677 -0.3742
43960SOL    HW138741  11.248  10.598   9.985 -0.9337  1.6879 -0.1548
43960SOL    HW238742  11.253  10.557  10.130 -0.1442  0.1647 -0.5963
43961SOL     OW38743  10.477   3.304   9.038  0.2103  0.1050 -0.5207
43961SOL    HW138744  10.506   3.306   9.129 -0.2174  1.2667 -0.4005
43961SOL    HW238745  10.428   3.221   9.030  1.3004 -0.6071 -0.0477
43962SOL     OW38746   7.756   2.298   0.855  0.1038  0.0174 -0.0863
43962SOL    HW138747   7.792   2.375   0.811 -0.5127  0.0347 -0.5764
43962SOL    HW238748   7.763   2.319   0.948  2.1491 -0.3548 -0.1197
43963SOL     OW38749  11.864   1.925   6.973 -0.6354 -0.1839 -0.1357
43963SOL    HW138750  11.882   1.859   6.906 -1.3877 -0.5897  0.0443
43963SOL    HW238751  11.812   1.991   6.928  0.3481  0.4352 -0.3846
43964SOL     OW38752  12.207   3.332   9.345  0.0830 -0.2330  0.1030
43964SOL    HW138753  12.117   3.302   9.334  0.4697 -0.3824 -3.9551
43964SOL    HW238754  12.240   3.280   9.418 -2.9989 -0.2576  1.6616
43965SOL     OW38755   7.618   2.778   8.534 -0.0461  0.1762 -1.2209
43965SOL    HW138756   7.695   2.756   8.482  0.9511  0.7668 -0.0579
43965SOL    HW238757   7.565   2.834   8.477 -0.0595 -0.9326 -2.3328
43966SOL     OW38758   1.553   9.716   0.885  0.7471  0.6232  0.1009
43966SOL    HW138759   1.518   9.658   0.818 -0.0236  1.1774  0.0142
43966SOL    HW238760   1.580   9.657   0.956  2.3201 -0.0367 -0.9960
43967SOL     OW38761   1.934   1.192  11.692 -0.0607 -0.6026  0.0223
43967SOL    HW138762   1.940   1.110  11.643  0.1950 -0.6179  0.0789
43967SOL    HW238763   1.959   1.260  11.629 -0.6507 -0.5256 -0.1363
43968SOL     OW38764   0.330   7.196   5.270  0.4847  0.3534  0.6250
43968SOL    HW138765   0.270   7.162   5.203  0.2638 -2.9307  2.3103
43968SOL    HW238766   0.414   7.157   5.248  1.0128  1.2963  0.8972
43969SOL     OW38767   1.909   3.379  10.730  0.0062 -0.1780  0.0438
43969SOL    HW138768   1.955   3.305  10.768  0.1787 -0.2452 -0.2983
43969SOL    HW238769   1.890   3.353  10.640  0.2494  0.2685 -0.1421
43970SOL     OW38770   4.903  10.272  10.993 -0.7880 -0.0096  0.2106
43970SOL    HW138771   4.887  10.358  10.955 -1.2925 -0.6500 -1.0915
43970SOL    HW238772   4.853  10.272  11.075 -1.2482  0.7311 -0.0588
43971SOL     OW38773   7.224  12.187   8.157 -0.3553 -0.7160  0.2405
43971SOL    HW138774   7.189  12.142   8.081  0.7710 -1.4163  0.1184
43971SOL    HW238775   7.227  12.120   8.226 -0.1461 -0.4232  0.5215
43972SOL     OW38776  11.249   3.918  10.656  0.0278 -0.1984  0.5304
43972SOL    HW138777  11.271   3.963  10.737 -2.1318 -0.4255  1.3184
43972SOL    HW238778  11.285   3.830  10.666  1.9232  0.4914  0.1290
43973SOL     OW38779   8.300   8.004   9.019  0.0175  0.3105  0.1377
43973SOL    HW138780   8.350   7.935   9.064 -1.5178  0.4970  2.3203
43973SOL    HW238781   8.210   7.990   9.049 -0.8203  1.5120 -1.6868
43974SOL     OW38782   9.837   0.756  11.007  0.1238  0.3865 -0.4761
43974SOL    HW138783   9.803   0.791  11.090 -1.5822  0.8302 -1.3107
43974SOL    HW238784   9.839   0.831  10.948 -1.0280 -0.3522 -1.5155
43975SOL     OW38785   4.844   4.491   7.545  0.6283 -0.3846  0.2515
43975SOL    HW138786   4.937   4.513   7.555  0.3185  0.9717  0.2816
43975SOL    HW238787   4.798   4.573   7.563 -0.6153 -1.1807  0.7883
43976SOL     OW38788   7.525   5.422   8.581 -0.1979  0.5167 -0.2370
43976SOL    HW138789   7.492   5.511   8.592 -0.3731  0.5107 -0.6800
43976SOL    HW238790   7.542   5.391   8.670 -0.6775  0.7889 -0.0466
43977SOL     OW38791  11.123  10.871   5.829 -0.0672 -0.3754 -0.1372
43977SOL    HW138792  11.210  10.842   5.803  0.7426 -0.2646  2.2535
43977SOL    HW238793  11.063  10.821   5.773  1.4896 -1.0114 -1.2893
43978SOL     OW38794   5.274   1.490  12.360  0.1699 -0.1144  0.1633
43978SOL    HW138795   5.311   1.447  12.437 -0.4684 -0.9034  0.0384
43978SOL    HW238796   5.245   1.575  12.392 -2.0393 -1.2283  1.3334
43979SOL     OW38797   3.044   3.602   1.894 -0.5288 -0.4644  0.2808
43979SOL    HW138798   3.055   3.522   1.946 -1.9789 -1.2032 -0.4819
43979SOL    HW238799   2.957   3.634   1.919 -1.2124 -0.7736 -1.5574
43980SOL     OW38800   0.995  10.278  10.266  0.1917 -0.4682 -0.2460
43980SOL    HW138801   0.941  10.283  10.188  2.1725 -1.7337 -1.7969
43980SOL    HW238802   1.062  10.345  10.253  0.7327 -0.9087  0.1934
43981SOL     OW38803   3.244   6.311  11.430 -0.1072  0.4935  0.1310
43981SOL    HW138804   3.196   6.251  11.374 -1.1914 -0.6982  2.1918
43981SOL    HW238805   3.317   6.341  11.377 -0.5300 -1.2956 -1.5736
43982SOL     OW38806   3.168   2.653   7.437 -0.1847 -0.2301  0.3291
43982SOL    HW138807   3.241   2.695   7.482 -0.4416 -0.5981  1.1048
43982SOL    HW238808   3.175   2.561   7.462 -0.0705 -0.5277 -0.7512
43983SOL     OW38809   8.493   5.505  12.433  0.1489  0.2555  0.6729
43983SOL    HW138810   8.457   5.523  12.347 -0.5414  2.7596  1.3897
43983SOL    HW238811   8.486   5.588  12.480  2.7444 -0.3326  2.3498
43984SOL     OW38812   0.727   6.054  10.687  0.2822  0.1568 -0.8474
43984SOL    HW138813   0.818   6.056  10.657  1.7798 -0.7694  3.0553
43984SOL    HW238814   0.727   6.109  10.766 -1.7978 -2.0949  0.8570
43985SOL     OW38815   0.408  11.547  11.786  0.5686 -0.0413 -0.3395
43985SOL    HW138816   0.317  11.540  11.758  1.0486 -1.6404 -1.6414
43985SOL    HW238817   0.420  11.641  11.804 -1.0668  0.3337 -1.0382
43986SOL     OW38818   3.934   9.217   6.206 -0.2616  0.1369 -0.5678
43986SOL    HW138819   3.874   9.145   6.188  0.4375 -0.2705 -1.3719
43986SOL    HW238820   3.906   9.288   6.149 -0.5964  0.3048 -0.1978
43987SOL     OW38821   5.242   7.991   7.675 -0.2656 -0.0120  0.0332
43987SOL    HW138822   5.199   8.063   7.629 -0.4893 -0.0517  0.1771
43987SOL    HW238823   5.336   8.008   7.664 -0.3168  0.4020  0.2287
43988SOL     OW38824   0.453   1.586   4.099  0.0028  0.1973  0.7427
43988SOL    HW138825   0.449   1.520   4.169  0.9153 -2.5148 -1.5674
43988SOL    HW238826   0.375   1.569   4.046 -0.7751  2.3321  1.1288
43989SOL     OW38827  12.138   2.715   0.368 -0.2032  1.0007 -0.3683
43989SOL    HW138828  12.117   2.730   0.276 -0.7874  1.6317 -0.1370
43989SOL    HW238829  12.061   2.670   0.403  0.5790 -0.5202 -0.4975
43990SOL     OW38830   7.242   2.007   4.173  0.2449 -0.0244  0.0476
43990SOL    HW138831   7.231   1.940   4.105 -1.5961  0.4552 -0.1870
43990SOL    HW238832   7.187   1.977   4.245 -0.3611  1.0751  0.0540
43991SOL     OW38833  11.260   9.641   3.955 -0.1945  0.1854 -0.2507
43991SOL    HW138834  11.224   9.644   3.867  0.7103 -1.3049 -0.7040
43991SOL    HW238835  11.227   9.559   3.992  1.4090 -0.4366 -0.1150
43992SOL     OW38836   3.088   3.139   9.539 -0.7902 -0.5494  0.0226
43992SOL    HW138837   3.117   3.229   9.554  0.6277 -0.6998 -1.4498
43992SOL    HW238838   3.031   3.119   9.613  0.8167  0.7190  1.7110
43993SOL     OW38839   5.492   2.591   2.542  0.3315  0.4496  0.2281
43993SOL    HW138840   5.471   2.680   2.515  1.0203  1.0710  1.6541
43993SOL    HW238841   5.425   2.537   2.500 -1.4400  1.8774  1.0739
43994SOL     OW38842   9.024  11.103   2.161  0.9877 -0.3141  0.0888
43994SOL    HW138843   8.983  11.110   2.075  0.5324  0.2672  0.3506
43994SOL    HW238844   9.113  11.135   2.147  0.2617  1.9236  0.2990
43995SOL     OW38845   9.049   3.252   7.129  0.4062 -0.1173  0.0094
43995SOL    HW138846   9.117   3.208   7.077 -0.2399 -3.1044  1.4804
43995SOL    HW238847   9.079   3.242   7.220  0.6216  3.4059  0.4554
43996SOL     OW38848   4.422   1.124   0.635 -0.2845 -0.1610 -0.0441
43996SOL    HW138849   4.435   1.219   0.631  1.1301 -0.3866 -1.7030
43996SOL    HW238850   4.339   1.110   0.589 -0.9188  0.3181  0.9149
43997SOL     OW38851   6.287   7.881   0.191 -0.0113 -0.2772 -0.2029
43997SOL    HW138852   6.217   7.913   0.133 -0.0254 -1.3787 -0.8210
43997SOL    HW238853   6.288   7.943   0.263 -0.3143  0.8722 -1.1466
43998SOL     OW38854   7.945   9.929   1.521  0.0630  0.3955  0.9258
43998SOL    HW138855   7.916  10.017   1.546  0.6280  0.9315 -0.2228
43998SOL    HW238856   7.971   9.938   1.429 -0.3438 -1.1001  0.6517
43999SOL     OW38857  10.400   5.627   8.815 -0.0309 -0.5652  0.2861
43999SOL    HW138858  10.448   5.691   8.868 -0.9068  0.5066 -0.1849
43999SOL    HW238859  10.309   5.639   8.841 -0.2614 -1.3071 -0.1601
44000SOL     OW38860   9.372   3.712   2.425 -0.1040 -0.0416 -0.4964
44000SOL    HW138861   9.414   3.797   2.435 -0.7174  0.0843  1.5796
44000SOL    HW238862   9.400   3.680   2.340  2.9387  0.7109  0.1104
44001SOL     OW38863   8.395  11.598  12.174  0.5806  0.2428  0.0771
44001SOL    HW138864   8.470  11.538  12.176  0.5903  0.2589  0.1782
44001SOL    HW238865   8.373  11.613  12.266  1.3963  1.4139  0.1048
44002SOL     OW38866  11.951  11.084   0.351 -0.8120  0.4693 -0.1702
44002SOL    HW138867  12.021  11.026   0.382  0.0801  1.7575  0.3352
44002SOL    HW238868  11.997  11.165   0.328 -2.0733  1.1308 -0.4061
44003SOL     OW38869   0.140   9.831   5.252 -1.1397 -0.1039 -0.1543
44003SOL    HW138870   0.053   9.864   5.276 -0.7415  0.5224  0.4686
44003SOL    HW238871   0.197   9.861   5.322 -0.1837  0.5914 -1.1955
44004SOL     OW38872   8.924   9.120   7.237  0.6584  0.2696 -0.4953
44004SOL    HW138873   8.842   9.105   7.191  0.4137 -0.4801  0.1527
44004SOL    HW238874   8.950   9.033   7.269  0.6125  0.8087  1.0952
44005SOL     OW38875   9.934   5.619   9.792 -0.5472  0.2509 -0.1729
44005SOL    HW138876   9.916   5.712   9.778 -0.2396  0.5959  1.5344
44005SOL    HW238877   9.885   5.575   9.723 -0.8060  1.6657 -0.9325
44006SOL     OW38878   4.108   5.972   1.347 -0.0762  0.2600  0.2572
44006SOL    HW138879   4.087   6.026   1.271  1.5687 -0.9915 -1.1434
44006SOL    HW238880   4.136   5.888   1.311 -0.5763 -0.8674  2.3064
44007SOL     OW38881   0.283   9.999  10.938  0.3992 -0.1810  0.1319
44007SOL    HW138882   0.331   9.918  10.923  1.4801  0.7487 -1.8142
44007SOL    HW238883   0.352  10.065  10.950 -0.2427  1.2235 -2.8700
44008SOL     OW38884   6.620   7.738   9.470  0.5706  0.1040 -0.1866
44008SOL    HW138885   6.583   7.739   9.382  1.3960  0.8884 -0.5423
44008SOL    HW238886   6.576   7.809   9.516  1.4312  0.8782 -0.5349
44009SOL     OW38887   3.827  11.567   5.324 -0.1588  0.0986  0.1124
44009SOL    HW138888   3.840  11.635   5.390  2.1422 -0.8497  0.7450
44009SOL    HW238889   3.844  11.610   5.240  0.4215  0.5121  0.4386
44010SOL     OW38890  10.118   8.446  11.973 -0.2745  0.1505  0.1019
44010SOL    HW138891  10.078   8.456  11.887 -0.6933 -0.4942  0.2129
44010SOL    HW238892  10.169   8.365  11.967  2.2895  1.6859 -0.5003
44011SOL     OW38893   0.399   4.217   3.233  0.0206 -0.2796 -0.0007
44011SOL    HW138894   0.311   4.220   3.196 -0.3406 -0.8165  0.7739
44011SOL    HW238895   0.448   4.160   3.174  0.2255  1.0540 -1.1605
44012SOL     OW38896   8.955   7.732   6.386 -0.0019 -0.1598  0.0183
44012SOL    HW138897   9.040   7.688   6.389  1.1447  1.9681  1.9917
44012SOL    HW238898   8.960   7.799   6.454 -3.5156 -0.3042  0.5974
44013SOL     OW38899   2.868   4.949   5.966 -0.2113 -0.1113  0.0819
44013SOL    HW138900   2.892   4.990   6.049 -1.1066  3.4759 -1.2296
44013SOL    HW238901   2.789   4.900   5.985 -0.0598  0.1425  1.4596
44014SOL     OW38902   2.300   3.082  10.969 -0.3474  0.7483  0.1846
44014SOL    HW138903   2.331   3.118  10.886 -0.4022 -0.1999 -0.2611
44014SOL    HW238904   2.346   3.133  11.036 -0.7574  1.9234 -0.4056
44015SOL     OW38905   5.459  10.723  10.586  0.2208  0.1684  0.1511
44015SOL    HW138906   5.504  10.685  10.661 -0.3287  1.9808  1.4568
44015SOL    HW238907   5.485  10.815  10.585 -2.3646  0.9969  0.1774
44016SOL     OW38908   2.863  12.272  11.760  0.0532 -0.1892  0.6061
44016SOL    HW138909   2.822  12.186  11.751 -0.0204 -0.2166  1.1801
44016SOL    HW238910   2.950  12.262  11.720 -1.7772  0.9135 -4.3142
44017SOL     OW38911  10.567   6.027   2.841 -0.3217 -0.0566  0.4488
44017SOL    HW138912  10.502   5.957   2.840  1.0358 -1.3401 -0.5956
44017SOL    HW238913  10.650   5.984   2.822  0.2391  2.1587 -2.8849
44018SOL     OW38914   8.880  12.233   8.804  0.3230  0.1936  0.4290
44018SOL    HW138915   8.928  12.248   8.886  1.4065 -0.0117 -0.1469
44018SOL    HW238916   8.854  12.321   8.776  0.1249  0.2840  0.8764
44019SOL     OW38917   1.532   9.739   3.090 -0.1690  0.5613 -0.3340
44019SOL    HW138918   1.608   9.704   3.137 -0.1829  0.0246 -0.7189
44019SOL    HW238919   1.499   9.808   3.148  2.7493  3.3956 -1.6868
44020SOL     OW38920   9.954   3.078   6.019 -0.1583 -0.3238 -0.2041
44020SOL    HW138921   9.939   3.152   6.078 -0.5087  0.7765 -1.6116
44020SOL    HW238922  10.016   3.111   5.954  0.0759 -1.4367 -0.5788
44021SOL     OW38923   4.279  12.479   9.879 -0.8213 -0.2496  0.3300
44021SOL    HW138924   4.333  12.474   9.800 -0.3955  0.0321  0.6021
44021SOL    HW238925   4.213  12.410   9.867 -0.2350 -0.7793  0.1261
44022SOL     OW38926   8.950  12.263  10.035 -0.1877  0.6021 -0.4275
44022SOL    HW138927   9.005  12.220   9.970  2.6980  1.2511  1.3621
44022SOL    HW238928   8.930  12.195  10.099  1.7697  1.0987  0.8067
44023SOL     OW38929  12.264   1.969   9.595 -0.3510 -0.3804  0.6038
44023SOL    HW138930  12.230   2.058   9.586 -1.3216 -0.8138 -0.2042
44023SOL    HW238931  12.276   1.958   9.689  1.0357  1.0400  0.6255
44024SOL     OW38932   4.171   9.545  11.775 -0.1651 -0.0254 -0.0197
44024SOL    HW138933   4.255   9.574  11.739 -0.1474  0.3401  0.3038
44024SOL    HW238934   4.153   9.608  11.845 -1.1065  0.4002 -0.6318
44025SOL     OW38935   1.602  10.193   8.755 -0.1325  0.1484  0.4091
44025SOL    HW138936   1.619  10.189   8.661 -0.5943  3.3298  0.0975
44025SOL    HW238937   1.675  10.145   8.795  0.4712 -0.6111 -1.5063
44026SOL     OW38938  12.031   6.220   0.259 -0.1800  0.0003 -0.6150
44026SOL    HW138939  12.091   6.146   0.257 -0.4302 -0.3903  2.3969
44026SOL    HW238940  11.987   6.217   0.174  1.9291 -1.4410 -1.7497
44027SOL     OW38941   6.004   8.584   4.439 -0.4209  0.2772  0.0331
44027SOL    HW138942   5.977   8.652   4.501 -3.5120  1.3304 -2.1999
44027SOL    HW238943   6.060   8.630   4.376  1.1931 -0.3557  0.9756
44028SOL     OW38944   2.762   8.103  11.671  0.0342 -0.2541  0.1153
44028SOL    HW138945   2.846   8.088  11.627 -0.0574 -2.2220  0.4893
44028SOL    HW238946   2.717   8.168  11.617  1.2997 -0.0858 -0.7706
44029SOL     OW38947   5.817   5.196   3.767 -0.2153 -0.4695 -0.0164
44029SOL    HW138948   5.815   5.151   3.683  0.1712 -0.4045 -0.0639
44029SOL    HW238949   5.738   5.166   3.813 -0.3950 -0.5539 -0.3745
44030SOL     OW38950   9.385   7.843   6.574  0.0450 -0.0853 -0.3630
44030SOL    HW138951   9.320   7.854   6.504 -0.2718 -1.9442 -0.3935
44030SOL    HW238952   9.402   7.933   6.604 -0.8526  0.6349 -1.8649
44031SOL     OW38953   9.651   3.929   7.654 -0.1211  0.0452 -0.0989
44031SOL    HW138954   9.744   3.906   7.653  0.2088  1.3024 -1.4477
44031SOL    HW238955   9.608   3.854   7.613  0.2312 -0.7236  0.8957
44032SOL     OW38956   6.065   6.602   6.196  0.1041  0.1866  1.0372
44032SOL    HW138957   5.988   6.655   6.213 -0.4147  0.0613 -0.7194
44032SOL    HW238958   6.030   6.515   6.176  0.5589  0.4391 -1.0762
44033SOL     OW38959  11.301   5.858   9.889 -0.1854 -0.1198  0.0874
44033SOL    HW138960  11.302   5.908   9.971 -1.0186  0.8576 -0.4838
44033SOL    HW238961  11.391   5.862   9.857  0.4876 -1.6208  1.5753
44034SOL     OW38962   1.204   5.967   1.642 -0.0326 -0.1637  0.0785
44034SOL    HW138963   1.201   5.944   1.735 -0.3736  1.7447  0.5936
44034SOL    HW238964   1.113   5.986   1.619  0.2365  0.7593 -0.2493
44035SOL     OW38965   6.480   4.654  10.706 -0.3188  0.2572 -0.3563
44035SOL    HW138966   6.502   4.706  10.783 -0.0625 -0.3934  0.0123
44035SOL    HW238967   6.487   4.716  10.633 -1.3257  1.0708  0.2066
44036SOL     OW38968   1.704   9.206   5.118  0.2856 -0.3279  0.2582
44036SOL    HW138969   1.685   9.127   5.067 -0.4666 -0.2180  0.3593
44036SOL    HW238970   1.763   9.176   5.187 -0.2389 -0.8706  0.4811
44037SOL     OW38971   8.951   5.818  11.082  0.0117  0.2154  0.2644
44037SOL    HW138972   8.920   5.747  11.026 -1.5353 -0.0682  1.4100
44037SOL    HW238973   8.892   5.891  11.064 -0.5853  0.0826  1.5781
44038SOL     OW38974   0.700   6.477   7.694 -0.4658  0.2180  0.0784
44038SOL    HW138975   0.631   6.543   7.690 -1.3744 -0.6952  0.3885
44038SOL    HW238976   0.685   6.431   7.776 -1.1693 -1.7545 -1.0906
44039SOL     OW38977   5.530  12.016  10.418 -0.0076 -0.3675  0.2824
44039SOL    HW138978   5.527  12.051  10.507  0.1961 -0.0993  0.1862
44039SOL    HW238979   5.557  12.091  10.364 -3.3391  0.4123 -0.5056
44040SOL     OW38980   1.283   8.134   4.483 -0.0742  0.2289  0.3491
44040SOL    HW138981   1.217   8.079   4.526 -0.0311 -0.0095  0.1057
44040SOL    HW238982   1.289   8.100   4.394 -0.3077  0.8516  0.0831
44041SOL     OW38983   1.637   3.860  10.918  0.2628  0.2819 -0.8230
44041SOL    HW138984   1.662   3.913  10.842  0.2724  0.5798 -0.6119
44041SOL    HW238985   1.541   3.859  10.916  0.2637  0.2653 -0.8562
44042SOL     OW38986   6.435   2.044  11.867 -0.0528 -0.0092  0.1975
44042SOL    HW138987   6.417   1.973  11.928  1.2021  0.9137  1.7320
44042SOL    HW238988   6.525   2.071  11.888  0.6357 -0.0092 -2.4647
44043SOL     OW38989   4.196   5.585  12.431  0.0437  0.5308 -0.0684
44043SOL    HW138990   4.261   5.546  12.489 -0.4260  1.4348  1.1356
44043SOL    HW238991   4.139   5.635  12.490 -2.2096 -0.8283 -0.9678
44044SOL     OW38992   8.148   9.100  10.466  0.3510 -0.3457 -0.3858
44044SOL    HW138993   8.155   9.017  10.419 -0.9337 -0.6461 -0.0871
44044SOL    HW238994   8.074   9.087  10.526  0.7615  0.6780  0.3630
44045SOL     OW38995   7.686   3.782   8.535 -0.0766  0.0233 -0.0343
44045SOL    HW138996   7.665   3.723   8.463  2.3081 -0.5452 -0.3364
44045SOL    HW238997   7.693   3.725   8.612  0.6735  0.1335 -0.0161
44046SOL     OW38998   5.594   7.445   0.011 -0.5868  0.4674  0.2304
44046SOL    HW138999   5.640   7.519   0.051 -0.4669  2.0388 -2.5927
44046SOL    HW239000   5.503   7.474   0.003 -0.9282 -0.4289  0.6797
44047SOL     OW39001   4.812   7.001   5.076  0.7262  0.0814  0.1212
44047SOL    HW139002   4.883   6.964   5.023 -0.2356 -2.2550  0.3282
44047SOL    HW239003   4.841   6.988   5.166  1.0442  1.2937  0.2021
44048SOL     OW39004   8.291   1.785   3.635 -0.2987  0.1564 -0.0470
44048SOL    HW139005   8.246   1.775   3.719 -1.1767 -2.1278 -0.6969
44048SOL    HW239006   8.340   1.866   3.643 -0.9394  0.3745  2.4006
44049SOL     OW39007   3.943   1.743   8.258  0.5340  0.3180 -0.1595
44049SOL    HW139008   3.947   1.651   8.284 -0.7672 -0.1169 -1.3752
44049SOL    HW239009   3.873   1.780   8.311  0.4121  0.3660 -0.3537
44050SOL     OW39010  11.075   0.020   5.055  0.1679 -0.3471  0.2670
44050SOL    HW139011  11.136   0.030   5.128  0.2516 -0.8661  0.2743
44050SOL    HW239012  11.128  -0.020   4.986  0.3125  0.9365 -0.3848
44051SOL     OW39013   8.631   5.564   1.743  0.4898 -0.8424 -0.2838
44051SOL    HW139014   8.701   5.526   1.796  1.0372 -0.8773 -1.0195
44051SOL    HW239015   8.669   5.643   1.705 -0.0630 -0.5409 -0.2315
44052SOL     OW39016   0.521   7.662   2.728  0.3159  0.3122  0.4288
44052SOL    HW139017   0.538   7.581   2.776  0.9782 -0.8561 -1.6451
44052SOL    HW239018   0.591   7.666   2.662  0.0405  2.3546  0.1871
44053SOL     OW39019  12.128   2.366   1.952  0.2743  0.4412 -0.1473
44053SOL    HW139020  12.081   2.364   1.869  0.1802  2.8970 -0.2383
44053SOL    HW239021  12.134   2.459   1.974  0.8913 -0.0885  2.2678
44054SOL     OW39022  11.095   2.436   5.903 -0.1858 -0.3307  0.1359
44054SOL    HW139023  11.025   2.375   5.880  0.1109 -1.2742  1.6316
44054SOL    HW239024  11.168   2.381   5.930  0.1101  0.6634  1.4639
44055SOL     OW39025   6.286  11.118   4.945 -0.5945  0.4946  0.0645
44055SOL    HW139026   6.201  11.083   4.917 -0.1764  0.3420 -1.0955
44055SOL    HW239027   6.268  11.163   5.027 -1.5238 -0.7779  0.5908
44056SOL     OW39028   7.993   7.440   7.582 -0.0310  0.3267  0.3629
44056SOL    HW139029   8.024   7.464   7.670  0.0414 -1.4386  0.8569
44056SOL    HW239030   7.909   7.397   7.598 -1.2253  2.1148 -0.6836
44057SOL     OW39031   0.744   4.717   9.973 -0.3967  0.2967 -0.8248
44057SOL    HW139032   0.767   4.645  10.031  1.7973  0.6544 -1.1312
44057SOL    HW239033   0.766   4.685   9.885 -0.3555  0.9768 -1.0708
44058SOL     OW39034   5.598   9.989   6.376  0.0021 -0.3631 -0.1282
44058SOL    HW139035   5.526   9.964   6.319  0.5360 -1.2888 -0.4142
44058SOL    HW239036   5.574  10.076   6.409 -0.5524 -0.0280 -1.3593
44059SOL     OW39037  10.609   4.076   8.503 -0.2060 -0.3597 -0.4338
44059SOL    HW139038  10.562   4.154   8.534  0.8233  0.3227 -0.5327
44059SOL    HW239039  10.638   4.099   8.415 -1.5795 -1.6183 -1.2576
44060SOL     OW39040   4.265   9.957   1.559  0.3744 -0.1687  0.6537
44060SOL    HW139041   4.350   9.966   1.517 -0.7857  1.4817 -1.5806
44060SOL    HW239042   4.246  10.045   1.593  0.5299 -1.0671  3.3362
44061SOL     OW39043   5.699   0.133  11.175  0.0913 -0.1104  0.1778
44061SOL    HW139044   5.776   0.149  11.231  0.1701 -0.1721  0.0876
44061SOL    HW239045   5.693   0.038  11.170 -0.0766 -0.1054  0.3022
44062SOL     OW39046   5.255   6.476   3.292  0.2141  0.2976  0.0118
44062SOL    HW139047   5.323   6.419   3.256  0.4052  0.7500 -0.3524
44062SOL    HW239048   5.214   6.517   3.216  0.6254  1.2720  0.2950
44063SOL     OW39049   6.259   7.698   4.517  0.7555 -0.4899  0.3883
44063SOL    HW139050   6.231   7.756   4.588  1.7271  0.9762 -0.3591
44063SOL    HW239051   6.275   7.757   4.443  1.1303 -1.8093 -0.6338
44064SOL     OW39052   0.497   1.629  10.594 -0.2556 -0.5573  1.1257
44064SOL    HW139053   0.547   1.595  10.520  1.3415  0.6578  1.5852
44064SOL    HW239054   0.501   1.559  10.659 -0.7999 -1.2246  0.4673
44065SOL     OW39055  10.688   6.231   3.825  0.5331 -0.2624  0.1551
44065SOL    HW139056  10.720   6.250   3.913  1.1517 -3.0282  0.6110
44065SOL    HW239057  10.627   6.302   3.805 -1.0926 -0.5140  3.5997
44066SOL     OW39058   2.965   8.784   6.090 -0.4902  0.1463 -0.0842
44066SOL    HW139059   2.973   8.689   6.092 -1.6022  0.0293  1.8740
44066SOL    HW239060   3.018   8.811   6.016  2.9515 -1.7019  1.4841
44067SOL     OW39061   8.931  11.653   4.475  0.0422  0.0744  0.9185
44067SOL    HW139062   8.981  11.714   4.421  0.8566 -0.8625  0.5668
44067SOL    HW239063   8.955  11.675   4.565  1.1076 -0.3459  0.7528
44068SOL     OW39064  10.909  10.483   4.355  0.4794  0.1257  0.2615
44068SOL    HW139065  10.879  10.393   4.360 -0.9178  0.4649 -1.1175
44068SOL    HW239066  10.888  10.520   4.441 -1.7535 -0.0862 -0.1316
44069SOL     OW39067   8.741   8.428   0.844 -0.3745 -0.0305 -0.1821
44069SOL    HW139068   8.803   8.485   0.890 -0.0814  0.4216 -1.1269
44069SOL    HW239069   8.740   8.461   0.755 -1.0115 -0.8477 -0.4824
44070SOL     OW39070   8.226   2.818  11.649  0.2981 -0.0503 -1.0322
44070SOL    HW139071   8.180   2.898  11.626 -0.4725  0.7661  2.7125
44070SOL    HW239072   8.315   2.846  11.669 -0.3264  0.2704  1.6819
44071SOL     OW39073   0.872   8.438   1.619  0.1898  0.3682  0.1679
44071SOL    HW139074   0.834   8.506   1.674 -0.5045  0.2379 -0.1461
44071SOL    HW239075   0.834   8.453   1.532 -1.9528 -1.9063  0.6064
44072SOL     OW39076  12.101   2.278   6.176 -0.2639  0.5303  0.0776
44072SOL    HW139077  12.101   2.343   6.245 -0.7082 -1.1630  1.7405
44072SOL    HW239078  12.128   2.196   6.219 -0.4823 -0.5734 -1.7510
44073SOL     OW39079  10.119   3.776   5.326 -1.1018 -0.2641  0.4431
44073SOL    HW139080  10.141   3.852   5.273 -0.4145 -2.3396 -2.5392
44073SOL    HW239081  10.191   3.768   5.388 -0.9340  1.2069  0.4574
44074SOL     OW39082  11.755   4.046  11.918 -0.1944 -0.6842 -0.0018
44074SOL    HW139083  11.693   3.974  11.903  0.2640 -1.0719 -0.0710
44074SOL    HW239084  11.739   4.107  11.846 -0.6194 -0.6921  0.0836
44075SOL     OW39085   4.250   4.704  11.338 -0.1749 -0.2029 -0.3427
44075SOL    HW139086   4.155   4.713  11.328 -0.2037  0.7530  0.6264
44075SOL    HW239087   4.286   4.781  11.294 -0.0338  1.0285  1.7789
44076SOL     OW39088   6.551   6.604  10.176  0.0701 -0.6974 -0.4485
44076SOL    HW139089   6.615   6.652  10.123  2.0268 -1.8995  0.6804
44076SOL    HW239090   6.508   6.545  10.115 -0.2286  0.3490 -1.2894
44077SOL     OW39091  10.471   5.075   6.275 -0.2612 -0.0193  0.6946
44077SOL    HW139092  10.493   5.150   6.331 -1.0654  1.4510 -0.8518
44077SOL    HW239093  10.379   5.057   6.296 -0.2263 -0.2131  0.6784
44078SOL     OW39094   7.094  12.013   8.361 -0.0042 -0.7779  0.2548
44078SOL    HW139095   7.018  12.065   8.336 -0.1864 -0.4878  1.3716
44078SOL    HW239096   7.113  11.960   8.284  0.9681  1.8151 -1.4099
44079SOL     OW39097   2.217   7.807  10.438 -0.5033  0.2063  0.2754
44079SOL    HW139098   2.176   7.878  10.488 -1.8145  0.4876 -1.1252
44079SOL    HW239099   2.148   7.740  10.431 -0.9995  0.8853 -2.5337
44080SOL     OW39100   9.835   2.681  11.799 -0.1664  0.0630  0.2655
44080SOL    HW139101   9.752   2.634  11.803 -1.3736  2.0910  0.5479
44080SOL    HW239102   9.818   2.755  11.740  1.8537 -0.2073 -0.7367
44081SOL     OW39103   9.091   6.813   3.824  0.3317  0.4723  0.3414
44081SOL    HW139104   9.102   6.718   3.821  1.1426  0.5740 -0.3504
44081SOL    HW239105   9.104   6.842   3.734  1.1055  1.3401  0.7139
44082SOL     OW39106  10.456   9.146   8.135 -0.1624 -0.3038 -0.2622
44082SOL    HW139107  10.396   9.108   8.071  0.9347 -2.1347 -0.2972
44082SOL    HW239108  10.415   9.127   8.220 -0.2226 -0.4826 -0.3302
44083SOL     OW39109   4.972  12.344   0.478 -0.0592  0.5111 -0.1288
44083SOL    HW139110   4.890  12.336   0.527  0.7271  2.3350  1.6085
44083SOL    HW239111   4.968  12.431   0.438 -0.3716 -0.6554 -2.8845
44084SOL     OW39112   0.603   3.125   5.027  0.0658 -0.0982  0.1762
44084SOL    HW139113   0.593   3.049   4.970 -1.0177  0.7918 -0.8792
44084SOL    HW239114   0.565   3.197   4.977 -0.7437  0.7680  1.9531
44085SOL     OW39115   8.666   5.047   0.511 -0.5430  0.5161  0.5152
44085SOL    HW139116   8.637   5.132   0.544 -0.9207  0.2635  0.8361
44085SOL    HW239117   8.602   5.026   0.442  1.8614  2.4128 -2.5412
44086SOL     OW39118   0.588   8.691   6.039  0.3894  0.0030  0.1625
44086SOL    HW139119   0.561   8.741   5.961  2.8981 -0.9370 -1.4527
44086SOL    HW239120   0.570   8.600   6.016 -0.3666 -0.1848  1.4128
44087SOL     OW39121  11.406   5.994   7.905 -0.0522  0.0663  0.3753
44087SOL    HW139122  11.499   5.976   7.893 -0.0111  0.4765  0.0648
44087SOL    HW239123  11.365   5.962   7.825 -0.1102  0.3757  0.2819
44088SOL     OW39124   0.010   1.660   2.431  0.4903 -0.1981  0.1425
44088SOL    HW139125  -0.075   1.702   2.444  0.0739 -0.7433 -0.7462
44088SOL    HW239126  -0.009   1.586   2.373  1.4138 -0.8815  0.6969
44089SOL     OW39127   2.163   6.277   3.556 -0.2637  0.1266  0.0984
44089SOL    HW139128   2.193   6.363   3.528  1.0189 -0.2471  0.2554
44089SOL    HW239129   2.201   6.216   3.492 -1.6953 -0.2929 -0.4032
44090SOL     OW39130   8.685   6.771   5.745 -0.4163 -0.3682 -0.2670
44090SOL    HW139131   8.717   6.810   5.664 -1.5543 -1.9054 -1.5009
44090SOL    HW239132   8.603   6.816   5.763 -1.2557 -1.4859 -1.1804
44091SOL     OW39133   4.032   3.851  11.409  0.1312  0.1186 -0.8802
44091SOL    HW139134   3.993   3.819  11.328 -2.1959  3.3890 -1.1992
44091SOL    HW239135   4.071   3.935  11.387 -2.2576  2.0764  1.6377
44092SOL     OW39136   8.682   3.686  12.190 -0.1612  1.0920 -0.1717
44092SOL    HW139137   8.773   3.714  12.202 -0.1518  0.3213  2.1997
44092SOL    HW239138   8.687   3.591  12.181 -0.7538  0.8688  1.3880
44093SOL     OW39139  10.530   4.114   5.104 -0.3519  0.9210  0.3381
44093SOL    HW139140  10.461   4.089   5.165 -0.6163  1.1011  0.1099
44093SOL    HW239141  10.555   4.203   5.129  0.9807  0.2706  1.5144
44094SOL     OW39142   6.376   8.560   4.926  0.7159  0.0968  0.1171
44094SOL    HW139143   6.329   8.624   4.980 -0.2049  0.2783 -0.8614
44094SOL    HW239144   6.450   8.609   4.891  0.9053  0.1810  0.6210
44095SOL     OW39145   0.601  11.990   8.280 -0.3005 -0.0253 -0.1394
44095SOL    HW139146   0.535  11.936   8.325 -1.6977 -0.9749 -3.0607
44095SOL    HW239147   0.559  12.076   8.270 -0.6282 -0.2592 -0.8795
44096SOL     OW39148   9.360   8.769   2.931 -0.4249 -0.4976 -0.1210
44096SOL    HW139149   9.364   8.789   2.837  1.6692  0.1371  0.0486
44096SOL    HW239150   9.443   8.727   2.950 -0.9732 -0.9518  1.3962
44097SOL     OW39151   4.014   2.811   0.205 -0.8324  0.1752  0.6606
44097SOL    HW139152   4.094   2.822   0.257 -1.2606 -0.1383  1.4138
44097SOL    HW239153   4.042   2.823   0.115  0.1302 -0.2282  0.8872
44098SOL     OW39154  10.259   6.692   7.165 -0.2621  0.4656 -0.4579
44098SOL    HW139155  10.327   6.634   7.131  0.3183  1.5527 -1.2085
44098SOL    HW239156  10.186   6.683   7.103  0.4211  1.6883 -1.4987
44099SOL     OW39157   1.372  11.049   9.260  0.0722 -0.2706  0.5250
44099SOL    HW139158   1.383  11.044   9.355 -0.3590  1.2454  0.6805
44099SOL    HW239159   1.412  11.132   9.235 -0.6769 -0.1945 -0.4789
44100SOL     OW39160   4.869   6.251   6.277  0.0087  0.2423  0.7311
44100SOL    HW139161   4.798   6.210   6.328  0.7402  0.0091  1.5973
44100SOL    HW239162   4.949   6.229   6.326  0.7151  0.2274 -0.3972
44101SOL     OW39163   8.692  10.930   6.404 -0.2101  0.1633  0.1935
44101SOL    HW139164   8.615  10.873   6.401  0.4487 -0.7059 -1.4903
44101SOL    HW239165   8.669  11.004   6.348 -0.1904  0.3991  0.4963
44102SOL     OW39166   5.197   7.693   4.253  0.1012  0.4776 -0.0679
44102SOL    HW139167   5.279   7.710   4.301  0.5249 -1.0949 -0.1983
44102SOL    HW239168   5.222   7.698   4.161  0.0409  0.0662 -0.1087
44103SOL     OW39169   5.611   9.547   2.311  0.0936 -0.2373 -0.2111
44103SOL    HW139170   5.656   9.466   2.334 -0.0903 -0.9761 -2.2173
44103SOL    HW239171   5.662   9.617   2.353  0.6754 -1.3150  0.9445
44104SOL     OW39172   5.574   4.307   1.570  0.3143  0.1908  0.3590
44104SOL    HW139173   5.516   4.234   1.592  1.0326 -0.3601  0.4689
44104SOL    HW239174   5.551   4.329   1.480 -0.4618  0.3675  0.5926
44105SOL     OW39175   5.955   6.210   3.125  0.0599  0.4468 -0.6892
44105SOL    HW139176   5.871   6.180   3.161  0.0325  2.1168  0.7920
44105SOL    HW239177   5.989   6.134   3.078 -1.3746 -0.8948  0.3071
44106SOL     OW39178   7.385   3.259   4.153 -0.1729 -0.4929  0.7689
44106SOL    HW139179   7.290   3.256   4.165 -0.2141  0.0028  0.6136
44106SOL    HW239180   7.411   3.168   4.140 -0.6590 -0.6079  0.5746
44107SOL     OW39181   8.512  10.422  12.079 -0.5512  0.1305 -0.0009
44107SOL    HW139182   8.494  10.422  11.985 -0.4098 -2.3521 -0.0787
44107SOL    HW239183   8.473  10.504  12.110  1.0311  2.0030 -2.4802
44108SOL     OW39184   1.427   4.497   7.675  0.3383  0.1606  0.3811
44108SOL    HW139185   1.427   4.487   7.580 -2.3573  0.3893  0.2724
44108SOL    HW239186   1.455   4.412   7.709 -0.5372 -0.5695 -0.6505
44109SOL     OW39187   4.270   5.701   7.427  0.5964  0.2584 -0.3863
44109SOL    HW139188   4.186   5.734   7.396  1.0862  1.5146 -0.4534
44109SOL    HW239189   4.249   5.621   7.474 -0.4710 -0.1989 -1.5990
44110SOL     OW39190   0.552   0.326   8.467 -0.1907 -0.3010 -0.1906
44110SOL    HW139191   0.528   0.380   8.542 -0.1820 -0.0301 -0.3811
44110SOL    HW239192   0.470   0.307   8.423 -0.0772  0.5056 -0.7614
44111SOL     OW39193   2.073   4.491   8.375 -0.4258 -0.3640 -0.6807
44111SOL    HW139194   2.127   4.541   8.314 -0.0470  0.7610  0.5162
44111SOL    HW239195   1.990   4.539   8.378 -0.0049  0.3401  0.5971
44112SOL     OW39196   4.594   4.711   0.310 -0.2197 -0.2302 -0.3542
44112SOL    HW139197   4.670   4.656   0.289 -0.1998 -0.4887  0.3569
44112SOL    HW239198   4.632   4.794   0.338 -0.2171 -0.1797 -0.5078
44113SOL     OW39199   4.457   9.398   6.427 -0.4878  0.2259 -0.5042
44113SOL    HW139200   4.528   9.354   6.381  0.2643  1.7390 -0.8772
44113SOL    HW239201   4.384   9.398   6.365 -1.4665 -2.8376  0.4941
44114SOL     OW39202   6.556  10.083   2.312  0.0374 -1.0621  0.0594
44114SOL    HW139203   6.500  10.023   2.360  1.2392 -1.7138  0.6814
44114SOL    HW239204   6.621  10.027   2.270 -0.7487 -0.4832 -2.0755
44115SOL     OW39205   4.574  10.370   3.939 -0.1739 -0.1827  0.1245
44115SOL    HW139206   4.645  10.415   3.893 -0.3371 -0.7468 -0.6941
44115SOL    HW239207   4.505  10.436   3.945 -0.6025 -0.4177 -1.5160
44116SOL     OW39208   6.015   3.889  10.520 -0.3038  0.0178  0.0551
44116SOL    HW139209   5.986   3.972  10.557 -1.5616 -0.9102  1.3080
44116SOL    HW239210   5.987   3.893  10.428 -0.4645  0.9152  0.1314
44117SOL     OW39211  11.077   1.811   7.916 -0.1396  0.0568  0.2821
44117SOL    HW139212  11.119   1.752   7.978  0.4593  0.5059  0.3151
44117SOL    HW239213  10.993   1.834   7.957 -0.2560 -0.5485  0.3893
44118SOL     OW39214   7.039   9.436  12.165  0.2554  0.0905 -0.4248
44118SOL    HW139215   7.065   9.473  12.249  0.8529 -1.6750  0.1961
44118SOL    HW239216   6.943   9.436  12.168  0.2593 -1.6495  1.0678
44119SOL     OW39217   5.795  12.367   7.290 -0.0761 -0.2047  0.2396
44119SOL    HW139218   5.759  12.279   7.302  0.7878 -1.0277 -2.4619
44119SOL    HW239219   5.749  12.420   7.355 -1.3202 -2.4402  1.3388
44120SOL     OW39220   7.611   1.918   0.192 -0.4376  0.7410 -0.2513
44120SOL    HW139221   7.579   1.829   0.209  1.3570 -0.0815 -0.9166
44120SOL    HW239222   7.633   1.952   0.278 -2.0205  0.9501  0.1151
44121SOL     OW39223   0.884   6.892   8.809  0.0458  0.1231 -0.1056
44121SOL    HW139224   0.840   6.817   8.850  2.4185  0.8575  4.4905
44121SOL    HW239225   0.815   6.956   8.797 -1.5753 -1.7818 -1.7446
44122SOL     OW39226   7.582   6.077  11.845  0.0941 -0.3780 -0.2333
44122SOL    HW139227   7.527   6.143  11.888 -0.4772 -1.3489  0.5523
44122SOL    HW239228   7.548   6.071  11.756 -1.4169 -1.3222  0.3806
44123SOL     OW39229   8.169   5.348   6.362 -0.2731  0.0654 -0.6354
44123SOL    HW139230   8.093   5.353   6.420 -0.1886  0.3125 -0.5453
44123SOL    HW239231   8.160   5.264   6.318  0.2665 -0.6611  0.5805
44124SOL     OW39232   9.288   7.671   6.796  0.7238  0.6430 -0.1923
44124SOL    HW139233   9.218   7.699   6.855 -0.9865 -1.6231 -1.0148
44124SOL    HW239234   9.292   7.740   6.729 -1.2822  0.4683 -0.5570
44125SOL     OW39235   8.597   8.285   3.892 -0.0170 -0.4183  0.1107
44125SOL    HW139236   8.623   8.221   3.826  2.6217  0.2141  0.4419
44125SOL    HW239237   8.599   8.236   3.975 -1.2960 -0.6909  0.0034
44126SOL     OW39238  11.257   8.905   3.245  0.0380  0.0975 -0.2997
44126SOL    HW139239  11.172   8.892   3.289 -0.3441 -0.7106 -1.2512
44126SOL    HW239240  11.236   8.958   3.169  0.7571  1.7952  0.6384
44127SOL     OW39241   0.900  10.937  10.321  0.3126 -0.5459 -0.4735
44127SOL    HW139242   0.947  10.999  10.378  1.1004 -0.0392 -1.6389
44127SOL    HW239243   0.944  10.853  10.335  1.4192 -0.1314 -1.3577
44128SOL     OW39244  11.656   1.094   6.016  0.5346  0.3715 -0.1739
44128SOL    HW139245  11.682   1.186   6.021  0.2571  0.3880  1.8550
44128SOL    HW239246  11.739   1.046   6.015  0.7141  0.5883  1.5121
44129SOL     OW39247   5.947   5.261   6.769 -0.2129  0.0363  0.5980
44129SOL    HW139248   5.870   5.204   6.759  1.0969 -1.6976 -0.1067
44129SOL    HW239249   5.952   5.309   6.687  0.5415 -1.3217 -0.1934
44130SOL     OW39250  10.921   5.727   9.274 -0.5847  0.1863  0.0621
44130SOL    HW139251  10.913   5.726   9.370  1.1702  0.1618  0.2468
44130SOL    HW239252  11.005   5.771   9.258 -0.1390 -1.0995 -1.3847
44131SOL     OW39253   9.013  12.322  11.450  0.2560  0.1376  0.4067
44131SOL    HW139254   8.934  12.303  11.499  2.1352 -1.7188  2.9903
44131SOL    HW239255   9.009  12.264  11.374 -0.5548 -0.3829  0.8383
44132SOL     OW39256   6.647   2.378  10.854  0.5554 -0.2390  0.6275
44132SOL    HW139257   6.672   2.455  10.906  1.4632 -0.2478  0.2244
44132SOL    HW239258   6.682   2.396  10.767 -1.0880 -0.1466 -0.0456
44133SOL     OW39259  12.166   2.982  10.403  0.1888 -0.2561  0.3353
44133SOL    HW139260  12.254   2.951  10.424 -0.1702 -2.2032 -0.8541
44133SOL    HW239261  12.158   3.065  10.450  2.1268 -0.7468  1.6293
44134SOL     OW39262   5.588   2.731   3.895 -0.1640 -0.2658  0.6751
44134SOL    HW139263   5.566   2.807   3.949  1.5338 -1.3895  3.0792
44134SOL    HW239264   5.653   2.764   3.833  0.2146  0.3673  1.3954
44135SOL     OW39265   0.435   9.580  11.499  0.1803  0.3402  0.4654
44135SOL    HW139266   0.425   9.522  11.575  2.7590  0.5335  1.0488
44135SOL    HW239267   0.472   9.523  11.431  1.2774  0.9390  0.5455
44136SOL     OW39268   0.876  10.002   3.934 -0.2405  0.3881  0.4564
44136SOL    HW139269   0.890   9.943   3.860 -1.0958  0.9600 -0.1769
44136SOL    HW239270   0.827   9.949   3.997  0.4821 -0.0963  0.6323
44137SOL     OW39271  11.864   7.504  12.001 -0.4510 -0.6277  0.3073
44137SOL    HW139272  11.855   7.591  11.962  0.4291 -0.0376  1.3800
44137SOL    HW239273  11.941   7.511  12.058  0.2323 -2.3900 -0.3408
44138SOL     OW39274   9.525  10.326   7.939  0.4233 -0.2433 -0.1599
44138SOL    HW139275   9.449  10.364   7.895  0.5244 -0.2535 -0.3443
44138SOL    HW239276   9.546  10.389   8.007  1.5100  0.8123 -1.4091
44139SOL     OW39277   0.070   3.525   8.543  0.0507  0.6046  0.1231
44139SOL    HW139278  -0.002   3.477   8.582 -0.3463  1.1636  0.0883
44139SOL    HW239279   0.146   3.502   8.596 -0.1304 -0.0562  0.1042
44140SOL     OW39280   3.429   5.591   8.993  0.1140  0.1564 -0.1668
44140SOL    HW139281   3.519   5.621   8.978  0.9630 -1.5862  1.0480
44140SOL    HW239282   3.404   5.633   9.076  1.1492 -1.9596  1.3139
44141SOL     OW39283   7.412   6.222  10.020  0.1134 -0.3280 -0.2000
44141SOL    HW139284   7.355   6.209   9.944  0.6569  1.1066 -0.8820
44141SOL    HW239285   7.403   6.315  10.041 -0.5725 -0.8266  1.9613
44142SOL     OW39286   9.125   2.355   3.484  0.6176 -0.1266  0.5260
44142SOL    HW139287   9.148   2.262   3.495  2.7075  0.2672 -0.0439
44142SOL    HW239288   9.138   2.393   3.571  1.5505 -0.0330  0.3511
44143SOL     OW39289   3.629   2.972   3.732  0.2386 -0.3658 -0.0778
44143SOL    HW139290   3.697   2.908   3.707 -0.5452 -0.4857 -2.0160
44143SOL    HW239291   3.678   3.051   3.754  1.0395 -0.5273 -1.2092
44144SOL     OW39292   2.823   9.657   1.966  0.3483  0.6011  0.7211
44144SOL    HW139293   2.771   9.737   1.963 -0.9898 -0.1143  2.7315
44144SOL    HW239294   2.831   9.637   2.059  4.3372  0.6751  0.5873
44145SOL     OW39295  10.288   6.457   0.308  0.1930  0.0826 -0.2836
44145SOL    HW139296  10.338   6.525   0.263 -0.5502  0.5863 -0.3504
44145SOL    HW239297  10.206   6.499   0.332 -0.0107 -0.6080  0.2504
44146SOL     OW39298   4.721   3.402   2.366  0.1725 -0.0675 -0.5969
44146SOL    HW139299   4.709   3.496   2.377  1.8534 -0.1171  2.9301
44146SOL    HW239300   4.789   3.379   2.429 -1.7237 -3.9848  0.3012
44147SOL     OW39301  12.230   1.702   1.100 -0.1571  0.1559  0.1286
44147SOL    HW139302  12.177   1.776   1.130  0.6357 -0.3831  3.2272
44147SOL    HW239303  12.213   1.634   1.165  2.0914 -1.0216 -0.4531
44148SOL     OW39304  11.833  10.561   8.490 -0.1611 -0.3700  0.0691
44148SOL    HW139305  11.790  10.633   8.443 -1.3529 -0.7451  0.5444
44148SOL    HW239306  11.807  10.482   8.442  1.0444 -0.5139 -0.3791
44149SOL     OW39307  12.277   4.963   0.560  0.3152 -0.1196 -0.1386
44149SOL    HW139308  12.189   4.943   0.529  0.2593  0.2956 -0.2571
44149SOL    HW239309  12.321   4.878   0.563 -0.4199 -0.4735  0.9819
44150SOL     OW39310   4.091  10.387   6.853  0.1798 -0.4284  0.1374
44150SOL    HW139311   4.158  10.343   6.799 -0.3188  0.8907 -1.6297
44150SOL    HW239312   4.019  10.325   6.857  0.6941 -1.0296  0.3468
44151SOL     OW39313   1.511   0.078   9.316  0.3696 -0.2859  0.2077
44151SOL    HW139314   1.451   0.023   9.266 -0.8586 -0.1144  1.4421
44151SOL    HW239315   1.547   0.019   9.383  4.1420 -1.2797 -2.3837
44152SOL     OW39316   2.606   1.166  11.013 -1.0048  0.4187  0.3772
44152SOL    HW139317   2.603   1.073  11.038  3.2005  0.0640  0.2113
44152SOL    HW239318   2.622   1.164  10.918  0.0846  1.2605  0.5360
44153SOL     OW39319   8.694  11.738   0.907  0.2994  0.0792 -0.2086
44153SOL    HW139320   8.709  11.711   0.997  1.0831  1.3393  0.0602
44153SOL    HW239321   8.696  11.657   0.857  0.5254 -0.5680  0.8236
44154SOL     OW39322  12.049   7.838   0.858  1.1713 -0.2685  0.1658
44154SOL    HW139323  12.063   7.775   0.788  1.2720 -0.8498  0.7029
44154SOL    HW239324  12.125   7.897   0.854  1.1545 -0.2741 -0.2319
44155SOL     OW39325  11.591   6.554   6.522  0.4280  0.2797 -0.0163
44155SOL    HW139326  11.656   6.600   6.575  0.5907  0.2276 -0.1694
44155SOL    HW239327  11.507   6.590   6.550  0.6011  1.2303 -0.6787
44156SOL     OW39328   7.881  10.395   2.537  0.3311 -0.8492 -0.6096
44156SOL    HW139329   7.804  10.447   2.562  0.8534 -0.3675  0.0228
44156SOL    HW239330   7.871  10.383   2.442  0.9468  1.7267 -1.0872
44157SOL     OW39331  10.844   4.271   3.354 -0.3684 -0.0895  0.0578
44157SOL    HW139332  10.781   4.207   3.386 -1.1007  1.3968  1.7710
44157SOL    HW239333  10.923   4.220   3.335 -0.7328 -1.4405  1.8954
44158SOL     OW39334   7.897  10.853   7.632  0.8486  0.1613  0.2313
44158SOL    HW139335   7.992  10.858   7.626  0.8084  0.5827 -0.1531
44158SOL    HW239336   7.876  10.892   7.717  0.9377  1.3254 -0.2623
44159SOL     OW39337   3.104   9.411   8.699  0.2714 -0.3520  0.6124
44159SOL    HW139338   3.187   9.455   8.719 -0.3351  1.0405  0.2122
44159SOL    HW239339   3.128   9.339   8.641  1.1699  0.2436  0.2212
44160SOL     OW39340  11.071   2.683   6.033 -0.7976  0.1419  0.2072
44160SOL    HW139341  11.038   2.675   6.123  0.5604 -0.0793  0.7021
44160SOL    HW239342  11.090   2.593   6.007  1.7609  0.4014  0.8788
44161SOL     OW39343   4.603  10.107   1.974  0.6383  0.3141 -0.1115
44161SOL    HW139344   4.691  10.079   1.949  0.5086 -0.4180  0.2111
44161SOL    HW239345   4.545  10.054   1.918  0.3964  0.5086 -0.0446
44162SOL     OW39346   1.709  10.682   2.212  0.0521  0.4080  0.9302
44162SOL    HW139347   1.737  10.612   2.154  0.3527  0.6134  0.8294
44162SOL    HW239348   1.782  10.743   2.215  0.1701  0.2421  1.7831
44163SOL     OW39349  10.171   5.573  12.031 -0.1467 -0.0022  0.4891
44163SOL    HW139350  10.167   5.629  11.953 -0.0362  0.4534  0.8051
44163SOL    HW239351  10.153   5.485  11.999 -2.5658  0.4970  0.2920
44164SOL     OW39352   4.834   0.403   1.577  0.5970 -0.2990  0.0688
44164SOL    HW139353   4.823   0.495   1.553  0.3740 -0.2245  0.4363
44164SOL    HW239354   4.880   0.405   1.661  0.9986 -0.5388 -0.1436
44165SOL     OW39355   0.434   4.383  11.982 -0.5117  0.0873  0.6826
44165SOL    HW139356   0.478   4.461  11.946 -0.5594  0.1071  0.6674
44165SOL    HW239357   0.504   4.319  11.993 -0.0889  0.8204  2.6843
44166SOL     OW39358  11.250   3.080   8.253  0.1373  0.0571 -0.5149
44166SOL    HW139359  11.294   2.997   8.270 -0.1923 -0.3335 -1.4876
44166SOL    HW239360  11.315   3.146   8.276  0.8529 -0.4948 -0.8938
44167SOL     OW39361   7.699   6.527   2.415  0.3111 -0.0608 -0.1103
44167SOL    HW139362   7.669   6.570   2.496  1.7639  0.4935  0.1674
44167SOL    HW239363   7.703   6.598   2.351  0.4741 -0.2394 -0.2969
44168SOL     OW39364   3.253   7.120   2.500  0.1889 -0.1658  0.6593
44168SOL    HW139365   3.193   7.051   2.474  1.9707 -1.8414  0.7533
44168SOL    HW239366   3.339   7.092   2.466  1.4518  0.6498  2.9352
44169SOL     OW39367   3.507   4.990   2.336 -0.0160 -0.4602 -0.3706
44169SOL    HW139368   3.589   4.939   2.335  0.0797 -0.3352  0.2946
44169SOL    HW239369   3.528   5.066   2.390 -0.8609 -0.9311  0.6555
44170SOL     OW39370   9.594   3.899  12.415  0.1631  0.7476  0.1407
44170SOL    HW139371   9.616   3.884  12.507  0.2270  2.1131  0.3700
44170SOL    HW239372   9.641   3.830  12.367  0.6066  0.3882  1.0706
44171SOL     OW39373   8.823   8.995   2.416  0.0551  0.2213 -0.9760
44171SOL    HW139374   8.766   8.929   2.375  0.1242 -0.7399  0.4203
44171SOL    HW239375   8.911   8.962   2.402  0.0874 -0.0444 -0.1942
44172SOL     OW39376   8.921  10.481   7.200  0.0341  0.0887 -0.0201
44172SOL    HW139377   8.928  10.461   7.293  1.1326  1.3909  0.2042
44172SOL    HW239378   9.004  10.522   7.177 -1.5508  3.3055 -0.6530
44173SOL     OW39379   0.921   2.861   3.050  0.3086 -0.1841  0.1416
44173SOL    HW139380   0.885   2.779   3.017 -2.0623  1.1740 -0.8830
44173SOL    HW239381   0.993   2.881   2.990 -0.9925 -0.0889 -1.4838
44174SOL     OW39382   1.906   9.304  12.363 -0.4389 -0.0775 -0.5139
44174SOL    HW139383   1.817   9.338  12.368 -1.0872 -1.7449 -0.0962
44174SOL    HW239384   1.896   9.214  12.333  0.7491 -1.4914  2.8675
44175SOL     OW39385  11.032   0.599   7.541  0.2742  0.5283  0.1035
44175SOL    HW139386  10.993   0.686   7.556  2.0760  1.6804 -1.4535
44175SOL    HW239387  11.064   0.602   7.451  1.4753 -1.3312  0.4052
44176SOL     OW39388   6.094   4.947  10.997  0.4975  0.0644 -0.1497
44176SOL    HW139389   6.146   4.883  11.046  1.4680  0.9709  0.0383
44176SOL    HW239390   6.007   4.908  10.992  1.3045 -1.7189 -0.9115
44177SOL     OW39391  11.684   3.698   8.979 -0.6879  0.2152  0.1943
44177SOL    HW139392  11.605   3.650   8.954  0.6335 -0.8991 -2.1765
44177SOL    HW239393  11.712   3.657   9.061 -1.2105 -1.0916 -0.2552
44178SOL     OW39394   9.373   5.356  11.149  0.3254 -0.1270 -0.0280
44178SOL    HW139395   9.291   5.310  11.130 -0.3693  0.1694  2.0003
44178SOL    HW239396   9.432   5.329  11.079 -1.1840 -1.1782 -0.9569
44179SOL     OW39397  11.687   8.236   1.734  0.2425 -0.2438  0.5040
44179SOL    HW139398  11.653   8.268   1.818  1.8836  1.9363  0.3920
44179SOL    HW239399  11.781   8.249   1.739  0.6366 -2.0719 -0.9021
44180SOL     OW39400   5.661   0.927   7.580  0.2623 -0.2892 -0.6191
44180SOL    HW139401   5.748   0.900   7.549  0.4236 -2.1753  1.1936
44180SOL    HW239402   5.667   0.919   7.676 -1.4399  1.1090 -0.3518
44181SOL     OW39403   7.806   2.395   6.869 -0.2844 -0.2839 -0.6605
44181SOL    HW139404   7.755   2.321   6.901 -0.4770 -0.0132 -0.3347
44181SOL    HW239405   7.891   2.357   6.844 -1.0714 -0.9873 -2.5019
44182SOL     OW39406  10.906   9.395   6.019 -0.0040 -0.1560 -1.2706
44182SOL    HW139407  10.821   9.436   6.037  1.0761  1.6968 -0.0490
44182SOL    HW239408  10.907   9.384   5.924 -1.1982  0.7547 -1.4223
44183SOL     OW39409   1.399   1.462   2.474 -0.2400 -0.4952 -0.3575
44183SOL    HW139410   1.349   1.519   2.533  0.4986 -1.2239  1.0197
44183SOL    HW239411   1.490   1.487   2.489 -0.1187  0.8162 -2.8405
44184SOL     OW39412   2.041   3.557  11.100  0.0448  0.5494  0.2674
44184SOL    HW139413   1.997   3.552  11.015  0.7333  1.8221 -0.1908
44184SOL    HW239414   2.121   3.607  11.082  0.6822 -0.0102  1.4760
44185SOL     OW39415   0.113   3.995   6.686  0.5680 -0.0948  0.3318
44185SOL    HW139416   0.190   4.044   6.657 -0.3884  1.5380  0.4347
44185SOL    HW239417   0.051   4.062   6.715  0.0044 -1.4787  2.5308
44186SOL     OW39418   9.248   7.969  11.899 -0.4753  0.3658 -0.3653
44186SOL    HW139419   9.309   7.896  11.914  0.0741  1.3834  3.2582
44186SOL    HW239420   9.176   7.930  11.850  0.4985 -2.2426  0.0989
44187SOL     OW39421   6.315  11.661   5.775 -0.3934  0.7586 -0.0004
44187SOL    HW139422   6.392  11.639   5.828 -0.8340 -1.1248 -0.0534
44187SOL    HW239423   6.277  11.738   5.817  0.6254  0.7523  0.9596
44188SOL     OW39424   5.795   3.536   4.771 -0.3332 -0.1268 -0.3281
44188SOL    HW139425   5.779   3.478   4.696  0.2711  0.2844 -0.7840
44188SOL    HW239426   5.888   3.556   4.766 -0.3615  0.1916  0.3336
44189SOL     OW39427   6.983   1.952   8.278  0.1188  0.2627  0.0586
44189SOL    HW139428   6.968   2.002   8.358  0.2569  0.1031  0.1879
44189SOL    HW239429   6.920   1.880   8.283 -0.9937  1.1573 -0.7773
44190SOL     OW39430   2.445   3.294   0.751  0.0662  0.6916  0.3638
44190SOL    HW139431   2.489   3.217   0.786 -1.6527 -0.7536 -0.4952
44190SOL    HW239432   2.354   3.285   0.782 -0.3397  1.9595 -0.3844
44191SOL     OW39433   2.926   4.043  10.428  0.3951  0.0073  0.2827
44191SOL    HW139434   2.980   4.122  10.416  1.2416 -0.8030 -1.5704
44191SOL    HW239435   2.916   4.007  10.340  0.9265 -2.5410  1.1824
44192SOL     OW39436   0.336   3.098   9.359 -0.1752  0.1218 -0.0437
44192SOL    HW139437   0.415   3.091   9.413  0.1419 -1.4000 -0.6657
44192SOL    HW239438   0.367   3.132   9.275 -0.5094  1.4529  0.3469
44193SOL     OW39439  11.325   1.551   5.567 -0.7150 -0.5272  0.1448
44193SOL    HW139440  11.413   1.582   5.544 -0.4881 -2.7818 -2.5452
44193SOL    HW239441  11.338   1.490   5.639 -0.1502 -0.4296  0.1256
44194SOL     OW39442   3.328   4.503   9.428  0.0251  0.0196  0.6481
44194SOL    HW139443   3.293   4.446   9.359 -0.6860 -0.5478  1.4602
44194SOL    HW239444   3.416   4.524   9.398 -0.1460 -0.4902 -0.2768
44195SOL     OW39445   0.555   4.454   8.964  0.4769  0.0380  0.1112
44195SOL    HW139446   0.586   4.543   8.980  0.6209  0.1334 -0.6582
44195SOL    HW239447   0.479   4.444   9.022  0.7697  0.4789  0.5775
44196SOL     OW39448  11.439   5.353   9.175 -0.3324  0.0320 -0.3418
44196SOL    HW139449  11.458   5.446   9.185  0.2655  0.0667 -1.5294
44196SOL    HW239450  11.492   5.310   9.242  0.4299  0.4696 -0.6510
44197SOL     OW39451   3.815  12.333   1.594 -0.3768  0.6480  0.0936
44197SOL    HW139452   3.898  12.298   1.563  0.4404  1.7543  0.9814
44197SOL    HW239453   3.807  12.300   1.684 -2.2469 -1.7039 -0.7981
44198SOL     OW39454   5.828   4.759   3.642 -0.1867  0.5598 -0.6069
44198SOL    HW139455   5.872   4.789   3.723 -0.7946  1.1213 -0.4762
44198SOL    HW239456   5.777   4.683   3.669  0.1645  0.3173 -0.6159
44199SOL     OW39457   8.777   6.035   6.158  0.2384  0.2887  0.3494
44199SOL    HW139458   8.835   5.976   6.111  0.3408 -0.4873  1.4052
44199SOL    HW239459   8.799   6.123   6.126  2.0350  0.0181  0.7654
44200SOL     OW39460   5.275   5.377   2.982  0.7136 -0.2907 -0.0161
44200SOL    HW139461   5.306   5.422   3.060  0.4476  0.4682 -0.3357
44200SOL    HW239462   5.237   5.296   3.014  1.6803 -0.5362  0.5185
44201SOL     OW39463   7.324   3.807   6.325  0.3413 -0.3090 -0.2327
44201SOL    HW139464   7.236   3.831   6.357  1.5159  1.5563  1.9650
44201SOL    HW239465   7.382   3.871   6.367  2.9356 -2.4111 -0.3967
44202SOL     OW39466   2.658  10.214   8.404 -0.2038  0.1867 -0.0620
44202SOL    HW139467   2.632  10.256   8.323 -1.5688 -1.9789 -0.8319
44202SOL    HW239468   2.702  10.133   8.377  0.2077 -0.1013  1.3468
44203SOL     OW39469   3.822   3.954   2.736 -0.0393 -0.0063 -0.0910
44203SOL    HW139470   3.758   3.986   2.673  2.2420  0.6245 -2.2930
44203SOL    HW239471   3.864   4.034   2.769  2.0124 -0.4223 -1.4970
44204SOL     OW39472  11.997  10.513   6.694  0.1541 -0.2033 -0.6546
44204SOL    HW139473  11.931  10.446   6.681 -1.1761  0.8665  0.2924
44204SOL    HW239474  12.080  10.466   6.693 -0.5653 -1.5293 -2.2562
44205SOL     OW39475   2.358  10.084   3.580 -0.7526 -0.0796  0.0515
44205SOL    HW139476   2.368  10.167   3.533 -1.4302  0.1050  0.2161
44205SOL    HW239477   2.396  10.018   3.522 -0.0793  0.3597 -0.0209
44206SOL     OW39478   9.418   0.616   5.452 -0.8996 -0.0443  0.0344
44206SOL    HW139479   9.474   0.695   5.450  0.7543 -1.1021  1.3606
44206SOL    HW239480   9.358   0.631   5.525 -0.8262  0.1536  0.0543
44207SOL     OW39481   4.868   5.508   7.465  0.1814  1.0303 -0.6235
44207SOL    HW139482   4.916   5.490   7.384  2.2830  0.3583  0.6872
44207SOL    HW239483   4.878   5.428   7.517 -0.1088  1.8762  0.7769
44208SOL     OW39484   0.158   4.480   3.453 -0.0474  0.4353  0.1239
44208SOL    HW139485   0.133   4.388   3.437 -1.6260  0.9337 -0.4827
44208SOL    HW239486   0.142   4.524   3.370 -0.2017  1.4357  0.6650
44209SOL     OW39487   9.387  11.857   4.659 -0.0423 -0.1001  0.6209
44209SOL    HW139488   9.459  11.920   4.659  0.5523 -0.6866  2.8082
44209SOL    HW239489   9.308  11.911   4.659  0.4371  0.6227  1.0720
44210SOL     OW39490  11.495   9.618   0.963  0.5864 -0.1023  0.1567
44210SOL    HW139491  11.526   9.648   1.049  2.1334  2.2272 -1.1057
44210SOL    HW239492  11.450   9.694   0.926 -1.0950 -1.4355 -0.6924
44211SOL     OW39493   1.389   4.179   8.493  0.1513  1.3538 -0.3061
44211SOL    HW139494   1.410   4.086   8.483  0.6483  1.3219  0.8795
44211SOL    HW239495   1.324   4.196   8.424 -1.8521 -0.4765  1.0037
44212SOL     OW39496   0.111   8.675  10.648 -0.1974 -0.4724 -0.2627
44212SOL    HW139497   0.192   8.684  10.699  0.7152  0.9872 -1.8527
44212SOL    HW239498   0.132   8.610  10.581 -0.0203  0.4708 -1.1637
44213SOL     OW39499   8.147   3.096   3.373  0.2714  0.2390 -0.0562
44213SOL    HW139500   8.190   3.016   3.343 -0.1368 -0.6313  1.5678
44213SOL    HW239501   8.084   3.066   3.438  0.1872  1.8991  0.6710
44214SOL     OW39502   2.504   8.697   8.052  0.2117 -0.0285  0.3110
44214SOL    HW139503   2.480   8.670   7.963  0.4313  1.8211 -0.3493
44214SOL    HW239504   2.593   8.732   8.043 -0.1062  1.0101  1.0828
44215SOL     OW39505  12.110   2.521   4.057 -0.7577 -0.0503 -0.5503
44215SOL    HW139506  12.120   2.606   4.099  0.3843 -0.4916  0.1149
44215SOL    HW239507  12.092   2.461   4.128 -0.3942 -0.5505 -0.8728
44216SOL     OW39508   6.106   9.283   5.372  0.3339  0.2533  0.1125
44216SOL    HW139509   6.078   9.192   5.370  2.4072 -0.4594  0.5434
44216SOL    HW239510   6.075   9.316   5.456  0.9312 -0.5524  0.6609
44217SOL     OW39511   9.574   9.748   5.665  0.0451  0.1701 -0.2213
44217SOL    HW139512   9.609   9.671   5.621  0.7313  0.6037 -0.4545
44217SOL    HW239513   9.485   9.758   5.630 -0.4155 -1.0752  0.5428
44218SOL     OW39514  11.917  10.644  11.374  0.4156  0.4351  0.1854
44218SOL    HW139515  11.886  10.734  11.386  1.0838  0.3934  2.9179
44218SOL    HW239516  11.842  10.597  11.340 -0.3557  1.7687 -0.0333
44219SOL     OW39517   6.334   3.638  11.585  0.4982 -0.0302 -0.4407
44219SOL    HW139518   6.300   3.726  11.566 -2.0799 -0.6445  0.8670
44219SOL    HW239519   6.301   3.585  11.512 -0.5751 -0.4329  0.3069
44220SOL     OW39520   3.939   2.412   8.125  0.0242 -1.5591  0.5555
44220SOL    HW139521   3.984   2.421   8.041  0.7805 -0.2885  1.0842
44220SOL    HW239522   3.857   2.367   8.103 -0.0458 -0.7483 -0.9578
44221SOL     OW39523   0.986   6.321   1.526  0.4069  0.3660  0.8680
44221SOL    HW139524   1.038   6.400   1.536 -1.8014  1.8009  1.7672
44221SOL    HW239525   0.932   6.337   1.449 -0.3984 -0.0351  1.3363
44222SOL     OW39526   7.272  12.437   6.133 -0.0920 -0.0661  0.1288
44222SOL    HW139527   7.260  12.345   6.111 -2.7492  0.2196  0.1420
44222SOL    HW239528   7.254  12.485   6.052 -4.5933  0.6615  1.2732
44223SOL     OW39529   1.057   3.834   5.177 -0.6074 -0.4350  0.4617
44223SOL    HW139530   0.988   3.838   5.111 -0.4871 -1.1490  0.2832
44223SOL    HW239531   1.058   3.742   5.205  0.9198 -0.6797 -0.2581
44224SOL     OW39532   0.968   7.292   5.591  0.3917  0.3989  0.2106
44224SOL    HW139533   0.903   7.337   5.537  0.2051 -2.1257 -1.8550
44224SOL    HW239534   0.920   7.223   5.635  1.4514 -1.0161 -0.7421
44225SOL     OW39535   8.990   7.348   2.400  0.3083 -0.0428 -0.0177
44225SOL    HW139536   8.975   7.312   2.312 -0.2286 -0.1342  0.1104
44225SOL    HW239537   8.903   7.370   2.432  0.5528  0.5115  0.2747
44226SOL     OW39538   6.017  10.241  11.951 -0.2164 -0.5260 -0.2256
44226SOL    HW139539   6.008  10.257  12.045 -0.8142  0.2035 -0.3896
44226SOL    HW239540   6.072  10.313  11.919 -1.8619  0.5661 -0.7714
44227SOL     OW39541  12.257   5.307   8.877 -0.7454 -0.5079  0.5943
44227SOL    HW139542  12.282   5.252   8.803 -3.0775 -0.2961 -0.4509
44227SOL    HW239543  12.302   5.268   8.952  0.0205 -2.0194 -0.5831
44228SOL     OW39544   6.588   9.363   2.065 -0.3214 -0.4082 -0.0973
44228SOL    HW139545   6.561   9.318   1.985 -1.3517  1.1313 -0.6411
44228SOL    HW239546   6.653   9.304   2.104 -0.1969 -1.4434 -1.7703
44229SOL     OW39547   6.128   3.123   9.698  0.3173  0.2607  0.4683
44229SOL    HW139548   6.185   3.179   9.646 -1.6656  0.4554 -1.6414
44229SOL    HW239549   6.172   3.038   9.700  1.5930  0.9002  0.5912
44230SOL     OW39550   9.027  11.636   2.502  0.3628  0.2276  0.4810
44230SOL    HW139551   8.987  11.552   2.523 -0.3214  0.1163 -1.1183
44230SOL    HW239552   9.104  11.641   2.558 -0.5245 -0.6740  1.8302
44231SOL     OW39553   0.776   5.549   0.175  0.0188  0.1054 -0.7679
44231SOL    HW139554   0.739   5.631   0.142  0.8123  1.6017  1.7728
44231SOL    HW239555   0.869   5.567   0.184  0.2457 -1.1844 -0.4348
44232SOL     OW39556   6.569   5.064  12.213 -0.1719 -0.4373 -0.9847
44232SOL    HW139557   6.573   5.137  12.275 -1.7652 -0.4124 -0.8502
44232SOL    HW239558   6.566   5.105  12.127  0.4744 -0.4063 -0.9906
44233SOL     OW39559   8.866   3.675   0.683  0.0371  1.0379 -0.0820
44233SOL    HW139560   8.885   3.707   0.771  0.4646  0.4050  0.0600
44233SOL    HW239561   8.950   3.676   0.638 -0.1203  1.0351 -0.3786
44234SOL     OW39562   5.148   4.866   9.636  0.0982  0.7233  0.0550
44234SOL    HW139563   5.132   4.958   9.617 -0.4758  0.7253  0.5107
44234SOL    HW239564   5.128   4.856   9.729 -0.9625 -0.0911 -0.2361
44235SOL     OW39565   4.300   2.227   8.926  0.2544 -0.0251  0.4586
44235SOL    HW139566   4.265   2.161   8.867  0.1039  0.1165  0.3863
44235SOL    HW239567   4.282   2.310   8.882 -0.2912  0.1116  0.9198
44236SOL     OW39568   3.974   7.539   7.111 -0.3931 -0.1194  0.2416
44236SOL    HW139569   4.007   7.452   7.093  0.9540  0.4280 -0.0428
44236SOL    HW239570   3.947   7.537   7.203 -1.7572 -1.2266 -0.1431
44237SOL     OW39571   7.779  10.476   0.831 -0.2785  0.0489  0.5396
44237SOL    HW139572   7.843  10.527   0.881  2.1988  0.4014 -2.6385
44237SOL    HW239573   7.770  10.524   0.749 -0.5775 -2.7620 -1.1904
44238SOL     OW39574   8.466   2.726   7.843  0.1373  0.2971  0.6291
44238SOL    HW139575   8.421   2.644   7.820 -0.2444  0.6164  0.2311
44238SOL    HW239576   8.395   2.788   7.857  0.4525  0.7647  0.1630
44239SOL     OW39577   0.062   6.457   9.630 -0.2229 -0.1265  0.2224
44239SOL    HW139578   0.111   6.376   9.617  1.2228  0.7283  0.1508
44239SOL    HW239579   0.015   6.470   9.547 -0.1509 -0.6783  0.0904
44240SOL     OW39580   7.337  11.075   8.587 -0.0339  0.2021  0.2596
44240SOL    HW139581   7.369  11.131   8.658 -1.6807  1.3033  0.2000
44240SOL    HW239582   7.339  11.132   8.510 -1.4936  0.1137  0.1425
44241SOL     OW39583   1.666  12.287   3.263 -0.8755  0.1294  0.2524
44241SOL    HW139584   1.644  12.204   3.222  0.3751  0.0453 -0.2831
44241SOL    HW239585   1.678  12.265   3.356  2.9376 -1.0882 -0.3595
44242SOL     OW39586  12.188   9.135   3.800  0.6772  0.1833  0.3721
44242SOL    HW139587  12.158   9.147   3.890  0.3053 -0.7720  0.3850
44242SOL    HW239588  12.239   9.053   3.802 -1.5216 -1.3058 -0.7668
44243SOL     OW39589   1.225  10.325   6.964  0.0786 -0.4551  0.0738
44243SOL    HW139590   1.254  10.383   6.893  0.5637 -0.8174 -0.0269
44243SOL    HW239591   1.290  10.336   7.033 -0.4989  0.0440  0.5540
44244SOL     OW39592   4.127   4.380  11.014 -0.2753  0.2495 -0.1720
44244SOL    HW139593   4.043   4.424  11.025 -1.1109 -0.7926 -2.0140
44244SOL    HW239594   4.105   4.287  11.013  0.6777  0.0019 -2.1904
44245SOL     OW39595   0.194   0.929   1.333 -0.1820 -0.0520  1.1204
44245SOL    HW139596   0.257   0.999   1.354  0.5339  0.0582 -1.0926
44245SOL    HW239597   0.225   0.854   1.383  2.5367 -0.3458 -0.7449
44246SOL     OW39598   0.108   2.177   2.728  0.2322 -0.2400 -0.0690
44246SOL    HW139599   0.014   2.191   2.741  0.4807  0.4287  1.0862
44246SOL    HW239600   0.149   2.206   2.809  1.3844 -1.2645 -0.2441
44247SOL     OW39601   5.884   0.666   1.991  0.5301 -0.0306 -0.2259
44247SOL    HW139602   5.968   0.709   2.001 -0.2298  1.1667  1.5651
44247SOL    HW239603   5.824   0.718   2.045 -1.0935 -1.5539 -0.4637
44248SOL     OW39604   0.550   3.520  10.474 -0.5286  0.1098  0.4565
44248SOL    HW139605   0.460   3.521  10.507 -0.3296 -1.3168  1.1165
44248SOL    HW239606   0.551   3.449  10.410  0.0439  0.3278  0.2205
44249SOL     OW39607   6.246   0.271   0.523  0.3109  0.1376  0.7416
44249SOL    HW139608   6.210   0.184   0.509 -0.4365  0.1747  2.1866
44249SOL    HW239609   6.247   0.312   0.437  0.7942 -1.3265  0.0203
44250SOL     OW39610   9.776   4.733  10.269 -0.1041  0.0909 -0.8927
44250SOL    HW139611   9.797   4.665  10.205  2.1419  0.3521 -0.5042
44250SOL    HW239612   9.796   4.815  10.224  0.5132  0.3173 -0.2196
44251SOL     OW39613   4.868   2.979   5.911 -0.3098 -0.0847 -0.4103
44251SOL    HW139614   4.819   3.032   5.847 -2.4452 -1.0169  0.3623
44251SOL    HW239615   4.877   2.893   5.869  1.1607  0.1962 -0.7357
44252SOL     OW39616  10.441  11.314   9.029 -0.5090 -0.0298  0.0891
44252SOL    HW139617  10.465  11.312   8.936 -0.5278 -0.2037  0.0871
44252SOL    HW239618  10.519  11.281   9.074 -0.8107 -0.8083  0.0643
44253SOL     OW39619   2.038   0.685   0.431  0.2642 -0.1682 -0.1604
44253SOL    HW139620   2.027   0.696   0.525  0.6655 -0.2557 -0.1014
44253SOL    HW239621   1.960   0.726   0.393 -0.2583 -0.7715  0.2355
44254SOL     OW39622   6.984  11.545  10.610 -0.0391  0.0278  0.5532
44254SOL    HW139623   7.058  11.606  10.610  1.5119 -1.7119 -1.1675
44254SOL    HW239624   7.012  11.473  10.553 -2.8807 -0.9677  0.2532
44255SOL     OW39625   6.741  11.545   0.836 -0.3515 -0.4795  0.1183
44255SOL    HW139626   6.687  11.579   0.908  1.5227  1.3143  0.7973
44255SOL    HW239627   6.791  11.473   0.875  0.1461  0.0337  0.4491
44256SOL     OW39628  11.675   1.091  10.154 -0.2894  0.4725  0.3814
44256SOL    HW139629  11.679   1.016  10.212 -1.2197  2.0769  2.6468
44256SOL    HW239630  11.717   1.162  10.202 -1.3886  1.9600 -0.7399
44257SOL     OW39631   1.806   1.343  10.779 -0.9500  0.7786  0.0679
44257SOL    HW139632   1.863   1.418  10.798  0.1749  0.3787 -1.4475
44257SOL    HW239633   1.790   1.349  10.685 -0.5194 -1.0620 -0.1753
44258SOL     OW39634   5.864   9.423   7.452 -0.1857  0.5378  0.4243
44258SOL    HW139635   5.851   9.375   7.534 -0.3773  1.2171  0.7974
44258SOL    HW239636   5.893   9.510   7.479 -0.1654  0.7415 -0.2334
44259SOL     OW39637   6.466   6.909   8.655  0.3822  0.1573 -0.7448
44259SOL    HW139638   6.401   6.848   8.690  0.2370  0.9889  0.5082
44259SOL    HW239639   6.414   6.982   8.621  0.6347  0.7883  0.1886
44260SOL     OW39640  12.259   9.711   3.100 -0.2877  0.7381  0.0972
44260SOL    HW139641  12.327   9.673   3.044  0.0014  0.3645  0.6996
44260SOL    HW239642  12.264   9.661   3.181 -0.5014  1.4816  0.5731
44261SOL     OW39643   3.110   7.028   1.151 -0.1464 -0.1314  0.3069
44261SOL    HW139644   3.112   7.059   1.061  0.1421  0.7161  0.5983
44261SOL    HW239645   3.031   7.067   1.189 -1.3370 -1.9978 -0.0809
44262SOL     OW39646  11.629   8.483   2.770  0.2471  0.8005  0.5775
44262SOL    HW139647  11.630   8.574   2.739  0.9576  0.7737  0.5029
44262SOL    HW239648  11.720   8.467   2.797  0.0443  0.2243  0.9155
44263SOL     OW39649   7.671  10.664   1.222 -0.0434 -0.4816  0.4691
44263SOL    HW139650   7.735  10.733   1.236  0.7328 -0.5189 -2.2875
44263SOL    HW239651   7.687  10.634   1.132 -2.5927 -1.8983  0.3865
44264SOL     OW39652   7.597  11.861   1.513 -0.5872 -0.5505 -0.2524
44264SOL    HW139653   7.597  11.878   1.607  0.4670  1.2828 -0.5478
44264SOL    HW239654   7.507  11.833   1.494 -0.3474 -2.9364  1.5805
44265SOL     OW39655   0.264   7.531   2.324 -0.1499 -0.9112 -0.4341
44265SOL    HW139656   0.181   7.559   2.362  0.0876 -1.2916  0.3763
44265SOL    HW239657   0.329   7.591   2.360  0.2058 -1.8150  0.4775
44266SOL     OW39658   0.708   6.781   1.098  0.5315  0.8881 -0.6154
44266SOL    HW139659   0.641   6.716   1.077  0.1696  1.2936 -0.7098
44266SOL    HW239660   0.670   6.834   1.168  1.5618 -0.1792  0.8009
44267SOL     OW39661   0.827   3.730  10.466 -0.2256  0.3421  0.3120
44267SOL    HW139662   0.770   3.778  10.406 -0.6516  0.7289  1.0210
44267SOL    HW239663   0.864   3.660  10.412 -2.1941 -0.5864  0.0758
44268SOL     OW39664   2.023   6.741  10.359 -0.1784 -0.0092 -0.2756
44268SOL    HW139665   2.104   6.697  10.385  0.1098  0.0219 -1.0924
44268SOL    HW239666   1.954   6.677  10.379  0.1214 -0.3354 -0.2696
44269SOL     OW39667   9.880   8.658   6.935  0.2681  0.1057  0.0944
44269SOL    HW139668   9.950   8.600   6.966  1.1391  0.6006 -0.9027
44269SOL    HW239669   9.828   8.603   6.876  1.6827  0.5472 -1.6593
44270SOL     OW39670   9.187   5.391   1.908 -0.2178  0.0966  0.4857
44270SOL    HW139671   9.127   5.338   1.855  1.5960 -1.9367  0.3232
44270SOL    HW239672   9.163   5.371   1.998 -1.6700  1.6334  0.4972
44271SOL     OW39673   3.285   9.520   7.486 -1.0258  0.0054 -0.1552
44271SOL    HW139674   3.352   9.476   7.538 -1.1351  1.1683  1.0246
44271SOL    HW239675   3.217   9.542   7.550 -2.0625 -0.2332 -1.1495
44272SOL     OW39676   2.461  10.541   0.157  0.2155 -1.4517 -0.0760
44272SOL    HW139677   2.389  10.488   0.191  0.9541 -1.0166  2.3987
44272SOL    HW239678   2.529  10.535   0.225  1.5665  0.1030 -1.2049
44273SOL     OW39679  11.122   8.450   2.837  0.2857 -0.4844  0.0629
44273SOL    HW139680  11.097   8.454   2.744 -0.8319  1.6512  0.3912
44273SOL    HW239681  11.040   8.465   2.884  1.2570  1.1050  1.3199
44274SOL     OW39682   9.984   9.458   9.568  0.0709 -0.4330 -0.2697
44274SOL    HW139683   9.910   9.499   9.523 -1.1584 -0.3633  1.6994
44274SOL    HW239684  10.012   9.387   9.509  0.1583  1.1349 -2.2329
44275SOL     OW39685   0.957   0.686  12.182  0.3256 -0.2288 -0.1271
44275SOL    HW139686   0.978   0.780  12.184 -0.4945 -0.0495  1.5594
44275SOL    HW239687   0.881   0.677  12.239 -0.3977 -1.7600 -1.2767
44276SOL     OW39688   6.174  10.652   4.050 -0.2259 -0.0860 -0.2355
44276SOL    HW139689   6.185  10.737   4.094  0.9911 -0.5795  0.4612
44276SOL    HW239690   6.080  10.637   4.052 -0.4297  1.0741 -0.0305
44277SOL     OW39691   7.993   9.754   7.032  0.3362  0.5793 -0.0988
44277SOL    HW139692   7.963   9.706   7.109 -0.9091  2.0775  0.4042
44277SOL    HW239693   7.929   9.735   6.964 -0.3916  1.7599  0.2181
44278SOL     OW39694   0.659   3.786   2.080 -0.0419  0.9227  0.0151
44278SOL    HW139695   0.714   3.864   2.087 -0.6424  1.6502 -2.6375
44278SOL    HW239696   0.721   3.713   2.089  1.0847  1.7281 -0.8798
44279SOL     OW39697   8.926  11.835   3.841  0.4413 -0.0130  0.1973
44279SOL    HW139698   8.979  11.914   3.856 -0.8608  1.2019 -1.1866
44279SOL    HW239699   8.966  11.793   3.765  0.0425  0.3436 -0.2138
44280SOL     OW39700   3.376   0.746  12.230  0.3158 -0.2008 -0.5730
44280SOL    HW139701   3.462   0.771  12.264  0.3661 -0.2001 -0.6978
44280SOL    HW239702   3.396   0.696  12.151  0.2016 -0.2326 -0.5807
44281SOL     OW39703   6.073   3.896   8.666 -0.4277 -0.3689 -0.1906
44281SOL    HW139704   6.068   3.801   8.677 -1.7918 -0.5348 -1.7074
44281SOL    HW239705   6.145   3.909   8.605  0.3144 -0.3369  0.6762
44282SOL     OW39706   2.193   7.503  10.307  0.2705  0.2369 -1.2106
44282SOL    HW139707   2.112   7.519  10.356 -0.1476 -1.2256 -1.3800
44282SOL    HW239708   2.262   7.539  10.364 -0.4387  1.1699 -0.8972
44283SOL     OW39709   0.068   5.829   1.771  0.2953  0.1535 -0.3919
44283SOL    HW139710   0.016   5.909   1.771 -0.6798 -0.4592 -0.9402
44283SOL    HW239711   0.154   5.856   1.741 -0.1796  0.9057 -1.1150
44284SOL     OW39712  10.108   3.543   1.268 -0.1158 -0.0803 -0.4478
44284SOL    HW139713  10.089   3.493   1.189  1.8074 -0.1397 -0.9024
44284SOL    HW239714  10.067   3.629   1.252  1.7361  0.5216 -2.3172
44285SOL     OW39715   3.232  10.896   6.740 -0.2902  0.2740  0.1715
44285SOL    HW139716   3.318  10.860   6.764 -0.2007  0.9096  0.8352
44285SOL    HW239717   3.173  10.862   6.807 -0.2136  1.3051  0.7742
44286SOL     OW39718   4.219  11.305   0.401  0.0839  0.4795 -0.3746
44286SOL    HW139719   4.155  11.332   0.467  0.3456  1.0228 -0.3383
44286SOL    HW239720   4.281  11.378   0.396  1.1965 -0.3767  0.2071
44287SOL     OW39721   4.871   3.592   5.262 -0.9567  0.0842 -0.4639
44287SOL    HW139722   4.864   3.642   5.343  0.4593 -0.0082 -0.2708
44287SOL    HW239723   4.824   3.510   5.280  0.3133 -0.4268  0.6680
44288SOL     OW39724  11.442   5.411   1.108  0.7105 -0.2443  0.5906
44288SOL    HW139725  11.409   5.338   1.160  0.6432 -0.3462  0.4042
44288SOL    HW239726  11.535   5.393   1.097  0.4367 -1.0146 -0.6207
44289SOL     OW39727  10.863   3.119   0.768 -0.1777 -0.5908 -0.4004
44289SOL    HW139728  10.794   3.067   0.727 -1.0768 -0.1685  0.5034
44289SOL    HW239729  10.940   3.063   0.768 -1.2377 -2.1619  1.0209
44290SOL     OW39730   6.820  10.589   2.646  0.1312  0.4647 -0.0539
44290SOL    HW139731   6.832  10.523   2.715  0.1495  0.8342  0.2996
44290SOL    HW239732   6.725  10.601   2.642  0.1757  1.0355  0.4754
44291SOL     OW39733   3.992   7.294   2.061 -0.9216 -0.2183 -0.4881
44291SOL    HW139734   3.925   7.247   2.111 -0.6567 -1.4253 -1.2393
44291SOL    HW239735   3.947   7.372   2.028 -1.5428 -0.2535  0.2493
44292SOL     OW39736   4.717   2.742   5.542 -0.5019 -0.0051  0.1534
44292SOL    HW139737   4.629   2.714   5.565 -1.0833  1.2189 -0.4910
44292SOL    HW239738   4.710   2.774   5.452  0.5095  0.4794  0.2294
44293SOL     OW39739   6.775   2.138   9.417  0.0046 -0.4584  0.3523
44293SOL    HW139740   6.808   2.223   9.390  2.2382 -1.4097 -0.1888
44293SOL    HW239741   6.782   2.083   9.339 -2.5205 -0.8919  0.3543
44294SOL     OW39742   3.997  11.195  12.075 -0.1048  0.0774 -0.2714
44294SOL    HW139743   3.948  11.198  11.992 -0.1107 -0.4959 -0.2901
44294SOL    HW239744   3.998  11.286  12.105 -0.5715  0.2052 -0.6303
44295SOL     OW39745  10.356  11.233   1.081 -0.3740 -0.4167 -0.1440
44295SOL    HW139746  10.272  11.277   1.096 -0.5835 -0.8429 -0.0488
44295SOL    HW239747  10.353  11.205   0.990 -0.3019 -0.3599 -0.1637
44296SOL     OW39748   9.330   9.418  11.209 -0.1760 -0.2205  0.2739
44296SOL    HW139749   9.240   9.395  11.232 -0.1220 -1.4511 -0.6920
44296SOL    HW239750   9.374   9.431  11.294 -0.9450 -0.8236  0.7695
44297SOL     OW39751   3.964   7.215  10.591  1.0457  0.2933  0.1915
44297SOL    HW139752   3.923   7.295  10.623  0.5101  0.1845 -0.2027
44297SOL    HW239753   3.969   7.158  10.668 -1.7774 -0.6135 -0.1654
44298SOL     OW39754  10.512   9.177   6.636  0.3375  0.1791  0.3477
44298SOL    HW139755  10.557   9.260   6.619  0.8010  0.0309  0.8238
44298SOL    HW239756  10.488   9.145   6.549  0.9979  0.3485  0.0943
44299SOL     OW39757   9.199   7.823   8.557 -0.0876 -0.1554 -0.3470
44299SOL    HW139758   9.290   7.826   8.586  0.2623  1.5322 -1.4756
44299SOL    HW239759   9.162   7.749   8.604  2.2013 -1.7339 -0.8232
44300SOL     OW39760   9.335   0.219   2.739  0.0675 -0.0579  0.1740
44300SOL    HW139761   9.337   0.124   2.747 -4.1971 -0.3030  0.9307
44300SOL    HW239762   9.319   0.250   2.828 -2.2163  0.9914 -0.5271
44301SOL     OW39763   4.913   2.175   8.804 -0.0034  0.4161 -0.0039
44301SOL    HW139764   4.999   2.148   8.773 -0.3528 -0.3751 -0.3032
44301SOL    HW239765   4.868   2.094   8.825 -0.6848  0.8215  0.1339
44302SOL     OW39766   1.090   7.157   0.451  0.1028 -0.4236 -0.5102
44302SOL    HW139767   1.168   7.183   0.402 -0.4001 -1.7454 -2.0888
44302SOL    HW239768   1.038   7.237   0.457  0.6514 -0.0040 -1.2333
44303SOL     OW39769   7.312   5.639   2.695 -0.5660 -0.5326  0.1204
44303SOL    HW139770   7.235   5.631   2.752 -1.3412 -0.8308 -0.9338
44303SOL    HW239771   7.336   5.549   2.673 -0.9351 -0.4104 -0.8540
44304SOL     OW39772  10.296   7.302   1.311  0.4212  0.4999 -0.3774
44304SOL    HW139773  10.201   7.300   1.296 -0.0907  2.2149  1.9247
44304SOL    HW239774  10.327   7.376   1.258  0.7892 -0.9429 -2.2677
44305SOL     OW39775   7.179   0.785   1.641  0.1157 -0.2495 -0.4086
44305SOL    HW139776   7.263   0.782   1.594  0.7804 -2.3706  0.7661
44305SOL    HW239777   7.113   0.777   1.573  0.9894 -1.0810 -1.1970
44306SOL     OW39778   9.613   9.014   7.450 -0.4361  0.4590 -0.0971
44306SOL    HW139779   9.629   9.027   7.543 -0.0487  1.4219 -0.2805
44306SOL    HW239780   9.518   9.016   7.441 -0.4469  1.7154  0.1188
44307SOL     OW39781   0.620   6.252   7.089 -0.1811  0.6522 -0.3886
44307SOL    HW139782   0.635   6.234   7.182  1.1175  0.5372 -0.6055
44307SOL    HW239783   0.580   6.338   7.088  1.7473  1.6224  0.2004
44308SOL     OW39784  12.317  10.577   4.621 -0.4671 -0.2369 -0.0240
44308SOL    HW139785  12.360  10.630   4.554  0.4460 -1.7018 -0.6642
44308SOL    HW239786  12.287  10.499   4.574  0.0906 -1.2506  1.2410
44309SOL     OW39787   8.565   4.600   7.943 -0.2686  0.0322  0.0932
44309SOL    HW139788   8.484   4.553   7.926  0.2822 -0.9657  0.1287
44309SOL    HW239789   8.617   4.539   7.996  0.4949  0.6632  0.0885
44310SOL     OW39790   9.050   9.293   9.844 -0.0962 -0.1865 -0.4528
44310SOL    HW139791   9.016   9.204   9.839  2.3417 -1.1736 -0.9188
44310SOL    HW239792   9.103   9.303   9.764  1.5741  0.7884  0.7003
44311SOL     OW39793   5.840   4.662   7.177 -0.5788  0.0199 -0.3916
44311SOL    HW139794   5.887   4.690   7.098 -0.3937 -0.3492 -0.4153
44311SOL    HW239795   5.874   4.574   7.195 -1.1126 -0.1731 -0.2915
44312SOL     OW39796  10.195   1.816   7.133  0.5840  0.3656 -0.1886
44312SOL    HW139797  10.278   1.831   7.088  0.3304  0.1640 -0.7290
44312SOL    HW239798  10.217   1.753   7.202  0.7031 -0.4204 -0.9308
44313SOL     OW39799   1.348   0.682   3.411  0.2127 -0.0032  0.2059
44313SOL    HW139800   1.275   0.728   3.452  0.8619  1.9367 -0.6943
44313SOL    HW239801   1.341   0.703   3.318  1.1919 -0.8395 -0.0825
44314SOL     OW39802   6.335   1.626   4.036 -0.2901 -0.6456  0.0003
44314SOL    HW139803   6.285   1.589   4.108 -1.3398 -2.2010 -1.4462
44314SOL    HW239804   6.273   1.683   3.991  1.0321  2.3127  1.6342
44315SOL     OW39805   0.539   7.435   0.448  0.1049  0.1899 -0.3623
44315SOL    HW139806   0.574   7.482   0.373 -0.7269 -0.8137 -1.4115
44315SOL    HW239807   0.587   7.352   0.448 -1.1568 -0.5628 -0.8937
44316SOL     OW39808   7.402   1.441   3.376  0.1930  0.2639 -0.1224
44316SOL    HW139809   7.352   1.451   3.295  1.7274  2.2925 -0.9374
44316SOL    HW239810   7.487   1.408   3.347  0.8577  1.2853  0.5769
44317SOL     OW39811   0.034   6.504  10.542  0.8573  0.5084  0.1784
44317SOL    HW139812   0.105   6.451  10.578 -0.8558 -1.4245  0.9188
44317SOL    HW239813   0.078   6.569  10.487  3.2087 -0.1965  1.0975
44318SOL     OW39814   5.935   9.162   1.526 -0.4188  0.3305 -0.0410
44318SOL    HW139815   5.916   9.146   1.618  0.1260  0.7178  0.1443
44318SOL    HW239816   5.849   9.167   1.484 -0.6565 -1.9889  0.0479
44319SOL     OW39817   0.158  10.792   8.752 -0.2933 -0.2016  0.1308
44319SOL    HW139818   0.210  10.811   8.674  0.4275 -0.0700  0.6320
44319SOL    HW239819   0.203  10.838   8.822 -0.2494 -1.2926  0.8380
44320SOL     OW39820   7.663   5.315   5.356  0.3694  0.4666  0.5979
44320SOL    HW139821   7.686   5.282   5.269  0.2014  1.8866 -0.0175
44320SOL    HW239822   7.603   5.250   5.392 -2.1581  1.3585 -1.6744
44321SOL     OW39823   2.714   9.370   4.636  0.2921  0.2553 -0.0884
44321SOL    HW139824   2.735   9.375   4.543 -0.3590 -0.1101 -0.2527
44321SOL    HW239825   2.784   9.316   4.674 -1.4203 -2.8313 -0.9907
44322SOL     OW39826   3.580   6.798   7.257 -0.0910 -0.9462 -0.1680
44322SOL    HW139827   3.582   6.759   7.170 -2.1132 -2.6470  0.4708
44322SOL    HW239828   3.503   6.854   7.256 -1.0018 -2.1336  0.9486
44323SOL     OW39829  12.428   4.961   5.832 -0.1761 -0.3400 -0.1805
44323SOL    HW139830  12.438   4.916   5.748 -0.3131 -2.4480  0.8542
44323SOL    HW239831  12.333   4.972   5.841 -0.0904  1.4674 -1.0247
44324SOL     OW39832  10.979  11.986   8.335 -0.6117 -0.1800  0.9160
44324SOL    HW139833  10.958  11.997   8.242  0.1644 -1.9845  0.4821
44324SOL    HW239834  11.072  11.963   8.336 -0.9301 -1.5375  2.0046
44325SOL     OW39835  10.642  10.394   2.618 -0.6060  0.2060  0.1615
44325SOL    HW139836  10.653  10.299   2.609 -1.8914  0.0558 -0.1447
44325SOL    HW239837  10.725  10.425   2.654  0.0474 -0.9550 -0.2798
44326SOL     OW39838   8.309   5.865  12.081 -0.6027  0.0034  0.2362
44326SOL    HW139839   8.371   5.909  12.138 -0.5806  0.6464 -0.2788
44326SOL    HW239840   8.359   5.842  12.003 -1.4838  2.5397 -1.1769
44327SOL     OW39841   7.322   5.354  10.680  0.0776 -0.3382 -0.2221
44327SOL    HW139842   7.247   5.304  10.711  0.9539 -1.9894 -0.6348
44327SOL    HW239843   7.398   5.306  10.712  0.9719  0.2085 -1.4206
44328SOL     OW39844   7.111   2.879  12.131 -0.1482  0.1010  0.2410
44328SOL    HW139845   7.018   2.903  12.135  0.0687  1.2214 -0.8671
44328SOL    HW239846   7.129   2.873  12.037  0.8682 -0.2617  0.4545
44329SOL     OW39847   0.022   9.682  12.342 -0.3261 -0.2712 -0.3169
44329SOL    HW139848   0.072   9.764  12.340  0.1205 -0.5065  0.5277
44329SOL    HW239849  -0.041   9.691  12.271 -0.5355  0.9634 -0.0045
44330SOL     OW39850   8.622  10.941   0.121 -0.7039  0.4854 -0.0468
44330SOL    HW139851   8.649  10.910   0.208 -0.0026 -0.6726 -0.6583
44330SOL    HW239852   8.634  10.866   0.064  0.0160  1.5939 -1.3945
44331SOL     OW39853   3.740   2.033   2.336 -0.3868 -0.3900 -0.4305
44331SOL    HW139854   3.827   2.072   2.338 -0.3185 -0.3415 -2.4773
44331SOL    HW239855   3.755   1.938   2.332 -0.3656 -0.3293 -2.2214
44332SOL     OW39856   2.356   6.592   4.010 -0.3467 -0.6419 -0.0340
44332SOL    HW139857   2.286   6.627   3.955  0.2925  0.1958 -0.3257
44332SOL    HW239858   2.429   6.653   3.998 -0.2523 -0.3319  1.8948
44333SOL     OW39859  10.829   3.976  12.214 -0.0760 -0.1167 -0.6828
44333SOL    HW139860  10.890   3.941  12.149 -1.1637 -1.1656 -1.1591
44333SOL    HW239861  10.789   4.051  12.171 -1.6313 -1.4782 -1.7121
44334SOL     OW39862   2.614   0.062   8.607  0.5445 -0.1817 -0.0933
44334SOL    HW139863   2.554   0.135   8.594  0.8396  0.0453 -0.2049
44334SOL    HW239864   2.613   0.046   8.701 -0.4222 -0.8118 -0.2026
44335SOL     OW39865   9.195   3.262   0.736 -0.1964 -0.0495  0.7795
44335SOL    HW139866   9.190   3.273   0.831  1.5999  1.1602  0.7929
44335SOL    HW239867   9.220   3.348   0.704 -1.9574 -0.1077 -0.9593
44336SOL     OW39868   2.306   7.933   6.371  0.3451  0.0370  0.1171
44336SOL    HW139869   2.262   8.015   6.352 -0.9592 -0.8981 -1.0537
44336SOL    HW239870   2.293   7.920   6.466 -0.4531  0.6100  0.0921
44337SOL     OW39871  12.470   1.408   2.552  0.2874 -0.1664 -0.1743
44337SOL    HW139872  12.388   1.371   2.521  0.3695 -0.9381  0.5017
44337SOL    HW239873  12.445   1.489   2.597  0.0467  0.3183 -1.1691
44338SOL     OW39874   5.258   0.982   4.258 -0.3107  0.0208 -0.5589
44338SOL    HW139875   5.286   0.968   4.168  2.2747  0.4475  0.1038
44338SOL    HW239876   5.174   1.028   4.250 -0.1885 -0.0217 -2.7302
44339SOL     OW39877  12.239  10.309   7.785 -0.0963 -0.1916 -0.1715
44339SOL    HW139878  12.325  10.273   7.806  0.4923  1.5210  0.5111
44339SOL    HW239879  12.177  10.252   7.830  0.7059 -1.0533 -0.1283
44340SOL     OW39880   0.840   9.058   4.348 -0.5974  0.1543  0.4704
44340SOL    HW139881   0.755   9.072   4.389  0.7412 -0.9180  3.9782
44340SOL    HW239882   0.842   8.965   4.326  0.4445 -0.4425  2.7395
44341SOL     OW39883   9.113   3.804   3.535 -0.0342 -0.3986 -0.7229
44341SOL    HW139884   9.150   3.875   3.482 -0.3976 -0.0942 -0.5694
44341SOL    HW239885   9.148   3.819   3.623  1.5630 -1.6068 -1.1071
44342SOL     OW39886  11.110   1.713  12.463 -0.3627 -0.2855 -0.1493
44342SOL    HW139887  11.168   1.708  12.539  1.1040  1.5148 -1.0671
44342SOL    HW239888  11.131   1.635  12.411 -1.2274 -1.4136  1.1510
44343SOL     OW39889  12.106  12.297   0.109  0.2469 -0.0480  0.2752
44343SOL    HW139890  12.071  12.366   0.051  1.5362 -0.4678 -1.0616
44343SOL    HW239891  12.047  12.297   0.184 -2.6490 -0.6898 -1.8105
44344SOL     OW39892   7.506   5.278  10.322 -0.0875  0.0282 -0.1018
44344SOL    HW139893   7.553   5.208  10.276  0.5586  0.7437 -0.5437
44344SOL    HW239894   7.559   5.356  10.307 -1.5807  0.9184 -0.8532
44345SOL     OW39895  11.280   2.085   3.093  0.0083  0.2648 -0.2575
44345SOL    HW139896  11.225   2.138   3.151  3.0694  2.0337  1.2829
44345SOL    HW239897  11.265   1.995   3.121 -0.7451  0.8436  1.3230
44346SOL     OW39898   7.532   5.612   6.152 -0.2641  0.0563  0.2191
44346SOL    HW139899   7.468   5.579   6.216  0.1377  1.5550  1.4692
44346SOL    HW239900   7.566   5.693   6.192  0.8813  0.4105 -1.3731
44347SOL     OW39901   8.830  11.845   6.237 -0.3113  0.2934 -0.5261
44347SOL    HW139902   8.867  11.866   6.322 -1.5718 -1.4113  0.4949
44347SOL    HW239903   8.756  11.905   6.226 -0.0407  0.6304 -0.5109
44348SOL     OW39904   1.830   2.553   0.014  0.4006 -0.1794  0.4869
44348SOL    HW139905   1.907   2.552  -0.043 -0.6943  0.4231 -1.0780
44348SOL    HW239906   1.834   2.638   0.058 -1.1237  1.5364 -2.2905
44349SOL     OW39907   5.002   4.407   8.659 -0.5155 -0.1622  0.1508
44349SOL    HW139908   5.029   4.496   8.639 -0.7241 -0.2848 -0.7209
44349SOL    HW239909   5.083   4.356   8.659 -0.6071 -0.3889 -1.6940
44350SOL     OW39910   5.073  10.404   5.235  0.2565  0.0652  0.2228
44350SOL    HW139911   5.049  10.312   5.246  0.9459 -0.0093  1.2160
44350SOL    HW239912   5.155  10.400   5.185  1.3308  0.0261  1.9277
44351SOL     OW39913   0.378   9.462   3.904  0.0716 -0.0260 -0.2321
44351SOL    HW139914   0.369   9.555   3.881  0.6569  0.4147  1.2263
44351SOL    HW239915   0.456   9.458   3.959  0.6304 -1.5506 -1.0874
44352SOL     OW39916   5.582   0.201   7.072  0.2544  0.5945  0.0422
44352SOL    HW139917   5.494   0.213   7.035 -1.1585 -2.6438  1.9146
44352SOL    HW239918   5.610   0.115   7.040  1.9680  0.7887  0.9050
44353SOL     OW39919   3.008  10.215   8.641 -0.4567  0.0765  0.0789
44353SOL    HW139920   2.951  10.158   8.693 -0.6515  0.6302  0.4844
44353SOL    HW239921   2.947  10.266   8.586 -0.2155 -1.1635 -1.4094
44354SOL     OW39922   3.777  11.157   8.644 -0.2153  0.0522  0.0636
44354SOL    HW139923   3.846  11.135   8.707  1.1438  1.4229 -0.8809
44354SOL    HW239924   3.733  11.074   8.627  2.5849 -1.3856 -0.8988
44355SOL     OW39925  11.159   8.152   6.642  0.0832  0.4434 -0.2999
44355SOL    HW139926  11.102   8.146   6.719 -1.9848  0.6529 -1.7268
44355SOL    HW239927  11.100   8.135   6.568  2.0477  0.0025 -1.8339
44356SOL     OW39928   7.054   9.880   3.314  0.1423 -0.2531  0.0833
44356SOL    HW139929   7.126   9.878   3.377  0.2336  1.3838  0.0750
44356SOL    HW239930   7.021   9.790   3.312  1.7072 -0.8814  0.6312
44357SOL     OW39931   6.898   9.361   2.963  0.1323 -0.5237  0.4025
44357SOL    HW139932   6.971   9.371   2.902 -2.0709 -0.4814 -2.4946
44357SOL    HW239933   6.853   9.445   2.961 -2.4434 -1.7714 -1.5903
44358SOL     OW39934   1.103  11.247  12.132  0.3173  0.2104 -0.2796
44358SOL    HW139935   1.042  11.311  12.096 -1.1175 -1.4460 -0.9427
44358SOL    HW239936   1.048  11.185  12.180  1.3519 -1.6428 -1.3357
44359SOL     OW39937   2.598   8.016   2.831  0.1188  0.1555 -0.2786
44359SOL    HW139938   2.550   8.093   2.801 -2.3277 -0.5268  1.5559
44359SOL    HW239939   2.626   8.038   2.920 -0.8302 -1.0932  0.3679
44360SOL     OW39940   6.031   3.411   2.320 -0.0338 -0.0580  0.6554
44360SOL    HW139941   6.121   3.396   2.290 -0.3902 -1.0979  0.0766
44360SOL    HW239942   5.994   3.323   2.330 -0.5099  0.2988  2.4175
44361SOL     OW39943  10.445   3.466   2.607  0.2906  0.1262  0.2243
44361SOL    HW139944  10.530   3.489   2.570  1.0512 -2.8277 -0.0843
44361SOL    HW239945  10.465   3.437   2.696 -0.5129  0.0578  0.3908
44362SOL     OW39946   4.376   1.688   7.805 -0.1651 -0.3502  0.2226
44362SOL    HW139947   4.472   1.683   7.812 -0.1074 -0.6971 -0.7375
44362SOL    HW239948   4.353   1.765   7.857  0.5210 -0.9294  1.4390
44363SOL     OW39949   1.123   0.664   1.597 -0.5780  0.3602  0.0677
44363SOL    HW139950   1.050   0.675   1.535  1.6055  1.2181 -2.5712
44363SOL    HW239951   1.165   0.583   1.569  0.7118  0.9942  0.0894
44364SOL     OW39952   8.062   4.579   5.616  0.0227 -0.0501  0.3920
44364SOL    HW139953   8.058   4.570   5.521 -1.0836  2.2206  0.1476
44364SOL    HW239954   7.991   4.523   5.648  1.3097 -1.9793  0.0642
44365SOL     OW39955   5.089   1.504  12.168  0.2010  0.0643 -0.3810
44365SOL    HW139956   5.072   1.597  12.152 -0.8969  0.1482  1.1683
44365SOL    HW239957   5.150   1.503  12.242 -2.0047 -0.4527  1.5261
44366SOL     OW39958   5.772  11.258   2.868  0.0491  0.3717 -0.4209
44366SOL    HW139959   5.736  11.219   2.947  0.3650 -0.3035 -0.6061
44366SOL    HW239960   5.831  11.327   2.899 -0.1489  0.3927 -0.0865
44367SOL     OW39961   2.607   5.988   7.621 -0.1946  0.0703  0.6151
44367SOL    HW139962   2.554   5.960   7.546  1.3022 -0.1288 -0.4134
44367SOL    HW239963   2.567   6.071   7.648 -0.6159  0.2960 -0.5968
44368SOL     OW39964   2.398   9.029   6.995  0.3131 -0.3787 -0.4306
44368SOL    HW139965   2.470   8.998   7.050 -0.0181  0.4951  0.5320
44368SOL    HW239966   2.430   9.019   6.906  0.5522 -2.6397 -0.1498
44369SOL     OW39967   5.621   8.555   2.377  0.2761  0.3105 -0.1877
44369SOL    HW139968   5.542   8.500   2.378  0.0819  0.5736 -0.6394
44369SOL    HW239969   5.685   8.504   2.327  0.0999  0.4840 -0.5966
44370SOL     OW39970   4.637   6.394   4.380 -0.0786 -0.2713 -0.0886
44370SOL    HW139971   4.582   6.472   4.371  0.5080  0.2676  0.8298
44370SOL    HW239972   4.588   6.337   4.440  0.9526  0.8211  1.8990
44371SOL     OW39973  11.543   2.885   6.398  0.6541  0.1073 -0.5520
44371SOL    HW139974  11.508   2.829   6.328  0.0797 -0.0947 -0.1072
44371SOL    HW239975  11.484   2.871   6.472  0.6076  1.1686 -0.3720
44372SOL     OW39976  10.023  12.393   9.257  0.3975 -0.0429  0.5638
44372SOL    HW139977  10.052  12.303   9.244  1.9018  0.5098 -0.0497
44372SOL    HW239978  10.099  12.438   9.293  0.2202  1.3689 -0.7442
44373SOL     OW39979   8.724   3.888  11.995 -0.1439 -1.0351 -0.3539
44373SOL    HW139980   8.790   3.949  12.027  0.2595 -1.9706  0.6253
44373SOL    HW239981   8.689   3.847  12.074 -2.3328 -0.1438 -0.7856
44374SOL     OW39982   6.386  11.286   4.479 -0.0940  0.2881  0.2699
44374SOL    HW139983   6.385  11.277   4.574 -2.8465 -1.7109  0.1588
44374SOL    HW239984   6.332  11.363   4.461 -2.2232 -1.1071  0.3213
44375SOL     OW39985   1.239   5.195   0.753 -0.3411  0.3506  0.0697
44375SOL    HW139986   1.307   5.261   0.756 -1.5235  1.6160  0.3618
44375SOL    HW239987   1.158   5.244   0.735 -1.0189 -1.2244 -1.5033
44376SOL     OW39988   2.365   1.562   9.255 -0.1395  0.1925 -0.3004
44376SOL    HW139989   2.372   1.656   9.243 -2.2581  0.4726  0.3243
44376SOL    HW239990   2.455   1.534   9.274  0.3526  2.2661  0.7559
44377SOL     OW39991   3.122   9.515   1.538  0.0020 -0.2022 -0.2600
44377SOL    HW139992   3.120   9.559   1.622 -0.0444 -1.7307  0.5812
44377SOL    HW239993   3.039   9.467   1.533 -0.8872  1.3810 -2.0715
44378SOL     OW39994   5.671   6.469  10.966  0.3726 -0.3425  0.1266
44378SOL    HW139995   5.614   6.465  11.043 -0.3629 -0.9202 -0.4281
44378SOL    HW239996   5.688   6.562  10.952 -2.3226  0.0644 -1.0147
44379SOL     OW39997   5.889   2.062   2.456 -0.3888 -0.3820 -0.2658
44379SOL    HW139998   5.882   2.118   2.533 -0.4935 -0.1793 -0.4206
44379SOL    HW239999   5.876   1.973   2.489 -0.5571 -0.2846 -0.0692
44380SOL     OW40000   9.995   1.198   7.683  0.0033  0.4472  0.1571
44380SOL    HW140001  10.020   1.285   7.651  1.1448  0.7534  1.7578
44380SOL    HW240002  10.072   1.166   7.728 -1.3265 -0.1349  2.1686
44381SOL     OW40003   3.060   2.112  11.701 -0.0963  0.2801 -0.1101
44381SOL    HW140004   3.097   2.142  11.785  1.6641 -1.7403 -0.0788
44381SOL    HW240005   3.025   2.192  11.661  2.4358  2.0424  0.8737
44382SOL     OW40006   6.115   0.188   3.825 -0.0017 -0.2273 -0.0255
44382SOL    HW140007   6.153   0.257   3.879 -0.9038  0.3680 -0.1399
44382SOL    HW240008   6.122   0.109   3.879 -1.4853  0.4636  1.2674
44383SOL     OW40009   0.080   5.866   3.619  0.0114  0.2821  0.2963
44383SOL    HW140010   0.006   5.858   3.680 -0.2102  0.6351  0.0812
44383SOL    HW240011   0.064   5.798   3.554  0.3715 -0.2484  0.7553
44384SOL     OW40012   7.419   2.863   5.139 -0.3417  0.0778  0.5142
44384SOL    HW140013   7.355   2.836   5.073  1.0438 -0.3940 -0.6810
44384SOL    HW240014   7.420   2.958   5.133 -2.1773  0.2409  1.8021
44385SOL     OW40015   7.690   1.493   2.251  0.2023 -0.0577 -0.3665
44385SOL    HW140016   7.756   1.494   2.321  1.3046 -0.3694 -1.3689
44385SOL    HW240017   7.648   1.408   2.258 -0.2579  0.2251  0.4155
44386SOL     OW40018   9.297  11.935  11.538 -0.1262  0.3403  0.1855
44386SOL    HW140019   9.326  11.953  11.627 -1.4490 -1.3576  1.0192
44386SOL    HW240020   9.202  11.937  11.542 -0.3276 -2.5688 -0.4531
44387SOL     OW40021   2.339   9.297  10.459  0.2144 -0.3589 -0.2972
44387SOL    HW140022   2.270   9.258  10.404 -2.2667  1.3530  1.4144
44387SOL    HW240023   2.389   9.352  10.399 -2.0976  1.0511 -1.0641
44388SOL     OW40024   9.068   0.535   0.510  0.2422 -0.7187 -0.5525
44388SOL    HW140025   8.973   0.536   0.520 -0.0874 -0.5292 -3.0636
44388SOL    HW240026   9.095   0.449   0.543 -1.0548 -1.5519 -1.5980
44389SOL     OW40027   7.901  11.409   0.953 -0.1647 -0.0426  0.1815
44389SOL    HW140028   7.825  11.376   0.999 -0.7181 -1.0573 -1.3636
44389SOL    HW240029   7.948  11.330   0.925  0.4883  0.5427 -0.4244
44390SOL     OW40030   8.416   0.760   1.189 -0.7645 -0.1510  0.1641
44390SOL    HW140031   8.437   0.704   1.264 -0.0078 -0.2501 -0.1068
44390SOL    HW240032   8.378   0.839   1.227 -2.6059 -1.1690  0.5050
44391SOL     OW40033   9.394   4.107   4.234  0.1675  0.3156  0.7295
44391SOL    HW140034   9.308   4.087   4.271 -0.3255 -0.6690 -0.8647
44391SOL    HW240035   9.448   4.033   4.258 -0.3038 -0.6018 -0.9113
44392SOL     OW40036  11.961   3.481   1.879 -0.5901  0.3061 -0.0392
44392SOL    HW140037  11.967   3.504   1.971  0.1885 -0.3960  0.1011
44392SOL    HW240038  11.969   3.564   1.832 -0.4742  0.6088  0.5132
44393SOL     OW40039  11.068   8.755  10.276 -0.4646  0.3642 -0.8335
44393SOL    HW140040  11.052   8.848  10.290 -0.7929  0.2331 -0.2984
44393SOL    HW240041  11.028   8.735  10.192 -0.4441  0.6955 -0.9220
44394SOL     OW40042   1.997   3.805   4.324  0.0714  0.3036 -0.8279
44394SOL    HW140043   2.063   3.833   4.387  2.1700 -1.0698 -2.2734
44394SOL    HW240044   1.955   3.730   4.366 -1.3319  1.7633  0.5009
44395SOL     OW40045  12.328   1.477  12.376 -0.1031  0.5163 -0.0572
44395SOL    HW140046  12.314   1.430  12.459 -2.2282  1.0127 -0.0904
44395SOL    HW240047  12.326   1.408  12.309 -1.3241  0.4309  0.0575
44396SOL     OW40048   6.678   6.686  10.826  0.8030  0.4194  0.6245
44396SOL    HW140049   6.618   6.611  10.818  2.3292 -0.7221 -0.5473
44396SOL    HW240050   6.709   6.682  10.916  0.4248 -0.0043  0.7410
44397SOL     OW40051   6.827   8.552  10.357 -0.6396 -0.0540  0.0693
44397SOL    HW140052   6.843   8.474  10.304 -1.8283  1.5451 -2.8195
44397SOL    HW240053   6.914   8.585  10.379 -0.1261 -1.1264 -0.2864
44398SOL     OW40054   1.743   0.287  11.281  0.2150  0.1855 -0.3962
44398SOL    HW140055   1.754   0.382  11.289  2.4418 -0.1597  3.3651
44398SOL    HW240056   1.653   0.271  11.307  0.3370  1.2117  0.7393
44399SOL     OW40057   4.119   7.122   0.402 -0.6055 -0.3549  0.0900
44399SOL    HW140058   4.188   7.092   0.461 -0.8840 -0.9845  0.1143
44399SOL    HW240059   4.040   7.123   0.457 -0.3622  1.9080  0.4922
44400SOL     OW40060   1.425   6.998   5.379 -0.1706 -0.6215  0.7561
44400SOL    HW140061   1.393   7.037   5.460  0.4087  1.5891 -0.0306
44400SOL    HW240062   1.432   7.070   5.317 -2.6375 -2.5097 -2.0059
44401SOL     OW40063   4.627   8.281   0.139  0.3705 -0.1210 -0.4670
44401SOL    HW140064   4.567   8.238   0.078  1.6535 -0.2482 -1.7108
44401SOL    HW240065   4.597   8.255   0.226 -1.1067 -0.5023 -1.0679
44402SOL     OW40066  11.432   3.131   1.171 -0.5003 -0.0289  0.0710
44402SOL    HW140067  11.434   3.063   1.104  0.3122 -0.6594  0.7136
44402SOL    HW240068  11.521   3.168   1.171 -0.3429 -0.3760  1.1214
44403SOL     OW40069   8.239   8.076   3.416 -0.1754  0.1449 -0.6701
44403SOL    HW140070   8.292   8.133   3.472 -0.6178 -0.2781  0.1823
44403SOL    HW240071   8.256   8.109   3.327 -0.0406  1.2909 -0.2396
44404SOL     OW40072   9.040   7.921  10.025  0.1413  0.2555  0.2030
44404SOL    HW140073   9.101   7.964  10.085  1.2395 -0.5234 -0.3300
44404SOL    HW240074   9.073   7.941   9.938  1.5169 -2.6533 -0.0930
44405SOL     OW40075   5.174   8.567   7.067 -0.1579 -0.0203  0.0907
44405SOL    HW140076   5.236   8.640   7.078  0.1914 -0.3804  0.5569
44405SOL    HW240077   5.221   8.491   7.100 -0.0476 -0.7078 -1.5724
44406SOL     OW40078  10.147   5.219  10.854 -0.2224  0.1754  0.5493
44406SOL    HW140079  10.072   5.179  10.899  1.1028 -0.6788  2.1063
44406SOL    HW240080  10.159   5.303  10.899 -0.3076  0.3684  0.2151
44407SOL     OW40081   2.933   1.075   0.426 -0.3703  0.6001  0.1493
44407SOL    HW140082   2.861   1.015   0.408 -0.4664  1.0727 -1.1792
44407SOL    HW240083   2.891   1.157   0.452 -0.3070  0.7490 -0.2108
44408SOL     OW40084   8.631   6.252   7.308 -0.3664  0.1901  0.0587
44408SOL    HW140085   8.605   6.343   7.304 -0.0326  0.4048  1.8138
44408SOL    HW240086   8.566   6.205   7.256  0.0700  1.5187 -1.7737
44409SOL     OW40087   1.801  10.572   1.291  0.2806 -0.1336  0.2912
44409SOL    HW140088   1.779  10.604   1.378  0.9160  1.9112 -0.2317
44409SOL    HW240089   1.838  10.485   1.305 -0.1243 -0.0569  1.9856
44410SOL     OW40090  11.947   0.322   2.616 -0.1007 -0.0589  0.3090
44410SOL    HW140091  11.944   0.415   2.637  1.5826  0.0408  0.2454
44410SOL    HW240092  11.903   0.314   2.531 -0.3935  0.6432  0.3943
44411SOL     OW40093  12.143  11.638   4.768  0.0272  0.7001 -0.0243
44411SOL    HW140094  12.102  11.586   4.838  0.1441  0.6261 -0.0102
44411SOL    HW240095  12.234  11.647   4.796  0.4591 -0.6571 -0.9119
44412SOL     OW40096   6.177   2.883   9.284 -0.0992 -0.0600  0.0236
44412SOL    HW140097   6.171   2.953   9.218 -1.7512  0.2838  0.4768
44412SOL    HW240098   6.265   2.848   9.274 -0.2245  0.1081 -2.2396
44413SOL     OW40099   8.419   9.813   8.628  0.1700  0.5149  0.4671
44413SOL    HW140100   8.484   9.785   8.693  0.5042  0.8192  0.2731
44413SOL    HW240101   8.380   9.892   8.667 -0.4010  0.0793  0.7827
44414SOL     OW40102   8.926   7.658  10.485  0.2356  0.1213  0.4661
44414SOL    HW140103   8.831   7.656  10.496  0.0176 -0.4483 -1.2763
44414SOL    HW240104   8.956   7.576  10.525 -0.1420 -0.2502  0.0020
44415SOL     OW40105   0.021   6.696   9.021  0.4146  0.1107 -0.0141
44415SOL    HW140106   0.096   6.718   9.076  1.0669 -0.4172 -0.6677
44415SOL    HW240107   0.022   6.600   9.017 -1.4079 -0.0513  1.4725
44416SOL     OW40108   6.093   3.455   8.593 -0.0348 -0.2028 -0.1893
44416SOL    HW140109   6.090   3.507   8.673  0.2978 -0.0279 -0.2866
44416SOL    HW240110   6.185   3.428   8.585  0.0095  0.0705 -0.6862
44417SOL     OW40111   9.578   0.464   9.551 -0.1670 -0.7190  0.1568
44417SOL    HW140112   9.631   0.542   9.532 -3.3365  1.2143 -1.8316
44417SOL    HW240113   9.533   0.485   9.632 -1.3580 -0.2063 -0.6107
44418SOL     OW40114   6.184  10.537  11.641  0.1778  0.5505  0.2148
44418SOL    HW140115   6.255  10.594  11.610  0.5722  0.2245  0.4978
44418SOL    HW240116   6.134  10.592  11.702  1.2482  0.2683  1.3999
44419SOL     OW40117   2.439   4.798   7.291 -0.0600 -0.1949  0.2526
44419SOL    HW140118   2.444   4.854   7.214  0.0904 -1.8549 -1.0016
44419SOL    HW240119   2.359   4.746   7.278 -0.7452  0.3763  1.8749
44420SOL     OW40120  12.430   5.543   6.242  0.0981  0.0074 -0.8288
44420SOL    HW140121  12.440   5.554   6.147 -0.2147  0.9358 -0.7690
44420SOL    HW240122  12.335   5.535   6.255  0.2180 -1.5758 -0.7149
44421SOL     OW40123   5.879   4.715   3.275 -0.1746 -0.7463 -0.0050
44421SOL    HW140124   5.860   4.782   3.209 -1.5665 -0.1463  0.9493
44421SOL    HW240125   5.850   4.633   3.235  2.0944 -0.9451 -1.4264
44422SOL     OW40126   1.713   4.234   7.086 -0.5329 -0.8213  0.1917
44422SOL    HW140127   1.620   4.217   7.066 -0.3539 -0.4810 -1.0612
44422SOL    HW240128   1.748   4.271   7.005  0.7683 -1.1817  0.5603
44423SOL     OW40129  11.937   1.783   1.892 -0.0495  0.8036  0.3740
44423SOL    HW140130  11.918   1.765   1.800  0.7632  1.3694  0.0789
44423SOL    HW240131  11.993   1.861   1.890  0.6949  0.3192  1.2786
44424SOL     OW40132  10.285   0.896   5.580 -0.5660 -0.2282  0.1235
44424SOL    HW140133  10.192   0.909   5.562 -0.6415 -2.2685 -1.4488
44424SOL    HW240134  10.330   0.950   5.514 -0.5676  1.5127  1.4941
44425SOL     OW40135  11.727   2.731  12.113  0.0779 -0.2706  0.1529
44425SOL    HW140136  11.700   2.817  12.146 -0.5918 -0.1325 -0.7097
44425SOL    HW240137  11.655   2.704  12.056  0.3944 -1.3018  0.2187
44426SOL     OW40138   6.566  12.448   3.930 -0.3749  0.2098  0.3346
44426SOL    HW140139   6.522  12.365   3.915  0.3270 -0.1277  0.0542
44426SOL    HW240140   6.641  12.446   3.869  0.0572  0.7213  0.8387
44427SOL     OW40141   1.744   6.738   5.045  0.0028  0.1663  0.0641
44427SOL    HW140142   1.665   6.722   4.993 -0.9147 -1.3312  1.7741
44427SOL    HW240143   1.716   6.722   5.136  2.9452 -3.5030  0.5473
44428SOL     OW40144  11.537   9.410   1.587  0.0436 -0.3204 -0.4855
44428SOL    HW140145  11.549   9.371   1.673 -0.2922 -1.3011 -0.8734
44428SOL    HW240146  11.550   9.338   1.526 -1.5138 -0.0576 -1.1810
44429SOL     OW40147  12.342   6.328   2.955  0.0836  0.0225 -0.0893
44429SOL    HW140148  12.430   6.358   2.933  0.1666  0.9730  1.3774
44429SOL    HW240149  12.296   6.325   2.871  1.0552  1.0537 -0.6909
44430SOL     OW40150   2.469   9.168   4.638 -0.1656  0.0923 -0.1392
44430SOL    HW140151   2.469   9.151   4.544  0.6249 -1.6231  0.1248
44430SOL    HW240152   2.448   9.084   4.678 -1.5358  1.0222  1.2252
44431SOL     OW40153   5.347   6.126   0.061 -0.1271 -0.0678  0.3945
44431SOL    HW140154   5.304   6.083  -0.014  0.3338  1.1272 -0.5883
44431SOL    HW240155   5.298   6.207   0.073 -0.3379 -0.3478  1.5633
44432SOL     OW40156   8.441   6.878   8.639 -0.4120 -0.1335  0.5221
44432SOL    HW140157   8.511   6.813   8.636 -1.3517 -1.1347 -0.7405
44432SOL    HW240158   8.441   6.909   8.730  1.2720 -0.5239  0.6910
44433SOL     OW40159   3.447   9.748   6.379 -0.1904 -0.4615 -0.2507
44433SOL    HW140160   3.371   9.725   6.432 -0.7022 -1.3840 -1.3539
44433SOL    HW240161   3.431   9.839   6.352 -0.5412 -0.4146  0.0984
44434SOL     OW40162   7.405   5.674   8.663 -0.3795 -0.4129  0.4218
44434SOL    HW140163   7.448   5.747   8.707 -0.7511 -0.5304  0.9904
44434SOL    HW240164   7.363   5.624   8.733 -1.6299 -0.1796 -0.1335
44435SOL     OW40165   5.674   9.987   3.931 -0.1062  0.1691  0.6935
44435SOL    HW140166   5.621   9.918   3.891  1.4812 -0.0646 -1.1167
44435SOL    HW240167   5.638   9.996   4.019 -1.0748 -2.2029  0.6199
44436SOL     OW40168  10.645   2.822   7.187 -0.1773 -0.2761  0.1220
44436SOL    HW140169  10.581   2.832   7.257 -0.5681 -2.9927  0.2568
44436SOL    HW240170  10.634   2.732   7.157  1.3069  0.2198 -2.1470
44437SOL     OW40171   8.890   6.632   2.652 -0.1697 -0.4343  0.7558
44437SOL    HW140172   8.870   6.573   2.725  1.6995 -0.2333  1.4676
44437SOL    HW240173   8.951   6.583   2.598 -1.0198 -0.3150 -0.3405
44438SOL     OW40174   5.301   8.944   8.895  0.2849 -0.1604  0.8777
44438SOL    HW140175   5.270   8.877   8.834  1.0298  1.1965 -1.0566
44438SOL    HW240176   5.266   8.916   8.980  1.4172 -3.5445  0.3810
44439SOL     OW40177   4.174   2.657  11.874  0.5696  0.3889  0.5051
44439SOL    HW140178   4.123   2.738  11.876  0.1580  0.1248  2.2818
44439SOL    HW240179   4.162   2.623  11.785  0.8168  2.2952 -0.2961
44440SOL     OW40180   3.449   8.995   1.691 -0.4139  0.2497 -0.1625
44440SOL    HW140181   3.398   9.020   1.768  0.2802  1.7839 -0.1798
44440SOL    HW240182   3.539   8.989   1.722 -0.4166 -1.3720 -0.3801
44441SOL     OW40183   8.334   9.126  11.034 -0.1449  0.5783  0.2964
44441SOL    HW140184   8.368   9.039  11.014  0.5422  0.4000  2.0715
44441SOL    HW240185   8.409   9.184  11.025 -0.8062  1.2301 -1.8778
44442SOL     OW40186  12.377   4.140   1.799  0.4329 -0.0980  0.1621
44442SOL    HW140187  12.423   4.114   1.879  0.6933  0.3463  0.1659
44442SOL    HW240188  12.445   4.138   1.731  0.4344  0.4261  0.1409
44443SOL     OW40189   0.899  10.454   9.601  0.6055 -0.1974 -0.3185
44443SOL    HW140190   0.904  10.401   9.521  0.9800 -0.9278  0.1767
44443SOL    HW240191   0.828  10.413   9.652  0.0467  0.5525 -0.4718
44444SOL     OW40192   4.352   5.239   3.295 -0.2684 -0.0874  0.4327
44444SOL    HW140193   4.292   5.205   3.229  1.5667 -3.3129  0.2499
44444SOL    HW240194   4.393   5.315   3.254 -1.2995 -0.2624 -0.9655
44445SOL     OW40195   1.213  10.690  11.222  0.2460  0.3039  0.1445
44445SOL    HW140196   1.179  10.779  11.210  0.5796  0.2213 -1.7961
44445SOL    HW240197   1.204  10.650  11.135  0.2558 -1.5103  0.9572
44446SOL     OW40198   1.431   3.318   7.126  0.1069  0.0910 -0.3727
44446SOL    HW140199   1.516   3.318   7.082 -0.3540  2.6289 -1.4378
44446SOL    HW240200   1.386   3.241   7.092  1.5400 -0.6369 -0.6866
44447SOL     OW40201  10.005   6.930   1.295  0.2226  0.0729 -0.0841
44447SOL    HW140202  10.059   6.910   1.372 -2.1189 -1.2627  1.3515
44447SOL    HW240203   9.990   6.845   1.254 -2.3227  0.0305  0.7337
44448SOL     OW40204   4.615   4.162  11.144  0.2653  0.5025 -0.0592
44448SOL    HW140205   4.681   4.092  11.141 -1.2186 -0.9275 -1.4850
44448SOL    HW240206   4.533   4.116  11.163 -0.1743  2.4303  3.4151
44449SOL     OW40207   7.088   3.598   8.236 -0.1033  0.5034 -0.2859
44449SOL    HW140208   7.065   3.685   8.268  0.6275  0.8568 -0.6845
44449SOL    HW240209   7.027   3.583   8.163 -2.1938 -0.5674  1.5579
44450SOL     OW40210  10.373   6.927   1.421  0.2850  0.4102  0.0994
44450SOL    HW140211  10.360   6.927   1.326 -0.6542  0.6125  0.2172
44450SOL    HW240212  10.438   6.858   1.437 -0.9925 -0.9746 -0.5041
44451SOL     OW40213   7.843   9.666   9.836  0.3113  0.5588  0.7312
44451SOL    HW140214   7.787   9.725   9.785 -2.0147 -1.7470  0.4297
44451SOL    HW240215   7.932   9.690   9.810 -0.5230  3.5115  0.2286
44452SOL     OW40216   6.399   6.375   9.160 -0.3530  0.7050 -0.3015
44452SOL    HW140217   6.364   6.304   9.213  2.2829 -0.8925 -0.5286
44452SOL    HW240218   6.433   6.439   9.224 -1.7188  1.2738 -0.1092
44453SOL     OW40219   6.021   1.122   2.622 -0.5247  0.7687 -0.0723
44453SOL    HW140220   5.931   1.104   2.597 -0.0034 -0.1372 -1.3966
44453SOL    HW240221   6.026   1.094   2.714 -0.9648 -1.6417 -0.6972
44454SOL     OW40222   1.136   3.901   1.951 -0.4221  0.3439  0.5101
44454SOL    HW140223   1.164   3.921   2.040  1.5935 -0.5845  0.1306
44454SOL    HW240224   1.154   3.808   1.940 -0.8446  0.3955 -0.7964
44455SOL     OW40225   9.753   7.564   6.148  0.1256  0.0623  0.4804
44455SOL    HW140226   9.802   7.645   6.166  0.3645 -0.2211  1.1272
44455SOL    HW240227   9.754   7.516   6.231  0.5716 -0.9197 -0.0789
44456SOL     OW40228   2.108   4.148   5.248 -0.0509 -0.1162 -0.2442
44456SOL    HW140229   2.146   4.210   5.185  0.3601  1.6172  1.6227
44456SOL    HW240230   2.182   4.122   5.303 -0.9666  0.9491  1.5494
44457SOL     OW40231   2.374  10.007   0.564 -0.3182  0.0473  0.0670
44457SOL    HW140232   2.376   9.994   0.659 -1.7363  0.2411  0.1328
44457SOL    HW240233   2.283   9.991   0.539 -0.3153  1.5674 -1.0278
44458SOL     OW40234   5.671   0.114   3.958 -0.5586  0.3580 -0.1934
44458SOL    HW140235   5.732   0.187   3.964  0.5664 -0.6317  1.1438
44458SOL    HW240236   5.721   0.046   3.911 -1.0405 -0.0652 -0.0995
44459SOL     OW40237  12.250  12.062   9.359  0.1446 -0.4276 -0.1677
44459SOL    HW140238  12.275  11.970   9.359 -0.3877 -0.6185 -2.1644
44459SOL    HW240239  12.160  12.063   9.390  0.5463 -0.4158  1.0494
44460SOL     OW40240   9.619   5.183   9.065  0.8702  0.3956 -0.1407
44460SOL    HW140241   9.602   5.202   9.157  0.6204 -2.0809  0.3719
44460SOL    HW240242   9.651   5.093   9.063 -2.1084 -0.8114 -2.6976
44461SOL     OW40243   1.011   9.617   2.155  0.0235 -0.1291  0.1642
44461SOL    HW140244   1.099   9.610   2.192 -0.0393  0.4271  0.4365
44461SOL    HW240245   1.008   9.705   2.117 -1.0853  0.6948  1.9862
44462SOL     OW40246  11.974  10.513  11.613 -0.9906  0.0042  0.3018
44462SOL    HW140247  12.053  10.552  11.650  0.3426 -1.3062 -1.0153
44462SOL    HW240248  11.973  10.542  11.521 -0.2381 -2.4717 -0.5784
44463SOL     OW40249   9.396  12.461   6.172  0.0159 -0.4392 -0.4922
44463SOL    HW140250   9.460  12.395   6.198  0.2051 -2.1897 -4.5710
44463SOL    HW240251   9.448  12.541   6.161  0.2922 -0.2389  1.8717
44464SOL     OW40252   8.703   8.782   8.443  0.5152  0.3126  0.3186
44464SOL    HW140253   8.637   8.722   8.477 -0.0129  0.6540 -0.0807
44464SOL    HW240254   8.754   8.729   8.381 -0.1613  0.3507 -0.2869
44465SOL     OW40255   6.304   4.291   7.524  0.1536  0.1613  0.0333
44465SOL    HW140256   6.358   4.241   7.462 -0.4923 -0.3131 -0.1644
44465SOL    HW240257   6.321   4.250   7.609 -0.1057 -0.1665 -0.0723
44466SOL     OW40258  10.448  12.465   4.010 -0.2489 -0.1968 -0.5227
44466SOL    HW140259  10.521  12.501   4.060 -1.5344  2.2625 -0.2788
44466SOL    HW240260  10.432  12.530   3.941 -0.1088 -2.3129 -2.7096
44467SOL     OW40261  11.424   0.745   0.462  0.6484  0.6953 -0.1602
44467SOL    HW140262  11.355   0.684   0.437 -0.7575  1.3448  1.8667
44467SOL    HW240263  11.423   0.812   0.393 -0.1447  0.2420 -0.6052
44468SOL     OW40264   7.072  11.488  11.411 -0.0851  0.0754 -0.1090
44468SOL    HW140265   7.117  11.452  11.487 -1.6561  2.0598  1.8968
44468SOL    HW240266   7.130  11.558  11.380  0.6081 -0.8074 -0.8621
44469SOL     OW40267   4.144   0.439  10.211  0.5737  0.2613 -0.5962
44469SOL    HW140268   4.102   0.516  10.250  1.8574  0.0898  1.2586
44469SOL    HW240269   4.075   0.398  10.160 -0.8529  1.2834  0.4193
44470SOL     OW40270   3.907  11.858   8.055 -0.3211  0.4796  0.6713
44470SOL    HW140271   3.947  11.838   7.971 -1.8666 -1.6237  0.3500
44470SOL    HW240272   3.861  11.941   8.041 -1.9760 -0.6697 -1.1286
44471SOL     OW40273   9.674   7.040   5.146 -0.0051  0.0805  0.2834
44471SOL    HW140274   9.581   7.056   5.133 -0.5341 -1.4215  1.8607
44471SOL    HW240275   9.678   6.971   5.213  2.2262 -0.2659 -0.1164
44472SOL     OW40276  10.444   9.015   8.384  0.5155 -0.1112 -0.6418
44472SOL    HW140277  10.358   9.042   8.416 -0.0655  0.3914 -2.4990
44472SOL    HW240278  10.441   8.919   8.384  2.0189 -0.4855  4.4699
44473SOL     OW40279   9.773   0.774  10.008 -0.3396 -0.4501 -0.0761
44473SOL    HW140280   9.826   0.813  10.077  0.7073 -1.6246 -0.1776
44473SOL    HW240281   9.768   0.842   9.940 -1.8970  0.9474  1.3509
44474SOL     OW40282   6.820   5.828   3.283 -0.1454 -0.2281 -0.8420
44474SOL    HW140283   6.893   5.885   3.260  0.0794 -1.0365 -2.2420
44474SOL    HW240284   6.751   5.888   3.311  1.0192  0.5497  0.5428
44475SOL     OW40285   8.871   6.376   6.680 -0.0087 -0.5028  0.0932
44475SOL    HW140286   8.813   6.350   6.608 -0.0764 -0.7255  0.2250
44475SOL    HW240287   8.884   6.295   6.730 -1.6563  0.0345  1.5300
44476SOL     OW40288   9.873  10.532   4.678 -0.1618  0.0536 -0.6496
44476SOL    HW140289   9.945  10.540   4.740  0.9746  1.3863 -2.0710
44476SOL    HW240290   9.804  10.587   4.715  0.1416  0.0654 -0.0865
44477SOL     OW40291   1.806  10.496   0.088 -0.1509 -0.3377  0.2049
44477SOL    HW140292   1.890  10.467   0.053 -0.2424 -0.0055 -0.3022
44477SOL    HW240293   1.828  10.556   0.159  0.0368 -0.0572 -0.0926
44478SOL     OW40294   1.684   2.135   1.436 -0.5515  0.2677  0.3664
44478SOL    HW140295   1.667   2.108   1.526  0.6549 -1.6375  0.0713
44478SOL    HW240296   1.626   2.211   1.422 -1.6653 -0.1656  2.3208
44479SOL     OW40297   8.359  11.593   9.547 -0.3573 -0.0515 -0.5502
44479SOL    HW140298   8.307  11.604   9.627 -0.9879  0.7941 -1.0606
44479SOL    HW240299   8.315  11.523   9.500 -1.0044  0.5868 -0.9292
44480SOL     OW40300   8.653   8.558  10.801  0.3675 -0.0676  0.2565
44480SOL    HW140301   8.668   8.478  10.852 -0.2223  1.1828  2.5194
44480SOL    HW240302   8.660   8.629  10.865 -0.7643  1.5858 -1.3536
44481SOL     OW40303   5.216   4.356  11.681  0.0182  0.1429  0.0533
44481SOL    HW140304   5.222   4.269  11.641 -0.6865  0.0512  0.1240
44481SOL    HW240305   5.270   4.350  11.760  1.1161  0.2115 -0.6808
44482SOL     OW40306   6.972   2.399   4.195 -0.2252 -0.1541  0.3289
44482SOL    HW140307   7.010   2.452   4.126  1.4706  2.0976  2.7891
44482SOL    HW240308   6.896   2.357   4.154  0.5908  1.1239 -2.7855
44483SOL     OW40309   7.941  12.445   8.725 -0.4127  0.1482  0.4902
44483SOL    HW140310   7.981  12.413   8.645 -0.2927 -1.3800  1.1334
44483SOL    HW240311   8.014  12.455   8.787 -0.5523  0.9532  0.5388
44484SOL     OW40312  11.028   4.491   5.328  0.7570 -0.0772  0.2379
44484SOL    HW140313  10.949   4.482   5.381  0.5861 -0.4706 -0.0780
44484SOL    HW240314  11.048   4.402   5.299  0.3591  0.2324 -1.0624
44485SOL     OW40315   5.336  12.349  11.898  0.8821 -0.4468 -0.1174
44485SOL    HW140316   5.370  12.263  11.874 -2.0238 -2.3456  1.9212
44485SOL    HW240317   5.347  12.354  11.992 -1.5204  0.0879  0.2145
44486SOL     OW40318  10.406  11.725  10.357  0.2388 -0.6169 -0.1523
44486SOL    HW140319  10.495  11.707  10.386 -0.3899 -0.6493  1.8978
44486SOL    HW240320  10.401  11.821  10.352  1.3345 -0.6007 -3.6708
44487SOL     OW40321   2.252   5.059   9.697 -0.3579 -0.1554  0.2207
44487SOL    HW140322   2.289   5.038   9.783  0.5626 -1.2074 -0.3972
44487SOL    HW240323   2.193   4.986   9.678 -1.0724  0.4115  0.2463
44488SOL     OW40324   9.467   6.235  10.079 -0.4971 -0.3994 -0.3916
44488SOL    HW140325   9.398   6.233  10.013 -1.6207  0.5692  0.6989
44488SOL    HW240326   9.422   6.221  10.162  0.7435 -0.5962  0.2762
44489SOL     OW40327   7.950  10.959   9.769 -0.2583  0.0805  0.2249
44489SOL    HW140328   7.987  11.021   9.831 -0.6167  1.7932 -1.1907
44489SOL    HW240329   7.867  10.933   9.807 -0.4889  1.1306  0.4718
44490SOL     OW40330   7.641  12.173  11.118  0.5913 -0.0327 -0.6671
44490SOL    HW140331   7.572  12.237  11.104 -0.5176 -1.1879 -0.6094
44490SOL    HW240332   7.720  12.215  11.085 -0.3512  0.8560 -1.8453
44491SOL     OW40333   2.611   2.577   3.360 -0.1153 -0.2698  0.3600
44491SOL    HW140334   2.516   2.561   3.356 -0.4105  0.7567  2.0909
44491SOL    HW240335   2.619   2.672   3.363  1.1175 -0.2664 -1.4721
44492SOL     OW40336   8.854   3.251   1.698  0.0504  0.1483  0.8218
44492SOL    HW140337   8.773   3.245   1.647  0.5925 -0.2979 -0.0138
44492SOL    HW240338   8.911   3.307   1.645  1.0076 -1.1758  0.3864
44493SOL     OW40339   9.073  12.433   3.459  0.2313  0.3721  0.1948
44493SOL    HW140340   9.002  12.381   3.499  0.5859 -0.4290 -0.1988
44493SOL    HW240341   9.040  12.523   3.459 -0.1339  0.2582  1.4886
44494SOL     OW40342  10.755  11.486   2.891 -0.4596 -0.0058 -1.0258
44494SOL    HW140343  10.818  11.557   2.908 -0.9005  0.0677  0.4313
44494SOL    HW240344  10.737  11.449   2.978 -2.3592 -0.0770 -1.4086
44495SOL     OW40345  11.421   6.451   0.677 -0.3167  0.1611 -0.3397
44495SOL    HW140346  11.466   6.535   0.666 -0.5927  0.0896 -2.3597
44495SOL    HW240347  11.486   6.386   0.651 -0.2365 -0.2539  0.8420
44496SOL     OW40348   5.954   8.655   4.905 -0.0199  0.2049  0.4025
44496SOL    HW140349   5.916   8.570   4.886  1.7956 -0.7797  0.9415
44496SOL    HW240350   5.957   8.700   4.820  1.1062 -1.1892 -0.3343
44497SOL     OW40351   6.461   6.689   8.894 -0.6238  0.0304  0.5038
44497SOL    HW140352   6.541   6.640   8.874 -2.6428 -3.1570 -0.4638
44497SOL    HW240353   6.463   6.699   8.989  1.0887  0.4043  0.4637
44498SOL     OW40354   0.027   5.439   9.566 -0.3644  0.0670  0.0750
44498SOL    HW140355   0.031   5.343   9.563 -0.7905  0.0580 -0.2287
44498SOL    HW240356  -0.066   5.459   9.571 -0.2893  0.4755 -0.1535
44499SOL     OW40357   2.321   0.505   8.780 -0.1390 -0.2643 -0.3214
44499SOL    HW140358   2.314   0.558   8.859 -1.5085 -0.1095 -0.5188
44499SOL    HW240359   2.383   0.553   8.725  1.1795 -0.6092  0.8126
44500SOL     OW40360   3.940   7.772   0.200  0.2872  0.0969 -0.2910
44500SOL    HW140361   3.856   7.730   0.213  0.2048  0.8720  2.1732
44500SOL    HW240362   4.003   7.713   0.241  0.3695  1.4861  1.6878
44501SOL     OW40363   6.065   5.110   7.990 -0.1327  0.8112  0.1568
44501SOL    HW140364   6.109   5.028   8.011 -1.2139  0.2973  0.4866
44501SOL    HW240365   6.136   5.172   7.972  0.7047 -0.0486  0.4451
44502SOL     OW40366   9.787   7.774   7.452  0.5300 -0.1412  0.0898
44502SOL    HW140367   9.787   7.729   7.367  0.9597  0.0235  0.0002
44502SOL    HW240368   9.761   7.706   7.515  0.5322 -0.3465 -0.1276
44503SOL     OW40369  12.477   3.658  12.132 -0.3932  0.1625  0.2977
44503SOL    HW140370  12.463   3.753  12.135 -0.6034  0.2962 -2.4059
44503SOL    HW240371  12.412   3.626  12.070  0.4548 -1.5982  0.2540
44504SOL     OW40372   3.498   0.908  11.815 -0.2692  0.6540  0.1378
44504SOL    HW140373   3.464   0.948  11.735 -2.0558  0.8851  0.9689
44504SOL    HW240374   3.577   0.958  11.836  1.1106 -0.3646 -2.2506
44505SOL     OW40375   3.628   7.715   5.412  0.2309 -0.0045 -0.2301
44505SOL    HW140376   3.592   7.631   5.383  0.1720  0.1526 -0.6210
44505SOL    HW240377   3.720   7.697   5.429 -0.3925 -0.9199  2.8049
44506SOL     OW40378   8.123   1.273   8.462 -0.4309  0.1295 -0.1860
44506SOL    HW140379   8.181   1.231   8.525 -0.4559  0.0220 -0.2347
44506SOL    HW240380   8.161   1.252   8.377 -0.7263 -0.2264 -0.2342
44507SOL     OW40381   0.535   6.447   1.593 -0.4994  0.5459  0.5364
44507SOL    HW140382   0.451   6.430   1.552 -0.7515 -1.3493  1.7196
44507SOL    HW240383   0.584   6.496   1.528 -2.6726  2.1966  0.0068
44508SOL     OW40384  11.493   5.252   3.740  0.0593 -0.2843 -0.0923
44508SOL    HW140385  11.588   5.253   3.739  0.0735 -1.1752 -0.4218
44508SOL    HW240386  11.467   5.327   3.687  0.5882 -0.5921 -0.7982
44509SOL     OW40387   4.712   1.310   2.066 -0.8506 -0.2188  0.0367
44509SOL    HW140388   4.775   1.251   2.107  0.5509  0.6763 -0.7458
44509SOL    HW240389   4.752   1.397   2.072 -0.7316  0.0248 -2.8245
44510SOL     OW40390   3.891   3.789   6.686 -0.2852  0.3473  0.3283
44510SOL    HW140391   3.903   3.694   6.688  1.7698  0.5605 -0.4781
44510SOL    HW240392   3.941   3.821   6.760  2.2974  1.0605 -1.6063
44511SOL     OW40393   3.709   6.279   1.952  0.3658 -0.1047  0.1071
44511SOL    HW140394   3.785   6.259   1.899  0.8291 -0.0101  0.7211
44511SOL    HW240395   3.742   6.340   2.018 -0.1486 -0.3825  0.6276
44512SOL     OW40396   0.848   9.414  10.279  0.2992 -0.1749  0.5770
44512SOL    HW140397   0.762   9.374  10.264 -0.9054  2.3575  0.1809
44512SOL    HW240398   0.859   9.411  10.374 -0.5902  0.0927  0.7005
44513SOL     OW40399   8.529  11.304   6.618  0.2344 -0.0792 -0.2874
44513SOL    HW140400   8.451  11.256   6.589  1.2447 -1.2255 -1.2605
44513SOL    HW240401   8.564  11.252   6.690  0.4527  0.0732 -0.2819
44514SOL     OW40402   9.116   7.494  10.035  0.0436  0.5432  0.2589
44514SOL    HW140403   9.023   7.492  10.058 -0.0930  1.4735 -0.1582
44514SOL    HW240404   9.132   7.412   9.989 -0.3626 -0.0066  1.0704
44515SOL     OW40405   2.918   7.910   8.213 -0.4332  0.3729  0.3668
44515SOL    HW140406   2.900   8.004   8.209  2.1611  0.8870 -2.1234
44515SOL    HW240407   2.947   7.895   8.303  1.6659  2.5453  0.1465
44516SOL     OW40408   9.791   4.422  10.885 -0.0823 -0.3450  0.2053
44516SOL    HW140409   9.794   4.334  10.924 -0.2373  0.0555  1.1216
44516SOL    HW240410   9.699   4.447  10.889 -0.0895 -0.2581 -0.3561
44517SOL     OW40411   4.846   8.631   7.915 -0.6310  0.1294  0.2414
44517SOL    HW140412   4.933   8.670   7.906 -0.9911  0.4991 -2.6408
44517SOL    HW240413   4.814   8.662   7.999  1.1596  1.8066  0.3746
44518SOL     OW40414   6.215   1.407   3.296 -0.3716  0.3072  0.1697
44518SOL    HW140415   6.186   1.386   3.208 -0.4429  1.2573 -0.0369
44518SOL    HW240416   6.140   1.386   3.352 -0.3735 -0.1620 -0.0032
44519SOL     OW40417   1.107   3.504  10.446  0.4668  0.0169 -0.4609
44519SOL    HW140418   1.066   3.432  10.494 -0.0490  0.1099 -0.7481
44519SOL    HW240419   1.047   3.521  10.373  1.2026 -0.0671 -1.0898
44520SOL     OW40420   9.318   9.073   8.468  0.0798  0.2282 -0.4071
44520SOL    HW140421   9.365   9.147   8.431  0.8045  0.4917  0.9640
44520SOL    HW240422   9.294   9.102   8.556 -0.8016 -0.6833 -0.3383
44521SOL     OW40423   0.857   9.381   5.759 -0.0620  0.1257  0.4666
44521SOL    HW140424   0.854   9.453   5.821 -2.6804  1.5766 -1.1512
44521SOL    HW240425   0.783   9.396   5.701  1.0551 -2.2407 -1.8015
44522SOL     OW40426  10.149   6.284   8.480 -0.0880  0.0802  0.1576
44522SOL    HW140427  10.063   6.317   8.455  0.6280  2.6008  0.6966
44522SOL    HW240428  10.207   6.360   8.474  1.8272 -1.1942  1.1760
44523SOL     OW40429   5.864   2.100   7.752  0.2166  0.1056  0.2093
44523SOL    HW140430   5.821   2.050   7.684 -0.1509  0.5130  0.1392
44523SOL    HW240431   5.852   2.048   7.832  0.7490 -0.4273 -0.0502
44524SOL     OW40432   2.391  11.010   3.149  0.8145  0.1649  0.6864
44524SOL    HW140433   2.460  11.045   3.206 -0.8052  0.6490  2.4286
44524SOL    HW240434   2.321  11.075   3.154 -0.5243 -1.2263  0.4894
44525SOL     OW40435   6.606   3.225  10.870 -0.1909  0.3165 -0.9361
44525SOL    HW140436   6.544   3.156  10.847  1.0142 -1.3429  0.5191
44525SOL    HW240437   6.676   3.217  10.805  0.1876 -0.1990 -0.4778
44526SOL     OW40438   4.883   1.092   7.623 -0.1210 -0.2040  0.0575
44526SOL    HW140439   4.887   1.004   7.661 -3.6859  0.3321  2.1865
44526SOL    HW240440   4.845   1.079   7.536 -0.4662 -0.8215  0.2909
44527SOL     OW40441   5.537  10.719  10.115 -0.2203  0.2482 -0.0347
44527SOL    HW140442   5.586  10.712  10.197  0.1231  0.5617 -0.2065
44527SOL    HW240443   5.493  10.635  10.105 -0.7957  0.4458  0.8054
44528SOL     OW40444   4.361  10.318   6.778  0.3889 -0.3773 -0.5475
44528SOL    HW140445   4.405  10.238   6.749  2.9946  0.0082  1.9351
44528SOL    HW240446   4.430  10.369   6.820 -1.5848  2.3674 -0.4050
44529SOL     OW40447  12.314   4.168   6.067  0.4196  0.4218  0.0877
44529SOL    HW140448  12.298   4.262   6.062  1.4649  0.7814  2.3013
44529SOL    HW240449  12.349   4.154   6.155  1.1054 -1.9175 -0.4827
44530SOL     OW40450  10.715  10.427   7.757  1.0599 -0.5756 -0.0373
44530SOL    HW140451  10.675  10.512   7.775 -2.1437 -1.9788 -0.0169
44530SOL    HW240452  10.770  10.410   7.834 -0.9918 -0.0392  1.6358
44531SOL     OW40453   8.338   8.201   1.807  0.0166  0.4115 -0.1074
44531SOL    HW140454   8.302   8.116   1.835 -1.1305  0.6079 -0.9075
44531SOL    HW240455   8.326   8.258   1.883  1.8161 -0.3993  0.8376
44532SOL     OW40456  11.461   7.375   5.065 -0.0756  0.1497 -0.3964
44532SOL    HW140457  11.514   7.415   5.133 -0.3514  0.8592 -0.5844
44532SOL    HW240458  11.522   7.324   5.012  0.3328  0.5526 -0.3152
44533SOL     OW40459   5.922   3.115   4.255 -0.5204 -0.3911 -0.2955
44533SOL    HW140460   5.988   3.073   4.200  1.3277 -0.4532  1.8346
44533SOL    HW240461   5.915   3.204   4.220  1.3272 -0.1253 -0.0832
44534SOL     OW40462   0.302   2.944   2.778  0.0505  0.1184  0.1176
44534SOL    HW140463   0.322   2.853   2.798 -0.1842  0.2337  0.9253
44534SOL    HW240464   0.279   2.944   2.685  1.3260 -0.4203 -0.2140
44535SOL     OW40465   4.981   3.931   3.697  0.4114 -0.3582  0.2862
44535SOL    HW140466   5.029   3.876   3.635  1.8732 -0.8174  1.7493
44535SOL    HW240467   4.941   3.999   3.643  0.5678 -1.4566 -1.2896
44536SOL     OW40468   3.911   8.476   7.453  0.1603  0.2767  0.0644
44536SOL    HW140469   3.892   8.464   7.361  2.2451  0.4579 -0.4384
44536SOL    HW240470   3.829   8.508   7.491 -0.8444 -0.2334 -1.6218
44537SOL     OW40471   2.959   7.297   9.245  0.0378  0.5333  0.0733
44537SOL    HW140472   3.002   7.379   9.268  1.1967 -0.5806  2.1927
44537SOL    HW240473   2.879   7.297   9.297  0.2647  0.1286  0.4235
44538SOL     OW40474   1.959   8.440  10.394 -0.6225 -0.2983 -0.0188
44538SOL    HW140475   1.866   8.431  10.370 -0.3758 -0.6449 -0.9023
44538SOL    HW240476   2.004   8.444  10.310  0.2287 -0.7774  0.4074
44539SOL     OW40477   9.554   3.155   7.323  0.2229  0.1308 -0.1118
44539SOL    HW140478   9.501   3.076   7.329  0.3582  0.0045 -0.5784
44539SOL    HW240479   9.508   3.219   7.378  1.4184 -0.9690  2.3765
44540SOL     OW40480   2.596   4.381   1.079  0.0994  0.3492  0.7970
44540SOL    HW140481   2.530   4.313   1.064  0.7619 -0.5564  1.7835
44540SOL    HW240482   2.565   4.427   1.157  1.1385 -0.7945  1.9338
44541SOL     OW40483   5.340   3.569  10.747 -0.2320  0.1502 -0.4929
44541SOL    HW140484   5.305   3.588  10.834 -1.0123  0.9231 -0.9499
44541SOL    HW240485   5.264   3.534  10.698  0.3273 -0.7980 -0.7109
44542SOL     OW40486   1.329  10.319   7.808  0.0687  0.0800 -0.0360
44542SOL    HW140487   1.264  10.378   7.845 -0.3969 -0.8538  0.6773
44542SOL    HW240488   1.330  10.244   7.867  0.7433 -0.5758 -0.8459
44543SOL     OW40489   1.441   7.646   4.825 -0.1020 -0.6645 -0.9002
44543SOL    HW140490   1.472   7.556   4.830 -2.0565 -1.3634 -0.2139
44543SOL    HW240491   1.391   7.658   4.906 -0.2113  0.9170 -1.1706
44544SOL     OW40492   9.339   6.579   2.065 -0.3989  0.8475  0.6702
44544SOL    HW140493   9.333   6.484   2.071  0.2998  0.7821  0.4453
44544SOL    HW240494   9.315   6.610   2.153 -0.0124  0.4300  0.9279
44545SOL     OW40495   6.371  10.542   1.456 -0.4472  0.1740  0.1270
44545SOL    HW140496   6.324  10.621   1.429 -0.9383 -0.1846 -0.0831
44545SOL    HW240497   6.420  10.516   1.379 -2.4734 -1.3046 -0.7397
44546SOL     OW40498   2.388   6.618   1.928 -0.1054  0.0628 -0.2138
44546SOL    HW140499   2.442   6.664   1.863 -1.8981  1.5156 -0.7532
44546SOL    HW240500   2.445   6.612   2.005  1.0779  0.9191 -0.9743
44547SOL     OW40501  10.365   8.338   5.373 -0.1741 -0.2295 -0.5007
44547SOL    HW140502  10.394   8.253   5.339 -0.0830  0.5397 -2.4769
44547SOL    HW240503  10.439   8.397   5.356 -0.5325  0.4176  0.1468
44548SOL     OW40504   0.310   8.347   3.396  0.6887  0.4223 -0.1542
44548SOL    HW140505   0.399   8.380   3.406  2.0191 -2.5223 -1.2029
44548SOL    HW240506   0.306   8.314   3.307 -1.3723  0.2363 -0.0322
44549SOL     OW40507   0.691   7.593   8.314  0.4025  0.1828 -0.4095
44549SOL    HW140508   0.624   7.593   8.245 -0.9231  0.7746  0.8379
44549SOL    HW240509   0.682   7.677   8.357  1.6301  0.0663  0.1157
44550SOL     OW40510  10.071  11.757   8.852 -0.3938  0.5012 -0.3555
44550SOL    HW140511  10.132  11.726   8.919  1.2642  1.8434 -1.1629
44550SOL    HW240512   9.999  11.795   8.901 -0.9545 -1.6492  0.6345
44551SOL     OW40513   4.742   1.711   2.723  0.2720  0.3418 -0.4508
44551SOL    HW140514   4.660   1.749   2.694 -0.2993 -1.1461 -0.8695
44551SOL    HW240515   4.726   1.685   2.814  0.0629 -0.4471 -0.6970
44552SOL     OW40516  11.449   7.985   0.206  0.1228 -0.1576  0.0338
44552SOL    HW140517  11.393   7.943   0.141  0.8667  0.8066 -1.2892
44552SOL    HW240518  11.420   8.076   0.206  0.5534 -0.0207  0.5847
44553SOL     OW40519  11.829   9.001   2.402 -0.1433 -0.4170  0.0482
44553SOL    HW140520  11.856   9.005   2.310  1.1137 -0.6441  0.3841
44553SOL    HW240521  11.734   9.014   2.400  0.0675  1.3191 -1.1452
44554SOL     OW40522  10.776  11.454   3.199  0.4049 -0.5100  0.3849
44554SOL    HW140523  10.846  11.455   3.134  0.1667  2.6331  0.0514
44554SOL    HW240524  10.802  11.386   3.261  2.0708 -1.6464 -1.4347
44555SOL     OW40525   3.323   8.596  11.302 -0.3420  0.0474  0.2554
44555SOL    HW140526   3.337   8.545  11.222 -1.4015 -0.6768  0.5069
44555SOL    HW240527   3.409   8.632  11.323  0.0423 -0.1099 -0.9668
44556SOL     OW40528  10.924   0.079   7.348 -0.2005  0.5161 -0.1819
44556SOL    HW140529  10.889   0.009   7.294 -0.3983 -0.7076  1.4477
44556SOL    HW240530  10.847   0.116   7.392  0.0916  0.5766  0.2865
44557SOL     OW40531   9.416   1.510   4.765  0.2583 -0.5574  0.4727
44557SOL    HW140532   9.358   1.550   4.700 -2.5555 -0.6972  2.7113
44557SOL    HW240533   9.481   1.578   4.784 -1.2854  1.0175  0.3660
44558SOL     OW40534  10.921   7.494  11.268  0.4800 -0.3926 -0.3923
44558SOL    HW140535  10.900   7.580  11.305  1.7841 -0.4344  0.5339
44558SOL    HW240536  11.015   7.483  11.286  0.3488 -1.9761 -0.5538
44559SOL     OW40537  11.489   9.436   3.360  0.2569  0.3982 -0.2418
44559SOL    HW140538  11.500   9.516   3.411  0.6034  0.0345  0.2588
44559SOL    HW240539  11.469   9.369   3.425 -2.1015  0.4494 -0.8288
44560SOL     OW40540  10.185   5.021  10.297 -0.2082 -0.4921 -0.0365
44560SOL    HW140541  10.252   4.955  10.281 -0.6384 -1.1077  0.5952
44560SOL    HW240542  10.115   5.000  10.235  0.8651  1.2291 -1.9474
44561SOL     OW40543   1.168   4.039   3.834 -0.3891  0.5030  0.1814
44561SOL    HW140544   1.252   3.999   3.859 -0.6711 -0.4327 -0.3302
44561SOL    HW240545   1.104   3.999   3.894 -0.2670  2.3985  1.6519
44562SOL     OW40546   4.034  11.344  11.329  0.0512  0.0810 -1.0834
44562SOL    HW140547   4.086  11.324  11.251  0.8582  1.9530 -1.0663
44562SOL    HW240548   4.034  11.439  11.335 -1.8187  0.0637  0.0115
44563SOL     OW40549   5.891  10.719   8.008 -0.2476 -0.1901 -0.0530
44563SOL    HW140550   5.864  10.811   8.007  0.2218  0.0024 -2.4900
44563SOL    HW240551   5.978  10.719   8.049  0.4766  0.7529 -1.4924
44564SOL     OW40552  10.585   0.082  11.227 -0.2340 -0.5768 -0.0578
44564SOL    HW140553  10.525   0.041  11.289  0.0315 -0.3162  0.3804
44564SOL    HW240554  10.562   0.045  11.142  0.3829 -2.0881  0.4050
44565SOL     OW40555   7.473   4.225   3.309 -0.5074  0.5213  0.1622
44565SOL    HW140556   7.559   4.241   3.271 -0.2932  1.8629  1.1684
44565SOL    HW240557   7.472   4.131   3.327  1.1106  0.6431  0.9975
44566SOL     OW40558   0.605   9.837  11.906 -0.1529  0.0992 -0.2014
44566SOL    HW140559   0.551   9.898  11.856 -1.4735 -0.6556  0.2630
44566SOL    HW240560   0.543   9.788  11.960  0.9056 -1.4388 -0.3136
44567SOL     OW40561   0.277  10.671   9.099 -0.6307 -0.5036 -0.1475
44567SOL    HW140562   0.273  10.752   9.047 -0.8578 -0.5304 -0.1724
44567SOL    HW240563   0.252  10.602   9.037  1.0092 -0.7924 -0.5380
44568SOL     OW40564   7.169   0.153   9.435  0.0889  0.0420 -0.4112
44568SOL    HW140565   7.145   0.245   9.443  1.6583  0.3863  0.9705
44568SOL    HW240566   7.094   0.105   9.470 -0.7257  0.7755 -1.1116
44569SOL     OW40567   2.129   1.414  11.051 -0.2878  0.1252 -0.0574
44569SOL    HW140568   2.219   1.398  11.026  0.1488  0.5264  1.1472
44569SOL    HW240569   2.085   1.329  11.044  0.1160 -0.0219 -0.8635
44570SOL     OW40570   9.705   2.717   6.124  0.0887  0.1460 -0.6212
44570SOL    HW140571   9.764   2.672   6.185 -1.8563 -0.1433  1.2145
44570SOL    HW240572   9.665   2.786   6.177 -1.2757  0.2469 -1.7169
44571SOL     OW40573   8.722  10.738   1.966  0.2227  0.9751  0.1195
44571SOL    HW140574   8.640  10.787   1.956 -0.9818 -0.7172  1.0917
44571SOL    HW240575   8.732  10.727   2.060  1.1479  0.4409 -0.0284
44572SOL     OW40576   2.153   8.527   3.014 -0.0980  0.2134  0.2979
44572SOL    HW140577   2.159   8.591   3.085  0.3037 -1.3107  1.6997
44572SOL    HW240578   2.211   8.561   2.946  0.2224  1.2582  1.0660
44573SOL     OW40579   8.049   4.230   9.059  0.3087 -0.1651 -0.3329
44573SOL    HW140580   7.968   4.211   9.011  1.2424 -1.7319 -1.3847
44573SOL    HW240581   8.103   4.152   9.047  2.5228  1.3368 -0.7836
44574SOL     OW40582   4.493   7.057   4.785  0.3021 -0.7349 -0.5302
44574SOL    HW140583   4.506   6.989   4.850 -1.7590  0.0157  0.7706
44574SOL    HW240584   4.447   7.013   4.713 -1.1485 -0.7389  0.3624
44575SOL     OW40585   1.573   7.802   1.004 -0.7155  0.7026 -0.0886
44575SOL    HW140586   1.612   7.790   0.918 -0.6292  0.9894 -0.0897
44575SOL    HW240587   1.570   7.714   1.042 -0.0380  0.6868 -0.0726
44576SOL     OW40588   8.538   9.902   9.061 -0.2628  0.1111 -0.0258
44576SOL    HW140589   8.600   9.870   9.127 -0.2905  0.7238  0.3153
44576SOL    HW240590   8.586   9.973   9.017 -0.8748  0.9282  0.5790
44577SOL     OW40591   7.438   0.642   8.473 -0.4016  0.3785  0.1765
44577SOL    HW140592   7.422   0.548   8.482 -1.6710  0.5722  0.1197
44577SOL    HW240593   7.527   0.655   8.508 -0.3739 -0.7690  0.5710
44578SOL     OW40594   7.725   5.964   6.673  0.2332 -0.2801 -0.9035
44578SOL    HW140595   7.820   5.947   6.676  0.5261  1.3264 -0.0707
44578SOL    HW240596   7.699   5.936   6.585  0.8789 -3.4581 -0.2191
44579SOL     OW40597   7.470   5.907   9.297  0.0870 -0.3082  0.0812
44579SOL    HW140598   7.447   5.909   9.204  0.6560  1.8798 -0.0578
44579SOL    HW240599   7.472   5.813   9.319 -1.3539 -0.8341 -1.7564
44580SOL     OW40600  11.591   5.899   5.342  0.1904 -0.0835  0.5508
44580SOL    HW140601  11.672   5.868   5.301 -0.6429  0.0808 -1.3465
44580SOL    HW240602  11.606   5.889   5.436  2.1965 -0.5572  0.2296
44581SOL     OW40603   8.366   2.643   9.050  0.0044  0.0411 -0.1614
44581SOL    HW140604   8.273   2.623   9.041 -0.1816  1.2493 -1.0967
44581SOL    HW240605   8.368   2.725   9.100  0.4519  1.1744 -1.9728
44582SOL     OW40606   6.853   9.100   3.017 -0.3991 -0.2342 -0.1785
44582SOL    HW140607   6.789   9.171   3.026 -0.3085 -0.0014 -1.2009
44582SOL    HW240608   6.800   9.020   3.020 -0.7375 -0.0477 -0.9500
44583SOL     OW40609   4.896   7.858   6.129  0.0414  0.3513 -0.0565
44583SOL    HW140610   4.909   7.950   6.108 -1.5790  0.8718  1.0430
44583SOL    HW240611   4.969   7.813   6.086  2.6812  2.4354  1.8519
44584SOL     OW40612  10.996   9.346   0.622  0.1529 -0.7224  0.6740
44584SOL    HW140613  11.043   9.333   0.704  0.9030 -1.1128  0.1941
44584SOL    HW240614  10.927   9.408   0.643  1.6655  0.8798  1.0957
44585SOL     OW40615   1.934   8.446   2.410 -0.3871 -0.6343  0.0136
44585SOL    HW140616   1.988   8.375   2.375  0.8029  0.7857 -1.1300
44585SOL    HW240617   1.861   8.453   2.348  0.4799  0.3278 -0.9351
44586SOL     OW40618   4.414   0.038  10.664 -0.7541 -0.1888  0.2436
44586SOL    HW140619   4.436   0.065  10.575  0.5740 -2.8073 -0.3166
44586SOL    HW240620   4.387   0.119  10.707  2.4887  1.9719 -1.3488
44587SOL     OW40621   4.462   9.249   3.886 -0.6826 -0.2344  0.0268
44587SOL    HW140622   4.546   9.295   3.873  0.0238 -1.7531 -1.1658
44587SOL    HW240623   4.476   9.195   3.963 -0.7604 -0.0514  0.1683
44588SOL     OW40624   4.399   8.087   0.597 -0.1519 -0.0769 -0.0641
44588SOL    HW140625   4.414   8.071   0.690 -0.0354 -0.8814 -0.2113
44588SOL    HW240626   4.443   8.014   0.553 -2.0828 -0.9480 -0.6367
44589SOL     OW40627  10.213   5.338   4.056 -0.0556  0.0355 -0.1405
44589SOL    HW140628  10.280   5.406   4.055 -1.3536  1.3674  0.9450
44589SOL    HW240629  10.163   5.354   4.135 -1.4629 -1.1395 -0.7479
44590SOL     OW40630   0.884   5.909   8.501 -0.0218  0.3009 -0.1249
44590SOL    HW140631   0.798   5.880   8.469 -0.5771 -0.4951  1.9515
44590SOL    HW240632   0.927   5.829   8.530  0.9669  0.8364 -0.0745
44591SOL     OW40633   9.672   3.856   3.000  0.3413 -0.3832 -0.5878
44591SOL    HW140634   9.587   3.901   2.996  0.6105  0.5032  2.1196
44591SOL    HW240635   9.652   3.766   2.976 -1.5678 -0.3899  0.7788
44592SOL     OW40636   8.121   7.854  11.658  0.5253 -0.7653 -0.0597
44592SOL    HW140637   8.029   7.843  11.634  0.4576 -0.7881  0.2041
44592SOL    HW240638   8.121   7.926  11.722  0.5116 -1.6516  0.9698
44593SOL     OW40639  11.273   4.522  11.718 -0.3942 -0.0669 -0.2737
44593SOL    HW140640  11.365   4.497  11.712 -0.1255  0.8570 -0.0103
44593SOL    HW240641  11.268   4.608  11.676 -0.7300  0.8919  1.6266
44594SOL     OW40642   9.590  10.771   8.134 -0.1818  0.7447  0.0537
44594SOL    HW140643   9.666  10.791   8.189 -0.8811  0.7108  1.0616
44594SOL    HW240644   9.599  10.830   8.059 -0.1662  2.1223  1.0946
44595SOL     OW40645  11.226   2.439   3.967 -0.1406 -0.5310 -0.2942
44595SOL    HW140646  11.296   2.419   3.905 -0.2851 -0.9518 -0.3304
44595SOL    HW240647  11.192   2.524   3.939 -0.0455 -0.6071 -0.6450
44596SOL     OW40648   4.547   1.937   3.841 -0.6851 -0.2651  0.4543
44596SOL    HW140649   4.453   1.953   3.831 -0.2330  1.8972 -1.0609
44596SOL    HW240650   4.582   2.020   3.875  0.8606 -0.4644 -0.5172
44597SOL     OW40651   4.058   1.796   6.963  0.0466  0.3921 -0.2832
44597SOL    HW140652   4.100   1.799   6.877  0.4021 -0.5999 -0.1633
44597SOL    HW240653   4.130   1.804   7.026  0.1470 -1.5640 -0.0733
44598SOL     OW40654   2.825   7.531   3.052 -0.4363  0.1855 -0.2569
44598SOL    HW140655   2.799   7.496   2.967  0.3482  1.9438 -1.2556
44598SOL    HW240656   2.915   7.500   3.065  0.2135  1.6277 -1.0846
44599SOL     OW40657   9.554  11.857   1.212  0.1887  0.2311  0.2984
44599SOL    HW140658   9.559  11.772   1.255  1.4225 -0.3537 -0.9592
44599SOL    HW240659   9.490  11.845   1.141 -0.1391  0.5585  0.5306
44600SOL     OW40660   6.262  11.548   4.499  0.1992 -0.5034 -0.0879
44600SOL    HW140661   6.245  11.642   4.497 -1.5253 -0.7878 -1.7684
44600SOL    HW240662   6.253  11.524   4.591 -1.7221  0.6261  0.0690
44601SOL     OW40663  10.169   1.517   6.590 -0.1523 -0.1515  0.2572
44601SOL    HW140664  10.139   1.449   6.650  1.5565 -1.7285 -0.5846
44601SOL    HW240665  10.099   1.523   6.524  0.2559 -2.1452 -0.4390
44602SOL     OW40666   0.344   5.670   3.701  0.0284 -0.3179  0.2319
44602SOL    HW140667   0.347   5.599   3.637 -1.1276 -0.4456  0.2992
44602SOL    HW240668   0.343   5.749   3.648 -0.6844 -0.4168  0.0933
44603SOL     OW40669   9.513   5.268   7.204 -0.5057 -0.4317  0.2455
44603SOL    HW140670   9.535   5.362   7.205 -0.0117 -0.5333  1.5623
44603SOL    HW240671   9.592   5.226   7.169 -0.0253 -0.4808  1.3415
44604SOL     OW40672   7.212   3.855   0.575 -0.0209  0.6960  0.0168
44604SOL    HW140673   7.142   3.858   0.511  1.1515  1.3956 -1.2958
44604SOL    HW240674   7.174   3.811   0.651 -0.9882 -1.7575 -1.7445
44605SOL     OW40675   2.426   2.395   3.146 -0.5334  0.0425  0.9388
44605SOL    HW140676   2.413   2.486   3.118 -0.7030 -0.6246 -1.3747
44605SOL    HW240677   2.407   2.395   3.240  0.5263  2.5929  1.2338
44606SOL     OW40678   8.268   3.851   0.863  0.1801  0.4832  0.5765
44606SOL    HW140679   8.221   3.798   0.799 -1.9537  3.1960 -0.2371
44606SOL    HW240680   8.244   3.813   0.948  2.2920 -2.5356  0.0094
44607SOL     OW40681  10.588   9.420  10.534  0.0904 -0.2690  0.3750
44607SOL    HW140682  10.524   9.484  10.566  0.8301  1.0122 -0.6205
44607SOL    HW240683  10.673   9.456  10.560  0.6655  0.4054 -2.2124
44608SOL     OW40684   9.114   1.133   9.478  0.1030  0.3012  0.2995
44608SOL    HW140685   9.098   1.046   9.442  0.7676  0.6362 -0.8590
44608SOL    HW240686   9.044   1.188   9.443  0.8538  0.6681 -0.6881
44609SOL     OW40687   7.383   9.024   0.883 -0.2066 -0.4611  0.1187
44609SOL    HW140688   7.346   9.102   0.841 -0.3160 -0.8621 -0.5406
44609SOL    HW240689   7.327   8.952   0.855  0.7191 -0.9891 -0.4192
44610SOL     OW40690   9.073   4.725   1.251  0.1972  0.2744 -0.5099
44610SOL    HW140691   9.017   4.695   1.179 -1.1563  1.0255  0.2070
44610SOL    HW240692   9.024   4.796   1.292  2.1817  1.7955 -0.5787
44611SOL     OW40693  12.268  11.689  10.037 -0.0372  0.7299 -0.1539
44611SOL    HW140694  12.359  11.718  10.042 -0.1277  1.0823 -0.5386
44611SOL    HW240695  12.263  11.641   9.954 -0.3590  1.2621 -0.4432
44612SOL     OW40696  10.136  11.591   7.668  0.6258 -0.6254 -0.3007
44612SOL    HW140697  10.069  11.659   7.670  1.4404  0.1868 -0.1978
44612SOL    HW240698  10.218  11.637   7.650  1.2031 -1.5692 -0.1951
44613SOL     OW40699   2.046   1.328   0.568 -0.0324  0.6746 -0.0130
44613SOL    HW140700   2.025   1.237   0.587 -0.5706  0.6727 -0.6098
44613SOL    HW240701   1.979   1.357   0.507  0.4701  1.2992 -0.2883
44614SOL     OW40702   9.103   3.962   3.779 -0.0916 -0.3917 -0.3841
44614SOL    HW140703   9.017   3.919   3.780 -0.8772  1.0933  0.5180
44614SOL    HW240704   9.137   3.950   3.867 -1.2583  2.4727  0.5625
44615SOL     OW40705   7.920   2.956   3.486 -0.3476 -0.3763  0.5057
44615SOL    HW140706   7.862   2.941   3.561 -2.6915  0.6623 -0.9771
44615SOL    HW240707   7.915   2.875   3.435 -0.3941 -0.3285  0.4346
44616SOL     OW40708  11.527   9.787   9.402 -0.1743  0.2122  0.6041
44616SOL    HW140709  11.515   9.781   9.497  0.2861 -0.2503  0.6375
44616SOL    HW240710  11.553   9.878   9.387 -0.2363  0.2831  0.9225
44617SOL     OW40711   4.389   6.094   3.914  0.2735  0.1231  0.3333
44617SOL    HW140712   4.322   6.089   3.847 -1.3059  2.0042  1.6449
44617SOL    HW240713   4.470   6.113   3.866 -0.1562 -1.7432 -1.2371
44618SOL     OW40714   7.582   4.619  12.224  0.2501 -0.0188 -0.1250
44618SOL    HW140715   7.636   4.677  12.277  0.5039 -1.1723  0.9095
44618SOL    HW240716   7.632   4.538  12.219 -0.8324 -0.6986 -0.1775
44619SOL     OW40717   6.572   1.957  12.364  0.1321  0.1247  0.1641
44619SOL    HW140718   6.653   2.007  12.369  0.3234  0.1335 -2.1417
44619SOL    HW240719   6.503   2.019  12.387  0.6558  0.4195  0.9900
44620SOL     OW40720   2.712   4.512  11.268  0.5079  0.0446  0.2800
44620SOL    HW140721   2.789   4.465  11.298  1.3514  1.2258  0.0419
44620SOL    HW240722   2.714   4.595  11.317 -0.4912  0.1792  0.1153
44621SOL     OW40723   9.893   3.981   2.849 -0.3577 -0.1782 -0.4286
44621SOL    HW140724   9.830   3.966   2.919 -1.7579  1.0232 -1.3880
44621SOL    HW240725   9.935   4.064   2.872  0.1052 -0.4236 -0.3671
44622SOL     OW40726   6.450   5.138   3.609 -0.2576 -0.0272 -0.2807
44622SOL    HW140727   6.357   5.130   3.588 -0.2241 -0.9147 -0.1395
44622SOL    HW240728   6.459   5.225   3.647 -1.0301  0.0697 -0.3092
44623SOL     OW40729  11.048   9.827  12.432  0.0499 -0.2536 -0.0471
44623SOL    HW140730  11.084   9.738  12.429  0.4283 -0.0855 -0.6509
44623SOL    HW240731  11.111   9.878  12.482 -0.3154 -0.3888  0.5561
44624SOL     OW40732   8.327   1.191   7.957 -0.4596 -0.1580 -0.0194
44624SOL    HW140733   8.391   1.260   7.944 -0.8426  0.2155  0.0527
44624SOL    HW240734   8.256   1.213   7.897 -0.9922  0.0274  0.6627
44625SOL     OW40735   4.615   3.374   4.037  0.2363 -0.2034  0.0530
44625SOL    HW140736   4.694   3.409   3.997 -0.8910  1.1603 -1.0544
44625SOL    HW240737   4.588   3.441   4.099 -0.8355 -0.0160 -0.6087
44626SOL     OW40738  11.746   4.912   3.129  0.0004  0.3033  0.3420
44626SOL    HW140739  11.787   4.924   3.214 -0.1844 -0.7843  0.6098
44626SOL    HW240740  11.794   4.838   3.090 -0.7697 -0.0694  0.0717
44627SOL     OW40741   0.090   5.644   8.866  0.1890  0.0251  0.8482
44627SOL    HW140742   0.105   5.680   8.778 -0.8437 -0.6729  0.3688
44627SOL    HW240743   0.153   5.572   8.873 -0.4122 -0.5758  0.2628
44628SOL     OW40744   1.714   2.299  11.933 -0.0552 -0.5259  0.0145
44628SOL    HW140745   1.699   2.276  12.025 -1.5469 -1.0491 -0.3270
44628SOL    HW240746   1.663   2.234  11.884  1.6228 -0.9512 -1.2367
44629SOL     OW40747   9.916   4.810  12.074 -0.1304  0.8125  0.1981
44629SOL    HW140748   9.997   4.841  12.034  0.3317  1.4264  1.5538
44629SOL    HW240749   9.848   4.832  12.010  0.5352  2.1154 -0.0941
44630SOL     OW40750   1.074   6.495   5.116  0.3386  0.2641 -0.1929
44630SOL    HW140751   1.025   6.427   5.070  0.2106  0.6086 -0.5657
44630SOL    HW240752   1.009   6.563   5.135  0.3085 -0.0275  0.8084
44631SOL     OW40753   7.523   5.107  11.026 -0.0420  0.4881 -0.5071
44631SOL    HW140754   7.477   5.109  11.110 -0.0683  1.1159 -0.5350
44631SOL    HW240755   7.596   5.046  11.041  0.1476  0.8464  0.0698
44632SOL     OW40756   0.256   6.873   6.784  0.1526 -0.3717  0.1370
44632SOL    HW140757   0.245   6.781   6.759 -0.1676 -0.5169  0.7946
44632SOL    HW240758   0.347   6.893   6.763 -0.3732 -0.1481 -2.2025
44633SOL     OW40759   2.724   5.164   6.990 -0.0598 -0.1554  0.5804
44633SOL    HW140760   2.772   5.208   7.061  0.8280 -0.9645  0.5020
44633SOL    HW240761   2.780   5.091   6.965 -1.3724 -1.1961  0.5315
44634SOL     OW40762   3.253   6.864  12.308  0.0956  0.0516  0.0605
44634SOL    HW140763   3.220   6.949  12.339  0.3582 -0.0593  0.6511
44634SOL    HW240764   3.182   6.831  12.253 -0.0142  0.6500 -0.1721
44635SOL     OW40765   3.134   3.874   5.393 -0.2565 -0.4062 -0.2047
44635SOL    HW140766   3.061   3.836   5.443 -0.0924 -0.0752  0.2904
44635SOL    HW240767   3.092   3.933   5.331 -0.4217 -0.3545 -0.0447
44636SOL     OW40768   4.339  11.407   2.350  0.2692  0.4784  0.0828
44636SOL    HW140769   4.422  11.432   2.390  1.0304 -1.1859 -0.3690
44636SOL    HW240770   4.279  11.398   2.423  0.5614  1.3486  0.4454
44637SOL     OW40771   9.773   3.393   2.642  0.5863  0.3940 -0.5888
44637SOL    HW140772   9.763   3.433   2.555 -1.8820  0.2265 -0.4490
44637SOL    HW240773   9.690   3.410   2.685  0.9693 -1.4334  0.9612
44638SOL     OW40774   6.262   9.414   0.615  0.1906 -0.0713 -0.1013
44638SOL    HW140775   6.296   9.327   0.593 -0.6979 -0.5197  0.2347
44638SOL    HW240776   6.332   9.457   0.663  0.1595 -1.1020  0.8866
44639SOL     OW40777   9.137   6.414   8.232  0.9972  0.0355 -0.6005
44639SOL    HW140778   9.046   6.433   8.212  1.0137  1.4232  0.4989
44639SOL    HW240779   9.175   6.390   8.147 -0.4311 -0.8646 -1.0160
44640SOL     OW40780  12.016   4.120   7.410 -0.0603  0.0940  0.0813
44640SOL    HW140781  12.074   4.131   7.486 -1.3842  1.5531  0.9328
44640SOL    HW240782  11.962   4.199   7.410 -1.1574 -0.6189 -1.4658
44641SOL     OW40783   5.684   4.350   3.964  0.2925  0.0255 -0.0396
44641SOL    HW140784   5.606   4.385   3.921  1.2732  0.7955 -1.2740
44641SOL    HW240785   5.716   4.281   3.906  0.1087 -0.8334  0.8485
44642SOL     OW40786   1.502   1.539  11.969 -0.3352 -0.1809 -0.5946
44642SOL    HW140787   1.553   1.615  11.998 -1.4004  0.0510  0.7471
44642SOL    HW240788   1.549   1.464  12.005 -0.3040 -0.0371 -0.3314
44643SOL     OW40789  12.074   7.385  10.147 -0.1291  0.3857  0.4657
44643SOL    HW140790  11.987   7.392  10.108 -0.1877  2.6392  0.8939
44643SOL    HW240791  12.082   7.292  10.170 -2.2598  0.0559  0.1087
44644SOL     OW40792   8.559   4.984   4.863  0.0864  0.1469  0.3915
44644SOL    HW140793   8.652   4.992   4.883  0.2056 -1.8026  0.8528
44644SOL    HW240794   8.545   4.890   4.853 -1.9275  0.3564  0.7806
44645SOL     OW40795   7.030   1.309   2.621 -0.2238  0.2692  0.1052
44645SOL    HW140796   7.075   1.384   2.660 -1.4218  0.9999  0.1259
44645SOL    HW240797   6.971   1.347   2.556  1.2836 -0.8887 -2.0402
44646SOL     OW40798   6.729   9.296   2.455  0.1021 -0.0023  0.3293
44646SOL    HW140799   6.672   9.283   2.530 -0.7038 -1.9674 -0.5648
44646SOL    HW240800   6.779   9.215   2.447  1.0796  0.6499 -0.5220
44647SOL     OW40801   3.021   8.577   3.775  0.3492  0.0541 -0.2312
44647SOL    HW140802   2.946   8.626   3.807  2.1817  2.5412  0.5049
44647SOL    HW240803   3.081   8.572   3.849  1.5856 -0.4934 -1.2194
44648SOL     OW40804   8.711   4.538   2.606  0.1379 -0.2027 -0.1877
44648SOL    HW140805   8.664   4.454   2.611 -0.3676  0.0767 -0.1940
44648SOL    HW240806   8.740   4.555   2.695 -0.2709 -0.0958 -0.0742
44649SOL     OW40807  11.827   0.042  11.347  0.2751  0.3152  0.7803
44649SOL    HW140808  11.868   0.098  11.281 -1.3795 -0.0806 -0.6788
44649SOL    HW240809  11.806  -0.039  11.300 -1.6400  0.3059  1.5643
44650SOL     OW40810   1.344   5.276   5.203  0.8861  0.3539 -0.1052
44650SOL    HW140811   1.366   5.341   5.136 -0.8584  1.2644  0.1595
44650SOL    HW240812   1.344   5.325   5.285 -1.2195  0.2447  0.0012
44651SOL     OW40813   4.040   6.591   3.757  0.6780 -0.1907  0.4015
44651SOL    HW140814   4.015   6.528   3.825  0.7263  0.8149  1.3851
44651SOL    HW240815   3.963   6.595   3.699  0.0267  0.0640  1.2613
44652SOL     OW40816  11.872   8.206   8.920 -0.1320 -0.4699 -0.0888
44652SOL    HW140817  11.941   8.141   8.907  0.8625  0.6570 -0.6891
44652SOL    HW240818  11.798   8.172   8.870  0.6844 -0.6915 -1.2026
44653SOL     OW40819   0.306   2.891   2.143  0.5342 -0.0736  0.6190
44653SOL    HW140820   0.372   2.822   2.141  0.5785 -0.0438  1.0540
44653SOL    HW240821   0.334   2.949   2.214  0.0992 -0.0083  0.7389
44654SOL     OW40822   4.560  11.017   3.040  0.4877  0.0474  0.2565
44654SOL    HW140823   4.498  11.028   2.968 -0.8547 -2.7368  0.8469
44654SOL    HW240824   4.510  10.970   3.107  2.2266  0.9507  2.2822
44655SOL     OW40825  10.021   8.491  11.084  0.1968 -0.3780 -0.2631
44655SOL    HW140826  10.108   8.465  11.115  0.9176 -0.0186 -1.8916
44655SOL    HW240827  10.037   8.567  11.029 -1.1172 -0.5114 -0.8523
44656SOL     OW40828  11.594  10.446   6.062  0.0187  0.4229 -0.3733
44656SOL    HW140829  11.630  10.476   6.145 -1.0267 -0.6484  0.4931
44656SOL    HW240830  11.517  10.501   6.047  0.5939  1.0803 -1.0023
44657SOL     OW40831   5.527  11.653  11.358  0.2181  0.2000  0.1093
44657SOL    HW140832   5.618  11.626  11.357 -0.3551 -2.0576 -1.6053
44657SOL    HW240833   5.496  11.631  11.446  1.6827  2.6855  1.3332
44658SOL     OW40834   2.952  10.164   7.770  0.0012 -0.2468 -0.9325
44658SOL    HW140835   3.040  10.164   7.734 -0.0795  0.2757 -1.1369
44658SOL    HW240836   2.928  10.256   7.775  0.4377 -0.1992  1.5215
44659SOL     OW40837   1.927   3.184  11.306 -0.3084 -0.3230  0.1935
44659SOL    HW140838   2.020   3.172  11.327  0.0094  1.1238 -0.2120
44659SOL    HW240839   1.918   3.279  11.296 -1.6565 -0.5160 -0.5888
44660SOL     OW40840  11.887  10.048  12.293 -0.0449 -0.5556  0.2400
44660SOL    HW140841  11.793  10.033  12.286  0.0594 -1.7127  1.0416
44660SOL    HW240842  11.895  10.137  12.326 -0.8526 -0.4243  0.1042
44661SOL     OW40843   9.581   9.024   9.316 -0.6673  0.5655  0.5627
44661SOL    HW140844   9.665   8.979   9.308 -1.7518 -1.4723 -0.0125
44661SOL    HW240845   9.604   9.117   9.314  1.4199  0.1156 -1.7051
44662SOL     OW40846  11.467   2.798   1.544 -0.6339 -0.7891 -0.8011
44662SOL    HW140847  11.548   2.848   1.558 -1.3786 -0.3838  3.4478
44662SOL    HW240848  11.498   2.713   1.512  1.2801  0.0384 -1.3231
44663SOL     OW40849   2.904   3.891   4.354  0.0072  0.0147 -0.4859
44663SOL    HW140850   2.922   3.818   4.295  1.3893  1.9372 -2.5847
44663SOL    HW240851   2.981   3.947   4.349 -0.6862  1.2992  1.6305
44664SOL     OW40852   6.816   3.493   6.893  0.0214 -0.0295 -0.0225
44664SOL    HW140853   6.737   3.454   6.929  1.0268 -1.7460  0.4045
44664SOL    HW240854   6.875   3.504   6.968  0.2788  1.0802 -0.3577
44665SOL     OW40855   5.304   0.893  10.073  0.2414  0.8000 -0.4288
44665SOL    HW140856   5.318   0.966  10.133 -1.5253  0.9566 -0.1392
44665SOL    HW240857   5.221   0.854  10.102  0.2971 -0.2704 -1.6202
44666SOL     OW40858   5.282  10.485   1.772  0.5038  0.1428 -0.5313
44666SOL    HW140859   5.337  10.415   1.737  0.4260 -0.6125  0.7949
44666SOL    HW240860   5.249  10.450   1.855 -0.2098  1.4354 -0.2507
44667SOL     OW40861   6.470   2.536   1.147 -0.5938 -0.0228  0.2928
44667SOL    HW140862   6.455   2.559   1.239  0.2362  1.2045  0.1461
44667SOL    HW240863   6.556   2.494   1.147 -0.1471  0.8582 -0.0325
44668SOL     OW40864  11.637  11.932   1.402 -0.3844 -0.0271 -0.0767
44668SOL    HW140865  11.665  11.856   1.453 -0.1185  0.3687  0.3750
44668SOL    HW240866  11.681  11.921   1.317 -0.1450 -0.2421  0.0747
44669SOL     OW40867  11.756   9.110   4.612 -0.1551 -0.0532  0.3276
44669SOL    HW140868  11.790   9.193   4.580  1.2647 -0.9041 -0.4771
44669SOL    HW240869  11.665   9.107   4.582 -0.7229  1.8598  1.7020
44670SOL     OW40870   3.561   8.283   9.950  0.0423 -0.1398 -0.7968
44670SOL    HW140871   3.568   8.188   9.941  2.0843  0.0189 -1.4852
44670SOL    HW240872   3.611   8.304  10.029 -0.7349  0.3378 -0.4205
44671SOL     OW40873  12.344   4.783   1.373 -1.2823 -0.2474  0.2324
44671SOL    HW140874  12.283   4.841   1.328 -1.0984  0.1340  0.4727
44671SOL    HW240875  12.331   4.697   1.332 -0.9816  0.1316 -0.6821
44672SOL     OW40876   3.433  12.252   7.333 -0.8093  0.0356  0.9142
44672SOL    HW140877   3.487  12.262   7.411 -1.6529 -0.1141  1.5242
44672SOL    HW240878   3.450  12.163   7.303  0.4870  0.5053  0.1728
44673SOL     OW40879   8.959   5.933   9.636  0.1244 -0.0222  0.4608
44673SOL    HW140880   8.910   5.883   9.570 -1.6056 -0.6023  2.0893
44673SOL    HW240881   8.956   6.023   9.605  2.1467 -0.6672 -1.8527
44674SOL     OW40882   0.977   3.447   0.838 -0.2637 -0.0478 -0.0383
44674SOL    HW140883   0.957   3.427   0.930 -0.9590 -0.4485 -0.2698
44674SOL    HW240884   0.891   3.456   0.796  0.0313  1.5441 -0.3630
44675SOL     OW40885   1.011   7.383   6.147  0.3583  0.8501  0.0654
44675SOL    HW140886   1.057   7.373   6.230 -0.4293 -3.0784  0.2341
44675SOL    HW240887   1.080   7.398   6.083  1.2568  1.0466  1.0496
44676SOL     OW40888   0.409   4.530   0.459  0.0695  0.2677  0.3098
44676SOL    HW140889   0.384   4.487   0.377 -1.5828  2.3393 -0.3671
44676SOL    HW240890   0.391   4.465   0.527 -1.7663 -0.3408 -0.7022
44677SOL     OW40891   3.201   0.176   2.919 -0.4201  0.1828 -0.0458
44677SOL    HW140892   3.167   0.243   2.860  1.5986  1.1270 -0.2264
44677SOL    HW240893   3.277   0.141   2.874  0.9871  0.6914  1.7942
44678SOL     OW40894   2.198  10.989   3.694  0.0213  0.8415 -0.5398
44678SOL    HW140895   2.238  11.023   3.613 -1.5860  2.5463 -0.6854
44678SOL    HW240896   2.264  11.005   3.761  0.7210  0.9366 -1.2297
44679SOL     OW40897   0.974   0.802   5.865  0.2651 -0.3520 -0.6052
44679SOL    HW140898   0.898   0.849   5.830  0.5257 -1.3916 -2.6752
44679SOL    HW240899   0.936   0.737   5.924 -0.6109 -1.6151 -2.4711
44680SOL     OW40900   8.745   5.881   7.049 -0.0939  0.0520 -0.0291
44680SOL    HW140901   8.806   5.818   7.012 -0.8426 -0.1597 -0.9402
44680SOL    HW240902   8.763   5.880   7.143  0.9272 -0.3940 -0.2181
44681SOL     OW40903  12.423   4.931   4.373  0.5785 -0.5471 -0.2849
44681SOL    HW140904  12.346   4.916   4.427  1.1058  0.6225  0.8292
44681SOL    HW240905  12.444   4.844   4.338 -1.3283 -0.8586 -0.7694
44682SOL     OW40906   9.602  11.494   2.632 -0.2030 -0.0218  0.2686
44682SOL    HW140907   9.571  11.483   2.722 -1.0528  1.0313  0.1254
44682SOL    HW240908   9.693  11.521   2.642 -0.4430  0.6298  0.8546
44683SOL     OW40909   8.246   5.348  10.927 -0.2849  0.3030 -0.1140
44683SOL    HW140910   8.318   5.369  10.868  0.8837 -0.2974  1.0354
44683SOL    HW240911   8.217   5.261  10.900 -0.1129  0.2546 -0.1414
44684SOL     OW40912   2.838   3.986   0.578 -0.6156 -0.2805  0.4375
44684SOL    HW140913   2.933   3.986   0.581 -0.5562  1.7010  0.1761
44684SOL    HW240914   2.817   3.963   0.487 -0.2689  1.3622 -0.0990
44685SOL     OW40915   3.592   5.895  12.420  0.2264 -0.3205 -0.4141
44685SOL    HW140916   3.581   5.885  12.515  0.7608  0.8897 -0.2169
44685SOL    HW240917   3.548   5.818  12.383 -1.9245  0.2833  0.7144
44686SOL     OW40918   4.978   6.723   1.864  0.5648  0.6264  0.7241
44686SOL    HW140919   5.054   6.767   1.826  0.5513  0.2535  0.2640
44686SOL    HW240920   5.010   6.637   1.889  0.0199  0.0150 -0.5768
44687SOL     OW40921  11.467   2.023   0.655 -0.0583  0.5247  0.1416
44687SOL    HW140922  11.379   2.001   0.623  0.2634  0.3228 -0.6302
44687SOL    HW240923  11.466   2.118   0.663  0.3096  0.7557 -1.9628
44688SOL     OW40924   8.224   6.876   0.119  0.0654  0.6260  0.9826
44688SOL    HW140925   8.192   6.965   0.107 -2.1524 -0.4847 -4.1555
44688SOL    HW240926   8.312   6.877   0.081 -0.5481  0.4595 -0.5389
44689SOL     OW40927   1.085   0.927   2.865 -0.5562  0.1119  0.3034
44689SOL    HW140928   0.998   0.958   2.842 -0.7831 -0.5647  0.2475
44689SOL    HW240929   1.083   0.833   2.848  0.9054  0.4139 -2.0163
44690SOL     OW40930   2.551  12.245  11.606 -0.0492 -0.3566 -0.0043
44690SOL    HW140931   2.644  12.248  11.585 -0.2461  1.2260 -0.8246
44690SOL    HW240932   2.513  12.188  11.539  0.0427  0.7411 -1.0190
44691SOL     OW40933  12.074   2.998   9.015 -0.4744 -0.9007 -0.0047
44691SOL    HW140934  11.984   2.965   9.023 -0.7648 -0.5081 -1.3057
44691SOL    HW240935  12.070   3.058   8.941  0.2817  1.2485  1.6144
44692SOL     OW40936   3.286   5.414  11.786 -0.2285  0.1498  0.2571
44692SOL    HW140937   3.226   5.346  11.755  1.5262 -0.8718 -1.0926
44692SOL    HW240938   3.268   5.490  11.732 -0.3726 -0.1136 -0.0651
44693SOL     OW40939  10.976   6.830   3.365 -0.3058  0.0383  0.0643
44693SOL    HW140940  10.980   6.775   3.443 -1.8344  1.3857  1.1659
44693SOL    HW240941  10.883   6.843   3.349 -0.0107  0.6877 -1.3417
44694SOL     OW40942  10.380   3.060   9.755  0.1934  0.4662  0.4353
44694SOL    HW140943  10.306   3.015   9.715  1.5220 -0.8362 -0.7034
44694SOL    HW240944  10.343   3.139   9.793 -1.4806  0.8179 -1.7508
44695SOL     OW40945  12.152   8.117  10.114 -0.0912 -0.4043  0.2748
44695SOL    HW140946  12.098   8.043  10.087 -1.6614  0.5360  0.7196
44695SOL    HW240947  12.102   8.194  10.088  1.3799  0.5112  0.0747
44696SOL     OW40948  12.221   7.278   4.575  0.6049 -0.8166  0.1095
44696SOL    HW140949  12.300   7.327   4.551  0.2476  0.2241  0.9675
44696SOL    HW240950  12.177   7.334   4.639 -0.0749 -2.0733  0.7670
44697SOL     OW40951   0.106   9.018   4.146 -0.0333 -0.6026  0.0570
44697SOL    HW140952   0.195   9.001   4.117  0.8529 -1.4395  2.9157
44697SOL    HW240953   0.058   8.938   4.125 -0.0860 -0.2404 -1.2733
44698SOL     OW40954  10.300   2.485   7.458  0.1379 -0.5064  0.1951
44698SOL    HW140955  10.222   2.441   7.492 -0.2797 -0.3745 -0.5724
44698SOL    HW240956  10.268   2.536   7.383  1.0461 -0.8339 -0.4284
44699SOL     OW40957   6.441   1.109  11.970  0.1868 -0.3548  0.2221
44699SOL    HW140958   6.496   1.184  11.946  2.2902 -1.3030  1.7687
44699SOL    HW240959   6.351   1.137  11.949  0.8888  2.5821  0.7495
44700SOL     OW40960  12.334   5.316   5.839 -0.5867  0.1632  0.0337
44700SOL    HW140961  12.426   5.311   5.816 -0.4587 -2.6599  0.7504
44700SOL    HW240962  12.331   5.290   5.931 -2.1490 -0.8673 -0.2632
44701SOL     OW40963   7.898   2.668   8.508 -0.3091 -0.4562 -0.3355
44701SOL    HW140964   7.971   2.607   8.511  0.6849  0.7043 -0.0033
44701SOL    HW240965   7.899   2.710   8.595 -0.6466  0.3769 -0.7252
44702SOL     OW40966   6.959   3.184  10.049 -0.3636  0.2416 -0.3087
44702SOL    HW140967   6.913   3.124   9.990 -2.7558  1.9622 -0.3819
44702SOL    HW240968   6.984   3.257   9.992  0.0901  0.5131  0.2423
44703SOL     OW40969   9.171   8.788  10.237  0.0152 -0.5342  0.6770
44703SOL    HW140970   9.128   8.754  10.315  2.0323 -1.6940  1.3433
44703SOL    HW240971   9.264   8.791  10.259  0.7072 -1.2399 -1.7656
44704SOL     OW40972   0.349   8.866  11.414 -0.2471  0.2556 -0.4297
44704SOL    HW140973   0.281   8.928  11.440  0.7072  0.3698  2.0707
44704SOL    HW240974   0.319   8.782  11.447 -0.0317 -0.0276 -0.9502
44705SOL     OW40975   0.430   3.747   4.630  0.0188 -0.5964  0.1114
44705SOL    HW140976   0.365   3.741   4.700 -1.2318 -0.3550 -1.0015
44705SOL    HW240977   0.481   3.825   4.652  0.4361 -1.1976  1.3876
44706SOL     OW40978   8.133   2.510   6.445  0.5607 -0.1560 -0.1607
44706SOL    HW140979   8.096   2.423   6.459  1.6927 -0.6629 -0.2589
44706SOL    HW240980   8.061   2.570   6.465 -1.4309 -1.1246 -3.5636
44707SOL     OW40981   5.944   2.625   1.285  0.3690 -0.0660  0.2377
44707SOL    HW140982   5.900   2.558   1.232  0.3266 -0.3182  0.5889
44707SOL    HW240983   5.882   2.646   1.355  0.8731 -0.5610  0.8473
44708SOL     OW40984   0.454   9.883   9.974  0.3691 -0.2007  0.4561
44708SOL    HW140985   0.406   9.804   9.947  0.3324  0.3375 -1.1475
44708SOL    HW240986   0.390   9.953   9.964  1.0832  0.3394 -0.3943
44709SOL     OW40987   3.555   9.319   4.144  0.0039 -0.2531 -0.2977
44709SOL    HW140988   3.539   9.410   4.170  1.3871  0.1148 -0.6474
44709SOL    HW240989   3.597   9.280   4.221 -0.2297 -0.4766 -0.2862
44710SOL     OW40990  11.977   5.358  12.263 -0.3428 -0.1669  0.1557
44710SOL    HW140991  11.923   5.411  12.205  0.7119 -0.4015 -1.0874
44710SOL    HW240992  12.066   5.365  12.227  0.1515 -1.2114  1.0984
44711SOL     OW40993   7.655   6.942  12.138  0.5105 -0.4494 -0.2828
44711SOL    HW140994   7.676   6.890  12.061 -1.4333 -0.9216 -0.5351
44711SOL    HW240995   7.677   7.032  12.114  0.3158 -0.6550 -1.2416
44712SOL     OW40996   2.139   4.840   1.952 -0.5014 -0.4040 -0.9621
44712SOL    HW140997   2.065   4.861   2.008  0.2267  0.7889 -0.4172
44712SOL    HW240998   2.108   4.859   1.863 -0.4001  1.4867 -0.6201
44713SOL     OW40999   4.375  11.768   4.833 -0.2768  0.5604  0.6394
44713SOL    HW141000   4.327  11.829   4.890  1.0153  2.2233  0.0224
44713SOL    HW241001   4.332  11.777   4.748 -1.2307 -0.7899  0.9439
44714SOL     OW41002   1.162   5.191   4.959  0.1566  0.6804 -0.4318
44714SOL    HW141003   1.218   5.114   4.967 -1.3714 -0.3496  0.8239
44714SOL    HW241004   1.223   5.265   4.965  1.2531 -0.3369  3.1917
44715SOL     OW41005  11.345  10.403  10.689 -0.0749  0.3607  0.0900
44715SOL    HW141006  11.265  10.394  10.740  0.3103 -2.1464  0.3742
44715SOL    HW241007  11.336  10.340  10.618  1.8009 -0.3249  0.4010
44716SOL     OW41008   4.827   5.731   4.758 -0.4756  0.4913 -0.0460
44716SOL    HW141009   4.731   5.737   4.764 -0.5567 -1.3524  1.3548
44716SOL    HW241010   4.856   5.728   4.849  0.8339 -0.0798 -0.4703
44717SOL     OW41011   1.764   7.489   1.814 -0.3545 -0.3664  0.7194
44717SOL    HW141012   1.853   7.472   1.844 -0.5464 -1.7630  0.5524
44717SOL    HW241013   1.711   7.422   1.856 -1.0367 -0.6968 -0.6023
44718SOL     OW41014   9.831   0.441   0.629 -0.3890 -0.3221  0.1944
44718SOL    HW141015   9.832   0.510   0.563 -0.0778 -1.2342 -0.7769
44718SOL    HW241016   9.886   0.474   0.699 -0.2233  0.4069 -0.2749
44719SOL     OW41017  11.086   5.475   9.062 -0.1198  0.2810  0.7251
44719SOL    HW141018  11.117   5.385   9.073  0.7517  0.4873  0.0325
44719SOL    HW241019  11.164   5.529   9.075 -0.6242  0.9434  1.0729
44720SOL     OW41020   1.551   0.812  11.999  0.0989  0.5211  0.2430
44720SOL    HW141021   1.566   0.769  12.083 -0.2053  0.4909  0.2818
44720SOL    HW241022   1.559   0.742  11.934  0.4858  0.5722  0.2315
44721SOL     OW41023   8.305   5.837   6.331  0.5753 -0.2765 -0.1507
44721SOL    HW141024   8.260   5.837   6.246  0.5676  1.2512 -0.1665
44721SOL    HW241025   8.368   5.909   6.325  1.0579 -0.5942  0.8965
44722SOL     OW41026   7.409   0.177   9.588 -0.8730  0.2054  0.0664
44722SOL    HW141027   7.323   0.211   9.612  0.2673  2.5173  1.1777
44722SOL    HW241028   7.451   0.155   9.671 -0.6339 -1.7067 -0.5052
44723SOL     OW41029  12.056  12.455   5.475 -0.3207  0.1554  0.0059
44723SOL    HW141030  12.149  12.435   5.486 -0.1277  1.0831  0.0669
44723SOL    HW241031  12.019  12.375   5.436 -0.0105 -1.2270  2.3782
44724SOL     OW41032  10.291   6.092   4.104 -0.0513 -0.0129  0.3199
44724SOL    HW141033  10.245   6.064   4.183  0.2520  0.0684  0.5283
44724SOL    HW241034  10.313   6.184   4.121 -0.1882  0.0734  0.0438
44725SOL     OW41035   1.366   6.389   6.426 -0.4975 -0.4187  0.3025
44725SOL    HW141036   1.363   6.296   6.448  0.7349 -0.4990  0.2191
44725SOL    HW241037   1.336   6.434   6.505  0.2463 -0.8488  0.8474
44726SOL     OW41038  11.403   8.728  11.008 -0.1151 -0.0869 -0.0711
44726SOL    HW141039  11.473   8.756  10.948 -0.1352 -1.2049 -0.6387
44726SOL    HW241040  11.322   8.747  10.960 -0.1784  0.3738  0.2146
44727SOL     OW41041   7.815   1.651   7.599 -0.1682 -0.1496  0.0119
44727SOL    HW141042   7.839   1.742   7.581  0.5854 -0.5795 -1.3337
44727SOL    HW241043   7.741   1.657   7.659  0.4588  1.3276  0.7030
44728SOL     OW41044   5.683   6.070  10.976 -0.3884  0.0134 -0.4312
44728SOL    HW141045   5.658   5.980  10.996  0.6618  0.0696  1.3638
44728SOL    HW241046   5.748   6.061  10.906  0.1820 -0.6875  0.1707
44729SOL     OW41047   4.612   3.365  11.495  0.3794  0.1021 -0.3996
44729SOL    HW141048   4.579   3.315  11.420 -1.2575  1.7959 -0.9140
44729SOL    HW241049   4.698   3.395  11.467  0.6294 -0.9362 -0.7878
44730SOL     OW41050   5.675   0.684   1.305 -0.3270 -0.1024  0.2183
44730SOL    HW141051   5.688   0.667   1.212 -0.6873  0.6102  0.0303
44730SOL    HW241052   5.736   0.756   1.325 -1.8564  1.3251 -0.0197
44731SOL     OW41053   2.257  11.631   7.368 -0.3709  0.3461 -0.0068
44731SOL    HW141054   2.266  11.583   7.286 -0.9822 -0.8786  0.6241
44731SOL    HW241055   2.167  11.614   7.396 -0.0279  0.3865  1.1452
44732SOL     OW41056  10.732   3.875   9.410 -0.7255 -0.2398 -0.3816
44732SOL    HW141057  10.759   3.924   9.333  0.4917  0.0496  0.2151
44732SOL    HW241058  10.698   3.941   9.470  0.7434 -0.1244  0.3496
44733SOL     OW41059   4.872   0.137   4.314  0.3930 -0.1515 -0.6161
44733SOL    HW141060   4.921   0.128   4.396  1.8703  0.5756 -1.3671
44733SOL    HW241061   4.938   0.126   4.246 -0.6472  0.1251 -1.6987
44734SOL     OW41062   2.532   9.128   2.146  0.3074  0.0193 -0.2924
44734SOL    HW141063   2.549   9.194   2.078 -0.4464 -0.5617 -1.0717
44734SOL    HW241064   2.491   9.177   2.217 -0.5931  0.3555 -1.0135
44735SOL     OW41065   8.105  12.400   6.958  0.0891  0.1550  0.2404
44735SOL    HW141066   8.121  12.445   7.042  0.4363 -1.7450  1.2392
44735SOL    HW241067   8.032  12.341   6.977  0.9548 -1.1690 -0.4409
44736SOL     OW41068   4.419   6.109  10.695 -0.1164  0.1019  0.2847
44736SOL    HW141069   4.337   6.150  10.723 -0.5182 -1.0667  0.8667
44736SOL    HW241070   4.393   6.036  10.640  0.6332  1.2457 -1.7127
44737SOL     OW41071   8.965   3.492   0.286 -0.0378 -0.1410  0.6379
44737SOL    HW141072   8.947   3.434   0.212 -0.0618 -0.4730  0.9039
44737SOL    HW241073   8.946   3.440   0.363 -0.5564  0.3886  0.8740
44738SOL     OW41074   3.877   8.666   0.323  0.4133 -0.4385  0.6958
44738SOL    HW141075   3.925   8.584   0.312  3.0180  0.9987  0.4111
44738SOL    HW241076   3.800   8.643   0.374  0.2676 -3.2827 -0.6210
44739SOL     OW41077   7.151   2.229   4.724 -0.4151 -0.1626 -0.7987
44739SOL    HW141078   7.227   2.243   4.668 -0.5377  0.8931 -0.7212
44739SOL    HW241079   7.115   2.145   4.695 -0.3272  0.2352 -2.1234
44740SOL     OW41080   6.706   1.748  11.365  0.3112  0.5629  0.0289
44740SOL    HW141081   6.776   1.733  11.429  0.5780  2.0134  0.0982
44740SOL    HW241082   6.626   1.738  11.416  0.4085 -1.3736 -0.1057
44741SOL     OW41083   4.323   5.863   5.567  0.0128  0.0905  0.0699
44741SOL    HW141084   4.232   5.868   5.596 -0.3305  0.6868 -1.0339
44741SOL    HW241085   4.351   5.955   5.560  0.3536 -0.0551 -0.5863
44742SOL     OW41086  11.877   2.145  11.216 -0.0677 -0.6006  0.2362
44742SOL    HW141087  11.833   2.171  11.135  1.4057  0.0459 -0.4098
44742SOL    HW241088  11.939   2.216  11.234  1.1286 -1.7097  0.7301
44743SOL     OW41089   9.144   1.018   4.798 -0.0623 -0.7897 -0.9793
44743SOL    HW141090   9.076   1.058   4.744 -0.5332 -0.5282 -0.2152
44743SOL    HW241091   9.116   0.927   4.808  0.4491 -1.0579 -1.8251
44744SOL     OW41092   5.417   7.841   8.839 -0.5605 -0.5147 -0.0511
44744SOL    HW141093   5.395   7.916   8.783 -2.0086 -2.3823 -2.1911
44744SOL    HW241094   5.362   7.853   8.917  1.1642  1.9184  0.9139
44745SOL     OW41095   1.704   5.864   1.661 -0.2586 -0.5219 -0.1957
44745SOL    HW141096   1.691   5.804   1.734  0.1067 -1.5957 -0.9817
44745SOL    HW241097   1.616   5.889   1.634 -0.3894  0.1616  0.8107
44746SOL     OW41098   3.270   7.673   4.796  0.5555 -0.1868 -0.4424
44746SOL    HW141099   3.298   7.742   4.857  0.1747  1.2005 -1.8003
44746SOL    HW241100   3.351   7.629   4.772  0.7809 -0.3747  0.5943
44747SOL     OW41101   1.249  10.681   1.253 -0.5186  0.1370  0.4990
44747SOL    HW141102   1.333  10.703   1.293 -0.2381 -2.2457  1.3909
44747SOL    HW241103   1.188  10.672   1.326 -1.0713 -0.0769  0.0268
44748SOL     OW41104   7.248   1.312   1.578  0.3287 -0.9190  0.2249
44748SOL    HW141105   7.230   1.401   1.609 -1.0585 -0.8487 -0.7305
44748SOL    HW241106   7.174   1.260   1.610 -0.0761 -1.2466 -1.1890
44749SOL     OW41107  12.213   3.293   2.847 -0.5897 -0.1713 -0.4985
44749SOL    HW141108  12.261   3.232   2.792 -1.0343 -0.7189 -0.2856
44749SOL    HW241109  12.262   3.297   2.929 -2.0547 -2.4624  0.5872
44750SOL     OW41110   4.473   2.978   1.075  0.3858 -0.1641  0.1543
44750SOL    HW141111   4.556   2.940   1.104 -0.8232 -1.4576  2.1570
44750SOL    HW241112   4.447   2.924   1.000  2.0454  1.2425 -1.5188
44751SOL     OW41113   6.851   0.289  11.104  0.3616  0.0471 -0.3862
44751SOL    HW141114   6.928   0.257  11.056 -0.1973  0.6881 -1.7617
44751SOL    HW241115   6.798   0.210  11.119  0.4339 -0.1296 -1.0430
44752SOL     OW41116   7.249  10.172   0.016  0.0542  0.2075 -0.1159
44752SOL    HW141117   7.186  10.105  -0.009  0.1754 -0.1289  0.4618
44752SOL    HW241118   7.334  10.128   0.009  0.3875  1.0738 -2.3377
44753SOL     OW41119   9.630   1.541   2.344  0.1672 -0.2922 -0.3575
44753SOL    HW141120   9.623   1.636   2.334  0.7571 -0.0262  1.3638
44753SOL    HW241121   9.572   1.520   2.418  1.3987 -1.0023  0.4406
44754SOL     OW41122   0.836   7.426   3.442  0.0496  0.2068  0.7624
44754SOL    HW141123   0.760   7.476   3.414 -0.9204 -1.4738  0.2864
44754SOL    HW241124   0.826   7.340   3.401  3.2919  0.5319 -1.1337
44755SOL     OW41125   1.305   6.054   8.569 -0.2153  0.1355  0.1591
44755SOL    HW141126   1.253   6.131   8.546 -0.1003 -0.4085 -2.1750
44755SOL    HW241127   1.338   6.022   8.485  0.4730 -1.9445  1.1645
44756SOL     OW41128  11.074   4.917   4.386  0.0080  0.5722  0.2182
44756SOL    HW141129  11.018   4.872   4.323  0.2095 -1.1261  1.1831
44756SOL    HW241130  11.052   4.877   4.470  2.6642 -0.2453  0.6290
44757SOL     OW41131   0.170   9.714   7.187 -0.6176 -0.5923 -0.0549
44757SOL    HW141132   0.171   9.670   7.102 -0.3781 -0.1280 -0.2934
44757SOL    HW241133   0.152   9.644   7.250  1.4626 -1.3625 -0.2535
44758SOL     OW41134   6.205   3.105   6.165 -0.3783  0.2650  0.2721
44758SOL    HW141135   6.216   3.121   6.071  0.4328  1.4360  0.5470
44758SOL    HW241136   6.294   3.107   6.201 -0.7085  0.1942  1.1231
44759SOL     OW41137  11.191   6.518   7.981 -0.0277  0.2551  0.4245
44759SOL    HW141138  11.176   6.427   7.955 -0.9251  0.5498 -0.1328
44759SOL    HW241139  11.240   6.556   7.908  1.3964 -0.0616  1.1676
44760SOL     OW41140   1.261   5.080   6.807 -0.4385  0.2039  0.2891
44760SOL    HW141141   1.266   5.148   6.740  1.1383  1.1615  1.3004
44760SOL    HW241142   1.246   4.999   6.759 -2.3416  1.2209 -0.9655
44761SOL     OW41143   1.672   7.928   9.864  0.3525 -0.3961 -0.5304
44761SOL    HW141144   1.639   7.845   9.828  0.8001 -0.8723  0.1421
44761SOL    HW241145   1.660   7.991   9.793 -1.1761 -0.7475 -0.6315
44762SOL     OW41146   8.907   7.346   7.753  0.0795  0.2175  0.5786
44762SOL    HW141147   8.861   7.377   7.675  1.5001  2.4485  0.5394
44762SOL    HW241148   8.974   7.412   7.769  1.1181 -1.2117  2.5529
44763SOL     OW41149   1.059   2.802   0.159 -0.0639 -0.0679  0.2018
44763SOL    HW141150   0.974   2.765   0.180 -0.6158 -0.6214 -2.5379
44763SOL    HW241151   1.044   2.855   0.081  2.0773 -0.2217 -0.4088
44764SOL     OW41152   9.727   4.172   5.458  0.5384 -0.5362  0.0155
44764SOL    HW141153   9.682   4.141   5.379 -0.8747 -0.3516  0.7293
44764SOL    HW241154   9.710   4.266   5.459 -1.5286 -0.8735  1.7993
44765SOL     OW41155   5.934  10.595  11.427  0.6028 -0.3019  0.3083
44765SOL    HW141156   6.005  10.636  11.476  0.4858  0.1379  0.1082
44765SOL    HW241157   5.900  10.528  11.486 -0.4177  1.1016  1.3762
44766SOL     OW41158   4.414   6.174   7.976 -0.1305 -0.1811 -0.3391
44766SOL    HW141159   4.326   6.150   8.005  0.0040  0.6496  0.8056
44766SOL    HW241160   4.412   6.161   7.881 -1.8949  1.0556 -0.5229
44767SOL     OW41161  12.448   5.179   9.608  0.4657 -0.2514 -0.2523
44767SOL    HW141162  12.467   5.154   9.699  1.7379 -0.0315 -0.4383
44767SOL    HW241163  12.453   5.096   9.560 -2.5407 -0.7847  0.1750
44768SOL     OW41164   8.426   2.662   0.104 -0.2963  0.5306 -0.5428
44768SOL    HW141165   8.501   2.604   0.119  0.0706  1.0451 -0.3743
44768SOL    HW241166   8.356   2.603   0.079 -0.7272 -0.3401  2.2988
44769SOL     OW41167   3.607   8.859  10.679  1.1378 -0.0159 -0.3519
44769SOL    HW141168   3.521   8.835  10.644  1.0385 -0.6360  0.2715
44769SOL    HW241169   3.665   8.863  10.603  0.9212 -1.2696 -0.6135
44770SOL     OW41170  11.886   3.151   8.557 -0.2996  0.5137 -0.3056
44770SOL    HW141171  11.967   3.123   8.513 -1.3116 -3.5207  0.0347
44770SOL    HW241172  11.905   3.241   8.586  4.4474 -0.5048  0.6083
44771SOL     OW41173   6.825   2.443  12.382  0.2506 -0.0695  0.2684
44771SOL    HW141174   6.912   2.437  12.343 -0.4622 -1.2930 -1.2767
44771SOL    HW241175   6.827   2.523  12.434  2.2857 -0.0839  0.2893
44772SOL     OW41176   4.224   1.805  11.161  0.2531  0.2316  0.1803
44772SOL    HW141177   4.141   1.824  11.119 -1.6375 -3.5899  1.7719
44772SOL    HW241178   4.275   1.758  11.096 -0.6297 -1.2299  0.5196
44773SOL     OW41179  11.210   9.526   0.944 -0.0845 -0.3037 -0.0926
44773SOL    HW141180  11.209   9.581   1.023  0.1219  0.1701 -0.4184
44773SOL    HW241181  11.277   9.460   0.962  0.7321  0.4577 -0.3102
44774SOL     OW41182  10.154   1.290   8.421  0.1386 -0.4474  0.2339
44774SOL    HW141183  10.186   1.370   8.462 -0.9277  0.6145 -0.9159
44774SOL    HW241184  10.227   1.260   8.368  0.0841  0.5876 -0.4526
44775SOL     OW41185   7.219  10.269   2.390 -1.0856 -0.4860 -0.4451
44775SOL    HW141186   7.164  10.327   2.444  0.5231  1.0566 -0.3777
44775SOL    HW241187   7.202  10.297   2.300 -0.4606 -0.0409 -0.4268
44776SOL     OW41188   5.742   7.020   6.915 -0.0879  0.3834  0.0740
44776SOL    HW141189   5.723   7.113   6.902  1.3507  1.2805  3.2326
44776SOL    HW241190   5.790   7.018   6.999 -0.4366 -3.2516  0.3104
44777SOL     OW41191   9.959  10.722   5.783 -0.4429  0.0360 -0.1161
44777SOL    HW141192   9.896  10.771   5.730  1.8031  1.5603 -1.6143
44777SOL    HW241193   9.933  10.739   5.873 -1.1656  2.0939 -0.6488
44778SOL     OW41194   3.836   5.921   9.176  0.1005  0.5351  0.1968
44778SOL    HW141195   3.928   5.896   9.176  0.3829  1.2297  2.6890
44778SOL    HW241196   3.792   5.852   9.128  1.9189  0.2221 -1.1146
44779SOL     OW41197  12.478   4.711   6.254  0.3456 -0.0236  0.3842
44779SOL    HW141198  12.555   4.766   6.239  0.3133  0.2434  1.1617
44779SOL    HW241199  12.420   4.730   6.180  1.2793 -0.6951 -0.5485
44780SOL     OW41200   9.866   6.146   2.556 -0.1362 -0.1967 -0.0048
44780SOL    HW141201   9.793   6.205   2.537  1.4931  2.0972  0.3361
44780SOL    HW241202   9.896   6.117   2.470 -0.4180  0.1882 -0.2368
44781SOL     OW41203   2.311   2.405   2.410 -0.4280  0.3108 -0.2128
44781SOL    HW141204   2.293   2.400   2.504  1.9875 -0.2887  0.2743
44781SOL    HW241205   2.316   2.314   2.382  0.9596  0.4530 -0.4655
44782SOL     OW41206   9.758   2.523   9.210  0.2288 -0.0614 -0.4036
44782SOL    HW141207   9.718   2.600   9.170  0.3230  0.2012 -0.0057
44782SOL    HW241208   9.686   2.479   9.255  0.0808 -0.4770 -1.0424
44783SOL     OW41209   9.309   7.560   5.699  0.3457 -0.2534 -0.3915
44783SOL    HW141210   9.332   7.524   5.785 -2.9056  0.6809  0.9991
44783SOL    HW241211   9.277   7.484   5.650 -0.4557 -0.3416  0.2486
44784SOL     OW41212   7.670   2.712   0.385 -0.4305  0.3620 -0.0375
44784SOL    HW141213   7.619   2.778   0.339 -2.6565  1.5534  3.6572
44784SOL    HW241214   7.605   2.647   0.412  1.1576 -1.5421 -0.6151
44785SOL     OW41215   0.586   1.859   4.391  0.1117 -0.1467 -0.3590
44785SOL    HW141216   0.629   1.902   4.318 -1.0061  0.3728 -0.7390
44785SOL    HW241217   0.527   1.794   4.350 -0.1145 -0.2358  0.0946
44786SOL     OW41218  10.531   8.988  10.781 -0.0440 -0.6114 -0.5197
44786SOL    HW141219  10.543   9.040  10.701 -1.0460 -0.5812 -0.6679
44786SOL    HW241220  10.503   8.902  10.749  1.3873 -1.1999 -0.2656
44787SOL     OW41221   2.802   3.227   2.161 -0.4757  0.2573 -0.2304
44787SOL    HW141222   2.757   3.180   2.232 -0.6005 -1.5142 -1.4099
44787SOL    HW241223   2.732   3.278   2.119 -0.6083  0.4837  0.2517
44788SOL     OW41224   6.434   2.809   9.296  0.3983 -0.1807 -0.2035
44788SOL    HW141225   6.467   2.720   9.288  0.6749 -0.2060  1.0105
44788SOL    HW241226   6.486   2.860   9.234  1.1340 -0.6348  0.0333
44789SOL     OW41227   1.315   3.185   3.525 -0.3121 -0.3218  0.1370
44789SOL    HW141228   1.246   3.139   3.478 -0.3363 -0.5056  0.3505
44789SOL    HW241229   1.396   3.148   3.491 -0.3339 -0.5981  0.3853
44790SOL     OW41230   3.874   4.198   7.494 -0.2548 -0.2632 -0.4917
44790SOL    HW141231   3.908   4.160   7.574  0.9335  1.4895 -0.1209
44790SOL    HW241232   3.928   4.161   7.424  1.2660  1.0753 -0.0801
44791SOL     OW41233   1.902  11.303   1.684 -0.4099 -0.1437  0.0888
44791SOL    HW141234   1.993  11.326   1.704 -1.1347  1.6150  1.6035
44791SOL    HW241235   1.857  11.308   1.768 -1.9039 -1.1763 -0.6099
44792SOL     OW41236   0.815   7.739   1.055  0.1107  0.4520 -0.3223
44792SOL    HW141237   0.894   7.784   1.085 -0.0769  0.0156  0.8929
44792SOL    HW241238   0.837   7.646   1.062 -0.2446  0.3348 -0.7353
44793SOL     OW41239   7.452   4.284   4.913 -0.5413 -0.3852  0.2651
44793SOL    HW141240   7.381   4.231   4.948 -1.8618 -0.0218 -1.7120
44793SOL    HW241241   7.471   4.247   4.827  2.3254 -1.0146  1.0611
44794SOL     OW41242   4.453   9.732   9.723 -0.0150  0.7086  0.0776
44794SOL    HW141243   4.388   9.760   9.787  0.5761  1.0202  0.5662
44794SOL    HW241244   4.529   9.707   9.776 -0.1390 -0.7910 -0.4109
44795SOL     OW41245   8.157   2.550  11.731 -0.2834 -0.3187  0.5139
44795SOL    HW141246   8.191   2.635  11.701 -0.9998 -0.4581 -0.7946
44795SOL    HW241247   8.167   2.493  11.655  0.8054 -1.6213  1.5887
44796SOL     OW41248  10.663   6.745  11.626  0.0118  0.1549 -0.5265
44796SOL    HW141249  10.729   6.807  11.596 -0.4114  0.3609 -1.0474
44796SOL    HW241250  10.580   6.791  11.616 -0.1490  0.2308  0.9803
44797SOL     OW41251   7.693   8.616   8.405  0.2504 -0.6229  0.5067
44797SOL    HW141252   7.749   8.670   8.462 -1.6679  1.9460  0.1680
44797SOL    HW241253   7.643   8.561   8.466  0.5256 -0.2411  1.0940
44798SOL     OW41254   5.197   6.365   0.062  0.1099 -0.1120  0.4996
44798SOL    HW141255   5.135   6.403  -0.001  0.3989  2.1108  1.4521
44798SOL    HW241256   5.142   6.338   0.136 -0.0326 -1.0622  0.0595
44799SOL     OW41257   0.266   4.402   7.489  0.5287  0.1717  0.1876
44799SOL    HW141258   0.223   4.473   7.441 -0.1573  0.6604  1.4961
44799SOL    HW241259   0.195   4.353   7.529  1.0360 -0.9163 -0.1911
44800SOL     OW41260   8.741   3.701   5.395  0.3902 -0.7205  0.0680
44800SOL    HW141261   8.647   3.698   5.377  0.4933 -0.1905 -0.6084
44800SOL    HW241262   8.747   3.708   5.490 -0.2314 -1.5016  0.1724
44801SOL     OW41263  11.638   6.165   3.962 -0.6805 -0.2353 -0.3994
44801SOL    HW141264  11.718   6.163   3.909 -0.5428 -0.7351 -0.1776
44801SOL    HW241265  11.567   6.148   3.899 -0.6927  0.9318 -0.7256
44802SOL     OW41266  10.094   0.272   9.190 -0.7146  0.2853 -0.4276
44802SOL    HW141267  10.092   0.199   9.128  1.3321 -0.5760  0.4491
44802SOL    HW241268  10.097   0.350   9.134 -0.3556 -0.4017 -1.4014
44803SOL     OW41269   6.921  11.829   0.872  0.8392 -0.1377 -0.3656
44803SOL    HW141270   6.900  11.749   0.825  2.6967 -3.0670  3.2601
44803SOL    HW241271   7.013  11.846   0.851  0.7040  0.5489 -0.4280
44804SOL     OW41272   2.610   3.540   0.618  0.2521 -0.4638  0.4907
44804SOL    HW141273   2.640   3.479   0.686  1.9039 -0.0981  0.1362
44804SOL    HW241274   2.524   3.569   0.648 -0.3140 -2.4796  0.9757
44805SOL     OW41275  10.498   6.863  11.198 -0.1349  0.3641 -0.1818
44805SOL    HW141276  10.514   6.791  11.138 -0.0140  0.9905 -0.9086
44805SOL    HW241277  10.564   6.851  11.267  1.3011  0.9743 -1.3852
44806SOL     OW41278  12.030   2.495   9.244 -0.8780  0.6404  0.2391
44806SOL    HW141279  12.104   2.514   9.186 -0.2599 -0.7127  0.5481
44806SOL    HW241280  12.037   2.401   9.261 -3.2563  0.2597 -0.5284
44807SOL     OW41281   3.094   5.709   6.500 -0.3691 -0.1286  0.1573
44807SOL    HW141282   3.188   5.691   6.494 -0.5685 -0.9778 -0.4470
44807SOL    HW241283   3.086   5.802   6.476  0.3215 -0.0207  0.3213
44808SOL     OW41284   8.900   3.146  10.425  0.7422 -0.6871  0.7638
44808SOL    HW141285   8.922   3.231  10.387  0.2126  0.2191  2.3751
44808SOL    HW241286   8.937   3.082  10.364 -1.3780  0.5952 -2.0978
44809SOL     OW41287   5.889   3.162   2.306  0.5324 -0.3214  0.3687
44809SOL    HW141288   5.924   3.157   2.395 -0.4122  0.2190  0.7857
44809SOL    HW241289   5.795   3.152   2.316  0.1652  1.8185 -0.3294
44810SOL     OW41290   2.933   0.892   3.208 -0.3798  0.1352  0.1825
44810SOL    HW141291   2.987   0.962   3.172 -0.1260  0.3267  0.9290
44810SOL    HW241292   2.978   0.811   3.182 -0.3158  0.2611 -0.1062
44811SOL     OW41293   3.578   8.895   8.586 -0.1353  0.2181  0.4024
44811SOL    HW141294   3.567   8.807   8.622  1.1033  0.3832  1.2473
44811SOL    HW241295   3.537   8.891   8.499 -3.3294 -0.1578  1.7892
44812SOL     OW41296   8.605   2.142   4.941  0.2258  0.0534  0.5961
44812SOL    HW141297   8.639   2.140   4.852 -2.0181 -0.2334 -0.3402
44812SOL    HW241298   8.551   2.221   4.944 -2.1196 -1.4389  0.6594
44813SOL     OW41299   1.071   6.047   5.800 -0.1140  0.4354 -0.5598
44813SOL    HW141300   1.161   6.041   5.769 -0.5559  0.4059 -1.9041
44813SOL    HW241301   1.061   6.138   5.828  1.1637 -0.2158  2.4380
44814SOL     OW41302   5.764   6.600   4.968  0.1163 -0.3522  0.2212
44814SOL    HW141303   5.693   6.609   4.905 -1.4863  0.5500  2.0216
44814SOL    HW241304   5.723   6.555   5.043  1.5778 -0.2154  1.1346
44815SOL     OW41305   8.224   4.525   3.448  0.3150 -0.0478  0.1172
44815SOL    HW141306   8.178   4.591   3.396 -0.0771 -0.3155  0.1194
44815SOL    HW241307   8.197   4.543   3.538  1.5041  0.8291  0.3166
44816SOL     OW41308   7.767  11.233   6.276  0.9226 -0.1088  0.7847
44816SOL    HW141309   7.808  11.319   6.269 -0.6265  0.7218  1.3587
44816SOL    HW241310   7.797  11.185   6.199  2.1012  0.8052  0.6470
44817SOL     OW41311   5.913   6.621   9.859  0.1571  0.1260  0.4160
44817SOL    HW141312   5.879   6.627   9.770 -1.1565  3.3215  1.0111
44817SOL    HW241313   5.902   6.529   9.882 -2.2100 -0.2242 -1.6849
44818SOL     OW41314  10.157  12.459   8.647 -0.3389  0.5939 -1.0281
44818SOL    HW141315  10.194  12.543   8.676 -1.0018  0.2070  1.0816
44818SOL    HW241316  10.234  12.405   8.629  0.2113  0.3879  1.5449
44819SOL     OW41317   6.838   9.091  10.384  0.0391  0.2173  0.0261
44819SOL    HW141318   6.867   9.013  10.336 -0.6026 -0.3533  0.5375
44819SOL    HW241319   6.754   9.113  10.344  0.3742  0.8528 -0.3347
44820SOL     OW41320  10.652   5.057   8.265 -0.0874 -0.4062 -0.0712
44820SOL    HW141321  10.575   5.069   8.208  0.5585  0.2637 -0.8352
44820SOL    HW241322  10.652   5.135   8.321  0.2645 -0.1845 -0.3700
44821SOL     OW41323   8.232  12.026  11.828  0.0365  0.3906 -0.1505
44821SOL    HW141324   8.170  12.099  11.828 -2.4414 -1.5812  0.8409
44821SOL    HW241325   8.311  12.062  11.868 -0.8331  2.6986 -0.3398
44822SOL     OW41326  11.848   4.059   5.452  0.6158  0.6474  0.5729
44822SOL    HW141327  11.833   4.137   5.507  0.1994  0.9918 -0.0218
44822SOL    HW241328  11.769   4.006   5.463  0.9216  0.2792  1.0172
44823SOL     OW41329   0.319   5.885   3.265  0.3473  0.4300  0.5098
44823SOL    HW141330   0.369   5.914   3.189 -0.9804  1.3780 -0.0473
44823SOL    HW241331   0.278   5.965   3.299 -0.9151 -0.3198  0.8186
44824SOL     OW41332  10.497   9.780   3.266  0.0720  0.2940 -0.0720
44824SOL    HW141333  10.447   9.857   3.292  0.0569 -0.0278  0.8968
44824SOL    HW241334  10.453   9.707   3.310 -0.0664 -0.3133 -1.1697
44825SOL     OW41335   4.275   3.230   3.823  0.0345  0.3790 -0.4541
44825SOL    HW141336   4.317   3.148   3.849  0.4405  0.8579  0.4308
44825SOL    HW241337   4.344   3.281   3.783 -0.0591  0.5678 -0.3748
44826SOL     OW41338   4.225  10.481   9.634 -0.1054 -0.0538 -0.3514
44826SOL    HW141339   4.216  10.529   9.716  1.6602  1.1459 -0.7987
44826SOL    HW241340   4.185  10.396   9.652  0.7928 -0.0626  1.9772
44827SOL     OW41341   7.279   8.334   1.848  0.0277 -0.1063  0.3381
44827SOL    HW141342   7.344   8.304   1.784 -1.5310 -2.4543 -0.2845
44827SOL    HW241343   7.331   8.364   1.923  1.8530 -0.6619 -0.6505
44828SOL     OW41344  11.771   8.358   6.297  0.3026  0.1597 -0.0874
44828SOL    HW141345  11.800   8.361   6.205  0.3153  0.1106 -0.0847
44828SOL    HW241346  11.826   8.292   6.338 -0.5167 -0.7062 -0.3300
44829SOL     OW41347   0.653   0.356  12.284  0.3545  0.1855 -0.5334
44829SOL    HW141348   0.580   0.329  12.228  0.3460 -0.8568 -0.0501
44829SOL    HW241349   0.611   0.395  12.361  0.3409  0.5646 -0.7294
44830SOL     OW41350   1.794   8.907   5.529  0.6042 -0.1881  0.0693
44830SOL    HW141351   1.713   8.911   5.580  0.0358  0.6444 -0.8677
44830SOL    HW241352   1.790   8.822   5.484 -0.3870  0.3917 -0.9762
44831SOL     OW41353  10.896  10.188   1.426 -0.3840 -0.0322  0.0462
44831SOL    HW141354  10.835  10.256   1.399 -0.4746 -0.2786 -0.3808
44831SOL    HW241355  10.871  10.168   1.517  0.0832  0.9702  0.4103
44832SOL     OW41356  11.211   2.759   7.813  0.1580 -0.0792  0.5365
44832SOL    HW141357  11.186   2.846   7.784  3.8907  1.0822  0.2691
44832SOL    HW241358  11.200   2.761   7.909 -2.9814 -0.6315  0.3106
44833SOL     OW41359   9.157   8.287  10.292  0.2902 -0.4570  0.1057
44833SOL    HW141360   9.082   8.313  10.239  1.0474 -0.5241 -1.0328
44833SOL    HW241361   9.232   8.332  10.251  0.7960  0.1280  1.6025
44834SOL     OW41362   7.208   9.130   4.868  0.2817 -0.1045 -0.0200
44834SOL    HW141363   7.226   9.073   4.793  1.1279  0.4167 -0.2374
44834SOL    HW241364   7.277   9.196   4.864  2.1022 -1.5819  2.7724
44835SOL     OW41365  11.661  10.860   5.140 -0.0659  0.2406  0.0502
44835SOL    HW141366  11.741  10.878   5.190 -0.9319  2.1380  0.8166
44835SOL    HW241367  11.692  10.813   5.063  1.6346 -0.2234  0.9626
44836SOL     OW41368   2.370   0.292   1.306 -0.0095  0.0673 -0.0101
44836SOL    HW141369   2.359   0.200   1.280  0.1563 -0.1082  0.5325
44836SOL    HW241370   2.338   0.342   1.230  0.8458 -0.4334 -0.7204
44837SOL     OW41371   1.145   4.265   6.368  0.6787  0.7414 -0.1422
44837SOL    HW141372   1.154   4.276   6.273 -1.0684 -0.4435 -0.4945
44837SOL    HW241373   1.179   4.177   6.385 -2.7989 -0.8520 -0.4339
44838SOL     OW41374   3.871   8.935   5.413 -0.8663  0.4595  0.4952
44838SOL    HW141375   3.941   9.001   5.415 -0.7681  0.3777 -0.0010
44838SOL    HW241376   3.856   8.913   5.504 -0.8298  1.0959  0.6587
44839SOL     OW41377   9.095   2.798  11.946  0.1155  0.1352  0.0502
44839SOL    HW141378   9.037   2.834  11.879  0.0835  0.6983  0.3715
44839SOL    HW241379   9.108   2.870  12.008 -0.3488 -0.5510  0.9789
44840SOL     OW41380   8.323   1.052  10.923 -0.4571  0.3528  0.0838
44840SOL    HW141381   8.411   1.090  10.928 -1.0015  1.6028  0.5467
44840SOL    HW241382   8.279   1.104  10.856 -0.9505 -0.0245  0.1180
44841SOL     OW41383   0.402   9.741  12.051 -0.0508 -0.2743 -0.4819
44841SOL    HW141384   0.361   9.698  12.126 -2.2833  1.1235 -0.7939
44841SOL    HW241385   0.340   9.726  11.979  0.6053  0.8619 -1.3133
44842SOL     OW41386   0.234   4.801   0.844 -0.0099  0.2601 -0.1735
44842SOL    HW141387   0.215   4.816   0.937  0.3602  1.0026 -0.2135
44842SOL    HW241388   0.330   4.801   0.839 -0.0201 -0.3547 -0.4678
44843SOL     OW41389   9.312   7.172   7.934  0.6412  0.0717 -0.0148
44843SOL    HW141390   9.225   7.170   7.894  0.5250 -0.9601  0.2658
44843SOL    HW241391   9.307   7.109   8.006  1.6195  0.0074  0.0065
44844SOL     OW41392   5.345  10.319   7.040  0.2414  0.0560  0.3570
44844SOL    HW141393   5.412  10.257   7.069 -0.0105  0.1219  1.0912
44844SOL    HW241394   5.338  10.304   6.945 -1.7035 -2.9401  0.8283
44845SOL     OW41395   6.674   4.195   9.109  0.1925 -0.4718 -0.4195
44845SOL    HW141396   6.596   4.154   9.072  0.3710 -0.8753 -0.3520
44845SOL    HW241397   6.724   4.122   9.147  0.6820 -0.2344 -0.6041
44846SOL     OW41398  10.802   8.170   7.925 -0.3888 -0.0878  0.1505
44846SOL    HW141399  10.888   8.141   7.895 -0.4382 -1.4356  1.1639
44846SOL    HW241400  10.795   8.260   7.896  0.3120 -0.7205 -2.1639
44847SOL     OW41401   4.294   2.064  12.273  0.2648  0.2229 -0.7423
44847SOL    HW141402   4.241   2.079  12.195  0.3785  0.3324 -0.8000
44847SOL    HW241403   4.240   2.096  12.345 -0.8437 -2.0787 -0.4871
44848SOL     OW41404   2.671   1.520   2.587 -0.7126  0.6169 -0.0133
44848SOL    HW141405   2.602   1.454   2.583  1.6603 -2.0506 -0.2161
44848SOL    HW241406   2.648   1.575   2.661 -3.5937  0.5879 -0.7602
44849SOL     OW41407   5.593   7.052  11.607  0.5889 -0.0283 -0.1083
44849SOL    HW141408   5.668   6.993  11.620 -0.9079 -1.6926  1.5041
44849SOL    HW241409   5.631   7.129  11.564  3.0215 -1.2359 -0.3172
44850SOL     OW41410   5.521   9.432   1.223  0.0735  0.0443 -0.6403
44850SOL    HW141411   5.589   9.404   1.284 -1.6176 -0.2322  1.2444
44850SOL    HW241412   5.528   9.527   1.221  0.1114  0.0603  0.0533
44851SOL     OW41413   0.948  12.237   2.811 -0.4280 -0.1160 -0.1014
44851SOL    HW141414   1.027  12.187   2.833 -0.5185  0.7703  2.6154
44851SOL    HW241415   0.923  12.205   2.724  0.9050 -2.9529  0.4406
44852SOL     OW41416   4.645   9.140  12.287  0.2968 -0.0705  0.7429
44852SOL    HW141417   4.665   9.181  12.203 -0.1829  0.5468  0.9158
44852SOL    HW241418   4.665   9.208  12.352 -2.5956  0.7610  0.9063
44853SOL     OW41419   4.695   8.126  11.989  0.0330 -0.3579 -0.1598
44853SOL    HW141420   4.622   8.071  11.961 -0.9254  1.4056 -1.3253
44853SOL    HW241421   4.773   8.080  11.959 -0.7169 -1.1331 -0.9873
44854SOL     OW41422  11.720   0.234   1.973  0.1089 -0.6961  1.0408
44854SOL    HW141423  11.775   0.155   1.970  1.6652  0.3650  0.6107
44854SOL    HW241424  11.775   0.300   2.015 -0.9186  0.3626  0.7698
44855SOL     OW41425   4.529   7.878   3.392  0.0807  0.1064 -0.5996
44855SOL    HW141426   4.438   7.847   3.394  0.2473 -0.6062 -2.1606
44855SOL    HW241427   4.526   7.958   3.339  0.6073 -1.0900 -2.5760
44856SOL     OW41428   8.813   4.093  11.229 -0.3216 -0.1350  0.3761
44856SOL    HW141429   8.805   4.014  11.282  0.9495 -0.2741  0.3889
44856SOL    HW241430   8.728   4.102  11.186 -1.7543  0.4829  3.1073
44857SOL     OW41431   5.722   8.343   7.410  0.6321  0.1660 -0.2370
44857SOL    HW141432   5.790   8.308   7.352  0.4096  0.2449 -0.5538
44857SOL    HW241433   5.650   8.364   7.350  0.4110  0.2775  0.0705
44858SOL     OW41434   0.209   7.822   1.610  0.1122  0.2684  0.1206
44858SOL    HW141435   0.262   7.865   1.542 -1.0990  0.6439 -0.6163
44858SOL    HW241436   0.228   7.872   1.690 -0.0176  1.1382 -0.3786
44859SOL     OW41437   9.464   9.167   6.710  0.3485 -0.0018  0.3266
44859SOL    HW141438   9.473   9.131   6.798  1.5471  2.2644  1.2283
44859SOL    HW241439   9.542   9.136   6.663  1.0118  0.7796  0.8793
44860SOL     OW41440   1.286   9.682   8.938  0.4736  0.2915  0.2252
44860SOL    HW141441   1.302   9.630   9.017  1.8760 -1.5641 -1.1953
44860SOL    HW241442   1.356   9.747   8.938  0.4091  0.3611  0.5804
44861SOL     OW41443   8.745   3.003   7.076 -0.4097 -0.3231 -0.2098
44861SOL    HW141444   8.803   2.988   7.001 -0.8600  0.0519 -0.6407
44861SOL    HW241445   8.673   2.942   7.064  0.5504 -1.7839  1.0670
44862SOL     OW41446  10.379   3.055   1.889 -0.4455 -0.2830  0.3866
44862SOL    HW141447  10.354   3.147   1.895 -3.8014 -1.0210 -0.4176
44862SOL    HW241448  10.373   3.023   1.979 -0.3961  0.0171  0.4975
44863SOL     OW41449  10.438  10.221  10.723  0.1106 -0.1778  0.1470
44863SOL    HW141450  10.365  10.277  10.749 -0.9914 -1.5842  0.1600
44863SOL    HW241451  10.512  10.282  10.715 -1.1239  1.3503 -0.2652
44864SOL     OW41452   7.486   8.293  10.724 -0.2770  0.3428 -0.7362
44864SOL    HW141453   7.519   8.203  10.716  1.3203  0.8317 -0.1227
44864SOL    HW241454   7.391   8.285  10.718 -0.4016 -1.7508  2.2145
44865SOL     OW41455   6.788   1.262   6.222  0.0701  0.9837 -0.1900
44865SOL    HW141456   6.737   1.194   6.265 -0.1318  0.0365 -1.8672
44865SOL    HW241457   6.860   1.279   6.283  0.5460 -1.2736 -0.0348
44866SOL     OW41458   4.873   8.936   0.902  0.4513 -0.3489  0.1223
44866SOL    HW141459   4.947   8.878   0.885  0.3125 -0.6043  0.3775
44866SOL    HW241460   4.860   8.982   0.819  1.4468  0.3530  0.3430
44867SOL     OW41461   9.387   3.714  11.777  0.4079 -0.3785 -0.4487
44867SOL    HW141462   9.372   3.690  11.869  2.6245 -1.0620 -0.2074
44867SOL    HW241463   9.408   3.807  11.780  1.1375 -0.5476 -0.1656
44868SOL     OW41464   1.168   6.074   4.606 -0.8002 -0.4285  0.0644
44868SOL    HW141465   1.144   6.105   4.694 -0.0581 -0.6839  0.3599
44868SOL    HW241466   1.145   6.147   4.548 -0.0186  0.2850  0.6315
44869SOL     OW41467   5.216   2.388   5.718  0.3155 -0.4009  0.2217
44869SOL    HW141468   5.265   2.431   5.789  2.8219  0.3041 -1.7519
44869SOL    HW241469   5.199   2.458   5.655 -0.6910 -1.2448 -0.4794
44870SOL     OW41470   4.578   8.495  12.470 -0.3600  0.0974  0.5670
44870SOL    HW141471   4.635   8.481  12.394 -1.7070 -1.0311 -0.2967
44870SOL    HW241472   4.611   8.436  12.537 -2.2049 -2.9216 -0.9467
44871SOL     OW41473   1.779   9.000   2.707  0.1470  0.1003 -0.7695
44871SOL    HW141474   1.855   8.999   2.765 -0.6567  0.8118  0.3390
44871SOL    HW241475   1.734   9.082   2.728 -0.9175 -0.2937 -1.4116
44872SOL     OW41476   0.239   7.480   2.041 -0.3867  0.1142  0.0748
44872SOL    HW141477   0.328   7.477   2.077 -0.4492  0.6280  0.2927
44872SOL    HW241478   0.185   7.436   2.106 -0.3793  0.3444  0.2407
44873SOL     OW41479   8.627   0.179   5.910 -0.5442 -0.3584 -0.3599
44873SOL    HW141480   8.661   0.166   5.998 -0.7563  1.1608 -0.0383
44873SOL    HW241481   8.643   0.095   5.866  1.0281 -0.6053  0.6169
44874SOL     OW41482   3.764   0.689   4.111 -0.3578  0.1412 -0.2855
44874SOL    HW141483   3.815   0.609   4.123  1.5665  0.7853 -3.0495
44874SOL    HW241484   3.675   0.659   4.095  0.2351 -1.4534 -0.8166
44875SOL     OW41485   8.128  11.410  10.245  0.0058  0.0632  0.2105
44875SOL    HW141486   8.196  11.378  10.304  0.2157  1.8579  1.0031
44875SOL    HW241487   8.059  11.441  10.303 -1.3881 -1.4321 -0.5820
44876SOL     OW41488   8.196   2.428   2.143  0.4450  0.1920 -0.4966
44876SOL    HW141489   8.176   2.520   2.156 -1.1365 -0.2998  1.0083
44876SOL    HW241490   8.168   2.409   2.054 -3.1697  0.3111  0.4569
44877SOL     OW41491   8.167   4.733   9.548  0.0112  0.2005 -0.4588
44877SOL    HW141492   8.250   4.708   9.588 -0.0944  1.7593  0.8279
44877SOL    HW241493   8.101   4.702   9.610 -0.3370 -0.2431 -1.0413
44878SOL     OW41494   1.909   2.058   6.657  0.3878  0.4983 -0.0862
44878SOL    HW141495   1.976   2.099   6.603  1.3641 -1.1732 -0.2419
44878SOL    HW241496   1.851   2.014   6.594  0.2132  0.4272  0.1233
44879SOL     OW41497   2.074  11.670   1.784  0.5200  0.4735  0.1151
44879SOL    HW141498   2.101  11.741   1.727  0.7364  0.3345  0.0419
44879SOL    HW241499   1.983  11.653   1.761  0.9241 -0.3240 -0.9785
44880SOL     OW41500  11.417   0.359   4.268  0.3405 -0.1526  0.3343
44880SOL    HW141501  11.369   0.295   4.215  0.8333  0.3434 -0.7359
44880SOL    HW241502  11.358   0.433   4.276  0.3291 -0.1633  0.3479
44881SOL     OW41503   3.565   8.256   7.567 -0.1064 -0.0936 -0.1533
44881SOL    HW141504   3.659   8.252   7.582 -0.3078  0.3126  1.3190
44881SOL    HW241505   3.542   8.348   7.578 -0.9293 -0.4358  1.2756
44882SOL     OW41506   5.790   2.396   4.176  0.0290 -0.0213 -0.0262
44882SOL    HW141507   5.867   2.440   4.138 -0.8970  0.9650 -0.8244
44882SOL    HW241508   5.721   2.410   4.111 -1.1819  0.2777  1.2976
44883SOL     OW41509   9.658   8.540  10.753 -0.3520  0.0512 -0.1919
44883SOL    HW141510   9.619   8.494  10.678 -2.0327 -0.3825  0.8744
44883SOL    HW241511   9.595   8.525  10.824  1.2034  0.4145  1.3156
44884SOL     OW41512   9.880   6.678   1.587  0.1286 -0.0797  0.7604
44884SOL    HW141513   9.948   6.634   1.637  0.7931  1.4218  1.2414
44884SOL    HW241514   9.876   6.766   1.624 -1.7899  0.0010  0.4545
44885SOL     OW41515   1.660   4.508   5.451  0.3364  0.5154 -0.1736
44885SOL    HW141516   1.682   4.416   5.436  1.9491  0.8962 -0.3669
44885SOL    HW241517   1.680   4.522   5.544  0.3113  0.7256 -0.1996
44886SOL     OW41518  10.547   1.803   5.514  0.4609  0.3906 -0.2189
44886SOL    HW141519  10.533   1.708   5.511  2.5913  0.0537 -2.5253
44886SOL    HW241520  10.533   1.826   5.606 -0.9376 -1.9768  0.2610
44887SOL     OW41521   9.098   3.658   9.389 -1.0547 -0.3431  0.1165
44887SOL    HW141522   9.083   3.630   9.299 -1.7393 -1.1137  0.4603
44887SOL    HW241523   9.165   3.726   9.382  1.2094 -2.5304 -0.6787
44888SOL     OW41524   0.102   0.440  12.207 -0.2090 -0.5645  0.0190
44888SOL    HW141525   0.013   0.436  12.172 -0.7995 -1.1927  1.5145
44888SOL    HW241526   0.107   0.367  12.269  1.3935 -0.6057 -0.1288
44889SOL     OW41527   9.317  10.970   2.882  0.2785  0.4648  0.2002
44889SOL    HW141528   9.311  10.993   2.975  0.7579 -1.8163  0.8714
44889SOL    HW241529   9.388  10.906   2.878 -2.2044 -2.5345 -0.9855
44890SOL     OW41530   9.592  12.380   2.897  0.5814  0.4038  0.2384
44890SOL    HW141531   9.526  12.343   2.956  0.5194  1.5826  0.9280
44890SOL    HW241532   9.542  12.428   2.832  0.3987 -3.3077 -2.7319
44891SOL     OW41533   7.979   2.269  10.605 -0.0903  0.4596 -0.1998
44891SOL    HW141534   8.023   2.354  10.607 -0.0552  0.6200 -3.0324
44891SOL    HW241535   8.051   2.206  10.608 -0.0745  0.5128  1.1689
44892SOL     OW41536   6.356  11.094   9.171  0.6613 -0.0660  0.5213
44892SOL    HW141537   6.307  11.033   9.226 -0.7158  0.4110 -0.1406
44892SOL    HW241538   6.405  11.148   9.234 -1.9567  1.3983  1.4762
44893SOL     OW41539   6.090   9.893   1.489  0.5504  0.2808  0.0849
44893SOL    HW141540   6.141   9.955   1.436  1.7127 -0.3772  0.3789
44893SOL    HW241541   6.148   9.818   1.498  0.0836  0.0879  1.6699
44894SOL     OW41542   6.253   0.553  10.000  0.2150  0.2019 -0.7770
44894SOL    HW141543   6.212   0.636   9.973  1.5056  0.3831 -2.3424
44894SOL    HW241544   6.181   0.491  10.006 -0.6551  1.2103 -0.5238
44895SOL     OW41545  10.617   8.255   6.714 -0.1291  0.1938  0.2255
44895SOL    HW141546  10.563   8.275   6.639 -2.0298 -1.2629  1.1181
44895SOL    HW241547  10.559   8.208   6.774  1.9644 -0.9642  1.4876
44896SOL     OW41548  10.352   0.356   5.645 -0.6603  0.1102  0.2951
44896SOL    HW141549  10.354   0.408   5.565  1.0831  1.9079  1.4229
44896SOL    HW241550  10.391   0.412   5.712 -1.0810 -1.7152  2.2002
44897SOL     OW41551   0.317   2.523   0.626  0.3143  0.1087 -1.1372
44897SOL    HW141552   0.250   2.457   0.643  1.1591 -0.6079 -0.5029
44897SOL    HW241553   0.268   2.604   0.612 -0.6386 -0.0010  1.1384
44898SOL     OW41554   4.038   7.910  12.026 -0.4865 -0.4325  0.3803
44898SOL    HW141555   4.020   7.818  12.004 -0.3160 -0.1503 -1.0308
44898SOL    HW241556   4.061   7.950  11.942 -2.0549  1.2481  0.6980
44899SOL     OW41557   2.317   5.693   6.515 -0.1641 -0.0289 -0.0444
44899SOL    HW141558   2.381   5.631   6.479  0.2246  0.2204  0.2046
44899SOL    HW241559   2.254   5.706   6.445  0.4805  0.3025 -0.5783
44900SOL     OW41560   5.686   5.759   5.984 -0.0952 -0.3222  0.5476
44900SOL    HW141561   5.607   5.707   5.997  0.2907 -0.9531  0.4265
44900SOL    HW241562   5.752   5.696   5.955  0.6690  0.0571  1.3931
44901SOL     OW41563   8.466   4.039   3.058 -0.2381  0.0615 -0.2252
44901SOL    HW141564   8.477   3.944   3.060 -0.9228 -0.0098  0.0757
44901SOL    HW241565   8.496   4.064   2.971  0.9912 -0.2933  0.0678
44902SOL     OW41566  11.412   0.758   0.739 -0.4971 -0.5325  0.4202
44902SOL    HW141567  11.398   0.850   0.763 -0.0469 -0.9130  2.3446
44902SOL    HW241568  11.395   0.755   0.645  2.9262  2.2467 -0.4856
44903SOL     OW41569   1.447   8.169  11.645  1.0311  0.4632  0.1604
44903SOL    HW141570   1.526   8.143  11.693  0.2165 -1.2886  0.6462
44903SOL    HW241571   1.422   8.252  11.685  2.9003  1.3419 -0.3789
44904SOL     OW41572   6.491   6.537   1.118  0.0616  0.6214 -0.1326
44904SOL    HW141573   6.520   6.612   1.066  1.1568  0.7917  0.7001
44904SOL    HW241574   6.558   6.526   1.186 -0.5175 -0.5808  0.2866
44905SOL     OW41575   8.324  12.405  11.258 -0.1016 -0.0269 -0.0911
44905SOL    HW141576   8.390  12.471  11.237  0.4557 -0.8318 -0.9835
44905SOL    HW241577   8.365  12.349  11.324  0.1211 -0.5225 -0.6391
44906SOL     OW41578  11.484   3.491  10.412  0.4219 -0.5688 -0.0066
44906SOL    HW141579  11.468   3.502  10.318 -0.2815 -2.6744 -0.1960
44906SOL    HW241580  11.578   3.478  10.418  0.5293 -0.0180 -0.3542
44907SOL     OW41581  10.879   6.321   6.537 -0.6697  0.2900  0.0000
44907SOL    HW141582  10.833   6.262   6.596 -0.5681 -0.9596 -1.1176
44907SOL    HW241583  10.883   6.273   6.454 -0.5838  1.8804 -0.9482
44908SOL     OW41584   0.528  12.470   1.164 -0.5101  0.1601  0.3666
44908SOL    HW141585   0.449  12.417   1.174  0.5141 -1.5507 -0.0829
44908SOL    HW241586   0.568  12.438   1.083  2.5412 -1.7613  2.4318
44909SOL     OW41587  10.981  11.229   7.430  0.2065  0.5546  0.2505
44909SOL    HW141588  10.934  11.256   7.351 -0.9678  2.1576  1.4266
44909SOL    HW241589  10.985  11.308   7.484  1.2460 -0.4136  1.6733
44910SOL     OW41590   9.533   7.144   8.223  0.0721  0.1080 -0.3414
44910SOL    HW141591   9.625   7.156   8.200  0.8342  1.6195  2.8305
44910SOL    HW241592   9.514   7.053   8.199  2.0857  0.0089 -1.8928
44911SOL     OW41593  11.099   0.911   0.985  1.2134 -0.0950 -0.0442
44911SOL    HW141594  11.149   0.845   1.032 -0.3376 -1.8359 -0.7011
44911SOL    HW241595  11.056   0.962   1.054 -0.1842 -1.9313  0.5391
44912SOL     OW41596   5.943   0.636   6.480 -0.1574  0.9226  0.3305
44912SOL    HW141597   5.855   0.664   6.454 -0.5930 -1.4171 -0.9722
44912SOL    HW241598   6.002   0.696   6.435 -1.0501  0.6718 -1.2126
44913SOL     OW41599  10.989   4.924   0.604  0.4265 -0.1431  0.1500
44913SOL    HW141600  10.906   4.886   0.575  0.1978 -0.3189  1.0114
44913SOL    HW241601  10.993   5.009   0.560 -0.4289  0.0646  0.4572
44914SOL     OW41602   1.660   2.913   7.639 -0.1009 -0.2119 -0.5691
44914SOL    HW141603   1.659   2.982   7.705 -0.5532  0.0029 -0.8003
44914SOL    HW241604   1.753   2.900   7.619  0.0371 -0.2697  0.0972
44915SOL     OW41605   3.455   2.279   4.312  0.3776 -0.9610 -0.5181
44915SOL    HW141606   3.423   2.367   4.292  2.7934  0.2854  0.6950
44915SOL    HW241607   3.440   2.229   4.232  1.4928  1.3451 -2.2888
44916SOL     OW41608   1.967   2.628  12.102  0.1752  0.5747  0.0055
44916SOL    HW141609   2.021   2.706  12.098  0.6931  0.5322  3.5136
44916SOL    HW241610   1.877   2.660  12.110  0.3651  0.8395  1.1855
44917SOL     OW41611  11.115   3.764  10.923  0.1466  0.3509  0.1771
44917SOL    HW141612  11.059   3.842  10.924  0.7871  0.8475 -0.9983
44917SOL    HW241613  11.085   3.713  10.848 -0.4881 -0.7249  1.1353
44918SOL     OW41614   2.590   6.092  11.943 -0.0558 -0.0318 -0.2523
44918SOL    HW141615   2.660   6.046  11.898  0.4708 -0.7026  1.2143
44918SOL    HW241616   2.557   6.030  12.008 -0.1339  1.2262  0.9608
44919SOL     OW41617   0.745   6.254   6.395  0.0066 -0.0747 -0.8124
44919SOL    HW141618   0.775   6.204   6.319  2.2897  0.2455 -0.2057
44919SOL    HW241619   0.733   6.189   6.464 -0.1766 -0.1569 -0.9239
44920SOL     OW41620   3.283   7.285   0.253 -0.3694  0.3452  0.1812
44920SOL    HW141621   3.272   7.258   0.162  0.9792  0.0969  0.0788
44920SOL    HW241622   3.317   7.375   0.248  1.3272 -0.2491  0.3745
44921SOL     OW41623   4.151   4.037  11.275 -0.0261 -1.1074 -0.4030
44921SOL    HW141624   4.113   4.062  11.190  2.3735  1.5467 -0.8617
44921SOL    HW241625   4.227   3.983  11.251  1.2970  0.5460 -0.0903
44922SOL     OW41626   6.631   9.231   4.320 -0.2119 -0.2122 -0.1473
44922SOL    HW141627   6.625   9.163   4.252  0.8308 -0.5899  0.1265
44922SOL    HW241628   6.552   9.219   4.373  0.1060 -1.3926  0.0691
44923SOL     OW41629   8.733   9.194   7.817  0.3160 -0.2694  0.4592
44923SOL    HW141630   8.761   9.103   7.814 -1.4904 -0.8715  0.7874
44923SOL    HW241631   8.733   9.222   7.726  0.8015 -0.6208  0.3486
44924SOL     OW41632   8.899   1.227   6.696  0.2079  0.4943 -0.1669
44924SOL    HW141633   8.909   1.271   6.611  2.5283 -0.9010 -0.6994
44924SOL    HW241634   8.818   1.176   6.688 -0.7212  1.9939 -0.7356
44925SOL     OW41635   3.623  10.639   3.211 -0.0198 -0.1897 -0.3815
44925SOL    HW141636   3.668  10.715   3.248 -0.4343  0.5862 -1.4292
44925SOL    HW241637   3.590  10.592   3.287  2.1282 -0.5488  0.4201
44926SOL     OW41638  10.768  11.242   0.740 -0.1610 -0.2316 -0.4950
44926SOL    HW141639  10.848  11.273   0.697  0.1427  0.8999  0.7853
44926SOL    HW241640  10.755  11.304   0.812 -0.7048 -1.9353  0.9443
44927SOL     OW41641   4.678   5.223   7.448  0.1491 -0.2195 -0.2076
44927SOL    HW141642   4.600   5.268   7.481 -0.5055 -0.6986 -1.0470
44927SOL    HW241643   4.675   5.236   7.353  1.3666  0.1734 -0.2071
44928SOL     OW41644   2.801   2.238   8.509  0.0341 -0.0709 -0.2601
44928SOL    HW141645   2.732   2.299   8.487  0.2241 -0.0746 -0.8950
44928SOL    HW241646   2.799   2.232   8.605  0.4600  1.4367 -0.1415
44929SOL     OW41647   8.641   5.669   7.516 -0.3294 -0.4713 -0.5687
44929SOL    HW141648   8.560   5.708   7.550 -0.2231 -1.0129  0.3302
44929SOL    HW241649   8.642   5.580   7.553  0.2741 -0.7396 -1.2267
44930SOL     OW41650   5.388   7.675   7.202  0.6880 -0.0987 -0.2316
44930SOL    HW141651   5.403   7.589   7.241 -0.1003 -1.1160 -2.0546
44930SOL    HW241652   5.401   7.662   7.108  1.0659  1.9079 -0.5046
44931SOL     OW41653   1.731   1.504   9.693 -0.2024  0.3329 -0.4352
44931SOL    HW141654   1.639   1.498   9.667 -0.5593  2.7420  0.1040
44931SOL    HW241655   1.736   1.452   9.774 -0.4922 -1.7969 -1.6963
44932SOL     OW41656   3.892   7.916   9.701  0.2872  0.0928  0.1499
44932SOL    HW141657   3.822   7.894   9.763  0.5165  0.3371  0.4996
44932SOL    HW241658   3.875   8.007   9.676  2.1775  1.2600  2.6046
44933SOL     OW41659   6.694  12.274   0.855 -0.1709  0.9381  0.3085
44933SOL    HW141660   6.769  12.242   0.904  0.8657 -1.0596 -2.3304
44933SOL    HW241661   6.655  12.195   0.816 -0.1349  2.3969 -3.0362
44934SOL     OW41662  11.328   8.958   3.921  0.2769  0.0661 -0.2573
44934SOL    HW141663  11.415   8.990   3.945 -0.7225  2.2879  0.6845
44934SOL    HW241664  11.268   9.016   3.968 -1.7431 -0.1578 -2.4045
44935SOL     OW41665  12.308  11.585  11.297 -0.0381  0.5412 -0.2625
44935SOL    HW141666  12.309  11.655  11.363 -0.0028 -0.1999  0.5468
44935SOL    HW241667  12.237  11.527  11.325  0.8524 -0.5092 -0.0958
44936SOL     OW41668  10.399   6.323   5.047  0.7543  0.4049  0.2863
44936SOL    HW141669  10.385   6.234   5.015  0.3740  1.0893 -1.5786
44936SOL    HW241670  10.434   6.311   5.136 -0.4307 -1.5647  0.5591
44937SOL     OW41671  10.289   4.912   4.475 -0.1834  0.3284 -0.7966
44937SOL    HW141672  10.324   4.993   4.438  0.5890 -0.6707 -2.3616
44937SOL    HW241673  10.361   4.876   4.527 -0.0242 -0.0817 -1.3017
44938SOL     OW41674   5.351   6.363   1.595 -0.0004  0.7177  0.2498
44938SOL    HW141675   5.301   6.287   1.624  0.5707 -0.0607 -0.7532
44938SOL    HW241676   5.326   6.374   1.503  0.9781  0.8738 -0.0072
44939SOL     OW41677   4.533   6.411  10.080  0.1641 -0.4556  0.2586
44939SOL    HW141678   4.572   6.326  10.101 -1.5075 -1.5816 -0.9054
44939SOL    HW241679   4.471   6.427  10.151 -2.0679 -1.9812 -1.2282
44940SOL     OW41680   4.754  10.976  10.016  0.1980  0.0975 -0.2856
44940SOL    HW141681   4.695  10.901  10.016 -0.6671  0.7658 -0.7372
44940SOL    HW241682   4.810  10.963   9.940 -0.5184  0.3467 -0.8584
44941SOL     OW41683  10.297  11.136   8.772  0.3599 -0.6123 -0.1876
44941SOL    HW141684  10.277  11.185   8.853 -0.1788 -1.1405  0.0097
44941SOL    HW241685  10.269  11.046   8.791  0.4886 -0.8021 -0.8694
44942SOL     OW41686   0.934   1.172   9.380  0.5626 -0.0885 -0.0371
44942SOL    HW141687   0.978   1.219   9.451 -0.1077 -0.7401  0.8445
44942SOL    HW241688   0.970   1.209   9.300  2.3333 -0.2460  0.6436
44943SOL     OW41689   9.299   2.978   8.804  0.1456 -0.0543 -0.0633
44943SOL    HW141690   9.218   3.029   8.806  0.4274  0.3698  0.7198
44943SOL    HW241691   9.369   3.043   8.805  0.5116 -0.4104 -1.0849
44944SOL     OW41692   2.239   6.037  11.826 -0.6180 -0.2021  0.4159
44944SOL    HW141693   2.295   6.042  11.904  0.1993  0.1332 -0.1815
44944SOL    HW241694   2.261   5.953  11.787  0.7041  0.6359 -0.7156
44945SOL     OW41695  10.415   3.948   5.836  0.4664  0.0050  0.4113
44945SOL    HW141696  10.321   3.937   5.850  0.8708 -1.4424  2.4274
44945SOL    HW241697  10.428   4.043   5.835 -0.9265  0.2162  0.8456
44946SOL     OW41698   4.123   5.103   8.140 -0.6570 -0.4898  0.6920
44946SOL    HW141699   4.054   5.059   8.091 -0.2155 -0.4716  0.0475
44946SOL    HW241700   4.113   5.195   8.117 -0.0288 -0.5641  0.1107
44947SOL     OW41701   1.343  12.333   9.378  0.1207  0.2223 -0.0954
44947SOL    HW141702   1.354  12.245   9.343 -0.4183  0.4416 -0.8612
44947SOL    HW241703   1.287  12.377   9.313  0.8223  1.2823  0.0005
44948SOL     OW41704  11.935   0.284   4.552  0.2012  0.3555  0.3630
44948SOL    HW141705  11.926   0.323   4.639  1.0535  0.9046  0.2158
44948SOL    HW241706  11.961   0.356   4.495 -0.7632  0.0849 -0.4480
44949SOL     OW41707   9.261  11.563   3.232  0.1324  0.5881 -0.0272
44949SOL    HW141708   9.338  11.618   3.214 -0.2854  1.0648 -0.3741
44949SOL    HW241709   9.208  11.615   3.292  0.8342 -0.4027  1.4973
44950SOL     OW41710   6.244  12.337   5.022  0.7325  0.1294  0.1294
44950SOL    HW141711   6.279  12.386   5.097  0.1360  1.1897 -0.2603
44950SOL    HW241712   6.229  12.404   4.955 -2.2161 -0.1889  0.3471
44951SOL     OW41713  10.878   1.198   3.099  0.1138 -0.1970  0.4184
44951SOL    HW141714  10.961   1.244   3.114 -0.3488  0.1710  2.1030
44951SOL    HW241715  10.896   1.140   3.025  2.1161 -0.6774  1.2003
44952SOL     OW41716   8.263   7.878   2.238 -0.1083 -0.3229 -0.0183
44952SOL    HW141717   8.326   7.831   2.293  1.1658  0.8747 -0.3766
44952SOL    HW241718   8.202   7.917   2.299  0.7942  0.2948  0.5148
44953SOL     OW41719   9.928   1.160   5.301  0.0499 -1.2569 -0.1433
44953SOL    HW141720   9.895   1.249   5.317  1.5739 -0.8824  1.1880
44953SOL    HW241721   9.858   1.117   5.252 -1.5307  0.0998  0.8000
44954SOL     OW41722   7.269  10.090   3.302 -0.2032  0.1242 -0.1376
44954SOL    HW141723   7.300  10.009   3.341  1.2441  1.7350  2.3413
44954SOL    HW241724   7.337  10.115   3.240 -0.5505 -0.4341 -0.7489
44955SOL     OW41725   2.945  12.300   2.559  0.4978 -0.1743 -0.4282
44955SOL    HW141726   2.989  12.365   2.504  0.7043 -1.3495 -1.7123
44955SOL    HW241727   2.857  12.293   2.522  0.8017 -1.3578 -0.9740
44956SOL     OW41728   9.226   2.778   6.205 -0.5511 -0.0250 -0.4996
44956SOL    HW141729   9.132   2.786   6.223 -0.1993  0.9253  1.1323
44956SOL    HW241730   9.234   2.701   6.148 -2.0567 -1.7684  1.5202
44957SOL     OW41731   6.026  12.183   4.010 -0.0494 -0.3434  0.6732
44957SOL    HW141732   6.090  12.121   4.045  0.9410  0.7243  0.8294
44957SOL    HW241733   5.974  12.132   3.949 -0.1783 -1.6565  1.8307
44958SOL     OW41734   6.418   1.369   3.559  1.0418  0.3970 -0.2689
44958SOL    HW141735   6.380   1.455   3.549 -0.8734 -0.4747 -0.9043
44958SOL    HW241736   6.470   1.375   3.640 -1.8721  1.2163  1.7069
44959SOL     OW41737   7.271  11.568   0.499  0.5007  0.6664  0.8002
44959SOL    HW141738   7.274  11.474   0.519 -0.8957 -0.0678 -2.0158
44959SOL    HW241739   7.346  11.582   0.441 -2.2672 -0.0606 -3.3107
44960SOL     OW41740   9.005   1.503   1.270  0.5353 -0.0401 -0.0887
44960SOL    HW141741   8.920   1.545   1.281  1.1865  0.9835  1.5155
44960SOL    HW241742   8.986   1.410   1.265 -0.6227  0.0939  1.3310
44961SOL     OW41743   8.174  11.427   1.314 -0.6047 -0.3079 -0.2521
44961SOL    HW141744   8.080  11.427   1.300 -0.7373  1.9592  0.2383
44961SOL    HW241745   8.185  11.446   1.407  0.3590 -2.0115  0.0207
44962SOL     OW41746  11.823   2.104   8.506  0.4834  0.2107 -0.0247
44962SOL    HW141747  11.831   2.157   8.585  2.4305  0.6906 -0.4839
44962SOL    HW241748  11.905   2.120   8.459 -0.8955  0.4713 -2.4792
44963SOL     OW41749   4.875   0.543   4.507 -0.0428  0.5169 -0.3441
44963SOL    HW141750   4.934   0.480   4.547  0.7372  0.7121 -1.1469
44963SOL    HW241751   4.933   0.609   4.469 -0.8476  3.2305  2.7795
44964SOL     OW41752   6.705   9.701   7.173  0.2645  0.6653  0.5183
44964SOL    HW141753   6.699   9.614   7.212 -1.6761  1.0308  1.1693
44964SOL    HW241754   6.766   9.691   7.100 -0.3663 -1.3908  0.2088
44965SOL     OW41755   7.812  12.308   8.138  0.6031  0.0022  0.6492
44965SOL    HW141756   7.773  12.395   8.152  1.1752  0.2899  0.4735
44965SOL    HW241757   7.756  12.268   8.071  1.0988  0.7566 -0.2563
44966SOL     OW41758   3.686  11.388   3.989 -0.4754  0.2126 -0.9767
44966SOL    HW141759   3.624  11.461   3.984 -0.9019 -0.1172 -0.6749
44966SOL    HW241760   3.771  11.429   3.999 -0.8676  0.6923  0.8619
44967SOL     OW41761   4.701   5.569   5.698  0.0029  0.1434 -0.6455
44967SOL    HW141762   4.645   5.493   5.683 -0.5151  0.1866  0.8061
44967SOL    HW241763   4.639   5.640   5.716  0.4944  0.2589  0.7110
44968SOL     OW41764   5.079   8.172   8.891 -0.3103 -0.1458  0.4068
44968SOL    HW141765   5.057   8.124   8.812  1.9405  0.4226 -0.6587
44968SOL    HW241766   5.075   8.107   8.961  1.5463 -1.6957 -0.8177
44969SOL     OW41767   6.219   0.651  11.335  0.4748  0.3431  0.4203
44969SOL    HW141768   6.169   0.725  11.300  0.6851  0.4547  0.3575
44969SOL    HW241769   6.266   0.616  11.260  0.1412 -0.0475  0.3835
44970SOL     OW41770   0.675   6.684   8.519 -0.0060  0.0099 -0.0758
44970SOL    HW141771   0.605   6.746   8.542  0.7558  0.3246  1.4966
44970SOL    HW241772   0.754   6.738   8.513  0.1570 -0.3489 -1.8058
44971SOL     OW41773   5.745   5.827   9.429 -0.3509 -0.2276 -0.0235
44971SOL    HW141774   5.739   5.749   9.484 -0.0491 -0.0195  0.3071
44971SOL    HW241775   5.839   5.839   9.415 -0.4452 -0.5951 -1.0402
44972SOL     OW41776   3.119   7.607  11.439  0.6264  0.1091  0.0752
44972SOL    HW141777   3.106   7.513  11.432 -0.0348  0.1195  1.0418
44972SOL    HW241778   3.204   7.618  11.482 -0.0666 -0.0829  1.5406
44973SOL     OW41779  11.424   4.575   5.821 -0.0399  0.3146 -0.1844
44973SOL    HW141780  11.395   4.485   5.805  0.7964 -0.0577  0.3264
44973SOL    HW241781  11.478   4.597   5.745  0.8386 -0.1055  0.2956
44974SOL     OW41782  11.179   5.880   5.469  0.2016 -0.4260 -0.3177
44974SOL    HW141783  11.089   5.870   5.499  0.3729 -1.6588 -0.1273
44974SOL    HW241784  11.181   5.963   5.421 -0.6693  0.3358  0.9398
44975SOL     OW41785   8.553   7.912   5.574  0.1930 -0.9434  0.3052
44975SOL    HW141786   8.624   7.855   5.603  1.9629  1.1543  0.3336
44975SOL    HW241787   8.572   7.929   5.481  1.5807  2.0282  1.0212
44976SOL     OW41788   0.907   6.486   6.174  0.5946 -0.7293  0.3235
44976SOL    HW141789   0.827   6.479   6.120 -0.1158 -1.6456  1.4509
44976SOL    HW241790   0.961   6.411   6.146  2.2578  1.2519 -2.2191
44977SOL     OW41791   6.764   3.450   8.504 -0.0810  0.4088 -0.0124
44977SOL    HW141792   6.739   3.365   8.467 -1.5733  1.3355 -1.3029
44977SOL    HW241793   6.778   3.506   8.427  0.6713  1.3839  0.8107
44978SOL     OW41794   7.830   3.894   3.858 -0.1002 -0.1758  0.1908
44978SOL    HW141795   7.774   3.890   3.935 -0.9112  1.4992 -0.2670
44978SOL    HW241796   7.771   3.915   3.786  0.9849  0.7372 -0.4591
44979SOL     OW41797  11.952   8.124  10.769 -0.4906  0.3762  0.3649
44979SOL    HW141798  11.923   8.042  10.729  0.8251 -0.1800  0.5160
44979SOL    HW241799  11.917   8.122  10.858 -0.0179 -0.2866  0.5436
44980SOL     OW41800   8.466   9.151   5.386  0.2312 -0.6284 -0.0320
44980SOL    HW141801   8.457   9.128   5.293  0.4498 -0.7616 -0.0223
44980SOL    HW241802   8.377   9.147   5.421 -0.5077  3.1163 -1.0546
44981SOL     OW41803   4.798   2.076   6.469  0.0761 -0.7484 -0.1403
44981SOL    HW141804   4.871   2.066   6.408  1.1030  0.3813  0.8356
44981SOL    HW241805   4.836   2.122   6.545 -1.2190 -1.8309  1.2274
44982SOL     OW41806   2.302   7.014   5.437  0.1806  0.0288 -0.1948
44982SOL    HW141807   2.207   7.001   5.425  0.2474 -0.6894 -0.0244
44982SOL    HW241808   2.324   6.960   5.513  0.8017 -0.1371 -0.4869
44983SOL     OW41809   2.099  11.072   2.333 -0.3277 -0.1807  0.0751
44983SOL    HW141810   2.134  10.984   2.349 -1.2166 -0.2441  1.9688
44983SOL    HW241811   2.173  11.130   2.346  0.0424 -0.5857 -0.2041
44984SOL     OW41812   6.354   0.908  11.487 -0.0987  0.1171 -1.2621
44984SOL    HW141813   6.381   0.974  11.551 -0.3964  0.8761 -1.9135
44984SOL    HW241814   6.258   0.910  11.489 -0.1081 -0.2890 -1.2918
44985SOL     OW41815   9.593   9.862   4.699 -0.0527  0.1068  0.4969
44985SOL    HW141816   9.673   9.822   4.731  1.5041  2.6650  0.0857
44985SOL    HW241817   9.566   9.921   4.769 -0.1977  1.0454 -0.3284
44986SOL     OW41818   4.176   3.489   0.787 -0.1024  0.1508 -0.1040
44986SOL    HW141819   4.256   3.449   0.822 -0.8256 -0.4412  0.9273
44986SOL    HW241820   4.195   3.502   0.694  0.7646 -1.0942 -0.1302
44987SOL     OW41821  10.216  12.016   2.843 -0.2105 -0.5371 -0.1469
44987SOL    HW141822  10.290  12.012   2.904  0.5161 -0.1796 -0.9838
44987SOL    HW241823  10.247  11.970   2.765 -1.9192 -2.9936  0.5083
44988SOL     OW41824   7.608   5.972   0.647 -0.3911  0.7126 -0.0192
44988SOL    HW141825   7.601   6.043   0.583 -1.2755  0.8937  0.2574
44988SOL    HW241826   7.545   5.906   0.618  0.0213  0.2917  0.0357
44989SOL     OW41827  10.114   8.496  12.440 -0.6233 -1.1111 -0.1802
44989SOL    HW141828  10.178   8.430  12.412  1.9090  1.8865 -2.2821
44989SOL    HW241829  10.063   8.515  12.361  0.1830  0.8744 -0.2812
44990SOL     OW41830   1.788   9.350   0.618  0.2964  0.0915 -0.2118
44990SOL    HW141831   1.874   9.321   0.588 -0.6234 -1.4887 -1.5801
44990SOL    HW241832   1.726   9.301   0.562 -1.5016  0.2359  1.5390
44991SOL     OW41833  11.860   4.626   6.374 -0.0261  0.2957 -0.2537
44991SOL    HW141834  11.947   4.600   6.403 -0.2642  0.0825  0.2866
44991SOL    HW241835  11.863   4.721   6.370  0.8660  0.2285 -2.2722
44992SOL     OW41836   3.084   5.749   0.508 -0.0187  0.5820  0.1336
44992SOL    HW141837   3.106   5.779   0.596 -0.1093 -0.8802  0.6868
44992SOL    HW241838   2.990   5.763   0.499 -0.3147 -0.7142  0.9052
44993SOL     OW41839   8.941  11.014   1.572  0.1286  0.4750  0.3772
44993SOL    HW141840   8.982  10.932   1.599 -0.0386 -0.7364 -2.6340
44993SOL    HW241841   9.013  11.077   1.568  0.6760 -0.1289  0.5743
44994SOL     OW41842  10.027   3.139   2.001  0.0030 -0.3341  0.1290
44994SOL    HW141843   9.947   3.094   2.028 -0.9397 -0.6901 -2.9663
44994SOL    HW241844  10.087   3.125   2.075 -2.7155  0.0245  2.6263
44995SOL     OW41845   3.785   6.622   8.688 -0.5048  0.1723  0.4304
44995SOL    HW141846   3.788   6.582   8.775  1.2852  0.9272  0.7614
44995SOL    HW241847   3.819   6.711   8.701  1.3282 -0.2074 -1.2743
44996SOL     OW41848   4.939  11.651  10.791 -0.1486 -0.5188 -0.5380
44996SOL    HW141849   4.911  11.683  10.706 -3.7772 -2.9594 -0.4855
44996SOL    HW241850   4.957  11.558  10.777  2.2780 -0.3274  0.8108
44997SOL     OW41851   4.231   3.823   0.594  0.8376  0.1521 -0.7710
44997SOL    HW141852   4.276   3.833   0.678 -0.7067 -1.1179  0.2664
44997SOL    HW241853   4.248   3.732   0.568 -3.5610 -1.5280  1.2918
44998SOL     OW41854   6.734   2.905   6.253 -0.9981  0.2106  0.4374
44998SOL    HW141855   6.681   2.856   6.190 -1.1669  0.5457  0.3128
44998SOL    HW241856   6.789   2.839   6.296 -0.2570  0.0708 -0.6686
44999SOL     OW41857  10.951  10.681   5.662 -0.8932  0.0224 -0.5098
44999SOL    HW141858  10.918  10.606   5.612  0.7330 -0.9401 -0.2300
44999SOL    HW241859  10.954  10.650   5.752 -0.2084  0.4155 -0.3885
45000SOL     OW41860   1.105   2.078   2.046 -0.3349 -0.0432  0.0399
45000SOL    HW141861   1.027   2.130   2.027 -1.0798 -0.5263  1.5800
45000SOL    HW241862   1.157   2.133   2.104  0.0193 -0.0791 -0.2474
45001SOL     OW41863   9.944   8.782   7.493 -0.1441 -0.0314 -0.2014
45001SOL    HW141864   9.979   8.710   7.441  2.8407 -0.4464  2.1024
45001SOL    HW241865   9.892   8.740   7.561 -1.3462  0.2907 -0.8901
45002SOL     OW41866   7.472   3.947  11.560  0.2672  0.0415 -0.3953
45002SOL    HW141867   7.567   3.946  11.546  0.1213 -0.5896 -1.4513
45002SOL    HW241868   7.445   4.037  11.541  0.2501 -0.4814 -3.2761
45003SOL     OW41869   7.823   4.834   4.259  0.0637 -0.0954  0.6124
45003SOL    HW141870   7.818   4.872   4.347  0.9985 -0.8844  1.0298
45003SOL    HW241871   7.734   4.802   4.242  0.2006 -1.2924  1.9248
45004SOL     OW41872   1.905  10.721   9.246 -0.3757 -0.0407 -0.2016
45004SOL    HW141873   1.950  10.729   9.162 -3.0440  0.3856 -1.7006
45004SOL    HW241874   1.900  10.627   9.262 -0.2980 -0.1424 -0.7552
45005SOL     OW41875  10.262   6.388   7.987 -0.3209 -0.5979 -0.0800
45005SOL    HW141876  10.273   6.293   7.999  0.0787 -0.8809 -2.2266
45005SOL    HW241877  10.321   6.427   8.051 -1.5166 -1.7216  1.8217
45006SOL     OW41878   4.276   9.963   7.971  0.1494  0.2931  0.1670
45006SOL    HW141879   4.234   9.985   8.054 -1.3007 -2.4394  0.2496
45006SOL    HW241880   4.369   9.954   7.993 -0.0114  0.9996  1.1822
45007SOL     OW41881   5.009   2.999   1.038 -0.5416 -0.0325  0.1723
45007SOL    HW141882   4.929   3.011   0.987 -0.9445  2.3582  1.2089
45007SOL    HW241883   4.994   2.921   1.091 -1.0711 -1.1524 -1.5526
45008SOL     OW41884   2.222   9.081   0.459 -0.0131 -0.2112  0.1616
45008SOL    HW141885   2.221   9.029   0.378  2.0178  0.0524 -0.0820
45008SOL    HW241886   2.286   9.150   0.442  0.5450 -0.2233  2.0213
45009SOL     OW41887   8.513   7.280   0.822  0.3287 -0.2666 -0.0084
45009SOL    HW141888   8.608   7.280   0.811  0.6811  0.7336  2.3737
45009SOL    HW241889   8.488   7.188   0.817  1.1920 -0.4604 -1.8780
45010SOL     OW41890   0.277  10.626  10.048 -0.2369  0.4068 -0.0098
45010SOL    HW141891   0.212  10.648  10.114  0.4642 -0.7414  1.1238
45010SOL    HW241892   0.296  10.533  10.063  1.4695  0.6344 -0.4508
45011SOL     OW41893   4.895   5.542   4.558 -0.0766 -0.0332 -0.1784
45011SOL    HW141894   4.880   5.630   4.591 -0.2009 -0.5780  1.2946
45011SOL    HW241895   4.919   5.554   4.466 -0.4526  1.4956 -0.0994
45012SOL     OW41896   8.335  12.329   5.010  0.4268  0.0146 -0.3672
45012SOL    HW141897   8.408  12.353   4.952 -0.5043  0.6505 -1.3220
45012SOL    HW241898   8.343  12.388   5.084  0.7837  0.2035 -0.5529
45013SOL     OW41899   1.524   9.818   1.504  0.0262 -0.0868 -0.1060
45013SOL    HW141900   1.485   9.779   1.582  0.1606  1.7846  0.9641
45013SOL    HW241901   1.515   9.912   1.517 -2.3321  0.3790 -3.5893
45014SOL     OW41902   3.922   6.133  11.235  0.2816  0.3478  0.4537
45014SOL    HW141903   3.866   6.083  11.294 -0.5121 -0.4464 -0.9273
45014SOL    HW241904   4.008   6.131  11.276  0.0029 -1.1457  1.0112
45015SOL     OW41905   3.313   2.867   7.501 -0.6220 -0.0241  0.1244
45015SOL    HW141906   3.371   2.901   7.569 -0.4497 -0.4966  0.2154
45015SOL    HW241907   3.230   2.913   7.515 -0.6276 -0.2132  0.7296
45016SOL     OW41908  12.177   4.752  11.087 -0.1921  0.3688 -0.0113
45016SOL    HW141909  12.185   4.701  11.168 -0.8637 -0.4781 -0.4662
45016SOL    HW241910  12.122   4.826  11.111  0.4721  0.6917  0.5603
45017SOL     OW41911  10.217   4.222  12.272  0.0283  0.1960 -0.0403
45017SOL    HW141912  10.174   4.294  12.317  0.8611  1.1817 -0.7738
45017SOL    HW241913  10.171   4.143  12.303 -1.4021  1.0857  0.1908
45018SOL     OW41914   6.929   4.321   8.231  0.2091  0.3043 -0.5646
45018SOL    HW141915   6.970   4.298   8.314 -0.8606 -1.8068 -0.5419
45018SOL    HW241916   6.988   4.385   8.191  0.1657  2.3307  2.2967
45019SOL     OW41917   1.581   2.902   2.372 -0.7054  0.5491 -0.2516
45019SOL    HW141918   1.576   2.950   2.289  1.3512  2.3618  0.5729
45019SOL    HW241919   1.662   2.851   2.366 -1.1770 -0.2840  0.1952
45020SOL     OW41920   3.952   7.391   0.498 -0.5232  0.2745  0.3858
45020SOL    HW141921   3.918   7.328   0.434 -0.4121  0.2871  0.3129
45020SOL    HW241922   3.879   7.407   0.558 -0.4693 -0.1383  0.5696
45021SOL     OW41923   9.010   7.932   6.184 -0.1476 -0.0628 -0.3572
45021SOL    HW141924   8.947   7.869   6.217  2.1191 -1.8281  0.8780
45021SOL    HW241925   8.991   7.939   6.091 -2.0767 -0.5592 -0.0360
45022SOL     OW41926   4.698   0.906   3.951 -0.0466 -0.2026  0.2496
45022SOL    HW141927   4.748   0.863   4.020  1.4530 -1.2194 -1.3879
45022SOL    HW241928   4.764   0.940   3.891 -1.2082  2.9100  0.5330
45023SOL     OW41929  10.285  11.154   4.411  0.4156 -0.3971  0.1155
45023SOL    HW141930  10.216  11.207   4.448  0.6228  0.7979 -1.1107
45023SOL    HW241931  10.286  11.178   4.318  1.8072 -1.1132 -0.0808
45024SOL     OW41932   0.482   2.885   0.794 -0.1357  0.3237 -1.1172
45024SOL    HW141933   0.467   2.973   0.759  0.6067  0.6945 -0.5422
45024SOL    HW241934   0.464   2.894   0.888 -1.2849 -0.4525 -1.2460
45025SOL     OW41935   8.165  11.736  10.279  0.1359  0.1322  0.2645
45025SOL    HW141936   8.142  11.829  10.283 -0.2382  0.0279  0.7189
45025SOL    HW241937   8.081  11.690  10.286  0.2831 -0.2365 -0.3599
45026SOL     OW41938   0.590   9.701   9.626 -0.7137  0.4820 -0.2001
45026SOL    HW141939   0.607   9.747   9.543 -2.5403  3.2096  0.7829
45026SOL    HW241940   0.496   9.681   9.623 -0.5652 -0.4195  0.7408
45027SOL     OW41941   7.625   9.761   9.034 -0.2308  0.4161  0.7099
45027SOL    HW141942   7.536   9.772   9.067 -0.9904 -3.0538  0.1771
45027SOL    HW241943   7.677   9.735   9.111 -0.8543 -2.4062  0.2909
45028SOL     OW41944   5.870   2.371  11.586 -0.0894 -0.9434  0.1979
45028SOL    HW141945   5.892   2.431  11.514  0.1361 -0.9630  0.2483
45028SOL    HW241946   5.933   2.393  11.654 -0.3002 -0.9289  0.3885
45029SOL     OW41947   6.231   4.300   9.844  0.3017 -0.8371  0.2168
45029SOL    HW141948   6.223   4.236   9.773  0.3742 -1.4900  0.7929
45029SOL    HW241949   6.300   4.265   9.901  2.0790  0.9173 -0.6920
45030SOL     OW41950   4.375   4.748   0.516 -0.5696 -0.7182 -0.6947
45030SOL    HW141951   4.463   4.726   0.485  0.0330  0.7237 -0.1084
45030SOL    HW241952   4.331   4.664   0.526 -0.0483 -1.3640 -3.2092
45031SOL     OW41953   5.790   6.698   9.591  0.4292 -0.0940 -0.0268
45031SOL    HW141954   5.736   6.774   9.615  1.8513 -0.2195  4.3431
45031SOL    HW241955   5.866   6.737   9.546  1.5591  1.4030  2.8711
45032SOL     OW41956   8.331  12.390   9.066  0.2340  0.1740 -0.8117
45032SOL    HW141957   8.338  12.480   9.097  0.5707  0.1904 -0.9375
45032SOL    HW241958   8.280  12.345   9.134 -3.0249  1.2363 -2.3538
45033SOL     OW41959  11.169   2.256   0.207  0.2807 -0.3615  0.5044
45033SOL    HW141960  11.193   2.328   0.148 -1.6726  1.4174  1.7384
45033SOL    HW241961  11.142   2.186   0.149 -0.3258  0.8773 -0.7817
45034SOL     OW41962   5.355   5.130   4.758 -0.5039 -0.2703 -0.4754
45034SOL    HW141963   5.440   5.112   4.718 -0.5918 -2.1111  0.0544
45034SOL    HW241964   5.345   5.225   4.752  1.5127 -0.0280 -0.6755
45035SOL     OW41965   8.752   7.527   3.701 -0.3219  0.0060 -0.4701
45035SOL    HW141966   8.801   7.589   3.647  0.4275 -0.0022  0.1770
45035SOL    HW241967   8.676   7.577   3.731  1.5758  1.6009  2.2201
45036SOL     OW41968   2.392   2.686   0.617 -0.2841 -0.3628 -0.2206
45036SOL    HW141969   2.453   2.683   0.690 -0.6649 -1.7564  0.0642
45036SOL    HW241970   2.320   2.629   0.643 -1.8773  1.4387 -0.4361
45037SOL     OW41971   9.400   5.396   6.916 -0.5113  0.3022  0.1397
45037SOL    HW141972   9.383   5.302   6.907 -0.5015  0.2480  0.6863
45037SOL    HW241973   9.425   5.424   6.828  2.4082 -0.7818  0.5083
45038SOL     OW41974   1.877   5.483  12.133  0.1089  0.2545  0.0013
45038SOL    HW141975   1.903   5.572  12.111  0.2860  0.3361  0.5110
45038SOL    HW241976   1.803   5.464  12.076 -0.0903  0.8235  0.0713
45039SOL     OW41977  11.955  10.554   8.722 -0.1151  0.0176  0.1832
45039SOL    HW141978  11.950  10.459   8.737  1.0094 -0.0215  0.3929
45039SOL    HW241979  11.921  10.566   8.634  2.6361 -1.0222 -1.1544
45040SOL     OW41980   2.382   8.550   5.799  0.0567 -0.0382  0.0719
45040SOL    HW141981   2.322   8.507   5.859 -0.6078  1.0394  0.2061
45040SOL    HW241982   2.377   8.498   5.719 -1.1514  0.0956  0.0482
45041SOL     OW41983   1.653   2.432   4.560 -0.1999 -0.1793 -0.1569
45041SOL    HW141984   1.749   2.442   4.561 -0.3236  1.2737 -0.0432
45041SOL    HW241985   1.625   2.481   4.483 -0.6779 -3.0569 -1.9441
45042SOL     OW41986   6.201  11.142   8.909 -0.0061 -0.1333 -0.2551
45042SOL    HW141987   6.141  11.215   8.925 -1.5592 -1.7810  2.4177
45042SOL    HW241988   6.268  11.152   8.976  0.3095 -0.6059 -0.4971
45043SOL     OW41989   5.222  11.793   2.434 -0.2657  0.5814 -0.0265
45043SOL    HW141990   5.147  11.763   2.383 -0.3795  0.6917  0.0730
45043SOL    HW241991   5.189  11.870   2.482  0.4304  1.8006 -1.4138
45044SOL     OW41992   4.179  10.210   8.700  0.3750  0.2469 -0.5198
45044SOL    HW141993   4.235  10.288   8.700  1.4785 -0.5136 -0.3210
45044SOL    HW241994   4.240  10.137   8.711 -0.6262 -0.6570 -0.7621
45045SOL     OW41995  10.708   4.101  10.731  0.2325  0.6911 -0.1985
45045SOL    HW141996  10.631   4.129  10.781 -0.0989  3.0064 -1.8069
45045SOL    HW241997  10.781   4.147  10.772  0.6066 -0.6257  0.6381
45046SOL     OW41998   6.930   3.569   3.342  0.2385 -0.3128 -0.7650
45046SOL    HW141999   6.935   3.656   3.302 -2.1177 -0.9873 -2.8216
45046SOL    HW242000   7.018   3.533   3.331  1.5926  2.1193  1.1438
45047SOL     OW42001   5.312  11.497   2.157  0.0660 -0.0082  0.7564
45047SOL    HW142002   5.268  11.452   2.229 -1.3519 -1.1429 -0.7408
45047SOL    HW242003   5.258  11.574   2.141 -0.7239 -0.7632 -0.3017
45048SOL     OW42004   4.098  10.498   4.097 -0.3424 -0.1738  0.2867
45048SOL    HW142005   4.027  10.494   4.160 -1.3473  0.1067 -0.7872
45048SOL    HW242006   4.136  10.410   4.097 -0.5855 -0.2800  0.9755
45049SOL     OW42007   2.692  12.370   9.181  0.1405  0.0945 -0.1794
45049SOL    HW142008   2.693  12.466   9.185 -1.3958  0.1378 -0.2517
45049SOL    HW242009   2.719  12.350   9.091 -0.0063  0.4829 -0.3148
45050SOL     OW42010   6.143   8.425   4.985  0.4567 -0.0950 -0.4504
45050SOL    HW142011   6.089   8.500   5.008 -0.5828 -0.1334 -2.5100
45050SOL    HW242012   6.201   8.456   4.915  0.1350 -1.1181 -1.2109
45051SOL     OW42013   6.448   7.797   9.225  0.4673 -0.2768  0.2892
45051SOL    HW142014   6.431   7.766   9.136  1.0492 -2.0760  0.7725
45051SOL    HW242015   6.367   7.780   9.272  0.9203 -1.4877  0.6544
45052SOL     OW42016  11.386   6.053   8.190  0.2399  0.1956  0.3194
45052SOL    HW142017  11.413   6.014   8.107 -0.1730 -1.1269  0.7918
45052SOL    HW242018  11.441   6.131   8.198  0.0404  0.5552 -1.3589
45053SOL     OW42019   0.805  12.121   9.305  0.3238  0.2029 -0.1871
45053SOL    HW142020   0.852  12.086   9.230 -0.5622 -0.8734 -0.2678
45053SOL    HW242021   0.812  12.053   9.372 -0.2684  0.4465  0.1345
45054SOL     OW42022   3.289   4.685   0.204  0.0536  0.1719  0.3114
45054SOL    HW142023   3.219   4.623   0.181  0.2595 -0.1628  0.5876
45054SOL    HW242024   3.337   4.643   0.274  1.2320 -0.1016 -0.6201
45055SOL     OW42025  12.401   4.988   6.820  0.7568 -0.1417  0.3926
45055SOL    HW142026  12.329   5.035   6.862  0.7579 -0.2104  0.4723
45055SOL    HW242027  12.471   5.052   6.814 -0.2191  0.8184 -2.2633
45056SOL     OW42028   7.542   8.521   3.052  0.1128  0.2278 -0.2964
45056SOL    HW142029   7.549   8.604   3.005  1.0603 -0.0635 -0.6904
45056SOL    HW242030   7.620   8.472   3.027  0.6228  0.0265  1.5197
45057SOL     OW42031   2.559   4.398   5.546 -0.3016 -0.3403  0.0436
45057SOL    HW142032   2.551   4.313   5.590  0.9558 -0.3548  0.2765
45057SOL    HW242033   2.551   4.377   5.453 -3.5073 -0.2411  0.2036
45058SOL     OW42034   9.023   1.142   2.993 -0.1302 -0.5948  0.5595
45058SOL    HW142035   9.001   1.052   2.967 -0.6637 -0.8718  1.8614
45058SOL    HW242036   9.109   1.134   3.034  1.0481 -0.0405 -1.6308
45059SOL     OW42037   9.041   7.127   7.869 -0.2330  0.3459 -0.0777
45059SOL    HW142038   9.010   7.200   7.816 -0.5641  0.3891  0.1689
45059SOL    HW242039   8.983   7.127   7.946  0.7937  0.8374  0.7172
45060SOL     OW42040   7.998   1.622   2.205 -0.7517  0.1979  0.7171
45060SOL    HW142041   8.081   1.639   2.248 -0.0844 -0.0491 -0.4474
45060SOL    HW242042   7.933   1.630   2.275  0.2637  0.1152  1.6962
45061SOL     OW42043  12.235   5.220   0.517  0.0166  0.0804 -0.2468
45061SOL    HW142044  12.150   5.222   0.473 -0.8980  1.7151  1.4145
45061SOL    HW242045  12.249   5.128   0.540 -2.5115  0.0228  1.5014
45062SOL     OW42046   6.164  10.052   5.584 -0.6818  1.3839  0.2284
45062SOL    HW142047   6.124  10.138   5.570 -1.5875  0.9599  0.2102
45062SOL    HW242048   6.175  10.046   5.679  1.4944  2.4497  0.1190
45063SOL     OW42049   2.750   3.368  11.461  0.2431 -0.3758 -0.1181
45063SOL    HW142050   2.664   3.329  11.443  0.2610 -0.8419  0.7495
45063SOL    HW242051   2.730   3.458  11.488 -0.1023 -0.8813  1.4150
45064SOL     OW42052   7.730   9.737   0.437 -0.5908 -0.0225  0.2587
45064SOL    HW142053   7.705   9.734   0.529  1.6564 -1.9774  0.9342
45064SOL    HW242054   7.814   9.690   0.434 -1.1384 -1.0425 -2.9603
45065SOL     OW42055   4.935   3.754  11.241 -0.6559  0.4586  0.0444
45065SOL    HW142056   4.876   3.754  11.317 -0.5844  0.8158  0.1061
45065SOL    HW242057   5.022   3.763  11.280 -0.5919  0.2954 -0.0639
45066SOL     OW42058   7.984   9.265   8.435 -0.0489  0.2201  0.1927
45066SOL    HW142059   7.984   9.300   8.524  0.4728  0.9092 -0.0664
45066SOL    HW242060   8.033   9.329   8.384  0.8051 -0.8053 -0.3313
45067SOL     OW42061   5.798   9.424  10.296 -0.7290 -0.0902 -0.1609
45067SOL    HW142062   5.763   9.370  10.226 -0.8941  0.1018 -0.2262
45067SOL    HW242063   5.852   9.490  10.252 -2.0710  0.9967 -0.2377
45068SOL     OW42064   4.353   5.156   7.278 -0.6359 -0.0558  0.0560
45068SOL    HW142065   4.334   5.178   7.187 -2.4703  0.3533  0.4968
45068SOL    HW242066   4.432   5.103   7.274  0.8689  2.1549 -1.5287
45069SOL     OW42067   9.171   6.625   0.046 -0.2600  0.0847  0.1595
45069SOL    HW142068   9.187   6.714   0.078  1.1957  0.2669 -0.9480
45069SOL    HW242069   9.085   6.630   0.005  0.1666  1.2724 -0.6875
45070SOL     OW42070   9.467   9.403  10.717 -0.2471 -0.0255 -0.3601
45070SOL    HW142071   9.556   9.412  10.750  0.0147  0.9267 -1.2742
45070SOL    HW242072   9.425   9.487  10.736  0.2094  0.9603 -3.1876
45071SOL     OW42073   0.603   2.636  11.502 -0.2276 -0.2468 -0.5966
45071SOL    HW142074   0.627   2.545  11.481 -0.8298 -0.3150 -1.0233
45071SOL    HW242075   0.684   2.686  11.487 -0.1993 -0.5419 -1.5126
45072SOL     OW42076   9.326  10.128   1.552 -0.1561 -0.3314  0.3099
45072SOL    HW142077   9.317  10.143   1.458  1.2696 -0.1275  0.1750
45072SOL    HW242078   9.261  10.185   1.592  0.2995  0.8211 -0.5048
45073SOL     OW42079   9.818   5.109   5.106 -0.3987 -0.1228 -0.5893
45073SOL    HW142080   9.728   5.082   5.125 -0.5461  0.7878  0.0795
45073SOL    HW242081   9.815   5.204   5.108  0.3919 -0.0691 -1.5101
45074SOL     OW42082   8.687   4.854   3.065 -0.0934 -0.5678  0.4718
45074SOL    HW142083   8.670   4.761   3.046 -2.3594 -0.2841  0.8835
45074SOL    HW242084   8.630   4.902   3.005 -1.3257  0.4700  2.3660
45075SOL     OW42085   8.209   3.972   1.686 -0.3724 -0.1235 -1.1127
45075SOL    HW142086   8.237   4.062   1.670  0.9315 -0.2564  0.1646
45075SOL    HW242087   8.155   3.949   1.610 -0.3562  1.5657 -1.6768
45076SOL     OW42088   0.870   8.456   5.700 -0.0778 -0.2604 -0.6766
45076SOL    HW142089   0.803   8.512   5.662 -0.2919  0.1960  0.3337
45076SOL    HW242090   0.927   8.516   5.748 -0.2800 -0.8824  0.3832
45077SOL     OW42091   7.477   8.590   1.901  0.4822 -0.6214  0.4059
45077SOL    HW142092   7.502   8.643   1.977 -1.2170 -1.2804  1.4887
45077SOL    HW242093   7.450   8.653   1.835 -1.9339 -0.0373  1.8139
45078SOL     OW42094   5.910   9.405   2.178  0.0381 -0.1896  0.1939
45078SOL    HW142095   5.893   9.377   2.267 -0.2763 -0.4316  0.0598
45078SOL    HW242096   5.931   9.325   2.131  0.3149 -0.0496  0.0780
45079SOL     OW42097   4.484   5.422   3.166 -0.5505  0.2256  0.1358
45079SOL    HW142098   4.567   5.439   3.210 -0.6852 -2.7938  1.8410
45079SOL    HW242099   4.468   5.500   3.112  2.0813  1.9872  1.7109
45080SOL     OW42100   2.312   3.933   0.855 -0.2174 -0.1042  0.2123
45080SOL    HW142101   2.239   3.951   0.795  0.5826  0.6336 -0.5693
45080SOL    HW242102   2.270   3.917   0.939 -1.2464  1.6539  0.0875
45081SOL     OW42103   0.551   4.250   0.411 -0.1871 -0.4206 -0.0614
45081SOL    HW142104   0.527   4.189   0.341 -2.0799  1.2321 -0.9592
45081SOL    HW242105   0.646   4.258   0.403 -0.3050 -0.5103 -2.2858
45082SOL     OW42106   4.081   7.488   3.534  0.5982  0.2902  0.0347
45082SOL    HW142107   3.996   7.516   3.499 -0.5475 -2.3180  0.4885
45082SOL    HW242108   4.074   7.503   3.628  0.4128 -0.4130  0.1379
45083SOL     OW42109   8.810   2.050   0.607  0.1314 -0.4110  0.4174
45083SOL    HW142110   8.798   2.063   0.513  0.4935  0.0698  0.4338
45083SOL    HW242111   8.900   2.018   0.616  1.0713  2.0733  0.7899
45084SOL     OW42112   0.935   2.128  11.819  0.2476 -0.4639 -0.0061
45084SOL    HW142113   0.851   2.173  11.823  1.1441  1.3693 -0.4775
45084SOL    HW242114   0.960   2.112  11.910 -0.4584 -0.7662  0.1383
45085SOL     OW42115   8.789   5.223  11.105 -0.2878  0.2555  0.2201
45085SOL    HW142116   8.832   5.305  11.128 -2.9101  1.7412  0.2029
45085SOL    HW242117   8.767   5.183  11.190  1.2247 -0.6139  0.2311
45086SOL     OW42118   1.704   6.432   7.302  0.4225 -0.3649 -0.5014
45086SOL    HW142119   1.704   6.374   7.226 -0.2709 -0.4585 -0.4419
45086SOL    HW242120   1.761   6.388   7.365  0.4720 -0.6225 -0.7214
45087SOL     OW42121   5.534  10.788   7.246 -0.2577  0.4721  0.2810
45087SOL    HW142122   5.491  10.703   7.246  0.1898  0.1670 -2.2384
45087SOL    HW242123   5.465  10.849   7.218  0.0819  0.4923 -0.5429
45088SOL     OW42124   0.873   5.432   1.959  0.1919  0.2218 -0.5960
45088SOL    HW142125   0.901   5.496   1.894  0.2167  1.2409  0.3838
45088SOL    HW242126   0.779   5.449   1.971  0.7742  2.3286  1.9847
45089SOL     OW42127   3.609   4.498  10.569  0.0803 -0.2482 -0.0414
45089SOL    HW142128   3.699   4.528  10.556  0.2667  0.1514  1.8467
45089SOL    HW242129   3.555   4.568  10.533  0.5350  0.2457  0.2110
45090SOL     OW42130   5.290   9.881   5.137  0.5617  0.0942 -0.2275
45090SOL    HW142131   5.246   9.800   5.161 -0.3616  1.0017  1.3207
45090SOL    HW242132   5.283   9.885   5.041 -0.3203 -1.1147 -0.2268
45091SOL     OW42133   1.874   9.316  10.658  0.5258 -0.4342  0.3773
45091SOL    HW142134   1.836   9.247  10.712  1.4871 -0.6700  0.7783
45091SOL    HW242135   1.883   9.277  10.571 -2.3183  0.3865 -0.3853
45092SOL     OW42136   4.039   3.234   0.790  0.2870  0.5518  0.4267
45092SOL    HW142137   4.004   3.197   0.871  0.9363 -1.4142 -0.1239
45092SOL    HW242138   4.024   3.328   0.798 -0.0012  0.3770  2.6518
45093SOL     OW42139   5.674   2.494   6.641  0.0762  0.1577 -0.5288
45093SOL    HW142140   5.600   2.440   6.613  0.3828 -0.5085 -0.0790
45093SOL    HW242141   5.645   2.584   6.626 -0.1039 -0.1435 -2.1521
45094SOL     OW42142   0.679   6.233   5.620 -0.2808  0.3273  0.7611
45094SOL    HW142143   0.641   6.241   5.532 -2.8091  0.0753  1.7367
45094SOL    HW242144   0.748   6.168   5.610 -1.2643 -0.5555 -0.8442
45095SOL     OW42145   3.458   0.635  11.712 -0.2837 -0.4004  0.3582
45095SOL    HW142146   3.452   0.728  11.734 -0.3730 -0.3458  0.1148
45095SOL    HW242147   3.537   0.629  11.658 -0.1402 -0.5080  0.5828
45096SOL     OW42148   2.689   7.374   0.363  0.3151 -0.1313 -0.4157
45096SOL    HW142149   2.704   7.361   0.269  0.1998 -1.4448 -0.2658
45096SOL    HW242150   2.615   7.318   0.384  1.4189 -1.1925  0.7988
45097SOL     OW42151  12.243   6.076  11.725 -0.3405 -0.1039  0.3124
45097SOL    HW142152  12.310   6.055  11.791 -0.0611 -1.3021 -0.3214
45097SOL    HW242153  12.241   5.999  11.669 -0.9313  0.7019 -0.7913
45098SOL     OW42154   6.136   2.773   2.663  0.0163 -0.6409  0.4984
45098SOL    HW142155   6.205   2.838   2.647  0.5349 -0.8922  1.5795
45098SOL    HW242156   6.179   2.689   2.648 -0.0787 -0.7947  1.0712
45099SOL     OW42157   7.006   0.365   3.478  0.2786  0.8211 -0.0115
45099SOL    HW142158   7.066   0.291   3.491 -0.0610  0.9046  2.3538
45099SOL    HW242159   7.053   0.440   3.515  0.6226  1.8682 -2.3910
45100SOL     OW42160   6.720   8.051   6.630  0.5393  0.1198 -0.3997
45100SOL    HW142161   6.770   8.119   6.677  0.1806 -0.7194  1.2778
45100SOL    HW242162   6.785   7.983   6.611 -0.2909 -3.2324  5.9074
45101SOL     OW42163   0.445  10.464   9.547 -0.1526  0.6183  0.5530
45101SOL    HW142164   0.369  10.430   9.594  1.5240 -1.5142  1.9009
45101SOL    HW242165   0.472  10.541   9.597 -0.9843  0.9783  0.4631
45102SOL     OW42166  11.090   3.149   2.971 -0.2362 -0.2982  0.1818
45102SOL    HW142167  11.077   3.073   3.027 -1.0983 -0.5164 -0.2937
45102SOL    HW242168  11.168   3.192   3.006 -0.0368 -1.1173  0.7656
45103SOL     OW42169  11.225   1.486   9.155  0.5051  0.0122  0.4836
45103SOL    HW142170  11.185   1.443   9.080 -0.1545  0.2960  0.6649
45103SOL    HW242171  11.184   1.445   9.232  1.6187 -0.7065  0.7096
45104SOL     OW42172   2.183   6.664   6.720  0.0899 -0.0559 -0.0200
45104SOL    HW142173   2.255   6.614   6.681 -0.9291 -0.0631 -2.0354
45104SOL    HW242174   2.108   6.605   6.717 -0.6765  0.9134 -0.6344
45105SOL     OW42175   4.314  10.740   4.654  0.2914 -0.0736 -0.1056
45105SOL    HW142176   4.221  10.722   4.643  0.4366 -1.2192  0.4279
45105SOL    HW242177   4.336  10.704   4.740  1.4964 -1.0091 -0.7624
45106SOL     OW42178   0.226   8.643   9.803 -0.1446 -0.2195  0.1624
45106SOL    HW142179   0.282   8.698   9.749  1.4404  0.1176  2.0379
45106SOL    HW242180   0.141   8.686   9.801  0.4893  1.0623 -0.1828
45107SOL     OW42181   5.267   2.840   2.829  0.2618  0.1576  0.1665
45107SOL    HW142182   5.351   2.819   2.871 -0.1418 -1.1284  0.3664
45107SOL    HW242183   5.222   2.756   2.822 -0.6983  0.7213 -0.6426
45108SOL     OW42184  10.666   1.012   0.625 -0.0111 -0.4329 -0.4421
45108SOL    HW142185  10.725   0.965   0.684 -1.0256 -1.2384 -0.0362
45108SOL    HW242186  10.580   0.972   0.640 -0.3544 -0.4525 -2.2561
45109SOL     OW42187   0.096   9.381   6.221  0.1005  0.2741 -0.2552
45109SOL    HW142188   0.005   9.390   6.250  0.3991 -0.4799  0.9854
45109SOL    HW242189   0.137   9.465   6.243 -0.2756  0.6050 -0.7931
45110SOL     OW42190   5.572   3.818   4.812 -0.0470 -0.0818  0.2640
45110SOL    HW142191   5.560   3.772   4.895  0.3235  0.9574  0.9208
45110SOL    HW242192   5.554   3.753   4.745 -1.3880 -0.6704  1.1620
45111SOL     OW42193  12.155   4.973   5.843  0.3803 -0.0048  0.4800
45111SOL    HW142194  12.092   4.919   5.794  1.2711 -0.3711 -0.2859
45111SOL    HW242195  12.115   4.984   5.929 -1.7542  1.5404 -0.6076
45112SOL     OW42196   0.145   6.657  12.242  0.5973  0.1653  0.0834
45112SOL    HW142197   0.146   6.638  12.148  0.5962  0.1192  0.0922
45112SOL    HW242198   0.054   6.675  12.262  0.6955  0.8292 -0.0499
45113SOL     OW42199   2.443   8.608   3.156 -0.2214  0.2472  0.2374
45113SOL    HW142200   2.488   8.577   3.235  0.3274  0.4594  0.0064
45113SOL    HW242201   2.358   8.639   3.189  0.4837  1.4995  0.9334
45114SOL     OW42202   0.297   7.243   3.415  0.2707 -0.3187 -0.1865
45114SOL    HW142203   0.346   7.321   3.390 -0.1174  0.0230  0.1020
45114SOL    HW242204   0.316   7.179   3.347 -0.4435  0.4552 -1.1374
45115SOL     OW42205   1.905  10.483   9.011 -0.3137  0.0049 -0.5609
45115SOL    HW142206   1.933  10.394   8.987  0.7341  0.4094 -0.8529
45115SOL    HW242207   1.836  10.504   8.948  2.0686  0.8758 -3.0527
45116SOL     OW42208   6.425   6.207   7.495  0.0535 -0.3975 -0.1168
45116SOL    HW142209   6.514   6.231   7.472  0.3336 -0.8125  0.5183
45116SOL    HW242210   6.414   6.238   7.585  0.1213 -1.8218  0.3996
45117SOL     OW42211   4.401   7.136   8.416 -0.4598 -0.2906  0.2204
45117SOL    HW142212   4.369   7.154   8.505  1.3598  0.0651  0.8472
45117SOL    HW242213   4.374   7.045   8.400 -0.6449 -0.4323  1.2150
45118SOL     OW42214   9.128   6.689   6.477  0.0715  0.3511 -0.3698
45118SOL    HW142215   9.080   6.772   6.471  1.0915  0.9077 -1.0594
45118SOL    HW242216   9.176   6.683   6.394 -0.2060 -1.0701 -0.4443
45119SOL     OW42217   1.518   8.638   8.300 -0.0668 -0.7203  0.2591
45119SOL    HW142218   1.608   8.669   8.297  0.3172 -1.8164 -1.0402
45119SOL    HW242219   1.474   8.695   8.363  2.0338 -1.5145  2.6110
45120SOL     OW42220  10.227   9.028   8.069 -0.5492 -0.7556 -0.2821
45120SOL    HW142221  10.165   9.075   8.012 -0.3069 -0.3856 -0.2420
45120SOL    HW242222  10.183   9.023   8.154 -0.2188  0.1682 -0.0490
45121SOL     OW42223   0.286   3.750   5.699  0.4713  0.1696  0.0979
45121SOL    HW142224   0.312   3.841   5.713 -1.9608  0.7109  1.7242
45121SOL    HW242225   0.281   3.713   5.788 -2.4670 -0.3073 -0.1619
45122SOL     OW42226   0.134   5.994  12.262  0.2487 -0.3567 -0.3001
45122SOL    HW142227   0.158   5.928  12.327  2.1173  1.4100  0.9562
45122SOL    HW242228   0.075   6.054  12.309 -1.2461 -0.9429 -1.3490
45123SOL     OW42229   2.491   5.031   1.523 -0.0508 -0.1662  0.3262
45123SOL    HW142230   2.489   5.100   1.457 -0.6416 -0.4297  0.0685
45123SOL    HW242231   2.503   4.950   1.473 -0.6581 -0.3825  0.5191
45124SOL     OW42232  10.686   0.031   4.964 -0.3928  0.2215 -0.2576
45124SOL    HW142233  10.752  -0.034   4.986 -1.1551 -0.3508  0.4114
45124SOL    HW242234  10.731   0.115   4.970  0.6757 -0.2423 -1.3955
45125SOL     OW42235   7.607   1.508   7.050  0.4966  0.0376 -0.1762
45125SOL    HW142236   7.558   1.574   7.098 -1.4806  0.0727 -2.1321
45125SOL    HW242237   7.543   1.466   6.993  2.3409 -1.3786 -1.3310
45126SOL     OW42238   7.799  12.030   1.395 -0.5468 -0.2330  0.4624
45126SOL    HW142239   7.745  11.952   1.407 -1.9087  0.0806 -2.6642
45126SOL    HW242240   7.765  12.071   1.315  0.7276  3.0818  1.4587
45127SOL     OW42241  11.765   0.351  10.786 -0.3401 -0.0210  0.3653
45127SOL    HW142242  11.764   0.262  10.821  0.7991 -0.1039  0.2233
45127SOL    HW242243  11.740   0.340  10.694 -1.6071 -0.0029  0.6782
45128SOL     OW42244  10.209   2.831   7.947  0.1920 -0.2967  0.5405
45128SOL    HW142245  10.228   2.860   8.037  0.8241 -3.2867  1.4985
45128SOL    HW242246  10.161   2.749   7.959 -0.3741 -0.3764 -1.8968
45129SOL     OW42247   4.974   4.749   6.968  0.3991  0.3400 -0.3307
45129SOL    HW142248   4.980   4.766   7.062 -2.6793 -1.1223  0.2551
45129SOL    HW242249   4.973   4.654   6.961 -1.1892  0.4200 -1.6594
45130SOL     OW42250   8.845  10.916   3.520  0.6314  0.0366  0.2080
45130SOL    HW142251   8.802  10.945   3.440 -0.1544  1.0833  0.9754
45130SOL    HW242252   8.937  10.937   3.507  1.0650 -2.4597 -1.5596
45131SOL     OW42253   2.135   8.684   8.221 -0.2803  0.1126  0.1037
45131SOL    HW142254   2.071   8.733   8.169  1.5358  1.9581 -0.5576
45131SOL    HW242255   2.129   8.722   8.309 -1.6892 -1.3636  0.6872
45132SOL     OW42256   9.947   2.549   0.810 -0.4716  0.6125 -0.7167
45132SOL    HW142257   9.904   2.496   0.878 -1.7461  2.2125 -0.1918
45132SOL    HW242258   9.940   2.497   0.730 -0.6999 -0.4663 -0.0159
45133SOL     OW42259   4.962   2.598   8.354 -0.2518  0.2590 -0.4105
45133SOL    HW142260   4.941   2.530   8.418 -0.3864  1.2534  0.6293
45133SOL    HW242261   5.019   2.659   8.401 -1.3250  1.6496 -0.8287
45134SOL     OW42262   7.859   1.940  10.686 -0.0065  0.2170 -0.1997
45134SOL    HW142263   7.905   2.007  10.635 -0.5473  1.0698  0.4109
45134SOL    HW242264   7.820   1.987  10.759  0.5745 -0.9609  0.9077
45135SOL     OW42265   5.313   4.144  10.735  0.0470  0.2249 -0.3977
45135SOL    HW142266   5.399   4.122  10.700  0.4733  0.0486  0.7261
45135SOL    HW242267   5.273   4.060  10.755 -0.5672  0.2889 -1.2917
45136SOL     OW42268  11.886   4.652   0.564 -0.4390  0.1747 -0.0927
45136SOL    HW142269  11.880   4.706   0.643 -0.3654 -0.7191  0.5395
45136SOL    HW242270  11.934   4.707   0.502  0.2830  0.5661  0.7828
45137SOL     OW42271   5.770   5.172  12.254 -0.0263  0.1996  0.2746
45137SOL    HW142272   5.701   5.144  12.314  0.5367 -0.9224  0.4266
45137SOL    HW242273   5.724   5.208  12.179 -0.7795 -0.5204  0.3801
45138SOL     OW42274  10.982   4.891   9.235  0.1653  0.1813 -0.4820
45138SOL    HW142275  10.915   4.959   9.227 -0.4372 -0.1954  1.1322
45138SOL    HW242276  11.017   4.902   9.323  2.7370  0.7815 -1.4761
45139SOL     OW42277   6.180  11.453  10.168  0.2811 -0.6767  0.2746
45139SOL    HW142278   6.143  11.539  10.151  2.5696  0.2993 -0.1235
45139SOL    HW242279   6.106  11.393  10.160 -0.9893  1.0100 -1.6362
45140SOL     OW42280   9.341   0.765   6.950 -0.3223  0.3592 -0.4431
45140SOL    HW142281   9.356   0.682   6.905  0.6671  1.5831 -2.5400
45140SOL    HW242282   9.423   0.782   6.996 -0.0572  0.7521 -1.0492
45141SOL     OW42283   1.050   2.105   8.605 -0.2578 -0.0397 -0.0907
45141SOL    HW142284   1.091   2.104   8.519 -0.1440 -1.4984 -0.0472
45141SOL    HW242285   0.961   2.072   8.590 -1.2748  2.4449 -0.0777
45142SOL     OW42286   4.002  12.174   5.890  0.4607 -0.2814  0.1286
45142SOL    HW142287   3.972  12.093   5.849 -0.0343  0.3917 -0.9022
45142SOL    HW242288   4.005  12.237   5.818  1.0066  0.5733  0.8756
45143SOL     OW42289   3.328   3.150   7.863 -0.1066  0.2056  0.6064
45143SOL    HW142290   3.336   3.235   7.820  0.7210 -0.7882 -1.2994
45143SOL    HW242291   3.236   3.125   7.850 -0.0728  0.2970  0.2006
45144SOL     OW42292   1.561   6.565   8.598 -0.1014 -0.3201 -0.0387
45144SOL    HW142293   1.656   6.555   8.601 -0.1237 -0.7160 -0.5000
45144SOL    HW242294   1.545   6.657   8.618  0.1984 -0.8849  3.4185
45145SOL     OW42295   1.029   6.668  11.417 -0.1879  0.3967  0.2386
45145SOL    HW142296   0.952   6.658  11.473 -1.6905 -1.9935 -2.0095
45145SOL    HW242297   1.038   6.762  11.404 -0.3027  0.9855  3.6353
45146SOL     OW42298   3.710   6.468   4.916 -0.1573  0.2595 -0.4808
45146SOL    HW142299   3.625   6.425   4.912 -0.2702  0.4605 -0.2685
45146SOL    HW242300   3.689   6.561   4.924  0.0795  0.4254 -1.5832
45147SOL     OW42301   2.821   7.931   4.408 -0.1415 -0.0852 -0.8437
45147SOL    HW142302   2.840   7.945   4.315 -1.1976  0.3307 -1.0120
45147SOL    HW242303   2.726   7.919   4.411 -0.1184 -0.0881  0.1874
45148SOL     OW42304   8.106   4.990   4.375 -0.0028  0.5005 -0.2545
45148SOL    HW142305   8.141   5.072   4.340 -0.4426  0.5604 -0.5683
45148SOL    HW242306   8.041   4.963   4.310  0.9775 -0.7190 -0.7615
45149SOL     OW42307   2.199   1.131   8.711  0.2146 -0.4315 -0.0958
45149SOL    HW142308   2.275   1.173   8.749  0.1496 -1.4649  1.2685
45149SOL    HW242309   2.140   1.203   8.689  0.5670  0.2650  1.1320
45150SOL     OW42310  11.218   8.886  12.106  0.1550 -0.3893 -0.2497
45150SOL    HW142311  11.205   8.966  12.055  1.3213 -1.5495 -2.5173
45150SOL    HW242312  11.132   8.845  12.109 -0.1775  0.3017 -0.2145
45151SOL     OW42313   4.917  11.887   5.324 -0.0244  0.0277  0.4731
45151SOL    HW142314   4.923  11.813   5.384  1.0102 -1.7717 -1.6876
45151SOL    HW242315   5.008  11.914   5.310 -0.0554 -0.7292 -1.5094
45152SOL     OW42316   5.871   1.918   8.054 -0.4809 -0.0698  0.1389
45152SOL    HW142317   5.930   1.993   8.055  0.2923 -0.6585 -0.2543
45152SOL    HW242318   5.789   1.953   8.019  0.1651  0.3867 -0.9758
45153SOL     OW42319   5.608   0.550   3.890 -0.0562 -0.2789 -0.2575
45153SOL    HW142320   5.569   0.544   3.803 -0.7391 -0.9571  0.0818
45153SOL    HW242321   5.618   0.644   3.906  0.8025 -0.1646 -1.3711
45154SOL     OW42322  11.410   4.140   7.535 -0.0278  0.0187  0.1090
45154SOL    HW142323  11.435   4.090   7.612  1.4796 -0.6817 -0.7917
45154SOL    HW242324  11.418   4.232   7.562 -1.8117 -0.1767  1.4522
45155SOL     OW42325   4.153  12.304   0.238  0.0447  0.0883  0.3911
45155SOL    HW142326   4.190  12.351   0.162 -1.4054 -0.5311 -0.7474
45155SOL    HW242327   4.178  12.357   0.313  0.7566  1.2283 -0.6119
45156SOL     OW42328  10.646   1.161   4.742 -0.6305 -0.1784 -0.4594
45156SOL    HW142329  10.597   1.225   4.793  0.1748  0.5953 -0.6276
45156SOL    HW242330  10.683   1.212   4.669 -0.8473 -1.0466 -1.1967
45157SOL     OW42331   9.891   8.086  12.197  0.2538 -0.0207 -0.2339
45157SOL    HW142332   9.901   8.025  12.269 -1.4423 -0.0355  0.0265
45157SOL    HW242333   9.975   8.132  12.192  1.2840 -1.7674  0.0831
45158SOL     OW42334   4.141   5.869   9.406  0.2137 -0.5394 -0.0912
45158SOL    HW142335   4.180   5.956   9.414 -2.2496  0.5343  1.3480
45158SOL    HW242336   4.140   5.850   9.312  2.4419  0.1331 -0.2913
45159SOL     OW42337   8.024   8.282   7.843 -0.3390  0.1761 -0.2903
45159SOL    HW142338   7.967   8.354   7.871 -2.0938  0.0237 -3.0354
45159SOL    HW242339   7.963   8.211   7.822  1.2069 -1.4053  0.3088
45160SOL     OW42340   7.611   9.381   4.099  0.4732 -0.2141 -0.3120
45160SOL    HW142341   7.648   9.393   4.187 -2.1471  1.4929  0.6630
45160SOL    HW242342   7.518   9.363   4.114 -0.0000 -0.1217 -2.7428
45161SOL     OW42343   1.239   4.600   1.597 -0.1371  0.2640  0.5811
45161SOL    HW142344   1.238   4.515   1.551  0.6789 -0.0354  1.0889
45161SOL    HW242345   1.318   4.643   1.565  0.5586 -0.0339  1.8363
45162SOL     OW42346   0.708   8.091   6.262  0.1100 -0.1332  0.3749
45162SOL    HW142347   0.783   8.136   6.222  0.6897  0.3644  1.9549
45162SOL    HW242348   0.649   8.162   6.288 -0.1912 -0.4396  0.5306
45163SOL     OW42349  10.394  12.027   0.159 -0.4287 -0.0712  0.1852
45163SOL    HW142350  10.430  11.957   0.105  0.5944  0.7524 -0.2291
45163SOL    HW242351  10.466  12.053   0.216 -0.5407  1.1723 -0.2065
45164SOL     OW42352   4.097   7.296   8.410  0.6044  0.3513 -0.2261
45164SOL    HW142353   4.147   7.315   8.330  1.7130  0.9204  0.5779
45164SOL    HW242354   4.124   7.208   8.435  1.1260  0.6190  0.1522
45165SOL     OW42355   4.820  10.088   8.388  1.1054  0.0528 -0.1341
45165SOL    HW142356   4.841  10.038   8.309 -1.5998 -0.8314 -0.3968
45165SOL    HW242357   4.833  10.025   8.460  0.9175  0.0001 -0.1453
45166SOL     OW42358   2.811   4.871  11.926 -0.0963  0.5223 -0.3468
45166SOL    HW142359   2.906   4.868  11.926 -0.0418  0.8439  1.5065
45166SOL    HW242360   2.784   4.797  11.980 -0.9354  0.1587 -1.2263
45167SOL     OW42361   4.125   2.239   4.836  0.0381 -0.1745  0.0641
45167SOL    HW142362   4.062   2.217   4.767  1.5755 -0.7461 -1.2165
45167SOL    HW242363   4.123   2.334   4.841 -1.3833 -0.2094  0.5057
45168SOL     OW42364   7.911   9.295   7.029  0.4645 -0.2776 -0.2643
45168SOL    HW142365   7.966   9.249   7.093  1.2144 -0.6794 -1.1869
45168SOL    HW242366   7.967   9.309   6.954 -0.7693 -0.9313 -1.3517
45169SOL     OW42367   3.244   7.911   6.011 -0.5594 -0.0355 -0.0833
45169SOL    HW142368   3.218   7.842   6.072 -1.2248  0.0136 -0.3079
45169SOL    HW242369   3.180   7.906   5.940 -0.5913  0.7897 -0.1215
45170SOL     OW42370  10.145   7.721   2.473 -0.1785  0.0048 -0.2348
45170SOL    HW142371  10.052   7.720   2.450 -0.8981  0.1934  2.4196
45170SOL    HW242372  10.148   7.693   2.564  2.3986 -0.0830 -0.2756
45171SOL     OW42373   8.777   1.327   2.507 -0.0001  0.3416 -0.2397
45171SOL    HW142374   8.798   1.290   2.592 -0.7885 -0.4404 -0.3729
45171SOL    HW242375   8.854   1.308   2.453  0.7293  1.3101  0.4163
45172SOL     OW42376   1.710   6.007  11.343 -0.5167  0.0052  0.6972
45172SOL    HW142377   1.763   5.954  11.404  0.6822 -0.6776 -0.8777
45172SOL    HW242378   1.640   5.949  11.315  0.7123 -0.7701 -0.9138
45173SOL     OW42379  10.126   9.654  10.488 -0.0964  0.0878 -0.6163
45173SOL    HW142380  10.039   9.615  10.484 -0.6489  0.9403  1.5197
45173SOL    HW242381  10.187   9.580  10.487 -1.0087 -0.7360  1.0040
45174SOL     OW42382   1.060   6.188   6.380 -0.3970 -0.3258  0.1189
45174SOL    HW142383   1.060   6.174   6.474 -2.1857  1.2763  0.4201
45174SOL    HW242384   0.978   6.236   6.363 -0.0319 -0.4219 -2.2131
45175SOL     OW42385   4.892   7.191   8.735  0.3344  0.0407  0.1024
45175SOL    HW142386   4.959   7.140   8.689 -1.9634 -0.3929 -3.1323
45175SOL    HW242387   4.827   7.127   8.763 -0.4134  0.7341  0.0061
45176SOL     OW42388   4.577   1.904   9.061  1.0692 -0.0464  0.5679
45176SOL    HW142389   4.503   1.850   9.033  0.8168  0.7432 -0.3313
45176SOL    HW242390   4.617   1.855   9.133  0.2595 -0.9490  0.4145
45177SOL     OW42391   9.845   8.823   1.734  0.4986  0.6676  0.0774
45177SOL    HW142392   9.775   8.865   1.684  1.5824 -0.3160 -2.4371
45177SOL    HW242393   9.800   8.768   1.797 -0.9974  0.6847 -0.9225
45178SOL     OW42394   5.894   1.044   4.691 -0.7424  0.2021  0.3480
45178SOL    HW142395   5.865   1.108   4.755 -0.3412  0.0001  0.7371
45178SOL    HW242396   5.938   1.096   4.623  1.4007  0.2124  1.6500
45179SOL     OW42397   2.988  10.297  10.034 -0.2522  0.3268  0.0770
45179SOL    HW142398   3.069  10.345  10.052 -0.0983  0.9257 -1.9547
45179SOL    HW242399   3.001  10.212  10.074  1.1419  0.6226  0.2945
45180SOL     OW42400   9.516   2.295   8.965  0.7629  0.8472 -0.6211
45180SOL    HW142401   9.523   2.381   8.925  0.1806  1.5077  0.6426
45180SOL    HW242402   9.441   2.302   9.024  0.3879 -0.6790 -0.8630
45181SOL     OW42403   8.676   2.079   8.278  0.4151  0.7262  0.2560
45181SOL    HW142404   8.637   2.100   8.363  0.1317  1.8327 -0.1238
45181SOL    HW242405   8.607   2.097   8.215  0.1428 -1.4762 -0.1420
45182SOL     OW42406   1.425   9.292   4.991  0.3073  0.0078 -0.4474
45182SOL    HW142407   1.509   9.317   4.952  0.5534 -0.8845 -0.5074
45182SOL    HW242408   1.448   9.252   5.074 -0.1193  0.5044 -0.0871
45183SOL     OW42409   3.291   6.477   9.405  0.2042 -0.0871  0.0251
45183SOL    HW142410   3.347   6.526   9.345  0.5757  1.5588  1.6028
45183SOL    HW242411   3.237   6.422   9.349  1.9495 -0.1739 -1.6654
45184SOL     OW42412   4.261   0.965  10.806  0.3659  0.1072 -0.4176
45184SOL    HW142413   4.355   0.976  10.795  0.6911 -1.3742  0.5772
45184SOL    HW242414   4.231   0.933  10.720  0.5079  1.8454 -1.1553
45185SOL     OW42415   3.820   3.346   1.213  0.3469 -0.0852  0.2679
45185SOL    HW142416   3.744   3.392   1.175 -1.3470 -1.5166  1.7380
45185SOL    HW242417   3.894   3.405   1.197 -1.0756  1.4535 -1.0858
45186SOL     OW42418   1.523   9.171  11.196 -0.1260  0.5297 -0.0484
45186SOL    HW142419   1.472   9.132  11.268 -0.2671 -0.8917 -0.8878
45186SOL    HW242420   1.611   9.137  11.208  0.1720  1.3915  0.2359
45187SOL     OW42421   0.392  10.750   6.653  0.0891 -0.4106 -1.1042
45187SOL    HW142422   0.430  10.676   6.605  1.9444 -0.1073 -0.2179
45187SOL    HW242423   0.468  10.793   6.693 -1.2908 -0.4889  1.8536
45188SOL     OW42424   4.607   5.097   2.687 -0.1427 -0.2146 -0.7240
45188SOL    HW142425   4.574   5.120   2.600 -2.6164  0.3439  0.2823
45188SOL    HW242426   4.529   5.075   2.737  1.2484 -0.8307  1.2979
45189SOL     OW42427   0.588   9.050  10.180  0.2662 -0.3453  1.0982
45189SOL    HW142428   0.573   8.982  10.246  0.7910 -0.5163  1.0416
45189SOL    HW242429   0.660   9.017  10.126  1.6549  0.9569  2.0722
45190SOL     OW42430   2.558   9.654  12.371  0.2115 -0.5273  0.2003
45190SOL    HW142431   2.464   9.653  12.389 -0.4626 -0.5777 -2.8378
45190SOL    HW242432   2.571   9.729  12.313  1.7546 -1.4679 -0.7352
45191SOL     OW42433   3.676   6.000   4.486 -0.0259  0.3410  0.7221
45191SOL    HW142434   3.585   5.971   4.479 -0.2117 -0.0203  3.3470
45191SOL    HW242435   3.721   5.927   4.530  0.9559  1.4420  1.6318
45192SOL     OW42436   3.039  10.899   0.119  0.1437 -0.7775  0.0301
45192SOL    HW142437   3.087  10.852   0.050  0.1071 -0.5783 -0.1328
45192SOL    HW242438   3.106  10.929   0.179  0.2478 -0.3064 -0.3147
45193SOL     OW42439  10.792   2.254   6.786  0.2091  0.1158  0.6844
45193SOL    HW142440  10.791   2.162   6.815  1.1983 -0.7375 -1.7628
45193SOL    HW242441  10.716   2.261   6.728  0.3649  0.7539  0.5544
45194SOL     OW42442   3.963   6.667  10.241 -0.0154 -0.7394 -0.2630
45194SOL    HW142443   3.889   6.684  10.300  0.9220  0.3032  0.6567
45194SOL    HW242444   3.925   6.671  10.154 -1.0505 -0.2136  0.1894
45195SOL     OW42445   8.550   0.705  10.354 -0.4790  0.1901 -0.5236
45195SOL    HW142446   8.485   0.775  10.346 -1.4054 -0.4557  0.9438
45195SOL    HW242447   8.625   0.748  10.395 -1.1389  0.3214  0.6196
45196SOL     OW42448   3.999   8.520   0.013 -0.4797 -0.2292  0.5125
45196SOL    HW142449   4.006   8.616   0.017 -0.9443 -0.1389 -0.3818
45196SOL    HW242450   3.989   8.493   0.104 -1.5976  0.6934  0.6939
45197SOL     OW42451  11.463   0.918   2.634  0.0017 -0.0207  0.6602
45197SOL    HW142452  11.433   0.973   2.561 -0.7947  1.4537  2.0253
45197SOL    HW242453  11.553   0.947   2.651  0.0018  0.0084  0.6103
45198SOL     OW42454  10.336   9.914   5.209  0.2324 -0.0178  0.3790
45198SOL    HW142455  10.310   9.827   5.238 -0.5304 -0.0334 -0.3216
45198SOL    HW242456  10.405   9.898   5.145  0.0828 -0.1060  0.2405
45199SOL     OW42457  11.511   3.501   2.840 -0.6539  0.1734  0.0847
45199SOL    HW142458  11.457   3.464   2.911 -0.7294  0.5121  0.2081
45199SOL    HW242459  11.588   3.536   2.885  0.0612 -1.0103 -0.1761
45200SOL     OW42460   3.425  11.288   7.348  0.0900  0.2912  0.1437
45200SOL    HW142461   3.345  11.260   7.303  1.1950  0.7576 -2.3221
45200SOL    HW242462   3.395  11.326   7.430 -2.0140 -1.4884  0.2662
45201SOL     OW42463   7.066  11.226   6.301 -0.1745  0.6126  0.5367
45201SOL    HW142464   7.137  11.233   6.237 -0.6088  2.2480  0.1910
45201SOL    HW242465   7.010  11.156   6.266  0.5647  0.2054  0.1308
45202SOL     OW42466  10.774   3.693   7.074  0.1803  0.2016  0.7668
45202SOL    HW142467  10.827   3.729   7.144  1.0585  0.9890 -0.2680
45202SOL    HW242468  10.824   3.617   7.043  0.2138  0.3593  0.4348
45203SOL     OW42469   4.341   1.700   9.364 -0.1924 -0.0963  0.8121
45203SOL    HW142470   4.267   1.654   9.322 -0.1259  0.8124 -0.3564
45203SOL    HW242471   4.311   1.791   9.372  0.4865  0.1069  1.0875
45204SOL     OW42472   8.755   7.659   1.667  0.3778  0.0087 -0.0420
45204SOL    HW142473   8.708   7.704   1.597  0.1406  1.5391  1.0525
45204SOL    HW242474   8.779   7.574   1.629 -0.2025  0.5785 -1.7766
45205SOL     OW42475   1.201   1.203   1.898  0.0622  0.2326 -0.5209
45205SOL    HW142476   1.239   1.140   1.838 -0.4799  0.5998 -1.2774
45205SOL    HW242477   1.144   1.151   1.955  0.7242 -0.1432 -0.1981
45206SOL     OW42478   2.263  10.610   7.748  0.5962 -0.3064 -0.1823
45206SOL    HW142479   2.346  10.596   7.701  0.5714  1.2063 -0.7120
45206SOL    HW242480   2.195  10.593   7.683  0.5508  0.9329 -0.4885
45207SOL     OW42481   3.156   0.101   0.466 -0.8624  0.2420  0.2558
45207SOL    HW142482   3.104   0.082   0.544  1.0655 -1.6286  1.2070
45207SOL    HW242483   3.207   0.179   0.489 -1.7104  0.8644  0.0828
45208SOL     OW42484  10.171   6.663   6.793  0.5023  0.3920  0.5814
45208SOL    HW142485  10.230   6.734   6.820 -0.4854  0.7237  1.9894
45208SOL    HW242486  10.120   6.643   6.872 -1.9060  0.7562 -0.7744
45209SOL     OW42487   5.233   2.439   3.486 -0.0215  0.0000  0.0913
45209SOL    HW142488   5.322   2.406   3.471 -0.4938 -1.0417 -0.5219
45209SOL    HW242489   5.206   2.397   3.567  0.2579  0.7781  0.5897
45210SOL     OW42490   7.712   5.413   7.346 -0.6255  0.3409  0.0070
45210SOL    HW142491   7.724   5.347   7.278  0.2277 -0.0725  0.5425
45210SOL    HW242492   7.766   5.382   7.419 -3.6081 -0.7126  1.9416
45211SOL     OW42493   7.780   7.880  11.193  0.0760 -0.0759 -0.6068
45211SOL    HW142494   7.709   7.821  11.168  2.2715 -2.5586 -1.5191
45211SOL    HW242495   7.751   7.966  11.166 -2.5397 -0.9751 -0.9615
45212SOL     OW42496   8.989   1.353   3.152  0.1498  0.4446  0.3804
45212SOL    HW142497   8.976   1.278   3.094  0.9336  1.4982 -1.2160
45212SOL    HW242498   9.083   1.350   3.173  0.3391  1.3909 -0.3019
45213SOL     OW42499  11.743   9.923  10.710 -0.2465  0.3723 -0.0201
45213SOL    HW142500  11.788   9.871  10.776 -0.7476 -0.7944 -0.5785
45213SOL    HW242501  11.799  10.000  10.698  1.2968 -0.7500 -0.2641
45214SOL     OW42502   8.791   8.134   2.929 -0.3945  0.4738  0.5392
45214SOL    HW142503   8.726   8.117   2.861 -1.3380 -0.0432  1.5271
45214SOL    HW242504   8.791   8.055   2.983  2.0529 -0.1026 -0.1713
45215SOL     OW42505   9.302   1.448  10.779  0.2303 -0.2184  0.2637
45215SOL    HW142506   9.261   1.368  10.747 -0.8702 -0.1174  1.3031
45215SOL    HW242507   9.392   1.424  10.799 -0.6414 -1.9000  2.7702
45216SOL     OW42508   9.215   0.400   8.541  0.0752 -0.4074 -0.6490
45216SOL    HW142509   9.200   0.312   8.507  0.1112 -0.3023 -0.9305
45216SOL    HW242510   9.260   0.446   8.471  0.7787 -0.4011 -0.1967
45217SOL     OW42511  10.586   1.012   0.927 -0.3366 -0.6481 -0.2828
45217SOL    HW142512  10.552   0.969   1.006 -1.1127 -0.3949 -0.4692
45217SOL    HW242513  10.589   1.105   0.950  1.2947 -0.7718  0.1036
45218SOL     OW42514   7.642   4.681   3.208 -0.3359 -0.2610 -0.4662
45218SOL    HW142515   7.700   4.630   3.265 -1.0808  1.5621  2.0929
45218SOL    HW242516   7.594   4.614   3.158  1.3408 -1.8985 -0.0284
45219SOL     OW42517   4.777   9.630   9.401 -0.2681  0.1743  0.2314
45219SOL    HW142518   4.682   9.617   9.395  0.0231 -1.9467 -1.8446
45219SOL    HW242519   4.795   9.634   9.494 -2.3004 -0.4528  0.7105
45220SOL     OW42520  10.479   8.552   9.149  0.1064  0.6258  1.2529
45220SOL    HW142521  10.501   8.645   9.149 -0.3922  0.7467  1.2955
45220SOL    HW242522  10.545   8.512   9.092  0.9010  0.8591  1.9902
45221SOL     OW42523   6.341   4.745   7.472  0.2227 -0.2539 -0.3336
45221SOL    HW142524   6.405   4.678   7.496  0.7800 -0.2648 -1.7507
45221SOL    HW242525   6.365   4.821   7.524  0.6876 -0.6033 -0.0224
45222SOL     OW42526   8.297   3.138   9.944 -0.6672 -0.9538 -0.0036
45222SOL    HW142527   8.384   3.156   9.980  0.1148 -0.5324 -1.9440
45222SOL    HW242528   8.254   3.083  10.009 -0.0376  1.1594  2.3338
45223SOL     OW42529   2.916   1.171   1.589 -0.0294  0.1356 -0.0666
45223SOL    HW142530   2.960   1.249   1.624 -0.1660 -0.4172  1.4254
45223SOL    HW242531   2.979   1.100   1.603 -0.6845 -0.3555  0.4652
45224SOL     OW42532  10.655  10.698  11.403 -0.4546  0.0609  0.2136
45224SOL    HW142533  10.601  10.774  11.420  0.6711  0.7226  0.9359
45224SOL    HW242534  10.685  10.669  11.489  1.5536  0.6534 -0.2179
45225SOL     OW42535   3.128   5.907   7.317  0.6532  0.6051  0.4156
45225SOL    HW142536   3.217   5.918   7.350  1.2131 -1.1470 -0.4324
45225SOL    HW242537   3.135   5.840   7.249 -1.2779  0.5994  0.1677
45226SOL     OW42538  11.442  10.924   6.000 -0.3020  0.1688 -0.2911
45226SOL    HW142539  11.445  11.006   5.951 -1.8971  0.4533  0.0400
45226SOL    HW242540  11.419  10.858   5.934  1.3921 -0.1252 -0.6411
45227SOL     OW42541   6.937   4.873   2.071  0.0601  0.6996  0.1718
45227SOL    HW142542   6.949   4.788   2.028  1.3087  1.0840 -0.3035
45227SOL    HW242543   6.936   4.853   2.164 -0.0320  0.1226  0.0539
45228SOL     OW42544   5.024  10.692   0.338 -0.1846  0.6141 -0.1539
45228SOL    HW142545   5.067  10.754   0.397  0.4455  1.8626 -1.8310
45228SOL    HW242546   5.083  10.618   0.333  1.0709  1.6260 -1.1807
45229SOL     OW42547   9.664   1.374   5.047  0.3477  0.3159  0.0617
45229SOL    HW142548   9.698   1.381   4.958 -0.6189 -0.1530 -0.3653
45229SOL    HW242549   9.680   1.284   5.072 -1.8375 -0.3687 -0.7270
45230SOL     OW42550   3.321   0.580   1.177  0.1022  0.0568  0.2716
45230SOL    HW142551   3.406   0.606   1.141  0.5161 -1.4754  0.0571
45230SOL    HW242552   3.262   0.583   1.102  0.2679 -0.1611  0.1314
45231SOL     OW42553   2.739   9.451   5.705 -0.1313 -0.3095 -0.0756
45231SOL    HW142554   2.798   9.379   5.685  0.9218  0.7202 -0.7726
45231SOL    HW242555   2.734   9.502   5.624 -0.2196  0.8347  0.6182
45232SOL     OW42556   9.271   5.503   1.220 -0.4977 -0.1753  0.2006
45232SOL    HW142557   9.243   5.425   1.172  0.1751  0.6785 -1.6488
45232SOL    HW242558   9.349   5.533   1.174 -2.1590  3.0760 -0.7802
45233SOL     OW42559   5.315  10.587   7.645 -0.5377  0.6151  0.3015
45233SOL    HW142560   5.376  10.544   7.705 -0.6165  0.0987  0.0140
45233SOL    HW242561   5.369  10.620   7.574 -0.8057 -1.7755 -1.0934
45234SOL     OW42562   1.962   8.059   8.719 -0.2211  0.7263 -1.0453
45234SOL    HW142563   1.921   7.978   8.689  0.1048 -0.8335  2.2512
45234SOL    HW242564   1.891   8.123   8.722 -1.1303 -0.2604 -1.0284
45235SOL     OW42565   3.312   9.637   1.787 -0.2620  0.3134  0.5018
45235SOL    HW142566   3.221   9.611   1.797 -0.2123  0.7768  2.7822
45235SOL    HW242567   3.349   9.631   1.875  2.3858 -1.4721 -0.5865
45236SOL     OW42568   3.399  11.095   6.120 -0.1187 -0.1286 -0.1983
45236SOL    HW142569   3.450  11.036   6.177 -1.0574 -0.6154  0.1615
45236SOL    HW242570   3.454  11.172   6.110  1.1618 -1.0636 -0.6959
45237SOL     OW42571   3.239   3.359   5.251 -0.0982  0.2788 -0.3013
45237SOL    HW142572   3.143   3.351   5.248 -0.0837 -0.6950  1.1434
45237SOL    HW242573   3.264   3.375   5.160 -1.5849  0.0140 -0.7857
45238SOL     OW42574   8.971   7.227   2.160 -0.2902 -0.3200  0.5120
45238SOL    HW142575   9.047   7.266   2.116 -0.6734  1.1089  1.0587
45238SOL    HW242576   8.915   7.196   2.088 -0.1388  0.4732  0.0380
45239SOL     OW42577   3.809   6.033   5.602 -0.3027  0.0986  0.2209
45239SOL    HW142578   3.854   5.952   5.627  1.1106  0.5848 -0.6225
45239SOL    HW242579   3.876   6.085   5.558 -1.9394  0.4629 -1.9921
45240SOL     OW42580   7.247   1.712   4.419  0.6696  0.0592 -0.3449
45240SOL    HW142581   7.248   1.644   4.353  0.0254 -0.8915  0.5877
45240SOL    HW242582   7.181   1.775   4.389  1.0732  0.1315 -1.0749
45241SOL     OW42583   9.187   9.099   4.884  0.5488 -0.1000  0.1618
45241SOL    HW142584   9.122   9.053   4.938 -0.9602  2.2231  0.4872
45241SOL    HW242585   9.169   9.070   4.795 -1.2812  0.8056  0.1948
45242SOL     OW42586   2.159  11.198  11.031  0.1100  0.3659 -0.2660
45242SOL    HW142587   2.066  11.189  11.052  0.0335  0.6447 -0.4826
45242SOL    HW242588   2.195  11.109  11.040 -0.1014  0.3260  0.1788
45243SOL     OW42589   1.808   1.755   0.389 -0.6633 -0.1307  0.6550
45243SOL    HW142590   1.734   1.813   0.371  0.7252  1.0741 -1.5283
45243SOL    HW242591   1.880   1.814   0.411  0.7119 -0.9558 -1.3425
45244SOL     OW42592   4.616   1.241   6.705  0.4617  0.7249 -0.0827
45244SOL    HW142593   4.595   1.169   6.646 -0.7813 -0.6282  1.8773
45244SOL    HW242594   4.553   1.310   6.683  0.5886  0.5943 -0.8875
45245SOL     OW42595   1.105  11.491   1.269  0.2668  0.3548 -0.7274
45245SOL    HW142596   1.041  11.550   1.229 -0.4412 -0.2368 -0.4871
45245SOL    HW242597   1.107  11.516   1.361  0.5328  0.5032 -0.7725
45246SOL     OW42598   3.945  11.628   2.762 -0.4838 -0.2287 -0.7424
45246SOL    HW142599   4.034  11.653   2.738 -0.4427  0.1704 -0.2020
45246SOL    HW242600   3.935  11.658   2.852 -1.3288  0.1726 -0.9580
45247SOL     OW42601   4.171   5.086   3.120  0.0708 -0.0643 -0.1984
45247SOL    HW142602   4.104   5.060   3.058  0.0033 -1.5413  0.4394
45247SOL    HW242603   4.189   5.006   3.171  0.5882  0.9133  1.2287
45248SOL     OW42604   2.842   7.063   2.288  0.5636  0.0194  0.5754
45248SOL    HW142605   2.786   7.052   2.365  2.8663 -0.9847  2.2070
45248SOL    HW242606   2.893   7.142   2.306  0.9737 -0.0929 -0.0570
45249SOL     OW42607  11.880  11.318   7.968 -0.4910 -0.2762 -0.0326
45249SOL    HW142608  11.927  11.305   7.886 -1.6755 -0.4490 -0.7095
45249SOL    HW242609  11.886  11.234   8.013 -2.1806 -1.1098 -1.2319
45250SOL     OW42610   9.556   3.829  10.736  0.5626 -0.3639  0.0769
45250SOL    HW142611   9.481   3.770  10.727 -0.7726  1.4026 -1.3268
45250SOL    HW242612   9.581   3.823  10.828 -0.8308 -1.5544  0.4200
45251SOL     OW42613   9.469  11.927   2.927 -0.1910 -0.3824 -0.3640
45251SOL    HW142614   9.436  11.922   3.016 -1.2206 -2.3072 -0.7988
45251SOL    HW242615   9.450  12.017   2.899  0.8719  0.4995  1.5684
45252SOL     OW42616   8.463   4.272   4.964  0.5626 -0.0347  0.0378
45252SOL    HW142617   8.478   4.362   4.993  0.7781 -0.7101  2.2444
45252SOL    HW242618   8.376   4.250   4.998  0.8243 -0.8792  0.1849
45253SOL     OW42619  12.149   8.802   6.574 -0.6031  0.1452  0.1648
45253SOL    HW142620  12.195   8.723   6.601 -0.3434  0.9204  2.1630
45253SOL    HW242621  12.169   8.866   6.643  1.0807  2.7065 -2.4631
45254SOL     OW42622  11.450   0.810  10.253  0.3230 -0.2032  0.1350
45254SOL    HW142623  11.369   0.847  10.219 -0.1324 -0.6523  0.6911
45254SOL    HW242624  11.475   0.869  10.324  0.1305 -0.4049  0.3766
45255SOL     OW42625  12.179   0.189   7.080  0.3088 -0.2437 -0.1216
45255SOL    HW142626  12.196   0.153   6.993 -3.7106 -0.2847 -1.0488
45255SOL    HW242627  12.186   0.114   7.139  0.2044 -0.8148 -0.8278
45256SOL     OW42628   9.178   4.911   9.719 -0.1952  0.1066 -0.3041
45256SOL    HW142629   9.177   4.904   9.624  0.1186  1.0234 -0.3854
45256SOL    HW242630   9.198   5.003   9.736 -2.3854  0.4789  0.6431
45257SOL     OW42631   3.216   2.614   2.989  0.5295  0.0708  0.1331
45257SOL    HW142632   3.147   2.626   3.054  1.3184 -1.4659  1.3080
45257SOL    HW242633   3.197   2.680   2.922 -0.4439  1.5462  1.7863
45258SOL     OW42634   0.250   8.098  10.947  0.0469 -0.0223  0.2574
45258SOL    HW142635   0.160   8.119  10.922  0.5000  0.9826 -0.6027
45258SOL    HW242636   0.267   8.014  10.903 -1.1167 -1.3205  2.1097
45259SOL     OW42637   9.287  10.406   1.747 -0.0665 -0.2089  0.1575
45259SOL    HW142638   9.256  10.462   1.676 -3.2742 -2.6307 -0.5435
45259SOL    HW242639   9.246  10.442   1.826  0.6882  0.4166  0.2776
45260SOL     OW42640  11.872   6.190   7.202 -0.7041 -0.1959 -0.3712
45260SOL    HW142641  11.819   6.247   7.147 -0.0057  2.3003  1.3909
45260SOL    HW242642  11.883   6.238   7.284  1.7285 -1.9535  0.4532
45261SOL     OW42643   9.047   4.844  11.724  0.0532  0.1996 -0.6144
45261SOL    HW142644   9.000   4.791  11.660 -1.1299 -0.2595  0.5784
45261SOL    HW242645   9.091   4.780  11.780 -0.7681  0.4647  0.3752
45262SOL     OW42646   9.979   0.223  11.947 -0.2761  0.1103  0.7586
45262SOL    HW142647   9.918   0.255  11.880 -0.4325 -0.1501  0.7773
45262SOL    HW242648  10.023   0.148  11.906 -0.6669 -0.3036  1.0895
45263SOL     OW42649   3.696   5.098   3.326  0.1822 -0.1693 -0.0306
45263SOL    HW142650   3.646   5.130   3.401  0.8287 -1.3388  0.9252
45263SOL    HW242651   3.763   5.164   3.311 -0.3512  0.3881 -0.0118
45264SOL     OW42652   5.747   0.548   2.222 -0.5225  0.6582  0.0275
45264SOL    HW142653   5.767   0.466   2.266  0.5745  0.0578 -1.5044
45264SOL    HW242654   5.783   0.538   2.134 -0.0999  2.8757 -0.1226
45265SOL     OW42655  12.002   0.692   6.974  0.5217 -0.2243  0.1708
45265SOL    HW142656  12.096   0.677   6.981  0.6445 -0.2064 -1.1612
45265SOL    HW242657  11.994   0.769   6.917 -0.3034 -1.0348 -0.8614
45266SOL     OW42658  10.703   1.662   7.083 -0.0747 -0.0947  0.2627
45266SOL    HW142659  10.743   1.598   7.142  1.1682  0.5375  0.1533
45266SOL    HW242660  10.752   1.743   7.099 -0.0571  0.2263 -1.2501
45267SOL     OW42661   5.892   8.966   2.195  0.0529  0.0937  0.3092
45267SOL    HW142662   5.820   8.912   2.227  2.4537 -3.0572  1.0114
45267SOL    HW242663   5.917   9.019   2.271 -0.7468  0.3019  0.4348
45268SOL     OW42664   5.682  12.164   1.066  0.0314  0.1105  0.6087
45268SOL    HW142665   5.759  12.151   1.011  0.2509  0.6908  0.7783
45268SOL    HW242666   5.668  12.259   1.066 -1.1612 -0.0457 -0.0807
45269SOL     OW42667  11.562   3.503   6.611 -0.1305 -0.8421  0.1525
45269SOL    HW142668  11.612   3.463   6.540  0.2974  0.5406 -0.3618
45269SOL    HW242669  11.580   3.448   6.687  1.6424 -0.7902 -0.1872
45270SOL     OW42670   5.525   6.938   8.973  0.4090  0.1225  0.2001
45270SOL    HW142671   5.472   7.014   8.995  0.3665 -0.0554  0.7153
45270SOL    HW242672   5.601   6.943   9.031  0.8848  0.2885 -0.4229
45271SOL     OW42673   9.827   9.366   7.301  0.3533 -0.2181 -0.2069
45271SOL    HW142674   9.851   9.294   7.360  0.4276  0.6952  0.9009
45271SOL    HW242675   9.791   9.433   7.359 -1.1907  0.0359 -1.3946
45272SOL     OW42676   4.093   1.506  10.212 -0.1125  0.0489 -0.1111
45272SOL    HW142677   4.016   1.465  10.252  0.5088 -0.9190  0.1056
45272SOL    HW242678   4.066   1.525  10.123 -0.7155  0.0394  0.0639
45273SOL     OW42679  11.697   8.577  10.529 -0.1739 -0.5051  1.0093
45273SOL    HW142680  11.602   8.566  10.533 -0.1694 -0.6961  0.6198
45273SOL    HW242681  11.723   8.536  10.447 -0.0395  1.4873 -0.0078
45274SOL     OW42682   4.328  10.910  10.659 -0.9524  0.5415 -0.6688
45274SOL    HW142683   4.233  10.913  10.661 -1.2538 -3.5775 -1.0407
45274SOL    HW242684   4.350  10.902  10.566 -0.4236 -0.3621 -0.4833
45275SOL     OW42685   5.007   6.138  12.077 -0.2031 -0.2133  0.2898
45275SOL    HW142686   4.935   6.140  12.141 -0.1555 -1.5047  0.4027
45275SOL    HW242687   5.035   6.047  12.075  1.7876  0.3462  0.6260
45276SOL     OW42688  10.670   9.377  12.056 -1.0247 -0.3686 -0.0704
45276SOL    HW142689  10.735   9.310  12.034 -1.2013 -0.3371 -0.7162
45276SOL    HW242690  10.595   9.328  12.091 -1.1297 -0.5116 -0.4843
45277SOL     OW42691  10.329  10.338   8.062 -0.2573 -0.1958 -0.0151
45277SOL    HW142692  10.357  10.364   7.974 -1.4993 -3.0628 -1.3928
45277SOL    HW242693  10.236  10.361   8.066 -0.3088 -0.4636  0.4103
45278SOL     OW42694   8.170   4.778   7.886  0.2425  0.4257 -0.3872
45278SOL    HW142695   8.252   4.801   7.928  0.3410  1.8649 -1.2896
45278SOL    HW242696   8.144   4.695   7.926  1.5835  0.4901  0.6626
45279SOL     OW42697   5.051   3.982   4.268  0.3816  0.0907 -0.0272
45279SOL    HW142698   4.983   3.945   4.211  0.2034  1.2789 -0.6150
45279SOL    HW242699   5.132   3.969   4.220  0.2207  1.1684 -0.6041
45280SOL     OW42700  11.254  10.886   0.824 -0.2028  0.4683  0.5919
45280SOL    HW142701  11.256  10.845   0.910 -0.8821  0.4814  0.6165
45280SOL    HW242702  11.229  10.977   0.841  0.3315  0.6455  0.4445
45281SOL     OW42703   7.909   2.859   8.694 -0.1369  0.5390 -0.3917
45281SOL    HW142704   7.865   2.913   8.628  0.2356  1.0875 -0.1953
45281SOL    HW242705   7.869   2.885   8.777 -0.0428  0.4247 -0.3114
45282SOL     OW42706   8.275   2.911   7.824  0.1780  0.6053 -0.7126
45282SOL    HW142707   8.345   2.958   7.870  0.9999 -1.7422  0.6146
45282SOL    HW242708   8.207   2.900   7.890  0.2885 -0.5893 -0.7773
45283SOL     OW42709   0.400   1.410   6.369  0.0549 -0.6565 -0.2801
45283SOL    HW142710   0.343   1.389   6.295 -2.2200 -0.7351  1.3588
45283SOL    HW242711   0.408   1.327   6.416  0.1460 -0.2706  0.3897
45284SOL     OW42712   1.124   9.637   3.368  0.2189 -0.0133 -0.3967
45284SOL    HW142713   1.064   9.585   3.315  0.3503  0.2460 -0.8007
45284SOL    HW242714   1.085   9.724   3.371 -0.1062 -0.1725  0.4524
45285SOL     OW42715   2.840   0.684   1.127  0.4977  0.0077 -0.2230
45285SOL    HW142716   2.750   0.693   1.096  0.9882  1.6283 -1.3700
45285SOL    HW242717   2.893   0.718   1.055  1.8700  1.4300  1.3484
45286SOL     OW42718   8.520  10.130  10.133 -0.1590 -0.0070 -0.5008
45286SOL    HW142719   8.458  10.199  10.153  0.6900  0.1817  1.7454
45286SOL    HW242720   8.501  10.060  10.196  2.4779  0.4788  1.0188
45287SOL     OW42721  11.552  11.212   5.593 -0.4916  0.1137 -0.2063
45287SOL    HW142722  11.563  11.299   5.553  0.0822  0.5007  0.7731
45287SOL    HW242723  11.458  11.195   5.586 -0.3611 -0.0466 -2.1421
45288SOL     OW42724   2.622   4.592   8.052 -0.1346 -0.5733 -0.2145
45288SOL    HW142725   2.612   4.571   7.959  0.2821  2.6236 -1.1080
45288SOL    HW242726   2.709   4.560   8.075  0.0912 -0.6839 -1.1860
45289SOL     OW42727   0.539  12.022   4.075 -0.0451  0.1021  0.4872
45289SOL    HW142728   0.597  12.094   4.049  0.3386 -0.5651 -0.5582
45289SOL    HW242729   0.593  11.944   4.069 -0.9233 -0.4797 -0.0599
45290SOL     OW42730   4.277  10.067   3.383  0.9213  0.4640 -0.3166
45290SOL    HW142731   4.354  10.094   3.433 -0.0051 -0.4242  1.6989
45290SOL    HW242732   4.224  10.147   3.377  0.8982  0.5068  0.4043
45291SOL     OW42733   0.856   8.831   5.833  0.0483  0.5720 -0.0251
45291SOL    HW142734   0.851   8.911   5.886  1.3958  1.0281 -0.5495
45291SOL    HW242735   0.779   8.835   5.777 -0.4831  0.9469  0.7135
45292SOL     OW42736   7.389   0.970   3.997 -0.4793 -0.1066  0.2266
45292SOL    HW142737   7.400   1.012   4.082  0.9015 -1.4891  0.7765
45292SOL    HW242738   7.467   0.916   3.986 -0.8331 -0.3177 -1.7305
45293SOL     OW42739   4.613  12.386   3.106  0.0644 -0.4247  0.6462
45293SOL    HW142740   4.602  12.324   3.178  1.0750 -1.8256 -0.3336
45293SOL    HW242741   4.526  12.394   3.067  0.2871 -3.2771 -0.7413
45294SOL     OW42742   0.028   1.624  12.031 -0.0217  0.0349 -0.3874
45294SOL    HW142743  -0.020   1.643  12.111  2.3758  3.1593  0.5268
45294SOL    HW242744  -0.039   1.620  11.963 -1.8765  0.2584  1.3417
45295SOL     OW42745   3.302   0.610   9.266 -0.1075 -0.0274 -0.2254
45295SOL    HW142746   3.317   0.529   9.314 -1.2872  0.0528  0.3140
45295SOL    HW242747   3.357   0.675   9.310  0.3182 -0.3903 -0.2262
45296SOL     OW42748  10.428   4.527   3.625 -0.4318  0.0069 -0.0570
45296SOL    HW142749  10.385   4.574   3.553  0.3988  1.7410  0.5279
45296SOL    HW242750  10.485   4.592   3.666  2.7646 -2.1418 -0.7447
45297SOL     OW42751   4.233   5.363   9.148 -0.5904 -0.1544  0.4537
45297SOL    HW142752   4.292   5.340   9.220  0.4014 -1.1870 -0.6311
45297SOL    HW242753   4.177   5.286   9.138 -2.2255  0.8502  1.5231
45298SOL     OW42754   9.649   4.920   4.851  0.2648 -0.1519  1.0486
45298SOL    HW142755   9.591   4.849   4.824  0.3664  0.7304 -1.9175
45298SOL    HW242756   9.689   4.890   4.932 -1.9865 -2.1100  1.5203
45299SOL     OW42757   6.871   6.286   2.228 -0.0789 -0.3017  0.2212
45299SOL    HW142758   6.959   6.324   2.231  0.4730 -1.5125 -0.2743
45299SOL    HW242759   6.831   6.325   2.150 -0.4626  1.2110  1.1226
45300SOL     OW42760   4.998   3.376   7.890 -0.6719 -0.5565  0.0533
45300SOL    HW142761   4.932   3.444   7.893 -2.8481 -2.5711  0.4504
45300SOL    HW242762   5.045   3.384   7.973 -2.1733 -0.7089  0.9540
45301SOL     OW42763   3.594   2.180  10.575  0.6394  0.4737  0.1770
45301SOL    HW142764   3.624   2.129  10.501 -2.0587 -0.1570 -0.5881
45301SOL    HW242765   3.538   2.248  10.537 -1.6876 -0.5121  1.5986
45302SOL     OW42766  12.376   3.854   4.280 -0.0111 -0.4133  0.2674
45302SOL    HW142767  12.417   3.786   4.227 -0.7275 -0.3681 -0.3421
45302SOL    HW242768  12.350   3.921   4.218 -1.8096 -0.8307  0.5382
45303SOL     OW42769   4.671   4.195  10.079 -0.2548  0.6354 -0.4457
45303SOL    HW142770   4.755   4.239  10.091  0.1254 -0.1858 -0.0361
45303SOL    HW242771   4.694   4.109  10.042 -0.7271 -0.4074  1.5557
45304SOL     OW42772   6.071   6.840   1.295  0.7938 -0.2465 -0.2930
45304SOL    HW142773   6.160   6.856   1.262  0.1346  0.8076 -1.6712
45304SOL    HW242774   6.059   6.746   1.284  2.2588 -0.6761  1.3468
45305SOL     OW42775   4.881   0.999   2.842 -0.0785 -0.3043  0.2033
45305SOL    HW142776   4.948   1.054   2.882 -1.0804  1.0255  0.1036
45305SOL    HW242777   4.819   1.060   2.804 -0.8937 -1.5205 -0.4933
45306SOL     OW42778   1.212  11.775   2.423  0.2184  0.3896 -0.6825
45306SOL    HW142779   1.224  11.683   2.402  0.1380  0.3657 -0.6204
45306SOL    HW242780   1.264  11.822   2.357  0.5576  0.2859 -0.4919
45307SOL     OW42781   0.596   1.586  11.190 -0.3771  0.0953 -0.9224
45307SOL    HW142782   0.650   1.619  11.262  0.3032 -0.5029 -1.1491
45307SOL    HW242783   0.617   1.492  11.185 -0.1824  0.1875 -2.0955
45308SOL     OW42784   7.903   9.342   2.122 -0.2248  0.0037  0.1166
45308SOL    HW142785   7.962   9.337   2.198  1.9736 -1.0853 -1.5462
45308SOL    HW242786   7.955   9.384   2.054 -1.6012 -0.4522 -1.2720
45309SOL     OW42787   8.477   1.199   7.052 -0.5572 -0.5974 -0.4622
45309SOL    HW142788   8.493   1.146   7.130  1.9947 -1.6525 -1.6017
45309SOL    HW242789   8.505   1.287   7.077 -3.0314 -0.0795  0.8258
45310SOL     OW42790   5.390   4.629   3.969  0.3138  0.2633 -0.5858
45310SOL    HW142791   5.309   4.651   4.014  0.5987  0.3693 -0.1152
45310SOL    HW242792   5.386   4.534   3.957  0.4748  0.1632  0.1415
45311SOL     OW42793   2.440  10.200   2.824 -0.1833 -0.2502 -0.6026
45311SOL    HW142794   2.347  10.187   2.807 -0.4171 -0.3079  0.6456
45311SOL    HW242795   2.475  10.111   2.836 -0.0408 -0.2096 -0.7114
45312SOL     OW42796   2.448   9.731   5.630 -0.1864  0.3442 -0.6374
45312SOL    HW142797   2.360   9.760   5.605 -0.8602  0.3604  1.5153
45312SOL    HW242798   2.457   9.761   5.721  1.4832 -0.9169 -0.3588
45313SOL     OW42799   5.958   8.119   7.003 -0.0760 -0.0575  0.7913
45313SOL    HW142800   5.996   8.148   6.920 -0.2843 -0.0935  0.6827
45313SOL    HW242801   5.909   8.040   6.980 -0.4317  0.1377  0.8876
45314SOL     OW42802   6.953   2.000  11.156 -0.2085  0.0738  0.6388
45314SOL    HW142803   6.982   2.090  11.174  1.0523 -0.3155  0.6072
45314SOL    HW242804   6.904   2.007  11.074  0.3945  0.6393  0.3183
45315SOL     OW42805  11.482   0.059  10.710 -0.6649  0.5453  0.6732
45315SOL    HW142806  11.534   0.045  10.789 -1.0315  1.5468  1.1032
45315SOL    HW242807  11.535   0.118  10.657 -1.5640  2.0382  1.3628
45316SOL     OW42808   0.979  10.446   6.236  0.2946  0.4792 -0.3552
45316SOL    HW142809   0.901  10.466   6.185  1.1792  2.5032 -1.0220
45316SOL    HW242810   0.947  10.391   6.308 -2.0357  2.3996  0.2183
45317SOL     OW42811  10.820   8.475   0.398 -0.1227 -0.1429 -0.0253
45317SOL    HW142812  10.906   8.457   0.436  0.5643 -1.4987 -2.0132
45317SOL    HW242813  10.758   8.431   0.457  0.4929  0.9427  1.4919
45318SOL     OW42814  10.674   7.472   1.403  0.0013  0.3824  0.5645
45318SOL    HW142815  10.620   7.550   1.418  0.0570  0.7625 -1.0520
45318SOL    HW242816  10.672   7.425   1.486 -0.5248  1.8074  1.3897
45319SOL     OW42817   7.048   6.984  10.786  0.0300  0.7314 -0.4141
45319SOL    HW142818   7.000   6.902  10.802 -0.3567  1.0197 -0.0464
45319SOL    HW242819   7.011   7.045  10.850  1.1894  0.8511  0.1558
45320SOL     OW42820   8.370  10.850   9.147 -0.1417 -0.6005  0.8526
45320SOL    HW142821   8.313  10.774   9.160 -0.4830 -0.7891 -1.3082
45320SOL    HW242822   8.355  10.905   9.224 -1.8474 -1.5048  1.2177
45321SOL     OW42823  11.957  12.382   8.041 -0.4401  0.3306 -0.1378
45321SOL    HW142824  11.985  12.360   7.952 -0.3848 -0.4465  0.0697
45321SOL    HW242825  12.038  12.383   8.092 -0.3664  1.5953 -0.2533
45322SOL     OW42826   0.307   7.372   0.277  0.1630  0.2671  0.6044
45322SOL    HW142827   0.384   7.338   0.231 -0.4705 -3.8688  2.1221
45322SOL    HW242828   0.338   7.393   0.365  0.0912  1.6121  0.3271
45323SOL     OW42829  12.031   7.764   5.168 -0.2273  0.2943  0.1697
45323SOL    HW142830  12.058   7.673   5.181 -0.1598 -0.2303 -2.8962
45323SOL    HW242831  12.045   7.780   5.075 -2.3883  2.7438  0.1571
45324SOL     OW42832   5.580   4.350   7.047 -0.7497 -0.3379  0.0446
45324SOL    HW142833   5.583   4.444   7.033 -0.2677 -0.3512  0.0560
45324SOL    HW242834   5.663   4.329   7.089 -1.6929 -0.4553  1.9505
45325SOL     OW42835   0.426   4.945   0.379 -0.3262  0.2175  0.8085
45325SOL    HW142836   0.344   4.917   0.420 -0.4346  0.1657  0.5558
45325SOL    HW242837   0.399   5.003   0.308 -0.3527 -2.1334 -1.2638
45326SOL     OW42838   9.522   5.023   5.756  0.0209  0.3509  0.7510
45326SOL    HW142839   9.428   5.018   5.738  0.3061 -0.6401 -0.6064
45326SOL    HW242840   9.550   5.105   5.716 -0.1583  0.3687  0.6620
45327SOL     OW42841   9.418   9.788   9.074  0.4442 -0.7961 -0.2762
45327SOL    HW142842   9.495   9.842   9.056 -0.2342 -0.3988 -2.2875
45327SOL    HW242843   9.353   9.819   9.011 -1.0017 -1.8627  0.6398
45328SOL     OW42844   6.362  10.130   8.481  0.2462  0.2733  0.1720
45328SOL    HW142845   6.422  10.071   8.528 -0.0253 -0.5551 -0.4955
45328SOL    HW242846   6.356  10.207   8.537  1.5556  0.1721  0.4904
45329SOL     OW42847   9.811   2.763   8.821  0.4945  0.7387  0.0003
45329SOL    HW142848   9.901   2.794   8.807  0.7678 -0.4252 -0.9878
45329SOL    HW242849   9.801   2.762   8.917  0.9527  2.4347  0.0971
45330SOL     OW42850   9.788   5.694  10.643 -0.2185 -0.5331  0.1657
45330SOL    HW142851   9.800   5.608  10.602  0.7372 -0.2905 -0.1069
45330SOL    HW242852   9.832   5.685  10.728 -1.1128 -0.6538  0.6237
45331SOL     OW42853   4.933   8.526   3.409  0.2653 -0.1930 -0.1085
45331SOL    HW142854   4.910   8.459   3.345  1.4011  0.3166 -1.0949
45331SOL    HW242855   4.988   8.588   3.361  1.2509  0.1494  1.3756
45332SOL     OW42856  12.302   7.722   1.470  0.1122 -0.3172 -0.1576
45332SOL    HW142857  12.299   7.684   1.558 -1.4990 -0.1453 -0.1071
45332SOL    HW242858  12.252   7.661   1.416 -2.5786  1.6295 -0.0673
45333SOL     OW42859   2.429   7.226  12.210 -0.5105 -0.3614 -0.1163
45333SOL    HW142860   2.511   7.221  12.160 -0.7739  0.6479 -0.6703
45333SOL    HW242861   2.361   7.236  12.144 -1.0910 -1.0968  0.3471
45334SOL     OW42862   1.150  12.068   0.941  0.2004  0.7671 -0.0452
45334SOL    HW142863   1.222  12.051   0.880 -1.4887 -0.9359 -1.7006
45334SOL    HW242864   1.099  12.138   0.899 -1.0492 -0.5101 -0.7653
45335SOL     OW42865   6.829   7.769   6.756 -0.3811  0.0227 -0.2300
45335SOL    HW142866   6.880   7.703   6.804 -0.5551 -0.3259 -0.5198
45335SOL    HW242867   6.883   7.790   6.680  0.6194  1.7122  0.8700
45336SOL     OW42868  11.906   1.048   6.286  0.3987 -0.1760 -0.1232
45336SOL    HW142869  11.930   1.008   6.369  0.1794  0.5421  0.2975
45336SOL    HW242870  11.810   1.043   6.283  0.4023 -0.1461 -0.3073
45337SOL     OW42871   6.305  10.439   2.156  0.8552 -0.5585 -0.0039
45337SOL    HW142872   6.331  10.497   2.084 -2.5921 -0.0429 -0.9973
45337SOL    HW242873   6.305  10.496   2.233 -2.2067  0.8646 -0.9212
45338SOL     OW42874   4.074  11.774   2.395 -0.2315 -0.1844  0.2328
45338SOL    HW142875   4.087  11.868   2.377 -0.8998 -0.0756  0.2946
45338SOL    HW242876   4.091  11.765   2.488 -0.5758 -0.0527  0.3068
45339SOL     OW42877   4.079   6.249   4.359  0.0671  0.2145  0.2101
45339SOL    HW142878   4.022   6.200   4.299  1.7428  0.8434 -2.0523
45339SOL    HW242879   4.140   6.184   4.393  0.2510  0.1596 -0.2186
45340SOL     OW42880   0.647   6.826   7.073  0.2785 -0.2562 -0.1190
45340SOL    HW142881   0.638   6.745   7.021  0.2951 -0.7162  0.5798
45340SOL    HW242882   0.602   6.806   7.156  1.5331 -0.0650  0.6250
45341SOL     OW42883  11.930   1.757   1.642 -0.0752 -0.4511  0.5458
45341SOL    HW142884  11.946   1.797   1.557  2.6793  0.9681  1.6034
45341SOL    HW242885  11.854   1.701   1.629 -1.6929  2.1214 -2.0407
45342SOL     OW42886   7.280   4.876   3.837  0.0501 -0.4210 -0.2815
45342SOL    HW142887   7.271   4.970   3.856 -1.3848 -0.5924  0.0352
45342SOL    HW242888   7.215   4.859   3.769  0.8106 -1.0542 -0.8629
45343SOL     OW42889   1.501   0.582   9.629  0.1795 -0.1479 -0.2367
45343SOL    HW142890   1.558   0.523   9.679 -0.0044 -0.6018 -0.5548
45343SOL    HW242891   1.557   0.617   9.560 -0.0261 -0.9466 -0.8299
45344SOL     OW42892   2.907   6.306   4.444 -0.1392  0.0995  0.6934
45344SOL    HW142893   2.846   6.322   4.372 -2.3500 -0.6733  2.3003
45344SOL    HW242894   2.964   6.237   4.411 -0.3402  0.5601 -0.7206
45345SOL     OW42895   2.603   6.664   9.525  0.2361 -0.3485 -0.3550
45345SOL    HW142896   2.517   6.693   9.495 -0.5349 -2.7191 -0.6856
45345SOL    HW242897   2.584   6.609   9.601  1.6331  0.4938  0.6257
45346SOL     OW42898   4.793   5.859   2.202  0.0399  0.1362  0.6895
45346SOL    HW142899   4.794   5.793   2.133 -0.0475  0.5484  0.2952
45346SOL    HW242900   4.707   5.900   2.196  0.6550  1.3485 -0.0748
45347SOL     OW42901   9.354   1.146   4.914 -0.4446  0.0775  0.0017
45347SOL    HW142902   9.366   1.211   4.844  2.3533 -0.6558 -0.3167
45347SOL    HW242903   9.283   1.090   4.882  0.6328 -0.1520 -2.2375
45348SOL     OW42904  10.662   0.880  12.092 -0.1716 -0.3668 -0.4179
45348SOL    HW142905  10.685   0.936  12.017  0.8805 -0.8673 -0.4840
45348SOL    HW242906  10.621   0.940  12.154  1.6590  0.6947 -0.1456
45349SOL     OW42907   6.615   7.088   0.431 -0.0227  0.2759  0.5873
45349SOL    HW142908   6.562   7.154   0.387  0.4381  0.2889  0.0290
45349SOL    HW242909   6.687   7.137   0.471  0.1238  0.1615  0.4709
45350SOL     OW42910   0.014   7.831   4.409  0.0062 -0.3089 -0.5042
45350SOL    HW142911   0.026   7.922   4.436 -0.1745 -0.1257 -1.0391
45350SOL    HW242912   0.101   7.804   4.380 -0.0082 -0.2122 -0.6375
45351SOL     OW42913   0.985  11.073   4.692 -0.3587 -0.4468 -0.1611
45351SOL    HW142914   1.035  11.106   4.618  0.0166  1.7001  0.9656
45351SOL    HW242915   1.037  11.000   4.726  0.5384 -0.0903 -0.7343
45352SOL     OW42916   4.669  11.114   0.514 -0.3568 -0.4055 -0.2940
45352SOL    HW142917   4.616  11.141   0.589  1.0567 -0.6092  0.8217
45352SOL    HW242918   4.672  11.192   0.458 -0.3677  0.1818  0.4943
45353SOL     OW42919  10.922   2.777   8.608  0.4033 -0.3403  0.2811
45353SOL    HW142920  10.968   2.798   8.527  1.3448 -0.7391  0.7076
45353SOL    HW242921  10.880   2.693   8.591 -0.6964  0.2982 -0.3109
45354SOL     OW42922   6.932  11.486   9.466 -0.1173 -0.1461 -0.2421
45354SOL    HW142923   7.021  11.520   9.473 -0.9649  2.0037  1.0787
45354SOL    HW242924   6.941  11.391   9.480  2.1234 -0.3006 -2.0334
45355SOL     OW42925   7.566   6.297   9.509 -0.8135  0.2323  0.2437
45355SOL    HW142926   7.557   6.365   9.443  1.4063 -2.0336 -2.6541
45355SOL    HW242927   7.655   6.308   9.543 -0.8086 -0.5767  0.5274
45356SOL     OW42928   1.361   9.745   1.709  0.0075 -0.0609 -0.0143
45356SOL    HW142929   1.271   9.715   1.701  0.3528 -1.1149 -0.1701
45356SOL    HW242930   1.377   9.749   1.803 -0.6815  1.7031  0.0624
45357SOL     OW42931  11.066   8.503   5.751  0.4147  0.5037  0.1905
45357SOL    HW142932  10.978   8.464   5.743  0.3451  0.0435  2.4560
45357SOL    HW242933  11.125   8.428   5.756  0.4425  0.5790  2.9360
45358SOL     OW42934   5.002  11.220  10.535 -0.5338 -0.4105  0.0451
45358SOL    HW142935   5.055  11.291  10.572  0.4436 -0.7002 -0.7654
45358SOL    HW242936   4.927  11.213  10.595 -0.0303  0.4855  0.8152
45359SOL     OW42937   8.562   7.507   7.761 -0.2975  0.0508  0.5838
45359SOL    HW142938   8.645   7.516   7.715 -0.8210  1.5736 -0.1449
45359SOL    HW242939   8.511   7.447   7.707 -0.5036  0.9558 -0.2541
45360SOL     OW42940  12.174   1.518   0.750 -0.4260  0.3230 -0.1314
45360SOL    HW142941  12.141   1.485   0.667  0.1636  0.2546 -0.3438
45360SOL    HW242942  12.097   1.527   0.806 -0.5724 -1.7636  0.0730
45361SOL     OW42943  10.971   6.296   5.218 -0.1904  0.2854 -0.5860
45361SOL    HW142944  10.897   6.329   5.167 -1.5773 -0.3695  0.9201
45361SOL    HW242945  11.040   6.361   5.206 -1.6163  1.8511 -0.5618
45362SOL     OW42946   2.715   5.043  10.229 -0.1642  0.5109 -0.1089
45362SOL    HW142947   2.724   4.951  10.253 -0.7759  0.8172  1.3977
45362SOL    HW242948   2.673   5.042  10.143 -2.5160 -0.6060  0.9792
45363SOL     OW42949  12.309   2.245   4.972 -0.2617 -0.0645 -0.3197
45363SOL    HW142950  12.370   2.176   4.998  1.2082  1.9274  2.0221
45363SOL    HW242951  12.229   2.227   5.021 -0.6493 -1.2166 -1.3441
45364SOL     OW42952   7.838  10.953   0.009 -0.3089 -0.5625 -0.3432
45364SOL    HW142953   7.848  10.953  -0.086  0.2879 -0.8757 -0.2867
45364SOL    HW242954   7.927  10.941   0.043 -0.5449 -0.6995  0.2494
45365SOL     OW42955   8.607  10.471   9.417 -0.3934 -0.6760 -0.9799
45365SOL    HW142956   8.615  10.566   9.401 -1.6115 -0.3758  0.0427
45365SOL    HW242957   8.599  10.433   9.330 -0.3183  0.2109 -1.3868
45366SOL     OW42958   5.033   4.165   7.177  0.4818  0.3022 -0.3286
45366SOL    HW142959   5.068   4.131   7.260 -0.4889  0.9051  0.3406
45366SOL    HW242960   5.109   4.168   7.119  1.2312  0.1226  0.6171
45367SOL     OW42961   2.055   6.418   8.086  0.2424  0.0661  0.1790
45367SOL    HW142962   1.963   6.412   8.060  0.8952 -0.2567 -2.4026
45367SOL    HW242963   2.085   6.499   8.045  1.0105  0.4081  1.3902
45368SOL     OW42964   0.591  11.812   2.617  0.2114 -0.0122  0.3335
45368SOL    HW142965   0.599  11.883   2.680 -0.1122 -1.3893  1.9830
45368SOL    HW242966   0.597  11.732   2.669 -0.7821 -1.2095 -1.2893
45369SOL     OW42967  10.863   2.355  12.082  0.5734 -0.0610 -0.4493
45369SOL    HW142968  10.880   2.268  12.120  0.2741  0.3805  0.7596
45369SOL    HW242969  10.774   2.348  12.047 -0.6890  0.5840  2.3489
45370SOL     OW42970   2.127   2.746   1.215  0.3242  0.1811  0.1887
45370SOL    HW142971   2.144   2.748   1.121  3.8394 -0.6957  0.6901
45370SOL    HW242972   2.143   2.836   1.245  0.3880  0.1924  0.1202
45371SOL     OW42973  11.261   2.789  12.273 -0.2911  0.4128 -0.7527
45371SOL    HW142974  11.171   2.810  12.297  0.4522  1.0459  1.7278
45371SOL    HW242975  11.297   2.871  12.238  0.4420  1.3877  2.0528
45372SOL     OW42976   5.849   0.672  10.972  0.2521  0.4671 -0.4312
45372SOL    HW142977   5.929   0.620  10.983  0.9144  1.2100 -1.6151
45372SOL    HW242978   5.879   0.758  10.945 -0.9275  0.9921 -0.1390
45373SOL     OW42979   1.111   8.567   7.417 -0.0205 -0.2459 -0.4795
45373SOL    HW142980   1.112   8.510   7.340  0.5544 -0.0255 -0.6427
45373SOL    HW242981   1.157   8.646   7.389 -0.5962  0.1977 -0.1794
45374SOL     OW42982   7.663   7.997   6.296  0.2308  0.7051  0.2902
45374SOL    HW142983   7.703   8.018   6.211  2.2637  0.5801  1.1655
45374SOL    HW242984   7.627   7.909   6.284  0.7776  0.5574 -0.3537
45375SOL     OW42985  11.680   8.990  11.080 -1.1975 -0.6080  0.4487
45375SOL    HW142986  11.675   8.983  10.985  0.6623  0.8274  0.2047
45375SOL    HW242987  11.742   8.922  11.106 -1.9965 -1.2578  0.7094
45376SOL     OW42988  11.027   7.754   6.868 -0.4135  0.0848 -0.8524
45376SOL    HW142989  11.012   7.660   6.876 -1.2405  0.3457  1.7105
45376SOL    HW242990  10.954   7.785   6.814 -0.9096 -0.5758 -0.5727
45377SOL     OW42991   6.405   9.795   3.232 -0.2324  0.2829 -0.2232
45377SOL    HW142992   6.487   9.824   3.272  1.3034 -1.7099 -1.7144
45377SOL    HW242993   6.365   9.738   3.299  0.1001  0.4780  0.1464
45378SOL     OW42994   1.217  10.630   7.675 -0.0275 -0.1397 -0.8012
45378SOL    HW142995   1.279  10.611   7.604  0.8411 -0.6035  0.0590
45378SOL    HW242996   1.136  10.587   7.647  0.3252 -0.3891 -1.4724
45379SOL     OW42997   0.747   4.596   7.780  0.2924  0.1776  0.3286
45379SOL    HW142998   0.834   4.596   7.819  0.1085  0.5869  0.7540
45379SOL    HW242999   0.753   4.536   7.706  1.1804  0.8911 -0.1958
45380SOL     OW43000   3.779   1.685  10.219 -0.2793  0.0506  0.0781
45380SOL    HW143001   3.801   1.652  10.131  1.2355 -0.9152  0.7815
45380SOL    HW243002   3.781   1.607  10.275 -0.5852  0.7560  1.1008
45381SOL     OW43003   7.050  11.920   8.880  0.0603  0.3918 -0.4193
45381SOL    HW143004   7.004  11.948   8.801 -0.1577 -0.3168 -0.5526
45381SOL    HW243005   7.016  11.832   8.898 -0.2982  0.7698  0.7858
45382SOL     OW43006   7.885   4.555   3.358 -0.0299 -0.0223 -0.0812
45382SOL    HW143007   7.893   4.584   3.448  0.9605  0.7537 -0.4011
45382SOL    HW243008   7.954   4.601   3.311 -0.2295 -0.7636 -1.1554
45383SOL     OW43009  12.281   7.691   0.356 -0.1856 -0.0744  0.4377
45383SOL    HW143010  12.297   7.736   0.439 -0.1276 -0.4564  0.6318
45383SOL    HW243011  12.280   7.598   0.378  0.1003 -0.1913 -0.0328
45384SOL     OW43012  11.241  10.046   5.599 -0.1794  0.3546 -0.0572
45384SOL    HW143013  11.289   9.964   5.598  1.3444  1.2106  0.3498
45384SOL    HW243014  11.200  10.051   5.512  0.5788 -0.3272 -0.4638
45385SOL     OW43015   6.312  11.255   3.398  0.2295 -0.0244 -0.2605
45385SOL    HW143016   6.310  11.340   3.442  1.5316 -0.0897 -0.0549
45385SOL    HW243017   6.319  11.276   3.305  0.9962  0.0934 -0.1778
45386SOL     OW43018   7.302   2.025  11.484  0.3730  0.3799 -0.1368
45386SOL    HW143019   7.209   2.020  11.506  0.4245  0.6220  0.1476
45386SOL    HW243020   7.347   2.023  11.568  0.6080  0.6282 -0.2536
45387SOL     OW43021   9.013   4.730   0.802  0.3732  0.4808  0.3659
45387SOL    HW143022   8.998   4.818   0.767  1.0921  0.7403  0.6890
45387SOL    HW243023   9.000   4.672   0.728  2.8437  1.0887 -0.6299
45388SOL     OW43024  12.055   7.590   5.628 -0.0128  0.3594  0.3015
45388SOL    HW143025  12.012   7.635   5.556 -0.8837 -0.0344  0.5625
45388SOL    HW243026  12.016   7.503   5.629  0.9791 -0.0968  0.3902
45389SOL     OW43027   1.056   1.973  10.301 -0.0695  0.3697 -0.5555
45389SOL    HW143028   1.050   1.969  10.205 -1.9335 -1.3767 -0.4275
45389SOL    HW243029   1.095   2.059  10.318 -0.7049  1.2049 -2.8563
45390SOL     OW43030   5.432   3.281  11.855  0.0047 -0.4108 -0.6755
45390SOL    HW143031   5.470   3.368  11.867 -0.0099 -0.5403  0.4202
45390SOL    HW243032   5.339   3.297  11.841  0.1845 -0.1886 -1.6547
45391SOL     OW43033   9.557   1.074   4.071 -0.6107 -0.8292  0.6435
45391SOL    HW143034   9.584   1.025   3.994 -1.8494 -0.4440 -0.0576
45391SOL    HW243035   9.520   1.007   4.130 -3.2473 -0.7047 -0.7317
45392SOL     OW43036  10.337   7.518   3.888  0.3067 -0.0028  0.4330
45392SOL    HW143037  10.331   7.511   3.793 -0.4720 -1.2968  0.5561
45392SOL    HW243038  10.307   7.607   3.908  0.5072  0.2857 -0.5251
45393SOL     OW43039   0.870   6.354   8.067  0.0509 -0.5576  0.3581
45393SOL    HW143040   0.945   6.383   8.015  0.2937  0.3194  1.1672
45393SOL    HW243041   0.883   6.394   8.153 -2.0858  0.8778  0.0965
45394SOL     OW43042   5.493   2.817   4.649  0.6076  0.4848 -0.3137
45394SOL    HW143043   5.498   2.892   4.708  0.2832  0.7044 -0.5582
45394SOL    HW243044   5.399   2.800   4.640  0.7079 -1.0271  1.0685
45395SOL     OW43045   9.465   4.045   2.737 -0.5653 -0.3090 -0.3167
45395SOL    HW143046   9.412   4.069   2.813 -0.1474 -0.0476 -0.0997
45395SOL    HW243047   9.454   3.951   2.728  0.2308 -0.5231  0.7434
45396SOL     OW43048   2.879  11.335  10.166  0.2197 -0.5644 -0.4058
45396SOL    HW143049   2.967  11.371  10.168  0.1232 -0.1874 -1.6589
45396SOL    HW243050   2.882  11.269  10.096 -0.5662 -0.2955 -0.7039
45397SOL     OW43051   7.607   1.691   4.731 -0.5972  0.0520 -0.0483
45397SOL    HW143052   7.542   1.741   4.682 -1.2041 -1.2180 -0.5911
45397SOL    HW243053   7.571   1.602   4.735 -0.3780  0.0017  2.3761
45398SOL     OW43054   9.936   7.934   0.365  0.4195 -0.3650 -0.6334
45398SOL    HW143055   9.918   7.862   0.425 -2.1446  0.6212 -0.0994
45398SOL    HW243056   9.943   7.892   0.279  2.5423 -1.5935  0.0745
45399SOL     OW43057   7.583   4.764   7.691  0.2769 -0.2069  0.5287
45399SOL    HW143058   7.566   4.855   7.666  0.5392 -0.1423  0.5804
45399SOL    HW243059   7.612   4.722   7.610  0.0486 -0.2709  0.4806
45400SOL     OW43060   5.901   7.808   0.615 -0.0904 -0.3942 -0.5819
45400SOL    HW143061   5.977   7.831   0.560 -1.1246  0.2587 -1.7828
45400SOL    HW243062   5.859   7.736   0.569  0.3846 -1.5106  0.6628
45401SOL     OW43063   7.279   4.111  10.421 -0.0762 -0.8257  0.6441
45401SOL    HW143064   7.278   4.094  10.515 -0.0965  0.3536  0.8784
45401SOL    HW243065   7.253   4.203  10.413 -2.4463 -1.5279 -0.6757
45402SOL     OW43066  11.409   8.378   6.857 -0.5021 -0.1391  0.1057
45402SOL    HW143067  11.372   8.339   6.937 -0.4036 -1.6656 -0.5543
45402SOL    HW243068  11.349   8.450   6.836 -0.6600  0.1414  1.4222
45403SOL     OW43069  12.229   9.464   9.767 -0.1177  0.0602 -0.3537
45403SOL    HW143070  12.224   9.382   9.817 -1.3461  0.8991  0.9600
45403SOL    HW243071  12.227   9.533   9.833  0.9640  1.1760 -1.4378
45404SOL     OW43072   3.544   6.063   1.140  0.5361  0.6775  0.5280
45404SOL    HW143073   3.486   6.037   1.211  0.2532  1.1823  0.4863
45404SOL    HW243074   3.601   5.987   1.126  0.7889  0.6874  1.4834
45405SOL     OW43075   3.457   6.295   2.852 -0.2715 -0.0539 -0.1088
45405SOL    HW143076   3.541   6.261   2.820 -0.3540  0.5467 -0.9839
45405SOL    HW243077   3.445   6.251   2.937  0.4345 -0.9153 -0.4317
45406SOL     OW43078   5.307   9.655   7.421  0.2585  0.5779 -0.2842
45406SOL    HW143079   5.218   9.627   7.443  1.1375 -0.4589  2.3314
45406SOL    HW243080   5.355   9.573   7.408  0.9778  1.1150 -1.0775
45407SOL     OW43081   5.484   3.973   8.783 -0.1030  0.0126 -0.2353
45407SOL    HW143082   5.571   3.939   8.804  0.1291  0.5476 -0.3223
45407SOL    HW243083   5.433   3.962   8.863 -0.5337 -2.0793 -0.7294
45408SOL     OW43084   7.364   1.169   0.153 -0.0377  0.3660  0.4408
45408SOL    HW143085   7.295   1.118   0.195  0.4269  0.0367  0.8251
45408SOL    HW243086   7.415   1.205   0.226  1.9901 -1.8442  0.2423
45409SOL     OW43087   6.466   6.953   5.693 -0.2530  0.3685 -0.7789
45409SOL    HW143088   6.412   7.008   5.637 -1.4431  0.0272 -0.0159
45409SOL    HW243089   6.449   6.985   5.782  0.4865 -0.0146 -0.4889
45410SOL     OW43090   1.964   9.201   8.600  0.1498 -0.1943  0.0127
45410SOL    HW143091   2.042   9.255   8.586  1.2984 -1.9839 -0.8989
45410SOL    HW243092   1.899   9.262   8.634  2.0773  1.2920  1.2932
45411SOL     OW43093   9.699  11.597   8.137 -0.1226 -0.4210  0.0829
45411SOL    HW143094   9.712  11.521   8.081 -0.7073 -1.6623  1.5610
45411SOL    HW243095   9.607  11.621   8.124 -0.6628 -1.5876  1.4970
45412SOL     OW43096   3.990   9.299   1.757  0.3420 -0.1838  0.2657
45412SOL    HW143097   3.903   9.335   1.777  0.9966  0.8580  1.4326
45412SOL    HW243098   4.037   9.372   1.716  1.1279 -0.2429  1.0176
45413SOL     OW43099  11.952   5.715   6.236  0.1852  0.0276 -0.0611
45413SOL    HW143100  11.879   5.719   6.174 -0.6940 -0.1212  0.9241
45413SOL    HW243101  12.019   5.771   6.198 -0.4578  0.1973 -0.9805
45414SOL     OW43102   2.960   0.699   0.525  0.3645 -0.3964  0.3592
45414SOL    HW143103   2.970   0.744   0.441  1.3757  0.2586  0.8189
45414SOL    HW243104   2.897   0.753   0.573 -0.3875 -0.8912 -0.0309
45415SOL     OW43105   4.213   0.600   9.423 -0.5534  0.2877  0.1445
45415SOL    HW143106   4.232   0.693   9.417 -1.2658  0.4066 -0.4626
45415SOL    HW243107   4.149   0.584   9.353  0.1053 -0.7995 -0.2267
45416SOL     OW43108  10.256   1.702   6.778  0.3790  0.1737 -0.5747
45416SOL    HW143109  10.192   1.759   6.733  0.4078 -1.2783 -2.6019
45416SOL    HW243110  10.250   1.619   6.731  0.7860 -1.3436  1.8923
45417SOL     OW43111  11.405  12.008  12.447  0.3145 -0.1632 -0.3270
45417SOL    HW143112  11.465  11.995  12.373  1.2094  1.6801  0.0042
45417SOL    HW243113  11.350  12.082  12.420 -0.6676 -0.7336  0.0779
45418SOL     OW43114   3.437   1.923   2.346 -0.1815 -0.7991  0.3420
45418SOL    HW143115   3.483   2.006   2.332  1.9557 -2.0640 -0.4385
45418SOL    HW243116   3.440   1.879   2.262 -4.8042 -0.1531 -0.4624
45419SOL     OW43117   9.273  10.719   9.013 -0.1753 -0.3655 -0.3629
45419SOL    HW143118   9.348  10.688   9.064 -0.1502 -0.5264 -0.4964
45419SOL    HW243119   9.307  10.728   8.924  0.3566  1.9937  0.0341
45420SOL     OW43120  10.784   2.133   9.390 -0.3550 -0.0779  0.0275
45420SOL    HW143121  10.822   2.177   9.466 -0.9174  0.7707 -0.1760
45420SOL    HW243122  10.691   2.154   9.393 -0.1987  1.0399 -1.5872
45421SOL     OW43123   2.748  11.237   4.088 -0.7842 -0.0677 -0.3881
45421SOL    HW143124   2.740  11.160   4.032 -1.0247 -0.1966 -0.1765
45421SOL    HW243125   2.841  11.239   4.113 -0.5599  0.3044 -1.2383
45422SOL     OW43126  11.332  11.860   6.589  0.1196  0.2243  0.4302
45422SOL    HW143127  11.354  11.789   6.649  0.7397  1.2172  1.4005
45422SOL    HW243128  11.397  11.927   6.605 -0.2525  0.8981 -0.7197
45423SOL     OW43129   2.169   3.747   0.293 -0.3600  0.7866 -0.1113
45423SOL    HW143130   2.203   3.722   0.207  0.9364  2.4597 -0.1252
45423SOL    HW243131   2.083   3.785   0.275  0.2412  1.8559 -0.7696
45424SOL     OW43132   3.384   9.826   0.947  0.1211 -0.3589 -0.6292
45424SOL    HW143133   3.306   9.865   0.988 -1.5665 -0.8707 -3.0939
45424SOL    HW243134   3.366   9.831   0.853  2.6609 -1.4348 -1.2573
45425SOL     OW43135   5.187   3.977   7.741 -0.4533 -0.3143 -0.7473
45425SOL    HW143136   5.105   3.963   7.790 -0.1167  0.8676  0.1852
45425SOL    HW243137   5.236   4.040   7.793  0.7957 -0.5236 -1.6252
45426SOL     OW43138   5.422   2.966   9.036  0.5173 -0.3133  0.5839
45426SOL    HW143139   5.393   3.024   8.965 -1.5384 -0.3742  1.2946
45426SOL    HW243140   5.476   3.021   9.092 -3.4872  1.9451  2.7175
45427SOL     OW43141   9.458   8.221   1.853  0.4593 -0.2341  0.5659
45427SOL    HW143142   9.400   8.152   1.822 -0.0146 -0.0147  0.9291
45427SOL    HW243143   9.499   8.184   1.931  1.1028 -0.5271  0.0937
45428SOL     OW43144  12.163  10.608   6.069  0.0913  0.0880  0.4308
45428SOL    HW143145  12.258  10.609   6.083  0.1739 -2.2959  0.3150
45428SOL    HW243146  12.133  10.688   6.112  2.0699  0.6185  0.9692
45429SOL     OW43147  12.193   4.005  12.262 -0.4163 -0.0857 -0.3180
45429SOL    HW143148  12.151   4.051  12.334  0.3151  0.7562 -0.3982
45429SOL    HW243149  12.182   4.063  12.186  0.3251 -0.1300 -0.4763
45430SOL     OW43150   4.889   1.580   2.515 -0.3775  0.1418 -0.2803
45430SOL    HW143151   4.884   1.639   2.440 -1.8505 -0.0659 -0.3809
45430SOL    HW243152   4.840   1.625   2.584  0.4058  0.0334  0.3580
45431SOL     OW43153   5.923  10.257   8.503  0.2320  0.3739  0.3190
45431SOL    HW143154   5.993  10.265   8.438 -1.1024  1.5289 -1.0379
45431SOL    HW243155   5.880  10.174   8.482 -0.0863  0.6599 -0.1647
45432SOL     OW43156   7.862   2.234   3.663 -0.2079 -0.7488 -0.3880
45432SOL    HW143157   7.915   2.176   3.718  0.0043 -1.4314 -1.2827
45432SOL    HW243158   7.772   2.204   3.676 -0.3607  0.1823  0.8603
45433SOL     OW43159   5.129   4.003   1.575  0.5632 -0.0928  0.2093
45433SOL    HW143160   5.103   4.069   1.511  0.4692  0.0149  0.3617
45433SOL    HW243161   5.048   3.973   1.615  0.5765 -0.5039 -0.0571
45434SOL     OW43162   6.419   2.035   8.727 -0.0363  0.2871  0.1694
45434SOL    HW143163   6.361   1.959   8.724  0.7221 -0.2934 -0.1277
45434SOL    HW243164   6.367   2.103   8.770 -0.7850 -0.3416  0.2874
45435SOL     OW43165   5.057   8.907   6.833 -0.2173 -0.0163 -0.2418
45435SOL    HW143166   5.054   8.929   6.926 -0.5891  2.9654 -0.8465
45435SOL    HW243167   5.150   8.903   6.811 -0.1277  0.0542  0.1284
45436SOL     OW43168   4.130   3.655   6.315  0.1335  0.0168 -0.8417
45436SOL    HW143169   4.090   3.708   6.383  0.9998 -0.3412 -0.0438
45436SOL    HW243170   4.196   3.712   6.275 -0.4424  0.2625 -1.4767
45437SOL     OW43171   5.699   2.134   1.595 -0.4522  0.3899  0.3746
45437SOL    HW143172   5.621   2.170   1.553  0.6790  0.5382 -1.7509
45437SOL    HW243173   5.731   2.068   1.533  0.9370  0.1126  1.3352
45438SOL     OW43174   2.184   8.143   8.957  0.0876 -0.6096  0.2386
45438SOL    HW143175   2.200   8.199   8.881 -0.5879  0.2943  0.7344
45438SOL    HW243176   2.219   8.193   9.031  0.0322 -1.1227  0.6150
45439SOL     OW43177  11.083   3.965   9.609  0.1444  0.7012 -0.1993
45439SOL    HW143178  11.055   3.953   9.699  1.4374 -1.4265 -0.0253
45439SOL    HW243179  11.023   3.911   9.557  2.0607 -1.7035 -0.0887
45440SOL     OW43180   2.970   8.005   1.368  0.2548 -0.0149  0.4422
45440SOL    HW143181   3.005   7.997   1.279  0.8547  0.6876  0.6064
45440SOL    HW243182   2.913   8.081   1.364  1.3705  0.8659  0.9897
45441SOL     OW43183   1.356  10.496   5.922 -0.3652  0.1261  0.1336
45441SOL    HW143184   1.316  10.427   5.976 -1.2117  1.1902  0.8926
45441SOL    HW243185   1.403  10.448   5.854 -1.2502 -1.2029  0.4253
45442SOL     OW43186  10.549   5.054   4.169 -0.2695 -0.0554 -0.7586
45442SOL    HW143187  10.633   5.096   4.148 -0.8260  0.0571 -3.0104
45442SOL    HW243188  10.484   5.108   4.124 -1.6726  0.2365  1.4759
45443SOL     OW43189   4.177   3.215   7.273 -0.2229 -0.2852  0.0489
45443SOL    HW143190   4.130   3.156   7.214 -1.4287 -0.7254  1.3861
45443SOL    HW243191   4.156   3.303   7.240  1.9539 -0.5194 -2.2318
45444SOL     OW43192  12.407   9.243   5.643 -0.4896  0.0315 -0.8352
45444SOL    HW143193  12.388   9.333   5.615 -1.1854  0.1195 -0.1340
45444SOL    HW243194  12.365   9.236   5.729  0.9583 -0.4442 -0.1290
45445SOL     OW43195  11.380  11.779   4.054  0.1197 -0.6159  0.3162
45445SOL    HW143196  11.345  11.790   4.143 -0.1832 -0.0046  0.1254
45445SOL    HW243197  11.447  11.710   4.063  0.5992 -0.0536  1.1591
45446SOL     OW43198  10.602   7.759  10.139  0.3265  0.5475 -0.4732
45446SOL    HW143199  10.645   7.751  10.054  0.9621 -1.7954  0.0148
45446SOL    HW243200  10.646   7.695  10.195 -2.2130 -0.2724  0.7377
45447SOL     OW43201  10.909   4.282  11.206 -0.2302  0.2365 -0.6967
45447SOL    HW143202  10.984   4.310  11.154 -0.0586  0.2377 -0.4529
45447SOL    HW243203  10.845   4.354  11.198 -0.1274  0.3222 -0.7469
45448SOL     OW43204   5.054   6.840   5.572 -0.3567 -0.4090  0.4614
45448SOL    HW143205   5.108   6.887   5.509  1.1262 -1.8828  0.5568
45448SOL    HW243206   5.038   6.903   5.642 -1.7385  1.1419 -1.1605
45449SOL     OW43207   9.799   7.490  10.776 -0.0699  0.2565  0.4230
45449SOL    HW143208   9.879   7.440  10.794  0.8485  1.6049  0.2243
45449SOL    HW243209   9.830   7.573  10.740 -1.6059  0.4828 -0.4560
45450SOL     OW43210   0.081   2.774   8.660 -0.3087 -0.0046  0.6152
45450SOL    HW143211   0.032   2.823   8.594  0.2835  1.3967  1.1824
45450SOL    HW243212   0.026   2.699   8.680 -1.2370  0.4099 -0.2978
45451SOL     OW43213   5.387  11.661   6.684  0.2244  0.0244  0.1427
45451SOL    HW143214   5.299  11.648   6.719  0.1836 -2.2770 -0.6630
45451SOL    HW243215   5.399  11.756   6.685 -3.6218  0.8225 -2.9266
45452SOL     OW43216   8.348  10.429   4.119 -0.2202  0.5862 -0.1639
45452SOL    HW143217   8.332  10.442   4.025 -1.0200  1.4806  0.0729
45452SOL    HW243218   8.260  10.428   4.158  0.0966  0.0988  0.5692
45453SOL     OW43219   1.296   1.376  10.688 -0.1584  0.6276  0.4901
45453SOL    HW143220   1.291   1.299  10.632 -1.4017  2.0398 -1.4528
45453SOL    HW243221   1.228   1.363  10.754 -1.3103  0.6846 -0.6728
45454SOL     OW43222   2.976   7.646   1.083  0.3425  0.2281 -0.3805
45454SOL    HW143223   2.982   7.616   1.174  0.7538 -0.9477 -0.7703
45454SOL    HW243224   2.894   7.696   1.079  0.2553  0.1771  0.6002
45455SOL     OW43225  11.527   5.629   7.775 -0.2967 -0.2846  0.7119
45455SOL    HW143226  11.469   5.637   7.851 -0.0951  0.5484  0.7923
45455SOL    HW243227  11.615   5.624   7.812 -0.0986  1.3015  0.5179
45456SOL     OW43228   9.169  10.314   5.802  0.1947  0.0955 -0.2930
45456SOL    HW143229   9.221  10.252   5.853  1.3307  1.5355  0.3608
45456SOL    HW243230   9.131  10.372   5.868 -1.2238 -0.1529 -0.8609
45457SOL     OW43231  10.302   8.892  11.584  0.0366 -0.4255  0.0058
45457SOL    HW143232  10.392   8.924  11.578 -0.9077  2.5879  0.1917
45457SOL    HW243233  10.303   8.829  11.656  1.9500 -0.3818  0.0683
45458SOL     OW43234   2.092   0.386  11.099  0.1742 -0.2284  0.4412
45458SOL    HW143235   2.053   0.302  11.123  0.3991 -0.2879  0.6036
45458SOL    HW243236   2.173   0.390  11.149  2.3129 -1.7600 -2.5891
45459SOL     OW43237   7.920  11.987   7.132 -0.3011 -0.4220 -0.1688
45459SOL    HW143238   7.897  11.992   7.225 -1.5927  0.6723 -0.5210
45459SOL    HW243239   7.903  11.895   7.109  0.4749 -0.8260  0.7584
45460SOL     OW43240   0.032   5.349   0.017 -0.2128 -0.0410 -0.0827
45460SOL    HW143241   0.038   5.290  -0.058  1.3413 -0.9042  0.6664
45460SOL    HW243242   0.011   5.291   0.091 -0.2121  0.5681  0.4025
45461SOL     OW43243   5.833   2.282   5.107 -0.2750 -0.5660 -0.1008
45461SOL    HW143244   5.762   2.295   5.169 -0.0065  0.5574 -0.0113
45461SOL    HW243245   5.893   2.222   5.151 -1.6035 -2.3342 -0.5610
45462SOL     OW43246   8.979   6.130   3.635 -0.2709  0.0984  0.0465
45462SOL    HW143247   8.908   6.173   3.682 -0.2128 -0.0089  0.2309
45462SOL    HW243248   8.962   6.037   3.644  0.4324  0.0430  0.9395
45463SOL     OW43249   6.709   0.203   5.789 -0.2263  0.9670 -0.3434
45463SOL    HW143250   6.779   0.199   5.723  0.3516 -0.1388  0.2974
45463SOL    HW243251   6.744   0.261   5.857  0.8494 -0.8456  0.7650
45464SOL     OW43252   7.811   9.415   9.574  0.2884 -1.0118 -0.0235
45464SOL    HW143253   7.784   9.375   9.656 -0.0114  0.1826  0.4688
45464SOL    HW243254   7.783   9.506   9.580  1.7240 -0.4845 -0.7535
45465SOL     OW43255   1.415   5.760   5.433 -0.1348  0.0764 -0.0737
45465SOL    HW143256   1.368   5.719   5.506  1.0815 -2.0044 -0.3809
45465SOL    HW243257   1.370   5.728   5.355  1.9586 -2.3770 -0.3980
45466SOL     OW43258  12.378  10.810   0.766  0.3025 -0.2217  0.0745
45466SOL    HW143259  12.292  10.819   0.724  0.5572  1.0022 -0.2416
45466SOL    HW243260  12.431  10.880   0.727  0.9224  0.1622  1.5311
45467SOL     OW43261  10.467   4.291  11.547 -0.0680 -0.5044 -0.0566
45467SOL    HW143262  10.403   4.341  11.597 -0.8813 -0.8866 -0.7037
45467SOL    HW243263  10.467   4.205  11.588 -0.4115 -0.6844 -0.4314
45468SOL     OW43264  12.237   3.205  11.235  0.2667  0.8209  0.3437
45468SOL    HW143265  12.182   3.212  11.157 -0.2363  0.6966  0.6829
45468SOL    HW243266  12.304   3.272  11.223  0.6522  0.2787 -0.5601
45469SOL     OW43267   0.361   4.452   5.477  0.4438 -0.0344  0.8261
45469SOL    HW143268   0.304   4.528   5.482 -2.0707 -1.7256 -0.2265
45469SOL    HW243269   0.370   4.434   5.383  0.4426 -1.3973  1.0633
45470SOL     OW43270  11.076  12.425   5.401  0.2525  0.5153 -0.1000
45470SOL    HW143271  11.145  12.462   5.345  1.2815 -1.2733 -0.0716
45470SOL    HW243272  11.070  12.486   5.474  3.1475 -0.2047  0.8424
45471SOL     OW43273   5.685   7.735   4.581  0.6967 -0.1551  0.1335
45471SOL    HW143274   5.722   7.803   4.637  0.9017 -1.0600  1.1410
45471SOL    HW243275   5.754   7.717   4.517  0.2903  1.2014 -0.7379
45472SOL     OW43276   9.344   3.463   3.938  0.0050  0.4193  0.0850
45472SOL    HW143277   9.269   3.509   3.975 -0.4296 -0.1010 -0.1414
45472SOL    HW243278   9.357   3.388   3.996  1.2806  1.2911  0.9909
45473SOL     OW43279   9.600   5.390   3.558 -0.4129 -0.1294  0.1790
45473SOL    HW143280   9.577   5.304   3.523 -0.5998  0.2523 -0.6608
45473SOL    HW243281   9.655   5.430   3.491 -0.6112  0.5373  0.4032
45474SOL     OW43282   9.464  12.386  10.138  0.1694  0.1820  0.1131
45474SOL    HW143283   9.468  12.296  10.168  2.4570 -0.2000 -1.1563
45474SOL    HW243284   9.384  12.421  10.178  0.5510 -1.6351  2.6816
45475SOL     OW43285   4.523   4.065  11.538 -0.5233 -0.0218  0.5189
45475SOL    HW143286   4.573   4.053  11.619  0.4200  0.7843  0.0777
45475SOL    HW243287   4.496   3.977  11.513  0.7293 -0.4903  0.7470
45476SOL     OW43288  12.203   7.459  10.636 -0.4105 -0.6518 -0.2669
45476SOL    HW143289  12.138   7.491  10.699 -0.4482 -0.9472 -0.1549
45476SOL    HW243290  12.161   7.469  10.551 -1.2393 -2.3185 -0.0881
45477SOL     OW43291   4.086   4.734   4.818 -0.3480  0.0277 -0.1970
45477SOL    HW143292   4.096   4.645   4.851 -3.3043 -1.7848 -3.4628
45477SOL    HW243293   3.996   4.759   4.841  0.2939  2.0833  0.3400
45478SOL     OW43294   4.493   3.234   3.074  0.1883  0.4313  0.2320
45478SOL    HW143295   4.530   3.239   3.162 -1.2605  0.8282  0.8417
45478SOL    HW243296   4.473   3.141   3.061  0.6785  0.3282  0.1930
45479SOL     OW43297   3.289   8.607  10.792 -0.2442  0.0621 -0.6336
45479SOL    HW143298   3.374   8.574  10.762 -0.4970 -0.6594 -0.5738
45479SOL    HW243299   3.280   8.692  10.749  0.3756  0.0134 -0.8746
45480SOL     OW43300  12.168  11.278   5.277  0.1226 -0.2377 -0.3118
45480SOL    HW143301  12.207  11.248   5.195 -0.5783  0.5913 -0.9614
45480SOL    HW243302  12.074  11.267   5.265 -0.0431  0.7306  0.0253
45481SOL     OW43303   3.529   9.626   5.189 -0.4566  0.1403  0.3010
45481SOL    HW143304   3.479   9.546   5.173 -0.0681 -0.1193  0.3682
45481SOL    HW243305   3.483   9.693   5.139 -0.8413 -0.1043  0.3224
45482SOL     OW43306   0.561   0.248   3.570  0.2098 -0.5022  0.4247
45482SOL    HW143307   0.488   0.258   3.632 -0.7891  0.5532 -0.8461
45482SOL    HW243308   0.539   0.170   3.520  0.1619 -0.4132  0.3075
45483SOL     OW43309   6.772   5.490  10.626 -0.6006  0.1435  0.1739
45483SOL    HW143310   6.858   5.450  10.617 -0.7769 -0.0254 -0.8738
45483SOL    HW243311   6.789   5.575  10.666 -0.1905 -0.8238  2.1745
45484SOL     OW43312  12.326   9.687  12.117 -0.0905  0.6372  0.1224
45484SOL    HW143313  12.404   9.693  12.062  0.6554  3.1682  1.2776
45484SOL    HW243314  12.256   9.724  12.064  0.7194  3.5038  0.8520
45485SOL     OW43315   3.823   3.987  10.208  0.3659 -0.9366  0.0748
45485SOL    HW143316   3.788   3.899  10.221 -0.7029 -0.6490 -0.7351
45485SOL    HW243317   3.808   4.030  10.292  0.2039 -1.2964  0.2346
45486SOL     OW43318  10.642   2.379   5.193 -0.5020  0.6285  0.1676
45486SOL    HW143319  10.714   2.413   5.141 -1.9755  1.3149 -1.5163
45486SOL    HW243320  10.565   2.430   5.166 -2.5121 -2.8089 -1.2625
45487SOL     OW43321   7.299   4.672   3.125  0.7320  0.4348  0.2932
45487SOL    HW143322   7.298   4.591   3.176  1.2721  0.5176  0.4352
45487SOL    HW243323   7.381   4.670   3.076  1.6261  1.6973  1.6244
45488SOL     OW43324  10.194   0.872  11.933 -0.3491  0.6713 -0.3453
45488SOL    HW143325  10.273   0.840  11.889 -0.0950  1.7253 -0.6859
45488SOL    HW243326  10.124   0.814  11.905  0.0717  0.5125 -1.0664
45489SOL     OW43327   3.805   4.856   2.476 -0.2640  0.1783  0.6476
45489SOL    HW143328   3.833   4.788   2.536  1.5533  0.3988  0.1068
45489SOL    HW243329   3.799   4.935   2.530  2.3491  0.6009  0.4288
45490SOL     OW43330   6.113  11.789   4.238  0.3756  0.3791 -0.3619
45490SOL    HW143331   6.190  11.830   4.277  0.7072 -2.0679  1.8707
45490SOL    HW243332   6.042  11.808   4.300  0.0801 -0.6234 -0.3803
45491SOL     OW43333   4.221  10.801   0.083 -0.3237  0.3803  0.3677
45491SOL    HW143334   4.211  10.850   0.001 -0.4622  0.2390  0.2998
45491SOL    HW243335   4.258  10.864   0.144  1.1851  0.1091 -0.2089
45492SOL     OW43336  11.404   7.247   0.521 -0.0707 -0.3906  0.1320
45492SOL    HW143337  11.494   7.224   0.500  0.3794 -0.2858  1.7994
45492SOL    HW243338  11.357   7.164   0.522 -0.4064 -0.3152 -2.2881
45493SOL     OW43339   1.456   4.807   7.583  0.1978  0.0220 -0.2910
45493SOL    HW143340   1.487   4.854   7.506  1.0066 -0.2083 -0.1134
45493SOL    HW243341   1.434   4.719   7.551  1.1571 -0.2781 -0.1453
45494SOL     OW43342   4.279   1.490   3.972 -0.4225 -0.5540  0.3396
45494SOL    HW143343   4.253   1.464   3.884  0.3637  0.1651 -0.1148
45494SOL    HW243344   4.206   1.462   4.028 -1.0183 -0.8238 -0.5582
45495SOL     OW43345   5.811   2.407   9.211  0.0831  0.5929  0.0224
45495SOL    HW143346   5.725   2.415   9.168  0.0071  0.1697  0.0942
45495SOL    HW243347   5.791   2.372   9.298  0.5340 -1.9659 -0.8473
45496SOL     OW43348   5.824   0.684   0.390  0.0838  0.0226  0.5287
45496SOL    HW143349   5.837   0.774   0.420  0.8704 -0.6268  2.2588
45496SOL    HW243350   5.737   0.684   0.351 -0.8037  1.1048  2.3558
45497SOL     OW43351   0.978   0.514  10.966  0.0544 -0.6090  0.1048
45497SOL    HW143352   0.895   0.516  11.013 -0.6014  0.6133 -1.0516
45497SOL    HW243353   1.036   0.464  11.024 -1.0193 -0.1140  1.6948
45498SOL     OW43354  11.335   3.161   5.888  0.1430 -0.5246 -0.2336
45498SOL    HW143355  11.383   3.080   5.873  0.5167 -0.3202 -0.1589
45498SOL    HW243356  11.292   3.180   5.805  2.2670  0.6549 -1.1204
45499SOL     OW43357   5.093   0.156  10.894 -0.3505 -0.2387  0.2055
45499SOL    HW143358   5.030   0.084  10.884 -0.4752 -0.1705  0.5052
45499SOL    HW243359   5.142   0.134  10.973 -1.8867  1.1371  1.6072
45500SOL     OW43360   7.075   0.770  10.191  0.0453 -0.2607  0.1690
45500SOL    HW143361   7.143   0.799  10.252 -0.9355 -0.3189  1.3369
45500SOL    HW243362   6.994   0.776  10.241 -0.5212 -2.6294 -0.3493
45501SOL     OW43363   2.479   1.304   3.056 -0.1225  0.4209  0.4628
45501SOL    HW143364   2.467   1.314   2.962  1.9929 -1.6539 -0.1390
45501SOL    HW243365   2.451   1.214   3.074 -1.1204  0.9909  1.9719
45502SOL     OW43366   2.572   0.128   0.478 -0.6325  0.3441 -0.5050
45502SOL    HW143367   2.623   0.175   0.412  2.4234 -0.6542  0.9454
45502SOL    HW243368   2.559   0.041   0.441 -1.2076  0.5716 -0.8408
45503SOL     OW43369   7.601   8.817   8.664  0.4335 -0.1053  0.6467
45503SOL    HW143370   7.632   8.761   8.735  1.3354 -0.2748  0.1399
45503SOL    HW243371   7.566   8.755   8.599 -3.1736  0.1467  2.1305
45504SOL     OW43372   4.667   0.809   6.533  0.2197 -0.3369 -0.2132
45504SOL    HW143373   4.616   0.747   6.585  0.0830  1.1974  1.6123
45504SOL    HW243374   4.605   0.881   6.515  0.6680 -0.2115 -1.3694
45505SOL     OW43375   5.025   0.343  11.294 -0.1976  0.6175  0.2115
45505SOL    HW143376   5.085   0.321  11.365 -0.9549  1.1076  1.0285
45505SOL    HW243377   5.079   0.390  11.231  1.0685 -1.9720 -0.7873
45506SOL     OW43378   2.596   2.549   9.810 -0.2428 -0.0469  0.2680
45506SOL    HW143379   2.547   2.628   9.786  0.2334  0.0949 -0.2557
45506SOL    HW243380   2.687   2.571   9.790  0.1998  0.1038  2.2631
45507SOL     OW43381   4.065   6.686   8.088  0.2728 -0.5179 -0.1418
45507SOL    HW143382   4.145   6.723   8.050 -0.2348 -0.6912 -1.4574
45507SOL    HW243383   4.035   6.753   8.150  0.4995  0.3503 -0.9383
45508SOL     OW43384   0.745   4.207   2.163  0.1015  0.1322  0.5695
45508SOL    HW143385   0.776   4.123   2.128  1.5240 -0.2514  2.5525
45508SOL    HW243386   0.810   4.270   2.133 -0.5130  0.3955 -0.2275
45509SOL     OW43387   7.676   7.459   8.176  0.2134  0.5504  0.0474
45509SOL    HW143388   7.692   7.367   8.194  0.8976  0.4007 -1.1841
45509SOL    HW243389   7.690   7.504   8.259 -0.6799 -0.5115  0.7874
45510SOL     OW43390   9.969   2.919   3.826  0.7353  0.2878 -0.3292
45510SOL    HW143391  10.040   2.974   3.795 -0.1293  0.7205 -1.5978
45510SOL    HW243392  10.011   2.835   3.846  1.5260  0.3832 -1.5175
45511SOL     OW43393  11.314   6.555   8.809 -0.0067 -0.6058  0.0202
45511SOL    HW143394  11.283   6.533   8.897 -0.1159  2.1084  0.7390
45511SOL    HW243395  11.408   6.535   8.812  0.1292  0.0882  1.0123
45512SOL     OW43396   9.899   0.683   7.074  0.2512  0.0010 -0.1776
45512SOL    HW143397   9.832   0.750   7.092 -0.4651 -0.7515  0.0233
45512SOL    HW243398   9.915   0.692   6.980  0.1872  0.4794 -0.1480
45513SOL     OW43399  10.754   5.929  11.607  0.6789  0.2873  0.5363
45513SOL    HW143400  10.730   6.011  11.564  0.5862  0.5302  1.0384
45513SOL    HW243401  10.828   5.896  11.557 -0.1185 -0.0130 -0.4884
45514SOL     OW43402   8.041   1.228  11.791  0.2262 -0.1083  0.2822
45514SOL    HW143403   8.094   1.296  11.834  0.1024  0.5683 -0.5948
45514SOL    HW243404   8.019   1.167  11.861  1.8300 -0.1983  0.7602
45515SOL     OW43405  12.227  10.213   3.538 -0.3429  0.1924  0.5359
45515SOL    HW143406  12.274  10.265   3.473  2.3433 -0.1088  2.1276
45515SOL    HW243407  12.135  10.222   3.513  0.5406  0.0216 -3.2934
45516SOL     OW43408   0.647   8.107   5.738  0.2328 -0.5372 -0.3445
45516SOL    HW143409   0.580   8.052   5.698 -1.4439  0.6702  0.6612
45516SOL    HW243410   0.661   8.069   5.825  0.2646 -0.3511 -0.2665
45517SOL     OW43411   1.573   9.552   2.494 -1.0301 -0.5099 -0.4117
45517SOL    HW143412   1.654   9.591   2.528 -2.1713  2.0708 -0.4000
45517SOL    HW243413   1.541   9.498   2.566 -0.4840  0.3042  0.4664
45518SOL     OW43414   0.306  11.962  10.893  0.4687 -0.3648  0.5480
45518SOL    HW143415   0.384  11.980  10.842  1.6853 -1.0203  2.0812
45518SOL    HW243416   0.263  11.890  10.848  1.8867 -1.4003  0.7996
45519SOL     OW43417   9.771   9.488   9.402 -0.1856 -0.0526  0.0817
45519SOL    HW143418   9.737   9.406   9.367 -0.8527  0.2808 -0.0515
45519SOL    HW243419   9.782   9.545   9.326 -2.2751  0.9100  0.4289
45520SOL     OW43420   2.337  11.131   1.352  0.3011 -0.0225 -0.3606
45520SOL    HW143421   2.344  11.117   1.258 -0.0009 -0.4748 -0.3230
45520SOL    HW243422   2.427  11.130   1.384  0.3432 -1.1343 -0.4811
45521SOL     OW43423   7.377   2.778   3.957 -0.2727 -0.2552 -0.2974
45521SOL    HW143424   7.456   2.778   3.902  0.6675  0.6615  0.9985
45521SOL    HW243425   7.324   2.851   3.923 -0.9332 -1.3173 -1.6319
45522SOL     OW43426   6.986   1.267   6.927 -0.1130  0.0615 -0.4238
45522SOL    HW143427   6.943   1.306   6.851 -0.0328 -0.0701 -0.5371
45522SOL    HW243428   6.962   1.323   7.000  0.2079  0.4675 -0.6277
45523SOL     OW43429  11.031   5.835   6.613 -0.1171 -0.0887 -0.2320
45523SOL    HW143430  10.961   5.814   6.674  1.0318 -2.5153  0.3867
45523SOL    HW243431  11.075   5.911   6.652 -1.2082  0.2568  0.3625
45524SOL     OW43432   1.469   3.755   7.331  0.1254  0.2368 -0.0202
45524SOL    HW143433   1.483   3.777   7.239  2.0521 -1.4405 -0.1935
45524SOL    HW243434   1.419   3.673   7.329 -2.2687  1.5863  0.5352
45525SOL     OW43435   7.604   0.255  10.101  0.1498 -0.4065 -0.1678
45525SOL    HW143436   7.510   0.244  10.084  0.0287 -0.4895  0.5432
45525SOL    HW243437   7.613   0.244  10.196  0.5467  1.8216  0.1056
45526SOL     OW43438   1.727   3.294   5.115 -0.2375  0.1250  0.5902
45526SOL    HW143439   1.636   3.322   5.120  0.1543  1.3208  1.4829
45526SOL    HW243440   1.776   3.361   5.163  1.0035 -1.0107  0.9762
45527SOL     OW43441   6.756   8.385   1.042 -0.1840  0.0163  0.0138
45527SOL    HW143442   6.731   8.292   1.040  0.1162 -0.0575 -0.3831
45527SOL    HW243443   6.845   8.384   1.077 -0.3738  0.1994  0.5088
45528SOL     OW43444   2.255   8.313   4.536 -0.0797  0.2492 -0.4910
45528SOL    HW143445   2.281   8.401   4.565 -1.0517 -0.1404  1.7705
45528SOL    HW243446   2.162   8.321   4.516 -0.5133 -0.5554  1.1093
45529SOL     OW43447   6.606   9.807   8.380  0.6238  0.3235  0.0270
45529SOL    HW143448   6.628   9.896   8.354  0.7008  0.5763  0.9143
45529SOL    HW243449   6.564   9.817   8.466  0.9609 -0.5235  0.2996
45530SOL     OW43450   9.916   1.386   4.688  0.1831  0.0930 -0.0124
45530SOL    HW143451   9.911   1.383   4.593  1.1604 -0.6343 -0.0548
45530SOL    HW243452   9.826   1.370   4.717 -0.5442  2.3748 -0.8007
45531SOL     OW43453   6.667  11.285   9.681 -0.2405  0.1011 -0.6396
45531SOL    HW143454   6.675  11.380   9.678 -0.7661  0.1781  0.2452
45531SOL    HW243455   6.746  11.256   9.727  0.5948 -0.0111 -2.0772
45532SOL     OW43456   3.211   1.671   2.923  0.4194 -0.8705  0.0905
45532SOL    HW143457   3.122   1.643   2.945 -0.0043  0.0756 -0.3390
45532SOL    HW243458   3.199   1.729   2.848  1.3998 -0.6970  0.0625
45533SOL     OW43459   0.597   1.687   1.484  0.2003 -0.5003  0.1318
45533SOL    HW143460   0.563   1.688   1.394  0.0744 -0.1584  0.1838
45533SOL    HW243461   0.664   1.755   1.485 -1.0123  0.7272  0.7660
45534SOL     OW43462   0.376  10.227   1.964  0.3459  0.3557 -0.2433
45534SOL    HW143463   0.468  10.227   1.988  0.2224 -1.3136  0.3193
45534SOL    HW243464   0.339  10.303   2.009  1.1247  0.1222  0.8179
45535SOL     OW43465   0.320   8.682   7.588 -0.1799 -0.1542 -0.0521
45535SOL    HW143466   0.332   8.684   7.683 -0.1624 -0.5465 -0.0448
45535SOL    HW243467   0.225   8.676   7.575 -0.1339 -1.1087 -0.0368
45536SOL     OW43468   9.121   4.943   1.717 -0.3827 -0.0867 -0.8544
45536SOL    HW143469   9.113   4.848   1.720 -0.7461 -0.0419 -0.0172
45536SOL    HW243470   9.214   4.960   1.726 -0.4573 -0.3283  0.5365
45537SOL     OW43471   0.022  10.973   2.271  0.2943 -0.4617  0.1517
45537SOL    HW143472   0.098  10.940   2.223  2.3651  3.6016  0.2529
45537SOL    HW243473  -0.045  10.986   2.204  0.9937 -0.6005 -0.5883
45538SOL     OW43474   6.679   1.305   1.551  0.5800 -0.4509 -0.1647
45538SOL    HW143475   6.701   1.386   1.506  1.2186 -1.1378 -1.1099
45538SOL    HW243476   6.741   1.241   1.517 -1.3112 -1.8682 -1.0610
45539SOL     OW43477   7.277   3.524   4.387  0.5344 -0.0660  0.1801
45539SOL    HW143478   7.209   3.461   4.410  0.8515 -0.8521 -0.9031
45539SOL    HW243479   7.275   3.526   4.291  1.7931  0.1541  0.1436
45540SOL     OW43480   7.485   5.439   9.826 -0.2832  0.4488 -0.1757
45540SOL    HW143481   7.442   5.354   9.837  0.3860  0.1045 -0.1401
45540SOL    HW243482   7.418   5.504   9.848 -0.9636 -0.0559 -0.7247
45541SOL     OW43483   9.435  11.668   7.312  0.0914 -0.4529  0.2114
45541SOL    HW143484   9.386  11.676   7.394  0.2799 -0.0870  0.2880
45541SOL    HW243485   9.495  11.742   7.312 -1.5511  0.9727 -1.3851
45542SOL     OW43486   7.712   5.485   0.395  0.2409  0.1017  0.2516
45542SOL    HW143487   7.807   5.501   0.390  0.1655  0.8898  1.0318
45542SOL    HW243488   7.677   5.567   0.431 -0.7463 -0.1610 -0.1029
45543SOL     OW43489   2.021   4.208   0.795  0.0624 -0.1956 -0.5075
45543SOL    HW143490   2.103   4.240   0.834 -0.0871 -0.3872 -0.0216
45543SOL    HW243491   2.041   4.118   0.769  0.1420 -0.0901 -0.8095
45544SOL     OW43492   9.668  11.273  11.825  0.1695  0.0868 -0.0464
45544SOL    HW143493   9.642  11.290  11.735 -0.8963 -1.4283 -0.0652
45544SOL    HW243494   9.763  11.266  11.822  0.1970  0.7348 -0.9159
45545SOL     OW43495   4.624   4.967   7.533  0.6581  0.2764  0.5434
45545SOL    HW143496   4.642   4.973   7.627  0.9806  0.5765  0.4663
45545SOL    HW243497   4.642   5.055   7.500 -1.4611  0.7486  0.5372
45546SOL     OW43498   0.036   3.905  10.245  0.1970 -0.1084  0.5948
45546SOL    HW143499  -0.002   3.924  10.159  0.3603 -0.8109  0.3548
45546SOL    HW243500  -0.035   3.921  10.307 -0.4244 -1.1492  0.1807
45547SOL     OW43501   5.326   9.206   8.346  0.0967 -0.3028 -0.2706
45547SOL    HW143502   5.288   9.240   8.265  0.9747 -2.9393 -1.8956
45547SOL    HW243503   5.274   9.128   8.366  0.8794 -0.5641  0.8641
45548SOL     OW43504  10.924   1.945   1.973  0.1029 -0.4427  0.4505
45548SOL    HW143505  10.875   1.865   1.993 -1.9736  0.2139 -1.5074
45548SOL    HW243506  10.897   2.007   2.041  0.0808 -0.7861  0.7586
45549SOL     OW43507   0.654   6.448   9.852  0.4218  0.1708  0.0659
45549SOL    HW143508   0.686   6.538   9.853  0.2785  0.2571 -1.2971
45549SOL    HW243509   0.707   6.404   9.785  0.3969 -0.7220  0.6172
45550SOL     OW43510   4.753  12.229   7.293  0.0717  0.1492 -0.0710
45550SOL    HW143511   4.666  12.261   7.316  0.1532 -0.2735  0.8959
45550SOL    HW243512   4.811  12.305   7.303  0.0065  0.1230  0.5778
45551SOL     OW43513  11.101   8.845   6.285  0.5678  0.1220 -0.4343
45551SOL    HW143514  11.097   8.763   6.235  0.3504 -0.1525  0.0241
45551SOL    HW243515  11.089   8.818   6.376  0.3863  0.6798 -0.2896
45552SOL     OW43516   8.842   2.736   1.279  0.3050 -0.3448  0.4327
45552SOL    HW143517   8.785   2.745   1.203 -0.1768  1.0085  0.9227
45552SOL    HW243518   8.880   2.648   1.271  0.5334 -0.1156 -1.5502
45553SOL     OW43519   4.004   3.320  12.442 -0.0466  0.0203  0.1986
45553SOL    HW143520   3.986   3.294  12.352  0.0706 -1.1227  0.4911
45553SOL    HW243521   4.048   3.404  12.434 -1.5034  0.7464 -0.7334
45554SOL     OW43522  10.407   6.565   1.666 -0.2025  0.0727 -0.0033
45554SOL    HW143523  10.493   6.547   1.704 -1.2346 -2.0495  1.5861
45554SOL    HW243524  10.414   6.539   1.575  1.1761  1.1772 -0.2331
45555SOL     OW43525  10.308   5.955   6.406  0.1681 -0.0097  0.1708
45555SOL    HW143526  10.256   5.970   6.327  0.6042  3.3530  0.3794
45555SOL    HW243527  10.351   5.871   6.391 -1.0054 -0.2382 -2.4490
45556SOL     OW43528  10.239   4.172   1.944 -0.0637 -0.1660 -0.5100
45556SOL    HW143529  10.321   4.132   1.972  0.7812  2.7582  1.5922
45556SOL    HW243530  10.265   4.256   1.906 -2.0681  0.9965  0.5349
45557SOL     OW43531   8.618   9.987   6.398  0.0202  0.1902  0.4288
45557SOL    HW143532   8.632  10.008   6.306  0.7429  1.4242  0.7961
45557SOL    HW243533   8.524   9.968   6.405 -0.6314  2.8076 -0.0929
45558SOL     OW43534  11.800   4.888   6.410 -0.8546 -0.1687  0.8732
45558SOL    HW143535  11.841   4.969   6.441  1.3241 -1.2422  0.9690
45558SOL    HW243536  11.756   4.852   6.487 -0.4412  0.0873  1.2326
45559SOL     OW43537   8.821   7.717   3.948  0.3775  0.1845 -0.7038
45559SOL    HW143538   8.820   7.756   4.035 -1.4858 -0.7348 -0.2549
45559SOL    HW243539   8.739   7.667   3.943  1.4338 -1.5238 -2.2009
45560SOL     OW43540   8.282   2.796   6.251  0.1384  0.2466  0.7637
45560SOL    HW143541   8.327   2.759   6.327  0.9816  0.2936  0.2980
45560SOL    HW243542   8.292   2.729   6.183 -1.1672 -0.0803  0.8711
45561SOL     OW43543   0.549   5.868   3.752  0.2933 -0.1977  0.0835
45561SOL    HW143544   0.502   5.810   3.811 -1.0471  0.2678 -0.4809
45561SOL    HW243545   0.558   5.950   3.800  0.4322 -0.2470  0.1435
45562SOL     OW43546   9.073   3.160   6.276  0.1865  0.0438  0.0553
45562SOL    HW143547   9.093   3.227   6.210 -0.3165 -0.7423 -0.9123
45562SOL    HW243548   9.154   3.112   6.288 -0.2013 -1.0093 -1.3954
45563SOL     OW43549   8.525   4.977   2.890 -0.2253 -0.4042 -0.2694
45563SOL    HW143550   8.566   5.059   2.862  1.3111 -0.5772  1.2654
45563SOL    HW243551   8.513   4.927   2.809 -0.4202  0.9745 -1.1331
45564SOL     OW43552   2.729  12.095   3.415 -0.5202 -0.5715 -0.1854
45564SOL    HW143553   2.687  12.021   3.460  0.8648 -2.6301 -2.0687
45564SOL    HW243554   2.661  12.129   3.356 -0.6539 -1.5566 -0.6242
45565SOL     OW43555   9.392   8.848  10.352 -0.4650 -0.1400  0.1475
45565SOL    HW143556   9.377   8.938  10.325 -1.8815 -0.3736  0.0790
45565SOL    HW243557   9.434   8.855  10.438  0.4829  0.5693 -0.3490
45566SOL     OW43558   5.765   2.818   5.065  0.0741  0.0739 -0.7489
45566SOL    HW143559   5.694   2.782   5.012  0.5451 -1.3259 -0.4851
45566SOL    HW243560   5.829   2.747   5.070  0.5639  0.5874  0.7074
45567SOL     OW43561   5.285   8.332   7.102 -0.5486  0.2758 -1.0751
45567SOL    HW143562   5.343   8.301   7.172 -0.8240 -1.0990 -1.4281
45567SOL    HW243563   5.336   8.320   7.022 -0.7740  0.4617 -1.2472
45568SOL     OW43564   4.194   6.148  12.080 -0.9353  0.0682 -0.9487
45568SOL    HW143565   4.261   6.158  12.012 -1.7534  0.9918 -1.6530
45568SOL    HW243566   4.141   6.227  12.073 -0.0679  1.0254  1.8888
45569SOL     OW43567   5.394   0.456   6.066  0.1239 -0.7618  0.2333
45569SOL    HW143568   5.422   0.423   6.152 -1.3354 -2.4675  0.1167
45569SOL    HW243569   5.299   0.449   6.068  0.0089  0.0247 -1.2248
45570SOL     OW43570   9.117   2.265  10.723  0.5011 -0.2302  0.5720
45570SOL    HW143571   9.149   2.354  10.708 -0.0635 -0.0960  0.1000
45570SOL    HW243572   9.037   2.276  10.775 -0.6635 -0.2954 -1.1180
45571SOL     OW43573   7.859   3.523   4.034  0.0057  0.0680 -0.7683
45571SOL    HW143574   7.913   3.594   4.068 -0.5508  0.2189 -0.1897
45571SOL    HW243575   7.915   3.446   4.040 -0.6544 -0.3023  2.3128
45572SOL     OW43576  12.180   4.497  10.379  0.4984 -0.6780 -0.0913
45572SOL    HW143577  12.092   4.530  10.362  0.2169 -1.2148  0.2999
45572SOL    HW243578  12.212   4.466  10.294  0.6982  0.4049 -0.4346
45573SOL     OW43579   7.698  10.815  12.105  0.7104  0.1213 -0.3542
45573SOL    HW143580   7.614  10.796  12.146 -0.6764  2.4708 -1.9165
45573SOL    HW243581   7.750  10.855  12.175 -0.5299  1.2870 -0.0548
45574SOL     OW43582   5.095  11.822   6.913 -0.0187  0.6477  0.1582
45574SOL    HW143583   5.108  11.759   6.842 -1.6063  0.7532 -0.2638
45574SOL    HW243584   5.160  11.798   6.979  0.8061 -0.0945 -0.8908
45575SOL     OW43585   0.349   1.019   2.331 -0.0478  0.0670 -0.3033
45575SOL    HW143586   0.262   1.028   2.370  0.0512  0.4484 -0.1638
45575SOL    HW243587   0.337   1.042   2.239 -0.1261 -0.0422 -0.3201
45576SOL     OW43588   6.910   7.515   9.033  0.4136 -0.0387 -0.3363
45576SOL    HW143589   6.981   7.570   9.066  1.1016 -0.7877 -0.5404
45576SOL    HW243590   6.834   7.573   9.032  0.6460  0.3591  1.3573
45577SOL     OW43591  11.169   2.120   3.751  0.0514  0.1965 -0.8160
45577SOL    HW143592  11.134   2.138   3.838  2.0397 -1.3672  0.3848
45577SOL    HW243593  11.248   2.173   3.745 -0.1759  0.4632 -1.8092
45578SOL     OW43594   6.386  10.996   8.699 -0.5506 -0.0765 -0.3756
45578SOL    HW143595   6.301  11.041   8.702 -0.4515  0.2942 -2.0674
45578SOL    HW243596   6.408  10.980   8.791 -3.6041 -2.4525  0.0775
45579SOL     OW43597   1.456   5.045   9.194 -0.5238  0.4199 -0.1963
45579SOL    HW143598   1.475   4.953   9.212 -0.2775  0.5761  0.3509
45579SOL    HW243599   1.484   5.058   9.103  2.1343  0.6580  0.5719
45580SOL     OW43600  11.957   0.973   2.533  0.2743  0.4073  0.2694
45580SOL    HW143601  11.993   1.062   2.537 -1.3476  1.1923 -1.3668
45580SOL    HW243602  11.899   0.974   2.458 -1.4330 -1.4422  1.4729
45581SOL     OW43603   4.595   5.332   0.825 -0.1270 -0.5021 -0.4600
45581SOL    HW143604   4.530   5.321   0.755 -1.7750 -0.4598  0.9742
45581SOL    HW243605   4.611   5.426   0.830  0.8033 -0.5896 -1.4324
45582SOL     OW43606   6.164   5.694   5.524 -0.1090 -0.6152  0.5589
45582SOL    HW143607   6.179   5.605   5.492  2.0370  0.4668 -1.8040
45582SOL    HW243608   6.251   5.726   5.547 -0.7558  1.0501  0.8012
45583SOL     OW43609   7.903   8.263   5.031 -0.2045 -0.4358 -0.8067
45583SOL    HW143610   7.947   8.292   5.111 -0.3719  1.0679 -1.2437
45583SOL    HW243611   7.971   8.266   4.964 -0.9732  2.2796 -1.5728
45584SOL     OW43612   7.960   3.997   7.442  0.1796 -0.8564 -0.2573
45584SOL    HW143613   8.054   4.004   7.425  0.2058 -2.6704 -1.1456
45584SOL    HW243614   7.921   4.072   7.396  1.1002 -0.6684 -0.7517
45585SOL     OW43615   9.330   0.060   2.007  0.4974  0.0283 -0.0867
45585SOL    HW143616   9.354   0.063   2.100  0.3049  1.0339 -0.0538
45585SOL    HW243617   9.392  -0.001   1.968  1.5313  0.6987  0.4436
45586SOL     OW43618   2.962  11.005   6.730  0.4912  0.5495 -0.4572
45586SOL    HW143619   2.887  11.022   6.787  1.7466  1.5367  0.9473
45586SOL    HW243620   2.929  11.022   6.642 -0.7731  1.5494  0.1847
45587SOL     OW43621   5.191   6.265   7.942 -0.5671 -0.3554 -0.0007
45587SOL    HW143622   5.138   6.338   7.909 -1.1024 -0.8212 -0.1779
45587SOL    HW243623   5.170   6.260   8.035  2.2703  2.1162  0.9549
45588SOL     OW43624   9.312   5.077   8.718  0.0399  0.3044 -0.2662
45588SOL    HW143625   9.323   4.987   8.750 -0.5832  0.6477  0.9564
45588SOL    HW243626   9.401   5.111   8.708  0.2555 -0.0696  0.3570
45589SOL     OW43627   2.842   3.193   1.091 -0.6089 -0.2631  0.2776
45589SOL    HW143628   2.780   3.128   1.059 -1.2086  0.3256  0.2240
45589SOL    HW243629   2.856   3.168   1.183 -0.6352 -0.6174  0.1891
45590SOL     OW43630   5.438   1.874   1.483 -0.0578  0.9967  0.0499
45590SOL    HW143631   5.524   1.849   1.515 -0.0740 -0.8121 -1.1712
45590SOL    HW243632   5.442   1.859   1.388 -1.0442  2.9792 -0.3648
45591SOL     OW43633  10.798   4.145   1.577 -0.5082  0.0035 -0.2435
45591SOL    HW143634  10.781   4.056   1.607 -0.0122  0.6331  2.1315
45591SOL    HW243635  10.730   4.161   1.511  0.1938 -2.5226 -1.7155
45592SOL     OW43636   4.909   4.408   3.135 -0.0556 -0.5586  0.1827
45592SOL    HW143637   4.815   4.397   3.121 -0.1757  1.0571 -0.4525
45592SOL    HW243638   4.949   4.350   3.070 -0.6224 -0.6387 -0.1051
45593SOL     OW43639   9.185   9.604   0.462 -0.4048  0.3560  0.2129
45593SOL    HW143640   9.214   9.591   0.552  2.3486 -3.1961 -0.9977
45593SOL    HW243641   9.115   9.540   0.450 -0.0315  0.0719 -0.4618
45594SOL     OW43642  10.433  10.496  10.975 -0.0116 -0.2795 -0.1918
45594SOL    HW143643  10.430  10.520  11.068  1.8157 -2.6569  0.5625
45594SOL    HW243644  10.496  10.425  10.970  0.6397  0.3674 -3.4401
45595SOL     OW43645   3.188   8.167   2.270 -0.1978 -0.3303 -0.4669
45595SOL    HW143646   3.117   8.231   2.277  0.8900  0.8514  0.0721
45595SOL    HW243647   3.170   8.104   2.340  0.4015  1.1217  1.0553
45596SOL     OW43648   9.774   1.332   0.004  0.0142 -0.3309  0.8151
45596SOL    HW143649   9.794   1.422  -0.021  0.5813 -0.5291  0.5321
45596SOL    HW243650   9.717   1.340   0.080  0.3109  0.2603  0.9797
45597SOL     OW43651   5.049   9.425   5.008 -0.1113  0.0341 -0.0525
45597SOL    HW143652   4.995   9.401   4.933 -0.4081 -0.7850  0.4191
45597SOL    HW243653   5.132   9.380   4.994 -0.1608 -0.1056  0.1025
45598SOL     OW43654   6.150  11.271   8.639  0.1021  0.1226 -0.4743
45598SOL    HW143655   6.087  11.335   8.608 -0.9750  1.1885  3.3283
45598SOL    HW243656   6.103  11.187   8.639 -0.3395  0.3683 -0.4271
45599SOL     OW43657   5.440  11.797  11.111 -0.2021  0.2624  0.5116
45599SOL    HW143658   5.478  11.744  11.181 -1.0985 -0.6549  0.3222
45599SOL    HW243659   5.502  11.788  11.038 -0.9958 -1.6818  0.0138
45600SOL     OW43660   6.562   3.616   9.067 -0.8122  0.0014 -0.0379
45600SOL    HW143661   6.617   3.694   9.051 -0.5942  0.4031  2.2749
45600SOL    HW243662   6.625   3.545   9.079 -0.8397  0.1584  1.1215
45601SOL     OW43663   8.078   5.034   9.148 -0.6229 -0.4498 -0.1357
45601SOL    HW143664   8.095   4.995   9.234  0.3712 -1.2185 -0.6669
45601SOL    HW243665   8.043   5.121   9.168  3.6356  1.2243  1.1200
45602SOL     OW43666  10.036  12.056   0.047  0.1070 -0.1724 -0.1058
45602SOL    HW143667   9.963  12.110   0.018  0.3914 -0.0666 -0.6478
45602SOL    HW243668  10.057  12.002  -0.030  2.3441  1.6983 -0.9142
45603SOL     OW43669   9.515   7.662   7.437 -0.0012  0.6425 -0.4780
45603SOL    HW143670   9.543   7.662   7.529 -0.0068 -0.4238 -0.4673
45603SOL    HW243671   9.452   7.733   7.431  0.5555  1.2056  0.1704
45604SOL     OW43672   2.578   5.104  12.193  0.2828 -0.5861  0.3124
45604SOL    HW143673   2.486   5.108  12.217  0.3981 -0.5104  0.7479
45604SOL    HW243674   2.625   5.102  12.276  0.7285  0.5039  0.1020
45605SOL     OW43675   1.283   7.731   7.357  0.4951 -0.2502  0.1767
45605SOL    HW143676   1.324   7.645   7.373  1.4217  0.2122  0.3417
45605SOL    HW243677   1.356   7.792   7.353 -0.2650  1.0237  3.0900
45606SOL     OW43678   8.577   7.672   6.409  0.2101  0.2142  0.1879
45606SOL    HW143679   8.511   7.629   6.355 -0.6460  1.6845  0.0286
45606SOL    HW243680   8.660   7.647   6.369 -0.3007 -0.6043 -0.3928
45607SOL     OW43681   0.696   0.442   2.141 -0.0103 -0.3513 -0.0723
45607SOL    HW143682   0.615   0.399   2.113  0.9367 -2.8566  0.7129
45607SOL    HW243683   0.754   0.436   2.066 -0.4634  1.3162 -0.5874
45608SOL     OW43684  12.436   8.198   4.346 -0.5336 -0.2164  0.5765
45608SOL    HW143685  12.496   8.264   4.312  1.4959 -3.0016 -1.7746
45608SOL    HW243686  12.349   8.238   4.337  0.4689  1.7041 -1.8784
45609SOL     OW43687   2.279   5.390   7.349  0.2708  0.2497  0.0806
45609SOL    HW143688   2.295   5.390   7.255  3.4963 -0.2699  0.5076
45609SOL    HW243689   2.219   5.317   7.363  0.3973 -0.1861 -1.4962
45610SOL     OW43690   0.655  11.758   3.609  0.2667 -0.7278  0.8006
45610SOL    HW143691   0.726  11.756   3.673  0.3478  0.4653  0.7777
45610SOL    HW243692   0.660  11.673   3.564  2.0079 -0.4831  0.4571
45611SOL     OW43693   0.852   3.698   1.185 -0.3380  0.5125 -0.2586
45611SOL    HW143694   0.900   3.622   1.153  0.3721  1.3081 -1.1565
45611SOL    HW243695   0.816   3.670   1.269  1.2910 -0.2912  0.2170
45612SOL     OW43696   8.277  11.015   2.984 -0.2053 -0.3405  0.2618
45612SOL    HW143697   8.308  11.077   3.050 -0.2404  0.2011 -0.2257
45612SOL    HW243698   8.353  10.997   2.929 -0.1514 -0.8676  0.5047
45613SOL     OW43699  11.618   3.291   1.880  0.4336 -0.4265 -1.0536
45613SOL    HW143700  11.682   3.310   1.811 -0.0152  0.5717 -1.2064
45613SOL    HW243701  11.536   3.277   1.834 -0.2775  2.0394 -0.6666
45614SOL     OW43702   5.575   6.313   1.769  0.2028 -0.1079 -0.4331
45614SOL    HW143703   5.506   6.296   1.705  0.2583 -0.3602 -0.4274
45614SOL    HW243704   5.531   6.361   1.839  0.2392  0.5652 -0.8610
45615SOL     OW43705  10.669   0.257   0.496  0.0122 -0.5059  0.1411
45615SOL    HW143706  10.589   0.242   0.547  0.6932 -0.0282  1.4090
45615SOL    HW243707  10.737   0.267   0.562  1.6421 -3.4178 -0.9134
45616SOL     OW43708  10.072  10.283   7.060 -0.4175 -0.5918 -0.1296
45616SOL    HW143709   9.998  10.244   7.014  0.2370 -0.1250 -1.6596
45616SOL    HW243710  10.120  10.331   6.992  1.4540 -1.1233  0.7507
45617SOL     OW43711   3.618   4.763   1.470 -0.2740  0.7754  0.4187
45617SOL    HW143712   3.684   4.830   1.490  0.1387 -0.2071  2.6589
45617SOL    HW243713   3.634   4.693   1.533 -2.2588 -0.3542 -0.2198
45618SOL     OW43714  11.266   9.798   0.681  0.1713  0.4016 -0.5682
45618SOL    HW143715  11.347   9.771   0.638  0.1705 -1.7813  0.6675
45618SOL    HW243716  11.288   9.802   0.774 -1.5419 -2.3118  0.0622
45619SOL     OW43717   0.568   6.264   0.727 -0.2605  0.1399 -0.1451
45619SOL    HW143718   0.558   6.346   0.775 -0.3658 -0.2403  0.4807
45619SOL    HW243719   0.496   6.264   0.664  1.3731  1.8879 -2.1579
45620SOL     OW43720   7.694   4.378   8.242 -0.0197 -0.0059 -0.4850
45620SOL    HW143721   7.694   4.456   8.298 -0.0297 -0.2307 -0.1750
45620SOL    HW243722   7.614   4.331   8.265 -0.1900  0.0609 -0.9142
45621SOL     OW43723   5.864   8.300   3.586 -0.0215  0.1008  0.4800
45621SOL    HW143724   5.795   8.309   3.519 -0.5159 -0.1751  0.9464
45621SOL    HW243725   5.846   8.370   3.648  0.7917  0.7289  0.0323
45622SOL     OW43726   4.138   2.122   3.626 -0.1938  0.1340 -0.2220
45622SOL    HW143727   4.115   2.138   3.717  1.1425  0.2883  0.1077
45622SOL    HW243728   4.152   2.209   3.589 -0.5981  0.0658 -0.5427
45623SOL     OW43729   1.983   8.863   2.474  0.0599  0.3881  0.0400
45623SOL    HW143730   2.027   8.946   2.491 -0.5322  0.8079 -0.4480
45623SOL    HW243731   1.900   8.887   2.433 -0.2942 -0.4261  0.2535
45624SOL     OW43732   3.951   4.688   7.693 -0.5510  0.2987 -0.2435
45624SOL    HW143733   4.018   4.647   7.638 -0.1309 -1.8878  1.6992
45624SOL    HW243734   3.920   4.616   7.749 -1.1322  2.2828  2.1523
45625SOL     OW43735   1.483   9.990   5.079  0.4286 -0.3105 -0.2294
45625SOL    HW143736   1.410  10.004   5.019  1.0586  0.5280 -0.8193
45625SOL    HW243737   1.442   9.980   5.165 -0.4153 -0.4845 -0.6465
45626SOL     OW43738   2.410   7.559  10.438 -0.2813  0.4537 -0.3774
45626SOL    HW143739   2.461   7.614  10.378 -0.4870  1.6448  0.4858
45626SOL    HW243740   2.440   7.585  10.525 -0.9481 -0.2701  0.0793
45627SOL     OW43741   0.488  10.147   7.515  0.2392 -0.3631 -0.6080
45627SOL    HW143742   0.503  10.208   7.587  0.2276  1.5274 -2.1346
45627SOL    HW243743   0.560  10.085   7.521  1.7748  1.3401 -0.5316
45628SOL     OW43744   2.678   4.309   1.814 -0.8994  0.4617  0.0938
45628SOL    HW143745   2.697   4.392   1.857  2.1438 -0.2620  0.4094
45628SOL    HW243746   2.672   4.331   1.721  2.0766  0.8736 -0.0949
45629SOL     OW43747   0.697   0.171   3.081  0.0615 -0.1084  0.0898
45629SOL    HW143748   0.716   0.261   3.056 -0.6146  0.3379  1.0681
45629SOL    HW243749   0.777   0.140   3.124  1.8792 -1.4714 -3.8672
45630SOL     OW43750   9.674  10.468   0.616  0.1368  0.3036  0.2798
45630SOL    HW143751   9.717  10.493   0.534  0.2593  0.0659  0.2714
45630SOL    HW243752   9.586  10.440   0.588 -0.4755  1.9504  0.4241
45631SOL     OW43753   3.893   9.714  11.694  0.2028 -0.2346 -0.0395
45631SOL    HW143754   3.964   9.670  11.648  1.3490  0.2931  1.1543
45631SOL    HW243755   3.813   9.675  11.659  1.0850 -1.0079 -1.2456
45632SOL     OW43756   2.109   4.634   0.200  0.3085  0.3492  0.2667
45632SOL    HW143757   2.119   4.710   0.141 -1.1824 -0.4725 -1.1250
45632SOL    HW243758   2.028   4.652   0.247  0.2784 -0.0901  0.3790
45633SOL     OW43759   8.157  10.761   6.683  0.3583 -0.5585 -0.1897
45633SOL    HW143760   8.241  10.803   6.705 -0.0372 -0.0540  0.3716
45633SOL    HW243761   8.161  10.750   6.588  0.1030  1.6055 -0.5059
45634SOL     OW43762   3.802   4.040   1.180  0.3470  0.6799 -0.7122
45634SOL    HW143763   3.736   3.981   1.143 -0.4899  1.2129 -0.1282
45634SOL    HW243764   3.775   4.051   1.271  2.2194 -0.4082  0.0289
45635SOL     OW43765   1.100   8.703   6.590  0.3442  0.1102 -0.0275
45635SOL    HW143766   1.118   8.610   6.575  0.4379 -0.1572  1.5623
45635SOL    HW243767   1.157   8.727   6.664 -0.4834  1.1465  0.3051
45636SOL     OW43768   7.684   2.043  11.833  0.1743 -0.3491 -0.6579
45636SOL    HW143769   7.721   1.956  11.848  0.1362 -0.2027  0.3795
45636SOL    HW243770   7.753   2.091  11.788  0.6131 -0.5910 -0.2517
45637SOL     OW43771   0.616   8.379   4.066  0.0144 -0.0104 -0.3638
45637SOL    HW143772   0.671   8.308   4.035  0.9075 -0.2332  1.5573
45637SOL    HW243773   0.672   8.427   4.128 -1.1654  1.2484 -0.2227
45638SOL     OW43774  12.295   4.328   1.974 -0.1920 -0.7198 -0.2933
45638SOL    HW143775  12.281   4.412   1.929 -1.2973 -0.5618  0.2968
45638SOL    HW243776  12.323   4.268   1.906 -2.0590 -0.5442 -1.2750
45639SOL     OW43777   5.871  11.497   1.702 -0.4436 -0.1686 -0.4610
45639SOL    HW143778   5.792  11.543   1.731 -1.1177 -0.8876 -1.0926
45639SOL    HW243779   5.933  11.508   1.774 -0.7102  1.3691 -0.4270
45640SOL     OW43780   4.267   9.614   1.761 -0.2041  0.3072 -0.4579
45640SOL    HW143781   4.311   9.549   1.707 -1.0609 -0.8834  0.2246
45640SOL    HW243782   4.176   9.613   1.731 -0.1490  1.4812 -0.7015
45641SOL     OW43783   6.908   7.231   0.334  0.1144 -0.0403  0.8862
45641SOL    HW143784   6.951   7.148   0.312  1.3683  1.0808 -1.3120
45641SOL    HW243785   6.833   7.236   0.274 -1.3821 -0.5880  2.6223
45642SOL     OW43786   7.142   3.367   5.960 -0.1588  0.4340  0.4227
45642SOL    HW143787   7.079   3.434   5.985  0.5214  0.8304  1.1275
45642SOL    HW243788   7.192   3.405   5.888 -1.9010 -0.5824 -1.4101
45643SOL     OW43789   4.494   6.403   0.263  0.1176 -0.5832 -0.3525
45643SOL    HW143790   4.481   6.309   0.268  0.1374 -0.5680 -0.0318
45643SOL    HW243791   4.441   6.430   0.187 -1.8666 -0.5057  0.9776
45644SOL     OW43792  10.559   3.004   7.573  0.1224 -0.2944 -0.1019
45644SOL    HW143793  10.640   3.042   7.539 -0.0660  0.4368  0.2323
45644SOL    HW243794  10.530   2.943   7.506  2.1265 -2.2849  0.7350
45645SOL     OW43795   6.900  11.748   4.100  0.4693  0.7281  0.6238
45645SOL    HW143796   6.975  11.753   4.158  1.7643  0.2644 -0.9468
45645SOL    HW243797   6.842  11.684   4.143  1.7098 -0.1549  1.0615
45646SOL     OW43798  11.045   9.849   8.112 -1.2911 -0.0557  0.1765
45646SOL    HW143799  10.999   9.896   8.042 -0.9569 -0.1753 -0.1254
45646SOL    HW243800  10.989   9.859   8.189 -1.1870  0.9228  0.1390
45647SOL     OW43801   6.783   4.707  10.972 -0.6682 -0.1944 -0.2031
45647SOL    HW143802   6.755   4.722  11.062 -0.4420  0.4657 -0.2355
45647SOL    HW243803   6.735   4.630  10.944 -1.0678 -0.1465  0.3405
45648SOL     OW43804  12.066   6.121   2.038  0.4305  0.7573 -0.0683
45648SOL    HW143805  12.119   6.047   2.007  1.5552  2.2614 -1.9526
45648SOL    HW243806  12.072   6.186   1.968 -3.1821  1.4104  0.0368
45649SOL     OW43807  11.375   2.712   2.531  0.1887 -0.2042  0.3710
45649SOL    HW143808  11.454   2.736   2.580 -0.0063  0.8532  0.2003
45649SOL    HW243809  11.303   2.732   2.590  0.0192 -0.5313  0.2771
45650SOL     OW43810   9.369   0.595   6.718  0.0803  0.4637 -0.3922
45650SOL    HW143811   9.336   0.631   6.636 -0.5294  1.7889  0.3904
45650SOL    HW243812   9.397   0.506   6.697 -2.4616 -0.1471 -1.4785
45651SOL     OW43813   8.221   0.064  10.508  0.3583  0.2594 -0.3152
45651SOL    HW143814   8.256   0.055  10.597 -0.0462  1.9894  0.0537
45651SOL    HW243815   8.159   0.136  10.513 -2.7541 -2.1489 -1.1349
45652SOL     OW43816   2.242  11.903  11.272  0.0517 -0.5705  0.3434
45652SOL    HW143817   2.231  11.855  11.190  0.9781 -0.2945  0.0421
45652SOL    HW243818   2.245  11.835  11.339  1.4679 -0.9867 -0.0863
45653SOL     OW43819   6.807   7.699   2.905  0.0357 -0.5681  0.0576
45653SOL    HW143820   6.884   7.648   2.880  1.0035  1.2606 -0.9770
45653SOL    HW243821   6.773   7.732   2.822 -0.8521  0.0317  0.6443
45654SOL     OW43822   7.590   8.259   2.594  0.2849  0.0186  0.5099
45654SOL    HW143823   7.535   8.208   2.655 -0.6951  0.5633  0.1126
45654SOL    HW243824   7.568   8.350   2.613  1.3356  0.2686  0.5756
45655SOL     OW43825   3.834   3.206   8.777 -0.1420 -0.0473 -0.3661
45655SOL    HW143826   3.883   3.168   8.850  0.1617 -0.5588 -0.8254
45655SOL    HW243827   3.755   3.154   8.771 -0.2331  0.0848 -0.3145
45656SOL     OW43828  12.177   4.260   3.838 -0.7250 -0.3765  1.0007
45656SOL    HW143829  12.162   4.170   3.810 -0.2081  0.4449 -2.4237
45656SOL    HW243830  12.268   4.261   3.868  0.1569 -0.6322 -1.3697
45657SOL     OW43831   0.118   5.329   5.370  0.6401 -0.0074  0.1751
45657SOL    HW143832   0.128   5.253   5.427  1.4243 -1.7257 -2.0918
45657SOL    HW243833   0.178   5.395   5.406  0.5422 -0.7195  1.7251
45658SOL     OW43834   1.605   7.880   5.316 -0.1046  0.2810 -0.0195
45658SOL    HW143835   1.652   7.797   5.328  0.9830  0.8441 -0.2667
45658SOL    HW243836   1.629   7.909   5.228 -0.2244  1.0073  0.1788
45659SOL     OW43837   1.378   6.659  12.002  0.3056  0.1870  0.0584
45659SOL    HW143838   1.416   6.623  11.922  1.0642 -0.5501  0.7215
45659SOL    HW243839   1.447   6.714  12.039  0.5627 -0.7238  0.9932
45660SOL     OW43840   9.351  10.437   4.179  0.0083 -0.5522  0.5757
45660SOL    HW143841   9.272  10.419   4.128  0.8585 -1.0529 -0.6004
45660SOL    HW243842   9.403  10.357   4.171  1.9026  0.7772 -1.0757
45661SOL     OW43843   5.959   4.606   2.203  0.0441  0.2791  0.0242
45661SOL    HW143844   5.934   4.633   2.291 -1.3472  1.4400 -0.6867
45661SOL    HW243845   5.878   4.611   2.152  0.9631  0.3810 -1.5014
45662SOL     OW43846   0.946   6.111   2.870 -0.5490 -0.4585 -0.4773
45662SOL    HW143847   1.019   6.115   2.808 -0.7433 -1.3249 -0.7666
45662SOL    HW243848   0.892   6.186   2.848  1.6206  1.8995  1.5141
45663SOL     OW43849  11.411   7.436   6.103  0.0592  0.6580  0.1083
45663SOL    HW143850  11.341   7.376   6.132  1.3565 -1.0443 -0.1433
45663SOL    HW243851  11.424   7.494   6.178 -0.0309 -0.5106  1.0598
45664SOL     OW43852   6.751   0.363  10.496 -0.7596  0.3561 -0.1800
45664SOL    HW143853   6.685   0.310  10.452 -1.0608 -0.3571  1.0982
45664SOL    HW243854   6.718   0.375  10.584  1.1929 -0.7630  0.7827
45665SOL     OW43855   3.333   0.097   7.874  0.1934  0.0202 -0.4295
45665SOL    HW143856   3.256   0.069   7.922  0.2291 -0.3404 -0.5771
45665SOL    HW243857   3.395   0.124   7.942  0.6175 -1.4391 -0.2005
45666SOL     OW43858   6.171   8.049   1.175  0.1171  0.3647 -0.8310
45666SOL    HW143859   6.117   7.972   1.160 -0.7749  0.9222 -0.5132
45666SOL    HW243860   6.117   8.107   1.228  1.5228  0.3575  0.7285
45667SOL     OW43861  11.808   9.272  11.149 -0.6499 -0.9883  0.2190
45667SOL    HW143862  11.741   9.222  11.103 -0.9010 -0.9661  0.5609
45667SOL    HW243863  11.796   9.249  11.241  0.5450 -1.8708  0.1830
45668SOL     OW43864   1.680   4.126   3.293  0.1060  0.0346  0.0341
45668SOL    HW143865   1.736   4.089   3.225 -0.4914  0.6808 -0.8400
45668SOL    HW243866   1.727   4.203   3.324  0.0659  0.1278 -0.1369
45669SOL     OW43867  12.053   5.396  10.737  0.0766  0.4854 -0.3666
45669SOL    HW143868  12.075   5.484  10.767 -1.2672  0.7265 -0.0069
45669SOL    HW243869  12.019   5.408  10.649  0.5339  0.2370 -0.5789
45670SOL     OW43870   0.851   5.389  11.686 -0.5213  0.1429  0.5202
45670SOL    HW143871   0.932   5.422  11.725  0.5725 -1.3106 -0.4038
45670SOL    HW243872   0.800   5.356  11.759  0.3788 -0.2571  0.9794
45671SOL     OW43873   7.093   6.578   7.861 -0.0042 -0.7429 -0.6285
45671SOL    HW143874   7.129   6.649   7.914  1.7390 -1.9356 -0.1104
45671SOL    HW243875   7.071   6.619   7.777 -0.8619  0.7638  0.2940
45672SOL     OW43876   2.965   9.882   6.438 -0.7373 -0.0170 -0.9334
45672SOL    HW143877   2.947   9.860   6.530  2.9553  0.4473  0.0868
45672SOL    HW243878   2.978   9.977   6.439 -0.2352 -0.0733 -1.8342
45673SOL     OW43879   2.547   1.941   1.730  0.0333 -0.1110 -0.1733
45673SOL    HW143880   2.627   1.911   1.774  0.7487  1.0378 -0.6219
45673SOL    HW243881   2.476   1.904   1.781  0.8397  0.6174  1.5750
45674SOL     OW43882   5.335   2.150   2.310  0.1540  0.0479 -0.1060
45674SOL    HW143883   5.264   2.120   2.253  0.6281  0.7369 -1.0851
45674SOL    HW243884   5.385   2.070   2.330  0.4671 -0.1002 -1.3696
45675SOL     OW43885  12.274   0.733   3.901 -0.6925 -0.1207  0.0823
45675SOL    HW143886  12.233   0.773   3.977  0.0771  0.8521 -0.0012
45675SOL    HW243887  12.203   0.724   3.837 -1.4391 -1.3074  1.0164
45676SOL     OW43888   0.782   2.223   4.280 -0.2882  0.2927 -0.0276
45676SOL    HW143889   0.713   2.253   4.338 -0.9179  0.9262 -1.0572
45676SOL    HW243890   0.861   2.224   4.333 -1.1273 -0.8883  1.3022
45677SOL     OW43891   6.470   6.797  11.099 -1.1114 -0.2887 -0.1165
45677SOL    HW143892   6.490   6.806  11.006  0.4304  2.5048  0.3715
45677SOL    HW243893   6.392   6.852  11.111 -1.5936 -1.0285  0.1646
45678SOL     OW43894   9.019   4.189   6.615  0.4294  0.2776  0.7326
45678SOL    HW143895   9.017   4.243   6.536  0.4405  1.2275  1.3578
45678SOL    HW243896   9.104   4.208   6.654  0.5740 -0.4672  0.7907
45679SOL     OW43897   5.698   0.879   2.784  0.6927  0.3767 -0.4381
45679SOL    HW143898   5.607   0.875   2.815  0.4366  2.0003 -0.9287
45679SOL    HW243899   5.748   0.902   2.862  0.5317  0.6241 -0.4047
45680SOL     OW43900   1.639   5.164   8.979  0.0812  0.5199  0.3459
45680SOL    HW143901   1.714   5.165   9.038  0.2531 -0.5005  0.1598
45680SOL    HW243902   1.595   5.248   8.995  0.4472  0.5118  1.4881
45681SOL     OW43903  11.393   5.988   8.908 -0.4558  0.7111  0.0182
45681SOL    HW143904  11.385   5.950   8.996  0.1201 -1.5489 -0.8160
45681SOL    HW243905  11.375   5.914   8.849  0.1236  1.9310 -1.7587
45682SOL     OW43906  11.738  10.864  10.172 -0.3772  0.0931  0.1150
45682SOL    HW143907  11.708  10.786  10.218  0.5832 -1.9283 -2.4030
45682SOL    HW243908  11.706  10.853  10.082  1.8799  1.3225 -0.9441
45683SOL     OW43909   5.062   6.950   6.376 -0.4931 -0.5956 -0.2133
45683SOL    HW143910   5.118   6.896   6.432 -0.5675 -2.2386 -1.6424
45683SOL    HW243911   5.059   6.902   6.293 -1.5760  1.0174 -1.1359
45684SOL     OW43912   3.479   3.738   8.661 -0.0514  0.4858 -0.1544
45684SOL    HW143913   3.495   3.788   8.741  0.6853  1.2975 -0.7952
45684SOL    HW243914   3.552   3.676   8.657 -0.6357 -0.2529  0.3192
45685SOL     OW43915  12.073  10.261   9.942  0.4363  0.4820  0.2788
45685SOL    HW143916  12.121  10.183   9.913  0.0828  0.0861  0.7535
45685SOL    HW243917  11.993  10.260   9.889  0.6632  0.8078 -0.0767
45686SOL     OW43918   4.155  10.053   0.294 -0.0981  0.2591 -0.3583
45686SOL    HW143919   4.080   9.994   0.292 -1.5821  1.8880  2.1185
45686SOL    HW243920   4.129  10.128   0.240 -0.2086  0.7280  0.3256
45687SOL     OW43921  12.480   4.945   8.735 -0.5830 -0.2452  0.3270
45687SOL    HW143922  12.470   4.882   8.663 -0.5650 -0.4554  0.5099
45687SOL    HW243923  12.559   4.916   8.781 -0.2091  0.2808  0.0345
45688SOL     OW43924   2.188   1.514   8.972  0.0797  0.1918 -0.1297
45688SOL    HW143925   2.178   1.484   9.062 -2.7692  1.6802  0.1630
45688SOL    HW243926   2.281   1.505   8.954  0.3475 -2.8511  1.9525
45689SOL     OW43927  10.897   1.046  10.297  0.8086 -0.1468 -0.4439
45689SOL    HW143928  10.977   1.073  10.341  0.2274  0.8017  0.0749
45689SOL    HW243929  10.882   0.956  10.326  1.2216 -0.0369  0.1245
45690SOL     OW43930   3.708   5.139  11.975 -0.1490 -0.6603 -0.0860
45690SOL    HW143931   3.773   5.088  11.926 -0.2068 -0.3921 -0.4437
45690SOL    HW243932   3.721   5.229  11.946  0.3813 -0.3594  1.0106
45691SOL     OW43933  10.811   0.659   0.481 -0.6116  0.3938 -0.1318
45691SOL    HW143934  10.902   0.664   0.513 -1.1254  0.2700  1.4739
45691SOL    HW243935  10.806   0.574   0.437  0.1155  0.5116 -0.4493
45692SOL     OW43936   1.302   3.970  10.609 -0.4810 -0.1951 -0.6504
45692SOL    HW143937   1.243   4.020  10.552 -0.5958 -0.3737 -0.6905
45692SOL    HW243938   1.377   3.949  10.553 -0.9389 -1.0237 -0.9648
45693SOL     OW43939   4.645   1.179   0.380  0.1544 -0.9919 -0.6579
45693SOL    HW143940   4.623   1.189   0.473  0.9377 -2.3239 -0.3015
45693SOL    HW243941   4.574   1.126   0.345  0.2288 -1.0983 -0.6493
45694SOL     OW43942   1.981   7.265   0.780 -0.1886  0.5106  0.1514
45694SOL    HW143943   1.999   7.238   0.690 -0.4599  0.3529  0.1435
45694SOL    HW243944   2.060   7.241   0.828  0.5253  1.8760 -0.3040
45695SOL     OW43945   4.821   3.386   1.521 -0.2607  0.6048 -0.1170
45695SOL    HW143946   4.802   3.311   1.578 -1.7458  0.1187 -1.1810
45695SOL    HW243947   4.846   3.346   1.438  0.6351  1.3119 -0.1985
45696SOL     OW43948  11.470   7.755  12.351  0.2915  0.0469 -0.4114
45696SOL    HW143949  11.428   7.684  12.302  0.4078  0.1522 -0.6661
45696SOL    HW243950  11.398   7.805  12.388  0.1642  0.6206 -1.3991
45697SOL     OW43951  10.113   7.389  11.307  0.7095 -0.3469  0.0025
45697SOL    HW143952  10.116   7.402  11.402 -0.2808 -0.4952  0.0629
45697SOL    HW243953  10.144   7.299  11.294 -1.0246 -1.0416  0.3799
45698SOL     OW43954   6.589  12.017   7.802  0.4410  0.1561  0.0253
45698SOL    HW143955   6.495  12.036   7.803  0.1943 -0.9888 -0.3305
45698SOL    HW243956   6.614  12.029   7.710  0.2853 -1.1067 -0.2052
45699SOL     OW43957   5.153   2.445   6.492 -0.3680  0.0941 -0.5465
45699SOL    HW143958   5.192   2.359   6.507  0.2539  0.2594 -1.1298
45699SOL    HW243959   5.124   2.475   6.578 -0.0916 -0.4662 -0.2593
45700SOL     OW43960   5.623   6.058   9.288  0.0659  0.6984 -0.6122
45700SOL    HW143961   5.542   6.073   9.336 -1.2205 -0.3274 -2.3699
45700SOL    HW243962   5.666   5.987   9.336 -1.7062 -1.0497 -1.4550
45701SOL     OW43963   4.786   2.730   2.250  0.1355  0.5099  0.4936
45701SOL    HW143964   4.726   2.775   2.190  0.0035 -0.5648 -0.2049
45701SOL    HW243965   4.787   2.640   2.219  1.3692  0.3039  1.0995
45702SOL     OW43966   2.363   2.419   8.982 -0.6980 -0.0115 -0.0849
45702SOL    HW143967   2.351   2.410   9.076  0.1164 -0.4930 -0.0179
45702SOL    HW243968   2.274   2.425   8.947 -0.9939  1.1115  0.7896
45703SOL     OW43969  11.586   0.530   2.120 -0.4642  0.0424 -0.0545
45703SOL    HW143970  11.550   0.549   2.033  0.4534  1.2327 -0.1961
45703SOL    HW243971  11.555   0.600   2.176  2.3846  1.7660 -0.4236
45704SOL     OW43972   6.711   3.860   0.855  0.0552 -0.4370  0.1486
45704SOL    HW143973   6.735   3.891   0.767  0.1285 -0.0169  0.3141
45704SOL    HW243974   6.627   3.816   0.842 -0.1661  0.0347 -0.0568
45705SOL     OW43975   5.842  11.821   6.208  0.4991 -0.1944 -0.0101
45705SOL    HW143976   5.851  11.737   6.253 -2.8368 -1.7458 -1.8779
45705SOL    HW243977   5.775  11.868   6.257  2.0797  1.3230  0.8019
45706SOL     OW43978   7.491  10.419   3.626  0.2099  0.0509 -0.0728
45706SOL    HW143979   7.444  10.466   3.695  0.2570 -1.8453  1.3194
45706SOL    HW243980   7.453  10.452   3.544 -3.2449 -0.9900  0.9626
45707SOL     OW43981   8.816   0.177   8.941  0.4089 -0.4572 -0.2138
45707SOL    HW143982   8.723   0.191   8.924  0.6625  0.6600 -0.7404
45707SOL    HW243983   8.833   0.227   9.021  1.2764  2.3543 -2.0022
45708SOL     OW43984   7.569   7.219   6.936 -0.0125 -0.1581 -0.6687
45708SOL    HW143985   7.636   7.162   6.973  0.1178  1.5010  1.9348
45708SOL    HW243986   7.501   7.223   7.004 -1.1483  0.8631 -1.8124
45709SOL     OW43987   6.284   8.706   8.566  0.2273 -0.6889  0.1161
45709SOL    HW143988   6.237   8.783   8.597 -1.1110  0.5927 -4.2610
45709SOL    HW243989   6.258   8.636   8.625 -2.8673  1.1589  1.1573
45710SOL     OW43990   1.412   0.015   0.175 -0.0387  0.2172 -0.2622
45710SOL    HW143991   1.495  -0.018   0.142 -0.1244  1.1395 -1.4860
45710SOL    HW243992   1.350   0.001   0.104 -0.6569  0.5995  0.1876
45711SOL     OW43993   9.449  10.028   3.724 -0.5296 -0.7739 -0.1979
45711SOL    HW143994   9.512   9.959   3.744 -0.1223 -0.4822 -0.4616
45711SOL    HW243995   9.364   9.990   3.747 -0.3662 -1.5622 -0.8483
45712SOL     OW43996  10.023   9.060   9.881 -0.3403  0.1246 -0.1796
45712SOL    HW143997  10.081   8.987   9.857 -1.1215 -0.4146 -0.4662
45712SOL    HW243998   9.949   9.052   9.822 -0.0408  1.6945 -0.8274
45713SOL     OW43999   7.533   4.276   5.171  0.0739 -0.5441 -0.6130
45713SOL    HW144000   7.488   4.274   5.087 -2.0099  1.8161  0.3519
45713SOL    HW244001   7.620   4.312   5.151 -0.1653 -0.6024 -1.8149
45714SOL     OW44002   4.656   9.630   8.896 -0.4381 -0.3294 -0.1046
45714SOL    HW144003   4.594   9.657   8.964  0.1598  0.5046  0.1336
45714SOL    HW244004   4.732   9.599   8.944  0.6380  1.7878 -0.3469
45715SOL     OW44005   1.562   5.637   5.689  0.3957  0.0303 -0.2211
45715SOL    HW144006   1.640   5.623   5.742 -0.1865 -0.4544  0.5315
45715SOL    HW244007   1.495   5.582   5.730 -0.0446 -0.4299 -1.5292
45716SOL     OW44008   6.224   4.884   2.372  0.1329 -0.3460 -0.2793
45716SOL    HW144009   6.215   4.977   2.392 -2.3779 -0.6692  0.4570
45716SOL    HW244010   6.188   4.840   2.449  3.1838 -2.0742  0.3472
45717SOL     OW44011  11.463   4.758   2.612  0.0196  0.4144 -0.0750
45717SOL    HW144012  11.406   4.834   2.613 -1.2089 -0.4917  1.0228
45717SOL    HW244013  11.453   4.718   2.698 -1.1816 -2.2940 -1.3387
45718SOL     OW44014   2.305   7.471   1.653 -0.0303  0.1753 -0.0606
45718SOL    HW144015   2.323   7.419   1.732  0.9931  0.7043  0.0774
45718SOL    HW244016   2.375   7.447   1.593  0.5659  1.4897  0.0665
45719SOL     OW44017  11.100   9.490   4.527 -0.2374  0.9490  0.4142
45719SOL    HW144018  11.194   9.474   4.521 -0.1990  1.4284 -0.6222
45719SOL    HW244019  11.068   9.427   4.591  1.1087  2.1655  2.4025
45720SOL     OW44020   2.272   9.981  12.344 -1.1224 -0.3852 -0.1251
45720SOL    HW144021   2.268   9.943  12.432 -2.8343 -1.2032 -0.5154
45720SOL    HW244022   2.365   9.975  12.320 -0.5505  0.1787  1.7264
45721SOL     OW44023  11.662   1.421  12.059  0.0667 -0.2556  0.0228
45721SOL    HW144024  11.734   1.384  12.008 -1.0677 -2.6846  0.0600
45721SOL    HW244025  11.636   1.499  12.010  0.4013 -1.3265 -1.9720
45722SOL     OW44026   9.480  12.248   4.521 -0.7747  0.1057  0.3492
45722SOL    HW144027   9.560  12.299   4.532  0.9411 -1.8829 -1.7988
45722SOL    HW244028   9.411  12.313   4.510  0.7305  1.9059  1.0967
45723SOL     OW44029   2.412   4.828   0.829 -0.2460  0.3446 -0.0933
45723SOL    HW144030   2.409   4.915   0.789  0.7893  0.6139  0.3658
45723SOL    HW244031   2.411   4.767   0.755 -2.0453  0.6809 -0.3955
45724SOL     OW44032   5.995   4.270   6.321  0.3130  0.2550  0.4009
45724SOL    HW144033   6.086   4.299   6.331  0.7050 -0.2943 -1.1696
45724SOL    HW244034   5.980   4.211   6.394  1.5026 -0.2711  0.2438
45725SOL     OW44035   4.672   2.794   1.119  0.3971 -0.0727 -0.1235
45725SOL    HW144036   4.764   2.800   1.091  0.3925  0.0432 -0.1124
45725SOL    HW244037   4.676   2.746   1.202  0.3519 -0.9645 -0.6315
45726SOL     OW44038   5.065   6.803   6.871 -0.4324  0.5144  0.3879
45726SOL    HW144039   5.041   6.886   6.830 -1.2720  0.6601  1.1314
45726SOL    HW244040   5.038   6.813   6.963 -0.5755 -0.5823  0.4802
45727SOL     OW44041   9.367   5.871   6.803  0.8979  0.2491 -0.3785
45727SOL    HW144042   9.331   5.846   6.717 -1.4855  0.0908  0.5918
45727SOL    HW244043   9.370   5.789   6.852  0.6510  0.5921  0.2228
45728SOL     OW44044   2.092   8.844   4.129 -0.1216 -0.1293 -0.2634
45728SOL    HW144045   2.110   8.761   4.174 -1.2355  0.2038  0.8600
45728SOL    HW244046   2.152   8.907   4.169 -0.5212 -0.0154  0.1628
45729SOL     OW44047   5.421   7.987  10.191  0.3619  0.2829 -0.7535
45729SOL    HW144048   5.415   8.045  10.115  0.2041  0.8176 -0.3393
45729SOL    HW244049   5.339   7.937  10.190  1.4306 -1.5827 -2.4005
45730SOL     OW44050  11.614   9.217   4.250  0.1944 -0.3321  0.5062
45730SOL    HW144051  11.617   9.235   4.344  0.2897 -0.2552  0.4885
45730SOL    HW244052  11.543   9.271   4.217 -0.4012 -0.9944  0.6721
45731SOL     OW44053  11.032   4.285   6.467 -0.0053 -0.4358 -0.5459
45731SOL    HW144054  11.105   4.346   6.473 -1.0619  1.1820 -2.9283
45731SOL    HW244055  10.965   4.321   6.526  0.2472 -0.6323 -0.1366
45732SOL     OW44056   2.465  10.323   5.175 -0.1449  0.4014 -0.4638
45732SOL    HW144057   2.475  10.415   5.198 -1.1096  0.3780  0.1268
45732SOL    HW244058   2.376  10.316   5.142 -1.0124 -0.7326  1.8610
45733SOL     OW44059   3.574   3.490   9.337 -0.3429  0.6224  0.1929
45733SOL    HW144060   3.555   3.518   9.248 -0.3174  2.0207  0.6106
45733SOL    HW244061   3.661   3.524   9.356 -1.1599  2.1207  1.4408
45734SOL     OW44062  10.135   4.395   4.711  0.0552  0.6247  0.0456
45734SOL    HW144063  10.223   4.358   4.704  0.2659  1.1375 -0.0529
45734SOL    HW244064  10.117   4.433   4.625  0.0244  1.1456  0.2769
45735SOL     OW44065   2.933  11.423   5.859 -0.8438 -0.7143  0.3156
45735SOL    HW144066   2.995  11.354   5.839 -0.1028 -0.7751  2.5904
45735SOL    HW244067   2.892  11.396   5.941 -2.3157  0.3936 -0.0032
45736SOL     OW44068   2.962  11.045   8.416 -0.3297  0.3441  0.6926
45736SOL    HW144069   2.918  11.108   8.360  0.9723 -0.2746 -1.1105
45736SOL    HW244070   2.930  11.065   8.504  1.0737  4.5234  0.4931
45737SOL     OW44071   5.376  11.057   4.860 -0.1723 -0.3893  0.0359
45737SOL    HW144072   5.470  11.044   4.867 -0.3711 -2.5899 -0.4803
45737SOL    HW244073   5.348  10.994   4.793 -2.2572 -1.2957  1.6257
45738SOL     OW44074  11.240   6.168   7.389 -0.4119 -0.1849  0.0477
45738SOL    HW144075  11.334   6.165   7.407 -0.3474  2.9872  0.8455
45738SOL    HW244076  11.234   6.182   7.294 -0.0070  0.5484  0.1213
45739SOL     OW44077   3.522   8.112   5.236 -0.3425 -0.9613 -0.5415
45739SOL    HW144078   3.572   8.168   5.296  0.4419 -1.4218 -0.7523
45739SOL    HW244079   3.445   8.165   5.214 -0.0521 -0.3131 -0.0595
45740SOL     OW44080   5.429   8.394   4.338 -0.1993  0.0098 -0.1149
45740SOL    HW144081   5.410   8.404   4.245 -1.3035 -1.8364 -0.1365
45740SOL    HW244082   5.523   8.414   4.346 -0.4092  1.6860 -1.3344
45741SOL     OW44083   8.129  11.170   3.188  0.1461  0.0363 -0.1592
45741SOL    HW144084   8.162  11.117   3.116  1.4532  0.5626  0.0240
45741SOL    HW244085   8.201  11.173   3.251 -0.9461 -0.3950  1.1796
45742SOL     OW44086   7.799   3.660   9.594 -0.0895 -0.4934 -0.3275
45742SOL    HW144087   7.845   3.742   9.579  0.7664 -0.8475  0.2643
45742SOL    HW244088   7.717   3.685   9.635  0.3662  0.0457  0.2699
45743SOL     OW44089  10.148   3.614   4.724 -0.3497 -0.2353  0.1102
45743SOL    HW144090  10.219   3.599   4.661 -0.6855  0.0712 -0.3500
45743SOL    HW244091  10.142   3.532   4.773 -0.2727 -0.5801 -0.4513
45744SOL     OW44092   5.220   9.071   3.966 -0.7492  0.3680 -0.3158
45744SOL    HW144093   5.216   9.064   3.871 -2.3903  1.7724 -0.4022
45744SOL    HW244094   5.251   8.986   3.996  1.0059  0.2968 -2.1496
45745SOL     OW44095   7.829   6.467   6.691 -0.0096  0.0369 -0.7588
45745SOL    HW144096   7.886   6.443   6.765 -1.2583 -2.1507 -0.4098
45745SOL    HW244097   7.771   6.534   6.726  0.0139 -0.3231 -0.0094
45746SOL     OW44098   5.212   2.455   4.007 -0.7691  0.3514  0.1211
45746SOL    HW144099   5.182   2.422   4.092 -0.7708 -1.5374 -0.5623
45746SOL    HW244100   5.247   2.542   4.026 -0.9698  0.0650  2.0097
45747SOL     OW44101  11.621   8.289   7.981  0.2325 -0.0268 -0.2074
45747SOL    HW144102  11.547   8.281   8.041  1.5867 -2.2194  1.3420
45747SOL    HW244103  11.630   8.202   7.942  1.6371  0.3397 -0.7886
45748SOL     OW44104   2.693   4.436   6.677 -0.2119 -0.3965  0.4017
45748SOL    HW144105   2.653   4.361   6.719  0.5737 -0.6074  0.7957
45748SOL    HW244106   2.687   4.418   6.583  0.3730 -1.1627  0.5094
45749SOL     OW44107   9.211  10.819   1.024 -0.4292  0.2767 -0.0410
45749SOL    HW144108   9.305  10.815   1.040 -0.1964  4.3865  0.5653
45749SOL    HW244109   9.172  10.822   1.111 -0.8941  1.2688 -0.2756
45750SOL     OW44110  11.547  11.559   6.555 -0.5187  0.2260 -0.0545
45750SOL    HW144111  11.509  11.571   6.468  2.1277 -1.9449 -1.6423
45750SOL    HW244112  11.630  11.606   6.552  1.5697 -3.1201 -0.3065
45751SOL     OW44113   1.726   6.835   1.721 -0.3376 -0.3195  0.3424
45751SOL    HW144114   1.633   6.812   1.724 -0.2132 -0.7570  1.6510
45751SOL    HW244115   1.727   6.930   1.713 -0.9279 -0.2097  1.3569
45752SOL     OW44116  10.307   5.003   2.808  0.2703  0.7353 -0.0525
45752SOL    HW144117  10.315   4.984   2.715  2.9131 -2.4673  0.6453
45752SOL    HW244118  10.397   5.024   2.836 -0.0147 -0.5555  2.1068
45753SOL     OW44119   3.221  11.994  11.999  1.2529 -0.2912 -0.9919
45753SOL    HW144120   3.187  11.904  11.999  1.2075 -0.5418  3.7207
45753SOL    HW244121   3.315  11.984  12.010  1.1341  0.1066  0.7106
45754SOL     OW44122   4.241   1.867   2.332 -0.0935 -0.2514 -0.0076
45754SOL    HW144123   4.210   1.780   2.356  1.8255 -0.8136  0.6270
45754SOL    HW244124   4.288   1.854   2.249 -0.2236  0.2812 -0.1743
45755SOL     OW44125   8.998   3.201   5.952 -0.3014  0.1719 -0.3479
45755SOL    HW144126   9.058   3.192   5.878 -0.6367 -0.2242 -0.5810
45755SOL    HW244127   9.041   3.261   6.012 -0.9340  2.1767 -1.8003
45756SOL     OW44128   9.342   7.881   1.263 -0.4593  0.5522 -0.1136
45756SOL    HW144129   9.324   7.961   1.312  0.4532  0.4385  0.4315
45756SOL    HW244130   9.347   7.813   1.330  2.3237  0.6374 -0.1174
45757SOL     OW44131   8.950   4.551   7.210  0.4266  0.2559  0.3757
45757SOL    HW144132   8.988   4.604   7.279  0.7913 -0.4528  0.7371
45757SOL    HW244133   9.020   4.542   7.145  0.7007 -0.5781  0.7733
45758SOL     OW44134   3.567   1.765   9.455  0.4041 -0.2924 -0.1461
45758SOL    HW144135   3.501   1.699   9.435  0.0773  0.2298 -0.8401
45758SOL    HW244136   3.651   1.723   9.435  0.1382 -0.0981 -1.7933
45759SOL     OW44137   4.405   1.870   6.444  0.2337  0.1441  0.5122
45759SOL    HW144138   4.464   1.911   6.381  0.7378  0.3535  1.1129
45759SOL    HW244139   4.357   1.942   6.484  0.0567  0.0283  0.5114
45760SOL     OW44140   5.747   2.495   2.903 -0.4121  0.4731  0.5191
45760SOL    HW144141   5.760   2.402   2.923 -2.3845 -0.1721 -0.8203
45760SOL    HW244142   5.824   2.520   2.852 -0.5365 -0.8893 -0.3929
45761SOL     OW44143   2.759   7.445   1.489 -0.1396 -0.4040 -0.4396
45761SOL    HW144144   2.852   7.440   1.470  0.1506  0.9694  0.5159
45761SOL    HW244145   2.726   7.516   1.434 -0.0676  0.9268  1.1815
45762SOL     OW44146   5.314   6.058   6.820  0.6501  0.2220  0.4888
45762SOL    HW144147   5.369   5.984   6.794  2.2326  0.8398  1.8950
45762SOL    HW244148   5.371   6.134   6.812 -1.3294  1.6034 -2.2840
45763SOL     OW44149   8.789   1.643  11.271 -0.5081  0.1313  0.3882
45763SOL    HW144150   8.872   1.644  11.318  0.3461  0.0126 -1.0308
45763SOL    HW244151   8.814   1.620  11.181 -1.9958  0.8256 -0.2280
45764SOL     OW44152   5.761   8.728   1.307 -0.1806 -0.5517  0.0967
45764SOL    HW144153   5.667   8.741   1.314 -0.7884 -3.6901 -0.5025
45764SOL    HW244154   5.774   8.634   1.324  2.9085 -0.1512  0.6754
45765SOL     OW44155   6.400  10.429  12.082  0.3580 -0.5712 -0.1719
45765SOL    HW144156   6.353  10.467  12.156 -1.0500 -1.6994 -0.4426
45765SOL    HW244157   6.348  10.454  12.005  0.9535 -0.7162 -0.6345
45766SOL     OW44158   1.358   9.895   3.558  0.2255 -1.0550 -0.6604
45766SOL    HW144159   1.331   9.985   3.574  0.8257 -0.9779 -0.0376
45766SOL    HW244160   1.421   9.876   3.628 -1.4747 -2.6569  0.5633
45767SOL     OW44161   0.266  11.128   4.265  0.2943 -0.4455  0.2264
45767SOL    HW144162   0.358  11.153   4.259  0.7010 -1.5798  1.5401
45767SOL    HW244163   0.247  11.126   4.358 -1.0090 -0.4709 -0.0210
45768SOL     OW44164   5.845  10.057   6.129 -0.3111  0.2902 -0.4739
45768SOL    HW144165   5.820  10.106   6.208 -1.7442 -0.0496 -0.6933
45768SOL    HW244166   5.871  10.125   6.066  0.9650  0.5571  0.3098
45769SOL     OW44167  11.788   7.949  10.191  0.5510 -1.1503  0.3039
45769SOL    HW144168  11.711   7.913  10.146  0.2658 -0.3035  0.0940
45769SOL    HW244169  11.860   7.937  10.128  0.3121 -0.7079 -0.0646
45770SOL     OW44170  10.632  10.864   2.618 -0.1453  0.7146 -0.5768
45770SOL    HW144171  10.670  10.936   2.669  2.7971  1.0246 -2.8756
45770SOL    HW244172  10.583  10.908   2.548  1.0857  0.5363 -1.5867
45771SOL     OW44173   6.641   7.225   9.368 -0.2071 -0.2743 -0.6076
45771SOL    HW144174   6.715   7.210   9.426  0.1407  0.6098 -0.8157
45771SOL    HW244175   6.658   7.309   9.326 -0.5877 -0.7469 -1.7856
45772SOL     OW44176   4.948   8.441   5.949 -0.4322  0.5642  0.0330
45772SOL    HW144177   5.027   8.406   5.989  0.3516 -0.2604 -2.0873
45772SOL    HW244178   4.933   8.524   5.994  1.3350  0.4944  0.8412
45773SOL     OW44179   8.535  11.874   0.547  0.0815 -0.1498 -0.6435
45773SOL    HW144180   8.589  11.808   0.502  1.2369  2.8025 -4.0664
45773SOL    HW244181   8.597  11.925   0.599 -0.1119  0.5739 -1.1063
45774SOL     OW44182   3.214   2.912   1.927 -0.3594  0.0640 -0.3701
45774SOL    HW144183   3.224   2.825   1.967  1.7695  0.6982  0.6579
45774SOL    HW244184   3.169   2.964   1.994  1.5100  0.6217  0.5296
45775SOL     OW44185   7.271   5.045   1.594  0.5088  0.6910  0.2728
45775SOL    HW144186   7.348   5.009   1.637  0.5106 -1.0376 -1.0704
45775SOL    HW244187   7.199   4.989   1.622  0.1476  0.8924 -0.2329
45776SOL     OW44188   1.428   5.550   9.621  0.3462 -0.1558 -0.0006
45776SOL    HW144189   1.409   5.479   9.559  1.2177 -1.6055  1.3146
45776SOL    HW244190   1.521   5.566   9.611  0.6251 -0.8228  1.2988
45777SOL     OW44191   7.891   4.475  11.438 -0.3577 -0.1505  0.0862
45777SOL    HW144192   7.895   4.459  11.532  0.4517  3.5322  0.8391
45777SOL    HW244193   7.977   4.449  11.406  0.1271  0.5035  0.8105
45778SOL     OW44194   5.120   4.273   0.065  0.5863 -0.4914 -0.2643
45778SOL    HW144195   5.197   4.224   0.035  0.0479 -2.1354  0.9289
45778SOL    HW244196   5.071   4.292  -0.015  1.3008 -1.0381 -0.8428
45779SOL     OW44197   5.483   6.409   9.327 -0.1960  0.1916  0.0491
45779SOL    HW144198   5.393   6.415   9.359 -0.2494  0.6386 -0.1745
45779SOL    HW244199   5.475   6.407   9.232  0.0802  1.3562 -0.0084
45780SOL     OW44200   1.848   3.393   1.775  0.3005 -0.4840 -0.0410
45780SOL    HW144201   1.795   3.471   1.759 -1.0961 -1.3078  0.3735
45780SOL    HW244202   1.862   3.392   1.870 -3.5751 -3.0146  0.7305
45781SOL     OW44203   9.173  10.310   4.436 -0.2753  0.4185 -0.0148
45781SOL    HW144204   9.266  10.334   4.439 -0.3063  0.8021 -1.3257
45781SOL    HW244205   9.131  10.369   4.499  0.1096  1.6840 -0.8892
45782SOL     OW44206  11.610   2.448   3.743  0.3340  0.3216 -0.4403
45782SOL    HW144207  11.681   2.452   3.808  1.3684 -1.4402 -1.3890
45782SOL    HW244208  11.655   2.441   3.659 -0.9901  0.6211 -1.1951
45783SOL     OW44209   9.470  10.197   1.138  0.0592  0.3720  0.4357
45783SOL    HW144210   9.402  10.151   1.088 -0.1746 -1.4602  2.3191
45783SOL    HW244211   9.532  10.227   1.071 -1.3621  0.0175 -1.1249
45784SOL     OW44212   7.286   2.580   7.363 -0.1130  0.4102  0.3465
45784SOL    HW144213   7.319   2.493   7.343 -0.8566  0.2185 -0.0869
45784SOL    HW244214   7.271   2.580   7.457 -0.5396 -0.0861  0.2790
45785SOL     OW44215   4.081   4.955   8.406 -0.3384 -0.1122 -0.1002
45785SOL    HW144216   4.161   4.993   8.443  0.1449 -1.5937  0.4545
45785SOL    HW244217   4.074   4.995   8.319  0.2273  1.0813  0.3692
45786SOL     OW44218   7.698   2.151   4.782 -0.6473 -0.0249  0.0082
45786SOL    HW144219   7.784   2.189   4.797 -0.4705 -0.8462  1.2430
45786SOL    HW244220   7.697   2.129   4.689  0.7877 -0.7197  0.1345
45787SOL     OW44221  10.463  10.125   5.532 -0.0296  0.0177 -0.2813
45787SOL    HW144222  10.417  10.209   5.529  0.7049  0.4273 -0.2197
45787SOL    HW244223  10.500  10.115   5.444  0.6683  0.2080 -0.0118
45788SOL     OW44224   1.333   5.414   8.706 -0.3678  0.2913 -0.0241
45788SOL    HW144225   1.281   5.411   8.626 -0.9561  2.2024  0.2292
45788SOL    HW244226   1.423   5.399   8.677 -0.9764 -3.5019 -0.4152
45789SOL     OW44227  12.347   5.347   1.841  0.0075  0.0702 -0.1564
45789SOL    HW144228  12.382   5.419   1.789  1.2949 -1.9490 -2.2635
45789SOL    HW244229  12.277   5.310   1.788 -1.3959  0.3826  1.3949
45790SOL     OW44230   9.462   7.719   7.782 -0.2050  0.1616  0.5551
45790SOL    HW144231   9.529   7.728   7.849  0.7531  0.9435 -0.4693
45790SOL    HW244232   9.432   7.629   7.790  1.3439 -0.3631  0.6989
45791SOL     OW44233   1.968  10.217   6.929  0.4564 -0.2987 -0.0822
45791SOL    HW144234   1.888  10.268   6.916  1.2865  0.8410 -0.8118
45791SOL    HW244235   1.965  10.150   6.860  0.9409  0.8026 -1.2151
45792SOL     OW44236  10.284   8.396   7.419 -0.2761  0.4038 -0.7162
45792SOL    HW144237  10.314   8.324   7.363 -0.1533  0.2172 -0.4148
45792SOL    HW244238  10.342   8.469   7.398 -1.1920  0.8182 -1.9455
45793SOL     OW44239   0.736   5.642   9.862 -0.2884  0.3638 -0.4689
45793SOL    HW144240   0.776   5.556   9.875  0.3945  0.6907 -0.3688
45793SOL    HW244241   0.706   5.642   9.771 -0.1221  0.0853 -0.5233
45794SOL     OW44242  10.775   6.787  11.911  0.3083 -0.3588 -0.2882
45794SOL    HW144243  10.832   6.828  11.977  0.7179 -1.4418  0.0566
45794SOL    HW244244  10.774   6.849  11.838  1.6055 -0.1132 -0.1227
45795SOL     OW44245   1.829   0.616   1.968  0.3785 -0.0904 -0.2490
45795SOL    HW144246   1.844   0.530   1.929 -0.1295 -0.6656  0.7934
45795SOL    HW244247   1.783   0.598   2.050  0.6498  1.1477  0.1960
45796SOL     OW44248   8.098   7.644   2.464  0.4024  0.2560  0.1145
45796SOL    HW144249   8.073   7.587   2.391  1.4487 -0.4456  0.2893
45796SOL    HW244250   8.127   7.725   2.421  1.7969 -0.4462 -0.3241
45797SOL     OW44251   9.818  11.326   6.729 -0.2835  0.3008 -0.0946
45797SOL    HW144252   9.869  11.403   6.704  0.0479  0.1613  0.1454
45797SOL    HW244253   9.735  11.362   6.759 -0.1511  0.5631 -0.0308
45798SOL     OW44254   3.982  10.920  10.530  0.0758  0.2134  0.1637
45798SOL    HW144255   3.978  10.944  10.437 -1.8002 -0.1872  0.0926
45798SOL    HW244256   4.026  10.835  10.531 -0.3034  0.0034 -0.4232
45799SOL     OW44257  12.021   4.210   2.425  0.1611  0.4200 -0.5767
45799SOL    HW144258  12.045   4.284   2.370  2.0063  1.7294  1.8043
45799SOL    HW244259  12.086   4.143   2.406 -1.0546 -0.3920 -2.1617
45800SOL     OW44260   0.210   6.001   1.234  0.3441 -0.0245  0.3522
45800SOL    HW144261   0.265   5.947   1.291 -2.2147 -0.8441  2.2522
45800SOL    HW244262   0.171   6.066   1.293 -0.1455  1.0088 -1.0489
45801SOL     OW44263  11.304   9.925   4.856 -0.2035  0.0610 -0.4666
45801SOL    HW144264  11.368   9.878   4.803  1.4766  1.1469  0.5254
45801SOL    HW244265  11.333   9.911   4.947 -2.3527 -0.8139  0.1699
45802SOL     OW44266   2.480   4.692   6.308  0.4334  0.0299  0.5014
45802SOL    HW144267   2.479   4.618   6.247  0.0658  0.5403 -0.1350
45802SOL    HW244268   2.428   4.662   6.383  2.0320 -1.0991  1.2056
45803SOL     OW44269   4.329   8.715  10.004  0.3419  0.0208 -0.8215
45803SOL    HW144270   4.293   8.765   9.930 -1.5736 -1.3390 -0.9002
45803SOL    HW244271   4.356   8.781  10.067  3.6484  1.3419 -3.2953
45804SOL     OW44272   0.767   8.084   4.589  0.3192  0.2516  0.2763
45804SOL    HW144273   0.805   8.087   4.501 -1.2415  0.6789 -0.4249
45804SOL    HW244274   0.688   8.138   4.583  0.3450  0.5416  2.0411
45805SOL     OW44275  11.831   6.737   0.012 -0.9274  0.3538  0.0100
45805SOL    HW144276  11.882   6.688   0.076  2.1778  1.8259 -1.0664
45805SOL    HW244277  11.762   6.780   0.062  0.3297  0.0858  2.0709
45806SOL     OW44278   2.471  10.101   4.067  0.0891  0.1518 -0.1756
45806SOL    HW144279   2.464  10.027   4.127 -1.2907 -1.7203 -2.4671
45806SOL    HW244280   2.382  10.135   4.060  0.6449  1.8643  0.5594
45807SOL     OW44281  11.918   1.922   7.257  0.1666 -0.5881  0.0062
45807SOL    HW144282  11.962   2.000   7.291 -0.9016  0.8230 -1.7051
45807SOL    HW244283  11.917   1.934   7.162 -1.0249 -2.1568 -0.2148
45808SOL     OW44284   1.944   5.719  11.985 -0.5454  0.1275 -0.3049
45808SOL    HW144285   1.977   5.807  12.004 -1.4449  0.5469 -0.6460
45808SOL    HW244286   1.936   5.716  11.890  0.6524 -0.7666 -0.4038
45809SOL     OW44287   1.207  11.503   2.344 -0.1370  0.3022  0.4582
45809SOL    HW144288   1.134  11.499   2.283  0.8834  2.3870 -1.0391
45809SOL    HW244289   1.285  11.506   2.288  1.0017 -0.0609  1.9474
45810SOL     OW44290   3.975   7.186   6.968  0.5190 -0.5341  0.5758
45810SOL    HW144291   4.058   7.214   7.006  0.7935 -0.2785 -0.1907
45810SOL    HW244292   3.997   7.156   6.880 -0.0705 -1.3130  0.6747
45811SOL     OW44293   4.935   2.124   0.079  0.8080  0.6092  0.1028
45811SOL    HW144294   5.006   2.122   0.144  0.5588 -0.5158  0.3516
45811SOL    HW244295   4.979   2.138  -0.004  1.1638  1.7050  0.4558
45812SOL     OW44296   6.114   7.164   6.121 -0.8342 -0.0445 -0.2091
45812SOL    HW144297   6.168   7.222   6.175 -0.7362 -0.1433 -0.2002
45812SOL    HW244298   6.084   7.219   6.049 -0.8126  0.0398 -0.1536
45813SOL     OW44299   0.785   8.986   6.262  0.0287  0.3717 -0.1712
45813SOL    HW144300   0.835   8.923   6.312  0.1153 -0.6635 -1.5091
45813SOL    HW244301   0.785   8.952   6.172  0.7892  2.6892 -1.1238
45814SOL     OW44302   2.479   7.697   4.569 -0.3696 -0.2251  0.2833
45814SOL    HW144303   2.571   7.677   4.587 -0.1659 -0.1274 -0.5727
45814SOL    HW244304   2.441   7.718   4.654  0.1876 -1.1208  0.7657
45815SOL     OW44305   3.068  11.148   4.185 -0.2436  0.2219 -0.2457
45815SOL    HW144306   3.130  11.076   4.197  0.2243  0.7451  0.5826
45815SOL    HW244307   3.041  11.172   4.274 -1.2896  0.3129 -0.5668
45816SOL     OW44308   5.874   0.882   7.408  0.6963 -0.2912  0.4620
45816SOL    HW144309   5.928   0.927   7.343 -0.5201 -0.8595 -0.9893
45816SOL    HW244310   5.788   0.873   7.367 -0.0513 -0.8883  2.0617
45817SOL     OW44311   7.027   7.473   2.051 -0.2081 -0.3494 -0.5676
45817SOL    HW144312   7.092   7.422   2.099  0.2902  0.4931 -0.3370
45817SOL    HW244313   6.949   7.471   2.106  0.8651  2.0837  1.2282
45818SOL     OW44314   6.772   1.094   4.303  0.0261 -0.7095 -0.5335
45818SOL    HW144315   6.679   1.069   4.309 -0.1703  0.3140  1.6995
45818SOL    HW244316   6.813   1.020   4.258 -1.7293 -1.5961 -0.7908
45819SOL     OW44317  11.514   6.301   4.874 -0.3333  0.0350 -0.1419
45819SOL    HW144318  11.554   6.270   4.793  1.2032 -0.4175  0.7447
45819SOL    HW244319  11.429   6.255   4.878  0.5163 -1.6513 -0.4360
45820SOL     OW44320   2.957  10.743   2.660 -0.0963  0.2080  0.3435
45820SOL    HW144321   3.040  10.696   2.657  0.1453  0.6632 -0.3916
45820SOL    HW244322   2.969  10.808   2.729 -0.6790 -1.2210  1.8523
45821SOL     OW44323   7.717   8.075   4.975  0.1648  0.5667  0.1229
45821SOL    HW144324   7.782   8.009   4.952  0.2351  0.7278 -0.1545
45821SOL    HW244325   7.767   8.157   4.980  0.0271  0.6492  0.1601
45822SOL     OW44326   9.364   4.830   8.009 -0.1153 -0.5223 -1.0560
45822SOL    HW144327   9.442   4.866   8.051  0.6368 -1.7943 -1.3219
45822SOL    HW244328   9.397   4.762   7.950 -1.4617 -1.4180 -0.8178
45823SOL     OW44329   6.029   6.009   4.083 -0.0505 -0.3790 -0.7550
45823SOL    HW144330   6.086   5.965   4.019  0.2910  0.4848 -1.0544
45823SOL    HW244331   6.089   6.041   4.151 -0.3742 -0.9712 -0.1815
45824SOL     OW44332   9.503   8.033   8.401  0.1624 -0.2635  0.4765
45824SOL    HW144333   9.568   7.995   8.342 -0.3502  0.3011 -0.4925
45824SOL    HW244334   9.419   7.999   8.369 -0.4335  2.3521 -1.0757
45825SOL     OW44335   9.657   7.939   6.721 -0.4594  0.5009 -0.0339
45825SOL    HW144336   9.590   8.003   6.696  0.1110  0.7380 -1.0156
45825SOL    HW244337   9.688   7.903   6.638  2.5171  2.3348  0.1362
45826SOL     OW44338   3.032   2.462   8.679  0.0776  0.0611 -0.3129
45826SOL    HW144339   3.046   2.377   8.721 -0.0007 -0.9109 -2.1743
45826SOL    HW244340   3.019   2.442   8.587 -0.1592  2.0939 -0.7725
45827SOL     OW44341   7.867   6.527  11.047 -0.0379 -0.1359  0.5483
45827SOL    HW144342   7.832   6.455  11.100 -1.1819  0.5152  0.7084
45827SOL    HW244343   7.934   6.486  10.992  0.1987 -1.0797  1.5113
45828SOL     OW44344   4.546   6.309   1.337  0.3876 -0.1086 -0.0704
45828SOL    HW144345   4.479   6.342   1.278 -2.0741 -1.4927  1.7328
45828SOL    HW244346   4.578   6.386   1.384 -0.4033  0.5022 -0.5256
45829SOL     OW44347  11.320   8.913  12.356 -0.5515  0.0805 -0.6238
45829SOL    HW144348  11.256   8.906  12.427 -0.1108  0.3961 -0.1879
45829SOL    HW244349  11.268   8.909  12.276 -0.8534 -3.0400 -0.4053
45830SOL     OW44350   4.813  11.635   6.155  0.6749 -0.0027  0.1828
45830SOL    HW144351   4.782  11.669   6.239 -0.1001 -0.5835  0.1418
45830SOL    HW244352   4.825  11.541   6.170  2.4067  0.1871  0.1853
45831SOL     OW44353   0.262   8.829  10.382  0.1336  0.9246  0.2500
45831SOL    HW144354   0.213   8.809  10.303  1.6186  0.4072 -0.5720
45831SOL    HW244355   0.309   8.748  10.403  1.9409  1.8581  0.0298
45832SOL     OW44356   3.572   8.812   5.340 -1.0506 -0.0533  0.0648
45832SOL    HW144357   3.584   8.726   5.300  0.1479  1.1464 -2.3795
45832SOL    HW244358   3.654   8.829   5.387 -0.2947  0.6598 -1.4338
45833SOL     OW44359   5.874   8.618   8.396  0.3526 -0.8064 -0.4679
45833SOL    HW144360   5.936   8.682   8.361  1.7679 -1.9471 -0.1220
45833SOL    HW244361   5.791   8.640   8.352  0.9184  0.8729 -0.7962
45834SOL     OW44362   9.190   6.251   9.902  0.2485  0.0847 -0.2463
45834SOL    HW144363   9.128   6.316   9.934  1.5175  1.3076 -0.1375
45834SOL    HW244364   9.203   6.274   9.809  0.8728  0.1391 -0.1509
45835SOL     OW44365   0.457   7.906   0.851  0.2074  0.0855  0.1628
45835SOL    HW144366   0.420   7.990   0.825 -0.8040  0.0843  1.5287
45835SOL    HW244367   0.506   7.925   0.931 -0.1162 -0.6318  0.5413
45836SOL     OW44368   1.250   9.763   0.590 -0.3865  0.6961  0.0032
45836SOL    HW144369   1.259   9.688   0.649  1.9688 -1.6759 -3.0473
45836SOL    HW244370   1.160   9.792   0.602 -1.5352 -2.7973  1.1843
45837SOL     OW44371  10.470   6.496   9.582  0.0914  0.0068  0.2666
45837SOL    HW144372  10.424   6.417   9.555  0.0617  0.5145 -1.2722
45837SOL    HW244373  10.414   6.535   9.648  0.1010 -1.2383  1.0370
45838SOL     OW44374   2.728   5.119   2.662 -0.1617  0.8999 -0.8402
45838SOL    HW144375   2.814   5.160   2.677 -0.7468  2.7235 -2.0973
45838SOL    HW244376   2.673   5.154   2.732 -0.3219  1.1982 -1.1121
45839SOL     OW44377   8.565   9.365   2.925 -0.3812  0.2191  0.9137
45839SOL    HW144378   8.526   9.436   2.874  0.4093 -0.3405 -0.5251
45839SOL    HW244379   8.635   9.407   2.975  1.3899  0.2226 -1.4100
45840SOL     OW44380   0.923  11.938   1.097 -0.4758  0.0234 -0.5504
45840SOL    HW144381   0.852  11.990   1.057 -1.8026 -1.7619 -0.6397
45840SOL    HW244382   0.998  11.997   1.097 -1.7999  1.8190 -0.9753
45841SOL     OW44383  12.198   0.043   1.591 -0.1110  0.1793 -0.2099
45841SOL    HW144384  12.202  -0.050   1.612  1.7788  0.1375 -0.5043
45841SOL    HW244385  12.198   0.046   1.495  0.0095  0.4759 -0.2023
45842SOL     OW44386   3.565   6.379   9.333  0.1336  0.1333 -0.1850
45842SOL    HW144387   3.620   6.354   9.407  0.3158  0.7795 -0.0949
45842SOL    HW244388   3.556   6.474   9.340 -2.3797 -0.0937  0.7850
45843SOL     OW44389   0.660   2.529   5.636  0.4038 -0.4865  0.3622
45843SOL    HW144390   0.641   2.486   5.553 -0.3813  1.6809 -0.6744
45843SOL    HW244391   0.755   2.525   5.644  0.4256 -1.4050 -0.2490
45844SOL     OW44392   9.943   8.514  10.717 -0.0037 -0.4286 -0.1035
45844SOL    HW144393   9.850   8.534  10.732 -0.0319  0.2429 -1.0904
45844SOL    HW244394   9.960   8.545  10.629  1.5146  0.6939  0.5539
45845SOL     OW44395   5.352   5.677   9.916 -0.0764 -0.3748 -0.1715
45845SOL    HW144396   5.281   5.655   9.855 -0.9627  0.3177  0.6011
45845SOL    HW244397   5.426   5.699   9.859 -0.8204  0.0390 -0.9967
45846SOL     OW44398   8.820   4.631   9.967 -0.5677 -0.0729  0.2153
45846SOL    HW144399   8.797   4.724   9.963  1.2205  0.4069 -0.2942
45846SOL    HW244400   8.816   4.608  10.060 -2.7945 -0.0141  0.1748
45847SOL     OW44401   5.804   5.574   1.421  0.2822 -0.5819  0.4683
45847SOL    HW144402   5.826   5.575   1.328 -0.3771 -1.4785  0.2808
45847SOL    HW244403   5.774   5.663   1.440 -2.6505 -1.1238 -1.0016
45848SOL     OW44404   2.329   4.186  10.702  0.0552 -0.2783  0.0986
45848SOL    HW144405   2.321   4.172  10.796 -1.1297 -3.1827 -0.3548
45848SOL    HW244406   2.253   4.239  10.679  0.4779  0.6502  0.7450
45849SOL     OW44407   2.402   3.560   9.597 -0.2016 -0.2735 -0.2330
45849SOL    HW144408   2.466   3.566   9.526  0.2594 -1.8155  0.0038
45849SOL    HW244409   2.339   3.494   9.566 -0.6638 -0.0790  0.2884
45850SOL     OW44410  11.037   1.787  10.529 -0.5224 -0.1664  0.8912
45850SOL    HW144411  11.068   1.828  10.610 -0.9309 -0.8602  1.4108
45850SOL    HW244412  11.070   1.697  10.533  0.6277  0.1774 -0.3836
45851SOL     OW44413   0.462   6.496   3.966 -0.3180  0.2157 -0.0260
45851SOL    HW144414   0.454   6.580   3.919 -0.8013 -0.1185 -0.5551
45851SOL    HW244415   0.444   6.518   4.057 -0.7391  0.6397 -0.2062
45852SOL     OW44416  10.787  11.037   9.796  0.0580  0.1479 -0.0144
45852SOL    HW144417  10.742  11.108   9.750 -1.0031 -0.5974 -0.1648
45852SOL    HW244418  10.879  11.050   9.776 -0.0703  1.7465  0.3432
45853SOL     OW44419  10.503   5.487   6.585  0.4995  0.2111 -0.6086
45853SOL    HW144420  10.548   5.516   6.664  0.2190  0.8450 -0.6758
45853SOL    HW244421  10.413   5.471   6.612  0.1784  1.3046 -0.9751
45854SOL     OW44422   7.992   4.953   7.814  0.1304 -0.5567  0.3451
45854SOL    HW144423   7.934   4.955   7.890 -1.5338 -1.4714 -0.8356
45854SOL    HW244424   8.071   4.910   7.845  0.7858  1.8247  2.3283
45855SOL     OW44425   5.392   4.641   1.285  0.4296 -0.3734 -0.0216
45855SOL    HW144426   5.305   4.628   1.322  0.4738 -1.1946 -0.1752
45855SOL    HW244427   5.399   4.735   1.272  0.0968 -0.1489  1.2817
45856SOL     OW44428   0.220   0.537   2.104 -0.3451 -0.5718 -0.1999
45856SOL    HW144429   0.238   0.477   2.177 -2.4982 -0.8986  0.1112
45856SOL    HW244430   0.156   0.491   2.050 -0.3920  0.5649 -1.1500
45857SOL     OW44431   7.830   3.673   1.653 -0.0602  0.0458  0.2545
45857SOL    HW144432   7.826   3.577   1.655  0.1912 -0.0066 -1.0034
45857SOL    HW244433   7.887   3.693   1.580  0.0192  1.1706  0.6099
45858SOL     OW44434   4.946   4.825   1.318  0.1272  0.2705  0.0549
45858SOL    HW144435   4.956   4.919   1.335 -0.0911  0.1199  1.1306
45858SOL    HW244436   4.886   4.795   1.387 -1.5121 -0.2855 -1.5383
45859SOL     OW44437   9.062   8.057   6.755  0.3706  0.2029 -0.3369
45859SOL    HW144438   9.001   8.108   6.809  0.3159  0.8941 -1.0250
45859SOL    HW244439   9.095   7.989   6.813 -0.7091  0.0996  0.1857
45860SOL     OW44440   2.542   7.237   4.614 -0.1360  0.3654  0.4433
45860SOL    HW144441   2.534   7.276   4.527 -1.0978 -2.0009 -0.5808
45860SOL    HW244442   2.471   7.174   4.620  2.6059 -2.9859  1.0268
45861SOL     OW44443  10.253   9.721  11.131 -0.3287  0.0716  0.1885
45861SOL    HW144444  10.322   9.656  11.117 -0.3613 -0.4296  1.9968
45861SOL    HW244445  10.240   9.721  11.226 -0.9659  2.0995  0.1435
45862SOL     OW44446  11.900   5.523   7.031 -0.0536  0.4353  0.7266
45862SOL    HW144447  11.857   5.604   7.060 -2.0694 -0.2472 -0.1121
45862SOL    HW244448  11.948   5.549   6.952  0.4976  1.0894  1.2658
45863SOL     OW44449   5.594   0.566   8.266 -0.4626 -0.4247  0.0135
45863SOL    HW144450   5.613   0.560   8.173 -2.1327 -1.2909 -0.3191
45863SOL    HW244451   5.519   0.507   8.279 -1.3131  0.9082  1.5858
45864SOL     OW44452  12.349   7.600   4.062  0.6457 -0.5601  0.0740
45864SOL    HW144453  12.417   7.547   4.020 -0.3940 -1.7769 -0.1245
45864SOL    HW244454  12.276   7.599   4.001 -0.5529 -1.5784  1.4502
45865SOL     OW44455   4.160   9.426   8.530 -0.1667 -0.3389 -0.0505
45865SOL    HW144456   4.214   9.439   8.608  1.0804  0.9783 -1.0660
45865SOL    HW244457   4.188   9.341   8.496 -0.5835 -0.8327  0.8148
45866SOL     OW44458   0.934   3.923   6.692 -0.5011  0.5038 -0.0619
45866SOL    HW144459   0.991   3.858   6.733  0.5160  0.7045 -1.0916
45866SOL    HW244460   0.882   3.874   6.629 -0.9390  0.4381  0.3459
45867SOL     OW44461   5.394   3.577   8.793 -0.0055  0.6458  0.4012
45867SOL    HW144462   5.476   3.540   8.760  1.4966  2.1872  2.1723
45867SOL    HW244463   5.418   3.621   8.874 -2.0977  3.3132 -0.2534
45868SOL     OW44464   4.602   8.551   3.781  0.1750  0.5048 -0.3278
45868SOL    HW144465   4.652   8.548   3.700 -0.2668  2.9325 -0.7536
45868SOL    HW244466   4.516   8.584   3.755 -1.3133 -2.2403  0.5974
45869SOL     OW44467   9.188   2.443   3.746  0.1734  0.1788  0.0370
45869SOL    HW144468   9.259   2.381   3.758 -0.5006 -0.4627  0.8071
45869SOL    HW244469   9.151   2.455   3.834 -0.5592  0.6251 -0.3210
45870SOL     OW44470   7.471   7.012   4.546  0.3613 -0.4732 -0.6931
45870SOL    HW144471   7.431   7.099   4.549  1.1293 -0.1238  0.4723
45870SOL    HW244472   7.546   7.022   4.487 -0.2542 -0.6786 -1.5235
45871SOL     OW44473   7.949   8.392   5.290  0.1955 -0.5853 -0.7067
45871SOL    HW144474   7.866   8.361   5.325  0.4024 -0.8937 -0.4906
45871SOL    HW244475   8.010   8.386   5.363  0.3787 -0.2331 -0.8261
45872SOL     OW44476   6.201   9.392   9.145 -0.3475  0.3907  0.2416
45872SOL    HW144477   6.202   9.314   9.201 -2.0657  0.2698  0.1398
45872SOL    HW244478   6.188   9.465   9.206  0.0062  0.4887  0.2051
45873SOL     OW44479   7.665   1.106   0.954 -0.4175  0.2921 -0.6084
45873SOL    HW144480   7.646   1.123   1.046 -0.3913 -1.2701 -0.2833
45873SOL    HW244481   7.647   1.013   0.943 -0.1596  0.4031 -2.1244
45874SOL     OW44482   1.307   9.641   8.089 -0.0560  0.2858 -0.3953
45874SOL    HW144483   1.332   9.557   8.127 -1.4448  1.2949  3.1821
45874SOL    HW244484   1.390   9.687   8.078  0.5800 -0.8679 -0.6229
45875SOL     OW44485   9.374   0.419  11.044  0.6019 -0.0486  0.6362
45875SOL    HW144486   9.438   0.458  11.103  0.9060  0.5970 -0.1063
45875SOL    HW244487   9.314   0.371  11.101 -0.3306  2.2222  1.6671
45876SOL     OW44488   7.831   1.711  12.240  0.7352 -0.2208 -0.1165
45876SOL    HW144489   7.782   1.749  12.313  1.6485  0.5720  0.1073
45876SOL    HW244490   7.866   1.629  12.275  2.3568  0.8228  0.8498
45877SOL     OW44491   0.643   3.246   3.477 -0.2747 -0.3614 -0.3357
45877SOL    HW144492   0.630   3.327   3.526 -1.2688 -1.3818  1.2001
45877SOL    HW244493   0.655   3.274   3.386 -2.2559  1.4094 -0.1186
45878SOL     OW44494   1.135   4.345   2.115 -0.3026 -0.2599  0.3725
45878SOL    HW144495   1.156   4.253   2.131  1.9421 -0.0916 -1.0907
45878SOL    HW244496   1.057   4.343   2.060  0.5482 -1.3650 -0.8351
45879SOL     OW44497   9.928  10.629   0.614  0.2131 -0.4219  0.1009
45879SOL    HW144498   9.886  10.553   0.656 -1.4324 -0.4371 -1.4618
45879SOL    HW244499  10.009  10.642   0.663  0.8321 -3.5334  0.0678
45880SOL     OW44500   3.328   8.205   6.050  0.4781  0.1037 -0.0836
45880SOL    HW144501   3.350   8.211   6.143  0.9191 -1.9578  0.0050
45880SOL    HW244502   3.316   8.111   6.034 -2.3789  0.5895 -1.5057
45881SOL     OW44503   9.110   8.045  10.410  0.0289  0.0859  0.3848
45881SOL    HW144504   9.131   8.136  10.387 -0.8031 -0.0069 -0.8075
45881SOL    HW244505   9.177   8.021  10.475 -0.0549  1.7101  1.1247
45882SOL     OW44506   7.960   4.436   2.524 -0.0104 -0.3680  0.2207
45882SOL    HW144507   7.977   4.404   2.612 -3.0036  0.0769  1.0572
45882SOL    HW244508   7.945   4.357   2.472 -0.5246 -0.5603  0.6572
45883SOL     OW44509   2.054   3.414   2.047  0.0461 -0.0812  0.1203
45883SOL    HW144510   2.096   3.329   2.061 -1.4875 -1.2926 -2.0027
45883SOL    HW244511   2.124   3.478   2.061  1.4335 -1.7140  1.0595
45884SOL     OW44512  11.468   4.676   8.777 -0.8068 -0.2476 -0.3204
45884SOL    HW144513  11.414   4.658   8.700 -0.6815  1.9954 -1.0190
45884SOL    HW244514  11.548   4.716   8.741  0.3550 -1.4429  0.8381
45885SOL     OW44515   8.705  10.788   9.881  0.4315  0.2406  0.1252
45885SOL    HW144516   8.723  10.694   9.882 -0.5074  0.0522  1.6484
45885SOL    HW244517   8.776  10.827   9.932  1.0749  0.4362 -0.8855
45886SOL     OW44518   6.112   6.717   2.829 -0.1203  0.1139  0.0310
45886SOL    HW144519   6.182   6.780   2.845 -0.8916  1.0546 -0.2711
45886SOL    HW244520   6.117   6.699   2.735 -0.6514  0.6137 -0.0908
45887SOL     OW44521   9.557   4.308   6.644 -0.2401  0.7348 -0.0271
45887SOL    HW144522   9.597   4.349   6.720 -2.6296  2.0654  0.6236
45887SOL    HW244523   9.547   4.379   6.580  1.2864 -0.2581 -1.4664
45888SOL     OW44524   4.954   4.545  10.063  0.4156  0.5444 -0.3150
45888SOL    HW144525   4.983   4.552  10.154 -1.1922 -1.3277  0.4143
45888SOL    HW244526   4.898   4.621  10.050  2.1072  1.8460 -0.3950
45889SOL     OW44527  10.714   4.769  10.511 -0.1604 -0.5335  0.2882
45889SOL    HW144528  10.731   4.691  10.458 -0.2764 -0.7322  0.5442
45889SOL    HW244529  10.746   4.747  10.598 -1.4958 -0.8327  0.7288
45890SOL     OW44530   5.830  11.353   3.902  0.1640  0.0901  0.4597
45890SOL    HW144531   5.824  11.404   3.983  2.2985  0.2121  0.5861
45890SOL    HW244532   5.822  11.419   3.833  1.1134  0.3720  0.6083
45891SOL     OW44533   7.841  11.852   8.452  1.0002 -0.1436 -0.4272
45891SOL    HW144534   7.881  11.922   8.401  1.4190 -0.7615 -0.9745
45891SOL    HW244535   7.761  11.890   8.488  0.8332  0.3801 -1.3380
45892SOL     OW44536   4.583   1.192   1.846  0.0706 -0.3762 -0.8889
45892SOL    HW144537   4.644   1.199   1.772  0.1680  1.4892 -0.6849
45892SOL    HW244538   4.623   1.246   1.914 -1.8589  1.0240 -0.8028
45893SOL     OW44539  11.268   5.477   8.181  0.3086 -0.0719 -0.2052
45893SOL    HW144540  11.321   5.422   8.123  3.4293  2.1390  0.2680
45893SOL    HW244541  11.240   5.419   8.251  0.4698 -1.7630 -1.4682
45894SOL     OW44542   6.186  12.020   4.122  0.1734  0.0424 -0.7988
45894SOL    HW144543   6.274  12.022   4.159  0.0309  0.8873 -0.4685
45894SOL    HW244544   6.153  11.932   4.142 -0.5689  0.9613  2.8151
45895SOL     OW44545   3.267   5.050   8.280  0.4344  0.0462 -0.0655
45895SOL    HW144546   3.309   5.020   8.360 -1.4939 -0.6238  0.7603
45895SOL    HW244547   3.308   5.135   8.261  0.7394  0.3556  1.7885
45896SOL     OW44548   7.889   9.472  11.883 -0.0194 -0.1239 -0.2011
45896SOL    HW144549   7.901   9.476  11.789 -1.9863 -1.7012 -0.6000
45896SOL    HW244550   7.828   9.543  11.903 -0.2434 -0.2909 -0.2759
45897SOL     OW44551   7.127  11.282   5.919 -0.6603  0.1006 -0.2685
45897SOL    HW144552   7.164  11.238   5.996  0.5617 -0.0273 -0.9170
45897SOL    HW244553   7.200  11.289   5.858 -0.1067  5.0087  0.5678
45898SOL     OW44554   4.598   9.614   2.246 -0.1211  0.4905 -0.4562
45898SOL    HW144555   4.682   9.660   2.236 -0.2272  0.6316 -0.7092
45898SOL    HW244556   4.581   9.577   2.159 -0.7098  1.1277 -0.6172
45899SOL     OW44557  11.344   6.748   6.276 -0.1018 -0.2060 -0.1164
45899SOL    HW144558  11.307   6.836   6.267  1.6093  0.6495  0.5667
45899SOL    HW244559  11.378   6.727   6.189 -0.7977 -0.3252 -0.3590
45900SOL     OW44560   8.522  11.999  11.212 -0.4290  0.0483 -0.3140
45900SOL    HW144561   8.455  11.962  11.270  1.0187 -2.3504 -0.0317
45900SOL    HW244562   8.497  11.968  11.125  0.2728 -0.8543 -0.2073
45901SOL     OW44563   3.238   3.446   5.851 -0.0067  0.4482 -0.1876
45901SOL    HW144564   3.324   3.426   5.887 -0.3645 -0.8088  0.0203
45901SOL    HW244565   3.186   3.471   5.928 -0.9891 -2.9865  0.4449
45902SOL     OW44566   0.565  10.263   5.803  0.0660 -0.2381  0.6481
45902SOL    HW144567   0.612  10.279   5.721  0.3187 -0.4548  0.7495
45902SOL    HW244568   0.495  10.329   5.804  0.7329  0.4682  0.7848
45903SOL     OW44569   4.677   5.253   7.184  0.2420  0.2560 -0.0102
45903SOL    HW144570   4.677   5.218   7.095 -0.3274 -0.8448  0.4114
45903SOL    HW244571   4.645   5.343   7.173  0.7721  0.3387 -0.9865
45904SOL     OW44572   6.651   8.755  11.788 -0.3680  0.4389 -0.0333
45904SOL    HW144573   6.697   8.682  11.746  1.0115  1.4856 -0.4050
45904SOL    HW244574   6.562   8.721  11.804  0.8865 -2.2289  2.1653
45905SOL     OW44575   9.865   1.358   8.354 -0.1723  1.3045  0.6356
45905SOL    HW144576   9.932   1.329   8.416 -0.9686 -0.1893  0.8354
45905SOL    HW244577   9.831   1.439   8.391 -0.2121  0.7509  1.8314
45906SOL     OW44578   5.885   3.977   9.560  0.0820 -0.0183 -0.4006
45906SOL    HW144579   5.877   3.913   9.631  0.4489  1.0624  0.6632
45906SOL    HW244580   5.803   4.028   9.566 -0.0618 -0.1752 -1.0188
45907SOL     OW44581   4.130   4.072   6.053 -0.4925 -0.2672 -0.0509
45907SOL    HW144582   4.073   3.996   6.039  0.3749 -0.7682 -1.0174
45907SOL    HW244583   4.116   4.128   5.976 -1.2104  0.6311  0.7102
45908SOL     OW44584   7.821   1.197   3.615 -0.3321 -0.4526  0.3865
45908SOL    HW144585   7.754   1.182   3.681  0.7461  0.2790  1.6928
45908SOL    HW244586   7.897   1.148   3.647 -0.4956 -2.1172 -1.5799
45909SOL     OW44587   3.593   7.949   2.413 -0.6394 -0.2776  0.4181
45909SOL    HW144588   3.565   7.954   2.504  1.4769  2.2489  1.0478
45909SOL    HW244589   3.534   8.008   2.366 -0.4211  0.0373  0.5399
45910SOL     OW44590   6.871  11.117   5.578  0.0545 -0.0779  0.2986
45910SOL    HW144591   6.868  11.021   5.573  0.2615 -0.1055  0.6728
45910SOL    HW244592   6.861  11.136   5.671  0.8810  0.2283  0.3360
45911SOL     OW44593   6.756   8.057   4.167 -0.1160  0.6127 -0.2255
45911SOL    HW144594   6.717   8.113   4.101 -1.1093 -0.2824 -0.4219
45911SOL    HW244595   6.824   8.111   4.208  3.7801 -0.0201 -4.8781
45912SOL     OW44596   8.122  11.978  11.279 -0.5054  0.1574  0.1509
45912SOL    HW144597   8.201  11.935  11.245 -0.9385 -0.1332 -0.5083
45912SOL    HW244598   8.065  11.986  11.203 -0.9647  0.7107  0.5459
45913SOL     OW44599   6.442   1.633  10.496 -0.0940  0.2399  0.8965
45913SOL    HW144600   6.504   1.646  10.425 -1.8677 -0.2512 -0.8260
45913SOL    HW244601   6.480   1.562  10.548  2.3928  2.1604  1.9069
45914SOL     OW44602  11.954   3.935   9.860  0.2393  0.7226  0.2795
45914SOL    HW144603  12.020   3.886   9.812 -1.7648 -0.8675 -1.0110
45914SOL    HW244604  12.003   4.004   9.905  2.4367  1.5484 -3.0142
45915SOL     OW44605  10.164   9.899   3.209  0.4443  0.2651  0.4942
45915SOL    HW144606  10.124   9.976   3.169  0.4707 -0.3909 -0.8681
45915SOL    HW244607  10.240   9.933   3.256  1.0339  0.9774 -0.9237
45916SOL     OW44608   7.304   1.393   0.820  0.5691 -0.0864  0.4476
45916SOL    HW144609   7.217   1.359   0.802  0.7129  0.9048 -2.6548
45916SOL    HW244610   7.363   1.336   0.770  1.4155  0.9090  0.2739
45917SOL     OW44611   5.336  11.673   8.317 -0.1030  0.1565  0.1248
45917SOL    HW144612   5.347  11.667   8.412 -0.8949  2.4750  0.4189
45917SOL    HW244613   5.263  11.614   8.297  0.0898 -0.3663  0.9235
45918SOL     OW44614   7.409   0.591  10.436 -0.2437 -0.0187 -0.5648
45918SOL    HW144615   7.375   0.596  10.526 -0.1910 -0.3008 -0.5282
45918SOL    HW244616   7.394   0.500  10.410 -0.0212 -0.0040 -0.7485
45919SOL     OW44617   7.447  11.517   8.416  0.0041  0.0622 -0.1506
45919SOL    HW144618   7.375  11.580   8.419 -0.8765 -0.9479  1.3839
45919SOL    HW244619   7.504  11.549   8.346 -0.3461  2.6205  0.6360
45920SOL     OW44620  12.028   1.557  10.208 -0.0835  0.1393 -0.1307
45920SOL    HW144621  12.087   1.527  10.139  0.2604 -1.2929  0.7522
45920SOL    HW244622  12.037   1.492  10.277  0.1820  1.9535  1.6182
45921SOL     OW44623   0.467   9.092   0.280 -0.0803 -0.1729  0.6411
45921SOL    HW144624   0.521   9.169   0.262  0.2314 -0.1639  1.5512
45921SOL    HW244625   0.502   9.023   0.224  4.4688 -1.7795  4.7095
45922SOL     OW44626   9.462   2.553   1.465  0.1729 -0.2465 -0.3316
45922SOL    HW144627   9.512   2.473   1.484  0.6348  0.0053 -0.4501
45922SOL    HW244628   9.450   2.595   1.550 -0.7997 -0.8523 -0.1583
45923SOL     OW44629   1.233   5.575   2.755 -0.1341 -0.0391 -0.1854
45923SOL    HW144630   1.286   5.524   2.816 -2.5392 -0.6228  1.5740
45923SOL    HW244631   1.155   5.521   2.739 -1.1286  1.5755 -1.1041
45924SOL     OW44632   9.579   3.026  11.842 -0.3089  0.1243 -0.0579
45924SOL    HW144633   9.640   3.028  11.916  2.3607 -3.3184 -1.8686
45924SOL    HW244634   9.615   3.089  11.780 -0.0092 -0.1046 -0.1205
45925SOL     OW44635   5.962  11.085  11.446 -0.1945 -0.0928 -0.2887
45925SOL    HW144636   5.943  11.164  11.396  0.3560 -0.4624 -1.1236
45925SOL    HW244637   5.891  11.078  11.509 -0.3588  0.9522 -0.3412
45926SOL     OW44638   2.590   6.699   0.963  0.4848  0.4482 -0.1169
45926SOL    HW144639   2.503   6.678   0.998  1.2991 -2.0037  0.6212
45926SOL    HW244640   2.578   6.702   0.868 -0.2380 -0.7578 -0.0758
45927SOL     OW44641   5.621   0.555   1.030 -0.1010  0.1628  0.1768
45927SOL    HW144642   5.544   0.589   0.984 -0.3117 -0.1111  0.3227
45927SOL    HW244643   5.674   0.514   0.961  0.5724  1.5123 -0.1397
45928SOL     OW44644   0.709   5.302  11.901  0.3053 -0.1631 -0.3578
45928SOL    HW144645   0.616   5.319  11.918  0.5812  0.8455  0.2277
45928SOL    HW244646   0.716   5.206  11.900 -1.3205 -0.3724 -3.8402
45929SOL     OW44647   9.571   8.495   2.002 -0.0303 -0.0269  0.3788
45929SOL    HW144648   9.616   8.413   2.022 -0.4325  0.0475  1.6963
45929SOL    HW244649   9.614   8.560   2.057 -1.7730  0.0262  1.7650
45930SOL     OW44650  10.818   1.302  10.290 -0.1597 -0.6523  0.1182
45930SOL    HW144651  10.865   1.219  10.304 -2.1509 -1.8830 -0.0547
45930SOL    HW244652  10.847   1.332  10.204 -0.6587 -2.0891 -0.5898
45931SOL     OW44653   5.615  10.465   6.298  0.4478 -0.5878  0.5796
45931SOL    HW144654   5.660  10.542   6.333 -1.3214  1.1670 -0.7928
45931SOL    HW244655   5.654  10.454   6.210 -1.5394  0.8759 -0.5733
45932SOL     OW44656   4.966   9.867   9.266  0.2140  0.5273  0.4237
45932SOL    HW144657   4.956   9.948   9.315  1.3078  0.4835  0.7444
45932SOL    HW244658   4.980   9.895   9.176  0.3126  0.6804  0.4872
45933SOL     OW44659   4.327  10.979   1.440 -0.4975 -0.4786  0.3754
45933SOL    HW144660   4.354  11.034   1.513 -1.0239  0.0103  0.2083
45933SOL    HW244661   4.231  10.984   1.439 -0.4574  0.6584 -1.1915
45934SOL     OW44662   9.863  10.207   1.673  0.0900  0.3525 -0.3366
45934SOL    HW144663   9.946  10.228   1.717  0.0674 -1.3734  0.5769
45934SOL    HW244664   9.800  10.195   1.744 -0.2316 -1.2723 -0.8691
45935SOL     OW44665   6.696  10.533   1.458 -0.3766 -0.2617  0.0445
45935SOL    HW144666   6.676  10.562   1.369  1.1085  1.4081  0.2082
45935SOL    HW244667   6.714  10.613   1.506 -0.7422 -1.1620  1.7759
45936SOL     OW44668   0.927   2.157   1.026  0.2832  0.5587 -0.6870
45936SOL    HW144669   0.860   2.138   0.959 -0.1657 -1.9858  0.3589
45936SOL    HW244670   1.001   2.101   1.001  0.4160  0.2153  0.4498
45937SOL     OW44671   0.097   7.113  11.808 -1.0780 -0.0707  0.0031
45937SOL    HW144672   0.110   7.027  11.769  2.0870 -1.0178  2.6673
45937SOL    HW244673   0.020   7.102  11.865 -0.9002 -1.0556  0.0721
45938SOL     OW44674  12.087  11.537   1.564  0.4974 -0.0306  0.2198
45938SOL    HW144675  12.170  11.520   1.608  0.9391  0.1467 -0.5217
45938SOL    HW244676  12.023  11.549   1.635  1.5193  1.9738  0.8740
45939SOL     OW44677  11.355   3.387   8.624 -0.3150  0.2255  0.1758
45939SOL    HW144678  11.272   3.411   8.585 -0.7191  0.4626  1.1566
45939SOL    HW244679  11.332   3.328   8.696  0.3134  0.7023  0.7845
45940SOL     OW44680   8.354   1.613   6.028  0.3620  0.4889  0.0056
45940SOL    HW144681   8.290   1.684   6.039  0.9687  1.1836 -0.8488
45940SOL    HW244682   8.327   1.568   5.949  0.6774  0.5301 -0.1292
45941SOL     OW44683  11.305   3.423   7.507  0.0090 -0.6956 -0.0104
45941SOL    HW144684  11.343   3.339   7.532 -0.4179 -0.4726  1.4623
45941SOL    HW244685  11.319   3.480   7.583 -2.7502 -0.4385  0.3992
45942SOL     OW44686   9.437   0.487   3.204 -0.4131  0.1959  0.1947
45942SOL    HW144687   9.387   0.459   3.280 -0.3043 -1.3566 -0.2819
45942SOL    HW244688   9.500   0.416   3.188  0.8645  1.3616 -0.1944
45943SOL     OW44689   4.992   9.442   9.895 -0.6427  0.3086 -0.0541
45943SOL    HW144690   4.978   9.388   9.817  0.1144  1.1000 -0.7624
45943SOL    HW244691   5.083   9.425   9.920 -0.5955  0.7653  0.0963
45944SOL     OW44692   2.170   2.073   2.650 -0.6301 -0.0816 -0.0262
45944SOL    HW144693   2.175   2.087   2.556 -0.2670 -1.5465 -0.2598
45944SOL    HW244694   2.258   2.091   2.683 -0.6796  0.1383 -0.0158
45945SOL     OW44695   4.416   7.279   4.243  0.4180  0.6468 -0.3159
45945SOL    HW144696   4.490   7.228   4.275 -0.4213 -0.7302 -0.4772
45945SOL    HW244697   4.388   7.234   4.163  0.2137  1.9114 -0.9887
45946SOL     OW44698   4.552   0.409   2.533  0.0507 -0.1031  0.2411
45946SOL    HW144699   4.592   0.462   2.464 -0.2098 -0.6179 -0.3213
45946SOL    HW244700   4.601   0.431   2.612  1.7278 -0.9888 -0.4946
45947SOL     OW44701   9.527   3.199   3.578  0.6792  0.2715  0.5254
45947SOL    HW144702   9.501   3.107   3.582  1.2013  0.0437 -0.8348
45947SOL    HW244703   9.454   3.246   3.619 -0.4963 -0.6018 -0.4821
45948SOL     OW44704   4.291   4.310  11.662 -0.1962  0.2703 -0.0105
45948SOL    HW144705   4.333   4.382  11.709 -0.6101  0.5074 -0.0002
45948SOL    HW244706   4.240   4.352  11.593 -1.7396  0.1146  0.9891
45949SOL     OW44707   9.924   3.823   7.672  0.5197  0.7436  0.3743
45949SOL    HW144708   9.978   3.748   7.698 -1.3585 -0.6699  0.4241
45949SOL    HW244709   9.983   3.898   7.678  2.3373 -0.6446  0.8395
45950SOL     OW44710   6.447   7.699   2.773 -0.2639 -0.1287 -0.1981
45950SOL    HW144711   6.419   7.762   2.707 -0.1024 -1.6640 -1.7986
45950SOL    HW244712   6.432   7.614   2.733 -0.3661 -1.1359  1.8542
45951SOL     OW44713   5.867   1.351   3.837  0.5002 -0.2749  0.0821
45951SOL    HW144714   5.887   1.393   3.920 -0.5655 -0.5615  0.5042
45951SOL    HW244715   5.802   1.408   3.796 -0.2012 -0.9663  0.2025
45952SOL     OW44716   6.137   7.578   5.954  0.1015  0.1912 -0.1969
45952SOL    HW144717   6.148   7.621   5.869 -0.2149  1.4417  0.3770
45952SOL    HW244718   6.166   7.643   6.018 -0.6602 -0.3450  0.7211
45953SOL     OW44719   0.973   8.134   2.172 -0.4691 -0.2445 -0.3408
45953SOL    HW144720   0.986   8.229   2.179  2.2375 -0.5955  0.8025
45953SOL    HW244721   0.987   8.115   2.080 -1.0378  0.4715 -0.5812
45954SOL     OW44722  10.847   3.596  10.382  0.3141  0.2742 -0.3336
45954SOL    HW144723  10.805   3.512  10.404 -0.7816  0.6796 -0.7913
45954SOL    HW244724  10.939   3.574  10.369  0.0085 -0.9050 -0.6634
45955SOL     OW44725  11.446   6.713   7.225  0.4907 -0.2597  0.0872
45955SOL    HW144726  11.401   6.766   7.160 -0.6465 -1.8088 -0.4468
45955SOL    HW244727  11.420   6.752   7.309  1.7940  1.6107 -0.3043
45956SOL     OW44728   4.114   0.266   9.158 -0.1866 -0.8205 -0.3209
45956SOL    HW144729   4.097   0.172   9.157 -0.5530 -0.8256  1.5217
45956SOL    HW244730   4.185   0.277   9.221  0.4898  0.0617 -1.2085
45957SOL     OW44731   5.534   8.511   1.885 -0.1928  0.1985  0.3150
45957SOL    HW144732   5.581   8.474   1.960 -2.5108 -1.7056  0.9504
45957SOL    HW244733   5.520   8.437   1.826 -0.9385  1.0629 -0.6236
45958SOL     OW44734   2.147   0.106   3.245 -0.5223  0.3710  0.2039
45958SOL    HW144735   2.220   0.044   3.252 -1.9092 -1.2893  0.8996
45958SOL    HW244736   2.178   0.185   3.289  1.3508  0.2414 -0.7882
45959SOL     OW44737   8.332   3.941   4.794  0.1245 -0.0047 -0.3124
45959SOL    HW144738   8.343   3.868   4.733  3.0685 -0.3231  0.4187
45959SOL    HW244739   8.360   3.906   4.879  2.3297  2.0503 -0.0740
45960SOL     OW44740   9.562   2.340   5.343  0.2123  0.0904  0.1283
45960SOL    HW144741   9.518   2.392   5.276  2.5438  0.0330 -1.5822
45960SOL    HW244742   9.511   2.259   5.349 -0.7120  0.5914 -0.7056
45961SOL     OW44743   6.169   9.163   7.696 -0.1496  0.2957 -0.2697
45961SOL    HW144744   6.170   9.080   7.744 -1.3670 -0.2398 -1.1143
45961SOL    HW244745   6.217   9.145   7.616  0.7913  0.8234  0.1663
45962SOL     OW44746   7.767   2.024   2.308  0.1214 -0.4537 -0.5452
45962SOL    HW144747   7.841   2.038   2.367  0.3932 -0.9435 -0.7650
45962SOL    HW244748   7.707   1.968   2.358 -1.9147  2.8872  1.1340
45963SOL     OW44749  10.000   9.457   1.211  0.4036  0.1522 -0.0950
45963SOL    HW144750   9.944   9.441   1.288 -0.7497  0.6542 -0.8014
45963SOL    HW244751   9.966   9.538   1.174  1.3952  0.2785 -0.7535
45964SOL     OW44752   5.940  11.022   9.569 -0.3659  0.2111  0.4167
45964SOL    HW144753   5.916  11.034   9.661 -0.5389  2.1976  0.1588
45964SOL    HW244754   5.999  11.095   9.550 -1.9485  1.0910 -1.5489
45965SOL     OW44755  12.136   6.583   4.851 -0.1114 -0.2689  0.7638
45965SOL    HW144756  12.184   6.500   4.847 -0.1984 -0.3029  0.3554
45965SOL    HW244757  12.190   6.644   4.800 -0.2076 -0.1582  0.7965
45966SOL     OW44758   3.953   5.079   3.707  0.3887 -0.6518 -0.1966
45966SOL    HW144759   3.904   5.160   3.698  0.4964 -0.4414  0.9188
45966SOL    HW244760   4.000   5.070   3.625 -1.1928 -0.6535 -1.1477
45967SOL     OW44761   6.764   1.757   5.579 -0.3708 -0.0293  0.2518
45967SOL    HW144762   6.832   1.720   5.636 -1.1899  1.0304  2.0060
45967SOL    HW244763   6.790   1.848   5.566 -0.0156 -0.3343 -1.4274
45968SOL     OW44764   7.868   6.121   2.727  0.3536 -0.0256 -0.7909
45968SOL    HW144765   7.783   6.084   2.705 -0.8069  1.2680  1.1646
45968SOL    HW244766   7.926   6.045   2.736 -1.0033 -1.0712 -0.5928
45969SOL     OW44767   2.020   6.590  10.742 -0.1300  0.0564  0.2992
45969SOL    HW144768   1.975   6.634  10.814 -0.9702 -0.3677  0.0459
45969SOL    HW244769   2.080   6.656  10.707 -1.5673  1.1258 -0.2591
45970SOL     OW44770   8.455   5.676   8.351  0.5064 -0.4460 -0.2202
45970SOL    HW144771   8.463   5.751   8.409  1.2643 -2.3873  2.3930
45970SOL    HW244772   8.533   5.680   8.295 -0.1496  1.3748 -1.0864
45971SOL     OW44773   5.825   3.720  11.699  0.3083  0.6692  0.2502
45971SOL    HW144774   5.905   3.671  11.678 -0.8800 -1.9619  1.3816
45971SOL    HW244775   5.856   3.804  11.731  2.5666  0.1842 -0.4885
45972SOL     OW44776   5.182   3.656   2.067 -0.1609 -0.3095 -0.3958
45972SOL    HW144777   5.091   3.672   2.040 -0.1280  1.3769  0.3615
45972SOL    HW244778   5.179   3.572   2.113 -0.9781 -1.1654 -1.9435
45973SOL     OW44779   9.125  10.405   4.006 -0.0239 -0.4119  0.2126
45973SOL    HW144780   9.150  10.399   3.914  0.3845 -0.7071  0.3385
45973SOL    HW244781   9.082  10.490   4.014 -0.7993 -0.7386 -0.4231
45974SOL     OW44782   0.426  10.953   0.815  0.2937 -0.8402  0.5148
45974SOL    HW144783   0.360  11.011   0.777 -0.6565 -1.7555  0.7354
45974SOL    HW244784   0.425  10.875   0.759  0.3961 -1.3136  1.1587
45975SOL     OW44785   1.323   7.962   3.614  0.4285 -0.2609 -0.3456
45975SOL    HW144786   1.227   7.970   3.608  0.4359 -0.1087 -0.2702
45975SOL    HW244787   1.339   7.939   3.706  0.5983  1.8581  0.1974
45976SOL     OW44788  10.917   7.051   6.244 -0.4608  0.4110  0.4577
45976SOL    HW144789  10.830   7.088   6.228 -1.0438 -0.8307  0.6337
45976SOL    HW244790  10.937   7.002   6.164 -0.4351 -0.2571  0.8681
45977SOL     OW44791   1.159   0.251   0.380  0.3111  0.1264  0.5273
45977SOL    HW144792   1.144   0.166   0.339 -0.5133  0.3143  0.4194
45977SOL    HW244793   1.254   0.256   0.390  0.6592  0.4460 -2.1994
45978SOL     OW44794   9.702   0.661   6.095 -0.1844  0.1869  0.0369
45978SOL    HW144795   9.652   0.734   6.058 -2.1866 -0.8098  0.6786
45978SOL    HW244796   9.768   0.704   6.151 -1.0805  1.5203  0.1239
45979SOL     OW44797  10.251   7.272   5.220  0.0688  0.2075 -0.9189
45979SOL    HW144798  10.195   7.278   5.142 -3.2096  0.7169  1.2646
45979SOL    HW244799  10.281   7.181   5.220  0.5795  0.3192 -2.9834
45980SOL     OW44800   2.765   7.742   6.385  0.1568  0.4752  0.4397
45980SOL    HW144801   2.784   7.764   6.477  1.0948 -0.9768  0.6250
45980SOL    HW244802   2.695   7.678   6.390  1.9583 -1.6079  0.3488
45981SOL     OW44803   8.607   5.307   7.433 -0.3042  0.4633  0.1867
45981SOL    HW144804   8.694   5.287   7.400 -0.4439 -1.3986  0.8285
45981SOL    HW244805   8.620   5.339   7.522 -0.3104 -0.8627  0.6842
45982SOL     OW44806   6.193   6.075   1.609  0.4985  0.2305  0.2295
45982SOL    HW144807   6.103   6.065   1.578  0.2822  0.1193  0.8830
45982SOL    HW244808   6.222   6.158   1.572  0.8599 -0.7040 -1.7412
45983SOL     OW44809   9.635   2.960   4.284 -0.4309 -0.2877 -0.6410
45983SOL    HW144810   9.632   3.050   4.254  2.2718 -0.5788 -2.0795
45983SOL    HW244811   9.703   2.959   4.351  0.4046 -1.4292 -1.4623
45984SOL     OW44812  10.993   4.461  11.033 -0.3753 -0.6936 -0.0194
45984SOL    HW144813  10.911   4.473  10.986  0.0065 -1.5734 -0.9391
45984SOL    HW244814  11.056   4.517  10.987 -0.7408  1.1828  1.5977
45985SOL     OW44815   4.027   6.429   2.513  0.5106 -0.4262  0.0623
45985SOL    HW144816   4.089   6.490   2.554  1.0120 -0.5611 -0.4762
45985SOL    HW244817   4.082   6.358   2.480  0.2020 -0.0431 -1.3437
45986SOL     OW44818   7.860   5.803   7.288 -0.0735 -0.0801  0.0033
45986SOL    HW144819   7.794   5.764   7.232  0.1918  0.4192 -0.6708
45986SOL    HW244820   7.827   5.791   7.377  0.0534 -1.9055 -0.1693
45987SOL     OW44821   3.207   3.295   3.298  0.3742 -0.0009 -0.1036
45987SOL    HW144822   3.259   3.257   3.227  0.8408 -3.5168  1.8639
45987SOL    HW244823   3.117   3.296   3.264  0.6788 -1.0212 -0.9871
45988SOL     OW44824  11.537   9.203   3.767 -0.3737 -0.3948 -0.2249
45988SOL    HW144825  11.573   9.245   3.689  0.0722 -2.2716 -1.1053
45988SOL    HW244826  11.547   9.267   3.837 -0.5946  1.2641 -1.6562
45989SOL     OW44827  11.921   2.281  11.769  0.3393  0.0729  0.4262
45989SOL    HW144828  11.914   2.234  11.685  0.3125  1.1872 -0.2224
45989SOL    HW244829  11.892   2.370  11.748  0.6334  0.4429  1.5581
45990SOL     OW44830   4.897   3.014  10.934 -0.5870 -0.2462  0.1150
45990SOL    HW144831   4.931   2.931  10.966 -0.3247 -0.5861 -1.0148
45990SOL    HW244832   4.812   2.992  10.895  0.2158 -0.3117 -1.6968
45991SOL     OW44833   1.326   7.167   4.193  0.0368 -0.6062 -0.3238
45991SOL    HW144834   1.408   7.188   4.239  1.0099 -1.3573 -1.6558
45991SOL    HW244835   1.340   7.200   4.104 -1.8691  0.9727 -0.1021
45992SOL     OW44836   0.748   1.337  10.436 -0.1137  0.3515 -0.0195
45992SOL    HW144837   0.680   1.404  10.431 -1.5077 -1.1254 -1.7873
45992SOL    HW244838   0.726   1.274  10.369  1.7315 -1.4060  0.9049
45993SOL     OW44839   5.279   5.383   2.352 -0.0179  0.1153 -0.1737
45993SOL    HW144840   5.184   5.375   2.356 -0.4101  2.8588 -1.4942
45993SOL    HW244841   5.304   5.418   2.438 -0.3088  0.2118 -0.1280
45994SOL     OW44842   0.208   4.223   5.446 -0.1537 -1.2093  0.1591
45994SOL    HW144843   0.238   4.302   5.491 -1.8917 -0.4616  0.0940
45994SOL    HW244844   0.281   4.198   5.390  1.4781 -1.2667  2.1884
45995SOL     OW44845   7.843   6.160  10.822  0.5277  0.2301 -0.2208
45995SOL    HW144846   7.831   6.150  10.916  1.5153  0.4518 -0.0587
45995SOL    HW244847   7.757   6.183  10.789 -0.4394 -2.3139  0.2765
45996SOL     OW44848  11.993   6.648   0.204 -1.2400 -0.7494 -0.1224
45996SOL    HW144849  12.039   6.587   0.261  0.1344 -1.0262 -1.4668
45996SOL    HW244850  12.010   6.734   0.243  0.5790 -0.8301 -0.6305
45997SOL     OW44851   0.916   5.698   6.096 -0.3058  0.5630 -0.4133
45997SOL    HW144852   0.957   5.705   6.010  0.9786 -1.4386 -0.0353
45997SOL    HW244853   0.978   5.743   6.155  0.7736 -1.3251 -0.0341
45998SOL     OW44854   3.927   5.296   4.157 -0.2223 -0.4529 -0.2755
45998SOL    HW144855   3.959   5.262   4.241  2.1009  0.0482 -0.8838
45998SOL    HW244856   3.952   5.388   4.158 -0.8528 -0.2567 -1.2195
45999SOL     OW44857   2.244   5.369  11.563 -0.1754  0.1716 -0.1968
45999SOL    HW144858   2.154   5.391  11.539 -0.9291 -1.8537  0.5588
45999SOL    HW244859   2.277   5.318  11.489  0.1949  0.4947 -0.2572
46000SOL     OW44860   8.063   0.436   0.432 -0.1530 -0.6767  0.2384
46000SOL    HW144861   8.143   0.488   0.424 -1.0828  1.3328  2.7473
46000SOL    HW244862   8.093   0.352   0.466  0.9819 -0.2575  0.3269
46001SOL     OW44863   8.909   2.964   6.039 -0.2830 -0.3471  0.7537
46001SOL    HW144864   8.966   3.037   6.016 -0.4960 -0.6645 -0.8780
46001SOL    HW244865   8.835   2.971   5.979  0.2144 -2.5225 -0.2184
46002SOL     OW44866   2.164   2.231   3.364  0.5362 -0.6260  0.3114
46002SOL    HW144867   2.246   2.224   3.413 -0.3643 -2.6645  1.6436
46002SOL    HW244868   2.190   2.222   3.273  2.2494  3.1208  0.2042
46003SOL     OW44869   6.050   7.747  11.924  0.4166  0.1952  0.9864
46003SOL    HW144870   6.100   7.824  11.897 -0.2947  0.5330  0.5979
46003SOL    HW244871   6.013   7.712  11.843 -0.6918  0.4734  1.3514
46004SOL     OW44872   3.842   5.994   1.478  0.4461 -0.5427  0.5943
46004SOL    HW144873   3.820   5.915   1.430  2.1710 -0.2765 -0.7316
46004SOL    HW244874   3.937   5.998   1.475  0.5268  0.3132  2.7578
46005SOL     OW44875   2.938   6.144   1.690  0.7118  0.0204 -0.3065
46005SOL    HW144876   2.856   6.168   1.648 -0.4310 -1.2184  1.1165
46005SOL    HW244877   2.997   6.217   1.669 -0.7286  0.9423 -1.3701
46006SOL     OW44878   9.348   9.236   7.287  0.1599 -0.5071  0.4339
46006SOL    HW144879   9.419   9.222   7.224 -1.3241  0.2951 -1.5298
46006SOL    HW244880   9.281   9.283   7.237 -2.5891 -2.8916  1.6398
46007SOL     OW44881   7.330   3.144   8.480  0.1033  0.2480 -0.5441
46007SOL    HW144882   7.297   3.210   8.419  1.1241  0.5473 -0.7966
46007SOL    HW244883   7.254   3.121   8.533 -0.2421  1.7578 -0.3267
46008SOL     OW44884   2.489   1.436   0.758  0.3631 -0.3872 -0.0039
46008SOL    HW144885   2.509   1.499   0.689 -0.2400  0.7588  0.8332
46008SOL    HW244886   2.394   1.435   0.762  0.3828  0.7355  1.8035
46009SOL     OW44887   9.656   7.067   1.748 -0.2239  0.8248  1.0376
46009SOL    HW144888   9.669   7.161   1.762 -1.1621  1.6771 -2.5987
46009SOL    HW244889   9.734   7.038   1.701 -0.4030  0.0150  1.2151
46010SOL     OW44890   1.437   9.305   6.492  0.3125  0.1493 -0.3482
46010SOL    HW144891   1.390   9.332   6.570 -0.1394  3.1587 -1.5456
46010SOL    HW244892   1.525   9.340   6.503  0.5962 -0.4473 -0.6598
46011SOL     OW44893   5.564   3.303   6.383 -0.2559  0.3690  0.5651
46011SOL    HW144894   5.630   3.370   6.400  0.4280  0.1552 -1.1147
46011SOL    HW244895   5.512   3.338   6.310  0.2148 -0.9723 -0.4490
46012SOL     OW44896   4.586   4.281  10.567 -0.0092 -0.0294  0.6352
46012SOL    HW144897   4.531   4.321  10.500  0.8444  0.0207 -0.0526
46012SOL    HW244898   4.610   4.354  10.625 -2.1718 -0.3510  2.0748
46013SOL     OW44899   6.760   9.929   1.342  0.0660  0.0107 -0.2148
46013SOL    HW144900   6.799   9.918   1.428  1.7447  0.6181 -0.8615
46013SOL    HW244901   6.782  10.018   1.316 -0.0431 -0.2938 -1.4372
46014SOL     OW44902   3.609   6.735   2.082 -0.1582 -0.0708  0.4778
46014SOL    HW144903   3.653   6.682   2.149  0.2216 -1.1681 -0.5945
46014SOL    HW244904   3.666   6.727   2.006 -2.0084 -1.2424 -0.8655
46015SOL     OW44905  11.886  11.413   6.529 -0.3592  0.2115  0.3537
46015SOL    HW144906  11.959  11.446   6.477  0.0760  0.3701  1.0446
46015SOL    HW244907  11.830  11.489   6.544 -0.1253  0.3260  0.6850
46016SOL     OW44908  12.341   7.561   5.987 -0.0211 -0.1281 -0.2854
46016SOL    HW144909  12.350   7.492   6.052  2.2523  0.4043  0.0702
46016SOL    HW244910  12.431   7.589   5.970 -0.8412  2.8686 -0.2478
46017SOL     OW44911   5.878  11.728  10.848  0.1344  1.1375 -0.4518
46017SOL    HW144912   5.903  11.650  10.797 -2.9446 -1.1827  1.2205
46017SOL    HW244913   5.944  11.733  10.917  0.7676  0.3913 -0.9791
46018SOL     OW44914   9.857   9.235  12.431 -0.5108 -0.2030  0.7012
46018SOL    HW144915   9.890   9.324  12.421 -0.6429 -0.0948  1.1845
46018SOL    HW244916   9.782   9.230  12.372  0.1811 -0.3577 -0.1846
46019SOL     OW44917   7.160   7.031   6.011 -0.3680 -0.4539 -0.2785
46019SOL    HW144918   7.175   6.936   6.012  1.1243 -0.2629  1.6356
46019SOL    HW244919   7.160   7.054   5.918  1.0186 -2.0923 -0.7492
46020SOL     OW44920   7.182   9.583   7.596  0.8253 -0.1151 -0.3584
46020SOL    HW144921   7.211   9.504   7.549 -0.1219  0.4186 -1.9229
46020SOL    HW244922   7.200   9.655   7.536  0.1566  0.6708  0.3563
46021SOL     OW44923   0.507   4.931   1.940  0.3122 -0.4416 -0.8380
46021SOL    HW144924   0.420   4.896   1.961  0.2455 -1.0796 -2.0462
46021SOL    HW244925   0.567   4.861   1.966  0.4982  0.1488  0.3342
46022SOL     OW44926   0.854   8.393  10.231 -0.0820 -0.1059 -0.2311
46022SOL    HW144927   0.915   8.379  10.304 -3.2151  0.5570  2.8061
46022SOL    HW244928   0.876   8.480  10.197  1.2687 -0.2995  0.0927
46023SOL     OW44929   1.324   6.600   5.064  0.0263 -0.2398 -0.1782
46023SOL    HW144930   1.252   6.542   5.088  0.8706 -1.3713 -0.3245
46023SOL    HW244931   1.321   6.670   5.129 -0.6829 -0.7194  0.3150
46024SOL     OW44932   9.329   6.782   8.590 -0.7219  0.0737 -0.2149
46024SOL    HW144933   9.413   6.824   8.608 -0.7394  0.3454 -0.7453
46024SOL    HW244934   9.266   6.854   8.591 -0.9661 -0.1409  0.2646
46025SOL     OW44935   5.076   5.142   9.633 -0.0095 -0.4423  0.1946
46025SOL    HW144936   5.157   5.167   9.678  0.2233 -0.5975 -0.1396
46025SOL    HW244937   5.024   5.223   9.630  0.1818 -0.3156  0.3063
46026SOL     OW44938  11.146   6.271   0.224  0.9228 -0.4567  0.2880
46026SOL    HW144939  11.213   6.273   0.155  0.1474 -2.4108 -0.5770
46026SOL    HW244940  11.195   6.285   0.305  2.3441 -1.4578 -0.3604
46027SOL     OW44941   1.219   5.999   1.914  0.0865  0.1836  0.2718
46027SOL    HW144942   1.270   5.945   1.973  0.1252  0.6229  0.6505
46027SOL    HW244943   1.270   6.080   1.905 -0.8478  0.9109  1.2040
46028SOL     OW44944  10.440   0.528   5.174  0.0926  0.1973 -0.0775
46028SOL    HW144945  10.462   0.450   5.122  0.4574 -0.0956  0.5042
46028SOL    HW244946  10.362   0.564   5.132  0.5279  0.1139 -0.9815
46029SOL     OW44947   1.683   3.569   9.765 -0.7229  0.3909 -0.1989
46029SOL    HW144948   1.614   3.508   9.789 -1.0090  0.8112  0.0617
46029SOL    HW244949   1.764   3.519   9.775 -1.0353 -0.3899 -1.4022
46030SOL     OW44950   8.758   2.022   0.332  0.3587 -0.2337  0.0470
46030SOL    HW144951   8.794   2.092   0.279  0.5580  0.0065  0.4900
46030SOL    HW244952   8.665   2.018   0.309  0.4375 -0.1132 -0.2879
46031SOL     OW44953   5.742   4.828   0.004 -0.7768  0.1645 -0.0780
46031SOL    HW144954   5.740   4.765   0.076  0.3973  0.9633  0.6845
46031SOL    HW244955   5.825   4.812  -0.040 -1.2059  0.1014 -0.8872
46032SOL     OW44956   4.012   5.436   2.283 -0.0231  0.7068  0.1028
46032SOL    HW144957   3.923   5.438   2.249  0.3342  0.6013 -0.8647
46032SOL    HW244958   4.065   5.481   2.217  0.7211  0.3259  0.4186
46033SOL     OW44959  11.851   1.917   8.844 -0.0937  0.4413 -0.3639
46033SOL    HW144960  11.785   1.850   8.862 -0.3147  1.0303  1.2365
46033SOL    HW244961  11.931   1.868   8.825 -0.6408 -0.2713 -0.8358
46034SOL     OW44962  11.884   8.470   1.047 -0.3971 -0.2553  0.7729
46034SOL    HW144963  11.827   8.534   1.005  0.6599  0.0180 -0.2838
46034SOL    HW244964  11.954   8.454   0.984 -1.2944 -3.4960  0.3853
46035SOL     OW44965   1.068   5.066   5.949 -0.0953  0.4418  0.1239
46035SOL    HW144966   0.973   5.061   5.964 -0.1041 -0.2522 -0.1373
46035SOL    HW244967   1.103   5.099   6.032 -0.4185 -0.8172  0.7880
46036SOL     OW44968   0.230  12.144   1.644  0.6572  0.5194  0.4038
46036SOL    HW144969   0.230  12.050   1.625 -0.3228  0.5492  0.1828
46036SOL    HW244970   0.310  12.158   1.694  1.8385 -0.0970 -1.2028
46037SOL     OW44971   7.704   0.744   8.893 -0.4296  0.0197  0.3747
46037SOL    HW144972   7.686   0.836   8.913  0.1892  0.2434 -0.0566
46037SOL    HW244973   7.727   0.705   8.977  1.4281  0.7786  0.2793
46038SOL     OW44974   9.430   7.481  12.458 -0.2690  0.0842 -0.2789
46038SOL    HW144975   9.423   7.573  12.433 -1.5064 -0.5168 -2.3478
46038SOL    HW244976   9.525   7.466  12.465  0.0656  0.9608 -2.1872
46039SOL     OW44977   3.661  10.801   7.371 -0.3214  0.1266  0.0770
46039SOL    HW144978   3.729  10.849   7.323 -1.0022 -0.6508 -1.7278
46039SOL    HW244979   3.700  10.715   7.387 -0.6672 -0.1242 -0.4370
46040SOL     OW44980   2.412   5.696   1.354  0.0318  0.0098  0.8696
46040SOL    HW144981   2.342   5.755   1.327  0.0890  0.6122  1.9794
46040SOL    HW244982   2.449   5.736   1.432  0.0890 -1.4588  1.6460
46041SOL     OW44983   4.300   1.985  10.779 -0.3546 -0.4508  0.0677
46041SOL    HW144984   4.343   1.957  10.860 -0.3038  0.2037  0.2702
46041SOL    HW244985   4.360   2.048  10.740 -1.0217  0.3221  0.2534
46042SOL     OW44986   8.224   0.221   6.804  0.3822  0.5772 -0.4840
46042SOL    HW144987   8.152   0.178   6.757  1.1107  1.3636 -2.4267
46042SOL    HW244988   8.199   0.215   6.896 -0.5561 -2.0996 -0.8089
46043SOL     OW44989   3.312   6.620   4.073 -0.8666  0.4307 -0.0253
46043SOL    HW144990   3.327   6.690   4.136 -1.4129  1.1553 -0.6820
46043SOL    HW244991   3.388   6.624   4.014 -0.5744  0.0371  0.3160
46044SOL     OW44992   2.497   0.853   9.188  0.1774 -0.5542  0.1793
46044SOL    HW144993   2.589   0.832   9.168 -0.4601 -2.4291 -1.0483
46044SOL    HW244994   2.485   0.942   9.155  1.9573  0.4028  1.8711
46045SOL     OW44995   1.863   5.449   6.657  0.0486  0.1158 -0.2477
46045SOL    HW144996   1.872   5.379   6.722 -1.7981  1.3504  1.4813
46045SOL    HW244997   1.939   5.440   6.601  1.6064 -1.2215  1.9222
46046SOL     OW44998   7.120  10.876   0.631 -0.3331  0.1205 -0.4891
46046SOL    HW144999   7.078  10.936   0.693  1.0591  0.8338 -0.1951
46046SOL    HW245000   7.053  10.810   0.613 -0.6322 -0.3955  2.1646
46047SOL     OW45001   2.731  11.201   3.390  0.7517  0.4212  0.1843
46047SOL    HW145002   2.784  11.281   3.387  0.1034  0.8409 -0.9013
46047SOL    HW245003   2.789  11.135   3.427  1.4321  1.3021  0.7286
46048SOL     OW45004   5.006   0.506   7.755  0.4696  0.4620  0.1712
46048SOL    HW145005   4.950   0.437   7.790  0.5275  0.7576  0.8575
46048SOL    HW245006   5.030   0.475   7.668  0.3519 -0.3015  0.4018
46049SOL     OW45007   1.207   1.212  11.377  0.3541  0.2278  0.2863
46049SOL    HW145008   1.212   1.308  11.376  0.1045  0.2355 -0.1193
46049SOL    HW245009   1.114   1.193  11.369  0.4094 -0.0527  0.3092
46050SOL     OW45010   5.387  10.332   9.533 -0.3609 -0.5025 -0.2460
46050SOL    HW145011   5.386  10.296   9.622  1.7764  1.0831  0.5242
46050SOL    HW245012   5.319  10.400   9.534 -0.2083 -0.3507  0.2573
46051SOL     OW45013   5.750   7.272   8.731 -0.7930  0.0573 -0.0346
46051SOL    HW145014   5.705   7.281   8.647 -1.6274 -0.6453  0.3233
46051SOL    HW245015   5.793   7.187   8.726  1.4433  1.1372 -0.7812
46052SOL     OW45016   4.893   9.402   7.864  0.3063 -0.3962 -0.2518
46052SOL    HW145017   4.917   9.446   7.946 -0.6268  1.0594 -0.7152
46052SOL    HW245018   4.834   9.333   7.891 -1.3134  1.0944  0.2263
46053SOL     OW45019   5.963   6.080   1.463 -0.4543 -0.3771  0.1149
46053SOL    HW145020   5.993   6.142   1.397  1.9469  0.4319  1.8496
46053SOL    HW245021   5.897   6.129   1.512 -1.0688 -0.4286 -0.6319
46054SOL     OW45022  12.473   8.212   8.954 -0.6151 -0.5342 -0.6378
46054SOL    HW145023  12.413   8.212   9.029  1.0131  2.5330  0.8495
46054SOL    HW245024  12.492   8.304   8.938  0.3908 -1.1661 -3.8716
46055SOL     OW45025   2.392   6.562   5.884 -0.0563  0.3383  0.3583
46055SOL    HW145026   2.342   6.639   5.855 -0.8923  0.3802  1.8209
46055SOL    HW245027   2.326   6.504   5.922  0.8845  0.0102  1.5398
46056SOL     OW45028  10.921   4.078   1.266  0.4545  0.7593  0.2385
46056SOL    HW145029  10.943   4.098   1.357  2.7950  0.9162 -0.3057
46056SOL    HW245030  10.982   4.009   1.241 -0.6319  0.2133 -1.0137
46057SOL     OW45031   8.890   9.100   0.424  0.1719  0.0857  0.0868
46057SOL    HW145032   8.848   9.143   0.349  1.5301  0.3886 -0.5143
46057SOL    HW245033   8.830   9.029   0.446 -0.6490  0.4756 -0.7750
46058SOL     OW45034   6.558   7.293   8.372 -0.1943  0.5289 -0.3420
46058SOL    HW145035   6.475   7.260   8.408 -0.1241 -0.0317 -0.6876
46058SOL    HW245036   6.621   7.223   8.388  0.0857  0.7218 -0.5972
46059SOL     OW45037   8.334   2.979   6.544 -0.2648  0.1569  0.0065
46059SOL    HW145038   8.248   2.936   6.544 -0.0779 -0.2809  1.7121
46059SOL    HW245039   8.352   2.997   6.636  1.7168 -0.1945 -0.2688
46060SOL     OW45040   8.135   0.525   2.564  0.2999  0.4143  0.3486
46060SOL    HW145041   8.152   0.450   2.507 -2.7040 -0.0247 -0.1486
46060SOL    HW245042   8.121   0.487   2.650  0.0275  0.5362  0.3583
46061SOL     OW45043   2.881   4.889   9.226 -0.0435  0.0425  0.7001
46061SOL    HW145044   2.910   4.853   9.142 -1.6316  1.7164 -0.6700
46061SOL    HW245045   2.785   4.891   9.219 -0.1137  3.1008  1.2224
46062SOL     OW45046  10.875  11.576  10.585 -0.5219  0.3776  0.7239
46062SOL    HW145047  10.928  11.641  10.539 -1.3281  1.3284  1.1125
46062SOL    HW245048  10.931  11.544  10.655  0.7560 -1.1442 -0.9003
46063SOL     OW45049   1.200   2.673   9.008 -0.0986  0.0845  0.3300
46063SOL    HW145050   1.205   2.606   9.076  1.4253 -2.2907 -1.9382
46063SOL    HW245051   1.108   2.676   8.983 -0.2809 -0.7232  0.8695
46064SOL     OW45052  12.377   7.410   4.847  0.4696  0.5263  0.4427
46064SOL    HW145053  12.409   7.320   4.853 -0.2219  0.1314 -1.2418
46064SOL    HW245054  12.284   7.401   4.824  0.2766  1.6734  0.7123
46065SOL     OW45055  10.548  10.847   2.928  0.4050  0.0278  0.0131
46065SOL    HW145056  10.476  10.799   2.969 -1.2876  1.4394 -1.1461
46065SOL    HW245057  10.562  10.803   2.844  1.1866 -0.4709  0.3912
46066SOL     OW45058   9.218   8.554   6.382  0.1313 -0.7404 -0.7034
46066SOL    HW145059   9.226   8.530   6.290  0.5381  1.5058 -1.3226
46066SOL    HW245060   9.140   8.609   6.387  0.7667  0.1379  0.0429
46067SOL     OW45061   5.413   7.013  10.577 -0.8480 -0.5220  0.1544
46067SOL    HW145062   5.443   7.102  10.593  1.6829 -1.2291 -0.1277
46067SOL    HW245063   5.322   7.012  10.606 -0.4088  1.6743  1.8836
46068SOL     OW45064  10.637   6.508   0.671  0.1287 -0.4690  0.0796
46068SOL    HW145065  10.611   6.440   0.608  1.1794 -0.0542 -0.8393
46068SOL    HW245066  10.733   6.506   0.670  0.1992  1.3061 -0.2932
46069SOL     OW45067   2.464   2.893  11.790 -0.5385 -0.2592  1.1423
46069SOL    HW145068   2.509   2.862  11.869 -0.7325  1.9284  2.1993
46069SOL    HW245069   2.534   2.924  11.733 -0.3826 -2.0295  0.3062
46070SOL     OW45070   1.931   5.645   8.510 -0.2718 -0.1674  0.1615
46070SOL    HW145071   1.862   5.666   8.574  0.2124  2.2407 -0.0032
46070SOL    HW245072   1.959   5.731   8.477  3.1955 -0.9571  0.6378
46071SOL     OW45073   3.331  10.339  10.913  0.5198 -0.6392 -0.1872
46071SOL    HW145074   3.334  10.415  10.855  2.7756  0.7784  1.5987
46071SOL    HW245075   3.354  10.264  10.858 -2.0961 -0.1736 -2.0626
46072SOL     OW45076   9.211   5.879   3.616  0.1604 -0.0879 -0.7888
46072SOL    HW145077   9.202   5.842   3.703 -1.1207 -0.8663 -1.2225
46072SOL    HW245078   9.246   5.967   3.631  0.4489 -0.3908  0.4539
46073SOL     OW45079   3.040   6.795  10.368 -0.0724  0.1063 -0.4363
46073SOL    HW145080   3.087   6.875  10.390 -0.6161  0.2787  0.1213
46073SOL    HW245081   3.097   6.750  10.305  0.9386  0.2106  0.3765
46074SOL     OW45082   2.839  10.179   3.121 -0.3129 -0.1965 -0.6806
46074SOL    HW145083   2.753  10.151   3.152  0.1622  0.1700  1.0775
46074SOL    HW245084   2.879  10.221   3.197  0.8613  0.9303 -1.8727
46075SOL     OW45085   7.968  11.140   0.905 -0.2642 -0.2347  0.3210
46075SOL    HW145086   7.882  11.132   0.944  0.8374  0.8200  3.2227
46075SOL    HW245087   8.021  11.073   0.948  0.1532 -1.8184 -2.4043
46076SOL     OW45088   2.782   5.419   1.027  0.6858  0.5806 -0.6000
46076SOL    HW145089   2.763   5.491   1.087 -0.0635  0.8467 -1.1426
46076SOL    HW245090   2.745   5.342   1.070  0.9126  0.6253 -0.3216
46077SOL     OW45091   5.603   5.128  11.077  0.8690  0.0574 -0.0734
46077SOL    HW145092   5.687   5.141  11.121 -0.4539  0.9419  2.4110
46077SOL    HW245093   5.583   5.035  11.090  0.5303  0.2896  1.2429
46078SOL     OW45094   8.615   8.101   8.717  0.8414  0.2439 -0.4530
46078SOL    HW145095   8.523   8.099   8.742  0.6574 -0.4040 -1.1395
46078SOL    HW245096   8.639   8.193   8.722  0.6142  0.2457  1.2869
46079SOL     OW45097  11.959   9.046   6.826  0.9346  0.1038  0.3166
46079SOL    HW145098  12.046   9.024   6.790  0.5942  1.1168 -1.2474
46079SOL    HW245099  11.940   9.133   6.791 -1.7831 -1.0893 -1.5267
46080SOL     OW45100   4.451   9.919  10.119 -0.0911  0.4233 -0.0679
46080SOL    HW145101   4.452   9.995  10.177 -0.9500 -1.0566  2.0004
46080SOL    HW245102   4.483   9.847  10.173 -1.8984 -1.2567 -1.0959
46081SOL     OW45103   5.532   3.924   7.985 -0.0973 -0.4936 -0.0134
46081SOL    HW145104   5.468   3.853   7.978 -1.4291  0.7721 -1.7891
46081SOL    HW245105   5.586   3.916   7.906 -1.0005  1.0704 -0.8460
46082SOL     OW45106  11.323  10.863   7.088 -0.2478 -0.3989 -0.2419
46082SOL    HW145107  11.333  10.834   7.179  2.7122  0.1715 -0.2866
46082SOL    HW245108  11.343  10.956   7.090  0.2894 -0.4652 -1.5260
46083SOL     OW45109   6.818   0.049   4.272  0.3113 -0.5661  0.1352
46083SOL    HW145110   6.902   0.027   4.313 -0.2619 -2.7424  0.3013
46083SOL    HW245111   6.790  -0.033   4.231 -2.0267 -0.0974  0.6475
46084SOL     OW45112   0.748   5.841   2.595 -0.4622  0.1845  0.2634
46084SOL    HW145113   0.673   5.900   2.607 -1.1392 -0.2564 -1.4615
46084SOL    HW245114   0.822   5.899   2.579 -0.2931  0.6447  2.4542
46085SOL     OW45115   6.417   0.129   4.903  0.3026 -0.4904  0.3399
46085SOL    HW145116   6.512   0.119   4.900  0.1703 -1.7296 -0.3181
46085SOL    HW245117   6.392   0.152   4.813  0.0926  1.2726  0.8031
46086SOL     OW45118   8.267   7.017   0.651 -0.4384  0.3899 -0.4075
46086SOL    HW145119   8.209   6.957   0.603  0.8054 -0.8941 -0.3955
46086SOL    HW245120   8.294   7.082   0.586 -1.1395  0.4290 -0.6599
46087SOL     OW45121   0.061  10.944   4.156  0.7637  0.0176  0.7518
46087SOL    HW145122   0.114  11.008   4.204  1.3197  1.4576 -1.6006
46087SOL    HW245123  -0.014  10.994   4.123  0.5950 -0.7995 -0.1728
46088SOL     OW45124   5.717  11.343   7.057  0.0930 -0.4582  0.6014
46088SOL    HW145125   5.636  11.376   7.018  0.9907  0.3509 -0.6487
46088SOL    HW245126   5.719  11.250   7.032 -0.7556 -0.6495  1.2027
46089SOL     OW45127   2.071   8.862   4.595 -0.1136 -0.1944 -0.8166
46089SOL    HW145128   2.122   8.898   4.522  2.4329  0.8189  1.2754
46089SOL    HW245129   2.002   8.926   4.611 -0.5931 -0.3408 -2.1558
46090SOL     OW45130  10.809   8.688   1.339  0.4212 -0.0090  0.0619
46090SOL    HW145131  10.805   8.682   1.434  4.0267  0.7026  0.4102
46090SOL    HW245132  10.846   8.604   1.311 -1.0756 -0.4115 -0.8098
46091SOL     OW45133  11.437  11.196   0.637 -0.3794 -0.1477  0.5240
46091SOL    HW145134  11.423  11.204   0.542 -2.0358  0.9537  0.8104
46091SOL    HW245135  11.526  11.228   0.650  0.6840 -2.3284 -0.8701
46092SOL     OW45136  11.007  11.997   9.079  0.9088 -0.2968  0.3788
46092SOL    HW145137  11.021  11.902   9.071 -1.1221 -0.8092  2.0258
46092SOL    HW245138  10.921  12.012   9.040  1.0008  0.7856  0.5759
46093SOL     OW45139   9.285   4.734   4.010  0.6063 -0.1024  0.2487
46093SOL    HW145140   9.199   4.747   3.970 -0.2508 -2.4067  1.1849
46093SOL    HW245141   9.310   4.645   3.983  2.1936  0.1216  0.9138
46094SOL     OW45142   5.611   1.590   5.810 -0.5864 -0.3433  0.4424
46094SOL    HW145143   5.584   1.588   5.902 -1.4750  0.6073  0.2353
46094SOL    HW245144   5.636   1.500   5.789  0.8700 -0.3278  1.9578
46095SOL     OW45145  10.536   7.532   6.741 -0.3976 -0.0931 -0.1363
46095SOL    HW145146  10.571   7.478   6.669  0.3443 -0.7268  0.6778
46095SOL    HW245147  10.593   7.512   6.815 -1.0047  0.7410  0.5668
46096SOL     OW45148   5.310  10.655   0.856 -1.1389 -0.4437  0.3871
46096SOL    HW145149   5.397  10.632   0.888 -1.7859 -0.5159  2.1830
46096SOL    HW245150   5.250  10.620   0.922 -2.5656 -0.7088 -0.9939
46097SOL     OW45151   5.952   0.081   1.677 -0.5667 -0.1648 -0.2969
46097SOL    HW145152   5.913   0.010   1.626  0.9315 -2.2874  1.3243
46097SOL    HW245153   5.883   0.106   1.739 -0.8289 -0.8191 -0.3108
46098SOL     OW45154   9.242   6.589   4.244 -0.5463 -0.0516  0.6449
46098SOL    HW145155   9.282   6.665   4.287 -0.6788  0.6917 -0.4891
46098SOL    HW245156   9.266   6.599   4.152 -1.2566 -0.9504  0.3473
46099SOL     OW45157  11.266   2.401  10.581  0.0303 -0.1009  0.3854
46099SOL    HW145158  11.360   2.391  10.597  1.0248  2.0972 -2.9230
46099SOL    HW245159  11.245   2.489  10.612 -1.1433 -0.7752  1.6190
46100SOL     OW45160  10.282   8.730   1.869  0.3547 -0.0060 -0.1138
46100SOL    HW145161  10.226   8.654   1.858  1.7085 -0.9044 -1.1889
46100SOL    HW245162  10.227   8.804   1.844 -1.3910 -0.4281  2.1952
46101SOL     OW45163  11.452  10.051   9.680 -0.4128 -0.1386  0.4193
46101SOL    HW145164  11.363  10.072   9.651 -0.1108  0.0591 -0.3874
46101SOL    HW245165  11.497  10.135   9.686  0.5648 -0.3921 -2.0546
46102SOL     OW45166   1.027   4.726   5.285 -0.6709  0.2313 -1.0032
46102SOL    HW145167   1.049   4.714   5.378 -0.8877  0.6110 -0.8982
46102SOL    HW245168   0.942   4.683   5.275 -0.1694 -0.7222 -1.2724
46103SOL     OW45169   3.174   9.864  11.811 -0.4800  0.5192 -0.2132
46103SOL    HW145170   3.232   9.789  11.796 -0.0065  1.1683 -1.7466
46103SOL    HW245171   3.116   9.835  11.882  0.5997 -0.7717  0.1814
46104SOL     OW45172   6.198   2.699  11.428 -0.5092  0.0074 -0.8845
46104SOL    HW145173   6.211   2.606  11.414  0.2996 -0.0829  0.2894
46104SOL    HW245174   6.137   2.704  11.502  1.4066  0.3448  0.7585
46105SOL     OW45175  10.391   2.245   7.617  0.1993 -0.0578 -0.1212
46105SOL    HW145176  10.330   2.295   7.564 -1.0393 -0.5093  0.8207
46105SOL    HW245177  10.474   2.292   7.610 -0.8785  2.0829  0.6392
46106SOL     OW45178   4.195   7.639   5.421  0.3214  0.6303  0.2600
46106SOL    HW145179   4.254   7.583   5.472  1.1293  0.6230 -0.6579
46106SOL    HW245180   4.190   7.598   5.335  0.9425  1.9381 -0.4417
46107SOL     OW45181  10.858   0.328   8.527  0.4841 -0.1168 -0.2021
46107SOL    HW145182  10.866   0.305   8.619 -3.1774  0.1102  0.2969
46107SOL    HW245183  10.870   0.244   8.481  0.3234 -0.6006  0.6186
46108SOL     OW45184   1.176   7.771   9.546 -0.1003  0.2339 -0.4918
46108SOL    HW145185   1.224   7.772   9.463 -0.6520  1.2715 -0.8274
46108SOL    HW245186   1.153   7.680   9.561  0.1232  0.0234 -1.4193
46109SOL     OW45187   5.422   4.097   6.234  0.3622 -0.0741  0.0704
46109SOL    HW145188   5.389   4.031   6.295  0.2559  1.5060  1.8367
46109SOL    HW245189   5.356   4.101   6.165 -0.2829 -0.9007  0.6130
46110SOL     OW45190   9.767   3.832   2.283  0.4536  0.0348 -0.0585
46110SOL    HW145191   9.827   3.859   2.214 -1.1538  1.3912 -0.9787
46110SOL    HW245192   9.697   3.786   2.238 -0.9536  1.4977  0.5281
46111SOL     OW45193   1.467   9.086   8.757 -0.0133 -0.0333  0.6924
46111SOL    HW145194   1.475   9.022   8.686 -1.5173  1.3587 -0.8114
46111SOL    HW245195   1.511   9.164   8.725  1.5483 -0.1261  2.3920
46112SOL     OW45196   7.275   1.021   6.280 -0.7092 -0.1115 -0.0917
46112SOL    HW145197   7.236   0.998   6.195 -1.3375 -0.4263  0.2757
46112SOL    HW245198   7.215   0.984   6.344  0.9514 -1.9123  0.5006
46113SOL     OW45199   6.642   8.378   9.459 -0.0896  0.3243 -0.3596
46113SOL    HW145200   6.715   8.439   9.470 -0.2237  0.7406 -1.6352
46113SOL    HW245201   6.683   8.292   9.451  0.1516  0.3450  0.5210
46114SOL     OW45202   5.759   4.047   0.173  0.4989  0.0506  0.3949
46114SOL    HW145203   5.696   4.046   0.245 -0.6732  0.7632 -0.5776
46114SOL    HW245204   5.705   4.050   0.094  1.7413  1.1503 -0.4646
46115SOL     OW45205   9.561   1.788  10.720  0.0450  0.2084  0.4507
46115SOL    HW145206   9.617   1.773  10.644  0.6791 -0.8019  1.0825
46115SOL    HW245207   9.608   1.747  10.793 -1.7145 -1.0917  0.9391
46116SOL     OW45208  10.425  12.155   2.029  0.1705  0.0275  0.8830
46116SOL    HW145209  10.517  12.134   2.045  0.4223 -0.5396 -0.9837
46116SOL    HW245210  10.377  12.076   2.052  0.2340  0.0563  1.1154
46117SOL     OW45211   2.754   9.662  11.413  0.1323 -0.3991  0.1605
46117SOL    HW145212   2.800   9.580  11.427 -0.5888 -0.8407 -0.0342
46117SOL    HW245213   2.668   9.650  11.454  0.4346  0.6827  1.1620
46118SOL     OW45214   7.965   3.416  11.760  0.0321  0.2793 -0.2836
46118SOL    HW145215   8.012   3.442  11.680 -0.0462  0.4030 -0.2911
46118SOL    HW245216   7.884   3.376  11.729  0.1553  0.0216 -0.2718
46119SOL     OW45217   9.832  11.729   0.340  0.0232  0.0601 -0.1980
46119SOL    HW145218   9.869  11.765   0.260 -0.6840  0.3460 -0.4070
46119SOL    HW245219   9.764  11.791   0.365 -0.8972 -0.8824 -0.2958
46120SOL     OW45220   6.607   4.779  12.249 -0.6300  0.3915  0.3150
46120SOL    HW145221   6.644   4.776  12.337 -0.8314  1.4666  0.4398
46120SOL    HW245222   6.600   4.872  12.228  0.9554  0.1739 -1.4948
46121SOL     OW45223   9.189   6.088   2.267  0.1741 -0.1514 -0.2898
46121SOL    HW145224   9.103   6.129   2.266  0.8481  1.3950  0.8823
46121SOL    HW245225   9.174   5.999   2.235 -2.2462 -0.6370  1.8917
46122SOL     OW45226   5.281   0.817   6.125  0.3207  0.2927  0.5925
46122SOL    HW145227   5.246   0.848   6.041 -1.1268 -2.1677  0.1675
46122SOL    HW245228   5.203   0.793   6.175  1.2273  0.4572  2.1368
46123SOL     OW45229   7.809   1.086   7.227 -0.3570  0.2607  0.0195
46123SOL    HW145230   7.791   1.139   7.150 -1.3290  0.4979  0.4035
46123SOL    HW245231   7.871   1.138   7.278  0.1340  0.1883 -0.4894
46124SOL     OW45232   2.796   8.334   8.700 -0.2303 -0.3375  0.7278
46124SOL    HW145233   2.717   8.350   8.649  0.7372 -0.8123 -0.9942
46124SOL    HW245234   2.795   8.239   8.715 -0.3396 -0.2440  1.3415
46125SOL     OW45235   1.483   5.673   1.416 -0.1272 -0.5404 -0.0464
46125SOL    HW145236   1.501   5.764   1.440  1.0189 -0.7722  0.0193
46125SOL    HW245237   1.438   5.636   1.492 -2.0021  0.3671 -0.6596
46126SOL     OW45238   4.047   7.913  11.745 -0.0138 -0.1763 -0.1709
46126SOL    HW145239   3.953   7.912  11.725  0.0611 -1.1588 -0.4762
46126SOL    HW245240   4.089   7.937  11.663  0.1111 -1.5086 -0.5125
46127SOL     OW45241   7.715   6.351  11.198 -0.3233 -0.1567 -0.3247
46127SOL    HW145242   7.624   6.325  11.211  0.1644 -1.7840  0.0615
46127SOL    HW245243   7.764   6.297  11.260  0.7398  2.1158  0.9331
46128SOL     OW45244   6.127   2.544   8.927  0.2916 -0.3552  0.1820
46128SOL    HW145245   6.137   2.564   9.020  2.9485  0.6397 -0.2257
46128SOL    HW245246   6.167   2.458   8.917  0.5496 -0.1999 -0.1263
46129SOL     OW45247  11.292  10.732   6.579 -0.0362  0.3067 -0.0496
46129SOL    HW145248  11.284  10.679   6.658  0.0515  1.6994  0.9420
46129SOL    HW245249  11.223  10.798   6.588 -0.7151 -0.1355 -1.6685
46130SOL     OW45250   3.743   4.782  11.122 -0.1549 -0.4211 -0.3769
46130SOL    HW145251   3.734   4.805  11.030 -1.1514 -0.9240 -0.4141
46130SOL    HW245252   3.673   4.719  11.138  0.5971 -1.0734  0.4823
46131SOL     OW45253   9.620   3.120   5.128  0.5112 -0.5245 -0.6022
46131SOL    HW145254   9.573   3.044   5.162  0.3906  0.2986  1.1768
46131SOL    HW245255   9.686   3.083   5.070 -0.3005 -1.9072 -0.6959
46132SOL     OW45256   7.732   0.603   5.149  0.2829 -0.1948  0.1963
46132SOL    HW145257   7.826   0.613   5.165  0.2612  1.0372 -0.2739
46132SOL    HW245258   7.724   0.606   5.054 -0.1652 -1.0668  0.2047
46133SOL     OW45259   7.757  12.411  11.494  0.1823  0.3435 -0.0059
46133SOL    HW145260   7.804  12.414  11.411 -0.9992 -2.0281 -0.8735
46133SOL    HW245261   7.690  12.479  11.487  1.0839  1.2018 -0.3383
46134SOL     OW45262   6.369   4.208   1.302  0.7267 -0.0026  0.1638
46134SOL    HW145263   6.283   4.247   1.286  0.9213 -0.0439 -1.0342
46134SOL    HW245264   6.358   4.159   1.384 -0.0331  1.0114  0.6943
46135SOL     OW45265   5.718   2.399   6.095 -0.4091  0.1556 -0.2137
46135SOL    HW145266   5.732   2.429   6.005 -0.5369  1.3925  0.1618
46135SOL    HW245267   5.631   2.359   6.095 -0.5447  0.4538 -0.5608
46136SOL     OW45268   9.634   8.999   7.724 -0.2915 -0.4448  0.0620
46136SOL    HW145269   9.550   8.957   7.741 -1.7723  1.8517 -1.1350
46136SOL    HW245270   9.676   9.004   7.810 -1.0691 -2.1545  0.5827
46137SOL     OW45271   3.179   5.977   8.412 -0.5695  0.0880 -0.6844
46137SOL    HW145272   3.245   6.042   8.436 -0.7496  0.0731 -0.1312
46137SOL    HW245273   3.112   6.027   8.365 -2.6078  1.1160  2.9706
46138SOL     OW45274   2.736   0.048  11.142  0.2984 -0.6925  0.4155
46138SOL    HW145275   2.715  -0.020  11.206  0.4275 -1.5092 -0.3764
46138SOL    HW245276   2.726   0.004  11.057 -0.2889  0.4806 -0.1367
46139SOL     OW45277   4.516   2.205   9.075  0.6414 -0.0544 -0.1951
46139SOL    HW145278   4.450   2.190   9.007 -0.6807 -1.3105  1.3000
46139SOL    HW245279   4.566   2.124   9.078  0.5277 -0.1086  0.4721
46140SOL     OW45280  10.701   1.424   2.363 -0.2434 -0.2418 -0.2359
46140SOL    HW145281  10.772   1.379   2.409  0.7140  0.2547 -1.1808
46140SOL    HW245282  10.715   1.517   2.380 -0.7907 -0.1529 -0.2567
46141SOL     OW45283   0.026   7.969  11.423  0.4062  0.3502 -0.3532
46141SOL    HW145284   0.099   8.030  11.410  1.2014 -0.1400  1.4159
46141SOL    HW245285   0.061   7.885  11.395 -0.5141  0.5532 -2.2834
46142SOL     OW45286   9.328   1.680   1.479  0.4806 -0.4630 -0.3495
46142SOL    HW145287   9.318   1.685   1.383  1.2567 -2.3658 -0.5834
46142SOL    HW245288   9.254   1.626   1.507 -0.2713  0.8491  0.2726
46143SOL     OW45289  10.585  11.910  10.201 -0.0064  0.3248  0.2049
46143SOL    HW145290  10.583  11.819  10.230  0.0905 -0.1175 -1.1310
46143SOL    HW245291  10.676  11.937  10.212  0.0026  0.2122  0.4217
46144SOL     OW45292   5.336  11.711  11.595  0.5728 -1.0165 -0.2884
46144SOL    HW145293   5.284  11.775  11.644  2.1932  0.0918  0.0573
46144SOL    HW245294   5.273  11.670  11.535 -0.2638  2.0111 -1.6631
46145SOL     OW45295   6.978   8.403   1.983  0.2045 -0.5579 -0.2865
46145SOL    HW145296   7.047   8.459   1.947  0.5658 -0.4108  0.6024
46145SOL    HW245297   6.900   8.425   1.932  0.5262  0.1858 -0.4722
46146SOL     OW45298   2.262   5.425  10.863 -0.1959  0.2210  0.1886
46146SOL    HW145299   2.355   5.404  10.872  0.1252  2.1885  2.7250
46146SOL    HW245300   2.260   5.496  10.798  0.3162  1.2479  1.2593
46147SOL     OW45301   4.035   1.045  10.313  0.0420 -0.0781  0.3523
46147SOL    HW145302   4.039   0.957  10.277  0.3635  0.3201 -0.6055
46147SOL    HW245303   4.125   1.066  10.336 -0.1595 -0.3373  1.4493
46148SOL     OW45304   7.086   9.257  11.183 -0.1448 -0.3963  0.5018
46148SOL    HW145305   6.991   9.262  11.170 -0.2872  0.5662  1.7600
46148SOL    HW245306   7.119   9.219  11.102 -1.6517 -1.2077  0.2349
46149SOL     OW45307   7.694   2.220  10.592 -0.1115  0.3889  0.0303
46149SOL    HW145308   7.691   2.173  10.509  0.8990 -0.0097  0.1928
46149SOL    HW245309   7.788   2.233  10.608 -0.3554  2.4087  0.0356
46150SOL     OW45310   3.136   9.998   1.409  0.1863 -0.2664 -0.9999
46150SOL    HW145311   3.199   9.939   1.449 -0.1407 -1.1175 -1.7058
46150SOL    HW245312   3.189  10.061   1.360  0.5089 -0.7011 -1.2141
46151SOL     OW45313   6.663   4.561   1.981  0.3600 -0.3321 -0.6913
46151SOL    HW145314   6.671   4.625   1.910 -0.0747 -0.7528 -1.1327
46151SOL    HW245315   6.588   4.507   1.955  0.8452 -1.1492 -0.4297
46152SOL     OW45316   8.069   9.108   0.644 -0.1620  0.1572  0.1079
46152SOL    HW145317   8.156   9.141   0.622  1.4310 -2.2530  2.1769
46152SOL    HW245318   8.073   9.015   0.622 -1.3278 -0.5101  2.4137
46153SOL     OW45319  11.467   8.720   1.064 -0.0623  0.1157  0.3343
46153SOL    HW145320  11.378   8.692   1.085 -0.1030  0.1208  0.1732
46153SOL    HW245321  11.507   8.642   1.025 -0.6622  0.7131 -1.5634
46154SOL     OW45322   0.598  10.038   3.798  0.1246 -0.6984 -0.4678
46154SOL    HW145323   0.515  10.083   3.789  0.0195 -0.7783  0.0606
46154SOL    HW245324   0.648  10.090   3.861  1.0632  0.1770 -1.8735
46155SOL     OW45325   7.405   7.193   7.163 -0.1673 -0.9280 -0.1308
46155SOL    HW145326   7.349   7.266   7.188 -0.4827 -0.9782 -0.6720
46155SOL    HW245327   7.466   7.183   7.237  1.1003  1.0537 -0.8340
46156SOL     OW45328   1.087   2.478  10.234 -0.4377  0.4838 -0.0370
46156SOL    HW145329   1.045   2.534  10.169 -1.3572 -0.8348 -0.6407
46156SOL    HW245330   1.061   2.515  10.318  0.8758  2.2851 -0.3793
46157SOL     OW45331   4.346  10.982   1.134  0.2179 -0.5608  0.2320
46157SOL    HW145332   4.400  10.912   1.098 -0.5586 -1.6851  1.1742
46157SOL    HW245333   4.363  10.980   1.228 -0.7625 -0.3517  0.4307
46158SOL     OW45334   5.162   3.654   2.698 -0.4382 -0.0480  0.2079
46158SOL    HW145335   5.173   3.678   2.606  1.2386 -2.6329 -0.3918
46158SOL    HW245336   5.067   3.649   2.711 -0.7055 -0.7049 -1.7328
46159SOL     OW45337   3.443  10.994   2.143 -0.0669  0.1737 -0.2982
46159SOL    HW145338   3.419  11.086   2.141  3.0585  1.1557 -3.2265
46159SOL    HW245339   3.394  10.955   2.070  0.8547  0.2868 -1.0011
46160SOL     OW45340   6.556   7.284   3.377 -1.2359 -0.2364  0.3091
46160SOL    HW145341   6.581   7.267   3.468  0.0281  0.4322  0.1082
46160SOL    HW245342   6.623   7.344   3.345 -3.1217  1.6462 -0.3014
46161SOL     OW45343   7.443   7.557   7.002  0.1507 -0.0188 -0.1466
46161SOL    HW145344   7.507   7.559   7.073 -0.1702 -0.1118  0.1527
46161SOL    HW245345   7.362   7.527   7.044  0.1227 -0.7361 -0.6868
46162SOL     OW45346   9.020   1.358  11.404  0.2762  0.2546  0.1527
46162SOL    HW145347   9.033   1.297  11.331  1.1347 -0.6096  0.9899
46162SOL    HW245348   9.094   1.419  11.397 -0.8483  1.5343 -0.9711
46163SOL     OW45349   7.055   5.569   6.382  0.2367  0.1861 -0.2472
46163SOL    HW145350   7.038   5.499   6.445 -1.0264  1.7507  1.2677
46163SOL    HW245351   7.025   5.534   6.298 -0.4169 -1.0547  0.4742
46164SOL     OW45352   0.306   6.252  11.697  0.7827  0.1615 -0.6384
46164SOL    HW145353   0.378   6.303  11.734 -1.8653  1.9901  2.5234
46164SOL    HW245354   0.235   6.314  11.686 -0.1034 -1.2682 -4.9818
46165SOL     OW45355   4.237   6.059  11.296  0.0459 -0.2790 -0.1023
46165SOL    HW145356   4.280   5.974  11.287 -0.7022 -0.5862 -1.0693
46165SOL    HW245357   4.272   6.112  11.224 -0.4942 -0.2287 -0.3338
46166SOL     OW45358   6.583  10.248   1.862  0.0695  0.3062  0.7180
46166SOL    HW145359   6.506  10.261   1.806  0.5189  1.3347  0.3107
46166SOL    HW245360   6.552  10.266   1.950 -0.2524  0.2956  0.6081
46167SOL     OW45361   9.868  11.462   1.001 -0.5691  0.7873 -0.2218
46167SOL    HW145362   9.829  11.489   0.918  1.3151  0.6401 -1.2059
46167SOL    HW245363   9.963  11.471   0.987 -0.2176  1.7840  2.2625
46168SOL     OW45364   8.898   1.182  11.806 -0.3413  0.3594  0.3975
46168SOL    HW145365   8.990   1.179  11.778 -0.9161  1.3025 -1.7274
46168SOL    HW245366   8.849   1.206  11.728 -2.4741 -0.4405  1.4024
46169SOL     OW45367   8.206   6.175   5.698  0.7106  0.7615 -0.1893
46169SOL    HW145368   8.286   6.123   5.699  0.3986  0.2807  0.0469
46169SOL    HW245369   8.136   6.113   5.721  0.3523  1.3100  0.2296
46170SOL     OW45370   9.069   9.240   3.569  0.2468  0.1622  0.4545
46170SOL    HW145371   9.026   9.206   3.491 -1.8905 -0.5129  1.8393
46170SOL    HW245372   9.090   9.331   3.548 -1.5398  0.3949 -0.4386
46171SOL     OW45373   0.278  11.424   7.259  0.1104  0.1943 -0.0311
46171SOL    HW145374   0.348  11.474   7.216  0.4706 -0.6471 -0.4312
46171SOL    HW245375   0.217  11.403   7.189  1.5179 -2.6096 -0.5264
46172SOL     OW45376   5.270   8.199  12.312  0.5389 -0.5483  0.2904
46172SOL    HW145377   5.278   8.187  12.407 -0.0810 -1.1292  0.2807
46172SOL    HW245378   5.325   8.275  12.292  1.8616 -1.2994  0.9038
46173SOL     OW45379   8.155   7.059   7.945 -0.1916 -0.9908  0.1618
46173SOL    HW145380   8.161   7.081   8.038  0.6985 -0.8759  0.0928
46173SOL    HW245381   8.185   6.968   7.940  1.4163 -0.4846 -0.1895
46174SOL     OW45382   0.337  10.139   0.163 -0.2761  0.0846 -0.0376
46174SOL    HW145383   0.361  10.231   0.153 -0.4050  0.1449  0.1982
46174SOL    HW245384   0.290  10.118   0.083  2.6696 -0.7334 -1.6562
46175SOL     OW45385   7.887  12.009   6.376  0.2756 -0.0934 -0.4300
46175SOL    HW145386   7.964  12.039   6.425  0.6572 -0.9489 -0.4758
46175SOL    HW245387   7.864  12.084   6.320  1.6969 -0.1410 -1.1420
46176SOL     OW45388   5.040   4.084   2.674  0.6766 -0.0906  0.3034
46176SOL    HW145389   5.106   4.016   2.665  0.3449 -0.4094  0.2231
46176SOL    HW245390   5.034   4.100   2.769 -0.4596 -1.4148  0.4897
46177SOL     OW45391   7.702  11.238   0.013 -0.5548  0.1408  0.2654
46177SOL    HW145392   7.793  11.212  -0.002 -0.3819  0.8528  0.0419
46177SOL    HW245393   7.676  11.283  -0.068 -1.5399 -1.1990 -0.2183
46178SOL     OW45394   6.454   2.936   8.247 -0.0659 -0.3645 -0.0814
46178SOL    HW145395   6.481   2.940   8.155  1.6150  0.8561  0.4118
46178SOL    HW245396   6.530   2.966   8.296 -1.0499 -0.6145  1.7110
46179SOL     OW45397   8.710   4.830   6.251 -0.3539  0.1497  0.7686
46179SOL    HW145398   8.715   4.865   6.340  0.0319  0.2483  0.7086
46179SOL    HW245399   8.618   4.805   6.241 -0.5925  0.9340  0.8936
46180SOL     OW45400   4.930   6.259   1.874 -0.0445  0.1639 -0.0819
46180SOL    HW145401   4.985   6.313   1.931  1.0197  0.4770 -1.3431
46180SOL    HW245402   4.911   6.315   1.799  0.6268 -1.0178 -1.1693
46181SOL     OW45403   9.992  10.523   0.043  0.0725  0.1043  0.4752
46181SOL    HW145404  10.080  10.512   0.078 -0.3882 -1.0935  1.3221
46181SOL    HW245405   9.949  10.582   0.105  0.5486  1.4981 -0.4754
46182SOL     OW45406   6.094  10.317  11.219 -0.3470  0.3360  0.4479
46182SOL    HW145407   6.097  10.346  11.310 -0.2519  0.1992  0.4893
46182SOL    HW245408   6.149  10.380  11.172 -0.4571  0.4519  0.4727
46183SOL     OW45409   6.229   2.411   4.586 -0.5481  0.6568 -0.3752
46183SOL    HW145410   6.219   2.485   4.525 -0.7464  0.1753 -0.9373
46183SOL    HW245411   6.157   2.352   4.563 -0.6375  0.4777  0.3512
46184SOL     OW45412   8.984   4.566   8.561  0.5143 -0.7974 -0.1619
46184SOL    HW145413   8.955   4.549   8.471  1.0669  1.8888 -0.9155
46184SOL    HW245414   8.921   4.519   8.615 -2.6041  1.1503 -1.8477
46185SOL     OW45415  12.247  10.098  11.010  0.0987 -0.4418 -0.0463
46185SOL    HW145416  12.291  10.130  10.931  0.5773 -1.5576 -0.2513
46185SOL    HW245417  12.288  10.147  11.082  1.5603 -1.3229 -0.2524
46186SOL     OW45418   0.658   3.586   4.142 -0.3368  0.6152 -0.1960
46186SOL    HW145419   0.660   3.505   4.193  1.2218  0.8942  0.2488
46186SOL    HW245420   0.737   3.581   4.087 -1.6053  0.6419 -2.1094
46187SOL     OW45421   5.097   4.082  11.048 -0.0734 -0.7091  0.2649
46187SOL    HW145422   5.109   4.016  10.980  0.8820  0.9708 -1.3014
46187SOL    HW245423   5.153   4.155  11.021  0.5537 -0.0452  3.0090
46188SOL     OW45424   0.371   0.575  11.835 -0.2167 -0.4641 -0.4663
46188SOL    HW145425   0.372   0.486  11.800  1.3060 -0.6194 -0.1209
46188SOL    HW245426   0.368   0.563  11.930 -1.0850 -0.1124 -0.4419
46189SOL     OW45427   9.149   3.319  10.921 -0.2176 -0.7318  0.1981
46189SOL    HW145428   9.094   3.279  10.988 -1.3520  1.2692  0.5546
46189SOL    HW245429   9.116   3.284  10.839 -1.0017 -0.7533  0.5101
46190SOL     OW45430   4.806   6.781   8.145 -0.7277  0.4836 -0.1315
46190SOL    HW145431   4.724   6.814   8.182 -0.6690 -0.8004  1.2077
46190SOL    HW245432   4.804   6.687   8.163  1.2560  0.5045  0.3719
46191SOL     OW45433  12.045   7.956  11.023  0.6600  0.6916 -0.3051
46191SOL    HW145434  12.128   8.003  11.031  0.4979  0.9573 -0.2045
46191SOL    HW245435  11.978   8.024  11.021  0.5404  0.5627 -1.9624
46192SOL     OW45436   3.496   6.023   0.204  0.5483  0.2120  0.1317
46192SOL    HW145437   3.416   6.067   0.176  1.0600  0.3683 -1.1500
46192SOL    HW245438   3.508   6.050   0.295 -0.4448  0.7709  0.1086
46193SOL     OW45439  10.710  10.878   7.184  0.3733 -0.2180  0.2143
46193SOL    HW145440  10.747  10.804   7.233  0.5704  0.7603  1.6170
46193SOL    HW245441  10.669  10.932   7.251 -0.5648  0.4870 -0.9057
46194SOL     OW45442   4.382   0.131   2.399 -0.3791 -0.6099  0.4220
46194SOL    HW145443   4.440   0.085   2.459 -0.0600  0.3514  0.8689
46194SOL    HW245444   4.303   0.149   2.451  0.5394  1.6837  1.1159
46195SOL     OW45445   2.981   8.449   1.004  0.1406  0.7786  0.3407
46195SOL    HW145446   2.924   8.517   1.041 -0.8922 -1.1053  2.4564
46195SOL    HW245447   3.027   8.413   1.080  1.7870  0.0646 -0.9336
46196SOL     OW45448   5.829   4.667   4.274 -0.7714 -0.5312  0.1062
46196SOL    HW145449   5.869   4.730   4.333 -1.8275  0.5209 -0.2778
46196SOL    HW245450   5.794   4.599   4.332 -0.0123 -0.5591  0.5455
46197SOL     OW45451   2.592   8.030   8.116  0.4673  0.2791  0.6587
46197SOL    HW145452   2.516   8.034   8.058  1.0329  0.2569 -0.1051
46197SOL    HW245453   2.588   7.942   8.154 -0.2271  0.4964  1.1089
46198SOL     OW45454   2.078   4.490   9.042 -0.1081  0.0403 -0.6376
46198SOL    HW145455   2.106   4.402   9.016  1.2965 -0.1784  1.3734
46198SOL    HW245456   2.073   4.539   8.960  1.0247 -1.3810 -1.6050
46199SOL     OW45457   9.221   1.436   4.955 -0.0573 -0.3229  0.4986
46199SOL    HW145458   9.269   1.451   4.873 -0.9254  2.6773  0.3937
46199SOL    HW245459   9.157   1.507   4.958 -0.3545 -0.5852  3.5657
46200SOL     OW45460   5.345   6.279   6.540 -0.2390 -0.1093 -0.8043
46200SOL    HW145461   5.372   6.273   6.631 -0.3259  0.7030 -0.7168
46200SOL    HW245462   5.424   6.260   6.490 -0.3894 -1.4418 -0.5830
46201SOL     OW45463   6.090   6.979   3.193 -0.1902 -0.1028  0.3146
46201SOL    HW145464   6.177   7.019   3.191 -0.3255  0.1934  0.3410
46201SOL    HW245465   6.072   6.965   3.286 -0.4431  0.4328  0.3474
46202SOL     OW45466   3.093   4.128   3.233  0.3167  0.2043  0.6885
46202SOL    HW145467   3.026   4.067   3.204  0.4356  0.3526  0.0847
46202SOL    HW245468   3.045   4.204   3.267  0.1675  0.8730 -0.9493
46203SOL     OW45469  11.772   0.336   3.864  0.4009 -0.1355 -0.3050
46203SOL    HW145470  11.727   0.412   3.901  0.4202  0.0654 -0.6899
46203SOL    HW245471  11.803   0.287   3.940 -1.6238 -1.0057  0.0446
46204SOL     OW45472  10.860   0.543   4.434  0.4069 -0.2688 -0.7347
46204SOL    HW145473  10.910   0.520   4.356  0.7948  0.5021 -0.7211
46204SOL    HW245474  10.793   0.603   4.404  1.4197  1.1399 -0.2823
46205SOL     OW45475   9.416   7.011   0.289 -0.6814  0.1677 -0.4111
46205SOL    HW145476   9.476   7.036   0.359 -1.0461  0.9976 -0.3858
46205SOL    HW245477   9.334   6.992   0.334 -0.0541 -2.5796 -0.2476
46206SOL     OW45478   3.171   5.867   0.744  0.0797  0.0647  0.5481
46206SOL    HW145479   3.235   5.916   0.692  0.2497  0.1893  0.8781
46206SOL    HW245480   3.182   5.899   0.833  0.0195 -0.3969  0.7227
46207SOL     OW45481  12.191   5.305   9.987  0.0120  0.0253 -0.4094
46207SOL    HW145482  12.212   5.240   9.920 -1.8002  0.6974 -1.7162
46207SOL    HW245483  12.238   5.383   9.959  3.3177 -0.9211  1.9001
46208SOL     OW45484  12.240   3.133   4.502 -0.0496  0.4286  0.6283
46208SOL    HW145485  12.298   3.130   4.426  0.0380  1.0487  0.6670
46208SOL    HW245486  12.155   3.105   4.468  0.3478 -0.9023  0.6616
46209SOL     OW45487   3.885   3.609   8.186  0.4165 -0.5950 -0.0035
46209SOL    HW145488   3.795   3.636   8.205  0.3043 -1.0329  0.0991
46209SOL    HW245489   3.933   3.626   8.266  0.7201  0.8628 -0.4631
46210SOL     OW45490   4.284   5.213   4.130 -0.0548 -0.3612  0.5017
46210SOL    HW145491   4.244   5.197   4.045 -1.6657  0.8776  0.9611
46210SOL    HW245492   4.371   5.173   4.125 -0.7065 -1.6425 -1.1643
46211SOL     OW45493   7.703  10.399   9.069  0.1839 -0.0123  0.4629
46211SOL    HW145494   7.630  10.349   9.033 -0.2652  1.1058 -0.2262
46211SOL    HW245495   7.662  10.465   9.125  0.7386 -0.0996  0.9840
46212SOL     OW45496  10.083   0.144  10.590 -0.2898 -0.0102  0.9303
46212SOL    HW145497  10.133   0.067  10.565 -0.5448  0.6232 -1.8769
46212SOL    HW245498   9.996   0.130  10.553 -0.8928  0.8428  1.9483
46213SOL     OW45499   6.474   1.037   6.005  0.6739 -0.6066  0.4273
46213SOL    HW145500   6.417   0.973   5.963 -1.2271  0.8789  0.6140
46213SOL    HW245501   6.490   1.103   5.939 -1.4482  1.1881  1.5815
46214SOL     OW45502   2.699   8.692   9.429 -0.2241 -0.2423  0.0328
46214SOL    HW145503   2.674   8.602   9.445 -3.7120  0.5798  0.0116
46214SOL    HW245504   2.633   8.725   9.367  0.9936  2.2872 -0.0599
46215SOL     OW45505   4.536   1.374   3.997  0.2582  0.3277 -0.1487
46215SOL    HW145506   4.557   1.368   3.904 -0.9976  2.3026 -0.6090
46215SOL    HW245507   4.447   1.410   4.000  0.0397 -0.2329  1.8237
46216SOL     OW45508  10.790   7.957  10.418  0.1535 -0.1555 -0.3908
46216SOL    HW145509  10.786   7.899  10.495 -1.7484  0.1110 -0.2599
46216SOL    HW245510  10.873   8.004  10.429  0.1910 -0.5230  1.2185
46217SOL     OW45511   2.261   5.270   5.028 -0.4673  0.5551  0.0475
46217SOL    HW145512   2.232   5.343   4.973 -0.3117  0.5462 -0.0491
46217SOL    HW245513   2.183   5.242   5.074 -0.6843  0.3140 -0.4594
46218SOL     OW45514   8.174   6.519   7.959 -0.2359 -0.4604  0.2521
46218SOL    HW145515   8.118   6.532   7.883 -0.0431 -0.7041  0.0683
46218SOL    HW245516   8.121   6.465   8.018 -0.2741 -0.5115  0.1712
46219SOL     OW45517   5.741   5.921   5.249  0.3192 -0.3989  0.0390
46219SOL    HW145518   5.728   5.839   5.202  0.9187  0.3421 -1.5152
46219SOL    HW245519   5.795   5.898   5.324  1.6749 -1.2347 -1.1396
46220SOL     OW45520   2.619   7.956   0.795  0.0185  0.1741 -0.4327
46220SOL    HW145521   2.653   7.915   0.875 -0.0433  0.5506 -0.2082
46220SOL    HW245522   2.556   8.021   0.827  0.5091  0.8236 -0.7467
46221SOL     OW45523   5.062   5.990   7.163  0.0758 -0.1374 -0.4028
46221SOL    HW145524   5.056   6.004   7.257 -0.6882  0.6008 -0.5437
46221SOL    HW245525   4.981   6.028   7.128  1.1233  1.1868 -1.5269
46222SOL     OW45526   7.945   8.312   7.323 -0.3227  0.1123  0.5279
46222SOL    HW145527   7.915   8.348   7.406 -0.7307  0.6879  0.1382
46222SOL    HW245528   7.892   8.357   7.257 -1.0955 -1.4508  0.0419
46223SOL     OW45529   1.861   2.404   1.346 -0.1099 -0.3449 -0.0506
46223SOL    HW145530   1.770   2.401   1.374  0.2261 -1.0527  1.0779
46223SOL    HW245531   1.891   2.492   1.370 -1.0477  0.6762 -2.4121
46224SOL     OW45532   1.954   6.745  10.948  0.0841  0.1643 -0.6688
46224SOL    HW145533   2.035   6.765  10.996 -0.5812  0.2952  0.4375
46224SOL    HW245534   1.928   6.829  10.910 -0.8984  0.7546  1.1666
46225SOL     OW45535   5.614   6.288   1.141  0.2880  0.0433 -0.0130
46225SOL    HW145536   5.625   6.357   1.076 -1.5530  0.0684 -0.3484
46225SOL    HW245537   5.688   6.299   1.201  2.3460 -0.2845 -2.3168
46226SOL     OW45538   6.298   5.271   7.700  0.2199 -0.1472  0.6962
46226SOL    HW145539   6.328   5.350   7.743 -0.6067 -0.1137  1.2426
46226SOL    HW245540   6.360   5.257   7.629  2.2601 -0.8071  2.5127
46227SOL     OW45541  11.256   8.034   5.270 -0.3613 -0.2481 -0.4642
46227SOL    HW145542  11.243   8.092   5.346 -0.5064 -0.6785 -0.1572
46227SOL    HW245543  11.334   7.984   5.291 -1.3265 -1.5578  0.1709
46228SOL     OW45544   0.229   7.566   4.748 -0.0242  0.1228 -0.9400
46228SOL    HW145545   0.194   7.642   4.795 -1.6128 -0.4677 -1.0840
46228SOL    HW245546   0.203   7.581   4.657  0.6041 -0.0695 -1.1509
46229SOL     OW45547  11.276   2.525   8.211  0.8921 -0.4392  0.1545
46229SOL    HW145548  11.239   2.596   8.158 -1.8795 -1.3908  0.6431
46229SOL    HW245549  11.369   2.547   8.218  0.3871  2.4894 -0.6860
46230SOL     OW45550   7.162  11.463   9.741 -0.2708 -0.1502 -0.0372
46230SOL    HW145551   7.235  11.520   9.765  0.6147 -1.2385 -0.0463
46230SOL    HW245552   7.153  11.473   9.647  1.3293 -1.5951 -0.4072
46231SOL     OW45553   8.291   2.435   5.296 -0.4413  0.4811 -0.5945
46231SOL    HW145554   8.270   2.377   5.369  0.1046  1.2948  0.2285
46231SOL    HW245555   8.277   2.381   5.218  0.6435 -0.9422  0.1564
46232SOL     OW45556   4.118   9.858   3.895  0.0443 -0.0998 -0.0610
46232SOL    HW145557   4.129   9.885   3.986 -0.6206  1.7244 -0.4739
46232SOL    HW245558   4.027   9.880   3.875  0.4890  0.5638 -1.4658
46233SOL     OW45559  12.434  11.914  12.394  0.2100  0.2442  0.0448
46233SOL    HW145560  12.444  11.888  12.302 -0.0871  1.2579 -0.2913
46233SOL    HW245561  12.342  11.939  12.402 -0.2211 -1.5366  1.0955
46234SOL     OW45562   7.948  12.302   1.730  0.3313 -0.2152  0.4120
46234SOL    HW145563   7.943  12.279   1.823 -2.6591 -1.8946 -0.0449
46234SOL    HW245564   8.007  12.236   1.692 -2.4191 -2.8644  0.3768
46235SOL     OW45565   0.576   1.331   3.778  0.5855  0.4519  0.2513
46235SOL    HW145566   0.655   1.282   3.756 -0.2490 -1.0588  0.4968
46235SOL    HW245567   0.543   1.290   3.858 -0.5967  0.8689  0.0008
46236SOL     OW45568   7.943   0.082   4.646 -0.1627  0.5504  0.2798
46236SOL    HW145569   7.997   0.162   4.647  1.1909 -0.3181 -0.4314
46236SOL    HW245570   7.940   0.055   4.738  1.2027  0.2637  0.2657
46237SOL     OW45571   9.668   5.782   0.335 -0.2168 -0.5462  0.1390
46237SOL    HW145572   9.625   5.756   0.254  0.1782 -0.5533 -0.0718
46237SOL    HW245573   9.629   5.867   0.357  0.3914 -0.0608 -0.6071
46238SOL     OW45574   8.287   0.898   6.381 -0.3015  0.0640 -0.6149
46238SOL    HW145575   8.258   0.842   6.309 -1.0988  0.8335 -0.9103
46238SOL    HW245576   8.340   0.841   6.436  0.2272 -0.5678 -1.7526
46239SOL     OW45577  11.615   2.213   3.453 -0.5695 -0.1359  0.3429
46239SOL    HW145578  11.659   2.128   3.462 -0.3128 -0.0379  0.0110
46239SOL    HW245579  11.674   2.275   3.495  0.4592  0.2665 -1.6080
46240SOL     OW45580  10.143   7.307   2.690 -0.4461  0.0301 -0.4867
46240SOL    HW145581  10.067   7.283   2.744 -0.2838 -1.2132 -0.7698
46240SOL    HW245582  10.216   7.256   2.727 -0.1492 -0.1785 -1.3288
46241SOL     OW45583   6.753   2.676   2.661 -0.0368  0.3341 -0.2446
46241SOL    HW145584   6.839   2.641   2.641 -0.5159 -0.5750 -0.7736
46241SOL    HW245585   6.769   2.740   2.731  1.1257  0.6119 -0.7429
46242SOL     OW45586  11.230   4.798   5.650 -0.3446 -0.4891 -0.6887
46242SOL    HW145587  11.232   4.724   5.589 -0.5427  0.2703 -1.6298
46242SOL    HW245588  11.256   4.874   5.598  0.9290 -0.0511  0.5258
46243SOL     OW45589   5.074   7.184   7.251 -0.3301 -0.4871  0.2600
46243SOL    HW145590   5.145   7.125   7.276 -2.0184 -2.1508  1.3415
46243SOL    HW245591   5.004   7.126   7.222 -1.5751  1.0559  0.0837
46244SOL     OW45592   1.000  11.129  10.480  0.8141  0.2460 -0.3544
46244SOL    HW145593   0.984  11.089  10.566  1.2636  1.0055  0.1023
46244SOL    HW245594   0.929  11.193  10.470  0.4781 -0.1880 -0.7778
46245SOL     OW45595  12.455  12.084   8.942  0.1396 -0.0283  0.1279
46245SOL    HW145596  12.401  12.122   8.872 -0.8525 -3.2419 -1.0715
46245SOL    HW245597  12.401  12.092   9.021 -2.0523 -2.6429 -0.9335
46246SOL     OW45598   6.404   3.926  10.654  0.3436  0.0927  0.3277
46246SOL    HW145599   6.373   4.009  10.618  0.1723 -0.4261 -0.7688
46246SOL    HW245600   6.347   3.860  10.614  1.4615 -0.6913 -0.0223
46247SOL     OW45601   2.989  11.883   3.211  0.8679 -0.2447 -0.4992
46247SOL    HW145602   3.039  11.897   3.130  0.2746 -0.3986 -0.9032
46247SOL    HW245603   3.002  11.963   3.261 -0.2003  0.6268 -1.5436
46248SOL     OW45604   7.886   3.672   0.050  0.5246 -0.2387  0.2333
46248SOL    HW145605   7.855   3.617   0.122 -0.0241  0.3820  0.4852
46248SOL    HW245606   7.834   3.644  -0.026  1.2592 -1.0468  0.0058
46249SOL     OW45607   3.790   1.751  10.625 -0.0834 -0.4394 -0.7935
46249SOL    HW145608   3.793   1.832  10.677  0.0871  0.2239 -1.8226
46249SOL    HW245609   3.696   1.734  10.614 -0.1472 -1.2849  0.7719
46250SOL     OW45610   6.117   0.467   5.794  0.1040 -0.0046 -0.4470
46250SOL    HW145611   6.209   0.477   5.770  0.1158  1.8025  0.1976
46250SOL    HW245612   6.088   0.556   5.813 -1.3035 -0.7447  1.0668
46251SOL     OW45613   5.398   7.989  12.066 -0.8211  0.6060 -0.0061
46251SOL    HW145614   5.414   8.010  11.974  0.7467 -0.7690 -0.0976
46251SOL    HW245615   5.484   7.999  12.108 -1.4314  0.8053  1.2270
46252SOL     OW45616   9.460   1.114   8.798  0.1417 -0.5780  0.6435
46252SOL    HW145617   9.507   1.144   8.876 -0.8452 -0.5560  1.2546
46252SOL    HW245618   9.370   1.144   8.812 -0.3829 -1.8755  0.2098
46253SOL     OW45619   2.852   8.763   6.516 -0.7493  0.0454  0.0838
46253SOL    HW145620   2.815   8.691   6.465  1.4430 -1.9068  1.0870
46253SOL    HW245621   2.896   8.818   6.452 -1.6626  0.0232 -0.5895
46254SOL     OW45622  11.510   6.592  11.185 -0.2458  0.3804  0.2291
46254SOL    HW145623  11.490   6.542  11.264  1.6070  0.2059  0.6422
46254SOL    HW245624  11.458   6.550  11.117  1.2258 -2.2285  0.5508
46255SOL     OW45625   5.635  12.367   5.810  0.5461  0.0137  0.5776
46255SOL    HW145626   5.706  12.427   5.789  1.8905 -1.1746  1.5488
46255SOL    HW245627   5.556  12.411   5.778  1.7723  1.0643 -1.1333
46256SOL     OW45628   7.573  12.193   8.021 -0.6224 -0.3350 -0.0609
46256SOL    HW145629   7.578  12.109   8.067  1.1146 -0.4260 -0.3642
46256SOL    HW245630   7.588  12.171   7.929 -0.9779  0.2170 -0.2569
46257SOL     OW45631   2.778   0.048   3.761 -0.4389  0.4405  0.2826
46257SOL    HW145632   2.803   0.006   3.843 -3.0328  0.2464  1.0858
46257SOL    HW245633   2.806  -0.012   3.693  1.1123  0.2480  1.0546
46258SOL     OW45634   8.615  11.351   4.595  0.3589  0.9283 -0.3827
46258SOL    HW145635   8.628  11.331   4.688 -1.2893  0.3324 -0.2381
46258SOL    HW245636   8.703  11.357   4.559  1.0687 -1.9673  0.5838
46259SOL     OW45637  10.510   5.121   9.812 -0.5272 -0.2241  0.2198
46259SOL    HW145638  10.470   5.041   9.777 -3.8823  1.2022  0.4279
46259SOL    HW245639  10.499   5.186   9.744 -0.4813  0.7851  1.1497
46260SOL     OW45640   9.992   9.479  12.388 -0.2031 -0.5736 -0.8566
46260SOL    HW145641  10.059   9.498  12.322 -1.0738  1.1724 -1.3037
46260SOL    HW245642  10.033   9.499  12.472 -0.5634  1.9831 -1.2195
46261SOL     OW45643  10.540   9.009   3.089  0.1773 -0.3541  0.5217
46261SOL    HW145644  10.584   8.961   3.160  0.0609 -0.8335  0.2767
46261SOL    HW245645  10.572   8.967   3.009 -1.2285 -1.1713  0.3583
46262SOL     OW45646   4.113   3.450   4.007 -0.0930  0.0648  0.3772
46262SOL    HW145647   4.116   3.510   4.082 -0.5367 -0.6968  1.0295
46262SOL    HW245648   4.200   3.455   3.968  0.2079  0.3219  1.0672
46263SOL     OW45649   7.354   5.129   7.358  0.5261 -0.5618  0.3962
46263SOL    HW145650   7.374   5.211   7.404  0.8755 -0.3274 -0.1549
46263SOL    HW245651   7.405   5.135   7.277 -0.6834 -0.6149 -0.3803
46264SOL     OW45652   9.392   2.863   9.797 -0.4552 -0.3980  0.6040
46264SOL    HW145653   9.351   2.921   9.734 -1.7232 -1.0010  0.8254
46264SOL    HW245654   9.380   2.906   9.882  2.2586  0.9679  0.3765
46265SOL     OW45655   5.175   9.759  12.108 -0.2493  0.3074 -0.8208
46265SOL    HW145656   5.207   9.781  12.196  0.0506  0.9188 -1.0725
46265SOL    HW245657   5.117   9.832  12.085 -0.1862  0.2417 -1.1953
46266SOL     OW45658  10.771   5.525   4.034  0.5142 -0.4267  0.1021
46266SOL    HW145659  10.701   5.590   4.027  2.0572  1.2141 -1.3965
46266SOL    HW245660  10.804   5.535   4.123  1.4387  1.7534 -0.4052
46267SOL     OW45661   4.592  11.652  12.455 -0.4788 -0.4836  0.0696
46267SOL    HW145662   4.503  11.685  12.468 -0.0053  0.8342  0.0697
46267SOL    HW245663   4.591  11.565  12.497 -2.0010 -0.8953 -0.7153
46268SOL     OW45664   6.384   7.928   4.844  0.2041  0.1176  0.1913
46268SOL    HW145665   6.460   7.986   4.842  0.7177 -0.5455  0.2143
46268SOL    HW245666   6.420   7.842   4.866 -0.0497 -0.9776 -3.0938
46269SOL     OW45667   1.299  10.494   8.658 -0.1791 -0.0813 -0.2139
46269SOL    HW145668   1.281  10.581   8.696  0.2284 -0.3454  0.6026
46269SOL    HW245669   1.394  10.491   8.650 -0.0889 -0.9202  0.9336
46270SOL     OW45670   3.457   2.538  12.141 -0.7025 -0.2201 -0.0098
46270SOL    HW145671   3.503   2.455  12.158 -0.7117  0.0514  1.4885
46270SOL    HW245672   3.471   2.590  12.220 -0.7864  1.1891 -0.8846
46271SOL     OW45673   8.709   1.826   8.713  0.1580  0.1812 -0.2261
46271SOL    HW145674   8.756   1.791   8.638 -0.3738 -1.0352 -0.0134
46271SOL    HW245675   8.728   1.920   8.712 -0.1263  0.2453 -2.0877
46272SOL     OW45676   9.583   0.597   2.903 -0.3571  0.1448 -0.0931
46272SOL    HW145677   9.656   0.640   2.858 -0.3079 -0.5989 -0.7506
46272SOL    HW245678   9.584   0.634   2.991  1.7094 -0.8687  0.3783
46273SOL     OW45679  10.933   2.011  11.893  0.1748 -0.4346  0.6269
46273SOL    HW145680  10.936   1.916  11.905  3.1578 -0.2344  2.6069
46273SOL    HW245681  10.907   2.045  11.979 -0.0762  0.5780  0.1650
46274SOL     OW45682   0.231  12.166   2.704 -0.2071  1.2692 -0.1759
46274SOL    HW145683   0.270  12.147   2.789 -1.1869  2.6288  0.6130
46274SOL    HW245684   0.302  12.205   2.653  0.5626 -0.1458 -0.2424
46275SOL     OW45685   5.401   8.552  10.755  0.0914  0.2545 -0.2218
46275SOL    HW145686   5.374   8.462  10.741  2.1668 -0.6499  1.1181
46275SOL    HW245687   5.319   8.599  10.776 -1.0550 -1.2089 -1.2430
46276SOL     OW45688   5.846   4.712   2.451  0.1185 -0.3244 -0.0533
46276SOL    HW145689   5.756   4.683   2.458  0.3250 -1.1708 -0.7744
46276SOL    HW245690   5.881   4.704   2.540 -0.4593 -0.1401  0.1959
46277SOL     OW45691   3.726   7.702   1.439  0.4580  0.5847 -0.4782
46277SOL    HW145692   3.777   7.631   1.399 -1.5945 -1.6916  0.6677
46277SOL    HW245693   3.668   7.732   1.370 -0.8174 -1.0840 -0.1927
46278SOL     OW45694   5.438   2.075   1.099 -0.3328 -0.1166  0.3325
46278SOL    HW145695   5.343   2.072   1.089 -0.3525 -1.4671  0.8476
46278SOL    HW245696   5.471   2.001   1.047  0.2597 -1.0464  1.9735
46279SOL     OW45697   4.508   4.887   6.411 -0.0570  0.2005  0.7639
46279SOL    HW145698   4.591   4.899   6.457  0.0167 -0.0819  0.7082
46279SOL    HW245699   4.489   4.794   6.422 -0.0199  0.1219  0.1888
46280SOL     OW45700  10.261   0.219   1.604 -0.6547  0.1820  0.4673
46280SOL    HW145701  10.215   0.262   1.677  0.1959  0.8000  0.6485
46280SOL    HW245702  10.299   0.291   1.554  1.4766 -0.3660  1.2248
46281SOL     OW45703   7.505   5.602   0.980 -0.1585  0.2979  0.0322
46281SOL    HW145704   7.431   5.559   0.938 -0.5409 -0.2038  1.1994
46281SOL    HW245705   7.576   5.596   0.915 -0.4511 -1.3183 -0.1839
46282SOL     OW45706  11.965   6.470  12.275 -0.2740 -0.2763 -0.4251
46282SOL    HW145707  11.995   6.506  12.191 -0.8867 -0.0331 -0.5477
46282SOL    HW245708  11.875   6.443  12.258  0.0129 -1.4167 -0.1899
46283SOL     OW45709   0.843   6.759   6.279 -0.5974 -0.0676 -0.3152
46283SOL    HW145710   0.878   6.805   6.203  1.5940 -0.7331  0.2070
46283SOL    HW245711   0.847   6.666   6.254 -2.9257 -0.1578 -0.5534
46284SOL     OW45712   5.323   9.444   1.811 -0.6131 -0.0516 -0.6665
46284SOL    HW145713   5.318   9.407   1.899 -0.9436 -0.7367 -0.9572
46284SOL    HW245714   5.367   9.528   1.821 -1.7532  0.4473  0.3209
46285SOL     OW45715   8.047   3.320   5.551 -0.5928  0.5129  0.2980
46285SOL    HW145716   8.111   3.370   5.602 -0.8139  0.9029  0.1981
46285SOL    HW245717   7.976   3.382   5.536 -1.2810 -0.1131  0.9556
46286SOL     OW45718   7.103   4.793   3.644  0.4301  0.0221 -0.4466
46286SOL    HW145719   7.036   4.855   3.616 -0.2087 -0.9285 -1.0682
46286SOL    HW245720   7.166   4.792   3.572  0.4722 -0.0109 -0.4093
46287SOL     OW45721   5.895   9.524   4.055 -0.0024  0.3067 -0.1371
46287SOL    HW145722   5.921   9.616   4.047  0.2427  0.3761  1.2383
46287SOL    HW245723   5.974   9.479   4.082 -0.6041  0.0537  1.2824
46288SOL     OW45724   2.487  10.750   8.108 -0.1604 -0.2250 -0.4748
46288SOL    HW145725   2.452  10.811   8.043  0.9509 -0.4286 -1.2789
46288SOL    HW245726   2.444  10.776   8.190 -1.9129 -0.2342 -1.3380
46289SOL     OW45727   4.498  11.268   6.136 -0.1264  0.4771 -0.7162
46289SOL    HW145728   4.499  11.349   6.186  0.1118  0.2255 -0.3045
46289SOL    HW245729   4.543  11.205   6.192 -3.1795 -0.8366  0.5011
46290SOL     OW45730   8.040   9.027   9.059  0.4985 -0.1358 -0.8101
46290SOL    HW145731   7.995   9.009   9.142  0.6739 -1.2789 -0.9380
46290SOL    HW245732   8.087   8.946   9.040  0.3240  0.0503 -2.1123
46291SOL     OW45733   2.227   0.785  11.033  0.1173 -0.3186  0.6106
46291SOL    HW145734   2.257   0.703  10.994  0.4656 -0.7918  1.8169
46291SOL    HW245735   2.307   0.825  11.069 -0.3880 -0.6966  2.2409
46292SOL     OW45736   0.575   4.870   2.336  0.4254 -0.0054  0.3111
46292SOL    HW145737   0.526   4.951   2.347 -0.0178 -0.3126  0.6397
46292SOL    HW245738   0.509   4.801   2.339  0.2806 -0.2441 -3.4907
46293SOL     OW45739  10.561   9.026   5.697 -0.2337  0.1750  0.5234
46293SOL    HW145740  10.637   9.047   5.752 -0.7765  0.2706  1.2542
46293SOL    HW245741  10.572   9.081   5.619  1.6675 -1.5014 -0.4964
46294SOL     OW45742  12.184   5.943   7.880  0.2018 -0.3332  0.2204
46294SOL    HW145743  12.215   6.016   7.826 -2.7184  1.2649  0.4610
46294SOL    HW245744  12.159   5.875   7.817  0.4872 -0.0590 -0.1909
46295SOL     OW45745   0.229   4.818   6.494 -0.2651 -0.3080 -0.4208
46295SOL    HW145746   0.215   4.823   6.400 -0.1236  1.1701 -0.3787
46295SOL    HW245747   0.140   4.816   6.531 -0.3982  2.0548 -0.4799
46296SOL     OW45748   9.901   0.413   3.198  0.1916  0.2226  0.0458
46296SOL    HW145749   9.885   0.507   3.196 -1.2401  0.0636  1.9839
46296SOL    HW245750   9.832   0.377   3.254 -0.9664 -2.3462 -2.7400
46297SOL     OW45751  11.725   5.094  11.934  0.4431 -0.6641  0.3011
46297SOL    HW145752  11.699   5.030  12.001 -1.5909  0.8648  1.0835
46297SOL    HW245753  11.769   5.042  11.867 -1.6199 -3.0089  0.6143
46298SOL     OW45754  11.667   1.226   1.965 -0.1636  0.0319  0.0743
46298SOL    HW145755  11.719   1.287   1.912 -0.6270 -0.8910 -1.5021
46298SOL    HW245756  11.590   1.207   1.911 -2.1973  1.3216  2.3089
46299SOL     OW45757   7.313   9.323   4.056 -0.4510  0.3634 -0.5095
46299SOL    HW145758   7.252   9.265   4.102 -0.7842  0.6683 -0.5592
46299SOL    HW245759   7.307   9.407   4.103  0.5986  0.1504  0.0389
46300SOL     OW45760   8.384  12.227   3.944  0.2718  0.5064  0.3537
46300SOL    HW145761   8.292  12.203   3.941  0.4024  0.0628 -0.7358
46300SOL    HW245762   8.431  12.145   3.927  0.7777  1.1025 -1.3734
46301SOL     OW45763   6.264   6.213  12.073 -0.4599  0.2063 -0.4033
46301SOL    HW145764   6.294   6.199  12.163  0.0643 -0.6468 -0.7044
46301SOL    HW245765   6.170   6.233  12.082 -0.5466 -0.4772  0.2923
46302SOL     OW45766  10.117   8.146   6.174  0.3793  0.1664 -0.2952
46302SOL    HW145767  10.056   8.139   6.247  0.7526 -0.2650 -0.0207
46302SOL    HW245768  10.066   8.188   6.104  0.1389  0.9672  0.3400
46303SOL     OW45769   9.992  10.707   7.009  0.1432  0.8906 -0.5428
46303SOL    HW145770   9.943  10.637   6.966  1.2579  0.1160 -0.6174
46303SOL    HW245771   9.927  10.774   7.029 -1.3738 -1.0519  1.4721
46304SOL     OW45772   9.725  10.813   2.013 -0.5367  0.3003 -0.5492
46304SOL    HW145773   9.706  10.799   1.920 -0.4696 -0.9745 -0.3983
46304SOL    HW245774   9.798  10.875   2.014 -0.4038  0.1730 -1.3571
46305SOL     OW45775   8.219   0.598   7.458 -0.6377  0.0628 -0.0895
46305SOL    HW145776   8.182   0.679   7.494  1.4051  2.3524 -2.6909
46305SOL    HW245777   8.280   0.567   7.525 -0.1382  1.7296  0.2774
46306SOL     OW45778   4.619   0.004   8.034 -0.0279  0.2066 -0.5660
46306SOL    HW145779   4.540   0.055   8.051  0.3026  0.4177  0.3841
46306SOL    HW245780   4.592  -0.087   8.046 -0.1484  0.2716 -0.3506
46307SOL     OW45781   6.438   7.276   0.366 -0.1810  0.0179 -0.2870
46307SOL    HW145782   6.475   7.342   0.424  2.8835 -0.6725 -1.2259
46307SOL    HW245783   6.344   7.291   0.369  0.1301  2.2854  2.0227
46308SOL     OW45784   3.232  11.575   1.163  0.3228  0.2142 -0.0386
46308SOL    HW145785   3.149  11.549   1.201  0.7667  0.2034  0.9421
46308SOL    HW245786   3.299  11.537   1.220  1.0378 -0.9830 -1.6051
46309SOL     OW45787   2.170   9.719   7.151  0.1234  0.3709  0.5830
46309SOL    HW145788   2.117   9.639   7.156 -1.6069  1.4165 -0.0718
46309SOL    HW245789   2.244   9.695   7.095 -0.3779 -0.7705  0.3703
46310SOL     OW45790   8.582   2.886   8.177  0.1813 -0.0036  0.1526
46310SOL    HW145791   8.674   2.864   8.192  0.2841  0.5205  0.3434
46310SOL    HW245792   8.562   2.951   8.245 -0.3358 -0.1303  0.1249
46311SOL     OW45793   6.159   0.168   0.113 -0.3503 -0.1854  0.0808
46311SOL    HW145794   6.192   0.206   0.031  1.0070 -0.1797  0.6087
46311SOL    HW245795   6.186   0.076   0.108  0.1583 -0.0745  0.7299
46312SOL     OW45796   6.475   5.873   1.368 -0.0406  0.5321 -0.7770
46312SOL    HW145797   6.562   5.834   1.365  0.3622  1.3721 -0.3968
46312SOL    HW245798   6.485   5.957   1.321 -0.6217  0.6724 -0.6587
46313SOL     OW45799   8.520   8.903  10.823  0.5379 -0.2457 -0.0305
46313SOL    HW145800   8.563   8.977  10.781 -0.8436  0.5824 -0.0490
46313SOL    HW245801   8.464   8.866  10.755  0.8191 -0.9981  0.1350
46314SOL     OW45802   9.526   6.723   3.788  0.0363  0.3530 -0.2635
46314SOL    HW145803   9.474   6.702   3.711 -0.1680  1.2166 -0.3726
46314SOL    HW245804   9.614   6.692   3.768 -0.1751 -0.0501 -0.5607
46315SOL     OW45805   2.729   2.243   3.641 -0.5620  0.5686  0.0689
46315SOL    HW145806   2.769   2.161   3.670 -2.9390  0.5230  4.0338
46315SOL    HW245807   2.719   2.233   3.547  0.6489 -3.0265  0.1618
46316SOL     OW45808   7.554   3.497   1.078 -0.4786  0.2824  0.5303
46316SOL    HW145809   7.584   3.414   1.040 -3.3594 -1.0848  1.0027
46316SOL    HW245810   7.577   3.491   1.171 -0.3213  0.1958  0.4857
46317SOL     OW45811   0.284   0.511  11.058 -0.4364  0.1208 -0.0323
46317SOL    HW145812   0.264   0.451  10.985  1.6677 -0.3889 -0.2337
46317SOL    HW245813   0.231   0.478  11.130  0.9340 -2.3123 -0.0180
46318SOL     OW45814   3.420   5.440   5.066 -0.0508  0.0884 -0.1792
46318SOL    HW145815   3.484   5.461   5.133 -0.7662  0.1362  0.5012
46318SOL    HW245816   3.342   5.490   5.091 -1.1003 -1.6962  0.2829
46319SOL     OW45817   6.589   1.790   5.779 -0.8633  0.3448 -0.3558
46319SOL    HW145818   6.631   1.861   5.827  0.7489 -0.2701 -0.7933
46319SOL    HW245819   6.647   1.773   5.705  0.0855 -2.9530  0.9435
46320SOL     OW45820   5.246   5.155  11.226  0.4267  0.2273 -0.2670
46320SOL    HW145821   5.172   5.095  11.214 -0.1268  0.8019  0.2522
46320SOL    HW245822   5.210   5.242  11.209  0.5560  0.6939  1.6998
46321SOL     OW45823   5.483   7.425   7.298 -0.6508  0.3475 -0.6553
46321SOL    HW145824   5.460   7.372   7.221 -2.7407 -0.2862  0.3074
46321SOL    HW245825   5.425   7.392   7.367  0.6540  1.3815  1.0069
46322SOL     OW45826   5.249   1.720  10.898  0.0858  0.6459 -0.2696
46322SOL    HW145827   5.264   1.641  10.950 -1.4287 -0.1510 -0.9680
46322SOL    HW245828   5.313   1.716  10.827 -0.2976 -0.2459 -0.5789
46323SOL     OW45829  10.402   0.344  11.286 -0.2008  0.2579 -0.2697
46323SOL    HW145830  10.496   0.331  11.296  0.0566  1.9151 -0.2027
46323SOL    HW245831  10.371   0.266  11.239  1.0120 -0.7838  0.6232
46324SOL     OW45832   7.392   8.607   4.095 -0.1007  0.2089  0.3216
46324SOL    HW145833   7.338   8.642   4.166 -0.2375  0.0420  0.2989
46324SOL    HW245834   7.332   8.557   4.041  0.0025  0.3489  0.0768
46325SOL     OW45835   4.512   2.084   7.448 -0.5962 -0.5283 -0.1643
46325SOL    HW145836   4.436   2.048   7.495 -1.2945 -1.3099 -1.8113
46325SOL    HW245837   4.582   2.085   7.513 -1.0636 -3.1236  0.4889
46326SOL     OW45838   5.828   8.558   7.584  0.3327 -0.2722 -0.6061
46326SOL    HW145839   5.791   8.489   7.529  1.2051 -2.4228  1.3297
46326SOL    HW245840   5.917   8.568   7.552 -0.2308  1.1426 -1.8694
46327SOL     OW45841   2.546   3.608  11.782 -0.0417 -0.1486  0.2164
46327SOL    HW145842   2.479   3.557  11.736 -0.7733 -0.1990  1.3130
46327SOL    HW245843   2.498   3.682  11.819  0.1694 -1.0328  2.3937
46328SOL     OW45844   7.811   0.936  12.059 -0.2092 -0.2449  0.5203
46328SOL    HW145845   7.759   0.879  12.116 -1.0397 -1.1045 -1.0462
46328SOL    HW245846   7.866   0.876  12.009  2.6437  0.6395  2.3277
46329SOL     OW45847  11.488   0.501   8.337 -0.4179 -0.4170  0.7064
46329SOL    HW145848  11.496   0.431   8.402  1.7432 -0.5208  0.4097
46329SOL    HW245849  11.536   0.575   8.376  1.2566 -0.6089 -0.8832
46330SOL     OW45850   6.949   9.472   6.663 -0.4302 -0.5302  0.1627
46330SOL    HW145851   6.863   9.489   6.625 -0.5202  0.2806  0.7055
46330SOL    HW245852   7.007   9.534   6.620 -0.7262  1.1392  2.0224
46331SOL     OW45853   6.242   2.497   3.277  1.1227 -0.3959 -0.8092
46331SOL    HW145854   6.261   2.406   3.256  1.4610 -0.1159 -1.7809
46331SOL    HW245855   6.272   2.546   3.201  0.0080  0.4367 -0.7464
46332SOL     OW45856   2.067   5.200   3.054  0.5352  0.1595 -0.2605
46332SOL    HW145857   1.996   5.250   3.095  0.5835  0.0462 -0.0319
46332SOL    HW245858   2.065   5.116   3.100 -1.2270 -1.0523 -2.3857
46333SOL     OW45859   9.851  10.211   6.881  0.0759  0.2119 -0.1481
46333SOL    HW145860   9.816  10.123   6.887 -1.3740  0.6707 -1.2700
46333SOL    HW245861   9.849  10.231   6.787  1.9597  0.8407 -0.1034
46334SOL     OW45862   2.785   4.627   6.135  0.4083 -0.0770 -0.9090
46334SOL    HW145863   2.729   4.693   6.095  0.4180 -0.3387 -1.3663
46334SOL    HW245864   2.831   4.673   6.204 -0.4608  0.1140 -0.4410
46335SOL     OW45865   3.952  11.359   1.696  0.3515  0.2738  0.1938
46335SOL    HW145866   3.965  11.310   1.777  1.4482 -0.4904 -0.3995
46335SOL    HW245867   3.874  11.320   1.657  1.5067 -1.4907 -0.5355
46336SOL     OW45868   8.914   1.345   8.650 -0.3286  0.8598  0.2042
46336SOL    HW145869   8.975   1.409   8.686  0.6243  0.4022 -0.5421
46336SOL    HW245870   8.909   1.366   8.557 -0.8108  0.4942  0.1412
46337SOL     OW45871   7.086   3.297   0.333  0.5342 -0.1742 -0.1786
46337SOL    HW145872   7.121   3.237   0.398 -1.2315 -1.1012 -0.0203
46337SOL    HW245873   7.124   3.268   0.250  1.3316 -0.1634  0.1742
46338SOL     OW45874  10.784   3.318   1.825  0.3699 -0.2593  0.3861
46338SOL    HW145875  10.752   3.299   1.913 -1.6858 -1.0203 -0.4413
46338SOL    HW245876  10.825   3.236   1.796  0.7048 -0.1300  0.4902
46339SOL     OW45877   5.318   0.127   9.404  0.4292 -0.1065 -0.1314
46339SOL    HW145878   5.350   0.070   9.474  1.3705  0.6925  0.1047
46339SOL    HW245879   5.224   0.135   9.421  0.2874 -1.5260 -0.1397
46340SOL     OW45880  11.854   4.259   6.380 -0.1066 -0.0041  0.4317
46340SOL    HW145881  11.930   4.296   6.335  0.4949 -0.7162  0.8268
46340SOL    HW245882  11.796   4.229   6.309  0.4698 -0.4047  0.1183
46341SOL     OW45883   4.283   9.732   7.627  0.1212 -0.0707 -0.4167
46341SOL    HW145884   4.240   9.720   7.542 -0.9266  0.0049  0.0889
46341SOL    HW245885   4.333   9.814   7.616 -0.7739  0.4573 -0.6648
46342SOL     OW45886   7.283   9.373   8.998 -0.0361 -0.2389  0.2877
46342SOL    HW145887   7.218   9.309   9.028 -0.2883 -1.0031 -1.7569
46342SOL    HW245888   7.232   9.452   8.980 -0.1544 -0.3594  0.1020
46343SOL     OW45889  10.135   1.685   7.698 -0.0686 -0.1261  0.6523
46343SOL    HW145890  10.218   1.673   7.744  0.3985 -1.5333 -0.4826
46343SOL    HW245891  10.146   1.767   7.649  1.2849 -1.0763 -0.7118
46344SOL     OW45892   7.804   1.736  10.518  0.0595  0.0109 -0.0881
46344SOL    HW145893   7.769   1.681  10.589  0.1994 -0.5826 -0.4721
46344SOL    HW245894   7.833   1.816  10.562 -2.1583  0.7118  0.1892
46345SOL     OW45895   4.768   2.039   9.210  0.4076  0.1714  0.2281
46345SOL    HW145896   4.812   2.035   9.125  1.3700 -0.9164  0.7508
46345SOL    HW245897   4.812   1.973   9.263  0.1416  1.1466  1.7290
46346SOL     OW45898   1.847   4.486   2.917  0.0232  0.2843  0.3220
46346SOL    HW145899   1.834   4.421   2.986  1.2481  1.3142  1.5774
46346SOL    HW245900   1.928   4.459   2.874 -0.2904  0.1293 -0.1851
46347SOL     OW45901   9.107   6.609   5.472 -0.1119  0.0267 -0.0252
46347SOL    HW145902   9.015   6.584   5.480 -0.5167  0.5058 -2.5354
46347SOL    HW245903   9.106   6.705   5.479  0.1956  0.0293 -0.0325
46348SOL     OW45904   3.914   5.021   0.335  0.3285  1.0833 -0.4702
46348SOL    HW145905   4.007   5.001   0.349  0.1486 -0.0396 -0.7860
46348SOL    HW245906   3.871   4.996   0.417  0.5565  3.5453  0.4591
46349SOL     OW45907   6.598  11.510   7.973  0.3591 -0.1622  0.3216
46349SOL    HW145908   6.615  11.455   8.050 -1.0464 -0.0639  0.7394
46349SOL    HW245909   6.684  11.541   7.945  0.8699  0.1210  2.1063
46350SOL     OW45910   8.245   6.381   5.881  0.0060 -0.1697 -0.4864
46350SOL    HW145911   8.186   6.435   5.934 -0.0600 -0.8038  0.1029
46350SOL    HW245912   8.193   6.305   5.857  0.9463 -1.4174  1.1946
46351SOL     OW45913   6.605   3.930  12.431  0.1009  0.4078 -0.0444
46351SOL    HW145914   6.584   3.967  12.517  1.0766 -0.7826  0.7499
46351SOL    HW245915   6.522   3.899  12.397 -0.0814 -0.6173  1.2413
46352SOL     OW45916   9.357  12.416   2.450  0.1022  0.5220  0.3915
46352SOL    HW145917   9.391  12.468   2.377 -1.6590  1.9048  0.4881
46352SOL    HW245918   9.264  12.407   2.432  0.1063 -1.4340  1.1347
46353SOL     OW45919   6.572   0.189   2.748  0.0946  0.4615  0.1414
46353SOL    HW145920   6.495   0.244   2.765 -2.3761 -2.6308 -0.0443
46353SOL    HW245921   6.556   0.153   2.660  1.3104 -0.9299  0.4614
46354SOL     OW45922  10.841  12.313   1.842  0.3987  0.5315 -0.5422
46354SOL    HW145923  10.904  12.356   1.784  0.3361  0.3663 -0.7355
46354SOL    HW245924  10.763  12.368   1.837  0.2195  0.2445 -1.0165
46355SOL     OW45925   2.030  11.261   8.943  0.3701 -0.2357  0.0481
46355SOL    HW145926   2.111  11.292   8.903  0.5582  2.6352  2.3144
46355SOL    HW245927   1.997  11.194   8.883  4.2449 -1.3667 -1.0915
46356SOL     OW45928  10.343   8.125   3.777  0.9153 -0.0486 -0.0611
46356SOL    HW145929  10.269   8.090   3.728  0.3307  0.3900  0.4981
46356SOL    HW245930  10.318   8.214   3.800  1.8789  0.3302 -0.3928
46357SOL     OW45931   1.546   6.447   6.949  0.0595  0.3124 -0.5856
46357SOL    HW145932   1.510   6.373   6.997 -2.1468  2.2351  0.9976
46357SOL    HW245933   1.588   6.409   6.872 -1.9238 -2.4525 -0.4339
46358SOL     OW45934   7.556   0.878  11.812  0.0214 -0.0311  0.6011
46358SOL    HW145935   7.529   0.815  11.746  0.1520 -0.4879  0.9803
46358SOL    HW245936   7.555   0.829  11.894  1.8611 -0.0436  0.6567
46359SOL     OW45937   6.425   1.688  11.408  0.1115 -0.5930 -0.1355
46359SOL    HW145938   6.356   1.724  11.463  0.0889 -0.3502 -0.3226
46359SOL    HW245939   6.408   1.594  11.406 -0.0658 -0.5643  0.0218
46360SOL     OW45940   8.355   4.665   3.032 -0.0251 -0.5027  0.4061
46360SOL    HW145941   8.439   4.665   2.985 -1.0120  0.4172 -1.4631
46360SOL    HW245942   8.295   4.616   2.976 -1.3566  0.9939  0.4553
46361SOL     OW45943   5.855   0.696   6.180 -0.0994  0.4246  0.1684
46361SOL    HW145944   5.873   0.604   6.164  0.1984  0.5247 -0.0961
46361SOL    HW245945   5.788   0.697   6.249 -0.0025  0.0180  0.2667
46362SOL     OW45946   4.166   1.696  11.962 -0.0838 -0.1783  0.1845
46362SOL    HW145947   4.164   1.601  11.947  2.4897 -0.1064 -1.0361
46362SOL    HW245948   4.178   1.734  11.875 -0.4180  1.2628  0.7400
46363SOL     OW45949   1.709  10.640  11.531 -0.0671 -0.2801 -0.7765
46363SOL    HW145950   1.705  10.561  11.586  2.9899  1.5413  2.5102
46363SOL    HW245951   1.646  10.700  11.572  1.1063  0.5618 -0.1493
46364SOL     OW45952   0.403   3.252   8.385 -0.7157 -0.2130  0.4064
46364SOL    HW145953   0.326   3.296   8.349 -0.2289  2.0453  1.8633
46364SOL    HW245954   0.369   3.197   8.455 -1.2331 -1.2940 -0.6696
46365SOL     OW45955   8.895   2.822   4.821 -0.2874 -0.2257 -0.5215
46365SOL    HW145956   8.931   2.734   4.830 -0.4441 -0.4237 -1.7261
46365SOL    HW245957   8.971   2.877   4.802  0.1579  0.3217  2.3012
46366SOL     OW45958   2.147   5.738   1.733  0.4211  0.0605 -0.8936
46366SOL    HW145959   2.172   5.826   1.705  0.5253 -0.0585 -1.1701
46366SOL    HW245960   2.063   5.750   1.777  0.1015  0.2031 -1.5338
46367SOL     OW45961   9.779   5.084   6.503  0.3782 -0.4022  0.4150
46367SOL    HW145962   9.737   5.104   6.419 -0.6815  1.7705  1.3614
46367SOL    HW245963   9.870   5.113   6.491  0.0421  0.6228  0.2310
46368SOL     OW45964   0.731   7.893   8.591  0.0889  0.3598  0.4361
46368SOL    HW145965   0.677   7.961   8.633  1.6150  1.9095 -0.0027
46368SOL    HW245966   0.697   7.888   8.502 -0.9468 -0.5207  0.8474
46369SOL     OW45967   6.887  11.579   0.471  0.5582  0.7665 -0.4578
46369SOL    HW145968   6.898  11.531   0.389 -2.8816 -0.5383 -0.2916
46369SOL    HW245969   6.949  11.652   0.464  2.7079 -1.1130 -2.7220
46370SOL     OW45970   4.269   9.063   2.866 -0.5654 -0.0755 -0.1054
46370SOL    HW145971   4.245   9.119   2.940  1.1738  0.0803  0.3661
46370SOL    HW245972   4.274   8.975   2.904  0.3455  0.0081 -0.0226
46371SOL     OW45973   9.822   5.380   1.849  0.2052  0.3002 -0.3355
46371SOL    HW145974   9.915   5.370   1.870  0.3073  0.8083 -0.5337
46371SOL    HW245975   9.796   5.460   1.893  0.1435  0.7711 -1.2051
46372SOL     OW45976   0.803   8.541   3.718  0.6628  0.0723  0.2933
46372SOL    HW145977   0.847   8.457   3.729  1.4052  0.5713  1.3519
46372SOL    HW245978   0.863   8.592   3.662  0.0484 -0.2044 -0.6407
46373SOL     OW45979   6.183   7.726   9.009  0.2241 -0.4137  0.0101
46373SOL    HW145980   6.242   7.799   8.990 -0.4426 -0.1032 -0.8850
46373SOL    HW245981   6.101   7.749   8.967 -1.0609 -0.1143  2.5183
46374SOL     OW45982  10.804   6.914   5.460 -0.1760  0.2170  0.6174
46374SOL    HW145983  10.765   6.965   5.389 -0.4725 -0.5285  0.2300
46374SOL    HW245984  10.821   6.828   5.421  0.5621  0.0937  1.1793
46375SOL     OW45985   6.147   2.668   1.512 -0.4963 -0.5289  0.1972
46375SOL    HW145986   6.103   2.657   1.428 -0.1205 -0.2345 -0.0397
46375SOL    HW245987   6.210   2.739   1.497 -0.3688 -0.5329  0.7020
46376SOL     OW45988  11.305   8.840  10.726  0.3473 -0.0973  0.3845
46376SOL    HW145989  11.249   8.845  10.804  0.4480 -0.7302  0.5026
46376SOL    HW245990  11.291   8.924  10.681 -0.4333 -0.1086  0.5913
46377SOL     OW45991   2.507   5.944   7.372  0.0264  0.4062 -0.1017
46377SOL    HW145992   2.524   6.019   7.315  1.2554 -0.1869 -0.5531
46377SOL    HW245993   2.412   5.930   7.367 -0.4526  2.7533  1.0599
46378SOL     OW45994   8.993   9.433   0.218 -0.3411  0.0878 -0.3471
46378SOL    HW145995   9.072   9.427   0.164  1.7368  2.2788  2.1475
46378SOL    HW245996   9.010   9.374   0.291 -0.1153  1.8703  1.1155
46379SOL     OW45997   5.480  11.527   4.084  0.6526  0.4211 -0.3070
46379SOL    HW145998   5.575  11.539   4.077  0.7511 -0.7142 -1.6137
46379SOL    HW245999   5.455  11.493   3.998 -0.5397 -1.6844  0.7921
46380SOL     OW46000   9.924  10.598   3.414 -0.4665  0.2648 -0.0240
46380SOL    HW146001   9.947  10.505   3.410  0.1584  0.4368 -0.6022
46380SOL    HW246002   9.920  10.617   3.508  0.7741 -0.0285  0.1112
46381SOL     OW46003   8.914   7.848   4.648  0.1232 -0.1194  0.0688
46381SOL    HW146004   8.967   7.806   4.580  0.8960  1.5867 -0.4406
46381SOL    HW246005   8.951   7.817   4.731  0.4469 -0.7066 -0.2947
46382SOL     OW46006   4.461   0.146   8.361  0.3241  0.3350 -0.1463
46382SOL    HW146007   4.462   0.168   8.268 -1.3255  2.1603  0.2128
46382SOL    HW246008   4.399   0.073   8.368 -1.6749  1.9407 -0.2076
46383SOL     OW46009   5.700   7.915  10.220  0.0092  0.3477  0.6594
46383SOL    HW146010   5.723   7.930  10.311  0.6353  1.7972  0.3017
46383SOL    HW246011   5.610   7.946  10.212 -0.5923 -1.1984  1.0891
46384SOL     OW46012   3.370   5.648   6.526  0.1166 -0.4278  0.3233
46384SOL    HW146013   3.361   5.598   6.607  1.3501  0.0578  0.7843
46384SOL    HW246014   3.461   5.636   6.500 -0.1821 -0.3057 -0.8210
46385SOL     OW46015   7.591   4.113   6.145  0.1875  0.5890 -0.3001
46385SOL    HW146016   7.590   4.167   6.066  0.7254  0.1132 -0.6405
46385SOL    HW246017   7.681   4.119   6.177  0.2236 -0.0140 -0.2798
46386SOL     OW46018   5.292  10.003  11.894 -0.4694 -0.1236  0.3212
46386SOL    HW146019   5.248  10.066  11.950  0.1184  2.6818 -2.1368
46386SOL    HW246020   5.221   9.958  11.848 -0.8727  0.8005  0.0251
46387SOL     OW46021   9.943   8.382   2.068 -0.1038 -0.0839 -0.2959
46387SOL    HW146022   9.962   8.302   2.018 -0.7463  0.7536 -1.9538
46387SOL    HW246023   9.901   8.350   2.148  2.7180 -1.5897  0.7103
46388SOL     OW46024   9.058   3.450  11.799  0.2698 -0.3334  0.1026
46388SOL    HW146025   9.095   3.513  11.737 -0.0905 -0.3318 -0.1133
46388SOL    HW246026   9.051   3.498  11.881  1.3229 -0.5142  0.3099
46389SOL     OW46027   9.746   6.548   7.318  0.4653  0.0633  0.0943
46389SOL    HW146028   9.830   6.537   7.274  0.7517  1.8598  0.0980
46389SOL    HW246029   9.767   6.544   7.411 -0.0180 -2.9002  0.1728
46390SOL     OW46030   1.592   6.742   9.171  0.3509 -0.9757  0.4124
46390SOL    HW146031   1.575   6.650   9.150  0.0560 -0.8766  0.2105
46390SOL    HW246032   1.553   6.755   9.257 -2.1784 -0.3115 -0.7477
46391SOL     OW46033   7.742   3.882  12.251  0.8175  0.2810 -0.1292
46391SOL    HW146034   7.827   3.839  12.250  1.6034  1.7872 -0.0801
46391SOL    HW246035   7.686   3.822  12.301  1.7675 -0.8433 -0.3654
46392SOL     OW46036   3.870   7.084   5.838  0.5353 -0.3524  0.0980
46392SOL    HW146037   3.892   6.992   5.823 -0.8151 -0.9576  1.5534
46392SOL    HW246038   3.954   7.129   5.837  1.6840 -2.1598  2.8423
46393SOL     OW46039   0.170   0.788   1.812 -0.1349  0.0574  0.3360
46393SOL    HW146040   0.125   0.837   1.881 -1.0743 -0.6985  0.2740
46393SOL    HW246041   0.261   0.783   1.842 -0.2664  0.8463  0.8921
46394SOL     OW46042   7.704  11.692  12.291  0.6181 -0.6280  0.0001
46394SOL    HW146043   7.779  11.657  12.243  0.4974  0.0375 -0.6822
46394SOL    HW246044   7.637  11.625  12.282  1.1224 -1.2456  0.6434
46395SOL     OW46045   8.313   5.588   9.078 -0.2077 -0.4233  0.3890
46395SOL    HW146046   8.305   5.594   9.173 -1.9271  2.5373  0.1719
46395SOL    HW246047   8.338   5.676   9.051  2.7348 -1.7710 -1.7959
46396SOL     OW46048   5.174   4.214   4.865  0.9339  0.3410 -0.2186
46396SOL    HW146049   5.149   4.159   4.791  0.4790 -0.4651  0.5187
46396SOL    HW246050   5.170   4.304   4.831  0.3028  0.0084 -1.0414
46397SOL     OW46051   2.565   3.761  10.872  0.2210 -0.4266  0.0743
46397SOL    HW146052   2.615   3.683  10.893 -1.3259 -1.5734 -0.3071
46397SOL    HW246053   2.581   3.777  10.779  0.4618 -0.3375  0.1302
46398SOL     OW46054   7.043   9.319   9.204 -0.5502 -0.1211 -0.0975
46398SOL    HW146055   7.032   9.259   9.277  1.7689 -1.3764 -0.7148
46398SOL    HW246056   7.013   9.270   9.127 -1.0484  0.4590 -0.2874
46399SOL     OW46057   4.482   4.592   7.885 -0.3439 -0.0162  0.2064
46399SOL    HW146058   4.525   4.638   7.812  0.7235 -1.3174 -0.0055
46399SOL    HW246059   4.434   4.661   7.931  0.2166  1.0983 -0.8189
46400SOL     OW46060   0.021   8.537   7.130  0.2630 -0.2231 -0.0227
46400SOL    HW146061   0.105   8.502   7.098  0.4081 -0.0947  0.2124
46400SOL    HW246062  -0.045   8.479   7.093  0.2470  1.2224 -2.4192
46401SOL     OW46063   9.616   1.022  11.239 -0.0682  0.1992  0.7767
46401SOL    HW146064   9.705   1.054  11.226 -0.0644  0.0153  0.3578
46401SOL    HW246065   9.622   0.927  11.232 -0.5430  0.2567 -0.8140
46402SOL     OW46066   9.474   2.447   7.775  0.4698 -0.4612 -0.5905
46402SOL    HW146067   9.447   2.387   7.706 -2.0093  0.7869 -0.8139
46402SOL    HW246068   9.464   2.397   7.856  0.4016 -0.9768 -0.9142
46403SOL     OW46069   9.484   3.391  12.155  0.3432 -0.2281  0.4535
46403SOL    HW146070   9.573   3.387  12.122 -0.0774 -0.7759 -0.6597
46403SOL    HW246071   9.475   3.316  12.213  1.4515  1.3806  2.8878
46404SOL     OW46072   4.371   8.636   5.317  0.5364 -0.4871 -0.2778
46404SOL    HW146073   4.428   8.575   5.364  1.0984 -1.4256 -2.0935
46404SOL    HW246074   4.423   8.716   5.308  0.1112  0.0113  1.3705
46405SOL     OW46075   7.564   6.405   3.279 -0.6130  0.2883  0.2097
46405SOL    HW146076   7.476   6.371   3.293 -0.5557  0.9014  2.4117
46405SOL    HW246077   7.583   6.385   3.188 -2.7461 -0.4926 -0.1196
46406SOL     OW46078   7.833   4.056   6.304  0.1080 -0.0424  0.1077
46406SOL    HW146079   7.925   4.075   6.283 -0.0331 -0.4253 -0.9214
46406SOL    HW246080   7.832   3.962   6.322 -0.2398 -0.2482 -0.8955
46407SOL     OW46081   1.973  11.726   8.699  0.1272  0.4122 -0.2391
46407SOL    HW146082   1.932  11.710   8.614  0.6311 -2.1980 -0.0873
46407SOL    HW246083   1.969  11.641   8.744 -0.2656  1.7263  2.4383
46408SOL     OW46084   0.392   7.897   9.984 -0.3820 -0.3320 -0.9631
46408SOL    HW146085   0.453   7.939  10.044  0.8907 -3.7748  0.3803
46408SOL    HW246086   0.347   7.970   9.941  2.4778  2.3395  0.2014
46409SOL     OW46087   7.869   0.752   8.411  0.2628  0.1393  0.1244
46409SOL    HW146088   7.897   0.667   8.378  0.5893  0.2890  0.0032
46409SOL    HW246089   7.815   0.789   8.341  1.4058  0.6904 -0.4983
46410SOL     OW46090   7.987  10.555   4.455 -0.0591 -0.1431  0.3300
46410SOL    HW146091   8.062  10.595   4.412  0.4215  0.1593  1.4278
46410SOL    HW246092   7.953  10.624   4.512 -0.8167 -0.4734  0.2863
46411SOL     OW46093  11.257  11.536   2.598  0.3446 -0.4602 -0.1840
46411SOL    HW146094  11.316  11.519   2.525 -1.4544  0.8461 -2.0470
46411SOL    HW246095  11.180  11.577   2.558 -0.4946  0.8313  2.5193
46412SOL     OW46096  10.808   9.533  12.453 -0.0878  0.6918  0.1133
46412SOL    HW146097  10.732   9.558  12.506 -0.9829  0.1025 -0.8407
46412SOL    HW246098  10.790   9.442  12.428  0.8048  0.6375 -0.3515
46413SOL     OW46099  10.011   8.207   7.455 -0.6412  0.5458 -0.6989
46413SOL    HW146100   9.960   8.262   7.395 -0.3787  0.5705 -0.9049
46413SOL    HW246101  10.102   8.226   7.432 -0.4645  2.0724  1.0443
46414SOL     OW46102   9.257  12.050   4.384 -0.3686  0.2620 -0.2997
46414SOL    HW146103   9.339  12.095   4.365 -0.6082  0.6648 -0.3984
46414SOL    HW246104   9.189  12.110   4.353 -0.7336  0.3514  0.6592
46415SOL     OW46105  12.442   6.100   4.839 -0.5640  0.0137  0.7866
46415SOL    HW146106  12.375   6.116   4.772  1.2933  0.6703 -1.0123
46415SOL    HW246107  12.503   6.039   4.798  1.3504  1.4767  1.3089
46416SOL     OW46108   8.914  12.328   1.921  0.2807 -0.1614  0.1246
46416SOL    HW146109   8.910  12.237   1.894 -1.1332 -0.3128  0.7675
46416SOL    HW246110   8.932  12.377   1.841 -1.6685 -0.7754 -0.7307
46417SOL     OW46111  11.446   3.418   3.647 -0.0419  0.3712  0.2408
46417SOL    HW146112  11.428   3.407   3.553  1.4337 -1.1303  0.0840
46417SOL    HW246113  11.461   3.511   3.658  2.3635  0.2966 -1.5916
46418SOL     OW46114   9.538  11.681   7.626  0.3100 -0.1475  0.3967
46418SOL    HW146115   9.504  11.771   7.629  1.9516  0.4845  1.5266
46418SOL    HW246116   9.464  11.627   7.654 -0.1289  1.0613  1.6883
46419SOL     OW46117   1.446   3.335   5.155  0.5781 -0.1374  0.4501
46419SOL    HW146118   1.416   3.266   5.214  0.8469  0.5184  1.3730
46419SOL    HW246119   1.459   3.411   5.211  0.2910  0.6770 -0.5428
46420SOL     OW46120   2.904   7.589  10.936  0.3407 -0.2698 -0.0897
46420SOL    HW146121   2.904   7.621  11.027  2.3335 -0.4053  0.0094
46420SOL    HW246122   2.945   7.660  10.886  0.4890 -0.7431 -0.6504
46421SOL     OW46123   8.921  11.170   5.378  0.0541 -0.1914  0.7530
46421SOL    HW146124   8.980  11.100   5.405 -1.1318 -1.3917  0.3523
46421SOL    HW246125   8.901  11.152   5.286 -0.5144  0.4972  0.7279
46422SOL     OW46126   8.738   7.319  11.994  0.3779 -0.2246 -0.0235
46422SOL    HW146127   8.830   7.324  12.020  0.1500 -2.8492  1.6316
46422SOL    HW246128   8.689   7.339  12.074 -0.5365  1.0409 -0.8574
46423SOL     OW46129  10.875   8.176   6.083  0.2662 -0.1475  0.1409
46423SOL    HW146130  10.887   8.125   6.163 -0.0845 -1.1873 -0.4528
46423SOL    HW246131  10.933   8.135   6.019 -1.2405 -0.9085 -0.8121
46424SOL     OW46132   9.866   9.382   1.450  0.6419  0.2288 -0.6808
46424SOL    HW146133   9.777   9.384   1.484  0.4291  1.4855 -1.2587
46424SOL    HW246134   9.919   9.349   1.522 -0.2973 -0.6629 -0.3754
46425SOL     OW46135   3.588   6.907   3.256 -0.2520  0.1626 -0.1229
46425SOL    HW146136   3.502   6.898   3.213 -0.0011  2.9385 -1.4486
46425SOL    HW246137   3.572   6.883   3.347 -1.9000 -1.5387 -0.7969
46426SOL     OW46138  11.287   4.258   2.350 -0.0032 -0.4750 -0.2470
46426SOL    HW146139  11.237   4.225   2.425 -0.2909  0.4160 -0.0409
46426SOL    HW246140  11.242   4.220   2.274 -0.5254 -0.3018 -0.0287
46427SOL     OW46141   6.192  11.840   0.769  0.4733 -0.0411  0.5289
46427SOL    HW146142   6.283  11.816   0.754  0.1087 -0.9266 -0.3996
46427SOL    HW246143   6.175  11.816   0.860  0.5267 -2.0468  0.0420
46428SOL     OW46144   8.980   8.850   8.722 -0.2202  0.5810  0.0948
46428SOL    HW146145   8.914   8.891   8.779  2.2677  2.6100  1.7812
46428SOL    HW246146   8.970   8.894   8.638 -0.1153  1.9489  0.7723
46429SOL     OW46147   0.051   7.974  11.119  0.0051 -0.4400  0.0093
46429SOL    HW146148   0.103   8.053  11.131 -1.0359  0.2219  0.3245
46429SOL    HW246149   0.108   7.914  11.071  0.8873  0.4111 -0.0308
46430SOL     OW46150   2.344   6.457   6.898  0.1631  0.4127 -0.0037
46430SOL    HW146151   2.418   6.404   6.870  0.6215  1.2752 -0.4766
46430SOL    HW246152   2.273   6.395   6.910  1.1118 -0.5061  1.0178
46431SOL     OW46153  10.696  12.468   9.699  0.4328  0.3189 -0.0153
46431SOL    HW146154  10.762  12.409   9.736  1.6766  1.0931 -0.9198
46431SOL    HW246155  10.677  12.529   9.770  1.0710  0.3958  0.0975
46432SOL     OW46156   6.798  10.374   2.782 -0.3414  0.7315  0.2317
46432SOL    HW146157   6.847  10.307   2.829  0.3211  0.3580 -0.9500
46432SOL    HW246158   6.725  10.327   2.741 -0.5409  0.9412  0.3408
46433SOL     OW46159   1.968   3.068  12.090 -0.0387 -0.1845  0.5755
46433SOL    HW146160   2.036   3.016  12.046 -0.9570 -1.6852  0.8450
46433SOL    HW246161   1.886   3.041  12.048 -0.4726  1.9149 -0.0511
46434SOL     OW46162   4.081   0.364   6.919  0.1012  0.2419 -0.4002
46434SOL    HW146163   4.123   0.325   6.996 -0.5822  0.3602  0.0360
46434SOL    HW246164   3.988   0.350   6.933 -0.0364  0.4470 -1.1132
46435SOL     OW46165   4.897   7.382   7.104 -0.3943  0.0729  0.1571
46435SOL    HW146166   4.980   7.418   7.136 -1.2972  0.0327  2.8437
46435SOL    HW246167   4.851   7.457   7.067  0.3262  0.3588 -0.1819
46436SOL     OW46168   9.172   6.566   8.948 -0.0515 -0.4182 -0.3772
46436SOL    HW146169   9.076   6.560   8.949 -0.4128  3.0481 -0.5762
46436SOL    HW246170   9.193   6.598   8.861  1.1952 -0.1532  0.0039
46437SOL     OW46171   9.732   3.521   2.104  0.0821 -0.0874  0.2009
46437SOL    HW146172   9.783   3.444   2.129  0.2339 -0.7413 -1.8672
46437SOL    HW246173   9.796   3.593   2.103  0.3963 -0.3637  0.1548
46438SOL     OW46174   4.686   1.058  11.155 -0.0870 -0.3695 -0.2616
46438SOL    HW146175   4.707   1.098  11.070  2.4160 -1.3200 -0.1775
46438SOL    HW246176   4.765   1.010  11.179 -0.2069  0.8628  3.2105
46439SOL     OW46177   2.835   5.363   1.343 -0.4138  0.4272 -0.0949
46439SOL    HW146178   2.785   5.435   1.303 -1.1728  0.2341  0.4946
46439SOL    HW246179   2.785   5.284   1.322  0.7558 -0.0270 -1.2903
46440SOL     OW46180   0.555   7.726   0.673  0.0649  1.1809 -0.2291
46440SOL    HW146181   0.520   7.725   0.584 -0.2362  0.1379 -0.1068
46440SOL    HW246182   0.515   7.803   0.713  0.5652  1.9262 -1.1265
46441SOL     OW46183   9.830  10.451   0.351  0.2150  0.1330  0.3668
46441SOL    HW146184   9.888  10.527   0.342  0.9459 -0.2614  1.5477
46441SOL    HW246185   9.767  10.461   0.279 -0.9860  2.9735  1.6087
46442SOL     OW46186   5.964   2.979  10.829 -0.0452  0.2404 -0.8023
46442SOL    HW146187   5.917   2.978  10.912  2.9043 -1.6153  1.0101
46442SOL    HW246188   5.977   3.072  10.810 -1.8189  0.7231  0.1105
46443SOL     OW46189   7.662   1.670   9.473  0.4830 -0.2775  0.2888
46443SOL    HW146190   7.708   1.592   9.504  0.1359 -1.4674 -1.9592
46443SOL    HW246191   7.725   1.714   9.415  0.0875  0.1862  0.1992
46444SOL     OW46192  10.137  10.565   1.275  0.1086  0.1943 -0.3754
46444SOL    HW146193  10.075  10.626   1.314 -0.5089 -1.5001  1.4713
46444SOL    HW246194  10.223  10.607   1.285 -0.3836  1.1077  0.0665
46445SOL     OW46195   7.267   2.958   9.163  0.2968  0.2066 -0.4735
46445SOL    HW146196   7.352   3.002   9.160  0.4759 -0.1068  0.0238
46445SOL    HW246197   7.258   2.919   9.076  1.5597 -1.4390  0.0814
46446SOL     OW46198   1.976   0.464   0.286 -0.6429  0.2369  0.1687
46446SOL    HW146199   2.052   0.406   0.290 -0.0030  1.1475  2.4509
46446SOL    HW246200   2.005   0.545   0.328 -2.6126  0.9344  0.2767
46447SOL     OW46201  11.287  11.431  12.393  0.2103 -0.0623 -0.1306
46447SOL    HW146202  11.201  11.445  12.353  0.9049  2.6289 -0.8865
46447SOL    HW246203  11.345  11.415  12.319  0.6100 -0.3441  0.2416
46448SOL     OW46204   4.861   3.067  11.732 -0.2063  0.4596  0.5574
46448SOL    HW146205   4.883   2.991  11.787 -0.5812 -1.9472 -2.3591
46448SOL    HW246206   4.774   3.047  11.697 -0.8643  2.8902  0.6313
46449SOL     OW46207   2.455   5.403   7.563 -0.4131 -0.5377  0.3824
46449SOL    HW146208   2.382   5.412   7.502  0.8019  2.7589 -0.8217
46449SOL    HW246209   2.528   5.370   7.509  0.0672  0.2272  0.5445
46450SOL     OW46210   8.510   4.048  10.076 -0.0085 -0.0182  0.1950
46450SOL    HW146211   8.602   4.072  10.061  0.1298  0.2033  1.3368
46450SOL    HW246212   8.510   4.003  10.160 -0.8878 -0.3977  0.0010
46451SOL     OW46213   0.382   0.984  11.247 -0.2142  0.3111  0.0965
46451SOL    HW146214   0.300   1.027  11.223 -0.9522 -1.1514 -0.0977
46451SOL    HW246215   0.357   0.893  11.267  1.2994 -0.0680  0.3940
46452SOL     OW46216   1.541   5.195   7.788  0.0634  0.3505  0.1628
46452SOL    HW146217   1.533   5.103   7.763 -1.5572  0.6888 -0.7093
46452SOL    HW246218   1.585   5.194   7.873  1.8542 -1.0953 -0.7092
46453SOL     OW46219   0.264   4.141   6.392 -0.1308 -0.1950  0.2370
46453SOL    HW146220   0.274   4.167   6.484 -2.0427 -1.0255  0.7331
46453SOL    HW246221   0.329   4.071   6.380  0.5530  0.3334  0.7697
46454SOL     OW46222   4.648   0.214  10.378 -0.6284  0.0750  0.1250
46454SOL    HW146223   4.636   0.308  10.395 -1.1613 -0.3279  2.3119
46454SOL    HW246224   4.718   0.210  10.313 -1.1995  2.0083 -0.6805
46455SOL     OW46225   0.560   7.996   1.648 -0.6990  0.2618 -0.0795
46455SOL    HW146226   0.516   8.071   1.688  0.7971  0.4318  1.3534
46455SOL    HW246227   0.503   7.921   1.667 -0.7700  0.5877  1.0462
46456SOL     OW46228   6.335   2.654   7.223  0.6834 -0.9219 -0.4319
46456SOL    HW146229   6.428   2.651   7.246  0.9391 -1.1551 -1.4542
46456SOL    HW246230   6.299   2.574   7.261  0.8626 -0.7550  0.1005
46457SOL     OW46231   4.158   1.132   6.596 -0.9135 -0.3575 -0.2830
46457SOL    HW146232   4.152   1.148   6.690  0.0760 -0.0853 -0.2642
46457SOL    HW246233   4.074   1.162   6.562 -1.2951 -0.4890  0.5122
46458SOL     OW46234   5.870   0.392   6.464 -0.6221  0.3492 -1.0073
46458SOL    HW146235   5.875   0.408   6.370 -1.2969  1.2954 -0.8875
46458SOL    HW246236   5.921   0.463   6.503  1.5026 -1.2289 -0.7254
46459SOL     OW46237   6.842  12.381   2.422  0.5975  0.0923 -0.0797
46459SOL    HW146238   6.747  12.392   2.416  0.6413  2.4884  2.0042
46459SOL    HW246239   6.871  12.374   2.331 -1.4621  0.4515 -0.8183
46460SOL     OW46240   4.179  11.716   9.119  0.2027 -0.2971  0.1968
46460SOL    HW146241   4.162  11.693   9.027  0.3858 -0.5782  0.2343
46460SOL    HW246242   4.147  11.641   9.169  0.3134 -0.2427  0.3495
46461SOL     OW46243   6.051   4.409   8.881  0.5074  0.4676  0.1232
46461SOL    HW146244   6.128   4.466   8.883  0.5506  0.4288  2.1576
46461SOL    HW246245   6.071   4.343   8.815  0.5169  2.6711 -2.1792
46462SOL     OW46246   8.824   9.677   3.391 -0.4126 -0.1076 -0.5182
46462SOL    HW146247   8.868   9.593   3.380 -1.6255 -0.7726 -0.4495
46462SOL    HW246248   8.890   9.742   3.365  1.5337 -0.8574  2.1534
46463SOL     OW46249   3.560   0.655  11.205 -0.1920  0.1237  0.5890
46463SOL    HW146250   3.537   0.748  11.199  0.3581  0.4214  2.3804
46463SOL    HW246251   3.505   0.621  11.275  0.9603 -0.4267  1.2579
46464SOL     OW46252  10.164   0.550   4.322  0.1707 -0.0629  0.0108
46464SOL    HW146253  10.173   0.477   4.261 -0.4312  0.5375 -0.8237
46464SOL    HW246254  10.160   0.510   4.408 -2.7810 -1.2341 -0.5718
46465SOL     OW46255   2.997   1.662   9.940 -0.1286  0.0463  0.5658
46465SOL    HW146256   2.996   1.755   9.918 -2.8126  0.4041  1.8422
46465SOL    HW246257   3.061   1.655  10.011  0.1340  0.9003  0.4223
46466SOL     OW46258   8.430  10.848   7.314 -0.4288  0.2175 -0.2930
46466SOL    HW146259   8.385  10.833   7.231 -3.3266  0.0484  1.1902
46466SOL    HW246260   8.455  10.761   7.344 -0.3870  0.1709 -0.4647
46467SOL     OW46261   4.333   6.404   8.879 -0.1644 -0.1234 -0.6126
46467SOL    HW146262   4.377   6.323   8.906 -0.6011 -0.0370  0.4474
46467SOL    HW246263   4.279   6.378   8.804 -1.7167 -1.2947  0.8118
46468SOL     OW46264   9.477   4.842   9.787  0.1538 -0.1422  0.7408
46468SOL    HW146265   9.395   4.807   9.752  0.0165  0.6961  0.1973
46468SOL    HW246266   9.514   4.770   9.838 -0.4159 -0.8703  0.1478
46469SOL     OW46267   1.152  11.780  12.263 -0.1305 -0.3368 -0.4671
46469SOL    HW146268   1.172  11.762  12.354 -0.5468 -2.0189 -0.6760
46469SOL    HW246269   1.235  11.768  12.217 -0.4764 -2.3620 -0.6601
46470SOL     OW46270   5.864   0.124   9.753  0.1695 -0.0984 -0.0670
46470SOL    HW146271   5.957   0.115   9.773  0.0778 -1.8871 -0.3161
46470SOL    HW246272   5.821   0.055   9.803 -1.0839  0.9193  0.3152
46471SOL     OW46273   0.543   3.229   9.813  0.4561  0.6386 -0.1242
46471SOL    HW146274   0.520   3.299   9.752  1.3692  0.4912 -0.6581
46471SOL    HW246275   0.506   3.150   9.774  1.1075  0.5323 -0.5416
46472SOL     OW46276  12.358  10.758   9.497 -0.2218  0.2966  0.1035
46472SOL    HW146277  12.368  10.850   9.522  0.6236  0.5299 -1.0433
46472SOL    HW246278  12.358  10.759   9.401 -0.2460 -0.8986  0.0825
46473SOL     OW46279  10.851  12.224   4.415  0.0369 -0.1222 -0.1199
46473SOL    HW146280  10.939  12.197   4.387 -1.1848 -1.6848 -2.9311
46473SOL    HW246281  10.808  12.250   4.333 -2.0472  0.8937  1.2353
46474SOL     OW46282   0.053   4.240  10.477  0.3140  0.5974  0.1920
46474SOL    HW146283  -0.003   4.163  10.465  0.4575  0.4108  0.6888
46474SOL    HW246284   0.063   4.277  10.389 -2.1445  1.7280  0.2785
46475SOL     OW46285   4.381   2.179   3.484  0.6776  0.0451  0.2727
46475SOL    HW146286   4.334   2.103   3.519  1.2297 -0.0985  0.7013
46475SOL    HW246287   4.313   2.246   3.475  0.3581 -0.2016  0.7602
46476SOL     OW46288  10.878   5.279  11.583 -0.1423 -0.4509  0.2076
46476SOL    HW146289  10.852   5.294  11.492 -2.1434 -0.2752  0.7494
46476SOL    HW246290  10.965   5.239  11.577 -1.0647 -2.4236 -1.9008
46477SOL     OW46291   4.304   0.331   9.356  0.6360 -0.1776 -0.0374
46477SOL    HW146292   4.390   0.313   9.395  1.0657  1.7619 -0.0281
46477SOL    HW246293   4.286   0.422   9.377 -0.9832 -0.2604 -0.9107
46478SOL     OW46294   1.944   6.707   1.667  0.0311 -0.4321  0.2166
46478SOL    HW146295   1.947   6.651   1.745  1.5773 -1.2184 -0.3843
46478SOL    HW246296   1.864   6.759   1.679 -0.7204 -1.7954  1.4483
46479SOL     OW46297   4.470   8.359  10.985  0.0753  0.4249  0.5769
46479SOL    HW146298   4.507   8.418  11.050  1.9350  1.2287 -1.0788
46479SOL    HW246299   4.455   8.414  10.908  0.6858 -0.9946 -0.6208
46480SOL     OW46300  10.830   3.627   9.216 -0.2064 -0.2954  0.1207
46480SOL    HW146301  10.797   3.682   9.144  0.9595 -0.3819 -0.5050
46480SOL    HW246302  10.923   3.615   9.196 -0.2838 -1.9041  0.6433
46481SOL     OW46303   7.647   1.616   8.812  0.2781 -0.0400 -0.2108
46481SOL    HW146304   7.624   1.690   8.869  0.2927 -0.2283  0.0390
46481SOL    HW246305   7.743   1.615   8.813  0.3271 -1.6944  1.9359
46482SOL     OW46306   4.098   9.802  10.419 -0.7531 -0.7470  0.0399
46482SOL    HW146307   4.101   9.724  10.474  1.0745 -0.8569 -0.1633
46482SOL    HW246308   4.138   9.775  10.336  2.6857  1.0727  0.9287
46483SOL     OW46309   5.789  11.017   5.342  0.3880  0.7359 -0.6764
46483SOL    HW146310   5.841  11.048   5.416  2.0129  2.1450 -2.3258
46483SOL    HW246311   5.818  10.926   5.329  0.0169  0.4421  0.4436
46484SOL     OW46312  10.354   2.917   1.470 -0.4191  0.2586 -0.3025
46484SOL    HW146313  10.411   2.851   1.432  0.8575  1.1402  0.0196
46484SOL    HW246314  10.359   2.991   1.410 -0.1632  0.8357  0.4133
46485SOL     OW46315   7.999  10.921   2.117 -0.1702  0.2431 -0.5219
46485SOL    HW146316   7.945  10.944   2.192 -1.0101  1.1965 -1.3739
46485SOL    HW246317   8.002  11.002   2.064  1.2983 -0.0811 -0.9718
46486SOL     OW46318   6.201  10.536   5.958 -0.4755  0.0698  0.5950
46486SOL    HW146319   6.142  10.463   5.976 -0.8141 -0.7009 -2.9070
46486SOL    HW246320   6.144  10.613   5.954 -1.5812 -0.7441 -3.3178
46487SOL     OW46321   8.564   9.667   4.665  0.6120  0.0316  0.1239
46487SOL    HW146322   8.585   9.697   4.577 -1.6949  0.7439 -0.2444
46487SOL    HW246323   8.468   9.659   4.666  0.2689  2.4974  3.2962
46488SOL     OW46324   7.159   9.986   4.841 -0.4763 -0.1000  0.2811
46488SOL    HW146325   7.213  10.043   4.786  0.3154 -0.8937  0.2093
46488SOL    HW246326   7.215   9.964   4.915 -1.3459  0.5076  1.1247
46489SOL     OW46327   3.048   9.913   7.507  0.4374  0.0322 -0.1391
46489SOL    HW146328   3.109   9.987   7.503  0.5933  0.0727  1.9347
46489SOL    HW246329   3.078   9.853   7.439  1.8508  0.7456 -0.1793
46490SOL     OW46330  10.544   9.813   1.570  0.4649 -0.6409  0.3179
46490SOL    HW146331  10.556   9.827   1.664  0.0924 -0.4455  0.3412
46490SOL    HW246332  10.624   9.769   1.542  1.3580  0.8674  0.3936
46491SOL     OW46333   9.569   7.814   9.120  0.0441 -0.4632 -0.1284
46491SOL    HW146334   9.530   7.839   9.036 -1.8342 -1.9854  0.2327
46491SOL    HW246335   9.586   7.897   9.164  1.9910  0.4470 -2.3226
46492SOL     OW46336   0.457   6.754  10.873  0.5279 -0.0872  0.0584
46492SOL    HW146337   0.456   6.848  10.853  1.1198  0.0944  0.8291
46492SOL    HW246338   0.535   6.721  10.829  1.6329  0.2452  1.7057
46493SOL     OW46339  11.192   3.201   4.531  0.3227  0.3129  0.1147
46493SOL    HW146340  11.174   3.194   4.437 -0.0591  1.2600  0.1016
46493SOL    HW246341  11.136   3.273   4.561 -0.0185 -0.3707  1.1896
46494SOL     OW46342   1.361   2.154   5.815 -0.5090 -0.2979  0.5441
46494SOL    HW146343   1.374   2.219   5.745 -0.2999 -1.3623 -0.4513
46494SOL    HW246344   1.368   2.070   5.770  2.4012 -1.1235  2.2730
46495SOL     OW46345   4.510   9.430  12.353  0.4408 -0.2716 -0.0004
46495SOL    HW146346   4.430   9.441  12.301  0.1059 -1.2203  0.2784
46495SOL    HW246347   4.581   9.442  12.290  0.0833 -4.1090 -1.4665
46496SOL     OW46348   6.535   3.548   9.774 -0.0413 -0.4598 -0.0785
46496SOL    HW146349   6.556   3.634   9.736  1.9472 -1.0198 -0.3406
46496SOL    HW246350   6.521   3.566   9.867 -1.1092  0.3365 -0.3646
46497SOL     OW46351  11.521   2.957   0.975  0.3221  0.0331  0.3550
46497SOL    HW146352  11.472   3.004   0.907 -0.6665 -1.1627  0.2043
46497SOL    HW246353  11.603   2.931   0.932  0.7470  1.3243  0.3505
46498SOL     OW46354  11.009   7.790   0.213  0.2234  0.2228  0.5531
46498SOL    HW146355  11.104   7.797   0.223  0.3723  0.3299 -0.8003
46498SOL    HW246356  10.992   7.696   0.212  0.3415  0.2007  0.6092
46499SOL     OW46357   8.337   8.126   6.512  0.3880 -0.1803 -1.0821
46499SOL    HW146358   8.321   8.220   6.504 -0.4524 -0.2649 -0.5055
46499SOL    HW246359   8.297   8.102   6.596 -0.1714 -1.2094 -1.6315
46500SOL     OW46360   7.479   6.783   6.753  0.2009 -0.3184 -0.5838
46500SOL    HW146361   7.527   6.763   6.834 -2.1625  0.2212  1.0515
46500SOL    HW246362   7.548   6.807   6.690  2.0743  0.7717  1.6931
46501SOL     OW46363   2.063   9.453   4.770 -0.0874 -0.1869  0.5398
46501SOL    HW146364   2.035   9.414   4.688  1.6377  0.5831 -0.4579
46501SOL    HW246365   1.981   9.483   4.811 -0.9981 -0.8667 -0.7286
46502SOL     OW46366  11.280  10.287   2.679 -0.5227  0.3146  0.2268
46502SOL    HW146367  11.369  10.297   2.643 -1.1582 -2.4206 -2.5894
46502SOL    HW246368  11.294  10.275   2.773  2.1281 -0.0922 -0.1218
46503SOL     OW46369   3.267   1.933  11.941 -0.0932 -0.3755 -0.2590
46503SOL    HW146370   3.177   1.953  11.967  0.5694  0.5022  1.4750
46503SOL    HW246371   3.286   1.849  11.983 -0.5399 -1.2870 -1.7985
46504SOL     OW46372   6.406   3.789   9.194  0.1157  0.7655  0.6064
46504SOL    HW146373   6.442   3.864   9.147  0.1702 -0.3918 -1.2901
46504SOL    HW246374   6.469   3.718   9.177 -0.6255 -0.0558  1.2263
46505SOL     OW46375  11.009   8.833   0.956  0.5085  0.3513 -0.0894
46505SOL    HW146376  10.978   8.921   0.936  2.6236  1.2159  0.2655
46505SOL    HW246377  11.080   8.817   0.895  0.4123 -0.9775  0.1111
46506SOL     OW46378   2.228   4.109  11.969  0.3811  0.0136  0.4057
46506SOL    HW146379   2.216   4.028  12.019 -0.5480 -1.2609 -1.7448
46506SOL    HW246380   2.180   4.175  12.019 -1.0857 -1.3385  0.8717
46507SOL     OW46381   5.906   6.385  10.867 -0.2853  0.4921 -0.1122
46507SOL    HW146382   5.829   6.397  10.922  0.9518  0.0298  1.7983
46507SOL    HW246383   5.911   6.465  10.814 -2.2188  0.3886 -0.5034
46508SOL     OW46384   6.550   7.335   1.842  0.2499  0.2232 -0.3306
46508SOL    HW146385   6.504   7.283   1.908 -0.9143  0.9114 -0.5600
46508SOL    HW246386   6.640   7.303   1.843  0.4041  0.5848  1.9723
46509SOL     OW46387   5.254  10.409  10.308  0.4218  0.3790 -0.1513
46509SOL    HW146388   5.321  10.439  10.370  0.1196  0.4404  0.1522
46509SOL    HW246389   5.220  10.329  10.347  1.3742 -0.5013 -1.0663
46510SOL     OW46390  11.038   0.206   8.037  0.1576  0.4585  0.3334
46510SOL    HW146391  11.023   0.221   7.944  0.6364  1.2606  0.3861
46510SOL    HW246392  11.098   0.275   8.064 -1.0125  1.0462  1.5276
46511SOL     OW46393   8.179   8.427   1.473 -0.2772 -0.0922  0.5864
46511SOL    HW146394   8.092   8.468   1.481  0.5674  1.6290  1.5539
46511SOL    HW246395   8.230   8.490   1.422  0.5674 -0.8531  0.4639
46512SOL     OW46396   2.058  11.358   9.853  0.5069 -0.6463 -0.8947
46512SOL    HW146397   2.127  11.396   9.908 -0.1057  2.0847 -1.8721
46512SOL    HW246398   2.095  11.275   9.823  2.5037 -0.2535  0.2902
46513SOL     OW46399   3.683   6.745   4.188 -0.0534  0.1433 -0.0961
46513SOL    HW146400   3.664   6.803   4.115 -0.5255 -1.9340 -1.7220
46513SOL    HW246401   3.753   6.688   4.157 -1.0168 -1.5182  0.6072
46514SOL     OW46402   3.353   3.005  11.059  0.0388 -0.4440  0.2690
46514SOL    HW146403   3.270   2.989  11.104 -0.9556  0.2309 -1.2401
46514SOL    HW246404   3.371   3.097  11.073  0.5675 -0.6004  0.6362
46515SOL     OW46405  10.694  10.417   7.120  0.2181  0.4437  0.4911
46515SOL    HW146406  10.717  10.328   7.147  0.3997 -0.2194 -1.6410
46515SOL    HW246407  10.777  10.461   7.106  0.2506 -0.2657 -2.0102
46516SOL     OW46408  10.226   3.824  12.099 -0.7284 -0.0720  0.3734
46516SOL    HW146409  10.232   3.839  12.193  2.3468  0.7264  0.1318
46516SOL    HW246410  10.139   3.855  12.076 -0.5900  2.2356  2.5313
46517SOL     OW46411   5.394   5.611   3.886 -0.2074 -0.0743  0.6549
46517SOL    HW146412   5.466   5.650   3.934 -1.0365  0.1216  1.7741
46517SOL    HW246413   5.415   5.626   3.794  0.8870  0.4696  0.9868
46518SOL     OW46414   8.060   3.732  11.840 -0.3016 -0.0622 -0.3149
46518SOL    HW146415   8.106   3.654  11.870  1.5364  1.6044  1.5869
46518SOL    HW246416   8.027   3.773  11.920 -1.0057  1.2295 -1.2183
46519SOL     OW46417   9.597   5.158   3.378  0.1495 -0.1084  0.1759
46519SOL    HW146418   9.609   5.123   3.290  0.4665  1.0211 -0.2403
46519SOL    HW246419   9.613   5.083   3.436  4.4280  0.0299 -0.5093
46520SOL     OW46420   4.383   6.140   5.436 -0.8218 -0.0583  0.0707
46520SOL    HW146421   4.412   6.223   5.473 -2.1063  0.6417 -0.4514
46520SOL    HW246422   4.296   6.125   5.474 -1.2707 -0.3762 -1.0330
46521SOL     OW46423  10.333   6.536   5.285 -0.5897 -0.1117 -0.2153
46521SOL    HW146424  10.317   6.442   5.280 -1.8777 -0.0800  1.9863
46521SOL    HW246425  10.400   6.553   5.219 -0.0891 -2.6082 -0.4344
46522SOL     OW46426   0.859  11.416   8.284  0.5254 -0.5268  0.6462
46522SOL    HW146427   0.814  11.334   8.263  0.1876 -0.0403 -0.6113
46522SOL    HW246428   0.788  11.480   8.296  0.8252  0.1532 -0.9358
46523SOL     OW46429   8.755   0.325   8.649  0.0507 -0.6305  0.2104
46523SOL    HW146430   8.761   0.230   8.660 -0.2097 -0.6807 -0.0643
46523SOL    HW246431   8.719   0.357   8.731  0.0819 -0.7786  0.2819
46524SOL     OW46432   3.204  10.119  11.212  0.1571 -0.0351 -0.6465
46524SOL    HW146433   3.155  10.161  11.141 -1.7109  1.5581  1.4345
46524SOL    HW246434   3.137  10.098  11.277  1.8814 -0.7441  0.9862
46525SOL     OW46435   7.407   3.644  10.939 -0.5405  0.1495 -0.4654
46525SOL    HW146436   7.433   3.725  10.895  0.5527 -0.3231 -0.7290
46525SOL    HW246437   7.473   3.632  11.008 -0.8639 -0.3582 -0.2398
46526SOL     OW46438   8.063   6.106   9.338 -0.2891  0.4649 -0.0673
46526SOL    HW146439   8.027   6.045   9.402  0.6039  1.3037  1.2897
46526SOL    HW246440   8.145   6.136   9.377  1.5702 -0.8216 -2.6943
46527SOL     OW46441  10.429   5.722   1.882  0.4537  1.0313 -0.1280
46527SOL    HW146442  10.382   5.778   1.821 -0.0730  2.2321  1.3210
46527SOL    HW246443  10.517   5.758   1.885  1.5451 -1.0657 -2.6483
46528SOL     OW46444   9.578   8.085   5.810 -0.4975  0.1959 -0.1504
46528SOL    HW146445   9.528   8.166   5.820 -1.8653 -0.6265  0.1145
46528SOL    HW246446   9.511   8.019   5.787  0.3473 -1.1281  1.0307
46529SOL     OW46447   6.459  12.118   8.451 -0.2131  0.2165 -0.2004
46529SOL    HW146448   6.369  12.148   8.466 -0.4624 -0.9947  0.9093
46529SOL    HW246449   6.450  12.048   8.387 -0.2953 -1.0136  1.1047
46530SOL     OW46450   3.009   9.941   3.689  0.2879 -0.3104  0.5942
46530SOL    HW146451   2.927   9.967   3.729  0.7742 -0.1193  1.4886
46530SOL    HW246452   3.065   9.914   3.762  0.5522 -1.8033 -0.1066
46531SOL     OW46453   4.010   0.755   2.541  0.6582 -0.1937  0.1847
46531SOL    HW146454   4.024   0.787   2.630  1.4835 -0.6875  0.2422
46531SOL    HW246455   4.098   0.740   2.507  0.4345  1.6575 -1.3499
46532SOL     OW46456   0.198  10.809   2.150 -0.6093 -0.4177  0.9001
46532SOL    HW146457   0.244  10.802   2.233  1.1729 -0.3163 -0.0219
46532SOL    HW246458   0.262  10.780   2.085 -1.5065  0.7161 -0.5554
46533SOL     OW46459   9.166   6.665   5.864  0.1231 -0.5540  0.1365
46533SOL    HW146460   9.072   6.665   5.881  0.2126 -0.0618  0.6861
46533SOL    HW246461   9.187   6.574   5.844 -0.6126 -0.5164 -0.8327
46534SOL     OW46462   5.084   5.293   8.181  0.6261  0.3657  0.1927
46534SOL    HW146463   5.063   5.385   8.170  1.1556  0.3365 -1.2159
46534SOL    HW246464   5.012   5.247   8.138  0.5067  0.1207  0.6457
46535SOL     OW46465   4.582  12.368   5.396 -0.6009  0.3317  0.3024
46535SOL    HW146466   4.502  12.418   5.383 -0.4081  0.7198  0.5771
46535SOL    HW246467   4.644  12.405   5.332 -0.2115  1.0022  1.0449
46536SOL     OW46468   8.997   8.339  10.095 -0.3305  0.4328 -0.6704
46536SOL    HW146469   8.991   8.435  10.092 -1.0191  0.3999 -0.6244
46536SOL    HW246470   8.913   8.310  10.059 -0.3758 -0.1497 -0.0990
46537SOL     OW46471  11.188  12.341   7.938 -0.6169 -0.7340 -0.1544
46537SOL    HW146472  11.119  12.375   7.994 -0.3129  1.1839 -0.8613
46537SOL    HW246473  11.235  12.277   7.992  0.4591  1.9115  2.2732
46538SOL     OW46474   7.468   2.686   3.140  0.1204 -0.5338  0.0661
46538SOL    HW146475   7.479   2.592   3.154  0.1695 -0.5556 -0.1099
46538SOL    HW246476   7.492   2.699   3.048 -2.8252 -0.8269 -0.8453
46539SOL     OW46477   4.294   8.621  11.377  0.3902  0.2097  0.2921
46539SOL    HW146478   4.352   8.553  11.342  0.9509  0.0824  1.4212
46539SOL    HW246479   4.229   8.635  11.308  0.8506 -0.7595 -0.3613
46540SOL     OW46480   5.819   7.600  10.424 -0.8257 -0.5857 -0.2160
46540SOL    HW146481   5.808   7.508  10.401 -0.9240 -0.5692 -0.2324
46540SOL    HW246482   5.730   7.632  10.438 -0.8281 -0.3497 -0.7503
46541SOL     OW46483   9.048   7.815   2.126 -0.6273  0.2720  0.3940
46541SOL    HW146484   9.069   7.897   2.081 -1.4774  0.4805  0.3692
46541SOL    HW246485   8.963   7.789   2.090 -0.1595 -0.8644  0.0664
46542SOL     OW46486   7.834   8.002   2.566 -0.0520 -0.5303 -1.0565
46542SOL    HW146487   7.839   8.097   2.562 -0.5007 -0.1886  2.7970
46542SOL    HW246488   7.740   7.983   2.570  0.0379 -0.7951  1.1509
46543SOL     OW46489   0.252   1.714   9.503  0.3768  0.3424 -0.3062
46543SOL    HW146490   0.246   1.650   9.573  0.4997  0.0104 -0.6009
46543SOL    HW246491   0.182   1.777   9.523  0.4771  0.3071  0.1678
46544SOL     OW46492   5.723   7.120   0.586 -0.2631  0.0257 -0.5653
46544SOL    HW146493   5.817   7.102   0.578  0.2228  0.7813  2.2213
46544SOL    HW246494   5.718   7.212   0.609 -1.6385 -0.1594 -0.0234
46545SOL     OW46495   3.004   0.484   9.217 -0.1222 -0.4659 -0.0350
46545SOL    HW146496   3.052   0.530   9.286 -1.1265 -1.1194  1.1410
46545SOL    HW246497   3.034   0.394   9.222  0.6775 -0.2853 -1.2754
46546SOL     OW46498   3.997   2.030   4.410 -0.2162  0.0336 -0.2797
46546SOL    HW146499   4.088   2.001   4.418 -0.5487 -0.9700  0.0584
46546SOL    HW246500   3.949   1.950   4.389 -1.3173  0.1305  1.6308
46547SOL     OW46501   6.401   1.343   0.056  0.3935  0.6033 -0.6520
46547SOL    HW146502   6.454   1.299  -0.009  1.0874  0.6009 -0.0960
46547SOL    HW246503   6.328   1.381   0.006  0.6580  0.2082 -1.3503
46548SOL     OW46504   6.150   6.791   3.534 -0.1305  0.1271  0.2190
46548SOL    HW146505   6.083   6.752   3.478  0.3568 -1.5542  0.7444
46548SOL    HW246506   6.146   6.884   3.515  0.4583 -0.4100 -3.1096
46549SOL     OW46507   8.360   8.644   3.240  0.1751  0.3019  0.5874
46549SOL    HW146508   8.370   8.554   3.270  0.5483  0.8367  2.1300
46549SOL    HW246509   8.429   8.692   3.285  0.9628  1.1147 -1.3795
46550SOL     OW46510  12.471   6.774  10.678  0.2355  0.3906 -0.4191
46550SOL    HW146511  12.380   6.802  10.691  0.3777  0.4875  0.4001
46550SOL    HW246512  12.464   6.684  10.647 -0.1497  0.5447 -0.7932
46551SOL     OW46513   8.477   6.770  11.909  0.0254  0.6233 -0.4453
46551SOL    HW146514   8.511   6.816  11.832  1.1378  1.4923  0.5273
46551SOL    HW246515   8.383   6.785  11.906  0.0452  0.6210 -1.6413
46552SOL     OW46516   2.978  12.096   0.853 -0.3461 -0.0384 -0.6193
46552SOL    HW146517   3.017  12.013   0.827 -0.5341 -0.4192  0.3045
46552SOL    HW246518   2.886  12.089   0.827 -0.5886 -0.5116  0.3188
46553SOL     OW46519  10.383   5.052   8.847  0.0093 -0.4216 -0.2873
46553SOL    HW146520  10.413   4.964   8.867 -0.6215 -1.3428 -2.9578
46553SOL    HW246521  10.453   5.109   8.879  0.8667 -1.9210  0.6591
46554SOL     OW46522   5.490  10.056   6.801 -0.1669  0.3993  0.3330
46554SOL    HW146523   5.396  10.051   6.784 -0.2856  0.7264  0.8941
46554SOL    HW246524   5.500  10.027   6.891  0.2442  0.6289  0.3610
46555SOL     OW46525   7.176   6.199   8.368  0.1248 -0.1263  0.2161
46555SOL    HW146526   7.111   6.240   8.311 -0.5120  0.7048  1.4886
46555SOL    HW246527   7.146   6.109   8.378 -0.0008 -0.1580 -0.3969
46556SOL     OW46528   4.392   5.165   2.483  0.2548  0.1680 -0.1424
46556SOL    HW146529   4.321   5.147   2.421 -0.6850  0.4842  0.8248
46556SOL    HW246530   4.353   5.222   2.549  1.4042  0.3145  0.4394
46557SOL     OW46531   8.924  12.296  12.231  0.1142 -0.4704 -0.3196
46557SOL    HW146532   8.908  12.214  12.185  1.0096 -0.8884  0.0814
46557SOL    HW246533   8.997  12.276  12.290 -0.5302  0.2358  0.7633
46558SOL     OW46534   5.638   8.797  12.229 -0.3831  0.4968  0.0527
46558SOL    HW146535   5.726   8.772  12.257  0.1032  1.3731 -0.6557
46558SOL    HW246536   5.621   8.879  12.275 -0.7662  0.4146  0.0575
46559SOL     OW46537   6.005   9.631   5.969  0.5591  0.4327 -0.5153
46559SOL    HW146538   5.916   9.601   5.986  0.0743  1.6514 -0.7475
46559SOL    HW246539   6.024   9.689   6.042  0.5193  1.4599 -1.2962
46560SOL     OW46540   1.524   9.962   6.359  0.1506 -0.2429 -0.3930
46560SOL    HW146541   1.517  10.041   6.413  1.6573  0.3994 -1.0489
46560SOL    HW246542   1.478   9.894   6.408  1.0419  0.4267  1.4656
46561SOL     OW46543   0.903   9.181   3.937  0.3522  0.2316  0.3251
46561SOL    HW146544   0.872   9.270   3.949 -0.2497  0.0106  0.4704
46561SOL    HW246545   0.949   9.160   4.019  0.8790  0.5563  0.1150
46562SOL     OW46546   9.288   6.980   8.127 -0.4864  0.2480  0.2434
46562SOL    HW146547   9.293   6.908   8.064 -1.7245  1.4362 -1.3025
46562SOL    HW246548   9.278   6.938   8.212  0.0571 -1.4068 -0.4863
46563SOL     OW46549   4.179   0.301   3.637 -0.1603  0.0623  0.2629
46563SOL    HW146550   4.116   0.313   3.566  0.1206  0.2885  0.0511
46563SOL    HW246551   4.130   0.322   3.717 -0.5021 -0.2824  0.1456
46564SOL     OW46552   6.365   9.051   4.687 -0.3690  0.2413  0.1792
46564SOL    HW146553   6.317   9.072   4.767 -0.7235  0.9852 -0.2202
46564SOL    HW246554   6.450   9.020   4.718 -0.4889  0.5481  0.8442
46565SOL     OW46555   1.790   8.474  10.881  0.2273  0.2426 -1.1528
46565SOL    HW146556   1.740   8.547  10.918 -0.5398 -1.0957  0.6017
46565SOL    HW246557   1.758   8.464  10.792 -2.1973 -0.1537 -0.2944
46566SOL     OW46558   0.156   5.020   3.674  0.3603 -0.4360 -0.6775
46566SOL    HW146559   0.245   5.000   3.644  0.2202 -1.5052 -0.4175
46566SOL    HW246560   0.167   5.095   3.733  1.1084 -0.6836 -0.4926
46567SOL     OW46561  10.998   6.199   7.895  0.0183 -0.2450  0.2040
46567SOL    HW146562  11.092   6.209   7.881  0.0382  0.4103  0.7591
46567SOL    HW246563  10.958   6.233   7.815  0.2344  0.0835  0.2345
46568SOL     OW46564   1.116  12.189   8.586  0.4949  0.4483 -0.0425
46568SOL    HW146565   1.107  12.229   8.672 -1.2705  0.6579 -0.2901
46568SOL    HW246566   1.038  12.216   8.538 -0.2897 -2.3983 -0.5714
46569SOL     OW46567   3.883   3.796   1.644  0.0665 -0.2887  0.3647
46569SOL    HW146568   3.966   3.841   1.656 -0.9827  1.7720  0.4694
46569SOL    HW246569   3.835   3.812   1.725 -1.3183  0.6669 -0.5986
46570SOL     OW46570   4.152  10.592   1.859  0.3845 -0.2878 -0.2780
46570SOL    HW146571   4.105  10.666   1.820 -1.2844 -1.0081  0.2633
46570SOL    HW246572   4.243  10.606   1.835 -0.2869  0.2955 -2.8634
46571SOL     OW46573   3.044  10.337   2.053 -0.3077 -0.2834 -0.2215
46571SOL    HW146574   3.015  10.367   2.139  1.0433 -0.5650  0.3703
46571SOL    HW246575   3.014  10.404   1.992  1.1288  1.4094  0.8433
46572SOL     OW46576   1.602  11.280  11.990  0.2553  0.3403  0.0753
46572SOL    HW146577   1.544  11.254  11.919  2.7571 -0.7225 -1.7108
46572SOL    HW246578   1.596  11.209  12.053 -0.6583  0.4449  0.1228
46573SOL     OW46579   9.584   7.440   7.225  0.0224  0.1416 -0.3547
46573SOL    HW146580   9.585   7.480   7.312 -2.8836  0.1086 -0.1945
46573SOL    HW246581   9.493   7.411   7.214  1.1405 -3.2980 -1.8709
46574SOL     OW46582   2.799  10.371   6.584  0.0152  0.1607 -0.3489
46574SOL    HW146583   2.724  10.422   6.555 -0.0629 -0.5410 -1.4122
46574SOL    HW246584   2.779  10.281   6.558  1.4248  0.0340 -1.0897
46575SOL     OW46585   4.855   5.713   1.777  0.7089 -0.1569  0.0364
46575SOL    HW146586   4.919   5.728   1.846  2.6255 -0.9441 -1.4719
46575SOL    HW246587   4.828   5.801   1.749  0.6460  0.1684  1.0914
46576SOL     OW46588   9.434   2.386   4.568 -0.6645  0.0948  0.9274
46576SOL    HW146589   9.358   2.329   4.559 -0.3075 -0.7534  2.8428
46576SOL    HW246590   9.509   2.328   4.555 -0.2991  0.9343 -1.0240
46577SOL     OW46591   7.378   1.059   1.667 -0.2980  0.7170  0.0358
46577SOL    HW146592   7.431   1.013   1.602  1.9891  2.2816  0.6635
46577SOL    HW246593   7.380   1.002   1.744 -0.3368  0.3277 -0.2471
46578SOL     OW46594   8.329   0.635   5.139  0.4932 -0.0688 -0.7112
46578SOL    HW146595   8.345   0.707   5.201  1.1450 -0.0952 -0.8442
46578SOL    HW246596   8.303   0.679   5.058 -1.0079 -0.0532 -0.2517
46579SOL     OW46597   3.204  10.344   8.828 -0.4247  0.3398  0.2481
46579SOL    HW146598   3.294  10.367   8.850  0.3246  0.8905 -2.8800
46579SOL    HW246599   3.210  10.305   8.741 -2.9638 -1.9555  0.9596
46580SOL     OW46600   4.732   7.898  10.774  0.0940  0.4408 -0.2657
46580SOL    HW146601   4.739   7.926  10.682  0.2340  0.2085 -0.3261
46580SOL    HW246602   4.639   7.903  10.793  0.1643  1.4896 -0.1111
46581SOL     OW46603  11.352  10.949   0.220 -0.2223 -0.2042  0.1750
46581SOL    HW146604  11.376  10.856   0.222 -1.0598 -0.4392 -0.3348
46581SOL    HW246605  11.377  10.982   0.307 -1.9137 -1.4360  1.2020
46582SOL     OW46606   4.200   9.868   4.925  0.1518  0.1335  0.0460
46582SOL    HW146607   4.120   9.883   4.974  0.3686 -1.1035  0.8424
46582SOL    HW246608   4.202   9.773   4.912  0.3407  0.3804 -1.9676
46583SOL     OW46609  12.194   7.240   1.459 -0.3135  0.4949  0.0979
46583SOL    HW146610  12.216   7.328   1.427 -0.0618 -0.2903 -2.0635
46583SOL    HW246611  12.103   7.227   1.433  0.0705 -0.3860 -0.8692
46584SOL     OW46612   0.328   1.976   9.731  0.0985  0.2706 -0.2213
46584SOL    HW146613   0.238   1.954   9.708  0.5229 -0.3357 -1.4011
46584SOL    HW246614   0.341   1.937   9.818 -0.9741  0.9796  0.2724
46585SOL     OW46615   6.701   5.038  10.646 -0.3561  0.0991  0.0194
46585SOL    HW146616   6.706   4.957  10.596  1.1263  0.3460 -0.2663
46585SOL    HW246617   6.650   5.097  10.590  2.0612  0.6747 -1.7179
46586SOL     OW46618   7.733  12.451  11.952 -0.2811 -0.5458 -0.2611
46586SOL    HW146619   7.736  12.378  12.014  1.3381 -1.3639 -1.2269
46586SOL    HW246620   7.757  12.412  11.867 -1.8418  0.6438 -1.3043
46587SOL     OW46621   7.904   3.138   9.183  0.8353  0.3245 -0.0588
46587SOL    HW146622   7.828   3.139   9.241  1.2539  1.6995  0.5185
46587SOL    HW246623   7.882   3.076   9.115 -0.1259 -0.5316  0.9906
46588SOL     OW46624   0.470   2.274  10.531  0.0672  0.4662  0.1453
46588SOL    HW146625   0.497   2.237  10.616  1.1162 -1.1541 -0.8361
46588SOL    HW246626   0.537   2.340  10.512 -0.5810  1.3595  0.8981
46589SOL     OW46627   6.968   7.358   6.322  0.2159 -0.0614  0.0610
46589SOL    HW146628   6.981   7.334   6.230 -0.0046 -0.6865  0.1881
46589SOL    HW246629   7.019   7.293   6.371 -2.0041 -1.5635  0.4985
46590SOL     OW46630   3.518   5.385   1.461 -0.7490 -0.1501 -0.4926
46590SOL    HW146631   3.424   5.367   1.463 -0.7195 -0.2895 -0.3857
46590SOL    HW246632   3.530   5.439   1.382 -0.8492 -0.5268 -0.7681
46591SOL     OW46633   8.755  10.773   1.698 -0.5052 -0.2223  0.0313
46591SOL    HW146634   8.763  10.744   1.789 -0.2515  0.2189  0.1521
46591SOL    HW246635   8.845  10.787   1.669 -0.5675 -0.6868 -0.3975
46592SOL     OW46636   7.513  11.332   4.698  0.0391  0.1755 -0.1084
46592SOL    HW146637   7.498  11.425   4.679  2.7060  1.0286  1.4118
46592SOL    HW246638   7.500  11.288   4.615  1.9588  2.4090 -1.7224
46593SOL     OW46639   3.204  10.726   9.940 -0.3644  0.3645 -0.0469
46593SOL    HW146640   3.155  10.685  10.011  1.4893  0.1642  1.1838
46593SOL    HW246641   3.184  10.819   9.948 -0.7994  0.2512  0.2218
46594SOL     OW46642   4.915   0.062   4.935  0.1187  0.6739  0.0960
46594SOL    HW146643   4.944   0.153   4.943 -0.4693  0.8154  0.7066
46594SOL    HW246644   4.823   0.064   4.962  0.3362 -0.2420  0.9176
46595SOL     OW46645   3.008   4.685   7.306  1.0425  0.0605 -0.2157
46595SOL    HW146646   3.079   4.692   7.242  0.2982 -1.8932 -1.3345
46595SOL    HW246647   2.930   4.670   7.253  0.1727 -0.2193  1.1061
46596SOL     OW46648   9.258   0.318   7.350  0.1114 -0.1803 -0.6079
46596SOL    HW146649   9.166   0.340   7.334 -0.0973 -0.7946 -0.2857
46596SOL    HW246650   9.291   0.389   7.405 -0.8126 -1.0695  1.2048
46597SOL     OW46651  11.191   7.251   3.092  0.3699 -0.6926 -0.2513
46597SOL    HW146652  11.096   7.240   3.094  0.2450  0.1669 -0.9522
46597SOL    HW246653  11.222   7.208   3.172 -0.7658  0.5820  0.9245
46598SOL     OW46654  11.079   1.893  10.826  0.2593  0.3056  0.2407
46598SOL    HW146655  11.078   1.973  10.878  2.9975  0.7304 -0.2159
46598SOL    HW246656  11.114   1.826  10.885 -2.1839 -0.7214  0.6853
46599SOL     OW46657   4.289  12.388   8.474 -0.2008 -0.2611  0.2828
46599SOL    HW146658   4.247  12.393   8.560 -1.1850 -3.1455  0.0892
46599SOL    HW246659   4.382  12.374   8.493 -0.5821 -2.1570  0.9910
46600SOL     OW46660  11.771   4.995   3.523  0.7410 -0.4797 -0.4176
46600SOL    HW146661  11.804   5.004   3.434 -0.0955 -0.6958 -0.7622
46600SOL    HW246662  11.844   5.021   3.579  1.7943 -1.8336 -1.1147
46601SOL     OW46663   5.876   9.842   7.741  1.1026  0.2957  0.3456
46601SOL    HW146664   5.825   9.865   7.819  2.1864  0.8511  0.9168
46601SOL    HW246665   5.865   9.917   7.683  0.5234  0.0024  0.0595
46602SOL     OW46666   0.766   4.643  11.488 -0.0551 -0.5310  0.4696
46602SOL    HW146667   0.712   4.595  11.551 -2.1824  0.4179 -0.5147
46602SOL    HW246668   0.755   4.735  11.513 -0.5169 -0.1774 -0.9220
46603SOL     OW46669  11.521   3.317   5.985  0.3142  0.4288  0.3231
46603SOL    HW146670  11.451   3.270   5.941  0.8801 -0.2042  0.0834
46603SOL    HW246671  11.585   3.249   6.007 -0.6812  0.3976  3.6424
46604SOL     OW46672  11.884   6.698   5.967 -0.0968  0.2520  0.5721
46604SOL    HW146673  11.943   6.627   5.993 -2.5080 -3.3215 -2.6613
46604SOL    HW246674  11.934   6.747   5.902  0.2806 -1.1535 -0.2503
46605SOL     OW46675   2.635   8.285   1.978 -0.0308 -0.4483  0.0519
46605SOL    HW146676   2.544   8.255   1.974 -0.1682 -0.1173  0.6348
46605SOL    HW246677   2.640   8.358   1.915  0.0817 -1.0925 -0.7016
46606SOL     OW46678   7.811   7.834   7.591 -0.3001  0.3832  0.0316
46606SOL    HW146679   7.726   7.791   7.597 -0.2499  0.4552  1.6146
46606SOL    HW246680   7.845   7.808   7.505 -2.2284  0.9874 -0.9739
46607SOL     OW46681  10.427   8.751  10.610 -0.0555 -0.1042  0.0335
46607SOL    HW146682  10.474   8.697  10.546 -0.2238 -0.1047 -0.0922
46607SOL    HW246683  10.378   8.814  10.557 -1.8898 -1.4461  0.0140
46608SOL     OW46684   8.008   1.027   8.264  0.1002  0.8750 -0.6164
46608SOL    HW146685   8.033   1.093   8.200  1.0625  0.8016 -0.3317
46608SOL    HW246686   8.091   1.000   8.304 -0.3632  0.0633 -0.1807
46609SOL     OW46687  10.296  11.001   7.167 -0.4478 -0.3511  0.1523
46609SOL    HW146688  10.326  11.000   7.076  0.1726 -0.5676  0.3495
46609SOL    HW246689  10.204  11.025   7.162 -0.3473 -0.0715 -0.5145
46610SOL     OW46690   3.831   8.344  10.663  0.2495  0.0154  0.4041
46610SOL    HW146691   3.891   8.408  10.701 -0.6999  1.4427 -0.3917
46610SOL    HW246692   3.750   8.355  10.712 -0.1985  0.1020 -0.3275
46611SOL     OW46693  10.142   2.735   6.847  0.6837 -0.0401  0.1485
46611SOL    HW146694  10.097   2.724   6.931 -1.4540 -1.3203 -1.0534
46611SOL    HW246695  10.132   2.828   6.826 -0.1418 -0.0206  0.6032
46612SOL     OW46696   4.673   9.784   6.436  0.7408 -0.2729 -0.1040
46612SOL    HW146697   4.743   9.737   6.391 -0.7347 -1.4410 -1.3248
46612SOL    HW246698   4.680   9.874   6.404  0.7524 -0.7216 -1.4333
46613SOL     OW46699  12.046   8.657   4.933 -0.2925 -0.4990  0.6346
46613SOL    HW146700  12.059   8.562   4.936  1.5064 -0.3535 -0.6838
46613SOL    HW246701  12.014   8.674   4.844  0.0849  0.1722  0.6165
46614SOL     OW46702   2.432   8.139  12.067  0.2196  0.3815 -0.7595
46614SOL    HW146703   2.427   8.051  12.105  0.4468 -0.6614 -2.9952
46614SOL    HW246704   2.496   8.131  11.997 -1.0703  1.8694 -2.1767
46615SOL     OW46705   6.357   3.482   2.830 -0.1003 -0.0769 -0.6824
46615SOL    HW146706   6.267   3.452   2.814 -0.2696  1.1103 -2.2943
46615SOL    HW246707   6.368   3.556   2.770  1.7212  0.2739  0.0178
46616SOL     OW46708  10.373   6.556   3.232  0.1239 -0.1240 -0.3247
46616SOL    HW146709  10.465   6.582   3.227 -0.2955  1.3740 -0.8185
46616SOL    HW246710  10.351   6.525   3.144 -0.1401  0.6326 -0.5326
46617SOL     OW46711   0.226   4.052   4.777 -0.1185 -0.3866  0.0576
46617SOL    HW146712   0.183   4.080   4.696 -1.2434 -0.9902  0.4241
46617SOL    HW246713   0.305   4.106   4.782 -1.1845  1.2741 -0.2832
46618SOL     OW46714   6.296   5.393   5.013 -0.3402 -0.1385 -0.7739
46618SOL    HW146715   6.209   5.413   4.979 -0.3613  1.0499 -0.0676
46618SOL    HW246716   6.285   5.385   5.107  0.2314 -0.4336 -0.7262
46619SOL     OW46717   7.406   8.671  10.246  0.2134  0.4561  0.0999
46619SOL    HW146718   7.380   8.755  10.285  0.4020  1.4307 -1.7896
46619SOL    HW246719   7.347   8.659  10.172 -1.0101 -2.0108  1.3144
46620SOL     OW46720   5.578   1.436   3.473  0.1576  0.3786  0.4966
46620SOL    HW146721   5.563   1.530   3.463  2.6674  0.6890 -1.4427
46620SOL    HW246722   5.665   1.429   3.510  0.4101 -1.1727 -0.2864
46621SOL     OW46723   8.237   9.142  11.555  0.1890 -0.0722  0.3420
46621SOL    HW146724   8.214   9.165  11.645  0.2530 -0.4640  0.4588
46621SOL    HW246725   8.152   9.141  11.509  0.1409 -0.0112  0.4273
46622SOL     OW46726  12.201   4.102   2.968 -0.1115 -0.3613 -0.0030
46622SOL    HW146727  12.234   4.146   2.889 -3.1834 -1.2981 -1.9569
46622SOL    HW246728  12.144   4.167   3.010 -0.4805 -0.7373  0.0706
46623SOL     OW46729   7.064   4.335  11.401  0.3009 -0.2893  0.3852
46623SOL    HW146730   7.151   4.350  11.365 -0.0629 -0.5792 -0.6520
46623SOL    HW246731   7.006   4.336  11.325 -0.4668 -1.1649  0.9410
46624SOL     OW46732  10.016   0.085   5.979 -0.1527 -0.1730 -0.2459
46624SOL    HW146733  10.013   0.131   6.063 -0.0260 -2.8938  1.3644
46624SOL    HW246734  10.100   0.110   5.940  0.5953 -0.2273  1.2839
46625SOL     OW46735   2.539   8.609  10.527 -0.4525  0.7528  0.1857
46625SOL    HW146736   2.513   8.700  10.539 -2.2185  0.6420 -2.1098
46625SOL    HW246737   2.477   8.574  10.463 -0.0445 -2.1899  1.2369
46626SOL     OW46738  12.462  11.704  11.681  0.4483  0.2722 -0.1424
46626SOL    HW146739  12.496  11.775  11.735  1.7136  0.7854 -1.5549
46626SOL    HW246740  12.388  11.670  11.731  0.4798  1.8611  1.0796
46627SOL     OW46741   9.093   5.668   7.662 -0.1368 -0.2856  1.0705
46627SOL    HW146742   9.174   5.684   7.613  0.4938 -0.6938  1.9410
46627SOL    HW246743   9.029   5.727   7.622  0.6371  0.1916  0.4886
46628SOL     OW46744   3.493  11.593   4.841 -0.8469 -0.0621  0.4412
46628SOL    HW146745   3.586  11.576   4.824 -0.9043  0.0860 -0.0322
46628SOL    HW246746   3.493  11.667   4.902 -0.6511 -0.2315  0.6492
46629SOL     OW46747   1.085   2.613   9.852 -0.1820  0.0958 -0.2636
46629SOL    HW146748   1.059   2.661   9.773  0.4279  2.2659  0.7793
46629SOL    HW246749   1.173   2.581   9.833 -0.6261 -0.7295 -1.0004
46630SOL     OW46750  10.991   7.023   6.760  0.0150 -0.1875 -0.0021
46630SOL    HW146751  10.950   6.936   6.759 -0.5737  0.0537 -2.0000
46630SOL    HW246752  10.941   7.073   6.695  0.7747  1.4483  0.6337
46631SOL     OW46753  12.366  12.178  11.701  0.3670 -0.0784  1.1395
46631SOL    HW146754  12.446  12.150  11.656 -0.6951 -0.1849 -0.8056
46631SOL    HW246755  12.395  12.240  11.767  1.8753  2.0942 -1.3699
46632SOL     OW46756   9.090   1.309   5.502  0.2063 -0.5968  0.3958
46632SOL    HW146757   9.038   1.321   5.582 -1.4993 -3.3893 -0.1949
46632SOL    HW246758   9.036   1.347   5.433 -0.0100 -1.4384  0.0951
46633SOL     OW46759   5.759   8.959   5.315 -1.0225 -0.1687  0.2653
46633SOL    HW146760   5.714   9.041   5.336  0.1902  1.2031 -2.0916
46633SOL    HW246761   5.688   8.895   5.305 -2.3106  1.3679 -1.0070
46634SOL     OW46762   4.177   2.670   7.392  0.2440 -0.5382  0.2395
46634SOL    HW146763   4.146   2.756   7.422 -0.1294 -0.8958  0.8954
46634SOL    HW246764   4.098   2.616   7.388  0.4092 -0.7165 -0.6450
46635SOL     OW46765   0.193   8.530  11.095 -0.2718 -0.1337 -0.4003
46635SOL    HW146766   0.250   8.457  11.075 -0.0893 -0.5637  1.4540
46635SOL    HW246767   0.249   8.608  11.088  0.2097 -0.4274  0.0779
46636SOL     OW46768   8.049   3.223   6.621  0.0037 -0.2643 -0.0069
46636SOL    HW146769   7.993   3.146   6.629 -0.7982  0.3207  0.1202
46636SOL    HW246770   8.070   3.228   6.527  0.4972 -0.9274  0.0591
46637SOL     OW46771   6.916   5.499   2.695  0.0823 -0.1760  0.2579
46637SOL    HW146772   6.919   5.408   2.667  1.6069 -0.5552  1.5273
46637SOL    HW246773   6.934   5.549   2.615 -0.4592 -0.9849 -0.3882
46638SOL     OW46774   1.157   5.315  11.104  0.1960 -0.6803  0.0040
46638SOL    HW146775   1.145   5.225  11.071 -1.8286 -0.4273 -0.0973
46638SOL    HW246776   1.126   5.370  11.032 -1.5466 -0.0338  1.1833
46639SOL     OW46777   1.028  10.400   4.232 -0.6785  0.4637 -0.0312
46639SOL    HW146778   1.080  10.426   4.157 -0.0010 -0.5604  0.0588
46639SOL    HW246779   1.004  10.309   4.215 -0.8054  0.3207  0.8322
46640SOL     OW46780   5.839  10.316   0.620  0.3114  0.2121 -0.2153
46640SOL    HW146781   5.909  10.283   0.563  0.1177  1.3953 -1.1804
46640SOL    HW246782   5.815  10.401   0.582  1.4869  2.0085  2.7107
46641SOL     OW46783   8.714  11.327  11.275 -0.0938  0.1685  0.0274
46641SOL    HW146784   8.797  11.374  11.271  0.1308 -0.2214  0.1698
46641SOL    HW246785   8.711  11.289  11.362 -0.5786  0.4597  0.1466
46642SOL     OW46786   2.898   2.070   9.550 -0.3630 -0.2425 -0.0455
46642SOL    HW146787   2.903   2.086   9.455 -1.0375 -1.0151 -0.2249
46642SOL    HW246788   2.809   2.093   9.574  0.4414  2.2080  0.8789
46643SOL     OW46789   6.047  11.736  11.801 -0.1257 -0.2805  0.0126
46643SOL    HW146790   6.111  11.787  11.850 -1.1022 -0.5982  1.6889
46643SOL    HW246791   6.083  11.732  11.712  0.9438  1.6151  0.3027
46644SOL     OW46792   5.668   4.010   7.245 -0.0417 -0.5052  0.5755
46644SOL    HW146793   5.594   4.063   7.273  1.3738  2.0292 -0.1086
46644SOL    HW246794   5.647   3.983   7.156 -0.5945 -0.7288  0.7712
46645SOL     OW46795   5.068   9.260  11.687  0.4156 -0.2299  0.3174
46645SOL    HW146796   5.131   9.200  11.648 -0.4375 -1.5419  0.8783
46645SOL    HW246797   5.090   9.346  11.651  1.0881 -1.0208 -1.2243
46646SOL     OW46798   0.851   3.975   7.395  0.3046  0.0992 -0.1023
46646SOL    HW146799   0.928   4.008   7.349  0.8507 -3.3203 -2.0500
46646SOL    HW246800   0.778   3.989   7.335  0.0497  0.2491  0.2381
46647SOL     OW46801  11.843   6.756   7.487 -0.1137  0.6972 -0.0598
46647SOL    HW146802  11.871   6.820   7.422 -0.6260  1.8112  0.7868
46647SOL    HW246803  11.751   6.777   7.502 -0.5049 -0.7367 -0.3122
46648SOL     OW46804   6.684  12.275   3.163  0.2013 -0.1344  0.1241
46648SOL    HW146805   6.752  12.213   3.138 -0.4912 -1.6468  1.7238
46648SOL    HW246806   6.731  12.353   3.192  1.1779 -0.5158 -0.4029
46649SOL     OW46807   3.177  11.090   2.726 -0.6297 -0.4678  0.3069
46649SOL    HW146808   3.184  11.017   2.787 -0.7887 -1.1507 -0.4751
46649SOL    HW246809   3.085  11.088   2.697 -1.0106  0.8923  1.2957
46650SOL     OW46810  12.425   8.250  10.244 -0.6610 -0.7229  0.1271
46650SOL    HW146811  12.342   8.206  10.261 -1.9047  1.5946  0.5008
46650SOL    HW246812  12.411   8.300  10.164  0.9470 -1.5449 -0.7205
46651SOL     OW46813  11.735   8.731   7.384  0.0198 -0.4438 -0.2375
46651SOL    HW146814  11.794   8.805   7.395  0.3792 -0.8216  0.4065
46651SOL    HW246815  11.754   8.699   7.296  0.6233 -0.4250 -0.1195
46652SOL     OW46816   4.993   3.302  10.926  0.2383 -0.0928  0.3351
46652SOL    HW146817   4.995   3.222  10.978 -3.8238  0.3797  1.5709
46652SOL    HW246818   4.996   3.373  10.990 -2.3756  0.5307 -0.0767
46653SOL     OW46819   0.126   2.632   9.025 -0.8391  0.5123 -0.0221
46653SOL    HW146820   0.031   2.640   9.011 -0.9757 -0.6826  0.1176
46653SOL    HW246821   0.137   2.546   9.066  0.3543  0.4365 -0.4614
46654SOL     OW46822  11.364   1.024   0.719 -0.3834 -0.1532  0.4212
46654SOL    HW146823  11.406   1.110   0.707  1.1550 -0.9692 -0.3975
46654SOL    HW246824  11.271   1.041   0.705 -0.0058  1.2213 -0.7042
46655SOL     OW46825   2.975   3.718   5.935 -0.1904  0.1575 -0.0401
46655SOL    HW146826   2.990   3.659   6.009  1.2965 -0.1365 -0.5403
46655SOL    HW246827   2.997   3.805   5.968  0.7343 -0.0097 -0.1983
46656SOL     OW46828   3.298   6.917   9.429  0.2150  0.0486  0.4155
46656SOL    HW146829   3.260   6.861   9.361 -3.4682  1.3941  1.1348
46656SOL    HW246830   3.293   7.005   9.392  2.0890  0.3993  0.8962
46657SOL     OW46831  10.039   6.688   1.164 -0.3539  0.4705 -0.6352
46657SOL    HW146832   9.974   6.619   1.155  0.2686 -0.3344  0.6769
46657SOL    HW246833  10.098   6.656   1.232  0.1249  2.1587 -0.2079
46658SOL     OW46834   8.904   6.983   0.569 -0.6461  0.0599  0.4104
46658SOL    HW146835   8.880   6.892   0.552  0.8104 -0.1198 -0.8615
46658SOL    HW246836   8.952   6.980   0.652  1.4761 -0.7576 -0.7726
46659SOL     OW46837   6.320   6.517  11.834 -0.8492  0.1934  0.1607
46659SOL    HW146838   6.314   6.548  11.744 -0.6435 -0.5930 -0.1300
46659SOL    HW246839   6.248   6.455  11.843 -0.1397 -0.6445  0.1606
46660SOL     OW46840   9.446   4.938  10.945 -0.0125 -0.3351  0.2711
46660SOL    HW146841   9.351   4.929  10.955 -0.1471  1.1386  0.5769
46660SOL    HW246842   9.470   4.869  10.882 -1.2800 -0.7103  0.1622
46661SOL     OW46843   5.161  11.440   9.304  0.5344  0.8150 -0.2163
46661SOL    HW146844   5.233  11.417   9.244 -0.3668  1.2604 -1.5253
46661SOL    HW246845   5.204  11.473   9.382  1.7638  0.2532 -0.6276
46662SOL     OW46846  10.928   9.818   9.134 -0.1381  0.1911 -0.1975
46662SOL    HW146847  10.934   9.912   9.152  1.0036 -0.1079  1.1715
46662SOL    HW246848  10.955   9.777   9.216  1.5522 -1.3206 -1.4510
46663SOL     OW46849   3.092   0.550  11.892 -0.6910  0.2089  0.0401
46663SOL    HW146850   3.031   0.476  11.894  0.2671 -0.6106 -0.5317
46663SOL    HW246851   3.159   0.525  11.829  0.2936  1.0662  0.7130
46664SOL     OW46852   4.568   7.577   7.845 -0.5954  0.3051 -0.0821
46664SOL    HW146853   4.570   7.588   7.750 -2.9234 -0.2198 -0.2570
46664SOL    HW246854   4.516   7.652   7.876 -1.2182 -0.3829  0.5792
46665SOL     OW46855   8.021   7.161  11.146 -0.2308  0.2440 -0.0574
46665SOL    HW146856   8.023   7.232  11.210 -2.2936 -0.4893  0.9106
46665SOL    HW246857   8.049   7.084  11.194 -3.6085 -0.6988  0.6385
46666SOL     OW46858   9.520   7.985  11.588  0.3454 -0.6226  0.9194
46666SOL    HW146859   9.450   8.038  11.550  0.3903 -0.8124  0.5629
46666SOL    HW246860   9.528   8.015  11.678  1.4231  1.0661  0.3023
46667SOL     OW46861   7.948   5.288   9.205 -0.0144  0.6414  0.1615
46667SOL    HW146862   7.969   5.353   9.139 -0.6856 -0.1596 -0.8820
46667SOL    HW246863   7.852   5.287   9.208 -0.0994 -1.5302 -1.1706
46668SOL     OW46864   5.794  11.076   7.020  0.0952  0.1260  0.3462
46668SOL    HW146865   5.864  11.120   6.971  0.0504  1.8289  1.7011
46668SOL    HW246866   5.839  11.030   7.091  0.0133 -0.7126 -0.1409
46669SOL     OW46867   8.024   9.663  12.139 -0.2386 -0.0540 -0.1562
46669SOL    HW146868   7.942   9.692  12.098 -0.4802 -0.2728  0.1634
46669SOL    HW246869   8.032   9.718  12.218  0.7778  1.1171 -1.0409
46670SOL     OW46870   3.682   2.090   4.320 -0.2653 -0.0092 -0.0884
46670SOL    HW146871   3.605   2.142   4.344  0.2350  2.0807 -2.5172
46670SOL    HW246872   3.755   2.152   4.325  1.2689 -1.8249  1.7250
46671SOL     OW46873   6.509   0.883   5.032 -0.2866  0.2054 -0.5314
46671SOL    HW146874   6.590   0.843   5.063 -1.0000 -0.3081  0.7306
46671SOL    HW246875   6.446   0.811   5.030 -0.2227  0.0970 -3.6001
46672SOL     OW46876   5.808  11.649  11.402  0.1285 -0.1010 -0.1273
46672SOL    HW146877   5.818  11.581  11.468  0.0698  0.6755  0.7014
46672SOL    HW246878   5.874  11.629  11.336  2.3887  0.8643  1.7082
46673SOL     OW46879   7.597  10.244   3.303  0.3164  0.2356  0.0220
46673SOL    HW146880   7.565  10.239   3.213 -1.1662  0.7410  0.4963
46673SOL    HW246881   7.645  10.327   3.307  1.5486 -0.4182 -0.6338
46674SOL     OW46882  10.922   7.064   7.379 -0.5204 -0.0775  0.1471
46674SOL    HW146883  10.864   7.119   7.432  0.1861  3.3159 -2.2680
46674SOL    HW246884  10.864   6.997   7.342 -2.4442  1.7290 -0.2724
46675SOL     OW46885   0.816   6.404   9.014  0.5179  0.0717  0.9805
46675SOL    HW146886   0.818   6.315   9.051  0.4067 -0.9340 -1.2939
46675SOL    HW246887   0.822   6.391   8.920  0.4670  2.5131  0.5827
46676SOL     OW46888  11.887   4.447   1.381 -0.0033 -0.2817 -0.1726
46676SOL    HW146889  11.961   4.486   1.427  0.2904 -0.0917 -0.7930
46676SOL    HW246890  11.818   4.442   1.446  0.3750  0.0656  0.2614
46677SOL     OW46891   7.587   6.753   7.030 -0.6619 -0.4579  0.7009
46677SOL    HW146892   7.554   6.762   7.120 -0.0464  1.4309  0.7801
46677SOL    HW246893   7.641   6.674   7.033 -1.0852 -0.7274  1.8618
46678SOL     OW46894   4.980   8.238   9.700 -0.4388 -0.2603 -0.0827
46678SOL    HW146895   5.034   8.169   9.661 -0.5044 -0.4441  0.1488
46678SOL    HW246896   4.890   8.214   9.677 -0.4891 -0.4563  0.3181
46679SOL     OW46897   0.657   1.531   1.974  0.0632  0.1338  0.4225
46679SOL    HW146898   0.605   1.603   2.010 -0.8810 -0.0492 -0.5425
46679SOL    HW246899   0.739   1.572   1.948 -0.4680  0.8717 -0.1265
46680SOL     OW46900  11.440   0.278   6.005  0.3356  0.6656 -0.2084
46680SOL    HW146901  11.432   0.230   6.087  0.5011 -1.7398 -1.5247
46680SOL    HW246902  11.350   0.296   5.978  0.2846  1.7641  0.6109
46681SOL     OW46903   6.298  10.048  12.238  0.3549 -0.1973 -0.1231
46681SOL    HW146904   6.337   9.963  12.260  0.8590  0.2552  0.7838
46681SOL    HW246905   6.219  10.026  12.189  0.8321 -1.1722 -0.4750
46682SOL     OW46906   8.814  12.057  10.557  0.2477 -0.3407 -0.6684
46682SOL    HW146907   8.842  11.967  10.540 -0.2591 -0.7392  0.4916
46682SOL    HW246908   8.747  12.074  10.492  0.4383 -0.7535 -0.9785
46683SOL     OW46909   1.425   9.058   3.667 -0.1626  0.4357  0.2114
46683SOL    HW146910   1.341   9.042   3.624  0.0012  0.6042 -0.1830
46683SOL    HW246911   1.407   9.047   3.760 -0.6943  0.7934  0.1534
46684SOL     OW46912   5.434   0.593   2.295 -0.4016  0.5423 -0.1071
46684SOL    HW146913   5.351   0.577   2.340 -0.2743 -0.6896 -0.2789
46684SOL    HW246914   5.501   0.582   2.363 -0.3651  1.8814  0.1145
46685SOL     OW46915   0.551  11.688  11.561  0.2120 -0.1206  0.1817
46685SOL    HW146916   0.497  11.663  11.636 -0.1048 -0.8511 -0.2819
46685SOL    HW246917   0.509  11.767  11.526 -0.4612 -0.5769 -0.0632
46686SOL     OW46918   9.751  11.236   6.492 -0.4788  0.3082 -0.5391
46686SOL    HW146919   9.833  11.241   6.442 -1.2547 -1.0969 -2.0259
46686SOL    HW246920   9.776  11.263   6.581  2.6515 -4.2649  0.3025
46687SOL     OW46921  11.157  12.473   2.758  0.2261 -0.3383  0.0187
46687SOL    HW146922  11.240  12.473   2.805  0.0187  0.2950  0.3883
46687SOL    HW246923  11.179  12.442   2.670  0.4699 -2.3907  0.7388
46688SOL     OW46924   8.142   3.433   9.921  0.3725 -0.5715 -0.1757
46688SOL    HW146925   8.187   3.515   9.945  2.4326 -1.3844 -1.0227
46688SOL    HW246926   8.168   3.371   9.989  1.0983 -1.2300 -1.0415
46689SOL     OW46927   8.856   5.662  11.298  0.1425 -0.0400  0.1037
46689SOL    HW146928   8.883   5.743  11.254  0.4062 -0.5325 -0.6717
46689SOL    HW246929   8.882   5.674  11.389  1.3183  0.2444 -0.2526
46690SOL     OW46930   2.683  11.311   1.068  0.0794 -0.1085  0.1785
46690SOL    HW146931   2.610  11.309   1.006  0.2678  0.5884 -0.0767
46690SOL    HW246932   2.761  11.320   1.013  0.4015 -1.2437  0.4269
46691SOL     OW46933  10.446  10.017   0.110 -0.5216  0.3201  0.0207
46691SOL    HW146934  10.437   9.978   0.023  0.0903  0.1339  0.0322
46691SOL    HW246935  10.369  10.073   0.120  0.0156  1.3116 -1.1490
46692SOL     OW46936   7.521   5.932   8.406 -0.2673 -0.3233 -0.0689
46692SOL    HW146937   7.563   5.848   8.389 -0.8808 -0.4526 -1.0360
46692SOL    HW246938   7.428   5.917   8.388 -0.6506  0.1221  1.4218
46693SOL     OW46939   1.754   6.544   2.235  0.1627  0.3520  0.3814
46693SOL    HW146940   1.758   6.565   2.328 -0.0854  1.1147  0.2296
46693SOL    HW246941   1.840   6.568   2.201 -0.2650  1.5997  0.1237
46694SOL     OW46942  11.757   7.282   5.771  0.1019  0.3805  0.7459
46694SOL    HW146943  11.674   7.322   5.800  0.3855  1.5671 -0.0099
46694SOL    HW246944  11.736   7.189   5.762 -1.0908  0.6187  0.7957
46695SOL     OW46945  11.668   4.664   8.029 -0.6075 -0.4757  0.1870
46695SOL    HW146946  11.682   4.755   8.053  0.1560 -0.4628 -0.2758
46695SOL    HW246947  11.598   4.634   8.087 -0.3336  0.1884  0.8751
46696SOL     OW46948   1.840   8.147   2.519 -0.0782 -0.1005  0.1887
46696SOL    HW146949   1.924   8.170   2.559 -0.0622 -0.6687  0.4818
46696SOL    HW246950   1.789   8.109   2.590 -0.7082  0.5428  0.0915
46697SOL     OW46951   8.143   7.167   0.031  0.3544  0.0721 -0.1369
46697SOL    HW146952   8.213   7.211  -0.017  0.4767 -1.4236 -1.4050
46697SOL    HW246953   8.079   7.144  -0.037 -1.0574  0.7962  0.8933
46698SOL     OW46954   9.627   6.185   0.593 -0.2026 -0.2095  0.1256
46698SOL    HW146955   9.632   6.092   0.614  1.5492  0.1017  1.2267
46698SOL    HW246956   9.556   6.218   0.648  0.1248 -0.6269  0.8082
46699SOL     OW46957   6.583   4.327   0.017 -0.5163  0.0956 -0.0504
46699SOL    HW146958   6.580   4.250   0.073  0.0969  1.0450  1.3171
46699SOL    HW246959   6.604   4.399   0.075  0.2535  1.1118 -1.5196
46700SOL     OW46960   5.893   2.617   3.741 -0.0781 -0.0108 -0.4130
46700SOL    HW146961   5.820   2.558   3.721 -0.6202  0.1225  1.0576
46700SOL    HW246962   5.853   2.703   3.746  0.0237 -0.0249  1.0856
46701SOL     OW46963   4.431  10.166   7.047 -0.1108  0.0283  0.0432
46701SOL    HW146964   4.480  10.177   7.128 -0.3530 -0.6601  0.2914
46701SOL    HW246965   4.375  10.243   7.041  0.9534  0.7957 -0.2179
46702SOL     OW46966   2.210   4.075  10.034 -0.5004  0.0210  0.1360
46702SOL    HW146967   2.276   4.044   9.972 -0.8201 -2.2208  0.8200
46702SOL    HW246968   2.247   4.154  10.073  0.4481  0.4884 -1.6199
46703SOL     OW46969   9.923   7.272   5.630  0.0511  0.3429 -0.3765
46703SOL    HW146970   9.901   7.248   5.720  0.4295  0.5380 -0.2317
46703SOL    HW246971   9.993   7.213   5.605  0.8212  1.1218 -0.0991
46704SOL     OW46972  10.725   9.751   9.560  0.0004 -0.4017 -0.4146
46704SOL    HW146973  10.777   9.725   9.636  0.0086  0.2993 -0.1719
46704SOL    HW246974  10.730   9.847   9.559  1.5046 -0.4205 -2.3306
46705SOL     OW46975  12.256   3.675   1.385 -0.6016  0.6333 -0.1083
46705SOL    HW146976  12.272   3.589   1.348  2.2509  1.4055 -0.9256
46705SOL    HW246977  12.229   3.658   1.476 -1.1701 -1.1132 -0.5819
46706SOL     OW46978   0.235  11.284   2.628  0.0868 -0.4118  0.0470
46706SOL    HW146979   0.165  11.261   2.689 -0.6749  0.3517 -0.5062
46706SOL    HW246980   0.258  11.202   2.585  0.6821 -0.9714  1.3953
46707SOL     OW46981   1.482   7.088   5.676 -0.0622  0.3961  0.1737
46707SOL    HW146982   1.469   7.060   5.767 -1.3026 -0.3349 -0.1970
46707SOL    HW246983   1.573   7.065   5.656 -0.0463 -0.2492  0.9572
46708SOL     OW46984   2.867   6.937  11.635 -0.1838  0.0958 -0.6005
46708SOL    HW146985   2.905   6.850  11.648  0.7225  0.4538 -0.7740
46708SOL    HW246986   2.803   6.925  11.564 -0.6697 -0.5852 -0.0654
46709SOL     OW46987  11.846   4.286   3.991  0.4466 -0.1408  0.6596
46709SOL    HW146988  11.813   4.374   4.008  1.9475  0.6005  0.0052
46709SOL    HW246989  11.771   4.237   3.960 -0.2020  1.2234 -0.0076
46710SOL     OW46990   8.204   6.860   2.601  0.2092 -0.1537 -0.4336
46710SOL    HW146991   8.111   6.875   2.586 -0.3033 -1.2260  1.2833
46710SOL    HW246992   8.244   6.866   2.514 -1.3377  1.0114 -1.1128
46711SOL     OW46993   3.295   6.670  12.086 -0.5137  0.1654 -0.0097
46711SOL    HW146994   3.289   6.577  12.066 -0.2750  0.2645 -0.5482
46711SOL    HW246995   3.290   6.674  12.182  1.5849 -0.5724  0.1927
46712SOL     OW46996   3.600   3.044  11.326  0.3516 -0.2498  0.3647
46712SOL    HW146997   3.570   2.981  11.392  0.3483 -1.1269 -0.4579
46712SOL    HW246998   3.631   2.990  11.253 -0.8333  0.6962 -0.8976
46713SOL     OW46999   6.093   6.792   6.705 -0.2577  0.2331  0.0610
46713SOL    HW147000   6.060   6.703   6.695 -0.4384  0.3517 -0.4248
46713SOL    HW247001   6.016   6.845   6.724 -0.2323  0.3780 -0.2370
46714SOL     OW47002  10.230   7.854   2.083 -0.0947  0.2425  0.3540
46714SOL    HW147003  10.159   7.797   2.055  0.4268 -1.8892  2.8745
46714SOL    HW247004  10.310   7.810   2.053  0.2755  0.8990  0.3406
46715SOL     OW47005   7.126   2.086  10.156 -0.1131  0.4583  0.1955
46715SOL    HW147006   7.059   2.105  10.222 -0.7911  0.2273 -0.4098
46715SOL    HW247007   7.202   2.056  10.206 -0.1008  1.6999  0.9580
46716SOL     OW47008   4.458  10.046   9.672  0.0021  0.2681 -0.1327
46716SOL    HW147009   4.366  10.065   9.691 -0.1932 -1.6746  1.1776
46716SOL    HW247010   4.457   9.956   9.639  1.2863  0.7998 -1.7212
46717SOL     OW47011   5.123   2.583   0.821 -0.1505  0.1784 -0.6712
46717SOL    HW147012   5.100   2.534   0.742 -0.6408 -2.4218  0.9864
46717SOL    HW247013   5.160   2.518   0.880  1.8823  2.3614  0.6479
46718SOL     OW47014  11.728   3.704   1.828 -0.0593  0.9388  0.0327
46718SOL    HW147015  11.715   3.640   1.898 -2.0608  0.2399 -0.8668
46718SOL    HW247016  11.820   3.727   1.832 -0.1253  0.9882  2.9027
46719SOL     OW47017   2.747   0.624   9.803 -0.1456  0.5138 -0.1156
46719SOL    HW147018   2.672   0.565   9.796 -0.4447  0.6620  1.5228
46719SOL    HW247019   2.713   0.702   9.847  1.0526  0.3996  1.0820
46720SOL     OW47020   7.194   1.526   2.208 -0.3664 -0.1232 -0.1497
46720SOL    HW147021   7.261   1.572   2.158 -0.0523  1.2591  1.4275
46720SOL    HW247022   7.237   1.445   2.237  0.2235  0.1621 -0.2028
46721SOL     OW47023   1.045  10.707  10.372  0.0312 -0.4256  0.0074
46721SOL    HW147024   1.100  10.695  10.449  0.4641 -0.0239 -0.2283
46721SOL    HW247025   1.010  10.620  10.353 -1.3686 -0.2693  1.5942
46722SOL     OW47026  10.703   6.518   0.222  0.2632  0.0625  0.0237
46722SOL    HW147027  10.741   6.439   0.183 -0.2241  0.2403 -0.8405
46722SOL    HW247028  10.778   6.577   0.233  0.4152  0.0229 -0.7031
46723SOL     OW47029  11.391   5.856   3.580  0.3535 -0.0905 -0.3460
46723SOL    HW147030  11.329   5.889   3.515 -0.0579 -0.7365 -0.2952
46723SOL    HW247031  11.454   5.927   3.591 -1.0468  1.0880  0.4888
46724SOL     OW47032   5.874   9.177   8.606 -0.1026  0.0452 -0.2088
46724SOL    HW147033   5.898   9.129   8.685 -3.3944  0.3417  1.1112
46724SOL    HW247034   5.896   9.116   8.535  0.1905 -1.4574  1.0961
46725SOL     OW47035   5.735   3.751   2.814  0.0715  0.2542 -0.1095
46725SOL    HW147036   5.826   3.781   2.806 -0.1845  0.8568 -0.9390
46725SOL    HW247037   5.684   3.831   2.827 -0.1552 -0.2333  2.5779
46726SOL     OW47038   8.467   8.044   7.327 -0.5825  0.3523  0.2413
46726SOL    HW147039   8.447   8.000   7.410 -1.4475 -0.5282 -0.4044
46726SOL    HW247040   8.450   7.978   7.260  0.8085  0.8195 -0.6190
46727SOL     OW47041   3.851   5.485   5.114  0.0073  0.6344  0.6145
46727SOL    HW147042   3.774   5.489   5.172 -0.7804 -1.7045 -0.1342
46727SOL    HW247043   3.814   5.481   5.026  0.9244 -1.0000  0.2640
46728SOL     OW47044   7.599  11.701   6.757 -0.0938  0.2599 -0.1805
46728SOL    HW147045   7.552  11.674   6.678  2.0524  2.0218 -2.2346
46728SOL    HW247046   7.691  11.707   6.729  0.6998  1.3603  2.3527
46729SOL     OW47047   1.256   6.749  10.853  0.1430  0.1616  0.0220
46729SOL    HW147048   1.333   6.784  10.808  0.6178  0.8238  1.2919
46729SOL    HW247049   1.187   6.751  10.787  0.8527  0.8985 -0.7293
46730SOL     OW47050   3.217   5.001   4.412  0.1523 -0.4973 -1.1649
46730SOL    HW147051   3.186   5.055   4.339 -1.8873 -0.1263 -0.0931
46730SOL    HW247052   3.245   5.064   4.478 -0.6729 -0.7582 -0.5517
46731SOL     OW47053   9.102   3.671  10.286 -0.2521 -0.2180  0.2571
46731SOL    HW147054   9.128   3.708  10.202  0.2336 -0.9638  0.0648
46731SOL    HW247055   9.176   3.616  10.312 -0.4855 -0.1555  1.0708
46732SOL     OW47056  10.293   3.061   4.417  0.1542  0.1365 -0.2510
46732SOL    HW147057  10.329   3.149   4.428 -0.7226  0.3224  1.3691
46732SOL    HW247058  10.212   3.075   4.368  0.5250  0.1004 -0.8871
46733SOL     OW47059   6.005   5.192  12.388 -0.2569  0.1309  0.3928
46733SOL    HW147060   5.922   5.195  12.341 -0.5126 -1.0812  0.7180
46733SOL    HW247061   5.982   5.209  12.479 -0.3749 -1.4306  0.6940
46734SOL     OW47062   3.252   0.358   0.530  0.6411  0.4942 -0.6480
46734SOL    HW147063   3.273   0.383   0.440  0.7073  0.6835 -0.5802
46734SOL    HW247064   3.219   0.439   0.570 -0.6603  0.1133 -0.8782
46735SOL     OW47065   1.107   3.556  10.812  0.2351 -0.3851 -0.0273
46735SOL    HW147066   1.153   3.596  10.885  0.3191  0.0622 -0.3173
46735SOL    HW247067   1.145   3.598  10.734  0.1453 -0.8482 -0.3218
46736SOL     OW47068  10.712   8.204   5.875 -0.2794 -0.2949 -0.0527
46736SOL    HW147069  10.763   8.192   5.954 -1.8646  1.6276  1.3746
46736SOL    HW247070  10.681   8.116   5.852  1.7408 -1.1445  0.3087
46737SOL     OW47071   6.891   6.742   0.407 -0.2012 -0.5250 -0.0199
46737SOL    HW147072   6.956   6.779   0.347 -0.8538 -0.7153 -0.8586
46737SOL    HW247073   6.892   6.801   0.482  0.9504 -0.5350 -0.0031
46738SOL     OW47074   7.972  11.841   9.753  0.3043  0.3633 -0.0223
46738SOL    HW147075   7.961  11.842   9.848  0.2930  1.2634 -0.0286
46738SOL    HW247076   7.975  11.933   9.727 -1.0186  0.1534 -1.0542
46739SOL     OW47077   7.230   1.755   7.914  0.6387 -0.2183  0.2750
46739SOL    HW147078   7.153   1.747   7.970 -0.5791 -2.1339 -1.4966
46739SOL    HW247079   7.202   1.813   7.843  0.2314 -2.0606 -1.1528
46740SOL     OW47080   3.078   6.337   7.989 -0.7969 -0.7891 -0.7164
46740SOL    HW147081   3.136   6.262   7.998  0.1550  0.1638  1.7680
46740SOL    HW247082   3.132   6.406   7.950 -0.2502  0.0207  1.3690
46741SOL     OW47083   1.860  11.845   8.925  0.1269  0.1732 -0.2722
46741SOL    HW147084   1.899  11.797   8.999 -0.3008  0.1568 -0.0538
46741SOL    HW247085   1.919  11.828   8.852  0.3082 -0.1916 -0.0471
46742SOL     OW47086   9.607   1.488  11.719 -0.5850 -0.4367 -0.0902
46742SOL    HW147087   9.648   1.556  11.666 -1.7374  0.7916  0.5363
46742SOL    HW247088   9.678   1.454  11.773 -0.0178  0.4040 -0.2913
46743SOL     OW47089   4.509  10.679   0.363  0.0365 -0.0188 -0.0347
46743SOL    HW147090   4.556  10.613   0.413 -2.0497  0.7389  3.2173
46743SOL    HW247091   4.555  10.761   0.382  0.2700  0.0457 -0.8404
46744SOL     OW47092   8.435   4.207  11.247 -0.1333 -0.3104  0.0832
46744SOL    HW147093   8.490   4.237  11.174 -1.3507 -0.2352 -0.8399
46744SOL    HW247094   8.345   4.219  11.216 -0.7526  1.4469  2.2927
46745SOL     OW47095   1.834   2.224   2.616  0.2040 -0.0300  0.0576
46745SOL    HW147096   1.780   2.292   2.656 -0.1170 -0.4254  0.3031
46745SOL    HW247097   1.893   2.196   2.685  0.7855  0.4546 -0.2331
46746SOL     OW47098   1.965   1.412   5.325  0.5700 -0.0464 -0.6017
46746SOL    HW147099   2.022   1.340   5.352 -1.0625 -1.5633 -0.9460
46746SOL    HW247100   1.877   1.381   5.347 -0.3590  0.9957 -2.5974
46747SOL     OW47101   3.731   2.569   0.469 -0.3015 -0.1260  0.1959
46747SOL    HW147102   3.651   2.518   0.483 -0.7592  0.5498  0.1031
46747SOL    HW247103   3.723   2.642   0.530  0.3378 -0.1472  0.3117
46748SOL     OW47104   9.956   0.841   0.204  0.3995 -0.7700  0.1917
46748SOL    HW147105   9.977   0.751   0.179  2.5160 -0.4401  0.6553
46748SOL    HW247106   9.942   0.838   0.298 -2.3475 -1.0486 -0.1253
46749SOL     OW47107   6.472   9.839   7.682  0.2244 -0.2149 -0.1170
46749SOL    HW147108   6.391   9.886   7.663 -0.2906 -1.7678 -2.0827
46749SOL    HW247109   6.527   9.855   7.605  0.8377 -1.1369  0.1153
46750SOL     OW47110  12.005   3.165  10.582 -0.6893 -0.0353  0.6305
46750SOL    HW147111  12.025   3.189  10.672 -0.2665 -0.4799  0.6612
46750SOL    HW247112  12.050   3.231  10.529  0.3738 -0.6650  0.7172
46751SOL     OW47113   7.671   1.055   8.891  0.1888 -0.3466 -0.0219
46751SOL    HW147114   7.587   1.089   8.923 -0.2352  0.1975 -1.6192
46751SOL    HW247115   7.683   1.097   8.806  1.4773 -1.3849 -0.3853
46752SOL     OW47116   8.855   2.147  11.536 -0.5623  0.3692  0.6477
46752SOL    HW147117   8.788   2.209  11.506 -1.1765 -0.3518  0.4862
46752SOL    HW247118   8.847   2.072  11.477 -0.0733 -0.0133  1.0558
46753SOL     OW47119   2.824   4.472   4.331  0.1614  0.0897 -0.0250
46753SOL    HW147120   2.920   4.475   4.330  0.2050 -0.9396 -0.7845
46753SOL    HW247121   2.797   4.554   4.289  0.7511 -0.2614 -1.1277
46754SOL     OW47122   4.128  11.036   6.913 -0.0084  0.4158  0.3753
46754SOL    HW147123   4.036  11.027   6.935 -0.2023  2.0019  0.3086
46754SOL    HW247124   4.167  10.951   6.936 -1.4738 -0.2796  0.3593
46755SOL     OW47125   7.265  12.195  10.741 -0.0506  0.1099 -0.0371
46755SOL    HW147126   7.316  12.255  10.795 -2.0560  0.7495  1.2432
46755SOL    HW247127   7.281  12.109  10.779 -0.7427  0.4403  1.0364
46756SOL     OW47128   1.355  10.616   5.000  0.4494 -0.3628 -1.0042
46756SOL    HW147129   1.438  10.656   4.973  0.2496  0.1209 -0.9156
46756SOL    HW247130   1.360  10.613   5.095 -0.6503  2.0019 -0.7891
46757SOL     OW47131   6.232   2.301   6.859  0.0673  0.9336 -0.1022
46757SOL    HW147132   6.192   2.317   6.773 -0.5680  0.4901  0.1062
46757SOL    HW247133   6.174   2.239   6.901  1.4092 -0.3833 -0.1061
46758SOL     OW47134   6.909   8.730   3.124  0.1435 -0.4532 -0.4171
46758SOL    HW147135   7.003   8.723   3.107  0.4235 -1.4507  1.3454
46758SOL    HW247136   6.901   8.797   3.192 -0.4507 -0.2255 -0.6979
46759SOL     OW47137   5.854   0.946   8.138 -0.1020 -0.4152 -0.0963
46759SOL    HW147138   5.891   0.864   8.172  1.2741 -0.0569 -0.6788
46759SOL    HW247139   5.910   0.969   8.064 -0.6605  0.8985 -0.1371
46760SOL     OW47140   8.729  12.068   1.552 -0.2566 -0.0023 -0.5854
46760SOL    HW147141   8.695  12.149   1.514 -0.9027  1.0820  2.0355
46760SOL    HW247142   8.794  12.098   1.616 -2.5219 -1.2008  2.5275
46761SOL     OW47143   5.107   4.724  10.773 -0.3020  0.1734 -0.3497
46761SOL    HW147144   5.137   4.766  10.692  1.6290 -1.5163 -0.5998
46761SOL    HW247145   5.186   4.715  10.826 -0.8717 -1.8081  0.2654
46762SOL     OW47146  11.722   6.533   5.764  0.1998 -0.1059 -0.0508
46762SOL    HW147147  11.736   6.591   5.839  0.5290  1.3114 -1.1543
46762SOL    HW247148  11.632   6.552   5.736  0.6959  0.7590 -1.1202
46763SOL     OW47149   9.725   8.722   7.692 -0.2753  0.4230 -0.1177
46763SOL    HW147150   9.721   8.818   7.687  0.8463  0.4722 -0.6212
46763SOL    HW247151   9.723   8.703   7.785 -0.4495  0.9400 -0.0077
46764SOL     OW47152   1.291   4.796  11.045 -0.6433  0.2465  0.2382
46764SOL    HW147153   1.378   4.817  11.079 -0.2152  2.1084 -1.7899
46764SOL    HW247154   1.297   4.815  10.951 -2.7563 -1.2625 -0.2736
46765SOL     OW47155   6.887   8.541   0.171 -0.4820 -0.0072  0.0206
46765SOL    HW147156   6.981   8.541   0.151 -0.5365  0.6352 -0.2705
46765SOL    HW247157   6.848   8.593   0.100 -0.8372  1.3035  1.1390
46766SOL     OW47158   9.006   9.028   6.148 -0.1388 -0.3091 -0.2936
46766SOL    HW147159   8.943   9.035   6.076 -0.3097 -1.1691 -0.2330
46766SOL    HW247160   9.086   8.996   6.107  0.0193  0.0088 -0.2348
46767SOL     OW47161   3.713   2.725   1.008  0.2946 -0.1315  0.0732
46767SOL    HW147162   3.748   2.796   0.955 -3.2302  0.9335 -1.1129
46767SOL    HW247163   3.706   2.762   1.096  2.7701 -0.6802  0.5673
46768SOL     OW47164   8.988   8.716  10.032 -0.5220 -0.1054  0.3171
46768SOL    HW147165   9.059   8.714  10.097 -0.2718 -0.6456  0.0426
46768SOL    HW247166   8.912   8.749  10.080  0.4780  2.9263  0.0112
46769SOL     OW47167  11.328   0.545   1.595  0.6243  0.1824 -0.0666
46769SOL    HW147168  11.374   0.560   1.513 -3.2636  0.6431 -2.4166
46769SOL    HW247169  11.332   0.630   1.641  2.4387  0.0464  0.0989
46770SOL     OW47170  11.370   2.936  11.619  0.3057  0.4574 -0.1038
46770SOL    HW147171  11.382   2.964  11.528  1.2774  0.3491 -0.0135
46770SOL    HW247172  11.421   2.998  11.671  0.3671  0.0700  0.3053
46771SOL     OW47173   4.829   9.852   9.737 -0.1710  0.4916 -0.3272
46771SOL    HW147174   4.750   9.838   9.789  0.4090 -1.4438  0.1340
46771SOL    HW247175   4.851   9.765   9.703  0.0260  1.5212 -3.0553
46772SOL     OW47176  11.714  10.935   7.197  0.0730 -0.0983 -0.5660
46772SOL    HW147177  11.696  10.862   7.257  0.5382 -0.2527 -0.6138
46772SOL    HW247178  11.681  11.012   7.243  1.1231 -0.1063  0.2481
46773SOL     OW47179   9.309   4.061   7.500 -0.2004  0.3263  0.1748
46773SOL    HW147180   9.349   4.110   7.428 -1.2578  0.0977 -0.6018
46773SOL    HW247181   9.232   4.020   7.461 -0.3241 -0.5159  1.2388
46774SOL     OW47182   6.511   4.849  10.899 -0.6677 -0.0096  0.0936
46774SOL    HW147183   6.451   4.922  10.916  0.5224  0.7185  1.3942
46774SOL    HW247184   6.598   4.889  10.896 -0.0663 -1.2591 -0.0403
46775SOL     OW47185   1.825  10.422   4.752 -0.3066  0.4027  0.3665
46775SOL    HW147186   1.743  10.430   4.704 -0.0742 -0.2417 -0.1549
46775SOL    HW247187   1.800  10.429   4.844 -0.7827  1.4238  0.1716
46776SOL     OW47188  11.249   1.812   3.155  0.0275 -0.2791  0.0408
46776SOL    HW147189  11.173   1.757   3.172 -0.4194  1.0117  2.7511
46776SOL    HW247190  11.317   1.777   3.213  1.2023 -0.7086 -1.5118
46777SOL     OW47191   1.490   3.182   4.871 -0.3919  0.4470  0.5543
46777SOL    HW147192   1.455   3.094   4.852 -0.0851  0.4252  0.0511
46777SOL    HW247193   1.585   3.170   4.869 -0.3519  0.7105  0.9006
46778SOL     OW47194  11.208   2.945   1.530  1.2668  0.0837  1.3202
46778SOL    HW147195  11.256   3.022   1.497 -0.1698  0.1283 -0.8431
46778SOL    HW247196  11.251   2.870   1.489 -0.5253  0.1377 -0.8381
46779SOL     OW47197  12.044   0.842  12.177 -0.0280  0.6909 -0.3143
46779SOL    HW147198  11.985   0.917  12.172 -1.2389 -0.0560  1.7292
46779SOL    HW247199  11.990   0.768  12.151 -0.1230 -0.0334  1.7982
46780SOL     OW47200   1.347   4.733   1.051  0.2967  0.0831  0.2301
46780SOL    HW147201   1.273   4.735   1.112 -0.8767  1.5882 -1.1497
46780SOL    HW247202   1.393   4.815   1.066  1.8403 -0.8989  1.1705
46781SOL     OW47203   7.957   0.107   1.126 -0.5009  0.2918  0.5474
46781SOL    HW147204   8.029   0.084   1.067 -0.1019  0.8609  0.8031
46781SOL    HW247205   7.942   0.028   1.178 -0.3334  0.0417  0.2175
46782SOL     OW47206   7.184   5.350   9.300  0.4083  0.5300  0.1141
46782SOL    HW147207   7.207   5.277   9.243  1.1667  0.3045  0.6897
46782SOL    HW247208   7.204   5.319   9.388 -0.2508  1.0586  0.4577
46783SOL     OW47209   1.711   8.301   7.478  0.2797 -0.5924 -0.2682
46783SOL    HW147210   1.779   8.330   7.418 -0.8871  1.5797 -0.6243
46783SOL    HW247211   1.631   8.344   7.447 -1.3659 -3.2397 -0.0150
46784SOL     OW47212   5.079   9.635   9.417  0.0292  0.5214  0.0756
46784SOL    HW147213   5.084   9.591   9.502  1.2243  0.3260 -0.0816
46784SOL    HW247214   5.169   9.665   9.400  0.1352 -0.7056 -1.7750
46785SOL     OW47215   6.122   8.356   6.482 -0.6727 -0.3044  0.8014
46785SOL    HW147216   6.049   8.352   6.420  0.9095  0.7781 -1.2819
46785SOL    HW247217   6.176   8.280   6.460  1.0391  1.2532 -0.8315
46786SOL     OW47218   4.607   9.132  11.384 -0.2884  0.5898 -0.8707
46786SOL    HW147219   4.548   9.060  11.405  1.6011 -0.6099  0.8040
46786SOL    HW247220   4.624   9.175  11.469  1.4481  0.6533 -1.2078
46787SOL     OW47221   4.695   8.996   8.744 -0.0413  0.2640  0.2424
46787SOL    HW147222   4.781   9.016   8.781 -0.8579  2.2744  1.1816
46787SOL    HW247223   4.639   9.068   8.772 -2.0836 -1.0449 -0.2627
46788SOL     OW47224   4.359   4.383   8.018 -0.5425 -0.1939  0.0827
46788SOL    HW147225   4.285   4.353   7.965  1.3635 -0.4415 -2.6464
46788SOL    HW247226   4.421   4.419   7.954  2.2898 -1.2388  2.0383
46789SOL     OW47227   3.520   9.396  10.568  0.1988  0.3430 -0.2968
46789SOL    HW147228   3.506   9.327  10.632  1.3041  0.7579  0.4180
46789SOL    HW247229   3.525   9.477  10.619  0.9825  0.6935 -0.9005
46790SOL     OW47230   7.185   1.172   2.171 -0.3946  0.3842 -0.4652
46790SOL    HW147231   7.119   1.192   2.105 -0.1624  1.0836 -0.4992
46790SOL    HW247232   7.138   1.126   2.240 -0.3085 -2.0437 -1.9187
46791SOL     OW47233   5.622   6.305   5.365 -0.4058  0.8254  0.0814
46791SOL    HW147234   5.538   6.288   5.408 -0.7509  0.0862 -0.8585
46791SOL    HW247235   5.645   6.394   5.392 -1.3460  0.9280  0.5846
46792SOL     OW47236   3.614   9.174   0.792 -0.4933 -0.3818  0.6260
46792SOL    HW147237   3.536   9.164   0.738  0.6187  1.2628 -1.4059
46792SOL    HW247238   3.672   9.104   0.764  0.1487  0.5700 -0.4951
46793SOL     OW47239   2.872  12.084   0.490 -0.2788  0.4394 -0.0185
46793SOL    HW147240   2.849  12.133   0.411 -0.2193  1.6223  0.6731
46793SOL    HW247241   2.874  12.150   0.559  0.0653 -0.5088  0.9009
46794SOL     OW47242  10.679   2.459   1.215  0.1287 -0.1557  0.7657
46794SOL    HW147243  10.616   2.406   1.264  1.4407 -1.5027  1.0653
46794SOL    HW247244  10.634   2.478   1.132 -0.1490 -2.4095  0.3245
46795SOL     OW47245   1.648   7.381  11.588 -0.8687 -0.8703 -0.1301
46795SOL    HW147246   1.571   7.334  11.620 -1.4186 -0.9265 -1.4502
46795SOL    HW247247   1.649   7.363  11.494 -0.1981  0.4866 -0.4059
46796SOL     OW47248   9.161  10.086   3.588 -0.1099  0.1058  0.6515
46796SOL    HW147249   9.171  10.144   3.513 -0.9742  1.1069  1.2876
46796SOL    HW247250   9.196  10.136   3.662 -1.3856  0.0481  1.3124
46797SOL     OW47251  10.678   9.442   1.497 -0.3508 -0.2848 -0.0641
46797SOL    HW147252  10.689   9.351   1.468 -2.2648 -0.4843 -0.3115
46797SOL    HW247253  10.684   9.437   1.592  0.2129 -0.5639 -0.1123
46798SOL     OW47254  11.285  11.352   5.755 -0.2940 -0.2441 -0.6734
46798SOL    HW147255  11.219  11.290   5.785 -1.3346  1.4911  0.8430
46798SOL    HW247256  11.356  11.343   5.818 -1.4787  1.7107  1.0981
46799SOL     OW47257   8.424   4.372   3.785  0.0819 -0.2727 -0.1054
46799SOL    HW147258   8.383   4.299   3.832  0.6595 -0.1005  0.6868
46799SOL    HW247259   8.363   4.392   3.714 -0.4174 -1.0722  0.0784
46800SOL     OW47260   3.553  11.066  10.979  0.4431 -0.2098 -0.4066
46800SOL    HW147261   3.472  11.089  10.934  1.4540  2.6102 -1.0072
46800SOL    HW247262   3.605  11.018  10.914  0.3744  0.4873 -0.9777
46801SOL     OW47263   9.206   6.351   6.820 -0.3569  0.5373  0.1640
46801SOL    HW147264   9.217   6.410   6.894 -1.1964 -0.5171  1.1705
46801SOL    HW247265   9.197   6.265   6.859 -1.2747  0.0074 -1.1354
46802SOL     OW47266   3.552   0.331   2.427 -0.5289  0.0605  0.6244
46802SOL    HW147267   3.574   0.416   2.465  0.0318  1.2860 -2.1608
46802SOL    HW247268   3.626   0.310   2.370 -2.2403 -0.4115 -1.6060
46803SOL     OW47269   9.723   2.399   3.493  0.4342  0.1665  0.5046
46803SOL    HW147270   9.689   2.323   3.446  0.3599  1.3359 -1.4588
46803SOL    HW247271   9.818   2.388   3.491  0.4640  0.4991 -0.5043
46804SOL     OW47272   5.497  10.957  10.434 -0.3448 -0.3689  0.1655
46804SOL    HW147273   5.423  10.976  10.377 -0.9915 -0.8588  0.8228
46804SOL    HW247274   5.548  11.038  10.435 -0.4482 -0.2825 -0.9096
46805SOL     OW47275   5.287  11.153   7.083  0.4835 -0.6896  0.1319
46805SOL    HW147276   5.318  11.139   6.993  0.5294 -0.7167  0.1518
46805SOL    HW247277   5.335  11.089   7.135  0.7477 -0.4092  0.2361
46806SOL     OW47278   4.221   5.477   4.625  0.1166  0.0378 -0.2558
46806SOL    HW147279   4.307   5.476   4.666 -0.5692  1.2739  1.3455
46806SOL    HW247280   4.239   5.492   4.532  1.6355 -0.3439 -0.0486
46807SOL     OW47281   3.886   7.384   2.578 -0.0649  0.6105 -0.5536
46807SOL    HW147282   3.825   7.440   2.625 -0.4182  0.1434 -0.4448
46807SOL    HW247283   3.892   7.305   2.631  1.4969  1.0824  0.0077
46808SOL     OW47284   3.764   4.566   2.409  0.1571  0.2670 -0.4880
46808SOL    HW147285   3.707   4.498   2.375  0.3002 -0.0033 -0.1938
46808SOL    HW247286   3.773   4.628   2.336 -0.6693  0.4226 -0.4669
46809SOL     OW47287   6.152   2.222   9.149  0.5945  0.0521  0.0524
46809SOL    HW147288   6.156   2.219   9.053  0.2428  2.2865 -0.0809
46809SOL    HW247289   6.063   2.192   9.170  1.4961 -3.0527 -0.0741
46810SOL     OW47290  11.806   6.009   7.545 -0.5095 -0.8068 -0.0206
46810SOL    HW147291  11.745   5.975   7.480 -0.2849 -0.2018 -0.5585
46810SOL    HW247292  11.823   6.099   7.518 -0.8867 -0.3323  1.2260
46811SOL     OW47293   0.593   9.799   5.422 -0.8697 -0.3258 -0.9838
46811SOL    HW147294   0.626   9.747   5.496 -0.2888  1.7882  0.3343
46811SOL    HW247295   0.499   9.805   5.437 -0.6495  0.7724  0.0881
46812SOL     OW47296   9.139   9.686   2.536  0.4836  0.4577  0.2548
46812SOL    HW147297   9.056   9.729   2.554  0.4454 -0.3473  2.4208
46812SOL    HW247298   9.190   9.697   2.617  1.1992 -1.7848  0.2064
46813SOL     OW47299   2.599  11.961   8.227  0.1856  0.1976 -0.4088
46813SOL    HW147300   2.586  12.056   8.234 -1.0318  0.0793 -0.9178
46813SOL    HW247301   2.613  11.932   8.318  1.2614  0.9360 -0.3169
46814SOL     OW47302  10.798  10.046   9.823 -0.4678  0.0975  0.1906
46814SOL    HW147303  10.830   9.960   9.795 -0.3379  0.0819  0.3924
46814SOL    HW247304  10.869  10.083   9.874 -0.0555  0.8132 -0.8645
46815SOL     OW47305  11.659   9.316   5.245  0.0769 -0.1927  0.7366
46815SOL    HW147306  11.716   9.320   5.169 -1.1792  0.6551 -0.2131
46815SOL    HW247307  11.699   9.251   5.303  1.3847 -0.3971 -0.3603
46816SOL     OW47308   8.117  12.471   9.616 -0.1602 -0.5093  0.1437
46816SOL    HW147309   8.107  12.539   9.683  1.2002 -0.9324  0.8316
46816SOL    HW247310   8.212  12.455   9.613 -0.1693 -0.3490 -2.0672
46817SOL     OW47311   6.911   0.699  11.199  0.0290  0.0385 -0.7604
46817SOL    HW147312   6.875   0.727  11.283  1.7207 -1.5217  0.5809
46817SOL    HW247313   6.927   0.780  11.151  1.4827  1.2013  1.5091
46818SOL     OW47314   5.235  12.311   5.357 -0.1321  0.0269 -0.7493
46818SOL    HW147315   5.163  12.321   5.294  0.4101 -0.0233 -1.3868
46818SOL    HW247316   5.287  12.391   5.345  0.1474 -0.1343 -0.5883
46819SOL     OW47317   1.143   2.906   3.623 -0.1059  0.0939  0.1205
46819SOL    HW147318   1.188   2.940   3.701 -0.4946 -0.2847  0.5203
46819SOL    HW247319   1.078   2.845   3.658 -0.8401  0.5302 -0.4542
46820SOL     OW47320  11.180   7.535   5.111 -1.4674  0.2101 -0.0340
46820SOL    HW147321  11.160   7.542   5.017  0.7376  0.2037 -0.5549
46820SOL    HW247322  11.269   7.501   5.114 -1.8746 -0.8346  2.1093
46821SOL     OW47323   9.424   4.191  10.831 -0.2725 -0.1677 -0.1065
46821SOL    HW147324   9.492   4.207  10.766 -0.2143 -1.5433 -0.4188
46821SOL    HW247325   9.369   4.122  10.792 -1.1796  0.1181  0.6181
46822SOL     OW47326   7.516   5.573   0.195 -0.5455  0.2749  0.1356
46822SOL    HW147327   7.451   5.512   0.230 -2.6075  2.2540 -0.0183
46822SOL    HW247328   7.581   5.580   0.265 -1.6818 -0.0382  1.2764
46823SOL     OW47329   8.685   0.712   1.581 -0.1350  0.5018 -0.2244
46823SOL    HW147330   8.752   0.725   1.514  0.4482 -0.4472  0.1444
46823SOL    HW247331   8.681   0.617   1.593 -0.3146  0.6367  0.9830
46824SOL     OW47332   5.941   3.891   4.328 -0.3664 -0.0907  0.0746
46824SOL    HW147333   5.973   3.831   4.395  0.0800  1.4289  1.2702
46824SOL    HW247334   6.020   3.925   4.285 -0.5358  0.6973  0.3684
46825SOL     OW47335   1.741  10.692   9.862 -0.6549 -0.3410  0.0904
46825SOL    HW147336   1.802  10.678   9.935  0.2668 -1.1032 -0.7921
46825SOL    HW247337   1.655  10.700   9.903 -0.0356  0.2309  1.3321
46826SOL     OW47338   2.281  10.857   0.557  0.0894  0.1419  0.3015
46826SOL    HW147339   2.272  10.778   0.503 -3.4615  1.8455 -1.8996
46826SOL    HW247340   2.264  10.826   0.646 -0.4469 -1.6965 -0.3849
46827SOL     OW47341  11.107  10.248  11.358  0.3538 -0.2668 -0.1945
46827SOL    HW147342  11.096  10.177  11.421  0.0173 -1.8578 -1.9407
46827SOL    HW247343  11.186  10.225  11.309  0.2136  0.5441 -0.8314
46828SOL     OW47344   2.942  11.828  11.758  0.0223 -0.1482 -0.1364
46828SOL    HW147345   2.881  11.897  11.785  0.1757  0.3027 -0.9314
46828SOL    HW247346   2.957  11.844  11.665  3.0161  1.0513  0.4406
46829SOL     OW47347   0.411   4.236  10.294 -0.0282 -0.0264 -0.2983
46829SOL    HW147348   0.393   4.142  10.283  1.7350 -0.4378  0.1198
46829SOL    HW247349   0.409   4.271  10.205 -1.5627 -0.2646 -0.3856
46830SOL     OW47350  12.189   1.349   5.512 -0.1862 -0.2442  0.6003
46830SOL    HW147351  12.245   1.279   5.547  0.0086  0.1570  1.1201
46830SOL    HW247352  12.101   1.325   5.540 -1.1263 -3.2810 -3.9469
46831SOL     OW47353  11.635  12.419   2.052  0.0953 -0.0855  0.1006
46831SOL    HW147354  11.717  12.407   2.005 -0.4070 -1.1943 -0.5268
46831SOL    HW247355  11.633  12.512   2.074  0.1831  0.5699 -2.3911
46832SOL     OW47356   7.528   5.484   1.215 -1.0034 -0.0410  0.4890
46832SOL    HW147357   7.516   5.549   1.146  1.3722 -0.7017 -0.6668
46832SOL    HW247358   7.443   5.478   1.257 -2.3654  0.9376 -1.8988
46833SOL     OW47359  10.828  12.196   0.687 -0.3381 -0.0295 -0.1224
46833SOL    HW147360  10.812  12.235   0.772 -0.6788 -0.8835  0.2156
46833SOL    HW247361  10.907  12.240   0.654 -0.1785  0.2670  0.6517
46834SOL     OW47362   7.050   3.680   1.216  0.2436  0.5177  0.3128
46834SOL    HW147363   7.079   3.760   1.259  0.7754  0.1083  0.7339
46834SOL    HW247364   7.131   3.636   1.191 -0.0387  0.9003 -1.4398
46835SOL     OW47365   1.135  11.297   1.626  0.3774 -0.4342 -0.2622
46835SOL    HW147366   1.186  11.258   1.697  0.0339 -0.0840  0.1867
46835SOL    HW247367   1.094  11.222   1.582 -0.3428 -0.5969  0.6388
46836SOL     OW47368   0.637   2.880   2.286 -0.1749  0.2023 -0.4633
46836SOL    HW147369   0.590   2.813   2.237  1.1781 -0.3918 -1.0105
46836SOL    HW247370   0.569   2.934   2.325 -1.2895 -0.5528 -1.3073
46837SOL     OW47371  11.782   9.123   3.164  0.0831  0.4281 -0.0214
46837SOL    HW147372  11.692   9.108   3.192  0.0570 -2.7647 -1.3402
46837SOL    HW247373  11.779   9.206   3.117 -1.5612  1.6795  2.1190
46838SOL     OW47374  12.407   7.139   8.540  0.4977  0.4204 -0.1788
46838SOL    HW147375  12.349   7.077   8.496  1.5723 -0.7672  0.0014
46838SOL    HW247376  12.378   7.139   8.631 -1.1916  2.2404 -0.6591
46839SOL     OW47377   6.730  11.725  10.787 -0.1887 -0.2436 -0.1001
46839SOL    HW147378   6.801  11.672  10.750 -1.0137 -1.5225  0.0834
46839SOL    HW247379   6.735  11.808  10.738  2.5293  0.4334  1.1379
46840SOL     OW47380   7.321  11.240   8.354  0.5831 -0.9889 -0.1229
46840SOL    HW147381   7.317  11.317   8.298  1.4027 -1.5370 -0.9720
46840SOL    HW247382   7.238  11.195   8.339 -1.0969  0.9723  2.3429
46841SOL     OW47383  10.864   0.984   3.670 -0.2062  0.1969  0.0636
46841SOL    HW147384  10.802   1.057   3.665 -1.7858 -1.0349  0.4733
46841SOL    HW247385  10.812   0.913   3.708  1.2327 -1.1832 -0.4815
46842SOL     OW47386   7.322   8.594  10.585  0.4879 -0.0095  0.5745
46842SOL    HW147387   7.348   8.580  10.676  3.6245 -0.1317 -0.2183
46842SOL    HW247388   7.348   8.684  10.566 -0.0665 -0.0024 -0.2316
46843SOL     OW47389  10.075  10.973   4.241 -0.1727 -0.3873 -0.2865
46843SOL    HW147390  10.116  10.982   4.327 -1.7541 -0.7924  0.5359
46843SOL    HW247391  10.009  11.042   4.237 -0.7605 -0.9614 -0.7876
46844SOL     OW47392   0.382   6.797   9.617  0.0764  0.1012 -0.2568
46844SOL    HW147393   0.462   6.849   9.620  0.4914 -0.4221 -1.6682
46844SOL    HW247394   0.354   6.800   9.526 -0.9948 -0.5058  0.0305
46845SOL     OW47395   1.899   9.344   0.881 -0.4036  0.5790  0.1932
46845SOL    HW147396   1.973   9.404   0.889  0.5675 -0.6570  0.9045
46845SOL    HW247397   1.867   9.356   0.792  2.3878 -0.7563 -1.1169
46846SOL     OW47398  11.464  11.843  11.496 -0.8647  0.2451  0.1061
46846SOL    HW147399  11.506  11.809  11.417  0.9590  1.5461  0.4636
46846SOL    HW247400  11.536  11.871  11.552 -2.0251 -1.2956  2.6102
46847SOL     OW47401   1.751   7.469  10.011  0.1259 -0.2636  0.0218
46847SOL    HW147402   1.800   7.393  10.042 -1.3702 -1.1477  0.3389
46847SOL    HW247403   1.764   7.535  10.079  0.9858 -0.4099  0.0189
46848SOL     OW47404   9.573  10.915  10.684 -0.0913 -0.7328 -0.0114
46848SOL    HW147405   9.566  10.891  10.591  2.0203 -0.6727 -0.2374
46848SOL    HW247406   9.582  11.010  10.683  0.8108 -0.8108  0.1736
46849SOL     OW47407   4.278   2.128  10.080  0.1866 -0.0714 -0.0905
46849SOL    HW147408   4.219   2.190  10.123  1.0332  0.2613  0.6299
46849SOL    HW247409   4.345   2.182  10.039  1.2976 -0.4973  1.0818
46850SOL     OW47410   0.387   9.611  12.453 -0.2226 -0.4323 -0.1394
46850SOL    HW147411   0.405   9.704  12.468  0.5210 -0.6361  0.2644
46850SOL    HW247412   0.363   9.607  12.360 -1.9340  0.3991  0.2440
46851SOL     OW47413   9.786  10.319   1.103 -0.2970 -0.5727 -0.1989
46851SOL    HW147414   9.763  10.391   1.044 -3.5840 -1.1248  0.2293
46851SOL    HW247415   9.879  10.334   1.124 -0.5811  2.9869 -0.8513
46852SOL     OW47416  12.437   1.851   3.017  0.2117 -0.0255 -0.3322
46852SOL    HW147417  12.506   1.888   3.071 -0.5340 -0.7498  1.1677
46852SOL    HW247418  12.482   1.820   2.938  1.4697  0.2428  0.2617
46853SOL     OW47419   5.921   9.529   9.004  0.1767 -0.0184  0.2279
46853SOL    HW147420   5.956   9.584   9.073  1.5826  0.0161 -0.4725
46853SOL    HW247421   5.983   9.540   8.931 -0.3725 -1.2953 -0.4652
46854SOL     OW47422   8.391   7.038   8.863  0.0930 -0.0729  0.4682
46854SOL    HW147423   8.331   7.035   8.937 -1.6522 -0.6284 -0.8876
46854SOL    HW247424   8.380   7.125   8.826  0.9029  0.1784  0.8075
46855SOL     OW47425   3.632  10.549   5.919  0.3565  0.0589  0.0674
46855SOL    HW147426   3.620  10.455   5.909 -1.5556  0.2985 -0.3914
46855SOL    HW247427   3.621  10.584   5.830  1.7971  0.6793  0.0983
46856SOL     OW47428   5.723   3.314   2.775  0.0569 -0.0553  0.1596
46856SOL    HW147429   5.748   3.343   2.863 -0.7581 -0.2218  0.4574
46856SOL    HW247430   5.671   3.235   2.790 -1.1498  0.6121 -0.3978
46857SOL     OW47431   3.526   4.987   0.630 -0.1853 -0.2081 -0.5080
46857SOL    HW147432   3.561   5.041   0.559 -0.2925  0.4469 -0.0723
46857SOL    HW247433   3.431   4.994   0.621 -0.2176 -1.1385 -1.0509
46858SOL     OW47434   4.955   3.001   3.985 -0.2674  0.3905  0.0012
46858SOL    HW147435   4.957   3.012   4.080  1.7501 -1.9093  0.3390
46858SOL    HW247436   4.888   2.935   3.969  0.3034 -0.2051  0.0066
46859SOL     OW47437   4.738   7.574   6.985 -0.1575  0.3864 -0.0916
46859SOL    HW147438   4.679   7.530   6.924  0.8391 -0.5734 -0.4143
46859SOL    HW247439   4.717   7.667   6.977 -0.2139  0.2596 -1.7590
46860SOL     OW47440  12.038   3.579  10.336  0.0640  0.2924  0.0046
46860SOL    HW147441  12.009   3.670  10.334 -0.3976  0.1403 -0.5438
46860SOL    HW247442  12.056   3.557  10.245  0.7182  0.0020  0.1955
46861SOL     OW47443   5.854   6.068   5.019 -0.3843  0.6693 -0.1435
46861SOL    HW147444   5.821   6.008   5.085 -0.0916 -1.1103 -1.5365
46861SOL    HW247445   5.779   6.121   4.993 -1.3863 -1.0451 -0.8853
46862SOL     OW47446   0.443   6.466   4.274 -0.4439 -0.7979 -0.6132
46862SOL    HW147447   0.507   6.512   4.328 -0.2331  0.0161 -1.5461
46862SOL    HW247448   0.480   6.378   4.264  0.2279 -0.5163 -0.6393
46863SOL     OW47449   5.983  10.198   9.924 -0.0986 -0.0012  0.2458
46863SOL    HW147450   6.058  10.178   9.981  1.9461 -0.3406 -2.3923
46863SOL    HW247451   5.937  10.115   9.916 -0.8650  0.2142  1.8999
46864SOL     OW47452   0.934   2.155   9.757  0.0138  0.3379  0.2200
46864SOL    HW147453   0.840   2.140   9.751 -0.2309  2.1192 -1.0518
46864SOL    HW247454   0.942   2.241   9.796  1.1016  0.3469 -0.0005
46865SOL     OW47455   6.877   9.065   2.457  0.3755 -0.4915  0.3446
46865SOL    HW147456   6.827   8.997   2.502 -0.3387 -0.3231 -0.1945
46865SOL    HW247457   6.925   9.018   2.388 -1.0323 -0.3032 -0.7991
46866SOL     OW47458   9.449   4.083   5.332 -0.4264 -0.4259  0.0592
46866SOL    HW147459   9.452   4.144   5.258 -0.5469 -1.0823 -0.4895
46866SOL    HW247460   9.473   3.998   5.295 -2.1087 -1.0975  0.4118
46867SOL     OW47461   5.447   8.755   5.929 -0.0777 -0.3156 -0.5555
46867SOL    HW147462   5.387   8.816   5.887 -0.7977 -0.7678 -0.2099
46867SOL    HW247463   5.479   8.700   5.857 -0.7952 -0.6624 -0.6260
46868SOL     OW47464   0.368  10.980   6.523  0.4519  0.8558  0.3889
46868SOL    HW147465   0.375  10.892   6.558 -0.2404  1.1287  1.2395
46868SOL    HW247466   0.294  10.976   6.461  0.7022  0.7399  0.0947
46869SOL     OW47467  12.185   1.207   8.892  0.2963  0.2965  0.4530
46869SOL    HW147468  12.148   1.120   8.875 -1.2665  0.8418  0.8946
46869SOL    HW247469  12.247   1.194   8.963 -1.0992 -0.2266  1.6149
46870SOL     OW47470   4.438   5.341   8.305 -0.0249  0.5261 -0.3169
46870SOL    HW147471   4.421   5.385   8.222 -0.4051  1.1950  0.1042
46870SOL    HW247472   4.420   5.408   8.372 -1.1839 -0.4288  0.3667
46871SOL     OW47473  10.852   9.126  11.976  0.0419 -0.0595 -0.0843
46871SOL    HW147474  10.936   9.136  12.020 -0.7254 -3.7956  2.7486
46871SOL    HW247475  10.872   9.079  11.895  0.7906  0.6734 -0.3417
46872SOL     OW47476   1.508  10.466   0.080  0.1729 -0.7102 -0.2149
46872SOL    HW147477   1.600  10.485   0.066 -0.3361  0.9647 -1.5984
46872SOL    HW247478   1.507  10.397   0.146  2.3043  1.1528  1.9074
46873SOL     OW47479  10.270   7.070   6.088  0.4339 -0.0406  0.0882
46873SOL    HW147480  10.292   7.080   6.181 -3.2875  1.0266  1.0610
46873SOL    HW247481  10.280   7.157   6.051  0.6989 -0.1892 -0.1925
46874SOL     OW47482   1.254   5.586   1.114  0.0831  0.2688  0.0782
46874SOL    HW147483   1.236   5.673   1.079  0.9694 -0.3389 -2.1211
46874SOL    HW247484   1.261   5.598   1.208  0.3798  2.6178 -0.1793
46875SOL     OW47485   5.294  11.532   4.405 -0.5469 -0.2972  0.3000
46875SOL    HW147486   5.375  11.577   4.430 -0.4706  0.4978 -1.3028
46875SOL    HW247487   5.301  11.446   4.446  1.0081 -0.1666  0.3635
46876SOL     OW47488   5.090   5.816   1.168  0.1017 -0.0319  0.1242
46876SOL    HW147489   5.084   5.742   1.228  0.4119 -1.0680 -1.0854
46876SOL    HW247490   5.099   5.776   1.082 -1.1277  1.4144 -0.7159
46877SOL     OW47491   6.226   1.758   5.913 -0.4587 -0.3485 -0.1696
46877SOL    HW147492   6.234   1.853   5.924 -0.4815 -0.5995  2.7522
46877SOL    HW247493   6.305   1.722   5.952 -0.7089 -1.5684 -0.7333
46878SOL     OW47494   4.379   9.412   4.779 -0.1852  0.2435  0.1598
46878SOL    HW147495   4.360   9.320   4.798  0.8769 -0.3595 -1.5546
46878SOL    HW247496   4.323   9.433   4.705 -1.0059  1.2607  1.0198
46879SOL     OW47497   6.975   6.997   4.457 -0.2392  0.5199 -0.0890
46879SOL    HW147498   6.965   6.951   4.374  1.4420  0.8194 -0.4916
46879SOL    HW247499   6.915   6.952   4.517 -2.3698  1.0370 -1.7079
46880SOL     OW47500  10.336   3.617   6.205  0.3747  0.4203  0.4332
46880SOL    HW147501  10.413   3.666   6.235 -1.5648  3.7485  0.4384
46880SOL    HW247502  10.312   3.659   6.123 -1.9226  0.0607  0.8723
46881SOL     OW47503   1.793  12.075  11.622 -0.7616 -0.4123 -0.2108
46881SOL    HW147504   1.812  12.067  11.528  0.1554  0.2432 -0.0999
46881SOL    HW247505   1.879  12.077  11.664 -1.0164  2.0799  0.3842
46882SOL     OW47506   6.677   1.005   0.978  0.4325  0.8641  0.1529
46882SOL    HW147507   6.686   1.096   0.949  0.1825  1.2828  1.3186
46882SOL    HW247508   6.754   0.961   0.944 -0.2707  1.1051 -1.8655
46883SOL     OW47509   0.353  11.120   9.880  0.0324 -0.9317  0.6738
46883SOL    HW147510   0.269  11.145   9.843  0.6710 -0.7836 -0.7466
46883SOL    HW247511   0.384  11.198   9.925  0.2236 -0.3944 -0.3666
46884SOL     OW47512   0.657   8.243   1.419  0.0868  0.3823  0.1010
46884SOL    HW147513   0.638   8.152   1.395 -0.6401  0.8383 -1.1531
46884SOL    HW247514   0.666   8.241   1.514 -3.1636 -0.4767  0.5208
46885SOL     OW47515  10.601   5.318   6.891 -0.0034 -0.2133  0.1755
46885SOL    HW147516  10.529   5.273   6.848  0.7582 -0.1407 -1.2537
46885SOL    HW247517  10.603   5.282   6.980 -0.4137 -1.8164 -0.4297
46886SOL     OW47518   8.189   9.399   0.896  0.6405 -0.0603 -0.2861
46886SOL    HW147519   8.218   9.482   0.933 -0.9183  0.5988 -0.4897
46886SOL    HW247520   8.211   9.405   0.803 -1.0501  0.8951 -0.6595
46887SOL     OW47521   3.108   6.295   8.505 -0.7619 -0.1914 -0.3235
46887SOL    HW147522   3.076   6.385   8.501 -2.1602 -0.6030  0.8803
46887SOL    HW247523   3.190   6.301   8.555 -0.4272  0.4943 -0.9331
46888SOL     OW47524   0.800   6.529  11.993  0.3872  0.3609 -0.0076
46888SOL    HW147525   0.841   6.594  11.935 -0.6808 -0.1381 -1.3651
46888SOL    HW247526   0.813   6.445  11.949 -1.2403  0.0800 -0.0198
46889SOL     OW47527   1.347   7.765   5.790  0.1120  0.1260  0.7968
46889SOL    HW147528   1.263   7.769   5.836 -0.1294 -0.1669  0.3866
46889SOL    HW247529   1.325   7.782   5.698  0.5902  0.6957  0.7833
46890SOL     OW47530   8.612   7.974  10.308 -1.0991  0.4605 -0.1466
46890SOL    HW147531   8.564   7.941  10.385 -0.3568  1.0538  0.5929
46890SOL    HW247532   8.703   7.979  10.338 -0.4675 -1.0761 -1.6536
46891SOL     OW47533   0.023   8.853   1.900  0.2875  0.0652  0.2553
46891SOL    HW147534   0.063   8.791   1.839  0.6160  0.1955  0.3379
46891SOL    HW247535   0.079   8.850   1.978 -0.3155 -0.3490  0.6848
46892SOL     OW47536   9.110   5.130   4.511  0.5614 -0.2016  0.2533
46892SOL    HW147537   9.048   5.095   4.447 -1.3329 -0.5239  2.1579
46892SOL    HW247538   9.077   5.218   4.531 -0.9557 -1.2926  3.1643
46893SOL     OW47539   1.246   0.971  11.255 -0.3885 -0.0945  0.0587
46893SOL    HW147540   1.337   0.975  11.226 -0.1015  0.0796  0.9571
46893SOL    HW247541   1.238   1.042  11.319 -0.9206 -0.6453  0.6122
46894SOL     OW47542   4.864   2.104   8.345 -0.0118  0.4174  0.2937
46894SOL    HW147543   4.875   2.082   8.252 -2.5921  2.2839 -0.5706
46894SOL    HW247544   4.878   2.022   8.391 -1.3788 -1.2194 -2.0213
46895SOL     OW47545   9.207   0.869   1.634  0.4518  0.0329 -0.6381
46895SOL    HW147546   9.225   0.838   1.545 -0.6300  0.8538 -1.1629
46895SOL    HW247547   9.250   0.955   1.639  1.4508 -0.4750  0.0313
46896SOL     OW47548   6.111   2.109   0.172  0.4609 -0.1713  0.8277
46896SOL    HW147549   6.165   2.060   0.109 -1.1518 -0.2485 -0.5690
46896SOL    HW247550   6.148   2.197   0.172  0.8309 -0.3159  0.1755
46897SOL     OW47551   1.635   5.342  12.420  0.2848 -0.1877 -0.0045
46897SOL    HW147552   1.575   5.415  12.432  0.4752  0.1290 -0.9013
46897SOL    HW247553   1.686   5.338  12.501  0.0701  0.4752  0.1653
46898SOL     OW47554  11.919   5.726   4.449 -0.4160  0.3585 -0.5058
46898SOL    HW147555  11.842   5.724   4.392 -0.4975  1.4856 -0.4508
46898SOL    HW247556  11.953   5.815   4.441 -0.2933  0.4716  1.0148
46899SOL     OW47557   7.653   4.588   0.556  0.1670 -0.1234 -0.0184
46899SOL    HW147558   7.745   4.602   0.580  0.8307 -2.0126 -1.1873
46899SOL    HW247559   7.652   4.500   0.517 -2.1067 -0.0515 -0.2603
46900SOL     OW47560   0.591   7.575   1.832 -0.0534  1.0835  0.2554
46900SOL    HW147561   0.643   7.654   1.843 -1.7627  2.9727 -3.3659
46900SOL    HW247562   0.500   7.605   1.833 -0.8405 -1.0655  0.0939
46901SOL     OW47563  10.194   1.904   1.568  0.1624  0.2625  0.0198
46901SOL    HW147564  10.194   1.839   1.639 -3.2145 -0.1714 -0.2453
46901SOL    HW247565  10.154   1.981   1.607 -0.2025  0.5790 -0.9689
46902SOL     OW47566   9.065   1.592  11.194 -0.0952  0.0043  1.0871
46902SOL    HW147567   9.154   1.625  11.180  0.3781 -1.1556  1.1873
46902SOL    HW247568   9.065   1.506  11.151 -0.3499 -1.1604  3.2826
46903SOL     OW47569   8.085   1.212   0.145  0.5842  0.0909  0.7066
46903SOL    HW147570   8.027   1.287   0.145  1.4919  0.8192  1.1022
46903SOL    HW247571   8.146   1.229   0.072 -0.3614 -1.2180 -0.4449
46904SOL     OW47572   8.968   4.661  11.519  0.3394  0.3829  0.3768
46904SOL    HW147573   8.925   4.575  11.518  0.1321  0.4851  0.0269
46904SOL    HW247574   9.006   4.669  11.431  1.4838  0.0969  0.8360
46905SOL     OW47575   7.795   8.873   5.372 -0.5213  0.4022  0.1240
46905SOL    HW147576   7.874   8.926   5.360  0.6616 -1.3813 -0.2652
46905SOL    HW247577   7.803   8.837   5.460 -0.2237 -0.8233 -0.3870
46906SOL     OW47578   5.109   9.797   2.468  0.2309  0.5269  0.0827
46906SOL    HW147579   5.122   9.866   2.402 -0.7071  1.6871  1.0836
46906SOL    HW247580   5.036   9.746   2.435  0.2908  0.6010 -0.1723
46907SOL     OW47581   6.084   8.468   9.531  0.4087  0.2549  0.7970
46907SOL    HW147582   6.009   8.473   9.472  1.3601  0.1098 -0.4769
46907SOL    HW247583   6.132   8.390   9.502  0.5193 -0.2576  2.2547
46908SOL     OW47584  10.980   4.142   6.247  0.3638  0.2761 -0.4490
46908SOL    HW147585  10.985   4.207   6.317 -0.6325  1.7877 -1.7255
46908SOL    HW247586  11.033   4.069   6.279  0.7343  1.3076  1.4470
46909SOL     OW47587   9.289   9.411   2.002  0.4857  0.5165 -0.2075
46909SOL    HW147588   9.251   9.481   1.949  2.1476  1.3683 -0.3377
46909SOL    HW247589   9.286   9.445   2.092 -0.1219  0.0927 -0.0641
46910SOL     OW47590   8.624  11.121   6.812 -0.4389  0.4308  0.0971
46910SOL    HW147591   8.718  11.117   6.790 -0.7821 -2.2801 -1.2282
46910SOL    HW247592   8.611  11.052   6.876 -1.6875  0.1891 -0.3924
46911SOL     OW47593   5.700   0.597   8.015  0.5731  0.2877  0.1237
46911SOL    HW147594   5.639   0.667   7.993 -0.0509  0.0708  1.0662
46911SOL    HW247595   5.713   0.549   7.933  2.0990  2.2719 -0.8927
46912SOL     OW47596   1.793   8.478   9.926  0.0760  0.1316 -0.1443
46912SOL    HW147597   1.750   8.555   9.889 -0.4423 -0.8204 -1.5936
46912SOL    HW247598   1.845   8.513   9.999 -1.0211  1.6828 -0.0454
46913SOL     OW47599   3.601   5.297   6.740  0.1837  0.6813  0.2137
46913SOL    HW147600   3.594   5.360   6.811  0.8682  1.4350 -0.3696
46913SOL    HW247601   3.685   5.317   6.699  0.6991 -0.9873  0.3692
46914SOL     OW47602   0.172   6.209  10.743  0.1365 -0.7146 -0.1110
46914SOL    HW147603   0.234   6.282  10.749  0.0759 -0.5675 -1.1244
46914SOL    HW247604   0.103   6.231  10.806  0.4557 -0.2313  0.0764
46915SOL     OW47605   0.668   3.029   3.636  0.1735  0.1927  0.2234
46915SOL    HW147606   0.675   3.099   3.571  1.3157  0.0957  0.2252
46915SOL    HW247607   0.729   2.961   3.605  2.7612  1.1984  2.6976
46916SOL     OW47608   7.555   3.510   8.573  0.4226 -0.2391  0.2249
46916SOL    HW147609   7.638   3.497   8.620 -0.6199 -2.9307  1.4995
46916SOL    HW247610   7.561   3.451   8.497 -0.5700 -0.9891  0.7122
46917SOL     OW47611   3.722   5.180   7.649  0.2412 -0.1332  0.0956
46917SOL    HW147612   3.798   5.143   7.695  0.9509  2.1336  0.8794
46917SOL    HW247613   3.759   5.235   7.581 -0.6791  1.1776  0.6245
46918SOL     OW47614   4.847   4.854   8.719 -1.2512  0.3144 -0.5656
46918SOL    HW147615   4.919   4.803   8.684 -1.6562 -1.1258  0.5998
46918SOL    HW247616   4.883   4.942   8.730 -0.1063 -0.0462 -1.2704
46919SOL     OW47617   5.580  10.389   2.996  0.3900 -0.2748  0.5485
46919SOL    HW147618   5.525  10.346   3.060  2.3887 -0.3462  2.3320
46919SOL    HW247619   5.660  10.412   3.044  1.5799  0.5692 -1.6698
46920SOL     OW47620   6.677   5.354   5.958  0.1540  0.0768 -0.0932
46920SOL    HW147621   6.605   5.403   5.918  0.9819  1.3210 -0.1202
46920SOL    HW247622   6.637   5.272   5.988 -1.6872  1.5011  1.5615
46921SOL     OW47623   4.466  12.253   7.007  0.0198 -0.7437 -0.5337
46921SOL    HW147624   4.503  12.303   6.935 -0.8565  0.1636 -0.3854
46921SOL    HW247625   4.530  12.261   7.078 -0.8567  1.7538  0.1046
46922SOL     OW47626   4.017  10.465   8.712  0.8865  0.1943  0.3998
46922SOL    HW147627   4.022  10.471   8.808 -0.2691 -0.8614  0.5562
46922SOL    HW247628   4.005  10.372   8.694  0.5737  0.4364 -0.7444
46923SOL     OW47629  11.320   2.788   5.004 -0.3790 -0.3109 -0.1906
46923SOL    HW147630  11.296   2.870   5.046  1.8388  0.7000 -0.7317
46923SOL    HW247631  11.387   2.750   5.061  1.2958  0.1504 -1.7155
46924SOL     OW47632   2.818  11.406   2.253  0.0232 -0.3375 -0.1218
46924SOL    HW147633   2.758  11.405   2.179  2.0917 -1.6525 -1.9042
46924SOL    HW247634   2.889  11.465   2.226 -0.6429  1.7093  2.1946
46925SOL     OW47635   4.275   5.893  12.205 -0.2284 -0.0920 -0.4598
46925SOL    HW147636   4.242   5.976  12.171 -1.3284  0.7797  2.4837
46925SOL    HW247637   4.230   5.881  12.289  0.1330 -3.5343 -0.6222
46926SOL     OW47638  11.575  11.309   5.168  0.0932 -0.1765 -0.2893
46926SOL    HW147639  11.562  11.225   5.212 -1.4196 -0.5090 -1.2933
46926SOL    HW247640  11.519  11.304   5.091  2.4355  0.4834 -2.1336
46927SOL     OW47641   9.018   1.339   0.279  0.5652  0.0260 -0.4365
46927SOL    HW147642   9.036   1.268   0.341  3.2464 -0.0458 -1.1794
46927SOL    HW247643   9.048   1.418   0.324  0.0187  0.3459 -0.6256
46928SOL     OW47644   4.719   3.630   5.816 -0.0030 -0.7397 -0.2854
46928SOL    HW147645   4.702   3.570   5.743  1.8497  0.0146 -1.3940
46928SOL    HW247646   4.798   3.677   5.791 -0.9475  1.6339  0.8978
46929SOL     OW47647   0.334   6.441   1.993  0.3482 -0.0587  0.2331
46929SOL    HW147648   0.260   6.450   1.933  0.5241  1.1709  0.1710
46929SOL    HW247649   0.411   6.457   1.939  0.5761  0.0079  0.5756
46930SOL     OW47650   7.279   6.383   0.036  0.2421 -0.2588  0.1957
46930SOL    HW147651   7.256   6.475   0.023  3.0619  0.7500  1.5485
46930SOL    HW247652   7.241   6.360   0.121 -4.4489 -1.9575 -2.0133
46931SOL     OW47653   6.426   2.812   1.381  0.0976  0.1270 -0.2384
46931SOL    HW147654   6.354   2.824   1.320 -1.1633 -0.2424  1.1066
46931SOL    HW247655   6.423   2.889   1.438 -1.0374 -1.1119  1.5168
46932SOL     OW47656   2.822   8.655   5.240 -0.5798  0.2961  0.0598
46932SOL    HW147657   2.849   8.599   5.313  1.8560 -0.7072 -1.4572
46932SOL    HW247658   2.760   8.601   5.190 -0.3670  0.0171  0.0910
46933SOL     OW47659   4.672   0.817  10.444  0.1510 -0.2652 -0.6554
46933SOL    HW147660   4.728   0.859  10.378 -0.0226  1.1965  0.0920
46933SOL    HW247661   4.732   0.762  10.495  0.6522  0.1988 -0.7407
46934SOL     OW47662   8.458   7.448   1.025  0.0148  0.0630  0.0519
46934SOL    HW147663   8.465   7.392   0.947 -2.1637  0.0562 -0.1889
46934SOL    HW247664   8.436   7.388   1.096  0.7850  0.2372  0.4511
46935SOL     OW47665   2.952   5.022   6.211 -0.0941 -0.1899 -0.5234
46935SOL    HW147666   2.959   4.960   6.284  2.7902 -1.3191 -1.5811
46935SOL    HW247667   2.915   5.101   6.249  2.2651 -0.3394  2.5098
46936SOL     OW47668  10.627   5.908   6.646 -0.2710 -0.2011  0.2458
46936SOL    HW147669  10.629   6.004   6.637  2.2654 -0.1966  0.1164
46936SOL    HW247670  10.671   5.876   6.567 -2.0438 -1.5729 -0.2363
46937SOL     OW47671   7.616   5.256   6.682 -0.4910  0.0536  0.1802
46937SOL    HW147672   7.636   5.298   6.766 -0.5743  0.8171 -0.1741
46937SOL    HW247673   7.571   5.175   6.706  0.2142 -0.1471  0.8956
46938SOL     OW47674   4.636   4.307   0.120 -0.6189  0.4588 -0.2636
46938SOL    HW147675   4.594   4.266   0.195 -2.8497  1.1875 -1.0311
46938SOL    HW247676   4.663   4.393   0.151 -2.0627  0.9874 -0.4043
46939SOL     OW47677   2.983  10.802   0.869 -0.1128 -0.2111 -0.9269
46939SOL    HW147678   3.037  10.837   0.939  0.8076 -0.9823 -1.2200
46939SOL    HW247679   3.033  10.728   0.835 -0.2773  0.4451 -2.7389
46940SOL     OW47680  11.724  10.798  12.311 -0.2322  0.9417  0.4029
46940SOL    HW147681  11.800  10.761  12.355  0.3564  0.6188 -0.8400
46940SOL    HW247682  11.666  10.827  12.382  0.6516  0.3932  1.3653
46941SOL     OW47683   1.245   9.410  12.451 -0.0059  0.5937 -0.0999
46941SOL    HW147684   1.277   9.322  12.429  1.2569  1.0366 -0.1269
46941SOL    HW247685   1.240   9.455  12.367 -3.3528 -0.2362 -0.4848
46942SOL     OW47686   6.045   8.160   4.903 -0.6077  0.4386  0.1430
46942SOL    HW147687   6.082   8.247   4.888 -0.2710  0.3880  0.6567
46942SOL    HW247688   6.075   8.136   4.991  1.7747 -1.4018 -1.0270
46943SOL     OW47689   8.838   3.877   3.862  0.3299  0.4865 -0.3863
46943SOL    HW147690   8.809   3.797   3.817  1.4078  0.0443 -0.3343
46943SOL    HW247691   8.762   3.934   3.861 -0.2771 -0.3073 -0.9793
46944SOL     OW47692  12.444   6.210   0.461 -0.2069 -0.3727 -0.0797
46944SOL    HW147693  12.408   6.135   0.414 -1.5813  0.1197  0.1456
46944SOL    HW247694  12.528   6.179   0.494 -0.4308 -1.5821 -0.5835
46945SOL     OW47695  11.406   7.520   9.725 -0.1173  0.3550 -0.1231
46945SOL    HW147696  11.432   7.588   9.663 -0.4072  0.9359  0.3787
46945SOL    HW247697  11.311   7.517   9.717 -0.2844  1.3149  1.1669
46946SOL     OW47698  10.619   6.334  11.496 -0.0312  0.1142  0.0793
46946SOL    HW147699  10.639   6.246  11.465 -1.7665 -0.2369 -0.1476
46946SOL    HW247700  10.565   6.372  11.426  3.9819  2.9596 -1.8926
46947SOL     OW47701   7.855   7.327  10.935 -0.4422  0.2761  0.0453
46947SOL    HW147702   7.922   7.287  10.991  0.2823  2.1473  0.5874
46947SOL    HW247703   7.903   7.356  10.857 -0.5759  1.6682  0.4572
46948SOL     OW47704   6.835  11.148   8.747 -0.9155  0.1374  0.1899
46948SOL    HW147705   6.750  11.172   8.711 -0.0259 -0.0785 -2.2652
46948SOL    HW247706   6.896  11.211   8.709  0.1920 -0.4411  0.9436
46949SOL     OW47707   6.799   1.440   0.067  0.0755  0.4498 -0.2832
46949SOL    HW147708   6.804   1.497   0.144  1.7918  0.6104 -0.4698
46949SOL    HW247709   6.872   1.468   0.012  0.3316 -1.2416 -0.8702
46950SOL     OW47710   4.842   9.392   8.155 -0.1459  0.0030  0.4132
46950SOL    HW147711   4.775   9.412   8.221  0.6556  1.7603  0.7672
46950SOL    HW247712   4.851   9.297   8.158 -0.6142 -0.0294  2.3969
46951SOL     OW47713   1.402   9.855   5.707 -0.4061 -0.2557  0.0441
46951SOL    HW147714   1.379   9.918   5.638 -0.1019  0.4169  0.5389
46951SOL    HW247715   1.491   9.827   5.686  0.6423  1.7868  1.4442
46952SOL     OW47716  11.656   0.508   8.762  0.1748 -0.4476 -0.0115
46952SOL    HW147717  11.677   0.490   8.854 -2.8871 -0.5336  0.7721
46952SOL    HW247718  11.656   0.604   8.757  0.4997 -0.4440  0.0343
46953SOL     OW47719   4.004  10.352   3.821  0.3470  0.5171 -0.8060
46953SOL    HW147720   4.041  10.392   3.900 -0.8110  0.2136 -0.0825
46953SOL    HW247721   3.962  10.425   3.775  0.4162  0.5694 -0.7868
46954SOL     OW47722   4.733   4.830  11.975  0.1605  0.3251 -0.0871
46954SOL    HW147723   4.822   4.866  11.981  0.1971  0.2443 -0.1561
46954SOL    HW247724   4.697   4.868  11.895  0.1301  0.3637 -0.0549
46955SOL     OW47725  11.843   0.626   9.727 -0.3820  0.5147  0.5762
46955SOL    HW147726  11.798   0.604   9.808  2.7019 -0.2025  2.2543
46955SOL    HW247727  11.934   0.599   9.742  1.2909  4.1914 -1.4966
46956SOL     OW47728  12.021   1.377  11.961  0.2791 -0.2652  0.1040
46956SOL    HW147729  12.020   1.472  11.949 -0.9193 -0.5434 -3.1516
46956SOL    HW247730  12.109   1.358  11.993  1.1407  1.8292 -0.7829
46957SOL     OW47731   2.318   4.406   3.916  0.0687 -0.2762 -0.4942
46957SOL    HW147732   2.335   4.312   3.923  0.7150 -0.0131  2.7973
46957SOL    HW247733   2.393   4.448   3.958 -0.0583  1.7824 -2.1430
46958SOL     OW47734   1.779  11.531   2.744 -0.1067 -0.1203 -0.4135
46958SOL    HW147735   1.719  11.593   2.786 -0.1042 -0.6436  0.3948
46958SOL    HW247736   1.722  11.476   2.690 -0.0564  0.8389 -1.4894
46959SOL     OW47737   4.423   4.871   1.120 -0.3334  0.3034 -0.3755
46959SOL    HW147738   4.487   4.802   1.101 -1.2105 -0.8775  0.7496
46959SOL    HW247739   4.435   4.890   1.213 -1.2823  0.4033 -0.2592
46960SOL     OW47740   4.585  12.057   1.351  0.5872  0.5447 -0.3247
46960SOL    HW147741   4.532  12.049   1.272 -0.2115 -0.6483  0.3138
46960SOL    HW247742   4.644  11.982   1.348 -1.9159 -1.7019  1.9914
46961SOL     OW47743   7.944   5.354   5.396  0.2123 -0.4167  0.0586
46961SOL    HW147744   7.852   5.369   5.373  0.7454  0.0597 -1.9953
46961SOL    HW247745   7.942   5.286   5.463 -1.6988  0.5410  1.0341
46962SOL     OW47746   3.868   7.712   2.634 -0.3787  0.1193  0.5637
46962SOL    HW147747   3.831   7.654   2.701  2.6652 -2.4118  0.2903
46962SOL    HW247748   3.815   7.693   2.556 -0.7514 -0.7652  1.0086
46963SOL     OW47749   1.474   6.027   8.080  0.4869  0.2323 -0.0963
46963SOL    HW147750   1.533   6.023   8.155 -1.1370 -1.6788  1.1749
46963SOL    HW247751   1.520   5.978   8.011  0.2100 -1.8068  1.0783
46964SOL     OW47752   0.267   0.587  10.317 -0.4272 -0.1267 -0.3312
46964SOL    HW147753   0.262   0.551  10.228  0.0531 -0.0009 -0.4131
46964SOL    HW247754   0.360   0.600  10.332 -0.5013 -0.2803  0.2512
46965SOL     OW47755   5.772   0.839   3.650 -0.1273  0.1707  0.0486
46965SOL    HW147756   5.713   0.839   3.725  1.3438  0.7023  1.2619
46965SOL    HW247757   5.832   0.912   3.666  1.4947 -0.9484 -0.5960
46966SOL     OW47758   4.860   6.649   3.229 -0.2579 -0.2899 -0.3375
46966SOL    HW147759   4.829   6.689   3.148 -0.6206  0.5553  0.2120
46966SOL    HW247760   4.812   6.693   3.298 -0.1330 -1.1750  0.3353
46967SOL     OW47761  11.848   3.071   1.378 -0.1686 -0.0324 -0.2342
46967SOL    HW147762  11.885   3.033   1.458 -1.6107 -1.6913 -0.2938
46967SOL    HW247763  11.910   3.139   1.353  1.3708 -0.8480  1.1623
46968SOL     OW47764  11.048   6.312   2.716 -0.0947  0.2510  0.3158
46968SOL    HW147765  10.955   6.294   2.711  0.3720 -2.4127 -0.1559
46968SOL    HW247766  11.078   6.312   2.625  0.4533  0.5355  0.4881
46969SOL     OW47767   8.119  11.035   1.447 -0.2570 -0.5665  0.4819
46969SOL    HW147768   8.143  10.954   1.404 -1.5731 -0.7723  0.0777
46969SOL    HW247769   8.153  11.104   1.390 -0.0231 -0.8378  0.2916
46970SOL     OW47770   3.549   7.755   7.809 -0.2600 -0.4545 -0.4668
46970SOL    HW147771   3.588   7.704   7.881  0.3556 -0.9600 -1.1435
46970SOL    HW247772   3.611   7.746   7.737  0.8189  2.7203 -0.1084
46971SOL     OW47773   7.558   4.599   4.372 -0.2020 -0.1247 -0.4220
46971SOL    HW147774   7.567   4.642   4.287  2.4058  2.5476  1.0510
46971SOL    HW247775   7.472   4.627   4.403  1.0540  3.6753  0.1166
46972SOL     OW47776   4.073  10.250  12.138 -0.5008 -0.3406  0.1693
46972SOL    HW147777   3.979  10.241  12.155 -0.7742 -0.9245 -1.4164
46972SOL    HW247778   4.097  10.168  12.094 -0.1381  1.2690 -2.9726
46973SOL     OW47779   9.951   1.869   2.411  0.5422  0.0100  0.0934
46973SOL    HW147780   9.987   1.938   2.356  1.5025  0.8743  1.7242
46973SOL    HW247781   9.959   1.903   2.500 -0.7376 -1.4281  0.7986
46974SOL     OW47782   6.100   8.388   2.602 -0.5660  0.6467  0.5081
46974SOL    HW147783   6.165   8.426   2.542 -1.2715  1.6794  0.3773
46974SOL    HW247784   6.139   8.399   2.689  0.1158 -0.1580  0.3236
46975SOL     OW47785   4.150   2.448   4.004  0.0091 -0.2277  0.7948
46975SOL    HW147786   4.190   2.437   4.090 -1.1058 -1.9329  1.1554
46975SOL    HW247787   4.057   2.462   4.023 -0.4977 -2.0435 -0.1151
46976SOL     OW47788   0.797   9.814   1.103 -0.4581 -0.3481 -0.1745
46976SOL    HW147789   0.853   9.888   1.125  1.7570 -1.6850 -0.9701
46976SOL    HW247790   0.721   9.853   1.062 -0.1022  1.5596  0.8598
46977SOL     OW47791   5.434  11.614   8.672  0.1488  0.1563 -0.9249
46977SOL    HW147792   5.506  11.632   8.732  0.1817  1.5053 -1.3293
46977SOL    HW247793   5.456  11.664   8.593  0.4989 -2.1673 -2.3901
46978SOL     OW47794  10.744   1.282   6.645  0.1922 -0.1062  0.6549
46978SOL    HW147795  10.832   1.309   6.620  1.4636 -1.8322  2.8830
46978SOL    HW247796  10.752   1.257   6.737 -2.5425 -0.7357  0.8072
46979SOL     OW47797   5.750  12.437   2.859  0.1693 -0.1939  0.5248
46979SOL    HW147798   5.671  12.488   2.843  0.9300  0.5154 -1.2555
46979SOL    HW247799   5.822  12.497   2.839  1.1206 -1.4978 -0.1510
46980SOL     OW47800   3.846   1.295   3.744 -0.0737 -0.4371  0.3855
46980SOL    HW147801   3.833   1.385   3.714 -0.3500 -0.5408  0.1864
46980SOL    HW247802   3.777   1.245   3.699  1.6438 -1.1993 -1.5417
46981SOL     OW47803   8.162  11.026   9.054  0.1705  0.5796 -0.1944
46981SOL    HW147804   8.077  11.008   9.014 -0.0444  1.2968 -0.0775
46981SOL    HW247805   8.184  10.946   9.102 -1.9525  1.4712  2.4793
46982SOL     OW47806   1.132  11.487   2.595 -0.4837 -0.4725 -0.1862
46982SOL    HW147807   1.037  11.481   2.588 -0.7180 -1.3675  2.6539
46982SOL    HW247808   1.163  11.480   2.504 -3.1366  1.9917 -1.4369
46983SOL     OW47809   3.009   9.368   3.521  0.2543  0.7862  0.9332
46983SOL    HW147810   2.947   9.405   3.458  0.5667  1.4172  0.9839
46983SOL    HW247811   2.955   9.334   3.592 -0.1640 -0.9334 -0.1713
46984SOL     OW47812   1.215   8.315   9.030  0.7345  0.6812 -0.2297
46984SOL    HW147813   1.238   8.246   8.968  1.8084  0.5580  0.2989
46984SOL    HW247814   1.246   8.395   8.988 -0.8222  0.9300 -1.0068
46985SOL     OW47815   6.395  10.884   5.273 -0.1087  0.5183 -0.3051
46985SOL    HW147816   6.331  10.833   5.321 -0.7851  1.1222 -0.5344
46985SOL    HW247817   6.451  10.923   5.340 -0.4700  0.6149 -0.0593
46986SOL     OW47818   7.666   8.949  10.681  0.1260  0.6603 -0.3452
46986SOL    HW147819   7.674   9.044  10.682 -0.8086  0.7511 -0.3882
46986SOL    HW247820   7.661   8.923  10.773  0.7230  0.6197 -0.3242
46987SOL     OW47821  10.469   4.855   2.291 -0.6172 -0.0311 -0.0740
46987SOL    HW147822  10.376   4.872   2.279 -0.7365 -1.7131 -2.0736
46987SOL    HW247823  10.502   4.933   2.336 -3.0608  0.3447  1.2279
46988SOL     OW47824  11.091   0.940   7.342  0.5265  0.4239 -0.5740
46988SOL    HW147825  11.148   0.958   7.267  1.3930 -1.1522 -0.3335
46988SOL    HW247826  11.070   1.027   7.377  0.9494  1.1449 -2.0006
46989SOL     OW47827  12.395   2.947   0.816  0.2032 -0.0400 -0.0098
46989SOL    HW147828  12.487   2.925   0.806  0.8462  1.6625  1.6821
46989SOL    HW247829  12.375   3.003   0.741 -0.2606 -2.5039 -1.8650
46990SOL     OW47830   7.925   6.948   6.855 -1.0606 -0.0747 -0.6187
46990SOL    HW147831   7.934   7.044   6.859  0.2009 -0.2307  1.3754
46990SOL    HW247832   7.861   6.927   6.923 -1.4263 -0.6532 -1.1339
46991SOL     OW47833   6.708   0.739  10.716 -0.2447 -0.3406 -0.3172
46991SOL    HW147834   6.784   0.690  10.746 -0.6415 -0.5467  0.3730
46991SOL    HW247835   6.726   0.829  10.744  0.2523 -0.1691 -1.1468
46992SOL     OW47836   4.184   1.878  11.739  0.0104 -0.2690 -0.3321
46992SOL    HW147837   4.133   1.845  11.664  0.3326 -1.6377  0.0095
46992SOL    HW247838   4.262   1.917  11.699 -0.4018  0.1238 -0.7666
46993SOL     OW47839  11.321   5.353   9.500 -0.4585 -0.1374  0.2809
46993SOL    HW147840  11.410   5.333   9.471 -0.2003  1.2314  0.0785
46993SOL    HW247841  11.322   5.335   9.594 -0.0665 -0.4439  0.2218
46994SOL     OW47842  10.804   7.538   5.821 -0.2593 -0.0476  0.3690
46994SOL    HW147843  10.720   7.517   5.861 -0.1553 -0.6991  0.2611
46994SOL    HW247844  10.859   7.461   5.838 -0.0578 -0.1233 -0.5711
46995SOL     OW47845   9.651   9.121  12.229 -0.3400 -0.0480 -0.3241
46995SOL    HW147846   9.691   9.110  12.143 -1.8326 -2.5592 -0.8060
46995SOL    HW247847   9.566   9.162  12.211 -0.4838 -0.1981  0.0006
46996SOL     OW47848   8.807  10.171   1.029  0.5057  0.6499  0.0371
46996SOL    HW147849   8.738  10.164   1.095  1.4286  0.7440  1.0242
46996SOL    HW247850   8.766  10.220   0.958 -1.1747 -1.2450 -0.4056
46997SOL     OW47851   8.785   0.351   7.488  0.3670 -0.0264 -0.3474
46997SOL    HW147852   8.775   0.410   7.562 -0.8331 -1.3777  0.6464
46997SOL    HW247853   8.737   0.393   7.417 -0.2959  0.3003  0.2831
46998SOL     OW47854   4.237   4.596   1.830  0.0865 -0.0206  0.1578
46998SOL    HW147855   4.314   4.588   1.886  0.6617 -0.7492 -0.7049
46998SOL    HW247856   4.255   4.672   1.775  0.4437 -0.5104 -0.4116
46999SOL     OW47857   5.353   3.116   5.630  0.0065 -0.1874 -0.5881
46999SOL    HW147858   5.288   3.183   5.606 -0.3188 -0.5898 -0.8451
46999SOL    HW247859   5.434   3.145   5.588  0.4711  1.2582  1.1581
47000SOL     OW47860   3.905   7.885   6.447 -0.0515  0.3321  0.3223
47000SOL    HW147861   3.999   7.905   6.449  0.3424 -1.3586  0.1238
47000SOL    HW247862   3.891   7.831   6.525 -1.1033  1.4730  0.9518
47001SOL     OW47863  10.883   3.733  10.613  0.2920 -0.5576 -0.4471
47001SOL    HW147864  10.814   3.797  10.595 -0.0346 -0.9559 -0.6421
47001SOL    HW247865  10.906   3.698  10.527  0.2041 -0.9670 -0.3073
47002SOL     OW47866   9.553   5.667  11.316 -0.3112  0.0435 -0.1343
47002SOL    HW147867   9.621   5.724  11.279  0.2881 -0.8454 -0.4352
47002SOL    HW247868   9.596   5.623  11.389 -0.7720 -0.0208  0.1004
47003SOL     OW47869  10.275   9.652   6.151 -0.5502  0.3319 -0.1072
47003SOL    HW147870  10.350   9.712   6.160 -0.7896  0.7915 -1.0209
47003SOL    HW247871  10.312   9.574   6.109 -0.6374  0.6789 -0.8350
47004SOL     OW47872  11.685  11.081   2.747 -0.0100  0.2240 -0.1581
47004SOL    HW147873  11.709  11.028   2.671  1.0330  0.8747 -0.2886
47004SOL    HW247874  11.592  11.060   2.761  0.6653 -2.7462  0.6803
47005SOL     OW47875   1.642  11.969   8.613  0.2131 -0.1991 -0.4145
47005SOL    HW147876   1.658  12.032   8.683 -4.3530 -0.0264  0.8344
47005SOL    HW247877   1.631  12.023   8.535  1.3717  0.0120 -0.4414
47006SOL     OW47878   7.328   5.370  11.726 -0.0232  0.0935 -0.2535
47006SOL    HW147879   7.296   5.408  11.808  0.4832 -1.5027  0.7189
47006SOL    HW247880   7.255   5.380  11.665 -0.6559  0.6867  0.5774
47007SOL     OW47881  10.624   2.706   8.587  0.4550  0.3208 -0.1275
47007SOL    HW147882  10.552   2.690   8.649 -0.7464  0.8925 -1.3227
47007SOL    HW247883  10.676   2.626   8.589 -0.7085 -0.4467  0.1215
47008SOL     OW47884   9.641  10.633   4.800  0.0747  0.1794  0.2619
47008SOL    HW147885   9.603  10.708   4.845  1.1364  0.1415  1.2823
47008SOL    HW247886   9.665  10.572   4.870  1.2165 -0.1556 -0.3818
47009SOL     OW47887   3.018   0.238   8.940 -0.1966 -0.7414  0.4943
47009SOL    HW147888   3.090   0.292   8.972  0.4240 -0.7959 -0.7509
47009SOL    HW247889   3.052   0.196   8.861 -1.5770 -0.7981 -0.1056
47010SOL     OW47890   9.067   7.247   0.567  0.4565 -0.5973  0.1428
47010SOL    HW147891   9.032   7.160   0.546  0.6374 -0.5632 -0.2993
47010SOL    HW247892   9.072   7.292   0.483  2.0148 -0.7712  0.1082
47011SOL     OW47893   9.435   3.336   7.482  0.2277  0.4708  0.3355
47011SOL    HW147894   9.356   3.389   7.475  0.8298  1.2828 -0.6048
47011SOL    HW247895   9.458   3.337   7.575 -2.5528 -2.3425  1.2128
47012SOL     OW47896   4.596   5.006   6.035 -0.3305  0.0073 -0.1029
47012SOL    HW147897   4.623   4.919   6.064 -2.2565  0.0701  2.2031
47012SOL    HW247898   4.573   4.995   5.943  0.1742 -1.7314 -0.0508
47013SOL     OW47899   4.972   9.358  11.362 -0.1263 -0.1830  0.1634
47013SOL    HW147900   4.910   9.425  11.334 -1.9136 -2.1148 -0.8043
47013SOL    HW247901   5.015   9.330  11.281 -2.1530 -2.7652 -0.1293
47014SOL     OW47902  10.847   1.309   9.552 -0.2952 -0.2888 -0.0615
47014SOL    HW147903  10.939   1.284   9.553  0.1446  1.1874  0.1766
47014SOL    HW247904  10.814   1.283   9.638  0.4573  0.9413  0.6408
47015SOL     OW47905   9.013   7.985   9.474  0.6153  0.4472  0.3680
47015SOL    HW147906   8.966   8.054   9.427  0.1422  2.0992  3.0639
47015SOL    HW247907   8.947   7.918   9.492  0.4957  0.4293 -0.1060
47016SOL     OW47908   8.194   0.373  10.784 -0.4416 -0.1995  0.0162
47016SOL    HW147909   8.203   0.436  10.855 -0.2227 -0.4684  0.2282
47016SOL    HW247910   8.280   0.331  10.777  0.5221  1.9353 -2.4397
47017SOL     OW47911   4.595  12.124  11.338 -0.4746  0.0954 -0.2472
47017SOL    HW147912   4.526  12.179  11.376 -0.7975 -0.0264 -0.6569
47017SOL    HW247913   4.674  12.179  11.342  0.4203 -1.1133  3.9387
47018SOL     OW47914   8.628  11.733  11.832 -0.1767  0.1723 -0.3362
47018SOL    HW147915   8.647  11.800  11.898 -2.3055 -0.7336  1.3003
47018SOL    HW247916   8.639  11.650  11.879 -4.8421 -0.4932  0.0285
47019SOL     OW47917   7.773   4.473   9.569 -1.0286 -0.2854  0.1751
47019SOL    HW147918   7.828   4.521   9.507  0.3898 -1.2369  0.6522
47019SOL    HW247919   7.683   4.498   9.546 -0.4289  4.5406  1.9233
47020SOL     OW47920  11.505   1.265   0.707 -0.0349 -0.0447 -0.3128
47020SOL    HW147921  11.460   1.331   0.654 -0.5539 -0.0930  0.0613
47020SOL    HW247922  11.596   1.294   0.709  0.0635 -0.2224 -1.5130
47021SOL     OW47923   6.670   8.103  12.400 -0.0452 -0.9527 -0.7709
47021SOL    HW147924   6.763   8.080  12.407 -0.1281 -1.2558 -0.6536
47021SOL    HW247925   6.671   8.195  12.372  0.3195 -0.3299  1.1169
47022SOL     OW47926   7.543   1.620  10.989 -0.0696  0.1188 -0.1470
47022SOL    HW147927   7.452   1.591  10.990  0.0834 -0.5193 -1.8970
47022SOL    HW247928   7.541   1.706  11.031 -1.0413 -0.9497  2.1598
47023SOL     OW47929   1.278   4.372  10.720 -0.5624 -0.0855 -0.1781
47023SOL    HW147930   1.316   4.287  10.740 -0.5253 -0.4917 -1.7982
47023SOL    HW247931   1.243   4.404  10.803  0.7981 -0.9750  0.7707
47024SOL     OW47932   2.879   0.792   2.835 -0.6731  0.0658 -0.4683
47024SOL    HW147933   2.800   0.746   2.807 -0.4842  0.6854 -2.1321
47024SOL    HW247934   2.850   0.849   2.906 -1.7062  0.1993 -0.9804
47025SOL     OW47935  12.041   0.100  10.513 -0.2808 -0.4354  0.0695
47025SOL    HW147936  12.126   0.095  10.556  0.0555  1.7473 -0.2546
47025SOL    HW247937  11.988   0.032  10.556  1.6637 -2.0144  0.0983
47026SOL     OW47938  11.691  10.146  11.060 -0.0461 -0.3992  0.1722
47026SOL    HW147939  11.625  10.214  11.051  2.6778  2.5987  0.7838
47026SOL    HW247940  11.757  10.167  10.994  0.6263 -2.8881 -0.0617
47027SOL     OW47941   1.922   6.046   4.593 -0.3615 -0.0229 -0.0516
47027SOL    HW147942   1.913   6.141   4.597  0.1803  0.2245 -2.8383
47027SOL    HW247943   2.002   6.027   4.643 -1.3998  0.7213  2.0097
47028SOL     OW47944   7.343  10.652   4.752 -0.6111  0.1234  0.0240
47028SOL    HW147945   7.388  10.568   4.764 -0.3420  0.1979 -0.4853
47028SOL    HW247946   7.274  10.651   4.820 -0.9797 -0.7607 -0.3457
47029SOL     OW47947  11.068   4.218   9.353 -0.2658  0.3654 -0.0540
47029SOL    HW147948  11.108   4.174   9.429  0.0921 -1.8835 -1.4604
47029SOL    HW247949  11.100   4.308   9.359  0.3194  0.0817  2.0692
47030SOL     OW47950  11.230   8.520  12.202  0.3188  0.6231 -0.0307
47030SOL    HW147951  11.285   8.554  12.131 -0.7815  2.3929 -0.0930
47030SOL    HW247952  11.141   8.526  12.168 -0.0141 -2.5269 -0.0769
47031SOL     OW47953   6.474   2.794   4.050 -0.2068  0.8511  0.2323
47031SOL    HW147954   6.451   2.884   4.074  0.1583  0.9716  0.1288
47031SOL    HW247955   6.505   2.800   3.960  1.3849  0.8881  0.7625
47032SOL     OW47956   2.346   4.685  11.230 -0.1538 -0.1743  0.0636
47032SOL    HW147957   2.376   4.684  11.321 -0.3481 -0.5622  0.1258
47032SOL    HW247958   2.418   4.647  11.180  0.6499  1.5970 -0.1741
47033SOL     OW47959  10.951   2.136   4.273 -0.0156 -0.5011 -0.1903
47033SOL    HW147960  10.921   2.210   4.325 -0.3511 -0.8573  0.1246
47033SOL    HW247961  11.031   2.168   4.230  0.9669 -0.6031  1.4947
47034SOL     OW47962   7.049   0.240   5.981  0.0700  0.1836  0.0806
47034SOL    HW147963   6.966   0.287   5.983 -0.4461 -0.5396 -1.8470
47034SOL    HW247964   7.079   0.240   6.072 -3.2069 -1.5695  1.3283
47035SOL     OW47965   2.856   6.916   1.804 -0.3649  0.2328 -0.2582
47035SOL    HW147966   2.835   6.850   1.870 -0.2491  1.2176  0.7747
47035SOL    HW247967   2.925   6.969   1.843  0.7057 -0.0178 -1.7257
47036SOL     OW47968   0.507   6.205  11.319  0.4086 -0.2467 -0.6404
47036SOL    HW147969   0.568   6.168  11.383  0.5737  0.1243 -0.5838
47036SOL    HW247970   0.496   6.296  11.346 -0.3777 -0.3730 -0.4898
47037SOL     OW47971   8.452   6.894   6.662 -0.2670 -0.7098 -0.4143
47037SOL    HW147972   8.470   6.885   6.569 -0.0050  2.4726 -0.7777
47037SOL    HW247973   8.376   6.953   6.666  1.5968  1.7514  1.3471
47038SOL     OW47974  11.101   4.388   3.644 -0.2404 -0.3657 -0.2138
47038SOL    HW147975  11.037   4.350   3.704  0.1671 -0.6274  0.0595
47038SOL    HW247976  11.048   4.436   3.580 -0.6184  2.9388  2.3169
47039SOL     OW47977   8.589   3.416  12.444  0.1433  0.3586  0.2993
47039SOL    HW147978   8.540   3.335  12.429 -0.7057  1.0311 -0.6565
47039SOL    HW247979   8.630   3.404  12.530  1.4534 -1.7717 -0.5416
47040SOL     OW47980   4.127  10.497   5.668  0.4227  0.4153 -0.2827
47040SOL    HW147981   4.047  10.534   5.630 -0.3232  0.2325  1.0354
47040SOL    HW247982   4.165  10.568   5.719  0.7029  0.2908 -0.3181
47041SOL     OW47983   1.656   4.192   7.622  0.7698 -0.1249 -0.0413
47041SOL    HW147984   1.589   4.225   7.681  0.2515  1.0050 -1.2005
47041SOL    HW247985   1.733   4.180   7.677 -0.6584 -2.7391  1.6234
47042SOL     OW47986   0.044  11.690   1.058 -0.2786  0.0579 -0.7313
47042SOL    HW147987   0.048  11.692   0.963 -3.5694 -1.2274 -1.0235
47042SOL    HW247988   0.073  11.601   1.081 -0.3074  0.0780 -0.6175
47043SOL     OW47989   2.287   8.104  11.470  0.1200  0.1982 -0.8805
47043SOL    HW147990   2.209   8.138  11.426 -0.5969 -1.6942 -1.1933
47043SOL    HW247991   2.273   8.122  11.563  0.0951  1.3124 -1.0911
47044SOL     OW47992  10.340   3.103   2.458  0.1138 -0.3594  0.3797
47044SOL    HW147993  10.403   3.137   2.395 -0.3821  0.0970  0.1266
47044SOL    HW247994  10.379   3.122   2.543  0.9034 -1.2010  0.2270
47045SOL     OW47995   0.904   7.511   0.293  0.5754 -0.0125  0.4663
47045SOL    HW147996   0.945   7.586   0.249 -0.0367 -0.1472 -0.3655
47045SOL    HW247997   0.923   7.437   0.236 -0.3941 -0.1572  0.3187
47046SOL     OW47998   0.393  10.592  10.384 -0.1134 -0.5479  0.0794
47046SOL    HW147999   0.445  10.657  10.430 -0.6471 -0.1154  0.0827
47046SOL    HW248000   0.443  10.573  10.305 -1.1603  1.8048 -1.2346
47047SOL     OW48001  11.635   2.072  10.264  0.4511 -0.1558 -0.5228
47047SOL    HW148002  11.646   1.980  10.289  1.1780 -0.1516 -0.7988
47047SOL    HW248003  11.543   2.090  10.280  0.0171 -1.2720 -1.5678
47048SOL     OW48004   5.721  10.418  10.223 -0.0564  0.2037 -0.0521
47048SOL    HW148005   5.808  10.450  10.200  0.2589 -0.4853  0.1309
47048SOL    HW248006   5.712  10.440  10.316  1.1887 -2.3379  0.7713
47049SOL     OW48007   3.098   4.236   5.437 -0.2807  0.7651  0.4130
47049SOL    HW148008   3.085   4.205   5.526 -1.5032  0.1700  0.0417
47049SOL    HW248009   3.119   4.329   5.447 -1.5927  0.9957  1.2591
47050SOL     OW48010  11.384   0.645   9.863  0.3589  0.7533 -0.3921
47050SOL    HW148011  11.302   0.636   9.912 -0.3476  0.0295 -1.6483
47050SOL    HW248012  11.453   0.640   9.929 -0.5605 -0.0187  0.5307
47051SOL     OW48013   2.254   0.417   2.925  0.6956  0.2110 -0.2463
47051SOL    HW148014   2.203   0.382   2.851 -0.8824  1.2679  0.2834
47051SOL    HW248015   2.302   0.341   2.959 -2.2005 -1.4109  0.5623
47052SOL     OW48016   1.952   6.795   9.111  0.1905  0.2102 -0.0512
47052SOL    HW148017   1.937   6.739   9.187  1.8844  0.6416  0.6483
47052SOL    HW248018   1.893   6.762   9.044  0.3172 -1.6687  0.7227
47053SOL     OW48019   7.895  11.521   6.200 -0.1535  0.0381  0.1442
47053SOL    HW148020   7.860  11.603   6.236 -0.3684 -0.3468  0.8405
47053SOL    HW248021   7.958  11.491   6.266  0.5569  0.0733 -0.5086
47054SOL     OW48022   0.090   9.323   1.438 -0.0591  0.2886  0.3409
47054SOL    HW148023   0.116   9.409   1.405 -1.9709  0.9400  0.4350
47054SOL    HW248024  -0.005   9.323   1.435 -0.1784 -1.1099  2.1747
47055SOL     OW48025  10.361  11.667   5.825 -0.0148 -0.1260 -0.1805
47055SOL    HW148026  10.378  11.737   5.888  0.4147 -0.3998  0.0149
47055SOL    HW248027  10.433  11.673   5.763  0.3910 -0.8089  0.2135
47056SOL     OW48028   1.690   2.098   9.562 -0.0305 -0.2247 -0.5649
47056SOL    HW148029   1.655   2.186   9.569  0.4209 -0.0895  0.1023
47056SOL    HW248030   1.647   2.049   9.632  2.1318  0.3142  1.2751
47057SOL     OW48031   1.570   9.322   3.938  0.0402 -0.2599 -0.5866
47057SOL    HW148032   1.553   9.336   3.845 -0.0536  0.1258 -0.5128
47057SOL    HW248033   1.491   9.353   3.982  0.3216  0.1143 -0.3373
47058SOL     OW48034   9.937   7.998   5.734 -0.2187  0.1357  0.0676
47058SOL    HW148035   9.986   8.056   5.676 -0.5100  0.5885  0.2699
47058SOL    HW248036   9.879   7.949   5.676  0.3677 -0.3026 -0.1576
47059SOL     OW48037   7.109   4.435   7.048  0.2911 -0.0605  1.0711
47059SOL    HW148038   7.191   4.449   7.001 -0.6955  0.3441 -0.6260
47059SOL    HW248039   7.123   4.356   7.099  1.3647 -0.6758 -0.1199
47060SOL     OW48040   5.853   8.245  11.923 -0.4847  1.2363  0.4322
47060SOL    HW148041   5.868   8.157  11.891 -0.3351  1.1967  0.6071
47060SOL    HW248042   5.758   8.255  11.924 -0.5655  0.5880  1.7100
47061SOL     OW48043  12.036   0.053   7.398 -0.5037 -0.2781  0.1993
47061SOL    HW148044  11.987   0.115   7.344 -1.0140 -0.3557  0.5633
47061SOL    HW248045  12.045   0.096   7.483 -1.2903 -0.8890  0.6083
47062SOL     OW48046   8.176  11.841   3.590  0.2761  0.3820  0.4271
47062SOL    HW148047   8.148  11.764   3.541  0.3268  0.5550  0.1221
47062SOL    HW248048   8.129  11.835   3.673 -0.0562  0.2518  0.2336
47063SOL     OW48049   5.076   7.425   0.468 -0.4189  0.5842 -0.3674
47063SOL    HW148050   5.172   7.421   0.465 -0.4124  0.5381 -0.1630
47063SOL    HW248051   5.047   7.352   0.413 -0.3200 -0.2075  0.5798
47064SOL     OW48052   6.190  12.448   8.955 -0.7204 -0.1442 -0.3577
47064SOL    HW148053   6.244  12.462   8.878 -1.8074  0.8372 -0.9785
47064SOL    HW248054   6.247  12.403   9.017 -0.0168 -1.5124 -1.9450
47065SOL     OW48055   6.260   7.301   6.904  0.0856  0.1957 -0.1065
47065SOL    HW148056   6.310   7.275   6.981 -1.1997 -0.4473  0.5415
47065SOL    HW248057   6.259   7.397   6.907  0.0212  0.1756  0.6967
47066SOL     OW48058   8.505   0.589   7.356  0.2992 -0.4495  0.1172
47066SOL    HW148059   8.549   0.519   7.307 -0.5431 -1.7774  1.1796
47066SOL    HW248060   8.442   0.625   7.294  1.8791  0.5772 -0.9917
47067SOL     OW48061   6.968   5.826   7.357  0.1198 -0.7851 -0.2508
47067SOL    HW148062   6.912   5.903   7.348 -0.1513 -0.7471  1.3666
47067SOL    HW248063   7.039   5.839   7.295  0.8103  1.4605  0.9110
47068SOL     OW48064  10.684   7.213  10.080 -0.2250 -0.0884 -0.1963
47068SOL    HW148065  10.711   7.165  10.002 -0.0725  0.1057 -0.2660
47068SOL    HW248066  10.604   7.170  10.109 -2.0624  1.7310 -2.2273
47069SOL     OW48067  11.486   8.525   2.114  0.5572 -0.0267  0.5596
47069SOL    HW148068  11.445   8.588   2.055 -0.0297 -0.3630  0.6014
47069SOL    HW248069  11.416   8.464   2.137  0.5475  0.5542  2.2555
47070SOL     OW48070   1.813   8.915   0.308 -0.7577 -0.2757  1.0229
47070SOL    HW148071   1.818   9.007   0.333 -0.5062 -0.1506  0.5305
47070SOL    HW248072   1.827   8.915   0.213  0.8466 -0.9465  1.2270
47071SOL     OW48073   0.639   1.237   1.641  0.0029 -0.6519 -0.2862
47071SOL    HW148074   0.712   1.285   1.602  0.0015 -0.7280 -0.3830
47071SOL    HW248075   0.677   1.153   1.667  0.8918  0.5821  3.0002
47072SOL     OW48076  11.297   4.750   6.217 -0.3425 -0.5812 -0.2650
47072SOL    HW148077  11.386   4.784   6.207 -0.9239  0.4299 -2.8113
47072SOL    HW248078  11.244   4.802   6.156 -2.7248 -1.0798  1.2396
47073SOL     OW48079   0.400  10.452  10.673 -0.1110  0.3943  0.0969
47073SOL    HW148080   0.492  10.459  10.699 -0.1436  0.4930  0.1842
47073SOL    HW248081   0.353  10.434  10.754  0.0767 -1.8549 -0.2293
47074SOL     OW48082   0.844   6.366   1.035  0.0111 -0.3287  0.6000
47074SOL    HW148083   0.827   6.420   0.958 -0.2865 -0.6504  0.4323
47074SOL    HW248084   0.808   6.280   1.011  1.3465 -0.8779  0.4741
47075SOL     OW48085   0.383   4.970   4.604  0.1880 -0.1858  0.3662
47075SOL    HW148086   0.299   4.928   4.625  0.1286  0.6568  1.9064
47075SOL    HW248087   0.414   5.005   4.687 -0.0368  3.3363 -0.8740
47076SOL     OW48088   7.319   4.752   5.022 -0.2626 -0.6608 -0.1299
47076SOL    HW148089   7.263   4.745   5.099 -1.1062  2.5991 -0.3117
47076SOL    HW248090   7.263   4.727   4.949 -0.4747 -0.5628 -0.0006
47077SOL     OW48091   9.871   4.610   4.784 -0.1407  0.4435 -0.7201
47077SOL    HW148092   9.816   4.540   4.749  1.6069 -0.8208 -1.0475
47077SOL    HW248093   9.902   4.657   4.706 -3.2809  3.3533 -0.5006
47078SOL     OW48094   0.475   3.512   1.788 -0.8001  0.0215  0.7872
47078SOL    HW148095   0.515   3.529   1.703  3.0813 -0.5790  2.2748
47078SOL    HW248096   0.456   3.599   1.824 -2.5888  0.2758 -0.6280
47079SOL     OW48097   5.122   0.372   0.377 -0.3070 -0.2439  0.1123
47079SOL    HW148098   5.154   0.362   0.288  0.2210  0.9789  0.1446
47079SOL    HW248099   5.096   0.464   0.383  1.8120  0.3358  1.8590
47080SOL     OW48100   6.736  11.828   2.645  0.6644 -0.1599 -0.4314
47080SOL    HW148101   6.822  11.869   2.642  1.3007 -1.3681  0.5378
47080SOL    HW248102   6.752  11.741   2.681 -1.0189 -0.2339  0.2175
47081SOL     OW48103   3.685   7.132  11.457 -0.3198  0.2867  0.4181
47081SOL    HW148104   3.740   7.136  11.379  0.2060 -0.8930  0.7083
47081SOL    HW248105   3.719   7.199  11.515  1.6777 -1.2621  1.1249
47082SOL     OW48106   5.716  11.174   4.829  0.6568 -0.2595 -0.3403
47082SOL    HW148107   5.781  11.240   4.850  0.8802 -0.2083 -1.1416
47082SOL    HW248108   5.693  11.134   4.913 -0.4592  1.7100  0.3505
47083SOL     OW48109   4.950   9.269   0.692 -0.5548 -0.6506 -0.3708
47083SOL    HW148110   4.886   9.316   0.745 -1.1652 -0.3535 -1.3455
47083SOL    HW248111   4.930   9.176   0.708  0.0938 -0.6009  0.8792
47084SOL     OW48112   0.138  10.953   8.139 -0.0721 -0.3061  0.0468
47084SOL    HW148113   0.150  10.985   8.228 -1.2019  0.7185 -0.1499
47084SOL    HW248114   0.045  10.965   8.122  0.2107 -0.0680 -1.4316
47085SOL     OW48115   0.673   5.042  11.942  0.5166 -0.2505  0.3756
47085SOL    HW148116   0.707   4.998  12.020  1.6166 -1.7534 -0.8875
47085SOL    HW248117   0.622   4.975  11.897  1.1704  0.1237 -0.9575
47086SOL     OW48118   8.550   5.669   1.363  0.1659  0.0834 -0.2730
47086SOL    HW148119   8.502   5.606   1.417 -1.6898 -0.0265 -1.9543
47086SOL    HW248120   8.509   5.754   1.382 -0.8692 -0.0366 -1.8608
47087SOL     OW48121  10.819   6.456   1.275 -0.6555 -0.1544 -0.5387
47087SOL    HW148122  10.748   6.453   1.210 -1.3782  0.2536  0.2185
47087SOL    HW248123  10.823   6.548   1.301 -1.4791 -0.5700  1.1783
47088SOL     OW48124  10.009   3.585   2.663  0.2819  0.3368 -0.5057
47088SOL    HW148125   9.925   3.556   2.628  0.1110 -0.1838  0.3165
47088SOL    HW248126  10.071   3.516   2.639  0.5561  0.8549 -1.3634
47089SOL     OW48127   8.280   3.532   4.085  0.2047 -0.1124 -0.1719
47089SOL    HW148128   8.360   3.543   4.138  1.6892 -3.3206 -1.4770
47089SOL    HW248129   8.282   3.605   4.023  2.0015  0.0458  0.0059
47090SOL     OW48130  11.715   2.360   8.760 -0.1659 -0.2620  0.1821
47090SOL    HW148131  11.793   2.305   8.768  0.1514 -0.2575 -2.1573
47090SOL    HW248132  11.653   2.307   8.711 -0.7998  0.5651  0.0605
47091SOL     OW48133   3.473   6.569   9.826  0.2708 -0.3058  0.2235
47091SOL    HW148134   3.543   6.620   9.866  0.6768 -0.6522 -0.0268
47091SOL    HW248135   3.518   6.496   9.784 -0.3187 -0.9890  0.7597
47092SOL     OW48136   9.129   5.662  10.302 -0.0307  0.2221 -0.5915
47092SOL    HW148137   9.205   5.653  10.358  0.2314 -0.1054 -0.9926
47092SOL    HW248138   9.070   5.720  10.350 -0.0198 -0.4286  0.2299
47093SOL     OW48139   0.925   0.162  11.110 -0.0389  0.3586 -0.3529
47093SOL    HW148140   1.007   0.112  11.118 -0.4678 -0.1391  1.1662
47093SOL    HW248141   0.856   0.098  11.125 -0.7801  0.6550 -2.1735
47094SOL     OW48142  11.949   0.885   8.701  0.6069 -0.2776  0.3280
47094SOL    HW148143  11.971   0.939   8.625 -2.1100  1.7460  0.8182
47094SOL    HW248144  11.967   0.941   8.776 -3.1825  0.5700  0.8253
47095SOL     OW48145   2.723   0.927   2.467  0.0428 -0.5427 -0.0745
47095SOL    HW148146   2.650   0.917   2.529  0.3920 -1.1348  0.2419
47095SOL    HW248147   2.767   1.007   2.496  1.1757 -1.6837  1.4737
47096SOL     OW48148   0.815  11.204  10.947 -0.3632  0.5019  0.1062
47096SOL    HW148149   0.727  11.168  10.943 -1.2031  2.3229  1.0700
47096SOL    HW248150   0.827  11.227  11.039  1.2194  0.0781  0.0375
47097SOL     OW48151  10.959   3.605   5.556  0.4186 -0.1457  0.1469
47097SOL    HW148152  10.981   3.692   5.589 -0.7941  0.2669 -0.1048
47097SOL    HW248153  10.865   3.597   5.568  0.7996 -2.4845  2.6659
47098SOL     OW48154   4.236  12.377   5.422 -0.0298 -0.0757  0.4406
47098SOL    HW148155   4.187  12.298   5.448 -1.6646  0.6898 -0.1306
47098SOL    HW248156   4.231  12.434   5.498  1.2041 -0.5266  0.8744
47099SOL     OW48157   6.299   8.542   3.613  0.2985  0.2426 -0.6121
47099SOL    HW148158   6.305   8.485   3.536  2.6989  2.4197 -2.2098
47099SOL    HW248159   6.367   8.510   3.672  1.0171  0.8100 -1.1062
47100SOL     OW48160   1.071   3.330  12.257 -0.1367  0.2732 -0.0031
47100SOL    HW148161   1.018   3.333  12.337 -0.0534 -0.3156  0.0814
47100SOL    HW248162   1.153   3.373  12.281 -1.0832  2.4915 -0.5459
47101SOL     OW48163   8.951   5.645   1.033  0.1428 -0.2327  0.2858
47101SOL    HW148164   8.862   5.628   1.063 -0.3929  1.2668 -0.3508
47101SOL    HW248165   9.007   5.625   1.108 -0.7077 -1.3425  0.6367
47102SOL     OW48166   7.458   9.674   5.148  0.5479  0.1375 -0.1987
47102SOL    HW148167   7.448   9.635   5.234 -0.7611  1.6335  0.3770
47102SOL    HW248168   7.532   9.733   5.157  0.3544  0.3611 -0.0685
47103SOL     OW48169   5.597  10.268   1.278 -0.4240 -0.6745 -0.2856
47103SOL    HW148170   5.656  10.261   1.353  0.0645 -0.5627 -0.6557
47103SOL    HW248171   5.521  10.216   1.304 -0.7021  0.1752  0.6940
47104SOL     OW48172  10.664   7.415   0.231 -0.3517 -0.4326 -0.8199
47104SOL    HW148173  10.723   7.446   0.299 -0.9407 -0.5933 -0.2348
47104SOL    HW248174  10.646   7.324   0.254  0.7443 -1.0110 -2.0969
47105SOL     OW48175   0.435  11.548   0.762 -0.2186  0.0315  0.2429
47105SOL    HW148176   0.501  11.557   0.693 -0.5683  0.6435 -0.0301
47105SOL    HW248177   0.415  11.638   0.787 -2.1593 -0.0333 -0.8773
47106SOL     OW48178  11.111   8.641   8.564  0.1306  0.3052 -0.0154
47106SOL    HW148179  11.076   8.555   8.586 -0.6667  0.6118 -0.0609
47106SOL    HW248180  11.160   8.627   8.483  2.1257 -0.5981  1.2613
47107SOL     OW48181   0.158  10.885   5.205 -0.0573 -0.6199  1.1604
47107SOL    HW148182   0.209  10.832   5.144 -0.1666  0.3682  0.1975
47107SOL    HW248183   0.089  10.925   5.152 -0.3258  0.0352  1.9744
47108SOL     OW48184   2.199   4.692   7.179 -0.1143 -0.9102 -0.6395
47108SOL    HW148185   2.141   4.741   7.237  0.2301 -0.6003 -0.5437
47108SOL    HW248186   2.143   4.661   7.108 -0.8134 -2.4918  0.5656
47109SOL     OW48187   6.998   2.614   4.863 -0.0564 -0.1532  0.2270
47109SOL    HW148188   6.935   2.542   4.869  0.2493 -0.4212  0.2352
47109SOL    HW248189   7.050   2.594   4.786 -1.8089  1.5457 -1.5090
47110SOL     OW48190   3.807  10.053   9.263 -0.4301  0.3783 -0.0231
47110SOL    HW148191   3.866  10.108   9.314 -0.3899  0.8658 -0.5869
47110SOL    HW248192   3.752  10.011   9.329  1.1966 -0.8906  0.5829
47111SOL     OW48193   3.858  11.421   7.455  0.0137 -0.8859  0.2183
47111SOL    HW148194   3.842  11.411   7.549  0.8680  1.5729  0.6984
47111SOL    HW248195   3.947  11.387   7.443 -0.1872 -1.4322  0.2210
47112SOL     OW48196   3.701  10.270   8.880  0.0238  0.5189 -0.7205
47112SOL    HW148197   3.762  10.235   8.814  0.0721  0.4935 -0.6625
47112SOL    HW248198   3.752  10.335   8.927  0.7390 -1.1270  0.8733
47113SOL     OW48199   5.282   0.254   4.372 -0.4521  0.1069 -0.2772
47113SOL    HW148200   5.217   0.200   4.327 -0.4053  0.0151 -0.2367
47113SOL    HW248201   5.309   0.201   4.447  2.4424 -1.5787 -2.2835
47114SOL     OW48202   0.315   4.536   6.204 -0.3369  0.2216 -0.7104
47114SOL    HW148203   0.241   4.567   6.256 -0.1562 -2.1405  1.1326
47114SOL    HW248204   0.279   4.464   6.153  0.2156  0.5014 -1.5097
47115SOL     OW48205   5.707   9.817   5.638  0.1931 -0.3896  0.2856
47115SOL    HW148206   5.723   9.866   5.719  0.8476 -0.4620  0.2069
47115SOL    HW248207   5.794   9.794   5.606 -0.1054 -1.6301  0.3243
47116SOL     OW48208   1.822   7.345   1.281  0.1823  0.5430  0.3871
47116SOL    HW148209   1.755   7.277   1.284  0.8540 -0.1419  0.1482
47116SOL    HW248210   1.903   7.298   1.259  0.3511  1.6336 -1.5980
47117SOL     OW48211   3.203   1.992   2.459  0.2630 -0.3466  0.8231
47117SOL    HW148212   3.287   1.975   2.415 -0.4250  4.4019 -3.1136
47117SOL    HW248213   3.139   1.941   2.409  0.3582 -1.9354  2.2152
47118SOL     OW48214  10.643   7.287   3.296  0.2913  0.3058 -0.1431
47118SOL    HW148215  10.554   7.318   3.279  0.0958 -0.0750  0.1601
47118SOL    HW248216  10.656   7.303   3.390  1.2464  2.1233 -0.5323
47119SOL     OW48217   7.346   2.421   9.624  0.0843 -0.3535 -0.3924
47119SOL    HW148218   7.405   2.491   9.652  0.9115 -0.5313 -1.6136
47119SOL    HW248219   7.305   2.391   9.705 -0.6847  1.8657  0.1209
47120SOL     OW48220   1.473   3.968   3.606  0.2852  0.1208  0.0150
47120SOL    HW148221   1.557   3.939   3.641  0.0814  0.4128  0.7676
47120SOL    HW248222   1.431   4.015   3.679 -0.8591 -0.6884 -0.0948
47121SOL     OW48223   1.106   7.789   8.421 -0.7129  0.1603  0.2663
47121SOL    HW148224   1.110   7.830   8.335  0.6945  4.1625  2.0030
47121SOL    HW248225   1.191   7.744   8.430 -1.8307 -2.5069 -1.2171
47122SOL     OW48226   3.516   9.564   6.669  0.0701 -0.2568  0.3285
47122SOL    HW148227   3.581   9.535   6.605  0.2172 -0.4817  0.5743
47122SOL    HW248228   3.533   9.657   6.680 -2.0714  0.5736 -2.4162
47123SOL     OW48229   4.219   9.125   1.041  0.4234  0.0194  0.4976
47123SOL    HW148230   4.131   9.116   1.006  0.1502 -1.2836  1.4214
47123SOL    HW248231   4.254   9.035   1.041  2.8407  0.7784 -2.4733
47124SOL     OW48232   3.107   3.334   4.804 -0.1029 -0.4308 -0.5477
47124SOL    HW148233   3.154   3.260   4.840  2.3655  0.0302 -2.5856
47124SOL    HW248234   3.072   3.380   4.881  2.7753 -0.8357  1.1468
47125SOL     OW48235   9.641  12.046   6.520 -0.0670 -0.2076 -0.1292
47125SOL    HW148236   9.606  12.079   6.603  2.2994  1.5132  0.2971
47125SOL    HW248237   9.735  12.062   6.526  0.2961 -0.8954 -2.7965
47126SOL     OW48238   6.544   7.507  12.102  0.6836  0.5229  0.1661
47126SOL    HW148239   6.595   7.427  12.087  0.2809  0.3143 -0.0916
47126SOL    HW248240   6.462   7.476  12.139  0.4843  0.8098 -0.0378
47127SOL     OW48241   7.121   1.390   7.817  0.0649 -0.3261 -0.0105
47127SOL    HW148242   7.143   1.368   7.907 -2.0342 -4.3315 -0.2265
47127SOL    HW248243   7.041   1.441   7.824 -0.0843 -0.6125  0.4294
47128SOL     OW48244   6.883  10.936   1.776  0.0475 -0.1618 -0.3514
47128SOL    HW148245   6.878  11.024   1.814  1.7847  0.5098 -1.5716
47128SOL    HW248246   6.870  10.877   1.851  0.3387  1.1109  0.7434
47129SOL     OW48247   0.405   3.008   3.661 -0.0621  0.2498 -0.1995
47129SOL    HW148248   0.400   2.973   3.572  1.2091 -2.3584  0.6286
47129SOL    HW248249   0.497   3.031   3.673 -0.0585 -0.1618  0.6682
47130SOL     OW48250   0.507  10.703   3.327 -0.2438  0.1623  0.4407
47130SOL    HW148251   0.466  10.786   3.302 -1.0730  0.0762  1.4687
47130SOL    HW248252   0.600  10.717   3.308 -0.1848  1.7728  1.7060
47131SOL     OW48253   6.444   7.813   3.018  0.5939 -0.4366  0.1367
47131SOL    HW148254   6.512   7.792   3.082  2.2684  1.8490 -0.7426
47131SOL    HW248255   6.463   7.757   2.943  0.8002 -0.6245  0.3305
47132SOL     OW48256   6.737  10.278   0.761  0.2455 -0.2616 -0.8139
47132SOL    HW148257   6.746  10.190   0.797  1.5735 -0.6941 -2.1023
47132SOL    HW248258   6.664  10.271   0.699  2.4079 -1.4129 -3.4195
47133SOL     OW48259  10.613   5.579   6.829  0.3793  0.1176  0.4838
47133SOL    HW148260  10.621   5.489   6.858  0.1179 -0.2463 -0.5337
47133SOL    HW248261  10.541   5.615   6.881 -0.8533 -0.8596 -0.4927
47134SOL     OW48262   4.869  10.166   5.154  0.1198  0.6355 -0.5012
47134SOL    HW148263   4.789  10.126   5.120  0.5299 -0.0459 -0.6710
47134SOL    HW248264   4.929  10.168   5.079  0.6290  0.1768 -0.1069
47135SOL     OW48265   7.117   4.029   7.814  0.0359  0.0148  0.4169
47135SOL    HW148266   7.130   4.115   7.854 -2.1362 -0.0490  1.4303
47135SOL    HW248267   7.026   4.030   7.785 -0.1442 -2.0742  0.7848
47136SOL     OW48268   8.920  10.204   9.766 -0.0501 -0.2315 -0.2601
47136SOL    HW148269   8.851  10.184   9.829  0.7147  0.1934  0.7372
47136SOL    HW248270   9.002  10.187   9.813  0.5659  1.6637 -0.5587
47137SOL     OW48271   3.052  10.552   5.849  0.6342  0.3271 -0.4546
47137SOL    HW148272   3.020  10.571   5.761 -0.4033 -1.3113 -0.4772
47137SOL    HW248273   3.144  10.528   5.837  0.6903  0.8029 -0.9922
47138SOL     OW48274  12.224   7.115   8.345 -0.0203 -0.7234 -0.1866
47138SOL    HW148275  12.282   7.061   8.290 -0.8267  0.7469 -2.6665
47138SOL    HW248276  12.273   7.196   8.359 -0.6698 -0.2550 -0.5884
47139SOL     OW48277  11.618  10.650   1.105 -0.2633 -0.5398  0.0864
47139SOL    HW148278  11.557  10.580   1.080  1.5938 -1.7240 -1.4832
47139SOL    HW248279  11.562  10.726   1.120 -2.0677 -1.1653 -2.6785
47140SOL     OW48280   8.930   0.914   5.492  0.0905  0.2087  0.0876
47140SOL    HW148281   8.882   0.878   5.568 -0.5693  2.0539  0.5867
47140SOL    HW248282   9.022   0.899   5.513 -0.1069 -3.0654 -0.7089
47141SOL     OW48283   5.487   4.560   1.635 -0.2380  0.5972  0.0626
47141SOL    HW148284   5.549   4.487   1.634  0.4478  1.1444  0.8954
47141SOL    HW248285   5.455   4.563   1.726 -2.9836 -0.8803 -0.7313
47142SOL     OW48286   1.974   8.927   6.178  0.1166 -0.4393  0.6075
47142SOL    HW148287   2.015   9.007   6.144  0.1897 -0.3002  1.0160
47142SOL    HW248288   1.961   8.872   6.101  0.3582 -0.1627  0.3667
47143SOL     OW48289   3.610   3.696   3.292  0.7404  0.0597  0.1668
47143SOL    HW148290   3.580   3.606   3.281 -1.0064  0.6785 -0.4022
47143SOL    HW248291   3.703   3.693   3.267  0.3870 -1.3336 -1.1860
47144SOL     OW48292  11.699   6.215   8.973  0.0397  0.0710 -0.2690
47144SOL    HW148293  11.683   6.238   9.065 -0.6395 -0.0971 -0.3376
47144SOL    HW248294  11.616   6.235   8.929  0.0817 -0.6603 -0.6868
47145SOL     OW48295   2.098   9.352  11.931 -0.2870 -0.5303  0.7449
47145SOL    HW148296   2.031   9.418  11.909 -0.6147 -0.9512  0.4440
47145SOL    HW248297   2.098   9.349  12.026 -0.9587 -0.7819  0.7409
47146SOL     OW48298   9.982   3.157  10.426 -0.0830  0.1685  0.8596
47146SOL    HW148299  10.003   3.086  10.365  2.1096  0.7286  0.8464
47146SOL    HW248300   9.909   3.124  10.478 -0.2942 -1.3618 -0.3262
47147SOL     OW48301   7.998   7.486   6.479  0.5069  0.0276  0.3488
47147SOL    HW148302   7.992   7.498   6.574  0.0812  0.2394  0.3003
47147SOL    HW248303   8.017   7.393   6.468  0.4139 -0.0286  0.6416
47148SOL     OW48304  11.211   3.118   6.722 -0.6861 -0.1107 -0.6237
47148SOL    HW148305  11.157   3.194   6.702 -1.8231 -0.5161  0.7399
47148SOL    HW248306  11.272   3.112   6.649  0.4666  2.9985 -0.0991
47149SOL     OW48307   0.096   2.408   9.192 -0.4807  0.0897  0.1731
47149SOL    HW148308   0.049   2.328   9.214  2.7906 -1.6568  1.5270
47149SOL    HW248309   0.044   2.478   9.231 -3.4042 -1.2703 -0.9515
47150SOL     OW48310   5.028   7.352   7.868 -0.3042 -0.1795  0.1422
47150SOL    HW148311   5.116   7.332   7.900 -0.2887 -0.6375 -0.1690
47150SOL    HW248312   5.022   7.447   7.871  0.3946 -0.1122 -0.3047
47151SOL     OW48313   4.688  10.676   2.742 -0.0922 -0.0522  0.0271
47151SOL    HW148314   4.744  10.620   2.689 -0.3227  1.1107 -1.5193
47151SOL    HW248315   4.743  10.704   2.815  0.2706 -1.5896  0.3690
47152SOL     OW48316   3.890   5.542   6.681  0.0243 -0.1734 -0.3119
47152SOL    HW148317   3.970   5.569   6.725 -0.0246 -0.6698  0.0996
47152SOL    HW248318   3.879   5.450   6.707  0.1431 -0.5641 -1.5806
47153SOL     OW48319  10.632   1.377   5.747  0.4281  0.8390 -0.6288
47153SOL    HW148320  10.592   1.320   5.681  0.1667 -0.8712  0.9125
47153SOL    HW248321  10.642   1.461   5.703 -0.2652 -0.0625 -2.6453
47154SOL     OW48322  11.122   3.964   7.849  0.2459 -0.1486  0.3253
47154SOL    HW148323  11.039   3.918   7.861  0.1500 -0.1510 -0.3464
47154SOL    HW248324  11.120   3.994   7.758  0.6702  0.4674  0.5154
47155SOL     OW48325  10.664   9.402   6.710 -0.1459 -0.0685 -0.1088
47155SOL    HW148326  10.632   9.488   6.683  1.2355  0.1307 -1.2383
47155SOL    HW248327  10.692   9.415   6.801 -1.6445  0.1787  0.3344
47156SOL     OW48328   2.362   3.391  10.096  0.7853  0.2009 -0.2325
47156SOL    HW148329   2.367   3.437  10.012  0.3243  0.6328 -0.0238
47156SOL    HW248330   2.282   3.423  10.137  0.4981 -0.7304 -0.0451
47157SOL     OW48331  11.405  12.419   3.572 -0.0193  0.2972  0.5267
47157SOL    HW148332  11.358  12.446   3.493 -1.3775  0.4309  1.3425
47157SOL    HW248333  11.433  12.329   3.554  0.9054  0.7923 -0.6181
47158SOL     OW48334   0.958   7.966   9.609  0.1082 -0.1323  0.5401
47158SOL    HW148335   0.923   7.985   9.522 -0.6710  0.8282  1.0428
47158SOL    HW248336   1.017   7.891   9.596  0.3630  0.2956 -0.8827
47159SOL     OW48337  10.846   5.042  10.534  0.3304 -0.0319 -0.4710
47159SOL    HW148338  10.881   4.953  10.545 -0.8997 -0.2171  2.9232
47159SOL    HW248339  10.922   5.094  10.509  1.2258 -1.8709 -1.8289
47160SOL     OW48340   7.523   4.969   1.693 -0.4199 -0.2655  0.5065
47160SOL    HW148341   7.590   4.990   1.628  0.5878  0.3740  1.7136
47160SOL    HW248342   7.537   4.876   1.712 -1.8240 -0.9218 -1.3841
47161SOL     OW48343   3.389   5.898   1.488 -0.3829 -0.0377 -0.6710
47161SOL    HW148344   3.477   5.868   1.512  0.8200  2.3848 -1.6930
47161SOL    HW248345   3.335   5.819   1.491  1.5398 -1.4000  1.1752
47162SOL     OW48346   7.925  11.065   7.281  0.1086 -0.3945 -0.4470
47162SOL    HW148347   7.926  10.970   7.269 -1.4799 -0.4851 -0.1998
47162SOL    HW248348   7.970  11.080   7.364  1.1132 -0.8407 -0.9007
47163SOL     OW48349  10.600   9.329  11.438  0.5475  0.0314  0.3991
47163SOL    HW148350  10.565   9.331  11.527  1.4365  3.9345  0.8364
47163SOL    HW248351  10.660   9.404  11.434  0.9730 -0.3218 -3.3181
47164SOL     OW48352   2.261   0.869   8.676 -0.0184  0.9222 -0.0820
47164SOL    HW148353   2.252   0.965   8.678  1.9074  1.2386 -1.8869
47164SOL    HW248354   2.331   0.851   8.739  0.3358  0.8516 -0.4885
47165SOL     OW48355   3.195   8.816   4.606  0.1767 -0.1638 -0.1256
47165SOL    HW148356   3.108   8.807   4.645 -0.0666 -1.1646 -0.8573
47165SOL    HW248357   3.178   8.823   4.512  0.9557 -3.4016 -0.6320
47166SOL     OW48358  11.923   0.593   2.622 -0.3551 -0.0730  0.1338
47166SOL    HW148359  11.949   0.651   2.694 -2.4885  1.5543 -0.3006
47166SOL    HW248360  11.828   0.593   2.624 -0.4758 -3.5074 -0.0311
47167SOL     OW48361   7.592   0.503   9.629  0.0951 -0.2127  0.6231
47167SOL    HW148362   7.626   0.421   9.592 -0.1635 -1.5570  3.1509
47167SOL    HW248363   7.497   0.493   9.626 -0.0067  0.8786 -0.7968
47168SOL     OW48364   2.565   2.438   1.873  0.0183  0.4955 -0.1977
47168SOL    HW148365   2.487   2.432   1.928  0.8017  2.3138  1.2409
47168SOL    HW248366   2.623   2.370   1.907  0.7416  1.9833  1.8095
47169SOL     OW48367   9.827   1.532   1.112 -0.1539 -0.0429  0.4828
47169SOL    HW148368   9.894   1.582   1.158  0.2632  0.0744 -0.2447
47169SOL    HW248369   9.871   1.450   1.088 -0.9234 -0.9233  1.9590
47170SOL     OW48370   3.875   2.203   2.943 -0.6192  0.7779  0.3049
47170SOL    HW148371   3.838   2.122   2.908 -2.9252  1.1830  1.6091
47170SOL    HW248372   3.966   2.202   2.914 -1.2858 -0.9185 -2.0375
47171SOL     OW48373   8.132  12.277   6.072  0.0154  0.5753 -0.5919
47171SOL    HW148374   8.164  12.356   6.116 -0.6355 -0.1163  1.2462
47171SOL    HW248375   8.040  12.295   6.055  0.1425  0.6388 -1.2169
47172SOL     OW48376   4.190   4.625  11.716  0.0783  0.7117  0.3226
47172SOL    HW148377   4.233   4.564  11.777  1.4763  0.4950 -0.8224
47172SOL    HW248378   4.099   4.596  11.713  0.9668 -2.2716 -1.2421
47173SOL     OW48379   2.673   0.208   9.727  0.5417 -0.4084  0.1137
47173SOL    HW148380   2.748   0.236   9.674  0.2719 -0.5190 -0.3335
47173SOL    HW248381   2.629   0.143   9.672 -0.0476 -0.1245  0.2530
47174SOL     OW48382   2.705  10.901   4.419 -0.3763 -0.0473  0.2688
47174SOL    HW148383   2.691  10.811   4.447  0.6370 -0.4320 -0.3968
47174SOL    HW248384   2.797  10.903   4.392 -0.6925  0.8901 -0.7936
47175SOL     OW48385  10.684   5.472  11.175  0.0761 -0.7689  0.3718
47175SOL    HW148386  10.720   5.559  11.191  0.3082 -0.7096 -0.4442
47175SOL    HW248387  10.640   5.449  11.257 -0.8407  0.5256  0.2710
47176SOL     OW48388   9.804  10.009   3.355 -0.0825 -0.4149  0.0354
47176SOL    HW148389   9.872  10.042   3.414  0.8751 -3.3937  0.7799
47176SOL    HW248390   9.846  10.009   3.269  0.3747 -0.9018  0.2527
47177SOL     OW48391  11.445   4.188  11.558 -0.4643  0.2057  0.0252
47177SOL    HW148392  11.421   4.142  11.639 -2.3010 -0.4157 -0.8168
47177SOL    HW248393  11.463   4.278  11.586  1.2633 -0.5149  1.4246
47178SOL     OW48394   8.640   9.447   1.455 -0.6998 -0.9790  0.0867
47178SOL    HW148395   8.566   9.473   1.510  0.7323  0.1493  1.5651
47178SOL    HW248396   8.634   9.504   1.378  0.1913  1.1700  1.5191
47179SOL     OW48397   9.866  11.086   4.577  0.0555  0.5955 -0.4873
47179SOL    HW148398   9.837  11.007   4.531  0.0401  0.1952  0.1913
47179SOL    HW248399   9.898  11.054   4.662  0.2693  1.2921 -0.2993
47180SOL     OW48400   6.141   6.323   7.856  0.1448 -0.3104 -0.2980
47180SOL    HW148401   6.190   6.354   7.932  1.3089  0.7963 -1.4482
47180SOL    HW248402   6.049   6.332   7.881  0.4752  1.5123  0.4384
47181SOL     OW48403   9.845   7.694   2.801  0.0560  0.1967  0.8006
47181SOL    HW148404   9.893   7.776   2.787  0.5270 -0.1615  0.2689
47181SOL    HW248405   9.832   7.659   2.713  1.2113 -1.0593  1.0993
47182SOL     OW48406   4.789   9.239   4.435  0.2562 -1.0592 -0.3803
47182SOL    HW148407   4.881   9.235   4.464  0.2119 -0.5447 -0.1483
47182SOL    HW248408   4.776   9.159   4.384  0.5328 -1.6726  0.4716
47183SOL     OW48409   2.564   6.838  12.058 -0.2783 -0.0643 -0.3898
47183SOL    HW148410   2.502   6.873  11.995 -0.8884 -0.8746 -0.2519
47183SOL    HW248411   2.539   6.878  12.141 -0.3305 -0.0440 -0.4154
47184SOL     OW48412   7.730   7.578   0.969  0.2901 -0.6182 -0.0361
47184SOL    HW148413   7.636   7.562   0.958  0.0996  0.6067 -0.3526
47184SOL    HW248414   7.772   7.501   0.932 -0.5635 -0.3948 -1.5513
47185SOL     OW48415   8.052   0.794   5.444  0.0921 -0.7325 -0.4648
47185SOL    HW148416   8.124   0.738   5.475  1.3554  0.3856 -1.2751
47185SOL    HW248417   7.978   0.771   5.501  1.0196 -2.0556  0.2760
47186SOL     OW48418   7.218  11.797   5.444 -0.3882  0.4284  0.0964
47186SOL    HW148419   7.225  11.721   5.386  1.6101  0.5450  0.1105
47186SOL    HW248420   7.298  11.846   5.428 -2.9765  4.4408 -2.4500
47187SOL     OW48421   8.145   3.577  10.285  0.6750 -0.7840 -0.1618
47187SOL    HW148422   8.052   3.588  10.268  1.1377  1.8371 -1.5674
47187SOL    HW248423   8.163   3.485  10.264 -1.1507 -0.7397 -2.1818
47188SOL     OW48424   8.807   1.288   1.460 -0.3656  0.0855  0.1701
47188SOL    HW148425   8.828   1.276   1.367 -0.6155  0.1804  0.0992
47188SOL    HW248426   8.850   1.216   1.504  0.6425  0.6288  0.1084
47189SOL     OW48427  12.060   4.703   1.070  0.6221  0.1185 -0.2717
47189SOL    HW148428  12.088   4.764   1.138 -3.3490  0.3802  1.4097
47189SOL    HW248429  12.028   4.758   0.999 -0.9968  0.0495  0.3590
47190SOL     OW48430   1.283   2.247   2.770 -0.2204 -0.0430  0.3216
47190SOL    HW148431   1.356   2.188   2.752 -1.3429 -1.4798  0.2601
47190SOL    HW248432   1.305   2.287   2.854  1.0631  0.2721 -0.1436
47191SOL     OW48433   4.052   4.468   5.869  0.6367  0.5505  0.7354
47191SOL    HW148434   3.962   4.450   5.842  0.7510  0.9965  0.0186
47191SOL    HW248435   4.057   4.564   5.874  1.1730  0.5450  0.3915
47192SOL     OW48436   6.711   9.964   4.995  0.5156  0.3291  0.2078
47192SOL    HW148437   6.744   9.928   4.913  0.3426  0.0903  0.2428
47192SOL    HW248438   6.617   9.949   4.992  0.4284  0.8758  0.1754
47193SOL     OW48439   6.108   2.995   1.958  0.4086  0.1825 -0.0597
47193SOL    HW148440   6.170   3.062   1.929  0.2973 -0.2139 -1.2592
47193SOL    HW248441   6.024   3.040   1.959  0.3027  0.0269 -1.0523
47194SOL     OW48442   6.174   8.220   1.723  0.0592  0.0021  0.3576
47194SOL    HW148443   6.097   8.266   1.690  0.7776 -0.8692 -2.8766
47194SOL    HW248444   6.200   8.269   1.801 -1.6970  2.3924 -0.4529
47195SOL     OW48445   3.263   7.886   9.558  0.2079 -0.0794 -0.6095
47195SOL    HW148446   3.213   7.808   9.583 -0.9918  0.6382 -0.6621
47195SOL    HW248447   3.351   7.870   9.591 -0.2326 -1.0874  0.1302
47196SOL     OW48448   9.510  11.300  12.213 -0.5116 -0.0621  0.6360
47196SOL    HW148449   9.453  11.230  12.181  1.2173 -1.0275 -0.5177
47196SOL    HW248450   9.503  11.369  12.146  0.9359 -0.9123 -0.4651
47197SOL     OW48451  12.012   2.876   4.210  0.6901 -0.1068 -0.0698
47197SOL    HW148452  12.041   2.914   4.292  0.0471 -1.6934  0.9528
47197SOL    HW248453  12.073   2.804   4.194  0.2296 -0.4210 -0.4565
47198SOL     OW48454  10.090   1.046   9.998 -0.0032 -0.5858  0.2044
47198SOL    HW148455  10.126   1.131   9.972 -0.2788 -0.1802  1.1278
47198SOL    HW248456  10.092   0.994   9.917 -0.1674  0.4152 -0.4623
47199SOL     OW48457   2.256   6.163   1.325  0.4752  1.0354 -0.1352
47199SOL    HW148458   2.233   6.105   1.252 -1.0425  1.9162 -0.3912
47199SOL    HW248459   2.352   6.165   1.324  0.5607 -0.9264 -0.5221
47200SOL     OW48460  10.637   5.755   1.702  0.2956  0.3671 -0.0779
47200SOL    HW148461  10.669   5.689   1.641  0.6162 -0.2819  0.7771
47200SOL    HW248462  10.628   5.835   1.648  0.2111 -0.2749 -1.0446
47201SOL     OW48463   3.324   9.791   9.164  0.1108  0.1540 -0.0163
47201SOL    HW148464   3.347   9.883   9.177  0.7076 -0.1080  0.8867
47201SOL    HW248465   3.243   9.780   9.214  1.1983 -0.3053  1.7474
47202SOL     OW48466   3.578   3.381   7.898 -0.2689  0.1532  0.6085
47202SOL    HW148467   3.612   3.470   7.891  0.3288 -0.0410  1.0176
47202SOL    HW248468   3.656   3.326   7.907 -0.6814 -0.2396  2.1658
47203SOL     OW48469   3.732   9.927  12.207 -0.6141 -0.0414  0.6704
47203SOL    HW148470   3.804   9.944  12.267 -0.3310  0.9694  0.0598
47203SOL    HW248471   3.771   9.929  12.120 -1.5392  1.7515  0.2340
47204SOL     OW48472   5.446   4.016   0.202  0.4337 -0.0096 -0.3243
47204SOL    HW148473   5.375   3.955   0.185  0.3920  0.2289 -1.0089
47204SOL    HW248474   5.487   3.983   0.282 -0.1692 -0.3963 -0.1697
47205SOL     OW48475   9.555   9.917   3.450  0.1006 -0.2649  0.7480
47205SOL    HW148476   9.530   9.947   3.538 -0.2194  0.2571  0.4847
47205SOL    HW248477   9.635   9.965   3.430 -1.4783  2.0591 -0.4947
47206SOL     OW48478  11.671   6.841   0.920  0.1425 -0.1710  0.2921
47206SOL    HW148479  11.624   6.911   0.874 -1.2934 -2.3372 -1.8194
47206SOL    HW248480  11.761   6.872   0.923 -0.2173  1.3206 -1.5853
47207SOL     OW48481   8.245   3.454   5.720 -0.5043 -0.0495 -0.4137
47207SOL    HW148482   8.249   3.539   5.762 -1.8636 -0.2771  0.2356
47207SOL    HW248483   8.299   3.397   5.775  1.3579  0.5953 -1.4806
47208SOL     OW48484   6.489   0.975   8.256  0.5297 -0.9569  0.1364
47208SOL    HW148485   6.584   0.977   8.256  0.6500 -3.6478 -0.5753
47208SOL    HW248486   6.464   1.039   8.188  1.7369  0.4870  0.9940
47209SOL     OW48487   0.251   4.351   4.372 -0.3712 -0.6198  0.0826
47209SOL    HW148488   0.212   4.293   4.308 -1.1488 -0.4880  0.4286
47209SOL    HW248489   0.313   4.405   4.322  1.0299 -2.3201 -0.1017
47210SOL     OW48490   1.006   2.044  12.082 -0.0019  0.1844  0.1431
47210SOL    HW148491   0.983   2.028  12.173 -0.4544 -0.3583 -0.0648
47210SOL    HW248492   1.085   1.993  12.067 -1.7216 -2.4150 -0.6635
47211SOL     OW48493   8.208  11.301   5.343 -0.5395 -0.1040 -0.2967
47211SOL    HW148494   8.196  11.207   5.331 -0.1100 -0.3415  0.9505
47211SOL    HW248495   8.170  11.319   5.430  1.4647  0.4152  0.5259
47212SOL     OW48496   2.635   2.499   4.231 -0.1577 -0.0633  0.2186
47212SOL    HW148497   2.644   2.467   4.142  0.8177  2.0854 -0.5073
47212SOL    HW248498   2.722   2.488   4.270 -0.1011  0.6775  0.3074
47213SOL     OW48499   1.158   5.350   0.177  0.6278  0.5299 -0.0447
47213SOL    HW148500   1.108   5.419   0.220  1.7409  1.7370 -0.6370
47213SOL    HW248501   1.249   5.368   0.200  0.9664 -0.6109 -0.4051
47214SOL     OW48502   9.969   9.638   0.521  0.6742 -0.1353  0.0129
47214SOL    HW148503   9.926   9.577   0.461  0.3307  1.2638 -1.2133
47214SOL    HW248504   9.903   9.656   0.588  0.0531  0.3903 -0.7152
47215SOL     OW48505   1.899   9.034   9.587 -0.0705 -0.9750  0.2319
47215SOL    HW148506   1.927   8.951   9.548  0.2954 -1.3011  1.1460
47215SOL    HW248507   1.808   9.019   9.612 -0.1814 -0.9044 -0.1324
47216SOL     OW48508   7.497  10.778   7.693  0.5966 -0.4548  0.6811
47216SOL    HW148509   7.511  10.867   7.726 -0.0982 -0.1854  0.2616
47216SOL    HW248510   7.404  10.760   7.710  0.1172 -0.1913 -1.3698
47217SOL     OW48511   7.152   9.319   1.604  0.3345  0.4532 -0.2462
47217SOL    HW148512   7.098   9.310   1.526 -0.2630 -0.1906  0.2229
47217SOL    HW248513   7.147   9.233   1.647  0.3306  0.9124  0.6990
47218SOL     OW48514   0.304   9.396   7.560 -0.7629 -0.4336  0.4570
47218SOL    HW148515   0.359   9.464   7.522 -1.0917 -1.8278 -2.8176
47218SOL    HW248516   0.360   9.319   7.566 -2.1021 -1.7892 -2.6587
47219SOL     OW48517   8.983   4.668   4.935 -0.5247  0.0255 -0.1531
47219SOL    HW148518   8.960   4.578   4.915  0.2674 -1.0962  3.3987
47219SOL    HW248519   8.920   4.695   5.002 -0.6708  2.1238 -1.0512
47220SOL     OW48520  11.818   5.149   8.939  0.4350  0.1469  0.0267
47220SOL    HW148521  11.810   5.080   8.872  1.3657 -0.1286  0.1863
47220SOL    HW248522  11.813   5.101   9.022  1.0082  0.2769  0.1384
47221SOL     OW48523   7.248   7.095   2.267  0.4898 -0.1161 -0.0179
47221SOL    HW148524   7.271   7.008   2.299 -2.0222 -0.8348  0.0912
47221SOL    HW248525   7.213   7.140   2.344  0.1282  0.3385 -0.4407
47222SOL     OW48526   6.373  11.468   5.381 -0.1616  0.0323  0.7245
47222SOL    HW148527   6.365  11.540   5.443 -0.5268 -0.8485  1.7369
47222SOL    HW248528   6.328  11.395   5.424 -3.8366  0.2962 -2.1340
47223SOL     OW48529   0.662   8.741   3.464  1.2877  0.0411  0.7538
47223SOL    HW148530   0.599   8.770   3.530 -0.7883  0.1716 -1.1500
47223SOL    HW248531   0.639   8.791   3.386  2.2720 -1.6065 -0.6644
47224SOL     OW48532  10.298   9.361   6.229 -0.4824  0.1867 -0.8016
47224SOL    HW148533  10.234   9.326   6.167  0.5104 -0.8913 -1.2515
47224SOL    HW248534  10.355   9.416   6.175  0.2953 -0.6358 -0.8433
47225SOL     OW48535   7.408   5.440   1.818  0.2277 -0.5381 -0.0797
47225SOL    HW148536   7.344   5.391   1.766  0.8435 -1.5881  0.1247
47225SOL    HW248537   7.490   5.392   1.806  0.7846  0.2884  0.3594
47226SOL     OW48538   2.592   3.845   3.026  0.0021 -0.2601  0.0849
47226SOL    HW148539   2.616   3.789   3.100 -1.3905 -1.1738 -0.1250
47226SOL    HW248540   2.611   3.934   3.056  2.1369 -0.7786  0.4817
47227SOL     OW48541   2.169   3.093   8.760  0.5085  0.0476  0.8193
47227SOL    HW148542   2.244   3.081   8.819  1.7453 -1.7651 -0.9857
47227SOL    HW248543   2.203   3.072   8.674 -1.8209  0.3904 -0.2571
47228SOL     OW48544   7.251   6.406   5.322  0.5741  0.1997 -0.0283
47228SOL    HW148545   7.226   6.465   5.251  1.2934  1.1086  0.4409
47228SOL    HW248546   7.222   6.450   5.402 -1.6336 -1.5401  0.2087
47229SOL     OW48547   8.743  10.955   4.224 -0.0219 -0.2925 -0.4212
47229SOL    HW148548   8.687  11.011   4.171  0.4509  0.9212  0.3071
47229SOL    HW248549   8.827  10.955   4.179  0.5516  1.2040  0.5447
47230SOL     OW48550   9.333   1.359   7.347 -0.2213 -0.9054 -0.0721
47230SOL    HW148551   9.245   1.389   7.371 -0.2098 -1.1315  0.2509
47230SOL    HW248552   9.382   1.440   7.331 -0.6684 -0.7896 -0.9239
47231SOL     OW48553   7.322   9.603   6.337  0.2374 -0.2667  0.1129
47231SOL    HW148554   7.405   9.556   6.348  0.2866 -0.4439 -0.9559
47231SOL    HW248555   7.335   9.656   6.258 -0.2975  0.5128  0.5380
47232SOL     OW48556   1.605  10.723   7.734  0.5577 -0.3358 -0.1827
47232SOL    HW148557   1.696  10.736   7.761 -0.0665  0.1778  1.8705
47232SOL    HW248558   1.553  10.764   7.804 -1.2509  0.3576 -1.8360
47233SOL     OW48559   6.192   7.944   4.664 -0.0368  0.0472  0.0924
47233SOL    HW148560   6.219   8.011   4.600 -3.2031  1.0187 -0.4104
47233SOL    HW248561   6.268   7.933   4.721  1.4844  2.1871 -1.3699
47234SOL     OW48562   1.456   4.064   8.915 -0.3766 -0.1133  0.1419
47234SOL    HW148563   1.527   4.018   8.872 -0.2762  0.6992 -0.5878
47234SOL    HW248564   1.452   4.149   8.871 -1.4024  0.0823  0.5746
47235SOL     OW48565   7.802   2.700   3.968 -0.1358 -0.7644 -0.0130
47235SOL    HW148566   7.749   2.624   3.946  0.7351 -1.7385  1.1378
47235SOL    HW248567   7.830   2.735   3.884 -0.8448 -1.4904 -0.5659
47236SOL     OW48568   7.761   4.438   1.318  0.2095 -0.5062 -0.6833
47236SOL    HW148569   7.827   4.394   1.372  1.0337  0.9977 -0.4031
47236SOL    HW248570   7.799   4.524   1.300 -2.2068  0.9367  0.6093
47237SOL     OW48571   9.978   6.762   2.382 -0.0858  0.1912  0.0231
47237SOL    HW148572   9.923   6.786   2.457  0.9185 -0.5468  1.0315
47237SOL    HW248573  10.033   6.691   2.415  0.9782  0.4355 -1.1658
47238SOL     OW48574   1.929   5.061   0.099  0.3972  0.0482 -0.2142
47238SOL    HW148575   1.891   5.101   0.178  2.0846 -0.3480  0.8553
47238SOL    HW248576   1.957   5.135   0.046  0.2649  0.3146  0.0770
47239SOL     OW48577   8.254  10.219   4.618  0.1310 -0.3133  0.6295
47239SOL    HW148578   8.238  10.203   4.711  0.6353  0.3396  0.8327
47239SOL    HW248579   8.253  10.314   4.609  0.9829 -0.3382  0.1353
47240SOL     OW48580  11.882   0.053   0.789 -0.0999 -0.3811  0.6631
47240SOL    HW148581  11.836   0.132   0.815 -0.6798 -1.0449  1.7467
47240SOL    HW248582  11.949   0.040   0.856  0.8117 -0.1597 -0.1743
47241SOL     OW48583   3.465   1.412   8.887  0.6388  0.3396  0.4823
47241SOL    HW148584   3.526   1.457   8.946 -0.2137  2.5686 -0.2255
47241SOL    HW248585   3.382   1.411   8.935  0.6213 -0.4498  0.4494
47242SOL     OW48586  10.772   9.469   9.407  0.1138 -0.1273  0.0000
47242SOL    HW148587  10.689   9.496   9.446  0.2088 -0.2089  0.2654
47242SOL    HW248588  10.796   9.541   9.348 -0.4152 -0.3536 -0.4963
47243SOL     OW48589   1.571   2.744   4.564  0.2962  0.4367 -0.5772
47243SOL    HW148590   1.496   2.742   4.623  0.2349  0.5553 -0.6503
47243SOL    HW248591   1.541   2.700   4.484  1.5016 -3.1859  0.7494
47244SOL     OW48592  10.879   5.496  10.025  0.6737  0.1755  0.7393
47244SOL    HW148593  10.886   5.476   9.932 -1.4581  1.7029  0.1789
47244SOL    HW248594  10.955   5.549  10.045  0.7557  0.4642 -0.3260
47245SOL     OW48595   2.242   7.900   6.656 -0.0954 -0.0986 -0.0541
47245SOL    HW148596   2.263   7.881   6.748  0.2551 -0.0993 -0.1323
47245SOL    HW248597   2.254   7.816   6.612 -0.2804 -0.1014 -0.1004
47246SOL     OW48598   7.210   5.801   7.151  0.5821 -0.5503 -1.0363
47246SOL    HW148599   7.155   5.750   7.092  1.6751 -3.2101  0.0729
47246SOL    HW248600   7.271   5.847   7.093 -1.4738  0.9322 -2.1556
47247SOL     OW48601   8.066   7.216   6.356  0.2347  0.1628 -0.1139
47247SOL    HW148602   8.023   7.131   6.364  1.1000 -0.5237 -1.9554
47247SOL    HW248603   8.159   7.197   6.369  0.4357  0.8024 -0.5632
47248SOL     OW48604   5.705  10.199  10.811  0.0477  0.2179 -0.1310
47248SOL    HW148605   5.727  10.107  10.829  1.1021  0.7212  1.3075
47248SOL    HW248606   5.622  10.194  10.764 -2.0065 -1.3819  3.2698
47249SOL     OW48607  10.741   2.633   8.170 -0.1287  0.2240 -0.2474
47249SOL    HW148608  10.721   2.543   8.194 -1.1197  0.7633  1.1031
47249SOL    HW248609  10.655   2.673   8.155  0.2276  1.2448  0.3504
47250SOL     OW48610   5.713   8.855   4.581  0.4052  0.5672  0.6786
47250SOL    HW148611   5.757   8.858   4.496 -0.6651  0.5221  0.1029
47250SOL    HW248612   5.654   8.779   4.574 -0.8021  1.4603  0.8823
47251SOL     OW48613   2.773   6.473   3.138 -0.1322 -0.1159 -0.0418
47251SOL    HW148614   2.719   6.547   3.166  0.0350 -0.2191  0.5822
47251SOL    HW248615   2.774   6.415   3.214 -0.1978 -0.7207 -0.5041
47252SOL     OW48616   1.372   6.549   7.508 -0.0863 -0.1787  0.2009
47252SOL    HW148617   1.458   6.577   7.541  0.3958 -0.8283 -0.4864
47252SOL    HW248618   1.311   6.613   7.545  0.9443  1.7260 -1.1747
47253SOL     OW48619  11.063   0.555   7.941  0.3095 -0.2402 -0.4599
47253SOL    HW148620  11.064   0.503   7.860  1.1105 -1.7093  0.4398
47253SOL    HW248621  11.156   0.570   7.960  0.1604 -0.5650  0.5728
47254SOL     OW48622   5.614   1.786   5.424 -0.0143 -0.3786  0.5105
47254SOL    HW148623   5.675   1.811   5.355  0.4648 -1.4521  0.5279
47254SOL    HW248624   5.528   1.796   5.384  0.1040  1.5128  0.6023
47255SOL     OW48625   6.446   9.792   0.886  0.5313 -0.0944 -0.0512
47255SOL    HW148626   6.367   9.836   0.854 -0.9653 -1.6512  1.2718
47255SOL    HW248627   6.475   9.845   0.960  0.8668  0.6100 -0.6838
47256SOL     OW48628   4.215   9.485   9.700  0.5741  0.3022 -0.3070
47256SOL    HW148629   4.274   9.500   9.774 -1.1865 -0.0568  1.2156
47256SOL    HW248630   4.211   9.570   9.656  1.8065  0.4674 -0.1603
47257SOL     OW48631   0.673   7.876  10.456  0.1919  0.1832 -0.3589
47257SOL    HW148632   0.699   7.933  10.384 -0.2866  0.5704 -0.2286
47257SOL    HW248633   0.756   7.847  10.495  0.4358  0.8828 -0.3523
47258SOL     OW48634   1.440   1.910   8.752  0.0390 -0.1824 -0.0096
47258SOL    HW148635   1.418   1.998   8.782  1.2696  0.1730 -0.0772
47258SOL    HW248636   1.408   1.907   8.661 -0.3243  0.0690  0.1092
47259SOL     OW48637   8.448   0.114   5.553 -0.1379 -0.4161  0.1578
47259SOL    HW148638   8.353   0.105   5.565  0.0483 -1.3462  1.0243
47259SOL    HW248639   8.470   0.196   5.595 -0.7205  0.3969 -1.0652
47260SOL     OW48640   1.239  10.573   5.486  0.6761 -0.0307 -0.0743
47260SOL    HW148641   1.261  10.497   5.432 -2.4802 -1.2020  0.0804
47260SOL    HW248642   1.312  10.581   5.547  0.7345 -3.6032  0.5178
47261SOL     OW48643   3.389   3.012   2.573 -0.2965 -0.2528  0.2791
47261SOL    HW148644   3.370   2.939   2.513 -1.1453 -0.2357  0.5111
47261SOL    HW248645   3.458   3.061   2.529 -0.9537 -0.2032 -0.7418
47262SOL     OW48646   0.284   7.819   2.589 -0.2793 -0.3677 -0.0818
47262SOL    HW148647   0.361   7.785   2.636 -1.7815 -1.5539  1.6947
47262SOL    HW248648   0.224   7.745   2.586 -1.2126  0.4119 -1.8038
47263SOL     OW48649   0.020   1.758   2.074  0.2505 -0.1399  0.6764
47263SOL    HW148650  -0.048   1.744   2.140 -0.8999 -1.2217 -0.6907
47263SOL    HW248651   0.077   1.682   2.083  1.3167  0.7518  1.8020
47264SOL     OW48652   3.203  10.789   7.960  0.1311  0.0636 -0.1368
47264SOL    HW148653   3.298  10.802   7.951  0.0729  1.5325  1.0135
47264SOL    HW248654   3.194  10.696   7.980  1.5758  0.3267  2.1189
47265SOL     OW48655   3.738  12.081   1.263 -0.1497 -0.2541  0.7533
47265SOL    HW148656   3.643  12.077   1.254  0.0066 -0.0636 -1.9102
47265SOL    HW248657   3.759  12.173   1.246  0.5677 -0.4814  0.3779
47266SOL     OW48658   1.749   6.260   7.654 -0.0991 -0.4705  0.0947
47266SOL    HW148659   1.745   6.182   7.709 -3.3077  0.7412  1.8856
47266SOL    HW248660   1.781   6.229   7.570  0.9919 -3.2272  1.4151
47267SOL     OW48661  10.170   5.939   4.600  0.3452  0.1329 -0.2704
47267SOL    HW148662  10.209   5.894   4.675  0.8718  1.4589  0.2823
47267SOL    HW248663  10.132   6.019   4.637 -0.8254  0.0193 -1.1791
47268SOL     OW48664   1.788  11.959  10.345  0.0628 -0.3002  0.3235
47268SOL    HW148665   1.742  11.962  10.262  0.1747 -0.0332  0.2707
47268SOL    HW248666   1.800  12.050  10.370  2.1158 -0.2861 -0.5333
47269SOL     OW48667   6.310   8.777   2.077  0.8514 -0.4095 -0.2900
47269SOL    HW148668   6.309   8.803   1.985 -0.1559 -0.4573 -0.3079
47269SOL    HW248669   6.389   8.818   2.112  1.5295 -0.8308 -1.2872
47270SOL     OW48670   4.910   5.825   5.866  0.3762  0.5275 -0.1408
47270SOL    HW148671   4.832   5.878   5.884  0.3731  0.2768  0.6441
47270SOL    HW248672   4.976   5.860   5.926  1.2058  1.4572 -1.5474
47271SOL     OW48673   7.324   2.773   7.688 -0.7964  0.4411 -0.0125
47271SOL    HW148674   7.294   2.683   7.703 -0.1580  0.1252 -0.6026
47271SOL    HW248675   7.258   2.812   7.632 -1.1651  0.3998  0.3869
47272SOL     OW48676   6.774   4.730   3.430  0.5456 -0.7828 -0.1729
47272SOL    HW148677   6.798   4.819   3.458 -0.6072 -0.2950 -0.6737
47272SOL    HW248678   6.690   4.741   3.386  0.2286 -2.1889  0.0532
47273SOL     OW48679   4.280   1.963   8.746  0.4003 -0.0936  1.2867
47273SOL    HW148680   4.271   1.975   8.651  2.1864  0.7258  1.1853
47273SOL    HW248681   4.204   2.008   8.783  2.4397  4.5692  0.4573
47274SOL     OW48682   1.461   7.635  11.331 -0.2535 -0.2460 -0.4482
47274SOL    HW148683   1.453   7.557  11.276  0.3375 -1.0759  0.6085
47274SOL    HW248684   1.372   7.654  11.360 -0.5008 -0.0841 -1.2723
47275SOL     OW48685  12.417  11.364   5.777  0.1342 -0.1885  0.0697
47275SOL    HW148686  12.390  11.358   5.869  0.5804  0.9759  0.2971
47275SOL    HW248687  12.336  11.366   5.727 -0.1523  0.6485  0.5537
47276SOL     OW48688   4.518   3.119   4.212  0.4369  0.1030  0.6787
47276SOL    HW148689   4.475   3.201   4.238  2.3702  1.4062 -0.0185
47276SOL    HW248690   4.575   3.144   4.139  0.3771 -2.0712 -0.1708
47277SOL     OW48691   5.195   6.325   0.770  0.3755 -0.1112 -0.2899
47277SOL    HW148692   5.130   6.307   0.838 -0.0821 -0.3218 -0.7681
47277SOL    HW248693   5.278   6.295   0.807  0.2403  0.3766  0.4194
47278SOL     OW48694  10.029   4.441  10.565  0.3865 -0.2966 -0.2913
47278SOL    HW148695   9.946   4.488  10.564  0.6631  0.4062  2.3803
47278SOL    HW248696  10.077   4.475  10.490 -0.8154  1.0453 -0.4861
47279SOL     OW48697   6.749  11.403   4.814  0.1688 -0.2331 -0.1606
47279SOL    HW148698   6.787  11.395   4.902 -0.2495  0.2570  0.0700
47279SOL    HW248699   6.716  11.315   4.795 -1.7100  0.1441  1.1011
47280SOL     OW48700   6.299   9.052   5.700 -0.0840 -0.1734  0.2464
47280SOL    HW148701   6.302   8.963   5.664  0.7582  0.4461 -1.3079
47280SOL    HW248702   6.233   9.048   5.769  1.5163 -2.5791  1.8147
47281SOL     OW48703  12.298  10.661  11.049  0.2095  0.5748 -0.2824
47281SOL    HW148704  12.217  10.615  11.070 -0.9531  3.1265  1.3035
47281SOL    HW248705  12.304  10.656  10.954 -1.7068  0.1423 -0.4274
47282SOL     OW48706   8.800  11.956   5.025  0.7118  0.9527 -0.1552
47282SOL    HW148707   8.814  12.036   5.077  2.0208 -1.5067  3.7084
47282SOL    HW248708   8.885  11.939   4.985  0.3805  1.5387 -1.1353
47283SOL     OW48709   6.664  10.968  11.132  0.1230 -0.0208 -0.0159
47283SOL    HW148710   6.724  11.035  11.098 -0.4543  0.0083 -0.9937
47283SOL    HW248711   6.715  10.924  11.201  0.9154  0.6541 -0.1493
47284SOL     OW48712   5.947   7.285   2.500 -0.4881 -0.2921  0.5096
47284SOL    HW148713   5.961   7.202   2.546  0.3338 -0.2927  0.2712
47284SOL    HW248714   5.854   7.286   2.480 -0.4579 -1.2779  0.2930
47285SOL     OW48715   4.014  10.539  11.109 -0.0455  0.8764  0.6314
47285SOL    HW148716   4.011  10.465  11.170 -0.5444  0.5114  0.1693
47285SOL    HW248717   4.063  10.607  11.157 -1.5847  1.0858  1.9889
47286SOL     OW48718   1.745   8.797   8.915 -0.5709 -0.0747  0.2996
47286SOL    HW148719   1.753   8.743   8.993  1.3512  0.0304  0.2321
47286SOL    HW248720   1.746   8.734   8.842 -0.7087 -0.0906  0.3127
47287SOL     OW48721  11.787   5.975  12.355 -0.1280 -0.3323  0.2344
47287SOL    HW148722  11.788   5.980  12.451 -0.1906 -1.3974  0.3053
47287SOL    HW248723  11.853   5.909  12.334  1.1001  1.0932 -0.5657
47288SOL     OW48724   7.110   8.864  11.195  0.6179 -0.1790 -0.0424
47288SOL    HW148725   7.093   8.885  11.287  0.2561  1.7789 -0.5115
47288SOL    HW248726   7.197   8.898  11.178  0.2945  0.3491 -0.6662
47289SOL     OW48727  12.098   4.503   9.744  0.4052  0.5146  0.1399
47289SOL    HW148728  12.129   4.414   9.757  2.3127  1.3570  2.1245
47289SOL    HW248729  12.034   4.497   9.674  1.0908 -2.2642 -0.3522
47290SOL     OW48730   7.833  12.135  10.120 -0.2655 -0.2115  0.1445
47290SOL    HW148731   7.854  12.217  10.077  1.7685 -0.4014  0.6857
47290SOL    HW248732   7.747  12.110  10.085  0.2274  0.8466 -1.9322
47291SOL     OW48733   8.122   8.415   8.326  0.1649 -0.6837  0.0999
47291SOL    HW148734   8.100   8.446   8.239  0.4209 -0.1238  0.2314
47291SOL    HW248735   8.119   8.319   8.319 -2.4647 -0.6542  0.1741
47292SOL     OW48736   7.918   7.972   7.221 -0.2873  0.4146 -0.2132
47292SOL    HW148737   7.861   7.896   7.230 -2.3024  1.9338  0.8776
47292SOL    HW248738   7.874   8.028   7.157  1.0054  0.7965 -0.8020
47293SOL     OW48739   0.230   4.351   7.077 -0.6460  0.4509 -0.2807
47293SOL    HW148740   0.203   4.370   7.167 -1.7662  1.1958 -0.7425
47293SOL    HW248741   0.310   4.402   7.064 -1.3098  1.5484 -0.1634
47294SOL     OW48742   1.682   4.580   6.992  0.0832 -0.1748  0.1894
47294SOL    HW148743   1.685   4.500   6.940 -0.5701 -0.4398  0.5407
47294SOL    HW248744   1.655   4.649   6.931 -1.0657 -0.5542  0.2389
47295SOL     OW48745   0.826   9.004  10.037  0.3639 -0.0383 -0.2514
47295SOL    HW148746   0.868   9.065  10.098 -0.9023 -0.0883  0.7095
47295SOL    HW248747   0.891   8.935  10.022  1.0052  0.4265  0.3624
47296SOL     OW48748  11.537   2.504  10.093  0.0187  0.5171  0.1925
47296SOL    HW148749  11.616   2.471  10.049 -0.1857  0.2848 -0.0081
47296SOL    HW248750  11.517   2.585  10.047  0.4025  0.8212  0.5474
47297SOL     OW48751   1.540   3.364  12.337 -0.5599 -0.0325 -0.0506
47297SOL    HW148752   1.580   3.448  12.356  0.0017 -0.2835 -0.1057
47297SOL    HW248753   1.447   3.383  12.328 -0.4772  0.5255  0.2623
47298SOL     OW48754   6.537   6.335   3.729  0.3700 -0.2272  0.0872
47298SOL    HW148755   6.546   6.291   3.814  2.6178  0.5386  0.2931
47298SOL    HW248756   6.529   6.263   3.666 -0.2531 -0.8239  0.8147
47299SOL     OW48757   4.521  11.949   7.521  0.0186 -0.5490  0.0596
47299SOL    HW148758   4.537  12.034   7.562 -1.7295 -0.0914 -0.1243
47299SOL    HW248759   4.552  11.885   7.585  1.5904  0.2008  0.0937
47300SOL     OW48760   6.239   8.792   4.994 -0.6661 -0.3706 -0.2178
47300SOL    HW148761   6.160   8.797   5.048 -0.9452 -1.2079 -0.5338
47300SOL    HW248762   6.249   8.880   4.958 -1.3197 -0.1965  0.0146
47301SOL     OW48763   8.938   7.073   0.309  0.3776  0.0180 -0.1425
47301SOL    HW148764   8.885   7.047   0.384 -0.2083 -0.7648 -0.7986
47301SOL    HW248765   9.022   7.029   0.322  0.8450  1.1687  0.8432
47302SOL     OW48766  10.712   8.169   4.696 -0.7063  0.1022 -0.3179
47302SOL    HW148767  10.756   8.220   4.765  0.1227 -1.7561  0.5926
47302SOL    HW248768  10.746   8.205   4.614 -0.1081  0.9816  0.2945
47303SOL     OW48769   6.931   0.857   9.656 -0.2832 -0.1586  0.3209
47303SOL    HW148770   6.962   0.934   9.704  1.6233 -0.6209 -0.1242
47303SOL    HW248771   6.879   0.893   9.584  1.5723  0.8337 -0.6002
47304SOL     OW48772   0.865  11.015   2.863 -0.1093 -0.4574  0.2151
47304SOL    HW148773   0.945  11.024   2.812  1.1943  1.3670  2.3969
47304SOL    HW248774   0.803  11.077   2.824 -0.3850 -1.6084 -1.2478
47305SOL     OW48775   7.350   2.153   8.280 -0.3204 -0.3149 -0.1616
47305SOL    HW148776   7.263   2.155   8.240 -0.6703 -1.5824  0.4623
47305SOL    HW248777   7.375   2.061   8.276  0.4831 -0.1432  0.7357
47306SOL     OW48778   2.453   9.384   5.258  0.0508 -0.8710 -0.7691
47306SOL    HW148779   2.451   9.382   5.354  4.4609  2.1036 -0.3317
47306SOL    HW248780   2.373   9.430   5.233  0.3352  1.2035  1.7844
47307SOL     OW48781   3.689  12.035   9.847 -0.3143  0.0394 -0.2239
47307SOL    HW148782   3.691  11.963   9.911  0.7707 -1.1651 -1.5338
47307SOL    HW248783   3.652  11.995   9.768  1.9288  0.4051 -1.5271
47308SOL     OW48784   7.680   9.862   8.108  0.0529  0.5440  0.1322
47308SOL    HW148785   7.728   9.807   8.170  0.3823  0.0604 -0.5375
47308SOL    HW248786   7.593   9.823   8.103 -0.2885  1.1676  1.0247
47309SOL     OW48787   6.931   4.970  11.280 -0.2386  0.0062 -0.3589
47309SOL    HW148788   6.945   4.876  11.272 -1.0550 -0.2819  1.2036
47309SOL    HW248789   6.939   5.004  11.191  3.9341 -0.9597 -0.5364
47310SOL     OW48790   7.825   1.635  11.686  0.0159  0.6435  0.6565
47310SOL    HW148791   7.833   1.545  11.656  1.3849  0.7909  0.5067
47310SOL    HW248792   7.831   1.629  11.781  1.7183  0.6771  0.5907
47311SOL     OW48793   9.057  12.189   7.443 -0.0625  0.6308  0.2496
47311SOL    HW148794   9.103  12.220   7.365  0.2140 -0.0122  0.1511
47311SOL    HW248795   9.116  12.211   7.515 -0.2686  1.1288  0.2659
47312SOL     OW48796   3.395  10.618   7.126  0.6368 -0.2963  0.8291
47312SOL    HW148797   3.307  10.585   7.109  0.3494  0.7985  0.0319
47312SOL    HW248798   3.381  10.706   7.163  1.3534  1.0218 -1.7740
47313SOL     OW48799   5.326   3.858   6.851 -0.5710  0.0763 -0.0196
47313SOL    HW148800   5.285   3.893   6.931 -1.2348  0.2136 -0.4131
47313SOL    HW248801   5.252   3.836   6.795 -0.1195  2.6899 -1.7980
47314SOL     OW48802   5.667   4.742   7.522 -0.4633 -0.6609 -0.2495
47314SOL    HW148803   5.690   4.702   7.605 -0.3921  1.5652  0.8699
47314SOL    HW248804   5.751   4.756   7.478 -0.3693 -0.4532 -0.0070
47315SOL     OW48805  11.342   7.741   2.076 -0.3364  0.4591 -0.2124
47315SOL    HW148806  11.434   7.716   2.068 -0.2402  0.4119  0.8897
47315SOL    HW248807  11.340   7.803   2.149 -1.4221 -0.9336  1.0039
47316SOL     OW48808   8.117   7.969   2.452  0.4534 -0.2944 -0.1737
47316SOL    HW148809   8.103   8.055   2.412 -0.3407 -0.0599  0.5767
47316SOL    HW248810   8.035   7.951   2.497  0.7305 -1.3168 -0.0729
47317SOL     OW48811  11.532   3.581  10.086 -0.2137 -0.2727 -0.7890
47317SOL    HW148812  11.440   3.565  10.063 -0.3511  1.2855 -1.4368
47317SOL    HW248813  11.550   3.669  10.052  0.7793  0.5131  1.6174
47318SOL     OW48814   1.957   1.781  10.910  0.1351 -0.1474  0.4159
47318SOL    HW148815   1.862   1.786  10.911 -0.0666 -1.3371 -2.5649
47318SOL    HW248816   1.980   1.742  10.994 -1.9724  0.2385  1.2411
47319SOL     OW48817   8.639  10.191   8.951  0.2753  0.0274  0.0419
47319SOL    HW148818   8.718  10.161   8.905 -0.0895 -1.3481  0.2802
47319SOL    HW248819   8.570  10.189   8.884  0.1806  0.0116  0.1405
47320SOL     OW48820  10.052  10.376   8.888  0.1976  0.3515  0.2305
47320SOL    HW148821  10.053  10.435   8.963 -1.1565  0.7069  0.0001
47320SOL    HW248822  10.135  10.329   8.893  0.9580  1.7030  0.8776
47321SOL     OW48823   2.025   0.105   2.062 -0.8723  0.4198 -0.3135
47321SOL    HW148824   2.089   0.138   1.999 -1.2372 -0.3925 -1.1309
47321SOL    HW248825   2.069   0.112   2.147 -0.5653  2.0183 -0.5649
47322SOL     OW48826   8.517   4.960   5.371 -0.5511  0.1060  0.2718
47322SOL    HW148827   8.608   4.933   5.366 -0.2793  1.1639 -3.0797
47322SOL    HW248828   8.518   5.041   5.423  0.4902  0.3428 -0.0947
47323SOL     OW48829  11.301   5.777   0.062  0.3119  0.2598  0.7064
47323SOL    HW148830  11.297   5.681   0.057  0.3381  0.2923 -0.1086
47323SOL    HW248831  11.270   5.806  -0.024 -0.3579  1.0054  1.1928
47324SOL     OW48832  10.819   1.238   4.042 -0.7674  0.3929  0.2530
47324SOL    HW148833  10.870   1.254   4.121  0.0672  0.9562 -0.3825
47324SOL    HW248834  10.856   1.157   4.006 -0.9406  0.3006  0.2854
47325SOL     OW48835   7.128   5.233   7.105  0.3025 -0.7342  0.1757
47325SOL    HW148836   7.127   5.142   7.076 -0.4475 -0.4676 -0.6459
47325SOL    HW248837   7.207   5.269   7.066  1.4381 -1.3939  1.7230
47326SOL     OW48838   9.236   0.331   6.103  0.2258  0.3438  0.2996
47326SOL    HW148839   9.320   0.294   6.077 -0.6142  0.5697 -3.2953
47326SOL    HW248840   9.254   0.423   6.121  0.7773  0.3814 -0.4268
47327SOL     OW48841  12.276  10.434   1.034  0.0979 -0.2282 -0.1795
47327SOL    HW148842  12.317  10.382   0.965  0.7058  0.1478 -0.1059
47327SOL    HW248843  12.309  10.397   1.115 -0.3574 -0.4546 -0.0958
47328SOL     OW48844   0.619   8.762  10.248 -0.1463 -0.2278  0.4368
47328SOL    HW148845   0.653   8.812  10.322 -0.4719 -1.1210  1.2146
47328SOL    HW248846   0.570   8.690  10.288 -0.3703 -0.7054 -0.6492
47329SOL     OW48847   0.626   6.725  11.762 -0.2904 -0.3875  0.7028
47329SOL    HW148848   0.577   6.807  11.772 -0.9219 -0.7811  0.9165
47329SOL    HW248849   0.698   6.733  11.825  0.4345  0.5548 -0.2109
47330SOL     OW48850   9.901   6.602   8.697 -0.3130  0.1717  0.1141
47330SOL    HW148851   9.816   6.559   8.706  0.2834 -0.6303  2.5394
47330SOL    HW248852   9.956   6.563   8.765  1.1225  2.7650  0.5890
47331SOL     OW48853  12.014   7.417   8.385 -0.1343 -0.0742  0.2043
47331SOL    HW148854  12.082   7.456   8.331 -0.2936  0.7360  0.5781
47331SOL    HW248855  12.004   7.328   8.351  0.6678  0.0063 -0.2549
47332SOL     OW48856   7.561   6.088   0.881  0.1265 -0.6650  0.0685
47332SOL    HW148857   7.593   6.178   0.876 -0.4018 -0.4258  0.7877
47332SOL    HW248858   7.579   6.051   0.794 -0.4607  0.4121 -0.5310
47333SOL     OW48859  11.748   4.457   0.963 -0.5697 -0.2679 -0.0196
47333SOL    HW148860  11.798   4.405   1.026 -0.7324  0.8796  1.0714
47333SOL    HW248861  11.705   4.524   1.015 -2.1828 -0.4034 -1.1253
47334SOL     OW48862  11.665   1.215   0.138  0.3258 -0.1527 -0.4995
47334SOL    HW148863  11.611   1.294   0.134  0.5112  0.0479  0.5955
47334SOL    HW248864  11.627   1.157   0.073 -3.3841 -1.3493  2.3977
47335SOL     OW48865   8.864  11.213   2.733 -0.4017 -0.3368 -0.2123
47335SOL    HW148866   8.770  11.201   2.743 -0.5448 -0.2269 -1.3943
47335SOL    HW248867   8.900  11.185   2.818 -1.3850 -1.4924 -0.1479
47336SOL     OW48868   1.979   0.485  10.207 -0.2052 -0.0570  0.1082
47336SOL    HW148869   2.001   0.435  10.128 -1.5385  0.2991 -0.5177
47336SOL    HW248870   2.003   0.427  10.279  0.6796 -0.5460 -0.5547
47337SOL     OW48871   6.396   1.772   2.088  0.2099 -0.0168 -0.8412
47337SOL    HW148872   6.387   1.690   2.040  0.7629  0.1831 -1.2999
47337SOL    HW248873   6.352   1.837   2.033 -1.4243 -0.2177  0.1598
47338SOL     OW48874   7.698  10.814   8.647  0.3107  0.4949 -0.3682
47338SOL    HW148875   7.746  10.731   8.655  1.5633  1.1731 -0.5733
47338SOL    HW248876   7.690  10.846   8.737 -0.5432 -0.0357 -0.2450
47339SOL     OW48877  11.814   9.215   0.554  0.3637 -0.8564  0.3496
47339SOL    HW148878  11.869   9.156   0.605  1.0844 -1.5080 -1.1273
47339SOL    HW248879  11.731   9.169   0.546 -0.1424 -0.2614  1.8303
47340SOL     OW48880   9.663   9.087   9.757  0.1418  0.2716  0.4239
47340SOL    HW148881   9.681   9.004   9.714 -1.3544  0.2567 -0.2404
47340SOL    HW248882   9.711   9.152   9.706 -2.0573  0.3380 -1.7830
47341SOL     OW48883   8.671   1.653   2.177 -0.0999 -0.6172 -0.1939
47341SOL    HW148884   8.659   1.716   2.105 -1.9888 -0.0283  0.5852
47341SOL    HW248885   8.583   1.622   2.197  0.6923 -2.9066  0.0318
47342SOL     OW48886   8.771   9.627   5.066  0.3441  0.2335  0.2287
47342SOL    HW148887   8.772   9.647   4.972  3.9076  0.7911  0.2522
47342SOL    HW248888   8.804   9.706   5.108 -0.2976 -0.3377  1.8759
47343SOL     OW48889   0.781   8.203   7.391 -0.1043 -0.1461 -0.7497
47343SOL    HW148890   0.789   8.296   7.374  0.1748  0.0459  0.3087
47343SOL    HW248891   0.867   8.167   7.369 -0.1049 -0.0921 -0.8389
47344SOL     OW48892   4.999   2.625  11.897 -0.5507 -0.1576 -0.2751
47344SOL    HW148893   4.951   2.562  11.843  0.7993 -1.2524 -0.2724
47344SOL    HW248894   5.089   2.618  11.866 -0.2324  1.2091  0.2829
47345SOL     OW48895  11.763  11.339  11.498  0.4136 -0.0930  0.2723
47345SOL    HW148896  11.826  11.397  11.455 -1.5294  3.5073  1.8202
47345SOL    HW248897  11.811  11.300  11.571  1.7286 -0.2871 -0.6713
47346SOL     OW48898   9.308   1.327   8.158 -0.3575  0.0330 -0.1982
47346SOL    HW148899   9.360   1.406   8.143 -0.8514  0.0472 -2.1419
47346SOL    HW248900   9.373   1.257   8.167  0.1374 -0.0414 -3.1039
47347SOL     OW48901   8.739   2.153   1.496  0.1903  0.4737  0.8051
47347SOL    HW148902   8.822   2.195   1.521  1.4443 -1.1501 -0.3547
47347SOL    HW248903   8.695   2.217   1.441  1.9258  0.4334 -0.7237
47348SOL     OW48904   3.522   5.894   8.364  0.1657  0.1779  0.5582
47348SOL    HW148905   3.502   5.906   8.457 -0.8983 -0.6588  0.4637
47348SOL    HW248906   3.596   5.833   8.363  1.2474  1.4611  0.8772
47349SOL     OW48907   3.233   7.818  12.422  0.1629  0.4718 -0.7727
47349SOL    HW148908   3.328   7.819  12.416  0.1152 -0.6522 -2.2738
47349SOL    HW248909   3.208   7.910  12.421  1.2347  0.7801 -0.1501
47350SOL     OW48910   5.009   8.932   1.743 -0.2088  0.6208  0.0058
47350SOL    HW148911   4.964   8.886   1.814 -0.2447 -1.1705 -1.1191
47350SOL    HW248912   4.944   8.937   1.673  0.7891 -0.5648 -1.0526
47351SOL     OW48913   7.004   5.595  11.281  0.2229  0.3657  0.1748
47351SOL    HW148914   6.968   5.514  11.247  0.3975  0.5948 -0.5776
47351SOL    HW248915   7.027   5.575  11.372  0.0403 -0.3494  0.0689
47352SOL     OW48916   3.183   9.084   2.537 -0.1710  0.2831  0.5570
47352SOL    HW148917   3.166   9.043   2.622  0.3875 -0.1936  0.4399
47352SOL    HW248918   3.149   9.021   2.474  0.1697  0.2608  0.3967
47353SOL     OW48919  11.947  10.432   4.485 -0.4300 -0.3161 -0.1178
47353SOL    HW148920  11.884  10.366   4.457  0.0208 -0.7443 -0.1318
47353SOL    HW248921  11.993  10.457   4.405  1.2577 -1.9604  0.2628
47354SOL     OW48922   9.507   3.551  10.128  0.2775 -0.6989 -0.4687
47354SOL    HW148923   9.498   3.605  10.207  0.4199  0.1101 -0.9902
47354SOL    HW248924   9.418   3.521  10.110  0.4929 -2.2727  0.9288
47355SOL     OW48925   6.192   9.568   7.668 -0.5503 -0.7148  0.3558
47355SOL    HW148926   6.169   9.641   7.724  1.8142  1.0095 -0.7397
47355SOL    HW248927   6.144   9.584   7.586  0.3514 -0.0591 -0.0617
47356SOL     OW48928   3.976  11.275   4.623  0.8063  0.2688  0.1699
47356SOL    HW148929   4.054  11.271   4.567  0.6376 -1.0168  0.0094
47356SOL    HW248930   3.904  11.251   4.566  0.3325  1.0073  0.4353
47357SOL     OW48931   8.300   7.534   6.707 -0.3647 -0.0097  0.1201
47357SOL    HW148932   8.314   7.449   6.749  0.0461 -0.1783 -0.3512
47357SOL    HW248933   8.205   7.549   6.713 -0.5313 -0.8114 -0.3730
47358SOL     OW48934   7.784   1.508   1.169 -0.8307 -0.4435  0.2333
47358SOL    HW148935   7.871   1.548   1.179 -1.0489  0.6644 -1.7273
47358SOL    HW248936   7.725   1.567   1.214 -0.9366  0.6112 -1.2207
47359SOL     OW48937   6.067   4.998   2.645  0.1179  0.5851 -0.3341
47359SOL    HW148938   6.050   5.071   2.705  0.4366  0.0618  0.4068
47359SOL    HW248939   5.984   4.985   2.599 -0.2050  0.8499  0.1623
47360SOL     OW48940   0.625   7.971   0.238 -0.2478  0.7531  0.0476
47360SOL    HW148941   0.674   7.920   0.302 -1.0494  0.4323  0.4222
47360SOL    HW248942   0.689   8.031   0.201  0.8346 -0.8092 -0.7280
47361SOL     OW48943   4.175   6.240   5.216 -0.2856 -0.3409 -0.3558
47361SOL    HW148944   4.271   6.239   5.212 -0.2021  0.3471  0.9189
47361SOL    HW248945   4.147   6.236   5.125  0.9451 -1.2377 -0.7250
47362SOL     OW48946   6.027   9.651   2.209 -0.1014 -0.7098  0.5066
47362SOL    HW148947   6.016   9.562   2.178 -1.2821 -0.9418  1.5098
47362SOL    HW248948   6.061   9.641   2.298  5.1156 -0.0608 -1.0860
47363SOL     OW48949   7.268   5.249   8.836 -0.0380 -0.3943  0.5436
47363SOL    HW148950   7.362   5.229   8.831  0.0638  0.2435 -0.7161
47363SOL    HW248951   7.264   5.335   8.876 -0.0887 -0.4757  0.7115
47364SOL     OW48952   0.437   3.548   7.368 -0.1052 -0.4114 -0.1901
47364SOL    HW148953   0.476   3.579   7.286  0.8070 -2.5406 -0.6118
47364SOL    HW248954   0.371   3.485   7.341  1.8749 -3.0099  0.6891
47365SOL     OW48955  11.261   4.280   1.181  0.5116 -0.4738  0.2803
47365SOL    HW148956  11.251   4.197   1.134 -2.9303  1.3872 -2.8606
47365SOL    HW248957  11.329   4.327   1.134  2.3720 -1.3237  1.9817
47366SOL     OW48958   4.475  11.708  10.837 -0.2126  0.1319 -0.6014
47366SOL    HW148959   4.563  11.735  10.863  0.8184 -2.1903 -1.4080
47366SOL    HW248960   4.417  11.758  10.894  1.6511  1.1311  0.5161
47367SOL     OW48961   5.260   5.199  10.220  0.4693 -0.2907  0.2524
47367SOL    HW148962   5.257   5.195  10.316 -0.1307  0.4969  0.2834
47367SOL    HW248963   5.196   5.267  10.197  1.1132  0.0248 -0.6701
47368SOL     OW48964  12.464   3.349  11.221  0.3056 -0.0274 -0.1270
47368SOL    HW148965  12.488   3.439  11.243 -1.1570  0.4763 -0.4466
47368SOL    HW248966  12.514   3.329  11.141  0.0511  0.7952 -0.5036
47369SOL     OW48967   1.020  10.229   7.695 -0.6934 -0.4149  0.2097
47369SOL    HW148968   1.037  10.303   7.754 -1.6732  0.2307 -0.2912
47369SOL    HW248969   1.067  10.251   7.615  0.6774 -1.3147  0.7295
47370SOL     OW48970   0.016   3.642   9.266 -0.4095  0.8232 -0.5738
47370SOL    HW148971   0.000   3.677   9.354 -2.0069  0.8889 -0.8625
47370SOL    HW248972   0.061   3.713   9.220  1.6317  0.3155  0.5375
47371SOL     OW48973   8.482   8.971   8.677 -0.1292  0.5487 -0.3612
47371SOL    HW148974   8.455   8.991   8.587  0.0663 -1.7743 -0.9921
47371SOL    HW248975   8.400   8.954   8.723 -0.1042 -1.2250 -0.9097
47372SOL     OW48976   1.534   8.333   8.264  0.1701  0.2609 -0.1012
47372SOL    HW148977   1.572   8.312   8.350 -0.7646  0.5016  0.3881
47372SOL    HW248978   1.474   8.260   8.246 -0.8377  0.9885  0.2120
47373SOL     OW48979   5.386   4.119   1.661  0.0032  0.4085  0.5290
47373SOL    HW148980   5.327   4.185   1.625  0.1135  1.4186  2.1042
47373SOL    HW248981   5.329   4.047   1.687 -0.7457  1.7460  2.8832
47374SOL     OW48982  10.424   8.176   9.956  0.2910  0.0639 -0.8861
47374SOL    HW148983  10.484   8.186  10.029 -0.1330 -0.7041 -0.4158
47374SOL    HW248984  10.379   8.260   9.949 -1.6767 -0.6825  1.5700
47375SOL     OW48985  11.444   5.205   8.918 -0.3783  0.3108 -0.3975
47375SOL    HW148986  11.459   5.253   8.999  0.9508  0.0650 -0.4879
47375SOL    HW248987  11.448   5.113   8.944 -2.4587  0.1993 -0.3081
47376SOL     OW48988   4.005  11.213   1.218  0.0503 -0.7978 -0.0487
47376SOL    HW148989   3.940  11.179   1.280 -1.7786  0.0315 -1.4267
47376SOL    HW248990   4.087  11.211   1.267 -1.0616 -1.5080  1.9122
47377SOL     OW48991   0.217   3.894   6.208 -0.0197  0.5814  0.3733
47377SOL    HW148992   0.159   3.875   6.134  0.5862  0.2443 -0.0228
47377SOL    HW248993   0.174   3.853   6.283 -0.4556  0.6162  0.1450
47378SOL     OW48994   1.866   6.140   0.661 -0.1134  0.5703  0.1346
47378SOL    HW148995   1.790   6.189   0.693  1.4554  1.7371  2.3965
47378SOL    HW248996   1.934   6.159   0.725  1.7537 -1.3997 -1.1535
47379SOL     OW48997   5.710   1.589   4.480 -0.4224 -0.2017 -0.2944
47379SOL    HW148998   5.788   1.636   4.450  0.2168 -0.6203  0.6796
47379SOL    HW248999   5.684   1.536   4.404 -0.1769  0.4586 -0.8526
47380SOL     OW49000  10.304   2.249   6.985  0.1171  0.2848 -0.0165
47380SOL    HW149001  10.385   2.198   6.979  0.0760 -0.0964  2.0199
47380SOL    HW249002  10.333   2.340   6.987  0.3375  0.2631 -1.3213
47381SOL     OW49003  10.120   0.660   2.014  0.0106 -0.0424  0.0341
47381SOL    HW149004  10.103   0.735   2.072 -1.4703  0.1713 -0.6129
47381SOL    HW249005  10.092   0.584   2.064 -2.0912  0.2180 -0.6441
47382SOL     OW49006   6.120  12.158   1.083  0.1596 -0.1715 -0.1148
47382SOL    HW149007   6.064  12.084   1.060  2.2323 -1.4980 -1.2090
47382SOL    HW249008   6.209  12.125   1.072  1.1950  2.7211 -1.3981
47383SOL     OW49009   8.431  11.351  11.510  0.2666  0.0668 -0.2014
47383SOL    HW149010   8.380  11.327  11.587 -1.8666 -0.1096 -1.5860
47383SOL    HW249011   8.496  11.414  11.542  0.0647 -0.7286  1.8722
47384SOL     OW49012   8.548  11.172   1.198 -0.2974  0.1845 -0.2077
47384SOL    HW149013   8.602  11.249   1.179 -1.2254  1.1891  0.9798
47384SOL    HW249014   8.594  11.127   1.268 -0.1640  0.1259 -0.3345
47385SOL     OW49015   3.692  11.414   7.726 -0.8760  0.3287  0.4087
47385SOL    HW149016   3.700  11.397   7.819 -0.6031  0.7620  0.4630
47385SOL    HW249017   3.642  11.339   7.692 -1.6037  0.5274  1.0167
47386SOL     OW49018   6.098  11.517   5.892  0.0241 -0.3208 -0.4943
47386SOL    HW149019   6.004  11.524   5.876  0.3127  0.1356 -2.1580
47386SOL    HW249020   6.138  11.523   5.805  1.5020 -2.3688 -0.0486
47387SOL     OW49021   2.023   8.119  11.358  0.3404  0.0374  0.2365
47387SOL    HW149022   1.992   8.061  11.288 -2.1194  1.1757  0.2758
47387SOL    HW249023   1.959   8.107  11.429  0.4277  1.8979  0.6748
47388SOL     OW49024   6.890   6.798   6.321  0.1581 -0.4342 -0.3761
47388SOL    HW149025   6.913   6.886   6.290 -3.1137  1.1969  1.3555
47388SOL    HW249026   6.858   6.811   6.410 -2.3678 -3.0292 -0.7492
47389SOL     OW49027   1.016   4.129   9.951 -0.2959 -0.2539 -0.0869
47389SOL    HW149028   1.010   4.119  10.046 -0.6379  0.1586 -0.0582
47389SOL    HW249029   1.100   4.173   9.937 -1.1388  1.5356  0.1986
47390SOL     OW49030   1.171   0.209   8.652 -0.1510  0.3534  0.4714
47390SOL    HW149031   1.234   0.146   8.688 -1.3455 -0.2508  1.6078
47390SOL    HW249032   1.207   0.234   8.567  0.7422 -1.2924  0.3274
47391SOL     OW49033  10.436   2.303  11.943  0.2199  0.4032  0.9154
47391SOL    HW149034  10.358   2.325  11.893  1.5219  3.0672 -0.1538
47391SOL    HW249035  10.427   2.210  11.963 -1.4858 -0.2728 -2.3282
47392SOL     OW49036   7.865   1.243   8.035  0.0129  0.0839 -0.0378
47392SOL    HW149037   7.793   1.222   8.094 -0.6956 -1.4868 -1.3776
47392SOL    HW249038   7.827   1.307   7.974  1.0809  2.6390  1.7818
47393SOL     OW49039   7.499   5.206   6.214  0.1476  0.3095 -0.1593
47393SOL    HW149040   7.463   5.164   6.292  0.3006  1.8372  0.7689
47393SOL    HW249041   7.446   5.171   6.142  0.5294 -1.7391  0.4930
47394SOL     OW49042  11.459   9.019   9.799  0.6031  0.3258  0.7646
47394SOL    HW149043  11.511   8.941   9.782  2.1882  1.5370 -0.3095
47394SOL    HW249044  11.520   9.080   9.840 -0.4188  1.2383  0.9867
47395SOL     OW49045   6.434   8.700   3.074  0.8159 -0.6004 -0.0126
47395SOL    HW149046   6.528   8.699   3.059  0.9578 -3.0924  0.5171
47395SOL    HW249047   6.396   8.664   2.993  0.1393  1.7637 -0.8199
47396SOL     OW49048   8.970   2.776   4.539 -0.2118 -0.5055  0.2980
47396SOL    HW149049   9.051   2.820   4.565 -0.8944  0.0143  1.6972
47396SOL    HW249050   8.977   2.688   4.576 -1.3221  0.3328  2.7702
47397SOL     OW49051  10.736   2.762  12.392  0.0199 -0.2910 -0.1165
47397SOL    HW149052  10.819   2.803  12.369 -0.0463  0.6978  1.2839
47397SOL    HW249053  10.751   2.668  12.378  1.7173 -0.2351  1.0649
47398SOL     OW49054   8.016   6.448   8.167  0.2327 -0.1071  0.1649
47398SOL    HW149055   8.026   6.354   8.154  0.4726 -0.0190 -0.2865
47398SOL    HW249056   8.036   6.461   8.260 -1.5264 -0.7404  0.6899
47399SOL     OW49057   0.204   1.221   4.054 -0.1457  0.1298  0.0137
47399SOL    HW149058   0.171   1.185   3.971 -0.4092 -1.5693  0.8173
47399SOL    HW249059   0.144   1.188   4.120  1.3692 -0.4806  1.1475
47400SOL     OW49060   8.083   5.556  12.380  0.1281 -0.0195 -0.3888
47400SOL    HW149061   8.125   5.474  12.406  2.0430  0.3823 -1.9571
47400SOL    HW249062   8.155   5.614  12.356 -1.0509  2.7794  2.1665
47401SOL     OW49063  11.270   0.387   6.382  0.4490 -0.2021 -0.3557
47401SOL    HW149064  11.206   0.316   6.383 -0.0186  0.2182 -0.0331
47401SOL    HW249065  11.350   0.347   6.416 -0.0594 -0.3540  0.6869
47402SOL     OW49066   3.226  11.953   8.461  0.5587  0.5740 -0.2946
47402SOL    HW149067   3.162  11.975   8.394 -1.0814  0.3038  1.1079
47402SOL    HW249068   3.255  11.865   8.438  1.0255  0.9856 -1.3615
47403SOL     OW49069  12.031  12.234   0.830  0.5919 -0.2088 -0.3275
47403SOL    HW149070  12.019  12.309   0.888 -0.0970  1.6020 -2.6656
47403SOL    HW249071  11.954  12.179   0.845  0.1536  0.5025  0.0888
47404SOL     OW49072  10.345  11.635  10.657  0.2752 -0.5294  0.2365
47404SOL    HW149073  10.374  11.683  10.579 -0.4237 -0.2894  0.1118
47404SOL    HW249074  10.329  11.546  10.627  1.1588 -0.7387  0.3722
47405SOL     OW49075   4.637   9.984   2.265  0.3940 -0.0634 -0.3670
47405SOL    HW149076   4.571   9.965   2.197  0.2932 -1.2634  0.0443
47405SOL    HW249077   4.720   9.961   2.224  0.1739 -2.9376  0.5753
47406SOL     OW49078   8.463   6.182   6.375 -0.3939  0.2486  0.1189
47406SOL    HW149079   8.504   6.267   6.392  1.7084 -0.2467 -1.9956
47406SOL    HW249080   8.420   6.193   6.290 -0.3554 -0.7272 -0.0371
47407SOL     OW49081   2.718  10.327   1.903 -0.0768 -0.4511  0.2285
47407SOL    HW149082   2.771  10.279   1.839 -0.7536 -1.5258  0.4673
47407SOL    HW249083   2.766  10.409   1.916  0.9808 -0.9575 -0.3436
47408SOL     OW49084  12.379   7.073   8.822  0.5550  0.0504 -0.2715
47408SOL    HW149085  12.361   7.041   8.910  1.2269  0.0687 -0.1224
47408SOL    HW249086  12.420   6.999   8.777 -2.2008 -0.8773 -1.4408
47409SOL     OW49087   5.285   7.958   4.570  0.5788  0.1116  0.6838
47409SOL    HW149088   5.279   8.052   4.552 -0.9214  0.3601  2.2067
47409SOL    HW249089   5.338   7.923   4.499  0.1887  1.9242 -0.5641
47410SOL     OW49090   2.230  10.368  10.187  0.4047 -0.1360  0.4969
47410SOL    HW149091   2.266  10.280  10.199  1.1405  0.1208  0.2152
47410SOL    HW249092   2.139  10.353  10.160  1.2653 -0.8779 -2.2780
47411SOL     OW49093  10.708   1.289   9.236  0.3097 -0.0632  0.0154
47411SOL    HW149094  10.778   1.225   9.247 -0.5778 -1.1905 -0.6278
47411SOL    HW249095  10.662   1.261   9.157  0.7338  2.2043 -1.1154
47412SOL     OW49096   9.482   3.115  10.875 -0.6815 -0.2167 -0.3785
47412SOL    HW149097   9.573   3.129  10.902 -1.1451  1.5084  0.3935
47412SOL    HW249098   9.461   3.189  10.819 -1.8657 -0.1188  0.1576
47413SOL     OW49099   8.348  10.485  11.062 -0.6224  0.3182 -0.1145
47413SOL    HW149100   8.380  10.401  11.030 -0.4275  0.4854 -0.3605
47413SOL    HW249101   8.262  10.466  11.100  0.5861 -0.5210  2.3863
47414SOL     OW49102  10.463   6.393   6.013  0.4849  0.2305 -0.1820
47414SOL    HW149103  10.498   6.314   6.055 -0.2768 -0.1184 -0.1964
47414SOL    HW249104  10.446   6.453   6.086 -0.1704 -0.1105 -0.0522
47415SOL     OW49105   6.206   7.803   8.041 -0.1486 -0.5268 -0.1469
47415SOL    HW149106   6.185   7.805   8.134 -1.3930 -1.6875 -0.3827
47415SOL    HW249107   6.152   7.872   8.002  1.2710  0.8046  0.1143
47416SOL     OW49108   0.811  10.458   8.429  0.0816 -0.0441 -0.1298
47416SOL    HW149109   0.759  10.390   8.386 -0.3962 -0.5114  1.1278
47416SOL    HW249110   0.855  10.412   8.501  1.7808  0.4687 -0.8106
47417SOL     OW49111   5.526   4.672   7.808 -0.4039  0.1798  0.2645
47417SOL    HW149112   5.455   4.718   7.763 -1.0412 -0.0411  1.0241
47417SOL    HW249113   5.573   4.740   7.857  0.0992  0.3714 -0.4684
47418SOL     OW49114   7.697   2.656   8.249 -0.1558  0.6076  0.1454
47418SOL    HW149115   7.787   2.626   8.262 -0.8861 -1.1695  1.7109
47418SOL    HW249116   7.702   2.720   8.178  2.3930  0.9247  0.5301
47419SOL     OW49117   2.517   5.844  12.437  0.4544 -0.1392 -0.4768
47419SOL    HW149118   2.493   5.756  12.408  0.0907  0.0685 -0.8115
47419SOL    HW249119   2.508   5.841  12.532  0.5773 -0.5002 -0.4711
47420SOL     OW49120   3.901   3.738  10.842 -0.1370 -0.1215 -0.7290
47420SOL    HW149121   3.855   3.661  10.876 -2.2444  0.8198 -1.2898
47420SOL    HW249122   3.967   3.702  10.782 -0.8058 -1.4967 -0.6762
47421SOL     OW49123  11.642   7.940   4.401 -0.5790  0.5106  0.1024
47421SOL    HW149124  11.730   7.930   4.365 -0.6856 -2.3940  0.3894
47421SOL    HW249125  11.584   7.914   4.329 -1.0876  0.2940  0.5861
47422SOL     OW49126   2.932   1.584   2.556  0.1974 -0.0879  0.0273
47422SOL    HW149127   2.909   1.649   2.489  0.5429 -1.6902 -1.7534
47422SOL    HW249128   2.847   1.548   2.583  0.1455 -1.2736 -1.5620
47423SOL     OW49129   9.916   6.514   5.648  0.0489 -0.4246  0.1299
47423SOL    HW149130   9.865   6.510   5.730 -0.8232  0.2795 -0.3626
47423SOL    HW249131   9.852   6.496   5.580  0.0611  2.1689 -0.6510
47424SOL     OW49132  10.849   5.084   7.317  0.2944  0.7383  0.0634
47424SOL    HW149133  10.835   5.126   7.402  1.5273  1.5681 -0.1163
47424SOL    HW249134  10.925   5.129   7.281  1.7606 -1.7207 -0.1194
47425SOL     OW49135  10.635   2.194   1.563  0.6508 -0.1055  0.1173
47425SOL    HW149136  10.693   2.171   1.491  0.8272 -0.1234  0.2632
47425SOL    HW249137  10.692   2.195   1.640  0.1339 -1.8483  0.5588
47426SOL     OW49138   5.364  10.758   3.306  0.0195 -0.4580  0.2495
47426SOL    HW149139   5.325  10.691   3.249 -1.5377 -0.2947  1.0530
47426SOL    HW249140   5.295  10.777   3.370  1.4250 -0.0525  1.6924
47427SOL     OW49141   6.641  11.192   0.067  0.6346  0.1521  0.2069
47427SOL    HW149142   6.710  11.227   0.011  0.8102  0.4723  0.6197
47427SOL    HW249143   6.602  11.121   0.015  1.6874 -0.4561  0.2071
47428SOL     OW49144   1.035   7.492   7.893 -0.1712 -0.0965 -0.2583
47428SOL    HW149145   0.939   7.488   7.886 -0.2625  1.5281 -0.2004
47428SOL    HW249146   1.054   7.583   7.912  1.3140 -0.7045  1.4085
47429SOL     OW49147   9.309   9.123   3.996 -0.0448 -0.5490 -0.1999
47429SOL    HW149148   9.294   9.131   3.901 -0.6317  3.5601  0.0445
47429SOL    HW249149   9.221   9.124   4.034  0.2222  0.0926  0.4286
47430SOL     OW49150   1.659   7.244   8.983 -0.1767  0.3672  0.2945
47430SOL    HW149151   1.713   7.178   9.026 -1.2353 -1.4030 -0.9331
47430SOL    HW249152   1.590   7.264   9.046 -0.1265 -0.0730  0.4908
47431SOL     OW49153   0.836   8.270   5.066 -0.1637 -0.0494  0.3030
47431SOL    HW149154   0.881   8.233   4.990  2.5739  0.7108  1.4104
47431SOL    HW249155   0.899   8.261   5.138 -1.3696  2.0765  1.7508
47432SOL     OW49156   6.278   4.692   1.153 -0.4155  0.4486  0.2143
47432SOL    HW149157   6.202   4.652   1.195  1.1499 -3.2423 -0.1351
47432SOL    HW249158   6.245   4.723   1.068 -1.6283 -0.7249  0.2351
47433SOL     OW49159   8.894   2.795  10.726 -0.4627  0.3952  0.4688
47433SOL    HW149160   8.981   2.790  10.767 -1.0229 -0.7954  1.5848
47433SOL    HW249161   8.875   2.889  10.722  0.8549  0.6671  0.2516
47434SOL     OW49162  11.873   9.205   8.064 -0.0951  0.8334  0.0401
47434SOL    HW149163  11.847   9.134   8.123 -0.1252  1.8675  1.2941
47434SOL    HW249164  11.804   9.206   7.997 -0.9910  0.7492  0.9362
47435SOL     OW49165   2.803   1.975   0.698  0.3155  0.2585  0.3615
47435SOL    HW149166   2.892   1.973   0.733  0.5860 -1.2382 -0.2819
47435SOL    HW249167   2.812   1.934   0.611 -0.8355  1.0106 -0.1271
47436SOL     OW49168   7.324  11.144  10.657 -0.2039  0.5720 -0.0610
47436SOL    HW149169   7.407  11.135  10.610 -0.1477  3.3756 -0.6320
47436SOL    HW249170   7.261  11.098  10.602  1.0260 -2.4586  0.8601
47437SOL     OW49171   6.839   3.062   5.448 -0.2588 -1.3410 -0.4337
47437SOL    HW149172   6.862   2.977   5.485  1.2895 -1.2659 -1.1509
47437SOL    HW249173   6.921   3.096   5.413 -1.1566 -0.2741 -1.6107
47438SOL     OW49174  10.319   1.799  10.301  0.5207 -0.0592 -0.0422
47438SOL    HW149175  10.318   1.895  10.302 -1.0632 -0.0474 -0.0898
47438SOL    HW249176  10.255   1.774  10.368  1.2609 -1.0951  0.2944
47439SOL     OW49177  10.537   1.728   4.490 -0.3794 -0.2790 -0.1112
47439SOL    HW149178  10.570   1.647   4.450  1.6444  0.8536 -0.9276
47439SOL    HW249179  10.606   1.754   4.551 -0.0823  1.7785 -1.2363
47440SOL     OW49180   2.323   8.732   5.355 -0.5041  0.0552  0.4295
47440SOL    HW149181   2.363   8.728   5.268 -2.0239 -1.8701 -0.2447
47440SOL    HW249182   2.263   8.806   5.350  0.0736  0.5168  0.1624
47441SOL     OW49183   6.002   7.496   7.947  0.3287  0.5642 -0.3845
47441SOL    HW149184   5.928   7.487   7.887  0.4182  0.2617 -0.4536
47441SOL    HW249185   5.975   7.564   8.008 -0.0864  0.3204 -0.2895
47442SOL     OW49186   0.102   2.081   9.977  0.8934  0.1960  1.0229
47442SOL    HW149187   0.156   2.002   9.971  0.9966  0.3216  0.2115
47442SOL    HW249188   0.061   2.075  10.064  2.7438  0.4453  1.9666
47443SOL     OW49189   2.117  11.751  10.034  0.0497 -0.6969 -0.4878
47443SOL    HW149190   2.064  11.793  10.102  1.1832 -0.4591  0.2787
47443SOL    HW249191   2.113  11.657  10.055  0.4770 -0.6137 -0.0430
47444SOL     OW49192  11.450  11.008   9.691 -0.1674  0.1000 -0.0940
47444SOL    HW149193  11.491  11.094   9.684  1.7971 -0.8116 -0.4720
47444SOL    HW249194  11.452  10.987   9.785  0.6473 -0.1000 -0.1476
47445SOL     OW49195   2.217  10.379   0.173 -0.0916 -0.2873 -0.6164
47445SOL    HW149196   2.206  10.290   0.208 -0.9360  0.0602  0.0317
47445SOL    HW249197   2.181  10.375   0.084 -1.0842 -0.3490 -0.2211
47446SOL     OW49198   5.491   6.203   3.931 -0.1641 -0.4013  0.2779
47446SOL    HW149199   5.443   6.243   3.858 -2.4060 -0.8860  1.3961
47446SOL    HW249200   5.429   6.140   3.968  1.7666 -1.8704  1.1599
47447SOL     OW49201   2.347  12.359  11.724  0.6580 -0.0110  0.1026
47447SOL    HW149202   2.372  12.448  11.698 -0.8216  0.2228 -0.6511
47447SOL    HW249203   2.417  12.303  11.692  0.2797  0.5950 -1.9439
47448SOL     OW49204   2.583   8.429  11.875  0.5802 -0.0841  0.2934
47448SOL    HW149205   2.561   8.437  11.782  0.3252 -0.0460  0.3554
47448SOL    HW249206   2.613   8.339  11.885  0.1674 -0.2279  0.2620
47449SOL     OW49207  12.196  10.329   6.770 -0.2270 -0.0954 -0.0500
47449SOL    HW149208  12.261  10.398   6.756 -2.4879  2.7382  2.1453
47449SOL    HW249209  12.225  10.286   6.851 -0.1858  0.0246  0.0001
47450SOL     OW49210   7.834   8.716   6.676 -0.2126  0.2772 -0.3584
47450SOL    HW149211   7.899   8.717   6.606 -0.7813  2.6782 -0.9576
47450SOL    HW249212   7.884   8.693   6.754  0.4908 -2.1005 -1.4423
47451SOL     OW49213   2.517   5.878   4.398  0.2637  0.5366  0.2866
47451SOL    HW149214   2.605   5.885   4.436  0.2585 -0.7388  0.5733
47451SOL    HW249215   2.518   5.940   4.325  1.9104 -0.4835 -0.6249
47452SOL     OW49216  10.029   0.028  11.320 -0.1769  0.6468  0.0424
47452SOL    HW149217  10.000   0.113  11.353 -0.3309 -0.0581  1.8418
47452SOL    HW249218   9.951  -0.027  11.322 -0.3130  0.6841 -2.0729
47453SOL     OW49219   7.297   9.336   1.132  0.0348  0.7629 -0.0319
47453SOL    HW149220   7.260   9.249   1.143  1.4217  0.1840  0.2775
47453SOL    HW249221   7.222   9.395   1.134 -0.8460 -0.3514  0.6275
47454SOL     OW49222   3.910   0.811   3.921  0.4759  0.3360  0.4397
47454SOL    HW149223   3.987   0.848   3.964 -0.4007  2.6882  0.1186
47454SOL    HW249224   3.852   0.786   3.993  1.4692 -1.4957  0.6860
47455SOL     OW49225   8.374  10.530   0.706 -0.5466  0.1195 -0.3584
47455SOL    HW149226   8.308  10.460   0.702 -0.9153  0.4325  0.1711
47455SOL    HW249227   8.420  10.524   0.623  0.2252 -1.5298  0.1534
47456SOL     OW49228  11.426   3.795   9.273 -0.1302  0.4697 -0.5312
47456SOL    HW149229  11.377   3.866   9.315  0.5407  0.9367 -0.5044
47456SOL    HW249230  11.447   3.829   9.186 -1.7855 -0.6197 -1.3915
47457SOL     OW49231   0.478   5.666   7.738  0.3258 -0.2487  0.4318
47457SOL    HW149232   0.491   5.755   7.706  2.1123 -0.5585  0.2047
47457SOL    HW249233   0.388   5.645   7.714  0.3412  0.9616 -0.8016
47458SOL     OW49234   3.605   2.664   3.995 -0.3487 -0.0968  0.1485
47458SOL    HW149235   3.593   2.758   3.982  0.9409  0.2509  1.2658
47458SOL    HW249236   3.573   2.624   3.914 -0.8213  1.3063 -0.3796
47459SOL     OW49237   8.436   7.225   0.112 -0.5031  0.0917 -0.3570
47459SOL    HW149238   8.428   7.320   0.100  0.4881  0.0854 -1.1109
47459SOL    HW249239   8.422   7.189   0.025  0.1418 -0.3881 -0.2623
47460SOL     OW49240   9.204   5.329   0.174 -0.3093  0.5063  0.2880
47460SOL    HW149241   9.275   5.375   0.218  0.8223 -1.7063  0.8996
47460SOL    HW249242   9.155   5.287   0.244 -1.3311  0.7861 -0.2475
47461SOL     OW49243   3.253   5.035   0.670 -0.1961 -0.5917  0.3887
47461SOL    HW149244   3.232   4.954   0.716 -0.3000  0.2983  1.9765
47461SOL    HW249245   3.219   5.022   0.581 -1.2342 -1.8264  0.9380
47462SOL     OW49246   8.414  10.837   4.419 -0.0576 -0.4988 -0.7527
47462SOL    HW149247   8.427  10.907   4.483 -2.8477 -1.6458  1.2589
47462SOL    HW249248   8.502  10.819   4.385  1.3366  1.2211  1.6332
47463SOL     OW49249   8.551   2.155  11.084  0.2730  0.3848 -0.1512
47463SOL    HW149250   8.486   2.185  11.148  0.6775 -1.9044  1.4644
47463SOL    HW249251   8.633   2.195  11.112  0.2173  0.3781  0.0219
47464SOL     OW49252   6.914   7.695   4.880 -0.1015  0.4388  0.0182
47464SOL    HW149253   6.909   7.728   4.790 -0.5878 -0.0089 -0.1218
47464SOL    HW249254   6.918   7.600   4.871 -1.1038  0.3434  0.4981
47465SOL     OW49255   8.058   0.274   4.309 -0.4032  1.2166  0.1225
47465SOL    HW149256   8.004   0.197   4.293 -0.4687  1.3949 -0.5392
47465SOL    HW249257   8.061   0.282   4.405  0.1264  0.0341  0.2164
47466SOL     OW49258   2.315   8.587   2.822  0.2657 -0.5212 -0.0775
47466SOL    HW149259   2.322   8.668   2.771 -2.0157  0.7780  1.5135
47466SOL    HW249260   2.406   8.564   2.842  1.0176  1.0733 -1.4046
47467SOL     OW49261   0.331   9.257   7.210 -0.3744  0.4444 -0.1069
47467SOL    HW149262   0.377   9.214   7.138  0.4349 -1.3600  1.3893
47467SOL    HW249263   0.251   9.290   7.172  0.0680 -0.3857 -1.8478
47468SOL     OW49264   6.476  10.597  11.009  0.2682 -0.4147  0.1879
47468SOL    HW149265   6.471  10.627  11.100  1.8286 -0.9668  0.4904
47468SOL    HW249266   6.452  10.674  10.958  1.6756  0.6392  1.0203
47469SOL     OW49267  10.238  12.385   3.249  0.3670 -0.0026 -0.2673
47469SOL    HW149268  10.177  12.321   3.285 -0.5328  0.6338 -0.6126
47469SOL    HW249269  10.313  12.383   3.308  0.2174 -1.1344 -0.0898
47470SOL     OW49270   5.088   3.952   0.596 -0.1634 -0.1696 -0.9037
47470SOL    HW149271   5.149   3.942   0.669 -0.4470  2.2099 -0.2825
47470SOL    HW249272   5.006   3.914   0.628  0.3777 -1.4202 -0.9507
47471SOL     OW49273   9.220  10.324   2.322  0.4232 -0.5184  0.4541
47471SOL    HW149274   9.186  10.238   2.347 -1.0201  0.0285  0.4089
47471SOL    HW249275   9.188  10.384   2.389  0.1610  0.2328 -0.3205
47472SOL     OW49276   7.515   3.104  10.610 -0.3518 -0.2763  0.0983
47472SOL    HW149277   7.609   3.102  10.592 -0.0556 -0.4001  1.5052
47472SOL    HW249278   7.489   3.195  10.594 -0.6314 -0.7903 -3.0343
47473SOL     OW49279  10.783   7.500   8.298  0.6830 -0.3936 -0.1128
47473SOL    HW149280  10.875   7.485   8.275  0.4996 -1.6809 -0.0707
47473SOL    HW249281  10.778   7.479   8.391  0.5815  0.8208  0.1619
47474SOL     OW49282   0.176  10.283   2.983  0.1539  0.3299  0.2478
47474SOL    HW149283   0.142  10.234   2.909  0.2031 -0.6020  0.8281
47474SOL    HW249284   0.249  10.334   2.947  0.3557 -0.3278 -0.2868
47475SOL     OW49285   1.821   5.183  12.069 -0.1893 -0.2452  0.0633
47475SOL    HW149286   1.871   5.259  12.099  0.3386 -0.3642 -0.4842
47475SOL    HW249287   1.782   5.147  12.149 -1.0720  1.0256  0.2365
47476SOL     OW49288  10.690   1.162   1.581 -0.3399 -0.2875 -0.0983
47476SOL    HW149289  10.752   1.137   1.651 -1.3507  0.3485  1.0653
47476SOL    HW249290  10.708   1.255   1.566 -1.5557  0.1290  0.8687
47477SOL     OW49291   3.576   0.476   9.303 -0.5541 -0.5806  0.2298
47477SOL    HW149292   3.601   0.494   9.393 -0.9128  1.3857 -0.0374
47477SOL    HW249293   3.645   0.517   9.250 -1.0916 -0.4889 -0.4110
47478SOL     OW49294   3.591   9.852  11.725 -0.2597  0.0788 -0.1159
47478SOL    HW149295   3.651   9.840  11.799 -1.1734 -0.6056  0.5316
47478SOL    HW249296   3.561   9.764  11.704  0.8566  0.1051 -2.0820
47479SOL     OW49297   3.906   5.146   4.943  0.0901  0.3655 -0.4892
47479SOL    HW149298   3.996   5.145   4.976  0.0914  0.9384 -0.4759
47479SOL    HW249299   3.915   5.177   4.853  0.0705 -1.0280 -1.0024
47480SOL     OW49300   0.425   8.830   5.259 -0.3137  0.2706 -0.2424
47480SOL    HW149301   0.460   8.919   5.258  0.1115  0.2879  3.2926
47480SOL    HW249302   0.364   8.827   5.185  0.9402  2.9124 -1.4993
47481SOL     OW49303   9.328   0.070   4.054 -0.1747 -0.7221  0.2094
47481SOL    HW149304   9.350   0.155   4.091  0.6562 -0.6484 -0.4287
47481SOL    HW249305   9.277   0.090   3.976 -1.5213 -0.8663  1.0179
47482SOL     OW49306   3.896  11.637   2.256 -0.5839  0.0264  0.5286
47482SOL    HW149307   3.962  11.691   2.299 -1.1185  1.9000 -0.8585
47482SOL    HW249308   3.865  11.578   2.324  0.5474  0.9724  1.9305
47483SOL     OW49309   9.693   3.946   9.350 -0.2496  0.1145  0.1011
47483SOL    HW149310   9.688   3.930   9.256 -2.9853  0.0628  0.1890
47483SOL    HW249311   9.664   4.036   9.361  0.8944  0.4166  0.8626
47484SOL     OW49312   4.699   2.568  10.482 -0.5166 -0.0768 -0.3640
47484SOL    HW149313   4.732   2.482  10.456 -1.9186 -0.6368 -0.3872
47484SOL    HW249314   4.695   2.564  10.577  0.6849  0.4625 -0.2817
47485SOL     OW49315   3.302   9.229   6.494  0.1106  0.0309 -0.5728
47485SOL    HW149316   3.326   9.277   6.574  3.3428 -0.5053 -1.0871
47485SOL    HW249317   3.322   9.290   6.423 -1.5756  0.0517 -1.0748
47486SOL     OW49318  11.291   2.902   1.791 -0.4613  0.0331  0.4861
47486SOL    HW149319  11.276   2.809   1.780  0.0777 -0.2638  1.9742
47486SOL    HW249320  11.288   2.938   1.702  1.4098 -1.7209 -0.3576
47487SOL     OW49321   0.609   2.343   4.490 -0.9203 -0.6748 -0.1115
47487SOL    HW149322   0.534   2.396   4.516  0.9647  1.1222  2.1485
47487SOL    HW249323   0.593   2.257   4.530 -1.4161 -0.0666  1.0467
47488SOL     OW49324  12.184   4.679   7.611  0.4448  0.2486  0.2452
47488SOL    HW149325  12.163   4.747   7.547 -0.9861  0.1241  0.5416
47488SOL    HW249326  12.207   4.727   7.691  0.9761  0.3889  0.0125
47489SOL     OW49327   4.654   8.945   7.287  0.1711  0.4004 -0.3839
47489SOL    HW149328   4.696   8.859   7.300 -1.5260 -0.7083 -1.8155
47489SOL    HW249329   4.585   8.948   7.353 -0.3040  0.2726 -0.8631
47490SOL     OW49330   6.434   9.330   1.272  0.5357 -0.4336  0.3286
47490SOL    HW149331   6.422   9.391   1.344  0.1749  0.5908 -0.5792
47490SOL    HW249332   6.359   9.345   1.214  1.0582 -0.9014 -0.4967
47491SOL     OW49333   9.390   4.525   8.264 -0.0951 -0.5675  0.0517
47491SOL    HW149334   9.405   4.433   8.239 -1.9665 -0.7104 -0.7002
47491SOL    HW249335   9.339   4.519   8.345 -0.5584 -0.2057 -0.2115
47492SOL     OW49336   0.106   2.394   0.734  0.5152 -0.1752  0.0833
47492SOL    HW149337   0.083   2.484   0.756  1.0322 -0.2530  1.0049
47492SOL    HW249338   0.078   2.383   0.643 -0.1681  0.6963  0.1808
47493SOL     OW49339   2.749   8.313   0.356 -0.3960  0.2104  0.0309
47493SOL    HW149340   2.789   8.360   0.428  2.0370 -1.3026 -0.2183
47493SOL    HW249341   2.765   8.220   0.376  0.1199 -0.2646 -2.2578
47494SOL     OW49342  11.482  11.228   1.434  0.2312  0.5054  0.3493
47494SOL    HW149343  11.543  11.155   1.433  0.3006  0.5534  0.7319
47494SOL    HW249344  11.502  11.277   1.354 -0.2941 -0.2720 -0.2612
47495SOL     OW49345   8.990   5.161   6.112 -0.0905 -0.1406  0.3104
47495SOL    HW149346   8.946   5.076   6.111  0.2146 -0.3347  1.8376
47495SOL    HW249347   9.063   5.149   6.172  1.2984  0.5695 -1.1633
47496SOL     OW49348   9.857  10.144   7.979  0.0187  0.0526  0.2858
47496SOL    HW149349   9.780  10.124   7.925 -0.1217  0.1508  0.4474
47496SOL    HW249350   9.831  10.222   8.028 -0.3649 -0.8132  1.5060
47497SOL     OW49351   3.694  10.652  11.672  0.9001 -0.0585 -0.3612
47497SOL    HW149352   3.779  10.690  11.692  0.5980  0.9959 -1.0301
47497SOL    HW249353   3.701  10.625  11.580 -0.2316  2.2507 -1.2112
47498SOL     OW49354   2.521   1.392  11.674  0.3568  0.4392  0.0420
47498SOL    HW149355   2.535   1.297  11.671  1.1406  0.5419  0.2326
47498SOL    HW249356   2.573   1.422  11.748  1.0159  1.1589 -0.6857
47499SOL     OW49357   4.317   5.115   6.098  0.2709  0.0316  0.2734
47499SOL    HW149358   4.324   5.166   6.179  1.8921 -3.1717  2.4014
47499SOL    HW249359   4.395   5.059   6.099 -0.0609 -0.6871 -3.1757
47500SOL     OW49360   7.308  10.214   4.239  0.0243  0.5362 -0.2535
47500SOL    HW149361   7.289  10.188   4.149 -0.6720 -2.5541  0.6687
47500SOL    HW249362   7.230  10.264   4.267  1.0717  3.2964 -1.8518
47501SOL     OW49363   4.157   5.772   5.124  0.9198 -0.1399 -0.1055
47501SOL    HW149364   4.147   5.793   5.031 -2.1316  2.0882  0.5734
47501SOL    HW249365   4.225   5.833   5.154  1.3480 -0.3112 -0.7012
47502SOL     OW49366   3.854   5.031  10.825 -0.0873  0.1247 -0.7441
47502SOL    HW149367   3.816   5.119  10.832  1.4297  1.0207 -2.9160
47502SOL    HW249368   3.909   5.022  10.902 -1.0222  0.6588  0.0066
47503SOL     OW49369   7.680   6.046   9.890  0.6283  0.3491 -0.0979
47503SOL    HW149370   7.668   6.140   9.905 -0.5789  0.2018 -0.0529
47503SOL    HW249371   7.656   6.005   9.974  0.1143 -0.0616 -0.4408
47504SOL     OW49372   6.179   7.558   2.008  0.3077  0.1814  0.4020
47504SOL    HW149373   6.084   7.561   2.007  0.2217 -1.7548 -0.3528
47504SOL    HW249374   6.202   7.539   2.099  0.1328  2.6617  1.0545
47505SOL     OW49375   8.324   2.429  11.069  0.6400 -0.1708 -0.3629
47505SOL    HW149376   8.264   2.495  11.105  0.6024  0.4638 -1.5589
47505SOL    HW249377   8.405   2.440  11.119  0.3825  0.2409 -0.0307
47506SOL     OW49378  12.278   8.363   0.642 -0.0256 -0.3497 -0.3143
47506SOL    HW149379  12.245   8.273   0.638 -0.5016 -0.1413 -2.1192
47506SOL    HW249380  12.244   8.398   0.724 -2.1736 -0.9642 -0.8846
47507SOL     OW49381   2.853   6.360   3.374  0.3313 -0.1750 -0.1933
47507SOL    HW149382   2.907   6.282   3.387  0.4596 -0.1157 -0.3613
47507SOL    HW249383   2.916   6.432   3.370  0.1655  0.0218  0.6183
47508SOL     OW49384  12.222   8.130   5.319  0.0518 -0.4837 -0.0039
47508SOL    HW149385  12.233   8.158   5.410 -0.9679  1.0333 -0.3071
47508SOL    HW249386  12.128   8.128   5.306  0.1917  0.0768 -1.2417
47509SOL     OW49387   3.437   7.756   8.851 -0.0532 -0.2252  0.4025
47509SOL    HW149388   3.465   7.720   8.767 -0.2074  1.9705 -0.6443
47509SOL    HW249389   3.344   7.735   8.856  0.0489 -0.7293  0.2303
47510SOL     OW49390   9.183  11.749   2.238 -0.5935  0.5586  0.2665
47510SOL    HW149391   9.250  11.805   2.276 -0.1423 -0.5456  1.1496
47510SOL    HW249392   9.114  11.745   2.304  0.4632 -1.8567  1.3682
47511SOL     OW49393   9.398   5.824   1.489  0.3194  0.0850  0.0190
47511SOL    HW149394   9.304   5.821   1.468  0.5975 -1.7829 -1.1437
47511SOL    HW249395   9.435   5.748   1.445  2.4198  0.8237  0.4084
47512SOL     OW49396   4.434   3.430   0.857  0.0090 -0.3018  0.5283
47512SOL    HW149397   4.463   3.392   0.773 -0.8699  0.8228 -0.3201
47512SOL    HW249398   4.497   3.500   0.873 -0.5643  0.3177  0.1284
47513SOL     OW49399   2.352   9.777   6.668  0.2985 -0.3369  0.7168
47513SOL    HW149400   2.434   9.793   6.623  0.6246 -0.0414  1.4046
47513SOL    HW249401   2.288   9.831   6.621 -0.0622 -2.4526 -1.4140
47514SOL     OW49402   4.847   2.179   5.483  0.6552 -0.1554  1.1561
47514SOL    HW149403   4.817   2.089   5.476 -0.4941  0.3287 -0.5917
47514SOL    HW249404   4.941   2.175   5.462  0.5752 -0.9075  0.9344
47515SOL     OW49405   6.167   3.268  11.442  0.2141 -0.1227  0.4084
47515SOL    HW149406   6.165   3.364  11.450  0.3715 -0.1019  0.2115
47515SOL    HW249407   6.160   3.237  11.533 -1.8878  0.0209  0.3295
47516SOL     OW49408   9.122   1.941   2.541 -0.5946 -0.6365  0.2099
47516SOL    HW149409   9.057   1.959   2.609 -0.2642 -0.8204  0.5787
47516SOL    HW249410   9.101   1.853   2.511 -0.4193 -0.7630  0.4482
47517SOL     OW49411   4.242   2.258   8.035 -0.0794 -0.1447 -0.2089
47517SOL    HW149412   4.186   2.316   7.984  0.5362  0.4507 -0.2156
47517SOL    HW249413   4.327   2.301   8.036  0.0781 -0.4500  0.8074
47518SOL     OW49414  11.365   4.728  10.662  0.6572  0.3866  0.0616
47518SOL    HW149415  11.446   4.678  10.670  0.5631  0.3426  0.8484
47518SOL    HW249416  11.303   4.667  10.621  0.6314 -0.0495  0.7270
47519SOL     OW49417   3.140   8.124   4.590 -0.2940 -0.2224 -0.0945
47519SOL    HW149418   3.222   8.117   4.639 -1.1945 -2.6688  1.2396
47519SOL    HW249419   3.117   8.034   4.568 -2.3539  0.4391 -0.9151
47520SOL     OW49420  10.769   9.472   0.768  0.7294  0.0607 -0.5190
47520SOL    HW149421  10.750   9.552   0.817  0.9570  1.2788 -2.3185
47520SOL    HW249422  10.747   9.401   0.828  0.5999  1.4625  1.1642
47521SOL     OW49423   9.326  10.855   3.429  0.5382 -0.0978  0.0395
47521SOL    HW149424   9.312  10.762   3.446  0.6281  0.3004  2.7266
47521SOL    HW249425   9.413  10.873   3.464 -0.4058  1.4208  1.7640
47522SOL     OW49426   2.812   1.268   2.646 -0.0703 -0.4375 -0.1533
47522SOL    HW149427   2.888   1.253   2.590 -0.8071 -2.9884 -0.6012
47522SOL    HW249428   2.780   1.355   2.621  2.0592  0.2503 -0.6666
47523SOL     OW49429   4.512   3.101   5.745  1.1802  0.3687  0.1203
47523SOL    HW149430   4.533   3.086   5.652  3.6610  1.5308  0.4095
47523SOL    HW249431   4.492   3.195   5.750 -0.9489 -0.0480  0.4987
47524SOL     OW49432   4.382   6.470   8.181  0.2900 -0.0278  0.0085
47524SOL    HW149433   4.304   6.450   8.129  1.2378 -1.0135 -1.1101
47524SOL    HW249434   4.423   6.544   8.137  0.3807  0.0120  0.1573
47525SOL     OW49435   5.579   0.113   2.256  0.3913 -0.6517  0.1501
47525SOL    HW149436   5.511   0.052   2.227 -0.1064 -0.2116  0.3812
47525SOL    HW249437   5.611   0.076   2.338  1.1773 -1.4233 -0.4870
47526SOL     OW49438   2.538   5.254   6.851 -0.6545  0.1927 -0.4600
47526SOL    HW149439   2.607   5.201   6.890 -1.1247  0.5719  0.9367
47526SOL    HW249440   2.545   5.339   6.894 -3.3908 -0.4173  1.4494
47527SOL     OW49441  10.858  11.326   3.424  0.5752  0.2628 -0.7198
47527SOL    HW149442  10.804  11.355   3.498  0.0512 -0.4517 -0.8104
47527SOL    HW249443  10.948  11.339   3.454  0.4182 -1.5452  0.7152
47528SOL     OW49444  11.746   5.966   8.299  0.2837 -0.3523 -0.0954
47528SOL    HW149445  11.693   5.914   8.359 -0.5123  0.1858 -0.3188
47528SOL    HW249446  11.733   5.924   8.214 -1.1788  0.7896 -0.4640
47529SOL     OW49447   4.780   0.756   0.564 -0.4890  0.1320  0.0999
47529SOL    HW149448   4.823   0.689   0.511  1.1347  1.3278 -0.1918
47529SOL    HW249449   4.726   0.707   0.626 -0.0296 -1.3985 -0.6588
47530SOL     OW49450   6.465   9.522  10.924  0.0957  0.1074  0.0273
47530SOL    HW149451   6.543   9.479  10.957 -0.6838 -0.1381  1.6523
47530SOL    HW249452   6.415   9.453  10.882  1.3357  0.5154 -2.3030
47531SOL     OW49453   6.451   3.099   5.089 -0.1100 -0.3434 -0.0659
47531SOL    HW149454   6.501   3.054   5.157 -0.0950  0.3371  0.3849
47531SOL    HW249455   6.481   3.060   5.007 -2.2714 -3.3827  0.3880
47532SOL     OW49456   5.026   3.822   3.198  0.2371  0.1558 -0.4135
47532SOL    HW149457   5.067   3.860   3.120  0.3443 -0.6044 -0.7334
47532SOL    HW249458   5.035   3.728   3.186 -0.6306  0.0086  0.0400
47533SOL     OW49459   7.122   9.494   4.156 -0.5643  0.2435  0.9356
47533SOL    HW149460   7.182   9.488   4.230  3.5198  0.7730 -1.9571
47533SOL    HW249461   7.112   9.588   4.142  0.5336  0.2022 -0.3624
47534SOL     OW49462  10.362   4.359   0.307  0.4072  0.2026  0.6806
47534SOL    HW149463  10.413   4.309   0.370  1.3847  0.8615  0.4547
47534SOL    HW249464  10.422   4.428   0.278 -0.3419  0.4930 -0.2425
47535SOL     OW49465   7.220   2.739   2.838  0.6180  0.5583  0.2801
47535SOL    HW149466   7.221   2.784   2.754  0.5241 -0.7733 -0.4570
47535SOL    HW249467   7.312   2.719   2.856  0.6987  1.3231  0.7844
47536SOL     OW49468   6.171   3.710   3.167  0.1523  0.2472 -0.3579
47536SOL    HW149469   6.249   3.704   3.222 -0.1993 -0.5375  0.0617
47536SOL    HW249470   6.165   3.625   3.122 -1.2990 -0.2983  0.7772
47537SOL     OW49471   0.044  10.749   3.603  0.6762 -0.5928 -0.8579
47537SOL    HW149472   0.067  10.822   3.661 -1.1987  1.1420 -2.1353
47537SOL    HW249473   0.127  10.709   3.580  2.0570  2.5498 -1.8286
47538SOL     OW49474   7.060   0.949   6.457 -0.8973 -0.3036  0.7855
47538SOL    HW149475   7.053   0.854   6.465 -1.4254 -0.4209 -0.8160
47538SOL    HW249476   6.977   0.977   6.420 -0.2964  0.6351  0.0786
47539SOL     OW49477   4.966   9.788   6.850  0.7627 -0.5371 -0.1774
47539SOL    HW149478   4.881   9.744   6.849 -0.0492  0.9807 -1.4275
47539SOL    HW249479   4.993   9.790   6.758  1.8704 -0.4666  0.1395
47540SOL     OW49480  12.190  10.785   4.414 -0.3223  0.0938 -0.2144
47540SOL    HW149481  12.281  10.758   4.425 -0.4244 -1.3063 -2.2317
47540SOL    HW249482  12.186  10.822   4.326 -1.7069  0.1585 -0.1586
47541SOL     OW49483   5.213  11.187   2.164 -0.8469  0.0829  0.6609
47541SOL    HW149484   5.194  11.260   2.104 -1.0828  0.0749  0.7247
47541SOL    HW249485   5.302  11.204   2.195 -1.0101  0.5072  0.9089
47542SOL     OW49486   4.930  10.693   3.384 -0.2373  0.2673  0.2687
47542SOL    HW149487   4.912  10.610   3.341 -1.6803  0.7178 -0.0575
47542SOL    HW249488   4.877  10.692   3.463  0.0795  0.6920  0.4933
47543SOL     OW49489   9.143  10.750   5.277  0.4708  0.1337  0.7417
47543SOL    HW149490   9.209  10.817   5.261  0.0454  0.2407 -0.7452
47543SOL    HW249491   9.191  10.667   5.267  0.5728  0.2129  0.5656
47544SOL     OW49492   3.224   3.200   2.887  0.0836  0.6081 -0.2776
47544SOL    HW149493   3.154   3.250   2.928 -0.5229  1.2284 -1.9607
47544SOL    HW249494   3.182   3.155   2.814  1.3896  0.8503 -1.2249
47545SOL     OW49495   7.673   2.601   6.246 -0.4369 -0.0654 -0.7549
47545SOL    HW149496   7.721   2.649   6.314  1.0352 -0.3202 -1.5801
47545SOL    HW249497   7.587   2.642   6.245 -0.2584  0.4321  0.7529
47546SOL     OW49498   3.123   9.168  11.486  0.0243  0.0502  0.0495
47546SOL    HW149499   3.204   9.212  11.459  0.4716  0.5136  2.0210
47546SOL    HW249500   3.146   9.121  11.566 -1.7621  0.5652  0.9142
47547SOL     OW49501   1.522   7.334   1.981  0.2033  0.0630  0.1347
47547SOL    HW149502   1.432   7.302   1.973 -0.2700  0.7522  2.0334
47547SOL    HW249503   1.577   7.257   1.962 -0.7431 -0.2353 -1.5376
47548SOL     OW49504   2.973  11.735   2.804 -0.5015 -0.2582  0.5549
47548SOL    HW149505   3.029  11.800   2.762 -0.1303  0.7677  2.5372
47548SOL    HW249506   2.891  11.782   2.821 -0.4215 -0.4548  1.5205
47549SOL     OW49507   5.557   5.027   8.516  0.4515 -0.1290 -0.2711
47549SOL    HW149508   5.531   5.119   8.509 -0.0602 -0.3837 -2.4228
47549SOL    HW249509   5.643   5.029   8.559  0.1722  1.2994  0.2576
47550SOL     OW49510   4.941   7.205   7.630  0.7377 -0.3407 -0.1114
47550SOL    HW149511   4.941   7.270   7.700 -2.3608  0.6976 -0.9033
47550SOL    HW249512   4.904   7.127   7.670 -0.7445  0.1590 -0.4381
47551SOL     OW49513   6.703  10.066   8.417  0.5074 -0.7523 -0.3177
47551SOL    HW149514   6.774  10.124   8.390  1.2499 -2.3587 -2.1079
47551SOL    HW249515   6.723  10.043   8.508  0.9239  0.6766 -0.0266
47552SOL     OW49516   7.711   8.472   3.534 -0.5089  0.2696  0.2190
47552SOL    HW149517   7.635   8.531   3.541  0.0840  1.1188 -0.3696
47552SOL    HW249518   7.755   8.479   3.618 -1.7996 -1.2806  1.0966
47553SOL     OW49519   7.189   4.611   0.992 -0.7037  0.1438 -0.0568
47553SOL    HW149520   7.247   4.541   0.961 -1.0137 -0.8083  1.3791
47553SOL    HW249521   7.231   4.642   1.072  0.1395  2.5941 -1.3503
47554SOL     OW49522   0.108   4.984   5.096 -0.2048  0.4704 -0.5776
47554SOL    HW149523   0.130   5.069   5.134 -2.2888  1.6173 -1.7498
47554SOL    HW249524   0.027   4.958   5.140 -0.2678 -0.2936 -1.1180
47555SOL     OW49525  10.209   2.818   5.373  0.7820  0.0563  0.0928
47555SOL    HW149526  10.292   2.781   5.342  0.5269 -1.4125  1.0742
47555SOL    HW249527  10.235   2.895   5.424  1.5321 -0.2119  0.1324
47556SOL     OW49528   2.440   6.996   6.051 -0.1645 -0.1067  0.1610
47556SOL    HW149529   2.405   7.075   6.091  1.5071  0.0885  1.3304
47556SOL    HW249530   2.443   7.016   5.957 -0.4345  0.9316  0.3623
47557SOL     OW49531  11.182   9.628   6.695  0.5566  0.6649 -0.1026
47557SOL    HW149532  11.260   9.650   6.643  0.6784 -3.9382 -2.4478
47557SOL    HW249533  11.214   9.565   6.760 -0.8628  0.2787  0.2588
47558SOL     OW49534  11.602   9.073   9.566  0.0432 -0.3015 -0.1487
47558SOL    HW149535  11.537   9.135   9.534  0.2514  0.2463  0.4656
47558SOL    HW249536  11.573   9.051   9.655  1.0119  0.4167  0.3648
47559SOL     OW49537   6.975  11.949   2.638 -0.7272 -0.2551 -0.0452
47559SOL    HW149538   7.023  11.907   2.566 -1.9154  0.7691 -1.4964
47559SOL    HW249539   6.956  12.037   2.606  1.4232  1.3804  2.7976
47560SOL     OW49540  10.746  10.539   9.206 -0.0993  0.1107  0.4111
47560SOL    HW149541  10.803  10.519   9.132 -0.8914  1.2854 -0.5503
47560SOL    HW249542  10.767  10.471   9.271  0.9305 -0.6750 -0.6918
47561SOL     OW49543   5.769   1.566   3.645 -0.1205  0.2154 -0.2043
47561SOL    HW149544   5.704   1.596   3.709 -0.7772  0.1967 -0.8495
47561SOL    HW249545   5.839   1.631   3.650  0.2450 -0.2439  1.1364
47562SOL     OW49546   5.097   5.612  11.691  0.2017 -0.1186 -0.4121
47562SOL    HW149547   5.190   5.634  11.684 -0.1046  1.1841 -0.5347
47562SOL    HW249548   5.061   5.679  11.750 -0.8890  0.1143 -1.3172
47563SOL     OW49549   4.701  11.952   4.131 -0.1854 -0.0981 -0.3068
47563SOL    HW149550   4.686  11.920   4.219  0.5708  1.5383  0.4583
47563SOL    HW249551   4.791  11.925   4.110  0.0559  0.4969 -0.0887
47564SOL     OW49552   3.885   0.747   1.732  0.0156 -0.2178  0.0355
47564SOL    HW149553   3.962   0.722   1.682  0.0078  0.8203 -0.5139
47564SOL    HW249554   3.919   0.799   1.805 -0.1873  0.5871 -0.4349
47565SOL     OW49555   0.894   7.352   0.502  0.6163 -0.3644 -0.4840
47565SOL    HW149556   0.829   7.288   0.472 -0.9615  0.7324  0.5078
47565SOL    HW249557   0.885   7.425   0.441  1.6408 -0.5817 -0.9266
47566SOL     OW49558   8.374   8.455  12.278 -0.3750  0.5526  0.3439
47566SOL    HW149559   8.345   8.374  12.236 -0.2828  0.3956  0.5820
47566SOL    HW249560   8.294   8.507  12.287 -0.6709 -0.0727  1.4306
47567SOL     OW49561   7.824   3.963   2.391  0.5007 -0.0702 -0.1660
47567SOL    HW149562   7.839   3.927   2.304 -1.0220  0.4389 -0.6701
47567SOL    HW249563   7.741   3.924   2.419 -0.6571  2.1995 -0.2915
47568SOL     OW49564   9.261   0.388   7.800 -0.2421 -0.0333  0.5308
47568SOL    HW149565   9.337   0.403   7.856 -1.9511  0.7801  2.7902
47568SOL    HW249566   9.186   0.394   7.859 -2.2139  1.2277 -1.8976
47569SOL     OW49567   7.337  10.955   1.369  0.5636  0.7163 -0.0907
47569SOL    HW149568   7.398  10.901   1.420 -0.2716 -1.4221 -1.2314
47569SOL    HW249569   7.252  10.914   1.383 -0.2698  2.3184 -0.3004
47570SOL     OW49570  11.923   6.677   7.781  0.9353 -0.1673  0.9703
47570SOL    HW149571  11.877   6.663   7.698  1.2790  0.1648  0.7202
47570SOL    HW249572  11.890   6.761   7.813  0.6230 -0.4108  1.2950
47571SOL     OW49573   5.158   6.711   4.993 -0.0313 -0.2332  0.2427
47571SOL    HW149574   5.095   6.655   4.947 -0.0247  0.0835 -0.1464
47571SOL    HW249575   5.209   6.649   5.047 -0.5920 -0.5026  0.4720
47572SOL     OW49576   9.904  12.459   2.775 -0.0968  0.3232  0.0261
47572SOL    HW149577   9.985  12.410   2.781 -0.2015 -0.1998 -1.9616
47572SOL    HW249578   9.835  12.393   2.780 -0.4161  0.7314  1.4009
47573SOL     OW49579   3.922   8.014   3.959 -0.7500  0.5536 -0.3509
47573SOL    HW149580   3.856   7.972   3.903 -1.0675 -0.6623  0.8661
47573SOL    HW249581   3.957   8.085   3.906 -0.4016 -1.0666 -2.4344
47574SOL     OW49582   2.616   7.792  10.884  0.0362 -0.2351  0.2350
47574SOL    HW149583   2.691   7.851  10.894 -0.9160  1.0073  0.3004
47574SOL    HW249584   2.598   7.762  10.973 -0.0457  0.1237  0.3430
47575SOL     OW49585  10.080  11.342   3.761  0.1731 -0.1804  1.1179
47575SOL    HW149586  10.124  11.284   3.823 -2.5141 -1.5154  1.9140
47575SOL    HW249587   9.988  11.316   3.765 -0.3410  0.5819 -2.4531
47576SOL     OW49588   7.896   2.140   0.252 -0.0706  0.2648  0.4441
47576SOL    HW149589   7.827   2.094   0.300  0.7997 -1.1129  0.4171
47576SOL    HW249590   7.857   2.160   0.167 -1.0970  1.3174  1.1378
47577SOL     OW49591  10.133   2.813  11.780 -0.1989 -0.2242  0.1885
47577SOL    HW149592  10.090   2.728  11.767  2.6513 -1.6893 -0.4113
47577SOL    HW249593  10.187   2.824  11.701  3.0402 -0.1682  2.2425
47578SOL     OW49594   8.117   8.049   9.634 -0.3656  0.2596 -0.1248
47578SOL    HW149595   8.113   7.999   9.553 -0.4825  2.3560 -1.4691
47578SOL    HW249596   8.084   8.136   9.611  1.4490  1.5283  1.6645
47579SOL     OW49597   2.335  10.805   6.775  0.3316  0.1471 -0.2620
47579SOL    HW149598   2.305  10.834   6.861 -1.5583 -1.6025 -0.2551
47579SOL    HW249599   2.341  10.885   6.723 -0.7904  0.9839  0.8453
47580SOL     OW49600   8.541   4.656   3.282  0.2117 -0.0490  0.4683
47580SOL    HW149601   8.575   4.676   3.370  1.4266  0.7046 -0.1556
47580SOL    HW249602   8.470   4.720   3.269  0.6252  0.4348  0.5515
47581SOL     OW49603  11.385   5.715   7.999 -0.7338  0.1231 -0.0887
47581SOL    HW149604  11.316   5.766   7.956 -0.1250  1.0095 -0.0464
47581SOL    HW249605  11.338   5.651   8.053 -1.5825  1.8988  1.3957
47582SOL     OW49606  10.792   4.783   3.015  0.2061 -0.2158  0.0230
47582SOL    HW149607  10.751   4.780   2.929  0.2284 -0.4730  0.0212
47582SOL    HW249608  10.886   4.779   2.997  0.1816 -3.4641  0.1744
47583SOL     OW49609   3.920   7.380   8.164 -0.4242 -0.2880  0.3591
47583SOL    HW149610   3.944   7.472   8.167 -1.5065 -0.0086  2.5780
47583SOL    HW249611   3.961   7.346   8.085  0.7630  1.8732  0.0005
47584SOL     OW49612   1.462   1.409   3.877 -0.7000  0.0433 -0.3626
47584SOL    HW149613   1.423   1.463   3.808  1.3727  1.5543 -0.4393
47584SOL    HW249614   1.529   1.358   3.832  0.8947  1.2755  0.4983
47585SOL     OW49615   8.790   6.429   9.002  0.3340  0.3811  0.0927
47585SOL    HW149616   8.843   6.386   8.935  0.7666 -0.0031  0.6764
47585SOL    HW249617   8.750   6.357   9.050 -2.0014  0.6309 -1.3057
47586SOL     OW49618  10.594   0.934   9.885  1.0399  0.1436 -0.1348
47586SOL    HW149619  10.639   0.944   9.969  0.1974 -1.1063  0.5049
47586SOL    HW249620  10.517   0.990   9.892  0.7331 -0.2966  0.1323
47587SOL     OW49621   1.392   7.071   8.783 -0.4104 -0.6848 -0.0378
47587SOL    HW149622   1.334   7.040   8.713 -0.4832  0.9585 -0.7318
47587SOL    HW249623   1.341   7.137   8.830  0.8294  0.7355 -0.6107
47588SOL     OW49624   4.153   1.351   3.776 -0.1125  0.1733 -0.0724
47588SOL    HW149625   4.059   1.352   3.795 -0.0709  0.1467  0.1450
47588SOL    HW249626   4.159   1.342   3.681 -0.3369  0.6837 -0.1418
47589SOL     OW49627   1.100   4.322   2.399  0.0756 -0.3601  0.5853
47589SOL    HW149628   1.167   4.360   2.455  0.3363 -0.6520  0.4765
47589SOL    HW249629   1.129   4.340   2.310 -0.0970 -0.3070  0.5388
47590SOL     OW49630   1.665  10.601   3.258 -0.0420  0.0564 -0.2396
47590SOL    HW149631   1.627  10.524   3.215 -2.0710  1.0620 -0.3822
47590SOL    HW249632   1.589  10.647   3.295  1.2518  1.3499  0.9091
47591SOL     OW49633   3.096   3.130   4.503 -0.0007  0.0037  0.2606
47591SOL    HW149634   3.192   3.138   4.509  0.0676 -1.3679  1.7954
47591SOL    HW249635   3.068   3.120   4.594 -1.4622 -1.0997 -0.2827
47592SOL     OW49636   9.189   0.307   1.449 -0.1682 -0.1144  0.2602
47592SOL    HW149637   9.258   0.244   1.428 -0.6160 -0.7297  0.6188
47592SOL    HW249638   9.211   0.338   1.537 -1.5180 -1.9395  1.2990
47593SOL     OW49639  11.406   9.922  12.147  0.3332 -0.4421  0.1537
47593SOL    HW149640  11.341   9.870  12.099 -2.0878  0.7722  1.8974
47593SOL    HW249641  11.456   9.967  12.079 -0.6604 -1.4064 -1.2719
47594SOL     OW49642  10.980   2.607  12.167  0.6348  0.1274 -0.3111
47594SOL    HW149643  11.051   2.557  12.208  0.0381 -0.8562 -0.4511
47594SOL    HW249644  10.918   2.540  12.136  0.5086  0.8849 -1.7851
47595SOL     OW49645   2.576   1.268   1.024  0.1354 -0.3641  0.4567
47595SOL    HW149646   2.610   1.184   1.054 -0.7822 -0.2604  1.9083
47595SOL    HW249647   2.594   1.328   1.096  0.7203  0.6831 -0.5309
47596SOL     OW49648  11.561   0.600  10.096  0.4120  0.0728  0.8316
47596SOL    HW149649  11.526   0.672  10.149  1.3950  0.4545  0.9872
47596SOL    HW249650  11.598   0.539  10.160 -1.1961 -1.0313  0.7555
47597SOL     OW49651   4.726   9.780   0.737  0.6573 -0.0472  0.2756
47597SOL    HW149652   4.763   9.867   0.722  1.2999 -0.0172  1.8613
47597SOL    HW249653   4.799   9.720   0.720  0.7280 -0.1530  0.9390
47598SOL     OW49654  10.998   7.409   9.364 -0.4497 -0.0866  0.2778
47598SOL    HW149655  11.002   7.371   9.277 -0.6182 -0.3975  0.4065
47598SOL    HW249656  10.908   7.396   9.392 -0.4439  0.1741  0.4275
47599SOL     OW49657   7.795   6.965   1.032  0.5808 -0.1567  0.0232
47599SOL    HW149658   7.882   6.942   1.000  1.0315  0.5340  0.7264
47599SOL    HW249659   7.752   6.881   1.045  1.3454 -0.5308  0.2185
47600SOL     OW49660   6.412   3.262   4.863  0.1069 -0.4744  0.0559
47600SOL    HW149661   6.431   3.355   4.846 -0.7875 -0.5102 -1.3119
47600SOL    HW249662   6.405   3.256   4.958 -0.8842  1.0910  0.1123
47601SOL     OW49663   4.648   6.058  10.887  0.0016 -0.6091  0.1960
47601SOL    HW149664   4.627   6.137  10.937  0.6053  0.7012 -1.5281
47601SOL    HW249665   4.578   6.052  10.822  0.7638 -0.6036 -0.6477
47602SOL     OW49666  11.718   1.319  11.642  0.6923  0.0867 -0.0120
47602SOL    HW149667  11.762   1.267  11.709 -0.0946  1.0359  1.3112
47602SOL    HW249668  11.625   1.304  11.659  0.4854  0.1998 -1.0234
47603SOL     OW49669   2.644   1.440  11.894 -0.6476  0.1791 -0.7081
47603SOL    HW149670   2.620   1.393  11.974  0.4136  0.2628 -0.3307
47603SOL    HW249671   2.739   1.449  11.899 -0.6906  1.1845 -1.4365
47604SOL     OW49672   1.447   6.913   6.971 -0.1578  0.1845  0.8989
47604SOL    HW149673   1.388   6.901   7.045 -0.3487  0.1100  0.7358
47604SOL    HW249674   1.525   6.861   6.994 -1.8788 -3.5986 -0.8608
47605SOL     OW49675   3.081   8.836   9.533  0.2599  0.3390  0.3487
47605SOL    HW149676   3.074   8.745   9.506  1.2059  0.1542  0.6730
47605SOL    HW249677   3.055   8.886   9.456 -1.7523 -0.1945  0.6370
47606SOL     OW49678   9.331   7.290   4.251 -0.5078 -0.2378 -0.0888
47606SOL    HW149679   9.420   7.300   4.218 -1.6034  1.2663 -2.9167
47606SOL    HW249680   9.330   7.339   4.333  0.9810  0.7551 -0.6226
47607SOL     OW49681   1.822  10.642   5.391 -0.2370 -0.0555  0.4033
47607SOL    HW149682   1.790  10.647   5.301 -2.3762  1.0413  1.1571
47607SOL    HW249683   1.817  10.732   5.424  1.0505 -0.3330  1.4636
47608SOL     OW49684  11.907  10.123   9.306  0.4081  0.1875 -0.4841
47608SOL    HW149685  11.930  10.137   9.398 -2.0513  1.7838 -0.0371
47608SOL    HW249686  11.881  10.032   9.302  0.5735  0.0881  0.3871
47609SOL     OW49687   6.054   7.768   8.296  0.1936 -0.1557  0.1459
47609SOL    HW149688   6.019   7.711   8.364 -0.1613  2.2699  2.1394
47609SOL    HW249689   6.074   7.850   8.341  0.4167  1.4240 -2.6011
47610SOL     OW49690   7.937   5.686  10.042 -0.4288 -0.0377  0.1561
47610SOL    HW149691   7.928   5.641  10.127 -2.5908  1.7313  0.9779
47610SOL    HW249692   7.860   5.658   9.993 -1.4177  2.0540  0.4046
47611SOL     OW49693   7.576   5.073  12.101  0.0352 -0.3390  0.5491
47611SOL    HW149694   7.594   4.987  12.063 -0.6010 -1.1544  1.9802
47611SOL    HW249695   7.485   5.091  12.077 -0.6990 -1.3078  2.3617
47612SOL     OW49696   2.013   2.939   3.616 -0.1153  0.1300 -0.1171
47612SOL    HW149697   2.005   3.004   3.547  1.0614 -0.9588 -1.3307
47612SOL    HW249698   1.942   2.877   3.599 -2.0071  1.6223  1.7465
47613SOL     OW49699  11.722   4.323   6.114  0.7431 -0.2257 -0.2215
47613SOL    HW149700  11.678   4.246   6.151  2.0507 -0.5583  0.7311
47613SOL    HW249701  11.651   4.384   6.095 -0.0837  0.1335  3.2751
47614SOL     OW49702   5.993   8.256   3.097 -0.2506 -0.1224 -0.7044
47614SOL    HW149703   5.994   8.322   3.166 -0.8941 -0.2082 -0.6037
47614SOL    HW249704   6.082   8.258   3.060  0.0589  0.0213  0.0292
47615SOL     OW49705   7.670   7.149   6.396  0.5875  0.4459 -0.0673
47615SOL    HW149706   7.630   7.183   6.475 -0.4008  2.3461 -1.2979
47615SOL    HW249707   7.748   7.102   6.426  0.3480  1.2843  1.9933
47616SOL     OW49708   6.449   4.613   2.590 -0.4292  0.2753  0.5736
47616SOL    HW149709   6.488   4.613   2.503  0.1656 -0.5719  0.8284
47616SOL    HW249710   6.360   4.646   2.576  0.0971  1.4790 -0.1270
47617SOL     OW49711  11.224   4.403   6.793 -0.2716 -0.2852  0.5572
47617SOL    HW149712  11.277   4.349   6.852  0.7734  0.8045  0.6648
47617SOL    HW249713  11.276   4.409   6.713 -0.5435  0.2737  0.4192
47618SOL     OW49714   1.316   6.273  10.533  0.0146  0.2140 -0.1823
47618SOL    HW149715   1.318   6.367  10.550 -0.0396  0.1559  0.1391
47618SOL    HW249716   1.269   6.235  10.607 -1.7549  0.1416 -1.2752
47619SOL     OW49717  12.429   3.310   0.160 -0.1499  0.4634 -0.0211
47619SOL    HW149718  12.440   3.220   0.191  2.3216  0.9539  0.8314
47619SOL    HW249719  12.492   3.319   0.088  0.1093  1.6404  0.3143
47620SOL     OW49720   6.182  11.269   0.415  0.4597  0.3238  0.0798
47620SOL    HW149721   6.164  11.175   0.406  2.8439 -0.1323 -0.5046
47620SOL    HW249722   6.277  11.277   0.408  0.2670  2.9149 -1.0528
47621SOL     OW49723   4.717  11.321   7.917  0.2879  0.6704 -0.6798
47621SOL    HW149724   4.648  11.382   7.943  1.2465  1.8912 -0.9636
47621SOL    HW249725   4.702  11.244   7.972 -1.3259  0.8815 -0.7703
47622SOL     OW49726   8.668   2.815  10.972  0.0436  0.2400 -0.0758
47622SOL    HW149727   8.670   2.720  10.960 -1.0246  0.3929 -1.6559
47622SOL    HW249728   8.737   2.832  11.037 -0.5604 -1.7221  1.1572
47623SOL     OW49729   4.964   5.465   6.094  0.3525  0.7122 -0.3269
47623SOL    HW149730   4.884   5.482   6.144  0.4961  1.6030 -0.3837
47623SOL    HW249731   4.942   5.492   6.005  0.3840 -0.0315 -0.5658
47624SOL     OW49732   2.389   3.822  11.822  0.4125  0.1169  0.2421
47624SOL    HW149733   2.311   3.794  11.871 -0.0614 -1.1754 -1.1932
47624SOL    HW249734   2.359   3.898  11.772  0.1132 -0.2601 -0.1609
47625SOL     OW49735   7.846   8.650   7.717  0.2930 -0.8217  0.2014
47625SOL    HW149736   7.893   8.726   7.685 -1.0311 -0.6080 -1.3413
47625SOL    HW249737   7.760   8.684   7.743  0.2863 -1.5154  1.1594
47626SOL     OW49738  11.020   6.370   6.846 -0.2777 -0.1723  0.3741
47626SOL    HW149739  10.999   6.279   6.828  1.0137 -0.5389  0.6182
47626SOL    HW249740  11.113   6.370   6.868 -0.0358  1.3296 -0.4900
47627SOL     OW49741   2.780   9.064   2.515 -0.3845 -0.1307  0.2152
47627SOL    HW149742   2.790   9.112   2.432  0.6749 -0.6514  0.0238
47627SOL    HW249743   2.779   8.972   2.489  1.1286 -0.3477  0.8657
47628SOL     OW49744   1.103  12.126  11.115  0.3630  0.5706 -0.4465
47628SOL    HW149745   1.085  12.217  11.092 -1.6246  1.2622  3.1826
47628SOL    HW249746   1.023  12.079  11.090  0.4118  0.2849 -0.0710
47629SOL     OW49747   6.613   2.567   2.051  0.0714 -0.3481 -0.0573
47629SOL    HW149748   6.656   2.610   1.976  1.3938 -0.3382  0.6738
47629SOL    HW249749   6.525   2.604   2.052  0.4549  0.6386 -0.8224
47630SOL     OW49750  11.136   0.345   5.093  0.1067  0.0734 -0.2211
47630SOL    HW149751  11.041   0.344   5.082  0.2176 -0.3221 -1.2137
47630SOL    HW249752  11.165   0.425   5.050  0.4569 -1.0676 -2.2355
47631SOL     OW49753   0.272   9.820   4.311 -0.0085  0.0006  0.3300
47631SOL    HW149754   0.204   9.788   4.252  0.3600  0.2386 -0.2384
47631SOL    HW249755   0.251   9.912   4.325 -1.0987 -0.4527  2.0091
47632SOL     OW49756   8.440   0.625   2.875 -0.6492 -0.0921 -0.5301
47632SOL    HW149757   8.466   0.583   2.957  2.4572  0.1937 -1.2596
47632SOL    HW249758   8.470   0.565   2.807 -0.5471  1.0440 -1.5050
47633SOL     OW49759   7.085   0.568   4.931  0.3052  0.1036 -0.5270
47633SOL    HW149760   7.059   0.601   5.017 -0.6491 -1.0710 -0.3414
47633SOL    HW249761   7.140   0.492   4.950  0.5364  0.1651 -0.9496
47634SOL     OW49762   9.088  11.739  11.791 -0.6691 -0.3717  0.2392
47634SOL    HW149763   9.122  11.726  11.879 -0.5893  0.0810  0.2741
47634SOL    HW249764   9.015  11.800  11.802  0.2925  0.9141 -0.1935
47635SOL     OW49765   6.613   6.347   8.727 -1.1926  0.8024 -0.2242
47635SOL    HW149766   6.527   6.379   8.701 -1.4644  0.3244  0.0794
47635SOL    HW249767   6.602   6.315   8.817 -1.1647 -0.9745 -0.8045
47636SOL     OW49768   8.322   4.823   8.502 -0.4324  0.2915  0.3345
47636SOL    HW149769   8.341   4.902   8.553  3.6989 -0.0435 -0.3506
47636SOL    HW249770   8.301   4.756   8.567 -0.8611  1.1891  1.1448
47637SOL     OW49771   6.933   3.815   3.165  0.2631 -0.1653 -0.1418
47637SOL    HW149772   6.979   3.780   3.089 -0.3767  0.3915 -0.7950
47637SOL    HW249773   6.999   3.865   3.213  0.7547 -0.8110 -0.1259
47638SOL     OW49774   0.515  10.797   5.323  0.3050 -0.4854  0.6241
47638SOL    HW149775   0.609  10.806   5.309  0.1312 -0.4785 -0.6593
47638SOL    HW249776   0.487  10.884   5.351  0.3947  0.0804 -0.9150
47639SOL     OW49777  11.747   7.580  11.264  0.7275  0.7240  0.1316
47639SOL    HW149778  11.840   7.567  11.249  1.0073  1.2497  1.2794
47639SOL    HW249779  11.731   7.672  11.240  0.0178  0.0640 -2.1748
47640SOL     OW49780   7.831   4.156   7.016  0.0684 -0.2783 -0.5291
47640SOL    HW149781   7.843   4.241   6.973  0.4226  0.5876  1.1892
47640SOL    HW249782   7.920   4.124   7.030  0.0484  0.2765  1.0652
47641SOL     OW49783   8.125   6.047   1.425 -0.2864 -0.1674  0.2776
47641SOL    HW149784   8.100   6.088   1.343  0.8259 -1.8042 -0.9285
47641SOL    HW249785   8.128   5.954   1.406  1.0967 -0.5016  1.8634
47642SOL     OW49786   5.084   0.533   5.009 -0.0704 -0.6625 -0.3635
47642SOL    HW149787   5.043   0.447   5.019 -0.6399 -0.2847  0.6230
47642SOL    HW249788   5.122   0.551   5.095  1.5816 -0.6863 -1.0433
47643SOL     OW49789   8.065   6.324  11.602 -0.5739 -0.2498  0.1291
47643SOL    HW149790   8.126   6.342  11.673 -2.1224  1.1502  1.1635
47643SOL    HW249791   7.987   6.289  11.645 -1.7379  1.1186 -0.7610
47644SOL     OW49792   4.397   6.126   2.621 -0.1862 -0.6419 -0.1789
47644SOL    HW149793   4.330   6.195   2.622  2.0868  1.7395 -0.0641
47644SOL    HW249794   4.402   6.096   2.711 -1.8502 -1.7097 -0.4028
47645SOL     OW49795   4.023   7.841   2.323  0.2537 -0.0430 -0.3470
47645SOL    HW149796   3.978   7.771   2.370  0.0502 -0.4484 -1.1327
47645SOL    HW249797   4.116   7.827   2.340  0.2213 -0.5917 -0.6124
47646SOL     OW49798   9.171  11.142   6.803 -0.7273 -0.1773 -0.1286
47646SOL    HW149799   9.144  11.098   6.723 -0.4333  0.3029 -0.4978
47646SOL    HW249800   9.096  11.132   6.862 -1.1296 -0.1464 -0.6197
47647SOL     OW49801  10.745   1.031  10.077 -0.0995  0.5291 -0.0642
47647SOL    HW149802  10.752   1.044  10.172 -1.8506  0.5617  0.0942
47647SOL    HW249803  10.815   1.084  10.040  2.2410 -1.3862  1.2999
47648SOL     OW49804   7.396   8.269   2.389  0.5110 -0.2946  0.4182
47648SOL    HW149805   7.357   8.188   2.357  0.0061  0.9908 -2.5458
47648SOL    HW249806   7.476   8.241   2.434 -0.9189 -2.5589  1.7140
47649SOL     OW49807  11.276   6.306  12.204  0.4466  0.1806  0.5125
47649SOL    HW149808  11.232   6.224  12.224 -1.7582  1.2896  0.5035
47649SOL    HW249809  11.315   6.292  12.118 -0.7678 -0.5493  0.0600
47650SOL     OW49810  11.327   7.054   6.286  0.0193  0.0967  0.5104
47650SOL    HW149811  11.240   7.087   6.263 -0.3199  0.3728  2.0931
47650SOL    HW249812  11.370   7.129   6.327  2.0126  0.7990 -2.5616
47651SOL     OW49813  11.282   5.533   6.914  0.1786  1.0615  0.1723
47651SOL    HW149814  11.318   5.609   6.869  0.6962  0.4367 -0.4726
47651SOL    HW249815  11.187   5.549   6.915  0.3062  1.8545  0.3162
47652SOL     OW49816   7.278   3.403   9.298  0.3516  0.2692 -0.0464
47652SOL    HW149817   7.366   3.403   9.259  1.0320  1.1491  1.4042
47652SOL    HW249818   7.245   3.491   9.284 -0.3263 -0.0704 -0.6180
47653SOL     OW49819   1.197   5.705   6.531  0.0628 -0.0321 -0.5948
47653SOL    HW149820   1.221   5.678   6.443  0.8103  2.4375 -1.2354
47653SOL    HW249821   1.266   5.669   6.587  0.3268 -0.4771 -1.2060
47654SOL     OW49822   3.157   6.212   7.014  0.4104  0.3690 -0.8762
47654SOL    HW149823   3.135   6.207   7.107  1.3016 -0.0782 -0.6798
47654SOL    HW249824   3.104   6.143   6.974  1.5207 -0.8154 -0.3832
47655SOL     OW49825   5.883   3.337   7.358 -0.0291 -0.1333  0.2642
47655SOL    HW149826   5.856   3.423   7.390  1.5433  0.7320 -0.5993
47655SOL    HW249827   5.939   3.302   7.427 -0.2573 -0.2434  0.3942
47656SOL     OW49828   9.487   5.501   8.815  0.7730 -0.6212  0.1619
47656SOL    HW149829   9.559   5.552   8.779  0.6993 -0.6725 -0.0643
47656SOL    HW249830   9.411   5.528   8.762  0.4991 -0.1090  0.7958
47657SOL     OW49831   7.606  12.424   5.605 -0.5167 -0.0765  0.0498
47657SOL    HW149832   7.565  12.356   5.551 -0.6352 -1.9467  2.3400
47657SOL    HW249833   7.696  12.393   5.616  0.1939  1.5239 -0.9837
47658SOL     OW49834   7.114   9.098   8.141 -0.2864 -0.3783  0.8398
47658SOL    HW149835   7.094   9.185   8.106  1.4039 -0.7098 -1.1653
47658SOL    HW249836   7.078   9.037   8.077  0.0990 -1.1200  1.3117
47659SOL     OW49837   2.782   5.729  10.565 -0.3155 -0.4374  0.1155
47659SOL    HW149838   2.820   5.803  10.611 -1.2140 -0.7888  1.4673
47659SOL    HW249839   2.696   5.760  10.536 -0.2685 -0.6171 -0.2241
47660SOL     OW49840   1.899   8.502   8.312 -0.1917 -0.6125 -0.2884
47660SOL    HW149841   1.843   8.578   8.332  1.1347  0.1039  0.8641
47660SOL    HW249842   1.978   8.540   8.275 -0.4631 -1.6239 -1.9740
47661SOL     OW49843   1.829  11.005   0.837  0.0072  0.1150  0.6529
47661SOL    HW149844   1.882  10.942   0.886 -0.7851 -2.1831 -1.2740
47661SOL    HW249845   1.824  11.081   0.894  0.0629 -1.9488  3.6561
47662SOL     OW49846   2.562  12.057   9.148  0.1043  0.0422 -0.1284
47662SOL    HW149847   2.536  12.086   9.235  0.0733 -1.6249  0.4650
47662SOL    HW249848   2.634  12.115   9.124  1.1386 -0.3994  1.6840
47663SOL     OW49849   4.804   7.069   4.217 -0.6209 -0.4285  0.5553
47663SOL    HW149850   4.776   7.067   4.126  1.1807  0.4031 -0.0786
47663SOL    HW249851   4.726   7.095   4.266 -1.4329 -0.1332 -0.8350
47664SOL     OW49852   8.906   9.105   6.779 -0.4649  0.2634  0.3902
47664SOL    HW149853   8.882   9.017   6.806 -0.1777  0.1368  0.2369
47664SOL    HW249854   8.985   9.094   6.726 -0.3624  0.6201  0.4590
47665SOL     OW49855   3.545   2.635   9.765  0.3059 -0.3527 -0.3878
47665SOL    HW149856   3.614   2.651   9.828 -0.3386  0.0560  0.2270
47665SOL    HW249857   3.557   2.703   9.698 -0.3381  0.6049  0.4427
47666SOL     OW49858   2.730   7.333  11.593  0.0153 -0.5927  0.4969
47666SOL    HW149859   2.785   7.335  11.515 -1.2478 -0.1323 -0.4284
47666SOL    HW249860   2.757   7.411  11.643  1.2446 -1.2207  0.8458
47667SOL     OW49861   3.387   7.593   7.625  0.1172  0.5400  0.4768
47667SOL    HW149862   3.431   7.648   7.690 -0.9569  1.3884  0.5128
47667SOL    HW249863   3.418   7.627   7.541  0.9457 -0.0886  0.5090
47668SOL     OW49864   2.569   7.985   9.491  0.0899 -0.2906 -0.1649
47668SOL    HW149865   2.638   8.004   9.428  0.5404 -0.4815  0.2611
47668SOL    HW249866   2.599   7.908   9.538  0.7045  0.9582  1.6130
47669SOL     OW49867  10.304   0.203   2.268  0.1398 -0.1128  0.1512
47669SOL    HW149868  10.347   0.120   2.246 -2.0100 -0.7734 -2.0831
47669SOL    HW249869  10.254   0.184   2.347 -3.3918 -2.3691 -2.3059
47670SOL     OW49870  11.697   6.284   8.677 -0.1058 -0.1782  0.3151
47670SOL    HW149871  11.685   6.205   8.728 -0.7462 -0.7543 -0.6804
47670SOL    HW249872  11.772   6.266   8.621 -0.9299 -0.5420 -0.7090
47671SOL     OW49873   6.824   9.896   2.520 -0.1428 -0.5094 -0.2310
47671SOL    HW149874   6.873   9.967   2.478 -0.1669  0.1359  0.7873
47671SOL    HW249875   6.817   9.828   2.452 -1.2993  0.9925 -1.7030
47672SOL     OW49876   1.222   7.414   0.110  0.0087  0.2749 -0.5243
47672SOL    HW149877   1.182   7.501   0.120  1.4227  0.8777  0.2744
47672SOL    HW249878   1.280   7.423   0.035  0.8408  0.3211  0.1069
47673SOL     OW49879   5.865   7.859   3.796  0.1627 -0.3199 -0.1831
47673SOL    HW149880   5.931   7.849   3.727  0.9801 -0.2206  0.5625
47673SOL    HW249881   5.837   7.950   3.790 -0.3925 -0.5385 -0.9307
47674SOL     OW49882   5.604   5.931   3.613 -0.3483 -0.1488 -0.6750
47674SOL    HW149883   5.540   5.930   3.684  1.0581 -0.0232  0.6490
47674SOL    HW249884   5.684   5.895   3.652  0.6875  0.6595 -1.9571
47675SOL     OW49885   7.898   8.637  11.667 -0.4047 -0.0595  0.1537
47675SOL    HW149886   7.850   8.556  11.683  0.2646 -0.5078 -0.1042
47675SOL    HW249887   7.896   8.683  11.751 -0.3199 -0.5893  0.4511
47676SOL     OW49888   5.324   7.408   0.185 -0.4974  0.2813 -0.6364
47676SOL    HW149889   5.365   7.362   0.258 -0.1303  2.2711  0.4752
47676SOL    HW249890   5.273   7.340   0.140 -0.5464 -1.0661  1.3093
47677SOL     OW49891   1.691  10.212   3.449  0.4550 -0.0370  0.6967
47677SOL    HW149892   1.719  10.144   3.510 -2.2131 -1.9502 -0.0355
47677SOL    HW249893   1.595  10.212   3.455  0.2858  2.4942 -0.6168
47678SOL     OW49894  11.635   5.358   6.818 -0.4250 -0.4262  0.3284
47678SOL    HW149895  11.544   5.331   6.801  0.2953 -2.4520 -0.6086
47678SOL    HW249896  11.646   5.439   6.768 -0.8858 -1.7515 -2.0493
47679SOL     OW49897  12.216   3.372   8.508 -0.8623  0.4671 -0.0333
47679SOL    HW149898  12.132   3.403   8.473 -1.4098  0.6203  1.3503
47679SOL    HW249899  12.211   3.277   8.502 -0.3730  0.5220 -1.6201
47680SOL     OW49900   0.482   9.070   3.432  0.5646 -0.2199  0.1884
47680SOL    HW149901   0.480   9.014   3.510  0.5540  0.1141  0.4262
47680SOL    HW249902   0.484   9.159   3.466  0.9977 -0.0807 -0.1855
47681SOL     OW49903   6.907  11.355  12.395 -0.1379  0.3035  0.0642
47681SOL    HW149904   6.984  11.392  12.353  1.0531 -1.7681  0.3086
47681SOL    HW249905   6.844  11.343  12.324  0.4249  0.3422 -0.4437
47682SOL     OW49906   4.597  11.518  10.342 -0.4606 -0.4021  0.3331
47682SOL    HW149907   4.623  11.464  10.267 -0.8306 -0.1985  0.0565
47682SOL    HW249908   4.538  11.462  10.392 -1.8528  0.1586 -0.6168
47683SOL     OW49909   9.626   4.322  10.531 -0.1207 -0.0447  0.1546
47683SOL    HW149910   9.546   4.270  10.526 -0.4980  0.4177  1.0445
47683SOL    HW249911   9.672   4.288  10.608  0.0822  0.3144  0.1943
47684SOL     OW49912   2.771   4.535   2.004  0.6049 -0.0380  0.0019
47684SOL    HW149913   2.852   4.579   1.976  0.3541  0.8197  0.5901
47684SOL    HW249914   2.704   4.569   1.944  0.5658 -0.2692 -0.0855
47685SOL     OW49915   6.657   6.784   7.287 -0.6479  0.1203 -0.0020
47685SOL    HW149916   6.679   6.698   7.253  2.9490  0.3851  1.1739
47685SOL    HW249917   6.627   6.768   7.376 -0.9559  0.0104 -0.1270
47686SOL     OW49918  11.116   5.595   7.557  0.2272 -0.4451 -0.3795
47686SOL    HW149919  11.155   5.507   7.561 -0.8871 -0.9039  2.1106
47686SOL    HW249920  11.022   5.580   7.569  0.1889  1.1509  1.9511
47687SOL     OW49921  11.158   9.302   6.502 -0.1677 -0.1649 -0.4847
47687SOL    HW149922  11.183   9.222   6.455 -2.0442 -1.2942  0.3196
47687SOL    HW249923  11.203   9.295   6.586  1.8729  1.0469 -1.4022
47688SOL     OW49924   8.595   2.352   7.861  0.1837 -0.9664 -0.3132
47688SOL    HW149925   8.672   2.405   7.881  0.2178 -0.4976 -1.6111
47688SOL    HW249926   8.527   2.385   7.921  0.1908  0.6096 -1.1225
47689SOL     OW49927  11.457   6.178   5.913  0.7129  0.6776 -0.4933
47689SOL    HW149928  11.465   6.177   5.818 -0.2903  0.3291 -0.5777
47689SOL    HW249929  11.486   6.266   5.939 -1.6468  1.7967 -1.3734
47690SOL     OW49930  11.622   0.884   5.384 -0.0884  0.3154  0.4065
47690SOL    HW149931  11.667   0.801   5.373  0.4651  0.5664  0.7194
47690SOL    HW249932  11.615   0.920   5.296 -0.7826 -0.2912  0.2089
47691SOL     OW49933  11.981  12.240   2.048  0.0091 -0.8344 -0.0131
47691SOL    HW149934  12.005  12.160   2.093 -0.3540 -1.4013 -0.8046
47691SOL    HW249935  11.933  12.211   1.970 -0.5690  0.1613 -0.0523
47692SOL     OW49936   3.943   1.605   9.993 -0.1152 -0.3494  0.2380
47692SOL    HW149937   4.002   1.641   9.926 -0.8966  1.5539  0.5201
47692SOL    HW249938   3.857   1.606   9.952 -0.1826 -1.9502  0.2725
47693SOL     OW49939   8.299   5.369   1.268 -0.1952 -0.9203  0.0010
47693SOL    HW149940   8.205   5.351   1.278 -0.0983 -0.9493  0.9526
47693SOL    HW249941   8.317   5.352   1.175 -1.6453  1.4782 -0.8123
47694SOL     OW49942  11.829   4.501   3.438  0.3554 -0.0328 -0.3367
47694SOL    HW149943  11.760   4.439   3.415  0.4463 -0.5208  0.6533
47694SOL    HW249944  11.865   4.468   3.521 -1.7874  3.0667  2.0360
47695SOL     OW49945  11.157   6.022  11.445  0.3937 -0.5514  0.4478
47695SOL    HW149946  11.210   5.964  11.501 -0.9611 -1.1110  1.1914
47695SOL    HW249947  11.170   6.109  11.483 -0.3146 -0.8899  1.5184
47696SOL     OW49948  10.778   5.885   1.924 -0.4444 -0.0039  0.0173
47696SOL    HW149949  10.873   5.878   1.925 -0.5089 -1.0070  0.3414
47696SOL    HW249950  10.751   5.827   1.852 -0.8530 -0.5003  0.5604
47697SOL     OW49951   6.478   1.894   3.240  0.0335  0.2053  0.3921
47697SOL    HW149952   6.395   1.848   3.255 -0.5517  1.0621 -0.0933
47697SOL    HW249953   6.545   1.832   3.267 -0.7451 -0.7112  0.2780
47698SOL     OW49954  11.950  11.374   9.713 -0.2161  0.0192  0.4902
47698SOL    HW149955  12.024  11.329   9.671 -0.7406 -0.4652  0.0821
47698SOL    HW249956  11.876  11.315   9.701 -1.1196  1.3739 -0.8302
47699SOL     OW49957   6.758   4.774   6.627 -0.3194 -0.5061  0.3113
47699SOL    HW149958   6.716   4.853   6.593  0.3556 -0.3246 -0.1102
47699SOL    HW249959   6.725   4.704   6.570 -0.5544 -0.4616  0.3913
47700SOL     OW49960   9.989   9.853   5.100  0.0592 -0.8218 -0.0178
47700SOL    HW149961   9.925   9.785   5.123  2.1126 -2.8177  0.2397
47700SOL    HW249962  10.050   9.809   5.041  0.1787  1.5526 -1.8152
47701SOL     OW49963   9.880   7.014   1.638 -0.2057 -0.4899  0.1416
47701SOL    HW149964   9.930   6.989   1.560 -1.3183  0.0436 -0.7857
47701SOL    HW249965   9.915   7.099   1.662 -1.8100  0.7690 -1.6287
47702SOL     OW49966   5.821   1.071   3.942 -0.2362 -0.1734  0.3737
47702SOL    HW149967   5.850   1.149   3.895  0.4737 -0.7096 -0.0905
47702SOL    HW249968   5.901   1.034   3.978 -0.6598 -0.2725  1.2580
47703SOL     OW49969   3.527   9.773  10.201  0.2106 -0.2856  0.0813
47703SOL    HW149970   3.543   9.684  10.170 -2.7058 -0.5979 -0.8226
47703SOL    HW249971   3.444   9.798  10.161  0.7589  2.7456  0.5767
47704SOL     OW49972   1.423   8.436  10.589 -0.5870  0.0706  0.0257
47704SOL    HW149973   1.388   8.443  10.500 -0.9663 -1.1419  0.0631
47704SOL    HW249974   1.441   8.527  10.615 -0.2505  0.4176 -1.3637
47705SOL     OW49975   5.416   6.074   7.547 -0.1983  0.0345 -0.2847
47705SOL    HW149976   5.342   6.090   7.605  0.0687  0.5879 -0.0987
47705SOL    HW249977   5.417   6.149   7.488  0.4068  0.1862 -0.0873
47706SOL     OW49978   4.857  11.737   8.821 -0.0111  0.0410  0.3212
47706SOL    HW149979   4.826  11.648   8.838  2.8451 -1.1817 -0.2800
47706SOL    HW249980   4.952  11.729   8.816  0.4857  3.3922  1.5936
47707SOL     OW49981   6.900   6.650   8.542 -0.0667  0.0836 -0.5103
47707SOL    HW149982   6.906   6.690   8.628  1.9595  2.4318 -1.6087
47707SOL    HW249983   6.819   6.684   8.505 -0.3080  0.0607 -0.0063
47708SOL     OW49984   4.913   3.080   7.950 -0.4530 -0.2269  0.3244
47708SOL    HW149985   4.870   3.068   8.034 -3.0154 -0.5686 -0.9364
47708SOL    HW249986   4.921   3.174   7.939 -0.2313 -0.1799  0.8855
47709SOL     OW49987   3.856   6.439   2.158 -0.4455 -0.1251  0.1563
47709SOL    HW149988   3.893   6.391   2.232 -1.0881 -1.1294 -0.1626
47709SOL    HW249989   3.930   6.488   2.121  0.1677 -0.6922  0.6210
47710SOL     OW49990   6.257   5.676   5.208 -0.4103  0.5829 -0.0755
47710SOL    HW149991   6.311   5.632   5.273 -0.6809  0.8715  0.3492
47710SOL    HW249992   6.253   5.767   5.237 -3.3293  0.1014  1.4721
47711SOL     OW49993   5.866  10.145   5.656  0.6391 -0.3638  0.6761
47711SOL    HW149994   5.777  10.174   5.638  0.7219 -0.3807  0.2206
47711SOL    HW249995   5.889  10.186   5.739  0.0075 -0.8116  1.0824
47712SOL     OW49996   2.565   0.022   9.494  0.2035  0.4649 -0.3444
47712SOL    HW149997   2.638  -0.018   9.447  0.9678  0.0749  1.1402
47712SOL    HW249998   2.546  -0.038   9.566 -2.4928 -0.1581 -1.4109
47713SOL     OW49999   2.195   0.275   9.464  0.4819 -0.0392  0.2267
47713SOL    HW150000   2.248   0.319   9.530  1.0109  0.4471 -0.5036
47713SOL    HW250001   2.253   0.269   9.388 -0.2084 -0.3405 -0.2790
47714SOL     OW50002  10.655   1.405   3.918 -0.4474 -0.2569  0.0901
47714SOL    HW150003  10.713   1.334   3.945  0.5253  0.7984  0.8797
47714SOL    HW250004  10.711   1.482   3.914 -1.5990  0.6027 -0.0949
47715SOL     OW50005  10.844   6.598   8.660 -0.1303  0.0887  0.4037
47715SOL    HW150006  10.786   6.671   8.679 -0.1280  0.0839  0.4292
47715SOL    HW250007  10.931   6.636   8.659 -0.2870  0.5793 -2.0084
47716SOL     OW50008  10.630   4.953   7.000 -0.1286 -0.1461 -0.8743
47716SOL    HW150009  10.536   4.961   6.985 -1.0325 -3.4895  1.8381
47716SOL    HW250010  10.651   4.863   6.975  2.0811  0.1227 -0.2312
47717SOL     OW50011  11.786   6.546   0.426  0.0230  0.2525  0.4603
47717SOL    HW150012  11.824   6.525   0.341 -0.9411 -0.1673  0.1179
47717SOL    HW250013  11.795   6.465   0.477 -0.1081  0.2530  0.4853
47718SOL     OW50014   3.374  11.018  10.410  0.4945 -0.5951 -0.4227
47718SOL    HW150015   3.410  11.089  10.462  1.4531 -0.4667 -1.2288
47718SOL    HW250016   3.391  11.044  10.319 -2.1293 -0.2685 -0.8885
47719SOL     OW50017   9.423   9.439   6.663 -0.3105 -0.4590  0.1674
47719SOL    HW150018   9.447   9.349   6.689 -2.3282 -1.0126  0.2612
47719SOL    HW250019   9.488   9.494   6.706  0.6657 -1.8438  0.5415
47720SOL     OW50020   7.353   9.743   9.078 -0.2395 -0.0349 -0.2510
47720SOL    HW150021   7.362   9.796   8.998 -1.6580  0.9700  0.2100
47720SOL    HW250022   7.280   9.683   9.059  1.3110 -1.8588 -0.7420
47721SOL     OW50023   0.426  11.185   9.627  0.2377  0.1743  0.7027
47721SOL    HW150024   0.503  11.220   9.580 -0.2940  1.5889  0.8401
47721SOL    HW250025   0.446  11.201   9.719 -1.2618  2.9872  0.6608
47722SOL     OW50026   9.824   7.923   1.205  0.8637 -0.1047  0.0582
47722SOL    HW150027   9.734   7.939   1.178  2.0616  1.6614 -3.4455
47722SOL    HW250028   9.851   8.005   1.248  1.3219  0.0619 -0.5408
47723SOL     OW50029   2.387   1.011   0.374 -0.3629 -0.3123  0.1730
47723SOL    HW150030   2.346   0.925   0.359  0.0254 -0.2958 -1.0401
47723SOL    HW250031   2.480   0.997   0.354  0.3662 -0.4168  3.1190
47724SOL     OW50032   1.059   8.370   4.679  0.4664  0.3643  0.8085
47724SOL    HW150033   1.152   8.358   4.699  0.8934  0.5652 -0.9203
47724SOL    HW250034   1.056   8.388   4.585 -1.3080  0.6165  0.8695
47725SOL     OW50035   5.206   1.330   9.269 -0.2236 -0.0942  0.1515
47725SOL    HW150036   5.199   1.237   9.289 -3.1206  0.0343  0.2316
47725SOL    HW250037   5.246   1.369   9.347  1.2492 -1.2715  0.0116
47726SOL     OW50038   1.222   7.098   7.302  0.4878  0.4329  0.2475
47726SOL    HW150039   1.186   7.035   7.239 -0.2937 -2.7640  3.5506
47726SOL    HW250040   1.307   7.061   7.326  0.3188  0.9831  1.7923
47727SOL     OW50041  11.495   4.209   1.736  0.3905 -0.2550  0.5535
47727SOL    HW150042  11.554   4.191   1.810 -0.3411 -1.3978  0.8863
47727SOL    HW250043  11.456   4.124   1.716 -1.1078  0.4561  0.3069
47728SOL     OW50044   4.862   0.191   2.305 -0.2825 -0.8441  0.4578
47728SOL    HW150045   4.937   0.236   2.267 -1.5930 -0.4510 -1.8796
47728SOL    HW250046   4.862   0.217   2.397  0.8567  1.3800 -0.0953
47729SOL     OW50047   0.196   1.233   8.955  0.2305  0.1647  0.1622
47729SOL    HW150048   0.150   1.278   9.027  0.3786  1.5009 -0.5468
47729SOL    HW250049   0.127   1.185   8.909 -0.3048  1.3146 -0.2716
47730SOL     OW50050   5.848   1.656   2.594 -0.0882 -0.0287  0.0685
47730SOL    HW150051   5.768   1.701   2.564 -0.2710  0.1631  0.8208
47730SOL    HW250052   5.915   1.683   2.532 -0.5333  0.0836 -0.3749
47731SOL     OW50053   4.063   5.383   3.393  0.2843 -0.3126  0.1506
47731SOL    HW150054   4.090   5.471   3.420 -0.8424 -0.0382  0.4446
47731SOL    HW250055   4.022   5.396   3.307 -0.1167 -0.5074  0.3111
47732SOL     OW50056  11.096   6.996  10.200  0.3017  0.6082 -0.3181
47732SOL    HW150057  11.186   6.985  10.169  0.3788 -0.2449  0.1781
47732SOL    HW250058  11.041   6.975  10.125  0.5144  1.2446 -0.6561
47733SOL     OW50059   6.117   7.754   0.373  0.1894 -0.0396 -0.1457
47733SOL    HW150060   6.142   7.846   0.385 -0.4498  0.1441 -0.1701
47733SOL    HW250061   6.195   7.704   0.398  0.2488  0.4810  0.7808
47734SOL     OW50062   3.211   7.160   7.341 -0.9474 -0.2623 -0.5964
47734SOL    HW150063   3.233   7.129   7.428 -0.6157 -0.9229 -0.9092
47734SOL    HW250064   3.166   7.243   7.356  1.8169  1.2360  0.0873
47735SOL     OW50065  10.197  12.265   0.736  0.2195  1.2660  0.1508
47735SOL    HW150066  10.196  12.235   0.826 -0.0435  1.6214  0.2698
47735SOL    HW250067  10.289  12.282   0.717  0.4731 -0.3510 -0.1779
47736SOL     OW50068   9.402   7.758   5.435  0.8631  0.5663  0.1014
47736SOL    HW150069   9.455   7.684   5.403  0.8156  0.5043  0.1656
47736SOL    HW250070   9.316   7.720   5.451  0.3345  1.0033 -1.5449
47737SOL     OW50071   2.238  11.241  11.366 -0.2609  0.5076 -0.0288
47737SOL    HW150072   2.211  11.243  11.458 -2.7580 -0.5381 -0.6617
47737SOL    HW250073   2.216  11.153  11.336  3.1775 -0.1800 -0.9680
47738SOL     OW50074   2.341   4.224  11.016  0.4643 -0.3000  0.5019
47738SOL    HW150075   2.406   4.274  11.066 -0.2020  0.9327  0.1715
47738SOL    HW250076   2.257   4.252  11.052  0.0545 -0.7566 -0.0987
47739SOL     OW50077   4.805  12.034   2.033  0.0980 -0.2642  0.8288
47739SOL    HW150078   4.782  12.126   2.050 -1.2451 -0.7454  1.8374
47739SOL    HW250079   4.760  12.013   1.952 -0.1542 -0.2086  0.9517
47740SOL     OW50080   5.479   4.341   0.877  0.3718 -0.0406  0.0765
47740SOL    HW150081   5.498   4.418   0.823  1.4056 -0.5415 -0.3036
47740SOL    HW250082   5.414   4.372   0.940  0.1421  0.9144 -0.6032
47741SOL     OW50083   5.215   7.490   8.188 -0.3578 -0.1748  0.4851
47741SOL    HW150084   5.219   7.556   8.118  3.3855 -0.7506 -0.0745
47741SOL    HW250085   5.195   7.541   8.267  1.4287  1.5813 -0.0977
47742SOL     OW50086   4.897   4.482   2.662 -0.2978  0.1238 -0.2107
47742SOL    HW150087   4.825   4.455   2.606 -1.5490 -0.9965  1.7859
47742SOL    HW250088   4.863   4.557   2.711  0.7257  1.0221 -0.8387
47743SOL     OW50089   2.124   3.551  10.174 -0.1810  0.3196 -0.2063
47743SOL    HW150090   2.102   3.583  10.261 -1.5844  0.6364 -0.6443
47743SOL    HW250091   2.124   3.629  10.119 -0.4088 -0.0074 -0.6809
47744SOL     OW50092   7.248   2.108  12.316  0.3005  0.6250  0.5088
47744SOL    HW150093   7.328   2.157  12.297  0.9787  0.0192  1.6825
47744SOL    HW250094   7.268   2.060  12.397 -1.0868  0.0919  0.5597
47745SOL     OW50095  10.781  11.425  10.289  0.0855  0.1501  0.4112
47745SOL    HW150096  10.846  11.427  10.360  0.2870 -2.2714  0.3566
47745SOL    HW250097  10.810  11.355  10.231 -1.9388 -0.2083 -0.2478
47746SOL     OW50098   9.113   6.867   4.643  0.4856 -0.1768  0.0854
47746SOL    HW150099   9.112   6.893   4.551 -2.2389 -0.5300 -0.0488
47746SOL    HW250100   9.109   6.771   4.641 -1.1578 -0.1467  0.5156
47747SOL     OW50101   4.434  11.995   1.094  0.7500  0.7098  0.0782
47747SOL    HW150102   4.359  11.946   1.129  0.8408  1.5796  1.5713
47747SOL    HW250103   4.399  12.081   1.072  1.1922  0.9489  0.2899
47748SOL     OW50104   8.027  12.175   4.743 -0.4765  0.2605  0.0020
47748SOL    HW150105   8.119  12.195   4.726 -0.6005  0.0859 -0.9227
47748SOL    HW250106   7.979  12.231   4.682 -1.0792  1.7943  1.7945
47749SOL     OW50107  11.464   4.447  12.222  0.1128 -0.6992  0.2052
47749SOL    HW150108  11.378   4.412  12.242 -0.1549 -0.2663 -0.1546
47749SOL    HW250109  11.501   4.471  12.307 -0.6451  0.2985  0.2793
47750SOL     OW50110   6.064   8.718   5.985  0.1127  0.7147  0.0122
47750SOL    HW150111   6.130   8.786   6.002  1.3395 -0.5125  0.3128
47750SOL    HW250112   6.037   8.733   5.894  2.6664 -0.2632 -0.9900
47751SOL     OW50113  11.196   8.759   2.117  0.0082 -0.2625  0.1641
47751SOL    HW150114  11.136   8.769   2.042 -0.8585 -0.7271  0.7734
47751SOL    HW250115  11.283   8.767   2.079 -0.3705 -1.7091 -1.1226
47752SOL     OW50116   2.087   4.551   2.753 -0.1575 -0.0525  0.4311
47752SOL    HW150117   2.149   4.573   2.823 -1.4829  1.4090  1.2143
47752SOL    HW250118   2.018   4.616   2.762 -0.3948  0.1629 -2.2448
47753SOL     OW50119   4.062   7.042   9.983 -0.0481 -0.5141 -0.4299
47753SOL    HW150120   4.068   7.020  10.076  1.8752  0.9770 -0.1482
47753SOL    HW250121   4.125   6.983   9.941 -0.2364 -0.5498 -0.6640
47754SOL     OW50122  12.109   7.546   9.698 -0.2011 -0.2192 -0.0649
47754SOL    HW150123  12.148   7.558   9.612  0.1078  1.2246  0.2599
47754SOL    HW250124  12.182   7.559   9.759 -0.4241 -1.1863  0.4328
47755SOL     OW50125   3.156   4.264   4.780 -0.0532  0.4138  0.0117
47755SOL    HW150126   3.101   4.340   4.763  2.5143  2.2228 -0.7568
47755SOL    HW250127   3.216   4.293   4.848  1.2298 -0.7615 -0.5753
47756SOL     OW50128   0.800   4.050   9.578  0.5248  0.2869  0.1902
47756SOL    HW150129   0.756   3.971   9.608  0.3063  0.1131 -0.5557
47756SOL    HW250130   0.889   4.043   9.612  0.6454 -0.5200 -0.2647
47757SOL     OW50131   0.576   4.593   1.453  0.0329 -0.6647 -0.4092
47757SOL    HW150132   0.502   4.648   1.428  1.4738  0.3801 -2.7914
47757SOL    HW250133   0.616   4.566   1.369  2.2576 -1.2602  0.7445
47758SOL     OW50134   9.948   3.295   2.886  0.2674  0.0548 -0.2509
47758SOL    HW150135   9.934   3.331   2.799 -0.0503  0.2249 -0.1295
47758SOL    HW250136   9.871   3.241   2.903 -0.0834  0.6980  0.2672
47759SOL     OW50137  11.747   2.818   6.135  0.5982  0.2881  0.6925
47759SOL    HW150138  11.659   2.797   6.103 -0.1864  4.2712 -0.3071
47759SOL    HW250139  11.784   2.733   6.160 -3.1993 -1.6675  0.4607
47760SOL     OW50140   4.247   7.409   8.203 -0.0106  0.3536 -0.1092
47760SOL    HW150141   4.177   7.467   8.172 -0.4792  0.1768  0.5972
47760SOL    HW250142   4.294   7.385   8.123 -0.7801  0.4474 -0.6124
47761SOL     OW50143  12.334   7.088   3.458 -0.1889 -0.1347 -0.4190
47761SOL    HW150144  12.347   7.051   3.546  0.5992  0.1954 -0.3914
47761SOL    HW250145  12.333   7.012   3.400 -0.1964 -0.3172 -0.1824
47762SOL     OW50146   5.735   9.051   0.264 -0.1698  0.4866 -0.3463
47762SOL    HW150147   5.689   9.098   0.333 -1.1218  1.4793 -1.6136
47762SOL    HW250148   5.726   8.959   0.287 -1.7693  0.7258  0.0792
47763SOL     OW50149   1.701   4.007   2.296  0.2004 -0.4478 -0.1516
47763SOL    HW150150   1.746   4.087   2.270 -2.2551  1.1425  0.1806
47763SOL    HW250151   1.761   3.964   2.357  1.5341  1.1759 -0.2492
47764SOL     OW50152   3.654  11.899   8.416  0.0938 -0.1378  0.2975
47764SOL    HW150153   3.593  11.825   8.413 -0.0081 -0.0188 -0.6583
47764SOL    HW250154   3.603  11.969   8.457 -0.2116 -0.2176  0.0524
47765SOL     OW50155   9.449   9.782   1.318  0.3060 -0.0952 -0.4262
47765SOL    HW150156   9.470   9.875   1.315 -1.4664  0.3187 -1.9765
47765SOL    HW250157   9.420   9.766   1.408 -2.9776  1.7999 -1.0002
47766SOL     OW50158   8.186   5.142   4.797 -0.4567  0.2912 -0.3016
47766SOL    HW150159   8.111   5.142   4.737 -0.4343  0.5729 -0.3317
47766SOL    HW250160   8.156   5.192   4.873 -0.5801 -0.3025  0.0445
47767SOL     OW50161   3.454   6.583  11.297  0.5944 -0.1150 -0.1594
47767SOL    HW150162   3.467   6.634  11.376  0.6074  0.9931 -0.8557
47767SOL    HW250163   3.480   6.494  11.321  1.6842  0.4262  0.7668
47768SOL     OW50164  12.175   7.997   6.054  0.2350  0.1974  0.1057
47768SOL    HW150165  12.131   8.069   6.009 -3.3590 -1.7059  0.1942
47768SOL    HW250166  12.225   7.952   5.986 -1.0619  0.2823 -0.9447
47769SOL     OW50167   7.710   1.852   7.043  0.0052  0.5587 -0.9210
47769SOL    HW150168   7.794   1.822   7.008  0.6771 -1.1476  1.9273
47769SOL    HW250169   7.671   1.902   6.970  4.2400  3.0965 -1.8059
47770SOL     OW50170   1.815   4.765   1.083 -0.6174  0.6992  0.1544
47770SOL    HW150171   1.754   4.830   1.046  0.1443  0.5055 -1.5720
47770SOL    HW250172   1.813   4.693   1.020  0.2394  0.0213  0.8795
47771SOL     OW50173   4.664   9.297   6.311 -0.2939  0.2004 -0.0708
47771SOL    HW150174   4.717   9.376   6.296  1.8114 -1.0427  0.3667
47771SOL    HW250175   4.671   9.248   6.229  0.3166 -0.5624  0.4252
47772SOL     OW50176   4.066   6.141   9.395  0.6220  0.8512  0.4241
47772SOL    HW150177   4.033   6.227   9.371 -0.9302  0.2951  0.4511
47772SOL    HW250178   3.988   6.086   9.404  1.6223 -1.1308 -1.7313
47773SOL     OW50179   8.163   3.468   1.882  0.5748  0.1943  0.3098
47773SOL    HW150180   8.227   3.403   1.853 -1.5921 -1.3176 -1.4238
47773SOL    HW250181   8.159   3.457   1.977  1.1498 -1.3416  0.1785
47774SOL     OW50182   6.448   8.446  10.491  0.1511 -0.2821 -0.0544
47774SOL    HW150183   6.473   8.531  10.525  0.3065 -0.8972  1.4169
47774SOL    HW250184   6.466   8.452  10.397  1.4981  0.8213  0.2395
47775SOL     OW50185   0.388   6.900   0.784 -0.6533  0.0274  0.4853
47775SOL    HW150186   0.402   6.994   0.796 -0.2547  0.2113 -1.2033
47775SOL    HW250187   0.294   6.889   0.794 -0.6322  0.4902  1.3324
47776SOL     OW50188   7.319   4.912   1.981  0.8187  0.0498 -0.7459
47776SOL    HW150189   7.350   4.904   2.071 -3.0490  0.7602  0.8643
47776SOL    HW250190   7.377   4.977   1.941  2.6173 -0.2500  1.1895
47777SOL     OW50191   8.214   3.367   0.214 -0.3032  0.2821  0.0373
47777SOL    HW150192   8.266   3.448   0.210  0.0015  0.0844 -0.0450
47777SOL    HW250193   8.272   3.303   0.256 -1.4333  0.7967  2.6294
47778SOL     OW50194  10.691   6.841   5.849  0.3343  0.2572 -0.1252
47778SOL    HW150195  10.672   6.915   5.791 -1.6891  0.5284  0.8140
47778SOL    HW250196  10.614   6.833   5.904  1.6921 -0.7718  1.7302
47779SOL     OW50197   7.754   2.118   9.644 -0.0681  0.2590 -0.1853
47779SOL    HW150198   7.780   2.032   9.611 -0.1256 -0.3216  1.1804
47779SOL    HW250199   7.733   2.169   9.566  0.9742 -0.6325 -1.0788
47780SOL     OW50200  10.830   6.676  10.913  0.5345  0.6286 -0.1818
47780SOL    HW150201  10.842   6.631  10.829  0.1403 -1.1169  0.6601
47780SOL    HW250202  10.918   6.676  10.952  0.6343  1.0599 -0.4000
47781SOL     OW50203  12.238   8.525   6.571 -0.2505  0.2507  0.0001
47781SOL    HW150204  12.252   8.488   6.484 -0.0257 -1.6414  0.8019
47781SOL    HW250205  12.315   8.499   6.621 -0.9989  0.1497  1.1261
47782SOL     OW50206   8.306   0.900   6.751  0.0513 -0.2384  0.6192
47782SOL    HW150207   8.321   0.854   6.834 -1.1497 -0.7746  0.5589
47782SOL    HW250208   8.344   0.844   6.684 -0.1960 -0.4797  0.6797
47783SOL     OW50209   6.532   6.780   6.323  0.5655  0.3272  0.1760
47783SOL    HW150210   6.508   6.701   6.371 -2.7229  1.2301  0.2538
47783SOL    HW250211   6.541   6.751   6.232  0.2401 -0.2650  0.3277
47784SOL     OW50212  11.113   8.740   9.981 -0.5038  0.1209  0.2074
47784SOL    HW150213  11.126   8.824  10.026  0.1605 -0.3479  0.9340
47784SOL    HW250214  11.202   8.713   9.956 -0.8588  0.3502 -1.3760
47785SOL     OW50215   2.884   5.340   7.153 -0.3232 -0.0342  0.4757
47785SOL    HW150216   2.890   5.395   7.232  2.0094 -0.6078  0.7896
47785SOL    HW250217   2.925   5.393   7.085  1.3846 -1.0424  0.6425
47786SOL     OW50218   3.449   3.694   0.627  0.0508  0.5212  0.3452
47786SOL    HW150219   3.515   3.640   0.670 -0.6133  0.4411  1.2939
47786SOL    HW250220   3.423   3.758   0.693  1.2006  2.3716 -0.9303
47787SOL     OW50221   3.993   0.068   1.316 -1.1719  0.0734  0.0690
47787SOL    HW150222   4.081   0.065   1.354 -0.4165 -0.7046 -1.6592
47787SOL    HW250223   4.006   0.094   1.225 -2.8388  0.9142  0.0246
47788SOL     OW50224   7.511   5.030  12.366 -0.0011  0.7602  0.8081
47788SOL    HW150225   7.599   5.051  12.398  0.1010  0.2598  0.8560
47788SOL    HW250226   7.512   5.053  12.274  0.0595  1.1211  0.8978
47789SOL     OW50227  10.068  10.961   3.213  0.0730  0.1172 -0.3184
47789SOL    HW150228  10.031  11.042   3.248 -1.8233 -1.4785  1.6848
47789SOL    HW250229  10.161  10.966   3.235  0.0916  1.8698 -0.5914
47790SOL     OW50230   7.529  10.433  12.082  0.2052 -0.6815  0.3220
47790SOL    HW150231   7.463  10.502  12.088  1.1431  0.2719 -0.0822
47790SOL    HW250232   7.505  10.371  12.151 -1.3463 -0.5792 -0.0868
47791SOL     OW50233   0.484   5.570   0.929 -0.1499  0.5139  0.1334
47791SOL    HW150234   0.437   5.588   0.848 -0.8177 -0.7547  0.2043
47791SOL    HW250235   0.420   5.588   0.998 -0.2727 -0.3809  0.2691
47792SOL     OW50236   8.882   7.668   2.664  0.0713  0.1217  0.1875
47792SOL    HW150237   8.812   7.642   2.604  0.2384 -0.6434  0.3137
47792SOL    HW250238   8.868   7.614   2.742  1.0783 -0.3903  0.0256
47793SOL     OW50239   0.634   5.915   4.445  0.6677  0.0587  0.6923
47793SOL    HW150240   0.670   5.964   4.519  0.6908  3.0274 -1.1216
47793SOL    HW250241   0.712   5.879   4.401  0.6314 -2.0576  2.2131
47794SOL     OW50242  10.652   2.366   2.167  0.0528 -0.4214  0.0821
47794SOL    HW150243  10.658   2.349   2.073 -1.3582  0.6765 -0.2518
47794SOL    HW250244  10.572   2.320   2.195  1.3222 -2.1165  1.1275
47795SOL     OW50245   2.335  12.325   3.013 -0.0220 -0.1261  0.1561
47795SOL    HW150246   2.265  12.356   2.955 -1.4229  0.0694  1.8710
47795SOL    HW250247   2.415  12.338   2.963 -1.2031 -0.5425 -1.9663
47796SOL     OW50248   9.374   2.387  12.431 -0.1712  0.3188  0.5745
47796SOL    HW150249   9.410   2.308  12.389 -2.2101 -0.9099  1.0109
47796SOL    HW250250   9.438   2.409  12.499 -0.1733 -1.7616  1.3252
47797SOL     OW50251   0.020  12.480  11.507  1.0154  0.3009 -0.0813
47797SOL    HW150252   0.085  12.490  11.577  2.2195  1.0975 -1.2620
47797SOL    HW250253  -0.063  12.506  11.548  1.3800 -0.8700  1.4991
47798SOL     OW50254   3.856   3.463   7.977 -0.0567 -0.3556  0.0161
47798SOL    HW150255   3.851   3.521   7.901 -2.2916  0.6391  0.8459
47798SOL    HW250256   3.887   3.519   8.048  1.8760 -1.2456 -0.0603
47799SOL     OW50257   4.004  12.167  11.096  0.7145 -0.3836  0.2487
47799SOL    HW150258   4.025  12.250  11.053 -2.4139  0.5118  0.1936
47799SOL    HW250259   3.988  12.191  11.187 -0.4296 -0.8378  0.1863
47800SOL     OW50260   4.017   3.019   6.647 -0.0166 -0.0278 -0.3631
47800SOL    HW150261   4.105   3.019   6.609  0.1200 -0.7954 -0.0698
47800SOL    HW250262   4.025   2.964   6.724 -0.5722  0.5663  0.1256
47801SOL     OW50263   0.322   3.332   2.779  0.2468 -0.3705  0.0230
47801SOL    HW150264   0.409   3.350   2.744  0.4519 -1.5702 -0.1438
47801SOL    HW250265   0.268   3.313   2.702  0.6157 -2.6738  0.2716
47802SOL     OW50266   9.108   1.143   4.149 -0.6911  0.0974  0.2195
47802SOL    HW150267   9.013   1.144   4.163 -0.7307 -2.4496  0.6190
47802SOL    HW250268   9.145   1.163   4.235 -0.7979  2.2368 -0.1771
47803SOL     OW50269   3.708   0.852   2.658  0.0449 -0.2444 -0.3528
47803SOL    HW150270   3.624   0.884   2.625  0.0527 -0.6208 -0.7597
47803SOL    HW250271   3.686   0.768   2.699  0.4290 -1.0664 -1.7652
47804SOL     OW50272   2.818  10.809   7.307  0.3999  0.0650 -0.9237
47804SOL    HW150273   2.820  10.869   7.381 -1.3232 -0.1369 -0.6724
47804SOL    HW250274   2.836  10.864   7.231  1.2278  0.4402 -0.4714
47805SOL     OW50275   4.258   9.327  10.150  0.1573  0.7792  0.3062
47805SOL    HW150276   4.169   9.362  10.143 -0.0256  0.2323 -0.1541
47805SOL    HW250277   4.313   9.395  10.110 -0.2921  0.1820 -1.4102
47806SOL     OW50278   4.715   0.380   9.832 -0.1682  0.4865 -0.2925
47806SOL    HW150279   4.646   0.446   9.823  0.6924  1.3475 -0.6482
47806SOL    HW250280   4.694   0.335   9.914 -0.8575  1.0758 -0.1302
47807SOL     OW50281   4.661   7.524   4.405  0.1222  0.1760  0.1834
47807SOL    HW150282   4.739   7.474   4.429 -0.5154  0.1761  2.4391
47807SOL    HW250283   4.683   7.563   4.320  1.7023 -1.6249 -0.3028
47808SOL     OW50284   4.157  10.331   3.498  0.4193 -0.2918  0.1090
47808SOL    HW150285   4.071  10.329   3.456 -0.4156 -0.1368  1.7342
47808SOL    HW250286   4.218  10.345   3.426 -0.8036 -1.4844 -1.2291
47809SOL     OW50287  11.257   7.121   1.435 -0.2215 -0.1161 -0.3510
47809SOL    HW150288  11.297   7.180   1.498 -0.1567  0.1513 -0.6373
47809SOL    HW250289  11.314   7.044   1.434 -1.3072 -0.9879  1.3772
47810SOL     OW50290   9.715   1.693   7.362  0.5797  0.1622 -0.0056
47810SOL    HW150291   9.660   1.626   7.322 -0.0711  1.7130 -1.8530
47810SOL    HW250292   9.690   1.692   7.454 -0.4680 -1.1301 -0.2709
47811SOL     OW50293   0.877   2.374   4.563  0.1401 -0.3464  0.0796
47811SOL    HW150294   0.783   2.366   4.549 -0.0812  0.9277  0.7520
47811SOL    HW250295   0.903   2.450   4.511  0.4397  0.4939  1.4240
47812SOL     OW50296   2.778   2.959   9.676 -0.2110  0.3717  0.1625
47812SOL    HW150297   2.729   2.908   9.741  0.8230 -0.9963 -0.0758
47812SOL    HW250298   2.711   2.995   9.618 -1.0003 -0.5400  0.4808
47813SOL     OW50299   5.465  11.266   2.210  0.4486 -0.1247 -0.8781
47813SOL    HW150300   5.496  11.274   2.300 -1.1843 -0.6413 -0.2410
47813SOL    HW250301   5.447  11.356   2.183  0.7294  0.0101 -0.6232
47814SOL     OW50302   4.074  12.335   5.675 -0.5182 -0.3077 -0.1337
47814SOL    HW150303   4.170  12.336   5.680 -0.5517 -0.9389  2.3328
47814SOL    HW250304   4.050  12.427   5.666  0.3295  0.0474  0.8775
47815SOL     OW50305   7.923   9.873   6.614  0.3224  0.1494  0.3050
47815SOL    HW150306   7.850   9.931   6.635  0.4548  0.9044 -1.1794
47815SOL    HW250307   8.000   9.930   6.609  1.0313 -0.6207  1.7643
47816SOL     OW50308   7.465   8.513   7.254  0.1652  0.2945  0.0911
47816SOL    HW150309   7.497   8.488   7.167 -0.2079 -0.3811  0.1393
47816SOL    HW250310   7.502   8.447   7.312 -0.4896  0.1058  0.2889
47817SOL     OW50311   3.641   4.414   7.516  0.3131  0.2953  0.1064
47817SOL    HW150312   3.724   4.368   7.509  0.5319  0.8194 -1.0139
47817SOL    HW250313   3.578   4.347   7.544  0.7809 -0.5044 -0.7107
47818SOL     OW50314  11.566  10.044   5.813  0.1732  0.3520 -0.4226
47818SOL    HW150315  11.587  10.134   5.838  1.1410 -0.1868  0.8303
47818SOL    HW250316  11.586  10.040   5.719 -1.4188  1.8377 -0.8691
47819SOL     OW50317   9.625   9.394  10.931  0.6550 -0.1431 -0.1860
47819SOL    HW150318   9.582   9.458  10.988  0.4173 -0.8651  0.4648
47819SOL    HW250319   9.713   9.383  10.969 -0.3089 -2.4689  1.6009
47820SOL     OW50320   0.170   3.810  10.923  0.5985 -1.1019 -0.1176
47820SOL    HW150321   0.258   3.847  10.913  0.7283 -1.8167 -1.8505
47820SOL    HW250322   0.180   3.743  10.990  1.6248 -1.8745 -1.0102
47821SOL     OW50323   4.880   3.303  12.322  0.1288 -0.3995 -0.2178
47821SOL    HW150324   4.882   3.283  12.416  3.5489 -0.2835 -0.1292
47821SOL    HW250325   4.856   3.395  12.318 -0.6851 -0.5643  0.4750
47822SOL     OW50326  11.082   1.320   0.170 -0.6333 -0.0363 -0.2183
47822SOL    HW150327  10.993   1.342   0.145 -0.8092 -1.8639 -1.4830
47822SOL    HW250328  11.103   1.243   0.117  0.7804 -1.2242  1.8970
47823SOL     OW50329  12.024  12.377  12.231 -0.0852  0.3693 -0.0966
47823SOL    HW150330  12.015  12.456  12.177  2.0775  0.7402  0.0064
47823SOL    HW250331  12.025  12.409  12.321  1.1560  0.3079 -0.0657
47824SOL     OW50332  11.351   0.394   3.335  0.7329 -0.1544  0.5594
47824SOL    HW150333  11.420   0.329   3.320  0.9574  0.1520  0.2487
47824SOL    HW250334  11.272   0.352   3.303  0.8365 -0.3665  0.5780
47825SOL     OW50335   6.246   8.024  10.123  0.2119 -0.5401  0.0629
47825SOL    HW150336   6.276   8.004  10.212 -0.0033 -0.6188  0.1191
47825SOL    HW250337   6.315   8.079  10.086  1.0396 -1.7460 -0.2491
47826SOL     OW50338   9.781   8.261   5.868  0.0858  0.0560  0.4416
47826SOL    HW150339   9.770   8.326   5.798 -0.2418  1.9490  2.1506
47826SOL    HW250340   9.727   8.187   5.841 -1.0261  1.2482 -0.7188
47827SOL     OW50341   3.860   3.380   4.500  0.0324 -0.0672  0.0781
47827SOL    HW150342   3.865   3.376   4.595 -0.9231  1.3410  0.2257
47827SOL    HW250343   3.950   3.369   4.471  0.6252  1.2718  1.2619
47828SOL     OW50344   8.142   1.063   0.906  0.4482 -0.0972 -0.4385
47828SOL    HW150345   8.222   1.113   0.926  2.2787 -3.3391  1.2022
47828SOL    HW250346   8.088   1.071   0.984  0.2572  0.1494 -0.5946
47829SOL     OW50347   9.271   3.850   6.206  0.4101 -0.1680  0.3235
47829SOL    HW150348   9.360   3.884   6.191  0.5951  0.2737  2.1361
47829SOL    HW250349   9.282   3.788   6.278 -0.8339  0.3632  0.9991
47830SOL     OW50350   9.549  11.938  10.479  0.3410  0.1543 -0.1412
47830SOL    HW150351   9.617  11.944  10.545  1.9260 -1.2346 -1.5600
47830SOL    HW250352   9.570  12.006  10.416  0.9200 -0.7799 -0.9867
47831SOL     OW50353   4.192   0.350   7.378 -0.4741 -0.6249  0.1848
47831SOL    HW150354   4.109   0.357   7.424  0.0345 -1.1554  1.2284
47831SOL    HW250355   4.214   0.439   7.353 -1.9992 -0.6276 -1.3203
47832SOL     OW50356  12.057   4.543  10.874  0.2775 -0.1022 -0.5957
47832SOL    HW150357  12.092   4.535  10.786 -0.8322 -0.2151 -1.0427
47832SOL    HW250358  12.046   4.637  10.888  1.0576 -0.0444 -0.3201
47833SOL     OW50359  11.524  10.469   0.741  0.2575  0.0411  0.1834
47833SOL    HW150360  11.491  10.430   0.661 -2.6579 -0.1090  1.3527
47833SOL    HW250361  11.511  10.563   0.729 -1.9240 -0.0991  1.1310
47834SOL     OW50362   7.042   2.986   9.601 -0.0642  0.1040  0.1852
47834SOL    HW150363   7.034   3.002   9.507  0.6200 -0.8749 -0.0478
47834SOL    HW250364   7.056   2.892   9.609  1.0472  0.3241  1.1902
47835SOL     OW50365   9.433   1.085   7.457 -0.1936  0.2250 -0.3427
47835SOL    HW150366   9.476   1.167   7.434  0.9347  0.0784  1.0357
47835SOL    HW250367   9.343   1.095   7.429  0.3212  1.2735 -1.6927
47836SOL     OW50368  11.824   8.863   9.996  0.1863 -0.4208 -0.3726
47836SOL    HW150369  11.791   8.916   9.924  0.3118 -0.0509 -0.1664
47836SOL    HW250370  11.746   8.838  10.046  0.2340  0.9116  0.4269
47837SOL     OW50371   1.944   6.685   3.175  0.6720 -0.1916 -0.1103
47837SOL    HW150372   1.995   6.608   3.154  0.4030 -0.7219  1.0799
47837SOL    HW250373   1.947   6.691   3.271 -0.2833  0.5938 -0.1066
47838SOL     OW50374   3.242  11.087   0.914 -0.9626  0.1703 -0.7080
47838SOL    HW150375   3.220  11.025   0.984  0.3157 -0.5189 -0.8844
47838SOL    HW250376   3.265  11.168   0.960  1.0992 -0.6437 -0.2018
47839SOL     OW50377   7.956  10.857   6.191  0.3041  0.1891  0.0361
47839SOL    HW150378   7.893  10.805   6.239 -0.3696  0.4297 -0.5695
47839SOL    HW250379   7.989  10.799   6.122 -0.5721  0.5916 -0.7446
47840SOL     OW50380  10.492   4.137  12.420 -0.1028 -0.4696  0.0392
47840SOL    HW150381  10.476   4.213  12.363  0.8787  1.1565  1.8201
47840SOL    HW250382  10.421   4.139  12.483  2.2153  1.8149  2.8719
47841SOL     OW50383  10.160   3.288  11.551  0.0266 -0.0519  0.5812
47841SOL    HW150384  10.169   3.376  11.588  1.8473  0.3085 -0.5892
47841SOL    HW250385  10.229   3.283  11.485 -0.2397 -2.2777  0.4128
47842SOL     OW50386   0.851  11.405   7.267  0.4009 -0.3697  0.3122
47842SOL    HW150387   0.866  11.331   7.208 -0.2373 -0.2827  0.0226
47842SOL    HW250388   0.935  11.420   7.310  0.6659 -0.9428  0.0032
47843SOL     OW50389   9.568   3.720   7.502  0.4759 -0.0551 -0.3220
47843SOL    HW150390   9.611   3.652   7.450 -2.3747 -2.4099  0.1586
47843SOL    HW250391   9.483   3.732   7.459 -0.1610  1.2265  1.2188
47844SOL     OW50392  11.372   2.299   7.398  0.8373 -0.3332  0.0035
47844SOL    HW150393  11.461   2.306   7.364  0.8681 -0.2007  0.1147
47844SOL    HW250394  11.378   2.329   7.489  0.8975 -1.3691  0.3577
47845SOL     OW50395   4.854   0.948   1.519 -0.3935  0.7884  0.3237
47845SOL    HW150396   4.939   0.992   1.522  0.3380 -0.5962  1.9242
47845SOL    HW250397   4.843   0.923   1.428  1.1469  0.6249  0.1550
47846SOL     OW50398   1.969   5.730   6.073  0.3549 -0.2399 -0.0026
47846SOL    HW150399   1.924   5.782   6.007  0.3493  1.0808  0.9993
47846SOL    HW250400   1.903   5.668   6.105  0.2537 -0.6260 -0.9385
47847SOL     OW50401   9.974   4.039   0.806 -0.2318  0.1913  0.1035
47847SOL    HW150402   9.926   4.039   0.888  1.6347 -1.7730  1.2782
47847SOL    HW250403   9.925   3.980   0.749 -2.1105  2.3497 -0.6619
47848SOL     OW50404   2.126  11.362   0.682  0.0948  0.0558 -0.7909
47848SOL    HW150405   2.202  11.418   0.671 -1.1926  2.0986  0.0897
47848SOL    HW250406   2.118  11.350   0.777 -0.4183 -0.5015 -0.8971
47849SOL     OW50407   3.830   9.626   2.703  0.3893 -0.3501 -0.1632
47849SOL    HW150408   3.846   9.610   2.796  1.1539  1.2084  0.0139
47849SOL    HW250409   3.890   9.697   2.680  0.2505 -0.7305 -1.8686
47850SOL     OW50410   7.360   6.647   1.402 -0.0051 -0.5845  0.6722
47850SOL    HW150411   7.264   6.649   1.401 -0.0072 -0.3069 -1.0512
47850SOL    HW250412   7.384   6.702   1.477 -1.1841  1.3352 -0.2747
47851SOL     OW50413   1.594   5.319   1.652 -0.4092  0.2788 -0.3119
47851SOL    HW150414   1.640   5.276   1.580 -1.0998  0.4568 -0.8733
47851SOL    HW250415   1.561   5.248   1.706 -2.1536  0.0301 -1.6152
47852SOL     OW50416   9.001   1.522   4.361 -0.3150  0.4753 -0.2515
47852SOL    HW150417   8.915   1.504   4.399 -0.2148  1.6127  0.5389
47852SOL    HW250418   8.982   1.554   4.273 -0.5846 -1.3442 -0.8952
47853SOL     OW50419   2.282   4.339   1.767 -0.3704  0.0897 -0.1349
47853SOL    HW150420   2.364   4.294   1.749 -0.8626  0.0183 -2.6159
47853SOL    HW250421   2.306   4.432   1.772  0.2248 -0.1293  2.1103
47854SOL     OW50422   3.876  11.926  12.105 -0.0415 -0.4456  0.0531
47854SOL    HW150423   3.856  11.844  12.150 -0.8424  1.3484  3.3117
47854SOL    HW250424   3.820  11.991  12.148 -1.4435  1.4646 -4.1664
47855SOL     OW50425   2.871   9.685   4.335  0.6946 -0.2312  0.4710
47855SOL    HW150426   2.784   9.650   4.318  0.6243  0.7790 -1.4355
47855SOL    HW250427   2.931   9.616   4.309  0.4998  0.0844 -0.8700
47856SOL     OW50428   8.384  11.039  10.401 -0.0992  0.4119  0.1497
47856SOL    HW150429   8.314  10.973  10.402  0.0367  0.1151 -2.5263
47856SOL    HW250430   8.457  10.997  10.447 -0.4707 -0.7814 -0.2969
47857SOL     OW50431  10.773   0.889  11.289 -0.2473  0.7001  0.0415
47857SOL    HW150432  10.714   0.853  11.355 -0.0018 -0.6074 -0.4213
47857SOL    HW250433  10.846   0.924  11.339 -0.7612  1.0952  0.5391
47858SOL     OW50434   1.374   4.603  10.622  0.6703  0.3620  0.5925
47858SOL    HW150435   1.342   4.525  10.667  1.0642 -0.1767 -0.0346
47858SOL    HW250436   1.348   4.676  10.678  2.1087 -0.3526  2.2838
47859SOL     OW50437   2.132   7.136   6.578 -0.2934  0.3333  0.2931
47859SOL    HW150438   2.093   7.190   6.509  1.1831  1.9731  0.6381
47859SOL    HW250439   2.171   7.062   6.532 -0.1264  0.9284 -0.5446
47860SOL     OW50440   8.935   6.244   7.074  0.1640 -0.3622 -0.6514
47860SOL    HW150441   8.919   6.205   6.988  0.2279 -1.9007 -0.0003
47860SOL    HW250442   8.989   6.180   7.120  1.0712  0.9338  0.1676
47861SOL     OW50443   3.766   9.646   5.341 -0.3209  0.5583  0.0208
47861SOL    HW150444   3.678   9.653   5.304 -0.7660  2.4147  1.2859
47861SOL    HW250445   3.778   9.727   5.390  1.8854  0.0900  0.3781
47862SOL     OW50446   5.739   1.166   7.794 -0.2165  0.1601  0.5939
47862SOL    HW150447   5.790   1.190   7.717 -0.6229  2.2254  0.9276
47862SOL    HW250448   5.656   1.211   7.784 -0.6589 -0.3374  1.7723
47863SOL     OW50449   1.455   0.103  11.332 -0.7427  0.5863 -0.4054
47863SOL    HW150450   1.517   0.061  11.392 -2.0853  0.1899  0.7489
47863SOL    HW250451   1.431   0.185  11.375 -2.3724 -0.1005  0.0690
47864SOL     OW50452   6.145   3.422  10.369 -0.0416 -0.3203  0.3771
47864SOL    HW150453   6.227   3.432  10.418 -1.8348  1.5095  3.2926
47864SOL    HW250454   6.172   3.423  10.277  3.1680  0.4026  1.2061
47865SOL     OW50455   3.904  11.405   6.577  0.5712 -0.1025  0.4411
47865SOL    HW150456   3.837  11.436   6.638  1.0383  1.2806  0.2961
47865SOL    HW250457   3.987  11.438   6.614  1.1008 -1.1570  0.2341
47866SOL     OW50458   6.662   4.837   2.385 -0.3623 -0.1505  0.5413
47866SOL    HW150459   6.703   4.913   2.345 -1.4740  0.3493  0.3143
47866SOL    HW250460   6.719   4.763   2.361  1.5897  0.7551  2.0351
47867SOL     OW50461   8.940  12.417   8.256 -0.6750  0.0001  0.2351
47867SOL    HW150462   8.871  12.406   8.191 -0.0076 -0.0252 -0.4774
47867SOL    HW250463   8.992  12.491   8.224 -0.3400 -0.0113  0.7417
47868SOL     OW50464   8.786   2.205   3.354 -0.1339  0.2102  0.2853
47868SOL    HW150465   8.798   2.273   3.288  0.3562  0.1365  0.2936
47868SOL    HW250466   8.825   2.127   3.314 -3.1693 -0.8421 -0.9579
47869SOL     OW50467   0.128   7.044   7.371  0.2729 -0.2884  0.1179
47869SOL    HW150468   0.105   7.129   7.334 -1.5253 -0.3653  0.9363
47869SOL    HW250469   0.057   6.986   7.344  1.3408 -1.4894 -0.2087
47870SOL     OW50470   6.548   2.782   2.936 -0.1913  0.1506  0.5517
47870SOL    HW150471   6.621   2.720   2.926  0.4839  1.1371 -0.9591
47870SOL    HW250472   6.518   2.798   2.847 -1.0719  1.1703  1.0142
47871SOL     OW50473   4.083   2.413   7.908 -0.0525  0.5951  0.0362
47871SOL    HW150474   4.109   2.505   7.895 -1.9507  1.2129  0.2764
47871SOL    HW250475   4.045   2.387   7.824  0.0751  0.1656  0.1100
47872SOL     OW50476   1.202   6.609   7.020  0.1709  0.2346  0.1647
47872SOL    HW150477   1.241   6.559   6.948  0.4541  0.2443  0.3115
47872SOL    HW250478   1.233   6.566   7.099 -2.0076 -1.2427  0.3004
47873SOL     OW50479   8.494   1.443  10.887  0.2052  0.4810 -0.0787
47873SOL    HW150480   8.493   1.384  10.962 -0.0269 -0.4643 -0.8015
47873SOL    HW250481   8.587   1.458  10.870  0.2548  1.0229  0.6329
47874SOL     OW50482   2.621   0.140  11.519  0.4487 -0.5563 -0.0084
47874SOL    HW150483   2.565   0.171  11.591  0.0756 -1.5639  0.1476
47874SOL    HW250484   2.585   0.182  11.441  1.1923  0.9908  0.4334
47875SOL     OW50485   0.149   9.328   5.805  0.5704  0.3409  0.0529
47875SOL    HW150486   0.061   9.344   5.838 -0.3150 -1.0799 -1.4275
47875SOL    HW250487   0.137   9.312   5.711  2.2839 -0.6298 -0.0544
47876SOL     OW50488   3.002   6.063  11.762  0.8732  0.4573  0.5497
47876SOL    HW150489   2.933   6.019  11.712  0.9317  1.9289 -0.9128
47876SOL    HW250490   3.084   6.035  11.719  0.8728  2.5554 -0.9942
47877SOL     OW50491   9.555   1.633  12.247  0.3072 -0.3854  0.0290
47877SOL    HW150492   9.627   1.602  12.302  0.2227  0.0298  0.3784
47877SOL    HW250493   9.579   1.604  12.159  0.9060 -0.2540  0.1398
47878SOL     OW50494   8.204  11.143   4.498 -0.1028  0.0926 -0.0630
47878SOL    HW150495   8.142  11.069   4.493 -0.6013  0.3208  1.8766
47878SOL    HW250496   8.155  11.211   4.544  1.7223  0.0982  2.0022
47879SOL     OW50497   1.944  12.236   0.710 -0.9324 -0.9448  0.2916
47879SOL    HW150498   1.958  12.145   0.683 -2.6186 -1.5911  1.4253
47879SOL    HW250499   1.992  12.287   0.645  0.6708 -2.6381  0.0331
47880SOL     OW50500   7.932   4.407  11.703 -0.4815 -0.1263 -0.7322
47880SOL    HW150501   8.026   4.389  11.697 -0.0673  1.4383  0.4215
47880SOL    HW250502   7.905   4.369  11.786 -0.5304  0.6497 -0.3775
47881SOL     OW50503   8.701   8.160  10.699 -0.0588  0.1705  0.1888
47881SOL    HW150504   8.749   8.209  10.632  0.5960  0.7137  1.0344
47881SOL    HW250505   8.768   8.105  10.741 -0.6142 -0.7894 -0.1381
47882SOL     OW50506   2.852   7.678  11.488 -0.0269  0.3752  0.0791
47882SOL    HW150507   2.939   7.672  11.448 -0.2473  1.1346 -0.5368
47882SOL    HW250508   2.823   7.768  11.470 -0.7071  0.3038  0.7648
47883SOL     OW50509  10.184  12.012  10.803 -0.1447 -0.0921  0.3748
47883SOL    HW150510  10.138  12.096  10.804  0.6006  0.4034 -1.7497
47883SOL    HW250511  10.115  11.947  10.790 -0.6059  0.2927  0.8568
47884SOL     OW50512   6.136   2.651   7.955  0.1594 -0.5828 -0.5794
47884SOL    HW150513   6.074   2.675   7.887  1.1378 -0.2946 -1.4018
47884SOL    HW250514   6.219   2.637   7.908  1.4446  1.8264  0.7612
47885SOL     OW50515   1.670   5.579   5.272  0.4895  0.3587 -0.2273
47885SOL    HW150516   1.595   5.621   5.230  0.7316 -0.2312 -1.2689
47885SOL    HW250517   1.632   5.528   5.343  0.1284  1.8160  0.6679
47886SOL     OW50518   3.923   3.058   7.192  0.0598 -0.7076 -0.2653
47886SOL    HW150519   3.854   3.124   7.188  1.7355  1.1251 -0.1035
47886SOL    HW250520   3.915   3.019   7.279 -0.7708 -0.5371 -0.2583
47887SOL     OW50521   9.312   4.946   6.648 -0.2028 -0.0299  0.0719
47887SOL    HW150522   9.362   4.963   6.569  0.3902  0.7521  0.6030
47887SOL    HW250523   9.221   4.938   6.619 -0.3262  2.5638 -0.4238
47888SOL     OW50524  11.762   9.081   3.969 -0.3356  0.0544  0.0919
47888SOL    HW150525  11.766   9.033   3.887  3.3602  0.7780 -0.3445
47888SOL    HW250526  11.772   9.173   3.944  1.2371  0.2611  1.2608
47889SOL     OW50527  10.471   2.821  10.902 -0.3956  0.7820 -0.2454
47889SOL    HW150528  10.515   2.736  10.901 -0.9604  0.4844 -0.5222
47889SOL    HW250529  10.437   2.829  10.991 -0.2036  0.7898 -0.1728
47890SOL     OW50530   4.520   4.207   7.777  0.0603  0.1594  0.1710
47890SOL    HW150531   4.535   4.245   7.691  1.7683  0.8149  0.7066
47890SOL    HW250532   4.607   4.207   7.818 -0.6982 -0.2132  1.8572
47891SOL     OW50533   8.388   7.679   6.909  0.1402 -0.1462 -0.0386
47891SOL    HW150534   8.322   7.634   6.962  0.0786 -1.7344 -1.3624
47891SOL    HW250535   8.372   7.647   6.820  2.2171 -0.0114 -0.5147
47892SOL     OW50536  11.130   9.650   7.781  0.0959  0.3718  0.1102
47892SOL    HW150537  11.187   9.619   7.852 -2.2114 -2.0960  1.0754
47892SOL    HW250538  11.090   9.570   7.747 -3.7438  1.9691  0.4161
47893SOL     OW50539   0.959   7.923   7.610 -0.1141  0.2094 -0.3952
47893SOL    HW150540   1.002   7.837   7.611 -2.5923 -1.1600 -0.6161
47893SOL    HW250541   0.908   7.923   7.528 -1.0129  1.4018  0.1353
47894SOL     OW50542   7.915   5.336  12.115  0.7031  0.3312  0.2953
47894SOL    HW150543   8.010   5.345  12.121  0.8119  0.3577 -1.0424
47894SOL    HW250544   7.884   5.425  12.097  0.3414  0.4427  1.3757
47895SOL     OW50545   9.376  10.164   8.947 -0.2392  0.2073 -0.0483
47895SOL    HW150546   9.439  10.231   8.973  1.5648 -1.2376 -0.4878
47895SOL    HW250547   9.422  10.081   8.962 -1.5437 -0.8632 -1.6473
47896SOL     OW50548   5.607   0.355   2.604 -0.0117  0.2569  0.1948
47896SOL    HW150549   5.657   0.339   2.523  0.6792  1.2163  0.4230
47896SOL    HW250550   5.597   0.268   2.643  2.1340  0.1056  0.5042
47897SOL     OW50551   8.098   7.965  10.975 -0.2370  0.3839 -0.1987
47897SOL    HW150552   8.005   7.986  10.965 -0.7910 -1.7690 -0.0070
47897SOL    HW250553   8.109   7.884  10.925  1.7736  1.0811 -0.9807
47898SOL     OW50554   5.731   7.695  10.723  0.0563 -0.1905  0.2881
47898SOL    HW150555   5.799   7.632  10.699  0.3943 -0.0069  0.7230
47898SOL    HW250556   5.675   7.702  10.646  1.0244  0.2873 -0.3968
47899SOL     OW50557  10.314   2.339   6.221  0.5257  0.5097 -0.0794
47899SOL    HW150558  10.233   2.305   6.184  1.1270  0.4583 -1.4340
47899SOL    HW250559  10.316   2.431   6.194  0.4491  0.7822  0.8038
47900SOL     OW50560   9.979   3.480   3.110 -0.2465 -0.0594 -0.0065
47900SOL    HW150561   9.962   3.422   3.035 -0.4352 -0.4200  0.3108
47900SOL    HW250562   9.892   3.494   3.149 -0.0824 -0.2688  0.4307
47901SOL     OW50563  10.079   4.480   8.444  0.0381  0.1918  0.1426
47901SOL    HW150564  10.125   4.559   8.416  2.4236 -1.0062  0.4204
47901SOL    HW250565  10.066   4.430   8.364 -0.6051  0.4182  0.0994
47902SOL     OW50566   5.533   4.864  11.989 -0.5480  0.5174 -0.3015
47902SOL    HW150567   5.545   4.843  12.081  0.3049 -0.1513 -0.5530
47902SOL    HW250568   5.461   4.927  11.988 -1.4485 -0.4516  0.7027
47903SOL     OW50569   0.424   1.781   8.410 -0.4805 -0.6135 -0.3862
47903SOL    HW150570   0.347   1.787   8.353 -2.1781  3.1065  1.8756
47903SOL    HW250571   0.399   1.718   8.478 -1.6791  0.6612  0.3996
47904SOL     OW50572   0.613   0.680   1.023  0.7032  0.3907 -0.3475
47904SOL    HW150573   0.620   0.614   0.954  0.7012 -0.7471  0.7208
47904SOL    HW250574   0.675   0.652   1.090 -1.2788 -0.1117  1.3854
47905SOL     OW50575   7.318   6.158   8.982 -0.1671 -0.0503  0.0958
47905SOL    HW150576   7.370   6.102   9.040 -1.3993 -1.9159 -0.5332
47905SOL    HW250577   7.379   6.186   8.915  0.1968 -1.7828 -0.3428
47906SOL     OW50578   8.059   5.294   1.333 -0.1653 -0.3034  0.7956
47906SOL    HW150579   7.973   5.264   1.302  0.3050  0.0895 -0.9524
47906SOL    HW250580   8.049   5.299   1.428 -2.5450  1.1300  0.5515
47907SOL     OW50581  12.054   7.444   5.208 -0.1254 -0.3879  0.3550
47907SOL    HW150582  12.004   7.402   5.138 -0.2442  0.1849  0.0865
47907SOL    HW250583  12.135   7.394   5.212  0.4032  0.2919 -1.0344
47908SOL     OW50584  10.520  11.525   2.535 -0.0850  0.4436 -0.4967
47908SOL    HW150585  10.448  11.587   2.549 -0.5715 -0.2012 -0.0646
47908SOL    HW250586  10.477  11.440   2.532  0.8242 -0.1330  1.5388
47909SOL     OW50587   9.325  11.032   5.011  0.0241 -0.3421 -0.0264
47909SOL    HW150588   9.234  11.003   5.001 -0.3106  1.1300 -1.7759
47909SOL    HW250589   9.323  11.126   4.992  2.0573 -0.4732 -1.1925
47910SOL     OW50590   4.634   4.662   1.088 -0.2902  0.3321 -0.1463
47910SOL    HW150591   4.695   4.650   1.161  0.6994 -3.0189 -1.3535
47910SOL    HW250592   4.580   4.583   1.088 -0.5851  0.4509 -2.7148
47911SOL     OW50593   1.951   6.492   5.579  0.1073  0.3565 -0.0018
47911SOL    HW150594   1.999   6.429   5.632 -1.5001 -2.0152 -1.1726
47911SOL    HW250595   1.871   6.509   5.629 -0.6063 -0.5413 -0.7828
47912SOL     OW50596   7.027   4.028   4.415  0.0413 -0.3428 -0.5235
47912SOL    HW150597   7.070   3.944   4.396  0.2553  0.1420 -2.3690
47912SOL    HW250598   7.092   4.094   4.391 -0.1425  0.3818  0.8725
47913SOL     OW50599  10.815   3.558  11.715  0.2742  0.2756 -0.2473
47913SOL    HW150600  10.821   3.467  11.685 -2.4108 -0.0358 -0.0985
47913SOL    HW250601  10.857   3.557  11.801  0.6980 -0.7133 -0.4434
47914SOL     OW50602   3.239  10.269   0.916  0.0841  0.1580  0.4938
47914SOL    HW150603   3.308  10.256   0.852  0.2866  0.9349  0.5548
47914SOL    HW250604   3.263  10.348   0.963 -1.6471  1.3587 -0.5423
47915SOL     OW50605   3.784   5.693   3.102 -0.6812  0.2818 -0.3131
47915SOL    HW150606   3.707   5.708   3.156 -1.2710 -0.1052 -1.0174
47915SOL    HW250607   3.755   5.630   3.036  0.0573  0.5963 -0.9644
47916SOL     OW50608  11.340   5.413   3.533 -0.6639 -0.1844 -0.4344
47916SOL    HW150609  11.385   5.356   3.470  0.9687 -1.1362  1.4588
47916SOL    HW250610  11.252   5.376   3.539  0.1685 -2.2456  0.2903
47917SOL     OW50611  12.063   0.558   0.302 -0.0956 -0.0957  0.3889
47917SOL    HW150612  12.097   0.554   0.391  0.8461 -0.4364  0.0233
47917SOL    HW250613  12.006   0.635   0.301  0.7939  0.5858  0.9741
47918SOL     OW50614   6.671   0.757   0.547 -0.3290 -0.1599 -0.6080
47918SOL    HW150615   6.586   0.766   0.503 -0.3508 -0.5259 -0.6431
47918SOL    HW250616   6.728   0.720   0.480 -0.5015 -1.2457 -0.1681
47919SOL     OW50617   6.832  11.610   7.880 -0.3800 -0.1777  0.2748
47919SOL    HW150618   6.900  11.551   7.848  0.1312 -0.9388  2.5135
47919SOL    HW250619   6.793  11.648   7.802  2.2311 -0.1472 -1.1232
47920SOL     OW50620   0.590   1.914   0.459  0.1165 -0.1092 -0.0849
47920SOL    HW150621   0.590   1.898   0.554 -0.9572 -1.7694 -0.3228
47920SOL    HW250622   0.498   1.918   0.435  0.3742 -0.1337 -1.1327
47921SOL     OW50623   2.323   8.629   4.384 -0.1365 -1.2811  0.1985
47921SOL    HW150624   2.257   8.588   4.328  0.2001 -1.3520 -0.1475
47921SOL    HW250625   2.288   8.717   4.401 -0.4039 -1.3788  0.1570
47922SOL     OW50626   7.096   3.168   2.074 -0.0822 -0.2944 -0.0707
47922SOL    HW150627   7.001   3.173   2.059 -0.1304 -0.4120  0.1780
47922SOL    HW250628   7.110   3.222   2.152  0.2417  0.7788 -0.8423
47923SOL     OW50629  11.102  10.859   5.374  0.2861 -0.2731  0.1135
47923SOL    HW150630  11.024  10.906   5.344  0.2112  0.9168  1.9717
47923SOL    HW250631  11.101  10.777   5.325 -1.9560 -0.1581 -0.1625
47924SOL     OW50632   1.684   6.420  12.001  0.2227  0.1495  0.2402
47924SOL    HW150633   1.626   6.408  12.076  1.0851  0.2983  0.9589
47924SOL    HW250634   1.635   6.476  11.941 -1.3355 -1.7016 -0.3020
47925SOL     OW50635   0.292   6.679   4.690  0.2618  0.2233  0.2818
47925SOL    HW150636   0.387   6.685   4.690  0.2907  1.0577 -2.1210
47925SOL    HW250637   0.274   6.588   4.667  0.4800  0.1108  0.5515
47926SOL     OW50638   5.668   1.302   1.399  0.3464  0.2173  0.5040
47926SOL    HW150639   5.720   1.267   1.327 -0.0896 -0.7359  0.6430
47926SOL    HW250640   5.595   1.347   1.357 -0.0279 -0.5239  0.3369
47927SOL     OW50641  10.606   6.431   8.370  0.1746  0.6599  0.3225
47927SOL    HW150642  10.660   6.437   8.449 -1.8969  0.3880  1.8683
47927SOL    HW250643  10.534   6.373   8.395  0.2576 -0.7596 -2.3253
47928SOL     OW50644  10.908   8.322   3.529  0.1701 -0.0508  0.1589
47928SOL    HW150645  10.938   8.231   3.522  0.1212 -0.0145 -0.5534
47928SOL    HW250646  10.951   8.354   3.609  0.3719 -0.6252  0.2926
47929SOL     OW50647  10.908   0.368   9.435 -0.2957 -0.0584  0.0513
47929SOL    HW150648  10.995   0.385   9.471  0.1608 -1.0661 -0.5407
47929SOL    HW250649  10.848   0.398   9.502  0.5292 -1.0561  1.2744
47930SOL     OW50650   5.044   1.555   3.575  0.2168 -0.5935  0.1498
47930SOL    HW150651   5.138   1.536   3.580  0.2232 -1.3840 -1.9462
47930SOL    HW250652   5.036   1.621   3.506 -0.6012  1.2317  1.8995
47931SOL     OW50653   8.824  12.465   5.103  0.8109 -0.5249 -0.1498
47931SOL    HW150654   8.757  12.402   5.076 -0.0323  0.3063 -0.0662
47931SOL    HW250655   8.854  12.434   5.188  0.1621 -0.6342  0.0413
47932SOL     OW50656   3.544   8.935   3.041 -0.0390  0.0076  0.1953
47932SOL    HW150657   3.560   9.009   3.099 -0.7933  1.0094 -0.8122
47932SOL    HW250658   3.479   8.968   2.978 -1.3001 -1.8683  0.4139
47933SOL     OW50659  11.052   7.628   9.964 -0.0296 -0.1598 -0.0206
47933SOL    HW150660  10.969   7.675   9.958  0.9483  1.6685  0.0311
47933SOL    HW250661  11.093   7.661  10.044  0.0227 -2.3452  0.9162
47934SOL     OW50662   4.386   6.087   7.445  0.3621  0.0825  0.6381
47934SOL    HW150663   4.391   6.040   7.362 -4.0839 -0.7032  0.5380
47934SOL    HW250664   4.430   6.170   7.427  4.1261 -1.9569 -0.7102
47935SOL     OW50665   6.225   4.843   3.661  0.2892  0.6658  0.2661
47935SOL    HW150666   6.230   4.931   3.626 -0.1439  0.6925  0.2670
47935SOL    HW250667   6.157   4.800   3.609  1.1473  0.0391 -0.3653
47936SOL     OW50668   5.689  12.015   7.116 -0.2196  0.0939 -0.3022
47936SOL    HW150669   5.646  12.050   7.038 -1.0620  0.5926  0.3573
47936SOL    HW250670   5.766  11.970   7.084 -1.5729 -1.3853 -1.6178
47937SOL     OW50671  10.812  12.345   6.684 -0.4404  0.1318  0.6885
47937SOL    HW150672  10.786  12.373   6.771 -1.7661 -1.6052  0.9159
47937SOL    HW250673  10.871  12.272   6.698 -1.8835 -1.1870  0.1882
47938SOL     OW50674  10.973  10.792  11.357 -0.4539  0.0412 -0.6132
47938SOL    HW150675  11.015  10.706  11.366 -1.9853 -0.5773  1.7234
47938SOL    HW250676  10.885  10.771  11.325 -0.3519  0.9130 -1.4994
47939SOL     OW50677  11.063   9.765   0.903 -0.1617 -0.2035 -0.1359
47939SOL    HW150678  10.980   9.721   0.922 -0.1700 -0.4130 -0.6461
47939SOL    HW250679  11.118   9.696   0.864  0.4402 -0.2034  0.6909
47940SOL     OW50680   2.871   4.659   5.706  0.0843 -0.5657 -0.0904
47940SOL    HW150681   2.894   4.595   5.638 -0.5561 -0.7612 -0.1364
47940SOL    HW250682   2.894   4.615   5.788  0.1929 -0.6223 -0.1506
47941SOL     OW50683   7.335   9.155  10.956  0.1579 -0.1043  0.7795
47941SOL    HW150684   7.259   9.161  10.899 -0.2335  0.8909  1.3961
47941SOL    HW250685   7.403   9.207  10.913 -0.1366  0.6430  1.2005
47942SOL     OW50686  11.598  11.999   4.100 -0.0458 -0.1738  0.4420
47942SOL    HW150687  11.574  12.074   4.154  0.0179  0.1867 -0.0270
47942SOL    HW250688  11.572  11.923   4.151  1.8704  0.0835  1.9168
47943SOL     OW50689   6.732  10.908   0.558 -0.8580  0.3317 -0.0581
47943SOL    HW150690   6.685  10.851   0.619 -0.8733  0.1554 -0.2338
47943SOL    HW250691   6.817  10.866   0.546 -1.5744 -0.7422 -1.7349
47944SOL     OW50692   2.736   6.886   2.093 -0.0135 -0.4568  0.5470
47944SOL    HW150693   2.793   6.952   2.132  0.0515  0.2084 -0.6093
47944SOL    HW250694   2.651   6.899   2.135  0.2994 -0.4174  1.1684
47945SOL     OW50695  10.654  10.030   3.708  0.0562  0.1095 -0.0919
47945SOL    HW150696  10.677   9.970   3.779 -1.3044  0.1292  0.3947
47945SOL    HW250697  10.659   9.977   3.628 -1.4312 -0.7675  0.3622
47946SOL     OW50698   0.677   5.290   7.141 -0.0199 -0.2003 -0.0971
47946SOL    HW150699   0.743   5.312   7.075  0.0977  2.0776  0.7034
47946SOL    HW250700   0.714   5.322   7.223 -1.9734  0.8602  0.4265
47947SOL     OW50701   9.964  11.359   4.122 -0.2098 -0.0914 -1.1954
47947SOL    HW150702  10.048  11.399   4.144 -0.2464 -0.4658 -0.3463
47947SOL    HW250703   9.903  11.433   4.116 -0.1476  0.0473 -0.2448
47948SOL     OW50704   9.987   1.416   5.616  0.4216 -0.2214 -0.0655
47948SOL    HW150705  10.068   1.366   5.630 -0.3484 -1.0169  1.9692
47948SOL    HW250706   9.917   1.355   5.639 -0.8566  0.2311 -2.4584
47949SOL     OW50707  11.843  11.413   9.967 -0.4757 -0.0842  0.3463
47949SOL    HW150708  11.848  11.413   9.872  1.6771  0.7127  0.4028
47949SOL    HW250709  11.817  11.502   9.990 -0.2238 -0.0504  0.5098
47950SOL     OW50710   4.511   2.931   8.640  0.0109  0.5187  0.6617
47950SOL    HW150711   4.494   2.882   8.560  0.3828  0.6194  0.5197
47950SOL    HW250712   4.425   2.944   8.680 -0.1757  0.5093  0.2581
47951SOL     OW50713  12.290   1.782   6.665  0.4927  0.3906 -0.3834
47951SOL    HW150714  12.371   1.734   6.650 -0.5199 -1.4680 -0.1542
47951SOL    HW250715  12.227   1.743   6.605 -0.6521  0.6665  0.5885
47952SOL     OW50716   8.479   6.163   8.493 -0.2352 -0.3444  0.1675
47952SOL    HW150717   8.511   6.223   8.426  1.2907  0.5418  1.6037
47952SOL    HW250718   8.385   6.179   8.497  0.2027  2.7010  1.1273
47953SOL     OW50719   5.118   6.264   4.743 -0.4989  0.3869  0.0019
47953SOL    HW150720   5.096   6.203   4.672  1.3642 -1.3346  0.8169
47953SOL    HW250721   5.106   6.212   4.823  0.1653  1.4059  0.7756
47954SOL     OW50722  11.867   4.116   6.616  0.5102 -0.0274  0.3070
47954SOL    HW150723  11.960   4.095   6.614  1.0263  2.0628 -0.4715
47954SOL    HW250724  11.858   4.193   6.560 -1.9309 -0.9930 -0.8076
47955SOL     OW50725   2.469  10.918   0.292  0.4600 -0.5829  0.5708
47955SOL    HW150726   2.442  11.007   0.311  0.9764 -0.4528  0.7131
47955SOL    HW250727   2.490  10.880   0.378 -0.8256 -1.2060  0.6391
47956SOL     OW50728   7.256   8.869   0.645  0.1493 -0.3453 -0.5620
47956SOL    HW150729   7.345   8.847   0.619  1.0627  0.1977  1.8369
47956SOL    HW250730   7.215   8.784   0.663  0.4747 -0.5427 -0.7452
47957SOL     OW50731   8.952   7.653   8.100  0.0375  0.7330 -0.3533
47957SOL    HW150732   8.903   7.714   8.156 -0.4977 -0.4667  0.5411
47957SOL    HW250733   8.887   7.622   8.036 -0.1337 -0.1287  0.2263
47958SOL     OW50734   8.564   9.333   5.736 -0.0278  0.0338  0.1947
47958SOL    HW150735   8.555   9.344   5.830  0.0814  2.3805  0.0057
47958SOL    HW250736   8.489   9.380   5.699  1.1393  1.1416 -0.8886
47959SOL     OW50737  11.550   5.687   6.170 -0.0394 -0.4681 -0.3257
47959SOL    HW150738  11.494   5.742   6.224 -0.3999 -0.6888 -0.4669
47959SOL    HW250739  11.554   5.604   6.217 -0.9754 -0.9139 -0.9977
47960SOL     OW50740   7.490   1.180   2.801  0.3206 -0.0691  0.2373
47960SOL    HW150741   7.443   1.108   2.843  2.1413 -0.7281  1.2604
47960SOL    HW250742   7.512   1.146   2.714 -0.1066 -0.1669  0.1623
47961SOL     OW50743   4.003  12.007   7.022 -0.2065  0.5975 -0.1479
47961SOL    HW150744   4.076  12.030   7.078 -0.1290 -0.8184  0.3719
47961SOL    HW250745   4.036  12.019   6.933  1.4172 -1.9735  0.0098
47962SOL     OW50746   8.771   7.279   0.741  0.2247 -0.6971 -0.1053
47962SOL    HW150747   8.789   7.327   0.660 -1.3492 -1.4306 -0.9270
47962SOL    HW250748   8.824   7.199   0.732  0.5741 -0.4711 -0.0895
47963SOL     OW50749   6.414   8.682  11.824  0.1888 -0.3013  0.0062
47963SOL    HW150750   6.415   8.681  11.729  0.9112 -1.0739  0.0107
47963SOL    HW250751   6.358   8.609  11.849 -0.0510 -0.0617  0.1765
47964SOL     OW50752   6.117   2.237   7.874 -0.2626 -0.2364  0.3098
47964SOL    HW150753   6.054   2.191   7.818  0.4997 -2.4989  1.2295
47964SOL    HW250754   6.199   2.237   7.825  0.0567 -0.9999  0.8265
47965SOL     OW50755   6.350  11.121  10.864  0.5446 -0.0881  0.2900
47965SOL    HW150756   6.400  11.080  10.935 -0.7022 -0.3975  1.0216
47965SOL    HW250757   6.341  11.053  10.797  1.1497 -0.0091  0.1275
47966SOL     OW50758   9.479   3.533   3.512 -0.2774 -0.6405 -0.2628
47966SOL    HW150759   9.496   3.463   3.449  0.2735  0.3192 -1.2167
47966SOL    HW250760   9.424   3.493   3.578 -0.6508 -1.7662 -1.2216
47967SOL     OW50761   0.615  10.196   2.080 -0.0883  0.3986  0.6552
47967SOL    HW150762   0.651  10.283   2.067  0.3756 -0.0158 -1.1453
47967SOL    HW250763   0.648  10.169   2.166 -0.9956  2.3117  1.6605
47968SOL     OW50764  11.596   0.064   5.522  0.5019 -0.0832 -0.2831
47968SOL    HW150765  11.525   0.026   5.470  0.5966  1.4323 -1.5699
47968SOL    HW250766  11.616  -0.003   5.587 -1.7992 -0.7457 -0.1633
47969SOL     OW50767   0.300   9.560   9.343  0.7967 -0.2837 -0.0638
47969SOL    HW150768   0.223   9.530   9.295  1.7385  1.9702 -3.2936
47969SOL    HW250769   0.356   9.482   9.349 -2.2133 -2.5541  4.1246
47970SOL     OW50770   1.425   3.205   4.233 -0.3181 -0.2425 -0.0704
47970SOL    HW150771   1.439   3.284   4.285 -2.7284  1.1128 -1.2614
47970SOL    HW250772   1.483   3.216   4.158  0.6256 -0.4931  0.6054
47971SOL     OW50773   6.693   3.296   7.539 -0.6796 -0.1099  0.3791
47971SOL    HW150774   6.688   3.331   7.450  0.5854  0.5675  0.5517
47971SOL    HW250775   6.621   3.233   7.544  0.4483 -1.7452 -1.8429
47972SOL     OW50776   3.949  11.482   3.967 -0.4050  0.3587  0.1347
47972SOL    HW150777   3.999  11.473   4.048 -0.2633  3.3487  0.5127
47972SOL    HW250778   4.016  11.497   3.900 -0.6138  0.3194 -0.0838
47973SOL     OW50779   4.482   8.472  11.248 -0.1048 -0.2564  0.5074
47973SOL    HW150780   4.527   8.399  11.289 -1.1518 -1.3643 -0.2612
47973SOL    HW250781   4.540   8.547  11.262  1.7221 -1.5164  0.0041
47974SOL     OW50782   0.155   8.562   8.971 -0.3221  0.6738 -0.1797
47974SOL    HW150783   0.209   8.496   8.927 -1.4117 -0.0991 -0.4144
47974SOL    HW250784   0.169   8.642   8.920  2.2006  1.0815  1.0073
47975SOL     OW50785   9.077  10.121   1.684 -0.1214 -0.0136  0.8291
47975SOL    HW150786   9.059  10.193   1.745  2.6458  0.9291  0.6888
47975SOL    HW250787   9.067  10.160   1.597  0.6500  0.0244  0.7493
47976SOL     OW50788   6.055   9.859   8.127  0.1045  0.2771  0.3013
47976SOL    HW150789   5.990   9.792   8.148  0.1018 -0.3696 -1.5761
47976SOL    HW250790   6.113   9.860   8.203  0.8514 -2.7955 -0.0774
47977SOL     OW50791   3.021   8.513   8.709  0.8704  0.0111 -0.3179
47977SOL    HW150792   3.085   8.446   8.685  0.1221 -0.8893  0.1275
47977SOL    HW250793   2.940   8.464   8.725 -0.4249  1.2434 -2.5507
47978SOL     OW50794   3.216   1.813   1.328  0.0338 -0.3906  0.0597
47978SOL    HW150795   3.279   1.820   1.256  0.7797 -1.5218  0.5685
47978SOL    HW250796   3.261   1.850   1.403 -0.0433 -0.8600  0.3417
47979SOL     OW50797   2.680   3.301   2.586  0.1774  0.4609  0.5171
47979SOL    HW150798   2.756   3.354   2.608  1.7178 -0.2094 -2.6457
47979SOL    HW250799   2.625   3.359   2.533  0.6367 -0.2711 -0.8080
47980SOL     OW50800  10.249   4.217   0.096  0.0449 -0.0930 -0.0419
47980SOL    HW150801  10.203   4.277   0.037  1.3159  0.2849 -0.6920
47980SOL    HW250802  10.296   4.275   0.156  0.9742 -0.4197 -0.4318
47981SOL     OW50803  12.026   7.338  11.094 -0.1760  0.4623  0.0383
47981SOL    HW150804  12.083   7.380  11.030  1.6313 -1.3445  0.3789
47981SOL    HW250805  11.945   7.322  11.047  0.0464  1.8402 -0.8780
47982SOL     OW50806  10.809   9.706   0.971 -0.1498 -0.6023  0.1195
47982SOL    HW150807  10.774   9.702   1.060 -0.1138 -1.4302  0.1061
47982SOL    HW250808  10.761   9.777   0.929 -1.1066 -1.0575  0.4082
47983SOL     OW50809   9.579  10.121  11.981 -0.1894  0.2698 -0.1563
47983SOL    HW150810   9.626  10.069  11.916 -1.4863  0.9221 -1.6742
47983SOL    HW250811   9.502  10.154  11.935 -0.9933  1.0370  1.6280
47984SOL     OW50812   9.300  10.537   0.379  0.7355  0.8086 -0.0639
47984SOL    HW150813   9.366  10.605   0.393  0.9506  0.5774  0.0517
47984SOL    HW250814   9.327  10.465   0.436  1.4143  0.0031 -1.3599
47985SOL     OW50815   5.463   2.950   5.235  0.1210  0.3958 -0.0071
47985SOL    HW150816   5.510   2.894   5.297  0.0360  0.5475  0.1991
47985SOL    HW250817   5.371   2.923   5.243  0.2765 -0.5107 -1.0608
47986SOL     OW50818   4.734  10.160   4.816 -0.0783  0.2242  0.1350
47986SOL    HW150819   4.676  10.088   4.791 -1.0538  1.2471 -0.6481
47986SOL    HW250820   4.681  10.239   4.805  0.5374  1.0079  2.2379
47987SOL     OW50821   5.485   4.405   5.832  0.1773  0.6863  0.0518
47987SOL    HW150822   5.428   4.475   5.863 -0.8604 -0.1452  0.0790
47987SOL    HW250823   5.566   4.415   5.884 -0.9521  0.2247  2.0137
47988SOL     OW50824   7.889   2.398  10.926  0.1605  0.4389 -0.2414
47988SOL    HW150825   7.968   2.372  10.974  0.1211  0.9225  0.1000
47988SOL    HW250826   7.866   2.322  10.873  1.4537  0.6331 -1.1369
47989SOL     OW50827   9.781   7.757   5.296 -0.3863  0.2420 -0.2965
47989SOL    HW150828   9.860   7.810   5.285  0.0336 -0.1535  0.6438
47989SOL    HW250829   9.785   7.693   5.225  1.6906 -1.6152  1.3500
47990SOL     OW50830   3.742   2.438   4.629 -0.2971  0.0616 -0.2112
47990SOL    HW150831   3.657   2.478   4.647 -0.1437  0.5993 -0.6616
47990SOL    HW250832   3.804   2.511   4.626  0.0784 -0.2607 -0.4944
47991SOL     OW50833   8.508   0.489   0.649 -0.4775  0.2332 -0.2322
47991SOL    HW150834   8.515   0.584   0.648  1.0436  0.1634  0.8427
47991SOL    HW250835   8.418   0.473   0.679 -0.1095  1.3742  1.6932
47992SOL     OW50836  11.176   8.032   6.190 -0.3155  0.0619  0.0317
47992SOL    HW150837  11.110   8.054   6.255 -1.3910  0.8184 -1.2570
47992SOL    HW250838  11.127   8.024   6.108  1.2938  1.7212 -1.1768
47993SOL     OW50839   7.475   6.327   6.457 -0.0228  0.0942 -0.0184
47993SOL    HW150840   7.532   6.394   6.418  0.0704  0.2537  0.3871
47993SOL    HW250841   7.506   6.245   6.419 -1.0858  0.4063 -1.6475
47994SOL     OW50842   6.464   6.382   0.358  0.0592  0.2832 -0.2988
47994SOL    HW150843   6.428   6.330   0.430  0.5026  0.9050  0.3946
47994SOL    HW250844   6.425   6.345   0.279 -1.7157  0.6130  0.3690
47995SOL     OW50845   0.901  10.250   7.232 -0.0977  0.5234 -0.3637
47995SOL    HW150846   0.847  10.180   7.267  1.1718 -0.3406 -0.1088
47995SOL    HW250847   0.981  10.249   7.284  0.2353  1.7044 -0.8093
47996SOL     OW50848   3.269   9.265   0.408 -0.3257  0.6719 -0.4958
47996SOL    HW150849   3.256   9.223   0.322 -0.0552  0.9601 -0.6771
47996SOL    HW250850   3.207   9.338   0.408 -2.0069 -0.6762  0.4759
47997SOL     OW50851   9.016   8.353   2.598  0.0107  0.7075 -0.2205
47997SOL    HW150852   9.006   8.284   2.664  1.8311  0.3708 -0.2462
47997SOL    HW250853   8.926   8.374   2.572 -0.6297 -1.1461  0.3127
47998SOL     OW50854   9.006   6.625   9.781  0.4223  0.2523  0.2473
47998SOL    HW150855   8.979   6.646   9.692 -1.7747  1.3122  1.0882
47998SOL    HW250856   9.068   6.693   9.805  0.3523  0.4612 -0.1641
47999SOL     OW50857   0.160   3.578   2.061 -0.3354 -0.1692  0.5933
47999SOL    HW150858   0.234   3.617   2.014  0.0289 -0.0140  1.2908
47999SOL    HW250859   0.193   3.496   2.095 -0.8599 -0.7040 -0.1528
48000SOL     OW50860   2.726  10.844   3.545  0.0182  0.1791 -0.1134
48000SOL    HW150861   2.724  10.870   3.453  0.3334 -0.0849 -0.1943
48000SOL    HW250862   2.783  10.768   3.547 -1.7561 -1.2246 -0.0726
48001SOL     OW50863   0.863   9.800  12.381 -0.4924 -0.2640 -0.0686
48001SOL    HW150864   0.825   9.743  12.448 -1.4857  0.1218 -0.2916
48001SOL    HW250865   0.796   9.805  12.313  0.4196 -0.4702 -0.9952
48002SOL     OW50866   7.556   5.716   0.444 -0.1674 -0.5721  0.2897
48002SOL    HW150867   7.504   5.655   0.497  0.1476 -1.2683 -0.1858
48002SOL    HW250868   7.494   5.785   0.419  0.1178  0.9133  3.2141
48003SOL     OW50869   1.294  10.773   5.853 -1.0117  0.2498  0.1012
48003SOL    HW150870   1.378  10.794   5.813 -1.6416  2.2541 -0.2702
48003SOL    HW250871   1.304  10.683   5.884  1.6080  0.7486  0.9525
48004SOL     OW50872   0.581   8.903   2.776  0.4481  0.0683  0.3376
48004SOL    HW150873   0.535   8.835   2.727 -0.2368  0.1568  0.8299
48004SOL    HW250874   0.513   8.942   2.831  1.0124  0.5688  0.6917
48005SOL     OW50875  10.113   8.317  10.817  0.1039  0.2871  0.1289
48005SOL    HW150876  10.106   8.350  10.907 -0.3092  0.9208 -0.1296
48005SOL    HW250877  10.061   8.378  10.765 -2.5124 -1.9340 -0.0701
48006SOL     OW50878   6.672   0.493   6.962 -0.1650  0.2825 -0.1421
48006SOL    HW150879   6.696   0.458   6.876  0.0916 -0.4243  0.2139
48006SOL    HW250880   6.734   0.564   6.976 -0.2343  0.4325 -0.5583
48007SOL     OW50881  10.408   3.359  11.446 -0.6447 -0.6424 -0.7183
48007SOL    HW150882  10.456   3.416  11.507  0.6471  1.4067 -3.4292
48007SOL    HW250883  10.473   3.335  11.380 -2.6024 -0.4027 -2.8352
48008SOL     OW50884  10.022  10.803   1.916 -0.6901 -0.0139  0.1185
48008SOL    HW150885  10.101  10.792   1.970 -0.2363 -1.2065 -0.7563
48008SOL    HW250886   9.987  10.888   1.943  1.7877  1.3505 -0.6221
48009SOL     OW50887   7.081   1.487  11.391 -0.4328  0.1802 -0.0868
48009SOL    HW150888   7.154   1.489  11.329 -0.7422 -1.4067 -0.5584
48009SOL    HW250889   7.072   1.577  11.421  3.1312  0.1255  1.6504
48010SOL     OW50890   1.124   7.881   3.992 -0.4387  0.3329 -0.0116
48010SOL    HW150891   1.184   7.833   3.934 -2.0715 -0.4527 -1.1162
48010SOL    HW250892   1.096   7.957   3.940 -3.1639 -1.2176 -0.9970
48011SOL     OW50893  12.317   0.520   4.069 -0.1453 -0.1288 -0.2074
48011SOL    HW150894  12.295   0.438   4.024  1.1455 -0.9387  0.5493
48011SOL    HW250895  12.289   0.589   4.009 -0.4539 -1.1432 -1.2703
48012SOL     OW50896   6.174   1.019   2.067  0.2292  0.5069 -0.0385
48012SOL    HW150897   6.156   1.026   2.160 -0.0892 -0.6605  0.0019
48012SOL    HW250898   6.263   1.055   2.057  1.2533 -1.5200  1.1001
48013SOL     OW50899   7.343   0.667   5.651 -0.7703 -0.5833  0.0658
48013SOL    HW150900   7.395   0.603   5.700  1.9213  0.9061 -0.6652
48013SOL    HW250901   7.292   0.614   5.591  1.4699 -2.1216 -0.6202
48014SOL     OW50902   1.898   2.799   4.109 -0.2625  0.2026 -0.0672
48014SOL    HW150903   1.940   2.791   4.194 -0.6370  0.1150  0.1091
48014SOL    HW250904   1.954   2.860   4.061  0.5642 -0.6018 -0.1506
48015SOL     OW50905   0.549   8.735   5.776 -0.0434  0.0979 -0.3764
48015SOL    HW150906   0.486   8.796   5.735 -0.0753  0.9209  0.8473
48015SOL    HW250907   0.612   8.716   5.707 -0.5701  0.7851 -1.0677
48016SOL     OW50908   5.674   2.641   9.436  0.1072  0.7154 -0.2385
48016SOL    HW150909   5.704   2.551   9.448 -0.1615  0.3836 -1.8734
48016SOL    HW250910   5.662   2.650   9.341 -0.8494  2.1571 -0.0078
48017SOL     OW50911   2.587   3.094   3.306  0.4929  0.0965  0.1777
48017SOL    HW150912   2.653   3.135   3.362  0.2236 -0.3479  0.8375
48017SOL    HW250913   2.509   3.088   3.361 -0.3472  1.3257 -0.8516
48018SOL     OW50914   7.547   6.849   4.067 -0.1681  0.6411  0.0971
48018SOL    HW150915   7.627   6.901   4.060 -1.3567  2.5186 -0.1198
48018SOL    HW250916   7.488   6.887   4.003 -1.5451 -0.1402  0.8612
48019SOL     OW50917   9.442   5.101   6.859 -0.2706 -0.0842 -0.5708
48019SOL    HW150918   9.512   5.050   6.900 -0.3005  0.1387 -0.2357
48019SOL    HW250919   9.402   5.041   6.796 -0.5222 -0.5812  0.0545
48020SOL     OW50920   9.362   5.454   7.931  0.1889  0.2671 -0.2973
48020SOL    HW150921   9.420   5.425   7.861  0.8285 -1.3367  0.8413
48020SOL    HW250922   9.407   5.429   8.012 -0.4296  2.2350  0.7233
48021SOL     OW50923  10.677   5.699   1.112  0.1445 -0.7570  0.6243
48021SOL    HW150924  10.613   5.762   1.079  3.0292  1.2206 -1.7209
48021SOL    HW250925  10.720   5.745   1.185  0.3493 -1.1585  0.7574
48022SOL     OW50926   2.373   3.613   0.762  0.3202  0.5101 -0.0161
48022SOL    HW150927   2.370   3.518   0.776  1.0517  0.2832 -1.3198
48022SOL    HW250928   2.300   3.646   0.815  0.5467 -0.6786  1.1020
48023SOL     OW50929   8.268   1.571   4.037  0.0199 -0.1220  0.0302
48023SOL    HW150930   8.249   1.579   4.130 -2.3271  0.8010 -0.4790
48023SOL    HW250931   8.229   1.487   4.012 -0.1015  0.0274 -0.2867
48024SOL     OW50932   9.717   6.683   6.809 -0.4635 -0.0029 -0.2809
48024SOL    HW150933   9.795   6.627   6.808  0.1046  0.7786 -0.9416
48024SOL    HW250934   9.655   6.639   6.752 -0.9077 -1.1533  1.0358
48025SOL     OW50935   0.194   5.730  11.820  0.2396 -0.4894 -0.5813
48025SOL    HW150936   0.270   5.787  11.828 -0.3080  0.1010  0.5651
48025SOL    HW250937   0.127   5.786  11.781  0.2307 -0.8633 -1.1091
48026SOL     OW50938   1.468   6.210   9.089 -0.2711 -0.2063 -0.1106
48026SOL    HW150939   1.474   6.187   8.996 -2.7737  1.7869 -0.8997
48026SOL    HW250940   1.381   6.181   9.115  0.1047 -0.0524  1.4175
48027SOL     OW50941   4.567   8.300   6.350  0.0122  0.1804  0.2002
48027SOL    HW150942   4.489   8.250   6.324 -0.4171  0.9250  0.0483
48027SOL    HW250943   4.565   8.300   6.446  0.8807 -1.4326  0.2661
48028SOL     OW50944   8.570   4.864   2.215 -0.1993 -0.3172  0.0483
48028SOL    HW150945   8.645   4.839   2.269  0.9057  0.5170 -1.0345
48028SOL    HW250946   8.535   4.781   2.183 -0.0990 -0.7502  1.0315
48029SOL     OW50947   9.418   0.508  12.043  0.3704 -0.6883 -0.1373
48029SOL    HW150948   9.346   0.523  11.981  0.2803  1.2003  0.3613
48029SOL    HW250949   9.497   0.519  11.991  0.3201  2.0549  0.2077
48030SOL     OW50950   6.553   1.372  10.603 -0.5783 -0.2575 -0.2041
48030SOL    HW150951   6.515   1.320  10.674  2.0698 -1.1394  0.6860
48030SOL    HW250952   6.519   1.332  10.523 -2.6214 -0.0379  0.4909
48031SOL     OW50953   1.264   9.180   2.728  0.4925 -0.5770 -0.1009
48031SOL    HW150954   1.238   9.251   2.670  0.7940  2.2064  2.8916
48031SOL    HW250955   1.330   9.131   2.678 -0.0441  0.9186 -2.4456
48032SOL     OW50956   0.455   7.878   3.198  0.1320 -0.0212 -0.1873
48032SOL    HW150957   0.398   7.805   3.224 -0.1422  0.2785  0.0614
48032SOL    HW250958   0.483   7.856   3.109 -0.4685 -0.1154 -0.3591
48033SOL     OW50959   2.740   4.719   0.547  0.1083 -0.3774  0.3588
48033SOL    HW150960   2.790   4.766   0.613  1.3660 -1.0057 -0.1158
48033SOL    HW250961   2.796   4.645   0.521 -0.5154 -0.3869 -1.1002
48034SOL     OW50962   7.724   3.329   8.778 -0.1190 -0.5121 -0.6334
48034SOL    HW150963   7.665   3.254   8.782  0.1084 -0.8001 -2.0505
48034SOL    HW250964   7.812   3.290   8.781  0.0133 -0.1700  0.2872
48035SOL     OW50965   0.630   1.180  10.208  0.2246  0.3570  0.2254
48035SOL    HW150966   0.709   1.185  10.153  1.0022  0.6116  1.3472
48035SOL    HW250967   0.619   1.087  10.225  0.4773  0.3443  0.3301
48036SOL     OW50968   9.672   7.362   5.918  0.0940 -0.0047 -0.1263
48036SOL    HW150969   9.644   7.440   5.870  1.4538  0.1856 -0.6512
48036SOL    HW250970   9.626   7.368   6.001 -0.5674  0.8466 -0.5328
48037SOL     OW50971   4.755   7.324  12.387  0.4423  0.2742  0.7995
48037SOL    HW150972   4.812   7.317  12.311  0.3665  0.5495  0.7192
48037SOL    HW250973   4.807   7.371  12.452  1.0134 -1.1101  1.4044
48038SOL     OW50974   4.310  11.661   3.503  0.3121 -0.7637  0.2531
48038SOL    HW150975   4.269  11.732   3.552  1.4882  0.2815 -0.2117
48038SOL    HW250976   4.404  11.675   3.515  0.5774 -2.1045 -0.0564
48039SOL     OW50977  11.794   8.154   3.846 -0.4252 -0.1059 -0.1645
48039SOL    HW150978  11.742   8.157   3.926  0.8542 -0.6128  0.7192
48039SOL    HW250979  11.831   8.242   3.838 -0.3861 -0.1130 -0.0693
48040SOL     OW50980  10.944   9.464  11.880  0.3737 -0.3010  0.0063
48040SOL    HW150981  10.873   9.416  11.838  0.9448 -0.8307 -0.3609
48040SOL    HW250982  10.954   9.422  11.966 -0.4008  0.4049  0.4520
48041SOL     OW50983   3.248   3.958   3.440  0.0467  0.3806  0.1811
48041SOL    HW150984   3.212   3.873   3.414  1.3941  0.3495 -1.7710
48041SOL    HW250985   3.202   4.022   3.386  1.7309  0.4805 -1.2061
48042SOL     OW50986   2.584   8.201   5.132 -0.0280  0.3696  0.0824
48042SOL    HW150987   2.591   8.158   5.218 -3.6266 -0.6382  0.0181
48042SOL    HW250988   2.599   8.130   5.069  0.3637  0.6251 -0.1166
48043SOL     OW50989   2.808   5.304  10.238  0.4976  0.2497 -0.2401
48043SOL    HW150990   2.770   5.217  10.250 -0.1375  0.5186 -0.2901
48043SOL    HW250991   2.797   5.347  10.323  2.0467 -0.1785  0.2239
48044SOL     OW50992   2.441   7.411  10.025 -0.7693 -0.1535  0.2027
48044SOL    HW150993   2.393   7.432   9.945 -1.0216 -1.8167 -0.1080
48044SOL    HW250994   2.529   7.447  10.010 -0.6704 -0.8709 -1.0398
48045SOL     OW50995  11.117   1.360  12.003 -0.0753  0.7991 -0.5836
48045SOL    HW150996  11.092   1.296  11.936  1.7601  2.1632 -2.7094
48045SOL    HW250997  11.085   1.444  11.969  0.8604  1.5288  0.2656
48046SOL     OW50998   8.291   8.676   4.672  0.4033  0.2717  0.0513
48046SOL    HW150999   8.297   8.620   4.595  0.2688 -0.4330  0.5482
48046SOL    HW251000   8.247   8.755   4.640 -0.1605 -0.2412 -0.4684
48047SOL     OW51001   5.710   9.664   4.838 -0.3601  0.3434  0.3526
48047SOL    HW151002   5.731   9.718   4.914 -0.6590  1.1699 -0.1375
48047SOL    HW251003   5.795   9.648   4.796 -0.2696  0.4285  0.5023
48048SOL     OW51004   7.504  11.843  10.625  0.1244  0.2180 -0.2885
48048SOL    HW151005   7.512  11.828  10.531  0.1923  1.5071 -0.5033
48048SOL    HW251006   7.410  11.849  10.641  0.1327  0.7080 -0.4031
48049SOL     OW51007   9.497   9.051   8.014 -0.3854 -0.4309 -0.5517
48049SOL    HW151008   9.423   9.027   7.958 -0.7049 -0.1914 -0.2426
48049SOL    HW251009   9.512   9.144   7.997 -1.6389  0.1179  1.0169
48050SOL     OW51010   7.091   7.688   9.174 -0.0197 -0.5037  0.6818
48050SOL    HW151011   7.031   7.692   9.249  1.1436  0.3258  1.5968
48050SOL    HW251012   7.177   7.707   9.211  0.3626  1.7032 -1.1102
48051SOL     OW51013   4.546   1.880  11.297  0.2089  0.1433  0.0211
48051SOL    HW151014   4.592   1.882  11.381  1.1611 -0.2433 -0.4772
48051SOL    HW251015   4.453   1.884  11.320  0.4691  0.2655  1.0770
48052SOL     OW51016   7.890   4.133   6.657  0.1191  0.1292 -0.0448
48052SOL    HW151017   7.893   4.178   6.742 -1.1388  0.3220 -0.0846
48052SOL    HW251018   7.953   4.181   6.603 -0.3093  1.1008  0.2858
48053SOL     OW51019   3.679   4.705   1.195  0.0575  0.3336  0.4182
48053SOL    HW151020   3.612   4.705   1.263 -1.8292  1.2976 -1.3188
48053SOL    HW251021   3.671   4.618   1.154  0.0195  0.3762  0.3357
48054SOL     OW51022   4.311   7.393   5.573 -0.1858  0.0998  0.6691
48054SOL    HW151023   4.368   7.445   5.629  1.3187  0.8304 -1.4309
48054SOL    HW251024   4.365   7.369   5.499 -1.9964 -1.1323 -0.3315
48055SOL     OW51025   3.031   7.878   6.360  0.3671  0.3678  0.5315
48055SOL    HW151026   2.941   7.854   6.336  0.3863  1.4118 -0.7291
48055SOL    HW251027   3.042   7.967   6.326  1.9822  0.1438  0.3664
48056SOL     OW51028   1.617   0.592   2.182 -0.5105  0.0828  0.0459
48056SOL    HW151029   1.555   0.578   2.110 -0.4079 -1.0212  0.1470
48056SOL    HW251030   1.563   0.590   2.261 -0.3496 -1.0703  0.1478
48057SOL     OW51031  10.235   2.249  11.296  0.2534 -0.4658  0.3752
48057SOL    HW151032  10.251   2.231  11.203 -1.8206 -1.3948  0.1343
48057SOL    HW251033  10.185   2.173  11.326  0.2041  0.2039  2.0509
48058SOL     OW51034  10.747   6.529   2.934 -0.0367 -0.3839 -1.2695
48058SOL    HW151035  10.704   6.575   2.861  0.3867 -0.1721 -1.3914
48058SOL    HW251036  10.787   6.452   2.893  0.6720  0.0254 -1.3676
48059SOL     OW51037   7.804   2.643   6.743 -0.4594  0.2017 -0.6933
48059SOL    HW151038   7.775   2.567   6.793  1.7686 -0.7178 -0.6776
48059SOL    HW251039   7.728   2.669   6.691 -1.5172 -1.4830 -0.0574
48060SOL     OW51040  11.464  12.183   3.477  0.5942 -0.2884 -0.1210
48060SOL    HW151041  11.531  12.152   3.538  1.0066  4.9019  2.6655
48060SOL    HW251042  11.512  12.210   3.399  1.4473  0.6986  0.7088
48061SOL     OW51043  11.748   8.047   7.846  0.3263 -0.2331 -0.8102
48061SOL    HW151044  11.796   8.113   7.895 -1.3963  0.7691 -0.4041
48061SOL    HW251045  11.761   7.966   7.896  1.8952 -0.0972 -0.9487
48062SOL     OW51046   4.534   6.256   2.437 -0.3982 -0.4814  0.2533
48062SOL    HW151047   4.493   6.197   2.501 -1.0454  0.5831  0.8388
48062SOL    HW251048   4.475   6.254   2.362  0.2838 -1.6123 -0.2910
48063SOL     OW51049  10.110   0.677   2.424 -0.7548 -0.2636 -0.2022
48063SOL    HW151050  10.078   0.759   2.462 -0.0723  0.7439 -1.6888
48063SOL    HW251051  10.042   0.649   2.364 -0.6249 -0.3261 -0.3222
48064SOL     OW51052  10.158   9.004   0.212 -0.1950  0.7937  0.0852
48064SOL    HW151053  10.120   9.023   0.298 -2.4146 -0.5887 -0.5245
48064SOL    HW251054  10.140   8.911   0.197 -0.8789  1.2472 -2.3335
48065SOL     OW51055   9.155   4.600   3.346 -0.2135  0.7449  0.0810
48065SOL    HW151056   9.115   4.674   3.299 -2.3261 -0.2028  0.2539
48065SOL    HW251057   9.213   4.641   3.410  0.1179  2.1765 -1.0989
48066SOL     OW51058   4.940   4.757   2.377  0.4350 -0.3487 -0.7827
48066SOL    HW151059   4.846   4.741   2.371  0.0910  0.9100  0.6306
48066SOL    HW251060   4.956   4.768   2.471  1.5191  2.0393 -1.1773
48067SOL     OW51061   0.053   7.753   3.534  0.7509  0.2777  0.0171
48067SOL    HW151062   0.037   7.816   3.464 -0.9033 -0.9002 -0.7521
48067SOL    HW251063  -0.031   7.707   3.544  0.6990  0.8509  3.2716
48068SOL     OW51064   8.650   5.171   0.232 -0.2398  0.1921  0.3652
48068SOL    HW151065   8.616   5.185   0.143 -0.0565  0.7123  0.3776
48068SOL    HW251066   8.676   5.079   0.233  0.9448  0.4881 -0.5281
48069SOL     OW51067   7.858   4.458   3.834  0.4297 -0.2582 -0.6555
48069SOL    HW151068   7.815   4.387   3.787  0.2180 -1.8154  1.6882
48069SOL    HW251069   7.951   4.438   3.830  0.2845 -1.6819  1.3231
48070SOL     OW51070   1.208   9.283  11.159  0.1521  0.3825  0.2306
48070SOL    HW151071   1.180   9.296  11.250 -2.1331  0.7949 -0.4739
48070SOL    HW251072   1.186   9.365  11.115  0.1381 -0.2385 -0.9515
48071SOL     OW51073   9.134   7.568   5.416  0.1139  0.1250 -0.0054
48071SOL    HW151074   9.152   7.506   5.487 -1.3575 -0.7394 -0.3471
48071SOL    HW251075   9.143   7.517   5.336  0.0537  0.6463 -0.3494
48072SOL     OW51076   1.369  10.263   9.114  0.1701 -0.0288  0.0802
48072SOL    HW151077   1.320  10.340   9.144  2.8789  2.3270 -1.0904
48072SOL    HW251078   1.333  10.243   9.028  0.5471  1.0777 -0.3574
48073SOL     OW51079   1.675   5.170  11.407 -0.1527  0.4004  0.0924
48073SOL    HW151080   1.610   5.239  11.395 -1.2230 -0.6226 -0.2061
48073SOL    HW251081   1.754   5.204  11.365 -0.7096  1.3577 -0.2109
48074SOL     OW51082   0.136   6.668   6.217 -0.0530  0.1082  0.0099
48074SOL    HW151083   0.181   6.621   6.147 -0.4405  0.6500 -0.6243
48074SOL    HW251084   0.076   6.603   6.254  0.5019 -0.3194  0.1642
48075SOL     OW51085   2.474   6.852   2.167  0.0635 -0.3396  0.5136
48075SOL    HW151086   2.500   6.760   2.168  1.8107  0.1084 -0.4550
48075SOL    HW251087   2.428   6.865   2.250 -1.0174 -2.2817  0.2851
48076SOL     OW51088   7.577   3.414   5.986  0.0023 -0.6382  0.6735
48076SOL    HW151089   7.653   3.397   5.929  0.4620  1.7589  0.4469
48076SOL    HW251090   7.591   3.358   6.062  2.5210  0.3579  1.0485
48077SOL     OW51091   4.499   5.339   8.630  0.6161 -0.3228  0.4055
48077SOL    HW151092   4.521   5.291   8.550 -1.3541  0.0686 -0.4316
48077SOL    HW251093   4.452   5.416   8.599  0.2051  0.0625  1.9367
48078SOL     OW51094   4.933   2.257   2.346  0.2534 -0.0102 -0.0611
48078SOL    HW151095   4.874   2.213   2.408 -1.1138  0.3646 -1.0666
48078SOL    HW251096   4.969   2.330   2.396  0.0594 -0.3763  0.6364
48079SOL     OW51097   4.707   4.790   3.737  0.7021  0.2709  0.5411
48079SOL    HW151098   4.659   4.772   3.657 -1.0906  0.7772  1.4598
48079SOL    HW251099   4.750   4.874   3.721 -1.3792  1.4593  0.8111
48080SOL     OW51100  10.757   4.911   8.454  0.0765  0.1439 -0.0651
48080SOL    HW151101  10.727   4.972   8.386  0.0755  0.3954  0.1637
48080SOL    HW251102  10.829   4.955   8.497  1.4755 -0.8590 -1.2685
48081SOL     OW51103   5.018   3.845   1.270 -0.2039  0.0879  0.1575
48081SOL    HW151104   4.972   3.763   1.250 -0.8906  0.2016  1.2041
48081SOL    HW251105   5.067   3.827   1.350  0.7053  0.3146 -0.3343
48082SOL     OW51106  10.337   1.064   5.811  0.1550 -0.6888 -0.0488
48082SOL    HW151107  10.396   0.995   5.781  1.3464  0.5256 -0.5764
48082SOL    HW251108  10.388   1.114   5.874  0.0929  1.0197 -1.2900
48083SOL     OW51109   5.757  12.135   3.485  0.0463  0.2447 -0.1171
48083SOL    HW151110   5.814  12.058   3.485  0.0705  0.2607  0.2008
48083SOL    HW251111   5.728  12.144   3.395  2.0233  1.3076 -0.7077
48084SOL     OW51112   8.103  11.204   5.796  0.1261 -0.2271 -0.3726
48084SOL    HW151113   8.159  11.224   5.871  0.3507 -0.1532 -0.5593
48084SOL    HW251114   8.159  11.219   5.720  1.0667 -3.7108 -0.5317
48085SOL     OW51115   0.079   0.105   7.917  0.1469  0.0160  0.4011
48085SOL    HW151116   0.099   0.045   7.845  1.8956  0.1237  0.7437
48085SOL    HW251117   0.003   0.067   7.960  0.7096 -1.5091  0.1090
48086SOL     OW51118  11.402   2.713   2.867 -0.7012 -0.0836 -0.7861
48086SOL    HW151119  11.494   2.690   2.873 -0.7178  0.2923  1.9685
48086SOL    HW251120  11.357   2.651   2.924 -1.9908  0.5746 -1.0371
48087SOL     OW51121   5.824   0.220   3.042 -0.1451 -0.2936 -0.0141
48087SOL    HW151122   5.835   0.149   3.106 -0.3640 -1.4400 -1.2008
48087SOL    HW251123   5.894   0.205   2.978  0.5391  1.2807  0.3102
48088SOL     OW51124   3.509   8.835   1.019 -0.1743 -0.0646  0.0084
48088SOL    HW151125   3.494   8.762   0.960  1.7122  0.2323 -0.9115
48088SOL    HW251126   3.604   8.846   1.021 -0.2702  0.9730  1.8465
48089SOL     OW51127  12.137  11.177   1.272  0.0098 -0.1654  0.1974
48089SOL    HW151128  12.081  11.125   1.330  2.5915 -1.8405  1.4059
48089SOL    HW251129  12.180  11.112   1.217  2.0272  0.8490  0.5079
48090SOL     OW51130   3.302  11.461   7.542  0.2976 -0.5650 -0.0980
48090SOL    HW151131   3.289  11.491   7.632 -1.3109 -0.9726 -0.1596
48090SOL    HW251132   3.235  11.507   7.492  0.7436 -0.8546 -0.9758
48091SOL     OW51133   7.139   8.544   8.368 -0.5590  0.0295  0.1298
48091SOL    HW151134   7.062   8.600   8.352 -1.8394 -0.9317  2.4364
48091SOL    HW251135   7.118   8.497   8.449  1.1680 -2.5957 -0.8226
48092SOL     OW51136   6.040   2.964   6.629  0.0037 -0.6265  0.4418
48092SOL    HW151137   6.026   2.875   6.596 -0.7291 -0.5217  0.4487
48092SOL    HW251138   6.046   3.018   6.550 -0.0698 -0.6100  0.4474
48093SOL     OW51139   2.346  10.049   8.664 -0.0271  0.1134 -0.0249
48093SOL    HW151140   2.312   9.974   8.616 -0.4016  0.7782 -0.8144
48093SOL    HW251141   2.269  10.091   8.702  0.1361  0.3716  0.0217
48094SOL     OW51142   4.799   8.616   0.217  0.7493 -0.5583 -0.4906
48094SOL    HW151143   4.830   8.559   0.147 -0.9410 -1.2094 -0.7353
48094SOL    HW251144   4.781   8.558   0.290  0.4226 -0.1446 -0.2369
48095SOL     OW51145   8.877   1.274  12.262  1.3689  0.2184  0.4035
48095SOL    HW151146   8.909   1.265  12.351  0.3048  1.4722  0.9477
48095SOL    HW251147   8.875   1.369  12.246 -0.1543  0.1154 -0.2768
48096SOL     OW51148   7.106   9.104   2.900 -0.1768 -0.1249  0.3306
48096SOL    HW151149   7.082   9.119   2.809 -2.2315 -0.2567  0.8017
48096SOL    HW251150   7.026   9.124   2.949  0.2935 -1.9573  1.9399
48097SOL     OW51151   5.840   7.599   6.743  0.1948  0.2054 -0.5290
48097SOL    HW151152   5.809   7.689   6.742  0.0411  0.1525 -0.7418
48097SOL    HW251153   5.869   7.584   6.833 -0.0757  0.3631 -0.4163
48098SOL     OW51154   7.200   4.640  11.568  0.3374 -0.1605  0.2101
48098SOL    HW151155   7.188   4.726  11.527  0.0623  0.3233  1.2897
48098SOL    HW251156   7.146   4.642  11.646  0.3148 -1.3359  0.2421
48099SOL     OW51157   5.847   4.004   5.377 -0.0522  0.2222  0.4329
48099SOL    HW151158   5.793   4.063   5.324 -1.5635  0.2136  1.8730
48099SOL    HW251159   5.921   3.981   5.320  0.4041  3.1675 -0.3261
48100SOL     OW51160   1.949   5.235  12.385  0.3964  0.5195  0.0688
48100SOL    HW151161   2.012   5.276  12.326 -1.5834 -0.5841 -3.0392
48100SOL    HW251162   1.895   5.308  12.418  3.1082  1.4842  2.8354
48101SOL     OW51163   0.182   7.323   5.453 -0.3524 -0.7623 -0.4997
48101SOL    HW151164   0.226   7.290   5.531  0.7463  0.2817 -0.6329
48101SOL    HW251165   0.225   7.278   5.380  0.7508  0.4447 -0.6460
48102SOL     OW51166   7.171   8.724   5.433 -0.4001  0.0271 -0.0077
48102SOL    HW151167   7.220   8.806   5.439  1.9123 -1.2803 -0.1833
48102SOL    HW251168   7.171   8.703   5.340 -1.4152  0.0306 -0.0242
48103SOL     OW51169  11.879   6.189   5.618  0.7418  0.6260  0.6813
48103SOL    HW151170  11.876   6.183   5.522 -0.0198 -0.2879  0.7478
48103SOL    HW251171  11.959   6.143   5.642  0.1927 -0.3989  0.5642
48104SOL     OW51172   3.464   3.423   1.568 -0.1675 -0.1855  0.1704
48104SOL    HW151173   3.489   3.331   1.573 -1.5510 -0.6069 -0.4487
48104SOL    HW251174   3.377   3.427   1.606 -0.8758  0.5523 -1.4389
48105SOL     OW51175   6.832   6.844   6.021 -0.3370  0.2325  0.1063
48105SOL    HW151176   6.863   6.827   6.110 -0.7501 -0.2198  0.1673
48105SOL    HW251177   6.789   6.929   6.027  2.5598  1.8847 -0.4027
48106SOL     OW51178   8.928   5.641   0.739 -0.1534  0.0488 -0.7195
48106SOL    HW151179   8.939   5.622   0.832 -1.4270  1.9541 -0.1276
48106SOL    HW251180   8.857   5.584   0.710  0.1262 -0.4141 -0.5049
48107SOL     OW51181  12.097   0.122   8.650 -0.0599 -0.6932  0.1335
48107SOL    HW151182  12.150   0.068   8.708 -0.5143 -0.0610  1.1667
48107SOL    HW251183  12.007   0.092   8.665 -0.0633 -1.3982 -1.2069
48108SOL     OW51184   7.956   4.937   2.012  0.2025 -0.5539 -0.0573
48108SOL    HW151185   8.027   4.880   1.982 -1.0154 -1.4638 -1.3033
48108SOL    HW251186   7.928   4.899   2.096  0.2366 -1.0391 -0.2649
48109SOL     OW51187  11.508  12.037   1.009 -0.0356  0.2904  0.0746
48109SOL    HW151188  11.458  11.983   1.071 -0.0912  0.8275  0.5066
48109SOL    HW251189  11.477  12.126   1.026 -0.0940  0.4389 -0.7706
48110SOL     OW51190  11.114   9.916   8.910 -0.0856  0.1117  0.7600
48110SOL    HW151191  11.186   9.853   8.922 -1.6190 -1.8968  0.0336
48110SOL    HW251192  11.047   9.887   8.971 -0.8003  1.1078  0.4599
48111SOL     OW51193   7.755   7.740  11.965 -0.9077  0.3260  0.2489
48111SOL    HW151194   7.681   7.682  11.948 -1.1667  0.3548  1.2411
48111SOL    HW251195   7.717   7.828  11.964 -0.5246  0.5021 -1.2062
48112SOL     OW51196   6.341   3.736   4.589 -0.0470  0.0393  0.8829
48112SOL    HW151197   6.358   3.699   4.503  1.3424  1.9992  0.2352
48112SOL    HW251198   6.309   3.825   4.571  1.2882  0.8729  2.3579
48113SOL     OW51199   6.441   2.424   8.798 -0.1957  0.2091  0.1133
48113SOL    HW151200   6.501   2.453   8.730  1.0061 -1.3289  0.4570
48113SOL    HW251201   6.483   2.451   8.880  0.5269 -1.6681  0.3982
48114SOL     OW51202   6.412   3.877  10.918  0.2019  0.1618 -0.0268
48114SOL    HW151203   6.371   3.858  10.834 -0.9086 -0.7626  0.6839
48114SOL    HW251204   6.433   3.970  10.915  0.3345  0.1064 -1.3751
48115SOL     OW51205   7.288  11.072   3.992 -0.0001  0.2246 -0.6223
48115SOL    HW151206   7.369  11.110   3.958 -0.2692  0.4095 -1.0678
48115SOL    HW251207   7.317  11.000   4.048  0.5224  1.0801  0.2472
48116SOL     OW51208   5.529   4.844  11.421  0.1194  0.5536  0.0845
48116SOL    HW151209   5.548   4.896  11.499  2.4782  0.4907 -0.3788
48116SOL    HW251210   5.487   4.765  11.455 -0.1517  1.1298  1.1516
48117SOL     OW51211  11.907   7.451   4.588  0.6663 -0.7338  0.6598
48117SOL    HW151212  11.849   7.495   4.526  1.3734  0.8929  1.1125
48117SOL    HW251213  11.849   7.399   4.643 -0.1706 -0.5545 -0.0359
48118SOL     OW51214  10.938   7.970   7.735 -0.2179  0.0225 -0.1368
48118SOL    HW151215  10.983   7.930   7.660  1.4792 -1.5563  1.5968
48118SOL    HW251216  10.997   8.040   7.763 -1.6172  1.6813 -1.1808
48119SOL     OW51217   2.406   5.895   6.201  0.1594  0.1068 -0.0553
48119SOL    HW151218   2.364   5.864   6.281  0.4405 -0.5058 -0.1348
48119SOL    HW251219   2.496   5.860   6.207  0.7493  1.6228  0.2571
48120SOL     OW51220   1.881   3.278   7.604 -0.0536 -0.0856 -0.4022
48120SOL    HW151221   1.924   3.363   7.598 -0.7395  0.2164 -1.3088
48120SOL    HW251222   1.797   3.290   7.560 -1.0633 -0.6793  1.2644
48121SOL     OW51223   8.203   5.535   5.942 -0.2728  0.1943  0.5610
48121SOL    HW151224   8.230   5.528   5.850 -1.3204  1.2864  0.1421
48121SOL    HW251225   8.277   5.500   5.991  0.1442 -0.7947 -0.7036
48122SOL     OW51226   2.233  10.062   6.914 -0.1922  0.3152 -0.2308
48122SOL    HW151227   2.277  10.143   6.940  3.2708 -1.5371  0.2857
48122SOL    HW251228   2.217  10.072   6.821 -1.8314  2.3703  0.2091
48123SOL     OW51229  11.550   0.114   7.056 -0.2738 -0.3754 -0.4446
48123SOL    HW151230  11.551   0.200   7.014 -2.8258  0.0573  0.1991
48123SOL    HW251231  11.578   0.131   7.146  0.7148 -0.5154 -0.7129
48124SOL     OW51232   3.116   4.640   2.850  0.0095 -0.2915 -0.7579
48124SOL    HW151233   3.161   4.590   2.782 -0.1297 -0.2314 -0.8960
48124SOL    HW251234   3.024   4.640   2.823  0.4181  2.9610 -2.6089
48125SOL     OW51235   4.365   4.886  12.462 -0.0991  0.3071  0.1106
48125SOL    HW151236   4.460   4.885  12.451 -0.0729 -0.5053  0.3185
48125SOL    HW251237   4.332   4.935  12.387  0.4434  0.0405 -0.3082
48126SOL     OW51238   1.730   4.690   3.060  0.0595 -0.0357 -0.3487
48126SOL    HW151239   1.757   4.632   2.988 -0.4071  1.1473 -1.5033
48126SOL    HW251240   1.636   4.674   3.070 -0.0299  0.3902 -0.5308
48127SOL     OW51241   9.335   4.192   1.665 -0.2217 -0.1164  0.4034
48127SOL    HW151242   9.271   4.226   1.728  0.1590  0.0425  0.7065
48127SOL    HW251243   9.419   4.201   1.709  0.3594  2.1761 -1.0072
48128SOL     OW51244  11.075  10.270  10.536 -0.2465 -0.0483 -0.0286
48128SOL    HW151245  11.126  10.311  10.465 -0.2621  1.7391  0.9208
48128SOL    HW251246  10.992  10.247  10.495  0.4456 -0.8397 -1.0398
48129SOL     OW51247  10.134   1.917  11.546 -0.0366 -0.0208 -0.4179
48129SOL    HW151248  10.059   1.859  11.557  0.3461 -0.3429  0.6438
48129SOL    HW251249  10.113   1.970  11.470  0.0272 -2.2461 -2.0753
48130SOL     OW51250  10.981   3.854   6.866  0.3727 -0.6696  0.3739
48130SOL    HW151251  10.940   3.939   6.880  1.1665 -0.4219  1.2493
48130SOL    HW251252  10.913   3.802   6.823 -0.0437  0.4591 -0.3902
48131SOL     OW51253   4.299  10.800   8.727  0.4833 -0.0250 -0.5368
48131SOL    HW151254   4.285  10.707   8.713  4.7069 -1.0735  0.7590
48131SOL    HW251255   4.327  10.833   8.641  0.5832 -0.3342 -0.6225
48132SOL     OW51256   6.137   0.156  11.325  1.2626 -0.2941 -0.0778
48132SOL    HW151257   6.136   0.199  11.410 -0.4821  0.6301 -0.5085
48132SOL    HW251258   6.155   0.226  11.262 -2.9521  0.3409 -0.9213
48133SOL     OW51259   1.367   2.238   4.239  0.1905  0.1106 -0.2209
48133SOL    HW151260   1.439   2.281   4.194 -0.0975  0.4002 -0.4032
48133SOL    HW251261   1.290   2.254   4.184 -0.1293  0.3226  0.2823
48134SOL     OW51262   1.411   9.438   7.626  0.1441  0.2331  0.1466
48134SOL    HW151263   1.412   9.533   7.638  0.6338  0.1452  0.9023
48134SOL    HW251264   1.319   9.416   7.613  0.0462  0.8273 -0.2039
48135SOL     OW51265   7.851   7.798   8.915  0.6575  0.3078 -0.3126
48135SOL    HW151266   7.860   7.892   8.903  2.6632 -0.0242 -1.8931
48135SOL    HW251267   7.931   7.761   8.878 -0.2414 -2.0588 -0.0718
48136SOL     OW51268   0.531   7.414   3.615 -0.0756  0.1091 -0.3195
48136SOL    HW151269   0.623   7.429   3.637 -0.4000  0.9883  0.5109
48136SOL    HW251270   0.530   7.407   3.520  0.6337  1.7882 -0.4814
48137SOL     OW51271   8.748   5.769   1.565  0.3513 -0.4707 -0.1386
48137SOL    HW151272   8.734   5.861   1.586  1.8902 -0.4709  0.9887
48137SOL    HW251273   8.704   5.757   1.480 -2.5443  0.5263  1.0785
48138SOL     OW51274   8.229   3.897   6.293  0.3753 -0.3666 -0.1137
48138SOL    HW151275   8.307   3.852   6.326  1.0965 -0.6132 -2.0107
48138SOL    HW251276   8.251   3.990   6.297  0.4938 -0.3992 -0.0037
48139SOL     OW51277  11.462   9.657   1.668  0.1759 -0.2849  0.0017
48139SOL    HW151278  11.482   9.570   1.635  0.0889 -0.5253  0.5659
48139SOL    HW251279  11.368   9.653   1.688  0.2419 -0.1661  0.3370
48140SOL     OW51280   0.375  11.294   5.064 -0.0005 -0.2661 -0.4374
48140SOL    HW151281   0.399  11.330   5.149  0.7099 -2.2764  0.2703
48140SOL    HW251282   0.456  11.260   5.028 -0.6353 -1.2430 -0.9954
48141SOL     OW51283  10.920   2.493   1.076  0.5683  0.0489  0.1199
48141SOL    HW151284  10.937   2.576   1.120 -1.8138  2.9821 -3.8004
48141SOL    HW251285  10.833   2.467   1.107  1.7153 -1.8310  2.1433
48142SOL     OW51286   7.899  12.244  10.369  0.0865  0.0496  0.1267
48142SOL    HW151287   7.892  12.183  10.296 -3.3084  1.3636 -0.8194
48142SOL    HW251288   7.993  12.255  10.382  0.8119 -2.6027 -1.9482
48143SOL     OW51289   4.379   3.520   7.522 -0.2416  0.5418  0.3774
48143SOL    HW151290   4.383   3.578   7.446  2.3740  1.1584  0.8847
48143SOL    HW251291   4.438   3.447   7.500 -0.0550  0.3433  1.4883
48144SOL     OW51292   8.521   5.051   2.430  0.1719 -0.0381  0.5118
48144SOL    HW151293   8.612   5.070   2.406  0.4740  0.0021  1.6241
48144SOL    HW251294   8.504   4.965   2.392  0.7374 -0.1356  0.4691
48145SOL     OW51295   5.323   4.582   8.554  0.1083  0.6401 -0.5086
48145SOL    HW151296   5.389   4.649   8.540  1.5177 -0.4091  0.8446
48145SOL    HW251297   5.350   4.537   8.633 -2.0441 -0.0798 -0.1132
48146SOL     OW51298   0.117   1.000  12.065 -0.5535 -0.1869  0.2391
48146SOL    HW151299   0.025   1.016  12.089 -0.4008  3.3359 -0.9544
48146SOL    HW251300   0.112   0.953  11.981 -1.2721 -0.1455  0.2525
48147SOL     OW51301  11.181  10.868   2.842 -0.3904 -0.2382  0.5137
48147SOL    HW151302  11.271  10.888   2.870 -0.8194 -0.1278  1.8513
48147SOL    HW251303  11.144  10.954   2.819 -0.6245 -0.0838  1.4251
48148SOL     OW51304   0.690   9.794   9.392  0.7172 -0.7299 -0.2473
48148SOL    HW151305   0.747   9.735   9.342  1.0784 -0.7530  0.1811
48148SOL    HW251306   0.680   9.871   9.336  1.3248 -0.6492 -0.2561
48149SOL     OW51307   8.061   1.641   2.689  0.3188  0.5360 -0.0551
48149SOL    HW151308   7.975   1.606   2.713  0.5379  0.1405  0.1734
48149SOL    HW251309   8.055   1.734   2.710  0.0331  0.4599  0.2204
48150SOL     OW51310  10.833   1.582   4.944  0.2838 -0.0834  0.4655
48150SOL    HW151311  10.789   1.501   4.919 -1.3520  0.5926  0.9802
48150SOL    HW251312  10.857   1.569   5.036 -2.4538  0.9238  1.4413
48151SOL     OW51313   7.142   9.753   5.144 -0.0214 -0.4163 -0.1933
48151SOL    HW151314   7.048   9.752   5.125 -0.1826 -0.1336  0.5633
48151SOL    HW251315   7.174   9.669   5.109 -0.7297 -0.9449  0.3995
48152SOL     OW51316   0.951   5.198   3.533 -0.2598 -0.2502  0.4843
48152SOL    HW151317   0.906   5.117   3.510 -0.4883  0.3015 -1.2039
48152SOL    HW251318   1.035   5.170   3.569  0.3533 -1.2718 -1.5752
48153SOL     OW51319   2.091  10.746  10.985  0.0294  0.1954 -0.2141
48153SOL    HW151320   2.124  10.825  11.028  3.3060 -0.8916 -0.5285
48153SOL    HW251321   1.995  10.756  10.988  0.2815  3.3427  1.2255
48154SOL     OW51322   9.135   0.485   1.227 -0.4831 -0.0351 -0.1455
48154SOL    HW151323   9.227   0.495   1.200 -0.4117  0.2504  0.2007
48154SOL    HW251324   9.140   0.456   1.318 -0.7432  0.6239  0.0801
48155SOL     OW51325   1.277   3.469   2.682 -0.3508 -0.0128  0.3542
48155SOL    HW151326   1.309   3.442   2.768  0.5018  1.4146  0.5217
48155SOL    HW251327   1.347   3.524   2.646 -0.0737 -1.6435 -1.8587
48156SOL     OW51328  11.767   7.762  11.953 -0.5883 -0.2796  0.6319
48156SOL    HW151329  11.745   7.811  11.873  1.0230 -1.0473 -0.3361
48156SOL    HW251330  11.740   7.820  12.024 -0.1836  1.3488 -0.4682
48157SOL     OW51331   1.033  11.483   9.169 -0.1673  0.2983 -0.0890
48157SOL    HW151332   0.963  11.547   9.156  0.2280  0.8611  0.4452
48157SOL    HW251333   1.101  11.508   9.106 -0.6363 -0.5453 -0.9450
48158SOL     OW51334   0.787   0.773   3.961 -0.3482  0.0322  0.5966
48158SOL    HW151335   0.834   0.809   4.036  0.7707 -0.2350  0.0507
48158SOL    HW251336   0.792   0.678   3.973 -0.4894 -0.0053  0.3733
48159SOL     OW51337  12.159   9.453   3.229 -0.1060  0.1137 -0.3764
48159SOL    HW151338  12.243   9.439   3.275 -0.3788 -0.9540 -0.1854
48159SOL    HW251339  12.114   9.519   3.282 -0.7579 -1.6751  1.4188
48160SOL     OW51340  11.287   6.260   7.891  0.2351 -0.8770  0.8190
48160SOL    HW151341  11.273   6.199   7.964  0.5474  0.0105  1.6416
48160SOL    HW251342  11.354   6.219   7.838 -0.4700 -1.8559  0.6541
48161SOL     OW51343   1.089   9.541  11.954  0.2545  0.0059 -0.5599
48161SOL    HW151344   1.127   9.513  11.871  0.3806  1.1951 -0.9217
48161SOL    HW251345   1.016   9.598  11.929 -0.5657 -0.7036  0.1414
48162SOL     OW51346   0.580   9.982   7.887 -0.1900  0.4117  0.1951
48162SOL    HW151347   0.564  10.073   7.862 -1.2799  0.3183  0.5136
48162SOL    HW251348   0.579   9.983   7.982  1.4853  0.3360  0.2477
48163SOL     OW51349   7.922   3.439   5.321 -0.1956 -0.2463  0.0532
48163SOL    HW151350   7.985   3.392   5.265  1.0283 -0.4653  1.5207
48163SOL    HW251351   7.856   3.373   5.342  1.2407 -1.2804  1.6804
48164SOL     OW51352  11.955  10.729   5.370  0.0959  0.3437  0.1548
48164SOL    HW151353  11.893  10.723   5.443  1.1571 -1.5207  0.9762
48164SOL    HW251354  11.951  10.821   5.342 -1.9706  0.5847  1.0816
48165SOL     OW51355   4.139   2.505   0.081 -0.1080 -0.2154 -0.0043
48165SOL    HW151356   4.186   2.426   0.053  1.2941  0.9952 -1.1892
48165SOL    HW251357   4.049   2.489   0.052  0.2516 -1.1804 -0.6678
48166SOL     OW51358   8.653  12.282   5.367  0.1333 -0.3847  0.2705
48166SOL    HW151359   8.720  12.246   5.308 -1.4188 -1.9349 -0.6278
48166SOL    HW251360   8.634  12.211   5.428 -1.3724 -0.3457 -0.1069
48167SOL     OW51361   2.044   6.558   2.233 -0.1245  0.1532 -0.1497
48167SOL    HW151362   2.069   6.489   2.172  0.4568  0.3912 -0.1802
48167SOL    HW251363   2.049   6.516   2.320  0.2494  0.1700 -0.1659
48168SOL     OW51364   2.140  10.064   4.425 -0.3081 -0.6563  0.2791
48168SOL    HW151365   2.046  10.046   4.429 -0.4739 -0.9266 -2.7941
48168SOL    HW251366   2.146  10.160   4.420 -0.4270 -0.6395  0.4563
48169SOL     OW51367   6.282  10.734   9.953 -0.5133 -0.2329  0.5046
48169SOL    HW151368   6.272  10.704  10.044  0.6302  0.4405  0.8652
48169SOL    HW251369   6.206  10.791   9.939 -0.0061  0.7258  1.4952
48170SOL     OW51370   2.220   2.492   8.408 -0.0851  0.1760  0.3594
48170SOL    HW151371   2.281   2.548   8.456 -0.1968 -0.0107  0.7269
48170SOL    HW251372   2.273   2.449   8.342  0.0008  0.7132  0.0799
48171SOL     OW51373   6.185   6.753   7.759 -0.2137 -0.2531 -0.6156
48171SOL    HW151374   6.266   6.796   7.734 -0.0646  0.1577  0.5248
48171SOL    HW251375   6.134   6.820   7.804 -0.5212 -0.9119  0.0571
48172SOL     OW51376   4.770   4.914  10.959 -0.3898 -0.1623 -0.0746
48172SOL    HW151377   4.801   4.828  10.932  0.2071 -0.1076  0.4183
48172SOL    HW251378   4.681   4.899  10.991  0.7361 -1.1372  2.8421
48173SOL     OW51379   5.566   2.656   9.198 -0.5212  0.2515  0.1977
48173SOL    HW151380   5.514   2.702   9.264 -0.1631  1.4009 -0.2880
48173SOL    HW251381   5.508   2.653   9.121 -1.4500 -2.2701  0.9153
48174SOL     OW51382   2.468   7.539   8.798 -0.0222 -0.2408 -0.3059
48174SOL    HW151383   2.402   7.495   8.745 -1.8455  1.8377  0.0969
48174SOL    HW251384   2.426   7.555   8.882  1.9363 -1.1641  0.9327
48175SOL     OW51385  12.352   1.027   3.347 -0.1613  0.7747 -0.1120
48175SOL    HW151386  12.402   0.945   3.351 -1.0665  0.1498 -1.0235
48175SOL    HW251387  12.329   1.046   3.437 -1.1090 -0.7329 -0.0115
48176SOL     OW51388   8.125   7.588   7.402  0.3848  0.3121  0.4757
48176SOL    HW151389   8.090   7.523   7.462  1.1234  0.2680  0.8719
48176SOL    HW251390   8.207   7.551   7.370 -1.0137 -0.6743 -2.3145
48177SOL     OW51391   6.158   6.740   0.919  0.3415 -0.0261  0.4928
48177SOL    HW151392   6.196   6.685   0.988 -0.1950 -1.4336 -0.2876
48177SOL    HW251393   6.234   6.779   0.875  0.7619 -0.6018  0.6973
48178SOL     OW51394   8.655   1.388   7.619 -0.2320  0.1502  0.0342
48178SOL    HW151395   8.636   1.399   7.712  1.7806 -2.0043  0.8030
48178SOL    HW251396   8.749   1.371   7.615 -0.5069 -1.3059 -2.2388
48179SOL     OW51397   2.123   9.581  10.678  0.3565 -0.1421  0.8311
48179SOL    HW151398   2.213   9.550  10.671 -0.3897 -2.4307  0.4501
48179SOL    HW251399   2.077   9.535  10.608 -0.8442  2.1509  0.0096
48180SOL     OW51400  11.332   2.551   1.486  0.6202 -0.3079  0.3352
48180SOL    HW151401  11.317   2.485   1.419  2.2122  0.3009 -0.6642
48180SOL    HW251402  11.321   2.635   1.441 -1.1760  0.1726  1.5367
48181SOL     OW51403   6.539  10.508   6.818 -0.3048  0.7682 -0.1007
48181SOL    HW151404   6.505  10.477   6.734  0.0383  0.4516 -0.1293
48181SOL    HW251405   6.470  10.487   6.881  0.3461 -1.0871  0.0598
48182SOL     OW51406   6.066   3.620   7.597 -0.0041 -0.4792  0.3708
48182SOL    HW151407   5.991   3.604   7.540  0.4941  0.9986 -0.7767
48182SOL    HW251408   6.133   3.558   7.567 -0.1139 -0.4471  0.0517
48183SOL     OW51409   7.710   6.807   1.414 -0.3409 -0.2638 -0.1115
48183SOL    HW151410   7.799   6.842   1.409  0.2756 -1.7710  0.0225
48183SOL    HW251411   7.691   6.777   1.325 -0.4932 -0.4900 -0.0013
48184SOL     OW51412   8.722   8.315   6.664  0.4142  0.0238 -0.0896
48184SOL    HW151413   8.675   8.297   6.745  0.6776 -1.7225 -0.2936
48184SOL    HW251414   8.807   8.350   6.693  0.2122  0.1477  0.3570
48185SOL     OW51415  10.904   8.264   2.577 -0.2001 -0.0884 -0.1535
48185SOL    HW151416  10.892   8.181   2.623  0.5605 -0.4717 -0.6257
48185SOL    HW251417  10.996   8.265   2.551  0.4328  1.9730  1.8667
48186SOL     OW51418   3.043   8.729   1.584 -0.1656  0.3071 -0.0416
48186SOL    HW151419   3.135   8.704   1.585 -0.2488 -0.0018  0.1714
48186SOL    HW251420   3.040   8.811   1.633 -0.0921 -0.0101  0.5040
48187SOL     OW51421  11.373  11.917   5.999 -0.2387 -0.0877  0.4688
48187SOL    HW151422  11.351  11.962   6.080 -1.2095 -1.2464  0.8867
48187SOL    HW251423  11.376  11.985   5.933 -0.4108  0.7424  1.2990
48188SOL     OW51424   9.903   2.798   0.558 -0.3649  0.3475  0.0974
48188SOL    HW151425   9.884   2.736   0.488 -0.5334 -0.1867  0.6047
48188SOL    HW251426   9.841   2.870   0.544 -1.1127 -0.2440  0.3047
48189SOL     OW51427   9.354   1.040   6.729 -0.0637 -0.1967  0.3017
48189SOL    HW151428   9.329   1.093   6.653  0.0458 -1.2296 -0.4844
48189SOL    HW251429   9.364   1.103   6.800  0.4597  0.8890 -0.6936
48190SOL     OW51430  11.696   6.972   0.626  0.3013  0.5457  0.3929
48190SOL    HW151431  11.628   6.952   0.561  1.1240 -0.2877 -0.2270
48190SOL    HW251432  11.661   7.047   0.674 -0.8784  0.3924 -0.1831
48191SOL     OW51433   9.035  10.258   1.432 -0.7129 -0.3340 -0.1025
48191SOL    HW151434   8.995  10.263   1.345  0.6370 -2.8287 -0.9904
48191SOL    HW251435   9.129  10.270   1.416 -0.4284 -0.9701  0.9819
48192SOL     OW51436   4.147  12.136   3.556 -0.1936 -0.0417 -0.1936
48192SOL    HW151437   4.066  12.092   3.583  0.7051 -0.8741  1.2582
48192SOL    HW251438   4.203  12.066   3.524  0.6056  0.2686  0.4877
48193SOL     OW51439   4.596   7.886   8.458 -0.4619  0.4402  0.1233
48193SOL    HW151440   4.581   7.821   8.527 -0.4397  1.9181  1.5801
48193SOL    HW251441   4.643   7.838   8.390 -0.7911 -1.1563  0.9670
48194SOL     OW51442   8.148   9.056  11.235 -0.1055  0.0675  0.4798
48194SOL    HW151443   8.116   9.088  11.150 -0.4097 -2.1758 -0.3368
48194SOL    HW251444   8.121   9.123  11.298 -2.2538  0.5559 -0.8365
48195SOL     OW51445   0.386  11.957   7.986  0.5878  0.2429 -0.3600
48195SOL    HW151446   0.376  12.049   8.011 -0.2768  0.5314 -1.6707
48195SOL    HW251447   0.324  11.911   8.042  1.2582  0.4036  0.5331
48196SOL     OW51448   7.073   1.869  10.551  0.4813 -0.1017 -0.0300
48196SOL    HW151449   7.093   1.961  10.533 -0.3378  0.1298  0.1743
48196SOL    HW251450   7.084   1.860  10.646 -1.6889  0.4147  0.3384
48197SOL     OW51451   5.461   4.460   1.884  0.0885  0.3977  0.1265
48197SOL    HW151452   5.486   4.372   1.913  0.3376  0.3243 -0.3025
48197SOL    HW251453   5.449   4.510   1.965  0.1374  0.0193  0.3665
48198SOL     OW51454   8.576   4.857   8.410 -0.2883  0.0392 -0.4085
48198SOL    HW151455   8.602   4.765   8.407 -0.7657 -0.0907 -0.6075
48198SOL    HW251456   8.484   4.855   8.438 -0.1533  0.4817  0.0871
48199SOL     OW51457   5.859   5.449   1.785 -0.1814  0.0644  0.5343
48199SOL    HW151458   5.928   5.394   1.822 -0.3421 -0.0737  0.6324
48199SOL    HW251459   5.830   5.504   1.857 -1.6208 -1.3280  1.0844
48200SOL     OW51460   8.899   3.411   3.844 -0.2759  0.4058  0.0018
48200SOL    HW151461   8.899   3.504   3.824 -0.5678  0.5432  0.6289
48200SOL    HW251462   8.809   3.392   3.870  0.0244  0.1833  0.9206
48201SOL     OW51463   9.986   4.278   0.265  0.0392 -0.2637 -0.7575
48201SOL    HW151464   9.967   4.230   0.184 -0.7738  0.4959 -1.0295
48201SOL    HW251465  10.027   4.213   0.322 -0.6087 -1.1619 -1.2888
48202SOL     OW51466   8.643   5.665   6.435 -0.3040 -0.1285  0.1589
48202SOL    HW151467   8.582   5.738   6.424 -1.2101 -0.7631  0.8852
48202SOL    HW251468   8.730   5.705   6.428 -0.7627  1.2297  1.7672
48203SOL     OW51469   0.573   6.783   4.607 -0.3696 -0.1682 -0.0573
48203SOL    HW151470   0.563   6.690   4.626 -0.6447 -0.4008 -1.2547
48203SOL    HW251471   0.653   6.809   4.654 -0.8681 -0.7381  1.1527
48204SOL     OW51472  11.993   0.018   7.714 -0.3849  0.2989  0.4193
48204SOL    HW151473  11.903   0.041   7.738 -1.7382  0.7336 -4.1134
48204SOL    HW251474  11.985  -0.071   7.678  0.8859  0.5102 -0.4258
48205SOL     OW51475  10.215   8.464   9.123 -0.0757  0.2725  0.1783
48205SOL    HW151476  10.302   8.493   9.151 -0.4638  1.4669  0.1766
48205SOL    HW251477  10.223   8.451   9.029  0.1944  0.0146  0.2343
48206SOL     OW51478   7.093   0.683   2.974  0.0863 -0.5438  0.2393
48206SOL    HW151479   7.037   0.666   3.050  0.2631 -1.4717  0.1702
48206SOL    HW251480   7.136   0.600   2.957 -0.0586 -0.3850 -0.9749
48207SOL     OW51481  10.434   4.496   5.790 -0.4123 -0.3381  0.1474
48207SOL    HW151482  10.485   4.543   5.724  1.9224  1.8872  3.2706
48207SOL    HW251483  10.345   4.529   5.779  0.2232  1.1502 -0.8641
48208SOL     OW51484  10.828   9.524   9.048  0.0796 -0.6261  0.2131
48208SOL    HW151485  10.780   9.442   9.040  1.1172 -1.4042  1.5257
48208SOL    HW251486  10.763   9.586   9.082 -0.5932 -1.0075 -0.3495
48209SOL     OW51487   3.869   4.140   7.757  0.2118 -0.1456 -0.2715
48209SOL    HW151488   3.888   4.098   7.840  1.4617  0.8730 -0.0126
48209SOL    HW251489   3.805   4.209   7.778  0.4738  0.0649 -0.1592
48210SOL     OW51490   7.073   3.881  11.138  0.6478 -0.0595  0.0855
48210SOL    HW151491   6.996   3.914  11.090  0.6047  0.4297  0.4804
48210SOL    HW251492   7.109   3.812  11.081  0.5046  0.3972 -0.5741
48211SOL     OW51493   0.279  12.338   8.913  0.2857  0.3355  0.5112
48211SOL    HW151494   0.278  12.433   8.901 -1.5909  0.5369  1.8428
48211SOL    HW251495   0.224  12.322   8.990 -0.0166 -1.8894 -0.0789
48212SOL     OW51496  11.424   9.079   5.213  0.0835 -0.7509  0.3775
48212SOL    HW151497  11.450   9.006   5.156  0.7960 -0.7776  0.7241
48212SOL    HW251498  11.501   9.095   5.267 -0.6801 -0.9383  1.5558
48213SOL     OW51499   1.110   8.002   2.413  0.0437 -0.3435 -0.4084
48213SOL    HW151500   1.169   7.951   2.356  1.1120  1.7278 -1.2770
48213SOL    HW251501   1.067   8.063   2.353 -1.0904 -0.1124  0.6167
48214SOL     OW51502  11.406   6.731   8.546 -0.2930 -0.1367  0.6004
48214SOL    HW151503  11.418   6.824   8.564 -3.0978  0.3779  0.3004
48214SOL    HW251504  11.409   6.724   8.450 -2.0815  0.0418  0.5016
48215SOL     OW51505   0.430   1.439  11.888 -0.1664 -0.4928  0.1284
48215SOL    HW151506   0.424   1.493  11.967  0.4846  0.0886 -0.2051
48215SOL    HW251507   0.343   1.399  11.879 -0.2097 -0.6765  1.2046
48216SOL     OW51508   5.232   7.727   7.701  0.1601 -0.5730 -0.3753
48216SOL    HW151509   5.227   7.815   7.665 -1.9594 -0.3365  0.3277
48216SOL    HW251510   5.159   7.680   7.661 -0.0584 -1.3580  0.8660
48217SOL     OW51511  11.866  11.426   4.647  0.0561 -0.5942  0.2787
48217SOL    HW151512  11.771  11.426   4.663  0.3458  0.5651  2.3005
48217SOL    HW251513  11.885  11.515   4.618  0.3587 -1.2264 -1.5769
48218SOL     OW51514   6.656   3.022   7.699 -0.4663 -0.0454  0.3463
48218SOL    HW151515   6.646   2.932   7.668 -0.6859 -0.1821  0.7991
48218SOL    HW251516   6.600   3.074   7.641  0.0416 -0.1309 -0.2224
48219SOL     OW51517   0.716  10.694   9.237  0.4860  0.5649  0.9767
48219SOL    HW151518   0.800  10.715   9.195 -0.2428  0.7143 -0.4389
48219SOL    HW251519   0.720  10.599   9.251  0.2926  0.3322 -0.4556
48220SOL     OW51520  11.596   5.900   2.902 -0.3707  0.4884  0.1824
48220SOL    HW151521  11.579   5.858   2.986 -1.4222  1.1114  0.2936
48220SOL    HW251522  11.668   5.961   2.920  0.4935 -0.5181  0.2418
48221SOL     OW51523  11.236   9.063  10.568 -0.2981  0.2421  0.2701
48221SOL    HW151524  11.157   9.109  10.593  0.9240  2.6352  0.0149
48221SOL    HW251525  11.258   9.097  10.481  1.1008 -0.2175  0.4053
48222SOL     OW51526   3.282  10.171   0.564  0.1493  0.3449  0.1120
48222SOL    HW151527   3.363  10.193   0.609 -0.0545  1.9882 -0.2465
48222SOL    HW251528   3.294  10.080   0.536  1.0239 -0.1045  1.8063
48223SOL     OW51529   7.982   4.056   5.421  0.0453  0.5379 -0.4874
48223SOL    HW151530   8.050   3.989   5.415 -0.6336 -0.0859 -1.4992
48223SOL    HW251531   7.902   4.008   5.444 -0.1377  1.2054  0.2904
48224SOL     OW51532  11.791  10.055   7.738  0.3523  0.5693 -0.0905
48224SOL    HW151533  11.719  10.085   7.793 -0.0358  0.5724 -0.5885
48224SOL    HW251534  11.869  10.095   7.776  0.2307 -0.2200  1.0502
48225SOL     OW51535  11.641   4.712   1.022  0.2159 -0.7264 -0.2959
48225SOL    HW151536  11.646   4.767   1.101 -0.7812  4.0243 -3.1596
48225SOL    HW251537  11.549   4.688   1.015  0.2874 -1.0648 -0.0917
48226SOL     OW51538   2.671  10.181   4.761 -0.0967 -0.4507 -0.2867
48226SOL    HW151539   2.637  10.093   4.772  1.5859 -0.9254  2.0174
48226SOL    HW251540   2.609  10.237   4.808 -0.6172 -0.5246 -0.8730
48227SOL     OW51541   7.415   9.283   4.842 -0.1488 -0.0252 -0.2245
48227SOL    HW151542   7.485   9.236   4.797  0.5775  0.1658  0.6565
48227SOL    HW251543   7.421   9.373   4.808  1.9546  0.7297  1.8659
48228SOL     OW51544   6.307  10.917  10.687  0.1038 -0.0025  0.3002
48228SOL    HW151545   6.329  10.826  10.669  0.1174  0.1956 -0.7152
48228SOL    HW251546   6.227  10.933  10.637  0.2039  0.5958  0.3242
48229SOL     OW51547   3.931   7.215   9.829  0.2768  0.1496 -0.4922
48229SOL    HW151548   3.944   7.138   9.885  1.4618 -0.6570 -1.8157
48229SOL    HW251549   4.014   7.262   9.832 -0.0456  0.7420 -0.6415
48230SOL     OW51550   8.693   4.052   0.652 -0.2366 -0.2071  0.0155
48230SOL    HW151551   8.649   4.001   0.584 -1.5852 -0.8409  1.2998
48230SOL    HW251552   8.656   4.019   0.734  0.8631  0.9760  1.0333
48231SOL     OW51553   1.801  10.101   8.031 -0.1783  0.1176 -0.4840
48231SOL    HW151554   1.720  10.050   8.040  0.2761 -0.7377 -1.0787
48231SOL    HW251555   1.836  10.105   8.120 -0.1127 -0.8298 -0.4498
48232SOL     OW51556  10.766   0.197  10.197  0.5893  0.3902  0.3614
48232SOL    HW151557  10.696   0.192  10.132 -0.7072 -1.3242  1.8069
48232SOL    HW251558  10.825   0.125  10.175  0.2926 -0.0223  0.8736
48233SOL     OW51559   8.387   3.443   3.681  0.0867 -0.1044  0.6369
48233SOL    HW151560   8.368   3.388   3.606 -1.6610 -1.6998  2.1400
48233SOL    HW251561   8.469   3.486   3.660  0.7736 -2.1717 -1.2344
48234SOL     OW51562  11.484   1.574   9.124 -0.6297  0.0140  0.6637
48234SOL    HW151563  11.514   1.502   9.068 -2.1901 -1.8842  2.1670
48234SOL    HW251564  11.391   1.559   9.136 -0.6667  1.3074  2.4466
48235SOL     OW51565   5.052  10.000   9.719 -0.3464  0.0849  0.3056
48235SOL    HW151566   5.127   9.942   9.707 -0.7415 -0.2884 -0.4105
48235SOL    HW251567   4.976   9.944   9.703 -0.8012  0.3466  1.4491
48236SOL     OW51568   1.187  11.501   0.222  0.3063 -0.5149 -0.5103
48236SOL    HW151569   1.147  11.562   0.160  0.5110 -0.4744 -0.6040
48236SOL    HW251570   1.281  11.511   0.208  0.3496 -0.6034 -0.2856
48237SOL     OW51571   9.076   4.840   2.130 -0.0111 -0.0301  0.0407
48237SOL    HW151572   9.108   4.759   2.171 -0.6392 -0.5542 -0.4723
48237SOL    HW251573   9.008   4.871   2.189  0.8548  0.6503  0.7188
48238SOL     OW51574  11.021   1.696   6.421  0.1238 -0.0477  0.3012
48238SOL    HW151575  11.113   1.710   6.402  0.4397 -0.0105  1.7642
48238SOL    HW251576  11.009   1.601   6.410  0.7456 -0.3123  1.6651
48239SOL     OW51577   9.537   6.711   0.359  0.5274 -0.5070  0.2070
48239SOL    HW151578   9.484   6.725   0.280 -0.3319 -2.8857  0.2813
48239SOL    HW251579   9.500   6.770   0.424  0.9353  1.1419 -1.0052
48240SOL     OW51580   8.407   1.797   2.403  0.1887  0.4999  0.0963
48240SOL    HW151581   8.494   1.836   2.415 -0.2428  1.7261 -0.5459
48240SOL    HW251582   8.415   1.744   2.323  0.8967 -1.1645  1.2130
48241SOL     OW51583  11.359   4.710   4.380  0.6001 -0.3873 -0.1369
48241SOL    HW151584  11.318   4.696   4.295  2.6477 -0.5182 -1.1457
48241SOL    HW251585  11.349   4.626   4.426 -0.3362 -0.3749 -0.3024
48242SOL     OW51586  11.028  10.414   5.512  0.1734 -0.0368 -0.3254
48242SOL    HW151587  11.090  10.368   5.455 -0.6341  0.8557 -2.0001
48242SOL    HW251588  10.982  10.345   5.558 -0.1523 -0.9007 -1.8580
48243SOL     OW51589   2.640   5.459   7.016 -0.0177 -0.8688  0.2142
48243SOL    HW151590   2.654   5.446   7.110  0.1012  0.3340  0.3785
48243SOL    HW251591   2.727   5.472   6.980 -0.2030  0.7187  0.2826
48244SOL     OW51592   8.308   4.146   3.247 -0.0168  0.5037 -0.1339
48244SOL    HW151593   8.374   4.110   3.188  1.4003 -1.7573  2.5908
48244SOL    HW251594   8.346   4.227   3.279 -1.1851  2.2371 -2.8057
48245SOL     OW51595   1.245   8.614   2.267  1.0322  0.5421 -0.1366
48245SOL    HW151596   1.303   8.606   2.191  0.2573  0.0384 -0.6966
48245SOL    HW251597   1.248   8.528   2.309  0.0168  0.2128 -0.6928
48246SOL     OW51598   4.592  11.443   9.525 -0.0412 -0.3046  0.4200
48246SOL    HW151599   4.538  11.471   9.451  1.7662  2.6056  0.0546
48246SOL    HW251600   4.552  11.484   9.602 -0.4780 -1.2658  0.7216
48247SOL     OW51601   1.687  10.213   6.321  0.3930 -0.5206  0.6116
48247SOL    HW151602   1.736  10.295   6.318  1.3485 -1.1069 -1.3607
48247SOL    HW251603   1.601  10.235   6.286  0.8374 -0.4706 -0.4673
48248SOL     OW51604  11.236   4.221  10.847  0.0251  0.1291 -0.0495
48248SOL    HW151605  11.308   4.164  10.875  0.2107  0.2892 -0.2056
48248SOL    HW251606  11.217   4.274  10.924 -2.6304 -2.6437  1.4221
48249SOL     OW51607   5.690   6.575   3.743 -0.3663 -0.1294 -0.3880
48249SOL    HW151608   5.746   6.648   3.716 -0.8622  0.9919  1.4523
48249SOL    HW251609   5.621   6.572   3.676  0.0591  0.6138 -0.8819
48250SOL     OW51610   1.078   8.530   4.903 -0.2249  0.4422  0.3805
48250SOL    HW151611   0.983   8.536   4.913 -0.2934  0.0991 -0.0375
48250SOL    HW251612   1.091   8.484   4.820  0.3150  1.1113  0.0820
48251SOL     OW51613   4.608   8.524   3.264  0.5796 -0.0345 -0.2435
48251SOL    HW151614   4.579   8.606   3.222 -0.6795  0.1847  1.0143
48251SOL    HW251615   4.653   8.477   3.194  0.4549  1.2915 -1.2613
48252SOL     OW51616   3.359   2.838   7.233 -0.5037 -0.1434  0.1574
48252SOL    HW151617   3.313   2.755   7.220  1.2709 -0.9022 -1.7087
48252SOL    HW251618   3.353   2.853   7.328 -1.9482 -1.7187  0.3762
48253SOL     OW51619   8.078   9.498   9.537 -0.2850  0.0178 -0.5228
48253SOL    HW151620   7.996   9.454   9.557 -0.2984  0.8976  1.6908
48253SOL    HW251621   8.058   9.558   9.466 -1.4078 -0.2158 -0.4108
48254SOL     OW51622   1.659   4.582  11.998  0.0458 -0.5809  0.6858
48254SOL    HW151623   1.751   4.557  11.986  0.0481 -0.2845  0.0183
48254SOL    HW251624   1.661   4.677  12.006 -0.1695 -0.6058  1.0606
48255SOL     OW51625   5.637  11.408  10.554  0.1849  0.1855  0.0901
48255SOL    HW151626   5.589  11.485  10.586 -0.8726  0.0605 -1.1099
48255SOL    HW251627   5.624  11.342  10.622 -0.9884  0.3064 -0.0010
48256SOL     OW51628   1.848   5.179   0.333  0.6865 -0.3503 -0.2146
48256SOL    HW151629   1.931   5.208   0.371 -0.0419  2.0428 -0.3213
48256SOL    HW251630   1.814   5.116   0.395  0.8138  1.4607  1.8003
48257SOL     OW51631  10.194   0.617  11.066 -0.4278 -0.3072 -1.1819
48257SOL    HW151632  10.265   0.644  11.124 -1.4653  1.0795 -0.5166
48257SOL    HW251633  10.194   0.682  10.996 -0.8024 -0.5381 -1.3995
48258SOL     OW51634   7.433   6.750  11.656 -0.0566 -0.3381  0.5332
48258SOL    HW151635   7.455   6.720  11.744 -1.2224 -1.5659  0.4487
48258SOL    HW251636   7.337   6.748  11.654 -0.0620  0.3180 -0.5536
48259SOL     OW51637   7.638   2.583   7.167  0.2394  0.2496  0.1991
48259SOL    HW151638   7.559   2.545   7.129 -0.2376  1.4980 -0.1014
48259SOL    HW251639   7.615   2.598   7.259  0.8006 -1.1409  0.6011
48260SOL     OW51640   9.961   5.861   3.338 -0.4579  0.8001  0.1214
48260SOL    HW151641  10.018   5.812   3.396  0.4225  2.4980  0.7750
48260SOL    HW251642   9.933   5.798   3.272  1.1068 -0.3949  0.5509
48261SOL     OW51643   2.560  11.783  11.915  0.0262 -0.2933 -0.0222
48261SOL    HW151644   2.528  11.873  11.924 -0.4281  0.0920 -3.8501
48261SOL    HW251645   2.645  11.784  11.959 -0.2371  1.8274  0.5830
48262SOL     OW51646   4.067   6.815   8.337 -0.4509  0.3572 -0.3224
48262SOL    HW151647   4.066   6.910   8.336 -0.5595  0.3579 -0.8638
48262SOL    HW251648   4.035   6.791   8.424  0.8443  0.8138  0.3060
48263SOL     OW51649  10.413  12.353  11.873 -0.1353  0.0445 -0.2734
48263SOL    HW151650  10.426  12.277  11.929 -0.2032 -0.2373 -0.6341
48263SOL    HW251651  10.433  12.428  11.929 -1.0079 -0.1828  0.3678
48264SOL     OW51652   5.873   4.165   3.846 -0.2415  0.2080  0.0914
48264SOL    HW151653   5.922   4.245   3.868 -0.3199  0.4419 -0.5574
48264SOL    HW251654   5.891   4.105   3.919  0.2688  0.6176  0.3107
48265SOL     OW51655   3.757   9.234   4.850  0.7575 -0.7340  0.1626
48265SOL    HW151656   3.818   9.166   4.882 -0.0141 -0.8547  1.4606
48265SOL    HW251657   3.790   9.315   4.888  0.5766 -0.6717  0.1860
48266SOL     OW51658   4.642   4.695   6.998 -0.5206 -0.0626  0.1905
48266SOL    HW151659   4.673   4.674   7.086  0.9938  1.3726  0.0645
48266SOL    HW251660   4.666   4.619   6.945  1.3727  0.3016  0.4499
48267SOL     OW51661  10.601  11.697   6.630  0.2879  0.3177  0.0407
48267SOL    HW151662  10.664  11.675   6.561 -0.1195 -2.0942  0.3625
48267SOL    HW251663  10.652  11.699   6.710  0.2387  0.0436  0.0784
48268SOL     OW51664   7.808   4.853   6.150  0.1108  0.3851 -0.1318
48268SOL    HW151665   7.845   4.889   6.069  0.4009 -0.5161 -0.4077
48268SOL    HW251666   7.879   4.861   6.214  1.1114 -2.0226 -0.8470
48269SOL     OW51667   0.720   3.555  10.997 -0.2913  0.1215 -0.6307
48269SOL    HW151668   0.680   3.589  10.918 -0.1063  1.2157 -0.2669
48269SOL    HW251669   0.647   3.543  11.058 -0.3400 -0.0128 -0.7150
48270SOL     OW51670   3.207   4.703   8.603 -0.7101  0.1049  0.0551
48270SOL    HW151671   3.161   4.621   8.622  1.8965 -1.1633  1.3989
48270SOL    HW251672   3.138   4.769   8.600 -2.6106 -1.6422  1.9852
48271SOL     OW51673   9.112   7.838   2.813  0.0456 -0.5628  0.0308
48271SOL    HW151674   9.064   7.773   2.865 -0.6534 -0.4596 -0.4798
48271SOL    HW251675   9.057   7.853   2.736 -0.7460  1.9998  0.9855
48272SOL     OW51676   5.776  11.950   0.601  0.1096  0.2847 -0.4511
48272SOL    HW151677   5.787  11.897   0.523  1.1169  0.9636 -0.7867
48272SOL    HW251678   5.804  11.894   0.673 -0.3538 -0.1724 -0.6210
48273SOL     OW51679  11.983   1.946   2.437 -0.3371 -0.0446  0.0467
48273SOL    HW151680  11.938   1.861   2.436 -0.0251 -0.2218  0.4775
48273SOL    HW251681  11.919   2.007   2.474  0.5302 -0.7783  3.0806
48274SOL     OW51682   2.533  10.429   2.722 -0.1131 -0.2646  0.3864
48274SOL    HW151683   2.504  10.343   2.752 -2.5852  1.4569  3.5120
48274SOL    HW251684   2.582  10.465   2.796  1.4563  0.8433 -1.1136
48275SOL     OW51685   3.014   7.397  11.887 -0.0331  0.0536  0.0267
48275SOL    HW151686   3.001   7.320  11.832 -0.7649  0.9803 -1.1697
48275SOL    HW251687   3.018   7.363  11.976 -0.2667 -1.3620 -0.4796
48276SOL     OW51688   7.009   2.774   2.412  0.3957 -0.2685 -0.1444
48276SOL    HW151689   7.055   2.853   2.439 -2.8129  1.1645  1.5903
48276SOL    HW251690   6.916   2.796   2.419 -0.6515 -3.9739 -0.2782
48277SOL     OW51691  10.326  11.693   7.200  0.1194  0.5494 -0.3194
48277SOL    HW151692  10.302  11.625   7.263  1.8972  0.8310  0.7296
48277SOL    HW251693  10.317  11.650   7.114 -0.5815 -0.4091  0.2084
48278SOL     OW51694   2.724   6.681   9.058 -0.0637 -0.5691  0.2265
48278SOL    HW151695   2.810   6.654   9.091  0.9063 -0.8918 -2.3501
48278SOL    HW251696   2.730   6.776   9.051 -0.5669 -0.4069  1.6114
48279SOL     OW51697   8.764   0.795   7.727  0.5046 -0.3318  0.0103
48279SOL    HW151698   8.825   0.868   7.717  0.3700 -0.4201 -1.8962
48279SOL    HW251699   8.680   0.830   7.695  0.5362 -1.4065 -1.3346
48280SOL     OW51700   8.894  10.253  10.309 -0.1719  0.0734  0.1514
48280SOL    HW151701   8.832  10.326  10.305 -0.2201  0.0061 -0.4425
48280SOL    HW251702   8.839  10.176  10.322 -0.2927 -0.0855 -1.2187
48281SOL     OW51703  11.263   1.997   0.458 -0.4597  0.0619  0.1728
48281SOL    HW151704  11.291   1.910   0.430  2.5195  0.7583  0.6328
48281SOL    HW251705  11.167   1.992   0.463 -0.6487 -2.1544 -3.0711
48282SOL     OW51706  12.034  12.031   2.228  0.2861  0.3190  0.0018
48282SOL    HW151707  11.950  12.040   2.273  0.3237 -1.0283  0.3777
48282SOL    HW251708  12.099  12.047   2.296  0.3763  2.0942 -0.4427
48283SOL     OW51709  10.259   6.831   5.663 -0.0154  0.1406 -0.2599
48283SOL    HW151710  10.254   6.853   5.756 -0.2991  0.3988 -0.3372
48283SOL    HW251711  10.172   6.851   5.628  0.2394  0.5351 -0.6884
48284SOL     OW51712  11.673   7.561   6.233 -0.3545  0.1405  0.3729
48284SOL    HW151713  11.702   7.651   6.219  0.0725 -0.2829 -1.7903
48284SOL    HW251714  11.590   7.570   6.279 -1.1724  1.7517 -1.2652
48285SOL     OW51715  10.710   3.554   4.830 -0.2528 -0.2198  0.0840
48285SOL    HW151716  10.790   3.605   4.828 -0.0143 -0.5823  0.2549
48285SOL    HW251717  10.704   3.516   4.742  0.3001 -1.0013  0.3701
48286SOL     OW51718   1.262   0.065   8.283 -0.4451 -0.3446 -0.4658
48286SOL    HW151719   1.247   0.093   8.192 -0.8090 -0.7233 -0.5258
48286SOL    HW251720   1.307   0.139   8.323  0.6740 -0.5802 -1.2411
48287SOL     OW51721   3.245  10.734   2.642  0.6968 -0.1253 -0.1777
48287SOL    HW151722   3.328  10.734   2.595 -0.6477 -2.6335 -2.9538
48287SOL    HW251723   3.247  10.653   2.694 -0.1061 -0.3799 -0.5241
48288SOL     OW51724   9.228   9.779  11.450  0.4126  0.2393  0.2438
48288SOL    HW151725   9.195   9.756  11.363  2.4923  0.1612 -0.5826
48288SOL    HW251726   9.208   9.702  11.503 -0.4072  0.0673 -0.2879
48289SOL     OW51727   6.073  12.120   1.702 -0.1094  0.4119  0.5572
48289SOL    HW151728   6.157  12.115   1.749  0.3751  1.7373 -0.1021
48289SOL    HW251729   6.096  12.158   1.617 -0.8776 -2.3201 -1.0101
48290SOL     OW51730   5.477   4.704   7.339  0.2220 -0.1418 -0.6781
48290SOL    HW151731   5.525   4.726   7.419  1.0289 -1.8676 -0.6438
48290SOL    HW251732   5.506   4.768   7.275  1.4081 -0.2097 -0.2276
48291SOL     OW51733   7.286   5.793  10.690  0.3510  0.2638  0.0767
48291SOL    HW151734   7.215   5.752  10.740 -0.3346  1.7514  0.3666
48291SOL    HW251735   7.242   5.838  10.618  0.7810  2.5424  1.1510
48292SOL     OW51736   6.443  12.010   9.692 -0.2460  0.1943  0.4802
48292SOL    HW151737   6.522  11.956   9.685  0.7991  1.7319 -0.2148
48292SOL    HW251738   6.445  12.043   9.781  0.2286  0.6809  0.2976
48293SOL     OW51739   2.532  10.508  11.544 -0.8731 -0.5785  0.1794
48293SOL    HW151740   2.456  10.523  11.488 -1.1033  0.1777  0.6647
48293SOL    HW251741   2.587  10.585  11.531 -1.2032 -0.1108  1.4002
48294SOL     OW51742   1.905   8.550   9.653 -0.2789 -0.2041  0.5463
48294SOL    HW151743   1.873   8.509   9.734 -1.2679 -0.1979  0.1772
48294SOL    HW251744   1.829   8.598   9.620 -1.0940 -3.1274 -2.3218
48295SOL     OW51745   4.545   2.895   7.187 -0.3785  0.4880  0.5280
48295SOL    HW151746   4.460   2.850   7.183 -0.4458  0.6509  0.0410
48295SOL    HW251747   4.609   2.826   7.174 -0.4617  0.4556  0.2831
48296SOL     OW51748  10.773   9.844   3.206 -0.1814 -0.4908  0.2976
48296SOL    HW151749  10.680   9.820   3.205 -0.0274 -1.1470  1.0942
48296SOL    HW251750  10.798   9.845   3.113 -0.6189 -1.7664  0.1404
48297SOL     OW51751   5.782   3.084   5.118  0.3378 -0.2768 -0.3390
48297SOL    HW151752   5.767   2.993   5.091 -2.3293 -0.0570  0.0978
48297SOL    HW251753   5.786   3.081   5.213 -2.6375  0.2537 -0.0741
48298SOL     OW51754  11.834   2.440   5.013  0.5979  0.7086 -0.5390
48298SOL    HW151755  11.874   2.358   4.982 -2.2257  0.0810 -3.0859
48298SOL    HW251756  11.816   2.425   5.105  0.1133 -1.5868 -0.9552
48299SOL     OW51757  10.716  12.048   9.050 -0.2983 -0.8811 -0.3735
48299SOL    HW151758  10.670  11.981   9.100 -0.8263 -1.0192 -1.0212
48299SOL    HW251759  10.715  12.125   9.107  0.0326 -1.3208  0.2441
48300SOL     OW51760  11.806  12.126   2.671  0.1789 -0.3858  0.3460
48300SOL    HW151761  11.863  12.181   2.725  0.4660  0.8799 -1.1766
48300SOL    HW251762  11.863  12.055   2.640  0.6637  0.2895 -0.3220
48301SOL     OW51763   7.308   8.949  12.479  0.5424  0.5429  0.7924
48301SOL    HW151764   7.239   8.982  12.421  1.9772  1.3528 -0.5369
48301SOL    HW251765   7.332   8.864  12.442 -1.3116 -0.8761  2.6513
48302SOL     OW51766   9.931   8.122   1.372  0.1074 -0.0176  0.6320
48302SOL    HW151767  10.005   8.135   1.430  0.9689 -1.2038 -0.1464
48302SOL    HW251768   9.857   8.104   1.430  0.7028 -0.0553  1.3864
48303SOL     OW51769   5.013   4.164   1.081 -0.1385 -0.5072 -0.1637
48303SOL    HW151770   4.956   4.094   1.049  0.1761 -0.0539 -1.8165
48303SOL    HW251771   4.961   4.243   1.073  0.0706 -0.3398  0.1194
48304SOL     OW51772   5.604   6.595   4.755 -0.4166  0.8107  0.0714
48304SOL    HW151773   5.516   6.633   4.754 -0.7184  0.1711 -1.9669
48304SOL    HW251774   5.595   6.513   4.707  1.1543  0.3780  0.4696
48305SOL     OW51775  10.546  11.678   2.824 -0.1560  0.3612 -0.1204
48305SOL    HW151776  10.594  11.754   2.856 -0.4671  0.6223 -0.2735
48305SOL    HW251777  10.598  11.603   2.852 -0.5663  0.5653  1.2735
48306SOL     OW51778   8.480  10.181   8.738  0.6334 -0.4356 -0.4973
48306SOL    HW151779   8.508  10.137   8.658  0.7013  1.0944 -1.3552
48306SOL    HW251780   8.401  10.228   8.713  1.6826  1.5813 -0.2139
48307SOL     OW51781   8.920   2.214  11.796 -0.1356 -0.2517 -0.5884
48307SOL    HW151782   8.881   2.184  11.714 -1.7309  1.4557 -0.5073
48307SOL    HW251783   8.860   2.182  11.864  1.7037 -2.5447  0.0777
48308SOL     OW51784  11.098   2.208  11.765  0.1212 -0.5460 -0.2059
48308SOL    HW151785  11.064   2.289  11.804  2.3085  0.4207 -0.1419
48308SOL    HW251786  11.047   2.139  11.806 -2.8391  0.7997 -1.3365
48309SOL     OW51787   8.769   8.401  10.985 -0.2374 -0.3196  0.1199
48309SOL    HW151788   8.860   8.382  10.962 -0.1543  1.0059 -0.7542
48309SOL    HW251789   8.764   8.383  11.078  0.2817 -2.7335 -0.2459
48310SOL     OW51790   6.789   6.380  11.403 -0.1617  0.1658  0.3402
48310SOL    HW151791   6.885   6.373  11.406 -0.2069 -0.8261 -0.1089
48310SOL    HW251792   6.765   6.351  11.315 -0.7951  1.7697 -0.0508
48311SOL     OW51793   7.594   4.974   8.294 -0.4721  0.0062 -0.1826
48311SOL    HW151794   7.675   4.929   8.319 -1.1042 -0.3674  1.3080
48311SOL    HW251795   7.599   5.058   8.341 -0.0457  0.8677 -1.6797
48312SOL     OW51796   8.483   2.468  10.844 -0.1744  0.1743 -0.7202
48312SOL    HW151797   8.560   2.515  10.874 -0.9176  1.9383 -1.3863
48312SOL    HW251798   8.444   2.430  10.923  1.5268 -1.0562 -0.4293
48313SOL     OW51799   5.800   8.847  10.868  0.1537  0.5406  0.5641
48313SOL    HW151800   5.877   8.853  10.924  0.5623 -0.2121  0.0920
48313SOL    HW251801   5.760   8.763  10.891  0.0076  0.4877  0.1328
48314SOL     OW51802   2.736  11.348   1.733 -0.5443  0.2169  0.0264
48314SOL    HW151803   2.827  11.366   1.707 -0.7395  3.3552  1.0472
48314SOL    HW251804   2.743  11.316   1.822 -0.4160  1.7019  0.5880
48315SOL     OW51805  11.628   0.523   4.009  0.0309  0.0757  0.4313
48315SOL    HW151806  11.635   0.618   4.016  1.0069 -0.0413  1.2945
48315SOL    HW251807  11.644   0.492   4.098 -0.1820 -0.9055  0.1353
48316SOL     OW51808  10.490   4.616   9.670 -0.2975 -0.4117  0.0149
48316SOL    HW151809  10.417   4.565   9.705  0.5111 -1.6963 -0.1155
48316SOL    HW251810  10.542   4.553   9.620  1.6011  0.1469  1.1615
48317SOL     OW51811  12.430   6.601   3.573 -0.0969  0.1617 -0.1875
48317SOL    HW151812  12.480   6.681   3.590  0.2665 -0.2368  0.7047
48317SOL    HW251813  12.359   6.628   3.515  0.5912  0.9343 -0.6811
48318SOL     OW51814   9.766  10.014   1.106  0.1619 -0.4048 -0.0390
48318SOL    HW151815   9.775  10.106   1.082  1.0852 -0.5665 -0.3586
48318SOL    HW251816   9.718  10.016   1.189  2.8605  0.6119  1.6670
48319SOL     OW51817   7.946   5.958   1.969 -0.3854 -0.2145  0.4353
48319SOL    HW151818   7.962   5.910   1.887 -3.2534 -0.4155 -0.1220
48319SOL    HW251819   7.956   5.891   2.037 -1.6765 -1.0024 -0.1079
48320SOL     OW51820   4.419   5.209   4.529  0.0080 -0.3352  1.1399
48320SOL    HW151821   4.458   5.165   4.453  0.7577 -2.9497  2.8903
48320SOL    HW251822   4.492   5.250   4.574 -0.3708  0.8483  0.7044
48321SOL     OW51823  11.472   0.705   7.539 -0.3513 -0.1728  0.0991
48321SOL    HW151824  11.532   0.720   7.466 -0.1700 -1.7133 -0.0966
48321SOL    HW251825  11.425   0.788   7.549  0.7054  0.5560 -0.7522
48322SOL     OW51826   5.319   4.553  11.455  0.2080  0.0842  0.1090
48322SOL    HW151827   5.403   4.576  11.495  0.3553 -0.5135  0.1469
48322SOL    HW251828   5.276   4.498  11.520 -0.2903  0.5272  0.1602
48323SOL     OW51829   3.403   5.734   5.419  0.1682  0.1571  0.0098
48323SOL    HW151830   3.424   5.727   5.325  0.0932  0.8923 -0.0714
48323SOL    HW251831   3.453   5.810   5.448  0.1780 -0.0643  0.5663
48324SOL     OW51832  10.982  10.012   1.009  0.1442 -0.1251 -0.0201
48324SOL    HW151833  10.922  10.032   0.938 -3.4096  1.5970  3.1247
48324SOL    HW251834  11.020   9.928   0.985 -1.1171  0.1699 -3.6810
48325SOL     OW51835  12.035  10.765   8.339  0.2191  0.0279  0.0166
48325SOL    HW151836  12.101  10.797   8.400  1.3207  0.8902 -1.5624
48325SOL    HW251837  11.973  10.838   8.330 -0.1172 -0.2147  0.3243
48326SOL     OW51838   1.116   3.544   0.071  0.2025  0.2762  0.3482
48326SOL    HW151839   1.148   3.623   0.027 -0.4931 -0.8911 -2.5369
48326SOL    HW251840   1.186   3.520   0.132  1.5898  1.6908 -0.5985
48327SOL     OW51841   6.939   8.705   6.178 -0.0895  0.1182 -0.1034
48327SOL    HW151842   6.844   8.713   6.191 -0.0625 -1.3735  1.5045
48327SOL    HW251843   6.950   8.617   6.142  0.7792 -0.4856  1.5393
48328SOL     OW51844   4.560  12.232   1.894 -0.3882  0.0681 -0.4175
48328SOL    HW151845   4.556  12.327   1.903 -1.4482  0.0098 -0.1956
48328SOL    HW251846   4.581  12.218   1.801  0.5469  0.5190 -0.2816
48329SOL     OW51847  12.122   4.355   2.200  0.3340 -0.4917 -0.7815
48329SOL    HW151848  12.173   4.429   2.231  1.4005 -1.6813  0.4520
48329SOL    HW251849  12.173   4.318   2.128  0.3788 -0.6895 -0.6498
48330SOL     OW51850   3.580   4.466   0.064  0.1081 -0.7080  0.0105
48330SOL    HW151851   3.580   4.528  -0.009  1.1489 -0.9405 -0.2063
48330SOL    HW251852   3.506   4.493   0.119  1.1149  1.3746  0.4585
48331SOL     OW51853   1.058   1.216   0.165 -0.0248  0.2374  0.6406
48331SOL    HW151854   1.008   1.287   0.206  0.0822  0.9400 -0.4056
48331SOL    HW251855   1.070   1.245   0.075  1.3994 -0.4018  0.6102
48332SOL     OW51856   0.203   0.941   9.983  0.0280  0.3964  0.1909
48332SOL    HW151857   0.134   0.876   9.971  0.0484  0.3585  0.2811
48332SOL    HW251858   0.278   0.905   9.936 -0.4451  1.1287 -1.1985
48333SOL     OW51859  10.984   5.896   4.175  0.0614 -0.1860  0.2084
48333SOL    HW151860  11.042   5.885   4.251  0.0686  0.2922  0.2753
48333SOL    HW251861  10.896   5.881   4.210  0.0851 -0.2128  0.2578
48334SOL     OW51862   4.845   6.393  10.185  0.2626  0.0596  0.0009
48334SOL    HW151863   4.886   6.308  10.204  0.1085 -0.0232 -0.0381
48334SOL    HW251864   4.813   6.385  10.096 -0.4413 -0.1176  0.2642
48335SOL     OW51865   5.678   7.356   0.745  0.5149  0.9889 -0.3868
48335SOL    HW151866   5.582   7.357   0.747  0.5058 -0.3443  1.3146
48335SOL    HW251867   5.705   7.383   0.833  1.7721  2.8449 -1.2696
48336SOL     OW51868   1.915   5.069  10.374 -1.1488  0.2023 -0.2693
48336SOL    HW151869   1.959   5.074  10.459 -2.5826 -1.0037  0.6026
48336SOL    HW251870   1.986   5.073  10.310 -0.0334  1.2087  0.9624
48337SOL     OW51871   8.915  11.422   4.690 -0.6132  0.9090  0.0814
48337SOL    HW151872   8.861  11.492   4.728 -0.9847  1.3761 -1.2483
48337SOL    HW251873   8.902  11.431   4.596  0.1664 -0.3063 -0.1555
48338SOL     OW51874   0.230  12.406   1.972 -0.0570  0.0702  0.1134
48338SOL    HW151875   0.241  12.492   2.013  1.5312 -1.0365  2.1856
48338SOL    HW251876   0.137  12.384   1.986 -0.2157  0.9737  0.5350
48339SOL     OW51877   3.071   3.491  10.461 -0.3066 -0.2539  0.2034
48339SOL    HW151878   3.132   3.549  10.509  0.7617 -1.2097  0.0464
48339SOL    HW251879   3.126   3.418  10.431 -1.3093 -0.5614 -0.9696
48340SOL     OW51880  10.619   6.134   9.454  0.2972 -0.0511 -0.6346
48340SOL    HW151881  10.654   6.046   9.438 -0.8796 -0.0720 -4.0061
48340SOL    HW251882  10.675   6.192   9.402 -0.5479  0.7938 -0.6265
48341SOL     OW51883   4.255  10.533   0.379  0.0941 -0.0804  0.3538
48341SOL    HW151884   4.336  10.584   0.376  0.3650 -0.5433 -1.1858
48341SOL    HW251885   4.283  10.443   0.364 -0.6227 -0.3471  0.5823
48342SOL     OW51886   8.529   4.210   7.777  0.5963 -0.5294 -0.2351
48342SOL    HW151887   8.438   4.226   7.754  0.4404 -0.6841  0.2773
48342SOL    HW251888   8.548   4.270   7.849  1.3419  0.5662 -1.3001
48343SOL     OW51889   9.738   8.344   8.140 -0.2932 -0.4027 -0.0440
48343SOL    HW151890   9.662   8.286   8.146 -1.3124  0.7556 -1.1028
48343SOL    HW251891   9.736   8.396   8.220 -1.7020  0.8368 -0.8314
48344SOL     OW51892   3.273   7.408   1.827  0.5449 -0.2478  0.4041
48344SOL    HW151893   3.322   7.425   1.908  0.1907  0.1641  0.5379
48344SOL    HW251894   3.312   7.329   1.791  0.2516 -0.8472  1.3488
48345SOL     OW51895   6.458   4.644  11.319  0.0813 -0.0793 -0.4007
48345SOL    HW151896   6.434   4.656  11.227 -0.9947 -1.8124 -0.3924
48345SOL    HW251897   6.375   4.648  11.366 -0.1157 -3.8362 -0.0908
48346SOL     OW51898   2.745   0.778  10.550 -0.2542  0.1340  0.2275
48346SOL    HW151899   2.831   0.785  10.591 -0.4548  0.0794  0.6627
48346SOL    HW251900   2.715   0.690  10.573 -0.2258 -0.0255 -0.3240
48347SOL     OW51901   5.012   1.407   1.349 -0.0136 -1.1902  0.1623
48347SOL    HW151902   4.992   1.320   1.314 -4.7123  0.2997 -1.6847
48347SOL    HW251903   4.963   1.467   1.293  3.4339  2.8325  0.9721
48348SOL     OW51904   3.144   5.508   5.665  0.1383 -0.4149  0.4550
48348SOL    HW151905   3.181   5.596   5.665  0.4061 -0.5180 -0.2948
48348SOL    HW251906   3.071   5.512   5.726  1.3512 -0.1805  1.9474
48349SOL     OW51907  10.543   4.057  11.698  0.2081  0.1434 -0.5061
48349SOL    HW151908  10.512   3.972  11.668  0.8475 -0.2495 -0.0991
48349SOL    HW251909  10.511   4.063  11.788 -0.6608  0.7701 -0.8485
48350SOL     OW51910   1.451   9.172   9.001 -0.3972  0.1988  0.1190
48350SOL    HW151911   1.388   9.117   9.047 -2.1673  3.1344  1.4449
48350SOL    HW251912   1.462   9.129   8.916 -1.5704 -2.1969  1.0723
48351SOL     OW51913  10.135   6.568   2.511  0.1292  0.1282  0.6713
48351SOL    HW151914  10.178   6.486   2.486 -0.8789 -0.3293  0.3634
48351SOL    HW251915  10.100   6.551   2.598  0.7835  0.5906  1.0351
48352SOL     OW51916   9.982   8.771   5.264  0.5803 -0.4773 -0.3103
48352SOL    HW151917   9.942   8.836   5.323  0.0796 -1.3928  0.3785
48352SOL    HW251918   9.935   8.783   5.181  0.5616  0.1004 -0.2227
48353SOL     OW51919   8.377   8.625   7.343  0.7107  0.2565  0.4438
48353SOL    HW151920   8.300   8.590   7.386  0.4357  1.1711  0.7220
48353SOL    HW251921   8.369   8.596   7.252 -0.7544  1.5858  0.1074
48354SOL     OW51922   1.126   0.681   4.708  0.0798  0.1577 -0.4726
48354SOL    HW151923   1.118   0.753   4.645  2.5886  0.8179 -0.1514
48354SOL    HW251924   1.107   0.602   4.658  0.7734  0.7759 -1.7511
48355SOL     OW51925   4.956   9.199   2.918  0.2677  0.3078  0.2510
48355SOL    HW151926   4.906   9.237   2.846 -0.9562 -1.0160  0.3830
48355SOL    HW251927   4.894   9.194   2.991  0.2722 -2.1816  0.1623
48356SOL     OW51928   6.174   5.773   2.824 -0.4459 -0.1603  0.3986
48356SOL    HW151929   6.130   5.713   2.764  0.3540 -0.4846  0.1397
48356SOL    HW251930   6.184   5.854   2.773 -1.4830  0.2088  0.7339
48357SOL     OW51931   6.797   2.839  11.207  0.8615  0.0487  0.4279
48357SOL    HW151932   6.886   2.863  11.234  0.1079  3.3781  0.3928
48357SOL    HW251933   6.789   2.873  11.118 -0.2680 -0.7413  0.2051
48358SOL     OW51934   7.622   2.184   1.792 -0.3108  0.0656 -0.1336
48358SOL    HW151935   7.676   2.262   1.803 -1.1396  0.4647  1.6095
48358SOL    HW251936   7.650   2.125   1.862 -0.0001 -1.0362 -1.1511
48359SOL     OW51937   0.137  12.402   3.442  0.1652  0.3716  0.1961
48359SOL    HW151938   0.181  12.317   3.430  0.7159  0.9608 -2.6391
48359SOL    HW251939   0.058  12.396   3.388 -1.1765  0.7991  2.0206
48360SOL     OW51940   2.811   8.845   1.517 -0.5522  0.2605 -0.3945
48360SOL    HW151941   2.843   8.935   1.512 -0.0364  0.3429  2.5472
48360SOL    HW251942   2.890   8.792   1.522 -0.8654 -0.2741 -0.9902
48361SOL     OW51943   8.772   9.714   4.817  0.4407 -0.0506 -0.4788
48361SOL    HW151944   8.698   9.723   4.756  0.6399  2.6899 -0.4380
48361SOL    HW251945   8.817   9.798   4.812  2.2871 -0.8672  1.1814
48362SOL     OW51946   0.057   6.768   5.355  0.5703  0.1996  0.0556
48362SOL    HW151947  -0.032   6.791   5.384  0.0428 -1.0474 -0.5119
48362SOL    HW251948   0.059   6.792   5.262  0.3446 -1.0402 -0.2874
48363SOL     OW51949   7.438   5.888  11.142 -0.3548  0.0410 -0.1581
48363SOL    HW151950   7.442   5.951  11.214  0.3180 -0.3250  0.1318
48363SOL    HW251951   7.365   5.830  11.166 -3.3009  2.6709 -2.0882
48364SOL     OW51952   4.321  12.279   3.411 -0.2744  0.0318  0.0230
48364SOL    HW151953   4.321  12.373   3.426  0.1390  0.2691 -1.3394
48364SOL    HW251954   4.250  12.246   3.466 -0.6523  1.1848  0.2497
48365SOL     OW51955   9.611   2.134   8.679 -0.9714 -0.5657 -0.3244
48365SOL    HW151956   9.642   2.167   8.594  1.9017 -2.9682 -0.4138
48365SOL    HW251957   9.624   2.207   8.739 -2.0470  0.8378 -1.7033
48366SOL     OW51958   2.878   8.122  12.140 -0.2699 -0.5939 -0.5495
48366SOL    HW151959   2.940   8.194  12.152 -0.1785 -0.2277 -2.6760
48366SOL    HW251960   2.824   8.122  12.219  0.8494  0.6791  0.2553
48367SOL     OW51961   2.708   8.207   7.892 -0.1021  0.3235  0.1233
48367SOL    HW151962   2.737   8.133   7.945  0.0727  0.2543 -0.0697
48367SOL    HW251963   2.758   8.199   7.810 -1.3397 -0.3489 -0.6037
48368SOL     OW51964   4.387  10.206   8.936 -0.1649  0.0041 -0.2451
48368SOL    HW151965   4.334  10.156   8.998 -1.8757 -0.2269 -1.8246
48368SOL    HW251966   4.475  10.169   8.945 -0.0926  0.5977  2.6600
48369SOL     OW51967   1.757   8.481   0.138  0.1574  0.7335  0.4365
48369SOL    HW151968   1.697   8.517   0.203  0.4008 -0.0882  1.1349
48369SOL    HW251969   1.823   8.435   0.190  1.7729  2.1308 -0.2543
48370SOL     OW51970   2.468   8.786   9.268  0.3796  0.4323  0.1107
48370SOL    HW151971   2.400   8.841   9.308 -0.5385  0.3475 -1.2720
48370SOL    HW251972   2.423   8.705   9.245  0.7172  0.7140 -1.6359
48371SOL     OW51973   5.301   3.490   5.980  0.3666  0.1889 -0.2420
48371SOL    HW151974   5.220   3.447   6.004  1.1311 -0.4780  1.2147
48371SOL    HW251975   5.277   3.582   5.969 -0.9504 -0.2817 -1.8127
48372SOL     OW51976   4.246   0.762  11.403  0.3746 -0.0700  0.0064
48372SOL    HW151977   4.302   0.790  11.330 -0.5066  1.7198 -0.0429
48372SOL    HW251978   4.165   0.811  11.392 -0.2513 -0.6801  1.5169
48373SOL     OW51979  11.252   4.866  11.276 -0.4185  0.1571  0.0148
48373SOL    HW151980  11.269   4.822  11.360 -0.9021  0.2482  0.1603
48373SOL    HW251981  11.157   4.868  11.268 -0.3716 -0.3644 -0.8146
48374SOL     OW51982   8.651  11.403  10.133 -0.6916  0.2366  0.1917
48374SOL    HW151983   8.604  11.452  10.201  0.2444  0.5057  0.6614
48374SOL    HW251984   8.605  11.320  10.127 -0.9361  0.3066  0.9845
48375SOL     OW51985   8.187  11.505   2.493  0.5184 -0.5274 -0.4652
48375SOL    HW151986   8.254  11.500   2.425  1.9739  2.7907  0.5560
48375SOL    HW251987   8.233  11.481   2.573  0.2321  0.7036  0.0846
48376SOL     OW51988   3.660   5.805  11.612 -0.5633 -0.0056 -0.3060
48376SOL    HW151989   3.577   5.774  11.577 -0.4828  0.0904 -0.5903
48376SOL    HW251990   3.645   5.897  11.631 -0.7870 -0.2024  0.4892
48377SOL     OW51991  10.696   1.202   6.970  0.2194  0.9965 -0.4116
48377SOL    HW151992  10.778   1.252   6.974  0.2154  0.9196  1.8135
48377SOL    HW251993  10.630   1.261   7.005  0.0332 -0.1643  1.2981
48378SOL     OW51994   9.170   9.549  11.629 -0.2773  0.1102  0.3004
48378SOL    HW151995   9.106   9.541  11.699  0.7761 -1.2711  1.1312
48378SOL    HW251996   9.251   9.577  11.672  0.4357 -0.9338 -0.3138
48379SOL     OW51997   2.155   2.497   1.590  0.6458 -0.1423  0.3077
48379SOL    HW151998   2.081   2.443   1.617 -2.2336  3.1369 -0.1835
48379SOL    HW251999   2.158   2.487   1.495 -0.8222  1.3807  0.0331
48380SOL     OW52000   2.269   5.379   8.826 -0.0587 -0.2124 -0.1707
48380SOL    HW152001   2.218   5.428   8.761  0.1251  0.3615  0.1079
48380SOL    HW252002   2.349   5.430   8.837  1.1277 -1.6884 -1.4407
48381SOL     OW52003  12.352  11.040   9.479  0.2190 -0.0302  0.4080
48381SOL    HW152004  12.403  11.025   9.399  0.7437  2.3380  0.2346
48381SOL    HW252005  12.409  11.094   9.533 -1.2053  0.6891  1.2249
48382SOL     OW52006   8.780  11.582   8.962 -0.2164  0.2347  0.3267
48382SOL    HW152007   8.846  11.513   8.974 -1.7151 -1.4253 -0.6126
48382SOL    HW252008   8.788  11.636   9.041  1.3159 -0.7249  0.8844
48383SOL     OW52009   3.349   1.145   8.606  0.0655  0.1305  0.0696
48383SOL    HW152010   3.310   1.182   8.686 -0.6569 -1.5851  0.5494
48383SOL    HW252011   3.405   1.215   8.573 -0.1228  1.1297  1.7239
48384SOL     OW52012   6.167   1.587   0.721 -0.4893  0.6298  0.9059
48384SOL    HW152013   6.104   1.537   0.668  1.4756 -1.5920  0.4765
48384SOL    HW252014   6.158   1.677   0.691 -1.2306 -0.1565 -1.4588
48385SOL     OW52015   0.636   2.471   2.116  0.3424 -0.1608 -0.0866
48385SOL    HW152016   0.641   2.413   2.041  1.6812 -1.0141  0.6207
48385SOL    HW252017   0.593   2.419   2.184 -1.7014  0.9053 -0.4798
48386SOL     OW52018   5.262   5.131  11.839  0.0933 -0.2826 -0.2349
48386SOL    HW152019   5.225   5.190  11.774 -0.3433  0.7056  0.8780
48386SOL    HW252020   5.357   5.144  11.833  0.0277  0.1289 -0.3626
48387SOL     OW52021   2.618   8.621   6.071  0.1324 -0.2103 -0.0870
48387SOL    HW152022   2.549   8.677   6.106 -1.3675 -1.5338 -0.7645
48387SOL    HW252023   2.657   8.672   6.000 -0.2689  0.5073  0.2003
48388SOL     OW52024   8.090   7.457   9.131 -0.0978  0.2271  0.4178
48388SOL    HW152025   8.024   7.512   9.173  0.2547  1.2060 -0.2592
48388SOL    HW252026   8.053   7.436   9.045  0.4381  0.7487  0.0513
48389SOL     OW52027   8.686   5.790  10.422  0.1537  0.2094  0.2450
48389SOL    HW152028   8.710   5.727  10.489  0.1215 -0.1933 -0.1168
48389SOL    HW252029   8.677   5.738  10.342  1.2570  0.8162 -0.3124
48390SOL     OW52030   8.203   3.678   8.067  0.5633 -0.2790  0.1791
48390SOL    HW152031   8.273   3.629   8.023  2.8362  2.6779  0.1856
48390SOL    HW252032   8.140   3.698   7.997  1.3608 -0.2675 -0.5547
48391SOL     OW52033   2.738   0.749   9.456 -0.7883  0.4092  0.2630
48391SOL    HW152034   2.768   0.793   9.377 -0.2992 -0.8680 -0.2811
48391SOL    HW252035   2.728   0.657   9.430  0.4447 -0.2509  1.9531
48392SOL     OW52036  11.149  10.173   8.201  0.5553 -0.3547  0.0293
48392SOL    HW152037  11.130  10.231   8.128  0.1242  2.5459  2.2835
48392SOL    HW252038  11.070  10.119   8.210  0.0782  0.1800 -0.8245
48393SOL     OW52039   5.301   5.335   9.401 -0.0354  0.0922 -0.3114
48393SOL    HW152040   5.209   5.313   9.411 -0.3822  1.2483 -0.7013
48393SOL    HW252041   5.314   5.410   9.459  0.4509  0.4454 -0.8626
48394SOL     OW52042   8.512   6.097   0.434 -0.3219 -0.6708  0.2146
48394SOL    HW152043   8.532   6.003   0.433 -0.8702 -0.9337 -4.0069
48394SOL    HW252044   8.417   6.101   0.427 -0.1709  0.0473 -2.2269
48395SOL     OW52045   9.363   3.435   2.467  0.4372 -0.2942 -0.0128
48395SOL    HW152046   9.296   3.374   2.439 -0.0535 -0.2873  1.0808
48395SOL    HW252047   9.319   3.520   2.471  0.2306 -0.4379  1.5651
48396SOL     OW52048   0.346  10.826   8.507 -0.0313 -0.3411  0.2932
48396SOL    HW152049   0.386  10.786   8.430 -0.4293  0.4708 -0.3619
48396SOL    HW252050   0.273  10.876   8.472 -1.1202 -1.1197  1.3724
48397SOL     OW52051   8.334   5.345   8.233 -0.3465 -0.2513 -0.3718
48397SOL    HW152052   8.241   5.336   8.212 -0.8639  0.4905  1.3747
48397SOL    HW252053   8.368   5.403   8.165 -1.1862 -0.4279 -0.9647
48398SOL     OW52054   8.924   5.881   8.840 -0.2232 -0.2852  1.2728
48398SOL    HW152055   8.962   5.965   8.864  0.9563 -0.3790 -0.1141
48398SOL    HW252056   8.967   5.818   8.897 -1.1897  0.0339  2.3902
48399SOL     OW52057  11.957   8.292  10.080  0.3219  0.0591  0.3487
48399SOL    HW152058  11.908   8.268  10.001  0.1339 -2.4474  1.1468
48399SOL    HW252059  11.893   8.338  10.134 -0.6342 -1.4228  0.5332
48400SOL     OW52060   4.721   9.023   5.644  0.4735  0.4916  0.0184
48400SOL    HW152061   4.655   8.985   5.702 -2.0956  3.1287 -0.9022
48400SOL    HW252062   4.727   8.962   5.571 -1.4861  0.4738 -0.1759
48401SOL     OW52063   8.977  11.528   2.832  0.3347 -0.4284 -0.5958
48401SOL    HW152064   9.028  11.607   2.813 -0.9927  0.5271 -0.2476
48401SOL    HW252065   8.995  11.470   2.757  1.9789 -0.1669 -0.4457
48402SOL     OW52066  12.330   4.740  10.413 -0.1794 -0.0389 -0.3270
48402SOL    HW152067  12.294   4.668  10.360  0.6143 -0.5900 -0.1271
48402SOL    HW252068  12.255   4.798  10.428 -0.4167  0.2174 -2.1820
48403SOL     OW52069   9.776   9.844   2.688  0.5874  0.0284  0.2237
48403SOL    HW152070   9.732   9.825   2.605 -1.0657 -0.8473  1.2461
48403SOL    HW252071   9.714   9.815   2.755  1.7029  1.1042  1.7841
48404SOL     OW52072  12.340   8.877   4.959 -0.3353 -0.0652  0.1302
48404SOL    HW152073  12.285   8.923   4.895 -0.8251 -0.0147  0.5801
48404SOL    HW252074  12.346   8.788   4.925 -1.8547 -0.4362  0.7831
48405SOL     OW52075  10.531   8.859   5.144  0.3524  0.0538  0.1740
48405SOL    HW152076  10.461   8.824   5.199  1.3161  0.2997  1.6208
48405SOL    HW252077  10.539   8.951   5.170  0.9448  0.1297 -0.2549
48406SOL     OW52078   3.486   4.537   4.392  0.3231 -0.0436 -0.1231
48406SOL    HW152079   3.582   4.538   4.393  0.4042 -1.2804 -1.9272
48406SOL    HW252080   3.461   4.477   4.462  0.7554  1.5695  1.4917
48407SOL     OW52081  10.761   8.060  12.169 -0.1203  0.1493 -0.0711
48407SOL    HW152082  10.798   8.102  12.092  0.8992  0.8854  0.7841
48407SOL    HW252083  10.692   8.119  12.198 -0.2539  0.0613 -0.2148
48408SOL     OW52084   4.864   2.723  11.631 -0.0359  0.2373  0.5483
48408SOL    HW152085   4.786   2.778  11.640 -0.3895 -0.3046  0.9000
48408SOL    HW252086   4.829   2.633  11.628  0.4804  0.0495 -0.5494
48409SOL     OW52087  10.737  10.488   9.906 -0.0414  0.4853  0.8029
48409SOL    HW152088  10.787  10.564   9.877  0.0663  0.6437  1.3828
48409SOL    HW252089  10.668  10.525   9.962 -0.4264  0.2155  0.5127
48410SOL     OW52090   9.930   5.801   0.398 -0.2535  0.4796  0.3156
48410SOL    HW152091   9.835   5.803   0.386 -0.0502  0.3448 -1.5807
48410SOL    HW252092   9.949   5.709   0.416 -0.4271  0.4254  0.2265
48411SOL     OW52093   4.956  11.243  11.159  0.4278  0.0286  0.3029
48411SOL    HW152094   5.022  11.267  11.094  1.3439  1.0519  1.5482
48411SOL    HW252095   4.888  11.311  11.151  1.4175  1.2307  1.5838
48412SOL     OW52096   8.856   1.588   4.162 -0.5417 -0.2082  0.0621
48412SOL    HW152097   8.817   1.668   4.196 -1.1218 -0.2054 -0.5734
48412SOL    HW252098   8.781   1.536   4.133 -0.3714 -1.9170  2.3806
48413SOL     OW52099   7.364  11.621   4.353 -0.3511 -0.2682  0.6314
48413SOL    HW152100   7.296  11.554   4.357 -0.6540 -0.0535 -0.4505
48413SOL    HW252101   7.405  11.609   4.268 -0.0859  0.6037  0.6208
48414SOL     OW52102  10.894   5.436   9.756  0.2087  0.5214  0.8594
48414SOL    HW152103  10.835   5.510   9.743  1.1114  1.0829 -0.1499
48414SOL    HW252104  10.874   5.376   9.685 -0.3883 -0.1358  1.5648
48415SOL     OW52105   7.928   5.894   1.589  0.3420 -0.2261  0.1938
48415SOL    HW152106   7.885   5.934   1.514 -0.5487  0.1298  0.8715
48415SOL    HW252107   8.015   5.869   1.557 -0.1271 -0.3553 -1.0215
48416SOL     OW52108   1.488   2.894   1.393 -0.5779  0.4046 -0.1007
48416SOL    HW152109   1.427   2.833   1.434 -1.0575  1.0310  0.1404
48416SOL    HW252110   1.551   2.839   1.348 -0.7901 -0.2753  0.4188
48417SOL     OW52111   7.306   5.441   5.975 -0.6627 -0.4640 -0.2272
48417SOL    HW152112   7.363   5.454   6.051 -0.6032 -0.9174 -0.1872
48417SOL    HW252113   7.353   5.378   5.920 -0.3901  0.3778 -0.9760
48418SOL     OW52114  12.115   6.568  12.465  0.2403  0.0006 -0.0472
48418SOL    HW152115  12.049   6.533  12.405 -1.3298  1.6572  0.6221
48418SOL    HW252116  12.065   6.599  12.540  1.8203  1.1047  0.6016
48419SOL     OW52117   3.340   5.049   9.052 -0.0360 -0.3652  0.2795
48419SOL    HW152118   3.334   5.116   9.120 -0.1222 -0.3312  0.2379
48419SOL    HW252119   3.250   5.030   9.028  0.0005  2.1730 -2.3463
48420SOL     OW52120   1.308  10.314   5.347  0.2904  0.6117  0.4934
48420SOL    HW152121   1.302  10.225   5.383 -0.9934  0.3911 -0.2070
48420SOL    HW252122   1.402  10.332   5.345  0.6715 -1.1917 -0.4075
48421SOL     OW52123   8.663   7.287   2.393 -0.4010  0.2989  0.2112
48421SOL    HW152124   8.574   7.263   2.365 -1.1022  1.8818  0.9695
48421SOL    HW252125   8.719   7.224   2.349 -1.7067  0.6316 -2.1152
48422SOL     OW52126   0.079   6.531   9.882 -0.0766 -0.0807 -0.6293
48422SOL    HW152127   0.173   6.535   9.902 -0.2115 -3.3750  1.3114
48422SOL    HW252128   0.076   6.513   9.788  0.9710  3.7743 -1.5870
48423SOL     OW52129  11.600   8.566   2.351 -0.7383 -0.0341  0.3247
48423SOL    HW152130  11.680   8.516   2.368  0.0408  0.7427 -0.8545
48423SOL    HW252131  11.556   8.518   2.281 -0.6774  0.2066  0.1213
48424SOL     OW52132   0.332   7.899  12.079  0.4683 -0.1576  0.0919
48424SOL    HW152133   0.342   7.952  12.158 -0.0013 -0.7345  0.5503
48424SOL    HW252134   0.419   7.896  12.041  0.8086 -0.3052  0.8703
48425SOL     OW52135   8.020  11.683   7.336  0.3588  0.1790  0.6522
48425SOL    HW152136   8.101  11.635   7.315  0.5672  0.6270  0.4175
48425SOL    HW252137   7.953  11.642   7.281  0.9565  1.5568 -1.2338
48426SOL     OW52138   8.614  11.702   3.128  0.2823 -0.2512 -0.5915
48426SOL    HW152139   8.522  11.678   3.142  0.7511 -1.0602  1.5000
48426SOL    HW252140   8.638  11.659   3.046 -1.2393  0.1237 -1.2636
48427SOL     OW52141   6.735   9.711   9.733 -0.5514  0.0659  0.3443
48427SOL    HW152142   6.766   9.668   9.654  0.6048 -1.6555  1.6472
48427SOL    HW252143   6.648   9.674   9.748 -0.3708 -0.3343  0.4015
48428SOL     OW52144  10.756  11.376   5.150 -0.0183 -0.0431  0.2147
48428SOL    HW152145  10.774  11.435   5.077  0.9712 -0.1395  0.3645
48428SOL    HW252146  10.825  11.310   5.145  0.5361  0.3844  1.6860
48429SOL     OW52147   6.337   5.758   0.036  0.6411  0.2548  0.2109
48429SOL    HW152148   6.326   5.755  -0.059  0.0454  0.8603  0.2532
48429SOL    HW252149   6.403   5.825   0.051  0.6670  0.2243  0.2346
48430SOL     OW52150   0.613   4.642   6.881  0.1584 -0.3225 -0.2321
48430SOL    HW152151   0.704   4.665   6.865  0.0347 -0.4494 -1.1777
48430SOL    HW252152   0.567   4.670   6.802 -0.0505 -3.5108 -1.3804
48431SOL     OW52153  10.439   0.948   5.146 -0.3175 -0.0451  0.6373
48431SOL    HW152154  10.445   0.952   5.051  1.4993  0.1768  0.7388
48431SOL    HW252155  10.527   0.923   5.175 -0.7727  0.1457  2.2744
48432SOL     OW52156   6.534   0.972   8.542  0.5100  0.2791 -0.1821
48432SOL    HW152157   6.561   1.057   8.576  1.6216  0.0993 -0.5605
48432SOL    HW252158   6.500   0.990   8.454 -0.6545  0.5099  0.3030
48433SOL     OW52159   3.308   5.934   6.760 -0.1210  0.3402  0.5270
48433SOL    HW152160   3.341   6.018   6.728  2.6161 -0.3934  1.1724
48433SOL    HW252161   3.238   5.911   6.700  1.3507  1.4669 -1.7458
48434SOL     OW52162   9.118   0.429   5.014 -0.1234 -0.2170 -0.6310
48434SOL    HW152163   9.158   0.431   5.101  0.7572 -0.7919 -1.0109
48434SOL    HW252164   9.035   0.383   5.028 -0.2232  0.1368 -0.0085
48435SOL     OW52165   1.889   3.377   8.788  0.3602  0.2722 -0.2712
48435SOL    HW152166   1.809   3.329   8.765  0.2214  0.6838 -0.6715
48435SOL    HW252167   1.917   3.417   8.706 -0.2011  1.8651  0.2864
48436SOL     OW52168   6.237   4.890   3.952  0.3034 -0.1901  0.0840
48436SOL    HW152169   6.241   4.844   3.868 -2.7406 -1.3025  0.3950
48436SOL    HW252170   6.194   4.973   3.933  0.8277  0.1485  0.3527
48437SOL     OW52171  10.717   4.087   6.254 -0.4774  0.3347 -0.4046
48437SOL    HW152172  10.692   4.032   6.180 -1.4475  0.3366 -0.0949
48437SOL    HW252173  10.811   4.099   6.244 -0.4620 -0.3231 -1.1907
48438SOL     OW52174   8.629   1.765   3.821  0.5409  0.5670  0.0344
48438SOL    HW152175   8.551   1.820   3.825  0.4040  0.3860 -0.1230
48438SOL    HW252176   8.598   1.677   3.841  0.8141  0.5920  0.6009
48439SOL     OW52177   3.590   8.399   2.325 -0.7991 -0.5422 -0.2606
48439SOL    HW152178   3.660   8.417   2.388 -2.6052  0.0719  1.6842
48439SOL    HW252179   3.630   8.415   2.239  1.4925 -0.4715  0.7510
48440SOL     OW52180   8.534   5.224   9.653 -0.0002  0.1815 -0.2755
48440SOL    HW152181   8.591   5.236   9.577  0.2122  0.0811 -0.1338
48440SOL    HW252182   8.458   5.280   9.635  0.0809  0.2108 -0.5284
48441SOL     OW52183   2.483   2.751   4.257 -0.3344 -0.4370  0.3678
48441SOL    HW152184   2.528   2.666   4.254  0.5459  0.0462 -0.5730
48441SOL    HW252185   2.453   2.766   4.167 -0.6953  0.1489  0.5777
48442SOL     OW52186   1.829   6.385  11.492 -0.0130  0.0983 -0.4231
48442SOL    HW152187   1.860   6.369  11.403 -0.7615  1.1835 -0.9115
48442SOL    HW252188   1.908   6.408  11.542  0.4333 -0.7030 -0.7541
48443SOL     OW52189  12.396   8.495   7.438  0.0038 -0.2837  0.0233
48443SOL    HW152190  12.455   8.542   7.497  1.3990 -0.4365 -1.1954
48443SOL    HW252191  12.320   8.552   7.428  0.1845  0.1759  1.1777
48444SOL     OW52192   3.040   8.646   6.689 -0.0521  0.3049  0.1323
48444SOL    HW152193   2.979   8.691   6.631  0.2524  1.9099  0.9865
48444SOL    HW252194   3.113   8.708   6.699  0.2134 -0.2249  1.6710
48445SOL     OW52195   1.360   6.739  10.196 -0.5004  0.0514 -0.0068
48445SOL    HW152196   1.293   6.794  10.235 -0.1905  0.6709 -0.3364
48445SOL    HW252197   1.311   6.673  10.147 -0.8715 -0.0405  0.4815
48446SOL     OW52198   3.478   3.012   5.957  0.4269  0.2147  0.1761
48446SOL    HW152199   3.489   3.059   5.874  0.3857 -1.6970 -0.9792
48446SOL    HW252200   3.566   3.010   5.995  0.6323  0.3226 -0.2803
48447SOL     OW52201   9.619   6.942   6.794 -0.1075 -0.0510  0.5022
48447SOL    HW152202   9.683   7.006   6.765 -0.3839  0.6322  1.3726
48447SOL    HW252203   9.666   6.858   6.792 -0.0820 -0.0549 -1.8005
48448SOL     OW52204   5.136   3.463   9.773  0.3932 -0.1399  0.0871
48448SOL    HW152205   5.136   3.528   9.702  0.3478  0.5431  0.7013
48448SOL    HW252206   5.224   3.467   9.808  0.3376 -0.2896  0.2419
48449SOL     OW52207   5.071   0.739  10.889  0.1786 -0.3730 -0.3656
48449SOL    HW152208   5.096   0.726  10.797 -1.7414 -0.0426 -0.9671
48449SOL    HW252209   5.124   0.813  10.918  1.7791 -1.3077 -0.7722
48450SOL     OW52210   0.263   6.033   5.871 -0.5156  0.0994  0.6968
48450SOL    HW152211   0.330   6.101   5.870 -0.1442 -0.2248 -1.7514
48450SOL    HW252212   0.182   6.078   5.848 -0.4012 -0.1382 -0.2067
48451SOL     OW52213   4.331  10.584   3.184  0.9735 -0.3505  0.2426
48451SOL    HW152214   4.285  10.651   3.134 -0.0891 -1.8235 -0.8351
48451SOL    HW252215   4.424  10.606   3.174  0.7497 -0.1663 -1.7541
48452SOL     OW52216   5.526   0.410   2.891  0.7246  0.3832 -0.3152
48452SOL    HW152217   5.541   0.403   2.985  0.3812 -0.3983 -0.3136
48452SOL    HW252218   5.475   0.332   2.868  2.0312 -0.2229 -1.3902
48453SOL     OW52219  10.589   7.511   3.702  0.1732  0.3977 -0.2549
48453SOL    HW152220  10.558   7.438   3.648 -1.3402  1.7662 -1.3305
48453SOL    HW252221  10.612   7.471   3.786 -0.0148 -1.3892 -1.0111
48454SOL     OW52222   7.392  11.167   3.543  0.1078  0.3283 -0.5502
48454SOL    HW152223   7.475  11.161   3.495 -0.3712  1.4114 -1.5545
48454SOL    HW252224   7.341  11.092   3.512  0.2355  0.3677 -0.8578
48455SOL     OW52225   0.538   8.238   0.815 -0.0998 -0.1209  0.6959
48455SOL    HW152226   0.480   8.298   0.862 -0.9058 -0.7322  0.4991
48455SOL    HW252227   0.481   8.192   0.754  0.9826  0.9180 -1.2013
48456SOL     OW52228  12.083   9.427  11.475 -0.3626  1.0081 -0.1648
48456SOL    HW152229  12.051   9.454  11.561 -0.4345  1.0590 -0.2075
48456SOL    HW252230  12.019   9.461  11.413 -1.3989 -0.7173 -0.1146
48457SOL     OW52231  10.347   9.915   9.436  0.0691 -0.6192 -0.5783
48457SOL    HW152232  10.278   9.944   9.497 -0.0726 -0.2153 -0.9316
48457SOL    HW252233  10.299   9.867   9.368 -0.1457  1.4172 -1.9574
48458SOL     OW52234   3.585   3.872   1.109  0.2314  0.1403 -0.4599
48458SOL    HW152235   3.605   3.872   1.015 -1.8925 -1.2303 -0.9815
48458SOL    HW252236   3.489   3.870   1.113  0.2126  1.8214  1.7759
48459SOL     OW52237   0.291   2.829   8.833 -0.2219 -0.0306  0.0704
48459SOL    HW152238   0.233   2.805   8.761  0.4040  0.8210 -0.7647
48459SOL    HW252239   0.236   2.829   8.911 -0.7838 -1.5452 -0.3122
48460SOL     OW52240   0.021   1.100  10.545  0.1195 -0.2864 -0.4240
48460SOL    HW152241   0.093   1.095  10.607 -0.3496  0.3408  0.1926
48460SOL    HW252242   0.016   1.193  10.522 -0.5343 -0.3119 -0.4015
48461SOL     OW52243   2.758   6.196   8.111 -0.0406 -0.1677  0.0377
48461SOL    HW152244   2.686   6.155   8.062 -0.2787  0.0358  0.2196
48461SOL    HW252245   2.726   6.204   8.200 -1.3493  3.5200 -0.5978
48462SOL     OW52246   6.600  11.456   8.459 -0.1523 -0.5340  0.5421
48462SOL    HW152247   6.511  11.427   8.482 -1.5706  1.8690 -1.3391
48462SOL    HW252248   6.619  11.525   8.523 -0.5199  0.3041 -0.2274
48463SOL     OW52249   3.744   4.382  11.219 -0.2317 -0.9724  0.4827
48463SOL    HW152250   3.674   4.441  11.190  1.4333  1.0398  0.3815
48463SOL    HW252251   3.791   4.359  11.139 -0.3220 -1.7606  0.6437
48464SOL     OW52252   8.101   2.525   3.003 -0.5399 -0.3137  0.1883
48464SOL    HW152253   8.136   2.445   3.041  2.1715  1.5235  1.9044
48464SOL    HW252254   8.110   2.590   3.073  0.2214  2.1905 -2.0781
48465SOL     OW52255   5.068   7.459  10.769  0.2500  0.7312  0.0723
48465SOL    HW152256   4.996   7.522  10.771 -1.1712 -0.8633  0.5135
48465SOL    HW252257   5.085   7.445  10.676 -1.6853 -0.6945 -0.1147
48466SOL     OW52258  11.260   9.583   4.844 -0.0701  0.5119 -0.1141
48466SOL    HW152259  11.280   9.598   4.752  2.2573  0.6546  0.3694
48466SOL    HW252260  11.333   9.621   4.891 -1.0054  0.0555  1.8000
48467SOL     OW52261   5.026   8.639   4.459 -0.4400  0.4148  0.5261
48467SOL    HW152262   5.026   8.650   4.554  0.2414  1.8128  0.3862
48467SOL    HW252263   5.006   8.726   4.425  0.1317  0.1085 -0.6248
48468SOL     OW52264   7.135   2.891   5.780  0.8824  0.4913  0.0198
48468SOL    HW152265   7.219   2.848   5.760  1.5250  2.7635 -2.7856
48468SOL    HW252266   7.089   2.894   5.696 -1.8216 -0.1277  1.3783
48469SOL     OW52267   2.353   3.606   4.301 -0.6335 -0.3145 -0.3738
48469SOL    HW152268   2.374   3.515   4.280 -1.6793 -0.2644 -1.7584
48469SOL    HW252269   2.267   3.602   4.343 -0.2167 -0.0445  0.5334
48470SOL     OW52270   0.753   6.681  11.519 -0.2075 -0.2886  0.1556
48470SOL    HW152271   0.708   6.598  11.507  2.1087 -1.4981 -0.8601
48470SOL    HW252272   0.714   6.719  11.598 -1.5019 -2.2115  0.5006
48471SOL     OW52273   0.369   9.234   4.203  0.1857  0.3567  0.5369
48471SOL    HW152274   0.341   9.323   4.182  0.7205  0.7451  1.4589
48471SOL    HW252275   0.452   9.245   4.250  0.2365 -0.6252  0.6894
48472SOL     OW52276  10.613  10.713   6.997 -0.0247  0.6469 -0.4298
48472SOL    HW152277  10.624  10.783   7.061 -1.4013  0.4188  0.1019
48472SOL    HW252278  10.526  10.677   7.015  1.1024 -2.0605  0.1430
48473SOL     OW52279   3.657   1.476   1.471  0.1997  0.0835  0.5898
48473SOL    HW152280   3.676   1.480   1.377  0.9321 -0.6983  0.6952
48473SOL    HW252281   3.563   1.459   1.475  0.8437 -5.1849 -0.1694
48474SOL     OW52282   6.296  11.102  11.299 -0.2825 -0.1334 -0.6644
48474SOL    HW152283   6.213  11.068  11.265  0.1582 -1.0595 -0.8535
48474SOL    HW252284   6.314  11.047  11.375 -0.1127  0.4257 -0.3039
48475SOL     OW52285  11.434  11.051   1.057  0.1200 -1.1301 -0.2971
48475SOL    HW152286  11.511  11.099   1.026  0.3857 -1.7463 -0.6062
48475SOL    HW252287  11.365  11.117   1.061 -0.0349 -1.0772 -2.5743
48476SOL     OW52288  11.759  10.421   3.880  1.0297  0.0053  0.0515
48476SOL    HW152289  11.690  10.450   3.820  1.6802 -0.0000 -0.7025
48476SOL    HW252290  11.733  10.332   3.904 -1.0759  1.1133  2.5136
48477SOL     OW52291   6.529   9.889   4.427 -0.3545 -0.4243 -0.5552
48477SOL    HW152292   6.442   9.901   4.389 -0.2810  2.5113 -0.0367
48477SOL    HW252293   6.588   9.888   4.352 -0.6926 -0.8884 -0.8239
48478SOL     OW52294   1.681   0.645  10.471 -0.0713 -0.3122 -0.1489
48478SOL    HW152295   1.683   0.587  10.547  1.3112  1.2108  1.0475
48478SOL    HW252296   1.762   0.696  10.477 -0.9464  1.3456 -1.4635
48479SOL     OW52297   7.267   6.119   7.182  0.0937  0.2011  1.0271
48479SOL    HW152298   7.286   6.057   7.112 -2.4889  2.5549 -2.0490
48479SOL    HW252299   7.350   6.164   7.198  1.6177 -2.8169  2.2401
48480SOL     OW52300  10.911   0.992   5.044  0.0397  0.0571 -0.8113
48480SOL    HW152301  10.926   0.928   4.974 -0.1656 -0.4453 -0.4041
48480SOL    HW252302  10.903   0.939   5.123  0.1132  0.6116 -0.4304
48481SOL     OW52303   1.341   2.826   4.309 -0.3259 -0.8755  0.3280
48481SOL    HW152304   1.320   2.763   4.378 -0.1966  0.0329  1.2118
48481SOL    HW252305   1.283   2.900   4.325  1.6224  0.5438  1.1939
48482SOL     OW52306   4.630   0.544   7.383  0.1099  0.3328 -0.0947
48482SOL    HW152307   4.577   0.465   7.375 -0.7755  1.0615 -2.0501
48482SOL    HW252308   4.657   0.564   7.293  1.2822  1.6113  0.5060
48483SOL     OW52309   9.672   3.458  11.813  0.3915 -0.1955  0.5830
48483SOL    HW152310   9.764   3.467  11.786  0.2589 -0.5730 -0.0201
48483SOL    HW252311   9.676   3.413  11.897  0.7373 -0.6369  0.3318
48484SOL     OW52312   4.098   6.475   1.108 -0.2136  0.0384 -0.2777
48484SOL    HW152313   4.039   6.417   1.060 -0.1389 -1.2919  1.1646
48484SOL    HW252314   4.048   6.556   1.120 -0.4088  0.2198 -2.1145
48485SOL     OW52315   7.836  11.674  10.021 -0.5844  0.3367  0.4043
48485SOL    HW152316   7.779  11.634   9.955  0.1864  0.2383 -0.2072
48485SOL    HW252317   7.912  11.617  10.025  0.2625  1.4117 -0.0369
48486SOL     OW52318   9.003   6.964   9.457 -0.2505  0.2243  0.1077
48486SOL    HW152319   8.934   7.006   9.510 -1.6891  0.3246 -1.7521
48486SOL    HW252320   8.986   6.870   9.467  0.7681  0.1508  1.4204
48487SOL     OW52321   8.059   3.023   4.986 -0.1263  0.0570  0.6262
48487SOL    HW152322   8.118   2.977   4.927 -2.0546 -0.6802 -0.8525
48487SOL    HW252323   8.101   3.107   5.003  1.3520 -0.4633 -0.2960
48488SOL     OW52324   4.680   5.783   0.534  0.2145 -0.3719 -0.2030
48488SOL    HW152325   4.678   5.688   0.545 -0.7313 -0.2623  0.7130
48488SOL    HW252326   4.728   5.796   0.453  0.0998 -1.6497 -0.5049
48489SOL     OW52327   7.951   1.473  12.288 -0.1621  0.0268  0.1605
48489SOL    HW152328   7.995   1.394  12.318 -0.1986 -0.2613 -0.5287
48489SOL    HW252329   7.932   1.457  12.195  1.8406  1.6956 -0.6204
48490SOL     OW52330   0.398  11.143   4.753  0.1578 -0.7817 -0.0298
48490SOL    HW152331   0.352  11.218   4.789  0.7712 -0.3514 -0.1263
48490SOL    HW252332   0.456  11.114   4.823  0.0198 -1.0785 -0.0387
48491SOL     OW52333  10.116   1.912   1.321 -0.2536 -0.0258 -0.2395
48491SOL    HW152334  10.140   1.903   1.413 -2.3505 -1.3190  0.2564
48491SOL    HW252335  10.093   1.823   1.294  0.0299  0.3914 -1.9342
48492SOL     OW52336   5.666   5.570   0.226  0.1749 -0.0484  0.3600
48492SOL    HW152337   5.623   5.600   0.306 -2.8075  0.2068 -1.1840
48492SOL    HW252338   5.625   5.486   0.206  0.4537  0.1328 -1.1172
48493SOL     OW52339   9.152  12.042   0.618  0.0735  0.3095  0.5657
48493SOL    HW152340   9.164  11.953   0.652  1.3937 -0.0466 -0.7306
48493SOL    HW252341   9.081  12.034   0.555 -0.2900  0.3390  0.9630
48494SOL     OW52342   5.240   0.176   2.354 -0.1803 -0.0710 -0.0393
48494SOL    HW152343   5.185   0.231   2.299  0.4448 -0.2292 -0.8407
48494SOL    HW252344   5.301   0.134   2.293 -1.2708 -2.4666  0.3936
48495SOL     OW52345   4.194   1.733  12.234 -0.1410 -0.0625 -0.5336
48495SOL    HW152346   4.187   1.731  12.139  2.0684 -0.9389 -0.7463
48495SOL    HW252347   4.138   1.806  12.261  1.6302  2.3531 -2.7947
48496SOL     OW52348   6.859   8.693   2.118  0.1855 -0.7641  0.0221
48496SOL    HW152349   6.795   8.703   2.188  1.3534 -2.1344  1.3506
48496SOL    HW252350   6.811   8.648   2.048 -0.9611  0.5272 -0.0501
48497SOL     OW52351   8.890  10.125  10.711  0.1003 -0.3046 -0.7138
48497SOL    HW152352   8.960  10.180  10.676 -0.2925  0.5222 -0.2091
48497SOL    HW252353   8.935  10.045  10.739  1.2714  1.0677  1.6802
48498SOL     OW52354   5.212   4.814   8.759  0.2877 -0.7375  0.1437
48498SOL    HW152355   5.190   4.877   8.828  0.2913  0.2372 -0.7244
48498SOL    HW252356   5.284   4.762   8.796  2.5619  1.8859 -0.2736
48499SOL     OW52357   2.859   9.466   8.995 -0.0230  0.1094  0.2806
48499SOL    HW152358   2.784   9.452   8.938  0.0767 -0.5698  0.3156
48499SOL    HW252359   2.903   9.382   8.999  0.4055  0.3474  0.7430
48500SOL     OW52360   3.097   1.036   2.853  0.1270  0.4912 -0.0197
48500SOL    HW152361   3.123   1.121   2.818  0.0896  0.5907  0.1949
48500SOL    HW252362   3.074   0.984   2.775  2.8094 -0.2376 -0.4292
48501SOL     OW52363   9.610   6.866  11.987 -0.0116 -0.1834  0.2536
48501SOL    HW152364   9.611   6.787  12.041  0.1443  0.0959  0.6664
48501SOL    HW252365   9.524   6.867  11.947  0.1283 -0.7732 -0.0699
48502SOL     OW52366  10.251   9.756  11.717 -0.4211  0.3698 -0.1692
48502SOL    HW152367  10.211   9.701  11.649  0.5375  1.2215 -1.4798
48502SOL    HW252368  10.192   9.831  11.724 -1.5617 -0.6178  1.3936
48503SOL     OW52369   3.647   6.801   3.512 -0.1332  0.3067  0.4797
48503SOL    HW152370   3.732   6.767   3.540 -0.1332 -0.7711 -0.7353
48503SOL    HW252371   3.585   6.730   3.531 -0.6304  0.7394  0.5226
48504SOL     OW52372   0.001  11.900   2.955 -0.0200  0.3094  0.4395
48504SOL    HW152373  -0.006  11.854   2.871  1.6096 -0.9889  0.9610
48504SOL    HW252374   0.011  11.992   2.931 -1.6312  0.2308 -0.6994
48505SOL     OW52375  10.653   0.236   7.939 -0.4968 -0.0521 -0.1711
48505SOL    HW152376  10.608   0.153   7.924 -1.4949  0.3981  0.2053
48505SOL    HW252377  10.698   0.225   8.023  1.5073 -1.0694 -1.3060
48506SOL     OW52378   7.705   2.376   4.341 -0.2360  0.1786 -0.0022
48506SOL    HW152379   7.664   2.296   4.374  0.7387  0.2104  1.3869
48506SOL    HW252380   7.776   2.345   4.285  0.4407  0.0272  0.9075
48507SOL     OW52381   6.575   5.995   7.681 -0.1039 -0.4533  0.0286
48507SOL    HW152382   6.521   6.024   7.608  0.9232  2.0350  0.1401
48507SOL    HW252383   6.662   6.030   7.661 -0.1444  1.9228  3.1911
48508SOL     OW52384   7.639   9.492   2.143 -0.0949  0.2044 -0.3753
48508SOL    HW152385   7.698   9.420   2.123 -1.8996 -1.0567 -1.4565
48508SOL    HW252386   7.691   9.571   2.129  1.4718 -0.8512 -0.7311
48509SOL     OW52387  10.009   1.824  10.135 -0.5314  0.6181 -0.1636
48509SOL    HW152388  10.050   1.753  10.087  1.5156  1.4121  0.3324
48509SOL    HW252389  10.081   1.875  10.171 -1.9628  1.5911  1.5188
48510SOL     OW52390   9.518   5.141   0.085 -0.5844 -0.2159  0.9596
48510SOL    HW152391   9.546   5.214   0.031 -2.2584  0.0277  0.3843
48510SOL    HW252392   9.530   5.172   0.175  0.5922  0.0016  0.7494
48511SOL     OW52393   6.052   3.614   8.828 -0.2650 -0.1175  0.1272
48511SOL    HW152394   6.104   3.682   8.872  1.7543 -0.0187 -2.2319
48511SOL    HW252395   5.963   3.647   8.832  0.3254  1.4959  1.1303
48512SOL     OW52396   6.916  11.194  11.944  0.1571 -0.9093  0.0633
48512SOL    HW152397   6.962  11.261  11.994  1.8082  0.1838 -2.6625
48512SOL    HW252398   6.972  11.117  11.949  0.5375 -0.6703 -0.3838
48513SOL     OW52399   0.447   6.486   3.558  0.4046  0.0111  0.2745
48513SOL    HW152400   0.486   6.400   3.575 -0.0853 -0.3637 -0.4110
48513SOL    HW252401   0.510   6.530   3.501  0.9166  0.3330  1.0721
48514SOL     OW52402  10.668  10.978   4.293  0.4421 -0.5108 -0.1644
48514SOL    HW152403  10.598  10.925   4.332  1.4002 -1.8093 -0.1317
48514SOL    HW252404  10.672  11.056   4.347  0.0669 -1.1438  0.8041
48515SOL     OW52405   8.398   2.293   3.686 -0.1486 -0.0393  0.5137
48515SOL    HW152406   8.440   2.348   3.752 -0.3741  1.0326 -0.1922
48515SOL    HW252407   8.469   2.267   3.627  0.1476 -1.4469  1.4437
48516SOL     OW52408  10.803   5.187   4.104  0.2269 -0.1602 -0.3754
48516SOL    HW152409  10.796   5.281   4.089 -1.1709 -0.2284 -0.3428
48516SOL    HW252410  10.885   5.175   4.152  0.1725  1.0977  0.0559
48517SOL     OW52411   9.461   3.853   3.211  0.1922  0.3857  0.1731
48517SOL    HW152412   9.441   3.764   3.242  1.5715 -0.0013  0.0010
48517SOL    HW252413   9.553   3.866   3.232  0.2709  1.4069 -0.7258
48518SOL     OW52414  11.677   2.953   9.412  0.0546 -0.1957 -0.1836
48518SOL    HW152415  11.763   2.969   9.452  0.0945 -1.2250  0.1672
48518SOL    HW252416  11.692   2.963   9.318  0.9517 -1.9601 -0.2671
48519SOL     OW52417  10.878   7.867   8.630 -0.3053 -0.7721 -0.1902
48519SOL    HW152418  10.965   7.827   8.636  0.8186  1.1581 -2.0433
48519SOL    HW252419  10.874   7.904   8.542 -0.8133  3.8138  1.4414
48520SOL     OW52420  11.408   2.233   3.823  0.0294 -0.2426  0.3382
48520SOL    HW152421  11.485   2.287   3.807  0.2835  0.1149  2.4899
48520SOL    HW252422  11.443   2.151   3.860 -0.5827 -0.2842  0.8373
48521SOL     OW52423   6.827   0.472   4.832  0.0484  0.3769  0.0044
48521SOL    HW152424   6.810   0.511   4.746  0.0898 -2.0732 -1.1983
48521SOL    HW252425   6.917   0.495   4.851  0.0714  0.8695 -0.6554
48522SOL     OW52426   1.494   4.006   0.917 -0.3530 -0.2508 -0.1828
48522SOL    HW152427   1.431   4.023   0.848 -0.6080 -0.3400  0.0288
48522SOL    HW252428   1.459   3.932   0.966 -0.3467  0.0227  0.2488
48523SOL     OW52429   6.278  10.042   1.326  0.4043 -0.1334  0.2995
48523SOL    HW152430   6.350  10.081   1.374  0.8856 -0.5987 -0.0372
48523SOL    HW252431   6.317   9.969   1.278 -0.5415 -1.2566  1.1789
48524SOL     OW52432  12.283   7.681   3.537  0.2468  0.7063  0.6449
48524SOL    HW152433  12.256   7.697   3.447  1.1129  2.9412  0.7086
48524SOL    HW252434  12.236   7.747   3.588  2.1742  1.6236  1.3481
48525SOL     OW52435   5.971  10.170   2.787 -0.2120  0.6886 -0.6497
48525SOL    HW152436   5.897  10.230   2.775 -0.7708 -0.0278 -0.8929
48525SOL    HW252437   6.028  10.188   2.712 -0.8709  0.2388 -1.2834
48526SOL     OW52438   1.405   9.908   0.427  0.1921  0.4041 -0.1484
48526SOL    HW152439   1.371   9.868   0.506 -1.7721  1.5514 -0.3313
48526SOL    HW252440   1.491   9.941   0.451 -0.5364  1.1160  1.6758
48527SOL     OW52441   4.812   9.503   1.671 -0.2170  0.5780 -0.1660
48527SOL    HW152442   4.898   9.471   1.644 -1.2738 -2.0941 -0.7110
48527SOL    HW252443   4.790   9.570   1.606  1.5669  1.5834  0.2125
48528SOL     OW52444   3.957   0.977  11.887  0.0834  0.2447 -0.1008
48528SOL    HW152445   3.973   0.884  11.904  0.5238  0.5896  1.5449
48528SOL    HW252446   4.040   1.020  11.910 -0.6675  1.2238  0.9086
48529SOL     OW52447  10.847   8.719   3.252 -0.0320 -0.0878  0.8101
48529SOL    HW152448  10.768   8.677   3.220 -0.8687  1.2104  1.0910
48529SOL    HW252449  10.876   8.775   3.180  0.6338 -0.5606  0.7063
48530SOL     OW52450   8.632   6.026   0.152  0.0076  0.5127 -0.6683
48530SOL    HW152451   8.614   6.007   0.244 -0.0198 -1.6869 -1.0750
48530SOL    HW252452   8.710   6.081   0.153  0.0632  0.4255  0.6776
48531SOL     OW52453   5.086   2.024   8.131 -0.2233  0.0433  0.2211
48531SOL    HW152454   5.104   1.991   8.043 -0.6680  1.0061 -0.2504
48531SOL    HW252455   5.171   2.023   8.175  0.5774  2.0870 -1.1201
48532SOL     OW52456   0.269   6.483  11.041  0.0502  0.1507 -0.4651
48532SOL    HW152457   0.324   6.554  11.074  0.3499 -0.7144  1.0010
48532SOL    HW252458   0.329   6.408  11.033 -0.8596 -0.8344  1.2493
48533SOL     OW52459  12.364   7.163  10.406  0.3523  0.2791  0.8353
48533SOL    HW152460  12.418   7.087  10.431 -0.0384  0.0155  0.8849
48533SOL    HW252461  12.403   7.237  10.453  1.2863  0.2761  0.0892
48534SOL     OW52462   5.889  12.163  11.529  0.0978 -0.1907 -0.0463
48534SOL    HW152463   5.835  12.242  11.523 -1.4345 -1.2712 -2.3183
48534SOL    HW252464   5.829  12.091  11.506  1.8736 -1.7800  0.0185
48535SOL     OW52465   8.252   1.313   7.565 -0.7473 -0.2839 -0.2326
48535SOL    HW152466   8.254   1.404   7.535 -1.6405 -0.1925 -0.0505
48535SOL    HW252467   8.171   1.278   7.529 -2.1791 -0.0194  2.4160
48536SOL     OW52468   4.538   4.795   8.831  0.0146  0.3134 -0.3185
48536SOL    HW152469   4.582   4.809   8.915  0.0778 -1.8237  0.0529
48536SOL    HW252470   4.596   4.736   8.783 -1.3875 -0.8398 -0.6708
48537SOL     OW52471   2.913   8.886   3.158  0.3692 -0.3724  0.2913
48537SOL    HW152472   2.870   8.826   3.218 -2.1292  0.2634 -0.7323
48537SOL    HW252473   2.949   8.955   3.213  0.0559 -0.9345  1.2089
48538SOL     OW52474   2.885   3.890  10.196 -0.0589 -0.1609 -0.2968
48538SOL    HW152475   2.969   3.848  10.178 -0.4860 -0.6261 -1.2743
48538SOL    HW252476   2.838   3.887  10.113 -1.0134  0.1758  0.2129
48539SOL     OW52477   3.476   9.591   3.689 -0.5014  0.5728 -0.7264
48539SOL    HW152478   3.500   9.636   3.770 -3.8651 -0.2407  0.8837
48539SOL    HW252479   3.477   9.498   3.711 -1.3214  0.3307 -1.6324
48540SOL     OW52480   9.160   4.351   9.020 -0.5307 -0.2427 -0.2095
48540SOL    HW152481   9.197   4.381   8.937  2.0237 -0.6585  0.7092
48540SOL    HW252482   9.079   4.402   9.029 -0.4089  0.4810 -2.4891
48541SOL     OW52483   8.043  10.079   9.042  0.3857 -0.1984  0.3725
48541SOL    HW152484   7.953  10.074   9.075  1.3355  1.4503  3.6476
48541SOL    HW252485   8.074  10.165   9.069  3.0587 -0.7939 -0.4703
48542SOL     OW52486   7.247   4.796   7.754  0.2928  0.1053 -0.4514
48542SOL    HW152487   7.260   4.745   7.674 -2.2506 -1.2084 -0.1384
48542SOL    HW252488   7.213   4.880   7.725  0.0846 -0.0977 -0.7960
48543SOL     OW52489   1.419   5.240   2.118 -0.2465  0.0871 -0.0721
48543SOL    HW152490   1.379   5.308   2.173 -0.8114  0.9299 -1.4834
48543SOL    HW252491   1.345   5.197   2.075  0.1923 -0.5424 -0.2091
48544SOL     OW52492  10.808   3.633  12.158 -0.6004  0.0680  0.0896
48544SOL    HW152493  10.902   3.633  12.172 -0.8242 -0.1774  1.9020
48544SOL    HW252494  10.780   3.720  12.186 -1.1151 -0.5081  1.4593
48545SOL     OW52495   8.240   0.235   5.396 -0.1985  0.1246  0.5166
48545SOL    HW152496   8.156   0.254   5.355 -0.8966  0.7675  2.1561
48545SOL    HW252497   8.220   0.171   5.464  0.9679 -1.1185 -0.2541
48546SOL     OW52498  11.613   5.254   2.578  0.6588  0.3231  0.5255
48546SOL    HW152499  11.683   5.286   2.636  1.7101 -3.3168  1.5044
48546SOL    HW252500  11.651   5.257   2.490  0.8784  1.2032  0.6343
48547SOL     OW52501   4.817   2.865   6.161  0.0815 -0.2240 -0.7530
48547SOL    HW152502   4.822   2.907   6.075 -0.9366 -1.4031 -1.4315
48547SOL    HW252503   4.766   2.785   6.145  0.3103 -0.7224  0.8546
48548SOL     OW52504  12.123  10.165   8.551 -0.3897 -0.1112 -0.2733
48548SOL    HW152505  12.096  10.073   8.548 -0.7985  0.0346 -1.5348
48548SOL    HW252506  12.058  10.207   8.608 -0.4347 -0.5281 -0.0103
48549SOL     OW52507   3.506   7.525   2.503 -0.6335 -0.4838  1.0911
48549SOL    HW152508   3.486   7.482   2.586 -0.9416 -0.4125  1.0542
48549SOL    HW252509   3.551   7.457   2.452 -1.4395 -0.8938  0.8974
48550SOL     OW52510  12.284   8.351   3.640 -0.2056  0.0586 -0.6026
48550SOL    HW152511  12.355   8.382   3.583 -0.5305  0.2351 -0.9126
48550SOL    HW252512  12.324   8.282   3.692  0.5083  0.9187  0.0277
48551SOL     OW52513   3.062   6.541  11.158  0.4278 -0.2024  0.1565
48551SOL    HW152514   2.990   6.590  11.196  1.1135  3.3954 -2.6304
48551SOL    HW252515   3.133   6.549  11.221 -0.3272 -0.0391  1.0044
48552SOL     OW52516   2.181   6.989   1.141 -0.4375 -0.3851 -0.0795
48552SOL    HW152517   2.155   6.981   1.049 -0.3276 -1.8404 -0.0086
48552SOL    HW252518   2.187   6.898   1.172  2.7578 -0.0982  0.4802
48553SOL     OW52519  12.098   8.767   4.403  0.4216 -0.1850  0.2319
48553SOL    HW152520  12.037   8.725   4.342 -0.4476  1.7321 -0.3106
48553SOL    HW252521  12.064   8.744   4.489  2.7994 -4.5953  0.2586
48554SOL     OW52522   9.762   2.191   2.065 -0.2420  0.3852  0.1399
48554SOL    HW152523   9.687   2.242   2.034 -0.7244  0.9885  2.1773
48554SOL    HW252524   9.727   2.103   2.079 -0.4981  0.5776  0.7415
48555SOL     OW52525   3.386   0.291   9.183  0.6715  0.4036 -0.2160
48555SOL    HW152526   3.434   0.215   9.216 -0.3128  0.8612  2.5563
48555SOL    HW252527   3.444   0.365   9.199  0.3363  0.5822  0.2231
48556SOL     OW52528   7.903   4.613   0.687 -0.1410  0.2714  0.0528
48556SOL    HW152529   7.922   4.687   0.744  1.3039 -1.7728  2.3906
48556SOL    HW252530   7.978   4.608   0.627  0.5707 -0.2277  0.9635
48557SOL     OW52531   3.039   4.621   6.925  0.1243 -0.4149  0.1293
48557SOL    HW152532   3.094   4.618   6.847  0.2187 -1.4308  0.2297
48557SOL    HW252533   3.100   4.617   6.998 -0.0684 -1.4070  0.2428
48558SOL     OW52534  11.489  10.182   9.104 -0.2577 -0.5601  0.8689
48558SOL    HW152535  11.509  10.275   9.115  0.1488 -0.7367  1.7787
48558SOL    HW252536  11.407  10.180   9.054 -0.2532  0.2836  0.8157
48559SOL     OW52537   4.032   6.010   8.951  0.5290  0.0121  0.3414
48559SOL    HW152538   4.031   6.098   8.988  0.6388  0.7682 -1.3461
48559SOL    HW252539   3.952   6.005   8.899 -0.7005 -1.7576  2.2052
48560SOL     OW52540   3.978  11.340   6.211  0.1342  0.1033 -0.4697
48560SOL    HW152541   4.015  11.421   6.248  1.0192 -1.1525  1.5549
48560SOL    HW252542   3.888  11.338   6.246  0.6234 -0.5448  0.8018
48561SOL     OW52543  11.807   8.523   3.496 -0.3041 -0.5873  0.1148
48561SOL    HW152544  11.730   8.552   3.545  0.9310 -0.3221  1.9587
48561SOL    HW252545  11.780   8.440   3.457 -0.8323 -1.6780  2.6225
48562SOL     OW52546   4.353   8.535   7.677  0.1217  0.2306 -0.3463
48562SOL    HW152547   4.312   8.562   7.595 -1.6746  0.7961  0.6816
48562SOL    HW252548   4.383   8.445   7.660 -1.5200 -0.2043 -1.1964
48563SOL     OW52549  10.778   7.345   4.520  0.0943  0.5021 -0.7017
48563SOL    HW152550  10.860   7.301   4.495  0.0468  2.2509 -4.6171
48563SOL    HW252551  10.798   7.387   4.603  2.2464 -1.3379 -0.1825
48564SOL     OW52552   2.433   5.189   8.542  0.1990  0.0920  0.0428
48564SOL    HW152553   2.425   5.228   8.629 -0.1074  3.7662 -1.4364
48564SOL    HW252554   2.344   5.163   8.518  0.2812 -0.9062  0.7740
48565SOL     OW52555   4.723   3.040  11.369  0.5708  0.4351 -0.7451
48565SOL    HW152556   4.676   3.111  11.326 -0.3618  0.0285 -0.4354
48565SOL    HW252557   4.661   3.007  11.435  1.1899 -0.2967 -0.5112
48566SOL     OW52558  11.863   9.037   0.304  0.1920  0.2265 -0.1008
48566SOL    HW152559  11.935   9.042   0.242  0.8377  2.1948  0.7296
48566SOL    HW252560  11.788   9.073   0.256 -0.1010 -1.1688 -0.7315
48567SOL     OW52561  10.530  11.200  10.232 -0.0377 -0.0298  0.3239
48567SOL    HW152562  10.602  11.258  10.208  0.0651 -0.8502 -1.5270
48567SOL    HW252563  10.470  11.255  10.283  0.5159  1.4516 -0.5652
48568SOL     OW52564   8.623  10.580  11.052 -0.2264  0.1977 -0.3560
48568SOL    HW152565   8.535  10.542  11.045 -0.0878 -0.6856  1.9537
48568SOL    HW252566   8.611  10.660  11.103  0.5517 -1.2799  2.3517
48569SOL     OW52567  10.027   9.822   9.146  0.0173  0.5881 -0.2968
48569SOL    HW152568   9.990   9.799   9.231  0.3430  0.2399 -0.2469
48569SOL    HW252569  10.044   9.916   9.152 -1.0172  0.7911 -0.3895
48570SOL     OW52570   6.278   1.187   6.136 -0.3879 -0.1358 -0.3170
48570SOL    HW152571   6.371   1.165   6.141 -0.4605 -0.2819  0.4167
48570SOL    HW252572   6.260   1.189   6.042  0.1332 -1.0486 -0.4462
48571SOL     OW52573   4.884   8.004   6.700 -0.3476  0.2247 -0.3311
48571SOL    HW152574   4.973   7.999   6.664  0.4712  1.4733  1.3663
48571SOL    HW252575   4.847   8.083   6.661  0.5674  1.6215  1.4936
48572SOL     OW52576   1.829   7.874   1.233 -0.1985  0.2252 -0.6850
48572SOL    HW152577   1.832   7.792   1.283 -0.2527  0.5270 -0.1864
48572SOL    HW252578   1.886   7.857   1.157 -0.9177 -0.5801 -1.0605
48573SOL     OW52579   5.132   6.722   0.006 -0.4984 -0.3880  0.4602
48573SOL    HW152580   5.044   6.749  -0.019 -0.1000  0.3251 -0.2332
48573SOL    HW252581   5.186   6.800  -0.009  0.3457 -0.9846  0.3118
48574SOL     OW52582   2.588   9.524   4.862 -0.6606 -0.2459  0.1896
48574SOL    HW152583   2.556   9.607   4.827  2.6938  1.6300  1.0924
48574SOL    HW252584   2.598   9.539   4.956  2.9060 -0.4270 -0.0054
48575SOL     OW52585   5.906  11.743   3.503  0.6071  0.1069 -0.2648
48575SOL    HW152586   5.865  11.724   3.419 -2.5398  0.5474  1.0170
48575SOL    HW252587   5.985  11.792   3.481 -0.9512  1.6513 -2.9617
48576SOL     OW52588   1.163   2.712   1.625 -0.2442 -0.2901  0.5338
48576SOL    HW152589   1.176   2.738   1.534  0.1952  1.0178  0.9457
48576SOL    HW252590   1.076   2.746   1.648 -1.4868 -2.7595 -0.0758
48577SOL     OW52591   7.755  10.183  11.470 -0.3121 -0.0673  0.2173
48577SOL    HW152592   7.708  10.099  11.463  0.6147 -0.5003 -1.2262
48577SOL    HW252593   7.783  10.187  11.562  0.7426 -1.9693  0.0279
48578SOL     OW52594  10.891   6.064   4.769  0.6795  0.2117 -0.0903
48578SOL    HW152595  10.896   6.065   4.864  0.1105  0.5798 -0.0642
48578SOL    HW252596  10.842   6.143   4.746 -1.3183 -1.0726 -0.5409
48579SOL     OW52597   8.251  12.385   4.707 -0.0251  0.0150 -0.6519
48579SOL    HW152598   8.253  12.397   4.613 -1.7940  0.5464 -0.6598
48579SOL    HW252599   8.200  12.459   4.740  0.3650 -0.2796  0.6934
48580SOL     OW52600   6.262   5.015   8.179 -0.4512  0.0754  0.4017
48580SOL    HW152601   6.318   5.083   8.216 -0.3102  0.3873 -0.3871
48580SOL    HW252602   6.184   5.015   8.236  0.4169 -0.5136  1.6454
48581SOL     OW52603  10.023   0.740  11.241  0.3163 -0.4544  0.5811
48581SOL    HW152604   9.985   0.819  11.204  3.0818  1.1033  0.7649
48581SOL    HW252605  10.050   0.689  11.164  0.9227  0.0913  0.4138
48582SOL     OW52606   2.303   5.662  10.710  0.1162 -0.0870 -0.5357
48582SOL    HW152607   2.381   5.694  10.756  0.0847 -1.0420  0.2079
48582SOL    HW252608   2.338   5.609  10.639  0.1589 -1.3348  0.3929
48583SOL     OW52609   8.764   0.502   6.700  0.8256 -0.0516  0.6459
48583SOL    HW152610   8.678   0.495   6.740  0.4212 -0.7240 -0.2944
48583SOL    HW252611   8.815   0.432   6.740  0.3905 -0.7935 -0.0658
48584SOL     OW52612   1.977   6.478   6.728  0.2476  0.1999  0.7665
48584SOL    HW152613   1.961   6.464   6.635 -1.7331  0.3257  1.0312
48584SOL    HW252614   2.027   6.401   6.756  0.5868  0.0115 -0.3294
48585SOL     OW52615   9.425  10.146   1.806 -0.2808 -0.1461  0.3359
48585SOL    HW152616   9.398  10.117   1.719  3.0743 -0.2349 -0.8456
48585SOL    HW252617   9.412  10.240   1.806  0.9176  0.0531 -0.8449
48586SOL     OW52618   6.012   0.837  11.191  0.6371 -0.4210  0.5746
48586SOL    HW152619   5.997   0.891  11.114  1.5448 -1.2312 -0.2020
48586SOL    HW252620   5.950   0.870  11.256  0.4494  0.8425 -0.2093
48587SOL     OW52621   0.193   2.172   8.710  0.0336 -0.5810  0.0665
48587SOL    HW152622   0.238   2.252   8.736 -1.4111  1.1708 -2.4159
48587SOL    HW252623   0.100   2.191   8.723 -0.3253 -2.1377  0.0355
48588SOL     OW52624   7.633   0.468  12.351  0.4259 -0.0446 -0.7142
48588SOL    HW152625   7.555   0.472  12.295 -0.6894 -0.1690  0.7522
48588SOL    HW252626   7.699   0.519  12.305 -0.5187  0.0622 -2.0077
48589SOL     OW52627  11.170   0.065   0.098  0.2242  0.3253 -0.0263
48589SOL    HW152628  11.078   0.085   0.116  0.0531  0.2542 -0.8014
48589SOL    HW252629  11.190  -0.008   0.157 -0.8976 -1.2231 -1.4555
48590SOL     OW52630   8.133  10.503  10.724 -0.3128  0.1784 -0.1243
48590SOL    HW152631   8.083  10.444  10.781 -1.3606  1.1059 -0.0562
48590SOL    HW252632   8.159  10.448  10.650 -0.3395 -0.6322  0.4517
48591SOL     OW52633   9.117   2.910   5.295  0.2932  0.2063 -0.0617
48591SOL    HW152634   9.037   2.959   5.274  0.1209 -0.7675 -1.9399
48591SOL    HW252635   9.129   2.852   5.220  1.4689 -1.3597  1.2671
48592SOL     OW52636   5.651   9.259  10.124 -0.1452 -0.6324 -0.0953
48592SOL    HW152637   5.695   9.261  10.038  1.6127 -1.9524  0.7161
48592SOL    HW252638   5.591   9.186  10.118 -0.5162 -0.3106 -0.4031
48593SOL     OW52639   1.061   4.609   1.814 -0.4723 -0.3941  0.2779
48593SOL    HW152640   1.134   4.618   1.754 -0.0850  1.7046  0.9783
48593SOL    HW252641   0.983   4.608   1.757 -0.0172 -0.6327 -0.3531
48594SOL     OW52642   2.138  12.139  11.473 -0.4430  0.3502  0.2758
48594SOL    HW152643   2.109  12.161  11.385 -2.9848  1.3724  1.2932
48594SOL    HW252644   2.099  12.054  11.491 -2.5072  1.4827  1.4526
48595SOL     OW52645   1.706   6.151   9.364  0.3262  0.6232 -0.2753
48595SOL    HW152646   1.774   6.120   9.424  0.8719  2.3033  0.0208
48595SOL    HW252647   1.625   6.112   9.397  1.2412 -2.7692 -1.5591
48596SOL     OW52648   1.885   3.839  10.663  0.2025  0.3934  0.3696
48596SOL    HW152649   1.916   3.759  10.706  0.1419 -0.1081 -0.5023
48596SOL    HW252650   1.863   3.811  10.574 -0.8604  1.1612  0.3810
48597SOL     OW52651   3.686   5.120   6.401 -0.0065 -0.1489  0.2375
48597SOL    HW152652   3.675   5.054   6.469  0.7889 -1.2742 -0.6863
48597SOL    HW252653   3.651   5.079   6.322  2.5233 -0.3926 -0.8444
48598SOL     OW52654   4.651   9.802   9.945  0.2700 -0.2222 -0.6243
48598SOL    HW152655   4.704   9.764  10.015 -0.5291 -1.4106 -0.6259
48598SOL    HW252656   4.599   9.869   9.989  1.9716  1.2250 -0.6877
48599SOL     OW52657   1.943   2.437   2.185 -0.2090 -0.0775  0.3521
48599SOL    HW152658   1.886   2.513   2.174 -0.1578 -0.3871 -2.9581
48599SOL    HW252659   2.031   2.473   2.194 -0.0084  0.3348 -2.5515
48600SOL     OW52660   6.014   7.200   3.022  0.3843  0.1550  0.1154
48600SOL    HW152661   6.014   7.127   3.084 -0.0689 -1.0492 -1.2390
48600SOL    HW252662   6.019   7.278   3.076  0.2379 -0.8666  1.6470
48601SOL     OW52663   2.583   6.544   8.241 -0.2693 -0.2987 -0.0008
48601SOL    HW152664   2.532   6.561   8.162  0.2854 -0.0694 -0.3106
48601SOL    HW252665   2.528   6.577   8.312 -1.9475 -2.7996  0.0067
48602SOL     OW52666   5.821   0.620  11.536 -0.0313 -0.0418  0.4008
48602SOL    HW152667   5.905   0.581  11.512  0.9017  0.6109  2.3728
48602SOL    HW252668   5.841   0.675  11.611 -2.0022  1.2345  0.0679
48603SOL     OW52669   9.526   2.388  10.245 -0.4124 -0.6102 -0.3407
48603SOL    HW152670   9.599   2.408  10.186 -0.0447  3.3002  1.1492
48603SOL    HW252671   9.561   2.403  10.332 -2.0220 -2.4310  0.6857
48604SOL     OW52672   5.403  11.108  11.127  0.1298 -0.2220 -0.5286
48604SOL    HW152673   5.390  11.201  11.144 -1.9912 -0.5587 -0.0978
48604SOL    HW252674   5.318  11.077  11.095  1.1636 -1.7522 -1.9785
48605SOL     OW52675  12.419   7.862   0.575  0.3269  0.1413 -0.4455
48605SOL    HW152676  12.513   7.842   0.572  0.1099 -0.8635 -1.1272
48605SOL    HW252677  12.405   7.902   0.661  1.5476  1.2402 -0.7231
48606SOL     OW52678   1.534   9.571   3.401  0.4126  0.1237  0.5044
48606SOL    HW152679   1.539   9.484   3.363 -0.0701  0.9951 -1.7244
48606SOL    HW252680   1.442   9.582   3.425  0.5449 -0.0958  1.1344
48607SOL     OW52681   7.620   0.853   5.353 -0.0400  0.1168  0.1101
48607SOL    HW152682   7.657   0.922   5.297 -1.2672  0.7903  0.0871
48607SOL    HW252683   7.627   0.774   5.300  2.9761 -0.1930  0.7930
48608SOL     OW52684  12.242   7.844   4.535  0.3646  0.8413  0.3980
48608SOL    HW152685  12.178   7.774   4.523  1.6348 -0.7929  2.4406
48608SOL    HW252686  12.320   7.813   4.487  0.6001  1.3710  0.4342
48609SOL     OW52687   3.237  10.069  12.257  0.3691 -0.1577  0.6020
48609SOL    HW152688   3.286  10.078  12.175 -0.5310 -1.9091 -0.1841
48609SOL    HW252689   3.285  10.002  12.306 -0.6428 -1.1564  0.2585
48610SOL     OW52690   8.829   8.511   3.200  0.1073  0.3719  0.2732
48610SOL    HW152691   8.868   8.423   3.198  0.2493  0.4381 -1.1903
48610SOL    HW252692   8.749   8.501   3.252 -1.2439 -1.2656 -1.9317
48611SOL     OW52693  11.734   6.299   3.362  0.2704  0.7267 -0.1177
48611SOL    HW152694  11.705   6.366   3.424 -3.1555  0.0649 -0.8163
48611SOL    HW252695  11.738   6.343   3.278 -0.6067  0.3974 -0.3400
48612SOL     OW52696   5.332  11.639  11.936 -0.3283 -0.3918  0.2805
48612SOL    HW152697   5.270  11.659  12.006 -0.1253 -1.7353  0.8629
48612SOL    HW252698   5.280  11.593  11.870 -0.1951 -0.4766  0.2351
48613SOL     OW52699   8.159   4.486  11.326  0.4573  0.4757 -0.0330
48613SOL    HW152700   8.144   4.445  11.241  0.5398 -0.5422  0.4278
48613SOL    HW252701   8.225   4.554  11.309  1.0364 -0.2217 -0.6478
48614SOL     OW52702  10.472   8.049   9.373  0.4970 -0.2802 -0.1109
48614SOL    HW152703  10.422   8.109   9.318  1.1370 -0.7985 -1.2946
48614SOL    HW252704  10.560   8.087   9.377  0.4555 -0.2360  0.5866
48615SOL     OW52705   7.922   0.785   7.224 -0.4381 -0.2318  0.1098
48615SOL    HW152706   7.952   0.773   7.314 -1.0790 -0.9873  0.2304
48615SOL    HW252707   7.893   0.876   7.221  1.9897  0.6159 -0.0725
48616SOL     OW52708   4.914   1.858   4.728 -0.3508 -0.0986  0.2539
48616SOL    HW152709   4.947   1.919   4.662  1.5641 -2.5153 -1.1943
48616SOL    HW252710   4.993   1.825   4.772 -1.3942 -0.7444  1.7301
48617SOL     OW52711   7.832   5.596   1.949  0.0090  0.3853  0.1921
48617SOL    HW152712   7.791   5.663   1.894 -0.6622  0.5039  0.8352
48617SOL    HW252713   7.861   5.643   2.027 -3.5695 -0.5586  2.3096
48618SOL     OW52714   4.505   9.341   9.912  0.2852  0.6028 -0.1325
48618SOL    HW152715   4.476   9.423   9.951  0.9673  0.0781  1.5518
48618SOL    HW252716   4.532   9.287   9.986  1.7705 -0.3976 -1.3343
48619SOL     OW52717   1.920  10.786   7.309 -0.1569  0.1360 -0.1631
48619SOL    HW152718   1.906  10.874   7.346 -1.0329  0.9932 -2.3715
48619SOL    HW252719   2.010  10.787   7.278 -0.1669  0.2386 -0.1878
48620SOL     OW52720   0.207   2.091   2.209 -0.2526 -0.2800  0.0545
48620SOL    HW152721   0.111   2.089   2.207 -0.3447  0.3796 -3.3865
48620SOL    HW252722   0.233   2.012   2.160  0.9538 -0.0621  0.3090
48621SOL     OW52723   5.215   4.889  12.338 -0.1370  0.1387 -0.0491
48621SOL    HW152724   5.231   4.916  12.428 -0.1911  1.0688 -0.3081
48621SOL    HW252725   5.250   4.800  12.333  0.2852  0.2517  0.7618
48622SOL     OW52726   9.372   1.958   0.054 -0.1366  0.1119  0.0805
48622SOL    HW152727   9.413   1.899   0.116  0.3841  0.2040 -0.1767
48622SOL    HW252728   9.282   1.925   0.045  0.3912 -1.1937 -0.7512
48623SOL     OW52729   6.871   6.757   3.501 -0.1702  0.0038 -0.5741
48623SOL    HW152730   6.960   6.729   3.479 -0.5202 -0.9371 -0.8308
48623SOL    HW252731   6.822   6.675   3.512 -1.6838  0.4491 -3.1789
48624SOL     OW52732   3.986   6.501  11.224 -0.2112  0.4070 -0.4490
48624SOL    HW152733   3.924   6.521  11.154 -0.1589 -0.2091 -0.6716
48624SOL    HW252734   4.008   6.587  11.260  0.8507  0.8905 -2.1167
48625SOL     OW52735  11.983   8.584  10.951  0.1195  0.2130  0.4592
48625SOL    HW152736  11.955   8.529  10.878  1.4517 -0.7830  0.6501
48625SOL    HW252737  12.076   8.601  10.933 -0.3336  2.7929  0.1870
48626SOL     OW52738   1.457   4.833  11.809 -0.1938  0.1655 -0.2172
48626SOL    HW152739   1.418   4.920  11.815 -1.2476 -0.3525  0.8921
48626SOL    HW252740   1.443   4.794  11.895 -1.2948 -1.7405 -1.1920
48627SOL     OW52741   0.600   3.339   0.856 -0.3269 -1.1782  0.3913
48627SOL    HW152742   0.574   3.421   0.898  1.2843  0.9029 -2.3204
48627SOL    HW252743   0.632   3.285   0.928 -0.2009  1.1075  2.1891
48628SOL     OW52744  10.787   1.694   4.648  0.0661  0.4999  0.1110
48628SOL    HW152745  10.826   1.607   4.651  1.2637  1.0154  0.0716
48628SOL    HW252746  10.843   1.744   4.589 -0.9588  1.1419 -0.3521
48629SOL     OW52747   2.153   2.809   0.210 -0.5606 -0.0826 -0.2504
48629SOL    HW152748   2.115   2.852   0.287 -1.6466  0.2602 -0.9527
48629SOL    HW252749   2.165   2.718   0.237 -0.4996  0.1290  0.4689
48630SOL     OW52750   4.856   0.394   3.120  0.7771 -0.0821  0.3136
48630SOL    HW152751   4.867   0.313   3.070 -0.4085 -0.0493 -0.0483
48630SOL    HW252752   4.843   0.462   3.054  0.8032  0.2397  0.6349
48631SOL     OW52753   4.600   7.091   4.402 -0.0353 -0.2283 -0.1143
48631SOL    HW152754   4.599   7.005   4.360  0.9618  0.4976 -1.7295
48631SOL    HW252755   4.647   7.077   4.484  1.7569 -0.8886 -1.2111
48632SOL     OW52756   5.564   9.473  11.799  0.6544  0.1926  0.2786
48632SOL    HW152757   5.538   9.494  11.889  0.6006 -1.1854  0.6060
48632SOL    HW252758   5.630   9.404  11.809  1.1823  0.5424 -0.7144
48633SOL     OW52759   1.854   9.983   3.542 -0.3011 -0.2340 -0.2206
48633SOL    HW152760   1.904   9.903   3.558 -0.0324  0.0204  0.2432
48633SOL    HW252761   1.920  10.051   3.531 -0.5419  0.1152  0.4515
48634SOL     OW52762   6.942   7.840   0.254  0.4094 -0.4538 -0.3350
48634SOL    HW152763   7.035   7.817   0.245  0.2160 -1.2783 -0.3087
48634SOL    HW252764   6.904   7.823   0.168  0.5220  1.1433 -0.7395
48635SOL     OW52765   9.878   1.180   8.122  0.4598  0.0092  0.5546
48635SOL    HW152766   9.864   1.256   8.065  0.3883  0.1263  0.7284
48635SOL    HW252767   9.891   1.217   8.209  1.4451 -0.1171  0.4743
48636SOL     OW52768   2.728  11.255   3.038 -0.0019 -0.2216  0.1631
48636SOL    HW152769   2.716  11.337   2.991 -2.0433 -0.1231  0.7316
48636SOL    HW252770   2.678  11.266   3.119  1.0252 -1.4461  1.0096
48637SOL     OW52771   7.875  12.183   1.049  0.2146  0.1997 -0.5076
48637SOL    HW152772   7.782  12.165   1.035  0.5859 -2.0876 -0.4501
48637SOL    HW252773   7.918  12.146   0.972  1.2843 -1.4679  0.8265
48638SOL     OW52774   1.080   5.449  11.822  0.3224  0.3017  0.5560
48638SOL    HW152775   1.096   5.363  11.781  0.3389  0.5590  0.0083
48638SOL    HW252776   1.095   5.434  11.915  2.8156  0.2701  0.2183
48639SOL     OW52777   5.014   6.738   2.812 -0.9810 -0.0060  0.0356
48639SOL    HW152778   4.968   6.705   2.735 -2.3174 -0.3629  0.9582
48639SOL    HW252779   4.969   6.819   2.835 -0.7337 -0.0105  0.5639
48640SOL     OW52780   6.088   3.722   5.523 -0.6592 -0.4994  0.3408
48640SOL    HW152781   6.158   3.785   5.540 -0.0977 -0.0665 -2.9130
48640SOL    HW252782   6.104   3.650   5.584  0.1254  1.3986  2.4671
48641SOL     OW52783   7.120  12.439   2.970  0.0774  0.2242 -0.5253
48641SOL    HW152784   7.122  12.368   3.034  0.5844  0.8950  0.2184
48641SOL    HW252785   7.142  12.517   3.020 -1.3348  1.0588 -1.1668
48642SOL     OW52786  11.442   3.173   1.710 -0.5004  0.3961 -0.4350
48642SOL    HW152787  11.441   3.103   1.776  0.9915  1.3864  0.7058
48642SOL    HW252788  11.483   3.134   1.633  2.0911  0.4844  0.8187
48643SOL     OW52789  10.159   9.873   6.931 -0.0155  0.2843 -0.1377
48643SOL    HW152790  10.250   9.896   6.911  0.7403 -3.0556 -1.0998
48643SOL    HW252791  10.123   9.848   6.846 -1.6304  0.7907  0.3759
48644SOL     OW52792   7.654  12.263   2.813 -0.3112  1.0987  0.2056
48644SOL    HW152793   7.574  12.304   2.845 -0.8062 -0.3144  0.8907
48644SOL    HW252794   7.626  12.177   2.782  1.3105 -0.8393  3.5619
48645SOL     OW52795   6.958  10.655   7.687  0.9315  0.4168 -0.0132
48645SOL    HW152796   7.046  10.674   7.716  0.9813 -2.3425  2.0292
48645SOL    HW252797   6.959  10.561   7.666 -1.3473  0.4330 -0.5169
48646SOL     OW52798   2.885  10.210   0.112  0.0624  0.0047  0.8810
48646SOL    HW152799   2.835  10.234   0.190  0.4301 -0.2686  1.2037
48646SOL    HW252800   2.947  10.282   0.099  0.5992 -0.3577  1.3627
48647SOL     OW52801   3.465   9.163   2.528  0.0800  0.3146  0.3870
48647SOL    HW152802   3.387   9.129   2.483  0.6282 -0.9443  0.3505
48647SOL    HW252803   3.500   9.228   2.467  1.2057 -1.8596 -1.4171
48648SOL     OW52804   2.937   1.363  11.088  0.5938 -0.2775  0.3914
48648SOL    HW152805   2.893   1.307  11.152 -0.2049  0.8627  0.8647
48648SOL    HW252806   2.871   1.428  11.063  1.5495  0.5673  0.0006
48649SOL     OW52807   1.905   8.128   9.636 -0.5002  0.3932 -0.8518
48649SOL    HW152808   1.832   8.163   9.585 -1.7954  0.7507  1.1089
48649SOL    HW252809   1.897   8.033   9.627 -1.4277  0.4150 -0.4103
48650SOL     OW52810   9.045   8.652   4.097  0.0752 -0.2478 -0.0030
48650SOL    HW152811   9.064   8.675   4.006  0.7036 -1.3967 -0.1845
48650SOL    HW252812   8.988   8.721   4.128  0.8474  0.8320 -0.9013
48651SOL     OW52813   6.843   3.566   6.423 -0.3551 -0.0265 -0.0462
48651SOL    HW152814   6.802   3.524   6.498  0.6253 -2.4408 -0.7738
48651SOL    HW252815   6.936   3.549   6.433 -0.3495 -2.5563 -2.8966
48652SOL     OW52816   9.333   3.345   3.684 -0.6151 -0.3846 -0.4452
48652SOL    HW152817   9.239   3.330   3.672 -0.8418  1.4561 -1.2575
48652SOL    HW252818   9.342   3.368   3.777 -0.3904 -3.9942  0.5938
48653SOL     OW52819   9.253   9.494  10.911  0.9354 -0.8878  0.0341
48653SOL    HW152820   9.286   9.451  10.990  0.0669 -0.2112  0.7986
48653SOL    HW252821   9.243   9.586  10.937  0.0626 -0.7719 -0.6762
48654SOL     OW52822  11.385   4.060   8.354 -0.4084 -0.0998  0.1114
48654SOL    HW152823  11.374   4.062   8.449 -2.1433  1.9621 -0.0454
48654SOL    HW252824  11.313   4.005   8.323 -1.7756  1.7385 -0.1265
48655SOL     OW52825   9.081   9.194   8.339 -0.5383 -0.3925 -0.1175
48655SOL    HW152826   9.134   9.134   8.392 -3.2225 -0.3319  2.9481
48655SOL    HW252827   9.034   9.137   8.278  0.7204 -0.7663 -0.7719
48656SOL     OW52828  11.944   6.474   5.612 -0.0307 -0.6240 -0.1690
48656SOL    HW152829  11.873   6.518   5.659  0.5978  0.2571 -0.0055
48656SOL    HW252830  11.924   6.381   5.620  0.6783 -0.6492  3.0023
48657SOL     OW52831  11.316   6.995   3.760 -0.3407 -0.1129 -0.0006
48657SOL    HW152832  11.369   7.042   3.696 -0.5360 -0.8658 -0.7357
48657SOL    HW252833  11.372   6.987   3.837 -1.0511  3.3311  1.0645
48658SOL     OW52834   5.217   1.098   4.713 -0.2540  0.5185  0.5650
48658SOL    HW152835   5.302   1.097   4.669 -0.4645  0.2091  0.1562
48658SOL    HW252836   5.153   1.089   4.642 -0.5235 -3.8853  1.1165
48659SOL     OW52837   5.125   6.330  11.467  0.0840 -0.3402 -0.4889
48659SOL    HW152838   5.101   6.237  11.475  2.5069 -1.2355 -2.2377
48659SOL    HW252839   5.219   6.332  11.487  0.1476  1.6975 -0.7760
48660SOL     OW52840  11.119   0.892   2.833  0.5798 -0.1719 -0.0407
48660SOL    HW152841  11.042   0.937   2.867  0.6070 -0.2960  0.1867
48660SOL    HW252842  11.111   0.803   2.865  0.1865 -0.5048 -1.0343
48661SOL     OW52843  11.010  11.378   7.746  0.2925 -0.3572  0.4344
48661SOL    HW152844  10.975  11.424   7.670 -1.4757  1.4870  2.2243
48661SOL    HW252845  10.944  11.312   7.768  0.2906 -0.2044  0.9186
48662SOL     OW52846  11.591   2.812  11.226 -0.1043 -0.0113 -0.5945
48662SOL    HW152847  11.660   2.754  11.194  1.0551  0.5799  0.7179
48662SOL    HW252848  11.513   2.757  11.228  0.5838 -1.0411 -0.9958
48663SOL     OW52849   1.241   4.316   9.373  0.3707 -0.3205  0.2911
48663SOL    HW152850   1.275   4.230   9.347 -0.5285 -0.2137 -1.3664
48663SOL    HW252851   1.165   4.330   9.317  1.2062  2.0836 -0.3899
48664SOL     OW52852   1.062   0.590  11.926  0.4631  0.0721  0.3116
48664SOL    HW152853   1.132   0.637  11.972  1.9971 -1.2086 -0.6057
48664SOL    HW252854   0.992   0.581  11.991  1.2113  1.2005  1.3281
48665SOL     OW52855   6.910   5.223   2.593  0.5913  0.3732  0.4681
48665SOL    HW152856   6.909   5.241   2.499  0.5760  1.8155  0.7204
48665SOL    HW252857   6.902   5.128   2.600 -0.0240  0.3044 -0.9674
48666SOL     OW52858   6.941   3.784  12.241 -0.4977 -0.1888  0.3975
48666SOL    HW152859   7.014   3.762  12.183  1.4473  3.6930  1.0444
48666SOL    HW252860   6.877   3.826  12.183 -0.2863  0.2067  0.4448
48667SOL     OW52861   7.155   2.284   3.928  0.4897  0.0862  0.5746
48667SOL    HW152862   7.111   2.199   3.936 -1.6302  0.9926 -0.5075
48667SOL    HW252863   7.169   2.312   4.018 -1.4983 -0.1473  1.0116
48668SOL     OW52864  11.926   3.176   9.792 -0.3022  0.0947 -0.9318
48668SOL    HW152865  11.959   3.253   9.838 -2.2993  0.6577 -0.3577
48668SOL    HW252866  11.969   3.102   9.835 -0.1431  0.7564  0.0763
48669SOL     OW52867   7.337   0.284   2.864  0.8599  0.3646 -0.2393
48669SOL    HW152868   7.327   0.288   2.959  1.8480  1.7023 -0.1507
48669SOL    HW252869   7.248   0.273   2.830  0.5205 -0.3036  0.8413
48670SOL     OW52870   0.146   3.662  10.189  0.2911 -0.2800 -0.4472
48670SOL    HW152871   0.109   3.749  10.198  1.5137  0.2108  0.0872
48670SOL    HW252872   0.106   3.610  10.258 -0.6715 -0.2383 -0.9612
48671SOL     OW52873   1.972   7.354   5.006 -0.4758  0.1776  0.9768
48671SOL    HW152874   1.881   7.384   4.997 -0.7720 -0.3623  1.9847
48671SOL    HW252875   1.967   7.284   5.070  0.3546 -1.2919 -0.4887
48672SOL     OW52876   7.300   9.407  10.202 -0.5230 -0.4547 -0.2714
48672SOL    HW152877   7.361   9.467  10.159 -0.5333 -1.0298 -1.1133
48672SOL    HW252878   7.293   9.441  10.291  2.8080 -1.6002  0.5914
48673SOL     OW52879   8.150   4.562   6.867 -0.0940  0.2165  0.2792
48673SOL    HW152880   8.144   4.616   6.788 -0.2285 -0.2964 -0.0673
48673SOL    HW252881   8.129   4.621   6.939 -5.0497 -0.3275 -0.4115
48674SOL     OW52882   9.835   4.947   0.687 -0.3582 -0.6645 -0.0044
48674SOL    HW152883   9.897   4.938   0.615 -0.0512 -1.4104  0.3387
48674SOL    HW252884   9.887   4.985   0.759 -0.5792 -0.2396 -0.0669
48675SOL     OW52885   5.893   5.831   5.426  0.3081 -0.3364  0.7482
48675SOL    HW152886   5.987   5.848   5.433  0.2887  0.0484  0.1514
48675SOL    HW252887   5.874   5.769   5.496  1.6437 -3.0905 -1.1341
48676SOL     OW52888   5.648   4.722  10.492  0.3514  0.5184  0.0638
48676SOL    HW152889   5.575   4.675  10.533  1.9189 -0.5217  1.8647
48676SOL    HW252890   5.607   4.782  10.430 -1.9639 -0.5714  0.4492
48677SOL     OW52891   8.162   1.762   3.886  0.2063  0.5826 -0.5705
48677SOL    HW152892   8.069   1.761   3.906  0.3917  0.9000  0.3392
48677SOL    HW252893   8.199   1.692   3.939  0.5956  0.9463 -0.3584
48678SOL     OW52894   5.998   8.420   9.778 -0.2704 -0.1369 -0.1478
48678SOL    HW152895   6.037   8.454   9.697 -0.1256 -0.8421 -0.3800
48678SOL    HW252896   5.915   8.467   9.786  0.0090  0.4053 -0.3578
48679SOL     OW52897  10.869   7.938   0.043 -0.4479 -0.4482  0.3105
48679SOL    HW152898  10.801   7.877   0.014 -0.7962  0.0023  0.1553
48679SOL    HW252899  10.916   7.892   0.112 -1.1596 -0.6237  0.6859
48680SOL     OW52900   7.949   5.180   5.592 -0.0865 -0.0636 -0.5728
48680SOL    HW152901   7.870   5.146   5.634  0.0186  0.4820  0.0803
48680SOL    HW252902   8.009   5.106   5.592 -0.6141 -0.5021 -1.1296
48681SOL     OW52903  12.385   9.937   1.645  0.1516 -0.2802 -0.2121
48681SOL    HW152904  12.435  10.010   1.607  1.4468 -1.3196 -0.5709
48681SOL    HW252905  12.447   9.895   1.705 -1.0290 -0.2652  1.0642
48682SOL     OW52906   2.929   5.089   8.342 -0.5323 -0.2056  0.0966
48682SOL    HW152907   2.874   5.152   8.390 -0.3401 -0.6879  0.9704
48682SOL    HW252908   2.964   5.140   8.268 -0.7600  0.5876  0.5168
48683SOL     OW52909  11.015   6.933   2.658  0.0453 -0.0022  0.6823
48683SOL    HW152910  10.968   7.011   2.689 -0.4611  0.1647 -0.4618
48683SOL    HW252911  10.946   6.868   2.642  0.3473 -0.2661  0.4309
48684SOL     OW52912  10.670   5.841   8.022  0.0957  0.0487  0.1578
48684SOL    HW152913  10.743   5.795   8.064  1.4048 -0.1845 -2.1409
48684SOL    HW252914  10.712   5.896   7.955 -1.7653  0.9234 -0.3650
48685SOL     OW52915   0.847   2.956   5.103  0.8613  0.0552 -0.7880
48685SOL    HW152916   0.879   2.999   5.023  1.4644  0.2090 -0.4740
48685SOL    HW252917   0.795   3.022   5.147  0.6587  0.0213 -0.9746
48686SOL     OW52918   4.543   9.324   0.683  0.0864  0.2592  0.3062
48686SOL    HW152919   4.552   9.419   0.674 -0.0565  0.3223  0.7930
48686SOL    HW252920   4.448   9.309   0.676  0.0111  0.2675  1.2564
48687SOL     OW52921   3.014   3.766   8.892  0.2132 -0.2588 -0.5846
48687SOL    HW152922   3.051   3.800   8.974  0.7038 -0.1855 -0.8332
48687SOL    HW252923   2.931   3.727   8.918 -0.2519  0.9051 -0.2516
48688SOL     OW52924   3.252   6.978   6.499 -0.0498  0.3906 -0.2106
48688SOL    HW152925   3.157   6.994   6.498 -0.0777  0.2183 -0.3912
48688SOL    HW252926   3.291   7.065   6.508 -0.2159  0.5026 -0.5472
48689SOL     OW52927   5.636  11.706   6.016  0.1180  0.0237  0.1410
48689SOL    HW152928   5.717  11.756   6.004  0.6195 -0.7699  0.2079
48689SOL    HW252929   5.657  11.639   6.081 -0.9281  0.5533  1.0763
48690SOL     OW52930  11.128   1.751   5.504 -0.0458  0.3098 -0.2450
48690SOL    HW152931  11.181   1.684   5.547  0.5915  1.6417  1.1124
48690SOL    HW252932  11.182   1.829   5.505 -1.0692  1.0596 -1.1346
48691SOL     OW52933   5.017  11.161   3.169  0.5213 -0.3925  0.4243
48691SOL    HW152934   4.994  11.211   3.090  1.6661 -1.9123 -0.9146
48691SOL    HW252935   5.094  11.206   3.204 -1.2969  1.7046  2.1208
48692SOL     OW52936   2.465   3.102   2.699  0.2295 -0.3241  0.6907
48692SOL    HW152937   2.383   3.085   2.652 -0.1219 -1.0891  1.5428
48692SOL    HW252938   2.517   3.156   2.639 -0.7534 -0.1291 -0.0039
48693SOL     OW52939  11.094   0.788   2.304  0.4391  0.3261 -0.4401
48693SOL    HW152940  11.073   0.760   2.215 -1.5576  1.1873 -0.2874
48693SOL    HW252941  11.190   0.786   2.307  0.5571  0.1396 -2.5513
48694SOL     OW52942   8.793  11.804   1.482  0.0158 -0.0999 -0.6157
48694SOL    HW152943   8.849  11.838   1.412  0.5544  0.0205 -0.1360
48694SOL    HW252944   8.763  11.882   1.529  0.5440 -0.2328 -0.0476
48695SOL     OW52945   7.924   8.605  10.018 -0.0214  0.1882  0.1892
48695SOL    HW152946   7.838   8.643  10.039 -0.6128  0.0753 -1.7620
48695SOL    HW252947   7.961   8.665   9.953  0.2333 -1.0753 -0.8934
48696SOL     OW52948   2.729   9.693  10.249  0.1769 -0.2451  0.0287
48696SOL    HW152949   2.723   9.682  10.154 -1.7054  0.1054  0.0574
48696SOL    HW252950   2.721   9.788  10.262 -0.0874 -0.3343  0.5550
48697SOL     OW52951   0.139  11.025   3.321 -0.0563 -0.1247  0.2561
48697SOL    HW152952   0.073  11.029   3.251  1.3206  0.8850 -1.0323
48697SOL    HW252953   0.130  11.109   3.367  1.5127  0.8122 -1.0760
48698SOL     OW52954   3.221   3.044   2.183 -0.0902  0.3633  0.3931
48698SOL    HW152955   3.163   3.118   2.204 -0.1013  0.6951 -0.7402
48698SOL    HW252956   3.278   3.036   2.260 -0.7266  0.9221  0.9404
48699SOL     OW52957   0.582   2.056   3.622 -0.2963 -0.4351  0.7313
48699SOL    HW152958   0.641   1.981   3.631 -0.4022 -0.5461  0.5062
48699SOL    HW252959   0.535   2.040   3.540  0.5752  0.4870  0.0123
48700SOL     OW52960   4.820   2.430   9.602 -0.3601 -0.5137 -0.0297
48700SOL    HW152961   4.880   2.367   9.562 -0.5772 -1.7446  1.4685
48700SOL    HW252962   4.752   2.444   9.536  0.5918 -0.5122 -1.0449
48701SOL     OW52963   0.789  10.684   4.531  0.1196  0.4007  0.0064
48701SOL    HW152964   0.796  10.772   4.567 -1.5516  0.6580 -0.2238
48701SOL    HW252965   0.755  10.631   4.604 -1.2029  0.4779 -0.5219
48702SOL     OW52966  11.895   8.317   2.591  0.2012 -0.1237 -0.3228
48702SOL    HW152967  11.940   8.235   2.569  0.4023 -0.1309  0.1033
48702SOL    HW252968  11.933   8.382   2.532 -0.6681 -0.5275 -1.3599
48703SOL     OW52969  10.659   4.348   4.387 -0.0373 -0.2021 -0.5179
48703SOL    HW152970  10.691   4.286   4.453  1.0098 -1.6983 -2.3445
48703SOL    HW252971  10.651   4.431   4.435 -0.0679 -1.3841  1.6542
48704SOL     OW52972   9.648   7.782   2.092 -0.0609  0.4150  0.0356
48704SOL    HW152973   9.702   7.849   2.132 -0.9845  0.6591  0.9428
48704SOL    HW252974   9.650   7.709   2.154 -0.4937  0.3012 -0.0760
48705SOL     OW52975   0.996   9.428   3.138  0.3293  0.7074  0.1005
48705SOL    HW152976   1.089   9.409   3.144  0.2029  0.2375  0.7063
48705SOL    HW252977   0.955   9.342   3.130  0.0072  0.9551 -1.1387
48706SOL     OW52978   1.632  12.462   8.410 -0.3326  0.1511  0.4131
48706SOL    HW152979   1.663  12.432   8.496 -0.3291  2.6039  1.3443
48706SOL    HW252980   1.538  12.442   8.411 -0.0345 -1.4225  0.2192
48707SOL     OW52981  11.771  11.949   5.149  0.0958 -0.0524 -0.0726
48707SOL    HW152982  11.781  11.867   5.100 -0.4822 -1.8228  2.5530
48707SOL    HW252983  11.851  11.954   5.202 -0.0070  0.9398 -0.0050
48708SOL     OW52984   0.870   6.290   7.562  0.3950 -0.4361 -0.5407
48708SOL    HW152985   0.964   6.301   7.547  0.3148  1.2530 -0.0638
48708SOL    HW252986   0.846   6.366   7.616 -1.0916 -1.2739  0.0255
48709SOL     OW52987   0.115  11.779   1.896 -0.6225 -0.0743  0.4127
48709SOL    HW152988   0.150  11.714   1.957  0.1882 -0.0680 -0.0224
48709SOL    HW252989   0.101  11.857   1.950  1.8453  0.5309  0.3011
48710SOL     OW52990   8.879   4.008  11.557  0.2422  0.0942 -0.1084
48710SOL    HW152991   8.963   4.051  11.574  0.2951 -0.2501  0.5609
48710SOL    HW252992   8.897   3.946  11.487  0.6530 -0.2728  0.3124
48711SOL     OW52993   2.010   3.515   9.887  0.0047  0.1401  0.2042
48711SOL    HW152994   2.013   3.568   9.808 -0.6527  1.0621  0.7803
48711SOL    HW252995   2.088   3.540   9.937 -0.3436  0.6383  0.5095
48712SOL     OW52996   2.122   9.619   5.341  0.0233  0.0437  0.3314
48712SOL    HW152997   2.155   9.654   5.424 -0.2361  2.1801 -0.4064
48712SOL    HW252998   2.199   9.617   5.284  0.5421 -2.8510  0.9629
48713SOL     OW52999   9.574   6.011   6.485  0.1476 -0.3483  0.0166
48713SOL    HW153000   9.624   5.978   6.560  2.0864  0.0708 -1.0127
48713SOL    HW253001   9.483   5.995   6.507  0.7734 -1.9324  1.6419
48714SOL     OW53002   1.981   5.182  11.261  0.0199 -0.5035 -1.0884
48714SOL    HW153003   2.041   5.123  11.306  0.4452 -0.4606 -1.5933
48714SOL    HW253004   1.992   5.161  11.168  1.1013  1.2460 -1.3889
48715SOL     OW53005   5.717   1.162   1.635  0.1698 -0.4439  0.3365
48715SOL    HW153006   5.674   1.203   1.560 -0.7194  0.1736  1.1650
48715SOL    HW253007   5.808   1.149   1.607 -0.6025 -2.2333 -1.6427
48716SOL     OW53008  10.294   9.775   1.536  0.8184 -0.1320 -0.6017
48716SOL    HW153009  10.277   9.713   1.606  0.4523 -0.1175 -0.6763
48716SOL    HW253010  10.380   9.811   1.556  0.3602  0.4821  0.2878
48717SOL     OW53011   2.449  11.712  11.210 -0.4080 -0.0608  0.1812
48717SOL    HW153012   2.511  11.750  11.148 -1.1175  0.1696 -0.4131
48717SOL    HW253013   2.428  11.783  11.271 -1.9571  0.6559 -1.1028
48718SOL     OW53014   2.066  11.858  10.387 -0.2830  0.1015  0.3248
48718SOL    HW153015   2.059  11.769  10.420 -0.6097 -0.6465 -1.6381
48718SOL    HW253016   1.979  11.877  10.351  0.6396 -0.0605 -2.1936
48719SOL     OW53017   6.358   3.295   9.907  0.6063 -0.0944 -0.1409
48719SOL    HW153018   6.342   3.202   9.925 -0.6541 -0.1743 -1.4659
48719SOL    HW253019   6.364   3.300   9.811  0.1240  1.2716 -0.1174
48720SOL     OW53020   8.243   4.062   7.408 -0.2635  0.1321 -0.6813
48720SOL    HW153021   8.301   4.139   7.414  0.2756 -0.0180 -2.8997
48720SOL    HW253022   8.301   3.991   7.379 -1.0137 -0.7872  0.0144
48721SOL     OW53023  11.056  11.331  10.012 -0.0122 -0.0512  0.4866
48721SOL    HW153024  11.012  11.254  10.048 -1.3335  0.7963  0.7212
48721SOL    HW253025  11.050  11.319   9.917  0.5848 -0.6641  0.5147
48722SOL     OW53026   0.120   2.820  12.089 -0.4806 -0.3991  0.7642
48722SOL    HW153027   0.215   2.809  12.080 -0.5669 -0.2849 -0.5450
48722SOL    HW253028   0.092   2.852  12.003 -1.3118  2.5373  1.9895
48723SOL     OW53029   1.080   7.522   8.751  0.5490  0.7613 -0.3457
48723SOL    HW153030   1.012   7.583   8.722  0.6212  1.3994  0.7832
48723SOL    HW253031   1.051   7.437   8.717 -0.1692  1.2275 -0.9345
48724SOL     OW53032   6.995   7.445   0.510  0.1537  0.1186 -0.0996
48724SOL    HW153033   6.959   7.387   0.443 -1.1972  0.2580  0.4739
48724SOL    HW253034   6.922   7.503   0.533  1.2272  1.5052 -0.0680
48725SOL     OW53035   9.955   0.483   6.066 -0.1527 -0.1760  0.1543
48725SOL    HW153036   9.978   0.484   5.973 -0.6546  0.5874  0.0324
48725SOL    HW253037   9.989   0.566   6.100 -0.1735 -0.3468  0.6045
48726SOL     OW53038   9.395   2.378   2.211 -0.1325 -0.0556  0.2402
48726SOL    HW153039   9.345   2.437   2.267 -0.1078  1.4305 -1.2215
48726SOL    HW253040   9.477   2.424   2.194  0.2678 -0.9081 -0.2177
48727SOL     OW53041   8.123   3.706   6.661  0.2464 -0.2088 -0.1996
48727SOL    HW153042   8.043   3.757   6.646 -1.3431 -1.7960  2.1632
48727SOL    HW253043   8.188   3.772   6.686 -0.9020  0.9669 -0.1640
48728SOL     OW53044  11.912   8.464  10.716 -0.1936  0.0803  0.1683
48728SOL    HW153045  11.942   8.395  10.656 -2.0005 -1.1342  0.5962
48728SOL    HW253046  11.836   8.502  10.672 -0.1990  0.6813  0.6940
48729SOL     OW53047   1.442   9.106   5.242  0.8591  0.3500  0.5453
48729SOL    HW153048   1.436   9.040   5.310 -1.3970  0.4547  0.5291
48729SOL    HW253049   1.520   9.082   5.191  1.3217 -0.9878  1.8355
48730SOL     OW53050   1.167   4.240   7.525 -0.0439  0.4916 -0.0693
48730SOL    HW153051   1.125   4.173   7.580 -0.3583  0.2322 -0.6131
48730SOL    HW253052   1.252   4.203   7.503  0.2975  0.8168  0.6516
48731SOL     OW53053   9.557   3.823   2.001 -0.4817  0.5972  0.1487
48731SOL    HW153054   9.525   3.735   2.021  0.3631  0.4184  0.7776
48731SOL    HW253055   9.521   3.878   2.069 -0.2312  0.5589  0.3159
48732SOL     OW53056   1.714   7.664  10.215 -0.1007 -0.1609 -0.2391
48732SOL    HW153057   1.659   7.737  10.245  0.0757 -0.1234 -0.0028
48732SOL    HW253058   1.729   7.611  10.293  2.0476  1.0204  0.2423
48733SOL     OW53059   7.267   6.577   6.731 -0.1416  0.0885 -0.3846
48733SOL    HW153060   7.174   6.600   6.729 -0.1408  0.6221  2.0571
48733SOL    HW253061   7.311   6.656   6.762  0.8986 -0.6407  0.0832
48734SOL     OW53062  11.727  11.803  10.953 -0.1527 -0.1779 -0.7524
48734SOL    HW153063  11.785  11.862  11.001  0.6534 -0.7827 -0.9629
48734SOL    HW253064  11.754  11.715  10.980 -1.7279 -0.4721  0.0289
48735SOL     OW53065   4.225   4.725   0.137 -0.2032  0.4153 -0.2413
48735SOL    HW153066   4.142   4.722   0.090  0.4752 -0.9821 -1.3942
48735SOL    HW253067   4.283   4.777   0.081  0.5330 -1.0516 -0.9076
48736SOL     OW53068   4.362   5.541   7.834 -0.3226  0.0920 -0.2545
48736SOL    HW153069   4.345   5.635   7.826 -0.6861  0.4131  2.8561
48736SOL    HW253070   4.412   5.519   7.756 -0.0306  2.9165 -0.9818
48737SOL     OW53071  10.815   5.315   3.471  0.8012 -0.0537  0.4308
48737SOL    HW153072  10.824   5.344   3.380 -0.5821 -0.7737  0.0421
48737SOL    HW253073  10.861   5.382   3.522  1.9722  0.1228 -0.8190
48738SOL     OW53074  12.281  10.492   4.325 -0.1834  0.4365  0.0187
48738SOL    HW153075  12.189  10.514   4.311 -0.9384 -1.2184  1.8971
48738SOL    HW253076  12.300  10.425   4.260 -0.7359 -0.2141  0.5175
48739SOL     OW53077   1.683  10.498  10.849  0.4013  0.1090  0.3444
48739SOL    HW153078   1.710  10.418  10.895 -1.9706 -1.6761 -1.1265
48739SOL    HW253079   1.594  10.514  10.880 -1.2259 -1.0578 -3.2397
48740SOL     OW53080   7.952   9.404  12.237  0.0313  0.0786  0.0789
48740SOL    HW153081   8.022   9.424  12.299 -0.1400 -0.1789  0.3574
48740SOL    HW253082   7.956   9.475  12.173  0.6652 -0.0276 -0.0081
48741SOL     OW53083  11.657   4.805   4.305 -0.3438 -0.5625  0.2460
48741SOL    HW153084  11.563   4.786   4.301 -0.1456 -1.4699 -0.6832
48741SOL    HW253085  11.663   4.898   4.287 -1.1155 -0.3314  1.1062
48742SOL     OW53086   9.865   7.247   0.502  0.4633 -0.2863  0.1926
48742SOL    HW153087   9.941   7.250   0.561  1.7367 -1.8823 -1.2207
48742SOL    HW253088   9.883   7.171   0.446 -2.1656 -0.6452 -0.2700
48743SOL     OW53089   3.666   8.960   8.309  0.0302 -0.5694 -0.0777
48743SOL    HW153090   3.594   9.023   8.302  0.5439  0.0676  0.2903
48743SOL    HW253091   3.745   9.011   8.289  0.4387 -1.1386  0.0534
48744SOL     OW53092  11.661   1.411   5.409 -0.9907 -0.1040  0.1699
48744SOL    HW153093  11.626   1.497   5.431 -1.7839 -0.5187  0.5715
48744SOL    HW253094  11.722   1.391   5.479 -1.0219  0.0114  0.2305
48745SOL     OW53095   1.891   9.474   5.334 -0.4045  0.1000 -0.0975
48745SOL    HW153096   1.961   9.539   5.343 -0.7055  0.2087  1.7910
48745SOL    HW253097   1.921   9.399   5.385 -2.0109  0.4837  1.5322
48746SOL     OW53098   0.966  10.843   3.997  0.1792 -0.1254 -0.3590
48746SOL    HW153099   0.913  10.852   4.076 -2.9986  0.3718 -2.3547
48746SOL    HW253100   0.964  10.749   3.976 -0.4772 -0.0237 -0.7695
48747SOL     OW53101   4.430   9.404   5.121  0.3223  0.2746  0.0567
48747SOL    HW153102   4.409   9.498   5.123 -1.7186 -0.1297 -0.3833
48747SOL    HW253103   4.457   9.387   5.031  0.8606  0.4589  0.1791
48748SOL     OW53104   7.307   7.536  12.065  0.4566 -0.3063 -0.5579
48748SOL    HW153105   7.253   7.530  12.144  1.2086  1.6937  0.1737
48748SOL    HW253106   7.343   7.448  12.054 -1.8382 -1.3424 -0.3046
48749SOL     OW53107   9.689   9.847   6.099 -0.0581  0.0196 -0.4040
48749SOL    HW153108   9.785   9.852   6.096 -0.0925  2.0946  0.1886
48749SOL    HW253109   9.670   9.828   6.191 -0.2167  2.7516  0.2070
48750SOL     OW53110   5.067   8.908   4.373 -0.1115 -0.0728 -0.4605
48750SOL    HW153111   5.142   8.901   4.433 -0.9570  0.6732  0.7313
48750SOL    HW253112   5.097   8.966   4.304  0.1511  0.9599  0.4821
48751SOL     OW53113   1.868   0.851  12.386  0.4017 -0.3761 -0.0298
48751SOL    HW153114   1.813   0.918  12.345  1.5206  1.1904  0.8753
48751SOL    HW253115   1.849   0.771  12.338 -2.6548  0.0638  0.2454
48752SOL     OW53116   1.302   9.438   4.314  0.2094 -0.4900  0.0008
48752SOL    HW153117   1.272   9.449   4.404  0.0789  0.1475 -0.1199
48752SOL    HW253118   1.254   9.362   4.282 -1.0417  0.3228 -0.0901
48753SOL     OW53119   1.474   8.718   9.363 -1.0477  0.4439  0.0091
48753SOL    HW153120   1.382   8.723   9.386 -0.4795  4.0385  2.4004
48753SOL    HW253121   1.476   8.720   9.267 -3.4030 -1.8218 -0.1601
48754SOL     OW53122   5.385  10.601   4.142  0.0384 -0.0523  0.2258
48754SOL    HW153123   5.412  10.514   4.172 -0.5237 -0.7947 -1.2821
48754SOL    HW253124   5.438  10.616   4.063  0.7877  1.3929  0.9654
48755SOL     OW53125   8.530   7.497   9.670 -0.3447  0.0152  0.2371
48755SOL    HW153126   8.549   7.559   9.740 -2.5886 -0.4731  1.3593
48755SOL    HW253127   8.454   7.535   9.624 -0.6396 -1.0262 -0.1675
48756SOL     OW53128   4.808   9.269  12.473 -0.3522  0.4936 -0.1637
48756SOL    HW153129   4.894   9.229  12.491  0.0107  0.6647 -1.4386
48756SOL    HW253130   4.817   9.359  12.506 -0.1661  0.4011  0.0435
48757SOL     OW53131   3.501   0.006   1.209 -0.1791 -0.0688  0.6478
48757SOL    HW153132   3.488  -0.088   1.194 -0.1992 -0.2902  1.9112
48757SOL    HW253133   3.511   0.043   1.122  1.5856 -1.5033  0.1611
48758SOL     OW53134   4.364   6.203   2.040 -0.6062 -0.2807 -0.1765
48758SOL    HW153135   4.281   6.240   2.012 -0.0709  1.0269 -0.0885
48758SOL    HW253136   4.404   6.169   1.960 -1.4048 -1.3317 -0.1504
48759SOL     OW53137   6.251   4.141  10.533 -0.0460 -0.0288  0.7603
48759SOL    HW153138   6.233   4.142  10.439  1.0776  0.8831  0.5284
48759SOL    HW253139   6.164   4.150  10.573 -0.3624  3.1315 -0.2767
48760SOL     OW53140   6.640   5.080   8.452  0.4722 -0.2002 -0.2972
48760SOL    HW153141   6.684   5.165   8.456 -0.2004  0.1024  1.2244
48760SOL    HW253142   6.556   5.095   8.495 -0.7403 -1.0191 -2.2509
48761SOL     OW53143   9.741   6.722   9.705 -0.6039 -0.1879  0.5806
48761SOL    HW153144   9.706   6.721   9.794 -0.4392 -0.6784  0.6477
48761SOL    HW253145   9.682   6.779   9.656 -0.6597  0.1380  1.0181
48762SOL     OW53146   5.033  10.480   4.935  0.3266  0.2010  0.5433
48762SOL    HW153147   4.972  10.440   4.997 -1.1409 -1.1301 -1.5892
48762SOL    HW253148   4.986  10.557   4.901  0.3336 -0.1178 -0.2107
48763SOL     OW53149  10.777  11.180   5.863  0.4293  0.4767 -0.5321
48763SOL    HW153150  10.823  11.130   5.930  2.6744 -0.9358 -2.9074
48763SOL    HW253151  10.771  11.120   5.789 -1.6436  2.0509 -1.7564
48764SOL     OW53152   9.780   2.178   0.514 -0.0076 -0.3383  0.1503
48764SOL    HW153153   9.834   2.099   0.521 -0.4857 -0.8603 -1.6007
48764SOL    HW253154   9.721   2.173   0.589  0.7490 -1.0083  0.7268
48765SOL     OW53155  11.419   7.432   1.234  0.6744  1.0023 -0.1162
48765SOL    HW153156  11.447   7.523   1.225  0.2557  1.4074  2.0924
48765SOL    HW253157  11.325   7.437   1.250  0.4349  0.0777 -1.0679
48766SOL     OW53158   0.408   7.159   1.344  0.0461  0.3146 -0.3791
48766SOL    HW153159   0.492   7.198   1.369 -0.5559  1.2993  0.1520
48766SOL    HW253160   0.352   7.234   1.322 -0.8994 -0.2865 -0.0709
48767SOL     OW53161   3.612  10.479   2.387 -0.1036  0.1343 -0.4624
48767SOL    HW153162   3.617  10.428   2.306 -0.0421 -0.5938 -0.0147
48767SOL    HW253163   3.684  10.542   2.380  0.7937 -0.8430 -0.3726
48768SOL     OW53164   5.462   8.784   1.990  0.3981 -1.0059 -0.2671
48768SOL    HW153165   5.510   8.714   1.947  0.4751 -0.9560 -0.2627
48768SOL    HW253166   5.511   8.864   1.967  1.6287 -1.1702  1.5477
48769SOL     OW53167   7.342   5.093   0.138  0.5384  0.0571  0.1316
48769SOL    HW153168   7.253   5.096   0.104  0.1608 -1.4372  0.8778
48769SOL    HW253169   7.397   5.121   0.065 -0.4335 -0.5064 -0.8472
48770SOL     OW53170  12.048   4.146  10.004 -0.0227 -0.0189  0.1781
48770SOL    HW153171  12.046   4.225   9.950 -0.1716 -2.2279 -3.3551
48770SOL    HW253172  12.136   4.111   9.991 -0.1816 -0.7965  1.1598
48771SOL     OW53173   6.712   9.571   2.796 -0.2886 -0.5401 -0.1035
48771SOL    HW153174   6.656   9.609   2.863  0.1707 -1.7670  1.0147
48771SOL    HW253175   6.664   9.583   2.714 -0.3685  1.9710  0.2371
48772SOL     OW53176   4.962   0.673   8.583 -0.3145  0.0684 -0.1301
48772SOL    HW153177   5.023   0.674   8.509  0.5301  1.2977  0.5381
48772SOL    HW253178   4.921   0.759   8.582 -1.1191 -0.3061  0.1750
48773SOL     OW53179   7.964   4.316   0.813 -0.6647  0.4762  0.2579
48773SOL    HW153180   7.931   4.323   0.903 -1.2352  0.1609  0.0768
48773SOL    HW253181   7.923   4.388   0.766 -1.0801  0.0976  0.0377
48774SOL     OW53182   7.332  11.267   5.728  0.5133 -0.0246 -0.3362
48774SOL    HW153183   7.420  11.263   5.692  0.4089 -1.3347 -0.4891
48774SOL    HW253184   7.274  11.252   5.654  0.0800  1.8506 -0.4342
48775SOL     OW53185   6.726  11.575   4.205  0.4767  0.3072 -0.1547
48775SOL    HW153186   6.678  11.553   4.125  2.8647  2.0367 -2.2068
48775SOL    HW253187   6.775  11.495   4.226 -1.0398 -0.5402  0.3416
48776SOL     OW53188   4.978   8.650   6.703 -0.3614  0.5286 -0.2483
48776SOL    HW153189   5.073   8.636   6.695 -0.7417 -2.6395 -0.1572
48776SOL    HW253190   4.971   8.736   6.744  2.3289  2.9346 -4.1385
48777SOL     OW53191   3.966   8.902   1.475 -0.8614  0.1589  0.0588
48777SOL    HW153192   3.909   8.854   1.535  0.2914  1.9230  2.7590
48777SOL    HW253193   3.936   8.993   1.481 -0.5968  0.4445 -2.0078
48778SOL     OW53194   0.138   2.699   2.391 -0.1716 -0.5354 -0.7886
48778SOL    HW153195   0.081   2.622   2.391 -1.7936  0.6232 -0.0485
48778SOL    HW253196   0.098   2.759   2.328  1.5746 -0.5837 -2.0395
48779SOL     OW53197   1.400   2.375   0.423  0.4903 -0.4866 -0.1588
48779SOL    HW153198   1.385   2.398   0.515  1.9923  1.8504 -0.4219
48779SOL    HW253199   1.330   2.417   0.375  1.5447  1.1178 -0.3520
48780SOL     OW53200  10.260  11.192   3.252  0.0795  0.1800  0.1431
48780SOL    HW153201  10.243  11.257   3.321  0.1179 -0.9562  1.2632
48780SOL    HW253202  10.354  11.194   3.240  0.3114 -0.9147  1.4935
48781SOL     OW53203   1.834   3.304   1.521  0.0709 -0.5283 -0.1015
48781SOL    HW153204   1.836   3.331   1.613  2.3631  0.0243 -0.2431
48781SOL    HW253205   1.770   3.232   1.518 -0.3847 -0.2528  1.8175
48782SOL     OW53206   3.779   5.832   4.991  0.5589 -0.6463  0.4803
48782SOL    HW153207   3.748   5.851   5.079 -1.2540  0.3595 -0.3151
48782SOL    HW253208   3.821   5.914   4.962 -0.3403 -0.4030 -0.1685
48783SOL     OW53209   6.270  11.921   8.948  0.1284 -0.2542  0.3173
48783SOL    HW153210   6.279  11.956   9.036  1.7730  0.8741 -0.2648
48783SOL    HW253211   6.191  11.964   8.914 -0.0292 -0.0433  0.9271
48784SOL     OW53212  10.590   8.751   7.321 -0.1349  0.2650 -0.5106
48784SOL    HW153213  10.607   8.661   7.349  0.1888 -0.1469 -1.9591
48784SOL    HW253214  10.593   8.802   7.402  0.1970 -0.9504  0.2679
48785SOL     OW53215   9.930   0.681   4.594 -0.6398 -0.1830  0.5013
48785SOL    HW153216   9.882   0.598   4.590 -0.5240 -0.2207 -0.1753
48785SOL    HW253217   9.882   0.739   4.535 -0.5701  0.1584  0.7760
48786SOL     OW53218   6.347   4.091   4.281 -0.2853  0.1420  0.3523
48786SOL    HW153219   6.430   4.045   4.295 -0.6135 -0.7364 -0.4837
48786SOL    HW253220   6.367   4.182   4.301  1.0503  0.0587 -0.4553
48787SOL     OW53221   8.488   6.915   6.948 -0.3517 -0.2287 -0.7968
48787SOL    HW153222   8.409   6.922   7.002  0.6001  0.2268  0.5896
48787SOL    HW253223   8.455   6.897   6.860 -1.9299 -1.7175  0.0383
48788SOL     OW53224   8.162   7.252  10.906 -0.0703  0.3106  0.3903
48788SOL    HW153225   8.216   7.291  10.975 -1.1956 -0.0400  1.5124
48788SOL    HW253226   8.153   7.160  10.933 -1.5438  0.4570  0.4490
48789SOL     OW53227   7.081  11.292  11.046  0.0466  0.2294 -0.1050
48789SOL    HW153228   7.176  11.295  11.033 -0.0464  1.7943 -0.5515
48789SOL    HW253229   7.048  11.371  11.004 -1.7790 -1.5924 -2.3835
48790SOL     OW53230   3.052  10.677  12.098 -0.2659  0.2945 -1.0904
48790SOL    HW153231   3.002  10.739  12.152  1.2918  0.0525  0.7654
48790SOL    HW253232   3.132  10.661  12.149  0.4096 -1.4867 -2.6025
48791SOL     OW53233   5.407   5.728   5.576 -0.0498  0.5957 -0.6453
48791SOL    HW153234   5.376   5.748   5.487  1.2146  1.0473 -1.0102
48791SOL    HW253235   5.444   5.811   5.607  2.2275 -0.2698 -0.8735
48792SOL     OW53236   4.340   7.958   3.593 -0.5274  0.6426  0.3602
48792SOL    HW153237   4.291   7.931   3.515 -1.1121  0.5276  0.7569
48792SOL    HW253238   4.351   8.052   3.584 -1.0047  0.7019  0.3575
48793SOL     OW53239   0.682  11.435   3.300  0.2148 -0.2641 -0.0894
48793SOL    HW153240   0.624  11.504   3.265  1.0377  0.2516 -0.4649
48793SOL    HW253241   0.643  11.353   3.270 -0.4960  0.0601 -0.0702
48794SOL     OW53242  12.266   4.181  11.724 -0.2293 -0.0729 -0.3938
48794SOL    HW153243  12.352   4.210  11.754 -0.9975 -0.1411  2.1256
48794SOL    HW253244  12.269   4.190  11.629  2.3517  0.4411 -0.3298
48795SOL     OW53245  10.376   4.576   1.377  0.0188 -0.5114  0.0627
48795SOL    HW153246  10.408   4.604   1.292  0.9833 -2.0204 -0.1054
48795SOL    HW253247  10.425   4.496   1.397 -1.4096 -1.1574  1.2486
48796SOL     OW53248  10.492   9.341   7.841 -0.6006  0.2207 -0.0937
48796SOL    HW153249  10.399   9.333   7.820 -0.0595  0.2488 -2.8436
48796SOL    HW253250  10.513   9.433   7.825  0.5036 -0.3905 -2.7050
48797SOL     OW53251   7.543   1.473   7.577  0.6307  0.2397 -0.1342
48797SOL    HW153252   7.459   1.513   7.554  0.5302 -0.2061 -0.5648
48797SOL    HW253253   7.569   1.516   7.658 -1.1502 -1.2494  1.3177
48798SOL     OW53254   6.536   6.806   2.370 -0.0726 -0.3042 -0.6111
48798SOL    HW153255   6.614   6.844   2.412 -1.0481  1.1124 -0.0125
48798SOL    HW253256   6.528   6.854   2.288 -1.1559  0.6215  0.0167
48799SOL     OW53257   7.347   4.404  11.320  0.2300  0.8852  0.0253
48799SOL    HW153258   7.431   4.449  11.326  1.1473 -0.2733 -2.6971
48799SOL    HW253259   7.290   4.464  11.273  0.5831  0.3849 -1.0701
48800SOL     OW53260   4.582   0.831   9.685 -0.2984  0.2535 -0.4117
48800SOL    HW153261   4.533   0.881   9.619  0.7512  2.1302  0.1377
48800SOL    HW253262   4.602   0.895   9.753  0.8881 -1.0081  0.4803
48801SOL     OW53263   6.517   6.708   9.191  0.5043 -0.1307  0.3196
48801SOL    HW153264   6.610   6.730   9.178  1.1553 -3.0141 -0.6633
48801SOL    HW253265   6.518   6.637   9.255 -1.2621  1.1514  1.8635
48802SOL     OW53266   2.716   6.294   0.404  0.1877  0.0985  0.2515
48802SOL    HW153267   2.627   6.322   0.424 -0.2382 -1.5135  0.7302
48802SOL    HW253268   2.759   6.283   0.489  0.4782 -0.2602  0.0638
48803SOL     OW53269  11.077   1.508   5.810  0.3456 -0.1882  0.1045
48803SOL    HW153270  11.016   1.566   5.765  0.4127  0.1462  0.4399
48803SOL    HW253271  11.044   1.420   5.793 -0.3212 -0.0006  0.4108
48804SOL     OW53272   1.442   4.359   3.196 -0.1020 -0.0485 -0.0660
48804SOL    HW153273   1.438   4.265   3.179  0.2262  0.0810 -0.9324
48804SOL    HW253274   1.495   4.367   3.275  0.4236 -0.5594 -0.3540
48805SOL     OW53275   8.033   3.750   4.063 -0.4441  0.0649  0.3355
48805SOL    HW153276   7.977   3.799   4.003  0.3867  1.2571  0.4963
48805SOL    HW253277   8.094   3.703   4.006  0.7044  1.6324  0.2096
48806SOL     OW53278   9.095   3.593   1.431 -0.1623  0.0354 -0.2133
48806SOL    HW153279   9.101   3.643   1.349 -0.5351  0.3864 -0.0290
48806SOL    HW253280   9.124   3.654   1.498  2.1633 -0.8726 -0.2896
48807SOL     OW53281   9.111  11.913   1.828 -0.0829  0.0061 -0.5376
48807SOL    HW153282   9.180  11.940   1.889  0.7212 -0.0406 -1.4073
48807SOL    HW253283   9.106  11.818   1.837  0.7754 -0.1215 -1.2941
48808SOL     OW53284  10.023   7.878   9.834  0.5705  0.1157 -0.1548
48808SOL    HW153285  10.094   7.942   9.832  0.9559 -0.2976  0.1602
48808SOL    HW253286  10.034   7.832   9.917  0.9851 -1.1270 -0.8787
48809SOL     OW53287   4.631   1.508   0.399  0.3546  0.2981 -0.1220
48809SOL    HW153288   4.641   1.413   0.401  1.4722  0.3929 -0.6205
48809SOL    HW253289   4.563   1.524   0.334  0.6158 -0.1401 -0.5090
48810SOL     OW53290   9.114   4.162   0.153 -0.1596  0.0150  0.6637
48810SOL    HW153291   9.182   4.095   0.144  2.1843  2.3933 -0.4822
48810SOL    HW253292   9.033   4.112   0.163  1.7158 -2.9685  2.3617
48811SOL     OW53293   6.527   6.055  11.504 -0.0875  0.1383 -0.8420
48811SOL    HW153294   6.592   6.019  11.564 -0.9700 -0.4555 -0.2173
48811SOL    HW253295   6.563   6.040  11.417  0.8619  0.3244 -0.4911
48812SOL     OW53296   2.828   3.301   4.041 -0.5081  0.1649 -0.2455
48812SOL    HW153297   2.823   3.326   4.134 -1.3399  0.5735 -0.3862
48812SOL    HW253298   2.752   3.245   4.028 -0.2583 -0.0865 -0.6322
48813SOL     OW53299   1.518   0.881   1.494 -0.5311  0.0971  0.1445
48813SOL    HW153300   1.545   0.960   1.540  0.6088 -1.2015  1.8463
48813SOL    HW253301   1.556   0.889   1.407 -1.7392  2.0722 -0.2743
48814SOL     OW53302   9.462   6.001   0.844  0.3315  0.4512  0.6159
48814SOL    HW153303   9.531   5.966   0.788  1.7310  0.6026  2.1863
48814SOL    HW253304   9.477   6.096   0.843 -1.2360  0.7475 -0.7419
48815SOL     OW53305   3.187   6.564   6.591  0.4080  0.4199  0.4715
48815SOL    HW153306   3.097   6.534   6.581  0.3632  0.2211  1.4652
48815SOL    HW253307   3.191   6.642   6.535 -0.5828  0.8432  0.9581
48816SOL     OW53308   9.198   4.760   5.115  0.1146  0.5024 -0.3538
48816SOL    HW153309   9.136   4.775   5.045 -0.2263  0.6492 -0.0272
48816SOL    HW253310   9.151   4.706   5.179  0.1882  0.9199  0.0653
48817SOL     OW53311  12.039  11.221   1.603 -0.6154  0.3276  0.2032
48817SOL    HW153312  12.131  11.246   1.610 -0.6547  0.7622 -0.7138
48817SOL    HW253313  11.998  11.293   1.555 -1.2089 -0.3759 -0.3657
48818SOL     OW53314   5.728  10.682   6.736  0.2665 -0.1166  0.7828
48818SOL    HW153315   5.820  10.703   6.717 -0.1011 -0.2716 -1.4679
48818SOL    HW253316   5.689  10.766   6.760  0.5441  0.3683 -0.3861
48819SOL     OW53317  11.602   3.948   4.278 -0.2599 -0.2210 -0.2989
48819SOL    HW153318  11.583   4.041   4.285 -0.4907 -0.4051  2.6043
48819SOL    HW253319  11.662   3.941   4.203 -0.3670  2.1920 -0.6863
48820SOL     OW53320   7.322   1.953   0.078  0.1904  0.4393 -0.2919
48820SOL    HW153321   7.413   1.980   0.070  0.6189 -0.1022  1.9588
48820SOL    HW253322   7.312   1.929   0.170 -2.3317  0.8112 -0.3896
48821SOL     OW53323  10.532   0.146   5.496  0.0333  0.5143 -0.3357
48821SOL    HW153324  10.591   0.171   5.425 -0.2177 -1.1222 -1.1711
48821SOL    HW253325  10.487   0.227   5.519  0.9094  1.2983 -1.2964
48822SOL     OW53326   2.321   3.040   8.989 -0.2841  0.6581  0.4970
48822SOL    HW153327   2.394   2.996   9.033  1.2348  0.0125 -2.4391
48822SOL    HW253328   2.259   2.970   8.971  0.1792  0.4537 -0.3849
48823SOL     OW53329   3.573   8.074   1.173 -0.2939  0.5134  0.0127
48823SOL    HW153330   3.651   8.059   1.226 -0.1361  1.2373 -0.0004
48823SOL    HW253331   3.501   8.079   1.236 -0.3107  0.0133  0.0381
48824SOL     OW53332   4.840   1.166   5.991 -0.2747 -0.0449  0.0074
48824SOL    HW153333   4.746   1.146   5.982 -0.1968  0.2619 -1.9234
48824SOL    HW253334   4.884   1.091   5.949  0.2732  0.5821 -0.5571
48825SOL     OW53335   7.017   6.150   9.153  0.4668 -0.0181 -0.0205
48825SOL    HW153336   6.937   6.099   9.169  0.0663  0.2176 -1.1180
48825SOL    HW253337   7.027   6.147   9.058  0.9701  1.1547 -0.0117
48826SOL     OW53338   3.965  11.221  10.087  0.5748 -0.0413  0.3867
48826SOL    HW153339   3.956  11.183  10.175  2.3483  0.9211  1.0386
48826SOL    HW253340   4.015  11.155  10.039  1.3757  0.3038  0.7303
48827SOL     OW53341   6.418   9.427   5.979  0.7456 -0.5050 -0.1121
48827SOL    HW153342   6.488   9.473   5.932  1.4017  0.4858  1.7106
48827SOL    HW253343   6.434   9.448   6.071 -2.6419  0.6937  0.3233
48828SOL     OW53344   2.983   0.550   1.364 -0.2189  0.6795 -0.2080
48828SOL    HW153345   3.063   0.603   1.370 -0.1146  0.6929 -1.5192
48828SOL    HW253346   2.923   0.601   1.310 -0.3515 -0.2264 -0.9556
48829SOL     OW53347   7.301   8.830   1.863 -0.1527 -0.1401 -0.1201
48829SOL    HW153348   7.252   8.859   1.786  2.6717 -0.2396 -2.1494
48829SOL    HW253349   7.314   8.909   1.915 -0.9996  0.2127 -0.4308
48830SOL     OW53350   6.400   9.103   8.063  0.3863  0.1628  0.0711
48830SOL    HW153351   6.333   9.169   8.078  2.1883  2.6797 -2.2456
48830SOL    HW253352   6.369   9.053   7.988 -0.0472 -0.4082  0.6125
48831SOL     OW53353   4.592   6.525  11.216  0.0887  0.1851  0.4128
48831SOL    HW153354   4.502   6.544  11.242  0.4112  0.3017  1.5007
48831SOL    HW253355   4.623   6.606  11.175 -0.5390 -0.1120 -0.6692
48832SOL     OW53356   2.178   4.085   3.463 -0.3116  0.7209  0.3357
48832SOL    HW153357   2.121   4.049   3.394 -0.5523 -0.4290  1.1060
48832SOL    HW253358   2.259   4.106   3.417 -0.0450 -1.1148 -0.1491
48833SOL     OW53359   6.308   0.571   7.680 -0.2568 -0.0743 -0.7720
48833SOL    HW153360   6.289   0.664   7.675 -1.9796 -0.3636 -0.4878
48833SOL    HW253361   6.400   0.566   7.705 -0.4228  1.5787  0.3628
48834SOL     OW53362   7.738   9.084   7.384 -0.7808 -0.4656  0.2316
48834SOL    HW153363   7.743   9.180   7.374  0.9826 -0.4119  1.3058
48834SOL    HW253364   7.808   9.051   7.327 -0.3079 -1.0036  1.1098
48835SOL     OW53365   7.142   2.475   8.124  0.2387  0.0176  0.6715
48835SOL    HW153366   7.202   2.405   8.097  1.2835  0.5242  1.6035
48835SOL    HW253367   7.109   2.511   8.042  1.2983 -0.2061  0.1273
48836SOL     OW53368   0.901   8.660  12.091  0.4514  0.2406 -0.3464
48836SOL    HW153369   0.868   8.691  12.175 -0.6954 -0.5775 -0.4753
48836SOL    HW253370   0.980   8.611  12.113  0.3114  0.2670  0.2270
48837SOL     OW53371   8.869   2.193   2.656 -0.0069  0.3643  1.0070
48837SOL    HW153372   8.863   2.255   2.583 -0.2469  1.2668  1.7678
48837SOL    HW253373   8.792   2.136   2.646 -0.3880  0.8860  0.9035
48838SOL     OW53374   5.688  12.425   5.189 -0.0524 -0.8141 -0.2777
48838SOL    HW153375   5.775  12.424   5.229 -0.3021  1.1883  0.4674
48838SOL    HW253376   5.635  12.368   5.246  0.7973 -2.2666 -0.8992
48839SOL     OW53377   1.095   4.503   7.554  0.0009 -0.2779  0.4245
48839SOL    HW153378   1.124   4.550   7.476 -1.1659  0.6603  0.5303
48839SOL    HW253379   1.121   4.412   7.538  0.5722  0.0555 -0.6471
48840SOL     OW53380   6.646   1.866  10.704  0.6100 -0.2533  0.2295
48840SOL    HW153381   6.552   1.868  10.687  0.8410  0.8026 -1.1301
48840SOL    HW253382   6.671   1.776  10.684 -0.2459 -0.7943  1.5101
48841SOL     OW53383   5.998   8.004   8.433  0.4830 -0.2423  0.2153
48841SOL    HW153384   5.973   8.037   8.520  0.1258 -0.7146  0.2938
48841SOL    HW253385   5.937   8.046   8.373 -3.1094 -4.0824  0.7239
48842SOL     OW53386   2.008   2.208   9.767 -0.0267  0.7271  0.0173
48842SOL    HW153387   2.037   2.117   9.768 -0.2242  0.6570 -0.5861
48842SOL    HW253388   1.979   2.224   9.678  1.0776  1.7328 -0.1982
48843SOL     OW53389   3.711   2.185   1.839 -0.0746 -0.0610 -0.0362
48843SOL    HW153390   3.676   2.205   1.926  2.0801 -0.4867  1.0222
48843SOL    HW253391   3.755   2.100   1.851 -1.8391 -1.3936 -2.2359
48844SOL     OW53392  10.489  10.044   1.429  0.2160 -0.2434 -0.0417
48844SOL    HW153393  10.507   9.963   1.477  0.0187 -0.4341 -0.2917
48844SOL    HW253394  10.543  10.039   1.350  0.7309  0.1854  0.2727
48845SOL     OW53395   6.614  12.082   1.155  0.4417  0.8912 -0.3223
48845SOL    HW153396   6.696  12.099   1.108  0.8493  0.2967  0.1658
48845SOL    HW253397   6.623  12.130   1.237  0.7239  0.0407  0.1572
48846SOL     OW53398   0.979  11.809   2.010 -0.3444  0.3233 -0.3244
48846SOL    HW153399   0.928  11.823   2.090  0.2634  0.9367 -0.0309
48846SOL    HW253400   0.915  11.780   1.945 -1.0512  0.9789  0.0631
48847SOL     OW53401   3.651   0.382   2.024  0.4963 -0.2644 -0.9432
48847SOL    HW153402   3.720   0.388   2.091  1.6482 -1.0282 -2.0130
48847SOL    HW253403   3.603   0.464   2.033  0.9075 -0.1424  0.5033
48848SOL     OW53404   8.011   2.689   5.522  0.3383  0.7303  0.1488
48848SOL    HW153405   8.007   2.618   5.457 -0.0838  0.6703  0.2310
48848SOL    HW253406   8.017   2.643   5.606  0.6943  0.8038  0.1636
48849SOL     OW53407   5.574   6.595   6.067 -0.0681  0.2623  0.2217
48849SOL    HW153408   5.638   6.576   6.136  0.3745 -0.8495 -0.4695
48849SOL    HW253409   5.599   6.682   6.035  1.2778 -0.2549 -0.2084
48850SOL     OW53410   1.195   7.200  11.301 -0.6220 -0.1316  0.2271
48850SOL    HW153411   1.244   7.267  11.253 -1.8070 -0.9578 -2.3749
48850SOL    HW253412   1.229   7.204  11.390  1.9337  1.3872 -0.7059
48851SOL     OW53413  10.603   7.230   9.290  0.6418 -0.0447 -0.3266
48851SOL    HW153414  10.652   7.311   9.307  0.6337 -0.0502 -0.2751
48851SOL    HW253415  10.561   7.245   9.206 -0.6791  0.6472  0.4323
48852SOL     OW53416   7.057   5.943   5.640  0.2670  0.0180  0.7478
48852SOL    HW153417   6.966   5.930   5.667 -0.0412 -0.4809 -0.4555
48852SOL    HW253418   7.051   6.003   5.565  1.1099  1.5202  1.8257
48853SOL     OW53419   8.930   1.304   9.723 -0.3059 -1.0003  0.4276
48853SOL    HW153420   8.900   1.220   9.756  2.3958 -1.9761  0.6800
48853SOL    HW253421   8.964   1.285   9.635 -0.1168 -0.0855  0.2900
48854SOL     OW53422   7.579  11.289   2.559 -0.0740  0.0576  0.3994
48854SOL    HW153423   7.579  11.214   2.500 -0.7532  0.0823  0.3632
48854SOL    HW253424   7.672  11.304   2.578  0.1059 -0.3916 -0.0925
48855SOL     OW53425  11.770   9.115   6.533  0.4338  0.2699 -0.4877
48855SOL    HW153426  11.707   9.054   6.493  0.4438 -0.2103  0.2089
48855SOL    HW253427  11.847   9.109   6.477  0.7149 -0.9564 -0.0129
48856SOL     OW53428   8.134   3.619   7.198 -0.5181  0.1801  0.1263
48856SOL    HW153429   8.118   3.575   7.282 -0.9077  0.2435  0.0892
48856SOL    HW253430   8.066   3.686   7.193 -0.5213  0.1513 -0.2579
48857SOL     OW53431   4.155   8.166   3.785  0.2826 -0.4264 -0.0719
48857SOL    HW153432   4.190   8.113   3.713  2.4170  1.1107 -0.2780
48857SOL    HW253433   4.233   8.197   3.831 -0.9839  0.4283  1.5867
48858SOL     OW53434   5.327   8.041   9.397  0.1236  0.1360  0.4489
48858SOL    HW153435   5.376   8.034   9.315  0.1099 -1.1919  0.5294
48858SOL    HW253436   5.340   7.956   9.440 -0.4198  0.5701  1.5100
48859SOL     OW53437   6.135   9.047  10.415 -0.4265 -0.3367 -0.3236
48859SOL    HW153438   6.046   9.084  10.413  0.1159  1.0518 -0.0712
48859SOL    HW253439   6.136   8.983  10.344 -1.2612  0.5567 -1.1716
48860SOL     OW53440   2.846  10.190  10.471  0.5013 -0.1417  0.3724
48860SOL    HW153441   2.794  10.244  10.413  1.3886  0.4753  0.1270
48860SOL    HW253442   2.894  10.252  10.526  1.5362 -0.6538  0.0829
48861SOL     OW53443   6.010   7.239   0.471  0.1208 -0.2974 -0.2408
48861SOL    HW153444   6.055   7.154   0.469  1.0275  0.1162  0.7924
48861SOL    HW253445   6.024   7.270   0.561  0.8483  1.4742 -0.9180
48862SOL     OW53446   2.704  10.466   3.182 -0.3119  0.0826 -0.0956
48862SOL    HW153447   2.686  10.506   3.267  1.7708  0.3886  0.2366
48862SOL    HW253448   2.724  10.375   3.202  1.2840  0.4137 -0.1071
48863SOL     OW53449   0.800   8.246  10.644  0.8442  0.5591 -0.4016
48863SOL    HW153450   0.769   8.232  10.554 -1.8451 -0.7035  0.5847
48863SOL    HW253451   0.833   8.335  10.644  0.0041  0.9485 -2.4327
48864SOL     OW53452   7.064   3.002   3.482 -0.1356  0.0185 -0.5175
48864SOL    HW153453   7.027   3.008   3.571  0.3391 -0.0876 -0.3100
48864SOL    HW253454   7.153   2.968   3.495  0.5122  1.4943 -0.8946
48865SOL     OW53455   8.098   9.039  12.461 -0.6196  0.1600  0.6014
48865SOL    HW153456   8.172   8.991  12.424  0.7864  2.6388 -0.0252
48865SOL    HW253457   8.044   9.063  12.385  0.4310  2.2706  0.4467
48866SOL     OW53458   9.938   2.197   3.134 -0.0289 -0.5756  0.0859
48866SOL    HW153459   9.936   2.147   3.215  1.6641  1.6876  1.6411
48866SOL    HW253460  10.025   2.181   3.098  0.8427  1.6815  1.0118
48867SOL     OW53461   0.585   5.722   8.045 -0.1105  0.0919  0.1980
48867SOL    HW153462   0.494   5.735   8.018 -0.4458 -2.8866 -0.4560
48867SOL    HW253463   0.636   5.750   7.969 -0.6645 -0.8386 -0.5502
48868SOL     OW53464   3.453   7.319   7.302 -0.0409  0.3127  0.3818
48868SOL    HW153465   3.374   7.291   7.257 -0.6798  2.3316  0.1742
48868SOL    HW253466   3.433   7.308   7.395 -1.6464  3.2509  0.4903
48869SOL     OW53467   7.882   0.558  11.104 -0.7389  0.2577 -0.3202
48869SOL    HW153468   7.941   0.631  11.124 -0.6819 -0.0505  0.6924
48869SOL    HW253469   7.794   0.596  11.113 -0.7736  1.1405 -3.3818
48870SOL     OW53470  10.521   2.875   4.873 -0.2164  0.3888 -0.5421
48870SOL    HW153471  10.566   2.866   4.789  0.8479 -0.5521  0.1005
48870SOL    HW253472  10.454   2.807   4.872  1.2737 -1.1832  0.2369
48871SOL     OW53473   9.635   1.979   6.977 -0.6045 -0.4334  0.9530
48871SOL    HW153474   9.724   1.943   6.974 -1.1897 -1.9473  0.2775
48871SOL    HW253475   9.639   2.057   6.922 -0.2074 -1.8526 -1.1863
48872SOL     OW53476   5.363   2.121   9.958 -0.3518 -0.0293 -0.1460
48872SOL    HW153477   5.290   2.174   9.926  0.3055  2.4114  2.0920
48872SOL    HW253478   5.435   2.142   9.898 -0.6331  0.0231 -0.4712
48873SOL     OW53479   8.286  10.837   3.391  0.1703 -0.1050  0.3276
48873SOL    HW153480   8.374  10.807   3.366  0.4767  0.8217  0.2205
48873SOL    HW253481   8.291  10.933   3.383 -1.2854 -0.1002 -1.1447
48874SOL     OW53482   7.942   9.612   6.776  0.3753  0.1097 -0.3791
48874SOL    HW153483   8.008   9.677   6.754  0.5476 -0.0142 -0.2337
48874SOL    HW253484   7.868   9.632   6.719  0.9599 -0.4608 -1.3577
48875SOL     OW53485   7.186  10.490   8.414 -0.1025  0.2094  0.1395
48875SOL    HW153486   7.130  10.522   8.344 -0.7041  1.0742  0.9842
48875SOL    HW253487   7.265  10.459   8.370 -0.8135 -0.0612 -0.9786
48876SOL     OW53488   2.171   2.501   4.472 -0.8417 -0.1108  0.0323
48876SOL    HW153489   2.221   2.583   4.474  0.7563 -1.0337 -0.5834
48876SOL    HW253490   2.237   2.432   4.479 -2.1599 -1.3698  0.6500
48877SOL     OW53491   0.437   7.011   0.433  0.3793  0.0078  0.3884
48877SOL    HW153492   0.347   7.007   0.466  0.0761  0.6032 -0.3234
48877SOL    HW253493   0.492   6.997   0.509 -0.3156  0.3231  0.9570
48878SOL     OW53494   1.304   0.755   5.022  0.2010  0.0318 -0.0843
48878SOL    HW153495   1.393   0.727   5.000 -0.0988  0.2093 -1.6334
48878SOL    HW253496   1.286   0.828   4.962  0.3534  2.5304  2.7108
48879SOL     OW53497  11.964   3.402   2.861  0.4040 -0.1170 -0.2666
48879SOL    HW153498  11.938   3.340   2.793  0.4999 -1.2899  0.7310
48879SOL    HW253499  12.044   3.364   2.899 -1.1174 -0.9937  2.3238
48880SOL     OW53500   5.657  11.923   2.134  0.0885  0.0387 -0.8167
48880SOL    HW153501   5.728  11.955   2.078  0.6337  0.9679  0.3582
48880SOL    HW253502   5.662  11.978   2.212 -1.8587  0.0314 -0.6513
48881SOL     OW53503   4.578   7.973   2.395  0.5403 -0.0464  0.5909
48881SOL    HW153504   4.499   7.998   2.348  0.4009  0.5618  1.1266
48881SOL    HW253505   4.625   7.914   2.335 -0.8222 -1.2854  0.6864
48882SOL     OW53506   8.865   4.117   1.126  0.2955  0.4116 -0.3979
48882SOL    HW153507   8.826   4.198   1.091 -1.4727  0.6364  1.8591
48882SOL    HW253508   8.951   4.144   1.158  0.9267  0.7229 -2.2639
48883SOL     OW53509   1.086  12.116   2.039 -0.9569  0.6307 -0.6355
48883SOL    HW153510   1.141  12.105   2.116  1.6288  0.3181 -2.4180
48883SOL    HW253511   1.016  12.051   2.051  1.0093 -1.5099  0.1160
48884SOL     OW53512  11.811   2.644   2.419  0.0705 -0.2366  0.5122
48884SOL    HW153513  11.863   2.692   2.484 -0.5880  0.2081  0.7209
48884SOL    HW253514  11.772   2.572   2.469 -2.3447  1.4282  1.2334
48885SOL     OW53515  11.681   3.497  11.744  0.5530  0.3470  0.0426
48885SOL    HW153516  11.631   3.577  11.725  1.6183  0.9354 -0.3611
48885SOL    HW253517  11.736   3.485  11.666  0.7607 -0.5085  0.3170
48886SOL     OW53518   1.382   4.619   3.834  0.0987 -0.1295  0.5785
48886SOL    HW153519   1.302   4.593   3.880 -1.2514  1.0198 -0.9811
48886SOL    HW253520   1.415   4.538   3.796 -1.2947 -0.3962 -0.1449
48887SOL     OW53521   9.947   4.531   0.228 -0.1056 -0.2396 -0.0788
48887SOL    HW153522   9.951   4.541   0.132  0.1147 -0.2500 -0.0717
48887SOL    HW253523   9.954   4.436   0.242 -1.5925 -0.3892 -0.1175
48888SOL     OW53524   1.471   3.458  11.856  0.3150 -0.9461 -0.4386
48888SOL    HW153525   1.467   3.439  11.762 -2.6948  0.6112 -0.7613
48888SOL    HW253526   1.407   3.400  11.896 -0.0457 -0.0673  0.3134
48889SOL     OW53527   6.222   3.892  11.537 -0.0095  0.0678 -0.0168
48889SOL    HW153528   6.154   3.905  11.471 -0.2478 -0.4742  0.1227
48889SOL    HW253529   6.196   3.949  11.610  0.8261  1.5239 -0.7889
48890SOL     OW53530  11.249   9.119   4.404 -0.0846  0.1041 -0.4382
48890SOL    HW153531  11.180   9.158   4.458 -0.6390 -1.4924  0.0535
48890SOL    HW253532  11.228   9.148   4.315 -0.3296  1.1124 -0.0658
48891SOL     OW53533   9.772   5.796  11.280 -0.1033 -0.2782  0.0529
48891SOL    HW153534   9.783   5.798  11.185 -0.5896 -1.7311 -0.0583
48891SOL    HW253535   9.785   5.887  11.307 -1.0743  0.3881 -1.5217
48892SOL     OW53536   1.914   5.939   9.107  0.1238 -0.6984  0.3507
48892SOL    HW153537   1.835   5.925   9.055 -1.3282  0.4448  2.1032
48892SOL    HW253538   1.968   5.862   9.091 -1.1941 -1.3621 -1.1618
48893SOL     OW53539  11.692   3.332   0.925  0.2020  0.2655 -0.1368
48893SOL    HW153540  11.740   3.252   0.947 -1.3341 -0.9493 -0.9577
48893SOL    HW253541  11.731   3.400   0.979  1.7336 -0.9849  0.3966
48894SOL     OW53542   8.528  12.182   2.944 -0.1778  0.2353 -0.4017
48894SOL    HW153543   8.515  12.088   2.950  2.5102 -0.1583  1.4691
48894SOL    HW253544   8.521  12.202   2.851 -1.7601 -1.6142 -0.7307
48895SOL     OW53545   6.014   4.591   4.832 -0.3156  0.5123  0.1149
48895SOL    HW153546   5.939   4.535   4.854  0.4874  0.0494  1.8379
48895SOL    HW253547   6.000   4.670   4.884 -0.2155  0.9247 -0.4818
48896SOL     OW53548  12.140  12.022   5.914  0.3170  0.0789 -0.5120
48896SOL    HW153549  12.234  12.035   5.906  0.5027 -0.7127  0.1553
48896SOL    HW253550  12.114  11.983   5.831  1.0867 -2.2098  0.2313
48897SOL     OW53551   0.265   0.346  11.305  0.5087  0.2150  0.2651
48897SOL    HW153552   0.330   0.346  11.375 -0.2000  0.7536  0.9432
48897SOL    HW253553   0.224   0.259  11.310  0.6796  0.1372  0.3077
48898SOL     OW53554   3.065   8.276   8.364 -0.4238 -0.3545 -0.4238
48898SOL    HW153555   3.031   8.365   8.369  1.9573  0.5918  0.4723
48898SOL    HW253556   2.993   8.224   8.329 -2.9693  1.3035  1.9745
48899SOL     OW53557   0.346   5.580   9.945 -0.6820  0.2730 -0.0364
48899SOL    HW153558   0.258   5.556   9.971 -0.8350  0.6370 -0.2080
48899SOL    HW253559   0.376   5.507   9.890 -0.5650 -0.2337  0.6841
48900SOL     OW53560   0.576   4.066   9.435 -0.2190  0.1752 -0.0916
48900SOL    HW153561   0.521   4.090   9.510 -0.4871  0.0878 -0.2555
48900SOL    HW253562   0.665   4.062   9.470 -0.6075 -2.3536  0.8610
48901SOL     OW53563   8.726  10.697   7.170  0.2336  0.2608  0.2638
48901SOL    HW153564   8.674  10.723   7.246  0.6251  2.9301 -0.2623
48901SOL    HW253565   8.743  10.604   7.183 -2.5972 -0.1609  1.6511
48902SOL     OW53566   9.555   4.431   6.368 -0.1160  0.2820 -0.5327
48902SOL    HW153567   9.520   4.518   6.385  0.8829  1.0721 -2.2661
48902SOL    HW253568   9.649   4.443   6.359  0.0116 -0.9004 -1.1195
48903SOL     OW53569   1.517   5.226   6.790 -0.5489  0.0702 -0.5158
48903SOL    HW153570   1.555   5.242   6.877 -0.9063 -0.0206 -0.3421
48903SOL    HW253571   1.461   5.150   6.802 -0.5322  0.0046 -0.8479
48904SOL     OW53572   4.409  11.833  12.205 -0.9374  0.1877 -0.2077
48904SOL    HW153573   4.400  11.862  12.114 -0.4498  0.4950 -0.1603
48904SOL    HW253574   4.319  11.819  12.235 -1.0782 -0.3922 -0.8876
48905SOL     OW53575   8.597   3.478   2.240  0.4807 -0.5461  0.1922
48905SOL    HW153576   8.620   3.515   2.155 -0.9107 -0.0251  0.0196
48905SOL    HW253577   8.544   3.401   2.219  0.1992 -0.4627  0.5863
48906SOL     OW53578   7.192   1.032   5.529  0.4626 -0.0196 -0.4375
48906SOL    HW153579   7.283   1.005   5.521  0.6987  0.6911 -0.2239
48906SOL    HW253580   7.171   1.071   5.444  0.6270  0.5932 -0.2038
48907SOL     OW53581   8.181   1.939   8.869 -0.3272  0.1473 -0.2400
48907SOL    HW153582   8.201   1.905   8.956  0.1529  0.5445 -0.1920
48907SOL    HW253583   8.229   1.881   8.809 -0.7266 -0.1789 -0.2527
48908SOL     OW53584   4.321   1.082   3.141 -0.2241  0.3312 -0.0701
48908SOL    HW153585   4.232   1.047   3.145  0.3544 -1.0996  0.9483
48908SOL    HW253586   4.340   1.087   3.047 -1.9148  2.1675 -0.3754
48909SOL     OW53587   6.303   4.249   6.216  0.5168 -0.6246 -0.1881
48909SOL    HW153588   6.336   4.313   6.152  0.1094  0.0594  0.2733
48909SOL    HW253589   6.331   4.283   6.301 -0.7786 -0.3639  0.1653
48910SOL     OW53590   6.392   9.786  10.882 -0.0375 -0.8192  0.5156
48910SOL    HW153591   6.421   9.695  10.886  0.5303 -0.6086  1.4495
48910SOL    HW253592   6.444   9.824  10.812  0.5348 -0.9441  0.8629
48911SOL     OW53593   4.818   1.865  10.770 -0.3067 -0.1526 -0.3093
48911SOL    HW153594   4.742   1.842  10.717 -0.5630  1.7182 -0.8240
48911SOL    HW253595   4.804   1.820  10.853 -0.5827 -2.0340 -1.3268
48912SOL     OW53596   7.483  12.196  11.361  0.1156 -1.2598 -0.3264
48912SOL    HW153597   7.537  12.156  11.429  0.3757 -1.8057 -0.8447
48912SOL    HW253598   7.531  12.179  11.279 -0.2366 -0.6923 -0.6532
48913SOL     OW53599   9.937   1.428   5.356  0.3433  0.2987 -0.3223
48913SOL    HW153600   9.956   1.407   5.448 -0.5480  1.0564  0.0531
48913SOL    HW253601  10.009   1.485   5.329  0.0372  0.9762  0.2580
48914SOL     OW53602   9.363   0.955  12.448  0.1464 -0.4341  0.3673
48914SOL    HW153603   9.380   1.049  12.454  0.2292 -0.4250  0.0087
48914SOL    HW253604   9.370   0.935  12.354  1.6222 -1.0743  0.5875
48915SOL     OW53605  11.239   5.009   0.692  0.4084 -0.3930 -0.0891
48915SOL    HW153606  11.152   5.010   0.652 -0.5582  1.4545  1.9237
48915SOL    HW253607  11.288   5.076   0.645  0.8068 -1.3998 -1.1884
48916SOL     OW53608  11.688   0.692   2.684 -0.1800 -0.3205  0.1611
48916SOL    HW153609  11.651   0.618   2.734  0.2192 -1.6280 -1.4039
48916SOL    HW253610  11.629   0.701   2.609  1.9401 -1.7369 -1.8057
48917SOL     OW53611   2.143   5.324  10.440 -0.4824  0.4386 -0.2242
48917SOL    HW153612   2.136   5.249  10.500 -0.0913  1.7037  1.4872
48917SOL    HW253613   2.158   5.285  10.354 -3.5130 -1.5530  0.0175
48918SOL     OW53614   1.383   3.983   4.680  0.0437  0.4004  0.2469
48918SOL    HW153615   1.434   3.939   4.749 -0.2726 -0.4059 -0.0109
48918SOL    HW253616   1.333   3.912   4.640  1.0964  0.6612 -1.6129
48919SOL     OW53617  12.324   1.835   4.089 -0.7988  0.0181  0.5180
48919SOL    HW153618  12.358   1.799   4.171 -2.0620  0.4242  1.2489
48919SOL    HW253619  12.353   1.926   4.089  1.1589 -0.5433 -0.6344
48920SOL     OW53620   2.960   9.713   0.307  0.1044 -0.2886 -0.2893
48920SOL    HW153621   2.894   9.768   0.349  0.2104 -2.3193  2.8852
48920SOL    HW253622   2.913   9.633   0.283  1.2247 -1.5280  1.4928
48921SOL     OW53623   1.978   2.136  10.465 -0.3455 -0.8552  0.6593
48921SOL    HW153624   2.058   2.087  10.484 -0.0820 -1.0355 -0.7575
48921SOL    HW253625   1.980   2.211  10.524  1.2170 -0.4999  0.1968
48922SOL     OW53626   0.359   8.884   8.484  0.4169  0.6662  0.1599
48922SOL    HW153627   0.391   8.934   8.558  0.1269  0.5974  0.3351
48922SOL    HW253628   0.346   8.795   8.518  1.9713  0.1937 -0.4286
48923SOL     OW53629   7.896   8.024  10.736  0.2005 -0.0854 -0.0214
48923SOL    HW153630   7.913   8.094  10.798 -0.1118 -0.7269  0.8088
48923SOL    HW253631   7.982   7.999  10.702  0.2982  0.7686 -0.4137
48924SOL     OW53632   4.141   2.544   4.807 -0.0144  0.5300 -0.0087
48924SOL    HW153633   4.229   2.526   4.774 -0.2590  0.0697 -0.4160
48924SOL    HW253634   4.152   2.622   4.861  0.4757  1.0603 -0.8380
48925SOL     OW53635   0.242   3.772  11.819 -0.0451  0.1172 -0.6511
48925SOL    HW153636   0.191   3.691  11.826 -2.5373  1.6797  1.6227
48925SOL    HW253637   0.191   3.827  11.759 -0.0604  1.0267  0.1642
48926SOL     OW53638   3.835   3.413   9.066 -0.4109  0.3110  0.5262
48926SOL    HW153639   3.863   3.395   8.976 -2.7946  0.0759 -0.2414
48926SOL    HW253640   3.767   3.348   9.083 -0.7974  1.0888  2.0856
48927SOL     OW53641  11.112   7.102   9.267 -0.4906  0.0388 -0.2592
48927SOL    HW153642  11.062   7.165   9.215  0.5156  0.8624 -0.2464
48927SOL    HW253643  11.169   7.156   9.322  0.0075 -0.8707  0.1315
48928SOL     OW53644   9.827   8.353   3.851  0.0256  0.0088  0.0664
48928SOL    HW153645   9.804   8.263   3.877  3.0813 -0.7751  0.4039
48928SOL    HW253646   9.901   8.376   3.907 -0.9734  3.0199  0.3686
48929SOL     OW53647  12.004  11.946   5.291  0.1322 -0.0045  0.6979
48929SOL    HW153648  11.956  11.890   5.351 -0.0860  0.0478  0.5710
48929SOL    HW253649  12.076  11.891   5.259 -0.3453 -0.3557  0.2228
48930SOL     OW53650   1.452   6.734   3.394  0.6246  0.5153  0.6780
48930SOL    HW153651   1.544   6.760   3.382  0.5557  0.2741 -0.4528
48930SOL    HW253652   1.454   6.638   3.391  0.2347  0.5238 -0.2845
48931SOL     OW53653   9.442  10.397   4.516 -0.4438 -0.0478  0.5169
48931SOL    HW153654   9.432  10.488   4.544 -0.4021 -0.4911  2.0550
48931SOL    HW253655   9.465  10.350   4.596 -2.7627 -1.8109  0.2430
48932SOL     OW53656   0.094   7.865   8.161  0.2600  0.2036  0.2409
48932SOL    HW153657   0.079   7.907   8.246  1.5927  1.7849 -0.2416
48932SOL    HW253658   0.009   7.867   8.117  0.0116  1.2337  0.7520
48933SOL     OW53659   1.681   5.834   5.468 -0.1794 -0.2523 -0.1866
48933SOL    HW153660   1.714   5.751   5.504 -0.1786 -1.6040 -2.9701
48933SOL    HW253661   1.591   5.815   5.442  0.0601  0.3463 -1.5579
48934SOL     OW53662   5.061   8.891   7.135 -0.1005  0.0956  0.2321
48934SOL    HW153663   4.982   8.945   7.127 -0.4028 -0.2551  0.7621
48934SOL    HW253664   5.028   8.801   7.136  0.3216 -0.0593  0.3050
48935SOL     OW53665   7.777  12.143   5.795 -0.4001 -0.2402  0.4650
48935SOL    HW153666   7.758  12.110   5.707  0.9612 -2.0726  0.8092
48935SOL    HW253667   7.692  12.171   5.829 -0.7324  2.6054 -2.1601
48936SOL     OW53668   2.809   6.772   3.393  0.0257 -0.1710  0.3760
48936SOL    HW153669   2.889   6.724   3.373  0.5858  1.1767 -0.7945
48936SOL    HW253670   2.830   6.864   3.374 -1.9713  0.1554 -0.6150
48937SOL     OW53671   8.573   8.891   4.340  0.3059 -0.0305 -0.3631
48937SOL    HW153672   8.569   8.967   4.281 -2.4305 -0.0989 -0.3962
48937SOL    HW253673   8.481   8.864   4.351  1.0023 -1.9489  1.4673
48938SOL     OW53674  10.736  12.070   1.979  0.5323 -0.2257 -0.3766
48938SOL    HW153675  10.806  12.042   2.038  0.6939 -0.7515 -0.7965
48938SOL    HW253676  10.775  12.140   1.927  0.8559 -0.7138 -0.8086
48939SOL     OW53677  10.618   1.254  11.841 -0.6230 -0.5370 -0.0554
48939SOL    HW153678  10.529   1.289  11.845 -0.5204  0.1819 -2.4732
48939SOL    HW253679  10.672   1.317  11.888 -0.7697  1.6220 -2.5382
48940SOL     OW53680   9.844   9.531   2.965  0.0702  0.2585  0.2805
48940SOL    HW153681   9.785   9.495   2.899 -0.1392  1.2346 -0.0911
48940SOL    HW253682   9.931   9.523   2.926 -0.0484  0.7918 -0.1094
48941SOL     OW53683   2.158   2.522   0.718  0.1509 -0.1937 -0.6043
48941SOL    HW153684   2.147   2.531   0.812  1.4609 -0.7322 -0.3707
48941SOL    HW253685   2.107   2.444   0.695  0.7551 -0.7399 -0.1336
48942SOL     OW53686   9.562  12.467   5.078 -0.2378 -0.0110 -0.0064
48942SOL    HW153687   9.655  12.485   5.063 -0.0794 -0.5790  0.2519
48942SOL    HW253688   9.527  12.447   4.991 -0.1479  0.3250 -0.1212
48943SOL     OW53689   7.095  12.411  11.752 -0.1473 -0.1209 -0.3115
48943SOL    HW153690   7.037  12.355  11.804 -0.1275 -0.1912 -0.3648
48943SOL    HW253691   7.058  12.499  11.761 -0.9123 -0.3260 -1.2345
48944SOL     OW53692   9.517  12.310  10.494  0.1623  0.1143  0.0453
48944SOL    HW153693   9.566  12.390  10.480 -0.4764  0.2954 -1.2943
48944SOL    HW253694   9.519  12.297  10.589  0.1155  1.8180  0.3138
48945SOL     OW53695   7.598  11.268  11.166 -0.4918  0.4805  0.2151
48945SOL    HW153696   7.625  11.258  11.257 -0.6472  0.5631  0.2691
48945SOL    HW253697   7.679  11.291  11.120 -0.6131  1.5374  0.5102
48946SOL     OW53698   7.340  12.389   8.476 -0.0581  0.7218  0.3335
48946SOL    HW153699   7.280  12.457   8.508  0.5278  1.3127  0.1932
48946SOL    HW253700   7.367  12.420   8.390  1.7714  1.3332  1.0793
48947SOL     OW53701   4.177   1.845   8.144 -0.1066 -0.0618 -0.2847
48947SOL    HW153702   4.100   1.800   8.178 -1.7690  0.8224 -2.6039
48947SOL    HW253703   4.174   1.932   8.184  1.3256 -0.8957  1.7634
48948SOL     OW53704   6.882   9.426   0.242 -0.0447  0.6075  0.4943
48948SOL    HW153705   6.908   9.505   0.195 -0.1961 -0.2886 -1.1611
48948SOL    HW253706   6.788   9.417   0.225  0.1305 -0.3675 -0.0351
48949SOL     OW53707   6.451   7.180   3.657  0.7180  0.1813  0.1091
48949SOL    HW153708   6.377   7.146   3.606  1.0676  1.7988 -1.6094
48949SOL    HW253709   6.413   7.249   3.711  0.7074 -0.1273  0.5027
48950SOL     OW53710   2.031   7.447  11.808 -0.0111  0.2693 -0.1063
48950SOL    HW153711   2.017   7.439  11.902  1.1559 -2.3626 -0.0709
48950SOL    HW253712   2.116   7.490  11.799  0.6037 -0.8679  0.1141
48951SOL     OW53713   8.048  10.512   8.058  0.2416 -0.3224 -0.0531
48951SOL    HW153714   8.064  10.488   7.967  0.7009  1.1970 -0.4078
48951SOL    HW253715   7.953  10.528   8.063 -0.2732 -3.0635  0.4576
48952SOL     OW53716   7.270   9.478   7.068  0.0391 -0.0691  0.0002
48952SOL    HW153717   7.281   9.397   7.019 -2.6278 -0.6444  0.1723
48952SOL    HW253718   7.275   9.451   7.160 -2.2536 -0.3843  0.0915
48953SOL     OW53719   9.630   0.621   9.265 -0.3255  1.2173 -0.1018
48953SOL    HW153720   9.559   0.673   9.302 -1.4838  0.1036 -0.6772
48953SOL    HW253721   9.600   0.599   9.177  0.7687  0.7774 -0.3844
48954SOL     OW53722   6.044   8.058   8.031  0.2326  0.4904 -0.0413
48954SOL    HW153723   5.980   8.122   8.063  2.9368  1.8925  3.2181
48954SOL    HW253724   6.106   8.110   7.980 -0.5903 -0.6660 -2.3068
48955SOL     OW53725   4.411   9.712   3.837 -0.4326 -0.0906 -0.1860
48955SOL    HW153726   4.355   9.773   3.789 -1.9126  0.7132  2.3224
48955SOL    HW253727   4.349   9.653   3.881  0.7374 -0.1366  1.4877
48956SOL     OW53728   2.277   1.627  11.280  0.3784  0.4311 -0.9732
48956SOL    HW153729   2.221   1.565  11.233  0.3603 -0.2415 -0.0910
48956SOL    HW253730   2.252   1.712  11.245 -1.8125  0.2380 -0.0457
48957SOL     OW53731   3.180   9.741   2.996  0.4599 -0.0579 -0.3594
48957SOL    HW153732   3.158   9.653   3.025 -0.9785  0.3516 -0.1144
48957SOL    HW253733   3.273   9.738   2.977  0.4826 -1.5558 -0.0962
48958SOL     OW53734   5.697   1.460  10.154 -0.3367  0.2078  0.3479
48958SOL    HW153735   5.786   1.427  10.153 -0.3296  0.0456  2.3589
48958SOL    HW253736   5.663   1.440  10.067  1.1352 -0.9623  0.0032
48959SOL     OW53737   1.322  11.367  11.026  0.2190 -0.2107 -0.4099
48959SOL    HW153738   1.346  11.302  11.092 -0.7006 -1.9179 -1.6694
48959SOL    HW253739   1.226  11.363  11.023  0.2089  0.4556 -1.2524
48960SOL     OW53740  11.316   0.912   7.521 -0.4306  0.3707  0.2885
48960SOL    HW153741  11.367   0.990   7.501  0.0460  0.1671  0.6779
48960SOL    HW253742  11.240   0.916   7.462  1.2767 -0.5745 -2.1714
48961SOL     OW53743   6.697   1.247   6.939  0.5511 -0.5936  0.3551
48961SOL    HW153744   6.672   1.296   6.861  0.9206  1.2521  1.3352
48961SOL    HW253745   6.761   1.184   6.908 -1.2537 -1.7430 -1.2565
48962SOL     OW53746   6.369  11.212  10.437 -0.6548  0.2651 -0.0511
48962SOL    HW153747   6.338  11.251  10.519  2.8451 -1.3265  2.2661
48962SOL    HW253748   6.338  11.272  10.369 -0.0039  4.2260  2.7793
48963SOL     OW53749   5.059  10.945   4.815  0.4927  0.4841  0.3511
48963SOL    HW153750   5.032  10.962   4.725  1.3901 -0.2933 -0.0804
48963SOL    HW253751   5.149  10.913   4.808  0.5332  0.2908  1.5138
48964SOL     OW53752   9.012   2.547   6.676  0.1288  0.3096  0.0393
48964SOL    HW153753   9.081   2.481   6.683  0.7691  1.1251  2.2466
48964SOL    HW253754   8.939   2.509   6.724 -0.6358 -0.0881 -1.3800
48965SOL     OW53755   2.115   4.545  11.764  0.0041 -0.4140  0.1713
48965SOL    HW153756   2.022   4.530  11.781 -0.0007 -0.6369 -0.0546
48965SOL    HW253757   2.120   4.635  11.733 -0.1958 -0.5572 -0.2775
48966SOL     OW53758   9.024   1.527   6.731  0.2337  0.0271 -0.0837
48966SOL    HW153759   8.937   1.561   6.713  0.0151 -0.6444 -0.3042
48966SOL    HW253760   9.048   1.565   6.816 -0.0816  0.5679 -0.2310
48967SOL     OW53761   3.847   6.192   0.403 -0.0531 -0.2888 -0.3947
48967SOL    HW153762   3.913   6.191   0.472 -0.8854 -1.1076  0.4120
48967SOL    HW253763   3.862   6.275   0.357  0.8576  0.0208  0.4197
48968SOL     OW53764   0.619   7.469   2.890  0.0776  0.1492 -0.4399
48968SOL    HW153765   0.687   7.483   2.956 -1.4541 -0.5117  1.3702
48968SOL    HW253766   0.654   7.399   2.835  0.8149 -0.2841  0.5369
48969SOL     OW53767   4.798  11.765   4.581 -0.2238  0.4289 -0.3162
48969SOL    HW153768   4.793  11.682   4.629  0.1672 -0.2313 -1.3584
48969SOL    HW253769   4.764  11.743   4.494  0.1296  1.3028 -0.6807
48970SOL     OW53770  11.141   2.819   9.322  0.1549 -0.3912 -0.4757
48970SOL    HW153771  11.215   2.769   9.289 -0.6869 -1.1632 -1.2402
48970SOL    HW253772  11.178   2.904   9.345  1.2979 -0.8099 -0.7150
48971SOL     OW53773   8.847   8.197  10.453 -0.0380  0.5393 -0.2558
48971SOL    HW153774   8.940   8.181  10.471 -0.1830 -0.2561 -0.1503
48971SOL    HW253775   8.842   8.290  10.431  0.7065  0.7025  0.2296
48972SOL     OW53776  11.670   2.646   1.422  0.2146 -0.2799 -0.2502
48972SOL    HW153777  11.627   2.662   1.338  0.1116  2.0652  0.1840
48972SOL    HW253778  11.761   2.671   1.408 -0.2733  2.5421  0.8741
48973SOL     OW53779   2.164   0.909   0.094 -0.1512 -0.1916  0.2086
48973SOL    HW153780   2.072   0.927   0.112 -0.1188 -1.0747  1.2871
48973SOL    HW253781   2.193   0.854   0.166  1.4080  0.6077  0.2395
48974SOL     OW53782  11.165   5.869   4.369 -0.4682  0.1719  0.4104
48974SOL    HW153783  11.158   5.788   4.419  0.6465 -1.5110 -1.9764
48974SOL    HW253784  11.251   5.904   4.392 -0.3931 -0.0196  0.4182
48975SOL     OW53785   9.958  11.892  10.314  0.1433  0.2093  0.0542
48975SOL    HW153786   9.916  11.844  10.385 -0.5330  1.6992  0.7272
48975SOL    HW253787   9.918  11.857  10.234  2.2080 -2.7645  0.1655
48976SOL     OW53788   1.379   8.714  10.592  0.1721 -0.4995  0.2074
48976SOL    HW153789   1.310   8.754  10.539 -0.3386 -2.5014 -0.7379
48976SOL    HW253790   1.348   8.722  10.683 -0.3821  0.2841 -0.0413
48977SOL     OW53791   9.006   0.373   5.470  0.2945 -0.1594  0.6978
48977SOL    HW153792   9.086   0.368   5.418  0.7556  0.2181  1.3495
48977SOL    HW253793   9.018   0.307   5.539  0.1784  0.0916  0.9628
48978SOL     OW53794   9.435   0.306   4.536 -0.0599 -0.5072 -0.6288
48978SOL    HW153795   9.467   0.374   4.594 -1.1896 -1.0576  0.7064
48978SOL    HW253796   9.456   0.337   4.448  1.2616  0.5798  0.0373
48979SOL     OW53797   7.150  11.510   6.089 -0.1487 -0.5412  0.3402
48979SOL    HW153798   7.139  11.429   6.040  0.3074  0.5269 -1.6525
48979SOL    HW253799   7.192  11.570   6.027 -0.1782  1.1177  1.8418
48980SOL     OW53800   5.149   5.329   4.516 -0.2881  0.5760 -0.4914
48980SOL    HW153801   5.191   5.291   4.439 -0.7126  0.2890 -0.5843
48980SOL    HW253802   5.105   5.407   4.483  0.1894  0.8919 -0.3886
48981SOL     OW53803   6.567   8.914   8.526  0.4101 -0.5685  0.3321
48981SOL    HW153804   6.511   8.968   8.470  1.2771  0.3847  0.3473
48981SOL    HW253805   6.523   8.915   8.611 -0.0820 -0.7038  0.0860
48982SOL     OW53806   5.734   3.999   4.484  0.7401  0.4409  0.1083
48982SOL    HW153807   5.801   3.970   4.422  0.2667 -0.9097  0.1858
48982SOL    HW253808   5.778   3.998   4.569 -0.0576 -3.5950  0.6962
48983SOL     OW53809   1.619   8.843   8.632 -0.7688  0.1726  0.1213
48983SOL    HW153810   1.704   8.850   8.675 -1.7608 -1.8666  2.6810
48983SOL    HW253811   1.639   8.839   8.539  1.9035  0.0490  0.6321
48984SOL     OW53812   3.314   5.680   1.008  0.5693 -0.0014  0.7762
48984SOL    HW153813   3.367   5.734   0.949 -0.1842  1.8345  1.7112
48984SOL    HW253814   3.252   5.741   1.048 -1.1807 -1.7986  0.9513
48985SOL     OW53815   3.261   6.304   6.166 -0.3363  0.0561 -0.1089
48985SOL    HW153816   3.225   6.386   6.202  0.9535  1.1460 -1.2114
48985SOL    HW253817   3.349   6.327   6.137  1.0003 -2.3279  1.7294
48986SOL     OW53818   3.396  10.186   3.889  0.1042 -0.0556  0.4133
48986SOL    HW153819   3.432  10.108   3.931  1.4750  0.1324 -0.3543
48986SOL    HW253820   3.358  10.154   3.807  0.4467  0.0445  0.2140
48987SOL     OW53821   6.777   5.204   7.083 -0.2710 -0.0662 -0.0294
48987SOL    HW153822   6.690   5.199   7.121 -0.2919  0.2945 -0.0326
48987SOL    HW253823   6.808   5.292   7.103  0.2865 -0.3535  0.3912
48988SOL     OW53824   0.778   7.465   7.822 -0.0758  0.3361  0.1325
48988SOL    HW153825   0.797   7.455   7.728 -0.7820  1.4059 -0.1397
48988SOL    HW253826   0.728   7.387   7.844 -1.5102  0.9340 -0.8416
48989SOL     OW53827   5.562   1.685   4.933  0.5545 -0.0714 -0.2068
48989SOL    HW153828   5.612   1.766   4.921 -0.7183  0.6518 -0.8343
48989SOL    HW253829   5.566   1.641   4.849  1.2469 -0.6905  0.1351
48990SOL     OW53830   8.173  10.830  12.237  0.5942 -0.1893 -0.1279
48990SOL    HW153831   8.210  10.876  12.161 -0.8168  0.3793 -0.5066
48990SOL    HW253832   8.216  10.870  12.312  0.9336  0.2784 -0.5599
48991SOL     OW53833   9.178   0.261  11.196 -0.4425 -0.0283  0.3165
48991SOL    HW153834   9.167   0.177  11.241 -1.2616 -0.5282 -0.7734
48991SOL    HW253835   9.147   0.326  11.260 -0.2467 -0.5894  0.9968
48992SOL     OW53836   2.400  11.111   9.405 -0.8540  0.3820 -0.3282
48992SOL    HW153837   2.460  11.064   9.347 -2.6009 -1.6896 -0.6300
48992SOL    HW253838   2.355  11.041   9.454 -1.8357  1.9092  1.0629
48993SOL     OW53839   8.464   6.691   3.292  0.5500 -0.0824 -0.2185
48993SOL    HW153840   8.464   6.654   3.380 -0.9820 -0.7787 -0.4828
48993SOL    HW253841   8.481   6.785   3.305 -0.6923  0.0059  0.9095
48994SOL     OW53842   8.117   2.561   1.488 -0.1476  0.4702 -0.1663
48994SOL    HW153843   8.206   2.596   1.496 -0.0377  0.5858 -1.6242
48994SOL    HW253844   8.130   2.470   1.461 -0.4526  0.6376 -0.9123
48995SOL     OW53845   3.731   2.434   3.039 -0.0664 -0.9698 -0.5211
48995SOL    HW153846   3.677   2.391   3.106  0.6308 -0.4053  0.4309
48995SOL    HW253847   3.775   2.362   2.995 -0.1587 -1.3347 -0.0341
48996SOL     OW53848   2.308   9.537   7.322 -0.1955  0.0973 -0.6167
48996SOL    HW153849   2.314   9.633   7.330  1.2357 -0.0865  1.0830
48996SOL    HW253850   2.216   9.517   7.341 -0.5257  1.1179 -1.0539
48997SOL     OW53851   8.186   8.927   1.660  0.0973  0.4118  0.6859
48997SOL    HW153852   8.155   8.983   1.589 -0.6360 -1.2402 -0.3430
48997SOL    HW253853   8.265   8.971   1.691 -0.0431  1.6346 -0.5606
48998SOL     OW53854   5.540  11.075   0.086 -0.0334 -0.4223 -0.0111
48998SOL    HW153855   5.523  11.099   0.177  0.3328  1.1455 -0.3132
48998SOL    HW253856   5.564  11.158   0.044  0.7434 -1.2663 -1.3181
48999SOL     OW53857   1.710   7.440   5.026  0.3716  0.2098  0.3347
48999SOL    HW153858   1.705   7.403   5.114  0.7815  0.9776  0.6870
48999SOL    HW253859   1.623   7.425   4.988  0.6279 -1.4400  0.3164
49000SOL     OW53860  10.549  12.267   9.559 -0.2189  0.3479  0.2178
49000SOL    HW153861  10.520  12.201   9.622 -0.8178 -0.5914 -1.0074
49000SOL    HW253862  10.613  12.319   9.607 -2.2624  1.1074  2.3408
49001SOL     OW53863   4.679   6.815   6.184  0.1506 -0.1097  0.7775
49001SOL    HW153864   4.746   6.772   6.132  1.8050  1.4291  1.5089
49001SOL    HW253865   4.647   6.748   6.244  0.3101 -1.1253 -0.2517
49002SOL     OW53866   2.741  12.394   0.118 -0.0856 -0.0908 -0.1031
49002SOL    HW153867   2.746  12.483   0.153 -0.1878 -0.4451  0.8190
49002SOL    HW253868   2.780  12.401   0.031  2.0651  0.4043  0.8248
49003SOL     OW53869   5.834  10.741   1.134 -0.1831 -0.0828  0.9693
49003SOL    HW153870   5.809  10.764   1.045 -0.5391 -0.4807  0.9681
49003SOL    HW253871   5.754  10.708   1.174  0.3046 -1.2512  1.0005
49004SOL     OW53872   3.263   3.707   5.157 -0.2944  0.2310 -0.0365
49004SOL    HW153873   3.325   3.649   5.201  0.9373  1.4174 -0.1297
49004SOL    HW253874   3.229   3.763   5.227  0.4687  1.0710 -0.3156
49005SOL     OW53875   0.391  10.201   7.964  0.2428 -0.6650  0.3097
49005SOL    HW153876   0.319  10.140   7.980 -1.1584  0.6383 -0.7543
49005SOL    HW253877   0.349  10.279   7.929  2.0137  0.8134  1.2908
49006SOL     OW53878   9.266   0.710   9.245  0.4103 -0.3088  0.0461
49006SOL    HW153879   9.250   0.664   9.162 -0.9868  0.9677 -0.4263
49006SOL    HW253880   9.305   0.643   9.302  1.2656 -1.2504 -1.5718
49007SOL     OW53881  11.457   4.139   1.440  0.3530  0.1225  0.2161
49007SOL    HW153882  11.493   4.122   1.353  0.3041  1.3001 -0.0481
49007SOL    HW253883  11.524   4.108   1.500  0.8410  0.2405 -0.2562
49008SOL     OW53884   9.803   7.902   1.844 -0.4155 -0.4315 -0.3940
49008SOL    HW153885   9.726   7.895   1.901  0.7649  0.7192  1.4517
49008SOL    HW253886   9.776   7.861   1.762 -2.3459 -1.7809  0.8374
49009SOL     OW53887   6.076   4.653   5.952  0.1066  0.4932  0.5628
49009SOL    HW153888   6.127   4.710   5.894 -0.4291  1.3523  0.9199
49009SOL    HW253889   5.988   4.654   5.915  0.4994 -1.7346 -0.6014
49010SOL     OW53890  10.942   2.980   7.908  0.1448  0.0042  0.3759
49010SOL    HW153891  10.858   3.024   7.893 -0.0587 -0.3446  0.4742
49010SOL    HW253892  10.989   2.990   7.825  0.1071  0.4176  0.4021
49011SOL     OW53893   7.847   0.600   2.534 -0.6039  0.4141 -0.8545
49011SOL    HW153894   7.804   0.607   2.619 -0.3878  0.6616 -0.7633
49011SOL    HW253895   7.940   0.604   2.554 -0.5537  2.0241 -1.2117
49012SOL     OW53896   0.417   5.304   2.066 -0.2236 -0.2312  0.1726
49012SOL    HW153897   0.404   5.216   2.102  2.6190 -0.3248  1.2261
49012SOL    HW253898   0.342   5.354   2.099 -1.2101 -1.9183  0.6372
49013SOL     OW53899   8.789   6.993  12.179 -0.1870  0.8977  0.4809
49013SOL    HW153900   8.809   6.903  12.156  0.6047  1.1997 -0.0360
49013SOL    HW253901   8.699   7.006  12.147 -0.7522 -0.0414  1.6014
49014SOL     OW53902   0.240   3.562   1.294  0.0908  0.4955  0.4363
49014SOL    HW153903   0.246   3.655   1.316  1.8095  0.7476 -0.9047
49014SOL    HW253904   0.185   3.559   1.215  0.6519  0.4670  0.0413
49015SOL     OW53905  10.458  10.986   2.274 -0.2534 -0.6093 -0.2202
49015SOL    HW153906  10.542  11.026   2.296 -0.9781  0.6968  0.2783
49015SOL    HW253907  10.439  11.016   2.185 -0.3949 -0.5447 -0.1691
49016SOL     OW53908   6.057   9.712   9.168 -0.1774 -0.6100  0.0229
49016SOL    HW153909   6.123   9.738   9.233  1.8355 -0.7167 -1.8449
49016SOL    HW253910   6.030   9.795   9.128 -0.3585 -0.6539  0.0577
49017SOL     OW53911  12.005  12.157  11.260 -0.0512 -0.4683  0.1476
49017SOL    HW153912  12.065  12.170  11.187 -0.6778  1.7150 -0.0405
49017SOL    HW253913  12.057  12.176  11.338 -0.4380  1.5449 -0.0208
49018SOL     OW53914  10.396   8.807   5.388 -0.1492  0.1268 -0.1863
49018SOL    HW153915  10.423   8.798   5.479  0.0981  1.8298 -0.0620
49018SOL    HW253916  10.342   8.886   5.386  0.2073  0.3709 -1.5914
49019SOL     OW53917   3.699   8.129  11.392 -0.2975  0.0637  0.2373
49019SOL    HW153918   3.719   8.036  11.380 -0.9773 -0.0025 -0.4021
49019SOL    HW253919   3.784   8.168  11.414  0.5244 -0.2785 -2.0709
49020SOL     OW53920  10.217   2.133   3.062 -0.2107  0.2591 -0.2130
49020SOL    HW153921  10.254   2.193   3.126 -0.1435  0.8418 -0.7892
49020SOL    HW253922  10.253   2.048   3.086  0.0345  0.5156  0.3506
49021SOL     OW53923   0.336  10.301   3.339 -0.3190 -0.3850  0.5568
49021SOL    HW153924   0.381  10.236   3.285 -0.4763 -0.1235  0.1039
49021SOL    HW253925   0.331  10.379   3.284 -0.7287 -0.1995  0.8462
49022SOL     OW53926   2.315   2.804   5.250 -0.0696 -0.0207 -0.7269
49022SOL    HW153927   2.311   2.741   5.322 -0.9468  2.0824  1.1890
49022SOL    HW253928   2.266   2.763   5.179  0.4587 -1.9862 -0.0108
49023SOL     OW53929   6.928   4.301   1.581  0.1285 -0.3653  0.3464
49023SOL    HW153930   6.911   4.327   1.672  0.1564  1.1735 -0.0520
49023SOL    HW253931   6.951   4.208   1.586 -1.5688 -0.7533  1.6995
49024SOL     OW53932   4.289   5.395  10.577 -0.3065 -0.1583  0.7219
49024SOL    HW153933   4.383   5.396  10.558 -0.4779 -2.1281 -0.4991
49024SOL    HW253934   4.255   5.475  10.537  0.6927  0.0701  0.3089
49025SOL     OW53935   5.341   6.453   6.065  0.0673  0.2172  0.3358
49025SOL    HW153936   5.311   6.469   6.155  0.7525 -1.8731  0.9888
49025SOL    HW253937   5.423   6.502   6.059 -0.0753  0.5251  0.7853
49026SOL     OW53938   8.514   4.080   1.574  0.1758  0.4544  0.6715
49026SOL    HW153939   8.453   4.016   1.538 -0.3483  1.8105 -0.9892
49026SOL    HW253940   8.600   4.039   1.563 -0.0079  0.5711 -1.7382
49027SOL     OW53941  10.359   0.114   6.396  0.4789 -0.1926  0.2370
49027SOL    HW153942  10.419   0.100   6.322 -0.8368 -1.8191 -0.5966
49027SOL    HW253943  10.310   0.032   6.402 -1.5176  1.0016  0.9954
49028SOL     OW53944   7.786   1.089   9.451 -0.2162  0.0528 -0.3820
49028SOL    HW153945   7.756   1.071   9.540  1.3104 -1.2633 -0.1000
49028SOL    HW253946   7.874   1.125   9.461 -0.0389 -0.0779 -1.3445
49029SOL     OW53947   5.345   2.388   8.414  0.0154  0.1100  0.1501
49029SOL    HW153948   5.278   2.354   8.356  0.2809 -1.8770  0.9119
49029SOL    HW253949   5.335   2.483   8.410 -0.3915  0.0140 -2.5754
49030SOL     OW53950  10.177   6.239  12.401 -0.3188  0.2059  0.0208
49030SOL    HW153951  10.262   6.228  12.442  0.1949 -2.4699 -1.5494
49030SOL    HW253952  10.195   6.249  12.308 -1.7102 -0.8982 -0.4091
49031SOL     OW53953   7.947   4.132   1.311 -0.3294  0.0130 -0.3696
49031SOL    HW153954   7.935   4.203   1.374 -2.0457 -0.6985  0.1611
49031SOL    HW253955   8.006   4.071   1.355  1.7710  1.3902 -1.1220
49032SOL     OW53956   3.743   8.299   0.391 -0.3418 -0.2985  0.1580
49032SOL    HW153957   3.755   8.206   0.371  3.1990  0.6690 -3.3959
49032SOL    HW253958   3.678   8.329   0.327  1.5858  0.3291 -1.6232
49033SOL     OW53959   9.055  12.058   3.930 -0.5122 -0.4451  0.0059
49033SOL    HW153960   9.052  12.097   4.017 -1.9707 -0.4099 -0.0398
49033SOL    HW253961   9.131  12.099   3.888 -0.0456 -0.1472  1.0978
49034SOL     OW53962   1.434  10.584   1.837 -0.2628  0.3286  0.0122
49034SOL    HW153963   1.445  10.526   1.761 -0.5774 -1.1188  1.0275
49034SOL    HW253964   1.351  10.558   1.875 -0.8858  2.1372 -0.0218
49035SOL     OW53965   5.723   4.869   6.381 -0.1496 -0.0346  0.0895
49035SOL    HW153966   5.748   4.820   6.302 -0.9114  0.3275 -0.3965
49035SOL    HW253967   5.786   4.940   6.386  0.2462 -0.3865  0.1284
49036SOL     OW53968   1.243   9.509   1.063  0.1615  0.0165  0.1387
49036SOL    HW153969   1.160   9.513   1.015  0.2288 -0.3670 -0.0112
49036SOL    HW253970   1.221   9.468   1.146  0.1260  0.2919  0.2678
49037SOL     OW53971   3.583   5.589   4.336 -0.0763  0.3302  0.6499
49037SOL    HW153972   3.555   5.503   4.306  0.7466  0.8665 -1.8664
49037SOL    HW253973   3.505   5.644   4.329 -0.2314  0.1444  0.8748
49038SOL     OW53974   6.806   0.843   8.668 -0.6245  0.2842 -0.1424
49038SOL    HW153975   6.869   0.791   8.719 -0.1551 -0.4172 -1.3856
49038SOL    HW253976   6.756   0.778   8.619  0.5629  0.9718 -2.4056
49039SOL     OW53977   4.955   6.400   3.613 -0.5938  0.1157 -0.3509
49039SOL    HW153978   4.942   6.366   3.525  2.1142 -3.4054  0.3870
49039SOL    HW253979   4.898   6.347   3.669 -0.0271  0.1693  0.3020
49040SOL     OW53980   6.548   7.573   4.789  0.0086 -0.5947  0.0655
49040SOL    HW153981   6.496   7.581   4.869 -1.2732 -2.1663 -0.5455
49040SOL    HW253982   6.601   7.494   4.802  0.5256 -0.3084 -0.2553
49041SOL     OW53983  11.887   2.585   3.846  0.0282  0.0683  0.1975
49041SOL    HW153984  11.883   2.618   3.757 -0.1950 -0.4348  0.0200
49041SOL    HW253985  11.980   2.592   3.870  0.2590 -0.7731 -0.4466
49042SOL     OW53986   3.018   0.653  10.841 -0.0838  0.1609  0.0396
49042SOL    HW153987   3.109   0.672  10.861  0.0027  0.5883 -0.7371
49042SOL    HW253988   3.005   0.563  10.871  0.9318 -0.3289 -0.9423
49043SOL     OW53989   0.661  10.615   6.956  0.1338  0.0710  0.4779
49043SOL    HW153990   0.639  10.553   7.026 -0.7107 -0.1215  0.0522
49043SOL    HW253991   0.717  10.565   6.897  0.5712  0.1325  0.8305
49044SOL     OW53992  12.267  10.560   6.431  0.5774  0.5657  0.0755
49044SOL    HW153993  12.192  10.618   6.443 -0.0206 -0.3741  1.0371
49044SOL    HW253994  12.229  10.476   6.408  1.2831 -0.0708  1.1298
49045SOL     OW53995  10.994   5.117   6.021 -0.5425  1.0623  0.0365
49045SOL    HW153996  11.071   5.098   6.073 -0.0281 -1.5326 -1.5227
49045SOL    HW253997  11.010   5.205   5.985  0.5140  1.5624  1.6498
49046SOL     OW53998   2.590   4.104  10.167  0.0682  0.3958 -0.5779
49046SOL    HW153999   2.535   4.181  10.154  0.8829  0.7865 -1.8139
49046SOL    HW254000   2.654   4.130  10.232  1.9716  1.7037 -2.8267
49047SOL     OW54001  11.363   2.514   4.414  0.0127 -0.7238 -0.0605
49047SOL    HW154002  11.325   2.600   4.395  0.5018 -0.8934 -2.0644
49047SOL    HW254003  11.288   2.456   4.424 -0.3305 -0.5915 -1.5793
49048SOL     OW54004   8.674   2.430   0.982 -0.6104  0.0005 -0.5028
49048SOL    HW154005   8.728   2.381   0.920  1.4074  0.9247  0.4444
49048SOL    HW254006   8.610   2.476   0.927 -0.2519 -0.8908 -1.7001
49049SOL     OW54007  11.592   0.160   3.571 -0.4129  0.2424  0.1699
49049SOL    HW154008  11.592   0.168   3.475 -0.4597 -0.1255  0.1370
49049SOL    HW254009  11.521   0.099   3.589 -0.0897 -0.0650  0.4059
49050SOL     OW54010   1.186   6.942   4.092  0.2775 -0.0613 -0.0336
49050SOL    HW154011   1.198   7.016   4.151  0.1628  1.0995 -1.3972
49050SOL    HW254012   1.243   6.873   4.126  0.3080  0.6113  1.3161
49051SOL     OW54013   0.437   4.147   9.641 -0.2924  0.4201  0.7384
49051SOL    HW154014   0.365   4.127   9.701  0.4682 -1.5576  1.0717
49051SOL    HW254015   0.501   4.194   9.694 -0.0590 -0.4475  1.2413
49052SOL     OW54016   5.166   3.375   1.141  0.1018  0.7698  0.0536
49052SOL    HW154017   5.255   3.390   1.174  0.8515 -2.7287  0.0143
49052SOL    HW254018   5.130   3.308   1.199 -1.8915  0.8814 -0.9782
49053SOL     OW54019   8.399   0.652   4.060 -0.6999 -0.8009 -0.5113
49053SOL    HW154020   8.403   0.607   3.976  0.2567 -1.8349  0.0643
49053SOL    HW254021   8.371   0.585   4.122  0.8163 -0.6648  0.3692
49054SOL     OW54022   0.778  11.886  12.481  0.1693 -0.3772 -0.1648
49054SOL    HW154023   0.801  11.864  12.391  1.3244  0.5974 -0.1265
49054SOL    HW254024   0.840  11.837  12.535 -0.2462 -0.6239  0.1002
49055SOL     OW54025  10.152   1.997   6.503 -0.4043  0.1235  0.4778
49055SOL    HW154026  10.221   1.952   6.455 -0.4366 -0.9521  1.4091
49055SOL    HW254027  10.195   2.075   6.539 -0.2097  0.5684 -0.6819
49056SOL     OW54028  12.168   2.030   6.336  0.2588  0.0996  0.0460
49056SOL    HW154029  12.143   2.023   6.429  1.4496  0.5181  0.4167
49056SOL    HW254030  12.238   1.965   6.325  1.6125  1.5015  0.0038
49057SOL     OW54031   8.679  12.460   8.131  0.0137 -0.0244 -0.1646
49057SOL    HW154032   8.668  12.551   8.157 -0.7839 -0.5317  1.3815
49057SOL    HW254033   8.593  12.420   8.144  0.6410 -1.2686  0.3960
49058SOL     OW54034   1.095   0.423   4.614  0.3206 -0.2179  0.3783
49058SOL    HW154035   1.141   0.340   4.620 -0.1244 -0.4096  1.4374
49058SOL    HW254036   1.004   0.401   4.639 -0.1520  0.2998 -0.8269
49059SOL     OW54037   4.708   4.497  10.727  0.1106  0.2809  0.0651
49059SOL    HW154038   4.679   4.521  10.815  2.0779 -4.2262  2.2918
49059SOL    HW254039   4.803   4.489  10.735  0.1524 -2.2437 -1.8326
49060SOL     OW54040   9.940   6.125   3.679  0.1173  0.0379  0.8889
49060SOL    HW154041   9.959   6.125   3.585 -1.0802  1.8326  0.5948
49060SOL    HW254042   9.849   6.096   3.684 -0.8195  2.7810  1.1751
49061SOL     OW54043   6.072  10.185   0.509  0.4234 -0.4339 -0.0324
49061SOL    HW154044   6.164  10.196   0.532  0.2598  2.6108 -0.4590
49061SOL    HW254045   6.073  10.160   0.416  0.8217  0.3863 -0.2555
49062SOL     OW54046   9.167   0.452  11.396 -0.3162 -0.0637 -0.0033
49062SOL    HW154047   9.171   0.538  11.356  1.7867 -0.7801 -1.4774
49062SOL    HW254048   9.201   0.464  11.484  2.6952  0.1930 -1.1153
49063SOL     OW54049   7.262  10.745   2.198  0.5000  0.3611  0.1232
49063SOL    HW154050   7.179  10.722   2.239  0.0483 -2.3114 -2.0168
49063SOL    HW254051   7.238  10.806   2.129  0.3661 -0.0546 -0.2006
49064SOL     OW54052   3.425   4.031   6.479  0.0026  0.0066 -0.2490
49064SOL    HW154053   3.403   3.939   6.496 -0.5920  0.0520 -0.7234
49064SOL    HW254054   3.504   4.027   6.425  1.2374 -0.1624  1.4928
49065SOL     OW54055  11.200  11.830   5.738 -0.1896 -0.2305 -0.4865
49065SOL    HW154056  11.191  11.743   5.777 -0.1290 -0.1635 -0.3226
49065SOL    HW254057  11.151  11.824   5.655  0.0453 -0.5008 -0.6089
49066SOL     OW54058   1.331   4.739   7.147  0.3211  0.5002  0.0924
49066SOL    HW154059   1.320   4.811   7.209 -1.7007  0.0932  0.2665
49066SOL    HW254060   1.270   4.671   7.177  1.5172 -0.9335 -0.5921
49067SOL     OW54061  11.742   1.987   6.182  0.3671  0.4075 -0.0505
49067SOL    HW154062  11.752   2.077   6.152  1.0366  1.0399  1.9254
49067SOL    HW254063  11.831   1.955   6.195  0.1472 -0.6365 -0.9165
49068SOL     OW54064   1.920   2.197   2.037  0.0162 -0.1891  0.0342
49068SOL    HW154065   1.909   2.291   2.028  0.3708 -0.2406 -1.1523
49068SOL    HW254066   1.914   2.180   2.131 -0.4828  0.9539  0.2170
49069SOL     OW54067   5.223   7.998   1.539  0.4875  0.2204 -0.0472
49069SOL    HW154068   5.185   8.084   1.560  0.3910  0.6663 -1.9231
49069SOL    HW254069   5.177   7.938   1.598  2.0674  1.6528  2.9061
49070SOL     OW54070   6.223   1.142  12.242  0.4922  0.0896 -0.2547
49070SOL    HW154071   6.211   1.055  12.204 -1.1382 -1.4222  3.2520
49070SOL    HW254072   6.312   1.141  12.278  0.8311  0.2591 -1.0834
49071SOL     OW54073  10.695   2.926   0.663  0.2700  0.7794  0.0924
49071SOL    HW154074  10.623   2.959   0.716 -0.5414 -0.6722 -0.0476
49071SOL    HW254075  10.712   2.838   0.698 -0.1313 -0.1246 -1.8352
49072SOL     OW54076  10.693   1.790   7.782  0.1000 -0.1984 -0.3192
49072SOL    HW154077  10.661   1.712   7.738  0.7557  0.0576 -1.2690
49072SOL    HW254078  10.630   1.858   7.761 -0.0900 -0.2948 -0.0729
49073SOL     OW54079   9.644   9.070   3.197 -0.4250  0.4255 -0.1559
49073SOL    HW154080   9.708   9.066   3.126 -1.1958 -0.6281 -0.8225
49073SOL    HW254081   9.575   9.009   3.171  0.1566 -1.4985  2.3560
49074SOL     OW54082   3.489   8.033   2.936 -0.0402 -0.4454  0.1035
49074SOL    HW154083   3.458   8.121   2.957  3.3383  0.2909  3.0252
49074SOL    HW254084   3.450   7.977   3.003 -0.6427 -0.8474 -0.5702
49075SOL     OW54085   8.360   9.555   2.873 -0.4829 -0.1080  0.4545
49075SOL    HW154086   8.299   9.546   2.800 -0.4761  0.9286  0.3110
49075SOL    HW254087   8.350   9.646   2.902  0.7180 -0.0333  0.6827
49076SOL     OW54088   5.875  10.912  11.707  0.2061  0.4112  0.2241
49076SOL    HW154089   5.868  10.993  11.758 -2.6986 -0.5268  1.5647
49076SOL    HW254090   5.818  10.927  11.631  1.1967  0.2811 -0.5633
49077SOL     OW54091   4.363  12.378   5.689  1.1163  0.0915 -0.5126
49077SOL    HW154092   4.402  12.349   5.771 -0.0981  0.3555  0.1978
49077SOL    HW254093   4.413  12.334   5.620 -0.0026 -2.9950  0.4511
49078SOL     OW54094  11.593   9.597   9.816  0.3719 -0.2880 -0.2484
49078SOL    HW154095  11.600   9.636   9.903  0.4861 -1.5055  0.3043
49078SOL    HW254096  11.586   9.672   9.757  3.7725  0.7272  0.4431
49079SOL     OW54097   0.045   8.866   6.697  0.4220 -0.1166 -0.1953
49079SOL    HW154098  -0.018   8.814   6.748  0.1629  0.7112  0.3553
49079SOL    HW254099   0.110   8.894   6.762 -0.1965  1.3929 -0.1840
49080SOL     OW54100   8.298   6.330   3.967 -0.2205  0.1179 -0.0607
49080SOL    HW154101   8.207   6.335   3.998  0.2143 -1.4094  1.6106
49080SOL    HW254102   8.347   6.295   4.041  1.7576  0.8718 -0.9442
49081SOL     OW54103   9.292   7.911   0.291  0.1139  0.5684  0.2286
49081SOL    HW154104   9.378   7.880   0.261 -0.8222 -0.9666 -1.0381
49081SOL    HW254105   9.247   7.831   0.319 -1.0108  1.3012  0.5531
49082SOL     OW54106   2.780   6.608   0.045 -0.5829 -0.3016 -0.3307
49082SOL    HW154107   2.766   6.581  -0.046  0.2849 -0.1222 -0.5273
49082SOL    HW254108   2.695   6.594   0.087 -1.2024  0.2945 -1.3324
49083SOL     OW54109   1.095   6.930   2.907 -0.5356 -0.5013 -0.2177
49083SOL    HW154110   1.052   6.920   2.822 -0.5424 -0.0245 -0.2748
49083SOL    HW254111   1.136   7.016   2.903  1.5485 -1.4624 -0.6388
49084SOL     OW54112   5.397  11.838  10.701  0.1052  0.0082 -0.1078
49084SOL    HW154113   5.365  11.851  10.612 -0.2907 -0.8419 -0.0980
49084SOL    HW254114   5.420  11.926  10.731  1.3448  0.1734 -1.4450
49085SOL     OW54115   7.404   2.465  11.139 -0.0645  0.4640 -0.1380
49085SOL    HW154116   7.362   2.387  11.174 -0.1496  0.8526  0.6483
49085SOL    HW254117   7.492   2.463  11.176  0.2917  0.1869 -0.9722
49086SOL     OW54118   0.035  12.441   1.440 -0.2035 -0.2696 -1.0580
49086SOL    HW154119  -0.059  12.426   1.443 -0.2763  0.3239  0.1985
49086SOL    HW254120   0.071  12.360   1.404 -1.0876 -1.0316 -0.2665
49087SOL     OW54121  10.756   4.149  11.576  0.2958 -0.0565 -0.1433
49087SOL    HW154122  10.689   4.094  11.616 -0.9689  0.6279 -1.2287
49087SOL    HW254123  10.746   4.135  11.482  1.4585  0.3136 -0.3341
49088SOL     OW54124   7.594   9.481  10.545 -0.2434  0.0573  0.1176
49088SOL    HW154125   7.687   9.500  10.532 -0.4512  0.8828 -0.2151
49088SOL    HW254126   7.581   9.487  10.640 -0.0412  0.3332  0.1279
49089SOL     OW54127   6.979   5.655   4.964  0.5579 -0.1674  0.0467
49089SOL    HW154128   6.938   5.579   4.923  1.7484 -0.9814  0.3340
49089SOL    HW254129   7.070   5.652   4.937  0.6851  1.0452  0.2489
49090SOL     OW54130   4.172   6.393   6.114  0.5152 -0.4106 -0.6645
49090SOL    HW154131   4.162   6.485   6.139  0.7136 -0.1924 -1.3883
49090SOL    HW254132   4.242   6.360   6.171  1.5700  0.3158 -1.4944
49091SOL     OW54133   4.199   6.346   4.915  0.3521  0.3856 -0.5738
49091SOL    HW154134   4.289   6.325   4.938  0.0911 -0.6232 -0.4063
49091SOL    HW254135   4.201   6.438   4.887  1.1865  0.7730  0.6909
49092SOL     OW54136   4.251   9.026   8.708  0.1295  0.3231  0.4283
49092SOL    HW154137   4.245   8.932   8.690 -0.3324  0.5495 -0.6295
49092SOL    HW254138   4.179   9.043   8.769  0.6691 -0.1346  1.2160
49093SOL     OW54139   5.365   7.037   4.159 -0.0892 -0.8811 -0.4652
49093SOL    HW154140   5.396   7.089   4.233 -0.2023 -0.4043 -0.7496
49093SOL    HW254141   5.433   6.971   4.147  1.8204  1.2041 -2.1966
49094SOL     OW54142   9.976  11.731   1.783 -0.5224  0.1234  0.0408
49094SOL    HW154143  10.048  11.727   1.846 -0.2034  3.1869  0.0013
49094SOL    HW254144   9.916  11.796   1.819 -1.9578 -0.4289 -1.2515
49095SOL     OW54145   9.814   9.864   1.373  0.2511  0.6536 -0.3019
49095SOL    HW154146   9.872   9.857   1.448 -0.7126  1.2486  0.5297
49095SOL    HW254147   9.732   9.824   1.402 -0.2762  1.2905 -0.8694
49096SOL     OW54148   1.739   9.774   9.817  0.1178  0.2589 -0.2240
49096SOL    HW154149   1.775   9.737   9.898  2.3488  0.2770 -1.1183
49096SOL    HW254150   1.705   9.860   9.843 -2.7657 -1.2009  1.3709
49097SOL     OW54151   8.900   7.458   5.144  0.1140  0.1249 -0.2325
49097SOL    HW154152   8.826   7.399   5.153 -0.0707  0.4343  0.3652
49097SOL    HW254153   8.924   7.453   5.052  0.5679 -1.4293 -0.0537
49098SOL     OW54154   9.779  12.201   3.010  0.3183  0.6293  0.2136
49098SOL    HW154155   9.732  12.268   2.961  1.4923  1.4907  0.2306
49098SOL    HW254156   9.822  12.148   2.942  1.5715  1.5462  0.2578
49099SOL     OW54157   3.987   9.836   1.322  0.0139  0.3194  0.2630
49099SOL    HW154158   4.035   9.874   1.248  1.1454 -0.2087  0.7024
49099SOL    HW254159   3.947   9.911   1.366  0.5949  0.7948 -0.0071
49100SOL     OW54160   5.955   7.807   7.834  0.4763 -0.2684 -0.1803
49100SOL    HW154161   5.872   7.802   7.786 -0.6313 -0.0350  1.6212
49100SOL    HW254162   5.974   7.900   7.839  0.2097 -0.2438  0.4354
49101SOL     OW54163   7.462   0.136   6.735  0.0230  0.0117 -0.1421
49101SOL    HW154164   7.556   0.127   6.750 -0.0427 -0.2977  0.0980
49101SOL    HW254165   7.423   0.122   6.821 -0.2057  0.7559 -0.1235
49102SOL     OW54166   8.886   3.698   3.005  0.1623 -0.2609  0.1037
49102SOL    HW154167   8.906   3.777   2.955 -0.0009  1.4761  2.5855
49102SOL    HW254168   8.961   3.687   3.063 -0.6500 -0.8660  1.0633
49103SOL     OW54169   3.762   9.912  10.080  0.5286 -0.4846  0.2360
49103SOL    HW154170   3.797   9.887   9.995  2.9434 -0.9589  1.2915
49103SOL    HW254171   3.695   9.846  10.098  0.8820 -1.1406 -0.7354
49104SOL     OW54172   7.545   6.480   2.786 -0.0302 -0.8731  0.3242
49104SOL    HW154173   7.484   6.546   2.754  0.4901 -1.1615 -1.3307
49104SOL    HW254174   7.631   6.512   2.760  0.3643 -1.4212  0.9276
49105SOL     OW54175   3.969   8.006   8.073  0.2718  0.4404  0.4006
49105SOL    HW154176   4.058   7.973   8.064 -0.2407 -1.1173  0.8735
49105SOL    HW254177   3.980   8.096   8.105  1.7035  0.9518 -1.3746
49106SOL     OW54178  12.100   8.565   9.194  0.1041 -0.5586 -0.0010
49106SOL    HW154179  12.101   8.520   9.278  1.0174  1.2669  1.0081
49106SOL    HW254180  12.191   8.565   9.166 -0.3684 -2.5684 -1.8537
49107SOL     OW54181   1.354   3.429   2.009  0.3694  0.2506  0.1479
49107SOL    HW154182   1.396   3.343   2.004  2.7877  1.4029 -1.8622
49107SOL    HW254183   1.344   3.446   2.102 -0.4504 -2.2686  0.6048
49108SOL     OW54184   1.129   8.873  10.141 -0.0892  0.1213  0.0254
49108SOL    HW154185   1.217   8.909  10.126 -0.0182 -1.0690 -3.0143
49108SOL    HW254186   1.075   8.950  10.158  1.6620  0.8009  3.6348
49109SOL     OW54187   3.273   9.341   2.679  0.1565 -0.1625 -0.3390
49109SOL    HW154188   3.261   9.346   2.774 -1.1398  1.8634 -0.5396
49109SOL    HW254189   3.287   9.248   2.661  0.7448 -0.5463  1.8535
49110SOL     OW54190   3.522   8.390   6.657  0.3776 -0.4459  0.2788
49110SOL    HW154191   3.496   8.397   6.749  1.4745  1.6604  0.4758
49110SOL    HW254192   3.617   8.405   6.658 -0.0488  3.6820 -1.4942
49111SOL     OW54193   0.756   6.089  11.820  0.3464  0.1954  0.0444
49111SOL    HW154194   0.824   6.023  11.806  0.5962  0.6758 -1.1019
49111SOL    HW254195   0.718   6.066  11.904  1.5041 -0.4607  0.4166
49112SOL     OW54196   8.822   4.419   7.703 -0.1324 -0.1097  0.4828
49112SOL    HW154197   8.847   4.378   7.786  2.2758  1.3279  0.5225
49112SOL    HW254198   8.904   4.440   7.659 -1.2602  2.4894 -0.6244
49113SOL     OW54199   7.822   8.348  10.377  0.1466  0.5011 -0.5631
49113SOL    HW154200   7.769   8.424  10.354  2.3811  2.4259  0.2983
49113SOL    HW254201   7.763   8.293  10.430 -1.7370  1.2132 -1.8216
49114SOL     OW54202   0.244   7.976   6.483 -0.5493 -0.0362  0.1144
49114SOL    HW154203   0.254   8.039   6.412  0.1162  0.9920  1.0829
49114SOL    HW254204   0.324   7.924   6.481 -0.5125  0.0194  0.1301
49115SOL     OW54205   8.663  10.094  11.742 -0.4486 -0.5810 -0.5933
49115SOL    HW154206   8.634  10.139  11.663 -1.3198 -2.8558 -1.6514
49115SOL    HW254207   8.738  10.041  11.714 -1.1432 -1.8833 -0.0938
49116SOL     OW54208   9.512  11.050   0.096 -0.6008  0.0271  0.5064
49116SOL    HW154209   9.489  11.143   0.090  1.7698  0.6257 -1.0540
49116SOL    HW254210   9.429  11.004   0.105 -1.8104  2.3081  1.8792
49117SOL     OW54211   1.353   0.900   2.023  0.0139  0.2205 -0.1015
49117SOL    HW154212   1.365   0.808   2.001 -0.6400 -0.2360  1.3625
49117SOL    HW254213   1.259   0.911   2.033  0.1385  0.8812  0.4370
49118SOL     OW54214  10.859   3.173   4.958  0.6210  0.4327 -0.4222
49118SOL    HW154215  10.789   3.238   4.968  0.6652  0.3957  0.1317
49118SOL    HW254216  10.883   3.149   5.048 -0.0980 -1.1017 -0.6113
49119SOL     OW54217  12.129   8.107  12.480 -0.4178  0.0342 -0.4335
49119SOL    HW154218  12.193   8.050  12.438  0.5347  0.1906  0.7737
49119SOL    HW254219  12.105   8.170  12.412  1.8376  0.9051 -0.4920
49120SOL     OW54220   0.625   3.056   5.554  0.1103 -0.2986 -0.0673
49120SOL    HW154221   0.621   3.062   5.650 -1.1558 -0.7588 -0.0673
49120SOL    HW254222   0.580   3.135   5.524 -0.3085 -0.6018 -0.2561
49121SOL     OW54223   4.749   8.051   3.026  0.4097  0.7004 -0.4382
49121SOL    HW154224   4.711   7.983   2.971  0.4834  0.3007  0.0012
49121SOL    HW254225   4.835   8.016   3.051 -0.1830  0.2656  1.0643
49122SOL     OW54226   6.251   4.899   6.989 -0.3395 -0.1237  1.0542
49122SOL    HW154227   6.205   4.983   6.979  0.6112  0.1228 -2.2798
49122SOL    HW254228   6.298   4.908   7.072 -1.7199  1.8920  1.6905
49123SOL     OW54229   5.455   7.006   8.311 -0.0348 -0.4391 -0.3935
49123SOL    HW154230   5.486   7.042   8.228 -0.6845  0.3388 -0.3178
49123SOL    HW254231   5.395   6.936   8.286 -1.3873  0.7627 -0.6422
49124SOL     OW54232   5.497   4.876  11.158  0.4278 -0.1000 -0.2717
49124SOL    HW154233   5.405   4.865  11.135  0.6556 -0.1359 -1.2073
49124SOL    HW254234   5.499   4.866  11.253 -0.7917  1.6979 -0.0032
49125SOL     OW54235  11.479   4.623   1.840  0.0746  0.7306 -0.2397
49125SOL    HW154236  11.445   4.566   1.771 -2.1247  2.1519 -0.4337
49125SOL    HW254237  11.466   4.574   1.921 -2.0628  0.9684 -0.3751
49126SOL     OW54238  11.599   4.434   2.846  0.0115  0.2585 -0.7223
49126SOL    HW154239  11.576   4.358   2.793  0.8445  1.7093 -3.3561
49126SOL    HW254240  11.693   4.426   2.861 -0.2927 -0.3719  1.0130
49127SOL     OW54241   7.116  11.626   6.517 -0.3205  0.0615  0.5645
49127SOL    HW154242   7.098  11.669   6.433 -0.5727  2.0382  1.5781
49127SOL    HW254243   7.211  11.625   6.523 -0.1755 -2.3655 -0.8068
49128SOL     OW54244   6.776   3.822   1.661  0.1304 -0.9085  0.3042
49128SOL    HW154245   6.740   3.736   1.685 -0.7127 -0.3751  0.9802
49128SOL    HW254246   6.759   3.829   1.567 -0.4925 -1.1578  0.3913
49129SOL     OW54247  11.876   3.031   8.024 -0.1673  0.5663  0.0241
49129SOL    HW154248  11.838   3.025   8.112 -0.0507  1.4614  0.1424
49129SOL    HW254249  11.866   3.123   7.999  0.2029  0.4157 -0.7216
49130SOL     OW54250  10.289  10.728   3.938  0.5666 -0.2382  0.1521
49130SOL    HW154251  10.226  10.729   3.866 -1.6694  1.8443  1.9741
49130SOL    HW254252  10.251  10.668   4.002  1.2732 -0.1882  0.6262
49131SOL     OW54253  10.664  11.688   3.745  0.3124 -0.8205  0.2341
49131SOL    HW154254  10.653  11.628   3.818 -1.7096 -1.5175 -0.5634
49131SOL    HW254255  10.629  11.640   3.669 -0.5803  1.0214 -0.5886
49132SOL     OW54256   8.934   4.622   0.559  0.2763 -0.2458 -0.2159
49132SOL    HW154257   8.968   4.681   0.492  0.0524 -0.3829 -0.4524
49132SOL    HW254258   8.843   4.648   0.571  0.2668 -0.3338 -0.0896
49133SOL     OW54259   0.414   5.344  10.732 -0.3128  0.4302  0.0037
49133SOL    HW154260   0.324   5.321  10.707  0.1547 -1.4555 -0.1054
49133SOL    HW254261   0.419   5.321  10.825  0.4939 -1.0365 -0.3745
49134SOL     OW54262   0.109   7.751   0.984 -0.0811  0.1611 -0.1438
49134SOL    HW154263   0.189   7.747   0.930  0.6304 -0.4441  0.9014
49134SOL    HW254264   0.138   7.722   1.070 -1.5905 -0.7607  0.0932
49135SOL     OW54265   1.319   9.493   4.032  0.0195 -0.5052 -0.3013
49135SOL    HW154266   1.298   9.406   3.996 -0.0334  0.4134 -2.6286
49135SOL    HW254267   1.306   9.483   4.126 -2.6461 -2.2831 -0.7579
49136SOL     OW54268   6.577   8.190  11.148 -0.1378 -0.4739 -0.4583
49136SOL    HW154269   6.554   8.109  11.194  0.5958 -0.2978  0.2501
49136SOL    HW254270   6.530   8.259  11.195 -2.5616 -0.6816 -2.4227
49137SOL     OW54271   5.258   0.958   1.712 -0.4185  0.2782 -0.2445
49137SOL    HW154272   5.238   1.046   1.744 -0.3779 -0.0050  0.5937
49137SOL    HW254273   5.341   0.967   1.665  0.0814  0.5365  0.6461
49138SOL     OW54274   4.996   0.137   9.850  0.3372  0.2788  0.0738
49138SOL    HW154275   5.079   0.161   9.890  0.6297 -0.1703 -0.2591
49138SOL    HW254276   4.968   0.216   9.804 -1.3243  1.7482  3.2546
49139SOL     OW54277   0.894   3.880   3.707  0.4512  0.5421 -0.4382
49139SOL    HW154278   0.897   3.806   3.646 -2.3497  0.8440 -1.0547
49139SOL    HW254279   0.947   3.851   3.782  2.0961 -0.7432 -2.0140
49140SOL     OW54280   0.996   6.476   4.536  0.4909  0.2922 -0.0920
49140SOL    HW154281   1.022   6.566   4.514  1.1131 -0.0949 -1.0220
49140SOL    HW254282   1.071   6.441   4.585  0.3903  0.1760 -0.0212
49141SOL     OW54283   0.319   5.367   6.122 -0.2466  0.4770 -0.1377
49141SOL    HW154284   0.249   5.329   6.069  0.3462  1.0209 -1.3462
49141SOL    HW254285   0.338   5.301   6.188 -2.0450  0.4083  0.3621
49142SOL     OW54286  10.792   4.514   9.863 -0.1027 -0.4210  0.0124
49142SOL    HW154287  10.850   4.590   9.868  1.0937 -1.3297  0.8009
49142SOL    HW254288  10.704   4.549   9.876  0.3773  0.8755 -0.1173
49143SOL     OW54289   7.035   2.005  11.480  0.2051  0.0020  0.3511
49143SOL    HW154290   7.012   2.083  11.429 -0.2173 -0.7453 -0.6297
49143SOL    HW254291   6.987   1.934  11.438 -0.0617 -0.6682  1.7239
49144SOL     OW54292  12.016   2.415   5.396  0.5332  0.6183  0.3333
49144SOL    HW154293  12.021   2.506   5.366 -0.3952  0.8311  0.7797
49144SOL    HW254294  12.107   2.388   5.407  0.8152  1.7907  1.0621
49145SOL     OW54295   7.451  11.101   5.046 -0.1256  0.2421 -0.5653
49145SOL    HW154296   7.396  11.065   4.977 -0.4026 -0.7941  0.1810
49145SOL    HW254297   7.410  11.184   5.069  0.3591  0.9487 -2.1046
49146SOL     OW54298   8.067   2.148  11.852 -0.0351 -1.0009  0.0418
49146SOL    HW154299   8.050   2.074  11.910 -0.9793 -0.7887  0.0614
49146SOL    HW254300   7.989   2.152  11.797 -0.8332  1.0817  1.2266
49147SOL     OW54301  12.469   5.987   6.943 -0.4403  0.3308  0.4291
49147SOL    HW154302  12.464   6.060   6.881  0.8345  0.7179  0.7622
49147SOL    HW254303  12.473   5.909   6.888 -1.0921  0.5502  0.0612
49148SOL     OW54304   7.331   8.340   8.852  0.1844 -0.3646  0.3891
49148SOL    HW154305   7.265   8.275   8.877 -0.8016  0.2654 -0.4845
49148SOL    HW254306   7.397   8.290   8.803 -1.7784 -0.4169 -2.4397
49149SOL     OW54307   4.046   5.607  10.690  0.1172 -0.7568  0.4386
49149SOL    HW154308   3.996   5.533  10.724 -0.1146 -0.0455  1.7004
49149SOL    HW254309   4.022   5.680  10.747 -0.7453  0.6519 -1.6161
49150SOL     OW54310   8.541  11.872   8.952  0.3301  0.4863  0.5909
49150SOL    HW154311   8.538  11.967   8.945 -0.1011  0.5354  1.3686
49150SOL    HW254312   8.609  11.846   8.890 -0.3612  1.2007 -0.5017
49151SOL     OW54313   8.342   4.858  12.136  0.3469 -0.2460 -0.0461
49151SOL    HW154314   8.295   4.805  12.071 -0.6688  3.4010 -2.5815
49151SOL    HW254315   8.410   4.903  12.087  0.1529  1.9761  1.5604
49152SOL     OW54316   2.567   5.423  11.397  0.2810 -0.0260  0.3961
49152SOL    HW154317   2.585   5.389  11.309 -0.1700  0.1403  0.2368
49152SOL    HW254318   2.613   5.507  11.400 -1.0716  0.7970 -0.3068
49153SOL     OW54319   2.495   8.550   6.585 -0.6156  0.0399 -0.4101
49153SOL    HW154320   2.513   8.557   6.679  1.5793 -0.7488 -0.7223
49153SOL    HW254321   2.446   8.630   6.565 -0.9021  0.3531  1.3407
49154SOL     OW54322   0.629   1.663   9.310 -0.1557 -0.2861  0.0571
49154SOL    HW154323   0.678   1.627   9.384  1.6940 -0.7824 -1.3383
49154SOL    HW254324   0.696   1.697   9.251 -1.6166  0.7791 -1.0703
49155SOL     OW54325   7.908   1.399   5.548  0.2486  0.0209  0.3708
49155SOL    HW154326   7.962   1.476   5.530 -1.0378  0.6424 -1.0794
49155SOL    HW254327   7.828   1.434   5.584  0.5085 -0.8408  1.8474
49156SOL     OW54328   6.067   0.527   2.797 -0.4728  0.0785  0.0342
49156SOL    HW154329   5.999   0.534   2.863 -2.1274  0.9655 -1.6508
49156SOL    HW254330   6.034   0.463   2.734  0.8141 -0.3808 -0.2190
49157SOL     OW54331   9.143   4.241   5.396 -0.6144  0.1311 -0.1822
49157SOL    HW154332   9.224   4.189   5.393  0.1083  1.2285 -0.2543
49157SOL    HW254333   9.073   4.177   5.385  0.0681 -1.2810  2.6783
49158SOL     OW54334  12.323  10.947   6.214  0.4676 -0.5102  0.3788
49158SOL    HW154335  12.375  10.900   6.280  1.2647 -3.7698 -2.3198
49158SOL    HW254336  12.386  11.005   6.171  0.7351 -0.8616  0.2911
49159SOL     OW54337   3.669   6.896  12.344  0.2114  0.6515 -0.1330
49159SOL    HW154338   3.653   6.988  12.365 -0.2732  0.4679  0.3375
49159SOL    HW254339   3.699   6.896  12.253 -2.3051  1.0577 -1.0383
49160SOL     OW54340   5.512   7.746   6.611 -0.2423 -0.2265 -0.6832
49160SOL    HW154341   5.507   7.663   6.564 -1.5826  0.0790 -1.1251
49160SOL    HW254342   5.520   7.812   6.541 -1.8619  0.2008 -0.5188
49161SOL     OW54343   6.163   5.149  11.955 -0.4053  0.9065 -0.0874
49161SOL    HW154344   6.219   5.149  12.033 -1.3336  1.8764  0.6034
49161SOL    HW254345   6.098   5.217  11.972 -2.1470 -0.5419 -0.6123
49162SOL     OW54346   1.389   9.022   3.313 -0.7453  0.3380  0.5930
49162SOL    HW154347   1.371   9.005   3.405 -0.0569  0.7752  0.8195
49162SOL    HW254348   1.341   8.954   3.266 -0.4403 -0.4006  1.3212
49163SOL     OW54349   8.122   1.470   9.600 -0.2064  0.1484 -0.2060
49163SOL    HW154350   8.210   1.470   9.563 -0.4559 -0.4289 -0.8235
49163SOL    HW254351   8.135   1.459   9.694  0.3153 -2.7198 -0.5209
49164SOL     OW54352   8.808   4.156   7.368 -0.0979  0.7789  0.4338
49164SOL    HW154353   8.722   4.179   7.335 -0.6408 -0.2859  1.0203
49164SOL    HW254354   8.826   4.070   7.330  1.2988  1.5539 -0.7234
49165SOL     OW54355   6.613   6.518   4.877  0.3459 -0.0920 -0.1748
49165SOL    HW154356   6.524   6.500   4.848  0.7860 -1.1885 -0.8862
49165SOL    HW254357   6.662   6.438   4.858  0.9206 -0.5090  2.5800
49166SOL     OW54358   0.905  12.149   3.408 -0.3272  0.4953  0.1639
49166SOL    HW154359   0.915  12.110   3.495 -3.6609 -0.3953  0.3038
49166SOL    HW254360   0.987  12.129   3.363  0.1479 -2.1886  1.9746
49167SOL     OW54361   0.217   9.005   8.970 -0.4949 -0.2990 -0.0779
49167SOL    HW154362   0.205   9.042   9.057  2.0404 -1.6861  0.9670
49167SOL    HW254363   0.246   9.078   8.916  1.7727 -0.0887  1.2843
49168SOL     OW54364   6.249   6.941  11.193 -0.2468 -0.2574  0.0556
49168SOL    HW154365   6.192   6.879  11.149  0.4216 -0.1699 -0.9669
49168SOL    HW254366   6.227   7.026  11.154  0.4110 -0.1883 -0.1779
49169SOL     OW54367   1.722  12.016   3.030  0.3580  0.1732  0.1630
49169SOL    HW154368   1.769  12.099   3.031 -0.6249  0.8166 -1.8459
49169SOL    HW254369   1.757  11.969   2.955 -0.2375 -0.5353  0.3122
49170SOL     OW54370   7.473   1.107   9.432 -0.3956 -0.0330  0.0526
49170SOL    HW154371   7.500   1.044   9.365  0.0487  1.6949 -1.4712
49170SOL    HW254372   7.473   1.056   9.513  1.1224 -1.7119 -0.9030
49171SOL     OW54373   6.181   1.642   9.945  0.0254  0.2849 -0.3128
49171SOL    HW154374   6.264   1.616   9.985  0.1326  2.5323  1.1002
49171SOL    HW254375   6.200   1.722   9.898 -1.6585  2.0136  1.7319
49172SOL     OW54376   4.603   0.631   8.733  0.3849 -0.3552 -0.1276
49172SOL    HW154377   4.582   0.538   8.741 -0.1394 -0.2707 -0.4456
49172SOL    HW254378   4.539   0.664   8.670 -0.5745  0.5872  1.2915
49173SOL     OW54379   4.714  11.351   5.916  0.1830  0.3003 -0.1351
49173SOL    HW154380   4.654  11.276   5.917  0.3819  0.0835 -1.5816
49173SOL    HW254381   4.666  11.421   5.960 -0.3627 -0.4220  0.4469
49174SOL     OW54382   3.038  10.016   8.353  0.2354 -0.1723 -0.1031
49174SOL    HW154383   3.115   9.998   8.406 -0.2888 -0.5905  0.5390
49174SOL    HW254384   3.046  10.109   8.330  1.4130 -0.4490 -0.8764
49175SOL     OW54385  10.278   8.516  11.379  0.2783  0.9239 -0.2235
49175SOL    HW154386  10.360   8.528  11.332  1.1523  0.2727  1.0914
49175SOL    HW254387  10.239   8.438  11.339  0.2873  1.2299 -0.8463
49176SOL     OW54388   4.380   9.263   6.171 -0.4465 -0.2478 -0.0086
49176SOL    HW154389   4.414   9.330   6.111  1.6224 -0.1315  1.2037
49176SOL    HW254390   4.439   9.189   6.161 -1.0733 -0.8632  0.6987
49177SOL     OW54391  10.497   8.678   0.419 -0.2920 -0.1386 -0.3909
49177SOL    HW154392  10.435   8.638   0.358 -0.3810  0.7635 -0.9013
49177SOL    HW254393  10.561   8.609   0.436  0.0556 -0.2428 -1.9485
49178SOL     OW54394   7.088   9.552   9.486  0.2542 -0.3846  0.3449
49178SOL    HW154395   7.011   9.588   9.443  0.3230 -1.9735 -1.1878
49178SOL    HW254396   7.057   9.525   9.573 -0.6489 -0.1069  0.1164
49179SOL     OW54397   7.831  11.750   6.333 -0.6158  0.4521  0.1956
49179SOL    HW154398   7.876  11.834   6.327  2.0024 -0.8760 -0.4743
49179SOL    HW254399   7.805  11.743   6.425  0.9343  1.1795  0.7263
49180SOL     OW54400   3.415  10.424   5.593 -0.3042 -1.0067  0.3829
49180SOL    HW154401   3.393  10.356   5.657  0.6932  0.2296  2.1213
49180SOL    HW254402   3.400  10.506   5.640  2.4611 -0.0680 -0.2361
49181SOL     OW54403   5.997   6.954   1.921 -0.1427 -0.0530 -0.2389
49181SOL    HW154404   5.958   7.031   1.963  0.5205  0.1994 -0.0582
49181SOL    HW254405   6.009   6.980   1.830 -0.4025 -0.1303 -0.2938
49182SOL     OW54406   9.392   5.521   2.353 -0.5456  0.0139 -0.3751
49182SOL    HW154407   9.322   5.577   2.388 -0.6707 -1.2052  1.4715
49182SOL    HW254408   9.468   5.579   2.345 -1.2530  0.9305 -0.6627
49183SOL     OW54409   5.986   6.515   8.533  0.5789 -0.0786 -0.0124
49183SOL    HW154410   5.981   6.548   8.623 -1.0650 -3.7774  1.4686
49183SOL    HW254411   5.915   6.558   8.487 -0.4833 -0.3174  1.3484
49184SOL     OW54412   2.058   0.876   1.241  0.6888 -0.1510  0.1628
49184SOL    HW154413   2.109   0.848   1.164  1.8721 -0.2901  0.9751
49184SOL    HW254414   2.124   0.892   1.309 -0.4729 -3.9081  2.4637
49185SOL     OW54415   1.233   9.937   0.868 -0.1608  0.2698 -0.0886
49185SOL    HW154416   1.218  10.020   0.913 -0.6721 -0.5622  1.3524
49185SOL    HW254417   1.160   9.929   0.807  0.3207  1.2271 -0.8148
49186SOL     OW54418   7.036   7.455   1.736 -0.1305  0.0747  0.3012
49186SOL    HW154419   7.095   7.383   1.758 -1.0953 -0.3557  1.5952
49186SOL    HW254420   7.005   7.434   1.648 -0.2829 -1.0371  0.6045
49187SOL     OW54421   4.687  12.060  10.637  0.2057  0.2108  0.1899
49187SOL    HW154422   4.643  12.122  10.579  2.2824  0.7543 -0.9263
49187SOL    HW254423   4.682  12.101  10.723  0.4182  1.3219 -0.2998
49188SOL     OW54424   6.879   3.665   2.462  0.1275  0.0985  0.0828
49188SOL    HW154425   6.937   3.722   2.412  0.6514 -1.5338 -1.2574
49188SOL    HW254426   6.899   3.577   2.431 -1.7382 -0.6961  0.9724
49189SOL     OW54427  12.318   8.865   3.843  0.0645 -0.2623  0.2498
49189SOL    HW154428  12.383   8.823   3.788 -1.2568 -0.6494 -1.0593
49189SOL    HW254429  12.242   8.807   3.841 -0.6000  0.5322  1.1531
49190SOL     OW54430   7.465   0.489   2.020 -0.1986  0.0945  0.0536
49190SOL    HW154431   7.489   0.520   1.933  0.6424 -1.2400 -0.2205
49190SOL    HW254432   7.542   0.440   2.050 -0.2410  1.0415  1.8025
49191SOL     OW54433   8.964   0.857   2.864  0.2806  0.3262  0.0086
49191SOL    HW154434   8.968   0.921   2.793 -0.5243  0.2178 -0.1384
49191SOL    HW254435   8.872   0.831   2.868  0.5895 -0.8202  0.0705
49192SOL     OW54436   3.013  11.882  10.537  0.4201  0.3887  0.0643
49192SOL    HW154437   3.096  11.928  10.533 -0.2269  1.6512  0.5683
49192SOL    HW254438   2.968  11.905  10.456  0.1417  0.5668  0.2655
49193SOL     OW54439   8.239  11.441   9.363 -0.6631  0.3050 -0.4511
49193SOL    HW154440   8.214  11.422   9.273 -0.4673 -0.7730 -0.2866
49193SOL    HW254441   8.243  11.356   9.406  3.6924  0.2346 -0.5329
49194SOL     OW54442  11.521   2.276   1.196 -0.1997  0.1463  0.0116
49194SOL    HW154443  11.555   2.355   1.154 -0.1335 -1.1574 -2.5567
49194SOL    HW254444  11.598   2.220   1.209 -0.6420 -0.8528 -1.3941
49195SOL     OW54445   9.160   4.436  10.121 -0.0912  0.3302  0.3157
49195SOL    HW154446   9.121   4.423  10.208 -0.4924 -1.3971 -0.0858
49195SOL    HW254447   9.203   4.521  10.127  1.9278 -0.7347  2.9682
49196SOL     OW54448  12.044   2.987   3.325  0.5772 -0.5683 -0.1748
49196SOL    HW154449  12.118   3.048   3.320 -1.2938  1.7767 -1.1038
49196SOL    HW254450  12.028   2.976   3.419  2.0918 -1.1763  0.0439
49197SOL     OW54451   5.588   9.437   6.322  0.4187  0.1186  0.1915
49197SOL    HW154452   5.599   9.531   6.304  0.1792  0.2317  0.6357
49197SOL    HW254453   5.528   9.433   6.396 -1.8699 -0.4569 -1.5569
49198SOL     OW54454   1.630   4.733  10.587  0.1803 -0.3267  0.5146
49198SOL    HW154455   1.569   4.685  10.643  0.9743 -0.2743  1.4496
49198SOL    HW254456   1.650   4.673  10.516 -1.3895 -0.1408 -0.1287
49199SOL     OW54457   7.106   1.598  10.514  0.3191  0.2811  0.0242
49199SOL    HW154458   7.137   1.587  10.604 -2.7278 -3.4322  0.8930
49199SOL    HW254459   7.059   1.681  10.515  0.5894  0.4527  1.7876
49200SOL     OW54460   6.365   2.960   3.035 -0.1456  0.0860 -0.2631
49200SOL    HW154461   6.431   3.027   3.022  0.4977 -0.3851  0.4881
49200SOL    HW254462   6.404   2.880   3.000 -1.3672  0.3000 -2.2564
49201SOL     OW54463   5.872   0.928   2.999 -0.3531  0.1034  0.5191
49201SOL    HW154464   5.940   0.874   3.038 -0.0021 -1.0849 -1.5595
49201SOL    HW254465   5.907   1.017   3.001  0.3542 -0.1849  1.3301
49202SOL     OW54466   3.950   2.641   4.368  0.7768  0.0549  0.2325
49202SOL    HW154467   3.947   2.613   4.459  1.1635  1.7223  0.7913
49202SOL    HW254468   4.034   2.609   4.336  1.0611  0.2627  0.7533
49203SOL     OW54469   8.247  11.606   7.627 -0.2316  0.3074  0.2715
49203SOL    HW154470   8.200  11.689   7.621  1.7350  1.5368  1.0214
49203SOL    HW254471   8.198  11.555   7.691 -2.7390 -0.0774 -1.7854
49204SOL     OW54472   2.239   5.940   7.340  0.4875  0.4645 -0.0919
49204SOL    HW154473   2.232   5.966   7.248 -3.9784  0.7542  0.0917
49204SOL    HW254474   2.230   5.844   7.338  1.7024  0.3379  0.0148
49205SOL     OW54475  12.073   9.957  12.467 -0.2589 -0.4121  0.3074
49205SOL    HW154476  12.026   9.998  12.395 -0.0265  0.2957  0.5534
49205SOL    HW254477  12.024   9.877  12.486 -2.0939  0.8916  1.3498
49206SOL     OW54478   7.631   6.905   7.725 -0.0763  0.1550 -0.2420
49206SOL    HW154479   7.706   6.856   7.761  1.1356  1.3543 -1.0364
49206SOL    HW254480   7.671   6.978   7.677 -1.8025  1.6505  0.4926
49207SOL     OW54481   9.435   5.397   7.680  0.5602  0.2547 -0.1480
49207SOL    HW154482   9.512   5.347   7.650  0.4384  0.2850 -0.5208
49207SOL    HW254483   9.360   5.345   7.650  0.4251 -0.1561  0.8580
49208SOL     OW54484  11.294   9.901   6.506 -0.2568 -0.0065 -0.3021
49208SOL    HW154485  11.337   9.876   6.588  1.0062 -1.1551 -1.2733
49208SOL    HW254486  11.360   9.952   6.459 -0.8479  0.3449 -0.7623
49209SOL     OW54487   9.402  11.195   4.331  0.2786 -0.3763  0.4018
49209SOL    HW154488   9.332  11.241   4.376 -1.0417  0.2091 -2.0461
49209SOL    HW254489   9.482  11.238   4.361 -0.6731  1.2145  0.7813
49210SOL     OW54490   0.049   8.218  11.622 -0.4828 -0.7107  0.2378
49210SOL    HW154491  -0.002   8.221  11.541 -1.1075  0.4325  0.6540
49210SOL    HW254492   0.133   8.181  11.596 -0.0002  1.3128 -1.3355
49211SOL     OW54493  11.461  10.206   1.899  0.3924  0.0060 -0.0364
49211SOL    HW154494  11.398  10.194   1.828  0.0622  0.1572  0.2298
49211SOL    HW254495  11.442  10.135   1.961  1.8292 -1.2292 -0.9087
49212SOL     OW54496   1.692   8.029   2.727  0.4739  0.4288 -0.4015
49212SOL    HW154497   1.745   7.997   2.800  1.3357 -0.2779 -1.2979
49212SOL    HW254498   1.609   8.055   2.767 -0.2101 -2.6840  0.4929
49213SOL     OW54499  11.774   8.085   7.321  0.0189 -0.1084 -0.0241
49213SOL    HW154500  11.752   8.106   7.412 -1.1469  0.7927 -0.4797
49213SOL    HW254501  11.806   8.168   7.285 -1.4476  0.0900 -0.9527
49214SOL     OW54502   4.233   8.521  10.547  0.0548 -0.3653 -0.2749
49214SOL    HW154503   4.290   8.590  10.580 -2.7355  1.0073  2.0686
49214SOL    HW254504   4.290   8.444  10.539  2.5543  1.3409  0.1513
49215SOL     OW54505   8.941   1.283   2.736  0.0259  0.5315  0.2070
49215SOL    HW154506   8.945   1.249   2.826  1.3931  1.9456  0.7215
49215SOL    HW254507   8.939   1.378   2.746 -2.7468  0.7150 -1.2226
49216SOL     OW54508   8.491   0.844   3.639  0.4198  0.2868  0.3434
49216SOL    HW154509   8.533   0.763   3.610  0.9681  0.5713  0.3343
49216SOL    HW254510   8.475   0.893   3.558 -0.3703 -0.0270  0.3029
49217SOL     OW54511   4.041   9.408   8.884  0.0529  0.1271 -0.1054
49217SOL    HW154512   4.116   9.410   8.943  0.4246 -2.1027 -0.4235
49217SOL    HW254513   4.060   9.476   8.820  0.6040  1.2304  1.1885
49218SOL     OW54514   4.817   9.323  10.065  0.4983  0.4375  0.2461
49218SOL    HW154515   4.868   9.384  10.012 -1.2994 -1.3590 -4.0452
49218SOL    HW254516   4.761   9.378  10.120  0.7709  2.5800 -1.5124
49219SOL     OW54517   7.964   9.549   8.389  0.3726  0.0389  0.1693
49219SOL    HW154518   7.911   9.521   8.314 -0.6768  0.7435  0.6314
49219SOL    HW254519   7.901   9.587   8.450  1.2726 -0.1264  1.2287
49220SOL     OW54520  10.581  10.626   2.492  0.7770 -0.2312 -0.1648
49220SOL    HW154521  10.578  10.546   2.544  1.2944 -0.1010  0.0626
49220SOL    HW254522  10.589  10.696   2.556 -1.7071  0.1970 -0.2022
49221SOL     OW54523   7.004  10.184   9.799 -0.0954  0.3142  0.6777
49221SOL    HW154524   7.065  10.145   9.736  1.7410  2.3799  1.0571
49221SOL    HW254525   6.937  10.226   9.745 -0.1396 -0.3422  0.2070
49222SOL     OW54526   8.403   4.924   1.627  0.0959  0.1219  0.4135
49222SOL    HW154527   8.416   4.945   1.720 -1.1343  0.5615  0.5067
49222SOL    HW254528   8.409   5.009   1.583 -0.9900  0.1650  0.3126
49223SOL     OW54529   5.858   6.195   2.650 -0.0253  0.0946 -0.6790
49223SOL    HW154530   5.788   6.141   2.685  1.2808 -1.3702 -0.2256
49223SOL    HW254531   5.859   6.176   2.556  0.1206 -0.3034 -0.5962
49224SOL     OW54532   7.695  10.637   5.929  0.2404  0.1143 -0.7605
49224SOL    HW154533   7.611  10.678   5.948  0.3160  0.1355 -0.4724
49224SOL    HW254534   7.675  10.544   5.922  0.6874 -0.3509  2.5561
49225SOL     OW54535   4.402  11.330  10.860  0.2865  0.0209 -0.1463
49225SOL    HW154536   4.395  11.291  10.773  0.3266  1.5007 -0.8371
49225SOL    HW254537   4.313  11.333  10.892 -0.0224  1.3808 -1.0350
49226SOL     OW54538   7.901   8.905   2.088 -0.1103 -0.5612  0.7392
49226SOL    HW154539   7.874   8.936   2.001 -0.2672 -0.0563  0.9640
49226SOL    HW254540   7.961   8.833   2.070  1.0873  0.5217  0.1737
49227SOL     OW54541   5.403  10.121   2.358  0.1859 -0.0267  0.1759
49227SOL    HW154542   5.313  10.134   2.387  0.4207  1.1326  0.4179
49227SOL    HW254543   5.396  10.059   2.286 -0.8147  0.1098  0.1440
49228SOL     OW54544   9.271   9.932   3.120 -0.0880 -0.2561  0.3245
49228SOL    HW154545   9.183   9.895   3.115 -0.6470  1.1394 -0.8780
49228SOL    HW254546   9.260  10.014   3.168  0.9013 -0.9224  1.7669
49229SOL     OW54547   8.233   5.793   6.582  0.1160  0.3579  0.0849
49229SOL    HW154548   8.298   5.815   6.649  1.0442 -0.2641 -0.5928
49229SOL    HW254549   8.271   5.825   6.500 -0.3846 -0.1138 -0.3401
49230SOL     OW54550   1.223   9.083   8.069 -0.0555 -0.0117 -0.7212
49230SOL    HW154551   1.268   9.161   8.102 -0.8201  1.2347 -2.4878
49230SOL    HW254552   1.252   9.074   7.979 -1.0105 -0.9883 -0.9588
49231SOL     OW54553  11.560   4.575  10.295 -0.4501 -0.3468 -0.5695
49231SOL    HW154554  11.531   4.485  10.280  1.4718 -1.1127  0.0746
49231SOL    HW254555  11.572   4.580  10.390  0.3174  0.3154 -0.7013
49232SOL     OW54556   7.680   7.965   6.569 -0.2169  0.4584  0.5777
49232SOL    HW154557   7.698   8.002   6.482  2.7021 -1.0015  0.4108
49232SOL    HW254558   7.617   7.895   6.553 -0.3793  0.7789 -0.2283
49233SOL     OW54559   9.607   0.554  10.346  0.0569  0.7620 -0.0322
49233SOL    HW154560   9.573   0.583  10.430 -0.0659 -0.1404  0.2316
49233SOL    HW254561   9.547   0.592  10.282  0.2297  1.5649  0.2666
49234SOL     OW54562   7.241   1.784   6.923  0.4737 -0.3309 -0.4666
49234SOL    HW154563   7.324   1.798   6.877  1.0373 -1.1273  0.2704
49234SOL    HW254564   7.267   1.767   7.014 -0.5103 -0.4711 -0.2035
49235SOL     OW54565   7.024   5.506   4.208  0.0655 -0.1897  0.3680
49235SOL    HW154566   6.980   5.428   4.241  1.2818 -1.5327 -1.0589
49235SOL    HW254567   6.955   5.556   4.165 -0.7968 -0.2533  1.6138
49236SOL     OW54568   8.525   2.138   4.370  0.2273 -0.0850  0.3603
49236SOL    HW154569   8.558   2.084   4.298 -0.4307 -1.4465  1.0433
49236SOL    HW254570   8.466   2.201   4.328  1.4842  0.5311 -0.5237
49237SOL     OW54571   5.967  10.295   0.122  0.4643  0.4683 -0.6465
49237SOL    HW154572   5.926  10.215   0.154  0.5058  1.1106  1.1145
49237SOL    HW254573   6.050  10.267   0.084 -0.1436 -0.4583 -1.3511
49238SOL     OW54574   9.191  11.497   3.878  0.0350 -0.2453 -0.1393
49238SOL    HW154575   9.242  11.421   3.906 -0.4135 -1.1471 -1.6331
49238SOL    HW254576   9.122  11.460   3.822 -0.8096  1.1710 -0.0719
49239SOL     OW54577   2.707   5.956   4.780 -0.5981 -0.1304 -0.3085
49239SOL    HW154578   2.691   5.996   4.695  1.3038 -2.1381 -1.7227
49239SOL    HW254579   2.642   5.885   4.786 -1.2023  0.4460  0.3020
49240SOL     OW54580   8.194   9.465   8.506  0.1234 -0.4243  0.4535
49240SOL    HW154581   8.127   9.503   8.448  1.7363 -0.1344 -1.3206
49240SOL    HW254582   8.183   9.511   8.589  0.3276  2.1066 -0.8267
49241SOL     OW54583  10.217   1.296   1.781  0.4222 -0.6249  0.8582
49241SOL    HW154584  10.138   1.289   1.834 -1.6582 -2.6135 -2.1986
49241SOL    HW254585  10.286   1.260   1.837 -1.2516 -1.0077  2.8115
49242SOL     OW54586  11.877  11.414   1.420  0.1410  0.2010  0.6267
49242SOL    HW154587  11.951  11.474   1.427 -0.1643  0.5625  0.8231
49242SOL    HW254588  11.822  11.451   1.351  0.7300 -0.7151 -0.3537
49243SOL     OW54589   3.622   3.539   2.339  0.6969  0.0982  0.1022
49243SOL    HW154590   3.566   3.494   2.402  0.9997  1.2131  1.1982
49243SOL    HW254591   3.630   3.477   2.266 -1.7307 -0.2189  0.0068
49244SOL     OW54592   2.191   3.419   9.472  0.1974  0.3729 -0.4094
49244SOL    HW154593   2.144   3.409   9.389 -2.1150  1.0162  0.7358
49244SOL    HW254594   2.198   3.331   9.507  1.5825  0.0346 -1.4210
49245SOL     OW54595   6.886   8.434   9.571 -0.0894 -0.1950 -0.5045
49245SOL    HW154596   6.889   8.512   9.627 -1.6503  0.7680 -1.6839
49245SOL    HW254597   6.975   8.426   9.537  0.3897  0.3603  0.5582
49246SOL     OW54598   3.798  11.784   5.522  0.6860  0.0357 -0.0734
49246SOL    HW154599   3.802  11.732   5.603  2.5270  1.2519  0.6826
49246SOL    HW254600   3.769  11.870   5.550  1.7111  0.5798 -0.6185
49247SOL     OW54601   1.120   3.041   1.446  0.2825 -0.1550  0.9699
49247SOL    HW154602   1.108   3.038   1.541  1.8272  0.3347  1.2199
49247SOL    HW254603   1.122   2.949   1.419 -1.1963 -0.2909  1.2337
49248SOL     OW54604   2.024   9.439   0.102  0.1789 -0.4298 -0.2720
49248SOL    HW154605   2.020   9.510   0.038  0.4278 -0.0400  0.1377
49248SOL    HW254606   2.013   9.359   0.050 -0.2450 -0.0882 -0.7194
49249SOL     OW54607   6.756   4.848   8.435  0.1497 -0.0085 -0.3143
49249SOL    HW154608   6.806   4.836   8.354  1.8260  0.1399  0.6775
49249SOL    HW254609   6.713   4.933   8.424 -1.1539 -0.8002 -1.7974
49250SOL     OW54610   9.571   9.813   4.426 -0.5858 -0.4949 -0.0384
49250SOL    HW154611   9.486   9.849   4.399 -2.1595 -3.6727  0.2564
49250SOL    HW254612   9.576   9.831   4.519 -2.2000 -2.3919  0.4851
49251SOL     OW54613   7.457  11.619   4.620  0.3312  0.5050 -0.2969
49251SOL    HW154614   7.438  11.595   4.529  0.4916  1.4996 -0.6049
49251SOL    HW254615   7.374  11.655   4.653  0.0457 -0.5765  0.2123
49252SOL     OW54616   4.215   0.720   2.083  0.4618 -0.0348 -0.3274
49252SOL    HW154617   4.289   0.706   2.024  0.9164  0.9325  0.0017
49252SOL    HW254618   4.215   0.643   2.140  2.1169  0.5903  0.6010
49253SOL     OW54619   8.941  11.051   1.867  0.1566 -0.1918  0.1807
49253SOL    HW154620   8.958  11.065   1.774  1.6340 -0.1358  0.4446
49253SOL    HW254621   8.848  11.073   1.877  0.7855  3.5091 -0.5992
49254SOL     OW54622   4.380   2.267   0.991 -0.0886  0.4860  0.7314
49254SOL    HW154623   4.440   2.339   1.015 -0.5773  0.9766  0.5031
49254SOL    HW254624   4.326   2.254   1.069  1.3002 -0.9948  1.4914
49255SOL     OW54625  11.870  12.028   4.322 -0.2635  0.1148 -0.2569
49255SOL    HW154626  11.894  11.950   4.272  4.1101  2.0419 -1.6766
49255SOL    HW254627  11.921  12.021   4.403  0.6069  1.6350 -0.6333
49256SOL     OW54628   7.907   8.353   9.348 -0.2945  0.4993  0.1733
49256SOL    HW154629   7.916   8.293   9.274 -1.4861  0.1147  0.3234
49256SOL    HW254630   7.956   8.431   9.321 -1.0509  0.5252 -1.2060
49257SOL     OW54631  10.307   9.520   6.719  1.1469 -0.2131 -0.2074
49257SOL    HW154632  10.379   9.532   6.781  0.5393 -1.9920  0.9361
49257SOL    HW254633  10.290   9.426   6.720 -1.8110  0.2125  0.3172
49258SOL     OW54634   6.118   9.240   6.677  0.6033  0.6055 -0.8393
49258SOL    HW154635   6.077   9.324   6.695  0.6864  0.5187 -0.2174
49258SOL    HW254636   6.066   9.177   6.727  2.0823  0.6173  0.8214
49259SOL     OW54637  10.125  10.246  10.104  0.2315 -0.8387  0.5564
49259SOL    HW154638  10.119  10.315  10.039  0.5530 -2.3330 -1.1512
49259SOL    HW254639  10.217  10.245  10.131 -0.0436  0.2417  1.6122
49260SOL     OW54640   3.285   5.395   9.871 -0.0236  0.1795 -0.1601
49260SOL    HW154641   3.340   5.471   9.852  0.9327 -0.7775 -1.3358
49260SOL    HW254642   3.202   5.433   9.901  0.9785  1.6671  0.9027
49261SOL     OW54643   7.500  11.067   0.333  0.1842 -0.4803 -0.3353
49261SOL    HW154644   7.521  11.031   0.247 -0.7392  1.6094 -1.4838
49261SOL    HW254645   7.407  11.047   0.346  0.3671 -0.9647  0.2840
49262SOL     OW54646   5.061   5.026  11.529 -0.1443 -0.2727 -0.4471
49262SOL    HW154647   5.104   4.995  11.450  0.4830 -1.2129  0.2446
49262SOL    HW254648   5.010   4.952  11.560 -0.3242  0.0588  0.0725
49263SOL     OW54649  11.105   8.426  10.598  0.6025  0.2275 -0.2947
49263SOL    HW154650  11.182   8.369  10.597  0.9196  0.6137  0.6353
49263SOL    HW254651  11.139   8.512  10.622  0.3770  1.2305 -3.1958
49264SOL     OW54652   4.796   5.214   5.636 -0.0273 -0.4907 -0.1281
49264SOL    HW154653   4.737   5.283   5.606 -0.5540 -1.1340 -0.6107
49264SOL    HW254654   4.854   5.257   5.699 -1.5017 -0.0055  0.9508
49265SOL     OW54655   1.849   3.334   9.094  0.5681  0.1160 -0.0472
49265SOL    HW154656   1.852   3.375   9.008  1.0996 -1.5194 -0.8507
49265SOL    HW254657   1.889   3.248   9.081  0.1972 -0.3673  1.7228
49266SOL     OW54658   5.703   1.678   9.182  0.5823 -0.2348 -0.1081
49266SOL    HW154659   5.634   1.689   9.117 -0.9765 -2.0031  1.1513
49266SOL    HW254660   5.760   1.610   9.145  0.6874  0.0164 -0.4072
49267SOL     OW54661   5.577   0.242  10.632 -0.2812  0.1285 -0.7915
49267SOL    HW154662   5.509   0.267  10.695  0.1535  0.5636 -0.4940
49267SOL    HW254663   5.653   0.222  10.685 -0.5856 -1.8211 -1.0144
49268SOL     OW54664  12.210   1.280   7.846  0.5937 -0.0674  0.6273
49268SOL    HW154665  12.274   1.220   7.808  0.9379  0.1775  0.8078
49268SOL    HW254666  12.253   1.366   7.842 -0.3477  0.3710 -0.6925
49269SOL     OW54667   0.797   4.239   3.053  0.2350 -0.1060 -0.1395
49269SOL    HW154668   0.832   4.267   2.969  2.0556 -1.6214  0.0497
49269SOL    HW254669   0.832   4.302   3.117  0.0772  0.1785 -0.3347
49270SOL     OW54670   9.844   0.550   8.932 -0.6348  0.8970 -0.0777
49270SOL    HW154671   9.873   0.639   8.915 -0.2952  0.7519 -0.2706
49270SOL    HW254672   9.920   0.506   8.970 -0.3957  0.3554 -1.1172
49271SOL     OW54673   9.908   6.768   7.915  0.2082  0.8599 -0.2550
49271SOL    HW154674   9.821   6.784   7.880  0.5759 -0.0570 -1.6891
49271SOL    HW254675   9.899   6.780   8.009 -1.4120  0.9679 -0.4000
49272SOL     OW54676   0.033   7.286   7.247 -0.6686 -0.5600  0.2671
49272SOL    HW154677   0.094   7.359   7.235 -0.2452 -0.7895  1.0352
49272SOL    HW254678  -0.053   7.328   7.246 -0.4658 -0.1343  0.0054
49273SOL     OW54679  10.305   0.200   8.400  0.3592  0.2650 -0.4411
49273SOL    HW154680  10.261   0.162   8.324 -1.4848 -0.0451  0.7310
49273SOL    HW254681  10.398   0.195   8.378  0.2137 -3.7062 -0.9615
49274SOL     OW54682   9.564   8.357   3.092 -0.0402 -0.1405  0.1450
49274SOL    HW154683   9.482   8.322   3.059 -0.3100  1.7177 -1.3237
49274SOL    HW254684   9.628   8.336   3.024  0.0960  0.8790 -0.0517
49275SOL     OW54685   6.012   9.593  11.556  0.3231 -0.3661  0.2613
49275SOL    HW154686   5.942   9.628  11.503 -0.4976 -1.8303  0.3159
49275SOL    HW254687   6.043   9.667  11.608 -1.6151  0.1852  0.7064
49276SOL     OW54688   2.964   3.842   1.519 -0.4214 -0.0835  0.1286
49276SOL    HW154689   2.946   3.823   1.427  0.8843  0.7768 -0.3263
49276SOL    HW254690   2.943   3.760   1.565 -1.5331 -0.3740 -0.8515
49277SOL     OW54691  10.899   2.725   4.431  0.6975 -0.1358  1.1948
49277SOL    HW154692  10.811   2.715   4.396  0.7130 -0.4086  1.2331
49277SOL    HW254693  10.892   2.798   4.492  0.0115 -1.5053  2.8037
49278SOL     OW54694   0.131   1.168   3.772 -0.7465 -0.3880 -0.2448
49278SOL    HW154695   0.180   1.126   3.701 -0.8042  1.2406 -1.2932
49278SOL    HW254696   0.050   1.199   3.731  0.1109  2.3943 -0.0152
49279SOL     OW54697   4.625   3.192   3.818  0.0882  0.0202 -0.5309
49279SOL    HW154698   4.717   3.168   3.808  0.2934  0.9536 -1.0002
49279SOL    HW254699   4.623   3.243   3.900 -0.0742 -0.2693 -0.3517
49280SOL     OW54700   5.657   3.357   2.185  0.2890 -0.2192  0.1303
49280SOL    HW154701   5.675   3.291   2.252  1.6248 -0.5975 -0.5656
49280SOL    HW254702   5.689   3.438   2.223 -1.4072  0.0991  1.0121
49281SOL     OW54703   8.001   9.722   6.388 -0.3283  0.5058  0.2396
49281SOL    HW154704   7.924   9.666   6.399 -1.0385  1.3594 -0.2547
49281SOL    HW254705   7.988   9.792   6.451 -0.4986  1.2146 -0.5595
49282SOL     OW54706  11.020   0.270   3.638  0.3036 -0.1489 -0.5985
49282SOL    HW154707  11.092   0.332   3.630 -0.5198  1.0725  0.8681
49282SOL    HW254708  10.942   0.321   3.617 -0.2881 -1.0354 -0.6136
49283SOL     OW54709   0.601   2.567   0.106  0.2384 -0.0112  0.8519
49283SOL    HW154710   0.519   2.586   0.060 -0.0234  1.4213  1.8244
49283SOL    HW254711   0.576   2.563   0.198  1.0850 -0.6996  1.0617
49284SOL     OW54712   2.871   6.110   2.732  0.5883 -0.2196  1.1885
49284SOL    HW154713   2.963   6.133   2.747  0.3887  0.6722  1.0995
49284SOL    HW254714   2.823   6.161   2.797  0.1723 -0.8391  1.3681
49285SOL     OW54715   7.121   2.991   2.526  0.0964  0.3428  0.4504
49285SOL    HW154716   7.134   3.014   2.618  1.0073 -1.2913  0.7821
49285SOL    HW254717   7.053   3.050   2.496  1.2819  2.4066  1.5553
49286SOL     OW54718   3.968   1.050   3.732 -0.0240  0.4426  1.1278
49286SOL    HW154719   3.950   0.979   3.794  0.2186  0.2680  1.0039
49286SOL    HW254720   3.920   1.125   3.766 -2.0169 -0.3069  0.1398
49287SOL     OW54721   0.659   8.726   5.152 -0.4129 -0.4185 -0.5418
49287SOL    HW154722   0.590   8.758   5.210  1.4319 -1.2667  2.3716
49287SOL    HW254723   0.654   8.631   5.159  2.1672 -0.5254  1.3933
49288SOL     OW54724   5.360   5.027   4.396  0.3962 -0.1378  0.2300
49288SOL    HW154725   5.265   5.031   4.386  0.4330  3.1189  0.0474
49288SOL    HW254726   5.387   4.954   4.340 -1.8142  0.4150 -1.7306
49289SOL     OW54727   4.709   3.473   1.892 -0.5112  0.3782 -0.2540
49289SOL    HW154728   4.682   3.513   1.810  1.9888  1.7650 -0.5224
49289SOL    HW254729   4.637   3.491   1.953 -2.7472 -1.3558 -2.2548
49290SOL     OW54730   0.731   9.640   7.462  0.3184 -0.3297 -0.2801
49290SOL    HW154731   0.702   9.645   7.553  0.5542 -0.5640 -0.1893
49290SOL    HW254732   0.733   9.546   7.443  0.5093 -0.2908 -0.4508
49291SOL     OW54733   2.751   8.028   9.297 -0.1141  0.0095  0.5236
49291SOL    HW154734   2.802   7.963   9.248  0.3015 -0.4094  1.4889
49291SOL    HW254735   2.774   8.112   9.256  0.1576 -0.3386 -0.0521
49292SOL     OW54736   5.177   2.550   9.450 -0.0169 -0.1643  0.1232
49292SOL    HW154737   5.181   2.553   9.354  0.5292 -2.6066  0.0131
49292SOL    HW254738   5.268   2.558   9.479 -0.2507  1.3547  0.5091
49293SOL     OW54739   5.589   6.881   4.467  0.1566 -0.2929  0.3945
49293SOL    HW154740   5.613   6.817   4.400 -0.2604  1.2592 -1.3179
49293SOL    HW254741   5.674   6.915   4.497  0.3411 -0.8256  0.4958
49294SOL     OW54742  10.835   4.530   5.922 -0.2632  0.4674 -0.6280
49294SOL    HW154743  10.891   4.547   5.997 -0.4847  0.1899 -0.3983
49294SOL    HW254744  10.804   4.617   5.896 -1.2956  0.4608  0.4729
49295SOL     OW54745   7.865   9.775   0.005 -0.1661 -0.9085  0.1113
49295SOL    HW154746   7.798   9.722   0.049 -1.2595  0.7067  0.4648
49295SOL    HW254747   7.815   9.842  -0.042  1.1765 -0.0733 -0.1656
49296SOL     OW54748   6.453   2.779  10.458 -0.1419 -0.5865 -0.2540
49296SOL    HW154749   6.372   2.817  10.492  1.4251  2.1647  0.7580
49296SOL    HW254750   6.434   2.760  10.367 -1.3160  2.2758 -0.7238
49297SOL     OW54751   7.675   7.789  10.057  0.1278 -0.2291  0.7128
49297SOL    HW154752   7.724   7.871  10.062  1.5465 -1.0280  0.3820
49297SOL    HW254753   7.637   7.789   9.969  0.6149 -0.1951  0.5019
49298SOL     OW54754   0.202   9.249   2.963 -0.4294 -0.5438 -0.5742
49298SOL    HW154755   0.256   9.313   3.011 -0.8366 -0.8297  0.2763
49298SOL    HW254756   0.130   9.301   2.927 -0.7474 -0.5142  0.0968
49299SOL     OW54757   4.571   1.518   9.372 -0.6638 -0.0025  0.0891
49299SOL    HW154758   4.486   1.562   9.374 -1.3983 -1.3706 -0.3437
49299SOL    HW254759   4.554   1.434   9.330  0.8356 -0.4572  0.3411
49300SOL     OW54760   1.968   7.974   3.187  0.1388  0.6433  0.0499
49300SOL    HW154761   1.884   8.019   3.193 -0.0471  0.5320 -1.3898
49300SOL    HW254762   1.985   7.968   3.093 -0.6162 -3.6645  0.0057
49301SOL     OW54763   4.770   3.256   4.408 -0.6603  0.2180  0.0407
49301SOL    HW154764   4.784   3.163   4.427  1.7974  0.5067 -0.0361
49301SOL    HW254765   4.786   3.264   4.314 -0.8808  0.7114  0.0435
49302SOL     OW54766   9.954   7.229   1.263  0.5298 -0.4845  0.4352
49302SOL    HW154767   9.866   7.233   1.299  0.9857  0.5164  1.4811
49302SOL    HW254768   9.968   7.135   1.246 -1.0175 -0.5710 -0.5287
49303SOL     OW54769   2.550   8.636   1.222  0.3311 -0.3060  0.3156
49303SOL    HW154770   2.504   8.657   1.140 -1.0889  0.1520  1.1808
49303SOL    HW254771   2.524   8.546   1.241  0.7669 -0.4574  0.1959
49304SOL     OW54772  10.665  11.146   2.607  0.8842  0.2285 -0.1131
49304SOL    HW154773  10.627  11.177   2.525  0.4789  0.4257  0.1454
49304SOL    HW254774  10.712  11.222   2.642  1.2632  0.0747 -0.2806
49305SOL     OW54775  11.933   1.544   0.949 -0.2239  0.4533  0.3936
49305SOL    HW154776  11.857   1.525   1.002 -1.1589  3.6237  0.4060
49305SOL    HW254777  12.003   1.563   1.012 -0.3603  0.8237  0.4327
49306SOL     OW54778   9.855  10.933   7.107  0.6606  0.1635 -0.3799
49306SOL    HW154779   9.772  10.892   7.131  0.0581  2.1671  1.2167
49306SOL    HW254780   9.839  10.968   7.019  0.0835 -0.1631 -0.4094
49307SOL     OW54781   1.969   3.594   8.635  0.5714 -0.2822  0.4435
49307SOL    HW154782   1.942   3.655   8.703 -2.0244 -1.1110  0.2660
49307SOL    HW254783   2.051   3.630   8.601 -0.0376  2.1832  1.4202
49308SOL     OW54784   7.253   5.357  12.469 -0.2046  0.3525 -0.0580
49308SOL    HW154785   7.252   5.358  12.564 -0.6959  0.1484 -0.0555
49308SOL    HW254786   7.305   5.433  12.444 -1.0902  1.1051  0.3550
49309SOL     OW54787  10.726   7.263  11.813  0.0590  0.4783  0.2265
49309SOL    HW154788  10.795   7.304  11.761  0.3882  0.2047  0.4414
49309SOL    HW254789  10.711   7.325  11.885  0.0691  0.5442  0.1728
49310SOL     OW54790   6.959  11.740   3.822  0.2007  0.5722  0.3444
49310SOL    HW154791   6.945  11.753   3.915  0.0432  0.6189  0.3139
49310SOL    HW254792   7.055  11.741   3.812  0.2217  0.4421  0.5220
49311SOL     OW54793   8.720  10.669   3.739  0.2492  0.0561 -0.0071
49311SOL    HW154794   8.745  10.654   3.648  1.9631  0.2396  0.4031
49311SOL    HW254795   8.746  10.760   3.757 -2.6107  0.9887 -0.1001
49312SOL     OW54796   9.367   6.655   5.207  0.3091  0.1773  0.1580
49312SOL    HW154797   9.358   6.749   5.223  1.1524  0.5607 -1.4742
49312SOL    HW254798   9.307   6.637   5.135  0.2597 -0.5103  0.3686
49313SOL     OW54799   2.244   5.882   8.348  0.2725 -0.0113 -1.0315
49313SOL    HW154800   2.159   5.846   8.323 -1.5071  1.9755  1.5861
49313SOL    HW254801   2.307   5.813   8.327 -2.4740 -3.3372  0.7845
49314SOL     OW54802   3.018   8.582   1.325 -0.8381  0.3921  0.4625
49314SOL    HW154803   3.044   8.635   1.250 -2.8582  0.3820 -0.3225
49314SOL    HW254804   3.043   8.633   1.402 -1.2305  1.7148 -0.2662
49315SOL     OW54805   9.264   0.348   2.259 -0.2626 -0.2777 -0.0543
49315SOL    HW154806   9.266   0.373   2.351  2.6168  0.2630 -0.1686
49315SOL    HW254807   9.283   0.429   2.211 -1.3016 -0.6361 -1.1007
49316SOL     OW54808   6.011  12.467   7.713 -0.3168 -0.3178  0.5070
49316SOL    HW154809   6.089  12.495   7.761 -0.8711  0.7632  0.8110
49316SOL    HW254810   5.951  12.437   7.781 -0.2270 -1.0020  0.2866
49317SOL     OW54811   4.581   7.118   5.606  0.3476  0.6890 -0.5508
49317SOL    HW154812   4.601   7.207   5.579 -1.7670  0.8424 -1.8265
49317SOL    HW254813   4.627   7.063   5.543 -0.4775  0.9639 -1.4196
49318SOL     OW54814   4.552   0.009   1.983 -0.1809 -0.1733 -0.5607
49318SOL    HW154815   4.612   0.032   2.053  0.0917 -1.9736 -0.1611
49318SOL    HW254816   4.511   0.092   1.959  1.2967  0.8342  0.2258
49319SOL     OW54817  10.393  12.260   2.868 -0.4367  0.0261  0.9180
49319SOL    HW154818  10.363  12.224   2.952 -0.1772 -1.4117  0.4369
49319SOL    HW254819  10.346  12.208   2.802  0.7913 -0.1944  0.1752
49320SOL     OW54820   7.870   6.282   5.878  0.1491 -0.7519  0.1517
49320SOL    HW154821   7.792   6.231   5.901 -0.7516  0.3939 -0.2742
49320SOL    HW254822   7.866   6.291   5.783  1.4985 -1.7286 -0.0378
49321SOL     OW54823   4.469   0.259   1.892  0.3353  0.1652  0.2692
49321SOL    HW154824   4.521   0.333   1.861 -0.4048  0.0560 -1.3193
49321SOL    HW254825   4.383   0.296   1.911  0.0408 -0.2368 -0.2736
49322SOL     OW54826  11.784   5.356   4.244 -0.1596 -0.5420 -0.1892
49322SOL    HW154827  11.721   5.412   4.199 -2.8378 -0.7888  2.9436
49322SOL    HW254828  11.859   5.413   4.262 -1.2921  1.0017 -0.2400
49323SOL     OW54829  11.728   7.642   4.403  0.4919  0.3485 -0.1148
49323SOL    HW154830  11.728   7.577   4.333  1.8732  0.8503 -0.6223
49323SOL    HW254831  11.742   7.725   4.358  2.1673  0.5991  0.7724
49324SOL     OW54832   6.959   6.858  10.040 -0.1045  0.4892 -0.8644
49324SOL    HW154833   6.863   6.852  10.036 -0.2308  1.0769  0.7521
49324SOL    HW254834   6.986   6.860   9.948 -1.5557 -0.7936 -1.3687
49325SOL     OW54835   6.419   5.396   2.367 -0.8384 -0.0378 -0.3323
49325SOL    HW154836   6.480   5.328   2.396 -0.5497 -0.0560 -0.9524
49325SOL    HW254837   6.367   5.416   2.444 -1.4381 -1.5156 -0.3137
49326SOL     OW54838   3.222   1.161   3.313  0.1877  0.2536  0.0293
49326SOL    HW154839   3.128   1.163   3.297  0.0588  1.1872  0.8524
49326SOL    HW254840   3.242   1.245   3.354  0.6350 -1.4448  3.7636
49327SOL     OW54841   5.970   2.484   6.177  0.5603 -0.2038  0.0000
49327SOL    HW154842   5.969   2.422   6.249 -1.2286  0.1155  0.2848
49327SOL    HW254843   5.878   2.504   6.161  1.0187  1.0830 -1.2041
49328SOL     OW54844  12.425  10.205   0.888  0.3757 -0.4267  0.3191
49328SOL    HW154845  12.360  10.212   0.819 -0.1523  0.6634  0.8888
49328SOL    HW254846  12.505  10.244   0.851  0.2200 -0.2524  0.1692
49329SOL     OW54847   5.609  12.045   0.031  0.3287 -0.0007 -0.0782
49329SOL    HW154848   5.607  12.106   0.104 -0.0334 -2.4410  2.1038
49329SOL    HW254849   5.542  12.077  -0.030 -0.8469  0.9587  1.6540
49330SOL     OW54850   0.947   1.322   2.834 -0.4843  0.4806  0.7783
49330SOL    HW154851   0.920   1.235   2.865 -1.1861 -0.0773 -1.2311
49330SOL    HW254852   0.995   1.304   2.753 -0.1857  1.9495  0.5996
49331SOL     OW54853   6.644  11.198   5.070 -0.0342 -0.5895 -0.0474
49331SOL    HW154854   6.606  11.158   5.149  0.5372 -0.5422  0.2558
49331SOL    HW254855   6.629  11.292   5.082 -1.0576 -0.6652 -0.5919
49332SOL     OW54856   2.278  10.545  10.380 -0.2582  0.4990 -0.0912
49332SOL    HW154857   2.275  10.499  10.296 -0.5744  1.7374 -0.7917
49332SOL    HW254858   2.191  10.532  10.418 -0.8122  1.6267 -0.9266
49333SOL     OW54859  11.606   0.940   3.099  0.0344  0.0839  0.7437
49333SOL    HW154860  11.661   0.905   3.029 -1.1138 -1.4180  0.5635
49333SOL    HW254861  11.610   1.035   3.086  0.8647 -0.0986 -0.5690
49334SOL     OW54862   8.154   6.040   5.963  0.2311 -0.2021  0.4455
49334SOL    HW154863   8.154   5.965   6.023  1.3800 -0.8553 -0.3444
49334SOL    HW254864   8.126   6.114   6.018  1.1898 -0.7850  1.7883
49335SOL     OW54865  12.343   8.893  10.383 -0.2333  0.8324 -0.5921
49335SOL    HW154866  12.417   8.884  10.323 -0.5963 -1.4294 -0.8038
49335SOL    HW254867  12.383   8.892  10.470  0.0547 -0.0107 -0.7163
49336SOL     OW54868  10.168   9.429   0.574 -0.0784 -0.7637  0.2939
49336SOL    HW154869  10.126   9.515   0.570  1.0484 -0.2146 -0.3023
49336SOL    HW254870  10.113   9.372   0.521  0.2729  0.1094 -1.0671
49337SOL     OW54871   3.737   0.063   7.896 -0.5143 -0.0390  0.0863
49337SOL    HW154872   3.677  -0.007   7.870 -0.5607 -0.6401  1.7167
49337SOL    HW254873   3.769   0.037   7.982  1.1038  0.9207 -0.1740
49338SOL     OW54874   3.801   8.937   0.702  0.4766  0.3814  0.5300
49338SOL    HW154875   3.850   8.855   0.710  2.2744  1.2557 -0.8732
49338SOL    HW254876   3.725   8.914   0.649  0.7309 -0.4786  0.5199
49339SOL     OW54877   6.360  11.429   7.883 -0.2947  0.7711  0.4932
49339SOL    HW154878   6.447  11.466   7.894 -0.4219  1.1656  0.2257
49339SOL    HW254879   6.373  11.355   7.823  0.0081  0.1840  1.2747
49340SOL     OW54880   6.443  11.731   4.684 -0.2516 -0.1752 -0.4543
49340SOL    HW154881   6.484  11.652   4.648  2.0651  0.6303  0.2336
49340SOL    HW254882   6.387  11.700   4.755  1.2908 -1.1780  0.3752
49341SOL     OW54883   9.832   4.852   5.329 -0.0321  0.2914  0.1972
49341SOL    HW154884   9.922   4.839   5.357 -0.2619  1.2034  1.4216
49341SOL    HW254885   9.839   4.904   5.249  0.4882  2.0022  1.3131
49342SOL     OW54886   9.454  10.462  11.472 -0.0768 -0.4306  0.0262
49342SOL    HW154887   9.395  10.391  11.497 -0.3862  0.1887  1.1249
49342SOL    HW254888   9.510  10.475  11.549  2.2833 -1.7449 -1.3641
49343SOL     OW54889  11.722   5.146   5.269  0.0892  0.2231 -0.0737
49343SOL    HW154890  11.703   5.181   5.356 -1.5276  0.0975 -0.3452
49343SOL    HW254891  11.639   5.151   5.222  0.8831  0.1478 -1.5770
49344SOL     OW54892   2.268   4.897  10.188 -0.6940  0.7114 -0.0332
49344SOL    HW154893   2.342   4.871  10.242 -0.2994 -0.9133 -1.2829
49344SOL    HW254894   2.191   4.865  10.234 -0.8398  3.5299  1.9414
49345SOL     OW54895   8.702   0.771   2.811 -0.3816 -0.7739  0.1196
49345SOL    HW154896   8.609   0.787   2.802 -0.1368 -0.0508 -1.6515
49345SOL    HW254897   8.717   0.692   2.759  0.1419 -0.2659 -0.5213
49346SOL     OW54898   1.186   2.043   5.984 -0.4275 -0.3338 -0.0890
49346SOL    HW154899   1.160   2.106   6.051 -1.9056 -0.0294 -0.9000
49346SOL    HW254900   1.249   2.089   5.929 -1.8359  0.6591 -0.9484
49347SOL     OW54901   1.637  12.198   2.119  0.3277 -0.5870  0.2816
49347SOL    HW154902   1.695  12.273   2.111  0.1985 -0.6505 -2.4298
49347SOL    HW254903   1.653  12.163   2.206  2.2533  1.0702  0.6503
49348SOL     OW54904  12.073   0.532   4.443 -0.5676  0.5210 -0.5192
49348SOL    HW154905  12.069   0.616   4.489  0.9903 -1.7933  4.6239
49348SOL    HW254906  12.164   0.524   4.415 -0.2421 -0.0403  0.6063
49349SOL     OW54907  11.789   7.060   6.548  0.4303  0.1048 -0.6951
49349SOL    HW154908  11.782   7.154   6.566  1.0007  0.2061 -0.9953
49349SOL    HW254909  11.802   7.055   6.454 -0.0974 -0.3073 -0.7492
49350SOL     OW54910   4.350   7.783   8.257 -0.5913  0.3609  0.1281
49350SOL    HW154911   4.259   7.796   8.284  0.1867  1.1372  2.7697
49350SOL    HW254912   4.382   7.712   8.313  0.6957  0.8316  0.0281
49351SOL     OW54913   0.566   0.310   2.803 -0.1170 -0.3044 -0.2088
49351SOL    HW154914   0.639   0.332   2.745 -1.3273  1.3226 -1.2064
49351SOL    HW254915   0.551   0.217   2.789  0.8307 -0.3512 -1.0660
49352SOL     OW54916   2.810   8.655   1.153 -0.0681 -0.4327 -0.1999
49352SOL    HW154917   2.864   8.642   1.230 -0.3154  1.1398  0.2674
49352SOL    HW254918   2.721   8.663   1.187 -0.3702 -1.1083 -0.7915
49353SOL     OW54919  10.028   5.433   3.801  0.0899 -0.5177  0.4091
49353SOL    HW154920  10.078   5.384   3.866 -0.2847 -1.8944 -0.2913
49353SOL    HW254921  10.052   5.392   3.717 -0.3015  0.4595 -0.1960
49354SOL     OW54922   3.081  10.487   4.163 -0.1804  0.6822  0.0080
49354SOL    HW154923   3.022  10.529   4.101 -1.8106  0.7361  1.5238
49354SOL    HW254924   3.044  10.401   4.178  0.7020  0.3264  0.2395
49355SOL     OW54925   0.803  10.170  11.120 -0.3644  0.8104  0.9942
49355SOL    HW154926   0.767  10.082  11.131  0.3671  0.3793  0.0603
49355SOL    HW254927   0.729  10.228  11.137 -0.8148  0.0318  1.7963
49356SOL     OW54928   2.684   2.647   1.173 -0.0269 -0.1541 -0.0543
49356SOL    HW154929   2.766   2.598   1.172  0.9554  1.4039  0.0508
49356SOL    HW254930   2.666   2.663   1.266  1.8220  2.9789 -0.0840
49357SOL     OW54931   1.184  11.354   3.097 -0.6755  0.2751  0.3263
49357SOL    HW154932   1.236  11.398   3.164 -2.4898 -0.4227  2.3112
49357SOL    HW254933   1.156  11.424   3.038  1.0775  0.8832  0.1487
49358SOL     OW54934   5.202   5.708   7.404 -1.2765  0.1306  0.3079
49358SOL    HW154935   5.207   5.619   7.438 -0.3323  0.7517  1.8940
49358SOL    HW254936   5.150   5.756   7.469 -0.5137  1.0648  0.2490
49359SOL     OW54937   5.543   3.462   1.057 -0.3652  0.3932  0.1364
49359SOL    HW154938   5.491   3.543   1.055  0.0797  0.6763 -0.1804
49359SOL    HW254939   5.625   3.485   1.014  0.0722 -0.0244  0.7276
49360SOL     OW54940   0.509   8.320  10.769  0.4482 -0.0353 -0.2215
49360SOL    HW154941   0.569   8.281  10.705  2.4444  0.5687  1.1647
49360SOL    HW254942   0.540   8.410  10.779 -1.7534  0.8270 -0.6186
49361SOL     OW54943  11.920   1.540   2.798  0.6427  0.2012 -0.0661
49361SOL    HW154944  11.952   1.531   2.888  0.8092  0.3221 -0.1123
49361SOL    HW254945  11.828   1.564   2.808  0.3352 -0.9548  0.0635
49362SOL     OW54946   9.279   7.720   4.106  0.2747  0.5157 -0.3610
49362SOL    HW154947   9.294   7.743   4.015 -2.1502 -0.0154 -0.9615
49362SOL    HW254948   9.222   7.643   4.102  0.6189  0.1004  1.6167
49363SOL     OW54949   7.323   0.256   0.219  0.5739 -0.4293 -0.5642
49363SOL    HW154950   7.364   0.170   0.210 -0.2357 -0.9882  0.8438
49363SOL    HW254951   7.396   0.315   0.239  0.9692 -1.0393 -0.1622
49364SOL     OW54952   0.149   3.096   9.700  0.3406 -0.3471 -0.1061
49364SOL    HW154953   0.143   3.017   9.754 -0.1277  0.1896  0.6508
49364SOL    HW254954   0.061   3.106   9.663  0.3428 -0.0868 -0.0464
49365SOL     OW54955   9.190   8.640   9.512  0.3897  0.4038 -0.2517
49365SOL    HW154956   9.178   8.550   9.542  1.4625  0.6543  1.0072
49365SOL    HW254957   9.129   8.691   9.565  0.4952  0.5460 -0.2688
49366SOL     OW54958   0.994   5.133   9.520  0.6858 -0.1178 -0.2819
49366SOL    HW154959   1.051   5.184   9.462  0.3207  0.5353 -0.0689
49366SOL    HW254960   1.004   5.043   9.489  0.6214  0.1964 -1.2564
49367SOL     OW54961   1.178   7.729  12.309  0.4566 -0.2850  0.1939
49367SOL    HW154962   1.183   7.805  12.367  0.6223  1.1428 -1.5908
49367SOL    HW254963   1.269   7.703  12.296  0.3772 -0.9983  1.0670
49368SOL     OW54964   0.712   2.425  12.388 -0.5550 -0.2688 -0.3473
49368SOL    HW154965   0.672   2.470  12.462 -1.0783  0.3730 -1.0009
49368SOL    HW254966   0.667   2.461  12.311  0.5214 -0.3408 -1.0317
49369SOL     OW54967  10.140   5.233   2.158  0.1402 -0.6814  0.4455
49369SOL    HW154968  10.097   5.293   2.219 -1.5613 -0.5771 -0.8064
49369SOL    HW254969  10.136   5.148   2.201 -1.2787 -0.6564  0.4001
49370SOL     OW54970   4.727   2.789   7.750 -0.3500  0.6494 -0.4088
49370SOL    HW154971   4.671   2.737   7.692 -0.7471  2.0837 -1.3444
49370SOL    HW254972   4.683   2.873   7.758  1.4275  1.6677 -0.7989
49371SOL     OW54973  11.574  11.496  11.623  0.0056 -1.4117  0.1419
49371SOL    HW154974  11.635  11.423  11.615 -2.3895 -3.7202  1.3659
49371SOL    HW254975  11.540  11.509  11.534  1.1345 -1.1074 -0.2581
49372SOL     OW54976   4.969   7.613   8.808 -0.0509  0.2948 -0.4171
49372SOL    HW154977   4.906   7.557   8.762 -1.6180  2.8270 -1.5414
49372SOL    HW254978   5.054   7.577   8.785 -0.9397 -1.0048 -1.8983
49373SOL     OW54979   3.187   6.413   2.066  0.0314 -0.4221  0.0760
49373SOL    HW154980   3.231   6.347   2.119  0.1992  0.3224  0.8759
49373SOL    HW254981   3.201   6.384   1.976  0.5006 -1.2233  0.3981
49374SOL     OW54982   9.415  11.492   0.197 -0.0392  0.3610 -0.3303
49374SOL    HW154983   9.404  11.418   0.138  1.4253 -0.2043  0.0604
49374SOL    HW254984   9.469  11.458   0.268  2.2311  2.2429 -1.0401
49375SOL     OW54985   7.950   8.580   1.524  0.1939 -0.4361  0.3309
49375SOL    HW154986   7.919   8.587   1.614 -1.7263  0.4983 -0.3443
49375SOL    HW254987   7.886   8.630   1.473  2.2716  0.7100 -1.3235
49376SOL     OW54988  11.271  10.420   7.173 -0.9021  0.1663  0.1358
49376SOL    HW154989  11.204  10.409   7.106 -0.1633  0.3337 -0.6528
49376SOL    HW254990  11.344  10.462   7.127  0.3206 -1.3682  0.5908
49377SOL     OW54991  10.657   2.620  10.649 -0.2489  0.5514  0.1799
49377SOL    HW154992  10.580   2.659  10.609 -0.2335  1.9713  1.4610
49377SOL    HW254993  10.633   2.608  10.741 -0.4587 -3.0628 -0.1811
49378SOL     OW54994   1.255   1.104   6.302 -0.3206 -0.1666 -0.6235
49378SOL    HW154995   1.196   1.100   6.377  1.5391 -0.1905  0.9132
49378SOL    HW254996   1.231   1.185   6.257  0.0353  1.1046  1.3674
49379SOL     OW54997   5.356  11.228   8.506  0.4922 -0.2196 -0.3600
49379SOL    HW154998   5.307  11.186   8.577 -1.0480 -2.8113 -2.7511
49379SOL    HW254999   5.331  11.320   8.511 -3.0092 -1.0381 -0.0627
49380SOL     OW55000   2.361   9.052   5.800  0.0621 -0.5276  0.2972
49380SOL    HW155001   2.398   9.064   5.713 -3.4027 -2.6412 -1.7121
49380SOL    HW255002   2.386   8.963   5.825  0.1885 -0.3012  1.0078
49381SOL     OW55003   2.967   2.894   8.777  0.3853 -0.6709  0.2978
49381SOL    HW155004   3.051   2.852   8.799  0.0725 -0.7241  1.4761
49381SOL    HW255005   2.901   2.830   8.804 -0.0500 -0.7845 -0.9645
49382SOL     OW55006   5.224   8.507   1.266  0.5643  0.3663  0.1637
49382SOL    HW155007   5.289   8.472   1.327  0.3749 -1.2848 -0.5119
49382SOL    HW255008   5.218   8.440   1.197  1.1309  2.3711 -1.9432
49383SOL     OW55009  10.791   3.151   8.235  0.3346 -0.4055 -0.7614
49383SOL    HW155010  10.855   3.122   8.300  1.9376  0.6078 -1.8258
49383SOL    HW255011  10.746   3.071   8.208  0.7719 -1.0629  0.3833
49384SOL     OW55012  12.094   5.496   9.318  0.6950 -0.4591  0.1405
49384SOL    HW155013  12.161   5.437   9.284  0.5638 -1.3329  1.3308
49384SOL    HW255014  12.012   5.460   9.287  0.6840 -0.1777 -0.1655
49385SOL     OW55015   9.770   9.525   0.340  0.4644  0.5057  0.8129
49385SOL    HW155016   9.745   9.584   0.269  0.8717 -0.6889 -0.3958
49385SOL    HW255017   9.687   9.488   0.372  0.3373  0.2210  0.1750
49386SOL     OW55018   8.997   6.284   0.615  0.0490  0.0808  0.2186
49386SOL    HW155019   8.921   6.236   0.583  0.7159 -0.8633 -0.0055
49386SOL    HW255020   9.040   6.224   0.676  0.2166  0.8818  0.9049
49387SOL     OW55021   9.661   6.739  11.478  0.3110  0.2196 -0.6051
49387SOL    HW155022   9.690   6.761  11.566  1.2767  0.1685 -0.8970
49387SOL    HW255023   9.732   6.685  11.442 -0.9309 -1.4134 -0.7325
49388SOL     OW55024   9.517  11.263  10.105  0.1230  0.0869 -0.5745
49388SOL    HW155025   9.453  11.221  10.048  0.5729 -1.3883 -0.0362
49388SOL    HW255026   9.602  11.234  10.072  0.5451  1.6684 -1.0125
49389SOL     OW55027  10.709   9.191   0.182 -0.0329 -0.1362 -0.2993
49389SOL    HW155028  10.681   9.125   0.245  0.6459 -1.4653 -1.3282
49389SOL    HW255029  10.639   9.256   0.182 -0.3889 -0.4971  1.2473
49390SOL     OW55030   9.571   3.111   0.224 -0.7303 -0.1645 -0.3526
49390SOL    HW155031   9.589   3.175   0.293  2.2177 -1.9774  0.7605
49390SOL    HW255032   9.516   3.046   0.266  0.2383 -0.7547  0.0383
49391SOL     OW55033   9.819  11.917   6.287 -0.3002 -0.0142  0.0419
49391SOL    HW155034   9.891  11.921   6.224 -1.1858 -0.1380 -1.0098
49391SOL    HW255035   9.761  11.988   6.260 -0.3614  0.3804  1.1659
49392SOL     OW55036   8.572   6.276   5.236  0.3492  0.5050 -0.3715
49392SOL    HW155037   8.503   6.309   5.295 -0.0447 -0.4707 -0.2689
49392SOL    HW255038   8.534   6.285   5.149 -0.0633 -0.3779 -0.2883
49393SOL     OW55039  10.757  12.321   1.216 -0.1461  0.0512  0.0157
49393SOL    HW155040  10.692  12.262   1.253 -0.5777  0.3706 -0.2381
49393SOL    HW255041  10.707  12.394   1.180  0.4103  0.8204  0.7577
49394SOL     OW55042  10.567   9.065  11.077  0.0525 -0.1651  0.3446
49394SOL    HW155043  10.529   9.066  10.989  1.6388 -0.4252 -0.3786
49394SOL    HW255044  10.573   9.158  11.101 -0.4120 -0.0966  0.2095
49395SOL     OW55045  12.360   6.385  10.797 -0.7370  0.2671  0.8329
49395SOL    HW155046  12.373   6.446  10.724 -0.4414 -0.1164  0.5652
49395SOL    HW255047  12.397   6.430  10.873  1.4442 -0.4522  0.2538
49396SOL     OW55048   1.960   2.170   1.479  0.4145 -0.0662 -0.7739
49396SOL    HW155049   1.898   2.226   1.432 -0.1246 -0.3212 -0.3704
49396SOL    HW255050   1.946   2.190   1.571 -0.7377 -1.8022 -0.5262
49397SOL     OW55051   4.192   2.016   1.434  0.3172 -1.2097 -0.1877
49397SOL    HW155052   4.266   1.980   1.482 -1.0451 -0.7427  2.4970
49397SOL    HW255053   4.226   2.037   1.348  3.0983 -1.6306  0.7226
49398SOL     OW55054   0.524   1.754   3.617  0.4267 -0.2701  0.5742
49398SOL    HW155055   0.543   1.698   3.692 -0.3532  0.5497  1.4118
49398SOL    HW255056   0.492   1.694   3.550  0.8978 -0.9901  0.9819
49399SOL     OW55057   1.685   9.934   0.743 -0.7717  0.0452 -0.2712
49399SOL    HW155058   1.623  10.006   0.734 -1.5527  0.2034  3.9480
49399SOL    HW255059   1.633   9.863   0.782  0.5483 -1.9010 -1.8661
49400SOL     OW55060   1.853   7.899  10.787 -0.3467  0.1129 -0.4952
49400SOL    HW155061   1.853   7.963  10.716 -0.5392 -0.2127 -0.7951
49400SOL    HW255062   1.816   7.946  10.862  3.3981  1.7097  0.5749
49401SOL     OW55063  11.377   3.283   2.174 -0.0867 -0.1292 -0.0357
49401SOL    HW155064  11.344   3.233   2.100  1.6500 -2.1940  0.4978
49401SOL    HW255065  11.415   3.218   2.233 -0.3564  1.5453  2.1393
49402SOL     OW55066  10.373   7.426   6.425  0.0818  0.4683 -0.6674
49402SOL    HW155067  10.299   7.443   6.366 -0.1915  0.9368 -0.2095
49402SOL    HW255068  10.430   7.502   6.414 -0.1206  0.7056 -0.1169
49403SOL     OW55069   0.160   0.101   9.855 -0.3218  0.0532 -0.3797
49403SOL    HW155070   0.255   0.095   9.846 -0.3306  1.8109 -2.3932
49403SOL    HW255071   0.147   0.169   9.922 -0.1696  0.0465 -0.3414
49404SOL     OW55072   8.075  12.175  10.875 -0.1897  0.1672  0.1974
49404SOL    HW155073   8.029  12.191  10.792  0.7805 -0.2039 -0.4351
49404SOL    HW255074   8.138  12.106  10.854 -0.5208 -0.5566  1.4763
49405SOL     OW55075   7.018   4.655   8.513  0.4932 -0.0297 -0.2242
49405SOL    HW155076   6.987   4.725   8.572 -1.4981 -0.8920 -0.1737
49405SOL    HW255077   7.110   4.643   8.537 -0.2195 -0.3628  2.8146
49406SOL     OW55078  10.757   6.254   8.990  0.5005 -0.0217 -0.3470
49406SOL    HW155079  10.846   6.233   8.962  0.7821  0.3070  0.2888
49406SOL    HW255080  10.720   6.304   8.917  1.5975  1.7945  0.2764
49407SOL     OW55081   3.173   5.369  10.316  0.2245  0.4905  0.9853
49407SOL    HW155082   3.208   5.456  10.336  1.7474 -0.3694  2.3169
49407SOL    HW255083   3.232   5.334  10.249 -0.6123  0.6113  0.1691
49408SOL     OW55084  11.772   0.243  11.824  0.6093  0.0885  0.0313
49408SOL    HW155085  11.744   0.180  11.759  1.5794  0.0308 -0.3519
49408SOL    HW255086  11.803   0.318  11.773  2.9435 -0.5970  0.2937
49409SOL     OW55087   0.313   9.869   9.184 -0.0195 -0.1653 -0.3574
49409SOL    HW155088   0.300   9.907   9.097  0.5088  0.2256 -0.2695
49409SOL    HW255089   0.256   9.792   9.185 -0.6179  0.2629 -0.7673
49410SOL     OW55090   0.016  10.286   6.389 -0.6525 -0.1762  0.3318
49410SOL    HW155091   0.065  10.233   6.453  0.7998 -0.6791 -1.1420
49410SOL    HW255092  -0.015  10.361   6.440 -1.2643 -1.5151  2.0755
49411SOL     OW55093   7.760  12.058  11.927  0.0725  0.6155  0.1512
49411SOL    HW155094   7.844  12.099  11.950  1.0720 -0.8834 -0.6317
49411SOL    HW255095   7.728  12.022  12.009 -0.7010  2.6332  0.8082
49412SOL     OW55096   9.529   1.944   9.267 -0.3036  0.1177 -0.5691
49412SOL    HW155097   9.604   1.945   9.208 -0.1067 -0.4934 -0.3446
49412SOL    HW255098   9.519   1.851   9.290 -0.0665  0.3925  0.7365
49413SOL     OW55099   9.923   0.361   3.807  0.0820  0.0974  0.3537
49413SOL    HW155100   9.862   0.292   3.831  0.7395 -0.5890  0.0802
49413SOL    HW255101   9.898   0.384   3.717  0.0540  0.0069  0.3379
49414SOL     OW55102   6.903   8.729   1.802 -0.5502  0.2760  0.0137
49414SOL    HW155103   6.833   8.665   1.798 -0.7418  0.4795  0.1194
49414SOL    HW255104   6.978   8.681   1.836 -0.3567 -0.1923 -1.0397
49415SOL     OW55105   1.329  11.068   0.183  0.1299  0.0986 -0.4357
49415SOL    HW155106   1.235  11.052   0.195 -0.2633  0.3285 -2.7868
49415SOL    HW255107   1.371  10.997   0.232 -1.2460 -0.0114  0.6681
49416SOL     OW55108  10.634   7.778  12.401  0.3021  0.2504  0.0709
49416SOL    HW155109  10.615   7.807  12.311  0.3094  1.7956  0.5382
49416SOL    HW255110  10.637   7.683  12.395  1.4882  0.3521 -1.8013
49417SOL     OW55111   0.937  11.288   9.594  0.0215  0.1759 -0.1654
49417SOL    HW155112   0.954  11.335   9.512 -0.6120  1.9217  0.6535
49417SOL    HW255113   0.925  11.197   9.568  1.1558  0.4679 -1.8426
49418SOL     OW55114   7.917   2.523   4.565 -0.5047 -0.1257  0.4279
49418SOL    HW155115   7.824   2.517   4.543 -0.7661 -3.3886  1.8819
49418SOL    HW255116   7.958   2.455   4.511  1.4272  2.3250 -1.4343
49419SOL     OW55117  11.988   3.739   0.520 -0.2085 -0.0792 -0.5572
49419SOL    HW155118  11.955   3.656   0.487 -1.2102  1.0562 -2.6385
49419SOL    HW255119  12.069   3.754   0.471 -0.7987  0.8169 -1.3031
49420SOL     OW55120   7.666   2.421   4.999  0.4430 -0.3521 -0.2260
49420SOL    HW155121   7.704   2.505   4.976  2.5145 -1.5359 -1.4325
49420SOL    HW255122   7.728   2.383   5.061 -0.7502 -0.7926  0.7510
49421SOL     OW55123   9.156   9.597   0.832  0.1941 -0.2459 -0.5389
49421SOL    HW155124   9.106   9.659   0.886  1.5275  0.8215 -0.4683
49421SOL    HW255125   9.219   9.558   0.893  0.8258 -0.0149 -1.0306
49422SOL     OW55126   2.530   9.839   8.521  0.4302 -0.3145 -0.0706
49422SOL    HW155127   2.563   9.825   8.610  0.2543 -0.6339 -0.0537
49422SOL    HW255128   2.605   9.871   8.472  0.3413  0.6128  0.3755
49423SOL     OW55129   3.345   5.616   5.859 -0.1069  0.5412  0.2237
49423SOL    HW155130   3.385   5.586   5.940 -2.8099  0.3497  1.5970
49423SOL    HW255131   3.350   5.540   5.801  0.3849  0.1336  0.7902
49424SOL     OW55132   5.744   3.562   2.635  0.0623 -0.1629 -0.2277
49424SOL    HW155133   5.752   3.614   2.715  2.1630  0.5265 -0.8324
49424SOL    HW255134   5.741   3.471   2.666  2.4426 -0.0224  0.6589
49425SOL     OW55135   9.111   8.109   4.333 -0.3806  0.3170  0.4420
49425SOL    HW155136   9.161   8.187   4.356  0.8235 -0.3678  0.2029
49425SOL    HW255137   9.055   8.093   4.409 -0.7282  1.4761  0.4395
49426SOL     OW55138   8.580   2.658   3.388 -0.1401  0.0002  0.0170
49426SOL    HW155139   8.589   2.627   3.479 -1.6344 -1.3224 -0.2392
49426SOL    HW255140   8.668   2.687   3.364  0.0549  1.5254  2.2680
49427SOL     OW55141  12.059   3.340   7.511 -0.4958 -0.2265  0.1077
49427SOL    HW155142  12.054   3.353   7.605  2.1887 -1.2931  0.4869
49427SOL    HW255143  12.066   3.429   7.475 -0.7635  0.1577  0.9743
49428SOL     OW55144   1.781  12.218   1.567  0.0795  0.3740  0.2893
49428SOL    HW155145   1.775  12.311   1.543  3.8478  0.4498 -0.9472
49428SOL    HW255146   1.738  12.172   1.496 -1.4659  1.0748  0.7095
49429SOL     OW55147  10.353  10.343   0.651  0.7515 -0.7045  0.5355
49429SOL    HW155148  10.297  10.269   0.672 -1.0843  0.8415  1.3357
49429SOL    HW255149  10.425  10.304   0.601 -0.2826 -2.9632  0.6602
49430SOL     OW55150  11.447   7.163  12.188 -0.6661 -0.0929 -0.5429
49430SOL    HW155151  11.499   7.138  12.112 -2.4694 -0.4566 -1.7446
49430SOL    HW255152  11.492   7.124  12.262  0.2859 -1.1207 -1.6208
49431SOL     OW55153   4.686   5.473   6.159  0.5430  1.0667  0.3470
49431SOL    HW155154   4.692   5.384   6.193 -2.1379 -0.0703 -1.7726
49431SOL    HW255155   4.592   5.488   6.147  0.9930  3.6175 -0.8022
49432SOL     OW55156   6.245  12.041   8.295 -0.2578 -0.1227  0.5409
49432SOL    HW155157   6.210  12.078   8.214 -1.2762 -0.3007  0.8809
49432SOL    HW255158   6.167  12.019   8.347  0.3789  0.1789  1.6551
49433SOL     OW55159   4.162   0.722   6.709  0.4258  0.0655 -0.0104
49433SOL    HW155160   4.170   0.775   6.789 -0.9404  1.0085 -0.4615
49433SOL    HW255161   4.069   0.697   6.707  0.0366  1.4850 -2.1726
49434SOL     OW55162   2.240   4.215   8.130  0.1484  0.2938  0.3513
49434SOL    HW155163   2.217   4.255   8.046 -0.4244  0.7365  0.7134
49434SOL    HW255164   2.158   4.175   8.161  0.6114 -0.8163  0.1923
49435SOL     OW55165   2.902   8.651   7.550 -0.3221  0.2857 -0.2334
49435SOL    HW155166   2.958   8.573   7.548 -0.5924  0.0912 -0.3517
49435SOL    HW255167   2.941   8.706   7.618 -1.8251 -1.2486  2.0081
49436SOL     OW55168   6.665   7.701  12.295 -0.1980 -0.4083  0.0583
49436SOL    HW155169   6.606   7.772  12.268 -0.8822 -0.7484  0.6209
49436SOL    HW255170   6.654   7.635  12.227  2.2391  0.9266 -1.8041
49437SOL     OW55171   9.052  11.552   8.111 -0.3648 -0.2096 -0.1066
49437SOL    HW155172   8.987  11.579   8.177  1.3307  0.0212  1.5319
49437SOL    HW255173   9.063  11.630   8.056 -0.0532  0.4109  0.8113
49438SOL     OW55174   1.480  10.105   1.481  0.7129  0.4459  0.5153
49438SOL    HW155175   1.536  10.157   1.539  0.8737  0.1425  0.6334
49438SOL    HW255176   1.391  10.135   1.501  0.8292  0.9105  0.3462
49439SOL     OW55177   3.886  10.887   8.086 -0.0387  0.4123  0.1324
49439SOL    HW155178   3.972  10.904   8.047  0.7906 -0.0696  1.6661
49439SOL    HW255179   3.896  10.911   8.178 -1.4709  0.0804  0.4021
49440SOL     OW55180  10.726   5.904  10.412  0.1812  0.5790  0.0344
49440SOL    HW155181  10.641   5.884  10.452  0.4181  0.2014  0.3496
49440SOL    HW255182  10.786   5.916  10.485  0.5184  0.3110 -0.1924
49441SOL     OW55183  10.971   4.188   7.319  0.3516 -0.4946 -0.0731
49441SOL    HW155184  11.065   4.173   7.310  0.2240 -0.7714 -0.9238
49441SOL    HW255185  10.952   4.260   7.258 -0.2335 -1.3648 -0.9352
49442SOL     OW55186   5.418   2.788  11.511 -0.0037 -0.2910 -0.2231
49442SOL    HW155187   5.448   2.874  11.540 -0.8963  0.2912 -0.9901
49442SOL    HW255188   5.323   2.795  11.509 -0.1228 -1.4572  0.1607
49443SOL     OW55189   1.547   9.983   9.693 -0.3398  0.0709  0.3722
49443SOL    HW155190   1.473   9.935   9.656  0.3361 -2.6552  2.2688
49443SOL    HW255191   1.531   9.982   9.788  1.4435  0.6552  0.7124
49444SOL     OW55192  10.965   6.466   9.295 -0.3175  0.4135 -0.4189
49444SOL    HW155193  10.889   6.407   9.288 -0.0539 -0.0913  0.7852
49444SOL    HW255194  10.949   6.515   9.375  0.8559 -0.0328  0.1007
49445SOL     OW55195   4.412   8.933  11.494 -0.3138  0.6439  0.7559
49445SOL    HW155196   4.328   8.950  11.450 -0.1503 -3.1212 -1.4690
49445SOL    HW255197   4.387   8.905  11.582 -1.1793  1.9456  0.9494
49446SOL     OW55198   0.057   3.873   1.657  0.3499  0.1612  0.8030
49446SOL    HW155199   0.039   3.951   1.604  0.9727 -0.2308 -0.0128
49446SOL    HW255200   0.133   3.897   1.710  0.5739  0.1036  0.5141
49447SOL     OW55201   6.306   1.176   1.630  0.0847  0.5989 -0.2505
49447SOL    HW155202   6.330   1.097   1.581  0.5160 -0.1032  1.0261
49447SOL    HW255203   6.210   1.171   1.638  0.1367  0.0088  0.1065
49448SOL     OW55204   9.317   0.106   3.519 -0.0515 -0.1461 -0.1427
49448SOL    HW155205   9.252   0.037   3.508 -1.3094  0.6521  1.7679
49448SOL    HW255206   9.272   0.174   3.569  2.2010  0.4766  1.1908
49449SOL     OW55207   8.448   8.208   1.366  0.1388  0.1765  0.3926
49449SOL    HW155208   8.394   8.216   1.288  1.0198  0.0691 -0.2337
49449SOL    HW255209   8.385   8.193   1.437 -0.9219  3.1167  0.2016
49450SOL     OW55210   2.244   0.398   1.061 -0.2845 -0.4042  0.2554
49450SOL    HW155211   2.218   0.314   1.022  0.3564 -1.0438  1.1726
49450SOL    HW255212   2.301   0.437   0.995 -1.7064 -0.0168 -0.7947
49451SOL     OW55213   6.361   0.482   5.715 -0.0676 -0.5433  0.1766
49451SOL    HW155214   6.388   0.432   5.638 -1.0864 -1.3733  0.3360
49451SOL    HW255215   6.396   0.570   5.700 -0.0089 -0.7696 -1.0989
49452SOL     OW55216   8.231   8.481   6.722  0.2043  0.2805 -0.3919
49452SOL    HW155217   8.311   8.491   6.671  0.6120 -1.9854 -0.3033
49452SOL    HW255218   8.164   8.461   6.658  0.4379 -1.1654 -0.2379
49453SOL     OW55219   3.929   5.554   6.004  0.1356 -0.4276 -0.6034
49453SOL    HW155220   3.915   5.548   6.098  0.2740  2.1017 -0.3436
49453SOL    HW255221   3.954   5.466   5.977 -0.1031 -1.2485  1.6723
49454SOL     OW55222   1.837   3.517   2.443  0.4617  1.0028 -0.2728
49454SOL    HW155223   1.885   3.544   2.521  0.5314  1.4840 -0.4790
49454SOL    HW255224   1.852   3.423   2.436 -2.1073  0.2980  2.0764
49455SOL     OW55225   4.464   0.576   0.239  0.3283 -0.0810  0.1011
49455SOL    HW155226   4.497   0.577   0.149 -2.7641  1.7508 -1.1766
49455SOL    HW255227   4.487   0.662   0.274 -0.8787  0.2958  0.0189
49456SOL     OW55228  10.836  10.144  10.478 -0.5152 -0.1476 -0.0767
49456SOL    HW155229  10.867  10.070  10.530 -0.7914 -0.2967 -0.1249
49456SOL    HW255230  10.852  10.118  10.387 -1.1028 -0.3764 -0.1207
49457SOL     OW55231   8.792   5.774   9.483  0.2223  0.4104 -0.0779
49457SOL    HW155232   8.726   5.833   9.447  1.2996  2.0507  0.4834
49457SOL    HW255233   8.750   5.733   9.559  0.1233  2.2218  0.9064
49458SOL     OW55234   7.285   3.327   1.957  0.4403 -0.3105 -0.7104
49458SOL    HW155235   7.248   3.298   2.041  2.0375 -1.1603 -0.2435
49458SOL    HW255236   7.247   3.268   1.892 -0.3072 -0.0727 -0.4924
49459SOL     OW55237   2.565   3.453  11.110  0.0765 -0.5217  0.5362
49459SOL    HW155238   2.625   3.508  11.160 -0.1010  1.4000 -1.2473
49459SOL    HW255239   2.602   3.449  11.022 -1.4853 -0.7597 -0.1547
49460SOL     OW55240   9.284   5.911   5.874 -0.3176  0.1482 -0.4948
49460SOL    HW155241   9.374   5.931   5.900 -0.1836 -0.3688 -0.5488
49460SOL    HW255242   9.278   5.940   5.783 -0.6386  1.5088 -0.0557
49461SOL     OW55243  10.438   8.491   3.989 -0.1066  0.1197 -0.0918
49461SOL    HW155244  10.366   8.451   3.941 -0.2290  1.4921 -1.1015
49461SOL    HW255245  10.407   8.496   4.079 -0.0834 -1.9891  0.0739
49462SOL     OW55246  12.373   8.606   4.367  0.7117 -0.7824 -0.4474
49462SOL    HW155247  12.389   8.659   4.289  1.2822  0.6074  0.5851
49462SOL    HW255248  12.328   8.664   4.427  0.4126 -1.7923  0.3376
49463SOL     OW55249   4.033   5.787   1.570 -0.1713  0.0557  0.4882
49463SOL    HW155250   4.084   5.838   1.507  0.1036 -0.0751  0.6009
49463SOL    HW255251   4.091   5.715   1.595 -0.6639 -0.4857  0.1065
49464SOL     OW55252   2.443   6.126  12.356 -0.6335  0.1941  0.4548
49464SOL    HW155253   2.502   6.054  12.378 -0.0928  0.6979  0.6759
49464SOL    HW255254   2.395   6.143  12.437 -1.3795 -0.4792  0.1661
49465SOL     OW55255   7.851   2.885   0.566  0.3145  0.1487 -0.3453
49465SOL    HW155256   7.782   2.824   0.540 -0.7154  1.2553 -0.2608
49465SOL    HW255257   7.904   2.835   0.628  0.1627 -1.0318 -1.1271
49466SOL     OW55258   8.067   4.048   4.181  0.5961 -0.4197 -0.1673
49466SOL    HW155259   8.020   3.973   4.218 -0.4096  0.1889 -0.1608
49466SOL    HW255260   8.031   4.123   4.227  1.1842  0.1147 -0.5738
49467SOL     OW55261   0.886   4.908   5.524 -0.0665  0.3187 -0.3199
49467SOL    HW155262   0.810   4.854   5.503 -0.8449  0.9407  0.8225
49467SOL    HW255263   0.943   4.850   5.575 -1.0482  0.6076  1.1853
49468SOL     OW55264   2.917   3.607   7.966 -0.2421  0.1579 -0.1050
49468SOL    HW155265   2.934   3.698   7.942 -0.6714  0.4062  0.5083
49468SOL    HW255266   2.959   3.556   7.897 -1.5437  0.8449 -1.4699
49469SOL     OW55267  11.816  11.410   3.662  0.2991  0.1523  0.3007
49469SOL    HW155268  11.803  11.450   3.576 -0.3600 -0.0331  0.3115
49469SOL    HW255269  11.862  11.328   3.643  2.1197  1.1229  0.3212
49470SOL     OW55270   3.696   3.766   4.372 -0.1620  0.3568 -0.1591
49470SOL    HW155271   3.766   3.703   4.356  0.8980  0.7958  2.3063
49470SOL    HW255272   3.628   3.714   4.416  0.5683  0.8026  1.5614
49471SOL     OW55273   5.889  11.707   6.620 -0.5003 -0.6693 -0.6585
49471SOL    HW155274   5.870  11.717   6.713 -0.9914 -1.6436 -0.6451
49471SOL    HW255275   5.817  11.751   6.576 -1.0580 -1.4919 -0.5816
49472SOL     OW55276   2.329   2.588   3.398  0.4302  0.7022 -0.7173
49472SOL    HW155277   2.292   2.600   3.311  1.2043  1.4203 -0.9608
49472SOL    HW255278   2.287   2.655   3.452 -1.3657 -0.8574 -0.0846
49473SOL     OW55279   8.696   0.237  12.149 -0.3710  0.0147 -0.3752
49473SOL    HW155280   8.735   0.312  12.195  0.4192  0.6748 -2.0298
49473SOL    HW255281   8.615   0.272  12.112 -0.8496 -0.4285  0.2323
49474SOL     OW55282   7.809   9.879   8.883  0.4939 -0.2538 -0.6332
49474SOL    HW155283   7.780   9.871   8.792  0.5369 -0.9467 -0.5900
49474SOL    HW255284   7.747   9.825   8.932  0.8637 -0.4064 -0.3331
49475SOL     OW55285   9.838   1.472   6.877 -0.3843 -0.3864 -0.0980
49475SOL    HW155286   9.784   1.532   6.929  0.0078 -0.3875  0.3165
49475SOL    HW255287   9.775   1.412   6.837 -0.9062  1.0027 -1.4683
49476SOL     OW55288   7.553   9.580  11.910  0.1900  0.1713 -0.3403
49476SOL    HW155289   7.547   9.664  11.957  2.6669 -0.0112  0.4708
49476SOL    HW255290   7.502   9.519  11.963 -0.7663  0.9226 -0.3699
49477SOL     OW55291  10.866   5.966   1.589 -0.0019 -0.7215 -0.5328
49477SOL    HW155292  10.940   5.917   1.555  0.0076 -0.5371 -0.7823
49477SOL    HW255293  10.897   6.056   1.596 -0.2555 -0.6064 -0.8237
49478SOL     OW55294   9.906   4.992   9.776  0.3425  0.1506 -0.1119
49478SOL    HW155295   9.838   4.974   9.712  0.6118  1.2034 -0.7295
49478SOL    HW255296   9.988   4.972   9.731  0.4627 -0.8131  0.5185
49479SOL     OW55297  10.896   9.780   4.751 -0.1432  0.4882  0.4727
49479SOL    HW155298  10.914   9.747   4.663  1.0630  1.0515  0.4892
49479SOL    HW255299  10.832   9.719   4.787  0.5504 -0.6792 -0.2211
49480SOL     OW55300   2.955   0.908   1.424 -0.2190 -0.2690 -0.1460
49480SOL    HW155301   3.025   0.855   1.387 -0.0661 -0.5292  0.4995
49480SOL    HW255302   2.974   0.912   1.517 -0.4146  0.6540 -0.1336
49481SOL     OW55303   0.600   5.466   4.840 -0.0018  0.4660  0.3501
49481SOL    HW155304   0.506   5.454   4.829  0.0717  0.5582 -0.4901
49481SOL    HW255305   0.635   5.378   4.841  0.0808  0.4336 -1.3107
49482SOL     OW55306   6.345   3.486   8.746  0.1717 -1.0051  0.4728
49482SOL    HW155307   6.438   3.464   8.744  0.6923  0.4644  3.2765
49482SOL    HW255308   6.341   3.576   8.713  0.1757 -0.1633  2.5971
49483SOL     OW55309   9.528   4.308  10.188 -0.6645 -0.0377  0.1528
49483SOL    HW155310   9.492   4.292  10.100 -0.1732  0.0188 -0.0612
49483SOL    HW255311   9.527   4.404  10.196  0.2203  0.0079 -0.1911
49484SOL     OW55312  11.384   0.962   4.522 -0.6598 -0.1747 -0.1894
49484SOL    HW155313  11.321   0.894   4.499 -0.8825 -0.1310  0.2734
49484SOL    HW255314  11.470   0.921   4.510 -0.7822 -0.3704 -0.4061
49485SOL     OW55315   2.110   6.666   7.014 -0.3077  0.2537 -0.2377
49485SOL    HW155316   2.170   6.655   6.940 -0.3681  1.4855 -0.4953
49485SOL    HW255317   2.028   6.626   6.984  0.5129 -2.0295  0.3637
49486SOL     OW55318   4.198  10.197  11.490 -0.3496 -0.2056 -0.2421
49486SOL    HW155319   4.236  10.238  11.567  0.9072 -1.7777  0.0438
49486SOL    HW255320   4.144  10.125  11.525 -2.5543  1.1243 -0.7148
49487SOL     OW55321   3.318   7.093  10.055  0.0460 -0.2347 -0.1502
49487SOL    HW155322   3.248   7.059   9.999  1.1299 -1.7937 -0.6581
49487SOL    HW255323   3.324   7.029  10.126 -0.2766  0.9020  0.9171
49488SOL     OW55324   3.961   8.765   0.952 -0.3310 -0.7718 -0.3515
49488SOL    HW155325   3.924   8.763   1.040 -0.9547 -0.0257 -0.5957
49488SOL    HW255326   3.906   8.706   0.902  0.6372 -2.0082 -0.0276
49489SOL     OW55327   4.241   9.117   9.487 -0.3102  0.2987 -0.0467
49489SOL    HW155328   4.222   9.177   9.415 -0.8049 -0.0571 -0.2143
49489SOL    HW255329   4.337   9.114   9.491 -0.2809  0.4253 -0.6046
49490SOL     OW55330  11.424   5.904  10.807  0.4458  0.1226 -0.2546
49490SOL    HW155331  11.500   5.883  10.860  0.3994  2.9568  1.1124
49490SOL    HW255332  11.360   5.835  10.827  1.2546 -0.1264  1.5960
49491SOL     OW55333   0.413   6.252  11.079 -0.7524 -0.3919 -0.1301
49491SOL    HW155334   0.422   6.160  11.054  1.3613  0.2254 -2.0516
49491SOL    HW255335   0.440   6.255  11.171  0.2232 -1.5878 -0.3506
49492SOL     OW55336   4.328  11.878  10.998 -0.5568 -0.4051  0.7904
49492SOL    HW155337   4.382  11.946  11.039 -0.1722  0.5619 -1.1814
49492SOL    HW255338   4.252  11.925  10.965  0.0360 -0.7622 -1.2052
49493SOL     OW55339   5.474   5.513   8.960  0.1074  0.4726 -0.0432
49493SOL    HW155340   5.419   5.459   9.016  1.9920 -0.7638  0.7277
49493SOL    HW255341   5.432   5.512   8.874 -2.2149  1.4314  1.0209
49494SOL     OW55342   1.597   3.482   3.325 -0.2659 -0.1133  0.5858
49494SOL    HW155343   1.514   3.513   3.288 -0.2466 -1.9993 -1.2087
49494SOL    HW255344   1.663   3.540   3.286 -0.4032 -1.1226 -1.2709
49495SOL     OW55345   7.444   8.914   9.573 -0.2894  0.1068  0.1402
49495SOL    HW155346   7.482   8.889   9.657 -0.6352 -0.1884  0.2131
49495SOL    HW255347   7.469   8.843   9.514 -0.4144  0.0968  0.0995
49496SOL     OW55348   3.470   1.408   8.597  0.0925 -0.0353 -0.1239
49496SOL    HW155349   3.523   1.482   8.568 -1.2698  1.0804  0.0534
49496SOL    HW255350   3.477   1.410   8.693  1.3356 -1.1758 -0.1616
49497SOL     OW55351   8.768   8.008   2.238  0.5114  0.0382  0.3144
49497SOL    HW155352   8.754   8.063   2.315  1.6454  0.3955  0.2837
49497SOL    HW255353   8.709   8.043   2.171 -0.0369  0.1051  0.8244
49498SOL     OW55354   6.624   3.370  11.200 -0.5521  0.1259  0.5649
49498SOL    HW155355   6.584   3.284  11.187 -1.5953  0.7520 -0.5769
49498SOL    HW255356   6.550   3.429  11.214 -0.0555  1.2474 -1.2027
49499SOL     OW55357  10.950   5.283   7.087 -0.1310 -0.2731  0.7506
49499SOL    HW155358  10.934   5.213   7.024  0.7112  0.6154 -0.4957
49499SOL    HW255359  10.884   5.349   7.067  0.9244  0.5606 -0.0644
49500SOL     OW55360  10.671   1.768   1.740 -0.2433  0.5146 -0.1828
49500SOL    HW155361  10.593   1.766   1.685 -1.5455 -0.5805  1.6020
49500SOL    HW255362  10.710   1.854   1.722  0.7004 -0.5442 -4.4020
49501SOL     OW55363   9.411  12.176   5.203  0.1690 -0.2223 -0.4460
49501SOL    HW155364   9.369  12.257   5.174 -0.5492 -0.6113 -0.5040
49501SOL    HW255365   9.419  12.123   5.124 -3.2290 -1.9404  0.1856
49502SOL     OW55366  12.237   8.107   9.451 -0.0125 -0.4744  0.3125
49502SOL    HW155367  12.292   8.112   9.530  0.1639 -0.3704  0.1843
49502SOL    HW255368  12.300   8.099   9.379 -0.0538  2.0006 -0.0616
49503SOL     OW55369   6.014  11.100   1.831 -0.2497 -0.3375 -0.3179
49503SOL    HW155370   5.966  11.151   1.765  1.1134  1.3421 -0.0870
49503SOL    HW255371   5.951  11.088   1.902 -1.0468 -0.2197 -0.9847
49504SOL     OW55372   6.425   9.184   3.665  0.1609 -0.1771 -0.6514
49504SOL    HW155373   6.425   9.093   3.636  0.5923  0.0401 -1.3309
49504SOL    HW255374   6.355   9.188   3.730  1.1416 -1.3549  0.5245
49505SOL     OW55375   8.983   0.072   1.745 -0.1628 -0.1685  0.5246
49505SOL    HW155376   8.971   0.151   1.693  0.3642 -0.0795  0.5241
49505SOL    HW255377   9.040   0.016   1.692  0.4431 -0.0428  1.0298
49506SOL     OW55378  12.238   2.435  10.566 -0.3108 -0.0520  0.2739
49506SOL    HW155379  12.163   2.414  10.510  0.2156 -0.5747 -0.2503
49506SOL    HW255380  12.229   2.377  10.641  0.2854 -1.0855 -0.4297
49507SOL     OW55381   8.214   6.286   7.753  0.0123 -0.4194  0.6371
49507SOL    HW155382   8.199   6.355   7.817  1.9290 -2.3708  3.4079
49507SOL    HW255383   8.151   6.217   7.776  0.6504 -1.1060  0.3820
49508SOL     OW55384  12.167  10.570   5.776  0.6560 -0.2936 -0.6738
49508SOL    HW155385  12.156  10.592   5.869 -2.1526  1.2184 -1.2419
49508SOL    HW255386  12.258  10.595   5.756  1.5679 -1.3279  1.7661
49509SOL     OW55387   6.337   1.168   2.833 -0.1702  0.3357 -0.1890
49509SOL    HW155388   6.391   1.226   2.886  0.8132 -0.9408  0.2506
49509SOL    HW255389   6.400   1.112   2.787 -1.0868 -0.6560 -0.2757
49510SOL     OW55390   9.233   9.092   0.245  0.5751  0.3776 -0.5743
49510SOL    HW155391   9.183   9.142   0.310 -1.1563  0.2641 -1.7796
49510SOL    HW255392   9.259   9.012   0.291 -0.0360  0.6044  0.1789
49511SOL     OW55393   2.829   8.082   9.822 -0.2650  0.0817 -0.2571
49511SOL    HW155394   2.807   8.175   9.812 -0.2676  0.2873  1.4672
49511SOL    HW255395   2.745   8.037   9.820 -0.1806 -0.1823 -3.1959
49512SOL     OW55396   5.061   1.720  10.682  0.4489 -0.4320 -0.2572
49512SOL    HW155397   5.135   1.711  10.742  0.1454 -1.9461 -0.0751
49512SOL    HW255398   4.993   1.763  10.734  1.3481  1.5240 -0.5977
49513SOL     OW55399   5.700   3.619  12.201 -0.5395 -0.2680  0.1927
49513SOL    HW155400   5.735   3.687  12.143 -0.5820 -0.3765  0.0394
49513SOL    HW255401   5.606   3.636  12.203 -0.5309 -0.2286  0.2769
49514SOL     OW55402   2.980  10.685   3.808  0.5970 -0.3966  0.6558
49514SOL    HW155403   3.000  10.775   3.836  0.3363 -0.2723  0.4513
49514SOL    HW255404   2.925  10.651   3.879 -2.8605  1.0127 -1.0899
49515SOL     OW55405   6.567   4.032   6.961  0.7757  0.0516 -0.0976
49515SOL    HW155406   6.615   3.960   6.921 -1.0799 -1.4077  0.1625
49515SOL    HW255407   6.634   4.095   6.985  2.5210 -1.7369 -0.0216
49516SOL     OW55408   6.663   7.472  10.397  0.0360  0.4018  0.2698
49516SOL    HW155409   6.646   7.382  10.426 -1.2733  1.0579  1.6634
49516SOL    HW255410   6.724   7.462  10.324  0.6127 -1.5573  0.9576
49517SOL     OW55411   5.327  11.997   9.519  0.3984 -0.1488  0.8473
49517SOL    HW155412   5.355  11.954   9.438 -1.5057 -1.4865  0.8238
49517SOL    HW255413   5.307  12.087   9.493 -1.9277 -1.0007 -0.6564
49518SOL     OW55414   1.966   9.020   1.513  0.0587 -0.0720 -0.1691
49518SOL    HW155415   1.923   8.956   1.457 -1.3033  1.2148 -0.6688
49518SOL    HW255416   1.915   9.020   1.594  0.2844  0.0996 -0.0253
49519SOL     OW55417   3.213   9.676   6.784 -0.5162 -0.0509  0.3798
49519SOL    HW155418   3.147   9.610   6.804 -0.5993  0.4769  1.9622
49519SOL    HW255419   3.240   9.656   6.694 -3.4636  0.2956 -0.6715
49520SOL     OW55420   6.553  10.929   5.504  0.1866 -0.2079 -0.4156
49520SOL    HW155421   6.595  10.971   5.580  1.2408  1.0207 -1.6267
49520SOL    HW255422   6.579  10.837   5.511 -3.0972 -1.1066  2.9188
49521SOL     OW55423   3.368  10.075   9.183 -0.4966 -1.0997 -0.3738
49521SOL    HW155424   3.301  10.122   9.133 -1.0722 -2.2552 -0.7268
49521SOL    HW255425   3.447  10.084   9.130 -0.6679 -0.7685 -0.5812
49522SOL     OW55426   5.944   1.181   5.970  0.0770  0.1855  0.5858
49522SOL    HW155427   5.935   1.098   6.017  1.8747  0.4772  1.5162
49522SOL    HW255428   6.010   1.230   6.020 -2.1007  2.8907  1.0356
49523SOL     OW55429   3.106   8.533   6.451 -0.3551 -0.3454 -0.0412
49523SOL    HW155430   3.073   8.536   6.541 -2.1248 -0.4682 -0.6529
49523SOL    HW255431   3.102   8.623   6.421 -0.8293 -0.4669 -0.3531
49524SOL     OW55432   0.685   3.604   3.408  0.5128  0.8191  0.1837
49524SOL    HW155433   0.613   3.650   3.452  0.0761  2.6583 -2.2577
49524SOL    HW255434   0.764   3.638   3.450  0.0684  0.3037  1.5091
49525SOL     OW55435  11.440   0.878   8.937 -0.1687 -0.5064 -0.6573
49525SOL    HW155436  11.489   0.929   9.001  0.1243 -2.4112  0.7041
49525SOL    HW255437  11.433   0.791   8.975 -1.6554 -1.2093 -2.3736
49526SOL     OW55438   4.763   8.924   3.260 -0.3159 -0.1456 -0.0288
49526SOL    HW155439   4.789   8.876   3.182 -0.0802 -0.4118  0.2075
49526SOL    HW255440   4.816   9.004   3.257  2.5531 -1.7831  1.7310
49527SOL     OW55441   7.406   6.791   1.182 -0.0304 -0.3598  0.4909
49527SOL    HW155442   7.326   6.810   1.133  0.5471  1.7910  0.2468
49527SOL    HW255443   7.382   6.721   1.242 -1.3616 -1.5788 -1.3553
49528SOL     OW55444  11.654  11.228   7.280  0.5630 -0.6305  0.4735
49528SOL    HW155445  11.630  11.320   7.275  0.4038 -0.6632  0.6272
49528SOL    HW255446  11.716  11.222   7.352  0.9356 -0.5670  0.1628
49529SOL     OW55447  10.217   6.293  11.461  0.4239  0.2068 -0.4359
49529SOL    HW155448  10.140   6.258  11.416  0.2691 -0.9361  0.6795
49529SOL    HW255449  10.185   6.321  11.547  0.9027  1.4714 -0.6396
49530SOL     OW55450   8.986   9.104  10.700  0.0810  0.4367  0.5655
49530SOL    HW155451   9.010   9.028  10.753  2.0429  0.9101  0.4417
49530SOL    HW255452   9.059   9.165  10.711 -0.8916  1.8202 -0.2739
49531SOL     OW55453   9.365  10.903   7.109 -0.2416 -0.2496  0.8193
49531SOL    HW155454   9.406  10.988   7.123  1.7442 -1.1244  0.6433
49531SOL    HW255455   9.272  10.918   7.126 -0.6026  2.7825 -2.5561
49532SOL     OW55456   7.068   7.032   5.737  0.1068  0.1189 -0.2916
49532SOL    HW155457   7.002   6.964   5.721  2.3584 -2.5091  0.7790
49532SOL    HW255458   7.064   7.087   5.658 -2.8134 -0.3042 -0.5617
49533SOL     OW55459  10.516   3.379  11.776 -0.3323  0.1345 -0.4324
49533SOL    HW155460  10.420   3.387  11.777 -0.3854 -0.3562 -0.9723
49533SOL    HW255461  10.545   3.431  11.851 -1.1799 -1.8146  1.3569
49534SOL     OW55462   3.125   5.856   2.209 -0.5259  0.0277  0.7405
49534SOL    HW155463   3.183   5.843   2.284 -1.1121 -0.2578  1.1522
49534SOL    HW255464   3.131   5.774   2.160 -0.0632  0.2524  0.4094
49535SOL     OW55465   2.297   9.178  10.842 -0.4940 -0.6321 -0.7545
49535SOL    HW155466   2.239   9.121  10.791 -0.8771 -1.6078  0.6842
49535SOL    HW255467   2.385   9.151  10.817 -0.6771 -1.0935 -0.9184
49536SOL     OW55468   3.431   7.725   8.076 -0.2954 -0.5304 -0.3562
49536SOL    HW155469   3.349   7.682   8.098 -0.0609 -0.0744  1.5382
49536SOL    HW255470   3.496   7.685   8.134  0.8254 -0.7512 -1.6828
49537SOL     OW55471   7.771   6.162   0.523 -0.0774 -0.0654 -0.1209
49537SOL    HW155472   7.866   6.174   0.523 -0.2678  1.8455 -1.3159
49537SOL    HW255473   7.748   6.143   0.433 -0.8282 -0.6522  0.1819
49538SOL     OW55474  11.556  12.071  12.025 -0.0843 -0.1507  0.1110
49538SOL    HW155475  11.462  12.083  12.034 -0.0351  0.0994  0.2871
49538SOL    HW255476  11.590  12.158  12.005 -0.1946 -0.6316 -2.6036
49539SOL     OW55477   0.753   5.409   2.979 -0.0757 -0.0485 -0.0511
49539SOL    HW155478   0.757   5.316   2.958  0.5072  0.0966 -0.6077
49539SOL    HW255479   0.808   5.417   3.057  0.5143 -0.0507 -0.4603
49540SOL     OW55480   5.455   3.012  11.060 -0.2628  0.6942  0.1195
49540SOL    HW155481   5.473   3.029  11.153  1.5740  0.4877 -0.1657
49540SOL    HW255482   5.432   3.097  11.024  1.5215  1.2766  0.2618
49541SOL     OW55483   8.651   7.730   0.577  0.2099  0.5146 -0.4525
49541SOL    HW155484   8.590   7.788   0.530 -0.4767  0.9554  0.9354
49541SOL    HW255485   8.649   7.761   0.667  0.8603 -0.8412  0.0582
49542SOL     OW55486  10.585   3.493  12.001 -0.0904 -0.2292 -0.4007
49542SOL    HW155487  10.534   3.467  12.077  1.0854  0.8432  0.8105
49542SOL    HW255488  10.658   3.544  12.037  0.8236 -0.1719 -2.1978
49543SOL     OW55489   1.145  11.530   4.045 -0.4156 -0.0135 -0.1548
49543SOL    HW155490   1.163  11.500   4.134 -0.6704 -1.4494 -0.5614
49543SOL    HW255491   1.054  11.504   4.029 -0.1552 -0.3762 -1.0683
49544SOL     OW55492   0.052  10.440   7.605 -0.0690  0.1464 -0.3396
49544SOL    HW155493   0.097  10.522   7.580 -0.2853 -0.0986 -1.5881
49544SOL    HW255494   0.069  10.381   7.532 -1.1695 -0.4425 -0.1329
49545SOL     OW55495   5.281   8.922   0.401 -0.0586  0.1113 -0.1066
49545SOL    HW155496   5.265   8.979   0.475  0.8012 -0.1752  0.3101
49545SOL    HW255497   5.200   8.926   0.349 -0.6621  0.3202  0.8302
49546SOL     OW55498   6.226   3.415   7.285  0.0702  0.4678 -0.7307
49546SOL    HW155499   6.165   3.488   7.298 -3.1026 -1.8247 -1.6027
49546SOL    HW255500   6.239   3.379   7.373 -0.3661  0.5765 -0.6181
49547SOL     OW55501   2.004   9.096   9.893  0.8998 -0.4287 -0.2242
49547SOL    HW155502   1.938   9.163   9.873  1.1129 -0.1353  0.0358
49547SOL    HW255503   2.046   9.079   9.809 -0.0891 -1.2601 -0.5658
49548SOL     OW55504   4.965   7.047   3.243 -0.1092 -0.3540 -0.5884
49548SOL    HW155505   5.023   7.010   3.310  2.4186  2.5476 -0.8987
49548SOL    HW255506   5.001   7.016   3.160 -2.0152 -2.3210 -0.7638
49549SOL     OW55507   3.576   8.659   3.520 -0.1425 -0.1487 -0.0451
49549SOL    HW155508   3.629   8.715   3.576 -0.2492 -0.3007  0.2082
49549SOL    HW255509   3.560   8.712   3.442  1.6298 -0.6291 -0.7787
49550SOL     OW55510   1.686   5.628   3.157  0.0422 -0.6385 -0.3717
49550SOL    HW155511   1.739   5.696   3.116 -1.3571  1.3531  0.9439
49550SOL    HW255512   1.666   5.567   3.086  0.1149  1.1166 -1.9768
49551SOL     OW55513   4.111   3.301  11.845 -0.5402 -0.3756 -0.4685
49551SOL    HW155514   4.136   3.373  11.786 -2.1422  0.2572 -0.4278
49551SOL    HW255515   4.193   3.253  11.860  0.7438  1.8120  0.0401
49552SOL     OW55516   2.115  10.414  12.064 -0.0333  0.2990 -0.3296
49552SOL    HW155517   2.156  10.343  12.113 -0.6555  0.4941  0.5025
49552SOL    HW255518   2.098  10.482  12.130 -0.8011  0.6048 -0.8284
49553SOL     OW55519  12.350   6.254   2.664  0.3820 -0.5941  0.2683
49553SOL    HW155520  12.272   6.305   2.646 -0.0273 -2.0032 -2.5508
49553SOL    HW255521  12.421   6.303   2.622  0.8005 -0.0898  1.5139
49554SOL     OW55522   4.458  10.329   2.769 -0.0904  0.5629 -0.1476
49554SOL    HW155523   4.374  10.352   2.810  0.0783  0.9334 -0.0073
49554SOL    HW255524   4.458  10.234   2.767  1.0621  0.3590  3.2341
49555SOL     OW55525   7.631   4.624   8.360  0.3947 -0.4557 -0.5148
49555SOL    HW155526   7.560   4.680   8.393 -0.7244 -1.4960 -1.0753
49555SOL    HW255527   7.711   4.668   8.387 -0.3642 -1.3221  3.8511
49556SOL     OW55528   5.602   6.241   6.452  0.0361  0.0612 -0.8596
49556SOL    HW155529   5.644   6.307   6.397 -0.1070 -0.9831 -2.2853
49556SOL    HW255530   5.675   6.196   6.496  0.2447 -0.0136 -1.2816
49557SOL     OW55531   7.434   0.943   1.912  0.0270 -0.7103  0.3839
49557SOL    HW155532   7.361   0.898   1.956 -1.6850  1.5858  0.0306
49557SOL    HW255533   7.477   0.993   1.982 -0.1154 -0.3125  0.1859
49558SOL     OW55534   8.531   2.885   6.051 -0.2396  0.0384 -0.5477
49558SOL    HW155535   8.480   2.862   6.128  1.5649 -3.4096 -0.2186
49558SOL    HW255536   8.498   2.827   5.982  1.1480 -0.1037 -1.1235
49559SOL     OW55537   6.441   9.745   7.126  0.4353 -0.1598 -0.2226
49559SOL    HW155538   6.519   9.711   7.170 -0.0008 -0.8660  0.0208
49559SOL    HW255539   6.463   9.741   7.033  0.6574 -0.4467 -0.1617
49560SOL     OW55540  10.996   5.809   0.984 -0.3455  0.0553 -0.2307
49560SOL    HW155541  11.057   5.882   0.997 -0.6533  0.2820 -0.0220
49560SOL    HW255542  10.979   5.777   1.073 -1.4821  0.7911 -0.1594
49561SOL     OW55543  10.904   3.946  10.924 -0.5576 -0.0401  0.4042
49561SOL    HW155544  10.849   4.015  10.962  1.5385  0.8431  2.0165
49561SOL    HW255545  10.871   3.936  10.835 -1.3377  2.6326  0.3122
49562SOL     OW55546  12.264   9.312   4.375 -0.0965  0.2636  0.0486
49562SOL    HW155547  12.353   9.277   4.370 -0.0867  0.3406 -0.4167
49562SOL    HW255548  12.208   9.235   4.380 -0.1885  0.0334 -2.6582
49563SOL     OW55549   0.546  11.028   6.303 -0.5425  0.3482  0.0030
49563SOL    HW155550   0.490  10.985   6.368 -0.7600  1.0756  0.3067
49563SOL    HW255551   0.485  11.078   6.249 -0.5106 -1.1658 -1.5276
49564SOL     OW55552   6.000  11.077   6.384 -0.0763 -0.1298  0.0713
49564SOL    HW155553   6.005  11.120   6.299  0.0965  0.0722  0.1825
49564SOL    HW255554   5.908  11.051   6.393 -0.0319 -0.4251 -0.3083
49565SOL     OW55555   3.172   4.689   2.470  0.0626 -0.5554  0.3538
49565SOL    HW155556   3.174   4.783   2.450  1.7709 -0.6696 -0.0867
49565SOL    HW255557   3.257   4.671   2.509 -1.0051 -1.5291  2.4437
49566SOL     OW55558   3.728   7.063   7.307  0.1845 -0.4416 -0.0041
49566SOL    HW155559   3.704   6.971   7.300  0.1630 -0.5211  0.9702
49566SOL    HW255560   3.762   7.072   7.396 -0.7394  0.7053  0.2491
49567SOL     OW55561  10.176   3.949   1.277 -0.0849  0.3800  0.2049
49567SOL    HW155562  10.217   3.926   1.361 -0.2575  1.3144  0.5595
49567SOL    HW255563  10.098   3.894   1.273  0.5424 -0.5195  0.1041
49568SOL     OW55564   3.887   3.004   8.244  0.0272 -0.2276 -0.0185
49568SOL    HW155565   3.877   2.933   8.180 -1.2826 -0.5580  0.5368
49568SOL    HW255566   3.969   2.983   8.290  0.1964 -0.7995 -0.5650
49569SOL     OW55567   1.123   6.458   6.600 -0.4328  0.0846  0.0692
49569SOL    HW155568   1.072   6.378   6.616  3.2935 -2.3783  0.9241
49569SOL    HW255569   1.168   6.474   6.683 -0.0964  2.4175 -0.5007
49570SOL     OW55570   1.971   2.918   4.678 -0.5970  0.4419 -0.9717
49570SOL    HW155571   2.003   2.971   4.605 -0.5003 -1.0434 -2.0335
49570SOL    HW255572   1.949   2.833   4.640 -0.6973 -0.3299  0.6933
49571SOL     OW55573   1.294  11.097   2.551 -0.0211  0.3048 -0.3838
49571SOL    HW155574   1.321  11.189   2.555 -1.5068  0.7438  0.2748
49571SOL    HW255575   1.321  11.068   2.464 -0.6140  1.7294 -1.0759
49572SOL     OW55576   1.377   7.522  12.395 -0.4078  0.0420  0.1445
49572SOL    HW155577   1.407   7.566  12.315 -0.9832 -1.3188 -0.8664
49572SOL    HW255578   1.383   7.589  12.463  0.5241  1.1139 -0.9403
49573SOL     OW55579   6.327   5.498   0.701  0.1256 -0.0464  0.0563
49573SOL    HW155580   6.346   5.506   0.607 -0.6389 -0.7759 -0.1759
49573SOL    HW255581   6.232   5.486   0.705  0.3503 -2.0291  0.7533
49574SOL     OW55582   4.059   4.141   5.206  0.1268  0.2011  0.1905
49574SOL    HW155583   4.002   4.201   5.254 -1.5136 -0.6921 -0.5313
49574SOL    HW255584   4.030   4.147   5.115  1.3760 -0.1075 -0.2528
49575SOL     OW55585   9.252   5.412  12.043  0.2457 -0.0365 -0.7834
49575SOL    HW155586   9.167   5.387  12.080  0.3030  0.2942 -0.4178
49575SOL    HW255587   9.311   5.341  12.067  0.7271  0.9980  1.4067
49576SOL     OW55588   8.768   4.047   9.424  0.6395 -0.4095 -0.3710
49576SOL    HW155589   8.736   4.028   9.512 -2.5439  0.1056 -1.2763
49576SOL    HW255590   8.835   3.981   9.408  1.6164 -0.2887  2.5179
49577SOL     OW55591   5.838   2.268   2.255 -0.1347 -0.3638 -0.4413
49577SOL    HW155592   5.874   2.214   2.326  0.0608 -0.6019 -0.7168
49577SOL    HW255593   5.769   2.319   2.297  0.2584 -0.1946  0.0089
49578SOL     OW55594   4.441   5.604   0.087  0.3778  0.2944 -0.2507
49578SOL    HW155595   4.485   5.671   0.034 -0.0405 -0.3257 -1.4313
49578SOL    HW255596   4.447   5.525   0.034  1.5406 -0.8147  1.4511
49579SOL     OW55597   6.705   0.402   6.689  0.4572 -0.5723  0.0711
49579SOL    HW155598   6.697   0.307   6.699  0.5036 -0.6553 -0.6314
49579SOL    HW255599   6.629   0.427   6.637 -0.1994 -0.0473  1.2324
49580SOL     OW55600  11.231   4.120   7.355  0.6278  0.2999 -0.5185
49580SOL    HW155601  11.285   4.056   7.309  1.2029  1.1238 -0.9883
49580SOL    HW255602  11.289   4.158   7.421  0.0670 -0.2087  0.2929
49581SOL     OW55603  10.407   2.365  10.500 -0.1685  0.6712 -0.3321
49581SOL    HW155604  10.358   2.418  10.562  0.8198  1.1328  0.0776
49581SOL    HW255605  10.410   2.277  10.539  1.6296  1.2610  1.0242
49582SOL     OW55606   7.261   9.786   4.531 -0.2213  0.2438  0.0782
49582SOL    HW155607   7.260   9.813   4.439 -0.3669 -2.3835 -0.7843
49582SOL    HW255608   7.178   9.739   4.543  0.5412 -0.9115  1.0319
49583SOL     OW55609  11.592   8.196   0.613  0.2841  0.3715 -0.4133
49583SOL    HW155610  11.580   8.119   0.557 -1.2762 -0.8572  1.5139
49583SOL    HW255611  11.504   8.226   0.633  0.8073  1.1485  0.8882
49584SOL     OW55612   7.238   5.798   4.394 -0.2148  0.0352 -0.0110
49584SOL    HW155613   7.194   5.834   4.317 -0.8573 -0.3203  0.1861
49584SOL    HW255614   7.169   5.787   4.459  0.3713  0.6096  0.7267
49585SOL     OW55615   5.139   5.271  12.089 -0.4113 -0.0236  0.3778
49585SOL    HW155616   5.199   5.346  12.085 -1.2905  0.7185  0.5523
49585SOL    HW255617   5.178   5.206  12.031  0.1102  0.7707 -0.1889
49586SOL     OW55618   9.381   1.575   8.814 -0.5690 -0.1732  0.5220
49586SOL    HW155619   9.457   1.631   8.823  1.0703 -2.2489  0.3313
49586SOL    HW255620   9.361   1.546   8.904 -1.2300  0.4584  0.5868
49587SOL     OW55621   0.957   2.566   2.876 -0.1427 -0.3287 -0.0462
49587SOL    HW155622   0.932   2.515   2.799  1.0577  1.7068 -1.9062
49587SOL    HW255623   1.052   2.556   2.881 -0.1649 -0.1254  0.9687
49588SOL     OW55624   4.176   3.576   6.865 -0.0311  0.1887 -0.0113
49588SOL    HW155625   4.202   3.658   6.822 -0.0832  0.9273  1.3011
49588SOL    HW255626   4.082   3.585   6.879  0.0902  0.2751  0.8386
49589SOL     OW55627  11.207   0.813   3.712  0.4240 -0.0163 -0.1060
49589SOL    HW155628  11.276   0.748   3.725  1.3429  0.9699  0.0123
49589SOL    HW255629  11.233   0.887   3.766  0.0182  0.9351 -1.1781
49590SOL     OW55630   5.888   7.869   5.566  0.0779 -0.4973 -0.5014
49590SOL    HW155631   5.843   7.952   5.554 -0.3347 -0.8094 -1.1408
49590SOL    HW255632   5.976   7.883   5.529 -0.2251 -0.5582 -1.2591
49591SOL     OW55633   6.280  11.168   6.603 -0.5607 -0.3632  0.7954
49591SOL    HW155634   6.290  11.202   6.692  0.8802 -0.0929  0.5598
49591SOL    HW255635   6.219  11.228   6.561  1.5043  1.7386  0.5545
49592SOL     OW55636   4.310   0.657   7.148 -0.5243 -0.3081 -0.1486
49592SOL    HW155637   4.235   0.599   7.138 -0.4345 -0.2189 -1.5528
49592SOL    HW255638   4.273   0.745   7.143 -0.5530 -0.2420  1.0879
49593SOL     OW55639   7.009   5.593   0.937 -0.3452  0.4469 -0.4164
49593SOL    HW155640   6.922   5.561   0.960 -1.0903  0.9780 -2.2346
49593SOL    HW255641   7.039   5.640   1.014 -0.7609 -1.4987  0.9869
49594SOL     OW55642   4.768   6.733   4.418  0.3459 -0.3155  0.1215
49594SOL    HW155643   4.862   6.719   4.421  0.8572  2.1401 -1.1214
49594SOL    HW255644   4.746   6.728   4.325 -0.4624  0.5450  0.2493
49595SOL     OW55645   6.398   1.711   8.478 -0.7379  0.1514 -0.4964
49595SOL    HW155646   6.407   1.631   8.529  0.8423 -0.3767 -1.5329
49595SOL    HW255647   6.356   1.773   8.538  0.1076 -0.7542  1.1059
49596SOL     OW55648  11.939  11.136   5.071 -0.3804 -0.0968 -0.0263
49596SOL    HW155649  11.870  11.157   5.009  0.7699  0.5000 -1.1315
49596SOL    HW255650  12.008  11.096   5.019  1.0508  1.3757  0.6744
49597SOL     OW55651   3.012   5.348   6.066 -0.9653 -0.0518 -0.3374
49597SOL    HW155652   2.956   5.316   6.137 -0.9906  0.8775  0.0810
49597SOL    HW255653   2.974   5.310   5.986 -0.4379 -1.7791  0.2052
49598SOL     OW55654   0.187   8.516   4.969  0.2485  0.5234 -0.0000
49598SOL    HW155655   0.196   8.611   4.982  0.0911  0.4547  0.6136
49598SOL    HW255656   0.249   8.497   4.898 -0.6181  1.2796 -0.9933
49599SOL     OW55657   6.031   2.110   6.211  0.0399 -0.3303  0.1849
49599SOL    HW155658   5.963   2.106   6.278  0.6688  0.8167  0.9107
49599SOL    HW255659   6.085   2.033   6.227 -0.7572 -0.9555 -0.0610
49600SOL     OW55660   9.887   0.275  11.252 -0.3624 -0.5497 -0.0025
49600SOL    HW155661   9.834   0.284  11.331  0.3497  0.9665  0.3420
49600SOL    HW255662   9.963   0.332  11.268  0.7941 -1.7766 -0.9569
49601SOL     OW55663   8.612   2.186   6.814  0.1118  0.2477 -0.4941
49601SOL    HW155664   8.659   2.187   6.898  0.0207 -2.1160 -0.3716
49601SOL    HW255665   8.543   2.251   6.825 -0.1932 -0.3458  1.4381
49602SOL     OW55666   3.663   6.695  11.170 -0.0706  0.2977  0.3218
49602SOL    HW155667   3.618   6.773  11.140  0.4476  1.0925  1.5013
49602SOL    HW255668   3.600   6.650  11.226  0.7716  1.8583  2.6759
49603SOL     OW55669   9.032   2.049  12.048  0.3290 -0.3583  0.3560
49603SOL    HW155670   9.052   2.089  12.133 -0.2233 -0.5130  0.5634
49603SOL    HW255671   8.937   2.040  12.049  0.4071 -1.2215  0.1000
49604SOL     OW55672   7.970   2.378   9.568  0.0810  0.3577 -0.2824
49604SOL    HW155673   8.038   2.324   9.609 -0.3933  0.3138  0.4715
49604SOL    HW255674   7.920   2.412   9.641  0.8406  2.4940 -0.6914
49605SOL     OW55675   6.270  12.312   8.679 -0.4137 -0.0030  0.5284
49605SOL    HW155676   6.348  12.330   8.731 -0.6576 -1.0122  1.2790
49605SOL    HW255677   6.232  12.398   8.660  1.3465  0.5707 -0.6229
49606SOL     OW55678   2.263   5.563   3.648  0.1006  0.0667 -0.2200
49606SOL    HW155679   2.229   5.634   3.594 -0.3313 -0.4454 -0.6287
49606SOL    HW255680   2.262   5.486   3.591  1.5597 -0.0587 -0.1143
49607SOL     OW55681   2.749  10.432   4.613  0.0164  0.1049  0.4744
49607SOL    HW155682   2.656  10.415   4.597  0.3645 -0.8254 -0.7150
49607SOL    HW255683   2.770  10.380   4.690 -0.4659  0.4137  0.8212
49608SOL     OW55684   2.738   6.416   8.865 -0.3128 -0.1520 -0.1443
49608SOL    HW155685   2.803   6.371   8.811  0.1471  2.4075 -1.8507
49608SOL    HW255686   2.761   6.508   8.860 -2.5089  0.5708  1.4404
49609SOL     OW55687   9.180   8.495   0.063 -0.5060 -0.1584  0.2624
49609SOL    HW155688   9.097   8.540   0.079 -0.5665  0.6015 -1.9028
49609SOL    HW255689   9.178   8.419   0.121 -1.9541  0.7473  1.4713
49610SOL     OW55690   2.656  10.602   3.392 -0.5145  0.0140 -0.4092
49610SOL    HW155691   2.569  10.635   3.414 -0.5846 -0.0850 -0.5390
49610SOL    HW255692   2.698  10.586   3.477  0.2040  2.2252 -0.2941
49611SOL     OW55693   4.861   2.625   3.934  0.2080 -0.1708 -0.6168
49611SOL    HW155694   4.853   2.715   3.965 -0.9524 -0.0559 -1.1962
49611SOL    HW255695   4.845   2.630   3.840  0.5293 -0.9269 -0.7178
49612SOL     OW55696   3.866   3.288   1.711 -0.4657  0.2031  0.7384
49612SOL    HW155697   3.822   3.272   1.627 -0.3469 -0.9806  0.8817
49612SOL    HW255698   3.829   3.371   1.742 -1.6922 -0.1420  0.2685
49613SOL     OW55699   8.584  10.569  11.685  0.1629 -0.6614  0.1313
49613SOL    HW155700   8.567  10.653  11.728  0.3200 -1.3357  1.5492
49613SOL    HW255701   8.645  10.591  11.614  0.0730  0.4368  0.3695
49614SOL     OW55702   4.802   1.495   5.068  0.3078 -0.8776 -0.3795
49614SOL    HW155703   4.858   1.572   5.077 -0.4630 -0.5289  2.4866
49614SOL    HW255704   4.763   1.503   4.981  2.3293  0.4809 -1.2186
49615SOL     OW55705   3.454   5.215   9.786  0.0584 -0.2889 -0.4227
49615SOL    HW155706   3.530   5.269   9.766 -0.4417 -0.3905 -2.8342
49615SOL    HW255707   3.383   5.278   9.798  0.2764 -0.2508  0.8682
49616SOL     OW55708   8.109  10.136   9.497  0.3599  0.6550  0.3282
49616SOL    HW155709   8.057  10.089   9.562 -1.4460  0.1753 -1.3791
49616SOL    HW255710   8.091  10.229   9.515 -0.4413  0.5144  0.2730
49617SOL     OW55711   2.897  11.540  11.404 -0.3104  0.0367 -0.0660
49617SOL    HW155712   2.844  11.541  11.325  0.7707 -1.4317 -0.8643
49617SOL    HW255713   2.957  11.467  11.391  0.8501  0.6647  1.4868
49618SOL     OW55714   6.076   1.315  11.502 -0.0624  0.5351  0.0024
49618SOL    HW155715   5.983   1.315  11.480 -0.2203 -2.6301  0.2929
49618SOL    HW255716   6.078   1.336  11.595 -0.4800  0.6580 -0.0122
49619SOL     OW55717  11.387   4.723   0.459 -0.8433 -0.3308 -0.6935
49619SOL    HW155718  11.443   4.748   0.532 -0.6484 -0.4198 -0.8078
49619SOL    HW255719  11.376   4.803   0.408  0.1653 -0.5581 -1.3137
49620SOL     OW55720  10.513   4.787   3.182 -0.3524 -0.8451  0.4722
49620SOL    HW155721  10.467   4.710   3.147  0.9613 -1.8805  0.9307
49620SOL    HW255722  10.600   4.782   3.144 -0.4394  0.8387 -0.0329
49621SOL     OW55723   1.760   3.167   5.850 -0.7099 -0.5783  0.4213
49621SOL    HW155724   1.727   3.141   5.764  0.0367 -0.2174  0.0182
49621SOL    HW255725   1.846   3.125   5.856  0.6603  1.9024 -0.3561
49622SOL     OW55726   5.900  11.335   2.345  0.2839  0.2684  0.0676
49622SOL    HW155727   5.979  11.356   2.296  0.2074  0.4084  0.0030
49622SOL    HW255728   5.902  11.393   2.421 -0.2191  0.9191 -0.4109
49623SOL     OW55729   0.545   7.721   3.675  0.0961  0.0876 -0.4149
49623SOL    HW155730   0.505   7.641   3.640  0.6689 -1.1421  1.6058
49623SOL    HW255731   0.590   7.760   3.600 -3.0533  0.4451 -2.3102
49624SOL     OW55732  12.376  10.468   8.860 -0.0990 -0.3645 -0.4320
49624SOL    HW155733  12.326  10.549   8.867 -0.8998 -0.9309  0.7878
49624SOL    HW255734  12.314  10.399   8.885  0.7032 -1.3038 -0.9443
49625SOL     OW55735  11.121   1.729   9.289 -0.4406 -0.3050  0.1934
49625SOL    HW155736  11.146   1.809   9.242  1.6154 -0.9768  0.0453
49625SOL    HW255737  11.180   1.662   9.255 -2.4964 -2.0523 -0.0978
49626SOL     OW55738  12.408   7.167  12.285  0.1964  0.2566 -0.9638
49626SOL    HW155739  12.394   7.081  12.247  1.3459 -0.1945 -0.4187
49626SOL    HW255740  12.323   7.211  12.278  0.2018  0.0106 -3.5016
49627SOL     OW55741   9.515   6.445   1.452  0.6220  0.3341 -0.0370
49627SOL    HW155742   9.582   6.513   1.443 -0.1707  1.1195 -0.1427
49627SOL    HW255743   9.439   6.490   1.488 -0.2933 -0.2555 -1.1422
49628SOL     OW55744   6.400   7.998   4.108 -0.1338 -0.2279  0.5957
49628SOL    HW155745   6.422   8.068   4.170  1.1651 -0.5462  0.5278
49628SOL    HW255746   6.320   8.028   4.066  1.4009  2.2049 -0.8744
49629SOL     OW55747   0.491   4.290   4.572  0.2312  0.0197  0.1931
49629SOL    HW155748   0.576   4.284   4.615  0.1647 -1.7175  0.1590
49629SOL    HW255749   0.453   4.371   4.605  0.8213 -0.4750  2.2417
49630SOL     OW55750   0.971   9.120  10.232  0.0118  0.2191  0.1447
49630SOL    HW155751   0.920   9.086  10.305 -2.5035  2.8573 -0.1894
49630SOL    HW255752   1.029   9.185  10.271 -0.4636  0.7521 -0.0142
49631SOL     OW55753   4.930  11.127   7.189  0.1731  0.5671 -0.2169
49631SOL    HW155754   5.025  11.133   7.179  0.1736 -0.7517 -1.2714
49631SOL    HW255755   4.895  11.173   7.112 -0.0025  0.1053 -0.4218
49632SOL     OW55756   6.870   0.905   4.128  0.1910 -0.2617 -0.1376
49632SOL    HW155757   6.799   0.888   4.067 -1.0254  2.9615  0.2145
49632SOL    HW255758   6.950   0.895   4.076 -0.7351  0.5435 -1.7736
49633SOL     OW55759   0.091   7.598   9.119  0.1095  0.2838 -0.0071
49633SOL    HW155760   0.121   7.656   9.049  0.4169  0.3214  0.1539
49633SOL    HW255761   0.114   7.510   9.089 -0.5096  0.2232 -0.3289
49634SOL     OW55762   4.534   3.831   5.143  0.2382 -0.7054 -0.2386
49634SOL    HW155763   4.444   3.856   5.121  0.1737 -0.6680  0.0605
49634SOL    HW255764   4.587   3.908   5.121  0.1653 -0.6459 -0.2066
49635SOL     OW55765   1.673   2.921   9.961  0.4451 -0.5569  0.0378
49635SOL    HW155766   1.657   2.936   9.867 -1.4505  1.0070  0.5170
49635SOL    HW255767   1.648   2.830   9.975 -0.8734 -0.3559 -0.7395
49636SOL     OW55768   3.367  12.248  10.342  0.3660 -0.0275 -0.5045
49636SOL    HW155769   3.310  12.324  10.326 -0.3375 -0.3818  0.2685
49636SOL    HW255770   3.448  12.286  10.376 -0.2802  0.3490  0.6745
49637SOL     OW55771   2.246   3.906   2.152 -0.1996  0.1666 -0.2731
49637SOL    HW155772   2.308   3.966   2.111 -0.9390  1.9143  1.0114
49637SOL    HW255773   2.161   3.931   2.116 -0.3936 -0.8739 -0.5541
49638SOL     OW55774  10.473   3.697   7.231  0.0110  0.5629  0.0146
49638SOL    HW155775  10.446   3.629   7.170 -0.2555  0.0855  0.6556
49638SOL    HW255776  10.557   3.729   7.195  0.4244 -0.4921  0.0094
49639SOL     OW55777   2.680   5.656   5.349  0.5591  0.7363  0.1214
49639SOL    HW155778   2.586   5.655   5.332  0.5357 -0.5549  0.2363
49639SOL    HW255779   2.704   5.749   5.346 -0.3663  0.9676 -1.7556
49640SOL     OW55780  12.047   5.303   7.132  0.7799 -0.3665  0.1212
49640SOL    HW155781  11.988   5.364   7.089 -0.6521 -2.5743 -1.1975
49640SOL    HW255782  12.073   5.348   7.213 -1.9722  1.0677  0.3112
49641SOL     OW55783  10.051   4.415   9.901  0.0676 -0.1638  0.0013
49641SOL    HW155784  10.026   4.327   9.875  1.2554 -0.3668 -0.5122
49641SOL    HW255785  10.119   4.440   9.838 -3.0109  2.7489 -2.6053
49642SOL     OW55786  11.760   9.484   4.896  0.3103 -0.0612 -0.9111
49642SOL    HW155787  11.808   9.402   4.906 -0.0571 -0.1298  0.7260
49642SOL    HW255788  11.804   9.530   4.825  2.2320 -0.5223 -0.0972
49643SOL     OW55789   5.744  12.349  11.233  0.4980  0.3691  0.3054
49643SOL    HW155790   5.785  12.374  11.316  1.1488  0.8231 -0.1377
49643SOL    HW255791   5.815  12.309  11.183  0.1926  0.3965 -0.1556
49644SOL     OW55792   6.463   3.580   7.769  0.0143 -0.1481  0.0160
49644SOL    HW155793   6.542   3.528   7.783 -0.5686 -0.2535  4.2767
49644SOL    HW255794   6.396   3.516   7.744  0.4856 -0.5989 -0.1085
49645SOL     OW55795   6.141   4.045   7.796 -0.3812 -0.2878 -0.1793
49645SOL    HW155796   6.127   4.113   7.862  0.0043  1.1450 -1.5113
49645SOL    HW255797   6.084   4.070   7.724 -0.1059 -1.2967 -0.7611
49646SOL     OW55798   6.656  11.818  11.766 -0.5359 -0.4505  0.1027
49646SOL    HW155799   6.606  11.894  11.737  2.3388  1.6136  0.0246
49646SOL    HW255800   6.705  11.790  11.688  0.9326 -0.1858  0.8831
49647SOL     OW55801   9.711   0.256  11.449 -0.2195  0.1978  0.0633
49647SOL    HW155802   9.630   0.252  11.499  0.1073  2.6139  0.9189
49647SOL    HW255803   9.764   0.184  11.483 -0.9574  0.2811  1.4460
49648SOL     OW55804  11.442   6.053  11.764  0.7606 -0.3451  0.0150
49648SOL    HW155805  11.364   6.066  11.710  0.1196 -0.2808  0.9380
49648SOL    HW255806  11.408   6.021  11.847  1.7207 -0.2284  0.4619
49649SOL     OW55807   7.790   8.137   6.755 -0.0753 -0.1554  0.1173
49649SOL    HW155808   7.733   8.066   6.727 -1.6666  2.1893 -3.1902
49649SOL    HW255809   7.872   8.121   6.709 -0.6923  0.4751 -1.2617
49650SOL     OW55810  11.077   2.732   2.940 -0.0925  0.4259  0.7914
49650SOL    HW155811  11.103   2.800   2.878  2.3133 -0.5314  0.6162
49650SOL    HW255812  11.047   2.779   3.017 -0.4270  1.6430 -0.0540
49651SOL     OW55813   2.942   9.763   7.707 -0.4984 -0.0764 -0.0898
49651SOL    HW155814   2.955   9.798   7.795  3.5064 -0.0109 -0.5054
49651SOL    HW255815   2.979   9.830   7.650 -2.7376 -0.2530 -1.9027
49652SOL     OW55816   0.416   1.689   2.263  0.3130  0.1159  0.3958
49652SOL    HW155817   0.498   1.738   2.254  0.7264 -0.4187  1.1948
49652SOL    HW255818   0.360   1.744   2.317  0.0724  0.5507 -0.2750
49653SOL     OW55819   7.214   2.941   2.162 -0.3244  0.1359 -0.2877
49653SOL    HW155820   7.155   3.012   2.139 -2.0200 -0.8584  0.7911
49653SOL    HW255821   7.215   2.941   2.258 -0.7315 -1.5688 -0.2631
49654SOL     OW55822   8.134   5.390   7.546  0.0088  0.4430 -0.0289
49654SOL    HW155823   8.107   5.328   7.479  0.3032 -0.6221  0.8181
49654SOL    HW255824   8.218   5.357   7.578  1.7426  2.9460 -1.6580
49655SOL     OW55825  11.324   6.406   0.382 -0.3448  0.1235 -0.1487
49655SOL    HW155826  11.376   6.427   0.459  1.5113 -0.1063 -1.2827
49655SOL    HW255827  11.345   6.475   0.319  1.8454 -2.1352 -2.0813
49656SOL     OW55828   6.343   1.493  11.596 -0.2008 -0.0381  0.3141
49656SOL    HW155829   6.412   1.429  11.606 -0.6172 -0.9892 -2.1595
49656SOL    HW255830   6.263   1.447  11.621 -0.6131 -0.8799 -2.2437
49657SOL     OW55831   3.994   2.986   5.583  0.0565 -0.0832  0.0046
49657SOL    HW155832   3.910   2.941   5.596 -0.1481  0.0318 -0.8761
49657SOL    HW255833   3.987   3.066   5.635 -0.3746 -0.0829 -0.0508
49658SOL     OW55834   7.218   5.714  11.146 -0.2859  0.2508  0.3398
49658SOL    HW155835   7.175   5.692  11.063  1.3883 -0.3591 -0.4274
49658SOL    HW255836   7.157   5.685  11.213 -1.0543 -0.6087 -0.6824
49659SOL     OW55837   4.897   6.989   0.922 -0.0559  0.6084  0.0751
49659SOL    HW155838   4.854   6.924   0.977 -0.3251  0.8783  0.1867
49659SOL    HW255839   4.882   6.958   0.833  0.0671  0.3634  0.1398
49660SOL     OW55840   4.371   4.517  11.899 -0.3844 -0.1555  0.1467
49660SOL    HW155841   4.314   4.548  11.970 -0.9306 -1.2643  0.2131
49660SOL    HW255842   4.458   4.549  11.922 -1.0172  1.9584 -0.1752
49661SOL     OW55843   2.692   0.792  12.028 -0.3344 -0.5218 -0.5005
49661SOL    HW155844   2.692   0.749  11.942 -0.6529 -2.3524  0.3719
49661SOL    HW255845   2.768   0.754  12.073 -0.2359  0.3407  0.0738
49662SOL     OW55846   4.686   6.515   5.550  0.9683  0.9939  0.0495
49662SOL    HW155847   4.601   6.472   5.556  1.1332  0.6692  0.0680
49662SOL    HW255848   4.748   6.449   5.581  1.3838  0.7528 -1.2646
49663SOL     OW55849   1.240   2.362   0.040  0.4289  0.3080  0.4261
49663SOL    HW155850   1.173   2.355  -0.028  0.8823 -0.1345  0.0181
49663SOL    HW255851   1.191   2.366   0.122 -0.1142  0.6175  0.0893
49664SOL     OW55852   4.045  11.606  11.444  0.6572  0.0376 -0.2224
49664SOL    HW155853   4.007  11.691  11.465 -0.2176 -0.7378  1.6409
49664SOL    HW255854   4.140  11.620  11.447  0.5915  0.4970  2.5478
49665SOL     OW55855   3.360   7.761   4.105  0.1614 -0.1454  0.0292
49665SOL    HW155856   3.413   7.830   4.065 -0.9621  0.7928  0.1367
49665SOL    HW255857   3.414   7.682   4.095  2.2619  0.9967  1.4306
49666SOL     OW55858   6.892  12.346   8.539  0.5563 -0.2733  0.2355
49666SOL    HW155859   6.930  12.380   8.458  1.5951 -0.7018  0.5235
49666SOL    HW255860   6.959  12.362   8.605 -0.4742  0.5127  1.1248
49667SOL     OW55861  11.359  10.259  11.697 -0.3232  0.2373  0.6733
49667SOL    HW155862  11.433  10.317  11.713  1.8151 -2.5358  1.4655
49667SOL    HW255863  11.327  10.235  11.784 -1.7659  0.8631  0.3478
49668SOL     OW55864   5.574   2.703   2.810 -0.4171 -0.4765  0.5860
49668SOL    HW155865   5.642   2.638   2.828  0.2895  0.0297 -0.1681
49668SOL    HW255866   5.530   2.670   2.732  0.2081  0.1219 -0.0420
49669SOL     OW55867   8.053   6.934   8.395  0.2947 -0.0447 -0.5966
49669SOL    HW155868   8.092   7.005   8.345 -1.1219 -0.3968 -2.3026
49669SOL    HW255869   8.019   6.873   8.329 -1.7859 -0.4750  0.7521
49670SOL     OW55870   7.505   4.981   5.013 -0.3238 -0.1917  0.4018
49670SOL    HW155871   7.451   4.910   5.047 -0.0565 -0.8416 -0.4990
49670SOL    HW255872   7.511   4.964   4.919  2.3404 -0.7758  0.6069
49671SOL     OW55873   1.285   9.470   3.506 -0.3022 -0.0381 -0.0808
49671SOL    HW155874   1.271   9.383   3.469  0.9195 -0.2049 -0.1850
49671SOL    HW255875   1.217   9.524   3.466 -1.6932 -1.1225  0.7070
49672SOL     OW55876   0.403  12.104   3.750  0.2489 -0.4496 -0.2619
49672SOL    HW155877   0.442  12.130   3.666 -0.1673 -0.1928 -0.3753
49672SOL    HW255878   0.367  12.017   3.733 -0.8233  0.0502 -0.6790
49673SOL     OW55879   6.483  10.793   2.794 -0.0428 -0.8284  0.3388
49673SOL    HW155880   6.549  10.789   2.863 -1.0824 -0.7958  1.3699
49673SOL    HW255881   6.495  10.712   2.744 -0.0889 -1.4692  1.3412
49674SOL     OW55882   3.490  11.475  11.568  0.3374 -0.1517 -0.2636
49674SOL    HW155883   3.499  11.390  11.525 -0.8543 -0.3950 -0.0873
49674SOL    HW255884   3.536  11.537  11.511  2.1486 -1.0613  0.1574
49675SOL     OW55885   5.563  12.074   2.832 -0.0779  0.0758 -0.4814
49675SOL    HW155886   5.515  11.991   2.829 -2.0610  1.1801 -2.6166
49675SOL    HW255887   5.538  12.113   2.916  0.6958 -1.3284  0.4445
49676SOL     OW55888   2.049   2.680   9.198 -0.2482  0.1752  0.5833
49676SOL    HW155889   2.141   2.705   9.206 -0.6101  0.9154  3.8811
49676SOL    HW255890   2.035   2.617   9.269 -1.9411 -1.2314 -0.8907
49677SOL     OW55891   5.811   8.894   4.329  0.1648  0.5775 -0.3050
49677SOL    HW155892   5.748   8.962   4.353 -1.1905  0.7677 -3.8945
49677SOL    HW255893   5.890   8.942   4.305  0.6637  0.5336  1.1348
49678SOL     OW55894   0.642   4.634   3.917 -0.1272 -0.6009  0.0780
49678SOL    HW155895   0.589   4.569   3.964  1.0795 -2.4607 -1.0198
49678SOL    HW255896   0.715   4.653   3.976 -1.3264  1.1440  1.1241
49679SOL     OW55897   7.538   7.437   5.166 -0.0425  0.3861 -0.1313
49679SOL    HW155898   7.465   7.427   5.227 -0.2811  0.8165 -0.3425
49679SOL    HW255899   7.509   7.505   5.106  0.7877  0.9963  0.1547
49680SOL     OW55900   0.444   3.127   4.289  0.8189  0.1681 -0.0634
49680SOL    HW155901   0.397   3.175   4.222  0.6667 -0.1024 -0.1546
49680SOL    HW255902   0.424   3.173   4.371  1.8932  1.1494 -0.3382
49681SOL     OW55903   8.484   5.430   8.650 -0.2700 -0.9078 -0.3079
49681SOL    HW155904   8.496   5.367   8.578 -0.8644 -0.5714 -0.7121
49681SOL    HW255905   8.450   5.377   8.722 -1.6628 -0.9146 -0.9378
49682SOL     OW55906  10.166   0.428   1.220  0.3056  0.0270 -0.0951
49682SOL    HW155907  10.255   0.419   1.186  0.1921  1.7782 -0.9070
49682SOL    HW255908  10.176   0.416   1.315  1.5218  0.8600 -0.0952
49683SOL     OW55909  11.074   1.481   1.200 -0.0867 -0.1007 -0.3463
49683SOL    HW155910  11.050   1.428   1.123  0.7200 -0.8596 -0.0929
49683SOL    HW255911  11.169   1.477   1.203  0.1143  2.5056 -1.0761
49684SOL     OW55912   4.095   3.860   5.866  0.4319  0.4432  0.1158
49684SOL    HW155913   4.006   3.894   5.853  0.1818 -0.3798 -0.4256
49684SOL    HW255914   4.151   3.923   5.821 -0.1744 -0.7552 -2.5259
49685SOL     OW55915   8.351   8.724  10.644 -0.2732  0.0712 -0.3062
49685SOL    HW155916   8.330   8.631  10.653 -0.2790  0.0777 -0.2540
49685SOL    HW255917   8.282   8.758  10.586  0.8235 -0.3503 -1.9057
49686SOL     OW55918  10.161   5.537   2.845 -0.4150 -0.8545  0.1163
49686SOL    HW155919  10.162   5.575   2.758  1.3770 -1.6701 -0.2499
49686SOL    HW255920  10.164   5.612   2.905 -2.4473 -0.2535 -0.4488
49687SOL     OW55921   2.422   1.404   9.540  0.0170  0.0352 -0.4708
49687SOL    HW155922   2.482   1.409   9.465  0.6932 -0.1304  0.0435
49687SOL    HW255923   2.435   1.487   9.586  0.5375 -0.3804  0.1455
49688SOL     OW55924   3.982  11.209   8.119 -0.6641 -0.5554  0.2481
49688SOL    HW155925   4.049  11.153   8.078 -1.2096 -0.7299 -0.4334
49688SOL    HW255926   3.975  11.176   8.208  2.4690  1.5416  1.4354
49689SOL     OW55927   2.901   7.863   5.656 -0.4100 -0.1879 -0.1266
49689SOL    HW155928   2.828   7.803   5.642  0.1117 -1.3059  1.6575
49689SOL    HW255929   2.963   7.841   5.586 -0.9752 -0.5023 -0.5435
49690SOL     OW55930   5.500   4.049  10.533  0.1673  0.4400  0.3393
49690SOL    HW155931   5.405   4.045  10.525  0.0356 -0.0673  1.8190
49690SOL    HW255932   5.533   4.013  10.451 -0.8642  2.4947 -1.0872
49691SOL     OW55933   2.840  11.013   6.453 -0.8282  0.2723 -0.0979
49691SOL    HW155934   2.748  10.993   6.437 -0.6709 -0.0953 -0.5643
49691SOL    HW255935   2.881  10.929   6.471 -0.7167  0.5162  0.8529
49692SOL     OW55936   1.982   7.685   2.994 -0.1747  0.0363  0.0997
49692SOL    HW155937   1.968   7.719   2.906 -0.4493 -1.3326 -0.4119
49692SOL    HW255938   1.902   7.707   3.042 -0.6102 -0.4226 -0.4046
49693SOL     OW55939   4.483   0.565  11.986  1.0786 -0.3795 -0.6913
49693SOL    HW155940   4.559   0.598  11.939  1.0637  2.4427  1.0289
49693SOL    HW255941   4.516   0.543  12.073  0.4705 -2.1216 -0.8748
49694SOL     OW55942   9.125   1.104   8.806 -0.0843  0.1894 -0.2412
49694SOL    HW155943   9.121   1.009   8.802  0.0357  0.2219 -1.6854
49694SOL    HW255944   9.035   1.132   8.787 -0.6586  0.3700  2.3491
49695SOL     OW55945   4.887   7.606   5.811  0.5202  0.4391 -0.6142
49695SOL    HW155946   4.945   7.673   5.775 -1.1207  2.3523  0.0567
49695SOL    HW255947   4.810   7.655   5.840 -0.5078 -1.6970  0.5072
49696SOL     OW55948   6.245   2.863   1.189  0.0719 -0.0075 -0.4860
49696SOL    HW155949   6.153   2.886   1.207  0.1864 -0.7366  1.2805
49696SOL    HW255950   6.264   2.905   1.105 -2.2523 -0.8656 -1.5407
49697SOL     OW55951   2.705   0.594  11.418 -0.3247  0.0344  0.3341
49697SOL    HW155952   2.686   0.514  11.466 -1.3716 -0.5290 -0.9994
49697SOL    HW255953   2.791   0.621  11.451  0.3586 -1.9848  0.3237
49698SOL     OW55954   7.810   4.071   8.138 -0.6107 -0.5742  0.4004
49698SOL    HW155955   7.894   4.063   8.094 -0.7077  1.8849 -0.3701
49698SOL    HW255956   7.771   3.983   8.132  1.6325 -1.6410  0.3370
49699SOL     OW55957   9.467   4.677   5.098 -0.0301 -0.3193  0.0401
49699SOL    HW155958   9.468   4.708   5.007 -1.0186  0.3507  0.2359
49699SOL    HW255959   9.388   4.717   5.135 -0.2424 -1.4849  0.8838
49700SOL     OW55960   5.136  11.005  11.159  0.4216  0.2671  0.2214
49700SOL    HW155961   5.148  10.910  11.151 -0.0551 -0.0636  2.5208
49700SOL    HW255962   5.045  11.015  11.187  0.2642  1.4683 -0.6516
49701SOL     OW55963   7.851   0.131   0.731 -0.1043  0.3105 -0.5541
49701SOL    HW155964   7.781   0.120   0.796  0.1721 -1.7580 -0.5473
49701SOL    HW255965   7.929   0.150   0.784  0.2051 -1.7668 -0.1859
49702SOL     OW55966   9.372   9.063   5.226 -0.3151  0.0811 -0.1376
49702SOL    HW155967   9.305   9.021   5.280 -1.4154  2.1277  0.1744
49702SOL    HW255968   9.323   9.111   5.160  0.9114  0.3231 -0.9070
49703SOL     OW55969   0.620   6.944   3.700 -1.1571 -0.0169 -0.0841
49703SOL    HW155970   0.641   6.974   3.612 -0.4323 -0.1062  0.0516
49703SOL    HW255971   0.582   7.021   3.743  1.0262  0.8602  0.3772
49704SOL     OW55972  11.169  12.157   9.536  0.0995  0.6378 -0.2381
49704SOL    HW155973  11.153  12.245   9.502  0.6880  0.9654  0.3254
49704SOL    HW255974  11.259  12.137   9.509  0.8244  1.1568  1.6056
49705SOL     OW55975   9.934   7.695   7.692  0.4815  0.4640  0.0657
49705SOL    HW155976   9.917   7.789   7.698 -0.2615  0.2810  1.1154
49705SOL    HW255977   9.853   7.654   7.722  1.1554 -0.4985  0.6480
49706SOL     OW55978   6.739  12.324   3.512  0.5407 -0.3415 -0.0433
49706SOL    HW155979   6.778  12.337   3.426 -0.2353  0.6024 -0.2709
49706SOL    HW255980   6.731  12.413   3.548 -1.2137 -0.5034  0.0548
49707SOL     OW55981   8.686   9.740   2.154 -0.2067 -0.1313  0.2447
49707SOL    HW155982   8.688   9.803   2.226 -0.1618 -0.1837  0.2888
49707SOL    HW255983   8.645   9.788   2.082 -0.2163 -0.0671  0.2930
49708SOL     OW55984  11.720   4.830  12.458  0.0048 -0.2138 -0.1594
49708SOL    HW155985  11.632   4.812  12.491  1.5445 -2.5321  3.3521
49708SOL    HW255986  11.759   4.889  12.523  0.6774  2.0375 -2.4476
49709SOL     OW55987   2.335   3.612   6.348 -0.2746  0.3272 -0.4517
49709SOL    HW155988   2.373   3.527   6.369  0.5315  0.5724 -0.8587
49709SOL    HW255989   2.403   3.675   6.370 -0.5768  0.8084 -0.8623
49710SOL     OW55990   1.127   3.795   8.945  0.1950 -0.4300 -0.1013
49710SOL    HW155991   1.195   3.831   8.888  0.6503  0.3043  0.8680
49710SOL    HW255992   1.046   3.838   8.915  0.2826 -0.7005 -0.7402
49711SOL     OW55993   7.241   2.954   0.257 -0.3570 -0.4505  0.2981
49711SOL    HW155994   7.297   2.892   0.210  1.7940  0.8726  0.9320
49711SOL    HW255995   7.261   3.038   0.216 -1.1501  0.2038  1.2219
49712SOL     OW55996   9.839   0.849   0.465  0.2112  0.5504  0.6905
49712SOL    HW155997   9.854   0.846   0.559  2.2213  0.4192  0.4046
49712SOL    HW255998   9.744   0.840   0.456 -0.0418  0.7318  2.6943
49713SOL     OW55999   1.355   8.555   8.902 -0.0539  0.6862 -0.4230
49713SOL    HW156000   1.320   8.620   8.842 -0.7118  0.3173 -0.4542
49713SOL    HW256001   1.411   8.500   8.848  1.4383  1.8938 -0.1699
49714SOL     OW56002   4.133  10.609   7.994  0.5711 -0.2399 -0.2356
49714SOL    HW156003   4.193  10.540   7.964 -0.1324 -0.4865 -1.1315
49714SOL    HW256004   4.062  10.562   8.037  0.2394 -0.0654 -0.5825
49715SOL     OW56005   1.583   9.657   8.023 -0.2073  0.3497 -0.2237
49715SOL    HW156006   1.653   9.692   7.968  0.9054 -2.2284 -0.6471
49715SOL    HW256007   1.598   9.562   8.021 -2.2531 -0.0835  1.7169
49716SOL     OW56008   1.955   8.802  11.628  0.2473  1.0336  0.2791
49716SOL    HW156009   1.875   8.763  11.661  0.4707  0.3156 -0.0055
49716SOL    HW256010   2.024   8.771  11.687  0.4537  0.8238 -0.0634
49717SOL     OW56011   2.932   2.464   3.337  0.4561 -0.0881  0.7444
49717SOL    HW156012   3.002   2.435   3.394 -0.4911 -0.6381  1.6632
49717SOL    HW256013   2.853   2.422   3.371  0.1590 -2.5458 -2.4853
49718SOL     OW56014   5.339   1.177   6.395  0.2926 -0.4793  0.4195
49718SOL    HW156015   5.257   1.219   6.371  0.5520 -0.2767 -0.1131
49718SOL    HW256016   5.313   1.108   6.457 -0.7154 -2.6848 -2.2659
49719SOL     OW56017   0.399   8.440  11.580 -0.3243  1.0760  0.3571
49719SOL    HW156018   0.341   8.491  11.524 -0.4847  0.3679 -0.1451
49719SOL    HW256019   0.346   8.366  11.609  0.7922 -0.6351 -1.6513
49720SOL     OW56020  10.853   0.701  11.722  0.7176 -0.3925  0.8930
49720SOL    HW156021  10.894   0.718  11.637  0.6238  0.3187  0.9847
49720SOL    HW256022  10.917   0.732  11.786  0.3487  0.0544  1.0527
49721SOL     OW56023   1.873   8.747   2.018  0.5187 -0.1445 -0.0789
49721SOL    HW156024   1.931   8.814   2.053  0.3449 -0.2841  0.4845
49721SOL    HW256025   1.784   8.777   2.040  0.4567 -0.7656  0.5795
49722SOL     OW56026   3.057   7.713   4.118 -0.6087  0.5250  0.3600
49722SOL    HW156027   3.058   7.617   4.120  1.9111  0.4415 -1.3323
49722SOL    HW256028   3.149   7.738   4.128 -0.6229  2.5972 -3.3128
49723SOL     OW56029   7.219  12.164   1.971  0.0079  0.0953  0.2798
49723SOL    HW156030   7.246  12.077   1.941  2.4526  0.6458  0.6041
49723SOL    HW256031   7.273  12.179   2.049  0.9808  2.5705 -0.7729
49724SOL     OW56032   0.719  11.920  10.736 -0.3713  0.1836 -0.3011
49724SOL    HW156033   0.719  11.863  10.813 -0.7243  0.4848 -0.0755
49724SOL    HW256034   0.723  11.860  10.662 -1.1584 -0.1515 -0.0753
49725SOL     OW56035   0.423   0.644   0.578  0.0847 -0.2177  0.0675
49725SOL    HW156036   0.499   0.701   0.592  1.0689 -1.5113  0.2276
49725SOL    HW256037   0.371   0.653   0.658  0.7222 -0.2639  0.4954
49726SOL     OW56038  12.442   6.507   4.592  0.6630  0.7149 -0.4996
49726SOL    HW156039  12.422   6.433   4.535  3.3603  0.2485 -0.9750
49726SOL    HW256040  12.494   6.566   4.537 -0.1987  2.2920  0.3110
49727SOL     OW56041   9.492   1.529  11.136 -0.5127 -0.9195 -0.0272
49727SOL    HW156042   9.510   1.508  11.045  0.3608  1.0644 -0.3646
49727SOL    HW256043   9.408   1.574  11.135  1.4076  3.1680 -0.6452
49728SOL     OW56044   1.466   9.824   5.338 -0.0351  0.5060  0.0602
49728SOL    HW156045   1.472   9.763   5.411 -0.7479  0.8340  0.4017
49728SOL    HW256046   1.488   9.772   5.261  0.2484  0.0406  0.4534
49729SOL     OW56047   6.768  11.828  12.197  0.3370  0.0822  0.1710
49729SOL    HW156048   6.863  11.829  12.192  0.4110  2.3488  0.8649
49729SOL    HW256049   6.744  11.920  12.210 -1.9342 -0.4667  0.2126
49730SOL     OW56050   5.511   8.608   1.137  0.1586 -0.4925  0.1112
49730SOL    HW156051   5.520   8.574   1.048  0.5892 -0.5446  0.1736
49730SOL    HW256052   5.560   8.546   1.192  0.4075 -0.1309  0.3041
49731SOL     OW56053   9.823   5.888   4.625  0.1638  0.7854  0.0443
49731SOL    HW156054   9.854   5.807   4.585  0.2772  1.0396 -0.3990
49731SOL    HW256055   9.867   5.891   4.710 -0.9727 -0.3349  0.6936
49732SOL     OW56056   8.351   7.263  11.097 -0.0908  0.8585  0.3029
49732SOL    HW156057   8.347   7.171  11.121 -1.0628  0.7552 -0.1972
49732SOL    HW256058   8.444   7.283  11.090  0.1413 -0.5824 -1.4299
49733SOL     OW56059   0.465   5.918   9.683 -0.4074 -0.3246  0.0395
49733SOL    HW156060   0.457   5.823   9.682  0.6636 -0.4381  0.3801
49733SOL    HW256061   0.468   5.943   9.590  3.1181 -1.0457 -0.1819
49734SOL     OW56062   7.105   1.903   6.445 -0.3247  0.1094 -0.2736
49734SOL    HW156063   7.171   1.915   6.377  1.4277 -3.7101  0.4915
49734SOL    HW256064   7.047   1.834   6.411  0.1877 -1.3981  1.7182
49735SOL     OW56065   2.350   5.814   2.018  0.0176  0.0744  0.0623
49735SOL    HW156066   2.415   5.852   2.078 -1.2246  1.3045  0.6749
49735SOL    HW256067   2.401   5.788   1.941  0.8276  4.7847 -1.2945
49736SOL     OW56068  10.899   9.148   5.564  0.2412  0.3275  0.1139
49736SOL    HW156069  10.960   9.125   5.494 -1.0367 -0.7209 -0.7015
49736SOL    HW256070  10.826   9.191   5.520 -1.2762 -1.6490  0.5335
49737SOL     OW56071   0.119   0.637   7.796  0.3197  0.1514  0.6437
49737SOL    HW156072   0.110   0.550   7.834  0.9286 -0.0024  0.4580
49737SOL    HW256073   0.098   0.625   7.703 -1.1842  0.5285  0.9091
49738SOL     OW56074   0.910   7.929   9.346  0.2792  0.3095  0.1418
49738SOL    HW156075   0.886   7.838   9.330  2.2488 -0.3954  0.8368
49738SOL    HW256076   0.912   7.969   9.258 -0.3675 -0.3643 -0.1870
49739SOL     OW56077  12.001   5.602   8.583  0.1433  0.1717 -0.2033
49739SOL    HW156078  12.005   5.693   8.553  2.5101  0.3619  0.5034
49739SOL    HW256079  12.087   5.585   8.622 -1.3563 -1.3303  2.7645
49740SOL     OW56080   3.282   5.083   7.512 -0.4222 -0.4871  0.3081
49740SOL    HW156081   3.344   5.072   7.584 -2.2527 -0.6173  1.9413
49740SOL    HW256082   3.204   5.034   7.540 -1.8846  1.0604 -0.8807
49741SOL     OW56083   0.902   4.273   6.911 -0.0503 -0.0098 -0.3499
49741SOL    HW156084   0.944   4.356   6.890 -0.1684  0.7864  2.1776
49741SOL    HW256085   0.853   4.249   6.832 -0.4891  2.6368 -0.9552
49742SOL     OW56086   0.210   9.730   2.833  0.3708 -0.3398  0.1654
49742SOL    HW156087   0.221   9.796   2.765  0.7644 -0.8423 -0.2663
49742SOL    HW256088   0.270   9.660   2.809 -0.3269 -1.0416  0.3904
49743SOL     OW56089  10.818   6.335   8.026 -0.0471 -0.1216  0.1749
49743SOL    HW156090  10.889   6.280   7.992 -0.4139 -0.8909  0.6391
49743SOL    HW256091  10.863   6.410   8.067  0.4625 -0.1988 -0.2415
49744SOL     OW56092   2.283   9.699  11.355 -0.7363 -0.0269 -0.2131
49744SOL    HW156093   2.365   9.681  11.401 -0.0970 -0.7442 -1.5926
49744SOL    HW256094   2.233   9.753  11.417  0.9757  0.8734  0.4603
49745SOL     OW56095   4.802   8.109   3.880  0.4937 -0.2840 -0.2260
49745SOL    HW156096   4.863   8.047   3.920  1.0700  1.3683  1.6282
49745SOL    HW256097   4.718   8.062   3.881  1.1229 -1.4543  0.0711
49746SOL     OW56098   9.646   9.810  10.937 -0.0295 -0.1544 -0.0294
49746SOL    HW156099   9.718   9.863  10.968  0.4987 -0.2093 -1.1156
49746SOL    HW256100   9.630   9.747  11.008  1.8931 -1.0208 -0.2973
49747SOL     OW56101  12.456   6.210   6.747  0.1862  0.4583 -0.4149
49747SOL    HW156102  12.482   6.301   6.764  0.7652  0.5983 -1.9307
49747SOL    HW256103  12.395   6.216   6.674  0.6723 -0.4229 -0.9082
49748SOL     OW56104   1.456   3.623   2.548  0.1368 -0.0004  0.2688
49748SOL    HW156105   1.411   3.706   2.566 -1.6370 -1.1946  1.5886
49748SOL    HW256106   1.525   3.647   2.486 -0.9238  2.2943 -0.1388
49749SOL     OW56107   3.607   0.548   2.590  0.4211 -0.0704 -0.5519
49749SOL    HW156108   3.550   0.531   2.665  0.4810 -0.3382 -0.5661
49749SOL    HW256109   3.695   0.537   2.625  0.4343 -0.9216 -0.8331
49750SOL     OW56110   6.004   5.231   5.719  0.4266  0.1884  0.1325
49750SOL    HW156111   5.931   5.230   5.781  1.5914  1.0538  1.5803
49750SOL    HW256112   6.075   5.273   5.767  1.3967  0.8523 -1.8035
49751SOL     OW56113  11.946   8.575   4.271  0.4899  0.1290 -0.0077
49751SOL    HW156114  11.895   8.559   4.350 -0.6878 -1.7046 -1.0712
49751SOL    HW256115  11.892   8.637   4.221  1.2126  1.2512  0.5472
49752SOL     OW56116  10.673   6.625   1.867  0.4016 -0.1548  0.4353
49752SOL    HW156117  10.595   6.624   1.921  0.6632 -1.6069  0.8446
49752SOL    HW256118  10.716   6.708   1.887 -0.2641 -0.0166  1.3259
49753SOL     OW56119   1.933   2.647  11.061  0.1103 -0.4014 -0.1254
49753SOL    HW156120   1.840   2.660  11.041  0.3158 -0.2944 -1.0773
49753SOL    HW256121   1.960   2.728  11.103  0.0292  0.0399 -0.8901
49754SOL     OW56122   0.761   7.122   7.470  0.9597  0.0687 -0.0785
49754SOL    HW156123   0.803   7.037   7.459  0.5959 -0.3702  1.6862
49754SOL    HW256124   0.803   7.178   7.404  0.8057 -1.5866 -1.6562
49755SOL     OW56125   8.613   0.998   1.205  0.2205  0.7747  0.2306
49755SOL    HW156126   8.622   1.005   1.300 -0.4794 -0.1897  0.3919
49755SOL    HW256127   8.661   0.918   1.182 -1.9765 -0.6101  0.1936
49756SOL     OW56128   0.905  12.080   5.522  0.0604  0.4005  1.0314
49756SOL    HW156129   0.958  12.136   5.466  0.1660  0.7288  1.4555
49756SOL    HW256130   0.959  12.002   5.536  1.1131  1.3617  2.6991
49757SOL     OW56131   4.434   7.799  12.480  0.6999  0.0350 -0.3842
49757SOL    HW156132   4.502   7.849  12.436 -0.0511 -0.2752 -1.9422
49757SOL    HW256133   4.414   7.727  12.421  0.9415 -1.4651  1.3029
49758SOL     OW56134   4.280  11.587  11.774  0.2250 -0.8140 -0.2368
49758SOL    HW156135   4.376  11.590  11.783  0.1664 -1.0951  0.5290
49758SOL    HW256136   4.265  11.593  11.679  0.9395  0.6542 -0.2827
49759SOL     OW56137   9.543  12.376   0.283 -0.6702 -0.5363  0.1825
49759SOL    HW156138   9.488  12.298   0.290 -0.8055 -0.4710 -0.1207
49759SOL    HW256139   9.629  12.348   0.314 -0.1282 -1.4221 -1.8829
49760SOL     OW56140   4.002  11.455   3.556 -0.2226  0.5440  0.4262
49760SOL    HW156141   4.037  11.495   3.477 -0.2831  1.0385  0.6441
49760SOL    HW256142   3.960  11.374   3.526  0.3746  0.3629  0.0530
49761SOL     OW56143   9.340   7.617   1.073 -0.0151 -0.5102 -0.1434
49761SOL    HW156144   9.287   7.683   1.030  1.9932  2.4792  1.6081
49761SOL    HW256145   9.293   7.595   1.153  1.2023  2.2247  1.4706
49762SOL     OW56146   1.519   4.388  11.859 -0.4707 -0.4699  0.4465
49762SOL    HW156147   1.570   4.464  11.889 -1.5760 -0.4574  2.4762
49762SOL    HW256148   1.436   4.426  11.829 -1.0313 -0.8604  1.4785
49763SOL     OW56149   7.454   9.851   8.501 -0.3765  0.1668  0.0995
49763SOL    HW156150   7.441   9.767   8.456 -1.7915 -1.0177  2.5055
49763SOL    HW256151   7.455   9.916   8.431 -2.5445 -1.5287 -1.6720
49764SOL     OW56152   6.033  11.782   8.710 -0.0698 -0.9675  0.0599
49764SOL    HW156153   6.023  11.845   8.781 -0.5178 -0.7417 -0.1966
49764SOL    HW256154   6.009  11.831   8.631 -1.3746 -1.7114 -0.0323
49765SOL     OW56155   6.400   9.137   6.051  0.0328 -0.6576 -0.6740
49765SOL    HW156156   6.419   9.218   6.003 -0.4493 -1.0479 -1.5435
49765SOL    HW256157   6.447   9.147   6.134  1.4307 -0.2535 -1.4738
49766SOL     OW56158   1.025   7.018   3.170  0.0287  0.3783 -0.3712
49766SOL    HW156159   1.029   6.995   3.077 -0.8917  1.6667 -0.7507
49766SOL    HW256160   1.018   6.934   3.215  2.8831 -0.4603 -1.2636
49767SOL     OW56161   9.444   0.057   6.494  0.0734 -0.3460  0.1788
49767SOL    HW156162   9.383  -0.017   6.492  0.5517 -0.7645  0.9395
49767SOL    HW256163   9.389   0.132   6.517 -0.2914 -0.5846  0.0971
49768SOL     OW56164   3.165   5.004   6.012  0.4246 -0.1434 -0.0705
49768SOL    HW156165   3.174   5.098   6.029  0.7789 -0.0193 -0.9308
49768SOL    HW256166   3.099   4.975   6.076  0.0556  0.7546 -0.0247
49769SOL     OW56167   0.586   3.520  11.256  0.0372  0.0428 -1.4436
49769SOL    HW156168   0.579   3.614  11.267  0.4613 -0.1471  0.8075
49769SOL    HW256169   0.569   3.484  11.343  2.7213 -1.8011 -1.5752
49770SOL     OW56170   8.469   3.237   2.263  0.1160  0.2063 -0.4251
49770SOL    HW156171   8.526   3.170   2.301 -1.9030 -0.9327  0.7334
49770SOL    HW256172   8.417   3.191   2.198  0.9569  1.3907 -2.0056
49771SOL     OW56173   5.895   9.310   4.420 -0.0814 -0.5307  0.5029
49771SOL    HW156174   5.978   9.344   4.453 -0.3552  0.8103 -0.1157
49771SOL    HW256175   5.856   9.384   4.373 -1.1618 -1.4411 -0.0786
49772SOL     OW56176   8.482   9.539   7.289  0.1283  0.0211  0.2466
49772SOL    HW156177   8.540   9.465   7.304  2.1931  1.5277  0.1672
49772SOL    HW256178   8.438   9.518   7.206 -1.1197 -2.1162  1.3664
49773SOL     OW56179   0.266   2.619   0.246  0.1581  0.6225  0.4406
49773SOL    HW156180   0.190   2.624   0.304  0.4760  1.3549  0.8050
49773SOL    HW256181   0.228   2.605   0.159 -0.2645 -2.0994  0.9868
49774SOL     OW56182   4.348   7.156   2.824 -0.1791  0.1760  0.9309
49774SOL    HW156183   4.341   7.235   2.771 -0.6441 -2.1212 -2.7992
49774SOL    HW256184   4.283   7.167   2.893 -1.1247  2.4931 -0.2220
49775SOL     OW56185   6.086   5.680   3.746  0.1600 -0.0416 -0.1559
49775SOL    HW156186   6.156   5.625   3.711 -2.0130 -2.1584 -1.4767
49775SOL    HW256187   6.035   5.621   3.801 -0.9337  1.2946  0.3098
49776SOL     OW56188   6.895   2.121   1.718 -0.2170 -0.2282 -0.4809
49776SOL    HW156189   6.880   2.051   1.654 -0.6322 -0.8361  0.2650
49776SOL    HW256190   6.858   2.087   1.799  2.3015 -0.4215  0.6685
49777SOL     OW56191  10.053   9.132   1.017 -0.3297 -0.1431  0.4301
49777SOL    HW156192  10.060   9.037   1.007 -1.1416 -0.1719  0.0177
49777SOL    HW256193  10.077   9.166   0.931  3.0471  0.2460  1.3719
49778SOL     OW56194  10.523   3.782   6.060 -0.1855  0.2333 -0.0599
49778SOL    HW156195  10.612   3.755   6.038  0.2068  0.9295  0.6098
49778SOL    HW256196  10.502   3.849   5.994 -1.2493 -1.7872 -1.8716
49779SOL     OW56197   2.864   5.604   2.245 -0.4875  0.3773  0.0472
49779SOL    HW156198   2.773   5.576   2.251 -0.7637  0.6718 -2.1735
49779SOL    HW256199   2.859   5.697   2.223  0.3929  0.6613  0.9363
49780SOL     OW56200  11.322  12.023  10.330  0.2282 -0.0948  0.1582
49780SOL    HW156201  11.416  12.033  10.314  0.1959  0.8162  0.4636
49780SOL    HW256202  11.281  12.061  10.254  0.1018 -0.2453  0.1511
49781SOL     OW56203   8.157   6.684   6.119 -0.2902  0.2103 -0.1724
49781SOL    HW156204   8.135   6.745   6.190 -0.4970 -1.1165  0.9539
49781SOL    HW256205   8.166   6.599   6.163 -0.1583 -0.6028 -1.7125
49782SOL     OW56206   4.578   4.448   3.929 -0.2271 -0.4425  0.7979
49782SOL    HW156207   4.661   4.404   3.947 -0.6438 -1.3985  0.4302
49782SOL    HW256208   4.567   4.441   3.835 -1.1661 -1.1342  0.9506
49783SOL     OW56209  11.804   2.568   8.909 -0.3348  0.4187  0.3769
49783SOL    HW156210  11.780   2.500   8.845  2.2964 -0.2411 -0.0599
49783SOL    HW256211  11.830   2.519   8.987  0.0312  0.9955  0.6217
49784SOL     OW56212   8.113   8.253  10.755  0.0433 -0.4523 -0.4520
49784SOL    HW156213   8.020   8.263  10.733 -0.6769 -2.6186  1.1834
49784SOL    HW256214   8.122   8.297  10.840  0.9009  0.9814 -1.2445
49785SOL     OW56215   9.062  10.508   4.611 -0.4781  0.4334  0.0193
49785SOL    HW156216   9.099  10.462   4.686 -1.4378 -0.4495 -0.0278
49785SOL    HW256217   8.981  10.547   4.643 -0.4267  0.8423 -0.3287
49786SOL     OW56218   3.300  11.365   2.566 -0.1749  0.6366  0.0458
49786SOL    HW156219   3.307  11.305   2.641  0.9610 -1.5097 -1.6366
49786SOL    HW256220   3.215  11.345   2.526  0.2251  0.0649 -0.5452
49787SOL     OW56221  11.607  11.931   7.018  0.0154 -0.0953  0.9464
49787SOL    HW156222  11.592  11.839   6.999  0.4301  0.1412 -0.6993
49787SOL    HW256223  11.571  11.977   6.942  3.7739  0.7960 -0.4919
49788SOL     OW56224   1.286   0.200  11.765 -0.4623 -0.1191  0.3896
49788SOL    HW156225   1.246   0.286  11.781 -0.8968 -0.3573  0.6367
49788SOL    HW256226   1.251   0.173  11.681  0.4581  0.3741 -0.1677
49789SOL     OW56227   1.519  11.117   9.866  0.4318 -0.2596  0.3518
49789SOL    HW156228   1.563  11.156   9.941  0.3082  1.1176 -0.2682
49789SOL    HW256229   1.581  11.129   9.793 -0.8822  1.6479 -0.5216
49790SOL     OW56230   5.427   8.291   6.875 -0.1574  0.1714 -0.1877
49790SOL    HW156231   5.523   8.286   6.873 -0.1808 -0.5579  0.1318
49790SOL    HW256232   5.398   8.204   6.849 -0.7319  0.3078 -0.0179
49791SOL     OW56233   5.395   4.857   4.713 -0.4754 -0.3407  0.5794
49791SOL    HW156234   5.387   4.953   4.713 -1.0819 -0.3848  0.6672
49791SOL    HW256235   5.441   4.837   4.632  2.4744  0.2218  1.9865
49792SOL     OW56236   6.184   3.663   0.636 -0.0422  0.2042 -0.2570
49792SOL    HW156237   6.195   3.694   0.726 -1.7263 -0.4394  0.2027
49792SOL    HW256238   6.114   3.717   0.601 -1.1163 -1.1867 -0.3410
49793SOL     OW56239  11.355   0.233   2.978 -0.3078 -0.3388 -0.5005
49793SOL    HW156240  11.451   0.226   2.982 -0.3713 -0.9680  0.2670
49793SOL    HW256241  11.324   0.143   2.990 -1.0019 -0.1342 -0.6988
49794SOL     OW56242  12.240   3.162   7.814  0.1644 -0.2177 -0.4506
49794SOL    HW156243  12.206   3.072   7.812 -1.2191  0.1358  2.2903
49794SOL    HW256244  12.318   3.157   7.868  1.0660  0.0159 -1.6792
49795SOL     OW56245   5.807   7.483   4.008  0.0754  0.5273  0.3095
49795SOL    HW156246   5.848   7.398   4.023 -0.1428  0.3689  0.0248
49795SOL    HW256247   5.880   7.541   3.984  0.1068  0.1725 -0.4963
49796SOL     OW56248  10.103   2.064  12.235 -0.1363  0.3501  0.7217
49796SOL    HW156249  10.180   2.105  12.274  1.7512 -0.5487 -1.7891
49796SOL    HW256250  10.114   1.970  12.253 -0.6076  0.2004  0.2649
49797SOL     OW56251   3.567   3.819   2.554 -0.0796 -0.5839  0.1762
49797SOL    HW156252   3.604   3.905   2.572  1.4999 -1.2798  0.4679
49797SOL    HW256253   3.535   3.824   2.464 -0.8019  0.5451  0.4774
49798SOL     OW56254   9.214   2.599  12.060 -0.1708  0.7216  0.1886
49798SOL    HW156255   9.147   2.539  12.026  0.5911  0.8474 -1.6483
49798SOL    HW256256   9.195   2.682  12.016  1.3596  0.6848 -0.5655
49799SOL     OW56257   1.027   2.512  10.507  0.3247  0.0859  0.3874
49799SOL    HW156258   1.082   2.510  10.585  1.1288 -0.0403 -0.1731
49799SOL    HW256259   0.990   2.424  10.502  0.5883 -0.0280  0.4066
49800SOL     OW56260   7.080  10.888   5.757  0.3615  0.2848  0.6605
49800SOL    HW156261   7.026  10.954   5.799 -0.5754 -0.2264  0.2933
49800SOL    HW256262   7.054  10.892   5.664  1.7549  0.7926  0.2658
49801SOL     OW56263  11.247   3.032   5.214 -0.6181 -0.1661 -0.0731
49801SOL    HW156264  11.154   3.033   5.234 -0.5611  0.9574  0.2079
49801SOL    HW256265  11.252   3.056   5.121 -0.6742 -1.5862 -0.4551
49802SOL     OW56266   0.834  11.448   7.590 -0.4140 -0.3650  0.3148
49802SOL    HW156267   0.805  11.521   7.535  1.2111 -0.3874 -0.6234
49802SOL    HW256268   0.926  11.435   7.567  0.4919 -0.1293  3.3203
49803SOL     OW56269   0.059   4.754  11.284  0.4910  0.3254 -0.2593
49803SOL    HW156270   0.024   4.742  11.372 -1.8543  0.1033 -1.1427
49803SOL    HW256271   0.045   4.669  11.241 -1.8075  1.4451 -1.8941
49804SOL     OW56272   0.261   0.110   2.160  0.0023 -0.4715 -0.2651
49804SOL    HW156273   0.251   0.154   2.245 -0.9592 -0.1443 -0.5422
49804SOL    HW256274   0.326   0.042   2.176 -1.2711 -1.4049  1.1133
49805SOL     OW56275   6.987   0.099   4.973  0.1508  0.2519  0.0913
49805SOL    HW156276   6.950   0.131   5.055  0.6395 -0.5111  0.6212
49805SOL    HW256277   6.943   0.014   4.959  1.5064 -0.5502  0.5973
49806SOL     OW56278   6.053   1.069   2.326  0.2170  0.3832  0.1379
49806SOL    HW156279   6.094   1.058   2.412 -0.0483  1.1850  0.3748
49806SOL    HW256280   5.969   1.111   2.344  0.3923  1.0680 -0.5483
49807SOL     OW56281  11.414   8.165   6.655  0.0425 -0.3244 -0.5182
49807SOL    HW156282  11.318   8.164   6.649  0.0336  0.4633 -0.6762
49807SOL    HW256283  11.434   8.244   6.705  0.6613  0.5959 -2.1329
49808SOL     OW56284  11.127   7.311   9.985  0.2442 -0.3030 -0.1712
49808SOL    HW156285  11.184   7.307  10.061 -0.5372 -0.3774  0.4186
49808SOL    HW256286  11.043   7.343  10.019 -1.9079 -5.2776  0.1013
49809SOL     OW56287   4.443   2.518   5.969 -0.0850 -0.0777 -0.0058
49809SOL    HW156288   4.413   2.496   6.057  1.0988 -1.3999  0.0966
49809SOL    HW256289   4.527   2.562   5.982  0.1238 -0.3242 -0.4705
49810SOL     OW56290  12.144  12.182  11.522  0.2236  0.2635  0.0496
49810SOL    HW156291  12.210  12.146  11.581 -0.5216  2.2931  2.3350
49810SOL    HW256292  12.189  12.252  11.475 -0.1920  1.7539  1.7235
49811SOL     OW56293   1.354   6.070   5.604  0.3770  0.2575  0.0892
49811SOL    HW156294   1.382   6.155   5.639 -1.0891  0.7158  0.1945
49811SOL    HW256295   1.383   6.072   5.513 -1.6860  1.8951 -0.6077
49812SOL     OW56296   0.916   2.613   4.748  0.1035 -0.2386 -0.1908
49812SOL    HW156297   0.853   2.676   4.782  1.6711  0.6237  1.2996
49812SOL    HW256298   0.877   2.528   4.766 -0.8693  0.2685  0.1966
49813SOL     OW56299   3.551   9.824   2.017 -0.4685  0.0734 -0.0420
49813SOL    HW156300   3.491   9.868   1.957 -1.3152 -2.4374 -1.1768
49813SOL    HW256301   3.638   9.844   1.983 -0.9079 -0.6816 -1.7312
49814SOL     OW56302   9.317   6.206   0.349  0.6156  0.5464 -0.0618
49814SOL    HW156303   9.339   6.299   0.345 -0.4232  0.8660  1.1639
49814SOL    HW256304   9.295   6.191   0.441  0.2059 -0.7853 -0.3662
49815SOL     OW56305   6.660   6.213  10.727 -0.4795  0.2173 -0.2408
49815SOL    HW156306   6.638   6.140  10.669 -0.3904  0.3780 -0.4778
49815SOL    HW256307   6.748   6.239  10.700 -0.0663 -0.2892  0.5607
49816SOL     OW56308  11.043   6.977   5.189  0.0524 -0.7196 -0.4744
49816SOL    HW156309  10.948   6.976   5.202  0.2634 -2.2641  1.5537
49816SOL    HW256310  11.071   7.064   5.216 -0.6186 -0.8829  0.8179
49817SOL     OW56311  12.057   4.596   6.087 -0.2501  0.1601  0.3660
49817SOL    HW156312  12.088   4.645   6.164  0.8619  0.4051 -0.2136
49817SOL    HW256313  11.971   4.632   6.068  0.5664  1.9717 -0.0889
49818SOL     OW56314   7.636   6.811   0.424  0.2584  0.0783 -0.0817
49818SOL    HW156315   7.696   6.841   0.355  1.3660 -1.5849  0.1000
49818SOL    HW256316   7.550   6.813   0.382  0.7726  0.0913 -1.1931
49819SOL     OW56317   6.151   8.850   9.299 -0.4181  0.4631  0.0455
49819SOL    HW156318   6.238   8.837   9.337  0.3688  2.5400 -0.9063
49819SOL    HW256319   6.131   8.767   9.256  1.7136  0.3877 -0.9172
49820SOL     OW56320   8.778   9.589   6.102  0.1292  0.1583  0.1789
49820SOL    HW156321   8.720   9.609   6.028  0.2548 -1.2835 -0.3456
49820SOL    HW256322   8.816   9.505   6.079  0.0431 -0.4001  1.9848
49821SOL     OW56323   1.029   4.876   1.830 -0.2329 -0.0374 -0.1958
49821SOL    HW156324   0.995   4.928   1.903  0.1081  1.5069 -1.0940
49821SOL    HW256325   1.033   4.786   1.864  2.0426  0.9180  2.4779
49822SOL     OW56326   0.040   3.041   0.378  0.2087  0.2448  0.2848
49822SOL    HW156327   0.003   2.974   0.320  0.2706  0.2054  0.2913
49822SOL    HW256328  -0.036   3.077   0.423 -0.1284  1.7905 -1.3860
49823SOL     OW56329  10.857   1.883   8.004 -0.5536 -0.0962  0.1327
49823SOL    HW156330  10.832   1.793   8.027  1.3256 -0.6734  0.0960
49823SOL    HW256331  10.811   1.901   7.922 -0.0710 -1.4873 -0.4764
49824SOL     OW56332   6.392   6.811   1.494 -0.1846  0.1607 -0.0742
49824SOL    HW156333   6.453   6.800   1.566  0.4046  0.2570 -0.5502
49824SOL    HW256334   6.440   6.863   1.429 -0.3634 -0.7146 -0.9301
49825SOL     OW56335   8.893   0.601   9.352 -0.1277 -0.3632 -0.3091
49825SOL    HW156336   8.965   0.620   9.412 -0.5549 -0.9111  0.3842
49825SOL    HW256337   8.815   0.632   9.398 -0.5510 -1.5264 -0.2249
49826SOL     OW56338  10.068   6.780   9.139 -0.1556  0.2076  0.2895
49826SOL    HW156339  10.029   6.857   9.098 -0.0069  0.6919  1.0435
49826SOL    HW256340  10.095   6.809   9.226 -2.0994 -1.2167  1.4732
49827SOL     OW56341   8.010   7.309  10.637  0.6050 -0.1806  0.4872
49827SOL    HW156342   8.083   7.317  10.699  1.5622  1.6751 -0.7773
49827SOL    HW256343   8.051   7.276  10.557 -0.1547 -0.2102  0.1058
49828SOL     OW56344   5.090   5.908   5.305  0.1956 -0.1337 -0.5338
49828SOL    HW156345   5.177   5.904   5.266 -0.0844 -2.8431 -1.1020
49828SOL    HW256346   5.086   5.829   5.360 -1.9572 -0.1516 -0.6643
49829SOL     OW56347   8.574   3.855   6.866 -0.1362 -0.2435  0.0667
49829SOL    HW156348   8.485   3.877   6.837  1.1307  2.2046 -2.4943
49829SOL    HW256349   8.611   3.805   6.793  0.4299 -1.8032  1.3800
49830SOL     OW56350  11.020   1.120   6.926  0.7028  0.3709 -0.2084
49830SOL    HW156351  10.982   1.203   6.955 -0.5946  0.4594 -2.0316
49830SOL    HW256352  11.107   1.145   6.893  0.2651  1.0410 -0.8819
49831SOL     OW56353   1.165   5.280  10.732  0.7031  0.4003 -0.1374
49831SOL    HW156354   1.257   5.266  10.755  0.9908  1.7146 -0.3684
49831SOL    HW256355   1.147   5.370  10.760 -0.2717  0.4383 -0.8387
49832SOL     OW56356   3.636   3.317   6.385 -0.0643 -1.3486 -0.3060
49832SOL    HW156357   3.649   3.363   6.468  0.0704  0.2126 -1.1553
49832SOL    HW256358   3.692   3.239   6.393 -0.4894 -1.5398  1.2696
49833SOL     OW56359  11.437  12.133   9.472 -0.1316 -0.9848 -0.3518
49833SOL    HW156360  11.446  12.214   9.521 -0.2315 -1.9769  1.3862
49833SOL    HW256361  11.523  12.092   9.478 -0.9001 -2.4407  1.4938
49834SOL     OW56362  11.645   5.520   6.397 -0.4803 -0.0691 -0.0070
49834SOL    HW156363  11.686   5.592   6.444 -0.1568 -0.8284  0.9115
49834SOL    HW256364  11.701   5.444   6.414 -0.8529 -0.5711 -0.8832
49835SOL     OW56365   2.254   7.213   7.651 -0.4424 -0.1687  0.7111
49835SOL    HW156366   2.300   7.151   7.707  3.0695  0.6119 -1.0513
49835SOL    HW256367   2.321   7.273   7.620 -2.0485 -0.3744 -4.1225
49836SOL     OW56368   9.804   1.066   6.193 -0.0502  0.1584  0.5251
49836SOL    HW156369   9.747   1.091   6.121  1.4757  1.1101 -0.4237
49836SOL    HW256370   9.859   0.996   6.158 -0.0349 -0.1408  1.1256
49837SOL     OW56371   9.289   7.890   4.777  0.0917  0.1106  0.0310
49837SOL    HW156372   9.383   7.885   4.796  0.0291  0.7785  0.5656
49837SOL    HW256373   9.265   7.979   4.803 -0.9329 -0.4455  1.0347
49838SOL     OW56374   6.502   3.037   4.674 -0.4640  0.0729 -0.3375
49838SOL    HW156375   6.482   3.076   4.589  1.7062  1.1094 -0.4201
49838SOL    HW256376   6.468   3.100   4.738 -2.2804 -0.8025 -0.3749
49839SOL     OW56377  11.787   6.448   1.121  0.4324  0.1315 -0.1591
49839SOL    HW156378  11.724   6.516   1.099  1.8254  1.4971 -0.0483
49839SOL    HW256379  11.846   6.489   1.184  0.4719 -1.6354  1.0313
49840SOL     OW56380   9.729   5.283  11.244 -0.2446  0.1557 -0.4539
49840SOL    HW156381   9.798   5.232  11.286 -0.5335 -0.7450 -1.0644
49840SOL    HW256382   9.759   5.374  11.252  0.8692 -0.1986 -0.4422
49841SOL     OW56383   1.024   7.094   6.662 -0.0023 -0.3365  0.3075
49841SOL    HW156384   0.933   7.107   6.689  0.1409  1.4872  0.0392
49841SOL    HW256385   1.019   7.074   6.569 -0.0463  2.5658 -0.3996
49842SOL     OW56386   3.064   3.364   5.650  0.0814 -0.1459  0.7480
49842SOL    HW156387   3.121   3.386   5.723  1.5124  1.4942 -0.7892
49842SOL    HW256388   2.976   3.390   5.679  0.0541 -2.3486  2.9877
49843SOL     OW56389   1.322  10.645   3.762 -0.2695 -1.0414 -0.8653
49843SOL    HW156390   1.315  10.558   3.723 -1.3117 -2.1544  1.6044
49843SOL    HW256391   1.232  10.672   3.779  0.1213 -0.4140  0.3221
49844SOL     OW56392   2.563  11.653   1.992  0.0255  0.1098  0.2973
49844SOL    HW156393   2.505  11.647   1.917 -2.8164 -0.9934  2.4032
49844SOL    HW256394   2.570  11.563   2.025  0.5963  0.6462  1.7662
49845SOL     OW56395   1.763   3.161   3.974  0.0004  0.4602  0.4435
49845SOL    HW156396   1.705   3.197   3.906  1.7932 -0.6413 -1.8363
49845SOL    HW256397   1.832   3.227   3.984 -0.5177  0.8437  1.6193
49846SOL     OW56398   1.569   0.432   9.237 -0.2615 -0.0136 -0.7057
49846SOL    HW156399   1.523   0.500   9.187  0.1179  2.0158  1.5119
49846SOL    HW256400   1.505   0.361   9.245 -1.5516  1.0480 -1.1541
49847SOL     OW56401   1.020   5.153   6.922  0.3068  0.2885  0.3359
49847SOL    HW156402   1.114   5.168   6.913  0.4352 -0.8535 -0.4674
49847SOL    HW256403   1.012   5.102   7.003  0.0729  2.6261  1.8930
49848SOL     OW56404  11.343   3.788  11.659  0.1405 -0.1397 -0.5588
49848SOL    HW156405  11.265   3.755  11.703  1.1814 -4.2204 -1.3457
49848SOL    HW256406  11.317   3.874  11.627 -2.6020  0.4798  2.7005
49849SOL     OW56407   5.478   5.567   0.431 -0.3453 -0.2169 -0.2777
49849SOL    HW156408   5.431   5.539   0.353  0.3631 -1.5587 -0.2388
49849SOL    HW256409   5.412   5.566   0.500 -0.8159  0.3199 -0.7073
49850SOL     OW56410   6.386   8.361   4.605  0.8445 -0.2577  0.2405
49850SOL    HW156411   6.454   8.426   4.622 -1.2072  2.3315 -0.7823
49850SOL    HW256412   6.360   8.330   4.691  0.8356  1.5119  0.9205
49851SOL     OW56413   2.769   7.627  12.130  0.6067 -0.0386 -0.6211
49851SOL    HW156414   2.715   7.640  12.208  0.9802 -0.5473 -0.2646
49851SOL    HW256415   2.834   7.696  12.134  1.0545 -0.4787 -0.0930
49852SOL     OW56416   9.114  12.339   2.742  0.0185 -0.3092  0.1562
49852SOL    HW156417   9.063  12.261   2.763 -0.7363  0.2408  0.3963
49852SOL    HW256418   9.058  12.391   2.684  0.0599  0.5705  0.8801
49853SOL     OW56419   4.249  10.718   5.409 -0.6354 -0.1815  0.1403
49853SOL    HW156420   4.284  10.633   5.438 -3.7669 -1.5031  0.4145
49853SOL    HW256421   4.235  10.767   5.490 -0.3045 -0.0110  0.0964
49854SOL     OW56422  11.660   0.762   7.368  0.0197 -0.1859  0.1242
49854SOL    HW156423  11.725   0.691   7.360 -1.5223 -1.5377 -1.0828
49854SOL    HW256424  11.680   0.821   7.296 -0.0340 -0.5574 -0.1995
49855SOL     OW56425   6.208   2.138   4.865  0.4104  0.1636 -0.0850
49855SOL    HW156426   6.280   2.193   4.836 -0.3373  2.6617  2.4253
49855SOL    HW256427   6.135   2.162   4.809  0.9505 -0.9834 -1.3515
49856SOL     OW56428   4.883   2.923   3.648  0.0313 -0.1296 -0.4458
49856SOL    HW156429   4.839   2.930   3.563 -1.8827 -1.4994  0.3572
49856SOL    HW256430   4.921   2.835   3.648  1.0712  0.3075 -0.3307
49857SOL     OW56431   4.155  10.304   0.137  1.2715 -0.0237 -0.2905
49857SOL    HW156432   4.108  10.382   0.106  1.7700  0.0305 -0.9335
49857SOL    HW256433   4.238  10.305   0.089  2.7468  0.8651  2.0962
49858SOL     OW56434   9.368   5.215   9.576 -0.4674 -0.0230 -0.3206
49858SOL    HW156435   9.335   5.162   9.503 -0.8318  0.5520 -0.5756
49858SOL    HW256436   9.379   5.302   9.540  0.8973 -0.0919 -0.1066
49859SOL     OW56437  11.396   3.054   0.738  0.4652 -0.0704  0.1443
49859SOL    HW156438  11.410   3.139   0.779 -0.7880  0.0836  0.2674
49859SOL    HW256439  11.358   3.074   0.653  1.2213 -0.4753 -0.3045
49860SOL     OW56440   1.392   6.703   4.586  0.3063 -0.0096 -0.2676
49860SOL    HW156441   1.484   6.678   4.589  1.2494  2.5245 -3.0628
49860SOL    HW256442   1.388   6.788   4.630 -0.2397  0.8192 -1.8280
49861SOL     OW56443   5.135   2.535   1.521  0.6310  0.1065  0.7281
49861SOL    HW156444   5.160   2.605   1.460  1.5030  0.7481  1.7828
49861SOL    HW256445   5.080   2.477   1.469  1.1671  0.7439 -0.6156
49862SOL     OW56446  11.528   1.190   2.995  0.9118 -0.1022 -0.0588
49862SOL    HW156447  11.490   1.245   3.065  0.4240 -0.6012  0.0722
49862SOL    HW256448  11.462   1.123   2.979  0.3995  0.7760 -1.9524
49863SOL     OW56449   8.970   1.540   8.395  0.3931  0.0475  0.2217
49863SOL    HW156450   9.024   1.593   8.454  0.5781 -1.2522  1.2739
49863SOL    HW256451   8.952   1.597   8.320  1.2193  1.3116  0.9595
49864SOL     OW56452   7.466   9.829   4.715  0.3729 -0.1410 -0.3968
49864SOL    HW156453   7.384   9.807   4.672 -0.3648  0.0987  0.8225
49864SOL    HW256454   7.451   9.917   4.750  1.6572  0.4839 -1.3453
49865SOL     OW56455   5.493   9.413   5.770 -0.1304  0.1865  0.9633
49865SOL    HW156456   5.566   9.366   5.811 -0.5520 -0.3893  1.0807
49865SOL    HW256457   5.495   9.386   5.679  0.5592  1.1498  0.6832
49866SOL     OW56458  11.643   4.138   3.882  0.4464 -0.0623  0.1435
49866SOL    HW156459  11.662   4.047   3.859  0.3805 -0.1530  0.4506
49866SOL    HW256460  11.573   4.164   3.822  1.6091  0.3163 -1.1028
49867SOL     OW56461   9.422   3.323   1.896  0.7374 -0.0410  0.0448
49867SOL    HW156462   9.418   3.325   1.992  0.2707 -0.8934  0.0558
49867SOL    HW256463   9.375   3.243   1.872 -2.2903  1.8832 -1.0833
49868SOL     OW56464   6.127   6.271   2.019 -0.0351  0.4338 -0.5000
49868SOL    HW156465   6.189   6.201   2.041  0.8211  1.0867 -0.7770
49868SOL    HW256466   6.063   6.270   2.090  0.0478 -0.5241 -0.4193
49869SOL     OW56467   7.443  11.630   7.746 -0.5738  0.5771 -0.2980
49869SOL    HW156468   7.421  11.551   7.794 -0.9919 -1.0363 -2.9594
49869SOL    HW256469   7.537  11.624   7.732 -0.5498  0.7485 -0.2201
49870SOL     OW56470  10.302  10.072   3.774 -0.3418  0.1894 -0.2704
49870SOL    HW156471  10.270   9.999   3.720 -0.8875  0.3963 -0.2341
49870SOL    HW256472  10.355  10.125   3.714  0.8380 -0.7360 -0.0665
49871SOL     OW56473  10.199   6.154  10.697  0.4405  0.5271 -0.3680
49871SOL    HW156474  10.116   6.179  10.655  0.6563  0.9598 -0.5383
49871SOL    HW256475  10.177   6.075  10.747 -0.2841  1.1182  0.2823
49872SOL     OW56476   9.831   2.571   0.334  0.1056  0.3189 -0.1465
49872SOL    HW156477   9.877   2.573   0.251 -0.4022 -1.3832 -0.5192
49872SOL    HW256478   9.754   2.626   0.320 -0.1420 -0.2025 -0.9317
49873SOL     OW56479   8.641  10.480  11.353 -0.0995 -0.4867 -0.3008
49873SOL    HW156480   8.693  10.553  11.388  2.0967 -1.1722 -1.8964
49873SOL    HW256481   8.643  10.493  11.259  0.5357 -2.6828 -0.6491
49874SOL     OW56482   7.165   4.893   9.337 -0.0866  0.1385 -0.5028
49874SOL    HW156483   7.134   4.966   9.390 -0.4374 -1.3986  1.5812
49874SOL    HW256484   7.258   4.884   9.360 -0.2386 -0.5292 -0.0930
49875SOL     OW56485   7.510   2.672   1.616 -0.3603  0.1681 -0.0571
49875SOL    HW156486   7.536   2.726   1.690 -0.8911 -2.0648  1.8712
49875SOL    HW256487   7.466   2.596   1.655 -3.0886  0.1336 -2.7737
49876SOL     OW56488   7.265   7.705   4.368  0.5559  0.3491  0.1603
49876SOL    HW156489   7.232   7.615   4.377 -1.7007  1.1224  0.0751
49876SOL    HW256490   7.209   7.757   4.424  2.2328  1.6762  0.6905
49877SOL     OW56491   7.030   0.644   6.143 -0.2840 -0.5733  0.4186
49877SOL    HW156492   7.095   0.574   6.158 -0.9350 -1.7349 -1.6921
49877SOL    HW256493   7.052   0.678   6.056 -2.2476 -0.7423 -0.1899
49878SOL     OW56494   9.602   9.722   8.473  0.2103  0.3942 -0.4500
49878SOL    HW156495   9.530   9.778   8.500 -1.2968 -1.0043 -1.3836
49878SOL    HW256496   9.614   9.740   8.380  0.5367  0.0363 -0.4830
49879SOL     OW56497   4.111  10.223   5.745 -0.2916 -0.0748 -0.7926
49879SOL    HW156498   4.101  10.238   5.839  1.3087 -0.1164 -0.5858
49879SOL    HW256499   4.158  10.300   5.714  0.5754 -0.7700 -1.2564
49880SOL     OW56500   9.399   7.609   7.040  0.0010  0.0173  0.1496
49880SOL    HW156501   9.361   7.618   6.952  2.2160  0.9521 -0.8039
49880SOL    HW256502   9.330   7.569   7.092 -1.4479 -0.4484 -1.9839
49881SOL     OW56503   0.981   3.056   9.710 -0.2092 -0.5589 -0.3557
49881SOL    HW156504   1.053   2.994   9.703 -0.0627 -0.3740 -0.4968
49881SOL    HW256505   0.903   3.002   9.725 -0.3416 -0.8955 -2.0661
49882SOL     OW56506   6.588   1.692  12.303  0.4646  0.0280  0.2182
49882SOL    HW156507   6.570   1.651  12.387  0.4311  0.4761  0.4335
49882SOL    HW256508   6.598   1.785  12.323  0.0824  0.1920 -0.3239
49883SOL     OW56509   7.692   3.883  10.249  0.1205 -0.4283 -0.1154
49883SOL    HW156510   7.645   3.947  10.196  0.3644 -0.9181 -0.9562
49883SOL    HW256511   7.687   3.917  10.338 -0.8885  0.0760 -0.3439
49884SOL     OW56512   4.122   0.010   3.008 -0.7019 -0.0287  0.3652
49884SOL    HW156513   4.119   0.022   3.103  3.3318 -0.9523  0.7980
49884SOL    HW256514   4.091   0.093   2.972  0.9078  1.6852  2.6335
49885SOL     OW56515   5.179   6.846   1.707  0.2164  0.8205 -0.2699
49885SOL    HW156516   5.195   6.850   1.613  1.4045 -0.4313 -0.1647
49885SOL    HW256517   5.241   6.908   1.745  0.4164  0.6206 -0.2648
49886SOL     OW56518   8.836   7.094   3.151  0.4151  0.3403  0.4482
49886SOL    HW156519   8.865   7.060   3.066  0.8101  1.3659  0.1601
49886SOL    HW256520   8.916   7.127   3.192  0.3177 -0.6178  1.4666
49887SOL     OW56521   3.978   4.416   3.831 -0.1603  0.3521  0.8156
49887SOL    HW156522   3.926   4.342   3.861  0.0395  0.0402  0.3954
49887SOL    HW256523   3.917   4.472   3.783 -0.3508  0.5549  1.2929
49888SOL     OW56524   4.451  12.027   1.697  0.7116  0.0016 -0.8320
49888SOL    HW156525   4.455  11.949   1.642  2.0908 -1.5133  1.2863
49888SOL    HW256526   4.541  12.058   1.701  0.7033 -0.1290  0.8336
49889SOL     OW56527   8.747   9.067   7.492  0.0504 -0.7200 -0.3767
49889SOL    HW156528   8.738   8.972   7.484  0.3162 -0.8279  0.5117
49889SOL    HW256529   8.839   9.084   7.471 -0.1862 -0.5620 -1.3159
49890SOL     OW56530  12.318   8.624  10.566 -0.2236 -0.1005 -0.2023
49890SOL    HW156531  12.396   8.582  10.604 -1.5918 -2.8363 -0.2032
49890SOL    HW256532  12.289   8.685  10.633 -0.3021 -1.9365  1.5211
49891SOL     OW56533   2.020   9.603   2.868 -0.2313 -0.2256 -0.3519
49891SOL    HW156534   1.975   9.687   2.879 -1.3142 -0.9178  0.7725
49891SOL    HW256535   2.085   9.602   2.939  1.2732  0.5428 -1.6531
49892SOL     OW56536   2.744  11.580   6.119  0.4004  0.4197  0.3446
49892SOL    HW156537   2.693  11.631   6.182 -1.3456 -0.1450 -0.5477
49892SOL    HW256538   2.759  11.641   6.046 -0.5189  0.0815 -0.1381
49893SOL     OW56539  11.783   9.527   4.416 -0.0874  0.3281 -0.1600
49893SOL    HW156540  11.836   9.497   4.342  1.9265  0.6952  1.0760
49893SOL    HW256541  11.785   9.623   4.409 -0.8314  0.3416 -0.2515
49894SOL     OW56542   2.913   2.013   1.769 -0.3326 -0.4227 -0.5525
49894SOL    HW156543   2.963   2.004   1.688  1.0781 -0.3748  0.2817
49894SOL    HW256544   2.979   2.034   1.836 -1.6663  1.2203  0.3042
49895SOL     OW56545   5.619   3.393   5.222  0.1741  0.0113  0.4921
49895SOL    HW156546   5.533   3.356   5.245 -0.6137 -0.9291 -3.2447
49895SOL    HW256547   5.606   3.487   5.226 -0.3834 -0.1018  1.9495
49896SOL     OW56548   2.643   4.603  12.178  0.0380 -0.8344 -0.0517
49896SOL    HW156549   2.684   4.620  12.093  0.8294 -0.6196  0.3634
49896SOL    HW256550   2.708   4.632  12.242 -1.2063  0.6099  0.6313
49897SOL     OW56551   4.767  10.470   3.749  0.0898  0.0035 -0.0106
49897SOL    HW156552   4.786  10.549   3.700  0.7130  0.5473  1.0676
49897SOL    HW256553   4.851  10.422   3.751 -0.2717 -0.6742 -0.6269
49898SOL     OW56554  11.528   5.318  11.967 -0.1638 -0.1433  0.2841
49898SOL    HW156555  11.598   5.259  11.993 -0.2491 -0.4262 -0.1055
49898SOL    HW256556  11.474   5.266  11.908  0.5720  0.7482 -1.2534
49899SOL     OW56557   7.228   2.570   0.478  0.0826 -0.6771  0.2096
49899SOL    HW156558   7.214   2.576   0.384  0.1541  0.4929  0.2535
49899SOL    HW256559   7.146   2.536   0.513  0.2149 -1.5554 -0.3140
49900SOL     OW56560   1.279   6.889  11.439 -0.1532  0.4913 -0.2416
49900SOL    HW156561   1.304   6.971  11.481 -0.0661  0.6082 -0.5222
49900SOL    HW256562   1.183   6.887  11.446 -0.0858  0.1453  0.6369
49901SOL     OW56563   0.808   8.153   0.177 -0.0656  0.3152 -0.2240
49901SOL    HW156564   0.888   8.140   0.228 -0.5649 -1.1981  0.2023
49901SOL    HW256565   0.822   8.238   0.134  2.9957 -1.0638 -2.3701
49902SOL     OW56566   7.227   1.132  10.641  0.3093 -0.5807 -0.2565
49902SOL    HW156567   7.290   1.081  10.590  1.5547 -0.6168  1.2183
49902SOL    HW256568   7.221   1.216  10.596  0.2227 -1.1276 -1.2819
49903SOL     OW56569   3.606  10.095   9.093  0.4238 -0.6264 -0.3808
49903SOL    HW156570   3.632  10.117   9.003  1.5263  0.4586  0.1795
49903SOL    HW256571   3.688  10.077   9.138  0.0862  0.9178  0.9342
49904SOL     OW56572   0.055   5.183   0.227  0.1105  0.6907 -0.1611
49904SOL    HW156573   0.135   5.152   0.183  0.1764  0.5725  0.0451
49904SOL    HW256574   0.019   5.106   0.269  0.2244  0.8755  0.2754
49905SOL     OW56575  11.496  12.106   7.235  0.1548  0.2190  0.1812
49905SOL    HW156576  11.566  12.086   7.173  1.1945  0.3840  1.2724
49905SOL    HW256577  11.457  12.021   7.254  0.8032 -0.0314  0.4270
49906SOL     OW56578   0.293   4.946   8.004 -0.1701 -0.2997  0.5215
49906SOL    HW156579   0.342   4.946   7.921 -0.1859  0.9086  0.4867
49906SOL    HW256580   0.336   4.880   8.058  0.1020 -0.8096 -0.3030
49907SOL     OW56581   8.851  10.776   3.164  0.3594 -0.1269  0.0858
49907SOL    HW156582   8.807  10.845   3.215 -0.9803 -1.7596  1.2495
49907SOL    HW256583   8.783  10.745   3.104  0.1505 -2.0081  1.2191
49908SOL     OW56584   9.098   9.735   5.175 -0.3294  0.0225 -0.2125
49908SOL    HW156585   9.176   9.695   5.213 -0.3319 -1.1035 -1.3268
49908SOL    HW256586   9.132   9.806   5.121 -0.1382  0.0108 -0.1102
49909SOL     OW56587  11.185   1.186   0.402 -0.3285 -0.0067  0.2826
49909SOL    HW156588  11.149   1.211   0.317  0.0502  2.4484  0.7656
49909SOL    HW256589  11.113   1.200   0.463  0.6532  2.9075  0.9529
49910SOL     OW56590   5.964   9.694   8.358  0.0414  0.3792  0.6258
49910SOL    HW156591   5.873   9.695   8.388 -0.2324  3.1997 -0.0363
49910SOL    HW256592   6.015   9.728   8.432  0.5673 -0.9154  0.8935
49911SOL     OW56593   9.048   0.621   7.649  0.3751 -0.2461 -0.2737
49911SOL    HW156594   9.115   0.559   7.678 -0.2260 -0.8734 -0.2147
49911SOL    HW256595   8.966   0.586   7.683 -0.1576 -0.1981 -1.4741
49912SOL     OW56596   5.653   8.986   2.002 -0.1067  0.2013  0.1089
49912SOL    HW156597   5.639   9.046   2.075  0.5438 -0.5689  0.9104
49912SOL    HW256598   5.732   8.938   2.027 -0.6840 -1.0725 -0.4301
49913SOL     OW56599   8.943  10.628   4.331 -0.3535  0.2989  1.0314
49913SOL    HW156600   8.992  10.610   4.412  1.6792  1.3873  0.1332
49913SOL    HW256601   9.000  10.687   4.281 -1.8930  0.2951 -0.8676
49914SOL     OW56602  10.553   2.297   3.463  0.0761 -0.0888 -0.3216
49914SOL    HW156603  10.552   2.250   3.380 -1.7100 -1.9499  0.6744
49914SOL    HW256604  10.646   2.304   3.485  0.4670 -2.1275 -1.1091
49915SOL     OW56605   2.114   8.034  12.420  0.0081 -0.0987 -0.2961
49915SOL    HW156606   2.139   7.958  12.367  1.6692 -0.2174  0.5930
49915SOL    HW256607   2.132   8.109  12.363  0.5691 -0.2856 -0.3772
49916SOL     OW56608   5.472   7.488  10.214 -0.0429 -0.2542  0.2147
49916SOL    HW156609   5.454   7.398  10.241 -0.3432  0.4718  2.6213
49916SOL    HW256610   5.390   7.534  10.227  0.9884  1.0978  2.4351
49917SOL     OW56611   1.749   0.873   1.969 -0.6899 -0.1691 -0.0031
49917SOL    HW156612   1.780   0.783   1.978  1.5057  0.4781 -0.5541
49917SOL    HW256613   1.700   0.890   2.049  0.9716 -1.0822  1.2631
49918SOL     OW56614  12.060   1.906   7.592  0.3324 -0.6058  0.5583
49918SOL    HW156615  12.139   1.875   7.546  0.5247 -1.8243  1.6390
49918SOL    HW256616  12.001   1.830   7.591 -0.3154 -0.1123  0.8912
49919SOL     OW56617   9.986   4.967   5.705 -0.4789 -0.5342  0.2627
49919SOL    HW156618   9.914   5.018   5.742  0.2339  0.1989  0.6630
49919SOL    HW256619   9.980   4.882   5.749 -0.4265 -0.1031  1.1227
49920SOL     OW56620   6.871   8.444   3.961  0.0416 -0.3134 -0.2074
49920SOL    HW156621   6.942   8.416   4.019 -0.7937  1.2159  1.6503
49920SOL    HW256622   6.915   8.472   3.881  1.4756 -0.0158  0.6517
49921SOL     OW56623   2.190   6.700   1.203  0.1726  0.6319 -0.8130
49921SOL    HW156624   2.112   6.687   1.149  0.1042 -0.1068 -0.5468
49921SOL    HW256625   2.165   6.668   1.289  0.9564 -0.1496 -0.8644
49922SOL     OW56626   2.007   2.205   0.979  0.1383  0.1925  0.2314
49922SOL    HW156627   1.953   2.145   1.030  1.5107 -0.2331  1.2336
49922SOL    HW256628   2.017   2.282   1.035 -2.6054  2.0211 -1.4960
49923SOL     OW56629   1.270   6.899  12.234 -0.0339 -0.8679 -0.2490
49923SOL    HW156630   1.300   6.877  12.322 -1.2519 -2.1037 -0.1047
49923SOL    HW256631   1.350   6.902  12.181  0.6660 -0.5688  0.7822
49924SOL     OW56632   0.045   3.979   2.311  0.1671  0.0138  0.0081
49924SOL    HW156633   0.064   3.897   2.357  1.1987 -0.9689 -2.0276
49924SOL    HW256634   0.081   4.047   2.368 -0.2487 -0.9653  1.4991
49925SOL     OW56635   7.714   6.142   7.387 -0.5756  0.3354  0.3098
49925SOL    HW156636   7.685   6.230   7.362  0.8669  0.5509 -0.7059
49925SOL    HW256637   7.665   6.083   7.330  1.6238  0.7531 -2.1941
49926SOL     OW56638   4.095   3.639   4.205  0.1928 -0.3701 -0.4099
49926SOL    HW156639   4.117   3.695   4.279  0.3142 -0.9801  0.0283
49926SOL    HW256640   4.012   3.598   4.229 -0.8858  1.0396 -1.5513
49927SOL     OW56641   8.676   3.712   5.665  0.2604 -0.7913  0.3159
49927SOL    HW156642   8.708   3.775   5.729 -3.2738  1.2375  0.3640
49927SOL    HW256643   8.654   3.634   5.716  1.6030 -0.9042  0.7710
49928SOL     OW56644   7.786   2.871   5.433 -0.3376  0.1619 -0.3061
49928SOL    HW156645   7.859   2.931   5.417 -1.3572  1.6970  0.5537
49928SOL    HW256646   7.781   2.864   5.528 -1.8462  0.7904 -0.3180
49929SOL     OW56647   5.710  12.275  10.598 -0.4211  0.3348  0.0780
49929SOL    HW156648   5.667  12.246  10.678  0.9376 -1.4160  0.2386
49929SOL    HW256649   5.779  12.335  10.628  0.7869 -1.1404  0.3888
49930SOL     OW56650   0.586  11.125   4.931  0.2930  0.4197  0.1096
49930SOL    HW156651   0.621  11.036   4.928  1.0493  0.5811  2.1671
49930SOL    HW256652   0.664  11.180   4.942 -0.2795  1.1871  0.3948
49931SOL     OW56653   7.632  11.428   1.779 -0.1518 -0.3299  0.4291
49931SOL    HW156654   7.588  11.492   1.835 -1.3024 -0.2664 -0.4944
49931SOL    HW256655   7.578  11.349   1.787 -0.2907 -0.3383 -0.5128
49932SOL     OW56656   6.338  10.558  12.315  0.2907  0.4563 -0.4183
49932SOL    HW156657   6.310  10.543  12.405 -1.7886 -0.2411 -1.1120
49932SOL    HW256658   6.433  10.563  12.320  0.2550  0.1303  1.7620
49933SOL     OW56659   0.283   8.937   6.855  0.0624 -0.5125  0.3098
49933SOL    HW156660   0.323   8.908   6.773 -0.7624 -0.2033 -0.2124
49933SOL    HW256661   0.271   8.857   6.906  0.3604 -0.7353  0.0293
49934SOL     OW56662   1.982  11.440  11.171  0.4887 -0.4619  0.4022
49934SOL    HW156663   1.929  11.445  11.091  0.5642  0.8553  0.4242
49934SOL    HW256664   1.972  11.349  11.199 -2.3188 -0.1458  0.7585
49935SOL     OW56665   1.397   4.649   0.067 -0.0827 -0.3466 -0.1348
49935SOL    HW156666   1.456   4.707   0.019 -2.0291  1.7858 -0.1911
49935SOL    HW256667   1.388   4.691   0.153 -1.9689 -0.1571 -0.3617
49936SOL     OW56668  12.014   2.888  12.477  0.0675  0.6662  0.4973
49936SOL    HW156669  11.953   2.858  12.410 -0.2815  2.0949  0.1439
49936SOL    HW256670  11.978   2.854  12.559  0.7855 -1.5562 -0.0227
49937SOL     OW56671  11.577   6.527   4.992  0.0640 -0.2396 -0.4421
49937SOL    HW156672  11.549   6.444   4.953  0.8230 -0.3646 -0.7535
49937SOL    HW256673  11.673   6.527   4.982  0.4031 -0.6885  2.2789
49938SOL     OW56674   4.147  11.451   9.198 -0.7065  0.1947  0.1890
49938SOL    HW156675   4.117  11.404   9.276  0.1738  1.1525  1.1387
49938SOL    HW256676   4.218  11.398   9.163 -0.8117 -0.0187  0.2987
49939SOL     OW56677   5.370   7.741   9.868 -0.2663 -0.2537  0.1249
49939SOL    HW156678   5.326   7.693   9.937  0.9567 -1.0850  0.3564
49939SOL    HW256679   5.463   7.724   9.882  0.1799  1.7082 -0.1470
49940SOL     OW56680  11.293   1.917   8.850 -0.2448  0.2630  0.2205
49940SOL    HW156681  11.262   1.846   8.907  1.4847  0.0063  0.8960
49940SOL    HW256682  11.359   1.876   8.794 -0.1536  1.0656 -0.2739
49941SOL     OW56683   2.219   9.061   4.876 -0.6004  0.3074 -0.3508
49941SOL    HW156684   2.177   9.087   4.794 -1.2699 -0.8117 -0.3776
49941SOL    HW256685   2.220   8.966   4.874 -1.4499  0.2144  1.3356
49942SOL     OW56686  10.773   7.549  10.921  0.1864 -0.0288 -0.0639
49942SOL    HW156687  10.758   7.625  10.977 -0.8141  0.0116 -0.3575
49942SOL    HW256688  10.780   7.475  10.981 -0.0935  0.1215  0.1564
49943SOL     OW56689   9.161   3.035  12.066  0.2335 -0.5162  0.1679
49943SOL    HW156690   9.239   3.000  12.109  2.2286  0.2789 -2.5993
49943SOL    HW256691   9.185   3.122  12.037 -1.8619 -0.0493 -0.3510
49944SOL     OW56692   5.735   5.477   9.919 -0.0131 -0.2216 -0.4567
49944SOL    HW156693   5.796   5.441   9.983 -0.1923 -2.2557 -1.3536
49944SOL    HW256694   5.656   5.497   9.970  0.4726 -0.0647  0.2534
49945SOL     OW56695   1.679   7.938   5.712  0.2392 -0.8902  0.2788
49945SOL    HW156696   1.609   7.924   5.776  0.5374  1.8998  1.3499
49945SOL    HW256697   1.757   7.901   5.753  0.2604  0.1196  1.1858
49946SOL     OW56698   9.372   9.895   6.351 -0.3711  1.2259 -0.5200
49946SOL    HW156699   9.441   9.962   6.348  0.0727  0.7471 -1.3167
49946SOL    HW256700   9.306   9.932   6.410  1.4789  0.8099  1.9780
49947SOL     OW56701  10.852   1.623  10.856 -0.3035 -0.3053 -0.1631
49947SOL    HW156702  10.918   1.584  10.799 -0.3372  1.0570 -1.1812
49947SOL    HW256703  10.769   1.585  10.827 -0.1303 -0.9192  0.1428
49948SOL     OW56704  10.064   1.027   9.049 -0.8094  0.4679  0.0539
49948SOL    HW156705  10.129   1.049   8.982  0.0143  0.2769  0.7826
49948SOL    HW256706   9.985   1.006   8.999 -0.4691  1.2012 -0.8204
49949SOL     OW56707   0.125   6.050   0.217  0.0558  0.7553  0.0060
49949SOL    HW156708   0.219   6.067   0.227  0.0603  0.2493  0.8964
49949SOL    HW256709   0.100   6.101   0.140  1.3926 -0.3097 -1.2125
49950SOL     OW56710   6.107   9.480   2.420 -0.2347  0.0244  0.0111
49950SOL    HW156711   6.158   9.406   2.386  2.5206  1.8593 -0.1415
49950SOL    HW256712   6.109   9.468   2.515  0.4588  0.0409  0.0028
49951SOL     OW56713   6.998  11.990   4.962  0.1750  0.2268  0.1312
49951SOL    HW156714   6.936  11.925   4.928 -0.1377  0.9667 -0.7390
49951SOL    HW256715   7.030  12.036   4.884  0.8071  0.7605  0.6932
49952SOL     OW56716   9.820   9.678   1.633  0.7236 -0.1166  0.1202
49952SOL    HW156717   9.899   9.727   1.656  2.2891 -2.5335  0.2406
49952SOL    HW256718   9.851   9.590   1.613 -2.0154 -1.3154  0.6570
49953SOL     OW56719   4.477   1.401   0.660  0.7381  0.2665 -0.1284
49953SOL    HW156720   4.437   1.482   0.692  0.6374  0.6235 -1.1116
49953SOL    HW256721   4.559   1.395   0.709  1.8318  2.1667 -1.5607
49954SOL     OW56722  11.779   6.365  11.772 -0.0939  0.2690  0.2513
49954SOL    HW156723  11.855   6.372  11.829  0.6371  0.5113 -0.7266
49954SOL    HW256724  11.815   6.368  11.683 -1.1763 -0.3172 -0.2330
49955SOL     OW56725  10.325   8.180  10.874  0.9386 -0.5628 -0.2007
49955SOL    HW156726  10.241   8.222  10.855  0.7128 -0.1429  1.5633
49955SOL    HW256727  10.363   8.163  10.788 -0.6694 -0.2000 -1.0204
49956SOL     OW56728   4.282   4.864   4.213  0.4852  0.2493 -1.0764
49956SOL    HW156729   4.309   4.773   4.225 -1.4744 -0.2764 -0.3086
49956SOL    HW256730   4.195   4.869   4.251 -0.1908  2.0473 -2.6750
49957SOL     OW56731   5.343   7.257   7.128 -0.3547  0.1338 -0.3712
49957SOL    HW156732   5.327   7.265   7.034 -0.8629  2.3068 -0.1510
49957SOL    HW256733   5.259   7.280   7.168 -0.1162 -0.6755  0.6284
49958SOL     OW56734   3.520   6.971   1.817 -0.1853 -0.1063 -0.1980
49958SOL    HW156735   3.486   6.885   1.838 -0.6483  0.6456  2.3997
49958SOL    HW256736   3.587   6.988   1.883 -0.4791  1.7433 -0.3122
49959SOL     OW56737   8.299   7.844   8.059  0.0757 -0.3109  0.6741
49959SOL    HW156738   8.289   7.929   8.017 -1.0374  0.4314  2.3738
49959SOL    HW256739   8.314   7.784   7.986 -0.1237  1.1690 -0.6483
49960SOL     OW56740   3.563   3.068   7.414 -0.2578  0.0943 -0.7613
49960SOL    HW156741   3.503   3.086   7.487  0.1237  0.7403 -0.5991
49960SOL    HW256742   3.619   2.997   7.446  0.8819  1.3773  0.1559
49961SOL     OW56743   8.095   6.806   2.859 -0.3590  0.3216 -0.3036
49961SOL    HW156744   8.133   6.833   2.776  1.2799 -0.3635  0.1905
49961SOL    HW256745   8.163   6.755   2.902 -1.2539  0.4350  1.3575
49962SOL     OW56746   0.524   7.560   5.114 -0.8056  0.4539  0.0668
49962SOL    HW156747   0.487   7.628   5.057 -0.4075 -0.4529 -1.3188
49962SOL    HW256748   0.602   7.529   5.067  1.5454  1.9696  2.6448
49963SOL     OW56749   0.487   0.758   9.179 -0.4240  0.1649 -0.4145
49963SOL    HW156750   0.541   0.684   9.206  0.5337  1.1893  0.5837
49963SOL    HW256751   0.402   0.719   9.159  0.1825 -1.2597 -0.3713
49964SOL     OW56752   0.048   4.485  10.272  0.3473 -0.3948 -0.1329
49964SOL    HW156753  -0.045   4.465  10.259  0.1785  0.2486  0.0485
49964SOL    HW256754   0.072   4.539  10.197  0.0762  1.0241  0.7749
49965SOL     OW56755   3.401   9.158   0.642  0.3827  0.1948  0.0955
49965SOL    HW156756   3.322   9.129   0.688 -0.5072 -0.0772 -1.5560
49965SOL    HW256757   3.370   9.216   0.573  1.3833 -1.3101 -1.7417
49966SOL     OW56758   6.267   6.122   8.384  0.0967  0.2835 -0.7430
49966SOL    HW156759   6.230   6.122   8.472  1.6576 -1.8064  0.0198
49966SOL    HW256760   6.342   6.181   8.390 -0.8511  1.5953 -1.2486
49967SOL     OW56761  12.350   5.780   2.071 -0.5771  0.5089 -0.1775
49967SOL    HW156762  12.379   5.851   2.130  1.3411  0.9693 -1.5633
49967SOL    HW256763  12.411   5.709   2.088  0.3460  0.8376 -1.9216
49968SOL     OW56764   1.650   8.994   5.903 -0.1081 -0.2603 -0.0116
49968SOL    HW156765   1.701   9.050   5.961 -0.6754  1.5137 -1.1272
49968SOL    HW256766   1.714   8.935   5.864  1.1826  1.9104 -1.3750
49969SOL     OW56767   9.566   6.490   9.250  0.9360  0.2339 -0.0023
49969SOL    HW156768   9.594   6.575   9.217  0.7283  0.1893 -0.2952
49969SOL    HW256769   9.629   6.469   9.319  0.4914  1.0199  0.6659
49970SOL     OW56770   8.979   2.400   4.357  0.2145 -0.7936  1.0758
49970SOL    HW156771   9.021   2.316   4.378 -1.9242 -1.8664  1.2946
49970SOL    HW256772   8.965   2.441   4.443 -0.5464 -1.1328  1.1147
49971SOL     OW56773   5.470   2.295  10.136  0.1175  0.2523 -0.0051
49971SOL    HW156774   5.562   2.277  10.115  0.2402 -1.8984  1.9421
49971SOL    HW256775   5.421   2.247  10.069  0.3713  1.5077 -1.1257
49972SOL     OW56776   9.982   0.737   8.786  0.5678 -0.3674 -0.4738
49972SOL    HW156777   9.938   0.679   8.724 -0.5636  0.0033 -0.0416
49972SOL    HW256778  10.008   0.813   8.733  0.4782 -0.4809 -0.6808
49973SOL     OW56779  10.845   2.501   8.553 -0.7515 -0.1783  0.1005
49973SOL    HW156780  10.916   2.488   8.490 -1.2042  1.4613 -0.8258
49973SOL    HW256781  10.889   2.501   8.638  0.2925  0.1666 -0.4084
49974SOL     OW56782  10.095   4.817   6.726  0.3735  0.1380 -0.1280
49974SOL    HW156783  10.010   4.815   6.682  0.3647  0.0614 -0.1077
49974SOL    HW256784  10.084   4.882   6.795  0.2997  0.0600 -0.0639
49975SOL     OW56785   9.600   0.424   6.969 -0.0737 -0.4087 -0.0638
49975SOL    HW156786   9.612   0.479   7.046  0.4990 -0.3188 -0.2135
49975SOL    HW256787   9.642   0.473   6.898 -0.3998 -0.5937 -0.3880
49976SOL     OW56788   8.009   7.978   3.895  0.3816  0.1074  0.3880
49976SOL    HW156789   7.927   7.965   3.943  1.0543 -2.4462  0.9607
49976SOL    HW256790   7.987   7.958   3.804 -0.4348  3.1034 -0.1927
49977SOL     OW56791   8.475  11.394   7.317 -0.2032  0.3280  0.4639
49977SOL    HW156792   8.398  11.362   7.364  0.4199 -1.1076  0.5457
49977SOL    HW256793   8.441  11.429   7.235 -0.9713 -0.1035  0.5935
49978SOL     OW56794   7.923   5.716   8.159 -0.3346  0.1577 -0.1639
49978SOL    HW156795   7.908   5.777   8.232  1.6303  0.3891  0.0952
49978SOL    HW256796   7.977   5.647   8.197 -0.3031 -0.3519 -1.1127
49979SOL     OW56797  10.586   4.445   8.417  0.2753  0.0428  0.0054
49979SOL    HW156798  10.509   4.464   8.471  0.5382 -0.9654  0.7694
49979SOL    HW256799  10.649   4.514   8.440 -0.3799  0.8726 -0.6222
49980SOL     OW56800   7.122   1.477   7.107  0.2046 -0.3606  0.5957
49980SOL    HW156801   7.138   1.535   7.181 -0.1710 -0.5760  0.8490
49980SOL    HW256802   7.183   1.404   7.119  0.0625 -0.4529  0.7570
49981SOL     OW56803  10.038   0.473   5.678 -0.0646 -0.3488 -0.4642
49981SOL    HW156804  10.033   0.503   5.588  0.8835 -0.6144 -0.6224
49981SOL    HW256805  10.132   0.471   5.697 -0.0775 -2.8322 -0.3548
49982SOL     OW56806   4.312   3.324  10.359 -0.1676  0.6563 -0.4712
49982SOL    HW156807   4.219   3.341  10.349 -0.3159 -0.5183 -1.3497
49982SOL    HW256808   4.331   3.343  10.451 -1.5548 -0.3864  0.0623
49983SOL     OW56809   8.303   5.105   5.294 -0.2070  0.1201 -0.1719
49983SOL    HW156810   8.364   5.034   5.315  0.1984  0.5531  0.1354
49983SOL    HW256811   8.306   5.162   5.370  0.4805  1.1643 -0.9515
49984SOL     OW56812   8.309   4.508   8.548 -0.0223  0.0789  0.0560
49984SOL    HW156813   8.353   4.532   8.630 -1.1650  0.1412  0.6881
49984SOL    HW256814   8.364   4.543   8.479  0.6054  0.6592  0.8326
49985SOL     OW56815   0.242   5.602   8.472  0.3103 -0.4731  0.0271
49985SOL    HW156816   0.187   5.679   8.458  0.1939 -0.5064  0.2898
49985SOL    HW256817   0.331   5.632   8.454  0.0781 -0.7509 -1.6875
49986SOL     OW56818  11.006   8.070   3.558  0.0048 -0.4828  0.4165
49986SOL    HW156819  11.081   8.082   3.616  1.3341  0.1941 -1.3435
49986SOL    HW256820  10.945   8.016   3.608  0.9220  0.3372  2.5398
49987SOL     OW56821   5.943   8.117   5.933  0.3137  1.1032 -0.3341
49987SOL    HW156822   5.878   8.051   5.910  0.2176  1.3895 -0.8860
49987SOL    HW256823   5.985   8.082   6.012  0.8189 -0.0061 -1.0661
49988SOL     OW56824   0.256  12.237  11.640 -0.5044  0.4077  0.2814
49988SOL    HW156825   0.287  12.326  11.658  0.1687  0.1091  0.5954
49988SOL    HW256826   0.229  12.239  11.548  0.5478  0.6392 -0.0259
49989SOL     OW56827  11.168   7.954   7.035  0.1239  0.2672 -0.4682
49989SOL    HW156828  11.220   7.890   6.986 -0.1089  2.2042 -3.5417
49989SOL    HW256829  11.078   7.924   7.024  0.0749  0.6796 -1.2887
49990SOL     OW56830   8.305   2.852   0.252 -0.1245 -0.4679 -0.3359
49990SOL    HW156831   8.245   2.786   0.286 -0.5741 -0.2693 -0.7292
49990SOL    HW256832   8.368   2.802   0.199 -1.0612 -0.4908 -1.4650
49991SOL     OW56833   7.737   1.412  11.072 -0.3266  0.1694  0.0214
49991SOL    HW156834   7.739   1.415  11.168  0.0885  0.9038 -0.0069
49991SOL    HW256835   7.648   1.440  11.050  0.0018  1.3590  0.1535
49992SOL     OW56836   3.442  11.725   7.408  0.2162 -0.5911  0.5127
49992SOL    HW156837   3.458  11.770   7.491 -0.8806 -2.1098  1.5950
49992SOL    HW256838   3.491  11.643   7.415 -0.8565 -1.2828  0.1793
49993SOL     OW56839   1.821  10.239   5.300  0.6630 -0.0183 -0.5730
49993SOL    HW156840   1.905  10.248   5.346  0.9689 -0.6090 -1.0025
49993SOL    HW256841   1.779  10.164   5.341  0.5511 -0.0084 -0.6694
49994SOL     OW56842  12.250   7.163   5.493  0.3936  0.3873 -0.4498
49994SOL    HW156843  12.260   7.230   5.561  0.7372 -0.1374  0.0348
49994SOL    HW256844  12.177   7.109   5.524  0.0970  0.5523 -0.8527
49995SOL     OW56845   0.398   6.153  10.040  0.1201  0.4261 -0.0646
49995SOL    HW156846   0.345   6.126   9.964 -0.8369 -0.1715  0.7839
49995SOL    HW256847   0.452   6.076  10.059  1.0236  0.8983 -0.6877
49996SOL     OW56848  10.232   1.807   6.288  0.0101  0.3957  0.4272
49996SOL    HW156849  10.261   1.725   6.327 -1.3882  0.3138  1.3807
49996SOL    HW256850  10.137   1.806   6.298 -0.1260  1.6677 -0.4786
49997SOL     OW56851   3.951   2.191   1.350  0.0305 -0.3091  0.0002
49997SOL    HW156852   3.980   2.201   1.259 -1.0022 -0.8940 -0.4106
49997SOL    HW256853   3.945   2.281   1.383 -1.6099  0.0626 -1.1915
49998SOL     OW56854   6.399  12.237   6.669 -0.1541  0.8835  0.2380
49998SOL    HW156855   6.485  12.232   6.712  0.0531  0.5738 -0.2012
49998SOL    HW256856   6.336  12.224   6.739  0.1777  0.5695  0.4823
49999SOL     OW56857   0.781   4.111   4.354  0.1328 -0.0587 -0.5667
49999SOL    HW156858   0.689   4.084   4.362  0.1508 -0.4069 -1.3836
49999SOL    HW256859   0.782   4.170   4.279  0.2003  1.8088  0.8345
50000SOL     OW56860   4.486   6.493  11.763 -0.6947 -0.8662 -0.3269
50000SOL    HW156861   4.433   6.455  11.693 -0.8475 -3.8803  1.2291
50000SOL    HW256862   4.574   6.500  11.726 -1.2186 -0.2292 -1.5013
50001SOL     OW56863  10.487   3.292   2.294  0.2867 -0.7359  0.1827
50001SOL    HW156864  10.403   3.334   2.279 -0.7438 -2.2482  1.3960
50001SOL    HW256865  10.545   3.362   2.323 -0.5363  0.3267 -0.6865
50002SOL     OW56866   0.125   2.603   9.984  0.4043 -0.3234  0.3871
50002SOL    HW156867   0.082   2.666  10.042  1.1352 -1.0597  1.7889
50002SOL    HW256868   0.093   2.518  10.013  0.1668 -0.6780 -0.8538
50003SOL     OW56869   5.819   6.462   6.931  0.3420 -0.6563  0.0770
50003SOL    HW156870   5.805   6.555   6.913  0.7288 -0.9061 -1.6985
50003SOL    HW256871   5.913   6.455   6.948  0.3744 -0.7701 -0.1460
50004SOL     OW56872   3.252   0.409  10.024  0.1041 -0.3695 -0.2023
50004SOL    HW156873   3.182   0.440  10.082  0.3158 -0.4521  0.0939
50004SOL    HW256874   3.332   0.444  10.062  0.0658  1.4866 -1.6758
50005SOL     OW56875   5.579   3.118   0.437 -0.4588 -0.1864  0.4389
50005SOL    HW156876   5.673   3.134   0.437 -0.3918 -0.5516  0.8418
50005SOL    HW256877   5.560   3.085   0.525 -0.6589 -1.7883 -0.1699
50006SOL     OW56878   2.586   7.369   3.159 -0.1956 -0.3312  0.1524
50006SOL    HW156879   2.675   7.400   3.142  0.2965 -2.3048 -1.3114
50006SOL    HW256880   2.553   7.343   3.073 -0.8574 -2.8645  1.0889
50007SOL     OW56881  12.467  11.984  10.266 -0.1849  0.0472  0.2424
50007SOL    HW156882  12.416  12.057  10.232 -0.3506 -0.1582  0.0477
50007SOL    HW256883  12.533  12.025  10.322 -0.6787  0.3048  0.6486
50008SOL     OW56884  11.539   7.730  11.017 -0.5947  0.0842 -0.3741
50008SOL    HW156885  11.469   7.666  11.032  0.0347 -0.2620  1.2337
50008SOL    HW256886  11.551   7.773  11.101  1.3828 -0.1242 -0.5004
50009SOL     OW56887  10.307  10.863  10.061 -0.3965  0.7124  0.4597
50009SOL    HW156888  10.328  10.832   9.974 -2.1707  0.8292 -0.0615
50009SOL    HW256889  10.346  10.950  10.066 -0.7811  0.9451 -0.4546
50010SOL     OW56890   3.968   3.848   5.248  0.2382 -0.2949 -0.2752
50010SOL    HW156891   4.003   3.915   5.307 -0.7760  0.0894 -0.0758
50010SOL    HW256892   4.013   3.768   5.274  0.5429  0.0676  0.3481
50011SOL     OW56893   4.068   0.256   2.863  0.6745  0.2575  0.0751
50011SOL    HW156894   3.996   0.286   2.919  0.9176 -0.4516  0.7863
50011SOL    HW256895   4.104   0.336   2.826  0.8539  0.8102  1.3634
50012SOL     OW56896   4.948  10.909  12.283 -0.0707 -0.0736 -0.4912
50012SOL    HW156897   4.891  10.851  12.231  0.6267 -1.4200  0.1950
50012SOL    HW256898   5.014  10.939  12.221  1.9247 -3.2161 -0.0962
50013SOL     OW56899   1.636  11.257   0.762  0.7124  0.0054  0.2483
50013SOL    HW156900   1.659  11.263   0.669 -0.8522 -0.1264 -0.1761
50013SOL    HW256901   1.622  11.348   0.789  2.9079  0.2167  0.8691
50014SOL     OW56902   5.293   7.401   3.678  0.3945 -0.4313 -0.0286
50014SOL    HW156903   5.370   7.372   3.628  1.0087  0.4606  0.3672
50014SOL    HW256904   5.325   7.475   3.730 -0.6225 -0.3498  0.5044
50015SOL     OW56905   0.326  11.045   7.202 -0.0413  0.2395 -0.2063
50015SOL    HW156906   0.332  11.013   7.112  0.0023 -0.4423  0.0340
50015SOL    HW256907   0.399  11.107   7.210 -0.7927  1.2760 -1.0161
50016SOL     OW56908   9.752  11.347   5.205  0.2332  0.3930 -0.1453
50016SOL    HW156909   9.664  11.311   5.220  0.2167  0.2236 -0.6150
50016SOL    HW256910   9.741  11.407   5.131  0.4093  0.7946  0.1510
50017SOL     OW56911   2.015   9.500  10.447  0.0285  0.1456 -0.3189
50017SOL    HW156912   1.994   9.412  10.414 -1.4865  0.7827 -1.1591
50017SOL    HW256913   1.985   9.559  10.378  0.7941  1.3535  0.3482
50018SOL     OW56914   4.112   2.071   0.517  0.1956 -0.4685  0.1695
50018SOL    HW156915   4.142   2.139   0.457  0.6404 -0.6774  0.1467
50018SOL    HW256916   4.187   2.012   0.525 -0.3137 -1.1758 -0.1307
50019SOL     OW56917  10.900  11.565   9.199 -0.7111  0.0997 -0.3772
50019SOL    HW156918  10.863  11.483   9.166 -0.0847  0.3709 -1.8369
50019SOL    HW256919  10.827  11.609   9.243 -1.3263 -0.7362 -0.5436
50020SOL     OW56920   1.234   3.116   3.107 -0.1324  0.2438 -0.4170
50020SOL    HW156921   1.255   3.109   3.014  1.9509  2.3897 -0.2031
50020SOL    HW256922   1.259   3.031   3.143 -0.3360 -0.3842 -1.6869
50021SOL     OW56923   4.374   8.042   2.220  0.0250 -0.4097  0.1652
50021SOL    HW156924   4.284   8.066   2.196 -0.7141 -0.9950  2.1881
50021SOL    HW256925   4.428   8.088   2.155 -1.6682  0.8312 -0.4661
50022SOL     OW56926   1.664  10.257   6.871  0.1862 -0.7707  0.2527
50022SOL    HW156927   1.653  10.205   6.792  0.9466 -0.6208  0.0376
50022SOL    HW256928   1.666  10.348   6.840 -1.6396 -0.5492  0.6761
50023SOL     OW56929   8.672   4.471  12.416 -0.7154 -0.0800  0.1256
50023SOL    HW156930   8.726   4.542  12.381 -0.2096 -0.2879  0.4750
50023SOL    HW256931   8.685   4.475  12.511 -0.0818 -1.1028  0.0980
50024SOL     OW56932   5.368  12.349  12.180  0.3844 -0.0965  0.5755
50024SOL    HW156933   5.413  12.349  12.264  0.2281  0.8956  0.6650
50024SOL    HW256934   5.286  12.303  12.197  0.6840 -0.5599  0.7813
50025SOL     OW56935   3.404   4.947   3.428 -0.1744  0.4183 -0.1353
50025SOL    HW156936   3.452   4.902   3.497  0.1250 -0.5320 -0.9478
50025SOL    HW256937   3.432   5.039   3.436  1.7450 -0.1047 -0.5589
50026SOL     OW56938   5.553   2.821   1.391 -0.0574 -0.1990  0.1538
50026SOL    HW156939   5.569   2.876   1.315 -2.4146  1.9939  1.1235
50026SOL    HW256940   5.459   2.800   1.387  0.2440 -2.0399  1.2224
50027SOL     OW56941   8.425   4.842   6.253 -0.3416 -0.0307 -0.1153
50027SOL    HW156942   8.407   4.911   6.190  1.1131  1.2589  0.8133
50027SOL    HW256943   8.432   4.887   6.337  1.4776 -1.1359  0.3897
50028SOL     OW56944   1.145   4.455   9.767 -0.1300  0.1129  0.3964
50028SOL    HW156945   1.059   4.417   9.752  0.3452 -0.7536 -0.1714
50028SOL    HW256946   1.205   4.403   9.714  1.0635 -0.6608  2.3868
50029SOL     OW56947   1.452   8.671   3.196 -0.1564  0.1370 -0.8465
50029SOL    HW156948   1.519   8.638   3.256  0.0876  2.0940  0.0103
50029SOL    HW256949   1.379   8.610   3.206  0.7725 -0.9422 -0.3821
50030SOL     OW56950  10.841   1.806   0.085  0.7449  0.5590 -0.5761
50030SOL    HW156951  10.934   1.799   0.063  0.9822 -1.6707  0.8210
50030SOL    HW256952  10.836   1.783   0.178 -1.0205  2.5774 -0.0794
50031SOL     OW56953   9.000   3.854   4.412 -0.5581  0.2356  0.9357
50031SOL    HW156954   9.056   3.778   4.428 -2.2199 -1.0240  1.1665
50031SOL    HW256955   8.985   3.892   4.498  0.8501  1.2964  0.7385
50032SOL     OW56956  10.330   3.163  11.214 -0.2499  0.1756 -0.5119
50032SOL    HW156957  10.353   3.095  11.278 -0.9762  0.3231 -0.0827
50032SOL    HW256958  10.410   3.178  11.165 -0.3044 -1.6922 -1.2596
50033SOL     OW56959   2.265   8.347  11.980 -0.1407 -0.3342 -0.4659
50033SOL    HW156960   2.311   8.405  11.919  1.3719 -0.5839  0.3643
50033SOL    HW256961   2.322   8.270  11.985 -0.4042 -0.4526  0.9869
50034SOL     OW56962   3.595  10.820   2.287 -0.0814 -0.4612 -0.1639
50034SOL    HW156963   3.567  10.876   2.215  1.0226 -0.1112 -0.3434
50034SOL    HW256964   3.636  10.744   2.245 -1.0125 -1.1240  0.0844
50035SOL     OW56965   3.535   0.574  10.928  0.2055 -0.3226 -0.2433
50035SOL    HW156966   3.528   0.600  11.020 -1.3102 -1.5281  0.0345
50035SOL    HW256967   3.562   0.482  10.931  1.5531  0.0239 -1.0654
50036SOL     OW56968   9.141   6.419   5.224  0.5008 -0.0637 -0.3335
50036SOL    HW156969   9.058   6.433   5.179  0.9710 -0.5484 -1.3813
50036SOL    HW256970   9.141   6.484   5.295 -2.1129 -2.0212  1.6716
50037SOL     OW56971  10.260   2.918   7.319  0.2930 -0.2170  0.2065
50037SOL    HW156972  10.173   2.894   7.351  0.2599 -1.8454 -0.9979
50037SOL    HW256973  10.250   3.007   7.286 -0.3453  0.4512  2.0600
50038SOL     OW56974   5.770   6.161   1.949  0.2110 -0.1761  0.5394
50038SOL    HW156975   5.698   6.185   1.890 -1.0211 -1.1494  1.5704
50038SOL    HW256976   5.829   6.237   1.947  0.8530 -0.6112 -2.7629
50039SOL     OW56977   0.636  11.024  10.152  0.2326 -0.0454 -0.1132
50039SOL    HW156978   0.721  11.014  10.195 -0.7660  0.0799  1.9864
50039SOL    HW256979   0.593  10.939  10.164  0.6135 -0.6573 -2.5616
50040SOL     OW56980   2.093   4.901   1.678 -0.1294  0.0934  0.3801
50040SOL    HW156981   2.159   4.966   1.702  0.3325 -0.5294  0.7927
50040SOL    HW256982   2.122   4.868   1.593 -0.3418  0.3869  0.1902
50041SOL     OW56983  10.604   1.244  10.649  0.3394 -0.1061  0.2179
50041SOL    HW156984  10.638   1.232  10.560 -1.1477 -1.2063 -0.2424
50041SOL    HW256985  10.530   1.304  10.637  0.0326 -0.3898  0.6886
50042SOL     OW56986   5.449  10.286   1.037  0.1759 -0.3247  0.1499
50042SOL    HW156987   5.530  10.259   0.994  0.5246 -1.3548  1.3998
50042SOL    HW256988   5.472  10.294   1.130 -0.8352  0.6832  0.3354
50043SOL     OW56989   8.208   9.762   6.869 -0.1611  0.0760 -0.1250
50043SOL    HW156990   8.284   9.723   6.913  0.8555  2.8379  0.7520
50043SOL    HW256991   8.138   9.758   6.934 -0.0185 -0.0955  0.0191
50044SOL     OW56992   0.211   7.533   4.457 -0.1280 -0.1938 -0.1621
50044SOL    HW156993   0.124   7.532   4.418  0.0069 -2.3160 -0.5173
50044SOL    HW256994   0.256   7.606   4.413 -1.4808  0.4573 -0.5027
50045SOL     OW56995   3.516  11.887  10.821  0.0344 -0.2632  0.1386
50045SOL    HW156996   3.541  11.857  10.734 -1.7927 -1.7784  0.0613
50045SOL    HW256997   3.460  11.963  10.805 -0.7406 -0.8630 -0.0764
50046SOL     OW56998   3.033   0.003   0.693 -0.8248  0.0033 -0.0062
50046SOL    HW156999   3.071  -0.080   0.721 -0.1713  0.0289 -0.7638
50046SOL    HW257000   3.040   0.060   0.769  0.6544 -0.0079 -0.1020
50047SOL     OW57001   8.509   2.113   0.266 -0.0945 -0.0406  0.3362
50047SOL    HW157002   8.464   2.193   0.240  0.9613  0.5286  0.1911
50047SOL    HW257003   8.451   2.071   0.329 -1.6067 -0.2152 -1.1198
50048SOL     OW57004   7.594   5.202   8.432 -0.6535  0.4643 -0.0297
50048SOL    HW157005   7.575   5.144   8.506 -1.2224 -0.4015 -0.8304
50048SOL    HW257006   7.558   5.287   8.458 -0.8298  0.1756  0.6883
50049SOL     OW57007  11.619   6.249   7.876 -0.7886  0.3309 -0.0596
50049SOL    HW157008  11.630   6.155   7.860 -0.6552  0.2449  0.5307
50049SOL    HW257009  11.566   6.279   7.802  0.5514  0.1139 -1.1642
50050SOL     OW57010   2.453  12.187   2.723 -0.2762 -0.1246 -0.6437
50050SOL    HW157011   2.463  12.143   2.639 -0.2741 -0.3780 -0.5122
50050SOL    HW257012   2.367  12.160   2.755 -1.3716  1.9024 -1.6875
50051SOL     OW57013   4.833   9.759   3.368 -0.4331  0.1652  0.0408
50051SOL    HW157014   4.909   9.748   3.310 -0.5547 -0.2864 -0.0408
50051SOL    HW257015   4.848   9.696   3.439 -0.4396  0.4951  0.3340
50052SOL     OW57016  11.416  10.255  12.311  0.1642  0.1639 -0.0044
50052SOL    HW157017  11.373  10.326  12.262  1.3789 -0.3981 -2.0150
50052SOL    HW257018  11.437  10.294  12.396  0.2309  2.0531 -0.8272
50053SOL     OW57019   7.676  11.010  10.791  0.0059  0.1081 -0.2139
50053SOL    HW157020   7.769  11.028  10.777  0.0284 -0.4553 -0.7946
50053SOL    HW257021   7.668  11.000  10.886  0.4650  0.5301 -0.1247
50054SOL     OW57022  10.338   2.824   2.504 -0.1291  0.4125  0.5689
50054SOL    HW157023  10.401   2.895   2.491 -0.7421  1.0403  0.9342
50054SOL    HW257024  10.258   2.868   2.532 -1.7435 -0.0431 -2.8727
50055SOL     OW57025   1.408  10.263   3.429 -0.0209 -0.1486  0.0837
50055SOL    HW157026   1.438  10.340   3.477 -0.7895 -0.7350  1.5757
50055SOL    HW257027   1.315  10.255   3.452 -0.7504  0.1899 -2.4429
50056SOL     OW57028   5.824   6.445   1.882 -0.5029 -0.0915 -0.0015
50056SOL    HW157029   5.756   6.411   1.825 -0.2933  0.6701 -0.7228
50056SOL    HW257030   5.860   6.520   1.835  2.2461 -1.6680 -0.6496
50057SOL     OW57031   3.817   2.923  10.306  1.0856 -0.0454 -0.3646
50057SOL    HW157032   3.844   2.831  10.307  0.6328 -0.2146  2.5851
50057SOL    HW257033   3.889   2.968  10.262  2.1538 -1.5746 -0.2514
50058SOL     OW57034  11.772   4.699   8.394 -0.0202 -0.1339 -0.1439
50058SOL    HW157035  11.837   4.758   8.355 -0.0139  0.0976  0.2131
50058SOL    HW257036  11.728   4.660   8.319 -0.7180  1.0940 -0.3935
50059SOL     OW57037   8.482   1.581   4.256  0.2991 -0.4666 -0.3994
50059SOL    HW157038   8.482   1.579   4.352  1.5903  0.9120 -0.3268
50059SOL    HW257039   8.509   1.493   4.231 -0.1932 -0.8900  0.4867
50060SOL     OW57040   7.649   9.942   3.625 -0.0564 -0.1160  0.0627
50060SOL    HW157041   7.681   9.960   3.714 -1.4880 -0.3999  0.6621
50060SOL    HW257042   7.613  10.025   3.596 -0.4100 -0.2564  0.1022
50061SOL     OW57043   6.502   1.366   6.332  0.3714 -0.2715  0.3450
50061SOL    HW157044   6.519   1.273   6.321  0.3926 -0.3073  0.6573
50061SOL    HW257045   6.589   1.406   6.334  0.3387 -0.0860 -1.0448
50062SOL     OW57046   8.395   2.422   8.020 -0.1848 -0.1532  0.3126
50062SOL    HW157047   8.306   2.409   7.987  0.0715  0.3011 -0.5885
50062SOL    HW257048   8.393   2.507   8.064 -0.4918 -0.6973  1.3819
50063SOL     OW57049   4.539   9.937  11.458 -0.0939 -0.3554 -0.4233
50063SOL    HW157050   4.552  10.016  11.510 -0.1039 -1.2838  1.0391
50063SOL    HW257051   4.621   9.925  11.410  0.5787 -0.4334  0.7284
50064SOL     OW57052   4.652  10.139   7.873 -0.0893  0.1101  0.0901
50064SOL    HW157053   4.641  10.150   7.778 -1.2442  1.0695  0.3074
50064SOL    HW257054   4.706  10.214   7.899 -0.8015  0.5464  0.3499
50065SOL     OW57055   7.846  10.890   0.340  0.1547  0.2517  0.6008
50065SOL    HW157056   7.772  10.914   0.284  0.8717 -1.4073 -1.1630
50065SOL    HW257057   7.924  10.907   0.287  0.9060 -0.4907  1.4186
50066SOL     OW57058   8.956  11.851   1.291 -0.2321  0.2771  0.2955
50066SOL    HW157059   9.052  11.853   1.290 -0.2354  2.1055  0.5497
50066SOL    HW257060   8.933  11.792   1.219  1.0759  1.0180 -0.7752
50067SOL     OW57061   2.493   6.563   8.988 -0.4084  0.1373  0.0858
50067SOL    HW157062   2.475   6.640   8.934  1.2299  0.6928  0.2839
50067SOL    HW257063   2.582   6.577   9.021 -0.2626 -1.6162  0.5204
50068SOL     OW57064   3.288   4.150  10.588 -0.0682  0.1126 -0.4803
50068SOL    HW157065   3.198   4.136  10.561 -0.9375  0.8661  1.7527
50068SOL    HW257066   3.296   4.245  10.597  0.9009  0.0449 -0.4993
50069SOL     OW57067   5.053   6.735   4.603 -0.5701 -0.5804  0.1152
50069SOL    HW157068   5.024   6.677   4.533 -3.6941  2.0970 -1.0841
50069SOL    HW257069   5.126   6.784   4.564 -1.0085 -0.4703 -0.5961
50070SOL     OW57070   7.108   4.608   8.977 -0.0883 -0.2874  0.2428
50070SOL    HW157071   7.123   4.526   8.930 -0.1885  0.2607 -0.7798
50070SOL    HW257072   7.024   4.595   9.021 -0.8515 -0.2165 -1.1373
50071SOL     OW57073   1.006   6.391   8.328  0.7916  0.2682  0.6183
50071SOL    HW157074   1.050   6.355   8.404  1.4103 -0.7455 -0.1852
50071SOL    HW257075   1.049   6.475   8.312  0.6621  0.4790  1.3755
50072SOL     OW57076   3.083  11.117   8.142  0.2623 -0.4089 -0.1740
50072SOL    HW157077   3.147  11.053   8.172  1.8777  1.1789 -0.0986
50072SOL    HW257078   2.998  11.079   8.165  1.2273 -1.7369  1.3625
50073SOL     OW57079   9.342   1.926  10.104 -0.3197  0.0547 -0.4014
50073SOL    HW157080   9.276   1.896  10.166  0.7296  0.2241  0.8266
50073SOL    HW257081   9.328   2.020  10.098 -0.2082  0.0850 -0.1754
50074SOL     OW57082   0.704  10.027  12.146  0.3605  0.0175  0.3467
50074SOL    HW157083   0.784  10.078  12.145  2.6750 -3.2962 -0.7275
50074SOL    HW257084   0.693   9.998  12.055 -2.2632  0.5699  0.4063
50075SOL     OW57085   7.869  11.063   5.031  0.2756  0.1279 -0.4359
50075SOL    HW157086   7.937  11.128   5.041 -0.3061  0.5985  0.6227
50075SOL    HW257087   7.906  10.983   5.067 -0.2520  0.7641  1.6480
50076SOL     OW57088  11.120  10.925   6.705  0.4133  0.2534 -0.1227
50076SOL    HW157089  11.188  10.991   6.719  0.2515  0.3048  0.4778
50076SOL    HW257090  11.060  10.966   6.642  0.7290  0.3604 -0.3575
50077SOL     OW57091   0.307   4.814  11.770  0.0739  0.6269  0.2245
50077SOL    HW157092   0.379   4.877  11.773  0.4546  0.1990  0.2662
50077SOL    HW257093   0.335   4.743  11.828 -0.9114  1.0057  1.2061
50078SOL     OW57094   3.625   6.633   9.031 -0.0248 -0.0535 -0.1131
50078SOL    HW157095   3.556   6.681   8.985 -1.0313 -0.9161  0.4543
50078SOL    HW257096   3.623   6.546   8.993 -0.2871 -0.5297  0.9717
50079SOL     OW57097   7.422   9.020   6.921  0.2338 -0.1104 -0.9337
50079SOL    HW157098   7.512   9.054   6.916  0.1033  0.4124  0.0473
50079SOL    HW257099   7.431   8.934   6.961  0.3043 -0.0717 -0.8653
50080SOL     OW57100  11.993   2.779   9.607  0.4341 -0.3601 -0.0013
50080SOL    HW157101  12.033   2.721   9.671  0.2157 -0.1028  0.3722
50080SOL    HW257102  11.912   2.735   9.581 -0.2684  0.2649  1.0741
50081SOL     OW57103   1.653   8.392   6.188 -0.1908  0.1195 -0.3553
50081SOL    HW157104   1.669   8.441   6.269 -1.4186  0.0909 -0.0896
50081SOL    HW257105   1.618   8.308   6.217  2.4502 -1.2482 -0.7712
50082SOL     OW57106   4.124   0.839  10.128 -0.2275 -0.5280  0.3857
50082SOL    HW157107   4.129   0.796  10.042  0.4825  0.3469 -0.0240
50082SOL    HW257108   4.205   0.889  10.135 -0.7441  0.2396  1.1161
50083SOL     OW57109   7.796   1.455   7.870  0.4276 -0.3144  0.1877
50083SOL    HW157110   7.876   1.501   7.847  0.1630 -1.6667 -4.5700
50083SOL    HW257111   7.726   1.516   7.846  0.1335 -1.8699 -3.7186
50084SOL     OW57112   4.264   1.961   9.349 -0.0514  0.1480  0.4564
50084SOL    HW157113   4.210   1.987   9.274  1.1067  0.8899 -0.1559
50084SOL    HW257114   4.348   2.004   9.333  0.3295  0.0259  2.0107
50085SOL     OW57115   2.528   9.798   9.223  0.0906  0.0862 -0.5626
50085SOL    HW157116   2.529   9.781   9.129  2.0265 -0.8479 -0.4198
50085SOL    HW257117   2.519   9.712   9.263 -1.8011  0.5578  0.1588
50086SOL     OW57118   9.593   5.365   4.694  0.5154 -0.6285  0.1350
50086SOL    HW157119   9.535   5.427   4.649  0.5162 -1.1610 -0.6160
50086SOL    HW257120   9.534   5.312   4.747  0.2271 -1.4874 -0.9957
50087SOL     OW57121  11.737   7.650  10.714  0.3039 -0.0588  0.1999
50087SOL    HW157122  11.806   7.632  10.778  0.4301 -0.2725  0.0069
50087SOL    HW257123  11.739   7.744  10.702 -0.4111  0.1042  1.2839
50088SOL     OW57124   8.957   8.077   4.545  0.2323  0.0269  0.1617
50088SOL    HW157125   8.920   7.997   4.582  1.8133 -2.2085 -2.6376
50088SOL    HW257126   9.014   8.112   4.613  0.8230 -2.2330  0.9090
50089SOL     OW57127  10.750   8.272   2.904 -0.6610  0.2573 -0.1711
50089SOL    HW157128  10.703   8.302   2.826 -1.1060  2.7729  0.9638
50089SOL    HW257129  10.686   8.279   2.974  0.1814 -0.4372  0.6899
50090SOL     OW57130   8.081   1.611   5.458  0.8671 -0.2445  0.1885
50090SOL    HW157131   8.093   1.689   5.513  0.5883  0.8406 -1.2423
50090SOL    HW257132   8.149   1.617   5.392  0.0395 -0.5217 -0.7065
50091SOL     OW57133   0.856   7.041  10.230 -0.1804  0.5876  0.1889
50091SOL    HW157134   0.841   7.123  10.276 -0.7876  0.2487  0.6198
50091SOL    HW257135   0.768   7.006  10.213  0.0652  0.0241  0.0265
50092SOL     OW57136   6.069   5.135   3.107  0.1089  0.1826 -0.0737
50092SOL    HW157137   5.998   5.081   3.075  0.4972 -0.1052 -0.4587
50092SOL    HW257138   6.143   5.116   3.049  0.0957  1.5453 -0.5916
50093SOL     OW57139   2.462   6.083   2.833 -0.0360  0.1152 -0.1340
50093SOL    HW157140   2.371   6.110   2.820  0.1408  1.6494  1.5522
50093SOL    HW257141   2.501   6.153   2.884  1.6868 -1.2752  0.5364
50094SOL     OW57142  12.055   2.159   6.943 -0.1439 -0.0202 -0.4654
50094SOL    HW157143  12.109   2.083   6.922  1.4912  1.1180 -0.5993
50094SOL    HW257144  11.982   2.155   6.882  0.7314 -0.6579 -1.4928
50095SOL     OW57145   1.294   8.366   2.331 -0.1030 -0.1197  0.0745
50095SOL    HW157146   1.296   8.327   2.244  0.7279 -1.0012  0.4742
50095SOL    HW257147   1.364   8.321   2.379 -0.4605  0.4515  1.1537
50096SOL     OW57148   2.405  11.741   2.363  0.2491 -0.1341  0.1694
50096SOL    HW157149   2.468  11.800   2.321 -0.8759 -0.3545 -1.9862
50096SOL    HW257150   2.361  11.698   2.290  0.2887 -2.9039  1.6414
50097SOL     OW57151  10.008   1.144   4.101 -0.4594  0.5746 -0.9072
50097SOL    HW157152  10.071   1.087   4.058  0.0092  0.9939 -0.7884
50097SOL    HW257153  10.050   1.230   4.100 -0.5158  0.6275  0.2212
50098SOL     OW57154   0.007   8.018   7.859  0.1964 -0.0389  0.1805
50098SOL    HW157155   0.005   8.103   7.817 -1.6130  0.3597  0.9682
50098SOL    HW257156  -0.036   7.959   7.797 -0.1649  0.0143  0.3755
50099SOL     OW57157  12.306   1.685   5.077 -0.8316 -0.2507  0.5984
50099SOL    HW157158  12.342   1.657   4.993 -2.5431 -3.2474  0.7273
50099SOL    HW257159  12.383   1.705   5.130  0.2995  1.1503 -1.4446
50100SOL     OW57160   3.181   6.848   9.163  0.2202 -0.1876 -0.0221
50100SOL    HW157161   3.136   6.765   9.149 -1.0557  0.3308  0.7790
50100SOL    HW257162   3.116   6.914   9.140  1.0386  0.5878 -0.1372
50101SOL     OW57163   6.094  10.172   6.382 -0.0482 -0.5126  0.1410
50101SOL    HW157164   6.139  10.243   6.337  0.2687 -1.3952 -0.9990
50101SOL    HW257165   6.002  10.196   6.381  0.1645  0.3793  0.7424
50102SOL     OW57166   2.649   7.694   8.485 -0.1030 -0.0118  0.7573
50102SOL    HW157167   2.712   7.721   8.552  0.5527  1.3114 -0.3495
50102SOL    HW257168   2.693   7.624   8.437  0.6632  1.0967 -0.1869
50103SOL     OW57169   3.240   7.532  11.804  0.2767  0.3736  0.3542
50103SOL    HW157170   3.289   7.462  11.762 -1.3626 -0.3174 -0.4985
50103SOL    HW257171   3.165   7.488  11.845 -0.5985  1.5768  0.1002
50104SOL     OW57172  10.678  12.100   8.797 -0.2771  0.2807 -0.3660
50104SOL    HW157173  10.684  12.055   8.881  1.8868 -2.9161 -2.0274
50104SOL    HW257174  10.755  12.156   8.793 -0.3277  0.3566 -0.2819
50105SOL     OW57175   9.118  12.230   6.970 -0.0220  0.3727 -0.8336
50105SOL    HW157176   9.156  12.317   6.960  0.1086  0.1925 -2.0617
50105SOL    HW257177   9.153  12.179   6.897  0.3427 -0.8881  0.1774
50106SOL     OW57178   6.628  11.562  11.004  0.1668 -0.5873 -0.3477
50106SOL    HW157179   6.604  11.470  10.992 -0.5544 -0.3118 -1.1021
50106SOL    HW257180   6.644  11.594  10.916 -0.4776  0.2440 -0.1677
50107SOL     OW57181  10.748   6.413   5.346 -0.1680 -0.4195  0.0173
50107SOL    HW157182  10.676   6.430   5.407  0.1081 -1.1112  0.5560
50107SOL    HW257183  10.808   6.487   5.359  0.3601 -1.0345  1.3290
50108SOL     OW57184   5.416   5.103   3.507  0.0397 -0.0344 -0.3638
50108SOL    HW157185   5.353   5.121   3.578 -0.6225  2.6825 -1.4933
50108SOL    HW257186   5.362   5.084   3.431  0.7272 -1.6335 -0.4920
50109SOL     OW57187   2.335  11.839  10.343  0.5755  0.2050 -0.5473
50109SOL    HW157188   2.341  11.762  10.286 -0.6073  0.5807 -1.2154
50109SOL    HW257189   2.242  11.862  10.342  0.4904  0.1487  1.6665
50110SOL     OW57190  11.151   8.770   7.675 -0.0330  0.5956  0.1218
50110SOL    HW157191  11.187   8.778   7.587  0.8219  0.8799  0.4843
50110SOL    HW257192  11.162   8.857   7.713  2.0553 -0.1436  1.4042
50111SOL     OW57193   5.846   0.410   6.876  0.0602  0.3755 -0.6924
50111SOL    HW157194   5.896   0.485   6.843  2.9618 -0.8430  0.6452
50111SOL    HW257195   5.894   0.333   6.846 -0.4658 -0.8623  1.4594
50112SOL     OW57196   4.899   8.162   1.425  0.2070  0.1341  0.1954
50112SOL    HW157197   4.978   8.200   1.465  0.4570  0.5175 -0.6510
50112SOL    HW257198   4.895   8.202   1.338 -0.8146 -0.0364  0.1621
50113SOL     OW57199   0.890   7.820   3.225 -0.4868  0.0445 -0.3407
50113SOL    HW157200   0.968   7.770   3.247  1.0304  1.5798 -1.8998
50113SOL    HW257201   0.899   7.840   3.132 -1.6989  2.0088 -0.1054
50114SOL     OW57202   9.862   1.142   2.711 -0.3441 -1.0307  0.6102
50114SOL    HW157203   9.820   1.167   2.793  1.8048  0.1665  1.4381
50114SOL    HW257204   9.945   1.103   2.738 -0.8404 -3.3149 -0.9458
50115SOL     OW57205   9.564   3.304   2.928 -0.1342 -1.0862  0.0483
50115SOL    HW157206   9.622   3.228   2.920 -1.2932 -1.8649 -1.4465
50115SOL    HW257207   9.533   3.320   2.839  0.0242  1.1410  0.3362
50116SOL     OW57208   9.408   1.391   5.153  0.2403  0.2821  0.3378
50116SOL    HW157209   9.501   1.384   5.130  0.1941  0.8117 -0.0230
50116SOL    HW257210   9.363   1.399   5.069 -0.1403 -0.0724  0.5098
50117SOL     OW57211   1.285  10.331   7.546 -0.5010 -0.2118  0.0246
50117SOL    HW157212   1.303  10.344   7.639 -0.9180 -0.0402  0.0843
50117SOL    HW257213   1.370  10.309   7.508 -0.4636 -1.1463  0.5946
50118SOL     OW57214   3.846   4.401   4.703  0.5783  0.6653 -0.2023
50118SOL    HW157215   3.842   4.308   4.681  2.0531  0.4137  0.5196
50118SOL    HW257216   3.890   4.404   4.787  0.7340  2.0434 -0.3158
50119SOL     OW57217  10.335   9.686   1.273 -0.2241  0.4311 -0.5763
50119SOL    HW157218  10.426   9.702   1.246 -0.3319  0.6495 -0.8120
50119SOL    HW257219  10.329   9.725   1.360  0.6193 -1.7886  0.5781
50120SOL     OW57220   9.401   8.182   0.459  0.2823  0.1014  0.0373
50120SOL    HW157221   9.413   8.106   0.402 -0.2498  0.3867 -0.4670
50120SOL    HW257222   9.488   8.220   0.467  0.1686  0.8317 -1.7059
50121SOL     OW57223   5.288   7.153  11.944 -0.0220 -0.1694  0.8327
50121SOL    HW157224   5.250   7.145  11.857  0.0795  0.5840  0.7075
50121SOL    HW257225   5.333   7.070  11.959  0.4792 -0.0799 -0.0946
50122SOL     OW57226   9.244   3.935   7.764  0.4767  0.1231  0.5692
50122SOL    HW157227   9.153   3.963   7.775  0.4774 -0.1045  1.1515
50122SOL    HW257228   9.273   3.982   7.685 -0.5624 -0.8689 -0.4434
50123SOL     OW57229   6.694   7.484   3.276  0.1546 -0.0800 -0.5459
50123SOL    HW157230   6.684   7.573   3.308 -0.2960 -0.9319  1.8880
50123SOL    HW257231   6.662   7.488   3.186 -1.3419  1.9151 -0.0144
50124SOL     OW57232   0.269   9.215   5.234  0.4877  0.0441  0.1687
50124SOL    HW157233   0.343   9.265   5.268 -0.0750  1.5399 -0.7107
50124SOL    HW257234   0.258   9.143   5.296 -0.4001  2.5365  3.1526
50125SOL     OW57235   9.370   6.888  11.887 -0.2254 -0.5890 -0.0549
50125SOL    HW157236   9.342   6.797  11.877  1.5757 -1.2930  0.8381
50125SOL    HW257237   9.333   6.933  11.810  0.6941 -2.5491 -1.7365
50126SOL     OW57238   2.388   1.109   2.628  0.3903 -0.3076 -0.3899
50126SOL    HW157239   2.424   1.021   2.643 -0.0671 -0.4947 -0.3928
50126SOL    HW257240   2.340   1.129   2.709 -0.8321 -0.7092 -0.9951
50127SOL     OW57241  10.503   8.482  12.070 -0.3039 -0.3259 -0.2305
50127SOL    HW157242  10.446   8.559  12.072 -0.8580 -0.6318 -2.2072
50127SOL    HW257243  10.483   8.439  11.986  1.0750 -1.7991  0.1405
50128SOL     OW57244   8.000   2.850   6.322 -0.4759 -0.1949 -0.1888
50128SOL    HW157245   8.085   2.820   6.288 -0.6606 -2.4680  1.1668
50128SOL    HW257246   8.015   2.859   6.416 -0.7675  3.1273 -0.3483
50129SOL     OW57247   8.951  12.384   0.953  0.3876 -0.5199 -0.5340
50129SOL    HW157248   9.006  12.311   0.923  1.7663  0.1863  0.1717
50129SOL    HW257249   8.954  12.379   1.048 -0.0455  0.0675 -0.4847
50130SOL     OW57250   4.545   5.464  10.513 -0.4707  0.5959  0.4411
50130SOL    HW157251   4.566   5.558  10.520 -3.0588  1.4387 -1.4509
50130SOL    HW257252   4.547   5.446  10.419 -1.1469 -0.9692  0.7002
50131SOL     OW57253   7.434   9.854  11.612  0.3049  0.3706  0.0250
50131SOL    HW157254   7.384   9.785  11.567 -1.2333  0.1730  1.8911
50131SOL    HW257255   7.367   9.910  11.651  1.5398  1.0397  1.2684
50132SOL     OW57256   8.498   4.109   1.852 -0.4253  0.1582  0.0926
50132SOL    HW157257   8.480   4.030   1.903 -1.9619  0.5527  0.1968
50132SOL    HW257258   8.464   4.089   1.765 -1.8490  1.0774  0.4051
50133SOL     OW57259   2.559   4.087   4.334  0.3499 -0.0406  0.3178
50133SOL    HW157260   2.504   4.020   4.374 -0.6454  0.1010 -0.7697
50133SOL    HW257261   2.578   4.053   4.246  4.6298 -1.6060  1.5564
50134SOL     OW57262   8.056   5.290   2.133  0.0012 -0.5448  0.1081
50134SOL    HW157263   8.099   5.212   2.166  1.9306  1.0933  1.7359
50134SOL    HW257264   8.118   5.327   2.070 -0.1694  0.4666  0.5177
50135SOL     OW57265  10.007   8.650  10.477 -0.1601 -0.0257  0.2369
50135SOL    HW157266  10.063   8.596  10.421 -2.5822 -0.6867 -1.6921
50135SOL    HW257267  10.031   8.740  10.455 -0.1792 -0.2910 -0.9319
50136SOL     OW57268   7.175   8.992   7.207  0.5431 -0.2521  0.0650
50136SOL    HW157269   7.112   8.977   7.277 -1.8426 -0.9712 -2.0781
50136SOL    HW257270   7.170   9.086   7.190  0.1364 -0.2928 -0.0365
50137SOL     OW57271   3.607  11.828   1.989 -0.3165  0.5117  0.5795
50137SOL    HW157272   3.671  11.775   1.942 -1.4043  0.5722 -1.0286
50137SOL    HW257273   3.655  11.907   2.014  0.0373  0.9750 -1.4210
50138SOL     OW57274  11.140   5.935   6.333 -0.1368 -0.3683 -0.3284
50138SOL    HW157275  11.145   5.949   6.427 -0.7194 -1.9033 -0.0416
50138SOL    HW257276  11.231   5.935   6.303  0.0549  0.0501  0.2372
50139SOL     OW57277  11.056   7.595   8.364 -0.2224  0.1919  0.0438
50139SOL    HW157278  11.064   7.667   8.301 -1.0211  1.0290  0.8516
50139SOL    HW257279  11.083   7.517   8.316  0.7558  1.0441 -0.8332
50140SOL     OW57280   9.290   0.252   5.699 -0.2903 -0.2593  0.0831
50140SOL    HW157281   9.266   0.344   5.711 -0.6402 -0.0802 -1.6738
50140SOL    HW257282   9.244   0.206   5.769 -1.1152  0.7659  0.2365
50141SOL     OW57283   2.630   3.279   1.863  0.1880 -0.0990  0.1404
50141SOL    HW157284   2.598   3.313   1.947 -0.7620  0.6942 -0.5210
50141SOL    HW257285   2.551   3.266   1.811  0.8499  1.4571 -1.3747
50142SOL     OW57286   5.362  10.986  12.032  0.4482 -0.1511 -0.1661
50142SOL    HW157287   5.431  10.992  12.099  0.1845 -2.9537  0.4576
50142SOL    HW257288   5.409  10.976  11.950  0.8291 -1.7378  0.2210
50143SOL     OW57289   4.451   2.475   3.468  0.1011 -0.0929  0.9632
50143SOL    HW157290   4.498   2.417   3.409 -1.6368 -0.8585  0.2526
50143SOL    HW257291   4.518   2.511   3.525  1.8598  0.5636 -1.3479
50144SOL     OW57292   6.441   8.135   7.256 -0.7351 -0.4804  0.1281
50144SOL    HW157293   6.525   8.130   7.210  0.4019 -0.2458  2.1010
50144SOL    HW257294   6.375   8.128   7.186  0.8834 -2.1274 -1.3273
50145SOL     OW57295   9.883  10.254   9.829 -0.1498  0.9466 -0.2830
50145SOL    HW157296   9.804  10.200   9.827  0.0706  0.6287 -1.6800
50145SOL    HW257297   9.907  10.259   9.922 -0.9293 -0.2562  0.0024
50146SOL     OW57298   9.987  10.147   8.238 -0.0497  0.0077 -0.4389
50146SOL    HW157299   9.949  10.151   8.151  1.3671  1.2879 -1.0460
50146SOL    HW257300   9.917  10.113   8.294 -1.4161  0.4625 -1.8192
50147SOL     OW57301  11.792   5.831   2.576  0.4075 -0.4154 -0.3107
50147SOL    HW157302  11.796   5.917   2.534 -0.9563 -0.1107  0.1243
50147SOL    HW257303  11.701   5.803   2.564  0.3279 -0.9034  1.2797
50148SOL     OW57304  10.799   7.806   9.853 -0.0489 -0.5508 -0.2227
50148SOL    HW157305  10.768   7.880   9.906  0.8829  0.4606 -1.0397
50148SOL    HW257306  10.865   7.844   9.795 -0.4001 -1.8089 -1.4942
50149SOL     OW57307  10.361   7.746   0.396 -0.4646 -0.3537  0.1351
50149SOL    HW157308  10.367   7.759   0.491 -0.9918  0.0124  0.1246
50149SOL    HW257309  10.310   7.821   0.365 -0.3263 -0.4915 -0.4340
50150SOL     OW57310   7.401   3.243   9.517  0.2267  0.2885  0.2899
50150SOL    HW157311   7.371   3.265   9.429 -1.3175 -0.9044  0.4634
50150SOL    HW257312   7.376   3.151   9.528  1.4397  0.0810  1.5663
50151SOL     OW57313  12.392   2.101   5.839 -0.0185  0.9373 -0.4882
50151SOL    HW157314  12.428   2.018   5.807 -0.6819  0.9660 -1.3743
50151SOL    HW257315  12.368   2.149   5.759 -0.8987  1.3989  0.0324
50152SOL     OW57316  10.016   1.335   7.302 -0.0432  0.3310 -0.5580
50152SOL    HW157317  10.085   1.329   7.369  0.9377 -1.0012 -1.6448
50152SOL    HW257318  10.062   1.358   7.222 -0.8929 -0.3356 -1.2557
50153SOL     OW57319   9.334   5.964  11.227  0.0005 -0.0663  0.0201
50153SOL    HW157320   9.387   6.041  11.205 -1.7431  1.9701  2.2654
50153SOL    HW257321   9.377   5.926  11.304 -1.8946  1.9666  2.2461
50154SOL     OW57322  10.170  11.538   8.690 -0.5681  0.0624  0.2671
50154SOL    HW157323  10.261  11.516   8.704 -0.0898 -0.2636 -2.6513
50154SOL    HW257324  10.142  11.579   8.772  2.9923  2.8111  0.3598
50155SOL     OW57325   4.475   0.711   2.668 -0.2121  0.5976  0.0538
50155SOL    HW157326   4.479   0.762   2.749  0.9786 -0.2813  0.5766
50155SOL    HW257327   4.564   0.714   2.633 -0.5723  0.4579 -0.9072
50156SOL     OW57328   4.918   6.999   2.808  0.4998  0.2468  0.3179
50156SOL    HW157329   4.898   6.984   2.716  1.2266  1.0990  0.0056
50156SOL    HW257330   4.839   7.040   2.844  0.0074 -0.6006  0.2207
50157SOL     OW57331   0.933   9.599   9.326 -0.2480 -0.6055  0.0399
50157SOL    HW157332   0.968   9.669   9.270  1.2419 -2.0735 -0.9357
50157SOL    HW257333   0.978   9.520   9.297 -0.5480 -1.6920  2.3223
50158SOL     OW57334   4.855   6.028  11.174 -0.0940 -0.1874 -0.1463
50158SOL    HW157335   4.885   6.111  11.135  0.8228 -0.8731 -0.9733
50158SOL    HW257336   4.858   5.966  11.101  4.0709 -2.1257  1.3689
50159SOL     OW57337   0.870  11.418   5.762 -0.4442  0.7753 -0.1894
50159SOL    HW157338   0.786  11.389   5.725  0.7479 -2.0677 -0.9497
50159SOL    HW257339   0.886  11.358   5.834  1.3784  0.6438 -0.6629
50160SOL     OW57340   9.300   4.964   3.852  0.3370 -0.5417  0.0460
50160SOL    HW157341   9.240   4.920   3.793  1.2889 -1.7056 -0.0872
50160SOL    HW257342   9.311   4.902   3.925  1.4385 -0.3966  0.0144
50161SOL     OW57343   7.999  10.654   1.446  0.2778 -0.0294  0.8549
50161SOL    HW157344   8.052  10.677   1.523  1.2212 -1.9426  0.8482
50161SOL    HW257345   8.049  10.687   1.372 -0.0270  0.7551  0.9919
50162SOL     OW57346  10.165   0.109   0.294 -0.8713 -0.6668 -0.1066
50162SOL    HW157347  10.099   0.044   0.268 -1.2135 -0.7083  0.8346
50162SOL    HW257348  10.119   0.169   0.352 -0.0714 -0.7435  0.6419
50163SOL     OW57349   7.278   2.393   0.015 -0.0580 -0.2761  0.1185
50163SOL    HW157350   7.348   2.445  -0.024 -0.6821 -1.2332 -2.5664
50163SOL    HW257351   7.321   2.340   0.082  1.0746  1.6598  0.9942
50164SOL     OW57352  10.112   4.014   3.108  0.2106  0.0255 -0.1117
50164SOL    HW157353  10.075   4.098   3.133 -0.1583 -0.3577  0.6592
50164SOL    HW257354  10.054   3.949   3.148  0.2238 -0.6033 -1.0732
50165SOL     OW57355  10.353   8.661   6.564 -0.0157 -0.0069  0.0709
50165SOL    HW157356  10.262   8.651   6.592  0.1028  1.4376  1.0551
50165SOL    HW257357  10.350   8.718   6.488  0.1277  0.7652  0.6371
50166SOL     OW57358   5.239   5.643   6.504 -0.7557  0.4878 -0.1028
50166SOL    HW157359   5.319   5.591   6.505 -0.0373  1.4537 -2.0222
50166SOL    HW257360   5.202   5.628   6.417 -2.7497 -0.0204  0.7747
50167SOL     OW57361  11.369   8.613   7.776  0.1522  0.5002 -0.4738
50167SOL    HW157362  11.283   8.652   7.759  0.2048  0.5341 -0.6754
50167SOL    HW257363  11.416   8.624   7.693  0.6104  1.1485 -0.1346
50168SOL     OW57364   1.384  11.173  12.420 -0.0595  0.0889  0.0234
50168SOL    HW157365   1.337  11.149  12.501 -0.1380  0.3351  0.0512
50168SOL    HW257366   1.476  11.157  12.440 -0.1918 -1.1507 -0.2922
50169SOL     OW57367   7.264   2.638   8.789  0.3893 -0.0920  0.1131
50169SOL    HW157368   7.184   2.674   8.749  1.0365  1.1188 -0.1489
50169SOL    HW257369   7.248   2.544   8.793 -0.2415 -0.1305 -1.8227
50170SOL     OW57370   9.522   7.411   9.612 -0.9470  0.1926  0.3437
50170SOL    HW157371   9.438   7.438   9.576 -0.6546 -1.9442 -2.3173
50170SOL    HW257372   9.583   7.419   9.539  1.1018  1.1620  2.0476
50171SOL     OW57373   4.976   6.750   8.425 -0.2019  0.0925  0.1171
50171SOL    HW157374   4.898   6.804   8.427  0.6790  1.3946  0.2530
50171SOL    HW257375   5.012   6.763   8.337  0.9816  1.1631  0.7420
50172SOL     OW57376   3.012   6.581   3.072  0.1493 -0.0666 -0.5775
50172SOL    HW157377   3.023   6.556   2.980 -1.4389 -0.3416 -0.7248
50172SOL    HW257378   2.924   6.551   3.094 -0.0197  1.2484  0.6394
50173SOL     OW57379  11.128   7.371   8.221 -0.5887 -0.3888 -0.4614
50173SOL    HW157380  11.071   7.391   8.146  1.3864  0.6071 -1.7958
50173SOL    HW257381  11.126   7.276   8.228 -1.6199 -0.4308 -1.1269
50174SOL     OW57382  11.381  12.291   5.605 -0.7452 -0.3724 -0.0291
50174SOL    HW157383  11.453  12.228   5.593  2.1279  2.5786  0.4805
50174SOL    HW257384  11.379  12.341   5.524 -0.7516  0.9658  0.7665
50175SOL     OW57385   5.226   4.598   2.530 -0.4237 -0.1785 -0.0698
50175SOL    HW157386   5.246   4.529   2.594 -0.2965  0.2377  0.3432
50175SOL    HW257387   5.130   4.603   2.531 -0.4412 -0.4535 -0.2142
50176SOL     OW57388   7.062   2.263   2.608 -0.6776 -0.0456 -0.3530
50176SOL    HW157389   7.120   2.232   2.538 -0.9874 -1.2937 -0.0935
50176SOL    HW257390   6.982   2.212   2.596 -1.5880  1.3651 -0.4531
50177SOL     OW57391   0.959   8.309   9.776  0.3709 -0.3759 -0.3518
50177SOL    HW157392   1.044   8.293   9.736  0.5362 -0.1561 -0.0888
50177SOL    HW257393   0.919   8.377   9.722  1.4186  1.4000  0.9874
50178SOL     OW57394   8.499   8.450   5.352  0.2349  0.3219 -0.4705
50178SOL    HW157395   8.480   8.543   5.358  1.1970  0.4469  1.1709
50178SOL    HW257396   8.518   8.435   5.260 -3.1408  1.0661 -1.4077
50179SOL     OW57397   5.543   7.999   2.056 -0.3870 -0.1809  0.0394
50179SOL    HW157398   5.511   7.967   2.140 -0.6856 -0.4134 -0.1602
50179SOL    HW257399   5.638   8.005   2.068 -0.5208  0.8365  0.7416
50180SOL     OW57400   9.160   2.854   5.661  0.1638  0.0396  0.3015
50180SOL    HW157401   9.094   2.923   5.655  1.3969  1.5525  2.5952
50180SOL    HW257402   9.109   2.774   5.677 -1.1776  1.2025  2.3268
50181SOL     OW57403  10.195   5.516  11.311 -0.1984  0.5719  0.1113
50181SOL    HW157404  10.164   5.605  11.291  0.3035  0.7034 -0.0915
50181SOL    HW257405  10.289   5.526  11.324 -0.3467  0.3171  1.5541
50182SOL     OW57406  11.307   8.680   0.792 -0.0723 -0.5478  0.5301
50182SOL    HW157407  11.384   8.625   0.777 -1.1518 -1.6966 -1.0628
50182SOL    HW257408  11.330   8.732   0.869  1.2782 -2.6970  1.6768
50183SOL     OW57409  11.883   7.847   4.288  0.2920  0.2990  0.2415
50183SOL    HW157410  11.960   7.794   4.268 -1.2360 -2.9880  2.1785
50183SOL    HW257411  11.916   7.917   4.345  2.1571  0.6358 -1.1520
50184SOL     OW57412   0.365   8.576   1.235  0.3524 -0.7401  0.5595
50184SOL    HW157413   0.301   8.639   1.265  0.0875 -0.4653 -0.5198
50184SOL    HW257414   0.319   8.492   1.238  0.3493 -0.7212  0.9761
50185SOL     OW57415  10.916   3.283   3.337 -0.1063  0.0574 -0.0964
50185SOL    HW157416  10.850   3.267   3.405  0.5057 -0.2680  0.4386
50185SOL    HW257417  10.867   3.285   3.255 -0.6753 -0.9817  0.2019
50186SOL     OW57418   8.276  11.421   8.713 -0.5319  0.1568 -0.0315
50186SOL    HW157419   8.234  11.365   8.779  0.6707 -1.6829 -0.7426
50186SOL    HW257420   8.329  11.482   8.763  2.1647 -2.6216  0.8608
50187SOL     OW57421   9.377   8.334   2.536 -0.5562 -0.1085  0.2683
50187SOL    HW157422   9.465   8.368   2.555 -0.4546  0.9527 -1.8194
50187SOL    HW257423   9.393   8.253   2.488 -0.7556 -0.3244  0.5586
50188SOL     OW57424   5.610  12.164   9.846  0.9534  0.4434 -0.3134
50188SOL    HW157425   5.573  12.147   9.932 -0.1402 -1.1088 -1.0356
50188SOL    HW257426   5.691  12.114   9.844  1.7438  1.6566  0.3021
50189SOL     OW57427   6.554  10.294   2.144  0.9202  0.1321 -0.1145
50189SOL    HW157428   6.468  10.335   2.152  1.4883  1.5215 -0.6721
50189SOL    HW257429   6.550  10.218   2.201 -1.2224 -0.8168 -1.3996
50190SOL     OW57430   4.248   4.133   7.812  0.2439  0.2253  0.2131
50190SOL    HW157431   4.191   4.207   7.831 -0.3360 -0.3162  0.6384
50190SOL    HW257432   4.336   4.170   7.806  0.1401  0.7601  1.6794
50191SOL     OW57433  10.426   1.686   8.832 -0.2775 -0.5416  0.4660
50191SOL    HW157434  10.422   1.743   8.909 -0.0323 -0.0727  0.1341
50191SOL    HW257435  10.341   1.699   8.789  0.7849  1.7757 -1.1504
50192SOL     OW57436   6.663   2.844   1.246 -0.4519  0.3399  0.2471
50192SOL    HW157437   6.709   2.818   1.326 -1.7593 -0.4716  0.7728
50192SOL    HW257438   6.571   2.851   1.273 -0.6893  1.7584 -0.7992
50193SOL     OW57439   9.587   1.093   0.428  0.1017 -0.0656  0.0631
50193SOL    HW157440   9.497   1.113   0.402 -0.1870 -1.5051 -0.1590
50193SOL    HW257441   9.594   0.998   0.418  2.1527  0.1809 -1.5817
50194SOL     OW57442   7.907   2.581   3.673 -1.0158 -0.2031  0.1522
50194SOL    HW157443   7.989   2.539   3.645 -0.9106 -1.0793  1.6573
50194SOL    HW257444   7.874   2.624   3.594 -0.8597 -2.7052 -1.3863
50195SOL     OW57445   0.598   2.589  10.836  0.1534 -0.3452 -0.7408
50195SOL    HW157446   0.648   2.536  10.775 -2.7164 -4.9405  0.4139
50195SOL    HW257447   0.526   2.626  10.784  1.2949  1.3208 -1.2324
50196SOL     OW57448   4.092  11.762  10.239 -0.2034 -0.0566 -0.4066
50196SOL    HW157449   4.141  11.696  10.287 -0.9093  1.0873  2.0463
50196SOL    HW257450   4.154  11.835  10.227 -0.4401  0.2299  0.0828
50197SOL     OW57451   9.945   4.257   8.518  0.4433  0.0870  0.2161
50197SOL    HW157452   9.988   4.342   8.509  0.6822 -0.0193  0.3408
50197SOL    HW257453   9.893   4.265   8.597 -0.0867  0.3527 -0.1586
50198SOL     OW57454   7.596   6.972   3.360  0.3166 -0.0813 -0.2788
50198SOL    HW157455   7.587   7.038   3.428  2.5107 -1.0436  1.0785
50198SOL    HW257456   7.516   6.920   3.364 -0.8623  1.6552 -0.4999
50199SOL     OW57457   7.325   3.737   0.912  0.6384  0.2150  0.0091
50199SOL    HW157458   7.236   3.741   0.877 -0.6736  0.1975  3.0162
50199SOL    HW257459   7.341   3.825   0.947  1.9510  0.3003 -0.7370
50200SOL     OW57460   2.449   9.469   1.958  0.6986 -0.5407  0.3438
50200SOL    HW157461   2.447   9.511   2.044  0.8662 -0.8679  0.5102
50200SOL    HW257462   2.538   9.434   1.951  0.4833 -1.1051  0.3279
50201SOL     OW57463   2.895   7.055   3.099 -0.1933 -0.1438  0.0684
50201SOL    HW157464   2.877   7.029   3.189 -1.6198 -0.3612 -0.2593
50201SOL    HW257465   2.981   7.096   3.103 -0.5082  0.4325  1.6468
50202SOL     OW57466   9.306   6.363   8.457 -0.3289 -0.8720 -0.2109
50202SOL    HW157467   9.246   6.377   8.384  0.1766 -0.6845 -0.5977
50202SOL    HW257468   9.391   6.392   8.424 -0.7734  3.7058  1.8848
50203SOL     OW57469   6.077  10.361   3.228  0.7250  0.0073  0.4399
50203SOL    HW157470   6.088  10.452   3.202 -1.8804  0.1757 -0.2969
50203SOL    HW257471   5.983  10.349   3.237  0.5270 -3.5963 -3.4203
50204SOL     OW57472   6.988  11.522  10.934 -0.2162  0.0496  0.2497
50204SOL    HW157473   6.955  11.489  10.850 -1.3372  0.9437  0.3270
50204SOL    HW257474   7.039  11.600  10.910  0.0686 -0.1081  0.3387
50205SOL     OW57475   0.719   5.757   5.402 -0.3027  0.1990  0.2396
50205SOL    HW157476   0.690   5.673   5.368 -0.2046  0.5134 -0.6285
50205SOL    HW257477   0.795   5.737   5.456 -0.5816 -0.3256  0.4417
50206SOL     OW57478  11.850  10.720   4.177  0.0187  0.0431 -0.1962
50206SOL    HW157479  11.772  10.666   4.193 -0.4088  1.0538  1.2550
50206SOL    HW257480  11.815  10.803   4.146  0.4378  0.9266  1.6256
50207SOL     OW57481   2.469   0.117   1.494  0.3617  0.1644  0.0618
50207SOL    HW157482   2.508   0.112   1.582 -2.3056 -1.1705  1.2936
50207SOL    HW257483   2.454   0.026   1.469  1.5683  0.4940 -2.0858
50208SOL     OW57484  11.694   5.189   0.121  0.0680  0.2808  0.4339
50208SOL    HW157485  11.774   5.208   0.072 -0.8733 -1.0453 -1.7401
50208SOL    HW257486  11.703   5.098   0.148  0.1569  0.7259  2.0005
50209SOL     OW57487   0.234   5.585   5.647  0.1323  0.1218  0.4664
50209SOL    HW157488   0.187   5.668   5.633 -1.3353 -0.8291 -0.5417
50209SOL    HW257489   0.260   5.587   5.739 -0.2858  1.4803  0.5802
50210SOL     OW57490   3.349   2.191  12.352  0.1656 -0.8466  0.5503
50210SOL    HW157491   3.310   2.273  12.382  2.5609 -0.4935  3.0954
50210SOL    HW257492   3.352   2.199  12.257  0.9424  2.3499  0.7487
50211SOL     OW57493  11.180  11.474   0.445 -0.1514  0.2741 -0.1356
50211SOL    HW157494  11.240  11.400   0.434  0.3444  0.7635 -0.8701
50211SOL    HW257495  11.134  11.456   0.527 -0.4265 -1.1079 -0.5643
50212SOL     OW57496  10.633   1.773   1.090  0.0037  0.0395  0.0091
50212SOL    HW157497  10.715   1.741   1.053 -1.2292 -3.8106  0.1050
50212SOL    HW257498  10.607   1.846   1.034  2.4212 -0.0071 -1.2941
50213SOL     OW57499   2.638   1.691   3.156 -0.0016  0.0005  0.0965
50213SOL    HW157500   2.566   1.719   3.212  0.2019  1.8215 -0.4946
50213SOL    HW257501   2.599   1.625   3.098 -0.2198 -1.9192  2.2790
50214SOL     OW57502   3.065   4.268  10.411  0.1590  0.3569 -0.6254
50214SOL    HW157503   2.993   4.316  10.453  0.0176  0.7906 -1.3461
50214SOL    HW257504   3.126   4.337  10.383  1.1319 -0.0311  0.4421
50215SOL     OW57505   8.939   1.172  11.120  0.0059 -0.4486 -0.3458
50215SOL    HW157506   8.883   1.098  11.097 -1.9974  1.4746 -2.1124
50215SOL    HW257507   9.003   1.135  11.181 -1.2531 -3.4645 -0.6587
50216SOL     OW57508   9.366  12.435   2.723  0.0641 -0.0689  0.1476
50216SOL    HW157509   9.374  12.427   2.628  0.2621  1.6039  0.0092
50216SOL    HW257510   9.280  12.397   2.742 -0.9318  1.4845 -0.9903
50217SOL     OW57511   7.100   7.753   7.086 -0.0952 -0.0762  0.4426
50217SOL    HW157512   7.060   7.781   7.168 -0.1881 -0.8416  0.6631
50217SOL    HW257513   7.124   7.835   7.042  0.6499  0.3289  1.5689
50218SOL     OW57514   7.365  10.700   6.984  0.2820  0.0863  0.1400
50218SOL    HW157515   7.357  10.781   6.934  1.1647 -0.5395 -1.0589
50218SOL    HW257516   7.378  10.631   6.918  1.4851 -0.7563  1.1981
50219SOL     OW57517   4.603   0.420   1.720 -0.0489 -0.4591  0.0485
50219SOL    HW157518   4.681   0.400   1.669 -0.3716  0.7163 -0.9677
50219SOL    HW257519   4.610   0.514   1.739 -0.2035 -0.7465  1.7573
50220SOL     OW57520  11.422   9.795   4.076  0.1968  0.2723  0.4134
50220SOL    HW157521  11.349   9.757   4.028  0.5045 -0.5345  0.5634
50220SOL    HW257522  11.485   9.723   4.085 -0.1238  0.2009  2.5832
50221SOL     OW57523   2.358   6.201   4.649  0.5057  0.2720 -0.3454
50221SOL    HW157524   2.415   6.200   4.573  3.2999 -1.1315  1.5966
50221SOL    HW257525   2.413   6.235   4.720 -0.8595 -1.6105  1.7660
50222SOL     OW57526  11.824   8.959   2.683 -0.0242  0.6853  0.2220
50222SOL    HW157527  11.747   9.007   2.715  0.3015  0.9162  0.6775
50222SOL    HW257528  11.843   8.998   2.598  1.0446  2.3140  1.1677
50223SOL     OW57529   6.487   9.131  10.633 -0.0492 -0.1858 -0.3849
50223SOL    HW157530   6.560   9.070  10.624 -0.5491 -0.9038  0.2547
50223SOL    HW257531   6.440   9.124  10.550  0.4971  0.1331 -0.7220
50224SOL     OW57532   6.126   9.524   5.192 -0.1672 -0.1076  0.0055
50224SOL    HW157533   6.091   9.444   5.231  1.6078 -1.7272 -1.4845
50224SOL    HW257534   6.218   9.525   5.219  0.2897  0.4422 -1.4905
50225SOL     OW57535  10.638   2.677  11.180  0.3134  0.0919  0.1092
50225SOL    HW157536  10.551   2.716  11.183 -0.0198 -0.4009 -1.7888
50225SOL    HW257537  10.698   2.752  11.188 -0.3085  0.7178 -0.9080
50226SOL     OW57538   1.922   0.419   1.418  0.0809  0.3482 -0.0605
50226SOL    HW157539   1.942   0.464   1.500 -0.3937  0.9038 -0.2426
50226SOL    HW257540   1.955   0.477   1.350 -1.5789  1.0156 -0.3421
50227SOL     OW57541  12.230   7.428   2.777 -0.3506  0.2606 -0.3239
50227SOL    HW157542  12.175   7.367   2.825 -0.9241  0.3143 -0.9071
50227SOL    HW257543  12.303   7.374   2.745 -0.4117  0.0574 -0.1245
50228SOL     OW57544   9.466   5.151   4.852 -0.0940  0.0637 -0.1790
50228SOL    HW157545   9.465   5.136   4.946  0.3980  0.7035 -0.0610
50228SOL    HW257546   9.524   5.083   4.817  0.9883  0.7600  0.1800
50229SOL     OW57547   4.214   1.320   8.989  0.3463  0.1757  0.1468
50229SOL    HW157548   4.210   1.238   9.037  1.5978  0.3052  0.5190
50229SOL    HW257549   4.132   1.364   9.009  0.6594  0.0478  1.8530
50230SOL     OW57550   6.125   7.935   3.363  0.0469 -0.3255  0.4768
50230SOL    HW157551   6.098   7.955   3.273 -0.0607  0.6818  0.7286
50230SOL    HW257552   6.135   8.020   3.405  1.1959 -0.7475  1.1086
50231SOL     OW57553   0.035  11.548   5.056 -0.5644  0.1634  0.0652
50231SOL    HW157554  -0.024  11.592   4.995 -0.0730  0.9178  0.1212
50231SOL    HW257555   0.118  11.596   5.049 -0.6529  0.6290  1.7168
50232SOL     OW57556   8.269   5.082   2.111 -0.1386  0.4061 -0.2525
50232SOL    HW157557   8.224   5.016   2.058  2.4495 -2.7881  1.1795
50232SOL    HW257558   8.231   5.072   2.198  0.5964  0.4860  0.0765
50233SOL     OW57559   5.421   9.480  11.543  0.3302  0.1704 -0.0401
50233SOL    HW157560   5.329   9.503  11.551 -0.3540 -1.4577 -2.2763
50233SOL    HW257561   5.452   9.473  11.634 -1.5256  1.4047  0.7544
50234SOL     OW57562   3.778   7.844  11.698 -0.1835  0.2429  0.7955
50234SOL    HW157563   3.737   7.850  11.784 -0.7268  0.5314  0.5183
50234SOL    HW257564   3.709   7.867  11.636 -0.2244 -1.4441  0.1722
50235SOL     OW57565   9.128   6.456   7.070 -0.2044 -0.1122  0.3521
50235SOL    HW157566   9.158   6.412   7.150  1.4019 -1.5947 -1.0007
50235SOL    HW257567   9.038   6.426   7.058 -1.1402  1.5500  2.5164
50236SOL     OW57568  10.628  10.524   0.793  0.3246  0.1571  0.2119
50236SOL    HW157569  10.705  10.482   0.830  1.0723  0.4016 -1.0452
50236SOL    HW257570  10.628  10.500   0.701 -2.3480 -1.6983  0.5924
50237SOL     OW57571   9.125  10.342  10.420  0.4023  0.4459  0.0993
50237SOL    HW157572   9.040  10.321  10.381  0.3649  0.2037  0.3109
50237SOL    HW257573   9.118  10.311  10.510  1.1856 -0.7742 -0.2403
50238SOL     OW57574  12.383   2.777   9.592  0.0691 -0.1730  0.0817
50238SOL    HW157575  12.372   2.827   9.511  0.3168  0.2099  0.2800
50238SOL    HW257576  12.341   2.693   9.574  0.8258 -0.3944 -0.7310
50239SOL     OW57577  10.635  12.048   3.976  0.4420 -0.2093  0.9670
50239SOL    HW157578  10.613  11.972   3.922  1.3701  1.2550 -1.7044
50239SOL    HW257579  10.552  12.093   3.990  0.3288  0.1214 -0.5710
50240SOL     OW57580   9.962  12.175   6.972  0.4008  0.1008  0.1684
50240SOL    HW157581  10.034  12.234   6.950  0.8288 -0.6749 -0.5855
50240SOL    HW257582   9.911  12.168   6.891 -0.7915  0.9837  0.8197
50241SOL     OW57583   2.059   5.449  10.070 -0.0342 -0.5308  0.2200
50241SOL    HW157584   2.092   5.377  10.018 -1.0578 -0.4326 -0.6151
50241SOL    HW257585   2.132   5.510  10.078 -0.0964 -0.0875 -1.9768
50242SOL     OW57586   0.498   9.649   2.331  0.1719  0.3154  0.6433
50242SOL    HW157587   0.591   9.666   2.340  0.7459 -1.4768 -1.1613
50242SOL    HW257588   0.482   9.571   2.384  0.2970 -0.9149 -1.0430
50243SOL     OW57589   0.941   3.114   8.915 -0.1113 -0.1187 -0.3609
50243SOL    HW157590   0.852   3.111   8.880  0.0702 -0.7762 -0.7725
50243SOL    HW257591   0.929   3.127   9.009 -0.6041  1.5483 -0.6271
50244SOL     OW57592  11.217   6.556   0.812 -0.3470 -0.1116  0.1148
50244SOL    HW157593  11.145   6.494   0.800 -0.2949 -0.1444 -0.0170
50244SOL    HW257594  11.284   6.529   0.750 -0.8356  0.8601 -0.8829
50245SOL     OW57595  11.044  11.950   0.552  0.3677  0.1318  0.0213
50245SOL    HW157596  10.982  11.909   0.612  0.1097  0.1211 -0.2541
50245SOL    HW257597  11.074  12.029   0.598 -0.6691  0.7238 -0.2976
50246SOL     OW57598   2.944   4.091  11.155 -0.0083 -0.0119  0.0489
50246SOL    HW157599   2.853   4.118  11.146 -0.0629  0.4032  1.5371
50246SOL    HW257600   2.942   4.015  11.213  0.7706  2.0766  3.0851
50247SOL     OW57601   3.665   0.838  11.068  0.3985  0.4541  0.5579
50247SOL    HW157602   3.672   0.767  11.131 -0.0191  1.4272  1.7530
50247SOL    HW257603   3.738   0.896  11.088  0.7497  0.3681 -0.4186
50248SOL     OW57604  10.659  10.273   6.807  0.0387  0.0995 -0.1338
50248SOL    HW157605  10.669  10.215   6.732  0.9341  0.9730 -0.7190
50248SOL    HW257606  10.720  10.238   6.872 -0.1509 -0.1904 -0.1093
50249SOL     OW57607  10.420   6.827  11.507 -0.4225 -0.8032 -0.6007
50249SOL    HW157608  10.393   6.918  11.516  2.5540  0.1326 -0.0938
50249SOL    HW257609  10.369   6.780  11.572  1.0690  1.2840  2.2812
50250SOL     OW57610   2.603  11.721   2.898 -0.6604  0.0653 -0.4280
50250SOL    HW157611   2.636  11.751   2.983  0.8805 -1.3488 -0.4765
50250SOL    HW257612   2.639  11.784   2.835  0.1328 -0.1923 -0.2446
50251SOL     OW57613   7.919   2.552  10.306  0.4941  0.5214  0.2595
50251SOL    HW157614   7.892   2.470  10.348 -1.1239  0.7347 -0.2810
50251SOL    HW257615   7.894   2.620  10.368 -0.2008  0.7199 -0.2202
50252SOL     OW57616   5.202   2.639  10.270 -0.3984 -0.1988  0.3764
50252SOL    HW157617   5.237   2.610  10.187  2.0373 -1.8640  1.8649
50252SOL    HW257618   5.244   2.723  10.287 -0.6249 -0.0308  0.1201
50253SOL     OW57619   8.520  10.057   7.610 -0.0671  0.3774  0.0946
50253SOL    HW157620   8.555  10.065   7.521 -0.6968 -0.9755 -0.3026
50253SOL    HW257621   8.587  10.008   7.658 -1.0624 -1.7444 -0.5277
50254SOL     OW57622   5.943   3.602   8.351 -0.3771  0.4905 -0.6783
50254SOL    HW157623   6.025   3.648   8.332  0.4151  0.6747  2.6951
50254SOL    HW257624   5.971   3.512   8.371 -0.8323  0.7651  1.3604
50255SOL     OW57625   6.547   8.183   3.339 -0.0437  0.2438  0.2434
50255SOL    HW157626   6.627   8.228   3.312  0.0948  0.3537  0.8229
50255SOL    HW257627   6.508   8.153   3.258  1.3091 -1.0291  0.0222
50256SOL     OW57628  11.841   2.128   5.184 -0.8322 -0.0702 -0.0602
50256SOL    HW157629  11.816   2.215   5.218 -2.7984 -0.4045 -0.5295
50256SOL    HW257630  11.787   2.117   5.106 -0.8354 -1.8524  0.1680
50257SOL     OW57631   2.453  12.335  10.614  0.3044 -0.2281  0.3200
50257SOL    HW157632   2.490  12.290  10.538 -0.2364  1.1578 -0.8163
50257SOL    HW257633   2.398  12.270  10.657  2.0398 -1.5706  0.5883
50258SOL     OW57634   6.084  12.138   9.449 -0.2699  0.0448 -0.2082
50258SOL    HW157635   6.163  12.188   9.427 -1.5961  1.7471 -1.4028
50258SOL    HW257636   6.015  12.203   9.454 -1.6349 -1.4038  0.8108
50259SOL     OW57637   7.550   0.289  10.653  0.1858 -0.1979 -0.1167
50259SOL    HW157638   7.561   0.382  10.672  2.0051 -0.3770 -0.1609
50259SOL    HW257639   7.527   0.250  10.738 -0.3496  0.2479 -0.0537
50260SOL     OW57640   1.121   1.166  11.745  0.6798  0.1612  0.4183
50260SOL    HW157641   1.071   1.084  11.738 -0.0519  0.6979 -1.3135
50260SOL    HW257642   1.088   1.208  11.824  0.2092 -0.6668  0.6750
50261SOL     OW57643   5.426   1.858   6.258 -0.0732  0.5086 -0.2457
50261SOL    HW157644   5.381   1.841   6.341 -0.4883  2.0612 -0.1270
50261SOL    HW257645   5.366   1.825   6.191 -0.8140  1.3647 -0.0211
50262SOL     OW57646   5.098   2.754   8.556  0.1905 -0.2937 -0.3270
50262SOL    HW157647   5.107   2.817   8.485  0.3728 -0.5598 -0.5418
50262SOL    HW257648   5.157   2.786   8.624 -0.5471  0.3790  0.0140
50263SOL     OW57649   6.447   4.255   2.011  0.0538 -0.1996 -0.0658
50263SOL    HW157650   6.433   4.197   1.936 -0.9853 -1.0869  0.7714
50263SOL    HW257651   6.359   4.278   2.040  0.2572 -2.2322  2.6150
50264SOL     OW57652   7.424   6.603   7.700  0.0382 -0.0261  0.1627
50264SOL    HW157653   7.498   6.586   7.641 -1.1455 -1.2237 -1.0604
50264SOL    HW257654   7.461   6.597   7.788  1.9012  1.9723 -0.3885
50265SOL     OW57655   8.728   2.372   4.748 -0.2133 -0.6716 -0.4204
50265SOL    HW157656   8.638   2.350   4.725 -1.3054  0.8578  2.0499
50265SOL    HW257657   8.727   2.466   4.763  1.2737 -0.9266  1.6894
50266SOL     OW57658   8.979   9.014   9.069  0.5579 -0.8373  0.3927
50266SOL    HW157659   8.910   8.948   9.062  0.5508 -0.8993  0.9885
50266SOL    HW257660   9.060   8.964   9.066  0.6097 -0.7159 -0.8869
50267SOL     OW57661   3.305   2.639  10.756  0.0820 -0.0489  0.0849
50267SOL    HW157662   3.217   2.604  10.766  0.3729 -0.3801  1.8908
50267SOL    HW257663   3.363   2.565  10.773  0.6937  0.7062  1.4327
50268SOL     OW57664   2.259   3.981   3.031  0.0592 -0.0274 -0.1273
50268SOL    HW157665   2.301   3.895   3.031  0.6789  0.2650 -0.5756
50268SOL    HW257666   2.172   3.965   3.068 -0.6368 -1.2322 -2.1284
50269SOL     OW57667  11.962   4.733   7.093  0.4100 -0.1382  0.2206
50269SOL    HW157668  11.920   4.733   7.179  1.9997 -0.1250  1.0231
50269SOL    HW257669  11.952   4.643   7.061  1.7476 -0.7335  1.4120
50270SOL     OW57670  11.965   6.771   3.275  0.1834 -0.1327  0.0378
50270SOL    HW157671  11.913   6.806   3.203 -0.9347 -1.5965  0.0686
50270SOL    HW257672  11.918   6.797   3.354  0.9199  0.7154  0.2062
50271SOL     OW57673   5.413  10.318   0.047 -0.0999 -0.4703 -0.3436
50271SOL    HW157674   5.477  10.378   0.085 -1.4721  0.9775 -0.2151
50271SOL    HW257675   5.402  10.250   0.114 -0.8289  0.8420  0.9213
50272SOL     OW57676   8.986   9.382   7.397 -0.1359 -0.1681  0.1669
50272SOL    HW157677   9.000   9.323   7.471  3.2340  0.0728 -0.1365
50272SOL    HW257678   8.950   9.325   7.328  0.9111 -1.3929  0.5948
50273SOL     OW57679   3.034   5.354   2.114 -0.2147 -0.2243 -0.3346
50273SOL    HW157680   2.939   5.361   2.103  0.1696  1.3837 -3.7768
50273SOL    HW257681   3.050   5.259   2.113 -1.7044 -0.5131 -0.4709
50274SOL     OW57682   6.686   5.284  10.207  0.1920  0.0970 -0.3295
50274SOL    HW157683   6.745   5.338  10.259  0.2766  2.6428 -2.8221
50274SOL    HW257684   6.743   5.238  10.145 -0.2155  0.4921 -1.0073
50275SOL     OW57685   8.566   1.017   0.919 -0.6729 -0.1536 -0.1000
50275SOL    HW157686   8.529   1.015   1.007 -1.4538  3.3727 -0.1949
50275SOL    HW257687   8.657   1.044   0.932 -0.4474 -0.7579 -0.3565
50276SOL     OW57688   4.316   4.449   4.699 -0.5914  0.1176  0.0451
50276SOL    HW157689   4.331   4.514   4.630 -1.0227  0.8064  0.5788
50276SOL    HW257690   4.394   4.394   4.698  0.7440  1.8968  0.9188
50277SOL     OW57691  10.600  12.136   5.062 -0.7068 -0.5692  0.0351
50277SOL    HW157692  10.681  12.176   5.029 -0.7518 -1.0799 -0.7111
50277SOL    HW257693  10.594  12.166   5.153 -0.9842  1.5414 -0.6102
50278SOL     OW57694   6.773   2.342   9.909  0.4326  0.3133 -0.4342
50278SOL    HW157695   6.727   2.258   9.913  0.2112  0.3596 -1.5802
50278SOL    HW257696   6.796   2.361   9.999 -0.4930 -0.4431 -0.0155
50279SOL     OW57697   2.314  12.192   2.333 -0.0730  0.6092 -0.4744
50279SOL    HW157698   2.263  12.133   2.277 -2.3373  0.4651  1.5772
50279SOL    HW257699   2.252  12.261   2.357  0.6863  0.4887  2.0551
50280SOL     OW57700   8.403   6.616   6.674 -1.2556  0.7410  0.0771
50280SOL    HW157701   8.473   6.551   6.670 -2.0765 -0.1091 -2.1265
50280SOL    HW257702   8.448   6.701   6.667 -0.3665  0.2780  0.1139
50281SOL     OW57703   3.266   8.916   9.699 -0.9915  0.0319  0.3686
50281SOL    HW157704   3.310   8.950   9.621 -0.2462  2.2131  1.6462
50281SOL    HW257705   3.174   8.909   9.673 -0.8718  1.3690 -0.5212
50282SOL     OW57706  10.300   0.684   8.021  0.3750 -0.4466 -0.4387
50282SOL    HW157707  10.293   0.592   7.997  0.3414 -0.0719 -1.9659
50282SOL    HW257708  10.209   0.715   8.025  0.3761 -0.5139  0.2766
50283SOL     OW57709   1.671   8.190   4.252 -0.0089 -0.0912 -0.1640
50283SOL    HW157710   1.613   8.224   4.184  0.0236 -1.4337 -0.8845
50283SOL    HW257711   1.759   8.218   4.225  0.1910 -1.9302 -1.5430
50284SOL     OW57712   4.717   5.824   2.721  0.2116  0.5611  0.2525
50284SOL    HW157713   4.770   5.747   2.702  0.3805  0.7801 -0.1754
50284SOL    HW257714   4.700   5.863   2.636  0.1051  0.9853  0.4647
50285SOL     OW57715   8.519  10.417   9.134 -0.1867 -0.0562 -0.1103
50285SOL    HW157716   8.598  10.468   9.116 -0.1696 -0.1853 -0.4052
50285SOL    HW257717   8.507  10.363   9.056 -1.7445  1.4420 -0.9741
50286SOL     OW57718   3.342   1.324  10.694 -0.3926 -0.3657  0.3616
50286SOL    HW157719   3.407   1.277  10.747 -2.0761 -3.1223  0.1552
50286SOL    HW257720   3.265   1.329  10.750 -1.2279 -0.6172 -0.7330
50287SOL     OW57721   2.050   4.188   9.799 -0.0272  0.5921 -0.3225
50287SOL    HW157722   2.098   4.146   9.870  0.4606  1.7868  0.0765
50287SOL    HW257723   2.000   4.258   9.842  0.8635  1.8254 -1.2306
50288SOL     OW57724   4.945   7.730   4.403  0.0847  0.2628 -0.0864
50288SOL    HW157725   5.024   7.699   4.357 -1.1657 -5.4716  0.8020
50288SOL    HW257726   4.974   7.741   4.494  0.3291  0.3635 -0.1760
50289SOL     OW57727   7.023   8.113   5.982  0.1093  0.2690 -0.0878
50289SOL    HW157728   7.083   8.156   5.921  0.8613 -0.0503  0.4038
50289SOL    HW257729   7.016   8.023   5.949  0.1163  0.2345  0.0038
50290SOL     OW57730   3.963   6.392   9.260 -0.5048  0.1269 -0.7923
50290SOL    HW157731   3.899   6.354   9.200 -0.5487  1.3895 -1.5860
50290SOL    HW257732   4.010   6.456   9.207  1.4699 -0.8037 -0.2407
50291SOL     OW57733   4.329   0.684   9.079 -0.0497 -0.3003 -0.2113
50291SOL    HW157734   4.393   0.613   9.075  0.3415  0.0081  0.4067
50291SOL    HW257735   4.305   0.701   8.988  0.6175 -0.5360 -0.4315
50292SOL     OW57736   8.041   3.034  10.149 -0.6154  0.0556 -0.1612
50292SOL    HW157737   8.113   2.980  10.115 -1.0153  0.0883 -1.0822
50292SOL    HW257738   7.974   2.971  10.175 -0.5991  0.0621 -0.1029
50293SOL     OW57739   7.031   7.843  12.213 -0.2335  0.2892  0.0482
50293SOL    HW157740   7.028   7.923  12.160 -0.6966  0.5765  0.4979
50293SOL    HW257741   6.950   7.797  12.190 -1.4529  1.3678  1.9486
50294SOL     OW57742   3.348   8.278   2.964 -1.0132  0.1041  0.6289
50294SOL    HW157743   3.274   8.288   2.904 -0.7644 -0.7935  0.1561
50294SOL    HW257744   3.420   8.324   2.921 -1.0571  0.1858  0.6437
50295SOL     OW57745   2.283  10.200  11.223  0.3178  0.0679  0.2062
50295SOL    HW157746   2.302  10.107  11.236  1.0756  0.2570  0.5372
50295SOL    HW257747   2.222  10.202  11.150  0.6622 -0.6611 -0.1200
50296SOL     OW57748   7.699  10.927   5.896 -0.6055  0.1735 -0.5552
50296SOL    HW157749   7.710  10.832   5.905  0.5179  0.3045 -0.4103
50296SOL    HW257750   7.651  10.938   5.814 -2.4910 -0.5962  0.3811
50297SOL     OW57751   4.118   4.671   3.839  0.1338 -0.3771 -0.1685
50297SOL    HW157752   4.104   4.577   3.850 -0.4035 -0.3199 -0.3104
50297SOL    HW257753   4.178   4.695   3.909  1.1577 -1.0259 -0.7933
50298SOL     OW57754   3.376   8.245  11.359  0.6281 -0.0591  0.6458
50298SOL    HW157755   3.339   8.173  11.308 -1.2824 -1.1427  3.3200
50298SOL    HW257756   3.461   8.263  11.318 -0.0778 -1.8834 -1.8337
50299SOL     OW57757   3.147  10.480   7.622 -0.8303  0.1057  0.2446
50299SOL    HW157758   3.117  10.523   7.542 -1.2789  0.5282  0.6304
50299SOL    HW257759   3.066  10.454   7.667 -0.7003  2.0080  1.7133
50300SOL     OW57760   1.181   0.055  11.158  0.4190 -0.6100  0.1627
50300SOL    HW157761   1.236   0.025  11.230  1.2597 -0.3627 -0.3716
50300SOL    HW257762   1.208   0.002  11.083  0.6094  0.1896 -0.3384
50301SOL     OW57763   6.036   5.680   1.622 -0.7681 -0.4046 -0.3472
50301SOL    HW157764   6.089   5.746   1.578 -1.9421  1.3292  0.7161
50301SOL    HW257765   6.095   5.605   1.632  0.3564  0.1380 -2.3153
50302SOL     OW57766   7.448   8.945  11.925 -0.0202 -0.0076 -0.0193
50302SOL    HW157767   7.508   8.876  11.895  1.4434  0.5356  1.4976
50302SOL    HW257768   7.368   8.931  11.875  0.5618 -2.2274 -0.4141
50303SOL     OW57769   6.818   9.972   0.222  0.8723  0.5048 -0.4372
50303SOL    HW157770   6.889   9.916   0.253  0.9440  0.0124 -1.4347
50303SOL    HW257771   6.738   9.924   0.245  0.8342  1.1873  0.9278
50304SOL     OW57772   8.760   9.805   6.524 -0.6577  0.5252 -0.0904
50304SOL    HW157773   8.705   9.861   6.469  1.2724  0.7596 -1.9145
50304SOL    HW257774   8.764   9.721   6.478 -0.0393  0.3072  0.3432
50305SOL     OW57775   4.775   8.458   0.439 -0.4789 -0.3024 -0.0553
50305SOL    HW157776   4.852   8.402   0.440  0.8876  1.4355 -1.3570
50305SOL    HW257777   4.736   8.447   0.525  1.6601 -0.6615  0.9253
50306SOL     OW57778   4.591  10.791   9.127  0.6260  0.0265 -0.2451
50306SOL    HW157779   4.675  10.832   9.150  0.0976  0.6197  0.7233
50306SOL    HW257780   4.590  10.708   9.175  1.6439 -1.1324 -2.1121
50307SOL     OW57781   6.478   1.281   5.521 -0.0960  0.0171  0.5587
50307SOL    HW157782   6.428   1.360   5.542  0.6369  0.9241 -0.9531
50307SOL    HW257783   6.520   1.256   5.604 -2.8979 -0.7252  1.8638
50308SOL     OW57784  10.760  10.267   4.150  0.9754  0.2123 -0.1979
50308SOL    HW157785  10.796  10.200   4.208  0.8034  0.5873  0.3512
50308SOL    HW257786  10.708  10.218   4.086  1.2515 -0.2127 -0.1046
50309SOL     OW57787  12.189   2.111  11.993 -0.4892 -0.0250 -0.1313
50309SOL    HW157788  12.247   2.173  11.951 -2.4079  1.3271 -0.9332
50309SOL    HW257789  12.173   2.148  12.080 -2.0408  0.9866 -0.7891
50310SOL     OW57790   7.065   8.100   5.237  0.0362 -0.8225  0.1879
50310SOL    HW157791   7.088   8.185   5.198 -0.7255 -0.2521  0.9363
50310SOL    HW257792   7.101   8.036   5.176 -0.6353  0.0313 -1.1857
50311SOL     OW57793   4.704   3.156   0.515 -0.0073  0.4621  0.7638
50311SOL    HW157794   4.784   3.105   0.527  0.1529  0.4267 -0.3443
50311SOL    HW257795   4.728   3.221   0.449 -0.8771  0.4911  0.4767
50312SOL     OW57796   9.704   7.976   6.044  0.0935 -0.1809 -0.1919
50312SOL    HW157797   9.660   8.005   5.964 -1.2894 -0.3110  0.4898
50312SOL    HW257798   9.761   8.049   6.068  0.4632 -0.1125 -1.2518
50313SOL     OW57799   0.388   6.643   8.812  0.2824  0.2858 -0.3945
50313SOL    HW157800   0.447   6.719   8.813 -0.4262  0.8430  0.6811
50313SOL    HW257801   0.377   6.620   8.904  0.3386 -1.0239 -0.7004
50314SOL     OW57802   5.478   5.661   0.811 -0.1735  0.4890 -0.6537
50314SOL    HW157803   5.534   5.628   0.881  1.9000  1.1342 -1.9183
50314SOL    HW257804   5.519   5.743   0.784  0.0938 -0.5256 -3.6902
50315SOL     OW57805   3.682   1.241  11.810 -0.4372 -0.2607 -0.4866
50315SOL    HW157806   3.678   1.221  11.903  0.8130  0.6025 -0.2166
50315SOL    HW257807   3.722   1.164  11.770  3.1111  0.9587  0.3463
50316SOL     OW57808   9.920  10.039   6.120  0.2265  0.0982  0.2176
50316SOL    HW157809   9.992  10.103   6.116  0.7381 -0.4833 -0.0915
50316SOL    HW257810   9.916  10.015   6.213  1.7347 -1.2953 -0.0386
50317SOL     OW57811  11.800   3.793   6.427  0.2261 -0.0795 -0.1099
50317SOL    HW157812  11.845   3.712   6.407  0.4281 -0.5200  1.9665
50317SOL    HW257813  11.869   3.859   6.430  0.2040 -0.0219 -0.6891
50318SOL     OW57814   4.270  11.606   0.802 -0.5594  0.1194  0.1073
50318SOL    HW157815   4.277  11.698   0.777 -0.2935 -0.2615 -1.3118
50318SOL    HW257816   4.275  11.607   0.898 -0.6239  1.5743  0.1225
50319SOL     OW57817   5.508  10.491  12.321 -0.3028 -0.2055  0.1931
50319SOL    HW157818   5.466  10.418  12.366 -1.0220 -0.4104 -0.7838
50319SOL    HW257819   5.501  10.564  12.384 -1.0966 -0.5370  0.5139
50320SOL     OW57820  10.511   5.167  12.393 -0.1692  0.0389 -0.0506
50320SOL    HW157821  10.479   5.078  12.380 -1.2141  0.5961 -1.6587
50320SOL    HW257822  10.449   5.222  12.345  0.7898  1.5927  0.4014
50321SOL     OW57823  10.395   1.999   3.526 -0.2887 -0.2382  0.0144
50321SOL    HW157824  10.380   1.963   3.438 -0.3467 -0.0944 -0.0366
50321SOL    HW257825  10.485   1.977   3.546 -0.1431  0.0988 -0.2604
50322SOL     OW57826   3.029  10.659  10.982  0.1164 -0.5130 -0.2615
50322SOL    HW157827   3.072  10.685  11.063  0.1023  0.5861 -0.5895
50322SOL    HW257828   2.991  10.740  10.948 -0.5369 -1.1004 -0.9790
50323SOL     OW57829  10.942  11.263   8.206  0.1145  0.3622  0.3728
50323SOL    HW157830  10.873  11.227   8.262 -1.3659  1.3108 -0.7580
50323SOL    HW257831  10.907  11.346   8.175  1.9322  1.0537  0.0211
50324SOL     OW57832  12.076  11.673  10.748 -0.9218  0.1238 -0.1960
50324SOL    HW157833  12.078  11.720  10.664  0.2298  0.1137 -0.1987
50324SOL    HW257834  12.036  11.588  10.727 -0.3078 -0.0248 -0.8328
50325SOL     OW57835   6.443   7.251   2.399  0.2978 -0.1159 -0.2414
50325SOL    HW157836   6.458   7.345   2.406 -0.1612 -0.0915  0.4367
50325SOL    HW257837   6.510   7.221   2.337  0.0820  0.7458 -0.9136
50326SOL     OW57838   3.252  11.035   4.001  0.6738 -0.5375  0.4333
50326SOL    HW157839   3.261  11.001   4.090  0.0527 -3.5097 -0.5305
50326SOL    HW257840   3.342  11.052   3.973  0.9783 -0.8574  1.1853
50327SOL     OW57841   9.472   6.548   9.676  0.0667  0.0210 -0.4066
50327SOL    HW157842   9.419   6.628   9.673 -0.0487  0.0017  0.7024
50327SOL    HW257843   9.542   6.568   9.738 -0.2314 -0.8894  0.2453
50328SOL     OW57844   7.956   9.767   1.927 -0.1368 -0.1695  0.1831
50328SOL    HW157845   7.896   9.741   1.857 -0.0426  0.3968 -0.1133
50328SOL    HW257846   8.027   9.813   1.882  2.2008 -3.5085  0.1372
50329SOL     OW57847   8.961   8.684  12.295  0.0104 -0.2636 -0.3314
50329SOL    HW157848   8.954   8.777  12.275 -0.3825  0.3564  2.3307
50329SOL    HW257849   9.000   8.680  12.382 -0.6572 -2.5549 -0.0546
50330SOL     OW57850   8.052   6.096   0.568 -0.4981 -0.0281 -0.6737
50330SOL    HW157851   8.006   6.014   0.585 -2.1970  0.7068 -1.4946
50330SOL    HW257852   8.074   6.130   0.654 -2.4622  0.0976 -0.1769
50331SOL     OW57853  10.019  10.601  10.775 -0.6001  0.0455 -0.2252
50331SOL    HW157854  10.072  10.585  10.697  0.9102 -1.5683  1.0183
50331SOL    HW257855  10.027  10.695  10.791 -0.9285  0.3975 -1.9643
50332SOL     OW57856   8.439   8.973  10.254  0.4616  0.3472 -0.3259
50332SOL    HW157857   8.476   9.004  10.171 -0.7335  1.4164 -0.4950
50332SOL    HW257858   8.345   8.990  10.245  0.4044  1.2022  1.5396
50333SOL     OW57859  11.758  12.157   4.971 -0.6088 -0.2374  0.3095
50333SOL    HW157860  11.667  12.181   4.955 -0.5994 -0.7508 -0.6083
50333SOL    HW257861  11.753  12.074   5.018 -0.6404 -1.2001 -1.3055
50334SOL     OW57862   3.659   5.156  11.131  0.0862 -1.0881 -0.8498
50334SOL    HW157863   3.753   5.140  11.139  0.1628 -0.1048  0.3845
50334SOL    HW257864   3.650   5.251  11.133 -0.9212 -1.1562 -1.3520
50335SOL     OW57865   1.355   6.511  10.704  0.2140 -0.4041 -0.2118
50335SOL    HW157866   1.306   6.592  10.689  2.3654  0.8132 -1.2477
50335SOL    HW257867   1.369   6.509  10.799  1.0083  1.0531 -0.2618
50336SOL     OW57868   6.469   6.276   1.788 -0.1178  0.1081  0.2812
50336SOL    HW157869   6.527   6.266   1.863 -0.3643 -2.9241  0.1715
50336SOL    HW257870   6.472   6.369   1.767  2.7028  0.4475  1.8382
50337SOL     OW57871   0.567  11.272  10.108  0.4268  0.4826 -0.1083
50337SOL    HW157872   0.641  11.325  10.076  0.7441  0.1059 -0.0043
50337SOL    HW257873   0.601  11.183  10.109 -0.2399  0.2125 -0.6912
50338SOL     OW57874   9.711   5.688   3.523  0.2685 -0.8509 -0.1723
50338SOL    HW157875   9.806   5.685   3.539  0.6208  0.0842 -1.8832
50338SOL    HW257876   9.672   5.680   3.610  1.9391 -0.0350  0.6957
50339SOL     OW57877  11.737   6.810   9.747  0.4281  0.2322 -0.2736
50339SOL    HW157878  11.812   6.869   9.758  1.2000 -0.7881  0.1984
50339SOL    HW257879  11.661   6.867   9.739  1.1664  1.2798  0.0306
50340SOL     OW57880   8.735   1.401  10.627 -0.4561  0.2611  0.3977
50340SOL    HW157881   8.763   1.325  10.678  0.4615  0.5204  0.2939
50340SOL    HW257882   8.749   1.476  10.686  3.0310  0.8783 -0.9961
50341SOL     OW57883   1.311   9.323   3.047 -0.1983  0.3677  0.1206
50341SOL    HW157884   1.302   9.281   2.962  0.4535  1.1663 -0.3569
50341SOL    HW257885   1.311   9.417   3.028 -0.4351  0.5644  1.0409
50342SOL     OW57886  10.856   8.338   5.680 -0.0289 -0.6389 -0.4825
50342SOL    HW157887  10.842   8.274   5.611 -0.7478 -0.9883 -0.0332
50342SOL    HW257888  10.796   8.311   5.750 -0.0098  0.2589 -0.1033
50343SOL     OW57889   0.304   7.072  11.015  0.0129  0.0863  0.5234
50343SOL    HW157890   0.371   7.028  10.962 -0.0718  0.0914  0.4115
50343SOL    HW257891   0.347   7.153  11.045  0.2431 -0.1799  0.9208
50344SOL     OW57892   5.085   3.812   6.712  0.2174  0.2278 -0.0477
50344SOL    HW157893   5.035   3.790   6.791  1.3936 -1.6506  0.2419
50344SOL    HW257894   5.095   3.729   6.666  2.1589  0.7062 -0.6070
50345SOL     OW57895   7.988   5.670   6.441  0.0139  0.0234  0.0234
50345SOL    HW157896   7.922   5.616   6.486 -0.2169 -0.7795 -1.2061
50345SOL    HW257897   8.065   5.665   6.497 -0.0870 -1.3956  0.0901
50346SOL     OW57898   1.519   9.175   9.281 -0.5369 -0.4502  0.2757
50346SOL    HW157899   1.423   9.170   9.274 -0.5609 -2.0832  1.4994
50346SOL    HW257900   1.535   9.248   9.341 -1.0116 -0.2063  0.1090
50347SOL     OW57901   8.859   3.006   5.183  0.6308 -0.6648 -0.0239
50347SOL    HW157902   8.867   3.044   5.096  0.7097 -0.3700  0.1122
50347SOL    HW257903   8.777   2.957   5.180 -1.4379  2.4647  0.9062
50348SOL     OW57904  11.849   9.627   4.700 -0.0420  0.0393 -0.2321
50348SOL    HW157905  11.801   9.664   4.626  0.7555  1.2439 -0.1706
50348SOL    HW257906  11.916   9.692   4.720  1.4719 -1.4973 -0.1501
50349SOL     OW57907  12.351   8.257   0.948 -0.1555 -0.1923  0.3484
50349SOL    HW157908  12.345   8.333   1.005  1.8534  2.3490 -2.4904
50349SOL    HW257909  12.404   8.194   0.997  0.2514  1.2665  1.8696
50350SOL     OW57910  12.299   8.450   6.313  0.0829  0.3824  0.1164
50350SOL    HW157911  12.206   8.463   6.297  0.4507  0.5396 -2.1837
50350SOL    HW257912  12.343   8.514   6.257  1.5866  0.3748  1.2150
50351SOL     OW57913  12.173   3.296   1.584 -0.1762  0.1075  0.1567
50351SOL    HW157914  12.198   3.204   1.575 -0.9129 -0.1994  1.0685
50351SOL    HW257915  12.186   3.315   1.676  0.6452  1.1424 -0.1579
50352SOL     OW57916   6.091   4.166  10.312  0.2365 -0.1964 -0.5123
50352SOL    HW157917   6.144   4.105  10.260  1.4549  0.9138 -0.6321
50352SOL    HW257918   6.134   4.251  10.300 -1.4699  0.7214 -0.4362
50353SOL     OW57919   3.593  10.502   0.897 -0.0372 -0.1147  0.7581
50353SOL    HW157920   3.552  10.551   0.826 -2.0769 -1.0522  1.2357
50353SOL    HW257921   3.523  10.488   0.960  1.2535 -1.0140  2.0518
50354SOL     OW57922  10.413   9.144  11.334  0.4698  0.3519  0.3219
50354SOL    HW157923  10.460   9.061  11.333 -1.3628 -0.8659  2.9475
50354SOL    HW257924  10.469   9.203  11.385  0.5447 -0.1371  0.8079
50355SOL     OW57925   1.103   7.499   9.810 -0.4526  0.0213  0.1236
50355SOL    HW157926   1.107   7.485   9.715 -0.5070  0.2142  0.0913
50355SOL    HW257927   1.049   7.577   9.819  0.4039  0.6127  0.2597
50356SOL     OW57928   5.474   0.631   7.045 -0.4081 -0.0776  0.1040
50356SOL    HW157929   5.466   0.571   7.119 -0.7794 -0.7990 -0.4993
50356SOL    HW257930   5.561   0.670   7.055 -0.6186  0.1458  1.1387
50357SOL     OW57931   8.539   6.215   2.312  0.5683 -0.4466 -0.5256
50357SOL    HW157932   8.453   6.248   2.286  1.0884  1.0506 -0.4553
50357SOL    HW257933   8.520   6.133   2.357 -1.0096  0.6320  0.9345
50358SOL     OW57934   2.351   5.726   5.627  0.6555  0.2733 -0.6470
50358SOL    HW157935   2.315   5.638   5.639 -0.8000  0.9147 -0.1834
50358SOL    HW257936   2.422   5.731   5.691 -0.7167  0.2078  0.9272
50359SOL     OW57937   0.544  11.586  10.364 -0.0220  0.2518 -1.0269
50359SOL    HW157938   0.557  11.625  10.278 -1.6136  0.4687 -1.1978
50359SOL    HW257939   0.478  11.518  10.350  1.4557 -1.3709 -0.4002
50360SOL     OW57940  11.550  11.442   5.448  0.1829 -0.0320  0.6585
50360SOL    HW157941  11.602  11.517   5.419 -0.0903 -0.0295  0.1506
50360SOL    HW257942  11.526  11.397   5.366 -2.9432  1.4976  0.5948
50361SOL     OW57943   4.123   5.643   2.521  0.1535  0.1285 -0.3104
50361SOL    HW157944   4.181   5.710   2.557 -0.6894  0.3419  0.7132
50361SOL    HW257945   4.070   5.689   2.455  1.1492 -0.0766 -1.2725
50362SOL     OW57946   2.099   9.909   2.789 -0.1202  0.9038 -0.6029
50362SOL    HW157947   2.172   9.892   2.731 -0.7125  0.1923 -1.1585
50362SOL    HW257948   2.105  10.003   2.808  1.8737  0.5750  0.6873
50363SOL     OW57949   6.430   0.303   8.349  0.2394 -0.0645  0.0738
50363SOL    HW157950   6.368   0.240   8.386  0.3068 -0.2356 -0.0999
50363SOL    HW257951   6.492   0.249   8.300 -0.9542  0.2466 -1.9400
50364SOL     OW57952  10.372   9.743   9.041  0.5303 -0.0089  0.2924
50364SOL    HW157953  10.372   9.696   8.958  1.3771  0.9103 -0.2605
50364SOL    HW257954  10.283   9.733   9.074  0.4157 -1.1051 -0.3002
50365SOL     OW57955   5.454   9.121   4.754  0.6608 -0.6251 -0.1886
50365SOL    HW157956   5.485   9.101   4.843  1.6033  0.8959 -0.1352
50365SOL    HW257957   5.533   9.118   4.700 -0.0113 -2.2200 -1.1422
50366SOL     OW57958   8.704   4.100   7.979  0.4893 -0.0608 -0.4654
50366SOL    HW157959   8.747   4.021   8.013 -2.9975 -0.9081  2.5076
50366SOL    HW257960   8.683   4.151   8.056 -2.3683  1.0351 -1.8461
50367SOL     OW57961   8.664   8.368   8.720  0.5107 -1.0990 -0.5060
50367SOL    HW157962   8.572   8.394   8.711  0.2170 -2.5171 -2.1514
50367SOL    HW257963   8.714   8.444   8.691 -0.0598 -0.0025  1.1907
50368SOL     OW57964   8.333   3.124   6.129  0.1324 -0.1624 -0.2437
50368SOL    HW157965   8.306   3.054   6.070  2.0066 -1.8890  0.8422
50368SOL    HW257966   8.327   3.086   6.217  2.3211  0.5681  0.3032
50369SOL     OW57967   9.856   5.181  11.925 -1.5204  0.4475  0.2446
50369SOL    HW157968   9.865   5.145  12.014  0.2215  0.5838  0.1536
50369SOL    HW257969   9.906   5.263  11.927 -1.3664  0.3939 -0.9042
50370SOL     OW57970  12.405   0.035  10.046 -0.3722 -0.2371  0.1449
50370SOL    HW157971  12.423  -0.059  10.047 -1.2298 -0.4059  0.3166
50370SOL    HW257972  12.403   0.060  10.139 -2.4457 -0.5185  0.2073
50371SOL     OW57973   9.350   8.245   0.020 -0.0880 -0.4192  0.0766
50371SOL    HW157974   9.281   8.182   0.041 -0.5121  0.0272  0.0393
50371SOL    HW257975   9.423   8.221   0.078 -0.5904 -0.3474  0.7571
50372SOL     OW57976   2.886   9.513   4.843 -0.2987  0.0601 -0.5842
50372SOL    HW157977   2.864   9.455   4.916  0.1445  0.4444 -0.1418
50372SOL    HW257978   2.806   9.516   4.791 -0.8286  0.2841  0.2239
50373SOL     OW57979   9.315   9.373   6.411 -0.1597 -0.0266 -0.3295
50373SOL    HW157980   9.277   9.450   6.369 -1.9171 -1.7548 -2.1129
50373SOL    HW257981   9.337   9.402   6.499 -3.4247  1.7986  0.0269
50374SOL     OW57982   2.308   4.991   9.288  0.5196 -0.3467  0.0494
50374SOL    HW157983   2.262   4.920   9.243 -0.2452 -0.0859  0.4060
50374SOL    HW257984   2.359   4.947   9.356  2.2563 -0.8185 -1.4851
50375SOL     OW57985  11.900   9.851   7.101 -0.1367  0.1476  0.4458
50375SOL    HW157986  11.892   9.942   7.074 -1.3491  0.0680  0.4656
50375SOL    HW257987  11.993   9.837   7.115  0.0407  1.4165  0.5686
50376SOL     OW57988   4.769  11.457   2.766 -0.1906 -0.2145  0.5423
50376SOL    HW157989   4.796  11.496   2.683  0.5317 -0.3169  0.7169
50376SOL    HW257990   4.688  11.503   2.789 -0.9148 -0.8249 -0.6656
50377SOL     OW57991   8.873   2.120   4.385  0.0569  0.2544 -0.6024
50377SOL    HW157992   8.796   2.063   4.389  0.4982 -0.3815 -0.8611
50377SOL    HW257993   8.942   2.064   4.349  1.7466 -0.4493  3.2671
50378SOL     OW57994   8.910  10.609   5.360 -0.1808  0.6537 -0.5811
50378SOL    HW157995   9.001  10.607   5.389 -1.1017  1.9240  2.9660
50378SOL    HW257996   8.902  10.692   5.313  0.1760  1.2811  0.4415
50379SOL     OW57997  12.427  12.348  10.777  0.2403 -0.3586  0.0716
50379SOL    HW157998  12.446  12.402  10.854 -0.6444 -0.8359  0.6411
50379SOL    HW257999  12.483  12.271  10.789  1.5093  0.3983 -0.7457
50380SOL     OW58000   1.629   9.662   1.993  0.4964 -0.2830  0.1406
50380SOL    HW158001   1.691   9.734   1.984  0.5564 -0.5774 -2.6046
50380SOL    HW258002   1.677   9.585   1.966  0.6259 -1.5967  3.6404
50381SOL     OW58003   0.387  11.635   3.473  0.2768 -0.5758  0.0201
50381SOL    HW158004   0.299  11.601   3.488 -0.1621  0.1997 -0.6627
50381SOL    HW258005   0.390  11.718   3.520  0.6987 -0.6684  0.1659
50382SOL     OW58006   0.582   2.025  12.012 -0.0386  0.1960 -0.1720
50382SOL    HW158007   0.671   1.992  12.007  0.2864  1.0816 -0.4979
50382SOL    HW258008   0.554   2.032  11.921 -0.8784 -1.1832 -0.0454
50383SOL     OW58009  12.328   5.959   3.774 -0.0578 -0.0277  0.1977
50383SOL    HW158010  12.281   5.907   3.708  0.6924  0.4367 -0.7172
50383SOL    HW258011  12.326   5.904   3.853  0.2576 -1.2282 -0.6006
50384SOL     OW58012  10.946   2.174   7.874 -0.2266  0.1567 -0.1195
50384SOL    HW158013  10.953   2.262   7.837 -0.6416  0.3888  0.3406
50384SOL    HW258014  11.030   2.160   7.917  1.1992 -1.0401 -3.0713
50385SOL     OW58015  11.865  10.944   6.775 -0.0502  0.2571 -0.2229
50385SOL    HW158016  11.825  10.857   6.776 -1.2562  0.7877  0.3953
50385SOL    HW258017  11.959  10.928   6.780 -0.1970 -1.0273 -1.1398
50386SOL     OW58018   1.016   6.756   3.289  0.3047 -0.0945  0.0423
50386SOL    HW158019   1.092   6.716   3.246  0.4420 -1.0169  1.0667
50386SOL    HW258020   1.019   6.720   3.378 -0.9376  0.4033  0.2985
50387SOL     OW58021   4.613   0.654   7.111 -0.0391  0.1015  0.5951
50387SOL    HW158022   4.619   0.750   7.107  0.0704  0.1340  1.2564
50387SOL    HW258023   4.521   0.636   7.131 -0.1017  0.0631  0.2639
50388SOL     OW58024   7.044   7.496   7.085  0.3581  0.2312  0.6233
50388SOL    HW158025   6.951   7.499   7.106  0.3411 -1.0631  0.7952
50388SOL    HW258026   7.073   7.587   7.091 -1.1733  0.8509 -0.7404
50389SOL     OW58027   7.392  12.448   5.237 -0.2446 -0.3593  0.2667
50389SOL    HW158028   7.306  12.491   5.236  0.3929  0.9666 -0.5240
50389SOL    HW258029   7.377  12.365   5.282 -1.4578  0.8679  2.3011
50390SOL     OW58030   4.848   5.896   6.765 -0.3925 -0.0078  0.1960
50390SOL    HW158031   4.884   5.846   6.839  0.5065 -0.7727 -0.7361
50390SOL    HW258032   4.924   5.917   6.711 -0.8096  2.0194  0.3208
50391SOL     OW58033   0.438  11.841   2.363  0.3188  0.3451  0.8019
50391SOL    HW158034   0.460  11.751   2.336 -1.5974 -0.1389  0.6824
50391SOL    HW258035   0.482  11.852   2.447  2.2828  0.0689 -0.1379
50392SOL     OW58036   1.401   8.186   6.271 -0.4917  0.2946  0.3515
50392SOL    HW158037   1.362   8.272   6.288  0.1683  0.5152  0.7543
50392SOL    HW258038   1.387   8.172   6.177  0.9789  1.6521 -0.1102
50393SOL     OW58039   4.406   8.607  11.995 -0.2759 -0.3751 -0.3579
50393SOL    HW158040   4.450   8.603  12.080  0.2880  2.3050 -0.4249
50393SOL    HW258041   4.329   8.551  12.006  0.7307 -1.5466  1.2816
50394SOL     OW58042   8.987   6.644   6.748 -0.4460 -0.7259 -0.1096
50394SOL    HW158043   8.955   6.555   6.759 -1.8071 -0.7359 -3.1924
50394SOL    HW258044   9.035   6.643   6.665  1.2993  0.9891  0.7859
50395SOL     OW58045   8.420   7.725   2.404  0.2893 -0.3179 -0.9027
50395SOL    HW158046   8.485   7.705   2.337  0.1650 -1.4954 -0.7066
50395SOL    HW258047   8.396   7.639   2.439  0.8777  0.2825  1.1375
50396SOL     OW58048  10.275   9.256   6.733 -0.1400  0.0283 -0.1988
50396SOL    HW158049  10.360   9.216   6.718  0.5324  1.4100 -0.1669
50396SOL    HW258050  10.226   9.241   6.652  0.8958  1.0872 -1.0455
50397SOL     OW58051   6.666  10.747   3.203  0.2122 -0.1069 -0.4230
50397SOL    HW158052   6.655  10.832   3.247 -1.5014  1.0035 -2.7767
50397SOL    HW258053   6.623  10.684   3.260  0.1456  0.8613  0.6274
50398SOL     OW58054   6.349   0.178   8.004  0.1647  0.3932  0.1558
50398SOL    HW158055   6.302   0.259   7.984  0.7018  1.0958  1.6236
50398SOL    HW258056   6.408   0.202   8.076  0.0568 -1.3994  0.8722
50399SOL     OW58057   0.649   6.894  12.208 -0.0337 -0.0727 -0.1121
50399SOL    HW158058   0.560   6.863  12.191  0.7958 -1.7499 -1.8661
50399SOL    HW258059   0.648   6.986  12.182 -0.9758 -0.3861 -1.2576
50400SOL     OW58060   3.144   1.632  10.810  0.3270  0.1612 -0.1037
50400SOL    HW158061   3.208   1.692  10.771  1.4237  0.1709  1.6212
50400SOL    HW258062   3.118   1.574  10.738  2.3732  0.0727 -0.8275
50401SOL     OW58063   8.163  10.492   3.824 -0.1497 -0.0962 -0.2251
50401SOL    HW158064   8.079  10.486   3.778  0.2858 -0.8852 -0.9490
50401SOL    HW258065   8.187  10.585   3.816  0.2089 -0.3054 -2.1823
50402SOL     OW58066   3.004   0.671   3.744 -0.0611 -0.1680  0.7085
50402SOL    HW158067   2.968   0.586   3.720  0.2761 -0.2167  0.3669
50402SOL    HW258068   3.044   0.704   3.663  0.4899 -0.0245  1.0345
50403SOL     OW58069   2.307   7.798   6.892 -0.0077  0.4352 -0.1856
50403SOL    HW158070   2.218   7.794   6.928  0.5199  0.2601  1.1443
50403SOL    HW258071   2.351   7.722   6.930  0.4856  0.0514 -1.4920
50404SOL     OW58072   9.459   5.025   2.967  0.3076 -0.6542 -0.8636
50404SOL    HW158073   9.405   5.004   2.891  2.2196 -1.1045 -2.1776
50404SOL    HW258074   9.545   4.989   2.946  1.2730  0.4504  0.9211
50405SOL     OW58075   1.362   0.615   1.016 -0.0686  0.0631  0.1765
50405SOL    HW158076   1.371   0.680   0.945 -1.3276  1.0835  0.9055
50405SOL    HW258077   1.437   0.632   1.073  0.5118 -0.2283 -0.4893
50406SOL     OW58078   4.509   7.035   0.538 -0.8292  0.3763 -0.1148
50406SOL    HW158079   4.595   7.076   0.551  0.6675 -2.5804  0.2463
50406SOL    HW258080   4.498   7.031   0.443 -0.7359  1.0405 -0.1595
50407SOL     OW58081   3.289  11.464  12.219  0.4443 -0.0901  0.0837
50407SOL    HW158082   3.315  11.424  12.302  3.0296  1.6678  0.2521
50407SOL    HW258083   3.268  11.391  12.162 -1.1228 -1.3627  2.1445
50408SOL     OW58084  10.466   1.305   0.238 -0.2947 -0.0793 -0.0076
50408SOL    HW158085  10.441   1.395   0.260  0.2149  0.2238 -0.6362
50408SOL    HW258086  10.448   1.297   0.144  0.5352 -0.3247 -0.1559
50409SOL     OW58087   4.142   8.980  10.771 -0.3335 -0.6435  0.6072
50409SOL    HW158088   4.180   9.068  10.774  0.2015 -0.8848  1.0337
50409SOL    HW258089   4.048   8.995  10.769 -0.2525 -0.0664  1.0148
50410SOL     OW58090  11.271   3.918  10.376 -0.4967 -0.4933 -0.7858
50410SOL    HW158091  11.229   3.834  10.358 -1.2621 -0.2741 -0.0826
50410SOL    HW258092  11.276   3.922  10.472 -0.1428  0.1112 -0.8243
50411SOL     OW58093   3.579   0.489  12.115 -0.0545 -0.0825 -0.3771
50411SOL    HW158094   3.511   0.555  12.112 -0.7440 -0.7714 -0.2298
50411SOL    HW258095   3.576   0.447  12.029  0.9280  0.5964 -0.7655
50412SOL     OW58096   2.642   2.220   2.027  0.1202 -0.2414  0.5666
50412SOL    HW158097   2.572   2.155   2.036  1.6522 -1.9176  0.9116
50412SOL    HW258098   2.613   2.294   2.081 -2.1658 -0.1125 -0.6796
50413SOL     OW58099   5.220   4.641  12.028  0.0555  0.4380 -1.0279
50413SOL    HW158100   5.200   4.619  11.937  0.0471 -1.0045 -0.7033
50413SOL    HW258101   5.141   4.616  12.077  0.7557 -0.6014 -0.3929
50414SOL     OW58102   0.991   8.140   1.910 -0.3488  0.1724  0.3337
50414SOL    HW158103   0.921   8.176   1.855 -1.1863 -0.8965  0.6579
50414SOL    HW258104   1.049   8.095   1.848 -0.4139  0.3322  0.1545
50415SOL     OW58105   6.038   3.079  12.066 -0.3883  0.0267  0.0486
50415SOL    HW158106   5.996   3.098  11.982 -0.7802  0.6632  0.3829
50415SOL    HW258107   6.117   3.031  12.043 -1.0604 -0.7898 -0.6240
50416SOL     OW58108   9.687   7.010   5.883 -0.2135  0.2205  0.7039
50416SOL    HW158109   9.705   6.926   5.926 -1.7428 -0.3898  0.2399
50416SOL    HW258110   9.769   7.059   5.889  0.0227 -0.3742  3.0680
50417SOL     OW58111   2.570   5.484   0.542  0.3350  0.6877 -0.4075
50417SOL    HW158112   2.639   5.464   0.606  0.5050 -0.4250 -0.9003
50417SOL    HW258113   2.534   5.568   0.570  0.4792  0.2807  1.0806
50418SOL     OW58114   1.725   9.460   6.767  0.6738 -0.6923  0.1720
50418SOL    HW158115   1.691   9.385   6.817  0.0569 -1.0847 -0.8122
50418SOL    HW258116   1.819   9.461   6.788  0.1165  0.5701  3.1337
50419SOL     OW58117   0.593  11.262   0.563  0.2095 -0.6105  0.0072
50419SOL    HW158118   0.652  11.295   0.496  0.2123  0.3363  0.4678
50419SOL    HW258119   0.641  11.272   0.645 -0.1862 -0.8034  0.2691
50420SOL     OW58120   9.807   8.467   5.365 -0.0590 -0.2294  0.0097
50420SOL    HW158121   9.861   8.518   5.305 -0.6858 -1.3726 -1.5684
50420SOL    HW258122   9.839   8.377   5.357 -1.5137 -0.7503 -0.1892
50421SOL     OW58123   8.039  12.180   1.432  0.2569 -0.3675  0.5793
50421SOL    HW158124   8.091  12.149   1.358  1.6263 -0.5516  1.5752
50421SOL    HW258125   7.958  12.129   1.428  1.0394 -1.6143  0.2059
50422SOL     OW58126   0.113   7.171   2.051  0.3752  0.3092  0.5258
50422SOL    HW158127   0.081   7.112   2.119  3.2055 -2.8618 -0.5762
50422SOL    HW258128   0.191   7.212   2.089 -0.1470  1.4437  0.4106
50423SOL     OW58129   6.135  11.705   5.281  0.3149  0.1531 -0.1082
50423SOL    HW158130   6.213  11.758   5.300 -1.3272  2.1556  1.4771
50423SOL    HW258131   6.118  11.659   5.363 -1.8656  2.1522  0.6720
50424SOL     OW58132   3.779   8.228   6.278 -0.1929  0.2667 -0.2206
50424SOL    HW158133   3.838   8.300   6.303  0.7034 -0.5092 -0.0644
50424SOL    HW258134   3.704   8.239   6.336 -0.9664  2.2068 -1.4751
50425SOL     OW58135   7.807  10.498   1.379  0.6005  0.1463  0.2323
50425SOL    HW158136   7.868  10.568   1.402  0.3777 -0.0493  1.5039
50425SOL    HW258137   7.741  10.541   1.324  1.2541  0.6072 -0.2048
50426SOL     OW58138   2.536   2.986   0.323  0.0124  0.2186 -0.1120
50426SOL    HW158139   2.568   2.983   0.413 -0.4819 -2.2473  0.0415
50426SOL    HW258140   2.595   2.929   0.274  0.0593  1.2521 -1.3007
50427SOL     OW58141   5.969   2.744   9.361 -0.3239 -0.3321  0.0591
50427SOL    HW158142   6.051   2.794   9.358  0.3071 -1.2646  1.0579
50427SOL    HW258143   5.900   2.810   9.350  0.5284  0.5448 -0.1731
50428SOL     OW58144   3.675   4.915   6.567 -0.0479  0.1873 -0.0745
50428SOL    HW158145   3.735   4.927   6.641  0.5387 -2.3720 -0.0594
50428SOL    HW258146   3.596   4.877   6.606  0.9685 -3.0197 -0.8878
50429SOL     OW58147   5.579  10.348   0.321 -0.2919 -0.6881 -0.0145
50429SOL    HW158148   5.547  10.382   0.405 -1.3662 -1.3843 -0.1184
50429SOL    HW258149   5.667  10.385   0.311 -0.9113  0.9725  0.4915
50430SOL     OW58150   6.240  11.001   3.741  0.0344  0.1776  0.6473
50430SOL    HW158151   6.232  11.096   3.735  1.0130  0.2287 -0.0709
50430SOL    HW258152   6.285  10.986   3.824 -0.5044  0.3114  0.9683
50431SOL     OW58153   5.629   2.239   0.923  0.0152 -0.3813  0.0237
50431SOL    HW158154   5.576   2.183   0.979 -0.5775  0.6582  0.5473
50431SOL    HW258155   5.681   2.291   0.984 -0.0598  0.2091 -0.4056
50432SOL     OW58156  10.755   4.833   5.940 -0.0257  0.5350  0.1228
50432SOL    HW158157  10.850   4.844   5.944  0.0127  0.7582 -1.1926
50432SOL    HW258158  10.725   4.903   5.883 -1.0069  0.5352  0.6204
50433SOL     OW58159   6.426   0.866   2.270  0.3700  0.2442 -0.5263
50433SOL    HW158160   6.498   0.807   2.293  0.7213  0.7921 -0.2206
50433SOL    HW258161   6.388   0.891   2.354 -0.6272 -0.5845 -0.7052
50434SOL     OW58162   6.329  10.041   9.194 -0.0865  0.1169 -0.1920
50434SOL    HW158163   6.391  10.091   9.141 -1.0831  0.5694 -0.9710
50434SOL    HW258164   6.363  10.047   9.283 -0.0033  1.9570 -0.2975
50435SOL     OW58165   0.387   5.010   3.539  0.1491 -0.2505  0.3129
50435SOL    HW158166   0.391   4.915   3.528  0.1572 -0.6878  3.2314
50435SOL    HW258167   0.475   5.040   3.519 -0.2660 -0.5303 -2.3566
50436SOL     OW58168   4.130   4.570   0.913  0.3074  0.0086 -0.2616
50436SOL    HW158169   4.047   4.552   0.958  1.2640 -1.2022  1.1213
50436SOL    HW258170   4.191   4.591   0.984  1.3982 -0.0298 -1.1696
50437SOL     OW58171  12.210   7.845   6.478 -0.2977 -0.1987 -0.2703
50437SOL    HW158172  12.305   7.833   6.478 -0.3766 -0.9819  0.6134
50437SOL    HW258173  12.183   7.818   6.566 -1.3772 -0.3671 -0.6422
50438SOL     OW58174   1.531   6.882   0.496  0.4485  1.2481  0.1750
50438SOL    HW158175   1.585   6.831   0.557  0.0141 -0.1482 -0.5518
50438SOL    HW258176   1.537   6.972   0.528  1.1564  0.7380  1.5857
50439SOL     OW58177   8.648   2.854   5.102  0.1192  0.4825 -0.0476
50439SOL    HW158178   8.662   2.834   5.009 -0.2029 -4.5901  0.7205
50439SOL    HW258179   8.577   2.796   5.129  0.5921  1.3274  3.5665
50440SOL     OW58180   9.227   8.501   0.595 -0.0847 -0.5396 -0.0207
50440SOL    HW158181   9.289   8.433   0.567  0.0384 -0.8536  0.9783
50440SOL    HW258182   9.271   8.584   0.574 -0.8647 -0.7184 -2.6408
50441SOL     OW58183  10.983  11.117  10.166  0.7499  0.4155  0.0405
50441SOL    HW158184  11.016  11.031  10.139  3.4238  0.8961  1.5114
50441SOL    HW258185  10.894  11.099  10.196  1.5117 -2.0459  1.0906
50442SOL     OW58186   5.007  10.071  10.548  0.0628  0.3330 -0.2757
50442SOL    HW158187   4.940  10.135  10.526 -0.1766  0.0077 -0.4947
50442SOL    HW258188   5.089  10.122  10.550 -0.4984  1.3236  2.7688
50443SOL     OW58189   9.338   7.066  11.377 -0.2372 -0.7960 -0.1796
50443SOL    HW158190   9.318   7.138  11.317 -0.7431  0.3355  1.2505
50443SOL    HW258191   9.414   7.023  11.339  1.3274  1.7125 -0.1744
50444SOL     OW58192   5.820   5.664   7.954 -0.1718 -0.0168  0.2780
50444SOL    HW158193   5.792   5.754   7.935 -1.1943  0.2887  2.9031
50444SOL    HW258194   5.750   5.609   7.920 -1.6709  0.4773  2.3927
50445SOL     OW58195   8.184   9.539   3.972 -0.1139  0.2021 -0.1382
50445SOL    HW158196   8.205   9.599   4.044  0.3192  1.1500 -1.0250
50445SOL    HW258197   8.252   9.473   3.975  0.2793  0.6070 -0.0864
50446SOL     OW58198   4.700  10.006   2.855 -0.6343 -0.2390 -0.3437
50446SOL    HW158199   4.705   9.973   2.944  1.5134 -0.5811 -0.5505
50446SOL    HW258200   4.687   9.928   2.801  1.2748 -0.4575 -0.5584
50447SOL     OW58201   3.323   4.210   6.283  0.0216  0.3129 -0.3365
50447SOL    HW158202   3.250   4.160   6.246 -2.1475  2.6494  0.5567
50447SOL    HW258203   3.357   4.154   6.353 -1.1685 -0.6793 -0.5081
50448SOL     OW58204   2.547   9.914  12.233  0.2269  0.2255 -0.0291
50448SOL    HW158205   2.587   9.990  12.276 -2.1129  2.1035 -0.9727
50448SOL    HW258206   2.578   9.919  12.143 -0.0510  0.1522 -0.1281
50449SOL     OW58207   2.711   5.487   4.156 -0.5548  0.2502 -0.6245
50449SOL    HW158208   2.715   5.415   4.219 -0.8677  0.9242  0.1817
50449SOL    HW258209   2.682   5.446   4.075 -3.1758 -0.1583  0.4231
50450SOL     OW58210   5.890   3.150   2.001  0.2766  0.1553 -0.9484
50450SOL    HW158211   5.862   3.228   1.954 -0.8131  0.0107 -0.5631
50450SOL    HW258212   5.880   3.172   2.094 -1.2704 -0.8555 -0.8455
50451SOL     OW58213   5.082   9.685  10.005  0.2605  0.0385 -0.3835
50451SOL    HW158214   5.055   9.622   9.938  0.4658  0.0886 -0.5137
50451SOL    HW258215   5.177   9.682  10.004  0.2912 -1.7008  1.5414
50452SOL     OW58216   0.451   4.985   7.770 -0.0229 -0.1817 -0.3123
50452SOL    HW158217   0.537   5.025   7.787 -0.1529 -0.7706  2.0736
50452SOL    HW258218   0.470   4.891   7.765 -0.5293 -0.3194  0.3067
50453SOL     OW58219   1.064   1.808   1.564  0.3655 -0.1000  0.0732
50453SOL    HW158220   1.061   1.717   1.533 -1.3399  0.1660 -0.6211
50453SOL    HW258221   1.134   1.848   1.511 -0.9240 -0.2597 -1.8573
50454SOL     OW58222   0.491   8.895   3.644 -0.1425 -0.0074 -0.8250
50454SOL    HW158223   0.546   8.928   3.716 -0.8413 -0.6266  0.0147
50454SOL    HW258224   0.401   8.912   3.672 -0.4322 -0.3942 -1.4909
50455SOL     OW58225   7.895   1.540   6.628  0.2477  0.0420  0.1494
50455SOL    HW158226   7.870   1.477   6.695 -1.2940  1.8530  1.3994
50455SOL    HW258227   7.983   1.514   6.602 -0.2649 -2.4920  0.6774
50456SOL     OW58228   3.371   6.797   4.263  0.7830  0.0566  0.4640
50456SOL    HW158229   3.437   6.864   4.242  1.2642 -0.2612  0.9474
50456SOL    HW258230   3.366   6.798   4.358 -0.9552  1.0713  0.4079
50457SOL     OW58231   8.113  10.546   7.302 -0.3116 -0.1482  0.2501
50457SOL    HW158232   8.165  10.540   7.221 -1.0674  0.3539 -0.2812
50457SOL    HW258233   8.165  10.498   7.367  2.1876  2.5056  0.4394
50458SOL     OW58234   5.946   7.834  10.940  0.2537 -0.5577 -0.1707
50458SOL    HW158235   5.871   7.779  10.917 -1.1472  1.3949 -0.5721
50458SOL    HW258236   5.933   7.915  10.890  1.0097  1.0051  1.9767
50459SOL     OW58237   4.692   6.331   1.724 -0.0122 -0.3248  0.2708
50459SOL    HW158238   4.651   6.337   1.810 -0.6898 -0.5365 -0.0295
50459SOL    HW258239   4.679   6.240   1.697  1.8299 -0.7526  0.7261
50460SOL     OW58240   0.765   0.470  11.145 -0.3335 -0.0013 -0.1473
50460SOL    HW158241   0.815   0.435  11.220  0.5009  0.2840 -0.5569
50460SOL    HW258242   0.679   0.428  11.152 -0.1193 -0.3165  0.7211
50461SOL     OW58243   2.882   9.043   0.648  0.1159  0.6435  0.4723
50461SOL    HW158244   2.888   8.961   0.696  1.3326  0.8973  0.7888
50461SOL    HW258245   2.821   9.024   0.576 -1.5920  0.2055  1.9571
50462SOL     OW58246  12.117   7.639  12.425  0.2674  0.4648 -0.3639
50462SOL    HW158247  12.107   7.672  12.335 -0.2935 -0.7687 -0.7770
50462SOL    HW258248  12.178   7.700  12.466 -0.0581  1.4943 -1.3514
50463SOL     OW58249   5.422   7.092   5.784 -0.1716  0.0152 -0.2080
50463SOL    HW158250   5.469   7.078   5.867 -2.7225 -0.4612  1.2700
50463SOL    HW258251   5.375   7.174   5.797 -0.3676  0.0902 -1.3242
50464SOL     OW58252   7.170   1.357  10.468  0.2054  0.4418 -0.6545
50464SOL    HW158253   7.103   1.320  10.410  0.3851 -0.0441 -0.5580
50464SOL    HW258254   7.148   1.450  10.473 -1.0578  0.1227  0.1745
50465SOL     OW58255   6.488  11.016   8.011  0.5288 -0.5339 -0.1682
50465SOL    HW158256   6.499  10.926   7.981 -0.3054 -1.6993  2.6976
50465SOL    HW258257   6.395  11.022   8.035  1.0770  0.2493  2.0018
50466SOL     OW58258   4.249   8.205   1.013 -0.1258  0.1007  0.2275
50466SOL    HW158259   4.174   8.225   0.957  0.8043  0.5140 -0.9114
50466SOL    HW258260   4.211   8.166   1.092 -1.6502  1.7241  0.3563
50467SOL     OW58261   0.363   1.888   3.793  0.3082  0.2286  0.6979
50467SOL    HW158262   0.424   1.860   3.726  1.3771  1.3633  1.1512
50467SOL    HW258263   0.276   1.870   3.757  0.9002 -1.4946  0.0868
50468SOL     OW58264   4.983   4.354   6.586  0.6866  0.3915 -0.0134
50468SOL    HW158265   5.013   4.442   6.606 -1.6030  1.4936 -1.0091
50468SOL    HW258266   5.000   4.344   6.492 -0.0616  0.2291 -0.1368
50469SOL     OW58267   9.977  10.521   2.937 -0.1986  0.1159  0.0478
50469SOL    HW158268   9.938  10.442   2.974  0.6324  0.0740  0.8890
50469SOL    HW258269   9.965  10.588   3.005 -0.2932  0.5311 -0.3751
50470SOL     OW58270   3.465  10.903  11.652  0.0955 -0.4339  0.1619
50470SOL    HW158271   3.399  10.837  11.629  0.8125 -0.6938 -1.2493
50470SOL    HW258272   3.487  10.944  11.568  0.3551  0.9588  0.8886
50471SOL     OW58273   5.734   1.181   7.305  0.0475  0.2749 -0.2669
50471SOL    HW158274   5.663   1.242   7.287  0.4443  0.6322 -0.6656
50471SOL    HW258275   5.698   1.095   7.284 -1.1285  0.1274  2.0524
50472SOL     OW58276   0.663   4.759   2.101  0.2452  0.1112 -0.4962
50472SOL    HW158277   0.630   4.815   2.171  0.4960  0.2459 -0.4880
50472SOL    HW258278   0.707   4.687   2.147  2.9447  1.6618 -0.5028
50473SOL     OW58279   7.842   8.301  11.648  0.1289  0.2242 -0.4506
50473SOL    HW158280   7.929   8.311  11.610  0.4323  0.1866  0.2277
50473SOL    HW258281   7.798   8.239  11.590  1.2481 -1.3538  0.3261
50474SOL     OW58282   4.411   0.101   9.015  0.4680  0.1639 -0.1683
50474SOL    HW158283   4.379   0.183   8.977 -0.0403  0.5557  1.0696
50474SOL    HW258284   4.332   0.049   9.029  0.6525  0.0057  0.3002
50475SOL     OW58285   4.315   9.561   5.746  0.5683 -0.5112  0.0356
50475SOL    HW158286   4.244   9.625   5.741  0.7690 -0.2739  0.1777
50475SOL    HW258287   4.272   9.477   5.734  0.3004 -0.3504 -0.1506
50476SOL     OW58288   2.152   5.201   6.104  0.0679 -0.2269  0.3630
50476SOL    HW158289   2.219   5.245   6.156 -0.1703  0.7873 -0.1670
50476SOL    HW258290   2.131   5.122   6.154 -0.3922  0.8893  1.9930
50477SOL     OW58291  12.357   8.985   1.232  0.7223 -0.3095  0.2056
50477SOL    HW158292  12.402   8.924   1.174  0.2496 -0.8591  0.4170
50477SOL    HW258293  12.388   9.072   1.204 -0.7157 -0.4114 -1.9597
50478SOL     OW58294   6.530   0.181   0.532  0.4227 -0.3525 -0.5865
50478SOL    HW158295   6.435   0.168   0.529  0.3811 -0.3025  0.2066
50478SOL    HW258296   6.542   0.275   0.519  0.3313 -0.2844 -0.1811
50479SOL     OW58297   7.196   9.109  12.241 -0.4914 -0.1340  0.2296
50479SOL    HW158298   7.218   9.190  12.286  2.4732 -1.4898  1.4415
50479SOL    HW258299   7.234   9.118  12.154 -0.5386 -0.0736  0.2146
50480SOL     OW58300   4.812   5.396   2.894  0.4318 -0.3216  0.2157
50480SOL    HW158301   4.847   5.324   2.947  2.5322 -0.1299 -0.8028
50480SOL    HW258302   4.851   5.475   2.932 -1.3283  0.2450  0.9102
50481SOL     OW58303   2.037   3.071   5.919  0.1719 -0.1928  0.0764
50481SOL    HW158304   2.028   3.013   5.994 -0.3985 -0.8832 -0.4998
50481SOL    HW258305   2.087   3.019   5.855  1.3865  0.6932  0.2861
50482SOL     OW58306   8.865  10.458   9.300 -0.0371 -0.7758  0.2746
50482SOL    HW158307   8.883  10.429   9.390  1.3708  1.0975  0.6597
50482SOL    HW258308   8.861  10.553   9.306 -0.9150 -0.6696 -1.5060
50483SOL     OW58309   5.295   0.309   4.859 -0.1399  0.8408  0.0693
50483SOL    HW158310   5.361   0.240   4.849  0.3867  1.4482 -0.7414
50483SOL    HW258311   5.242   0.280   4.933  1.9992  1.0617  1.8148
50484SOL     OW58312   0.516   4.324   7.991  0.1818  0.1084  0.0564
50484SOL    HW158313   0.543   4.243   8.034  0.8517  1.1053  1.5668
50484SOL    HW258314   0.517   4.302   7.897  0.6098 -1.5348  0.4060
50485SOL     OW58315  10.470   0.088   5.793  0.1422 -0.1714 -0.1643
50485SOL    HW158316  10.455   0.107   5.701 -0.6652  0.2633  0.0429
50485SOL    HW258317  10.467  -0.008   5.799 -1.5655 -0.1577 -0.3318
50486SOL     OW58318  12.049   2.625  11.439  0.0187 -0.4438 -0.3482
50486SOL    HW158319  12.043   2.682  11.362  0.3864 -0.6336 -0.5159
50486SOL    HW258320  12.127   2.654  11.485 -1.9755  1.9935  1.8257
50487SOL     OW58321   3.015   4.616  10.232  0.0377  0.2027 -0.5737
50487SOL    HW158322   3.039   4.607  10.140 -3.1063  0.6408 -1.5440
50487SOL    HW258323   3.093   4.652  10.274  1.6150 -0.1968 -3.0011
50488SOL     OW58324   2.934   2.659   3.561 -0.1070  0.1917  0.7219
50488SOL    HW158325   2.945   2.618   3.475 -1.3386 -1.7615  1.4315
50488SOL    HW258326   2.982   2.742   3.554  0.8441 -0.4616 -1.4366
50489SOL     OW58327   4.260   6.938   5.092  0.0095 -0.3966  0.7675
50489SOL    HW158328   4.333   6.876   5.097 -0.4008 -0.8607  1.2660
50489SOL    HW258329   4.294   7.019   5.129  0.6909 -0.1780 -0.2956
50490SOL     OW58330   9.810   0.025   0.726  0.1082  0.3648  0.1755
50490SOL    HW158331   9.837  -0.024   0.803 -0.7615 -1.1156 -0.4115
50490SOL    HW258332   9.715   0.034   0.735  0.0841  0.7338 -0.3938
50491SOL     OW58333   1.104   3.547   2.191 -0.4182  0.7369  0.0534
50491SOL    HW158334   1.175   3.535   2.255  1.2913  0.4565 -1.7680
50491SOL    HW258335   1.145   3.596   2.120 -2.6058  2.1598 -0.3003
50492SOL     OW58336   9.657   4.948   9.647  0.4434 -0.1464  0.0734
50492SOL    HW158337   9.599   4.895   9.702  1.4059 -0.3058  0.9669
50492SOL    HW258338   9.681   4.890   9.575  1.0054 -0.7314  0.7231
50493SOL     OW58339   6.931  10.095   6.943 -0.3529 -0.3279 -0.6797
50493SOL    HW158340   6.996  10.159   6.973 -0.0854 -0.9534  0.0913
50493SOL    HW258341   6.982  10.022   6.909 -0.6469  0.2788 -2.5719
50494SOL     OW58342   1.243  10.974   5.516 -0.1159 -0.4741 -0.2141
50494SOL    HW158343   1.251  11.026   5.435 -0.4820  1.4959  0.9471
50494SOL    HW258344   1.210  11.036   5.581 -0.0406 -2.0654  1.4150
50495SOL     OW58345  10.282  11.495   7.410 -0.5878 -0.1972 -0.2998
50495SOL    HW158346  10.207  11.462   7.460  0.3695 -1.0191  0.6428
50495SOL    HW258347  10.327  11.416   7.380 -0.4844  0.2917 -1.4564
50496SOL     OW58348   4.918   7.057   8.351 -0.0198  0.4777 -0.2915
50496SOL    HW158349   4.843   7.007   8.382  1.0998 -1.3013 -0.3141
50496SOL    HW258350   4.983   7.048   8.421  1.9572 -2.2566 -2.2593
50497SOL     OW58351   1.656   5.428  10.365  0.3692  0.8685 -0.6652
50497SOL    HW158352   1.749   5.439  10.346  0.8378  0.6307  1.2785
50497SOL    HW258353   1.642   5.333  10.363  0.7347  0.7459  1.3431
50498SOL     OW58354  12.146   0.775   2.249  0.0104  0.5262  0.6017
50498SOL    HW158355  12.206   0.736   2.313 -0.9723 -0.1654  1.1426
50498SOL    HW258356  12.177   0.743   2.165 -0.3378 -0.8741  0.9779
50499SOL     OW58357  12.176   6.053  11.285  0.0367  0.0016  0.4212
50499SOL    HW158358  12.164   5.964  11.250 -1.0694 -0.2549  1.3951
50499SOL    HW258359  12.113   6.059  11.356  1.7682  0.7114  1.9701
50500SOL     OW58360   3.878   8.007   5.850 -0.1698  0.2785  0.1041
50500SOL    HW158361   3.791   8.000   5.888 -0.3359 -0.3524 -0.3836
50500SOL    HW258362   3.915   7.919   5.859 -0.4629 -0.0681 -1.7727
50501SOL     OW58363   4.207   4.757  10.169 -0.1659  0.2978 -0.3984
50501SOL    HW158364   4.275   4.772  10.235 -0.6494  0.2634  0.1116
50501SOL    HW258365   4.241   4.799  10.090  0.0273  1.1048  0.1029
50502SOL     OW58366   4.206   4.329   6.563  0.0453  0.1305 -0.0089
50502SOL    HW158367   4.287   4.299   6.606  0.0417 -1.1070 -0.8149
50502SOL    HW258368   4.236   4.372   6.483 -0.0780  0.0067 -0.1209
50503SOL     OW58369  11.489   1.819   2.312  0.2630 -0.2494 -0.2548
50503SOL    HW158370  11.484   1.913   2.328  0.8834 -0.2092 -0.2682
50503SOL    HW258371  11.438   1.805   2.233  1.7192  0.3707 -1.3543
50504SOL     OW58372   4.408   7.659   1.089  0.8727  0.1760  0.1587
50504SOL    HW158373   4.457   7.741   1.080  2.6023 -0.7404  0.8324
50504SOL    HW258374   4.455   7.597   1.033 -0.0734 -0.5175  0.1131
50505SOL     OW58375   5.792   0.724  12.467 -0.1581 -0.7396  0.4124
50505SOL    HW158376   5.726   0.772  12.517  0.9498 -0.5506  1.7371
50505SOL    HW258377   5.794   0.638  12.507 -1.7130 -1.7930 -1.5800
50506SOL     OW58378   1.579   4.765   4.135 -0.0276  0.2138  0.6692
50506SOL    HW158379   1.539   4.828   4.076 -2.1660 -0.5987  1.1705
50506SOL    HW258380   1.627   4.818   4.199 -1.2880  1.3121  0.7308
50507SOL     OW58381   6.515   7.648   7.006  0.0283  0.1514 -0.0296
50507SOL    HW158382   6.544   7.559   7.022  2.6738  0.9920  0.3911
50507SOL    HW258383   6.523   7.660   6.911 -2.7093 -0.7246 -0.4578
50508SOL     OW58384   0.752  11.734   9.702 -0.1432 -0.5934 -0.4987
50508SOL    HW158385   0.675  11.678   9.702 -0.6360 -0.0829  2.3782
50508SOL    HW258386   0.822  11.679   9.737  0.0451 -0.2143 -0.2691
50509SOL     OW58387   6.139   0.147  12.168 -0.5403  0.8089  0.3944
50509SOL    HW158388   6.044   0.156  12.160 -0.7483 -0.8409  0.7349
50509SOL    HW258389   6.159   0.175  12.257 -0.7675  0.6861  0.4829
50510SOL     OW58390   0.587   8.608   8.966  0.0873 -0.5042  0.0426
50510SOL    HW158391   0.555   8.539   8.908  0.6038 -0.8635  0.1779
50510SOL    HW258392   0.533   8.600   9.044  1.0416 -1.6771  0.6219
50511SOL     OW58393   9.251   1.250   1.835 -0.3718 -0.5732 -0.1044
50511SOL    HW158394   9.287   1.262   1.924  0.1694 -0.2047 -0.3673
50511SOL    HW258395   9.193   1.324   1.822  0.6297  0.1548 -0.5775
50512SOL     OW58396  12.209   6.947   3.710  0.0325 -0.0512 -0.2767
50512SOL    HW158397  12.234   6.868   3.663 -0.0843 -0.3568  0.1639
50512SOL    HW258398  12.281   6.961   3.772  0.8304  1.0933 -1.4227
50513SOL     OW58399   2.592  11.483   8.080  0.5232 -0.0889 -0.1596
50513SOL    HW158400   2.539  11.456   8.005  0.5918 -0.2790 -0.1426
50513SOL    HW258401   2.561  11.570   8.103 -0.6899 -0.7170  0.6766
50514SOL     OW58402   8.884   5.810   6.400 -0.4954 -0.3707 -0.4218
50514SOL    HW158403   8.864   5.896   6.437 -1.6035  1.4975 -4.7196
50514SOL    HW258404   8.972   5.819   6.364 -0.6248 -0.9904 -0.9192
50515SOL     OW58405   2.765  10.262  11.307  0.3404 -0.0188  0.2404
50515SOL    HW158406   2.805  10.176  11.317  2.2912  0.7140 -0.8947
50515SOL    HW258407   2.822  10.321  11.356 -0.5784  0.7655  0.4033
50516SOL     OW58408   2.255   8.331  11.665  0.4330 -0.0402  0.8788
50516SOL    HW158409   2.181   8.314  11.607  1.1396 -0.5812  0.1215
50516SOL    HW258410   2.262   8.427  11.667  0.5750 -0.0098 -0.1802
50517SOL     OW58411   6.894   0.865   5.672  0.0013  0.2544  0.1193
50517SOL    HW158412   6.825   0.847   5.736 -0.4826 -0.0071 -0.4741
50517SOL    HW258413   6.872   0.949   5.634 -0.4309 -0.1939 -0.6382
50518SOL     OW58414  10.470   5.155   6.721  0.0494 -0.3817 -0.7462
50518SOL    HW158415  10.427   5.070   6.736 -2.3975  1.2152  2.5525
50518SOL    HW258416  10.442   5.180   6.633 -2.1157 -1.4883 -0.4486
50519SOL     OW58417   9.976  10.421  10.271  0.2831  0.3415 -0.1509
50519SOL    HW158418  10.029  10.355  10.226  0.5135 -0.7634  1.6462
50519SOL    HW258419  10.035  10.494  10.285  1.5578 -0.9981  2.1123
50520SOL     OW58420   1.001  11.623   8.113 -0.8617 -0.1990 -0.3055
50520SOL    HW158421   0.932  11.676   8.073 -0.9217 -1.0068 -1.3182
50520SOL    HW258422   0.955  11.564   8.172 -0.7369  1.2849  1.3618
50521SOL     OW58423   5.922  11.954   1.536 -0.4086 -0.0425 -0.0728
50521SOL    HW158424   6.003  11.995   1.567  0.0907  0.1448 -1.5504
50521SOL    HW258425   5.877  12.024   1.488 -0.8047 -0.5092 -0.3827
50522SOL     OW58426  12.192   6.232   1.599  0.3539 -0.1191 -0.4155
50522SOL    HW158427  12.198   6.207   1.507  1.1032  2.1174 -1.0619
50522SOL    HW258428  12.161   6.323   1.597 -1.0791 -0.5048  1.6302
50523SOL     OW58429   4.548  10.631  11.825  0.3389  0.0160 -0.0551
50523SOL    HW158430   4.516  10.718  11.849 -0.0874  0.2496 -1.3922
50523SOL    HW258431   4.521  10.574  11.897 -1.5998  0.5208 -0.3436
50524SOL     OW58432   1.287   4.896   1.700  0.3025 -0.1543  0.0117
50524SOL    HW158433   1.204   4.884   1.745  0.4748 -2.0450 -0.1169
50524SOL    HW258434   1.318   4.808   1.681  2.5646  0.4808  0.4324
50525SOL     OW58435   1.134   1.685  10.905 -0.2152 -0.0519 -0.6978
50525SOL    HW158436   1.075   1.628  10.856 -1.7342  0.4505  0.4653
50525SOL    HW258437   1.122   1.659  10.996  0.2376  1.0674 -0.2980
50526SOL     OW58438   5.626   1.274   1.886  0.0476 -0.6223  0.0331
50526SOL    HW158439   5.686   1.288   1.812  1.5157 -1.5751  0.9928
50526SOL    HW258440   5.599   1.362   1.912  0.3224 -0.2194 -0.9661
50527SOL     OW58441   0.310  11.448   5.538 -0.2877 -0.1678 -0.0763
50527SOL    HW158442   0.247  11.387   5.576  0.3770 -0.1881  1.0069
50527SOL    HW258443   0.255  11.513   5.494 -1.1470  0.5169  1.8915
50528SOL     OW58444   3.701   3.610   8.926 -0.3207  0.0236  0.3582
50528SOL    HW158445   3.749   3.559   8.992  0.6835  0.7346  0.1913
50528SOL    HW258446   3.702   3.555   8.848  0.3674  0.1088  0.3069
50529SOL     OW58447   9.895  11.692   5.147 -0.4696 -0.3661 -0.1699
50529SOL    HW158448   9.928  11.760   5.205 -0.4991 -0.1308 -0.4298
50529SOL    HW258449   9.959  11.689   5.075 -0.3993 -0.6984 -0.0942
50530SOL     OW58450   3.990  12.246   8.984  0.4799 -0.1640  1.2707
50530SOL    HW158451   4.004  12.192   9.062  0.4752 -0.9795  0.7215
50530SOL    HW258452   3.943  12.188   8.923  0.7208  0.3736  0.5604
50531SOL     OW58453  10.851   7.046   2.316 -0.1319  0.4301 -0.4767
50531SOL    HW158454  10.779   6.997   2.276  0.9690 -1.2950 -0.4557
50531SOL    HW258455  10.811   7.127   2.346 -2.7447 -1.6147  2.1114
50532SOL     OW58456   2.057   7.493   1.512  0.4474 -0.0510  0.1022
50532SOL    HW158457   2.119   7.479   1.583 -0.9131 -3.1638  0.8405
50532SOL    HW258458   2.105   7.466   1.433  0.0186 -2.9315  0.7269
50533SOL     OW58459   8.403  11.651   8.830  0.0452  0.5178  0.2233
50533SOL    HW158460   8.447  11.723   8.875  0.0374  0.0309  1.0391
50533SOL    HW258461   8.362  11.691   8.754  0.0406  1.3688  0.6664
50534SOL     OW58462   7.757   7.285   4.857  0.3264 -0.4350  0.1468
50534SOL    HW158463   7.817   7.352   4.888 -2.5082  1.9494  0.9238
50534SOL    HW258464   7.806   7.239   4.788  3.6153  0.0396  1.9795
50535SOL     OW58465   8.461   4.011  11.911  0.5196 -0.0340  0.7846
50535SOL    HW158466   8.445   3.918  11.892 -0.7219  0.3337 -0.0731
50535SOL    HW258467   8.530   4.036  11.849 -1.9989  0.6080 -1.9545
50536SOL     OW58468  10.960   4.503   3.431  0.9121  0.3509  0.0930
50536SOL    HW158469  10.909   4.425   3.409  0.2219  0.6612  0.5424
50536SOL    HW258470  10.922   4.572   3.376  0.4394  0.7135  0.8572
50537SOL     OW58471   6.310   4.077   9.709  0.6083 -0.3644 -0.2807
50537SOL    HW158472   6.310   3.986   9.738 -1.5267 -0.2862  0.1340
50537SOL    HW258473   6.272   4.073   9.621  0.9626  0.0812 -0.4553
50538SOL     OW58474   0.517  10.028   8.143  0.0065 -0.6110  0.6108
50538SOL    HW158475   0.480  10.109   8.106  0.3075  0.4384  2.5142
50538SOL    HW258476   0.451   9.961   8.125 -0.8153  0.3098  0.1252
50539SOL     OW58477  12.408   3.478   6.207 -0.2924 -0.3244  0.0420
50539SOL    HW158478  12.418   3.425   6.286 -1.7963  0.0489  0.5358
50539SOL    HW258479  12.314   3.500   6.206 -0.3713 -0.5979 -2.0318
50540SOL     OW58480   1.141   1.627  10.557  0.3048  0.3644 -0.0722
50540SOL    HW158481   1.217   1.599  10.608 -0.3566 -1.8817 -0.2034
50540SOL    HW258482   1.128   1.557  10.494 -0.5543  1.7877 -1.5572
50541SOL     OW58483   0.211  10.396   5.505 -0.2058 -0.2850  0.8405
50541SOL    HW158484   0.264  10.432   5.433  1.6815 -1.1381  1.7416
50541SOL    HW258485   0.133  10.452   5.507  1.0206  1.5555 -0.0103
50542SOL     OW58486   6.047   4.004   5.214 -0.3863 -0.2732  0.0386
50542SOL    HW158487   6.105   4.028   5.141 -0.5512 -0.7712 -0.2611
50542SOL    HW258488   6.018   4.087   5.250  0.5390 -0.0092  0.2089
50543SOL     OW58489   9.257   3.482   3.087  0.0586 -0.6851 -0.2157
50543SOL    HW158490   9.257   3.464   2.993 -2.1243 -0.8242 -0.2375
50543SOL    HW258491   9.203   3.561   3.097 -1.0460 -1.5451  1.0225
50544SOL     OW58492   1.996   3.857  11.410  0.4553  0.2444  0.2126
50544SOL    HW158493   1.930   3.792  11.388 -0.7316  1.0980  1.0632
50544SOL    HW258494   2.011   3.846  11.504  0.3420  1.0746  0.3430
50545SOL     OW58495   9.425   8.121   3.447 -0.4705 -0.0590 -0.2712
50545SOL    HW158496   9.392   8.068   3.520 -0.9547  0.5939 -0.0042
50545SOL    HW258497   9.410   8.212   3.475 -0.6208  0.2020 -1.1642
50546SOL     OW58498   8.839   6.970   3.493  0.4392 -0.4492  0.2729
50546SOL    HW158499   8.855   7.064   3.481 -1.5698 -0.1743 -0.8034
50546SOL    HW258500   8.829   6.959   3.587  2.1498  0.1231  0.5458
50547SOL     OW58501   6.140  10.800  11.711  0.7179  0.0977 -0.0964
50547SOL    HW158502   6.130  10.831  11.621 -1.0512  0.8605  0.3205
50547SOL    HW258503   6.052  10.804  11.748  1.4404  0.0526  1.7493
50548SOL     OW58504   7.122   6.686   8.747  0.0233 -0.4539  0.0812
50548SOL    HW158505   7.180   6.763   8.746  2.3466 -2.0941 -0.1862
50548SOL    HW258506   7.138   6.644   8.663 -2.8285 -0.1899 -0.7022
50549SOL     OW58507   5.422   6.989   8.579  0.5295 -0.5482  0.2571
50549SOL    HW158508   5.491   6.949   8.632  0.3973 -1.9965 -0.5996
50549SOL    HW258509   5.454   6.983   8.489 -0.7654 -1.4282 -0.1758
50550SOL     OW58510   2.468   3.039   8.392 -0.1106  0.4533 -0.0731
50550SOL    HW158511   2.476   3.110   8.455 -0.6582  1.0455 -0.6432
50550SOL    HW258512   2.550   3.042   8.342 -0.6041  1.4737 -0.8679
50551SOL     OW58513  10.294  11.304   9.296  0.0340 -0.4775 -0.1878
50551SOL    HW158514  10.269  11.394   9.316  1.4093  0.1694 -1.2041
50551SOL    HW258515  10.316  11.305   9.203 -0.5270 -2.0291 -0.3798
50552SOL     OW58516   4.029   2.793   6.266  0.2710 -0.0557 -0.1887
50552SOL    HW158517   3.957   2.753   6.217 -1.2833  1.9321  0.3509
50552SOL    HW258518   4.036   2.881   6.231 -0.9742  1.4971  3.1204
50553SOL     OW58519   0.507   9.212   8.947  0.0196  0.2202 -0.2305
50553SOL    HW158520   0.562   9.290   8.947  1.0073 -0.4667  0.1048
50553SOL    HW258521   0.418   9.246   8.958  0.6268  1.2042  2.2689
50554SOL     OW58522   8.437   4.985   1.899  0.1151  0.2858 -0.3207
50554SOL    HW158523   8.463   5.072   1.929  1.2687  0.0946 -0.7126
50554SOL    HW258524   8.498   4.926   1.942 -1.9465 -0.5976  1.6336
50555SOL     OW58525   6.471   6.306   8.423  0.1009 -0.4406 -0.0618
50555SOL    HW158526   6.471   6.365   8.499  0.4318 -1.0975  0.4476
50555SOL    HW258527   6.484   6.365   8.348 -1.3798  0.3680  0.2584
50556SOL     OW58528  11.578   4.784   0.622  0.0263  0.2486  0.6543
50556SOL    HW158529  11.615   4.700   0.649  3.2282  0.4758 -2.3261
50556SOL    HW258530  11.646   4.848   0.643 -0.3083  1.3578 -1.3627
50557SOL     OW58531  12.461   5.405   0.367 -0.5856  0.6584  0.0931
50557SOL    HW158532  12.371   5.373   0.376  0.3304 -1.6442  2.8913
50557SOL    HW258533  12.502   5.344   0.306 -0.6915  1.2051 -0.5333
50558SOL     OW58534   8.762   5.869   0.691  0.0849  0.1003  0.1970
50558SOL    HW158535   8.705   5.850   0.765  2.8132  0.0764  2.4294
50558SOL    HW258536   8.821   5.794   0.685  0.9942  0.8600 -0.9387
50559SOL     OW58537  11.171   6.172   6.113 -0.0481  0.5988  0.0091
50559SOL    HW158538  11.214   6.174   6.199  0.6366  0.2915 -0.3210
50559SOL    HW258539  11.216   6.102   6.066 -1.0545  0.1233 -0.2721
50560SOL     OW58540   3.962   8.815   2.223  0.0221 -0.3707 -0.7046
50560SOL    HW158541   3.893   8.881   2.230  0.6617  0.2123  0.5596
50560SOL    HW258542   4.016   8.844   2.150 -1.4632 -1.2541 -2.2189
50561SOL     OW58543   8.777   2.850  12.064  0.4728  0.0653  0.3080
50561SOL    HW158544   8.797   2.927  12.118 -2.6344  0.2726  1.3880
50561SOL    HW258545   8.739   2.886  11.984 -3.4778 -0.0753  1.8477
50562SOL     OW58546   5.073   5.506   5.162 -0.0613 -0.3656  0.3283
50562SOL    HW158547   5.142   5.451   5.125  2.6055  2.4876  0.7043
50562SOL    HW258548   5.024   5.538   5.086  1.0815  0.0876 -0.2392
50563SOL     OW58549   5.821   4.835  11.326 -0.0067  0.4198 -0.0125
50563SOL    HW158550   5.909   4.873  11.323 -0.3430  1.2294  0.2416
50563SOL    HW258551   5.762   4.910  11.324 -0.6820 -0.0778  0.7663
50564SOL     OW58552   8.469   0.338   6.317 -0.3559  0.1296 -0.2662
50564SOL    HW158553   8.533   0.288   6.368 -0.6076 -1.3109 -1.3190
50564SOL    HW258554   8.401   0.362   6.381 -0.2809 -0.9621  0.2357
50565SOL     OW58555  10.598  11.219   1.381  0.4710  0.3882  0.1471
50565SOL    HW158556  10.625  11.130   1.358 -0.4209  0.5662 -1.7233
50565SOL    HW258557  10.615  11.225   1.475  0.1023 -1.9138  0.4120
50566SOL     OW58558   3.634   3.405   7.527 -0.2413  0.0319 -0.7642
50566SOL    HW158559   3.628   3.466   7.601 -0.6258 -0.4189 -0.4238
50566SOL    HW258560   3.552   3.417   7.480 -1.0676 -1.4278  0.2453
50567SOL     OW58561   6.118   2.645   7.069  0.8589 -0.3432  0.1242
50567SOL    HW158562   6.078   2.582   7.129 -0.7999  1.3456  0.9022
50567SOL    HW258563   6.196   2.676   7.115  0.2981 -0.0061  0.8677
50568SOL     OW58564  11.303   8.271   0.970  0.2058 -0.1437 -0.5493
50568SOL    HW158565  11.347   8.193   1.004  1.2573  0.2749 -0.9230
50568SOL    HW258566  11.251   8.304   1.044 -0.1977 -1.1521 -0.3728
50569SOL     OW58567   4.193   9.964   5.705 -0.2904  0.0061 -0.0611
50569SOL    HW158568   4.152  10.050   5.705 -0.9626 -0.3025 -1.0548
50569SOL    HW258569   4.148   9.915   5.636  0.7214 -0.8372 -0.1525
50570SOL     OW58570   9.915   2.056   9.823  0.1715  0.3225  0.3329
50570SOL    HW158571  10.001   2.030   9.791 -0.9150 -1.0485 -1.7120
50570SOL    HW258572   9.857   2.049   9.747 -1.9458  0.1986  1.8372
50571SOL     OW58573   7.314  11.974  11.607  0.3285  0.5968 -0.0043
50571SOL    HW158574   7.368  12.010  11.678  0.8226  1.3687 -0.7496
50571SOL    HW258575   7.274  12.052  11.567  1.0430  0.2849 -1.3606
50572SOL     OW58576   4.765   6.259   2.576  0.6658 -0.0398  0.7815
50572SOL    HW158577   4.753   6.241   2.669  0.5395  1.0071  0.9836
50572SOL    HW258578   4.676   6.261   2.541  0.6556  0.4950  0.8305
50573SOL     OW58579  10.057   4.758   4.499  0.6008  0.4126 -0.3500
50573SOL    HW158580   9.983   4.812   4.526 -0.4706 -0.8954 -0.5607
50573SOL    HW258581  10.129   4.820   4.490 -0.4010  1.6994  0.0686
50574SOL     OW58582   9.029   1.542   2.782  0.3061 -0.6295  0.6065
50574SOL    HW158583   9.019   1.575   2.692  1.7618 -3.4155 -0.7210
50574SOL    HW258584   9.107   1.588   2.815 -0.4020  0.6219  0.6041
50575SOL     OW58585   1.857   5.447   9.261 -1.0759 -0.0574 -0.3536
50575SOL    HW158586   1.867   5.406   9.347 -1.0310 -0.7654 -0.6910
50575SOL    HW258587   1.770   5.488   9.265 -0.8318  0.4148  0.2320
50576SOL     OW58588   7.280   1.857   1.944 -0.6921 -0.3597  0.3223
50576SOL    HW158589   7.365   1.814   1.950 -0.1595  0.7602  1.1357
50576SOL    HW258590   7.248   1.861   2.034 -0.9139  0.5243  0.2203
50577SOL     OW58591   2.262  10.314   5.899 -0.1426 -1.0381 -0.6068
50577SOL    HW158592   2.201  10.314   5.826  0.4914  0.5521 -1.1810
50577SOL    HW258593   2.347  10.338   5.860  0.5172 -1.5909  0.4289
50578SOL     OW58594   6.994   6.241   5.830 -0.2504 -0.3257 -0.6095
50578SOL    HW158595   6.956   6.240   5.742 -0.1240  2.4720 -0.7860
50578SOL    HW258596   6.918   6.243   5.889 -0.5337  2.5847 -0.8920
50579SOL     OW58597  10.755   2.430   3.860  0.0037 -0.8790  0.0479
50579SOL    HW158598  10.781   2.487   3.932  0.2032  0.0428 -0.7299
50579SOL    HW258599  10.807   2.351   3.871  0.6930 -0.3802  0.4042
50580SOL     OW58600  11.962   1.371   3.680  0.7463 -0.3488 -0.1937
50580SOL    HW158601  11.872   1.341   3.695 -0.4940  2.8876 -0.2459
50580SOL    HW258602  12.017   1.307   3.724 -1.7167 -1.3035  1.7511
50581SOL     OW58603   2.532   5.553   4.349 -0.3678  0.2984 -0.3053
50581SOL    HW158604   2.600   5.564   4.282 -0.1108  0.6202  0.0084
50581SOL    HW258605   2.489   5.638   4.354  0.3538  0.6225  0.7357
50582SOL     OW58606  11.176  11.503   6.440  0.3884  0.3291 -0.0521
50582SOL    HW158607  11.189  11.596   6.419 -1.5495  1.0955  1.7791
50582SOL    HW258608  11.093  11.480   6.399  0.2164 -0.2158  0.5873
50583SOL     OW58609   9.463   4.138   7.708  0.1865 -0.6052 -0.3293
50583SOL    HW158610   9.391   4.118   7.648  0.4616 -0.0900 -0.8399
50583SOL    HW258611   9.530   4.071   7.688  0.0914 -0.7194 -0.2689
50584SOL     OW58612   7.883  11.085  10.994  0.4403 -0.2912 -0.1046
50584SOL    HW158613   7.978  11.091  10.991  0.7819 -3.5026  0.4725
50584SOL    HW258614   7.853  11.175  11.005  3.3999  0.7722  0.0541
50585SOL     OW58615   1.953  10.805   0.959 -0.4176 -0.1569 -0.3159
50585SOL    HW158616   1.963  10.717   0.922 -1.3137 -0.5381  0.3112
50585SOL    HW258617   1.936  10.790   1.052 -2.4617  0.5492 -0.5193
50586SOL     OW58618   0.111   3.218   3.357  0.1840 -0.6053  0.3178
50586SOL    HW158619   0.114   3.311   3.383  1.2606 -0.6501  0.3788
50586SOL    HW258620   0.172   3.212   3.284 -1.2024 -0.9297 -0.8693
50587SOL     OW58621  10.499   4.153   0.559  0.7262  0.4888 -0.5415
50587SOL    HW158622  10.538   4.116   0.638 -2.5201  0.6247  1.3042
50587SOL    HW258623  10.405   4.153   0.576 -0.0219  2.0625 -3.7937
50588SOL     OW58624   8.798   1.979  12.222 -1.0557 -0.1256  0.3277
50588SOL    HW158625   8.780   1.955  12.312  0.7820  0.0316  0.7726
50588SOL    HW258626   8.813   1.895  12.177 -0.9376 -0.1491  0.4105
50589SOL     OW58627   8.677   9.986   3.593 -0.7203  0.1439 -0.3611
50589SOL    HW158628   8.602  10.039   3.620 -2.2839 -2.3250  0.5289
50589SOL    HW258629   8.638   9.918   3.538  0.7043 -1.6965  0.7961
50590SOL     OW58630   3.599   2.791   7.493 -0.3591 -0.0036  0.7332
50590SOL    HW158631   3.569   2.821   7.579 -0.1838  1.7223  0.2202
50590SOL    HW258632   3.632   2.703   7.509 -2.3884 -0.6089  1.9967
50591SOL     OW58633   2.808   2.361   2.334  0.0315 -0.6231  0.7248
50591SOL    HW158634   2.856   2.440   2.311  0.5745 -0.8788  0.9527
50591SOL    HW258635   2.720   2.374   2.298  0.7619 -0.9136 -1.2912
50592SOL     OW58636   2.076   1.588   2.023  0.1910  0.6136 -0.4517
50592SOL    HW158637   2.044   1.510   1.979 -2.3794  0.6042  1.1917
50592SOL    HW258638   1.996   1.634   2.049  1.5063  1.0675  3.2839
50593SOL     OW58639  10.308   8.307   9.592 -0.5148 -0.5878  0.6637
50593SOL    HW158640  10.251   8.234   9.571 -0.4393 -0.0497 -1.6913
50593SOL    HW258641  10.394   8.281   9.558  0.0472 -0.3118  1.8236
50594SOL     OW58642  11.185   5.037   4.043 -0.2785 -0.1418 -0.1869
50594SOL    HW158643  11.268   5.039   4.090 -0.0081 -0.5385 -0.6361
50594SOL    HW258644  11.196   5.097   3.970 -0.5455  0.1399 -0.0007
50595SOL     OW58645  11.923   6.263   5.108 -0.2858 -0.0299  0.2712
50595SOL    HW158646  12.011   6.266   5.071 -0.9488 -0.2464 -1.3867
50595SOL    HW258647  11.868   6.230   5.037 -1.3878 -1.8835  1.8961
50596SOL     OW58648   2.930   9.214   0.112  0.1093  0.3273  0.0649
50596SOL    HW158649   2.982   9.256   0.180 -0.7066 -0.8705  1.4798
50596SOL    HW258650   2.943   9.269   0.035  0.3602  2.2369  1.3988
50597SOL     OW58651   6.766   7.794   3.520 -0.0188 -0.2778 -0.0067
50597SOL    HW158652   6.687   7.841   3.492 -0.0857 -0.6903 -0.5278
50597SOL    HW258653   6.831   7.813   3.452  0.3876  0.1969  0.5092
50598SOL     OW58654   3.736   3.498   9.618  0.1044 -0.0419 -0.4804
50598SOL    HW158655   3.752   3.520   9.526 -0.7056  1.5046 -0.2852
50598SOL    HW258656   3.744   3.582   9.664 -0.1653 -0.6811  0.7698
50599SOL     OW58657   4.452  11.705   3.238  0.2513  0.3546 -0.2501
50599SOL    HW158658   4.495  11.704   3.323  0.5531 -2.4430 -0.3609
50599SOL    HW258659   4.517  11.670   3.177  0.0715  2.3502 -1.7095
50600SOL     OW58660   4.713   5.717   7.317  0.8214 -0.2560 -0.0626
50600SOL    HW158661   4.766   5.668   7.381  1.5455  0.4128 -0.1311
50600SOL    HW258662   4.672   5.649   7.264  1.6839 -0.8075 -0.0594
50601SOL     OW58663   5.110   4.455   5.180 -0.2354  0.0869  0.0074
50601SOL    HW158664   5.032   4.462   5.125 -0.2971  0.1687  0.1066
50601SOL    HW258665   5.183   4.470   5.119 -0.2334 -1.0499 -0.3023
50602SOL     OW58666   9.256   3.340  11.997  0.2002  0.1000 -0.1017
50602SOL    HW158667   9.328   3.394  12.029  0.1104 -1.2354  2.6430
50602SOL    HW258668   9.239   3.373  11.909  1.4939  3.1479  0.6387
50603SOL     OW58669  11.397   6.142   3.776  0.5518 -0.4612 -0.0402
50603SOL    HW158670  11.445   6.136   3.694  2.1517 -3.3100  0.9453
50603SOL    HW258671  11.319   6.089   3.762 -1.2882  2.2237 -0.8521
50604SOL     OW58672   8.347   4.126   4.261  0.0053  0.4206  0.1045
50604SOL    HW158673   8.322   4.202   4.314  1.0253  1.5602 -0.9812
50604SOL    HW258674   8.264   4.090   4.230 -0.4703  2.0915 -0.6841
50605SOL     OW58675  12.148   5.285   8.353  0.4058  0.0735 -0.4919
50605SOL    HW158676  12.107   5.309   8.437  0.6320 -1.0561 -0.0406
50605SOL    HW258677  12.081   5.305   8.288 -0.9183 -1.7098  0.2363
50606SOL     OW58678   7.954  10.466  11.400  0.5813 -0.4583  0.6553
50606SOL    HW158679   7.889  10.429  11.459  0.0921 -1.7851 -0.6702
50606SOL    HW258680   7.932  10.559  11.396 -0.8716 -0.7752  0.7096
50607SOL     OW58681   3.302   3.497   2.081 -0.2481  0.5396  0.1988
50607SOL    HW158682   3.309   3.402   2.078  1.3607  0.6529 -0.6870
50607SOL    HW258683   3.223   3.514   2.132 -1.8514 -1.2842 -1.5437
50608SOL     OW58684  12.124   7.495   0.164  0.3274 -0.3049  0.6919
50608SOL    HW158685  12.037   7.522   0.193 -0.0860  0.6798 -1.2784
50608SOL    HW258686  12.138   7.543   0.082  2.1479 -1.5243  0.2250
50609SOL     OW58687   8.429   0.251   7.518  0.0506  0.2366 -0.7724
50609SOL    HW158688   8.518   0.228   7.492  0.8388  0.3454  1.5750
50609SOL    HW258689   8.438   0.335   7.563 -1.5528  1.1716 -2.0863
50610SOL     OW58690   1.563   3.245   3.145  0.9465 -0.4796 -0.1374
50610SOL    HW158691   1.473   3.274   3.132  1.0592  0.3717  0.8780
50610SOL    HW258692   1.597   3.301   3.214  1.5956 -2.1775  0.9948
50611SOL     OW58693   1.669   3.648   5.792 -0.0804 -0.2704 -0.4006
50611SOL    HW158694   1.589   3.672   5.745 -1.2845 -1.6002  0.8868
50611SOL    HW258695   1.693   3.562   5.758 -0.6041 -0.9606  0.8775
50612SOL     OW58696   2.285   1.581   2.606  0.3356 -0.3891 -0.4054
50612SOL    HW158697   2.208   1.605   2.657 -1.1830  1.1679 -3.1766
50612SOL    HW258698   2.260   1.598   2.515  3.9525  0.1249 -1.4727
50613SOL     OW58699  10.044   9.264   4.245 -0.1041 -0.0431 -0.0919
50613SOL    HW158700   9.962   9.292   4.205 -0.5958 -0.1751  0.8160
50613SOL    HW258701  10.105   9.335   4.227 -1.2131  1.4665  1.8207
50614SOL     OW58702   5.351   7.702   1.376 -0.3560 -0.5779 -0.6882
50614SOL    HW158703   5.375   7.689   1.285  0.2796 -0.4666 -0.5383
50614SOL    HW258704   5.433   7.697   1.424 -0.6574 -0.4137 -0.1427
50615SOL     OW58705   4.264   9.861   6.297 -0.3599  0.1996  0.1327
50615SOL    HW158706   4.263   9.889   6.205  0.1708  0.1226  0.1000
50615SOL    HW258707   4.217   9.778   6.298 -0.7633  0.4283  0.0047
50616SOL     OW58708   1.916   6.984   6.715  0.0872 -0.0392  0.1518
50616SOL    HW158709   1.944   6.902   6.757  1.9046 -0.1769 -1.2286
50616SOL    HW258710   1.958   6.983   6.629 -1.6623  1.3258 -0.7954
50617SOL     OW58711   8.334  10.311   0.486 -0.4578  0.0332 -0.3100
50617SOL    HW158712   8.423  10.304   0.451  0.6084  3.4697  1.2816
50617SOL    HW258713   8.289  10.371   0.426 -1.1202 -0.1990 -0.0589
50618SOL     OW58714   6.755   2.436   8.041  0.2705 -0.2402 -0.3505
50618SOL    HW158715   6.837   2.466   8.002 -0.5432  1.1874 -1.0630
50618SOL    HW258716   6.719   2.514   8.083 -0.2414 -1.0944  0.8339
50619SOL     OW58717   5.819   0.446   4.490 -0.7136  0.2997  0.3191
50619SOL    HW158718   5.727   0.450   4.463 -0.5636 -0.1111 -0.2835
50619SOL    HW258719   5.867   0.430   4.408 -0.2614 -1.2551  0.8674
50620SOL     OW58720   3.875  10.074   5.783 -0.0475  0.2434  0.0862
50620SOL    HW158721   3.906  10.001   5.837  1.2018  0.1822 -0.6653
50620SOL    HW258722   3.955  10.116   5.752 -0.7164  0.4227 -1.5025
50621SOL     OW58723  10.981  12.316   1.442  0.3771  0.5333 -0.1204
50621SOL    HW158724  10.921  12.241   1.440 -0.7236  1.3884 -2.0938
50621SOL    HW258725  10.989  12.337   1.535  0.7134 -1.9738  0.5055
50622SOL     OW58726   8.640   1.466   1.335 -0.2035  1.0102 -0.4478
50622SOL    HW158727   8.680   1.406   1.397  0.4431  0.3304 -1.4884
50622SOL    HW258728   8.688   1.548   1.346  1.0974  0.3877 -1.2345
50623SOL     OW58729   2.762  11.303  10.442  0.1119  0.4936 -0.5591
50623SOL    HW158730   2.670  11.275  10.442  1.0321 -3.0017  0.0115
50623SOL    HW258731   2.787  11.303  10.350 -0.7445  2.9056 -0.8619
50624SOL     OW58732   5.352   3.084   1.264 -0.0731 -0.0884  0.1100
50624SOL    HW158733   5.355   3.071   1.170  0.6137 -2.3423  0.3675
50624SOL    HW258734   5.377   3.175   1.277 -0.2671  0.2907 -1.8727
50625SOL     OW58735   2.726   3.307   3.112 -0.4893  0.1786 -0.4983
50625SOL    HW158736   2.653   3.244   3.111 -1.5652  1.3131  1.0575
50625SOL    HW258737   2.717   3.355   3.030  0.2652 -1.5477 -1.6436
50626SOL     OW58738  11.822   9.864   8.991  0.2167 -0.2496  0.1712
50626SOL    HW158739  11.886   9.813   8.941  0.5132  2.2755 -2.2642
50626SOL    HW258740  11.843   9.955   8.971 -2.4369  0.7609  1.5150
50627SOL     OW58741   9.286   1.847   3.029  0.2134 -0.3240 -0.1103
50627SOL    HW158742   9.364   1.801   3.061 -0.3879 -1.3111 -0.0295
50627SOL    HW258743   9.259   1.902   3.103 -0.1329 -1.2449  0.4594
50628SOL     OW58744   6.405   4.057   5.179  0.0291  0.0031  0.0843
50628SOL    HW158745   6.497   4.077   5.158 -0.0467  0.3318  0.0586
50628SOL    HW258746   6.403   3.961   5.186  0.2948 -0.0383 -0.3048
50629SOL     OW58747  11.024   1.836   4.751  0.0711 -0.3988 -0.6836
50629SOL    HW158748  10.958   1.809   4.816  0.2079 -0.9341 -0.7592
50629SOL    HW258749  11.046   1.755   4.705  2.0391 -0.5921  0.4777
50630SOL     OW58750  11.027   4.820   3.423  0.0474 -0.2323  0.3323
50630SOL    HW158751  10.943   4.867   3.417 -0.7259 -1.3190  1.9015
50630SOL    HW258752  11.064   4.825   3.335 -1.2862  0.9692 -0.1960
50631SOL     OW58753   3.301  11.398   7.993 -0.2933 -0.1843  0.6580
50631SOL    HW158754   3.350  11.321   7.963 -0.3239 -1.1812  2.9874
50631SOL    HW258755   3.347  11.472   7.954  0.9986 -1.2651  0.0388
50632SOL     OW58756   4.438  11.427   4.585  0.2447  0.1202  0.3959
50632SOL    HW158757   4.450  11.425   4.680  1.1106  0.7542  0.3143
50632SOL    HW258758   4.527  11.420   4.550 -0.1768 -1.8938 -0.4211
50633SOL     OW58759  10.606   7.218   9.575 -0.4312 -0.9250  0.5019
50633SOL    HW158760  10.572   7.167   9.502  1.1583 -1.8408  0.3550
50633SOL    HW258761  10.681   7.265   9.539 -0.3839 -0.4069  1.2484
50634SOL     OW58762   3.550   5.389   7.131 -0.3544  0.1503  0.5256
50634SOL    HW158763   3.500   5.410   7.210 -0.1971  0.1026  0.6381
50634SOL    HW258764   3.624   5.450   7.132 -0.7146  0.6015  0.0654
50635SOL     OW58765  10.047  10.124   8.598  0.3190 -0.0957  0.7222
50635SOL    HW158766   9.953  10.121   8.611  0.3739 -0.1738  1.1137
50635SOL    HW258767  10.069  10.217   8.604  0.2119 -0.0353  0.2155
50636SOL     OW58768   1.147   1.390   1.263  0.3763  0.1488  0.4062
50636SOL    HW158769   1.103   1.402   1.347  0.6139  1.2669  0.3808
50636SOL    HW258770   1.102   1.450   1.203 -0.1637 -1.0358 -0.4202
50637SOL     OW58771   6.819   6.792  12.413 -0.0086 -0.1686 -0.1077
50637SOL    HW158772   6.768   6.732  12.358 -0.8681  1.1185 -0.7568
50637SOL    HW258773   6.756   6.824  12.478  0.6989 -0.7274  0.8745
50638SOL     OW58774   7.085   9.554   0.584  0.3492  0.1561 -0.2985
50638SOL    HW158775   7.005   9.607   0.590  0.8002  0.8923 -0.6446
50638SOL    HW258776   7.127   9.584   0.504  1.4391  0.4329  0.3647
50639SOL     OW58777   8.298   3.444   4.711 -0.2406 -0.1598 -0.5024
50639SOL    HW158778   8.284   3.360   4.754  3.0081  0.1330  1.4623
50639SOL    HW258779   8.310   3.421   4.618 -0.2789 -1.7313 -0.1547
50640SOL     OW58780   2.711   7.715   1.110 -0.3160 -0.4935  0.0134
50640SOL    HW158781   2.660   7.795   1.121  0.9353  0.2240  0.7995
50640SOL    HW258782   2.734   7.689   1.199 -0.3832 -1.5387 -0.2575
50641SOL     OW58783   8.375   8.553   8.286  0.4072  0.4071  0.3139
50641SOL    HW158784   8.405   8.543   8.195 -0.3701  0.3038  0.0659
50641SOL    HW258785   8.319   8.477   8.300 -1.1379  1.4987  0.2110
50642SOL     OW58786   6.976   9.022   6.091  0.4696 -0.1344 -0.0317
50642SOL    HW158787   7.040   8.964   6.133  1.8076  0.9971 -0.4616
50642SOL    HW258788   6.901   8.965   6.073  1.3797 -1.5111  0.3853
50643SOL     OW58789  11.284   5.713   0.541  0.0703 -0.2312 -0.1209
50643SOL    HW158790  11.376   5.735   0.527 -0.0103  0.6427  0.6732
50643SOL    HW258791  11.267   5.737   0.632 -0.4656 -2.1107  0.3241
50644SOL     OW58792   6.698  12.432   1.952  0.1496 -0.3155 -0.1389
50644SOL    HW158793   6.709  12.354   1.898 -0.3122 -0.0045 -0.6990
50644SOL    HW258794   6.787  12.466   1.963  0.3956 -1.1408  0.4531
50645SOL     OW58795   7.005   3.200  11.701 -0.2471  0.3891  0.7505
50645SOL    HW158796   6.944   3.194  11.627  1.0155  1.9428 -0.4929
50645SOL    HW258797   7.037   3.111  11.713  0.1578  0.2378 -1.1634
50646SOL     OW58798   8.111   0.982  11.471  0.0710  0.1223  0.5747
50646SOL    HW158799   8.201   0.951  11.460 -0.1708 -0.6769  0.8005
50646SOL    HW258800   8.098   1.044  11.400 -0.3578 -2.3998 -1.7189
50647SOL     OW58801   1.679   9.031   6.757 -0.1798  0.0352  0.2643
50647SOL    HW158802   1.763   8.986   6.762  0.1727  0.5649 -0.6662
50647SOL    HW258803   1.658   9.033   6.664 -1.6063 -0.7494  0.5335
50648SOL     OW58804   5.320  10.089  10.265  0.4198 -0.3112  0.0771
50648SOL    HW158805   5.358  10.041  10.191  1.0306  2.2360 -1.3910
50648SOL    HW258806   5.237  10.122  10.232  0.2082  0.0052  0.8947
50649SOL     OW58807   8.533   3.018   3.781 -0.7379  0.5081  1.1002
50649SOL    HW158808   8.532   3.055   3.869 -0.4779  0.0943  1.2793
50649SOL    HW258809   8.621   3.036   3.749 -0.9664  1.0524  0.7466
50650SOL     OW58810   0.694   9.403   2.199 -0.4892 -0.3956 -0.4386
50650SOL    HW158811   0.680   9.331   2.261 -0.8037 -1.1330 -1.3396
50650SOL    HW258812   0.730   9.473   2.252 -0.7723 -0.9977  0.5872
50651SOL     OW58813   8.701   6.438  11.112  0.7379 -0.0506  0.4643
50651SOL    HW158814   8.646   6.454  11.035 -0.5459  0.8632  1.5259
50651SOL    HW258815   8.735   6.525  11.134 -0.5085  0.0659  2.0709
50652SOL     OW58816   1.350   4.522   0.856 -0.0826 -0.6632 -0.1224
50652SOL    HW158817   1.363   4.589   0.924  2.7425 -0.2099 -0.9519
50652SOL    HW258818   1.413   4.453   0.879 -0.0845 -1.1514 -1.4963
50653SOL     OW58819  10.097   8.523   7.063  0.1333  1.0391 -0.0806
50653SOL    HW158820  10.147   8.442   7.056  0.8736  1.2930  1.7185
50653SOL    HW258821  10.145   8.587   7.011  0.8523  0.9023  0.4106
50654SOL     OW58822   6.753  10.837   2.359 -0.1229 -0.9828 -0.1228
50654SOL    HW158823   6.827  10.812   2.414 -0.2952 -1.7943 -0.2442
50654SOL    HW258824   6.748  10.932   2.366 -0.5153 -1.1155  1.7523
50655SOL     OW58825   2.602   6.146   3.385 -0.0593  0.0547  0.7458
50655SOL    HW158826   2.661   6.192   3.444  0.2327 -0.4189  0.8289
50655SOL    HW258827   2.607   6.054   3.413 -1.2976  0.0836  1.1635
50656SOL     OW58828   6.730   4.931   3.183  0.1073  0.2541 -0.2102
50656SOL    HW158829   6.750   4.846   3.222 -0.7912  0.1499  0.0296
50656SOL    HW258830   6.650   4.918   3.133  0.2173  0.8473 -0.5553
50657SOL     OW58831   2.056   9.394   8.846  0.1517  0.2803 -0.3864
50657SOL    HW158832   2.127   9.388   8.783 -0.9909  0.4090 -1.7285
50657SOL    HW258833   2.079   9.330   8.914  0.8917 -0.6174 -1.4547
50658SOL     OW58834  11.487  11.298  10.726  0.1527 -0.1398 -0.7696
50658SOL    HW158835  11.407  11.290  10.674  0.8126  0.5950 -1.9372
50658SOL    HW258836  11.525  11.210  10.726 -0.3133 -0.3432 -0.7598
50659SOL     OW58837   7.117  10.811   7.461 -0.0337 -0.2241 -0.0327
50659SOL    HW158838   7.190  10.783   7.407 -0.4680 -0.0973 -0.6979
50659SOL    HW258839   7.132  10.769   7.546  1.6042  1.0114  0.3210
50660SOL     OW58840   5.532   5.630   6.471  0.7108 -0.3014 -0.0154
50660SOL    HW158841   5.599   5.600   6.410 -0.0737 -0.0278 -1.0379
50660SOL    HW258842   5.557   5.721   6.490 -0.4825  0.5300 -2.0735
50661SOL     OW58843   5.471   8.967  11.440  0.0208 -0.4797  0.0428
50661SOL    HW158844   5.540   8.936  11.499  0.4689  2.6574  1.3311
50661SOL    HW258845   5.516   8.988  11.359  0.1717 -0.6137  0.0916
50662SOL     OW58846  10.668   9.484   3.227 -0.2154  0.2843  0.4958
50662SOL    HW158847  10.605   9.411   3.226 -0.0821  0.1153  1.8619
50662SOL    HW258848  10.753   9.441   3.236 -0.0078  0.5576 -0.1488
50663SOL     OW58849   3.620   7.849   5.679  0.3413  0.3984 -0.3424
50663SOL    HW158850   3.546   7.809   5.725 -0.2343  1.1728 -0.5679
50663SOL    HW258851   3.580   7.909   5.616  1.1565  0.7002 -0.5900
50664SOL     OW58852   5.867   9.011   8.824 -0.1292 -0.3910 -0.6051
50664SOL    HW158853   5.779   8.997   8.857  0.2844 -0.0944  0.6785
50664SOL    HW258854   5.905   9.078   8.881  1.3237 -1.3519 -0.3783
50665SOL     OW58855  12.115  11.597  10.240  0.0426 -0.2195  0.6361
50665SOL    HW158856  12.165  11.634  10.166  0.0868  0.4401  0.9876
50665SOL    HW258857  12.174  11.606  10.315 -0.9480  1.5176  1.2667
50666SOL     OW58858   6.891   1.786  11.587 -0.0307  0.7830 -0.1350
50666SOL    HW158859   6.922   1.869  11.622  0.4990  0.4262  0.2549
50666SOL    HW258860   6.825   1.756  11.650  1.2899 -0.1109  0.8797
50667SOL     OW58861  11.657   4.779   2.444  0.3096  0.1176 -0.4882
50667SOL    HW158862  11.619   4.785   2.532 -0.6326  2.7192 -0.9857
50667SOL    HW258863  11.747   4.808   2.454  1.0821 -2.2674  0.0254
50668SOL     OW58864   4.014  10.698   8.536 -0.7198  0.2568 -0.4141
50668SOL    HW158865   4.099  10.659   8.514 -0.6504  0.0959  0.1332
50668SOL    HW258866   3.984  10.649   8.613 -1.1394  0.5568 -0.3816
50669SOL     OW58867   9.069   9.904  12.431  0.6868  0.1128 -0.2560
50669SOL    HW158868   9.155   9.902  12.390  0.2813 -0.2453 -1.1139
50669SOL    HW258869   9.008   9.914  12.358  0.0721  1.9399  0.4511
50670SOL     OW58870   2.180  11.257   8.167  0.3263  0.4202  0.3004
50670SOL    HW158871   2.175  11.217   8.254 -0.6146 -0.4530 -0.1364
50670SOL    HW258872   2.221  11.342   8.182  1.2902 -0.2122  1.4279
50671SOL     OW58873   4.794   6.565   0.828 -0.8547  0.6803  0.1651
50671SOL    HW158874   4.825   6.510   0.757 -1.1779 -0.4626  0.8781
50671SOL    HW258875   4.699   6.567   0.819 -1.0811 -1.0420  1.6161
50672SOL     OW58876   9.144   1.083  11.263 -0.1587 -0.3340  0.3936
50672SOL    HW158877   9.181   1.038  11.187  1.2701  0.4584  0.5885
50672SOL    HW258878   9.220   1.112  11.314 -0.9684  2.4344  0.2011
50673SOL     OW58879   8.060   1.862   5.689 -0.2247 -0.3306 -0.4932
50673SOL    HW158880   8.028   1.788   5.742 -0.1426  0.5353  0.8304
50673SOL    HW258881   8.153   1.867   5.709 -0.2340  0.1352 -0.5573
50674SOL     OW58882   0.772   7.963   7.022  0.2215  0.6753 -0.0400
50674SOL    HW158883   0.800   7.917   6.943 -1.4798  1.0160 -0.8725
50674SOL    HW258884   0.827   8.042   7.025  0.2214  0.7122 -0.9448
50675SOL     OW58885   7.670   6.595   0.568 -0.4114 -0.1569 -0.1022
50675SOL    HW158886   7.652   6.670   0.511 -0.2611  0.2541  0.3754
50675SOL    HW258887   7.765   6.585   0.566 -0.3473  0.2463  0.5421
50676SOL     OW58888   3.464   1.431   0.087 -0.0264 -0.5614 -0.1465
50676SOL    HW158889   3.465   1.355   0.029  1.4300 -1.0041  0.4355
50676SOL    HW258890   3.502   1.501   0.034  1.6841 -1.0656  0.3660
50677SOL     OW58891   4.626   7.076   2.763 -0.0249 -0.2772  0.1354
50677SOL    HW158892   4.626   7.124   2.680 -0.5265 -0.9538 -0.2681
50677SOL    HW258893   4.544   7.103   2.805  0.3419  0.2470  0.5302
50678SOL     OW58894   7.342   9.510   0.197  0.4642 -0.7600 -0.3616
50678SOL    HW158895   7.428   9.485   0.232  0.4482 -1.0529 -0.5226
50678SOL    HW258896   7.289   9.430   0.205  0.0516 -0.4327  0.2093
50679SOL     OW58897   0.600   9.308   7.681 -0.4346  0.0196  0.2449
50679SOL    HW158898   0.664   9.376   7.660 -1.2777  1.0922  1.0683
50679SOL    HW258899   0.584   9.264   7.597  0.6269  0.3749 -0.1648
50680SOL     OW58900   9.617  12.316   8.085  0.3103  0.2701  0.2773
50680SOL    HW158901   9.557  12.379   8.124  1.0002  0.7986  0.5094
50680SOL    HW258902   9.703  12.359   8.089  1.0477 -1.2020  1.7093
50681SOL     OW58903   2.896   2.163   2.067  0.6118  0.7908 -0.4518
50681SOL    HW158904   2.943   2.238   2.033  0.9201  0.8157  0.0196
50681SOL    HW258905   2.804   2.181   2.048  0.4982  2.1023  1.1810
50682SOL     OW58906   9.745   2.385   7.170  0.4154 -0.1832 -0.1247
50682SOL    HW158907   9.814   2.330   7.205  0.5360 -0.5937 -0.9825
50682SOL    HW258908   9.763   2.472   7.205 -0.0391 -0.7551  1.6144
50683SOL     OW58909  12.117   3.582   7.409  0.6225  0.4973  0.1840
50683SOL    HW158910  12.117   3.612   7.318 -0.8495 -0.2155 -0.0783
50683SOL    HW258911  12.094   3.660   7.460 -1.2688  0.2999 -0.3168
50684SOL     OW58912   0.213   2.383   2.306  0.7424  0.5399  0.3815
50684SOL    HW158913   0.124   2.375   2.273  1.6581 -1.0899 -1.9859
50684SOL    HW258914   0.242   2.470   2.279  0.5786  0.2201 -0.9064
50685SOL     OW58915  11.116   8.915   4.924 -0.2162  0.3577  0.4752
50685SOL    HW158916  11.168   8.888   4.848 -2.0669  1.0943 -1.1451
50685SOL    HW258917  11.142   8.855   4.993  4.0015  1.6777  0.3744
50686SOL     OW58918   8.259   7.035   1.027 -0.3608 -0.2624  0.1443
50686SOL    HW158919   8.336   7.017   0.973 -0.2095  0.6466  0.0432
50686SOL    HW258920   8.223   7.116   0.990 -1.3576 -0.6693  0.1982
50687SOL     OW58921   2.545  11.529  10.868 -0.4412  0.1368  0.5899
50687SOL    HW158922   2.558  11.439  10.898 -1.8169 -1.1569 -2.3169
50687SOL    HW258923   2.451  11.545  10.880 -0.4901  0.5954 -0.3118
50688SOL     OW58924   6.676   6.255   1.967 -0.0025 -0.2114  0.1260
50688SOL    HW158925   6.718   6.339   1.987  0.3063 -0.1516 -0.7139
50688SOL    HW258926   6.747   6.191   1.973 -0.3395 -0.5008  1.2627
50689SOL     OW58927   9.245   5.878   6.544 -0.3542 -0.1295 -0.2117
50689SOL    HW158928   9.203   5.864   6.459  1.5112  1.5382 -1.5076
50689SOL    HW258929   9.244   5.973   6.557 -0.3954 -0.3359  1.5387
50690SOL     OW58930   2.328   7.727  12.114 -0.4076  0.4190  0.8887
50690SOL    HW158931   2.253   7.769  12.073 -0.7954 -1.2630 -0.2006
50690SOL    HW258932   2.312   7.736  12.208 -2.0367 -0.0249  0.6738
50691SOL     OW58933   7.407   8.751   5.040  0.4053 -0.6329  0.4933
50691SOL    HW158934   7.448   8.775   4.957 -1.1001  1.2099  0.1904
50691SOL    HW258935   7.366   8.666   5.024  0.6639 -0.5862 -0.4530
50692SOL     OW58936  11.121   5.281   3.151  0.2758  0.4294 -0.2909
50692SOL    HW158937  11.179   5.230   3.095 -1.2369 -0.3036 -1.2770
50692SOL    HW258938  11.119   5.235   3.234  2.6427  1.5887  0.4897
50693SOL     OW58939   1.015   4.153  10.935 -0.5971 -0.6171  0.3460
50693SOL    HW158940   1.021   4.217  11.006 -0.4756 -0.9906  0.6801
50693SOL    HW258941   1.049   4.072  10.974 -1.1880 -1.0030  0.0809
50694SOL     OW58942   8.721   5.063   3.555  0.0387 -0.0896  0.0286
50694SOL    HW158943   8.655   4.997   3.579 -0.9758  0.2027 -1.7749
50694SOL    HW258944   8.695   5.092   3.468  1.0950  1.9299  0.3338
50695SOL     OW58945   9.527   2.917   4.781 -0.1843 -0.9420 -0.4391
50695SOL    HW158946   9.583   2.846   4.750  1.9895  0.2610  0.4920
50695SOL    HW258947   9.501   2.964   4.702  1.0399 -0.9109 -0.8474
50696SOL     OW58948   6.678   1.841   6.643  0.3543  0.1545 -0.5805
50696SOL    HW158949   6.679   1.888   6.560  1.6387 -0.4193 -0.9119
50696SOL    HW258950   6.767   1.808   6.653  0.0732 -0.2624  0.7575
50697SOL     OW58951  10.859   7.724  11.407  0.6210 -0.5632  0.0575
50697SOL    HW158952  10.895   7.812  11.395  1.3777 -0.6498  1.4539
50697SOL    HW258953  10.894   7.696  11.492  0.4408 -2.2406 -0.3976
50698SOL     OW58954   1.579   9.922   0.140 -0.3276  0.2585  0.2791
50698SOL    HW158955   1.606  10.010   0.168 -0.9154  0.2864  0.7769
50698SOL    HW258956   1.490   9.934   0.106  0.0002  0.0434 -0.6771
50699SOL     OW58957   1.436   3.337   8.530 -0.5560 -0.6702 -0.5078
50699SOL    HW158958   1.398   3.354   8.443  0.1277  0.4421 -0.6135
50699SOL    HW258959   1.528   3.361   8.520 -0.5096 -0.3810  0.5762
50700SOL     OW58960  12.248   7.654   8.480  0.3281  0.2397 -0.7036
50700SOL    HW158961  12.264   7.592   8.409  1.9585  0.0692 -0.2304
50700SOL    HW258962  12.176   7.616   8.529 -0.3099 -0.0332 -1.8052
50701SOL     OW58963  11.078   2.903   5.854 -0.0301 -0.0704 -0.3349
50701SOL    HW158964  11.058   2.858   5.937 -0.7422 -0.1720 -0.5582
50701SOL    HW258965  11.080   2.833   5.789 -0.1981  0.1004 -0.5242
50702SOL     OW58966   2.223   5.903  11.470 -0.2427 -0.6929  0.3191
50702SOL    HW158967   2.318   5.914  11.461 -0.0648  0.3089  2.6659
50702SOL    HW258968   2.213   5.827  11.526 -0.7251  0.2019  1.4917
50703SOL     OW58969   0.477   0.240  12.113  0.0059 -0.3626 -0.1648
50703SOL    HW158970   0.447   0.319  12.068  0.3004  0.6589  1.3229
50703SOL    HW258971   0.401   0.212  12.165  0.7458  0.7193  1.6000
50704SOL     OW58972   3.313   2.689  11.566 -0.3659  0.4302  0.7424
50704SOL    HW158973   3.285   2.725  11.650 -0.2414  0.0499  0.9500
50704SOL    HW258974   3.239   2.635  11.537 -0.0547 -0.1641  1.0450
50705SOL     OW58975   3.181   5.580   9.190  0.6284 -0.2002  0.1691
50705SOL    HW158976   3.143   5.494   9.173 -0.3906  0.0335  1.0999
50705SOL    HW258977   3.211   5.576   9.280  2.6233 -0.2738 -0.4582
50706SOL     OW58978  10.199   0.527   0.828  0.3175  0.2925  0.1104
50706SOL    HW158979  10.233   0.607   0.868 -1.0079  0.1549  1.6177
50706SOL    HW258980  10.114   0.552   0.791 -0.1005 -0.3994  0.5758
50707SOL     OW58981  11.017   9.510   0.201  0.7007 -0.2223 -0.1372
50707SOL    HW158982  10.946   9.561   0.161  0.9423  1.0076  0.9171
50707SOL    HW258983  11.094   9.566   0.193  1.4531 -1.3084 -0.7713
50708SOL     OW58984   5.494  10.702   1.840 -0.2892  0.0311  0.6796
50708SOL    HW158985   5.493  10.715   1.745  0.9995 -1.5800  0.4027
50708SOL    HW258986   5.412  10.655   1.858 -0.6229  0.4962  0.3987
50709SOL     OW58987  10.192  12.014   8.731 -0.2306 -1.0113 -0.2480
50709SOL    HW158988  10.128  12.057   8.674  1.3292 -0.8056 -1.9409
50709SOL    HW258989  10.141  11.949   8.779 -1.6497 -1.1513 -1.8374
50710SOL     OW58990   1.261   3.290  10.774 -0.3146 -0.1575 -0.1320
50710SOL    HW158991   1.199   3.249  10.715 -1.4495 -0.4434  1.2160
50710SOL    HW258992   1.225   3.378  10.789 -0.7756 -0.5396  1.1467
50711SOL     OW58993   9.371   3.189   5.626  0.0144 -0.8315 -0.3827
50711SOL    HW158994   9.325   3.136   5.561 -0.7081 -0.3640 -0.2527
50711SOL    HW258995   9.454   3.212   5.583 -0.1383 -1.1548 -0.8531
50712SOL     OW58996   3.440   3.842   3.955  0.0051  0.0195  0.0570
50712SOL    HW158997   3.404   3.854   4.043  0.5519  0.0154  0.2882
50712SOL    HW258998   3.367   3.857   3.896 -0.5185 -0.5795  0.5367
50713SOL     OW58999  10.604   0.637   0.675 -0.1904  0.2217  0.2921
50713SOL    HW159000  10.528   0.623   0.619  0.8187 -0.1281 -1.0404
50713SOL    HW259001  10.676   0.657   0.615  0.3412  2.7381  1.6082
50714SOL     OW59002   8.124   2.491   8.474  0.1095  0.4497 -0.5744
50714SOL    HW159003   8.105   2.416   8.530 -0.3468  1.1353  0.2017
50714SOL    HW259004   8.218   2.486   8.459  0.1800  0.0572 -0.0324
50715SOL     OW59005  12.350   1.971   9.336  0.3742 -0.0985 -0.0101
50715SOL    HW159006  12.347   1.929   9.423  0.9757 -0.7076 -0.2691
50715SOL    HW259007  12.348   1.898   9.275 -0.8074  0.3611 -0.5393
50716SOL     OW59008   4.180   8.527   7.875 -0.3549 -0.0952  0.1780
50716SOL    HW159009   4.214   8.588   7.940  1.8666 -1.1076  0.0570
50716SOL    HW259010   4.241   8.534   7.802 -1.0869 -1.1616 -0.5565
50717SOL     OW59011   7.792   5.374   8.940 -0.0647  0.1862  0.1827
50717SOL    HW159012   7.739   5.443   8.979  0.0282 -0.4486  1.4893
50717SOL    HW259013   7.880   5.413   8.933 -0.3883  0.7844 -0.7582
50718SOL     OW59014   8.491   7.324   4.716  0.1764  0.0388  0.8721
50718SOL    HW159015   8.547   7.390   4.756  0.1470  0.3360  0.4300
50718SOL    HW259016   8.402   7.349   4.742  0.3186 -1.3674  2.9585
50719SOL     OW59017  10.104   9.836  10.269  0.4797  0.5221  0.0860
50719SOL    HW159018  10.093   9.769  10.335 -0.2312  0.5293 -0.0112
50719SOL    HW259019  10.195   9.828  10.240  0.8584  0.6621  1.2076
50720SOL     OW59020   6.363   1.725   2.802 -0.1593  0.1208  0.2624
50720SOL    HW159021   6.301   1.673   2.853 -1.2134  0.0169 -1.0846
50720SOL    HW259022   6.309   1.785   2.751  0.6828 -1.0074 -2.1208
50721SOL     OW59023   3.377   5.956   3.798 -0.6349  0.5087  0.0748
50721SOL    HW159024   3.397   5.870   3.763 -0.7233  0.8216 -0.7509
50721SOL    HW259025   3.285   5.970   3.777 -0.2721  1.3742 -1.0312
50722SOL     OW59026   4.615  10.826   4.671  0.0155  0.3502 -0.2489
50722SOL    HW159027   4.541  10.770   4.646  0.0072  0.0368  0.4525
50722SOL    HW259028   4.605  10.836   4.766  0.1925  1.2927 -0.3277
50723SOL     OW59029  10.001   0.360   1.531 -0.0995  0.1286 -0.1304
50723SOL    HW159030  10.057   0.431   1.500  1.0037 -0.5189  0.3151
50723SOL    HW259031  10.022   0.351   1.624  0.3316 -1.2635 -0.3459
50724SOL     OW59032   4.542   1.890   8.706  0.2184  0.3873  0.1063
50724SOL    HW159033   4.568   1.911   8.796 -0.5274  0.7280  0.2516
50724SOL    HW259034   4.457   1.933   8.695  1.4558  2.6350 -1.6591
50725SOL     OW59035   7.516   1.190  10.356  0.3601  0.2710  0.2145
50725SOL    HW159036   7.474   1.160  10.276  1.7388  2.0402 -1.2903
50725SOL    HW259037   7.544   1.110  10.401 -1.3894 -0.7917 -0.5091
50726SOL     OW59038  11.093   3.943   8.570  0.3545  0.4310 -0.5025
50726SOL    HW159039  11.105   3.983   8.484 -1.0566  2.6368  0.2573
50726SOL    HW259040  11.181   3.937   8.606  0.9486 -0.3942 -2.0048
50727SOL     OW59041  10.107   6.431   8.894  0.2311  0.0706  0.1189
50727SOL    HW159042  10.108   6.464   8.983 -0.7409 -0.3868  0.3143
50727SOL    HW259043  10.057   6.350   8.899 -1.7748  1.1305 -1.1845
50728SOL     OW59044   2.796   6.900   9.839 -0.6193 -0.7658 -0.1407
50728SOL    HW159045   2.819   6.943   9.922  2.1188  0.7539 -1.5499
50728SOL    HW259046   2.712   6.939   9.815 -0.1119  0.9071  0.5920
50729SOL     OW59047   5.087   7.807   3.467 -0.3318  0.1690 -0.0881
50729SOL    HW159048   5.171   7.787   3.507  0.8586 -1.1772 -3.0351
50729SOL    HW259049   5.080   7.902   3.473  2.2571  0.5131 -1.2511
50730SOL     OW59050  12.458   2.373   2.160 -0.2985 -0.0963  0.3514
50730SOL    HW159051  12.507   2.449   2.127 -0.9974  1.0279  1.7722
50730SOL    HW259052  12.461   2.310   2.089  1.1729  0.8676 -0.5021
50731SOL     OW59053   0.737   5.311  10.925  0.1782  0.2397  0.0960
50731SOL    HW159054   0.676   5.269  10.986  1.1479  0.9064  1.5932
50731SOL    HW259055   0.815   5.255  10.928 -0.1358 -0.3090 -1.3848
50732SOL     OW59056   2.532   7.629   3.304  0.3458 -0.2008  0.4108
50732SOL    HW159057   2.560   7.688   3.234 -0.6199  0.3940  0.5195
50732SOL    HW259058   2.540   7.542   3.265 -1.3375  0.1757 -0.8994
50733SOL     OW59059   0.023   7.649   1.705  0.2024  0.1771 -0.0712
50733SOL    HW159060   0.037   7.695   1.787 -1.3237  1.3063 -0.3961
50733SOL    HW259061   0.074   7.698   1.641  1.9303 -1.0927  0.2637
50734SOL     OW59062  11.359   1.705   0.452 -0.6275 -0.2059 -0.2025
50734SOL    HW159063  11.275   1.698   0.406 -0.8085  0.8497 -0.0447
50734SOL    HW259064  11.338   1.687   0.544 -0.2976 -2.1280 -0.4587
50735SOL     OW59065   7.777  11.284   8.312 -0.3973  0.2030  0.2608
50735SOL    HW159066   7.803  11.365   8.357 -0.6033  0.7650 -0.6207
50735SOL    HW259067   7.733  11.233   8.380  0.1122  0.6397  0.9365
50736SOL     OW59068   0.097   0.369   7.879  0.1975 -0.0207 -0.5369
50736SOL    HW159069   0.093   0.274   7.869 -0.5868  0.1247 -1.9397
50736SOL    HW259070   0.188   0.387   7.903  0.2841 -1.1365  0.0364
50737SOL     OW59071  12.152  11.841   3.256 -0.0633 -0.5146 -0.4497
50737SOL    HW159072  12.161  11.919   3.310 -0.2884 -1.0785  0.4435
50737SOL    HW259073  12.084  11.789   3.301  0.7862 -1.6728 -0.4565
50738SOL     OW59074  11.297   3.379   1.218  0.3567 -0.4921 -0.1513
50738SOL    HW159075  11.323   3.415   1.303  0.6706 -0.3193 -0.3159
50738SOL    HW259076  11.334   3.291   1.217  0.4994 -0.4326 -0.1758
50739SOL     OW59077   5.253   6.825   9.149  0.4394  0.2041  0.4756
50739SOL    HW159078   5.243   6.916   9.178 -0.3086  0.6841 -1.1776
50739SOL    HW259079   5.295   6.781   9.223 -0.0315  1.6761  1.6686
50740SOL     OW59080   6.874  10.296  10.285  0.3382 -0.4368 -0.1060
50740SOL    HW159081   6.822  10.275  10.363  0.7040  0.5642  0.4325
50740SOL    HW259082   6.810  10.311  10.216 -0.1378  0.9877  0.5996
50741SOL     OW59083   0.061   2.248   9.577  0.0921 -0.5396 -0.3789
50741SOL    HW159084   0.024   2.242   9.489  0.1326 -0.8140 -0.3794
50741SOL    HW259085   0.151   2.218   9.567  0.9895  2.0078 -0.7671
50742SOL     OW59086  11.697  10.445   7.416 -0.8210  0.5714 -0.6673
50742SOL    HW159087  11.713  10.363   7.370  0.8091  1.0455 -0.9914
50742SOL    HW259088  11.721  10.427   7.507  0.3010  0.8863 -0.8868
50743SOL     OW59089   2.695   2.977  10.822  0.1255 -0.5061  0.0987
50743SOL    HW159090   2.776   2.992  10.871  0.4981 -0.6556 -0.4592
50743SOL    HW259091   2.626   2.975  10.889  0.6624 -1.0463  0.6518
50744SOL     OW59092  11.500   8.589   8.191 -0.3423 -0.1876  0.1063
50744SOL    HW159093  11.499   8.606   8.286  0.6237 -0.9295  0.2674
50744SOL    HW259094  11.445   8.511   8.181 -2.2647  1.1385 -0.2513
50745SOL     OW59095   6.607   6.474   5.932  0.1697  0.2403  0.0762
50745SOL    HW159096   6.595   6.484   5.838  1.4780  1.7185  0.0287
50745SOL    HW259097   6.660   6.395   5.942 -1.4297 -0.9249 -0.2749
50746SOL     OW59098   5.027   5.577   8.215 -0.4501  0.0603  0.1388
50746SOL    HW159099   5.082   5.645   8.254  0.7858  0.2239 -1.7215
50746SOL    HW259100   5.006   5.610   8.128 -0.6402 -1.4976 -0.4480
50747SOL     OW59101   7.113  11.323   6.526 -0.1565  0.0623  0.3912
50747SOL    HW159102   7.098  11.418   6.517 -0.7380  0.0501  1.1068
50747SOL    HW259103   7.082  11.287   6.443 -0.7944  0.4138  0.4680
50748SOL     OW59104  12.085  11.102   5.976  0.4381 -1.2744 -0.3524
50748SOL    HW159105  12.083  11.083   6.069  0.4784  0.8265  0.1228
50748SOL    HW259106  12.164  11.058   5.944 -0.1430 -2.9173  0.3306
50749SOL     OW59107   6.383   6.964  11.912 -0.1144 -0.1833 -0.0450
50749SOL    HW159108   6.295   6.962  11.874  0.0466  0.7578 -0.4795
50749SOL    HW259109   6.395   6.876  11.947 -1.3862 -0.2132  0.3765
50750SOL     OW59110   0.251   3.545   3.871  0.7685 -0.1478  0.1352
50750SOL    HW159111   0.207   3.507   3.795 -0.2618  0.8896  0.1886
50750SOL    HW259112   0.290   3.470   3.917 -1.3056 -1.1664  0.3121
50751SOL     OW59113   6.742   9.585   6.326  0.0320  0.0013 -0.2585
50751SOL    HW159114   6.658   9.621   6.297 -0.4098 -0.8183 -0.0086
50751SOL    HW259115   6.769   9.642   6.398  0.4036  1.1421 -1.2766
50752SOL     OW59116  11.702   9.791   8.084 -0.0152  0.1105 -0.0947
50752SOL    HW159117  11.773   9.794   8.020 -1.1587  0.5832 -1.3856
50752SOL    HW259118  11.646   9.865   8.062  0.9467  2.0261  3.2273
50753SOL     OW59119   7.336   8.345   8.299  0.0410  0.1087  0.0484
50753SOL    HW159120   7.275   8.328   8.371 -0.4288 -0.3218 -0.4435
50753SOL    HW259121   7.307   8.429   8.263 -0.7690 -0.4556 -0.6733
50754SOL     OW59122   8.541   1.778  12.087  0.3365  0.7080  0.1001
50754SOL    HW159123   8.520   1.725  12.010 -0.8091 -1.2717  1.6661
50754SOL    HW259124   8.456   1.799  12.126  0.9053  0.2251  1.7092
50755SOL     OW59125   5.834  10.728   0.691 -0.3125  0.1554  0.3330
50755SOL    HW159126   5.767  10.763   0.749 -0.6377  1.4330 -0.7913
50755SOL    HW259127   5.786  10.677   0.626  0.0209 -0.8935  0.8708
50756SOL     OW59128   3.533  11.187   3.448 -0.1730 -0.0495  0.1463
50756SOL    HW159129   3.480  11.118   3.408  0.6987 -1.5877  1.4890
50756SOL    HW259130   3.622  11.154   3.445  0.0682  0.2793  2.2315
50757SOL     OW59131  11.827   9.867   9.297 -0.3639 -0.0672  0.2777
50757SOL    HW159132  11.776   9.810   9.354  0.8492 -0.3346  1.1193
50757SOL    HW259133  11.803   9.839   9.208  1.3139 -2.9671  0.6394
50758SOL     OW59134   8.361   2.928   4.167 -0.6057  0.4102  0.8588
50758SOL    HW159135   8.272   2.958   4.146 -1.5172 -1.1018  2.3009
50758SOL    HW259136   8.373   2.849   4.115  0.8098  1.7576 -1.0023
50759SOL     OW59137   1.374   7.089  11.024 -0.6426 -0.0331  0.2583
50759SOL    HW159138   1.398   7.173  11.063 -0.8331  0.0880  0.1161
50759SOL    HW259139   1.321   7.045  11.091 -0.8408  0.1099  0.1960
50760SOL     OW59140   4.029   9.038  12.026 -0.0601 -0.3940  0.7051
50760SOL    HW159141   4.027   8.965  11.964 -0.0529  0.7909 -0.7467
50760SOL    HW259142   4.063   9.000  12.107 -0.3147 -2.0480  0.0741
50761SOL     OW59143  10.827   6.850   1.937 -0.1707 -0.3884  0.3563
50761SOL    HW159144  10.749   6.897   1.909 -0.5760 -0.6244  1.0775
50761SOL    HW259145  10.870   6.907   2.000 -1.1427 -1.3243  1.9260
50762SOL     OW59146  11.394  12.279  10.835 -0.0077  0.5595  0.1146
50762SOL    HW159147  11.437  12.338  10.773 -0.6677  0.2569 -0.6591
50762SOL    HW259148  11.345  12.337  10.894  1.9975  0.9494  1.4745
50763SOL     OW59149  11.209   6.803   2.821  0.1224  0.4639  0.3591
50763SOL    HW159150  11.193   6.710   2.804 -0.5564  0.3936  1.3055
50763SOL    HW259151  11.162   6.849   2.751 -0.2405  0.1129  0.3691
50764SOL     OW59152   1.072   1.260   1.598  0.5852 -0.4616 -0.1986
50764SOL    HW159153   1.120   1.178   1.597  0.9548 -0.3318  2.0765
50764SOL    HW259154   1.040   1.268   1.688 -1.1050  0.9511 -0.8577
50765SOL     OW59155   0.970   4.469   4.146 -0.6209  0.3007 -0.2527
50765SOL    HW159156   1.020   4.415   4.084 -1.3502  0.9927 -1.4817
50765SOL    HW259157   0.960   4.553   4.102 -2.6862  0.2572  0.0434
50766SOL     OW59158   7.132   9.928   6.896 -0.4411 -0.4272 -0.4398
50766SOL    HW159159   7.145   9.835   6.877  1.9864 -0.0991 -0.5880
50766SOL    HW259160   7.170   9.940   6.983 -0.0444  0.5818 -0.7464
50767SOL     OW59161   4.906   1.784  11.376 -0.5319  0.3173 -0.1155
50767SOL    HW159162   4.912   1.754  11.285 -0.6808  0.4427 -0.1675
50767SOL    HW259163   4.903   1.704  11.428 -0.0468  0.2427 -0.1925
50768SOL     OW59164   4.203   4.087   3.497 -0.0619 -0.3802 -0.0521
50768SOL    HW159165   4.210   3.994   3.520 -0.0175 -0.6598 -1.1473
50768SOL    HW259166   4.128   4.091   3.438 -0.3365  0.3586  0.3358
50769SOL     OW59167  10.692   4.724   3.507  0.6419 -0.7814  0.4171
50769SOL    HW159168  10.629   4.792   3.481 -1.2947 -1.5000  2.8473
50769SOL    HW259169  10.725   4.689   3.424 -0.6162  1.0254 -0.9256
50770SOL     OW59170   4.767   8.716   8.832 -0.4678  0.8803 -0.0625
50770SOL    HW159171   4.732   8.661   8.762  0.2401  0.5558 -0.1731
50770SOL    HW259172   4.732   8.803   8.815  0.3220  0.9733 -1.2844
50771SOL     OW59173   5.364  11.596   9.922  0.0774  0.1363 -0.1141
50771SOL    HW159174   5.278  11.577   9.959 -0.8655  1.7535 -1.3457
50771SOL    HW259175   5.406  11.511   9.914 -0.0736 -0.4092  3.5256
50772SOL     OW59176   7.253   2.682   6.683 -0.4763  0.5059 -0.0026
50772SOL    HW159177   7.209   2.661   6.766 -3.0278  0.5092 -1.2645
50772SOL    HW259178   7.273   2.597   6.644  1.0401  0.4998  0.7067
50773SOL     OW59179  12.367   5.847  10.193  0.1126  0.2452 -0.0355
50773SOL    HW159180  12.347   5.844  10.099 -1.5310 -0.5881  0.3163
50773SOL    HW259181  12.355   5.757  10.223 -1.3624  0.8673  1.3600
50774SOL     OW59182   8.560   4.698   5.610 -0.1329  0.3879 -0.0740
50774SOL    HW159183   8.511   4.636   5.664 -0.8787  0.2701 -0.8701
50774SOL    HW259184   8.513   4.780   5.620  0.7835  0.8267  0.8804
50775SOL     OW59185   0.936   3.414  11.124 -0.5970 -0.1148  0.3875
50775SOL    HW159186   0.919   3.350  11.055 -1.5524 -2.2163  2.4283
50775SOL    HW259187   0.875   3.486  11.106 -0.4357 -0.3516 -1.2357
50776SOL     OW59188   9.772   6.447  12.213 -0.0418  0.5286 -0.1139
50776SOL    HW159189   9.780   6.458  12.308  2.8311  2.2396 -0.4272
50776SOL    HW259190   9.719   6.521  12.185  0.7610  1.1714  0.0088
50777SOL     OW59191   6.552   8.610   5.428 -0.4896 -0.3357 -0.4583
50777SOL    HW159192   6.553   8.679   5.363 -1.0092 -2.4152 -2.8393
50777SOL    HW259193   6.500   8.540   5.388  1.6088 -2.8622  0.9153
50778SOL     OW59194   9.950   4.356   3.596 -0.3648  0.2099  0.2678
50778SOL    HW159195   9.884   4.418   3.625  0.1260  0.3954  1.0228
50778SOL    HW259196   9.906   4.271   3.598 -0.8439  0.4460 -0.1309
50779SOL     OW59197   4.402   4.865   5.331  0.0243 -0.5418 -0.0775
50779SOL    HW159198   4.331   4.929   5.337  1.0006  0.5003  0.7543
50779SOL    HW259199   4.375   4.807   5.260 -0.8326  0.8550 -0.9481
50780SOL     OW59200   8.185  11.427   9.066  0.6434  0.6486  0.1760
50780SOL    HW159201   8.132  11.395   8.994  1.0070 -0.7825  0.5180
50780SOL    HW259202   8.142  11.509   9.093 -1.0898 -0.1963  0.1195
50781SOL     OW59203   0.137   3.839   9.068 -0.0929 -0.0014 -0.2819
50781SOL    HW159204   0.175   3.825   8.981 -0.1282  0.3367 -0.3512
50781SOL    HW259205   0.201   3.892   9.115 -0.6816  0.9698 -0.5579
50782SOL     OW59206   7.290   4.684   2.537  0.4051 -0.0385  0.3421
50782SOL    HW159207   7.307   4.623   2.608  1.5927 -2.9024 -2.2050
50782SOL    HW259208   7.196   4.677   2.521  0.5864 -1.6234 -0.1968
50783SOL     OW59209   8.672   4.657   9.729 -0.2383 -0.2708 -0.0610
50783SOL    HW159210   8.723   4.720   9.678  0.5776 -2.3228 -1.9338
50783SOL    HW259211   8.720   4.648   9.811 -0.4421  1.5679  0.3122
50784SOL     OW59212   6.650  10.726   5.706  0.0502  0.1587  0.2461
50784SOL    HW159213   6.593  10.702   5.778 -1.7338  0.3838 -1.0125
50784SOL    HW259214   6.647  10.651   5.646 -0.3378  0.8511 -0.6356
50785SOL     OW59215   2.771   9.993   8.302  0.3588 -0.3552  0.1932
50785SOL    HW159216   2.783  10.010   8.209  1.2527  1.0629  0.5371
50785SOL    HW259217   2.860   9.987   8.337  0.1857  3.0615  1.5870
50786SOL     OW59218   7.820   3.054   4.227 -0.3042 -0.1236 -0.0539
50786SOL    HW159219   7.786   3.075   4.139  0.0808  1.2073  0.1030
50786SOL    HW259220   7.827   2.958   4.227  0.4055 -0.1092 -1.7460
50787SOL     OW59221   7.151   2.947   6.633  0.5181  0.2927 -0.0579
50787SOL    HW159222   7.060   2.946   6.603  1.0005 -0.7122 -1.6180
50787SOL    HW259223   7.157   2.873   6.694  0.1153  0.8408  0.6581
50788SOL     OW59224   5.406  11.824  12.209 -0.3037  0.0715 -0.7380
50788SOL    HW159225   5.465  11.809  12.136  1.6056  0.9307  0.5323
50788SOL    HW259226   5.323  11.786  12.182  1.2586 -2.8020 -1.9397
50789SOL     OW59227   0.678   4.236   0.893 -0.4957  0.1760  0.0010
50789SOL    HW159228   0.679   4.326   0.860 -1.0734  0.2200  0.0931
50789SOL    HW259229   0.635   4.242   0.978  0.3178 -0.0488  0.4350
50790SOL     OW59230   6.702  11.188   2.016 -0.2963 -0.1920  0.5233
50790SOL    HW159231   6.634  11.122   2.009 -0.8205  0.5151 -2.2873
50790SOL    HW259232   6.655  11.271   2.023  0.2178  0.2903 -1.3188
50791SOL     OW59233   7.747   7.096  11.727 -0.0228 -0.3948 -0.5842
50791SOL    HW159234   7.717   7.177  11.769  0.5639 -0.9763  1.0194
50791SOL    HW259235   7.822   7.123  11.673  0.2022  0.1264 -0.0173
50792SOL     OW59236  10.868   9.547   2.818  0.7095  0.5853 -0.1224
50792SOL    HW159237  10.815   9.581   2.890 -1.6748 -0.4728 -1.2786
50792SOL    HW259238  10.942   9.608   2.812 -1.0681  2.9633  0.7003
50793SOL     OW59239   9.794  11.452  10.750 -0.6726 -0.0090  0.5090
50793SOL    HW159240   9.886  11.450  10.724 -1.0585  0.9613 -1.0450
50793SOL    HW259241   9.788  11.386  10.819  0.5241 -2.4625 -1.5754
50794SOL     OW59242   8.506   4.649   9.110  0.2394  0.5029  0.3157
50794SOL    HW159243   8.413   4.668   9.098  0.2875  1.1603  0.9601
50794SOL    HW259244   8.517   4.641   9.205  1.0726  1.6478  0.3355
50795SOL     OW59245  10.392  10.735   1.224  0.4632  0.1672  0.4776
50795SOL    HW159246  10.371  10.819   1.264  0.3045  1.2812 -1.7757
50795SOL    HW259247  10.413  10.757   1.133  0.5031 -2.2290 -0.1476
50796SOL     OW59248   2.414  10.844   3.921  0.2060  0.0834  0.1324
50796SOL    HW159249   2.476  10.834   3.993  2.6533  1.8542 -1.5820
50796SOL    HW259250   2.414  10.938   3.901 -0.1527 -0.3598 -2.3383
50797SOL     OW59251   3.608   5.503   2.979  0.0924 -0.3070 -0.5690
50797SOL    HW159252   3.619   5.409   2.969  1.6594 -0.2620  0.3260
50797SOL    HW259253   3.596   5.536   2.889  1.9390 -1.1164 -1.1574
50798SOL     OW59254   6.076   9.720  11.986 -0.1075  0.0424  0.3536
50798SOL    HW159255   6.019   9.704  12.061 -1.1973  0.5069 -0.3466
50798SOL    HW259256   6.096   9.814  11.992 -1.9220  0.5822 -1.0497
50799SOL     OW59257  11.957   5.184   3.916  0.7195  0.2174  0.1395
50799SOL    HW159258  11.995   5.238   3.986  0.7508 -0.1040  0.3737
50799SOL    HW259259  12.014   5.107   3.912 -0.5752 -0.8649  1.3233
50800SOL     OW59260  11.592  10.957   4.275  0.3928  0.3310  0.0163
50800SOL    HW159261  11.602  11.050   4.295  0.2384  0.0729  1.4136
50800SOL    HW259262  11.632  10.913   4.349 -1.0901 -0.7154  0.2244
50801SOL     OW59263   2.447  10.179   4.490  0.0104 -0.2359  0.3021
50801SOL    HW159264   2.535  10.184   4.527 -0.8470  2.2994  2.2813
50801SOL    HW259265   2.402  10.115   4.545 -0.0845  0.3887  0.9620
50802SOL     OW59266   4.656   3.499   9.907  0.0058  0.7751  0.0592
50802SOL    HW159267   4.638   3.545   9.825  0.3609 -0.5718 -0.7963
50802SOL    HW259268   4.606   3.548   9.973 -2.5795  0.2540 -1.3725
50803SOL     OW59269   9.850  10.045  11.412  0.3396 -0.4279  0.1367
50803SOL    HW159270   9.837  10.103  11.487 -0.8511 -0.8676  0.2897
50803SOL    HW259271   9.940  10.063  11.384  1.0122 -0.6595  1.9975
50804SOL     OW59272   1.965  11.537   0.455 -0.5519 -0.3302 -0.0692
50804SOL    HW159273   2.020  11.480   0.401 -2.2822 -3.1852  0.9360
50804SOL    HW259274   2.012  11.545   0.538 -0.4888 -0.6297 -0.0761
50805SOL     OW59275   5.534   8.401   5.197 -0.0174  0.1818  0.7310
50805SOL    HW159276   5.605   8.350   5.159  0.7358  2.6066 -1.4636
50805SOL    HW259277   5.577   8.456   5.262  0.1141  1.3350 -0.2874
50806SOL     OW59278   1.082  10.095   9.207 -0.5501 -0.1890 -0.0553
50806SOL    HW159279   1.055  10.186   9.192 -0.4318 -0.1121  0.1908
50806SOL    HW259280   1.111  10.064   9.122  0.5806  0.3872  0.1062
50807SOL     OW59281   1.253   5.240   8.113  0.4383  0.0533 -0.3037
50807SOL    HW159282   1.186   5.173   8.128 -0.1196  1.1493  3.0697
50807SOL    HW259283   1.204   5.315   8.079  0.5562 -0.2679 -1.1901
50808SOL     OW59284   3.592   8.398   3.162  0.3181 -0.2957 -0.2232
50808SOL    HW159285   3.622   8.476   3.115  0.9320 -0.3032  0.1362
50808SOL    HW259286   3.508   8.376   3.122  0.0706  0.6300 -0.2400
50809SOL     OW59287   2.454   9.229   8.547 -0.0883 -0.3321  0.2640
50809SOL    HW159288   2.528   9.179   8.580 -0.3961 -0.0021  1.5277
50809SOL    HW259289   2.406   9.167   8.491  0.5899 -0.8468  0.2426
50810SOL     OW59290   9.458   9.845  11.567 -0.3912 -0.2934 -0.1357
50810SOL    HW159291   9.487   9.933  11.544 -0.8961 -0.0678  0.0643
50810SOL    HW259292   9.366   9.842  11.538  0.4485 -1.7955 -3.0228
50811SOL     OW59293   1.702   6.484   1.318 -0.1747 -0.0602 -0.5997
50811SOL    HW159294   1.722   6.397   1.283  0.9590 -0.4225  0.8197
50811SOL    HW259295   1.757   6.491   1.396  0.4191  2.2856 -1.1521
50812SOL     OW59296   7.579   8.598   8.881  0.6664  0.1682 -0.5402
50812SOL    HW159297   7.612   8.515   8.915 -1.2957 -0.1389  0.7509
50812SOL    HW259298   7.545   8.576   8.794 -0.1490 -0.4860 -0.0728
50813SOL     OW59299   1.312  11.528   3.288  0.1247 -0.0688  0.7048
50813SOL    HW159300   1.376  11.599   3.285  0.1862 -0.1488 -0.7457
50813SOL    HW259301   1.228  11.571   3.273  0.0634 -0.1870  0.7075
50814SOL     OW59302   2.122   6.460   0.803  0.2750 -0.1187  0.1343
50814SOL    HW159303   2.139   6.418   0.719 -0.1945 -0.1928  0.0733
50814SOL    HW259304   2.099   6.388   0.862 -0.1053 -0.0000  0.1386
50815SOL     OW59305  11.504   3.755   7.483  0.2839  0.0287 -0.0436
50815SOL    HW159306  11.498   3.798   7.567  1.1014  0.2099 -0.0671
50815SOL    HW259307  11.416   3.759   7.446  0.0788  0.5364  0.5076
50816SOL     OW59308   0.334  10.598   5.269 -0.0022 -0.3807 -0.0070
50816SOL    HW159309   0.401  10.541   5.232  0.7919 -1.2007  2.4919
50816SOL    HW259310   0.382  10.672   5.306 -0.0979 -1.8328  3.4063
50817SOL     OW59311   9.527   4.612   3.269  0.0207 -0.6660  0.3828
50817SOL    HW159312   9.603   4.619   3.327  1.2530 -0.2991 -1.2094
50817SOL    HW259313   9.500   4.521   3.275  2.0961 -1.4333 -0.7880
50818SOL     OW59314  10.382   4.480   6.366  0.0731 -0.2227 -0.2371
50818SOL    HW159315  10.355   4.529   6.288  3.4089 -0.2657 -1.5629
50818SOL    HW259316  10.410   4.395   6.332 -0.1304 -0.9276  1.2976
50819SOL     OW59317  10.605  11.472   3.962 -0.1512 -0.3185 -0.1698
50819SOL    HW159318  10.638  11.409   4.026  1.9193  0.5521 -0.3262
50819SOL    HW259319  10.545  11.528   4.013  0.2152 -0.6354  0.6346
50820SOL     OW59320   0.710   6.109   3.103 -0.7013  0.3295  0.4056
50820SOL    HW159321   0.653   6.146   3.036  1.2753  3.6740  0.3182
50820SOL    HW259322   0.793   6.092   3.057 -0.1602  0.0348  1.4549
50821SOL     OW59323   6.963   3.626  11.642  0.0504 -0.0683  0.4901
50821SOL    HW159324   7.056   3.610  11.624 -0.1408 -0.5593 -0.1414
50821SOL    HW259325   6.957   3.719  11.664  0.7150 -0.0771  0.7108
50822SOL     OW59326   6.104  10.868   0.160 -0.1823  0.1679  0.0612
50822SOL    HW159327   6.163  10.941   0.181 -0.9085  1.5776 -2.3769
50822SOL    HW259328   6.083  10.880   0.068 -1.5754 -2.2963 -0.0376
50823SOL     OW59329   3.297   5.168   1.712  0.3726  0.0879 -0.0584
50823SOL    HW159330   3.256   5.098   1.763  1.9641 -0.5743  0.3736
50823SOL    HW259331   3.359   5.122   1.654  0.6469  1.0617 -0.5622
50824SOL     OW59332   8.021   6.507   0.265 -0.0325 -0.9160 -0.0634
50824SOL    HW159333   8.018   6.553   0.348  1.1267 -0.6609 -0.1514
50824SOL    HW259334   7.931   6.478   0.250 -0.4677  0.0021  0.7242
50825SOL     OW59335   2.871   8.271   9.499 -0.0234 -0.1088  0.3938
50825SOL    HW159336   2.878   8.176   9.507 -2.1240 -0.2907  0.4959
50825SOL    HW259337   2.955   8.303   9.531  0.5587 -1.9081  0.8045
50826SOL     OW59338  10.656   6.540   3.245 -0.5384  0.5323  0.2280
50826SOL    HW159339  10.644   6.479   3.318 -1.2336 -0.0968 -0.3953
50826SOL    HW259340  10.719   6.496   3.187 -0.4590  0.7485  0.1494
50827SOL     OW59341   3.202   9.993   7.101 -0.2180 -0.2468 -0.0368
50827SOL    HW159342   3.238   9.950   7.024  1.5333 -1.7259  1.5076
50827SOL    HW259343   3.277  10.004   7.160 -1.4522  1.0077  1.3949
50828SOL     OW59344  11.402  10.048   5.307  0.2071 -0.3295  0.1879
50828SOL    HW159345  11.466  10.017   5.372 -0.0485 -1.1251  0.0784
50828SOL    HW259346  11.364  10.126   5.347 -0.3611 -1.1296  1.2753
50829SOL     OW59347  10.111   6.204   3.435 -0.3315 -0.2211 -0.0484
50829SOL    HW159348  10.161   6.243   3.507 -1.6408 -0.5802  1.0999
50829SOL    HW259349  10.056   6.275   3.402  0.5980  0.0658 -1.0401
50830SOL     OW59350   9.442  10.843   7.404 -0.0182 -0.5990 -0.0648
50830SOL    HW159351   9.377  10.896   7.358  0.3767 -1.8340 -2.1806
50830SOL    HW259352   9.501  10.906   7.443 -2.9517  0.6314  2.8797
50831SOL     OW59353   5.484   2.309   6.636  0.3394 -0.4325  0.1395
50831SOL    HW159354   5.493   2.266   6.551  0.2751  1.1180 -0.7025
50831SOL    HW259355   5.391   2.329   6.643  0.6814  1.8803 -0.7655
50832SOL     OW59356   2.339  10.965   1.700  0.3484 -0.4244 -0.0866
50832SOL    HW159357   2.389  11.043   1.725 -0.3979  0.0164  0.0799
50832SOL    HW259358   2.392  10.891   1.730  0.4108  0.0553  1.0241
50833SOL     OW59359   9.938   1.129   6.421  0.9089  0.1507  0.1408
50833SOL    HW159360   9.897   1.139   6.335  0.8180  2.3379  0.3708
50833SOL    HW259361   9.887   1.187   6.478  0.9960 -1.2206  1.6740
50834SOL     OW59362  11.862   9.035   6.253 -0.0292  0.2010 -0.0516
50834SOL    HW159363  11.776   8.994   6.246  0.6243 -1.6505  1.9535
50834SOL    HW259364  11.920   8.966   6.284  1.9086  1.7687  0.0343
50835SOL     OW59365  10.736  12.262   9.246  0.3340  0.4729  0.1675
50835SOL    HW159366  10.761  12.174   9.275  0.6635  1.0548  1.7649
50835SOL    HW259367  10.820  12.304   9.225  0.1728  0.4109 -0.6455
50836SOL     OW59368   2.911   5.322   6.683 -0.0094 -0.2304  0.0557
50836SOL    HW159369   2.907   5.376   6.761  2.0636 -0.2085  0.2153
50836SOL    HW259370   2.907   5.232   6.715 -1.2837 -0.2140 -0.0216
50837SOL     OW59371   1.272  10.822   1.877  0.1937  0.5126 -0.1266
50837SOL    HW159372   1.322  10.852   1.801 -0.9944 -2.3909 -2.2919
50837SOL    HW259373   1.331  10.761   1.922 -0.2435 -0.5074 -0.8758
50838SOL     OW59374   1.900  11.812   0.857 -0.0693  0.7319  0.0394
50838SOL    HW159375   1.948  11.835   0.778 -0.5098  1.0870 -0.1318
50838SOL    HW259376   1.968  11.797   0.923  0.3490 -0.9325 -0.7415
50839SOL     OW59377  11.295   3.692   8.788 -0.3438 -0.2141  0.4998
50839SOL    HW159378  11.342   3.715   8.707  0.1529  0.8138  1.0634
50839SOL    HW259379  11.302   3.770   8.842 -1.3192 -0.6371  1.2488
50840SOL     OW59380  10.364  10.321   9.479 -0.2080 -0.2262 -0.3144
50840SOL    HW159381  10.415  10.305   9.558  1.1600  0.0754 -1.1016
50840SOL    HW259382  10.372  10.415   9.464 -0.4873 -0.2749 -0.7901
50841SOL     OW59383   0.202  10.422  10.448  0.7164  0.5080  0.0633
50841SOL    HW159384   0.253  10.345  10.474  1.6744  0.9970 -0.3003
50841SOL    HW259385   0.267  10.492  10.444 -0.1463  1.3393  0.4093
50842SOL     OW59386   4.031   7.674   7.528 -0.0284  0.0572  0.2627
50842SOL    HW159387   4.112   7.702   7.487 -0.1449  0.9614  0.6304
50842SOL    HW259388   4.023   7.728   7.607 -0.9508 -0.0623  0.2740
50843SOL     OW59389   9.064   2.717   7.807 -0.3731 -0.0810 -0.0398
50843SOL    HW159390   9.098   2.806   7.816 -0.6681 -0.0805  1.2191
50843SOL    HW259391   9.136   2.669   7.766 -0.4577  0.8703 -1.3575
50844SOL     OW59392   3.235   3.256  10.389  0.1102  0.2070  0.0905
50844SOL    HW159393   3.329   3.241  10.398  0.1558  1.0857  1.3468
50844SOL    HW259394   3.196   3.169  10.402  0.5655  0.3654  3.8727
50845SOL     OW59395   7.702   2.840   1.238 -0.7260 -0.2753  0.0583
50845SOL    HW159396   7.710   2.745   1.234 -1.4352 -0.3397  0.1401
50845SOL    HW259397   7.731   2.863   1.326  1.4648 -0.1970 -0.6211
50846SOL     OW59398   4.484   9.162   5.807 -0.2914 -0.3557 -0.0951
50846SOL    HW159399   4.563   9.120   5.838  0.4035  0.3448 -0.8555
50846SOL    HW259400   4.481   9.246   5.853 -0.6527 -0.4251  0.0142
50847SOL     OW59401   4.400  11.670   7.831 -0.1855 -0.0109 -0.3466
50847SOL    HW159402   4.339  11.634   7.767 -0.2556  0.9459 -0.8389
50847SOL    HW259403   4.470  11.709   7.779  1.1724 -1.5917  0.2241
50848SOL     OW59404   4.881   9.594   2.919  0.3115  0.3647 -0.0109
50848SOL    HW159405   4.843   9.598   2.831  0.8707 -0.4638 -0.2997
50848SOL    HW259406   4.813   9.552   2.972  1.3967 -2.8121 -0.9052
50849SOL     OW59407  10.351  11.124   1.520  0.2826  0.4033  0.2131
50849SOL    HW159408  10.418  11.182   1.485 -0.2741  1.0593  0.2008
50849SOL    HW259409  10.385  11.096   1.605 -0.1777  2.1335  1.0129
50850SOL     OW59410   2.605   2.002   3.042  0.2984  0.5126 -0.0418
50850SOL    HW159411   2.672   2.070   3.029  0.5515  0.4040  0.6342
50850SOL    HW259412   2.654   1.927   3.077 -0.1144  0.2867  0.0611
50851SOL     OW59413   6.380   6.434   2.819  0.8662 -0.1140  1.2418
50851SOL    HW159414   6.378   6.460   2.727  2.2011 -1.5828  0.7379
50851SOL    HW259415   6.394   6.515   2.867 -1.0673  0.8504  0.2732
50852SOL     OW59416   1.043   3.306   0.291 -0.5152 -0.1627 -0.4928
50852SOL    HW159417   1.006   3.307   0.203 -0.4157 -1.2997 -0.5665
50852SOL    HW259418   1.035   3.396   0.322 -0.1231  0.3603 -1.8372
50853SOL     OW59419   9.985  10.595  11.889 -1.0024  0.6629 -0.0697
50853SOL    HW159420  10.053  10.566  11.950 -0.0896  0.3156 -1.2249
50853SOL    HW259421   9.925  10.646  11.943 -1.4660 -1.5176  1.5801
50854SOL     OW59422   1.722  11.561   1.469  0.1403 -0.3389 -0.3599
50854SOL    HW159423   1.731  11.512   1.388  0.0410  0.1374 -0.6611
50854SOL    HW259424   1.634  11.597   1.466  0.2607 -0.0263 -0.2018
50855SOL     OW59425   8.262   4.764   8.996 -0.3761 -0.2060 -0.2337
50855SOL    HW159426   8.243   4.783   9.088 -1.8387 -0.2135 -0.5145
50855SOL    HW259427   8.192   4.807   8.947 -1.3258 -2.6177 -1.1459
50856SOL     OW59428   3.486   7.664  12.014  0.2287 -0.1737 -0.5915
50856SOL    HW159429   3.503   7.573  11.990 -0.7714  0.2156 -3.0081
50856SOL    HW259430   3.393   7.666  12.036  0.4435  0.1237  0.3696
50857SOL     OW59431   7.287  11.231  10.275 -0.6317 -0.1021 -0.7168
50857SOL    HW159432   7.270  11.137  10.283  1.6853 -0.4385  2.4693
50857SOL    HW259433   7.352  11.239  10.205 -0.7897 -0.8983 -0.9544
50858SOL     OW59434   1.083   2.978   2.775 -0.0991  0.3324  0.4177
50858SOL    HW159435   1.161   3.030   2.795  0.6499  0.4872 -2.4113
50858SOL    HW259436   1.117   2.902   2.727 -1.6702  0.9283 -1.8396
50859SOL     OW59437   4.389   2.052   0.834  0.0254  0.0196 -0.9187
50859SOL    HW159438   4.384   2.134   0.883 -0.0596 -0.5862  0.1195
50859SOL    HW259439   4.482   2.031   0.831  0.0163 -0.0294 -0.8619
50860SOL     OW59440   0.399   8.821   1.639  0.0815 -0.1118 -0.3881
50860SOL    HW159441   0.396   8.752   1.705 -1.5881  0.6121  0.3448
50860SOL    HW259442   0.311   8.822   1.601  0.2547  1.2148 -0.8101
50861SOL     OW59443   6.456  12.057  11.678  0.4888  0.0019  0.1826
50861SOL    HW159444   6.436  12.150  11.683  0.8262  0.1525 -1.0707
50861SOL    HW259445   6.384  12.015  11.726  0.3632  0.8932  0.8063
50862SOL     OW59446   7.655  11.515   9.861 -0.2889 -0.2357  0.4284
50862SOL    HW159447   7.703  11.479   9.787  0.7236 -0.5877  1.2319
50862SOL    HW259448   7.673  11.455   9.933  0.1559  1.0063  1.4002
50863SOL     OW59449   5.485   6.340   3.213 -0.4648 -0.4299  0.7809
50863SOL    HW159450   5.527   6.287   3.145  0.0554  0.7013  0.1945
50863SOL    HW259451   5.544   6.333   3.288  0.4993  0.6664  0.1557
50864SOL     OW59452   0.919  10.068   3.546  0.4403 -0.4850  0.0878
50864SOL    HW159453   0.957  10.010   3.611 -1.1633 -0.3857  1.1897
50864SOL    HW259454   0.826  10.047   3.547  0.0614  1.0175 -0.6147
50865SOL     OW59455   4.570   3.431   8.748  0.2618  0.7146 -0.3333
50865SOL    HW159456   4.527   3.488   8.812 -1.5716  0.1782 -1.0427
50865SOL    HW259457   4.503   3.413   8.682  1.5744 -0.1973 -1.4702
50866SOL     OW59458  12.013   4.273  10.901 -0.1860 -0.1239  0.0234
50866SOL    HW159459  11.964   4.236  10.827  0.5540 -0.5778 -0.2516
50866SOL    HW259460  12.009   4.368  10.888 -0.5128 -0.1802 -0.2991
50867SOL     OW59461   5.061   6.258   1.016  0.1198  0.5403  0.1162
50867SOL    HW159462   5.042   6.343   1.057  2.2678  0.8244  0.6389
50867SOL    HW259463   5.034   6.193   1.081  0.9373  0.9244  0.8633
50868SOL     OW59464   5.058  12.392  10.134 -0.6624 -0.2540 -0.1146
50868SOL    HW159465   5.023  12.388  10.045 -2.9984 -0.6206  0.7296
50868SOL    HW259466   5.111  12.471  10.136  1.9080 -1.7161 -2.5739
50869SOL     OW59467   3.523   5.268   4.738 -0.2458 -0.9015 -0.2160
50869SOL    HW159468   3.604   5.224   4.764 -1.0508 -1.9809  0.5911
50869SOL    HW259469   3.549   5.357   4.715  0.8415 -0.4279  2.5286
50870SOL     OW59470  11.554   9.269   2.106  0.4022 -0.3980 -0.4726
50870SOL    HW159471  11.505   9.333   2.159 -1.6458 -2.1001 -0.1588
50870SOL    HW259472  11.645   9.284   2.130  0.0108  2.2036 -0.2329
50871SOL     OW59473   6.361   4.751   8.243  1.1380  0.2013  0.5277
50871SOL    HW159474   6.274   4.721   8.270  1.2551 -1.3737 -0.7319
50871SOL    HW259475   6.347   4.842   8.214 -0.1896 -0.1861 -0.1154
50872SOL     OW59476   8.824   9.980   1.867  0.1506 -0.6341  0.2362
50872SOL    HW159477   8.749   9.926   1.843  0.2437 -1.5207  1.7788
50872SOL    HW259478   8.798  10.070   1.845 -2.0722 -0.6940  2.2016
50873SOL     OW59479   3.921   3.704   9.777  0.1245  0.4738 -1.2935
50873SOL    HW159480   3.932   3.611   9.758  1.2319  0.4606 -0.6832
50873SOL    HW259481   3.840   3.709   9.826  0.8312 -0.3997  0.0317
50874SOL     OW59482   3.900   2.052   1.009 -0.1196 -0.3678  0.1128
50874SOL    HW159483   3.968   2.024   0.948  0.4909 -1.4916  1.2435
50874SOL    HW259484   3.880   2.142   0.985  1.3049 -0.2367 -0.6634
50875SOL     OW59485   3.462  10.017   9.825  0.3178 -0.2438  0.1286
50875SOL    HW159486   3.538  10.055   9.781  0.7938  0.0219  1.1622
50875SOL    HW259487   3.428   9.952   9.763  0.8842  0.2258 -0.6820
50876SOL     OW59488   1.364   5.372   4.910 -0.2500  0.0328  0.0783
50876SOL    HW159489   1.369   5.410   4.822  2.2350  0.3198  0.2760
50876SOL    HW259490   1.420   5.294   4.906 -0.2596 -0.0660  1.3436
50877SOL     OW59491   2.456  11.893  10.934  0.7467 -0.1790 -0.0541
50877SOL    HW159492   2.536  11.853  10.969 -0.5851 -0.3736  3.0935
50877SOL    HW259493   2.399  11.819  10.914  1.0610 -0.0195 -1.6135
50878SOL     OW59494   2.405   9.337   5.869 -0.2731  0.2827  0.1818
50878SOL    HW159495   2.382   9.247   5.849  1.1059 -0.4101  1.4882
50878SOL    HW259496   2.330   9.370   5.919 -0.0117 -0.7934  1.3544
50879SOL     OW59497   7.366   5.899   6.950  0.0312  0.0102  0.2250
50879SOL    HW159498   7.444   5.953   6.962 -0.0560  0.1446  0.1927
50879SOL    HW259499   7.351   5.900   6.855 -0.6106  0.8458  0.3221
50880SOL     OW59500   6.488   8.249  12.094  0.2507 -0.7872  0.2011
50880SOL    HW159501   6.492   8.153  12.091  1.1323 -0.9720  3.4656
50880SOL    HW259502   6.564   8.275  12.146 -0.5870  1.6049  0.3740
50881SOL     OW59503  10.984  12.128   6.756 -0.6463 -0.7561 -0.5191
50881SOL    HW159504  11.037  12.126   6.836  0.6811  0.1379 -1.3429
50881SOL    HW259505  11.041  12.091   6.688  0.0529  2.6941 -2.0104
50882SOL     OW59506  11.038  12.386   8.561 -0.6029 -0.0299  0.1900
50882SOL    HW159507  10.972  12.330   8.521 -1.5047  1.2764 -0.2361
50882SOL    HW259508  11.113  12.382   8.501 -1.1676  0.2737 -0.5508
50883SOL     OW59509   0.468   4.878   5.763 -0.0379  0.4399 -0.4266
50883SOL    HW159510   0.468   4.956   5.707  0.4931  0.8121  0.0736
50883SOL    HW259511   0.558   4.872   5.795  1.1437 -2.7738 -3.6989
50884SOL     OW59512   8.512  10.925   3.902  0.3556 -0.0821  0.1800
50884SOL    HW159513   8.603  10.935   3.875  0.2448 -0.4890 -0.3783
50884SOL    HW259514   8.503  10.832   3.923  0.8599  0.4965  3.3316
50885SOL     OW59515   9.167   2.558   6.981  0.2317  0.2683  0.0089
50885SOL    HW159516   9.125   2.642   6.996 -1.7420 -0.2778 -1.9398
50885SOL    HW259517   9.235   2.577   6.916 -0.9569  0.2478 -1.3005
50886SOL     OW59518   2.832  11.442   3.848  0.4029 -0.1505  0.1721
50886SOL    HW159519   2.881  11.373   3.893 -0.1452 -1.8285 -1.6726
50886SOL    HW259520   2.863  11.439   3.757 -0.5459  1.1973 -0.2419
50887SOL     OW59521   1.019   7.666   2.551 -0.4106 -0.1716  0.4466
50887SOL    HW159522   1.060   7.712   2.478 -1.2975 -1.2726 -0.7901
50887SOL    HW259523   1.086   7.665   2.620  0.1534  1.6041 -0.0184
50888SOL     OW59524   5.633   5.225   9.207  0.5545 -0.4766 -0.0293
50888SOL    HW159525   5.717   5.187   9.231  1.1694  1.3552  0.9095
50888SOL    HW259526   5.642   5.246   9.114  1.6833  0.9291  0.3606
50889SOL     OW59527  10.979   4.029  10.513  0.4934  0.4581 -0.1115
50889SOL    HW159528  10.965   4.085  10.589  1.1733  2.1298 -1.1560
50889SOL    HW259529  11.064   3.989  10.528  0.3942  0.3777  0.2439
50890SOL     OW59530   6.848   6.218   7.180  0.1518 -0.4795 -0.0952
50890SOL    HW159531   6.930   6.263   7.198  0.3109 -0.9235  0.3088
50890SOL    HW259532   6.864   6.170   7.099 -0.6214  1.6613 -1.6071
50891SOL     OW59533  10.231  11.310  12.332 -0.2373 -0.2088  0.2308
50891SOL    HW159534  10.295  11.244  12.307  0.7014  0.7924 -0.0723
50891SOL    HW259535  10.165  11.308  12.263  0.4331  0.0270 -0.4184
50892SOL     OW59536   8.081   3.659   0.736 -0.0913  0.8087  0.5568
50892SOL    HW159537   7.992   3.678   0.708 -0.5207  0.6216  1.7326
50892SOL    HW259538   8.076   3.573   0.776  0.9230  0.1581 -0.6409
50893SOL     OW59539   0.055   7.721   1.299  0.3264 -0.2863 -0.1346
50893SOL    HW159540   0.125   7.708   1.363 -0.7677  0.5240  1.2752
50893SOL    HW259541  -0.025   7.723   1.351 -0.6449 -0.0233 -1.5841
50894SOL     OW59542  11.071   2.907   8.808 -0.1707 -0.1597 -0.3675
50894SOL    HW159543  11.129   2.944   8.741  1.5342 -0.1482  1.0156
50894SOL    HW259544  10.997   2.872   8.759 -0.2743  2.1236 -2.0184
50895SOL     OW59545   6.629   0.706   4.707  0.5712 -0.2927 -0.4342
50895SOL    HW159546   6.609   0.743   4.622  0.4470  0.5282 -0.0519
50895SOL    HW259547   6.552   0.653   4.729 -0.3478  1.2177  0.1203
50896SOL     OW59548   5.238   4.966   2.867 -0.5236 -0.2007  0.4847
50896SOL    HW159549   5.209   5.034   2.806 -0.7851 -0.8376 -0.1079
50896SOL    HW259550   5.193   4.887   2.838  0.6011 -0.8690  0.4987
50897SOL     OW59551   2.049   4.504   4.075  0.4674 -0.5810 -0.0311
50897SOL    HW159552   2.023   4.479   3.986 -1.9020 -0.2480  0.4832
50897SOL    HW259553   2.088   4.591   4.064 -2.1149  0.6343 -0.5789
50898SOL     OW59554   1.630  12.258   9.847  0.3448 -0.2068  0.1461
50898SOL    HW159555   1.669  12.274   9.761 -0.2653  0.5230  0.0007
50898SOL    HW259556   1.706  12.244   9.905  0.9407  2.2030  0.0775
50899SOL     OW59557   0.983   4.917   0.895  0.2505  0.2755 -0.5652
50899SOL    HW159558   0.952   4.998   0.855 -0.7869  0.6233  0.8667
50899SOL    HW259559   1.036   4.946   0.969 -0.5307 -0.3443  0.2507
50900SOL     OW59560   4.251  11.629  10.685  0.2130  0.0002 -0.4483
50900SOL    HW159561   4.327  11.644  10.740 -0.8314  0.1209  1.0286
50900SOL    HW259562   4.240  11.711  10.637  1.5307 -0.3423 -1.3862
50901SOL     OW59563   6.704   2.694   8.063  0.1595 -0.4739 -0.5304
50901SOL    HW159564   6.624   2.704   8.113 -0.2203  0.2667 -1.2683
50901SOL    HW259565   6.710   2.774   8.010  1.4758 -0.4329 -0.3498
50902SOL     OW59566   1.990   9.436   7.398  0.7342 -0.2979 -0.6779
50902SOL    HW159567   2.032   9.409   7.316  2.8579  0.3920  0.1033
50902SOL    HW259568   2.039   9.390   7.466  2.3781  2.8775  0.4841
50903SOL     OW59569   6.875   7.706  10.624 -0.2531 -0.6146  0.0192
50903SOL    HW159570   6.967   7.691  10.606  0.1434  2.1366 -0.8525
50903SOL    HW259571   6.858   7.660  10.706  1.3745 -2.6762 -0.7194
50904SOL     OW59572   5.280  10.305   6.784 -0.1601 -0.2672 -0.5516
50904SOL    HW159573   5.279  10.223   6.735 -1.1276 -0.2809 -0.5290
50904SOL    HW259574   5.208  10.356   6.747 -0.3337  0.0813  0.2457
50905SOL     OW59575   8.813   4.020   6.959 -0.3419  0.9381 -0.6044
50905SOL    HW159576   8.788   4.033   6.867  0.0359  0.3512 -0.7977
50905SOL    HW259577   8.731   4.030   7.008 -0.7252  0.3012 -1.1023
50906SOL     OW59578  11.139   9.129  11.742  0.2434  0.0531 -0.5166
50906SOL    HW159579  11.157   9.204  11.685  0.5309 -1.4564 -2.5569
50906SOL    HW259580  11.045   9.114  11.734  0.2684 -0.1052 -0.5366
50907SOL     OW59581  11.716   2.317   7.484 -0.0996  0.1516  0.8937
50907SOL    HW159582  11.671   2.400   7.499 -1.7169 -0.3070 -1.0290
50907SOL    HW259583  11.682   2.285   7.400  0.8658 -2.1941  1.2959
50908SOL     OW59584   9.902   2.575  11.452  0.4690  0.0832  0.6406
50908SOL    HW159585   9.807   2.586  11.456  0.0942 -1.2857 -2.1579
50908SOL    HW259586   9.936   2.665  11.449 -0.5316  0.6427  3.3882
50909SOL     OW59587   8.462   0.414   9.935  0.6104  0.6043  0.2275
50909SOL    HW159588   8.472   0.508   9.916 -0.0108  0.8491  1.0402
50909SOL    HW259589   8.527   0.397  10.003  1.1215  0.3028 -0.3272
50910SOL     OW59590  12.294  10.763   3.470 -0.2634  0.0326  0.6474
50910SOL    HW159591  12.226  10.701   3.496 -0.4488  0.4339  1.1482
50910SOL    HW259592  12.370  10.738   3.522 -0.3764  0.3019  0.9431
50911SOL     OW59593   4.877   4.143  10.886  0.3545  0.4927  0.6670
50911SOL    HW159594   4.811   4.084  10.922 -0.3769 -1.5393 -3.4285
50911SOL    HW259595   4.957   4.122  10.935 -0.5403 -1.9449  1.2445
50912SOL     OW59596  11.919  10.439  10.707  0.0431  0.2641  0.2154
50912SOL    HW159597  11.926  10.531  10.729  0.6190  0.0194  1.0653
50912SOL    HW259598  12.009  10.410  10.693  0.4432 -1.2544  4.5654
50913SOL     OW59599   8.874   9.180   0.981  0.5004 -0.2732 -0.0392
50913SOL    HW159600   8.832   9.146   0.902 -0.1181 -2.2443  1.0681
50913SOL    HW259601   8.802   9.217   1.033  0.8810  0.8834 -0.3179
50914SOL     OW59602   3.993   5.659   4.713  0.1559  0.0212  0.5437
50914SOL    HW159603   4.068   5.602   4.693  0.8294  1.2068 -0.4440
50914SOL    HW259604   4.031   5.747   4.718 -1.3493  0.8459 -1.3000
50915SOL     OW59605   2.941   7.144   2.682 -0.3968 -0.4533 -0.6805
50915SOL    HW159606   3.023   7.170   2.724 -0.7514  1.5837 -1.1365
50915SOL    HW259607   2.963   7.133   2.590 -0.1867 -2.2324 -0.4506
50916SOL     OW59608   3.700   6.610   9.579 -0.9648 -0.3086  0.1543
50916SOL    HW159609   3.637   6.676   9.606 -0.5925  0.0767  0.0894
50916SOL    HW259610   3.766   6.658   9.529 -0.2670 -0.5883  0.7694
50917SOL     OW59611   8.777   5.848   8.578 -0.5299 -0.0165  0.4217
50917SOL    HW159612   8.695   5.800   8.582 -1.0749  0.9306  1.3262
50917SOL    HW259613   8.803   5.859   8.670 -0.9063  2.1432  0.3259
50918SOL     OW59614   4.461   8.877   8.996  0.4989 -0.3657  0.2493
50918SOL    HW159615   4.445   8.896   9.089  1.0636 -1.4441  0.5779
50918SOL    HW259616   4.521   8.803   8.996 -0.1482 -0.9335 -0.9811
50919SOL     OW59617  10.724   9.915  11.680 -0.4256  0.3115 -0.2031
50919SOL    HW159618  10.786   9.842  11.672  2.8586  2.6778  0.9746
50919SOL    HW259619  10.711   9.945  11.590  1.0291  0.3524 -0.4317
50920SOL     OW59620  10.987   0.343   0.991 -0.2547 -0.5484  0.1213
50920SOL    HW159621  11.003   0.327   1.084 -0.3249 -1.8251 -0.0624
50920SOL    HW259622  10.894   0.369   0.987 -0.1577 -0.1399  0.4344
50921SOL     OW59623   5.617  10.138   9.132  0.4351 -0.0480 -0.1133
50921SOL    HW159624   5.545  10.138   9.194 -0.5233 -3.6707 -0.9638
50921SOL    HW259625   5.577  10.122   9.046  2.0173  0.9383 -1.1068
50922SOL     OW59626  11.010   2.513   0.819  0.5807  0.2223  0.1236
50922SOL    HW159627  10.979   2.491   0.907  1.7254 -1.8825  0.0693
50922SOL    HW259628  11.106   2.510   0.826  0.8390 -3.7387 -1.8805
50923SOL     OW59629   0.224   7.279  11.984  0.3038  0.2601 -0.2798
50923SOL    HW159630   0.230   7.211  11.917 -0.1677  1.4230 -1.5605
50923SOL    HW259631   0.225   7.231  12.067  0.1294 -1.2854 -1.1244
50924SOL     OW59632   7.834   2.550   9.765 -0.1694  0.1844 -0.4600
50924SOL    HW159633   7.869   2.612   9.829  0.5518  0.8246 -1.4504
50924SOL    HW259634   7.758   2.595   9.727 -0.1226  0.1282 -0.6200
50925SOL     OW59635  10.995   6.927   6.011  0.2805  0.0285 -0.2511
50925SOL    HW159636  10.998   6.833   6.032 -0.6070 -0.3587 -1.7237
50925SOL    HW259637  10.968   6.930   5.919 -2.3815  1.7806  0.4631
50926SOL     OW59638  10.341  10.421   7.804 -0.7444  0.3184 -0.2094
50926SOL    HW159639  10.250  10.419   7.834 -0.9874  0.3371 -0.9183
50926SOL    HW259640  10.338  10.469   7.722 -0.2950 -0.7463 -0.8724
50927SOL     OW59641   1.362  11.152  11.200  0.1521 -0.1296  0.4852
50927SOL    HW159642   1.431  11.090  11.220  0.0943 -0.3409  0.0546
50927SOL    HW259643   1.305  11.105  11.138  0.1276  0.3639  0.1290
50928SOL     OW59644   9.855   4.177   9.630  0.9207  0.3543  0.8347
50928SOL    HW159645   9.823   4.211   9.713 -0.1797  1.0354  0.1494
50928SOL    HW259646   9.836   4.246   9.567  1.2352 -0.3832 -0.0801
50929SOL     OW59647   2.582  11.893   6.015  0.2836 -0.4197  0.0702
50929SOL    HW159648   2.667  11.888   5.970 -0.7841 -0.5445 -2.0902
50929SOL    HW259649   2.567  11.987   6.028  0.8427 -0.4097  0.6531
50930SOL     OW59650   0.039   1.903   4.868  0.6554 -0.2829 -0.7166
50930SOL    HW159651   0.017   1.994   4.849 -0.7775 -0.6397 -0.8410
50930SOL    HW259652  -0.014   1.881   4.945  0.5512 -1.1856 -1.0377
50931SOL     OW59653   9.520  10.616   3.164  0.7125 -0.2172  0.3542
50931SOL    HW159654   9.510  10.522   3.177  1.3240 -0.2816  0.3927
50931SOL    HW259655   9.558  10.648   3.245  2.0195 -0.1999 -0.2435
50932SOL     OW59656   0.526   4.651   6.412 -0.5060  0.0805 -0.0286
50932SOL    HW159657   0.511   4.658   6.318  1.8169  1.3840 -0.3799
50932SOL    HW259658   0.481   4.571   6.438 -1.3351 -0.2184 -2.2055
50933SOL     OW59659   5.437   1.691  10.717  0.1653  0.4161  0.0818
50933SOL    HW159660   5.456   1.653  10.632 -1.1328 -1.1740  0.4571
50933SOL    HW259661   5.522   1.720  10.750  0.9843 -0.7988 -0.8867
50934SOL     OW59662   7.355   6.851   8.636 -0.2111  0.1656 -0.3802
50934SOL    HW159663   7.423   6.814   8.692  0.3729  0.8105 -0.6465
50934SOL    HW259664   7.380   6.827   8.547  1.8862  3.6249 -0.9035
50935SOL     OW59665   5.350   0.956   2.487  0.3123 -0.6807  0.5666
50935SOL    HW159666   5.294   1.025   2.451 -0.2880 -2.1402 -1.4544
50935SOL    HW259667   5.439   0.985   2.466  0.0701 -0.5235 -0.2851
50936SOL     OW59668  10.095   3.736  11.578 -0.4569 -0.3898  0.5910
50936SOL    HW159669  10.066   3.757  11.667 -0.7337 -0.2579  0.4712
50936SOL    HW259670  10.052   3.802  11.523 -1.2999 -1.2290  0.2116
50937SOL     OW59671   2.530   1.208   9.686 -0.0455  0.0269 -0.4136
50937SOL    HW159672   2.486   1.280   9.641  2.8342  0.5907 -2.5818
50937SOL    HW259673   2.606   1.188   9.631  0.8670 -2.7371  1.6434
50938SOL     OW59674   5.923  12.391   8.378 -0.3104  0.1697  0.1770
50938SOL    HW159675   5.918  12.482   8.347 -0.0755  0.0403 -0.2382
50938SOL    HW259676   6.014  12.380   8.406 -0.5661  0.3527  1.1393
50939SOL     OW59677   4.907   6.251   6.641 -0.3085 -0.1453 -0.0315
50939SOL    HW159678   4.828   6.202   6.664  0.7322 -1.2418  1.3846
50939SOL    HW259679   4.924   6.307   6.717 -0.4187  1.0742 -0.8657
50940SOL     OW59680   9.734   2.974   1.740 -0.8659 -0.0686  0.2493
50940SOL    HW159681   9.705   3.060   1.710 -0.5631 -0.0598 -0.0200
50940SOL    HW259682   9.829   2.977   1.733 -0.7198  0.1847  1.8865
50941SOL     OW59683   9.695   1.310   1.684  1.0005  0.9294  0.1116
50941SOL    HW159684   9.652   1.395   1.681  2.3365  1.6156 -0.4771
50941SOL    HW259685   9.675   1.269   1.600  0.6219  0.7958  0.2662
50942SOL     OW59686  11.707   8.371   6.966  0.3849  0.5032  0.1381
50942SOL    HW159687  11.723   8.287   6.923 -0.7906  0.5193 -0.3762
50942SOL    HW259688  11.753   8.435   6.913  0.4635  0.2990 -0.0422
50943SOL     OW59689   4.357   7.746   6.375 -0.2492 -0.7570 -0.4454
50943SOL    HW159690   4.433   7.800   6.394 -1.4179  0.7594  0.2064
50943SOL    HW259691   4.381   7.696   6.298  1.0204  0.5019 -0.9083
50944SOL     OW59692   4.648   7.971   0.160  0.0485 -0.2270  0.2661
50944SOL    HW159693   4.613   8.033   0.096  0.7250  0.6775  0.7470
50944SOL    HW259694   4.585   7.899   0.161 -0.6040  0.3191 -0.5160
50945SOL     OW59695   0.200  11.940   4.144  0.4732 -0.3263  0.1748
50945SOL    HW159696   0.256  12.015   4.124  0.5788 -0.6396 -0.7601
50945SOL    HW259697   0.171  11.909   4.059 -2.7936  1.0386  0.6519
50946SOL     OW59698   1.058   9.336   3.711 -0.0857  0.3522  0.3534
50946SOL    HW159699   0.972   9.296   3.722  0.1860 -0.5108 -0.5634
50946SOL    HW259700   1.069   9.344   3.616  0.9240  0.2589  0.4522
50947SOL     OW59701   2.592   0.563  10.651 -0.8051  0.1024  0.1325
50947SOL    HW159702   2.587   0.475  10.687  3.8399 -0.2069  0.5647
50947SOL    HW259703   2.589   0.621  10.727 -0.4119  0.0511  0.1915
50948SOL     OW59704   5.871  11.283   9.253 -0.3853  0.3961 -0.0151
50948SOL    HW159705   5.891  11.331   9.173 -0.7370 -1.0982 -1.0346
50948SOL    HW259706   5.852  11.194   9.224  2.0188 -0.8844  1.9809
50949SOL     OW59707   2.197   1.938  11.680  0.1705  0.2341 -0.1631
50949SOL    HW159708   2.135   2.010  11.666 -2.2065 -1.8098 -0.9646
50949SOL    HW259709   2.274   1.962  11.628 -0.5568  2.1289 -0.4597
50950SOL     OW59710   6.420  12.011   1.644 -0.2895 -0.0530  0.3180
50950SOL    HW159711   6.515  12.005   1.652 -0.2712  1.1585  1.2559
50950SOL    HW259712   6.398  12.099   1.675 -1.7997 -0.5740  0.8373
50951SOL     OW59713   9.737   8.106   1.550  0.1332  0.2238 -0.0222
50951SOL    HW159714   9.756   8.143   1.636 -1.6669 -1.1481  1.0418
50951SOL    HW259715   9.681   8.171   1.507 -0.4184  0.1428  0.5628
50952SOL     OW59716   3.045   5.788   3.258 -0.3185 -0.5938 -0.4590
50952SOL    HW159717   2.950   5.789   3.246 -0.6297 -0.7060  1.5676
50952SOL    HW259718   3.059   5.737   3.338  1.3139  0.7468  0.1855
50953SOL     OW59719  11.353   7.448  12.443  0.0401  0.1620  0.2157
50953SOL    HW159720  11.421   7.451  12.376 -0.1539  1.7327  0.0363
50953SOL    HW259721  11.391   7.396  12.514 -0.5450 -3.4564 -1.8770
50954SOL     OW59722   7.054   9.245  10.464 -0.3507 -0.2872  0.6175
50954SOL    HW159723   7.012   9.315  10.415  0.3583  0.8803  1.6144
50954SOL    HW259724   6.983   9.184  10.486 -0.9643  0.0853 -0.3002
50955SOL     OW59725   1.564  10.500   2.673  0.3261  0.1620  0.0766
50955SOL    HW159726   1.552  10.459   2.759  0.6426 -0.8645 -0.3543
50955SOL    HW259727   1.556  10.428   2.611 -0.6070  1.0053 -0.8128
50956SOL     OW59728   2.481   2.857  12.126 -0.0515 -0.3291 -0.6205
50956SOL    HW159729   2.472   2.891  12.215 -0.2851  0.8135 -1.0683
50956SOL    HW259730   2.551   2.793  12.132 -0.4059 -0.6341  0.4877
50957SOL     OW59731   9.772  11.069   6.865 -0.4776  0.2559 -0.1247
50957SOL    HW159732   9.697  11.121   6.896 -0.0070  1.4726 -0.9861
50957SOL    HW259733   9.813  11.123   6.799  0.2329 -1.1023 -0.8240
50958SOL     OW59734   1.755   5.913  11.801  0.5702 -0.3077 -0.0035
50958SOL    HW159735   1.776   6.005  11.783 -1.9249  0.6315  1.4036
50958SOL    HW259736   1.825   5.884  11.860  1.3958  0.6582 -0.4704
50959SOL     OW59737   5.929   0.103   8.786 -0.1602  0.2079 -0.6209
50959SOL    HW159738   5.839   0.123   8.814 -0.5886 -2.6316  0.3061
50959SOL    HW259739   5.928   0.010   8.765  2.3021  0.3708 -1.8722
50960SOL     OW59740   6.831   5.116   4.978 -0.3935 -0.1077  0.4641
50960SOL    HW159741   6.887   5.047   5.013  0.1860  0.7870  1.3460
50960SOL    HW259742   6.827   5.182   5.047  0.4613  1.5465 -0.9897
50961SOL     OW59743   4.330   8.294   1.756  0.2595 -0.2519 -0.0803
50961SOL    HW159744   4.374   8.370   1.717 -0.2763  0.2730  0.3260
50961SOL    HW259745   4.389   8.220   1.737  1.2475  0.4101  0.3191
50962SOL     OW59746   1.408   5.367   9.426  0.2318 -0.0261 -0.3824
50962SOL    HW159747   1.331   5.320   9.397  0.9591 -2.0253  0.7155
50962SOL    HW259748   1.479   5.303   9.421  1.4355  1.1810  0.4353
50963SOL     OW59749  10.231   2.013   1.090 -0.0142  0.0573 -0.0472
50963SOL    HW159750  10.199   2.102   1.073  0.6076  0.0348 -1.4149
50963SOL    HW259751  10.179   1.984   1.166 -2.3455  0.4872 -1.3710
50964SOL     OW59752   5.328   3.032   2.589 -0.3395  0.4065  0.0995
50964SOL    HW159753   5.296   2.978   2.661  1.5902  1.0553  1.5053
50964SOL    HW259754   5.381   2.972   2.536 -2.0340 -0.1570 -1.0743
50965SOL     OW59755   5.031   3.006   0.446 -0.0294 -0.1547  0.0620
50965SOL    HW159756   5.038   3.097   0.475  0.3579  0.7509 -2.6040
50965SOL    HW259757   5.120   2.970   0.457  0.2227  0.3107 -0.4266
50966SOL     OW59758   7.587   3.664   0.226 -0.4998 -0.2847 -0.0034
50966SOL    HW159759   7.657   3.616   0.270  1.0587  1.5305 -0.3700
50966SOL    HW259760   7.591   3.752   0.263 -2.1443  0.0592 -0.5526
50967SOL     OW59761   1.473   4.827   4.826  0.0016  0.3309  0.3399
50967SOL    HW159762   1.426   4.870   4.898  0.9824  1.3297  0.4073
50967SOL    HW259763   1.550   4.788   4.867  0.8575  1.3709 -0.2238
50968SOL     OW59764   4.924   7.584   9.433  0.2363  0.2820 -0.1668
50968SOL    HW159765   4.867   7.623   9.366  1.1839  1.1481 -0.5076
50968SOL    HW259766   4.888   7.615   9.516 -1.0946 -0.9937 -0.2206
50969SOL     OW59767  11.637   3.059   0.514  0.6662  0.3436 -0.3392
50969SOL    HW159768  11.723   3.032   0.547 -0.2731 -0.1492  1.8460
50969SOL    HW259769  11.578   2.988   0.540 -0.8460  1.8036  0.4101
50970SOL     OW59770   2.188   6.513   9.652 -0.1158  0.0540  0.2424
50970SOL    HW159771   2.220   6.525   9.563  0.2628 -0.4379  0.3013
50970SOL    HW259772   2.228   6.584   9.702  1.4415 -0.9014  0.4365
50971SOL     OW59773   7.949   5.648   3.239  0.3858 -0.1266  0.4287
50971SOL    HW159774   7.924   5.684   3.325 -1.2836 -0.2597  0.0460
50971SOL    HW259775   8.009   5.577   3.260  1.0579  0.7076  1.4014
50972SOL     OW59776   6.936   9.458   2.363  0.4239 -1.0208  0.0591
50972SOL    HW159777   6.986   9.424   2.289  1.8123  0.0190  0.4702
50972SOL    HW259778   6.869   9.391   2.380  1.0302 -1.9757 -1.1654
50973SOL     OW59779   9.414   4.828  10.424 -0.3964 -0.1406  0.3721
50973SOL    HW159780   9.504   4.833  10.455 -0.1186  1.5034 -0.6149
50973SOL    HW259781   9.368   4.778  10.491  1.1401 -0.6096  1.1087
50974SOL     OW59782   5.676   0.328  12.345 -0.4204 -0.4365 -0.5327
50974SOL    HW159783   5.692   0.292  12.432  1.2695  1.8197  0.1942
50974SOL    HW259784   5.625   0.407  12.361 -0.2151 -0.0614 -1.6081
50975SOL     OW59785  12.318   2.327  11.841  0.2033  0.1929 -0.1732
50975SOL    HW159786  12.353   2.317  11.752  0.2895  2.3862 -0.4253
50975SOL    HW259787  12.345   2.415  11.868 -0.2337 -0.2469  1.8573
50976SOL     OW59788   3.085   4.592   1.729 -0.0032  0.2550  0.1838
50976SOL    HW159789   3.144   4.528   1.770 -0.6098 -0.9557 -0.7728
50976SOL    HW259790   3.032   4.626   1.801  0.1722 -0.4935  0.6750
50977SOL     OW59791   6.199   9.775  10.550 -0.0567  0.0237  0.1028
50977SOL    HW159792   6.269   9.840  10.549 -0.6514  0.6788 -0.7420
50977SOL    HW259793   6.173   9.767  10.459 -0.2699 -1.1130  0.2548
50978SOL     OW59794   2.853   2.170   3.950 -0.2339 -0.5260 -0.0161
50978SOL    HW159795   2.852   2.150   3.856 -2.7906  1.6537 -0.5804
50978SOL    HW259796   2.764   2.152   3.979  0.7658 -2.0922  2.2964
50979SOL     OW59797   6.925   6.099   4.318  0.6132 -0.4457  0.3531
50979SOL    HW159798   6.975   6.171   4.356  0.7194 -1.2119  1.7239
50979SOL    HW259799   6.882   6.057   4.393  1.5642 -2.5776 -0.2080
50980SOL     OW59800   5.430  11.772   4.270  0.0502  0.9653 -0.6953
50980SOL    HW159801   5.518  11.807   4.258  0.5824 -0.3555 -0.7599
50980SOL    HW259802   5.426  11.695   4.214 -1.3978  1.3979 -1.2446
50981SOL     OW59803   3.095   3.531   6.671  0.1743  0.1039  0.9023
50981SOL    HW159804   3.147   3.466   6.624 -0.2805  0.8534 -0.6933
50981SOL    HW259805   3.028   3.480   6.716  0.1602 -0.5760  0.1269
50982SOL     OW59806   9.344  11.326  11.511 -0.2764  0.3349  0.4726
50982SOL    HW159807   9.342  11.356  11.420  1.4611 -0.1878  0.2207
50982SOL    HW259808   9.306  11.238  11.507  0.4322  0.0317  0.1023
50983SOL     OW59809   4.314   2.450   0.462 -0.2695  0.2403 -0.2055
50983SOL    HW159810   4.345   2.450   0.553 -1.0137  0.9911  0.0592
50983SOL    HW259811   4.377   2.395   0.416  1.5887  1.8163  0.2775
50984SOL     OW59812   8.925   6.097   9.980  0.0170 -0.0085  0.3882
50984SOL    HW159813   9.014   6.130   9.969 -0.4635  1.8931  1.7006
50984SOL    HW259814   8.871   6.176   9.990 -1.9823 -1.0734 -1.2743
50985SOL     OW59815   6.710  11.283   4.471  0.1460 -0.4199 -0.2569
50985SOL    HW159816   6.625  11.284   4.428 -0.0339 -1.0704  0.0657
50985SOL    HW259817   6.725  11.191   4.493  0.2050 -0.1063  1.1075
50986SOL     OW59818  11.187  12.455  11.607 -0.5453 -0.1092 -0.7931
50986SOL    HW159819  11.234  12.535  11.585 -0.1365 -0.5457 -1.5393
50986SOL    HW259820  11.150  12.472  11.694 -1.1095  1.1631 -1.2631
50987SOL     OW59821   7.261   0.888   9.976  0.1298  0.0294  0.1914
50987SOL    HW159822   7.338   0.923  10.020 -0.6531  2.9143 -0.4928
50987SOL    HW259823   7.199   0.868  10.046  0.1435  1.3267  0.5993
50988SOL     OW59824   1.055   9.949   8.283 -0.2316  0.1778 -0.2749
50988SOL    HW159825   1.046  10.011   8.356  0.6279  0.3877 -0.3370
50988SOL    HW259826   1.076   9.866   8.325 -0.3787  0.1522 -0.2511
50989SOL     OW59827   9.726   7.392   6.375  0.4436  0.2581  0.7484
50989SOL    HW159828   9.786   7.318   6.370 -1.7865 -1.5584 -1.7575
50989SOL    HW259829   9.663   7.367   6.443  0.5563  0.5902  0.9773
50990SOL     OW59830  11.248   7.138   9.693  0.4731 -0.5412  0.6991
50990SOL    HW159831  11.170   7.091   9.721  0.0273  0.0982  0.5538
50990SOL    HW259832  11.284   7.175   9.774 -0.3672  0.6325  0.5674
50991SOL     OW59833   4.775   7.983   7.721 -0.4786 -0.7159  0.1532
50991SOL    HW159834   4.863   7.966   7.756 -1.2035 -0.7294  2.1264
50991SOL    HW259835   4.790   8.031   7.640  1.3942  2.6244  2.2123
50992SOL     OW59836   1.122   8.421   6.569  0.2081  0.1372  0.0020
50992SOL    HW159837   1.099   8.413   6.477 -0.6154  2.1866 -0.0194
50992SOL    HW259838   1.210   8.385   6.575 -0.9361 -3.0867 -0.9107
50993SOL     OW59839   3.468  11.850   7.149  0.3800  0.1117 -0.0363
50993SOL    HW159840   3.462  11.773   7.206 -1.9424  1.5819  1.8960
50993SOL    HW259841   3.521  11.912   7.199 -0.0946  0.7667 -0.3408
50994SOL     OW59842  11.816   6.406   9.326 -0.3416  0.1165 -0.0767
50994SOL    HW159843  11.730   6.426   9.288 -0.3204 -0.0256 -0.2026
50994SOL    HW259844  11.877   6.464   9.281 -0.4632  0.6789  0.4744
50995SOL     OW59845   8.567   5.163   9.208 -0.1136  0.5517  0.4172
50995SOL    HW159846   8.523   5.079   9.220 -0.5801  1.0631  2.7272
50995SOL    HW259847   8.593   5.163   9.115 -1.4732 -1.4347 -0.0337
50996SOL     OW59848   3.754   2.835   4.770  0.2643 -0.1171  0.3112
50996SOL    HW159849   3.794   2.827   4.857  1.4202 -0.1513 -0.2080
50996SOL    HW259850   3.714   2.922   4.770 -0.6873 -0.5252  1.2454
50997SOL     OW59851   4.559   7.233   1.840 -0.1585  0.3384 -0.0358
50997SOL    HW159852   4.595   7.250   1.753  1.7883  0.1456  0.6848
50997SOL    HW259853   4.617   7.166   1.877 -0.7789  0.6286  1.5146
50998SOL     OW59854   4.318   7.012  10.178  0.1350  0.0551 -0.0199
50998SOL    HW159855   4.303   6.928  10.134  1.8940 -0.0098 -0.5648
50998SOL    HW259856   4.278   7.001  10.264  0.1934 -1.2831 -0.1337
50999SOL     OW59857   9.395   2.639   4.070 -0.1303 -0.6425  0.0215
50999SOL    HW159858   9.460   2.696   4.111  0.0289 -0.1534 -0.8785
50999SOL    HW259859   9.314   2.656   4.118  0.4554 -1.5105  1.3803
51000SOL     OW59860  12.248   0.948   1.873 -0.0578  0.3215  0.4853
51000SOL    HW159861  12.264   0.896   1.795  1.0798  0.4652  0.6044
51000SOL    HW259862  12.197   0.891   1.930 -0.1392 -0.0993 -0.0020
51001SOL     OW59863   9.421   1.254  12.437  0.6411 -0.1305  0.0265
51001SOL    HW159864   9.465   1.334  12.409  0.9598 -0.5480 -0.7040
51001SOL    HW259865   9.363   1.232  12.365  2.3387 -1.8698 -0.9275
51002SOL     OW59866  10.797   2.878  10.217 -0.6026  0.1122  0.0778
51002SOL    HW159867  10.851   2.932  10.274 -1.1643  1.6333 -0.7824
51002SOL    HW259868  10.860   2.829  10.164 -0.0630 -1.8081  2.3492
51003SOL     OW59869   2.595   4.102   6.554  0.0162  0.0802 -0.0042
51003SOL    HW159870   2.681   4.109   6.595 -0.5352 -0.2062  1.2348
51003SOL    HW259871   2.613   4.104   6.460  1.3794 -0.0956  0.2403
51004SOL     OW59872   7.338   9.516   9.785  0.5186 -0.4237 -0.0292
51004SOL    HW159873   7.329   9.424   9.761  0.3280  0.0847 -2.0889
51004SOL    HW259874   7.384   9.514   9.869 -1.5762 -2.4475  1.2096
51005SOL     OW59875   9.552   6.254   4.268  0.9562 -0.3383  0.0783
51005SOL    HW159876   9.556   6.178   4.210 -0.9087 -0.6737  0.3099
51005SOL    HW259877   9.578   6.328   4.213  0.0541 -0.7703 -0.9710
51006SOL     OW59878   9.255   8.075  11.533  0.1892 -0.0547 -0.7383
51006SOL    HW159879   9.225   8.107  11.618 -0.2563 -3.1860  0.4131
51006SOL    HW259880   9.175   8.056  11.484  0.3338 -1.6624 -0.4110
51007SOL     OW59881   6.843   1.325  11.664  0.3985  0.4697 -0.7624
51007SOL    HW159882   6.858   1.397  11.724  0.3945 -0.0306 -0.1529
51007SOL    HW259883   6.925   1.276  11.663  0.6647  0.9129 -1.7759
51008SOL     OW59884   4.357  12.068  10.673 -0.4084 -0.3633  0.0601
51008SOL    HW159885   4.314  12.138  10.721  2.5488  0.8658  1.1606
51008SOL    HW259886   4.408  12.113  10.605  1.3683 -1.4050  0.6368
51009SOL     OW59887  11.482   2.856   4.737 -1.1643  0.1369  0.1152
51009SOL    HW159888  11.523   2.927   4.786  0.1976 -0.0021 -0.7492
51009SOL    HW259889  11.427   2.811   4.800  0.7742 -0.2460  1.6140
51010SOL     OW59890   7.918  11.267   5.281 -0.4705  0.9822  0.3858
51010SOL    HW159891   7.961  11.208   5.343 -1.6826 -1.6876 -1.1443
51010SOL    HW259892   7.973  11.264   5.203 -0.1935  2.4653  0.5021
51011SOL     OW59893   3.811   3.309   8.530 -0.3083  0.1015 -0.0442
51011SOL    HW159894   3.749   3.251   8.486 -2.6109  1.0975  1.6625
51011SOL    HW259895   3.813   3.277   8.620 -0.6377  1.8320  0.6166
51012SOL     OW59896   0.971  11.199   8.003  0.4373  0.1701 -0.6010
51012SOL    HW159897   0.903  11.179   8.067  0.6933  1.3215  0.0729
51012SOL    HW259898   0.924  11.216   7.921  0.0129 -0.2006 -0.4307
51013SOL     OW59899   0.353   4.399  10.866 -0.7067  0.0891  0.1167
51013SOL    HW159900   0.345   4.364  10.777 -2.9798  0.4115  0.1167
51013SOL    HW259901   0.376   4.323  10.919 -0.2656 -0.2985 -0.6078
51014SOL     OW59902   3.811   1.718   0.497 -0.1430  0.4448 -0.3488
51014SOL    HW159903   3.768   1.645   0.452  1.4653 -0.0391 -1.1896
51014SOL    HW259904   3.763   1.726   0.580 -1.9744  0.1184 -1.3054
51015SOL     OW59905   7.801   1.125   4.023 -0.4212 -0.1654  0.2885
51015SOL    HW159906   7.727   1.185   4.023  0.6442  1.1803  0.0128
51015SOL    HW259907   7.833   1.124   3.933 -0.4943 -1.2622  0.2510
51016SOL     OW59908   0.075   7.580  11.547  0.2114  0.0845  0.5662
51016SOL    HW159909   0.075   7.488  11.575 -0.8781 -0.4039 -0.9241
51016SOL    HW259910   0.001   7.619  11.593 -1.4747 -0.6764 -1.3676
51017SOL     OW59911   7.169   3.898   5.161 -0.2940  0.1485  0.2386
51017SOL    HW159912   7.108   3.903   5.234 -1.0087 -0.2223 -0.3209
51017SOL    HW259913   7.164   3.807   5.132 -1.4770  0.7066 -1.4844
51018SOL     OW59914  10.773  12.004  11.205  0.1955  0.0260 -0.5237
51018SOL    HW159915  10.753  12.098  11.211  0.0781 -0.0932  1.7667
51018SOL    HW259916  10.742  11.979  11.117 -1.2893  1.7861 -0.5726
51019SOL     OW59917   5.290  12.111   5.810 -0.2856 -0.2621 -0.2301
51019SOL    HW159918   5.282  12.162   5.730  0.5270 -0.5184 -0.4899
51019SOL    HW259919   5.356  12.044   5.790 -0.3858 -0.6022  0.5104
51020SOL     OW59920   6.413   1.602   9.001  0.3168  0.1632 -0.2120
51020SOL    HW159921   6.419   1.536   8.932 -0.7131 -0.2329  0.0708
51020SOL    HW259922   6.473   1.671   8.972  0.9673 -0.6163 -0.8007
51021SOL     OW59923   3.182  11.602  11.468  0.8152 -0.3194 -0.1287
51021SOL    HW159924   3.225  11.517  11.476  0.9570 -0.1035  1.7652
51021SOL    HW259925   3.088  11.581  11.469  0.8217 -0.3739  1.9102
51022SOL     OW59926   8.156   9.219   7.467  0.3315  0.5759 -0.8312
51022SOL    HW159927   8.230   9.181   7.514 -0.2418  1.0473  0.4941
51022SOL    HW259928   8.147   9.307   7.503  0.0794  1.0936 -2.0854
51023SOL     OW59929   3.995   9.811   4.584 -0.5707  0.1720 -0.2656
51023SOL    HW159930   3.907   9.787   4.554 -0.2465 -0.0975 -1.0226
51023SOL    HW259931   4.035   9.853   4.508  0.1270 -0.1471 -0.0779
51024SOL     OW59932  11.505   4.745  11.953  0.6421  0.1021 -0.0377
51024SOL    HW159933  11.506   4.729  12.047 -0.4200 -1.3059 -0.2244
51024SOL    HW259934  11.589   4.712  11.922  1.5107  1.6877  0.5499
51025SOL     OW59935   4.687   2.695   1.957  0.0782 -0.9522  0.5320
51025SOL    HW159936   4.654   2.772   1.911  1.3843 -1.0096 -0.5689
51025SOL    HW259937   4.620   2.628   1.945 -0.6125 -0.2990  0.6574
51026SOL     OW59938   5.309   2.501   7.620 -0.4295  0.1011 -0.4927
51026SOL    HW159939   5.361   2.425   7.647 -0.3587  0.1700 -0.4352
51026SOL    HW259940   5.293   2.488   7.527 -0.5994 -0.0944 -0.4382
51027SOL     OW59941   4.902   7.502   5.557  0.0017 -0.2887 -0.1405
51027SOL    HW159942   4.870   7.522   5.645 -1.9325  1.6748 -1.1933
51027SOL    HW259943   4.986   7.548   5.551  0.3856 -0.8493  0.8319
51028SOL     OW59944  12.462   5.794   0.812  0.0931 -0.4093  0.1750
51028SOL    HW159945  12.472   5.727   0.744  0.0470 -2.2062  1.8293
51028SOL    HW259946  12.544   5.842   0.812  0.5280 -1.1320 -0.4101
51029SOL     OW59947  10.447  10.553  11.583 -0.3485  0.6120  0.2125
51029SOL    HW159948  10.525  10.498  11.577 -0.1234  0.5840  2.5367
51029SOL    HW259949  10.479  10.637  11.615 -0.9134  1.6365 -1.7545
51030SOL     OW59950   7.064  11.975  12.231 -0.0322  0.1900 -0.1621
51030SOL    HW159951   7.070  12.062  12.270  1.4316  0.2464 -0.4521
51030SOL    HW259952   7.069  11.991  12.137  0.2013 -0.2026 -0.2186
51031SOL     OW59953   7.526  10.553   2.797 -0.4718 -0.3462 -0.0536
51031SOL    HW159954   7.611  10.560   2.839 -0.3256  1.3539 -0.5521
51031SOL    HW259955   7.513  10.459   2.785  2.8954 -0.6274 -3.0724
51032SOL     OW59956   1.454   6.746   1.716 -0.1544  0.0274 -0.1109
51032SOL    HW159957   1.380   6.807   1.713 -1.7275 -1.8026  0.1208
51032SOL    HW259958   1.424   6.674   1.771  1.2628 -1.5004 -1.2489
51033SOL     OW59959   6.061   9.548   8.749  0.1896  0.0010 -0.1414
51033SOL    HW159960   5.979   9.573   8.705 -0.8883 -1.9518  0.6006
51033SOL    HW259961   6.086   9.466   8.706  1.6411  0.4224 -0.1543
51034SOL     OW59962   8.449   7.035   0.295 -0.2106 -0.0998 -0.3895
51034SOL    HW159963   8.473   7.097   0.226 -0.1606 -0.5497 -0.7857
51034SOL    HW259964   8.413   7.090   0.365 -0.5896  0.3419 -0.9116
51035SOL     OW59965   8.988   0.377   6.222 -0.7542  0.1140  0.7403
51035SOL    HW159966   9.011   0.436   6.295 -0.8930 -0.0553  0.9229
51035SOL    HW259967   9.067   0.373   6.169 -0.3331 -0.5133  1.3963
51036SOL     OW59968   9.559  11.618   1.317  0.1783  0.7639 -0.0340
51036SOL    HW159969   9.637  11.563   1.310 -1.5123 -1.5654 -1.8894
51036SOL    HW259970   9.528  11.604   1.407  0.5841 -0.1569 -0.0310
51037SOL     OW59971  10.050   7.477  11.565 -0.1143  0.5222 -0.6047
51037SOL    HW159972  10.074   7.526  11.643  0.8145  0.6665 -0.9631
51037SOL    HW259973  10.023   7.545  11.502  0.2359  0.4974 -0.7821
51038SOL     OW59974   3.690   4.513  10.146  0.1283  0.7461  0.1772
51038SOL    HW159975   3.642   4.587  10.111  0.5955  1.7890  1.6476
51038SOL    HW259976   3.743   4.481  10.073  1.1746  2.9120 -0.0773
51039SOL     OW59977   0.446   4.075   0.224  0.0481  0.6931 -0.0267
51039SOL    HW159978   0.361   4.037   0.246 -0.5946  0.9418 -1.9278
51039SOL    HW259979   0.447   4.077   0.129  1.6013  2.0235 -0.0109
51040SOL     OW59980  10.491   0.115   9.051  0.3936 -0.2335  0.0206
51040SOL    HW159981  10.466   0.069   8.971  2.3149 -1.4007  0.0402
51040SOL    HW259982  10.448   0.066   9.122  0.2135 -0.3270 -0.1527
51041SOL     OW59983   5.389   3.814   1.694 -0.3362  0.1061 -0.1255
51041SOL    HW159984   5.313   3.760   1.713 -1.1507  0.6886 -1.5639
51041SOL    HW259985   5.374   3.845   1.604 -0.4511  3.6200  0.9805
51042SOL     OW59986   7.054   6.546  10.182 -0.1388  0.3362  0.0679
51042SOL    HW159987   7.056   6.491  10.104  0.4947  1.7652 -0.9850
51042SOL    HW259988   7.036   6.634  10.148  1.4689  1.2219  1.3823
51043SOL     OW59989   5.335   4.098   7.128 -0.2951  0.5568  0.0406
51043SOL    HW159990   5.423   4.112   7.095 -0.3369  0.8392  0.0495
51043SOL    HW259991   5.329   4.154   7.206  0.1545 -0.8589  1.1410
51044SOL     OW59992   9.317   1.074  12.030 -0.3072  0.3224  0.5105
51044SOL    HW159993   9.402   1.047  12.064 -1.7657 -2.7221  2.2033
51044SOL    HW259994   9.333   1.097  11.939  2.8422  3.3717  1.6428
51045SOL     OW59995   3.459  10.128  10.790 -0.5198  0.2420 -0.1431
51045SOL    HW159996   3.436  10.036  10.772  0.9260  0.1397 -1.6259
51045SOL    HW259997   3.552  10.134  10.771 -1.1234  2.6911 -3.1376
51046SOL     OW59998   9.088   2.292   7.633  0.0758 -0.7223 -0.9329
51046SOL    HW159999   9.056   2.211   7.594 -1.3652 -0.2256 -0.8756
51046SOL    HW260000   9.047   2.361   7.580  0.8078 -0.0348 -0.6230
51047SOL     OW60001   1.458   6.546  10.987 -0.2592 -0.1609  0.2008
51047SOL    HW160002   1.373   6.550  11.030 -1.2575 -0.5427 -1.6484
51047SOL    HW260003   1.491   6.636  10.990 -0.2313 -0.1857  1.7829
51048SOL     OW60004   6.889   6.067   5.019 -0.3013 -0.0091 -0.1965
51048SOL    HW160005   6.824   6.004   4.985  0.1798 -0.1227 -0.9350
51048SOL    HW260006   6.943   6.015   5.079 -0.0634 -0.2538 -0.6107
51049SOL     OW60007  10.763   8.475   2.455  0.2276  0.1625  0.0181
51049SOL    HW160008  10.818   8.518   2.389  0.5360  0.0879  0.2267
51049SOL    HW260009  10.817   8.404   2.488  0.2184  0.4393  0.6336
51050SOL     OW60010  11.827   4.682   1.665  0.5739 -0.2401 -0.1299
51050SOL    HW160011  11.802   4.754   1.723  1.1082 -1.0788  1.1954
51050SOL    HW260012  11.863   4.616   1.724  0.2330 -1.5388 -1.3253
51051SOL     OW60013  11.552   6.766  12.133 -0.5025 -0.0110  0.5868
51051SOL    HW160014  11.458   6.756  12.145 -0.5201  0.7182  1.0737
51051SOL    HW260015  11.561   6.839  12.072 -0.2167  1.2073  2.0373
51052SOL     OW60016   6.953  12.393  12.194  0.5101 -0.1348 -0.0640
51052SOL    HW160017   6.912  12.477  12.170  0.7091  0.6257  2.0862
51052SOL    HW260018   6.981  12.405  12.285 -1.8816 -3.4473  1.2681
51053SOL     OW60019   9.461   7.648   5.057  0.0288 -0.3526  0.2430
51053SOL    HW160020   9.520   7.592   5.107 -1.1715 -1.9422 -0.0031
51053SOL    HW260021   9.489   7.638   4.967 -1.3976 -2.2719 -0.0609
51054SOL     OW60022   7.113   0.626  12.054 -0.4785 -0.8945 -0.2807
51054SOL    HW160023   7.169   0.549  12.047  1.6152  0.4693  0.2738
51054SOL    HW260024   7.125   0.656  12.145  2.2089  2.3618 -1.4659
51055SOL     OW60025   8.645   6.814   9.565  0.8038  0.1650  0.0029
51055SOL    HW160026   8.637   6.781   9.475 -1.6015  1.5972 -0.3830
51055SOL    HW260027   8.572   6.775   9.612  1.8996 -0.3714  1.3200
51056SOL     OW60028   1.045   6.048   1.127 -0.2212  0.4848 -0.3544
51056SOL    HW160029   1.021   6.045   1.035 -0.9281 -1.2031 -0.1485
51056SOL    HW260030   0.962   6.051   1.175  0.1351  1.3590  0.2503
51057SOL     OW60031   4.026   6.121   3.085  0.1238  0.0612  0.1441
51057SOL    HW160032   3.964   6.074   3.029  2.3380 -2.3332 -0.4564
51057SOL    HW260033   3.977   6.136   3.166 -1.9489  0.3109 -1.0744
51058SOL     OW60034   1.173   5.682  12.189  0.2670  0.4202  0.1723
51058SOL    HW160035   1.234   5.748  12.155  0.5235 -0.0843 -0.3628
51058SOL    HW260036   1.184   5.607  12.130 -0.9327  0.3495  0.0252
51059SOL     OW60037   8.798   2.955   5.767 -0.2441 -1.1295 -0.0303
51059SOL    HW160038   8.847   3.032   5.740 -0.2276 -0.1462  2.5433
51059SOL    HW260039   8.819   2.888   5.701  1.8840  0.2411 -0.8225
51060SOL     OW60040   0.336   9.813   3.555 -0.2157  0.5053 -0.0075
51060SOL    HW160041   0.252   9.767   3.558  0.9440 -1.7683  0.6831
51060SOL    HW260042   0.393   9.761   3.613  1.7355  1.7901 -0.6828
51061SOL     OW60043   7.849   0.844   3.500  0.6189 -0.3156 -0.3482
51061SOL    HW160044   7.755   0.863   3.507  0.7661  0.1279  0.4633
51061SOL    HW260045   7.857   0.753   3.529  0.8099  0.5427  2.5432
51062SOL     OW60046   4.545   1.104   9.814 -0.1662  0.5404  0.6061
51062SOL    HW160047   4.454   1.080   9.834 -0.2861  0.0362 -0.4677
51062SOL    HW260048   4.567   1.170   9.880 -1.3228  0.7050  0.8569
51063SOL     OW60049   9.223   8.019  11.240  0.0946 -0.3623  0.3692
51063SOL    HW160050   9.215   7.939  11.291  0.5627  0.4701  1.8074
51063SOL    HW260051   9.136   8.059  11.244  0.4599  0.3588  1.6963
51064SOL     OW60052   5.047   4.235   6.353  0.3429 -0.4328 -0.6632
51064SOL    HW160053   5.006   4.218   6.268 -0.8807 -1.4572  0.0795
51064SOL    HW260054   5.075   4.149   6.383 -2.3493 -0.7064  1.4380
51065SOL     OW60055   9.399   4.939   4.347 -0.1223  0.1875 -0.0503
51065SOL    HW160056   9.369   5.009   4.404  0.7134 -0.7400  1.6042
51065SOL    HW260057   9.323   4.883   4.334 -0.4484  0.6838 -0.2909
51066SOL     OW60058   0.325   6.749   5.491  0.1645  0.2323  0.0916
51066SOL    HW160059   0.234   6.754   5.462  0.2484  1.0278 -0.0479
51066SOL    HW260060   0.323   6.780   5.581  0.1208 -0.9209  0.5114
51067SOL     OW60061  12.260   8.375   8.864  0.4581  0.3316  0.6574
51067SOL    HW160062  12.304   8.330   8.792  2.4799 -0.0524  2.0478
51067SOL    HW260063  12.269   8.468   8.843  0.8105  0.2205  0.2986
51068SOL     OW60064   9.624   1.702   4.812  0.0147 -0.3108  0.4608
51068SOL    HW160065   9.586   1.789   4.799 -1.2085 -1.0517 -1.3180
51068SOL    HW260066   9.712   1.719   4.845  0.0638  1.6414 -0.5248
51069SOL     OW60067   1.653   2.936  11.067 -0.0152  0.1716 -0.1860
51069SOL    HW160068   1.612   2.849  11.059 -0.8711  0.7676 -4.0621
51069SOL    HW260069   1.734   2.919  11.116 -0.1176 -2.8593 -0.8301
51070SOL     OW60070   3.647   7.370   1.535 -0.1330 -0.2683  0.1526
51070SOL    HW160071   3.691   7.384   1.451  1.2033 -1.4676  0.5918
51070SOL    HW260072   3.718   7.371   1.600 -0.5612 -3.1477  0.8024
51071SOL     OW60073   7.721  10.574   3.442 -0.2940 -0.2221 -0.2794
51071SOL    HW160074   7.711  10.639   3.373 -0.3392  0.5073  0.4095
51071SOL    HW260075   7.784  10.511   3.406 -0.5202 -0.0039 -1.0839
51072SOL     OW60076  10.537   0.662   0.948 -0.7258 -0.1382 -0.1446
51072SOL    HW160077  10.483   0.741   0.957 -0.5503 -0.0735  0.3657
51072SOL    HW260078  10.568   0.665   0.858 -0.4549  0.5529 -0.0417
51073SOL     OW60079  10.080   4.959   9.086 -0.1229 -0.0341 -0.2261
51073SOL    HW160080  10.172   4.939   9.107  0.1379  0.3501 -0.9844
51073SOL    HW260081  10.050   4.883   9.036 -0.5591 -0.6623  0.9374
51074SOL     OW60082   5.442   9.642  10.400  0.7722  0.0262  0.8893
51074SOL    HW160083   5.533   9.655  10.425  1.3928 -0.0958 -1.1230
51074SOL    HW260084   5.401   9.727  10.415  1.8947  0.8993 -0.6932
51075SOL     OW60085   7.194   8.175   8.518  0.3243 -0.6595 -0.2237
51075SOL    HW160086   7.121   8.154   8.460 -0.1450  0.1457  0.0571
51075SOL    HW260087   7.170   8.259   8.557  1.7301 -0.0243 -0.6525
51076SOL     OW60088   4.898   9.102   9.928 -0.1308 -0.1162 -0.7403
51076SOL    HW160089   4.857   9.175   9.975 -0.1562 -0.5995  0.0020
51076SOL    HW260090   4.974   9.141   9.884  1.1944 -0.0189  1.4658
51077SOL     OW60091  11.913   4.392   0.725 -0.0328 -0.6272  0.3192
51077SOL    HW160092  11.882   4.461   0.667 -1.5037  0.7993  2.6586
51077SOL    HW260093  11.862   4.402   0.805  0.6298 -3.6260  1.2691
51078SOL     OW60094  12.225   9.740  10.534  0.0119 -0.0433 -0.4405
51078SOL    HW160095  12.258   9.750  10.623  2.2288  0.3851 -1.2272
51078SOL    HW260096  12.131   9.753  10.541  0.3826  2.4668  1.5064
51079SOL     OW60097   4.193  10.420  10.152  0.3367 -0.1913  0.0791
51079SOL    HW160098   4.255  10.347  10.146 -0.0207 -0.5935  1.1045
51079SOL    HW260099   4.248  10.498  10.145  0.8166 -0.5434 -0.2054
51080SOL     OW60100   8.176  11.440   1.029  0.1869  0.1163 -0.2549
51080SOL    HW160101   8.168  11.435   1.124  0.4432 -0.3020 -0.2506
51080SOL    HW260102   8.138  11.524   1.006  0.1955  0.2566  0.2275
51081SOL     OW60103   1.911  11.029   6.037  0.6578  0.0699 -0.3953
51081SOL    HW160104   1.965  11.097   5.996  1.2592 -0.0745  0.1429
51081SOL    HW260105   1.825  11.039   5.995  0.2000  2.3155  0.8849
51082SOL     OW60106   4.995   2.041   2.639  0.0991  0.5470 -0.4882
51082SOL    HW160107   4.903   2.052   2.665 -0.5315  0.1490 -2.3468
51082SOL    HW260108   5.044   2.043   2.721 -1.7265 -0.7881  0.7318
51083SOL     OW60109   0.779   9.313   1.141  0.0997  0.2898  0.3910
51083SOL    HW160110   0.814   9.400   1.123 -0.1240  0.0964 -1.1102
51083SOL    HW260111   0.828   9.255   1.084  1.9217 -0.9798  3.0621
51084SOL     OW60112   3.469  10.899  11.186 -0.0002  0.3440  0.5669
51084SOL    HW160113   3.519  10.818  11.182 -0.6532 -0.0082 -1.5503
51084SOL    HW260114   3.474  10.936  11.098 -1.9454  1.2228  0.7511
51085SOL     OW60115   2.827   3.289   7.790  0.1058 -0.2303 -0.2045
51085SOL    HW160116   2.845   3.381   7.775 -1.5112  0.6902  2.7014
51085SOL    HW260117   2.795   3.256   7.706 -2.3436  2.6858 -0.5896
51086SOL     OW60118   2.072   7.600   5.177 -0.1532 -0.1143 -0.1275
51086SOL    HW160119   2.087   7.519   5.129  0.8252 -0.6574  1.0480
51086SOL    HW260120   2.049   7.664   5.110  0.4577 -1.0221 -1.2316
51087SOL     OW60121   0.417   8.486   3.761 -0.9993 -0.6059  0.8419
51087SOL    HW160122   0.378   8.398   3.765  0.0653 -1.1469  0.0030
51087SOL    HW260123   0.511   8.470   3.773 -0.8599  0.5088  1.3453
51088SOL     OW60124   1.662   6.368  10.955  0.4435 -0.3658  0.1351
51088SOL    HW160125   1.613   6.434  11.004  1.9136 -0.3923  1.7542
51088SOL    HW260126   1.618   6.363  10.870 -2.9842 -1.1828  1.8207
51089SOL     OW60127   1.483   6.480   9.172  0.5636 -0.1615  0.5120
51089SOL    HW160128   1.498   6.385   9.172 -1.1767 -0.4730  1.1105
51089SOL    HW260129   1.393   6.490   9.142  0.4379  1.2538  1.2862
51090SOL     OW60130   4.313   9.075   5.167 -0.2280 -0.4775  0.4527
51090SOL    HW160131   4.347   9.152   5.121 -1.1123 -0.1368  0.3414
51090SOL    HW260132   4.247   9.111   5.227 -1.0185 -1.1851  0.0391
51091SOL     OW60133   3.937   3.528   6.703  0.5400  0.1895  0.0698
51091SOL    HW160134   3.849   3.523   6.665 -0.0539  1.4571  1.1907
51091SOL    HW260135   3.989   3.465   6.653 -0.8580 -0.1435 -1.0082
51092SOL     OW60136   9.722  10.849   4.135 -0.5840  0.9294  0.0293
51092SOL    HW160137   9.741  10.828   4.226 -0.0636 -3.0792 -0.7968
51092SOL    HW260138   9.636  10.892   4.137 -0.9194  0.2797  2.3619
51093SOL     OW60139   4.527   1.035  11.904 -0.0302 -0.3163 -0.2134
51093SOL    HW160140   4.577   1.067  11.979 -0.8750  0.8063 -0.0956
51093SOL    HW260141   4.507   0.944  11.924  1.2946 -0.5543  0.0796
51094SOL     OW60142   8.895   1.951   1.313 -0.1004  0.2059  0.1685
51094SOL    HW160143   8.989   1.950   1.330  0.0851  0.0412 -0.8005
51094SOL    HW260144   8.861   2.021   1.370  0.7377  0.8730 -0.1230
51095SOL     OW60145   3.389   2.613  10.296 -0.4722 -0.3720  0.2729
51095SOL    HW160146   3.296   2.636  10.296 -0.1436  1.4196 -2.2113
51095SOL    HW260147   3.434   2.694  10.270  1.5547 -1.7704 -0.9190
51096SOL     OW60148   9.793   5.745   1.592  0.1784 -0.3083 -0.1226
51096SOL    HW160149   9.727   5.683   1.625  0.4752 -0.2458  0.5925
51096SOL    HW260150   9.762   5.831   1.621  0.5765 -0.2794  0.2275
51097SOL     OW60151   2.616  11.627   3.651 -0.5298 -0.4900 -0.3231
51097SOL    HW160152   2.597  11.537   3.679 -1.9620  0.4630  2.0832
51097SOL    HW260153   2.711  11.630   3.643 -0.5287 -2.5929 -2.0195
51098SOL     OW60154  11.965   9.165   9.362  0.6482  0.2957 -0.0192
51098SOL    HW160155  11.955   9.239   9.422  0.4499  0.7357 -0.5849
51098SOL    HW260156  12.041   9.187   9.308  1.0375 -0.2579  0.2885
51099SOL     OW60157   4.681   6.045   1.344 -0.6462  0.3469  0.6278
51099SOL    HW160158   4.636   6.130   1.336  0.3274  0.7281 -1.3493
51099SOL    HW260159   4.640   5.991   1.277  0.4985  0.0710  0.1463
51100SOL     OW60160  10.790   7.510   5.529  0.2682  0.3921 -1.0825
51100SOL    HW160161  10.724   7.440   5.525  0.2495  0.4470 -2.1412
51100SOL    HW260162  10.773   7.554   5.612 -1.5392  0.8719 -1.6598
51101SOL     OW60163   9.389   1.346   1.462  0.0919 -0.1213 -0.0229
51101SOL    HW160164   9.451   1.281   1.428  0.5164  0.4322 -0.3413
51101SOL    HW260165   9.303   1.308   1.446  0.3305 -0.5278 -0.3660
51102SOL     OW60166   6.040   5.260   0.614  0.0533 -0.2533 -0.1056
51102SOL    HW160167   6.102   5.188   0.611 -1.2846 -1.4612 -3.4581
51102SOL    HW260168   5.957   5.221   0.587 -1.1333  2.1577 -0.1701
51103SOL     OW60169   8.224   6.952  10.353  0.3635  0.1512  0.2861
51103SOL    HW160170   8.132   6.976  10.356 -0.1672 -0.6868 -3.5634
51103SOL    HW260171   8.271   7.034  10.367 -1.0458  1.0683 -0.1526
51104SOL     OW60172  10.200  10.109   0.727 -0.1876  0.3560 -0.9863
51104SOL    HW160173  10.194  10.114   0.822  1.3946  1.0112 -0.8905
51104SOL    HW260174  10.115  10.075   0.699 -0.6462  0.0825  0.6558
51105SOL     OW60175   2.103   1.069   0.544 -0.3954 -0.3256  0.3288
51105SOL    HW160176   2.130   1.009   0.614 -0.3886 -0.0010  0.6066
51105SOL    HW260177   2.010   1.052   0.532  0.0141 -1.8945 -1.0631
51106SOL     OW60178   9.902   3.092  12.450 -0.8109 -0.7122  0.1230
51106SOL    HW160179   9.930   3.134  12.368 -1.1842 -1.1541 -0.2399
51106SOL    HW260180   9.885   3.001  12.425 -0.5322 -0.9483  0.7860
51107SOL     OW60181  12.031   8.530   3.638  0.1783 -0.3033 -0.3263
51107SOL    HW160182  12.102   8.478   3.599  0.2821 -0.0681 -0.4575
51107SOL    HW260183  11.971   8.546   3.565  0.3315  0.0691 -0.3753
51108SOL     OW60184   4.841   7.085  11.760  0.1080 -0.0443 -0.0204
51108SOL    HW160185   4.926   7.056  11.792  0.3270 -0.2127 -0.7470
51108SOL    HW260186   4.826   7.034  11.681 -0.4078  0.3882 -0.2094
51109SOL     OW60187   2.228   6.746  11.849  0.3124 -0.5085  0.3710
51109SOL    HW160188   2.259   6.836  11.859 -0.4775 -0.1446 -0.3650
51109SOL    HW260189   2.275   6.697  11.917  0.0173  0.6368  1.4265
51110SOL     OW60190   2.794   9.638   3.736  0.5879  0.4295  0.4095
51110SOL    HW160191   2.833   9.644   3.649 -0.9354  0.0254 -0.3146
51110SOL    HW260192   2.787   9.729   3.765  2.2202  0.5152  0.6623
51111SOL     OW60193   9.548   0.791   5.751  1.1720  0.4094  0.0963
51111SOL    HW160194   9.566   0.736   5.827  1.9640  0.3267 -0.1390
51111SOL    HW260195   9.457   0.818   5.761  0.4596 -1.6783 -0.2299
51112SOL     OW60196   0.012   7.015   2.916  0.4303 -0.1191  0.0228
51112SOL    HW160197  -0.073   7.029   2.958  0.0614 -0.3478 -0.6422
51112SOL    HW260198   0.027   6.921   2.924  0.6853 -0.0590  0.2579
51113SOL     OW60199   5.679  12.478   1.484 -0.3134  0.3615  0.0778
51113SOL    HW160200   5.607  12.421   1.455 -0.1911 -0.2599  0.9688
51113SOL    HW260201   5.704  12.527   1.405 -0.1186 -1.1506 -0.8332
51114SOL     OW60202   0.724  10.420   1.988  0.2064  0.4405  0.2257
51114SOL    HW160203   0.757  10.510   1.994  0.6376  0.2448  0.9928
51114SOL    HW260204   0.777  10.380   1.919 -0.3353  0.9149 -0.4714
51115SOL     OW60205   3.693   7.532   8.602  0.5883  0.1588  0.5811
51115SOL    HW160206   3.627   7.484   8.653  0.7958 -0.9435 -0.1461
51115SOL    HW260207   3.744   7.463   8.560  0.2858  1.0335 -1.2854
51116SOL     OW60208   0.885   1.754   3.307 -0.3155  0.2054 -0.0456
51116SOL    HW160209   0.912   1.816   3.239 -0.0137 -0.5066 -0.5962
51116SOL    HW260210   0.795   1.779   3.327  0.3753  1.9932  1.1111
51117SOL     OW60211   6.924   3.425  12.268 -0.1919 -0.0190  0.1794
51117SOL    HW160212   6.886   3.397  12.184  2.2534 -2.4048 -0.2754
51117SOL    HW260213   6.985   3.495  12.245  1.3410 -1.4442 -0.3147
51118SOL     OW60214   6.263   3.335   1.663 -0.0332  0.1502 -0.2979
51118SOL    HW160215   6.334   3.391   1.632  0.3142  0.3977  0.8894
51118SOL    HW260216   6.211   3.316   1.585 -0.6024  2.7700 -0.6437
51119SOL     OW60217   4.903   6.718   6.006 -0.1450  0.7931 -0.0046
51119SOL    HW160218   4.901   6.812   5.987 -0.1421  0.5603 -1.1949
51119SOL    HW260219   4.989   6.689   5.977 -0.9031  0.0417 -1.6317
51120SOL     OW60220   6.497   7.027   4.920  0.2329 -0.5420  0.9331
51120SOL    HW160221   6.538   6.941   4.914  0.5043 -0.3711  0.2439
51120SOL    HW260222   6.404   7.009   4.911  0.1997 -0.8694  1.8707
51121SOL     OW60223  11.928   2.807   0.223 -0.2776  0.5043  0.6999
51121SOL    HW160224  11.927   2.868   0.296 -0.2327 -0.3918  1.4706
51121SOL    HW260225  11.849   2.754   0.235 -1.3970  1.6786 -1.0782
51122SOL     OW60226   1.029   8.814  11.248 -0.2844 -0.2769 -0.5608
51122SOL    HW160227   1.047   8.744  11.312 -0.9432 -0.8039 -0.9359
51122SOL    HW260228   1.115   8.853  11.230 -0.3052  1.3955  2.3148
51123SOL     OW60229   2.692   2.033  11.391 -0.0861 -0.4808 -0.1944
51123SOL    HW160230   2.673   2.067  11.479  0.2671 -0.7858  0.0020
51123SOL    HW260231   2.787   2.035  11.385 -0.1312  0.0355 -0.7741
51124SOL     OW60232  12.253   1.892   9.872  0.4256 -0.9742  0.1299
51124SOL    HW160233  12.251   1.963   9.937 -2.3119 -0.2265 -0.6118
51124SOL    HW260234  12.241   1.813   9.923 -2.1964 -0.3555  0.6515
51125SOL     OW60235   9.695   4.937   2.871 -0.1167  0.1219 -0.4458
51125SOL    HW160236   9.743   4.951   2.789  1.3248  1.2632  0.5310
51125SOL    HW260237   9.698   4.843   2.885 -0.5826 -0.1175 -1.8041
51126SOL     OW60238  10.716   7.129  11.409 -0.6324  0.5893  0.2107
51126SOL    HW160239  10.804   7.167  11.422 -1.2858  2.3297 -0.1432
51126SOL    HW260240  10.732   7.039  11.383  1.0458  0.7426  0.6021
51127SOL     OW60241   9.639   1.751   6.128 -0.3055  0.4298 -0.0177
51127SOL    HW160242   9.573   1.774   6.193  0.2204  0.6565  0.4425
51127SOL    HW260243   9.707   1.818   6.138  1.1095 -1.1111  1.1156
51128SOL     OW60244   8.886   6.319   8.443 -0.3482 -0.6221 -0.2739
51128SOL    HW160245   8.955   6.303   8.379 -1.2604 -1.1654 -1.1450
51128SOL    HW260246   8.901   6.253   8.511  0.4556 -0.2190 -0.0369
51129SOL     OW60247   0.311   2.317  11.612 -0.3337  0.0202  0.1633
51129SOL    HW160248   0.311   2.312  11.708  2.6189  1.9838  0.4263
51129SOL    HW260249   0.383   2.260  11.586 -1.0282 -0.3876 -0.9047
51130SOL     OW60250  10.745   7.916   7.246 -0.5930  0.5272  0.2185
51130SOL    HW160251  10.800   7.869   7.309  0.5795 -0.3525 -1.3794
51130SOL    HW260252  10.659   7.876   7.255 -0.3599  0.1809  1.0165
51131SOL     OW60253   2.162   9.866   8.574 -0.1865 -0.0372 -0.0149
51131SOL    HW160254   2.070   9.861   8.601 -0.5746 -0.2205 -1.2935
51131SOL    HW260255   2.158   9.898   8.484  1.0311  0.2925  0.0393
51132SOL     OW60256   3.941   9.252   7.086 -0.5148 -0.1065 -0.5420
51132SOL    HW160257   4.008   9.187   7.105 -0.9878 -0.5000 -0.1851
51132SOL    HW260258   3.986   9.319   7.034  0.4498  0.2265  0.6539
51133SOL     OW60259   2.956   0.725   9.631  0.0424  0.2224  0.4908
51133SOL    HW160260   2.884   0.749   9.573  0.0212 -0.7815  0.0687
51133SOL    HW260261   2.915   0.711   9.716  0.2250  2.7523  1.0766
51134SOL     OW60262   3.337   7.813   4.434 -0.6307  0.2661 -0.2749
51134SOL    HW160263   3.300   7.864   4.506  0.4640  1.5762 -0.5918
51134SOL    HW260264   3.333   7.872   4.359  1.2433  0.1475 -0.5073
51135SOL     OW60265  12.260  12.355  11.348  0.1394  0.0745  0.1180
51135SOL    HW160266  12.269  12.409  11.269  0.1296 -1.0900 -0.7155
51135SOL    HW260267  12.261  12.417  11.420 -1.3726  1.3195 -0.8784
51136SOL     OW60268   3.132   4.823   0.757  0.6939 -0.1740  0.0258
51136SOL    HW160269   3.134   4.789   0.667  1.0762 -1.0995  0.3689
51136SOL    HW260270   3.040   4.820   0.781  0.6928 -0.7457 -0.0387
51137SOL     OW60271   6.072  11.417   0.148  0.0102 -0.2429 -0.1772
51137SOL    HW160272   6.057  11.323   0.161  0.3278 -0.2240  0.3399
51137SOL    HW260273   6.151  11.436   0.197  0.3719  0.1505 -0.8937
51138SOL     OW60274   9.337   1.392   6.258 -0.4240 -0.6180  0.5055
51138SOL    HW160275   9.293   1.332   6.318 -1.0793 -0.2070  0.4553
51138SOL    HW260276   9.430   1.376   6.271 -0.5552 -0.6108  1.5581
51139SOL     OW60277   6.220   1.461  12.389 -0.0934 -0.6438  0.0866
51139SOL    HW160278   6.224   1.556  12.378 -1.6391 -0.1601  2.7862
51139SOL    HW260279   6.159   1.432  12.321 -0.0886  0.3627 -0.3776
51140SOL     OW60280   6.959  10.714   2.910 -0.2640  0.2192 -0.9547
51140SOL    HW160281   6.863  10.713   2.904 -0.2983  2.7332 -2.0960
51140SOL    HW260282   6.982  10.807   2.911  2.0779 -0.2540  1.7802
51141SOL     OW60283   9.750   7.313   9.233  0.5967  0.4003 -0.3113
51141SOL    HW160284   9.819   7.330   9.297  0.0077 -0.3111  0.5493
51141SOL    HW260285   9.756   7.219   9.215  0.4708  0.5114 -0.9727
51142SOL     OW60286  10.067   2.706   1.499 -0.1220 -0.1189 -0.2773
51142SOL    HW160287  10.161   2.721   1.489  0.4549 -2.1141  1.4913
51142SOL    HW260288  10.036   2.783   1.547  1.0994 -0.5544  1.2756
51143SOL     OW60289   6.202   2.843  10.702 -0.8650 -0.0201 -0.3814
51143SOL    HW160290   6.164   2.894  10.631  0.4718  2.3931  0.5159
51143SOL    HW260291   6.146   2.863  10.778  0.7547  1.7755  0.4213
51144SOL     OW60292   4.345   9.637  12.020  0.2041  0.7129 -0.0861
51144SOL    HW160293   4.275   9.701  12.012  1.1495  1.8158  0.1696
51144SOL    HW260294   4.309   9.568  12.076 -1.9142 -0.5946 -2.8564
51145SOL     OW60295   5.887   5.875   7.600 -0.2110 -0.3854 -0.0152
51145SOL    HW160296   5.918   5.785   7.610  1.0742 -0.2780 -2.4329
51145SOL    HW260297   5.841   5.875   7.516  0.7301  1.4324 -0.5665
51146SOL     OW60298   5.241   8.837  10.842 -0.0594  0.2278 -0.7607
51146SOL    HW160299   5.152   8.820  10.873  0.7288 -1.8554  0.5395
51146SOL    HW260300   5.269   8.914  10.891 -0.0853 -0.9346  1.1759
51147SOL     OW60301   4.261  11.906   3.296 -0.3730  0.8389  0.6039
51147SOL    HW160302   4.315  11.965   3.349  0.0706  0.4750  0.5690
51147SOL    HW260303   4.325  11.850   3.251 -0.7868  0.3623  0.6068
51148SOL     OW60304   1.151   3.143  11.615  0.1937 -0.6383 -0.1830
51148SOL    HW160305   1.100   3.182  11.686 -1.7788  0.3056 -1.9749
51148SOL    HW260306   1.188   3.218  11.568 -0.3237 -1.0776 -1.3478
51149SOL     OW60307   4.406   1.446   1.768  0.1593 -0.3111 -0.2921
51149SOL    HW160308   4.446   1.524   1.806  0.3317 -0.7820  0.5266
51149SOL    HW260309   4.468   1.417   1.701  0.1423  0.1832 -0.5281
51150SOL     OW60310  11.920   4.097   0.922 -0.1188 -0.3125  0.1052
51150SOL    HW160311  11.927   4.039   0.998 -1.3858 -0.3098  0.2473
51150SOL    HW260312  11.833   4.135   0.929 -1.0614 -1.7965 -2.3845
51151SOL     OW60313   7.930   5.136  11.151 -0.4007 -0.2101 -0.3996
51151SOL    HW160314   7.855   5.081  11.129 -2.3472  0.4253  3.6955
51151SOL    HW260315   7.917   5.215  11.099 -2.2978 -0.3413 -0.2045
51152SOL     OW60316   3.704   9.347   7.139 -0.1686 -0.6455  0.3202
51152SOL    HW160317   3.793   9.311   7.133  0.2866  0.2679  1.2387
51152SOL    HW260318   3.671   9.315   7.223 -0.8743 -1.3183 -0.2044
51153SOL     OW60319   9.033  10.628   5.881  0.3096 -0.1510 -0.0552
51153SOL    HW160320   8.966  10.688   5.850  0.3484 -0.0816 -0.0053
51153SOL    HW260321   9.099  10.627   5.812  0.3937 -0.0014  0.0240
51154SOL     OW60322  10.938   6.281  11.324 -0.2046  0.4100  0.6668
51154SOL    HW160323  10.878   6.351  11.297 -1.2552 -1.0990 -1.0685
51154SOL    HW260324  10.986   6.258  11.244  1.2429  0.1597  1.5680
51155SOL     OW60325   9.637   0.079   8.527 -0.2161  0.3837  0.2886
51155SOL    HW160326   9.615  -0.014   8.532 -2.0583  0.8430  2.4483
51155SOL    HW260327   9.673   0.101   8.612 -0.3308  1.7571  0.0216
51156SOL     OW60328   3.969   8.219   1.384  0.3889  0.0961  0.3939
51156SOL    HW160329   3.992   8.311   1.390 -1.4495  0.6513 -0.4213
51156SOL    HW260330   4.043   8.173   1.423  1.1468  1.9239  1.2044
51157SOL     OW60331  10.601   0.889   6.561 -0.0881  0.3727  0.0940
51157SOL    HW160332  10.547   0.951   6.611 -0.2224  0.7849 -0.5425
51157SOL    HW260333  10.587   0.805   6.603 -0.2403  0.7019  0.7142
51158SOL     OW60334   0.919   2.283   4.025 -0.1606 -0.2420 -0.4291
51158SOL    HW160335   0.860   2.284   4.101 -1.7299  1.1452 -1.5753
51158SOL    HW260336   0.905   2.197   3.986 -1.2838 -0.0445 -0.5228
51159SOL     OW60337   2.739   3.844  11.181  0.0715  0.1129  0.8900
51159SOL    HW160338   2.670   3.825  11.245  0.6342 -1.3108  1.1227
51159SOL    HW260339   2.693   3.879  11.105 -0.8268 -0.1065  1.3162
51160SOL     OW60340   0.676   5.667   6.242  0.2014  0.3160 -0.3088
51160SOL    HW160341   0.611   5.597   6.229  0.2646  0.6580 -3.0745
51160SOL    HW260342   0.748   5.643   6.183  1.2559  1.5152  0.4627
51161SOL     OW60343   3.951  10.709   6.608  0.4464  0.1379  0.0768
51161SOL    HW160344   3.864  10.747   6.597  0.4160  0.0129 -0.1074
51161SOL    HW260345   3.954  10.637   6.545  0.1053 -0.8674  1.1742
51162SOL     OW60346   0.769   1.270   1.967  0.8625  0.2388 -0.1038
51162SOL    HW160347   0.759   1.350   1.916 -0.3610  1.2857  1.6591
51162SOL    HW260348   0.701   1.275   2.034  2.2911 -1.1002  1.5720
51163SOL     OW60349   8.379   5.510   1.501  0.1729 -0.0328  0.1913
51163SOL    HW160350   8.348   5.456   1.574  0.5106 -2.3196 -1.2599
51163SOL    HW260351   8.366   5.456   1.423  0.5493  2.0078 -1.4037
51164SOL     OW60352   9.039   3.144  12.376 -0.2095  0.4309  0.1953
51164SOL    HW160353   9.112   3.085  12.397 -0.8553 -0.4647 -0.0085
51164SOL    HW260354   9.081   3.219  12.334  0.7937  0.8604  1.8388
51165SOL     OW60355  12.034   4.273   9.097  0.7625  0.5086  0.0212
51165SOL    HW160356  12.031   4.275   9.192  3.0227 -2.0046  0.2637
51165SOL    HW260357  12.126   4.290   9.075  0.3957  0.5405 -1.6918
51166SOL     OW60358  10.174   9.264   3.753 -0.1282 -0.1874 -0.2868
51166SOL    HW160359  10.189   9.202   3.683  1.6780 -1.1038  0.8479
51166SOL    HW260360  10.125   9.215   3.819  0.2864 -0.0711  0.1159
51167SOL     OW60361   2.563   7.363   6.970  0.2669 -0.0010 -0.0253
51167SOL    HW160362   2.624   7.292   6.950 -0.9812 -0.8205 -1.1027
51167SOL    HW260363   2.571   7.423   6.895  0.7293  0.6123  0.4970
51168SOL     OW60364   1.719   3.214  10.218  0.1949 -0.1246 -0.1950
51168SOL    HW160365   1.812   3.239  10.221  0.8978 -2.5616  0.5505
51168SOL    HW260366   1.680   3.277  10.158  1.7756  2.5950  1.4002
51169SOL     OW60367   7.681   0.313   4.126  0.6128  0.2347 -0.0581
51169SOL    HW160368   7.653   0.354   4.044 -0.2679  0.7841  0.4928
51169SOL    HW260369   7.699   0.222   4.103  1.5923  0.6783 -1.1047
51170SOL     OW60370   5.549   2.686   7.050  0.2250 -0.2797 -0.2082
51170SOL    HW160371   5.526   2.769   7.092  1.2006  0.1884 -0.5578
51170SOL    HW260372   5.536   2.620   7.118 -0.5410  0.1606  0.0825
51171SOL     OW60373   4.794   9.753  12.220  0.0598 -0.3141  0.0409
51171SOL    HW160374   4.842   9.675  12.248  1.2677  0.0029 -1.0750
51171SOL    HW260375   4.746   9.726  12.142  0.1969 -0.0354 -0.1409
51172SOL     OW60376   3.882  11.652   0.871 -0.4139 -0.0037  0.1211
51172SOL    HW160377   3.941  11.647   0.795  0.9346  1.0809  1.0388
51172SOL    HW260378   3.816  11.716   0.845 -0.1069  0.1764 -0.2456
51173SOL     OW60379   1.299   6.560   5.449 -0.3473  0.1874 -0.7615
51173SOL    HW160380   1.337   6.485   5.403  0.2012  0.3742 -0.6278
51173SOL    HW260381   1.310   6.633   5.388  0.8435  0.5404 -0.1534
51174SOL     OW60382   3.850   6.512   5.576  0.4309 -0.3696 -0.8879
51174SOL    HW160383   3.920   6.489   5.514  1.0274  1.2958 -0.8840
51174SOL    HW260384   3.782   6.549   5.521  0.3686 -0.1853 -0.6823
51175SOL     OW60385   6.194   7.226   2.161 -0.5771 -0.2014 -0.2470
51175SOL    HW160386   6.120   7.166   2.169 -1.5972  0.9562 -0.6337
51175SOL    HW260387   6.158   7.312   2.184  0.1337  0.7062 -2.2845
51176SOL     OW60388  10.873   4.120   9.218  0.1812  0.4320 -0.0648
51176SOL    HW160389  10.819   4.199   9.218 -0.0041  0.3333 -1.3872
51176SOL    HW260390  10.954   4.146   9.261  0.1092  1.3499 -0.4599
51177SOL     OW60391   3.024   3.775  11.619  0.3737  0.5657  0.1282
51177SOL    HW160392   3.089   3.742  11.557  0.1589  1.0689 -0.3654
51177SOL    HW260393   3.076   3.816  11.688  0.5770  1.1674 -0.3795
51178SOL     OW60394   8.614  10.503   0.237 -0.5354  0.3564  0.6246
51178SOL    HW160395   8.689  10.558   0.215  0.8857 -1.3549  1.0272
51178SOL    HW260396   8.580  10.473   0.153  0.0826  0.0342  0.4909
51179SOL     OW60397   0.278   1.908   8.789 -0.1756 -0.1576 -0.1726
51179SOL    HW160398   0.294   2.002   8.781  0.6527 -0.2106  0.6186
51179SOL    HW260399   0.183   1.900   8.786 -0.2054  0.4314 -2.7292
51180SOL     OW60400   4.566   2.736  11.076 -0.1825  0.2802  0.6830
51180SOL    HW160401   4.649   2.755  11.119  0.0787  0.9098 -0.0623
51180SOL    HW260402   4.513   2.694  11.143  0.7256 -0.0968  1.1789
51181SOL     OW60403   7.066   3.781   1.603 -0.3005  0.1252  0.3126
51181SOL    HW160404   7.030   3.738   1.680 -0.7189 -0.7615 -0.3594
51181SOL    HW260405   7.009   3.754   1.531  0.4890  0.3656 -0.4265
51182SOL     OW60406  11.050   5.647   9.562  0.4915 -0.2408 -0.2970
51182SOL    HW160407  11.118   5.585   9.588  1.6442 -0.0035 -2.4577
51182SOL    HW260408  11.098   5.716   9.515 -1.1237  0.4729 -0.9773
51183SOL     OW60409   5.515   5.072  10.575 -0.4527  0.4575  0.8004
51183SOL    HW160410   5.525   5.007  10.644  0.9133  0.9710  1.1026
51183SOL    HW260411   5.577   5.045  10.507 -0.0371  1.3129  0.8339
51184SOL     OW60412   6.678   8.575   3.331  0.1866 -0.3045  0.6231
51184SOL    HW160413   6.710   8.501   3.280  0.7848 -0.0353  0.6029
51184SOL    HW260414   6.588   8.589   3.300 -0.5697 -2.1158  1.8350
51185SOL     OW60415   0.856   4.635   7.439  0.3349 -0.9278  0.6610
51185SOL    HW160416   0.826   4.694   7.509  0.0905  0.1447 -0.3189
51185SOL    HW260417   0.949   4.622   7.458  0.3652 -0.3214  0.9623
51186SOL     OW60418   4.725   9.519  10.264  0.2108 -0.0841 -0.6480
51186SOL    HW160419   4.755   9.604  10.231 -1.0576 -0.1325 -1.9922
51186SOL    HW260420   4.756   9.517  10.355  0.5784  1.6510 -0.6986
51187SOL     OW60421   1.119   7.417   2.818  0.6955 -0.2947  0.9190
51187SOL    HW160422   1.184   7.487   2.809  0.1176  0.2131  0.6824
51187SOL    HW260423   1.104   7.387   2.729  1.5337 -1.2739  1.0923
51188SOL     OW60424   7.225   0.283   7.102 -0.3906  0.4595 -0.0923
51188SOL    HW160425   7.282   0.357   7.083  0.0166  0.0453 -0.4934
51188SOL    HW260426   7.242   0.263   7.193 -0.9925  1.2788  0.2150
51189SOL     OW60427  12.029   8.437   0.780  0.3226  0.2154 -0.3571
51189SOL    HW160428  11.969   8.440   0.705 -3.6209 -0.8401  2.4403
51189SOL    HW260429  12.054   8.528   0.795 -1.1228  0.8004 -1.2905
51190SOL     OW60430   3.629   5.724  12.161  0.2910 -0.0795  0.6174
51190SOL    HW160431   3.709   5.707  12.111  0.8941 -2.0126  2.1383
51190SOL    HW260432   3.559   5.723  12.095  1.4311  1.4236 -0.7044
51191SOL     OW60433  12.096   7.235   3.319 -0.2986 -0.1389  0.7446
51191SOL    HW160434  12.002   7.223   3.305  0.2121 -1.2595 -2.5849
51191SOL    HW260435  12.129   7.146   3.334  0.6474 -0.3251 -1.9916
51192SOL     OW60436   5.726   5.393   5.834 -0.3684  0.5747 -0.1885
51192SOL    HW160437   5.694   5.390   5.925  2.3370  2.2081  0.9255
51192SOL    HW260438   5.790   5.464   5.833  2.8305 -2.0169 -2.3092
51193SOL     OW60439   9.111   6.111   8.044 -0.2610 -0.5196  0.2518
51193SOL    HW160440   9.175   6.137   7.979  0.8195 -1.8733  0.7201
51193SOL    HW260441   9.083   6.024   8.017 -0.6323 -0.6397  0.9828
51194SOL     OW60442  11.082   7.485   6.836 -0.0487 -0.3959  0.4308
51194SOL    HW160443  11.173   7.460   6.821 -0.4001 -1.8444  0.6064
51194SOL    HW260444  11.040   7.406   6.870 -1.2168  0.4418  1.0182
51195SOL     OW60445   6.730  10.071  12.189  0.9805  0.0063 -0.4289
51195SOL    HW160446   6.775  10.035  12.265 -1.1412 -0.3041  0.7380
51195SOL    HW260447   6.677  10.142  12.223 -2.9722 -2.4559 -0.7554
51196SOL     OW60448   9.474   5.883   2.875  0.0676 -0.3917 -0.2189
51196SOL    HW160449   9.495   5.876   2.969  0.3433 -1.4140 -0.3421
51196SOL    HW260450   9.527   5.955   2.844 -1.4298  1.2303  0.7879
51197SOL     OW60451   7.527   1.575   8.018  0.9313  0.2479 -0.1397
51197SOL    HW160452   7.521   1.482   8.041  0.1494  0.2849 -0.1963
51197SOL    HW260453   7.526   1.621   8.102  1.0105  0.2251 -0.1260
51198SOL     OW60454   6.628   8.045   4.844  0.2945 -0.2466  0.3806
51198SOL    HW160455   6.648   8.137   4.862  1.0445 -0.2283 -0.4650
51198SOL    HW260456   6.688   8.021   4.773 -1.5182 -0.7338 -1.0550
51199SOL     OW60457   7.558   0.081  11.154  0.1169  0.5905 -0.6814
51199SOL    HW160458   7.516   0.055  11.236  0.1030  1.0253 -0.5486
51199SOL    HW260459   7.651   0.078  11.172  0.2870 -2.4822 -1.5952
51200SOL     OW60460   1.635   0.164   1.111  0.2644 -0.4402  0.2703
51200SOL    HW160461   1.660   0.246   1.069  1.4145 -0.3344  1.0977
51200SOL    HW260462   1.541   0.173   1.128  0.2691  0.4737 -0.1439
51201SOL     OW60463  11.066   4.531  12.116  0.1922 -0.1141  0.3178
51201SOL    HW160464  10.980   4.567  12.139  0.9572  1.3701  1.0397
51201SOL    HW260465  11.102   4.594  12.054  0.1854 -1.5116 -1.1692
51202SOL     OW60466   2.360   9.932  11.226  0.2403 -0.4253 -0.2233
51202SOL    HW160467   2.330   9.843  11.243 -1.4942 -0.4645 -2.9377
51202SOL    HW260468   2.456   9.924  11.224  0.1239 -2.2601 -0.5952
51203SOL     OW60469   9.535   0.317   5.560  0.1191 -0.2878 -0.6226
51203SOL    HW160470   9.458   0.283   5.604 -0.2328  2.0356  0.7218
51203SOL    HW260471   9.504   0.396   5.515  1.7375  0.9081  0.2560
51204SOL     OW60472  11.360   8.675   3.999 -0.3098  0.0126  0.0834
51204SOL    HW160473  11.376   8.766   3.975  0.1682  0.0026  0.3506
51204SOL    HW260474  11.313   8.680   4.082 -1.6400  0.0387 -0.6393
51205SOL     OW60475  11.152   6.590   8.543  0.8869 -0.1417 -0.2045
51205SOL    HW160476  11.140   6.495   8.553  1.1020 -0.2554 -0.9383
51205SOL    HW260477  11.227   6.598   8.484 -0.5498  0.4315 -2.0685
51206SOL     OW60478   6.899   7.032   3.622 -0.4222  0.3716  0.0541
51206SOL    HW160479   6.907   6.941   3.594  2.2204  1.6302 -4.1524
51206SOL    HW260480   6.824   7.066   3.573  0.2605  1.0752 -0.5321
51207SOL     OW60481   8.301   1.685   7.088  0.2043 -0.7974  0.3355
51207SOL    HW160482   8.347   1.607   7.056  0.3683 -0.9444  0.9164
51207SOL    HW260483   8.227   1.694   7.029  2.3035  0.9436 -2.2559
51208SOL     OW60484   0.893   9.419   7.799 -0.5796 -0.2555  0.8203
51208SOL    HW160485   0.830   9.490   7.815 -0.1995  0.2997 -0.0752
51208SOL    HW260486   0.921   9.392   7.886  1.0501  2.2968  1.1843
51209SOL     OW60487   6.696   7.906   0.745 -0.5751 -0.3138  0.0967
51209SOL    HW160488   6.768   7.918   0.684  0.0065 -0.1765  0.7908
51209SOL    HW260489   6.637   7.979   0.728  0.6120  0.9273  1.0922
51210SOL     OW60490   2.359  12.381   9.001 -0.8261  0.0378 -0.2226
51210SOL    HW160491   2.360  12.287   9.021  0.4973 -0.6562 -3.0640
51210SOL    HW260492   2.303  12.419   9.069 -2.0423 -2.8860  0.5746
51211SOL     OW60493  10.434   2.900   3.872 -0.0615 -0.2432  0.0574
51211SOL    HW160494  10.464   2.828   3.928 -2.1803  0.6298  2.5366
51211SOL    HW260495  10.502   2.966   3.878  1.1508 -1.3383 -0.9552
51212SOL     OW60496   5.529   1.937  11.930  0.4124  0.1711  0.1233
51212SOL    HW160497   5.467   1.948  11.858  0.5322 -3.2161 -0.7070
51212SOL    HW260498   5.601   1.997  11.910  0.0383 -0.0579 -2.1356
51213SOL     OW60499  11.852   3.539   3.915 -0.1809 -0.1249  0.1406
51213SOL    HW160500  11.848   3.455   3.869  0.9654 -0.2948  0.3267
51213SOL    HW260501  11.761   3.570   3.916 -0.6702 -1.4931  0.3282
51214SOL     OW60502  10.506   9.976   4.204  0.5197  0.0621 -0.4381
51214SOL    HW160503  10.574   9.909   4.194  2.2719  1.4898  1.0684
51214SOL    HW260504  10.531  10.045   4.143 -0.6262 -0.1253 -1.1563
51215SOL     OW60505   6.870   4.075   9.629 -0.6213 -0.0754  0.0335
51215SOL    HW160506   6.787   4.113   9.657 -0.7734 -1.2065  1.1929
51215SOL    HW260507   6.867   3.985   9.660  1.3579  0.0805  0.8165
51216SOL     OW60508   8.483  11.065  12.004 -0.9222  0.5313 -0.1609
51216SOL    HW160509   8.457  11.085  12.094 -3.0659 -0.4129 -0.5066
51216SOL    HW260510   8.566  11.019  12.013 -0.2194  1.9441  1.1843
51217SOL     OW60511  10.592   3.546   6.801  0.5932 -0.6538  0.0714
51217SOL    HW160512  10.568   3.633   6.833  0.9508 -1.6252  3.3335
51217SOL    HW260513  10.519   3.521   6.743  0.3285  1.6191 -0.6809
51218SOL     OW60514  10.655   0.840   5.658  0.0318  0.1229 -0.4504
51218SOL    HW160515  10.741   0.879   5.643 -0.0296 -0.4805 -2.8128
51218SOL    HW260516  10.625   0.879   5.740  1.9169  1.4608 -0.3212
51219SOL     OW60517   3.212   0.600  11.619 -0.0361 -0.0063  0.4326
51219SOL    HW160518   3.214   0.615  11.524 -0.1953 -0.7880  0.2973
51219SOL    HW260519   3.302   0.616  11.647  0.2380 -0.6896 -0.0104
51220SOL     OW60520   4.625  10.032   5.099 -0.0685  0.0215  0.2608
51220SOL    HW160521   4.605  10.009   5.008 -0.9759 -0.7279  0.6342
51220SOL    HW260522   4.634   9.947   5.143 -1.2676  0.3599  1.2002
51221SOL     OW60523   5.579   8.968   8.859 -0.3878  0.6140  0.6204
51221SOL    HW160524   5.586   9.050   8.810 -1.5670  0.0732 -0.5086
51221SOL    HW260525   5.485   8.952   8.865 -0.1709 -1.1730 -0.1051
51222SOL     OW60526   3.391   5.080   2.850 -0.0045 -0.4291  0.4018
51222SOL    HW160527   3.472   5.106   2.893 -0.7308  2.0527  0.4229
51222SOL    HW260528   3.368   4.997   2.891  0.9434  0.3103  2.5820
51223SOL     OW60529   1.860   0.324   2.265  0.4734  0.3980 -0.3699
51223SOL    HW160530   1.878   0.237   2.303  0.7838  0.9330  0.7674
51223SOL    HW260531   1.786   0.309   2.207  1.2581 -0.8540 -1.1108
51224SOL     OW60532   9.493   2.590  11.157  0.1718 -0.1079  0.1051
51224SOL    HW160533   9.564   2.529  11.137  0.6152  1.2110 -2.9840
51224SOL    HW260534   9.536   2.664  11.200  0.2998 -0.2391  0.2044
51225SOL     OW60535   3.922   5.862   7.707 -0.3605  0.6606  0.3132
51225SOL    HW160536   3.852   5.813   7.751 -0.0042  0.6896  0.9377
51225SOL    HW260537   3.880   5.906   7.634 -1.6167  2.9005  2.2252
51226SOL     OW60538   8.310   4.879   4.568  0.1256 -0.1739 -0.5704
51226SOL    HW160539   8.366   4.898   4.493  0.3477  0.6892 -0.1926
51226SOL    HW260540   8.234   4.937   4.557  1.3872  1.9845  1.2525
51227SOL     OW60541   7.761   3.217   5.306  0.0880 -0.2371  0.2520
51227SOL    HW160542   7.733   3.168   5.229  0.9640 -1.9728  0.9677
51227SOL    HW260543   7.823   3.158   5.350  0.3597  1.1060  1.7471
51228SOL     OW60544   9.363   1.376   5.984  0.0417  0.1772 -0.0060
51228SOL    HW160545   9.453   1.359   5.957 -0.0652 -2.7108  1.1242
51228SOL    HW260546   9.371   1.409   6.074 -0.0242 -0.5574  0.2753
51229SOL     OW60547   4.526   3.122   7.350 -0.4526  0.2918 -0.0573
51229SOL    HW160548   4.436   3.120   7.382 -0.9652 -0.6002 -1.4710
51229SOL    HW260549   4.530   3.052   7.285  1.3343  0.1694  0.1545
51230SOL     OW60550   2.049   2.425   1.148  0.2484  0.2492 -0.4810
51230SOL    HW160551   1.976   2.390   1.199 -0.0987  0.4477 -0.8302
51230SOL    HW260552   2.106   2.467   1.213 -1.2772  2.4161 -0.4488
51231SOL     OW60553   5.726   1.080  12.250 -0.5728  0.2139  0.4708
51231SOL    HW160554   5.691   1.155  12.201  0.3635 -0.6023 -1.5675
51231SOL    HW260555   5.817   1.103  12.268 -0.8802  0.4626  1.8086
51232SOL     OW60556   7.020   2.054   3.876 -0.1477  0.0105  0.1478
51232SOL    HW160557   6.997   1.990   3.943  2.6788 -0.8653  0.4099
51232SOL    HW260558   7.075   2.006   3.815  0.2148  1.6514 -0.8738
51233SOL     OW60559   6.244   8.161   2.757  0.5153  0.3999  0.4198
51233SOL    HW160560   6.235   8.095   2.826  0.1735 -0.3842 -0.3615
51233SOL    HW260561   6.331   8.199   2.771  1.2094 -1.0506  0.1525
51234SOL     OW60562  10.941   9.773  11.318  0.3720  0.0857 -0.2013
51234SOL    HW160563  10.962   9.814  11.234 -0.4980  3.0917  0.9161
51234SOL    HW260564  10.933   9.846  11.379  0.3326 -1.9358  2.3987
51235SOL     OW60565   6.903   3.179   9.253 -0.0580  0.0943  0.3675
51235SOL    HW160566   6.912   3.266   9.212  0.5519  0.3060  0.9421
51235SOL    HW260567   6.853   3.195   9.333  1.3642  0.1850  1.2800
51236SOL     OW60568   3.753   0.286   1.796  0.2291 -0.3854 -0.0526
51236SOL    HW160569   3.841   0.251   1.806  0.4070 -0.4393 -1.6268
51236SOL    HW260570   3.740   0.340   1.874  1.6657 -0.3381  0.1748
51237SOL     OW60571   3.207   6.931   0.753 -0.8634 -0.1451  0.1165
51237SOL    HW160572   3.157   6.990   0.808 -0.6246  1.1199 -0.9801
51237SOL    HW260573   3.142   6.893   0.693 -0.8065  0.0172 -0.0472
51238SOL     OW60574   5.917   0.752  11.743 -0.1325  0.1212 -0.2169
51238SOL    HW160575   5.980   0.680  11.745  0.9022  1.0006  1.6221
51238SOL    HW260576   5.858   0.734  11.816 -0.5665  0.5557 -0.4553
51239SOL     OW60577  10.017   2.217  11.092 -0.4182  0.1508 -0.7651
51239SOL    HW160578  10.031   2.268  11.172  0.2317  0.7839 -1.2695
51239SOL    HW260579   9.953   2.150  11.118  0.1475  0.0292  0.4132
51240SOL     OW60580   3.624   8.435  11.530  0.5288  0.5729 -0.3834
51240SOL    HW160581   3.603   8.357  11.479  1.4028  1.3629 -2.0265
51240SOL    HW260582   3.664   8.495  11.467 -0.8278  2.6645  0.6289
51241SOL     OW60583  11.264  12.182  10.124  0.1946 -0.1858  0.9970
51241SOL    HW160584  11.326  12.254  10.128  0.4620 -0.1313 -1.7896
51241SOL    HW260585  11.265  12.154  10.032 -1.5798 -2.2550  1.5010
51242SOL     OW60586   4.825   9.217   5.985  0.0100  0.1113 -0.2288
51242SOL    HW160587   4.910   9.186   6.016  0.0247  1.7395  1.5971
51242SOL    HW260588   4.845   9.269   5.907  0.4861 -0.7146 -0.6743
51243SOL     OW60589  10.609   1.230   3.665 -0.0745  0.4788 -0.5536
51243SOL    HW160590  10.527   1.277   3.645 -1.2275 -1.1598  0.1296
51243SOL    HW260591  10.655   1.288   3.725 -2.1199  0.1873  1.4198
51244SOL     OW60592  10.888   7.984   2.657  0.0919 -0.0133 -0.5529
51244SOL    HW160593  10.793   7.976   2.660 -0.1711  2.3797 -1.1195
51244SOL    HW260594  10.914   7.995   2.749 -0.5091  2.0926 -0.5909
51245SOL     OW60595   0.806   1.425  11.620  0.2602 -0.3496  0.1713
51245SOL    HW160596   0.901   1.428  11.605  0.6203 -0.7770  2.1239
51245SOL    HW260597   0.782   1.515  11.642  0.3185 -0.3618  0.2841
51246SOL     OW60598   1.803   2.636   7.108 -0.0529 -0.4798 -0.5283
51246SOL    HW160599   1.737   2.703   7.090 -1.9211 -1.7056  1.2909
51246SOL    HW260600   1.794   2.574   7.036 -1.8715 -1.2742  0.3037
51247SOL     OW60601   7.473   1.473   8.990 -0.2551 -0.4175 -0.0270
51247SOL    HW160602   7.546   1.514   8.943 -0.6503  0.9155  0.5018
51247SOL    HW260603   7.478   1.509   9.078 -1.3201 -0.6354  0.1283
51248SOL     OW60604   3.742   1.586   9.353 -0.0169  0.5026 -0.1458
51248SOL    HW160605   3.724   1.628   9.269  0.7536  0.9443 -0.0896
51248SOL    HW260606   3.695   1.502   9.348 -3.3525  2.1286  0.5251
51249SOL     OW60607   7.126   0.637   0.405 -0.1792  0.0021  0.1963
51249SOL    HW160608   7.216   0.655   0.377  0.0799  0.7452  1.4445
51249SOL    HW260609   7.082   0.722   0.402 -0.6961 -0.2633  0.1063
51250SOL     OW60610   7.441   3.557   6.274 -0.2442  0.0739 -0.1287
51250SOL    HW160611   7.423   3.632   6.218 -0.6708 -1.3615 -2.0316
51250SOL    HW260612   7.536   3.544   6.270 -0.3045 -0.1869 -0.7668
51251SOL     OW60613  11.195   2.085   4.949  0.6864 -0.0275  0.2112
51251SOL    HW160614  11.250   2.053   5.020 -1.6312 -0.2906  2.0153
51251SOL    HW260615  11.107   2.089   4.987 -0.5364  0.5145 -2.4605
51252SOL     OW60616   3.597   6.535  10.689  0.7238  0.3970  0.4046
51252SOL    HW160617   3.582   6.619  10.731  1.1812  0.6734  0.0253
51252SOL    HW260618   3.509   6.500  10.673  0.4250  1.8497 -1.5097
51253SOL     OW60619   9.736   6.169   6.991 -0.4001  0.0728  1.1532
51253SOL    HW160620   9.684   6.106   6.941  1.5637 -1.2554  0.6555
51253SOL    HW260621   9.673   6.213   7.048 -2.3843  0.1188 -0.9492
51254SOL     OW60622   6.582   0.770   0.811  0.4738 -0.3863  0.1791
51254SOL    HW160623   6.644   0.765   0.738 -0.5091 -0.2135 -0.6872
51254SOL    HW260624   6.569   0.679   0.838 -0.0506 -0.5634 -0.6440
51255SOL     OW60625   5.860   6.213  11.175  0.6399  0.3578 -0.6308
51255SOL    HW160626   5.824   6.219  11.264 -1.0117  1.4766 -1.3330
51255SOL    HW260627   5.793   6.168  11.125  0.9850  0.8986 -1.6043
51256SOL     OW60628   7.483   6.296   7.184  0.1466  0.1379 -0.0373
51256SOL    HW160629   7.510   6.328   7.097 -1.4016  0.5053 -0.4089
51256SOL    HW260630   7.429   6.366   7.219  0.0512 -0.3839  0.8697
51257SOL     OW60631   7.834  12.306   7.036 -0.1962  0.1404  0.0623
51257SOL    HW160632   7.759  12.292   7.094 -0.3776 -0.2719 -0.2712
51257SOL    HW260633   7.893  12.361   7.087 -1.1531  1.3068 -0.0336
51258SOL     OW60634   8.146   2.490   3.402 -0.4121 -0.7469 -0.2695
51258SOL    HW160635   8.090   2.413   3.390 -0.6951 -0.7422  0.9130
51258SOL    HW260636   8.179   2.483   3.491  0.0253  0.1984 -0.3413
51259SOL     OW60637  11.551   7.015   6.914 -0.4657  0.3571 -0.2234
51259SOL    HW160638  11.528   7.014   6.821  0.6779  0.4882 -0.5268
51259SOL    HW260639  11.615   7.085   6.921 -0.4439  0.2526  0.6404
51260SOL     OW60640   8.103  10.121   2.388  0.2641  0.7484  0.2032
51260SOL    HW160641   8.020  10.105   2.343  0.8865  0.5034 -0.9095
51260SOL    HW260642   8.078  10.144   2.477 -1.0730  1.9074 -0.4229
51261SOL     OW60643   9.138   1.375   9.172  0.1377  0.1168 -0.0129
51261SOL    HW160644   9.110   1.378   9.264  0.3460  0.4987  0.0420
51261SOL    HW260645   9.069   1.423   9.125  0.4975  0.7218  0.0707
51262SOL     OW60646   4.448   6.163   6.854 -0.2083  0.3345  0.6482
51262SOL    HW160647   4.397   6.243   6.847  0.3081  0.6370  0.2830
51262SOL    HW260648   4.386   6.093   6.834 -0.5300  0.6776  0.4375
51263SOL     OW60649   9.227  10.271   0.981  0.1936 -0.4804 -0.1005
51263SOL    HW160650   9.172  10.257   1.058  1.1977 -0.2333  0.6902
51263SOL    HW260651   9.293  10.335   1.010  0.8811 -0.7434 -1.0169
51264SOL     OW60652  12.075  11.078   3.185 -0.5253 -0.1761 -0.3916
51264SOL    HW160653  12.039  11.031   3.260 -1.8118  0.2762 -0.6908
51264SOL    HW260654  12.064  11.171   3.208  2.4863  0.0579  0.4381
51265SOL     OW60655   3.402   6.135   5.386 -0.1888  0.1332  0.2598
51265SOL    HW160656   3.439   6.061   5.435 -1.2903  0.0725  1.0258
51265SOL    HW260657   3.400   6.104   5.295 -1.8485 -1.3139  0.7394
51266SOL     OW60658  11.690   5.736  11.616  0.1908  0.3646  0.1621
51266SOL    HW160659  11.730   5.821  11.637  0.3317  0.5509 -0.7986
51266SOL    HW260660  11.750   5.698  11.551 -1.4390  0.8866 -1.7388
51267SOL     OW60661   4.365  10.412   8.749 -0.1733  0.5717  0.4838
51267SOL    HW160662   4.396  10.322   8.761 -2.0216 -0.1816 -0.0041
51267SOL    HW260663   4.371  10.451   8.836 -1.1901 -0.6749  1.1614
51268SOL     OW60664   6.394   1.777   6.713  0.0349 -0.1818  0.1212
51268SOL    HW160665   6.361   1.866   6.731 -1.0791 -0.6113  0.2842
51268SOL    HW260666   6.489   1.787   6.714 -0.0078  1.5480 -2.4867
51269SOL     OW60667   3.863   8.404   1.066 -0.3033 -0.1332  0.4171
51269SOL    HW160668   3.930   8.441   1.124 -0.8315  0.8772  0.4091
51269SOL    HW260669   3.909   8.388   0.984  0.1445 -0.3362  0.7003
51270SOL     OW60670   0.773  11.471   2.938 -0.1723  0.4464 -0.2439
51270SOL    HW160671   0.703  11.406   2.932 -1.6117  1.7862  1.1031
51270SOL    HW260672   0.850  11.420   2.965 -1.0475 -0.8163 -0.0136
51271SOL     OW60673   0.730   9.160   7.151 -0.8799 -0.8906  0.5595
51271SOL    HW160674   0.811   9.206   7.173 -0.3427 -1.7007  0.3262
51271SOL    HW260675   0.671   9.228   7.118  0.1152 -0.4577 -0.3849
51272SOL     OW60676   1.698   8.064   3.771  0.6004 -0.4175  0.0053
51272SOL    HW160677   1.651   8.066   3.688  1.2841 -0.7863 -0.4029
51272SOL    HW260678   1.684   8.151   3.808  1.5759  0.3144 -1.2403
51273SOL     OW60679   6.172   3.996   6.290  0.7815 -0.4116  0.7719
51273SOL    HW160680   6.223   4.067   6.251 -0.2780 -0.5672 -1.0398
51273SOL    HW260681   6.116   4.040   6.355  0.4921  0.3553  0.0260
51274SOL     OW60682   1.081   5.631   3.134  0.4929 -0.0799  0.4105
51274SOL    HW160683   1.044   5.696   3.074  0.4466  0.6353  1.1959
51274SOL    HW260684   1.034   5.550   3.113  2.5697 -0.6984 -2.6424
51275SOL     OW60685   6.958   6.547  12.470 -0.0833 -0.0011  0.3738
51275SOL    HW160686   7.046   6.586  12.476 -0.9530  2.0980  0.5893
51275SOL    HW260687   6.902   6.621  12.446 -1.5581 -1.6574 -1.5151
51276SOL     OW60688   9.158   3.494   6.990  0.0907  0.2935  0.2874
51276SOL    HW160689   9.091   3.427   7.005  1.4209 -1.0617  0.3158
51276SOL    HW260690   9.220   3.483   7.061  1.4679  0.1100 -0.8937
51277SOL     OW60691   6.581   9.167   5.337 -0.0211  0.2096  0.2172
51277SOL    HW160692   6.513   9.216   5.383 -0.6336 -0.5199  0.1087
51277SOL    HW260693   6.659   9.177   5.393 -0.5054  0.1332  0.9279
51278SOL     OW60694   7.569   2.867   0.187 -0.2641  0.5841  0.0890
51278SOL    HW160695   7.644   2.918   0.157 -0.8883  2.0093  0.8652
51278SOL    HW260696   7.574   2.785   0.137  0.5344  1.5624 -1.5275
51279SOL     OW60697  11.555   7.254   2.890  0.4324 -0.2503  0.0583
51279SOL    HW160698  11.510   7.293   2.816  0.8435  0.6126  0.2517
51279SOL    HW260699  11.641   7.295   2.891  1.3782 -2.1263 -0.5130
51280SOL     OW60700   6.573   0.904   7.773 -0.0075  0.2515 -0.3737
51280SOL    HW160701   6.666   0.882   7.773  0.2195  1.0539 -2.0134
51280SOL    HW260702   6.546   0.892   7.682 -0.5655  3.6026 -0.7663
51281SOL     OW60703   6.663   8.919   3.057 -0.0168 -0.2710 -0.0508
51281SOL    HW160704   6.580   8.962   3.076  1.2004  2.3225 -0.1336
51281SOL    HW260705   6.639   8.837   3.014 -2.5154 -0.1121  0.8850
51282SOL     OW60706  11.271   3.450   0.503 -0.0459  0.2253 -0.0412
51282SOL    HW160707  11.241   3.453   0.412  0.0501 -2.7042 -0.2539
51282SOL    HW260708  11.197   3.416   0.552  0.2945  0.6770  0.8138
51283SOL     OW60709   9.600   8.293   7.773 -0.4777 -0.5953 -0.4863
51283SOL    HW160710   9.574   8.222   7.832  0.7970  0.7201  1.7943
51283SOL    HW260711   9.518   8.319   7.731 -1.5728 -1.2710  1.0943
51284SOL     OW60712   8.278  11.292   5.981 -0.8809  0.0463  0.0100
51284SOL    HW160713   8.305  11.303   6.073 -0.9236 -1.6658  0.2658
51284SOL    HW260714   8.311  11.370   5.937 -0.5811  0.7537  1.4229
51285SOL     OW60715   2.506  10.650   7.648  0.1841  0.3021  0.4937
51285SOL    HW160716   2.491  10.744   7.640  0.6630  0.3072 -0.3895
51285SOL    HW260717   2.597  10.642   7.677 -0.2110  0.1320  1.7887
51286SOL     OW60718  10.260   0.409   6.428 -0.1096  0.3988 -0.0217
51286SOL    HW160719  10.306   0.327   6.415 -2.0976 -0.8969  0.7255
51286SOL    HW260720  10.305   0.471   6.370  0.6692 -1.4954 -1.5303
51287SOL     OW60721   1.851  10.676   8.659  0.0611  0.2820  0.4104
51287SOL    HW160722   1.785  10.732   8.701 -0.4433  0.7962 -0.9959
51287SOL    HW260723   1.823  10.672   8.567  0.0773 -2.3237  0.4674
51288SOL     OW60724   4.557   9.655   5.414 -0.0500 -0.0520  0.0581
51288SOL    HW160725   4.477   9.632   5.366  0.4284  0.0177 -0.7928
51288SOL    HW260726   4.600   9.720   5.358  1.3057 -1.1220 -0.1874
51289SOL     OW60727   3.416   8.030   8.798 -0.5039  0.1743 -0.0925
51289SOL    HW160728   3.419   7.939   8.827  0.0542  0.1395 -0.2530
51289SOL    HW260729   3.336   8.065   8.837 -1.1996 -0.6273 -0.7466
51290SOL     OW60730   4.872   1.696  10.493 -0.5667  0.5002  0.1861
51290SOL    HW160731   4.836   1.779  10.460  0.9765  1.3502  0.5372
51290SOL    HW260732   4.948   1.722  10.544 -0.5656 -1.0982  1.0594
51291SOL     OW60733   2.127   4.528   6.958  0.7529 -0.1361  0.2210
51291SOL    HW160734   2.141   4.441   6.921  1.7174  0.5730 -1.1622
51291SOL    HW260735   2.040   4.524   6.997  0.7025 -1.6562  0.0115
51292SOL     OW60736   3.765  10.064   2.028 -0.3467  0.0827 -0.2106
51292SOL    HW160737   3.845  10.076   1.978 -0.0645  1.8344  0.5951
51292SOL    HW260738   3.789  10.003   2.098  0.1790  0.2712 -0.2219
51293SOL     OW60739   3.552   5.959   9.363  0.2956  0.4851  0.1005
51293SOL    HW160740   3.517   5.945   9.451 -1.4169  3.3312 -0.0162
51293SOL    HW260741   3.541   5.874   9.320 -0.7566 -0.4202  1.9904
51294SOL     OW60742   9.370   6.223  11.733  0.4839  0.0271  0.0354
51294SOL    HW160743   9.418   6.148  11.770  0.3526 -0.2568 -0.3625
51294SOL    HW260744   9.380   6.292  11.798 -0.7897 -0.8440  1.2132
51295SOL     OW60745   5.086  10.356   2.037  0.3459 -0.7422  0.0957
51295SOL    HW160746   5.148  10.347   2.109  0.2863 -0.6044  0.1648
51295SOL    HW260747   5.059  10.266   2.017  0.5440 -0.7996  0.0855
51296SOL     OW60748   8.809   2.511   6.262 -0.1256  0.2947 -0.2286
51296SOL    HW160749   8.800   2.483   6.171  0.8202 -0.6104 -0.0517
51296SOL    HW260750   8.901   2.534   6.271 -0.5126  1.7745  0.1264
51297SOL     OW60751   3.589  11.762  11.692 -0.1379  0.4468  0.1164
51297SOL    HW160752   3.551  11.765  11.604 -0.0431 -0.5003  0.0400
51297SOL    HW260753   3.672  11.716  11.681 -0.5875 -0.5836  0.8625
51298SOL     OW60754   6.348  10.380   2.667 -0.0589  0.8438 -0.7646
51298SOL    HW160755   6.397  10.349   2.591  0.0348  0.1867 -0.4480
51298SOL    HW260756   6.258  10.351   2.651  0.1838 -0.3941 -0.0724
51299SOL     OW60757   0.265   4.879  12.296 -0.1555  0.1243 -0.2290
51299SOL    HW160758   0.261   4.931  12.216 -1.4396  0.4917  0.0386
51299SOL    HW260759   0.333   4.814  12.280 -1.1579 -0.5317 -2.0738
51300SOL     OW60760  10.490  10.080   8.433 -0.1124 -0.1572  0.0256
51300SOL    HW160761  10.468  10.084   8.526 -0.6234  0.2289 -0.1071
51300SOL    HW260762  10.424  10.135   8.390  1.4482  1.5543 -0.3310
51301SOL     OW60763   1.099  10.321   1.303 -0.4980  0.5454 -0.0898
51301SOL    HW160764   1.106  10.417   1.299 -1.9650  0.6613 -0.8126
51301SOL    HW260765   1.137  10.291   1.221 -0.6984  0.5779 -0.1975
51302SOL     OW60766  11.119   4.485  10.130  0.3511 -0.0457 -0.3137
51302SOL    HW160767  11.153   4.483  10.041  0.3994 -1.1464 -0.2849
51302SOL    HW260768  11.029   4.452  10.122 -0.6378  2.4371 -0.3324
51303SOL     OW60769   5.393   0.198   5.948 -0.2927  0.3577 -0.1958
51303SOL    HW160770   5.430   0.283   5.973 -0.0213 -0.1637  1.2413
51303SOL    HW260771   5.302   0.201   5.977  0.1000 -0.3543  1.1958
51304SOL     OW60772   8.042   6.868   0.981 -0.2186  0.4624  0.0321
51304SOL    HW160773   8.111   6.934   0.991 -0.4702  0.6161  0.8220
51304SOL    HW260774   8.052   6.811   1.057 -1.0795  0.5970  0.2514
51305SOL     OW60775   9.945   5.612  10.871  0.2100  0.4559  0.5116
51305SOL    HW160776   9.993   5.695  10.878  0.6724  0.3272 -0.7484
51305SOL    HW260777  10.001   5.548  10.916 -0.4460  0.9183  2.0328
51306SOL     OW60778   9.209   9.897   1.731  0.3713 -0.0752  0.1028
51306SOL    HW160779   9.142   9.966   1.721  0.5684  0.0728 -0.2440
51306SOL    HW260780   9.258   9.901   1.649  1.0610  0.0856  0.5150
51307SOL     OW60781  11.330  10.622   1.791  0.3950 -0.4507 -0.5096
51307SOL    HW160782  11.280  10.606   1.711 -1.7407 -0.8260  0.8399
51307SOL    HW260783  11.361  10.536   1.818  0.9720 -0.3457 -0.8150
51308SOL     OW60784  10.936   6.101   5.033  0.3198 -0.5034  0.4995
51308SOL    HW160785  11.011   6.045   5.049  1.6962  1.3206  0.6916
51308SOL    HW260786  10.938   6.166   5.103  1.1172  2.1424 -1.7647
51309SOL     OW60787   4.580   6.364   1.974  0.2641  0.0687  0.3976
51309SOL    HW160788   4.512   6.308   2.011  1.4451 -0.6152  1.5952
51309SOL    HW260789   4.630   6.394   2.049  0.9678  0.9972 -0.4203
51310SOL     OW60790   2.251  10.439  11.366 -0.2885  0.3455  0.0365
51310SOL    HW160791   2.158  10.430  11.387 -0.8479 -0.0034 -2.2146
51310SOL    HW260792   2.273  10.357  11.321  1.3325  0.1219  1.1391
51311SOL     OW60793  11.882  11.241   6.730 -0.1803 -0.2884  0.3815
51311SOL    HW160794  11.851  11.293   6.656 -0.7626  1.2288  1.6298
51311SOL    HW260795  11.977  11.245   6.723 -0.1928  1.4353  0.7336
51312SOL     OW60796   0.745   9.653  10.884  0.4106 -0.4811 -0.3193
51312SOL    HW160797   0.777   9.573  10.925  0.5767 -0.1791  0.1464
51312SOL    HW260798   0.824   9.699  10.855  0.3615 -0.1376  0.0758
51313SOL     OW60799  11.699   3.079   9.156  0.2738  1.0622  0.3249
51313SOL    HW160800  11.737   3.137   9.090  1.8771 -1.0525 -0.7489
51313SOL    HW260801  11.612   3.057   9.121  0.8721  0.4305 -0.8298
51314SOL     OW60802  11.090  10.370  10.804  0.2997  0.0113  0.0991
51314SOL    HW160803  11.015  10.430  10.799 -0.8028 -1.2927  0.3687
51314SOL    HW260804  11.087  10.321  10.722  0.3861 -0.5701  0.4373
51315SOL     OW60805   7.278   8.143   3.737 -0.5863 -0.3089  0.9204
51315SOL    HW160806   7.319   8.211   3.789  1.0852 -0.3474 -0.2919
51315SOL    HW260807   7.201   8.185   3.698 -0.6999  0.2881  1.7706
51316SOL     OW60808  11.008   1.572   6.850  0.2188 -0.0972 -0.4602
51316SOL    HW160809  10.947   1.605   6.784  0.2499 -0.4280 -0.6573
51316SOL    HW260810  11.089   1.618   6.832  0.5090 -0.8845 -1.2776
51317SOL     OW60811  11.480  11.021  10.506 -0.4282  0.2869  0.0699
51317SOL    HW160812  11.546  11.058  10.446 -0.0740  2.2928  1.5957
51317SOL    HW260813  11.398  11.063  10.479 -0.2473  1.2901  0.9891
51318SOL     OW60814  12.432   1.548  10.790 -0.0912  0.0198 -0.7199
51318SOL    HW160815  12.437   1.564  10.885 -0.9217  1.8544 -0.9301
51318SOL    HW260816  12.338   1.541  10.772  0.0177  0.4820 -1.5073
51319SOL     OW60817   4.340   8.995   7.155  0.3382  0.2167 -0.5189
51319SOL    HW160818   4.411   9.027   7.101 -0.0949  2.0586 -0.0552
51319SOL    HW260819   4.381   8.970   7.238  0.2108  4.1225  0.9127
51320SOL     OW60820  10.929   4.932   4.109  0.2053  0.1735 -0.2250
51320SOL    HW160821  11.019   4.964   4.098 -0.3882  1.6652 -0.9839
51320SOL    HW260822  10.881   4.972   4.036 -0.8471 -1.5440 -0.5214
51321SOL     OW60823   6.076   1.650   8.445 -0.7290 -0.5072 -0.6143
51321SOL    HW160824   6.013   1.652   8.373  1.2382 -2.3639 -2.5189
51321SOL    HW260825   6.140   1.718   8.423 -0.6405 -0.4029 -0.0623
51322SOL     OW60826   0.855   5.955  11.485  0.2262 -0.3047 -0.0072
51322SOL    HW160827   0.900   5.957  11.569 -0.0522 -0.5481  0.1496
51322SOL    HW260828   0.879   5.871  11.446 -0.0129 -0.3923  0.0337
51323SOL     OW60829   0.807   1.222   3.526 -0.1447 -0.1317  0.4801
51323SOL    HW160830   0.870   1.249   3.593  0.0919 -0.1963  0.2803
51323SOL    HW260831   0.772   1.304   3.492 -0.1927 -0.0967  0.6122
51324SOL     OW60832   6.614  11.438   3.949 -0.0673  0.8720  0.2089
51324SOL    HW160833   6.587  11.347   3.934 -0.4030  0.8528  0.8902
51324SOL    HW260834   6.709  11.436   3.943  0.1590 -0.0689  2.8316
51325SOL     OW60835   8.466   4.894   3.700 -0.2831  0.4148 -0.0567
51325SOL    HW160836   8.416   4.913   3.621 -0.2705  0.1199 -0.1367
51325SOL    HW260837   8.403   4.852   3.759 -0.0034 -0.4632 -0.3665
51326SOL     OW60838   8.363   1.102   9.054 -0.0185  0.0948 -0.2276
51326SOL    HW160839   8.294   1.137   9.111  0.6102  0.1393  0.5142
51326SOL    HW260840   8.349   1.147   8.970 -1.6098 -0.7594 -0.4541
51327SOL     OW60841   2.741   3.576  10.931 -0.2639  0.1920 -0.2571
51327SOL    HW160842   2.803   3.571  10.859 -1.5792  2.2658 -1.6430
51327SOL    HW260843   2.795   3.598  11.007  1.1316 -1.8988 -0.5681
51328SOL     OW60844   2.474   1.112   9.089  0.5113  0.3654 -0.0121
51328SOL    HW160845   2.527   1.173   9.037  0.0436  0.1845 -0.7298
51328SOL    HW260846   2.385   1.148   9.083  0.3181 -0.1129 -0.0253
51329SOL     OW60847   6.348  11.238  10.098  0.2678 -0.0275 -0.4167
51329SOL    HW160848   6.305  11.320  10.123  0.8801  0.1310  0.1626
51329SOL    HW260849   6.374  11.251  10.007  0.6132  0.5395 -0.2405
51330SOL     OW60850   5.240   3.812   4.762 -0.2652 -0.4998 -0.1121
51330SOL    HW160851   5.313   3.766   4.721 -0.3604 -1.0573  0.3434
51330SOL    HW260852   5.163   3.761   4.736 -0.2643 -1.2620  1.3179
51331SOL     OW60853   6.906   7.536   5.120 -0.2422  0.3334  0.1970
51331SOL    HW160854   6.910   7.590   5.199 -2.5163 -0.6841  1.0943
51331SOL    HW260855   6.907   7.600   5.048  0.2493  1.3818  1.1023
51332SOL     OW60856   3.753   1.121   1.275  0.2795  0.5569  0.5367
51332SOL    HW160857   3.808   1.048   1.304  1.4553 -0.0845 -2.8355
51332SOL    HW260858   3.803   1.199   1.297 -0.6912  0.4547  3.5908
51333SOL     OW60859   0.177   7.033   3.177 -0.4553  0.3552  0.0458
51333SOL    HW160860   0.111   7.102   3.181 -0.8250 -0.0591  1.6203
51333SOL    HW260861   0.168   6.997   3.089  0.6421  3.1362 -1.3250
51334SOL     OW60862   9.661   3.657  12.236 -0.3053  0.0620 -0.1971
51334SOL    HW160863   9.599   3.718  12.197 -1.6219 -0.5726  0.8445
51334SOL    HW260864   9.625   3.571  12.218  1.2932 -0.4336 -1.2356
51335SOL     OW60865   0.206   4.597   1.663  0.0661 -0.0655 -0.1585
51335SOL    HW160866   0.183   4.542   1.588  0.5837 -0.3889 -0.0895
51335SOL    HW260867   0.260   4.666   1.626  0.3268 -0.2285 -0.0879
51336SOL     OW60868   3.250   2.226   3.779  0.1770 -0.0070 -0.5808
51336SOL    HW160869   3.329   2.225   3.832 -0.3959 -1.4341  0.2971
51336SOL    HW260870   3.230   2.319   3.767  1.3656  0.3500  0.1058
51337SOL     OW60871  12.068   4.974   2.798  0.1294 -0.4468 -0.2855
51337SOL    HW160872  12.047   4.881   2.809  1.8982 -0.9127 -0.5358
51337SOL    HW260873  12.115   4.978   2.714 -0.0624  0.6946 -0.3516
51338SOL     OW60874   8.571   0.089   3.334 -0.0783  0.2912  0.0579
51338SOL    HW160875   8.576   0.156   3.265  0.4225  0.9439  0.7112
51338SOL    HW260876   8.478   0.081   3.353 -0.1691  0.5883 -0.2403
51339SOL     OW60877  10.760   5.406   0.636 -0.1428 -0.1666 -0.0593
51339SOL    HW160878  10.709   5.482   0.665 -0.3727 -0.9024  1.5829
51339SOL    HW260879  10.696   5.336   0.627  0.2664 -0.5236 -0.2154
51340SOL     OW60880   6.006   1.002   9.318  0.2518 -0.8274  0.3034
51340SOL    HW160881   6.051   0.924   9.286 -1.2894 -1.7059  0.1583
51340SOL    HW260882   5.948   0.969   9.387 -2.8612 -0.4493 -1.9076
51341SOL     OW60883  11.118   5.931   7.037 -0.1335 -0.3167  0.5587
51341SOL    HW160884  11.028   5.946   7.067  0.3288  1.3106  1.2475
51341SOL    HW260885  11.144   5.849   7.078 -1.2007 -0.6467  0.6034
51342SOL     OW60886  11.986   0.328  12.473 -0.4163  0.6625 -0.1195
51342SOL    HW160887  12.057   0.385  12.443  0.9300 -0.5411  0.6624
51342SOL    HW260888  11.981   0.344  12.567 -1.5654  1.1228 -0.2479
51343SOL     OW60889   6.648   3.946   2.375  0.1943 -0.4133 -0.1734
51343SOL    HW160890   6.734   3.913   2.350 -0.4425 -2.7301  0.4436
51343SOL    HW260891   6.633   4.020   2.316  2.8323  0.4932  0.1361
51344SOL     OW60892   1.320  10.696   6.559  0.2296 -0.4067  0.1500
51344SOL    HW160893   1.244  10.663   6.511  0.3011  1.2489 -1.1915
51344SOL    HW260894   1.395  10.672   6.505  0.3919  0.6351 -0.1162
51345SOL     OW60895   4.089  10.898   3.738  0.0032 -0.0025  0.1610
51345SOL    HW160896   4.064  10.981   3.778  0.4382  0.4402 -0.4733
51345SOL    HW260897   4.101  10.839   3.812  0.9189  0.8399  0.7171
51346SOL     OW60898   3.384   5.220   7.003  0.0397 -0.1077  0.1074
51346SOL    HW160899   3.452   5.279   7.038  0.9951 -0.7886 -0.5521
51346SOL    HW260900   3.305   5.273   7.000  0.7205  0.9292  0.1825
51347SOL     OW60901   1.882   8.346  12.053 -0.4399  0.2680  0.1160
51347SOL    HW160902   1.835   8.280  12.104  0.3828 -0.9940 -0.7161
51347SOL    HW260903   1.972   8.314  12.048  0.3333  2.1495  0.8491
51348SOL     OW60904   6.014   2.164   9.579 -0.0259 -0.1827 -0.1495
51348SOL    HW160905   6.097   2.191   9.539 -0.6397 -0.3385 -1.5694
51348SOL    HW260906   6.002   2.074   9.550  1.0798 -1.4995  3.0362
51349SOL     OW60907   4.204   9.691   9.518  0.2528  0.0775  0.1736
51349SOL    HW160908   4.235   9.780   9.501  2.3928 -0.7560 -0.7498
51349SOL    HW260909   4.176   9.659   9.432  2.8367 -1.2452 -0.2817
51350SOL     OW60910   5.682   6.072   9.659 -0.1132 -0.1925  0.3987
51350SOL    HW160911   5.652   6.149   9.611  3.0348  0.9619  0.0819
51350SOL    HW260912   5.656   5.998   9.604 -0.8699  0.7966 -0.6248
51351SOL     OW60913   2.521   4.087   1.447 -0.3450 -0.7409  0.4992
51351SOL    HW160914   2.578   4.037   1.506  1.4813  0.1979 -0.3658
51351SOL    HW260915   2.487   4.022   1.386  0.4782 -1.2336  0.5370
51352SOL     OW60916   1.958  10.346  11.422  0.4185 -0.6782 -0.1535
51352SOL    HW160917   1.989  10.270  11.471  0.3286 -1.5290 -1.3763
51352SOL    HW260918   1.873  10.366  11.460  1.0688 -0.2786  1.1371
51353SOL     OW60919   5.388   6.746   8.456  0.0034  0.0885 -0.4168
51353SOL    HW160920   5.355   6.812   8.517  1.8483  0.5389  0.1569
51353SOL    HW260921   5.338   6.667   8.477  0.6829  0.1906  1.8166
51354SOL     OW60922   7.374   3.557   7.063  0.5067 -0.1005 -0.0616
51354SOL    HW160923   7.284   3.570   7.034  0.1884 -2.0660 -0.0690
51354SOL    HW260924   7.383   3.613   7.140  0.5123  3.0812 -2.1675
51355SOL     OW60925   6.373   9.974   3.957  0.2460 -0.0051 -0.6898
51355SOL    HW160926   6.287   9.932   3.958  0.1532  0.1586  0.6135
51355SOL    HW260927   6.396   9.981   3.865 -2.7570  3.2714 -1.3913
51356SOL     OW60928  10.709   8.792   7.090  0.2329  0.4914  0.3976
51356SOL    HW160929  10.646   8.764   7.023  0.7596 -0.7547  0.4031
51356SOL    HW260930  10.663   8.781   7.173  0.4046 -0.2922  0.3928
51357SOL     OW60931  11.716  10.287   3.225  0.2188  0.0849  0.1317
51357SOL    HW160932  11.686  10.224   3.159 -1.6536  0.3738  0.6491
51357SOL    HW260933  11.742  10.233   3.299  0.7658 -0.1643 -0.2340
51358SOL     OW60934   7.088   8.529   2.203  0.0945 -0.1863  0.1392
51358SOL    HW160935   7.025   8.598   2.183  0.3960 -0.0537 -0.4035
51358SOL    HW260936   7.051   8.450   2.163  0.5926  0.0347 -0.8048
51359SOL     OW60937   0.315   5.991   4.811 -0.3153  0.4732 -0.3754
51359SOL    HW160938   0.277   6.022   4.729  0.6115  1.5303 -0.4182
51359SOL    HW260939   0.406   6.021   4.809 -0.2456  0.4201  0.9883
51360SOL     OW60940   3.268   6.323   1.288 -0.2426  0.3099 -0.5398
51360SOL    HW160941   3.226   6.266   1.353 -0.6337 -0.7423 -1.6641
51360SOL    HW260942   3.231   6.295   1.204  1.4999  0.4520 -1.4124
51361SOL     OW60943   6.989   6.691  12.077  0.4708  0.1303  0.2196
51361SOL    HW160944   6.931   6.624  12.113 -1.4794 -0.0519 -2.8729
51361SOL    HW260945   6.957   6.773  12.114 -0.2473 -0.2211  0.3956
51362SOL     OW60946  10.111  10.265   4.359  0.1632 -0.5133 -0.2227
51362SOL    HW160947  10.180  10.290   4.298  0.7954 -1.0295  0.2704
51362SOL    HW260948  10.030  10.292   4.316  0.7547  1.7084 -0.0295
51363SOL     OW60949  10.593  11.669   7.170  0.0237 -0.1854  0.3142
51363SOL    HW160950  10.656  11.718   7.222  0.2191  0.7394 -0.7607
51363SOL    HW260951  10.508  11.694   7.206  0.0210  2.2340 -1.2380
51364SOL     OW60952   2.016   1.090   2.390 -0.4958 -0.0628  0.0316
51364SOL    HW160953   1.930   1.074   2.352 -1.2826  1.9672  0.8228
51364SOL    HW260954   2.024   1.027   2.461 -0.4969 -1.5148 -1.2011
51365SOL     OW60955  12.092   3.492  12.256  0.0435  0.3552 -0.8367
51365SOL    HW160956  12.141   3.429  12.203  0.6667 -0.9920  1.2263
51365SOL    HW260957  12.151   3.512  12.329 -1.8070 -0.0556  0.8530
51366SOL     OW60958  10.012   0.583   9.687 -0.2332 -0.2006  0.1472
51366SOL    HW160959   9.951   0.578   9.761  1.2549 -0.6645  1.3806
51366SOL    HW260960   9.958   0.615   9.614 -1.7499  0.2304  1.4045
51367SOL     OW60961   6.876   9.144   2.728 -0.1042 -0.6873 -0.5889
51367SOL    HW160962   6.863   9.050   2.733  0.5569 -0.7287  1.1512
51367SOL    HW260963   6.835   9.179   2.807  1.5326  0.2156 -0.0795
51368SOL     OW60964   2.370   8.188   9.264 -0.3781  0.6879 -0.0853
51368SOL    HW160965   2.408   8.273   9.288  0.1309  0.3335  0.3995
51368SOL    HW260966   2.347   8.147   9.348 -2.1667  1.0299 -0.3833
51369SOL     OW60967   7.207   1.835   2.192 -0.5340  0.0510 -0.6030
51369SOL    HW160968   7.234   1.891   2.264  0.3371 -0.4432 -0.5241
51369SOL    HW260969   7.118   1.809   2.213  0.0169 -0.8132  0.7741
51370SOL     OW60970   4.843   9.389   4.761 -0.3118  0.3500 -0.2442
51370SOL    HW160971   4.756   9.380   4.721 -0.3122  1.4054 -0.5209
51370SOL    HW260972   4.882   9.302   4.754 -0.7770  0.2220 -1.4800
51371SOL     OW60973   9.049   9.434  11.204 -0.3580 -0.0854  0.0079
51371SOL    HW160974   9.029   9.516  11.158  0.9883 -0.2238 -0.8782
51371SOL    HW260975   9.041   9.367  11.137  0.6784 -0.4081  0.1832
51372SOL     OW60976   7.156   2.798  11.865 -0.1744 -0.6852  0.5596
51372SOL    HW160977   7.071   2.780  11.825 -0.9705 -0.1139  1.9289
51372SOL    HW260978   7.217   2.803  11.791 -1.5240  0.0171 -0.5445
51373SOL     OW60979  11.631   3.791   9.508 -0.1621 -0.0427 -0.9500
51373SOL    HW160980  11.669   3.704   9.518 -2.0108 -0.8326 -0.4520
51373SOL    HW260981  11.556   3.779   9.449 -1.9964  0.6733  1.1039
51374SOL     OW60982   4.503   9.031  10.878 -0.1827 -0.4821  0.4633
51374SOL    HW160983   4.459   8.986  10.806 -1.4423  0.0186  0.9002
51374SOL    HW260984   4.575   9.079  10.836 -2.6717  2.3066 -1.0245
51375SOL     OW60985   2.513   0.389   9.422 -0.8026 -0.3466  0.3549
51375SOL    HW160986   2.594   0.404   9.372 -0.0592  1.1839  1.8782
51375SOL    HW260987   2.482   0.304   9.392  1.0061 -0.6789 -0.7869
51376SOL     OW60988   8.138   3.105   6.970  0.1248  0.2604  0.2887
51376SOL    HW160989   8.064   3.077   7.023  0.7244 -1.3183  0.3578
51376SOL    HW260990   8.120   3.196   6.949 -1.1734  0.2866  1.4071
51377SOL     OW60991  11.175   3.751   0.578  0.1597 -0.0456 -0.1545
51377SOL    HW160992  11.212   3.663   0.579 -2.0190 -1.0905 -1.9170
51377SOL    HW260993  11.206   3.791   0.659  0.8225 -2.6044  0.9555
51378SOL     OW60994   0.539   5.762   3.092 -0.0385  0.3182 -0.4119
51378SOL    HW160995   0.484   5.684   3.091  1.2041 -0.5830 -0.8754
51378SOL    HW260996   0.501   5.819   3.025 -0.2403 -0.4328 -0.9576
51379SOL     OW60997   7.517   0.616   1.181  0.5644 -0.2754  0.5764
51379SOL    HW160998   7.598   0.615   1.130  1.0025  0.6922  1.2265
51379SOL    HW260999   7.546   0.624   1.272 -0.2613  0.1392  0.8136
51380SOL     OW61000  12.291   8.775   7.296  0.4120 -0.4890 -0.0565
51380SOL    HW161001  12.298   8.845   7.232  0.3653 -0.4656 -0.0361
51380SOL    HW261002  12.381   8.758   7.323  0.8566 -2.8029 -2.5939
51381SOL     OW61003   3.613   5.207   3.021 -0.0035  0.2237 -0.3562
51381SOL    HW161004   3.557   5.188   3.097  0.7369  0.3052  0.2173
51381SOL    HW261005   3.682   5.141   3.026  1.0754  1.3571  0.0955
51382SOL     OW61006  10.880   3.223   8.540 -0.3302 -0.2004 -0.1231
51382SOL    HW161007  10.817   3.294   8.530  0.0534  0.0696 -0.6655
51382SOL    HW261008  10.837   3.160   8.599 -0.7846  0.3436  0.1322
51383SOL     OW61009   6.498   5.661   1.953 -0.3519 -0.3545  0.1565
51383SOL    HW161010   6.478   5.573   1.922 -0.0719 -0.0730 -0.8849
51383SOL    HW261011   6.547   5.648   2.034 -1.4030 -1.1136  0.6811
51384SOL     OW61012  10.344   5.931   1.694  0.0631 -0.0573 -0.1347
51384SOL    HW161013  10.370   5.891   1.611 -2.2774 -1.4969 -0.2699
51384SOL    HW261014  10.333   6.024   1.673  0.8988 -0.1406 -1.0486
51385SOL     OW61015   6.477   5.253   7.477  0.7770 -0.0556  0.0038
51385SOL    HW161016   6.498   5.344   7.499  1.2557  0.6832 -2.9935
51385SOL    HW261017   6.552   5.223   7.427  0.2527 -1.8482  0.2437
51386SOL     OW61018   9.368   0.897   4.542 -0.1403 -0.4863 -0.2497
51386SOL    HW161019   9.405   0.960   4.604 -2.2359  0.2512  0.3301
51386SOL    HW261020   9.310   0.950   4.486 -2.6037 -1.9392  0.7763
51387SOL     OW61021  12.131   2.422   5.947 -0.6147  0.6775  0.2091
51387SOL    HW161022  12.136   2.350   6.010 -0.8512 -0.7308 -1.3287
51387SOL    HW261023  12.221   2.455   5.942  0.2732 -1.6935 -1.4491
51388SOL     OW61024   5.015   8.676   4.714  0.4776  0.2075 -0.4037
51388SOL    HW161025   4.958   8.726   4.772  0.8360  0.8170 -0.5722
51388SOL    HW261026   5.059   8.613   4.772 -1.9363 -1.7801 -0.5596
51389SOL     OW61027   5.640   6.782   1.027  0.5958  0.0479 -0.2034
51389SOL    HW161028   5.725   6.751   0.996  1.7112  0.1187  2.4888
51389SOL    HW261029   5.611   6.845   0.961  1.8290 -1.2071 -2.0085
51390SOL     OW61030   9.448   5.623  12.289 -0.3577  0.0303  0.0681
51390SOL    HW161031   9.525   5.626  12.231 -0.2201  1.7445  0.3103
51390SOL    HW261032   9.380   5.670  12.242 -0.5715  0.4994  0.8281
51391SOL     OW61033   3.229   8.362   7.966  0.1481  0.1643  0.3667
51391SOL    HW161034   3.251   8.311   8.044 -0.1053  1.2493  1.1635
51391SOL    HW261035   3.177   8.301   7.912 -0.4209 -0.3316  1.4389
51392SOL     OW61036   2.309   6.039   8.040  0.0877  0.0374 -0.2670
51392SOL    HW161037   2.316   6.132   8.062 -0.3471  0.4017 -1.5505
51392SOL    HW261038   2.308   5.994   8.124 -0.1870  1.2368  0.3910
51393SOL     OW61039   9.247   8.677   7.842  0.4438 -0.0675  0.0044
51393SOL    HW161040   9.182   8.643   7.781  0.5242 -0.3890  0.0963
51393SOL    HW261041   9.267   8.603   7.899 -0.2115  0.4269  0.9180
51394SOL     OW61042   1.048   1.220  12.000 -0.0742  0.6980  0.6427
51394SOL    HW161043   1.114   1.236  12.067  1.4621 -1.7476 -0.1145
51394SOL    HW261044   0.965   1.219  12.047  0.7745  0.7363  2.2115
51395SOL     OW61045   5.185   6.106  11.663 -0.2849  0.8462  0.6300
51395SOL    HW161046   5.220   6.018  11.675  0.7736  0.9501 -1.3725
51395SOL    HW261047   5.218   6.155  11.739 -0.6914 -0.3825  1.6390
51396SOL     OW61048   6.722   3.148   2.586  0.7937 -0.0750 -0.4947
51396SOL    HW161049   6.759   3.165   2.672 -0.4502 -0.0600  0.0641
51396SOL    HW261050   6.642   3.201   2.584  0.7899 -0.0932 -1.6524
51397SOL     OW61051   6.433   5.459   0.079 -0.4722  0.0400 -0.0062
51397SOL    HW161052   6.365   5.407   0.121  0.3349 -0.8849  0.2010
51397SOL    HW261053   6.395   5.487  -0.003 -0.9667 -0.8167 -0.0803
51398SOL     OW61054  11.249  10.132   1.743 -0.2293 -0.1042 -0.2813
51398SOL    HW161055  11.254  10.059   1.682 -1.9709 -0.3200 -0.1995
51398SOL    HW261056  11.156  10.153   1.748  0.1566  1.6146  0.2974
51399SOL     OW61057   5.605  11.151   4.217 -0.0585 -0.3385  0.3309
51399SOL    HW161058   5.570  11.240   4.213  0.6835 -0.0947 -2.0039
51399SOL    HW261059   5.533  11.099   4.253 -0.5407  1.1510  1.6263
51400SOL     OW61060   7.604   3.451   4.744 -0.1312  0.6681 -0.2605
51400SOL    HW161061   7.639   3.540   4.750 -0.2424  0.7546 -0.8882
51400SOL    HW261062   7.622   3.412   4.830 -1.5951  1.8514  0.6250
51401SOL     OW61063  12.357  12.009   7.143 -0.0979 -0.0769  0.4517
51401SOL    HW161064  12.313  11.932   7.108 -1.1234 -0.3485  2.2138
51401SOL    HW261065  12.312  12.083   7.102 -0.7751 -0.3915  0.6145
51402SOL     OW61066   5.625   2.261   5.332 -0.1770  0.3798  0.2400
51402SOL    HW161067   5.582   2.178   5.309 -0.6726  1.0128 -1.2000
51402SOL    HW261068   5.567   2.299   5.398 -0.0578 -0.3036  0.7583
51403SOL     OW61069   0.326  10.709  11.478 -0.1011 -1.4561  0.0846
51403SOL    HW161070   0.243  10.701  11.524 -0.8609  1.0793 -0.6574
51403SOL    HW261071   0.377  10.771  11.531  0.1664 -0.8017 -0.9016
51404SOL     OW61072   0.117   5.334   5.766  0.0491 -0.4266  0.3223
51404SOL    HW161073   0.145   5.276   5.696 -0.4210 -2.5377  1.7959
51404SOL    HW261074   0.185   5.401   5.770  1.4419 -1.7266 -0.4471
51405SOL     OW61075  10.691   7.739   7.486 -0.2466  0.0608 -0.2246
51405SOL    HW161076  10.722   7.708   7.571  0.5827  1.7059  0.1215
51405SOL    HW261077  10.614   7.792   7.506  0.0809  0.6384 -0.4428
51406SOL     OW61078   4.578   1.674   2.073 -0.1810  0.0125  0.2774
51406SOL    HW161079   4.583   1.668   1.978 -0.4336  2.3014  0.0779
51406SOL    HW261080   4.643   1.740   2.097  0.1001 -0.7404  1.7541
51407SOL     OW61081   8.954   7.507   6.847  0.7780 -0.3218 -0.2642
51407SOL    HW161082   8.890   7.543   6.784 -0.4489 -0.7851  0.6808
51407SOL    HW261083   9.014   7.580   6.864  0.5979  0.0879 -1.2803
51408SOL     OW61084   4.454   3.848   2.010  0.2918 -0.1600  0.2051
51408SOL    HW161085   4.457   3.864   2.105  0.4587  1.0637  0.0076
51408SOL    HW261086   4.395   3.772   2.001 -1.5893  1.1005  1.1522
51409SOL     OW61087   5.008  12.421   7.498  0.0581 -1.0099  0.4971
51409SOL    HW161088   5.024  12.327   7.490 -2.6201 -1.3736 -2.4071
51409SOL    HW261089   4.914  12.429   7.514  0.0968  1.1558  0.0305
51410SOL     OW61090   0.138   0.722  12.299 -0.4390 -0.2707  0.2648
51410SOL    HW161091   0.055   0.674  12.299 -1.2833  1.0562  1.7625
51410SOL    HW261092   0.121   0.799  12.244  0.4097 -0.8951 -0.8995
51411SOL     OW61093   6.007   1.433   0.548  0.0201 -0.3888 -0.7429
51411SOL    HW161094   5.950   1.500   0.511 -1.8269 -0.7075  1.3221
51411SOL    HW261095   5.996   1.358   0.489  1.3357  0.7197 -2.4987
51412SOL     OW61096   1.913   4.374   1.394 -0.1255 -0.3087 -0.0874
51412SOL    HW161097   1.915   4.469   1.383 -0.6413 -0.2794  0.0433
51412SOL    HW261098   1.820   4.352   1.395 -0.0761 -1.1247 -2.9452
51413SOL     OW61099  10.467   5.339   1.114 -0.3541  0.2560  0.2927
51413SOL    HW161100  10.403   5.402   1.081 -0.4723  0.1247  0.2693
51413SOL    HW261101  10.490   5.286   1.037  1.4050  1.6705 -0.2095
51414SOL     OW61102   2.513   3.774  10.538 -0.3104  0.4987  0.5230
51414SOL    HW161103   2.590   3.735  10.497  0.0438 -0.3683  1.9841
51414SOL    HW261104   2.442   3.755  10.477  0.5333  1.0189 -0.6798
51415SOL     OW61105  11.624   2.056   6.812  0.4045 -0.2534 -0.0013
51415SOL    HW161106  11.567   1.981   6.796 -0.4640 -0.1085  2.0717
51415SOL    HW261107  11.571   2.116   6.864  1.4096  1.3643 -0.7757
51416SOL     OW61108   8.094   7.919   4.159 -0.1645  0.0451 -0.3872
51416SOL    HW161109   8.087   7.839   4.107  1.2489  0.5810 -1.4618
51416SOL    HW261110   8.069   7.989   4.099  0.7804  0.6074 -0.1562
51417SOL     OW61111   3.256   8.052  11.199 -0.1228  0.1879  0.1894
51417SOL    HW161112   3.198   8.041  11.274  0.1109 -0.8343  0.2220
51417SOL    HW261113   3.196   8.058  11.124 -0.2849 -0.6516  0.2477
51418SOL     OW61114   6.241   5.245   0.056 -0.1684 -0.2512 -0.4088
51418SOL    HW161115   6.299   5.169   0.046 -0.4110 -0.2972 -1.6706
51418SOL    HW261116   6.153   5.209   0.047 -0.4117 -0.1525  1.3220
51419SOL     OW61117   3.807   4.674  10.551 -0.1086 -0.5688  0.3941
51419SOL    HW161118   3.783   4.767  10.560 -1.1187 -0.9262  1.6668
51419SOL    HW261119   3.831   4.665  10.459 -3.3404  0.2431 -0.6914
51420SOL     OW61120   6.936   2.595   2.208 -0.2533  0.0186 -0.8536
51420SOL    HW161121   6.896   2.652   2.142 -0.3141  1.2871  0.2202
51420SOL    HW261122   6.964   2.656   2.277  0.4417 -1.1946 -0.0375
51421SOL     OW61123   9.400   5.358   6.593  0.6718 -0.2929 -0.4746
51421SOL    HW161124   9.327   5.336   6.651  0.2083  1.1347 -0.4660
51421SOL    HW261125   9.477   5.356   6.649  0.4846 -0.7297 -0.2309
51422SOL     OW61126  11.610   1.204   5.016  0.0358  0.1972  0.3098
51422SOL    HW161127  11.515   1.216   5.012 -0.1126 -0.9629 -0.0454
51422SOL    HW261128  11.646   1.280   4.970 -0.7652  0.0117 -0.6503
51423SOL     OW61129   0.420   2.722   9.374  0.1116 -0.3800  0.1375
51423SOL    HW161130   0.443   2.716   9.281  2.5849  1.2929  0.5329
51423SOL    HW261131   0.441   2.636   9.410 -2.1238 -1.4952 -1.0001
51424SOL     OW61132   8.660   2.944   1.504 -0.5620 -0.5958 -0.0841
51424SOL    HW161133   8.616   2.923   1.586  0.1705  0.0648  0.4863
51424SOL    HW261134   8.749   2.913   1.515 -0.0445  0.8381 -0.0311
51425SOL     OW61135   1.351   4.134   6.015 -0.8531 -0.3745  0.1521
51425SOL    HW161136   1.293   4.210   6.022 -0.6182 -0.3111  1.6246
51425SOL    HW261137   1.432   4.169   5.980 -1.9146 -0.6092 -2.8201
51426SOL     OW61138  10.454   2.515   1.572 -0.2482 -0.0506  0.0026
51426SOL    HW161139  10.425   2.492   1.661 -0.3029 -0.4344 -0.1134
51426SOL    HW261140  10.549   2.518   1.578 -0.2909  2.2926  0.6570
51427SOL     OW61141   6.381   9.800  12.232 -0.0952  0.0111 -0.0133
51427SOL    HW161142   6.302   9.751  12.255  0.0985  0.0986  0.8501
51427SOL    HW261143   6.428   9.741  12.173 -0.4550 -0.3421  0.0444
51428SOL     OW61144   5.673   4.288  10.613 -0.3374 -0.2214  0.1720
51428SOL    HW161145   5.711   4.300  10.526 -1.8042 -0.1247 -0.4906
51428SOL    HW261146   5.608   4.219  10.601 -1.0298  0.2588  1.0186
51429SOL     OW61147   6.492   7.534   6.332 -0.0385 -0.0998  0.4085
51429SOL    HW161148   6.544   7.613   6.342 -0.3861  0.0412  1.2074
51429SOL    HW261149   6.537   7.469   6.386 -1.2622  0.3230  2.0186
51430SOL     OW61150   8.219   2.443   7.555 -0.3897  0.3419 -0.4611
51430SOL    HW161151   8.196   2.521   7.503  2.4212  1.6394  0.0615
51430SOL    HW261152   8.314   2.447   7.564 -0.5463 -0.2797  3.9893
51431SOL     OW61153   1.702   3.449  11.645  0.2021 -0.1898 -0.6661
51431SOL    HW161154   1.702   3.375  11.707  0.4540  1.0767  0.9169
51431SOL    HW261155   1.614   3.448  11.606  0.4031 -1.6736 -1.1355
51432SOL     OW61156   9.247  12.433   4.544 -0.4604 -0.2005  0.0598
51432SOL    HW161157   9.257  12.376   4.621  0.9851 -0.4713 -0.3032
51432SOL    HW261158   9.154  12.456   4.543 -0.9382 -1.9680  0.6312
51433SOL     OW61159   8.105   9.471  12.475  0.4659 -0.0590  0.4984
51433SOL    HW161160   8.198   9.466  12.453  0.1496 -1.3454 -0.7660
51433SOL    HW261161   8.088   9.390  12.524 -0.1087 -0.1292  0.1890
51434SOL     OW61162   7.610   3.010   2.648 -1.0371  0.0478 -0.0514
51434SOL    HW161163   7.557   2.983   2.723 -2.1723  0.0956 -0.7928
51434SOL    HW261164   7.678   3.066   2.684 -0.8773 -0.8457  1.0701
51435SOL     OW61165   9.142  11.700   8.758 -0.0786 -0.6065 -0.8028
51435SOL    HW161166   9.213  11.764   8.749 -0.0166 -0.7038 -1.0138
51435SOL    HW261167   9.072  11.735   8.702 -0.4420 -0.1760 -0.1017
51436SOL     OW61168   6.247   1.022   3.275 -0.3160 -0.3550 -0.3532
51436SOL    HW161169   6.156   1.040   3.254  0.1275  0.9220 -1.3131
51436SOL    HW261170   6.256   0.927   3.268 -2.0949 -0.7924  2.0788
51437SOL     OW61171   4.912  11.657   1.925 -0.1219  0.0036 -0.0513
51437SOL    HW161172   4.859  11.727   1.887 -0.3070  0.0080  0.2115
51437SOL    HW261173   5.000  11.674   1.892 -0.4958 -0.7146 -1.4732
51438SOL     OW61174   2.215   3.308  10.492  0.6042  0.7583  0.1582
51438SOL    HW161175   2.168   3.245  10.545  0.3034  2.4920  2.0529
51438SOL    HW261176   2.284   3.257  10.449 -0.0982 -0.9564  1.0066
51439SOL     OW61177   1.331  12.470   8.728  0.8005  0.2740 -0.0065
51439SOL    HW161178   1.342  12.432   8.641  0.8462  0.7677 -0.2145
51439SOL    HW261179   1.287  12.401   8.778 -0.7513  0.5729 -0.8721
51440SOL     OW61180   2.666   8.695   3.022  0.3973 -0.0418  0.1113
51440SOL    HW161181   2.577   8.699   3.056  0.7801  1.4691  1.0849
51440SOL    HW261182   2.660   8.735   2.935  0.1122  0.0756  0.1814
51441SOL     OW61183   8.561   3.865   3.720  0.1354  0.2115  0.1273
51441SOL    HW161184   8.474   3.902   3.712  0.2208  0.7460  1.5455
51441SOL    HW261185   8.620   3.938   3.706  0.3069  0.5414  2.2419
51442SOL     OW61186   7.562   5.032  10.041 -0.4502  0.0114  0.3129
51442SOL    HW161187   7.586   5.011   9.951 -0.1560  0.4623  0.2814
51442SOL    HW261188   7.469   5.011  10.047  0.1067 -2.6913  0.7047
51443SOL     OW61189   8.263   9.901   9.064 -0.3799  0.4648 -0.0153
51443SOL    HW161190   8.249   9.974   9.004 -2.0058  0.9335  0.8549
51443SOL    HW261191   8.358   9.900   9.080 -0.4124  3.3118  1.0161
51444SOL     OW61192   4.090   1.885   2.962  0.5821  0.2971  0.0059
51444SOL    HW161193   4.104   1.961   2.906 -0.5985 -0.3433 -1.2159
51444SOL    HW261194   4.162   1.825   2.940  1.8177  1.2185  1.3459
51445SOL     OW61195   1.614   5.698  11.685  0.0440  0.1330  0.7830
51445SOL    HW161196   1.602   5.634  11.755 -1.0055 -0.5771 -0.0091
51445SOL    HW261197   1.636   5.779  11.730 -0.2885 -0.3828  1.9094
51446SOL     OW61198   9.505  12.064   8.031 -0.1086  0.0759  0.5866
51446SOL    HW161199   9.582  12.118   8.013 -0.1262 -0.7657 -2.6605
51446SOL    HW261200   9.431  12.120   8.008 -0.2243 -0.5509 -0.6278
51447SOL     OW61201   9.574  10.480   6.391 -0.0821 -0.4912 -0.3814
51447SOL    HW161202   9.597  10.387   6.389 -1.3347 -0.8151 -0.1634
51447SOL    HW261203   9.616  10.513   6.471  2.3785 -0.2776 -1.6444
51448SOL     OW61204   8.724   8.316   1.421  0.0785 -0.5803 -0.6434
51448SOL    HW161205   8.637   8.277   1.429  0.2733 -0.8545  0.2550
51448SOL    HW261206   8.737   8.328   1.327 -0.1473 -2.3186 -0.9256
51449SOL     OW61207   9.717  12.012   0.585 -0.0203 -0.0967 -0.1908
51449SOL    HW161208   9.740  11.922   0.610 -0.3488  0.3151  1.7756
51449SOL    HW261209   9.744  12.065   0.659 -0.7396  1.3195 -0.8952
51450SOL     OW61210   3.046   1.726   0.708  0.4997 -0.1579  0.5536
51450SOL    HW161211   3.032   1.770   0.624  2.3748  1.1236  0.8652
51450SOL    HW261212   3.128   1.678   0.697  0.3760 -0.5933  1.4133
51451SOL     OW61213   9.720   4.715   8.108  0.1994 -0.1333  0.8734
51451SOL    HW161214   9.764   4.630   8.109 -1.3886 -1.0126 -0.4353
51451SOL    HW261215   9.672   4.718   8.191 -1.4862 -1.5279  0.0121
51452SOL     OW61216   8.529   2.519   2.017  0.0182 -0.0157  0.0837
51452SOL    HW161217   8.601   2.495   2.075 -0.7096  0.4465  1.2218
51452SOL    HW261218   8.508   2.610   2.042 -1.2974 -0.3181  0.1704
51453SOL     OW61219  10.602   0.770   4.357  0.4338 -0.0527 -0.6044
51453SOL    HW161220  10.523   0.737   4.315 -0.7605 -0.3120  1.6960
51453SOL    HW261221  10.576   0.853   4.396  1.9835  1.0617 -1.8572
51454SOL     OW61222   5.652  11.537   0.270  0.8054 -0.1151 -0.1028
51454SOL    HW161223   5.630  11.532   0.362 -0.0777  1.5882 -0.1910
51454SOL    HW261224   5.568  11.547   0.225  1.3050  0.3461 -0.9691
51455SOL     OW61225   5.351  10.144  12.290  0.2637  0.6734  0.0863
51455SOL    HW161226   5.445  10.158  12.293  0.6905 -1.6131 -0.7750
51455SOL    HW261227   5.334  10.076  12.355 -0.5559 -0.0001 -0.8010
51456SOL     OW61228   7.758   1.983   0.439 -0.1538  0.2842  0.2780
51456SOL    HW161229   7.750   1.965   0.533 -2.0449  0.9345  0.2716
51456SOL    HW261230   7.821   1.918   0.408  0.2989 -0.1303  1.9333
51457SOL     OW61231   6.470   6.606   9.797 -0.1180 -0.0117 -0.0830
51457SOL    HW161232   6.400   6.610   9.732 -0.2905 -0.1933  0.0886
51457SOL    HW261233   6.491   6.698   9.815 -3.1650  0.3166  2.8822
51458SOL     OW61234  12.303   4.499   9.419  0.0287 -0.1389  0.0578
51458SOL    HW161235  12.281   4.406   9.429 -1.7172  0.2137 -0.1666
51458SOL    HW261236  12.371   4.515   9.485 -0.3207 -1.3625  0.7488
51459SOL     OW61237  10.314  10.370   4.215  0.0844 -0.4019  0.2732
51459SOL    HW161238  10.302  10.375   4.120 -0.7677  0.0530  0.3993
51459SOL    HW261239  10.402  10.404   4.229  0.1360 -0.2609 -0.3368
51460SOL     OW61240   5.236   0.262  11.467  0.1074  0.4818 -0.3727
51460SOL    HW161241   5.188   0.190  11.510 -0.6483  0.3223 -1.4293
51460SOL    HW261242   5.327   0.232  11.464  0.2567  0.6385  1.3702
51461SOL     OW61243   5.682  10.441   6.010 -0.2881 -0.2111  0.1028
51461SOL    HW161244   5.592  10.472   6.012 -0.4058 -0.5656  0.3876
51461SOL    HW261245   5.712  10.459   5.921 -0.0876  1.4581  0.4791
51462SOL     OW61246   7.192   6.173   6.420  0.1770  0.1339  0.5183
51462SOL    HW161247   7.204   6.240   6.487 -0.3824  1.0583 -0.2724
51462SOL    HW261248   7.177   6.222   6.339 -0.4367 -0.9404 -0.0551
51463SOL     OW61249   6.867   1.635   9.360  0.3372  0.0911 -0.3058
51463SOL    HW161250   6.919   1.715   9.358 -2.1229  1.8295 -2.8703
51463SOL    HW261251   6.778   1.664   9.340 -0.5200 -3.3675 -2.2610
51464SOL     OW61252  10.806  12.051   9.640  0.2808 -0.1080 -0.0692
51464SOL    HW161253  10.839  11.992   9.707  1.7538  0.0533 -0.5922
51464SOL    HW261254  10.839  12.137   9.666 -1.2512  0.3787  0.3168
51465SOL     OW61255   2.224   8.400   2.633  0.2736 -0.4849  0.1420
51465SOL    HW161256   2.234   8.437   2.721  1.8122 -0.2407 -0.1116
51465SOL    HW261257   2.198   8.475   2.579  1.6172 -0.1128 -0.0276
51466SOL     OW61258   3.563   6.425   3.815 -0.2512  0.1194 -0.1349
51466SOL    HW161259   3.606   6.429   3.900 -0.8348  0.8214  0.1376
51466SOL    HW261260   3.635   6.417   3.752  0.2577  0.7817  0.3411
51467SOL     OW61261   7.558   5.907   7.326  0.0171  0.1250 -0.5622
51467SOL    HW161262   7.605   5.897   7.409  2.1830 -1.7206 -1.8824
51467SOL    HW261263   7.519   5.821   7.309 -0.2808  0.4290 -1.5094
51468SOL     OW61264   8.386   6.674   8.190  0.4643  0.2400 -0.3216
51468SOL    HW161265   8.436   6.748   8.222 -0.0165  0.4923 -0.1407
51468SOL    HW261266   8.415   6.600   8.243 -0.5221  0.7065  0.9196
51469SOL     OW61267  10.500   8.829   9.127  0.2353 -0.3127 -0.8789
51469SOL    HW161268  10.411   8.853   9.101  0.8394  1.5465 -1.3393
51469SOL    HW261269  10.526   8.894   9.192  1.0119 -1.2751 -0.1846
51470SOL     OW61270   9.498   1.783   0.986 -0.1071 -0.1012  0.1700
51470SOL    HW161271   9.491   1.813   0.895  0.1995 -0.1750  0.1203
51470SOL    HW261272   9.527   1.692   0.979  1.2474  0.2890  0.3577
51471SOL     OW61273   0.641   2.446   3.452 -0.5144  0.0041  0.1648
51471SOL    HW161274   0.681   2.430   3.367 -2.2040  0.5314 -0.7673
51471SOL    HW261275   0.549   2.426   3.440 -0.9206  0.7506  1.6925
51472SOL     OW61276   4.446  11.852   8.932  0.0588  0.3739  0.2627
51472SOL    HW161277   4.417  11.942   8.915 -0.7346  0.3322  1.3373
51472SOL    HW261278   4.375  11.812   8.981  0.6638 -0.6682  0.3235
51473SOL     OW61279   6.081  12.055  11.353  0.1537 -0.2634  0.0683
51473SOL    HW161280   6.010  12.087  11.408 -0.7093 -2.0166  0.0286
51473SOL    HW261281   6.155  12.112  11.375 -0.4842 -0.1638  2.1891
51474SOL     OW61282   8.423   6.683   2.374  0.8253 -0.3183 -0.3856
51474SOL    HW161283   8.489   6.626   2.414  0.9896  0.1723  0.0510
51474SOL    HW261284   8.385   6.629   2.305  1.0684 -0.9151 -0.0693
51475SOL     OW61285   2.319   5.065   1.791 -0.3074  0.0037 -0.1214
51475SOL    HW161286   2.242   5.088   1.843 -0.5890 -2.6333  0.7715
51475SOL    HW261287   2.331   5.140   1.733 -0.6272  2.6443  2.9314
51476SOL     OW61288   1.703   3.676   8.114  0.2812  0.1065 -0.6307
51476SOL    HW161289   1.795   3.654   8.123  0.3980  1.1051  0.9183
51476SOL    HW261290   1.657   3.592   8.126  0.9780 -0.5931 -2.4750
51477SOL     OW61291   2.215  12.408   9.802 -0.0808  0.0800  0.0187
51477SOL    HW161292   2.217  12.496   9.839 -0.1195 -0.5948  1.7100
51477SOL    HW261293   2.263  12.354   9.865  0.5390 -0.9981 -1.3285
51478SOL     OW61294   4.020  10.181   8.986 -0.4067 -0.3122 -0.0710
51478SOL    HW161295   4.087  10.173   9.054 -1.2216 -2.1882  0.5827
51478SOL    HW261296   4.026  10.100   8.936 -1.5863 -0.1208 -0.5617
51479SOL     OW61297   8.155   2.069   7.242  0.0731  0.4126  0.1040
51479SOL    HW161298   8.162   2.099   7.333 -0.1419 -1.9331  0.9493
51479SOL    HW261299   8.102   1.989   7.247  0.7339 -0.2085 -1.9933
51480SOL     OW61300   1.752   9.393   3.125 -0.0824 -0.0423 -0.1779
51480SOL    HW161301   1.680   9.339   3.157 -1.3397  1.6377 -0.0531
51480SOL    HW261302   1.738   9.399   3.031 -0.6190  0.9647 -0.0481
51481SOL     OW61303  11.795   0.729   4.343  0.1775  0.1206  0.2349
51481SOL    HW161304  11.872   0.786   4.333  1.1736 -1.0660  0.7920
51481SOL    HW261305  11.824   0.645   4.306 -1.6168  0.2319 -1.5805
51482SOL     OW61306  12.266   7.325   2.049 -0.0168  0.0485  0.3825
51482SOL    HW161307  12.356   7.309   2.021  0.0059 -0.3306  0.6693
51482SOL    HW261308  12.218   7.247   2.022 -0.4062  0.5383 -0.3788
51483SOL     OW61309   2.980   7.623   1.898 -0.0219 -0.5268 -0.9123
51483SOL    HW161310   2.973   7.627   1.993 -3.0087 -1.4531 -1.0219
51483SOL    HW261311   3.067   7.658   1.880 -0.5371  2.7438  1.9355
51484SOL     OW61312   0.296  10.472   2.077 -0.4733  0.8774  0.0932
51484SOL    HW161313   0.244  10.494   2.154  0.1321  0.6168  0.5812
51484SOL    HW261314   0.318  10.557   2.038 -0.3652  1.0301  0.4838
51485SOL     OW61315   3.152   7.139   3.453  0.0613 -0.2085 -0.1926
51485SOL    HW161316   3.207   7.213   3.429  1.3689 -0.9054  0.5771
51485SOL    HW261317   3.190   7.106   3.534  0.5866 -2.7853 -1.3927
51486SOL     OW61318   2.164   8.513  12.183 -0.1934 -0.5614 -0.0620
51486SOL    HW161319   2.212   8.450  12.129 -0.2640 -1.4647  0.8937
51486SOL    HW261320   2.230   8.580  12.206 -0.2386 -0.0076 -1.4698
51487SOL     OW61321  11.701   7.600   1.497  0.1020  0.2378  0.1140
51487SOL    HW161322  11.613   7.580   1.529  0.6965 -2.9724  0.1036
51487SOL    HW261323  11.703   7.565   1.408  1.1442  0.9732 -0.1647
51488SOL     OW61324   7.111   4.151   5.323  0.1041  0.2322 -0.1376
51488SOL    HW161325   7.142   4.163   5.233  1.9763  2.7439  0.7120
51488SOL    HW261326   7.020   4.179   5.320  0.7161  2.3562 -0.9369
51489SOL     OW61327   8.788   6.302   6.101  0.1094 -0.1547 -0.0434
51489SOL    HW161328   8.878   6.333   6.088 -0.0879  0.4455 -0.0125
51489SOL    HW261329   8.733   6.368   6.058 -0.5574  1.8578  3.4912
51490SOL     OW61330   9.866  11.844   6.780  0.1530 -0.4792  0.0350
51490SOL    HW161331   9.897  11.881   6.697  0.3625  2.3335  1.2411
51490SOL    HW261332   9.773  11.867   6.783  0.1798 -0.4378  0.6370
51491SOL     OW61333   4.898   7.702  10.402  0.3397 -0.3111 -0.5132
51491SOL    HW161334   4.877   7.779  10.349  0.8318  0.5901  0.5656
51491SOL    HW261335   4.839   7.634  10.370 -1.8092  1.1667  0.1221
51492SOL     OW61336   7.367   2.114   6.899  0.1099  1.0998 -0.2976
51492SOL    HW161337   7.372   2.208   6.884  1.5509  1.4804  2.0876
51492SOL    HW261338   7.278   2.099   6.931  0.7729  2.2426  2.3238
51493SOL     OW61339   4.232   8.765   6.826 -0.6774 -0.1421  0.4630
51493SOL    HW161340   4.142   8.766   6.859 -0.6670  0.6922  0.5032
51493SOL    HW261341   4.284   8.797   6.900 -0.4304  0.0089  0.2252
51494SOL     OW61342   5.745  10.407  10.510 -0.3611  0.1514  0.0276
51494SOL    HW161343   5.798  10.334  10.479 -1.4317 -1.1592  1.1800
51494SOL    HW261344   5.783  10.430  10.594  0.7017  1.7528 -0.8368
51495SOL     OW61345   4.775   3.948   2.831 -0.1890  0.1491 -0.2797
51495SOL    HW161346   4.813   3.870   2.791 -0.7118  0.3890 -1.2790
51495SOL    HW261347   4.842   3.978   2.893  0.8518  0.0115 -1.2879
51496SOL     OW61348   7.835   3.562   2.302 -0.3767  0.1510 -0.0250
51496SOL    HW161349   7.896   3.585   2.372  0.9634  0.7778 -1.3440
51496SOL    HW261350   7.811   3.646   2.263 -1.1534 -0.1844 -0.2773
51497SOL     OW61351   6.106   4.910   8.430  0.0586  0.1708 -0.1800
51497SOL    HW161352   6.085   4.817   8.424  0.6485  0.0287 -0.1553
51497SOL    HW261353   6.027   4.955   8.402 -0.2331 -0.3399 -0.1832
51498SOL     OW61354   1.197  11.999   1.572  0.0528 -0.2302 -0.1278
51498SOL    HW161355   1.114  11.951   1.570  0.7245 -1.6343  1.9621
51498SOL    HW261356   1.186  12.063   1.642  0.9605 -0.9792  0.7347
51499SOL     OW61357   4.537   2.844   8.094 -0.5516  0.1562 -0.5456
51499SOL    HW161358   4.630   2.836   8.114 -0.2441  0.2043 -1.8418
51499SOL    HW261359   4.529   2.932   8.057 -1.1851  0.2932 -0.0879
51500SOL     OW61360   7.173   6.871   0.500 -0.0148 -0.4469  0.6181
51500SOL    HW161361   7.158   6.812   0.574 -1.6921  0.0741  0.7227
51500SOL    HW261362   7.242   6.931   0.531 -0.1461 -0.7204  1.4605
51501SOL     OW61363   7.284   5.054  10.134  0.4083 -1.1198  0.1320
51501SOL    HW161364   7.290   4.963  10.165 -2.1186 -0.9532  1.4121
51501SOL    HW261365   7.277   5.106  10.214 -1.2068 -0.1307 -0.6083
51502SOL     OW61366   8.983   6.397   2.041  0.6402  0.4120  0.5942
51502SOL    HW161367   9.064   6.445   2.024  1.5782 -0.7851  1.5157
51502SOL    HW261368   8.979   6.332   1.970  1.4736 -0.7320  1.5687
51503SOL     OW61369  10.955   0.848   9.530 -0.2282  0.4762 -0.2891
51503SOL    HW161370  10.888   0.915   9.544 -1.4865 -0.4691 -1.4132
51503SOL    HW261371  10.909   0.765   9.549  0.4222 -0.2360 -1.6574
51504SOL     OW61372   6.686   1.243   7.321  0.1688  0.1483  0.3900
51504SOL    HW161373   6.764   1.196   7.290  0.9301  2.9250 -2.4280
51504SOL    HW261374   6.614   1.207   7.270  0.2612  0.1178  0.2805
51505SOL     OW61375   2.566   4.894   3.262  0.2480  0.4470  0.1548
51505SOL    HW161376   2.648   4.848   3.281 -0.5361 -0.6930  0.8999
51505SOL    HW261377   2.591   4.986   3.255  1.2473  0.4777  2.8937
51506SOL     OW61378  10.779  10.234   0.323  0.0300  0.1541  0.0440
51506SOL    HW161379  10.837  10.290   0.374 -0.0366 -0.7989  1.1953
51506SOL    HW261380  10.777  10.151   0.370 -2.6478  0.2883  0.3091
51507SOL     OW61381   8.275   8.267   9.786  0.0097  0.5547  0.0370
51507SOL    HW161382   8.199   8.216   9.759 -0.7244  1.6150  0.0583
51507SOL    HW261383   8.293   8.239   9.875  0.7225 -0.9324 -0.5292
51508SOL     OW61384   1.949   7.964   7.567 -0.1229  0.0095  0.1363
51508SOL    HW161385   1.872   8.002   7.609 -0.6556 -0.4397 -0.4102
51508SOL    HW261386   1.924   7.873   7.548  0.7904 -0.3413  0.5703
51509SOL     OW61387   4.213   5.690   8.025  0.1022  0.3624  0.6589
51509SOL    HW161388   4.218   5.734   7.940  2.3437 -1.0662 -0.0482
51509SOL    HW261389   4.259   5.749   8.085  0.4234  0.3788  0.3971
51510SOL     OW61390   4.334  10.557  10.556 -0.0294  0.2520  0.3092
51510SOL    HW161391   4.258  10.580  10.610 -1.4241 -1.9806 -0.5590
51510SOL    HW261392   4.380  10.491  10.607 -1.3317 -1.8440 -1.0824
51511SOL     OW61393   8.262   6.682   1.075 -0.7111  0.1945 -0.4977
51511SOL    HW161394   8.326   6.744   1.108 -1.6787  2.0186 -1.8688
51511SOL    HW261395   8.205   6.663   1.150  1.7321 -2.0680  0.9713
51512SOL     OW61396   9.626  10.771   7.197  0.4224  0.1038 -0.0389
51512SOL    HW161397   9.650  10.772   7.290  1.5987  1.4880 -0.3190
51512SOL    HW261398   9.538  10.808   7.194  0.6543  0.7069  0.4618
51513SOL     OW61399   5.926   5.822  10.990 -0.8424 -0.1754  0.0650
51513SOL    HW161400   5.948   5.826  11.083  0.0996  2.1857 -0.2137
51513SOL    HW261401   5.938   5.729  10.967 -1.2398 -0.8364  2.2867
51514SOL     OW61402   1.596  11.833   8.071  0.1159  0.4806 -0.1897
51514SOL    HW161403   1.554  11.898   8.014  0.9377 -1.1328 -2.8417
51514SOL    HW261404   1.657  11.884   8.124 -0.6025  2.0805 -0.8179
51515SOL     OW61405   9.068   7.279   2.954  0.5776  0.4115 -0.1988
51515SOL    HW161406   9.161   7.275   2.933  0.7685  0.4180  0.6269
51515SOL    HW261407   9.042   7.188   2.968  1.0825  0.5660  2.1459
51516SOL     OW61408   8.460   7.001   0.841 -0.1961 -0.1315 -0.0343
51516SOL    HW161409   8.500   6.915   0.829  1.3932  0.6535 -0.7988
51516SOL    HW261410   8.401   7.011   0.766  1.1908  0.2379 -1.1250
51517SOL     OW61411  12.209   4.009   2.302  0.0578 -0.3106 -0.2460
51517SOL    HW161412  12.295   4.016   2.262 -0.1055  0.8836 -0.4201
51517SOL    HW261413  12.153   3.975   2.232 -0.3498  2.2900 -1.3104
51518SOL     OW61414  10.663  10.286   2.085 -0.4243 -0.6224  0.0297
51518SOL    HW161415  10.748  10.242   2.078 -1.7760 -3.2011 -1.6099
51518SOL    HW261416  10.685  10.377   2.107  2.6858 -1.3684  0.5017
51519SOL     OW61417  11.033  12.309  10.883  0.2039  0.3839 -0.2924
51519SOL    HW161418  11.109  12.336  10.933  0.7542  0.6403 -1.2422
51519SOL    HW261419  11.055  12.329  10.792  0.3018 -2.4901 -0.9865
51520SOL     OW61420   5.932   8.172   2.236 -0.0679 -0.0370 -0.3849
51520SOL    HW161421   5.960   8.145   2.324 -1.6123  1.2365  0.5456
51520SOL    HW261422   5.874   8.102   2.207 -2.6145  1.2339  1.2665
51521SOL     OW61423   9.385   3.989   9.369  0.0807 -0.3402  0.6085
51521SOL    HW161424   9.303   3.948   9.343  0.1519  0.7725 -1.5662
51521SOL    HW261425   9.449   3.959   9.304  0.5372  1.6544  0.0581
51522SOL     OW61426  11.502  12.118   6.844  0.0035 -0.5735 -0.4120
51522SOL    HW161427  11.424  12.148   6.798  0.0985 -0.0425 -0.2362
51522SOL    HW261428  11.496  12.161   6.930 -0.8020 -2.4684  0.5540
51523SOL     OW61429  11.139   5.121   6.792 -0.3957  0.4423 -0.0635
51523SOL    HW161430  11.063   5.114   6.850 -0.4505  1.3442 -0.0129
51523SOL    HW261431  11.162   5.030   6.772 -1.1727  0.1475  0.3282
51524SOL     OW61432  10.689   9.245   7.995  0.5618  0.0809  0.2249
51524SOL    HW161433  10.646   9.304   7.933  1.3083  0.8494  0.4201
51524SOL    HW261434  10.617   9.212   8.049  0.0776  0.5172 -0.1277
51525SOL     OW61435   3.067   5.843  11.912 -0.0992  0.1736 -0.0503
51525SOL    HW161436   3.077   5.935  11.938 -1.1209 -0.0630  1.2394
51525SOL    HW261437   2.988   5.841  11.859  0.0002  0.0507 -0.1956
51526SOL     OW61438  10.207   8.298   4.303 -0.4713  0.0718 -0.0125
51526SOL    HW161439  10.166   8.211   4.299  1.0670 -0.6635 -0.8360
51526SOL    HW261440  10.258   8.304   4.223 -0.9483  1.9833 -0.2212
51527SOL     OW61441   1.489   1.449   3.298 -0.6226 -0.0836  0.7444
51527SOL    HW161442   1.440   1.370   3.322  0.2433 -1.5206 -1.8495
51527SOL    HW261443   1.470   1.462   3.205  0.7187  1.7094  0.6667
51528SOL     OW61444  11.950   6.284   7.709 -0.1651 -0.1675  0.1565
51528SOL    HW161445  11.971   6.363   7.760  1.5567  1.1416 -2.3575
51528SOL    HW261446  12.031   6.232   7.712 -0.0004 -0.0225 -1.2425
51529SOL     OW61447   2.032   6.319   9.702 -0.0541 -0.4181 -0.4191
51529SOL    HW161448   2.084   6.399   9.692  1.6611 -1.4897 -0.5401
51529SOL    HW261449   2.028   6.281   9.614 -1.4993 -0.1209 -0.5101
51530SOL     OW61450  12.036   0.442   7.970 -0.3219 -0.2506  0.2275
51530SOL    HW161451  12.034   0.516   8.030 -0.3535 -0.7284  0.8193
51530SOL    HW261452  12.101   0.467   7.904 -0.4433  0.3663  0.3312
51531SOL     OW61453   5.335   0.589   2.697 -0.1181 -0.0744 -1.2159
51531SOL    HW161454   5.314   0.505   2.656  1.8008 -0.9702 -0.5028
51531SOL    HW261455   5.274   0.651   2.658 -0.0829 -1.3552 -3.5058
51532SOL     OW61456   3.543   9.634   9.312  0.3165  0.1823 -0.0961
51532SOL    HW161457   3.559   9.616   9.219  0.7662 -0.6759  0.1318
51532SOL    HW261458   3.469   9.578   9.336  0.9029 -0.4425  0.3136
51533SOL     OW61459   4.524   6.837   7.610 -0.6199 -0.2316  0.1042
51533SOL    HW161460   4.596   6.898   7.627  0.2649 -1.0508 -0.5378
51533SOL    HW261461   4.475   6.877   7.538  0.0479 -0.3239 -0.4182
51534SOL     OW61462   3.792   4.742   0.326  0.4075  0.5471  0.6485
51534SOL    HW161463   3.798   4.828   0.285  0.6072  0.5304  0.6414
51534SOL    HW261464   3.881   4.725   0.358  0.5237  0.0638  0.0780
51535SOL     OW61465   5.985   7.552   9.410 -0.1684 -0.5163  0.5465
51535SOL    HW161466   5.927   7.593   9.345 -0.5888 -2.7853 -0.6223
51535SOL    HW261467   6.035   7.624   9.447 -1.5791  1.1473 -0.6386
51536SOL     OW61468   8.874   2.247   5.814  0.0098  0.2558 -0.7127
51536SOL    HW161469   8.934   2.231   5.741  0.6421  0.8788 -0.3448
51536SOL    HW261470   8.863   2.161   5.855 -0.4681 -0.1259 -1.6167
51537SOL     OW61471  11.165   3.772   8.235  0.8229  0.5824 -0.3768
51537SOL    HW161472  11.210   3.725   8.306  0.3280  0.2820 -0.2566
51537SOL    HW261473  11.075   3.781   8.266  0.3465 -0.4430 -1.3852
51538SOL     OW61474   2.500   7.143  11.556  0.6963 -0.5674  0.0260
51538SOL    HW161475   2.564   7.214  11.558  0.7389 -0.5444  3.7032
51538SOL    HW261476   2.424   7.180  11.512  1.7603  0.7082 -0.8124
51539SOL     OW61477   3.711  12.360  11.144 -0.3281 -0.4362 -0.1260
51539SOL    HW161478   3.727  12.325  11.231 -1.0705  0.5036  0.3967
51539SOL    HW261479   3.684  12.284  11.092 -1.6284 -0.7272  0.9196
51540SOL     OW61480   3.041  10.803   3.566 -1.0671  0.0452 -0.1976
51540SOL    HW161481   3.133  10.821   3.583 -1.3436  1.4310 -0.0303
51540SOL    HW261482   3.015  10.743   3.635 -0.4285  0.1000  0.0942
51541SOL     OW61483   2.473   7.355   7.599 -0.3263 -0.5388 -0.3740
51541SOL    HW161484   2.567   7.364   7.613 -0.2929  0.3980 -1.0744
51541SOL    HW261485   2.447   7.438   7.560 -1.2879 -1.1134 -1.0038
51542SOL     OW61486  12.215   7.728   7.429 -0.1768  0.3940 -0.3390
51542SOL    HW161487  12.130   7.771   7.436 -0.5209 -0.1565 -0.9678
51542SOL    HW261488  12.194   7.634   7.426  0.2744  0.3018 -2.5183
51543SOL     OW61489   1.140   7.014  10.575  0.3373 -0.0666 -0.0712
51543SOL    HW161490   1.153   7.053  10.662  2.5225 -0.5678 -0.0967
51543SOL    HW261491   1.135   7.089  10.516 -0.6697  0.2661  0.4145
51544SOL     OW61492   3.705   5.236   9.554 -0.1921  0.2997 -0.4036
51544SOL    HW161493   3.722   5.142   9.566  1.3294  0.4139 -1.3024
51544SOL    HW261494   3.782   5.279   9.592  0.9834  0.9713 -3.2797
51545SOL     OW61495   7.305   8.831  11.481  0.0722 -0.0404 -0.2833
51545SOL    HW161496   7.381   8.889  11.492  1.6187 -1.9655 -0.3331
51545SOL    HW261497   7.285   8.800  11.569 -0.2188 -0.0655 -0.3574
51546SOL     OW61498  11.559   4.280   5.221 -0.0703 -0.6499  0.3737
51546SOL    HW161499  11.484   4.265   5.279  0.0347  1.1768  1.0440
51546SOL    HW261500  11.578   4.373   5.230  1.1988 -0.7222 -1.1242
51547SOL     OW61501  11.719   7.521   4.135 -0.3798 -0.3609 -0.1006
51547SOL    HW161502  11.760   7.584   4.075 -0.9830  0.5577  0.4239
51547SOL    HW261503  11.627   7.549   4.139 -0.5501 -1.0017  0.5079
51548SOL     OW61504   6.605  11.039   5.734 -0.4105 -0.5708  0.0638
51548SOL    HW161505   6.617  11.131   5.759  0.4337 -0.6355 -0.0796
51548SOL    HW261506   6.593  10.993   5.817 -1.7897 -0.2126  0.0873
51549SOL     OW61507  10.954  11.593   6.204  0.2690 -0.1955 -0.0360
51549SOL    HW161508  10.889  11.550   6.147  2.6702 -1.6725 -1.8524
51549SOL    HW261509  10.971  11.677   6.162  0.6273 -0.4572 -0.4177
51550SOL     OW61510  10.644   5.789   4.041 -0.4350 -0.1085  0.1767
51550SOL    HW161511  10.672   5.815   4.129 -1.2931  0.5734  0.2677
51550SOL    HW261512  10.581   5.857   4.015  0.0588 -0.0977 -1.1055
51551SOL     OW61513   5.226   2.612   8.804 -0.1235  0.4213 -0.0619
51551SOL    HW161514   5.287   2.665   8.856  0.7804 -0.4297 -0.2242
51551SOL    HW261515   5.176   2.563   8.869  1.3793 -1.0565  0.0600
51552SOL     OW61516   0.479  12.467   4.148  0.1356  0.1483 -0.9004
51552SOL    HW161517   0.512  12.401   4.209  1.1352  0.2806 -1.2767
51552SOL    HW261518   0.402  12.426   4.108 -0.1192 -0.2068 -0.0610
51553SOL     OW61519   8.576   4.224   0.975  0.5909 -0.5369 -0.4561
51553SOL    HW161520   8.522   4.253   0.902 -0.1738 -0.7949 -0.0014
51553SOL    HW261521   8.642   4.167   0.935  0.8186  0.1590 -1.0752
51554SOL     OW61522   8.546   3.833  11.571 -0.4878  0.0715 -0.4220
51554SOL    HW161523   8.553   3.916  11.523  0.4479  1.5109  2.0108
51554SOL    HW261524   8.501   3.857  11.653  2.6378 -1.0646  1.7986
51555SOL     OW61525   4.703   2.321   8.686  0.2318  0.2060 -0.0819
51555SOL    HW161526   4.771   2.259   8.714  0.0948  0.3404  0.5495
51555SOL    HW261527   4.700   2.387   8.755 -1.0626 -0.2020  0.2699
51556SOL     OW61528   1.335  10.399  11.340 -0.1278  0.0949  0.0426
51556SOL    HW161529   1.340  10.432  11.430 -2.4698  0.2883  0.1759
51556SOL    HW261530   1.300  10.310  11.350  0.5058 -0.2433 -0.6524
51557SOL     OW61531   7.157  11.659   2.721  0.2620 -0.2661  0.2478
51557SOL    HW161532   7.075  11.659   2.772  0.7285 -0.6707  1.0208
51557SOL    HW261533   7.209  11.589   2.761  0.4670 -0.9166 -1.1036
51558SOL     OW61534   2.195  10.058  11.701 -0.5558 -0.3040 -0.2522
51558SOL    HW161535   2.232  10.104  11.626 -2.5963  1.6971 -0.1405
51558SOL    HW261536   2.102  10.077  11.697 -1.1060 -2.3075  1.3637
51559SOL     OW61537  10.222   3.786   1.583  0.0398 -0.0156  0.6685
51559SOL    HW161538  10.152   3.747   1.634  0.2102 -0.6383  0.4303
51559SOL    HW261539  10.264   3.712   1.538  0.5314  0.4036  0.4217
51560SOL     OW61540   0.639  10.627  12.192 -0.0907  0.1980  0.4763
51560SOL    HW161541   0.637  10.531  12.201 -0.7719  0.2315  0.7736
51560SOL    HW261542   0.724  10.646  12.153  0.9353 -0.3844  2.2881
51561SOL     OW61543   5.503   1.948   8.830 -0.1523  0.0674 -0.2827
51561SOL    HW161544   5.484   1.880   8.894  0.4204 -0.7081 -0.9158
51561SOL    HW261545   5.591   1.926   8.798 -0.2793  0.6600 -1.0571
51562SOL     OW61546   3.265   5.165  11.418  0.2415  0.6104  0.2063
51562SOL    HW161547   3.357   5.193  11.416  0.4172  0.0144 -0.8082
51562SOL    HW261548   3.220   5.226  11.360  0.2194  0.1848 -0.2325
51563SOL     OW61549   1.674   8.181   2.294 -0.0299  0.1457  0.3779
51563SOL    HW161550   1.735   8.234   2.243 -0.5977  0.4592  0.0123
51563SOL    HW261551   1.718   8.168   2.378  0.7681 -0.0911 -0.0731
51564SOL     OW61552   4.495   1.197   7.549  0.7253 -0.5932  0.1067
51564SOL    HW161553   4.447   1.144   7.486  2.1466 -1.2222 -0.4929
51564SOL    HW261554   4.517   1.137   7.620  0.5090 -0.2758  0.4491
51565SOL     OW61555   1.476   0.426   8.875 -0.4246 -0.0830 -0.0571
51565SOL    HW161556   1.465   0.419   8.781  0.2101 -1.2881 -0.0665
51565SOL    HW261557   1.536   0.355   8.898  0.8068  1.2338  1.0234
51566SOL     OW61558  10.666  11.151   2.327 -0.1144 -0.2500  0.0369
51566SOL    HW161559  10.654  11.231   2.277 -0.1925 -1.2823 -1.6581
51566SOL    HW261560  10.758  11.127   2.314  0.0235 -0.2367  0.8756
51567SOL     OW61561   7.900   9.280   9.366 -0.5632 -0.0792  0.0150
51567SOL    HW161562   7.883   9.336   9.441 -1.7053  0.3553 -0.5353
51567SOL    HW261563   7.845   9.203   9.381 -3.5800  1.4582 -1.9196
51568SOL     OW61564  10.557   1.389   9.983  0.6788  0.5059 -0.6480
51568SOL    HW161565  10.562   1.479  10.013 -0.4196  0.0544  0.9869
51568SOL    HW261566  10.466   1.377   9.956  0.7022 -0.2553 -0.4071
51569SOL     OW61567   3.511   8.794   3.755 -0.5285 -0.2071  0.0819
51569SOL    HW161568   3.585   8.854   3.745 -0.4509 -0.4959 -1.2934
51569SOL    HW261569   3.544   8.724   3.812 -0.5482  0.9181  1.5022
51570SOL     OW61570   5.024   7.933   7.811 -0.0992 -0.4984  0.4342
51570SOL    HW161571   5.015   7.947   7.905 -1.1520  2.5518 -0.0240
51570SOL    HW261572   5.116   7.954   7.792 -0.4285  1.1783  0.5242
51571SOL     OW61573   9.786   9.853   9.507 -0.0551 -0.2033  0.0640
51571SOL    HW161574   9.700   9.890   9.528 -0.1888 -0.8567  0.7070
51571SOL    HW261575   9.809   9.893   9.423  0.7894  3.0477  1.6646
51572SOL     OW61576   2.075   6.965   3.120 -0.2592 -0.1859 -0.0538
51572SOL    HW161577   1.994   7.014   3.106 -0.4796 -0.6144 -0.3051
51572SOL    HW261578   2.046   6.875   3.135  0.1525 -0.2815  0.1909
51573SOL     OW61579   6.235   5.664   6.283 -0.0029  0.0481 -0.7476
51573SOL    HW161580   6.165   5.599   6.276 -0.7379  0.7004  0.1694
51573SOL    HW261581   6.301   5.623   6.340 -0.5336  0.1417 -0.0455
51574SOL     OW61582   3.136  12.295   2.754 -0.1158  0.2177  0.4795
51574SOL    HW161583   3.086  12.320   2.676 -0.9200 -0.5789  0.7218
51574SOL    HW261584   3.220  12.264   2.721 -0.2959  0.2763 -0.0334
51575SOL     OW61585  11.082   0.683   8.810  0.1061 -0.4743  0.8303
51575SOL    HW161586  11.066   0.682   8.716  0.1897  0.6619  0.7870
51575SOL    HW261587  11.078   0.591   8.836  0.2261 -0.8189 -0.3025
51576SOL     OW61588  12.368   2.619   7.748 -0.6928  0.0024  0.1591
51576SOL    HW161589  12.411   2.607   7.832 -0.6882 -0.4537  0.0945
51576SOL    HW261590  12.394   2.543   7.696  0.1956  0.8242 -0.6447
51577SOL     OW61591   6.472   3.643   6.127 -0.1392 -0.2705  0.4515
51577SOL    HW161592   6.447   3.727   6.089 -0.1546 -0.5252 -0.1125
51577SOL    HW261593   6.540   3.665   6.191  0.2036  0.1228 -0.0334
51578SOL     OW61594   2.981   3.716  11.985  0.5499  0.5370  0.6610
51578SOL    HW161595   2.942   3.776  12.048  1.0667  0.7545  0.7764
51578SOL    HW261596   2.972   3.629  12.025  0.0976  0.5757  0.6415
51579SOL     OW61597   1.335   9.722  10.508  0.2627  0.0405 -0.0787
51579SOL    HW161598   1.343   9.791  10.573 -2.1347  1.0765 -0.7510
51579SOL    HW261599   1.337   9.768  10.424 -2.2537 -0.4851 -0.5197
51580SOL     OW61600   1.016   5.461   3.504  0.4430  0.7959  0.0823
51580SOL    HW161601   1.000   5.489   3.594  0.3324 -0.1710  0.3724
51580SOL    HW261602   0.987   5.370   3.502  2.9670 -0.0679 -0.2225
51581SOL     OW61603   2.095   7.945  11.634 -0.2935 -0.2037  0.1324
51581SOL    HW161604   2.181   7.904  11.629 -0.4408 -0.7328  1.5642
51581SOL    HW261605   2.040   7.891  11.576  0.2211 -0.1225 -0.4487
51582SOL     OW61606   7.697   0.475   3.215 -0.2573 -0.0457 -0.5869
51582SOL    HW161607   7.753   0.406   3.180  1.2911 -0.0122  1.5989
51582SOL    HW261608   7.755   0.525   3.273 -2.2224  0.8359  0.7198
51583SOL     OW61609   9.709   5.372   5.972 -0.2102  0.4382  0.6545
51583SOL    HW161610   9.689   5.406   5.885  1.2818  0.1180  0.1736
51583SOL    HW261611   9.623   5.358   6.012 -0.9151  2.6597  0.0731
51584SOL     OW61612   1.631   7.085   3.927 -0.3805 -0.0700 -0.3955
51584SOL    HW161613   1.659   7.011   3.981  0.1636 -0.4133 -1.1255
51584SOL    HW261614   1.586   7.144   3.988  1.5579  0.3011  0.7690
51585SOL     OW61615   7.620   9.320  12.234  0.2553  0.0099 -0.5716
51585SOL    HW161616   7.610   9.253  12.302 -1.5600 -0.8509 -1.5912
51585SOL    HW261617   7.681   9.282  12.172  1.2826  0.4513  0.1482
51586SOL     OW61618   1.844   9.113   5.328  0.5807  0.1310 -0.6249
51586SOL    HW161619   1.831   9.061   5.407  0.5933 -1.4285 -1.6017
51586SOL    HW261620   1.920   9.169   5.348  0.4341 -0.0540  0.5268
51587SOL     OW61621   5.162   5.338   6.982  0.2310  0.3449  0.2679
51587SOL    HW161622   5.198   5.294   7.059  0.2170 -1.4853 -0.7378
51587SOL    HW261623   5.174   5.276   6.911  1.3966  2.4713 -1.5181
51588SOL     OW61624   8.428  10.050   4.334  0.0025 -0.3035 -0.2607
51588SOL    HW161625   8.506   9.997   4.317  0.1089 -0.0831 -0.4688
51588SOL    HW261626   8.397  10.020   4.419 -0.5656 -1.4652 -0.8527
51589SOL     OW61627   6.077   9.881   6.873 -0.1849 -0.4234  0.1577
51589SOL    HW161628   6.041   9.959   6.916 -0.5690 -0.3396 -0.3087
51589SOL    HW261629   6.112   9.828   6.945  1.7165  0.9867  0.3467
51590SOL     OW61630   3.120  12.042   2.912 -0.0228  0.0599  0.0814
51590SOL    HW161631   3.096  12.130   2.881  1.2518  0.9093  1.3374
51590SOL    HW261632   3.139  11.993   2.832 -0.3684  1.0614 -0.6404
51591SOL     OW61633  11.296   6.557   6.674 -0.4151  0.7221 -0.1732
51591SOL    HW161634  11.261   6.576   6.587 -2.7495 -0.6216  0.3724
51591SOL    HW261635  11.274   6.635   6.726 -0.8052  0.7178 -0.3277
51592SOL     OW61636   5.378   9.113   1.976 -0.1269 -0.2854  0.7470
51592SOL    HW161637   5.305   9.129   1.916  0.1378 -1.6974  0.0020
51592SOL    HW261638   5.340   9.058   2.045 -0.1004  0.2063  1.1642
51593SOL     OW61639   8.128   6.643   5.308  0.4776 -0.5470 -0.2575
51593SOL    HW161640   8.120   6.630   5.402  1.1029 -0.4718 -0.1895
51593SOL    HW261641   8.217   6.676   5.295 -0.3424  1.7784 -0.6234
51594SOL     OW61642   8.732   5.452  12.256  0.0603  0.3199  0.6219
51594SOL    HW161643   8.649   5.406  12.271 -0.5945  1.8541  2.0371
51594SOL    HW261644   8.775   5.450  12.342  0.3963  1.5901  0.4891
51595SOL     OW61645  10.991  11.173   5.531  0.0067 -1.0013  0.5078
51595SOL    HW161646  10.919  11.235   5.542 -0.1756 -1.1236  0.0167
51595SOL    HW261647  10.960  11.111   5.465 -0.1056 -2.0639  1.5350
51596SOL     OW61648   7.779   3.064   2.448  0.0036 -0.0572  0.9242
51596SOL    HW161649   7.708   3.045   2.510 -1.6512  0.2100 -0.7698
51596SOL    HW261650   7.741   3.043   2.362  1.9838  0.1760 -0.0578
51597SOL     OW61651   8.958  10.660   7.681 -0.1353  0.1690 -0.4460
51597SOL    HW161652   8.915  10.746   7.684 -1.3294 -0.4217  0.4567
51597SOL    HW261653   8.948  10.626   7.770  1.3560 -0.4216 -0.4890
51598SOL     OW61654  12.196   9.613   7.006 -0.0763  0.2550 -0.4666
51598SOL    HW161655  12.235   9.547   6.948 -1.3043  0.7350 -1.9092
51598SOL    HW261656  12.177   9.687   6.948 -2.5081  0.2767  0.2743
51599SOL     OW61657   5.088   4.113   5.113 -0.1822  0.5378  0.1346
51599SOL    HW161658   5.128   4.184   5.163  0.9058 -0.0383  0.1053
51599SOL    HW261659   5.098   4.141   5.021 -1.5680  1.2746  0.1844
51600SOL     OW61660   7.520   8.810   2.631  0.5611 -0.1564  0.4851
51600SOL    HW161661   7.535   8.904   2.620 -1.1028  0.1733  0.8324
51600SOL    HW261662   7.521   8.796   2.725  1.0100 -0.5301  0.4278
51601SOL     OW61663  10.104   6.919   0.661  0.1793  0.1747 -0.1118
51601SOL    HW161664  10.187   6.964   0.648 -0.8902  1.7278 -2.0728
51601SOL    HW261665  10.110   6.884   0.750  2.9446  0.1064 -0.2236
51602SOL     OW61666  11.742   4.924   0.232 -0.3632 -0.3120 -0.1233
51602SOL    HW161667  11.722   4.839   0.272 -1.2544 -0.0154  0.0924
51602SOL    HW261668  11.818   4.955   0.280 -0.3726 -0.7416  0.1795
51603SOL     OW61669   8.201   8.654   3.640  0.6592 -0.3596 -0.6820
51603SOL    HW161670   8.114   8.681   3.669  1.1135 -0.4833  0.9241
51603SOL    HW261671   8.198   8.558   3.642  0.3726 -0.4014 -2.1620
51604SOL     OW61672   5.334   9.183  11.224  0.1958  0.2921  0.1021
51604SOL    HW161673   5.416   9.166  11.271 -0.9392 -0.6880  1.8385
51604SOL    HW261674   5.325   9.278  11.224  0.8970  0.3639  0.7071
51605SOL     OW61675   7.010  12.161   3.278 -0.4677  0.1130 -0.4379
51605SOL    HW161676   6.969  12.172   3.193 -2.3371  1.4757  0.5618
51605SOL    HW261677   6.960  12.091   3.320 -0.7895  0.7244  0.2206
51606SOL     OW61678   6.564  10.760   7.955  0.0610 -0.4056 -0.2189
51606SOL    HW161679   6.572  10.668   7.979  1.6872 -0.1428  0.3605
51606SOL    HW261680   6.619  10.769   7.877  1.9229  0.5344  1.1252
51607SOL     OW61681   7.607  11.417   4.283  0.4039 -0.3820  0.5046
51607SOL    HW161682   7.525  11.377   4.255 -0.6919  2.6407 -1.0094
51607SOL    HW261683   7.647  11.352   4.340 -1.4268 -3.3478 -1.3336
51608SOL     OW61684   1.793  11.180   9.144  0.5191  0.6437  0.3319
51608SOL    HW161685   1.882  11.192   9.109 -0.0766  0.5610 -1.2942
51608SOL    HW261686   1.772  11.089   9.125 -0.3344  0.9722 -0.3356
51609SOL     OW61687   3.070   9.071   6.539 -0.6777 -0.5864 -0.0526
51609SOL    HW161688   3.146   9.076   6.480 -1.0429 -0.2091 -0.4977
51609SOL    HW261689   3.001   9.120   6.494 -0.7075  0.4753  1.1094
51610SOL     OW61690   6.871   9.715   7.408 -0.1804 -0.3333 -0.1586
51610SOL    HW161691   6.876   9.627   7.447 -1.2588 -0.5389 -0.4392
51610SOL    HW261692   6.784   9.718   7.367 -0.4724  1.1450  0.5108
51611SOL     OW61693   4.279   7.873   5.552  0.0951 -0.6684  0.5096
51611SOL    HW161694   4.243   7.808   5.492  0.3355 -0.6522  0.3473
51611SOL    HW261695   4.238   7.955   5.525  1.7557 -0.2773 -0.9958
51612SOL     OW61696   7.475  12.128   6.230 -0.6505 -0.0863  0.1762
51612SOL    HW161697   7.506  12.037   6.233 -0.6941 -0.0928  0.4582
51612SOL    HW261698   7.380  12.121   6.227 -0.6571 -0.1363 -2.9885
51613SOL     OW61699   2.467   4.167   3.392 -0.3343 -0.0070 -0.2969
51613SOL    HW161700   2.514   4.103   3.338 -0.9768 -0.0303 -0.8423
51613SOL    HW261701   2.453   4.122   3.475  0.2784 -0.1366 -0.2645
51614SOL     OW61702   9.798   5.270   2.127  0.1367  0.5314  0.1860
51614SOL    HW161703   9.734   5.338   2.147  1.6406  1.6761  1.3162
51614SOL    HW261704   9.837   5.298   2.045  1.7803  1.8900  1.3728
51615SOL     OW61705   3.446  11.207   9.231 -0.2950 -0.0172  0.2367
51615SOL    HW161706   3.401  11.122   9.227 -0.4611  0.0993 -0.6010
51615SOL    HW261707   3.427  11.248   9.146 -0.1823  0.8424  0.6177
51616SOL     OW61708   8.098   0.469   5.256  0.3639 -0.1502  0.2630
51616SOL    HW161709   8.135   0.500   5.339  0.0504  0.4231  0.1873
51616SOL    HW261710   8.041   0.540   5.226 -1.5813 -1.3752  0.8602
51617SOL     OW61711   0.853   3.972   2.056 -0.2914 -0.0473 -0.3274
51617SOL    HW161712   0.854   3.952   1.962  0.9187  2.2405 -0.8936
51617SOL    HW261713   0.922   3.916   2.093 -0.3384 -0.5069 -0.9197
51618SOL     OW61714   9.809  11.940   1.877  0.2900  0.5157 -0.0644
51618SOL    HW161715   9.823  11.916   1.969  0.1945 -0.3069 -0.2563
51618SOL    HW261716   9.824  12.035   1.874 -0.2686  0.6473  0.9065
51619SOL     OW61717   3.148   0.959   7.814  0.2217 -0.2803 -0.9651
51619SOL    HW161718   3.081   0.936   7.750  0.5075 -0.0295 -1.3563
51619SOL    HW261719   3.205   1.020   7.768  0.3385  0.0253 -0.4223
51620SOL     OW61720   9.995   3.230   6.820  0.1920 -0.2447  0.6015
51620SOL    HW161721   9.908   3.262   6.843  0.3402  0.6665 -0.0835
51620SOL    HW261722   9.981   3.137   6.800 -0.4831 -0.2924  1.2543
51621SOL     OW61723  10.780   6.016   7.846  0.3406 -0.8588  0.2632
51621SOL    HW161724  10.865   6.057   7.865  0.6394 -1.0144 -0.6983
51621SOL    HW261725  10.717   6.088   7.854  0.8104 -0.2732 -0.9866
51622SOL     OW61726   5.458   3.416   7.150 -0.9232  0.2145  0.1492
51622SOL    HW161727   5.439   3.499   7.107 -1.0217 -0.0352 -0.2960
51622SOL    HW261728   5.460   3.437   7.243 -4.4915  0.0689  0.3886
51623SOL     OW61729   3.054   1.457   2.056  0.5165 -0.0213  0.1963
51623SOL    HW161730   3.072   1.364   2.068 -0.3304 -0.2667 -0.3070
51623SOL    HW261731   3.016   1.486   2.139  0.5297 -0.1880  0.2601
51624SOL     OW61732   5.042  10.698   1.250 -0.2770 -0.0412 -0.2388
51624SOL    HW161733   5.115  10.636   1.257  0.0326  0.4351  1.3477
51624SOL    HW261734   5.082  10.776   1.212  0.6928  1.0312  2.6849
51625SOL     OW61735   4.909   6.415   7.584  0.6596  0.0701  0.6500
51625SOL    HW161736   4.972   6.454   7.644  0.4760  1.4951 -0.0240
51625SOL    HW261737   4.832   6.472   7.589  0.4760 -0.0203 -0.5898
51626SOL     OW61738   8.795   0.100   7.153 -0.6168 -0.0464 -0.1301
51626SOL    HW161739   8.819   0.149   7.074 -0.2181 -0.4825 -0.2822
51626SOL    HW261740   8.704   0.126   7.170 -0.7853 -0.1191 -0.8664
51627SOL     OW61741   7.060   4.792  11.092 -0.1812  0.2264 -0.0095
51627SOL    HW161742   6.974   4.770  11.058 -0.8038  0.6657  1.2123
51627SOL    HW261743   7.095   4.855  11.029 -0.0469 -1.1827 -1.3853
51628SOL     OW61744   7.901   8.323   9.982 -0.3827 -0.1605  0.3798
51628SOL    HW161745   7.919   8.417   9.976  0.7969 -0.4529 -1.7282
51628SOL    HW261746   7.938   8.297  10.066 -0.5289  1.2046  0.8945
51629SOL     OW61747  12.364   9.109  11.310  0.1478 -0.0188  1.1296
51629SOL    HW161748  12.399   9.187  11.353  1.4613 -1.2852  2.4570
51629SOL    HW261749  12.426   9.040  11.331  1.2567 -0.7078 -3.2631
51630SOL     OW61750  11.767  10.464   0.150  0.2955  0.1068  0.0454
51630SOL    HW161751  11.679  10.491   0.122 -0.2930  0.5465  2.1231
51630SOL    HW261752  11.821  10.471   0.071 -1.1654  1.5117 -0.8931
51631SOL     OW61753   3.065  10.173  11.842  0.1945  0.7420 -0.1833
51631SOL    HW161754   3.103  10.247  11.889  0.6311 -0.0377  0.7211
51631SOL    HW261755   3.136  10.108  11.839 -0.6146 -0.1801  0.2805
51632SOL     OW61756   8.875   0.398   2.037  0.1947  0.3614 -0.1949
51632SOL    HW161757   8.964   0.363   2.041  0.0223 -0.0050  0.9996
51632SOL    HW261758   8.828   0.350   2.105 -1.0446  0.2233 -1.1277
51633SOL     OW61759   4.452   3.717  11.749  0.3502  0.0284 -0.4139
51633SOL    HW161760   4.453   3.763  11.833  1.9185 -1.0340  0.2113
51633SOL    HW261761   4.371   3.666  11.750  0.1171  0.3979  0.2329
51634SOL     OW61762   5.321   3.694  10.373  0.2433 -0.9809  0.0390
51634SOL    HW161763   5.294   3.774  10.418  2.7580 -0.7910  1.4375
51634SOL    HW261764   5.292   3.705  10.283 -1.8961  0.2234  0.8173
51635SOL     OW61765   9.698   9.424   1.709  0.4745  0.1502  0.5175
51635SOL    HW161766   9.630   9.474   1.663  0.7766  1.2342  1.2082
51635SOL    HW261767   9.650   9.377   1.777  0.3003  0.1891  0.4244
51636SOL     OW61768   4.621   5.519   1.370 -0.4824  0.0114  0.3924
51636SOL    HW161769   4.602   5.470   1.290  0.0606  1.0269 -0.3773
51636SOL    HW261770   4.666   5.598   1.340 -0.1224  0.3344  1.7157
51637SOL     OW61771   1.462   8.181   9.128  0.4677  0.1485  0.0935
51637SOL    HW161772   1.448   8.273   9.152  0.4143 -0.4487  2.6584
51637SOL    HW261773   1.382   8.156   9.082 -1.2041  0.4299  2.6598
51638SOL     OW61774  10.511   2.267  10.938  0.0997  0.0030  0.4229
51638SOL    HW161775  10.419   2.259  10.966 -0.4046 -0.8561 -1.3637
51638SOL    HW261776  10.561   2.231  11.011 -1.0296 -0.2169  1.1152
51639SOL     OW61777   9.669  10.489   0.880  0.3977 -0.0233 -0.0719
51639SOL    HW161778   9.604  10.557   0.901  0.3979 -0.0382 -0.0216
51639SOL    HW261779   9.693  10.506   0.789  0.2952 -0.0408 -0.1019
51640SOL     OW61780   0.843   7.010   7.952 -0.2594 -0.1203 -0.4558
51640SOL    HW161781   0.920   7.066   7.953  0.8201 -1.5277  1.8074
51640SOL    HW261782   0.862   6.944   7.886  1.5053 -1.6842  1.4936
51641SOL     OW61783   8.208  11.940  10.752  0.0873 -0.0809 -0.0241
51641SOL    HW161784   8.160  11.861  10.727  2.2983 -1.8620  1.0032
51641SOL    HW261785   8.284  11.941  10.695  0.4156  0.9969  0.4059
51642SOL     OW61786   7.830  12.068   7.400 -0.7252 -0.0804 -0.5925
51642SOL    HW161787   7.826  11.996   7.463 -1.7324 -0.1415 -0.7076
51642SOL    HW261788   7.756  12.124   7.423  0.7458  1.5928  0.2801
51643SOL     OW61789  10.045   8.165   2.373  0.2053 -0.0879  0.0905
51643SOL    HW161790  10.104   8.090   2.380 -0.7555 -0.8750 -0.0135
51643SOL    HW261791  10.087   8.233   2.426  1.2660 -0.5731 -0.0901
51644SOL     OW61792   8.803   3.677   2.280  0.0386  0.2235 -0.2037
51644SOL    HW161793   8.890   3.641   2.297  0.4611  0.0671 -2.3471
51644SOL    HW261794   8.744   3.626   2.336  1.3573  0.7055  1.6907
51645SOL     OW61795   2.218  10.900   1.026  0.5524 -0.1278  0.2632
51645SOL    HW161796   2.253  10.852   1.102  1.0848  1.0686  0.8184
51645SOL    HW261797   2.123  10.897   1.037  0.4778 -2.2704 -0.5217
51646SOL     OW61798   0.703   5.736   3.568 -0.1668 -0.0008 -0.6025
51646SOL    HW161799   0.635   5.786   3.612  0.9293  0.1012  1.0476
51646SOL    HW261800   0.742   5.682   3.636  0.2863 -1.3425 -1.8578
51647SOL     OW61801   3.053   7.940   1.082 -0.1961  0.3413  0.7327
51647SOL    HW161802   3.141   7.946   1.046 -1.7235 -0.9352 -3.9064
51647SOL    HW261803   3.031   7.847   1.078 -1.6658  0.5700  2.2440
51648SOL     OW61804   5.945  12.232   5.795 -0.1518 -0.0808  0.2950
51648SOL    HW161805   5.866  12.214   5.744  0.5675 -1.3268 -0.4211
51648SOL    HW261806   5.916  12.230   5.886 -0.8546 -1.0824  0.0663
51649SOL     OW61807   5.059  11.101   4.576  0.0148  0.1830 -0.2618
51649SOL    HW161808   5.124  11.144   4.632 -0.1617 -0.8544  0.7839
51649SOL    HW261809   5.107  11.076   4.498  0.2415  1.7853 -0.6694
51650SOL     OW61810   8.623  11.719   8.089  0.2788 -0.7721 -0.0772
51650SOL    HW161811   8.571  11.795   8.117 -0.7886 -1.1710 -0.8900
51650SOL    HW261812   8.648  11.740   7.999  0.5357 -1.1011 -0.0815
51651SOL     OW61813   9.377   8.217   9.970 -0.1931  0.2839  0.1008
51651SOL    HW161814   9.410   8.282   9.908  0.9015 -0.3582 -0.0055
51651SOL    HW261815   9.383   8.261  10.056  0.0865  0.4868 -0.0222
51652SOL     OW61816   9.428  11.460   0.610  0.0614  0.5154 -0.1140
51652SOL    HW161817   9.491  11.394   0.585 -1.2563 -1.4347  1.3926
51652SOL    HW261818   9.466  11.502   0.687  0.3288  0.6460 -0.3158
51653SOL     OW61819   7.201   4.217   6.813  0.3372  0.2441  0.0908
51653SOL    HW161820   7.287   4.245   6.782  0.6589  1.2251  1.7175
51653SOL    HW261821   7.220   4.163   6.890 -0.4389 -1.4549 -0.8732
51654SOL     OW61822   5.683   5.339   7.153  0.1331  0.2097  0.1467
51654SOL    HW161823   5.683   5.398   7.228  0.1648  1.6029 -0.9004
51654SOL    HW261824   5.610   5.370   7.099  0.4119 -0.4485 -0.6263
51655SOL     OW61825  11.421  10.433   8.277  0.1271 -0.3964 -0.6284
51655SOL    HW161826  11.425  10.488   8.199  0.8239 -0.2404 -0.4888
51655SOL    HW261827  11.328  10.417   8.290  0.0243 -0.8833 -1.8153
51656SOL     OW61828  11.248   4.451   4.611 -0.3064 -0.3819  0.3457
51656SOL    HW161829  11.190   4.407   4.672  1.3144 -1.2710  1.3191
51656SOL    HW261830  11.332   4.406   4.621  0.6384  1.0351 -0.7890
51657SOL     OW61831  10.755   8.571   6.539  0.2713  0.3241 -0.4121
51657SOL    HW161832  10.682   8.553   6.480 -0.7632  1.6054  0.4366
51657SOL    HW261833  10.786   8.658   6.513  0.1992  0.6377  0.5403
51658SOL     OW61834   5.568  10.782   9.188  0.1700  0.6417  0.2123
51658SOL    HW161835   5.615  10.793   9.271  1.1958  1.4477 -0.4541
51658SOL    HW261836   5.608  10.704   9.148  1.1969  1.5050 -0.4962
51659SOL     OW61837   8.134   4.321   3.892 -0.2203  0.0756  0.3502
51659SOL    HW161838   8.171   4.340   3.978 -0.7126 -1.5567  0.9569
51659SOL    HW261839   8.094   4.234   3.901 -1.3301  0.3750 -1.1940
51660SOL     OW61840   3.946   8.373   1.757 -0.5670  0.7639 -0.2040
51660SOL    HW161841   3.960   8.334   1.843  1.3975  0.6407 -0.5396
51660SOL    HW261842   3.921   8.463   1.775  0.0870  0.8136  0.4943
51661SOL     OW61843   4.084   4.635   6.500 -0.3632  0.6064  0.0254
51661SOL    HW161844   4.118   4.653   6.412 -1.1315  0.2609 -0.3540
51661SOL    HW261845   4.047   4.547   6.493 -2.6147  1.4877  0.0052
51662SOL     OW61846   8.257   9.651   4.715 -0.5167 -0.0419  0.6480
51662SOL    HW161847   8.166   9.655   4.688 -0.5302 -0.7623  0.5641
51662SOL    HW261848   8.255   9.610   4.802 -0.1836 -1.3793  0.0588
51663SOL     OW61849   7.098  11.235   9.214  0.0824  0.2095 -0.0256
51663SOL    HW161850   7.043  11.245   9.136 -0.8790  1.3936  0.7557
51663SOL    HW261851   7.168  11.176   9.187 -0.7340 -0.1321 -1.5108
51664SOL     OW61852   1.757   2.456   3.870  0.8012  0.2476 -0.6029
51664SOL    HW161853   1.768   2.470   3.964 -0.5873  1.3197 -0.5643
51664SOL    HW261854   1.700   2.379   3.864  0.2575  0.6313 -0.5185
51665SOL     OW61855   3.604   8.286   6.060  0.3709 -0.0461 -0.3144
51665SOL    HW161856   3.653   8.256   6.138 -0.0066 -1.5293 -0.6079
51665SOL    HW261857   3.529   8.227   6.056  0.1747  0.2715 -1.5852
51666SOL     OW61858   8.840   2.094  10.527  0.5277 -0.4533  0.1746
51666SOL    HW161859   8.769   2.148  10.492  0.4442  0.3872  1.5677
51666SOL    HW261860   8.879   2.148  10.597  1.2691 -1.6870  0.7428
51667SOL     OW61861  10.715  11.775   0.935 -0.1376  0.8227  0.4227
51667SOL    HW161862  10.673  11.852   0.895  2.0385  2.2206  0.6721
51667SOL    HW261863  10.703  11.787   1.029 -2.4860 -0.8242  0.4068
51668SOL     OW61864   5.206  10.121   9.018 -0.2358  0.2958 -0.0946
51668SOL    HW161865   5.140  10.053   9.005  0.0479 -0.3106  1.4570
51668SOL    HW261866   5.270  10.106   8.948 -1.4211  0.5221 -1.2484
51669SOL     OW61867   0.410   4.987   8.326  0.4384 -0.3825 -0.4414
51669SOL    HW161868   0.454   5.042   8.261 -0.8332  0.2891 -0.7588
51669SOL    HW261869   0.476   4.976   8.396  0.3870  2.5597  0.2229
51670SOL     OW61870  10.857   3.852   0.933 -0.8481  0.1138 -0.2097
51670SOL    HW161871  10.837   3.780   0.994 -1.5757 -0.4302 -1.0627
51670SOL    HW261872  10.878   3.926   0.990  0.3400 -0.8645  0.6949
51671SOL     OW61873   1.084  11.262  11.750 -0.1418  0.4597  0.0835
51671SOL    HW161874   1.147  11.281  11.681 -0.8225  0.1376 -0.6395
51671SOL    HW261875   1.028  11.340  11.754  0.4816  0.8852  0.9527
51672SOL     OW61876  10.850   8.017   5.253  0.5042 -0.1358  0.8544
51672SOL    HW161877  10.874   7.924   5.259  1.2772 -0.0843 -0.7593
51672SOL    HW261878  10.788   8.021   5.180  1.4101  0.7576  0.1017
51673SOL     OW61879   5.559  11.757   1.001  0.0544  0.2069  0.5220
51673SOL    HW161880   5.503  11.832   1.020 -0.5492 -0.3154  0.8726
51673SOL    HW261881   5.555  11.747   0.906 -0.7717 -0.0458  0.5671
51674SOL     OW61882   2.899   3.962   3.127  0.2221  0.4368  0.1788
51674SOL    HW161883   2.877   3.878   3.089  2.1468 -0.1121  0.1440
51674SOL    HW261884   2.848   4.026   3.077  0.7397 -0.4846 -1.5982
51675SOL     OW61885   3.049  10.575  11.850 -0.0978  0.6650  0.3428
51675SOL    HW161886   3.116  10.506  11.849  1.3004  1.9563 -0.3240
51675SOL    HW261887   3.049  10.607  11.941 -0.5272  0.0062  0.5789
51676SOL     OW61888   6.635  10.998   3.310  0.0810 -0.2212 -0.3650
51676SOL    HW161889   6.652  11.037   3.396  1.5749 -1.6179  0.0231
51676SOL    HW261890   6.630  11.072   3.250 -0.2754  0.7362  0.8147
51677SOL     OW61891   9.929   7.666  11.999  0.3127 -1.0189 -0.1799
51677SOL    HW161892   9.928   7.753  11.960  1.4781  0.0003  1.9121
51677SOL    HW261893   9.837   7.645  12.015  0.0721  0.3116  0.2648
51678SOL     OW61894   8.438   3.630  12.345 -0.4083  0.1866 -0.1669
51678SOL    HW161895   8.500   3.651  12.274 -2.4644  0.7291 -1.8997
51678SOL    HW261896   8.476   3.554  12.388  0.3796 -0.8797 -2.6028
51679SOL     OW61897   0.152   5.939   2.245 -1.0611 -0.1069  0.4592
51679SOL    HW161898   0.165   5.962   2.153 -0.5479  0.6941  0.7221
51679SOL    HW261899   0.060   5.958   2.262 -0.7699  1.3685  0.5358
51680SOL     OW61900   0.806   0.441   1.857 -0.0470 -0.3416  0.6296
51680SOL    HW161901   0.875   0.507   1.850  0.4747 -1.0356 -1.4923
51680SOL    HW261902   0.726   0.487   1.831  0.2903 -0.4633 -0.6965
51681SOL     OW61903   7.221   8.328   5.183 -0.5991  0.2881  0.1799
51681SOL    HW161904   7.296   8.315   5.241 -1.2896  0.3034  1.1171
51681SOL    HW261905   7.257   8.365   5.103  0.2965  1.0372  0.9131
51682SOL     OW61906   8.478   8.919   6.952 -0.3862  0.2705  0.2219
51682SOL    HW161907   8.511   8.961   6.873 -1.2095  1.1338  0.3120
51682SOL    HW261908   8.421   8.849   6.920 -2.5696  2.0464 -0.0594
51683SOL     OW61909   1.042   1.025   2.529  0.3675 -0.1862  0.0495
51683SOL    HW161910   1.058   1.119   2.540  0.7462 -0.3010  0.4877
51683SOL    HW261911   0.959   1.010   2.575  0.3967 -0.0993  0.1315
51684SOL     OW61912   8.598  12.185   5.676  0.2329 -0.2034  0.1059
51684SOL    HW161913   8.526  12.204   5.736  1.5435  1.2690  1.2931
51684SOL    HW261914   8.654  12.123   5.724 -0.0746 -1.1104 -0.6868
51685SOL     OW61915   4.610  11.564   7.497  0.1383 -0.4121  0.2488
51685SOL    HW161916   4.633  11.475   7.471  0.1370 -0.3641  0.0762
51685SOL    HW261917   4.602  11.611   7.413 -1.8025 -0.7190  0.2133
51686SOL     OW61918   8.873  12.272   6.506 -0.5398  0.1414 -0.0045
51686SOL    HW161919   8.904  12.241   6.591 -0.4901  0.1706 -0.0119
51686SOL    HW261920   8.947  12.258   6.447 -0.6226 -0.0094 -0.0735
51687SOL     OW61921  11.758   4.076   2.823 -0.2060  0.3292 -0.2831
51687SOL    HW161922  11.788   4.162   2.852 -2.0120  0.3574  1.7762
51687SOL    HW261923  11.796   4.065   2.736  3.2100  1.5291  0.9056
51688SOL     OW61924   6.662   4.517   1.008  0.2242  0.3081 -0.0093
51688SOL    HW161925   6.635   4.562   1.088  0.5385  0.1461  0.1894
51688SOL    HW261926   6.745   4.558   0.983  1.7621 -1.7044  1.4907
51689SOL     OW61927   4.371   5.081   0.895  0.1264  0.9221  0.2056
51689SOL    HW161928   4.364   4.993   0.932 -0.6332  0.2573 -1.4246
51689SOL    HW261929   4.392   5.137   0.970 -0.1660 -0.5254  1.4136
51690SOL     OW61930   6.717   0.234   7.230  0.4248  0.5061  0.1447
51690SOL    HW161931   6.806   0.252   7.259  0.5916  2.6554 -1.4157
51690SOL    HW261932   6.665   0.305   7.267 -0.1443  0.7102 -0.9869
51691SOL     OW61933   9.707   7.020   1.221  0.5522  0.0227  1.0958
51691SOL    HW161934   9.766   6.947   1.237  1.7481  0.9509  1.0785
51691SOL    HW261935   9.724   7.044   1.130 -0.8183 -0.5235  0.6787
51692SOL     OW61936   1.822   8.285   5.286  0.4108 -0.2998 -0.3463
51692SOL    HW161937   1.748   8.326   5.332  0.6782  0.3100 -0.4508
51692SOL    HW261938   1.896   8.342   5.305  0.8026 -0.7693 -0.4573
51693SOL     OW61939   4.553   7.161   1.082  0.2894  0.1848 -0.0503
51693SOL    HW161940   4.561   7.222   1.008 -2.9499  0.9127  0.0439
51693SOL    HW261941   4.592   7.080   1.050  0.3132  0.9161 -2.0416
51694SOL     OW61942   5.414   5.838   6.667 -0.3616 -0.2968 -0.0410
51694SOL    HW161943   5.486   5.829   6.605  1.1256 -1.1261  1.6995
51694SOL    HW261944   5.356   5.765   6.648  0.2913 -0.7764 -0.2025
51695SOL     OW61945   6.547   3.506  11.740 -0.6036 -0.5188  0.3480
51695SOL    HW161946   6.477   3.533  11.682 -0.1992 -2.5134 -1.1622
51695SOL    HW261947   6.620   3.483  11.682  0.7415 -0.1127  1.7878
51696SOL     OW61948   0.408   6.913   1.205  0.0690 -0.1913 -0.7119
51696SOL    HW161949   0.476   6.948   1.263 -0.1297 -0.7375 -0.1295
51696SOL    HW261950   0.341   6.981   1.202  2.0565  1.8942 -4.0128
51697SOL     OW61951  12.480   0.724   9.551 -0.2940  0.4490 -0.3403
51697SOL    HW161952  12.440   0.789   9.608 -5.4204 -0.4543 -2.3745
51697SOL    HW261953  12.468   0.641   9.597 -0.0916  0.2289 -0.6822
51698SOL     OW61954   3.149   1.272  10.873 -0.0546  0.1062 -0.3288
51698SOL    HW161955   3.122   1.181  10.862  0.0011  0.3033 -2.4728
51698SOL    HW261956   3.106   1.301  10.954 -1.7684 -1.1920 -0.7351
51699SOL     OW61957  10.119   2.301   8.246  0.2401 -0.2180  0.5570
51699SOL    HW161958  10.104   2.395   8.254  1.5928 -0.0584  1.6482
51699SOL    HW261959  10.096   2.266   8.332 -1.3916 -1.0813 -0.1985
51700SOL     OW61960   8.170  12.343   9.285 -0.1038  0.0090  0.5015
51700SOL    HW161961   8.251  12.336   9.335  0.9091  0.6044 -0.9972
51700SOL    HW261962   8.115  12.402   9.337  0.6789  0.1538  1.1820
51701SOL     OW61963   7.302   2.254   0.249  0.6188  0.3301 -0.0928
51701SOL    HW161964   7.279   2.252   0.341 -1.4747 -1.4005 -0.5803
51701SOL    HW261965   7.397   2.243   0.248  0.8719  1.8069  1.8523
51702SOL     OW61966   0.797   1.120  11.708  0.2518 -0.5804  0.1767
51702SOL    HW161967   0.829   1.210  11.713 -0.8096 -0.2711  2.6545
51702SOL    HW261968   0.703   1.127  11.721 -0.0155 -1.9853 -0.7674
51703SOL     OW61969   8.586   9.362   6.394  0.0749  0.3272 -0.1717
51703SOL    HW161970   8.623   9.290   6.445  1.8566  0.3501 -1.3374
51703SOL    HW261971   8.534   9.412   6.458  0.1879 -1.0182  1.0309
51704SOL     OW61972  11.909   3.885   3.250 -0.0965  0.8880 -0.1434
51704SOL    HW161973  11.850   3.817   3.283  0.2530  0.7699  0.2489
51704SOL    HW261974  11.918   3.865   3.157  0.5322 -0.0143  0.0948
51705SOL     OW61975   4.098   1.648   4.694 -0.7097  0.0287 -0.3891
51705SOL    HW161976   4.043   1.575   4.667 -1.9565  0.8177 -0.0917
51705SOL    HW261977   4.064   1.674   4.780  0.4388  0.2529  0.0240
51706SOL     OW61978   6.827  12.196   9.443  0.6119 -0.0461 -0.0403
51706SOL    HW161979   6.920  12.174   9.431  0.6655  1.1426 -2.2749
51706SOL    HW261980   6.803  12.243   9.364 -1.0536  2.6843  1.9295
51707SOL     OW61981   8.188   2.469   4.063  0.0102 -0.4151  0.6086
51707SOL    HW161982   8.102   2.446   4.028  0.7319 -1.4665 -0.5722
51707SOL    HW261983   8.199   2.561   4.042 -1.5967  0.2844  2.5028
51708SOL     OW61984   9.024   0.198   9.326  0.7770 -0.1689  0.0422
51708SOL    HW161985   8.995   0.247   9.403 -0.1601  1.8797 -1.5020
51708SOL    HW261986   8.958   0.130   9.314  1.8068 -1.6012  1.9177
51709SOL     OW61987  11.456   1.833  10.652 -0.5126  0.6546  0.0779
51709SOL    HW161988  11.488   1.753  10.694  2.4344  2.2364  1.1771
51709SOL    HW261989  11.453   1.812  10.559  0.4629 -0.6683  0.3224
51710SOL     OW61990   5.861   9.169   1.804 -0.2203 -0.1171  0.0920
51710SOL    HW161991   5.905   9.242   1.847 -0.0046 -0.6465  0.7772
51710SOL    HW261992   5.769   9.195   1.800 -0.3781 -0.3981  1.5918
51711SOL     OW61993   5.233   0.925  11.012  0.5707 -0.2186 -0.0659
51711SOL    HW161994   5.298   0.871  10.968  1.0024  1.0374 -1.0183
51711SOL    HW261995   5.206   0.872  11.088  0.1651 -2.2401 -1.5233
51712SOL     OW61996   7.808   4.860   9.012 -0.2258  0.2596 -0.0735
51712SOL    HW161997   7.815   4.889   9.103 -1.9503 -1.6721  0.7514
51712SOL    HW261998   7.854   4.776   9.009 -1.2759 -0.3199 -0.6491
51713SOL     OW61999   8.095   9.339   2.319 -0.1340 -0.1956  0.1825
51713SOL    HW162000   8.169   9.290   2.283 -0.9868 -0.1524 -1.8099
51713SOL    HW262001   8.133   9.394   2.387  1.1370 -2.3085  1.3033
51714SOL     OW62002   2.918  10.866   2.914  0.2497 -0.3802  0.0578
51714SOL    HW162003   2.946  10.793   2.969 -0.6681 -0.1096  0.9303
51714SOL    HW262004   2.949  10.944   2.961  0.0541 -0.1655 -0.1669
51715SOL     OW62005  10.872   7.329   3.775 -0.1240 -0.5688  0.2838
51715SOL    HW162006  10.787   7.330   3.818 -0.6065 -0.0699 -0.6530
51715SOL    HW262007  10.904   7.419   3.784  0.3513 -0.7742  0.7053
51716SOL     OW62008   0.570   1.853  11.158  0.0113 -0.0903  0.5553
51716SOL    HW162009   0.568   1.892  11.245  1.1350  0.1052  0.5113
51716SOL    HW262010   0.578   1.759  11.174 -0.9753 -0.1713  0.6509
51717SOL     OW62011   3.521  10.267  10.485 -0.1516  0.0335  0.3168
51717SOL    HW162012   3.454  10.231  10.543  0.7051  1.4447  2.3055
51717SOL    HW262013   3.589  10.200  10.482 -0.5941 -0.4153  0.2163
51718SOL     OW62014   1.565  10.017   2.656  0.2542 -0.2335  0.3308
51718SOL    HW162015   1.655  10.019   2.688  0.4940  2.1897 -0.2738
51718SOL    HW262016   1.514  10.059   2.725 -0.1555 -0.1565 -0.0124
51719SOL     OW62017   0.639   8.779   7.716 -0.0466  0.6271 -0.3525
51719SOL    HW162018   0.707   8.846   7.703  1.3469 -0.7549 -0.5374
51719SOL    HW262019   0.679   8.698   7.682 -0.8568 -0.7363  1.7469
51720SOL     OW62020   2.485   9.846   1.767  0.0436  0.5476 -0.0478
51720SOL    HW162021   2.562   9.860   1.822 -0.3711 -2.3010  1.4414
51720SOL    HW262022   2.446   9.933   1.758  2.5836  1.8122  0.4143
51721SOL     OW62023   5.581  10.089   0.295  0.1136  0.1340  0.0002
51721SOL    HW162024   5.489  10.064   0.302 -0.0715  1.0571  1.1654
51721SOL    HW262025   5.581  10.184   0.307  1.1306  0.2760 -0.9265
51722SOL     OW62026   7.989   3.851  12.110 -0.2401 -0.0649  0.6775
51722SOL    HW162027   8.081   3.836  12.127  1.0777 -0.4191 -4.8763
51722SOL    HW262028   7.981   3.946  12.101 -0.2731 -0.0726  0.6221
51723SOL     OW62029   2.221   4.621   6.404 -0.1461 -0.4939  0.4473
51723SOL    HW162030   2.152   4.650   6.464 -0.3821  0.3167 -0.2029
51723SOL    HW262031   2.234   4.529   6.426 -1.1457 -0.5512  0.8551
51724SOL     OW62032   3.141  11.296   0.495  0.1009 -0.3025  0.5913
51724SOL    HW162033   3.088  11.330   0.422  2.7366  0.4996 -1.0703
51724SOL    HW262034   3.153  11.203   0.475  0.5396 -0.1568  0.1558
51725SOL     OW62035   6.406  11.662   2.077 -0.5489 -0.3669  0.3114
51725SOL    HW162036   6.447  11.582   2.111 -2.1100 -1.9231 -1.2958
51725SOL    HW262037   6.467  11.694   2.011 -1.4637 -2.3355 -1.6411
51726SOL     OW62038   8.480   5.537   5.460  0.1466 -0.2109  0.7167
51726SOL    HW162039   8.575   5.534   5.473  0.1577  0.2569  0.7440
51726SOL    HW262040   8.469   5.519   5.367  0.2427 -0.5598  0.7699
51727SOL     OW62041   3.832   4.650   5.524 -0.2147 -0.2657  0.5887
51727SOL    HW162042   3.922   4.679   5.510  0.2607 -1.6024  0.7806
51727SOL    HW262043   3.816   4.668   5.617 -0.5133  0.9078  0.3266
51728SOL     OW62044  10.405   1.285   4.013 -0.6453  0.0943 -0.3884
51728SOL    HW162045  10.465   1.225   4.057 -0.4237 -0.1906 -1.0571
51728SOL    HW262046  10.460   1.353   3.976 -0.9290  0.8825  0.6248
51729SOL     OW62047  12.195   3.234   3.274  0.0017 -0.2711  0.2939
51729SOL    HW162048  12.240   3.265   3.196  1.1004  0.5022  1.1983
51729SOL    HW262049  12.102   3.248   3.256  0.2841  0.4937 -0.6195
51730SOL     OW62050  11.379   3.529   7.772  0.6065 -0.0075  0.4591
51730SOL    HW162051  11.302   3.512   7.826  0.3029  2.2637  0.8581
51730SOL    HW262052  11.372   3.622   7.750  1.3097 -0.5718 -2.5982
51731SOL     OW62053   0.182   3.024  10.755 -0.2899 -0.1885 -0.4845
51731SOL    HW162054   0.153   3.093  10.815 -1.1167  0.2918 -1.3921
51731SOL    HW262055   0.131   2.947  10.780  0.3898 -0.3893  0.3171
51732SOL     OW62056   6.918   3.891   2.274  0.3260  0.5776  0.2383
51732SOL    HW162057   6.995   3.890   2.330  0.9338 -0.6364 -0.5700
51732SOL    HW262058   6.950   3.924   2.190 -0.4111  1.6484  0.3537
51733SOL     OW62059   3.074   8.672  11.946 -0.6072  0.1624 -0.3519
51733SOL    HW162060   3.003   8.699  12.004 -0.8249 -1.3793  0.1569
51733SOL    HW262061   3.139   8.741  11.954 -0.7337  0.1224  1.5724
51734SOL     OW62062   8.977   3.674   8.894  0.4627 -0.1319  0.0231
51734SOL    HW162063   8.918   3.720   8.954  1.0114  0.2741  0.2496
51734SOL    HW262064   9.032   3.621   8.951  0.6303 -0.1578 -0.1643
51735SOL     OW62065   9.924   3.544  10.750  0.0167 -0.2123 -0.1139
51735SOL    HW162066  10.018   3.556  10.741  0.3510 -2.9891 -1.2506
51735SOL    HW262067   9.908   3.549  10.845  1.2274  0.5942  0.0681
51736SOL     OW62068   4.378   8.286  10.520  0.0804  0.6741  0.4680
51736SOL    HW162069   4.471   8.283  10.538  0.1738 -1.5817 -0.1200
51736SOL    HW262070   4.338   8.231  10.588 -0.6912  0.6245 -0.0084
51737SOL     OW62071   3.197   5.456   2.647 -0.6233 -0.5470 -0.6093
51737SOL    HW162072   3.207   5.365   2.675 -1.2059 -0.4863 -0.1817
51737SOL    HW262073   3.144   5.450   2.567  0.6986 -0.6903 -1.5051
51738SOL     OW62074   8.146   9.599   1.671 -0.5011  0.3991  0.1834
51738SOL    HW162075   8.168   9.573   1.760 -2.8301  2.8758  1.6505
51738SOL    HW262076   8.220   9.654   1.643 -0.2873  0.5859  1.0887
51739SOL     OW62077   6.148   7.858   9.916 -0.2194  0.2969 -0.5704
51739SOL    HW162078   6.182   7.913   9.986 -0.3547  0.3122 -0.5165
51739SOL    HW262079   6.198   7.776   9.923 -1.0903 -0.1705  0.3297
51740SOL     OW62080   5.964   9.943   7.424 -0.1329 -0.4087  0.2594
51740SOL    HW162081   5.953  10.037   7.440 -1.3183 -0.8434  2.3636
51740SOL    HW262082   5.894   9.921   7.362  0.4330  0.1487 -0.5976
51741SOL     OW62083   3.628  11.622   3.651 -0.0736  0.0183  0.1811
51741SOL    HW162084   3.536  11.626   3.676 -0.4022  2.1677 -1.0783
51741SOL    HW262085   3.630  11.557   3.581 -0.9729  1.0150 -0.8245
51742SOL     OW62086   0.801   2.891  11.829 -0.0268 -0.1813 -0.5168
51742SOL    HW162087   0.896   2.906  11.834 -0.1036  0.3819 -0.6403
51742SOL    HW262088   0.774   2.935  11.749 -0.5326  0.4635 -0.0104
51743SOL     OW62089   4.332   9.811   0.333 -0.1554  0.0605  0.2035
51743SOL    HW162090   4.338   9.906   0.323  0.2018 -0.0437 -0.5973
51743SOL    HW262091   4.256   9.797   0.390 -0.9552  0.7610 -0.6776
51744SOL     OW62092   8.378   3.875   1.455 -0.4186  0.9842  0.3077
51744SOL    HW162093   8.344   3.786   1.463  0.9732  0.2498 -1.3283
51744SOL    HW262094   8.371   3.896   1.362  1.5957  1.5708  0.2281
51745SOL     OW62095   6.818   5.126   5.528  0.3227  0.1897 -0.1902
51745SOL    HW162096   6.797   5.216   5.551 -2.4975 -0.4279  0.0818
51745SOL    HW262097   6.885   5.100   5.592 -1.7097  0.9136  2.4296
51746SOL     OW62098  10.690   3.178   7.156 -0.5433  0.1689  0.3362
51746SOL    HW162099  10.666   3.196   7.065 -0.8851  1.9605  0.7456
51746SOL    HW262100  10.748   3.102   7.151 -1.2573 -0.3100 -1.2814
51747SOL     OW62101   7.482  10.549   8.750  0.4945  0.1417  0.0072
51747SOL    HW162102   7.404  10.594   8.716  0.1841 -0.2873  0.1572
51747SOL    HW262103   7.492  10.583   8.839 -0.0674 -0.4966  0.3217
51748SOL     OW62104  10.163   3.379   2.605  0.4304  0.0843 -0.9834
51748SOL    HW162105  10.246   3.397   2.561  0.7596 -0.8040 -0.7558
51748SOL    HW262106  10.189   3.345   2.691 -0.1842  0.6704 -0.5609
51749SOL     OW62107   3.523   7.225   4.109 -0.1329 -0.0322  0.3689
51749SOL    HW162108   3.539   7.311   4.147  1.7013  0.0931 -0.6164
51749SOL    HW262109   3.542   7.164   4.180  0.5841  0.2951  0.4609
51750SOL     OW62110   7.159   8.141  12.027 -0.2524  0.5664  0.1470
51750SOL    HW162111   7.077   8.092  12.031 -0.6165  1.1276  4.1380
51750SOL    HW262112   7.134   8.229  12.001 -0.8869  0.6230  0.9135
51751SOL     OW62113   5.962   1.275   5.514  0.4070 -0.3090 -0.0445
51751SOL    HW162114   6.031   1.332   5.481 -1.3114  1.9057 -0.0138
51751SOL    HW262115   5.890   1.286   5.452 -1.5814  1.1255  2.3514
51752SOL     OW62116   5.753   2.550   0.479  0.1938  0.5404 -0.4955
51752SOL    HW162117   5.767   2.478   0.417 -0.3164  1.6504 -1.9386
51752SOL    HW262118   5.834   2.552   0.532 -0.4522 -2.1412  0.7580
51753SOL     OW62119  12.091  10.961   9.466 -0.5991  0.8281 -0.4237
51753SOL    HW162120  12.046  11.030   9.417 -1.4443  1.0111  0.5519
51753SOL    HW262121  12.178  10.996   9.483 -0.2995  0.7606 -1.7643
51754SOL     OW62122   9.362   0.647   2.225 -0.6948  0.4144 -0.3413
51754SOL    HW162123   9.431   0.647   2.291 -0.2883 -0.6102 -0.7494
51754SOL    HW262124   9.281   0.634   2.275 -0.6934  2.1728  0.1942
51755SOL     OW62125  11.300   3.247  10.721 -0.3891  0.1485 -0.8926
51755SOL    HW162126  11.381   3.196  10.721  0.2826  1.1299 -2.3327
51755SOL    HW262127  11.231   3.183  10.705  0.1274 -0.6559  0.0065
51756SOL     OW62128   2.578   6.662   5.519  0.4306 -0.1503 -0.1892
51756SOL    HW162129   2.551   6.699   5.435 -1.3609 -2.0975 -0.5493
51756SOL    HW262130   2.673   6.673   5.521  0.6547 -1.0021 -2.9840
51757SOL     OW62131  10.189  10.080  12.163  0.4822 -0.1065 -0.3148
51757SOL    HW162132  10.256  10.137  12.200 -0.3698 -0.4422  1.9182
51757SOL    HW262133  10.194  10.095  12.069  1.4545  2.3343  0.0471
51758SOL     OW62134   4.341  11.234   8.330 -0.0500 -0.1168  0.0167
51758SOL    HW162135   4.436  11.243   8.344  0.2894 -2.3348 -0.3711
51758SOL    HW262136   4.334  11.204   8.239 -1.0384 -0.7637  0.2955
51759SOL     OW62137   1.179   3.707  10.221  0.3124 -0.0949 -0.0901
51759SOL    HW162138   1.198   3.635  10.281 -1.8102  0.2620  1.1303
51759SOL    HW262139   1.156   3.665  10.139  0.2932 -0.7503  0.2403
51760SOL     OW62140  11.514   0.328   0.488  1.1196  0.5985  0.1022
51760SOL    HW162141  11.450   0.262   0.514  1.0745  0.1064 -1.1803
51760SOL    HW262142  11.482   0.409   0.526  0.4262  0.1265  0.5394
51761SOL     OW62143  10.676   8.758  12.083  0.4806 -0.1598 -0.0294
51761SOL    HW162144  10.582   8.745  12.073 -0.3975  2.9678  2.6876
51761SOL    HW262145  10.705   8.787  11.996 -1.4519  0.6577 -0.4479
51762SOL     OW62146  11.058   6.768   8.832  0.0089 -0.4289  0.5067
51762SOL    HW162147  10.972   6.797   8.804  0.3579 -0.2139 -0.3777
51762SOL    HW262148  11.077   6.821   8.910 -1.1707 -1.3666  1.4763
51763SOL     OW62149   6.560   7.698   2.116  0.0207 -0.0519  0.1699
51763SOL    HW162150   6.483   7.750   2.139 -0.1694 -0.2032 -0.1179
51763SOL    HW262151   6.561   7.697   2.021  1.1499  1.0962  0.1389
51764SOL     OW62152   4.529   6.791  11.453  0.2579 -0.5160  0.2979
51764SOL    HW162153   4.479   6.732  11.397 -1.6875  1.6567 -0.4092
51764SOL    HW262154   4.483   6.788  11.537  1.0452 -1.0757  0.7260
51765SOL     OW62155   0.193   9.358   3.611  0.1191  0.3257  0.1608
51765SOL    HW162156   0.127   9.385   3.675  0.3205  1.3723 -0.0560
51765SOL    HW262157   0.276   9.389   3.649  0.1787  1.4857 -0.8660
51766SOL     OW62158  11.434   1.529   6.611 -0.0698  0.2453 -0.1290
51766SOL    HW162159  11.370   1.476   6.659  1.2297 -1.9379 -0.6442
51766SOL    HW262160  11.518   1.507   6.651  0.6691  0.8184 -1.3131
51767SOL     OW62161  11.720   5.134   2.987 -0.0972 -0.2262 -0.6608
51767SOL    HW162162  11.726   5.046   3.025 -0.4323 -0.8269 -1.9370
51767SOL    HW262163  11.811   5.161   2.974  0.0152 -0.0946  0.3626
51768SOL     OW62164  11.271  10.452   8.967 -0.2000 -0.1637  0.2104
51768SOL    HW162165  11.223  10.511   9.025  1.6187  1.7460 -0.1070
51768SOL    HW262166  11.236  10.365   8.987 -2.3821  0.8890  1.3111
51769SOL     OW62167   9.280   5.818   0.280  0.1446 -0.4259  0.5041
51769SOL    HW162168   9.185   5.829   0.285 -0.1503 -1.7993 -1.0895
51769SOL    HW262169   9.304   5.850   0.194  1.1393 -0.1386  0.8720
51770SOL     OW62170  12.070   7.248   7.944 -0.2422 -0.7594 -0.0730
51770SOL    HW162171  12.077   7.240   8.039  1.0739  1.7434  0.1413
51770SOL    HW262172  12.158   7.226   7.912  0.1602  1.1141 -0.3823
51771SOL     OW62173  11.650   4.151   1.941  0.1718 -0.1679  0.3316
51771SOL    HW162174  11.688   4.069   1.971 -1.9769 -0.9520  1.0524
51771SOL    HW262175  11.618   4.194   2.021 -0.8929  0.2089 -0.2724
51772SOL     OW62176   7.980  12.251  12.324 -0.2352 -0.2200 -0.0905
51772SOL    HW162177   7.968  12.330  12.377  0.6507 -0.2232  0.1253
51772SOL    HW262178   8.005  12.184  12.388  0.5873 -0.2863 -0.4818
51773SOL     OW62179   4.311   7.316   4.699 -0.3836 -0.1190  0.1807
51773SOL    HW162180   4.300   7.221   4.686  0.1165 -0.0510 -0.8339
51773SOL    HW262181   4.379   7.341   4.637 -1.4481  1.1526 -0.5128
51774SOL     OW62182   7.127  11.752   5.737  0.5198  0.3553 -0.1685
51774SOL    HW162183   7.091  11.796   5.814  0.8796  0.2360  0.0726
51774SOL    HW262184   7.221  11.771   5.741  0.9229 -1.6025  0.7297
51775SOL     OW62185  11.586   6.186   0.070  0.0704 -0.4048  0.2679
51775SOL    HW162186  11.678   6.202   0.090  0.4167  0.7617 -1.9589
51775SOL    HW262187  11.575   6.216  -0.020 -2.6491  0.1849  0.6865
51776SOL     OW62188  10.759   0.474  11.432 -0.4368 -0.6280  0.6477
51776SOL    HW162189  10.727   0.563  11.415 -1.1238 -0.5282  2.3026
51776SOL    HW262190  10.730   0.423  11.356 -0.9146  0.3385  0.1654
51777SOL     OW62191  11.818   7.213   3.327  0.2166  0.2901 -0.1585
51777SOL    HW162192  11.795   7.172   3.243 -1.3159 -2.1782  1.3370
51777SOL    HW262193  11.764   7.292   3.331 -0.4260 -0.0821 -1.0880
51778SOL     OW62194  10.273  11.785   3.551  0.3484  0.2432 -0.3521
51778SOL    HW162195  10.337  11.725   3.590 -1.3772 -1.3641  0.2073
51778SOL    HW262196  10.260  11.752   3.462  0.0292  0.3235 -0.3357
51779SOL     OW62197   9.486   5.157   3.976  0.7726  1.0097 -0.0638
51779SOL    HW162198   9.446   5.087   3.925  2.1282 -0.8488  1.2712
51779SOL    HW262199   9.569   5.174   3.932  1.7130 -0.2404  1.1642
51780SOL     OW62200   8.054   3.017  11.595  0.0023  0.2848 -0.3641
51780SOL    HW162201   8.113   3.087  11.570  1.3839 -1.2306 -1.5358
51780SOL    HW262202   7.988   3.060  11.650  1.9471  2.0961  0.6989
51781SOL     OW62203   7.753   2.427   2.505 -0.0586  0.1320  0.3180
51781SOL    HW162204   7.752   2.517   2.538  0.7238 -0.0636  0.9235
51781SOL    HW262205   7.814   2.428   2.431 -0.0600  0.1075  0.3161
51782SOL     OW62206  12.208   5.106   7.936 -0.0449 -0.8352 -0.1125
51782SOL    HW162207  12.276   5.074   7.876 -0.3165  0.4015 -1.1280
51782SOL    HW262208  12.236   5.074   8.022  2.6256  0.8090 -0.2539
51783SOL     OW62209   8.302   2.265   8.982  0.3872 -0.3428  0.2331
51783SOL    HW162210   8.266   2.300   9.063  0.1763 -0.6588  0.2740
51783SOL    HW262211   8.382   2.219   9.010 -0.2496 -1.3600  0.4024
51784SOL     OW62212   8.678   2.291   5.609  0.1388 -0.1577  0.6852
51784SOL    HW162213   8.601   2.248   5.644  0.6224 -0.2961  1.6073
51784SOL    HW262214   8.747   2.275   5.674  0.6120  1.0720  0.5245
51785SOL     OW62215   4.755   1.026   3.151 -0.1756 -0.1292 -0.5341
51785SOL    HW162216   4.664   1.010   3.176 -0.1846  1.5682  0.7256
51785SOL    HW262217   4.780   0.948   3.102 -1.8675 -1.2756  0.2966
51786SOL     OW62218   0.764   6.206   9.968 -0.8018 -0.0770 -0.8815
51786SOL    HW162219   0.716   6.135   9.926 -1.8828 -0.4399  0.8760
51786SOL    HW262220   0.710   6.284   9.952 -0.3874  0.0936 -1.5057
51787SOL     OW62221  11.670   1.462   6.782 -0.2976  0.7101 -0.3659
51787SOL    HW162222  11.650   1.404   6.856 -0.3845  1.9897  0.6511
51787SOL    HW262223  11.703   1.403   6.714 -2.2145 -0.7853 -0.0968
51788SOL     OW62224   3.719  10.582  10.779  0.9947  0.4504  0.8194
51788SOL    HW162225   3.796  10.528  10.795  1.5323  1.0752  0.3983
51788SOL    HW262226   3.746  10.670  10.806 -0.6097  0.1671  3.7704
51789SOL     OW62227   4.461   2.805   2.498  0.3567 -0.1603 -0.4528
51789SOL    HW162228   4.530   2.752   2.538  1.2192 -0.6814 -2.5359
51789SOL    HW262229   4.499   2.892   2.491  1.0957 -0.5906 -2.1852
51790SOL     OW62230   0.006  10.219   7.886  0.1636 -0.1101  0.1918
51790SOL    HW162231  -0.030  10.194   7.971  0.7592 -0.8879  0.2274
51790SOL    HW262232   0.097  10.191   7.890  0.2900  0.1855 -0.5674
51791SOL     OW62233  11.053   9.473   1.531  0.1297  0.3262  0.3378
51791SOL    HW162234  10.984   9.530   1.565  0.3443  0.5379  0.4253
51791SOL    HW262235  11.072   9.413   1.602 -0.8791 -0.5826 -0.1475
51792SOL     OW62236   8.216  10.794   1.955  0.8799  0.6691  0.0892
51792SOL    HW162237   8.308  10.814   1.975  0.9412  0.5874 -0.1071
51792SOL    HW262238   8.167  10.828   2.030  0.9097  2.1572 -0.5199
51793SOL     OW62239   5.255  11.350   1.296 -0.0492 -0.0199  0.3195
51793SOL    HW162240   5.221  11.435   1.322 -0.9160  0.6333 -2.5797
51793SOL    HW262241   5.178  11.300   1.269  0.7852  0.4165 -3.4807
51794SOL     OW62242   5.222  11.205  11.372  0.0970 -0.4410  0.5302
51794SOL    HW162243   5.274  11.150  11.430  0.1074 -0.8027  0.1827
51794SOL    HW262244   5.208  11.151  11.294  1.1716  0.4849 -0.3385
51795SOL     OW62245   2.695   8.803   6.755 -0.3893 -0.9900 -0.1445
51795SOL    HW162246   2.654   8.724   6.789  0.6478 -1.3982  0.1834
51795SOL    HW262247   2.753   8.772   6.686  0.9818 -0.6675  0.8341
51796SOL     OW62248   6.365   9.362  10.733  0.3790 -0.0046 -0.2376
51796SOL    HW162249   6.339   9.390  10.646  1.8617  0.3103 -0.6062
51796SOL    HW262250   6.423   9.287  10.718  0.3373 -0.1911  0.4956
51797SOL     OW62251   6.239  12.032   2.033  0.2552  0.3454 -0.0213
51797SOL    HW162252   6.222  12.125   2.047  1.6074  0.5747  0.2960
51797SOL    HW262253   6.329  12.029   1.999  0.2258 -0.8431 -0.0476
51798SOL     OW62254   5.463  11.435   6.973 -0.4493 -0.5806  0.1075
51798SOL    HW162255   5.419  11.389   7.045 -0.9987  0.1436  0.2532
51798SOL    HW262256   5.423  11.399   6.894 -1.0187 -0.2337  0.2277
51799SOL     OW62257   9.340   1.265   5.627  0.4530  0.4041 -0.2406
51799SOL    HW162258   9.247   1.272   5.602  0.4558  0.9035 -0.1203
51799SOL    HW262259   9.385   1.320   5.564  0.7724 -0.5232 -0.8414
51800SOL     OW62260   4.734  10.800   4.060  0.2711  0.1269  0.1540
51800SOL    HW162261   4.798  10.747   4.012 -1.4287 -2.2754  0.3409
51800SOL    HW262262   4.671  10.827   3.993 -0.7025 -1.0224  0.5866
51801SOL     OW62263   6.200   6.098   4.292  0.4134  0.1322  0.2544
51801SOL    HW162264   6.273   6.062   4.342  1.0180  0.1822 -0.5810
51801SOL    HW262265   6.204   6.192   4.308 -0.2972 -0.0014  1.2888
51802SOL     OW62266   9.868  10.718   6.053 -0.0978  0.3704  0.4379
51802SOL    HW162267   9.812  10.656   6.007 -0.1997 -0.1111  1.1775
51802SOL    HW262268   9.850  10.701   6.146  0.8017  0.6424  0.6692
51803SOL     OW62269   8.010  10.548   1.111  0.0543  0.0487 -0.4676
51803SOL    HW162270   8.083  10.601   1.142 -0.1658 -0.3449  0.7918
51803SOL    HW262271   7.966  10.602   1.046 -0.4957  1.6763  1.1828
51804SOL     OW62272   4.474   8.231   7.125 -0.1840 -0.1406 -0.6822
51804SOL    HW162273   4.565   8.257   7.137 -0.7834  0.7913  3.4199
51804SOL    HW262274   4.440   8.292   7.060  1.9774 -0.3364 -2.0973
51805SOL     OW62275  11.870   0.492   4.214 -0.0442  0.0864 -0.0534
51805SOL    HW162276  11.889   0.537   4.133 -2.0629  0.1731 -0.5319
51805SOL    HW262277  11.955   0.462   4.246  0.9807  1.5996 -1.2557
51806SOL     OW62278   4.959   7.007   9.145 -0.6168  0.7630 -0.0297
51806SOL    HW162279   4.963   6.972   9.056 -0.3196 -0.6236  0.5007
51806SOL    HW262280   4.986   7.099   9.136  2.3419 -0.0813 -1.0005
51807SOL     OW62281  12.299   0.981   3.652 -0.1852 -0.6407 -0.2108
51807SOL    HW162282  12.205   0.992   3.637 -0.6995 -1.2746  2.1970
51807SOL    HW262283  12.311   1.001   3.744  1.8688 -1.7133 -0.1975
51808SOL     OW62284   5.347   0.560   7.571  0.3564  0.6455  0.9529
51808SOL    HW162285   5.439   0.534   7.563  0.0040 -0.2329 -0.7178
51808SOL    HW262286   5.298   0.480   7.553 -0.7467  1.2641  1.1119
51809SOL     OW62287   9.085   7.454   2.624  0.2488  0.3813 -0.0828
51809SOL    HW162288   9.055   7.448   2.533 -0.3599 -1.3455  0.1976
51809SOL    HW262289   9.006   7.474   2.674 -0.1651 -2.2279  0.4326
51810SOL     OW62290   2.377   5.921   6.634 -0.1158  0.3384 -0.2036
51810SOL    HW162291   2.342   5.837   6.604  0.4993  0.4938 -1.3889
51810SOL    HW262292   2.372   5.978   6.558 -1.5230  1.7269  0.8653
51811SOL     OW62293   5.102   1.609   0.223 -0.0545 -0.1901  0.3404
51811SOL    HW162294   5.008   1.622   0.237  0.3318  4.2520  0.2055
51811SOL    HW262295   5.109   1.589   0.129 -0.8058 -0.3931  0.3174
51812SOL     OW62296   6.468   9.602   0.045 -0.2699 -0.2312 -0.0930
51812SOL    HW162297   6.548   9.656   0.045  1.1069 -2.1082  1.6236
51812SOL    HW262298   6.486   9.532  -0.018 -0.6374 -0.5345  0.1313
51813SOL     OW62299   5.705   9.870   8.854 -0.0416 -0.3152 -0.4249
51813SOL    HW162300   5.692   9.777   8.835 -0.1260 -0.3365 -0.2653
51813SOL    HW262301   5.702   9.875   8.950  1.0147 -0.3060 -0.3819
51814SOL     OW62302   4.594  10.310   1.777  0.7499  0.6797 -0.0062
51814SOL    HW162303   4.611  10.386   1.832 -0.0355  0.0252  1.1975
51814SOL    HW262304   4.575  10.239   1.839 -2.8657  0.5192 -1.0132
51815SOL     OW62305   8.563   2.510   5.923  0.5139 -0.1698  0.3014
51815SOL    HW162306   8.504   2.562   5.868 -0.0490 -1.2299 -0.1450
51815SOL    HW262307   8.514   2.496   6.004  0.2223 -0.8636  0.0165
51816SOL     OW62308   3.714   9.626   8.321 -0.7645  0.2419  0.1595
51816SOL    HW162309   3.783   9.584   8.373 -1.0873  1.6732  1.8485
51816SOL    HW262310   3.731   9.599   8.231  0.2275 -1.8172  0.9079
51817SOL     OW62311   5.189   3.841   1.052 -0.6017  0.5253  0.2055
51817SOL    HW162312   5.133   3.856   1.129 -1.2984  0.6334 -0.3116
51817SOL    HW262313   5.188   3.746   1.039 -2.2724  0.6456 -0.9429
51818SOL     OW62314  11.267   3.686  10.025  0.1241  0.4967  0.1161
51818SOL    HW162315  11.234   3.657   9.940 -1.3157 -1.9461  1.3873
51818SOL    HW262316  11.240   3.777  10.032 -2.0284 -0.0033 -1.0026
51819SOL     OW62317   2.391   7.583  11.388 -0.4675 -0.0160  0.1961
51819SOL    HW162318   2.352   7.496  11.403 -0.8871  0.1525  0.0940
51819SOL    HW262319   2.482   7.565  11.365  0.1862 -0.3165  2.7144
51820SOL     OW62320  11.678   0.748   6.798 -0.3593  0.0669  0.5456
51820SOL    HW162321  11.687   0.654   6.811 -1.0803 -0.0711  0.1112
51820SOL    HW262322  11.672   0.758   6.703  0.5102  0.6316  0.5377
51821SOL     OW62323   3.306  10.244   0.000 -0.5761  0.0495 -0.1839
51821SOL    HW162324   3.319  10.215  -0.090  0.4002  2.1771 -0.7905
51821SOL    HW262325   3.381  10.210   0.048 -0.7442 -0.5125 -0.3172
51822SOL     OW62326  10.810   8.420   1.495  0.0209  0.0024 -0.4376
51822SOL    HW162327  10.889   8.389   1.451  0.2984  1.5509 -1.1040
51822SOL    HW262328  10.738   8.381   1.446  0.3462 -0.5696 -0.4758
51823SOL     OW62329   8.011   0.751   1.163  0.0779 -0.4110  0.2214
51823SOL    HW162330   8.006   0.846   1.165 -0.4508 -0.4158 -0.6409
51823SOL    HW262331   8.060   0.731   1.083 -1.1921 -0.8931 -0.4626
51824SOL     OW62332   6.468   7.289  11.494 -0.0970 -0.6033  0.1342
51824SOL    HW162333   6.520   7.325  11.422  1.2975 -0.5619  1.0985
51824SOL    HW262334   6.434   7.206  11.461 -0.3496 -0.1042 -0.9064
51825SOL     OW62335   5.578   4.386   7.791  0.1964 -0.6675  0.0956
51825SOL    HW162336   5.553   4.478   7.786 -1.6929 -1.1946 -1.1614
51825SOL    HW262337   5.557   4.360   7.881  1.6801  0.3255  0.7731
51826SOL     OW62338   6.066  12.036   7.583 -0.0569 -0.6357  0.2711
51826SOL    HW162339   6.068  12.118   7.533 -0.2330 -0.8566 -0.1037
51826SOL    HW262340   6.043  11.969   7.518 -0.6467 -0.8739  0.7134
51827SOL     OW62341   3.137   6.715   5.380  0.4692  0.8016 -0.7053
51827SOL    HW162342   3.160   6.626   5.406 -0.0497  1.0766  0.7768
51827SOL    HW262343   3.110   6.707   5.289 -0.1754 -0.6728 -0.4168
51828SOL     OW62344   7.531  10.449  10.306  0.6910 -0.6765 -0.7253
51828SOL    HW162345   7.540  10.496  10.389  0.5601 -1.3010 -0.3507
51828SOL    HW262346   7.485  10.511  10.249  0.1293 -0.5017 -0.1053
51829SOL     OW62347   1.236   9.210   1.593  0.0424 -0.2721  0.0535
51829SOL    HW162348   1.160   9.228   1.538 -0.7500 -0.6058  0.9984
51829SOL    HW262349   1.274   9.296   1.609 -1.1554  0.1268  0.9598
51830SOL     OW62350  10.503   4.137   1.731 -0.2859  0.2405 -0.4528
51830SOL    HW162351  10.549   4.175   1.806 -0.1523  0.7186 -0.7796
51830SOL    HW262352  10.548   4.171   1.654 -0.5296 -0.1155 -0.7597
51831SOL     OW62353   0.362  10.155   4.185 -0.5826 -0.3255  0.4316
51831SOL    HW162354   0.423  10.140   4.257 -1.9432  1.3789  2.0334
51831SOL    HW262355   0.400  10.227   4.135  0.2213 -1.3232 -0.4394
51832SOL     OW62356   6.650   3.205   9.838  0.4059  0.1012 -0.0478
51832SOL    HW162357   6.628   3.253   9.918  4.3866  1.8409  0.2357
51832SOL    HW262358   6.574   3.220   9.780 -0.8317  2.2947  1.9432
51833SOL     OW62359   5.315  11.825  10.439 -0.1866  0.4599 -0.1264
51833SOL    HW162360   5.364  11.877  10.375 -2.3222  0.8227 -1.5526
51833SOL    HW262361   5.241  11.880  10.463 -1.0037 -0.8430  0.4395
51834SOL     OW62362  11.851  11.611   9.625  0.4957 -0.3199  0.2858
51834SOL    HW162363  11.895  11.674   9.682  0.7189  0.0651 -0.3089
51834SOL    HW262364  11.884  11.526   9.653  0.0024 -0.1978  1.2618
51835SOL     OW62365   2.650  11.440   2.849 -0.4771  0.2987  0.1969
51835SOL    HW162366   2.561  11.407   2.864 -0.4487 -0.4404 -1.1146
51835SOL    HW262367   2.640  11.535   2.842 -0.9721  0.3393  1.2586
51836SOL     OW62368   9.595   5.269  11.813 -0.4774  0.1013  0.0009
51836SOL    HW162369   9.680   5.272  11.857 -0.6003  2.8878  0.2478
51836SOL    HW262370   9.612   5.220  11.732  0.5574 -2.1093  1.4570
51837SOL     OW62371   5.206   0.588   4.179  0.6520  0.4164  0.4461
51837SOL    HW162372   5.292   0.547   4.172 -0.9040 -3.1158 -0.5332
51837SOL    HW262373   5.213   0.646   4.254  3.8655  0.2686  0.3821
51838SOL     OW62374   9.678   9.280  11.558 -0.0542 -0.1661  0.1017
51838SOL    HW162375   9.705   9.364  11.522  0.9992  0.2910  1.8387
51838SOL    HW262376   9.741   9.262  11.628 -0.8295 -1.9321  0.3994
51839SOL     OW62377  11.649   8.575   3.933  0.2593  0.0311 -0.1174
51839SOL    HW162378  11.606   8.606   4.013  1.2714 -0.8827  0.8205
51839SOL    HW262379  11.709   8.646   3.909 -0.6988  0.6945 -0.6062
51840SOL     OW62380   5.775   6.197   3.900  0.0863  0.0131 -0.3498
51840SOL    HW162381   5.679   6.202   3.906  0.1437  0.1979  0.6514
51840SOL    HW262382   5.803   6.181   3.990  1.0084  0.0551 -0.6243
51841SOL     OW62383   0.008   5.527   3.917  0.1426 -0.2965  1.0581
51841SOL    HW162384   0.100   5.531   3.943  1.0297 -2.1755 -1.3222
51841SOL    HW262385   0.010   5.478   3.834 -2.8890  0.6795  0.3064
51842SOL     OW62386   1.894   6.077   5.201 -0.5717  0.1533 -0.5202
51842SOL    HW162387   1.807   6.064   5.162 -0.5976  2.5614 -1.4302
51842SOL    HW262388   1.952   6.089   5.126  0.2204  0.3118  0.1078
51843SOL     OW62389   6.457   3.071   6.922  0.5512  0.4009  0.3069
51843SOL    HW162390   6.368   3.078   6.889  0.6376 -0.8408 -0.2302
51843SOL    HW262391   6.447   3.060   7.017 -0.0804 -2.7952 -0.0261
51844SOL     OW62392   5.472   0.482   7.280  0.7286  0.8821 -0.3107
51844SOL    HW162393   5.522   0.517   7.354 -2.8739  0.2424  2.7204
51844SOL    HW262394   5.482   0.387   7.288 -0.1033  0.7910 -0.2460
51845SOL     OW62395   7.010  12.085  10.895  0.6509 -0.6108 -0.2755
51845SOL    HW162396   7.027  12.113  10.985  1.3952  0.0196 -0.5995
51845SOL    HW262397   6.975  12.163  10.852 -0.3476 -1.0942 -0.3755
51846SOL     OW62398   1.490   3.417   4.414 -0.0963  0.4421 -0.2886
51846SOL    HW162399   1.584   3.402   4.424 -0.2336 -0.6389 -0.4754
51846SOL    HW262400   1.452   3.391   4.498 -0.3539 -0.4056 -0.6551
51847SOL     OW62401   1.721   4.208  11.655 -0.0962 -0.1240 -0.3209
51847SOL    HW162402   1.737   4.196  11.748 -1.6122 -0.5022 -0.0868
51847SOL    HW262403   1.627   4.227  11.649 -0.0806 -0.4000 -1.7933
51848SOL     OW62404   6.662   6.476   9.626 -0.2088  0.2333 -0.3158
51848SOL    HW162405   6.597   6.408   9.609 -2.1942  2.3454 -1.5708
51848SOL    HW262406   6.621   6.533   9.691  2.3959 -0.9422  2.6139
51849SOL     OW62407   0.484   8.487   3.074  0.2760 -0.7544  0.4310
51849SOL    HW162408   0.457   8.555   3.136  1.0976  0.2933 -0.3138
51849SOL    HW262409   0.436   8.507   2.994  0.9523 -0.6879  0.0307
51850SOL     OW62410   2.955   0.182  12.078 -1.0115  0.0809  0.3151
51850SOL    HW162411   3.015   0.200  12.150 -0.2439 -0.7366 -0.0962
51850SOL    HW262412   2.996   0.110  12.030 -1.8538  0.1448 -0.5346
51851SOL     OW62413  11.834   2.513  11.635  0.1189  0.2471  0.3995
51851SOL    HW162414  11.772   2.504  11.563  0.0997  1.4340  0.2600
51851SOL    HW262415  11.915   2.542  11.594  0.2860  0.3280  0.7790
51852SOL     OW62416   7.391  12.419   1.593  0.3608  0.2889 -0.0816
51852SOL    HW162417   7.378  12.329   1.563 -0.9266  0.5550 -0.3579
51852SOL    HW262418   7.423  12.466   1.516  0.0108  0.3011 -0.2188
51853SOL     OW62419   0.582   9.765   8.431 -0.1845 -0.0987  0.1202
51853SOL    HW162420   0.627   9.724   8.505  0.2451  0.5383  0.2244
51853SOL    HW262421   0.652   9.808   8.382 -0.6925  1.0522  0.3775
51854SOL     OW62422   0.810   6.522   0.811 -0.0129 -0.4561  0.1677
51854SOL    HW162423   0.814   6.486   0.723  1.4633 -0.8373  0.3591
51854SOL    HW262424   0.747   6.594   0.805  0.9258  0.2777 -1.4708
51855SOL     OW62425   8.433   6.422   8.026  0.1534 -0.0896  0.2259
51855SOL    HW162426   8.484   6.429   7.946  1.5688  1.1786  1.1932
51855SOL    HW262427   8.358   6.480   8.011  1.8466  2.3868  0.8143
51856SOL     OW62428   2.158  11.735   1.016  0.1928 -0.3513  0.1733
51856SOL    HW162429   2.143  11.664   1.079  0.3020 -0.4102  0.1334
51856SOL    HW262430   2.178  11.690   0.934  0.1883 -0.2734  0.1298
51857SOL     OW62431   8.991  11.165   4.742  0.7060  0.6543  0.0538
51857SOL    HW162432   8.963  11.257   4.739  1.2270  0.7942 -1.7788
51857SOL    HW262433   8.919  11.117   4.701  0.8025  0.3582  0.2368
51858SOL     OW62434   8.598   2.830   6.760  0.8150  0.1871 -0.0528
51858SOL    HW162435   8.668   2.813   6.823  0.4682 -1.3756 -0.0390
51858SOL    HW262436   8.620   2.914   6.721  1.5235  0.7554  1.5009
51859SOL     OW62437   0.299   8.169   0.035  0.0860 -0.6570 -0.2689
51859SOL    HW162438   0.374   8.214   0.074  0.2566 -0.9444 -0.2611
51859SOL    HW262439   0.223   8.210   0.075  0.2361 -0.3223 -0.3211
51860SOL     OW62440   6.296   2.414   1.499  0.0124 -0.3485 -0.0628
51860SOL    HW162441   6.300   2.370   1.584 -1.6767  0.5115  0.5132
51860SOL    HW262442   6.255   2.498   1.518 -0.1147 -0.0201 -1.6842
51861SOL     OW62443   1.597   5.581   9.308  0.4929 -0.6152  0.0388
51861SOL    HW162444   1.556   5.504   9.349 -0.1451 -0.3850 -0.1534
51861SOL    HW262445   1.532   5.651   9.319  1.0412 -0.1222  0.1447
51862SOL     OW62446   9.336   0.484   9.408  0.5081 -0.2228  0.2302
51862SOL    HW162447   9.413   0.461   9.459  0.0039 -1.7406  0.3480
51862SOL    HW262448   9.262   0.454   9.461 -0.0910 -0.3252 -0.6455
51863SOL     OW62449   5.014   3.981   9.388  0.3505  0.4331 -0.0531
51863SOL    HW162450   5.032   4.023   9.472 -2.5721  0.6051  0.5942
51863SOL    HW262451   5.021   3.887   9.405 -0.8127  0.4478  0.5657
51864SOL     OW62452   5.309   7.684   0.209  0.5822  0.4470  0.7873
51864SOL    HW162453   5.300   7.589   0.211 -2.3636  0.6453  1.7102
51864SOL    HW262454   5.392   7.701   0.254  1.5120 -1.6629  0.0339
51865SOL     OW62455   7.524   0.318   5.415  0.0719  0.4509 -0.7784
51865SOL    HW162456   7.484   0.324   5.502 -1.2465 -0.9026 -1.2632
51865SOL    HW262457   7.618   0.326   5.433 -0.2474  1.8035  0.5796
51866SOL     OW62458   8.444  11.553   0.236  0.1378 -0.7838  0.3645
51866SOL    HW162459   8.376  11.488   0.223  0.2831 -0.9692  0.5338
51866SOL    HW262460   8.486  11.529   0.318  0.6844 -0.9228  0.0521
51867SOL     OW62461  10.711   3.501   0.343 -0.2577  0.0004 -0.2689
51867SOL    HW162462  10.697   3.546   0.259 -1.6928 -1.5066 -0.8887
51867SOL    HW262463  10.678   3.563   0.408 -0.8419  0.4611 -0.9747
51868SOL     OW62464   0.163   9.413   4.578 -0.4015 -0.3618 -0.1429
51868SOL    HW162465   0.180   9.419   4.672  0.2250  0.8371 -0.3126
51868SOL    HW262466   0.235   9.463   4.537 -1.4032  0.2784 -1.1781
51869SOL     OW62467   1.726   1.814  11.482  0.6912 -0.4995  0.4780
51869SOL    HW162468   1.705   1.721  11.494  0.4608 -0.3146  1.7512
51869SOL    HW262469   1.764   1.840  11.566 -0.5694  0.8882  0.6594
51870SOL     OW62470   0.847  10.878   5.852 -0.0886  0.1208  0.2167
51870SOL    HW162471   0.844  10.898   5.759 -0.6915  0.8852  0.3890
51870SOL    HW262472   0.940  10.879   5.874  0.0881 -0.6130 -0.4838
51871SOL     OW62473   2.178   5.833   1.303  0.8004  0.2897 -0.4434
51871SOL    HW162474   2.091   5.793   1.306  1.0404 -0.2053  0.3953
51871SOL    HW262475   2.185   5.870   1.215 -0.3756  0.6040 -0.4278
51872SOL     OW62476   0.813   1.720   1.736  0.4425 -0.5359  0.3226
51872SOL    HW162477   0.908   1.725   1.738  0.4216  0.8448 -1.0145
51872SOL    HW262478   0.785   1.795   1.685 -1.3912 -0.8291  0.8038
51873SOL     OW62479   6.623  10.519   2.286 -0.3459 -0.6727  0.2604
51873SOL    HW162480   6.669  10.600   2.262 -0.9925  0.1259  1.6344
51873SOL    HW262481   6.638  10.461   2.211  0.1662  0.6877 -0.7478
51874SOL     OW62482   1.430   1.004   3.414  0.1587  1.0072 -0.7237
51874SOL    HW162483   1.426   0.943   3.341 -0.7085  1.4934 -1.1046
51874SOL    HW262484   1.459   0.952   3.489 -0.0173  0.2680 -1.1716
51875SOL     OW62485   1.825   2.781   8.576 -0.1624 -0.1530  0.3644
51875SOL    HW162486   1.898   2.722   8.554 -0.1532 -0.6757  1.7158
51875SOL    HW262487   1.867   2.866   8.589  0.4085 -0.6656  2.1780
51876SOL     OW62488   2.083   6.943   1.611  0.6484  0.0402  0.2030
51876SOL    HW162489   2.028   6.970   1.536 -2.2375 -0.2368  2.0596
51876SOL    HW262490   2.059   6.852   1.626  0.9840  0.1724  1.6016
51877SOL     OW62491   7.077   7.797  11.901  0.4079  0.2059 -0.1220
51877SOL    HW162492   7.061   7.870  11.841  0.3843 -0.8923 -1.5061
51877SOL    HW262493   6.996   7.788  11.951  0.4118  1.1155  0.0590
51878SOL     OW62494   9.085   8.999  10.004  0.1235 -0.2104  1.0005
51878SOL    HW162495   9.084   8.914   9.960 -0.1517 -0.2575  1.0947
51878SOL    HW262496   9.003   9.002  10.053 -1.4841  1.4494 -1.5352
51879SOL     OW62497   5.443   7.567   8.584 -0.3630  0.2655 -0.5336
51879SOL    HW162498   5.490   7.484   8.572 -1.3903 -0.3397 -0.5158
51879SOL    HW262499   5.363   7.542   8.630  0.3990  1.6047  1.7095
51880SOL     OW62500   0.203   7.765   8.944 -0.9457  0.2958  0.1896
51880SOL    HW162501   0.179   7.858   8.935 -1.2544  0.1736 -0.2932
51880SOL    HW262502   0.204   7.732   8.854 -2.0041 -0.4665  0.4456
51881SOL     OW62503  11.878  11.079   7.439  0.1303 -0.0629  0.5379
51881SOL    HW162504  11.967  11.073   7.472  0.7026 -1.9049 -1.1254
51881SOL    HW262505  11.840  10.993   7.456 -0.9667  0.3453  0.2449
51882SOL     OW62506   2.395   0.152   9.303  0.6833 -0.2181  0.5140
51882SOL    HW162507   2.327   0.088   9.279 -0.6039  0.4335  2.2517
51882SOL    HW262508   2.456   0.103   9.358  1.5016 -0.7239 -0.7930
51883SOL     OW62509   2.784   2.688   2.015  0.6384 -0.6177 -0.1231
51883SOL    HW162510   2.727   2.765   2.008  1.6882  0.2142  0.1806
51883SOL    HW262511   2.744   2.623   1.957 -2.4280 -1.2660  2.4700
51884SOL     OW62512   3.185  12.208   6.773 -0.8866 -0.1013  0.1613
51884SOL    HW162513   3.266  12.167   6.743 -2.0083 -3.0607  0.8440
51884SOL    HW262514   3.132  12.219   6.694 -0.6278 -0.0822 -0.0087
51885SOL     OW62515   9.191  10.730   6.884  0.1979 -0.0641  0.0741
51885SOL    HW162516   9.196  10.700   6.793 -0.5471  0.4606 -0.1502
51885SOL    HW262517   9.282  10.735   6.913  0.5175  0.8669 -1.0150
51886SOL     OW62518   9.910  11.037  10.413  0.1512  0.2494 -0.1959
51886SOL    HW162519   9.990  11.000  10.375  0.6510  0.3751  0.7111
51886SOL    HW262520   9.898  10.991  10.496 -1.1196 -0.2638 -0.6394
51887SOL     OW62521   4.925  12.438  10.389 -0.4648 -0.1664  0.0792
51887SOL    HW162522   4.861  12.465  10.455 -0.5874 -1.5742  0.5524
51887SOL    HW262523   5.008  12.477  10.419 -0.5545 -0.6459  0.9702
51888SOL     OW62524   1.348   8.969   0.840  0.1571 -0.0093 -0.4876
51888SOL    HW162525   1.282   8.922   0.789 -1.8765  1.4274  0.6838
51888SOL    HW262526   1.369   9.046   0.787 -1.3799  1.0741  0.3823
51889SOL     OW62527   1.815  10.692   0.278 -0.0386  0.1579  0.7382
51889SOL    HW162528   1.886  10.711   0.339 -0.1384 -0.6345  1.1046
51889SOL    HW262529   1.736  10.689   0.333 -0.6114  2.4545  0.1568
51890SOL     OW62530   2.819   6.994   4.137 -0.0922  0.3292 -0.1123
51890SOL    HW162531   2.738   7.046   4.130 -0.0694  0.5540  1.0822
51890SOL    HW262532   2.828   6.977   4.231  0.5014 -0.9056 -0.3780
51891SOL     OW62533   5.466   0.144   0.811 -0.6773  0.1110  0.0963
51891SOL    HW162534   5.519   0.224   0.799  0.0885  0.1324  2.8323
51891SOL    HW262535   5.509   0.079   0.756  0.5138  0.8508  0.1009
51892SOL     OW62536   9.396   5.875  11.471  0.4192  0.0799  0.5173
51892SOL    HW162537   9.388   5.782  11.448 -0.4314  0.5050 -1.0337
51892SOL    HW262538   9.490   5.889  11.483  0.5550 -0.9727  0.7780
51893SOL     OW62539   5.304   5.892   7.238  0.1256 -0.3787 -0.6453
51893SOL    HW162540   5.224   5.933   7.207  0.1535  0.2111  0.0385
51893SOL    HW262541   5.275   5.826   7.301  0.0086 -2.2148 -2.5214
51894SOL     OW62542  11.118   6.062   8.991 -0.1224 -0.1744  0.1186
51894SOL    HW162543  11.070   5.989   8.953 -0.9034 -0.0990  0.9085
51894SOL    HW262544  11.210   6.045   8.970 -0.3265 -1.2301  0.0473
51895SOL     OW62545   8.986  10.252  12.227  0.1833  0.1647 -0.4985
51895SOL    HW162546   8.926  10.307  12.278 -0.7755  1.6694 -3.0220
51895SOL    HW262547   9.031  10.198  12.292 -0.5859  2.2356  1.9255
51896SOL     OW62548   8.207   5.653  11.661 -0.0222  0.2244  0.3853
51896SOL    HW162549   8.185   5.726  11.718 -0.6722 -0.0882  0.5426
51896SOL    HW262550   8.124   5.608  11.646  0.2184  0.0540 -0.4590
51897SOL     OW62551   8.316   8.916   7.277 -0.0678  0.0647  0.2916
51897SOL    HW162552   8.251   8.882   7.216 -0.0715  0.1104  0.2695
51897SOL    HW262553   8.352   8.838   7.320 -0.0894  0.0350  0.2554
51898SOL     OW62554  12.308   5.424   7.621  0.0605 -0.2137 -0.6253
51898SOL    HW162555  12.336   5.421   7.530  1.3018  1.2060 -0.3139
51898SOL    HW262556  12.216   5.450   7.617  0.4715  1.1898 -1.4314
51899SOL     OW62557   8.670   8.949   2.706 -0.1965  0.4437  0.0104
51899SOL    HW162558   8.760   8.938   2.739  0.2013  0.8723 -0.9089
51899SOL    HW262559   8.648   8.864   2.667  0.0612  0.5559 -0.3754
51900SOL     OW62560   8.497   1.832  10.369  0.0939 -0.1411  0.1898
51900SOL    HW162561   8.526   1.922  10.382 -0.4268  0.0637 -0.0488
51900SOL    HW262562   8.556   1.779  10.423  1.1282  0.2384 -0.5451
51901SOL     OW62563  12.345   8.641   9.087  0.2461  0.0975 -0.1319
51901SOL    HW162564  12.426   8.590   9.083  0.9740  1.0478  1.4690
51901SOL    HW262565  12.344   8.691   9.005 -0.1334 -1.8802 -1.4120
51902SOL     OW62566  11.324   2.759   7.122 -0.3115 -0.0431  0.2887
51902SOL    HW162567  11.320   2.763   7.026 -1.6993 -0.9840  0.2754
51902SOL    HW262568  11.254   2.817   7.151 -1.6971 -1.7802  0.6314
51903SOL     OW62569   7.200   1.985  11.074  0.0547 -0.1905 -0.6482
51903SOL    HW162570   7.196   1.949  10.985  0.2547 -0.6864 -0.4592
51903SOL    HW262571   7.108   1.998  11.098 -0.0106 -0.3265 -0.8183
51904SOL     OW62572   7.286   4.375  10.387  0.5070  0.3043  0.3961
51904SOL    HW162573   7.359   4.384  10.325 -1.3788  2.9144 -1.7244
51904SOL    HW262574   7.321   4.408  10.470  2.1905 -0.1025 -0.1045
51905SOL     OW62575   4.734   9.718   3.710 -0.4176 -0.5140  0.5166
51905SOL    HW162576   4.649   9.675   3.726 -0.6283 -0.2560  0.0923
51905SOL    HW262577   4.716   9.811   3.725 -0.0228 -0.5353  1.1796
51906SOL     OW62578   8.571  11.574  11.622  0.2944  0.2032 -0.1753
51906SOL    HW162579   8.587  11.619  11.704 -0.5384  0.9034 -0.3746
51906SOL    HW262580   8.657  11.546  11.591  0.5086 -1.1256  1.5084
51907SOL     OW62581   5.539   2.489   4.532 -0.3793  0.0730  0.1041
51907SOL    HW162582   5.518   2.434   4.457  1.6328 -0.2961 -0.2505
51907SOL    HW262583   5.508   2.576   4.508 -1.1214 -0.3510 -0.5017
51908SOL     OW62584  11.189   5.305   9.788 -0.5350  0.1931  0.2875
51908SOL    HW162585  11.249   5.343   9.852  0.3580  1.2086 -1.0774
51908SOL    HW262586  11.105   5.346   9.806  0.2089  2.2209 -0.5607
51909SOL     OW62587   9.620  11.560   9.765  0.0820 -0.4548  0.0668
51909SOL    HW162588   9.528  11.564   9.794  1.0521  0.9944  3.5088
51909SOL    HW262589   9.670  11.553   9.846  3.1228  1.0735 -1.5087
51910SOL     OW62590  12.218  11.249   9.205 -0.7389  0.5966  0.2721
51910SOL    HW162591  12.282  11.316   9.231 -0.0726 -0.0502  0.3140
51910SOL    HW262592  12.268  11.188   9.150 -1.6659  0.8776 -0.9264
51911SOL     OW62593   8.132  10.709   3.599  0.1858 -0.2843 -0.2978
51911SOL    HW162594   8.062  10.773   3.594 -0.6161 -0.8823  1.9531
51911SOL    HW262595   8.195  10.736   3.531 -0.8880  1.8770 -0.5109
51912SOL     OW62596   4.694   2.764   0.003  0.2313 -0.4564 -0.0610
51912SOL    HW162597   4.694   2.678  -0.038 -0.8359 -0.6871  0.4009
51912SOL    HW262598   4.658   2.750   0.091 -0.9012  0.5907 -0.3165
51913SOL     OW62599   0.144   6.311   0.809 -0.1765 -0.4703  0.5986
51913SOL    HW162600   0.088   6.365   0.754  0.0448  0.6729  1.4526
51913SOL    HW262601   0.213   6.281   0.750  0.5152  1.3951  0.3597
51914SOL     OW62602   5.543   5.501   5.643  0.0726  0.4579  0.0171
51914SOL    HW162603   5.499   5.580   5.614  0.4799  0.1347 -1.5690
51914SOL    HW262604   5.635   5.525   5.649  0.1810  0.1395 -0.3500
51915SOL     OW62605   1.882   8.049   8.407  0.5388 -0.4099 -0.0674
51915SOL    HW162606   1.937   7.982   8.365 -0.1712 -0.6218 -0.6805
51915SOL    HW262607   1.890   8.126   8.349 -0.5313 -0.7384 -0.6841
51916SOL     OW62608  11.989   1.423   2.547  0.2217  0.4536  0.7241
51916SOL    HW162609  11.913   1.391   2.498  1.4004 -1.1931 -0.1013
51916SOL    HW262610  11.956   1.433   2.637 -1.0041 -0.1032  0.3611
51917SOL     OW62611  11.877   0.567   2.353 -0.0090 -0.1098 -0.5735
51917SOL    HW162612  11.903   0.598   2.439 -1.4843  2.3259 -0.9236
51917SOL    HW262613  11.785   0.540   2.364  0.6324 -2.6972 -0.7589
51918SOL     OW62614   1.195  11.601  11.183  0.2550  0.2405 -0.0795
51918SOL    HW162615   1.156  11.564  11.263  1.0506 -0.9668 -0.2164
51918SOL    HW262616   1.181  11.533  11.117  2.2709 -0.1145 -0.2037
51919SOL     OW62617  10.708  11.000  10.232  0.0342 -0.2484  0.5754
51919SOL    HW162618  10.721  11.054  10.309 -1.3902 -2.3745  2.4421
51919SOL    HW262619  10.619  11.020  10.203 -0.0228 -0.6187  0.4901
51920SOL     OW62620   8.803  11.141   5.623  0.0184  0.5856 -0.2426
51920SOL    HW162621   8.861  11.157   5.549  0.3830  1.7249  0.2769
51920SOL    HW262622   8.803  11.045   5.633  0.7209  0.4838 -1.0993
51921SOL     OW62623  10.877   1.385   6.975  0.4473 -0.1932 -0.0344
51921SOL    HW162624  10.907   1.455   6.917 -0.5843  1.5588  1.4202
51921SOL    HW262625  10.887   1.421   7.063  0.6878 -2.2458  0.8504
51922SOL     OW62626   1.588   7.572   3.285  0.3626 -0.6014 -0.0557
51922SOL    HW162627   1.572   7.592   3.192 -0.3029 -1.2837 -0.0958
51922SOL    HW262628   1.533   7.635   3.333  0.0781 -0.7847 -0.1397
51923SOL     OW62629   4.112   2.604   6.009  1.3257  0.0682 -0.1912
51923SOL    HW162630   4.168   2.678   5.989  2.5733 -0.9429 -0.5280
51923SOL    HW262631   4.163   2.550   6.069 -0.5603  0.7278  2.1878
51924SOL     OW62632   5.243   3.081   0.676  0.4397  0.5972 -0.0561
51924SOL    HW162633   5.257   3.037   0.592 -0.7982  1.0112 -0.5063
51924SOL    HW262634   5.257   3.013   0.741  1.3753  0.2544 -0.5888
51925SOL     OW62635  11.166   0.231   7.335 -0.5733 -0.0310 -0.4641
51925SOL    HW162636  11.232   0.165   7.357 -0.1549  0.2159 -0.9555
51925SOL    HW262637  11.083   0.186   7.345 -0.4154  0.0216  1.4653
51926SOL     OW62638   7.660   9.170   7.732 -0.0198  0.0819  0.0658
51926SOL    HW162639   7.600   9.159   7.658  0.1984 -1.1150  0.0596
51926SOL    HW262640   7.637   9.100   7.793 -1.2946  1.9923  1.9388
51927SOL     OW62641   6.192   2.414   8.325 -0.3183  0.4237 -0.2272
51927SOL    HW162642   6.133   2.339   8.320  1.0698 -0.6362 -2.3961
51927SOL    HW262643   6.144   2.485   8.283 -0.3833 -0.2230 -1.2965
51928SOL     OW62644   7.916   9.680   1.121  0.2072  0.2470  0.5678
51928SOL    HW162645   7.956   9.759   1.085 -0.9029  0.3344 -0.5294
51928SOL    HW262646   7.846   9.658   1.059 -1.1537 -0.1476  2.1820
51929SOL     OW62647  11.357   2.484   4.681 -0.5204  0.0189 -0.6620
51929SOL    HW162648  11.367   2.474   4.586 -1.5658 -0.6060 -0.7319
51929SOL    HW262649  11.305   2.564   4.692  0.9668  0.9939 -0.5165
51930SOL     OW62650   2.839   4.284  10.657 -0.2798 -0.8253 -0.1817
51930SOL    HW162651   2.829   4.195  10.624  1.1302 -0.4188 -1.8456
51930SOL    HW262652   2.910   4.278  10.720  1.8872 -0.4694 -2.4304
51931SOL     OW62653   4.720   9.425   2.420  0.2074  0.0324 -0.2325
51931SOL    HW162654   4.706   9.501   2.363 -0.0437  0.1419 -0.0254
51931SOL    HW262655   4.669   9.355   2.379 -1.7992  0.6581  1.0128
51932SOL     OW62656   4.722  11.321   7.475  0.2929 -0.6492  0.4238
51932SOL    HW162657   4.699  11.246   7.420  0.1228 -0.4705  0.2507
51932SOL    HW262658   4.786  11.286   7.537  1.5288 -0.5498 -0.7530
51933SOL     OW62659   0.839   2.220   2.948 -0.6777  0.2680  0.4017
51933SOL    HW162660   0.882   2.142   2.913 -0.1564  0.1918  1.1732
51933SOL    HW262661   0.824   2.276   2.873 -1.8561 -0.9499 -0.3160
51934SOL     OW62662   5.356   2.694   0.614 -0.0854 -0.0381 -0.5949
51934SOL    HW162663   5.440   2.702   0.570  0.0649  0.7670 -0.1722
51934SOL    HW262664   5.295   2.665   0.546  0.6994 -1.5016 -0.7131
51935SOL     OW62665   7.689   3.935  11.933  0.0327  0.4493  0.2927
51935SOL    HW162666   7.739   3.915  11.854 -1.2608 -0.8485 -0.2478
51935SOL    HW262667   7.754   3.967  11.996  1.2066  0.7424 -1.0242
51936SOL     OW62668  12.147   9.897   8.204 -0.5970  0.1508 -0.1930
51936SOL    HW162669  12.100   9.889   8.121  0.0898 -0.9867 -0.4822
51936SOL    HW262670  12.113   9.826   8.258 -0.2884  0.2569  0.1410
51937SOL     OW62671   7.158   3.380   3.384 -0.5315  0.3866  0.0692
51937SOL    HW162672   7.225   3.318   3.357 -0.6184  0.6138 -0.6799
51937SOL    HW262673   7.192   3.417   3.466 -0.2644 -0.3006  0.2800
51938SOL     OW62674   8.136  10.158   3.142  0.2267  0.4814 -0.1110
51938SOL    HW162675   8.083  10.100   3.088 -1.6827  1.6502  0.3666
51938SOL    HW262676   8.177  10.218   3.080 -3.3404  2.9537 -0.4254
51939SOL     OW62677  12.125   1.963  11.501  0.6240 -0.0275  0.0833
51939SOL    HW162678  12.165   1.942  11.417  1.2324 -1.1351  0.6264
51939SOL    HW262679  12.136   2.057  11.511  0.7064  0.0828 -0.9933
51940SOL     OW62680   6.298   8.861   6.046  0.2201  0.4690 -0.2310
51940SOL    HW162681   6.298   8.831   6.136 -0.6536  0.4277 -0.2275
51940SOL    HW262682   6.315   8.955   6.051  1.0149  0.3218 -0.0933
51941SOL     OW62683   3.098   8.760   1.130  0.5984 -0.0951  0.2917
51941SOL    HW162684   3.185   8.793   1.150  0.1066  1.0817  0.5699
51941SOL    HW262685   3.040   8.835   1.144 -0.1995 -0.1658 -2.2227
51942SOL     OW62686   4.139   7.062   4.569 -0.6481  0.0011  0.1353
51942SOL    HW162687   4.188   6.989   4.531  0.3130  0.2259  0.9264
51942SOL    HW262688   4.147   7.051   4.663 -2.7634 -0.3749  0.3378
51943SOL     OW62689  10.851  10.947  10.663 -0.8975  0.4509 -0.4633
51943SOL    HW162690  10.789  10.895  10.714  0.3398 -0.6818 -0.0493
51943SOL    HW262691  10.874  11.021  10.719 -0.1888 -0.3347  0.2984
51944SOL     OW62692  11.083   3.873   1.214  0.3087  0.1344 -0.4786
51944SOL    HW162693  11.027   3.798   1.193 -1.3727  1.3963 -0.6876
51944SOL    HW262694  11.140   3.841   1.285 -0.5998 -1.2292 -0.3250
51945SOL     OW62695  12.046   3.764  11.361 -0.1187 -1.0213 -0.0109
51945SOL    HW162696  12.021   3.679  11.325  0.0747 -1.3726  0.6540
51945SOL    HW262697  12.032   3.755  11.455 -2.0527  0.3786 -0.1068
51946SOL     OW62698   9.257   5.624   3.509  0.0210  0.2329  0.4229
51946SOL    HW162699   9.277   5.563   3.580 -0.4996  1.1594  1.3837
51946SOL    HW262700   9.243   5.708   3.552  0.6086  1.0226 -0.8657
51947SOL     OW62701  11.657  10.482   5.538 -0.1074 -0.0426  0.3241
51947SOL    HW162702  11.707  10.410   5.501  2.2524 -0.0316  3.1393
51947SOL    HW262703  11.722  10.537   5.582 -2.2598  1.7628  1.4839
51948SOL     OW62704   3.993   9.859   3.527 -0.0303 -0.2192  0.3616
51948SOL    HW162705   4.029   9.929   3.581 -0.4730  0.5093 -0.2766
51948SOL    HW262706   4.046   9.782   3.549  1.1921  0.5688  0.2242
51949SOL     OW62707  12.072   4.101   1.855 -0.3783  0.1994  0.2198
51949SOL    HW162708  11.998   4.155   1.827 -0.6193 -0.4780 -0.4942
51949SOL    HW262709  12.149   4.145   1.817 -0.6326 -0.2912 -0.9171
51950SOL     OW62710  10.651   8.314   0.535 -0.1233 -0.3986  0.0042
51950SOL    HW162711  10.693   8.253   0.596 -1.9222 -0.6687  1.0365
51950SOL    HW262712  10.560   8.320   0.565 -0.7284  0.5315 -1.8447
51951SOL     OW62713   7.803  10.575   8.760 -0.5405 -0.0242 -0.3685
51951SOL    HW162714   7.733  10.594   8.822 -0.4466 -1.3733  0.2057
51951SOL    HW262715   7.769  10.503   8.706  0.9959 -1.9702  1.1017
51952SOL     OW62716   4.883   1.118   9.920  0.1065  0.0752  0.4521
51952SOL    HW162717   4.955   1.118   9.983 -0.5288 -0.2498  1.1993
51952SOL    HW262718   4.819   1.178   9.958 -0.6286 -0.7434  0.5271
51953SOL     OW62719   1.856   6.087   7.457  0.0951 -0.1653 -0.1734
51953SOL    HW162720   1.830   6.030   7.385 -2.0765  0.3522  0.1344
51953SOL    HW262721   1.915   6.151   7.417 -0.3638 -0.4195 -1.3060
51954SOL     OW62722   5.318  11.618   1.113  0.0883 -0.4662  0.1729
51954SOL    HW162723   5.347  11.596   1.202 -1.0242 -0.5422  0.5358
51954SOL    HW262724   5.396  11.652   1.070  0.8451 -1.1959  0.9213
51955SOL     OW62725   4.308  11.910   8.518  0.4350  0.3851  0.2001
51955SOL    HW162726   4.309  11.974   8.447 -1.2854  0.6156  0.3491
51955SOL    HW262727   4.236  11.851   8.497  0.2111  0.1625  1.4895
51956SOL     OW62728  12.181   2.492   1.216 -0.4409 -0.0028  0.4944
51956SOL    HW162729  12.269   2.495   1.253  0.2430  1.3991 -1.1192
51956SOL    HW262730  12.191   2.521   1.125 -2.4685 -0.4727  0.0621
51957SOL     OW62731   9.077   5.219  11.247 -0.4233  0.0967 -0.2881
51957SOL    HW162732   9.050   5.296  11.197 -1.6252 -0.6227 -0.7995
51957SOL    HW262733   9.005   5.205  11.309 -0.4984 -0.9390 -0.5929
51958SOL     OW62734  10.373  11.035  11.713 -0.2553 -0.0322  0.1841
51958SOL    HW162735  10.404  11.072  11.795  0.1317 -0.3215  0.1686
51958SOL    HW262736  10.292  10.990  11.737 -1.8678  2.4775 -0.1396
51959SOL     OW62737   6.978   3.292  11.298  0.2484 -0.0166  0.0039
51959SOL    HW162738   7.043   3.351  11.259  2.0877 -2.0061 -0.1636
51959SOL    HW262739   6.933   3.253  11.222 -0.1387  0.2868  0.0750
51960SOL     OW62740   8.939  10.482   7.469 -0.1779 -0.2034 -0.6399
51960SOL    HW162741   8.928  10.516   7.558 -3.5303 -0.8296 -0.6635
51960SOL    HW262742   8.982  10.398   7.481  1.8574  0.8876  0.0746
51961SOL     OW62743   3.587   7.921   0.892  0.1032 -0.5937  0.3477
51961SOL    HW162744   3.542   7.897   0.811  1.1344  1.2536 -0.8451
51961SOL    HW262745   3.538   7.996   0.926  0.3305 -0.6625  0.8466
51962SOL     OW62746   9.259   7.092   9.505 -0.4909 -0.3338 -0.0260
51962SOL    HW162747   9.246   7.178   9.465 -0.7429 -0.5478 -0.4176
51962SOL    HW262748   9.195   7.036   9.462 -1.4782 -0.3606  1.3986
51963SOL     OW62749   2.514  10.577   0.752  0.0679 -0.1751  0.0150
51963SOL    HW162750   2.454  10.573   0.827  0.1657 -1.3263  0.0452
51963SOL    HW262751   2.553  10.490   0.748  1.3389  0.3952 -0.3410
51964SOL     OW62752   7.257   1.273   7.350  0.0199  0.5488 -0.3850
51964SOL    HW162753   7.231   1.218   7.276 -1.1148  1.1959 -0.4971
51964SOL    HW262754   7.330   1.226   7.391 -0.4838 -0.6986 -0.8692
51965SOL     OW62755  11.792   3.081   1.929 -0.3435 -0.5793 -0.2253
51965SOL    HW162756  11.853   3.091   2.002 -0.4105 -0.9264 -0.1206
51965SOL    HW262757  11.724   3.147   1.945 -0.3902 -0.6947  0.0619
51966SOL     OW62758   7.737   5.907   9.296  0.0255 -0.1922  0.4868
51966SOL    HW162759   7.715   5.975   9.361 -1.1888 -0.9352  0.8871
51966SOL    HW262760   7.657   5.855   9.288  0.6578 -1.0478 -0.4780
51967SOL     OW62761   5.437   0.609   0.188  0.3958  0.0046 -0.0944
51967SOL    HW162762   5.503   0.575   0.248  1.7598  0.8284 -1.0530
51967SOL    HW262763   5.449   0.704   0.189 -0.9963  0.2065 -0.0744
51968SOL     OW62764   0.442   5.911  11.848  1.0098 -0.4186 -0.2034
51968SOL    HW162765   0.484   5.858  11.917 -0.2574  0.1656  1.0584
51968SOL    HW262766   0.459   6.002  11.874 -4.8612  0.1819  3.2057
51969SOL     OW62767   2.457   7.719  10.055  0.0138 -0.0380  0.3923
51969SOL    HW162768   2.518   7.650  10.081 -2.3308 -1.6035  2.1281
51969SOL    HW262769   2.453   7.778  10.130 -0.3843  0.2376  0.1576
51970SOL     OW62770   4.011   9.602   3.923 -0.0439 -0.5099  0.8332
51970SOL    HW162771   4.066   9.679   3.909  0.5443 -0.2448  3.9266
51970SOL    HW262772   4.072   9.529   3.929 -0.3619 -0.7854  0.7368
51971SOL     OW62773  11.717   9.407  10.258  0.3561  0.3897 -0.6952
51971SOL    HW162774  11.788   9.399  10.323  0.4402  0.8108 -0.7314
51971SOL    HW262775  11.668   9.485  10.286  1.5608  1.7743 -2.2427
51972SOL     OW62776   6.950   5.212   2.297  0.0653  0.4158 -0.3676
51972SOL    HW162777   6.875   5.162   2.264  0.6915 -0.6097 -0.2918
51972SOL    HW262778   7.025   5.157   2.276  0.7593  1.2439 -0.0753
51973SOL     OW62779  11.350   4.295   3.491  0.2292  0.4956  0.1508
51973SOL    HW162780  11.321   4.271   3.403  0.9860  0.9131 -0.2220
51973SOL    HW262781  11.269   4.311   3.539 -0.3221 -2.0845  0.2507
51974SOL     OW62782  10.773   7.309   7.411  0.3154 -0.3193 -0.3151
51974SOL    HW162783  10.780   7.318   7.506 -1.2715 -0.2775 -0.1838
51974SOL    HW262784  10.749   7.396   7.380 -0.2143 -0.5746 -0.6360
51975SOL     OW62785   1.300   7.474   0.737  0.6287 -0.3337 -0.0104
51975SOL    HW162786   1.283   7.568   0.736  0.4141 -0.3605  0.5914
51975SOL    HW262787   1.214   7.434   0.751  0.9878 -0.5202  1.8779
51976SOL     OW62788   6.187   8.684   7.138 -0.5495  0.4533  0.2649
51976SOL    HW162789   6.118   8.634   7.181  0.6163 -1.1106  0.3924
51976SOL    HW262790   6.243   8.715   7.209 -1.0205  1.5798  0.1537
51977SOL     OW62791   6.770  11.907   0.281 -0.3278 -0.2053 -0.6465
51977SOL    HW162792   6.738  11.935   0.195  1.5993 -0.5795 -1.5420
51977SOL    HW262793   6.824  11.980   0.311 -0.0719 -0.5477 -0.2729
51978SOL     OW62794   8.110   9.229   3.944 -0.4043  0.0863  0.5852
51978SOL    HW162795   8.118   9.136   3.920 -1.9742  0.1325 -0.2218
51978SOL    HW262796   8.016   9.246   3.942 -0.1984  1.5020  1.5572
51979SOL     OW62797  10.006   2.390  12.073 -0.2691 -0.1164  0.6503
51979SOL    HW162798  10.079   2.412  12.016 -0.3458 -0.8569  0.2518
51979SOL    HW262799   9.972   2.474  12.104  1.3732  0.2304  1.6436
51980SOL     OW62800   9.945   4.066   5.371 -0.6488 -0.1281 -0.5079
51980SOL    HW162801   9.920   4.075   5.279 -1.1147  0.2604 -0.3493
51980SOL    HW262802   9.880   4.118   5.419 -0.7575 -0.7953  0.0929
51981SOL     OW62803   8.049   0.494   8.530 -0.2147 -0.1379 -0.2658
51981SOL    HW162804   7.991   0.472   8.603  0.8095 -2.1760 -0.0118
51981SOL    HW262805   7.991   0.508   8.456 -1.1367 -0.0554  0.4577
51982SOL     OW62806   9.398   8.011   9.651  0.6720 -0.2044  0.8347
51982SOL    HW162807   9.362   8.010   9.740  0.6738 -0.7531  0.8344
51982SOL    HW262808   9.471   8.073   9.655  1.3154 -0.9748  1.4735
51983SOL     OW62809   1.632   6.314   6.480  0.1937  0.5715 -0.4272
51983SOL    HW162810   1.650   6.226   6.445 -1.0188 -0.1271  0.6340
51983SOL    HW262811   1.538   6.326   6.469 -0.0737  0.7145  1.6735
51984SOL     OW62812  12.037   3.161   3.799 -0.1496 -0.3566 -0.3419
51984SOL    HW162813  12.086   3.085   3.829 -0.3071 -0.5883 -0.6577
51984SOL    HW262814  12.046   3.158   3.703 -0.9503 -0.5260 -0.4169
51985SOL     OW62815   8.251   8.324   5.774 -0.3490 -0.7264 -0.5444
51985SOL    HW162816   8.272   8.274   5.853 -2.0013 -0.2321  0.2588
51985SOL    HW262817   8.279   8.268   5.701 -1.5652 -2.5718  0.3311
51986SOL     OW62818   6.073  12.441  11.584 -0.1452  0.3764  0.1370
51986SOL    HW162819   6.066  12.515  11.524  0.9386  0.4635  0.1046
51986SOL    HW262820   6.143  12.387  11.548  0.5296  0.4304  1.3152
51987SOL     OW62821   2.456   4.017   3.693 -0.0159 -0.0032  0.0447
51987SOL    HW162822   2.377   3.965   3.699  0.3884 -0.4473  2.6781
51987SOL    HW262823   2.428   4.107   3.713 -0.0983  0.1233 -0.6253
51988SOL     OW62824   5.616   3.251   6.940 -0.8561  0.2002 -0.2549
51988SOL    HW162825   5.573   3.267   7.023  1.7548  0.0645  1.2514
51988SOL    HW262826   5.703   3.218   6.964 -0.7060 -1.8445 -3.0573
51989SOL     OW62827  12.230   3.840   1.147 -0.2429 -0.7624 -0.6063
51989SOL    HW162828  12.277   3.861   1.066  1.3562 -0.6373  0.3265
51989SOL    HW262829  12.255   3.750   1.167  0.1704 -0.4672  0.2638
51990SOL     OW62830  10.613  12.054   4.437 -0.0023 -0.1429 -0.5694
51990SOL    HW162831  10.673  12.126   4.415  0.4404 -0.5819 -0.8129
51990SOL    HW262832  10.526  12.095   4.438  0.2701  0.4477 -0.4624
51991SOL     OW62833   7.784   9.563   5.563  0.0312 -0.2941 -0.1426
51991SOL    HW162834   7.820   9.604   5.484  0.9103 -1.1065 -0.1756
51991SOL    HW262835   7.706   9.517   5.534 -0.4119  0.5378 -0.2839
51992SOL     OW62836   2.090   2.416   4.228  0.2903 -0.3098  0.4157
51992SOL    HW162837   2.116   2.462   4.308 -2.1115 -0.4945  1.3737
51992SOL    HW262838   2.079   2.325   4.256 -2.2247 -0.0856  0.3560
51993SOL     OW62839   2.593   7.045   9.529  0.0953  0.6050  0.2691
51993SOL    HW162840   2.546   7.102   9.468 -2.6362 -1.2426  0.5262
51993SOL    HW262841   2.553   7.062   9.614  1.6411  0.7743  1.0017
51994SOL     OW62842   2.779  10.941   1.016 -0.0099  0.2242 -0.1363
51994SOL    HW162843   2.697  10.945   0.967 -0.0236  1.1071 -0.0533
51994SOL    HW262844   2.847  10.935   0.949 -0.1756 -1.7224 -0.1939
51995SOL     OW62845  11.565   1.880   6.350  0.1948  0.0165 -0.4902
51995SOL    HW162846  11.613   1.917   6.276 -0.0217 -1.0262 -1.1691
51995SOL    HW262847  11.520   1.955   6.390  1.8809  0.9107 -0.2012
51996SOL     OW62848   8.972  11.894   2.531 -0.5410  0.1664  0.4805
51996SOL    HW162849   8.968  11.800   2.513 -0.4207  0.3144 -0.3381
51996SOL    HW262850   9.045  11.903   2.593 -0.1466 -0.2066  0.0752
51997SOL     OW62851   8.237   7.374   4.808 -0.1125 -0.0131  0.0247
51997SOL    HW162852   8.244   7.294   4.860 -0.4925  0.3989  0.7144
51997SOL    HW262853   8.218   7.443   4.871 -1.7405  0.3248 -0.7769
51998SOL     OW62854   5.627   6.772  10.610 -0.2179 -0.0662  0.2865
51998SOL    HW162855   5.554   6.736  10.558  1.1961 -1.8246 -0.5965
51998SOL    HW262856   5.705   6.730  10.573  1.2349  1.5611  1.3737
51999SOL     OW62857   1.345   8.181   0.521 -0.1141  0.2524 -0.1481
51999SOL    HW162858   1.332   8.181   0.616 -2.1883  1.2185 -0.3851
51999SOL    HW262859   1.434   8.215   0.510  0.4395 -0.5647  1.4485
52000SOL     OW62860   6.197   1.602   9.167  0.0255  0.3983  0.2248
52000SOL    HW162861   6.271   1.611   9.107 -1.9819  1.6330 -2.3233
52000SOL    HW262862   6.146   1.530   9.131 -2.5220  2.7391 -1.3189
52001SOL     OW62863   6.663  11.277  11.997 -0.0070 -0.3619  0.2439
52001SOL    HW162864   6.757  11.262  11.997  0.4845  1.3067  4.3829
52001SOL    HW262865   6.651  11.353  11.940  1.4578  0.3986  0.8968
52002SOL     OW62866   9.723   0.493   8.106  0.0579 -0.0788 -0.0502
52002SOL    HW162867   9.750   0.558   8.041 -0.6114 -0.4150 -0.6894
52002SOL    HW262868   9.740   0.409   8.062  2.2576 -0.4186  1.2891
52003SOL     OW62869   3.733   9.390   6.863  0.1902 -0.0998  0.1053
52003SOL    HW162870   3.663   9.455   6.866  1.6337  1.5110  0.1584
52003SOL    HW262871   3.733   9.350   6.950 -1.8015 -1.4563 -0.4352
52004SOL     OW62872   9.304   3.101  11.806 -0.0327  1.0053  0.3913
52004SOL    HW162873   9.256   3.040  11.861 -1.4509  0.1223 -1.6769
52004SOL    HW262874   9.391   3.062  11.796 -0.2057  0.4833  0.9016
52005SOL     OW62875   0.013   2.514   5.372 -0.1993 -0.7911 -0.0689
52005SOL    HW162876  -0.010   2.500   5.280  0.3521  1.0878 -0.5392
52005SOL    HW262877   0.105   2.541   5.370 -0.7039  1.1580  0.8111
52006SOL     OW62878   5.807  10.048   8.095 -0.2442 -0.0025 -0.1916
52006SOL    HW162879   5.876   9.997   8.136 -1.0809 -0.8009  0.2465
52006SOL    HW262880   5.851  10.127   8.063  1.1380 -1.1405 -1.2019
52007SOL     OW62881   3.479   7.916  12.177 -0.1993 -0.0597 -0.4733
52007SOL    HW162882   3.483   7.830  12.137  0.5287 -0.2677  0.0265
52007SOL    HW262883   3.390   7.947  12.159 -0.3524 -0.7573 -0.9585
52008SOL     OW62884   8.627   7.075   4.652  0.5480  0.2310  0.0739
52008SOL    HW162885   8.567   7.150   4.652  1.6739  1.1668 -0.2951
52008SOL    HW262886   8.639   7.054   4.560 -0.9491 -1.4338  0.2069
52009SOL     OW62887  10.692   9.358   4.595  0.4156  0.3788 -0.3020
52009SOL    HW162888  10.704   9.264   4.611 -0.6005  0.3132  0.1599
52009SOL    HW262889  10.729   9.372   4.508  2.4883 -0.0273  0.4662
52010SOL     OW62890   9.410   9.674   3.930  0.1875 -0.5800 -0.3139
52010SOL    HW162891   9.367   9.593   3.957 -1.5458  0.4890  0.2485
52010SOL    HW262892   9.371   9.696   3.846  0.7850 -0.4033 -0.5532
52011SOL     OW62893   4.388   5.400   8.066 -0.4329 -0.1048 -0.7072
52011SOL    HW162894   4.398   5.318   8.016 -3.8699 -0.8470 -0.3983
52011SOL    HW262895   4.383   5.468   7.999  1.2448 -0.2484 -1.0217
52012SOL     OW62896   8.827   2.168   2.283 -0.3734  0.5112 -0.2054
52012SOL    HW162897   8.864   2.122   2.207  0.4344 -2.1434  1.6651
52012SOL    HW262898   8.903   2.192   2.336 -1.0121  0.3373  0.8201
52013SOL     OW62899   7.038   4.250   3.491  0.4283 -0.1786  0.7443
52013SOL    HW162900   7.105   4.318   3.484  0.6200 -0.4991 -1.1183
52013SOL    HW262901   6.955   4.295   3.475  0.0934  0.2712  3.3313
52014SOL     OW62902  10.474   1.833   1.532  0.3321 -0.1523 -0.1109
52014SOL    HW162903  10.494   1.872   1.446  0.8309  1.2178  0.5926
52014SOL    HW262904  10.379   1.841   1.541  0.2246 -0.6703 -0.6892
52015SOL     OW62905   9.209   1.117   2.260  0.9004 -0.4355  0.2645
52015SOL    HW162906   9.135   1.174   2.280  1.6098  0.7561 -0.3557
52015SOL    HW262907   9.242   1.089   2.345  0.2842 -0.2531  0.5706
52016SOL     OW62908   3.772  11.667   7.350 -0.0559  0.0206  0.4734
52016SOL    HW162909   3.783  11.579   7.387  1.1089  0.6246  1.6791
52016SOL    HW262910   3.823  11.665   7.269  0.2757 -0.3111  0.6857
52017SOL     OW62911   8.602   4.025   4.960  0.3006  0.1868  0.1259
52017SOL    HW162912   8.692   4.001   4.983  1.1425  0.4002 -2.5285
52017SOL    HW262913   8.554   3.943   4.965  1.4668 -0.6821 -1.6575
52018SOL     OW62914   8.450   8.737   5.342  0.0817  0.4961 -0.2878
52018SOL    HW162915   8.519   8.760   5.279  1.8301 -1.4744  0.8042
52018SOL    HW262916   8.473   8.785   5.421  0.4284 -0.4352  0.1882
52019SOL     OW62917   8.960   0.520   1.623  0.3352 -0.3234  0.0217
52019SOL    HW162918   8.973   0.583   1.552  0.7329 -1.3420 -0.8377
52019SOL    HW262919   9.005   0.560   1.698  0.0206  0.7121 -0.3175
52020SOL     OW62920   3.818   0.290   8.181 -0.8453 -0.4941 -0.2683
52020SOL    HW162921   3.890   0.332   8.134 -0.8818 -0.6297 -0.4458
52020SOL    HW262922   3.767   0.363   8.215  0.8387 -0.3368  2.1708
52021SOL     OW62923   0.177   5.215   9.259  0.1195 -0.2122 -0.3874
52021SOL    HW162924   0.178   5.183   9.169  1.1721  1.6273 -1.1076
52021SOL    HW262925   0.158   5.139   9.313  1.3435 -1.7540 -2.0349
52022SOL     OW62926   2.960   8.657   2.812 -0.4312  0.3331  0.4741
52022SOL    HW162927   2.914   8.638   2.893 -1.8380  1.0253 -0.1301
52022SOL    HW262928   2.924   8.595   2.749 -1.4916  1.6605 -0.2998
52023SOL     OW62929   8.949   4.369   9.937 -0.2787  0.7859 -0.5898
52023SOL    HW162930   8.901   4.451   9.951 -0.3487  0.8670 -1.2494
52023SOL    HW262931   9.022   4.374   9.998 -1.1567  0.6047  0.5232
52024SOL     OW62932   8.707   4.156   3.955 -0.2551 -0.1491  0.0182
52024SOL    HW162933   8.724   4.175   3.863  0.1425 -0.7464 -0.0383
52024SOL    HW262934   8.793   4.165   3.997 -0.5838  0.9569  0.4861
52025SOL     OW62935   5.644   6.942   6.274 -0.3560  0.3247  0.1297
52025SOL    HW162936   5.685   6.891   6.344 -2.0457  0.6995  1.4683
52025SOL    HW262937   5.551   6.923   6.282 -0.8191  2.0450 -0.6283
52026SOL     OW62938   6.806   6.362  11.678  0.5485  0.5397 -0.1355
52026SOL    HW162939   6.777   6.280  11.718  2.8712  0.5765  1.8965
52026SOL    HW262940   6.760   6.366  11.594  1.1551 -3.3799 -0.8447
52027SOL     OW62941   2.356   9.828   2.672 -0.2419  0.0213  0.1627
52027SOL    HW162942   2.311   9.887   2.613  0.6086 -0.9436 -1.5383
52027SOL    HW262943   2.444   9.818   2.634  0.5065 -0.2527  1.8656
52028SOL     OW62944   1.603   0.549   0.809 -0.4657 -0.0392  0.4172
52028SOL    HW162945   1.517   0.517   0.837  0.1885 -1.1142  1.3052
52028SOL    HW262946   1.664   0.482   0.841  0.7471  0.9647  0.2530
52029SOL     OW62947   3.610   6.805  10.823 -0.2502 -0.4060 -0.2537
52029SOL    HW162948   3.629   6.898  10.833  2.0562 -0.9453  1.0835
52029SOL    HW262949   3.524   6.803  10.781 -0.6724  2.2983  0.2829
52030SOL     OW62950   2.293   9.975   7.157  0.0660  0.3465  0.1218
52030SOL    HW162951   2.282  10.003   7.066 -0.8724 -0.9946 -0.2068
52030SOL    HW262952   2.239   9.896   7.165 -0.9632  1.1622  2.2058
52031SOL     OW62953  10.260   3.423  11.801 -0.6088  0.6759 -0.4338
52031SOL    HW162954  10.174   3.380  11.800 -1.3407  2.0781 -1.5886
52031SOL    HW262955  10.268   3.459  11.889 -1.3357  0.7886 -0.4098
52032SOL     OW62956   6.465   0.283   8.759  0.5840  0.3617  0.4633
52032SOL    HW162957   6.527   0.346   8.721 -0.5641  1.6285  0.6283
52032SOL    HW262958   6.405   0.336   8.811 -1.8108 -0.5426 -1.1918
52033SOL     OW62959   5.989  11.943   3.763 -0.6254 -0.0522  0.1955
52033SOL    HW162960   5.963  11.880   3.696 -1.2277  0.7768 -0.3902
52033SOL    HW262961   6.084  11.945   3.760 -0.6247 -0.5310 -0.1516
52034SOL     OW62962   7.660   7.959  12.263  0.2568  0.6622 -0.0960
52034SOL    HW162963   7.730   8.023  12.251 -1.4588  2.7569  0.2620
52034SOL    HW262964   7.630   7.940  12.175 -0.3884  1.8218 -0.1552
52035SOL     OW62965   4.970  11.655  11.140  0.4259  0.1590  0.3596
52035SOL    HW162966   5.038  11.591  11.160  1.0244  0.9435  0.9107
52035SOL    HW262967   5.013  11.719  11.084 -0.4654 -0.4744 -1.1065
52036SOL     OW62968  12.163   9.975   7.292 -0.5263 -0.1187 -0.2821
52036SOL    HW162969  12.199   9.900   7.339 -0.8599  0.4808  0.9687
52036SOL    HW262970  12.169   9.951   7.200 -1.3063 -1.9987  0.1116
52037SOL     OW62971   7.761   2.956   3.761 -0.3732 -0.4011 -0.2496
52037SOL    HW162972   7.677   2.911   3.749 -0.2950 -0.4013 -0.8289
52037SOL    HW262973   7.740   3.049   3.752 -0.5630 -0.3008  1.1094
52038SOL     OW62974  11.875   7.880  10.605 -0.2383  0.3585 -0.3647
52038SOL    HW162975  11.926   7.896  10.526 -0.1672 -1.0635 -0.6402
52038SOL    HW262976  11.936   7.838  10.665 -0.5420  0.5595  0.0942
52039SOL     OW62977   6.883   0.866   8.993 -0.8835  0.5340  0.4417
52039SOL    HW162978   6.952   0.892   9.053 -1.3824  1.7317  0.5163
52039SOL    HW262979   6.836   0.947   8.973 -1.8157 -0.1353 -0.1751
52040SOL     OW62980  10.064   2.585   4.723 -0.4728 -0.3384  0.0960
52040SOL    HW162981  10.093   2.529   4.650  1.0491  0.3775  0.0994
52040SOL    HW262982  10.010   2.528   4.777  1.3336 -1.9501  0.3046
52041SOL     OW62983   8.776   7.802   5.164 -0.0183  0.0234 -0.4505
52041SOL    HW162984   8.763   7.878   5.221  0.9861 -0.0867 -0.0661
52041SOL    HW262985   8.811   7.838   5.083  0.7573 -0.0545 -0.1553
52042SOL     OW62986   9.404   9.979   2.839  0.2777 -0.3553  0.1588
52042SOL    HW162987   9.452   9.896   2.840  3.0103  1.1019 -0.1977
52042SOL    HW262988   9.377   9.992   2.930  0.4267 -1.3025  0.3491
52043SOL     OW62989  11.154   5.108   5.262 -0.3540  0.5253 -0.2664
52043SOL    HW162990  11.210   5.171   5.216 -4.5525  4.7978 -0.2766
52043SOL    HW262991  11.119   5.052   5.193  2.6832 -1.4884 -0.3801
52044SOL     OW62992   2.080   7.196   7.919 -0.2854  0.1139 -0.5966
52044SOL    HW162993   2.087   7.164   7.829 -1.5634 -0.4121 -0.5319
52044SOL    HW262994   2.128   7.279   7.919 -0.2141  0.0890 -1.7504
52045SOL     OW62995   8.123   9.491   1.999  0.0236 -0.0272  0.2401
52045SOL    HW162996   8.045   9.536   1.967  0.2144 -0.2165 -0.5191
52045SOL    HW262997   8.146   9.537   2.080 -0.5148  0.4265  0.1389
52046SOL     OW62998   3.963   6.402   3.951 -0.4058  0.5207  0.0877
52046SOL    HW162999   4.008   6.319   3.939  0.3310  1.1019 -1.4504
52046SOL    HW263000   3.877   6.378   3.987  0.0450 -0.8341  0.3093
52047SOL     OW63001  12.303   8.861   2.853  0.4839  0.4312  0.9149
52047SOL    HW163002  12.231   8.923   2.867 -0.1347 -0.1641  0.4176
52047SOL    HW263003  12.292   8.796   2.922 -0.1814 -0.3115  0.1312
52048SOL     OW63004   5.777   6.401  10.113 -0.6916  0.0419 -0.6316
52048SOL    HW163005   5.692   6.396  10.068 -1.8789  0.4620  1.4281
52048SOL    HW263006   5.782   6.491  10.144  0.8665  0.2096 -1.3034
52049SOL     OW63007   8.801   5.879   3.730  0.1187 -0.1573  0.1995
52049SOL    HW163008   8.723   5.843   3.689 -1.4633  2.4368  0.6531
52049SOL    HW263009   8.778   5.889   3.822  0.8048  0.9854  0.2804
52050SOL     OW63010   6.906   6.068   8.219 -0.2871 -0.1149 -0.3255
52050SOL    HW163011   6.851   6.109   8.285 -0.4315  2.4210 -1.8606
52050SOL    HW263012   6.845   6.042   8.150 -0.0182 -1.6934 -0.0075
52051SOL     OW63013   5.897   7.014   1.135 -0.0252  0.4647 -0.4262
52051SOL    HW163014   5.932   6.939   1.184 -1.3292 -0.2153 -0.4878
52051SOL    HW263015   5.894   6.984   1.044 -1.0931  0.3608 -0.3697
52052SOL     OW63016  10.007   4.150   8.800  0.0762  0.2464 -0.8723
52052SOL    HW163017   9.938   4.088   8.822 -1.1819  1.3372 -1.6052
52052SOL    HW263018  10.079   4.096   8.767 -1.1520 -0.7976 -1.9248
52053SOL     OW63019   9.230   9.126   2.884 -1.0593  0.3454 -0.2208
52053SOL    HW163020   9.319   9.142   2.914  0.5830 -4.2798 -1.6372
52053SOL    HW263021   9.191   9.069   2.951 -2.5502  1.3099 -0.2135
52054SOL     OW63022   0.421   5.054  11.429  0.4399  0.1117 -0.0922
52054SOL    HW163023   0.459   4.999  11.498  0.7481  1.8350  1.1756
52054SOL    HW263024   0.335   5.079  11.464 -1.5461 -2.7701 -2.4142
52055SOL     OW63025   0.698  10.364  12.216 -0.0262 -0.2542  0.3416
52055SOL    HW163026   0.785  10.350  12.177 -0.4524  0.7314 -1.0461
52055SOL    HW263027   0.711  10.348  12.309  1.7089  0.1252  0.1996
52056SOL     OW63028   6.201  10.969   9.776 -0.3722 -0.3818  0.4765
52056SOL    HW163029   6.117  10.924   9.785 -1.6964  1.7179 -0.5441
52056SOL    HW263030   6.233  10.978   9.866 -1.3230 -1.0665  0.9026
52057SOL     OW63031   3.301   8.694   9.871  0.0297  0.5107 -0.4717
52057SOL    HW163032   3.214   8.683   9.908 -0.0638  1.8918 -0.2252
52057SOL    HW263033   3.291   8.762   9.804  1.1060  1.5617  0.3711
52058SOL     OW63034   7.442   8.860  10.539  0.0318 -0.2620  0.3626
52058SOL    HW163035   7.533   8.874  10.565 -0.0127 -0.4234  0.6098
52058SOL    HW263036   7.391   8.884  10.617 -0.1795  0.4640  0.0154
52059SOL     OW63037   2.393   2.953   5.470  0.4654  0.1865 -0.1415
52059SOL    HW163038   2.412   3.044   5.490 -1.4224  0.6035 -0.1562
52059SOL    HW263039   2.368   2.953   5.377 -0.3764 -0.1983  0.0764
52060SOL     OW63040  10.855  12.232   5.062 -0.3623 -0.4233  0.2983
52060SOL    HW163041  10.838  12.282   5.142 -1.5029  2.3530 -1.5163
52060SOL    HW263042  10.944  12.259   5.037 -0.3173 -0.6702  0.1928
52061SOL     OW63043   6.413   4.526   6.347  0.0834  0.5310  0.2545
52061SOL    HW163044   6.463   4.569   6.278 -0.2163  0.6780  0.1242
52061SOL    HW263045   6.415   4.588   6.421  0.7080  0.2166  0.5099
52062SOL     OW63046   4.852   6.292   8.696  0.1317 -0.0780 -0.5192
52062SOL    HW163047   4.939   6.266   8.667  0.0915 -0.4013 -0.3629
52062SOL    HW263048   4.793   6.248   8.636  0.0977  2.1919 -2.2826
52063SOL     OW63049   1.190   9.285   1.920  0.2007 -0.4271 -0.6682
52063SOL    HW163050   1.114   9.294   1.862 -0.2318 -0.2054 -0.0767
52063SOL    HW263051   1.154   9.254   2.003  0.4313  1.7141  0.3052
52064SOL     OW63052  10.009   0.443   7.906  0.1661  0.5812 -0.0245
52064SOL    HW163053  10.078   0.437   7.839  0.8975 -2.0037  0.8212
52064SOL    HW263054   9.929   0.455   7.856  0.8789  0.3341 -1.2901
52065SOL     OW63055   8.225   2.257   5.493  0.0381 -0.3658 -0.5034
52065SOL    HW163056   8.223   2.162   5.480 -1.9771 -0.5815  0.9389
52065SOL    HW263057   8.134   2.281   5.511  0.3633  1.9899 -1.6376
52066SOL     OW63058   5.130   2.647   1.762  0.2516  0.1474 -0.0396
52066SOL    HW163059   5.115   2.604   1.677 -0.0348  1.0684 -0.4681
52066SOL    HW263060   5.061   2.612   1.818  0.7695 -0.8777 -0.0175
52067SOL     OW63061   9.759  11.499  12.372 -0.1344 -0.1583 -0.2067
52067SOL    HW163062   9.815  11.497  12.450  0.8672  1.4163 -0.8362
52067SOL    HW263063   9.678  11.540  12.401  0.1032  0.1072  0.0875
52068SOL     OW63064   1.321   7.981   0.913  0.0708  0.2485  0.2841
52068SOL    HW163065   1.274   8.062   0.932 -0.6892 -0.3273  0.8951
52068SOL    HW263066   1.373   7.965   0.992 -0.1599 -0.1149  0.3643
52069SOL     OW63067  11.797   6.427   3.124 -0.1181  0.5267 -0.0690
52069SOL    HW163068  11.864   6.481   3.166  0.3689 -0.3945  0.3727
52069SOL    HW263069  11.845   6.377   3.058 -0.3765 -0.0655  0.1843
52070SOL     OW63070   8.271   3.893   3.402  0.0332 -0.0178 -0.1655
52070SOL    HW163071   8.258   3.976   3.357  0.8644 -0.5305 -1.3955
52070SOL    HW263072   8.366   3.886   3.414  0.0522 -1.1566 -0.8284
52071SOL     OW63073   7.132   1.129  12.384 -0.0491  0.1302  0.1028
52071SOL    HW163074   7.194   1.084  12.441  0.1758  0.6377  0.2687
52071SOL    HW263075   7.179   1.208  12.356 -0.4473  0.2807 -0.1482
52072SOL     OW63076   6.590   4.273   3.345 -0.1155  0.3591 -0.7342
52072SOL    HW163077   6.624   4.184   3.351 -0.0474  0.3944 -0.5821
52072SOL    HW263078   6.599   4.296   3.253 -1.0869 -0.1601 -0.9639
52073SOL     OW63079   1.790   1.797   2.056 -0.0574  0.5288  0.0136
52073SOL    HW163080   1.711   1.779   2.006  0.1187 -0.7049  0.1357
52073SOL    HW263081   1.852   1.831   1.991  0.4967 -1.9919 -0.8877
52074SOL     OW63082   6.034   1.080   5.708  0.4332  0.2439  0.2510
52074SOL    HW163083   5.999   1.106   5.793 -0.5634  2.0276 -0.6373
52074SOL    HW263084   6.002   1.147   5.647  0.2638 -1.5158 -1.7272
52075SOL     OW63085   6.571   2.581   4.815  0.1087  0.0454  0.3761
52075SOL    HW163086   6.607   2.597   4.902  1.0340  0.0980 -0.0086
52075SOL    HW263087   6.518   2.659   4.797  0.3358  0.2728  0.6771
52076SOL     OW63088   9.120  10.082   2.442  0.2089  0.2270 -0.2677
52076SOL    HW163089   9.048  10.031   2.479 -0.5966  0.0440 -2.0167
52076SOL    HW263090   9.170  10.112   2.519 -0.8121 -0.9566  0.8994
52077SOL     OW63091   5.577   7.724  10.502 -0.0867  0.1821  0.6589
52077SOL    HW163092   5.543   7.814  10.504  0.7448  0.6706 -2.2349
52077SOL    HW263093   5.499   7.669  10.492 -0.4702  0.7571  0.4313
52078SOL     OW63094   1.127   7.219   2.156  0.3220  0.1943  0.4851
52078SOL    HW163095   1.158   7.305   2.183 -0.9506  0.9012 -0.2205
52078SOL    HW263096   1.172   7.158   2.214  0.8026  1.3751  1.3903
52079SOL     OW63097   8.468  10.567   7.324  0.1410  0.3700  0.1820
52079SOL    HW163098   8.545  10.545   7.377  0.7312  0.4893 -0.6018
52079SOL    HW263099   8.433  10.482   7.297 -0.7991  0.2706  1.6208
52080SOL     OW63100   5.337   6.482   2.661  0.0906 -0.1470 -0.0311
52080SOL    HW163101   5.344   6.505   2.753  0.6889  1.6869 -0.4825
52080SOL    HW263102   5.421   6.440   2.641  1.7615  3.0371 -0.5653
52081SOL     OW63103   6.204   5.580  11.438 -0.2266  0.6362  0.4496
52081SOL    HW163104   6.261   5.653  11.415 -0.8541  1.1129  0.3600
52081SOL    HW263105   6.263   5.506  11.452  0.4056  1.1193  0.3777
52082SOL     OW63106   4.328   2.275   2.292  0.1049  0.3415  0.8730
52082SOL    HW163107   4.362   2.215   2.225 -0.6482 -0.5222  1.2433
52082SOL    HW263108   4.264   2.329   2.246  1.4661  1.5339  0.3206
52083SOL     OW63109  11.917   4.485   8.917  0.1598  0.1849  0.0323
52083SOL    HW163110  11.936   4.563   8.969 -3.1287 -0.4833  2.5408
52083SOL    HW263111  11.976   4.418   8.952  0.4738  0.6503  0.4101
52084SOL     OW63112   3.302   0.769   8.047 -0.1994  0.2216  0.1200
52084SOL    HW163113   3.374   0.799   7.992 -0.6434 -0.0150 -0.6123
52084SOL    HW263114   3.232   0.834   8.033 -0.7762 -0.5329 -0.6254
52085SOL     OW63115   1.076   7.683   5.245 -0.8926  0.3771  0.0524
52085SOL    HW163116   1.095   7.661   5.336  0.2249 -0.7114 -0.4025
52085SOL    HW263117   1.053   7.776   5.246  1.9928  1.1851  1.1017
52086SOL     OW63118   1.156   3.776   4.500  0.3600 -0.3508  0.3318
52086SOL    HW163119   1.189   3.694   4.465 -1.5626 -0.4493 -1.4474
52086SOL    HW263120   1.102   3.750   4.575 -1.7235 -1.0145 -1.2806
52087SOL     OW63121   9.342   9.485   9.824 -0.7987  0.0940  0.2541
52087SOL    HW163122   9.292   9.434   9.760 -0.5757 -0.2407  0.3437
52087SOL    HW263123   9.405   9.423   9.860  0.5535  0.8212 -0.7592
52088SOL     OW63124   4.641   1.845  11.534 -0.6529 -0.4817 -0.1658
52088SOL    HW163125   4.679   1.895  11.606 -0.0522  0.7482 -1.2862
52088SOL    HW263126   4.693   1.764  11.531  0.3392  0.1383 -0.1802
52089SOL     OW63127   0.890   4.084   8.052 -0.1431  0.6098 -0.2016
52089SOL    HW163128   0.981   4.113   8.057  0.3351 -0.4619 -1.9336
52089SOL    HW263129   0.893   4.003   8.000 -1.5460 -1.8910  3.1888
52090SOL     OW63130   3.651  11.864   6.954 -0.4878 -0.0408  0.1490
52090SOL    HW163131   3.582  11.862   7.020 -1.4347  2.5912 -0.6352
52090SOL    HW263132   3.652  11.775   6.918 -1.8337 -0.7837  1.8035
52091SOL     OW63133  10.049   6.280   9.339 -0.3195 -0.3479 -0.3283
52091SOL    HW163134  10.057   6.199   9.389  0.9891 -1.5076 -2.3195
52091SOL    HW263135  10.008   6.254   9.257 -0.9457  1.2300 -0.5433
52092SOL     OW63136   6.240   2.461  10.692  0.5648 -0.1264 -0.1670
52092SOL    HW163137   6.150   2.429  10.679  0.4757  0.9097 -2.8527
52092SOL    HW263138   6.233   2.525  10.763 -0.7882 -0.2758 -0.1377
52093SOL     OW63139   9.431   5.485   9.476  0.3327 -0.2993  0.0418
52093SOL    HW163140   9.517   5.527   9.489 -0.5144  1.1741  1.1585
52093SOL    HW263141   9.368   5.553   9.499 -1.1393 -1.6474  0.1015
52094SOL     OW63142  11.600   2.866   0.265  0.1607 -0.2080  0.5517
52094SOL    HW163143  11.569   2.914   0.188  0.2512 -1.6725 -0.4338
52094SOL    HW263144  11.640   2.934   0.321 -1.7988  1.2075  0.3288
52095SOL     OW63145  12.215   3.138   2.240  0.1924  0.2484  0.2225
52095SOL    HW163146  12.305   3.167   2.227 -0.1335  1.5390  0.6307
52095SOL    HW263147  12.190   3.176   2.325 -0.2596 -1.3384  0.8271
52096SOL     OW63148   1.476   4.990   3.707 -0.0591  0.7069  0.6931
52096SOL    HW163149   1.515   4.985   3.795  0.5288  0.9090  0.4524
52096SOL    HW263150   1.517   5.068   3.669 -0.0314  0.4025  0.1036
52097SOL     OW63151   1.632   2.384   1.929 -0.3964 -0.2934  0.3442
52097SOL    HW163152   1.603   2.437   1.855 -0.3381  0.3605  0.7809
52097SOL    HW263153   1.664   2.303   1.889  0.9183  0.5891 -0.4652
52098SOL     OW63154   0.810   4.609   9.679  0.7594  0.6126 -0.4831
52098SOL    HW163155   0.853   4.529   9.649  0.6182  0.2735  0.2073
52098SOL    HW263156   0.840   4.677   9.617  0.0308 -0.1615 -1.7369
52099SOL     OW63157   0.544  11.999   1.735  0.4168 -0.2313  0.5007
52099SOL    HW163158   0.573  11.967   1.650  0.9117 -0.3146  0.6969
52099SOL    HW263159   0.555  12.094   1.730 -0.9770 -0.0855 -0.0535
52100SOL     OW63160   4.697   3.462   5.565  0.5193  0.0316  0.0778
52100SOL    HW163161   4.633   3.455   5.495 -0.0627  0.5743  0.5476
52100SOL    HW263162   4.760   3.392   5.546  0.7758  0.6311 -1.3745
52101SOL     OW63163   6.992   9.521   9.781 -0.3181 -0.1658 -0.1235
52101SOL    HW163164   6.956   9.609   9.782 -3.8635 -1.4454  1.7695
52101SOL    HW263165   7.006   9.499   9.873  1.9814 -1.1474 -0.6229
52102SOL     OW63166   6.659   0.839   5.793 -0.5779  0.6912  0.3210
52102SOL    HW163167   6.677   0.767   5.853  0.9502 -0.4799 -1.4104
52102SOL    HW263168   6.610   0.798   5.721  1.5643  0.9622 -1.3965
52103SOL     OW63169   6.249   7.962   5.197  0.0374 -0.4040  0.3453
52103SOL    HW163170   6.304   8.034   5.167  0.0488 -1.1067 -1.4597
52103SOL    HW263171   6.310   7.891   5.217 -0.1268 -1.3258 -2.0556
52104SOL     OW63172   9.529   6.998   9.914  0.2512 -0.7137 -0.2714
52104SOL    HW163173   9.493   7.057   9.849  0.0958  1.3398  1.5644
52104SOL    HW263174   9.475   7.013   9.992  2.1731 -0.9679  1.1634
52105SOL     OW63175   8.927   8.387   2.066  0.3803 -0.3164 -0.3169
52105SOL    HW163176   8.945   8.459   2.126  0.8226  1.0557 -2.0267
52105SOL    HW263177   8.836   8.400   2.039  0.3222 -0.6666 -0.3019
52106SOL     OW63178   7.571   5.205  11.754 -0.8547  0.0462  0.6257
52106SOL    HW163179   7.559   5.126  11.807  0.8996  0.4042  1.6109
52106SOL    HW263180   7.487   5.251  11.761 -0.9509 -0.3453  2.3734
52107SOL     OW63181   9.179   6.281   3.550  0.7942 -0.6699  0.1961
52107SOL    HW163182   9.091   6.246   3.565  0.6367  0.3010  1.6228
52107SOL    HW263183   9.233   6.239   3.617  1.0226  0.1854  0.5576
52108SOL     OW63184   3.423  11.048   8.868 -0.2233 -0.6424 -0.0393
52108SOL    HW163185   3.401  10.977   8.928 -0.5349 -1.3771 -0.9908
52108SOL    HW263186   3.453  11.120   8.924 -2.3723 -0.5885  1.1319
52109SOL     OW63187  10.824   8.281   4.501  0.0856  0.2157 -0.2455
52109SOL    HW163188  10.884   8.354   4.517 -0.0801  0.4131 -0.5005
52109SOL    HW263189  10.795   8.294   4.410  0.6029 -0.5719 -0.5311
52110SOL     OW63190   5.206   0.068   0.692 -0.0757 -0.2459  0.0539
52110SOL    HW163191   5.282   0.091   0.746  0.6325  0.3343 -1.1501
52110SOL    HW263192   5.135   0.055   0.755  0.8125  0.0261  1.1469
52111SOL     OW63193   4.178  12.336   8.065 -0.0011  0.5291 -0.1430
52111SOL    HW163194   4.131  12.254   8.052 -1.0511  0.9414  0.8575
52111SOL    HW263195   4.270  12.310   8.071 -0.3764 -0.6714  0.8102
52112SOL     OW63196   4.984   8.016   4.395 -0.4670 -0.0739  0.1907
52112SOL    HW163197   5.069   7.983   4.426 -0.7915 -0.1961  0.9599
52112SOL    HW263198   4.928   7.939   4.392 -0.3542 -0.1228 -1.0329
52113SOL     OW63199   4.448   2.750   3.989 -0.0833 -0.3496  0.6135
52113SOL    HW163200   4.408   2.733   4.074 -0.5456 -1.6018  0.1729
52113SOL    HW263201   4.376   2.782   3.935  0.1444  0.1434  0.5918
52114SOL     OW63202   3.930   5.336   7.420  0.0180  0.0778 -0.1712
52114SOL    HW163203   3.943   5.384   7.338 -0.4006 -3.0827 -2.2757
52114SOL    HW263204   4.013   5.291   7.435 -0.3628 -0.4494  0.3777
52115SOL     OW63205   4.899   7.884   8.814  0.4405 -0.1537  0.3964
52115SOL    HW163206   4.806   7.867   8.825  0.1988 -0.7502 -2.0387
52115SOL    HW263207   4.940   7.797   8.818  0.8019  0.0314  0.7669
52116SOL     OW63208   0.239   8.344   2.863 -0.4983 -0.3859 -0.0256
52116SOL    HW163209   0.289   8.332   2.781  0.8801  0.3136  0.6718
52116SOL    HW263210   0.222   8.438   2.866 -0.5189 -0.4069  0.5017
52117SOL     OW63211   6.572  11.464  10.525  0.6731 -0.4705 -0.3282
52117SOL    HW163212   6.567  11.396  10.593 -0.0216 -0.9185 -0.8145
52117SOL    HW263213   6.497  11.446  10.468 -1.6205  2.7660  1.4045
52118SOL     OW63214   4.515   7.471   9.836  0.3944 -0.5818 -0.5399
52118SOL    HW163215   4.507   7.418   9.916 -0.0332 -1.1575 -0.9534
52118SOL    HW263216   4.446   7.438   9.778 -1.7439  2.2555  0.1685
52119SOL     OW63217   9.626   6.380   0.138  0.4271 -0.0831 -0.1372
52119SOL    HW163218   9.621   6.286   0.123  2.6000 -0.1012 -1.2113
52119SOL    HW263219   9.539   6.413   0.117 -0.1260 -1.7570 -0.6014
52120SOL     OW63220  10.843   9.045   0.968  0.1550 -0.1022  0.3521
52120SOL    HW163221  10.766   9.009   0.922 -0.2077  0.5428  0.4363
52120SOL    HW263222  10.833   9.140   0.959  1.5597 -0.0155 -0.6335
52121SOL     OW63223   9.496   8.123   6.619  0.0863 -0.1002  0.1099
52121SOL    HW163224   9.554   8.147   6.546  2.1471 -0.6622  1.4747
52121SOL    HW263225   9.411   8.160   6.595  0.8506  0.3467 -2.2264
52122SOL     OW63226   0.499  11.086  11.396  0.3099 -0.4298 -0.4473
52122SOL    HW163227   0.455  11.126  11.321  1.8724 -0.0459 -1.2098
52122SOL    HW263228   0.465  11.132  11.472  1.7504  2.1895 -1.2636
52123SOL     OW63229  11.274  11.786   7.009  0.3706  0.2047  0.0904
52123SOL    HW163230  11.328  11.750   6.939  0.6691 -1.5962  1.1610
52123SOL    HW263231  11.186  11.750   6.992 -0.3284  2.3338 -1.0956
52124SOL     OW63232  10.821   9.591   3.847 -0.8191 -0.0855  0.2106
52124SOL    HW163233  10.815   9.599   3.752 -1.1361  0.5612  0.2819
52124SOL    HW263234  10.812   9.497   3.863 -2.8877 -0.0250 -0.2697
52125SOL     OW63235   7.248   3.236   5.611 -0.0441  0.4964  0.3771
52125SOL    HW163236   7.219   3.206   5.525 -0.6467 -0.2571  0.8340
52125SOL    HW263237   7.170   3.232   5.667  0.2630  1.2929  0.8787
52126SOL     OW63238  10.097   3.165   8.084 -0.1100 -0.6691 -0.3257
52126SOL    HW163239  10.150   3.106   8.138 -0.7155  0.1143  1.2033
52126SOL    HW263240  10.119   3.142   7.994 -0.0359 -2.9518  0.2130
52127SOL     OW63241   4.847   4.544   8.233 -0.4676 -0.1722 -0.3010
52127SOL    HW163242   4.845   4.494   8.315  0.4031 -0.0038 -0.1665
52127SOL    HW263243   4.835   4.635   8.260 -1.1162 -0.2041 -0.4597
52128SOL     OW63244  11.508   6.587   7.571  0.0868  0.0829  0.3811
52128SOL    HW163245  11.552   6.560   7.490 -2.9532  0.8205 -1.6983
52128SOL    HW263246  11.564   6.553   7.641  2.4873 -1.2725 -1.9866
52129SOL     OW63247   6.324   2.410   3.649 -0.4153 -0.2029  0.5606
52129SOL    HW163248   6.240   2.449   3.671 -1.1236 -1.8965  1.0189
52129SOL    HW263249   6.368   2.400   3.734  0.4760  1.0996  0.2821
52130SOL     OW63250   0.478   9.914   5.193 -0.3220  0.7957  0.4433
52130SOL    HW163251   0.504   9.922   5.284  0.3989  2.5910  0.1188
52130SOL    HW263252   0.431   9.995   5.174  1.0308  1.2578 -1.2216
52131SOL     OW63253   8.735   2.420   9.665  0.7889  0.1508 -0.5655
52131SOL    HW163254   8.717   2.442   9.574 -0.6819  1.4148 -0.0228
52131SOL    HW263255   8.658   2.451   9.713  3.1349  3.1584  1.6367
52132SOL     OW63256   2.036  10.390   2.272 -0.0924  0.5419  0.1282
52132SOL    HW163257   2.047  10.332   2.196 -0.7192 -0.2802  0.6411
52132SOL    HW263258   1.943  10.381   2.295  0.2658  0.1511  1.4742
52133SOL     OW63259   5.442   2.067   5.767 -0.2740 -0.2002  0.2193
52133SOL    HW163260   5.522   2.104   5.728 -0.9707  0.5394 -0.5513
52133SOL    HW263261   5.462   2.059   5.860  0.4459  0.6625  0.1519
52134SOL     OW63262   0.852   4.373   2.429  0.0120 -0.0098 -0.4084
52134SOL    HW163263   0.811   4.287   2.432  0.9048 -0.4275  0.5149
52134SOL    HW263264   0.945   4.355   2.416  0.5740  0.6542  2.1691
52135SOL     OW63265   2.091  12.465  10.861  0.0749  0.1386 -0.2709
52135SOL    HW163266   2.092  12.560  10.858  1.0516  0.1226 -0.7837
52135SOL    HW263267   2.122  12.443  10.949 -1.1573  0.2837  0.2301
52136SOL     OW63268   4.479   9.530  11.782 -0.1679 -0.7565 -0.1479
52136SOL    HW163269   4.422   9.535  11.858  0.5093 -0.9608  0.3842
52136SOL    HW263270   4.567   9.523  11.818  0.5056  2.1379 -0.8938
52137SOL     OW63271   0.083  12.119  10.660  0.1087  0.0722  0.0017
52137SOL    HW163272   0.168  12.143  10.624  0.0839 -0.7495 -0.6471
52137SOL    HW263273   0.066  12.032  10.624 -0.1743 -0.5665  1.5837
52138SOL     OW63274   5.801  11.604   3.049  0.1347  0.1071 -0.2951
52138SOL    HW163275   5.839  11.598   3.137 -0.1412  0.8726 -0.1197
52138SOL    HW263276   5.867  11.564   2.992  1.7699  2.4308 -0.1510
52139SOL     OW63277  10.873   1.410   5.156 -0.2623  0.3194  0.5657
52139SOL    HW163278  10.924   1.398   5.236 -0.7911 -1.5720  0.6601
52139SOL    HW263279  10.902   1.340   5.098 -0.3085  1.3130 -0.7007
52140SOL     OW63280   0.252   6.571   2.720  0.0508  0.3822 -0.3900
52140SOL    HW163281   0.251   6.639   2.653 -1.0382  0.7397 -0.0348
52140SOL    HW263282   0.288   6.614   2.798 -1.2786  0.7789  0.0336
52141SOL     OW63283   3.628   9.021   2.073 -0.4318 -0.1208  0.3290
52141SOL    HW163284   3.674   9.105   2.062  0.9799 -0.9431 -0.3692
52141SOL    HW263285   3.582   9.030   2.156 -1.7594  1.9886 -0.5366
52142SOL     OW63286   8.250   4.829   5.461  0.2566  0.0187 -1.0040
52142SOL    HW163287   8.236   4.745   5.416  0.9085 -0.8771  0.3803
52142SOL    HW263288   8.342   4.849   5.445  1.1642 -1.4853  1.6804
52143SOL     OW63289   0.401   2.771   5.307 -0.0410  0.3060 -0.2177
52143SOL    HW163290   0.346   2.703   5.346  0.3280 -0.0779 -0.3565
52143SOL    HW263291   0.472   2.782   5.370  0.3413 -0.0275 -0.5887
52144SOL     OW63292   9.930  11.701   6.432  0.2829  0.5219 -0.1240
52144SOL    HW163293   9.961  11.779   6.479  0.5005 -1.0090  2.4839
52144SOL    HW263294   9.836  11.717   6.420  0.5575  1.7411 -0.8882
52145SOL     OW63295  11.501   5.237   3.359  0.3008 -0.4635  0.2284
52145SOL    HW163296  11.503   5.260   3.266  0.1458 -1.3580 -0.0014
52145SOL    HW263297  11.576   5.283   3.396  0.4162 -0.1667 -0.3594
52146SOL     OW63298  11.405   3.082  11.384  0.0219  0.1686 -0.0736
52146SOL    HW163299  11.381   3.156  11.439  1.6349  1.1245 -0.5969
52146SOL    HW263300  11.500   3.087  11.376 -0.0850 -0.2593 -2.4741
52147SOL     OW63301   1.168   4.119   6.921  0.0701  0.0906  0.4452
52147SOL    HW163302   1.157   4.024   6.921 -1.7775  0.2044 -1.8663
52147SOL    HW263303   1.080   4.154   6.937  0.3103  1.3527 -0.7200
52148SOL     OW63304   7.482   5.098   1.408 -0.0568 -0.0425 -0.4850
52148SOL    HW163305   7.406   5.118   1.463 -0.7523  0.3495 -1.5620
52148SOL    HW263306   7.453   5.027   1.350 -0.2513  1.3719 -2.1899
52149SOL     OW63307   1.240   9.974   4.911 -0.2477 -0.0339 -0.0309
52149SOL    HW163308   1.261  10.035   4.840 -3.0121  0.2615 -0.7117
52149SOL    HW263309   1.199  10.029   4.978 -0.0168 -0.7129  0.6831
52150SOL     OW63310   8.665   8.463   9.440  0.2294  0.2623 -0.0011
52150SOL    HW163311   8.638   8.384   9.487  0.9301 -0.3205 -0.5407
52150SOL    HW263312   8.636   8.535   9.495  0.7676 -0.3959  1.1835
52151SOL     OW63313  10.157   7.246   8.046  0.1555  0.2075  0.2489
52151SOL    HW163314  10.152   7.152   8.026 -0.0071 -0.0657  1.4819
52151SOL    HW263315  10.126   7.252   8.137  0.2626  1.4449  0.2115
52152SOL     OW63316   6.973   8.254   8.326 -0.0904 -0.7596 -0.0745
52152SOL    HW163317   6.944   8.330   8.377  0.5056  0.5675 -1.6378
52152SOL    HW263318   6.905   8.242   8.259 -0.6236 -2.1864  0.6725
52153SOL     OW63319   6.464  11.689   9.488 -0.3017  0.3725 -0.3967
52153SOL    HW163320   6.390  11.744   9.462  1.0749  2.2939 -0.4925
52153SOL    HW263321   6.510  11.671   9.406  0.8260  1.5597 -0.0737
52154SOL     OW63322  12.032   3.428   5.862 -0.3044 -0.0454  0.1687
52154SOL    HW163323  12.078   3.455   5.783  1.5492  1.2440  1.5941
52154SOL    HW263324  11.941   3.453   5.847 -0.3329 -1.3518 -2.1741
52155SOL     OW63325   3.976  11.702   4.701 -0.1000 -0.2696 -0.8805
52155SOL    HW163326   4.021  11.618   4.690  1.0259  0.5637 -3.3566
52155SOL    HW263327   4.047  11.766   4.708 -0.9429  0.6266 -0.3079
52156SOL     OW63328   7.299   1.725   9.585 -0.4765  0.1048 -0.4003
52156SOL    HW163329   7.229   1.705   9.647  1.5776 -1.7755  1.4979
52156SOL    HW263330   7.286   1.663   9.513 -0.7968 -0.1802 -0.1024
52157SOL     OW63331   0.984   7.482   9.281 -0.0417  0.3386  0.1350
52157SOL    HW163332   1.061   7.432   9.253  0.3995  0.7063  0.6610
52157SOL    HW263333   0.911   7.440   9.237  0.2830 -0.9480  0.7928
52158SOL     OW63334   6.173   1.052   5.445 -1.1869 -0.1701  0.0541
52158SOL    HW163335   6.184   1.098   5.362  0.7503 -0.6564 -0.0058
52158SOL    HW263336   6.154   1.122   5.508  1.0876  0.7204 -0.1475
52159SOL     OW63337   8.668   4.744   0.660  0.1060 -0.0948 -0.4619
52159SOL    HW163338   8.590   4.793   0.633  0.3755 -0.0885 -1.2393
52159SOL    HW263339   8.730   4.811   0.689 -0.1079 -0.0877 -0.0124
52160SOL     OW63340   3.599   7.264   7.762  0.2072 -0.2108  0.1918
52160SOL    HW163341   3.533   7.303   7.819  0.3716 -0.1579  0.3464
52160SOL    HW263342   3.666   7.232   7.821  1.1109  1.1912 -0.0409
52161SOL     OW63343  11.132  11.053   4.952  0.3545 -0.3764 -0.0540
52161SOL    HW163344  11.158  11.087   5.038  1.7250 -1.2782 -0.0649
52161SOL    HW263345  11.189  10.976   4.939  0.1085 -0.3154 -1.7216
52162SOL     OW63346   1.060   8.064   1.616  0.1584  0.2803  0.1385
52162SOL    HW163347   1.153   8.068   1.636  0.4595 -2.2488 -0.3633
52162SOL    HW263348   1.051   8.116   1.536  1.0748  0.7711  0.3362
52163SOL     OW63349   4.453   6.214   4.510 -0.2767  0.3201 -0.4726
52163SOL    HW163350   4.489   6.151   4.571  1.2514 -1.0561 -2.6641
52163SOL    HW263351   4.359   6.195   4.508 -0.3600  0.3794  1.3277
52164SOL     OW63352  11.305   4.053   5.178  0.1233  1.1129 -0.5838
52164SOL    HW163353  11.278   4.074   5.089 -2.1407  2.2166  0.2771
52164SOL    HW263354  11.400   4.039   5.172 -0.0239  0.7702 -3.1947
52165SOL     OW63355  10.969   8.447   3.270 -0.6104  0.4416 -0.3886
52165SOL    HW163356  10.944   8.404   3.352  0.7372 -0.4525 -0.4051
52165SOL    HW263357  10.920   8.529   3.270  1.0175  1.5563  2.4101
52166SOL     OW63358   1.353  10.787  12.165  0.1854  0.3910 -0.1822
52166SOL    HW163359   1.354  10.866  12.110  0.0836  0.5237  0.0029
52166SOL    HW263360   1.292  10.808  12.235  0.8287  0.4780  0.3601
52167SOL     OW63361  10.693   4.842   0.887  0.0888 -0.3192  0.4566
52167SOL    HW163362  10.696   4.937   0.899  0.4750 -0.3650  0.7165
52167SOL    HW263363  10.784   4.816   0.872 -0.1873 -0.4474 -1.2481
52168SOL     OW63364  10.243   5.835  12.379  0.0685 -0.2004 -0.1146
52168SOL    HW163365  10.152   5.864  12.377  0.2197  0.2504 -0.6543
52168SOL    HW263366  10.265   5.820  12.287  1.3663  2.3279 -0.3079
52169SOL     OW63367   8.686   5.828   1.958  0.2463 -0.2041 -0.4874
52169SOL    HW163368   8.734   5.869   2.030  0.7612 -0.4664 -0.6750
52169SOL    HW263369   8.654   5.746   1.994 -0.0617 -0.0249 -0.3591
52170SOL     OW63370   3.791  12.188  11.892 -0.1547 -0.4000 -0.5405
52170SOL    HW163371   3.753  12.171  11.806  0.3187  1.0103 -1.0538
52170SOL    HW263372   3.717  12.182  11.952 -0.2314 -3.0574 -0.7599
52171SOL     OW63373   9.394   3.599   5.526 -0.4019 -0.1621 -0.1628
52171SOL    HW163374   9.413   3.541   5.451 -0.6549 -2.5175  1.4748
52171SOL    HW263375   9.312   3.642   5.502  0.6924  0.9739 -2.1930
52172SOL     OW63376   0.736  10.200   0.898 -0.0976  0.3793 -0.1459
52172SOL    HW163377   0.748  10.105   0.900  1.0277  0.5142  0.4992
52172SOL    HW263378   0.647  10.214   0.928 -0.1391 -0.4618  0.1311
52173SOL     OW63379   7.803   9.164  10.456  0.0425  0.1166 -0.7442
52173SOL    HW163380   7.709   9.161  10.477  0.5485 -0.4451  1.7393
52173SOL    HW263381   7.813   9.243  10.403 -1.7575  0.4467 -0.6589
52174SOL     OW63382   4.976   1.421   2.327 -0.3051 -0.4990  0.3724
52174SOL    HW163383   4.960   1.463   2.412  1.9532 -2.1710  1.7345
52174SOL    HW263384   5.070   1.432   2.312 -0.1502 -2.5891 -0.5593
52175SOL     OW63385   3.013   7.349   4.757 -0.1090 -0.1301 -0.8429
52175SOL    HW163386   2.992   7.263   4.720  0.0592 -0.6850  0.3200
52175SOL    HW263387   2.975   7.348   4.844  0.5243  0.7050 -0.5464
52176SOL     OW63388   2.162   4.875  10.736 -0.3655 -0.3954 -0.5738
52176SOL    HW163389   2.244   4.893  10.692 -0.6617  1.6894 -0.3557
52176SOL    HW263390   2.187   4.853  10.826 -0.0550  1.3966 -0.1809
52177SOL     OW63391   0.630  10.306   7.731 -0.3248  0.0941  0.0537
52177SOL    HW163392   0.656  10.379   7.675 -0.0722  1.1369  1.5030
52177SOL    HW263393   0.708  10.251   7.736 -0.3555 -0.0253 -0.6095
52178SOL     OW63394  10.161   1.234   9.793  0.4402 -0.0601 -0.0762
52178SOL    HW163395  10.112   1.222   9.711  0.3087 -0.0623  0.0015
52178SOL    HW263396  10.199   1.322   9.785  0.1494  0.0743  0.0057
52179SOL     OW63397   4.750   9.636  10.837 -1.0178 -0.0713 -0.0122
52179SOL    HW163398   4.794   9.673  10.760 -0.6879  0.6352  0.5040
52179SOL    HW263399   4.721   9.712  10.887 -0.1590 -0.4912  1.1736
52180SOL     OW63400  10.219   6.599   4.141 -0.0497 -0.0403  0.5422
52180SOL    HW163401  10.143   6.568   4.191  0.6869 -0.2199  1.5842
52180SOL    HW263402  10.198   6.689   4.117 -0.6853 -0.1655  0.6147
52181SOL     OW63403   4.565   1.651   1.795  0.7665  0.7332 -0.1096
52181SOL    HW163404   4.613   1.610   1.722  0.3989  0.8031 -0.3940
52181SOL    HW263405   4.510   1.717   1.752  0.7638  0.9733  0.2642
52182SOL     OW63406   3.899   8.466   7.794 -0.1536 -0.0692  0.9678
52182SOL    HW163407   3.901   8.373   7.818  2.5011 -0.2088  0.5279
52182SOL    HW263408   3.980   8.501   7.830  0.7460  1.2174 -2.0288
52183SOL     OW63409   2.306   9.422   5.542 -0.4810  0.2131 -0.0292
52183SOL    HW163410   2.356   9.360   5.596 -0.6575 -0.0084 -0.1195
52183SOL    HW263411   2.305   9.503   5.593 -1.7903 -0.3726  0.9290
52184SOL     OW63412   1.031   7.262  12.329 -0.2879 -0.0416 -0.1576
52184SOL    HW163413   1.005   7.184  12.280 -0.4351  1.1071 -2.0310
52184SOL    HW263414   0.949   7.310  12.342 -0.2234 -0.2698  1.1291
52185SOL     OW63415   7.584   9.022   0.108 -0.2308 -0.0865 -0.5829
52185SOL    HW163416   7.523   8.956   0.075  0.0148 -0.6399  0.0394
52185SOL    HW263417   7.663   9.010   0.056 -0.3883  0.1130 -0.8690
52186SOL     OW63418  10.636  11.659  11.748 -0.1113  0.1889 -0.3209
52186SOL    HW163419  10.573  11.722  11.714 -0.3115  1.5734  2.2992
52186SOL    HW263420  10.603  11.638  11.836  0.0869 -3.4746 -0.9602
52187SOL     OW63421   5.415   7.916   2.564 -0.3144  0.0650  0.0948
52187SOL    HW163422   5.417   7.825   2.595  2.7622  0.3776  1.2131
52187SOL    HW263423   5.403   7.968   2.643 -0.2456  0.6894 -0.3007
52188SOL     OW63424   2.873   1.901  10.260 -0.0668  0.2249  0.3908
52188SOL    HW163425   2.939   1.908  10.191  0.2416 -2.0162  0.3796
52188SOL    HW263426   2.921   1.874  10.338 -0.7658 -0.0483  0.7424
52189SOL     OW63427   9.219   4.518   3.666  0.4310  0.3751 -0.1610
52189SOL    HW163428   9.287   4.527   3.734  0.2861 -1.0069  0.2060
52189SOL    HW263429   9.224   4.599   3.616  0.1224  1.7156  1.8780
52190SOL     OW63430   0.244   1.509   3.240 -0.0184  0.1981  0.2818
52190SOL    HW163431   0.297   1.451   3.294 -0.1250 -0.3273 -0.1756
52190SOL    HW263432   0.161   1.518   3.288  0.7600  1.6917  1.4220
52191SOL     OW63433   4.040   2.905   7.524 -0.4729  0.2385 -0.4382
52191SOL    HW163434   4.036   2.878   7.616  0.5655 -3.2337 -1.2559
52191SOL    HW263435   4.093   2.985   7.525 -2.1180  1.4263  2.0868
52192SOL     OW63436   4.347   1.330   5.857  0.5545  0.1996  0.1260
52192SOL    HW163437   4.300   1.406   5.892 -1.9207 -2.1319  2.3889
52192SOL    HW263438   4.303   1.310   5.775  0.6247  0.6960 -0.0340
52193SOL     OW63439   9.159   3.964   2.323 -0.0766 -0.2715  0.3845
52193SOL    HW163440   9.156   4.053   2.287  0.6605  0.1542  1.3467
52193SOL    HW263441   9.193   3.974   2.411  0.8076 -1.5966  0.2297
52194SOL     OW63442   1.940  10.549   3.917  0.5631 -0.3840 -0.0098
52194SOL    HW163443   2.016  10.570   3.971  0.5626 -0.3104 -0.0363
52194SOL    HW263444   1.865  10.553   3.977  0.5820 -0.4711  0.0193
52195SOL     OW63445   5.791   0.077   3.314  0.4574 -0.2611  0.1031
52195SOL    HW163446   5.806   0.131   3.392  0.6391 -0.3495  0.1293
52195SOL    HW263447   5.743   0.001   3.347 -1.7562  0.9035 -0.2671
52196SOL     OW63448   4.836   7.085   7.139  0.1903 -0.1819  0.0375
52196SOL    HW163449   4.752   7.086   7.185  0.3680 -0.8523  0.3854
52196SOL    HW263450   4.845   7.173   7.103 -0.6847 -0.1237 -0.0465
52197SOL     OW63451   1.381   0.251  12.170  0.0642  0.4291 -0.2250
52197SOL    HW163452   1.302   0.206  12.200  0.9315 -0.7715  0.3488
52197SOL    HW263453   1.380   0.336  12.216 -2.0106  1.4127 -1.9401
52198SOL     OW63454   5.828   2.227   7.007 -0.0696  0.1900 -0.3632
52198SOL    HW163455   5.752   2.193   7.054 -0.1924 -0.3777 -0.9529
52198SOL    HW263456   5.803   2.314   6.978 -0.7345 -0.2334 -1.0937
52199SOL     OW63457   6.513   8.860   7.043  0.0628 -0.1546  0.3488
52199SOL    HW163458   6.571   8.933   7.020  0.0644 -0.6861 -1.5039
52199SOL    HW263459   6.436   8.902   7.081  0.1492  0.8218 -0.5062
52200SOL     OW63460   9.547   0.914   7.667  0.5900 -0.1051 -0.1960
52200SOL    HW163461   9.508   0.970   7.599 -0.2613  0.0598  0.4045
52200SOL    HW263462   9.620   0.966   7.701 -0.6326  0.9906  0.8507
52201SOL     OW63463   2.167   7.259   7.372 -0.6253  0.4168  0.9206
52201SOL    HW163464   2.142   7.350   7.356  1.4776  0.8710 -0.0907
52201SOL    HW263465   2.190   7.257   7.465 -1.3013  0.7417  1.1050
52202SOL     OW63466   4.934   9.822   1.100  0.1907  0.4530  0.1204
52202SOL    HW163467   5.017   9.809   1.054  0.1522 -0.4459  0.2899
52202SOL    HW263468   4.947   9.782   1.186 -1.5630 -3.1328 -1.0821
52203SOL     OW63469   3.892   3.116   0.561  0.0193 -0.4815 -0.1711
52203SOL    HW163470   3.869   3.199   0.519 -0.4573 -1.3244 -1.6707
52203SOL    HW263471   3.915   3.140   0.651  0.6189  1.3596 -0.7673
52204SOL     OW63472   5.086   8.766   0.872 -0.2151 -0.0023 -0.4032
52204SOL    HW163473   5.158   8.770   0.809  0.8463 -2.3985  0.5475
52204SOL    HW263474   5.129   8.758   0.957 -1.6202  3.2072  0.7474
52205SOL     OW63475   9.138   0.647   2.350  0.4694 -0.7219  0.3852
52205SOL    HW163476   9.057   0.691   2.324 -0.1347  0.0733  3.2132
52205SOL    HW263477   9.159   0.684   2.436  4.2839 -0.3887 -0.5166
52206SOL     OW63478  11.113   3.591  10.670 -0.3941 -0.1707 -0.0834
52206SOL    HW163479  11.023   3.620  10.657 -0.6765 -1.2165 -0.5888
52206SOL    HW263480  11.106   3.515  10.727  0.3213  0.6335  1.1312
52207SOL     OW63481   6.223   7.102  10.016  0.5508 -0.2999  0.1725
52207SOL    HW163482   6.158   7.055  10.068  1.2699 -0.7902  0.6442
52207SOL    HW263483   6.281   7.142  10.081  0.0909  1.0838 -0.2134
52208SOL     OW63484   9.421  11.367   7.926  0.6143 -0.3747 -0.2167
52208SOL    HW163485   9.367  11.290   7.945  0.7938 -0.3597  0.3745
52208SOL    HW263486   9.366  11.421   7.869  0.3956 -0.8308 -0.4392
52209SOL     OW63487   8.863   8.486   9.655 -0.0747 -0.2148  0.2693
52209SOL    HW163488   8.847   8.577   9.630 -0.7305 -0.0763  1.1346
52209SOL    HW263489   8.927   8.454   9.592 -1.8446  0.0185 -1.7441
52210SOL     OW63490  10.765   4.550   0.106  0.4989 -0.4106 -0.5511
52210SOL    HW163491  10.728   4.544   0.194 -0.3117  1.5984 -0.6946
52210SOL    HW263492  10.749   4.464   0.068 -1.9093 -0.4090  0.2518
52211SOL     OW63493   0.782   3.785   8.684  0.5478 -0.1252  1.1257
52211SOL    HW163494   0.755   3.723   8.752  0.6496  0.6899  1.9102
52211SOL    HW263495   0.839   3.733   8.627 -0.8971 -1.2869  0.6584
52212SOL     OW63496  11.027   5.668   3.939  0.4254  0.5811  0.1794
52212SOL    HW163497  10.958   5.733   3.951  1.2371  1.1851  2.0641
52212SOL    HW263498  10.981   5.584   3.941 -0.4770  1.0172 -0.8823
52213SOL     OW63499   9.345   9.322   4.932 -0.7361  0.4970  0.1939
52213SOL    HW163500   9.278   9.255   4.917  0.2869 -0.6984  0.7607
52213SOL    HW263501   9.379   9.341   4.844 -0.2558 -0.5806  0.1349
52214SOL     OW63502  10.286   8.501   2.949  0.5771  0.2022 -0.3094
52214SOL    HW163503  10.251   8.581   2.988  0.0439  0.2468 -0.8658
52214SOL    HW263504  10.287   8.438   3.021  1.0873  0.7256  0.1548
52215SOL     OW63505   7.554   7.189  10.149 -0.0210  0.2343  0.0587
52215SOL    HW163506   7.614   7.203  10.222 -0.5059 -0.4488  0.5985
52215SOL    HW263507   7.477   7.240  10.171 -0.6178 -0.8788  0.5850
52216SOL     OW63508   1.922   3.656   1.357 -0.0441 -0.2184  0.1809
52216SOL    HW163509   1.924   3.733   1.414  0.8653 -0.2467  0.1934
52216SOL    HW263510   1.832   3.653   1.325 -0.5424 -0.1519  1.5338
52217SOL     OW63511   0.208   7.300  11.263 -0.0121  0.2180 -0.0172
52217SOL    HW163512   0.277   7.298  11.197  1.2773 -0.0920  1.2851
52217SOL    HW263513   0.252   7.332  11.342 -0.6351 -2.6146  1.6151
52218SOL     OW63514   9.217  12.331   4.300 -0.1272 -0.3365 -0.4783
52218SOL    HW163515   9.219  12.414   4.252 -0.9711  0.0817  0.1867
52218SOL    HW263516   9.216  12.356   4.392  0.3266 -1.1056 -0.2549
52219SOL     OW63517  11.448   5.534   1.364 -0.5129  0.3015  0.2686
52219SOL    HW163518  11.436   5.473   1.436  1.2919 -0.2135  0.1699
52219SOL    HW263519  11.434   5.482   1.285  0.5473  0.1009  0.1966
52220SOL     OW63520   8.079   0.236   8.805 -0.8944 -0.1352  0.1536
52220SOL    HW163521   8.133   0.157   8.801 -1.4644 -0.4860 -0.9247
52220SOL    HW263522   8.074   0.266   8.715  0.8019  2.2015  0.7312
52221SOL     OW63523   1.618   4.534   1.903 -0.4514  0.0837 -0.5800
52221SOL    HW163524   1.529   4.499   1.914  0.0011 -1.1085 -0.6400
52221SOL    HW263525   1.657   4.481   1.834  0.6254 -0.0203  0.0864
52222SOL     OW63526   1.786   5.931   0.503 -0.4030  0.5796  0.3645
52222SOL    HW163527   1.833   6.007   0.538  2.2220  0.0959 -1.7847
52222SOL    HW263528   1.723   5.969   0.442  1.6337  1.1102 -1.5276
52223SOL     OW63529   6.072   6.086   9.077 -0.0402  0.0966  0.1323
52223SOL    HW163530   5.996   6.119   9.125  0.3159 -1.7417  2.0903
52223SOL    HW263531   6.147   6.108   9.131  0.6026 -0.1665 -0.6313
52224SOL     OW63532   2.042  10.049   0.119  0.5562 -0.3522 -0.9451
52224SOL    HW163533   2.013   9.962   0.148 -1.1688 -0.5345 -2.9633
52224SOL    HW263534   2.016  10.108   0.189  0.7921 -1.3217 -0.0185
52225SOL     OW63535   0.215  10.450   9.652  0.2942  0.2271  0.0370
52225SOL    HW163536   0.194  10.540   9.678 -1.5007 -0.5950  1.6587
52225SOL    HW263537   0.131  10.405   9.651  1.3122 -1.8208  0.8159
52226SOL     OW63538   2.116  10.214   6.552  0.3411 -0.0031  0.5160
52226SOL    HW163539   2.194  10.244   6.598  0.5452  1.2486 -0.5752
52226SOL    HW263540   2.044  10.264   6.590 -0.3978 -2.7085  3.0826
52227SOL     OW63541  10.007   9.833   0.095  0.2156  0.3581 -0.1009
52227SOL    HW163542  10.067   9.856   0.023  0.1167  1.3112  0.1080
52227SOL    HW263543  10.013   9.907   0.156  2.3896 -1.5847  2.2904
52228SOL     OW63544   1.635   7.439  10.707  0.0309 -0.1698 -0.2215
52228SOL    HW163545   1.569   7.371  10.721 -1.0778  0.9102  0.0259
52228SOL    HW263546   1.609   7.509  10.767  0.6738  0.7868 -1.0390
52229SOL     OW63547   1.493  12.289  11.940  0.3942  0.1781 -0.2583
52229SOL    HW163548   1.575  12.284  11.890  0.4565 -0.1775 -0.1276
52229SOL    HW263549   1.482  12.382  11.959  1.3399  0.1302  0.6432
52230SOL     OW63550   5.768   6.572  10.494  0.3632 -0.2962 -0.0654
52230SOL    HW163551   5.716   6.499  10.528 -0.0588 -1.3835 -2.8402
52230SOL    HW263552   5.855   6.559  10.533 -0.5229 -0.3026  2.0684
52231SOL     OW63553   7.815  10.564   5.197  0.4546 -0.2246  0.3282
52231SOL    HW163554   7.729  10.578   5.158  0.6553 -0.0181 -0.0409
52231SOL    HW263555   7.859  10.501   5.140  0.8060  0.1960  0.1275
52232SOL     OW63556   2.563   5.229   5.525 -0.1457  0.5249 -0.8540
52232SOL    HW163557   2.571   5.315   5.566 -0.9827 -0.1277  0.7499
52232SOL    HW263558   2.630   5.176   5.568 -0.9283 -0.1323 -0.4172
52233SOL     OW63559   9.755   0.163   3.798  0.0251  0.3229 -0.2476
52233SOL    HW163560   9.720   0.098   3.858  0.9108 -0.7590 -0.8713
52233SOL    HW263561   9.717   0.141   3.713  1.0467  0.0259 -0.6442
52234SOL     OW63562   2.396   1.795   2.733 -0.3047 -0.2741  0.0769
52234SOL    HW163563   2.364   1.712   2.697 -0.1738 -0.5013  0.4816
52234SOL    HW263564   2.348   1.805   2.816 -1.3621  0.7521 -0.6291
52235SOL     OW63565   8.541   4.090   4.701 -0.3062 -0.1120  0.5172
52235SOL    HW163566   8.516   4.065   4.612 -0.9889 -1.4906  1.0751
52235SOL    HW263567   8.495   4.028   4.757  1.1179 -0.0788  1.7858
52236SOL     OW63568   7.379  10.287   5.421 -0.1058  0.1412 -0.3784
52236SOL    HW163569   7.313  10.224   5.451  1.6234 -1.6389 -0.0977
52236SOL    HW263570   7.367  10.291   5.326  0.2305 -1.2484 -0.5039
52237SOL     OW63571   5.858  11.238   1.632 -0.4032  0.5612 -0.1794
52237SOL    HW163572   5.822  11.234   1.543 -0.4475  2.6988 -0.3182
52237SOL    HW263573   5.863  11.332   1.651 -0.5840  0.1504  2.1607
52238SOL     OW63574   6.207   6.377  10.244 -0.5252  0.1404 -0.2831
52238SOL    HW163575   6.227   6.338  10.329  0.0600 -0.2332 -0.5856
52238SOL    HW263576   6.292   6.390  10.202 -0.8623 -1.2835 -1.5056
52239SOL     OW63577   8.843   4.491   5.602 -0.2070  0.9464 -0.1137
52239SOL    HW163578   8.852   4.585   5.620  0.2679  1.0376 -0.7973
52239SOL    HW263579   8.853   4.449   5.687 -2.0410  1.5998  0.4730
52240SOL     OW63580   8.519   8.113  12.283 -0.1246 -0.4876 -0.0125
52240SOL    HW163581   8.513   8.158  12.367 -1.4149 -2.6325  1.1441
52240SOL    HW263582   8.438   8.137  12.237 -0.6721 -1.3304  0.4824
52241SOL     OW63583   1.108   9.134   6.678 -0.3455  0.0453  0.3799
52241SOL    HW163584   1.188   9.081   6.666  0.7777  1.9863 -1.2980
52241SOL    HW263585   1.120   9.175   6.763  0.3288  0.0944  0.2729
52242SOL     OW63586   9.390   5.165   3.678  0.1567 -0.5417 -0.1224
52242SOL    HW163587   9.434   5.236   3.725  2.6950 -2.7168  0.9986
52242SOL    HW263588   9.329   5.128   3.741  0.9974 -1.1952  0.3338
52243SOL     OW63589   3.524   7.161   6.160  0.3686  0.7105  0.6688
52243SOL    HW163590   3.509   7.100   6.231  1.7060  0.6416  0.9117
52243SOL    HW263591   3.471   7.127   6.088  2.3100 -1.7260  0.2568
52244SOL     OW63592   0.076   9.441  11.875 -0.2735  0.2318 -0.0754
52244SOL    HW163593   0.071   9.534  11.897 -1.9084  0.2218 -0.2572
52244SOL    HW263594  -0.013   9.419  11.846  0.1013 -1.3754 -0.0779
52245SOL     OW63595   8.569   9.292   6.125 -0.4725  0.3308  0.2709
52245SOL    HW163596   8.646   9.309   6.070 -0.4821  0.3110  0.2510
52245SOL    HW263597   8.598   9.314   6.213  0.2871 -1.8570  0.6329
52246SOL     OW63598   1.003   7.843   4.333 -0.4708 -0.1018  0.1783
52246SOL    HW163599   0.938   7.806   4.393  1.4887 -0.7731  1.9848
52246SOL    HW263600   1.031   7.770   4.279  0.0941 -0.2218  0.6341
52247SOL     OW63601   5.819   0.805   4.520  0.3772  0.4676 -0.1300
52247SOL    HW163602   5.811   0.878   4.581  0.9212 -0.9142  1.6962
52247SOL    HW263603   5.729   0.788   4.491 -0.1457  0.2417  1.4794
52248SOL     OW63604  11.012   5.659  11.086  0.4428 -0.8808 -0.2131
52248SOL    HW163605  11.016   5.604  11.165 -1.6971 -0.9921 -0.1149
52248SOL    HW263606  11.079   5.725  11.099  0.2072 -0.9620  1.6745
52249SOL     OW63607   0.964   7.254   7.333 -0.6880 -0.3862 -0.5495
52249SOL    HW163608   1.051   7.215   7.345 -0.2750  0.4098 -0.9219
52249SOL    HW263609   0.961   7.277   7.240 -0.6771  1.0596 -0.2092
52250SOL     OW63610   9.724   1.739   1.555  0.4601 -0.2550 -0.4330
52250SOL    HW163611   9.684   1.780   1.478 -0.8623 -0.0576  0.3331
52250SOL    HW263612   9.678   1.656   1.565 -0.6984  0.5355  1.2027
52251SOL     OW63613   3.197   3.867  11.858  0.2440 -0.0549 -0.1799
52251SOL    HW163614   3.142   3.812  11.914 -0.0531  1.6747  1.3423
52251SOL    HW263615   3.271   3.812  11.834 -0.6491 -1.4796  0.2549
52252SOL     OW63616   8.882   1.385   2.097 -0.0327 -0.3560 -0.5519
52252SOL    HW163617   8.916   1.462   2.143 -0.7719 -0.6023  0.4440
52252SOL    HW263618   8.841   1.421   2.018  2.3096 -0.0449 -1.6982
52253SOL     OW63619   3.088  10.205  10.976 -0.4222 -0.1192  0.6716
52253SOL    HW163620   3.176  10.216  10.940 -1.8353  0.9803 -2.8635
52253SOL    HW263621   3.040  10.284  10.949 -2.5852 -0.7466  2.3223
52254SOL     OW63622   7.302   9.689   0.415 -0.0274 -0.3371  0.0194
52254SOL    HW163623   7.289   9.631   0.340  1.7375 -0.8727  0.0805
52254SOL    HW263624   7.333   9.771   0.377  1.3631 -0.7723  0.1504
52255SOL     OW63625  10.248   5.203   9.634 -0.3962  0.0885 -0.0217
52255SOL    HW163626  10.334   5.225   9.600 -0.9258  2.7616  0.1579
52255SOL    HW263627  10.250   5.230   9.726 -0.8589 -1.6169  0.5450
52256SOL     OW63628   3.972   6.683   2.765 -0.0294 -0.0746 -0.3986
52256SOL    HW163629   4.064   6.662   2.751  0.5671  1.3644  1.0205
52256SOL    HW263630   3.937   6.703   2.678  1.2638  0.3218 -0.8392
52257SOL     OW63631  11.969   6.178   3.460  0.4135  0.0272 -0.0639
52257SOL    HW163632  11.891   6.227   3.433  0.6197 -0.1785 -1.0905
52257SOL    HW263633  12.039   6.243   3.458  0.3294  0.1429  0.5636
52258SOL     OW63634   3.686   9.256   4.391 -0.6208  0.1353 -0.7583
52258SOL    HW163635   3.640   9.256   4.475 -1.0398  0.4572 -0.9808
52258SOL    HW263636   3.744   9.180   4.395  0.1329  0.7310  0.2334
52259SOL     OW63637   3.932  12.271   7.650  0.6608  0.7214  0.0941
52259SOL    HW163638   3.936  12.366   7.641  1.9282  0.6111 -0.6957
52259SOL    HW263639   4.021  12.241   7.634  0.4247 -0.5580  1.0222
52260SOL     OW63640   4.069  11.829   9.392 -0.3557  0.6466 -0.3143
52260SOL    HW163641   4.021  11.784   9.323 -1.0104  1.5896 -0.4901
52260SOL    HW263642   4.050  11.922   9.379  0.4075  0.9328  0.4591
52261SOL     OW63643   9.861   9.385   3.724 -0.3986 -0.0274  0.3573
52261SOL    HW163644   9.895   9.303   3.762 -0.2450  0.0266  0.3366
52261SOL    HW263645   9.793   9.357   3.664 -1.2319 -0.0696  1.3001
52262SOL     OW63646   1.173   2.211  10.363 -0.0403 -0.1259 -0.3281
52262SOL    HW163647   1.177   2.306  10.355 -0.6549 -0.0998 -0.3398
52262SOL    HW263648   1.262   2.181  10.342  0.3487  0.4953  0.4244
52263SOL     OW63649   1.034   2.368   9.141 -0.5977  0.1128  0.0149
52263SOL    HW163650   1.127   2.385   9.153 -0.5591 -0.3025  0.3038
52263SOL    HW263651   1.002   2.347   9.229 -0.3611 -2.7500 -0.4906
52264SOL     OW63652   3.175   9.071  10.454 -0.1461  0.4463 -1.0427
52264SOL    HW163653   3.167   9.123  10.374  0.7981  1.5048 -0.4819
52264SOL    HW263654   3.114   8.998  10.442 -2.2706  2.1767 -1.4676
52265SOL     OW63655   7.051   9.455  10.025 -0.1417 -0.0981  0.1097
52265SOL    HW163656   7.002   9.374  10.041  0.3469 -0.5493 -0.5629
52265SOL    HW263657   7.142   9.432  10.045  0.2705 -0.2601 -1.6905
52266SOL     OW63658  10.690  12.250  11.262 -0.2007  0.3343  0.2841
52266SOL    HW163659  10.617  12.276  11.319 -0.6541  0.7616 -0.4755
52266SOL    HW263660  10.762  12.307  11.287 -0.6213  1.0360 -0.0753
52267SOL     OW63661   6.740   8.493   1.857  0.1431  0.5170 -0.2265
52267SOL    HW163662   6.676   8.527   1.919  2.0403 -0.5004  2.4767
52267SOL    HW263663   6.689   8.472   1.779 -2.6617  0.4491  1.4861
52268SOL     OW63664   4.645   3.503  12.083 -0.5800  0.0804 -0.0709
52268SOL    HW163665   4.698   3.534  12.009 -0.6581 -1.3308 -0.7412
52268SOL    HW263666   4.700   3.519  12.160 -0.0641  0.5899 -0.5391
52269SOL     OW63667   1.074   9.640   8.713 -0.6235  0.4629  0.0033
52269SOL    HW163668   1.063   9.721   8.763  1.1600  0.4938  0.3979
52269SOL    HW263669   1.140   9.661   8.647 -0.3611 -0.5765 -0.0866
52270SOL     OW63670   8.740  10.353  10.597 -0.5129  0.9057  0.0129
52270SOL    HW163671   8.666  10.400  10.637 -1.2270  1.6194 -2.0305
52270SOL    HW263672   8.718  10.261  10.609 -1.6823  1.1068 -0.4336
52271SOL     OW63673   2.042   8.729   2.826 -0.1323  0.5895 -0.3844
52271SOL    HW163674   2.095   8.671   2.771  0.9393  2.2018 -1.1617
52271SOL    HW263675   1.957   8.687   2.831  0.9592 -1.7057  0.2310
52272SOL     OW63676   8.176   1.839   4.903 -0.4324  0.3682 -0.1482
52272SOL    HW163677   8.172   1.779   4.978  0.2200  1.0681  0.4530
52272SOL    HW263678   8.084   1.864   4.889 -0.6527 -0.3627 -0.0804
52273SOL     OW63679   4.142  10.863   6.479 -0.0949  0.3159  0.0824
52273SOL    HW163680   4.059  10.840   6.520 -0.9362  0.3255 -1.5742
52273SOL    HW263681   4.154  10.956   6.500 -0.8090  0.4718 -0.1749
52274SOL     OW63682  10.325   3.878  11.524  0.0556 -0.4281 -0.1862
52274SOL    HW163683  10.295   3.942  11.460 -0.2878 -0.4759 -0.0771
52274SOL    HW263684  10.244   3.837  11.556  0.0966  0.6983  1.4444
52275SOL     OW63685  11.416   9.381   6.311 -0.4225  0.2468  0.0271
52275SOL    HW163686  11.485   9.345   6.256 -0.2344 -0.1432  0.5110
52275SOL    HW263687  11.340   9.389   6.252 -0.3511 -0.5605 -0.1916
52276SOL     OW63688   9.184   7.784  12.144 -0.2111  0.2024 -0.6006
52276SOL    HW163689   9.178   7.867  12.192  1.9122  0.1552 -0.1358
52276SOL    HW263690   9.261   7.794  12.088 -0.2277 -1.2585 -0.9326
52277SOL     OW63691   7.628   0.960  11.179  0.3339 -0.0712 -0.9023
52277SOL    HW163692   7.580   1.007  11.247  2.1891 -0.0008  0.4271
52277SOL    HW263693   7.720   0.980  11.197  0.9692 -1.5655 -2.3153
52278SOL     OW63694   7.970   6.018   4.503  0.0021 -0.2449 -0.1876
52278SOL    HW163695   7.993   5.993   4.414 -0.4344 -0.6703 -0.1872
52278SOL    HW263696   8.047   5.996   4.555 -0.1663 -1.0764 -0.2787
52279SOL     OW63697  10.776   2.673   0.747 -0.4523  0.1759 -1.0174
52279SOL    HW163698  10.846   2.616   0.780 -0.8889  0.5193  0.5748
52279SOL    HW263699  10.726   2.617   0.687 -0.0074 -0.6708 -0.6156
52280SOL     OW63700   6.162   1.794   3.917  0.1898  0.0098  0.0177
52280SOL    HW163701   6.201   1.870   3.873 -1.0205  0.1537 -0.8909
52280SOL    HW263702   6.080   1.827   3.953  0.0515 -0.6703  0.3403
52281SOL     OW63703  10.671   1.533  11.692  0.1682  0.4407 -0.0210
52281SOL    HW163704  10.679   1.602  11.626 -1.0724  0.7045  0.0900
52281SOL    HW263705  10.579   1.508  11.690 -0.3070  1.5519  2.6589
52282SOL     OW63706   0.660   5.206   4.802  0.1713  0.1037  0.1941
52282SOL    HW163707   0.696   5.160   4.878 -0.8121 -0.2022  0.4913
52282SOL    HW263708   0.571   5.172   4.794 -0.5923  1.9551  0.4144
52283SOL     OW63709   4.724  10.486  10.504  0.0107 -0.0475 -0.1076
52283SOL    HW163710   4.757  10.576  10.507 -1.5615  0.5480  0.4477
52283SOL    HW263711   4.722  10.458  10.595 -1.4958  0.1363 -0.0691
52284SOL     OW63712   9.405   9.614  10.086  0.6547  0.4460 -0.0012
52284SOL    HW163713   9.435   9.582  10.001  2.0477 -2.1040  1.3587
52284SOL    HW263714   9.472   9.585  10.148 -1.1639  0.7182  2.2161
52285SOL     OW63715   9.168   2.336   9.244 -0.4683 -0.1175  0.2010
52285SOL    HW163716   9.085   2.327   9.291 -1.1460 -0.3339 -0.9762
52285SOL    HW263717   9.217   2.256   9.265  0.2690  0.8427  2.3866
52286SOL     OW63718   5.015   4.985   8.359  0.0847  0.1465  0.0369
52286SOL    HW163719   5.008   5.043   8.434  1.1765  1.1953 -0.6508
52286SOL    HW263720   5.107   4.989   8.333 -0.6034  1.2869 -2.4938
52287SOL     OW63721   4.568   7.331  12.103 -0.4432  0.3596  0.4176
52287SOL    HW163722   4.606   7.282  12.030  3.1973  1.4848  1.3521
52287SOL    HW263723   4.474   7.326  12.089 -0.3415 -5.2824 -0.5606
52288SOL     OW63724   6.586  11.035   0.289 -0.2467  0.1116  0.3147
52288SOL    HW163725   6.657  11.008   0.347 -0.4285 -2.0237 -0.3652
52288SOL    HW263726   6.609  11.124   0.263  1.2784  0.0959  1.4686
52289SOL     OW63727   8.286   0.010   3.434 -0.2122 -0.1022  0.0869
52289SOL    HW163728   8.332   0.024   3.517  1.7366  1.4915 -1.1857
52289SOL    HW263729   8.283  -0.086   3.425 -0.1356 -0.2975  1.7951
52290SOL     OW63730   7.014  10.554  11.772  0.8030 -0.6045 -0.6336
52290SOL    HW163731   7.054  10.623  11.718  1.0530 -0.7662 -0.6542
52290SOL    HW263732   7.088  10.499  11.799  1.0662  0.8848  1.9742
52291SOL     OW63733   5.065   5.816  10.804  0.1819  0.5637 -0.4084
52291SOL    HW163734   5.069   5.908  10.779 -0.4822  1.4956  2.5565
52291SOL    HW263735   4.982   5.807  10.850  1.2803 -0.8656  1.4821
52292SOL     OW63736   8.130   0.185   9.381  0.6517  0.1538 -0.0377
52292SOL    HW163737   8.047   0.160   9.421  0.5243  0.9677  0.2238
52292SOL    HW263738   8.169   0.246   9.444  0.7231  1.0007 -0.8871
52293SOL     OW63739   5.342   9.619   6.070  0.3332 -0.4071 -0.4819
52293SOL    HW163740   5.347   9.603   5.976 -0.2545 -0.4705 -0.5063
52293SOL    HW263741   5.249   9.636   6.087  0.4771 -0.1162  0.0414
52294SOL     OW63742   1.130   1.940  11.782 -0.1877 -0.1590  0.3503
52294SOL    HW163743   1.100   1.853  11.808  1.7582 -0.8216  0.5076
52294SOL    HW263744   1.059   1.999  11.807 -0.9592 -1.5303  1.4858
52295SOL     OW63745  10.482   5.863   7.633 -0.5042  0.0752 -0.9701
52295SOL    HW163746  10.490   5.951   7.668 -1.3751  1.1474 -3.2334
52295SOL    HW263747  10.387   5.848   7.627 -0.3928 -1.5440  0.4940
52296SOL     OW63748   4.209   7.329   9.311  0.5711 -0.5676  0.1557
52296SOL    HW163749   4.182   7.275   9.385  0.6191 -1.7434 -0.6430
52296SOL    HW263750   4.143   7.311   9.243  1.2711 -0.5650 -0.5396
52297SOL     OW63751   7.381   5.979  12.265 -0.3713 -0.3438  0.2030
52297SOL    HW163752   7.464   5.956  12.224 -1.7956  0.1476 -3.2772
52297SOL    HW263753   7.399   6.059  12.314  1.0195  0.4033 -1.4424
52298SOL     OW63754   9.408  10.284   5.105  0.3038 -0.0374  0.1734
52298SOL    HW163755   9.344  10.355   5.110  0.1604 -0.1750  0.2746
52298SOL    HW263756   9.378  10.219   5.168  0.1083 -0.4566 -0.3425
52299SOL     OW63757   4.333   7.483  11.317  0.6911  0.0510  0.2847
52299SOL    HW163758   4.264   7.468  11.380  0.8659 -1.5042  0.1417
52299SOL    HW263759   4.317   7.571  11.283 -0.0739  0.4444  1.6378
52300SOL     OW63760   9.158   9.664   4.659  0.0071 -0.8871 -0.1709
52300SOL    HW163761   9.209   9.637   4.735 -0.9654 -1.6537  0.2301
52300SOL    HW263762   9.196   9.616   4.586 -0.6617 -2.1244  0.2691
52301SOL     OW63763   6.657   2.166   6.085 -0.0297 -0.1270 -0.0117
52301SOL    HW163764   6.649   2.135   6.175  0.1494  1.3978  0.5556
52301SOL    HW263765   6.572   2.208   6.067 -0.1071 -0.5319 -0.5902
52302SOL     OW63766  12.051  11.432   4.992 -0.1322  1.0064  0.0808
52302SOL    HW163767  11.963  11.395   4.990  0.4062 -0.3239  0.4318
52302SOL    HW263768  12.110  11.357   4.985  0.9986  1.7993  0.7116
52303SOL     OW63769   0.534   2.293   1.695 -0.4826 -0.1731  0.1283
52303SOL    HW163770   0.504   2.291   1.786 -1.9224 -0.7376 -0.3251
52303SOL    HW263771   0.503   2.377   1.661 -0.9889 -0.4717 -0.1603
52304SOL     OW63772  11.149  11.588   5.828 -0.1620  0.4122 -0.0521
52304SOL    HW163773  11.090  11.579   5.753 -0.7720  0.3409  0.4210
52304SOL    HW263774  11.218  11.524   5.813 -1.1400 -0.7320  0.2360
52305SOL     OW63775   4.335   1.433   9.559  0.4580 -0.4089 -0.2192
52305SOL    HW163776   4.369   1.523   9.558  0.8243 -0.5421 -0.0424
52305SOL    HW263777   4.413   1.378   9.551  0.1258 -0.6962 -1.7901
52306SOL     OW63778   5.275   8.416   2.692  0.0131 -0.0467  0.0946
52306SOL    HW163779   5.309   8.352   2.754 -0.1663 -0.7183 -0.4796
52306SOL    HW263780   5.184   8.429   2.718  0.1857  0.3508  0.5099
52307SOL     OW63781   6.930   8.108  12.468  0.2328 -0.6025 -0.0734
52307SOL    HW163782   6.966   8.022  12.487 -0.2225 -1.0995 -1.3775
52307SOL    HW263783   7.007   8.166  12.469  0.6546 -1.1547  0.0493
52308SOL     OW63784   1.788   2.021   9.117 -0.1375 -0.6746 -0.0798
52308SOL    HW163785   1.781   1.952   9.051 -1.5063  0.0936 -0.7716
52308SOL    HW263786   1.761   1.978   9.198 -0.7225 -1.0472 -0.4581
52309SOL     OW63787  11.420  10.390   0.461 -0.7066  0.4465  0.0301
52309SOL    HW163788  11.389  10.478   0.441 -0.0874  0.2405 -2.0980
52309SOL    HW263789  11.492  10.376   0.400 -1.0774 -1.6910  0.0133
52310SOL     OW63790   2.294   9.758   8.934  0.1626 -0.0647 -0.8283
52310SOL    HW163791   2.213   9.737   8.887 -0.9377  1.3032  0.3816
52310SOL    HW263792   2.283   9.849   8.962  0.7012 -0.8108  2.1295
52311SOL     OW63793  11.281  11.542   9.543  0.0675 -0.1307 -0.1295
52311SOL    HW163794  11.319  11.544   9.631  2.5411  0.7368 -1.1320
52311SOL    HW263795  11.270  11.448   9.525  0.0594 -0.3419  0.8724
52312SOL     OW63796  10.115   4.512   1.051  0.1347 -0.5544  0.3661
52312SOL    HW163797  10.148   4.423   1.049  2.7735  0.3494 -0.2810
52312SOL    HW263798  10.116   4.536   1.144  0.8378 -0.7394  0.4104
52313SOL     OW63799   2.648   5.954   9.648 -0.2731 -0.3793 -0.1365
52313SOL    HW163800   2.595   5.966   9.727  0.5294  1.1845  0.1942
52313SOL    HW263801   2.664   6.042   9.616  1.2911 -0.8645 -0.7848
52314SOL     OW63802   8.745   4.439   8.150  0.3762 -0.0692 -0.4623
52314SOL    HW163803   8.712   4.369   8.208 -0.2897 -0.2431 -1.0288
52314SOL    HW263804   8.770   4.509   8.209  0.4038 -0.5304  0.0835
52315SOL     OW63805   8.076  11.934   7.860  0.1692  0.5962  0.0751
52315SOL    HW163806   8.129  11.885   7.797  0.7848 -1.1240  1.8535
52315SOL    HW263807   8.138  11.995   7.901  0.1402  0.5326  0.2126
52316SOL     OW63808   1.874   6.144  10.370 -0.1372 -0.2030 -0.0351
52316SOL    HW163809   1.852   6.222  10.319 -0.3839  0.3552  0.9045
52316SOL    HW263810   1.791   6.101  10.386 -0.2590  0.4425  1.1789
52317SOL     OW63811   4.294   0.758   5.965 -0.4676  0.3865 -0.1223
52317SOL    HW163812   4.234   0.746   5.891  0.3154 -1.6578 -0.4802
52317SOL    HW263813   4.245   0.726   6.041 -0.1641 -0.4992 -0.2850
52318SOL     OW63814   6.627   0.423   8.575 -0.4397  0.1097 -0.5271
52318SOL    HW163815   6.566   0.366   8.529  1.0878  0.0387 -2.6519
52318SOL    HW263816   6.606   0.511   8.544  0.6041  0.0631 -1.4276
52319SOL     OW63817   4.857   8.972   4.574  0.1070  0.0037 -0.3184
52319SOL    HW163818   4.919   8.961   4.501  1.1085 -2.2877  0.7897
52319SOL    HW263819   4.906   9.023   4.638  0.0436  0.0897 -0.3391
52320SOL     OW63820   3.504   8.492   4.474  0.3858 -0.2842  0.0626
52320SOL    HW163821   3.443   8.547   4.524  0.4358 -0.5522  0.4227
52320SOL    HW263822   3.496   8.405   4.514  2.2164  0.0280  1.2288
52321SOL     OW63823   4.609   4.325   4.981  0.1367 -0.2949  0.0334
52321SOL    HW163824   4.656   4.249   4.949 -3.7051 -2.5972 -0.7543
52321SOL    HW263825   4.585   4.302   5.071 -2.1677 -0.6904 -0.6370
52322SOL     OW63826   6.175   6.223   3.900  0.0680 -0.1241 -0.5223
52322SOL    HW163827   6.234   6.282   3.947 -0.8141 -0.1831  0.6891
52322SOL    HW263828   6.108   6.199   3.964 -0.5982 -1.0212 -1.5191
52323SOL     OW63829   8.579   0.197  10.298  0.2799  0.0496 -0.4068
52323SOL    HW163830   8.597   0.280  10.343  0.3589  0.6870 -1.5870
52323SOL    HW263831   8.618   0.131  10.355  0.4632  0.8362  0.4150
52324SOL     OW63832   7.306   6.153   4.112 -0.0590 -0.2646  0.1987
52324SOL    HW163833   7.310   6.129   4.020  2.0682  1.6198 -0.2948
52324SOL    HW263834   7.334   6.075   4.159 -0.9075 -1.1569 -0.7379
52325SOL     OW63835   8.485   1.686   5.429 -0.6351 -0.2184 -0.3430
52325SOL    HW163836   8.492   1.768   5.380  0.1265 -0.8747 -1.3902
52325SOL    HW263837   8.415   1.638   5.385 -0.6718 -0.3774 -0.1135
52326SOL     OW63838   7.222   6.824   8.295  0.3074 -0.3902 -0.0192
52326SOL    HW163839   7.248   6.915   8.309  0.1761 -0.2883 -0.4188
52326SOL    HW263840   7.292   6.772   8.335  0.1463 -0.1118  0.6212
52327SOL     OW63841   6.527   5.165   7.949 -0.4432  0.2568 -0.2284
52327SOL    HW163842   6.531   5.091   7.889 -1.7840 -0.9712  1.1184
52327SOL    HW263843   6.539   5.127   8.036 -2.0480  1.4378  0.5764
52328SOL     OW63844   6.703  12.194  11.167  0.3011  0.5462  0.6062
52328SOL    HW163845   6.666  12.114  11.205  1.3768  0.0052  0.5419
52328SOL    HW263846   6.689  12.184  11.073  0.7188  0.2743  0.5693
52329SOL     OW63847   5.826   1.670   0.728 -0.4105  0.1212  0.0548
52329SOL    HW163848   5.755   1.683   0.665  0.2512  0.8761 -0.5706
52329SOL    HW263849   5.805   1.588   0.772 -0.2039 -1.1572 -2.0946
52330SOL     OW63850   0.934   0.286  12.185  0.6099 -0.6007 -0.0249
52330SOL    HW163851   0.849   0.293  12.229 -0.8132  0.5947 -2.7297
52330SOL    HW263852   0.918   0.229  12.110  2.1833 -0.2744 -0.6627
52331SOL     OW63853   6.405  12.360   3.173 -0.4445 -0.0000 -0.2489
52331SOL    HW163854   6.489  12.323   3.148 -0.9621 -0.5920 -1.1863
52331SOL    HW263855   6.422  12.408   3.254  0.3468 -1.8949  0.7602
52332SOL     OW63856   6.814  10.430   9.883 -0.4559 -0.1616  0.1893
52332SOL    HW163857   6.796  10.376   9.806  0.1346 -0.6256  0.3687
52332SOL    HW263858   6.780  10.517   9.861 -2.0200 -0.7575  0.1478
52333SOL     OW63859   3.451   9.103   8.229  0.3247  0.3181 -0.3948
52333SOL    HW163860   3.455   9.155   8.149  0.1698 -0.1308 -0.6990
52333SOL    HW263861   3.369   9.054   8.221 -0.2111  1.0403  0.5222
52334SOL     OW63862  11.197   8.360   7.048  0.5273 -0.1567 -0.9280
52334SOL    HW163863  11.176   8.453   7.049 -0.3879 -0.3537 -0.5657
52334SOL    HW263864  11.115   8.318   7.022  0.9958 -0.8480 -1.3149
52335SOL     OW63865  11.193  11.533   7.452 -0.1546 -0.1591  0.1299
52335SOL    HW163866  11.121  11.515   7.513 -1.3978  0.9661 -0.9417
52335SOL    HW263867  11.217  11.624   7.470  0.1153 -0.1191 -0.4336
52336SOL     OW63868   3.483   3.461   4.328 -0.1676 -0.3752  0.5616
52336SOL    HW163869   3.407   3.404   4.328 -0.8885  0.5264 -0.9624
52336SOL    HW263870   3.534   3.434   4.251  0.3853 -0.1332  0.8364
52337SOL     OW63871   2.082   8.375  11.451  0.2374  0.1075 -0.4887
52337SOL    HW163872   2.051   8.308  11.390 -1.6532  0.0838  0.4098
52337SOL    HW263873   2.047   8.457  11.417  0.0885  0.2383 -0.0371
52338SOL     OW63874   4.336  11.273   8.051 -0.6013 -0.2775  0.0517
52338SOL    HW163875   4.261  11.331   8.039 -0.3535  0.2114  0.7641
52338SOL    HW263876   4.410  11.324   8.017 -0.6542 -1.0115 -1.2700
52339SOL     OW63877   8.312   1.979  10.040  0.5091 -0.7811 -0.4828
52339SOL    HW163878   8.403   2.008  10.053  0.9920 -1.9211 -1.1814
52339SOL    HW263879   8.260   2.059  10.048  1.4318 -0.2922  1.2266
52340SOL     OW63880   2.971  10.279   1.167 -0.4239  0.3241  0.2123
52340SOL    HW163881   2.925  10.268   1.084 -0.8911  0.0556  0.5035
52340SOL    HW263882   2.939  10.208   1.222 -2.1040  1.9992  1.5000
52341SOL     OW63883   1.562   4.507   1.184  0.4457 -0.6616 -0.1654
52341SOL    HW163884   1.471   4.533   1.199  0.0044 -1.2648 -1.6150
52341SOL    HW263885   1.557   4.441   1.115  2.1776  0.9719 -1.9427
52342SOL     OW63886   6.199   8.494   6.224 -0.2694  0.0225 -0.3144
52342SOL    HW163887   6.178   8.503   6.131 -0.7007  1.9899 -0.0676
52342SOL    HW263888   6.114   8.496   6.268  0.0192  1.1465  0.2326
52343SOL     OW63889   3.630   3.958   3.051 -0.2321  0.0675 -0.4993
52343SOL    HW163890   3.631   3.881   2.995  0.6626 -0.3835  0.1243
52343SOL    HW263891   3.537   3.983   3.055 -0.8377 -2.1881  0.9512
52344SOL     OW63892   5.628   3.928   3.884  0.2078 -0.4917  0.6385
52344SOL    HW163893   5.663   3.944   3.972  3.6401 -1.8813 -0.3053
52344SOL    HW263894   5.705   3.927   3.827 -1.6655 -1.5977 -2.1043
52345SOL     OW63895   2.883  12.098  10.000  0.5189 -0.3754 -0.1336
52345SOL    HW163896   2.869  12.027  10.062  1.6402 -0.7578 -0.3024
52345SOL    HW263897   2.797  12.114   9.962 -0.4855  0.6894  2.3613
52346SOL     OW63898   8.360  11.319  10.729 -1.0718  0.1435 -0.2192
52346SOL    HW163899   8.319  11.233  10.715  0.5385 -0.4610 -1.4865
52346SOL    HW263900   8.437  11.301  10.783 -2.2389  1.2414  1.9374
52347SOL     OW63901  11.494   2.236  11.170  0.3949  0.4775 -0.2129
52347SOL    HW163902  11.458   2.175  11.106 -1.0509 -0.8165  1.7197
52347SOL    HW263903  11.442   2.316  11.158  0.7170  0.5492 -1.2050
52348SOL     OW63904   6.570  12.285   4.588 -0.6905 -0.6967 -0.5782
52348SOL    HW163905   6.585  12.379   4.594 -1.7261 -0.4308 -1.6255
52348SOL    HW263906   6.629  12.256   4.518  0.6716 -1.1104  0.6993
52349SOL     OW63907  11.964   0.097  11.568 -0.0417  0.2380 -0.1171
52349SOL    HW163908  11.989   0.180  11.528 -1.7504  1.0935  0.5211
52349SOL    HW263909  11.885   0.070  11.521 -0.7105  0.0549  1.0727
52350SOL     OW63910   7.472   6.568   7.992 -0.2634  0.0189 -0.8512
52350SOL    HW163911   7.385   6.531   8.009 -0.0448  0.4874  1.5041
52350SOL    HW263912   7.527   6.491   7.975 -0.4855 -0.5628  0.8645
52351SOL     OW63913   4.240  11.556   9.707 -0.1678  0.3679  0.1131
52351SOL    HW163914   4.259  11.594   9.622  1.5643  1.8516  1.0893
52351SOL    HW263915   4.152  11.585   9.729 -0.4115  0.4180 -0.9258
52352SOL     OW63916   9.734   3.343  12.069  0.1926  0.2008 -0.0892
52352SOL    HW163917   9.818   3.364  12.110 -0.6035  1.6325  0.8954
52352SOL    HW263918   9.739   3.249  12.052  2.1758  0.3343 -0.5222
52353SOL     OW63919   9.501   8.180   5.013  0.4554  0.0364 -0.5884
52353SOL    HW163920   9.542   8.147   5.093  0.9544  0.2565 -0.7488
52353SOL    HW263921   9.534   8.269   5.004 -1.5987  0.9444  0.3308
52354SOL     OW63922   5.323   3.425   6.794 -0.2035  0.5052  0.5839
52354SOL    HW163923   5.356   3.484   6.861  0.3336 -0.4613  1.1909
52354SOL    HW263924   5.397   3.367   6.775 -1.1041 -0.8061  0.9515
52355SOL     OW63925   0.935   3.919   4.912 -0.1068  0.4382 -0.3576
52355SOL    HW163926   0.896   3.976   4.845 -0.5583 -0.3808 -0.8062
52355SOL    HW263927   0.951   3.836   4.867 -1.0705 -0.3633  0.7071
52356SOL     OW63928   6.859  10.166  10.718 -0.1640 -0.3430  0.1519
52356SOL    HW163929   6.793  10.218  10.673  0.1480  1.2104  1.4306
52356SOL    HW263930   6.868  10.206  10.804  1.8524 -1.0097  0.3117
52357SOL     OW63931   2.670   6.172   0.162 -0.0630 -0.3864 -0.3036
52357SOL    HW163932   2.580   6.200   0.149  0.2063  0.0969 -1.2123
52357SOL    HW263933   2.701   6.221   0.237  0.4784  2.0248 -1.9941
52358SOL     OW63934   3.513  10.732  10.895  0.2553 -0.3807 -0.0429
52358SOL    HW163935   3.429  10.687  10.901  0.3987 -0.5665  0.5793
52358SOL    HW263936   3.571  10.669  10.852  0.0486 -0.1970 -0.6126
52359SOL     OW63937  12.461   3.389  10.671 -0.3032  0.2790 -0.2781
52359SOL    HW163938  12.531   3.364  10.611  1.1302  0.8865  1.0878
52359SOL    HW263939  12.405   3.311  10.676  1.1216 -0.7862 -0.2387
52360SOL     OW63940   1.333   9.559   8.459 -0.8127  0.4375  0.1170
52360SOL    HW163941   1.411   9.598   8.421  0.0268 -1.0548  0.2445
52360SOL    HW263942   1.354   9.466   8.468 -2.5298  0.0292  0.3241
52361SOL     OW63943  11.995   1.285   3.160 -0.0241  0.0143  0.0973
52361SOL    HW163944  12.003   1.370   3.115  0.5776 -0.7467 -1.2838
52361SOL    HW263945  11.919   1.296   3.217  0.1505  1.5479  0.1004
52362SOL     OW63946  11.157   8.381   6.301  0.0345 -0.1863  0.2133
52362SOL    HW163947  11.162   8.399   6.207 -0.3546 -1.3982 -0.0489
52362SOL    HW263948  11.233   8.326   6.319 -0.8887 -1.5006  0.2259
52363SOL     OW63949   3.369   3.653   9.823  0.5348  0.0707 -0.1574
52363SOL    HW163950   3.431   3.594   9.865  0.5451  0.0305 -0.2287
52363SOL    HW263951   3.395   3.740   9.851  0.7617  0.0714 -0.3673
52364SOL     OW63952   3.950   9.848   0.296 -0.5705  0.2354  0.2879
52364SOL    HW163953   4.010   9.806   0.356 -0.1639  1.0648  0.4808
52364SOL    HW263954   3.868   9.799   0.305 -0.0926 -0.5512  0.4338
52365SOL     OW63955   5.792   9.200   2.794 -0.0747  0.3625 -0.6450
52365SOL    HW163956   5.798   9.185   2.888 -0.0465  0.4288 -0.6363
52365SOL    HW263957   5.872   9.159   2.758 -0.6815 -0.7568 -0.7789
52366SOL     OW63958   1.471   7.323   7.052  0.4307 -0.3288  0.2015
52366SOL    HW163959   1.379   7.344   7.072 -0.4175 -1.7123 -1.8649
52366SOL    HW263960   1.501   7.397   6.998  0.5642  0.1471  0.9165
52367SOL     OW63961   2.479   1.307   2.116 -0.5226  0.0436  0.2302
52367SOL    HW163962   2.405   1.363   2.137 -1.1272 -0.9386  0.7805
52367SOL    HW263963   2.531   1.305   2.197 -0.2872  0.1278  0.0826
52368SOL     OW63964   9.009   4.950   9.139  0.2412  0.4515 -0.1056
52368SOL    HW163965   9.102   4.960   9.121  0.5246  1.5146  1.7176
52368SOL    HW263966   8.973   5.038   9.128  0.2365  0.9402  3.0906
52369SOL     OW63967   5.375   1.613   9.237 -0.1779  0.0581 -0.2436
52369SOL    HW163968   5.284   1.589   9.223 -0.4530  0.3513  0.9355
52369SOL    HW263969   5.401   1.565   9.316  0.5354  0.3768 -0.2719
52370SOL     OW63970  11.157   3.364  11.540  0.0193  0.3490 -0.1877
52370SOL    HW163971  11.250   3.344  11.552  0.2792 -0.4860 -2.9138
52370SOL    HW263972  11.149   3.456  11.566  1.0952 -0.1555  2.1778
52371SOL     OW63973   7.558   4.186   9.105 -0.2242 -0.0040 -0.2381
52371SOL    HW163974   7.538   4.173   9.198 -1.6921 -2.9700 -0.8465
52371SOL    HW263975   7.475   4.170   9.060  0.7029  0.1843 -2.1248
52372SOL     OW63976   6.204   0.678   8.412 -0.2911 -0.6263 -0.5031
52372SOL    HW163977   6.275   0.615   8.426  0.2821 -0.2085 -1.4178
52372SOL    HW263978   6.125   0.625   8.412  0.2604 -1.5714 -2.4030
52373SOL     OW63979  10.339   8.256   1.131  0.2568  0.4458  0.4618
52373SOL    HW163980  10.347   8.203   1.210  0.3123  0.6360  0.5834
52373SOL    HW263981  10.247   8.247   1.105 -0.2135  1.8047  1.5491
52374SOL     OW63982   1.737   5.109   2.910  0.4746  0.1655  0.2003
52374SOL    HW163983   1.733   5.013   2.910  0.0726  0.1615  1.4850
52374SOL    HW263984   1.646   5.137   2.901  0.4485  0.3983  1.0938
52375SOL     OW63985   5.776  11.015   4.609  0.7795  0.1496  0.0723
52375SOL    HW163986   5.806  11.084   4.549  0.3455  1.6580  1.5172
52375SOL    HW263987   5.754  11.061   4.689  0.0505 -1.6531  0.9604
52376SOL     OW63988  11.021  11.707   8.243  0.0561  0.3910 -0.0743
52376SOL    HW163989  11.042  11.775   8.178 -0.8835  2.0388  1.2651
52376SOL    HW263990  11.107  11.679   8.275  0.5164 -0.0305 -1.5637
52377SOL     OW63991   6.822   9.741  11.078  0.6365 -0.1245  0.3336
52377SOL    HW163992   6.810   9.699  10.993  0.3442  0.8149 -0.1100
52377SOL    HW263993   6.873   9.820  11.058 -1.7862  1.6278  0.5395
52378SOL     OW63994   6.689  11.332   0.309  0.4935 -0.3269 -0.1497
52378SOL    HW163995   6.764  11.383   0.342  1.5060 -2.2653  0.7296
52378SOL    HW263996   6.724  11.283   0.235 -0.3950  0.0063 -0.8109
52379SOL     OW63997   4.849   4.750   5.064 -0.9781  0.0242  0.2082
52379SOL    HW163998   4.880   4.762   4.974 -0.9108 -0.7953  0.1134
52379SOL    HW263999   4.756   4.769   5.061 -0.5559  2.4475  0.4776
52380SOL     OW64000   2.121   6.338   9.142  0.1649 -0.1929 -0.0466
52380SOL    HW164001   2.158   6.255   9.173 -1.2408 -0.0009  2.3775
52380SOL    HW264002   2.034   6.314   9.109 -0.7193  0.3960  1.7239
52381SOL     OW64003   5.738   1.526   5.480 -0.0840 -0.1352 -0.1198
52381SOL    HW164004   5.677   1.595   5.456  0.3468  0.9175  1.5933
52381SOL    HW264005   5.814   1.572   5.517  0.0635 -1.4924  1.4162
52382SOL     OW64006   1.611  10.828   1.912 -0.1357  0.2633  0.4335
52382SOL    HW164007   1.562  10.847   1.831 -1.1761  0.4157  1.0769
52382SOL    HW264008   1.606  10.733   1.921  0.7142  0.1576 -0.1182
52383SOL     OW64009   0.309   5.623   3.298 -1.3701  0.1370 -0.8200
52383SOL    HW164010   0.225   5.604   3.257 -1.5136 -0.1063 -0.4237
52383SOL    HW264011   0.324   5.716   3.282 -1.5752  0.1138 -1.1451
52384SOL     OW64012   6.127   4.051   0.874 -0.2915 -0.5936 -0.0990
52384SOL    HW164013   6.138   4.137   0.914 -1.7433  0.0380 -0.9512
52384SOL    HW264014   6.162   4.061   0.786 -0.5174 -0.8560 -0.2203
52385SOL     OW64015  10.251  10.869   7.719 -0.4618  0.0216 -0.1477
52385SOL    HW164016  10.310  10.827   7.781  1.4504  3.7413  0.8615
52385SOL    HW264017  10.189  10.917   7.773  1.1228  3.1859 -0.8867
52386SOL     OW64018   0.538  10.660   4.052 -0.1068  0.0546 -0.0095
52386SOL    HW164019   0.497  10.665   3.966 -1.3472  0.6775  0.5894
52386SOL    HW264020   0.486  10.718   4.107 -0.1554 -1.3320  1.4928
52387SOL     OW64021   1.258  10.142   5.816  0.1586  0.0269  0.3151
52387SOL    HW164022   1.234  10.108   5.730  0.0917  0.3930  0.1885
52387SOL    HW264023   1.322  10.211   5.798  0.1434  0.1077  0.5607
52388SOL     OW64024   0.303   4.306  11.421 -0.5086 -0.4106  0.2258
52388SOL    HW164025   0.391   4.283  11.450  1.3440 -0.1331 -4.3556
52388SOL    HW264026   0.256   4.223  11.419  0.7419 -1.1305 -0.4019
52389SOL     OW64027   6.882  11.237   8.186 -0.7317 -0.0811 -0.5372
52389SOL    HW164028   6.822  11.162   8.180  0.7515 -1.5521  1.5424
52389SOL    HW264029   6.833  11.301   8.238 -1.4637 -0.1710 -1.0875
52390SOL     OW64030   6.659   4.884   7.479  0.4064 -0.1361  0.2009
52390SOL    HW164031   6.680   4.846   7.393  2.0313 -0.5798  0.7577
52390SOL    HW264032   6.665   4.979   7.464 -1.2749 -0.1176 -0.6145
52391SOL     OW64033   9.432   9.690  11.759  0.9462 -1.2417 -0.4592
52391SOL    HW164034   9.520   9.699  11.796  0.4031  1.9407  0.3909
52391SOL    HW264035   9.438   9.734  11.674  0.0721 -0.5713 -0.1767
52392SOL     OW64036   1.968   7.357   2.833  0.1199  0.4132 -0.0986
52392SOL    HW164037   1.956   7.429   2.771 -0.6095  0.7601  0.4284
52392SOL    HW264038   1.900   7.370   2.899 -0.8920 -1.5297 -0.6942
52393SOL     OW64039   7.049   6.206   9.601  0.8101 -0.0938 -0.2648
52393SOL    HW164040   7.130   6.246   9.632  1.4608 -1.3108 -0.3288
52393SOL    HW264041   7.066   6.188   9.508  0.3471 -0.0571 -0.3578
52394SOL     OW64042   1.497   4.293  12.333  0.1399  0.2581 -0.5123
52394SOL    HW164043   1.477   4.368  12.277 -0.6379 -0.1114 -0.7437
52394SOL    HW264044   1.470   4.321  12.420  3.0201  1.5258  0.0924
52395SOL     OW64045   2.016   9.488   1.189  0.0202 -0.3017 -0.1776
52395SOL    HW164046   2.078   9.546   1.233  1.1351 -0.1765 -1.8285
52395SOL    HW264047   1.937   9.541   1.177  0.4956  0.3778 -0.3099
52396SOL     OW64048  10.426  10.250   1.103  0.0858 -0.1279  0.7237
52396SOL    HW164049  10.383  10.288   1.180  0.9027 -1.3041  1.8166
52396SOL    HW264050  10.423  10.319   1.037 -0.2833  1.0815  1.9481
52397SOL     OW64051   6.630   5.911   8.336 -0.1240 -0.0906 -0.2115
52397SOL    HW164052   6.632   5.923   8.431  5.3550 -1.5850  0.2064
52397SOL    HW264053   6.594   5.993   8.302  0.1794  1.5661  3.0421
52398SOL     OW64054   1.623  11.068   2.268  0.1498 -0.4447  0.0149
52398SOL    HW164055   1.693  11.090   2.329 -0.0004 -0.4582  0.1933
52398SOL    HW264056   1.658  11.091   2.182 -0.0604  0.6738  0.2092
52399SOL     OW64057  11.649   2.799   2.631 -0.0602 -0.2591  0.3184
52399SOL    HW164058  11.688   2.759   2.553 -1.3245  1.4614 -1.2877
52399SOL    HW264059  11.708   2.870   2.653  0.8231 -1.3487  1.5951
52400SOL     OW64060   5.692  11.826   6.473 -0.2735  0.2097 -0.5835
52400SOL    HW164061   5.605  11.793   6.450  0.1251 -1.0964 -0.3108
52400SOL    HW264062   5.678  11.918   6.493 -1.5016  0.1531 -1.0747
52401SOL     OW64063   9.625  12.129  12.312  0.1148 -0.4577 -0.2603
52401SOL    HW164064   9.570  12.208  12.312 -0.8605 -1.0913  0.7796
52401SOL    HW264065   9.715  12.162  12.313 -0.2721  0.6699  1.1361
52402SOL     OW64066   3.677   4.338   7.848  0.3897  0.1340  0.4286
52402SOL    HW164067   3.613   4.366   7.913  0.4744 -0.3347  0.7104
52402SOL    HW264068   3.624   4.297   7.779  0.3605  0.0238  0.5165
52403SOL     OW64069  11.574   0.609  10.619 -0.0646  0.2804 -0.1259
52403SOL    HW164070  11.554   0.542  10.554 -0.5416  1.3673 -1.1490
52403SOL    HW264071  11.653   0.652  10.585 -0.0610  0.5675  0.2375
52404SOL     OW64072   0.248   8.550   0.675 -0.2105 -0.3599  0.5459
52404SOL    HW164073   0.285   8.474   0.721  0.4154 -0.8077 -0.6329
52404SOL    HW264074   0.156   8.528   0.663 -0.0796 -0.8525  0.3916
52405SOL     OW64075   3.298  11.313   0.705 -0.0716 -0.3272 -0.6690
52405SOL    HW164076   3.238  11.313   0.630  0.8236 -0.7068 -1.3935
52405SOL    HW264077   3.377  11.271   0.673  1.5172  2.2880 -0.4398
52406SOL     OW64078  11.996   9.039   7.788 -0.0253  0.3298  0.1496
52406SOL    HW164079  12.004   8.944   7.780 -0.3130  0.4632 -3.9781
52406SOL    HW264080  11.910   9.052   7.827  1.0075 -0.9541  3.2253
52407SOL     OW64081  10.821   8.500   9.580 -0.1647 -0.5242 -0.3456
52407SOL    HW164082  10.867   8.417   9.591 -0.5927 -0.7778 -0.4770
52407SOL    HW264083  10.891   8.565   9.571  0.1751 -0.8178  0.1327
52408SOL     OW64084   5.318   1.406  10.897  0.1784 -0.6712 -0.0500
52408SOL    HW164085   5.407   1.433  10.877 -0.1304  1.3058  0.9458
52408SOL    HW264086   5.291   1.352  10.823  2.2906 -1.5969 -0.2080
52409SOL     OW64087  10.188   6.117  10.097  0.2016 -0.5516  0.0662
52409SOL    HW164088  10.128   6.053  10.058 -0.0746 -0.1189 -0.2270
52409SOL    HW264089  10.135   6.196  10.108  0.4546 -0.4701  0.7179
52410SOL     OW64090  11.946   3.259   6.260  0.1200 -0.0065  0.3287
52410SOL    HW164091  11.929   3.185   6.201  1.1047  0.3663 -0.4610
52410SOL    HW264092  11.863   3.273   6.306 -0.3674 -0.9733 -0.2143
52411SOL     OW64093   5.675   9.564  10.651  0.0380 -0.0859 -0.6860
52411SOL    HW164094   5.658   9.657  10.642  0.9086  0.0811 -0.7171
52411SOL    HW264095   5.605   9.531  10.706 -0.1241  0.6374 -0.4584
52412SOL     OW64096   5.230   0.319   6.618 -0.2073  0.0711 -0.1589
52412SOL    HW164097   5.305   0.289   6.568  0.7094 -0.4531  1.4370
52412SOL    HW264098   5.243   0.414   6.626 -0.3756  0.1635 -0.8960
52413SOL     OW64099   2.342   4.718   4.120 -0.0577 -0.2237 -0.1405
52413SOL    HW164100   2.334   4.702   4.214  0.8550  0.0325 -0.0135
52413SOL    HW264101   2.253   4.738   4.092 -0.2865  0.0272  0.7352
52414SOL     OW64102   4.631   9.080   6.497  0.4069  0.6484  0.0289
52414SOL    HW164103   4.646   9.147   6.430 -1.1162  0.2129 -0.7919
52414SOL    HW264104   4.688   9.106   6.570  0.3333  2.4850 -0.5099
52415SOL     OW64105   6.313   6.846  12.373 -0.2913 -0.0568 -0.0904
52415SOL    HW164106   6.351   6.934  12.376 -1.4627  0.4592  0.6805
52415SOL    HW264107   6.219   6.862  12.360 -0.6290 -1.1598  0.8613
52416SOL     OW64108   7.025   2.330   3.313  0.1155 -0.5903  0.4792
52416SOL    HW164109   7.080   2.291   3.245 -0.4771 -0.7923  0.1098
52416SOL    HW264110   7.082   2.336   3.389  0.6844 -0.6924  0.0698
52417SOL     OW64111   7.490   2.567   4.688 -0.1724 -0.2471  0.0761
52417SOL    HW164112   7.532   2.647   4.658  0.3270 -0.9809 -1.2500
52417SOL    HW264113   7.551   2.529   4.751 -1.1697  1.2352  2.0431
52418SOL     OW64114   7.016   0.439  10.538  0.2525 -0.4353  0.3819
52418SOL    HW164115   7.048   0.399  10.456  0.0978  0.1692  0.0243
52418SOL    HW264116   6.928   0.469  10.517  0.9777  1.6723  0.1015
52419SOL     OW64117   9.810   9.049   2.986 -0.0942  0.4364  0.6274
52419SOL    HW164118   9.794   8.981   2.921  0.4335 -0.0453  0.9851
52419SOL    HW264119   9.778   9.130   2.946  0.4714  0.1968 -0.3344
52420SOL     OW64120   7.210   8.004   1.678 -0.2893  0.4969  0.4410
52420SOL    HW164121   7.299   7.969   1.689 -0.3641  0.0321 -0.3812
52420SOL    HW264122   7.206   8.031   1.586 -0.8914  0.8246  0.5592
52421SOL     OW64123  11.826   2.381   1.948 -0.4382 -0.1380 -0.0502
52421SOL    HW164124  11.871   2.465   1.944 -1.1795  0.2801  0.2194
52421SOL    HW264125  11.830   2.356   2.040  0.0892 -0.5852 -0.1830
52422SOL     OW64126   6.336   5.068  10.961  0.1687  0.0321  0.3554
52422SOL    HW164127   6.248   5.031  10.960 -0.7486  1.9281  2.5934
52422SOL    HW264128   6.334   5.136  10.895  0.4627 -0.8659 -0.6128
52423SOL     OW64129  10.606   1.954   3.222  0.2825 -0.2523 -0.0013
52423SOL    HW164130  10.659   1.936   3.300  0.5123 -0.4102 -0.1914
52423SOL    HW264131  10.524   1.907   3.238  1.4306 -2.8332 -1.1558
52424SOL     OW64132   4.047   2.511   7.586 -0.0506  0.3412 -0.2442
52424SOL    HW164133   4.107   2.452   7.541 -0.6312 -0.7940  0.4302
52424SOL    HW264134   4.096   2.593   7.594  0.3870  0.3178 -2.1264
52425SOL     OW64135   9.271   3.864   4.622 -0.0536  0.2438 -0.0179
52425SOL    HW164136   9.237   3.919   4.692  0.4796  0.4819  0.0642
52425SOL    HW264137   9.356   3.833   4.655 -0.7683 -1.4256  0.3437
52426SOL     OW64138  10.345   2.379   3.223  1.5264  0.5028  0.0316
52426SOL    HW164139  10.351   2.418   3.136  1.1215  0.1502 -0.1607
52426SOL    HW264140  10.414   2.313   3.225  1.0182 -0.0554 -0.3286
52427SOL     OW64141  11.682   0.749   6.175  0.0871  0.4960 -0.1316
52427SOL    HW164142  11.604   0.727   6.226  0.7391 -1.4950  0.1024
52427SOL    HW264143  11.648   0.778   6.090 -0.9240  0.0632  0.1053
52428SOL     OW64144  10.745  11.500   0.886 -0.3781 -0.3657  0.0884
52428SOL    HW164145  10.719  11.591   0.903  1.8039  0.1622  0.8681
52428SOL    HW264146  10.694  11.449   0.949 -1.1356  0.3717  0.0959
52429SOL     OW64147   9.720   0.902   9.102 -0.1122 -0.1552  0.2639
52429SOL    HW164148   9.630   0.874   9.122 -0.5482  2.0631  1.7892
52429SOL    HW264149   9.773   0.865   9.172 -0.1652  0.1740  0.4780
52430SOL     OW64150   5.172   0.779   7.322  0.7229  0.3426  0.0559
52430SOL    HW164151   5.120   0.791   7.401  0.0626 -1.3637 -0.0775
52430SOL    HW264152   5.263   0.779   7.353  0.4262 -2.7670  1.2776
52431SOL     OW64153   6.697   1.438   4.678 -0.3363 -0.3665  0.3409
52431SOL    HW164154   6.717   1.402   4.591  0.4145 -0.8331  0.6914
52431SOL    HW264155   6.783   1.462   4.714 -0.4997 -1.3233  1.4384
52432SOL     OW64156   6.876   3.170  11.072  0.0027 -0.2426  0.1348
52432SOL    HW164157   6.868   3.083  11.033 -0.2159 -0.2113  0.1079
52432SOL    HW264158   6.809   3.222  11.028  0.3800  0.0359 -0.1123
52433SOL     OW64159   8.470   4.672   6.951 -0.3689 -0.2547 -0.0349
52433SOL    HW164160   8.395   4.729   6.967  0.8274  1.2556  0.5620
52433SOL    HW264161   8.506   4.655   7.038 -0.9395 -2.3184 -0.1693
52434SOL     OW64162   5.862   9.230   7.068  0.0826  0.0300 -0.4220
52434SOL    HW164163   5.927   9.269   7.009 -0.1872  0.4152 -0.4731
52434SOL    HW264164   5.913   9.195   7.141  0.2941  1.0036 -0.0873
52435SOL     OW64165   1.249   5.373   7.066 -0.1522  0.4027 -0.3913
52435SOL    HW164166   1.281   5.283   7.057 -0.6977  0.2078 -0.4528
52435SOL    HW264167   1.327   5.428   7.058 -0.2361  0.2040 -4.6414
52436SOL     OW64168   6.968   4.939   6.066 -0.1081 -0.3094  0.3249
52436SOL    HW164169   6.950   4.989   5.986  1.3882 -0.0871  0.0955
52436SOL    HW264170   6.895   4.960   6.124 -0.7107  0.3026 -0.6172
52437SOL     OW64171   3.491   7.400   8.752 -0.0737  0.2383  0.4770
52437SOL    HW164172   3.490   7.332   8.820  2.3064 -0.9822 -0.6050
52437SOL    HW264173   3.413   7.382   8.699 -0.4771 -0.4574  1.2781
52438SOL     OW64174   9.364   9.956   0.956  0.1201 -0.3879  0.0576
52438SOL    HW164175   9.453   9.922   0.962  0.3137  0.1516  0.4017
52438SOL    HW264176   9.333   9.928   0.870  1.0875  0.4856 -0.6108
52439SOL     OW64177   5.238   1.283  11.506 -0.0970  0.0966  0.2033
52439SOL    HW164178   5.223   1.217  11.573 -0.8468  0.5512  0.5050
52439SOL    HW264179   5.261   1.362  11.555  0.2545  0.1990 -0.1224
52440SOL     OW64180   0.445   6.064   1.872  0.1974  0.0676  0.1861
52440SOL    HW164181   0.500   6.045   1.947  0.7514 -0.2451 -0.2882
52440SOL    HW264182   0.500   6.118   1.815  0.1422 -0.5262 -0.4465
52441SOL     OW64183  11.136   0.659   4.003 -0.0794  0.0548  0.0149
52441SOL    HW164184  11.221   0.681   4.041  0.8035 -1.3650 -1.0491
52441SOL    HW264185  11.117   0.733   3.945  0.4046  0.4094  0.2950
52442SOL     OW64186   8.857   2.233  12.336  0.0537  0.0385  0.2156
52442SOL    HW164187   8.924   2.172  12.305 -0.9037  0.0161 -2.0278
52442SOL    HW264188   8.884   2.318  12.302  0.0230  0.4045  1.0925
52443SOL     OW64189   9.766   6.051   3.327 -0.3888 -0.2277  0.4035
52443SOL    HW164190   9.829   5.982   3.308 -0.5305 -0.0263 -0.8830
52443SOL    HW264191   9.706   6.013   3.391 -0.0766 -1.0652  0.2037
52444SOL     OW64192  12.131   2.964   0.878  0.0788 -0.4273  0.2604
52444SOL    HW164193  12.225   2.969   0.864  0.3704 -1.1676  1.8274
52444SOL    HW264194  12.097   2.925   0.797  1.3004 -1.6130  0.2835
52445SOL     OW64195   3.104   2.337   0.090  0.0093 -0.8513 -0.1732
52445SOL    HW164196   3.158   2.392   0.033  0.0991 -1.1324 -0.3590
52445SOL    HW264197   3.159   2.262   0.111 -0.7969 -1.8643 -1.5322
52446SOL     OW64198   8.639   7.609   7.015  0.0637 -0.2007 -0.4383
52446SOL    HW164199   8.554   7.648   6.994  0.8740  0.5611 -2.6155
52446SOL    HW264200   8.620   7.517   7.030 -1.0535 -0.2506 -1.9182
52447SOL     OW64201   7.433   4.929  11.794 -0.9771 -0.3502  0.7335
52447SOL    HW164202   7.486   4.850  11.781 -0.7331 -0.1771  0.6669
52447SOL    HW264203   7.346   4.906  11.761 -1.1114 -0.8341  1.3915
52448SOL     OW64204   8.603   8.207   9.583  0.0095 -0.1459  0.7458
52448SOL    HW164205   8.598   8.266   9.659  2.1088  1.2020 -0.0573
52448SOL    HW264206   8.518   8.214   9.541 -0.1198  1.6225  1.2160
52449SOL     OW64207   7.157   2.040   0.703  0.9400  0.9063 -0.0757
52449SOL    HW164208   7.126   1.961   0.746  1.5021 -0.3863 -1.9073
52449SOL    HW264209   7.106   2.111   0.743 -0.6876 -0.5479  0.5504
52450SOL     OW64210   2.075   7.831   7.101 -0.0352  0.0488  0.1043
52450SOL    HW164211   2.061   7.912   7.150 -1.6643 -1.1447  1.7788
52450SOL    HW264212   2.079   7.763   7.168 -1.5792 -1.5865 -1.3460
52451SOL     OW64213   5.576   5.978   4.677 -0.6340  0.4116 -0.3604
52451SOL    HW164214   5.540   5.965   4.589  0.3163  1.7262 -0.9728
52451SOL    HW264215   5.652   5.920   4.681 -1.7474 -1.0711  0.3144
52452SOL     OW64216   1.196   7.813   2.901  0.2405  0.0918 -0.3185
52452SOL    HW164217   1.248   7.757   2.844 -0.7455 -1.5957  0.3574
52452SOL    HW264218   1.177   7.890   2.848 -0.8205 -1.5051 -2.4241
52453SOL     OW64219   4.406   0.916   6.266  0.2817 -0.3009 -0.0152
52453SOL    HW164220   4.362   0.929   6.350  0.7131 -2.6277  0.6436
52453SOL    HW264221   4.361   0.975   6.205 -0.9726  0.3922  1.5238
52454SOL     OW64222   6.720   1.909   4.321  0.4212 -0.2295  0.4380
52454SOL    HW164223   6.690   1.993   4.285 -1.5559 -0.6905  0.8632
52454SOL    HW264224   6.639   1.858   4.333  1.4012 -1.5671  1.7552
52455SOL     OW64225   3.746  10.514   9.023 -0.1065 -0.3381  0.0523
52455SOL    HW164226   3.776  10.500   9.113 -3.1245 -0.9777  1.0476
52455SOL    HW264227   3.672  10.574   9.031  1.0125  1.5256 -2.3180
52456SOL     OW64228   5.834   8.172   8.265  0.5546  0.5072 -0.1397
52456SOL    HW164229   5.892   8.188   8.190  0.7710 -1.0535 -0.3540
52456SOL    HW264230   5.855   8.241   8.327  1.9067  0.5815 -0.6418
52457SOL     OW64231   5.766  11.803   1.709  0.6858  0.2444 -0.8554
52457SOL    HW164232   5.810  11.868   1.764  1.2315 -0.1789 -0.7845
52457SOL    HW264233   5.801  11.819   1.621 -0.4264  1.1315 -1.1525
52458SOL     OW64234   6.945  10.570   5.487 -0.2332  0.2816  0.4113
52458SOL    HW164235   6.984  10.513   5.421 -0.8345  0.2565  0.0667
52458SOL    HW264236   6.945  10.518   5.567 -1.8467 -0.6670 -0.1618
52459SOL     OW64237   8.874   0.595  10.688  0.3295  0.6468  0.1266
52459SOL    HW164238   8.890   0.507  10.655 -1.6851  1.0509 -2.2361
52459SOL    HW264239   8.945   0.612  10.750  2.3266 -1.5613 -1.4383
52460SOL     OW64240   9.449   3.894   6.634 -0.2220  0.8132 -0.3020
52460SOL    HW164241   9.537   3.875   6.601 -1.1395  1.0547 -3.1189
52460SOL    HW264242   9.410   3.808   6.648 -0.7442  0.6104 -2.6705
52461SOL     OW64243   1.170   6.342   1.770 -0.1252  0.3767 -0.4293
52461SOL    HW164244   1.104   6.326   1.702  0.6040 -2.4391 -0.5891
52461SOL    HW264245   1.131   6.307   1.850  0.0410  1.3381  0.0788
52462SOL     OW64246   6.070   8.945   3.531 -0.0724 -0.0356 -0.0969
52462SOL    HW164247   6.043   8.880   3.465 -0.0550  0.2777 -0.4130
52462SOL    HW264248   6.057   9.029   3.489 -0.9023  0.2067  0.6241
52463SOL     OW64249  10.999   4.206   4.450 -0.2223 -0.2587 -0.2939
52463SOL    HW164250  10.972   4.195   4.541  0.1400 -0.6085 -0.2271
52463SOL    HW264251  11.094   4.195   4.451 -0.1041  0.5916 -0.5818
52464SOL     OW64252  11.629   5.029   4.656 -0.0701  0.9613 -0.2865
52464SOL    HW164253  11.660   5.037   4.566  1.4352  0.5502  0.1675
52464SOL    HW264254  11.554   4.971   4.651  0.9582 -0.3568 -1.1116
52465SOL     OW64255   2.551   7.031   6.687  0.5416 -0.1558 -0.0086
52465SOL    HW164256   2.558   6.937   6.668  0.7338 -0.2159  0.3489
52465SOL    HW264257   2.641   7.058   6.705  0.2202 -0.4366  2.3359
52466SOL     OW64258   5.787   0.781   2.349  0.0853 -0.1108 -0.3924
52466SOL    HW164259   5.793   0.851   2.283  0.0265 -0.0403 -0.3228
52466SOL    HW264260   5.778   0.701   2.297 -0.1892 -0.0332 -0.4678
52467SOL     OW64261   1.474   6.646   5.625 -0.0759 -0.4409 -0.7199
52467SOL    HW164262   1.418   6.670   5.699  0.5048 -0.2287 -0.3478
52467SOL    HW264263   1.412   6.628   5.554 -0.5633  1.5469 -0.8483
52468SOL     OW64264   8.453   9.049   1.699 -0.5594  0.0130  0.5974
52468SOL    HW164265   8.490   9.037   1.611 -2.2535 -1.2958 -0.0066
52468SOL    HW264266   8.491   8.979   1.751 -0.0648  0.3826  0.7386
52469SOL     OW64267   2.424  10.736   1.493  0.6965  0.4486 -0.3917
52469SOL    HW164268   2.337  10.776   1.494  1.1856  1.5745 -0.6914
52469SOL    HW264269   2.445  10.721   1.585  0.2746  0.3722 -0.3072
52470SOL     OW64270   0.467   4.118   8.325  0.0713  0.4113  0.5361
52470SOL    HW164271   0.385   4.150   8.364 -0.3591 -0.4121  0.3117
52470SOL    HW264272   0.484   4.035   8.368  0.4361  0.2528  0.0975
52471SOL     OW64273   7.451   9.564   3.569 -0.1908 -0.0261  0.1027
52471SOL    HW164274   7.462   9.487   3.625 -0.4653  0.8690  1.4560
52471SOL    HW264275   7.538   9.604   3.565 -0.4629  0.7307  1.1861
52472SOL     OW64276   6.335   6.903   7.405 -0.1982 -0.3398  0.0656
52472SOL    HW164277   6.239   6.900   7.404 -0.1905 -0.4693 -0.7220
52472SOL    HW264278   6.361   6.812   7.391  0.0315  0.0275 -2.1882
52473SOL     OW64279   9.531   3.026   0.741  0.4780 -0.0772 -0.2945
52473SOL    HW164280   9.464   2.988   0.796  0.1269  1.8980  0.7482
52473SOL    HW264281   9.603   2.963   0.743 -1.0166 -1.8983 -0.8661
52474SOL     OW64282   6.522  10.231   4.944 -0.0381 -0.1712  0.3628
52474SOL    HW164283   6.578  10.277   5.006  0.2559  1.6086 -1.1169
52474SOL    HW264284   6.581  10.206   4.873 -0.8360  0.4691 -0.5568
52475SOL     OW64285  12.275   9.218   3.076  0.1922 -0.0234 -0.1077
52475SOL    HW164286  12.274   9.295   3.133  0.4078  0.9767 -1.4125
52475SOL    HW264287  12.188   9.181   3.087 -0.1640  0.8069  0.0163
52476SOL     OW64288   6.924   2.869  11.573 -0.2330  0.1639 -0.2007
52476SOL    HW164289   6.977   2.791  11.553 -0.2608 -0.2793  1.3212
52476SOL    HW264290   6.969   2.941  11.529  1.4012 -0.2742  0.6657
52477SOL     OW64291   1.472  10.754  11.363  0.1720  0.1501 -0.4894
52477SOL    HW164292   1.397  10.780  11.310  0.1830  0.9416 -0.1262
52477SOL    HW264293   1.538  10.822  11.346  0.0262  0.6497  0.8554
52478SOL     OW64294   4.371   7.654   6.654  0.0236 -0.6406 -0.0796
52478SOL    HW164295   4.275   7.654   6.662 -0.0992 -1.9037 -1.1457
52478SOL    HW264296   4.387   7.687   6.566  0.5931 -0.2081  0.1837
52479SOL     OW64297  12.219   6.027   2.728 -0.3216 -0.2224 -0.7149
52479SOL    HW164298  12.276   6.100   2.704  0.9875 -0.1072  2.2996
52479SOL    HW264299  12.173   6.005   2.648  2.4765  1.0297 -2.8256
52480SOL     OW64300   6.327   4.347   8.791 -0.0006 -0.3879 -0.1709
52480SOL    HW164301   6.295   4.265   8.829 -0.2372 -0.0182  0.4463
52480SOL    HW264302   6.398   4.374   8.849 -1.1907  0.8344  0.7850
52481SOL     OW64303   5.955   3.919   9.298 -0.3531  0.9353  0.1360
52481SOL    HW164304   5.954   4.000   9.247  1.4813  1.1249  0.3513
52481SOL    HW264305   5.919   3.944   9.383  2.7183  2.2936  1.1786
52482SOL     OW64306  11.788   2.412   5.276  0.0631  0.2102  0.3995
52482SOL    HW164307  11.864   2.389   5.329 -0.0779  0.2276  0.6099
52482SOL    HW264308  11.724   2.445   5.339 -0.1736  0.0560  0.2423
52483SOL     OW64309  11.483   2.323   6.873 -0.5697 -0.0152  0.0137
52483SOL    HW164310  11.413   2.367   6.923  0.4381 -0.8660  2.3281
52483SOL    HW264311  11.561   2.375   6.892  0.0334 -0.9635  0.1837
52484SOL     OW64312   1.482   4.273   8.741  0.0704 -0.3638 -0.4773
52484SOL    HW164313   1.471   4.231   8.656 -0.2309  0.0822 -0.6589
52484SOL    HW264314   1.568   4.316   8.736 -0.0734 -0.0931 -0.6654
52485SOL     OW64315   8.551  11.429   0.577  0.1082 -0.4137 -0.6283
52485SOL    HW164316   8.587  11.418   0.665  2.0506 -1.4873 -1.4821
52485SOL    HW264317   8.459  11.407   0.586  0.2206 -0.2869  1.1779
52486SOL     OW64318   8.892   3.819   9.485  0.1411  0.7957  0.1329
52486SOL    HW164319   8.876   3.787   9.574 -0.5747  2.2662  0.5715
52486SOL    HW264320   8.946   3.751   9.444 -0.5394 -0.4871  1.2861
52487SOL     OW64321   8.211   2.113   3.253 -0.0323  0.5504 -0.2487
52487SOL    HW164322   8.130   2.149   3.288 -0.8045  0.2462 -1.6626
52487SOL    HW264323   8.271   2.188   3.250 -1.0787  1.3718 -1.5718
52488SOL     OW64324  10.560  10.201   8.076  0.6109 -0.7411  0.2718
52488SOL    HW164325  10.484  10.258   8.092  1.0814  0.4097 -1.3995
52488SOL    HW264326  10.526  10.112   8.088 -1.0042 -0.2453 -0.3635
52489SOL     OW64327  11.544   4.694   5.592  0.0753 -0.3375 -0.1836
52489SOL    HW164328  11.581   4.781   5.578  0.6324 -0.5957 -0.3047
52489SOL    HW264329  11.450   4.706   5.580  0.1999  0.1516 -0.6649
52490SOL     OW64330   0.086  11.846   3.420 -1.1140  0.4561 -0.1963
52490SOL    HW164331   0.142  11.885   3.353  0.1180  1.1312  1.1751
52490SOL    HW264332   0.021  11.795   3.371 -0.8400  1.6933 -1.9143
52491SOL     OW64333   6.373   2.747   8.705 -0.8155 -0.3494 -1.1815
52491SOL    HW164334   6.455   2.703   8.726 -1.6406 -0.2077  3.6355
52491SOL    HW264335   6.396   2.840   8.699 -0.5937 -0.2161  0.9391
52492SOL     OW64336   6.411   8.290   0.155  0.1707  0.1896 -0.2861
52492SOL    HW164337   6.327   8.312   0.194 -0.3020 -1.6697 -0.1706
52492SOL    HW264338   6.401   8.313   0.062 -0.2108  0.6169 -0.1419
52493SOL     OW64339   5.246   6.152   1.729 -0.3195 -0.0360  0.1724
52493SOL    HW164340   5.231   6.183   1.818 -0.7498  1.0312 -0.2542
52493SOL    HW264341   5.302   6.075   1.739  0.5973  0.7516  1.2797
52494SOL     OW64342   2.869   7.834   3.031 -0.3958 -0.5399 -0.5514
52494SOL    HW164343   2.955   7.816   3.069 -0.0951  0.4886 -0.7089
52494SOL    HW264344   2.856   7.765   2.966 -0.1909 -1.3489  0.2406
52495SOL     OW64345   6.960   2.758   2.927 -0.3366 -0.0645 -0.6190
52495SOL    HW164346   7.043   2.735   2.886 -0.1481 -1.6200  0.5207
52495SOL    HW264347   6.942   2.846   2.897  0.8090 -0.3739 -2.3381
52496SOL     OW64348   5.431   5.591   2.517  0.5136 -0.4176  0.2576
52496SOL    HW164349   5.518   5.576   2.480  0.5200  1.0487 -0.3825
52496SOL    HW264350   5.437   5.559   2.607  1.3071 -1.5528 -0.1745
52497SOL     OW64351   0.793   3.297   5.776  0.6136  0.1006  0.1280
52497SOL    HW164352   0.828   3.209   5.765  1.8068  0.1266  2.8798
52497SOL    HW264353   0.841   3.333   5.851 -2.1765  1.8667  1.2278
52498SOL     OW64354   5.647   2.147   9.308  0.0069  0.8181  0.5485
52498SOL    HW164355   5.623   2.140   9.400 -1.1592  0.1920  0.2179
52498SOL    HW264356   5.578   2.100   9.261  1.3790 -0.2125 -0.5367
52499SOL     OW64357   6.009   1.632   3.737  0.8820 -0.2704 -0.9127
52499SOL    HW164358   6.074   1.644   3.807  1.0168  0.0305 -1.0871
52499SOL    HW264359   6.029   1.546   3.700  0.1413 -0.9021  0.1111
52500SOL     OW64360   9.834   4.505   1.051  0.0168  0.3652 -0.0668
52500SOL    HW164361   9.929   4.504   1.045 -0.0058 -0.7299 -0.4131
52500SOL    HW264362   9.808   4.585   1.004  0.7265  0.2891 -0.6069
52501SOL     OW64363   6.687  11.970   0.054  0.2060 -0.4764  0.1475
52501SOL    HW164364   6.614  11.908   0.049  0.5573 -1.1123  2.0357
52501SOL    HW264365   6.740  11.951  -0.023 -1.5407 -0.0518 -1.2287
52502SOL     OW64366   4.275   2.700   3.171  0.3845 -0.0937  0.1517
52502SOL    HW164367   4.245   2.791   3.166 -0.3734 -0.2294  1.7341
52502SOL    HW264368   4.320   2.686   3.088  0.0958  1.5728 -0.3359
52503SOL     OW64369   2.650   7.660   2.354 -0.1023 -0.2345 -0.1154
52503SOL    HW164370   2.562   7.667   2.390 -0.4938  0.5956 -1.1559
52503SOL    HW264371   2.651   7.723   2.281  1.7547  0.7262  0.6690
52504SOL     OW64372   8.756   8.471  10.551  0.0613  0.0121  0.6100
52504SOL    HW164373   8.740   8.509  10.638 -3.0680  0.6803 -0.1212
52504SOL    HW264374   8.770   8.547  10.494 -3.5140  0.1138 -0.3681
52505SOL     OW64375   5.865   4.447  10.760  0.2980 -0.0624 -0.3560
52505SOL    HW164376   5.795   4.406  10.710  0.2224 -1.6858  1.0024
52505SOL    HW264377   5.946   4.412  10.723  0.2350 -1.4904  0.7613
52506SOL     OW64378   7.405   7.119  10.789 -0.4316  0.1707  0.3372
52506SOL    HW164379   7.414   7.024  10.794  0.4083  0.1571 -1.0163
52506SOL    HW264380   7.341   7.140  10.857 -0.0364 -1.2664  1.2046
52507SOL     OW64381   4.480   9.462   5.912 -0.0478 -0.5595  0.0105
52507SOL    HW164382   4.561   9.512   5.922 -0.4724  0.0994  0.2310
52507SOL    HW264383   4.433   9.507   5.842 -0.6517 -0.3542  0.5383
52508SOL     OW64384   7.989   4.799  10.200  0.0851 -0.2412 -0.2081
52508SOL    HW164385   7.897   4.828  10.199  0.1019 -0.0944  1.0650
52508SOL    HW264386   7.985   4.706  10.220  0.2023 -0.2805 -0.3707
52509SOL     OW64387   1.121   0.484   6.949  0.2916  0.4091  0.3515
52509SOL    HW164388   1.156   0.397   6.968 -0.8256 -0.2251 -0.3807
52509SOL    HW264389   1.163   0.541   7.014  3.1088 -0.1459 -0.8140
52510SOL     OW64390   9.996   8.449   1.274  0.0113  1.1146  0.0236
52510SOL    HW164391  10.070   8.510   1.270 -0.7082  2.0923  0.9902
52510SOL    HW264392  10.028   8.369   1.232  1.7763  1.3326  0.8841
52511SOL     OW64393  10.573   6.744  10.679 -0.4498  0.1042 -0.2345
52511SOL    HW164394  10.646   6.789  10.721 -0.1676 -0.2806 -0.3027
52511SOL    HW264395  10.611   6.705  10.600 -0.7178 -0.1426 -0.2426
52512SOL     OW64396   0.347  12.147  10.530  0.6878  0.0648 -0.0427
52512SOL    HW164397   0.387  12.127  10.614  0.4522  0.5674  0.1939
52512SOL    HW264398   0.327  12.061  10.492 -0.3072 -0.1720  0.9504
52513SOL     OW64399   1.884   1.696   3.891 -0.4554  0.7663 -0.2447
52513SOL    HW164400   1.802   1.663   3.856 -0.3110  0.7728 -0.5923
52513SOL    HW264401   1.892   1.784   3.855  0.4177  0.2380 -1.4347
52514SOL     OW64402   5.102   8.970   6.532 -0.3129  0.1517  0.3187
52514SOL    HW164403   5.195   8.967   6.552  0.1678  3.1165 -1.0245
52514SOL    HW264404   5.060   8.985   6.617  0.4831 -0.2773  0.8053
52515SOL     OW64405   1.511   4.280   5.834 -0.5698 -0.0961  0.3240
52515SOL    HW164406   1.522   4.207   5.774 -2.0800  0.7181 -1.0241
52515SOL    HW264407   1.577   4.344   5.807 -1.3521  0.3366 -0.6238
52516SOL     OW64408   6.074   4.321   0.934  0.8475 -0.3664 -0.3969
52516SOL    HW164409   6.015   4.260   0.890  1.7343 -1.7069  0.2122
52516SOL    HW264410   6.089   4.391   0.870 -1.8507  0.3777 -0.3688
52517SOL     OW64411  11.451   9.524   5.597 -0.2753  0.1856  0.7767
52517SOL    HW164412  11.423   9.433   5.596 -0.2573  0.1826  0.4462
52517SOL    HW264413  11.499   9.533   5.680 -1.0297  0.1309  1.2256
52518SOL     OW64414   6.329   9.740  11.520  0.4441 -0.1424 -0.2702
52518SOL    HW164415   6.300   9.747  11.611  0.7682  0.5894 -0.2137
52518SOL    HW264416   6.423   9.754  11.524  0.2895  1.2503 -0.8521
52519SOL     OW64417   3.134   9.242   1.825  0.1805  0.6255  0.0209
52519SOL    HW164418   3.169   9.239   1.736  0.7882  1.0726  0.2412
52519SOL    HW264419   3.191   9.183   1.875 -1.4815 -1.3924 -0.3178
52520SOL     OW64420   7.030   1.519   4.256 -0.1854 -0.3237  0.1246
52520SOL    HW164421   6.979   1.588   4.214  0.9229  0.5809  0.2387
52520SOL    HW264422   7.113   1.518   4.209  0.2288 -0.8128  0.8529
52521SOL     OW64423   5.303   9.383   3.762  0.0277  0.4823  0.1680
52521SOL    HW164424   5.245   9.312   3.786 -0.8215  1.2169  0.3329
52521SOL    HW264425   5.390   9.342   3.757 -0.5143 -0.6639 -0.2634
52522SOL     OW64426   1.559   7.200   3.272  0.6326  0.0338  0.3203
52522SOL    HW164427   1.547   7.271   3.209 -0.3940  1.2954  1.8625
52522SOL    HW264428   1.530   7.122   3.226 -1.0430  1.0625 -0.4654
52523SOL     OW64429   6.097   9.804   9.555  0.0336  0.3245 -0.1797
52523SOL    HW164430   6.131   9.894   9.558 -0.0846  0.5901 -3.2875
52523SOL    HW264431   6.004   9.815   9.536  0.0957 -0.4201 -0.9688
52524SOL     OW64432   9.053   4.089  11.048  0.2652 -0.5974  0.0418
52524SOL    HW164433   9.056   4.003  11.007 -2.5879 -1.2051  0.9132
52524SOL    HW264434   8.980   4.084  11.110 -1.7100  3.1484 -1.6311
52525SOL     OW64435  12.294   1.343   0.128 -0.4737  0.0179 -0.2238
52525SOL    HW164436  12.288   1.394   0.209  0.9609  0.0300 -0.1068
52525SOL    HW264437  12.374   1.291   0.137 -1.3617 -1.5280 -0.7755
52526SOL     OW64438   6.569   2.451  11.244  0.4006  0.1200  0.5910
52526SOL    HW164439   6.618   2.530  11.263 -1.1870  0.7852  2.2760
52526SOL    HW264440   6.486   2.482  11.208  0.3155 -0.8580 -0.0984
52527SOL     OW64441  10.354   5.380   9.130 -0.5839  0.1879 -0.1658
52527SOL    HW164442  10.272   5.415   9.165 -0.4316  1.3156 -0.9086
52527SOL    HW264443  10.379   5.441   9.061  1.9389  1.0700  1.3693
52528SOL     OW64444  10.007  10.305   3.876  0.4818  0.0394 -0.2126
52528SOL    HW164445   9.920  10.308   3.915 -0.5238  0.0013 -2.3115
52528SOL    HW264446  10.003  10.232   3.813  2.0129  0.0620 -0.3844
52529SOL     OW64447   0.575   9.877   7.380  0.2276  0.2921 -0.0489
52529SOL    HW164448   0.510   9.835   7.324 -0.0131  0.7804 -0.1447
52529SOL    HW264449   0.630   9.805   7.412  1.4266  0.1701 -2.2526
52530SOL     OW64450   3.701   1.724   1.894 -0.2468 -0.1360  1.0017
52530SOL    HW164451   3.623   1.683   1.857 -0.0674 -0.9383  1.4826
52530SOL    HW264452   3.774   1.668   1.867  0.5093  1.8090 -1.3660
52531SOL     OW64453   6.791  10.688   6.180 -0.5017  0.6036  0.6251
52531SOL    HW164454   6.822  10.740   6.254  0.2103 -0.1910  0.8903
52531SOL    HW264455   6.833  10.727   6.104  1.9765 -0.9958  1.0552
52532SOL     OW64456   5.184   8.579  11.560 -0.0163 -0.0821 -0.0827
52532SOL    HW164457   5.185   8.619  11.473  0.2165  0.5299  0.1964
52532SOL    HW264458   5.225   8.644  11.616  0.0399 -0.5724  0.4461
52533SOL     OW64459   6.766   9.516   4.824  0.5687  0.0884  0.2598
52533SOL    HW164460   6.751   9.596   4.775  0.9189 -0.8231 -1.3824
52533SOL    HW264461   6.842   9.535   4.879 -0.0419  1.2241  0.7527
52534SOL     OW64462   7.746   9.709   4.091 -0.0012  0.2564 -0.1339
52534SOL    HW164463   7.667   9.680   4.135 -0.2770 -0.1598 -0.8693
52534SOL    HW264464   7.740   9.670   4.004  1.0126  0.2174 -0.1995
52535SOL     OW64465   5.534  12.256  11.535 -0.0683  0.6728  0.1204
52535SOL    HW164466   5.486  12.212  11.606 -1.6446  2.5900  0.3099
52535SOL    HW264467   5.497  12.218  11.455  1.0189 -0.7809  0.2710
52536SOL     OW64468   7.781   9.534   6.976  0.0267  0.3649  0.1823
52536SOL    HW164469   7.816   9.447   6.995 -0.9262  0.2802  1.7223
52536SOL    HW264470   7.826   9.561   6.896  1.5793 -0.8360  0.6083
52537SOL     OW64471   0.599  11.047  12.203 -0.1360 -0.3748 -0.2978
52537SOL    HW164472   0.543  11.108  12.251  3.2115  0.9839  2.2625
52537SOL    HW264473   0.576  10.961  12.239 -1.4487 -0.0469 -0.2912
52538SOL     OW64474   5.421   4.975   5.095 -0.1200 -0.5126  0.5430
52538SOL    HW164475   5.407   5.009   5.184 -0.6726  2.5278 -0.5855
52538SOL    HW264476   5.333   4.967   5.059 -0.0490 -3.6010  0.7689
52539SOL     OW64477   3.703   3.296  10.608  0.1868  0.2723  0.3763
52539SOL    HW164478   3.712   3.392  10.610  0.0436  0.2971 -0.2728
52539SOL    HW264479   3.788   3.264  10.639  0.0560  0.6108  1.1142
52540SOL     OW64480   6.454   1.257   9.267 -0.0788  0.2241  0.2254
52540SOL    HW164481   6.521   1.320   9.240  1.1576 -0.2995  1.8754
52540SOL    HW264482   6.454   1.262   9.363 -1.4650 -0.7549  0.3040
52541SOL     OW64483   6.435   2.357   9.707 -0.4677 -0.0609 -0.2763
52541SOL    HW164484   6.457   2.276   9.660  0.3501  1.2686 -2.3483
52541SOL    HW264485   6.368   2.398   9.652 -0.5982  0.8556  0.5415
52542SOL     OW64486  11.352   7.981   8.822 -0.0266 -0.3020 -0.2057
52542SOL    HW164487  11.308   7.901   8.850 -1.0081 -0.3569 -1.7593
52542SOL    HW264488  11.349   7.978   8.726  0.1876  1.4355 -0.3040
52543SOL     OW64489  12.035  10.488   3.143 -0.2692 -0.3655 -0.0985
52543SOL    HW164490  12.029  10.517   3.234  2.0727  1.3361 -0.3958
52543SOL    HW264491  12.015  10.395   3.146 -1.9492 -0.0203  1.8688
52544SOL     OW64492   7.594   8.231   0.715 -0.0934  0.3352 -0.0595
52544SOL    HW164493   7.598   8.170   0.788 -1.3854 -0.0570 -0.2822
52544SOL    HW264494   7.589   8.317   0.756  0.5434  0.2198  0.2764
52545SOL     OW64495   9.931   8.653   5.590  0.4499  0.2097  0.1108
52545SOL    HW164496   9.945   8.706   5.511  0.7517  0.4158  0.3010
52545SOL    HW264497  10.019   8.623   5.615  0.5328  1.2166  1.1046
52546SOL     OW64498   7.942   5.098   4.670 -0.0720  0.2832 -0.5373
52546SOL    HW164499   7.923   5.034   4.601 -0.2016 -1.0315  0.6802
52546SOL    HW264500   7.857   5.119   4.707  0.1090 -0.0323  0.0797
52547SOL     OW64501   8.503   5.319   0.614  0.3572 -0.1963  0.1943
52547SOL    HW164502   8.414   5.351   0.631 -0.9306 -2.3875 -1.8156
52547SOL    HW264503   8.522   5.349   0.525  0.3491 -2.2780 -0.5513
52548SOL     OW64504   2.736   0.453   9.294 -0.2228 -0.1439 -0.4831
52548SOL    HW164505   2.831   0.456   9.306 -0.3889  0.8172  0.8370
52548SOL    HW264506   2.722   0.483   9.204  0.6203  1.7587 -0.0136
52549SOL     OW64507  12.006  10.997   1.445 -0.2267 -0.1674 -0.5521
52549SOL    HW164508  11.998  11.077   1.498 -0.2216  0.6115 -1.7006
52549SOL    HW264509  12.091  10.961   1.471 -0.7702 -0.5046  0.8894
52550SOL     OW64510   8.786   2.880  11.635  0.4215 -0.0188  0.3678
52550SOL    HW164511   8.727   2.955  11.648 -1.2081 -1.1836  0.0295
52550SOL    HW264512   8.824   2.894  11.548 -0.3308  0.1301  0.0550
52551SOL     OW64513   4.212  10.889   6.175 -0.1096 -0.3058  0.4054
52551SOL    HW164514   4.198  10.890   6.270 -1.5145 -1.4868  0.2409
52551SOL    HW264515   4.150  10.824   6.142  1.1888 -0.8081 -1.2065
52552SOL     OW64516   6.020  10.866   0.548  0.1259  0.4314  1.0637
52552SOL    HW164517   5.990  10.865   0.457  0.4811 -0.4827  0.9489
52552SOL    HW264518   5.948  10.826   0.597 -0.5423  1.9143  1.3614
52553SOL     OW64519   9.260  11.687  11.416 -0.3521 -0.1546  0.2139
52553SOL    HW164520   9.165  11.679  11.419 -0.4657  1.1425  0.6607
52553SOL    HW264521   9.280  11.764  11.469  0.9552 -0.3963  0.1264
52554SOL     OW64522  12.131   2.863   7.645 -0.1721 -0.0199 -0.1682
52554SOL    HW164523  12.131   2.832   7.736  0.5963  2.3536  0.7051
52554SOL    HW264524  12.090   2.792   7.596  2.3889 -2.8898  1.4754
52555SOL     OW64525   6.933   1.917   8.715 -0.9104 -0.2071  0.0452
52555SOL    HW164526   6.888   1.833   8.709 -0.1376 -0.6778  0.7698
52555SOL    HW264527   7.017   1.898   8.756 -0.3405  0.7783 -0.5963
52556SOL     OW64528   5.813   6.452   8.968 -0.3485 -0.1216 -0.5856
52556SOL    HW164529   5.812   6.489   9.056  0.7315 -3.3536  0.9721
52556SOL    HW264530   5.728   6.474   8.931 -0.0447  3.1012  0.3807
52557SOL     OW64531   7.800  10.534   4.141  0.0025  0.1549  0.4177
52557SOL    HW164532   7.733  10.481   4.183 -0.1515  1.0255  1.3177
52557SOL    HW264533   7.776  10.534   4.048 -0.9505  0.0315  0.6516
52558SOL     OW64534  10.119   8.730  11.466  0.2811  0.5235 -0.3123
52558SOL    HW164535  10.169   8.811  11.477  1.8806 -0.2252 -1.6097
52558SOL    HW264536  10.186   8.662  11.459 -1.0237 -0.8811  0.4289
52559SOL     OW64537   3.892  11.792   5.143 -0.0049 -0.2062  0.6010
52559SOL    HW164538   3.803  11.820   5.120 -0.4388 -0.8785  1.3906
52559SOL    HW264539   3.947  11.867   5.123 -0.9038  0.5971  1.0665
52560SOL     OW64540   1.043   8.089   5.927  0.7242 -0.3006 -0.3436
52560SOL    HW164541   1.010   8.118   5.841 -0.5784  0.0281  0.2365
52560SOL    HW264542   1.078   8.001   5.911  0.8396 -0.0923 -1.2845
52561SOL     OW64543   2.089   2.421   8.918  0.5510  0.1921  0.1685
52561SOL    HW164544   2.023   2.361   8.884  0.1339 -1.3491  3.3527
52561SOL    HW264545   2.040   2.499   8.944  0.5350  0.4363 -0.5696
52562SOL     OW64546   4.013  10.395  11.765 -0.1532  0.2044  0.2736
52562SOL    HW164547   4.057  10.433  11.689  3.5641 -1.6582  1.2552
52562SOL    HW264548   4.055  10.436  11.840 -1.7488 -0.0466  1.3398
52563SOL     OW64549   4.455   2.720   2.922  0.1287  0.0770  0.5193
52563SOL    HW164550   4.533   2.775   2.930  0.6352 -0.8837  3.5026
52563SOL    HW264551   4.485   2.643   2.874  1.2066 -0.4741  2.0057
52564SOL     OW64552   1.031   4.772   9.058  0.2419  0.0567  0.1345
52564SOL    HW164553   0.995   4.683   9.058 -1.0355  0.5495  0.8818
52564SOL    HW264554   0.974   4.821   9.117  2.9741  0.5584  2.6039
52565SOL     OW64555   0.968   2.670   3.681  0.1267  0.2073 -0.0831
52565SOL    HW164556   0.969   2.614   3.758  1.4270  0.5357  0.1654
52565SOL    HW264557   0.877   2.697   3.672 -0.6258 -2.2309 -0.4467
52566SOL     OW64558  10.013   0.228   8.565  0.0807  0.0809  0.4721
52566SOL    HW164559   9.931   0.257   8.526 -1.4659 -0.5976  3.0433
52566SOL    HW264560  10.056   0.179   8.494 -2.3985 -0.8039 -0.5478
52567SOL     OW64561   7.856   5.267  11.724 -0.0077  0.1673 -0.8655
52567SOL    HW164562   7.762   5.266  11.707 -0.0404 -1.1515 -0.7152
52567SOL    HW264563   7.865   5.232  11.812  0.6302  0.3021 -0.8735
52568SOL     OW64564   8.216  11.963   2.507  0.0686 -0.0724 -0.2260
52568SOL    HW164565   8.268  12.005   2.575  0.9998  0.1070 -1.0387
52568SOL    HW264566   8.190  11.879   2.546 -1.1218  0.8434  1.0925
52569SOL     OW64567   2.026  11.880  11.483  0.2518 -0.0101 -0.9773
52569SOL    HW164568   2.017  11.786  11.468  0.7676 -0.3442  0.6547
52569SOL    HW264569   1.961  11.919  11.425 -0.6915 -1.4278 -0.9314
52570SOL     OW64570   4.274   3.207   0.633  0.1256  0.2102  1.4414
52570SOL    HW164571   4.205   3.215   0.699  0.0068  1.1139  1.2213
52570SOL    HW264572   4.355   3.205   0.684 -0.0108  0.1348  1.6550
52571SOL     OW64573   5.431   8.904  10.634 -0.9798 -0.0218 -0.0662
52571SOL    HW164574   5.368   8.878  10.701 -2.2392 -0.2298 -1.2864
52571SOL    HW264575   5.498   8.836  10.637 -1.4928 -0.5183  0.3552
52572SOL     OW64576   5.292   2.689   4.528  0.0396  0.0616 -0.0147
52572SOL    HW164577   5.284   2.710   4.435  0.8259 -0.3168 -0.1698
52572SOL    HW264578   5.290   2.594   4.531 -0.5660  0.0805  0.4195
52573SOL     OW64579   7.838   5.735   5.145  0.4074 -0.4640 -0.3230
52573SOL    HW164580   7.818   5.673   5.075  1.4925 -0.4437 -0.6657
52573SOL    HW264581   7.801   5.695   5.224  1.0475 -1.5304 -0.5481
52574SOL     OW64582  10.984   6.615  10.085 -0.1723  0.2205  0.2753
52574SOL    HW164583  11.042   6.541  10.069  0.1204  0.2904  0.9940
52574SOL    HW264584  10.905   6.595  10.034 -0.3032 -0.8459  0.8744
52575SOL     OW64585   4.275   3.446   4.744  0.4307 -0.0545 -0.0286
52575SOL    HW164586   4.215   3.510   4.709  0.5363  0.5008  0.7708
52575SOL    HW264587   4.362   3.486   4.735  0.9530 -1.5895 -2.8556
52576SOL     OW64588   9.340   7.161   6.408  0.0548 -0.3983 -0.1013
52576SOL    HW164589   9.407   7.210   6.456  0.7954 -0.7546 -0.7485
52576SOL    HW264590   9.273   7.227   6.386 -0.7788 -0.4024  2.1927
52577SOL     OW64591   1.685   4.507   5.755  1.0907  0.5067  0.5705
52577SOL    HW164592   1.768   4.543   5.787  0.1421  2.6313  0.8283
52577SOL    HW264593   1.623   4.580   5.762 -0.6039 -0.7619 -0.4235
52578SOL     OW64594  10.429   7.113   5.520  0.3658 -0.1558 -0.0716
52578SOL    HW164595  10.446   7.021   5.499  0.7401 -0.0776 -0.1223
52578SOL    HW264596  10.352   7.111   5.576 -1.3315 -0.2913 -2.2934
52579SOL     OW64597   8.160   1.070   9.864  0.0509  0.3294 -0.9739
52579SOL    HW164598   8.190   1.077   9.773  0.3986 -1.0595 -0.9821
52579SOL    HW264599   8.132   0.979   9.873 -0.1800  0.5134  0.2544
52580SOL     OW64600   6.220   4.121   0.614 -0.3341  0.0787  0.2279
52580SOL    HW164601   6.312   4.099   0.629 -0.6975 -1.9559 -0.2287
52580SOL    HW264602   6.218   4.152   0.523 -0.1057  0.0495  0.2110
52581SOL     OW64603   3.683  10.219   7.119  0.2870  0.3826 -0.2278
52581SOL    HW164604   3.651  10.309   7.123  1.8804  0.9509  0.8331
52581SOL    HW264605   3.711  10.199   7.208  3.0180  0.0347 -1.0834
52582SOL     OW64606   8.073  10.258   7.698  0.6040  0.1658 -0.4219
52582SOL    HW164607   8.043  10.292   7.614  0.3164 -1.4411 -1.0078
52582SOL    HW264608   8.168  10.265   7.693  0.5989 -0.0396 -0.9487
52583SOL     OW64609   7.819   1.258   5.992 -0.0013  0.1685  0.0073
52583SOL    HW164610   7.871   1.249   5.912 -1.6446 -2.1515 -0.9102
52583SOL    HW264611   7.729   1.249   5.963 -0.7058  0.2323  2.0193
52584SOL     OW64612   3.399   4.741   7.575 -0.3901  0.2133  0.3080
52584SOL    HW164613   3.375   4.818   7.522  1.1139  0.3459 -0.2129
52584SOL    HW264614   3.494   4.736   7.569 -0.5290 -2.8064 -1.2623
52585SOL     OW64615   7.834   2.227   7.508  0.1411  0.6968 -0.1922
52585SOL    HW164616   7.829   2.275   7.425  0.5572 -0.5047 -0.9350
52585SOL    HW264617   7.925   2.198   7.513  0.3136  1.3755  1.0646
52586SOL     OW64618   0.777   3.105   9.428  0.3756  0.3295 -0.3871
52586SOL    HW164619   0.724   3.025   9.429 -0.7669  1.0623  0.4190
52586SOL    HW264620   0.825   3.104   9.510 -0.9239  1.2596  0.4237
52587SOL     OW64621   9.585   8.092   9.114  0.2606 -0.3018  0.0983
52587SOL    HW164622   9.563   8.085   9.021  1.8734  0.3917 -0.3610
52587SOL    HW264623   9.502   8.118   9.156 -0.5501 -0.8856 -1.0846
52588SOL     OW64624   5.820   8.744   9.335  0.3370  0.1367  0.1829
52588SOL    HW164625   5.758   8.774   9.269  1.4732  1.9085 -0.1448
52588SOL    HW264626   5.866   8.823   9.363  2.6151 -1.1163  0.2486
52589SOL     OW64627   1.616  10.278   1.627  0.6068 -0.2141 -0.2525
52589SOL    HW164628   1.580  10.362   1.600  0.6137 -0.5232 -1.2618
52589SOL    HW264629   1.643  10.291   1.717 -1.6804  0.1365  0.4446
52590SOL     OW64630   8.228   8.296   4.539 -0.2220  0.3167 -0.0907
52590SOL    HW164631   8.237   8.255   4.453 -0.2388  1.0155 -0.4333
52590SOL    HW264632   8.241   8.390   4.522 -2.7437  0.7923  0.2374
52591SOL     OW64633   1.847   2.794   0.173 -0.0868  0.3293 -0.4538
52591SOL    HW164634   1.935   2.773   0.206 -1.6011 -1.7096  2.7544
52591SOL    HW264635   1.800   2.829   0.249 -2.2577  0.7425 -1.9023
52592SOL     OW64636   8.485  10.881   1.956  0.1089  0.1244  0.4439
52592SOL    HW164637   8.448  10.969   1.961 -1.1747 -0.4700  2.9287
52592SOL    HW264638   8.492  10.863   1.862  2.7723  3.7502 -0.2976
52593SOL     OW64639   2.978   1.894   9.829 -0.0007 -0.3597  0.1128
52593SOL    HW164640   3.012   1.961   9.769  0.1058 -0.6300 -0.1307
52593SOL    HW264641   2.884   1.891   9.811  0.1021 -0.7761 -0.3817
52594SOL     OW64642   7.755   8.322   4.542  0.2305 -0.0124  0.0215
52594SOL    HW164643   7.664   8.325   4.570 -0.4188  0.4240 -1.9583
52594SOL    HW264644   7.806   8.336   4.622 -1.4314  0.0706  1.1070
52595SOL     OW64645  12.337  11.131   4.116 -0.9675  0.2241  0.0910
52595SOL    HW164646  12.314  11.224   4.112 -0.8294  0.3090  0.9880
52595SOL    HW264647  12.326  11.108   4.209 -3.8509 -1.3907 -0.5225
52596SOL     OW64648  12.386   6.688   0.935  0.5008 -0.8034  0.0450
52596SOL    HW164649  12.416   6.609   0.980  1.1068 -0.8205 -0.3838
52596SOL    HW264650  12.345   6.656   0.855  0.1764 -0.7165  0.1731
52597SOL     OW64651   8.180  11.418   7.268  0.3028 -0.0404  0.2565
52597SOL    HW164652   8.144  11.343   7.222 -0.2011 -0.2485  0.9681
52597SOL    HW264653   8.211  11.381   7.351  1.8329  0.1941 -0.1837
52598SOL     OW64654   7.173  12.215   7.109  0.2975 -0.1543  0.9420
52598SOL    HW164655   7.150  12.203   7.017  4.0969 -1.8100  0.0103
52598SOL    HW264656   7.174  12.127   7.146  1.8529  0.1176  1.6574
52599SOL     OW64657  12.224  11.229   3.665 -0.4363 -0.2520  0.3494
52599SOL    HW164658  12.292  11.297   3.665  0.4377 -1.0847  1.2908
52599SOL    HW264659  12.259  11.162   3.606  0.3490 -1.3896  2.0282
52600SOL     OW64660   8.557   4.696   5.930 -0.1312 -0.4155 -0.0882
52600SOL    HW164661   8.471   4.669   5.896 -0.6400 -0.4986  1.1880
52600SOL    HW264662   8.566   4.648   6.012 -0.1562  1.6856  1.2376
52601SOL     OW64663   2.782   9.938   3.843 -0.2995  0.3152  0.2536
52601SOL    HW164664   2.710   9.999   3.824 -1.0305 -0.2575  1.0883
52601SOL    HW264665   2.781   9.930   3.939  0.6503  0.0194  0.2413
52602SOL     OW64666   3.457   6.588  10.231  0.0486  0.0438 -0.8128
52602SOL    HW164667   3.495   6.592  10.319 -1.3092  1.3673 -0.2449
52602SOL    HW264668   3.508   6.652  10.181  0.3621 -0.2019 -0.8150
52603SOL     OW64669   2.467   7.426  12.428  0.1106  0.5874  0.2676
52603SOL    HW164670   2.476   7.351  12.369 -2.0612  0.0726  0.4713
52603SOL    HW264671   2.531   7.410  12.497 -1.7643 -2.4123  1.5469
52604SOL     OW64672   3.645   4.731   2.940 -0.3585  0.1191 -0.2871
52604SOL    HW164673   3.589   4.741   2.862 -0.5361  1.3736 -0.0235
52604SOL    HW264674   3.612   4.797   3.001  0.8451  0.2722  0.2134
52605SOL     OW64675  11.891   3.233   3.288  0.6516 -0.3715  0.3818
52605SOL    HW164676  11.827   3.262   3.354  1.3461  0.8420  0.5531
52605SOL    HW264677  11.906   3.140   3.308 -2.7520 -1.3888 -1.0789
52606SOL     OW64678   4.318  11.546   6.201  0.1820 -0.3675 -0.0667
52606SOL    HW164679   4.271  11.583   6.127 -0.7587 -0.6939  0.3499
52606SOL    HW264680   4.252  11.496   6.249  0.9812 -0.9336  0.4753
52607SOL     OW64681   5.883   5.517   0.061 -0.2606  0.3890 -0.1874
52607SOL    HW164682   5.811   5.541   0.119  0.8937 -0.7778  1.8645
52607SOL    HW264683   5.962   5.536   0.112  0.8143 -0.8942 -1.2948
52608SOL     OW64684   0.713   8.160   3.895  0.0344 -0.0688  0.6528
52608SOL    HW164685   0.791   8.115   3.927  1.2199  0.4248 -1.3547
52608SOL    HW264686   0.643   8.096   3.904  1.1171 -1.3212  0.4504
52609SOL     OW64687  11.661  11.988   4.629  0.0276 -0.0413  0.6014
52609SOL    HW164688  11.605  12.038   4.569  0.7284 -1.9053 -1.7622
52609SOL    HW264689  11.625  12.007   4.716  0.0719  4.2471 -0.0833
52610SOL     OW64690   6.905   1.531   6.139 -0.8747 -0.0861  0.3109
52610SOL    HW164691   6.867   1.451   6.176 -2.7758 -0.3467 -1.9695
52610SOL    HW264692   6.997   1.510   6.124 -1.3566 -1.9182 -0.3168
52611SOL     OW64693   8.194   3.523   1.598 -0.0370 -0.1671  0.5239
52611SOL    HW164694   8.161   3.433   1.602 -2.8733  0.6523 -1.1779
52611SOL    HW264695   8.228   3.540   1.686 -1.3935 -2.1967  1.5359
52612SOL     OW64696  11.906   7.870   3.274 -0.2776  0.3718 -0.5338
52612SOL    HW164697  11.919   7.835   3.362  2.9549  1.6794 -0.3462
52612SOL    HW264698  11.910   7.794   3.216  0.6408 -0.2159  0.2746
52613SOL     OW64699   9.378   4.196   4.759  0.3504  0.0909 -0.3648
52613SOL    HW164700   9.419   4.256   4.698  2.6193 -0.1707  0.8235
52613SOL    HW264701   9.438   4.122   4.764 -2.0501 -2.0774 -1.3076
52614SOL     OW64702   9.065   3.160  11.141  0.2275  0.0271  0.0630
52614SOL    HW164703   9.046   3.173  11.234 -0.4872  0.9230 -0.1889
52614SOL    HW264704   9.161   3.168  11.135  0.0898  3.4132  0.2836
52615SOL     OW64705   5.521   0.234   6.741 -0.2884 -0.0398  0.3283
52615SOL    HW164706   5.560   0.317   6.767  0.9604 -1.0513  1.8848
52615SOL    HW264707   5.592   0.170   6.750 -0.8606 -1.1155 -2.0208
52616SOL     OW64708  11.886   8.128   6.858  0.2242  0.7673  0.1737
52616SOL    HW164709  11.815   8.088   6.808  0.2259 -1.3176  1.7023
52616SOL    HW264710  11.958   8.137   6.794 -1.0043  1.9064 -1.1197
52617SOL     OW64711   6.239  11.252   0.753  0.1292  0.3739 -0.0619
52617SOL    HW164712   6.214  11.342   0.731 -2.4728 -0.4590 -0.8268
52617SOL    HW264713   6.161  11.200   0.735  0.9672 -1.8165  2.0802
52618SOL     OW64714   9.307   5.930  11.741 -0.5806 -0.7587 -0.2309
52618SOL    HW164715   9.377   5.881  11.784  1.9008  3.6224  1.3771
52618SOL    HW264716   9.326   5.922  11.648  2.0509  0.0354  0.1524
52619SOL     OW64717   7.538   9.433   6.331 -0.2411 -0.0792 -0.3979
52619SOL    HW164718   7.572   9.348   6.360  1.0390  0.4844 -0.1616
52619SOL    HW264719   7.591   9.454   6.253  0.4611  1.1352  0.3733
52620SOL     OW64720   8.690   0.256   8.178 -0.3301 -0.1585 -0.1732
52620SOL    HW164721   8.782   0.260   8.202 -0.5603 -0.2531  0.7748
52620SOL    HW264722   8.643   0.271   8.261 -1.1712  1.6874 -0.9304
52621SOL     OW64723   4.031   6.853   8.631 -0.0073 -0.7155  0.6383
52621SOL    HW164724   3.940   6.878   8.648 -0.6134 -2.5623  0.3866
52621SOL    HW264725   4.077   6.869   8.713 -0.8353 -0.8568  1.1413
52622SOL     OW64726  10.648   7.118   5.021 -0.5704 -0.2027  0.7788
52622SOL    HW164727  10.686   7.124   4.933  0.1556  0.3043  1.1169
52622SOL    HW264728  10.562   7.078   5.007 -0.4761 -0.1072 -0.1651
52623SOL     OW64729   0.739   9.824   4.118 -0.0803 -0.3769 -0.5099
52623SOL    HW164730   0.692   9.826   4.201 -0.8365  1.0175 -0.9212
52623SOL    HW264731   0.814   9.768   4.133  0.0999  0.2969  1.2878
52624SOL     OW64732   1.511   8.633   5.254  0.2311  0.1915 -0.2096
52624SOL    HW164733   1.526   8.546   5.218 -1.3116  0.2968 -1.1779
52624SOL    HW264734   1.440   8.621   5.318 -0.9590  0.9308 -1.3462
52625SOL     OW64735   0.742   0.927   9.898 -0.2099  0.1433  0.1665
52625SOL    HW164736   0.742   1.016   9.863  1.3976 -0.8261 -2.6323
52625SOL    HW264737   0.814   0.926   9.961 -1.9038  1.4136  2.2651
52626SOL     OW64738   6.042   5.523  10.395 -0.3839 -0.0770  0.1644
52626SOL    HW164739   5.957   5.494  10.428 -0.8424 -0.3226 -1.1798
52626SOL    HW264740   6.024   5.604  10.349  0.4706  0.9722  1.6085
52627SOL     OW64741   6.415   0.466   8.020 -0.0700  0.7014  1.0457
52627SOL    HW164742   6.479   0.491   7.954 -1.0886  0.7599  0.0498
52627SOL    HW264743   6.466   0.420   8.087  0.9022  0.0206 -0.1200
52628SOL     OW64744  11.734   6.382   7.036  0.1753 -0.4658  0.1591
52628SOL    HW164745  11.754   6.469   7.071  0.2507 -0.4550  0.0911
52628SOL    HW264746  11.640   6.372   7.049  0.2659 -0.6260  0.7293
52629SOL     OW64747   6.140   5.687   2.321  0.0768  0.2882  0.2336
52629SOL    HW164748   6.071   5.728   2.268  1.6307  1.4524 -0.9549
52629SOL    HW264749   6.181   5.624   2.261  1.7318  1.4756  0.0760
52630SOL     OW64750   5.624   7.222   1.128 -0.8893  0.0469  0.3286
52630SOL    HW164751   5.550   7.177   1.168 -0.4119 -0.6784  0.4184
52630SOL    HW264752   5.677   7.151   1.091  0.2427  0.4746  1.0857
52631SOL     OW64753  12.053   9.897   8.499 -0.6853 -0.3447  0.4568
52631SOL    HW164754  12.003   9.869   8.422  0.2187 -1.9982  0.4210
52631SOL    HW264755  12.106   9.820   8.522  1.7307  1.2507  0.5596
52632SOL     OW64756   7.654  10.435  11.409 -0.1325 -0.7309 -0.3900
52632SOL    HW164757   7.648  10.404  11.319  0.2354  0.7463 -0.9536
52632SOL    HW264758   7.695  10.363  11.457 -0.4462 -1.5779 -1.3693
52633SOL     OW64759  11.076  11.030   9.265 -0.0222 -0.4235  0.2506
52633SOL    HW164760  11.105  11.084   9.338  2.4838  0.0189 -0.9645
52633SOL    HW264761  10.992  11.069   9.238 -0.3247  0.2195  2.0014
52634SOL     OW64762  11.144  10.010   3.898  0.0654  0.0078  0.1799
52634SOL    HW164763  11.214  10.017   3.833 -0.9135 -1.2606 -1.0580
52634SOL    HW264764  11.068  10.049   3.855 -0.6744 -1.1343  0.4143
52635SOL     OW64765  10.405   1.402   9.703  0.1264 -0.1136  0.0278
52635SOL    HW164766  10.356   1.456   9.765  0.4169 -0.1100  0.2596
52635SOL    HW264767  10.481   1.456   9.680 -0.4917  0.3186 -1.1295
52636SOL     OW64768   5.476   4.528   0.693 -0.1883 -0.0707  0.0121
52636SOL    HW164769   5.521   4.502   0.613 -0.1954 -1.1232  0.3225
52636SOL    HW264770   5.383   4.513   0.675 -0.4142  1.7368 -0.4965
52637SOL     OW64771   8.229   8.124   5.998 -0.0907 -0.6361 -0.1151
52637SOL    HW164772   8.269   8.131   6.085 -2.8106  2.1238  1.0983
52637SOL    HW264773   8.184   8.039   5.999  1.6054 -1.5799  0.2938
52638SOL     OW64774   0.664   1.190   2.575  0.0411  0.2497 -0.0922
52638SOL    HW164775   0.726   1.253   2.538  2.5302 -1.2903  1.1711
52638SOL    HW264776   0.592   1.244   2.607  0.6935  2.1542 -1.6085
52639SOL     OW64777  11.521   8.016   2.391 -0.3163  0.4023 -0.2806
52639SOL    HW164778  11.530   8.069   2.312 -1.1164  0.8074 -0.1129
52639SOL    HW264779  11.539   8.076   2.463 -1.9372  0.6748 -0.0520
52640SOL     OW64780   6.786  12.377   3.792  0.1407 -0.2590  0.0148
52640SOL    HW164781   6.740  12.302   3.753  0.5729 -0.2641 -0.4997
52640SOL    HW264782   6.853  12.338   3.848 -1.4224 -0.2625  1.9573
52641SOL     OW64783   5.376  11.654   3.274 -0.1023 -0.0263 -0.3582
52641SOL    HW164784   5.328  11.574   3.252  0.5284 -0.6238  0.3946
52641SOL    HW264785   5.447  11.625   3.331  0.7663  0.9267 -0.9089
52642SOL     OW64786  12.168  11.302   7.163  0.4241 -0.7365  0.1818
52642SOL    HW164787  12.095  11.363   7.165  1.6846  0.9788 -1.8710
52642SOL    HW264788  12.130  11.219   7.134 -1.0583 -0.5676  1.4979
52643SOL     OW64789   9.187   1.543  10.190 -0.2212 -0.0503 -0.4147
52643SOL    HW164790   9.164   1.588  10.270  2.2681  0.2572  0.2136
52643SOL    HW264791   9.234   1.464  10.219 -2.1054 -1.6996 -1.5431
52644SOL     OW64792  12.120   0.191   8.074 -0.5839 -0.4897 -0.0794
52644SOL    HW164793  12.063   0.251   8.027  1.1576  0.9019 -0.5340
52644SOL    HW264794  12.076   0.178   8.159 -1.3402  0.9192 -0.2182
52645SOL     OW64795   4.471   9.295   4.213 -0.1123 -0.0222 -0.0280
52645SOL    HW164796   4.512   9.381   4.214  0.6181 -0.3596  1.1079
52645SOL    HW264797   4.385   9.310   4.173  0.3510  1.0466 -0.6889
52646SOL     OW64798   1.950   9.697  12.404 -0.4799  0.0436 -0.0413
52646SOL    HW164799   1.953   9.786  12.369  0.3711  0.6771  1.5340
52646SOL    HW264800   1.966   9.708  12.498 -0.5695 -1.7556  0.2141
52647SOL     OW64801  11.365   4.002   6.442  0.0466  0.2723 -0.3917
52647SOL    HW164802  11.409   3.924   6.476 -0.6553 -0.6444 -1.4855
52647SOL    HW264803  11.320   4.040   6.518  0.1457 -0.5707  0.0983
52648SOL     OW64804   7.517   3.092   6.486  0.1810 -0.0140 -0.7881
52648SOL    HW164805   7.528   3.132   6.572  0.4545 -2.5935  0.4646
52648SOL    HW264806   7.602   3.102   6.443  1.2436 -1.8260  0.7298
52649SOL     OW64807   6.594   3.352   2.810 -0.0409 -0.0963  0.3165
52649SOL    HW164808   6.652   3.412   2.762  0.0272  1.4487  2.1640
52649SOL    HW264809   6.515   3.403   2.826  0.3438 -0.1122  2.6766
52650SOL     OW64810   1.038   3.015   0.378  0.0407  0.3415  0.1639
52650SOL    HW164811   1.065   2.998   0.288  3.0640  0.8060  0.8638
52650SOL    HW264812   1.070   3.103   0.397  1.8234 -0.6919  2.4143
52651SOL     OW64813   0.630   1.638   0.006 -0.4592 -0.5707  0.1409
52651SOL    HW164814   0.683   1.698   0.058 -1.0710  0.8194 -0.7546
52651SOL    HW264815   0.540   1.656   0.034 -0.9651  1.3235 -2.3280
52652SOL     OW64816   3.631  10.145   2.836 -0.1656 -0.2012  0.6817
52652SOL    HW164817   3.626  10.056   2.800  1.0775 -0.1755  0.3953
52652SOL    HW264818   3.622  10.202   2.759  2.7846 -0.1483  0.2382
52653SOL     OW64819   0.628   8.024   7.607 -0.1705  0.7542  0.0094
52653SOL    HW164820   0.590   8.090   7.549 -0.3261  0.7844  0.1467
52653SOL    HW264821   0.622   7.942   7.557 -1.3124  0.5791  0.4078
52654SOL     OW64822  11.474   7.279   8.025 -0.0623  0.2048  0.3746
52654SOL    HW164823  11.558   7.238   8.043  2.0429  3.3815 -1.2780
52654SOL    HW264824  11.446   7.242   7.941  0.0858 -0.2835  0.5402
52655SOL     OW64825   2.154   7.253  12.393 -0.3549 -0.6605 -0.3474
52655SOL    HW164826   2.175   7.321  12.457  3.8698 -1.5210 -0.5451
52655SOL    HW264827   2.199   7.281  12.313 -0.0559 -2.7406 -0.9583
52656SOL     OW64828   3.524   8.271   9.476  0.3201 -0.0210 -0.7173
52656SOL    HW164829   3.456   8.337   9.467 -0.2247 -0.3088  0.8781
52656SOL    HW264830   3.568   8.293   9.558  2.5058  0.4351 -1.9366
52657SOL     OW64831  10.402   2.287   1.433 -0.1191  0.1763  0.0102
52657SOL    HW164832  10.461   2.228   1.480  0.2928  0.2153 -0.4569
52657SOL    HW264833  10.421   2.374   1.470 -0.7396  0.0273  0.7110
52658SOL     OW64834   9.847   0.908   1.778  0.1170 -0.1318  0.3454
52658SOL    HW164835   9.870   0.950   1.694 -0.4867 -0.7935 -0.1653
52658SOL    HW264836   9.803   0.976   1.828  0.9684  0.4284  0.3425
52659SOL     OW64837   8.986   0.251   7.010 -0.0755 -0.2410  0.5984
52659SOL    HW164838   9.058   0.250   6.946 -0.9272 -1.3731 -0.3893
52659SOL    HW264839   8.928   0.321   6.980 -0.0002 -0.1355  0.6956
52660SOL     OW64840   8.267   4.126   7.958 -0.7373 -0.5362 -0.2260
52660SOL    HW164841   8.221   4.126   8.042 -0.6098  1.2069 -0.1068
52660SOL    HW264842   8.200   4.104   7.894 -1.4805  0.7204  0.0792
52661SOL     OW64843   6.471   5.080   5.782 -0.2307  0.3387 -0.1269
52661SOL    HW164844   6.560   5.113   5.771  0.6193 -2.2552 -2.1938
52661SOL    HW264845   6.448   5.103   5.872  3.5078 -0.9538  1.3691
52662SOL     OW64846  11.768   3.822   4.766 -0.8627  0.3305 -0.2861
52662SOL    HW164847  11.814   3.766   4.704 -0.6399 -2.3721  2.1353
52662SOL    HW264848  11.837   3.863   4.818 -1.1069  0.5837 -0.1544
52663SOL     OW64849   6.697   5.709  10.237 -0.0830  0.2818  0.6714
52663SOL    HW164850   6.772   5.659  10.271  1.9697  3.1033  0.7661
52663SOL    HW264851   6.702   5.792  10.285 -3.4066  0.5750  0.7046
52664SOL     OW64852   0.810  11.633   4.289  0.1284  0.6188  0.1899
52664SOL    HW164853   0.893  11.679   4.292  2.2789 -2.8658  0.3114
52664SOL    HW264854   0.829  11.547   4.327 -3.4185 -0.5167 -0.2183
52665SOL     OW64855   3.261   8.771   3.601  0.0088 -0.4410  0.5636
52665SOL    HW164856   3.333   8.771   3.664  2.1004 -0.8640 -1.7215
52665SOL    HW264857   3.246   8.678   3.581  0.6901 -0.2572 -0.9386
52666SOL     OW64858  11.134   1.798   3.774  0.5198  0.1238 -0.0741
52666SOL    HW164859  11.177   1.852   3.707 -0.8792 -0.2918 -1.3855
52666SOL    HW264860  11.165   1.709   3.757 -0.0461 -0.0240 -0.3821
52667SOL     OW64861   9.983   3.491   7.318 -0.2692  0.3623 -0.0805
52667SOL    HW164862   9.957   3.478   7.227  0.3701 -0.6253 -0.1410
52667SOL    HW264863  10.077   3.509   7.314 -0.3056  0.6762  0.3609
52668SOL     OW64864   7.352   6.450   8.705 -0.2945 -0.1751 -0.2574
52668SOL    HW164865   7.331   6.362   8.675 -0.3263 -0.4618  0.5874
52668SOL    HW264866   7.338   6.448   8.800 -0.3154  0.7426 -0.2260
52669SOL     OW64867   3.019   5.349   0.047  0.0243  0.0798  0.2968
52669SOL    HW164868   3.069   5.430   0.051 -1.9418  1.4011 -0.0833
52669SOL    HW264869   3.030   5.319  -0.043 -0.4041  0.7467  0.0136
52670SOL     OW64870   4.327   7.175   5.219  0.0733  0.5779  0.3661
52670SOL    HW164871   4.333   7.234   5.144 -2.4136  2.2063  1.3498
52670SOL    HW264872   4.362   7.225   5.292  1.0128 -0.4229  0.6295
52671SOL     OW64873   4.614   3.011  11.936  0.0941  0.0401  0.4840
52671SOL    HW164874   4.684   3.043  11.993  1.5929 -2.2160  0.0662
52671SOL    HW264875   4.565   2.949  11.990  0.7743 -1.2032 -0.2782
52672SOL     OW64876   8.732   6.543   2.177  0.1750  0.4522  0.0868
52672SOL    HW164877   8.761   6.634   2.182  1.9025 -0.0036 -0.7332
52672SOL    HW264878   8.811   6.492   2.196 -0.7976 -0.8775  0.6839
52673SOL     OW64879   0.613  11.194   2.441 -0.5317 -0.0203  0.2690
52673SOL    HW164880   0.551  11.245   2.493  0.6224  2.5109 -0.6258
52673SOL    HW264881   0.574  11.191   2.354 -0.2438 -0.0103  0.1382
52674SOL     OW64882   5.102   6.829  10.371  0.0207  0.0405 -0.2939
52674SOL    HW164883   5.060   6.747  10.346 -0.0020 -0.1612  0.3933
52674SOL    HW264884   5.135   6.814  10.460 -2.1568  1.5362  0.8722
52675SOL     OW64885   6.192   1.738   0.278  0.4033 -0.0326 -0.0319
52675SOL    HW164886   6.240   1.695   0.349  1.0061 -1.1879 -1.0938
52675SOL    HW264887   6.259   1.782   0.226  0.4846 -2.1249 -1.8471
52676SOL     OW64888   7.840  12.089   3.912 -0.1745 -0.3678 -0.0453
52676SOL    HW164889   7.879  12.017   3.961 -0.0845 -0.1261  0.2425
52676SOL    HW264890   7.868  12.168   3.958 -2.6464 -0.2282  1.4120
52677SOL     OW64891   4.486   5.799  11.452  0.1600 -0.4813  0.0851
52677SOL    HW164892   4.399   5.820  11.486  0.7047  0.3391  1.0400
52677SOL    HW264893   4.479   5.811  11.357 -0.5124  0.5764  0.2570
52678SOL     OW64894   0.453   5.072   5.588  0.0105 -0.1802  0.3557
52678SOL    HW164895   0.463   5.154   5.637 -0.7040 -0.0422  0.2791
52678SOL    HW264896   0.504   5.084   5.509  0.9277 -0.2863  0.9093
52679SOL     OW64897   5.395   7.982   2.849  0.3054  0.9784 -0.0197
52679SOL    HW164898   5.307   7.960   2.878  0.3560  1.7728  0.8021
52679SOL    HW264899   5.451   7.917   2.891  0.1884  0.9853  0.1475
52680SOL     OW64900   8.937  12.024   7.021 -0.0463  0.3893  0.5033
52680SOL    HW164901   9.010  12.087   7.017  0.1704  0.1460  0.6238
52680SOL    HW264902   8.865  12.074   7.059  0.2689  0.4290  1.0560
52681SOL     OW64903   6.323   1.416   2.256 -0.0600 -0.3065  0.0078
52681SOL    HW164904   6.262   1.445   2.324 -0.5129 -1.2668  0.0380
52681SOL    HW264905   6.340   1.324   2.278  0.1181 -0.5098 -0.9424
52682SOL     OW64906  12.437   9.154   2.417  0.1694 -0.0079  0.3174
52682SOL    HW164907  12.379   9.082   2.439 -0.7593  0.2765 -1.0731
52682SOL    HW264908  12.383   9.233   2.426  0.6340  0.3507  0.0363
52683SOL     OW64909   5.672   6.846   5.939  0.0934  0.1700 -0.0907
52683SOL    HW164910   5.631   6.929   5.964  0.2225  0.2814 -0.2431
52683SOL    HW264911   5.765   6.868   5.930  0.1309  0.0012 -0.1006
52684SOL     OW64912   6.531   6.718  11.662  0.9156  0.8068  0.0600
52684SOL    HW164913   6.601   6.658  11.689  0.9621  0.6918 -0.3008
52684SOL    HW264914   6.455   6.661  11.651 -0.4267  1.3960  4.3726
52685SOL     OW64915   3.845  11.794   9.602 -0.0514 -0.5691 -0.6813
52685SOL    HW164916   3.918  11.790   9.540  0.5051  0.9760 -0.1953
52685SOL    HW264917   3.795  11.871   9.575  0.8621  0.8667  1.3877
52686SOL     OW64918  10.258   1.283  11.288 -0.7044  0.0109  0.1243
52686SOL    HW164919  10.317   1.336  11.235 -0.8754 -1.9793 -2.2268
52686SOL    HW264920  10.315   1.221  11.334 -0.6982  0.6293  0.9791
52687SOL     OW64921  11.389   5.837   8.590 -0.0360  0.5789  0.0393
52687SOL    HW164922  11.332   5.828   8.514 -0.1653  1.5375  0.0163
52687SOL    HW264923  11.478   5.829   8.555 -0.0998  0.8528 -0.1864
52688SOL     OW64924   8.806   8.413   2.846  0.4518  0.1118  0.0727
52688SOL    HW164925   8.798   8.505   2.871  1.1440  0.0325  0.6190
52688SOL    HW264926   8.775   8.409   2.755  0.2338  0.8450  0.1157
52689SOL     OW64927  11.781   1.002   2.345  0.3788  0.0691  0.5401
52689SOL    HW164928  11.692   1.006   2.310 -0.5355 -0.6683  2.6094
52689SOL    HW264929  11.825   0.935   2.293 -1.3657 -2.0019  1.5850
52690SOL     OW64930   4.966   8.375   7.876  0.1109  0.0276  0.0795
52690SOL    HW164931   4.910   8.453   7.881  1.5230  1.0318  1.4138
52690SOL    HW264932   4.928   8.314   7.939 -0.3072  0.1153 -0.0845
52691SOL     OW64933   4.520   5.285   5.084 -0.0892  0.2103 -0.2365
52691SOL    HW164934   4.554   5.240   5.161 -1.7472  1.0780  1.0830
52691SOL    HW264935   4.532   5.378   5.104 -2.2343  0.5150 -0.1149
52692SOL     OW64936   0.147   8.341   4.226 -0.0834  0.0859 -0.0571
52692SOL    HW164937   0.135   8.427   4.185 -1.8117 -0.1664 -0.1624
52692SOL    HW264938   0.215   8.299   4.175  0.8369  1.4017  0.0236
52693SOL     OW64939  10.187   7.924   7.215 -0.0374 -0.2404 -0.3732
52693SOL    HW164940  10.162   7.865   7.286  0.4189 -1.0642 -0.8843
52693SOL    HW264941  10.253   7.982   7.254 -0.9427  0.3764  0.3063
52694SOL     OW64942   2.325   3.899   1.309  0.0642  0.4786 -0.7580
52694SOL    HW164943   2.279   3.938   1.235  0.3471 -0.4271 -1.4270
52694SOL    HW264944   2.371   3.824   1.272 -1.0779 -0.9831  0.6086
52695SOL     OW64945  10.997   7.559  11.970  0.3477 -0.1413 -0.2760
52695SOL    HW164946  11.079   7.595  11.935 -0.5422  2.5774  0.1552
52695SOL    HW264947  10.930   7.589  11.909 -0.4148 -2.0599 -0.4472
52696SOL     OW64948   7.348   5.388   7.043  0.7403 -0.6039  0.2064
52696SOL    HW164949   7.432   5.354   7.012  1.1742 -0.0630  0.7741
52696SOL    HW264950   7.324   5.456   6.980 -0.1285 -1.9036 -0.9313
52697SOL     OW64951   4.367   9.703   5.191  0.0319 -0.2855  0.3003
52697SOL    HW164952   4.348   9.711   5.097 -1.1909 -0.3313  0.5338
52697SOL    HW264953   4.396   9.791   5.217  1.1150 -0.4618 -0.2699
52698SOL     OW64954   8.873   5.265   7.258  0.0451  0.6435 -0.3765
52698SOL    HW164955   8.891   5.335   7.195  1.5671  0.9922  0.3860
52698SOL    HW264956   8.958   5.222   7.270 -0.4668 -0.1290  0.5840
52699SOL     OW64957   5.137  12.186   2.749 -0.1357  0.0004 -0.1136
52699SOL    HW164958   5.156  12.106   2.799 -1.0829 -1.0885 -1.4032
52699SOL    HW264959   5.070  12.231   2.800 -0.1014 -0.3831  0.2814
52700SOL     OW64960   4.664   3.526   7.237 -0.5525 -0.0921 -0.2722
52700SOL    HW164961   4.705   3.470   7.303 -2.1438  0.2292  1.0770
52700SOL    HW264962   4.707   3.611   7.249 -0.5643 -0.1344  0.0950
52701SOL     OW64963   9.224   4.364   6.609  0.8155  0.5041 -0.1427
52701SOL    HW164964   9.222   4.416   6.529  3.7904 -0.6926 -1.1633
52701SOL    HW264965   9.259   4.279   6.580 -1.3253 -1.1835  1.8818
52702SOL     OW64966  11.738   1.195   8.677  0.0357  0.1639  0.1288
52702SOL    HW164967  11.830   1.220   8.684 -0.1600  0.8434  0.3276
52702SOL    HW264968  11.728   1.167   8.586  0.8137 -1.5134  0.5055
52703SOL     OW64969   2.829   4.287  12.194  0.1558 -0.0891  0.3922
52703SOL    HW164970   2.849   4.365  12.246  0.2709 -0.3179  0.6972
52703SOL    HW264971   2.839   4.315  12.103 -0.4469  0.4266  0.4750
52704SOL     OW64972   5.348   2.551   4.858 -0.1684 -0.6191  0.2162
52704SOL    HW164973   5.283   2.518   4.796 -0.6489 -0.1704  0.4722
52704SOL    HW264974   5.335   2.499   4.937 -2.2116  1.3409  1.2908
52705SOL     OW64975  11.350   9.061   5.768  0.1691  0.3563 -0.2499
52705SOL    HW164976  11.287   9.114   5.816 -1.0481  0.4893 -1.9102
52705SOL    HW264977  11.368   8.987   5.826 -1.1678  0.5439  0.4513
52706SOL     OW64978   0.042  10.643   7.950  0.0215  0.1800  0.5478
52706SOL    HW164979  -0.044  10.629   7.910  0.4936  0.4140 -0.5806
52706SOL    HW264980   0.082  10.713   7.898  0.9442  0.0007  0.9867
52707SOL     OW64981   1.346   5.601   7.870  0.0255  0.0143 -0.0640
52707SOL    HW164982   1.301   5.605   7.954  0.7349 -0.1267  0.3300
52707SOL    HW264983   1.322   5.516   7.833 -1.1674  0.5310 -0.5167
52708SOL     OW64984   3.430   4.583   4.781 -0.0559  0.0784 -0.3276
52708SOL    HW164985   3.410   4.614   4.692 -0.0312 -0.8498 -0.6597
52708SOL    HW264986   3.521   4.608   4.795  0.4043 -1.0722 -1.1351
52709SOL     OW64987   0.915   4.308  12.212  0.0843  0.2532  0.3061
52709SOL    HW164988   0.991   4.303  12.155  0.2428  1.7637  0.3386
52709SOL    HW264989   0.933   4.246  12.282  1.8823  1.4371  0.9660
52710SOL     OW64990   6.200   7.668   9.258 -0.0266 -0.1661  0.4373
52710SOL    HW164991   6.185   7.686   9.165  0.4718 -0.5457  0.2789
52710SOL    HW264992   6.208   7.573   9.263  1.6575 -0.0522  0.5885
52711SOL     OW64993   3.186   5.971  11.502 -1.1384 -0.0774  0.3440
52711SOL    HW164994   3.168   6.022  11.424  0.9653 -2.4196 -1.8628
52711SOL    HW264995   3.124   5.898  11.498  0.1015 -1.1564 -0.2087
52712SOL     OW64996  12.105   4.889   3.514  0.0068  0.0671  0.2856
52712SOL    HW164997  12.159   4.936   3.578 -1.1368  1.6941  0.1033
52712SOL    HW264998  12.042   4.840   3.567  1.4024 -1.6227  0.4892
52713SOL     OW64999   1.517  10.594  12.042 -0.0570  0.3779 -0.3845
52713SOL    HW165000   1.457  10.645  12.096  0.6365  1.2507 -0.4151
52713SOL    HW265001   1.598  10.645  12.041 -0.1666  0.6000 -2.5606
52714SOL     OW65002   1.854   9.304   2.316 -0.3360  0.0596 -0.3399
52714SOL    HW165003   1.799   9.382   2.307 -0.6873 -0.1425  0.0414
52714SOL    HW265004   1.874   9.278   2.226  0.8544  1.3331 -0.4770
52715SOL     OW65005   9.031  11.002   0.936  0.1086  0.1082 -0.4581
52715SOL    HW165006   9.002  11.025   1.024 -1.8948  0.4306 -1.1516
52715SOL    HW265007   9.086  10.925   0.948  0.1657  0.3594  1.1044
52716SOL     OW65008   9.827  12.444   4.297 -0.3321  0.9415  0.3016
52716SOL    HW165009   9.894  12.506   4.327 -0.3858  1.1931 -0.0970
52716SOL    HW265010   9.810  12.468   4.206  2.1824 -1.8807 -1.0638
52717SOL     OW65011   0.590   6.860   0.232  0.1466 -0.0688  0.0519
52717SOL    HW165012   0.564   6.931   0.175  1.5833  1.1585  0.8328
52717SOL    HW265013   0.574   6.893   0.321 -2.1070 -1.9462  0.4330
52718SOL     OW65014   7.514   6.154   1.467 -0.1238  0.0497  0.1036
52718SOL    HW165015   7.497   6.168   1.374 -0.8952 -0.5058  0.1508
52718SOL    HW265016   7.462   6.222   1.511 -0.8432 -0.5326  0.1744
52719SOL     OW65017   5.366   5.624  11.742 -0.2778 -0.3224 -0.0286
52719SOL    HW165018   5.442   5.568  11.757 -0.2676 -0.5516 -0.9290
52719SOL    HW265019   5.391   5.708  11.781  0.9618 -0.0114 -1.4052
52720SOL     OW65020   8.205   8.275   7.327  0.2595 -0.4325  0.3993
52720SOL    HW165021   8.243   8.282   7.240  1.2297  0.2783  0.8631
52720SOL    HW265022   8.114   8.301   7.316  0.4311 -0.1378 -0.3692
52721SOL     OW65023  12.268   0.507   9.439  0.0234 -0.4160 -0.1855
52721SOL    HW165024  12.333   0.568   9.474  1.3178 -0.7846 -1.7772
52721SOL    HW265025  12.214   0.560   9.381  1.2286 -0.7392 -1.6686
52722SOL     OW65026  10.658   7.404   6.524  0.2156 -0.4994 -0.2968
52722SOL    HW165027  10.677   7.473   6.462  1.2230 -0.2833  0.2385
52722SOL    HW265028  10.633   7.329   6.470 -1.0633  0.3156 -0.8742
52723SOL     OW65029   4.141   2.175   2.884  0.3834 -0.1840  0.1152
52723SOL    HW165030   4.210   2.200   2.945 -0.1809  0.5903  0.4449
52723SOL    HW265031   4.159   2.226   2.805  0.5394 -0.4525 -0.0276
52724SOL     OW65032   6.144   7.320   7.577  0.2375 -0.4475 -0.1640
52724SOL    HW165033   6.151   7.414   7.560  1.3000 -0.4713  0.1070
52724SOL    HW265034   6.073   7.291   7.520  1.0920  0.1962 -1.5990
52725SOL     OW65035   3.108   6.397  11.674  0.1815  0.0085 -0.8202
52725SOL    HW165036   3.123   6.345  11.595 -0.2111 -0.1427 -0.7962
52725SOL    HW265037   3.034   6.354  11.717  0.9504 -0.4436  0.0903
52726SOL     OW65038   2.510   6.256   4.870  0.2685  0.0070 -0.4310
52726SOL    HW165039   2.540   6.343   4.895  0.1174 -0.1191  0.2237
52726SOL    HW265040   2.591   6.208   4.850  0.3356  0.3642 -1.0427
52727SOL     OW65041   2.031   2.467   3.896  0.0727 -0.0063 -0.2990
52727SOL    HW165042   1.992   2.448   3.812  0.1712 -1.6552 -0.0052
52727SOL    HW265043   1.957   2.487   3.954 -0.1123 -0.3092 -0.4299
52728SOL     OW65044   9.570  11.831   7.071 -0.1810 -0.1926  0.5773
52728SOL    HW165045   9.624  11.890   7.124 -0.1623  0.8594 -0.5931
52728SOL    HW265046   9.483  11.872   7.070 -0.5906 -1.0070  1.0406
52729SOL     OW65047  12.469   7.912   6.460 -0.5279  0.0143 -0.3236
52729SOL    HW165048  12.559   7.939   6.473  0.1240 -2.0235 -0.2438
52729SOL    HW265049  12.433   7.976   6.398  0.6838  1.3550  0.3253
52730SOL     OW65050   1.688   9.765   5.766  0.1948  0.1484 -0.6425
52730SOL    HW165051   1.717   9.687   5.719  0.2353  0.1356 -0.5957
52730SOL    HW265052   1.750   9.774   5.839 -0.9233 -0.8806  0.4964
52731SOL     OW65053   2.471  10.261   9.474 -0.1274  0.2098  0.0745
52731SOL    HW165054   2.391  10.222   9.508 -0.9267  0.9131 -0.9273
52731SOL    HW265055   2.514  10.191   9.425 -0.3467 -0.0574  0.2696
52732SOL     OW65056  12.057   8.150   0.625  0.1365 -0.2429  0.1308
52732SOL    HW165057  12.014   8.231   0.594 -1.3790 -1.1610 -0.2688
52732SOL    HW265058  12.048   8.153   0.720 -0.2557 -0.1197  0.0917
52733SOL     OW65059   7.354   6.044   4.525  0.4100  0.1435 -0.1984
52733SOL    HW165060   7.305   5.981   4.473 -2.1017  0.5712  1.4704
52733SOL    HW265061   7.310   6.127   4.510  1.7702  0.9238 -0.0072
52734SOL     OW65062   9.965  11.573  11.334 -0.2744  0.3425  0.7198
52734SOL    HW165063  10.058  11.596  11.323 -0.4075  0.9003  0.7157
52734SOL    HW265064   9.957  11.485  11.297  0.6568 -0.5397  2.4804
52735SOL     OW65065  12.207   5.139   5.652  0.3292 -0.2652 -0.0922
52735SOL    HW165066  12.208   5.060   5.704 -1.4259  0.2182  0.7487
52735SOL    HW265067  12.251   5.205   5.706 -1.1591  0.1396  0.6921
52736SOL     OW65068   9.835   2.214   6.148  0.1832 -0.3410  0.5080
52736SOL    HW165069   9.875   2.200   6.233  1.4277  0.4524  0.0864
52736SOL    HW265070   9.790   2.298   6.155  0.9887  0.1399  0.1720
52737SOL     OW65071   7.878   4.818   5.347 -0.1655  0.5535 -0.6634
52737SOL    HW165072   7.895   4.723   5.353  0.6565  0.7846  2.9252
52737SOL    HW265073   7.953   4.852   5.297 -0.1016 -0.5891 -1.3841
52738SOL     OW65074   1.517   7.996   0.726  0.2922 -0.1287  0.7326
52738SOL    HW165075   1.553   8.083   0.707 -0.3307 -0.3412 -1.7099
52738SOL    HW265076   1.462   8.009   0.803 -0.7780  1.9496 -0.2946
52739SOL     OW65077   6.619   1.655   3.985 -0.1411  0.2696  0.1252
52739SOL    HW165078   6.532   1.687   4.010  0.5653  1.3753  1.2937
52739SOL    HW265079   6.654   1.723   3.927 -0.0377 -0.1679 -0.3341
52740SOL     OW65080  12.211   2.523   4.433 -0.5503 -0.2522 -0.4091
52740SOL    HW165081  12.140   2.460   4.432  0.1012 -1.0127 -1.6785
52740SOL    HW265082  12.287   2.473   4.463  0.0134 -0.1497 -1.6157
52741SOL     OW65083   6.774   9.545   0.944  0.3794 -0.2612 -0.2998
52741SOL    HW165084   6.738   9.541   1.032  0.0763 -1.2360 -0.4569
52741SOL    HW265085   6.802   9.455   0.925  1.2555  0.1080 -0.8628
52742SOL     OW65086   0.147   0.798   3.190 -0.1740 -0.6689 -0.5868
52742SOL    HW165087   0.069   0.742   3.193 -0.9119  0.3337 -0.3937
52742SOL    HW265088   0.208   0.751   3.133  0.1662 -2.7962  1.3760
52743SOL     OW65089   3.602  11.631   8.404 -0.3812 -0.5462  0.7464
52743SOL    HW165090   3.617  11.654   8.313 -1.3768  0.0102  0.7130
52743SOL    HW265091   3.688  11.603   8.437 -0.1584 -1.4942 -0.5608
52744SOL     OW65092   2.335   2.382   2.012  0.6442 -0.2468  0.4324
52744SOL    HW165093   2.276   2.441   2.059  0.1741  0.1553 -0.6290
52744SOL    HW265094   2.293   2.296   2.016  0.3424 -0.1049  0.2966
52745SOL     OW65095   6.026   1.670  10.180  0.8039 -0.3458  0.2483
52745SOL    HW165096   5.966   1.742  10.197  1.2235 -0.1946  1.1178
52745SOL    HW265097   6.060   1.687  10.092  0.2871  0.0655  0.1237
52746SOL     OW65098  10.871   8.313   7.591 -0.0516  0.1277 -0.3636
52746SOL    HW165099  10.931   8.337   7.521  0.9262  1.0023  0.7357
52746SOL    HW265100  10.828   8.233   7.560  2.0957 -0.8752 -0.9392
52747SOL     OW65101   9.812   0.441   4.497  0.2220 -0.4567 -0.3881
52747SOL    HW165102   9.794   0.348   4.507 -0.4462 -0.3614 -0.6591
52747SOL    HW265103   9.735   0.476   4.453 -0.8307  0.7287  2.2031
52748SOL     OW65104   6.008   2.549   0.618  0.2295  0.0736  0.0674
52748SOL    HW165105   6.031   2.457   0.613 -1.7281 -0.5197  0.8393
52748SOL    HW265106   6.076   2.589   0.672  0.4646 -1.1600  0.7009
52749SOL     OW65107   6.497   3.026  10.218  0.2369  0.6142  0.2179
52749SOL    HW165108   6.479   2.932  10.226  1.6930  0.2872  0.0718
52749SOL    HW265109   6.559   3.032  10.145 -0.8985  1.8573 -0.6888
52750SOL     OW65110   6.418   8.951   3.544  0.1270  0.0997 -0.3767
52750SOL    HW165111   6.415   8.918   3.634  0.9234  0.6847 -0.1214
52750SOL    HW265112   6.367   8.887   3.493 -0.2860 -0.2655  0.4740
52751SOL     OW65113   6.032  11.606  10.625 -0.5750  0.1840 -0.5034
52751SOL    HW165114   5.978  11.543  10.577 -0.7784  1.6718 -2.3874
52751SOL    HW265115   6.084  11.648  10.557 -1.1386  2.6907  0.5018
52752SOL     OW65116   4.291   7.724   3.402  0.3048 -0.3568 -0.2137
52752SOL    HW165117   4.253   7.646   3.363  0.8084 -0.9059  0.3616
52752SOL    HW265118   4.296   7.704   3.496 -1.7833  1.3066  0.3169
52753SOL     OW65119   1.129   7.506   9.537  0.2731  0.0426  0.4721
52753SOL    HW165120   1.187   7.432   9.515 -2.5964 -2.8374  1.8707
52753SOL    HW265121   1.088   7.529   9.454  1.5699  0.4902 -0.0754
52754SOL     OW65122   5.282   3.965   2.708  0.0831 -0.2082 -0.1944
52754SOL    HW165123   5.352   3.919   2.660  1.6997  2.2510 -0.3881
52754SOL    HW265124   5.329   4.022   2.769 -1.7017  2.0425 -0.7996
52755SOL     OW65125   4.557   4.533  10.968  0.1938 -0.7821 -0.3246
52755SOL    HW165126   4.529   4.444  10.945  3.4958 -1.8660 -0.6163
52755SOL    HW265127   4.588   4.526  11.058 -0.9549  0.5041  0.2061
52756SOL     OW65128  10.179   3.370   7.506  0.2215 -0.1556  0.6534
52756SOL    HW165129  10.136   3.301   7.457 -1.4377  0.2393  1.4541
52756SOL    HW265130  10.107   3.426   7.537  1.3778  0.9754  1.4361
52757SOL     OW65131  11.285   3.894   2.508  0.3230 -0.3330  0.0910
52757SOL    HW165132  11.358   3.903   2.447  0.0128  0.9510 -0.1243
52757SOL    HW265133  11.321   3.922   2.593  0.3147 -0.5671  0.1740
52758SOL     OW65134   3.325   8.074   7.451 -0.0557 -0.0437  0.0854
52758SOL    HW165135   3.322   8.153   7.505 -0.1095  0.8205 -1.1405
52758SOL    HW265136   3.419   8.056   7.441 -0.0326  0.0882  0.0581
52759SOL     OW65137  11.508   3.203  12.117  0.0797 -0.0679 -0.4225
52759SOL    HW165138  11.550   3.276  12.070  0.1101  0.3547  0.2463
52759SOL    HW265139  11.492   3.238  12.205  0.3330 -0.9630 -0.0161
52760SOL     OW65140   9.756  12.065  10.326 -0.1199  0.1648  0.1493
52760SOL    HW165141   9.777  12.073  10.419  0.2658 -1.7390  0.2604
52760SOL    HW265142   9.821  12.003  10.292 -2.7617 -2.5163 -0.4317
52761SOL     OW65143   8.461   2.702  11.973  0.2970 -0.5301 -0.5719
52761SOL    HW165144   8.366   2.693  11.974  0.4304 -1.9860 -0.0194
52761SOL    HW265145   8.475   2.797  11.969 -1.1667 -0.1901  0.9679
52762SOL     OW65146  10.193   1.547   8.990 -0.2127 -0.0290 -0.3089
52762SOL    HW165147  10.126   1.481   9.008 -1.0086  0.5414 -1.0642
52762SOL    HW265148  10.276   1.500   8.997 -0.7524 -1.0658 -0.6587
52763SOL     OW65149   7.296  11.004  11.690 -0.1801 -0.6100  0.0677
52763SOL    HW165150   7.327  11.093  11.706  1.0479 -1.0229  0.0913
52763SOL    HW265151   7.356  10.968  11.625 -0.3546 -1.5808  0.4136
52764SOL     OW65152   6.407   9.420  12.064 -0.3883 -0.3047  0.2491
52764SOL    HW165153   6.401   9.325  12.053 -1.4063 -0.5045  2.1287
52764SOL    HW265154   6.317   9.451  12.053  0.0319  0.5608 -0.9785
52765SOL     OW65155  11.477   0.360   8.605 -0.1496  0.1844  0.0584
52765SOL    HW165156  11.558   0.401   8.635  1.5655 -1.2130 -2.3167
52765SOL    HW265157  11.494   0.266   8.609 -1.4036 -0.1281 -1.0665
52766SOL     OW65158   4.570   0.700   6.243  0.4415 -0.3635 -0.2585
52766SOL    HW165159   4.520   0.782   6.240  0.7033  0.0339  3.0786
52766SOL    HW265160   4.661   0.727   6.232  0.3557 -0.5366 -1.5525
52767SOL     OW65161  12.481   0.360   7.341  0.1712  0.5949 -0.0321
52767SOL    HW165162  12.502   0.292   7.277  0.3587 -0.5359  1.1884
52767SOL    HW265163  12.460   0.312   7.421  0.6842  1.9837  0.9829
52768SOL     OW65164   0.558   9.435   6.798 -0.0439  0.4753  0.3404
52768SOL    HW165165   0.504   9.360   6.774 -0.5016  0.4656  1.3338
52768SOL    HW265166   0.637   9.426   6.745 -0.1615 -0.6221  0.3270
52769SOL     OW65167   0.635   7.918   2.526  0.0006  0.3396 -0.0971
52769SOL    HW165168   0.555   7.971   2.532 -0.1878  0.1917 -1.0241
52769SOL    HW265169   0.678   7.950   2.446  1.1873  0.8354  0.7089
52770SOL     OW65170  12.208  10.105   5.207 -0.4667  0.1882  0.1160
52770SOL    HW165171  12.209  10.201   5.198  0.7863  0.1835  0.0413
52770SOL    HW265172  12.296  10.083   5.237 -0.1600 -1.1114 -1.6113
52771SOL     OW65173   8.687   1.074   6.736 -0.4481 -0.2032  0.5718
52771SOL    HW165174   8.614   1.071   6.799 -0.2131  0.8127  0.9211
52771SOL    HW265175   8.755   1.020   6.775 -1.0124 -1.2017  0.2213
52772SOL     OW65176   8.666   1.534   5.268  0.2625  0.6348 -0.0402
52772SOL    HW165177   8.600   1.556   5.335  0.5558  0.3725  0.3390
52772SOL    HW265178   8.620   1.475   5.208  1.0124 -2.2088  1.9961
52773SOL     OW65179  10.593   2.725   5.442 -0.8165 -0.2138  0.2979
52773SOL    HW165180  10.614   2.634   5.461 -2.1004 -0.5699  0.0920
52773SOL    HW265181  10.558   2.759   5.525  0.7955  0.4750  0.7421
52774SOL     OW65182   5.902   5.012   8.200 -0.1334 -0.2424 -0.5960
52774SOL    HW165183   5.963   5.042   8.132 -1.0927  0.2241 -1.2685
52774SOL    HW265184   5.831   5.075   8.199 -0.6816 -0.8284  0.1134
52775SOL     OW65185   6.553   1.054   1.229 -0.1479  0.4389  0.5198
52775SOL    HW165186   6.497   1.125   1.201 -0.8266 -0.2870 -0.0096
52775SOL    HW265187   6.577   1.008   1.148 -1.1671 -0.9746  0.9809
52776SOL     OW65188   4.787   3.671   6.623 -0.5606 -0.2447  0.2350
52776SOL    HW165189   4.803   3.650   6.532 -0.3353 -0.4827  0.3280
52776SOL    HW265190   4.700   3.636   6.641 -0.7646  0.1381  0.0106
52777SOL     OW65191   8.582  10.290   0.384  0.0535  0.1254 -0.3261
52777SOL    HW165192   8.584  10.367   0.328  0.1790 -0.0751 -0.6018
52777SOL    HW265193   8.657  10.300   0.442  0.6394 -0.2661 -1.0089
52778SOL     OW65194   4.724   2.091   2.759  0.1988 -0.6689 -0.1261
52778SOL    HW165195   4.731   2.085   2.854  1.6663 -0.9285 -0.2158
52778SOL    HW265196   4.718   2.000   2.730 -2.0918 -0.5340 -0.2095
52779SOL     OW65197   9.493  12.108   4.848 -0.1812 -0.4865 -0.1730
52779SOL    HW165198   9.510  12.198   4.819 -0.3460  0.5189  2.5756
52779SOL    HW265199   9.557  12.055   4.800  1.1522  1.3497 -0.5324
52780SOL     OW65200   4.233   6.907   9.786 -0.0826  0.3758 -0.6438
52780SOL    HW165201   4.312   6.870   9.745 -0.2956  0.3665 -1.0461
52780SOL    HW265202   4.162   6.851   9.756 -0.1394 -0.1602  0.4274
52781SOL     OW65203   6.306   8.402   7.310  0.3427  0.4564 -0.2029
52781SOL    HW165204   6.266   8.442   7.387  1.2731 -0.5291  0.8415
52781SOL    HW265205   6.293   8.308   7.322 -0.0990  0.3107 -1.6169
52782SOL     OW65206   3.549   4.707   0.441  0.4492  0.8031  0.6475
52782SOL    HW165207   3.533   4.797   0.467  0.9043  0.6593  1.4652
52782SOL    HW265208   3.639   4.706   0.409 -0.2343  1.0629 -1.3921
52783SOL     OW65209   2.544   3.737   7.146 -0.0269  0.4641  0.6224
52783SOL    HW165210   2.459   3.731   7.102 -0.0803 -0.1716  0.7997
52783SOL    HW265211   2.588   3.810   7.103 -0.1522 -0.0286 -0.3620
52784SOL     OW65212   8.215   0.489   5.525 -0.1649  0.4417  0.4003
52784SOL    HW165213   8.242   0.399   5.510 -0.6932  0.1371  1.2261
52784SOL    HW265214   8.154   0.485   5.598  0.7311  1.6093  1.2638
52785SOL     OW65215   5.046  11.154  11.624  0.5437 -0.4193 -0.1364
52785SOL    HW165216   5.100  11.075  11.628  1.3890  0.0810 -1.1750
52785SOL    HW265217   5.064  11.190  11.537 -0.9233  0.1489 -0.2312
52786SOL     OW65218   7.719   5.650   7.939 -0.0744 -0.0312 -0.1338
52786SOL    HW165219   7.710   5.745   7.932  1.6948  0.0761 -1.5679
52786SOL    HW265220   7.763   5.637   8.023 -0.8788  0.3618  0.3592
52787SOL     OW65221   0.216   4.201   3.844  0.9012  0.0290  0.4483
52787SOL    HW165222   0.238   4.252   3.767  0.8794 -3.3113 -2.0151
52787SOL    HW265223   0.299   4.162   3.872  0.3414 -2.0568 -0.5822
52788SOL     OW65224   0.586  11.957   0.811  0.1490 -0.4140 -0.4844
52788SOL    HW165225   0.672  11.972   0.773 -0.1730  0.7666 -0.7739
52788SOL    HW265226   0.561  12.040   0.849 -1.0144 -0.6315 -0.7156
52789SOL     OW65227   3.086  10.361   2.565 -0.6535 -0.5983 -0.0716
52789SOL    HW165228   3.006  10.399   2.529 -0.6102  0.5256  0.9358
52789SOL    HW265229   3.066  10.349   2.658  0.6776  0.7025  0.4239
52790SOL     OW65230   3.738   0.582   3.400  0.2450 -0.0913 -0.8978
52790SOL    HW165231   3.824   0.541   3.404  1.0605  1.4470 -1.6194
52790SOL    HW265232   3.729   0.627   3.485  0.4332  0.2525 -1.0571
52791SOL     OW65233  11.534   2.164   7.688  0.1694 -0.0787 -0.6928
52791SOL    HW165234  11.485   2.246   7.690 -0.2387 -0.3341  0.3183
52791SOL    HW265235  11.470   2.099   7.661 -0.6821 -0.7637  2.5008
52792SOL     OW65236  11.009  12.289   4.086 -0.2279  0.4336 -0.7962
52792SOL    HW165237  10.942  12.339   4.039  0.2508  0.5661 -1.3423
52792SOL    HW265238  11.055  12.355   4.138 -0.6346  0.3136 -0.2708
52793SOL     OW65239   0.300  10.028   8.924  0.7031 -0.3044  0.1131
52793SOL    HW165240   0.357  10.076   8.983 -0.1610  1.9205 -0.7267
52793SOL    HW265241   0.358   9.995   8.855  1.1268  1.1218 -0.2422
52794SOL     OW65242  10.490   1.402   6.635  0.4736 -1.0044  0.6162
52794SOL    HW165243  10.585   1.400   6.625  0.5040 -1.8314  0.9501
52794SOL    HW265244  10.469   1.318   6.676 -0.5778 -1.5651 -0.9645
52795SOL     OW65245   4.856   7.899   2.717  0.2909 -0.6989  0.0154
52795SOL    HW165246   4.864   7.965   2.648  0.8462  0.8877  1.5055
52795SOL    HW265247   4.768   7.912   2.753  0.4573 -0.6513  0.4170
52796SOL     OW65248   5.782   0.993   2.546 -0.2303 -0.1951  0.6918
52796SOL    HW165249   5.824   0.931   2.486 -1.9727  1.3075 -2.3322
52796SOL    HW265250   5.751   0.939   2.619  2.6558 -2.0123  0.7402
52797SOL     OW65251   0.736   4.295   4.668 -0.1394  0.3661  0.0479
52797SOL    HW165252   0.782   4.347   4.734  0.5267 -0.7223  0.4681
52797SOL    HW265253   0.787   4.307   4.588  0.3197 -0.0590  0.2741
52798SOL     OW65254   2.111   9.184  10.128 -0.8428 -0.0531  0.0269
52798SOL    HW165255   2.084   9.130  10.053 -0.7592 -0.0981  0.0287
52798SOL    HW265256   2.038   9.178  10.189 -0.2902 -1.2586  0.6188
52799SOL     OW65257   2.539  11.426   7.015 -0.1864 -0.1549 -0.6310
52799SOL    HW165258   2.567  11.494   6.954 -0.1289 -2.2271 -3.1105
52799SOL    HW265259   2.525  11.349   6.960  0.9646 -2.5359  2.1067
52800SOL     OW65260  11.160   2.199   4.110  0.0834 -0.1571 -0.1017
52800SOL    HW165261  11.181   2.282   4.067 -0.2362  0.1470  0.3162
52800SOL    HW265262  11.226   2.191   4.179  2.1348 -1.8275 -2.0831
52801SOL     OW65263   4.738   2.117  11.277 -0.2238  0.1614  0.5120
52801SOL    HW165264   4.755   2.078  11.363 -0.8375 -1.9648 -0.2756
52801SOL    HW265265   4.753   2.046  11.214 -0.4119  1.4866 -1.1078
52802SOL     OW65266  11.961  10.313  12.351 -0.1648 -0.3337  0.1014
52802SOL    HW165267  11.912  10.383  12.306  2.1640  2.5571  1.6753
52802SOL    HW265268  12.051  10.326  12.322  0.3281 -3.0021  0.2378
52803SOL     OW65269  12.121   0.953   7.762  0.9900 -0.3400 -0.2015
52803SOL    HW165270  12.208   0.993   7.750  0.7636  0.4117  0.5824
52803SOL    HW265271  12.068   0.991   7.691  1.4064 -1.1522 -0.9644
52804SOL     OW65272   6.312  11.647   7.505  0.5589  0.9618  0.2031
52804SOL    HW165273   6.333  11.554   7.505 -2.4935  0.1554  0.3085
52804SOL    HW265274   6.346  11.681   7.422  1.5000 -0.2885  0.0655
52805SOL     OW65275   0.366   2.883   0.180  0.5451  0.1953 -0.1737
52805SOL    HW165276   0.360   2.925   0.266  0.2984  1.3808 -0.7598
52805SOL    HW265277   0.354   2.790   0.198 -1.2321  0.5914  0.8854
52806SOL     OW65278   8.266   8.899   0.673  0.1089 -0.1773  0.0477
52806SOL    HW165279   8.258   8.946   0.756  0.1361 -1.6368  0.9183
52806SOL    HW265280   8.333   8.946   0.624 -1.7492  2.2855 -0.2943
52807SOL     OW65281   2.165   0.973  10.584  0.7925  0.4897 -0.0450
52807SOL    HW165282   2.137   1.048  10.532  1.8550  0.2302 -0.9993
52807SOL    HW265283   2.260   0.970  10.575  1.1787  1.0797  2.7763
52808SOL     OW65284   5.823   1.713   1.261 -0.2449  0.4050 -0.7905
52808SOL    HW165285   5.869   1.629   1.267 -0.8006  0.1912  1.1174
52808SOL    HW265286   5.812   1.728   1.167  1.5480 -0.7121 -1.2221
52809SOL     OW65287   2.627  11.921  11.515 -0.1430 -0.4968  0.5030
52809SOL    HW165288   2.560  11.987  11.500 -0.3726 -0.8413 -0.0051
52809SOL    HW265289   2.670  11.910  11.430  0.8204 -0.0017  0.9054
52810SOL     OW65290  12.137  10.699   8.842 -0.3080  0.2203 -0.2644
52810SOL    HW165291  12.152  10.679   8.935 -2.6777  0.1109  0.1436
52810SOL    HW265292  12.069  10.638   8.815  0.8143 -0.2003 -2.3054
52811SOL     OW65293   1.076   0.938   1.321 -0.0855  0.4180  0.0975
52811SOL    HW165294   1.097   0.940   1.414  2.5942 -0.4802 -0.4012
52811SOL    HW265295   1.135   1.002   1.282  2.0613 -2.2955 -1.4446
52812SOL     OW65296   4.604   0.250  10.770  0.3226  0.1294  0.3703
52812SOL    HW165297   4.560   0.243  10.855  1.2855  1.8515  1.0926
52812SOL    HW265298   4.563   0.326  10.728 -0.3106 -0.8578 -0.8370
52813SOL     OW65299  10.035   0.213   1.136  0.2428  0.4260  0.2028
52813SOL    HW165300  10.001   0.232   1.048 -2.7192  0.3793  1.2267
52813SOL    HW265301  10.068   0.297   1.167  0.0067  0.7630 -0.4328
52814SOL     OW65302  11.906  10.135   9.005  0.0748  0.5003  0.2930
52814SOL    HW165303  11.920  10.133   9.100 -1.8383  0.3165  0.6111
52814SOL    HW265304  11.848  10.210   8.991 -1.0526 -0.4872 -0.5030
52815SOL     OW65305   0.024   5.501   5.073 -0.6851  0.2046  0.2947
52815SOL    HW165306   0.086   5.554   5.123 -0.7179 -0.1976  0.7708
52815SOL    HW265307  -0.046   5.481   5.135 -0.6913 -0.3594  0.1119
52816SOL     OW65308   6.749  12.217   5.583 -0.5603  0.2921  0.0389
52816SOL    HW165309   6.752  12.270   5.663 -2.3950 -0.3147  0.5489
52816SOL    HW265310   6.664  12.237   5.544 -0.0152 -0.0231 -1.3604
52817SOL     OW65311  12.428   4.926   3.975 -0.3109 -0.2821 -0.1732
52817SOL    HW165312  12.442   5.019   3.959 -1.8607  0.5785  2.7534
52817SOL    HW265313  12.514   4.892   4.001  0.7984 -0.3323 -3.4267
52818SOL     OW65314   9.055   2.507   8.966 -0.2423  0.4377  0.7104
52818SOL    HW165315   9.065   2.601   8.983 -0.9430  0.5874  0.3471
52818SOL    HW265316   9.037   2.502   8.872  1.6259 -0.2118  0.3528
52819SOL     OW65317   3.063  11.336  11.328 -0.0048 -0.0191  0.1420
52819SOL    HW165318   3.136  11.295  11.374  0.5192  1.1640  0.4014
52819SOL    HW265319   3.015  11.263  11.289  1.0398 -0.8449  0.3690
52820SOL     OW65320  10.744   2.845  11.973  0.1402 -0.1075 -0.1539
52820SOL    HW165321  10.789   2.929  11.970 -1.9634  1.1118  0.5478
52820SOL    HW265322  10.689   2.850  12.052 -2.0583 -1.0375 -1.5337
52821SOL     OW65323   6.930   8.745   0.715  0.2131 -0.1719 -0.4810
52821SOL    HW165324   6.941   8.835   0.684  0.1736  0.9669  2.5122
52821SOL    HW265325   6.855   8.750   0.775 -0.3448 -2.4098 -0.9308
52822SOL     OW65326   6.696   9.668   6.596  0.5298 -0.4468 -0.1647
52822SOL    HW165327   6.754   9.734   6.632 -0.1282 -0.4568  0.9744
52822SOL    HW265328   6.640   9.715   6.535  1.6093 -0.4118 -1.1532
52823SOL     OW65329   9.969   6.015   0.569  0.3903 -0.2195 -0.3868
52823SOL    HW165330  10.017   6.087   0.528  0.5923  0.2560  0.6520
52823SOL    HW265331   9.936   5.963   0.495 -0.0037  1.0917 -1.1648
52824SOL     OW65332   6.241  10.353  11.839 -0.1583 -0.0642  0.1113
52824SOL    HW165333   6.329  10.323  11.818 -0.6033 -0.2786 -1.6972
52824SOL    HW265334   6.215  10.405  11.763 -0.2990  3.0647  2.1208
52825SOL     OW65335   0.905   7.352   2.996 -0.1513  0.0863 -0.6053
52825SOL    HW165336   0.958   7.381   2.922  0.7938  1.1197  0.4217
52825SOL    HW265337   0.887   7.432   3.045  2.0248 -0.8395  2.0191
52826SOL     OW65338   9.563   9.004  11.678  0.3085 -0.5955 -0.2664
52826SOL    HW165339   9.561   8.910  11.659 -0.0183 -0.9657  1.4328
52826SOL    HW265340   9.533   9.045  11.597  1.0454 -1.8969 -1.2645
52827SOL     OW65341   8.853  10.272  11.153  0.1754  0.1658  0.3444
52827SOL    HW165342   8.851  10.177  11.158 -0.5422  0.2392  2.5932
52827SOL    HW265343   8.794  10.294  11.082 -0.7415 -1.0485  0.7012
52828SOL     OW65344  12.369   5.369   4.101  0.3215 -0.6663  0.1794
52828SOL    HW165345  12.371   5.438   4.035 -3.2426 -0.6259 -0.0607
52828SOL    HW265346  12.403   5.292   4.056  1.6118  0.2186 -0.4415
52829SOL     OW65347   9.680   0.777   8.308 -0.0788  0.1755  0.5196
52829SOL    HW165348   9.737   0.827   8.249  0.1860  0.1860  0.7815
52829SOL    HW265349   9.705   0.805   8.395  2.2772 -2.6513  0.8966
52830SOL     OW65350   6.503  10.598   1.729 -0.9778  0.1232  0.3091
52830SOL    HW165351   6.434  10.540   1.698  0.7870 -0.6838 -2.5405
52830SOL    HW265352   6.540  10.636   1.649  0.7933  1.8055  1.8060
52831SOL     OW65353  10.128  11.717   9.971 -0.1459  0.1692  0.2522
52831SOL    HW165354  10.174  11.774  10.033  0.9072 -2.6011  2.2416
52831SOL    HW265355  10.045  11.697  10.013 -0.1200 -0.4609  0.0185
52832SOL     OW65356   6.605   6.241   1.566  0.6167  0.2748  0.1013
52832SOL    HW165357   6.656   6.181   1.620  0.8879  1.2678  0.9915
52832SOL    HW265358   6.534   6.270   1.623 -0.1989 -0.0809 -0.6995
52833SOL     OW65359  11.008   7.943   2.064  0.5472 -0.2751 -0.3095
52833SOL    HW165360  11.102   7.946   2.044  0.5042  0.0540 -0.4749
52833SOL    HW265361  10.998   8.003   2.138  0.5680 -0.8234  0.1454
52834SOL     OW65362  11.176   0.088  10.276  0.3926 -0.0584 -0.0134
52834SOL    HW165363  11.102   0.064  10.221  0.7918  0.0665 -0.6168
52834SOL    HW265364  11.200   0.007  10.321 -0.1781 -0.0719  0.2672
52835SOL     OW65365   0.860   8.327   0.408  0.0317  0.6626  0.3640
52835SOL    HW165366   0.896   8.240   0.427  0.2409 -0.3805 -3.7177
52835SOL    HW265367   0.767   8.319   0.427 -0.4714 -1.5026 -2.2882
52836SOL     OW65368   7.655   1.217   7.572 -0.3208  0.1349 -0.0038
52836SOL    HW165369   7.606   1.179   7.499 -0.6666 -0.5089  0.5521
52836SOL    HW265370   7.632   1.310   7.570 -2.0996 -0.2565  0.6302
52837SOL     OW65371   1.449  10.866   8.500  0.1418 -0.2464  0.1745
52837SOL    HW165372   1.457  10.955   8.466  0.9486 -0.3839 -0.0049
52837SOL    HW265373   1.405  10.818   8.429  0.5282 -0.2004 -0.1002
52838SOL     OW65374   3.855   4.260   7.174 -0.4591  0.1931 -0.0419
52838SOL    HW165375   3.761   4.241   7.171 -0.6172  0.9658 -0.0934
52838SOL    HW265376   3.862   4.352   7.151  0.2523  0.3385  0.6921
52839SOL     OW65377   5.279   8.582   3.339  0.4483 -0.1615  0.3086
52839SOL    HW165378   5.285   8.521   3.266  2.5717 -1.0571  1.1493
52839SOL    HW265379   5.208   8.642   3.315  0.2547 -1.1863 -1.8745
52840SOL     OW65380  10.693   0.443   0.054 -0.0543 -0.2895 -0.2530
52840SOL    HW165381  10.764   0.379   0.044  1.9622  1.6913  0.3592
52840SOL    HW265382  10.646   0.415   0.132 -0.1861 -1.8410 -0.8604
52841SOL     OW65383  10.515  12.117   4.736  0.1641  0.0349 -0.1009
52841SOL    HW165384  10.559  12.184   4.788 -0.3737  0.3382 -0.0330
52841SOL    HW265385  10.581  12.089   4.673  0.6646  0.0150  0.4254
52842SOL     OW65386  10.934  11.438   2.302 -0.3984 -0.2791  0.0217
52842SOL    HW165387  10.961  11.476   2.386 -2.8482 -0.5556  1.0291
52842SOL    HW265388  10.844  11.470   2.289 -0.5239 -1.2517 -1.8976
52843SOL     OW65389   8.994   7.727   9.816 -0.0027 -0.1473 -0.6389
52843SOL    HW165390   8.986   7.732   9.911  0.1841 -0.1365 -0.6228
52843SOL    HW265391   9.010   7.817   9.789 -1.3908  0.0580 -0.8088
52844SOL     OW65392  11.112   0.531  12.464 -0.1664  0.1114 -0.4590
52844SOL    HW165393  11.184   0.586  12.432  0.2850 -0.7519 -0.9645
52844SOL    HW265394  11.103   0.555  12.556  1.1351 -0.1411 -0.2433
52845SOL     OW65395   2.138   6.431   0.269  0.1191  1.2297 -0.0452
52845SOL    HW165396   2.107   6.485   0.342 -0.6953  2.2881 -1.1121
52845SOL    HW265397   2.059   6.414   0.218  0.5151 -0.3268 -0.1630
52846SOL     OW65398   5.520   3.842  11.982 -0.1023  0.4416  0.1675
52846SOL    HW165399   5.508   3.882  11.896  0.9374 -1.1567 -0.7780
52846SOL    HW265400   5.615   3.837  11.994 -0.2225  0.9744  1.5978
52847SOL     OW65401  11.422   1.856  10.068  0.0634 -0.2182 -0.1682
52847SOL    HW165402  11.382   1.786  10.121 -0.3381 -0.8498 -1.2596
52847SOL    HW265403  11.347   1.904  10.033  0.2863 -0.4352 -0.9647
52848SOL     OW65404  11.775   9.622   6.400  1.3474 -0.5061  0.0152
52848SOL    HW165405  11.696   9.580   6.433 -0.4016  2.2324 -0.4098
52848SOL    HW265406  11.839   9.614   6.471 -0.1504 -0.5718  1.3862
52849SOL     OW65407   8.147   0.792   9.775 -0.4746 -0.3036  0.9611
52849SOL    HW165408   8.223   0.749   9.738 -0.0889  0.6880  0.5573
52849SOL    HW265409   8.113   0.846   9.704 -1.8895 -1.1363  0.9661
52850SOL     OW65410   0.527   8.958   1.951 -0.0683 -0.3527 -0.1190
52850SOL    HW165411   0.464   8.896   1.990 -0.6072  0.4850  0.3660
52850SOL    HW265412   0.483   9.042   1.954  0.7663  0.1117 -0.5358
52851SOL     OW65413   5.830   0.138   6.519  0.5047  0.5446 -0.1446
52851SOL    HW165414   5.864   0.228   6.513  0.0548  0.8562  1.5540
52851SOL    HW265415   5.737   0.146   6.501  0.3598  0.5017  0.5905
52852SOL     OW65416   4.364   9.696   1.118 -0.4838  0.6744 -0.2585
52852SOL    HW165417   4.377   9.695   1.023 -1.9748  1.1928 -0.4902
52852SOL    HW265418   4.365   9.788   1.142 -0.2700  0.5548  0.2162
52853SOL     OW65419   5.051  11.951   4.988  0.1179 -0.2491 -0.0910
52853SOL    HW165420   5.066  11.962   5.082 -0.9176 -1.8853  0.3091
52853SOL    HW265421   4.982  12.014   4.967  0.9892  0.7770  0.0173
52854SOL     OW65422   4.777   9.193   7.303  0.0753 -0.0072 -0.7988
52854SOL    HW165423   4.725   9.113   7.298  0.4944 -0.3551  0.1765
52854SOL    HW265424   4.732   9.248   7.367  0.2325  0.1871 -0.8531
52855SOL     OW65425   1.270   5.286  10.189 -0.4173 -0.0507 -0.5581
52855SOL    HW165426   1.286   5.197  10.221  1.7380  0.7903  0.9571
52855SOL    HW265427   1.193   5.316  10.236 -1.8160 -1.4361 -1.8712
52856SOL     OW65428  10.259   2.485   9.614 -0.4892  0.8742  0.0736
52856SOL    HW165429  10.341   2.453   9.652 -0.7755  0.5481  0.4235
52856SOL    HW265430  10.259   2.451   9.524 -0.9937 -0.5057  0.5714
52857SOL     OW65431   3.344   3.420   5.003  0.1666  0.0997  0.3069
52857SOL    HW165432   3.411   3.377   4.951 -0.2250 -0.4304  0.2366
52857SOL    HW265433   3.345   3.511   4.973  1.0495  0.1689  0.5136
52858SOL     OW65434   2.347  11.377  11.135 -0.6563  0.1079  0.6082
52858SOL    HW165435   2.260  11.338  11.135 -1.3961  1.6865  0.9586
52858SOL    HW265436   2.334  11.466  11.104  1.1050 -0.1212 -1.0110
52859SOL     OW65437   7.616   8.574   6.235  0.3010  0.4032  0.0633
52859SOL    HW165438   7.653   8.653   6.197  0.4033  0.9721  1.3107
52859SOL    HW265439   7.531   8.601   6.270 -0.5877 -0.5133 -1.3021
52860SOL     OW65440   6.476   9.188   5.066  0.7034 -0.4109  0.5009
52860SOL    HW165441   6.475   9.182   5.162 -0.5302  0.9197  0.5969
52860SOL    HW265442   6.569   9.200   5.044  0.9449 -0.2189  1.5657
52861SOL     OW65443  11.951   6.610   2.388 -0.0085 -0.4236 -0.0132
52861SOL    HW165444  11.877   6.653   2.431 -0.7680  0.7778 -2.3177
52861SOL    HW265445  11.911   6.536   2.341  0.8776 -2.0457  1.6880
52862SOL     OW65446   1.696   6.181   2.396  0.4886 -0.2969 -0.5631
52862SOL    HW165447   1.717   6.140   2.311  0.0105 -1.9829  0.0891
52862SOL    HW265448   1.611   6.222   2.382  0.3541 -0.6669 -0.8793
52863SOL     OW65449  10.819   9.284   2.902  0.1452 -0.2649  0.0105
52863SOL    HW165450  10.858   9.364   2.866  0.1565 -0.4066 -0.3026
52863SOL    HW265451  10.860   9.214   2.851  0.1521 -0.4691  0.2985
52864SOL     OW65452   7.702   5.283   0.593 -0.2696  0.1642 -0.3045
52864SOL    HW165453   7.724   5.203   0.545 -1.0839 -0.5374  0.4539
52864SOL    HW265454   7.717   5.354   0.530  0.8861 -0.5316 -0.8567
52865SOL     OW65455  12.320   8.235   6.560 -0.5579 -0.0094 -0.3643
52865SOL    HW165456  12.404   8.207   6.597 -1.3688 -1.2657  0.6089
52865SOL    HW265457  12.325   8.212   6.467  0.4794  0.7306 -0.5137
52866SOL     OW65458   4.642   3.484  10.622 -0.7963 -0.1177  0.0930
52866SOL    HW165459   4.646   3.573  10.656 -0.7604 -0.3813  0.7850
52866SOL    HW265460   4.731   3.450  10.632 -0.2337  0.4749 -2.1640
52867SOL     OW65461   5.018   9.966   6.360 -0.1636 -0.1876 -0.2572
52867SOL    HW165462   4.973  10.050   6.366  0.2092 -0.0839  1.5237
52867SOL    HW265463   5.109   9.984   6.384  0.6895 -0.5730 -2.9143
52868SOL     OW65464   6.879   5.296   9.447  0.1558  0.4337 -0.2442
52868SOL    HW165465   6.848   5.267   9.361 -1.4401 -1.6308  0.9312
52868SOL    HW265466   6.807   5.350   9.481 -0.4833 -1.0596  0.8771
52869SOL     OW65467   6.176   2.656   6.074  0.0049 -0.4461 -0.2716
52869SOL    HW165468   6.187   2.733   6.130  1.1372 -0.9612  0.2636
52869SOL    HW265469   6.107   2.605   6.117  0.6898 -0.7141  0.5396
52870SOL     OW65470   8.291   9.763   0.706 -0.5548 -0.3860 -0.3520
52870SOL    HW165471   8.329   9.717   0.781  0.3920  1.5300  0.4402
52870SOL    HW265472   8.315   9.710   0.630  0.2692 -1.3083  0.5143
52871SOL     OW65473   5.101  11.437  12.289 -0.1872  0.8195  0.0980
52871SOL    HW165474   5.154  11.377  12.236  0.0676  0.6543  0.5384
52871SOL    HW265475   5.133  11.425  12.378  0.6997  2.4717  0.0498
52872SOL     OW65476  11.179   4.103   9.973  0.4379  0.2564 -0.6703
52872SOL    HW165477  11.202   4.192   9.946  1.5590 -0.0685 -0.8392
52872SOL    HW265478  11.090   4.090   9.939  1.3625  0.2529 -3.3059
52873SOL     OW65479   7.342   2.203   1.267  0.2713  0.0501  0.3088
52873SOL    HW165480   7.277   2.181   1.334  1.2926  0.5370  1.5104
52873SOL    HW265481   7.404   2.130   1.270 -0.1688 -0.3779 -0.7776
52874SOL     OW65482   6.201   2.663   0.770 -0.3056  0.0800 -0.2607
52874SOL    HW165483   6.182   2.732   0.834 -0.9075  0.4325 -0.7944
52874SOL    HW265484   6.252   2.598   0.818 -0.3954  0.5305  0.4607
52875SOL     OW65485   8.207   2.131   3.848 -0.3146 -0.5149  0.5399
52875SOL    HW165486   8.192   2.092   3.762 -0.2201  0.1263  0.2248
52875SOL    HW265487   8.120   2.142   3.885 -0.3779 -0.4492  0.3710
52876SOL     OW65488   7.283   2.047   5.753  0.1757  0.1608  0.1195
52876SOL    HW165489   7.257   2.135   5.726 -1.5784 -0.5851 -0.7475
52876SOL    HW265490   7.215   1.990   5.719  1.3051 -1.5658  0.6102
52877SOL     OW65491   8.978   9.417   5.768  0.6992  0.6621  0.0154
52877SOL    HW165492   8.973   9.331   5.810 -0.0907  1.3005  1.2904
52877SOL    HW265493   8.896   9.423   5.718  0.2095  1.1022  0.8407
52878SOL     OW65494  11.254  12.405   6.574 -0.2269  0.5076 -0.4226
52878SOL    HW165495  11.203  12.451   6.507  1.2344  1.3155 -1.0349
52878SOL    HW265496  11.344  12.432   6.558  0.4079 -0.8672  0.6268
52879SOL     OW65497   7.079   0.349   0.293 -0.8496 -0.0937 -0.3299
52879SOL    HW165498   7.099   0.432   0.335 -0.9057 -0.5762  0.6786
52879SOL    HW265499   7.164   0.308   0.278 -0.8724 -0.3848  0.2988
52880SOL     OW65500   3.529   5.484  11.905 -0.1315 -0.2114  0.2687
52880SOL    HW165501   3.497   5.568  11.938  1.8860  0.9497 -0.5055
52880SOL    HW265502   3.454   5.444  11.862 -1.0235  1.4522  0.2193
52881SOL     OW65503   9.155  11.500   9.259  0.0208 -0.1999 -0.5528
52881SOL    HW165504   9.237  11.509   9.209  0.6668 -3.3314 -0.2676
52881SOL    HW265505   9.139  11.588   9.294  2.9248  0.6750 -1.1243
52882SOL     OW65506   2.195   5.814  11.030  0.1663 -0.2207 -0.1686
52882SOL    HW165507   2.132   5.815  10.957  0.5535 -2.1052 -0.5961
52882SOL    HW265508   2.164   5.743  11.087  2.1087 -1.5325 -0.6341
52883SOL     OW65509   6.192   5.157   3.983  0.1793 -0.3184  0.0583
52883SOL    HW165510   6.098   5.142   3.998 -0.0350  1.6334  0.9236
52883SOL    HW265511   6.196   5.228   3.920  1.0877 -0.4306 -0.0266
52884SOL     OW65512   3.438   5.070   9.535  1.1426 -0.1289  0.4142
52884SOL    HW165513   3.526   5.034   9.523  1.2596 -1.2851  3.7204
52884SOL    HW265514   3.449   5.140   9.600 -0.2172  0.6838 -0.1808
52885SOL     OW65515   1.839   8.083   0.313 -0.4887  0.3380 -0.1607
52885SOL    HW165516   1.864   8.165   0.355  0.3468  0.3681 -0.6962
52885SOL    HW265517   1.919   8.052   0.270 -0.6352 -1.0373  0.4823
52886SOL     OW65518   3.440   8.988   9.043 -0.2182  0.7891  0.8627
52886SOL    HW165519   3.383   8.914   9.020  0.9485  0.3996 -0.9508
52886SOL    HW265520   3.506   8.951   9.101 -0.4444  0.7222  1.0784
52887SOL     OW65521   5.816  11.464  11.607 -0.4762 -0.2220  0.0331
52887SOL    HW165522   5.757  11.510  11.666  1.7119  2.6037  0.2409
52887SOL    HW265523   5.888  11.435  11.663 -0.1801 -0.8772 -0.6679
52888SOL     OW65524   5.729   7.126   7.231 -0.2031 -0.0673  0.0160
52888SOL    HW165525   5.671   7.155   7.161  0.9063  0.6303 -0.6298
52888SOL    HW265526   5.711   7.032   7.239  1.1813 -0.6518 -2.7213
52889SOL     OW65527   0.373   7.901   4.687 -0.0939 -0.8748 -0.5456
52889SOL    HW165528   0.347   7.897   4.595 -0.4928  0.4184 -0.5089
52889SOL    HW265529   0.466   7.923   4.685 -0.3109  0.0831 -0.6515
52890SOL     OW65530   3.425   0.675  11.979  0.0399 -0.0149 -0.0138
52890SOL    HW165531   3.418   0.623  11.899  0.5265  0.0376 -0.0897
52890SOL    HW265532   3.461   0.759  11.950  2.6671 -0.8594  0.6118
52891SOL     OW65533   6.627  11.057  12.183 -0.4984 -0.2128 -0.0862
52891SOL    HW165534   6.624  11.104  12.100  2.3600 -1.2083 -0.8550
52891SOL    HW265535   6.593  10.970  12.162  0.7144 -0.6318 -0.3863
52892SOL     OW65536  12.344   9.385  11.408 -0.1922  0.5021 -0.6220
52892SOL    HW165537  12.326   9.431  11.326 -1.2207 -1.1656 -1.3831
52892SOL    HW265538  12.257   9.368  11.446  0.2623  1.2457  0.8366
52893SOL     OW65539   5.353   4.405   7.610  0.0897  0.5636  0.0191
52893SOL    HW165540   5.363   4.316   7.645 -1.3608  0.3593 -0.0333
52893SOL    HW265541   5.388   4.400   7.521  3.6387  1.0369  1.2223
52894SOL     OW65542   6.079   8.326   7.692 -0.1134  0.1026 -0.2752
52894SOL    HW165543   5.999   8.274   7.686  0.3139 -0.7381  1.0200
52894SOL    HW265544   6.140   8.272   7.741  1.2408  0.7742 -1.1453
52895SOL     OW65545   1.142   5.387  12.079 -0.4078 -0.5564  0.2467
52895SOL    HW165546   1.214   5.390  12.142 -0.2867 -2.2811  0.2329
52895SOL    HW265547   1.128   5.294  12.063 -2.7001 -0.2892  0.3049
52896SOL     OW65548   4.295   4.809   1.687 -0.1090 -0.2489  0.1846
52896SOL    HW165549   4.302   4.894   1.730  2.1086  0.5643 -1.5572
52896SOL    HW265550   4.260   4.828   1.600  0.7225 -1.0300 -0.3470
52897SOL     OW65551   4.694  11.427   1.705  0.6010  0.5859  0.2276
52897SOL    HW165552   4.621  11.486   1.724  1.6066  2.8121 -2.2763
52897SOL    HW265553   4.753  11.437   1.780 -0.8102  0.0342  1.4682
52898SOL     OW65554   7.333   5.994   9.588 -0.3505 -0.0545 -0.1581
52898SOL    HW165555   7.269   5.929   9.614 -1.3220  0.3086 -1.5504
52898SOL    HW265556   7.315   6.011   9.496  0.5718  1.3974 -0.1104
52899SOL     OW65557   9.484   8.479   4.407  0.0201  0.1173  0.1697
52899SOL    HW165558   9.468   8.573   4.396 -1.8550 -0.4526 -2.7441
52899SOL    HW265559   9.576   8.468   4.382  0.1902  1.0993  0.3051
52900SOL     OW65560   5.660   6.255  10.536 -0.0808  0.0410  0.0973
52900SOL    HW165561   5.574   6.219  10.515  0.4636 -1.3214  0.1388
52900SOL    HW265562   5.643   6.321  10.604 -1.2946  1.1357 -1.2168
52901SOL     OW65563   4.852  11.153   6.926 -0.4299 -0.0591  0.0428
52901SOL    HW165564   4.919  11.106   6.877  1.2693  3.7503 -1.7149
52901SOL    HW265565   4.771  11.139   6.876  0.0166 -1.0150 -0.4403
52902SOL     OW65566   1.877  11.368   7.150  0.7870  0.2768  0.5083
52902SOL    HW165567   1.853  11.355   7.058  1.4024 -1.4553  0.5609
52902SOL    HW265568   1.798  11.406   7.190  0.1016 -0.0601 -0.4892
52903SOL     OW65569   7.278   0.678   8.020  0.0912 -0.1063  0.4138
52903SOL    HW165570   7.317   0.712   7.940  0.0948  1.1301  0.9007
52903SOL    HW265571   7.312   0.589   8.029  1.3059  0.2821 -0.1541
52904SOL     OW65572   2.207  10.634   1.715  0.0410  0.1643 -0.1762
52904SOL    HW165573   2.211  10.539   1.704  0.3509  0.1437  0.1312
52904SOL    HW265574   2.113  10.652   1.725  0.1156 -0.3499  1.8515
52905SOL     OW65575   9.238   8.332   3.157 -0.1242  0.0555  0.1388
52905SOL    HW165576   9.173   8.381   3.107  0.3944  0.9777  0.3534
52905SOL    HW265577   9.268   8.393   3.224 -0.6947 -1.0966  1.5220
52906SOL     OW65578   7.724   7.867   8.553 -0.0409 -0.3046  0.3292
52906SOL    HW165579   7.703   7.855   8.461 -3.3569 -2.2052  1.2091
52906SOL    HW265580   7.813   7.832   8.562  0.8726  1.0772 -2.2845
52907SOL     OW65581   0.745   0.490   0.559 -0.3149  0.0777 -0.4126
52907SOL    HW165582   0.738   0.539   0.477 -0.4968  0.1313 -0.3664
52907SOL    HW265583   0.796   0.413   0.536  2.9267  1.8711  0.2287
52908SOL     OW65584   4.938  10.355  11.803 -0.4140 -0.2699  0.0997
52908SOL    HW165585   4.949  10.413  11.728 -0.1061 -0.0839  0.2891
52908SOL    HW265586   5.028  10.335  11.831 -0.5069  1.6095  1.9396
52909SOL     OW65587   3.468   0.465  11.487  0.0926 -0.3525  0.0453
52909SOL    HW165588   3.417   0.418  11.553  0.1059 -0.6052 -0.1239
52909SOL    HW265589   3.402   0.515  11.438  0.3382  2.4740  2.3026
52910SOL     OW65590   4.221   9.932   2.894  0.2457 -0.0264 -0.2633
52910SOL    HW165591   4.187   9.845   2.873 -2.8040  0.3485  2.2350
52910SOL    HW265592   4.292   9.915   2.956  0.5519 -0.7672 -0.8080
52911SOL     OW65593  10.097   4.932   3.088  0.6972 -0.4019 -0.1720
52911SOL    HW165594  10.177   4.963   3.132  0.4538 -0.5298  0.3733
52911SOL    HW265595  10.062   5.011   3.046 -0.5173  0.4046  2.1311
52912SOL     OW65596   4.493  11.992   1.987 -0.1803  0.1373  0.3024
52912SOL    HW165597   4.466  12.048   1.915 -1.7539 -1.9013 -0.8190
52912SOL    HW265598   4.540  12.050   2.047 -2.3853  2.7817 -0.3570
52913SOL     OW65599   1.453   4.041  12.199  0.1445 -1.0266 -0.1304
52913SOL    HW165600   1.455   4.114  12.260 -0.0727 -1.3411  0.2520
52913SOL    HW265601   1.495   4.075  12.120  2.3842 -1.2504  0.8708
52914SOL     OW65602   3.828   1.529   3.618 -0.0771  0.1703 -0.4906
52914SOL    HW165603   3.877   1.603   3.655  4.4623 -2.0810 -1.1931
52914SOL    HW265604   3.793   1.562   3.536  3.2046  1.3463 -1.5903
52915SOL     OW65605   7.472   7.827   2.786 -0.1089 -0.6204  0.0717
52915SOL    HW165606   7.467   7.735   2.760 -1.7891 -1.1312  1.9556
52915SOL    HW265607   7.555   7.833   2.833  0.0925 -1.1196 -0.2016
52916SOL     OW65608   6.629   4.605   6.163 -0.0373  0.3108  0.3934
52916SOL    HW165609   6.686   4.596   6.239 -0.9885  0.6576  1.1534
52916SOL    HW265610   6.653   4.531   6.107  0.4247 -0.1453  1.1792
52917SOL     OW65611   8.881   6.428   7.271 -0.0672  0.3258  0.4090
52917SOL    HW165612   8.894   6.348   7.220  3.4444  1.2830 -0.5072
52917SOL    HW265613   8.827   6.484   7.215  0.8956  0.0821 -0.8227
52918SOL     OW65614  10.410   8.553   8.602  0.4727  0.4593  0.1453
52918SOL    HW165615  10.442   8.578   8.689 -0.8373  0.7743  0.5593
52918SOL    HW265616  10.445   8.619   8.543  0.4644  0.8860  0.6111
52919SOL     OW65617  10.711   8.390  11.937  0.2374  0.2447  0.6639
52919SOL    HW165618  10.656   8.434  12.001 -3.4643 -2.1690 -0.5399
52919SOL    HW265619  10.691   8.434  11.854 -2.2082 -2.3214 -0.2502
52920SOL     OW65620   3.954   0.566   1.964  0.5923 -0.2658  0.0594
52920SOL    HW165621   3.943   0.537   1.874  3.4775 -3.0111  0.4175
52920SOL    HW265622   4.027   0.628   1.961  0.3608  0.0303  0.4549
52921SOL     OW65623   6.465  11.472   3.034 -0.1779  0.4596  0.0321
52921SOL    HW165624   6.401  11.534   3.067  1.3507  1.9540  0.3343
52921SOL    HW265625   6.430  11.443   2.950 -1.3675  0.9841  0.3265
52922SOL     OW65626  10.360   7.843  12.449 -0.3564  0.7810 -0.0720
52922SOL    HW165627  10.448   7.804  12.443  0.6091  2.9553 -0.8721
52922SOL    HW265628  10.356   7.906  12.377 -1.2247  3.3145  2.0517
52923SOL     OW65629   9.234   5.076   0.037  0.3483  0.3684 -0.1931
52923SOL    HW165630   9.330   5.075   0.034  0.3225 -0.5349 -2.1279
52923SOL    HW265631   9.213   5.157   0.083  2.0287  0.7973 -0.0911
52924SOL     OW65632  11.031   8.429  10.252  0.2527  0.1757 -0.7376
52924SOL    HW165633  11.079   8.471  10.324 -2.1256  0.4369  0.8197
52924SOL    HW265634  11.026   8.337  10.278 -1.3641  0.4218 -0.0414
52925SOL     OW65635   6.612   6.287   7.065  0.1519  0.2904  0.2679
52925SOL    HW165636   6.657   6.313   6.984  1.0010 -2.8900 -0.4198
52925SOL    HW265637   6.681   6.279   7.130 -0.1860  0.4787  0.6553
52926SOL     OW65638   7.822  11.281  11.882  0.2456  0.5722  0.5348
52926SOL    HW165639   7.745  11.282  11.826  0.0323 -0.4408  0.7807
52926SOL    HW265640   7.852  11.190  11.879  0.8897  0.7537  1.1627
52927SOL     OW65641   4.610   3.645   3.209 -0.2690 -0.3648 -0.1737
52927SOL    HW165642   4.675   3.685   3.266  1.6531 -2.8055 -0.5055
52927SOL    HW265643   4.567   3.719   3.166  0.9466  1.3781  1.4829
52928SOL     OW65644   6.617   6.762   1.696 -0.1087 -0.0899  0.3825
52928SOL    HW165645   6.583   6.754   1.785  2.0820  1.6786  1.4595
52928SOL    HW265646   6.649   6.674   1.675 -2.2800 -0.9915  0.5504
52929SOL     OW65647  10.651   6.863   9.995  0.7239 -0.0600 -0.1588
52929SOL    HW165648  10.564   6.901   9.999  1.1588  0.9307  0.1553
52929SOL    HW265649  10.636   6.769   9.991 -0.3388  0.0555  0.8125
52930SOL     OW65650   8.770   1.883   3.293 -0.8840 -0.0365 -0.3966
52930SOL    HW165651   8.735   1.842   3.372 -1.9938  0.4989 -0.5988
52930SOL    HW265652   8.865   1.877   3.304 -1.0097  0.3535  1.1479
52931SOL     OW65653   9.300   8.042   2.753  0.2194 -0.2048  0.0288
52931SOL    HW165654   9.293   7.946   2.744  1.1489 -0.4883  1.8694
52931SOL    HW265655   9.321   8.073   2.665 -0.5469 -1.6352 -0.7023
52932SOL     OW65656   3.776   2.381   3.684  0.0901  0.1819 -0.1155
52932SOL    HW165657   3.759   2.296   3.644 -0.4246  0.4031 -0.3911
52932SOL    HW265658   3.804   2.361   3.773 -0.7288 -0.2660  0.0589
52933SOL     OW65659   0.111   2.098   0.538 -0.0648 -0.1337 -0.5008
52933SOL    HW165660   0.103   2.193   0.538 -0.0211 -0.1241  0.2715
52933SOL    HW265661   0.022   2.066   0.522  0.0613  0.0337 -1.6087
52934SOL     OW65662   5.794   8.210  12.179 -0.3602  0.0543 -0.3424
52934SOL    HW165663   5.759   8.121  12.173 -0.8691  0.1827  0.5236
52934SOL    HW265664   5.817   8.233  12.089 -1.0976 -0.6016 -0.7134
52935SOL     OW65665   1.669   5.922   2.745  0.3815 -0.5150 -0.1925
52935SOL    HW165666   1.748   5.887   2.703 -0.3722 -2.1268 -0.3678
52935SOL    HW265667   1.655   5.865   2.821  0.3157  0.8137  0.8233
52936SOL     OW65668  11.971   9.781   7.575  0.1009 -0.0935  0.4928
52936SOL    HW165669  11.968   9.713   7.509 -0.3389 -0.8885  1.3065
52936SOL    HW265670  12.063   9.787   7.599  0.4008  0.8105 -0.7801
52937SOL     OW65671  10.064   4.028   2.220 -0.0492  0.3576  0.4076
52937SOL    HW165672  10.114   3.958   2.262  1.4515  1.1446  0.0352
52937SOL    HW265673   9.999   4.054   2.285  1.4068  0.6966  1.8059
52938SOL     OW65674   0.724   5.562   7.812  0.0887  0.1861  0.1885
52938SOL    HW165675   0.640   5.567   7.766 -0.5673 -0.7282  1.2401
52938SOL    HW265676   0.741   5.652   7.838  0.9158  0.9057 -2.5057
52939SOL     OW65677   7.861   7.343   2.535  0.1337  0.3873 -0.4958
52939SOL    HW165678   7.781   7.303   2.500  0.9841 -0.3584 -1.6259
52939SOL    HW265679   7.855   7.435   2.509 -0.6019  0.4516 -0.1174
52940SOL     OW65680   6.446   0.935   7.146 -0.8083  0.6386 -0.1090
52940SOL    HW165681   6.390   0.936   7.224 -0.9641 -3.0050 -0.0181
52940SOL    HW265682   6.458   1.028   7.125 -2.5234  1.7243  2.9469
52941SOL     OW65683   7.659   3.906   0.353  0.0980  0.2362  0.0597
52941SOL    HW165684   7.584   3.928   0.408 -1.3532 -2.1161 -0.8222
52941SOL    HW265685   7.731   3.894   0.414 -1.3323 -1.7379  1.4719
52942SOL     OW65686   1.271   8.099   5.370 -0.0460  0.1660  0.1204
52942SOL    HW165687   1.348   8.080   5.424 -0.6162 -0.7008  0.6545
52942SOL    HW265688   1.307   8.123   5.284  0.7896 -2.0909 -0.2237
52943SOL     OW65689   7.841   3.122  10.630 -0.3294  0.3977 -0.6076
52943SOL    HW165690   7.810   3.209  10.605  1.2574  1.6601  1.4552
52943SOL    HW265691   7.928   3.116  10.592 -0.1377  0.0288 -0.1236
52944SOL     OW65692  12.253   1.935   2.591  0.2332 -0.1383 -0.0855
52944SOL    HW165693  12.173   1.883   2.600  0.1070  0.1739  0.7447
52944SOL    HW265694  12.230   2.007   2.532  0.1710 -0.5615 -0.5776
52945SOL     OW65695   3.570  10.621   4.946 -0.6582 -0.3321  0.6415
52945SOL    HW165696   3.646  10.582   4.904  0.9094  1.0508  2.0677
52945SOL    HW265697   3.531  10.676   4.878 -0.4104 -1.0684 -0.1083
52946SOL     OW65698   1.833  10.076   6.692  0.1609  0.0620  0.3648
52946SOL    HW165699   1.864  10.164   6.671  0.2529  0.9665  3.7106
52946SOL    HW265700   1.744  10.074   6.657  0.1963  1.4664  0.1139
52947SOL     OW65701   2.222   0.814   0.639  0.2988  0.1212  0.7214
52947SOL    HW165702   2.215   0.733   0.689 -0.4315 -1.4721 -1.7440
52947SOL    HW265703   2.314   0.819   0.613  0.1348 -0.5675 -0.0430
52948SOL     OW65704  12.399   1.949   1.833 -0.2877  0.8163 -0.5126
52948SOL    HW165705  12.413   1.909   1.918 -0.4434  1.2294 -0.2880
52948SOL    HW265706  12.480   1.932   1.784 -0.2422  0.4842 -0.3230
52949SOL     OW65707   7.967   5.505   0.149 -0.1626 -0.3352 -0.2469
52949SOL    HW165708   8.002   5.524   0.062 -0.6026 -0.0793 -0.3720
52949SOL    HW265709   7.991   5.581   0.202  0.7048 -0.7980  0.0406
52950SOL     OW65710   4.610   2.596   6.273  0.2724  0.0446 -0.0089
52950SOL    HW165711   4.696   2.554   6.270  0.8491  1.0802  1.1418
52950SOL    HW265712   4.601   2.637   6.187 -0.4061 -2.5136 -1.2528
52951SOL     OW65713  10.757   1.626   5.338  0.5676  0.3443 -0.3100
52951SOL    HW165714  10.796   1.628   5.425  1.3354  1.8965 -0.6540
52951SOL    HW265715  10.784   1.542   5.301  0.6854 -0.0922  0.7414
52952SOL     OW65716   0.928   4.451   0.056 -0.0904 -0.0613 -0.1195
52952SOL    HW165717   0.970   4.529   0.092  0.8346 -0.8495  0.5552
52952SOL    HW265718   0.998   4.405   0.010  0.0153 -1.7350  1.5843
52953SOL     OW65719   9.900   0.974   6.782  0.4802 -0.6045  0.1562
52953SOL    HW165720   9.808   0.946   6.774  0.4482 -0.3385 -0.4767
52953SOL    HW265721   9.950   0.903   6.744  0.4532 -0.2047 -0.6422
52954SOL     OW65722   2.889   3.185   8.406  0.1893 -0.1951  0.4403
52954SOL    HW165723   2.896   3.197   8.501  1.1143 -1.4676  0.5482
52954SOL    HW265724   2.970   3.223   8.371 -0.3438  0.6698  0.0902
52955SOL     OW65725  10.437   8.058   1.535 -0.0619 -0.4949 -0.3850
52955SOL    HW165726  10.423   8.151   1.517  0.5117 -0.4963 -0.8908
52955SOL    HW265727  10.454   8.020   1.449  1.4104 -0.7555 -0.0136
52956SOL     OW65728   4.855   3.438   9.430 -0.2868 -0.1303 -0.0004
52956SOL    HW165729   4.920   3.369   9.415 -0.8441 -0.5794 -0.3800
52956SOL    HW265730   4.803   3.440   9.349 -2.1737 -1.3310  1.0939
52957SOL     OW65731   9.530  12.349   9.347  0.3774  0.0814  0.0502
52957SOL    HW165732   9.559  12.269   9.389  2.1140  0.2437 -0.7749
52957SOL    HW265733   9.609  12.402   9.338 -0.9400  2.6488  2.0656
52958SOL     OW65734   7.100   9.852   2.300 -0.1840 -0.3126  0.2499
52958SOL    HW165735   7.137   9.831   2.386 -1.5585  1.5586  1.3796
52958SOL    HW265736   7.005   9.847   2.314 -0.4273 -0.9667 -1.4638
52959SOL     OW65737   1.195  11.033   8.565 -0.0596 -0.2931 -0.6173
52959SOL    HW165738   1.155  11.083   8.636 -0.7928  0.2584 -1.3949
52959SOL    HW265739   1.262  11.093   8.529  1.6378 -1.2588  0.7692
52960SOL     OW65740   4.536   6.855   8.661 -0.9259 -0.5341 -0.0443
52960SOL    HW165741   4.536   6.766   8.697  0.0856  0.5340  2.7953
52960SOL    HW265742   4.445   6.870   8.636 -1.4521 -1.7802  0.9839
52961SOL     OW65743   5.816   4.606   4.002 -0.3000 -0.3552 -0.7282
52961SOL    HW165744   5.762   4.531   3.977 -0.5789  0.0623 -1.4100
52961SOL    HW265745   5.776   4.637   4.083 -1.0394 -0.1080 -1.1712
52962SOL     OW65746   6.609   4.207   5.503 -0.4999  0.8667 -0.3625
52962SOL    HW165747   6.613   4.287   5.450  0.8542  1.9488  1.2630
52962SOL    HW265748   6.689   4.159   5.479 -0.6052  0.6752 -0.3311
52963SOL     OW65749   7.486  12.038   7.791  0.6556  0.1284 -0.3417
52963SOL    HW165750   7.414  12.086   7.751 -0.7686 -1.1844  0.5518
52963SOL    HW265751   7.518  11.981   7.721  0.9845  0.8482 -0.7950
52964SOL     OW65752  11.073   2.173   1.667 -0.8363 -0.2461 -0.1848
52964SOL    HW165753  11.134   2.233   1.711 -1.1812  0.4331 -0.6161
52964SOL    HW265754  11.127   2.099   1.640 -0.5363 -0.4824  1.0020
52965SOL     OW65755  10.576   1.574   5.105  0.0658  0.1111  0.3528
52965SOL    HW165756  10.636   1.614   5.167 -1.5866  1.7460  0.9909
52965SOL    HW265757  10.490   1.610   5.127 -0.9090 -0.8239 -1.5885
52966SOL     OW65758  11.386   5.907  12.014 -0.5753 -0.4890  0.3548
52966SOL    HW165759  11.313   5.885  12.073  0.4881 -0.3843  1.7641
52966SOL    HW265760  11.459   5.926  12.073 -0.4975  3.6876 -0.8072
52967SOL     OW65761  11.092   0.401   0.736 -0.1393 -0.7197  0.6539
52967SOL    HW165762  11.012   0.359   0.705 -0.7482  1.3553 -0.7989
52967SOL    HW265763  11.088   0.394   0.831 -2.7068  0.4482  0.6875
52968SOL     OW65764   1.631   5.656   9.851 -0.0203 -0.3136  0.5687
52968SOL    HW165765   1.676   5.634   9.770 -0.8210  0.3035 -0.0669
52968SOL    HW265766   1.678   5.608   9.919  1.8462  0.6136  0.0060
52969SOL     OW65767   2.815   5.521   9.142  0.2556 -0.3689 -0.2945
52969SOL    HW165768   2.896   5.483   9.178  0.6510  0.8413  0.1258
52969SOL    HW265769   2.828   5.517   9.047  1.6051  1.3880 -0.2390
52970SOL     OW65770   0.602  11.033   1.519 -0.8825  0.6219 -0.1623
52970SOL    HW165771   0.574  11.064   1.432  0.4269  0.3175 -0.7278
52970SOL    HW265772   0.598  11.111   1.574  0.9366  1.5394 -1.2083
52971SOL     OW65773   9.367  11.962   1.952  0.6177  0.6664 -0.2208
52971SOL    HW165774   9.436  12.015   1.912  1.2993  1.0683  1.4152
52971SOL    HW265775   9.395  11.872   1.938  1.3988  0.8227  0.2706
52972SOL     OW65776  12.101   9.345   8.347 -0.2714 -0.1597 -0.0388
52972SOL    HW165777  12.010   9.321   8.359 -0.1836 -1.3637 -1.5186
52972SOL    HW265778  12.151   9.272   8.384  0.1051  0.2375  0.2625
52973SOL     OW65779   3.871   9.161   6.521  0.1009  0.4905  0.1794
52973SOL    HW165780   3.860   9.074   6.482 -1.7970  1.0609 -0.6421
52973SOL    HW265781   3.932   9.206   6.462 -0.0407  0.1943 -0.1966
52974SOL     OW65782   0.278   2.690   1.041  0.0790 -0.0448 -0.2290
52974SOL    HW165783   0.290   2.679   1.135  0.3956 -0.5293 -0.3221
52974SOL    HW265784   0.334   2.623   1.001 -0.2046  0.0222 -0.7572
52975SOL     OW65785   9.924  11.097   6.217  0.1484  0.6373  0.4042
52975SOL    HW165786   9.921  11.192   6.223  2.7542  0.8805 -0.7938
52975SOL    HW265787   9.898  11.077   6.127  1.6240  0.4311 -0.0054
52976SOL     OW65788   7.763   6.611   4.051  0.6272 -0.0298 -0.7126
52976SOL    HW165789   7.807   6.683   4.005 -0.9341  1.4945  0.0638
52976SOL    HW265790   7.736   6.551   3.982  3.3344 -0.7588 -1.2673
52977SOL     OW65791   5.688   8.659  11.402 -0.2282 -0.5394 -0.3527
52977SOL    HW165792   5.655   8.664  11.491 -1.1051 -0.6265 -0.6635
52977SOL    HW265793   5.774   8.616  11.410 -1.4269 -2.9945  0.1825
52978SOL     OW65794  11.990  11.079  11.509  0.0350 -0.3903 -0.4937
52978SOL    HW165795  12.029  11.056  11.594  0.1790 -2.5771 -1.0852
52978SOL    HW265796  12.062  11.116  11.459  0.6315 -1.5082 -0.5068
52979SOL     OW65797   8.911   0.517   8.828  0.0533  0.0583  0.6883
52979SOL    HW165798   8.983   0.502   8.889  0.6259 -0.9068 -0.1833
52979SOL    HW265799   8.916   0.610   8.807  1.3717 -0.0858  0.2597
52980SOL     OW65800  12.240   2.990   9.865  0.1268  0.5040 -0.2424
52980SOL    HW165801  12.254   2.914   9.810 -2.2988 -0.8025  0.7739
52980SOL    HW265802  12.146   2.987   9.886  0.5485  2.0727  2.2666
52981SOL     OW65803   2.184   9.802  10.521  0.1563 -0.0589 -0.1716
52981SOL    HW165804   2.161   9.736  10.586 -1.0210  0.5051  0.0137
52981SOL    HW265805   2.260   9.766  10.475 -0.3606 -1.4504  0.0408
52982SOL     OW65806   1.633   7.619  11.914 -0.4169  0.1761 -0.4019
52982SOL    HW165807   1.578   7.674  11.859 -2.0233 -0.4213  0.5634
52982SOL    HW265808   1.601   7.634  12.003  1.9753  0.9619  0.4045
52983SOL     OW65809  12.184   7.671  11.398 -0.2476  0.1256 -0.0433
52983SOL    HW165810  12.251   7.686  11.331 -1.0172  3.7833 -0.1872
52983SOL    HW265811  12.228   7.688  11.481 -0.1226 -1.1661  0.1754
52984SOL     OW65812   8.308   4.604  12.349  0.0061 -0.1103 -0.1720
52984SOL    HW165813   8.342   4.576  12.434  1.1771  1.6452  0.0045
52984SOL    HW265814   8.356   4.552  12.285  1.3154  0.6054  0.1761
52985SOL     OW65815   2.270   1.725   0.639  0.7400 -0.5338 -0.6607
52985SOL    HW165816   2.260   1.631   0.658  0.3829 -0.0653  1.7218
52985SOL    HW265817   2.181   1.760   0.645  1.0346  0.1616 -0.2258
52986SOL     OW65818   1.949   0.063   0.795 -0.7214 -0.0299  1.1615
52986SOL    HW165819   1.984   0.033   0.711  2.4749 -0.8111  2.6031
52986SOL    HW265820   1.871   0.011   0.809 -0.6862 -0.6832 -0.8073
52987SOL     OW65821   3.545   3.301  11.258  0.2165  0.4000 -0.2789
52987SOL    HW165822   3.510   3.299  11.169 -0.2885 -1.6263 -0.0898
52987SOL    HW265823   3.555   3.208  11.282  1.2678  0.9016  1.4206
52988SOL     OW65824   6.771   1.995   1.922 -0.3061  0.1121 -0.0655
52988SOL    HW165825   6.710   2.067   1.907  1.6234  2.2387  1.5036
52988SOL    HW265826   6.729   1.941   1.989 -0.5665  1.5393  0.9917
52989SOL     OW65827  11.235   3.231   8.808  0.6371  0.4080  0.6574
52989SOL    HW165828  11.143   3.249   8.827  0.5294  2.0910 -1.1185
52989SOL    HW265829  11.233   3.163   8.740  0.5385  1.9458 -0.9652
52990SOL     OW65830   8.979  10.733   9.918 -0.2607 -0.2354 -0.3403
52990SOL    HW165831   9.048  10.793   9.945  1.1441 -1.2444 -1.5347
52990SOL    HW265832   9.013  10.646   9.939 -2.6651 -0.6789  2.2926
52991SOL     OW65833   9.793   8.972  10.107 -0.2554  0.3529 -0.1747
52991SOL    HW165834   9.761   8.998  10.021  0.0387 -0.8139 -0.6642
52991SOL    HW265835   9.886   8.955  10.094 -0.0547  0.8373  0.5449
52992SOL     OW65836  10.319   2.853   1.739 -0.2365  0.1863  0.0164
52992SOL    HW165837  10.312   2.885   1.649 -0.1638 -2.1340 -0.8899
52992SOL    HW265838  10.331   2.932   1.792 -0.6240  1.6460 -1.9543
52993SOL     OW65839   7.309   2.170   1.925  0.3398  0.6622 -0.2259
52993SOL    HW165840   7.253   2.228   1.873  0.8284  0.8730 -0.5198
52993SOL    HW265841   7.267   2.084   1.920 -0.2511  0.9316  0.0014
52994SOL     OW65842  10.728   6.332   7.102  0.1092  0.1345 -0.3216
52994SOL    HW165843  10.807   6.280   7.117  0.6215  0.6837 -1.0674
52994SOL    HW265844  10.752   6.421   7.129  0.0975  0.5279 -1.5492
52995SOL     OW65845   5.800  12.431   6.020  0.5728  0.1221  0.2332
52995SOL    HW165846   5.833  12.474   5.941 -1.0613 -0.1916 -0.6382
52995SOL    HW265847   5.851  12.472   6.091 -0.0193  2.6072 -0.6695
52996SOL     OW65848   9.307   5.392   0.841 -0.5046  0.0158  0.5609
52996SOL    HW165849   9.274   5.352   0.922 -0.4584  1.4771  1.3231
52996SOL    HW265850   9.396   5.420   0.862  0.0829 -0.9531 -0.4884
52997SOL     OW65851   9.276   0.019   9.425  0.2354 -0.0101 -0.5500
52997SOL    HW165852   9.340  -0.033   9.473 -0.2206  0.4468  0.5948
52997SOL    HW265853   9.254   0.091   9.485 -1.7030 -0.4302 -0.6950
52998SOL     OW65854   2.033   3.630   7.307  0.7392 -0.2215  0.2073
52998SOL    HW165855   2.003   3.719   7.324  0.3066 -0.4613  0.7267
52998SOL    HW265856   2.020   3.618   7.213  1.2215  0.4162  0.0531
52999SOL     OW65857  12.184   8.914   4.172  0.2135 -0.2248 -0.1959
52999SOL    HW165858  12.237   8.837   4.152  1.6075 -0.3336  3.3187
52999SOL    HW265859  12.156   8.902   4.263  1.5027  3.8862  0.9862
53000SOL     OW65860   2.650   9.848  11.242 -0.2018 -0.5566  0.0898
53000SOL    HW165861   2.692   9.782  11.298  1.3596  2.2482  2.4843
53000SOL    HW265862   2.721   9.880  11.186 -0.6627 -0.0881 -0.2397
53001SOL     OW65863   6.596  10.761  11.764 -0.1692  0.1940 -0.3924
53001SOL    HW165864   6.599  10.752  11.669  0.0043 -1.2486 -0.2792
53001SOL    HW265865   6.599  10.855  11.779 -0.9964  0.4808 -1.8307
53002SOL     OW65866   3.726   5.159   7.092 -0.1739 -0.3260  0.9981
53002SOL    HW165867   3.694   5.249   7.089  0.9421  0.0675  0.3315
53002SOL    HW265868   3.708   5.124   7.004  0.9941 -0.1569  0.6695
53003SOL     OW65869  11.130   7.889  10.897  0.0747 -0.2858 -0.2390
53003SOL    HW165870  11.094   7.918  10.980 -1.2577 -1.4230 -0.3883
53003SOL    HW265871  11.179   7.965  10.864 -0.6420  0.6824  0.8584
53004SOL     OW65872   7.339   9.195   2.589  0.1811  0.3369 -0.1944
53004SOL    HW165873   7.256   9.147   2.588  0.0676  0.3358  2.4329
53004SOL    HW265874   7.314   9.287   2.596  0.4063  0.4149 -0.3973
53005SOL     OW65875   1.396   7.047   5.996  0.0276  0.1323  0.3864
53005SOL    HW165876   1.469   7.096   6.032 -0.0367  1.6096 -1.3700
53005SOL    HW265877   1.323   7.108   5.996 -0.8424 -0.8718  0.7868
53006SOL     OW65878   3.899  11.869   1.244  0.6031 -0.1934  0.1590
53006SOL    HW165879   3.866  11.954   1.273 -0.9106 -0.6351 -0.1819
53006SOL    HW265880   3.877  11.809   1.316 -0.6799 -0.7716 -0.6925
53007SOL     OW65881   8.874   9.964   8.085  0.2978 -0.2519  0.2870
53007SOL    HW165882   8.938   9.894   8.076  0.8407  0.2842 -0.1530
53007SOL    HW265883   8.816   9.954   8.009 -0.0966 -0.6931  0.6444
53008SOL     OW65884   5.768   7.427   0.992 -0.1116 -0.3575  0.0713
53008SOL    HW165885   5.845   7.386   1.030 -0.2684 -0.0627  0.7211
53008SOL    HW265886   5.694   7.381   1.033 -0.2861  0.3158  0.5204
53009SOL     OW65887  11.222   0.025   9.069  0.0460  0.0492  0.8435
53009SOL    HW165888  11.273   0.100   9.038 -0.2271  0.1062  0.5275
53009SOL    HW265889  11.211   0.041   9.163  0.0982  0.3405  0.8003
53010SOL     OW65890   3.679   9.503  12.369 -0.0397  0.3729 -0.1483
53010SOL    HW165891   3.762   9.528  12.328  0.2511 -0.0880  0.1470
53010SOL    HW265892   3.647   9.430  12.315 -0.2029  0.4885 -0.2061
53011SOL     OW65893   6.381   2.127  10.550  0.5213 -0.0460 -0.6810
53011SOL    HW165894   6.349   2.040  10.574 -0.4638  0.5512  0.2585
53011SOL    HW265895   6.400   2.170  10.633  0.4368  0.8443 -1.1070
53012SOL     OW65896   4.317   0.281   0.778 -0.0901  0.3879  0.2057
53012SOL    HW165897   4.309   0.270   0.683 -0.0759  1.8016  0.0207
53012SOL    HW265898   4.407   0.309   0.792  1.2745 -3.8130  1.1061
53013SOL     OW65899   6.869   6.189   5.574 -0.7386  0.1495 -1.1125
53013SOL    HW165900   6.844   6.246   5.501 -0.8085  0.4977 -0.8208
53013SOL    HW265901   6.831   6.104   5.552 -1.6660  0.5141 -0.9709
53014SOL     OW65902  10.019   0.751   7.336  0.2498  0.3828 -0.1198
53014SOL    HW165903   9.975   0.767   7.253 -0.2825  3.2463  0.6161
53014SOL    HW265904   9.956   0.699   7.387  0.0906 -0.3640 -1.0512
53015SOL     OW65905   9.345   3.379   5.352  0.5168 -0.2567 -0.1551
53015SOL    HW165906   9.438   3.368   5.334  0.2837 -1.6242 -0.6701
53015SOL    HW265907   9.315   3.291   5.376 -0.5833  0.2197  0.2882
53016SOL     OW65908   5.505   3.799   6.647 -0.3773  0.3686  0.6999
53016SOL    HW165909   5.426   3.806   6.701 -0.7538  1.1266  0.0623
53016SOL    HW265910   5.522   3.705   6.641 -3.4187 -0.1655 -2.2381
53017SOL     OW65911   9.542   5.075   2.310  0.3274 -0.4811 -0.1582
53017SOL    HW165912   9.467   5.044   2.260 -0.8111  1.2648  0.3955
53017SOL    HW265913   9.617   5.058   2.252 -0.6814 -0.7218 -1.4481
53018SOL     OW65914   9.355   9.646   6.001 -0.4138 -0.1955  0.1515
53018SOL    HW165915   9.328   9.591   5.927 -0.9734  0.7526 -0.3735
53018SOL    HW265916   9.272   9.673   6.041 -0.1380 -2.6731  2.6770
53019SOL     OW65917   7.429   9.237   7.208  0.4456  0.1780  0.1230
53019SOL    HW165918   7.460   9.153   7.243  2.3067  0.2311 -1.2678
53019SOL    HW265919   7.375   9.212   7.132 -0.6220  0.1958  0.8572
53020SOL     OW65920  11.278   8.055  10.743 -0.3646  0.0548  0.0782
53020SOL    HW165921  11.250   8.111  10.670  0.0444 -1.6689 -1.4846
53020SOL    HW265922  11.362   8.019  10.714 -0.4871 -1.1541  1.1330
53021SOL     OW65923   3.358  11.371   4.053  0.1083  0.5807 -0.3058
53021SOL    HW165924   3.309  11.413   3.982  3.0711  1.2566 -2.0862
53021SOL    HW265925   3.395  11.292   4.014  0.7456  0.2700  0.8699
53022SOL     OW65926   8.523  11.471   9.004  0.1562  0.4830  0.2792
53022SOL    HW165927   8.492  11.540   8.946 -0.0257 -0.0467 -0.2604
53022SOL    HW265928   8.618  11.484   9.007  0.0729  1.0795  0.6103
53023SOL     OW65929   3.274   5.590   8.357  0.7345 -0.1015 -0.1178
53023SOL    HW165930   3.279   5.648   8.433 -0.6289 -0.7630  0.5011
53023SOL    HW265931   3.361   5.550   8.352  0.3983 -1.2447  2.0813
53024SOL     OW65932   3.738   1.625   3.392  0.4763  0.3076  0.0422
53024SOL    HW165933   3.732   1.716   3.363  0.0015  0.3286  0.1902
53024SOL    HW265934   3.696   1.575   3.321  0.7897  0.1987 -0.0669
53025SOL     OW65935  12.011  10.713   9.903  0.0378  0.9910 -0.0315
53025SOL    HW165936  11.991  10.622   9.924 -0.1326  0.9818 -0.2303
53025SOL    HW265937  12.104  10.714   9.883 -0.2113  0.6332 -1.2487
53026SOL     OW65938  10.576   7.252  12.228 -0.1869  0.2699 -0.3991
53026SOL    HW165939  10.482   7.271  12.225 -0.0913  1.1796  1.2306
53026SOL    HW265940  10.610   7.283  12.143 -1.0847  1.5808 -0.3084
53027SOL     OW65941   5.616  12.321   6.241 -0.1014 -0.3816  0.7776
53027SOL    HW165942   5.631  12.289   6.331  0.2597 -0.6021  0.6411
53027SOL    HW265943   5.542  12.380   6.249 -1.8759 -2.4826  0.7800
53028SOL     OW65944   9.816  10.682  10.979  0.0161 -0.0369  0.3383
53028SOL    HW165945   9.879  10.694  11.050 -0.2171 -1.7853  0.8983
53028SOL    HW265946   9.853  10.612  10.925 -0.5868  0.1487 -0.3325
53029SOL     OW65947   2.136   2.858  10.378 -0.0151 -0.0412 -0.0118
53029SOL    HW165948   2.061   2.832  10.432 -0.3760  1.0523  0.0474
53029SOL    HW265949   2.121   2.816  10.294  0.1672 -1.1682  0.4935
53030SOL     OW65950   3.720   2.680   9.445 -0.1731 -0.0018 -0.6042
53030SOL    HW165951   3.765   2.679   9.361 -0.8073 -0.3960 -0.9518
53030SOL    HW265952   3.786   2.654   9.508 -0.3671 -2.6731 -1.3627
53031SOL     OW65953  12.103   5.652  12.418  0.1074 -0.3342 -0.2948
53031SOL    HW165954  12.191   5.627  12.390 -0.1932 -0.7774 -0.8683
53031SOL    HW265955  12.063   5.571  12.448 -0.0290 -0.0912  0.1994
53032SOL     OW65956   2.952   3.237   3.233 -0.1044 -0.1690  0.6917
53032SOL    HW165957   2.871   3.280   3.206 -0.2050  0.8054  2.3978
53032SOL    HW265958   2.924   3.173   3.298  0.4006 -0.4919  0.5944
53033SOL     OW65959  11.672   5.757  10.287  0.2776  0.2693  0.4629
53033SOL    HW165960  11.732   5.820  10.326  0.2824  0.7665 -0.3251
53033SOL    HW265961  11.684   5.677  10.339 -0.4444  1.1732  2.1217
53034SOL     OW65962   0.139   2.042   1.216  0.0772 -0.3050  0.7643
53034SOL    HW165963   0.054   2.068   1.181  0.7833  1.9611  0.5394
53034SOL    HW265964   0.197   2.039   1.139  0.7397  0.7128  1.1973
53035SOL     OW65965   8.779   3.073   3.661 -0.1955 -0.4063  0.0600
53035SOL    HW165966   8.832   2.999   3.632 -0.6786 -0.7738  0.1007
53035SOL    HW265967   8.747   3.113   3.580  2.1742  1.3667 -0.0968
53036SOL     OW65968   0.652   3.947   8.510  0.0810  0.1992 -0.1916
53036SOL    HW165969   0.712   3.898   8.567  1.2231  1.4865 -0.2512
53036SOL    HW265970   0.663   4.038   8.535 -3.4078  0.3758  1.2211
53037SOL     OW65971   3.546   7.731  10.182 -0.3905 -0.2838 -0.1614
53037SOL    HW165972   3.580   7.661  10.126 -0.8342 -1.0129  0.4617
53037SOL    HW265973   3.611   7.739  10.251 -0.5822 -0.4324  0.0394
53038SOL     OW65974   4.207  11.539   7.651 -0.6043 -0.6775  0.0025
53038SOL    HW165975   4.231  11.531   7.559 -0.4922  0.6633 -0.1006
53038SOL    HW265976   4.140  11.472   7.664 -0.4277 -1.0663 -0.9734
53039SOL     OW65977  11.187   4.595   0.097 -0.3499  0.1803  0.3800
53039SOL    HW165978  11.203   4.505   0.068  1.4508  0.4792  0.3803
53039SOL    HW265979  11.171   4.588   0.191  3.4205  0.1413  1.1669
53040SOL     OW65980  11.958   8.298   1.761  1.0619  0.2588 -0.4374
53040SOL    HW165981  12.026   8.265   1.820  1.1720  1.6439  0.2689
53040SOL    HW265982  11.969   8.393   1.764 -3.0637  0.8947  2.5064
53041SOL     OW65983   2.994   0.418   2.505  0.3679  0.3364 -0.5031
53041SOL    HW165984   3.049   0.343   2.481 -0.7223 -0.3502 -0.9338
53041SOL    HW265985   3.042   0.494   2.473  1.2662 -0.2099 -0.4899
53042SOL     OW65986   7.902   9.758   0.721 -0.3970 -0.5375 -0.0137
53042SOL    HW165987   7.809   9.778   0.731 -0.5514 -0.8908 -0.6623
53042SOL    HW265988   7.916   9.681   0.776 -0.5965 -0.7598 -0.2689
53043SOL     OW65989  10.139  10.057   5.861  0.0251  0.3090  0.1556
53043SOL    HW165990  10.081   9.983   5.847  0.0044  0.1198  1.1484
53043SOL    HW265991  10.089  10.133   5.831 -0.1198 -0.0278 -0.4658
53044SOL     OW65992   9.835  11.314   8.585 -0.1933 -0.5251 -0.3101
53044SOL    HW165993   9.928  11.318   8.607  0.0238  1.1790 -1.3583
53044SOL    HW265994   9.830  11.346   8.495 -1.9889  1.5196  0.4212
53045SOL     OW65995  11.722   7.760   1.787  0.2509 -0.0875 -0.1337
53045SOL    HW165996  11.711   7.665   1.794  0.1353  0.0033  1.0036
53045SOL    HW265997  11.801   7.779   1.837 -0.6315  0.6070  1.0458
53046SOL     OW65998   5.678   9.524   9.159  0.1312  0.4138 -0.1397
53046SOL    HW165999   5.761   9.477   9.161  1.1563  2.1502  0.0102
53046SOL    HW266000   5.611   9.456   9.167  1.5721 -0.8871  1.2779
53047SOL     OW66001   0.299   3.545  10.564  0.3997 -0.1711 -0.5445
53047SOL    HW166002   0.224   3.578  10.613  0.5222  1.0542 -1.1451
53047SOL    HW266003   0.277   3.454  10.545 -1.1892  0.3081 -1.1611
53048SOL     OW66004   7.663  11.048   2.051  0.2994 -0.0202 -0.1719
53048SOL    HW166005   7.703  11.135   2.050  1.3890 -0.5027  0.1367
53048SOL    HW266006   7.582  11.060   2.100  1.0606  0.5618  0.9864
53049SOL     OW66007   6.601   3.300   6.899  0.0596 -0.9331 -0.3264
53049SOL    HW166008   6.558   3.223   6.862 -1.0405 -1.3640  1.7225
53049SOL    HW266009   6.541   3.330   6.968  0.1225  2.1517 -1.4315
53050SOL     OW66010   3.590   3.180   9.331 -0.0762 -0.2024 -0.5706
53050SOL    HW166011   3.587   3.267   9.371  1.4443 -1.2192  2.0599
53050SOL    HW266012   3.589   3.197   9.237  2.0847  2.8246 -0.2322
53051SOL     OW66013   9.267   0.614  12.443  0.0949  0.5231  0.0548
53051SOL    HW166014   9.286   0.685  12.504  0.5848  0.3508  0.1013
53051SOL    HW266015   9.346   0.606  12.390 -0.1683  0.3826 -0.3186
53052SOL     OW66016   5.120   6.983   5.345  0.0300 -0.2207  0.5830
53052SOL    HW166017   5.069   6.917   5.299  0.9373 -0.1019 -0.6457
53052SOL    HW266018   5.161   7.034   5.276  2.2321 -0.6434  1.4907
53053SOL     OW66019   3.090   2.466  11.697  0.3665  0.4522  0.6994
53053SOL    HW166020   2.999   2.495  11.697  0.2371  0.0815  1.6614
53053SOL    HW266021   3.108   2.442  11.788  1.0285 -0.7053  0.2945
53054SOL     OW66022  12.066   7.185   3.637 -0.2406  0.2711  0.6620
53054SOL    HW166023  11.999   7.131   3.596  0.2563  1.1662 -1.4660
53054SOL    HW266024  12.148   7.138   3.624  0.1862  1.4047 -1.1482
53055SOL     OW66025  11.784  12.323   7.379 -0.6950  0.1317  0.5055
53055SOL    HW166026  11.841  12.312   7.303  1.9858 -0.1566  2.4337
53055SOL    HW266027  11.825  12.393   7.430 -2.4655  0.3801  1.6818
53056SOL     OW66028   1.196   8.322   9.660 -0.4877  0.3270 -0.6924
53056SOL    HW166029   1.183   8.248   9.600  0.0735 -0.0875 -0.3067
53056SOL    HW266030   1.275   8.365   9.627  2.6607 -2.5195  2.2760
53057SOL     OW66031   7.075   5.583   0.006 -0.0997  0.1656 -0.2117
53057SOL    HW166032   7.140   5.652   0.016  0.0177 -0.0319  0.4619
53057SOL    HW266033   7.108   5.529  -0.065  0.1737  0.3952 -0.2606
53058SOL     OW66034   7.716   4.359   5.392  0.1764  0.7822 -0.2800
53058SOL    HW166035   7.671   4.412   5.458 -0.8410 -1.2991  0.8221
53058SOL    HW266036   7.655   4.288   5.373  2.3958 -1.4241  0.2741
53059SOL     OW66037  10.265   4.778   7.114 -0.4818  0.4221 -1.0935
53059SOL    HW166038  10.256   4.720   7.038 -1.6053 -1.2377  0.2531
53059SOL    HW266039  10.310   4.856   7.079  1.9063 -1.5587 -2.8039
53060SOL     OW66040  12.243   3.170   5.474 -0.1045 -0.3269  0.1762
53060SOL    HW166041  12.333   3.182   5.446 -0.4709 -1.7354 -1.8384
53060SOL    HW266042  12.194   3.240   5.432 -0.3125 -1.1471 -1.0184
53061SOL     OW66043   6.515   8.283  11.719 -0.2220 -0.3660 -0.0939
53061SOL    HW166044   6.604   8.254  11.697  0.3781  0.6155  0.9442
53061SOL    HW266045   6.484   8.328  11.640  0.1944 -0.7313 -0.4716
53062SOL     OW66046   6.277   0.745   3.264 -0.3332  0.4645 -0.1713
53062SOL    HW166047   6.332   0.693   3.206 -0.4038 -0.0154  0.1906
53062SOL    HW266048   6.310   0.727   3.352 -0.0861  1.3499 -0.0655
53063SOL     OW66049   8.739   8.348  11.285  0.7447 -0.2096 -0.1708
53063SOL    HW166050   8.818   8.324  11.333  0.2587 -0.9703  0.2584
53063SOL    HW266051   8.676   8.279  11.304 -0.2961  0.7799  0.1295
53064SOL     OW66052   5.020  10.583  10.393 -0.1650 -1.1014  0.1238
53064SOL    HW166053   5.107  10.622  10.403 -0.9037  0.6895  0.0109
53064SOL    HW266054   4.967  10.626  10.460 -0.9240 -2.3621  0.3600
53065SOL     OW66055   0.432   4.100   8.802 -0.4289 -0.4150  0.3967
53065SOL    HW166056   0.405   4.137   8.887  0.1886  0.3236  0.2852
53065SOL    HW266057   0.514   4.145   8.782 -0.3350 -0.9237 -0.3760
53066SOL     OW66058  10.794   0.485  12.212 -0.3067 -0.0173 -0.3080
53066SOL    HW166059  10.879   0.450  12.185  0.3514  1.0809  0.2781
53066SOL    HW266060  10.776   0.443  12.296  0.2122  0.6034  0.1206
53067SOL     OW66061  11.281   6.781  11.877  0.3917  0.1622  0.0206
53067SOL    HW166062  11.323   6.744  11.800 -0.8198  0.3192 -0.7447
53067SOL    HW266063  11.189   6.754  11.870 -0.3366  2.4308 -0.0539
53068SOL     OW66064   0.952   8.150   6.168 -0.4255 -0.4491 -0.5109
53068SOL    HW166065   0.996   8.077   6.211  1.0567 -0.1510 -1.4668
53068SOL    HW266066   0.963   8.133   6.074 -0.9878  0.4613 -0.7567
53069SOL     OW66067  10.260   8.330  10.509 -0.7582  0.6703  0.2066
53069SOL    HW166068  10.192   8.392  10.482 -0.3004  1.6986  1.3469
53069SOL    HW266069  10.253   8.259  10.446 -0.3477  2.5079 -2.0496
53070SOL     OW66070   2.896   8.692   9.034 -0.0500  0.5830  0.4671
53070SOL    HW166071   2.846   8.632   9.089  0.4740 -0.6272 -0.3351
53070SOL    HW266072   2.881   8.662   8.945  1.2079  0.8760  0.1357
53071SOL     OW66073   3.452  10.022   5.959  0.8912  0.0927  0.5814
53071SOL    HW166074   3.387   9.952   5.954  0.1952  0.7845 -0.6704
53071SOL    HW266075   3.469  10.032   6.053  2.3004 -2.8607  0.7658
53072SOL     OW66076   4.096  11.991   2.041  0.4862 -0.2156 -0.2368
53072SOL    HW166077   4.102  12.081   2.012 -0.8396  0.5167  1.5586
53072SOL    HW266078   4.155  11.986   2.117 -1.0696 -0.2150  1.0230
53073SOL     OW66079  11.097   3.039   1.003  0.2335  0.2096  0.4779
53073SOL    HW166080  11.041   2.961   0.999  2.2425 -1.2856 -0.7377
53073SOL    HW266081  11.112   3.053   1.096  0.0666 -1.0747  0.7255
53074SOL     OW66082   2.590   2.151   3.982 -0.8199 -0.0964 -0.6778
53074SOL    HW166083   2.553   2.096   3.913 -1.0097  0.6757 -1.2087
53074SOL    HW266084   2.518   2.165   4.043 -1.3867  1.2302 -1.6019
53075SOL     OW66085   0.889   0.090   3.636  0.2603  0.0762 -0.5865
53075SOL    HW166086   0.908   0.151   3.566 -2.5692  0.4293 -1.1567
53075SOL    HW266087   0.886   0.144   3.715 -2.5557  0.8679 -1.1323
53076SOL     OW66088   4.430   3.499   8.053 -0.2520  0.1577 -0.2759
53076SOL    HW166089   4.428   3.593   8.069  0.7740 -0.0634  1.3791
53076SOL    HW266090   4.353   3.464   8.098  1.9072 -0.2975  3.4135
53077SOL     OW66091   9.767   0.723   7.905  0.0019  0.1424 -0.2547
53077SOL    HW166092   9.786   0.817   7.901  1.1526  0.0091  1.1027
53077SOL    HW266093   9.677   0.717   7.935  0.2084  0.8249  0.5252
53078SOL     OW66094  11.387   3.627  12.481 -0.1378  0.4684  0.2961
53078SOL    HW166095  11.391   3.544  12.529  2.6592  0.7599  0.7266
53078SOL    HW266096  11.381   3.602  12.389  0.5329 -0.2461  0.4334
53079SOL     OW66097   4.413   2.177   7.758 -0.0769  0.2126  0.5068
53079SOL    HW166098   4.395   2.269   7.739  0.4933  0.2386  0.0789
53079SOL    HW266099   4.503   2.175   7.790 -0.4611 -0.0544  1.6489
53080SOL     OW66100   0.855   7.403  10.853 -0.2699 -0.4506 -0.1950
53080SOL    HW166101   0.814   7.321  10.877 -1.4362 -0.0068 -0.6217
53080SOL    HW266102   0.937   7.404  10.903 -1.6734 -0.4485  2.3104
53081SOL     OW66103   3.318  11.577   2.821 -0.4652  0.3587 -0.1333
53081SOL    HW166104   3.394  11.538   2.776 -0.8246 -0.8343  0.2545
53081SOL    HW266105   3.265  11.614   2.750  0.5845  1.4454 -0.3910
53082SOL     OW66106  12.318   5.795  12.164  0.7622 -0.2634  0.5733
53082SOL    HW166107  12.398   5.769  12.211  0.1174  0.8667  2.3644
53082SOL    HW266108  12.349   5.859  12.099  1.6683 -1.8863 -0.6856
53083SOL     OW66109   6.872   7.355   8.573 -0.1389 -0.4075  0.6341
53083SOL    HW166110   6.824   7.403   8.506 -0.3932 -1.6704 -0.1292
53083SOL    HW266111   6.805   7.324   8.634  0.1308  1.0854  1.7432
53084SOL     OW66112   5.010  12.159  11.680  0.9672  0.1813  0.3637
53084SOL    HW166113   4.967  12.244  11.679 -0.5998 -0.5560  0.6155
53084SOL    HW266114   5.024  12.140  11.773  0.7290 -0.0855  0.3503
53085SOL     OW66115   8.327   7.164  10.710 -0.1158 -0.2113 -0.3043
53085SOL    HW166116   8.277   7.207  10.779  0.2899  1.2633 -0.8750
53085SOL    HW266117   8.277   7.085  10.689 -1.8954  0.8933 -0.4335
53086SOL     OW66118   2.601   6.683   1.725  0.6296  0.4784  0.5018
53086SOL    HW166119   2.621   6.590   1.723  0.4149  0.4349  0.3468
53086SOL    HW266120   2.521   6.692   1.675 -0.9588  0.3491  2.8502
53087SOL     OW66121   9.790   8.654   7.979  0.0622 -0.3630 -0.1712
53087SOL    HW166122   9.832   8.593   7.918  0.5401  0.0788 -0.2857
53087SOL    HW266123   9.756   8.598   8.049  0.1560 -0.7984 -0.4691
53088SOL     OW66124  12.012   0.772   5.761 -0.4566  0.7012 -0.5859
53088SOL    HW166125  12.062   0.833   5.707 -0.5934  0.9461 -0.4358
53088SOL    HW266126  11.938   0.823   5.793  0.5085  1.0475  1.2034
53089SOL     OW66127  10.800   7.555   7.227  0.1697 -0.2538 -0.2428
53089SOL    HW166128  10.856   7.588   7.298  0.0977 -0.6534  0.0032
53089SOL    HW266129  10.745   7.629   7.203  0.3821 -0.0361 -0.0670
53090SOL     OW66130  10.348   8.955   6.776  0.3350 -0.4709  0.4497
53090SOL    HW166131  10.368   8.994   6.861 -0.4398 -0.2774  0.5499
53090SOL    HW266132  10.253   8.964   6.767  0.1235 -2.2654  0.4587
53091SOL     OW66133  11.074  12.144   4.677 -0.2613  0.0645  0.2442
53091SOL    HW166134  11.147  12.083   4.690 -0.5946 -0.3172  0.3259
53091SOL    HW266135  11.091  12.183   4.591  1.7289  2.2942  1.5373
53092SOL     OW66136   8.482   8.297   7.437 -0.1933  0.7139 -0.1865
53092SOL    HW166137   8.413   8.355   7.405  0.3104  1.0573 -0.6806
53092SOL    HW266138   8.457   8.210   7.405 -0.6849  0.7389  0.1215
53093SOL     OW66139   6.709   5.260  11.697 -0.8116 -0.3180  0.1690
53093SOL    HW166140   6.752   5.181  11.665  1.1293  0.1174  1.5496
53093SOL    HW266141   6.635   5.273  11.638  1.9487 -0.0593 -3.5769
53094SOL     OW66142  12.395  10.794  11.757  0.1520  0.0666 -0.5394
53094SOL    HW166143  12.396  10.760  11.847 -1.3179  1.4337  0.0357
53094SOL    HW266144  12.426  10.884  11.765 -0.9992  0.5486 -1.1999
53095SOL     OW66145   8.322   4.493   2.778 -0.3501  0.2910 -0.2295
53095SOL    HW166146   8.336   4.510   2.684 -1.1344  0.0984 -0.3936
53095SOL    HW266147   8.354   4.404   2.791  0.7277  0.6856 -0.0794
53096SOL     OW66148  10.759   0.377   3.594  0.2008 -0.3031  0.1510
53096SOL    HW166149  10.675   0.362   3.636  0.5839  0.1388  1.1196
53096SOL    HW266150  10.752   0.465   3.557  0.5526  0.1295  1.0770
53097SOL     OW66151   1.698  12.262   9.305 -0.1520 -0.2172 -0.4651
53097SOL    HW166152   1.771  12.248   9.246  0.1343  0.5693 -0.3119
53097SOL    HW266153   1.707  12.353   9.333  0.5573 -0.9312  1.8937
53098SOL     OW66154   5.158  10.403  10.748  0.0988  0.3253  0.2050
53098SOL    HW166155   5.081  10.434  10.795  0.0174  0.0241  0.2664
53098SOL    HW266156   5.223  10.386  10.816  0.5020  1.3612  0.1014
53099SOL     OW66157   5.650  11.659   2.676  0.3946 -0.3479 -0.2981
53099SOL    HW166158   5.650  11.600   2.752  1.4808 -1.2221 -0.9330
53099SOL    HW266159   5.563  11.648   2.638 -0.0998 -0.0430  0.6976
53100SOL     OW66160  10.218   8.041   2.717  0.2641 -0.3021  0.2047
53100SOL    HW166161  10.296   8.033   2.771 -0.4919 -0.6582  1.2866
53100SOL    HW266162  10.244   8.099   2.644  0.8928  1.4738  1.7584
53101SOL     OW66163   5.930   5.879   5.773  0.6301  0.1996 -0.0625
53101SOL    HW166164   5.993   5.898   5.703  0.3455  0.2259 -0.3146
53101SOL    HW266165   5.984   5.844   5.844  0.7977 -0.9657 -0.7269
53102SOL     OW66166   1.345   6.760   5.887 -0.0742  0.1032  0.5671
53102SOL    HW166167   1.360   6.853   5.904  0.6893 -0.0253  0.6141
53102SOL    HW266168   1.298   6.729   5.965 -1.8084  0.7898 -0.1535
53103SOL     OW66169   3.792   7.530   2.137  0.1551 -0.3954 -0.5019
53103SOL    HW166170   3.835   7.557   2.218 -0.3877  0.2528 -0.4162
53103SOL    HW266171   3.840   7.575   2.068 -1.0878  1.3274 -0.3217
53104SOL     OW66172   8.728   8.949   8.808 -0.6606 -0.3882  0.0106
53104SOL    HW166173   8.670   8.943   8.731  0.6430  0.5543 -1.0853
53104SOL    HW266174   8.729   9.042   8.830  3.3886  0.3512 -2.4330
53105SOL     OW66175   9.425   1.951  12.153 -0.3489  0.5109  0.5729
53105SOL    HW166176   9.383   1.997  12.080 -3.3611  1.1225  2.4980
53105SOL    HW266177   9.384   1.865  12.155 -0.7518  0.7031  1.8345
53106SOL     OW66178  10.478  11.877   9.963 -0.6325  0.8339 -0.2522
53106SOL    HW166179  10.400  11.931   9.951 -0.3947  1.1284 -0.4691
53106SOL    HW266180  10.509  11.900  10.051 -1.9058 -0.7295  0.6781
53107SOL     OW66181   5.575  12.373   6.761  0.2038 -0.6653 -0.4842
53107SOL    HW166182   5.607  12.327   6.683  0.0567  2.6594 -2.6959
53107SOL    HW266183   5.638  12.444   6.775 -1.7990  1.1103  0.0312
53108SOL     OW66184   3.152   2.018   9.573 -0.2221  0.6777 -0.2880
53108SOL    HW166185   3.181   1.993   9.485 -0.3437  0.0331 -0.1509
53108SOL    HW266186   3.059   2.037   9.562 -0.1263  1.0902 -0.3958
53109SOL     OW66187   7.916   3.118  11.824 -0.1275  0.6297  0.2454
53109SOL    HW166188   7.868   3.112  11.906 -1.1250 -2.0721 -0.4057
53109SOL    HW266189   7.856   3.162  11.764 -0.0849  1.0551  0.5097
53110SOL     OW66190   9.112   9.628   1.899 -0.3298  0.0810  0.7310
53110SOL    HW166191   9.056   9.658   1.971 -0.1103  0.7575  0.6261
53110SOL    HW266192   9.147   9.709   1.861  1.5979 -0.3474  1.4885
53111SOL     OW66193   7.431   0.707   1.516 -0.1625 -0.2209  0.8092
53111SOL    HW166194   7.518   0.668   1.513  0.0344  0.2665 -0.2810
53111SOL    HW266195   7.443   0.795   1.480 -1.1958 -0.3261  0.1792
53112SOL     OW66196   1.779   7.427   7.669 -0.1408  0.3290 -0.0152
53112SOL    HW166197   1.774   7.370   7.593 -2.2757 -0.9299  0.9783
53112SOL    HW266198   1.867   7.412   7.704  0.4835  0.1193 -1.5752
53113SOL     OW66199   3.946   1.713   2.510 -0.0565  0.5016 -0.7697
53113SOL    HW166200   3.870   1.667   2.473 -0.2781  0.8647 -0.7672
53113SOL    HW266201   4.021   1.671   2.468 -0.2604  0.2132 -0.8565
53114SOL     OW66202  11.053   7.483  10.924 -0.0129 -0.4165  0.1718
53114SOL    HW166203  11.043   7.480  10.829 -2.1315 -0.9012  0.3766
53114SOL    HW266204  10.981   7.538  10.955 -0.8784 -2.2546  1.6519
53115SOL     OW66205   7.271   9.233   6.965  0.1517 -0.6614 -0.2208
53115SOL    HW166206   7.306   9.149   6.935  1.0033 -0.4897  0.2614
53115SOL    HW266207   7.176   9.224   6.954  0.2703 -1.4854 -0.6773
53116SOL     OW66208  10.198   3.016   6.885  0.1367 -0.2798  0.2288
53116SOL    HW166209  10.134   3.069   6.933  0.9955  1.0604 -0.0506
53116SOL    HW266210  10.275   3.015   6.942 -0.4225 -2.8119  1.0823
53117SOL     OW66211   8.430   2.926   3.156 -0.1768 -0.3297 -0.7948
53117SOL    HW166212   8.518   2.893   3.133  0.5909  0.4455  0.8335
53117SOL    HW266213   8.411   2.885   3.241 -0.8901  0.4004 -0.5887
53118SOL     OW66214   8.819   9.707   5.523  0.1042 -0.1892 -0.1602
53118SOL    HW166215   8.886   9.710   5.592  1.1683  1.3900 -1.2110
53118SOL    HW266216   8.853   9.645   5.459 -0.5310 -1.0695  0.3116
53119SOL     OW66217   4.167  11.406   2.558  0.4964 -0.2390  0.7728
53119SOL    HW166218   4.167  11.317   2.593  1.3237 -0.7187 -0.3946
53119SOL    HW266219   4.075  11.433   2.560 -0.1943 -2.1373 -1.2727
53120SOL     OW66220   8.669  12.290   0.281 -0.1155  0.1850  0.6335
53120SOL    HW166221   8.650  12.249   0.365 -1.6153  0.3710  0.4026
53120SOL    HW266222   8.765  12.291   0.276 -0.0208 -1.1081  1.7010
53121SOL     OW66223   0.589   7.849   9.210 -0.6041  0.4893  0.2722
53121SOL    HW166224   0.541   7.786   9.157 -2.1167  0.6945  1.3424
53121SOL    HW266225   0.656   7.796   9.254 -0.2285  0.0911 -0.7393
53122SOL     OW66226   6.255   2.131   9.938  0.2514 -0.4567  0.3507
53122SOL    HW166227   6.243   2.221   9.909  0.2798  0.0553  1.8406
53122SOL    HW266228   6.277   2.083   9.858  1.2098  1.0299 -0.3257
53123SOL     OW66229   4.298   2.108   6.792  0.1349  0.0633 -0.0290
53123SOL    HW166230   4.250   2.121   6.875 -0.6513 -1.0879 -0.2834
53123SOL    HW266231   4.376   2.058   6.817 -0.4392 -0.8650 -0.0681
53124SOL     OW66232   0.648  10.255   8.289 -0.7025 -0.0839  0.3198
53124SOL    HW166233   0.611  10.166   8.283 -0.7126 -0.1072  0.7326
53124SOL    HW266234   0.572  10.313   8.290 -0.6775  0.0087 -1.1717
53125SOL     OW66235   0.499   4.193   6.848 -0.3031 -0.6026  0.2657
53125SOL    HW166236   0.474   4.126   6.912 -0.0958 -0.6631  0.2842
53125SOL    HW266237   0.583   4.163   6.814 -0.5550 -0.7238 -0.2552
53126SOL     OW66238   4.757   3.094   5.252  0.2581  0.0364  0.2420
53126SOL    HW166239   4.697   3.152   5.205  0.9987 -0.0673 -0.8644
53126SOL    HW266240   4.784   3.029   5.186  0.1019 -1.0653  1.2277
53127SOL     OW66241   6.980   9.197  12.023  0.2214  0.3710 -0.3559
53127SOL    HW166242   7.036   9.137  12.072 -0.2865  0.1412 -0.0362
53127SOL    HW266243   6.995   9.283  12.064 -1.3599 -0.0685  1.3191
53128SOL     OW66244   2.579  10.964  11.114 -0.5688 -0.0757 -0.1925
53128SOL    HW166245   2.650  11.007  11.163  0.8042 -2.2326 -0.1704
53128SOL    HW266246   2.624  10.907  11.052 -2.3010 -1.0207 -0.6431
53129SOL     OW66247  11.148   8.436   0.231  0.1875  0.1185 -0.0574
53129SOL    HW166248  11.055   8.445   0.215 -0.0732 -0.2195  1.1489
53129SOL    HW266249  11.189   8.501   0.174 -0.8536  1.0094  0.1813
53130SOL     OW66250   5.870  10.450   3.713  0.0045 -0.0796 -0.3461
53130SOL    HW166251   5.854  10.381   3.777 -0.1062  0.8174  0.6304
53130SOL    HW266252   5.949  10.493   3.744  0.6558 -0.4036 -1.5214
53131SOL     OW66253   8.446   6.326   1.822 -0.0762 -0.1812  0.5319
53131SOL    HW166254   8.476   6.379   1.749  1.6254 -3.1141 -1.0960
53131SOL    HW266255   8.526   6.302   1.869 -0.8980 -0.4431  1.8558
53132SOL     OW66256   5.520   4.938  10.815  0.7304  0.3469  0.7234
53132SOL    HW166257   5.442   4.980  10.851  0.1499  0.3639 -0.4976
53132SOL    HW266258   5.527   4.856  10.863 -0.8869 -0.3220 -0.0980
53133SOL     OW66259   8.287   0.078  10.811  0.2205  0.1992 -0.2860
53133SOL    HW166260   8.293   0.140  10.884  0.9311 -0.6603  0.4211
53133SOL    HW266261   8.312  -0.006  10.850 -1.2189 -0.6364 -1.0905
53134SOL     OW66262   9.198   5.681   3.084  0.3294  0.3266  0.0863
53134SOL    HW166263   9.205   5.760   3.031 -0.1525  0.0184 -0.4518
53134SOL    HW266264   9.109   5.683   3.119  0.5051  0.3135  0.5375
53135SOL     OW66265   8.451   1.441   8.508  0.3905  0.6667 -0.0286
53135SOL    HW166266   8.440   1.355   8.468 -1.3789 -0.3343  2.3511
53135SOL    HW266267   8.449   1.425   8.603 -0.9461  3.3813  0.5284
53136SOL     OW66268  11.256   0.860   9.745  0.3487 -0.0957 -0.4956
53136SOL    HW166269  11.301   0.778   9.766 -0.5167 -0.2945  0.7144
53136SOL    HW266270  11.165   0.844   9.769  0.3751  1.6101  1.0318
53137SOL     OW66271  11.059   5.159   1.434 -0.1709  0.2263  0.1704
53137SOL    HW166272  10.995   5.221   1.400  0.1000 -0.2051 -1.1839
53137SOL    HW266273  11.025   5.073   1.410  2.3268  0.0460 -3.4134
53138SOL     OW66274   7.585  11.186   2.989 -0.5362 -0.2167 -0.4198
53138SOL    HW166275   7.672  11.148   2.982 -0.6669 -0.3765 -1.3123
53138SOL    HW266276   7.526  11.115   2.962 -0.9807 -0.2573  0.6105
53139SOL     OW66277   3.561   8.844   0.617 -0.7547 -0.0948  0.3108
53139SOL    HW166278   3.562   8.776   0.550  0.9846  1.9441 -1.9269
53139SOL    HW266279   3.528   8.922   0.572  1.4479  1.6273  1.4616
53140SOL     OW66280   0.747   6.071  11.160  0.0330 -0.1201 -0.2379
53140SOL    HW166281   0.814   6.005  11.178 -0.3397 -0.3845  0.1947
53140SOL    HW266282   0.765   6.100  11.070  0.2096 -0.8006 -0.4258
53141SOL     OW66283  10.567   9.133  11.661  0.5556  0.4278  0.3500
53141SOL    HW166284  10.581   9.064  11.726  1.2968 -0.0493 -0.3007
53141SOL    HW266285  10.580   9.090  11.576 -2.3549  0.5590 -0.2625
53142SOL     OW66286   7.765  10.861   2.300 -0.3582  0.1430  0.4925
53142SOL    HW166287   7.674  10.830   2.307 -0.2053 -0.5457 -0.3915
53142SOL    HW266288   7.810  10.791   2.252  0.3829  0.9975 -0.0834
53143SOL     OW66289   7.327   2.393   2.621 -0.5492 -0.3057 -0.4913
53143SOL    HW166290   7.329   2.324   2.554 -0.7223  0.1904 -1.0193
53143SOL    HW266291   7.395   2.455   2.593 -0.9667  0.1587 -0.4880
53144SOL     OW66292  11.154   5.155  10.950 -0.1503 -0.1704  0.7507
53144SOL    HW166293  11.152   5.248  10.927 -1.2335 -0.6012 -1.0761
53144SOL    HW266294  11.139   5.109  10.868  1.5216 -2.0286  1.4005
53145SOL     OW66295   6.133   5.976   5.594 -0.6959 -0.0861 -0.3400
53145SOL    HW166296   6.179   6.060   5.592 -1.2931  0.2862  0.6755
53145SOL    HW266297   6.182   5.920   5.533 -0.2271  0.9585 -0.9388
53146SOL     OW66298   2.323   8.086   4.413 -0.0094  0.9643 -0.3649
53146SOL    HW166299   2.308   8.157   4.476  0.3417 -0.5725  1.5587
53146SOL    HW266300   2.241   8.079   4.365 -1.0646  0.8663  1.3505
53147SOL     OW66301   6.917   4.934   2.654 -0.4974 -0.3110 -0.5399
53147SOL    HW166302   6.977   4.876   2.700  0.1721  0.2279 -0.7273
53147SOL    HW266303   6.863   4.973   2.723  0.1371  0.0770 -0.2592
53148SOL     OW66304  10.520   7.075   3.801 -0.0074  0.0423 -0.0786
53148SOL    HW166305  10.581   7.063   3.873  0.0800  0.3540 -0.1022
53148SOL    HW266306  10.439   7.104   3.842  0.5549  1.9783 -0.2501
53149SOL     OW66307   9.315   0.741   1.372 -0.0894  0.4554  0.0227
53149SOL    HW166308   9.364   0.669   1.410 -0.3604  0.8440  1.1432
53149SOL    HW266309   9.379   0.787   1.317  0.0115 -0.7684 -0.9426
53150SOL     OW66310   8.600   3.021   1.257  0.1427  0.4424 -0.4697
53150SOL    HW166311   8.512   2.982   1.263  0.2905  0.1233 -0.3264
53150SOL    HW266312   8.646   2.987   1.334  1.0699 -1.1318 -1.6629
53151SOL     OW66313   7.873   5.913   0.747  0.5919  0.0213 -0.0932
53151SOL    HW166314   7.779   5.898   0.736  0.5304 -1.3370  1.8018
53151SOL    HW266315   7.879   5.973   0.822  1.2203  1.5525 -1.3055
53152SOL     OW66316  12.052   0.461  12.147 -0.2372 -0.4912  0.2763
53152SOL    HW166317  11.974   0.505  12.112  0.7648  0.5994 -0.6492
53152SOL    HW266318  12.075   0.512  12.225 -0.4478 -0.8341  0.5688
53153SOL     OW66319  10.129   3.463   6.808  0.6915 -0.1749  0.0055
53153SOL    HW166320  10.086   3.377   6.815  0.1263  0.2454  2.2130
53153SOL    HW266321  10.188   3.453   6.733 -1.6693 -1.4537 -1.8442
53154SOL     OW66322   2.713   0.196  12.389 -0.7090 -0.2434 -0.4698
53154SOL    HW166323   2.785   0.134  12.374 -0.9298 -0.5804 -0.1628
53154SOL    HW266324   2.755   0.282  12.387 -0.5682 -0.3231 -1.9740
53155SOL     OW66325   5.970   1.375   9.319  0.2660 -0.0614  0.4831
53155SOL    HW166326   6.052   1.345   9.279 -0.5241 -0.5598 -0.8386
53155SOL    HW266327   5.945   1.304   9.379 -0.7424 -1.3913 -1.4091
53156SOL     OW66328   2.697   9.943   4.998  0.0484 -0.1472 -0.6408
53156SOL    HW166329   2.731  10.028   5.026  1.4505 -1.4924  2.3414
53156SOL    HW266330   2.603   9.947   5.017  0.0277  0.8457 -0.8967
53157SOL     OW66331   3.114   8.534   5.244 -0.8375  0.3003  0.3670
53157SOL    HW166332   3.123   8.442   5.266 -2.9107  0.4028  1.8850
53157SOL    HW266333   3.205   8.566   5.239 -0.1210 -1.2827  2.1484
53158SOL     OW66334  10.130   4.149  12.019 -0.1788  0.2230 -0.4444
53158SOL    HW166335  10.202   4.187  12.069 -0.1154 -1.0962  0.5165
53158SOL    HW266336  10.134   4.194  11.935  1.7725  0.2189 -0.4165
53159SOL     OW66337   8.879  10.876   6.677  0.1632  0.2106 -0.5295
53159SOL    HW166338   8.960  10.895   6.725  0.1158 -0.1243 -0.3165
53159SOL    HW266339   8.847  10.962   6.649  1.7630  0.2550 -2.5370
53160SOL     OW66340   2.655   6.166   3.677 -0.3629 -0.1497  0.7707
53160SOL    HW166341   2.581   6.108   3.660 -0.7084  0.3172  0.6795
53160SOL    HW266342   2.616   6.248   3.705  0.0770  0.4686 -0.3781
53161SOL     OW66343   8.009   4.639   9.782 -0.1593  0.4117 -0.5491
53161SOL    HW166344   7.998   4.548   9.810  1.0065  0.3746 -0.1945
53161SOL    HW266345   8.019   4.688   9.863 -0.8315  0.8750 -0.7358
53162SOL     OW66346   9.764   9.739   0.166  0.3062 -0.4537 -0.4256
53162SOL    HW166347   9.845   9.774   0.131  2.3424 -3.5210  0.7767
53162SOL    HW266348   9.751   9.785   0.249  0.3391  0.6103 -1.0011
53163SOL     OW66349   5.497   9.235   2.317 -0.6895  0.3096  0.5616
53163SOL    HW166350   5.506   9.228   2.412 -1.2756 -2.8670  0.4997
53163SOL    HW266351   5.583   9.263   2.287 -0.3092  0.7664  1.9949
53164SOL     OW66352  10.969   7.139   1.492  0.1886 -0.2442 -0.6089
53164SOL    HW166353  11.058   7.106   1.481  0.5828  1.0561 -1.5787
53164SOL    HW266354  10.965   7.217   1.437 -1.5161 -0.1960 -0.4855
53165SOL     OW66355   7.841   8.410   3.094 -0.3922 -0.1153  0.2981
53165SOL    HW166356   7.896   8.453   3.159 -0.8651  0.0343  0.5991
53165SOL    HW266357   7.895   8.338   3.062 -0.5167 -0.8154  1.5828
53166SOL     OW66358   8.295   3.187   0.697 -0.3432  0.0470 -0.1178
53166SOL    HW166359   8.210   3.215   0.663  0.0624  0.7930 -0.5408
53166SOL    HW266360   8.330   3.131   0.628  0.4238  1.4581 -0.9161
53167SOL     OW66361   4.917   5.382   8.700  0.0394  0.3860 -0.5593
53167SOL    HW166362   4.942   5.462   8.652 -0.1694 -0.1287 -1.5640
53167SOL    HW266363   4.993   5.361   8.753  0.4678  0.7060 -1.0404
53168SOL     OW66364   7.165   1.219  10.117  0.1189 -0.0601 -0.2417
53168SOL    HW166365   7.210   1.302  10.098 -1.0417  0.5621 -0.3933
53168SOL    HW266366   7.099   1.212  10.047 -0.8248 -0.3172  0.6548
53169SOL     OW66367   4.350   5.175  10.136  0.1582 -0.5658  0.3657
53169SOL    HW166368   4.274   5.138  10.091  0.2228  0.8314 -0.9546
53169SOL    HW266369   4.354   5.266  10.106  1.2988 -0.1008  1.8108
53170SOL     OW66370   9.586   4.404   5.484  0.0771  0.0176 -0.0014
53170SOL    HW166371   9.557   4.454   5.560 -1.5846 -1.7893  0.6365
53170SOL    HW266372   9.608   4.470   5.419 -1.1806  1.5851  1.0863
53171SOL     OW66373   9.655   5.447   0.069  0.3109  0.0678  0.6522
53171SOL    HW166374   9.567   5.431   0.033  0.8141 -2.2488  0.2646
53171SOL    HW266375   9.640   5.469   0.161 -0.7649  1.7776  0.1044
53172SOL     OW66376  11.488   9.944   2.526 -0.0710  0.7629 -0.1066
53172SOL    HW166377  11.444   9.890   2.591 -1.2493  1.6802 -0.1141
53172SOL    HW266378  11.430   9.943   2.450  0.2071  1.5031 -0.3345
53173SOL     OW66379   3.413   2.589   9.025  0.5227  0.4911  0.0995
53173SOL    HW166380   3.418   2.525   9.096  0.5378  0.3496 -0.0316
53173SOL    HW266381   3.377   2.542   8.951 -2.1179  1.2753  0.7839
53174SOL     OW66382   7.506  12.170   6.858 -0.2426  0.0293 -0.0523
53174SOL    HW166383   7.426  12.212   6.828 -0.3593  1.1140  1.6434
53174SOL    HW266384   7.477  12.103   6.920  0.1534  0.2004  0.3202
53175SOL     OW66385   1.462  10.570   4.215 -0.6064  0.3019 -0.1037
53175SOL    HW166386   1.391  10.571   4.280 -1.6929  1.0263 -1.2618
53175SOL    HW266387   1.541  10.589   4.266 -1.1879 -0.8060  1.2645
53176SOL     OW66388   9.174   3.678   0.933 -0.1368  0.4535  0.2415
53176SOL    HW166389   9.235   3.621   0.979 -0.9130  0.4152  1.2547
53176SOL    HW266390   9.230   3.739   0.884  0.7155 -1.4807 -1.3295
53177SOL     OW66391   4.414   2.715   4.961 -0.2054  0.0770  0.0838
53177SOL    HW166392   4.339   2.706   5.020  0.2478 -0.0038  0.6543
53177SOL    HW266393   4.435   2.809   4.963  1.2059 -0.2270  1.8243
53178SOL     OW66394  10.707  11.746   2.069 -0.5437  0.1070  0.3444
53178SOL    HW166395  10.776  11.810   2.085 -0.1273 -0.7632  2.4305
53178SOL    HW266396  10.632  11.798   2.039  0.9336  1.0738 -1.9760
53179SOL     OW66397   4.666  10.330   3.550  0.3376  0.1123  0.7042
53179SOL    HW166398   4.606  10.261   3.579  0.4987 -0.1930  0.3125
53179SOL    HW266399   4.677  10.385   3.628  0.6454 -0.6085  1.1875
53180SOL     OW66400   5.226   1.174   0.254  0.6625 -0.3475 -0.1036
53180SOL    HW166401   5.258   1.084   0.265  1.9194  0.2218  1.0430
53180SOL    HW266402   5.166   1.168   0.180  0.1246 -2.2886  0.4159
53181SOL     OW66403   9.074  10.845   1.937 -0.0098  0.0671  0.0570
53181SOL    HW166404   9.028  10.929   1.936 -2.3591 -1.1250  0.7014
53181SOL    HW266405   9.083  10.824   2.030 -0.5973 -0.9567 -0.1073
53182SOL     OW66406  11.625   9.315  11.668 -0.1171 -0.2757 -0.1527
53182SOL    HW166407  11.585   9.228  11.664  1.5362 -1.0519 -1.0174
53182SOL    HW266408  11.602   9.349  11.754  0.4292 -2.2142  0.8116
53183SOL     OW66409   4.582  11.132   8.969  0.0381 -0.1511  0.1149
53183SOL    HW166410   4.604  11.041   8.951 -1.9383 -0.7590  0.4645
53183SOL    HW266411   4.517  11.154   8.903  1.0966  1.3153 -0.4880
53184SOL     OW66412   0.795   4.648  11.212  0.0769 -0.0526 -0.2611
53184SOL    HW166413   0.764   4.634  11.301  0.4524 -0.9200 -0.2517
53184SOL    HW266414   0.885   4.680  11.223  0.6426 -1.5442 -0.3255
53185SOL     OW66415   4.520   3.056   0.733 -0.7896 -0.0962 -0.0138
53185SOL    HW166416   4.608   3.070   0.769 -0.9688  0.7557  0.0968
53185SOL    HW266417   4.532   3.064   0.638 -0.5924 -0.8736 -0.0640
53186SOL     OW66418   6.539   3.522   3.711  0.3924  0.3272  0.2549
53186SOL    HW166419   6.577   3.605   3.739  1.5771  0.0227 -0.3628
53186SOL    HW266420   6.475   3.500   3.779  1.5146  0.7452  1.4822
53187SOL     OW66421   8.750   7.912  11.234 -0.3770 -0.4883  0.2084
53187SOL    HW166422   8.704   7.835  11.269  0.3955 -0.6830  0.8128
53187SOL    HW266423   8.686   7.983  11.241 -0.6634 -0.8005  0.8330
53188SOL     OW66424  11.047   0.318   0.220  0.0784 -0.0752 -0.1552
53188SOL    HW166425  10.997   0.297   0.141 -0.7844  2.6871 -0.4731
53188SOL    HW266426  11.138   0.320   0.191  0.0346 -1.4738 -0.4657
53189SOL     OW66427   6.901   1.973   7.039  0.5276  0.0887  0.5005
53189SOL    HW166428   6.842   2.010   6.973  2.0584  0.5188 -0.6599
53189SOL    HW266429   6.906   1.880   7.015  1.3091  0.2981 -0.1994
53190SOL     OW66430   2.976   6.013   9.395  0.1764  0.0648  0.0040
53190SOL    HW166431   3.055   5.966   9.421  1.0805  0.5501 -1.7117
53190SOL    HW266432   2.933   5.955   9.332  0.1516  0.5916 -0.4723
53191SOL     OW66433   2.792  11.011   9.307  0.6568 -0.6859  0.1566
53191SOL    HW166434   2.820  11.003   9.216  2.1690 -1.4040  0.6496
53191SOL    HW266435   2.700  10.983   9.306  0.4958 -0.2030 -1.2058
53192SOL     OW66436  11.384   7.484   5.489 -0.0913 -0.4629 -0.0421
53192SOL    HW166437  11.379   7.510   5.581  0.0891 -2.7167  0.6636
53192SOL    HW266438  11.308   7.525   5.448  1.0311  2.4661  0.5258
53193SOL     OW66439   4.091   9.945   0.729  0.8815  0.2519 -0.0608
53193SOL    HW166440   4.018   9.991   0.689  0.5801 -2.0452 -2.4276
53193SOL    HW266441   4.166  10.004   0.718 -0.0856  1.5446  0.0727
53194SOL     OW66442  12.397   4.677   5.373 -0.8939  0.7811  0.6196
53194SOL    HW166443  12.314   4.664   5.418 -0.7713  1.1063  0.9396
53194SOL    HW266444  12.395   4.613   5.301 -1.0584  0.2050  1.1246
53195SOL     OW66445  10.424   0.482   8.714  0.5628 -0.2329 -0.1003
53195SOL    HW166446  10.513   0.506   8.686  0.9004 -0.2164  0.9392
53195SOL    HW266447  10.436   0.442   8.801 -0.3004 -1.5369 -0.5475
53196SOL     OW66448   7.670   5.277   9.288 -0.1923  0.4820 -0.5328
53196SOL    HW166449   7.600   5.212   9.275  0.6401 -0.0984 -2.4075
53196SOL    HW266450   7.626   5.362   9.275 -1.0599  0.2748  0.8640
53197SOL     OW66451   7.961  10.536   8.470 -0.1096 -0.0818  0.9683
53197SOL    HW166452   7.883  10.577   8.433  0.3859  2.1986  2.2938
53197SOL    HW266453   8.017  10.609   8.497  2.2845 -1.6433  0.5437
53198SOL     OW66454   7.003   4.007   9.360  0.3341  0.0641  0.0931
53198SOL    HW166455   7.067   3.942   9.387  1.3174  0.6799 -0.6721
53198SOL    HW266456   6.988   4.061   9.437  0.9236  0.0589  0.2129
53199SOL     OW66457   6.694   7.599   5.971  1.0295  0.1371  0.3454
53199SOL    HW166458   6.754   7.525   5.966  0.6545 -0.1094 -2.3514
53199SOL    HW266459   6.616   7.564   6.014  0.5920 -1.3139 -1.5068
53200SOL     OW66460   9.867   0.850  11.896 -0.6006 -0.0327 -0.1460
53200SOL    HW166461   9.776   0.852  11.866  0.4023 -1.1260 -3.6512
53200SOL    HW266462   9.879   0.934  11.939 -2.7035  1.0517 -1.4885
53201SOL     OW66463   6.427  10.334   2.423 -0.0306  0.1646 -0.1098
53201SOL    HW166464   6.476  10.399   2.372 -0.9884  1.8911  1.0316
53201SOL    HW266465   6.468  10.251   2.402  1.3567  1.1471 -1.5585
53202SOL     OW66466   3.471   3.304  10.780 -0.4543 -0.2164 -0.4695
53202SOL    HW166467   3.503   3.390  10.806  2.5756 -1.7947  1.6027
53202SOL    HW266468   3.540   3.267  10.726  1.0653 -3.3150  3.1527
53203SOL     OW66469  11.011   1.527  10.306 -0.1431 -0.2592  0.4239
53203SOL    HW166470  11.085   1.467  10.313  0.3326 -0.2670 -2.9140
53203SOL    HW266471  10.979   1.515  10.216 -2.1436  2.1021  0.7083
53204SOL     OW66472   6.542   4.842   2.092  0.4025  0.0755 -0.0193
53204SOL    HW166473   6.535   4.749   2.072 -0.0399 -0.3475  1.9382
53204SOL    HW266474   6.583   4.845   2.178  0.9841  1.7214 -0.3310
53205SOL     OW66475   7.080   9.255   7.242 -0.3671 -0.2190 -0.1265
53205SOL    HW166476   7.088   9.330   7.184  1.4426  0.6127  1.1363
53205SOL    HW266477   7.064   9.292   7.329  0.6157 -1.2659  0.5312
53206SOL     OW66478  11.758   9.164   9.128  0.3587  0.0708  0.0274
53206SOL    HW166479  11.792   9.219   9.058 -1.7771  1.3445 -0.0953
53206SOL    HW266480  11.789   9.206   9.208 -0.4455  0.9246 -0.0936
53207SOL     OW66481   5.777   8.841  10.296  0.2678  0.4070 -0.1641
53207SOL    HW166482   5.804   8.925  10.333 -0.5166  0.4167  0.4088
53207SOL    HW266483   5.821   8.838  10.211  2.5445  0.1502  0.9415
53208SOL     OW66484   6.603  11.527   4.599  0.2328 -0.1785  0.0456
53208SOL    HW166485   6.659  11.494   4.670  0.0952 -0.6150 -0.0452
53208SOL    HW266486   6.615  11.463   4.528  0.8908  0.6132 -0.5764
53209SOL     OW66487   5.388  11.107  11.580 -0.5149 -1.1519 -0.1706
53209SOL    HW166488   5.347  11.189  11.609  0.3728 -0.5659 -0.5401
53209SOL    HW266489   5.354  11.041  11.640  0.9518 -0.0608  2.0109
53210SOL     OW66490   2.613   0.140   2.216  0.3333  0.7451 -0.0894
53210SOL    HW166491   2.554   0.169   2.286  1.0445  2.2108 -0.0414
53210SOL    HW266492   2.681   0.090   2.262  0.0510  0.5298  0.0926
53211SOL     OW66493   9.229  11.376   4.441  0.6456  0.2385  0.4438
53211SOL    HW166494   9.233  11.399   4.534  1.8842  0.5031  0.3388
53211SOL    HW266495   9.191  11.453   4.399  2.3191  1.0959  0.4361
53212SOL     OW66496  12.048   3.960   5.601 -0.1037  0.6678  0.1874
53212SOL    HW166497  12.007   3.880   5.633  1.7700 -0.9270 -1.1398
53212SOL    HW266498  11.981   4.001   5.546 -0.7435 -0.5541  0.0221
53213SOL     OW66499   5.702   2.870   8.416  0.0483 -0.1148  0.9912
53213SOL    HW166500   5.769   2.924   8.458 -0.3514  0.0669  1.4115
53213SOL    HW266501   5.705   2.896   8.324 -0.5048  1.0303  1.2804
53214SOL     OW66502  10.737   1.932   8.549 -0.2556 -0.0628  0.2747
53214SOL    HW166503  10.803   1.887   8.497 -0.1243  0.8326 -0.3694
53214SOL    HW266504  10.698   1.864   8.604  1.6365 -0.4991  1.1458
53215SOL     OW66505   2.411   6.276   0.140  0.2368 -0.0340  0.0667
53215SOL    HW166506   2.361   6.331   0.080 -0.0761 -0.6227 -0.2181
53215SOL    HW266507   2.345   6.241   0.201  0.4533  0.0005  0.3238
53216SOL     OW66508   4.741   7.586  12.200  0.4065 -0.2803  0.0008
53216SOL    HW166509   4.713   7.500  12.170  0.7127 -0.3884  0.0304
53216SOL    HW266510   4.690   7.647  12.146 -1.8633 -0.4390  1.8202
53217SOL     OW66511  10.699   2.454   5.451 -0.3540 -0.0198  0.0325
53217SOL    HW166512  10.765   2.412   5.505 -0.1984  0.3681  0.1525
53217SOL    HW266513  10.716   2.421   5.363 -0.4716 -0.4887  0.1827
53218SOL     OW66514   3.715   5.829   3.475  0.6513  0.3477 -0.4195
53218SOL    HW166515   3.804   5.850   3.447  0.7189 -1.5363 -1.8259
53218SOL    HW266516   3.673   5.794   3.396 -0.1850 -2.2491  1.0579
53219SOL     OW66517   6.275  12.307   9.713 -0.4717  0.0935  0.2323
53219SOL    HW166518   6.283  12.214   9.691 -0.9989  0.2028 -0.4668
53219SOL    HW266519   6.346  12.349   9.664 -0.4392  0.0986  0.2834
53220SOL     OW66520   6.356  12.236   6.028  0.1716 -0.1433 -0.0024
53220SOL    HW166521   6.323  12.184   6.101  2.0338 -1.1580  0.1786
53220SOL    HW266522   6.332  12.326   6.050 -0.6616 -0.6156  1.0850
53221SOL     OW66523   2.241   2.746  12.122 -0.2872 -0.1214  0.3929
53221SOL    HW166524   2.263   2.652  12.117 -2.7924 -0.7198 -1.8923
53221SOL    HW266525   2.325   2.790  12.132  0.9429 -2.5839  2.0977
53222SOL     OW66526   8.989   8.366   3.424  0.0403 -0.0043  0.4926
53222SOL    HW166527   9.009   8.370   3.517  0.2572  0.7045  0.4198
53222SOL    HW266528   8.956   8.453   3.402 -0.7651 -0.4070  0.0740
53223SOL     OW66529   5.115   0.766   8.155 -0.3639 -0.1620 -0.7749
53223SOL    HW166530   5.190   0.796   8.206  0.6337 -2.0619 -1.0167
53223SOL    HW266531   5.141   0.781   8.064 -1.0702  0.8597 -0.8222
53224SOL     OW66532   7.892   4.343   1.087 -0.1233  0.6044  0.2119
53224SOL    HW166533   7.933   4.416   1.133  1.0804 -0.9063  1.6507
53224SOL    HW266534   7.921   4.265   1.134 -2.3128 -0.7601 -0.5241
53225SOL     OW66535   7.810   8.657   2.685  0.4359 -0.2096  0.4299
53225SOL    HW166536   7.815   8.752   2.684 -1.1193 -0.1157 -0.0913
53225SOL    HW266537   7.892   8.629   2.727  1.1300  1.3202  0.1508
53226SOL     OW66538  12.176   2.585   3.580  0.2391  0.1518 -0.3550
53226SOL    HW166539  12.125   2.506   3.597  0.0304  0.6511  1.5570
53226SOL    HW266540  12.206   2.576   3.489 -1.4610 -1.1490 -0.8281
53227SOL     OW66541   4.631   6.248   6.458 -0.0315 -0.1441  0.1596
53227SOL    HW166542   4.624   6.184   6.529 -0.0175  0.1071  0.3917
53227SOL    HW266543   4.598   6.330   6.496  1.8212  0.4879  0.5142
53228SOL     OW66544   5.524   4.780   0.725 -0.0303  0.3360  0.1617
53228SOL    HW166545   5.608   4.776   0.771  0.8911 -0.8517 -1.5354
53228SOL    HW266546   5.498   4.689   0.713 -0.3739  0.6060 -1.4148
53229SOL     OW66547   4.797   3.400   0.404  0.4365 -0.2371 -0.4469
53229SOL    HW166548   4.865   3.452   0.446  0.5829  0.9020 -1.9809
53229SOL    HW266549   4.721   3.459   0.399  0.4609 -0.2744 -1.8099
53230SOL     OW66550   2.283   2.124   3.890  0.2989  0.2827 -0.2840
53230SOL    HW166551   2.289   2.031   3.911 -0.2762  0.3084  0.0006
53230SOL    HW266552   2.347   2.137   3.820 -0.4528 -0.5590 -1.1423
53231SOL     OW66553   2.367  11.567  10.311 -0.0349  0.9014  0.0729
53231SOL    HW166554   2.344  11.587  10.402 -2.7228 -0.6367 -0.1621
53231SOL    HW266555   2.381  11.472  10.310 -0.8239  0.7723 -1.2374
53232SOL     OW66556   8.436   1.526   0.821  0.0007 -0.1771  0.4725
53232SOL    HW166557   8.353   1.571   0.835  0.3227  1.3758 -1.8433
53232SOL    HW266558   8.498   1.573   0.876 -0.4968 -0.8609  1.6416
53233SOL     OW66559  10.987   3.135  11.398 -0.4877 -0.4888  0.0708
53233SOL    HW166560  10.892   3.125  11.398 -0.5625 -0.0579  1.6343
53233SOL    HW266561  11.020   3.057  11.445 -0.0585 -0.6800 -0.5337
53234SOL     OW66562   7.944  11.643   3.414 -0.0908  0.0248  0.0429
53234SOL    HW166563   7.884  11.590   3.468  1.1978 -2.0798 -0.4836
53234SOL    HW266564   7.914  11.630   3.325  1.3107 -1.3919 -0.2717
53235SOL     OW66565  11.457   1.295  11.715  0.5158 -0.1851  0.9129
53235SOL    HW166566  11.416   1.331  11.794  0.1731 -0.4815  0.8744
53235SOL    HW266567  11.385   1.252  11.669  0.9277 -0.9959  1.0089
53236SOL     OW66568   9.155   1.136  11.760  0.1458  0.1390 -0.3698
53236SOL    HW166569   9.180   1.224  11.788  1.0170 -0.2255  0.0091
53236SOL    HW266570   9.238   1.090  11.746 -0.2941 -0.8961  0.3031
53237SOL     OW66571   5.378   6.751   4.065 -0.1680 -0.5192  0.3838
53237SOL    HW166572   5.418   6.675   4.024 -0.1984 -1.1306  1.4508
53237SOL    HW266573   5.377   6.818   3.996  2.8471 -0.3828  0.3487
53238SOL     OW66574  11.222   5.800   8.362 -0.4597 -0.0604 -0.4947
53238SOL    HW166575  11.156   5.868   8.346 -0.8082  0.5196  2.8236
53238SOL    HW266576  11.287   5.814   8.292 -1.3580  2.5806 -0.9356
53239SOL     OW66577   5.700   1.852   4.628 -0.3346 -0.1445 -0.2917
53239SOL    HW166578   5.776   1.866   4.684 -0.7527  0.5085  0.1286
53239SOL    HW266579   5.721   1.772   4.579  0.2500 -0.4602  0.4403
53240SOL     OW66580   0.905   9.909   5.446  0.2280 -0.4085  0.0943
53240SOL    HW166581   0.875   9.824   5.416  0.0978 -0.0285 -0.9040
53240SOL    HW266582   0.852   9.927   5.524  0.5904 -1.4286  0.5955
53241SOL     OW66583   3.001   5.354   7.497 -0.3318  0.3113  0.4169
53241SOL    HW166584   3.072   5.388   7.444  1.0132  2.2311  3.2196
53241SOL    HW266585   2.939   5.427   7.503 -0.9600 -0.2340  0.6489
53242SOL     OW66586   8.495  11.214   8.623  0.2466  0.9048  0.5821
53242SOL    HW166587   8.539  11.285   8.670  1.1562 -0.6211  2.1405
53242SOL    HW266588   8.421  11.257   8.580  1.9490  3.1648 -0.3094
53243SOL     OW66589   2.687  11.530   8.712 -0.0204 -0.1731 -0.0661
53243SOL    HW166590   2.676  11.528   8.807 -1.0360 -1.2522 -0.1940
53243SOL    HW266591   2.602  11.558   8.678 -0.2671 -1.6414 -0.7323
53244SOL     OW66592  10.123  12.421   3.914  0.3775 -0.1162 -0.3179
53244SOL    HW166593  10.103  12.333   3.946  1.8753 -0.3013  0.1907
53244SOL    HW266594  10.198  12.409   3.855  0.2302  0.7454 -0.6962
53245SOL     OW66595   9.888  12.055   5.527  0.9051  0.1666 -0.6698
53245SOL    HW166596   9.909  11.968   5.561  2.0714  1.2256  1.5397
53245SOL    HW266597   9.936  12.061   5.444  2.2271 -0.6866  0.0043
53246SOL     OW66598   2.758   5.088  12.413  0.6333  0.5476  0.1428
53246SOL    HW166599   2.846   5.074  12.379  0.2865  0.8355 -0.9184
53246SOL    HW266600   2.737   5.008  12.461  1.1889  0.1741 -0.2339
53247SOL     OW66601   1.495   1.890  10.823  0.0413 -0.3160  0.2230
53247SOL    HW166602   1.460   1.805  10.795  2.1201 -0.6986 -1.5141
53247SOL    HW266603   1.488   1.946  10.746 -3.2696  1.9353  1.9098
53248SOL     OW66604   1.920   8.162   5.679  0.0617 -0.5809 -0.4957
53248SOL    HW166605   1.920   8.091   5.615 -1.7361 -1.0212 -0.0548
53248SOL    HW266606   1.988   8.222   5.648 -0.9071 -0.6548 -2.9432
53249SOL     OW66607   9.622   1.992   1.120 -0.9931  0.0621 -0.6001
53249SOL    HW166608   9.570   1.914   1.101 -0.3155 -0.2657 -1.1174
53249SOL    HW266609   9.683   2.000   1.046 -2.3174  2.1846 -1.5727
53250SOL     OW66610   8.574   7.600   2.215 -0.0108  0.1214  0.1777
53250SOL    HW166611   8.629   7.586   2.137 -0.4494 -1.0124  0.0519
53250SOL    HW266612   8.485   7.587   2.183 -0.4562  2.5903  0.2356
53251SOL     OW66613   6.072   3.672   7.219 -0.5790 -0.5981  0.2080
53251SOL    HW166614   6.008   3.720   7.271 -0.8631  0.6323 -1.2186
53251SOL    HW266615   6.156   3.711   7.241 -0.9777  1.9255 -2.2551
53252SOL     OW66616   1.429   4.670   5.227 -0.3924 -0.2753  0.2877
53252SOL    HW166617   1.502   4.663   5.166 -0.7034 -1.3799  0.0341
53252SOL    HW266618   1.355   4.698   5.173 -0.6341 -1.1188  0.1723
53253SOL     OW66619   2.691   1.873   9.754 -0.1186 -0.2260 -0.4282
53253SOL    HW166620   2.603   1.867   9.717 -0.3215 -0.7710  0.1334
53253SOL    HW266621   2.747   1.894   9.679 -0.6846 -0.1499 -0.8378
53254SOL     OW66622   5.357   6.573   5.410 -0.1981  0.6997  0.5508
53254SOL    HW166623   5.273   6.607   5.442 -0.1998  0.9098  0.3336
53254SOL    HW266624   5.350   6.478   5.419 -0.6135  0.6881  0.1852
53255SOL     OW66625  12.160   4.178   6.642 -0.5407  0.3445 -0.0166
53255SOL    HW166626  12.171   4.268   6.674  0.3626 -0.3198  1.6225
53255SOL    HW266627  12.186   4.183   6.550 -0.4047  1.7390  0.0712
53256SOL     OW66628  11.114   6.711   9.812 -0.2280 -0.0740  0.6563
53256SOL    HW166629  11.092   6.622   9.784 -0.9994  0.1634  0.4675
53256SOL    HW266630  11.165   6.699   9.892  3.1377 -0.8274 -1.4100
53257SOL     OW66631   6.276   3.227   9.443 -0.6472 -0.1073 -0.0889
53257SOL    HW166632   6.334   3.300   9.421  0.3969 -0.8037  0.2904
53257SOL    HW266633   6.210   3.227   9.374  0.5370 -0.0817 -1.2613
53258SOL     OW66634   4.960   6.578   4.842 -0.0835 -0.3705 -0.2531
53258SOL    HW166635   5.010   6.591   4.762 -1.8162 -0.8883 -1.4898
53258SOL    HW266636   4.876   6.621   4.825 -1.9677 -3.7219 -0.3248
53259SOL     OW66637   9.649   9.721   7.870 -0.7267  0.3770 -0.0159
53259SOL    HW166638   9.695   9.790   7.919 -0.6407 -0.1662  0.6816
53259SOL    HW266639   9.616   9.766   7.793 -0.0875  1.0588  0.0833
53260SOL     OW66640   1.816  10.011   1.663  0.0292 -0.0160 -0.5133
53260SOL    HW166641   1.851  10.085   1.613 -0.3662  0.7328  0.3158
53260SOL    HW266642   1.776   9.955   1.596  0.1561  0.6055 -1.1240
53261SOL     OW66643   3.347   0.678  10.781 -0.4030 -0.5177  0.0538
53261SOL    HW166644   3.429   0.653  10.824  1.2089  0.8586 -1.9337
53261SOL    HW266645   3.311   0.596  10.748  1.9464 -0.9439 -1.7827
53262SOL     OW66646  11.217   7.058   5.471 -0.2248  0.3362  0.1016
53262SOL    HW166647  11.306   7.076   5.500  0.7109 -0.6731 -1.9295
53262SOL    HW266648  11.210   7.104   5.387 -0.7873 -1.4127 -0.8681
53263SOL     OW66649   8.098  11.838   0.820  0.4236  0.0172  0.2518
53263SOL    HW166650   8.113  11.765   0.880  1.8984 -0.3102 -0.4609
53263SOL    HW266651   8.115  11.916   0.873  2.7043 -0.2855  0.0947
53264SOL     OW66652   5.402  11.905   7.532 -0.2161 -0.1140  0.3162
53264SOL    HW166653   5.451  11.875   7.455  1.3365  0.8960  0.8581
53264SOL    HW266654   5.356  11.983   7.502 -1.8506 -1.2405 -0.2813
53265SOL     OW66655  10.063   1.689   0.307 -0.2047 -0.2469 -0.6864
53265SOL    HW166656  10.153   1.658   0.303 -0.4506 -0.8470 -3.0626
53265SOL    HW266657  10.012   1.612   0.332 -0.2883 -0.5164 -1.6616
53266SOL     OW66658  10.672   2.394  11.238 -0.0975  0.1871  0.0343
53266SOL    HW166659  10.729   2.379  11.314  1.1300 -1.0958 -1.0909
53266SOL    HW266660  10.672   2.488  11.226  0.1607  0.3680  1.2589
53267SOL     OW66661   7.569   2.741  11.735 -0.1471  0.0084  0.0564
53267SOL    HW166662   7.659   2.709  11.734 -0.5704 -1.2899 -1.4714
53267SOL    HW266663   7.567   2.810  11.668 -0.0619  0.7829  0.8363
53268SOL     OW66664   0.057  10.944   6.000  0.1097 -0.1048  0.3665
53268SOL    HW166665  -0.003  10.901   5.938  2.2846  0.5403 -2.4075
53268SOL    HW266666   0.111  10.873   6.033 -0.6437 -0.3666  1.0701
53269SOL     OW66667   8.856   2.045   5.340  0.4647 -0.0920 -0.0066
53269SOL    HW166668   8.898   2.100   5.274  0.3824 -1.5081 -1.2992
53269SOL    HW266669   8.922   2.033   5.408  0.7429  0.9343 -0.0826
53270SOL     OW66670   8.208   6.782   9.227 -0.2399 -0.1755  0.2404
53270SOL    HW166671   8.276   6.842   9.197  0.0603  0.5576  2.2443
53270SOL    HW266672   8.130   6.808   9.178  0.2534  0.8791 -0.0001
53271SOL     OW66673   6.968  11.665   8.875  0.4395  0.0258 -0.0581
53271SOL    HW166674   6.943  11.626   8.959  0.2775 -0.9731 -0.5564
53271SOL    HW266675   7.058  11.637   8.862  0.5288  0.3413 -0.1416
53272SOL     OW66676   0.886   3.150   2.649  0.0888  0.2799  0.1279
53272SOL    HW166677   0.941   3.224   2.623 -0.0426  0.2096 -0.3625
53272SOL    HW266678   0.941   3.098   2.708  0.7251 -0.0672 -0.7596
53273SOL     OW66679   7.885   3.890   8.969 -0.7299 -0.2190 -0.3315
53273SOL    HW166680   7.974   3.906   8.937 -0.4362 -0.6579  0.2437
53273SOL    HW266681   7.857   3.809   8.925 -1.5311  0.8513 -1.8653
53274SOL     OW66682   6.710   0.406  10.765 -0.2713 -0.6170  0.5121
53274SOL    HW166683   6.630   0.456  10.775  0.0894  0.4672 -1.4540
53274SOL    HW266684   6.691   0.321  10.805 -2.3131 -0.3022  0.2926
53275SOL     OW66685  10.962   6.976  11.996 -0.5151 -0.0178  0.8583
53275SOL    HW166686  10.965   7.050  11.935  0.6325 -1.0044 -0.3380
53275SOL    HW266687  10.939   7.015  12.080 -0.2259  1.6509  0.1971
53276SOL     OW66688   9.229   4.607  11.800  0.5482  0.0675 -0.1021
53276SOL    HW166689   9.320   4.593  11.828  0.2245 -2.1113  0.0640
53276SOL    HW266690   9.224   4.565  11.714 -0.1764  0.6843 -0.3767
53277SOL     OW66691   3.890   4.974   8.773  0.1409  0.0214 -0.4360
53277SOL    HW166692   3.848   5.044   8.722  1.1004  0.6688 -0.3621
53277SOL    HW266693   3.822   4.908   8.783 -1.4649  1.8078  1.2217
53278SOL     OW66694   3.353   6.556   3.105  0.5574  0.1062  0.5391
53278SOL    HW166695   3.331   6.561   3.013 -0.3283 -1.8778  0.5992
53278SOL    HW266696   3.441   6.594   3.111 -0.3217  2.4953 -0.6835
53279SOL     OW66697  11.525   6.198   7.389 -0.6525 -0.3748  0.2330
53279SOL    HW166698  11.563   6.284   7.369  1.2034 -0.9591  1.0685
53279SOL    HW266699  11.569   6.138   7.330 -2.2208 -0.7543 -0.6135
53280SOL     OW66700   1.708   4.531   9.301  0.0643  0.7579 -0.3540
53280SOL    HW166701   1.666   4.586   9.234  1.2234 -0.2701 -2.0045
53280SOL    HW266702   1.770   4.478   9.252 -1.2682 -2.3360  1.0721
53281SOL     OW66703   1.150   4.501  10.937 -0.0791 -0.4666 -0.1615
53281SOL    HW166704   1.181   4.528  11.024  0.6898 -1.1287 -0.2182
53281SOL    HW266705   1.055   4.495  10.947 -0.0941  0.4438  0.3531
53282SOL     OW66706   8.923   5.226   9.179  0.4566  0.5467  0.4512
53282SOL    HW166707   8.932   5.317   9.150  1.0276  1.1292  2.3490
53282SOL    HW266708   8.843   5.225   9.232  0.3671 -0.0941  0.3148
53283SOL     OW66709   9.212   0.148   9.688  0.2835 -0.1659  0.3415
53283SOL    HW166710   9.213   0.053   9.705 -1.4225 -0.1088  0.8721
53283SOL    HW266711   9.274   0.184   9.752  0.7593 -0.8838  0.3025
53284SOL     OW66712   3.210   9.741   7.304 -0.1210  0.0042 -0.0284
53284SOL    HW166713   3.229   9.660   7.352 -1.6749 -1.4929 -1.7530
53284SOL    HW266714   3.294   9.767   7.266  0.2557 -1.3599 -0.1939
53285SOL     OW66715   9.594   8.716  10.234  0.5513  0.0209  0.1633
53285SOL    HW166716   9.525   8.767  10.276 -0.3907 -0.7980 -0.3632
53285SOL    HW266717   9.674   8.763  10.255 -0.0774  0.5696  1.4341
53286SOL     OW66718  11.816   0.054  10.162 -0.3327  0.3237 -0.2156
53286SOL    HW166719  11.765   0.042  10.082  1.2978  1.4100 -1.4910
53286SOL    HW266720  11.854   0.142  10.153 -0.2040  0.5236  1.8181
53287SOL     OW66721   3.983   4.082   4.909  0.2464  0.8553 -0.1619
53287SOL    HW166722   3.936   4.039   4.837 -1.4943  0.2321  1.2852
53287SOL    HW266723   4.043   4.142   4.865  1.8270 -1.9897 -2.2586
53288SOL     OW66724   4.782  10.847   0.685 -0.1076 -0.2404 -0.4102
53288SOL    HW166725   4.778  10.871   0.777 -1.3491  0.5435 -0.6484
53288SOL    HW266726   4.691  10.845   0.656  0.2456 -0.6497 -1.5803
53289SOL     OW66727   7.354   7.934   9.914  0.0776 -0.1837 -0.1730
53289SOL    HW166728   7.434   7.897   9.952  0.3107 -0.5705 -1.0171
53289SOL    HW266729   7.284   7.875   9.943 -0.0906  0.7807  1.5049
53290SOL     OW66730   6.810   7.280   4.200  0.0844  0.0561  0.6257
53290SOL    HW166731   6.775   7.215   4.139  0.3672  0.2966  0.1987
53290SOL    HW266732   6.851   7.346   4.143 -0.1941  0.6063  1.0512
53291SOL     OW66733   8.468   0.937   3.897  0.3818  0.0772  0.0075
53291SOL    HW166734   8.505   0.901   3.817  0.6596  2.3843 -0.9792
53291SOL    HW266735   8.429   1.021   3.871 -2.1486 -0.4287  1.7402
53292SOL     OW66736   2.862   5.979   1.921 -0.2740  0.7107 -0.1919
53292SOL    HW166737   2.923   6.000   1.851 -0.8465  0.3973 -0.7943
53292SOL    HW266738   2.776   6.001   1.886 -0.6686 -0.4402  0.0071
53293SOL     OW66739   1.302  12.349   0.833  0.0640 -0.0809  0.1238
53293SOL    HW166740   1.207  12.336   0.834  0.1844 -1.1078 -0.4694
53293SOL    HW266741   1.325  12.372   0.923 -0.8049  0.6515  0.1677
53294SOL     OW66742  12.308   0.113   6.841 -0.5233 -0.2572 -0.3061
53294SOL    HW166743  12.383   0.172   6.830 -0.0546 -0.5962  0.8906
53294SOL    HW266744  12.347   0.027   6.856 -1.0463 -0.1697  2.0270
53295SOL     OW66745   5.456   3.522   1.859 -0.0008  0.0898 -0.4034
53295SOL    HW166746   5.499   3.607   1.870 -2.7020  1.3701  1.6199
53295SOL    HW266747   5.523   3.458   1.881  1.6588  1.7800 -0.2676
53296SOL     OW66748   9.051   4.421  10.362 -0.1531  0.3989  0.0924
53296SOL    HW166749   9.052   4.505  10.410 -0.3220  0.3355  0.2079
53296SOL    HW266750   9.100   4.361  10.418  0.8965  0.6874 -0.4895
53297SOL     OW66751   6.736   0.648   8.913  0.1743  0.1003 -0.3608
53297SOL    HW166752   6.778   0.729   8.941 -1.4160  0.4448  1.2004
53297SOL    HW266753   6.729   0.595   8.993 -1.3487 -0.3758 -0.7747
53298SOL     OW66754   5.261   3.617   3.545  0.7838  0.0023 -0.0033
53298SOL    HW166755   5.297   3.620   3.456  0.8068 -2.1851 -0.1227
53298SOL    HW266756   5.193   3.683   3.546  1.2560  0.5451 -1.4302
53299SOL     OW66757  11.944   7.949   2.753  0.0862  0.2204  0.3179
53299SOL    HW166758  11.969   7.961   2.662 -0.3176  0.4604  0.2309
53299SOL    HW266759  11.933   7.855   2.764  2.6937 -0.0930  0.8333
53300SOL     OW66760   9.162   6.124  10.725 -0.0784 -0.1323 -0.0562
53300SOL    HW166761   9.220   6.126  10.801 -1.0845  1.2794  0.7214
53300SOL    HW266762   9.222   6.132  10.650  0.9630 -2.0726  0.5149
53301SOL     OW66763  10.356   6.886   1.129 -0.1077  0.0828  0.2575
53301SOL    HW166764  10.343   6.967   1.079 -0.1781 -0.0155  0.1163
53301SOL    HW266765  10.432   6.844   1.088  0.5739  0.5809  0.9803
53302SOL     OW66766   0.026   4.838  12.418 -0.2485 -0.5008  0.2287
53302SOL    HW166767   0.118   4.865  12.416 -0.5154  0.4580  0.2931
53302SOL    HW266768   0.029   4.743  12.424  0.7638 -0.3987  2.6157
53303SOL     OW66769   0.228   5.837  11.048  0.5307  0.3457  0.0988
53303SOL    HW166770   0.294   5.893  11.089 -1.3422  1.8275  1.2616
53303SOL    HW266771   0.214   5.767  11.112 -0.0887  0.8868  0.5738
53304SOL     OW66772   5.998   5.659   0.464  0.1490 -0.1517 -0.0579
53304SOL    HW166773   6.039   5.585   0.419 -0.3094 -1.3454  1.4269
53304SOL    HW266774   6.060   5.684   0.532 -0.4376 -0.2809  0.5315
53305SOL     OW66775   3.874  10.685  12.290 -0.4925  0.3702 -0.5011
53305SOL    HW166776   3.781  10.664  12.281 -1.4705  3.3458  0.9911
53305SOL    HW266777   3.891  10.748  12.220  0.4575 -0.2592 -0.8496
53306SOL     OW66778   7.352   7.996   8.120 -0.5470  0.1556 -0.3615
53306SOL    HW166779   7.404   8.060   8.170 -1.6409 -0.4106  1.6278
53306SOL    HW266780   7.263   8.033   8.120 -0.7567 -0.3341 -1.0986
53307SOL     OW66781  11.349  11.997   9.830  0.3289  0.2779  0.0792
53307SOL    HW166782  11.337  11.961   9.742 -2.0747  1.4780 -0.1699
53307SOL    HW266783  11.307  12.083   9.826 -2.4675 -0.7355  3.1018
53308SOL     OW66784  12.399   5.097  12.388  0.2610  0.3741 -0.2598
53308SOL    HW166785  12.445   5.015  12.407 -2.1318 -1.4855 -1.8992
53308SOL    HW266786  12.418   5.114  12.296 -0.2726  0.9498 -0.2698
53309SOL     OW66787   0.342   9.928   7.141  0.0366  0.5650  0.2379
53309SOL    HW166788   0.303   9.994   7.198  0.5422  1.0120  0.0806
53309SOL    HW266789   0.293   9.848   7.159  0.3155  0.6460  1.4430
53310SOL     OW66790  10.858   5.954   3.021  0.1773  0.2272 -0.5216
53310SOL    HW166791  10.778   5.990   3.059  0.3227  1.0758 -1.0143
53310SOL    HW266792  10.831   5.870   2.984 -0.1028 -0.3296  0.8830
53311SOL     OW66793   7.225   4.024   1.022  0.5178 -0.0118 -0.2557
53311SOL    HW166794   7.171   4.056   0.950  0.1886  1.2113  0.5000
53311SOL    HW266795   7.311   4.064   1.008  0.8483 -0.8615 -0.7046
53312SOL     OW66796   3.477   9.182   5.319  0.0191  0.9535  0.2265
53312SOL    HW166797   3.506   9.196   5.408  0.3509  1.9054 -0.0221
53312SOL    HW266798   3.558   9.177   5.267 -0.1919  1.5834 -0.1786
53313SOL     OW66799  11.919   6.175   3.940  0.2434  0.5107 -0.5707
53313SOL    HW166800  11.936   6.224   4.021  1.3398 -0.9817  0.1688
53313SOL    HW266801  11.998   6.187   3.888 -0.8290  2.2169 -1.8656
53314SOL     OW66802   4.150   6.225   7.556  0.2664 -0.1010 -0.0138
53314SOL    HW166803   4.237   6.206   7.521  0.7604  3.2927 -0.9608
53314SOL    HW266804   4.166   6.278   7.633 -0.9974 -2.4327  2.0043
53315SOL     OW66805  10.932   6.396   4.527 -0.1896 -0.1336 -0.2195
53315SOL    HW166806  10.992   6.465   4.501  0.7277 -0.9783 -0.4134
53315SOL    HW266807  10.945   6.327   4.462 -2.2458  0.1269 -0.9548
53316SOL     OW66808   4.179   6.819   1.500  0.2673  0.2392 -0.0432
53316SOL    HW166809   4.118   6.762   1.453 -1.0574  0.4150  1.3832
53316SOL    HW266810   4.254   6.827   1.441 -0.4336 -1.2075 -1.2091
53317SOL     OW66811   1.112   3.132   5.775 -0.3969 -0.2797  0.1736
53317SOL    HW166812   1.080   3.055   5.822 -0.5778  0.0265  0.5637
53317SOL    HW266813   1.086   3.206   5.830  1.0616 -0.0193  0.5467
53318SOL     OW66814   8.528   4.084   7.043  0.1647 -0.2207  0.0642
53318SOL    HW166815   8.547   4.075   6.949  0.3147 -0.5372  0.1234
53318SOL    HW266816   8.491   3.999   7.067  0.3783 -0.2328  0.3516
53319SOL     OW66817   2.657  10.777   2.665  0.2682  0.6789 -0.2230
53319SOL    HW166818   2.741  10.750   2.701 -0.4872 -1.2946  0.1891
53319SOL    HW266819   2.614  10.824   2.736  0.5129  0.5591  0.0065
53320SOL     OW66820   5.502   7.908  11.095 -0.0252  0.4535  0.4428
53320SOL    HW166821   5.591   7.933  11.120  0.3142 -0.6157  0.3541
53320SOL    HW266822   5.452   7.911  11.176 -0.4960  3.2685  0.1554
53321SOL     OW66823   9.477   5.329   2.159 -0.5205  0.1242 -0.1997
53321SOL    HW166824   9.425   5.389   2.214  1.6383  2.3973 -0.4190
53321SOL    HW266825   9.518   5.269   2.221 -0.1699  0.9857  0.4198
53322SOL     OW66826   4.425   0.725   7.920 -0.5080 -0.1508 -0.1212
53322SOL    HW166827   4.449   0.770   8.001 -0.6929 -2.4880  1.3449
53322SOL    HW266828   4.348   0.673   7.943 -0.4105 -1.0847 -1.7328
53323SOL     OW66829   8.661   0.721   8.177 -0.1052 -0.5851 -0.1838
53323SOL    HW166830   8.586   0.699   8.122 -0.3281 -0.1998 -0.0356
53323SOL    HW266831   8.642   0.679   8.261 -0.9019  0.7682  0.3500
53324SOL     OW66832  11.982   8.881   1.924 -0.1160 -0.3497  0.2565
53324SOL    HW166833  12.050   8.860   1.860  1.0595 -0.0549  1.3584
53324SOL    HW266834  11.901   8.845   1.886  0.9825 -2.6377 -0.1312
53325SOL     OW66835  10.483   3.607   9.022 -0.7536  0.1323  0.2537
53325SOL    HW166836  10.480   3.515   9.046  0.2109  0.0963  0.2696
53325SOL    HW266837  10.502   3.608   8.928 -0.9966  0.3109  0.2058
53326SOL     OW66838   3.232  10.801  12.428 -0.4850  0.2778 -0.0703
53326SOL    HW166839   3.276  10.783  12.511 -0.2005  1.2264 -0.0037
53326SOL    HW266840   3.209  10.715  12.394  0.2257 -0.1678  0.5448
53327SOL     OW66841   2.827   9.228   5.091 -0.8008 -0.2819 -0.4453
53327SOL    HW166842   2.912   9.213   5.050 -0.1038 -0.9418  1.1536
53327SOL    HW266843   2.764   9.187   5.032  0.0246 -0.1964 -1.4131
53328SOL     OW66844   9.228  10.957   5.636 -0.3028  0.4423 -0.6400
53328SOL    HW166845   9.174  11.002   5.701  0.6898 -0.7707  1.0762
53328SOL    HW266846   9.165  10.907   5.583 -0.9410 -0.4210  0.8925
53329SOL     OW66847   2.063   7.380  10.936  0.0804 -0.0712 -0.3029
53329SOL    HW166848   2.151   7.352  10.912 -0.1098  0.6019 -1.9302
53329SOL    HW266849   2.045   7.336  11.019  1.7582 -0.5841 -0.1816
53330SOL     OW66850   5.156   4.852   5.482 -0.0123 -0.4285 -0.5186
53330SOL    HW166851   5.115   4.797   5.416 -1.2957 -0.5357  0.3282
53330SOL    HW266852   5.103   4.932   5.482 -1.3987 -1.2295  1.7672
53331SOL     OW66853   6.202   6.700   9.921 -0.0627  0.3322 -0.1428
53331SOL    HW166854   6.201   6.672  10.012 -0.6630 -1.0482 -0.5434
53331SOL    HW266855   6.146   6.637   9.876  0.5373  0.7478 -1.5312
53332SOL     OW66856   2.351  12.153   3.577 -0.3712  0.2507  0.1478
53332SOL    HW166857   2.261  12.165   3.609 -0.8509  0.7325 -1.2789
53332SOL    HW266858   2.343  12.082   3.512  0.3331  0.1111  0.2099
53333SOL     OW66859   0.584   2.076   3.906 -0.1846  0.5235 -0.0038
53333SOL    HW166860   0.555   2.062   3.815  0.5140 -0.1906 -0.1225
53333SOL    HW266861   0.663   2.022   3.915  0.5503  1.6640  0.6137
53334SOL     OW66862  11.152  11.673   8.641 -0.3250 -0.7084 -0.0567
53334SOL    HW166863  11.097  11.738   8.596 -0.1363 -0.6486 -0.2041
53334SOL    HW266864  11.235  11.676   8.594 -0.9372 -2.4941 -1.3601
53335SOL     OW66865   2.168   0.147  11.473  0.4762  0.4488 -0.1526
53335SOL    HW166866   2.232   0.193  11.419  0.6646  1.3959  0.8590
53335SOL    HW266867   2.084   0.188  11.451  0.1211 -0.9561 -1.6629
53336SOL     OW66868   5.900   8.109   9.760  0.0840 -0.1704  0.2778
53336SOL    HW166869   5.896   8.198   9.794  1.3462  0.0410 -0.0476
53336SOL    HW266870   5.837   8.107   9.689  0.5980  0.7083 -0.2201
53337SOL     OW66871   6.751  12.299   9.202 -0.3036 -0.4862 -0.0841
53337SOL    HW166872   6.697  12.311   9.125  1.1872  1.1796 -0.9474
53337SOL    HW266873   6.831  12.258   9.169  0.9441  1.5492  0.2603
53338SOL     OW66874  10.635   6.610   6.660 -0.0981 -0.0630 -0.3227
53338SOL    HW166875  10.669   6.553   6.729 -1.9965  0.9939  1.6080
53338SOL    HW266876  10.540   6.600   6.665 -0.3252  0.3459 -2.5867
53339SOL     OW66877   6.106  10.412   8.330 -0.1160 -0.0642  0.2777
53339SOL    HW166878   6.165  10.487   8.326 -0.4554  0.3139  1.6397
53339SOL    HW266879   6.021  10.447   8.301 -0.0413 -0.1806 -0.0796
53340SOL     OW66880   6.384   5.344   4.739 -0.2437 -0.2443  0.1919
53340SOL    HW166881   6.328   5.422   4.740  0.1603  0.0730 -0.6386
53340SOL    HW266882   6.380   5.311   4.828 -2.2167 -0.5702  0.0354
53341SOL     OW66883  10.669  11.718   9.276  0.4140 -0.2023 -0.4698
53341SOL    HW166884  10.638  11.745   9.190 -0.2807  1.4737  0.2567
53341SOL    HW266885  10.688  11.800   9.321 -0.9388 -0.9384  1.5768
53342SOL     OW66886  11.452   9.254  10.134 -0.1503  0.0300 -0.4016
53342SOL    HW166887  11.480   9.163  10.144 -0.0893  0.1389  0.4947
53342SOL    HW266888  11.529   9.306  10.157  0.0907  0.3269 -1.7673
53343SOL     OW66889  10.777   4.675   6.883 -0.0780  0.1814 -0.8455
53343SOL    HW166890  10.860   4.720   6.869 -0.8783  1.9084 -0.3041
53343SOL    HW266891  10.778   4.650   6.975  0.6667 -1.6580 -1.2967
53344SOL     OW66892   1.555   1.868   0.371  0.4696  0.1504 -0.3886
53344SOL    HW166893   1.556   1.923   0.293  1.4349  1.6989  0.6408
53344SOL    HW266894   1.555   1.931   0.444  0.3281 -1.2362  0.8534
53345SOL     OW66895   0.084   0.455   2.977 -0.5576 -0.5302  0.0552
53345SOL    HW166896   0.098   0.548   2.964 -0.9519 -0.5861 -0.8573
53345SOL    HW266897   0.166   0.414   2.949 -0.9468 -0.5535 -1.1440
53346SOL     OW66898   0.489   2.974   2.971  0.3443  0.2214  0.6117
53346SOL    HW166899   0.560   2.973   2.907  1.3494 -0.0821  1.6780
53346SOL    HW266900   0.411   2.949   2.922  1.2132 -0.6964 -0.3443
53347SOL     OW66901   8.866   0.283   4.694 -0.0800  0.4374 -0.1466
53347SOL    HW166902   8.841   0.363   4.649  0.9809 -0.5450 -2.6264
53347SOL    HW266903   8.961   0.284   4.695 -0.0532 -0.6171  0.1116
53348SOL     OW66904  10.574   4.958   5.576  0.2451  0.1806  0.1649
53348SOL    HW166905  10.643   4.909   5.531  0.2140 -0.0450  0.3606
53348SOL    HW266906  10.614   4.984   5.660  0.5991  1.3436 -0.3401
53349SOL     OW66907   0.003   3.217   6.742  0.1196  0.1908 -0.0361
53349SOL    HW166908  -0.070   3.167   6.779 -1.2534  2.4535  0.5008
53349SOL    HW266909   0.032   3.274   6.814  1.8053  0.0303 -0.5459
53350SOL     OW66910   0.988  11.022   7.214 -0.3647 -0.3573 -0.6081
53350SOL    HW166911   1.007  11.035   7.307 -2.0412 -0.8660 -0.1719
53350SOL    HW266912   1.008  10.930   7.198 -2.0047 -0.8107 -0.2251
53351SOL     OW66913  10.680   5.996   3.695  0.0804  0.3542  0.2872
53351SOL    HW166914  10.702   6.074   3.746  2.8448  0.0620 -0.3288
53351SOL    HW266915  10.738   5.928   3.730  1.4078 -0.0939 -2.5665
53352SOL     OW66916  11.567   6.240   5.208  0.3917 -0.2097  0.4126
53352SOL    HW166917  11.496   6.179   5.188  0.8018 -1.1119  1.5947
53352SOL    HW266918  11.599   6.269   5.123 -1.0106 -0.2239 -0.1427
53353SOL     OW66919  11.415  10.199  10.491 -0.0738 -0.0986  0.1274
53353SOL    HW166920  11.380  10.272  10.440  1.0384  1.0838  0.9983
53353SOL    HW266921  11.454  10.141  10.426  1.6566  1.5623 -0.4011
53354SOL     OW66922   5.506  11.253   2.489  0.1523  0.6970 -0.3059
53354SOL    HW166923   5.550  11.213   2.564 -0.4466  0.4801 -0.0680
53354SOL    HW266924   5.414  11.256   2.513  0.0779  1.4696 -0.6617
53355SOL     OW66925   1.278   5.137   7.551  0.0254  0.1889  0.1624
53355SOL    HW166926   1.240   5.121   7.637 -2.2900  0.1047 -0.8096
53355SOL    HW266927   1.244   5.222   7.525  0.3159  0.0047 -0.8748
53356SOL     OW66928   4.811   5.748   7.765  0.2894  0.5820 -0.3048
53356SOL    HW166929   4.785   5.816   7.703 -0.3147 -1.0380 -1.9384
53356SOL    HW266930   4.735   5.737   7.822  0.4922  1.4277  0.1495
53357SOL     OW66931  11.231  11.442   8.348 -0.0128 -0.0513 -0.2964
53357SOL    HW166932  11.215  11.383   8.275  1.3766 -0.3922 -0.3551
53357SOL    HW266933  11.201  11.394   8.425  1.6395 -1.1175 -0.2708
53358SOL     OW66934   3.313   1.156   9.235  0.6141  0.0780  0.1815
53358SOL    HW166935   3.390   1.208   9.257  0.0234  0.6776  0.8652
53358SOL    HW266936   3.315   1.083   9.296  1.3942 -0.6815 -0.7193
53359SOL     OW66937   5.943   0.909  10.927 -0.0478 -0.2930 -0.0680
53359SOL    HW166938   5.982   0.892  10.842  0.8178  0.2923  0.1905
53359SOL    HW266939   5.929   1.004  10.928  0.4473 -0.2127  0.6257
53360SOL     OW66940   9.271  11.458   1.975 -0.2041  0.4875 -0.0796
53360SOL    HW166941   9.188  11.415   1.953 -0.9100  1.7179  0.0874
53360SOL    HW266942   9.271  11.463   2.070  0.2674  0.0942 -0.0595
53361SOL     OW66943   0.554   5.740   0.463 -0.1835 -0.0552 -0.0768
53361SOL    HW166944   0.579   5.768   0.551  1.8258 -0.8114 -0.3416
53361SOL    HW266945   0.591   5.807   0.405  1.7575 -1.3882 -0.5049
53362SOL     OW66946   4.368   4.092   3.845 -0.2316 -0.5009 -0.0009
53362SOL    HW166947   4.301   4.153   3.814 -1.7560 -3.0100 -2.0533
53362SOL    HW266948   4.428   4.083   3.771  0.2328 -1.1452  0.4477
53363SOL     OW66949   8.027   0.986   2.873  0.2379  0.2052  0.3838
53363SOL    HW166950   8.015   0.899   2.910  2.6996 -0.0776  0.7365
53363SOL    HW266951   7.942   1.028   2.880 -0.7694 -1.8297  1.0810
53364SOL     OW66952  10.930   8.104   8.939  0.2036 -0.2992 -0.4838
53364SOL    HW166953  10.982   8.182   8.958 -1.0802  0.2307  1.0529
53364SOL    HW266954  10.903   8.115   8.848  0.8287  0.5786 -0.5755
53365SOL     OW66955   2.705   6.090   7.190 -0.3983  0.4223 -0.3486
53365SOL    HW166956   2.768   6.064   7.258 -0.6348 -0.7984 -0.5597
53365SOL    HW266957   2.748   6.065   7.108 -1.3685 -1.0064 -0.4689
53366SOL     OW66958   5.868   0.722   0.735  0.2986 -0.2990  0.2518
53366SOL    HW166959   5.779   0.695   0.715  0.2871 -0.1552  0.1074
53366SOL    HW266960   5.889   0.787   0.668 -0.1052  0.9317  1.2796
53367SOL     OW66961  11.668   3.281   2.809  0.0193 -0.3978  0.5255
53367SOL    HW166962  11.632   3.238   2.887 -3.0544 -1.2483 -1.1874
53367SOL    HW266963  11.657   3.375   2.826 -1.9825 -0.6051  0.5995
53368SOL     OW66964  10.107   3.201   3.554  0.5177  0.7102 -0.4493
53368SOL    HW166965  10.086   3.255   3.477 -0.2536  0.2822 -0.5490
53368SOL    HW266966  10.147   3.122   3.518  1.1403  0.9631 -0.3347
53369SOL     OW66967   5.524  11.598   4.542 -0.0161 -0.4077  0.1387
53369SOL    HW166968   5.569  11.645   4.612 -0.4320 -0.3144  0.3429
53369SOL    HW266969   5.548  11.506   4.556 -1.4583 -0.6329  1.4576
53370SOL     OW66970   2.099   7.676   0.292  0.1136 -0.2726 -0.6482
53370SOL    HW166971   2.026   7.708   0.240  0.2813  0.0722 -0.6750
53370SOL    HW266972   2.059   7.622   0.360 -0.0650 -1.2715 -1.5146
53371SOL     OW66973   1.210  12.115   2.287 -0.0036 -0.2235  0.7235
53371SOL    HW166974   1.268  12.043   2.264 -0.8011 -0.7782  0.4001
53371SOL    HW266975   1.167  12.087   2.367 -0.0642  0.0487  0.7891
53372SOL     OW66976   3.174   2.166  11.116 -0.6049 -0.3874 -0.4025
53372SOL    HW166977   3.179   2.098  11.182 -3.2758 -0.9096 -0.6426
53372SOL    HW266978   3.216   2.128  11.039 -0.9837 -1.3038 -0.1667
53373SOL     OW66979   8.910   2.949   1.074  0.0582 -0.5323  0.0884
53373SOL    HW166980   8.996   2.906   1.081 -0.6199 -1.6255  3.0590
53373SOL    HW266981   8.862   2.918   1.150 -2.4651  1.2816 -0.6628
53374SOL     OW66982  11.808   3.538   3.569  0.4000 -0.6599 -0.3635
53374SOL    HW166983  11.803   3.449   3.606 -0.1475 -0.4296  0.1370
53374SOL    HW266984  11.877   3.581   3.621 -1.2870  0.0889  1.3848
53375SOL     OW66985   6.930   2.191   5.348 -0.3022  0.2902 -0.1117
53375SOL    HW166986   6.937   2.265   5.289 -1.8858 -0.7439 -1.6839
53375SOL    HW266987   6.910   2.116   5.292 -0.4239 -1.0282  1.5798
53376SOL     OW66988   4.921  12.362   9.886  0.3396 -0.1875  0.0957
53376SOL    HW166989   4.839  12.343   9.839  0.7167 -0.7969 -0.3293
53376SOL    HW266990   4.938  12.455   9.868 -0.0152 -0.1768 -0.2005
53377SOL     OW66991   1.656  11.255  12.440 -0.3201 -0.5119  0.4471
53377SOL    HW166992   1.647  11.350  12.447  0.3759 -0.5263  1.8673
53377SOL    HW266993   1.722  11.232  12.506  1.2412 -1.7319 -1.4356
53378SOL     OW66994   3.394   0.131   8.353  0.1024 -0.4891 -0.5116
53378SOL    HW166995   3.347   0.213   8.366  0.8723 -0.0377 -0.4763
53378SOL    HW266996   3.345   0.067   8.404  0.1917  0.2158  0.5031
53379SOL     OW66997   5.042   1.457   8.172  0.0363  0.5194 -0.1078
53379SOL    HW166998   5.007   1.544   8.154 -1.1802  0.3948  1.5349
53379SOL    HW266999   5.120   1.473   8.225  2.4149  0.7609 -3.3019
53380SOL     OW67000   2.442  10.056   5.693 -0.4533  0.3117  0.2755
53380SOL    HW167001   2.493  10.104   5.628  0.4939  1.4183  1.7624
53380SOL    HW267002   2.492   9.976   5.709 -1.9021 -1.1718 -2.0168
53381SOL     OW67003   2.109   0.919   9.282  0.2419  0.1165 -0.1654
53381SOL    HW167004   2.189   0.941   9.330  0.1923  2.3123 -0.9513
53381SOL    HW267005   2.140   0.875   9.202  0.4315 -1.7548  0.8809
53382SOL     OW67006   6.695  10.406   7.051 -0.5177  0.1344 -0.3278
53382SOL    HW167007   6.726  10.348   7.120  0.4518 -0.3802 -1.1607
53382SOL    HW267008   6.613  10.367   7.021 -0.0691 -0.6006 -0.6176
53383SOL     OW67009   3.878   2.484   2.034  0.2157 -0.0339 -0.1405
53383SOL    HW167010   3.913   2.566   2.068  0.9288  0.7523 -2.5519
53383SOL    HW267011   3.908   2.418   2.096  2.6752  1.0937 -0.0234
53384SOL     OW67012   1.792   7.122   2.258  0.1425 -0.0596  0.6716
53384SOL    HW167013   1.836   7.061   2.318  1.1404  1.2685  1.3572
53384SOL    HW267014   1.857   7.140   2.190  0.2085  0.8917  0.9638
53385SOL     OW67015   5.314   4.300   6.497  0.3955 -0.0043  0.0015
53385SOL    HW167016   5.367   4.243   6.441 -0.8791 -0.3287 -0.9136
53385SOL    HW267017   5.228   4.257   6.500 -0.3030  1.3631  0.0786
53386SOL     OW67018   4.452  12.259  10.179  0.3626  0.2400 -0.8970
53386SOL    HW167019   4.405  12.176  10.169  0.9575 -0.1210 -0.7479
53386SOL    HW267020   4.428  12.291  10.266 -2.2772  1.7703 -2.0724
53387SOL     OW67021   8.891  11.234   3.281  0.0779  0.6599  0.3611
53387SOL    HW167022   8.844  11.316   3.299 -0.1350  0.2689  1.6888
53387SOL    HW267023   8.982  11.253   3.304  0.8141  1.5873 -2.7225
53388SOL     OW67024   3.938   6.221   8.093  0.7272  0.0669  0.4518
53388SOL    HW167025   3.855   6.184   8.124  1.0591 -0.6372  0.5097
53388SOL    HW267026   3.940   6.199   8.000  1.4370 -1.0532  0.7134
53389SOL     OW67027   9.809  10.450   2.552 -0.2784 -0.4365 -0.2193
53389SOL    HW167028   9.721  10.413   2.554 -0.0553 -1.0141 -1.0444
53389SOL    HW267029   9.796  10.542   2.529 -0.6076 -0.7343 -1.2738
53390SOL     OW67030   0.170   7.827   6.709 -0.3314 -0.0258 -0.1618
53390SOL    HW167031   0.264   7.828   6.727 -0.6358  0.3635  1.7102
53390SOL    HW267032   0.156   7.903   6.653  0.6522 -0.9614 -1.7379
53391SOL     OW67033   4.190   1.248   2.286 -0.2623 -0.4985 -0.0138
53391SOL    HW167034   4.212   1.232   2.194  1.6268 -2.6044  0.6974
53391SOL    HW267035   4.158   1.163   2.317  0.7390 -0.3016  1.6659
53392SOL     OW67036   4.187   5.294   4.371  0.1496  0.3337  0.3028
53392SOL    HW167037   4.201   5.245   4.290 -0.4009  1.4302 -0.4795
53392SOL    HW267038   4.263   5.274   4.425 -0.6513 -2.3798  0.5506
53393SOL     OW67039   1.728  12.203  10.677  0.2491 -0.8318  0.2597
53393SOL    HW167040   1.638  12.188  10.649 -0.1839  2.8526 -0.8580
53393SOL    HW267041   1.719  12.241  10.765  0.6643 -0.2536  0.0586
53394SOL     OW67042   2.768   8.768   8.061  0.6306  0.0930  0.3642
53394SOL    HW167043   2.838   8.816   8.018  1.2158  0.4754  1.6912
53394SOL    HW267044   2.812   8.698   8.108  0.0607 -0.0292  0.7264
53395SOL     OW67045   6.491  11.268   4.224 -0.4421  0.2578 -0.1663
53395SOL    HW167046   6.419  11.305   4.276 -1.8129 -1.7081 -0.5124
53395SOL    HW267047   6.477  11.303   4.136 -0.4789  0.5409 -0.0483
53396SOL     OW67048   0.790   7.565   7.328  0.2075 -0.0043  0.2505
53396SOL    HW167049   0.716   7.524   7.283 -2.3019  2.3833  1.8540
53396SOL    HW267050   0.850   7.589   7.258 -0.9949 -1.1497 -1.2556
53397SOL     OW67051   2.181   2.943  11.959 -0.3059  0.1494 -0.4722
53397SOL    HW167052   2.209   2.874  12.019 -1.0133  0.5174  0.3058
53397SOL    HW267053   2.243   2.938  11.886  0.6242 -0.2561  0.3202
53398SOL     OW67054   7.717   4.253  11.610 -0.2465  0.0096  0.0185
53398SOL    HW167055   7.646   4.316  11.620  0.0833  0.3238  0.4568
53398SOL    HW267056   7.783   4.282  11.674  1.6280  1.6394 -2.4377
53399SOL     OW67057   5.014   7.250   4.129  0.3012 -0.1071  0.1229
53399SOL    HW167058   5.034   7.279   4.218 -1.3559  3.3781 -0.4424
53399SOL    HW267059   4.936   7.196   4.138 -0.4899  1.0952  0.7833
53400SOL     OW67060   1.223   7.348   9.970  0.2408  0.2951  0.3294
53400SOL    HW167061   1.314   7.350   9.943  0.3586 -2.5293  0.2581
53400SOL    HW267062   1.176   7.397   9.903  1.2575 -1.5197 -1.8233
53401SOL     OW67063  12.388  11.592   3.016  0.0391  0.3412  0.0452
53401SOL    HW167064  12.448  11.654   3.057 -0.5212  0.4173  0.7723
53401SOL    HW267065  12.309  11.643   2.997  0.8403  0.7165 -2.6445
53402SOL     OW67066   0.103   7.530   0.561 -0.3976  0.4323 -0.1433
53402SOL    HW167067   0.022   7.543   0.610  0.0199 -0.8316  0.9384
53402SOL    HW267068   0.169   7.580   0.609 -0.3828  0.9415 -0.6667
53403SOL     OW67069   1.536   7.869   7.376  0.0723 -0.4923 -1.2677
53403SOL    HW167070   1.533   7.932   7.304  2.6689  1.5862  0.2556
53403SOL    HW267071   1.532   7.923   7.455  1.0342 -2.3516  0.1296
53404SOL     OW67072   2.315   2.258   1.643 -0.1678  0.3474  0.0238
53404SOL    HW167073   2.269   2.231   1.563 -1.2761  2.2348 -0.0323
53404SOL    HW267074   2.317   2.353   1.639  1.8213  0.4153  1.1568
53405SOL     OW67075   0.105  12.322   9.781 -0.3139  0.1900 -0.3415
53405SOL    HW167076   0.112  12.416   9.797  1.2493  0.2149 -0.9552
53405SOL    HW267077   0.126  12.313   9.688  0.7100 -0.8802 -0.0181
53406SOL     OW67078  10.000   1.959   2.932  0.0968 -0.5266  0.6725
53406SOL    HW167079  10.080   2.007   2.952 -0.2576 -0.0911  1.0814
53406SOL    HW267080  10.030   1.872   2.906  0.8819  0.4555 -2.0284
53407SOL     OW67081   8.902   5.123  12.300 -0.4673 -0.4177  0.1637
53407SOL    HW167082   8.951   5.051  12.340 -0.8177 -1.0873 -0.5960
53407SOL    HW267083   8.883   5.093  12.212 -0.8050  0.5280 -0.0950
53408SOL     OW67084  11.317   8.723   3.461 -0.5493  0.4471 -0.1551
53408SOL    HW167085  11.242   8.759   3.413 -0.6855 -0.5216 -0.6895
53408SOL    HW267086  11.386   8.715   3.395 -0.3756  0.1504  0.0616
53409SOL     OW67087  12.285   2.666   0.069  0.4918  0.4478 -0.0930
53409SOL    HW167088  12.317   2.576   0.076 -1.4012 -0.4163 -1.4459
53409SOL    HW267089  12.263   2.676  -0.024 -1.6251  1.4284  0.4486
53410SOL     OW67090   8.239   1.818   2.139 -0.4462 -0.3573  0.1699
53410SOL    HW167091   8.212   1.888   2.198 -0.9319 -0.2109 -0.2103
53410SOL    HW267092   8.284   1.863   2.067  0.7446 -0.5940  0.7491
53411SOL     OW67093   1.281   8.330   2.797  0.1005 -0.0834  0.4820
53411SOL    HW167094   1.213   8.393   2.774  0.3678  0.0953  0.1899
53411SOL    HW267095   1.352   8.383   2.834  0.5521 -0.1566 -0.2736
53412SOL     OW67096   4.576   4.033   9.399  0.2488 -0.1690  0.1198
53412SOL    HW167097   4.615   4.068   9.319 -2.1675 -0.6617 -1.3426
53412SOL    HW267098   4.650   3.994   9.446  1.8128  0.5701 -1.5993
53413SOL     OW67099   9.454   3.885   7.935  0.7666  0.0941 -1.0281
53413SOL    HW167100   9.427   3.867   8.025 -0.4888 -0.5924 -1.5151
53413SOL    HW267101   9.374   3.913   7.891  1.3323  0.2917 -1.9649
53414SOL     OW67102  10.293  10.909   0.781 -0.0045 -0.1026 -0.2271
53414SOL    HW167103  10.373  10.959   0.769 -0.6351  0.6527 -1.4907
53414SOL    HW267104  10.242  10.925   0.701 -1.3635 -0.6529  0.4942
53415SOL     OW67105   5.186  11.436   0.971  0.1060 -0.1085 -0.1401
53415SOL    HW167106   5.131  11.393   1.036  0.7283  0.0173  0.4807
53415SOL    HW267107   5.240  11.498   1.022  0.7884 -0.2034 -0.7299
53416SOL     OW67108  10.416   4.997  11.820 -0.4808 -0.0868  0.0720
53416SOL    HW167109  10.477   4.940  11.771 -1.2560 -2.2042  1.4278
53416SOL    HW267110  10.336   4.996  11.768  0.0472  1.3006 -0.8267
53417SOL     OW67111   6.575   6.900  10.682  0.0153  0.4509 -0.5508
53417SOL    HW167112   6.622   6.929  10.604 -0.5278 -0.0606 -1.0818
53417SOL    HW267113   6.634   6.835  10.723  0.9164  1.7206  0.2546
53418SOL     OW67114   5.913  12.230   1.889 -0.4631  0.0184  0.2240
53418SOL    HW167115   5.847  12.295   1.863 -2.5106 -1.7111  0.8691
53418SOL    HW267116   5.952  12.202   1.807 -3.4588 -1.8601 -0.7263
53419SOL     OW67117   0.014   5.112   9.858 -0.6740 -0.6535  0.1137
53419SOL    HW167118   0.004   5.127   9.952  0.3992 -0.1084  0.1547
53419SOL    HW267119   0.079   5.042   9.852  1.2076  1.0612 -0.2486
53420SOL     OW67120   2.167   3.272   9.884  0.4647 -0.7398 -0.4260
53420SOL    HW167121   2.095   3.305   9.831  1.2721 -0.7429 -1.5705
53420SOL    HW267122   2.129   3.260   9.971 -0.9659 -0.9574 -1.0464
53421SOL     OW67123  12.349   7.445  10.958 -0.1502  0.5400 -0.1013
53421SOL    HW167124  12.441   7.418  10.953  0.0465  1.3591 -2.9096
53421SOL    HW267125  12.309   7.407  10.879 -1.8185  1.5888  0.1899
53422SOL     OW67126   2.910  11.348  10.660 -0.4572  0.2028 -0.0494
53422SOL    HW167127   2.885  11.433  10.695 -2.1489 -0.0371 -0.6076
53422SOL    HW267128   2.864  11.341  10.576 -0.2830 -1.2170 -0.0605
53423SOL     OW67129  10.414   0.906   0.673 -0.1260 -0.3371 -0.2188
53423SOL    HW167130  10.342   0.858   0.632 -0.6740  0.2589  0.0225
53423SOL    HW267131  10.419   0.870   0.761  1.3409 -1.9276 -0.9042
53424SOL     OW67132  10.128   1.726   5.027 -0.1876 -0.0949 -0.0016
53424SOL    HW167133  10.164   1.729   4.939 -0.8670 -0.7214 -0.3188
53424SOL    HW267134  10.184   1.663   5.074 -0.5445 -0.6861 -0.3476
53425SOL     OW67135   9.411  10.666   3.947  0.3253  0.0422 -0.0347
53425SOL    HW167136   9.333  10.687   3.895 -0.1262  1.5788  1.1889
53425SOL    HW267137   9.387  10.689   4.036  1.8955 -0.2998  0.5028
53426SOL     OW67138   6.637   5.755   0.653  0.5660  0.0808  0.0451
53426SOL    HW167139   6.567   5.818   0.670 -0.4043 -0.7750 -0.5970
53426SOL    HW267140   6.675   5.783   0.570  0.9309  0.5029  0.3546
53427SOL     OW67141   3.928  10.278   9.403  0.5865  0.3005 -0.3028
53427SOL    HW167142   3.895  10.316   9.484 -1.6883 -0.5513 -0.7654
53427SOL    HW267143   3.914  10.346   9.337  1.4771  0.6059 -0.1912
53428SOL     OW67144   4.816  10.307   5.654  0.3040  0.6446 -0.0843
53428SOL    HW167145   4.875  10.244   5.611  0.8786  0.4072  1.0236
53428SOL    HW267146   4.732  10.295   5.610  0.1024 -1.6796  0.8139
53429SOL     OW67147  10.458  10.563   1.410 -0.0352  0.0510 -0.3268
53429SOL    HW167148  10.486  10.608   1.489  0.5100  0.0370 -0.5015
53429SOL    HW267149  10.445  10.632   1.346 -0.5393  0.0676 -0.2038
53430SOL     OW67150   6.514   9.457   4.540  0.0207  0.0396 -0.1056
53430SOL    HW167151   6.481   9.456   4.630  0.1308 -0.2870 -0.0680
53430SOL    HW267152   6.509   9.366   4.511 -0.7098  0.2487 -0.6869
53431SOL     OW67153   8.330   3.627   8.794  0.4187 -0.3524 -0.2641
53431SOL    HW167154   8.258   3.586   8.842 -0.4189  0.3564 -0.8869
53431SOL    HW267155   8.287   3.686   8.732  1.5289 -0.1727 -0.8854
53432SOL     OW67156  10.357  10.804  12.231 -0.3471  0.3452 -0.2277
53432SOL    HW167157  10.445  10.819  12.265 -0.8602  1.6645  0.6002
53432SOL    HW267158  10.358  10.713  12.201  0.6006 -0.4366  1.9380
53433SOL     OW67159  10.728  12.324   7.223  0.2234 -0.1362 -0.3244
53433SOL    HW167160  10.702  12.251   7.167  2.1261 -1.1814  0.0502
53433SOL    HW267161  10.656  12.386   7.217 -0.9539 -1.5410 -1.5576
53434SOL     OW67162   0.952  10.442   1.806 -0.5402 -0.7063 -0.2859
53434SOL    HW167163   1.036  10.396   1.805 -1.1537 -1.8502 -1.8517
53434SOL    HW267164   0.976  10.535   1.817  0.7868 -1.1953  1.4709
53435SOL     OW67165   7.022   3.435   5.674  0.2722  0.2186 -0.1469
53435SOL    HW167166   7.104   3.461   5.716 -0.5304 -1.1348  2.4721
53435SOL    HW267167   7.008   3.345   5.704 -1.9585  0.2607 -0.9064
53436SOL     OW67168   8.810  10.324   5.803 -0.2495  0.0205 -0.0509
53436SOL    HW167169   8.778  10.409   5.772  1.1028  0.4704 -0.2577
53436SOL    HW267170   8.859  10.345   5.883  0.8560 -0.4410 -0.5978
53437SOL     OW67171   9.664   6.675   1.794  0.1705 -0.5302 -0.0587
53437SOL    HW167172   9.737   6.693   1.854  0.0438  2.4996 -0.6439
53437SOL    HW267173   9.701   6.686   1.707 -0.4725 -1.3606 -0.4532
53438SOL     OW67174   9.338   7.237  11.782  0.0377  0.0728 -0.5971
53438SOL    HW167175   9.420   7.206  11.743  0.6708  0.0346  0.7143
53438SOL    HW267176   9.274   7.170  11.760  0.7318 -0.7142 -0.2668
53439SOL     OW67177  10.384  11.973   0.533 -0.0896 -0.2580  0.5268
53439SOL    HW167178  10.294  11.999   0.511  0.5985  1.7053 -0.1592
53439SOL    HW267179  10.430  12.055   0.549  1.4844 -1.2517  1.3476
53440SOL     OW67180   7.753   9.172   0.654  0.1975 -0.3030 -0.3094
53440SOL    HW167181   7.782   9.089   0.617  1.9615  0.5046 -0.8444
53440SOL    HW267182   7.822   9.197   0.715 -0.4447  0.6398  0.0592
53441SOL     OW67183   7.639  12.027   3.271 -0.0709  0.2772  0.1964
53441SOL    HW167184   7.706  11.977   3.318  0.2230 -1.1989 -1.6775
53441SOL    HW267185   7.667  12.118   3.280  0.6694 -0.0619  1.7402
53442SOL     OW67186  12.238  12.191  10.200  0.0039 -0.4646 -0.2499
53442SOL    HW167187  12.193  12.268  10.235 -0.2209 -1.4536  1.7338
53442SOL    HW267188  12.323  12.224  10.171 -0.4199  0.6815 -0.2444
53443SOL     OW67189   5.339   9.664   0.756  0.3999  0.4998  0.1782
53443SOL    HW167190   5.291   9.593   0.713 -0.8353  0.9723  0.7342
53443SOL    HW267191   5.425   9.627   0.776 -0.8054 -1.4858  2.1066
53444SOL     OW67192   9.292   9.189   8.721 -0.4825  0.0460  0.0189
53444SOL    HW167193   9.230   9.184   8.794  2.1341 -0.4512  2.3847
53444SOL    HW267194   9.329   9.277   8.727 -1.0273  0.4068 -1.4811
53445SOL     OW67195   7.430  11.211  11.811  0.6537 -0.8650 -0.2439
53445SOL    HW167196   7.493  11.262  11.759  0.2601 -0.2487 -0.1264
53445SOL    HW267197   7.484  11.143  11.852  1.2869 -0.2376 -0.0018
53446SOL     OW67198   4.058  12.248   2.567  0.7236  0.0078 -0.2679
53446SOL    HW167199   4.068  12.170   2.622 -0.5663 -0.3262 -0.4686
53446SOL    HW267200   4.101  12.318   2.616 -1.5062  0.0139  1.8807
53447SOL     OW67201   6.189   2.846  10.332  0.3360 -0.1230  0.1967
53447SOL    HW167202   6.169   2.753  10.321  1.2206 -0.2407 -0.5095
53447SOL    HW267203   6.114   2.892  10.293 -0.2566 -0.5191  0.8318
53448SOL     OW67204   8.082   2.649   2.202 -0.4418 -0.1249  0.2613
53448SOL    HW167205   8.058   2.736   2.170 -1.4517 -0.7256 -0.6879
53448SOL    HW267206   8.104   2.663   2.294 -1.2242  1.0354  0.3016
53449SOL     OW67207   3.140   2.711   8.411  0.5242  0.3566  0.0890
53449SOL    HW167208   3.090   2.647   8.361  0.3607  1.0682 -0.6847
53449SOL    HW267209   3.189   2.760   8.345  2.6222 -0.6058  0.8530
53450SOL     OW67210   8.892   7.892  10.325 -0.7795  0.8990 -0.0135
53450SOL    HW167211   8.959   7.954  10.354  0.3965 -0.4626  0.3043
53450SOL    HW267212   8.907   7.813  10.378  0.0224 -0.8965 -2.7065
53451SOL     OW67213   5.202  11.592   3.530  0.2557 -0.9420  0.2857
53451SOL    HW167214   5.295  11.610   3.543  0.0279 -1.2865  2.8433
53451SOL    HW267215   5.182  11.520   3.589 -1.8312 -0.3068  0.4516
53452SOL     OW67216   6.487   6.436   6.228  0.1827 -0.2600 -0.4047
53452SOL    HW167217   6.405   6.478   6.254 -1.1415 -2.0830 -1.4393
53452SOL    HW267218   6.517   6.486   6.152 -0.3026  0.0327 -0.4011
53453SOL     OW67219  11.700   1.267   3.891 -0.2942 -0.7935  0.3818
53453SOL    HW167220  11.714   1.288   3.984 -0.3368  0.5439  0.1061
53453SOL    HW267221  11.749   1.186   3.877  2.6782  0.7939  0.7713
53454SOL     OW67222   3.252   4.311   9.813  0.0163 -0.5559  0.6680
53454SOL    HW167223   3.185   4.349   9.756 -2.2875 -0.7184  3.0848
53454SOL    HW267224   3.308   4.261   9.753 -3.5497 -2.6359 -1.2994
53455SOL     OW67225  11.521   1.396   8.907  0.3184 -0.1549 -0.1445
53455SOL    HW167226  11.461   1.325   8.932 -1.8482  1.9798  1.2589
53455SOL    HW267227  11.510   1.404   8.812 -1.1442 -0.3241 -0.0252
53456SOL     OW67228   3.666   4.235   5.274  0.1519  0.1668  0.1186
53456SOL    HW167229   3.658   4.145   5.304  0.8374  0.0809  0.0520
53456SOL    HW267230   3.680   4.227   5.179 -0.1798  0.3591  0.0523
53457SOL     OW67231   5.478   1.718   9.006  0.4472 -0.4170  0.1710
53457SOL    HW167232   5.462   1.657   8.933 -1.0867  2.6672 -2.3304
53457SOL    HW267233   5.419   1.688   9.075  0.0583 -2.0103 -0.7886
53458SOL     OW67234   6.713   4.768   0.028  0.0358 -0.0386 -0.4457
53458SOL    HW167235   6.642   4.801   0.083 -1.0816 -1.7893 -0.7449
53458SOL    HW267236   6.787   4.825   0.048 -0.9822  0.8202  1.1290
53459SOL     OW67237   9.722  12.006   7.831  0.7949  0.3061  0.1199
53459SOL    HW167238   9.757  11.933   7.780  2.1142  1.2799 -0.4383
53459SOL    HW267239   9.769  12.001   7.914 -0.2443 -0.3733  0.6870
53460SOL     OW67240   9.223   0.159  12.011  0.2121  0.3237  0.0903
53460SOL    HW167241   9.272   0.170  12.093 -1.4000  0.1154  1.1433
53460SOL    HW267242   9.197   0.248  11.986 -1.3773  0.2301  1.2104
53461SOL     OW67243  11.558   5.741   5.896  0.1481  0.8169 -0.9403
53461SOL    HW167244  11.463   5.750   5.888  0.0622 -0.0939 -1.0265
53461SOL    HW267245  11.573   5.721   5.988  0.0950 -0.6929 -1.2267
53462SOL     OW67246   1.343   3.161   1.365  0.0213  0.0549  0.5817
53462SOL    HW167247   1.263   3.124   1.403  0.2713 -1.1825 -0.0543
53462SOL    HW267248   1.398   3.085   1.345  0.4197  0.7389 -1.0883
53463SOL     OW67249   0.908   6.809   8.464 -0.5568 -0.2070  0.0288
53463SOL    HW167250   0.995   6.769   8.466 -0.9666 -1.0816  1.0523
53463SOL    HW267251   0.925   6.903   8.462  0.4085 -0.3396  1.1630
53464SOL     OW67252   6.406   2.563   3.051  1.1853  0.1759 -0.1949
53464SOL    HW167253   6.455   2.638   3.017  2.5875 -0.5741  0.0914
53464SOL    HW267254   6.391   2.508   2.974 -0.0947  0.8452 -0.4582
53465SOL     OW67255   6.243   2.624   0.221  0.7489 -0.1198  0.0805
53465SOL    HW167256   6.238   2.545   0.274  0.1634  0.1226  0.3938
53465SOL    HW267257   6.170   2.678   0.251  0.8736  0.3493 -0.4399
53466SOL     OW67258  12.331  11.221   0.263 -0.2017  0.5062  0.3138
53466SOL    HW167259  12.402  11.179   0.312 -0.5215 -0.3163  0.0856
53466SOL    HW267260  12.303  11.156   0.199  0.1353  1.5200 -0.9168
53467SOL     OW67261   9.980   7.074  12.187 -0.0601  0.4143  0.3208
53467SOL    HW167262   9.895   7.070  12.231 -0.0306 -0.9905  0.3038
53467SOL    HW267263   9.992   6.986  12.151  0.3261  1.2420 -1.7257
53468SOL     OW67264   3.437   7.238   5.614  0.6080 -0.7752 -0.2898
53468SOL    HW167265   3.450   7.278   5.700  1.3056  0.1379 -0.8030
53468SOL    HW267266   3.419   7.145   5.633 -0.4856 -0.3523  0.8914
53469SOL     OW67267   5.342   5.846  10.352  0.1671  0.2783  0.2688
53469SOL    HW167268   5.354   5.869  10.260 -0.2816 -0.7020 -0.0536
53469SOL    HW267269   5.428   5.811  10.379  0.5161  1.2389  0.4469
53470SOL     OW67270   3.957   1.602   1.143  0.5639 -0.4026 -0.1482
53470SOL    HW167271   3.987   1.596   1.234 -0.6648 -0.4805  0.2715
53470SOL    HW267272   4.028   1.646   1.097  2.7811 -3.4631  0.0778
53471SOL     OW67273   6.993   2.484   1.847  0.2842 -0.0274  0.2498
53471SOL    HW167274   6.927   2.478   1.916 -0.3519  0.5744 -0.2776
53471SOL    HW267275   6.953   2.541   1.781  0.6414 -1.0456 -0.8819
53472SOL     OW67276   3.463   3.753   6.624  0.1047  0.1806 -0.4616
53472SOL    HW167277   3.404   3.714   6.689  1.1471 -1.6894 -0.5784
53472SOL    HW267278   3.534   3.791   6.676  0.4122 -0.4077 -0.4402
53473SOL     OW67279   8.945   3.792  10.741  0.5255  0.1081  0.2291
53473SOL    HW167280   8.981   3.764  10.825 -1.5623 -0.7737  0.8974
53473SOL    HW267281   8.862   3.746  10.734 -1.1447  2.9939 -0.5897
53474SOL     OW67282  12.050   2.360   0.354  0.6428  0.0598 -0.1061
53474SOL    HW167283  12.065   2.433   0.294 -1.5137  1.5731  1.0442
53474SOL    HW267284  11.959   2.335   0.339  0.6540 -0.8203  1.1671
53475SOL     OW67285   5.325   2.132   9.643 -0.4054  0.1406 -0.5924
53475SOL    HW167286   5.353   2.063   9.583  0.3208  0.2574 -0.4020
53475SOL    HW267287   5.376   2.209   9.617 -0.2932  0.2671 -0.0204
53476SOL     OW67288   9.125   4.326   1.835  0.6856  0.2622 -0.2051
53476SOL    HW167289   9.088   4.246   1.873 -0.7659 -0.0229 -2.1258
53476SOL    HW267290   9.068   4.396   1.865  0.3830  0.2282 -0.7062
53477SOL     OW67291  11.352   7.541   4.334 -0.1204 -0.3346 -0.1877
53477SOL    HW167292  11.393   7.628   4.327 -2.0452  0.6439  0.1197
53477SOL    HW267293  11.376   7.497   4.252  1.3732  0.2256 -0.0912
53478SOL     OW67294  12.377   0.389   0.057  0.1359  0.0409 -0.1594
53478SOL    HW167295  12.387   0.481   0.031 -0.8405  0.8035  1.8971
53478SOL    HW267296  12.433   0.340  -0.003  5.7754  2.4934  2.3898
53479SOL     OW67297   4.592  12.076   4.495 -0.4341 -0.1247  0.2844
53479SOL    HW167298   4.572  12.164   4.527  1.1466  0.5180 -0.4178
53479SOL    HW267299   4.650  12.039   4.562  0.3516  0.0599 -0.2780
53480SOL     OW67300  12.083   5.490   9.023  0.0840 -0.6083  0.0349
53480SOL    HW167301  12.147   5.422   9.002  1.8911  0.6528  1.1840
53480SOL    HW267302  12.094   5.505   9.117 -0.0563  1.4572 -0.2385
53481SOL     OW67303   9.940   0.219   6.206 -0.3304  0.3176  0.1264
53481SOL    HW167304   9.956   0.301   6.158  0.2254 -0.2983 -0.7578
53481SOL    HW267305   9.926   0.247   6.297  0.8076  1.3176  0.0180
53482SOL     OW67306   9.469   5.378   0.583  0.1578 -0.6438 -0.0067
53482SOL    HW167307   9.443   5.366   0.674  0.5100  1.5983  0.4530
53482SOL    HW267308   9.387   5.390   0.535  0.0221 -0.4787  0.2638
53483SOL     OW67309   6.999  11.171   3.839  0.1327 -0.4324  0.1929
53483SOL    HW167310   7.041  11.170   3.925  0.0041  0.1968  0.2700
53483SOL    HW267311   6.966  11.261   3.830  0.3885 -0.4122 -0.6267
53484SOL     OW67312   3.511   8.044  11.072  0.3532  0.2182 -0.5625
53484SOL    HW167313   3.527   7.950  11.076  1.6971  0.4703  0.9259
53484SOL    HW267314   3.432   8.058  11.124  0.7377  0.0187  0.0814
53485SOL     OW67315   9.271   3.903   0.805  0.4308 -0.3517  0.2242
53485SOL    HW167316   9.295   3.988   0.842  0.1196 -0.9092  1.7642
53485SOL    HW267317   9.192   3.921   0.754  0.8236  0.4216 -0.1250
53486SOL     OW67318  11.723   8.122  11.846  0.6084 -0.0280  0.0635
53486SOL    HW167319  11.636   8.127  11.887 -0.0159  1.4894 -1.3325
53486SOL    HW267320  11.721   8.040  11.797 -0.5987  0.6075 -1.0382
53487SOL     OW67321  10.698   6.853   7.814 -0.2133  0.2987 -0.2525
53487SOL    HW167322  10.664   6.915   7.749 -1.2094  1.1360  1.0239
53487SOL    HW267323  10.756   6.906   7.869 -2.2384  0.5420  1.7804
53488SOL     OW67324  10.022   4.694   3.174 -0.5104 -0.2272  0.3601
53488SOL    HW167325  10.038   4.776   3.127 -0.2453 -0.6493 -0.2987
53488SOL    HW267326   9.982   4.722   3.256 -0.6737  0.5508  0.0335
53489SOL     OW67327   3.097   6.495   3.968 -0.2311 -0.6162 -0.2371
53489SOL    HW167328   3.171   6.555   3.969  0.2255 -1.0088 -2.8413
53489SOL    HW267329   3.021   6.550   3.986  0.3232  0.5022 -1.1932
53490SOL     OW67330   4.414   2.960  10.150 -0.4794  0.2771  0.0520
53490SOL    HW167331   4.453   2.937  10.066 -0.4359 -0.7111  0.3290
53490SOL    HW267332   4.326   2.922  10.148  0.4000 -2.0968  1.4197
53491SOL     OW67333   7.762  11.468   7.493 -0.7274  0.0949 -0.0992
53491SOL    HW167334   7.799  11.380   7.487 -1.2847 -0.1459  0.0263
53491SOL    HW267335   7.791  11.511   7.413  4.5842  1.7674  2.2460
53492SOL     OW67336   8.651   4.639  12.086  0.4504 -0.1381  0.1259
53492SOL    HW167337   8.669   4.730  12.112  0.7362 -0.0118 -0.4908
53492SOL    HW267338   8.580   4.611  12.144 -0.7126  1.0021 -0.6987
53493SOL     OW67339   7.893   4.384   6.887  0.1725  0.0164 -0.2257
53493SOL    HW167340   7.980   4.408   6.854 -0.2000  0.2481 -1.0526
53493SOL    HW267341   7.881   4.439   6.964  0.3838  0.6531 -0.6397
53494SOL     OW67342  11.048   5.382   9.387 -0.0889 -0.7421  0.3985
53494SOL    HW167343  11.020   5.472   9.406  1.3708 -0.1633 -0.0169
53494SOL    HW267344  11.144   5.388   9.382  0.0024 -2.2504 -0.0232
53495SOL     OW67345   3.510   3.552  10.376  0.2320 -0.2519  0.5002
53495SOL    HW167346   3.550   3.542  10.463 -0.4793  0.4159  0.9190
53495SOL    HW267347   3.576   3.517  10.316  1.3200  0.5019  1.1913
53496SOL     OW67348   0.537  11.692  10.087  0.4950  0.1493  0.1643
53496SOL    HW167349   0.605  11.704  10.021 -0.1362 -1.1295 -0.7540
53496SOL    HW267350   0.458  11.727  10.046 -0.3145 -2.3872 -0.5973
53497SOL     OW67351   5.892   1.313   7.953  0.2238  0.6253 -0.3491
53497SOL    HW167352   5.956   1.338   7.887  0.6122 -0.1560 -0.2842
53497SOL    HW267353   5.838   1.247   7.910  1.8108 -1.5048  0.7180
53498SOL     OW67354   3.309   9.831   8.876  0.1601 -0.1552  0.0339
53498SOL    HW167355   3.218   9.852   8.859  0.2503  0.9272  0.7580
53498SOL    HW267356   3.312   9.810   8.970  0.5590 -0.7688 -0.1059
53499SOL     OW67357   7.163   8.571   4.895 -0.1702 -0.3594 -0.2454
53499SOL    HW167358   7.197   8.486   4.866  0.4881  0.4144 -1.8536
53499SOL    HW267359   7.075   8.575   4.858 -0.4837 -0.6417  0.4585
53500SOL     OW67360   7.243   4.971  10.997 -0.2961 -0.5524  0.4565
53500SOL    HW167361   7.296   4.938  11.070  2.7848  0.8322 -0.9624
53500SOL    HW267362   7.283   4.933  10.919 -0.8930  1.1283 -0.7427
53501SOL     OW67363   5.600   2.644   9.914 -0.3123 -0.3715 -0.1106
53501SOL    HW167364   5.630   2.622  10.003  2.0473  1.2029 -0.4383
53501SOL    HW267365   5.669   2.612   9.857 -0.9837  0.1866 -1.2700
53502SOL     OW67366   7.109  10.786   1.443 -0.5932 -0.3501 -0.0701
53502SOL    HW167367   7.079  10.774   1.353 -0.1693 -1.4633 -0.0722
53502SOL    HW267368   7.101  10.700   1.484  0.7656 -0.2551  0.4795
53503SOL     OW67369   8.702   3.742  10.187 -0.5276 -0.0917  0.6803
53503SOL    HW167370   8.769   3.801  10.222 -1.0278  0.3453  0.9132
53503SOL    HW267371   8.620   3.775  10.223 -1.0072  0.0803 -0.5269
53504SOL     OW67372   2.719  10.869   1.390  0.7224  0.3232 -0.3550
53504SOL    HW167373   2.680  10.936   1.333 -3.1379 -0.5259  0.9390
53504SOL    HW267374   2.701  10.901   1.479  0.9640 -1.2963  0.3072
53505SOL     OW67375   5.023  12.141   6.152  0.3433  0.1393 -0.4353
53505SOL    HW167376   5.022  12.062   6.098 -1.6832  0.6398 -1.2234
53505SOL    HW267377   5.012  12.109   6.242  0.7194 -0.5301 -0.6232
53506SOL     OW67378  11.126   8.187   0.514  0.1530 -0.3465 -0.4655
53506SOL    HW167379  11.125   8.097   0.547 -1.2266  0.1243  0.8902
53506SOL    HW267380  11.193   8.231   0.566 -0.1651 -0.2614 -0.1190
53507SOL     OW67381   9.030   4.336   7.355  0.2120  0.8578  0.3911
53507SOL    HW167382   9.018   4.418   7.307  3.1732  0.6041 -1.0228
53507SOL    HW267383   8.948   4.289   7.343 -0.3175  2.1884 -1.7169
53508SOL     OW67384   7.260   9.954  12.214  0.4223 -0.1026 -0.4022
53508SOL    HW167385   7.245   9.913  12.299  0.0832  0.0778 -0.3703
53508SOL    HW267386   7.224   9.892  12.150 -1.3024  0.6918 -0.2781
53509SOL     OW67387  10.023  11.729   0.089 -0.0529 -0.3881 -0.6572
53509SOL    HW167388  10.097  11.748   0.146  1.2173 -0.9847 -2.0649
53509SOL    HW267389  10.036  11.786   0.013  0.2800 -2.1540 -1.9866
53510SOL     OW67390   6.644  12.446   8.651  0.2467  0.0911  0.3983
53510SOL    HW167391   6.735  12.439   8.622  0.1299  0.1604  0.0042
53510SOL    HW267392   6.596  12.470   8.572  0.0464  1.2354  0.8469
53511SOL     OW67393   7.950   8.828   0.087 -0.6570 -0.0052  0.4407
53511SOL    HW167394   7.981   8.910   0.049  1.8419 -1.0841  0.0003
53511SOL    HW267395   7.929   8.773   0.012 -0.1627 -0.5482  0.6965
53512SOL     OW67396   1.005   0.007  10.484 -0.4023 -0.1156  0.3184
53512SOL    HW167397   0.987   0.090  10.528 -1.6738 -0.3004  0.2107
53512SOL    HW267398   0.949   0.010  10.406 -3.1555 -2.4505  2.0008
53513SOL     OW67399   5.363   1.067  10.504  0.2734  0.2018 -0.1615
53513SOL    HW167400   5.449   1.027  10.491  0.2501  0.8316 -2.6697
53513SOL    HW267401   5.301   0.994  10.498  0.5350 -0.1352  0.8808
53514SOL     OW67402  10.522   1.210   5.970 -0.2459 -0.0323 -0.6049
53514SOL    HW167403  10.595   1.148   5.972 -0.7288 -0.9499 -4.0518
53514SOL    HW267404  10.556   1.286   5.923 -0.5553  1.0889  0.8918
53515SOL     OW67405   7.008   2.765  10.484 -0.2607  0.3533 -0.7168
53515SOL    HW167406   6.933   2.779  10.426  0.1107 -0.5137 -1.4382
53515SOL    HW267407   7.038   2.853  10.507 -0.7843  0.7077 -1.3668
53516SOL     OW67408   1.877   5.485   6.185  0.3203 -0.0440  0.5848
53516SOL    HW167409   1.890   5.433   6.105 -0.0347 -0.5343  0.8344
53516SOL    HW267410   1.867   5.419   6.254 -3.2862  0.1955  0.4727
53517SOL     OW67411  11.539   4.107   8.145  0.4858  0.3239 -0.4805
53517SOL    HW167412  11.483   4.111   8.222  1.1270  0.3161 -0.0095
53517SOL    HW267413  11.552   4.013   8.131  0.2995  0.3224 -0.6584
53518SOL     OW67414   7.254   5.651   6.602 -0.1926  0.4214  0.2859
53518SOL    HW167415   7.170   5.675   6.564 -1.0440 -0.5114  1.5226
53518SOL    HW267416   7.287   5.580   6.547 -0.1209  0.8894 -0.2865
53519SOL     OW67417  12.278   8.552   2.654 -0.0608 -0.2517  0.2119
53519SOL    HW167418  12.324   8.636   2.657  0.2277 -0.4195  0.4571
53519SOL    HW267419  12.255   8.534   2.745 -2.0449  0.6157 -0.0397
53520SOL     OW67420  11.761   5.791   6.804 -0.3974  0.0072  0.1779
53520SOL    HW167421  11.736   5.880   6.778 -3.7235 -1.2633 -1.6429
53520SOL    HW267422  11.768   5.743   6.722 -1.5174 -2.0211  1.1856
53521SOL     OW67423   7.880  10.693  11.938  0.4976 -0.2141  0.0987
53521SOL    HW167424   7.834  10.732  12.012  1.0494 -0.7056  0.7158
53521SOL    HW267425   7.829  10.614  11.917  1.7519 -1.4887  1.6417
53522SOL     OW67426   3.447   4.486   0.555  0.0655 -0.9525 -0.2924
53522SOL    HW167427   3.477   4.560   0.503  0.8236 -2.0172 -1.4355
53522SOL    HW267428   3.527   4.446   0.590 -0.4522 -0.0121  2.1109
53523SOL     OW67429   0.372  11.354   0.962  0.3198 -0.5157  0.0949
53523SOL    HW167430   0.394  11.412   0.889  2.8218 -0.2820  0.9317
53523SOL    HW267431   0.434  11.282   0.955  0.1177 -0.8676  1.5550
53524SOL     OW67432   1.563   5.033   7.306  0.4266 -0.9409 -0.3871
53524SOL    HW167433   1.622   5.108   7.306  1.2809 -1.5868  0.2533
53524SOL    HW267434   1.613   4.962   7.265  0.5253 -1.7787  1.0677
53525SOL     OW67435   6.530   5.268   4.453  0.2269 -0.4979 -0.3035
53525SOL    HW167436   6.531   5.316   4.536  1.2183 -0.3270 -0.4000
53525SOL    HW267437   6.437   5.257   4.432 -0.0208  0.4860  0.2343
53526SOL     OW67438   9.759   5.074   1.287 -0.2144 -0.4998  0.1226
53526SOL    HW167439   9.800   5.018   1.353  0.8099 -2.6903 -2.1938
53526SOL    HW267440   9.829   5.130   1.255 -0.4409 -0.1862  0.1717
53527SOL     OW67441   5.183   9.058   7.512 -0.0421  0.1684  0.7647
53527SOL    HW167442   5.146   9.008   7.585  0.4488  0.0834  0.9613
53527SOL    HW267443   5.191   9.147   7.546  1.9967 -0.2438  1.5161
53528SOL     OW67444   7.383   2.841   6.466  0.2904  0.1935  0.3363
53528SOL    HW167445   7.381   2.783   6.390 -0.2384 -0.5148  0.8795
53528SOL    HW267446   7.336   2.793   6.534  0.2872  1.0471  0.9515
53529SOL     OW67447   3.203  10.949  10.869  0.0826 -0.0873 -0.2155
53529SOL    HW167448   3.241  11.027  10.830 -0.6816 -0.2883 -1.3915
53529SOL    HW267449   3.212  10.881  10.803 -0.8670 -0.5397  0.0911
53530SOL     OW67450   2.427  10.060   8.351 -0.1640  0.1568 -0.1103
53530SOL    HW167451   2.485  10.128   8.386 -0.6593  0.3248  0.3967
53530SOL    HW267452   2.427   9.992   8.418 -1.9751  0.9535  0.7642
53531SOL     OW67453   5.240   1.251  10.675 -0.0697 -0.4574 -0.1591
53531SOL    HW167454   5.203   1.319  10.618 -0.4705 -1.9055 -1.7193
53531SOL    HW267455   5.288   1.194  10.615  0.9055 -1.1230  1.2255
53532SOL     OW67456   2.308  10.433   9.916 -0.4906  0.0165  0.9392
53532SOL    HW167457   2.280  10.486   9.991 -1.3823 -0.3043  0.8520
53532SOL    HW267458   2.239  10.445   9.851  1.2371  1.8918 -0.6666
53533SOL     OW67459  10.605   2.912   4.608  0.0897 -0.1787  0.2063
53533SOL    HW167460  10.554   2.932   4.530 -0.4638 -1.6910  0.1394
53533SOL    HW267461  10.696   2.923   4.580 -0.0392 -1.6907 -1.0210
53534SOL     OW67462  10.645   2.328   8.588 -0.3372 -0.0541  0.1574
53534SOL    HW167463  10.723   2.382   8.579 -1.0053  1.0115  0.6248
53534SOL    HW267464  10.642   2.275   8.508  0.0962  0.9066 -0.5069
53535SOL     OW67465  12.164   6.849   6.401  0.1970  0.3146  0.3320
53535SOL    HW167466  12.135   6.914   6.466  1.2555 -0.4569  1.6286
53535SOL    HW267467  12.125   6.767   6.431 -1.0693  0.2886 -1.2536
53536SOL     OW67468   8.079   8.798   1.897  0.0658 -0.1161  0.3634
53536SOL    HW167469   8.079   8.835   1.809  0.1199  0.0861  0.4491
53536SOL    HW267470   8.165   8.755   1.904 -0.3143 -0.9788 -0.0369
53537SOL     OW67471   2.410   6.129   6.461  0.1736  0.4104 -0.5732
53537SOL    HW167472   2.501   6.160   6.461  0.2417  0.2289  0.3726
53537SOL    HW267473   2.372   6.168   6.382  1.1394  0.2710 -1.1240
53538SOL     OW67474   1.359   9.424   1.682 -0.0335  0.0109 -0.2054
53538SOL    HW167475   1.342   9.517   1.700 -0.7260 -0.0388 -0.5707
53538SOL    HW267476   1.351   9.382   1.767  0.3535  0.2928 -0.0243
53539SOL     OW67477  10.253   8.096   3.042  0.3706 -0.1742  0.4935
53539SOL    HW167478  10.190   8.100   2.970  1.4097  0.7555 -0.3941
53539SOL    HW267479  10.252   8.183   3.080  1.3882 -0.0255  0.2137
53540SOL     OW67480   8.144   6.521   8.400 -0.4850 -0.4045  0.0902
53540SOL    HW167481   8.155   6.611   8.369  0.3706 -1.0334 -1.5258
53540SOL    HW267482   8.082   6.529   8.472 -0.1295  1.5273  0.2500
53541SOL     OW67483   6.868   0.722   1.106  0.2718  0.4454  0.4136
53541SOL    HW167484   6.926   0.655   1.141 -0.9830 -0.7241  0.3373
53541SOL    HW267485   6.780   0.688   1.122 -0.3698  1.3311 -1.0753
53542SOL     OW67486   6.910   0.205   3.062  0.3597  0.4543 -0.5483
53542SOL    HW167487   6.877   0.133   3.008  0.4833 -0.7376  0.9327
53542SOL    HW267488   6.832   0.255   3.085  0.4240  1.8018 -2.8868
53543SOL     OW67489  12.125   0.232   3.675 -0.1182  0.2385 -0.5854
53543SOL    HW167490  12.187   0.167   3.642  1.2795  0.6314  1.1474
53543SOL    HW267491  12.059   0.180   3.721  1.3507 -0.0084  1.3751
53544SOL     OW67492  10.579   6.467  10.383  0.2076  0.5376  0.2617
53544SOL    HW167493  10.616   6.522  10.452  0.4759 -2.6700  2.9569
53544SOL    HW267494  10.648   6.461  10.317  0.7638  2.0408  0.6648
53545SOL     OW67495   3.436   5.383   1.772  0.3646  0.7709 -0.4514
53545SOL    HW167496   3.367   5.444   1.796  0.0571 -0.0126  0.7358
53545SOL    HW267497   3.390   5.301   1.751  0.8190  0.7295 -1.3306
53546SOL     OW67498   2.487   5.144  10.365 -0.1753 -0.3349 -0.2615
53546SOL    HW167499   2.563   5.126  10.309 -0.1229 -0.6040 -0.1036
53546SOL    HW267500   2.445   5.220  10.325  0.7129  0.4082  0.1758
53547SOL     OW67501   6.306   3.855   7.932  0.0298 -0.2495  0.1251
53547SOL    HW167502   6.246   3.780   7.928 -0.5261  0.1299  1.1419
53547SOL    HW267503   6.257   3.927   7.893  0.8100 -0.5448 -1.4723
53548SOL     OW67504  11.026  11.547   0.866  0.0010  0.0246 -0.5658
53548SOL    HW167505  11.070  11.465   0.842 -0.2596  0.1288 -1.4137
53548SOL    HW267506  10.935  11.521   0.882 -0.2815  0.2872 -1.7064
53549SOL     OW67507   3.503   9.349   5.792 -0.5541 -0.4090 -0.0424
53549SOL    HW167508   3.411   9.374   5.780 -0.5625  0.0196  0.8114
53549SOL    HW267509   3.505   9.308   5.879  0.0856 -0.3022 -0.0056
53550SOL     OW67510   1.209  12.114   3.149  0.1301  0.2072 -0.1846
53550SOL    HW167511   1.180  12.036   3.198  0.3675  0.5853  0.5677
53550SOL    HW267512   1.228  12.179   3.216 -0.8981  1.2230 -0.8292
53551SOL     OW67513   4.930   5.380   9.377  0.6090  0.5372 -0.1766
53551SOL    HW167514   4.893   5.348   9.459 -1.5746  0.2034 -1.2135
53551SOL    HW267515   4.960   5.469   9.397 -0.1685  0.5707  0.9274
53552SOL     OW67516  12.127   0.878   9.256 -0.1962  0.1503  0.1735
53552SOL    HW167517  12.064   0.950   9.256 -0.4990 -0.1117  0.0180
53552SOL    HW267518  12.073   0.799   9.255  0.1285 -0.0987  1.3050
53553SOL     OW67519   6.079   4.762   6.578 -0.4544  0.1358 -0.3834
53553SOL    HW167520   6.005   4.806   6.620 -0.0980  0.9277 -0.5681
53553SOL    HW267521   6.061   4.769   6.484 -0.9809 -1.1625 -0.4070
53554SOL     OW67522   4.841   0.708   6.266 -0.6973  0.2259  0.2273
53554SOL    HW167523   4.873   0.719   6.356 -3.6094  0.1858  1.3892
53554SOL    HW267524   4.850   0.614   6.249 -0.6617  0.1362  0.7106
53555SOL     OW67525   1.097   8.674  10.402  0.4497  0.1829 -0.1081
53555SOL    HW167526   1.027   8.705  10.459  0.4816 -0.8052  0.4875
53555SOL    HW267527   1.086   8.579  10.399  0.9028  0.1402 -1.1567
53556SOL     OW67528   9.722  10.496  10.418  0.4436 -0.2854 -0.0670
53556SOL    HW167529   9.746  10.584  10.446  1.0775 -0.2354 -0.7192
53556SOL    HW267530   9.783  10.476  10.347 -2.1244  0.2565 -2.6042
53557SOL     OW67531  11.674  10.786  11.152 -0.3224 -0.0952 -0.2396
53557SOL    HW167532  11.693  10.748  11.067  0.8523 -1.1516  0.4693
53557SOL    HW267533  11.750  10.842  11.171 -0.0385 -0.7581  0.6064
53558SOL     OW67534   0.602   8.382  11.944 -0.1086  0.2672 -0.0397
53558SOL    HW167535   0.654   8.302  11.940 -1.8810 -0.9468  0.0613
53558SOL    HW267536   0.546   8.371  12.020  0.0577  1.9362  0.3752
53559SOL     OW67537   7.559   8.624   6.770 -0.3385 -0.0413 -0.3086
53559SOL    HW167538   7.575   8.536   6.805  0.4658  0.1233 -0.2275
53559SOL    HW267539   7.641   8.647   6.726 -1.2954 -0.2196 -2.3028
53560SOL     OW67540   8.274   3.278   9.469 -0.5785 -0.0452 -0.2083
53560SOL    HW167541   8.235   3.343   9.527  0.1022  1.1334 -1.0198
53560SOL    HW267542   8.200   3.246   9.417 -0.7816  0.8318 -0.4818
53561SOL     OW67543   7.908  10.194   6.383 -0.5178  0.0521  0.0508
53561SOL    HW167544   7.842  10.210   6.451 -0.8016  1.3314 -0.5030
53561SOL    HW267545   7.963  10.124   6.420 -0.2488  1.1643  1.9103
53562SOL     OW67546   0.279   8.086   6.201  0.0168  0.6952  0.0684
53562SOL    HW167547   0.344   8.147   6.168 -1.6149  1.2682 -2.3028
53562SOL    HW267548   0.235   8.052   6.123 -1.7312 -0.5800  1.5128
53563SOL     OW67549   6.221  11.018  10.051  0.4178 -0.3367  0.9469
53563SOL    HW167550   6.147  10.992  10.107 -2.4113  2.8282 -0.9258
53563SOL    HW267551   6.248  11.103  10.084  0.2609  0.5099 -0.9484
53564SOL     OW67552   7.252   3.329   8.839  0.7626 -0.4999  0.2162
53564SOL    HW167553   7.273   3.414   8.877 -1.8842  0.5067 -0.2925
53564SOL    HW267554   7.203   3.283   8.908 -0.0597 -0.5198 -0.3584
53565SOL     OW67555   3.336   5.484   8.649  0.1897 -0.5880  0.0811
53565SOL    HW167556   3.384   5.413   8.607  1.7782 -0.8899  2.2107
53565SOL    HW267557   3.402   5.553   8.662 -0.5342 -0.0224  0.8925
53566SOL     OW67558  11.976   1.316   8.712  0.0842  0.3460  0.0536
53566SOL    HW167559  12.009   1.382   8.774  1.3337  0.9389 -1.1889
53566SOL    HW267560  12.039   1.244   8.719 -1.1373 -0.6653  1.2205
53567SOL     OW67561   8.213  11.769   6.026  0.0969 -0.2471  0.6866
53567SOL    HW167562   8.253  11.852   6.002  0.6547 -0.0640  2.1419
53567SOL    HW267563   8.119  11.787   6.031  0.1593  0.1413  0.4374
53568SOL     OW67564   9.598   1.067   3.617  0.3009  0.1966  0.6300
53568SOL    HW167565   9.524   1.062   3.556 -0.8311  0.7473  1.8915
53568SOL    HW267566   9.633   1.155   3.606  0.1601  0.2611  0.6891
53569SOL     OW67567   4.242   1.549   4.461  0.6280  0.0905 -0.1479
53569SOL    HW167568   4.328   1.586   4.441  0.8526  0.6694  1.7346
53569SOL    HW267569   4.196   1.618   4.509 -0.7336 -0.3759 -0.7307
53570SOL     OW67570  10.011   2.667   7.080 -0.0174  0.1809 -0.2994
53570SOL    HW167571   9.928   2.677   7.127 -0.4893  1.1940 -1.2869
53570SOL    HW267572  10.004   2.582   7.037 -0.2699 -0.0174  0.1212
53571SOL     OW67573   1.230  10.505   4.387 -0.6229  1.0353 -0.2395
53571SOL    HW167574   1.145  10.515   4.344 -0.4233 -0.7656 -1.1150
53571SOL    HW267575   1.218  10.432   4.448  0.0940  1.2623  0.1891
53572SOL     OW67576  11.941  12.355   6.655 -0.5654 -0.2236 -0.0291
53572SOL    HW167577  11.989  12.435   6.678 -0.3555  1.0341 -3.9821
53572SOL    HW267578  11.856  12.365   6.696 -0.6285  2.2558 -0.6075
53573SOL     OW67579   0.018   5.328   7.796 -0.0480  0.2702  0.3001
53573SOL    HW167580  -0.043   5.368   7.734  1.8218  1.4280 -0.8797
53573SOL    HW267581  -0.022   5.245   7.819 -1.6205  0.5762 -1.1358
53574SOL     OW67582   6.337   0.622   4.706 -0.2501  0.0620 -0.3060
53574SOL    HW167583   6.246   0.592   4.709 -0.1975 -0.3748 -1.9258
53574SOL    HW267584   6.332   0.711   4.671 -0.2190  1.1232  2.2046
53575SOL     OW67585  10.214  11.851   4.187 -0.6973 -0.0097  0.2464
53575SOL    HW167586  10.255  11.900   4.116 -1.5056 -0.6122 -0.6545
53575SOL    HW267587  10.178  11.773   4.145 -2.7568  0.4853  0.9934
53576SOL     OW67588   2.206   5.334   6.704  0.0744  0.1536  0.1692
53576SOL    HW167589   2.152   5.286   6.766 -1.7777 -0.1138 -1.5239
53576SOL    HW267590   2.218   5.420   6.744 -2.5273  0.5765  0.2305
53577SOL     OW67591  10.325  11.193   5.715  0.1384  0.5428  0.5634
53577SOL    HW167592  10.388  11.174   5.785  2.1705 -3.0166 -1.8888
53577SOL    HW267593  10.245  11.148   5.743  0.4686  0.3435  1.2226
53578SOL     OW67594  12.243   7.955   7.140 -0.2450  0.5325  0.5442
53578SOL    HW167595  12.245   8.007   7.220 -0.9356  1.8867 -0.2789
53578SOL    HW267596  12.156   7.914   7.140  0.2200 -0.4888  1.0887
53579SOL     OW67597  10.122   8.910   5.891 -0.1766 -0.8445  0.1982
53579SOL    HW167598  10.051   8.963   5.928  1.7036  0.9856  1.4075
53579SOL    HW267599  10.141   8.950   5.807 -0.2576 -1.0453  0.0827
53580SOL     OW67600   4.887   1.369   0.008 -0.2601 -0.0229  0.1455
53580SOL    HW167601   4.919   1.458  -0.010  0.6936 -0.5310 -0.7745
53580SOL    HW267602   4.792   1.378   0.013 -0.0628  1.5054  2.6925
53581SOL     OW67603   8.670   1.837   1.987 -0.5209 -0.1380  0.3097
53581SOL    HW167604   8.753   1.866   1.951 -0.3703 -0.6591  0.2258
53581SOL    HW267605   8.630   1.916   2.023  0.3567 -0.0125  1.0337
53582SOL     OW67606   8.985  12.283   0.266  0.3271 -0.1247 -0.2050
53582SOL    HW167607   8.989  12.196   0.226 -1.5361 -0.7913  0.9289
53582SOL    HW267608   8.952  12.340   0.197  2.6707  0.0073 -1.3295
53583SOL     OW67609   5.231   5.626   8.497 -0.3581  0.3815  0.0414
53583SOL    HW167610   5.242   5.537   8.463 -2.2478 -0.1474  0.7191
53583SOL    HW267611   5.223   5.681   8.419 -2.8386 -0.5657 -0.4363
53584SOL     OW67612   8.383   8.726   9.970 -0.5526 -0.4857  0.6513
53584SOL    HW167613   8.445   8.653   9.963 -1.7542 -1.3970 -2.0006
53584SOL    HW267614   8.431   8.801   9.935 -0.0034 -0.4575  1.4255
53585SOL     OW67615  11.971   6.968   1.433 -0.1374  0.2390  0.0746
53585SOL    HW167616  11.876   6.978   1.423 -0.0122 -0.1457 -2.0254
53585SOL    HW267617  12.005   6.977   1.344  1.6161 -1.4931  0.5099
53586SOL     OW67618  10.635   7.907   4.527  0.1890  0.1381 -0.0563
53586SOL    HW167619  10.697   7.916   4.599  0.0542  0.7044 -0.0080
53586SOL    HW267620  10.587   7.990   4.526  1.3329  0.8324 -1.8812
53587SOL     OW67621  11.612   8.604  10.058  0.0748  0.2245 -0.2449
53587SOL    HW167622  11.550   8.602  10.130  0.0666 -0.4299 -0.2610
53587SOL    HW267623  11.558   8.610   9.979  0.0557  0.2784 -0.2267
53588SOL     OW67624  11.107   6.208   9.298  0.3147  0.1734  0.0238
53588SOL    HW167625  11.020   6.173   9.280  0.4909 -0.0593 -0.3926
53588SOL    HW267626  11.100   6.301   9.277 -0.3129  0.5371  1.6808
53589SOL     OW67627   0.325   7.786  11.300 -0.3016  0.2013 -0.6358
53589SOL    HW167628   0.385   7.778  11.225  1.9193 -1.0905  1.1223
53589SOL    HW267629   0.359   7.860  11.350 -2.0034  1.3041 -1.0178
53590SOL     OW67630   8.390   4.642   1.125  0.1386 -0.4196 -0.3028
53590SOL    HW167631   8.353   4.654   1.212 -0.1878 -0.6468 -0.4057
53590SOL    HW267632   8.480   4.611   1.141 -0.1702 -1.2160 -0.0385
53591SOL     OW67633   1.474   4.548   7.999  0.3372 -0.3504 -0.0385
53591SOL    HW167634   1.420   4.469   8.000  0.3350 -0.3545 -0.3045
53591SOL    HW267635   1.477   4.573   7.907  0.3023 -0.0150  0.0510
53592SOL     OW67636   9.110   4.341   8.260  0.0755  0.0860 -0.0562
53592SOL    HW167637   9.037   4.403   8.250 -0.4611 -0.7393 -1.4768
53592SOL    HW267638   9.117   4.329   8.355 -0.9832  0.9494  0.1592
53593SOL     OW67639  10.185   1.289   6.319 -0.2999  0.0703  0.1001
53593SOL    HW167640  10.180   1.232   6.396 -0.1967  0.6770  0.5666
53593SOL    HW267641  10.279   1.295   6.301 -0.3582 -0.5825 -0.4725
53594SOL     OW67642   8.919   6.524  11.347 -0.0285  0.1872 -0.3278
53594SOL    HW167643   8.914   6.511  11.442  0.4783  1.9973 -0.0171
53594SOL    HW267644   8.977   6.454  11.317  0.8626  0.3691  0.8902
53595SOL     OW67645   7.187   8.846   3.882  0.3314  0.1375  0.6544
53595SOL    HW167646   7.160   8.935   3.861  0.9664 -0.1470 -1.6790
53595SOL    HW267647   7.279   8.854   3.907 -0.1361  0.3398  2.4238
53596SOL     OW67648  11.524   6.880  11.203  0.0725 -0.2619  0.2313
53596SOL    HW167649  11.591   6.919  11.259  1.7882 -0.5069 -1.5252
53596SOL    HW267650  11.528   6.786  11.222 -1.4244 -0.0676  1.7465
53597SOL     OW67651  11.182   6.199  11.731 -0.0214 -0.2135 -0.0670
53597SOL    HW167652  11.098   6.161  11.755  0.1344 -0.3359  0.2855
53597SOL    HW267653  11.163   6.254  11.655  0.2115 -3.1751 -2.4627
53598SOL     OW67654   7.156   4.461   1.326 -0.0156 -0.1671 -0.0828
53598SOL    HW167655   7.249   4.458   1.302 -0.3471 -0.4773 -1.3499
53598SOL    HW267656   7.153   4.523   1.400  0.8922  1.6680 -1.4929
53599SOL     OW67657   7.177   0.235   9.777 -0.0120 -0.4564  0.4035
53599SOL    HW167658   7.158   0.329   9.782 -0.1548 -0.3839 -1.0953
53599SOL    HW267659   7.242   0.220   9.846  0.3720  0.8445  0.3535
53600SOL     OW67660   3.618  10.105  11.607 -0.3951  0.1377 -0.1188
53600SOL    HW167661   3.628  10.018  11.647  1.1578 -0.2866 -1.3034
53600SOL    HW267662   3.561  10.090  11.532 -0.0928  0.1394 -0.3472
53601SOL     OW67663   8.811   1.379   6.403 -0.4389 -0.2049 -0.1848
53601SOL    HW167664   8.728   1.403   6.445  0.5653  0.4382  1.5103
53601SOL    HW267665   8.826   1.447   6.338  0.3234  1.5633  1.7391
53602SOL     OW67666  10.808   6.506   6.136 -0.2075  0.4861  0.0549
53602SOL    HW167667  10.856   6.580   6.099  0.1000  0.2581 -0.0051
53602SOL    HW267668  10.836   6.431   6.084  0.8686  0.0113  1.2805
53603SOL     OW67669   1.029   4.640  11.647 -0.2087 -0.3805 -0.0738
53603SOL    HW167670   1.018   4.559  11.597 -0.6009 -0.2844 -0.1447
53603SOL    HW267671   1.020   4.710  11.582  0.6834 -0.2856 -0.1130
53604SOL     OW67672   3.424   3.028   3.892  0.0507 -0.8105 -0.1085
53604SOL    HW167673   3.465   3.060   3.972  0.0256  0.5401 -0.6144
53604SOL    HW267674   3.493   3.033   3.826 -0.4031 -0.2410 -0.5546
53605SOL     OW67675   7.295   0.287   3.522 -1.0913 -0.0581  0.0981
53605SOL    HW167676   7.297   0.203   3.478 -1.5400 -0.5527  1.0026
53605SOL    HW267677   7.387   0.306   3.541 -0.9616 -0.1812 -0.3940
53606SOL     OW67678  12.037   6.525   3.227 -0.3643  0.9539  0.0073
53606SOL    HW167679  12.097   6.543   3.155  0.9807 -1.0905  0.5289
53606SOL    HW267680  12.053   6.596   3.290  0.6557  1.0902 -0.3913
53607SOL     OW67681  10.730   7.236  10.395 -0.0005  0.1894 -0.3741
53607SOL    HW167682  10.658   7.248  10.333 -0.5852  0.6205  0.3827
53607SOL    HW267683  10.696   7.175  10.460 -0.1243  1.3539  0.6691
53608SOL     OW67684  10.797   8.427   7.820  0.0911 -0.4414 -0.5952
53608SOL    HW167685  10.742   8.501   7.794  1.8580  2.1881  2.4160
53608SOL    HW267686  10.847   8.406   7.741 -0.4931  1.6233 -1.5988
53609SOL     OW67687   7.401  10.778  11.055 -0.0756 -0.0825 -0.2915
53609SOL    HW167688   7.362  10.865  11.046 -0.7389 -0.4225 -0.7070
53609SOL    HW267689   7.493  10.796  11.074 -0.3449  0.7176  0.3348
53610SOL     OW67690   9.844   1.466  11.856 -0.3649 -1.1702 -0.0720
53610SOL    HW167691   9.858   1.380  11.896  0.3776 -0.6604  0.8076
53610SOL    HW267692   9.926   1.485  11.810 -0.4079 -0.8005 -0.0019
53611SOL     OW67693   8.057   3.185   9.839  0.3796  0.4542 -0.3833
53611SOL    HW167694   8.137   3.146   9.872 -0.2449 -0.4465  0.1097
53611SOL    HW267695   8.069   3.279   9.853  1.8050  0.4464 -1.3700
53612SOL     OW67696   0.707   9.550   4.526  0.3213  0.1989  0.5618
53612SOL    HW167697   0.758   9.631   4.530 -2.0165  1.9134 -1.3222
53612SOL    HW267698   0.664   9.545   4.611  0.4510  0.9776  0.6813
53613SOL     OW67699   3.320   2.039   3.541  0.4767 -0.3262 -0.5154
53613SOL    HW167700   3.366   1.958   3.562  2.7630  0.6194 -1.5209
53613SOL    HW267701   3.300   2.078   3.626 -0.1209 -1.6315 -0.0334
53614SOL     OW67702  11.726   6.061   9.943 -0.5740 -0.3006 -0.3864
53614SOL    HW167703  11.649   6.084   9.891 -0.5200  1.6917  0.3300
53614SOL    HW267704  11.715   6.110  10.024  0.8555 -0.9726  0.2430
53615SOL     OW67705   0.990   8.623  10.123 -0.6145 -0.7296 -0.0279
53615SOL    HW167706   1.039   8.694  10.163 -3.6781  1.4418  0.2058
53615SOL    HW267707   1.022   8.619  10.033 -0.6584  1.2868 -0.1622
53616SOL     OW67708  11.658   3.247   1.222  0.6488 -0.5283  0.1720
53616SOL    HW167709  11.710   3.327   1.218 -0.8915  0.6065  1.4060
53616SOL    HW267710  11.710   3.187   1.275  1.4630 -0.0638 -0.0896
53617SOL     OW67711  11.699  10.384   0.394  1.0893  0.4964  0.0284
53617SOL    HW167712  11.701  10.404   0.300  2.5067  0.1148 -0.0391
53617SOL    HW267713  11.713  10.290   0.398 -1.5281  0.0413  0.5412
53618SOL     OW67714   8.232  12.365  10.994 -0.2528 -0.0219  0.0765
53618SOL    HW167715   8.261  12.357  11.085  0.4807 -1.0391 -0.2295
53618SOL    HW267716   8.173  12.291  10.981  0.9492 -0.8704 -0.7389
53619SOL     OW67717   6.629  11.776   2.338  0.6178 -0.1722 -0.2043
53619SOL    HW167718   6.647  11.805   2.427  2.0361  0.4930 -0.6719
53619SOL    HW267719   6.572  11.844   2.302 -2.0036 -1.6400  0.8833
53620SOL     OW67720   3.466   3.836   6.147  0.0871  0.5036  0.0505
53620SOL    HW167721   3.457   3.770   6.215 -1.1061  0.6961  0.0959
53620SOL    HW267722   3.521   3.905   6.186  3.0168 -1.2681 -0.6356
53621SOL     OW67723   5.419   9.670   9.442  0.1899  0.3146  0.2237
53621SOL    HW167724   5.422   9.627   9.356  0.8071 -1.6563  1.1544
53621SOL    HW267725   5.500   9.642   9.486 -1.0989 -0.5434  2.2178
53622SOL     OW67726   8.662   6.732  10.443  0.0319 -0.0127 -0.2112
53622SOL    HW167727   8.702   6.691  10.366 -2.6692  1.4589 -2.6067
53622SOL    HW267728   8.734   6.740  10.506  1.9252 -3.1750 -1.7012
53623SOL     OW67729   0.904   5.727   9.240  0.5870  0.1968  0.2824
53623SOL    HW167730   0.810   5.721   9.224  0.7356  0.4304 -0.7840
53623SOL    HW267731   0.920   5.668   9.313 -0.2163 -0.6868 -0.2341
53624SOL     OW67732   9.974   9.510   6.814  0.3723  0.5302 -0.0075
53624SOL    HW167733   9.943   9.420   6.825 -1.5685  1.1618 -0.0502
53624SOL    HW267734  10.046   9.518   6.876  1.5530 -1.4622 -1.0099
53625SOL     OW67735   4.985   5.647   8.659  0.7969  0.4199  0.0316
53625SOL    HW167736   5.075   5.646   8.627  0.7559 -1.4519 -0.1867
53625SOL    HW267737   4.954   5.735   8.641  2.3743  0.9075 -0.5039
53626SOL     OW67738   9.886   3.279   4.845  0.9425 -0.5372  0.1934
53626SOL    HW167739   9.842   3.221   4.907 -0.1152  0.3643  0.3115
53626SOL    HW267740   9.870   3.240   4.760  1.3589 -1.1152  0.3714
53627SOL     OW67741   3.908   3.944   9.202  0.1149  0.4790 -0.2454
53627SOL    HW167742   3.953   3.985   9.276  0.0127  2.0683 -1.0328
53627SOL    HW267743   3.856   3.874   9.242 -0.5936  1.8333  1.2927
53628SOL     OW67744  10.125  11.041   3.588  0.4397  0.5994 -0.7283
53628SOL    HW167745  10.154  10.953   3.565 -2.3940 -0.4839 -0.4984
53628SOL    HW267746  10.107  11.083   3.503  0.0491  0.3025 -0.7948
53629SOL     OW67747   2.251   8.691   3.830 -0.2300 -0.2219  0.2664
53629SOL    HW167748   2.215   8.611   3.867  0.6642 -0.4345  0.7046
53629SOL    HW267749   2.344   8.689   3.854 -0.2143  0.9999  0.3764
53630SOL     OW67750  11.869   6.708   1.952 -0.4690 -0.1283  0.5950
53630SOL    HW167751  11.953   6.675   1.918 -1.1385  0.0706 -1.4233
53630SOL    HW267752  11.807   6.688   1.882 -2.1253 -0.3125  2.0744
53631SOL     OW67753  12.349   1.932  10.675  0.1627 -0.0866 -0.6958
53631SOL    HW167754  12.363   1.842  10.647  2.5115  0.7172 -2.3853
53631SOL    HW267755  12.400   1.941  10.756 -0.2729 -0.3178 -0.3922
53632SOL     OW67756   3.849  10.980   7.002  0.0896  0.7192 -0.5306
53632SOL    HW167757   3.846  10.885   7.012 -0.7924  0.8536  0.8275
53632SOL    HW267758   3.786  10.999   6.932  0.1225  0.3181 -0.6700
53633SOL     OW67759  12.053  12.021  12.102 -0.6225 -0.1348 -0.0899
53633SOL    HW167760  11.989  12.070  12.051  1.3183  0.4377 -2.1294
53633SOL    HW267761  12.066  11.939  12.053  0.7595  0.1129 -0.1750
53634SOL     OW67762   6.812  11.202  11.088  0.0073 -0.0269  0.1171
53634SOL    HW167763   6.891  11.256  11.083  0.2457 -0.4698 -1.0945
53634SOL    HW267764   6.754  11.251  11.147  0.0486  1.7869 -1.2645
53635SOL     OW67765   1.962   9.650   1.760  0.0174 -0.1368 -0.3510
53635SOL    HW167766   1.965   9.610   1.847  2.0812  0.8725  0.0940
53635SOL    HW267767   1.898   9.720   1.768 -1.1584 -1.1916 -0.1954
53636SOL     OW67768   5.854  10.080   8.722  0.8160  0.5512 -0.0443
53636SOL    HW167769   5.844  10.079   8.626 -0.1675  0.0372  0.0508
53636SOL    HW267770   5.791  10.015   8.753 -0.2673  2.0723  1.0638
53637SOL     OW67771  11.286   4.898   2.912 -0.0159  0.4282  0.0863
53637SOL    HW167772  11.314   4.808   2.894 -1.9236 -0.4383  1.2211
53637SOL    HW267773  11.357   4.935   2.965  0.1041 -0.9136  0.9053
53638SOL     OW67774   4.078   6.612   9.116 -0.1635  0.1532 -0.1023
53638SOL    HW167775   4.150   6.666   9.147 -0.2818  0.1390  0.1977
53638SOL    HW267776   4.002   6.670   9.114  0.0283  0.3879 -1.2119
53639SOL     OW67777   7.200   6.685  10.739  0.0434 -0.2762 -0.3925
53639SOL    HW167778   7.118   6.660  10.697 -1.2695  1.7488  0.8299
53639SOL    HW267779   7.206   6.627  10.816 -1.3211  0.9165  0.6442
53640SOL     OW67780   8.880   7.979  10.810  0.2498  0.3835  0.3755
53640SOL    HW167781   8.836   7.894  10.806 -0.5673  0.7358  1.3239
53640SOL    HW267782   8.917   7.983  10.898  3.2698 -0.3707 -0.7249
53641SOL     OW67783   2.250  11.455  10.029 -0.0024 -0.4982  0.0718
53641SOL    HW167784   2.199  11.463  10.109  0.8864  1.8561  0.4916
53641SOL    HW267785   2.318  11.391  10.050  0.2059  0.0669  1.2106
53642SOL     OW67786   2.249  11.824   0.566 -0.0469  0.4405  0.2141
53642SOL    HW167787   2.170  11.856   0.524  0.7712  1.3801 -0.6520
53642SOL    HW267788   2.309  11.805   0.494  0.4885 -0.3855  0.8494
53643SOL     OW67789   6.566   7.725   8.250  0.0508  0.1517  0.4422
53643SOL    HW167790   6.505   7.663   8.209 -0.0048 -0.0009  0.7530
53643SOL    HW267791   6.626   7.749   8.180 -1.1000  1.2494 -0.2037
53644SOL     OW67792  10.414   2.381   4.393 -0.3904  0.1903  0.1586
53644SOL    HW167793  10.414   2.394   4.299 -0.0899  0.2276  0.1602
53644SOL    HW267794  10.457   2.296   4.406 -0.1247  0.3407  0.2773
53645SOL     OW67795  11.917   9.631   5.078  0.0412  0.1987 -0.2502
53645SOL    HW167796  12.001   9.599   5.045  0.0088 -1.5632  1.2380
53645SOL    HW267797  11.852   9.585   5.023  0.0306 -0.6036  0.4164
53646SOL     OW67798   2.007   0.045   9.635  0.6955  0.5750 -0.1053
53646SOL    HW167799   2.054  -0.009   9.698 -0.4938  1.5467  1.6976
53646SOL    HW267800   2.072   0.106   9.601  0.5613  3.0868  3.6513
53647SOL     OW67801   5.538   3.398   7.904 -0.1375 -0.5572 -0.1272
53647SOL    HW167802   5.447   3.411   7.877 -0.0641 -1.8382 -1.1156
53647SOL    HW267803   5.534   3.327   7.967  0.2096 -0.8090 -0.3908
53648SOL     OW67804  10.306   7.060   0.473 -0.3129  0.0743  0.1846
53648SOL    HW167805  10.309   7.148   0.436  0.7377  0.3250  0.8291
53648SOL    HW267806  10.356   7.006   0.412  2.4168  0.7060  1.6971
53649SOL     OW67807  10.303   0.990  10.339  0.4350  0.1863  0.0048
53649SOL    HW167808  10.243   0.958  10.271 -0.9700  0.8365  0.9003
53649SOL    HW267809  10.365   1.046  10.291  0.6439 -0.8640 -1.0028
53650SOL     OW67810   6.731   6.701  11.100  0.0622 -0.1741  0.3420
53650SOL    HW167811   6.764   6.750  11.175 -0.7395  1.0715 -0.0749
53650SOL    HW267812   6.636   6.709  11.106 -0.0454 -0.7462 -0.3629
53651SOL     OW67813   2.301   4.311   2.055 -0.4833 -0.1449 -0.1091
53651SOL    HW167814   2.297   4.395   2.100 -0.9159 -1.6024  2.8582
53651SOL    HW267815   2.267   4.329   1.968  1.1969  3.0713 -0.2539
53652SOL     OW67816   4.968   0.301   3.522  0.7410 -0.0336  0.0658
53652SOL    HW167817   4.891   0.317   3.468 -0.4637 -3.7695  0.4178
53652SOL    HW267818   4.951   0.349   3.603  0.0668  1.2453 -0.7890
53653SOL     OW67819   5.989   2.770   4.362 -0.1727 -0.1256  0.9865
53653SOL    HW167820   6.001   2.861   4.390 -0.7862  0.3758 -0.2974
53653SOL    HW267821   5.963   2.724   4.442 -2.2460  1.3220  1.2278
53654SOL     OW67822   1.410   1.587   1.495  0.3148 -0.2832 -0.2491
53654SOL    HW167823   1.379   1.578   1.585 -0.8964  0.0218 -0.6161
53654SOL    HW267824   1.431   1.679   1.485 -2.1677  0.2751 -1.0392
53655SOL     OW67825   1.723   8.143   9.086 -0.1591 -0.1280  0.0325
53655SOL    HW167826   1.630   8.135   9.109  0.0516 -1.1273  0.6074
53655SOL    HW267827   1.736   8.078   9.017  0.4017 -1.0268  0.9434
53656SOL     OW67828  11.585   4.671   3.156 -0.1529 -0.1233 -0.6164
53656SOL    HW167829  11.674   4.639   3.144  0.5045  1.0786  0.7382
53656SOL    HW267830  11.594   4.767   3.159 -1.1113 -0.0275  1.8869
53657SOL     OW67831  10.463   5.811   0.978  0.3738  0.1401  0.1635
53657SOL    HW167832  10.402   5.777   0.913  1.7305  0.5086 -1.3787
53657SOL    HW267833  10.440   5.904   0.986  0.6851  0.2709 -0.3889
53658SOL     OW67834   6.980   2.579   7.933 -0.4972  0.2207  0.3358
53658SOL    HW167835   7.020   2.536   7.857 -0.9242 -0.3578  0.4382
53658SOL    HW267836   6.929   2.651   7.895 -0.3936  0.1763  0.1074
53659SOL     OW67837  12.329   6.162   0.991 -0.2526  0.0349 -0.1916
53659SOL    HW167838  12.354   6.119   0.909 -0.6594 -0.3603 -0.1111
53659SOL    HW267839  12.240   6.132   1.008  0.1974 -0.7525  0.9456
53660SOL     OW67840   2.164   7.358   3.930  0.0305 -0.1184  0.0253
53660SOL    HW167841   2.186   7.287   3.990 -0.9697  0.3417  0.9747
53660SOL    HW267842   2.110   7.317   3.862 -0.8702 -0.2047  0.7817
53661SOL     OW67843  11.370   6.815   1.743 -0.2282 -0.9123 -0.3681
53661SOL    HW167844  11.330   6.866   1.814  0.2860 -0.5902 -0.3073
53661SOL    HW267845  11.307   6.821   1.671  0.3431  0.8052 -0.7657
53662SOL     OW67846   4.982   3.029   8.682 -0.1805  0.4840 -0.0630
53662SOL    HW167847   5.076   3.011   8.686 -0.1405  0.8105  0.5423
53662SOL    HW267848   4.940   2.946   8.706 -0.0396  0.4639  0.1121
53663SOL     OW67849  11.129   0.272   5.960 -0.2908 -0.2710  0.2292
53663SOL    HW167850  11.052   0.234   5.918  0.0112 -0.5949 -0.0382
53663SOL    HW267851  11.093   0.331   6.026 -0.7772  0.4740 -0.6713
53664SOL     OW67852  10.642  11.503   1.944 -0.4051 -0.1866 -0.3266
53664SOL    HW167853  10.679  11.576   1.994 -0.1119 -2.2704  2.8001
53664SOL    HW267854  10.671  11.518   1.854  2.8667  1.5503  0.8586
53665SOL     OW67855   2.949   8.586   4.660  0.0935 -0.0361 -0.4015
53665SOL    HW167856   2.898   8.644   4.603  0.6096  0.1527 -0.6843
53665SOL    HW267857   3.006   8.538   4.601 -1.5489 -2.1588 -0.3565
53666SOL     OW67858   6.937   0.995   6.843  0.6411  0.1981  0.4825
53666SOL    HW167859   6.904   0.944   6.917  0.6102  0.4543  0.6489
53666SOL    HW267860   6.974   1.074   6.884 -0.7178  1.0561  0.1429
53667SOL     OW67861   0.943   2.391   9.945 -0.1543 -0.0014 -0.5867
53667SOL    HW167862   1.009   2.351  10.001 -0.6603  3.6224  3.0882
53667SOL    HW267863   0.987   2.467   9.906 -1.6238  1.5513  0.6400
53668SOL     OW67864   7.042   1.353  11.025  0.3919 -0.1354 -0.1909
53668SOL    HW167865   7.021   1.361  10.932  1.2564 -1.2893 -0.5087
53668SOL    HW267866   6.986   1.418  11.068 -0.3856  0.0649 -1.4582
53669SOL     OW67867   6.976  10.422   7.320 -0.5733 -0.1300 -0.7840
53669SOL    HW167868   6.997  10.378   7.403  0.2402  0.6454 -0.5662
53669SOL    HW267869   6.958  10.512   7.344  1.7581  0.6442 -1.6367
53670SOL     OW67870  10.711   4.495  11.189  0.0752  0.1784  0.0489
53670SOL    HW167871  10.737   4.520  11.100 -1.2958  1.9357  0.0780
53670SOL    HW267872  10.643   4.558  11.212 -0.1028 -0.6925  2.0924
53671SOL     OW67873  11.651   6.018   7.253 -0.0372 -0.3234  0.1682
53671SOL    HW167874  11.731   5.992   7.207  0.2571  0.3531  0.2936
53671SOL    HW267875  11.589   5.947   7.235 -0.1002  0.1554 -1.7047
53672SOL     OW67876   9.376   7.018   0.539 -0.3088 -0.1554 -0.4985
53672SOL    HW167877   9.336   6.941   0.581 -0.8221 -0.2916 -1.2179
53672SOL    HW267878   9.450   7.040   0.595 -1.0424 -0.2651  0.5493
53673SOL     OW67879  10.985  10.250   5.194 -0.3287  0.3982 -0.3426
53673SOL    HW167880  10.968  10.195   5.271 -0.1033  1.1224  0.2326
53673SOL    HW267881  10.899  10.257   5.151 -0.5012  0.1676 -0.0460
53674SOL     OW67882   5.120  10.204   9.489  1.1858 -0.0451 -0.0300
53674SOL    HW167883   5.150  10.293   9.511 -0.1785  0.7936 -1.3844
53674SOL    HW267884   5.125  10.156   9.572  1.4170  1.4518  0.8639
53675SOL     OW67885   3.962   3.113   6.207 -0.0031 -0.0488 -0.0633
53675SOL    HW167886   3.899   3.087   6.274 -1.0065 -0.3160 -1.0820
53675SOL    HW267887   3.959   3.208   6.206  0.3977 -0.0209  0.6098
53676SOL     OW67888  12.008  11.100   2.902 -0.7337  0.0570  0.4549
53676SOL    HW167889  12.046  11.151   2.973  0.9472 -1.2476  0.5565
53676SOL    HW267890  11.918  11.084   2.929 -0.5335  0.7742  1.6067
53677SOL     OW67891   5.342   2.385   2.463 -0.9506 -0.2177  0.3348
53677SOL    HW167892   5.254   2.420   2.448 -1.4730 -2.3539 -2.5309
53677SOL    HW267893   5.341   2.299   2.422  1.9107 -1.2222  2.0639
53678SOL     OW67894   5.749   2.265  10.123 -0.2556 -0.2441 -0.2999
53678SOL    HW167895   5.780   2.205  10.056  1.9517  0.4592  0.0066
53678SOL    HW267896   5.815   2.261  10.192 -2.2550 -0.6653  1.7261
53679SOL     OW67897  11.944   3.064   2.153 -0.3328 -0.2097 -0.2821
53679SOL    HW167898  11.919   3.014   2.231  0.5111  0.4753  0.4569
53679SOL    HW267899  12.040   3.060   2.152 -0.3151  0.2180 -1.0136
53680SOL     OW67900   9.533   7.939   4.889 -0.0331 -0.3461  0.2799
53680SOL    HW167901   9.530   8.026   4.930  0.5748 -0.1240 -0.1323
53680SOL    HW267902   9.603   7.894   4.936 -0.4862 -0.6941  0.6350
53681SOL     OW67903  11.459   8.594   9.410  0.2387  0.1099  0.0004
53681SOL    HW167904  11.534   8.540   9.383 -0.5277 -1.0778  0.1885
53681SOL    HW267905  11.477   8.680   9.371  0.7081 -0.7019 -1.6628
53682SOL     OW67906   2.813   7.250  10.679 -0.1348 -0.1852  0.6494
53682SOL    HW167907   2.781   7.293  10.758  0.3790  0.7089  0.3737
53682SOL    HW267908   2.738   7.248  10.621 -0.6457 -1.2501  1.3062
53683SOL     OW67909  12.460   5.125  10.281  0.0819 -0.0583  0.1427
53683SOL    HW167910  12.410   5.205  10.264  0.8781  0.4052 -0.0855
53683SOL    HW267911  12.419   5.087  10.359 -0.7970  0.1591 -0.2060
53684SOL     OW67912   5.941   5.004   0.189  0.0905  0.1818 -0.3988
53684SOL    HW167913   5.872   4.947   0.155 -0.4544  0.7922 -0.3507
53684SOL    HW267914   5.900   5.091   0.193  0.5647  0.3748  0.5226
53685SOL     OW67915   0.827   6.214  12.287  0.2822 -0.2499 -0.5668
53685SOL    HW167916   0.769   6.269  12.340 -2.6627 -1.2465 -2.5016
53685SOL    HW267917   0.896   6.273  12.257 -1.0518  1.6331 -0.1136
53686SOL     OW67918   2.830   3.883   6.858 -0.0417 -0.6479 -0.3350
53686SOL    HW167919   2.741   3.918   6.851 -0.6787 -1.7414  1.6328
53686SOL    HW267920   2.830   3.804   6.804 -0.0231 -0.2661 -0.9075
53687SOL     OW67921   3.229   6.356   4.768 -0.1035 -0.0198 -0.1085
53687SOL    HW167922   3.293   6.366   4.698 -0.2872  0.0275 -0.2709
53687SOL    HW267923   3.171   6.286   4.738 -1.2974  1.2119 -0.8664
53688SOL     OW67924   9.733   9.075   6.816  0.2563  0.0863 -0.6448
53688SOL    HW167925   9.719   9.022   6.737 -1.4153 -0.7386  0.1671
53688SOL    HW267926   9.755   9.011   6.884 -0.8918  0.4938  0.1426
53689SOL     OW67927  12.137   4.903   8.768  0.3352  0.5470  0.0612
53689SOL    HW167928  12.232   4.904   8.776  0.2666  0.6542  1.0256
53689SOL    HW267929  12.118   4.833   8.706  1.0270  0.1796  0.2589
53690SOL     OW67930   7.124   7.275   1.109  0.2690 -0.1902  0.0390
53690SOL    HW167931   7.071   7.319   1.042  0.1760  0.2449  0.3885
53690SOL    HW267932   7.060   7.242   1.171  0.3923  0.1124  0.3304
53691SOL     OW67933  11.667   3.240   3.470  0.4033  0.3063 -0.0034
53691SOL    HW167934  11.574   3.243   3.449 -0.0419  1.0168  1.8098
53691SOL    HW267935  11.670   3.213   3.562  2.0169 -0.1967 -0.1658
53692SOL     OW67936   2.935  10.417  10.883  0.1007  0.5106  0.8288
53692SOL    HW167937   2.951  10.504  10.918 -1.1092  2.4902 -3.0303
53692SOL    HW267938   2.844  10.398  10.905 -0.0195  0.7935  0.5745
53693SOL     OW67939  12.153   0.511   3.455 -0.6714  0.5313 -0.4564
53693SOL    HW167940  12.201   0.589   3.481  1.3844 -0.6847 -0.3289
53693SOL    HW267941  12.089   0.498   3.525 -0.1903  1.4007  0.1701
53694SOL     OW67942  10.395   6.906   9.146  0.2384  0.0541  0.4993
53694SOL    HW167943  10.480   6.885   9.186  0.0170 -3.1627 -0.4031
53694SOL    HW267944  10.331   6.891   9.216  0.2318 -0.3667  0.4078
53695SOL     OW67945   0.373   9.787   8.070 -0.8242  0.0399  0.5867
53695SOL    HW167946   0.370   9.700   8.108 -1.2468 -0.5427 -0.7276
53695SOL    HW267947   0.339   9.776   7.981 -3.9504  2.0627  1.3516
53696SOL     OW67948  10.225   9.281   3.457  0.6312 -0.2945  0.2674
53696SOL    HW167949  10.130   9.291   3.446  0.4752 -1.8771 -0.0858
53696SOL    HW267950  10.260   9.282   3.369  0.9523  0.3349  0.4022
53697SOL     OW67951   8.635   1.450   9.103  0.2799  0.1528 -0.5353
53697SOL    HW167952   8.638   1.359   9.072  1.2464 -0.0771  0.1699
53697SOL    HW267953   8.601   1.500   9.028  0.1298 -0.7312 -1.0740
53698SOL     OW67954   7.370  10.096   1.757 -0.3406 -0.3619 -0.5711
53698SOL    HW167955   7.309  10.170   1.758 -0.1493 -0.1915  0.6710
53698SOL    HW267956   7.322  10.027   1.712 -0.9234  0.2016 -0.8401
53699SOL     OW67957   6.429   7.285   5.309  0.1814 -0.0029 -0.2218
53699SOL    HW167958   6.508   7.266   5.258  0.2700 -0.7411  0.1768
53699SOL    HW267959   6.393   7.363   5.268  1.6126  0.8856  0.1527
53700SOL     OW67960  11.193   3.386   0.958 -0.8822  0.6354  0.2611
53700SOL    HW167961  11.270   3.354   0.910 -0.8551 -0.7004  1.1396
53700SOL    HW267962  11.214   3.371   1.050 -2.2455  0.0769  0.5091
53701SOL     OW67963   1.440   9.805   2.537  0.3870  0.2265  0.4074
53701SOL    HW167964   1.493   9.863   2.592  0.9440  0.6276 -0.5200
53701SOL    HW267965   1.496   9.729   2.521  0.5322  0.4516 -0.2093
53702SOL     OW67966  12.096   4.122  10.447 -0.1265 -0.0333  0.1449
53702SOL    HW167967  12.070   4.040  10.490  1.4803 -0.2974  0.6584
53702SOL    HW267968  12.189   4.110  10.426 -0.0860  1.3357 -0.5486
53703SOL     OW67969  11.666  12.129   9.251 -0.1053  0.4393  0.4811
53703SOL    HW167970  11.665  12.038   9.221  0.6179  1.5543 -3.5510
53703SOL    HW267971  11.727  12.129   9.325  1.1544 -2.0922 -0.4375
53704SOL     OW67972  12.389   8.659   9.524  0.3948 -0.5860 -0.0307
53704SOL    HW167973  12.421   8.647   9.614 -2.1260  0.3459  1.0911
53704SOL    HW267974  12.417   8.580   9.478  1.2756 -1.3529  1.7119
53705SOL     OW67975   5.625   7.339  10.435  0.1959  0.4573 -0.3007
53705SOL    HW167976   5.672   7.352  10.518  0.3732  0.5656 -0.4151
53705SOL    HW267977   5.548   7.395  10.442 -0.0063  0.1468 -0.0415
53706SOL     OW67978   2.367  12.170   9.936 -0.5044  0.2986 -0.2451
53706SOL    HW167979   2.385  12.219  10.017  1.3620 -0.2294 -0.2771
53706SOL    HW267980   2.341  12.083   9.966  2.0505 -0.5148 -0.1155
53707SOL     OW67981  10.672  12.446   8.382  0.1915 -0.2052 -0.1927
53707SOL    HW167982  10.734  12.379   8.410  0.9066  0.4830 -0.0865
53707SOL    HW267983  10.631  12.476   8.463  0.2283 -0.1682 -0.1874
53708SOL     OW67984  10.518   2.415   9.705 -0.4012 -0.0935 -0.0149
53708SOL    HW167985  10.549   2.406   9.795 -1.8525  1.8545  0.7689
53708SOL    HW267986  10.575   2.482   9.666 -0.5120 -0.0804 -0.1587
53709SOL     OW67987   2.547  10.421   0.993 -0.3460  0.4050 -0.0511
53709SOL    HW167988   2.561  10.516   0.995  1.2267  0.2110 -0.5097
53709SOL    HW267989   2.453  10.411   0.985 -0.6501  1.9145  1.0961
53710SOL     OW67990   0.859   6.022   9.551 -0.4858 -0.0726  0.0968
53710SOL    HW167991   0.821   6.053   9.633  1.4070 -1.2378  1.4937
53710SOL    HW267992   0.848   5.927   9.554  0.4388 -0.2105 -0.5588
53711SOL     OW67993   3.571   8.734  11.742 -0.1545  0.1568  0.3141
53711SOL    HW167994   3.483   8.728  11.707 -0.0612  1.4958 -0.1997
53711SOL    HW267995   3.576   8.663  11.806 -0.9143 -1.2003 -1.0789
53712SOL     OW67996   8.769  11.019   8.181 -0.1022 -0.3005  0.4402
53712SOL    HW167997   8.843  10.980   8.228  0.2708  1.4824  1.4434
53712SOL    HW267998   8.721  11.067   8.249 -0.5033  0.9770 -0.7049
53713SOL     OW67999   2.759   7.872   5.249 -0.2449 -0.1708  0.3350
53713SOL    HW168000   2.699   7.800   5.229 -0.4453  0.3405 -1.0912
53713SOL    HW268001   2.702   7.944   5.274 -0.2095  0.1119 -0.3539
53714SOL     OW68002   6.941   1.836  12.022 -0.0131 -0.6697  0.4175
53714SOL    HW168003   6.906   1.779  12.091  0.6200 -0.5388  0.8614
53714SOL    HW268004   6.963   1.917  12.067  0.0173 -0.4331 -0.0222
53715SOL     OW68005   2.183   5.067   4.000 -0.0926 -0.7450  0.7912
53715SOL    HW168006   2.267   5.055   4.043  0.6967 -0.0770 -0.5316
53715SOL    HW268007   2.149   5.150   4.035  1.9608  1.4496 -1.9717
53716SOL     OW68008   7.147   0.856   0.028  0.3671 -0.2379 -0.1691
53716SOL    HW168009   7.066   0.804   0.023 -0.0108  0.3976 -4.3439
53716SOL    HW268010   7.215   0.796  -0.004  0.6633  0.5510 -1.0578
53717SOL     OW68011   6.382   9.802   1.224 -0.4224  0.4998  0.6771
53717SOL    HW168012   6.433   9.739   1.274 -0.1134  1.4539  1.5899
53717SOL    HW268013   6.446   9.843   1.166 -0.8176 -0.7649 -0.7220
53718SOL     OW68014   2.981   6.133   8.258 -0.3119 -0.4318 -1.0014
53718SOL    HW168015   3.013   6.213   8.300  0.8660 -1.0110 -0.7415
53718SOL    HW268016   2.930   6.164   8.183 -0.1238  0.5697 -0.7299
53719SOL     OW68017   0.520   4.804   0.831 -0.3547  0.1583 -0.0952
53719SOL    HW168018   0.547   4.776   0.743  0.5620 -0.2052  0.2961
53719SOL    HW268019   0.588   4.770   0.889 -0.8600  0.5542  0.7404
53720SOL     OW68020  10.172   0.879  10.872  0.2751  0.1482 -0.3637
53720SOL    HW168021  10.154   0.918  10.787 -1.3006  1.5407  0.5574
53720SOL    HW268022  10.134   0.940  10.936 -0.4584 -1.8823  1.2486
53721SOL     OW68023  12.408   3.347   5.751 -0.2171  0.1626 -0.7176
53721SOL    HW168024  12.337   3.372   5.693 -1.4116 -0.2959  0.4791
53721SOL    HW268025  12.398   3.404   5.827 -0.8209 -1.4856  0.5125
53722SOL     OW68026  10.647  11.921   2.934 -0.1117 -0.3022 -0.0373
53722SOL    HW168027  10.605  11.891   3.014 -1.7089  2.2731  0.2217
53722SOL    HW268028  10.732  11.955   2.962 -0.2641 -0.2879  0.4083
53723SOL     OW68029   0.320   8.883  10.076  0.2958  0.3721  0.1548
53723SOL    HW168030   0.360   8.924  10.154 -0.9727  0.1956  0.9286
53723SOL    HW268031   0.333   8.947  10.007  1.1624  0.6817  0.5758
53724SOL     OW68032  10.560   6.545   6.252  0.1663  0.0139  0.1698
53724SOL    HW168033  10.650   6.524   6.226 -0.1387 -0.6501 -0.3709
53724SOL    HW268034  10.562   6.638   6.273  1.3931 -0.3447  1.8651
53725SOL     OW68035   1.244   6.633   2.622 -0.3155  0.1255  0.5158
53725SOL    HW168036   1.255   6.583   2.541 -0.5468  0.2925  0.3817
53725SOL    HW268037   1.323   6.686   2.628  1.6391 -2.6510  2.3808
53726SOL     OW68038   7.527   1.879  10.671  0.0389 -0.0637  0.3533
53726SOL    HW168039   7.468   1.943  10.711  0.7889  0.9717 -0.1421
53726SOL    HW268040   7.612   1.924  10.668 -0.1698  0.3535 -3.3124
53727SOL     OW68041  11.163   5.807  12.157  0.0744  0.8707  0.4137
53727SOL    HW168042  11.072   5.788  12.133  0.9563  0.4366 -3.2068
53727SOL    HW268043  11.209   5.723  12.145  1.2472  1.4880  0.4612
53728SOL     OW68044  10.113   8.671  10.898 -0.3331 -0.0958  0.4491
53728SOL    HW168045  10.205   8.646  10.910  0.0913  0.0269 -2.0882
53728SOL    HW268046  10.082   8.615  10.827 -2.6065 -0.9121  1.9715
53729SOL     OW68047   5.920   5.466   3.067  0.1281  0.4970  0.4956
53729SOL    HW168048   5.870   5.473   3.148 -1.6349 -0.3730 -0.4503
53729SOL    HW268049   5.863   5.416   3.008  0.7195  2.2942 -1.7605
53730SOL     OW68050  11.339  11.054   7.374 -0.6219 -0.1343  0.2013
53730SOL    HW168051  11.375  11.061   7.463  2.6703 -1.2082 -0.9269
53730SOL    HW268052  11.294  11.138   7.360 -0.5107  0.3960  2.5527
53731SOL     OW68053   0.336   7.133   4.205 -0.2351 -0.8391  0.7468
53731SOL    HW168054   0.370   7.216   4.239  1.0813 -1.4800  1.0660
53731SOL    HW268055   0.295   7.156   4.122 -0.1011  0.1636  0.9430
53732SOL     OW68056   8.602  10.187   1.805  0.5056 -0.1934  0.0463
53732SOL    HW168057   8.562  10.266   1.769  1.6421  0.5430  0.3153
53732SOL    HW268058   8.591  10.197   1.900  1.0100 -0.1437  0.1022
53733SOL     OW68059   8.247   5.797   5.153 -0.3161 -0.1039 -0.4951
53733SOL    HW168060   8.212   5.728   5.209 -1.5611  0.6999 -0.2705
53733SOL    HW268061   8.177   5.861   5.145  0.4110  0.5961 -1.6468
53734SOL     OW68062  11.819   6.780  10.460  0.7079  0.1187 -0.5536
53734SOL    HW168063  11.755   6.833  10.412 -1.3847 -1.4179  0.3849
53734SOL    HW268064  11.850   6.716  10.396 -0.9494 -0.9668 -0.3473
53735SOL     OW68065   9.164   4.438   4.072  0.2942  0.0846  0.0768
53735SOL    HW168066   9.247   4.457   4.027  0.5656  0.3099  0.6703
53735SOL    HW268067   9.098   4.446   4.003  0.9499 -2.1655 -0.9122
53736SOL     OW68068   0.075   4.561   3.727 -0.0419  0.2279 -0.3563
53736SOL    HW168069   0.126   4.549   3.647 -0.6724  1.3246 -0.9387
53736SOL    HW268070  -0.011   4.590   3.698 -0.5977 -0.3056  0.6794
53737SOL     OW68071  11.280   6.048   6.601 -0.6082 -0.1350 -0.6237
53737SOL    HW168072  11.369   6.059   6.634  1.0374  0.1399 -4.5585
53737SOL    HW268073  11.241   6.135   6.609 -0.2688 -0.0558  0.3471
53738SOL     OW68074  11.883  10.974   2.210  0.0165 -0.3029  0.0920
53738SOL    HW168075  11.948  10.904   2.215 -0.5954 -1.0076 -1.2501
53738SOL    HW268076  11.801  10.929   2.189 -0.2977  0.8407 -1.3246
53739SOL     OW68077   4.968   1.771   6.630  0.0188  0.3820  0.2472
53739SOL    HW168078   4.921   1.758   6.547  0.4945 -0.8300  0.1450
53739SOL    HW268079   5.042   1.827   6.607 -0.5123  1.0297  0.0971
53740SOL     OW68080  10.144   1.995   8.015 -0.3063 -0.3032 -0.1396
53740SOL    HW168081  10.062   1.994   7.967 -1.1037  0.7926  1.1323
53740SOL    HW268082  10.197   2.062   7.972 -1.2211  1.0545  0.7833
53741SOL     OW68083   5.788   0.929   8.746 -0.5585 -0.3984 -0.9702
53741SOL    HW168084   5.732   0.884   8.683 -0.8670 -1.8905  0.3148
53741SOL    HW268085   5.735   0.933   8.826  0.5886 -0.4283 -0.1929
53742SOL     OW68086   2.822   5.515   7.767  0.7910 -0.2257 -0.4084
53742SOL    HW168087   2.773   5.436   7.792  0.0380 -0.0888 -1.3471
53742SOL    HW268088   2.769   5.554   7.697  1.1510  1.1211  0.0383
53743SOL     OW68089   0.314   9.698   0.582 -0.4422 -0.0643  0.2717
53743SOL    HW168090   0.366   9.766   0.539 -1.2843  0.2252 -0.3233
53743SOL    HW268091   0.371   9.622   0.585 -0.1907  0.0655 -0.9134
53744SOL     OW68092   3.632   2.617   8.272  0.0639 -0.4634  0.0403
53744SOL    HW168093   3.549   2.609   8.320 -0.2925 -1.8885 -0.7600
53744SOL    HW268094   3.641   2.534   8.226  0.8388  0.5079 -1.6576
53745SOL     OW68095  10.599   8.254  12.247  0.5783 -0.4653  0.1346
53745SOL    HW168096  10.554   8.317  12.191  1.2445  0.8247  1.0076
53745SOL    HW268097  10.637   8.307  12.318  1.0511 -1.8586  0.9675
53746SOL     OW68098   3.126   6.413  12.071 -0.0364  0.0847 -0.3417
53746SOL    HW168099   3.107   6.420  12.165 -0.2555  1.6264 -0.4754
53746SOL    HW268100   3.043   6.435  12.028  0.6558  1.7796 -0.8912
53747SOL     OW68101   9.459   7.144   2.048  0.4405 -0.3876  0.0308
53747SOL    HW168102   9.413   7.211   1.997  0.7196 -1.6024 -1.9412
53747SOL    HW268103   9.467   7.070   1.988  0.8242 -1.9250  1.8763
53748SOL     OW68104   8.890   5.662   6.058 -0.1453  0.2435  0.1410
53748SOL    HW168105   8.953   5.619   6.000  0.8885  0.7049  0.9027
53748SOL    HW268106   8.905   5.756   6.045  0.1677  0.3533  1.2237
53749SOL     OW68107   8.369   4.839  10.285 -0.2192 -0.1554  0.2560
53749SOL    HW168108   8.320   4.921  10.285 -2.5466 -1.4248  2.1215
53749SOL    HW268109   8.457   4.864  10.312 -0.3944  1.9041 -0.8698
53750SOL     OW68110   6.383   0.985  10.385 -0.2540  0.1175  0.2754
53750SOL    HW168111   6.422   0.945  10.463 -1.2001  0.7907  1.1163
53750SOL    HW268112   6.322   0.919  10.352 -0.4581  0.1474  0.5869
53751SOL     OW68113   3.870   7.725   8.905  0.3001  0.1408 -0.1224
53751SOL    HW168114   3.880   7.772   8.987 -1.4088 -0.3499  0.4044
53751SOL    HW268115   3.874   7.632   8.930 -3.1904 -0.1023 -0.0671
53752SOL     OW68116  12.236   8.810   0.160  0.0233 -0.3156  0.0263
53752SOL    HW168117  12.264   8.801   0.069  3.0012  0.1378  0.7814
53752SOL    HW268118  12.240   8.721   0.196 -2.8278 -0.7852 -0.6302
53753SOL     OW68119   6.677   7.240   4.809  0.0495  0.2428 -0.0182
53753SOL    HW168120   6.607   7.191   4.851 -0.4617  1.8026  1.0386
53753SOL    HW268121   6.648   7.253   4.719 -0.0948 -0.7974 -0.1312
53754SOL     OW68122   1.981   0.759  11.201  1.0230 -0.1733  0.6130
53754SOL    HW168123   2.026   0.743  11.118 -1.5246  2.5234 -1.5517
53754SOL    HW268124   2.034   0.825  11.245  0.1672  1.8275 -1.1758
53755SOL     OW68125   4.156   4.318   1.103  0.3743 -0.4261 -0.1111
53755SOL    HW168126   4.092   4.284   1.166 -1.3871  0.0190 -1.5777
53755SOL    HW268127   4.182   4.403   1.139 -0.7827 -0.0752 -0.0732
53756SOL     OW68128   2.700   3.940   4.539  0.4334  0.1778  0.1158
53756SOL    HW168129   2.655   3.986   4.469  1.1287 -2.5230 -2.2849
53756SOL    HW268130   2.775   3.898   4.496  1.4065 -0.8929  2.6479
53757SOL     OW68131   3.168   9.223  10.233  0.1713  0.1942  0.0945
53757SOL    HW168132   3.128   9.303  10.198 -0.6456  0.5062  1.6804
53757SOL    HW268133   3.251   9.215  10.185 -1.3495 -0.0511 -2.7391
53758SOL     OW68134  11.963  12.468   4.791 -0.0064  0.4229 -0.0224
53758SOL    HW168135  11.905  12.448   4.718 -1.6833  2.2193  0.7399
53758SOL    HW268136  12.025  12.532   4.755  0.7440 -0.5304 -0.4839
53759SOL     OW68137   1.202   4.225  12.178  0.3304 -0.3975  0.2004
53759SOL    HW168138   1.278   4.169  12.164 -0.1080 -0.7475 -0.9072
53759SOL    HW268139   1.186   4.222  12.272  1.3790 -0.7255  0.3713
53760SOL     OW68140  12.464   2.724   5.985 -0.1138  0.5534 -0.0246
53760SOL    HW168141  12.466   2.628   5.981  2.6527  0.3229  2.9010
53760SOL    HW268142  12.534   2.752   5.926 -0.4746  0.7710 -0.3566
53761SOL     OW68143   2.680   6.396   2.648 -0.1211 -0.0915 -0.1076
53761SOL    HW168144   2.710   6.379   2.737 -1.6346 -0.0874  0.4473
53761SOL    HW268145   2.633   6.480   2.654  2.3381  1.4978 -1.5861
53762SOL     OW68146   9.668   7.061   6.400  0.1571  0.2830  0.2202
53762SOL    HW168147   9.636   7.003   6.330  0.4429 -1.0019  1.1127
53762SOL    HW268148   9.591   7.108   6.430 -0.3383 -0.5588  0.3014
53763SOL     OW68149   1.805   9.144   6.058  0.1283  0.0403  0.0631
53763SOL    HW168150   1.802   9.238   6.039  1.4407 -0.0078 -0.4982
53763SOL    HW268151   1.843   9.139   6.146  0.1698  0.0353  0.0451
53764SOL     OW68152  10.854  11.823  12.223 -0.4243  0.0582 -0.2916
53764SOL    HW168153  10.948  11.822  12.243 -0.3975 -1.6286 -0.3869
53764SOL    HW268154  10.815  11.869  12.298  0.6104  2.4313 -1.1200
53765SOL     OW68155   2.322   4.991   4.353  0.0683 -0.1380 -0.2052
53765SOL    HW168156   2.228   5.006   4.358  0.2784  1.2768 -0.1595
53765SOL    HW268157   2.330   4.898   4.330 -1.3665  0.1452 -2.1019
53766SOL     OW68158   9.551   7.609   8.148  0.4701  0.1927 -0.0600
53766SOL    HW168159   9.482   7.601   8.214  2.1982 -2.1454  1.6397
53766SOL    HW268160   9.541   7.531   8.093  1.4634  0.0309 -0.0401
53767SOL     OW68161   7.175   0.783   0.870 -0.2554 -0.2830 -0.0131
53767SOL    HW168162   7.184   0.736   0.954  2.0052 -1.4426 -0.8174
53767SOL    HW268163   7.163   0.713   0.806  2.5515  0.1802 -1.1683
53768SOL     OW68164   5.895   5.016   5.562  0.4261 -0.0595 -0.2865
53768SOL    HW168165   5.931   5.087   5.616 -1.0707  0.1424  0.4908
53768SOL    HW268166   5.801   5.023   5.573  0.2014 -1.5072 -1.0702
53769SOL     OW68167   9.290   2.834   9.202 -0.2001 -0.1357 -0.7223
53769SOL    HW168168   9.366   2.840   9.144 -1.3030 -0.4751 -2.2478
53769SOL    HW268169   9.315   2.767   9.266  0.7846 -0.2413 -1.1906
53770SOL     OW68170  12.170   5.709   1.828  0.8507 -0.4071 -0.2049
53770SOL    HW168171  12.143   5.799   1.811 -0.5092 -0.6321  0.5914
53770SOL    HW268172  12.249   5.717   1.881  0.8999  0.3006 -0.3690
53771SOL     OW68173   7.410   0.460   9.173 -0.9315  0.2999  0.1594
53771SOL    HW168174   7.370   0.373   9.165 -3.5593  1.4522 -0.0170
53771SOL    HW268175   7.481   0.460   9.108 -1.8380 -1.2126 -0.8882
53772SOL     OW68176   1.040  11.714   1.426 -0.1995  0.0554 -0.2282
53772SOL    HW168177   0.995  11.791   1.462  1.2651  1.8655 -2.0254
53772SOL    HW268178   1.124  11.713   1.472 -0.0326 -0.1885 -0.5405
53773SOL     OW68179   0.886   3.237   3.717 -0.6580 -0.4395  0.5501
53773SOL    HW168180   0.899   3.151   3.757  0.7896 -0.6852 -0.3753
53773SOL    HW268181   0.865   3.218   3.625  0.4544  0.1820  0.1441
53774SOL     OW68182  11.322   4.293   9.709  0.3177  0.2412  0.7972
53774SOL    HW168183  11.350   4.219   9.655  0.8013  0.8894  0.1139
53774SOL    HW268184  11.378   4.366   9.679  0.4881  0.6619  2.0771
53775SOL     OW68185   2.057   0.303  10.037  0.6359 -0.1177 -0.1933
53775SOL    HW168186   2.102   0.309   9.953  1.0864 -0.9045 -0.0151
53775SOL    HW268187   2.008   0.221  10.031  0.2929  0.0649  0.1323
53776SOL     OW68188   7.681   2.524  10.130 -0.1629 -0.3892  0.0170
53776SOL    HW168189   7.769   2.522  10.169 -0.0307  0.4515 -0.2271
53776SOL    HW268190   7.631   2.584  10.186 -0.4630 -0.5269 -0.0995
53777SOL     OW68191   4.125   5.050   6.991  0.0349 -0.3072 -0.0484
53777SOL    HW168192   4.088   4.992   7.057  0.6891  0.3928  0.9685
53777SOL    HW268193   4.219   5.034   6.995  0.1834  0.5341 -0.0247
53778SOL     OW68194  11.205   4.019  11.660  0.0652  0.0587 -0.0091
53778SOL    HW168195  11.115   4.010  11.693 -0.5060  0.5419 -1.3591
53778SOL    HW268196  11.248   4.077  11.723 -0.6766  0.1172  0.4560
53779SOL     OW68197   5.522   2.116   2.838 -0.3260  0.2816 -0.5834
53779SOL    HW168198   5.541   2.151   2.751  0.4036  1.4090 -0.0127
53779SOL    HW268199   5.508   2.194   2.892 -1.9763 -0.4275  0.0641
53780SOL     OW68200  12.101   5.751   7.390 -0.3631  0.1974 -0.3847
53780SOL    HW168201  12.054   5.771   7.471 -1.2394 -0.7132 -0.6668
53780SOL    HW268202  12.052   5.797   7.322 -0.9880 -0.9134 -0.7055
53781SOL     OW68203   5.920   9.357  11.649  0.2103 -0.1777  0.2643
53781SOL    HW168204   5.997   9.319  11.692  1.2591 -0.2192 -1.5786
53781SOL    HW268205   5.934   9.452  11.656  0.2533 -0.1804  0.2160
53782SOL     OW68206   0.126   8.204   8.436  0.0822 -0.2383 -0.1902
53782SOL    HW168207   0.205   8.181   8.387  0.0093  0.6005 -0.7239
53782SOL    HW268208   0.065   8.236   8.370 -0.4685 -0.2673  0.3000
53783SOL     OW68209   4.294   4.189   8.554  0.4766  0.0144  0.0216
53783SOL    HW168210   4.224   4.138   8.595  1.0597  0.6315  1.8717
53783SOL    HW268211   4.249   4.265   8.517 -0.1040 -0.7114 -0.8146
53784SOL     OW68212   6.955   7.512   6.004  0.2986  0.5710 -0.0480
53784SOL    HW168213   7.000   7.429   6.016  0.0099  0.3995 -0.1292
53784SOL    HW268214   6.968   7.534   5.912 -1.3109 -0.4044 -0.5586
53785SOL     OW68215   5.756   5.394  11.715 -0.6292  0.1288  0.1364
53785SOL    HW168216   5.788   5.313  11.676  2.2443  1.3515 -0.3204
53785SOL    HW268217   5.766   5.460  11.647 -0.9321  1.2558  1.1376
53786SOL     OW68218   6.606   2.288   0.762 -0.6076 -0.0289 -0.3912
53786SOL    HW168219   6.632   2.349   0.830 -0.2645 -1.3830  0.7201
53786SOL    HW268220   6.525   2.326   0.726  0.3026  1.7546 -0.6737
53787SOL     OW68221   3.422   7.847   3.135 -0.3011 -0.2044 -0.0200
53787SOL    HW168222   3.404   7.882   3.222 -0.3776 -1.0529  0.3086
53787SOL    HW268223   3.340   7.804   3.108 -0.0890 -0.4702 -0.2516
53788SOL     OW68224   8.479   4.721   6.693  0.0662  0.4201  0.2808
53788SOL    HW168225   8.423   4.799   6.688  0.0325  0.3620 -0.3979
53788SOL    HW268226   8.477   4.696   6.785  0.3657  1.4280  0.5712
53789SOL     OW68227   0.783   4.892   7.045 -0.0049 -0.0441  0.7097
53789SOL    HW168228   0.693   4.871   7.069 -0.6354  1.8345  0.1966
53789SOL    HW268229   0.828   4.903   7.129 -0.6150  0.3297  0.9979
53790SOL     OW68230   2.717   2.963   8.240 -0.4288 -0.3572  0.3714
53790SOL    HW168231   2.654   2.983   8.172 -0.4955  0.0201  0.5402
53790SOL    HW268232   2.801   2.992   8.205  0.1046 -3.0768 -0.8860
53791SOL     OW68233   7.204   2.288   2.147 -0.0277 -0.0656  0.2692
53791SOL    HW168234   7.262   2.278   2.072 -0.0315 -2.3023  0.5071
53791SOL    HW268235   7.130   2.230   2.129  0.2438 -1.0831  2.2341
53792SOL     OW68236   4.512   4.928  10.498 -0.1481 -0.4975 -0.1871
53792SOL    HW168237   4.457   4.984  10.443 -0.8712 -0.0762  0.9248
53792SOL    HW268238   4.494   4.957  10.588  1.2734 -0.9157  0.2670
53793SOL     OW68239  11.302   0.373   7.786  0.0298 -0.4104  0.3919
53793SOL    HW168240  11.329   0.289   7.823  1.3034 -0.1701  0.0743
53793SOL    HW268241  11.226   0.352   7.731  1.8165 -1.8276 -1.7172
53794SOL     OW68242   3.307   2.237   0.266  0.3125 -0.6669  0.5983
53794SOL    HW168243   3.297   2.330   0.246  2.6539 -0.4676  0.0874
53794SOL    HW268244   3.290   2.231   0.360 -3.2298 -0.3804  0.1372
53795SOL     OW68245   3.261   0.339   0.211  0.0226 -0.5503  0.5625
53795SOL    HW168246   3.177   0.294   0.205  0.2351 -0.9171  0.3491
53795SOL    HW268247   3.327   0.271   0.194  0.3418 -0.1494  0.1846
53796SOL     OW68248   9.252   1.244   3.101  0.4606  0.1328 -0.2324
53796SOL    HW168249   9.324   1.292   3.142  2.3308 -1.6533 -1.2400
53796SOL    HW268250   9.264   1.257   3.007 -1.5177  1.0564 -0.4261
53797SOL     OW68251   8.410   8.120  10.948 -0.4043  0.1267 -0.4186
53797SOL    HW168252   8.336   8.059  10.945  0.3334 -0.9453  1.2158
53797SOL    HW268253   8.486   8.066  10.927  0.1464  0.7188  0.0298
53798SOL     OW68254   2.027   4.247  11.695  0.0521  0.4045 -0.1289
53798SOL    HW168255   1.990   4.243  11.783 -0.4829 -0.0602 -0.3753
53798SOL    HW268256   2.099   4.310  11.703  0.7248 -0.4633  0.8970
53799SOL     OW68257   9.954   1.099  12.481 -0.1192  0.1576 -0.4073
53799SOL    HW168258   9.935   1.187  12.514  3.1730  0.9052 -0.1779
53799SOL    HW268259   9.894   1.087  12.407 -1.6266  1.9489  0.4360
53800SOL     OW68260   4.356   5.198   8.925 -0.5732  0.3853  0.4699
53800SOL    HW168261   4.365   5.290   8.899  1.1123  0.3823  0.9122
53800SOL    HW268262   4.407   5.150   8.859 -1.4045 -0.2521  0.2690
53801SOL     OW68263   5.633   3.603   7.641 -0.8894  0.6201 -0.1297
53801SOL    HW168264   5.657   3.552   7.718  0.8848 -0.6728 -1.4602
53801SOL    HW268265   5.622   3.692   7.673  4.2587  1.1367  1.0746
53802SOL     OW68266   0.180   7.522   7.238  0.8664  0.1019 -0.6571
53802SOL    HW168267   0.255   7.498   7.184  1.4601  2.3087 -0.9059
53802SOL    HW268268   0.112   7.547   7.175  0.2764 -0.8262 -0.4124
53803SOL     OW68269   0.795   3.607   9.333  0.3521  0.0699 -0.0262
53803SOL    HW168270   0.836   3.573   9.413 -2.0931  1.0779  1.8093
53803SOL    HW268271   0.825   3.698   9.328 -0.0383  0.2109  0.1565
53804SOL     OW68272   6.759   4.361   5.084 -1.0150  0.2127 -0.0460
53804SOL    HW168273   6.727   4.273   5.070 -1.7600  0.5195 -0.3154
53804SOL    HW268274   6.739   4.408   5.003  1.1070  0.1460 -0.6811
53805SOL     OW68275   7.979  10.634   5.561 -0.1085 -0.4033  0.4886
53805SOL    HW168276   7.978  10.544   5.594 -1.4212 -0.4736  0.3234
53805SOL    HW268277   7.989  10.688   5.639 -0.9566 -0.6518  0.7913
53806SOL     OW68278   0.395  11.120   9.271 -0.4833  0.3293 -0.0323
53806SOL    HW168279   0.422  11.157   9.186 -1.5025 -0.5203 -0.7525
53806SOL    HW268280   0.468  11.064   9.296 -0.6741 -0.3554 -0.9536
53807SOL     OW68281   3.217   0.854   3.009 -0.1976 -0.1631 -0.0606
53807SOL    HW168282   3.309   0.878   3.015 -0.1685  1.0068 -3.3185
53807SOL    HW268283   3.175   0.931   2.970 -2.3475 -1.1315  0.2022
53808SOL     OW68284   8.223   3.491   9.652  0.8535 -0.0754 -0.2161
53808SOL    HW168285   8.204   3.470   9.743  1.1412 -2.7342 -0.6927
53808SOL    HW268286   8.253   3.582   9.654  0.7072 -0.0194  2.3071
53809SOL     OW68287   0.188  11.621   0.283  0.1891 -0.1135  0.0216
53809SOL    HW168288   0.116  11.671   0.245  0.1456  0.1004  0.3855
53809SOL    HW268289   0.151  11.582   0.362  0.2782 -0.5669 -0.1528
53810SOL     OW68290   3.534   5.964   1.822 -0.2351 -0.5412 -0.0408
53810SOL    HW168291   3.475   6.031   1.858 -1.2621 -1.9131  0.9366
53810SOL    HW268292   3.513   5.963   1.728 -2.2207 -1.3508  0.3507
53811SOL     OW68293   4.129   3.688   0.146  0.3673  0.1380  0.4276
53811SOL    HW168294   4.101   3.612   0.196 -0.2332  0.3901  0.4823
53811SOL    HW268295   4.084   3.680   0.062 -0.3952  0.8705  0.7442
53812SOL     OW68296   7.467   9.822   6.120  0.7416 -1.0657  0.0145
53812SOL    HW168297   7.387   9.798   6.073  0.6768  0.5537 -0.7601
53812SOL    HW268298   7.443   9.897   6.174  1.7747 -0.4057 -0.4003
53813SOL     OW68299   0.273   3.552  10.923  0.3148  0.2146 -0.0788
53813SOL    HW168300   0.298   3.516  11.008 -2.1147  0.0759  0.6798
53813SOL    HW268301   0.346   3.532  10.865  1.0707 -1.7160  1.4456
53814SOL     OW68302   9.672   4.246  12.279  0.0535  0.0953 -0.5617
53814SOL    HW168303   9.666   4.332  12.319  0.7736  0.2946 -0.8615
53814SOL    HW268304   9.589   4.203  12.300  0.2717  0.3139  0.8479
53815SOL     OW68305   8.495   0.749   9.252 -0.1524  0.1848 -0.1212
53815SOL    HW168306   8.403   0.764   9.272  0.0700  1.3378  0.1115
53815SOL    HW268307   8.499   0.742   9.157 -0.7307 -1.8748 -0.0594
53816SOL     OW68308  10.393   1.772  11.489 -0.0577  0.1950  0.2720
53816SOL    HW168309  10.321   1.802  11.544  0.1911 -0.6779  1.1056
53816SOL    HW268310  10.423   1.691  11.530  0.9266  0.1537 -0.4716
53817SOL     OW68311   6.169   9.179  11.160  0.2182  0.4225 -0.0589
53817SOL    HW168312   6.178   9.100  11.107  0.9555 -0.2936  1.0942
53817SOL    HW268313   6.093   9.224  11.124 -0.0634 -0.6843 -0.8873
53818SOL     OW68314   3.109   3.803   6.618  0.0073  0.2282  0.0587
53818SOL    HW168315   3.119   3.708   6.616  1.6866  0.2351  2.7430
53818SOL    HW268316   3.038   3.821   6.557  0.1059 -2.6623 -1.0648
53819SOL     OW68317  11.756   6.197   1.059 -0.0341  0.2051 -0.0646
53819SOL    HW168318  11.725   6.182   0.970 -1.9123  0.3002  0.5444
53819SOL    HW268319  11.784   6.289   1.059 -0.9364  0.4924 -0.3210
53820SOL     OW68320  11.534  11.123   8.460 -0.2344 -0.3817  0.5297
53820SOL    HW168321  11.572  11.169   8.535  3.2949 -0.6610 -0.8861
53820SOL    HW268322  11.607  11.115   8.398 -2.4102 -2.1462 -2.0018
53821SOL     OW68323  10.866   1.241   4.936  0.1768  0.0224 -0.3283
53821SOL    HW168324  10.771   1.236   4.921  0.1106 -1.2537  0.3589
53821SOL    HW268325  10.890   1.153   4.962  1.8104 -0.0076 -1.7932
53822SOL     OW68326   5.196   4.846   3.731 -0.1254  0.2228 -0.1600
53822SOL    HW168327   5.152   4.818   3.811  0.8185 -0.1982  0.2329
53822SOL    HW268328   5.241   4.767   3.699  0.7547  0.7466 -0.2536
53823SOL     OW68329   6.321   3.395  11.859  0.2704 -0.0455  0.0580
53823SOL    HW168330   6.343   3.361  11.946  1.5451 -0.8875 -0.5698
53823SOL    HW268331   6.395   3.451  11.836 -0.9059  1.6942  0.2557
53824SOL     OW68332  12.159   7.322   9.548  0.2899 -0.0627  0.7782
53824SOL    HW168333  12.181   7.343   9.639 -1.0326 -2.0097  1.6313
53824SOL    HW268334  12.233   7.268   9.518  1.5117  1.8946  0.0904
53825SOL     OW68335   7.970   3.699   8.268  0.2611 -0.3672 -0.0567
53825SOL    HW168336   8.031   3.700   8.195  0.7976 -0.3581  0.3829
53825SOL    HW268337   7.965   3.790   8.296 -1.0736 -0.1298 -0.9929
53826SOL     OW68338   1.377   1.262   3.036  0.3106  0.1041 -1.1323
53826SOL    HW168339   1.410   1.217   2.958  2.2060 -0.9233  0.1883
53826SOL    HW268340   1.310   1.203   3.071  2.4142 -1.5751  0.2951
53827SOL     OW68341   3.222   3.269   4.170 -0.3672 -0.1883 -0.3412
53827SOL    HW168342   3.135   3.265   4.209  0.1526  1.0452  1.0265
53827SOL    HW268343   3.209   3.311   4.085 -0.8660  2.0541  0.7748
53828SOL     OW68344   8.060  10.479   3.068 -0.4735 -0.1067 -0.3367
53828SOL    HW168345   8.122  10.516   3.130  0.2262 -0.8612 -0.5743
53828SOL    HW268346   8.110  10.415   3.018 -1.1460  0.1493 -1.3691
53829SOL     OW68347   0.226  10.331  11.810 -0.0275 -0.3888 -0.4635
53829SOL    HW168348   0.308  10.286  11.834 -0.6865 -2.0895 -1.2195
53829SOL    HW268349   0.251  10.423  11.800  1.5223 -0.6542  0.5580
53830SOL     OW68350   4.767   5.952   0.922  0.1659 -0.2399  0.3680
53830SOL    HW168351   4.694   5.949   0.861 -1.6406 -0.4806  2.4134
53830SOL    HW268352   4.829   5.887   0.889 -0.2434  0.3818 -1.7382
53831SOL     OW68353   9.231   0.551   8.781 -0.4796 -0.5807  0.6733
53831SOL    HW168354   9.281   0.491   8.836 -0.0667 -0.2143  0.7089
53831SOL    HW268355   9.190   0.495   8.715  0.1331 -0.8738  0.5277
53832SOL     OW68356   8.099   3.023   4.139  0.0031 -0.4202  0.0470
53832SOL    HW168357   8.010   3.049   4.159 -1.2504 -4.2927  0.3288
53832SOL    HW268358   8.101   3.015   4.043  0.4221  0.6072 -0.0497
53833SOL     OW68359   5.776  10.850  10.028  0.1309 -0.3339 -0.0516
53833SOL    HW168360   5.757  10.942  10.046  0.5174  0.1513 -1.8975
53833SOL    HW268361   5.698  10.819   9.981 -0.0273 -0.9776  0.6265
53834SOL     OW68362  11.046   4.355   3.003 -0.0584 -0.4213  0.0668
53834SOL    HW168363  11.110   4.313   3.061  0.4909  0.0722 -0.1628
53834SOL    HW268364  11.006   4.423   3.057  1.1141  0.6567 -0.3661
53835SOL     OW68365   1.996   7.254   5.765  0.2825  0.2218  0.2418
53835SOL    HW168366   1.973   7.344   5.788  1.6850  0.8061 -0.5343
53835SOL    HW268367   2.054   7.263   5.689  2.1695 -1.1915  1.4304
53836SOL     OW68368   8.613   8.856  11.998 -0.7171 -0.6091  0.0712
53836SOL    HW168369   8.631   8.765  12.021 -1.2667 -0.8204 -0.3135
53836SOL    HW268370   8.621   8.904  12.080  1.9409 -0.6089 -0.0882
53837SOL     OW68371   9.287   4.663   4.640 -0.1883 -0.2058  0.0094
53837SOL    HW168372   9.289   4.654   4.545  1.8283  1.6409 -0.1870
53837SOL    HW268373   9.229   4.738   4.656  1.5612  1.2024  0.0023
53838SOL     OW68374   0.915   2.681  10.691  0.2079 -0.2535 -0.3778
53838SOL    HW168375   0.908   2.627  10.613 -0.3217 -1.1356  0.2592
53838SOL    HW268376   0.929   2.618  10.762 -0.6900  0.4215  0.4120
53839SOL     OW68377  10.290  10.293   3.953 -0.0252  0.2970  0.7228
53839SOL    HW168378  10.273  10.238   3.876  0.8430  0.5653  0.3185
53839SOL    HW268379  10.213  10.349   3.960 -0.0256  0.4179 -0.0994
53840SOL     OW68380   7.015  10.608   8.231  0.5436 -0.1186 -0.1480
53840SOL    HW168381   6.937  10.657   8.206  0.9527  0.3532 -0.5142
53840SOL    HW268382   6.989  10.516   8.223 -0.1485  0.0268  0.3028
53841SOL     OW68383   7.040   2.717   5.354 -0.2914 -0.6218  0.1517
53841SOL    HW168384   7.111   2.771   5.390  0.8747 -0.9198 -1.5581
53841SOL    HW268385   6.974   2.715   5.423  0.8753  0.6058  1.3756
53842SOL     OW68386   9.400  11.945   9.639 -0.3158  0.1109 -0.3559
53842SOL    HW168387   9.426  12.028   9.679  2.6909 -1.0817  0.3786
53842SOL    HW268388   9.354  11.898   9.709  0.4158  0.0747  0.1048
53843SOL     OW68389  11.350   1.320   4.799 -0.4797  0.2618 -0.1283
53843SOL    HW168390  11.417   1.388   4.802 -2.7123  2.7337 -1.5836
53843SOL    HW268391  11.340   1.301   4.705 -2.1323  0.3718 -0.0069
53844SOL     OW68392   2.819   1.473  12.149 -0.3060 -0.1868  0.0260
53844SOL    HW168393   2.818   1.561  12.187  1.8580 -0.6002  1.1924
53844SOL    HW268394   2.869   1.482  12.068  1.3207 -0.5626  0.9363
53845SOL     OW68395   9.661  11.861   7.424  0.0467 -0.0223  0.2055
53845SOL    HW168396   9.740  11.811   7.403  1.3325  0.3791  3.5200
53845SOL    HW268397   9.611  11.803   7.482 -0.3640  1.0120  0.9203
53846SOL     OW68398   7.384   1.846   3.043  0.0735 -0.0948  0.2871
53846SOL    HW168399   7.452   1.782   3.060 -0.3758 -0.4659  0.7268
53846SOL    HW268400   7.316   1.798   2.995 -1.4493 -0.6827  2.8405
53847SOL     OW68401   7.378   8.928  11.149 -0.3484 -0.1903  0.0814
53847SOL    HW168402   7.357   8.960  11.061 -0.5623  0.0785  0.2306
53847SOL    HW268403   7.438   8.855  11.133 -0.5462 -0.2761 -0.2959
53848SOL     OW68404   4.460   0.481  12.424  0.4321  0.2533  0.0513
53848SOL    HW168405   4.484   0.401  12.471 -0.0963  0.6041  0.9274
53848SOL    HW268406   4.511   0.476  12.342  2.4365  0.2884  1.2294
53849SOL     OW68407   3.043   8.450  12.411  0.0322  0.5658  0.5050
53849SOL    HW168408   3.133   8.474  12.435  0.5371 -1.5997  1.0580
53849SOL    HW268409   2.993   8.460  12.493 -0.0717  1.0811  0.3789
53850SOL     OW68410   7.544  11.937   6.548  0.0008 -0.2628 -0.6164
53850SOL    HW168411   7.457  11.963   6.578  0.4752 -2.3661  3.4462
53850SOL    HW268412   7.604  11.984   6.606  1.3265 -1.6754 -0.7720
53851SOL     OW68413   3.641   6.786   5.660  0.6870 -0.8246  0.4922
53851SOL    HW168414   3.693   6.743   5.591  1.4346  1.1150 -0.2277
53851SOL    HW268415   3.552   6.757   5.644  1.2238 -2.6472  0.5059
53852SOL     OW68416  10.499   6.227   5.344 -0.6243 -0.0022  0.1992
53852SOL    HW168417  10.520   6.274   5.424 -0.8815  1.4876 -0.5770
53852SOL    HW268418  10.405   6.209   5.351 -0.7955  0.7526 -0.0691
53853SOL     OW68419   4.481   0.443  10.589 -0.3280  0.2122  0.0524
53853SOL    HW168420   4.412   0.485  10.640  0.8963  1.6411  0.6004
53853SOL    HW268421   4.487   0.495  10.509  2.2295  2.2109  1.3848
53854SOL     OW68422   3.256  12.304   0.770  0.0920 -0.3283 -0.0735
53854SOL    HW168423   3.278  12.383   0.819  1.5448 -0.3309 -0.6783
53854SOL    HW268424   3.297  12.317   0.685 -0.3833 -1.3702 -0.4753
53855SOL     OW68425   6.269   5.086  10.104 -0.2119  0.0715  0.2962
53855SOL    HW168426   6.217   5.149  10.154 -1.0606 -2.2240  2.5340
53855SOL    HW268427   6.211   5.058  10.032 -1.1360 -0.5322  1.2406
53856SOL     OW68428  10.341   8.328   6.894  0.4954 -0.3115 -0.6170
53856SOL    HW168429  10.346   8.418   6.863 -0.0807  0.1803  0.6632
53856SOL    HW268430  10.304   8.280   6.820  0.1170  0.6339 -1.0625
53857SOL     OW68431   5.444   5.294   4.462  0.1948 -0.7761 -0.0075
53857SOL    HW168432   5.463   5.301   4.368 -0.4165  0.2653 -0.0641
53857SOL    HW268433   5.402   5.209   4.471 -0.9225 -0.3406 -0.8974
53858SOL     OW68434   4.511   6.329   7.419 -0.0499  0.5559 -0.2152
53858SOL    HW168435   4.565   6.372   7.485 -0.9920  2.0007 -0.3267
53858SOL    HW268436   4.556   6.345   7.337 -0.9173  2.3585 -0.3960
53859SOL     OW68437   3.761   6.872  10.462  0.1645 -0.1660  0.5421
53859SOL    HW168438   3.757   6.966  10.443  1.5113 -0.3632 -1.0020
53859SOL    HW268439   3.810   6.866  10.543 -0.1222  0.4758  0.7682
53860SOL     OW68440   8.127   4.618   5.331  0.0738  0.3268  0.2466
53860SOL    HW168441   8.055   4.607   5.269  0.6020 -1.2730 -0.1289
53860SOL    HW268442   8.164   4.531   5.341  0.0584  0.5254  2.7960
53861SOL     OW68443  10.232   3.004   8.468 -0.2069 -0.0474 -0.2907
53861SOL    HW168444  10.292   3.060   8.517  0.0702 -0.9704  0.4649
53861SOL    HW268445  10.146   3.041   8.484  0.1213  1.2096 -1.2652
53862SOL     OW68446   6.424   1.483   4.483 -1.2272  0.1322 -0.4646
53862SOL    HW168447   6.466   1.408   4.524 -1.6763  0.7439  1.1982
53862SOL    HW268448   6.361   1.514   4.548 -1.3411  1.6937 -1.2684
53863SOL     OW68449   4.392   7.583   8.419  0.2112 -0.0552  0.6993
53863SOL    HW168450   4.335   7.525   8.369  0.0692 -0.2658  1.1018
53863SOL    HW268451   4.470   7.530   8.438  1.1824  0.6605 -1.0457
53864SOL     OW68452   8.550   8.806   1.790  0.2803 -0.2859  0.5888
53864SOL    HW168453   8.538   8.727   1.738  0.4078 -1.1025  1.7534
53864SOL    HW268454   8.568   8.774   1.878 -0.0201  1.0536  1.1629
53865SOL     OW68455   1.550   6.801   8.819 -0.1491  0.0998  0.4349
53865SOL    HW168456   1.522   6.865   8.754 -1.2566 -1.0904 -0.2968
53865SOL    HW268457   1.470   6.757   8.846  0.5794 -0.9769  0.9261
53866SOL     OW68458  12.022   5.550   6.755 -0.1925 -0.3705  0.2123
53866SOL    HW168459  12.094   5.487   6.765  0.2820  0.0567 -0.4263
53866SOL    HW268460  12.060   5.633   6.782 -0.2619 -0.0371 -0.6710
53867SOL     OW68461   9.652   4.362   0.792 -0.3376  0.6902 -0.5995
53867SOL    HW168462   9.625   4.397   0.707  0.9688 -0.8471 -1.7107
53867SOL    HW268463   9.748   4.357   0.786 -0.2057  0.7554  1.0676
53868SOL     OW68464   2.289   5.438   9.488 -0.4200  0.1609  0.1389
53868SOL    HW168465   2.385   5.441   9.493 -0.3860  1.1293 -0.8762
53868SOL    HW268466   2.268   5.345   9.480  0.4329 -0.0487  0.2833
53869SOL     OW68467   6.891   6.015   1.404  0.0419 -0.4239  0.5124
53869SOL    HW168468   6.945   5.945   1.442  1.5444  0.3962 -0.0274
53869SOL    HW268469   6.927   6.029   1.317 -1.1309  0.0934  0.0869
53870SOL     OW68470   1.809   0.815   0.383  1.0676 -0.2890 -0.1935
53870SOL    HW168471   1.771   0.800   0.297 -1.5000  0.2335  0.7784
53870SOL    HW268472   1.750   0.771   0.444  1.4670  1.3750  1.4885
53871SOL     OW68473  12.129   9.867   2.899  0.5866 -0.0831 -0.3798
53871SOL    HW168474  12.130   9.787   2.951 -0.9328 -0.7386 -1.2730
53871SOL    HW268475  12.161   9.840   2.813 -1.1556 -0.0918 -1.0778
53872SOL     OW68476   2.886   8.433  11.146 -0.2084 -0.0115 -0.6102
53872SOL    HW168477   2.867   8.509  11.091 -0.6144 -1.2218 -2.2360
53872SOL    HW268478   2.802   8.411  11.186 -0.6295 -0.9156 -1.9257
53873SOL     OW68479  10.873   0.184   9.230  0.2792 -0.2374 -0.0540
53873SOL    HW168480  10.848   0.103   9.274  0.5824 -0.4136 -0.2102
53873SOL    HW268481  10.881   0.248   9.300  0.1783 -0.3741  0.0826
53874SOL     OW68482   1.115   0.469  12.236  0.0249 -0.4828  0.3718
53874SOL    HW168483   1.060   0.405  12.190 -0.0247 -0.5731  0.5565
53874SOL    HW268484   1.086   0.553  12.201 -0.4367 -0.5111  0.6785
53875SOL     OW68485   1.387   8.019  10.981 -0.6794  0.0617 -0.2686
53875SOL    HW168486   1.331   8.092  11.008 -2.6048 -1.5205  0.2765
53875SOL    HW268487   1.404   7.971  11.062  1.8918  0.6796 -0.3409
53876SOL     OW68488   8.559  11.510   1.306 -0.1076 -0.8020  0.5610
53876SOL    HW168489   8.617  11.497   1.231 -1.4960 -1.1500 -0.4969
53876SOL    HW268490   8.472  11.518   1.268 -0.7878 -0.4461  2.1113
53877SOL     OW68491   8.725   9.433   9.364  0.1783 -0.1720  0.0958
53877SOL    HW168492   8.761   9.423   9.276 -1.1424 -0.6816 -0.4065
53877SOL    HW268493   8.634   9.460   9.350 -0.1908 -0.7244  1.3034
53878SOL     OW68494  10.921  11.094  11.421  0.5838 -0.1923 -0.2628
53878SOL    HW168495  10.920  10.999  11.434 -0.6748 -0.2414 -0.5823
53878SOL    HW268496  10.829  11.118  11.413  0.8819  1.0768 -0.1035
53879SOL     OW68497  12.008   3.145   5.797  0.2405 -0.0476 -0.4303
53879SOL    HW168498  12.042   3.092   5.724 -0.0131 -0.8250  0.0032
53879SOL    HW268499  12.019   3.235   5.768  2.9814 -0.2220 -0.1921
53880SOL     OW68500  10.249   0.509   9.517  0.1243 -0.6739 -0.3858
53880SOL    HW168501  10.270   0.588   9.468  0.5829  0.1937  1.1294
53880SOL    HW268502  10.178   0.535   9.576  1.1526 -0.9999  1.0483
53881SOL     OW68503   9.273   5.057  11.825  0.3145  0.2005  0.2051
53881SOL    HW168504   9.186   5.066  11.862  0.6050  0.2732  0.8813
53881SOL    HW268505   9.289   5.140  11.780  0.4004  0.5441  0.8643
53882SOL     OW68506  10.707   9.129   8.805  0.3537  0.7898  0.3895
53882SOL    HW168507  10.771   9.193   8.773  0.9219  0.2200  0.3848
53882SOL    HW268508  10.725   9.122   8.899  0.7954  0.0772  0.2590
53883SOL     OW68509   4.101  12.093   0.880 -0.2385  0.1363  0.1394
53883SOL    HW168510   4.144  12.012   0.908 -1.2605 -0.8153 -0.9391
53883SOL    HW268511   4.011  12.085   0.910 -0.5678  0.4804 -0.7215
53884SOL     OW68512   1.138   0.811   3.515 -0.0807  0.0561 -0.0503
53884SOL    HW168513   1.143   0.799   3.610 -0.5839 -1.3592 -0.1801
53884SOL    HW268514   1.105   0.900   3.504  1.0229  0.6358  1.0735
53885SOL     OW68515   0.566   1.075   3.035  0.2450  0.2355 -0.0495
53885SOL    HW168516   0.535   1.137   2.968 -1.1023  0.1656  0.4780
53885SOL    HW268517   0.487   1.053   3.085  1.0170 -0.6379  0.8100
53886SOL     OW68518   0.180   0.102  11.326  0.2348  0.0671  0.1579
53886SOL    HW168519   0.233   0.036  11.281 -3.2513 -1.6307 -1.9315
53886SOL    HW268520   0.134   0.053  11.394  0.6699  1.2943  1.3817
53887SOL     OW68521  12.142  11.293   5.689  0.0833  0.1905 -0.0394
53887SOL    HW168522  12.052  11.274   5.662 -0.0176  0.5060  0.0789
53887SOL    HW268523  12.189  11.211   5.673 -0.0684  0.2384 -0.7682
53888SOL     OW68524   5.459   0.737  10.525 -0.0060 -0.4282  0.4985
53888SOL    HW168525   5.499   0.701  10.604  0.1078 -0.5544  0.3821
53888SOL    HW268526   5.509   0.817  10.507  0.1159 -0.5221  0.4213
53889SOL     OW68527  12.218   0.654   2.483  0.7228  0.0926 -0.1139
53889SOL    HW168528  12.122   0.659   2.489  0.5524 -1.3002 -1.0947
53889SOL    HW268529  12.249   0.688   2.567 -0.7576 -1.6041  1.2112
53890SOL     OW68530  12.384   2.595   9.336  0.5112  0.8495  0.0825
53890SOL    HW168531  12.328   2.597   9.258  0.9545  2.4955 -0.2214
53890SOL    HW268532  12.435   2.675   9.331  0.9431  0.7131  1.7990
53891SOL     OW68533   5.596  11.361   0.858  0.3964  0.5589 -0.3634
53891SOL    HW168534   5.613  11.363   0.952 -0.0655 -1.1176 -0.2152
53891SOL    HW268535   5.627  11.275   0.830 -1.9249 -0.0616 -1.2365
53892SOL     OW68536   7.864   0.623  10.724  0.5152 -0.1897  0.5562
53892SOL    HW168537   7.790   0.610  10.664  0.7327 -1.6909  0.5713
53892SOL    HW268538   7.833   0.588  10.808  0.8783  0.1576  0.8386
53893SOL     OW68539   2.998   1.953  12.007 -0.1222  0.4526 -0.5464
53893SOL    HW168540   3.011   2.046  11.989  0.6001  0.8693  1.7522
53893SOL    HW268541   2.903   1.942  12.013 -0.1835  1.3865  0.5614
53894SOL     OW68542   3.746   3.277   7.304  0.1751 -0.6516  0.1033
53894SOL    HW168543   3.672   3.217   7.317 -0.5027  0.3531  1.0239
53894SOL    HW268544   3.727   3.351   7.361 -0.0080  1.3900 -2.4134
53895SOL     OW68545   7.881   3.943   5.990 -0.3797 -0.3766 -0.0914
53895SOL    HW168546   7.949   3.999   6.029  1.9347 -2.7040 -0.5143
53895SOL    HW268547   7.817   3.930   6.060 -1.3152  3.0365 -0.0958
53896SOL     OW68548   5.545   1.648  11.682 -0.0057  0.0790  0.3646
53896SOL    HW168549   5.523   1.607  11.766  0.7898 -0.3056  0.3956
53896SOL    HW268550   5.490   1.603  11.619  1.2130 -1.4610  0.3199
53897SOL     OW68551   5.831   3.667   9.151 -0.1938  0.3319 -0.8007
53897SOL    HW168552   5.868   3.748   9.186 -1.0147 -1.0650  3.9284
53897SOL    HW268553   5.904   3.605   9.152 -0.8630 -0.5048  1.5688
53898SOL     OW68554   8.318   1.776   5.742  0.1258 -0.2971 -0.0578
53898SOL    HW168555   8.355   1.792   5.655  0.2942  1.8041  0.3648
53898SOL    HW268556   8.387   1.801   5.802 -0.7143  0.2187  0.7081
53899SOL     OW68557  11.841   5.941  11.702  0.5819  0.2784 -0.2612
53899SOL    HW168558  11.912   5.954  11.640  1.4955  2.0205  1.0320
53899SOL    HW268559  11.818   6.030  11.730 -0.3644 -0.3955  1.2237
53900SOL     OW68560   4.952   6.801   7.417  0.3400 -0.2228  0.0546
53900SOL    HW168561   5.022   6.847   7.463 -0.2025  0.8926 -0.1983
53900SOL    HW268562   4.990   6.717   7.393  1.0488 -0.2919  1.3684
53901SOL     OW68563   4.376   3.166   4.678 -0.0860 -0.3224 -0.1594
53901SOL    HW168564   4.303   3.229   4.686 -1.4891 -1.6424 -1.7802
53901SOL    HW268565   4.422   3.193   4.599  0.8767  0.1370  0.5300
53902SOL     OW68566   3.037   0.901   6.479 -0.2991  0.0121  0.0565
53902SOL    HW168567   3.071   0.851   6.552 -0.4967  1.1468  0.9627
53902SOL    HW268568   3.023   0.989   6.514 -0.2486  0.6381 -1.3883
53903SOL     OW68569   2.189   2.619   8.694  0.0534 -0.0984  0.1975
53903SOL    HW168570   2.105   2.605   8.652 -0.0226 -1.1804  0.6560
53903SOL    HW268571   2.203   2.539   8.746  0.3506  0.9723  1.8284
53904SOL     OW68572   4.131  12.082   6.682 -0.0123 -0.0824 -0.2353
53904SOL    HW168573   4.158  12.145   6.749 -0.1714  1.2817 -1.4111
53904SOL    HW268574   4.042  12.058   6.706 -0.2979  0.8879 -0.2968
53905SOL     OW68575   5.457   8.481  11.440 -0.8924 -0.0193  0.6294
53905SOL    HW168576   5.526   8.521  11.388 -1.9260 -1.0592 -1.6935
53905SOL    HW268577   5.408   8.555  11.476 -1.0363  0.8162 -1.1635
53906SOL     OW68578  11.383   4.593   4.976 -0.1465 -0.0689 -0.5625
53906SOL    HW168579  11.322   4.616   4.905 -0.6326 -1.1727 -0.5140
53906SOL    HW268580  11.413   4.505   4.955 -2.1283 -1.4441  1.7814
53907SOL     OW68581   6.371   3.545   9.481  0.2083 -0.6165 -0.2202
53907SOL    HW168582   6.310   3.616   9.459 -0.9552 -1.4768  0.1787
53907SOL    HW268583   6.399   3.564   9.571  0.5594 -0.2168 -0.4073
53908SOL     OW68584  10.540   3.928   9.776 -0.0061  0.0690 -0.2760
53908SOL    HW168585  10.534   3.915   9.871  0.8635  2.8398  0.2617
53908SOL    HW268586  10.450   3.916   9.745 -0.3277 -0.7612  0.9037
53909SOL     OW68587   0.895   1.398   3.912 -0.2748 -0.2399  0.1123
53909SOL    HW168588   0.805   1.420   3.889 -0.3537 -1.6985 -1.1342
53909SOL    HW268589   0.904   1.306   3.888  1.4480 -0.2201  0.5441
53910SOL     OW68590  11.613   4.254  11.134 -0.3579  0.0686  0.0990
53910SOL    HW168591  11.702   4.220  11.133 -0.5750 -0.5471 -2.2021
53910SOL    HW268592  11.566   4.198  11.195  0.0923 -1.6634 -1.0932
53911SOL     OW68593  10.188   7.132  11.333 -0.6292 -0.7446  0.2067
53911SOL    HW168594  10.172   7.045  11.297 -0.5573 -0.9507  0.6699
53911SOL    HW268595  10.278   7.128  11.366 -0.1169 -0.0601 -1.0159
53912SOL     OW68596   2.586   8.072   5.826 -0.8087 -0.5027 -0.0017
53912SOL    HW168597   2.659   8.061   5.765 -0.8424  1.3447 -0.4397
53912SOL    HW268598   2.510   8.087   5.770 -0.7673  1.6514  0.4340
53913SOL     OW68599   7.617   7.272   6.643 -0.1113  0.9033  0.8137
53913SOL    HW168600   7.626   7.230   6.728  0.1440  2.2694  1.4781
53913SOL    HW268601   7.644   7.362   6.657  1.2545  0.8560 -1.0148
53914SOL     OW68602   6.513   0.417  11.740  0.0335 -0.0593  0.2220
53914SOL    HW168603   6.508   0.484  11.672 -0.4660 -0.0628  0.2514
53914SOL    HW268604   6.435   0.364  11.727  0.6292 -0.8977 -0.0691
53915SOL     OW68605   2.758   8.603   0.503  0.5589 -0.4202 -0.0447
53915SOL    HW168606   2.734   8.517   0.536 -1.1494 -0.0090 -0.1253
53915SOL    HW268607   2.849   8.614   0.530  0.0232 -1.1500  2.3353
53916SOL     OW68608   2.609   0.500   3.601 -0.1657 -0.6276  0.6064
53916SOL    HW168609   2.614   0.482   3.694 -0.4952  2.2589  1.2730
53916SOL    HW268610   2.699   0.519   3.575 -0.2076 -0.5125  0.5441
53917SOL     OW68611   8.765   4.465   8.682  0.1536  0.0722  0.3350
53917SOL    HW168612   8.731   4.540   8.731  0.3228  0.9524 -0.8612
53917SOL    HW268613   8.695   4.400   8.687  0.4531 -0.1584  2.3372
53918SOL     OW68614   3.501  11.186   3.938  0.0870 -0.0274 -0.1458
53918SOL    HW168615   3.567  11.252   3.957  0.2138 -0.5863  1.5103
53918SOL    HW268616   3.551  11.105   3.925 -0.2465 -1.0030  3.5180
53919SOL     OW68617   2.397   8.947   0.249 -0.2186 -0.1089  0.1977
53919SOL    HW168618   2.463   8.985   0.308  1.0042  1.0201 -1.7910
53919SOL    HW268619   2.411   8.853   0.257  1.0840  0.0783  0.4587
53920SOL     OW68620  11.755   5.589   9.813 -0.1043  0.1841 -1.1063
53920SOL    HW168621  11.707   5.656   9.861 -0.3240  0.3159 -1.5026
53920SOL    HW268622  11.785   5.528   9.880 -3.0090 -1.3267 -1.0057
53921SOL     OW68623   3.481   3.689   9.547 -0.3974  0.2828 -0.0123
53921SOL    HW168624   3.429   3.700   9.627  0.7292  2.7124  0.4937
53921SOL    HW268625   3.520   3.602   9.556 -0.5549  0.3573  1.9407
53922SOL     OW68626   2.892   3.671   8.392 -0.5832 -0.4088 -0.4808
53922SOL    HW168627   2.823   3.712   8.339  0.1238 -0.7674 -1.7109
53922SOL    HW268628   2.913   3.590   8.346  0.9895 -0.0790 -0.3953
53923SOL     OW68629   1.215   9.560  11.119 -0.3987  0.1993  0.2376
53923SOL    HW168630   1.276   9.601  11.058 -1.1038  0.9490  0.0288
53923SOL    HW268631   1.146   9.625  11.132 -1.1894 -0.6537  0.4262
53924SOL     OW68632   7.487  11.923   4.614 -0.1919 -0.0443 -0.3198
53924SOL    HW168633   7.526  11.836   4.610 -0.0553  0.0261 -0.6047
53924SOL    HW268634   7.513  11.958   4.699  0.5812  0.1003 -0.6065
53925SOL     OW68635   4.906   8.829   4.929  0.2528 -0.2724  0.2687
53925SOL    HW168636   4.819   8.863   4.950  0.1818  0.3755 -1.0182
53925SOL    HW268637   4.962   8.864   4.998 -0.1675  0.8720  0.0441
53926SOL     OW68638   7.550   5.368   5.687 -0.1056  0.6807  0.4030
53926SOL    HW168639   7.488   5.438   5.665 -0.4452  0.7006  1.3932
53926SOL    HW268640   7.635   5.412   5.689 -0.1131  0.7555 -0.4612
53927SOL     OW68641   7.281   6.563  12.159  0.3188  0.7705 -0.5835
53927SOL    HW168642   7.281   6.478  12.115  0.3814  1.4860 -2.0178
53927SOL    HW268643   7.197   6.603  12.134  1.4828  2.3033 -2.3769
53928SOL     OW68644   8.306   0.609   8.577 -0.1391 -0.7632 -0.2673
53928SOL    HW168645   8.230   0.552   8.564 -0.5247 -0.3609  0.1935
53928SOL    HW268646   8.269   0.696   8.592  0.4563 -0.2744 -1.4598
53929SOL     OW68647   6.013   4.926   9.357 -0.2362  0.0380 -0.3965
53929SOL    HW168648   6.063   4.942   9.436 -1.6107 -1.6788  0.9076
53929SOL    HW268649   6.017   4.831   9.345  0.4944  0.2877 -2.8155
53930SOL     OW68650   3.434   0.710   0.444 -0.4488  0.4153 -0.0644
53930SOL    HW168651   3.468   0.710   0.534 -0.5906 -1.5097  0.0277
53930SOL    HW268652   3.406   0.801   0.429  1.8257  1.3716  0.9517
53931SOL     OW68653   7.078   6.978   7.252 -0.4946  0.1021 -0.3014
53931SOL    HW168654   7.033   7.041   7.196  2.1765  1.7914 -0.7472
53931SOL    HW268655   7.160   6.960   7.207  0.3285 -1.0078  1.5198
53932SOL     OW68656  12.092   2.930   5.324 -0.2420  0.2570 -0.1449
53932SOL    HW168657  12.014   2.925   5.269 -0.4662 -1.4229  0.2802
53932SOL    HW268658  12.076   3.006   5.380 -0.4633  1.3831 -1.6786
53933SOL     OW68659   0.156   6.312   7.037  0.2694  0.3875 -0.3321
53933SOL    HW168660   0.170   6.241   7.100 -0.1947 -0.6929 -1.3868
53933SOL    HW268661   0.072   6.350   7.062 -0.2368 -0.4676 -0.6586
53934SOL     OW68662  12.191  10.315  10.640  0.1163  0.1495 -0.4391
53934SOL    HW168663  12.241  10.387  10.678  0.5771 -0.8430  0.9178
53934SOL    HW268664  12.218  10.238  10.690 -2.8177 -0.4449  0.4098
53935SOL     OW68665   3.204   4.089   2.666  0.7235  0.2632  0.0576
53935SOL    HW168666   3.213   3.994   2.679  1.1387  0.1148 -1.1499
53935SOL    HW268667   3.203   4.125   2.754  2.5149 -0.6984  0.5394
53936SOL     OW68668  11.889   9.322   3.396  0.2189 -0.3778  0.6703
53936SOL    HW168669  11.952   9.257   3.367  2.5218  1.0873  2.0185
53936SOL    HW268670  11.942   9.400   3.415 -2.3440  1.8721 -0.7132
53937SOL     OW68671  11.924   3.651   0.992 -0.6319 -0.0554 -0.1625
53937SOL    HW168672  11.976   3.720   0.950 -3.1456  1.4333 -1.0251
53937SOL    HW268673  11.864   3.621   0.924 -0.5123 -2.1667  0.6168
53938SOL     OW68674   5.091   7.097   1.481  0.0310 -0.1083  0.0505
53938SOL    HW168675   5.185   7.114   1.486 -0.0542  0.6194 -0.6956
53938SOL    HW268676   5.086   7.009   1.442  0.4071 -0.2906  0.4042
53939SOL     OW68677   0.009   7.940  10.498 -0.0456  0.2454  0.1708
53939SOL    HW168678  -0.064   7.950  10.437  1.2192 -0.8653 -1.6112
53939SOL    HW268679   0.041   8.029  10.512  0.0466  0.4766 -1.3396
53940SOL     OW68680   0.177   6.820   8.444 -0.3090 -0.2728 -0.0699
53940SOL    HW168681   0.147   6.893   8.390  0.1883 -0.8242 -1.1261
53940SOL    HW268682   0.271   6.837   8.456 -0.2091 -0.6922 -0.2492
53941SOL     OW68683  12.348   5.457   7.084 -0.4918 -0.1821  0.4396
53941SOL    HW168684  12.296   5.474   7.006  1.2821  1.1376 -0.5233
53941SOL    HW268685  12.370   5.363   7.079 -1.0575 -0.2855 -0.2153
53942SOL     OW68686   6.729   2.422   5.669 -0.6755  0.2182  0.0357
53942SOL    HW168687   6.685   2.382   5.744  0.4017  1.6085  1.4846
53942SOL    HW268688   6.704   2.514   5.673  0.3948  0.5534 -0.5541
53943SOL     OW68689   5.186   1.422   0.677 -0.0678  0.1758  0.1754
53943SOL    HW168690   5.101   1.382   0.658  0.8450 -1.2050 -1.2782
53943SOL    HW268691   5.230   1.427   0.592  1.3938  0.6769  0.9201
53944SOL     OW68692   0.474   1.339   1.301  0.0171  0.0462  0.5869
53944SOL    HW168693   0.447   1.288   1.377 -1.0062  0.5509  0.5708
53944SOL    HW268694   0.416   1.415   1.300  0.6553  0.5476 -0.1473
53945SOL     OW68695   8.474   0.248  10.978  0.1348  0.3535 -0.2641
53945SOL    HW168696   8.403   0.290  11.027 -0.8304  0.1413 -1.4347
53945SOL    HW268697   8.485   0.163  11.021  0.6742  0.9446  0.8081
53946SOL     OW68698   7.997   9.914   0.935 -0.2465  0.4228  0.1342
53946SOL    HW168699   7.988   9.863   0.854 -0.4916  1.0449 -0.2340
53946SOL    HW268700   7.913   9.958   0.945  0.2330  1.3849  0.0182
53947SOL     OW68701   6.138   5.964   7.325  0.3988  0.4546 -0.7603
53947SOL    HW168702   6.183   5.953   7.408 -0.8642  1.5643  0.1084
53947SOL    HW268703   6.151   6.056   7.302 -1.0378  0.7039 -0.6840
53948SOL     OW68704   6.833   7.539   6.466  0.0891 -0.0317 -0.1019
53948SOL    HW168705   6.889   7.487   6.408 -0.6278  0.2578 -1.0891
53948SOL    HW268706   6.822   7.622   6.419  0.2193  0.5509  0.8783
53949SOL     OW68707   6.215   3.053   8.255 -0.2083  0.1341 -0.1458
53949SOL    HW168708   6.149   2.985   8.267 -0.5972  0.5443  0.0454
53949SOL    HW268709   6.297   3.004   8.243 -0.3070 -0.3563  1.0578
53950SOL     OW68710   2.298   8.538   4.864 -0.1385  0.1800 -0.5762
53950SOL    HW168711   2.259   8.480   4.799  1.3017 -2.5839  0.8371
53950SOL    HW268712   2.392   8.523   4.856  0.1055  0.2120  1.6830
53951SOL     OW68713   0.641  10.688  10.506 -0.6798  0.2109  0.2148
53951SOL    HW168714   0.651  10.646  10.591 -0.8560  0.6066  0.4323
53951SOL    HW268715   0.664  10.780  10.522  1.0194 -0.0479 -0.5318
53952SOL     OW68716   5.850   5.234   0.135 -0.3163 -0.1184 -0.5296
53952SOL    HW168717   5.862   5.329   0.135 -1.8133  0.1282 -2.4810
53952SOL    HW268718   5.768   5.221   0.088  0.6973 -2.4721 -1.7685
53953SOL     OW68719   1.759   5.399   8.392  0.1850  0.6108 -0.1739
53953SOL    HW168720   1.706   5.425   8.467  1.2991  1.0569  0.4934
53953SOL    HW268721   1.846   5.436   8.411  0.8456 -0.4494 -1.0178
53954SOL     OW68722  11.584   4.042   9.609 -0.5080 -0.2460 -0.2092
53954SOL    HW168723  11.631   4.046   9.693 -0.0617 -1.2614 -0.4005
53954SOL    HW268724  11.615   3.962   9.568 -1.8256 -0.5165 -0.7051
53955SOL     OW68725   8.684   7.343  10.276  0.1578  0.4793  0.1292
53955SOL    HW168726   8.748   7.298  10.332  0.7723  0.2290 -0.7405
53955SOL    HW268727   8.738   7.391  10.214 -0.4232 -1.4993 -2.0698
53956SOL     OW68728   6.103  10.784   8.179 -0.5502  0.7960 -0.9136
53956SOL    HW168729   6.066  10.789   8.267  0.8077  2.3246 -0.3769
53956SOL    HW268730   6.187  10.741   8.190 -0.0166  1.7120 -1.3189
53957SOL     OW68731   5.878   1.942   5.687  0.7657 -0.2607  0.0634
53957SOL    HW168732   5.788   1.912   5.699  0.6610  0.0262  0.0188
53957SOL    HW268733   5.932   1.864   5.700  0.5475 -0.3071  0.7059
53958SOL     OW68734  10.612   6.759   0.510 -0.3065  0.3012 -0.1538
53958SOL    HW168735  10.653   6.806   0.582 -1.8615  0.3868  0.7216
53958SOL    HW268736  10.633   6.667   0.526  0.2404  0.4197 -0.1896
53959SOL     OW68737  10.294   0.994  11.642 -0.4759  0.1924  0.5997
53959SOL    HW168738  10.306   0.918  11.585  1.0460  1.6576 -1.1937
53959SOL    HW268739  10.330   0.967  11.726  0.5797 -0.8996 -0.1725
53960SOL     OW68740   4.641   7.823   6.179  0.0241 -0.1050 -0.3480
53960SOL    HW168741   4.729   7.857   6.165 -0.2360  0.6006 -0.2870
53960SOL    HW268742   4.633   7.814   6.274 -0.1791  0.3973 -0.3166
53961SOL     OW68743   3.529  10.888   1.664  0.4950  0.0321  0.1296
53961SOL    HW168744   3.541  10.858   1.574  0.6320 -0.7014  0.3820
53961SOL    HW268745   3.613  10.869   1.707  0.7556  1.2268  0.1920
53962SOL     OW68746   0.208  11.278   3.405 -0.2388 -0.0600  0.0726
53962SOL    HW168747   0.281  11.237   3.450 -0.7019  0.7705  1.6445
53962SOL    HW268748   0.170  11.337   3.469 -3.0935 -1.3888 -0.2273
53963SOL     OW68749   4.778   3.344   1.041  0.2417  0.0113 -0.2008
53963SOL    HW168750   4.689   3.324   1.070  0.1589 -1.0773 -1.1472
53963SOL    HW268751   4.828   3.352   1.122 -0.6568  0.3515  0.3307
53964SOL     OW68752  10.607   9.287   3.520  0.4131 -0.1292  0.2071
53964SOL    HW168753  10.592   9.251   3.432  1.9421 -1.1081  0.3100
53964SOL    HW268754  10.519   9.294   3.558 -0.1099 -2.1215 -0.4866
53965SOL     OW68755  10.065   9.882   0.530 -0.4899 -0.1584 -0.5750
53965SOL    HW168756   9.982   9.916   0.562 -0.3239  1.9458 -2.1138
53965SOL    HW268757  10.047   9.791   0.507 -1.9176 -0.2009  0.5684
53966SOL     OW68758   2.428  11.828   1.455  0.1141 -0.1857 -0.4103
53966SOL    HW168759   2.364  11.762   1.481 -0.2478  0.2356 -0.2126
53966SOL    HW268760   2.377  11.891   1.403  0.4208  0.0175 -0.4648
53967SOL     OW68761   4.651  11.378  11.756 -0.5253  0.5796  0.1230
53967SOL    HW168762   4.608  11.298  11.787  1.2752  0.4223  2.5049
53967SOL    HW268763   4.696  11.413  11.834  1.3213  2.2095 -1.5590
53968SOL     OW68764   7.431  10.065   7.518  0.5380  0.4044  0.2569
53968SOL    HW168765   7.463  10.136   7.574  0.6971  0.9794 -0.5326
53968SOL    HW268766   7.495  10.061   7.446 -0.8448  1.2104 -1.0737
53969SOL     OW68767   6.993   4.080  11.875  0.2124  0.1933 -0.6745
53969SOL    HW168768   7.078   4.117  11.899 -0.0214  0.6203 -0.5050
53969SOL    HW268769   6.990   4.086  11.780  1.3981 -2.0467 -0.9302
53970SOL     OW68770   8.558  12.449   4.374 -0.4801  0.4140 -0.3835
53970SOL    HW168771   8.469  12.451   4.339  0.2257 -1.1752 -2.4889
53970SOL    HW268772   8.613  12.485   4.304  0.6553  0.4880  0.5022
53971SOL     OW68773   0.013  11.767   0.153  0.0353 -0.3451 -0.0916
53971SOL    HW168774   0.033  11.810   0.070 -1.0055 -2.0801 -1.2962
53971SOL    HW268775  -0.083  11.759   0.153  0.1516 -2.0615  0.3621
53972SOL     OW68776   1.300   5.384   5.458  0.0272 -0.5708 -0.3500
53972SOL    HW168777   1.293   5.347   5.546  1.3873  0.6870  0.3209
53972SOL    HW268778   1.215   5.426   5.443 -0.2542 -0.8967  0.3128
53973SOL     OW68779   5.795  10.974   7.354 -0.2614 -0.4537 -0.4162
53973SOL    HW168780   5.833  10.902   7.405 -0.2623 -0.5185 -0.5056
53973SOL    HW268781   5.731  10.931   7.297  2.4004 -0.9938 -3.2888
53974SOL     OW68782   7.266   7.112   9.920 -0.1462  0.4525  0.6577
53974SOL    HW168783   7.269   7.208   9.923 -0.5908  0.4856  0.2124
53974SOL    HW268784   7.292   7.084  10.007 -0.7872  0.9988  1.0325
53975SOL     OW68785  11.218   0.334   9.897 -0.0184  0.4131 -0.1653
53975SOL    HW168786  11.167   0.310   9.974  1.0204  0.9604  0.7157
53975SOL    HW268787  11.219   0.430   9.899  1.2518  0.4039 -0.0214
53976SOL     OW68788   0.377   7.687   9.609 -0.5309  0.6393 -0.0229
53976SOL    HW168789   0.387   7.628   9.683  0.6670  0.8882  0.0288
53976SOL    HW268790   0.305   7.745   9.634  0.4914  1.3397  1.3851
53977SOL     OW68791   8.248  10.817   0.428 -0.1764 -0.2822 -0.2272
53977SOL    HW168792   8.207  10.794   0.344 -2.0876  0.7066  0.3865
53977SOL    HW268793   8.219  10.749   0.488  0.6322 -0.5997 -0.1746
53978SOL     OW68794   9.299  10.490   6.383  0.0680  0.2770 -0.4095
53978SOL    HW168795   9.278  10.427   6.452  0.2343 -0.9173 -1.4260
53978SOL    HW268796   9.395  10.490   6.380  0.0557 -0.0261 -0.9384
53979SOL     OW68797   1.190   7.012   6.862  0.9472 -0.2185  0.1138
53979SOL    HW168798   1.119   6.999   6.799  0.4700  0.6399  0.4531
53979SOL    HW268799   1.161   6.967   6.941  0.0795  1.3340  0.7295
53980SOL     OW68800  11.488   2.700   7.749 -0.0631  0.1493 -0.0781
53980SOL    HW168801  11.537   2.748   7.815  1.9062 -0.0747 -1.3020
53980SOL    HW268802  11.416   2.659   7.797 -0.8253  2.8534  1.3048
53981SOL     OW68803  12.355   6.932   0.717 -0.3184  0.3350  0.4562
53981SOL    HW168804  12.267   6.968   0.724 -1.3204 -1.2131 -2.3494
53981SOL    HW268805  12.348   6.845   0.755  0.2413  0.4948  0.9357
53982SOL     OW68806   9.374   1.797   5.932 -0.1833  0.0814  0.1166
53982SOL    HW168807   9.427   1.733   5.981  2.6313  1.1065 -1.3446
53982SOL    HW268808   9.431   1.874   5.924 -1.8526  1.2053 -1.7552
53983SOL     OW68809   2.594   6.353   1.112 -0.2677  0.1238  0.6344
53983SOL    HW168810   2.623   6.444   1.102 -0.8804  0.2280 -0.2568
53983SOL    HW268811   2.553   6.331   1.029 -0.6578 -0.7825  1.0514
53984SOL     OW68812  11.848  11.773   5.416  0.4733 -0.1191  0.1367
53984SOL    HW168813  11.763  11.764   5.374  0.3252  0.7822  0.2289
53984SOL    HW268814  11.866  11.686   5.452 -0.2995 -0.3742 -0.0737
53985SOL     OW68815   4.132  12.448   6.985 -0.5479 -0.4002 -0.0842
53985SOL    HW168816   4.133  12.532   7.032 -0.3766 -0.2343 -0.3827
53985SOL    HW268817   4.041  12.420   6.989 -1.0944  0.9325 -1.9626
53986SOL     OW68818  11.275   1.181   7.866 -0.5235  0.3401 -0.0284
53986SOL    HW168819  11.242   1.111   7.810  0.2640  1.1517 -1.5609
53986SOL    HW268820  11.206   1.247   7.868 -0.3819  0.5008 -0.4040
53987SOL     OW68821   1.561   7.943   2.149  0.2668 -0.2156  0.2815
53987SOL    HW168822   1.584   8.019   2.203 -1.3166  0.1962  0.4065
53987SOL    HW268823   1.646   7.906   2.124  1.0577  0.8019  1.3239
53988SOL     OW68824   0.821   2.178  12.421 -0.3646  0.4586 -0.2464
53988SOL    HW168825   0.803   2.267  12.392  1.1245  0.6411 -0.6499
53988SOL    HW268826   0.757   2.124  12.373 -0.6757  1.1967 -0.6794
53989SOL     OW68827   7.480   6.322   1.730  0.1308 -0.5621 -0.4124
53989SOL    HW168828   7.388   6.296   1.726 -1.2900  2.8652  3.2360
53989SOL    HW268829   7.515   6.279   1.808  0.5507  0.7617  0.1609
53990SOL     OW68830  11.369   2.926   3.068 -0.2036  0.2702  0.3985
53990SOL    HW168831  11.362   2.991   3.138 -2.4519  1.1006 -0.5166
53990SOL    HW268832  11.279   2.902   3.048  0.3761 -0.1787 -1.9880
53991SOL     OW68833  10.453   9.594   4.454  0.5184 -0.0103 -0.1769
53991SOL    HW168834  10.402   9.554   4.525  1.7421  0.0190  0.7684
53991SOL    HW268835  10.512   9.654   4.499  1.7316 -0.4230 -1.1596
53992SOL     OW68836   3.207  11.594   7.766 -0.5516 -0.3439 -0.0239
53992SOL    HW168837   3.128  11.549   7.795 -1.3333  0.8928 -0.1281
53992SOL    HW268838   3.194  11.685   7.793  1.0755 -0.2072  0.4076
53993SOL     OW68839   3.848   1.694  11.148 -0.1301 -0.0358 -0.4188
53993SOL    HW168840   3.761   1.731  11.137  0.3173  0.8925 -0.9236
53993SOL    HW268841   3.898   1.762  11.194  1.1451  0.6754 -2.7257
53994SOL     OW68842  11.847   4.722   7.341  0.4111 -0.3387  0.3106
53994SOL    HW168843  11.763   4.766   7.352  0.0993 -0.7855 -0.2559
53994SOL    HW268844  11.831   4.631   7.368  0.4194 -0.6965 -0.8143
53995SOL     OW68845  11.514   0.576   4.593 -0.3177  0.3746 -0.5961
53995SOL    HW168846  11.528   0.602   4.502 -0.5897 -2.4197 -1.5607
53995SOL    HW268847  11.443   0.512   4.588  0.5492 -0.8129  1.3768
53996SOL     OW68848   4.560  11.742   1.633 -0.3714 -0.1822 -0.0012
53996SOL    HW168849   4.534  11.682   1.703  1.8498 -0.8954  0.3158
53996SOL    HW268850   4.492  11.732   1.566 -0.4561 -2.5604  0.3428
53997SOL     OW68851   0.534   6.733   7.286  0.1537  0.2636 -1.2106
53997SOL    HW168852   0.524   6.814   7.335  0.6303 -1.5090  2.1060
53997SOL    HW268853   0.447   6.715   7.252 -0.6440  0.7857  0.4350
53998SOL     OW68854   5.324   0.578  10.719  0.3433  0.4847 -0.2813
53998SOL    HW168855   5.366   0.506  10.767 -1.9926  0.4889  1.9598
53998SOL    HW268856   5.335   0.654  10.776  1.2657  1.5599 -1.8286
53999SOL     OW68857   7.762   5.025   8.705 -0.1361 -0.5833 -0.6109
53999SOL    HW168858   7.822   4.980   8.766 -1.6687 -2.1623 -0.1927
53999SOL    HW268859   7.799   5.008   8.619  1.4806  0.7805 -0.2403
54000SOL     OW68860   1.840   0.453   0.032  0.1873  0.0442  0.2303
54000SOL    HW168861   1.878   0.510  -0.035  0.6229 -0.7771 -0.2382
54000SOL    HW268862   1.882   0.481   0.114 -2.7301  3.3236  0.8723
54001SOL     OW68863  11.977   9.996   4.598 -0.3184 -0.0759 -0.2158
54001SOL    HW168864  11.958  10.079   4.642 -1.8414 -0.3296 -0.3320
54001SOL    HW268865  12.069   9.979   4.617  0.6923  2.7378 -2.0412
54002SOL     OW68866  10.474   2.768   7.392  0.1676 -0.3103 -0.8229
54002SOL    HW168867  10.447   2.739   7.479 -0.2686 -1.5106 -1.3359
54002SOL    HW268868  10.398   2.814   7.357  0.1083 -0.4000 -0.8125
54003SOL     OW68869   6.361   7.564   8.186 -0.4565 -0.0062 -0.4573
54003SOL    HW168870   6.319   7.507   8.250  0.0294 -1.0130 -0.9996
54003SOL    HW268871   6.288   7.606   8.140 -0.8266 -0.1442 -0.0053
54004SOL     OW68872  10.899   7.750   5.177  0.4094  0.4409  0.3574
54004SOL    HW168873  10.951   7.747   5.096 -0.4720  1.0794 -0.2598
54004SOL    HW268874  10.900   7.660   5.209  3.1136  0.6874  1.1959
54005SOL     OW68875   8.672   2.598   4.527 -0.2863  0.2290  0.1963
54005SOL    HW168876   8.701   2.529   4.467 -0.8381 -0.2989  0.5310
54005SOL    HW268877   8.613   2.652   4.474  0.6043  0.8019 -0.2371
54006SOL     OW68878   4.349  10.623  10.955  0.0792 -0.2190 -0.1630
54006SOL    HW168879   4.275  10.681  10.936 -0.8044 -0.8061  1.2966
54006SOL    HW268880   4.308  10.538  10.970  0.9041 -0.3103  1.8359
54007SOL     OW68881   7.343   4.489   6.897  0.2607  0.8307  0.1072
54007SOL    HW168882   7.397   4.532   6.963 -0.2735  0.7868  0.5821
54007SOL    HW268883   7.405   4.456   6.832  0.7930  0.8584  0.6006
54008SOL     OW68884   3.876   8.349  12.324 -0.7136  0.3953  0.1911
54008SOL    HW168885   3.905   8.432  12.362 -0.7821  0.4172  0.1957
54008SOL    HW268886   3.943   8.286  12.350 -0.4994  0.5108 -0.0768
54009SOL     OW68887   5.213  12.133   5.551  0.1504  0.2793 -0.1320
54009SOL    HW168888   5.230  12.196   5.482  0.0709  0.9752  0.4660
54009SOL    HW268889   5.136  12.167   5.597  0.5106  0.1194  0.6186
54010SOL     OW68890   6.503  10.090   9.872 -0.2265  0.0762 -0.2652
54010SOL    HW168891   6.531  10.088   9.780  0.3146  1.1033 -0.1391
54010SOL    HW268892   6.584  10.105   9.921 -0.4472 -0.9254  0.4211
54011SOL     OW68893   1.937  11.206   2.796 -0.4140 -0.2987  0.1734
54011SOL    HW168894   1.850  11.190   2.759 -0.0946  0.2125 -0.8487
54011SOL    HW268895   1.987  11.127   2.776 -0.6678 -0.6328  0.8482
54012SOL     OW68896  12.284   7.393   7.641 -0.0610 -0.2370  0.1142
54012SOL    HW168897  12.311   7.303   7.621 -0.3246 -0.3611  0.3071
54012SOL    HW268898  12.364   7.445   7.632  0.4282 -0.7099  1.4171
54013SOL     OW68899   9.258  11.812   3.330 -0.4822 -0.1018  0.2751
54013SOL    HW168900   9.183  11.871   3.329  1.3745  2.5107  1.2302
54013SOL    HW268901   9.313  11.843   3.258 -0.3772 -2.1454 -0.6045
54014SOL     OW68902  10.141   5.909   5.426  0.0711 -0.0992  0.0011
54014SOL    HW168903  10.230   5.882   5.444  0.1064  0.2783  0.4113
54014SOL    HW268904  10.109   5.845   5.362  1.0886  0.5627 -1.2129
54015SOL     OW68905   0.019   7.291   3.756  0.2860  0.3207  0.3037
54015SOL    HW168906   0.059   7.373   3.783  0.8522  0.1150  0.1139
54015SOL    HW268907  -0.058   7.317   3.705 -0.3137  0.7121  1.3686
54016SOL     OW68908   5.665   5.452   8.259 -0.3805 -0.4580 -0.4182
54016SOL    HW168909   5.701   5.425   8.343  0.5314  1.3997 -0.1605
54016SOL    HW268910   5.741   5.455   8.200 -0.7679 -0.3615 -0.9235
54017SOL     OW68911   7.220   3.343   8.313 -0.4928 -0.5009  0.1501
54017SOL    HW168912   7.295   3.313   8.262 -0.3955  0.6613 -0.4212
54017SOL    HW268913   7.190   3.421   8.267 -1.1074 -0.0758  1.2484
54018SOL     OW68914  10.865   8.290  10.642 -0.3950 -0.2922 -0.3021
54018SOL    HW168915  10.957   8.314  10.650  0.1396 -2.5343  1.7643
54018SOL    HW268916  10.819   8.353  10.696 -0.2827  1.4966 -2.1865
54019SOL     OW68917   7.255   5.277  11.081  0.2329  0.6301 -0.4511
54019SOL    HW168918   7.215   5.233  11.006 -0.4720  0.2450  0.1402
54019SOL    HW268919   7.296   5.207  11.132 -0.1850  0.7528  0.0631
54020SOL     OW68920  10.083   7.895  12.379  0.5699  0.0007 -0.5039
54020SOL    HW168921  10.152   7.912  12.443 -0.9004 -1.9741  1.7476
54020SOL    HW268922  10.124   7.837  12.315  0.7099 -2.4655  1.6684
54021SOL     OW68923  11.626   2.593   9.310  0.3456 -0.3818 -0.4040
54021SOL    HW168924  11.682   2.660   9.271  0.1058 -0.7236 -1.3613
54021SOL    HW268925  11.539   2.610   9.272 -0.3164  0.3773  1.3304
54022SOL     OW68926   6.455   1.297   8.490  0.4402 -0.3448  0.7013
54022SOL    HW168927   6.368   1.266   8.464  0.1037  0.6081  0.6613
54022SOL    HW268928   6.496   1.323   8.407  0.9703 -1.2455  0.6559
54023SOL     OW68929   5.129  10.163   2.437 -0.0980  0.2228  0.4801
54023SOL    HW168930   5.133  10.229   2.506  0.4893  1.2729 -0.5406
54023SOL    HW268931   5.038  10.167   2.406  0.3947  1.9482 -0.8783
54024SOL     OW68932   5.328   3.039   4.142 -0.3240 -0.2052 -0.3851
54024SOL    HW168933   5.306   2.969   4.204  0.0632  1.0780  1.3061
54024SOL    HW268934   5.414   3.016   4.108 -0.2455 -0.6075  0.0797
54025SOL     OW68935   6.298   4.254   4.013 -0.6587 -0.0879 -0.2632
54025SOL    HW168936   6.272   4.300   4.093  0.5351  0.1736 -0.0137
54025SOL    HW268937   6.389   4.280   3.999 -1.1126  0.5963 -2.2178
54026SOL     OW68938   4.376  10.623  10.090  0.3900  0.2668  0.3350
54026SOL    HW168939   4.468  10.611  10.067  0.1606  1.7923 -1.4983
54026SOL    HW268940   4.367  10.716  10.108 -0.5586 -0.0664  1.8109
54027SOL     OW68941   5.352  10.027   7.121  0.5390  0.1651  0.6592
54027SOL    HW168942   5.262  10.021   7.090  0.0627 -1.4049  2.1966
54027SOL    HW268943   5.347  10.079   7.200  0.9246 -0.2323  0.9518
54028SOL     OW68944   0.802   6.718   0.288  0.2452 -0.4094  0.2284
54028SOL    HW168945   0.727   6.745   0.236 -0.0089 -1.0311  0.2689
54028SOL    HW268946   0.824   6.795   0.340 -0.0284 -0.0580 -0.1722
54029SOL     OW68947   8.675   8.509   6.448  0.1816  0.2893 -0.0032
54029SOL    HW168948   8.680   8.438   6.511  0.7708 -2.1800 -2.6402
54029SOL    HW268949   8.598   8.490   6.394  1.3936  0.5049 -1.9456
54030SOL     OW68950   4.332   1.797   2.083  0.2490  0.2564 -0.2558
54030SOL    HW168951   4.272   1.777   2.011  1.4448  0.6542 -1.4069
54030SOL    HW268952   4.388   1.720   2.089  0.7284  0.5977 -0.3511
54031SOL     OW68953   9.670   3.816   6.506 -0.4864  0.5653 -0.0752
54031SOL    HW168954   9.748   3.767   6.530 -1.2966 -0.4905  0.4670
54031SOL    HW268955   9.692   3.907   6.526  0.2731  0.1784  0.9316
54032SOL     OW68956   6.552  10.043   7.886 -0.0446 -0.0903 -0.1807
54032SOL    HW168957   6.463  10.017   7.906  0.5127 -1.9575  0.0744
54032SOL    HW268958   6.590   9.967   7.841  1.6772  0.2955  0.5349
54033SOL     OW68959  11.759  10.212   1.843 -0.1763 -0.2125  0.2397
54033SOL    HW168960  11.761  10.307   1.856  0.0479 -0.3905  1.6033
54033SOL    HW268961  11.769  10.175   1.931 -1.2694 -1.4997 -0.1487
54034SOL     OW68962   8.313   3.776  11.720  0.4499 -0.0061  0.3596
54034SOL    HW168963   8.220   3.774  11.741  0.2449 -1.7130 -0.4974
54034SOL    HW268964   8.354   3.720  11.786  0.8994  0.8512  0.8180
54035SOL     OW68965   3.367   1.559   9.397 -0.5060  0.1443 -0.2255
54035SOL    HW168966   3.399   1.482   9.350 -0.4780  0.6115 -0.9960
54035SOL    HW268967   3.314   1.523   9.468  0.8617 -0.6140  0.4465
54036SOL     OW68968   7.500   3.166  11.489  0.2815 -0.0296  0.1009
54036SOL    HW168969   7.528   3.253  11.460  0.8209 -0.9256 -2.2275
54036SOL    HW268970   7.405   3.175  11.501  0.4423  1.0712  0.7594
54037SOL     OW68971   5.915   7.632   6.292 -0.1021  0.1598 -0.0967
54037SOL    HW168972   5.864   7.555   6.317 -1.5938  1.3722  0.6824
54037SOL    HW268973   6.006   7.601   6.295 -0.6103 -1.3538  0.9712
54038SOL     OW68974   5.919   8.592   1.850 -0.3678  0.0884 -0.3118
54038SOL    HW168975   5.906   8.666   1.791 -1.0102  0.5832  0.4349
54038SOL    HW268976   5.875   8.618   1.931 -0.0218 -0.8333  0.1813
54039SOL     OW68977  11.391  10.280   0.133  0.6399  0.3979 -0.2336
54039SOL    HW168978  11.405  10.206   0.193 -0.5902  0.3149 -0.0271
54039SOL    HW268979  11.305  10.263   0.094  0.2741  1.8021 -0.0745
54040SOL     OW68980   2.033  11.491   2.394 -0.1058 -0.0978  0.7740
54040SOL    HW168981   2.126  11.486   2.416  0.1920 -1.9232 -0.6482
54040SOL    HW268982   1.990  11.433   2.457 -0.2594  0.4661  1.2009
54041SOL     OW68983   3.527  11.719   9.254 -0.0237 -0.4052  0.1556
54041SOL    HW168984   3.576  11.660   9.311 -0.2906  1.0083  1.9482
54041SOL    HW268985   3.446  11.672   9.235 -0.1239 -0.7595  1.3421
54042SOL     OW68986  11.587   0.885  12.315  0.3380 -0.0985  0.0801
54042SOL    HW168987  11.526   0.952  12.345 -0.8088  0.5451 -3.3304
54042SOL    HW268988  11.580   0.815  12.380 -1.3868  1.4226  1.6318
54043SOL     OW68989   0.054   3.307   0.801 -0.3325 -0.0092 -0.4923
54043SOL    HW168990   0.107   3.255   0.861 -2.1679  0.0887  1.2951
54043SOL    HW268991   0.092   3.289   0.715  1.3467 -1.4503  0.4804
54044SOL     OW68992   3.792   3.332   3.082  0.1852 -0.1850 -0.3765
54044SOL    HW168993   3.769   3.368   2.996  0.9618  1.7705  0.1789
54044SOL    HW268994   3.833   3.405   3.128  2.1880 -1.9077  0.7339
54045SOL     OW68995   7.521   7.656   4.295 -0.2577  0.0949  0.1461
54045SOL    HW168996   7.429   7.647   4.322 -0.6791 -0.3002 -1.3287
54045SOL    HW268997   7.558   7.569   4.309 -0.2249  0.1337  0.3060
54046SOL     OW68998   9.703   0.210   6.786 -0.0604  0.0273 -0.7269
54046SOL    HW168999   9.624   0.253   6.819 -0.0251 -1.7548  1.9706
54046SOL    HW269000   9.775   0.255   6.832  0.3386  0.1140 -1.4232
54047SOL     OW69001   6.780   4.146   4.890 -0.1018 -0.3902  0.1516
54047SOL    HW169002   6.854   4.173   4.835 -1.1626 -0.6095 -1.4509
54047SOL    HW269003   6.815   4.075   4.944  0.8356 -0.5563 -0.6480
54048SOL     OW69004   1.259   2.909  10.412 -0.3144  0.2133  0.0397
54048SOL    HW169005   1.333   2.849  10.405  0.5187  1.1130  0.8308
54048SOL    HW269006   1.186   2.854  10.440  0.6897 -0.2803  1.8185
54049SOL     OW69007  11.549   4.894   1.972 -0.1820  0.3240  0.4043
54049SOL    HW169008  11.509   4.813   1.940 -0.6078  1.2144 -1.4189
54049SOL    HW269009  11.484   4.962   1.953 -0.0835  1.0568  2.4334
54050SOL     OW69010  11.770   2.097   0.083  0.0978  0.2040  0.2224
54050SOL    HW169011  11.849   2.077   0.033  0.0148  0.2641  0.0647
54050SOL    HW269012  11.698   2.073   0.024 -0.0265  2.0556 -0.4575
54051SOL     OW69013   5.999   3.915   3.477  0.5834 -0.1566 -0.2916
54051SOL    HW169014   5.958   3.908   3.391 -0.8574 -0.3454  0.3756
54051SOL    HW269015   5.995   4.008   3.498 -0.2523 -0.2698  0.1003
54052SOL     OW69016   0.076  10.119  10.095  0.1985 -0.1021 -0.5502
54052SOL    HW169017   0.040  10.189  10.150 -1.5722 -1.0208 -0.4473
54052SOL    HW269018   0.122  10.062  10.156  0.0920  0.0314 -0.3416
54053SOL     OW69019   8.014  10.874   5.816  0.1685  0.2115 -0.1170
54053SOL    HW169020   8.106  10.900   5.816 -0.4036  2.3938 -0.4084
54053SOL    HW269021   7.971  10.939   5.761 -1.8018  0.1295  1.2467
54054SOL     OW69022   3.322   7.678  10.817 -0.2854  0.3457  0.0843
54054SOL    HW169023   3.362   7.637  10.894 -0.1762 -1.6084 -0.9518
54054SOL    HW269024   3.388   7.739  10.785  0.3828 -0.1310  0.5182
54055SOL     OW69025   1.366   4.727   8.408 -0.1028 -0.1703  0.2803
54055SOL    HW169026   1.378   4.632   8.395  1.0195 -0.3689  2.3576
54055SOL    HW269027   1.292   4.733   8.468 -0.4990  0.3094 -0.2532
54056SOL     OW69028  10.331  11.694   5.021  0.1260 -0.4693  0.1035
54056SOL    HW169029  10.240  11.691   4.993 -0.4559  0.4885  1.7727
54056SOL    HW269030  10.360  11.783   4.998  1.2326 -1.3165 -2.0389
54057SOL     OW69031   0.483  11.185   2.196  0.1022  0.1956  0.1750
54057SOL    HW169032   0.541  11.213   2.125 -1.6764  0.8128 -1.1260
54057SOL    HW269033   0.404  11.238   2.184 -0.1205  0.6412  2.9108
54058SOL     OW69034   0.586  11.527   2.573  0.1364 -0.1086 -0.0923
54058SOL    HW169035   0.513  11.547   2.514  0.1293  0.4414  0.0942
54058SOL    HW269036   0.547  11.479   2.645 -0.7087  2.9928  1.7015
54059SOL     OW69037   7.082   4.373   2.960 -0.5288  0.4674 -0.1411
54059SOL    HW169038   7.060   4.294   2.909 -0.4761  0.0320  0.4937
54059SOL    HW269039   7.054   4.446   2.904 -1.0953 -0.0109 -0.5020
54060SOL     OW69040   4.533   6.221   8.903 -0.0208  0.6683  0.6556
54060SOL    HW169041   4.527   6.166   8.824 -2.4681  0.7910  0.6674
54060SOL    HW269042   4.565   6.162   8.971 -0.1273 -0.0598  0.0900
54061SOL     OW69043   7.187   0.088  10.293 -0.5097  0.0299 -0.3271
54061SOL    HW169044   7.153   0.040  10.368  1.2650  1.8073  1.7577
54061SOL    HW269045   7.140   0.171  10.293 -1.3031 -0.3672 -1.9574
54062SOL     OW69046   2.098   1.457  10.563  0.7018  0.2181  0.1999
54062SOL    HW169047   2.144   1.531  10.604  0.4392  0.8091 -0.5430
54062SOL    HW269048   2.012   1.492  10.542 -0.3755 -1.0752  2.1946
54063SOL     OW69049  11.017   5.952   8.067  0.2890  0.0783  0.5420
54063SOL    HW169050  10.986   6.029   8.021 -1.2717 -0.1267  1.1897
54063SOL    HW269051  11.023   5.884   7.999  1.4269  0.6749  0.0209
54064SOL     OW69052   3.256   4.889  11.390  0.2844 -0.2569  0.0717
54064SOL    HW169053   3.273   4.977  11.424  0.4702 -1.2445  2.7843
54064SOL    HW269054   3.163   4.874  11.406  0.3415 -0.7098 -0.0115
54065SOL     OW69055   5.536   8.804   0.373 -0.6718  0.1240  0.2597
54065SOL    HW169056   5.453   8.850   0.383 -2.0692 -2.2348  0.3346
54065SOL    HW269057   5.554   8.768   0.460  0.0764  0.0420  0.0791
54066SOL     OW69058   5.951   1.222   0.369 -0.0159  0.1955  0.6429
54066SOL    HW169059   5.858   1.218   0.348 -0.0598  1.4540  0.5516
54066SOL    HW269060   5.995   1.223   0.284  0.1594 -1.4992  0.6815
54067SOL     OW69061   6.126   6.238   0.526  0.6796  0.2207  0.0948
54067SOL    HW169062   6.090   6.181   0.458  0.7591  0.8653 -0.4920
54067SOL    HW269063   6.051   6.261   0.581  0.7221 -0.8273  0.6348
54068SOL     OW69064   3.909   7.937   5.569  0.1828  0.5521 -0.0019
54068SOL    HW169065   3.872   7.850   5.554  0.5425  0.0716  1.7409
54068SOL    HW269066   3.875   7.965   5.654  0.5638  1.8604 -0.2454
54069SOL     OW69067   7.419   3.315   8.002  0.0315  0.4605 -0.1298
54069SOL    HW169068   7.437   3.244   7.940 -2.9658  0.2147 -0.8801
54069SOL    HW269069   7.342   3.286   8.050  1.0111  1.6022  2.3115
54070SOL     OW69070   8.520   1.238   9.850 -0.0293 -0.2632 -0.1781
54070SOL    HW169071   8.493   1.320   9.809 -0.8603 -0.6600 -0.4560
54070SOL    HW269072   8.523   1.175   9.778  1.4630 -0.3014 -0.1234
54071SOL     OW69073  12.302   9.433   2.040 -0.2027 -0.2170  0.3753
54071SOL    HW169074  12.390   9.430   2.003 -1.3512 -1.5395 -2.6145
54071SOL    HW269075  12.282   9.527   2.046  0.6729  0.0840 -0.9347
54072SOL     OW69076   7.307  10.424  11.039  0.5325  0.1074  0.2157
54072SOL    HW169077   7.253  10.499  11.063  0.4091  0.3944 -0.8758
54072SOL    HW269078   7.378  10.461  10.987  1.3863 -0.3561  1.0261
54073SOL     OW69079  11.174   8.134  11.747  0.5644 -0.2481  0.3098
54073SOL    HW169080  11.207   8.074  11.814  1.7400  1.3526  1.2249
54073SOL    HW269081  11.177   8.220  11.788 -1.7324  0.4115 -0.7197
54074SOL     OW69082   4.831   7.174   1.377 -0.0598 -0.4647 -0.6279
54074SOL    HW169083   4.915   7.185   1.421  0.3653 -2.0137 -0.9932
54074SOL    HW269084   4.794   7.094   1.414 -1.4721  0.2661 -0.3587
54075SOL     OW69085   0.040   9.247   6.732 -0.4540  0.3007 -0.0926
54075SOL    HW169086   0.089   9.316   6.687 -0.3555  0.0738 -0.3390
54075SOL    HW269087   0.048   9.171   6.674  0.5020 -0.2757  0.7669
54076SOL     OW69088   9.825   6.487   0.915  0.1054  0.2439 -0.3424
54076SOL    HW169089   9.795   6.499   0.825 -1.3905 -0.4161  0.0449
54076SOL    HW269090   9.746   6.467   0.965  1.0738 -0.6956  0.8912
54077SOL     OW69091  11.217   3.141   0.040 -0.2884  0.4175  0.5534
54077SOL    HW169092  11.191   3.179   0.124 -2.1919  0.3842  0.0302
54077SOL    HW269093  11.217   3.215  -0.020 -0.4371  0.1880  0.2720
54078SOL     OW69094  10.033  12.073   3.179  0.1244 -0.2217 -0.0008
54078SOL    HW169095  10.016  12.165   3.199 -1.1400 -0.1846 -1.1428
54078SOL    HW269096  10.106  12.049   3.237 -0.4556  1.0866  1.3305
54079SOL     OW69097   8.931   4.948   1.330 -0.5510 -0.0158 -0.5793
54079SOL    HW169098   8.856   4.906   1.372 -0.3451  0.1485 -0.0344
54079SOL    HW269099   8.902   4.966   1.241 -0.6339 -1.3719 -0.8605
54080SOL     OW69100   1.700   4.368   6.823  0.4628 -0.7736 -0.1516
54080SOL    HW169101   1.724   4.416   6.744  1.0392 -2.8324 -1.3119
54080SOL    HW269102   1.700   4.276   6.796 -0.0998 -1.4905  2.0642
54081SOL     OW69103  10.954   7.323   7.204  0.0840 -0.0522 -0.2088
54081SOL    HW169104  10.936   7.413   7.231  3.2121 -0.1404  2.7773
54081SOL    HW269105  10.903   7.268   7.264  1.4567 -0.2170  0.8559
54082SOL     OW69106   5.415   4.269  11.343 -0.1451 -0.3419 -0.4888
54082SOL    HW169107   5.388   4.358  11.366  0.1567 -0.2379 -0.5424
54082SOL    HW269108   5.509   4.275  11.325 -0.0178 -0.7692  0.0110
54083SOL     OW69109   5.481   1.181   5.019 -0.1152  0.5567 -0.1438
54083SOL    HW169110   5.392   1.149   5.032 -0.1247  0.5072 -0.3198
54083SOL    HW269111   5.471   1.264   4.972 -0.0100 -0.4896 -2.1425
54084SOL     OW69112   5.047   6.603   6.681 -0.1892 -0.3920  0.0770
54084SOL    HW169113   5.040   6.677   6.741 -1.3691 -0.8121  0.5005
54084SOL    HW269114   5.023   6.527   6.734  0.9094 -1.0723 -0.3707
54085SOL     OW69115  11.574   2.821   9.682 -0.0369 -0.4488 -0.2314
54085SOL    HW169116  11.638   2.766   9.637 -0.8608 -0.1052 -1.8974
54085SOL    HW269117  11.506   2.837   9.617 -1.1082  0.3895  1.0430
54086SOL     OW69118   5.611   2.521   1.678  0.2723  0.0085 -0.1460
54086SOL    HW169119   5.560   2.451   1.637 -1.5350  1.0302  0.2853
54086SOL    HW269120   5.562   2.545   1.756  0.0495  2.7307 -1.0208
54087SOL     OW69121   6.178   4.455   3.486  0.6791  0.4907  0.2082
54087SOL    HW169122   6.203   4.450   3.394 -2.8036  1.8251 -0.9909
54087SOL    HW269123   6.138   4.541   3.495 -0.3204 -0.1513  2.6222
54088SOL     OW69124   2.939   3.736  12.298  0.3030 -0.0361  0.1243
54088SOL    HW169125   2.946   3.827  12.268 -2.9050  0.6428  1.0612
54088SOL    HW269126   2.945   3.742  12.394 -1.9758 -0.4462  0.3498
54089SOL     OW69127   0.450   8.764   0.328  0.3412  0.1043  0.0089
54089SOL    HW169128   0.457   8.825   0.401  1.3754  2.1062 -1.6580
54089SOL    HW269129   0.535   8.772   0.283 -1.0124  0.6160 -2.6232
54090SOL     OW69130   0.724  10.424   1.096  0.3376 -0.1483 -0.3755
54090SOL    HW169131   0.632  10.413   1.070 -0.3067  2.9599  0.2388
54090SOL    HW269132   0.774  10.384   1.025 -1.4552 -2.1480 -0.6076
54091SOL     OW69133   9.491  10.825  10.387 -0.3462 -0.1056 -0.4587
54091SOL    HW169134   9.477  10.745  10.336  1.0210 -0.5837 -0.1339
54091SOL    HW269135   9.529  10.887  10.325 -0.0387 -0.2046 -0.3718
54092SOL     OW69136   7.712  12.027   4.478  0.7629  0.4965  0.1694
54092SOL    HW169137   7.620  12.008   4.493  0.6553  2.1056  1.9809
54092SOL    HW269138   7.752  12.021   4.565  1.8391  2.3042 -0.1590
54093SOL     OW69139   8.644   8.773   6.573 -0.1846 -0.6009  0.5051
54093SOL    HW169140   8.650   8.678   6.563  2.1016 -0.6777  1.8571
54093SOL    HW269141   8.605   8.804   6.491 -0.0430 -2.6129 -0.3661
54094SOL     OW69142  11.650   4.199   0.900 -0.3845 -0.1746  0.4544
54094SOL    HW169143  11.622   4.289   0.915 -0.7690 -0.4416  1.4490
54094SOL    HW269144  11.594   4.167   0.830 -0.2436  0.3587  0.0965
54095SOL     OW69145   5.102  11.659   8.865 -0.0651 -0.7495  0.4042
54095SOL    HW169146   5.057  11.672   8.948 -0.1801  0.7887  0.1267
54095SOL    HW269147   5.136  11.570   8.870 -1.5696 -1.3149  1.3679
54096SOL     OW69148   2.751   9.682  11.917  0.2461 -0.2168 -0.2832
54096SOL    HW169149   2.722   9.753  11.975  1.4197 -0.1740  0.2766
54096SOL    HW269150   2.671   9.634  11.898 -0.2142 -0.1517  1.2689
54097SOL     OW69151   1.661  11.097   7.321  0.2000 -0.1641  0.2891
54097SOL    HW169152   1.656  11.041   7.244  0.0523 -1.3583  1.1394
54097SOL    HW269153   1.575  11.092   7.361 -0.0807  1.3702 -0.0726
54098SOL     OW69154   4.069   2.594   8.313  0.5603 -0.4448  0.9254
54098SOL    HW169155   4.156   2.563   8.337 -0.0533 -1.7961  1.5007
54098SOL    HW269156   4.037   2.529   8.250  0.0051  0.0861  0.6460
54099SOL     OW69157   8.479   1.589   1.108 -0.4497  0.1062  0.3286
54099SOL    HW169158   8.494   1.510   1.160 -1.0587 -0.6303 -0.5840
54099SOL    HW269159   8.417   1.640   1.160  0.5805  0.3854  1.3159
54100SOL     OW69160   2.459   2.795  10.870  0.0579  0.1585  0.6147
54100SOL    HW169161   2.390   2.729  10.878  2.3908 -2.2384  2.9693
54100SOL    HW269162   2.443   2.855  10.943 -0.2614  0.3910  0.3588
54101SOL     OW69163  11.899   0.779   0.285  0.2110 -0.5175  0.7413
54101SOL    HW169164  11.848   0.825   0.352  0.6206 -0.3568  0.9495
54101SOL    HW269165  11.963   0.844   0.255  0.1407 -0.6423  0.3109
54102SOL     OW69166   0.180   7.137   8.992  0.2060 -0.2124 -0.9488
54102SOL    HW169167   0.194   7.075   8.920  0.2262  1.0995 -2.1100
54102SOL    HW269168   0.210   7.090   9.070  0.7117 -1.4689 -1.8689
54103SOL     OW69169   6.920   3.092   4.987 -0.1851  0.5407 -0.8705
54103SOL    HW169170   6.972   3.012   4.992  0.4700  0.8185 -2.5334
54103SOL    HW269171   6.979   3.162   5.016  0.1016  0.7358 -1.8818
54104SOL     OW69172   2.098   3.687   0.861  0.0181  0.3714 -0.4689
54104SOL    HW169173   2.110   3.683   0.956  0.7129  2.0765 -0.4519
54104SOL    HW269174   2.044   3.610   0.840  0.5326 -0.4872  1.1820
54105SOL     OW69175   5.622   4.120   8.426  0.1996 -0.2807  0.0521
54105SOL    HW169176   5.627   4.043   8.369 -1.3840  0.0669 -0.5969
54105SOL    HW269177   5.693   4.107   8.489  0.1525 -2.1298 -0.2204
54106SOL     OW69178  11.784   0.699  10.431  0.1091  0.0172  0.2598
54106SOL    HW169179  11.829   0.760  10.372 -3.0586  0.8280 -1.5756
54106SOL    HW269180  11.823   0.715  10.517  3.4642  0.3167 -1.1810
54107SOL     OW69181   6.392  11.732   6.114 -0.0995  0.5551  0.3766
54107SOL    HW169182   6.421  11.820   6.140  0.4926 -0.0102  1.7099
54107SOL    HW269183   6.372  11.688   6.197 -1.5423 -0.2003 -0.3356
54108SOL     OW69184   9.031  11.632   7.138  0.1519 -0.0772  0.1239
54108SOL    HW169185   9.062  11.550   7.101  0.3130  0.0536 -0.0364
54108SOL    HW269186   8.974  11.668   7.071  1.2312  0.6458 -0.4465
54109SOL     OW69187  10.903   6.251   3.019 -0.2481 -0.0821  0.2775
54109SOL    HW169188  10.838   6.247   3.090  0.6556  0.4431  1.1544
54109SOL    HW269189  10.922   6.159   2.999  0.5171 -0.2608  1.6994
54110SOL     OW69190   3.666   5.837   1.043 -0.3690 -0.2246 -0.3515
54110SOL    HW169191   3.607   5.870   0.976 -0.0156 -0.8363 -0.9774
54110SOL    HW269192   3.694   5.752   1.010 -2.2773 -1.8072  1.8282
54111SOL     OW69193   0.989   8.513   8.248 -0.3777 -0.0424  0.0093
54111SOL    HW169194   0.974   8.574   8.320 -0.3550 -1.2040  1.0200
54111SOL    HW269195   0.902   8.480   8.226 -0.1053 -2.1207  1.7267
54112SOL     OW69196   6.377   6.130   8.794  0.0204 -0.7230  0.4805
54112SOL    HW169197   6.457   6.117   8.844  1.5769 -0.6047 -1.8045
54112SOL    HW269198   6.386   6.072   8.718 -1.0683  0.8178 -0.9095
54113SOL     OW69199   8.395   7.758   0.376  0.1576  0.3171 -0.0212
54113SOL    HW169200   8.412   7.722   0.289 -0.1184 -0.4744  0.2376
54113SOL    HW269201   8.390   7.852   0.364  0.8037  0.2674 -0.7505
54114SOL     OW69202   5.379   6.733   8.897  0.2531 -0.2492 -0.0216
54114SOL    HW169203   5.332   6.744   8.979 -2.9340  1.8982 -1.8804
54114SOL    HW269204   5.447   6.801   8.899 -1.1821  1.2344  0.0376
54115SOL     OW69205   1.517   6.365   8.804 -0.0926  0.3452 -0.6674
54115SOL    HW169206   1.594   6.324   8.843 -0.1420 -0.6528 -1.5789
54115SOL    HW269207   1.540   6.457   8.795 -0.5441  0.9587  2.8926
54116SOL     OW69208   0.864   1.092   3.248  0.0923 -0.0808 -0.4022
54116SOL    HW169209   0.801   1.077   3.318  1.1520 -0.3832  0.5251
54116SOL    HW269210   0.837   1.034   3.178 -0.6676 -0.1936 -0.0220
54117SOL     OW69211   8.965  10.387   1.135 -0.1467 -0.2085  0.7902
54117SOL    HW169212   8.953  10.445   1.060 -1.9571  0.2151  1.3420
54117SOL    HW269213   8.914  10.309   1.113  2.6054 -1.8859 -0.1365
54118SOL     OW69214   6.078   0.771   4.415 -0.1314 -0.5133 -0.0787
54118SOL    HW169215   5.985   0.778   4.439 -0.0407 -0.8017  0.3626
54118SOL    HW269216   6.119   0.847   4.456 -0.0954 -0.6335  0.1101
54119SOL     OW69217   8.137  12.168  11.484 -0.2641 -0.0087  0.3373
54119SOL    HW169218   8.128  12.107  11.411  0.2491  2.5233 -2.0276
54119SOL    HW269219   8.220  12.144  11.526  1.7295  1.0291 -2.6891
54120SOL     OW69220   9.535  11.504  10.181 -0.2526  0.5085  0.2537
54120SOL    HW169221   9.487  11.493  10.263  1.5436  0.3139  1.3455
54120SOL    HW269222   9.533  11.418  10.141  1.8047 -0.4102  1.8835
54121SOL     OW69223  11.440   9.115  11.695 -0.0414 -0.4441  0.0510
54121SOL    HW169224  11.360   9.135  11.742 -0.8309 -0.4538 -1.2495
54121SOL    HW269225  11.421   9.135  11.603  0.9132 -1.9228 -0.5170
54122SOL     OW69226   6.348   3.467  10.557 -0.4036  0.3288 -0.3457
54122SOL    HW169227   6.332   3.387  10.606 -0.3967 -0.0037 -0.8771
54122SOL    HW269228   6.387   3.527  10.621 -0.6857  0.0156  0.1274
54123SOL     OW69229   1.098  11.149   5.686 -0.0291  0.1535 -0.0584
54123SOL    HW169230   1.100  11.084   5.756 -0.1647 -1.6585 -1.6490
54123SOL    HW269231   1.005  11.166   5.671 -0.0345 -0.0880 -0.3197
54124SOL     OW69232   7.618   3.884   2.567 -0.2932 -0.3368 -0.2344
54124SOL    HW169233   7.641   3.808   2.621  0.0478 -0.5743 -0.7076
54124SOL    HW269234   7.528   3.905   2.592  0.0052 -0.1783  0.7344
54125SOL     OW69235  11.361   6.578   9.171 -0.1705  0.2868  0.4939
54125SOL    HW169236  11.454   6.556   9.180 -0.4241 -0.9862  0.1749
54125SOL    HW269237  11.325   6.569   9.259 -0.2624 -0.6024  0.3758
54126SOL     OW69238   0.383   3.277   8.919 -0.3690  0.5204  0.4808
54126SOL    HW169239   0.338   3.359   8.939 -0.2102  1.2574 -1.7908
54126SOL    HW269240   0.343   3.247   8.837  2.0790  0.3619 -0.7770
54127SOL     OW69241   5.082   4.236   4.402  0.3511  0.1613  0.3356
54127SOL    HW169242   5.071   4.290   4.323  0.6898 -0.3793 -0.0822
54127SOL    HW269243   5.067   4.147   4.373 -1.3852  0.0929  1.2562
54128SOL     OW69244   5.030   9.730   6.572  0.0097 -0.2959 -0.5342
54128SOL    HW169245   5.077   9.657   6.531 -0.8409  0.1777 -2.5001
54128SOL    HW269246   4.983   9.771   6.499  0.0275  1.8858  0.6201
54129SOL     OW69247   7.333   7.270   8.411  0.2586 -0.0535  0.3233
54129SOL    HW169248   7.387   7.206   8.365 -0.5227  0.9354 -2.1119
54129SOL    HW269249   7.243   7.239   8.399  0.0254  0.2349  1.2203
54130SOL     OW69250   8.444   7.297   1.250  0.0289  0.8597  0.0582
54130SOL    HW169251   8.357   7.282   1.286  0.9024  0.7906  2.3316
54130SOL    HW269252   8.482   7.209   1.244  0.4275  0.9991  0.4714
54131SOL     OW69253   9.179   7.893   7.174 -0.0070  0.0167  0.2351
54131SOL    HW169254   9.135   7.977   7.181  0.4488  0.4551 -1.6648
54131SOL    HW269255   9.228   7.885   7.256 -0.6009  1.2582  0.7381
54132SOL     OW69256   2.101   9.668  10.236 -0.1138  0.4074  0.6886
54132SOL    HW169257   2.134   9.578  10.228 -1.5486  0.0051 -1.4367
54132SOL    HW269258   2.144   9.702  10.315 -0.7409 -2.6556  2.5311
54133SOL     OW69259  11.875   0.991   6.554 -0.0731  0.2046 -0.7303
54133SOL    HW169260  11.900   0.969   6.643  0.0689 -1.4248 -1.1355
54133SOL    HW269261  11.780   0.977   6.551 -0.1027  0.4117 -0.8010
54134SOL     OW69262   2.042  11.048  10.163  0.2263 -0.5163 -0.4099
54134SOL    HW169263   2.105  11.022  10.231 -0.9453 -1.5927  0.3225
54134SOL    HW269264   1.956  11.028  10.202 -0.6186  1.6074 -1.0802
54135SOL     OW69265  11.464   6.370   8.551  0.2612  0.1863  0.5151
54135SOL    HW169266  11.464   6.366   8.456 -0.1587  2.1906  0.3721
54135SOL    HW269267  11.545   6.327   8.578  0.8668  0.4646 -0.8104
54136SOL     OW69268   8.804   1.971   3.834 -0.5727  0.4717 -0.1171
54136SOL    HW169269   8.756   2.023   3.899  0.9136  0.7326  0.8174
54136SOL    HW269270   8.751   1.892   3.823  0.1350 -0.5939  3.0684
54137SOL     OW69271   4.259   4.662  12.158 -0.7285 -0.1265  0.0178
54137SOL    HW169272   4.342   4.702  12.183  0.3212 -1.0916 -1.7623
54137SOL    HW269273   4.231   4.615  12.236 -0.2603  1.2062  1.0330
54138SOL     OW69274   6.760   1.480   1.902 -0.1146  0.0023 -0.2163
54138SOL    HW169275   6.808   1.493   1.984 -2.0869  1.4152  0.7916
54138SOL    HW269276   6.818   1.516   1.835  1.1705 -0.3830  0.6420
54139SOL     OW69277   4.737   0.067  12.258  0.7007  0.1666  0.1118
54139SOL    HW169278   4.681   0.131  12.214  1.1680  0.4551 -0.0652
54139SOL    HW269279   4.676   0.015  12.311 -0.0742 -1.0295 -1.8363
54140SOL     OW69280  10.071  11.286   4.509  0.5579 -0.2291  0.0532
54140SOL    HW169281  10.012  11.223   4.551  1.8648 -2.0744 -0.7362
54140SOL    HW269282  10.013  11.347   4.464 -0.7787 -1.4535  0.0455
54141SOL     OW69283   4.745   1.681   8.007 -0.2635 -0.5922 -0.6407
54141SOL    HW169284   4.706   1.670   7.920 -0.7665 -1.3793 -0.3291
54141SOL    HW269285   4.681   1.642   8.066 -0.0564  0.1817  0.1196
54142SOL     OW69286   2.899   4.340   2.714 -0.7613 -0.0358  0.6757
54142SOL    HW169287   2.934   4.427   2.695 -1.0653  0.0260  0.3977
54142SOL    HW269288   2.842   4.320   2.640  0.2651 -1.0073  0.1144
54143SOL     OW69289   0.087   7.453   3.990 -0.0704  0.1082 -0.1926
54143SOL    HW169290   0.182   7.454   3.986 -0.0917  1.0597 -0.8558
54143SOL    HW269291   0.064   7.365   4.021  1.0186 -0.0814  0.0950
54144SOL     OW69292   3.141   6.763   7.852 -0.4770  0.0640 -0.2115
54144SOL    HW169293   3.149   6.817   7.773 -0.7785  0.6398  0.1434
54144SOL    HW269294   3.059   6.716   7.840 -0.8916  0.6959  0.0766
54145SOL     OW69295   9.722   5.341  12.187 -0.1795  0.4194  0.5577
54145SOL    HW169296   9.818   5.333  12.186 -0.1472  0.7822 -0.3196
54145SOL    HW269297   9.706   5.430  12.157 -0.8318 -0.2210 -1.0964
54146SOL     OW69298  11.649   7.749   5.262 -0.1242  0.0332 -0.1097
54146SOL    HW169299  11.686   7.728   5.177 -1.7783  0.7858 -1.0513
54146SOL    HW269300  11.574   7.691   5.271  1.3040 -1.6663  1.9002
54147SOL     OW69301   4.673   2.479   8.420  0.5579  0.3642  0.0637
54147SOL    HW169302   4.751   2.473   8.365 -0.0950 -2.6738 -0.7474
54147SOL    HW269303   4.693   2.426   8.497  0.3089  1.9806  1.2822
54148SOL     OW69304   4.553  10.817   3.783 -0.2735 -0.0751  0.2119
54148SOL    HW169305   4.511  10.734   3.808 -1.2834  0.5210  0.5626
54148SOL    HW269306   4.500  10.850   3.711 -0.1609  0.4931  0.3845
54149SOL     OW69307   7.827   5.002   0.813  0.1650 -0.6155  0.3832
54149SOL    HW169308   7.871   4.918   0.824 -0.5167 -1.4340 -2.3989
54149SOL    HW269309   7.736   4.980   0.794 -0.8741  0.9402  2.9512
54150SOL     OW69310   7.419   4.793   8.383  0.4321  0.3509 -0.1254
54150SOL    HW169311   7.465   4.877   8.380  2.1164 -0.5205  0.2097
54150SOL    HW269312   7.334   4.812   8.343  1.0840  2.0153 -0.8568
54151SOL     OW69313  11.302   7.815   3.068 -0.4553  0.2730 -0.8807
54151SOL    HW169314  11.226   7.823   3.126 -0.7686  1.2750 -1.3940
54151SOL    HW269315  11.362   7.758   3.115 -1.7558 -1.0287 -0.7156
54152SOL     OW69316  11.903   4.088  10.234  0.1257  0.3683  0.0917
54152SOL    HW169317  11.961   4.108  10.160  2.1520 -2.1535  0.8708
54152SOL    HW269318  11.952   4.117  10.311 -0.6635  0.2681  0.6453
54153SOL     OW69319  12.230  10.116  12.195 -0.7345 -0.2865  0.0162
54153SOL    HW169320  12.320  10.137  12.219 -1.5255  1.9539  1.3061
54153SOL    HW269321  12.196  10.067  12.270 -1.5245  1.8027  1.1019
54154SOL     OW69322   8.746  10.339   5.331  0.4354 -0.0312  0.4356
54154SOL    HW169323   8.773  10.431   5.334  0.5035  0.0127 -0.8275
54154SOL    HW269324   8.671  10.339   5.272  0.0170 -0.7005  0.9573
54155SOL     OW69325   1.340   4.056   9.362 -0.3322  0.3021 -0.2378
54155SOL    HW169326   1.423   4.009   9.361 -0.6942 -0.3544 -1.9436
54155SOL    HW269327   1.311   4.050   9.453  0.3796 -1.4394 -0.0816
54156SOL     OW69328  12.041   7.009   1.179  0.1444  0.4858  0.6393
54156SOL    HW169329  12.002   6.962   1.105  0.2921  1.6151 -0.1781
54156SOL    HW269330  12.135   6.988   1.173  0.1669  0.6375  0.4620
54157SOL     OW69331   6.998   5.118  11.032  0.4784 -0.3530 -0.3067
54157SOL    HW169332   7.072   5.060  11.014  1.3005  0.8487 -0.9961
54157SOL    HW269333   6.945   5.115  10.953  0.4369 -0.3050 -0.2808
54158SOL     OW69334   5.185   2.134   3.164  0.3819  0.1807 -0.0162
54158SOL    HW169335   5.245   2.071   3.203 -0.0184  0.2810  0.7808
54158SOL    HW269336   5.103   2.122   3.211  0.1589  0.9584 -0.1889
54159SOL     OW69337   0.801   4.798  12.017  0.2759 -0.1575 -0.1039
54159SOL    HW169338   0.844   4.738  12.078  0.2246 -1.0482 -0.9084
54159SOL    HW269339   0.715   4.759  12.003 -0.4960  1.1499  0.8258
54160SOL     OW69340   0.280   6.580   1.287 -0.3227  0.4630  0.3972
54160SOL    HW169341   0.303   6.632   1.210 -2.8703  0.5557 -0.4077
54160SOL    HW269342   0.285   6.641   1.360 -0.1999  1.0115 -0.0622
54161SOL     OW69343  10.733   0.293   7.286 -0.3464  0.6579 -0.1491
54161SOL    HW169344  10.686   0.374   7.307 -1.7385  0.6585 -2.7988
54161SOL    HW269345  10.819   0.323   7.257 -1.0493  1.3203 -1.6823
54162SOL     OW69346   4.876   7.162   2.287 -0.0836 -0.3378 -0.0595
54162SOL    HW169347   4.878   7.187   2.195  1.1777 -0.2500 -0.0336
54162SOL    HW269348   4.792   7.119   2.299 -1.4423  2.0406 -0.6026
54163SOL     OW69349   9.211   0.215  10.338  0.0400 -0.7924 -0.1468
54163SOL    HW169350   9.260   0.260  10.407  1.0117  0.7674 -1.7631
54163SOL    HW269351   9.127   0.261  10.334  0.5543  0.1369 -0.9467
54164SOL     OW69352  10.371   6.461  11.651  0.1023  0.1793  0.3682
54164SOL    HW169353  10.317   6.387  11.621  0.3213 -0.1369  0.7483
54164SOL    HW269354  10.461   6.434  11.630  0.1689  0.4101  0.3580
54165SOL     OW69355  11.698   9.545   8.257  0.2948 -0.0569 -0.2438
54165SOL    HW169356  11.755   9.603   8.206  1.5981 -0.3575  0.7943
54165SOL    HW269357  11.670   9.478   8.195  2.2262 -0.6891 -0.5045
54166SOL     OW69358   6.766   4.747   7.739 -0.0910  0.7590  0.0913
54166SOL    HW169359   6.734   4.788   7.659  0.5519 -0.0762 -0.6119
54166SOL    HW269360   6.857   4.726   7.721 -0.7476 -2.3939 -0.2192
54167SOL     OW69361   0.361  10.469   9.260  0.1627 -0.0091 -0.6687
54167SOL    HW169362   0.365  10.553   9.214  0.9631  0.5581  0.3931
54167SOL    HW269363   0.364  10.492   9.352 -2.2189 -1.0718 -0.2503
54168SOL     OW69364   7.294   1.440   1.079  0.5135 -0.2945  0.0293
54168SOL    HW169365   7.351   1.371   1.115  0.2029 -0.1875  0.7428
54168SOL    HW269366   7.284   1.416   0.986  2.3192  0.1016 -0.3013
54169SOL     OW69367   8.426   3.565  10.941  0.4532  0.7805  0.2477
54169SOL    HW169368   8.433   3.661  10.937  1.7677  0.8144  2.0045
54169SOL    HW269369   8.353   3.550  11.002 -0.0109  0.6316 -0.3310
54170SOL     OW69370   5.610   9.136   1.423  0.1563  0.2815  0.1762
54170SOL    HW169371   5.574   9.108   1.339  1.9977  1.3120 -1.0114
54170SOL    HW269372   5.575   9.072   1.486 -0.1484 -1.3689 -1.5671
54171SOL     OW69373   5.116   4.378  12.140 -0.0103 -0.2056 -0.7031
54171SOL    HW169374   5.041   4.408  12.089 -0.4438 -0.8793 -0.4812
54171SOL    HW269375   5.084   4.373  12.230  0.3412 -0.3601 -0.5825
54172SOL     OW69376   3.208  11.216   3.231  0.5033  0.1467  0.5868
54172SOL    HW169377   3.125  11.183   3.196  0.5697 -0.3835  0.9188
54172SOL    HW269378   3.275  11.164   3.187  0.6331  0.1724  0.7530
54173SOL     OW69379   8.022   6.634  10.708 -0.2400 -0.3377 -0.3699
54173SOL    HW169380   8.085   6.681  10.763 -1.0833  1.3385 -0.7439
54173SOL    HW269381   8.009   6.550  10.752  0.5599  0.1812  0.9302
54174SOL     OW69382  10.087   8.736   8.099  0.1228 -0.3015 -0.1426
54174SOL    HW169383  10.182   8.747   8.099 -0.0221  1.3699  0.9002
54174SOL    HW269384  10.066   8.707   8.011  1.8023 -3.1776  0.2888
54175SOL     OW69385   2.227   0.741  11.800 -0.3459 -0.4173 -0.3852
54175SOL    HW169386   2.146   0.792  11.796 -0.0340  0.0974 -0.1865
54175SOL    HW269387   2.247   0.733  11.893  1.9134  2.8339 -0.4411
54176SOL     OW69388   3.982   2.250   4.591 -0.0401  0.5724  0.0514
54176SOL    HW169389   4.000   2.176   4.534 -0.0598 -0.0364  0.8281
54176SOL    HW269390   3.887   2.253   4.599 -0.0009  0.1536  0.7056
54177SOL     OW69391  10.120   5.736   6.241 -0.2963  0.5278 -1.1978
54177SOL    HW169392  10.103   5.805   6.305  1.8633  0.4265 -0.4147
54177SOL    HW269393  10.040   5.683   6.240 -0.0865 -0.0891  2.2798
54178SOL     OW69394   9.142   8.361   9.160 -0.2449  0.1725  0.3146
54178SOL    HW169395   9.186   8.407   9.089 -3.2087  0.1346 -1.7618
54178SOL    HW269396   9.067   8.416   9.182 -1.9626 -1.9524  0.1485
54179SOL     OW69397  10.216   1.275   8.886  0.4847 -0.1809 -0.0425
54179SOL    HW169398  10.225   1.185   8.855  0.1551 -0.1917 -0.1144
54179SOL    HW269399  10.131   1.303   8.852  0.3976  0.0184  0.3355
54180SOL     OW69400   9.919  11.792   5.612  0.5985 -0.9020 -0.0575
54180SOL    HW169401   9.901  11.701   5.588 -1.0517 -0.7287  0.3701
54180SOL    HW269402   9.986  11.786   5.680  0.5011 -1.7966 -0.0308
54181SOL     OW69403   5.163   0.876   3.895 -0.2019  0.1744 -0.5079
54181SOL    HW169404   5.102   0.931   3.846 -1.1024 -0.9112 -0.6355
54181SOL    HW269405   5.153   0.789   3.857  0.8009 -0.2032  0.0599
54182SOL     OW69406  12.419  12.054   5.841  0.1438  0.2478 -0.3032
54182SOL    HW169407  12.448  12.011   5.761 -0.2569 -1.0500  0.2368
54182SOL    HW269408  12.450  12.145   5.831  2.8707 -0.6126 -0.5291
54183SOL     OW69409   7.993  11.812  11.466  0.4642  0.6381  0.0941
54183SOL    HW169410   8.081  11.785  11.491  0.2900 -1.2073 -1.0741
54183SOL    HW269411   8.006  11.884  11.404  1.2761 -0.6721 -1.3248
54184SOL     OW69412   3.832   1.940   2.825  0.2705  0.0147 -0.2016
54184SOL    HW169413   3.890   1.907   2.893  0.2555  0.4173  0.0146
54184SOL    HW269414   3.768   1.871   2.812  0.7801 -0.4256 -0.4242
54185SOL     OW69415   0.062   2.940   2.009 -0.0875  0.0629 -0.2074
54185SOL    HW169416   0.034   3.004   2.074  0.1624  1.0135 -1.0104
54185SOL    HW269417   0.143   2.903   2.045  0.6049  1.3153 -0.4354
54186SOL     OW69418   4.890   2.783   0.883 -0.2605  0.4928  0.3120
54186SOL    HW169419   4.933   2.796   0.799  0.2876  0.4492  0.5836
54186SOL    HW269420   4.944   2.719   0.929 -0.6513  0.3846  0.6281
54187SOL     OW69421   1.867   4.148   6.339  0.3212  0.3116  0.1997
54187SOL    HW169422   1.782   4.105   6.348  0.2595  0.3951  0.0254
54187SOL    HW269423   1.896   4.125   6.250  0.6661 -0.0547  0.4035
54188SOL     OW69424   4.573   8.851   8.236 -0.2184 -0.5410 -0.2579
54188SOL    HW169425   4.540   8.855   8.325 -1.0604 -1.4817 -0.5052
54188SOL    HW269426   4.509   8.899   8.184 -0.4586 -1.1594 -0.5426
54189SOL     OW69427   9.168  10.342   2.780  0.0059 -0.1173  0.3602
54189SOL    HW169428   9.114  10.342   2.701  1.7447  1.5137 -0.8979
54189SOL    HW269429   9.113  10.382   2.847 -1.0438 -0.3615 -0.3295
54190SOL     OW69430   0.317   5.692   6.513  0.4754 -0.1905 -0.8488
54190SOL    HW169431   0.291   5.687   6.421 -0.6903  0.0412 -0.5452
54190SOL    HW269432   0.352   5.605   6.532 -2.2081 -1.3377 -0.6978
54191SOL     OW69433   9.557   7.756   6.105  0.4486  0.1238  0.4224
54191SOL    HW169434   9.610   7.679   6.125 -0.6906 -0.6361  0.5488
54191SOL    HW269435   9.621   7.822   6.078  1.3467 -1.3394 -1.2187
54192SOL     OW69436   4.734   4.769   7.779  0.1763 -0.2747  0.0448
54192SOL    HW169437   4.703   4.860   7.786 -2.9319 -1.2857  1.3296
54192SOL    HW269438   4.746   4.741   7.870 -0.7849 -1.6899 -0.2441
54193SOL     OW69439  11.506   2.688  11.973  0.3805 -0.5502  0.0754
54193SOL    HW169440  11.441   2.620  11.955 -0.2701 -0.1354  0.7847
54193SOL    HW269441  11.458   2.770  11.962  0.4292 -0.2553  1.7823
54194SOL     OW69442  10.896   3.312  11.625 -0.0923  0.3726  0.0515
54194SOL    HW169443  10.954   3.315  11.549 -1.3970 -0.3363 -1.0116
54194SOL    HW269444  10.940   3.253  11.686  0.3139 -0.1423 -0.7190
54195SOL     OW69445  10.403   8.719  12.064 -0.0568 -0.1573  0.2350
54195SOL    HW169446  10.337   8.777  12.103  0.2760  0.6601 -0.3893
54195SOL    HW269447  10.382   8.720  11.971  0.0270 -0.9641  0.2075
54196SOL     OW69448   5.905   0.475   9.574 -0.1078  1.1131  0.1323
54196SOL    HW169449   5.986   0.511   9.611  0.6031  0.0667 -0.3424
54196SOL    HW269450   5.894   0.523   9.491  0.5450  0.6386 -0.2456
54197SOL     OW69451  10.147   1.519  11.387  0.5857  0.5456  0.3328
54197SOL    HW169452  10.163   1.565  11.305 -0.9185 -0.3343 -0.5212
54197SOL    HW269453  10.168   1.427  11.367  0.3560  0.3491  0.9614
54198SOL     OW69454   7.546   0.236   7.767  0.0554  0.0567 -0.2971
54198SOL    HW169455   7.561   0.277   7.851  1.7536 -0.5816 -0.2446
54198SOL    HW269456   7.606   0.281   7.707  0.3730 -0.8642 -0.6922
54199SOL     OW69457  12.145   9.268  12.032  0.1345 -0.2478 -0.4283
54199SOL    HW169458  12.191   9.323  12.095 -0.5236  1.2794 -1.2340
54199SOL    HW269459  12.193   9.281  11.950 -1.1191  0.6256 -1.0580
54200SOL     OW69460  10.742   5.468   3.760  0.0586 -0.2045 -0.1938
54200SOL    HW169461  10.765   5.500   3.848  0.1327  0.7095 -0.5414
54200SOL    HW269462  10.806   5.508   3.702  0.3297 -1.2273 -0.6074
54201SOL     OW69463   7.646  11.419   1.098  0.0296  0.2995  0.2690
54201SOL    HW169464   7.555  11.392   1.110  0.4876 -0.6952  1.7501
54201SOL    HW269465   7.662  11.480   1.171 -0.2159  2.6614 -1.5362
54202SOL     OW69466   5.919   4.132  10.776 -0.2438 -0.2617  0.1013
54202SOL    HW169467   5.988   4.197  10.771 -0.2714 -0.1696  0.7914
54202SOL    HW269468   5.840   4.179  10.748  0.3294 -1.0025 -3.1278
54203SOL     OW69469   0.410   2.403   1.224  0.0617 -0.4070  0.3106
54203SOL    HW169470   0.471   2.425   1.295  0.7254 -0.4543 -0.2418
54203SOL    HW269471   0.453   2.333   1.176 -0.4950 -0.5400 -0.0088
54204SOL     OW69472  11.870   0.483  11.230  0.5859  0.0392 -0.0863
54204SOL    HW169473  11.837   0.563  11.187  1.0215 -0.6350 -1.7408
54204SOL    HW269474  11.962   0.501  11.246  1.3236 -0.9904 -2.7405
54205SOL     OW69475   6.823  10.008  12.437  0.4688 -0.3128 -0.1365
54205SOL    HW169476   6.847  10.100  12.445 -0.0796 -0.1803 -0.0042
54205SOL    HW269477   6.820   9.976  12.528 -0.2466 -0.2247 -0.1245
54206SOL     OW69478  11.686   2.920   1.744 -0.8648  0.1563 -0.4262
54206SOL    HW169479  11.633   2.848   1.778  1.0928 -1.0670  0.1866
54206SOL    HW269480  11.713   2.969   1.821 -0.6912  0.4659 -0.6811
54207SOL     OW69481   3.593  10.322   9.297  0.7062  0.0983  1.0375
54207SOL    HW169482   3.681  10.284   9.291  0.6959  0.2355 -2.2282
54207SOL    HW269483   3.536  10.256   9.255  0.0322  1.8010 -0.9164
54208SOL     OW69484   8.458   2.413   4.918 -0.1168  0.0868  0.1026
54208SOL    HW169485   8.374   2.446   4.948  0.6090  0.9263  1.3250
54208SOL    HW269486   8.516   2.489   4.921  0.4331 -0.1913 -1.8494
54209SOL     OW69487   9.265   2.538   1.890  0.2154 -0.5756 -0.5721
54209SOL    HW169488   9.311   2.460   1.920  0.2860 -0.4330 -0.3093
54209SOL    HW269489   9.309   2.562   1.808 -1.2030 -2.0693 -1.8313
54210SOL     OW69490   7.920  10.110   2.201  0.1410  0.1732  0.1544
54210SOL    HW169491   7.954  10.195   2.174 -0.1473  0.5724  1.0025
54210SOL    HW269492   7.850  10.091   2.139  1.1716 -0.1717 -0.9667
54211SOL     OW69493   1.968  10.205  10.291 -0.1734 -0.0971 -0.0591
54211SOL    HW169494   1.974  10.164  10.377 -0.6217  1.3469  0.6960
54211SOL    HW269495   1.976  10.299  10.308  2.9962  0.1084 -1.9516
54212SOL     OW69496   6.695   4.305   4.268 -0.1296  0.1989  0.2135
54212SOL    HW169497   6.775   4.338   4.228  0.4871 -0.7048  0.6771
54212SOL    HW269498   6.627   4.320   4.202  1.0686 -2.4706 -1.8003
54213SOL     OW69499   0.661   0.077  12.036  0.4442  0.0389  0.2756
54213SOL    HW169500   0.697   0.132  11.967  0.1661 -1.3032 -0.9976
54213SOL    HW269501   0.605   0.135  12.087  2.9005  1.7745  1.2349
54214SOL     OW69502   8.209   5.280  11.913 -0.5076 -0.4976 -0.7097
54214SOL    HW169503   8.178   5.193  11.885 -0.3142 -0.6459 -0.4719
54214SOL    HW269504   8.273   5.305  11.846  0.0890 -0.9321 -0.3210
54215SOL     OW69505   4.685  11.686   1.097 -0.6910 -0.0397 -0.3513
54215SOL    HW169506   4.610  11.627   1.110  0.1470 -1.1276 -0.2921
54215SOL    HW269507   4.695  11.730   1.181 -0.4682 -0.8657  0.0707
54216SOL     OW69508   4.384   9.230   5.533  0.3902 -0.3420 -0.4840
54216SOL    HW169509   4.442   9.190   5.598  0.6228 -0.0488 -0.5092
54216SOL    HW269510   4.308   9.259   5.584  0.7081  0.1571 -0.2952
54217SOL     OW69511  11.850  10.917   3.680  0.4848  0.2211  0.1638
54217SOL    HW169512  11.758  10.896   3.693  0.2017  1.6869  0.6936
54217SOL    HW269513  11.897  10.850   3.730 -0.2848 -0.5671 -0.1604
54218SOL     OW69514   1.720   0.211   9.880  0.3612  0.0120 -0.4070
54218SOL    HW169515   1.806   0.179   9.906  0.4679  1.4060  1.1496
54218SOL    HW269516   1.658   0.156   9.928  0.4207 -0.1793 -0.5488
54219SOL     OW69517   2.120   2.009  10.031 -0.1782 -0.5448 -0.8361
54219SOL    HW169518   2.109   1.967   9.946  0.2479 -0.1188 -1.1061
54219SOL    HW269519   2.189   2.075  10.017  1.3341 -1.8057  0.3034
54220SOL     OW69520   4.912   4.729   1.586 -0.2486  0.2055 -0.4252
54220SOL    HW169521   4.971   4.772   1.649 -1.4587 -1.2526  1.8547
54220SOL    HW269522   4.825   4.763   1.608 -0.4225  2.5565 -3.9281
54221SOL     OW69523   7.442   6.254  11.202 -0.0821 -0.1493  0.3756
54221SOL    HW169524   7.437   6.191  11.274  0.8972  1.1280  1.6247
54221SOL    HW269525   7.363   6.238  11.151 -0.9380 -0.9439  1.8665
54222SOL     OW69526   5.223   2.146   5.144  0.3354 -0.7308  0.1271
54222SOL    HW169527   5.261   2.231   5.121 -0.9661 -0.2464 -0.3004
54222SOL    HW269528   5.209   2.103   5.060  2.1034 -1.9173  0.3739
54223SOL     OW69529   9.110   1.851   2.080  0.3968  0.8957  0.1618
54223SOL    HW169530   9.122   1.871   1.987  1.9004  0.9204  0.3293
54223SOL    HW269531   9.100   1.936   2.122 -0.7268  0.8616 -0.0214
54224SOL     OW69532  11.840  10.913  11.359  0.0462  0.2797 -0.3222
54224SOL    HW169533  11.793  10.975  11.305  1.2126 -0.5413 -2.4007
54224SOL    HW269534  11.889  10.967  11.421 -1.3349  1.2490 -0.0443
54225SOL     OW69535   9.110   9.095   7.042  0.4615  1.4060  0.3621
54225SOL    HW169536   9.059   9.115   7.121  1.3063  0.4981  1.1711
54225SOL    HW269537   9.082   9.161   6.978  0.7688  3.0705  1.8527
54226SOL     OW69538   1.509  10.359   3.184  0.0496 -0.4654 -0.2635
54226SOL    HW169539   1.487  10.330   3.273 -0.3981  0.7169  0.0371
54226SOL    HW269540   1.581  10.303   3.158  0.7666 -0.2830  1.1981
54227SOL     OW69541   8.164   5.123   6.147 -0.0654  0.4041  0.2813
54227SOL    HW169542   8.125   5.162   6.068 -0.3065 -1.1878 -0.4221
54227SOL    HW269543   8.256   5.111   6.124 -0.3158 -0.8993 -0.1375
54228SOL     OW69544   8.004   9.530   7.800  0.1884  0.4010  0.0907
54228SOL    HW169545   7.960   9.471   7.739  0.5286  0.9096 -0.6581
54228SOL    HW269546   8.090   9.546   7.760  0.7721  0.0164  1.1558
54229SOL     OW69547   6.753   7.267   3.868  0.5094  0.3013 -0.1733
54229SOL    HW169548   6.660   7.290   3.863  0.5546  0.9417  1.4019
54229SOL    HW269549   6.791   7.304   3.788 -0.8834 -1.7265 -1.9159
54230SOL     OW69550   1.700   7.929  11.040  0.2079 -0.3381  0.0849
54230SOL    HW169551   1.631   7.994  11.026  0.5377  0.4046  1.6859
54230SOL    HW269552   1.691   7.904  11.132  2.4955  0.3131  0.5478
54231SOL     OW69553  10.068   9.525   4.365 -0.3911  0.3742  0.1355
54231SOL    HW169554   9.990   9.482   4.398 -0.6323 -0.0216 -0.9187
54231SOL    HW269555  10.138   9.461   4.377 -0.7811 -0.4435 -1.5981
54232SOL     OW69556   0.307   1.451   8.443 -0.1253 -0.4039  0.4052
54232SOL    HW169557   0.359   1.512   8.494  1.1777 -1.5094  0.4764
54232SOL    HW269558   0.217   1.481   8.454  0.1871 -0.0585  2.6077
54233SOL     OW69559   5.037   2.448   5.256 -0.0689 -0.4235 -0.6705
54233SOL    HW169560   5.048   2.373   5.315  0.2819  0.5456  0.5527
54233SOL    HW269561   5.118   2.449   5.204  1.4637  0.9044  1.5196
54234SOL     OW69562   9.002   9.032   7.830 -0.2734 -0.3971  0.2470
54234SOL    HW169563   9.017   8.958   7.772 -1.4610  0.0059 -0.6030
54234SOL    HW269564   8.937   9.001   7.893  0.0096 -0.4112  0.5315
54235SOL     OW69565   3.892   7.398   1.688 -0.6608  0.2485  0.2121
54235SOL    HW169566   3.958   7.331   1.705  0.2209  1.7212  3.3216
54235SOL    HW269567   3.942   7.478   1.672 -1.6299  1.2570  1.9367
54236SOL     OW69568   4.564   8.508   5.478  0.2397 -0.4312 -0.3862
54236SOL    HW169569   4.570   8.432   5.536  0.5290 -0.3994 -0.3714
54236SOL    HW269570   4.643   8.559   5.498 -0.5506  0.5045  0.4856
54237SOL     OW69571   9.874  11.689  10.482  0.3890 -0.4728  0.0275
54237SOL    HW169572   9.894  11.668  10.573  0.3314  0.1400  0.1846
54237SOL    HW269573   9.778  11.681  10.476  0.0702  1.9962  0.7010
54238SOL     OW69574   1.943   9.330   3.301 -1.0359  0.0691 -0.4739
54238SOL    HW169575   1.982   9.245   3.322 -0.2538  0.7471  1.0233
54238SOL    HW269576   1.881   9.312   3.231 -1.9996 -2.0029  0.8235
54239SOL     OW69577  11.753   7.680   2.730 -0.3742  0.6993  0.1602
54239SOL    HW169578  11.666   7.719   2.722 -0.8849 -0.6149 -1.1621
54239SOL    HW269579  11.747   7.597   2.682  0.7895 -0.8096  2.4043
54240SOL     OW69580   3.487  10.529   9.973 -0.0616  0.1482 -0.1881
54240SOL    HW169581   3.542  10.476   9.915 -1.6790 -1.1586 -0.6051
54240SOL    HW269582   3.418  10.563   9.916 -1.0933 -0.3141  0.7421
54241SOL     OW69583   5.517   7.618   4.780  0.2564  0.1801 -0.1128
54241SOL    HW169584   5.564   7.692   4.740  0.6791  0.1757  0.3706
54241SOL    HW269585   5.531   7.545   4.719 -0.5472  0.6007 -0.8305
54242SOL     OW69586   9.302   3.691   4.378  0.0294 -0.1050  0.2707
54242SOL    HW169587   9.317   3.715   4.470 -1.0363 -0.7475  0.6262
54242SOL    HW269588   9.267   3.602   4.382  2.4087 -1.2082 -0.9242
54243SOL     OW69589   5.470   8.261  10.380 -0.1178 -0.0591  0.1872
54243SOL    HW169590   5.447   8.322  10.450  0.6538 -1.1998  1.4785
54243SOL    HW269591   5.453   8.310  10.299  1.2916  2.1784  1.1479
54244SOL     OW69592   7.475   2.111   4.512 -0.5919 -0.1373  0.7180
54244SOL    HW169593   7.437   2.198   4.528  0.5591  0.4273  0.4919
54244SOL    HW269594   7.569   2.127   4.507 -0.4357 -1.2599 -0.3040
54245SOL     OW69595   8.156   2.446   3.697 -0.0311  0.2570  0.5408
54245SOL    HW169596   8.230   2.507   3.704  0.5271 -0.4790  1.2327
54245SOL    HW269597   8.194   2.360   3.713 -0.4768 -0.5276 -2.1959
54246SOL     OW69598  11.119  11.012   3.753 -0.3272 -0.3970 -0.7210
54246SOL    HW169599  11.025  11.030   3.752 -0.2651  0.0302  0.0589
54246SOL    HW269600  11.157  11.073   3.690 -0.3906  0.5684  0.1661
54247SOL     OW69601   2.211   3.530  10.643  0.3997 -0.1595 -0.2488
54247SOL    HW169602   2.305   3.538  10.654  0.4985  2.0235 -1.9164
54247SOL    HW269603   2.198   3.448  10.595  1.5159 -0.1477 -0.5819
54248SOL     OW69604  11.373   0.829  11.301  0.6149 -0.4470  0.1473
54248SOL    HW169605  11.308   0.784  11.246 -1.5304  0.4067  1.8248
54248SOL    HW269606  11.441   0.764  11.315 -0.4212 -1.7977 -0.7735
54249SOL     OW69607   3.302   3.645   1.702 -0.0983 -0.2435  0.0435
54249SOL    HW169608   3.232   3.610   1.758 -0.4381 -2.3730 -1.6094
54249SOL    HW269609   3.383   3.628   1.751 -0.2848 -3.1341 -0.5255
54250SOL     OW69610   6.295   5.873   4.991 -0.3096 -0.6445 -0.6906
54250SOL    HW169611   6.216   5.828   4.958  0.5278  0.0552 -3.9888
54250SOL    HW269612   6.318   5.935   4.922  1.4160  1.3956  1.5561
54251SOL     OW69613   0.178  11.028   7.700  0.0816  0.3496  0.0782
54251SOL    HW169614   0.134  11.020   7.615 -0.9708  0.6503  0.5781
54251SOL    HW269615   0.190  10.937   7.729 -0.8294  0.2740  0.2399
54252SOL     OW69616   4.729   8.789   7.665 -0.1442  0.2236  0.2327
54252SOL    HW169617   4.756   8.725   7.731  2.2747  0.3101 -0.5853
54252SOL    HW269618   4.686   8.858   7.715 -0.2242 -0.6974  1.4695
54253SOL     OW69619   4.865  11.048   1.972  0.0763 -0.5936  0.6037
54253SOL    HW169620   4.781  11.094   1.973  0.6262  0.4379  0.8202
54253SOL    HW269621   4.876  11.021   1.881 -0.1611 -0.0979  0.4217
54254SOL     OW69622   0.897   8.835   3.138 -0.3967 -0.1649 -0.1675
54254SOL    HW169623   0.843   8.860   3.213  0.3480  2.0629 -0.3079
54254SOL    HW269624   0.834   8.812   3.070 -1.1156 -0.3745  0.5529
54255SOL     OW69625  11.707   9.154   1.001  0.1702 -0.2834  0.2088
54255SOL    HW169626  11.801   9.137   1.005 -0.0409 -1.2845  2.4248
54255SOL    HW269627  11.691   9.214   1.074 -1.1259 -1.3504  0.8343
54256SOL     OW69628   1.644   2.529   9.462 -0.1253  0.3606  0.3983
54256SOL    HW169629   1.556   2.500   9.440 -0.6014  0.7699  1.6623
54256SOL    HW269630   1.633   2.618   9.495  1.0109  1.1002 -1.1232
54257SOL     OW69631   9.020   4.804   3.987  0.6310 -0.2526  0.0938
54257SOL    HW169632   8.987   4.789   3.899 -1.4332  0.3614  0.7027
54257SOL    HW269633   8.953   4.768   4.045  1.2945  0.5325  1.4156
54258SOL     OW69634   5.699   0.042  11.769 -1.2313 -0.2997 -0.3886
54258SOL    HW169635   5.669   0.012  11.855 -1.1759 -1.2404 -0.6855
54258SOL    HW269636   5.788   0.008  11.761 -0.1868  2.0743  0.2908
54259SOL     OW69637  10.721   3.451   4.588 -0.4824  0.3193 -0.5554
54259SOL    HW169638  10.769   3.460   4.506  0.9435 -1.4972  0.0221
54259SOL    HW269639  10.643   3.400   4.565 -0.5080  0.5239 -0.9279
54260SOL     OW69640   6.528   8.341   3.736 -0.2684 -0.0244 -0.1598
54260SOL    HW169641   6.593   8.334   3.666 -0.3439  0.8719 -0.3221
54260SOL    HW269642   6.480   8.258   3.731  0.3728 -0.3860 -0.5150
54261SOL     OW69643   8.596  10.181   7.047 -0.0777 -0.3534 -0.5047
54261SOL    HW169644   8.630  10.268   7.024  0.6284 -0.0993  1.2899
54261SOL    HW269645   8.551  10.194   7.130 -2.1733 -1.2653 -1.4352
54262SOL     OW69646   4.273   0.752   2.457  0.0404 -0.1176  0.3065
54262SOL    HW169647   4.321   0.743   2.539  0.3774 -1.4327 -0.0110
54262SOL    HW269648   4.335   0.797   2.398  0.0313  0.2435  0.5647
54263SOL     OW69649   8.926   9.615  10.999  0.5930  0.1114  0.1426
54263SOL    HW169650   8.860   9.676  10.967 -0.4234 -0.1177  1.6976
54263SOL    HW269651   8.942   9.556  10.926 -0.7244  0.3521 -0.3596
54264SOL     OW69652  11.944  10.620  12.419  0.1634 -0.3467 -0.0453
54264SOL    HW169653  11.993  10.642  12.499 -0.5887  0.2581  0.2582
54264SOL    HW269654  11.975  10.682  12.354  1.0863 -1.1119 -0.3539
54265SOL     OW69655   9.295   3.643   8.958 -0.5100 -0.3306  0.4964
54265SOL    HW169656   9.376   3.675   8.999  0.0600  1.1012 -1.5801
54265SOL    HW269657   9.265   3.715   8.903 -1.4876 -1.9117 -1.1963
54266SOL     OW69658   3.525   2.005   0.986 -0.0125 -0.1387  0.4888
54266SOL    HW169659   3.577   2.014   0.906  0.3048  0.0107  0.7088
54266SOL    HW269660   3.562   2.070   1.047 -0.0885 -0.4212  0.8411
54267SOL     OW69661   1.608   7.294   7.886  0.0382 -0.2874 -0.1367
54267SOL    HW169662   1.683   7.304   7.827  1.0871 -0.8642  1.0674
54267SOL    HW269663   1.537   7.264   7.829  0.7456  0.1249 -1.2691
54268SOL     OW69664  12.275   7.479   8.277 -0.6260  0.1434  0.7193
54268SOL    HW169665  12.364   7.477   8.243 -0.3470 -0.4395  1.4660
54268SOL    HW269666  12.219   7.484   8.199 -0.0064 -1.2724  0.1602
54269SOL     OW69667   2.371   8.061   7.243  0.3867  0.3062 -0.2514
54269SOL    HW169668   2.396   8.151   7.261 -0.1932  0.2614  0.9280
54269SOL    HW269669   2.287   8.050   7.288  0.2825 -0.7234 -0.6526
54270SOL     OW69670   8.060   8.064  12.114  0.1573 -0.1249  0.7929
54270SOL    HW169671   7.977   8.076  12.161 -1.0839 -0.7429 -1.1365
54270SOL    HW269672   8.045   7.988  12.058  1.2956  1.0345 -1.1812
54271SOL     OW69673  11.401  12.182   0.511 -0.3765  0.3450  0.1031
54271SOL    HW169674  11.415  12.123   0.436 -1.3910 -1.0026  0.9392
54271SOL    HW269675  11.460  12.148   0.579  0.7667  1.7484 -0.1289
54272SOL     OW69676   3.179   5.186  11.923  0.2682  0.1849  0.2721
54272SOL    HW169677   3.152   5.157  11.836  1.9793 -1.0000  0.0864
54272SOL    HW269678   3.113   5.151  11.983  0.0415 -0.5205 -0.3858
54273SOL     OW69679   5.682   9.346   5.217  0.0699 -0.0009  0.0434
54273SOL    HW169680   5.659   9.291   5.141  0.4593  0.9758 -0.8071
54273SOL    HW269681   5.649   9.433   5.194  0.7883  0.4544  0.7163
54274SOL     OW69682   3.068   6.435  12.329 -0.4530  0.3545 -0.4092
54274SOL    HW169683   3.135   6.501  12.348  0.0361 -0.1471 -0.3883
54274SOL    HW269684   3.056   6.389  12.412 -1.1580  0.7383 -0.2896
54275SOL     OW69685   4.461   4.207   4.087 -0.2606 -0.4005  0.3280
54275SOL    HW169686   4.398   4.279   4.090  0.8075  0.7289 -1.7350
54275SOL    HW269687   4.424   4.146   4.023  0.9620  0.6074 -1.4357
54276SOL     OW69688   3.807   9.733  10.337 -0.0067  0.3426 -0.7501
54276SOL    HW169689   3.827   9.767  10.250 -1.7292  3.1135 -0.2049
54276SOL    HW269690   3.857   9.790  10.396 -0.7275  0.0878  0.1308
54277SOL     OW69691   6.720   8.839   6.064  0.4551  0.2157  0.2495
54277SOL    HW169692   6.702   8.796   5.980 -1.9224  0.7956  0.3841
54277SOL    HW269693   6.677   8.784   6.129  0.3039  0.9729  0.8080
54278SOL     OW69694   6.662   4.828   7.196  0.4934 -0.2887 -0.0954
54278SOL    HW169695   6.683   4.734   7.197  0.2890 -0.3505 -0.9676
54278SOL    HW269696   6.747   4.871   7.206  0.5890 -0.5596  0.3029
54279SOL     OW69697   3.239   3.789   0.434 -0.4344 -0.6209  0.1202
54279SOL    HW169698   3.218   3.767   0.343  1.2051 -1.0574 -0.1851
54279SOL    HW269699   3.317   3.737   0.454 -0.3378  0.0255  1.5525
54280SOL     OW69700  10.073   9.745   6.698  0.0997  0.5494  0.2320
54280SOL    HW169701  10.131   9.701   6.636 -1.0233  0.6619 -0.9563
54280SOL    HW269702  10.042   9.675   6.756 -1.0337 -0.1387 -1.1264
54281SOL     OW69703   5.565   1.391  10.761  0.6582  0.5622  0.6890
54281SOL    HW169704   5.603   1.327  10.701 -0.7299 -0.8448  1.2310
54281SOL    HW269705   5.632   1.402  10.829  0.8614 -0.4417  0.6712
54282SOL     OW69706   0.777  11.783   1.812 -0.4761  1.1729 -0.1297
54282SOL    HW169707   0.694  11.809   1.853 -0.6331  1.1338 -0.4188
54282SOL    HW269708   0.757  11.701   1.767 -0.3081  1.2208 -0.2929
54283SOL     OW69709  11.211   5.238   8.330  0.6822 -0.4432 -0.3189
54283SOL    HW169710  11.201   5.253   8.424 -1.7850  0.6775 -0.6719
54283SOL    HW269711  11.138   5.180   8.307 -1.1575  2.2760 -2.0522
54284SOL     OW69712   6.707   1.498   5.253 -0.2878 -0.1756 -0.1856
54284SOL    HW169713   6.626   1.448   5.248 -0.2110 -0.2549 -0.7050
54284SOL    HW269714   6.696   1.554   5.330 -0.4553 -0.8406  0.2755
54285SOL     OW69715   8.207  11.529   3.868 -0.2011 -0.0997 -0.1073
54285SOL    HW169716   8.158  11.455   3.903 -1.7462  1.6635  1.7156
54285SOL    HW269717   8.296  11.517   3.903 -0.8253 -0.2903  1.5173
54286SOL     OW69718   3.741   7.780  10.377 -0.1694  0.3178  0.2304
54286SOL    HW169719   3.820   7.728  10.359 -0.7572  0.0280 -1.6952
54286SOL    HW269720   3.728   7.770  10.471  1.1658 -0.9834  0.3253
54287SOL     OW69721   5.824  12.079   0.256  0.7462 -0.4576  0.0005
54287SOL    HW169722   5.860  11.995   0.286 -1.3200 -1.1267  0.8314
54287SOL    HW269723   5.888  12.144   0.284  0.3711 -1.3472  3.3872
54288SOL     OW69724   7.499  11.703   9.516  0.0251 -0.2080  0.3819
54288SOL    HW169725   7.561  11.635   9.491  0.3840 -0.3301  1.5300
54288SOL    HW269726   7.540  11.746   9.592  0.4629  2.1921 -1.1072
54289SOL     OW69727   7.285   0.976   4.639  0.2267  0.2408 -0.0268
54289SOL    HW169728   7.190   0.981   4.624  0.5472  0.0043 -2.7392
54289SOL    HW269729   7.314   0.904   4.584  2.1969  1.3927 -0.6080
54290SOL     OW69730  11.423   0.471  11.859  0.3995  0.2293 -0.0107
54290SOL    HW169731  11.450   0.562  11.849 -0.4438  0.4274 -0.6311
54290SOL    HW269732  11.462   0.425  11.785 -1.5048  0.6725 -1.3912
54291SOL     OW69733   8.746  12.433  12.062  0.2198 -0.2367  0.3351
54291SOL    HW169734   8.710  12.518  12.087 -0.8499 -1.1833  2.2470
54291SOL    HW269735   8.825  12.423  12.115  0.7210 -0.1660 -0.3843
54292SOL     OW69736   9.970   7.055   4.004  0.2070  0.2886  0.4093
54292SOL    HW169737   9.985   7.115   4.077  1.0103  1.1359 -0.4189
54292SOL    HW269738   9.942   7.111   3.932  1.1242 -0.2928 -0.4291
54293SOL     OW69739  12.333   2.642  10.717 -0.4355 -0.1978  0.1410
54293SOL    HW169740  12.424   2.610  10.720 -0.9843 -1.7403  1.7822
54293SOL    HW269741  12.294   2.594  10.644 -0.4115 -0.9545  0.6125
54294SOL     OW69742   8.198   9.707  10.335 -0.3391 -0.1309 -0.1231
54294SOL    HW169743   8.216   9.727  10.243  1.7055  0.3431  0.3175
54294SOL    HW269744   8.104   9.718  10.345 -0.5650  0.0180 -2.1113
54295SOL     OW69745   9.732   9.400   6.222  0.4671  0.0544 -0.7276
54295SOL    HW169746   9.665   9.468   6.210  0.8360  0.6989  0.6356
54295SOL    HW269747   9.812   9.449   6.240  0.8112 -0.7350 -0.0603
54296SOL     OW69748  10.673   0.219   5.262 -0.4394  0.1350  0.0206
54296SOL    HW169749  10.626   0.252   5.186  0.8530 -0.8679 -1.2634
54296SOL    HW269750  10.749   0.278   5.270 -0.6276  0.3048  0.6195
54297SOL     OW69751   6.705   7.863   2.294  0.3890  0.0548  0.2191
54297SOL    HW169752   6.787   7.825   2.325  1.0666  1.3433  0.0632
54297SOL    HW269753   6.655   7.788   2.260  1.8871 -0.6398 -0.5481
54298SOL     OW69754   1.064  10.188   3.837 -0.1813  0.5336 -0.5075
54298SOL    HW169755   1.017  10.259   3.793  0.6812  1.6997  0.3922
54298SOL    HW269756   0.997  10.120   3.851 -1.2748  1.5904 -0.4616
54299SOL     OW69757   1.956   5.502   5.225  0.2567 -0.1250  0.5517
54299SOL    HW169758   1.873   5.528   5.265 -0.0340  0.8262 -0.6370
54299SOL    HW269759   1.999   5.449   5.293  0.1438  2.0834  2.4616
54300SOL     OW69760   3.181  11.457   3.824  0.3170 -0.0624 -0.0275
54300SOL    HW169761   3.202  11.400   3.750 -0.1408 -0.2794  0.0052
54300SOL    HW269762   3.108  11.413   3.868  0.8128 -0.1191  0.7594
54301SOL     OW69763   7.716   9.720   7.395 -0.4817  0.4786 -0.0011
54301SOL    HW169764   7.656   9.721   7.321 -1.0011  2.5642  0.3708
54301SOL    HW269765   7.665   9.682   7.467  0.0096 -1.5026 -0.6440
54302SOL     OW69766   6.231   4.354  11.051 -0.1749 -0.3989  0.3754
54302SOL    HW169767   6.138   4.376  11.037 -0.3689 -1.1324  0.4909
54302SOL    HW269768   6.248   4.381  11.142 -0.6742 -1.5894  0.8363
54303SOL     OW69769   8.787   2.406   6.017  0.2761  0.2802 -0.1444
54303SOL    HW169770   8.834   2.343   5.962  2.1978  1.0208  0.5601
54303SOL    HW269771   8.715   2.437   5.963 -0.3465 -2.0079 -0.7483
54304SOL     OW69772  11.920   7.280  10.473 -0.0127 -0.2067  0.3561
54304SOL    HW169773  11.989   7.227  10.433  0.3475  0.4863  0.0427
54304SOL    HW269774  11.936   7.369  10.440 -1.5866 -0.1871 -0.4552
54305SOL     OW69775   0.691   2.100   8.939  0.3482  0.3500 -0.3956
54305SOL    HW169776   0.774   2.109   8.893 -0.2336  0.8186 -1.4008
54305SOL    HW269777   0.713   2.108   9.031  1.7076 -1.6863 -0.4839
54306SOL     OW69778   3.669   2.663  10.651  0.2335  0.3025  0.1867
54306SOL    HW169779   3.624   2.698  10.728 -1.1252  2.0275 -1.3104
54306SOL    HW269780   3.762   2.674  10.671  0.0540 -1.7964  2.6590
54307SOL     OW69781   8.857   8.950   1.987  0.6345  0.1523  0.2556
54307SOL    HW169782   8.870   9.036   1.947 -1.0734  0.7941  0.9835
54307SOL    HW269783   8.769   8.954   2.024 -0.7258 -2.8474 -2.1315
54308SOL     OW69784   6.298   5.331   3.122  0.6698 -0.4842  0.0024
54308SOL    HW169785   6.332   5.414   3.087 -1.1766  0.3644  0.1034
54308SOL    HW269786   6.204   5.335   3.105  0.3488 -1.9580  1.2550
54309SOL     OW69787   0.960  12.271  11.398 -0.1170  0.4247  0.3691
54309SOL    HW169788   1.050  12.271  11.430  0.5975 -0.1841 -1.5205
54309SOL    HW269789   0.946  12.182  11.366 -0.0136  1.4279 -2.8825
54310SOL     OW69790  11.649  11.827   7.334  0.1897 -0.1356  0.0853
54310SOL    HW169791  11.686  11.912   7.308 -1.6390  0.5070 -0.5624
54310SOL    HW269792  11.559  11.829   7.302 -0.2780 -1.8374  1.1602
54311SOL     OW69793   3.459   1.015  11.033  0.3342  0.3215  0.2879
54311SOL    HW169794   3.470   1.046  11.123  2.5514  0.0099  0.1912
54311SOL    HW269795   3.517   0.940  11.026 -0.3771 -0.1327 -1.2075
54312SOL     OW69796   9.939  11.479   0.112 -0.2338  0.1350  0.3990
54312SOL    HW169797   9.969  11.567   0.090 -0.8083 -0.1319 -1.6059
54312SOL    HW269798  10.017  11.424   0.106 -0.2942  0.1451 -0.6376
54313SOL     OW69799   0.041   6.928  10.466 -0.0728  0.4785  0.0782
54313SOL    HW169800   0.022   6.859  10.531 -0.4613  0.6194  0.1163
54313SOL    HW269801   0.082   6.881  10.393  0.3455  0.3140  0.4136
54314SOL     OW69802   6.352   6.362   0.110 -0.0299  0.8327 -0.3453
54314SOL    HW169803   6.361   6.450   0.073 -0.0707  0.0802 -2.2544
54314SOL    HW269804   6.258   6.348   0.116 -0.0232  0.9628  0.0871
54315SOL     OW69805   3.739   7.000   1.992 -0.1573  0.2172  0.4960
54315SOL    HW169806   3.743   6.921   2.045 -1.9883 -1.4829 -1.6631
54315SOL    HW269807   3.815   6.994   1.934 -0.1538  0.1735  0.5052
54316SOL     OW69808  10.073   0.578  10.576 -0.8462 -0.0646  0.3037
54316SOL    HW169809  10.011   0.618  10.637  0.0745  0.8913  0.6565
54316SOL    HW269810  10.064   0.629  10.495 -0.3619  0.2522  0.4404
54317SOL     OW69811   9.927  11.548   0.743  0.5053 -0.1762  0.3626
54317SOL    HW169812  10.013  11.590   0.745 -1.3534  4.3661 -1.9650
54317SOL    HW269813   9.923  11.505   0.658  0.6863 -1.0715  0.7929
54318SOL     OW69814   9.724   5.088   3.147 -0.3703  0.4512 -0.3246
54318SOL    HW169815   9.788   5.148   3.109 -1.6152  1.0548 -1.5296
54318SOL    HW269816   9.708   5.022   3.079 -1.1198  0.3742 -0.0847
54319SOL     OW69817   7.350  12.355   7.994 -0.3517 -0.2568  0.1348
54319SOL    HW169818   7.285  12.329   8.059  0.9543 -1.0354  1.1979
54319SOL    HW269819   7.423  12.294   8.008 -0.3256 -0.9560 -2.6001
54320SOL     OW69820   2.982   2.949   9.299 -0.4553  0.4372  0.2403
54320SOL    HW169821   3.038   3.027   9.295  0.5030 -0.1379  1.5166
54320SOL    HW269822   2.953   2.945   9.391 -2.3267  0.5141 -0.3081
54321SOL     OW69823   9.610   0.103   3.568  0.2291 -0.4864 -0.2218
54321SOL    HW169824   9.564   0.018   3.567 -1.6335  0.4583 -1.6648
54321SOL    HW269825   9.658   0.105   3.485  0.4603 -0.2293 -0.0801
54322SOL     OW69826   2.675   9.922   1.940  0.2292 -0.4997 -0.1248
54322SOL    HW169827   2.727   9.997   1.911  0.7420 -1.2942 -1.3190
54322SOL    HW269828   2.629   9.954   2.018  2.0658  0.3892  0.6439
54323SOL     OW69829   7.594  10.644  11.553 -0.1366  0.0832 -0.3799
54323SOL    HW169830   7.642  10.567  11.523 -2.5084 -1.7895  0.2469
54323SOL    HW269831   7.532  10.609  11.618 -0.4982  2.7386  0.8106
54324SOL     OW69832   1.551   0.205  11.691 -0.0857 -0.5122  0.3688
54324SOL    HW169833   1.609   0.209  11.767  0.0119  0.0128  0.2706
54324SOL    HW269834   1.463   0.207  11.729 -0.0436  0.6128  0.4414
54325SOL     OW69835   5.685   8.564   2.655 -0.4600  0.3904 -0.0756
54325SOL    HW169836   5.663   8.636   2.597  1.9693 -0.1375 -1.7833
54325SOL    HW269837   5.695   8.488   2.598  3.7772  0.2050  0.5815
54326SOL     OW69838  12.203   9.166   4.067  0.4173 -0.1380  0.0862
54326SOL    HW169839  12.280   9.179   4.122  1.1677  0.1891 -1.0179
54326SOL    HW269840  12.170   9.080   4.093  0.3300  0.3039  1.5333
54327SOL     OW69841  11.673  10.473  12.110 -0.4516 -0.3464  0.3867
54327SOL    HW169842  11.755  10.521  12.119 -2.2224  3.0182  0.1778
54327SOL    HW269843  11.608  10.527  12.154 -2.8012 -2.2161 -0.5410
54328SOL     OW69844   3.668   0.071   7.464 -0.0686 -0.1761  0.2576
54328SOL    HW169845   3.701   0.112   7.543  1.4933  0.4224 -0.6674
54328SOL    HW269846   3.623  -0.008   7.495  1.4361 -0.5379  1.6625
54329SOL     OW69847  11.070  12.421   1.708 -0.3957 -0.3297  0.3213
54329SOL    HW169848  11.124  12.409   1.786  0.6486 -0.1848 -0.3607
54329SOL    HW269849  11.053  12.515   1.705  0.2480 -0.2250 -0.0689
54330SOL     OW69850  11.151   8.864  10.965  0.2991 -0.1533 -0.3196
54330SOL    HW169851  11.093   8.931  10.928  3.2104  3.7146  1.3814
54330SOL    HW269852  11.100   8.825  11.036 -1.9995 -0.9299 -2.2772
54331SOL     OW69853   6.232  10.420   6.298 -0.0638 -0.0366 -0.2755
54331SOL    HW169854   6.232  10.398   6.205 -0.0211  0.7893 -0.4788
54331SOL    HW269855   6.155  10.476   6.310  1.9430  3.0473 -0.6340
54332SOL     OW69856   0.201  12.225   0.415 -0.0963  0.1444  0.9928
54332SOL    HW169857   0.259  12.177   0.473 -0.9877 -1.9148  0.2873
54332SOL    HW269858   0.128  12.254   0.470  1.4639  2.6838  1.8659
54333SOL     OW69859   5.912   1.471   8.731 -0.5379  0.4404  0.2226
54333SOL    HW169860   5.860   1.402   8.691 -0.7027  0.8486 -0.2750
54333SOL    HW269861   6.001   1.456   8.700 -0.4702  0.1266  0.5589
54334SOL     OW69862   2.702   6.325   0.692  0.3382 -0.0204  0.4107
54334SOL    HW169863   2.767   6.273   0.740  0.3350 -0.2865  0.1320
54334SOL    HW269864   2.627   6.329   0.750 -0.8581 -2.9702 -0.7390
54335SOL     OW69865   6.076   2.499   2.323 -0.7812  0.6271  0.0222
54335SOL    HW169866   6.136   2.468   2.254 -1.0161 -0.2094  0.1862
54335SOL    HW269867   6.128   2.495   2.403 -1.0612 -0.1499  0.1729
54336SOL     OW69868   2.200   5.647  12.401  0.0628 -0.5514 -0.2614
54336SOL    HW169869   2.140   5.700  12.454  0.0460 -2.3060  1.5611
54336SOL    HW269870   2.212   5.699  12.321 -1.5193  1.2395  0.5701
54337SOL     OW69871   4.388   2.119   4.201 -0.4577 -0.0464 -0.5646
54337SOL    HW169872   4.309   2.096   4.151 -1.7528  0.3654  1.1879
54337SOL    HW269873   4.375   2.211   4.224  0.6839  0.1034 -0.4720
54338SOL     OW69874   1.902   4.195   7.449 -0.0645 -0.5012  0.0458
54338SOL    HW169875   1.830   4.132   7.461 -2.1538  1.5199 -1.1344
54338SOL    HW269876   1.892   4.256   7.522 -0.2163  0.3903 -0.7133
54339SOL     OW69877  10.251   9.805   3.663 -0.1333 -0.0624  0.2846
54339SOL    HW169878  10.326   9.835   3.612  0.6332 -0.0343  1.4026
54339SOL    HW269879  10.206   9.743   3.605 -0.5509  1.5845 -1.2632
54340SOL     OW69880   1.902   8.261   5.039 -0.0876 -0.2442  0.5071
54340SOL    HW169881   1.855   8.334   5.000 -0.0351 -0.2026  0.5212
54340SOL    HW269882   1.876   8.263   5.131 -0.8226 -0.8230  0.3223
54341SOL     OW69883   9.987   3.956  12.108  0.3312 -0.4564  0.3114
54341SOL    HW169884  10.027   4.039  12.081  1.0290 -1.2202 -1.1543
54341SOL    HW269885   9.895   3.977  12.122  0.5956  0.6655  0.4639
54342SOL     OW69886  11.835   5.319   7.713 -0.3570 -0.5240 -0.2726
54342SOL    HW169887  11.889   5.311   7.635 -0.2091  0.9249 -0.3456
54342SOL    HW269888  11.747   5.297   7.684 -0.2799 -0.1281 -0.8331
54343SOL     OW69889   6.052   0.350   1.494 -0.0155  0.5844  0.4901
54343SOL    HW169890   6.009   0.270   1.521  2.3637 -1.0029 -0.0642
54343SOL    HW269891   6.021   0.366   1.405 -0.9676  0.6623  0.8276
54344SOL     OW69892   8.726   6.924   1.475  0.6963 -0.1686 -0.1956
54344SOL    HW169893   8.762   6.837   1.457  1.2471 -1.0339  4.0498
54344SOL    HW269894   8.660   6.909   1.543 -0.9820  2.5283 -1.0962
54345SOL     OW69895  12.287   5.365   9.175  0.0881 -0.4339  0.6381
54345SOL    HW169896  12.316   5.274   9.186  1.6698  0.0706  0.9418
54345SOL    HW269897  12.367   5.417   9.186 -0.6703  0.9647 -0.1728
54346SOL     OW69898  10.600   7.678  11.635 -0.1918  0.6048  0.2338
54346SOL    HW169899  10.601   7.746  11.568  0.6210 -0.0075 -0.4129
54346SOL    HW269900  10.616   7.597  11.587  1.8593  0.2949  1.2818
54347SOL     OW69901   6.442   8.113   6.704  0.1401  0.2429  0.0644
54347SOL    HW169902   6.530   8.076   6.704  0.5263  1.1309  1.2224
54347SOL    HW269903   6.449   8.193   6.755 -1.1605  0.7886 -0.5609
54348SOL     OW69904   7.751   5.921   5.833  0.0248  0.2769  0.6438
54348SOL    HW169905   7.699   5.950   5.758  0.6866  0.5996  0.3002
54348SOL    HW269906   7.840   5.952   5.814 -0.1398  1.9715  2.4335
54349SOL     OW69907   2.353   8.815   2.669 -0.0569 -0.2310  0.6494
54349SOL    HW169908   2.315   8.774   2.591 -0.9318 -1.2928  1.6002
54349SOL    HW269909   2.347   8.909   2.652 -0.6343 -0.4394 -0.3772
54350SOL     OW69910   8.392   7.162   4.940 -0.1049 -0.3232 -0.4107
54350SOL    HW169911   8.463   7.177   4.877 -1.2951  0.2517 -1.6856
54350SOL    HW269912   8.409   7.224   5.011 -0.2038  0.9816 -1.4923
54351SOL     OW69913   1.000   7.955   6.562 -0.0380 -0.0172 -0.0595
54351SOL    HW169914   1.062   7.990   6.498 -0.3062  1.0856  0.2624
54351SOL    HW269915   0.914   7.966   6.521 -0.1452 -0.0138  0.1622
54352SOL     OW69916   6.726   9.166   0.669  0.1638  0.4758 -0.4962
54352SOL    HW169917   6.653   9.177   0.609  0.7092  1.6756 -0.9616
54352SOL    HW269918   6.804   9.173   0.614  0.6532 -0.8629 -0.0234
54353SOL     OW69919  11.780   8.784   8.616 -0.4192 -0.8808 -0.4723
54353SOL    HW169920  11.733   8.865   8.597 -1.0490 -0.6187  1.8794
54353SOL    HW269921  11.792   8.785   8.711  2.1097 -2.1989 -0.6954
54354SOL     OW69922   7.987   7.863   9.469  0.5289 -0.3000  0.1306
54354SOL    HW169923   7.941   7.807   9.406  1.6952 -0.9231 -0.1883
54354SOL    HW269924   7.920   7.924   9.500 -0.4038 -0.9034 -0.6474
54355SOL     OW69925   9.369  11.570   9.794  0.0079 -0.0864  0.3699
54355SOL    HW169926   9.297  11.514   9.824 -2.1452  0.2656 -3.3953
54355SOL    HW269927   9.338  11.659   9.811 -0.5571  0.0654 -1.2611
54356SOL     OW69928   5.642   3.947   6.126 -0.0750  0.3316 -0.3843
54356SOL    HW169929   5.595   4.025   6.153  0.2075  0.0757  0.9147
54356SOL    HW269930   5.730   3.959   6.159  0.1951 -0.1654 -0.9072
54357SOL     OW69931   2.846   7.821   7.645 -0.2350 -0.1358 -0.1486
54357SOL    HW169932   2.860   7.892   7.582 -1.7839 -0.5578 -1.0090
54357SOL    HW269933   2.931   7.776   7.649  0.0374  0.2150 -1.5321
54358SOL     OW69934   4.907   4.325   8.889  0.6478 -0.6893  0.1104
54358SOL    HW169935   4.935   4.358   8.803  0.6529  0.5793  0.5859
54358SOL    HW269936   4.837   4.262   8.868 -0.3572  0.6649 -0.7635
54359SOL     OW69937   5.037   1.419  11.131  0.1370 -0.0076 -0.0178
54359SOL    HW169938   5.053   1.328  11.156 -1.8234  0.1640  2.1240
54359SOL    HW269939   5.016   1.414  11.038 -2.0092 -2.1039  0.4710
54360SOL     OW69940   1.282   9.143  12.029  0.1918 -0.3387 -0.0091
54360SOL    HW169941   1.291   9.237  12.013 -1.2449  0.1924  1.8716
54360SOL    HW269942   1.293   9.134  12.124 -4.1317 -1.3004  0.6287
54361SOL     OW69943  11.002   2.054   0.520  0.5495  0.2259  0.4409
54361SOL    HW169944  10.917   2.047   0.476  1.6985  1.4012 -2.1634
54361SOL    HW269945  10.994   2.132   0.575 -0.2843 -0.1178  0.8305
54362SOL     OW69946   7.557   0.268  11.747 -0.1542  0.4931 -0.6176
54362SOL    HW169947   7.561   0.361  11.769  0.0770 -0.2941  3.4604
54362SOL    HW269948   7.464   0.252  11.731 -0.4195  1.2058  0.0885
54363SOL     OW69949  10.762   4.141   2.578 -0.6680  0.3325  0.7436
54363SOL    HW169950  10.754   4.234   2.555 -2.7648  0.1041  0.2697
54363SOL    HW269951  10.728   4.135   2.667 -2.9598 -0.2615 -0.0953
54364SOL     OW69952   3.250   3.731  11.458  0.1822 -0.5479  0.0559
54364SOL    HW169953   3.337   3.762  11.433  0.3823 -1.5795 -0.5564
54364SOL    HW269954   3.220   3.679  11.384  0.1427 -2.3872  1.3005
54365SOL     OW69955   5.280   4.344   2.325 -0.3121  0.2307 -0.5352
54365SOL    HW169956   5.238   4.370   2.407  0.0834  0.0678 -0.2746
54365SOL    HW269957   5.207   4.318   2.268 -0.6215  0.7627 -0.3934
54366SOL     OW69958   1.905   6.012   1.566 -0.3183 -0.2948 -0.2598
54366SOL    HW169959   1.956   6.061   1.631 -0.9434  0.5117 -0.3649
54366SOL    HW269960   1.840   5.965   1.618 -2.0144  1.7844 -0.3850
54367SOL     OW69961   5.669   9.098   6.879  0.1669  1.1274 -0.0439
54367SOL    HW169962   5.589   9.093   6.931  1.1542  0.6960  1.5059
54367SOL    HW269963   5.730   9.148   6.934  2.3694 -2.1957  0.8305
54368SOL     OW69964  10.017   6.957   5.005  0.1021  0.2548  0.1294
54368SOL    HW169965  10.037   7.050   5.002  1.6068 -0.0110  0.8169
54368SOL    HW269966  10.009   6.937   5.099 -3.1016  0.2152 -0.0472
54369SOL     OW69967   6.458   0.158   7.548 -0.4472  0.2420 -0.3744
54369SOL    HW169968   6.481   0.250   7.546 -0.8809  0.3631 -0.0457
54369SOL    HW269969   6.441   0.135   7.457  0.0875  0.3753 -0.5070
54370SOL     OW69970   9.711   7.213   3.455  0.7294 -0.6158  0.1356
54370SOL    HW169971   9.754   7.171   3.381  2.0948 -0.9189  1.0727
54370SOL    HW269972   9.681   7.297   3.420  1.1379 -0.8477 -0.8102
54371SOL     OW69973  11.572   7.694   3.091  0.2547  0.3129  0.2782
54371SOL    HW169974  11.651   7.640   3.094  0.6668  0.9412  1.2158
54371SOL    HW269975  11.599   7.779   3.126 -0.6196  0.8260 -0.2562
54372SOL     OW69976   3.034   6.318  11.027 -0.8114 -0.7737  0.3870
54372SOL    HW169977   3.036   6.408  11.062  0.4805  0.1353 -1.8480
54372SOL    HW269978   3.071   6.265  11.098 -0.0490  0.6971  1.1574
54373SOL     OW69979   5.480   6.695   2.379  0.1190  0.3275  0.5971
54373SOL    HW169980   5.562   6.700   2.428 -0.1359  0.5454  1.0069
54373SOL    HW269981   5.444   6.784   2.383  0.4039  0.5133 -0.5364
54374SOL     OW69982   8.713   8.664   2.868  0.8384 -0.3966  0.8500
54374SOL    HW169983   8.693   8.661   2.774  2.5502 -0.3840  0.4456
54374SOL    HW269984   8.628   8.673   2.911 -0.4677 -4.5330 -0.4151
54375SOL     OW69985   5.702   0.044   0.391  0.1239 -0.1886 -0.0485
54375SOL    HW169986   5.783   0.084   0.359 -0.1767 -0.0044 -0.5847
54375SOL    HW269987   5.724   0.015   0.480  1.1148 -1.1292 -0.5673
54376SOL     OW69988   0.014   2.326  11.323 -0.5775  0.2589  0.0852
54376SOL    HW169989   0.074   2.287  11.259 -0.6575  0.0233  0.1551
54376SOL    HW269990  -0.069   2.336  11.275 -0.3247  1.1425 -0.2023
54377SOL     OW69991  11.016   7.149   0.342 -0.4061 -0.4270  0.2911
54377SOL    HW169992  10.954   7.144   0.415 -0.8458 -0.5724 -0.0909
54377SOL    HW269993  11.045   7.241   0.343 -0.8742 -0.2743  0.2706
54378SOL     OW69994   9.690   4.485   9.365  0.9705 -0.0097  0.2968
54378SOL    HW169995   9.610   4.516   9.323  0.6184 -0.9533  0.2504
54378SOL    HW269996   9.667   4.476   9.457  0.9848 -0.3933  0.2648
54379SOL     OW69997   6.732   6.257   6.255  0.0828  0.1807 -0.0092
54379SOL    HW169998   6.646   6.294   6.237  0.7841  4.1242  3.1613
54379SOL    HW269999   6.790   6.296   6.190 -0.3296 -2.7713 -2.3917
54380SOL     OW70000  11.597   4.051   8.804 -0.0038 -0.1831 -0.8271
54380SOL    HW170001  11.678   4.101   8.820  0.8761 -1.6253 -0.6081
54380SOL    HW270002  11.617   3.963   8.834 -1.6843 -0.5747 -0.7843
54381SOL     OW70003   3.017  10.370  10.567  0.1649  0.1667  0.0760
54381SOL    HW170004   3.027  10.417  10.650 -1.0658 -0.5189  0.6502
54381SOL    HW270005   3.053  10.429  10.501  0.3160  1.1241  0.9908
54382SOL     OW70006   3.851   5.241   9.936  0.1853  0.0044 -0.0956
54382SOL    HW170007   3.783   5.275   9.877  0.6866  0.2059 -0.5612
54382SOL    HW270008   3.806   5.230  10.019 -0.4128  0.1870 -0.3867
54383SOL     OW70009   7.816   9.216   2.345  0.3222  0.6808 -0.1003
54383SOL    HW170010   7.904   9.187   2.371 -0.0496  1.5056  2.3419
54383SOL    HW270011   7.831   9.268   2.266  1.8450 -0.3059 -0.5061
54384SOL     OW70012   0.638   5.845   0.694  0.5240  0.3267 -0.2722
54384SOL    HW170013   0.550   5.857   0.729  0.5193 -0.8083  0.1195
54384SOL    HW270014   0.682   5.789   0.757  0.7003 -1.2693 -1.7584
54385SOL     OW70015   3.836   1.495   3.082 -0.7973  0.1242 -0.1794
54385SOL    HW170016   3.750   1.527   3.110 -0.7355  1.0549 -0.9844
54385SOL    HW270017   3.874   1.455   3.160 -1.7281  0.2101  0.3275
54386SOL     OW70018   9.978   8.989   9.068 -0.1887 -0.1452 -0.0824
54386SOL    HW170019   9.989   8.910   9.015 -1.8206  0.4491 -1.3763
54386SOL    HW270020   9.950   8.956   9.154  0.7588 -1.0257 -0.0796
54387SOL     OW70021   8.204   4.330   6.785 -0.1544 -0.4692  0.7824
54387SOL    HW170022   8.216   4.419   6.818 -0.7226 -0.7070  1.6343
54387SOL    HW270023   8.195   4.341   6.690 -1.0972  0.4653  0.9688
54388SOL     OW70024  10.785   3.522   8.200 -0.2172  0.5349 -0.0397
54388SOL    HW170025  10.749   3.433   8.201  1.3231 -0.1234  0.2096
54388SOL    HW270026  10.780   3.551   8.291 -3.1726  1.8169 -0.4904
54389SOL     OW70027   6.396   1.132  11.662  0.8161 -0.1085 -0.9663
54389SOL    HW170028   6.330   1.123  11.731  0.8022 -0.2045 -0.9918
54389SOL    HW270029   6.436   1.217  11.678  0.8776 -0.1720 -0.7834
54390SOL     OW70030   5.640   2.545  11.763 -0.5980  0.5674 -0.2835
54390SOL    HW170031   5.694   2.624  11.760  0.3374 -0.0422  0.1345
54390SOL    HW270032   5.671   2.497  11.840 -0.8948 -0.3942 -0.7458
54391SOL     OW70033   6.028   3.984   1.669 -0.0024 -0.3749  0.0968
54391SOL    HW170034   6.057   3.944   1.587  0.6803  1.1842 -0.4608
54391SOL    HW270035   5.949   4.033   1.646 -0.0800 -0.3211  0.4702
54392SOL     OW70036  11.313  10.657   0.499  0.2455 -0.4044 -0.3017
54392SOL    HW170037  11.359  10.741   0.505  0.5322 -0.6069  0.2689
54392SOL    HW270038  11.272  10.660   0.412  0.1080  0.4019 -0.2201
54393SOL     OW70039   3.619   9.790   4.710  0.1474  0.5518 -0.1605
54393SOL    HW170040   3.571   9.862   4.668  0.3817  0.7569 -0.0769
54393SOL    HW270041   3.552   9.742   4.758 -0.1866  0.1111 -1.0450
54394SOL     OW70042   4.516   9.682  10.286 -0.1440  0.1337  0.5182
54394SOL    HW170043   4.593   9.633  10.256  0.2914  1.0449  0.0959
54394SOL    HW270044   4.494   9.643  10.370 -0.4054 -1.4278 -0.2303
54395SOL     OW70045   5.753   9.296   3.975  0.0742  0.1561  0.0447
54395SOL    HW170046   5.816   9.365   3.999 -0.9917  1.2812 -0.3033
54395SOL    HW270047   5.784   9.264   3.891  0.2863  0.5668 -0.0386
54396SOL     OW70048   8.131   9.233   0.144  0.2597 -0.2379 -0.3281
54396SOL    HW170049   8.128   9.165   0.077 -0.8946 -0.8429  0.2978
54396SOL    HW270050   8.080   9.197   0.216  2.6683 -0.2457  1.5058
54397SOL     OW70051  12.362   7.617   9.553  0.1398 -0.1045 -0.2702
54397SOL    HW170052  12.454   7.637   9.532  0.3427 -0.5924  0.1404
54397SOL    HW270053  12.338   7.682   9.619 -1.0741  2.6685 -3.1766
54398SOL     OW70054   6.651   8.683   8.435 -0.1195 -0.3943 -0.2209
54398SOL    HW170055   6.602   8.686   8.353 -0.9124  0.2596  0.2653
54398SOL    HW270056   6.622   8.761   8.483  0.1402 -0.9099  0.7901
54399SOL     OW70057   1.193   0.240   2.036 -0.2698  0.3428 -0.0820
54399SOL    HW170058   1.153   0.270   1.955 -0.5215 -0.2861 -0.1954
54399SOL    HW270059   1.138   0.277   2.105 -0.3476  0.4673 -0.2106
54400SOL     OW70060  10.136   1.092   0.540  0.1227 -0.0424  0.0240
54400SOL    HW170061  10.059   1.149   0.539 -0.0607 -0.2270  1.6513
54400SOL    HW270062  10.210   1.153   0.542 -0.0206  0.1350 -0.0268
54401SOL     OW70063   4.762  10.999   1.686  0.1319  0.4868  0.1300
54401SOL    HW170064   4.752  10.912   1.723 -0.3631  0.0512 -0.9722
54401SOL    HW270065   4.680  11.044   1.706  0.3074  0.6350  0.5237
54402SOL     OW70066   9.115   8.375  12.276 -0.1695 -0.4685  0.1037
54402SOL    HW170067   9.099   8.428  12.198 -0.4210 -0.8260 -0.0938
54402SOL    HW270068   9.033   8.379  12.326  0.2862  0.4777  0.7917
54403SOL     OW70069   9.493   0.644  10.008  0.3235 -0.1732 -0.1442
54403SOL    HW170070   9.427   0.673  10.071 -0.0054  1.2122 -1.0732
54403SOL    HW270071   9.573   0.687  10.035  0.9146 -1.9017  1.0178
54404SOL     OW70072   1.841   9.333   2.603 -0.2174  0.1836 -0.0601
54404SOL    HW170073   1.871   9.306   2.516  0.8727  2.3954 -0.4296
54404SOL    HW270074   1.752   9.298   2.609  0.4532 -1.8718 -1.1474
54405SOL     OW70075   1.634   1.478   1.155  0.0046  0.4685 -0.2235
54405SOL    HW170076   1.619   1.395   1.201  0.2860  0.9332  0.7322
54405SOL    HW270077   1.715   1.464   1.107  0.0004  0.1541 -0.1428
54406SOL     OW70078   7.312   2.032   0.941 -0.5766  0.2100  0.2024
54406SOL    HW170079   7.259   2.050   0.863  0.5761 -0.1525 -0.6841
54406SOL    HW270080   7.296   2.107   0.998  0.1753  1.5593 -1.2718
54407SOL     OW70081   9.654   5.892   5.988  0.4439 -0.6059  0.1722
54407SOL    HW170082   9.637   5.896   5.893 -0.9737 -1.8813  0.3275
54407SOL    HW270083   9.699   5.974   6.008 -1.1995  0.7163 -1.2356
54408SOL     OW70084   8.760  10.762   1.083 -0.3130  0.1157 -0.1251
54408SOL    HW170085   8.689  10.788   1.025 -1.1592  0.6663  1.1259
54408SOL    HW270086   8.839  10.770   1.029 -1.0571  0.7342 -1.1487
54409SOL     OW70087   8.930   2.531   0.008 -0.1667 -0.1837 -0.0377
54409SOL    HW170088   8.968   2.543  -0.079 -1.9305 -0.3223 -0.8716
54409SOL    HW270089   8.985   2.464   0.049  0.0828 -0.8863 -1.4519
54410SOL     OW70090  10.580   5.320   8.592 -0.0010  0.3614 -0.2182
54410SOL    HW170091  10.508   5.266   8.562 -1.0907  0.9620  1.1852
54410SOL    HW270092  10.547   5.410   8.587  0.7308  0.6628  0.1863
54411SOL     OW70093   3.727   7.364   1.281 -0.4166  0.0057  0.3040
54411SOL    HW170094   3.775   7.441   1.251  0.2185  0.5611  2.5345
54411SOL    HW270095   3.669   7.341   1.208  1.9939  0.3284 -1.8274
54412SOL     OW70096   7.919   6.613   9.752 -0.2804 -0.7708  0.0035
54412SOL    HW170097   7.993   6.566   9.790  0.5296  0.5102  0.0724
54412SOL    HW270098   7.842   6.562   9.777  0.5727 -2.1601 -0.1156
54413SOL     OW70099   8.901   0.638   5.582 -0.3989  0.5706 -0.0214
54413SOL    HW170100   8.945   0.554   5.567 -0.9639  0.2090  0.3314
54413SOL    HW270101   8.820   0.632   5.530  0.7353  1.9024 -2.0710
54414SOL     OW70102  11.036   9.045   5.361  0.0635  0.3366 -0.1121
54414SOL    HW170103  11.052   8.953   5.379  1.1326  0.5123 -0.0943
54414SOL    HW270104  11.052   9.054   5.267 -1.7755  0.1699 -0.4715
54415SOL     OW70105   4.436   2.459   3.811  0.2912 -0.6355  0.5396
54415SOL    HW170106   4.348   2.424   3.819  0.1304 -0.3073  0.2458
54415SOL    HW270107   4.455   2.496   3.897 -0.3352  0.3661  0.2727
54416SOL     OW70108   8.746   5.130   3.037  0.2291  0.0160 -0.2197
54416SOL    HW170109   8.653   5.122   3.016  0.8763 -1.1564 -3.0413
54416SOL    HW270110   8.771   5.045   3.072  0.2291  0.4044  0.7675
54417SOL     OW70111   6.814   5.159   6.536  0.1614 -0.1220 -0.2337
54417SOL    HW170112   6.810   5.163   6.632  0.3566 -0.7474 -0.1925
54417SOL    HW270113   6.729   5.124   6.511 -0.2746  0.9798 -0.3645
54418SOL     OW70114  10.789   3.452  11.239 -0.2880 -0.3143 -0.1767
54418SOL    HW170115  10.879   3.419  11.238  0.2109  0.9386  0.5926
54418SOL    HW270116  10.793   3.534  11.190 -1.0299 -0.2923 -0.2067
54419SOL     OW70117   1.623   2.751  11.634 -0.0121  0.4191 -0.3436
54419SOL    HW170118   1.661   2.675  11.679 -0.5764  0.1366 -0.3335
54419SOL    HW270119   1.680   2.824  11.658  1.1849 -0.1882 -1.2280
54420SOL     OW70120   3.666  10.257   7.397  0.3106 -0.1186  0.0654
54420SOL    HW170121   3.582  10.269   7.441  0.9494 -0.0209  1.3050
54420SOL    HW270122   3.708  10.342   7.402 -0.4984  0.5597 -2.8044
54421SOL     OW70123   9.607   0.554   4.082 -0.1557 -0.1224  0.0158
54421SOL    HW170124   9.700   0.574   4.069  0.0087  0.1833  1.4359
54421SOL    HW270125   9.564   0.588   4.004  1.0006 -0.9611 -1.0314
54422SOL     OW70126   5.390   2.261   7.754 -0.2038  0.6273 -0.4729
54422SOL    HW170127   5.347   2.234   7.835 -0.2299  0.6008 -0.4955
54422SOL    HW270128   5.401   2.180   7.705  0.9888  0.4521  0.0577
54423SOL     OW70129   9.989   3.178   3.261 -0.5475 -0.0367  0.4253
54423SOL    HW170130  10.050   3.105   3.269 -1.2240 -0.6839 -0.1510
54423SOL    HW270131  10.024   3.230   3.189 -1.1436 -0.8983 -0.5143
54424SOL     OW70132  10.217   1.090   7.834  1.1835  0.2001 -0.2123
54424SOL    HW170133  10.188   1.032   7.904  1.5230  1.1457  0.7415
54424SOL    HW270134  10.259   1.032   7.770 -0.8313 -0.9248 -0.6124
54425SOL     OW70135   0.067   5.399  10.948  0.2210 -0.1863  0.1198
54425SOL    HW170136   0.053   5.487  10.912  0.6517 -0.0123  0.3795
54425SOL    HW270137  -0.008   5.386  11.007 -1.0758 -0.8826 -1.5805
54426SOL     OW70138   3.095   1.151   1.278 -0.6353  0.3070  0.9191
54426SOL    HW170139   3.154   1.156   1.353 -2.2182  3.0913  2.1421
54426SOL    HW270140   3.011   1.126   1.316 -0.8650 -0.9721 -0.3782
54427SOL     OW70141   6.891  12.324   1.539  0.5951 -0.2928 -0.3802
54427SOL    HW170142   6.864  12.366   1.457 -1.1670 -2.8983 -1.2654
54427SOL    HW270143   6.848  12.375   1.608  0.4540  0.7285 -1.2003
54428SOL     OW70144   7.139  11.154   5.543  0.0416  0.3694  0.2815
54428SOL    HW170145   7.047  11.155   5.570 -0.0684  0.1912 -0.0862
54428SOL    HW270146   7.143  11.217   5.471 -0.1952 -1.0114 -0.9954
54429SOL     OW70147   5.775   2.026   2.922  0.1006  0.0933  0.1401
54429SOL    HW170148   5.785   1.931   2.934  2.3310  0.2817  0.1670
54429SOL    HW270149   5.690   2.036   2.880 -0.5085 -1.8608  0.8032
54430SOL     OW70150   9.552   3.808   5.262  0.8148 -0.2595 -0.9193
54430SOL    HW170151   9.461   3.790   5.236 -0.2370  0.6038  1.8249
54430SOL    HW270152   9.579   3.729   5.309  0.2972  0.7006  1.0663
54431SOL     OW70153   3.332   5.886   7.888 -0.4413  0.0830 -0.1214
54431SOL    HW170154   3.251   5.843   7.861 -0.6166 -0.6286  1.4677
54431SOL    HW270155   3.341   5.866   7.981  1.9151 -0.4361 -0.3885
54432SOL     OW70156   5.347   6.885   3.571  0.1712  0.1296 -0.2627
54432SOL    HW170157   5.337   6.980   3.583 -1.7985  0.0134 -0.7058
54432SOL    HW270158   5.286   6.846   3.634 -0.4554 -0.7788 -1.3911
54433SOL     OW70159   4.743   8.583  10.659 -0.0966 -0.4077  0.4550
54433SOL    HW170160   4.763   8.669  10.696  0.8150  0.1485 -1.2703
54433SOL    HW270161   4.810   8.568  10.593 -0.5500 -2.2258  0.3558
54434SOL     OW70162   1.072   6.882   9.453 -0.5672  0.1514 -0.0943
54434SOL    HW170163   1.044   6.804   9.404  0.1069 -0.0924 -0.1040
54434SOL    HW270164   1.021   6.953   9.417 -1.4026 -0.3323  0.1041
54435SOL     OW70165   0.379  10.540   0.471 -0.1778  0.0735 -0.1380
54435SOL    HW170166   0.461  10.490   0.481 -0.6855 -0.6998  0.2648
54435SOL    HW270167   0.386  10.582   0.385 -0.2965 -1.7354 -1.0613
54436SOL     OW70168   5.740   5.417   8.918  0.6239  0.1690  0.4998
54436SOL    HW170169   5.775   5.446   9.003  1.1972  0.6095  0.1257
54436SOL    HW270170   5.653   5.456   8.913  0.9005  0.8164  0.5495
54437SOL     OW70171   0.586   3.955  10.443 -0.0760  0.2886  0.2645
54437SOL    HW170172   0.538   4.003  10.375  0.7423  3.7031  1.8758
54437SOL    HW270173   0.519   3.902  10.486 -1.2728  0.6682 -1.0294
54438SOL     OW70174   7.855   3.953  11.051  1.1931  0.3358 -0.1509
54438SOL    HW170175   7.810   3.869  11.060  1.2933  0.3028  0.0317
54438SOL    HW270176   7.784   4.018  11.046  1.1200  0.4980  2.0219
54439SOL     OW70177   2.429  11.842   3.276  0.1263 -0.2487 -0.0798
54439SOL    HW170178   2.421  11.922   3.224  1.1060 -0.2894 -0.3100
54439SOL    HW270179   2.461  11.872   3.362  0.6460 -0.3953 -0.2152
54440SOL     OW70180   8.362   2.630   3.683  0.2074  0.3526 -0.1374
54440SOL    HW170181   8.454   2.610   3.702  0.7152  0.8238 -1.9098
54440SOL    HW270182   8.354   2.724   3.699  0.3454  0.5318 -1.0781
54441SOL     OW70183  10.460   0.771   4.014 -0.0731 -0.0294 -0.3575
54441SOL    HW170184  10.449   0.713   4.089 -1.9833  1.3642  0.5300
54441SOL    HW270185  10.525   0.728   3.959 -1.2226 -2.8752  0.3543
54442SOL     OW70186   1.894   8.313   3.287  0.1890  0.2834  0.2664
54442SOL    HW170187   1.952   8.267   3.227 -2.2419 -1.2541 -1.0949
54442SOL    HW270188   1.871   8.247   3.353 -1.1138  0.3852 -0.0590
54443SOL     OW70189   7.032   5.097   5.674 -0.2647  0.5748  0.2261
54443SOL    HW170190   7.070   5.009   5.666 -0.1546  0.5596  0.8733
54443SOL    HW270191   7.097   5.155   5.634 -0.2823  0.3754 -0.0936
54444SOL     OW70192   7.232   5.033   9.690 -0.0808 -0.5501  0.4178
54444SOL    HW170193   7.194   5.109   9.646  0.1919  0.0930  1.2746
54444SOL    HW270194   7.160   4.994   9.739 -0.1238 -0.5958  0.3181
54445SOL     OW70195   6.190  10.743   1.451  0.1159 -0.1180  0.2615
54445SOL    HW170196   6.188  10.720   1.544 -0.1983  0.5054  0.4128
54445SOL    HW270197   6.100  10.768   1.430  0.0911 -0.6551 -0.3231
54446SOL     OW70198   9.584   2.310   2.713  0.2038 -0.0566  0.1900
54446SOL    HW170199   9.516   2.331   2.776  0.1554  3.0539 -0.7292
54446SOL    HW270200   9.659   2.285   2.767 -0.4546  0.4843  1.4006
54447SOL     OW70201   5.902   2.088   9.965  0.2681  0.2957  0.5397
54447SOL    HW170202   5.948   2.035  10.030 -1.1181 -0.6023  0.8355
54447SOL    HW270203   5.842   2.027   9.922  0.1108  1.1919 -0.5775
54448SOL     OW70204  10.131   4.888   4.246  0.2528 -0.3431  0.0608
54448SOL    HW170205  10.050   4.844   4.272  1.0733 -1.3976  0.9538
54448SOL    HW270206  10.185   4.887   4.325  0.0691  2.9778  0.3538
54449SOL     OW70207  11.209   8.728   7.183 -0.0086  0.2683 -0.0955
54449SOL    HW170208  11.123   8.742   7.143  1.0196  1.7411 -1.9705
54449SOL    HW270209  11.271   8.742   7.112  1.8406  0.0429  1.3900
54450SOL     OW70210   8.179   4.830  10.769 -0.2774  0.5621 -0.8184
54450SOL    HW170211   8.092   4.792  10.772  0.3428 -0.8794  1.0664
54450SOL    HW270212   8.211   4.812  10.681 -0.5396 -2.1718 -0.4310
54451SOL     OW70213   7.746   0.701   3.054  0.7861 -0.1890 -0.0560
54451SOL    HW170214   7.695   0.628   3.087  1.5475 -0.4403  0.6120
54451SOL    HW270215   7.812   0.717   3.122  0.7206  1.0244 -0.2538
54452SOL     OW70216   2.429   3.813  12.155  0.4101  0.0485  0.3809
54452SOL    HW170217   2.445   3.729  12.112 -1.7932 -0.5012  0.5012
54452SOL    HW270218   2.453   3.878  12.089 -0.2330 -0.7337 -0.6696
54453SOL     OW70219   1.633   4.761   7.259 -0.1999 -0.0560 -0.4244
54453SOL    HW170220   1.697   4.720   7.317  0.3182 -1.6738 -2.0406
54453SOL    HW270221   1.562   4.698   7.252  0.2587 -0.4424 -2.3542
54454SOL     OW70222   6.163   3.041   3.187  0.0321 -0.7851  0.5878
54454SOL    HW170223   6.238   3.014   3.134  0.0803 -0.8690  0.6973
54454SOL    HW270224   6.201   3.094   3.257 -0.2423  1.2192 -0.6951
54455SOL     OW70225   2.125   2.403  11.453 -0.1506 -0.3927  0.4945
54455SOL    HW170226   2.147   2.335  11.518  0.6278  1.2118  2.0091
54455SOL    HW270227   2.128   2.358  11.369  2.6973 -1.7692  1.1952
54456SOL     OW70228   3.283   9.771   4.137 -0.5352 -0.3351  0.1874
54456SOL    HW170229   3.240   9.825   4.203  0.1044  0.2461  0.1404
54456SOL    HW270230   3.351   9.724   4.185  1.0624  1.3556 -0.3005
54457SOL     OW70231   4.567  10.170   8.435  0.5109  0.1151  0.3177
54457SOL    HW170232   4.529  10.182   8.349  1.2039  0.8734  0.1030
54457SOL    HW270233   4.656  10.139   8.418  0.4522 -0.3231  0.7767
54458SOL     OW70234   1.985   8.448  11.768  0.0593 -0.4387 -0.2666
54458SOL    HW170235   1.978   8.434  11.862 -2.7436  1.4599 -0.0632
54458SOL    HW270236   2.058   8.509  11.758  0.1271 -0.3441  0.7379
54459SOL     OW70237   4.958   5.620   9.565  0.0634 -0.5235 -0.7395
54459SOL    HW170238   4.967   5.679   9.640  1.1609 -0.0870 -1.1905
54459SOL    HW270239   4.865   5.622   9.543 -0.0484  0.3712 -0.2125
54460SOL     OW70240   8.026   9.930  11.719  0.3501 -0.3152  0.4333
54460SOL    HW170241   8.078   9.931  11.800 -0.6551 -1.3332  1.1393
54460SOL    HW270242   7.938   9.955  11.748  0.1975  0.2964 -0.5384
54461SOL     OW70243   6.497   0.175   6.556  0.1500  0.2862  0.1558
54461SOL    HW170244   6.442   0.103   6.523  3.1622 -1.8274 -0.6668
54461SOL    HW270245   6.475   0.249   6.499 -0.9277 -0.8503 -0.9909
54462SOL     OW70246   4.973   2.614   4.592 -0.2402 -0.1881 -0.6467
54462SOL    HW170247   4.961   2.707   4.610 -1.9096 -0.4661 -0.1948
54462SOL    HW270248   4.899   2.571   4.635  0.2356 -1.6883 -1.2519
54463SOL     OW70249  10.550   6.384   0.447  0.9604 -0.0857 -0.1272
54463SOL    HW170250  10.603   6.411   0.372  0.9701  1.4842  0.4109
54463SOL    HW270251  10.462   6.416   0.427  1.2279  1.5149  1.0740
54464SOL     OW70252   1.877   5.234   5.647 -0.7332  0.1608 -0.4601
54464SOL    HW170253   1.810   5.214   5.712 -0.3427 -0.1974 -0.1652
54464SOL    HW270254   1.881   5.330   5.645 -0.9175  0.1765 -0.1370
54465SOL     OW70255  12.037   8.544   1.737  0.2084 -0.3247 -0.1591
54465SOL    HW170256  12.018   8.573   1.648  1.2469  1.1830  0.0672
54465SOL    HW270257  11.987   8.602   1.793  0.8932 -0.1389  0.2725
54466SOL     OW70258   2.207   1.995  10.498  0.2786  0.7902  0.3702
54466SOL    HW170259   2.182   1.945  10.576  1.1604  0.9726  0.7772
54466SOL    HW270260   2.279   1.946  10.460 -0.7631  0.1750 -0.9033
54467SOL     OW70261  11.882  12.105  11.887  0.3012 -0.1770  0.3049
54467SOL    HW170262  11.818  12.174  11.902  1.3164  0.5648  1.4946
54467SOL    HW270263  11.847  12.054  11.814 -1.1693  0.7393  0.3381
54468SOL     OW70264   6.854   6.561   4.007  0.2987  0.1161 -0.1143
54468SOL    HW170265   6.795   6.492   4.035  1.8431 -0.9476  0.6884
54468SOL    HW270266   6.828   6.582   3.917 -0.8365 -0.7808 -0.0038
54469SOL     OW70267  11.782   2.338   8.069 -0.6585  0.2732 -0.4091
54469SOL    HW170268  11.761   2.283   8.145  2.0244  0.9217  0.9279
54469SOL    HW270269  11.878   2.343   8.069 -0.6693  1.9891 -2.6512
54470SOL     OW70270   1.553   7.653   7.174 -0.3218 -0.1970 -0.0497
54470SOL    HW170271   1.602   7.636   7.094  0.1121 -0.3567  0.2471
54470SOL    HW270272   1.594   7.731   7.212  1.1115 -1.5043  1.2784
54471SOL     OW70273   8.685   0.791   4.181  0.1335  0.7425  0.0940
54471SOL    HW170274   8.747   0.798   4.108 -0.4726  2.1773 -0.3046
54471SOL    HW270275   8.735   0.822   4.257 -0.1683  2.2823 -0.2963
54472SOL     OW70276   5.189   6.405   8.308  0.2987  0.8303  0.1048
54472SOL    HW170277   5.129   6.339   8.344  2.5184 -0.6407  1.4057
54472SOL    HW270278   5.188   6.475   8.373  0.5117  0.4614  0.5204
54473SOL     OW70279   7.649  11.878   3.685 -0.0092  0.2491  0.1509
54473SOL    HW170280   7.685  11.820   3.752  0.7042 -0.1246 -0.5314
54473SOL    HW270281   7.713  11.949   3.677 -0.2040  0.4143  0.0278
54474SOL     OW70282   9.354   3.595   6.039  0.1208 -0.3516 -0.2693
54474SOL    HW170283   9.353   3.574   5.945  0.5302 -0.5662 -0.2241
54474SOL    HW270284   9.289   3.665   6.048  0.5201  0.0962 -0.8119
54475SOL     OW70285  11.019  11.406  12.310  0.1866 -0.6656 -0.1924
54475SOL    HW170286  11.019  11.350  12.388 -0.7231 -2.2163 -1.2475
54475SOL    HW270287  10.934  11.451  12.312  0.5853  0.0890  0.2275
54476SOL     OW70288  11.242  12.059   1.727  0.0274 -0.5061 -0.2954
54476SOL    HW170289  11.278  12.023   1.646  0.5375  0.2652 -0.4221
54476SOL    HW270290  11.298  12.134   1.746 -1.5988  0.8366 -0.5941
54477SOL     OW70291   4.756   0.539   0.970 -0.1030 -0.1093  0.2744
54477SOL    HW170292   4.670   0.562   0.936  0.3277  0.7763 -0.2484
54477SOL    HW270293   4.770   0.448   0.941 -0.7564 -0.1746  0.1607
54478SOL     OW70294   5.583   8.904   4.896  0.5424  0.0481 -0.3056
54478SOL    HW170295   5.551   8.861   4.816  1.6920  0.6491 -1.1214
54478SOL    HW270296   5.643   8.841   4.935 -0.3672 -0.4338  0.3634
54479SOL     OW70297   2.205   2.822   8.890  0.7092  0.2933  0.0400
54479SOL    HW170298   2.258   2.752   8.852  0.0832  0.0528 -0.4075
54479SOL    HW270299   2.132   2.833   8.829 -0.3803 -0.1650  1.2161
54480SOL     OW70300  11.446  10.607   8.787  0.3504 -0.2435  0.3104
54480SOL    HW170301  11.518  10.543   8.784  0.6361  0.0490  0.8469
54480SOL    HW270302  11.384  10.571   8.851 -0.5727 -1.0925 -1.0085
54481SOL     OW70303   2.462   0.133   3.290 -0.1939 -0.5799 -0.5085
54481SOL    HW170304   2.448   0.158   3.199  1.8384  0.2976 -0.6356
54481SOL    HW270305   2.484   0.216   3.334 -0.9878 -1.0125  0.7589
54482SOL     OW70306   9.932   8.447   9.029 -0.1489  0.0039 -0.1054
54482SOL    HW170307   9.894   8.480   8.947  1.6848 -1.5198 -1.6731
54482SOL    HW270308  10.019   8.487   9.032 -1.0651  2.1252  2.5452
54483SOL     OW70309   2.799   5.022   8.760  0.7658  0.1566  0.0769
54483SOL    HW170310   2.799   5.116   8.743 -3.1020 -0.0292 -2.0472
54483SOL    HW270311   2.725   5.008   8.819  0.7628 -1.6339 -0.3039
54484SOL     OW70312  10.771   1.372   0.983  0.4959  0.0404  0.3428
54484SOL    HW170313  10.737   1.342   1.067 -0.5246 -1.4819 -0.5749
54484SOL    HW270314  10.693   1.391   0.931  1.0656 -0.7754 -0.8496
54485SOL     OW70315   8.533   4.295   2.524 -0.4431  0.3083  0.0299
54485SOL    HW170316   8.472   4.223   2.541  0.3439 -0.5369 -0.6396
54485SOL    HW270317   8.594   4.260   2.459  0.3007  1.3971  0.1187
54486SOL     OW70318  11.947   1.711   6.487  0.0506 -0.4956 -0.0625
54486SOL    HW170319  11.947   1.765   6.408  0.4461 -0.0473  0.2424
54486SOL    HW270320  12.021   1.651   6.474 -1.0565 -1.7546 -0.9177
54487SOL     OW70321   2.879   3.671   9.538  0.4991 -0.6981  0.1698
54487SOL    HW170322   2.946   3.673   9.606  0.2881 -2.2925  0.4492
54487SOL    HW270323   2.824   3.596   9.560 -0.6258 -0.1888 -0.7770
54488SOL     OW70324   4.757  12.470   4.595 -0.1312  0.2738 -0.3879
54488SOL    HW170325   4.826  12.462   4.530  0.0459 -1.8470 -0.0077
54488SOL    HW270326   4.692  12.405   4.568 -1.2290  1.1118  0.1753
54489SOL     OW70327   5.091   5.117   2.691  0.0887 -0.7935  0.7396
54489SOL    HW170328   5.096   5.212   2.689  2.7219 -0.8265  1.2581
54489SOL    HW270329   5.021   5.097   2.754  0.3210  0.8175  1.5428
54490SOL     OW70330  10.854  11.500   7.968 -0.2334  0.7801  0.0972
54490SOL    HW170331  10.934  11.466   7.927 -0.5028 -0.5229  0.6185
54490SOL    HW270332  10.783  11.471   7.911 -0.4797  0.3333  0.6259
54491SOL     OW70333   4.882  11.465   1.090 -0.7755 -0.4656  0.1325
54491SOL    HW170334   4.820  11.424   1.030 -0.0151 -0.5586 -0.6059
54491SOL    HW270335   4.858  11.558   1.090 -0.4591 -0.3739 -0.7372
54492SOL     OW70336   8.979   8.971   5.019 -0.2547  0.3312 -0.1048
54492SOL    HW170337   9.040   8.922   5.075 -1.8037 -0.5895  0.8574
54492SOL    HW270338   8.905   8.990   5.076 -0.3316  2.6408 -0.8522
54493SOL     OW70339  12.208   0.639   7.432 -0.5938 -0.1034  0.0521
54493SOL    HW170340  12.229   0.599   7.516 -1.3396 -0.9506 -0.1408
54493SOL    HW270341  12.152   0.574   7.389  1.3105 -0.5597 -1.9064
54494SOL     OW70342   3.907  11.016   2.730  0.4243  0.5678 -0.2756
54494SOL    HW170343   3.813  11.027   2.720  0.0107 -0.8548  1.4321
54494SOL    HW270344   3.939  10.994   2.643 -1.0619 -0.3776 -0.6028
54495SOL     OW70345   4.157   4.963  10.523  0.0041 -0.5019 -0.9960
54495SOL    HW170346   4.216   5.006  10.461 -0.5019  1.3250 -0.2698
54495SOL    HW270347   4.149   5.025  10.596  0.1070 -2.3238  0.6405
54496SOL     OW70348  10.971   8.658   7.847  0.2206 -0.6773  0.1499
54496SOL    HW170349  11.030   8.687   7.778  0.8358  2.5002  1.7897
54496SOL    HW270350  10.884   8.664   7.808  0.6359  0.0440 -0.6984
54497SOL     OW70351   2.962   6.719   4.050 -0.6008  0.0349  0.0665
54497SOL    HW170352   2.886   6.755   4.005  0.0762 -0.9856 -1.9883
54497SOL    HW270353   3.027   6.790   4.048 -0.3898 -0.1801 -1.0798
54498SOL     OW70354   2.487   8.785  11.687  0.2016  0.2216 -0.1885
54498SOL    HW170355   2.443   8.866  11.712 -1.2929 -0.7703  0.4721
54498SOL    HW270356   2.463   8.772  11.595 -1.6340 -0.7373  0.3831
54499SOL     OW70357   0.233   2.957  11.428  0.0135  0.3069 -0.3075
54499SOL    HW170358   0.208   2.874  11.386 -0.3286  0.4149 -0.3241
54499SOL    HW270359   0.152   3.009  11.426  0.1676  0.5521 -0.0881
54500SOL     OW70360   1.063  10.019   9.755  0.4704  0.3540  0.2625
54500SOL    HW170361   0.990  10.041   9.813 -0.6920 -1.3769 -0.4721
54500SOL    HW270362   1.024  10.011   9.668  1.9757  1.6810 -0.5873
54501SOL     OW70363   1.113   5.181   8.555 -0.3140 -0.1925 -0.4470
54501SOL    HW170364   1.181   5.225   8.505  0.0651 -1.5085 -1.1321
54501SOL    HW270365   1.159   5.114   8.606 -0.9286 -0.1495  0.1930
54502SOL     OW70366  10.563   3.256   8.397 -0.2068  0.6233  0.3337
54502SOL    HW170367  10.647   3.224   8.366  0.7424  2.5382  0.7652
54502SOL    HW270368  10.535   3.319   8.330 -1.8040 -0.6662 -0.2891
54503SOL     OW70369  10.171   6.321  11.118  0.0571  0.5659 -0.0182
54503SOL    HW170370  10.207   6.344  11.032 -0.9675 -1.2370 -0.9776
54503SOL    HW270371  10.234   6.259  11.154  0.7995  1.7786  0.8414
54504SOL     OW70372   9.983   1.603   9.971 -0.8580  0.1128  0.3816
54504SOL    HW170373   9.921   1.601  10.044 -0.2501 -1.8827  0.9048
54504SOL    HW270374   9.946   1.543   9.906  0.4773 -1.1475  0.7209
54505SOL     OW70375   3.364   5.231   6.270 -0.7208  0.1213 -0.2845
54505SOL    HW170376   3.415   5.150   6.272  0.9331  1.0966 -0.9016
54505SOL    HW270377   3.357   5.257   6.362  1.3679  0.8073 -0.2678
54506SOL     OW70378   9.019   4.268  11.992  0.0297 -0.3181  0.2816
54506SOL    HW170379   8.961   4.204  12.035 -1.4082 -0.5939 -1.9320
54506SOL    HW270380   8.984   4.353  12.019 -0.2544 -0.4828  0.4409
54507SOL     OW70381  12.430   7.517   4.319 -0.5133  0.6791  0.2497
54507SOL    HW170382  12.364   7.574   4.357 -0.1620  1.8840 -0.8836
54507SOL    HW270383  12.390   7.484   4.238  0.5773  2.2521 -1.0093
54508SOL     OW70384   5.239   4.177   6.846  0.5034  0.0030  0.3493
54508SOL    HW170385   5.246   4.267   6.814 -0.3160  0.2083  0.7122
54508SOL    HW270386   5.269   4.182   6.937  0.0352  0.0023  0.5069
54509SOL     OW70387   8.064  11.301   9.801 -0.3457  0.2609  0.8641
54509SOL    HW170388   8.050  11.228   9.862 -0.3938  1.1364  1.9225
54509SOL    HW270389   8.154  11.290   9.771 -0.8387 -1.1501 -0.2639
54510SOL     OW70390   3.353  10.384   1.323 -0.0571  0.1226  0.6405
54510SOL    HW170391   3.386  10.454   1.380 -1.5975  1.6839 -0.2882
54510SOL    HW270392   3.261  10.407   1.307 -0.6659 -2.2125  0.4001
54511SOL     OW70393   2.879   5.866  12.368 -0.2123  0.3025  0.1285
54511SOL    HW170394   2.874   5.772  12.354  0.7536  0.3878 -0.8959
54511SOL    HW270395   2.840   5.879  12.455 -2.0842 -0.8001 -0.4874
54512SOL     OW70396   6.057   0.734   5.875  0.4743 -0.1197 -0.3607
54512SOL    HW170397   6.028   0.780   5.954  2.2260  0.4356  0.0055
54512SOL    HW270398   5.998   0.766   5.806 -0.9163 -0.4151  0.6485
54513SOL     OW70399   3.257   9.605  12.328  0.3006  0.2092  0.3325
54513SOL    HW170400   3.282   9.522  12.368  0.6141  0.2552  0.2415
54513SOL    HW270401   3.328   9.665  12.352  0.5372  0.2147 -0.3513
54514SOL     OW70402   8.660   6.907   7.147 -0.6668 -0.0330 -0.2659
54514SOL    HW170403   8.598   6.905   7.075 -0.6167 -0.2840 -0.3041
54514SOL    HW270404   8.606   6.893   7.225 -0.6281 -0.5328 -0.3226
54515SOL     OW70405   8.445   7.913  10.106 -0.2162  0.3133  0.5218
54515SOL    HW170406   8.396   7.994  10.096  1.1007  1.4183  2.4669
54515SOL    HW270407   8.510   7.932  10.173  0.7205 -2.0952  0.3943
54516SOL     OW70408  10.200   0.749   4.612 -0.3819  0.3974 -0.2710
54516SOL    HW170409  10.262   0.677   4.620 -0.4899  0.3460  0.1638
54516SOL    HW270410  10.114   0.707   4.619 -0.4414  0.6713  1.0933
54517SOL     OW70411  10.399   4.780   1.892 -0.2025 -0.0752  0.6441
54517SOL    HW170412  10.439   4.720   1.955  1.2386  0.0032 -0.1378
54517SOL    HW270413  10.474   4.819   1.846 -1.1881 -0.2188 -1.1760
54518SOL     OW70414   3.363   8.819  10.285 -0.2455  0.0296  0.4759
54518SOL    HW170415   3.381   8.725  10.283  1.2107  0.2883 -1.1092
54518SOL    HW270416   3.277   8.828  10.245  0.3694 -0.5177 -1.0292
54519SOL     OW70417   8.991   8.581  12.031 -0.4351 -0.2511 -0.9127
54519SOL    HW170418   8.979   8.633  12.110 -2.3860  2.8521 -3.0103
54519SOL    HW270419   9.077   8.607  11.998 -0.5312  0.0778 -0.9045
54520SOL     OW70420   9.656   9.281   7.540 -0.6049  0.1801 -0.2267
54520SOL    HW170421   9.623   9.221   7.474  1.3439 -0.1121 -0.9851
54520SOL    HW270422   9.746   9.255   7.554 -0.5887  1.0642  1.6244
54521SOL     OW70423   7.430   3.009   6.765 -0.1229 -0.2077  0.2339
54521SOL    HW170424   7.478   3.086   6.797  0.2273 -0.1483 -0.4195
54521SOL    HW270425   7.470   2.935   6.811  1.6567 -0.3418 -1.3827
54522SOL     OW70426   2.127  10.371   3.458 -0.0246  0.6219 -0.0196
54522SOL    HW170427   2.065  10.438   3.488  0.0812 -0.1754  2.1993
54522SOL    HW270428   2.210  10.418   3.448  0.6532  0.5731  3.8306
54523SOL     OW70429   3.267  11.857  11.111  0.1157 -0.6338  0.5332
54523SOL    HW170430   3.299  11.823  11.027  2.6444  0.7511  0.8554
54523SOL    HW270431   3.328  11.822  11.176  0.1084  0.8798  1.3938
54524SOL     OW70432   4.360   2.594  11.230  0.1261 -0.3836  0.5544
54524SOL    HW170433   4.301   2.583  11.305 -0.6971  0.1759  0.0174
54524SOL    HW270434   4.389   2.506  11.209  1.1510 -0.4505  2.1306
54525SOL     OW70435   2.820   1.444   0.791 -0.0441 -0.0341 -0.1221
54525SOL    HW170436   2.729   1.459   0.817  0.6804  1.1280  1.9420
54525SOL    HW270437   2.832   1.501   0.714 -0.8503  0.3747  0.0402
54526SOL     OW70438   2.144  11.388   1.769 -0.3901 -0.2191 -0.2508
54526SOL    HW170439   2.145  11.484   1.762  2.0106 -0.2327 -0.7515
54526SOL    HW270440   2.192  11.370   1.850 -0.7407 -1.0134 -0.2186
54527SOL     OW70441   6.267   6.391   8.081 -0.4754  0.1804 -0.1688
54527SOL    HW170442   6.354   6.433   8.084  0.3374 -1.4573  0.4984
54527SOL    HW270443   6.218   6.436   8.149  0.2284  0.3983  0.2141
54528SOL     OW70444   2.043   9.244   2.845 -0.6356  0.2366  0.4339
54528SOL    HW170445   2.050   9.149   2.834 -2.3583  0.2487 -1.1895
54528SOL    HW270446   1.988   9.273   2.773  0.2060  2.5601  0.6336
54529SOL     OW70447   2.354   3.977   9.548 -0.1876 -0.2269 -0.2222
54529SOL    HW170448   2.363   4.070   9.526 -1.9437 -0.3389 -1.6225
54529SOL    HW270449   2.287   3.944   9.488 -0.6931 -2.0631  1.2417
54530SOL     OW70450   0.511   6.258   5.377  0.2294 -0.5027 -0.2298
54530SOL    HW170451   0.438   6.242   5.317 -3.3879  0.0152  3.5507
54530SOL    HW270452   0.505   6.351   5.398  0.5183 -0.8783  1.7588
54531SOL     OW70453   9.593   9.590  11.111 -0.0503  0.4346  0.5289
54531SOL    HW170454   9.526   9.625  11.169  0.0538 -1.2345  1.7187
54531SOL    HW270455   9.666   9.566  11.169  0.3559 -0.5858 -0.3641
54532SOL     OW70456   2.900   9.183   4.698  0.7749  0.2596  0.3157
54532SOL    HW170457   2.871   9.174   4.607  0.2917 -0.8374  0.5664
54532SOL    HW270458   2.932   9.096   4.722  0.9255  0.5424  1.1881
54533SOL     OW70459   9.586   4.907   5.442 -0.3298  0.0172  0.1253
54533SOL    HW170460   9.590   4.844   5.515  0.1234 -1.4644 -1.1201
54533SOL    HW270461   9.674   4.905   5.404 -0.9057 -0.2362 -1.2439
54534SOL     OW70462  10.017   0.964   2.272 -0.1395  0.4374  0.1455
54534SOL    HW170463   9.926   0.934   2.265  0.1865 -0.3811 -0.9428
54534SOL    HW270464  10.042   0.983   2.181  0.8688  0.3330  0.3962
54535SOL     OW70465   0.468   9.826  11.175  0.3279 -0.2278  0.6167
54535SOL    HW170466   0.553   9.866  11.157 -0.2414  0.3304 -1.0338
54535SOL    HW270467   0.488   9.735  11.196  1.4105  0.1885  1.4640
54536SOL     OW70468   9.402   9.097  11.184 -0.0831 -0.0561  0.2130
54536SOL    HW170469   9.431   9.130  11.269 -0.8395  0.4480  0.2848
54536SOL    HW270470   9.309   9.119  11.180  0.1505  0.8096 -1.1597
54537SOL     OW70471  10.388   9.506   0.885 -0.2064  0.1632 -0.8785
54537SOL    HW170472  10.316   9.562   0.856 -1.6173 -1.8320 -1.4575
54537SOL    HW270473  10.366   9.483   0.975  0.5128  0.7029 -0.5477
54538SOL     OW70474   8.525  10.821   3.193 -0.1260 -0.7444  0.3575
54538SOL    HW170475   8.555  10.762   3.124 -2.9310 -1.3864 -0.4514
54538SOL    HW270476   8.537  10.909   3.158  1.8178 -0.8707  0.5877
54539SOL     OW70477  11.002   4.379   7.751  0.3630 -0.2842  0.0754
54539SOL    HW170478  11.030   4.296   7.713  0.8148  0.5524 -1.5232
54539SOL    HW270479  10.957   4.425   7.679 -1.2985  0.2144  1.3674
54540SOL     OW70480   9.927   5.197   3.000  0.2589  0.2285 -0.6357
54540SOL    HW170481   9.912   5.288   2.974 -1.4668  0.1066 -0.1776
54540SOL    HW270482   9.967   5.156   2.923 -0.3476  1.0201 -1.3911
54541SOL     OW70483   2.972   9.541   2.602  0.2013 -0.3829  0.0448
54541SOL    HW170484   2.920   9.575   2.674  0.8654  0.9973 -0.1040
54541SOL    HW270485   2.937   9.453   2.587  1.1032 -1.4004  3.1027
54542SOL     OW70486  11.226  10.382   5.139  1.0881 -0.0726  0.1895
54542SOL    HW170487  11.131  10.386   5.130  1.0809  0.2628  0.3936
54542SOL    HW270488  11.256  10.331   5.063  0.6664 -1.0083  0.6453
54543SOL     OW70489   9.749  10.487  11.291  0.1671 -0.0514  0.3225
54543SOL    HW170490   9.704  10.570  11.276 -2.1297 -0.8467  2.2217
54543SOL    HW270491   9.818  10.508  11.354 -2.6145 -0.0357  3.6070
54544SOL     OW70492   8.589  11.997   4.698  0.0435 -0.0728  0.2824
54544SOL    HW170493   8.573  11.903   4.703 -0.6037  0.0270  0.2218
54544SOL    HW270494   8.666  12.006   4.642  1.0025 -0.6371  1.4795
54545SOL     OW70495   4.496   3.656  10.109  0.2314 -0.6706 -0.2630
54545SOL    HW170496   4.421   3.715  10.104 -0.0212 -0.9357  0.3110
54545SOL    HW270497   4.557   3.699  10.169 -0.0818 -1.1323  0.3896
54546SOL     OW70498  11.597   6.451   8.065  0.2770 -0.8295  0.3194
54546SOL    HW170499  11.624   6.373   8.018  1.3377 -1.6815  2.2424
54546SOL    HW270500  11.527   6.489   8.011  1.4786 -1.6663 -1.9322
54547SOL     OW70501  11.079   8.508   0.751 -0.0083  0.1411 -0.1304
54547SOL    HW170502  11.149   8.570   0.770  0.0368 -0.2142  0.9338
54547SOL    HW270503  11.086   8.492   0.657  0.8151  0.7337 -0.1820
54548SOL     OW70504   6.409   4.032   1.873  0.3243 -0.8554  0.5315
54548SOL    HW170505   6.472   3.969   1.909 -0.8462 -1.3660  1.7695
54548SOL    HW270506   6.389   3.999   1.786 -0.3712 -2.3374  1.2044
54549SOL     OW70507   3.976   3.047   2.672  0.4403  0.6578  0.7055
54549SOL    HW170508   4.048   3.073   2.614 -1.5917  0.5748 -2.0305
54549SOL    HW270509   3.900   3.041   2.614 -1.6852  0.2314  3.3794
54550SOL     OW70510  12.024   9.357  12.355  0.1986  0.6062 -0.0427
54550SOL    HW170511  11.985   9.288  12.303 -2.0772  3.2483 -2.1903
54550SOL    HW270512  12.103   9.382  12.308 -0.5709  1.3638 -0.9892
54551SOL     OW70513   9.311   6.738   0.545 -0.2972 -0.0646 -0.1529
54551SOL    HW170514   9.240   6.674   0.549  0.0203 -0.4093  0.0262
54551SOL    HW270515   9.374   6.709   0.611 -0.5444  0.9217  0.5242
54552SOL     OW70516   6.111  11.592   7.304 -0.0023 -0.0677 -0.1881
54552SOL    HW170517   6.121  11.505   7.265  1.6376  0.6474 -1.5155
54552SOL    HW270518   6.150  11.584   7.391  1.7629 -0.2750 -0.9586
54553SOL     OW70519   8.393   5.520   4.245  0.7391 -1.0212 -0.0419
54553SOL    HW170520   8.368   5.462   4.317 -0.4268 -0.7318 -0.2000
54553SOL    HW270521   8.310   5.555   4.212  1.2211 -1.3211 -1.6775
54554SOL     OW70522   5.519   5.536   1.237 -0.1791  0.9145  0.7219
54554SOL    HW170523   5.499   5.561   1.328 -0.3232  2.2292  0.3584
54554SOL    HW270524   5.487   5.610   1.185  0.3992  0.4204 -0.3601
54555SOL     OW70525   7.885  10.319   4.358  0.5855 -0.3437  0.0861
54555SOL    HW170526   7.906  10.340   4.267 -0.4796  1.2035  0.1578
54555SOL    HW270527   7.922  10.392   4.408  1.6008 -1.4224  0.9879
54556SOL     OW70528  10.010  10.534   1.020  0.2710  0.0502 -0.4198
54556SOL    HW170529  10.067  10.507   1.092  0.0103 -2.1837 -0.9954
54556SOL    HW270530   9.967  10.613   1.052  0.3298 -0.7548  1.7922
54557SOL     OW70531   8.843   7.087   2.360 -0.1493 -0.4967 -0.2469
54557SOL    HW170532   8.901   7.097   2.284 -2.2957  0.4287 -1.8504
54557SOL    HW270533   8.838   6.992   2.373 -0.5567 -0.7526 -1.9633
54558SOL     OW70534   7.590  12.028   8.470 -0.3561  0.2316  0.4383
54558SOL    HW170535   7.618  12.117   8.450 -1.2790  0.2892 -0.6753
54558SOL    HW270536   7.494  12.033   8.470 -0.4292 -0.4348  1.9573
54559SOL     OW70537   6.445   2.639   0.056 -0.2013  0.1872  0.1431
54559SOL    HW170538   6.473   2.548   0.068 -0.6921 -0.3264 -2.0953
54559SOL    HW270539   6.368   2.648   0.111 -2.2123 -1.8880 -2.1022
54560SOL     OW70540   5.060   2.409   7.288 -0.1619  0.5142  0.3370
54560SOL    HW170541   5.107   2.489   7.264  1.4028 -0.6963 -0.9177
54560SOL    HW270542   5.006   2.390   7.211 -0.0342  0.0408  0.3603
54561SOL     OW70543  11.646   6.531   1.427  0.2627 -0.4579 -0.4291
54561SOL    HW170544  11.653   6.514   1.520  1.0250 -0.0915 -0.4072
54561SOL    HW270545  11.611   6.620   1.421  0.5113 -0.3619 -0.4836
54562SOL     OW70546   4.769   4.917   0.658  0.3369 -0.5103 -0.1773
54562SOL    HW170547   4.758   5.012   0.663  0.9122 -0.4907  1.1932
54562SOL    HW270548   4.791   4.891   0.747  0.5713 -1.8925 -0.6155
54563SOL     OW70549  11.104   0.288   3.256  0.3181  0.0467  0.5892
54563SOL    HW170550  11.059   0.372   3.258  0.3732  0.0730  0.8079
54563SOL    HW270551  11.098   0.259   3.165  2.3610  1.3873 -0.0547
54564SOL     OW70552  12.284   6.683   6.192 -0.3596  0.0583 -0.0962
54564SOL    HW170553  12.305   6.590   6.197  0.3669  0.2288  0.0785
54564SOL    HW270554  12.236   6.701   6.273  1.0120  0.2050  0.7145
54565SOL     OW70555  10.218   8.652   2.607 -0.4491  0.1121 -0.0575
54565SOL    HW170556  10.301   8.695   2.585 -0.8166  0.4124 -0.9004
54565SOL    HW270557  10.164   8.722   2.645  0.1369 -0.3748  1.7634
54566SOL     OW70558   0.880   0.264   0.491  0.3578  0.1853  0.1040
54566SOL    HW170559   0.967   0.276   0.452  0.2572  1.3386  0.1920
54566SOL    HW270560   0.859   0.172   0.475  1.8669 -0.2909  0.6441
54567SOL     OW70561   8.524   1.308  10.452 -0.2422  0.3456  1.2094
54567SOL    HW170562   8.447   1.363  10.466 -0.1836  0.7873 -0.0580
54567SOL    HW270563   8.589   1.341  10.514 -0.8933  0.3140  1.9207
54568SOL     OW70564   7.269   4.050   4.262 -0.3781 -0.2145  0.4645
54568SOL    HW170565   7.223   4.134   4.254 -0.6627 -0.2502  1.5607
54568SOL    HW270566   7.353   4.072   4.302 -0.3163 -0.4030  0.4383
54569SOL     OW70567  10.831  11.870   7.929  0.1292 -0.2521 -0.5608
54569SOL    HW170568  10.869  11.782   7.931  0.6362 -0.0288 -0.3502
54569SOL    HW270569  10.900  11.926   7.894 -0.1513  0.0830 -0.5815
54570SOL     OW70570   1.448   8.802   4.597  0.2383  0.5990  0.1465
54570SOL    HW170571   1.419   8.780   4.508 -0.7521  1.7488  0.1690
54570SOL    HW270572   1.409   8.887   4.614  0.6693  0.5199  1.5825
54571SOL     OW70573   6.564   2.325   6.781 -0.6329  0.7527  0.1366
54571SOL    HW170574   6.532   2.312   6.870 -1.1334 -3.1208 -0.4220
54571SOL    HW270575   6.486   2.350   6.731 -0.8487  0.6095  0.3994
54572SOL     OW70576   3.470   8.953   2.325 -0.0461 -0.0861 -0.1819
54572SOL    HW170577   3.513   8.993   2.400  1.7577 -1.1484 -0.5879
54572SOL    HW270578   3.467   8.859   2.345 -0.6595 -0.2427 -0.9133
54573SOL     OW70579   9.711   8.663  11.420 -0.5080 -0.1693 -0.7109
54573SOL    HW170580   9.741   8.637  11.333  0.5733  0.1693 -0.4429
54573SOL    HW270581   9.711   8.759  11.418 -0.0379 -0.1536 -0.1944
54574SOL     OW70582  11.915  11.273   5.312 -0.3651  0.1710 -0.1531
54574SOL    HW170583  11.856  11.228   5.372 -1.0275  0.1990 -0.7771
54574SOL    HW270584  11.883  11.250   5.225  0.8406 -0.2084 -0.5170
54575SOL     OW70585   5.253  10.918  11.728  0.0474  0.3607  0.1961
54575SOL    HW170586   5.279  10.880  11.812 -1.3936 -0.6637  0.1996
54575SOL    HW270587   5.287  10.856  11.662 -1.8462 -0.7278  0.1841
54576SOL     OW70588   0.893   8.830   5.442 -0.3977  0.4756 -0.2189
54576SOL    HW170589   0.824   8.896   5.431  0.2380  1.1869  0.0041
54576SOL    HW270590   0.974   8.881   5.448 -0.0743 -0.1976  1.7208
54577SOL     OW70591   6.214   5.387  12.298 -0.3324  0.0635 -0.4071
54577SOL    HW170592   6.246   5.335  12.372 -0.1118 -0.9077 -1.1718
54577SOL    HW270593   6.186   5.322  12.233 -1.2697  0.9020 -0.8674
54578SOL     OW70594  10.383  12.302  10.469 -0.3318 -0.3486 -0.3813
54578SOL    HW170595  10.392  12.224  10.525  0.8746  1.1937  1.7238
54578SOL    HW270596  10.461  12.354  10.487 -1.2479  1.5133 -1.4624
54579SOL     OW70597   9.549   1.064   9.889 -0.1982  0.2295  0.1114
54579SOL    HW170598   9.618   1.099   9.833  0.2515  0.4053  0.7607
54579SOL    HW270599   9.513   0.990   9.840  0.3225  0.2537 -0.3156
54580SOL     OW70600   3.015   4.968  12.359 -0.2002  0.6125  0.1990
54580SOL    HW170601   3.089   4.932  12.310 -0.0398 -0.9496  1.5136
54580SOL    HW270602   3.054   5.006  12.438 -0.6765  1.0704  0.2259
54581SOL     OW70603   8.334   4.570   5.783 -0.4002 -0.2926  0.2283
54581SOL    HW170604   8.271   4.642   5.779  1.8625  1.7704 -1.1777
54581SOL    HW270605   8.303   4.508   5.716 -1.3236  0.3243  0.0613
54582SOL     OW70606   8.158   3.387   2.155 -0.6252 -0.1318  0.4239
54582SOL    HW170607   8.213   3.416   2.228 -0.2143  0.7555 -0.2249
54582SOL    HW270608   8.068   3.398   2.187 -0.5165  2.6386 -0.0418
54583SOL     OW70609   3.774   6.251   5.329 -0.0043 -0.3211 -0.3267
54583SOL    HW170610   3.801   6.160   5.331  0.4684 -0.1786  1.6141
54583SOL    HW270611   3.704   6.257   5.394 -0.9078  0.4541 -1.3308
54584SOL     OW70612   8.597  12.316   9.769 -0.4247  0.3423 -0.1204
54584SOL    HW170613   8.578  12.318   9.863 -0.4098  0.9091 -0.1239
54584SOL    HW270614   8.633  12.229   9.753 -0.9796  0.0312  0.2906
54585SOL     OW70615  10.319  10.191   7.194  0.1599  0.3874 -0.4738
54585SOL    HW170616  10.377  10.266   7.206  0.7080  0.3495 -2.5385
54585SOL    HW270617  10.233  10.229   7.180  0.0123  0.5103  0.6141
54586SOL     OW70618   4.817   9.652   4.574  0.8932 -0.3777  0.2451
54586SOL    HW170619   4.777   9.565   4.565  0.0340  0.0345 -0.0320
54586SOL    HW270620   4.907   9.634   4.601  0.9798 -1.3771 -0.6503
54587SOL     OW70621   5.920   8.323   8.026 -0.3617  0.4125 -0.2779
54587SOL    HW170622   6.001   8.354   7.986  0.3935 -0.2914  0.6440
54587SOL    HW270623   5.852   8.381   7.992  0.7872  2.1636  0.3027
54588SOL     OW70624  10.172  10.273   9.789 -0.0690  0.1571 -0.0087
54588SOL    HW170625  10.094  10.221   9.809  0.7171 -0.8109  0.6176
54588SOL    HW270626  10.153  10.359   9.828 -1.8463  0.7781 -2.0187
54589SOL     OW70627   8.042   6.107  10.424  0.3871  0.0625 -0.2925
54589SOL    HW170628   8.064   6.095  10.517  0.3096 -0.2991 -0.3195
54589SOL    HW270629   8.123   6.087  10.378  0.3756  0.0652 -0.3135
54590SOL     OW70630   1.988   9.707   6.815 -0.6529 -0.2334 -0.2240
54590SOL    HW170631   2.049   9.748   6.753  0.3922 -1.0583  0.2336
54590SOL    HW270632   2.010   9.614   6.813 -1.3483 -0.4279  0.5775
54591SOL     OW70633   1.741   5.180  10.597 -0.2328 -0.2857 -1.1178
54591SOL    HW170634   1.780   5.101  10.559 -0.0275 -0.0480 -1.4101
54591SOL    HW270635   1.647   5.166  10.589 -0.2301 -1.0079 -0.1161
54592SOL     OW70636   8.311   7.691   7.809 -0.0707  0.5968  0.1623
54592SOL    HW170637   8.255   7.714   7.735 -0.0552 -0.4139 -0.1759
54592SOL    HW270638   8.391   7.656   7.769 -0.4234 -0.8107  0.6446
54593SOL     OW70639   8.935  11.908   0.926 -0.4640 -0.0687 -0.6361
54593SOL    HW170640   8.985  11.855   0.988  1.1196 -0.4771 -2.1652
54593SOL    HW270641   8.844  11.883   0.940 -0.2228  0.2671  1.8631
54594SOL     OW70642   3.561   6.927  11.578 -0.0624 -0.1669  0.0329
54594SOL    HW170643   3.592   7.009  11.538 -2.2768  0.9713  0.4640
54594SOL    HW270644   3.558   6.946  11.672 -1.2403 -0.4819  0.0736
54595SOL     OW70645   1.047   9.359  12.148  0.3652  0.3726  0.1209
54595SOL    HW170646   0.972   9.417  12.163 -0.4992 -0.2207 -1.6206
54595SOL    HW270647   1.110   9.414  12.101  1.2283  0.9718  1.8862
54596SOL     OW70648   9.255   9.110   7.507 -0.2609  0.5375 -0.2280
54596SOL    HW170649   9.295   9.155   7.433  0.9316  0.5391  0.3863
54596SOL    HW270650   9.258   9.017   7.484  1.0607  0.4456  0.2288
54597SOL     OW70651   3.899   7.669   5.348 -0.4293  0.0943 -0.2050
54597SOL    HW170652   3.978   7.630   5.385 -1.0508 -0.9934  0.0503
54597SOL    HW270653   3.882   7.618   5.269 -0.8537  0.3203 -0.2626
54598SOL     OW70654   9.216   3.826   8.528 -0.1352 -0.6637 -0.5112
54598SOL    HW170655   9.159   3.842   8.452 -0.4022 -3.6526 -1.0358
54598SOL    HW270656   9.163   3.852   8.603 -1.0855 -0.6363 -1.1741
54599SOL     OW70657   6.339   2.664   5.824  0.1170 -0.2562  0.5802
54599SOL    HW170658   6.288   2.605   5.769 -1.0969  1.2555  0.0093
54599SOL    HW270659   6.308   2.646   5.913 -1.6742  0.8332  0.2127
54600SOL     OW70660   2.566   4.413   2.322 -0.0398 -0.0202  0.3647
54600SOL    HW170661   2.547   4.494   2.273 -0.3568  0.3938  1.1609
54600SOL    HW270662   2.660   4.402   2.314  0.4412  1.8889  2.4323
54601SOL     OW70663   3.923   3.064   1.435  0.7167 -0.6418 -0.2686
54601SOL    HW170664   3.960   3.030   1.517 -0.3666  0.4854  0.7281
54601SOL    HW270665   3.990   3.124   1.402  1.1461 -1.0785 -0.2109
54602SOL     OW70666   7.816   0.229   8.155 -0.0410 -0.5590 -0.1180
54602SOL    HW170667   7.769   0.172   8.216 -0.4268  0.5347  0.6364
54602SOL    HW270668   7.908   0.219   8.180  0.1232 -2.2493 -1.2127
54603SOL     OW70669   7.655   3.772   8.070 -0.3434  0.3433 -0.2063
54603SOL    HW170670   7.663   3.743   8.160  0.2997 -1.0168 -0.6828
54603SOL    HW270671   7.573   3.733   8.039 -2.6522  3.8530  0.8347
54604SOL     OW70672   2.324   6.145   3.945  0.1396 -0.1086 -0.7542
54604SOL    HW170673   2.312   6.088   4.021  1.0196 -0.7007 -1.0400
54604SOL    HW270674   2.239   6.144   3.901  0.7902 -3.4774 -2.2727
54605SOL     OW70675   6.185  11.041   5.235  0.1799  0.7825 -0.0774
54605SOL    HW170676   6.125  10.975   5.268  0.5612  0.3022 -0.3341
54605SOL    HW270677   6.271  11.000   5.240  0.9462  2.4685  3.1081
54606SOL     OW70678  11.282   6.822   7.700 -0.1175  0.4669 -0.6421
54606SOL    HW170679  11.263   6.728   7.697 -1.1954  0.6499  0.1348
54606SOL    HW270680  11.353   6.830   7.764  0.2485  0.1589 -0.9966
54607SOL     OW70681   4.190  11.104   7.341  0.1566 -0.2357 -0.2248
54607SOL    HW170682   4.201  11.078   7.432  1.7358  1.0152 -0.0262
54607SOL    HW270683   4.261  11.061   7.294 -0.1118 -0.1616 -0.7095
54608SOL     OW70684   8.088   0.305   4.581  0.0914  0.0507  0.0909
54608SOL    HW170685   8.078   0.390   4.624 -1.2831  0.9487 -1.7866
54608SOL    HW270686   8.181   0.285   4.585  0.2320  0.9614  1.7885
54609SOL     OW70687   9.397   3.666   6.363  0.1264  0.1427 -0.3582
54609SOL    HW170688   9.486   3.646   6.334 -0.5187 -1.7553 -1.1891
54609SOL    HW270689   9.402   3.661   6.458  1.2006  1.5241 -0.3076
54610SOL     OW70690  10.782   4.641   3.251  0.0188 -0.4599  0.2736
54610SOL    HW170691  10.823   4.681   3.175  0.9338  1.1590  1.5624
54610SOL    HW270692  10.706   4.593   3.216  0.4890  0.1397 -1.6333
54611SOL     OW70693   9.039  10.762   1.644  0.2401  0.3100 -1.2567
54611SOL    HW170694   9.046  10.786   1.737 -1.7978  2.8738 -1.6652
54611SOL    HW270695   9.083  10.677   1.639 -0.5529 -0.4917  2.2684
54612SOL     OW70696   6.156   1.346  10.834  0.0373 -0.0732 -0.3271
54612SOL    HW170697   6.242   1.390  10.836  0.2954 -0.5619  2.6863
54612SOL    HW270698   6.106   1.388  10.904 -0.4476 -3.0537  1.2574
54613SOL     OW70699   8.788   5.402  10.086  0.6813  0.5097 -0.2192
54613SOL    HW170700   8.829   5.394  10.172  1.8712  0.5767 -0.7523
54613SOL    HW270701   8.841   5.346  10.029 -1.0943 -0.8539 -0.5974
54614SOL     OW70702   0.008  10.616   6.946 -1.0479  0.4230 -0.3425
54614SOL    HW170703   0.014  10.550   6.877 -0.3672 -0.3371  0.4191
54614SOL    HW270704   0.096  10.653   6.951 -1.1543  0.6383 -0.0334
54615SOL     OW70705  11.361   9.016   7.295 -0.2469 -0.1243  0.1135
54615SOL    HW170706  11.405   8.953   7.238  0.3347  1.4231 -1.2291
54615SOL    HW270707  11.431   9.074   7.326 -1.0151  1.0713 -0.3221
54616SOL     OW70708   2.368   6.640   0.224  0.9157 -0.0192  0.2906
54616SOL    HW170709   2.357   6.661   0.132 -0.0443  0.1569  0.4264
54616SOL    HW270710   2.289   6.589   0.246  1.9216 -1.5049  0.6087
54617SOL     OW70711   7.132   8.696   7.010  0.7138 -0.0299 -0.2992
54617SOL    HW170712   7.108   8.789   7.012  1.8023  0.2803 -0.8181
54617SOL    HW270713   7.062   8.654   6.960  1.1047  0.8153 -1.6216
54618SOL     OW70714   5.575   6.434   5.105 -0.0991  0.3816  0.1607
54618SOL    HW170715   5.630   6.376   5.052  3.7391  3.1964  0.6117
54618SOL    HW270716   5.566   6.388   5.189  1.3642 -0.3376 -0.0345
54619SOL     OW70717   5.768   1.991   7.534 -0.2336  0.1910  0.4487
54619SOL    HW170718   5.693   1.979   7.476 -0.1602  0.1146  0.3715
54619SOL    HW270719   5.843   1.997   7.476 -0.0755 -0.5447  0.5708
54620SOL     OW70720   3.590   6.578   1.200 -0.2289  0.2519 -0.0136
54620SOL    HW170721   3.683   6.598   1.211 -0.1366  0.1485 -0.6229
54620SOL    HW270722   3.547   6.663   1.212  0.0247  0.4927 -0.7340
54621SOL     OW70723   5.426   1.386   3.221  0.0074  1.0410 -0.7000
54621SOL    HW170724   5.463   1.413   3.305 -0.5050 -1.5800  0.4851
54621SOL    HW270725   5.502   1.358   3.170  0.0472 -2.0531  0.8357
54622SOL     OW70726   9.663   4.044   3.762 -0.7605  0.1279  0.3370
54622SOL    HW170727   9.715   3.963   3.763  0.0880  0.6583  1.5722
54622SOL    HW270728   9.615   4.043   3.845 -2.8217 -0.3662 -0.7851
54623SOL     OW70729   5.066   1.259   4.884  0.4698 -0.5691 -0.2606
54623SOL    HW170730   4.977   1.227   4.870  0.5632 -0.9852  0.1036
54623SOL    HW270731   5.122   1.189   4.851  0.7219 -1.7849  2.4749
54624SOL     OW70732   0.412   4.049   6.099 -0.2289 -0.6311 -0.2899
54624SOL    HW170733   0.498   4.011   6.111 -0.2371 -0.3814  0.6165
54624SOL    HW270734   0.352   3.986   6.139 -0.3414 -0.1977  0.2380
54625SOL     OW70735   3.396   9.609   4.521  0.0268 -0.1645 -0.1027
54625SOL    HW170736   3.485   9.635   4.545 -1.4080  1.4899  4.6275
54625SOL    HW270737   3.346   9.691   4.524 -1.6832 -0.9774 -3.0271
54626SOL     OW70738   6.740   6.152   9.992 -0.1005 -0.2067 -0.0876
54626SOL    HW170739   6.764   6.154   9.900  0.6217  0.6911  0.1084
54626SOL    HW270740   6.659   6.100   9.995  0.7407 -1.6368 -1.0144
54627SOL     OW70741   8.894   4.202   2.850  0.2484  0.6758 -0.1233
54627SOL    HW170742   8.871   4.173   2.762  0.5413 -1.3096  0.4136
54627SOL    HW270743   8.887   4.123   2.904 -0.1013  1.8721  1.6818
54628SOL     OW70744   1.870   9.243   4.857  0.8316  0.3042  0.8071
54628SOL    HW170745   1.783   9.209   4.835  1.0124 -0.8781  1.8295
54628SOL    HW270746   1.857   9.290   4.939  1.0316  0.6983  0.6130
54629SOL     OW70747   5.680   6.999  10.797 -0.5469 -0.0484 -0.0431
54629SOL    HW170748   5.619   7.073  10.786  1.3036  1.3046 -1.8454
54629SOL    HW270749   5.678   6.953  10.714 -0.5483 -1.1940  0.5643
54630SOL     OW70750   6.503   6.128   3.062 -0.1878  0.5408  0.0788
54630SOL    HW170751   6.464   6.148   2.977 -0.4680 -1.5853 -0.3484
54630SOL    HW270752   6.596   6.116   3.045 -0.3592 -0.6467 -0.1020
54631SOL     OW70753   1.452   8.241   2.559  0.8846  0.3109 -0.6051
54631SOL    HW170754   1.431   8.263   2.650 -0.0698  0.8483 -0.9419
54631SOL    HW270755   1.471   8.147   2.560 -3.1672 -0.6869 -0.4943
54632SOL     OW70756   3.009   4.640   1.166  0.3465 -0.0409 -0.4724
54632SOL    HW170757   2.928   4.622   1.118 -0.1785 -0.3145  0.5053
54632SOL    HW270758   2.981   4.687   1.244  0.8443 -2.1155  1.0447
54633SOL     OW70759   0.805   0.952   0.877  0.1608  0.1658 -0.3120
54633SOL    HW170760   0.765   0.928   0.960  1.1373 -0.5208 -0.0287
54633SOL    HW270761   0.816   1.047   0.881 -2.2338  0.5221 -0.7707
54634SOL     OW70762   5.119   9.511   1.647  0.0642  0.2444 -0.3819
54634SOL    HW170763   5.185   9.488   1.713  0.3863  1.7284 -0.1527
54634SOL    HW270764   5.152   9.471   1.566  0.7104  0.0998 -0.0590
54635SOL     OW70765   2.443   9.241   6.158 -0.0110  0.1265  0.1436
54635SOL    HW170766   2.356   9.265   6.127 -0.4581 -1.7093 -0.1794
54635SOL    HW270767   2.459   9.297   6.234 -0.8084  1.5426 -0.7099
54636SOL     OW70768   0.550   3.284  11.111  0.3000 -0.3161  0.4217
54636SOL    HW170769   0.530   3.210  11.168  0.0794 -0.6638 -0.0903
54636SOL    HW270770   0.576   3.354  11.170  0.7366 -0.8712  0.9094
54637SOL     OW70771   9.824   2.013   0.875 -0.1236  0.1777  0.0706
54637SOL    HW170772   9.868   1.956   0.812 -0.6530  0.5129 -0.6226
54637SOL    HW270773   9.893   2.069   0.910  0.2827 -0.4399  0.2560
54638SOL     OW70774   5.495  11.091   6.888  0.0221 -0.0931  0.2706
54638SOL    HW170775   5.569  11.081   6.948  0.7426 -0.7067 -0.6938
54638SOL    HW270776   5.500  11.015   6.830 -0.5488  0.5727 -0.6860
54639SOL     OW70777   9.031   1.106   5.091 -0.0258 -0.0852 -0.4321
54639SOL    HW170778   9.097   1.164   5.129  0.5049 -1.0406  0.1714
54639SOL    HW270779   9.046   1.110   4.997 -1.0556  1.9749 -0.5526
54640SOL     OW70780   6.326   4.253   5.348  0.2601  0.7728  0.0132
54640SOL    HW170781   6.400   4.315   5.351  0.7360  0.2366 -0.5303
54640SOL    HW270782   6.363   4.172   5.313 -1.2213  1.4463 -3.6039
54641SOL     OW70783   4.315   2.321   3.026  0.2276  0.1841 -1.0493
54641SOL    HW170784   4.396   2.347   3.071 -0.0719  1.4767 -1.2206
54641SOL    HW270785   4.245   2.357   3.080 -0.1836  0.4379 -1.7402
54642SOL     OW70786   7.241  11.869   4.411  0.1950  0.4910 -0.2548
54642SOL    HW170787   7.268  11.787   4.368 -2.2966 -0.6695  0.1823
54642SOL    HW270788   7.263  11.856   4.503  1.3002  1.0205 -0.4393
54643SOL     OW70789  11.147  11.864   0.049 -0.9880 -0.0805  0.2555
54643SOL    HW170790  11.182  11.942   0.092 -0.8413 -0.3687  0.6790
54643SOL    HW270791  11.198  11.792   0.087 -0.5633 -0.3133 -0.7188
54644SOL     OW70792   7.414   1.977   6.587  0.3681  0.9515 -0.6561
54644SOL    HW170793   7.337   2.028   6.614 -0.8919 -0.6685 -0.9772
54644SOL    HW270794   7.428   2.001   6.496 -0.9393 -0.0472 -1.1568
54645SOL     OW70795   1.424   4.973   0.774  0.4037 -0.6609 -0.2421
54645SOL    HW170796   1.402   4.927   0.693 -0.0236 -0.6667 -0.1235
54645SOL    HW270797   1.354   5.037   0.786 -0.2435 -1.5131  0.7830
54646SOL     OW70798   1.268   2.158   1.774  0.0198 -0.2325  0.0401
54646SOL    HW170799   1.283   2.198   1.860 -0.4488 -1.6269  0.8152
54646SOL    HW270800   1.348   2.109   1.757  0.5755  0.9520 -0.8832
54647SOL     OW70801   4.367   5.826   2.436  0.3637  0.4391  0.0406
54647SOL    HW170802   4.354   5.900   2.377  1.6481  0.4593 -0.2443
54647SOL    HW270803   4.428   5.769   2.389  0.4190 -0.1531  0.8245
54648SOL     OW70804  10.338   9.204   0.443  0.0548 -0.5126 -0.1345
54648SOL    HW170805  10.342   9.140   0.372 -3.2472 -0.6072 -0.3740
54648SOL    HW270806  10.321   9.152   0.521 -0.9763 -0.0625 -0.0548
54649SOL     OW70807   9.163   1.995  10.625 -0.0275 -0.5943  0.2833
54649SOL    HW170808   9.138   2.086  10.641  0.2310 -0.6571  1.1077
54649SOL    HW270809   9.209   1.997  10.541  2.2774  0.5053  1.4863
54650SOL     OW70810   9.615   5.483   6.739  0.3166 -0.0439 -0.2122
54650SOL    HW170811   9.638   5.519   6.825 -0.1936 -0.4426  0.0993
54650SOL    HW270812   9.656   5.397   6.736 -0.1757 -0.2869 -0.1113
54651SOL     OW70813  12.068   7.567   1.993 -0.4959  0.2668 -0.1667
54651SOL    HW170814  12.143   7.507   1.988 -0.5533  0.2249 -0.5779
54651SOL    HW270815  11.993   7.511   2.011 -0.4804  0.2641 -0.1113
54652SOL     OW70816  10.049  12.367   8.072  0.2941 -0.2583 -0.6182
54652SOL    HW170817  10.016  12.435   8.013  1.9851 -0.6400 -2.1003
54652SOL    HW270818  10.049  12.408   8.158 -1.0999  0.7404 -1.0491
54653SOL     OW70819   5.151   1.885   6.105 -0.1308 -0.2581  0.1298
54653SOL    HW170820   5.126   1.952   6.169  2.9072  2.2630 -1.0751
54653SOL    HW270821   5.109   1.913   6.023  0.1940 -0.5327 -0.1334
54654SOL     OW70822   8.603   8.158   2.059 -0.1207 -0.0125  0.2595
54654SOL    HW170823   8.630   8.250   2.062  1.0261 -0.3642  1.3090
54654SOL    HW270824   8.512   8.159   2.088 -0.6083  0.9410 -1.1719
54655SOL     OW70825  11.402   8.564   8.656 -0.4910  0.1588 -0.2492
54655SOL    HW170826  11.433   8.474   8.667  0.8752  0.6068 -0.2190
54655SOL    HW270827  11.454   8.598   8.583  0.0623  1.3728  0.6811
54656SOL     OW70828  10.776   0.260   6.888  0.1912  0.5281 -0.3407
54656SOL    HW170829  10.701   0.226   6.937 -0.6779  0.7594 -1.4479
54656SOL    HW270830  10.837   0.186   6.883 -0.2481  0.1359  0.0327
54657SOL     OW70831   0.671   5.998   9.813  0.0572 -0.7068  0.2190
54657SOL    HW170832   0.699   5.910   9.840  0.0394 -1.1140 -1.0484
54657SOL    HW270833   0.586   5.985   9.771  0.0603 -0.0880  0.0103
54658SOL     OW70834   8.704   4.143  10.310 -0.1891  0.4192  0.0888
54658SOL    HW170835   8.734   4.097  10.388  0.2172 -0.7368 -0.7195
54658SOL    HW270836   8.640   4.206  10.342 -2.5534 -2.2579  1.0490
54659SOL     OW70837   4.434   0.600   6.717 -0.3629 -0.0640 -0.1719
54659SOL    HW170838   4.387   0.638   6.643 -1.6453 -1.7283 -0.2792
54659SOL    HW270839   4.399   0.511   6.724 -0.0316 -0.0610  2.2295
54660SOL     OW70840   2.388   5.000   0.063  0.3819 -0.0010 -0.4563
54660SOL    HW170841   2.482   4.982   0.070  0.7231  0.7785 -2.4497
54660SOL    HW270842   2.382   5.095   0.056 -0.4917 -0.0933 -1.1083
54661SOL     OW70843   9.839   0.298  11.729 -0.0090 -0.2097  0.3090
54661SOL    HW170844   9.744   0.300  11.722  0.0803  0.1946 -1.0909
54661SOL    HW270845   9.868   0.379  11.686  0.9692 -0.4469  0.5040
54662SOL     OW70846   0.940   2.680   0.904  0.2202 -0.5084  0.2655
54662SOL    HW170847   0.962   2.601   0.953  1.3160 -1.7669 -2.0774
54662SOL    HW270848   0.886   2.649   0.831 -1.0563  1.2277  0.3980
54663SOL     OW70849   2.809   4.946   1.671 -0.4506  0.6378  0.5055
54663SOL    HW170850   2.791   4.975   1.582 -0.1360  1.9302  0.8533
54663SOL    HW270851   2.810   4.850   1.665 -1.1964  0.6879 -0.7202
54664SOL     OW70852   5.523   9.688   6.801 -0.2595 -0.3560 -0.3635
54664SOL    HW170853   5.523   9.724   6.889 -0.8143 -2.8523  0.7434
54664SOL    HW270854   5.572   9.751   6.749  0.4261  0.9891  1.7952
54665SOL     OW70855  11.707   9.700   2.414 -0.2324  0.4244  0.4921
54665SOL    HW170856  11.737   9.772   2.470 -0.0531  0.7176  0.0214
54665SOL    HW270857  11.785   9.649   2.396  0.0506  1.2721 -0.8588
54666SOL     OW70858   3.497  10.560   1.475 -0.4642 -0.2370 -0.2747
54666SOL    HW170859   3.564  10.520   1.420 -0.0669 -0.4451  0.3488
54666SOL    HW270860   3.517  10.529   1.564 -2.1030 -1.2604 -0.2323
54667SOL     OW70861   2.564   3.060   9.374 -0.1313 -0.0674 -0.6685
54667SOL    HW170862   2.540   2.971   9.398 -1.9503  0.5334 -0.0740
54667SOL    HW270863   2.559   3.109   9.457 -1.3561  1.0005 -1.3401
54668SOL     OW70864   2.733   5.846   5.936  0.1677  0.5013  0.7586
54668SOL    HW170865   2.706   5.853   6.028  4.0377  2.1427  1.9582
54668SOL    HW270866   2.818   5.802   5.939  0.7940  1.3310 -1.9140
54669SOL     OW70867   0.923   5.031  11.213  0.3545 -0.2259 -0.0397
54669SOL    HW170868   0.926   4.992  11.300  0.9833 -1.1459 -0.4552
54669SOL    HW270869   0.833   5.062  11.203  0.0386 -0.9207  0.5945
54670SOL     OW70870   1.045   5.070   4.403 -0.3069 -0.3836 -0.0052
54670SOL    HW170871   0.993   5.122   4.465 -0.2600 -1.0372  0.5966
54670SOL    HW270872   1.101   5.134   4.361 -1.5947  0.3499 -0.6857
54671SOL     OW70873   2.348   3.109   9.788 -0.3357 -0.1760  0.4963
54671SOL    HW170874   2.294   3.177   9.827 -0.5246 -0.2351  0.3374
54671SOL    HW270875   2.326   3.030   9.837 -0.1140 -0.1246  0.6836
54672SOL     OW70876   9.389   7.475  11.388  0.0824 -0.2662 -0.2818
54672SOL    HW170877   9.481   7.461  11.366  0.5522  0.9540  0.7859
54672SOL    HW270878   9.341   7.441  11.313  1.3932 -1.0116 -0.8156
54673SOL     OW70879   4.389   9.702  11.567 -0.6833 -0.4721  1.1186
54673SOL    HW170880   4.434   9.782  11.539 -0.4549 -1.2029 -0.7073
54673SOL    HW270881   4.417   9.690  11.658  2.1556 -0.4244  0.3577
54674SOL     OW70882   1.495   6.968   3.015  0.1180  0.6164 -0.2982
54674SOL    HW170883   1.433   6.937   2.949 -1.0247  3.4158 -0.7036
54674SOL    HW270884   1.445   6.971   3.096  0.4010  0.7061 -0.1246
54675SOL     OW70885  11.742   7.259  11.890  0.1472 -0.0825 -0.2328
54675SOL    HW170886  11.809   7.249  11.823  0.7803 -0.0272  0.3737
54675SOL    HW270887  11.742   7.353  11.910  0.0668 -0.1180 -0.0621
54676SOL     OW70888  11.517   8.987   2.465 -0.2974 -0.2637 -0.1534
54676SOL    HW170889  11.505   8.894   2.484 -0.3714  0.1321  2.0511
54676SOL    HW270890  11.446   9.009   2.405 -0.2607 -1.6203 -0.7238
54677SOL     OW70891   8.165   4.157   2.983 -0.2465  0.0758  0.0004
54677SOL    HW170892   8.097   4.097   3.012 -1.1562  1.8230  1.7386
54677SOL    HW270893   8.227   4.160   3.055  1.3264 -0.8833 -1.2451
54678SOL     OW70894   6.718   0.620   3.634  0.1937 -0.3977  0.9050
54678SOL    HW170895   6.625   0.638   3.647  0.2413 -0.1447  0.8949
54678SOL    HW270896   6.725   0.524   3.639 -0.5006 -0.6624 -1.7308
54679SOL     OW70897   9.955   2.456   5.856 -0.2944 -0.0190  0.5159
54679SOL    HW170898  10.001   2.536   5.830 -0.5474  0.4020  1.3571
54679SOL    HW270899  10.022   2.388   5.850 -0.2710  0.1022 -0.9672
54680SOL     OW70900   5.396   3.581   4.400  0.4102  0.8967  0.4015
54680SOL    HW170901   5.463   3.602   4.335  0.7059  1.8649  0.9969
54680SOL    HW270902   5.441   3.590   4.484  0.2111 -0.9686  0.7400
54681SOL     OW70903   9.501  11.235   1.385  0.0835  0.8772  0.0850
54681SOL    HW170904   9.585  11.196   1.358 -0.4437  0.3061 -0.7899
54681SOL    HW270905   9.474  11.183   1.461  0.5354  1.0792  0.3847
54682SOL     OW70906   8.044   3.817   1.099 -0.1294  0.1588 -0.0760
54682SOL    HW170907   8.131   3.831   1.138 -1.1012  0.8293  1.9550
54682SOL    HW270908   8.030   3.723   1.104  0.1830  0.1288  0.2727
54683SOL     OW70909   9.512   2.212   3.114  0.2149 -0.1197 -0.4527
54683SOL    HW170910   9.472   2.298   3.127 -1.4373 -0.6608 -1.6319
54683SOL    HW270911   9.444   2.150   3.139  1.0928 -1.1076 -0.4335
54684SOL     OW70912   2.021   5.966  11.979 -0.0211 -0.1130 -0.0967
54684SOL    HW170913   2.014   6.047  12.029 -0.2470 -1.0842  1.5207
54684SOL    HW270914   2.107   5.970  11.938  0.5362  0.3504  1.0819
54685SOL     OW70915   4.100   7.250   3.440  0.0747 -0.3317 -0.0585
54685SOL    HW170916   4.140   7.262   3.354 -1.3865 -1.0646 -0.8941
54685SOL    HW270917   4.087   7.338   3.474 -1.3207  0.1070 -1.5976
54686SOL     OW70918   3.175   5.594  11.562 -0.2242  0.1019 -0.2908
54686SOL    HW170919   3.169   5.530  11.492 -0.7811 -0.0405 -0.1171
54686SOL    HW270920   3.093   5.643  11.557  0.6565  1.5454 -1.1241
54687SOL     OW70921   4.615   4.117   9.678 -0.5009  0.5066  0.4905
54687SOL    HW170922   4.589   4.200   9.638 -1.8235  0.1224  0.4884
54687SOL    HW270923   4.672   4.076   9.613 -0.8513  0.8643 -0.0515
54688SOL     OW70924  10.469   4.356   9.314 -0.2623  0.2570 -0.5996
54688SOL    HW170925  10.442   4.413   9.242 -1.0461  1.2247  0.4333
54688SOL    HW270926  10.426   4.272   9.297 -1.9250  1.0195 -0.3188
54689SOL     OW70927   8.743   8.105   0.507 -0.4478  0.4440  0.3208
54689SOL    HW170928   8.660   8.076   0.543 -0.2490  2.2234  2.4602
54689SOL    HW270929   8.809   8.055   0.556 -0.2060 -0.6801 -1.0934
54690SOL     OW70930   7.299   0.940  12.000  0.5013 -0.3967 -0.3581
54690SOL    HW170931   7.316   0.879  11.928 -0.4815 -2.5275  1.1206
54690SOL    HW270932   7.278   1.023  11.957 -0.0421 -1.5864 -2.5170
54691SOL     OW70933   3.034   4.882   5.769  0.4269  0.4459 -0.2693
54691SOL    HW170934   3.012   4.913   5.856 -1.8321 -1.0866 -0.2033
54691SOL    HW270935   2.979   4.804   5.756  1.7436 -0.2214 -2.5014
54692SOL     OW70936  10.828   6.523  12.042  0.2472  0.2360 -0.3761
54692SOL    HW170937  10.780   6.593  11.998  0.6838 -0.1613 -1.5239
54692SOL    HW270938  10.879   6.567  12.110 -2.4278  0.5692  1.5675
54693SOL     OW70939   9.315   2.811   8.408  0.4687 -0.7348  0.1523
54693SOL    HW170940   9.240   2.757   8.431 -0.1707 -0.3052 -0.8349
54693SOL    HW270941   9.291   2.899   8.439  0.8768 -0.7366  0.4728
54694SOL     OW70942   3.496  11.048  12.454  0.1434  0.0335  0.3090
54694SOL    HW170943   3.523  10.959  12.478 -3.5318 -1.6578 -1.1391
54694SOL    HW270944   3.528  11.059  12.365  1.4373  0.6097  0.8234
54695SOL     OW70945   8.240   8.918   6.363 -0.2847 -0.2702 -0.0550
54695SOL    HW170946   8.287   8.838   6.338 -0.8390 -0.8614  0.7477
54695SOL    HW270947   8.234   8.968   6.281 -0.7530 -1.4836 -0.8014
54696SOL     OW70948  10.598   3.122  12.473 -0.0915  0.1380  0.8161
54696SOL    HW170949  10.626   3.195  12.418 -2.6518  0.3693 -0.3334
54696SOL    HW270950  10.616   3.150  12.562  0.5625  1.4107  0.3063
54697SOL     OW70951   9.689   6.730  10.783  0.4494 -0.2515  0.3846
54697SOL    HW170952   9.632   6.654  10.769 -0.4808  0.5653 -0.3825
54697SOL    HW270953   9.681   6.749  10.877 -0.5635 -0.1464  0.2882
54698SOL     OW70954   2.886   7.012   7.119  0.1207  0.4282  0.5428
54698SOL    HW170955   2.950   6.953   7.159 -0.1890  0.9017  1.7861
54698SOL    HW270956   2.804   6.992   7.164 -0.6363 -0.1293 -0.9883
54699SOL     OW70957  11.563   6.960  10.728  0.2528  0.8916 -0.0795
54699SOL    HW170958  11.501   7.030  10.747  1.6143  2.2143 -0.3699
54699SOL    HW270959  11.649   7.000  10.739  1.0757 -0.8418  0.1055
54700SOL     OW70960  10.092   9.194   0.759  0.2353 -0.3141 -0.8252
54700SOL    HW170961  10.135   9.279   0.766  0.6407 -0.6335  1.1844
54700SOL    HW270962  10.162   9.133   0.736  0.5915 -0.5656  0.8027
54701SOL     OW70963   1.609   7.354   8.318 -0.1603 -0.2060 -0.3335
54701SOL    HW170964   1.655   7.375   8.236  0.9515  2.2459  0.8198
54701SOL    HW270965   1.678   7.352   8.384 -1.3310  0.5835  0.9743
54702SOL     OW70966  11.049  11.542  10.202  0.0954 -0.0508 -0.0930
54702SOL    HW170967  11.069  11.460  10.156 -0.5233 -0.5363  0.4778
54702SOL    HW270968  11.133  11.568  10.241  0.4079 -0.1351 -0.6982
54703SOL     OW70969  11.817   5.574   7.799  0.0070  0.1005  0.4674
54703SOL    HW170970  11.823   5.571   7.895 -3.4634 -0.5200  0.8291
54703SOL    HW270971  11.829   5.483   7.772 -0.0057  0.1118  0.4235
54704SOL     OW70972   9.172   0.413   4.417  0.0083  0.0231 -0.2532
54704SOL    HW170973   9.179   0.505   4.442  0.3373  0.2187 -1.0223
54704SOL    HW270974   9.215   0.365   4.488  0.2023  0.4958 -0.0486
54705SOL     OW70975   1.786   3.329   4.809 -0.2562 -0.5002 -0.8751
54705SOL    HW170976   1.772   3.324   4.904  0.2952  0.2904 -0.7427
54705SOL    HW270977   1.833   3.411   4.796  0.7520 -1.1877 -1.7022
54706SOL     OW70978  12.435  10.805   2.513 -0.1910 -0.6363 -0.2369
54706SOL    HW170979  12.471  10.853   2.439 -1.7998  1.0677  0.0107
54706SOL    HW270980  12.466  10.853   2.590 -0.6994 -0.8005  0.0738
54707SOL     OW70981   1.799   5.933   0.836  0.0575 -0.5203 -0.1661
54707SOL    HW170982   1.818   5.966   0.924 -1.5184 -0.4163  0.1783
54707SOL    HW270983   1.825   6.004   0.777 -1.7659  0.7377  0.4571
54708SOL     OW70984   7.764   5.278   7.794 -0.3282  0.5696  0.0410
54708SOL    HW170985   7.784   5.288   7.700 -0.8238 -0.7224 -0.2215
54708SOL    HW270986   7.669   5.279   7.798 -0.5020 -2.6996  0.0341
54709SOL     OW70987   9.778  10.909   1.704 -0.3193 -0.1738  0.0966
54709SOL    HW170988   9.842  10.882   1.770 -0.7740 -1.8660 -0.1102
54709SOL    HW270989   9.808  10.995   1.676  2.4524 -1.2726 -0.6804
54710SOL     OW70990  10.790   3.323  11.906  0.5756  0.6841  0.3264
54710SOL    HW170991  10.704   3.351  11.938  0.5287  0.6589  0.2239
54710SOL    HW270992  10.776   3.305  11.813  0.0347 -1.8750  0.8254
54711SOL     OW70993  12.347   0.616   4.311 -0.3700 -0.6897 -0.2784
54711SOL    HW170994  12.358   0.561   4.233 -1.5829 -0.8425 -0.3557
54711SOL    HW270995  12.353   0.706   4.278  3.8825 -0.5976  0.1397
54712SOL     OW70996   5.769   7.856   6.713 -0.0659 -0.1992 -0.0205
54712SOL    HW170997   5.689   7.815   6.681 -0.5522  0.6098  0.1361
54712SOL    HW270998   5.779   7.935   6.660 -1.1350  1.4131  2.0102
54713SOL     OW70999   8.437  12.032   7.533 -0.1552  0.4416 -0.5133
54713SOL    HW171000   8.514  12.016   7.586 -0.5116 -0.9479 -0.3693
54713SOL    HW271001   8.450  12.119   7.497  1.3551  0.3357 -0.2839
54714SOL     OW71002   8.295   3.312   3.921 -0.0670 -0.2123  0.3365
54714SOL    HW171003   8.289   3.401   3.956 -2.4428  0.2453 -1.0185
54714SOL    HW271004   8.317   3.323   3.829 -2.2677 -0.8409 -0.3293
54715SOL     OW71005   7.737   1.271   7.032 -0.0025  0.0155  0.4291
54715SOL    HW171006   7.706   1.359   7.050 -0.9974 -0.2479  0.0804
54715SOL    HW271007   7.780   1.277   6.947  0.3914  0.2635  0.6427
54716SOL     OW71008  11.934   9.470   7.100 -0.5337  0.1239 -0.4733
54716SOL    HW171009  12.024   9.502   7.105 -0.2842 -0.7349  2.1988
54716SOL    HW271010  11.934   9.409   7.027  1.3189 -0.5768  0.0654
54717SOL     OW71011   0.579   3.504   4.649 -0.2253 -0.0861 -0.3200
54717SOL    HW171012   0.617   3.537   4.730 -2.0645 -0.7871  0.9016
54717SOL    HW271013   0.540   3.581   4.608  2.3611  0.6448 -1.6022
54718SOL     OW71014   8.252   2.698   1.088 -0.5671  0.6866 -0.2207
54718SOL    HW171015   8.268   2.791   1.105 -1.3365  0.7589  0.1285
54718SOL    HW271016   8.325   2.653   1.132 -0.1384  1.1207 -0.4685
54719SOL     OW71017   2.434  11.746   8.794 -0.2283 -0.1667 -0.4343
54719SOL    HW171018   2.470  11.779   8.876 -0.4882 -0.5723 -0.1517
54719SOL    HW271019   2.380  11.671   8.820 -0.6510 -0.0383 -0.9319
54720SOL     OW71020   9.244  10.061  12.148  0.1038 -0.2113  0.0296
54720SOL    HW171021   9.288  10.125  12.204 -0.3050  0.4782 -0.4202
54720SOL    HW271022   9.273   9.976  12.181  0.0178  0.1809  1.1786
54721SOL     OW71023   6.115   8.412  10.032 -0.2308  0.2305  0.2907
54721SOL    HW171024   6.088   8.415   9.940  0.0513  0.1110  0.2026
54721SOL    HW271025   6.048   8.359  10.075 -0.1017 -0.1230  0.0596
54722SOL     OW71026   3.175   5.233  11.107  0.1343 -0.5041  0.2181
54722SOL    HW171027   3.229   5.307  11.135 -1.6259  0.9937 -0.1363
54722SOL    HW271028   3.215   5.203  11.026  0.9513 -0.0143  0.4290
54723SOL     OW71029   9.395   8.583  10.437  0.2870 -0.1093  0.3141
54723SOL    HW171030   9.307   8.586  10.474  0.3183  1.0072  0.3091
54723SOL    HW271031   9.423   8.674  10.432  0.4231 -0.2274 -2.1228
54724SOL     OW71032   2.441   6.353  10.224  0.0323  0.0195 -0.8160
54724SOL    HW171033   2.501   6.345  10.298 -1.2297 -0.1591  0.2129
54724SOL    HW271034   2.354   6.354  10.263 -0.6105  2.1939 -2.1002
54725SOL     OW71035  11.333   1.126   6.692  0.2257 -0.2346  0.5941
54725SOL    HW171036  11.317   1.219   6.709  2.2566  0.2922 -0.2045
54725SOL    HW271037  11.315   1.115   6.599 -0.5409 -0.7997  0.7917
54726SOL     OW71038   5.409   2.021   3.972 -0.5736 -1.2100 -0.1385
54726SOL    HW171039   5.430   1.952   3.908 -0.8018 -1.2313 -0.1917
54726SOL    HW271040   5.421   1.979   4.057 -0.6276 -1.2925 -0.1706
54727SOL     OW71041   8.912   9.986   3.765 -0.1365 -0.0756 -0.3868
54727SOL    HW171042   8.920  10.082   3.759  0.8102 -0.2368 -2.6316
54727SOL    HW271043   8.827   9.967   3.726  0.1205 -0.2019 -0.8968
54728SOL     OW71044   1.065   4.022   9.681  0.2266  0.0276 -0.1289
54728SOL    HW171045   1.081   4.039   9.774  0.2074  1.5045 -0.3768
54728SOL    HW271046   1.152   4.016   9.642  0.2280  0.3652 -0.1775
54729SOL     OW71047  10.567  10.898   9.387  0.1204 -0.4474 -0.2334
54729SOL    HW171048  10.648  10.847   9.382 -0.3959 -1.1916 -1.6037
54729SOL    HW271049  10.595  10.987   9.408  1.3108 -0.6534 -0.8851
54730SOL     OW71050   2.756   9.905   2.893  0.2895  0.2124 -0.0037
54730SOL    HW171051   2.665   9.899   2.924 -0.2817  1.9029 -1.2084
54730SOL    HW271052   2.809   9.886   2.970 -1.0592 -1.7177  0.5216
54731SOL     OW71053  12.143   6.122   5.634  0.1262  0.4003  0.0093
54731SOL    HW171054  12.177   6.193   5.580 -2.5704  1.2269 -0.7346
54731SOL    HW271055  12.171   6.042   5.588  1.1834  0.9927 -0.4249
54732SOL     OW71056  10.488   2.178   2.320 -0.5431 -0.1889 -0.1165
54732SOL    HW171057  10.415   2.126   2.285 -0.7627 -0.2752  0.4570
54732SOL    HW271058  10.452   2.220   2.398 -0.0542 -0.0111  0.0151
54733SOL     OW71059  10.488  10.915  11.483  0.2156  0.2731  0.0591
54733SOL    HW171060  10.424  10.878  11.422 -0.2179  0.9492  0.1029
54733SOL    HW271061  10.437  10.939  11.560  0.9230 -1.7061  1.2274
54734SOL     OW71062   2.120  10.411   2.655 -0.7867 -0.5153  0.0720
54734SOL    HW171063   2.177  10.474   2.612 -2.0859 -0.0156 -0.9942
54734SOL    HW271064   2.032  10.446   2.642 -1.3898 -1.5886  1.1016
54735SOL     OW71065   3.833   6.470   7.121 -0.1925  0.3747 -0.5566
54735SOL    HW171066   3.746   6.433   7.105 -0.8400  2.6201 -2.8733
54735SOL    HW271067   3.816   6.560   7.151  1.2988  0.9446 -1.2991
54736SOL     OW71068  11.700   1.598   6.431  0.1313 -0.6204  0.5831
54736SOL    HW171069  11.653   1.681   6.431 -1.5410 -1.5035  1.6795
54736SOL    HW271070  11.791   1.623   6.445 -0.0819  1.1024 -0.6996
54737SOL     OW71071   8.942   1.586   3.810 -0.7531 -0.0047  0.1351
54737SOL    HW171072   8.919   1.503   3.852  0.9289 -0.1703  0.8059
54737SOL    HW271073   8.977   1.640   3.880  2.2657 -0.3438 -0.9375
54738SOL     OW71074  10.868   1.907   9.259  0.2511  0.2895 -0.6277
54738SOL    HW171075  10.869   1.996   9.293  0.5061 -0.3122  1.0591
54738SOL    HW271076  10.893   1.915   9.168 -0.3377  1.9989 -0.6745
54739SOL     OW71077   6.685   8.128   2.355  0.6459  0.3363 -0.1860
54739SOL    HW171078   6.669   8.038   2.329  0.8400  0.6333 -1.3775
54739SOL    HW271079   6.722   8.170   2.277  2.8642  0.8462  1.0553
54740SOL     OW71080   8.799   7.497   0.548  0.3140 -0.4187  0.6950
54740SOL    HW171081   8.789   7.460   0.460  0.5816  0.2840  0.3600
54740SOL    HW271082   8.745   7.576   0.548  2.0862  0.8599  0.3773
54741SOL     OW71083  12.023   2.159   7.340  0.7690  0.2473 -0.2170
54741SOL    HW171084  11.999   2.162   7.433  1.4189 -0.2544 -0.0219
54741SOL    HW271085  12.041   2.250   7.317 -1.3923  0.6796 -0.4152
54742SOL     OW71086   1.468   7.994   7.630 -0.5509  0.2719 -0.6345
54742SOL    HW171087   1.429   8.058   7.689 -1.0508  1.0243 -1.7450
54742SOL    HW271088   1.426   7.911   7.652 -0.2030  0.3872  0.5320
54743SOL     OW71089   1.718  11.714   3.419 -0.7120  0.3709  0.4796
54743SOL    HW171090   1.787  11.751   3.366 -0.7231 -0.5745 -0.2242
54743SOL    HW271091   1.738  11.743   3.508 -0.0125  0.9718  0.1361
54744SOL     OW71092   1.854   0.559  10.979  0.0083 -0.3167  0.0796
54744SOL    HW171093   1.920   0.549  11.048  0.7479 -0.9368 -0.6917
54744SOL    HW271094   1.774   0.584  11.025  0.4256 -0.9470  1.1798
54745SOL     OW71095   5.401   2.562   7.260  0.1425  0.1167  0.6687
54745SOL    HW171096   5.420   2.629   7.326  0.8190 -1.2686  1.9512
54745SOL    HW271097   5.314   2.584   7.227  0.1515  1.3352  1.4112
54746SOL     OW71098   3.500   5.498   1.155 -0.1950 -0.3136  0.3584
54746SOL    HW171099   3.423   5.540   1.118 -0.7690 -2.8647 -1.6100
54746SOL    HW271100   3.573   5.526   1.099  0.0617  0.7599  1.1953
54747SOL     OW71101  10.926   4.686  11.287  0.4156  0.5463 -0.7011
54747SOL    HW171102  10.923   4.724  11.375  1.8081  0.4096 -0.5727
54747SOL    HW271103  10.863   4.614  11.290 -0.7416  1.5541 -0.3241
54748SOL     OW71104   7.741  10.533   3.000 -0.5635  0.0444 -0.2982
54748SOL    HW171105   7.740  10.577   3.085  0.2635 -0.0813 -0.2125
54748SOL    HW271106   7.831  10.543   2.969 -0.0105 -2.5640  0.2425
54749SOL     OW71107   5.218   8.204   7.495 -0.2261  0.3210 -0.1488
54749SOL    HW171108   5.279   8.268   7.531  0.9753 -0.8343 -0.0599
54749SOL    HW271109   5.131   8.239   7.515  0.4033  1.7064  0.2416
54750SOL     OW71110   6.650  12.318   6.764  0.1520  0.1956  0.1652
54750SOL    HW171111   6.621  12.406   6.791  2.0217  0.3145  2.0724
54750SOL    HW271112   6.687  12.280   6.844  0.8312 -1.7324 -1.0087
54751SOL     OW71113   9.343   6.794   4.402  0.1090  0.0052  0.0438
54751SOL    HW171114   9.432   6.827   4.400 -0.0408  0.8044  2.7832
54751SOL    HW271115   9.288   6.872   4.412 -0.6718 -0.6389  1.0152
54752SOL     OW71116   1.518   6.651   6.304  0.3671  0.1297 -0.0028
54752SOL    HW171117   1.423   6.643   6.306  0.3439  0.3951 -0.1388
54752SOL    HW271118   1.538   6.690   6.219  0.6758 -1.0031 -0.4693
54753SOL     OW71119  10.045   8.343  10.156 -0.2639  0.4345  0.1287
54753SOL    HW171120  10.080   8.257  10.131  1.9105  1.3555 -0.2278
54753SOL    HW271121  10.020   8.384  10.073  0.9208  1.0079  0.0250
54754SOL     OW71122   3.870   4.519   7.896  0.3447 -0.2844 -0.0044
54754SOL    HW171123   3.810   4.447   7.877 -1.3125  1.0723 -0.1561
54754SOL    HW271124   3.827   4.568   7.967  2.0649 -0.1634  1.0056
54755SOL     OW71125   7.462   7.857   5.833 -0.6314  0.1657 -0.1618
54755SOL    HW171126   7.501   7.944   5.828  0.9618 -0.4595  0.6932
54755SOL    HW271127   7.404   7.860   5.909 -0.3891  0.4202  0.0140
54756SOL     OW71128  11.700   9.576   6.991 -0.4895  0.7479  0.4032
54756SOL    HW171129  11.736   9.635   6.924  0.6347  1.3623  1.5016
54756SOL    HW271130  11.776   9.544   7.039 -1.1401 -1.0873  0.2817
54757SOL     OW71131   9.377   9.368   3.870  1.0033 -0.2827  0.1498
54757SOL    HW171132   9.305   9.370   3.807  0.3269 -1.1162  0.8818
54757SOL    HW271133   9.354   9.298   3.931  1.5925  0.5859  1.4054
54758SOL     OW71134   4.216   9.537   0.755  0.5614  0.2523 -0.6834
54758SOL    HW171135   4.264   9.462   0.721 -0.5838 -0.1738 -1.4126
54758SOL    HW271136   4.137   9.499   0.794 -0.3141  1.1063 -1.5729
54759SOL     OW71137   3.444   8.401   9.037 -0.2080  0.1040  0.1489
54759SOL    HW171138   3.398   8.330   9.083 -2.4305  1.4772  0.1964
54759SOL    HW271139   3.467   8.363   8.952 -1.2614 -0.7202  0.2143
54760SOL     OW71140   9.293   4.452   7.392  0.0492 -0.4668  0.3724
54760SOL    HW171141   9.212   4.435   7.345 -0.6616 -0.7942  1.6725
54760SOL    HW271142   9.340   4.368   7.389  1.6519  0.3765 -2.6772
54761SOL     OW71143   3.437   7.179  12.155  0.1527  0.4644 -0.0464
54761SOL    HW171144   3.345   7.206  12.146 -0.3662 -0.2542  2.4298
54761SOL    HW271145   3.439   7.090  12.119 -0.1202  0.4990 -0.1475
54762SOL     OW71146   4.460   2.942   3.143 -0.6073  0.2296 -0.4685
54762SOL    HW171147   4.474   2.938   3.238 -0.0776  0.7536 -0.5156
54762SOL    HW271148   4.494   2.858   3.111  1.6678  1.0696 -0.4632
54763SOL     OW71149   8.381  11.017   6.088 -0.3375  0.6193  0.0488
54763SOL    HW171150   8.307  11.069   6.119 -1.3536 -0.6751 -0.1177
54763SOL    HW271151   8.396  11.047   5.998 -0.8364  0.7086 -0.0058
54764SOL     OW71152   3.745  12.257   8.066  0.4543 -0.0193 -0.3457
54764SOL    HW171153   3.746  12.349   8.090  2.4029  0.0536 -0.5285
54764SOL    HW271154   3.775  12.212   8.145  1.9393 -0.2399 -1.0018
54765SOL     OW71155   8.882   0.602  11.353 -0.3005 -0.6665 -0.5361
54765SOL    HW171156   8.916   0.691  11.366 -2.8079  0.2384  0.6699
54765SOL    HW271157   8.908   0.554  11.431  2.1228 -1.4632 -1.7339
54766SOL     OW71158   2.425   9.343   7.185 -0.4154  0.0960 -0.0862
54766SOL    HW171159   2.345   9.311   7.143 -0.8423  2.6486 -1.4266
54766SOL    HW271160   2.397   9.418   7.237  1.2683  2.5098 -2.3851
54767SOL     OW71161   7.382   4.006   3.761  0.1871  0.0239 -0.6529
54767SOL    HW171162   7.304   4.033   3.714 -0.7832 -0.7129  0.4862
54767SOL    HW271163   7.365   4.030   3.852  1.6561  0.6381 -0.5139
54768SOL     OW71164  11.144  12.443   6.831  0.3760 -0.4300  0.9055
54768SOL    HW171165  11.097  12.524   6.811 -1.7354 -1.9032 -0.5242
54768SOL    HW271166  11.194  12.424   6.752  0.2026 -0.9493  0.9181
54769SOL     OW71167   8.175   6.150   3.369 -0.2962 -0.2612  0.4630
54769SOL    HW171168   8.127   6.233   3.371 -0.7919 -0.5305 -0.0414
54769SOL    HW271169   8.252   6.168   3.315 -0.0707  0.0472  0.8893
54770SOL     OW71170   7.266   1.921   3.766 -0.0960  0.0431  0.3305
54770SOL    HW171171   7.352   1.884   3.787  0.0395  1.2918  2.2438
54770SOL    HW271172   7.282   2.015   3.757 -1.2148  0.2549  0.4433
54771SOL     OW71173   5.469  10.284   1.636  0.1405 -0.0791  0.0032
54771SOL    HW171174   5.545  10.314   1.687  0.3732 -0.2988 -0.2130
54771SOL    HW271175   5.484  10.191   1.623  1.7325  0.4682 -3.1761
54772SOL     OW71176   8.178   9.880   8.456 -0.8462  0.2838 -0.4062
54772SOL    HW171177   8.141   9.892   8.544  0.7614  3.4444 -0.0307
54772SOL    HW271178   8.258   9.829   8.472 -0.8257  0.4012 -0.1211
54773SOL     OW71179  10.079   5.313  11.460 -0.6303 -0.2202 -0.4123
54773SOL    HW171180  10.133   5.274  11.529  0.3567 -0.4265 -1.2779
54773SOL    HW271181  10.141   5.356  11.401 -1.4757  0.2189 -1.0197
54774SOL     OW71182   1.001   1.432  10.365  0.0429  0.3840  0.0129
54774SOL    HW171183   0.946   1.507  10.386 -1.1567  0.7307 -3.6158
54774SOL    HW271184   0.947   1.355  10.383 -0.1264  0.5565  0.2339
54775SOL     OW71185   6.334   1.421   1.092 -0.0471 -0.3530 -0.5078
54775SOL    HW171186   6.347   1.358   1.163 -0.3364  0.0219 -0.1156
54775SOL    HW271187   6.298   1.370   1.020  0.3498 -0.7573 -0.4238
54776SOL     OW71188   7.929  12.346   1.252  0.0710 -0.0252 -0.1861
54776SOL    HW171189   7.970  12.299   1.324 -1.2099 -2.5900 -1.0275
54776SOL    HW271190   7.924  12.282   1.181 -0.1777  1.9345 -2.0376
54777SOL     OW71191   0.930   5.024   0.457 -0.3465 -0.0702 -0.0685
54777SOL    HW171192   0.877   5.102   0.441  1.8978  1.3112 -1.1482
54777SOL    HW271193   0.965   5.037   0.545  1.3034  0.9970 -0.8394
54778SOL     OW71194   4.702   4.564   6.252  0.1123 -0.4694  0.2059
54778SOL    HW171195   4.701   4.579   6.347  1.0251 -0.7297  0.2653
54778SOL    HW271196   4.760   4.632   6.218  0.6039 -1.0120 -0.0476
54779SOL     OW71197   9.726  11.737   3.824 -0.3399 -0.4293 -0.0515
54779SOL    HW171198   9.774  11.677   3.767  2.1796  1.7913 -0.4673
54779SOL    HW271199   9.727  11.821   3.777 -4.0613 -0.0450  0.3069
54780SOL     OW71200   5.752   0.202   9.303 -0.1065  0.8510 -0.9326
54780SOL    HW171201   5.835   0.247   9.283  0.7814 -0.6501 -0.8038
54780SOL    HW271202   5.741   0.212   9.397  0.4370  0.2673 -0.7985
54781SOL     OW71203   7.693   5.018   0.484  0.1606 -0.1648 -0.3612
54781SOL    HW171204   7.679   4.954   0.554  1.9765  0.1203  0.3071
54781SOL    HW271205   7.631   4.993   0.416  0.4344 -2.3054  0.1167
54782SOL     OW71206   0.103   1.544   0.948  0.6255 -0.2135 -0.5463
54782SOL    HW171207   0.033   1.498   0.901 -0.7464  1.8486 -0.6712
54782SOL    HW271208   0.057   1.605   1.005  2.3461  0.3711  0.2742
54783SOL     OW71209   7.273   7.703   4.073 -0.0314 -0.3301  0.2297
54783SOL    HW171210   7.219   7.764   4.022 -1.0601 -0.6113  0.9331
54783SOL    HW271211   7.282   7.746   4.159  1.3964 -0.0140 -0.0501
54784SOL     OW71212   7.667   3.680   8.849  0.2434  0.4705  0.2196
54784SOL    HW171213   7.649   3.616   8.918 -1.3192 -0.6916 -1.1765
54784SOL    HW271214   7.587   3.731   8.841  0.0160 -0.0810 -1.3887
54785SOL     OW71215   7.847   5.873   0.035  0.0040 -0.1346  0.4650
54785SOL    HW171216   7.897   5.953   0.025 -0.2616 -0.1065 -0.8378
54785SOL    HW271217   7.889   5.827   0.108  1.5219  0.1763 -0.1781
54786SOL     OW71218   6.141   9.104   6.162  0.1396  0.3610 -0.2673
54786SOL    HW171219   6.221   9.132   6.117  0.9680 -1.2337  0.1436
54786SOL    HW271220   6.157   9.127   6.254  1.6961 -3.0009  0.4455
54787SOL     OW71221   5.091   5.434   0.822  0.2899  0.1766 -0.0522
54787SOL    HW171222   5.034   5.371   0.866  3.0577 -1.9242  0.8490
54787SOL    HW271223   5.124   5.490   0.891  2.3629 -1.2471  0.2015
54788SOL     OW71224   9.663  10.229  11.322 -0.1956 -0.2418 -0.5305
54788SOL    HW171225   9.740  10.176  11.302 -0.3521 -0.1571 -1.4368
54788SOL    HW271226   9.697  10.317  11.337  0.2925 -0.9090  2.9884
54789SOL     OW71227   0.678   3.399   4.363  0.7685 -0.2193 -0.3453
54789SOL    HW171228   0.690   3.442   4.447 -2.6731 -0.6229  0.5027
54789SOL    HW271229   0.691   3.306   4.382  1.4199 -0.1877 -0.6142
54790SOL     OW71230   7.791   1.890   0.999  0.3088 -0.2118  0.1565
54790SOL    HW171231   7.838   1.921   0.922  0.7779 -1.1181  0.0664
54790SOL    HW271232   7.703   1.869   0.967 -0.0284  1.0400  0.2302
54791SOL     OW71233   8.167  10.357   6.082  0.0139 -0.3653  0.3735
54791SOL    HW171234   8.220  10.315   6.150  0.9968 -1.7172 -1.1245
54791SOL    HW271235   8.223  10.354   6.004 -1.1584  0.8945 -0.5563
54792SOL     OW71236   6.858   5.456  12.338 -0.1168  0.4511  0.0052
54792SOL    HW171237   6.780   5.497  12.299 -1.3915 -0.0337  1.9189
54792SOL    HW271238   6.871   5.503  12.420 -1.4189 -2.5869  2.1242
54793SOL     OW71239   5.926   1.095  10.442  0.2121 -0.6093 -0.2682
54793SOL    HW171240   5.945   1.154  10.369 -1.0020 -1.1344 -1.0331
54793SOL    HW271241   5.962   1.140  10.519 -1.0855  1.3598 -0.7555
54794SOL     OW71242   6.255  10.862   1.908  0.0525  0.2734  0.3946
54794SOL    HW171243   6.225  10.890   1.822  1.1579  0.1523 -0.0506
54794SOL    HW271244   6.179  10.872   1.965  0.0423  3.0928  0.0220
54795SOL     OW71245  11.574   3.896   4.918  0.5129  0.3243 -0.4470
54795SOL    HW171246  11.648   3.865   4.865  0.1776 -0.5087 -0.4303
54795SOL    HW271247  11.608   3.974   4.962  0.3247  2.0591 -3.1249
54796SOL     OW71248   1.972   7.744   1.915 -0.4890 -0.4538 -0.4008
54796SOL    HW171249   1.934   7.683   1.852  0.8448 -0.4134 -1.2861
54796SOL    HW271250   2.058   7.766   1.878 -0.2180  0.5867  0.7879
54797SOL     OW71251   9.837   1.570  12.378 -0.2410 -0.2307  0.7561
54797SOL    HW171252   9.879   1.628  12.443 -0.4007  0.5772  0.1580
54797SOL    HW271253   9.889   1.581  12.299  0.4262 -1.8253  0.9559
54798SOL     OW71254   3.095   5.952   6.957  0.3865 -0.8570 -0.5249
54798SOL    HW171255   3.099   5.876   7.015  1.1864 -0.8413 -0.5484
54798SOL    HW271256   3.173   5.945   6.903 -0.4881 -1.0200 -1.8083
54799SOL     OW71257   2.330   0.529  10.588  0.8609 -0.0338 -0.7924
54799SOL    HW171258   2.415   0.547  10.627  0.2915 -1.4879  1.3101
54799SOL    HW271259   2.270   0.592  10.629  0.9976  1.7328 -3.0641
54800SOL     OW71260   3.992   5.797   7.049 -0.5094  0.6554 -0.4854
54800SOL    HW171261   4.012   5.729   6.986 -1.1460 -0.0072  0.0066
54800SOL    HW271262   4.003   5.879   7.001  1.9576  0.3205 -0.6277
54801SOL     OW71263   8.659   0.218  11.390  0.3071  0.1203  0.5823
54801SOL    HW171264   8.701   0.134  11.367  2.9657  1.4712  0.1291
54801SOL    HW271265   8.566   0.202  11.376  0.8586 -2.2925 -1.0399
54802SOL     OW71266  10.145   1.369   4.056  0.2435 -0.5362  0.1709
54802SOL    HW171267  10.218   1.344   3.999  0.1222 -1.8061  0.5358
54802SOL    HW271268  10.186   1.404   4.134  0.4754 -1.0508  0.2871
54803SOL     OW71269   7.618  11.554   0.526 -0.5256 -0.0938 -0.5567
54803SOL    HW171270   7.590  11.464   0.507 -0.8204  0.2407 -1.7673
54803SOL    HW271271   7.714  11.549   0.527 -0.5212 -0.8686  1.7605
54804SOL     OW71272   9.877   0.018   8.995 -0.3054 -0.0874  0.1073
54804SOL    HW171273   9.879   0.016   9.090  2.2199 -0.1766  0.1146
54804SOL    HW271274   9.949  -0.039   8.968 -0.6714  0.3003 -1.8531
54805SOL     OW71275   1.429  11.787  12.195  0.1959 -0.0121 -0.2133
54805SOL    HW171276   1.425  11.692  12.180  1.0854 -0.1089  0.1115
54805SOL    HW271277   1.500  11.817  12.139 -0.2993  0.5229 -0.5633
54806SOL     OW71278  12.293   1.296   3.153 -1.3340  1.0654  0.7648
54806SOL    HW171279  12.322   1.219   3.203  0.5799 -0.0615 -1.8354
54806SOL    HW271280  12.204   1.274   3.125 -0.6116 -0.5477 -0.4200
54807SOL     OW71281   5.510  10.467   3.410 -0.0377  0.1174 -0.1631
54807SOL    HW171282   5.567  10.501   3.478  0.8647 -0.0844 -0.7981
54807SOL    HW271283   5.462  10.544   3.379 -2.3541 -0.1571  2.3701
54808SOL     OW71284   4.236   9.856   8.587  0.3311  0.9121 -0.0872
54808SOL    HW171285   4.286   9.782   8.553 -0.3452  1.2520 -1.9705
54808SOL    HW271286   4.302   9.923   8.605  0.9054  0.0330  1.2550
54809SOL     OW71287   1.212  11.771   0.054  0.1534  0.1377 -0.3850
54809SOL    HW171288   1.173  11.836   0.112 -1.3674 -0.3801 -0.7852
54809SOL    HW271289   1.284  11.734   0.105 -1.5287 -0.7592  1.4626
54810SOL     OW71290   1.067   9.884   8.029 -0.0262 -0.4162 -0.0076
54810SOL    HW171291   1.077   9.789   8.036 -0.9556 -0.5843 -0.7480
54810SOL    HW271292   1.062   9.913   8.120  2.8969 -0.7149  0.3574
54811SOL     OW71293   7.112  10.341   0.186  0.1884 -0.0981  0.6969
54811SOL    HW171294   7.047  10.304   0.246 -1.0192  1.1234  0.2057
54811SOL    HW271295   7.157  10.266   0.149  0.4017 -0.9083  2.5032
54812SOL     OW71296  12.082   9.763   3.648 -0.4152 -0.1370 -0.1123
54812SOL    HW171297  12.145   9.833   3.633  0.9384 -1.5320 -1.3649
54812SOL    HW271298  12.070   9.761   3.743  0.2612  1.1355  0.0202
54813SOL     OW71299  10.804  10.652   7.337 -0.1257  0.2608  0.0561
54813SOL    HW171300  10.716  10.629   7.366  0.0927 -1.3705 -0.4696
54813SOL    HW271301  10.850  10.676   7.417 -0.9490  0.8100  0.3813
54814SOL     OW71302   1.815   7.942  12.434  1.1318  0.4651  0.8403
54814SOL    HW171303   1.799   7.903  12.348  0.4293  0.7623  0.8342
54814SOL    HW271304   1.909   7.962  12.433  0.9768  1.2356 -0.1848
54815SOL     OW71305  10.560   2.405   0.838  0.0078 -0.1468  0.0895
54815SOL    HW171306  10.522   2.447   0.761 -0.1441 -2.2007 -1.0303
54815SOL    HW271307  10.487   2.398   0.900 -0.5429 -0.7857 -0.6141
54816SOL     OW71308   7.845   3.029   6.665 -0.5092 -0.2754  0.3427
54816SOL    HW171309   7.825   2.953   6.718  0.8069 -0.5800  0.4448
54816SOL    HW271310   7.794   3.100   6.704 -0.0520 -0.6235  1.6249
54817SOL     OW71311   1.996   4.765   6.008 -0.1659  0.2563  0.6606
54817SOL    HW171312   2.055   4.840   5.996  0.4118 -0.3890 -0.6501
54817SOL    HW271313   2.024   4.726   6.091 -0.2668  1.2874  1.2018
54818SOL     OW71314  10.835   8.125   9.318  0.0058  0.1620  0.0526
54818SOL    HW171315  10.918   8.129   9.364  0.9468 -0.2881 -1.5268
54818SOL    HW271316  10.835   8.200   9.260 -0.9250  0.4311  0.3727
54819SOL     OW71317   4.334   5.881   7.233 -0.0326  0.2641  0.3757
54819SOL    HW171318   4.293   5.834   7.161  1.5825 -0.6717 -0.0014
54819SOL    HW271319   4.327   5.821   7.307 -0.9884  0.8893  0.7991
54820SOL     OW71320   1.901   7.246  11.672  0.7104  0.2637  0.1678
54820SOL    HW171321   1.957   7.320  11.697 -1.5434  1.4315  2.0895
54820SOL    HW271322   1.833   7.285  11.617  0.2778 -0.6649  0.0303
54821SOL     OW71323   8.491   5.607   6.770  0.4016  0.4471 -0.2034
54821SOL    HW171324   8.513   5.570   6.684  0.4626  1.6115 -0.7228
54821SOL    HW271325   8.512   5.538   6.832 -0.1884 -0.6411 -1.1645
54822SOL     OW71326   8.113   1.335   1.262  0.7037 -0.6233  0.4549
54822SOL    HW171327   8.205   1.358   1.274  0.8263 -0.0976 -1.2408
54822SOL    HW271328   8.093   1.362   1.172 -1.9125  1.9214  1.6438
54823SOL     OW71329   9.380   8.748  11.274 -0.2304  0.5429 -0.1974
54823SOL    HW171330   9.409   8.824  11.225  0.2235  0.3066 -0.2975
54823SOL    HW271331   9.405   8.767  11.365 -1.4572  1.1751  0.0355
54824SOL     OW71332   4.233  12.213   6.078 -0.3983  0.0692  0.1660
54824SOL    HW171333   4.155  12.177   6.035 -1.9586  3.4703 -0.1829
54824SOL    HW271334   4.293  12.232   6.006 -0.2637 -0.3102  0.1781
54825SOL     OW71335   5.990  11.424   9.865 -0.2833  0.4746  0.2367
54825SOL    HW171336   6.017  11.506   9.905 -0.8199  1.0930 -0.6387
54825SOL    HW271337   6.053  11.410   9.794  0.4680 -0.4457  1.0568
54826SOL     OW71338   9.123   4.808  10.001  0.3589  0.3438 -0.8973
54826SOL    HW171339   9.049   4.748  10.013 -0.9411  2.2835  2.1169
54826SOL    HW271340   9.143   4.804   9.908 -1.9656 -2.0647 -1.4125
54827SOL     OW71341   2.622   5.217   6.370  0.1663  0.6841 -0.7418
54827SOL    HW171342   2.591   5.267   6.445  1.3766 -0.0337  0.2812
54827SOL    HW271343   2.547   5.164   6.343 -0.3627  1.1529 -0.2226
54828SOL     OW71344   2.128   2.843   2.035  0.5843 -0.1489  0.4089
54828SOL    HW171345   2.096   2.844   1.944  1.1031  1.4318  0.2202
54828SOL    HW271346   2.103   2.757   2.068 -0.1434 -0.5255 -1.0484
54829SOL     OW71347   6.252   6.779  10.497  0.1158 -0.1904 -0.3094
54829SOL    HW171348   6.235   6.739  10.411 -0.8844  0.9850 -0.6824
54829SOL    HW271349   6.254   6.873  10.480 -0.9385  0.1152  1.0666
54830SOL     OW71350   8.753   2.101   7.855 -0.4680  0.0137  0.3706
54830SOL    HW171351   8.693   2.032   7.826  0.0913  0.0671 -0.9500
54830SOL    HW271352   8.695   2.168   7.892 -1.2677  0.1528 -1.0537
54831SOL     OW71353   1.075  11.075   1.378 -0.4813  0.0482  0.2468
54831SOL    HW171354   1.127  11.152   1.355  2.5798 -1.0418  2.8303
54831SOL    HW271355   1.091  11.013   1.307  0.9367  0.1178  0.4891
54832SOL     OW71356   2.098   6.263   7.782  0.5785 -0.2932  0.3129
54832SOL    HW171357   2.065   6.261   7.692  0.6770 -1.6051  0.2925
54832SOL    HW271358   2.152   6.342   7.786 -1.6487  1.3638  0.0534
54833SOL     OW71359   0.954   1.102  11.418 -0.2432 -0.1117  0.1584
54833SOL    HW171360   0.938   1.146  11.501  0.4361  1.1828 -0.3708
54833SOL    HW271361   0.930   1.011  11.434  0.8038 -0.0886  2.0581
54834SOL     OW71362  10.357   2.065  11.831 -0.2518 -0.2351  0.1876
54834SOL    HW171363  10.335   1.973  11.813  1.7094 -0.6300 -0.4932
54834SOL    HW271364  10.272   2.109  11.839 -1.2388 -2.0328  0.1792
54835SOL     OW71365   4.121   4.556   7.058  0.1959 -0.5710 -0.3504
54835SOL    HW171366   4.132   4.479   7.002  1.2111 -1.2905  0.8039
54835SOL    HW271367   4.118   4.629   6.997 -0.1106 -1.4546 -1.4331
54836SOL     OW71368   7.658   6.924   7.353  0.0052 -0.0344  0.3087
54836SOL    HW171369   7.725   6.890   7.412  0.7369 -0.8485 -0.9316
54836SOL    HW271370   7.656   7.018   7.370  1.1463 -0.0606  0.6905
54837SOL     OW71371   9.726   4.031   8.151  0.1845  0.0640  0.0844
54837SOL    HW171372   9.808   4.079   8.160  0.3798  0.3680 -2.5108
54837SOL    HW271373   9.744   3.966   8.083 -1.5181 -0.3657  0.0116
54838SOL     OW71374   7.519  11.874   1.776  0.1908 -0.6996 -0.5620
54838SOL    HW171375   7.548  11.787   1.806 -0.7600 -0.0392  2.7467
54838SOL    HW271376   7.594  11.930   1.792 -0.5001 -0.2399  1.3498
54839SOL     OW71377  12.237   9.918  11.934  0.3527  0.0135 -0.1051
54839SOL    HW171378  12.266  10.008  11.948 -0.2762  0.4416 -1.3806
54839SOL    HW271379  12.162   9.908  11.993  0.9518  0.0293  0.6721
54840SOL     OW71380   1.384  11.072   1.471 -0.4346 -0.4441 -0.0953
54840SOL    HW171381   1.439  11.006   1.430 -2.3953 -1.1187 -1.7906
54840SOL    HW271382   1.355  11.128   1.399 -0.3752  1.1196  1.0413
54841SOL     OW71383   3.067   5.623   3.462 -0.2450 -0.1808 -0.3886
54841SOL    HW171384   3.141   5.586   3.511 -0.2195  0.8478  0.3779
54841SOL    HW271385   2.991   5.604   3.517 -0.1178  1.7099  0.5078
54842SOL     OW71386   1.855   4.751  11.181  0.7584  0.1675  0.3340
54842SOL    HW171387   1.899   4.724  11.262 -0.1103  0.7958  1.0406
54842SOL    HW271388   1.895   4.835  11.159 -0.2248  0.8594  1.1141
54843SOL     OW71389   2.227   7.147  10.424  0.0102 -0.9505 -0.4112
54843SOL    HW171390   2.175   7.116  10.350 -1.6818 -0.2438  0.4299
54843SOL    HW271391   2.280   7.219  10.389 -0.9995 -0.4225 -0.8740
54844SOL     OW71392  12.035   9.535   3.481  0.2807  0.0169 -0.3427
54844SOL    HW171393  12.019   9.622   3.518  2.9438  1.6353 -2.6807
54844SOL    HW271394  12.072   9.484   3.554  0.0927  1.2643  0.6543
54845SOL     OW71395   3.184  11.468   6.782 -0.3171 -0.0618  0.1978
54845SOL    HW171396   3.183  11.491   6.875 -0.4430  2.0281 -0.2609
54845SOL    HW271397   3.219  11.379   6.779  0.0740 -0.0145  2.2110
54846SOL     OW71398  11.215   2.072   0.837  0.1609  0.3425  0.3625
54846SOL    HW171399  11.229   2.114   0.922 -5.0092  1.2559  1.0623
54846SOL    HW271400  11.182   2.141   0.780 -2.1167 -1.3527 -0.5387
54847SOL     OW71401   6.000  10.602  12.471 -0.2463  0.1974 -0.1476
54847SOL    HW171402   6.043  10.643  12.546  0.2387 -1.6354  0.6082
54847SOL    HW271403   6.024  10.510  12.476 -0.7170 -0.0917 -2.2158
54848SOL     OW71404   3.723   7.146   0.704 -0.0137  0.3765  0.8324
54848SOL    HW171405   3.642   7.095   0.705 -0.9527  1.7883  0.5130
54848SOL    HW271406   3.771   7.114   0.627 -1.2658  0.9497 -0.2360
54849SOL     OW71407   6.257   5.896   1.203 -0.9219 -0.4084 -0.3668
54849SOL    HW171408   6.263   5.805   1.173 -0.6662 -0.5029 -0.0287
54849SOL    HW271409   6.318   5.902   1.276  2.1294  1.0085 -2.7627
54850SOL     OW71410  10.236   5.007   2.380  0.3931  0.4055 -0.5534
54850SOL    HW171411  10.276   4.966   2.457  0.0782 -0.1574 -0.6822
54850SOL    HW271412  10.262   5.099   2.386  0.5084  0.3385  0.1413
54851SOL     OW71413  10.378  11.357   6.790 -0.0903 -0.5225 -0.3081
54851SOL    HW171414  10.292  11.316   6.799 -0.2655 -0.5141 -1.8135
54851SOL    HW271415  10.437  11.297   6.837 -0.8402 -0.6966  0.4569
54852SOL     OW71416   7.594   7.251   4.081  0.1807 -0.3578 -0.3292
54852SOL    HW171417   7.560   7.332   4.044 -1.0837 -1.3051 -1.3120
54852SOL    HW271418   7.609   7.271   4.173  0.2692  1.0968 -0.6452
54853SOL     OW71419  10.090   2.113  11.868 -0.1947  0.1825  0.7444
54853SOL    HW171420  10.018   2.132  11.929 -1.1235  0.4492 -0.3910
54853SOL    HW271421  10.064   2.031  11.826  1.6475 -1.3601  2.4349
54854SOL     OW71422   0.587  12.186   9.114  0.3267  0.3188  0.5518
54854SOL    HW171423   0.681  12.172   9.118  0.1746 -1.6635 -0.8602
54854SOL    HW271424   0.571  12.214   9.024 -0.3148  2.1590  1.1917
54855SOL     OW71425   5.254   8.744   1.103 -0.2430  0.0316 -0.2138
54855SOL    HW171426   5.245   8.797   1.182  0.0090  0.1900 -0.2909
54855SOL    HW271427   5.298   8.664   1.132 -0.6891 -0.1723 -0.0835
54856SOL     OW71428  10.704   6.649   8.143 -0.0078  0.0461  0.6080
54856SOL    HW171429  10.634   6.675   8.083 -0.4095  1.2091  1.5392
54856SOL    HW271430  10.785   6.660   8.093 -0.1988  2.6042  0.7402
54857SOL     OW71431   5.663   2.862   6.411  0.2246 -0.1268  0.4221
54857SOL    HW171432   5.624   2.804   6.346 -2.8112  1.8403  0.2700
54857SOL    HW271433   5.625   2.834   6.495  1.0981 -0.2391  0.7883
54858SOL     OW71434  10.339   9.298  10.772  0.2126  0.2555 -0.2981
54858SOL    HW171435  10.305   9.319  10.859 -0.9155  0.7896 -0.8493
54858SOL    HW271436  10.342   9.202  10.770  1.0589  0.2503  0.6195
54859SOL     OW71437   4.246   3.823   5.465 -0.8397  0.1981 -1.1428
54859SOL    HW171438   4.191   3.758   5.508 -0.0851  1.1959  1.4979
54859SOL    HW271439   4.325   3.775   5.441 -0.0832  0.1367  1.2137
54860SOL     OW71440   6.820   1.808   8.991 -0.1067 -0.3168  0.1920
54860SOL    HW171441   6.763   1.806   8.914 -1.8022 -3.1370  1.3470
54860SOL    HW271442   6.879   1.734   8.979 -0.2871 -0.7003  1.4514
54861SOL     OW71443   4.057   6.789   6.408  0.1335  0.4338 -0.6556
54861SOL    HW171444   4.068   6.742   6.326  0.7024 -0.1101 -0.2809
54861SOL    HW271445   3.971   6.762   6.441 -0.8978  2.0105 -1.9070
54862SOL     OW71446   4.330   6.084   0.741 -1.1521 -0.6266 -0.8968
54862SOL    HW171447   4.384   6.078   0.819 -1.0073 -0.0837 -0.9526
54862SOL    HW271448   4.371   6.025   0.678  0.4771  1.1458 -1.5830
54863SOL     OW71449  10.456   9.621   7.604 -0.1973 -0.3368 -0.1137
54863SOL    HW171450  10.408   9.639   7.685  1.6797 -1.5234  1.3791
54863SOL    HW271451  10.524   9.689   7.601  1.1680 -1.6134  0.6037
54864SOL     OW71452   3.894   3.704   7.491 -0.3021  0.1942  0.4170
54864SOL    HW171453   3.895   3.610   7.474 -1.2451  0.2178  0.1720
54864SOL    HW271454   3.846   3.742   7.417  0.2831  0.8992  0.3858
54865SOL     OW71455   9.434   9.382   0.821  1.1087 -0.1251  0.4449
54865SOL    HW171456   9.409   9.424   0.903 -0.6316  0.3382 -0.2664
54865SOL    HW271457   9.459   9.293   0.847 -2.2236 -0.9848  1.2844
54866SOL     OW71458   4.176   8.170   9.321  0.6558 -0.1643  0.4301
54866SOL    HW171459   4.161   8.263   9.308  0.5064  0.2922  3.2493
54866SOL    HW271460   4.092   8.128   9.300  1.1866  0.0242 -2.5266
54867SOL     OW71461  10.406   6.436  11.928  0.0572  0.1746 -0.5163
54867SOL    HW171462  10.364   6.455  11.844 -0.1120  1.8905 -0.0837
54867SOL    HW271463  10.471   6.505  11.939 -0.3761  0.3880  1.0647
54868SOL     OW71464  11.531   8.583  11.430  0.3569 -0.1889 -0.5427
54868SOL    HW171465  11.596   8.634  11.382 -1.8911  1.4200 -2.1224
54868SOL    HW271466  11.506   8.640  11.503  0.2258 -0.4876 -0.3547
54869SOL     OW71467   6.231   6.054  10.490  0.0194  0.5620 -0.7867
54869SOL    HW171468   6.231   6.149  10.479  0.9571  0.9285  1.7686
54869SOL    HW271469   6.324   6.030  10.489 -0.2119 -0.7743 -3.8668
54870SOL     OW71470   8.564   9.466   5.062 -0.0124  0.4599 -0.7972
54870SOL    HW171471   8.643   9.518   5.073 -0.1381  0.1647  2.3839
54870SOL    HW271472   8.589   9.397   5.001  1.1814  2.1595 -2.3232
54871SOL     OW71473   7.726   2.611   7.666 -0.6711  0.3895  0.0123
54871SOL    HW171474   7.715   2.668   7.742  0.1266  0.5615  0.0119
54871SOL    HW271475   7.819   2.587   7.667 -0.6081  0.5189 -0.9944
54872SOL     OW71476   4.687  12.426  11.958  0.5348 -0.4682  0.4870
54872SOL    HW171477   4.597  12.445  11.932  1.0592 -1.1123 -2.1405
54872SOL    HW271478   4.692  12.451  12.050 -2.0059  0.6331  0.3963
54873SOL     OW71479   9.680   1.923   8.522 -0.4616  0.7212  0.0788
54873SOL    HW171480   9.631   1.986   8.574  0.8110  1.6437  0.1888
54873SOL    HW271481   9.743   1.884   8.584 -0.8249 -0.2317 -0.1275
54874SOL     OW71482  12.377   6.206   1.300 -0.1809  0.3194  0.6558
54874SOL    HW171483  12.383   6.179   1.209 -1.2212  0.6020  0.4972
54874SOL    HW271484  12.414   6.294   1.302  0.6258 -0.0012  0.6797
54875SOL     OW71485   1.724  11.266   1.452  0.0026 -0.8209  0.4117
54875SOL    HW171486   1.800  11.237   1.402 -1.2586 -1.3470 -1.2856
54875SOL    HW271487   1.761  11.310   1.529  2.0862  1.8726 -1.9306
54876SOL     OW71488   0.013   4.519  12.203 -0.3685 -0.7226  0.1590
54876SOL    HW171489   0.075   4.524  12.276  2.0758 -2.4114 -1.6398
54876SOL    HW271490   0.023   4.603  12.158 -1.6875  0.2176  1.5375
54877SOL     OW71491  10.729   6.957   0.715  0.2851  0.4143 -0.2822
54877SOL    HW171492  10.757   7.016   0.785  0.6881 -0.2350  0.1141
54877SOL    HW271493  10.807   6.947   0.661 -0.4538  2.2087 -1.7942
54878SOL     OW71494   0.932   3.663   3.544  0.0279 -0.6434  0.1365
54878SOL    HW171495   0.974   3.601   3.485  3.9440  0.3451  1.6127
54878SOL    HW271496   0.932   3.620   3.629 -0.1899  0.1402  0.5448
54879SOL     OW71497   3.744   3.298   1.480 -0.1157  0.2504 -0.1316
54879SOL    HW171498   3.669   3.357   1.478  1.1814  2.0544  1.2691
54879SOL    HW271499   3.781   3.303   1.391 -0.7759  0.5394 -0.3927
54880SOL     OW71500  11.397   6.985   4.459 -0.5880 -0.0468  0.2233
54880SOL    HW171501  11.391   7.073   4.496  0.8452 -0.0762  0.6012
54880SOL    HW271502  11.374   6.927   4.532 -1.0050 -0.0107  0.1245
54881SOL     OW71503   9.054   8.824   7.059  0.0401 -0.2264  0.3203
54881SOL    HW171504   9.103   8.760   7.007  1.1228  0.9371 -0.1457
54881SOL    HW271505   9.096   8.907   7.040 -1.8226  0.7688  0.3045
54882SOL     OW71506   7.080   0.270   6.244 -0.0536 -0.6443  0.5625
54882SOL    HW171507   7.149   0.246   6.307  0.3328  0.7298  0.6868
54882SOL    HW271508   7.012   0.204   6.259  1.3639 -2.2875  0.1581
54883SOL     OW71509   8.407   6.639   4.415 -0.3674 -0.1679 -0.1341
54883SOL    HW171510   8.466   6.688   4.473 -0.7290  0.9808 -0.6864
54883SOL    HW271511   8.465   6.588   4.359 -0.0332 -2.0092  1.7761
54884SOL     OW71512   1.530   2.055   8.455  0.7026  0.2761 -0.1417
54884SOL    HW171513   1.578   1.999   8.394  0.5135  1.7847 -1.7454
54884SOL    HW271514   1.443   2.064   8.416 -0.2636 -0.7030  1.6457
54885SOL     OW71515   5.827   5.794   3.738 -0.1252  0.2874 -0.1525
54885SOL    HW171516   5.872   5.878   3.745  1.4137 -0.5236  0.2021
54885SOL    HW271517   5.867   5.752   3.662 -0.2435 -0.4861  0.2038
54886SOL     OW71518   5.421   9.326   5.069  0.6936 -0.6832  0.5002
54886SOL    HW171519   5.474   9.247   5.065  2.3259  0.3598  0.8498
54886SOL    HW271520   5.368   9.323   4.989  1.7554 -1.4304 -0.2065
54887SOL     OW71521   5.281   1.000   2.953 -0.7760 -0.8163  0.3901
54887SOL    HW171522   5.314   1.017   3.042  0.9699 -1.3601 -0.1165
54887SOL    HW271523   5.186   1.011   2.961 -0.4511  2.1207  1.6476
54888SOL     OW71524   4.526  11.307   2.567  0.3538  0.2651  0.0999
54888SOL    HW171525   4.607  11.356   2.558 -0.5225  1.5773 -1.0345
54888SOL    HW271526   4.545  11.221   2.529  1.1318  0.6453 -0.3928
54889SOL     OW71527   0.612   3.561   7.108  0.0028 -0.1715 -0.2602
54889SOL    HW171528   0.692   3.511   7.125  1.3260  1.8779 -0.0667
54889SOL    HW271529   0.546   3.495   7.086  1.4776 -2.0058  0.5538
54890SOL     OW71530   5.936  11.475  12.392 -0.0509 -0.6708  0.5044
54890SOL    HW171531   6.001  11.454  12.459  0.9388 -1.4848 -0.6575
54890SOL    HW271532   5.959  11.564  12.364 -0.3732 -0.3879  1.1120
54891SOL     OW71533   2.723   4.350  11.708  0.0094  0.3150  0.4047
54891SOL    HW171534   2.735   4.324  11.617 -0.4443  2.0796 -0.2028
54891SOL    HW271535   2.761   4.438  11.714  0.2818  0.1276  1.9955
54892SOL     OW71536   8.063   8.350   6.236  0.0716 -0.3670  0.4469
54892SOL    HW171537   7.977   8.335   6.196  0.4854  1.6881 -1.4419
54892SOL    HW271538   8.107   8.265   6.231 -0.6773 -0.7024 -1.6945
54893SOL     OW71539   2.446   4.344   3.676  0.2701 -0.2157 -0.1263
54893SOL    HW171540   2.396   4.353   3.756  0.2043 -0.4085 -0.1451
54893SOL    HW271541   2.479   4.432   3.658  0.7123 -0.2667  0.3903
54894SOL     OW71542   5.116   7.506   5.924  0.1497 -0.8128  0.1559
54894SOL    HW171543   5.026   7.529   5.900 -0.0167  0.1808  1.5615
54894SOL    HW271544   5.107   7.453   6.004  0.8116 -0.1290  0.7025
54895SOL     OW71545   6.260   7.559   7.873  0.3819 -0.3401  0.0856
54895SOL    HW171546   6.250   7.638   7.926  0.7358 -1.5469  2.0401
54895SOL    HW271547   6.170   7.533   7.852  0.2374  0.0843  0.1571
54896SOL     OW71548   9.794   7.579   1.585  0.8356 -0.3756  0.1948
54896SOL    HW171549   9.716   7.533   1.555  1.0355 -1.1434  0.8003
54896SOL    HW271550   9.761   7.660   1.625  0.5179  0.2980 -1.3750
54897SOL     OW71551   7.009  12.141   6.847  0.2659  0.2197  0.1105
54897SOL    HW171552   6.958  12.113   6.771  1.1641  0.2189 -0.5069
54897SOL    HW271553   6.958  12.213   6.884 -0.7451 -0.5089  0.1804
54898SOL     OW71554   4.819   3.952  11.093  0.3817 -0.0105  0.1435
54898SOL    HW171555   4.869   3.906  11.160  1.3882 -0.4089 -0.8521
54898SOL    HW271556   4.737   3.904  11.087 -0.4117  1.0043  2.2110
54899SOL     OW71557   3.984  11.409  10.431 -0.9490 -0.3445  0.0343
54899SOL    HW171558   3.927  11.427  10.356 -2.1827 -0.7885  0.8243
54899SOL    HW271559   4.007  11.495  10.465 -1.5296 -0.1573 -0.0348
54900SOL     OW71560   1.845   8.251  11.635  0.0869 -0.3225  0.7957
54900SOL    HW171561   1.874   8.160  11.648  1.0972 -0.5049 -2.1126
54900SOL    HW271562   1.914   8.304  11.675  1.1454 -0.8394 -0.2847
54901SOL     OW71563   5.056   8.718   5.511  0.0379  0.4403  0.0993
54901SOL    HW171564   5.107   8.785   5.556 -1.2160  1.4912  0.0008
54901SOL    HW271565   5.098   8.636   5.537  1.2060  1.2005  0.7453
54902SOL     OW71566  11.814   3.465   1.238  0.2822 -0.4217 -0.2794
54902SOL    HW171567  11.839   3.544   1.190 -0.7763 -0.5412 -1.0557
54902SOL    HW271568  11.881   3.457   1.306  0.7277  0.8183 -0.5378
54903SOL     OW71569   4.669  12.147   3.557  0.0207  0.2315  0.1434
54903SOL    HW171570   4.676  12.101   3.473  0.2743  1.6620 -0.6517
54903SOL    HW271571   4.760  12.161   3.584 -0.0525 -1.1096  1.1964
54904SOL     OW71572   0.686  10.446   2.566  0.1828 -0.6508 -0.4576
54904SOL    HW171573   0.777  10.459   2.537 -0.5860  2.2191 -1.9523
54904SOL    HW271574   0.664  10.527   2.613 -1.2593 -1.8054  0.9720
54905SOL     OW71575  10.321   9.379   9.379 -0.6463 -0.5461  0.3528
54905SOL    HW171576  10.371   9.438   9.435  0.0647 -1.9582  1.2861
54905SOL    HW271577  10.291   9.433   9.307 -0.2441  0.9904  1.2954
54906SOL     OW71578  11.468  11.774   3.219 -0.3038  0.2145  0.2722
54906SOL    HW171579  11.482  11.787   3.125 -0.8082  0.2117  0.1970
54906SOL    HW271580  11.545  11.814   3.260 -1.8445  3.6989  0.0741
54907SOL     OW71581   4.409   8.569   0.448 -0.2759  0.1268 -0.3782
54907SOL    HW171582   4.328   8.540   0.490  0.2228 -0.5234  0.1581
54907SOL    HW271583   4.465   8.491   0.446  0.5000  0.6672 -0.3303
54908SOL     OW71584   4.859   8.907   3.523 -0.0509  0.4640 -0.1448
54908SOL    HW171585   4.869   8.998   3.553 -0.4564  0.2106  0.8307
54908SOL    HW271586   4.802   8.913   3.446 -0.1692  1.0342 -0.0185
54909SOL     OW71587   3.495   9.935   7.598  0.0045  0.1325  0.2886
54909SOL    HW171588   3.490   9.848   7.639 -0.3074 -0.0673 -0.1635
54909SOL    HW271589   3.511   9.995   7.671  1.1099 -0.3991  0.5062
54910SOL     OW71590  10.107   8.251   4.017 -0.0133  0.5709  0.4457
54910SOL    HW171591  10.050   8.273   4.091 -2.4643 -0.0950 -1.1032
54910SOL    HW271592  10.118   8.156   4.024  0.5542  0.6415  0.4945
54911SOL     OW71593   5.616   4.850   4.947 -0.4648 -0.2021  0.3379
54911SOL    HW171594   5.542   4.903   4.978 -0.0112  1.9516 -1.8880
54911SOL    HW271595   5.607   4.766   4.991 -0.9811  1.8325  4.5364
54912SOL     OW71596  12.317   6.160   5.967  0.2745 -0.4307 -0.1065
54912SOL    HW171597  12.358   6.079   5.999  1.7656  0.6496  0.8206
54912SOL    HW271598  12.223   6.142   5.972  0.5589 -1.9184  0.5955
54913SOL     OW71599  11.530   3.240   3.072  0.1729 -0.5406 -0.0206
54913SOL    HW171600  11.485   3.187   3.138  0.9068 -1.1876 -0.0294
54913SOL    HW271601  11.586   3.298   3.123 -2.2334  1.8452  0.1241
54914SOL     OW71602   3.408   8.697   2.915  0.5753 -0.1275 -0.0499
54914SOL    HW171603   3.450   8.763   2.970 -0.0105  0.2642 -0.0561
54914SOL    HW271604   3.314   8.715   2.924  0.4894  1.0854 -2.5677
54915SOL     OW71605   8.111   7.054   3.373  0.0796  0.4591 -0.4951
54915SOL    HW171606   8.195   7.068   3.330 -0.3970  1.3017 -1.2114
54915SOL    HW271607   8.116   7.106   3.453 -0.1451  1.4015 -1.0784
54916SOL     OW71608   8.809   0.309  11.114  0.3347 -0.5824  0.5501
54916SOL    HW171609   8.723   0.300  11.155  0.5931 -0.3761  1.1403
54916SOL    HW271610   8.854   0.227  11.135  0.3293 -0.6441  0.3327
54917SOL     OW71611  10.348   9.890   0.543 -0.4472  0.3162  0.3959
54917SOL    HW171612  10.253   9.906   0.541 -1.0379 -2.2011  2.3830
54917SOL    HW271613  10.375   9.922   0.629 -0.4650 -2.8554  1.7272
54918SOL     OW71614  10.355   7.042   4.967  0.1246 -0.3313  0.2453
54918SOL    HW171615  10.342   7.135   4.946 -0.9597 -0.6057 -0.3653
54918SOL    HW271616  10.331   7.034   5.059 -1.6613 -0.3296 -0.1801
54919SOL     OW71617  11.385   0.483   0.705 -0.2899 -0.3011 -0.1917
54919SOL    HW171618  11.297   0.447   0.717 -1.6448  3.0471  1.1084
54919SOL    HW271619  11.379   0.574   0.735  2.9001  0.9909 -2.7323
54920SOL     OW71620   7.871   9.697   1.667  0.6675 -0.0287  0.2014
54920SOL    HW171621   7.863   9.777   1.615 -0.3120 -0.0633  0.2750
54920SOL    HW271622   7.958   9.664   1.648  0.6762  0.4821 -0.6762
54921SOL     OW71623  11.789   4.647   5.829 -0.0406  0.0255  0.1217
54921SOL    HW171624  11.793   4.675   5.920  2.1216  1.6728 -0.4089
54921SOL    HW271625  11.702   4.672   5.800 -1.3207 -1.8063  2.0485
54922SOL     OW71626   1.580  10.621   6.471  0.3045 -0.2630 -0.2417
54922SOL    HW171627   1.655  10.639   6.414  2.8123 -0.5334  2.7405
54922SOL    HW271628   1.544  10.539   6.437  1.5665 -0.3178 -1.5492
54923SOL     OW71629  12.471   9.598  10.530 -0.0793 -0.6794 -0.2741
54923SOL    HW171630  12.387   9.628  10.565 -1.3047 -1.0350 -2.6886
54923SOL    HW271631  12.504   9.538  10.596 -2.0984 -1.0950  0.4413
54924SOL     OW71632   0.189   5.668  11.265  0.4780 -0.1269  0.0477
54924SOL    HW171633   0.258   5.694  11.326  0.2748 -3.0688  1.7148
54924SOL    HW271634   0.108   5.698  11.307  0.2558 -2.9179  1.9001
54925SOL     OW71635   4.855   5.176   4.164 -0.1228  0.6908 -0.2859
54925SOL    HW171636   4.854   5.085   4.134 -1.4047  0.8844 -0.8585
54925SOL    HW271637   4.856   5.169   4.260  0.6720  0.0858 -0.3244
54926SOL     OW71638   4.159   6.484   0.056  0.4682  0.5421 -0.2309
54926SOL    HW171639   4.222   6.526  -0.003 -1.3523  0.3962 -2.4004
54926SOL    HW271640   4.185   6.392   0.057  0.3338  0.4911 -1.0687
54927SOL     OW71641   8.280   5.497   9.364 -0.8454 -0.3006 -0.2200
54927SOL    HW171642   8.342   5.450   9.420 -0.6027 -0.6160 -0.7421
54927SOL    HW271643   8.242   5.430   9.309 -0.0923  0.1783 -1.3575
54928SOL     OW71644   2.343   7.087   2.508  0.1711 -0.3503 -0.7286
54928SOL    HW171645   2.259   7.099   2.553  0.5975 -0.6836  0.1784
54928SOL    HW271646   2.332   7.006   2.459 -0.7903  0.7409 -2.4098
54929SOL     OW71647   9.779   1.307   2.920 -0.4078 -0.3066 -0.0371
54929SOL    HW171648   9.839   1.382   2.912  0.5029 -0.8802  1.1576
54929SOL    HW271649   9.793   1.274   3.008 -0.9917 -1.7434 -0.4514
54930SOL     OW71650   4.779   4.034   8.453  0.1947 -0.0534  0.3259
54930SOL    HW171651   4.764   3.942   8.472  0.2216 -0.1117  0.0658
54930SOL    HW271652   4.862   4.055   8.496  0.4801 -0.2985 -0.1007
54931SOL     OW71653  11.391   0.563   1.948 -0.1520 -0.4462  0.1443
54931SOL    HW171654  11.352   0.574   2.035 -0.1068  0.7173  0.0244
54931SOL    HW271655  11.332   0.504   1.902 -1.3502  0.6543  0.2334
54932SOL     OW71656  11.761  11.695   4.979  0.1243  0.1593 -0.0465
54932SOL    HW171657  11.678  11.663   4.944  0.3911  0.8216 -1.3536
54932SOL    HW271658  11.827  11.637   4.942  0.3257  0.2459  0.1752
54933SOL     OW71659   0.036  10.571   6.543 -0.3976  0.3342  0.2064
54933SOL    HW171660   0.114  10.578   6.487  0.5496  1.3413  1.5882
54933SOL    HW271661  -0.038  10.582   6.484  0.3798 -2.2240 -1.4399
54934SOL     OW71662   3.051   6.363   1.624  1.0109  0.0284  0.4440
54934SOL    HW171663   3.109   6.423   1.577  1.6275 -0.2037  0.8991
54934SOL    HW271664   2.999   6.420   1.682 -0.0700  0.3700 -0.7957
54935SOL     OW71665   4.095   0.212   7.169 -0.3244 -0.1757  0.4222
54935SOL    HW171666   4.117   0.267   7.245  0.5275 -0.7670  0.6144
54935SOL    HW271667   4.029   0.151   7.202 -0.2917 -0.1344  0.5657
54936SOL     OW71668  10.851   8.773   6.759 -0.3318 -0.0765  0.1703
54936SOL    HW171669  10.857   8.721   6.679  0.0223  2.5596 -1.6648
54936SOL    HW271670  10.762   8.759   6.791 -0.3016 -1.6045 -0.3411
54937SOL     OW71671   6.303   4.071   2.386 -0.0437  0.5121  0.1171
54937SOL    HW171672   6.214   4.099   2.367  0.5779  1.9682 -0.8632
54937SOL    HW271673   6.342   4.146   2.432  0.5456 -0.2876  0.9679
54938SOL     OW71674   7.401   0.492   0.745  0.0476  0.0231 -0.2606
54938SOL    HW171675   7.473   0.436   0.774  0.7290  0.4647 -1.0269
54938SOL    HW271676   7.326   0.434   0.740  0.0523 -0.2120  1.6545
54939SOL     OW71677   3.064   9.596   9.397 -0.6849 -0.1308 -0.2910
54939SOL    HW171678   3.078   9.686   9.427  2.7710 -0.4542 -0.5092
54939SOL    HW271679   3.060   9.544   9.477  0.0270 -0.0680 -0.2116
54940SOL     OW71680   7.836   5.090  11.942 -0.2975 -0.2639  0.1640
54940SOL    HW171681   7.800   5.002  11.933  1.1748 -1.1943  2.5282
54940SOL    HW271682   7.929   5.077  11.958  0.0482  1.7516  0.0821
54941SOL     OW71683   7.188   2.611   2.018 -0.6719 -0.7007 -0.1341
54941SOL    HW171684   7.116   2.592   2.078 -1.1300  0.8395 -0.1691
54941SOL    HW271685   7.148   2.609   1.931 -1.0401  1.5665 -0.0714
54942SOL     OW71686   5.788  11.319   0.172 -0.5897  0.1820  0.7340
54942SOL    HW171687   5.771  11.388   0.235 -0.4788  0.1575  0.7912
54942SOL    HW271688   5.730  11.338   0.098  2.4039  2.8344 -1.1951
54943SOL     OW71689   8.931   6.443  11.963  0.2447  0.3417  0.5398
54943SOL    HW171690   8.843   6.481  11.967 -0.2195 -0.6229 -0.0273
54943SOL    HW271691   8.922   6.370  11.902  1.5481  0.4924  0.1399
54944SOL     OW71692  11.488   5.603   3.678 -0.7544  0.2932  0.7415
54944SOL    HW171693  11.433   5.545   3.625 -0.0660  0.2017  0.1040
54944SOL    HW271694  11.468   5.691   3.646  0.2839  0.1791 -0.3066
54945SOL     OW71695   4.539  10.962   6.587  0.4425 -0.6702 -0.9086
54945SOL    HW171696   4.446  10.966   6.610  0.8310  2.1884  0.6324
54945SOL    HW271697   4.542  10.992   6.496 -0.1758 -1.0296 -1.0514
54946SOL     OW71698   4.818   9.921   2.568  0.1333 -0.2654 -0.4951
54946SOL    HW171699   4.907   9.944   2.597 -0.6188  1.4092  0.6609
54946SOL    HW271700   4.779  10.005   2.542 -1.6133 -0.7226  0.5253
54947SOL     OW71701  10.924   9.163   8.164  0.3044 -0.6586  0.2911
54947SOL    HW171702  10.957   9.251   8.181 -1.6050 -0.3741  3.3691
54947SOL    HW271703  10.843   9.176   8.114 -0.6141 -0.4961  1.7589
54948SOL     OW71704   5.288   1.148   2.717  0.1001 -0.4353  0.3723
54948SOL    HW171705   5.349   1.107   2.656  0.5217 -0.1696  0.6150
54948SOL    HW271706   5.272   1.082   2.784 -1.6302 -1.3529 -0.8489
54949SOL     OW71707  10.935   4.670  11.674  0.4193 -0.1219  0.4584
54949SOL    HW171708  10.900   4.743  11.625  1.4779  0.2729  0.2669
54949SOL    HW271709  11.030   4.678  11.666  0.6052 -0.5479  1.8284
54950SOL     OW71710   8.587   4.377   5.608 -0.6837  0.6104  0.0571
54950SOL    HW171711   8.668   4.424   5.587 -1.8230  1.8730 -1.8015
54950SOL    HW271712   8.537   4.379   5.527 -2.8256  0.3521  1.3020
54951SOL     OW71713   3.024   1.546   3.075  0.1923 -0.8959  0.1326
54951SOL    HW171714   2.971   1.468   3.094 -3.3181  0.4699 -2.8513
54951SOL    HW271715   3.041   1.585   3.161 -0.7842 -3.1482  1.4543
54952SOL     OW71716   6.079   6.977   7.109 -0.1208  0.3290 -0.2724
54952SOL    HW171717   6.146   7.016   7.053  3.5500 -2.1849  1.8496
54952SOL    HW271718   6.068   6.888   7.074 -1.7604  0.3975 -0.0152
54953SOL     OW71719   4.962   3.352   2.533 -0.3497 -0.3689 -0.1335
54953SOL    HW171720   5.034   3.401   2.495 -1.4945  2.0284  0.6012
54953SOL    HW271721   4.956   3.384   2.623 -2.3822 -0.3836 -0.2121
54954SOL     OW71722  10.606   5.313   3.206  0.4666  0.2404 -0.4319
54954SOL    HW171723  10.617   5.232   3.156 -0.7479 -0.9058  1.0606
54954SOL    HW271724  10.691   5.356   3.200  1.4164 -1.5518 -0.5970
54955SOL     OW71725   2.342   6.780  10.973 -0.3907  0.1612 -0.4699
54955SOL    HW171726   2.396   6.821  10.905  0.7622 -0.1345  0.2382
54955SOL    HW271727   2.322   6.693  10.939 -0.0760  0.1259 -0.5695
54956SOL     OW71728  10.914   1.072   2.862  0.4881 -0.0559  0.3739
54956SOL    HW171729  10.957   1.081   2.777  0.7901 -0.1143  0.5160
54956SOL    HW271730  10.842   1.010   2.847  0.2402  0.3059  0.0547
54957SOL     OW71731  11.852   5.941   4.980 -0.6983  0.4521 -0.4170
54957SOL    HW171732  11.946   5.953   4.985 -0.7067  0.0445  1.2355
54957SOL    HW271733  11.819   6.024   4.945  0.1571  1.1732  0.4431
54958SOL     OW71734   5.416   7.194   9.028  0.0123  0.1096 -0.1429
54958SOL    HW171735   5.360   7.262   8.991 -0.0465 -0.1518 -0.5371
54958SOL    HW271736   5.477   7.242   9.085 -0.9460  0.3502  0.7280
54959SOL     OW71737   0.528   1.360   4.295 -0.2497 -0.1280 -0.3981
54959SOL    HW171738   0.580   1.437   4.319 -0.2524 -0.6959  1.5604
54959SOL    HW271739   0.579   1.286   4.326 -0.2542 -0.9696 -2.2502
54960SOL     OW71740   0.034  10.590   0.120  0.3046  0.3577 -0.1182
54960SOL    HW171741   0.106  10.548   0.074 -0.1059  0.1641 -0.5942
54960SOL    HW271742  -0.038  10.527   0.116  0.7121 -0.3284  2.1502
54961SOL     OW71743   4.585  12.365   9.006  0.3791  0.1140  0.4914
54961SOL    HW171744   4.520  12.434   8.999  0.1878 -0.1506 -0.6702
54961SOL    HW271745   4.653  12.400   9.064 -1.0837  0.1377  2.2671
54962SOL     OW71746   4.732  11.245   8.757  0.1504 -0.3199 -0.5690
54962SOL    HW171747   4.657  11.214   8.807 -0.0220 -1.4172 -1.4827
54962SOL    HW271748   4.806  11.194   8.790  0.2150 -0.3440 -0.7512
54963SOL     OW71749   1.082   6.641   0.754  0.1374 -0.1675  0.0497
54963SOL    HW171750   0.997   6.624   0.793 -1.0989  0.9633 -2.0162
54963SOL    HW271751   1.120   6.553   0.742 -0.8284 -0.7019  0.7369
54964SOL     OW71752   7.333   2.713   8.275  0.4271 -0.0492 -0.7131
54964SOL    HW171753   7.261   2.775   8.275  0.2454 -0.2408 -1.7831
54964SOL    HW271754   7.409   2.763   8.306  0.6064  1.1194 -2.9058
54965SOL     OW71755   6.250   5.145   5.600 -0.3704 -0.1148  0.0726
54965SOL    HW171756   6.172   5.091   5.611 -0.5524  0.2797  0.7424
54965SOL    HW271757   6.316   5.104   5.657 -0.6369  0.6063  0.9181
54966SOL     OW71758   9.634   9.660  10.470 -0.0559 -0.1649  0.1698
54966SOL    HW171759   9.552   9.703  10.448 -0.3018 -0.6413  0.1509
54966SOL    HW271760   9.628   9.644  10.564 -0.1328 -0.5077  0.1077
54967SOL     OW71761   3.123   9.623   3.663  0.0633 -0.3529 -0.5444
54967SOL    HW171762   3.189   9.610   3.595  1.1648 -0.2522  0.4597
54967SOL    HW271763   3.157   9.697   3.714 -1.5154  0.5832 -0.7962
54968SOL     OW71764   1.324   6.434  11.599  0.9610 -0.8118  0.3955
54968SOL    HW171765   1.356   6.524  11.593  3.0423 -1.5889 -1.6241
54968SOL    HW271766   1.400   6.382  11.623 -0.2846 -2.0530  1.8798
54969SOL     OW71767  10.485  11.047   4.757  0.8682 -0.1689  0.3610
54969SOL    HW171768  10.390  11.052   4.767  0.9125  0.3481  0.5682
54969SOL    HW271769  10.519  11.116   4.814  1.2942  0.6209 -0.8044
54970SOL     OW71770   0.201   9.263   2.311 -0.1075  0.5664 -0.3743
54970SOL    HW171771   0.122   9.209   2.316 -0.2920  0.7564 -1.1159
54970SOL    HW271772   0.233   9.267   2.401 -1.7995  1.7682  0.2332
54971SOL     OW71773  12.290   4.442   0.552  0.1315  0.4070  0.1482
54971SOL    HW171774  12.330   4.373   0.498  3.2754  1.9888  0.2374
54971SOL    HW271775  12.200   4.450   0.518  0.6684 -1.5201 -1.9969
54972SOL     OW71776   7.234   6.246   1.316 -0.1767  0.4540 -0.1238
54972SOL    HW171777   7.224   6.211   1.404 -1.1101  0.7182 -0.1159
54972SOL    HW271778   7.240   6.169   1.259 -0.1823  0.2840  0.1054
54973SOL     OW71779   0.407   7.787  11.025  0.2485 -0.0650  0.7812
54973SOL    HW171780   0.321   7.765  10.988  0.5448 -0.9204  0.5875
54973SOL    HW271781   0.433   7.867  10.979  1.0239 -1.5971 -1.5879
54974SOL     OW71782  11.798   8.390   2.203 -0.1013 -0.0400  0.6902
54974SOL    HW171783  11.851   8.470   2.198 -0.4490  0.1458 -0.4911
54974SOL    HW271784  11.861   8.319   2.193 -0.0757  0.1942 -1.4196
54975SOL     OW71785   4.876   4.348  11.211 -0.3794 -0.5743  0.3592
54975SOL    HW171786   4.897   4.255  11.219 -2.3505 -1.2963 -1.7586
54975SOL    HW271787   4.915   4.375  11.128 -2.1960 -0.3238 -0.4685
54976SOL     OW71788   8.704   5.740   8.986  0.4100 -0.5869  0.5077
54976SOL    HW171789   8.769   5.714   8.921  0.4044  1.2534 -0.2929
54976SOL    HW271790   8.690   5.661   9.038  2.5396 -1.3227  0.0875
54977SOL     OW71791   7.415   9.485   0.594  0.0891  0.0801  0.1532
54977SOL    HW171792   7.511   9.480   0.601  0.0942 -0.8667 -0.4220
54977SOL    HW271793   7.399   9.547   0.524  0.3747 -1.6866 -1.5803
54978SOL     OW71794  11.930   1.270   5.586  0.5165 -0.0446 -0.5165
54978SOL    HW171795  11.874   1.215   5.642 -0.2729  0.2100 -1.0346
54978SOL    HW271796  11.916   1.359   5.619  0.9831 -0.0344 -0.3467
54979SOL     OW71797  12.305   4.338   2.463  0.1998 -0.8416 -0.5134
54979SOL    HW171798  12.342   4.297   2.385  0.5543  1.1628 -1.4663
54979SOL    HW271799  12.295   4.430   2.439 -2.7670 -0.7470  0.7005
54980SOL     OW71800   1.820  10.601   6.005  0.4044 -0.4434 -0.9357
54980SOL    HW171801   1.858  10.551   5.934  0.5877  1.6107 -2.3812
54980SOL    HW271802   1.730  10.571   6.011  0.5940 -1.1368 -1.5543
54981SOL     OW71803   3.329   2.469   8.783 -0.2787 -0.6965 -0.0605
54981SOL    HW171804   3.347   2.505   8.696 -0.2881  0.5523  0.4256
54981SOL    HW271805   3.259   2.406   8.769 -1.3155  0.5550 -0.7729
54982SOL     OW71806   5.827   2.345   1.076 -0.2933 -0.5993 -0.1622
54982SOL    HW171807   5.841   2.255   1.107  1.5473 -0.2764  0.0898
54982SOL    HW271808   5.914   2.385   1.079 -1.0595  1.1844 -0.3508
54983SOL     OW71809  11.369  11.676   8.475 -0.1943  0.7615 -0.6398
54983SOL    HW171810  11.347  11.593   8.434 -0.8354  0.8230 -0.4449
54983SOL    HW271811  11.457  11.696   8.445  0.1469 -0.2108 -0.3178
54984SOL     OW71812   9.720   5.054  11.601 -0.2252 -0.0162 -0.3012
54984SOL    HW171813   9.634   5.017  11.622  0.3105 -0.4427  1.2213
54984SOL    HW271814   9.769   4.981  11.562  1.0705 -1.2881  3.3397
54985SOL     OW71815   3.135  11.231   5.818 -0.0877 -0.4677  0.0670
54985SOL    HW171816   3.224  11.256   5.793 -0.3298  0.3899  0.0257
54985SOL    HW271817   3.146  11.169   5.890  0.5239  0.8501  1.1588
54986SOL     OW71818  11.683   2.649   4.919 -0.5813  0.0331  0.3945
54986SOL    HW171819  11.630   2.672   4.995  0.2476  1.1429  0.6731
54986SOL    HW271820  11.736   2.575   4.949 -0.0257  0.6663  1.0325
54987SOL     OW71821   0.458   4.631   2.413  0.2491  0.4271 -0.0364
54987SOL    HW171822   0.393   4.683   2.462  0.9038  2.2631 -1.0276
54987SOL    HW271823   0.438   4.540   2.436 -2.9547  0.8742 -0.6310
54988SOL     OW71824   9.551  10.094  11.536  0.0050  0.0452 -0.6396
54988SOL    HW171825   9.466  10.136  11.545  0.9880  2.1975 -0.7056
54988SOL    HW271826   9.594  10.142  11.465  1.2096 -1.1107 -0.7283
54989SOL     OW71827   1.280   2.409   8.882 -0.5517  0.4509  0.2642
54989SOL    HW171828   1.217   2.476   8.859 -0.1135  1.2575  1.2932
54989SOL    HW271829   1.364   2.442   8.849 -0.7389 -1.0192 -1.8808
54990SOL     OW71830   8.443   8.885   7.630 -0.0137 -0.8377 -0.5014
54990SOL    HW171831   8.476   8.824   7.696  0.6128  0.5424  0.5219
54990SOL    HW271832   8.466   8.845   7.546 -2.1175 -3.3524 -0.0045
54991SOL     OW71833  10.935   3.175  12.350  0.2638  0.6304  0.0775
54991SOL    HW171834  10.956   3.083  12.340  0.2022  0.5759  0.4274
54991SOL    HW271835  11.020   3.220  12.343  0.2590  0.5775 -0.3826
54992SOL     OW71836   1.493   6.108   2.683 -0.7557  0.6803  0.0822
54992SOL    HW171837   1.541   6.031   2.711 -2.7753 -0.2103  1.3304
54992SOL    HW271838   1.558   6.162   2.637  2.2001  0.9928  4.0621
54993SOL     OW71839   9.807   8.772   1.290  0.7781 -0.0539 -0.6189
54993SOL    HW171840   9.728   8.761   1.343 -1.2911  2.0912 -2.9866
54993SOL    HW271841   9.865   8.826   1.344 -0.8452  1.2518 -0.1099
54994SOL     OW71842   0.938  10.593   5.806  0.0433  0.0461  0.1211
54994SOL    HW171843   0.931  10.680   5.845  0.5658  0.1715 -0.0544
54994SOL    HW271844   0.961  10.610   5.714  0.5430 -0.2780  0.1792
54995SOL     OW71845   1.983   2.547   8.548  0.4439  0.1096 -0.1075
54995SOL    HW171846   1.899   2.503   8.566  0.6175 -0.0689  0.2857
54995SOL    HW271847   2.031   2.485   8.493  1.0780 -0.6530  1.2393
54996SOL     OW71848   5.533  12.026   0.335  0.2963 -0.2244 -0.1048
54996SOL    HW171849   5.481  12.008   0.256  0.4140 -1.2219  0.0309
54996SOL    HW271850   5.614  11.976   0.322 -0.2072 -1.4259  1.1980
54997SOL     OW71851   3.375  11.908   0.391 -0.3605 -0.0875 -0.0833
54997SOL    HW171852   3.280  11.898   0.394 -0.2802 -1.3144 -0.9909
54997SOL    HW271853   3.408  11.838   0.449  0.0070 -0.0975 -0.3009
54998SOL     OW71854   6.166   4.041   0.010 -0.3155 -0.8463  0.2013
54998SOL    HW171855   6.116   4.042   0.091 -0.3205  0.9078  0.2301
54998SOL    HW271856   6.124   4.108  -0.044  2.5655  1.5337  0.6442
54999SOL     OW71857  11.402   3.319  11.586  0.3278 -0.6019 -0.3885
54999SOL    HW171858  11.488   3.355  11.565 -0.4813  0.8167 -1.4617
54999SOL    HW271859  11.402   3.308  11.681  1.2883  0.4382 -0.2594
55000SOL     OW71860   9.618   9.421  12.110 -0.2101  0.5856  0.3172
55000SOL    HW171861   9.642   9.511  12.134 -0.2761  0.5545  0.4989
55000SOL    HW271862   9.540   9.402  12.161  1.1218 -0.3977  2.0856
55001SOL     OW71863   6.366   7.794   8.470  0.1869  0.2415  0.1428
55001SOL    HW171864   6.391   7.762   8.384 -0.1001  2.0243 -0.6443
55001SOL    HW271865   6.307   7.727   8.504 -2.7625  1.1873 -2.6462
55002SOL     OW71866  12.256   5.683   0.980 -0.2140  0.1221  0.3469
55002SOL    HW171867  12.286   5.735   0.906 -0.0545  0.0308  0.3485
55002SOL    HW271868  12.309   5.604   0.978  0.1556  0.3513  0.8692
55003SOL     OW71869   3.480   9.958   4.025 -0.0549  0.1451  0.8344
55003SOL    HW171870   3.421   9.981   4.097 -0.7771 -1.6030  0.8571
55003SOL    HW271871   3.474   9.863   4.018  3.5890 -0.2824  1.5160
55004SOL     OW71872   7.791   7.075   7.567  0.1430 -0.2278  0.2796
55004SOL    HW171873   7.762   7.166   7.565 -0.1716 -0.2416 -3.8523
55004SOL    HW271874   7.885   7.080   7.549  0.0120 -0.7294 -0.5679
55005SOL     OW71875  11.610   2.145   3.028  0.2363 -0.0146 -0.2238
55005SOL    HW171876  11.687   2.092   3.008 -0.0938  0.1139 -1.9633
55005SOL    HW271877  11.645   2.232   3.049  0.5775  0.0751 -1.1243
55006SOL     OW71878   8.675   3.460   9.516 -0.3759  0.5636  0.0304
55006SOL    HW171879   8.744   3.420   9.568 -0.8326 -0.3119 -0.0174
55006SOL    HW271880   8.644   3.389   9.460 -0.6801  1.1921 -0.6050
55007SOL     OW71881   3.866   0.343   9.372 -0.5491 -0.1320  0.5206
55007SOL    HW171882   3.829   0.256   9.356  0.0266 -0.0725 -1.4498
55007SOL    HW271883   3.942   0.348   9.314 -0.7560  1.7978  0.3392
55008SOL     OW71884   2.046   1.695   3.278  0.8259  0.7687  0.2061
55008SOL    HW171885   1.991   1.657   3.210  1.5066 -1.0075  0.5975
55008SOL    HW271886   2.116   1.739   3.231  1.3903 -0.6007 -0.2663
55009SOL     OW71887  10.750   1.320   8.101 -0.5207 -0.0813 -1.2553
55009SOL    HW171888  10.663   1.297   8.070 -1.5988  1.1003  0.7190
55009SOL    HW271889  10.737   1.346   8.192  1.5926  1.9514 -1.4520
55010SOL     OW71890   3.539   0.507   8.883 -0.6083 -0.6379  0.4561
55010SOL    HW171891   3.625   0.550   8.876 -1.2283  0.4287 -1.2587
55010SOL    HW271892   3.481   0.575   8.917 -1.1175 -0.8449  0.0059
55011SOL     OW71893   4.049  10.600   0.548  0.5113 -0.1904 -0.1210
55011SOL    HW171894   4.043  10.519   0.598  0.8617 -0.2626 -0.1940
55011SOL    HW271895   4.117  10.583   0.483  0.0282 -0.1123 -0.6538
55012SOL     OW71896   8.505   4.623   2.125  0.0812  0.6141 -0.4899
55012SOL    HW171897   8.545   4.596   2.208 -0.8991  1.9176  0.4604
55012SOL    HW271898   8.517   4.548   2.067  0.3003 -0.5605  1.0010
55013SOL     OW71899  11.181  11.837   8.009  0.3779  0.1877 -0.1920
55013SOL    HW171900  11.176  11.924   7.969  2.3515  0.1978 -0.5214
55013SOL    HW271901  11.271  11.830   8.041 -0.2742 -1.0044  1.5856
55014SOL     OW71902   9.295   7.486   2.851 -0.0652  0.6439  0.2739
55014SOL    HW171903   9.348   7.556   2.814  3.7412 -2.4254 -0.7848
55014SOL    HW271904   9.231   7.464   2.783  2.0442 -0.0994 -1.5797
55015SOL     OW71905   7.396   1.547  10.321  0.8039 -0.1678 -0.1891
55015SOL    HW171906   7.433   1.494  10.391  0.1217 -0.1457  0.1951
55015SOL    HW271907   7.367   1.627  10.364 -1.0881 -0.8017 -0.1862
55016SOL     OW71908  10.171  11.498   0.997 -0.3689 -0.1651 -0.1022
55016SOL    HW171909  10.210  11.422   0.954  1.0470  0.3574  0.1988
55016SOL    HW271910  10.183  11.483   1.091  0.1546  0.5337 -0.0460
55017SOL     OW71911   9.847   9.842   7.070 -0.6256  0.6347 -0.1594
55017SOL    HW171912   9.933   9.834   7.111 -1.3956 -1.1158  1.2697
55017SOL    HW271913   9.860   9.905   6.999  1.4273  1.6768  1.0397
55018SOL     OW71914   7.189   5.185  10.380  0.3131 -0.3176  0.0514
55018SOL    HW171915   7.195   5.274  10.414 -0.3328 -0.0725 -0.4738
55018SOL    HW271916   7.238   5.132  10.443 -0.0526  0.2757  0.8464
55019SOL     OW71917   9.706   2.225   8.423 -0.3674 -0.1394 -0.6599
55019SOL    HW171918   9.758   2.305   8.426 -0.9424  0.2727 -1.1908
55019SOL    HW271919   9.770   2.155   8.411  0.1380  0.2478 -0.2698
55020SOL     OW71920  10.768  11.148   7.738 -0.2668 -0.0603 -0.0134
55020SOL    HW171921  10.728  11.219   7.788  0.8429 -0.9452  2.2687
55020SOL    HW271922  10.700  11.081   7.733 -0.1489 -0.2798  1.0490
55021SOL     OW71923  10.421   9.608   0.592  0.3503 -0.3510  0.0481
55021SOL    HW171924  10.414   9.695   0.551  1.4593  0.6625  1.8537
55021SOL    HW271925  10.344   9.602   0.648  0.1984 -0.6236 -0.1841
55022SOL     OW71926   9.371   6.364  12.016 -0.1624 -1.1206 -0.1614
55022SOL    HW171927   9.346   6.427  12.083 -1.0766  1.7010 -2.9009
55022SOL    HW271928   9.300   6.299  12.016 -0.5274 -0.7322  1.0305
55023SOL     OW71929   8.002   0.020   3.415 -0.6538 -0.0877 -0.6822
55023SOL    HW171930   8.096   0.035   3.421 -0.7519  0.0664  1.4223
55023SOL    HW271931   7.991  -0.035   3.338  1.5509 -2.6650  0.6757
55024SOL     OW71932   7.045  11.152   8.391 -0.4502  0.2188  0.0955
55024SOL    HW171933   7.070  11.063   8.366 -1.6192 -0.9583  2.6396
55024SOL    HW271934   6.993  11.184   8.317  0.5196 -0.9539 -1.1447
55025SOL     OW71935   7.848   8.175  12.265 -0.4772  0.2563  0.6847
55025SOL    HW171936   7.778   8.229  12.229 -0.2232  0.4617  0.4950
55025SOL    HW271937   7.924   8.234  12.269 -0.2548 -0.0284  0.6716
55026SOL     OW71938  10.388   9.694   0.073 -0.4422  0.1709 -0.0040
55026SOL    HW171939  10.419   9.726   0.157 -0.6120  0.8303 -0.1845
55026SOL    HW271940  10.427   9.754   0.009 -2.2888  1.2409 -0.2098
55027SOL     OW71941  11.262   5.332  11.666  0.3920  0.1108  0.1825
55027SOL    HW171942  11.335   5.272  11.654 -0.9055 -1.1838 -1.7332
55027SOL    HW271943  11.207   5.290  11.732  0.8506  0.6216  0.9155
55028SOL     OW71944   3.327   5.154   5.756 -0.4620 -0.3746  0.5712
55028SOL    HW171945   3.271   5.181   5.684 -0.7235 -1.2905  0.4191
55028SOL    HW271946   3.290   5.197   5.833  0.8820  2.0973 -0.0571
55029SOL     OW71947   6.646   4.269   7.711 -0.1996  0.3056 -0.4738
55029SOL    HW171948   6.634   4.345   7.768  3.3655 -0.4653  1.6104
55029SOL    HW271949   6.589   4.202   7.748  1.6903 -0.0270  2.0174
55030SOL     OW71950   4.313   8.247  11.194 -0.2770 -0.4556 -0.3118
55030SOL    HW171951   4.358   8.294  11.124  0.4490 -0.6693  0.0035
55030SOL    HW271952   4.320   8.304  11.270 -0.1123 -0.7093 -0.1361
55031SOL     OW71953   0.147   1.805  11.840 -0.5974  0.3951  0.0817
55031SOL    HW171954   0.108   1.737  11.894  0.5565 -0.1737  0.2420
55031SOL    HW271955   0.215   1.844  11.896  0.0514  0.3588 -0.6535
55032SOL     OW71956   8.604   2.977   6.454 -0.2401  0.3440 -0.0785
55032SOL    HW171957   8.616   3.068   6.424 -2.0855  0.6252 -0.0371
55032SOL    HW271958   8.513   2.972   6.481  0.6483 -0.6207  3.1121
55033SOL     OW71959   3.824   6.047   9.435  0.2822 -0.5560 -0.1596
55033SOL    HW171960   3.736   6.075   9.461  0.5167  0.5125 -0.4678
55033SOL    HW271961   3.811   6.002   9.351 -0.4709 -3.9914  1.6316
55034SOL     OW71962   7.371   3.878   9.040 -0.4435 -0.0255  0.1236
55034SOL    HW171963   7.358   3.837   8.955 -2.1762 -0.6852  0.6792
55034SOL    HW271964   7.444   3.830   9.079 -1.0196 -1.1280 -0.1318
55035SOL     OW71965  10.983   0.651   0.227  0.2135  0.0227 -0.4841
55035SOL    HW171966  10.928   0.688   0.157 -0.8545 -1.2812 -0.3643
55035SOL    HW271967  10.921   0.610   0.287  0.8984  2.9058  2.4309
55036SOL     OW71968   3.747   1.299   1.711 -0.4292 -0.3273 -0.4766
55036SOL    HW171969   3.825   1.333   1.753 -0.6964  0.4034 -0.5518
55036SOL    HW271970   3.733   1.357   1.636 -1.7700  0.3581  0.2723
55037SOL     OW71971   9.375  12.266   8.315  0.1959 -0.3258  0.1540
55037SOL    HW171972   9.288  12.231   8.337  1.0331 -3.0159 -0.4315
55037SOL    HW271973   9.372  12.279   8.220  0.4085 -0.3815  0.1395
55038SOL     OW71974   7.847   3.602   3.053 -0.1034  0.1698 -0.5272
55038SOL    HW171975   7.846   3.506   3.050 -0.0720  0.0969  0.9240
55038SOL    HW271976   7.755   3.627   3.053 -0.1234  0.1012 -0.3074
55039SOL     OW71977  12.166  11.402   8.845 -0.1636  0.2048 -0.4395
55039SOL    HW171978  12.083  11.358   8.861  0.3089 -0.4597  0.1907
55039SOL    HW271979  12.176  11.462   8.919 -0.2659  0.5922 -0.7298
55040SOL     OW71980  10.174   5.157   1.298 -0.3244  0.1864 -0.0728
55040SOL    HW171981  10.174   5.091   1.368 -2.1777  0.4354  0.2221
55040SOL    HW271982  10.205   5.110   1.221 -0.6833 -0.7824  0.3496
55041SOL     OW71983   1.061   8.718   3.795  0.3188 -0.5106  0.0606
55041SOL    HW171984   1.052   8.784   3.863 -0.7670  0.1584 -0.7098
55041SOL    HW271985   1.034   8.762   3.714 -0.3762 -1.8715 -0.4761
55042SOL     OW71986   0.894   7.074   5.339 -0.0347 -0.4385 -0.0944
55042SOL    HW171987   0.806   7.110   5.328  0.1440 -0.5159 -1.9730
55042SOL    HW271988   0.952   7.148   5.325  0.2506 -0.8173 -0.9454
55043SOL     OW71989   9.520   8.073   4.434  0.1186  0.2172 -0.6312
55043SOL    HW171990   9.434   8.111   4.448  0.7139  1.0939  0.8687
55043SOL    HW271991   9.581   8.147   4.443  1.2547 -0.8987  1.5551
55044SOL     OW71992   6.090   6.136   4.580 -0.1100 -0.2929 -0.5563
55044SOL    HW171993   6.131   6.212   4.540  1.3594 -1.1803 -0.7840
55044SOL    HW271994   6.030   6.103   4.513 -0.8295  0.6746 -0.4243
55045SOL     OW71995  11.820   5.218   4.739 -0.0743  0.3624 -0.2965
55045SOL    HW171996  11.765   5.156   4.693 -2.7323  0.2924  2.6086
55045SOL    HW271997  11.864   5.166   4.806 -0.5585  1.2069  0.7074
55046SOL     OW71998   6.343   0.535   2.474  0.4103  0.9979  0.6562
55046SOL    HW171999   6.293   0.608   2.436  0.5714  0.6069 -0.3488
55046SOL    HW272000   6.338   0.466   2.408 -0.2483 -0.1428  1.8528
55047SOL     OW72001  10.723  11.351   4.736 -0.2221  0.4770 -0.2073
55047SOL    HW172002  10.656  11.337   4.803 -2.0270  1.6657 -1.6383
55047SOL    HW272003  10.737  11.265   4.698 -0.6238  0.1275  0.4157
55048SOL     OW72004   2.339   9.633   8.551 -0.1041 -0.1504 -0.0865
55048SOL    HW172005   2.254   9.623   8.594  0.7130 -0.6996  1.4649
55048SOL    HW272006   2.375   9.715   8.587  0.6624 -0.7058  0.4422
55049SOL     OW72007   0.281   9.661   9.831  0.1313 -0.6370 -0.7110
55049SOL    HW172008   0.205   9.717   9.845  0.0366 -0.8514 -0.3564
55049SOL    HW272009   0.310   9.682   9.742  1.4522  1.5912  0.1604
55050SOL     OW72010  10.553  11.610   9.957 -0.4996  0.0872  0.2557
55050SOL    HW172011  10.556  11.704   9.943 -1.0727 -0.2675 -3.4268
55050SOL    HW272012  10.639  11.588   9.994 -0.8215  2.0946  2.4122
55051SOL     OW72013  12.328  11.229   1.681 -0.7765 -0.0736  0.1661
55051SOL    HW172014  12.321  11.310   1.731  0.5128 -0.1433  0.4863
55051SOL    HW272015  12.396  11.179   1.725 -1.0647 -1.0312 -0.4442
55052SOL     OW72016   8.128   2.900   9.052  0.1565  0.5277  0.1852
55052SOL    HW172017   8.156   2.862   8.969 -0.2678 -2.3809  1.2662
55052SOL    HW272018   8.055   2.845   9.080  1.2163  0.4798  3.1637
55053SOL     OW72019  11.744  11.778   8.106 -0.5150  0.0810 -0.4915
55053SOL    HW172020  11.770  11.870   8.100  0.6243 -0.1759  0.2512
55053SOL    HW272021  11.823  11.729   8.086  0.0647 -0.7350  3.1465
55054SOL     OW72022  11.761  11.482  12.214 -0.1662  0.6065 -0.8664
55054SOL    HW172023  11.737  11.574  12.219 -0.4576  0.6057 -2.0274
55054SOL    HW272024  11.730  11.453  12.128 -0.7979 -0.7789 -0.2142
55055SOL     OW72025  12.102   3.010  11.549 -0.3739 -0.2213  0.1333
55055SOL    HW172026  12.113   3.039  11.640 -0.3065  0.3183 -0.0426
55055SOL    HW272027  12.026   2.952  11.552 -0.5650  0.0427  0.4790
55056SOL     OW72028   1.713   3.969   4.923 -0.2686  0.0398  0.1339
55056SOL    HW172029   1.624   3.935   4.912 -1.2014  1.8326  1.4753
55056SOL    HW272030   1.730   3.959   5.017 -0.3647  2.5544  0.4884
55057SOL     OW72031   7.297  11.303   0.612 -0.7990  0.6447  0.4894
55057SOL    HW172032   7.311  11.240   0.683 -0.0099 -0.4607 -0.5987
55057SOL    HW272033   7.221  11.270   0.565 -0.7920  0.8820  0.3091
55058SOL     OW72034   2.552   4.531  10.842  0.1676 -0.1341  0.1332
55058SOL    HW172035   2.575   4.483  10.763  0.3589 -1.4262  0.9391
55058SOL    HW272036   2.608   4.609  10.841  1.4766 -1.0524 -0.1021
55059SOL     OW72037   8.186   0.272   7.081 -0.2827  0.0680 -0.3036
55059SOL    HW172038   8.229   0.356   7.096 -2.5271  1.4044 -0.9137
55059SOL    HW272039   8.191   0.228   7.166  0.5442  0.9857  0.1546
55060SOL     OW72040   2.856   3.401   9.532 -0.2125 -0.6591  0.3888
55060SOL    HW172041   2.898   3.349   9.600 -1.5741 -1.3458  0.7376
55060SOL    HW272042   2.810   3.337   9.478  1.2911 -0.1983 -1.5414
55061SOL     OW72043   0.179  10.689   7.492 -0.8835  0.2852 -0.3275
55061SOL    HW172044   0.197  10.658   7.403 -0.5332 -0.0133 -0.1556
55061SOL    HW272045   0.187  10.784   7.486 -0.5231  0.2462 -0.5449
55062SOL     OW72046   8.451   3.653  10.350  0.3754  0.1515 -0.0895
55062SOL    HW172047   8.451   3.747  10.334 -0.2764  0.4848  1.5662
55062SOL    HW272048   8.377   3.620  10.299  0.4606  0.5776 -0.4950
55063SOL     OW72049   5.439   5.590  10.896 -0.1784  0.1895 -0.3575
55063SOL    HW172050   5.495   5.519  10.927 -0.0439  0.2968 -0.3581
55063SOL    HW272051   5.379   5.547  10.835  2.4085  0.6694 -3.5176
55064SOL     OW72052  12.425   4.006   2.050  0.2858 -0.2383 -0.4202
55064SOL    HW172053  12.475   4.017   2.131  1.0938  0.9254 -1.0515
55064SOL    HW272054  12.490   4.011   1.980 -0.4838 -0.6091 -1.1837
55065SOL     OW72055  12.220   2.933  11.303 -0.0224 -0.1055 -0.3292
55065SOL    HW172056  12.212   2.928  11.398 -0.2145 -1.0499 -0.3794
55065SOL    HW272057  12.242   3.024  11.285 -0.9340  0.3087  0.5501
55066SOL     OW72058   1.315   2.428   9.150 -0.2656 -0.0982  0.3603
55066SOL    HW172059   1.300   2.416   9.057 -1.4540 -3.5686  0.8598
55066SOL    HW272060   1.381   2.363   9.173 -0.9078 -0.1877  2.1329
55067SOL     OW72061   5.129   8.450   3.146 -0.1079 -0.3004  0.1364
55067SOL    HW172062   5.119   8.356   3.159  0.3118 -0.2591  0.7777
55067SOL    HW272063   5.062   8.472   3.082 -0.7105 -0.9084  0.5423
55068SOL     OW72064   1.999   5.246   7.842 -0.1782  0.1276  0.2182
55068SOL    HW172065   1.929   5.269   7.780 -1.2293  1.0269  1.6703
55068SOL    HW272066   2.070   5.306   7.819  0.7042 -1.6763 -2.1320
55069SOL     OW72067   0.694  12.280  12.364 -0.7661  0.6456  0.1721
55069SOL    HW172068   0.642  12.200  12.374 -0.1283  0.4514  2.6935
55069SOL    HW272069   0.742  12.287  12.447  1.7961  1.8225 -1.3121
55070SOL     OW72070   7.733  10.694   3.690  0.2013 -0.2399 -0.0571
55070SOL    HW172071   7.675  10.760   3.653  0.8550  0.7060  0.5426
55070SOL    HW272072   7.755  10.636   3.617  0.6719  0.9928 -0.9078
55071SOL     OW72073   3.200   1.319   9.482  0.4373 -0.0888 -0.3702
55071SOL    HW172074   3.245   1.297   9.400 -0.1722 -1.1002 -0.4527
55071SOL    HW272075   3.108   1.302   9.464  0.2455  0.1133  0.3873
55072SOL     OW72076   9.572   6.132  11.253  0.2116 -0.5925  0.1795
55072SOL    HW172077   9.538   6.209  11.298  0.3655 -0.6122  0.3351
55072SOL    HW272078   9.644   6.102  11.309  0.9028 -0.1761 -0.4666
55073SOL     OW72079  10.817   1.040   7.739  0.1774 -0.2134  0.5684
55073SOL    HW172080  10.723   1.061   7.734  0.6871  2.1778 -0.4091
55073SOL    HW272081  10.829   1.006   7.827 -1.1108  2.4176  1.8776
55074SOL     OW72082  12.124   5.654  10.099 -0.1937  0.4985  0.0172
55074SOL    HW172083  12.124   5.605  10.017  1.1054  1.8603 -0.8474
55074SOL    HW272084  12.081   5.737  10.077 -0.5274  0.5847  0.9360
55075SOL     OW72085  10.839   8.104   1.914  0.6677  0.6121  0.0475
55075SOL    HW172086  10.895   8.033   1.946  0.0295  0.4039  0.7257
55075SOL    HW272087  10.884   8.184   1.941  1.8133  0.5172 -1.4282
55076SOL     OW72088  12.157   3.318   1.857 -0.0549  0.3821  0.0100
55076SOL    HW172089  12.211   3.300   1.933  1.1810 -0.3184 -1.0038
55076SOL    HW272090  12.089   3.377   1.889  0.3996  0.0463  1.6542
55077SOL     OW72091   1.722   3.636   0.209 -0.1446  0.3722 -0.0794
55077SOL    HW172092   1.637   3.636   0.164  0.2777 -1.5028 -0.9451
55077SOL    HW272093   1.725   3.553   0.256  1.1707  0.4628  0.0379
55078SOL     OW72094  10.697   0.338  11.201 -0.0431 -0.3905 -0.1077
55078SOL    HW172095  10.657   0.348  11.115 -0.5572 -1.2550  0.0176
55078SOL    HW272096  10.672   0.249  11.229  0.4829 -0.2831  0.7368
55079SOL     OW72097   4.805   3.754   3.958  0.0331  0.5763 -0.2611
55079SOL    HW172098   4.760   3.732   3.876  0.0165  0.1742 -0.1424
55079SOL    HW272099   4.880   3.696   3.961  0.9881  1.7282 -0.8126
55080SOL     OW72100   8.976   3.211   1.164  0.3235  0.0250  0.0247
55080SOL    HW172101   8.960   3.121   1.135  0.9699 -0.8753  2.2757
55080SOL    HW272102   8.889   3.244   1.186  0.0889 -0.0412 -0.7480
55081SOL     OW72103   7.612   1.281   5.333 -0.1793  0.9800  0.2345
55081SOL    HW172104   7.522   1.274   5.301 -0.9297  0.8878  2.1937
55081SOL    HW272105   7.633   1.374   5.326 -1.0973  1.2982  1.3265
55082SOL     OW72106   4.621   8.200   2.581 -0.1034  0.0413  0.2937
55082SOL    HW172107   4.618   8.131   2.515  3.2932 -0.9719  0.9906
55082SOL    HW272108   4.532   8.205   2.615 -1.0971 -2.0030 -1.7440
55083SOL     OW72109   5.366   6.893   4.622 -0.1282 -0.6800  0.8324
55083SOL    HW172110   5.317   6.885   4.540 -0.4955  1.7882  0.7358
55083SOL    HW272111   5.457   6.880   4.597 -0.3330 -0.9552  0.2129
55084SOL     OW72112   9.108   3.616   6.765  0.3737  0.0363  0.1232
55084SOL    HW172113   9.044   3.683   6.791 -2.5364 -1.9788 -1.3256
55084SOL    HW272114   9.122   3.564   6.843  0.0563  0.3618  0.4014
55085SOL     OW72115   3.302  10.968   9.230 -0.1366 -0.3419  0.0779
55085SOL    HW172116   3.211  10.988   9.250 -0.4364 -1.9899  0.4896
55085SOL    HW272117   3.320  10.885   9.275  1.3785 -0.3772 -0.5006
55086SOL     OW72118   6.058   8.061   9.012 -0.3279 -0.2648 -0.0420
55086SOL    HW172119   5.982   8.103   8.971 -0.2596  0.5219  0.6191
55086SOL    HW272120   6.073   8.111   9.092  0.2749 -1.0428  0.3438
55087SOL     OW72121  10.966  12.476  11.814  0.2727  0.3547 -0.2735
55087SOL    HW172122  10.971  12.381  11.823 -2.2414  0.1427 -0.5285
55087SOL    HW272123  11.000  12.510  11.897  0.7048 -0.7532  0.0201
55088SOL     OW72124   0.049   3.326  12.215  0.3916 -0.2694 -0.2659
55088SOL    HW172125   0.012   3.264  12.153  0.7675 -0.5943 -0.1723
55088SOL    HW272126   0.108   3.381  12.163 -0.0158  0.0797 -0.3674
55089SOL     OW72127   7.025   5.786   5.242 -0.8572 -0.0855  0.6439
55089SOL    HW172128   7.107   5.835   5.238 -0.6440 -0.2663  2.1509
55089SOL    HW272129   7.005   5.765   5.151  0.9265 -0.3006  0.2688
55090SOL     OW72130   9.376   2.007   8.710 -0.2487  0.5090 -0.1996
55090SOL    HW172131   9.462   2.043   8.686 -0.5391  0.8139 -0.8145
55090SOL    HW272132   9.336   1.985   8.626  0.5735 -2.8739  0.1403
55091SOL     OW72133   7.262  10.215   3.973 -0.2881 -0.4685 -0.4826
55091SOL    HW172134   7.351  10.232   3.941 -0.2216  1.0979  0.4492
55091SOL    HW272135   7.205  10.250   3.905 -0.2123 -1.6763 -1.1859
55092SOL     OW72136   0.037   2.469   4.785 -0.5255  0.3314  1.0716
55092SOL    HW172137   0.079   2.550   4.812 -0.3848  0.0910  1.5925
55092SOL    HW272138   0.097   2.400   4.813  0.2545  0.0960 -0.9934
55093SOL     OW72139   6.037   2.539   3.444 -0.0553 -0.1841  0.0802
55093SOL    HW172140   6.088   2.573   3.518  0.9188 -0.7178 -0.3308
55093SOL    HW272141   6.100   2.534   3.372 -0.9641  0.2206 -0.7705
55094SOL     OW72142   4.524   8.529   9.680  0.4160 -0.0976  0.4938
55094SOL    HW172143   4.532   8.585   9.756  0.7034  0.5333  0.0107
55094SOL    HW272144   4.430   8.518   9.667  0.1724  3.0632 -1.3761
55095SOL     OW72145  11.271   1.323   7.125  0.3563 -0.0613  0.7995
55095SOL    HW172146  11.306   1.318   7.037  1.3440 -2.6051  1.2630
55095SOL    HW272147  11.284   1.236   7.162 -1.8046  0.3422  2.8056
55096SOL     OW72148   5.984   3.901  11.356  0.1018  0.2076 -0.3295
55096SOL    HW172149   5.921   3.865  11.294 -1.0926  1.2375  0.2261
55096SOL    HW272150   5.950   3.989  11.376  0.2555 -0.1920  2.0082
55097SOL     OW72151  11.966   5.811   9.904 -0.0524  0.1249 -0.7189
55097SOL    HW172152  11.890   5.856   9.941 -0.7065 -1.6741  0.2400
55097SOL    HW272153  11.959   5.826   9.810 -0.2955  1.8893 -0.4524
55098SOL     OW72154  10.510   7.432   1.946 -0.5187 -0.5777  0.2149
55098SOL    HW172155  10.601   7.423   1.974 -0.3159 -1.6145 -0.7153
55098SOL    HW272156  10.493   7.354   1.894 -2.2578 -0.8964  1.2076
55099SOL     OW72157   9.978   7.457   6.021 -0.2557 -0.2476  0.0079
55099SOL    HW172158   9.888   7.452   6.051 -0.8456  0.2235 -1.5870
55099SOL    HW272159   9.973   7.495   5.933  1.4557 -0.5676 -0.2829
55100SOL     OW72160  12.292   4.529   1.783 -0.1315 -0.4428 -0.1067
55100SOL    HW172161  12.309   4.487   1.699 -2.5789  0.4494 -1.1308
55100SOL    HW272162  12.325   4.618   1.772  0.2717 -0.5565  0.1717
55101SOL     OW72163  10.505   9.308   6.393  0.1743 -0.1667 -0.0712
55101SOL    HW172164  10.560   9.386   6.405  0.2979  0.4072 -3.2951
55101SOL    HW272165  10.428   9.341   6.347 -1.5273 -1.4660  1.6887
55102SOL     OW72166   4.239   2.212  11.196 -0.4434  0.6222  0.1799
55102SOL    HW172167   4.325   2.252  11.208  0.2298 -0.7462  0.1544
55102SOL    HW272168   4.212   2.238  11.107 -0.4922  1.8037  0.5249
55103SOL     OW72169   0.804  10.792   7.501  0.1056  0.2446  0.6849
55103SOL    HW172170   0.859  10.746   7.565  2.9718  1.0935 -0.9881
55103SOL    HW272171   0.830  10.755   7.416 -0.3729  2.1825 -0.3645
55104SOL     OW72172   8.667  10.232   3.876  0.3222 -0.2354 -0.0988
55104SOL    HW172173   8.735  10.267   3.818  0.0185  1.4939  0.5317
55104SOL    HW272174   8.599  10.199   3.816  1.1628 -0.8752 -0.7163
55105SOL     OW72175   7.936   2.470  11.299 -0.1925  0.2856  0.1985
55105SOL    HW172176   7.853   2.452  11.253  0.5582 -1.1863 -0.6427
55105SOL    HW272177   7.983   2.528  11.240  0.3096 -0.7168 -0.4084
55106SOL     OW72178   2.205   5.948   1.592 -0.9894  0.0825  0.1862
55106SOL    HW172179   2.164   6.034   1.596 -0.0720  0.6425 -1.4457
55106SOL    HW272180   2.196   5.921   1.501 -1.2850 -1.5896  0.6749
55107SOL     OW72181   7.917  10.324   3.322  0.5245  0.1139 -0.0861
55107SOL    HW172182   7.978  10.381   3.369  0.2240  1.6564 -1.4732
55107SOL    HW272183   7.961  10.304   3.240 -0.1176 -0.1988 -0.3626
55108SOL     OW72184  11.233   9.063   0.139  0.1104  0.0535 -0.0383
55108SOL    HW172185  11.301   9.115   0.098 -0.8454 -0.1290 -1.9436
55108SOL    HW272186  11.163   9.126   0.160 -0.4607 -0.2298 -1.0533
55109SOL     OW72187  11.092   8.198   1.714  0.0323  0.4210 -0.2910
55109SOL    HW172188  11.113   8.132   1.779 -2.1674  0.1492  0.2308
55109SOL    HW272189  11.029   8.155   1.656 -3.0800  2.5298  1.2500
55110SOL     OW72190   9.988   8.357   8.034  0.2214  0.1237  0.3240
55110SOL    HW172191   9.896   8.340   8.053  0.2338  0.4183  0.6633
55110SOL    HW272192   9.986   8.431   7.973  0.2270  0.0032  0.1778
55111SOL     OW72193   6.827   1.503  10.237  0.0944 -0.4054 -0.2101
55111SOL    HW172194   6.826   1.408  10.241 -1.0577 -0.3778  0.8208
55111SOL    HW272195   6.907   1.524  10.188  0.8724 -1.8660  0.3611
55112SOL     OW72196   9.649  12.275   5.285 -0.1207  0.0146  0.3633
55112SOL    HW172197   9.649  12.343   5.352 -1.2127 -0.2334  0.6370
55112SOL    HW272198   9.559  12.244   5.282  0.4769 -1.9015  0.7371
55113SOL     OW72199  10.444   8.797   5.646  0.6344  0.0182 -0.3958
55113SOL    HW172200  10.500   8.744   5.702  1.7336  0.4398 -1.0763
55113SOL    HW272201  10.479   8.885   5.653  0.0414  0.2964 -0.8197
55114SOL     OW72202   6.107   7.584   0.704  0.5483 -0.1370 -0.5791
55114SOL    HW172203   6.026   7.598   0.654  0.3236 -0.0158 -0.1862
55114SOL    HW272204   6.091   7.628   0.787  0.1861 -1.8711  0.3259
55115SOL     OW72205   9.440   3.633   9.338 -0.2901  0.0634 -0.3192
55115SOL    HW172206   9.405   3.710   9.384  1.5008  1.6553 -1.4874
55115SOL    HW272207   9.419   3.560   9.396 -1.4462  1.4862  1.1867
55116SOL     OW72208   3.905   9.205   1.473  0.1767 -0.2462 -0.1894
55116SOL    HW172209   3.989   9.214   1.518  0.8857  1.3364 -1.7169
55116SOL    HW272210   3.905   9.275   1.408 -2.7186  0.3904  0.3431
55117SOL     OW72211   7.841   0.036   7.654 -0.3833 -0.2117 -0.0220
55117SOL    HW172212   7.900  -0.040   7.658 -1.3507 -0.9445  0.7250
55117SOL    HW272213   7.766   0.011   7.708 -0.1955  1.7564  1.2399
55118SOL     OW72214   7.335   9.193   6.200 -0.0319 -0.1083  0.1509
55118SOL    HW172215   7.253   9.188   6.249  1.4117 -0.5733  2.6892
55118SOL    HW272216   7.322   9.266   6.140 -1.6308  1.0976  1.8306
55119SOL     OW72217  11.173  10.966   8.329  0.2425  0.1248 -0.2162
55119SOL    HW172218  11.204  10.991   8.416  1.6065  0.3737 -0.7438
55119SOL    HW272219  11.194  11.042   8.273 -0.0989 -0.2510 -0.8703
55120SOL     OW72220   2.994   9.955   5.232 -0.0306 -0.2680 -0.3200
55120SOL    HW172221   3.080   9.998   5.237  0.5010 -1.3638  0.6571
55120SOL    HW272222   2.998   9.903   5.152 -0.3793  0.8370 -1.0852
55121SOL     OW72223   2.218   8.756   3.508 -0.3074 -0.2069  0.4221
55121SOL    HW172224   2.252   8.830   3.458  2.4649 -1.7178 -0.1335
55121SOL    HW272225   2.201   8.792   3.595 -0.5658  1.3953 -0.2585
55122SOL     OW72226   6.440  10.788   2.392 -0.1966  0.0793 -0.3205
55122SOL    HW172227   6.452  10.737   2.473  0.4153 -2.3380 -1.8245
55122SOL    HW272228   6.528  10.803   2.360 -0.3439  2.5473  0.2586
55123SOL     OW72229   1.046   5.947   5.027 -0.4300  0.9712 -0.1513
55123SOL    HW172230   1.037   5.916   5.117  0.3896 -1.3659 -0.8054
55123SOL    HW272231   1.138   5.972   5.020  0.2395 -1.5240 -1.0519
55124SOL     OW72232   4.993  10.112   5.533 -0.1253  0.4809 -0.2473
55124SOL    HW172233   5.010  10.084   5.443  0.2366 -2.0630  0.5389
55124SOL    HW272234   5.075  10.150   5.562 -0.2140  1.2312 -0.9417
55125SOL     OW72235  10.521   1.682   8.373  0.1721  0.5192  0.0641
55125SOL    HW172236  10.473   1.752   8.417 -0.5860  0.7324 -1.0360
55125SOL    HW272237  10.565   1.726   8.300 -0.4079 -0.1508 -0.7131
55126SOL     OW72238   8.232   9.622   3.665 -0.0160  0.3475  0.0817
55126SOL    HW172239   8.284   9.632   3.745  0.0220 -1.2879  0.2959
55126SOL    HW272240   8.141   9.623   3.696 -0.1762  2.9028 -0.2589
55127SOL     OW72241   3.196   3.471  11.745 -0.5700 -0.6888 -0.3859
55127SOL    HW172242   3.110   3.459  11.705  0.0372 -1.1621 -1.6188
55127SOL    HW272243   3.229   3.552  11.705 -1.0518  0.3539  1.2542
55128SOL     OW72244   4.649   8.053   4.976  0.4270 -0.0655  0.1258
55128SOL    HW172245   4.666   8.018   5.063  2.1309 -2.3858 -1.0336
55128SOL    HW272246   4.580   7.998   4.940  2.4993 -1.8707 -1.3811
55129SOL     OW72247   8.312   4.736   5.134 -0.8230 -0.0471  0.3458
55129SOL    HW172248   8.262   4.784   5.200 -2.2788 -1.7007  0.5032
55129SOL    HW272249   8.276   4.765   5.050  0.8997  1.9088  0.1693
55130SOL     OW72250   1.442   0.925   2.892  0.5220  0.4321 -0.0117
55130SOL    HW172251   1.388   0.991   2.849  3.8024  1.4457 -3.0338
55130SOL    HW272252   1.421   0.843   2.847  1.9248  0.9857 -1.8174
55131SOL     OW72253  12.391   5.047   7.734  0.1015 -0.1889 -0.6999
55131SOL    HW172254  12.471   5.064   7.683 -0.3690  1.4941 -0.9431
55131SOL    HW272255  12.324   5.029   7.668 -0.6010  2.3883 -0.7884
55132SOL     OW72256   8.001  12.271   5.750  0.9885 -0.2609 -0.0806
55132SOL    HW172257   7.910  12.240   5.739  0.2133  2.4572 -2.3473
55132SOL    HW272258   8.052  12.218   5.689  0.5982 -0.4795 -0.2211
55133SOL     OW72259   1.449   6.051   6.793  0.0025  0.0370  0.2596
55133SOL    HW172260   1.514   5.987   6.762 -0.3385 -0.6310  0.8899
55133SOL    HW272261   1.453   6.122   6.729  0.8929 -0.2918 -0.0675
55134SOL     OW72262  10.030   7.151   9.770 -0.2751 -0.0680 -0.1068
55134SOL    HW172263  10.020   7.080   9.706 -0.9915 -0.2234  0.1658
55134SOL    HW272264   9.951   7.146   9.824  1.3697 -1.4664  2.3525
55135SOL     OW72265   4.008   5.998   2.820 -0.2885  0.4584  0.1294
55135SOL    HW172266   4.094   5.959   2.840 -0.4719 -1.3258 -2.0979
55135SOL    HW272267   3.961   5.929   2.773 -2.1965  2.1003 -0.5229
55136SOL     OW72268   6.615   7.045   7.430  0.3494 -0.3866  0.1963
55136SOL    HW172269   6.707   7.024   7.447  0.5876  0.1735 -0.3541
55136SOL    HW272270   6.566   6.970   7.465  0.9319 -0.2066  1.4489
55137SOL     OW72271   6.442   6.684   5.044 -0.1609 -0.0960  0.3481
55137SOL    HW172272   6.431   6.589   5.054 -1.0505 -0.0825 -0.3522
55137SOL    HW272273   6.508   6.693   4.976 -0.4731 -0.2203  0.0259
55138SOL     OW72274   1.525   8.055   5.493 -0.1111 -0.3120  0.0983
55138SOL    HW172275   1.545   7.992   5.423 -2.0691 -1.8547  0.8303
55138SOL    HW272276   1.578   8.026   5.566  0.2376 -0.0828 -0.0620
55139SOL     OW72277   6.315  11.195   1.496  0.1498  0.1106 -0.1078
55139SOL    HW172278   6.232  11.242   1.489 -0.3425 -0.8162 -0.6034
55139SOL    HW272279   6.381  11.264   1.494 -0.6364  1.0342  2.0672
55140SOL     OW72280   4.285   5.104   8.481  0.2496 -0.3632  0.0969
55140SOL    HW172281   4.322   5.074   8.564 -0.2722 -1.0163  0.1045
55140SOL    HW272282   4.252   5.192   8.500 -0.6275 -0.8239  0.8297
55141SOL     OW72283  11.474   9.924   7.787  0.8652  0.3421 -0.1185
55141SOL    HW172284  11.499  10.013   7.812  1.3376  0.5821 -1.3955
55141SOL    HW272285  11.420   9.893   7.860  1.3325  1.3892  0.6943
55142SOL     OW72286  11.660   7.127   3.126 -0.5081  0.6814  0.1304
55142SOL    HW172287  11.598   7.159   3.192 -0.7639 -1.3052  0.9297
55142SOL    HW272288  11.611   7.132   3.044 -1.4124  0.0755  0.6062
55143SOL     OW72289   2.666   6.474   1.389 -0.3496 -0.1251  0.3443
55143SOL    HW172290   2.604   6.540   1.358 -0.1136 -0.4684 -0.8961
55143SOL    HW272291   2.752   6.513   1.374 -0.2201  0.2265  1.7855
55144SOL     OW72292  10.212   7.789   7.738 -0.3786 -0.5240  0.6153
55144SOL    HW172293  10.187   7.756   7.824 -1.1471  1.1892  1.0815
55144SOL    HW272294  10.282   7.852   7.756 -0.3762 -0.3351 -0.0363
55145SOL     OW72295   4.233   8.750  12.413 -0.3560  0.0898 -0.7179
55145SOL    HW172296   4.314   8.733  12.364 -0.4934 -1.3784 -0.4649
55145SOL    HW272297   4.260   8.748  12.505 -0.4301  1.0591 -0.6635
55146SOL     OW72298  12.071   5.352   7.966  0.2370 -0.1119 -0.1241
55146SOL    HW172299  12.129   5.278   7.948  0.0225  0.0376 -1.5329
55146SOL    HW272300  12.000   5.344   7.902  1.3341  2.5132 -1.8583
55147SOL     OW72301   8.997   2.160   8.025 -0.6081  0.0449 -0.3381
55147SOL    HW172302   8.924   2.132   7.970  0.1444 -0.9629 -0.8448
55147SOL    HW272303   9.057   2.203   7.965 -1.1125  1.5642  0.2074
55148SOL     OW72304   7.066   0.338  12.313  0.0365  0.0430 -0.3384
55148SOL    HW172305   6.982   0.371  12.280  0.1353  0.3280 -0.3073
55148SOL    HW272306   7.070   0.369  12.403 -0.0385 -0.3728 -0.1922
55149SOL     OW72307   1.374   8.119  12.082 -0.1788 -0.0126 -0.1525
55149SOL    HW172308   1.323   8.200  12.089  1.1243  0.8768 -0.5196
55149SOL    HW272309   1.344   8.078  12.001 -0.1417  0.6219 -0.4904
55150SOL     OW72310   2.920   3.134   8.679 -0.6253  0.2744 -0.0749
55150SOL    HW172311   2.979   3.200   8.716 -2.4265  1.2312  1.1944
55150SOL    HW272312   2.947   3.052   8.722  1.4084  0.1596 -1.4210
55151SOL     OW72313   3.015  12.479   8.568 -0.3812  0.1993 -0.1062
55151SOL    HW172314   2.951  12.411   8.588 -0.1671  0.4427  1.5555
55151SOL    HW272315   2.967  12.541   8.513 -1.0771 -0.4484 -0.2460
55152SOL     OW72316  11.061   3.645   2.240 -0.0433  0.1426  0.9512
55152SOL    HW172317  11.156   3.648   2.237 -0.0103 -1.1009 -0.1326
55152SOL    HW272318  11.041   3.576   2.303 -0.2318  0.4054  1.1816
55153SOL     OW72319  11.744   6.435   4.340 -0.5596  0.0722 -0.0116
55153SOL    HW172320  11.770   6.490   4.267  1.0395  0.6957  0.9708
55153SOL    HW272321  11.693   6.364   4.301  1.3979 -0.3746 -1.9038
55154SOL     OW72322   7.660   4.390   4.609 -0.6266 -0.4086  0.7235
55154SOL    HW172323   7.681   4.453   4.540  0.7945 -2.7279 -1.0878
55154SOL    HW272324   7.729   4.401   4.674 -0.2340 -0.2954  0.2865
55155SOL     OW72325   9.427   7.093   4.991  0.0444 -0.4122 -0.1843
55155SOL    HW172326   9.352   7.097   4.932  0.6873 -2.0247 -1.1680
55155SOL    HW272327   9.491   7.152   4.952 -0.1608 -0.1434 -0.1242
55156SOL     OW72328   1.714   9.971   5.419  0.3676  0.8603 -0.4558
55156SOL    HW172329   1.800   9.943   5.386  0.1713  1.2266 -1.3092
55156SOL    HW272330   1.651   9.924   5.364 -0.0022  0.0490  0.6206
55157SOL     OW72331   1.452   6.934   2.374 -0.4132 -0.1791  0.1062
55157SOL    HW172332   1.521   6.975   2.425  0.3112 -1.4645  0.1960
55157SOL    HW272333   1.373   6.985   2.394  0.3423  0.8303  0.5919
55158SOL     OW72334   9.919   3.111   8.746  0.0667  0.8560  0.0982
55158SOL    HW172335   9.923   3.205   8.762 -1.5777  0.8806  0.5273
55158SOL    HW272336   9.914   3.103   8.650 -0.5505  1.2577  0.0915
55159SOL     OW72337   1.199   6.827   1.311 -0.3752 -0.0817  0.7485
55159SOL    HW172338   1.184   6.749   1.258 -0.7415  0.6109 -0.2152
55159SOL    HW272339   1.287   6.855   1.289 -1.5261  1.8965 -1.8971
55160SOL     OW72340  11.345   2.024   8.235  0.0896 -0.1103 -0.0001
55160SOL    HW172341  11.347   1.929   8.250  0.0259 -0.1499 -0.2346
55160SOL    HW272342  11.420   2.040   8.178  1.3611  0.2824  1.7060
55161SOL     OW72343   3.043   7.077  11.498  0.4647  0.0285  0.4529
55161SOL    HW172344   3.099   7.003  11.522 -0.6453 -1.2448 -0.7877
55161SOL    HW272345   2.969   7.072  11.557  0.0017 -0.3278 -0.1533
55162SOL     OW72346   6.439   1.524   7.113  0.4072 -0.0170  0.0409
55162SOL    HW172347   6.376   1.552   7.047  2.4709  0.7559 -1.7189
55162SOL    HW272348   6.504   1.595   7.116  2.3177 -1.6735  0.2206
55163SOL     OW72349   7.857   7.791  11.652  0.4097 -0.0266 -0.0046
55163SOL    HW172350   7.817   7.878  11.652  2.3775  0.9362  0.4372
55163SOL    HW272351   7.828   7.751  11.570 -2.3111  0.1212  0.7802
55164SOL     OW72352   2.305   2.461   9.257 -0.3959 -0.8541  0.2171
55164SOL    HW172353   2.233   2.494   9.311  0.5202 -1.2539  1.7705
55164SOL    HW272354   2.376   2.524   9.272  0.1231 -1.4082  0.0945
55165SOL     OW72355   4.196   3.861   3.644 -0.1307  0.0949 -0.7292
55165SOL    HW172356   4.113   3.837   3.685 -0.5203 -0.7405 -1.9398
55165SOL    HW272357   4.252   3.889   3.716 -1.3013  0.1966  0.1617
55166SOL     OW72358   6.345   5.399   3.403 -0.0203  0.2424 -0.2229
55166SOL    HW172359   6.320   5.376   3.313 -0.9699  1.3302 -0.2701
55166SOL    HW272360   6.440   5.413   3.398 -0.2470  1.7011 -1.4208
55167SOL     OW72361   6.851  12.280   2.821 -0.5113  0.3025  0.0598
55167SOL    HW172362   6.929  12.277   2.766 -0.2611  1.7176  0.2939
55167SOL    HW272363   6.781  12.246   2.766 -0.3575  2.1010 -1.3102
55168SOL     OW72364  10.651   3.860   5.698 -0.0774 -0.2204 -0.3231
55168SOL    HW172365  10.651   3.771   5.662  0.0156 -0.2912 -0.1524
55168SOL    HW272366  10.560   3.877   5.721 -0.0504 -0.3790 -0.0981
55169SOL     OW72367   0.358   1.296   3.446 -0.0185 -0.3300 -0.2840
55169SOL    HW172368   0.266   1.272   3.459  0.2254 -0.9447  0.4233
55169SOL    HW272369   0.384   1.337   3.529  0.0766  0.7654 -0.8448
55170SOL     OW72370  10.974   1.248   7.963 -0.0273 -0.0901 -0.2460
55170SOL    HW172371  10.905   1.282   8.020 -0.1056 -0.5092 -0.0884
55170SOL    HW272372  10.940   1.165   7.931  0.3522 -0.2350 -0.2739
55171SOL     OW72373   6.497  10.437   2.940 -0.4578  0.2210 -0.5502
55171SOL    HW172374   6.457  10.402   2.860  2.6681 -0.0263 -2.1353
55171SOL    HW272375   6.527  10.360   2.987  0.6137  0.4663 -0.8043
55172SOL     OW72376  12.017   4.308   3.083  0.2036  0.0448 -0.0996
55172SOL    HW172377  12.037   4.257   3.162 -2.5480 -0.2377  0.5470
55172SOL    HW272378  12.021   4.399   3.112  0.2843 -0.0195  0.0947
55173SOL     OW72379   7.636   2.846   6.394  0.3527 -0.6825  0.2084
55173SOL    HW172380   7.679   2.922   6.353 -0.8450 -1.1459 -2.0625
55173SOL    HW272381   7.554   2.881   6.429  0.7870 -0.5394  1.1098
55174SOL     OW72382   7.366   5.927   0.438  0.0051 -0.6150  0.8132
55174SOL    HW172383   7.288   5.914   0.384 -0.0179 -0.8657  0.9044
55174SOL    HW272384   7.387   6.020   0.429 -0.0395 -0.6391  0.4258
55175SOL     OW72385   3.093   7.745   6.651  0.1486 -0.1081  0.7203
55175SOL    HW172386   3.086   7.692   6.572 -0.0545 -1.0666  1.3622
55175SOL    HW272387   3.163   7.807   6.633  0.6625 -0.8563  0.0927
55176SOL     OW72388   4.962   1.168   1.785 -0.1237 -0.4132 -0.1523
55176SOL    HW172389   4.977   1.260   1.804 -1.5491  0.0459 -1.0838
55176SOL    HW272390   4.995   1.121   1.862 -1.2573  1.0199  1.2679
55177SOL     OW72391   4.462  10.292  12.047 -0.3428  0.2806 -0.2513
55177SOL    HW172392   4.549  10.331  12.041  0.4133 -1.4357 -1.4237
55177SOL    HW272393   4.451  10.275  12.141 -0.2971  2.3191  0.1605
55178SOL     OW72394   5.576   1.068  10.902  0.0137 -0.1012 -0.6388
55178SOL    HW172395   5.519   1.138  10.872  1.4975  1.3441 -0.2411
55178SOL    HW272396   5.653   1.073  10.844  1.5739  0.7468  1.3804
55179SOL     OW72397   6.194  10.646   3.599 -0.0583 -0.4982 -0.5956
55179SOL    HW172398   6.265  10.680   3.654 -0.6026 -2.2154  1.2729
55179SOL    HW272399   6.120  10.704   3.618  0.7359  1.2943 -2.5453
55180SOL     OW72400   3.418  10.427   0.307 -0.1879  0.4617 -0.3382
55180SOL    HW172401   3.457  10.349   0.266 -2.4600 -1.4696  0.9209
55180SOL    HW272402   3.379  10.475   0.234  1.0783  0.3474 -1.1150
55181SOL     OW72403  11.004   7.517   0.155 -0.7722 -0.8410  0.4019
55181SOL    HW172404  10.943   7.513   0.229 -1.5356  0.2258 -0.1337
55181SOL    HW272405  11.000   7.430   0.116 -1.8305 -0.8548  0.4958
55182SOL     OW72406   1.805   4.636   8.708  0.8488  0.2122 -0.4564
55182SOL    HW172407   1.772   4.549   8.730  0.5099  1.0535  2.8077
55182SOL    HW272408   1.796   4.641   8.613 -1.8177 -2.2456 -0.4861
55183SOL     OW72409   3.780   4.163  10.422  0.1052  0.5381  0.1932
55183SOL    HW172410   3.720   4.138  10.492 -1.8569  0.2354 -1.5063
55183SOL    HW272411   3.843   4.221  10.465 -1.8472  1.5458  1.9243
55184SOL     OW72412   0.355   0.409   7.889  0.0729  0.5631  0.3709
55184SOL    HW172413   0.443   0.441   7.907  0.3468  2.5747 -3.3672
55184SOL    HW272414   0.368   0.337   7.827 -0.9127 -0.0547  0.8534
55185SOL     OW72415   4.836   0.238   2.873 -0.5167  0.1637 -0.3310
55185SOL    HW172416   4.796   0.310   2.824  0.2606  0.1249 -1.0522
55185SOL    HW272417   4.765   0.175   2.885 -1.0256  0.7296 -0.3241
55186SOL     OW72418   0.941   4.342  10.336  0.2282  0.0550 -0.1506
55186SOL    HW172419   0.962   4.390  10.416 -0.1691 -0.3788  0.2227
55186SOL    HW272420   0.874   4.279  10.363  1.6083 -1.5608 -0.3321
55187SOL     OW72421   7.470  11.846  11.429 -0.8266 -0.4662  0.5493
55187SOL    HW172422   7.418  11.896  11.492 -0.3908  1.1313 -0.3164
55187SOL    HW272423   7.561  11.865  11.452 -0.6530 -0.6636  0.0518
55188SOL     OW72424   1.797  10.480   2.889 -0.3315  0.4193 -0.3620
55188SOL    HW172425   1.862  10.426   2.934 -0.8492 -0.3567 -0.5231
55188SOL    HW272426   1.810  10.459   2.796 -0.6010  0.5064 -0.4184
55189SOL     OW72427   7.218   8.366   7.945 -0.2512 -0.3279  0.4856
55189SOL    HW172428   7.275   8.434   7.980 -1.8862  1.3184  0.0841
55189SOL    HW272429   7.259   8.340   7.863 -0.1727  0.9799  0.0954
55190SOL     OW72430  12.095  10.044  10.299  0.6365 -0.1539 -0.5887
55190SOL    HW172431  12.178  10.054  10.346  0.0579  0.7212  0.2702
55190SOL    HW272432  12.032  10.096  10.349 -0.3978 -0.6515 -1.3342
55191SOL     OW72433   8.269   3.294   3.487 -0.5694 -0.1081 -0.0016
55191SOL    HW172434   8.211   3.224   3.457 -0.3556 -0.2643 -0.0535
55191SOL    HW272435   8.243   3.371   3.435 -1.8195  0.2553  1.1104
55192SOL     OW72436   2.683   7.476   0.961 -0.3565  0.2303  0.7045
55192SOL    HW172437   2.713   7.548   1.016  3.4041  0.3353 -1.1614
55192SOL    HW272438   2.742   7.477   0.886 -1.4544 -3.5387 -0.4256
55193SOL     OW72439  10.971   7.210  11.433 -0.3941 -0.1573 -0.4202
55193SOL    HW172440  11.022   7.221  11.513 -1.1356  0.4752 -0.0218
55193SOL    HW272441  10.988   7.289  11.383 -0.8755 -0.0014 -0.3423
55194SOL     OW72442   1.347   7.711   3.867 -0.1703  0.1321 -0.1778
55194SOL    HW172443   1.381   7.717   3.956  0.1188 -0.1886 -0.2658
55194SOL    HW272444   1.424   7.699   3.812 -0.1002  2.6622 -0.7550
55195SOL     OW72445  12.363   7.529  12.162 -0.4073  0.0216 -0.0961
55195SOL    HW172446  12.451   7.493  12.150  0.0021  0.8992  0.2379
55195SOL    HW272447  12.363   7.563  12.252 -0.9808  0.3141 -0.2025
55196SOL     OW72448   7.789   9.373   5.774  0.4725 -0.1197  0.1274
55196SOL    HW172449   7.782   9.451   5.830 -1.2869 -1.4842  1.9499
55196SOL    HW272450   7.805   9.409   5.687  0.0711  2.2714  0.9398
55197SOL     OW72451   2.962   8.298   0.777 -0.1948 -0.1262  0.3428
55197SOL    HW172452   2.951   8.212   0.819 -1.7400 -0.6552 -1.0417
55197SOL    HW272453   2.939   8.361   0.846 -1.0415 -0.9014  0.7900
55198SOL     OW72454  11.178   0.645   7.048 -0.2641  0.0171 -0.3344
55198SOL    HW172455  11.246   0.704   7.016 -1.2318  2.5968  1.9553
55198SOL    HW272456  11.224   0.565   7.070  2.2465  1.8508  1.6784
55199SOL     OW72457   6.549   2.815   6.082  0.1485 -0.4525 -0.1358
55199SOL    HW172458   6.490   2.888   6.105  0.1611 -0.4260 -0.1878
55199SOL    HW272459   6.507   2.738   6.121 -0.6541 -0.6509 -1.3467
55200SOL     OW72460   9.788  12.157   7.473  0.8551 -0.0487 -1.0248
55200SOL    HW172461   9.762  12.067   7.493  0.5437  0.6606  2.3694
55200SOL    HW272462   9.884  12.154   7.473  0.8983 -0.0767  1.1933
55201SOL     OW72463  12.098   6.793   2.562 -0.1914  0.4170 -1.2490
55201SOL    HW172464  12.012   6.817   2.597  0.6797  0.6133  0.8932
55201SOL    HW272465  12.078   6.738   2.486 -2.2487 -1.8029  0.7149
55202SOL     OW72466   0.474   7.288  11.487 -0.2797  0.4889  0.2637
55202SOL    HW172467   0.495   7.312  11.396  0.3238 -0.5308  0.1157
55202SOL    HW272468   0.433   7.366  11.523 -1.1363  0.6983 -1.0861
55203SOL     OW72469   5.204   5.499  10.724  0.0930  0.2312  0.3307
55203SOL    HW172470   5.235   5.414  10.693  0.9753  1.0330 -1.1279
55203SOL    HW272471   5.218   5.558  10.649 -2.2660  1.2836  0.6198
55204SOL     OW72472   6.947   4.908  12.276 -0.3558  0.1697 -0.6510
55204SOL    HW172473   7.035   4.939  12.252 -0.0251  0.3547  0.7068
55204SOL    HW272474   6.894   4.988  12.275 -0.2347  0.2570 -0.3162
55205SOL     OW72475   8.613  10.815   1.328  0.3662 -0.1837 -0.0441
55205SOL    HW172476   8.614  10.900   1.372  2.0917  0.1954 -0.7224
55205SOL    HW272477   8.690  10.817   1.270 -1.2713 -1.0190 -2.3869
55206SOL     OW72478  11.725   8.102   0.245  0.1940 -0.0048  0.0475
55206SOL    HW172479  11.764   8.024   0.283 -0.5416  0.6129  2.2216
55206SOL    HW272480  11.648   8.071   0.197 -1.1776 -0.5065  2.4415
55207SOL     OW72481   6.564  11.546   9.706  0.0113 -0.5646 -0.1176
55207SOL    HW172482   6.534  11.616   9.764  1.6493 -0.5255  0.7291
55207SOL    HW272483   6.538  11.575   9.618 -0.7938  0.2927  0.3815
55208SOL     OW72484   9.443   6.511   8.828  0.1318 -0.1015 -0.6671
55208SOL    HW172485   9.413   6.548   8.912  1.1234  1.5707 -0.9971
55208SOL    HW272486   9.368   6.521   8.770  0.2202  1.0071 -0.6145
55209SOL     OW72487  12.422   5.673   9.103  0.5379  0.2483 -0.2795
55209SOL    HW172488  12.457   5.607   9.163 -0.1812  1.8926  2.0727
55209SOL    HW272489  12.468   5.657   9.021  3.4396 -0.5365  1.3577
55210SOL     OW72490   0.863   1.987   0.429 -0.1081  0.4329 -0.2583
55210SOL    HW172491   0.775   1.956   0.452  0.3733 -0.2977  0.6487
55210SOL    HW272492   0.913   1.907   0.411  0.3081  0.8570 -1.0527
55211SOL     OW72493   6.572   2.663   7.008 -0.2296 -0.0503 -0.0322
55211SOL    HW172494   6.581   2.633   7.099  1.3888  0.4466 -0.0011
55211SOL    HW272495   6.519   2.743   7.015  0.2754  0.2487  0.5452
55212SOL     OW72496   7.996   6.968  12.053 -0.3764  0.2979 -0.0226
55212SOL    HW172497   7.997   7.041  11.991 -0.0475 -0.9640 -1.6032
55212SOL    HW272498   7.907   6.967  12.088 -0.0119  2.2526  1.0861
55213SOL     OW72499   5.949   8.108   0.480  0.0624  0.5661 -0.0005
55213SOL    HW172500   5.884   8.070   0.539 -1.8431  5.2108  1.2914
55213SOL    HW272501   5.899   8.134   0.403  1.4808 -0.3319 -1.2907
55214SOL     OW72502   6.649   8.999  10.194  0.2798  0.8935 -0.4164
55214SOL    HW172503   6.589   8.948  10.250  0.9568  1.3474  0.7687
55214SOL    HW272504   6.705   8.933  10.154  0.3880  0.6126  0.1820
55215SOL     OW72505   8.031   3.312   9.336 -0.4100 -0.0531  0.0229
55215SOL    HW172506   7.980   3.392   9.347 -1.0974 -0.5012  0.1500
55215SOL    HW272507   7.982   3.261   9.271  0.1558 -0.2614 -0.2488
55216SOL     OW72508   3.137   9.072   6.145 -0.2371 -0.4217 -0.1017
55216SOL    HW172509   3.212   9.013   6.146  0.9618  1.0127 -0.9194
55216SOL    HW272510   3.175   9.159   6.147 -1.8738  0.3602 -0.8224
55217SOL     OW72511   2.764   5.272  12.087 -0.8150  0.4706  0.0934
55217SOL    HW172512   2.838   5.214  12.072 -1.0812 -0.1977  1.1986
55217SOL    HW272513   2.703   5.219  12.139 -0.8763  1.8636  1.5369
55218SOL     OW72514   7.296   7.038  11.853  0.2765  0.0634 -0.1588
55218SOL    HW172515   7.254   6.978  11.915  0.9797 -2.5470 -2.0762
55218SOL    HW272516   7.224   7.091  11.819 -0.2310  1.0839  2.2421
55219SOL     OW72517   6.930  11.580   6.697  0.5824  0.7010  0.5010
55219SOL    HW172518   7.005  11.589   6.638  2.2209 -1.4786  2.0933
55219SOL    HW272519   6.878  11.508   6.659  0.9464  0.1681  1.0008
55220SOL     OW72520   9.501   7.663  10.454  0.1456 -0.0981  0.1509
55220SOL    HW172521   9.520   7.601  10.383  0.6254 -0.0789  0.2585
55220SOL    HW272522   9.574   7.651  10.515 -1.0140 -1.1746  1.3749
55221SOL     OW72523   4.339  10.947  11.182 -0.8693 -0.5080 -0.3985
55221SOL    HW172524   4.342  10.983  11.093 -0.9516  0.6344  0.0502
55221SOL    HW272525   4.360  11.021  11.239  1.6950 -1.7530  0.4183
55222SOL     OW72526   0.217   8.107   9.433  0.2154  0.4055  0.5765
55222SOL    HW172527   0.135   8.100   9.483  0.0560  0.6514  0.3531
55222SOL    HW272528   0.282   8.135   9.498  0.0940  0.3437  0.7265
55223SOL     OW72529   5.170  11.884  11.053  0.0991 -0.3626  0.0085
55223SOL    HW172530   5.236  11.815  11.054  2.4735  1.7764 -0.3617
55223SOL    HW272531   5.188  11.934  10.973 -1.7606  0.4911  0.0739
55224SOL     OW72532   0.950   5.723  11.346 -0.5338 -0.1154  0.0537
55224SOL    HW172533   0.922   5.673  11.423  1.5862  2.0998  2.4363
55224SOL    HW272534   1.040   5.695  11.329  0.4107  2.1253  0.9270
55225SOL     OW72535   2.820   5.878   2.597  0.1273 -0.3515  0.4840
55225SOL    HW172536   2.852   5.954   2.646 -0.5238 -0.7564  1.5692
55225SOL    HW272537   2.725   5.880   2.609 -0.1234 -0.1160 -1.2983
55226SOL     OW72538   6.842   7.405  11.163 -0.1565  0.4123 -0.3285
55226SOL    HW172539   6.830   7.332  11.101 -1.4085 -0.0721  0.4404
55226SOL    HW272540   6.767   7.398  11.222  0.3150  1.6638  0.4449
55227SOL     OW72541   0.766   4.931   3.610  0.0516  0.0467  0.2385
55227SOL    HW172542   0.687   4.975   3.577 -1.4564 -1.5131  1.5345
55227SOL    HW272543   0.768   4.953   3.703 -0.9139 -2.6800  0.9921
55228SOL     OW72544  12.169  10.032   6.495  0.1448  0.6158 -0.0136
55228SOL    HW172545  12.108   9.974   6.449  0.9691  0.1931 -0.5909
55228SOL    HW272546  12.245  10.038   6.437  1.5410 -0.5407  1.6184
55229SOL     OW72547   5.986   3.791   4.581  0.4997 -0.1126  0.3781
55229SOL    HW172548   5.928   3.820   4.652 -1.4630 -1.0268 -0.7602
55229SOL    HW272549   5.976   3.696   4.579 -0.0599 -0.0660 -1.5182
55230SOL     OW72550   7.804   8.702   1.328 -0.4529  0.4275 -0.1142
55230SOL    HW172551   7.783   8.777   1.384 -3.6717 -0.8670  0.6669
55230SOL    HW272552   7.725   8.689   1.276  1.1582 -0.6192 -2.4224
55231SOL     OW72553   7.190   0.664   8.559  0.2415 -0.1389  0.6039
55231SOL    HW172554   7.160   0.581   8.596 -0.8304 -0.2241 -0.3863
55231SOL    HW272555   7.286   0.659   8.563  0.2316 -1.8227 -0.2688
55232SOL     OW72556   9.148   9.040   4.618 -0.2552  0.1626 -0.1972
55232SOL    HW172557   9.152   9.130   4.585 -1.1079 -0.1591 -1.2277
55232SOL    HW272558   9.221   8.995   4.576 -1.1159 -0.1505 -1.4312
55233SOL     OW72559   2.965   8.769   3.545  0.2998 -0.1331  0.2130
55233SOL    HW172560   2.879   8.727   3.539 -0.7868  2.0407 -0.5376
55233SOL    HW272561   2.994   8.752   3.634  0.2849 -2.9948 -0.2239
55234SOL     OW72562   6.199  11.585   6.716  0.0771 -0.4355  0.3692
55234SOL    HW172563   6.183  11.666   6.763  1.5260 -0.7472  1.4972
55234SOL    HW272564   6.149  11.593   6.635 -0.1250  1.3990  0.6410
55235SOL     OW72565   8.049   2.222   4.193 -0.2621  0.3112 -0.7646
55235SOL    HW172566   8.011   2.168   4.125 -1.9631  1.8017 -1.0720
55235SOL    HW272567   8.135   2.246   4.159 -0.9616  0.7817 -2.2877
55236SOL     OW72568   2.891   2.126   7.693 -0.1875  0.4376  0.3100
55236SOL    HW172569   2.808   2.097   7.732 -0.3212  0.1461 -0.1822
55236SOL    HW272570   2.894   2.082   7.608 -0.9829  2.7823 -1.0218
55237SOL     OW72571   9.112   0.152  10.658  0.1550 -0.2256  0.1734
55237SOL    HW172572   9.098   0.138  10.751  1.0366  1.3114  0.5751
55237SOL    HW272573   9.204   0.129  10.644 -0.2987 -1.7273 -0.6224
55238SOL     OW72574  12.129   0.519   5.366 -0.4710  0.0095  0.2446
55238SOL    HW172575  12.062   0.462   5.404 -0.7238 -0.0160 -0.2325
55238SOL    HW272576  12.186   0.459   5.317  0.6165 -0.1379  1.6259
55239SOL     OW72577  11.810   6.873   8.892 -0.0241 -0.3010 -0.0526
55239SOL    HW172578  11.736   6.903   8.945  0.2533  0.4216 -0.0594
55239SOL    HW272579  11.773   6.809   8.831 -0.4756 -0.6007  0.5363
55240SOL     OW72580   9.831   8.314   2.578 -0.1829 -0.3457  0.3771
55240SOL    HW172581   9.924   8.329   2.560 -0.3236  0.6429  0.4288
55240SOL    HW272582   9.811   8.233   2.530  0.5502 -0.2320 -0.1522
55241SOL     OW72583   5.618   2.476   3.974 -0.8727 -0.2510  0.0504
55241SOL    HW172584   5.605   2.555   3.923  1.2318 -0.2535 -0.6125
55241SOL    HW272585   5.554   2.413   3.941 -1.1603  0.5200 -0.8758
55242SOL     OW72586  12.023   6.136  10.514  0.6353  0.4461 -0.4032
55242SOL    HW172587  12.079   6.166  10.586  0.3991 -0.7517  0.3220
55242SOL    HW272588  11.979   6.215  10.483 -0.1614  0.8563  1.5800
55243SOL     OW72589  10.216  10.150   0.179 -0.1159 -0.1463  0.4119
55243SOL    HW172590  10.172  10.229   0.211  0.7834  0.5549 -0.0415
55243SOL    HW272591  10.165  10.078   0.216 -0.1374  0.6266  1.9942
55244SOL     OW72592   2.862   4.237   8.736 -0.2811  0.3285  0.4655
55244SOL    HW172593   2.851   4.187   8.817  0.7840  0.5255  0.7402
55244SOL    HW272594   2.888   4.171   8.672 -0.7287  0.2384  0.3705
55245SOL     OW72595   2.064   4.702   7.913 -0.2594 -0.3303  0.2481
55245SOL    HW172596   2.110   4.690   7.829  0.3073 -1.0082  0.6358
55245SOL    HW272597   2.135   4.717   7.976 -0.4946 -2.1048  0.9822
55246SOL     OW72598   2.702   0.570  11.122 -0.4654  0.0227  0.0688
55246SOL    HW172599   2.684   0.567  11.216  0.4475  0.0169  0.2447
55246SOL    HW272600   2.747   0.488  11.103  0.3296  0.5088 -0.1637
55247SOL     OW72601  11.941   2.521  10.029 -0.4672 -0.0703 -0.2782
55247SOL    HW172602  11.971   2.568  10.107 -0.4712  0.0028 -0.3200
55247SOL    HW272603  12.018   2.516   9.973 -0.5045  0.0187 -0.3376
55248SOL     OW72604   2.076  11.781   2.043  0.3669 -0.0836  0.1601
55248SOL    HW172605   2.100  11.874   2.050  1.0722 -0.2174 -0.3771
55248SOL    HW272606   2.078  11.763   1.949  1.9008 -1.0591  0.3480
55249SOL     OW72607   4.033   3.384   9.917 -0.3392 -0.0932  0.0815
55249SOL    HW172608   4.070   3.319   9.975 -3.6206  0.0570  2.6255
55249SOL    HW272609   4.061   3.468   9.954 -0.3529 -0.0168 -0.0792
55250SOL     OW72610   1.437  11.707   0.207  0.3577  0.9968  0.3219
55250SOL    HW172611   1.504  11.744   0.150 -0.0470  0.2475 -0.6622
55250SOL    HW272612   1.453  11.747   0.292  1.6709  1.2853 -0.0470
55251SOL     OW72613   8.665   1.552   3.526  0.3032  0.0571 -0.3597
55251SOL    HW172614   8.679   1.646   3.518 -0.4524  0.4309  1.8876
55251SOL    HW272615   8.621   1.527   3.445 -0.0124  1.7601 -0.7457
55252SOL     OW72616   4.081   9.540   2.456  0.4811  0.0928 -0.4180
55252SOL    HW172617   4.144   9.472   2.479 -0.2630 -0.0557  1.3129
55252SOL    HW272618   4.076   9.596   2.533  0.5573  1.7396 -1.5567
55253SOL     OW72619   3.295   8.658   7.337  0.3300  0.4745  0.0757
55253SOL    HW172620   3.313   8.699   7.252 -0.3002  0.8918  0.1337
55253SOL    HW272621   3.276   8.732   7.395  1.7471  0.2734  0.8488
55254SOL     OW72622  11.297   1.496   0.178  0.3233  0.0658  0.4797
55254SOL    HW172623  11.235   1.425   0.193  1.2865 -0.7166  0.8879
55254SOL    HW272624  11.365   1.458   0.122  1.8262  0.0493  2.1996
55255SOL     OW72625  12.480   1.730  10.548 -0.1180  0.4677 -0.0881
55255SOL    HW172626  12.561   1.729  10.599 -0.7158  1.3938  0.9425
55255SOL    HW272627  12.496   1.791  10.477  0.6967 -0.7645 -1.0048
55256SOL     OW72628   9.017  10.008   1.085  0.1602  0.3139 -0.1995
55256SOL    HW172629   9.011  10.015   1.180  2.7538  1.0078  0.0063
55256SOL    HW272630   8.946  10.063   1.052  1.3329  2.9790  1.3923
55257SOL     OW72631   5.275   9.832   3.406 -0.0734 -0.2306 -0.3863
55257SOL    HW172632   5.293   9.921   3.376 -0.6125  0.2490  0.6695
55257SOL    HW272633   5.341   9.816   3.473 -0.7789 -0.1261  0.3462
55258SOL     OW72634  10.985  10.419   0.365  0.0541  0.1439  0.1536
55258SOL    HW172635  11.060  10.375   0.405 -0.7138  0.5800  2.1788
55258SOL    HW272636  10.980  10.504   0.409 -1.2489  0.3703 -0.3812
55259SOL     OW72637   3.156   3.749   0.165 -0.0683 -0.2706  0.2947
55259SOL    HW172638   3.197   3.808   0.103 -1.4825  1.3558  0.8338
55259SOL    HW272639   3.138   3.669   0.114  0.8965  0.1459 -0.7306
55260SOL     OW72640   2.002   8.251   7.914 -0.5652  0.0721 -0.2904
55260SOL    HW172641   1.910   8.261   7.938 -0.7856 -0.1328 -1.0150
55260SOL    HW272642   2.021   8.328   7.860 -0.7640 -0.6686 -1.4501
55261SOL     OW72643   7.641   9.300   5.022  0.1628  0.1586 -0.0727
55261SOL    HW172644   7.548   9.317   5.008  0.2375  0.4503 -0.2240
55261SOL    HW272645   7.660   9.337   5.108  0.7789  2.7698 -1.2076
55262SOL     OW72646  11.125   3.465   2.940 -0.5543 -0.4076  0.0800
55262SOL    HW172647  11.193   3.399   2.933 -1.4759 -1.6014  1.6411
55262SOL    HW272648  11.151   3.534   2.879  2.5769 -0.3298  1.3223
55263SOL     OW72649   3.316   6.588  12.350  0.4447  0.7931 -0.3731
55263SOL    HW172650   3.298   6.579  12.443 -0.6416 -1.9865 -0.7467
55263SOL    HW272651   3.406   6.557  12.339 -0.0787 -0.8397 -0.4193
55264SOL     OW72652   1.160  10.505   7.212 -0.5175  0.4468  0.2306
55264SOL    HW172653   1.091  10.449   7.177  0.4951 -0.5470 -0.2355
55264SOL    HW272654   1.176  10.570   7.143 -0.4057  0.1535 -0.0215
55265SOL     OW72655   1.763   4.376   3.634  0.2031 -0.5017 -0.4860
55265SOL    HW172656   1.828   4.306   3.637 -0.6235 -1.3034  2.2204
55265SOL    HW272657   1.804   4.449   3.679  0.8517  0.6496 -2.8107
55266SOL     OW72658   7.756   6.982  10.698  0.4809  0.1529 -0.2241
55266SOL    HW172659   7.818   6.973  10.770  1.0443 -1.2175 -0.8370
55266SOL    HW272660   7.706   6.900  10.699 -1.1661  1.1176  0.0868
55267SOL     OW72661   1.029   6.518   7.798  0.0113  0.0503  0.6498
55267SOL    HW172662   0.976   6.522   7.719  1.6997  0.0477 -0.5284
55267SOL    HW272663   1.021   6.605   7.837 -0.7723  0.0753  0.4373
55268SOL     OW72664   7.608   5.385   6.970 -0.1942  0.4975 -0.0559
55268SOL    HW172665   7.617   5.470   6.928  2.0167  0.2583 -0.2076
55268SOL    HW272666   7.675   5.385   7.039 -2.5439  0.2079  2.4123
55269SOL     OW72667  12.425   5.749   5.762 -0.2557  0.4483 -0.1278
55269SOL    HW172668  12.465   5.802   5.693 -1.3885  0.7616 -0.5616
55269SOL    HW272669  12.361   5.694   5.715 -0.9865  0.6138  0.6506
55270SOL     OW72670   1.556   1.730   6.337 -0.1277 -0.1380 -0.0099
55270SOL    HW172671   1.467   1.702   6.358 -0.5501 -0.5782 -2.1606
55270SOL    HW272672   1.574   1.693   6.251  1.3498  1.7100 -0.5855
55271SOL     OW72673   7.727   6.054  11.094  0.0744  0.1933  0.0593
55271SOL    HW172674   7.743   6.096  11.179  1.6186  0.4249 -0.3188
55271SOL    HW272675   7.645   6.007  11.106  0.2851  0.1830  1.7019
55272SOL     OW72676  10.579   5.502   1.293 -0.0588  0.0976  0.0558
55272SOL    HW172677  10.553   5.422   1.246  0.1982 -0.4021  0.7581
55272SOL    HW272678  10.626   5.553   1.227  1.5059 -1.2066  0.1112
55273SOL     OW72679  10.643   3.365   5.002 -0.3722  0.1534  0.1346
55273SOL    HW172680  10.553   3.395   4.995  0.1153  2.1452  1.6213
55273SOL    HW272681  10.691   3.417   4.938 -0.1667 -0.5188 -0.2716
55274SOL     OW72682  10.870   0.203  11.632 -0.1995  0.1909 -0.0575
55274SOL    HW172683  10.950   0.256  11.627  0.2478 -0.4636  0.0150
55274SOL    HW272684  10.888   0.139  11.700 -0.8564  0.1363  0.0725
55275SOL     OW72685   8.882   7.145   1.905 -0.2201  0.0022  0.3828
55275SOL    HW172686   8.810   7.094   1.868 -0.6480 -1.1940  2.6882
55275SOL    HW272687   8.959   7.119   1.855 -0.7346 -1.7069  0.4261
55276SOL     OW72688  10.334   1.557   7.016 -0.1498 -0.6797  0.1920
55276SOL    HW172689  10.327   1.635   6.961  1.3231 -1.4306 -1.1622
55276SOL    HW272690  10.245   1.540   7.046 -0.6002  1.1328 -0.0143
55277SOL     OW72691   5.883   1.713   8.631  0.3866  0.5967  0.4101
55277SOL    HW172692   5.949   1.716   8.562  0.7927 -0.2579  0.7492
55277SOL    HW272693   5.889   1.624   8.666 -1.0779  0.4464  0.3241
55278SOL     OW72694   3.716   8.333   2.624  0.2361  0.5413  0.3964
55278SOL    HW172695   3.805   8.369   2.633  0.1357  1.0209 -0.4495
55278SOL    HW272696   3.730   8.238   2.617  0.6782  0.6057  0.3301
55279SOL     OW72697  10.601   0.080  11.745 -0.3497 -0.2911  0.4039
55279SOL    HW172698  10.634  -0.010  11.736  0.5922 -0.0329  1.0967
55279SOL    HW272699  10.526   0.071  11.805 -0.5841 -0.6768  0.0612
55280SOL     OW72700   2.042   0.631   1.598 -0.4413  0.5118  0.4910
55280SOL    HW172701   2.067   0.722   1.617 -0.5436  0.4323  1.0120
55280SOL    HW272702   1.949   0.636   1.576 -0.5150  0.4962  0.7957
55281SOL     OW72703   1.898  11.050   7.440  0.3655  0.0584 -0.1197
55281SOL    HW172704   1.817  11.049   7.389 -0.0364  0.2389  0.5022
55281SOL    HW272705   1.933  11.139   7.428 -1.1048  1.0125  1.9990
55282SOL     OW72706   4.556   7.466   6.853 -0.5323  0.2315  0.3466
55282SOL    HW172707   4.538   7.391   6.909  0.6196  0.6764  1.3623
55282SOL    HW272708   4.512   7.445   6.770 -2.9278 -0.0854  1.6233
55283SOL     OW72709   1.385   5.841   5.739  0.1740  0.2307  0.8424
55283SOL    HW172710   1.460   5.800   5.696  0.3049  1.3292  0.0048
55283SOL    HW272711   1.370   5.922   5.691 -0.9625  0.4948  1.5958
55284SOL     OW72712   8.573  12.385   0.054  0.4312 -0.0010  0.1864
55284SOL    HW172713   8.632  12.356   0.124 -0.2931  1.4562  1.4663
55284SOL    HW272714   8.629  12.438  -0.003  0.9389 -0.8739 -0.1582
55285SOL     OW72715   8.252   5.381   9.673 -0.2361 -0.0868 -0.0738
55285SOL    HW172716   8.200   5.346   9.745 -0.6424  0.3754 -0.1446
55285SOL    HW272717   8.201   5.359   9.595  0.4045 -0.9624 -0.2633
55286SOL     OW72718   7.746   7.899   1.184  0.1851 -0.1566  0.2629
55286SOL    HW172719   7.731   7.902   1.089 -0.3662  1.7654  0.3794
55286SOL    HW272720   7.776   7.987   1.206 -1.1405 -0.1164  2.1001
55287SOL     OW72721   9.585   6.894   7.297 -0.4027  0.3813  0.3008
55287SOL    HW172722   9.570   6.830   7.228 -0.7528  0.0429  0.6883
55287SOL    HW272723   9.603   6.976   7.250 -0.8167  0.1975 -0.1913
55288SOL     OW72724   1.173   6.501   3.970 -0.2739  0.1665  0.1860
55288SOL    HW172725   1.110   6.462   3.909  0.0322  2.0073 -1.3829
55288SOL    HW272726   1.235   6.548   3.915  0.0160  1.9193  1.8904
55289SOL     OW72727   1.456   0.737   9.996 -0.0669  0.0475 -0.3039
55289SOL    HW172728   1.456   0.671  10.065 -0.6110  2.2529  1.9569
55289SOL    HW272729   1.510   0.808  10.031 -0.7613  1.4609 -1.9304
55290SOL     OW72730  10.689  12.306   2.759  0.5810 -0.0186 -0.0448
55290SOL    HW172731  10.780  12.314   2.788  0.3902 -0.5031  0.6922
55290SOL    HW272732  10.637  12.338   2.832  0.0084 -3.0400  1.0207
55291SOL     OW72733  11.477   3.249   6.304 -0.5089  0.0382  0.1519
55291SOL    HW172734  11.517   3.198   6.234  1.3049  1.2002  0.2720
55291SOL    HW272735  11.549   3.267   6.365 -1.8326 -0.1397  1.8506
55292SOL     OW72736   2.783   7.674   7.062  0.1413 -0.3406  0.3948
55292SOL    HW172737   2.845   7.733   7.019 -0.7361 -0.3702 -0.9761
55292SOL    HW272738   2.818   7.586   7.044 -0.4403 -0.3715 -0.6512
55293SOL     OW72739   4.835   8.902   2.912  0.0769 -0.1043  0.4213
55293SOL    HW172740   4.860   8.843   2.841 -0.0499  0.6028 -0.2253
55293SOL    HW272741   4.917   8.927   2.953  0.3747  1.2537 -0.9203
55294SOL     OW72742  11.916   4.997  11.736 -1.0221 -0.0359  0.2340
55294SOL    HW172743  11.978   4.936  11.774 -0.9081  0.3645  0.7083
55294SOL    HW272744  11.956   5.083  11.749 -1.9803  0.2899  1.1898
55295SOL     OW72745   1.930   2.359  10.642  0.0262  0.1514  0.1157
55295SOL    HW172746   1.952   2.452  10.650 -0.7191  0.2769  0.8993
55295SOL    HW272747   1.836   2.359  10.622  0.0372 -0.4376  0.0575
55296SOL     OW72748   7.971   8.996  10.644  0.8041  0.2756  0.5446
55296SOL    HW172749   7.889   9.035  10.613 -0.1760 -1.5348  0.7456
55296SOL    HW272750   7.969   9.009  10.739 -0.5150 -1.9332  0.8811
55297SOL     OW72751   5.595   9.731   0.602  0.2892 -0.2779 -1.0011
55297SOL    HW172752   5.673   9.683   0.629  0.3689 -0.2324 -1.1480
55297SOL    HW272753   5.532   9.663   0.578 -1.0762 -0.5152  2.6395
55298SOL     OW72754   0.785   5.895   6.815  0.0932  0.6231 -0.3637
55298SOL    HW172755   0.711   5.835   6.826 -0.0861  0.6984 -1.1049
55298SOL    HW272756   0.855   5.840   6.782  0.9103  0.2177  1.8618
55299SOL     OW72757   5.432   4.925   5.365  0.3863  0.0156 -0.4506
55299SOL    HW172758   5.489   4.853   5.392  1.1234  1.7712  3.4409
55299SOL    HW272759   5.346   4.903   5.403  0.7599  1.3026  1.2857
55300SOL     OW72760  12.300   5.324  11.621 -0.3569 -0.5063 -0.1213
55300SOL    HW172761  12.286   5.254  11.685 -0.2142  0.0861  0.5677
55300SOL    HW272762  12.365   5.288  11.561 -1.9805 -1.8450 -1.1524
55301SOL     OW72763   2.169   4.141   6.352  0.5574  0.0297 -0.5972
55301SOL    HW172764   2.242   4.196   6.324 -0.9476  1.6449 -1.4766
55301SOL    HW272765   2.119   4.196   6.412 -0.2437 -0.8770 -0.4193
55302SOL     OW72766   7.729   6.399   5.553 -0.0885 -0.4570 -0.2363
55302SOL    HW172767   7.668   6.411   5.626 -0.1923  0.4192 -0.4561
55302SOL    HW272768   7.682   6.430   5.476  0.1045 -1.1697 -0.6503
55303SOL     OW72769  10.156   0.959   1.756 -0.0415  0.6335 -0.0685
55303SOL    HW172770  10.075   0.983   1.711 -0.2865 -0.2066 -0.0948
55303SOL    HW272771  10.225   0.999   1.704 -0.3514  0.0541 -0.9527
55304SOL     OW72772   9.936   7.693  11.441  0.6771  0.3776  0.6441
55304SOL    HW172773   9.968   7.747  11.369  0.5330  0.1802  0.4319
55304SOL    HW272774   9.960   7.742  11.520 -1.0879  1.6755  0.4293
55305SOL     OW72775  10.998   5.448   2.653 -0.8174 -0.1255 -0.6649
55305SOL    HW172776  11.072   5.387   2.647 -1.4300 -1.0382  0.7362
55305SOL    HW272777  11.026   5.523   2.600  0.6195 -0.9375 -1.1297
55306SOL     OW72778   8.978   0.512  11.102  0.2832  0.6597  0.4508
55306SOL    HW172779   8.953   0.552  11.185 -2.4115  0.7152 -0.2898
55306SOL    HW272780   8.916   0.440  11.090 -0.0090  1.2270 -1.9061
55307SOL     OW72781   0.745  11.740  10.952  0.3288  0.1563 -0.5099
55307SOL    HW172782   0.800  11.687  10.894  0.0469  1.0477 -1.6380
55307SOL    HW272783   0.671  11.684  10.972  1.4861 -0.9600  0.8094
55308SOL     OW72784   8.022   7.791   4.759 -0.3536  0.3693  0.5178
55308SOL    HW172785   8.011   7.873   4.709 -0.6373 -0.7797 -1.4185
55308SOL    HW272786   8.113   7.793   4.789 -0.0253  0.9128 -0.4599
55309SOL     OW72787   7.948   9.811  10.786 -0.1395  0.3699 -0.1357
55309SOL    HW172788   7.960   9.723  10.749 -1.1874  0.2996 -0.3417
55309SOL    HW272789   7.895   9.797  10.864 -0.7343  0.8529 -0.4374
55310SOL     OW72790   7.968   8.114   1.914  0.1655  0.0862  0.3527
55310SOL    HW172791   8.064   8.116   1.908  0.1834 -0.6626  0.2453
55310SOL    HW272792   7.939   8.092   1.825 -0.2024  1.9800 -0.0350
55311SOL     OW72793   6.234   6.491   3.431 -0.1283  0.1061 -0.9160
55311SOL    HW172794   6.255   6.439   3.508 -0.5119 -0.6356 -1.2920
55311SOL    HW272795   6.299   6.561   3.430  0.1957 -0.1752 -0.2088
55312SOL     OW72796   8.480   0.506   7.599  0.6709 -0.0265  0.3916
55312SOL    HW172797   8.497   0.543   7.512 -0.7542 -1.9447 -0.7965
55312SOL    HW272798   8.480   0.581   7.657  0.3277  1.5241 -1.4899
55313SOL     OW72799   6.125   0.243   0.835  0.0311  0.0382  0.4158
55313SOL    HW172800   6.087   0.190   0.905  0.7867  0.0823  0.8718
55313SOL    HW272801   6.053   0.296   0.803 -0.2461  0.2697  1.4013
55314SOL     OW72802   5.079  11.284  10.918 -0.1043 -0.3019  0.0450
55314SOL    HW172803   5.042  11.196  10.927  1.7083 -1.0398  0.9645
55314SOL    HW272804   5.173  11.269  10.912  0.2492  1.5941  0.3595
55315SOL     OW72805   7.949   8.641   8.970 -0.6010 -0.0483  0.2920
55315SOL    HW172806   7.902   8.675   8.894 -1.3762  0.8866  1.1476
55315SOL    HW272807   7.936   8.546   8.966  0.3027 -0.1326 -1.3150
55316SOL     OW72808   9.037   4.618   5.304  0.2442  0.1774 -0.2505
55316SOL    HW172809   8.944   4.640   5.305  0.2178  0.1774 -1.3971
55316SOL    HW272810   9.046   4.550   5.370 -0.9525 -1.2826 -1.5245
55317SOL     OW72811  10.843   0.607   3.824 -0.3364  0.2688  0.1344
55317SOL    HW172812  10.840   0.522   3.867  0.2722  0.4375  0.5180
55317SOL    HW272813  10.922   0.605   3.770 -0.4924  0.4713 -0.1055
55318SOL     OW72814   3.139   4.053  11.487 -0.4201 -0.0543  0.4575
55318SOL    HW172815   3.054   4.050  11.441 -0.3935  0.8466  0.3326
55318SOL    HW272816   3.184   3.973  11.459 -1.4870 -0.8942  1.0478
55319SOL     OW72817   8.693   7.196   7.861  0.0402 -0.1380 -0.2977
55319SOL    HW172818   8.630   7.236   7.801  0.5997  1.3514  0.0537
55319SOL    HW272819   8.771   7.251   7.855  0.3959 -0.4195  1.1828
55320SOL     OW72820   9.503  11.179   1.663 -0.4593 -0.3332 -0.3423
55320SOL    HW172821   9.483  11.221   1.746  2.3183 -0.5828  0.5452
55320SOL    HW272822   9.488  11.086   1.679  0.6163 -0.4433  0.0902
55321SOL     OW72823  12.393   6.346   3.574  0.1817 -0.0475 -0.6533
55321SOL    HW172824  12.416   6.438   3.586  0.7712 -0.0404 -1.6731
55321SOL    HW272825  12.311   6.347   3.525 -1.0982 -0.0804  1.4037
55322SOL     OW72826   6.671  11.045   4.257  0.0037 -0.3433 -0.2876
55322SOL    HW172827   6.586  11.090   4.261  0.1118 -0.1645  0.0563
55322SOL    HW272828   6.694  11.029   4.348 -0.3167 -1.6459 -0.4192
55323SOL     OW72829   5.180   7.538  10.383  0.6132  0.6773  0.0908
55323SOL    HW172830   5.102   7.593  10.380  0.7184  0.8213 -0.0336
55323SOL    HW272831   5.147   7.449  10.371  0.4985  0.7682 -0.3025
55324SOL     OW72832   1.042   6.459   7.271  0.1372 -0.1897 -0.2499
55324SOL    HW172833   0.959   6.491   7.306  0.3522 -0.1986  0.2871
55324SOL    HW272834   1.088   6.425   7.348  0.3716 -0.7665 -0.6436
55325SOL     OW72835   2.502   3.445   7.139  0.3478 -0.0681  0.6721
55325SOL    HW172836   2.518   3.540   7.133  0.2318 -0.0337  0.9113
55325SOL    HW272837   2.414   3.434   7.103  1.3305 -0.4087 -1.8401
55326SOL     OW72838   6.079  12.098   8.773  0.0222  0.7532  0.1197
55326SOL    HW172839   6.135  12.165   8.735 -1.0912  1.3295 -0.5446
55326SOL    HW272840   5.990  12.132   8.764 -0.5037 -0.4258  0.5586
55327SOL     OW72841   8.314   5.106  11.242  0.3979 -0.6954 -0.2097
55327SOL    HW172842   8.384   5.088  11.179  1.4472  2.1055  0.0125
55327SOL    HW272843   8.237   5.123  11.188  0.3279 -1.9565 -0.5359
55328SOL     OW72844   2.734   8.334   0.072  0.0507  0.1149 -0.4748
55328SOL    HW172845   2.767   8.315   0.160  0.4619  0.2970 -0.5860
55328SOL    HW272846   2.752   8.427   0.060 -2.8193  0.9129  0.4500
55329SOL     OW72847   3.883   7.072  12.187 -0.1097 -0.4035 -1.1810
55329SOL    HW172848   3.924   7.125  12.255 -1.4799  0.0169 -0.6424
55329SOL    HW272849   3.933   7.092  12.108 -0.1413  1.1890 -0.8431
55330SOL     OW72850   7.172   4.708   4.008 -0.5376  0.4171 -0.4300
55330SOL    HW172851   7.081   4.733   4.022 -0.6617 -0.7803  1.1680
55330SOL    HW272852   7.201   4.762   3.934 -2.8481  0.0069 -1.7163
55331SOL     OW72853   6.446   1.825   1.122 -0.3104  0.6434 -0.2431
55331SOL    HW172854   6.469   1.907   1.079  0.7348  0.0437 -0.8760
55331SOL    HW272855   6.362   1.843   1.165 -0.0646  2.0494 -0.3105
55332SOL     OW72856   4.730   0.046  10.551  0.0140  0.2271  0.5201
55332SOL    HW172857   4.677   0.121  10.523 -1.1747 -0.3656  1.1023
55332SOL    HW272858   4.708   0.035  10.644  0.6587 -0.4535  0.5972
55333SOL     OW72859   6.175  10.958  12.165  0.1260 -0.8316  0.8099
55333SOL    HW172860   6.148  10.891  12.102 -0.0861 -0.2002  0.2235
55333SOL    HW272861   6.218  10.908  12.234 -0.4402 -1.6212  0.6115
55334SOL     OW72862   6.552   9.409   9.973  0.7034  0.0135 -0.0261
55334SOL    HW172863   6.577   9.348   9.904  3.0984  0.8385  0.0581
55334SOL    HW272864   6.575   9.364  10.054 -1.7358 -0.7872  0.3245
55335SOL     OW72865  10.633   5.288  10.731  0.4937  0.1107 -0.5364
55335SOL    HW172866  10.578   5.250  10.663 -0.0782  0.4964 -0.2995
55335SOL    HW272867  10.708   5.325  10.685  0.6405 -0.5716 -0.8455
55336SOL     OW72868   5.783   2.512   7.233  0.1937 -0.3214 -0.0321
55336SOL    HW172869   5.754   2.513   7.141 -1.1664 -0.6420  0.3712
55336SOL    HW272870   5.743   2.591   7.271  0.7268 -0.2060  0.2934
55337SOL     OW72871   1.143   2.986   4.648 -0.0070 -0.2825 -0.6046
55337SOL    HW172872   1.190   2.913   4.689 -4.7285 -3.3036  0.2755
55337SOL    HW272873   1.168   2.982   4.555  3.2032  0.0917  0.1160
55338SOL     OW72874   0.761   2.095  10.657 -0.1138 -0.1562  0.1457
55338SOL    HW172875   0.769   2.002  10.679  0.5414 -0.1232  0.0692
55338SOL    HW272876   0.675   2.120  10.691  0.7848 -0.1295  2.5850
55339SOL     OW72877   4.427   2.320   7.287  0.3995  0.1766  0.2195
55339SOL    HW172878   4.453   2.267   7.362  0.0562  1.0451  0.9740
55339SOL    HW272879   4.443   2.410   7.314 -0.0896  0.5322 -0.6096
55340SOL     OW72880   9.307   3.045   6.160  0.6028 -0.4417 -0.5249
55340SOL    HW172881   9.295   2.951   6.172 -1.8842 -0.2077 -0.6193
55340SOL    HW272882   9.367   3.052   6.085 -0.2730 -1.9864 -1.4292
55341SOL     OW72883   4.219   7.980   4.107  0.4823  0.2585 -0.2115
55341SOL    HW172884   4.188   7.900   4.150 -2.2055  1.5427  0.5035
55341SOL    HW272885   4.265   7.950   4.029 -2.1648 -2.0196 -1.0478
55342SOL     OW72886   1.713   7.265   6.020 -0.4400 -0.3763  0.0029
55342SOL    HW172887   1.650   7.276   5.948 -1.6106 -0.1447  1.0166
55342SOL    HW272888   1.658   7.254   6.098  0.7919 -0.4724  0.8858
55343SOL     OW72889   0.392   6.925   7.939 -0.6448  0.3327 -0.0305
55343SOL    HW172890   0.371   6.987   7.870  0.4937  2.0460  1.0810
55343SOL    HW272891   0.430   6.850   7.894 -1.3122  0.7627 -1.3501
55344SOL     OW72892   2.781   8.451   8.351  1.1214  0.6895  0.5561
55344SOL    HW172893   2.742   8.382   8.405 -0.2994  2.3988  1.8285
55344SOL    HW272894   2.754   8.430   8.262  1.6929 -1.0116  0.7555
55345SOL     OW72895   7.928  11.046   3.317  0.3438 -0.1714 -0.1107
55345SOL    HW172896   7.992  11.098   3.268  0.4156 -0.5207 -0.3906
55345SOL    HW272897   7.885  10.992   3.251 -0.8481  0.6714 -0.0576
55346SOL     OW72898   6.707   0.079  11.181  0.1887 -0.2577  0.2857
55346SOL    HW172899   6.664   0.122  11.255  0.6105  0.5091  0.0959
55346SOL    HW272900   6.763   0.012  11.221  0.2856  0.0392  0.6511
55347SOL     OW72901   9.181  12.228   8.762 -0.5642  0.2440 -0.6973
55347SOL    HW172902   9.228  12.295   8.712  1.3056 -0.1489  0.4266
55347SOL    HW272903   9.113  12.277   8.809 -0.0911  1.1399 -0.9142
55348SOL     OW72904   8.696   8.181   4.453  0.4589  0.0297 -0.4588
55348SOL    HW172905   8.778   8.187   4.501  0.3247  0.9584 -0.3314
55348SOL    HW272906   8.628   8.201   4.517  0.0421 -1.5718 -0.3533
55349SOL     OW72907   9.547   3.848   6.084 -0.0999  0.3166  0.3753
55349SOL    HW172908   9.535   3.818   5.994 -1.4937  0.5697  0.4587
55349SOL    HW272909   9.556   3.768   6.136  1.2992  0.1766 -0.0375
55350SOL     OW72910   6.783  10.982   6.362  0.6319 -0.6100  0.3418
55350SOL    HW172911   6.718  10.943   6.303  0.0516  0.7234  0.0553
55350SOL    HW272912   6.735  11.049   6.410  1.7096  0.1312  0.4209
55351SOL     OW72913   4.954   6.008   8.179 -0.5525 -0.1406 -0.1919
55351SOL    HW172914   5.006   6.081   8.212  0.1332  0.9473 -3.3322
55351SOL    HW272915   5.018   5.950   8.138 -1.2905 -1.6406  0.7202
55352SOL     OW72916   0.990   8.312   3.770 -0.0397  0.5371 -0.5079
55352SOL    HW172917   1.063   8.373   3.757 -1.1660  2.1654  0.4393
55352SOL    HW272918   0.978   8.310   3.865 -0.8098 -0.2356 -0.6128
55353SOL     OW72919   8.311   0.928  11.166 -0.4402  0.0672  0.7040
55353SOL    HW172920   8.303   0.957  11.075  1.1722  0.2648  0.6061
55353SOL    HW272921   8.387   0.870  11.167 -1.0967 -0.8387  1.7298
55354SOL     OW72922   8.320   0.998   1.313 -0.1595 -0.2541  0.5264
55354SOL    HW172923   8.251   1.055   1.277 -0.6677 -2.2415 -1.9267
55354SOL    HW272924   8.398   1.021   1.263 -0.2943 -1.4417 -0.2555
55355SOL     OW72925  10.101   2.820  12.476  0.2584  0.4801 -0.3492
55355SOL    HW172926  10.056   2.853  12.398 -0.7330 -1.4451 -0.6410
55355SOL    HW272927  10.150   2.744  12.445  0.9455  0.4934  0.6636
55356SOL     OW72928   4.410   4.508   0.796 -0.4053  0.5011  0.1160
55356SOL    HW172929   4.443   4.492   0.884 -0.8707  0.0208  0.2100
55356SOL    HW272930   4.473   4.464   0.739  0.4277  1.6311  0.1398
55357SOL     OW72931   5.615   8.424   0.533  0.4468  0.8839 -0.0105
55357SOL    HW172932   5.654   8.353   0.482 -3.9370 -2.7360  1.0095
55357SOL    HW272933   5.557   8.469   0.472 -0.4183  0.3276  0.3723
55358SOL     OW72934  11.126   7.908  10.034 -0.2890 -0.5783 -0.1155
55358SOL    HW172935  11.110   7.918   9.940  0.3936 -0.1596 -0.1899
55358SOL    HW272936  11.039   7.915  10.073 -0.3673  1.3859 -0.5430
55359SOL     OW72937   2.859   8.210   2.765  0.0091  0.3307  0.5883
55359SOL    HW172938   2.847   8.194   2.858 -0.6887 -1.7136  0.2046
55359SOL    HW272939   2.775   8.187   2.725  0.1999  1.4293 -0.5386
55360SOL     OW72940  11.588   5.136   7.007  0.4823 -0.0210  0.0768
55360SOL    HW172941  11.656   5.176   7.061  0.2750 -0.7109  0.8623
55360SOL    HW272942  11.535   5.209   6.977  1.2559  0.4780 -0.1135
55361SOL     OW72943   9.918   4.056   1.076  0.6266  0.1787  0.3356
55361SOL    HW172944  10.013   4.066   1.089  0.3447  3.3710  0.6023
55361SOL    HW272945   9.879   4.130   1.122 -1.9964 -0.6733 -0.3252
55362SOL     OW72946   4.854   0.398   8.600  0.0482  0.0281 -0.1805
55362SOL    HW172947   4.937   0.363   8.567  0.0689 -1.3368  1.2537
55362SOL    HW272948   4.859   0.492   8.581  1.0678 -0.3214 -1.8631
55363SOL     OW72949   0.496   3.542   0.536 -0.1665  0.4432 -0.1321
55363SOL    HW172950   0.530   3.536   0.447 -2.6685  0.1940 -1.1714
55363SOL    HW272951   0.501   3.635   0.558 -1.7840  0.9431 -1.5888
55364SOL     OW72952  11.019  10.232   0.125  0.6208 -0.0012 -0.1632
55364SOL    HW172953  10.980  10.178   0.194 -0.2696  0.0981 -0.5700
55364SOL    HW272954  11.046  10.312   0.169 -3.1739  1.6336 -0.4128
55365SOL     OW72955  10.622   7.960   2.674 -0.3714  0.2916  0.4612
55365SOL    HW172956  10.562   7.970   2.748 -0.8433  0.4227  0.0583
55365SOL    HW272957  10.574   7.906   2.611  0.0910  0.0473  0.3162
55366SOL     OW72958   5.461   4.092   0.746  0.1690 -0.4399  0.0400
55366SOL    HW172959   5.458   4.180   0.783  1.0364 -1.2609  2.1881
55366SOL    HW272960   5.498   4.104   0.659  2.3661  1.1095  1.0919
55367SOL     OW72961   3.503   0.770   9.387 -0.3838  0.2198  0.8883
55367SOL    HW172962   3.549   0.732   9.312 -0.6904 -0.3958  1.0036
55367SOL    HW272963   3.540   0.725   9.463 -1.1927 -0.3237  0.9803
55368SOL     OW72964  11.481   4.338   3.078  0.4383  0.6504 -0.2901
55368SOL    HW172965  11.561   4.291   3.103 -0.2929 -0.7897 -0.5295
55368SOL    HW272966  11.511   4.415   3.030  1.6612 -0.1488 -0.8388
55369SOL     OW72967   3.111   4.899   8.049  0.2720  0.5405 -0.3877
55369SOL    HW172968   3.130   4.961   7.978 -0.4379  1.2119 -0.0061
55369SOL    HW272969   3.136   4.946   8.129  0.9108 -0.1518 -0.1663
55370SOL     OW72970   4.336   5.340  11.686  0.3503 -0.3522 -0.0678
55370SOL    HW172971   4.278   5.271  11.718  1.1900 -0.5407  1.1463
55370SOL    HW272972   4.424   5.303  11.694  0.6804  0.0816 -1.4641
55371SOL     OW72973   4.540  12.327   1.324  0.2282 -0.4097  0.3980
55371SOL    HW172974   4.571  12.243   1.357 -0.0464  0.2213  2.3620
55371SOL    HW272975   4.613  12.388   1.339 -0.5797  0.2901  1.6352
55372SOL     OW72976  11.828   6.890   3.088 -0.3329 -0.5843  0.0600
55372SOL    HW172977  11.771   6.962   3.117 -1.3761 -0.9780 -0.9148
55372SOL    HW272978  11.769   6.830   3.043  0.3869 -2.4452  1.4831
55373SOL     OW72979   0.305   3.777   3.157  0.0262  0.1205 -0.3781
55373SOL    HW172980   0.384   3.828   3.175  0.7212 -0.5344 -1.4619
55373SOL    HW272981   0.269   3.818   3.078 -0.3841  0.0340 -0.2376
55374SOL     OW72982   2.395   8.839  10.187 -0.3523 -0.1590 -0.5248
55374SOL    HW172983   2.333   8.890  10.241 -0.2211  1.1317 -1.5504
55374SOL    HW272984   2.342   8.768  10.152 -0.9954  0.2726 -0.4607
55375SOL     OW72985  10.636   3.521  11.481 -0.2258  0.4255 -0.6180
55375SOL    HW172986  10.699   3.484  11.419 -0.1393  0.0592 -0.3135
55375SOL    HW272987  10.690   3.556  11.552 -0.4037 -0.9070  0.1989
55376SOL     OW72988  10.979   6.254   8.845 -0.4738  0.4147 -0.0515
55376SOL    HW172989  11.052   6.285   8.791  1.0482 -2.2128  0.3009
55376SOL    HW272990  11.021   6.206   8.917 -2.5245  1.1585  1.7439
55377SOL     OW72991   2.917   2.668   8.086  0.0382 -0.1387  0.3724
55377SOL    HW172992   2.989   2.726   8.061 -0.0575  0.4120  1.3244
55377SOL    HW272993   2.860   2.667   8.009  0.0690  0.9999  0.3125
55378SOL     OW72994   5.243   6.110   3.613  0.3964  0.1387  0.0206
55378SOL    HW172995   5.286   6.057   3.680  1.2975  0.5040 -0.2526
55378SOL    HW272996   5.151   6.088   3.621  0.7062 -1.2374  0.1275
55379SOL     OW72997   2.981   7.402   4.219  0.5231 -0.1728 -0.0872
55379SOL    HW172998   2.936   7.443   4.293  1.3721  1.0532 -0.2268
55379SOL    HW272999   3.071   7.432   4.226  0.6409 -0.1345 -1.5579
55380SOL     OW73000   7.543   0.738   0.197  0.2403 -0.2330 -0.4956
55380SOL    HW173001   7.565   0.812   0.141 -2.3931  0.6780 -0.5103
55380SOL    HW273002   7.525   0.778   0.283  0.0802 -1.0240 -0.1571
55381SOL     OW73003   7.498   6.210   2.366  0.1682 -0.5332  0.0068
55381SOL    HW173004   7.459   6.185   2.450  1.2709 -1.3006  0.3241
55381SOL    HW273005   7.593   6.205   2.382  0.4052  0.7240 -0.8832
55382SOL     OW73006   7.709   4.783   9.442 -0.0241  0.1340 -0.0124
55382SOL    HW173007   7.732   4.871   9.413 -1.8495  0.1760 -1.4578
55382SOL    HW273008   7.763   4.725   9.389  0.5101  0.3439  0.2949
55383SOL     OW73009   4.166   9.258   6.777 -0.6375 -0.1004 -0.4190
55383SOL    HW173010   4.194   9.315   6.705  0.2564 -0.3451 -0.2714
55383SOL    HW273011   4.122   9.317   6.838 -0.1994  0.3393 -0.5254
55384SOL     OW73012   3.344  10.803   3.894  0.3839  0.3346  0.1695
55384SOL    HW173013   3.312  10.870   3.954  0.6726 -0.2026  0.9338
55384SOL    HW273014   3.425  10.772   3.933  0.5171 -0.0990 -0.4408
55385SOL     OW73015   3.389  10.268   5.031  0.3454 -0.7652 -0.2863
55385SOL    HW173016   3.416  10.274   5.123 -0.5315 -0.4350 -0.0340
55385SOL    HW273017   3.403  10.177   5.007 -1.6887 -1.4614  0.9351
55386SOL     OW73018  10.767   6.374  10.224  0.1358 -0.2738  0.3691
55386SOL    HW173019  10.834   6.382  10.292 -0.1907 -0.3760  0.7087
55386SOL    HW273020  10.772   6.282  10.197  0.5990 -0.1185 -0.1013
55387SOL     OW73021   9.291   2.523  11.000  0.5461 -0.0000  0.0147
55387SOL    HW173022   9.355   2.530  11.071  1.3812 -2.7318 -0.3829
55387SOL    HW273023   9.343   2.528  10.920  0.0912 -0.7674 -0.3379
55388SOL     OW73024   8.236   2.342   5.882 -0.0602 -0.5479  0.1345
55388SOL    HW173025   8.169   2.404   5.852  1.3842  1.2956  0.5505
55388SOL    HW273026   8.222   2.337   5.977  1.1918  0.9206  0.4325
55389SOL     OW73027   0.839   6.994   6.083 -0.1588 -0.7284  0.5148
55389SOL    HW173028   0.782   6.931   6.038 -0.1284 -0.5985  0.2927
55389SOL    HW273029   0.899   7.025   6.016  1.0566 -1.8562  1.0414
55390SOL     OW73030   0.076   5.421   3.636  0.3695  0.1500  0.2735
55390SOL    HW173031   0.048   5.412   3.545  0.8792  0.9342  0.0333
55390SOL    HW273032   0.168   5.395   3.635  0.4295  0.3523  0.5257
55391SOL     OW73033  11.389   8.348   5.044  0.0562 -0.1776  0.0244
55391SOL    HW173034  11.429   8.266   5.072 -0.9616 -0.8523 -0.4259
55391SOL    HW273035  11.461   8.397   5.005  1.1584  0.1042  2.2524
55392SOL     OW73036   2.799   9.147   0.402 -0.1685 -0.0506  0.7392
55392SOL    HW173037   2.888   9.178   0.383 -0.1333 -1.0887 -0.9193
55392SOL    HW273038   2.756   9.223   0.443  1.9545 -0.0555  3.2485
55393SOL     OW73039   3.092   8.783   2.400 -0.1061 -0.1355  0.3386
55393SOL    HW173040   3.050   8.712   2.352  0.9033 -1.0765  0.8101
55393SOL    HW273041   3.125   8.843   2.333  0.8488 -1.1775 -0.1454
55394SOL     OW73042   4.951   6.027   7.753  0.6803  0.0159  0.3760
55394SOL    HW173043   4.894   6.069   7.688  0.5904 -0.5664  0.0739
55394SOL    HW273044   4.893   6.006   7.825  0.4592 -0.7888 -0.0295
55395SOL     OW73045   3.436   6.453   5.148  0.2201 -0.0164 -0.5926
55395SOL    HW173046   3.345   6.428   5.135 -0.5325  2.2142 -0.0600
55395SOL    HW273047   3.453   6.520   5.081  0.3323  2.0761  1.3961
55396SOL     OW73048   6.130   0.850   5.210 -0.2518  0.6551  0.6009
55396SOL    HW173049   6.081   0.850   5.128  0.3914 -0.3005  0.2063
55396SOL    HW273050   6.160   0.940   5.221  2.1583  0.2396 -1.7338
55397SOL     OW73051   9.833   0.301  10.990 -0.2530 -0.1732 -0.0425
55397SOL    HW173052   9.849   0.264  11.077  1.2398 -0.1352 -0.2735
55397SOL    HW273053   9.917   0.338  10.964 -0.8156  0.2769 -1.2910
55398SOL     OW73054   5.554   3.015   6.843 -0.1536  0.2474 -0.1540
55398SOL    HW173055   5.622   2.971   6.894 -0.7674 -2.2627 -1.3835
55398SOL    HW273056   5.557   3.106   6.874  4.5441  0.6335 -0.9018
55399SOL     OW73057   1.239   3.329  11.933 -0.2489  0.5016 -0.1076
55399SOL    HW173058   1.237   3.261  12.000  0.3969 -0.2270 -0.8170
55399SOL    HW273059   1.171   3.303  11.871  1.1065 -0.4277 -1.2502
55400SOL     OW73060   9.080   0.939   6.132  0.4784 -0.5315  0.4540
55400SOL    HW173061   9.080   1.033   6.112 -1.6962 -0.6324 -0.2933
55400SOL    HW273062   9.123   0.933   6.217  0.7633  1.1294  0.4598
55401SOL     OW73063   0.931   5.879  12.095 -0.0903  0.5078 -0.0697
55401SOL    HW173064   0.913   5.847  12.006  0.4329  0.0179 -0.0026
55401SOL    HW273065   0.983   5.810  12.136 -1.6844 -0.0168  1.1658
55402SOL     OW73066   1.698   3.628  11.051  0.3982  0.4841 -0.2759
55402SOL    HW173067   1.703   3.711  11.003  0.5437  0.5506 -0.1476
55402SOL    HW273068   1.713   3.561  10.984 -1.2507  0.4751 -0.6660
55403SOL     OW73069   2.049   8.225   6.921  0.2408 -0.3274 -0.0914
55403SOL    HW173070   2.029   8.192   6.833  1.7124  0.2420 -0.6706
55403SOL    HW273071   2.000   8.307   6.927 -0.6276 -0.8363  0.0111
55404SOL     OW73072   9.732  12.268   0.472  0.1748  0.2680 -0.3562
55404SOL    HW173073   9.778  12.303   0.549  0.2609 -0.3632 -0.1196
55404SOL    HW273074   9.674  12.201   0.507  0.6923 -0.4802 -0.9159
55405SOL     OW73075   2.001   6.994   8.453 -0.3427  0.0635 -0.0216
55405SOL    HW173076   2.070   7.014   8.389  0.7176 -0.7553  0.8378
55405SOL    HW273077   2.018   7.053   8.526 -0.3472 -0.3807  0.3403
55406SOL     OW73078   7.370   9.136   6.641 -0.3652 -0.2242 -0.2933
55406SOL    HW173079   7.380   9.071   6.710 -1.2636  0.5227  0.5817
55406SOL    HW273080   7.446   9.194   6.651  0.3285 -1.0016 -0.9456
55407SOL     OW73081   8.791  12.252   4.176  0.6931  0.1312  0.2789
55407SOL    HW173082   8.730  12.193   4.218  1.5239 -1.1452 -0.2345
55407SOL    HW273083   8.775  12.337   4.217 -1.6944 -0.0449 -0.1533
55408SOL     OW73084  10.838   1.071   5.634 -0.2095  0.3118  0.3898
55408SOL    HW173085  10.766   1.123   5.598 -0.9586 -1.0936 -0.1940
55408SOL    HW273086  10.882   1.034   5.558 -0.7444 -1.2872  0.8206
55409SOL     OW73087   8.805  11.490   9.927  0.1449  0.6607  0.1195
55409SOL    HW173088   8.771  11.428   9.991 -0.6231 -1.5932 -2.2815
55409SOL    HW273089   8.886  11.522   9.965 -0.5509 -0.1428  2.4142
55410SOL     OW73090  10.437   0.628  11.246  0.1825  0.4173 -0.7187
55410SOL    HW173091  10.531   0.629  11.231  0.2738  0.3836 -0.1940
55410SOL    HW273092  10.413   0.535  11.241 -0.1660  0.5877 -2.7820
55411SOL     OW73093   5.352  11.145   7.844 -0.2205 -0.3363  0.0283
55411SOL    HW173094   5.430  11.200   7.842 -0.2524 -0.1765  1.9318
55411SOL    HW273095   5.310  11.164   7.928 -1.6245 -1.3679 -0.3880
55412SOL     OW73096  11.337   4.359   0.773  0.7301 -0.1437 -0.0066
55412SOL    HW173097  11.305   4.398   0.691 -0.0419 -0.2278  0.2472
55412SOL    HW273098  11.348   4.266   0.753 -2.3876 -0.7989  0.7668
55413SOL     OW73099   1.512   4.303   0.985  0.2506  0.2629  0.2597
55413SOL    HW173100   1.521   4.212   1.011  0.2257  0.3025  0.4040
55413SOL    HW273101   1.602   4.335   0.976  0.2695 -0.0110 -0.6065
55414SOL     OW73102   1.003   2.630   4.435  0.8925 -0.3777  0.1762
55414SOL    HW173103   1.036   2.689   4.503 -0.9907  0.9889 -0.0176
55414SOL    HW273104   1.049   2.656   4.356 -1.3242  2.3724 -0.3666
55415SOL     OW73105  11.196   6.211   9.586 -0.0586  0.1106  0.1668
55415SOL    HW173106  11.157   6.191   9.501  1.0160 -0.4561 -0.2201
55415SOL    HW273107  11.172   6.137   9.642  0.4239 -0.2307 -0.0667
55416SOL     OW73108   8.022  10.456   1.767 -0.1233 -0.4025  0.0084
55416SOL    HW173109   8.027  10.458   1.671  1.0924  0.1475  0.0724
55416SOL    HW273110   7.934  10.489   1.787 -0.1953 -0.0159 -0.9015
55417SOL     OW73111   8.548   3.677   1.104 -0.3230 -0.4709 -0.0117
55417SOL    HW173112   8.582   3.684   1.193  0.3095 -0.6512 -0.2328
55417SOL    HW273113   8.614   3.625   1.058 -0.2376  0.3081 -0.7930
55418SOL     OW73114  10.118   8.560   3.617  0.5069  0.5127 -0.4055
55418SOL    HW173115  10.194   8.571   3.559  0.0075  0.5440 -1.0763
55418SOL    HW273116  10.047   8.535   3.557  0.6992 -2.7603  0.5258
55419SOL     OW73117   9.440   5.873   4.305 -0.2238 -0.3316 -0.1952
55419SOL    HW173118   9.362   5.921   4.334  1.4191  1.3765  1.7089
55419SOL    HW273119   9.484   5.934   4.245  0.5988 -0.4680  0.2527
55420SOL     OW73120   1.728   8.811   4.661 -0.0798  0.3070  0.3814
55420SOL    HW173121   1.635   8.815   4.638 -0.4633  0.5927  1.8317
55420SOL    HW273122   1.770   8.769   4.586 -1.1955  1.2114 -0.7987
55421SOL     OW73123   8.533   6.960  11.705  0.0747  0.2137 -0.3536
55421SOL    HW173124   8.544   7.050  11.734 -0.7337  0.2951 -0.2590
55421SOL    HW273125   8.486   6.967  11.622  2.5671 -0.0110 -1.8558
55422SOL     OW73126   4.826  11.916   5.820 -0.4411  0.2791  0.2456
55422SOL    HW173127   4.915  11.951   5.827  0.4121 -1.9313  1.4582
55422SOL    HW273128   4.828  11.835   5.872 -2.4521 -1.2059 -1.8188
55423SOL     OW73129   2.136  10.549   6.425 -0.3725 -0.2756 -0.2011
55423SOL    HW173130   2.210  10.550   6.486 -0.1564 -0.4681 -0.4581
55423SOL    HW273131   2.169  10.594   6.347 -0.3183 -0.9196 -0.5545
55424SOL     OW73132   4.429  11.112   1.708 -0.2758 -0.3022 -0.4606
55424SOL    HW173133   4.467  11.186   1.755 -0.1894  1.1311 -2.6294
55424SOL    HW273134   4.359  11.081   1.765  0.5575  0.5576  1.1139
55425SOL     OW73135   8.831   1.650   1.671  0.1610  0.3086 -0.1087
55425SOL    HW173136   8.780   1.724   1.705  0.0075  0.7168 -1.1528
55425SOL    HW273137   8.821   1.581   1.736 -2.4482  0.0841 -0.6558
55426SOL     OW73138   3.017   6.032   5.858 -0.2319 -0.0364 -0.5330
55426SOL    HW173139   3.022   5.937   5.849  1.1816  0.0382 -0.7665
55426SOL    HW273140   3.060   6.050   5.942  0.0065  0.4301 -0.7497
55427SOL     OW73141  11.037  11.641   1.850  0.0217 -0.1419  0.4007
55427SOL    HW173142  10.952  11.648   1.808  0.7651  0.0684 -1.1630
55427SOL    HW273143  11.067  11.553   1.827 -0.6103 -1.0127  2.6784
55428SOL     OW73144   6.388   9.434  10.331  0.2956 -0.0809 -0.1950
55428SOL    HW173145   6.408   9.342  10.348  0.0127 -0.3920 -1.4544
55428SOL    HW273146   6.329   9.459  10.402  0.7165 -0.7347  0.4019
55429SOL     OW73147  12.472   3.875   8.031  0.1957  0.1985 -0.1988
55429SOL    HW173148  12.507   3.931   7.962  2.1568 -0.0756  0.5086
55429SOL    HW273149  12.525   3.895   8.108  0.2413 -1.8191  0.3581
55430SOL     OW73150   5.960   3.544   2.092  0.6187 -0.0095  0.0647
55430SOL    HW173151   5.872   3.579   2.076  0.5652 -0.0331  0.3060
55430SOL    HW273152   5.954   3.500   2.177  0.7634 -0.3492 -0.0991
55431SOL     OW73153   1.996   6.068   8.849  0.1533  0.0190 -0.4600
55431SOL    HW173154   2.060   6.076   8.919  0.9076 -3.1597 -0.6344
55431SOL    HW273155   1.943   5.992   8.873 -0.6429 -0.1443 -2.5231
55432SOL     OW73156   0.107   7.378  10.120 -0.6285 -0.0125  0.1913
55432SOL    HW173157   0.193   7.420  10.112  0.4766 -2.1980  0.0616
55432SOL    HW273158   0.068   7.419  10.198  2.0365 -1.4092  2.4620
55433SOL     OW73159   7.389   8.703  12.396  0.3626 -0.0149 -0.4120
55433SOL    HW173160   7.402   8.641  12.325  1.8784  0.4948 -0.6176
55433SOL    HW273161   7.407   8.653  12.476  0.4284 -0.1403 -0.5061
55434SOL     OW73162   0.504   2.702  12.376 -0.1605  0.0438  0.4625
55434SOL    HW173163   0.463   2.783  12.347  0.8499  0.4254  0.0499
55434SOL    HW273164   0.597   2.722  12.378  0.1233 -1.1725  0.1510
55435SOL     OW73165   8.417   1.335   6.586 -0.1881  0.4359  0.6216
55435SOL    HW173166   8.450   1.272   6.651 -1.8790 -0.1492  0.9655
55435SOL    HW273167   8.343   1.377   6.630 -0.3575  1.1974 -0.3694
55436SOL     OW73168   7.963   7.066  12.342  0.2289  0.1065 -0.0004
55436SOL    HW173169   7.882   7.020  12.364 -0.1765  1.3639  1.2965
55436SOL    HW273170   7.934   7.138  12.285  0.3567  0.7896  0.7772
55437SOL     OW73171   0.485   3.409   9.643 -0.3942 -0.0020 -0.2652
55437SOL    HW173172   0.531   3.491   9.660  0.9529 -0.7097 -0.3993
55437SOL    HW273173   0.511   3.384   9.555 -1.5744 -0.0962 -0.6102
55438SOL     OW73174   2.811   6.367   7.045 -0.0932  0.1238 -0.0649
55438SOL    HW173175   2.893   6.321   7.063  0.6888  1.1098 -1.0044
55438SOL    HW273176   2.818   6.448   7.095 -0.1814  0.5140 -0.6723
55439SOL     OW73177   2.517   9.988  10.945  0.0628 -0.3850  0.0489
55439SOL    HW173178   2.519  10.062  11.006  1.7863 -0.5773  0.2764
55439SOL    HW273179   2.531  10.028  10.859  1.1660 -0.4261  0.1896
55440SOL     OW73180   0.186   6.467   4.350 -0.5230 -0.3153  0.0436
55440SOL    HW173181   0.278   6.490   4.337 -0.6883  1.6956  1.9328
55440SOL    HW273182   0.178   6.378   4.314  1.9893 -0.3137 -0.6852
55441SOL     OW73183   5.456   0.091   4.828  0.3011  0.0160  0.5745
55441SOL    HW173184   5.544   0.053   4.833  0.4692  0.4599  1.0193
55441SOL    HW273185   5.411   0.059   4.906  0.9381  1.9415  1.7978
55442SOL     OW73186   5.525  12.116   5.999  0.4872 -0.0028  0.2169
55442SOL    HW173187   5.442  12.147   5.962  1.6317  0.2426 -2.3794
55442SOL    HW273188   5.553  12.046   5.940  0.3891 -2.7622  3.1680
55443SOL     OW73189  10.188   9.730   4.966 -0.5153 -0.1183  0.2052
55443SOL    HW173190  10.252   9.745   4.897 -0.0897 -3.5826 -0.3448
55443SOL    HW273191  10.241   9.710   5.044 -0.8646 -1.4266  0.1385
55444SOL     OW73192   5.738  11.455   7.817 -0.0290  0.3837  0.1281
55444SOL    HW173193   5.795  11.412   7.753 -0.6560 -0.4619  0.1093
55444SOL    HW273194   5.701  11.530   7.770  0.0311  0.1558 -0.2918
55445SOL     OW73195   7.804   4.651   7.851 -0.0940  0.1227 -0.2701
55445SOL    HW173196   7.820   4.578   7.791  2.0072  0.4937 -0.2140
55445SOL    HW273197   7.740   4.705   7.804  0.6843 -0.1513 -1.7136
55446SOL     OW73198   5.857   4.002   3.181  0.2998  1.0355  0.1583
55446SOL    HW173199   5.808   4.068   3.230 -1.1211  1.0194 -1.1533
55446SOL    HW273200   5.818   4.004   3.093  1.0695 -0.6813 -0.2607
55447SOL     OW73201   0.722  10.879   8.046 -0.0998  0.0136  0.2557
55447SOL    HW173202   0.647  10.831   8.011 -0.1510 -0.3437  0.8464
55447SOL    HW273203   0.695  10.971   8.042 -0.8833 -0.1512  1.1416
55448SOL     OW73204  10.594   2.548  10.900 -0.1028 -0.0007 -0.4013
55448SOL    HW173205  10.635   2.555  10.986 -0.7039 -0.3377 -0.0816
55448SOL    HW273206  10.583   2.454  10.886  0.7115  0.0071 -1.1996
55449SOL     OW73207  11.473  11.295  12.225  0.1082  0.0856  0.2493
55449SOL    HW173208  11.504  11.219  12.176  0.5300 -0.8206  1.8537
55449SOL    HW273209  11.417  11.342  12.163  0.6829 -0.9465 -1.1100
55450SOL     OW73210   7.953   5.844   2.746 -0.0976 -0.5500  0.2379
55450SOL    HW173211   7.871   5.811   2.708 -0.1049 -1.3373  0.9085
55450SOL    HW273212   7.950   5.816   2.838 -0.5635  2.2051  1.1580
55451SOL     OW73213  12.365   5.645   4.669  0.4874 -0.4036 -0.7849
55451SOL    HW173214  12.339   5.576   4.607  1.5949 -2.1862  0.6535
55451SOL    HW273215  12.401   5.598   4.744 -1.9341  1.5970  1.8437
55452SOL     OW73216   7.209  12.222   1.438 -0.1317 -0.8704 -0.4191
55452SOL    HW173217   7.171  12.278   1.371 -0.2649 -1.5392 -0.9134
55452SOL    HW273218   7.283  12.179   1.394  1.2321  0.4087  0.5153
55453SOL     OW73219   9.540  10.513   1.746 -0.4168  0.7215  0.1090
55453SOL    HW173220   9.470  10.448   1.738  0.0136  0.0629  1.2968
55453SOL    HW273221   9.515  10.566   1.821 -0.0551  1.0086  0.0320
55454SOL     OW73222   1.149   8.829   2.822 -0.4397  0.2522  0.0266
55454SOL    HW173223   1.142   8.920   2.848  0.7854  0.3936 -0.0691
55454SOL    HW273224   1.071   8.812   2.769 -0.4712  1.3532 -0.2924
55455SOL     OW73225   8.135   2.479   6.935 -0.7249 -0.1512 -0.2649
55455SOL    HW173226   8.105   2.397   6.895  1.3828 -1.0835 -0.0458
55455SOL    HW273227   8.177   2.453   7.017 -0.9666  1.2796  0.3513
55456SOL     OW73228   6.761  10.180   8.024 -0.4749  0.5831 -0.0211
55456SOL    HW173229   6.834  10.205   7.966  0.4771  0.0512  0.9021
55456SOL    HW273230   6.717  10.109   7.977 -0.4836  0.9912 -0.6465
55457SOL     OW73231   9.914  10.837  10.617 -0.0804 -0.9003 -0.0878
55457SOL    HW173232   9.912  10.844  10.712 -1.3612  0.3612 -0.1630
55457SOL    HW273233   9.971  10.762  10.599  1.1101 -0.4506  1.6118
55458SOL     OW73234   8.989   5.065  10.456 -0.3456 -0.2141 -0.5507
55458SOL    HW173235   9.070   5.041  10.501 -0.7692  1.6667  1.3009
55458SOL    HW273236   8.996   5.159  10.442 -1.8260 -0.1802 -1.1958
55459SOL     OW73237   3.109   5.444   0.614  0.6944  0.2620  0.1590
55459SOL    HW173238   3.029   5.439   0.666  0.3959  0.4166 -0.2764
55459SOL    HW273239   3.102   5.371   0.552 -0.2594  1.6505 -1.4633
55460SOL     OW73240   2.808   0.103  10.709 -0.1480 -0.4204 -0.5727
55460SOL    HW173241   2.850   0.188  10.718 -0.5123 -0.1282 -1.5644
55460SOL    HW273242   2.718   0.118  10.739 -0.2429 -0.4294 -0.8539
55461SOL     OW73243   6.513   3.707   2.340 -0.0804  0.7857 -0.2259
55461SOL    HW173244   6.420   3.721   2.354  0.1887  0.3963  2.5298
55461SOL    HW273245   6.554   3.792   2.361  0.2573  0.7857 -0.8397
55462SOL     OW73246   9.046   3.159   7.688  0.0980 -0.6337 -0.7782
55462SOL    HW173247   9.009   3.199   7.609 -0.3131 -0.2477 -0.3920
55462SOL    HW273248   8.971   3.127   7.737  0.3826 -1.2733 -0.7509
55463SOL     OW73249   2.321  11.395   0.022  0.3919  0.0681  0.6935
55463SOL    HW173250   2.353  11.482   0.046 -1.0115  0.9942 -0.5574
55463SOL    HW273251   2.367  11.374  -0.059 -0.6880  0.5421 -0.0608
55464SOL     OW73252   7.039  11.886   2.106 -0.1075 -0.3429  0.5792
55464SOL    HW173253   7.005  11.798   2.095  0.3467 -0.6090  1.2578
55464SOL    HW273254   7.013  11.932   2.026  0.5970 -1.3904 -0.2795
55465SOL     OW73255   7.895   1.139   7.665  0.4651  0.1192  0.0578
55465SOL    HW173256   7.810   1.160   7.626  1.1440 -0.5497 -1.9193
55465SOL    HW273257   7.878   1.065   7.723 -0.5587  1.0160  0.9228
55466SOL     OW73258   3.591   9.048   5.817  1.3088 -0.8189 -0.2449
55466SOL    HW173259   3.553   9.081   5.899  1.0160  1.8864 -1.3488
55466SOL    HW273260   3.552   8.961   5.806 -0.8077 -0.1277  1.1175
55467SOL     OW73261   4.715  11.196   1.102  0.3418 -0.1742  0.4935
55467SOL    HW173262   4.744  11.223   1.015  1.2528  0.8635  1.0925
55467SOL    HW273263   4.679  11.276   1.141 -0.7505 -0.8058  0.8059
55468SOL     OW73264   2.639   7.375   2.008  0.0461  0.0207  0.2670
55468SOL    HW173265   2.659   7.401   1.918  1.5162 -1.0698  0.2190
55468SOL    HW273266   2.719   7.332   2.038  0.1695  1.7248  2.6632
55469SOL     OW73267   4.933   6.214   9.524  0.5467  0.0933  0.1696
55469SOL    HW173268   4.975   6.245   9.604  1.3672  0.3295 -0.3370
55469SOL    HW273269   4.879   6.140   9.552  2.2546 -1.0233  0.6688
55470SOL     OW73270  12.255   0.733  11.450  0.4519  0.2601 -0.4306
55470SOL    HW173271  12.170   0.724  11.494 -0.0934 -0.2334 -1.5510
55470SOL    HW273272  12.309   0.779  11.513 -0.8172  1.0985  0.1009
55471SOL     OW73273   6.840   4.080   8.834 -0.1190 -0.0575  0.3992
55471SOL    HW173274   6.906   4.130   8.882  1.0812 -1.2057 -0.0239
55471SOL    HW273275   6.761   4.134   8.840  0.4458  0.6438  2.1864
55472SOL     OW73276   9.309   3.495   4.704 -0.0545  0.5640  0.1496
55472SOL    HW173277   9.370   3.422   4.713 -0.9664 -0.0140  5.6144
55472SOL    HW273278   9.249   3.469   4.634  1.7531 -2.1853 -0.5004
55473SOL     OW73279   3.321   8.664  11.691  0.1369  0.1222 -0.3701
55473SOL    HW173280   3.300   8.725  11.762 -0.4951 -1.7016  1.1142
55473SOL    HW273281   3.237   8.633  11.659  0.3194  2.2260 -3.2634
55474SOL     OW73282   1.168   4.363   3.921  0.2076  0.0136 -0.6097
55474SOL    HW173283   1.150   4.287   3.866 -0.0580 -0.2738 -0.1261
55474SOL    HW273284   1.254   4.346   3.959  1.2570  1.0605 -2.3617
55475SOL     OW73285   0.041   1.176   4.259 -0.5282  0.5231 -0.2825
55475SOL    HW173286   0.084   1.163   4.343 -2.1299  1.2579  0.6997
55475SOL    HW273287  -0.038   1.122   4.264 -0.1559 -0.2138 -1.7323
55476SOL     OW73288   3.139  10.119   2.947 -0.2964  0.1942 -0.8326
55476SOL    HW173289   3.081  10.065   2.893 -0.9228 -0.1901  0.1855
55476SOL    HW273290   3.224  10.075   2.942 -0.9581 -1.3395  0.5474
55477SOL     OW73291   2.926   7.451   3.934 -0.3956 -0.2182  0.3623
55477SOL    HW173292   2.913   7.417   4.023  0.6918  1.7206  1.3306
55477SOL    HW273293   2.871   7.529   3.930 -0.3147 -0.2025 -0.6283
55478SOL     OW73294   1.128   2.797   1.339 -0.3810  0.4682  0.2733
55478SOL    HW173295   1.074   2.805   1.261 -0.6317  0.3606  0.4312
55478SOL    HW273296   1.173   2.714   1.329 -0.7601  0.2361  0.4512
55479SOL     OW73297   8.212   5.620   7.674 -0.1248  0.7226  0.0845
55479SOL    HW173298   8.180   5.536   7.642 -2.0120  0.9997  1.0780
55479SOL    HW273299   8.242   5.602   7.763 -0.6629  1.1037  0.3508
55480SOL     OW73300   6.786   0.485   4.545  0.1807  0.6620 -0.3157
55480SOL    HW173301   6.754   0.411   4.493  0.1747  0.2142  0.3162
55480SOL    HW273302   6.811   0.550   4.480  0.4116  0.0113 -0.8956
55481SOL     OW73303   1.184   9.624   6.957 -0.1208 -0.0290 -0.4526
55481SOL    HW173304   1.160   9.645   7.047 -1.5650 -2.3188 -0.2352
55481SOL    HW273305   1.100   9.612   6.912  0.5924 -0.9912 -1.5746
55482SOL     OW73306   5.815   5.126   1.155 -1.0520  0.6211  0.7637
55482SOL    HW173307   5.765   5.046   1.171 -0.3443  0.3824  1.8701
55482SOL    HW273308   5.749   5.195   1.150 -1.6648 -0.0009 -0.1600
55483SOL     OW73309  11.855   7.499   7.260 -0.2666 -0.5680 -0.0185
55483SOL    HW173310  11.762   7.519   7.274 -0.1214  0.3557 -0.2886
55483SOL    HW273311  11.895   7.513   7.346  0.0091  1.4715 -0.4173
55484SOL     OW73312   4.725   9.123   8.413 -0.3194 -0.2762 -0.1766
55484SOL    HW173313   4.645   9.176   8.413  0.0982  0.3698  0.8832
55484SOL    HW273314   4.698   9.039   8.450 -0.4339  0.0612  0.5167
55485SOL     OW73315   0.176   5.792   4.395  0.8476 -0.3197 -0.2307
55485SOL    HW173316   0.192   5.803   4.301  0.4434 -0.0618 -0.2696
55485SOL    HW273317   0.262   5.807   4.435  0.8922  0.1840 -0.5091
55486SOL     OW73318  10.430   1.478  11.145  0.0035  0.7873 -0.3392
55486SOL    HW173319  10.439   1.573  11.142  1.5213  0.6413 -1.5284
55486SOL    HW273320  10.507   1.445  11.099 -0.8780 -1.0079 -0.6145
55487SOL     OW73321   6.708   1.150   9.823  0.0052  0.5280  0.2141
55487SOL    HW173322   6.791   1.181   9.788  1.2849 -2.5994  0.1636
55487SOL    HW273323   6.730   1.117   9.910 -1.4375  0.6801  0.6594
55488SOL     OW73324  11.360   3.910   3.756 -0.6099 -0.3675  0.0645
55488SOL    HW173325  11.364   3.971   3.830  0.4479 -2.2982  1.6948
55488SOL    HW273326  11.291   3.849   3.781 -0.7567 -0.6102 -0.9291
55489SOL     OW73327   1.966   0.095  10.264 -0.3934 -0.1168 -0.0905
55489SOL    HW173328   2.011   0.144  10.333 -2.8098 -1.9037  2.9992
55489SOL    HW273329   1.873   0.114  10.278 -1.0040 -0.3091 -3.1555
55490SOL     OW73330   0.171   4.951  10.150  0.3890  0.4363  0.2442
55490SOL    HW173331   0.108   5.006  10.197  0.9705  1.9281 -0.6276
55490SOL    HW273332   0.238   4.932  10.216 -0.0083  0.4601  0.6627
55491SOL     OW73333   2.213   7.748   1.656  0.2909  0.4262  0.1388
55491SOL    HW173334   2.120   7.754   1.635  0.5055  0.4782 -0.8728
55491SOL    HW273335   2.238   7.661   1.624  0.6710  0.5789  0.0156
55492SOL     OW73336  10.149   2.954   9.628 -0.0832  0.4063 -0.3772
55492SOL    HW173337  10.194   2.931   9.546 -0.0223  2.3633 -0.9514
55492SOL    HW273338  10.063   2.986   9.601 -0.7204 -0.5368  0.4786
55493SOL     OW73339   9.218   1.119   4.413  0.1733  0.1357 -0.0951
55493SOL    HW173340   9.150   1.102   4.479 -0.3335  1.2667 -0.3079
55493SOL    HW273341   9.249   1.207   4.432  1.9728 -0.5353  0.3094
55494SOL     OW73342   5.010   4.269   2.120 -0.0100 -0.5294  0.2821
55494SOL    HW173343   5.033   4.200   2.057  1.0945  0.2541 -0.2011
55494SOL    HW273344   4.970   4.222   2.193  0.4444 -1.6620 -0.1694
55495SOL     OW73345   5.327  11.168  10.608 -0.4835 -0.2241  0.5810
55495SOL    HW173346   5.415  11.173  10.571 -0.5691 -0.2312  0.3715
55495SOL    HW273347   5.269  11.167  10.531 -0.6166 -1.2442  0.6793
55496SOL     OW73348   5.670   4.039   1.403 -0.4077 -0.2912  0.1876
55496SOL    HW173349   5.606   4.087   1.351  0.1114 -1.0794 -1.2339
55496SOL    HW273350   5.698   3.967   1.346  0.6135 -0.8519  1.3548
55497SOL     OW73351   5.354   3.810   5.014  0.3170 -0.1425  0.4295
55497SOL    HW173352   5.343   3.854   4.931  1.2221 -1.8487 -0.6544
55497SOL    HW273353   5.420   3.861   5.061 -1.0100  1.4633  0.6037
55498SOL     OW73354   4.748   9.084   0.184  0.2073  0.0470 -0.0251
55498SOL    HW173355   4.763   9.149   0.115  0.3214 -0.1013 -0.1408
55498SOL    HW273356   4.685   9.126   0.243  0.2936  0.2718 -0.0886
55499SOL     OW73357   1.404   3.970  11.365  0.1274  0.5999 -0.1570
55499SOL    HW173358   1.393   3.915  11.287  2.3363 -1.1924  0.6536
55499SOL    HW273359   1.484   3.937  11.406  1.0848  3.8777  0.9377
55500SOL     OW73360  12.440   5.026  10.770 -0.2408 -0.5014 -0.1872
55500SOL    HW173361  12.385   5.096  10.806 -0.6349 -0.1945 -1.3315
55500SOL    HW273362  12.412   4.947  10.816  0.2143  0.0851  1.1319
55501SOL     OW73363   7.082   6.384  11.430 -0.8387 -0.0926  0.5579
55501SOL    HW173364   7.144   6.368  11.502 -1.0263 -2.5094  0.2748
55501SOL    HW273365   7.132   6.432  11.365  0.6385 -1.5423  0.5547
55502SOL     OW73366  11.450  10.164   4.332  0.0065  0.2904  0.1762
55502SOL    HW173367  11.447  10.083   4.383 -0.7262  0.8123  0.9992
55502SOL    HW273368  11.414  10.139   4.246  1.0969 -0.5575 -0.0555
55503SOL     OW73369   4.024   6.158   1.154 -0.4023  0.1656  0.0482
55503SOL    HW173370   3.994   6.172   1.064 -1.0341  1.4818  0.4379
55503SOL    HW273371   3.964   6.210   1.208  1.7143  1.8218  0.9770
55504SOL     OW73372   9.692   3.899   7.307  0.5769  0.5067  0.0432
55504SOL    HW173373   9.632   3.872   7.376 -0.8440 -1.4413 -1.8248
55504SOL    HW273374   9.761   3.833   7.307 -0.3701 -0.5546 -1.4517
55505SOL     OW73375   8.695  11.689   3.506 -0.2857 -0.1606  0.1955
55505SOL    HW173376   8.610  11.653   3.532 -0.8452  1.9640  1.6216
55505SOL    HW273377   8.685  11.783   3.517  1.2591  0.4518 -2.7962
55506SOL     OW73378   9.597   2.393   9.695 -0.7462 -0.7070 -0.4160
55506SOL    HW173379   9.545   2.451   9.751  0.3305 -0.8483  0.7897
55506SOL    HW273380   9.661   2.355   9.754 -0.0353 -1.4454 -1.6283
55507SOL     OW73381   1.432  11.508   8.326  0.2451 -0.0546 -0.3465
55507SOL    HW173382   1.425  11.447   8.399 -0.3117 -0.7658 -0.9743
55507SOL    HW273383   1.355  11.491   8.273 -0.6803  2.1707  0.1664
55508SOL     OW73384   5.834   9.169   5.660  0.3815  0.1906  0.3183
55508SOL    HW173385   5.745   9.195   5.639  0.6101 -0.5490 -1.9445
55508SOL    HW273386   5.887   9.246   5.639  0.3914  0.1883  0.3353
55509SOL     OW73387   8.705   3.981   5.467  0.0048  0.2039  0.2004
55509SOL    HW173388   8.676   3.906   5.415  0.7472 -0.9669  1.4091
55509SOL    HW273389   8.633   3.997   5.528  0.2957 -0.2319  0.6611
55510SOL     OW73390  10.319   6.555   1.033 -0.3166  0.5598  0.5519
55510SOL    HW173391  10.368   6.589   0.958  1.5037 -1.9438  0.4577
55510SOL    HW273392  10.235   6.528   0.996  0.3844 -0.2291 -0.5516
55511SOL     OW73393   9.781  11.347  11.271  0.1945  0.5172 -0.5777
55511SOL    HW173394   9.729  11.316  11.196  0.2727 -0.0302 -0.4089
55511SOL    HW273395   9.715  11.376  11.334 -0.1185 -2.7301  0.7903
55512SOL     OW73396  11.771   0.794   8.957  0.8367  0.1748 -0.4617
55512SOL    HW173397  11.715   0.830   9.025 -1.0063 -2.3721 -0.4547
55512SOL    HW273398  11.839   0.746   9.004  0.6495 -0.0511 -0.4195
55513SOL     OW73399   8.802   3.976   0.919  0.4716 -0.1729 -0.3235
55513SOL    HW173400   8.708   3.967   0.934  0.1679  2.7874  0.2853
55513SOL    HW273401   8.833   4.028   0.993  2.6242 -1.0663 -0.5213
55514SOL     OW73402   6.690   8.289  10.723 -0.1400 -0.3441 -0.4879
55514SOL    HW173403   6.737   8.235  10.659 -0.4981 -1.3428  0.0777
55514SOL    HW273404   6.663   8.228  10.791 -1.1410  0.4401 -0.1589
55515SOL     OW73405  12.290   0.091  10.674  0.4027 -0.4188 -0.1367
55515SOL    HW173406  12.253   0.035  10.743 -1.3875  0.1903 -0.5387
55515SOL    HW273407  12.338   0.030  10.618  1.5795 -0.9802  1.4026
55516SOL     OW73408   8.786   8.714   0.789 -0.5952 -0.1050 -0.1137
55516SOL    HW173409   8.718   8.725   0.722 -1.7702  1.3004  1.2281
55516SOL    HW273410   8.868   8.735   0.743 -1.3838  0.9339 -1.1008
55517SOL     OW73411   6.289   6.784   0.401  0.0853 -0.1978  0.0864
55517SOL    HW173412   6.374   6.755   0.370  1.7827  2.5947  1.6818
55517SOL    HW273413   6.281   6.746   0.488 -0.0156  0.0200  0.1731
55518SOL     OW73414   6.969   5.790   6.531 -0.5881  0.4835 -0.7181
55518SOL    HW173415   6.992   5.868   6.480 -0.0578  0.0889 -1.0859
55518SOL    HW273416   6.985   5.717   6.471  0.7545 -0.0445  0.2471
55519SOL     OW73417   8.916   0.781   1.459 -0.3116  0.5653  0.4947
55519SOL    HW173418   8.976   0.777   1.385 -2.9937  1.8706 -1.9592
55519SOL    HW273419   8.935   0.865   1.501  1.7307 -0.5070  1.9248
55520SOL     OW73420   7.972   7.235   2.085  0.4749  0.1322 -0.3181
55520SOL    HW173421   8.023   7.171   2.135 -0.7991  0.3678  1.3774
55520SOL    HW273422   8.035   7.271   2.022  1.6929 -1.4502 -0.0744
55521SOL     OW73423  12.287  11.298   7.666 -0.4340 -0.4146 -0.0664
55521SOL    HW173424  12.303  11.271   7.576 -0.5706  0.5173 -0.3721
55521SOL    HW273425  12.302  11.392   7.667 -0.0514 -0.4726  0.9765
55522SOL     OW73426   6.196  10.183   2.372  0.4677 -0.0567  0.5868
55522SOL    HW173427   6.160  10.214   2.455 -0.3049 -2.3571  1.2038
55522SOL    HW273428   6.253  10.253   2.342 -1.7500  2.2461  1.3857
55523SOL     OW73429   9.259  11.248   6.118 -0.4163  0.1918  0.1509
55523SOL    HW173430   9.166  11.234   6.136 -0.4146 -0.2347 -0.1561
55523SOL    HW273431   9.261  11.277   6.027 -0.2899  0.7403  0.3220
55524SOL     OW73432   4.997   9.417   3.329  0.4990 -0.3382 -0.0313
55524SOL    HW173433   5.052   9.472   3.273  1.7012 -0.3250  1.1205
55524SOL    HW273434   4.991   9.465   3.411 -1.8767 -0.0008 -0.3494
55525SOL     OW73435   1.383  12.223   2.733 -0.4100  0.5026  0.2947
55525SOL    HW173436   1.311  12.161   2.745 -0.2221  0.1666 -0.2620
55525SOL    HW273437   1.398  12.260   2.820 -2.2776  1.7123  0.1641
55526SOL     OW73438   0.056   9.492   9.643  0.0055 -0.3881 -0.9469
55526SOL    HW173439  -0.010   9.435   9.682  1.3101 -1.2043  0.2009
55526SOL    HW273440   0.022   9.580   9.654 -0.1459 -0.6459  1.2765
55527SOL     OW73441   0.332   4.292   3.605  0.2250 -0.1707  0.3953
55527SOL    HW173442   0.261   4.270   3.545  0.9029 -0.7146 -0.2180
55527SOL    HW273443   0.376   4.367   3.565  0.0957  0.0707  0.6989
55528SOL     OW73444   0.234   3.428  12.056 -0.1158  0.0105 -0.4774
55528SOL    HW173445   0.273   3.341  12.043  1.6106  0.7789 -0.7833
55528SOL    HW273446   0.310   3.486  12.063 -1.2438  1.4811 -0.1887
55529SOL     OW73447   6.070   8.340   4.506  0.1772  0.0462 -0.0148
55529SOL    HW173448   6.042   8.428   4.481 -1.1321 -0.9233 -2.3206
55529SOL    HW273449   6.165   8.347   4.515  0.0600  1.7627  0.2837
55530SOL     OW73450  11.383   6.160   9.251 -0.1603  0.2414 -0.1996
55530SOL    HW173451  11.387   6.079   9.200  1.2620  1.4958 -2.2435
55530SOL    HW273452  11.290   6.169   9.274 -0.5945 -1.2177 -1.2043
55531SOL     OW73453   9.014  11.558   7.644  0.1647 -0.4124 -0.1879
55531SOL    HW173454   8.972  11.643   7.659  0.1936 -0.3697 -0.3490
55531SOL    HW273455   8.974  11.500   7.709  1.1203  0.0381  0.8432
55532SOL     OW73456   5.191   4.611   1.487 -0.4390  0.1628  0.0448
55532SOL    HW173457   5.245   4.675   1.533  0.3925 -1.5706  1.6102
55532SOL    HW273458   5.101   4.642   1.499 -0.0953  0.7050  1.3317
55533SOL     OW73459   0.492  10.296   1.528  0.5179  0.0490  0.4167
55533SOL    HW173460   0.560  10.254   1.580  0.1691  0.1017  0.9178
55533SOL    HW273461   0.525  10.385   1.513  2.4594 -1.0186 -2.7739
55534SOL     OW73462   1.669   7.629   0.491 -0.2512 -0.6550 -0.3654
55534SOL    HW173463   1.577   7.602   0.485 -1.7561  3.2642  1.7457
55534SOL    HW273464   1.681   7.687   0.416  0.8112 -1.7258 -1.0530
55535SOL     OW73465   3.757  10.243  11.815 -0.2243 -0.2125  0.3956
55535SOL    HW173466   3.833  10.280  11.771  1.0014 -1.8166  1.0247
55535SOL    HW273467   3.710  10.194  11.747  1.0819 -1.8110  0.5689
55536SOL     OW73468   1.715   9.221   1.414  0.1021  0.2774  0.1027
55536SOL    HW173469   1.693   9.146   1.360 -0.1700  1.0953 -0.9694
55536SOL    HW273470   1.774   9.187   1.481 -2.2211 -1.4424  1.4054
55537SOL     OW73471   7.818  10.652   6.338 -0.1168  0.4087  0.2448
55537SOL    HW173472   7.864  10.637   6.420 -1.5291  1.3327  1.2672
55537SOL    HW273473   7.832  10.572   6.287 -0.1631 -0.6941  1.8729
55538SOL     OW73474   2.053  10.862  11.736 -0.1217  0.2300 -0.3076
55538SOL    HW173475   2.076  10.865  11.828  1.8330 -0.0521 -0.7295
55538SOL    HW273476   1.959  10.879  11.733 -0.0598  1.1027  1.6472
55539SOL     OW73477   7.606   9.154   4.631  0.1198 -0.4746  0.3869
55539SOL    HW173478   7.622   9.070   4.588 -0.7828 -0.8571  0.7684
55539SOL    HW273479   7.673   9.159   4.700  1.3993  0.0193 -0.8398
55540SOL     OW73480  10.682   8.729   4.959  0.1242  0.5521  0.2935
55540SOL    HW173481  10.651   8.754   5.046 -1.5796  0.7144 -0.3082
55540SOL    HW273482  10.603   8.731   4.905  1.3446  1.7192 -1.5489
55541SOL     OW73483   5.494   9.059   3.715  0.3743  0.5951  0.1898
55541SOL    HW173484   5.582   9.030   3.691  0.6316  0.5119  1.1969
55541SOL    HW273485   5.446   8.978   3.732 -0.4090  0.5448 -1.9719
55542SOL     OW73486   1.212  10.473   1.901  0.1614 -1.0039 -0.2729
55542SOL    HW173487   1.245  10.384   1.889  0.7839 -0.8151  0.0054
55542SOL    HW273488   1.191  10.479   1.994 -0.5826 -1.0858 -0.4223
55543SOL     OW73489   8.607   3.119   5.998 -0.7243 -0.4033  0.0978
55543SOL    HW173490   8.613   3.025   6.013 -0.7334 -0.4173  0.0132
55543SOL    HW273491   8.574   3.155   6.081 -0.0967 -0.3978  0.3561
55544SOL     OW73492   8.923   4.808   0.362  0.2002  0.0672  0.0627
55544SOL    HW173493   8.845   4.838   0.314 -0.6529 -0.3900  1.1115
55544SOL    HW273494   8.965   4.889   0.392 -0.4321  0.2993  0.3381
55545SOL     OW73495   7.291   4.215   1.671  0.0021  0.1778  0.1610
55545SOL    HW173496   7.365   4.175   1.718 -0.1883 -0.9753 -0.4947
55545SOL    HW273497   7.306   4.309   1.679  2.6633  0.0001 -1.6664
55546SOL     OW73498  10.214  11.582   0.457  0.4192 -0.4434 -0.4611
55546SOL    HW173499  10.208  11.674   0.432  0.3857  0.4375  2.3802
55546SOL    HW273500  10.300  11.554   0.427  1.6612  1.4224  1.0406
55547SOL     OW73501   7.477   8.351  12.228 -0.6455  0.3007  0.3337
55547SOL    HW173502   7.400   8.297  12.243 -0.4820 -0.5921 -1.6974
55547SOL    HW273503   7.444   8.430  12.185 -0.6409  0.9164  1.4201
55548SOL     OW73504   1.463   5.958   1.551  0.2816 -0.0998  0.1497
55548SOL    HW173505   1.371   5.970   1.575  0.2456 -2.2318  1.3075
55548SOL    HW273506   1.494   6.046   1.530 -1.6586  0.8622  1.0672
55549SOL     OW73507   5.949  11.568  11.989  0.1192 -0.4196 -0.5785
55549SOL    HW173508   5.972  11.646  11.939  1.5813  0.2250  1.0100
55549SOL    HW273509   5.972  11.589  12.079 -3.1339 -1.2322  0.6077
55550SOL     OW73510   4.316   1.978   7.600 -0.5897  0.1969 -0.3927
55550SOL    HW173511   4.356   2.041   7.660 -2.6140  1.0521  0.1620
55550SOL    HW273512   4.237   1.949   7.645 -1.5750 -0.0129 -2.1663
55551SOL     OW73513   9.224   9.703   8.619  0.1712 -0.3721  0.4382
55551SOL    HW173514   9.278   9.714   8.541  0.1871  0.1258  0.5152
55551SOL    HW273515   9.207   9.609   8.624  1.2049 -0.5659  0.5334
55552SOL     OW73516   0.939   2.701   8.964  0.2922  0.0884  0.4092
55552SOL    HW173517   0.924   2.633   8.899  1.0388  0.4038 -0.1072
55552SOL    HW273518   0.869   2.765   8.948  1.0785  0.6734 -0.7828
55553SOL     OW73519   8.805  11.388   1.934  0.6948 -0.0503 -0.4523
55553SOL    HW173520   8.743  11.320   1.957  0.5152  0.3479  0.2535
55553SOL    HW273521   8.754  11.469   1.934  1.5512  0.5842  2.0389
55554SOL     OW73522   7.391  11.597   9.766  0.3966  0.0633 -0.0971
55554SOL    HW173523   7.486  11.590   9.763  0.4798  0.9984  0.1686
55554SOL    HW273524   7.366  11.631   9.680  0.4032  0.8398  0.2003
55555SOL     OW73525  11.456   1.362   0.446 -0.1549 -0.2343  0.1017
55555SOL    HW173526  11.469   1.442   0.395 -0.5687  0.3219  0.8469
55555SOL    HW273527  11.361   1.358   0.460  0.0310  0.2646  1.7980
55556SOL     OW73528  12.178   3.447   5.611  0.2413  0.1915 -0.3664
55556SOL    HW173529  12.105   3.386   5.599  0.4522 -0.0123 -0.6111
55556SOL    HW273530  12.155   3.523   5.558  0.2452  0.0967 -0.5025
55557SOL     OW73531   9.394   4.627   5.581  0.6962  0.0846 -0.8203
55557SOL    HW173532   9.331   4.635   5.653  0.6372  0.8013 -0.9382
55557SOL    HW273533   9.348   4.573   5.516  0.1039  0.7555 -0.9858
55558SOL     OW73534   1.943   7.111   7.236  0.0799  0.8931 -0.5178
55558SOL    HW173535   1.996   7.057   7.177  0.0258  0.8982 -0.5711
55558SOL    HW273536   2.005   7.141   7.303 -0.2785 -0.8120  0.6251
55559SOL     OW73537   1.042  11.908  10.057 -0.5254 -0.1169  0.7685
55559SOL    HW173538   0.953  11.926  10.026 -0.3845  0.0063  0.4339
55559SOL    HW273539   1.083  11.994  10.066 -0.7075 -0.1116  1.7549
55560SOL     OW73540   5.184   3.194  10.760  0.1421 -0.4119  0.2174
55560SOL    HW173541   5.145   3.175  10.675 -0.0135 -0.6791  0.3456
55560SOL    HW273542   5.117   3.244  10.807  0.0678 -0.6172  0.3309
55561SOL     OW73543   5.548   2.876   5.678  0.0433 -0.1686  0.0487
55561SOL    HW173544   5.533   2.966   5.650  0.3367  0.0115  0.4752
55561SOL    HW273545   5.635   2.877   5.719 -0.8579 -0.1647  2.0755
55562SOL     OW73546   0.927   0.877   3.750  0.2920 -0.4515 -0.7533
55562SOL    HW173547   0.866   0.851   3.819 -0.4578  0.4988 -1.0225
55562SOL    HW273548   1.013   0.854   3.783 -0.1013 -0.4802  0.2731
55563SOL     OW73549   1.068  11.202   3.931 -0.0827  0.2671  0.0171
55563SOL    HW173550   1.048  11.132   3.993  0.2387  0.5575  0.4586
55563SOL    HW273551   1.162  11.195   3.914 -0.2339 -0.0371 -0.7282
55564SOL     OW73552   7.578   7.670  10.269 -0.3502 -0.0285 -0.1892
55564SOL    HW173553   7.597   7.714  10.186  0.2875 -0.5875 -0.3463
55564SOL    HW273554   7.638   7.595  10.271 -1.2832 -0.7890  0.1599
55565SOL     OW73555   7.585  11.167   7.103  0.0955  0.2192  0.0591
55565SOL    HW173556   7.510  11.154   7.045 -0.4020 -0.0591  0.7502
55565SOL    HW273557   7.594  11.084   7.150  3.0447 -1.1107 -2.4664
55566SOL     OW73558   3.635   5.515   3.848 -1.0339 -0.2872 -0.1587
55566SOL    HW173559   3.696   5.443   3.862 -0.3001  0.3863  0.1541
55566SOL    HW273560   3.619   5.514   3.754 -0.3266 -0.3044 -0.2866
55567SOL     OW73561   5.824   0.321   1.822  0.1817  1.5902  0.1333
55567SOL    HW173562   5.773   0.327   1.903  1.2488  1.0114  0.8770
55567SOL    HW273563   5.762   0.290   1.756  0.0961 -1.9588  1.6223
55568SOL     OW73564   8.628   4.013   2.779 -0.3963 -0.0523 -0.2764
55568SOL    HW173565   8.678   4.051   2.707 -0.9583  1.8883  0.3139
55568SOL    HW273566   8.671   4.046   2.858 -0.5164 -1.1818  0.2847
55569SOL     OW73567   5.662   7.600   5.377  1.0851 -0.4056  0.4049
55569SOL    HW173568   5.645   7.689   5.348  1.7588 -0.6694 -0.8831
55569SOL    HW273569   5.668   7.549   5.297  1.9563 -1.3835  1.0565
55570SOL     OW73570   6.616   7.512   8.508 -0.4895 -0.6925 -0.0354
55570SOL    HW173571   6.592   7.589   8.455  0.9940 -0.0722  0.1315
55570SOL    HW273572   6.599   7.437   8.451 -0.0407 -0.1018 -0.9706
55571SOL     OW73573   0.848   0.427   6.822  0.6013 -0.2473  0.3852
55571SOL    HW173574   0.879   0.388   6.740  1.3876 -0.2262  0.6584
55571SOL    HW273575   0.928   0.438   6.874 -0.0097 -1.2820  1.5914
55572SOL     OW73576   5.880   4.082   8.580  0.2286 -0.3472 -0.6731
55572SOL    HW173577   5.920   4.159   8.540  2.6926 -1.1043  0.1723
55572SOL    HW273578   5.954   4.031   8.614 -1.4486 -2.0846  0.5864
55573SOL     OW73579  10.419  12.028  10.646  0.2524 -0.5950 -0.1723
55573SOL    HW173580  10.340  12.035  10.700  0.6869 -0.7987  0.5062
55573SOL    HW273581  10.485  12.078  10.694  0.5046 -0.3188 -0.7986
55574SOL     OW73582   0.563   8.448   3.481  0.2428 -0.3062 -0.2443
55574SOL    HW173583   0.617   8.412   3.551  0.2714  1.9552  0.9686
55574SOL    HW273584   0.588   8.541   3.477 -0.9716 -0.0148 -2.1228
55575SOL     OW73585   0.435   9.905   8.725 -0.1342 -0.4407 -0.2430
55575SOL    HW173586   0.435   9.946   8.639 -0.7832 -0.1307 -0.1022
55575SOL    HW273587   0.421   9.812   8.708 -0.1230 -0.3986 -0.4762
55576SOL     OW73588  11.106   2.939   7.651  0.3304  0.1451 -0.1942
55576SOL    HW173589  11.161   2.994   7.594  0.4164 -0.8298 -1.0789
55576SOL    HW273590  11.082   2.865   7.596 -0.8633 -0.0587  0.5772
55577SOL     OW73591   6.180   7.629   6.461  0.4194 -0.0390 -0.0017
55577SOL    HW173592   6.253   7.638   6.522  0.5811 -0.2156 -0.1704
55577SOL    HW273593   6.220   7.630   6.375  0.2137 -0.0548 -0.0985
55578SOL     OW73594  11.205   2.549  10.282  0.4631  0.3130  0.4206
55578SOL    HW173595  11.226   2.641  10.299  1.5457  0.0628  0.5434
55578SOL    HW273596  11.114   2.540  10.308 -0.0940  1.6727 -0.9092
55579SOL     OW73597   7.540   4.880   7.933  0.3465  0.0437  0.0129
55579SOL    HW173598   7.555   4.811   7.869  0.8762 -0.3862  0.5845
55579SOL    HW273599   7.445   4.891   7.935  0.1643 -1.3845  0.6376
55580SOL     OW73600  10.566  10.229  11.096 -0.3557 -0.0382  0.2954
55580SOL    HW173601  10.587  10.158  11.156  0.5887  0.6400  0.7824
55580SOL    HW273602  10.609  10.204  11.014  0.8193  0.4420  0.7528
55581SOL     OW73603   0.160   1.075   2.518  0.1597 -1.0859 -0.2495
55581SOL    HW173604   0.119   1.104   2.599  0.5069 -2.0015  0.2636
55581SOL    HW273605   0.144   0.981   2.515 -1.5500 -0.7935 -2.2249
55582SOL     OW73606  10.690   4.926   9.335 -0.1451 -0.1994 -0.2580
55582SOL    HW173607  10.673   4.861   9.267  0.0555  0.0229 -0.5243
55582SOL    HW273608  10.650   5.006   9.302 -0.5004 -0.2135  0.1258
55583SOL     OW73609  11.942   9.530   6.612 -0.1657  0.1974 -0.4288
55583SOL    HW173610  12.024   9.510   6.567 -0.4172 -2.4382  0.0773
55583SOL    HW273611  11.967   9.584   6.687  1.5278 -2.2953  0.9409
55584SOL     OW73612   1.208   7.158  10.796  0.2704  0.5368 -0.5682
55584SOL    HW173613   1.221   7.244  10.835 -1.2198  0.0312  1.2112
55584SOL    HW273614   1.256   7.098  10.853 -0.0867  0.0235 -0.7938
55585SOL     OW73615   3.407  12.266   2.450 -0.1131  0.6927  0.0103
55585SOL    HW173616   3.470  12.218   2.395  2.0793  1.1795  1.9249
55585SOL    HW273617   3.437  12.357   2.446 -2.4218  1.4778 -1.1936
55586SOL     OW73618   1.858  10.545   6.900 -0.1163 -0.1061 -0.0240
55586SOL    HW173619   1.935  10.512   6.947 -0.0540  1.3426  0.9697
55586SOL    HW273620   1.893  10.588   6.822 -0.2323 -2.7010 -1.5953
55587SOL     OW73621  10.026   4.963   6.223  0.3023 -0.3003 -0.2037
55587SOL    HW173622   9.943   4.965   6.176  0.5676 -0.0532 -0.6627
55587SOL    HW273623  10.087   4.922   6.162  0.5909 -0.1981  0.0160
55588SOL     OW73624   5.351   3.447   2.724  0.1315  0.2241  0.6791
55588SOL    HW173625   5.281   3.512   2.721 -0.4737 -0.4390  0.0071
55588SOL    HW273626   5.414   3.483   2.786 -0.4149  1.2216  0.6841
55589SOL     OW73627   8.025   9.392   5.034  0.4920 -0.0922  0.5415
55589SOL    HW173628   8.013   9.304   5.069 -3.0915 -0.3584 -0.9436
55589SOL    HW273629   7.957   9.444   5.076  1.1608  1.4828 -0.2279
55590SOL     OW73630   3.072   9.450   9.739  0.4589 -0.3205  0.0639
55590SOL    HW173631   3.131   9.520   9.711 -0.6883  0.5753 -0.1945
55590SOL    HW273632   2.998   9.496   9.779 -0.9346 -1.2915 -1.2785
55591SOL     OW73633   7.595  11.345   5.659  0.3289  0.0544  0.4291
55591SOL    HW173634   7.604  11.341   5.564  1.9280  1.1116  0.4800
55591SOL    HW273635   7.584  11.439   5.678  0.3844 -0.1041  1.2991
55592SOL     OW73636  11.233  11.768   6.356 -0.4838  0.4152 -0.1270
55592SOL    HW173637  11.163  11.822   6.320 -1.6495  0.0852  1.5255
55592SOL    HW273638  11.273  11.823   6.423 -0.6099 -0.1740  0.4390
55593SOL     OW73639  11.741  11.204   9.698  0.0350  0.1979 -0.0913
55593SOL    HW173640  11.773  11.124   9.657 -0.5419  0.4221 -1.0164
55593SOL    HW273641  11.660  11.224   9.650  0.0835  1.2301  0.2435
55594SOL     OW73642   6.578  10.891   9.420 -0.4389  0.3946  0.3770
55594SOL    HW173643   6.575  10.949   9.344 -2.2474 -1.7234 -1.3108
55594SOL    HW273644   6.489  10.891   9.454 -0.0044  0.0998  1.5496
55595SOL     OW73645   7.380   9.235  11.200 -0.2742 -0.0186 -0.1944
55595SOL    HW173646   7.354   9.213  11.110 -0.8543 -0.9877  0.1997
55595SOL    HW273647   7.438   9.311  11.190  0.7191 -0.8991 -1.4921
55596SOL     OW73648   5.681   9.919   7.897 -0.0973  0.6418 -0.2651
55596SOL    HW173649   5.719   9.965   7.972 -1.1365 -0.4111  0.9542
55596SOL    HW273650   5.613   9.978   7.865  0.6184  1.2749 -0.6577
55597SOL     OW73651   3.505   0.105   0.227  0.6290  0.1062 -0.0582
55597SOL    HW173652   3.594   0.091   0.195  0.6711  0.7560 -0.2351
55597SOL    HW273653   3.515   0.166   0.300  0.2927  0.5031 -0.3376
55598SOL     OW73654  11.596   9.479  12.331  0.2977 -0.5304 -0.2011
55598SOL    HW173655  11.585   9.573  12.317 -1.2238 -0.6864 -0.1830
55598SOL    HW273656  11.599   9.469  12.426  1.7199 -0.3861 -0.2172
55599SOL     OW73657   4.307  12.279   9.355 -0.2152  0.0432  0.5627
55599SOL    HW173658   4.227  12.242   9.393  0.1275  0.3499  1.6339
55599SOL    HW273659   4.291  12.374   9.354  0.3210  0.1491  1.2578
55600SOL     OW73660   0.054   8.464   6.621 -0.1490 -0.0548 -0.0080
55600SOL    HW173661   0.065   8.371   6.640 -1.0889 -0.3879 -0.9933
55600SOL    HW273662   0.139   8.503   6.641 -0.6825 -0.4720  3.8462
55601SOL     OW73663   5.037   4.708   5.291  0.3365 -0.1416  0.4182
55601SOL    HW173664   5.075   4.627   5.255 -1.1505 -1.2030  1.1378
55601SOL    HW273665   4.975   4.737   5.224  0.3733  0.0233  0.4551
55602SOL     OW73666   6.840  10.037   9.154 -0.9252  0.0569 -0.6314
55602SOL    HW173667   6.778  10.109   9.148  1.6554  2.3413 -2.1207
55602SOL    HW273668   6.841   9.998   9.067  0.2134  0.5022 -0.8282
55603SOL     OW73669   3.885   0.535   2.681 -0.2211  0.1474 -0.2455
55603SOL    HW173670   3.888   0.617   2.631 -2.3013  0.7710  0.5253
55603SOL    HW273671   3.976   0.518   2.705  0.5817  0.8350 -2.5891
55604SOL     OW73672   1.119  11.476   7.083  0.3899 -0.5859  0.4743
55604SOL    HW173673   1.056  11.406   7.101  1.4987 -1.9392 -0.5463
55604SOL    HW273674   1.107  11.496   6.990  0.0118  0.6862  0.7820
55605SOL     OW73675   4.277  12.122   7.790  0.6637 -0.1442 -0.3162
55605SOL    HW173676   4.220  12.068   7.735  0.4552 -0.5001  0.2331
55605SOL    HW273677   4.252  12.099   7.880  0.8447  0.5780 -0.0699
55606SOL     OW73678   9.721  11.077   3.948 -0.8975 -0.3285 -0.0033
55606SOL    HW173679   9.714  10.981   3.951 -1.8256 -0.2619  0.3386
55606SOL    HW273680   9.805  11.093   3.904 -0.8992 -1.2936 -0.4016
55607SOL     OW73681   3.267   6.842  11.828  0.1591  0.1908  1.0631
55607SOL    HW173682   3.254   6.765  11.773 -1.0700 -0.0831  1.7070
55607SOL    HW273683   3.301   6.808  11.911 -0.7269  0.2960  1.4756
55608SOL     OW73684   3.120  12.148   9.381 -0.4347 -0.0433  0.4953
55608SOL    HW173685   3.109  12.227   9.434 -1.0190  0.3590 -0.2021
55608SOL    HW273686   3.147  12.081   9.443 -1.3287  0.3539  1.3442
55609SOL     OW73687  10.989   3.296   8.906  0.5004  0.1104  0.0657
55609SOL    HW173688  10.918   3.360   8.903 -0.3445 -0.8263 -1.0068
55609SOL    HW273689  11.044   3.324   8.979 -0.9727  0.8583  0.9293
55610SOL     OW73690   7.688   0.034   8.287  0.2704  0.0180 -0.4287
55610SOL    HW173691   7.732   0.060   8.368  1.1924  1.6415 -1.3626
55610SOL    HW273692   7.595   0.039   8.307  0.4195  2.4123  0.0389
55611SOL     OW73693   2.489   5.388   3.912  0.6253 -0.1395 -0.5282
55611SOL    HW173694   2.465   5.318   3.852  2.4399  0.9384 -2.6746
55611SOL    HW273695   2.582   5.373   3.930  0.1153 -0.5049  2.2330
55612SOL     OW73696   5.729   0.281   0.847  0.1660  0.3394  0.1322
55612SOL    HW173697   5.740   0.189   0.871  1.5012  1.0939  2.8521
55612SOL    HW273698   5.800   0.298   0.786 -0.7495 -0.6571 -1.2636
55613SOL     OW73699   2.100   4.655   4.863  0.0463  0.2865 -0.1532
55613SOL    HW173700   2.059   4.569   4.874  0.4916  0.1441  0.4310
55613SOL    HW273701   2.056   4.692   4.786 -0.3113 -0.3645 -0.2755
55614SOL     OW73702   7.455   0.884   1.197  0.0943  0.6553 -0.4426
55614SOL    HW173703   7.475   0.790   1.207 -2.0836  0.0739 -0.9348
55614SOL    HW273704   7.477   0.904   1.107 -1.3907  0.0249 -0.9806
55615SOL     OW73705   4.448   3.299   1.347 -0.0538  0.5497 -0.0507
55615SOL    HW173706   4.434   3.393   1.343  1.5226  0.7763 -1.1421
55615SOL    HW273707   4.482   3.275   1.261 -0.2707 -0.9910  0.2545
55616SOL     OW73708  11.620  12.196   4.283 -0.1604  0.0323  0.0520
55616SOL    HW173709  11.647  12.287   4.298  0.4550 -0.3513  1.4151
55616SOL    HW273710  11.700  12.145   4.296 -0.6060 -0.7482 -0.2434
55617SOL     OW73711   2.953   5.859   8.499 -0.1828  0.6868  0.2251
55617SOL    HW173712   2.937   5.811   8.418 -0.1653  2.1454 -0.6775
55617SOL    HW273713   3.037   5.903   8.485 -0.1451  0.8945  1.0660
55618SOL     OW73714   0.543   1.749   2.778 -0.0448 -0.5109 -0.2261
55618SOL    HW173715   0.461   1.796   2.770  0.3814  0.2594 -0.1193
55618SOL    HW273716   0.529   1.668   2.728 -0.7157 -0.1954 -0.5578
55619SOL     OW73717   3.426   8.953   9.430 -0.3086 -0.4181 -0.3190
55619SOL    HW173718   3.511   8.993   9.414  0.1457 -1.2329  0.0138
55619SOL    HW273719   3.369   8.989   9.362  0.5852 -0.7698 -1.2724
55620SOL     OW73720   7.906  10.023   7.686 -0.4914 -0.6185  0.6034
55620SOL    HW173721   7.987  10.059   7.721  1.4074 -2.6403 -1.4054
55620SOL    HW273722   7.884   9.951   7.746 -0.5521 -0.3595  0.8944
55621SOL     OW73723   2.393   3.697   7.428 -0.1230 -0.1306 -0.0650
55621SOL    HW173724   2.471   3.731   7.383  0.2911 -0.7413  0.1733
55621SOL    HW273725   2.408   3.602   7.432  1.4505  0.0715  4.2478
55622SOL     OW73726   2.648   5.512   0.818 -0.5723 -0.1247 -0.1677
55622SOL    HW173727   2.677   5.603   0.824 -0.6736 -0.0736 -0.4439
55622SOL    HW273728   2.693   5.468   0.891 -1.8486  0.4787  1.0269
55623SOL     OW73729   7.952   8.086   5.560 -0.6184 -0.0847  0.0967
55623SOL    HW173730   7.948   8.100   5.465  3.4278 -0.4882 -0.3208
55623SOL    HW273731   7.977   8.172   5.595  1.4016 -0.7085  0.2974
55624SOL     OW73732   4.364  10.522   9.283  0.2976 -0.4117 -0.0951
55624SOL    HW173733   4.386  10.513   9.190  1.1095 -2.2161  0.2206
55624SOL    HW273734   4.449  10.528   9.327 -0.0916  0.8867  0.5111
55625SOL     OW73735   8.216   0.368   1.163  0.3527  0.0916  0.0010
55625SOL    HW173736   8.135   0.366   1.216  0.3070 -0.7120 -0.0789
55625SOL    HW273737   8.208   0.447   1.110 -0.0961  0.3511  0.4444
55626SOL     OW73738   3.578   6.114   3.428  0.1381 -0.2985  0.5896
55626SOL    HW173739   3.605   6.150   3.344  0.0293 -0.7429  0.3558
55626SOL    HW273740   3.637   6.040   3.443  0.5222  0.1223  1.1804
55627SOL     OW73741   9.700   7.050   3.180 -0.0528  0.5245 -0.0930
55627SOL    HW173742   9.738   6.998   3.250 -0.5546 -0.6999 -0.7045
55627SOL    HW273743   9.611   7.016   3.170 -0.3928  1.5019 -0.5050
55628SOL     OW73744   0.338   0.863   0.153  0.3172  0.4091 -0.4976
55628SOL    HW173745   0.410   0.925   0.140  0.9889 -0.7259 -2.6842
55628SOL    HW273746   0.318   0.869   0.246  1.8114  2.2915 -0.2261
55629SOL     OW73747   9.149   7.944   1.093 -0.0328  0.5540 -0.6179
55629SOL    HW173748   9.221   7.918   1.149  0.5259  1.8481 -0.6905
55629SOL    HW273749   9.182   8.019   1.044 -1.7241  1.8111  0.0525
55630SOL     OW73750  10.019   8.673   2.865 -0.1592 -0.0967  0.3203
55630SOL    HW173751  10.013   8.626   2.782 -0.0032  0.2925  0.0861
55630SOL    HW273752  10.076   8.747   2.847 -0.3812  0.1703  0.6951
55631SOL     OW73753   2.073   7.616   5.658 -0.1420  0.0695  0.2917
55631SOL    HW173754   2.025   7.543   5.618  0.4343 -0.7722  1.1053
55631SOL    HW273755   2.100   7.669   5.584 -0.0696 -0.8561 -0.3683
55632SOL     OW73756   3.486   9.572   1.598  0.1194  0.4373 -0.2519
55632SOL    HW173757   3.416   9.574   1.663  0.0713 -0.7007 -0.2419
55632SOL    HW273758   3.443   9.593   1.515  0.0818  1.3665 -0.0044
55633SOL     OW73759   7.003   8.334   1.162  0.4785 -0.0818 -0.0776
55633SOL    HW173760   7.001   8.404   1.228  0.6604  0.8082 -0.9984
55633SOL    HW273761   7.094   8.305   1.163  0.6870  0.5286 -0.5368
55634SOL     OW73762   6.751   5.693  12.085 -0.2397 -0.4631  0.1437
55634SOL    HW173763   6.726   5.766  12.029  0.9991 -1.0872 -1.3115
55634SOL    HW273764   6.817   5.645  12.034 -1.6144 -3.0934  0.6408
55635SOL     OW73765   7.948   6.565   3.012  0.4157  0.3564  0.0689
55635SOL    HW173766   7.862   6.602   3.029 -0.3922 -1.7476  0.8685
55635SOL    HW273767   7.959   6.572   2.917  0.1163  2.1273  0.1343
55636SOL     OW73768   8.423   4.394   3.344  0.3931 -0.2858 -0.6644
55636SOL    HW173769   8.356   4.454   3.377 -1.9089 -1.7444 -2.3781
55636SOL    HW273770   8.479   4.448   3.289 -0.9751  0.5319 -1.3041
55637SOL     OW73771   9.477   2.024   7.548  0.2139  0.1565  0.1301
55637SOL    HW173772   9.571   2.037   7.538  0.2125 -0.8867 -1.7430
55637SOL    HW273773   9.443   2.110   7.571  1.4313  0.9454 -0.9052
55638SOL     OW73774   9.785   6.804   0.256  0.0600  0.1845 -0.2127
55638SOL    HW173775   9.854   6.831   0.316  0.2688  1.0352 -0.8072
55638SOL    HW273776   9.715   6.771   0.312 -0.3674  2.3211  0.6342
55639SOL     OW73777   5.040   8.017   8.620 -0.1274 -0.2199  0.3525
55639SOL    HW173778   4.983   7.962   8.673 -0.0836 -1.1074 -0.4819
55639SOL    HW273779   5.010   8.003   8.530  0.2810  0.6613  0.0628
55640SOL     OW73780   7.129   6.996   0.844 -0.0430  0.3095 -0.4666
55640SOL    HW173781   7.171   6.977   0.928 -1.0030  0.8565  0.1575
55640SOL    HW273782   7.194   7.048   0.796 -0.0499  1.2996  0.5551
55641SOL     OW73783   0.459   4.162   4.817  0.3507  0.2422  0.6788
55641SOL    HW173784   0.550   4.135   4.807 -0.2251 -1.0775 -1.8762
55641SOL    HW273785   0.453   4.243   4.766  0.0895  0.3795  0.9217
55642SOL     OW73786   7.523   0.807  10.688 -0.3390 -0.0404 -0.2954
55642SOL    HW173787   7.516   0.724  10.735 -0.3835  0.3739  0.4430
55642SOL    HW273788   7.582   0.860  10.742 -0.0662  0.3045 -0.9200
55643SOL     OW73789   9.735   2.777   9.683 -0.0766 -0.0228 -0.3479
55643SOL    HW173790   9.653   2.732   9.666  0.3641 -1.3308  0.8122
55643SOL    HW273791   9.796   2.708   9.709  0.8510  1.1398  0.7092
55644SOL     OW73792   9.030   0.043   8.820  0.0821  0.0091 -0.3884
55644SOL    HW173793   9.009   0.045   8.727 -1.2544 -0.9510 -0.1302
55644SOL    HW273794   8.958   0.090   8.862  0.5516  0.2312  0.1772
55645SOL     OW73795  10.798   9.091   7.795 -0.4267 -0.1213 -0.1586
55645SOL    HW173796  10.746   9.129   7.724 -1.8642 -1.2555  0.2312
55645SOL    HW273797  10.759   9.127   7.875  0.1960 -0.0385  0.1142
55646SOL     OW73798   8.140   3.316  12.121  0.0930 -0.3689  0.1670
55646SOL    HW173799   8.054   3.348  12.095  0.1120 -0.2970  0.1934
55646SOL    HW273800   8.145   3.332  12.215 -0.2878 -1.3380  0.3605
55647SOL     OW73801  10.577   6.945  12.082  0.3053  0.1078 -0.3653
55647SOL    HW173802  10.663   6.952  12.040 -0.6964  0.6762 -2.4653
55647SOL    HW273803  10.517   6.926  12.010 -1.0643 -2.6562  1.3170
55648SOL     OW73804   6.257   3.756  10.477 -0.0247  0.4744 -0.4968
55648SOL    HW173805   6.225   3.665  10.479 -0.7723  0.7408  0.7630
55648SOL    HW273806   6.178   3.809  10.489  0.7208  1.1848  1.7115
55649SOL     OW73807  12.308  12.325   8.970 -0.3238  0.1264 -0.1591
55649SOL    HW173808  12.213  12.316   8.972 -0.3233 -0.0232 -0.7556
55649SOL    HW273809  12.332  12.341   9.061 -1.0112  1.0822 -0.1202
55650SOL     OW73810   6.622   3.907   1.970 -0.3564  0.7936 -0.1939
55650SOL    HW173811   6.716   3.923   1.959 -0.1963  1.6958  1.9059
55650SOL    HW273812   6.617   3.816   2.000 -0.2905  0.3118 -1.6095
55651SOL     OW73813   8.124   7.360   3.350 -0.0973  0.7244  0.2302
55651SOL    HW173814   8.206   7.321   3.379 -0.8587 -1.9513 -0.8725
55651SOL    HW273815   8.151   7.439   3.302  1.7770  0.2132  0.3564
55652SOL     OW73816   1.336   7.695   8.503 -0.3770 -0.3887  0.0305
55652SOL    HW173817   1.415   7.684   8.451  1.2536  1.6552  1.8453
55652SOL    HW273818   1.365   7.682   8.594 -2.1932  0.1058  0.7321
55653SOL     OW73819   7.338   8.624   7.728 -0.0267  0.2115  0.0437
55653SOL    HW173820   7.354   8.530   7.734 -1.0363  0.0468  0.4120
55653SOL    HW273821   7.298   8.637   7.642 -0.4404  0.2098  0.2323
55654SOL     OW73822  10.390   0.454   3.339  0.1264 -0.5585 -0.4279
55654SOL    HW173823  10.322   0.474   3.275  0.9662  0.4060 -1.0627
55654SOL    HW273824  10.349   0.471   3.424 -0.0897  1.2411 -0.8426
55655SOL     OW73825   3.267   6.572   9.671 -0.3626 -0.0953 -0.0203
55655SOL    HW173826   3.355   6.578   9.708 -0.3372 -3.2824  0.6944
55655SOL    HW273827   3.281   6.539   9.582 -0.7687  1.8402 -0.8596
55656SOL     OW73828   1.315  10.252   8.825  0.1197  0.2752 -0.1800
55656SOL    HW173829   1.300  10.315   8.754  2.3008  1.8288  0.6327
55656SOL    HW273830   1.393  10.204   8.797 -0.2306 -0.5334  0.2300
55657SOL     OW73831   5.337   0.565  11.134 -0.3975 -0.4039  0.3127
55657SOL    HW173832   5.363   0.519  11.214  0.9650  1.1964  0.8513
55657SOL    HW273833   5.413   0.562  11.077  0.1130  1.9088  0.7519
55658SOL     OW73834   7.011  11.305   8.605 -0.6978  0.1472 -0.5744
55658SOL    HW173835   7.083  11.336   8.660 -1.2213  0.5303 -0.0950
55658SOL    HW273836   7.051  11.238   8.549 -0.3026 -0.7959  0.7713
55659SOL     OW73837   3.326   0.263   2.685 -0.0239 -0.4975  0.3725
55659SOL    HW173838   3.290   0.283   2.599  1.1030  1.7324  0.3567
55659SOL    HW273839   3.384   0.189   2.671 -0.8959 -1.0373 -0.4961
55660SOL     OW73840   4.982   4.798   8.010 -0.0642  0.8034  0.2147
55660SOL    HW173841   4.990   4.742   7.933  1.2150  0.2521  0.7157
55660SOL    HW273842   4.896   4.778   8.046  0.4702 -1.1109  0.5493
55661SOL     OW73843   9.370   4.244  12.205  0.4613 -0.6066  0.2983
55661SOL    HW173844   9.322   4.298  12.268  2.4350 -0.6874  1.9631
55661SOL    HW273845   9.359   4.290  12.121  2.4944  2.8229  1.7027
55662SOL     OW73846   8.351   7.217   3.416 -0.0899 -0.1825 -0.2486
55662SOL    HW173847   8.388   7.293   3.461 -0.3657  0.0065 -0.3406
55662SOL    HW273848   8.413   7.200   3.344  1.3293 -1.5865  1.2247
55663SOL     OW73849   8.506  12.252  10.945  0.4419 -0.3402 -0.4351
55663SOL    HW173850   8.541  12.269  10.858  0.6800 -1.2181 -0.5222
55663SOL    HW273851   8.436  12.189  10.931 -0.6050  0.7282 -0.1609
55664SOL     OW73852   6.658  10.772   1.569  0.3191  0.1204  0.0596
55664SOL    HW173853   6.678  10.833   1.640 -1.8544 -0.4354  1.2117
55664SOL    HW273854   6.588  10.814   1.519  1.8046  0.4987 -1.8295
55665SOL     OW73855   2.463   6.572   5.123  0.0994 -0.3956 -0.2437
55665SOL    HW173856   2.370   6.591   5.107  0.3717 -0.0477 -1.5227
55665SOL    HW273857   2.509   6.623   5.057  1.1100 -1.9848 -0.8136
55666SOL     OW73858  11.710   6.011   4.459 -0.0147  0.3854 -0.2349
55666SOL    HW173859  11.686   6.075   4.392 -0.8171  0.9933  0.6193
55666SOL    HW273860  11.804   5.995   4.444  0.4207  2.4198  0.0775
55667SOL     OW73861   8.839   5.861   3.431  0.3842  0.5341 -0.0669
55667SOL    HW173862   8.835   5.853   3.526 -0.6733 -0.2756 -0.1584
55667SOL    HW273863   8.916   5.809   3.406  0.1194 -0.0462  0.2857
55668SOL     OW73864   7.992   1.425   8.653  0.3229 -0.3479 -0.2125
55668SOL    HW173865   7.957   1.356   8.710 -1.5461  0.4139 -0.3581
55668SOL    HW273866   8.017   1.380   8.573 -0.9088 -0.8705 -0.3223
55669SOL     OW73867   6.618   3.895   5.688  0.2472 -0.2868 -0.2888
55669SOL    HW173868   6.624   3.823   5.751 -1.1944 -0.1991 -0.0244
55669SOL    HW273869   6.524   3.908   5.675  0.3570  2.8157  1.1125
55670SOL     OW73870  10.305  11.672   2.693  0.1971 -0.3987  0.0381
55670SOL    HW173871  10.390  11.659   2.735  0.0429  0.2702  0.5632
55670SOL    HW273872  10.241  11.655   2.762 -0.1319 -1.5266 -0.5123
55671SOL     OW73873   4.374   6.928   7.421  0.3638 -0.5519  0.2845
55671SOL    HW173874   4.405   7.017   7.403 -0.8982 -0.0514  0.4557
55671SOL    HW273875   4.287   6.941   7.458  0.5514 -1.8250  1.2302
55672SOL     OW73876   5.479   0.793   0.481 -0.6399  0.3627  0.2452
55672SOL    HW173877   5.478   0.698   0.466 -0.2577  0.5760 -1.1967
55672SOL    HW273878   5.394   0.811   0.521  0.0375 -0.8489  2.3938
55673SOL     OW73879   1.404  10.139   2.849 -0.3575 -0.5738  0.0006
55673SOL    HW173880   1.440  10.219   2.888  1.5412  0.1442 -2.8994
55673SOL    HW273881   1.311  10.158   2.838  0.2403  1.8173 -1.7020
55674SOL     OW73882   5.136  11.129   8.659  0.0585 -0.0745  0.1133
55674SOL    HW173883   5.054  11.103   8.700 -0.0832 -0.4223 -0.3753
55674SOL    HW273884   5.180  11.046   8.639 -0.0695  0.0769 -0.8218
55675SOL     OW73885   0.951   1.758  10.428  0.0672  0.4522  0.8673
55675SOL    HW173886   1.019   1.700  10.461 -0.1988 -0.0610  0.5258
55675SOL    HW273887   0.994   1.810  10.360 -0.0190 -0.2859  0.2334
55676SOL     OW73888   5.958   4.064   6.492  0.1420 -0.5990  0.0924
55676SOL    HW173889   5.879   4.015   6.515 -1.0516  0.2350 -1.9210
55676SOL    HW273890   6.011   4.065   6.572 -0.9709 -2.8663  0.9476
55677SOL     OW73891  12.268   7.421   3.658  0.0081 -0.2331  0.4674
55677SOL    HW173892  12.188   7.375   3.685 -1.4040  0.7414 -1.7718
55677SOL    HW273893  12.240   7.511   3.642  1.4177  0.0194 -0.8637
55678SOL     OW73894   4.538   9.915   3.961  0.5363 -0.4896 -0.0293
55678SOL    HW173895   4.572   9.959   3.884 -0.7185  0.0552 -0.2845
55678SOL    HW273896   4.494   9.837   3.927 -3.0803  1.4720 -0.3328
55679SOL     OW73897  11.860   3.515   9.149 -0.2799 -0.5792  0.3665
55679SOL    HW173898  11.928   3.450   9.133  0.0186 -1.0570  3.0557
55679SOL    HW273899  11.784   3.484   9.099  0.6302 -1.5412 -0.4544
55680SOL     OW73900   1.264  12.049   9.962  0.4448 -0.5404  0.2079
55680SOL    HW173901   1.280  12.076   9.871  1.5934  1.0451  0.8325
55680SOL    HW273902   1.314  11.968   9.971  1.9384  0.2925 -0.0902
55681SOL     OW73903   7.151  11.238   4.701  0.3627  0.0671 -0.0034
55681SOL    HW173904   7.071  11.278   4.667  0.2440 -1.4539 -1.6692
55681SOL    HW273905   7.172  11.289   4.779 -2.1055  0.6494  0.3788
55682SOL     OW73906  10.048   7.125  12.462 -0.2353  0.5743  0.2039
55682SOL    HW173907  10.119   7.071  12.497 -1.7526 -1.2151  0.6731
55682SOL    HW273908  10.027   7.084  12.378 -0.0664  1.7120 -0.4136
55683SOL     OW73909   3.103   2.246  10.770 -0.4991  0.6909  0.1716
55683SOL    HW173910   3.175   2.189  10.797 -0.4917  0.6007 -0.0366
55683SOL    HW273911   3.143   2.312  10.713 -0.7841 -0.1624 -1.0702
55684SOL     OW73912   1.428   6.177   7.282  0.6449 -0.1021  0.5582
55684SOL    HW173913   1.414   6.186   7.188  1.4426 -1.5667  0.2770
55684SOL    HW273914   1.389   6.256   7.320  0.9411  0.8430 -1.0476
55685SOL     OW73915   3.928   7.030   6.184 -0.8456  0.1970 -0.2103
55685SOL    HW173916   3.928   7.080   6.266 -2.9113  0.9522 -0.6233
55685SOL    HW273917   3.850   6.975   6.189 -1.8477  1.3187 -2.2430
55686SOL     OW73918   0.317   8.074   2.197  0.1282  0.1021 -0.0534
55686SOL    HW173919   0.367   8.001   2.162 -0.1181  0.5340 -1.3505
55686SOL    HW273920   0.269   8.037   2.271 -0.6279 -1.2651 -1.1836
55687SOL     OW73921   0.163   8.699  12.143  0.6373  0.8917  0.6669
55687SOL    HW173922   0.172   8.793  12.155  0.5216  0.8305  1.2515
55687SOL    HW273923   0.210   8.680  12.062  1.7254  1.2695  1.1938
55688SOL     OW73924   0.149   6.777  10.242 -0.0598  0.5304 -0.3393
55688SOL    HW173925   0.230   6.769  10.192  0.4767  0.9379  0.4324
55688SOL    HW273926   0.166   6.729  10.323  0.0507  2.0093  0.5673
55689SOL     OW73927   1.507   4.322   6.365 -0.0816  0.7881 -0.1032
55689SOL    HW173928   1.519   4.244   6.311 -1.4169  0.8356 -0.4918
55689SOL    HW273929   1.529   4.293   6.454  0.8408  0.3680 -0.4473
55690SOL     OW73930   3.080   2.637  10.459 -0.2395 -0.1434 -0.5290
55690SOL    HW173931   3.130   2.583  10.520 -0.6278  1.2023  1.0687
55690SOL    HW273932   2.989   2.628  10.488 -0.4949  0.1358 -1.2218
55691SOL     OW73933   1.085   2.950  11.806  0.0462  0.1684  0.5181
55691SOL    HW173934   1.127   3.002  11.738 -2.4822 -0.6000 -1.8130
55691SOL    HW273935   1.157   2.908  11.852  1.8933  0.5691 -1.8343
55692SOL     OW73936   2.508   2.986   3.077 -0.0797 -0.2736 -0.4308
55692SOL    HW173937   2.601   2.963   3.065 -0.2771 -1.3052 -0.0662
55692SOL    HW273938   2.506   3.029   3.163  0.3222  1.3600 -1.2021
55693SOL     OW73939   9.868   0.652   1.534  0.2370 -0.1402 -0.1640
55693SOL    HW173940   9.937   0.598   1.496 -0.6441 -0.0563 -1.9822
55693SOL    HW273941   9.910   0.694   1.610  2.1630 -0.1455 -1.1513
55694SOL     OW73942  11.226   0.918  10.166 -0.4606  1.0196  0.1571
55694SOL    HW173943  11.172   0.977  10.219 -1.5946  1.4527 -1.4072
55694SOL    HW273944  11.172   0.840  10.153  0.2675  0.4244  0.5767
55695SOL     OW73945   8.645   9.358   7.475  0.5150 -0.2001  0.0386
55695SOL    HW173946   8.639   9.342   7.381 -0.0809  2.6053 -0.4693
55695SOL    HW273947   8.657   9.270   7.513  0.8141 -1.4060 -2.6087
55696SOL     OW73948   5.887  10.426   7.531  0.4028 -0.3417 -0.2599
55696SOL    HW173949   5.887  10.473   7.614  1.5606  2.3551 -1.6616
55696SOL    HW273950   5.803  10.449   7.490  1.8256  2.5749 -1.8853
55697SOL     OW73951  11.605  12.076   5.563  0.7330 -0.2119 -0.1557
55697SOL    HW173952  11.603  12.058   5.469  0.3196 -0.5616 -0.0841
55697SOL    HW273953  11.579  11.993   5.604 -0.0881  0.2233  0.2307
55698SOL     OW73954  11.107   1.655   0.815 -0.0069  0.1690  0.4078
55698SOL    HW173955  11.181   1.691   0.864 -0.3343 -1.1580  1.9951
55698SOL    HW273956  11.144   1.581   0.767 -0.0326  0.3864  0.0499
55699SOL     OW73957  10.290   0.330  10.294  0.5038  0.3458  0.4593
55699SOL    HW173958  10.216   0.386  10.272 -2.9985 -3.2440  1.8092
55699SOL    HW273959  10.298   0.337  10.390  1.5695  0.2901  0.3839
55700SOL     OW73960  10.404  12.049   6.984  0.1087 -0.4837  0.0009
55700SOL    HW173961  10.354  12.037   7.065 -0.4860 -1.6117 -0.4981
55700SOL    HW273962  10.414  11.960   6.949  0.9484 -0.0857 -0.8108
55701SOL     OW73963   2.054   2.031   3.565 -0.0112 -0.3200 -0.3801
55701SOL    HW173964   2.059   2.095   3.494  1.1176  0.5310  0.4141
55701SOL    HW273965   1.978   2.059   3.617  0.9159  0.8927  0.3888
55702SOL     OW73966  10.594   2.145  11.161  0.2793  0.6755 -0.1864
55702SOL    HW173967  10.611   2.224  11.213  0.2710  0.0836  0.7488
55702SOL    HW273968  10.549   2.086  11.222 -0.0473  0.0870 -0.9807
55703SOL     OW73969  12.204   8.477  12.242 -0.1864  0.6349  0.1121
55703SOL    HW173970  12.194   8.416  12.170 -0.8901 -0.7613  1.3383
55703SOL    HW273971  12.125   8.464  12.295 -0.6744  3.0622  0.1066
55704SOL     OW73972   6.377  12.055   7.459 -0.0237  0.4988 -0.1222
55704SOL    HW173973   6.286  12.032   7.442  0.0883 -0.2592  0.2854
55704SOL    HW273974   6.372  12.130   7.519 -0.3775  0.2656  0.1420
55705SOL     OW73975  11.571  11.488   8.775  0.4066  0.0968  0.6757
55705SOL    HW173976  11.515  11.551   8.820 -0.7027  0.1467 -0.6859
55705SOL    HW273977  11.657  11.530   8.772 -0.1824  1.3356  0.2586
55706SOL     OW73978  10.625   2.523   0.566 -0.7285  0.3125 -0.2079
55706SOL    HW173979  10.697   2.549   0.508  0.7084 -0.3045  1.2422
55706SOL    HW273980  10.548   2.523   0.509  0.7338 -1.0442 -2.3273
55707SOL     OW73981   2.267   4.603   2.037 -0.5426 -0.0685  0.3711
55707SOL    HW173982   2.213   4.671   1.996  1.0732  0.9759 -0.1269
55707SOL    HW273983   2.227   4.589   2.122 -0.9930  1.4347  0.4397
55708SOL     OW73984   1.714   2.549  10.796  0.1537 -0.3339 -0.0156
55708SOL    HW173985   1.667   2.615  10.745  0.1984 -0.5152 -0.2967
55708SOL    HW273986   1.806   2.575  10.789  0.0775  0.1842  0.7717
55709SOL     OW73987   4.764   1.810   7.256 -0.0151 -0.2818  0.1037
55709SOL    HW173988   4.788   1.764   7.176  1.5069  1.8482 -0.7770
55709SOL    HW273989   4.680   1.852   7.236 -0.2066 -0.6855  0.0538
55710SOL     OW73990   5.241   0.096   9.105 -0.7360  0.8521  0.1294
55710SOL    HW173991   5.279   0.139   9.182  3.6561 -0.6238 -0.9320
55710SOL    HW273992   5.228   0.005   9.133  1.8072  0.0555 -0.9207
55711SOL     OW73993   5.813  10.427  11.581  0.3080 -0.0015 -0.1378
55711SOL    HW173994   5.781  10.427  11.671 -1.0165  0.0706 -0.5720
55711SOL    HW273995   5.834  10.335  11.562 -2.3788 -0.6039 -0.6842
55712SOL     OW73996   6.519   6.174  10.229  0.2094  0.1152 -0.2893
55712SOL    HW173997   6.588   6.212  10.283 -0.6563  0.6995  0.4302
55712SOL    HW273998   6.545   6.194  10.139  0.6090  0.9556  0.0075
55713SOL     OW73999   1.700   2.765   5.562  0.5442  0.0992 -0.3796
55713SOL    HW174000   1.672   2.854   5.583  1.0970  0.1357  0.2581
55713SOL    HW274001   1.729   2.770   5.471  0.5770  0.5778 -0.3487
55714SOL     OW74002   5.633   5.471   2.815  0.1970 -0.6511  0.2954
55714SOL    HW174003   5.625   5.557   2.856  1.1359 -0.6584  0.5084
55714SOL    HW274004   5.650   5.411   2.887  0.9672 -0.7955 -0.0017
55715SOL     OW74005   1.857  11.779   7.654 -0.6878  0.4714  0.0836
55715SOL    HW174006   1.831  11.762   7.745 -1.1558  1.0497  0.0604
55715SOL    HW274007   1.822  11.866   7.635 -1.5122 -0.0736 -0.9871
55716SOL     OW74008  11.574  10.420   4.333  0.0147  0.0382  0.0911
55716SOL    HW174009  11.652  10.376   4.366  1.4024 -0.0695 -3.0160
55716SOL    HW274010  11.509  10.350   4.325  0.1923 -0.2339  0.8733
55717SOL     OW74011   7.106   5.650  11.541  0.3565 -0.2724 -0.2439
55717SOL    HW174012   7.193   5.619  11.516  0.7913 -0.1057  0.9660
55717SOL    HW274013   7.099   5.737  11.501 -0.0110 -1.0039 -1.8566
55718SOL     OW74014  10.776   9.557  11.397  0.0674  0.2661 -0.5150
55718SOL    HW174015  10.835   9.620  11.355  1.6529 -0.9953 -0.2652
55718SOL    HW274016  10.773   9.584  11.489  1.1832 -0.2946 -0.2935
55719SOL     OW74017   3.071   4.941  10.347  0.5078  0.0339  0.0032
55719SOL    HW174018   3.010   4.973  10.281  1.3365 -0.1846 -0.8942
55719SOL    HW274019   3.152   4.990  10.330  0.3207  1.0400  1.7952
55720SOL     OW74020   6.960   1.342   8.747 -0.0082  0.1266  0.2360
55720SOL    HW174021   6.980   1.253   8.719  0.2642  0.7922 -1.8954
55720SOL    HW274022   6.875   1.362   8.707  0.1697  0.9996  0.2570
55721SOL     OW74023   4.208   7.383   0.621  0.1418 -0.1646 -0.3613
55721SOL    HW174024   4.257   7.370   0.540 -0.9950  0.6842 -1.2154
55721SOL    HW274025   4.123   7.417   0.593 -1.3155 -2.4187  0.9958
55722SOL     OW74026   9.921   9.958   4.440  0.9664 -0.5535 -0.3142
55722SOL    HW174027   9.880  10.035   4.480  1.8829  0.0741 -0.5375
55722SOL    HW274028   9.913   9.890   4.506 -1.2067 -0.7214 -0.6974
55723SOL     OW74029   7.593   2.965  12.126  0.0848 -0.4764  0.0387
55723SOL    HW174030   7.537   2.955  12.049  1.3154 -0.7223 -0.8599
55723SOL    HW274031   7.652   3.036  12.103 -1.6638  1.8079  2.1357
55724SOL     OW74032  10.785   9.819  12.394  0.2098  0.2697  0.0613
55724SOL    HW174033  10.874   9.850  12.409 -0.3147  2.2522 -0.6075
55724SOL    HW274034  10.794   9.724  12.382  2.5343  0.6715 -2.1180
55725SOL     OW74035   9.073   2.786   2.718  0.2370  0.2115 -0.2033
55725SOL    HW174036   9.108   2.703   2.750 -0.9764  0.5564  2.2866
55725SOL    HW274037   9.122   2.852   2.766 -1.0364  0.7922  0.3490
55726SOL     OW74038   9.605   8.313   1.457  0.9211  0.5015 -0.4461
55726SOL    HW174039   9.583   8.299   1.365  0.3901  0.6993 -0.3508
55726SOL    HW274040   9.677   8.376   1.455  0.6197  0.8409 -0.7092
55727SOL     OW74041   1.796   6.569   2.509  0.0334 -0.4320 -0.1572
55727SOL    HW174042   1.856   6.495   2.515  0.1448 -0.3758 -0.5820
55727SOL    HW274043   1.833   6.635   2.567  1.6642  0.4981 -2.1501
55728SOL     OW74044  10.053   3.923   4.533  0.1430 -0.4808 -0.4899
55728SOL    HW174045  10.108   3.936   4.609 -1.0856  1.1022  0.1861
55728SOL    HW274046  10.093   3.976   4.464 -0.6251  0.8767  0.0724
55729SOL     OW74047   1.005  12.271   0.853 -0.1899 -0.0363 -0.3841
55729SOL    HW174048   0.987  12.345   0.795 -1.3056  0.7131  0.8374
55729SOL    HW274049   0.921  12.255   0.896  0.5423 -0.6885  0.8549
55730SOL     OW74050   3.798   6.782   6.488 -0.0067 -0.0006 -0.4637
55730SOL    HW174051   3.781   6.698   6.532  0.4270  1.1129  1.9549
55730SOL    HW274052   3.765   6.848   6.548  1.6472  1.6846 -1.3064
55731SOL     OW74053   3.129   2.415   3.487 -0.1882  0.8250 -0.7447
55731SOL    HW174054   3.217   2.397   3.455 -0.2042  0.9005 -0.8282
55731SOL    HW274055   3.141   2.431   3.581 -0.3098 -0.7620 -0.4299
55732SOL     OW74056   6.603   7.529   6.729 -0.1893  0.4426 -0.3433
55732SOL    HW174057   6.667   7.473   6.771 -0.7507 -1.4458 -1.8516
55732SOL    HW274058   6.651   7.572   6.658 -0.4265 -0.6724 -1.2239
55733SOL     OW74059   4.920   2.429   1.320 -0.0700  0.2961 -0.0989
55733SOL    HW174060   4.907   2.474   1.236  0.1768 -0.2741 -0.4552
55733SOL    HW274061   4.839   2.444   1.368  0.6899  2.6390  0.5487
55734SOL     OW74062   4.536   8.761   9.258 -0.8158 -0.0833  0.0711
55734SOL    HW174063   4.478   8.785   9.330 -0.8911  0.6785 -0.2400
55734SOL    HW274064   4.498   8.681   9.222 -0.9120 -0.3377  0.7205
55735SOL     OW74065  12.396   4.000   1.347 -0.5751  0.1148  0.3555
55735SOL    HW174066  12.353   3.938   1.289  0.9564 -0.8590  0.2111
55735SOL    HW274067  12.355   3.986   1.432  0.7219 -2.1903  0.6759
55736SOL     OW74068   2.574   5.573   9.230  0.0564  0.0968 -0.1638
55736SOL    HW174069   2.654   5.538   9.190  0.3006  0.8833 -0.3844
55736SOL    HW274070   2.606   5.627   9.302 -0.2695  0.5344 -0.3476
55737SOL     OW74071   7.535   1.301   8.035 -0.1724  0.3115  0.7247
55737SOL    HW174072   7.557   1.232   7.972 -1.9930 -1.1706  1.6014
55737SOL    HW274073   7.573   1.270   8.118  0.1475  1.0475  0.8599
55738SOL     OW74074   1.209  10.826   9.181  0.5944 -0.3787 -0.5643
55738SOL    HW174075   1.214  10.773   9.261 -0.0506  0.0325 -0.2500
55738SOL    HW274076   1.242  10.911   9.208  1.0661 -0.4453 -0.9236
55739SOL     OW74077   3.383   2.371  11.831 -0.4862 -0.3369 -0.2931
55739SOL    HW174078   3.407   2.305  11.896 -0.2804  0.5617  0.5686
55739SOL    HW274079   3.288   2.370  11.828 -0.4780 -0.8355 -0.4679
55740SOL     OW74080  11.820   9.662   5.609  0.4029 -0.0757  0.0910
55740SOL    HW174081  11.772   9.730   5.657  0.1388  1.4397 -2.2078
55740SOL    HW274082  11.751   9.605   5.574  0.5979 -1.1645  1.3646
55741SOL     OW74083   6.323   7.179   8.821  0.6504 -0.0585 -0.2424
55741SOL    HW174084   6.301   7.272   8.826  0.5948 -0.0828 -0.0087
55741SOL    HW274085   6.336   7.162   8.728  0.8356  0.2230 -0.2670
55742SOL     OW74086   5.666   1.614   6.138 -0.4515  0.6552  0.4804
55742SOL    HW174087   5.583   1.569   6.126  0.1199 -0.4143  0.4487
55742SOL    HW274088   5.732   1.545   6.134  0.5250  1.6138 -0.4767
55743SOL     OW74089  12.172  11.314   6.644  0.3335  0.3224 -0.2327
55743SOL    HW174090  12.200  11.374   6.714 -1.0648  1.9264 -0.9821
55743SOL    HW274091  12.198  11.359   6.563 -0.4139 -0.2645 -0.8070
55744SOL     OW74092   8.212   6.216   1.815  0.1076  0.0430  0.0379
55744SOL    HW174093   8.297   6.255   1.836 -0.4244  1.6419 -0.6614
55744SOL    HW274094   8.174   6.274   1.749 -1.8832 -0.1734  0.9127
55745SOL     OW74095   0.355   3.430   0.118  0.0723 -0.4210 -0.5061
55745SOL    HW174096   0.283   3.374   0.091 -0.4736 -0.4228  0.8976
55745SOL    HW274097   0.397   3.383   0.190 -0.7735  1.2117  1.1258
55746SOL     OW74098  12.307   2.979   1.540  0.5547 -0.4927 -0.3375
55746SOL    HW174099  12.225   2.937   1.564 -0.3844  1.0037 -0.7649
55746SOL    HW274100  12.343   3.013   1.622  0.0369  0.0290 -0.3199
55747SOL     OW74101  10.551   9.029   0.800 -0.1930 -0.4282 -0.3959
55747SOL    HW174102  10.577   8.965   0.733 -2.0794 -0.4747 -1.1436
55747SOL    HW274103  10.549   8.979   0.881  1.5510 -0.5135 -0.3762
55748SOL     OW74104  12.407   0.300   4.242 -0.3335  0.0662  0.3238
55748SOL    HW174105  12.473   0.257   4.187  0.2119 -1.0881  1.8195
55748SOL    HW274106  12.323   0.274   4.204  0.0312 -0.5913 -0.0447
55749SOL     OW74107   1.948  10.152   9.794  0.1348  0.2233 -0.0827
55749SOL    HW174108   1.937  10.153   9.889 -1.7779 -1.0006 -0.2436
55749SOL    HW274109   1.898  10.227   9.763  0.0835  0.1495 -0.1791
55750SOL     OW74110   1.744   9.062   8.940 -0.1596  0.2499 -0.7227
55750SOL    HW174111   1.821   9.088   8.888  0.3435 -0.4604 -0.3541
55750SOL    HW274112   1.739   8.967   8.929  0.4087 -0.0377  1.1018
55751SOL     OW74113  10.099   6.353   6.895 -0.9712 -0.2207 -0.1818
55751SOL    HW174114  10.023   6.398   6.857  0.5743  1.7025 -1.1515
55751SOL    HW274115  10.061   6.292   6.959 -3.2363  2.0336  0.7880
55752SOL     OW74116  11.308   8.631   0.042  0.5291 -0.4022  0.1459
55752SOL    HW174117  11.290   8.548  -0.002  0.6468 -0.4742  0.2322
55752SOL    HW274118  11.364   8.678  -0.020 -1.3830  0.5755 -0.9349
55753SOL     OW74119   7.130   1.817   4.004 -0.6008  0.4584  0.1096
55753SOL    HW174120   7.108   1.726   4.021  1.8285 -0.0307  0.9869
55753SOL    HW274121   7.177   1.815   3.920 -0.1150  0.8104  0.3671
55754SOL     OW74122   9.234   8.886   6.492  0.2984 -0.6912 -0.0515
55754SOL    HW174123   9.167   8.840   6.442  0.8082 -0.5832 -0.8447
55754SOL    HW274124   9.314   8.874   6.442  0.7664 -0.3329  0.5920
55755SOL     OW74125  12.389   3.702   8.415 -0.0771  0.0852 -0.2674
55755SOL    HW174126  12.384   3.787   8.459 -0.8100 -0.0837 -0.0144
55755SOL    HW274127  12.460   3.656   8.461  0.0764  0.4227 -0.1653
55756SOL     OW74128   5.621   2.276   7.942 -0.3436 -0.0018  0.2593
55756SOL    HW174129   5.658   2.363   7.927  1.7003 -0.9717 -0.6979
55756SOL    HW274130   5.526   2.289   7.937 -0.0563  2.0042 -0.8292
55757SOL     OW74131   0.003   4.377   5.171 -0.3807  0.1388 -0.3801
55757SOL    HW174132   0.076   4.397   5.231 -1.6824  0.9967  1.0028
55757SOL    HW274133   0.017   4.286   5.146  2.1398  0.7731 -1.6217
55758SOL     OW74134   1.681   2.862   0.717  1.0863 -0.0278 -0.4789
55758SOL    HW174135   1.735   2.928   0.674  3.1465 -0.6647  0.9779
55758SOL    HW274136   1.631   2.822   0.646  1.5414  1.4857 -1.7065
55759SOL     OW74137  10.280   8.196   9.255 -0.7322 -0.5086  0.4951
55759SOL    HW174138  10.290   8.272   9.198  0.8985 -1.3318 -0.3651
55759SOL    HW274139  10.195   8.210   9.298 -1.3007  0.8779 -0.9824
55760SOL     OW74140   4.061  11.553  11.939  0.0347  0.1093 -0.1509
55760SOL    HW174141   4.141  11.573  11.891  0.0027  0.2367 -0.1507
55760SOL    HW274142   4.013  11.635  11.941  1.5215  1.0508  2.9703
55761SOL     OW74143   7.100   8.871   8.375 -0.2854 -0.2406  0.4502
55761SOL    HW174144   7.086   8.810   8.303  2.1807 -0.8308  0.3674
55761SOL    HW274145   7.133   8.951   8.333  2.1023 -0.9090  0.8698
55762SOL     OW74146   6.605   7.623  10.930  0.1785  0.3030  0.5915
55762SOL    HW174147   6.576   7.682  10.861 -0.1494 -0.9243 -0.3512
55762SOL    HW274148   6.600   7.675  11.010  0.0187  1.5739 -0.2276
55763SOL     OW74149   8.397   9.219   0.026 -0.7850 -0.3478 -0.1640
55763SOL    HW174150   8.323   9.258   0.072  0.4036  1.6216  0.1567
55763SOL    HW274151   8.455   9.189   0.096  0.4750  1.5863 -0.3339
55764SOL     OW74152   1.652   3.052   5.613 -0.4612  0.1113 -0.6169
55764SOL    HW174153   1.564   3.078   5.638 -0.8068 -1.3369 -0.2311
55764SOL    HW274154   1.665   3.088   5.525 -1.2958  0.6298 -0.5282
55765SOL     OW74155   1.330  10.538   0.646  0.3964  0.0602 -0.0524
55765SOL    HW174156   1.299  10.615   0.694  0.4760 -0.9965  1.7944
55765SOL    HW274157   1.270  10.469   0.672  0.7219 -0.6573 -1.1738
55766SOL     OW74158   4.468   2.328  10.468  0.0783  0.0790  0.2266
55766SOL    HW174159   4.562   2.321  10.487  0.5655  0.5083 -1.8017
55766SOL    HW274160   4.464   2.354  10.376 -2.0398  0.4790  0.3854
55767SOL     OW74161   4.006   6.816   9.674  0.0180 -0.3677  0.6637
55767SOL    HW174162   3.934   6.853   9.726 -1.0893 -0.5730 -0.6703
55767SOL    HW274163   3.964   6.782   9.595  1.7713  1.0725 -0.9973
55768SOL     OW74164   5.623   4.607   3.753 -0.3248 -0.3527  0.6958
55768SOL    HW174165   5.553   4.543   3.766 -0.4351  0.0621  2.3632
55768SOL    HW274166   5.638   4.645   3.840  1.3156  0.2625  0.1896
55769SOL     OW74167   7.984   6.355   2.662  0.6281  0.1097  0.5897
55769SOL    HW174168   8.068   6.338   2.705  1.1671 -1.7670 -1.0819
55769SOL    HW274169   7.934   6.275   2.674  0.9046 -0.6198 -2.3855
55770SOL     OW74170   3.433   4.953   8.470  0.4322  0.3511  0.0473
55770SOL    HW174171   3.527   4.961   8.454  0.4280 -2.5839 -2.3163
55770SOL    HW274172   3.425   4.945   8.565  2.7463 -0.8453  0.2156
55771SOL     OW74173   6.501   7.082   9.750  0.2313  0.1061 -0.4093
55771SOL    HW174174   6.478   6.994   9.781 -0.3505  0.0790 -0.9063
55771SOL    HW274175   6.468   7.086   9.660 -0.6750  1.1956 -0.0479
55772SOL     OW74176  12.011   6.986  11.101 -1.0616  0.1389  0.2715
55772SOL    HW174177  11.978   6.898  11.117 -0.2666 -0.3143 -0.4830
55772SOL    HW274178  11.988   7.004  11.010 -1.5590  0.8732  0.5337
55773SOL     OW74179  10.832   5.315   1.663  0.1005 -0.4621  0.6465
55773SOL    HW174180  10.918   5.333   1.701 -0.9819  1.5297  2.3701
55773SOL    HW274181  10.772   5.318   1.737 -1.5554 -1.0735 -0.6094
55774SOL     OW74182   3.589   3.045   8.820 -0.1870  0.0857  0.1610
55774SOL    HW174183   3.658   3.009   8.876  0.0131 -0.2665 -0.3073
55774SOL    HW274184   3.510   3.037   8.872  0.0018 -0.2135  0.4095
55775SOL     OW74185   8.137   2.250   0.754  0.5276 -0.7661 -0.2922
55775SOL    HW174186   8.228   2.255   0.785  0.7497 -0.2033 -1.0201
55775SOL    HW274187   8.138   2.180   0.689  0.4662 -0.6743 -0.3911
55776SOL     OW74188   2.021   0.400   0.778  0.4737 -0.1381 -0.3547
55776SOL    HW174189   1.959   0.366   0.713 -1.1022  0.5630  0.7290
55776SOL    HW274190   2.053   0.322   0.823  0.3049 -0.5000 -0.8521
55777SOL     OW74191   5.805   1.836  11.221 -0.3334  0.8965 -0.1825
55777SOL    HW174192   5.830   1.919  11.263  2.3253  0.2020 -0.1991
55777SOL    HW274193   5.716   1.820  11.251  0.3750  1.9154  2.9152
55778SOL     OW74194   2.529   0.389   2.402 -0.2474 -0.3442 -0.2474
55778SOL    HW174195   2.604   0.380   2.460 -0.1414  1.7143  0.0069
55778SOL    HW274196   2.561   0.442   2.329 -1.1080 -0.5554 -0.7910
55779SOL     OW74197   8.534   1.988  10.629  0.2468 -0.5887  0.6741
55779SOL    HW174198   8.517   2.067  10.682 -1.8775  0.6363 -1.6378
55779SOL    HW274199   8.550   2.022  10.541  0.8394 -2.7260 -0.0929
55780SOL     OW74200   1.479   3.801   7.053 -0.2549  0.4366  0.3771
55780SOL    HW174201   1.571   3.794   7.025 -1.0497  0.7276 -2.6902
55780SOL    HW274202   1.454   3.890   7.030 -1.8924 -0.3183 -0.9987
55781SOL     OW74203   7.463  11.898  12.185  0.3269 -0.4414 -0.2936
55781SOL    HW174204   7.538  11.839  12.181 -0.1176 -0.9477 -2.0497
55781SOL    HW274205   7.387  11.840  12.174 -0.3521  0.0470  1.5604
55782SOL     OW74206  12.386   4.706   0.609 -0.1367  0.1248  0.5499
55782SOL    HW174207  12.337   4.624   0.618  0.2802  0.0156  2.2648
55782SOL    HW274208  12.476   4.678   0.593 -0.3063  0.3054 -0.8544
55783SOL     OW74209   2.657   6.417  10.018  0.3703  0.4949 -0.1802
55783SOL    HW174210   2.726   6.366  10.060  1.2826  0.5463 -1.5441
55783SOL    HW274211   2.704   6.480   9.962 -0.7673  1.1332 -0.4618
55784SOL     OW74212   0.484  10.144   4.434 -0.0167 -0.0161 -0.3001
55784SOL    HW174213   0.431  10.201   4.489  0.2262 -0.3026  0.2309
55784SOL    HW274214   0.558  10.199   4.408  0.4385 -0.2048  0.5564
55785SOL     OW74215   4.680   2.799   9.774  0.1547 -0.0247  0.3702
55785SOL    HW174216   4.702   2.876   9.825 -1.1241  0.8054 -0.2792
55785SOL    HW274217   4.707   2.820   9.685 -0.9251  0.0096  0.0378
55786SOL     OW74218   6.578   0.068   0.105 -0.1690  0.6465  0.0093
55786SOL    HW174219   6.496   0.032   0.140  0.7641 -1.7078 -0.0422
55786SOL    HW274220   6.636   0.073   0.181 -0.0071  1.2747 -0.1510
55787SOL     OW74221  10.956   8.735   1.637 -0.1064  0.1597 -0.3940
55787SOL    HW174222  10.865   8.706   1.630 -0.1687  0.1001  0.6015
55787SOL    HW274223  10.968   8.792   1.561 -1.1858  0.7223 -0.1712
55788SOL     OW74224   2.074   6.677   8.270  0.0586 -0.1938 -0.6199
55788SOL    HW174225   1.992   6.721   8.248  1.2436  2.2788 -0.4796
55788SOL    HW274226   2.068   6.660   8.364  0.3047  1.5333 -0.2475
55789SOL     OW74227   6.784   1.285   2.860 -0.3564  0.1283  0.1437
55789SOL    HW174228   6.710   1.274   2.919 -1.8873 -1.3890 -1.9619
55789SOL    HW274229   6.826   1.199   2.857  0.0306  0.3332 -0.5502
55790SOL     OW74230   2.972   6.632   9.191  0.3221 -0.5864  0.0750
55790SOL    HW174231   3.019   6.555   9.222  0.3173 -0.3518  0.6812
55790SOL    HW274232   2.943   6.676   9.270  0.6617  0.2513 -0.2525
55791SOL     OW74233   6.713   7.758   1.638  0.2392  0.3283 -0.2662
55791SOL    HW174234   6.619   7.774   1.646  0.1185  0.4099 -1.6802
55791SOL    HW274235   6.728   7.745   1.544  1.3972 -1.2111  0.0752
55792SOL     OW74236   8.271   5.299   1.634 -0.0592  0.0107  0.0159
55792SOL    HW174237   8.242   5.225   1.688 -0.5479 -1.1861 -1.7881
55792SOL    HW274238   8.198   5.360   1.635 -0.7023 -0.7412 -0.5814
55793SOL     OW74239   0.987   0.673   2.139  0.4810  0.2873  0.3210
55793SOL    HW174240   0.932   0.703   2.211 -1.7405 -0.9634 -0.7640
55793SOL    HW274241   0.964   0.730   2.065 -0.0382 -0.7740 -0.3684
55794SOL     OW74242   7.277  10.761  10.565  0.3072  0.2976  0.0350
55794SOL    HW174243   7.236  10.732  10.483  1.0085 -0.2948 -0.1212
55794SOL    HW274244   7.277  10.856  10.560  0.6795  0.2628 -0.8348
55795SOL     OW74245   9.072  12.467   2.091 -0.2534  0.1858 -0.7112
55795SOL    HW174246   9.158  12.440   2.060  0.2543  1.2511 -0.2684
55795SOL    HW274247   9.011  12.422   2.033  0.6342  0.8887 -2.2559
55796SOL     OW74248   4.724   6.929   9.860  0.1927  0.4578 -0.7601
55796SOL    HW174249   4.699   6.849   9.906  1.0385  0.1649 -0.7980
55796SOL    HW274250   4.796   6.902   9.803  0.1699  1.1494 -1.1195
55797SOL     OW74251   6.935   9.574   2.031 -0.4119  0.0272 -0.2426
55797SOL    HW174252   6.982   9.505   2.079  1.6909  1.4301 -0.1476
55797SOL    HW274253   6.936   9.544   1.940 -0.1906 -0.4088 -0.1002
55798SOL     OW74254  11.135   6.618   4.669  0.1621  0.1020  0.0552
55798SOL    HW174255  11.162   6.564   4.743 -0.0424  0.8751  0.7041
55798SOL    HW274256  11.193   6.591   4.597  1.9154  0.9314  1.1047
55799SOL     OW74257   4.661   4.013   4.962 -0.2974  0.6132 -0.3562
55799SOL    HW174258   4.748   4.055   4.966 -0.1601  0.3483  3.6063
55799SOL    HW274259   4.679   3.923   4.936  0.9995  0.0738  2.0504
55800SOL     OW74260   9.707   5.538   0.951 -0.1248  0.3786 -0.0918
55800SOL    HW174261   9.710   5.527   0.856  0.7729 -0.4041  0.0132
55800SOL    HW274262   9.787   5.585   0.972  0.1470 -0.2803  0.3707
55801SOL     OW74263   2.254  11.558   8.173 -0.0928 -0.1816 -0.3778
55801SOL    HW174264   2.195  11.599   8.109  0.4111 -0.4269 -1.0126
55801SOL    HW274265   2.339  11.601   8.158 -0.0125 -0.1222  0.2421
55802SOL     OW74266   1.068  10.608   2.854  0.0461  0.1819  0.2628
55802SOL    HW174267   1.027  10.622   2.768  1.4301  2.4286 -0.1141
55802SOL    HW274268   1.003  10.558   2.904 -1.1629 -0.4154 -1.7841
55803SOL     OW74269  11.543   7.726   2.535 -0.4893 -0.0923 -0.0133
55803SOL    HW174270  11.580   7.757   2.452 -1.3465 -0.3559 -0.5071
55803SOL    HW274271  11.585   7.642   2.550 -1.0365 -0.4967 -0.6859
55804SOL     OW74272   2.534   0.643   5.073  0.1220  0.5248 -0.1885
55804SOL    HW174273   2.526   0.736   5.097  0.0051  0.2364  0.9456
55804SOL    HW274274   2.592   0.643   4.997  0.8483  1.4665  0.3415
55805SOL     OW74275   9.110   9.213   1.667 -0.1315  0.2068  0.7856
55805SOL    HW174276   9.020   9.245   1.663 -0.7770 -1.0081  3.3465
55805SOL    HW274277   9.132   9.214   1.760  1.9405 -1.0006  0.3774
55806SOL     OW74278   1.404   3.836   9.840 -0.2338  1.0109 -0.0887
55806SOL    HW174279   1.378   3.748   9.867 -1.7543  1.5791  0.4032
55806SOL    HW274280   1.468   3.864   9.906  0.3838  0.2307 -0.3432
55807SOL     OW74281   3.107   9.423  11.247  0.3833 -0.2997 -0.0150
55807SOL    HW174282   3.177   9.411  11.310 -0.8260  0.5207  1.5469
55807SOL    HW274283   3.062   9.339  11.244 -0.5542  0.1022  1.5289
55808SOL     OW74284   3.787   8.184   8.968  0.2375  0.1426 -0.0990
55808SOL    HW174285   3.755   8.134   8.893 -2.4765  3.4955 -1.4558
55808SOL    HW274286   3.879   8.199   8.949 -0.0566 -0.2923 -2.0801
55809SOL     OW74287   3.259  10.916   5.801  0.5502 -0.3387 -0.1223
55809SOL    HW174288   3.346  10.927   5.841  0.4614 -1.5545  0.4511
55809SOL    HW274289   3.200  10.964   5.859  0.6715 -0.5485  0.1767
55810SOL     OW74290  10.467   2.813  11.445 -0.4244  0.5459  0.0780
55810SOL    HW174291  10.547   2.865  11.449  0.5838 -0.8851 -0.2783
55810SOL    HW274292  10.497   2.722  11.453 -2.1653  0.0312  1.3993
55811SOL     OW74293   8.284   7.064   2.969 -0.0200  0.3332 -0.4812
55811SOL    HW174294   8.198   7.077   2.930 -1.3396  1.0054  2.4030
55811SOL    HW274295   8.281   6.975   3.005  0.4653  0.3883 -0.2975
55812SOL     OW74296   1.214   2.785   0.515  0.2143  0.1053 -0.6799
55812SOL    HW174297   1.248   2.791   0.426  0.0019 -1.3266 -0.8706
55812SOL    HW274298   1.121   2.768   0.505  0.2518 -0.4097 -0.1804
55813SOL     OW74299   8.291   7.520   2.871  0.3867  0.0690  0.0667
55813SOL    HW174300   8.235   7.578   2.819 -1.2072 -1.1775  0.2972
55813SOL    HW274301   8.313   7.449   2.811  0.0115 -0.4794  0.5739
55814SOL     OW74302  11.347   2.489   6.450 -0.0711  0.5476  0.0088
55814SOL    HW174303  11.353   2.422   6.519 -1.7691  0.8518  0.4787
55814SOL    HW274304  11.426   2.475   6.398  0.1219 -1.1841  0.6734
55815SOL     OW74305  10.217   4.977   9.531 -0.3603  0.4110 -0.7289
55815SOL    HW174306  10.124   4.955   9.538 -0.5364  1.3587  0.3451
55815SOL    HW274307  10.224   5.063   9.573  1.0129  0.3216 -0.7302
55816SOL     OW74308   9.853   7.642   7.212  0.0246 -0.3448  0.1650
55816SOL    HW174309   9.787   7.677   7.152  0.0850  2.7010  1.7052
55816SOL    HW274310   9.842   7.547   7.206 -1.3423 -0.1333 -3.0378
55817SOL     OW74311   7.503   3.015   2.901 -0.3362 -0.0328  0.0030
55817SOL    HW174312   7.569   2.990   2.965  0.4436  0.8312 -0.4313
55817SOL    HW274313   7.420   3.013   2.949 -0.1616 -2.2087  0.2756
55818SOL     OW74314   2.734   3.772   8.200 -0.4576  0.0558 -0.0820
55818SOL    HW174315   2.687   3.713   8.141 -1.1178 -0.5449  1.0141
55818SOL    HW274316   2.686   3.854   8.196 -1.4433 -0.4547  0.7774
55819SOL     OW74317   2.759   3.656  11.590  0.1061  0.3123 -0.2627
55819SOL    HW174318   2.703   3.666  11.667  1.8896 -0.6232  1.2462
55819SOL    HW274319   2.843   3.695  11.617  0.5621  0.6236 -2.0153
55820SOL     OW74320  11.099   7.016  10.776 -0.4343 -0.4444  0.3825
55820SOL    HW174321  11.058   7.070  10.844  0.0271 -1.0032  1.1252
55820SOL    HW274322  11.034   7.012  10.706 -1.5296 -1.0496  1.3957
55821SOL     OW74323   7.664   0.539  10.550 -0.1252  0.5449 -0.0097
55821SOL    HW174324   7.722   0.487  10.495 -1.3235 -1.8520  0.8508
55821SOL    HW274325   7.591   0.562  10.492  0.1650  0.8335 -0.2633
55822SOL     OW74326   7.731  11.139   7.565 -0.1791  0.6243 -0.0835
55822SOL    HW174327   7.815  11.181   7.544  1.8661 -2.5469  1.0291
55822SOL    HW274328   7.723  11.068   7.502 -2.3213  1.1298 -0.4425
55823SOL     OW74329  11.085   4.830   5.897 -0.6448  0.4135 -0.0110
55823SOL    HW174330  11.128   4.808   5.815 -1.8488 -0.4419 -0.4405
55823SOL    HW274331  11.107   4.922   5.912  0.6457  0.2161 -0.6099
55824SOL     OW74332   3.219   7.366   3.808  0.5336 -0.1596  0.1123
55824SOL    HW174333   3.253   7.303   3.872 -0.3020 -0.5094  0.2256
55824SOL    HW274334   3.126   7.375   3.831  0.6496  1.1430  0.1192
55825SOL     OW74335   2.481  11.174  12.039 -0.4709 -0.4522  0.3320
55825SOL    HW174336   2.465  11.116  11.964  0.0379 -1.1372  0.7478
55825SOL    HW274337   2.576  11.184  12.041 -0.5459  0.3304  0.3242
55826SOL     OW74338   5.422   2.133  11.145  0.7920 -0.2170 -0.1067
55826SOL    HW174339   5.469   2.202  11.099 -1.0664  0.7456 -0.6848
55826SOL    HW274340   5.375   2.086  11.077  1.5050 -1.6680  0.3602
55827SOL     OW74341   0.830  11.247   7.754 -0.4455  0.0548 -0.5814
55827SOL    HW174342   0.853  11.176   7.694 -1.6611  0.1848 -1.2428
55827SOL    HW274343   0.815  11.322   7.696  1.4105  1.0333  0.1546
55828SOL     OW74344   1.005   7.648   3.414 -0.2952  0.2163  0.0326
55828SOL    HW174345   1.027   7.665   3.505  0.8814  1.0880 -0.3974
55828SOL    HW274346   0.959   7.563   3.416  0.6920 -0.3215  1.2940
55829SOL     OW74347   2.097  10.229   7.174 -0.1149  0.4198  0.4873
55829SOL    HW174348   2.188  10.200   7.172 -0.4695 -0.7156  0.2644
55829SOL    HW274349   2.062  10.207   7.088 -1.2349 -1.3558  1.3402
55830SOL     OW74350   0.575  11.088  10.909  0.4705  0.0009  0.0078
55830SOL    HW174351   0.558  11.023  10.841  0.0160  1.7310 -1.6279
55830SOL    HW274352   0.503  11.151  10.901  1.1754  1.0053  1.1470
55831SOL     OW74353  10.946   0.785   6.559  0.1122 -0.0265 -0.9830
55831SOL    HW174354  10.870   0.841   6.542 -2.8892 -3.0867  1.0318
55831SOL    HW274355  10.981   0.816   6.643 -1.4561 -0.9681  0.0602
55832SOL     OW74356   0.112   9.393   7.112  0.2835  0.1749 -0.1949
55832SOL    HW174357   0.065   9.330   7.058  0.8179  1.0114 -1.6772
55832SOL    HW274358   0.148   9.457   7.050  0.5985  1.3859  1.1787
55833SOL     OW74359   8.034   5.398   1.588  0.6528  0.6105  0.0477
55833SOL    HW174360   7.975   5.467   1.559  1.9951  1.9994  0.5134
55833SOL    HW274361   8.008   5.380   1.678 -0.4221 -0.3429 -0.4160
55834SOL     OW74362   0.181   6.261   2.148 -0.3102 -0.2376 -0.1825
55834SOL    HW174363   0.241   6.318   2.101 -1.0741  0.1340 -0.7411
55834SOL    HW274364   0.203   6.173   2.119  1.0761 -0.2903  0.9131
55835SOL     OW74365  10.123   9.749   2.144 -0.2356  0.0706 -0.0955
55835SOL    HW174366  10.120   9.845   2.141  0.4668  0.1100  0.3139
55835SOL    HW274367  10.037   9.721   2.111  0.5289  0.7866 -3.0570
55836SOL     OW74368   7.235   3.054   9.886  0.4107  0.6240  0.3881
55836SOL    HW174369   7.251   3.148   9.885  0.4510  0.6252  0.8143
55836SOL    HW274370   7.142   3.045   9.908  0.3029  0.5737 -0.0860
55837SOL     OW74371  12.117   4.114   1.436  0.0481 -0.3688  0.0437
55837SOL    HW174372  12.165   4.065   1.503  0.6665 -1.5110 -1.1940
55837SOL    HW274373  12.029   4.124   1.472 -0.6593 -3.9915 -0.3238
55838SOL     OW74374   0.607   8.647   7.958 -0.4163  0.2638 -0.5503
55838SOL    HW174375   0.601   8.701   7.879  0.0897  1.5828  0.2845
55838SOL    HW274376   0.679   8.685   8.008 -1.8374  0.6008  1.3781
55839SOL     OW74377   9.464   8.501   0.016 -0.0779  0.2038  0.7195
55839SOL    HW174378   9.557   8.479   0.020  0.0154  0.3709 -0.2180
55839SOL    HW274379   9.450   8.558   0.091  0.2324 -1.0063  1.7196
55840SOL     OW74380   6.730   9.921   4.216 -0.6171  0.2627  0.4626
55840SOL    HW174381   6.697   9.961   4.136 -1.0436  0.1502  0.5804
55840SOL    HW274382   6.808   9.972   4.238 -2.3821  2.5564  1.8519
55841SOL     OW74383  10.020   0.908   2.535 -0.1259 -0.5410  0.1289
55841SOL    HW174384  10.041   0.944   2.449  0.1643 -1.4442 -0.1824
55841SOL    HW274385   9.956   0.970   2.571 -0.3771 -0.2401 -0.7985
55842SOL     OW74386   7.867   8.030   8.052 -0.3513 -0.7329  0.3990
55842SOL    HW174387   7.773   8.029   8.032 -0.0514 -0.4077 -1.1915
55842SOL    HW274388   7.908   7.995   7.973  0.9158 -0.0329  0.7208
55843SOL     OW74389   6.658  10.546   6.427  0.0296 -0.0901  0.1696
55843SOL    HW174390   6.700  10.460   6.438  1.9156  0.7388 -0.2518
55843SOL    HW274391   6.695  10.600   6.496  0.3012  0.9043 -0.7387
55844SOL     OW74392   3.367   5.640   7.460 -0.1054 -0.2584  0.0619
55844SOL    HW174393   3.413   5.604   7.536  2.8086  0.2199 -1.3360
55844SOL    HW274394   3.386   5.733   7.461 -0.0085 -0.2390 -1.2354
55845SOL     OW74395  11.244   8.595   1.170 -0.2568  0.6726  0.2134
55845SOL    HW174396  11.239   8.505   1.202 -1.5353  1.0617  1.2177
55845SOL    HW274397  11.152   8.621   1.157  0.0761  1.9220  0.1967
55846SOL     OW74398   4.564   6.871  10.180 -0.4090  0.4873  0.1962
55846SOL    HW174399   4.496   6.938  10.193  0.6144  1.9357 -1.5210
55846SOL    HW274400   4.520   6.802  10.131 -0.9874  0.7730  0.2965
55847SOL     OW74401   0.965   6.720   9.734  0.0553 -0.3470 -0.0778
55847SOL    HW174402   1.051   6.679   9.723  0.1799 -0.3601  0.8413
55847SOL    HW274403   0.942   6.752   9.647  0.1954 -1.8880 -0.7028
55848SOL     OW74404   9.929   3.612   5.476  0.5020  0.4657  0.0826
55848SOL    HW174405  10.000   3.548   5.475  0.4266  0.3878 -0.5941
55848SOL    HW274406   9.961   3.684   5.422 -1.4178 -1.2266 -3.6794
55849SOL     OW74407   0.098  11.589   2.746 -0.0559 -0.2362 -0.1302
55849SOL    HW174408   0.027  11.649   2.726  0.7769  0.8329  0.0029
55849SOL    HW274409   0.058  11.502   2.745 -1.0763  0.2220 -1.3507
55850SOL     OW74410   8.905   5.911   5.736 -0.5812 -0.6824 -0.9406
55850SOL    HW174411   8.848   5.842   5.701 -2.2406 -0.2953  0.8587
55850SOL    HW274412   8.849   5.988   5.742  0.9120  0.5231 -1.7382
55851SOL     OW74413   6.586   0.196   3.353 -0.2289 -0.0525 -0.2141
55851SOL    HW174414   6.629   0.226   3.433  0.6490 -0.4725 -0.5064
55851SOL    HW274415   6.543   0.114   3.378  1.2277 -0.9390 -0.4703
55852SOL     OW74416   4.309   0.139  10.095 -0.0304 -0.3879  0.2931
55852SOL    HW174417   4.230   0.193  10.086  0.2753  0.1218  0.6509
55852SOL    HW274418   4.306   0.080  10.019  1.1489  2.0770 -1.8200
55853SOL     OW74419   8.333   2.959   4.853  0.7284 -0.3496  0.3536
55853SOL    HW174420   8.425   2.982   4.843  0.9765 -1.4684  0.0056
55853SOL    HW274421   8.318   2.890   4.789 -0.2967 -0.3577  0.5791
55854SOL     OW74422   2.483   3.233   3.764 -0.2784 -0.1530  0.0327
55854SOL    HW174423   2.502   3.167   3.831  1.3650 -0.7813 -0.9763
55854SOL    HW274424   2.498   3.317   3.807 -0.7743 -0.4903  0.8784
55855SOL     OW74425  10.901   6.299   0.132 -0.1297 -0.3770 -0.0115
55855SOL    HW174426  10.991   6.310   0.162 -0.8122  3.3990  1.2030
55855SOL    HW274427  10.903   6.326   0.040  0.1787 -1.9188 -0.4931
55856SOL     OW74428  11.308   6.517   8.270 -0.1043  0.1115 -0.4634
55856SOL    HW174429  11.267   6.541   8.187  1.2253  0.1877 -1.1141
55856SOL    HW274430  11.282   6.425   8.284 -1.3067  0.4480 -0.3372
55857SOL     OW74431   4.385   3.204   6.020 -0.1300 -0.4548  0.1653
55857SOL    HW174432   4.381   3.167   5.931  0.0744 -1.9200  0.7457
55857SOL    HW274433   4.345   3.291   6.011  1.7107  0.3163 -1.7885
55858SOL     OW74434   5.767   5.957   8.930 -1.0079  0.1012  0.1732
55858SOL    HW174435   5.684   5.910   8.926 -1.0388  0.2147 -1.0860
55858SOL    HW274436   5.834   5.888   8.924 -1.0186  0.0668  0.4355
55859SOL     OW74437   2.507   4.362   4.854  0.0915 -0.4912  0.0055
55859SOL    HW174438   2.552   4.327   4.777  1.1671  0.9298 -0.0428
55859SOL    HW274439   2.576   4.377   4.918 -0.8226 -1.9428  1.4142
55860SOL     OW74440  12.196   5.441   2.507 -0.1546 -0.1016  0.7119
55860SOL    HW174441  12.169   5.421   2.597 -0.3687 -0.6285  0.5361
55860SOL    HW274442  12.114   5.454   2.460 -0.0420  0.1802  0.5940
55861SOL     OW74443  10.187   1.370  12.416  0.7929 -0.6416 -0.7536
55861SOL    HW174444  10.160   1.353  12.506  0.6521 -0.3714 -0.7449
55861SOL    HW274445  10.223   1.458  12.418  0.6909 -0.5942 -0.9841
55862SOL     OW74446   7.763   8.505  11.332 -0.0743 -0.2441  0.4061
55862SOL    HW174447   7.853   8.503  11.366  0.6742 -1.4776 -1.4611
55862SOL    HW274448   7.744   8.599  11.321 -0.1998  0.2185  3.5430
55863SOL     OW74449   1.136   7.932   8.187 -0.2678 -0.1218  0.2903
55863SOL    HW174450   1.198   7.927   8.115  0.8342 -1.2271  1.2837
55863SOL    HW274451   1.054   7.959   8.146  0.6485  0.5770 -1.1642
55864SOL     OW74452   2.412   8.371   9.502 -0.1718  0.0169  0.0647
55864SOL    HW174453   2.427   8.346   9.594 -0.4764  0.1402  0.1485
55864SOL    HW274454   2.337   8.430   9.506 -1.1178 -1.1164 -0.4226
55865SOL     OW74455   4.588   6.385   3.894 -0.0981  0.3453 -0.2828
55865SOL    HW174456   4.532   6.369   3.818 -0.6743 -0.0482  0.2155
55865SOL    HW274457   4.662   6.325   3.883  0.8794  1.7311 -1.5775
55866SOL     OW74458   4.773   7.701   1.554 -0.0029  0.6423 -0.2927
55866SOL    HW174459   4.829   7.779   1.553  1.2320 -0.2153 -1.4760
55866SOL    HW274460   4.828   7.632   1.590 -0.8575  0.1431  0.0897
55867SOL     OW74461  10.083   8.485   7.653 -0.0158  0.0367  0.0337
55867SOL    HW174462   9.992   8.454   7.658 -0.1028  0.4135  0.9853
55867SOL    HW274463  10.120   8.437   7.579 -1.4492  1.1263 -1.4450
55868SOL     OW74464   2.812   3.968   9.192 -0.3490  0.3781  0.7053
55868SOL    HW174465   2.819   3.939   9.283  2.4111 -0.8782  0.1995
55868SOL    HW274466   2.774   3.892   9.146  0.1595  0.2367  0.5106
55869SOL     OW74467   1.252   5.775   8.977  0.2480 -0.2808  0.3477
55869SOL    HW174468   1.237   5.797   8.885  1.4057 -1.2879 -0.1082
55869SOL    HW274469   1.281   5.684   8.976  0.7996 -0.1461  1.6520
55870SOL     OW74470   5.584   8.833   6.869 -0.1304  0.2094 -0.6331
55870SOL    HW174471   5.611   8.925   6.878  0.3605 -0.0672  1.4662
55870SOL    HW274472   5.666   8.785   6.867 -0.3974 -0.2835  0.0073
55871SOL     OW74473   8.529   4.916  10.507  0.0565 -0.1686 -0.1299
55871SOL    HW174474   8.624   4.927  10.517  0.5633  1.0317 -4.2664
55871SOL    HW274475   8.492   4.995  10.546  1.1939  1.3032 -1.8179
55872SOL     OW74476   2.095   5.724   9.505  0.2591  0.0103 -0.4092
55872SOL    HW174477   2.158   5.734   9.576  0.0669 -1.7875  0.0896
55872SOL    HW274478   2.033   5.658   9.538  0.9545 -1.9578 -2.7230
55873SOL     OW74479   9.309   8.056   3.207 -0.1736  0.0890  0.3226
55873SOL    HW174480   9.299   8.150   3.192 -0.6559 -0.0164 -0.0424
55873SOL    HW274481   9.338   8.049   3.298  0.1006  0.6016  0.2746
55874SOL     OW74482   6.217   1.122   3.798 -0.5450  0.0420  0.4172
55874SOL    HW174483   6.273   1.109   3.721 -0.5093  0.2074  0.4163
55874SOL    HW274484   6.261   1.189   3.849 -0.2652 -0.4802  0.8735
55875SOL     OW74485   8.123   6.515   7.196 -0.0161 -0.0457 -0.1221
55875SOL    HW174486   8.209   6.555   7.198 -0.0102 -0.0084 -0.9571
55875SOL    HW274487   8.105   6.500   7.104 -0.7857 -0.3143  0.0611
55876SOL     OW74488   7.863  10.190  11.983  0.3613 -0.2353 -0.0224
55876SOL    HW174489   7.944  10.196  12.033 -0.1902  0.2936  0.8262
55876SOL    HW274490   7.813  10.122  12.026  1.0723 -1.8766 -1.6448
55877SOL     OW74491   7.555   8.730   3.617 -0.3402  0.4343  0.3594
55877SOL    HW174492   7.494   8.793   3.579  1.0340  0.7390 -1.4526
55877SOL    HW274493   7.632   8.781   3.640 -0.1943 -0.1836  1.3499
55878SOL     OW74494   1.801   6.785   0.920  0.4005  0.2105 -0.2569
55878SOL    HW174495   1.744   6.764   0.994  0.5441  0.2544 -0.1350
55878SOL    HW274496   1.830   6.875   0.937  0.2605  0.2982 -0.4754
55879SOL     OW74497  12.243   1.169   4.263  0.6283  0.3233 -0.4244
55879SOL    HW174498  12.151   1.164   4.238  0.6706  0.8003 -0.6738
55879SOL    HW274499  12.248   1.120   4.345 -0.0273  1.0727  0.0760
55880SOL     OW74500   8.868   9.536   0.450 -0.3400 -0.1306 -0.0643
55880SOL    HW174501   8.865   9.630   0.436 -0.8074  0.0553  1.2225
55880SOL    HW274502   8.902   9.501   0.367  1.5403  1.3055  0.0372
55881SOL     OW74503   8.111   6.041  12.233 -0.2718  0.2527  0.3105
55881SOL    HW174504   8.135   5.989  12.310  2.3848  1.2717  0.2736
55881SOL    HW274505   8.156   5.997  12.160 -0.0170  1.1871 -0.1102
55882SOL     OW74506  10.605  11.761   1.197 -0.1772  0.6963 -0.0917
55882SOL    HW174507  10.577  11.671   1.212 -0.1960  0.7212  0.0274
55882SOL    HW274508  10.523  11.811   1.197 -0.2986  0.5248 -1.5794
55883SOL     OW74509  11.483   7.956   6.476  0.0558  0.2773  0.0974
55883SOL    HW174510  11.579   7.954   6.473  0.0711  0.6181  0.3754
55883SOL    HW274511  11.462   8.035   6.525 -0.3633 -0.0090  0.3857
55884SOL     OW74512   5.898   6.384   8.032  0.2332 -0.0260  0.6282
55884SOL    HW174513   5.897   6.469   8.077 -0.1461 -0.4853  1.5321
55884SOL    HW274514   5.828   6.334   8.075 -2.0903  0.4164 -2.3513
55885SOL     OW74515   1.225  11.804   1.934  0.3475  0.5434 -0.2615
55885SOL    HW174516   1.264  11.846   2.011  1.5827  0.3162 -0.7445
55885SOL    HW274517   1.132  11.800   1.954  0.7927 -0.9184  1.9356
55886SOL     OW74518   7.506   8.675  11.337  0.0078  0.0869  0.3430
55886SOL    HW174519   7.552   8.758  11.347  0.2791  0.2195 -1.6881
55886SOL    HW274520   7.415   8.695  11.360  0.0903  0.9335 -0.0274
55887SOL     OW74521   3.297   6.001   0.987  0.0331 -0.0744  0.1284
55887SOL    HW174522   3.386   6.037   0.984 -0.2138  0.5273 -0.0378
55887SOL    HW274523   3.242   6.075   1.009 -0.7448  0.1428 -2.2597
55888SOL     OW74524   0.833   9.352   6.691 -0.4413 -0.3277  0.0396
55888SOL    HW174525   0.843   9.260   6.669 -0.5294 -0.7387  1.5734
55888SOL    HW274526   0.900   9.397   6.639  1.9898 -1.6887  1.7815
55889SOL     OW74527   0.508   4.430   2.823 -0.0070 -0.3906 -0.3821
55889SOL    HW174528   0.503   4.505   2.882  1.5609 -0.5895  0.0561
55889SOL    HW274529   0.560   4.462   2.749  0.4914 -0.9798 -0.2882
55890SOL     OW74530   9.854   9.209   9.615 -0.5872 -0.1081 -0.2089
55890SOL    HW174531   9.900   9.290   9.591 -1.3883 -0.0002 -1.4928
55890SOL    HW274532   9.902   9.140   9.570  0.4231 -0.4552  1.3193
55891SOL     OW74533   0.431   4.481   4.028 -0.1660 -0.0410  0.3358
55891SOL    HW174534   0.464   4.391   4.030  0.6123  0.2314  0.2180
55891SOL    HW274535   0.427   4.506   4.121  2.2580  0.7094  0.3088
55892SOL     OW74536   4.184   8.722  10.921  0.2262 -0.3052  0.1258
55892SOL    HW174537   4.171   8.801  10.867 -1.6109 -1.4902 -1.2836
55892SOL    HW274538   4.110   8.666  10.899  0.2059 -1.4854  2.8648
55893SOL     OW74539   4.551   1.870   4.964 -0.4323  0.6159 -0.2212
55893SOL    HW174540   4.525   1.803   4.901 -0.5990  1.7891 -1.4486
55893SOL    HW274541   4.470   1.918   4.982 -1.1743 -1.6705  3.4884
55894SOL     OW74542   2.254   1.885  11.120 -0.0165 -0.1123 -0.0610
55894SOL    HW174543   2.162   1.907  11.105  0.3744  0.3683 -2.0141
55894SOL    HW274544   2.289   1.868  11.033  1.8209 -0.0456  0.6226
55895SOL     OW74545  11.463   9.072   0.590  0.5605 -0.5311  0.6775
55895SOL    HW174546  11.394   9.139   0.581  2.8540  2.1143  1.3680
55895SOL    HW274547  11.475   9.037   0.502 -0.8201 -0.1735  0.3214
55896SOL     OW74548  11.144   0.471   2.369  0.1304  0.1703  0.4083
55896SOL    HW174549  11.158   0.453   2.276 -3.6114 -0.3987 -0.2130
55896SOL    HW274550  11.143   0.567   2.375  2.1818  0.2311  0.2595
55897SOL     OW74551   0.606   7.600  12.442  0.1245 -0.2379 -0.4688
55897SOL    HW174552   0.572   7.685  12.471  2.0181  0.0255  1.2054
55897SOL    HW274553   0.589   7.599  12.348 -0.8846  1.5394 -0.3633
55898SOL     OW74554   4.784  12.009   3.829 -0.1543 -0.3097  0.3395
55898SOL    HW174555   4.714  12.001   3.763  0.4573 -0.7022 -0.2688
55898SOL    HW274556   4.750  12.073   3.892 -0.8633 -0.1320 -0.2104
55899SOL     OW74557   0.020   9.954   0.723  0.2296  0.1540  0.0759
55899SOL    HW174558   0.095   9.955   0.782  0.3023 -1.8468  0.0565
55899SOL    HW274559   0.019   9.866   0.686 -0.5930  0.9390 -1.9221
55900SOL     OW74560  10.774   6.750   5.048  0.5638  0.3682 -0.2147
55900SOL    HW174561  10.744   6.833   5.010  1.6356  1.3034  0.8534
55900SOL    HW274562  10.818   6.705   4.976 -1.2752  0.0574 -1.1745
55901SOL     OW74563   1.096   8.030   5.566 -0.2033  0.0323  0.1469
55901SOL    HW174564   1.159   8.061   5.502  0.0121  0.4388  0.5518
55901SOL    HW274565   1.037   8.104   5.580 -0.0584  0.0637  0.6502
55902SOL     OW74566   0.099   6.795   4.827  0.3378 -0.0218  0.0459
55902SOL    HW174567   0.149   6.727   4.782 -0.8397  0.1420 -1.6071
55902SOL    HW274568   0.128   6.877   4.787 -0.5288  0.1518 -0.2555
55903SOL     OW74569  11.394  10.054   7.441  0.7017 -0.1636  0.2043
55903SOL    HW174570  11.436   9.968   7.445 -0.3136 -0.8778 -2.5180
55903SOL    HW274571  11.436  10.099   7.368 -0.6310  0.5834 -0.1451
55904SOL     OW74572   9.475   7.441   7.820  0.4862 -0.1429  0.1014
55904SOL    HW174573   9.544   7.420   7.883 -0.0634 -1.1358  0.4028
55904SOL    HW274574   9.417   7.364   7.822 -1.0111  0.9489  0.3962
55905SOL     OW74575   0.960   9.677   0.623 -1.0157 -0.3104  0.0023
55905SOL    HW174576   0.888   9.726   0.582 -0.5818  0.3670  0.0369
55905SOL    HW274577   0.992   9.620   0.554 -1.5664 -0.6007 -0.0225
55906SOL     OW74578   3.816   8.042   0.340  0.2648  0.0927 -0.1347
55906SOL    HW174579   3.849   7.985   0.409  0.8306  0.2084 -0.3070
55906SOL    HW274580   3.887   8.047   0.276 -0.2009  0.0946 -0.6609
55907SOL     OW74581   4.438   3.250  11.681 -0.7337  0.0741  0.5212
55907SOL    HW174582   4.463   3.283  11.768 -0.3524 -1.3969  1.0035
55907SOL    HW274583   4.491   3.301  11.620  0.0994  0.1208  1.2646
55908SOL     OW74584   2.014   6.346   2.429  0.1577 -0.1183 -0.1992
55908SOL    HW174585   1.950   6.288   2.470  0.2059  1.0700  1.6598
55908SOL    HW274586   2.091   6.290   2.415  0.1387 -0.5891  1.3884
55909SOL     OW74587   2.984   5.406  10.889 -0.1241  0.0853 -0.1003
55909SOL    HW174588   3.014   5.416  10.980 -1.0246 -0.3041  0.2492
55909SOL    HW274589   2.956   5.315  10.884 -3.7425  1.0317  0.3812
55910SOL     OW74590   0.282  11.120   6.230  0.1025 -0.0497  0.0493
55910SOL    HW174591   0.252  11.040   6.273 -1.2648 -0.1787 -1.0748
55910SOL    HW274592   0.203  11.174   6.222  0.5841  0.5281 -1.0378
55911SOL     OW74593   6.977   9.124   2.112  0.5631 -0.4686 -0.5290
55911SOL    HW174594   6.987   9.037   2.152 -0.2429  0.3736  1.6565
55911SOL    HW274595   6.904   9.114   2.051 -0.4772 -1.0590  0.7405
55912SOL     OW74596   9.193   9.549  10.338 -0.5614 -0.0148 -0.0441
55912SOL    HW174597   9.264   9.500  10.379  0.3891  0.0997 -1.4816
55912SOL    HW274598   9.183   9.510  10.251 -0.4900  1.6259 -0.8391
55913SOL     OW74599   7.378   3.781  10.537 -0.8638 -0.0023  0.0133
55913SOL    HW174600   7.301   3.836  10.527 -0.1632  0.8822 -0.6542
55913SOL    HW274601   7.452   3.842  10.538 -0.1693 -0.8224  0.7144
55914SOL     OW74602   5.072   1.157  10.973 -0.1257 -0.3263  0.0622
55914SOL    HW174603   5.135   1.094  10.938 -1.0443 -0.8465 -0.6910
55914SOL    HW274604   5.075   1.144  11.068  0.5433 -0.6737 -0.0002
55915SOL     OW74605  10.294   7.698   6.201  0.2703 -0.3833  0.4059
55915SOL    HW174606  10.337   7.783   6.209 -0.5203  0.0121  0.6015
55915SOL    HW274607  10.286   7.683   6.106 -0.2717  0.1244  0.3672
55916SOL     OW74608   0.558   1.014   3.792 -0.1456 -0.3521 -0.1231
55916SOL    HW174609   0.608   0.932   3.797 -0.2481 -0.5807 -2.2049
55916SOL    HW274610   0.479   0.991   3.743 -0.4828  0.8721 -0.1808
55917SOL     OW74611   5.690   6.759  11.979  0.3406  0.3647  0.0986
55917SOL    HW174612   5.648   6.694  11.922  0.3920  2.3418 -2.4090
55917SOL    HW274613   5.784   6.746  11.965  0.5609 -1.3027  2.4632
55918SOL     OW74614   6.839   2.218   2.975 -0.1429 -0.0106  0.0969
55918SOL    HW174615   6.852   2.134   2.933 -0.2084 -0.2938  0.6358
55918SOL    HW274616   6.807   2.275   2.906  0.4236 -0.2837 -0.3940
55919SOL     OW74617   9.666  11.366   4.319  0.0872 -0.3009 -0.2817
55919SOL    HW174618   9.675  11.460   4.332 -1.0678  0.0160 -1.5918
55919SOL    HW274619   9.750  11.330   4.350  1.7979  1.4460 -2.5263
55920SOL     OW74620   2.088   7.850   9.803 -0.3528  0.2153 -0.3042
55920SOL    HW174621   2.106   7.847   9.897  0.7959 -0.4705 -0.5188
55920SOL    HW274622   2.008   7.798   9.793 -0.3649  0.1086  0.2728
55921SOL     OW74623   3.945   9.733   0.024 -0.0711 -0.2326 -0.1156
55921SOL    HW174624   3.977   9.756   0.112  2.4490  2.3434 -1.5109
55921SOL    HW274625   3.965   9.640   0.015  2.9658  0.2114  0.8693
55922SOL     OW74626   6.024   2.133   6.658 -0.1635 -0.3248  0.8455
55922SOL    HW174627   5.935   2.156   6.685 -0.9025 -0.1986 -1.4727
55922SOL    HW274628   6.015   2.108   6.566  2.4247  1.1123  0.1147
55923SOL     OW74629   7.222  10.647  11.233 -0.2094 -0.4868 -0.2921
55923SOL    HW174630   7.273  10.694  11.168 -0.9443  0.8085  0.0374
55923SOL    HW274631   7.280  10.577  11.263  1.2845  0.7927 -0.0831
55924SOL     OW74632   0.504   3.717   5.219 -0.0837 -0.1231  0.2887
55924SOL    HW174633   0.525   3.726   5.311  1.0149  0.5017 -0.0042
55924SOL    HW274634   0.572   3.767   5.173  0.2426 -1.5793 -0.9215
55925SOL     OW74635  10.058   9.175   2.731  0.0616  0.1048 -0.1662
55925SOL    HW174636   9.970   9.204   2.710 -0.3686 -0.7341  0.4221
55925SOL    HW274637  10.107   9.185   2.649 -0.0179  2.4912 -0.0020
55926SOL     OW74638  12.025   3.943   3.801  0.1441  0.1111  0.1211
55926SOL    HW174639  12.095   3.924   3.739 -0.1023  1.2825 -0.5466
55926SOL    HW274640  12.039   3.882   3.874  0.9158 -0.7311 -0.7137
55927SOL     OW74641  12.299  10.767   9.214 -0.0759 -0.6383 -0.4040
55927SOL    HW174642  12.286  10.685   9.167 -0.6039  0.2742 -1.9228
55927SOL    HW274643  12.212  10.806   9.221  0.2784  0.2057 -0.5105
55928SOL     OW74644   4.385   3.923   8.477 -0.4651 -0.7745 -0.9595
55928SOL    HW174645   4.366   4.017   8.472  1.5394 -0.2252  0.3613
55928SOL    HW274646   4.421   3.902   8.390 -2.7320 -0.8530 -1.9529
55929SOL     OW74647   2.999  12.131   3.379 -0.2446 -0.3776 -0.4649
55929SOL    HW174648   2.909  12.103   3.391 -1.1236  2.5248  0.5872
55929SOL    HW274649   3.041  12.118   3.464 -0.8683  1.9028  0.2623
55930SOL     OW74650   4.816   2.788   8.157 -0.2934 -0.6554  0.0258
55930SOL    HW174651   4.850   2.701   8.138 -0.7146 -0.6744 -0.6995
55930SOL    HW274652   4.889   2.847   8.141 -0.8099 -0.5884 -2.5541
55931SOL     OW74653  11.076   6.931   9.048 -0.2164 -0.1843 -0.3370
55931SOL    HW174654  11.127   6.986   9.107 -1.7573  0.9582 -0.0090
55931SOL    HW274655  11.017   6.883   9.106 -1.1820  0.3423 -0.8614
55932SOL     OW74656   3.810  11.927  10.862  0.0168  0.5759  0.2784
55932SOL    HW174657   3.722  11.891  10.854  0.5258 -0.4625 -0.9401
55932SOL    HW274658   3.839  11.940  10.772  0.8790  1.5214  0.6672
55933SOL     OW74659   2.787   9.856   0.521  0.5223  0.5272  0.3133
55933SOL    HW174660   2.830   9.929   0.564 -0.2727  1.4272 -0.3887
55933SOL    HW274661   2.701   9.889   0.497  0.3755 -0.4330 -0.5825
55934SOL     OW74662   2.724   5.305   0.170  0.5053 -0.2084 -0.3462
55934SOL    HW174663   2.810   5.272   0.197 -0.4016 -1.6463  0.8701
55934SOL    HW274664   2.693   5.241   0.106 -0.0356 -0.1833 -0.1135
55935SOL     OW74665   9.393   2.287   7.540  0.3527 -0.1671 -0.5510
55935SOL    HW174666   9.422   2.341   7.467  1.2167  0.3606  0.1580
55935SOL    HW274667   9.297   2.292   7.538  0.3785  0.0867 -1.4479
55936SOL     OW74668   8.535   9.239   3.642  0.0682  0.8776 -0.4491
55936SOL    HW174669   8.515   9.249   3.735 -1.9327  3.6958 -1.0245
55936SOL    HW274670   8.450   9.236   3.599  0.8244  3.4158 -2.3934
55937SOL     OW74671   6.152  12.423   3.918 -0.2583  0.1172  0.8329
55937SOL    HW174672   6.237  12.401   3.956 -0.6028 -0.3826  1.3268
55937SOL    HW274673   6.090  12.365   3.961 -0.9151  0.7484  0.7660
55938SOL     OW74674   3.697   8.268  10.155 -0.0044 -0.3935  0.0058
55938SOL    HW174675   3.719   8.176  10.171  1.4778 -0.0125  0.3313
55938SOL    HW274676   3.699   8.309  10.241  1.0385  0.2611 -0.3034
55939SOL     OW74677   8.199   3.842   5.379  0.9084  0.0687  0.1352
55939SOL    HW174678   8.176   3.785   5.453  0.1095  0.2294  0.0212
55939SOL    HW274679   8.182   3.788   5.301  0.1822  0.4380  0.0280
55940SOL     OW74680   5.754  10.185   3.327 -0.8501  0.7303  0.2419
55940SOL    HW174681   5.801  10.115   3.282 -2.6617  0.1329 -0.8215
55940SOL    HW274682   5.821  10.228   3.381  1.1529  0.5767 -1.9344
55941SOL     OW74683   7.829  11.292   7.142  0.5968  0.1898 -0.4085
55941SOL    HW174684   7.908  11.247   7.173  0.5929  1.0909  0.9927
55941SOL    HW274685   7.764  11.223   7.134  1.0268 -0.2947  0.1886
55942SOL     OW74686   6.094   9.141   9.726  0.1624 -0.4508 -0.1417
55942SOL    HW174687   6.019   9.186   9.688  1.1542 -0.0189 -1.6990
55942SOL    HW274688   6.164   9.206   9.726  1.5098 -1.7662 -2.0504
55943SOL     OW74689   9.701   5.495  10.138 -0.1068  0.2356  0.6768
55943SOL    HW174690   9.650   5.505  10.058 -0.5205  1.6662  1.0894
55943SOL    HW274691   9.644   5.528  10.208  1.1769  1.4994  1.2055
55944SOL     OW74692   8.383   0.240  11.328  0.2970 -0.9624  0.2701
55944SOL    HW174693   8.333   0.280  11.258  0.1405 -0.1470  0.8239
55944SOL    HW274694   8.318   0.202  11.386  0.3243 -0.2957  0.7556
55945SOL     OW74695   4.069   4.275   1.361 -0.2837 -0.2659  0.3810
55945SOL    HW174696   4.036   4.241   1.444 -1.5718  0.0043 -0.0042
55945SOL    HW274697   4.159   4.301   1.380 -0.9711  1.0807  2.0556
55946SOL     OW74698  10.654   2.040   2.623 -0.3838 -0.0180 -0.3125
55946SOL    HW174699  10.586   2.107   2.628  0.1067  0.5232 -0.6746
55946SOL    HW274700  10.678   2.036   2.530  0.2935  0.0369 -0.1499
55947SOL     OW74701   4.061   9.990   1.968  0.4511 -0.2900  0.6228
55947SOL    HW174702   4.044   9.917   2.028  2.5096 -0.2700  1.3107
55947SOL    HW274703   4.119  10.049   2.018  0.9260  0.5197 -0.8338
55948SOL     OW74704  10.961   8.541   7.457 -0.1332 -0.3299  0.5358
55948SOL    HW174705  10.887   8.483   7.473 -0.6672 -0.7092 -2.6781
55948SOL    HW274706  10.924   8.613   7.405  1.7771 -0.9372 -1.8813
55949SOL     OW74707  10.369  10.778   0.076 -0.1390  0.0641 -0.0955
55949SOL    HW174708  10.345  10.789   0.168  1.0490 -3.4257  0.7692
55949SOL    HW274709  10.319  10.702   0.047 -0.3082  0.9516 -2.3357
55950SOL     OW74710   9.326   0.333  10.097  0.4096 -0.3826 -0.2535
55950SOL    HW174711   9.255   0.281  10.134  0.5211 -0.3294  0.0361
55950SOL    HW274712   9.292   0.423  10.096  1.4509  0.1332  2.4766
55951SOL     OW74713   8.743   4.036   9.801  0.9308  0.2993 -0.3004
55951SOL    HW174714   8.754   4.066   9.891 -1.7889  0.2855  0.1340
55951SOL    HW274715   8.779   3.947   9.800 -1.2743 -0.7107  1.5436
55952SOL     OW74716  10.244   0.232   8.710  0.1061 -0.0234  0.5985
55952SOL    HW174717  10.317   0.285   8.676  1.1927 -1.9490 -0.1980
55952SOL    HW274718  10.169   0.256   8.656  0.9407 -0.3812 -0.7504
55953SOL     OW74719   2.875   4.021  11.713  0.2054 -0.3758  0.0156
55953SOL    HW174720   2.941   4.065  11.659  0.5250  1.0171  1.4657
55953SOL    HW274721   2.880   3.929  11.687  3.9114 -0.6915  1.1778
55954SOL     OW74722   1.855   9.134   3.813  0.3254 -0.3153 -0.0889
55954SOL    HW174723   1.777   9.160   3.764 -0.2994  0.9691  1.4889
55954SOL    HW274724   1.843   9.172   3.900  3.1818  0.8058 -0.0600
55955SOL     OW74725   7.319   6.318   6.926  0.4995 -0.3107 -0.5992
55955SOL    HW174726   7.412   6.337   6.916  0.4041 -0.4531 -2.0291
55955SOL    HW274727   7.287   6.308   6.836 -0.9592  0.0429 -0.1503
55956SOL     OW74728   8.112   9.562   9.089  0.2869  0.0741  0.0688
55956SOL    HW174729   8.111   9.469   9.113  1.0042  0.3210  1.1509
55956SOL    HW274730   8.156   9.565   9.005  0.0572 -0.5894 -0.0785
55957SOL     OW74731   1.380   9.690   7.425 -0.4564  0.1566 -0.2459
55957SOL    HW174732   1.353   9.761   7.483  1.1499  0.9295 -0.3951
55957SOL    HW274733   1.396   9.733   7.341  1.6919 -0.1120 -0.0383
55958SOL     OW74734   5.571   3.385  10.756 -0.3877  0.0461 -0.6818
55958SOL    HW174735   5.610   3.401  10.670  1.3359  2.4743  0.4343
55958SOL    HW274736   5.505   3.453  10.765 -0.2488  0.0861  0.0758
55959SOL     OW74737   2.552   3.805   2.180  0.3363  0.4047  0.4968
55959SOL    HW174738   2.593   3.883   2.144 -1.2059  1.8346  1.7229
55959SOL    HW274739   2.475   3.837   2.227  0.2342 -1.7379  1.9335
55960SOL     OW74740  11.507  11.364  11.122 -0.4111 -0.3020  0.2260
55960SOL    HW174741  11.422  11.321  11.115 -0.7412  0.4960 -1.0319
55960SOL    HW274742  11.570  11.294  11.102 -0.7760 -0.8377  0.9170
55961SOL     OW74743   6.677   5.730   0.368  0.2583 -0.2251 -0.3150
55961SOL    HW174744   6.627   5.811   0.372 -1.0798 -1.0113 -0.2185
55961SOL    HW274745   6.689   5.714   0.274  1.1448  0.4287 -0.3232
55962SOL     OW74746   7.936  11.889   2.432 -0.0994  0.5745 -0.6637
55962SOL    HW174747   7.905  11.966   2.479  1.3956 -0.1110  1.6194
55962SOL    HW274748   7.995  11.846   2.493 -0.1843 -1.9186 -2.2011
55963SOL     OW74749   2.213  12.053   2.765  0.2812  0.4852  0.1352
55963SOL    HW174750   2.264  11.991   2.817  0.5901  0.4491 -0.2073
55963SOL    HW274751   2.179  12.001   2.693  0.3883  0.6741 -0.0516
55964SOL     OW74752   4.120  12.443   6.676  0.2726  0.5607 -0.2033
55964SOL    HW174753   4.200  12.464   6.628  0.3876  1.4478  0.3367
55964SOL    HW274754   4.150  12.421   6.764 -0.0076 -0.0458 -0.2571
55965SOL     OW74755   7.074   7.020   0.285 -0.1452 -0.5351  0.0079
55965SOL    HW174756   7.108   6.969   0.358  0.0660  0.7863  0.8527
55965SOL    HW274757   7.139   7.008   0.216  2.0678  1.7978  1.5267
55966SOL     OW74758   6.643   8.205   6.228  0.7301  0.0276 -0.2867
55966SOL    HW174759   6.713   8.238   6.171 -0.6079 -0.2434 -2.1660
55966SOL    HW274760   6.585   8.280   6.241  0.8564  0.0008  0.4971
55967SOL     OW74761   8.538  11.097   2.196  0.1489 -0.1188 -0.3875
55967SOL    HW174762   8.520  11.114   2.289 -2.8529 -0.9208 -0.7125
55967SOL    HW274763   8.567  11.006   2.194 -0.1527 -0.2218 -0.2471
55968SOL     OW74764   3.047  10.541   1.553 -0.5804 -0.1736  0.2140
55968SOL    HW174765   3.093  10.509   1.475 -0.5070  1.4720 -0.4398
55968SOL    HW274766   2.967  10.580   1.520 -1.6619 -1.4562  1.2021
55969SOL     OW74767   0.404  12.253   8.666  0.3932  0.2986  0.2450
55969SOL    HW174768   0.325  12.252   8.613 -0.1622 -1.4636  1.0269
55969SOL    HW274769   0.379  12.299   8.746 -0.0078 -0.6257  0.6720
55970SOL     OW74770  11.207   1.078   1.268 -0.1950  0.0275  0.0587
55970SOL    HW174771  11.119   1.096   1.234 -0.8858 -0.7480  1.3298
55970SOL    HW274772  11.191   1.031   1.350  1.4181 -0.0438  0.3585
55971SOL     OW74773   0.734   4.759   8.179 -0.1788 -0.2315  0.0935
55971SOL    HW174774   0.671   4.723   8.116  0.1479  1.0930 -1.0198
55971SOL    HW274775   0.789   4.684   8.203  0.9075 -0.4474 -2.6750
55972SOL     OW74776   2.995   3.696   4.144 -0.4245 -0.3026  0.3676
55972SOL    HW174777   3.031   3.737   4.066 -1.5928  0.0901  0.0187
55972SOL    HW274778   2.912   3.658   4.116 -1.2129  0.4582  1.5623
55973SOL     OW74779   0.758   6.029   7.632  0.3004 -0.0553  0.2229
55973SOL    HW174780   0.839   6.074   7.609  0.5208 -0.3295  0.4674
55973SOL    HW274781   0.726   5.993   7.548  2.7000 -3.7350  0.6350
55974SOL     OW74782   8.621  12.000   6.242 -0.3594 -0.7788 -0.1082
55974SOL    HW174783   8.621  12.094   6.261  0.0225 -0.5670 -1.0501
55974SOL    HW274784   8.565  11.961   6.308  0.8860 -0.1156  1.3899
55975SOL     OW74785  10.875   5.770   2.606 -0.4174 -0.3799  0.4150
55975SOL    HW174786  10.893   5.850   2.656 -0.4041  0.5014 -0.9511
55975SOL    HW274787  10.953   5.757   2.553 -0.9992 -0.4678 -0.4423
55976SOL     OW74788  10.625   5.170   0.627  0.1144 -0.1954  0.1013
55976SOL    HW174789  10.533   5.161   0.600  0.0674  0.8780 -0.1347
55976SOL    HW274790  10.675   5.155   0.546  0.0131  2.0157 -0.4238
55977SOL     OW74791   3.674   7.399   2.334  0.0578 -0.1589  0.2037
55977SOL    HW174792   3.658   7.310   2.302 -0.8918  0.4770 -1.1616
55977SOL    HW274793   3.718   7.443   2.261 -1.3269  1.0652  0.0850
55978SOL     OW74794   2.793   0.060   2.725  0.1689  0.2113  0.1273
55978SOL    HW174795   2.719   0.035   2.670  0.7987  0.6115 -0.9271
55978SOL    HW274796   2.806  -0.015   2.783  0.8451 -1.1580 -1.7081
55979SOL     OW74797  10.886   4.485   0.414  0.2722  0.7070  0.0531
55979SOL    HW174798  10.917   4.398   0.387 -0.0921  0.7552 -0.5262
55979SOL    HW274799  10.897   4.485   0.509 -0.6523 -0.3559  0.1872
55980SOL     OW74800   8.883  10.665   0.217  0.2485  0.6289  0.3582
55980SOL    HW174801   8.858  10.670   0.125 -0.8954 -0.5328  0.5780
55980SOL    HW274802   8.910  10.754   0.239 -0.5769  1.1913 -0.8024
55981SOL     OW74803   0.829   6.963   7.206  0.2820  0.0302  0.2975
55981SOL    HW174804   0.912   6.951   7.162 -0.3482  2.0917 -1.6593
55981SOL    HW274805   0.763   6.937   7.142 -0.6251  0.7677  0.8944
55982SOL     OW74806   9.621   8.029  10.410 -0.4203 -0.3793 -0.6610
55982SOL    HW174807   9.571   7.992  10.337 -2.5424 -1.1520  1.0774
55982SOL    HW274808   9.565   8.098  10.445  1.8743  2.1013 -1.5382
55983SOL     OW74809   3.228   1.856   2.073 -0.3334  0.5401 -0.1213
55983SOL    HW174810   3.163   1.894   2.132  0.8148 -0.0524  1.5831
55983SOL    HW274811   3.245   1.924   2.008  0.4772  2.3461  1.8923
55984SOL     OW74812   9.750   6.780  11.039 -0.1490 -0.0616  0.4201
55984SOL    HW174813   9.770   6.862  11.084  0.4158  0.1761 -0.2460
55984SOL    HW274814   9.750   6.714  11.109  3.0163 -0.1002  0.5515
55985SOL     OW74815   3.328   7.701   0.871  0.1941  0.0445 -0.0265
55985SOL    HW174816   3.359   7.736   0.788 -0.3780 -1.1059 -0.7512
55985SOL    HW274817   3.399   7.642   0.899 -1.3490 -2.9085 -1.8887
55986SOL     OW74818  11.765   1.659  10.102  0.5358  0.6597  0.3615
55986SOL    HW174819  11.695   1.597  10.119  0.2632  0.7679 -0.3244
55986SOL    HW274820  11.843   1.605  10.091 -0.0526  0.2026 -2.3342
55987SOL     OW74821   6.414   7.714   6.652  0.2437 -0.3808 -0.1596
55987SOL    HW174822   6.479   7.654   6.689  2.0996  1.9910  0.7257
55987SOL    HW274823   6.452   7.741   6.568  0.5041  1.0459  0.3793
55988SOL     OW74824   8.635   4.659   4.881  0.4781  0.4018  0.6287
55988SOL    HW174825   8.701   4.677   4.814  0.3592 -0.7883  0.1668
55988SOL    HW274826   8.551   4.665   4.836  0.4652 -2.5103  0.0713
55989SOL     OW74827  10.963   1.599   8.976 -0.5316 -0.2065 -0.1385
55989SOL    HW174828  10.875   1.626   9.003 -0.2473  0.1452  0.4627
55989SOL    HW274829  11.019   1.672   9.002  0.0959 -0.8972  0.4753
55990SOL     OW74830   7.308   7.962   6.027 -0.0332 -0.2157  0.2427
55990SOL    HW174831   7.305   8.056   6.009  0.7257 -0.4202 -1.1344
55990SOL    HW274832   7.301   7.955   6.122 -0.1260  1.2288  0.3623
55991SOL     OW74833   7.681  12.084   0.787  0.1780 -0.1760 -0.6401
55991SOL    HW174834   7.719  12.137   0.717 -0.6957 -0.1062 -1.0750
55991SOL    HW274835   7.726  12.000   0.781  0.3256 -0.0682 -1.0885
55992SOL     OW74836   9.409   2.439   8.337  0.1619  0.1318  0.2475
55992SOL    HW174837   9.396   2.373   8.405 -1.8736  0.6860  0.4337
55992SOL    HW274838   9.400   2.390   8.255  2.9013 -0.5933  0.2735
55993SOL     OW74839   6.512   6.035   9.960  0.3946  0.4988  0.4650
55993SOL    HW174840   6.535   6.002   9.873 -1.8148  1.3556 -0.5359
55993SOL    HW274841   6.433   5.986   9.983  1.0919  0.1019  2.1412
55994SOL     OW74842   9.727   2.502   1.668  0.2536 -0.3727  0.5910
55994SOL    HW174843   9.795   2.482   1.732 -0.3941 -0.0746  1.3910
55994SOL    HW274844   9.669   2.562   1.714  0.7504  1.2975 -0.8835
55995SOL     OW74845   4.099  11.677   6.065 -0.6323 -0.5621  0.6599
55995SOL    HW174846   4.054  11.627   5.996 -1.9397 -0.3116  1.2911
55995SOL    HW274847   4.054  11.761   6.067  0.5224  0.0705  0.6723
55996SOL     OW74848   1.792   0.864   7.357 -0.2476 -0.1455 -0.2968
55996SOL    HW174849   1.799   0.797   7.288  0.4479  0.3628 -0.7351
55996SOL    HW274850   1.698   0.868   7.377 -0.3138 -1.1387 -0.3699
55997SOL     OW74851   0.368   5.491   2.441  0.6586  0.3659 -0.5083
55997SOL    HW174852   0.381   5.418   2.501 -0.7893  2.0433  2.0440
55997SOL    HW274853   0.444   5.547   2.454  0.8830  0.2137 -1.1128
55998SOL     OW74854   0.125   5.057   0.803 -0.6436 -0.2140  0.0370
55998SOL    HW174855   0.165   5.110   0.871  1.9239  1.0773 -2.2874
55998SOL    HW274856   0.147   4.966   0.827  1.4236  0.2944  0.2685
55999SOL     OW74857   3.385  11.034   3.060 -0.4106 -0.1319  0.2530
55999SOL    HW174858   3.336  10.959   3.028  0.0336 -0.9317  1.3735
55999SOL    HW274859   3.410  11.010   3.149  4.0055 -0.7761 -0.9431
56000SOL     OW74860   5.167   1.401   3.300 -0.0850 -0.1159 -0.3443
56000SOL    HW174861   5.192   1.352   3.378 -0.6444 -0.4953 -0.3989
56000SOL    HW274862   5.249   1.412   3.251 -0.0374 -1.4678 -0.6027
56001SOL     OW74863   4.783   8.765   5.503 -0.5760 -0.1886  0.8066
56001SOL    HW174864   4.873   8.736   5.519 -0.0468  0.7029 -0.4282
56001SOL    HW274865   4.762   8.731   5.416 -1.1573  0.2676  0.7634
56002SOL     OW74866   3.428   4.124  10.096  0.2747 -0.7470  0.2516
56002SOL    HW174867   3.399   4.064  10.165 -1.3017 -1.6620 -1.1195
56002SOL    HW274868   3.497   4.176  10.137  1.7460 -3.4783  1.5248
56003SOL     OW74869   7.213   8.944   6.484 -0.1705  0.3643  0.6143
56003SOL    HW174870   7.296   8.953   6.531 -0.5957 -0.0355  1.4799
56003SOL    HW274871   7.173   9.031   6.489 -0.3303  0.2621  1.2453
56004SOL     OW74872   9.865   5.047   3.384  0.0530  0.4542  0.1187
56004SOL    HW174873   9.912   5.129   3.402  0.6883 -0.0468  0.8082
56004SOL    HW274874   9.807   5.069   3.311  1.9997  0.8671 -1.3989
56005SOL     OW74875   9.791  10.909   4.387  0.0176  0.5446  0.0997
56005SOL    HW174876   9.806  10.990   4.339  0.0371  0.7854  0.5054
56005SOL    HW274877   9.877  10.867   4.392  0.1547  0.8617  0.5270
56006SOL     OW74878   9.195   2.094   3.559  0.4642  0.9248  0.3350
56006SOL    HW174879   9.146   2.064   3.635  0.7692  1.3102  0.6868
56006SOL    HW274880   9.282   2.055   3.569 -0.0299 -0.5469 -0.7849
56007SOL     OW74881   3.540   9.159  11.643 -0.1366 -0.2235  0.4274
56007SOL    HW174882   3.571   9.114  11.722  1.3610  2.2543  1.3669
56007SOL    HW274883   3.618   9.201  11.607 -1.5432  2.4677  0.2521
56008SOL     OW74884   2.211   4.149   1.471  0.3564  0.2995  0.3618
56008SOL    HW174885   2.243   4.232   1.435  0.0182  0.1367 -0.3366
56008SOL    HW274886   2.267   4.082   1.431 -1.2061 -0.0489 -1.3886
56009SOL     OW74887  11.456   2.414   0.172 -0.0034 -0.2765 -0.6933
56009SOL    HW174888  11.422   2.499   0.201  1.5339  0.5823 -1.2657
56009SOL    HW274889  11.391   2.383   0.109 -1.3356 -0.2504  0.6209
56010SOL     OW74890   8.334   5.902   9.087 -0.4871 -0.0874 -0.1270
56010SOL    HW174891   8.379   5.949   9.016 -0.4715  1.3592  0.8057
56010SOL    HW274892   8.261   5.959   9.112 -0.2439 -0.3508  1.2932
56011SOL     OW74893   9.919   6.151   3.045 -0.0643  0.3980 -0.3509
56011SOL    HW174894   9.994   6.109   3.088  1.1392  0.9480 -1.8106
56011SOL    HW274895   9.885   6.084   2.987 -1.6789 -0.3396  1.3569
56012SOL     OW74896  11.381   9.567   8.491 -0.2918 -0.4907  0.3294
56012SOL    HW174897  11.457   9.603   8.535 -0.0078 -0.7612  0.0674
56012SOL    HW274898  11.323   9.642   8.477 -0.2089 -0.3390  0.8009
56013SOL     OW74899   1.084  11.301  11.423 -0.1278  0.3582 -0.1677
56013SOL    HW174900   1.073  11.388  11.384 -1.3229  1.1301  1.7197
56013SOL    HW274901   1.156  11.312  11.485 -0.9478  0.3134  0.8188
56014SOL     OW74902  11.092  10.740   6.928 -0.7663 -0.2568 -0.4112
56014SOL    HW174903  11.137  10.794   6.993  1.4638 -2.5383  0.0980
56014SOL    HW274904  11.086  10.796   6.850 -1.5253  1.7759  1.0294
56015SOL     OW74905   5.950   5.830   2.170 -0.2192 -0.1886 -0.1415
56015SOL    HW174906   5.959   5.884   2.091  2.3610  1.0031  0.8383
56015SOL    HW274907   5.918   5.890   2.237  0.2163 -0.4864  0.3466
56016SOL     OW74908  10.537   0.020   2.593  0.5683  0.1764  0.4964
56016SOL    HW174909  10.449  -0.002   2.562  0.1960  1.7776  0.3351
56016SOL    HW274910  10.578  -0.065   2.611 -1.8373 -0.5835  2.9505
56017SOL     OW74911   3.101   1.949  10.115  0.2073  0.2021 -0.2854
56017SOL    HW174912   3.186   1.992  10.121  0.0755  0.3151  0.9417
56017SOL    HW274913   3.065   1.978  10.031  1.1841  0.5007 -0.6082
56018SOL     OW74914   0.637  10.052   6.580 -0.4660  0.1086  0.2144
56018SOL    HW174915   0.585  10.118   6.534 -1.1134 -0.2897  0.3548
56018SOL    HW274916   0.572   9.999   6.626  0.0729 -0.4000  0.3982
56019SOL     OW74917   9.448  10.323   3.230 -0.4504  0.1816 -0.7066
56019SOL    HW174918   9.435  10.240   3.183  0.1680 -0.0501 -0.4855
56019SOL    HW274919   9.528  10.309   3.281 -1.1539  0.4076  0.4884
56020SOL     OW74920   2.705   6.408   1.806 -0.0947 -0.2905 -0.5588
56020SOL    HW174921   2.710   6.362   1.890  0.2501  0.3263 -0.2358
56020SOL    HW274922   2.789   6.453   1.798 -0.3128  0.0470 -1.0111
56021SOL     OW74923   7.257  11.810   9.485  0.0174 -0.3740  0.0562
56021SOL    HW174924   7.349  11.785   9.479  1.0765  3.0963 -0.5572
56021SOL    HW274925   7.233  11.839   9.397 -0.3708  2.3545  0.9487
56022SOL     OW74926   9.556   2.541   4.799 -0.4042  0.3052 -0.0070
56022SOL    HW174927   9.614   2.601   4.752 -2.3617  1.1164 -1.5374
56022SOL    HW274928   9.545   2.467   4.739 -0.2279 -0.3026  0.6885
56023SOL     OW74929   8.350  11.327  10.016 -0.1035 -0.2459 -0.0561
56023SOL    HW174930   8.373  11.411  10.056  1.3198 -0.0813 -1.1067
56023SOL    HW274931   8.346  11.265  10.089  3.4056 -0.1764  0.3480
56024SOL     OW74932  11.312   1.673  11.653  0.6041 -1.1635 -0.0119
56024SOL    HW174933  11.288   1.709  11.739  0.4564 -2.4143  0.4900
56024SOL    HW274934  11.255   1.719  11.591 -0.1152 -1.0820  0.6929
56025SOL     OW74935   5.222   0.886   8.952 -0.1697  0.4099 -0.6475
56025SOL    HW174936   5.264   0.829   8.887 -0.2278 -0.2365 -0.1360
56025SOL    HW274937   5.159   0.828   8.996 -0.8178  1.0891 -0.6724
56026SOL     OW74938   7.314   5.771  12.455 -0.7312 -0.0274 -0.1931
56026SOL    HW174939   7.307   5.827  12.377 -0.2268  0.2412 -0.0526
56026SOL    HW274940   7.379   5.705  12.431 -2.2914 -1.3793 -0.8356
56027SOL     OW74941   1.952  10.410  10.506 -0.3335  0.2272  0.0183
56027SOL    HW174942   1.899  10.344  10.551 -0.4900  0.6403  0.4496
56027SOL    HW274943   2.025  10.427  10.566  0.6151 -0.7433 -0.8080
56028SOL     OW74944   9.422  11.745   2.737  0.0587  0.3847 -0.2857
56028SOL    HW174945   9.453  11.788   2.816 -4.0804  0.0291  1.7778
56028SOL    HW274946   9.440  11.652   2.751 -0.3082  0.3629  0.0240
56029SOL     OW74947   7.116   4.046   8.126 -0.6400  0.0078 -0.1026
56029SOL    HW174948   7.160   4.128   8.150 -2.0303  1.0903 -1.0833
56029SOL    HW274949   7.153   4.023   8.041  0.0097 -0.6127  0.3315
56030SOL     OW74950   7.548   5.653   9.340  0.7379 -0.0716  0.8765
56030SOL    HW174951   7.632   5.657   9.386  0.6413 -1.3301  1.1941
56030SOL    HW274952   7.492   5.599   9.395  0.5229 -1.3652 -0.5190
56031SOL     OW74953   6.146   6.589   9.216  0.0546 -0.1003  0.4314
56031SOL    HW174954   6.228   6.554   9.182 -0.1268  1.6279 -2.0317
56031SOL    HW274955   6.095   6.511   9.239  1.3233 -1.2782 -0.5889
56032SOL     OW74956   5.382   9.264   0.129 -0.2346 -0.2975  0.1276
56032SOL    HW174957   5.452   9.302   0.077 -0.8857  1.5016  0.4844
56032SOL    HW274958   5.425   9.233   0.209  0.3772 -0.7400 -0.3673
56033SOL     OW74959  11.452   6.679   3.756 -0.1129 -0.6441  0.3024
56033SOL    HW174960  11.478   6.768   3.781  1.3381 -1.3829  1.5991
56033SOL    HW274961  11.356   6.679   3.766 -0.5956  1.6442 -2.8548
56034SOL     OW74962   7.046   1.554   6.529 -0.4832 -0.3094 -0.8781
56034SOL    HW174963   7.070   1.486   6.592 -2.6653 -0.3701 -0.0341
56034SOL    HW274964   7.130   1.590   6.500  0.7917 -3.3926 -1.4528
56035SOL     OW74965   9.576   1.243   6.402  0.4071 -0.1463 -0.1120
56035SOL    HW174966   9.605   1.335   6.405  1.0104 -0.3511  0.5662
56035SOL    HW274967   9.618   1.202   6.477  2.1627 -1.5570 -1.7480
56036SOL     OW74968   2.931   6.536   1.291  0.2237  0.3209  0.0579
56036SOL    HW174969   3.010   6.553   1.343  0.8800 -0.5687 -0.6067
56036SOL    HW274970   2.891   6.622   1.280 -0.5159  0.4319  2.8873
56037SOL     OW74971   9.365   2.220  11.275 -0.3779 -0.1139 -0.0345
56037SOL    HW174972   9.283   2.228  11.324 -0.4401  0.6403 -0.2591
56037SOL    HW274973   9.350   2.269  11.194  1.3315  2.6935  1.2213
56038SOL     OW74974   1.189  10.869  12.370  0.5700  0.5840 -0.0732
56038SOL    HW174975   1.132  10.924  12.423  1.3812  2.2509 -0.8440
56038SOL    HW274976   1.173  10.780  12.401  0.4843  1.3959  2.4563
56039SOL     OW74977   9.315   9.525   1.039 -0.0426  0.6530 -0.0648
56039SOL    HW174978   9.286   9.458   1.101  1.3887 -0.9030 -0.9802
56039SOL    HW274979   9.291   9.608   1.079  0.1959 -0.3289  2.2318
56040SOL     OW74980   9.671  12.261   6.054 -0.0674 -0.1456 -0.0280
56040SOL    HW174981   9.684  12.348   6.091  0.8174  0.5463 -1.8429
56040SOL    HW274982   9.669  12.202   6.129 -0.9225  1.4554  1.2517
56041SOL     OW74983   9.769  12.467   6.199  0.2632 -0.0346  0.2805
56041SOL    HW174984   9.709  12.531   6.237 -1.6259  0.9473 -3.8012
56041SOL    HW274985   9.847  12.518   6.177  0.6430 -0.2211  1.1483
56042SOL     OW74986   0.174   5.846   9.330  0.1047 -0.5428 -0.2661
56042SOL    HW174987   0.099   5.885   9.376  0.6287  1.0189 -0.6589
56042SOL    HW274988   0.149   5.850   9.238 -0.5836 -2.8723 -0.2449
56043SOL     OW74989   0.819   3.390  10.515 -0.8950  0.3463 -0.0473
56043SOL    HW174990   0.736   3.430  10.487 -2.4656 -0.6669  2.7344
56043SOL    HW274991   0.833   3.423  10.604  1.3859 -0.0266 -0.2162
56044SOL     OW74992   4.433   1.728  10.770  0.0584 -0.2636 -0.2242
56044SOL    HW174993   4.374   1.677  10.714 -0.4904  0.5532 -0.4153
56044SOL    HW274994   4.390   1.814  10.777  0.9415  0.1595  0.1101
56045SOL     OW74995   3.811   9.681   4.093 -0.1649  0.3157 -0.0743
56045SOL    HW174996   3.884   9.665   4.034 -1.1343 -0.4759 -1.1121
56045SOL    HW274997   3.838   9.641   4.176  0.0856 -1.0882 -0.8016
56046SOL     OW74998  11.566   1.070   1.702  0.1547  0.1881  0.1998
56046SOL    HW174999  11.631   1.140   1.697 -1.8838  2.1837  0.2185
56046SOL    HW275000  11.564   1.033   1.614  1.8624 -0.4816  0.4067
56047SOL     OW75001   5.682   0.507   9.737 -0.4554  0.2775 -0.1989
56047SOL    HW175002   5.760   0.474   9.693 -0.6315 -1.2405  0.5510
56047SOL    HW275003   5.666   0.444   9.808 -2.7428  0.1204 -0.7558
56048SOL     OW75004   3.133  12.378   1.450  0.4755 -0.4194  0.7647
56048SOL    HW175005   3.052  12.414   1.485  0.4970 -0.7224  1.1311
56048SOL    HW275006   3.114  12.362   1.358  0.3732  0.2486  0.6649
56049SOL     OW75007   7.593  10.190   9.284  0.1654  0.2413  0.3181
56049SOL    HW175008   7.538  10.115   9.261  0.8944 -0.2390  0.1193
56049SOL    HW275009   7.641  10.211   9.204 -0.2418  1.1076  0.2916
56050SOL     OW75010  10.900   1.427   4.486  0.1682  0.3985  0.2492
56050SOL    HW175011  10.931   1.370   4.416  1.9863 -0.1487  1.4391
56050SOL    HW275012  10.948   1.399   4.564  1.8967  4.0859  0.7364
56051SOL     OW75013   8.065   3.396   4.324  0.2357  0.5278  0.0688
56051SOL    HW175014   7.973   3.419   4.334 -0.6760 -2.7765  0.6921
56051SOL    HW275015   8.075   3.377   4.231  0.7029  2.2346 -0.2519
56052SOL     OW75016   4.024   1.602  10.788  0.4904  0.1437 -0.2200
56052SOL    HW175017   3.976   1.538  10.842  0.6626 -0.0460 -0.2929
56052SOL    HW275018   3.962   1.627  10.720  0.0873  0.7735  0.3608
56053SOL     OW75019   4.399   7.192  11.289  0.2469  0.0930  0.3007
56053SOL    HW175020   4.332   7.127  11.308  2.3281 -2.7837 -1.4395
56053SOL    HW275021   4.352   7.276  11.289 -3.2792 -1.7018 -0.5990
56054SOL     OW75022   7.925   8.474   1.216 -0.1349  0.0514 -0.1555
56054SOL    HW175023   7.876   8.532   1.274 -0.8250 -0.1976 -0.4730
56054SOL    HW275024   7.955   8.530   1.144 -0.3706  0.1129 -0.2059
56055SOL     OW75025  10.970  12.058   1.765  0.2758 -0.0399 -0.2449
56055SOL    HW175026  10.965  12.089   1.855  0.4656 -0.0249 -0.2390
56055SOL    HW275027  11.061  12.072   1.740  0.4235 -0.8147 -0.1614
56056SOL     OW75028   3.784  11.189   4.431 -0.1999 -0.5004 -0.8046
56056SOL    HW175029   3.710  11.134   4.405 -0.0831 -0.0966 -2.0776
56056SOL    HW275030   3.859  11.153   4.383  0.2970 -0.4920 -0.0510
56057SOL     OW75031   1.977   5.945   7.686  0.9090  0.0222 -0.0004
56057SOL    HW175032   2.039   6.015   7.708  0.9204  0.9341 -2.5135
56057SOL    HW275033   1.952   5.964   7.595 -2.6878 -0.5949  0.7073
56058SOL     OW75034   4.981   8.314   2.755 -0.4319 -0.1312  0.0967
56058SOL    HW175035   4.945   8.371   2.823  0.9456  1.2663 -0.2786
56058SOL    HW275036   5.044   8.259   2.800  0.8368  1.1267 -0.0779
56059SOL     OW75037   3.339   9.100   1.954 -0.8525  0.1584  0.0163
56059SOL    HW175038   3.390   9.158   2.011  0.1056 -0.1863 -0.4690
56059SOL    HW275039   3.371   9.012   1.975 -3.8513 -0.5516  2.4001
56060SOL     OW75040   2.944   7.686   9.493  0.2085  0.1296  0.3175
56060SOL    HW175041   3.025   7.643   9.469  0.7641  1.5171 -0.3887
56060SOL    HW275042   2.969   7.752   9.557 -0.4582  0.2060  0.5176
56061SOL     OW75043   6.776   5.787   2.024 -0.2707 -0.4270 -0.3403
56061SOL    HW175044   6.776   5.698   2.060 -1.4961 -0.4508 -0.3289
56061SOL    HW275045   6.743   5.842   2.095 -1.4357 -0.2751 -0.9679
56062SOL     OW75046   1.732   1.462   8.897  0.6722 -0.9505 -0.3056
56062SOL    HW175047   1.680   1.523   8.845  0.6582 -0.4558  0.2730
56062SOL    HW275048   1.805   1.515   8.930  0.9177 -1.3624 -0.1801
56063SOL     OW75049   3.102   7.040   9.874 -0.1013 -0.1064  0.3168
56063SOL    HW175050   3.017   7.001   9.892 -0.3590  0.0682 -0.4750
56063SOL    HW275051   3.125   7.007   9.787  0.3327  0.3684  0.2500
56064SOL     OW75052   8.495  10.142   1.034 -0.5455  0.0414 -0.6945
56064SOL    HW175053   8.445  10.201   1.090 -2.0706 -0.6443 -1.2710
56064SOL    HW275054   8.562  10.197   0.994 -1.4284  1.2127 -0.5991
56065SOL     OW75055   4.797   1.833   8.326 -0.3831  0.4646  0.2069
56065SOL    HW175056   4.710   1.867   8.343 -0.3208  2.0912 -2.2254
56065SOL    HW275057   4.790   1.739   8.342 -1.6559  0.9540  3.1639
56066SOL     OW75058   2.663  10.222   7.299 -0.1106  0.1980  0.0904
56066SOL    HW175059   2.725  10.237   7.227  1.7791 -0.3263  1.5031
56066SOL    HW275060   2.646  10.128   7.295 -0.9277  0.3635 -0.3680
56067SOL     OW75061   2.548   4.277   6.930  0.1325  0.0321  0.2422
56067SOL    HW175062   2.504   4.258   7.013  2.3805 -1.7087  1.1273
56067SOL    HW275063   2.641   4.272   6.950  0.8351  2.5760 -1.7666
56068SOL     OW75064  11.988   3.706   1.290  0.3160  0.1572 -0.1032
56068SOL    HW175065  12.080   3.719   1.312  0.6192 -2.0046  0.1811
56068SOL    HW275066  11.987   3.701   1.194  0.7982 -1.3994 -0.0591
56069SOL     OW75067   2.258   8.739   1.534  0.0591 -0.0237  0.3125
56069SOL    HW175068   2.352   8.759   1.540  0.4306 -1.3514 -0.5841
56069SOL    HW275069   2.222   8.766   1.618  1.1986  0.7769  0.5589
56070SOL     OW75070   9.821   2.413   8.900  0.2036  0.0066 -0.0897
56070SOL    HW175071   9.828   2.504   8.869 -0.6921  0.4439  0.9472
56070SOL    HW275072   9.729   2.402   8.921  0.5810 -0.6298  1.3225
56071SOL     OW75073   8.376   8.649  11.386  0.3338 -0.1991 -0.6403
56071SOL    HW175074   8.436   8.687  11.450 -0.1896 -0.0953 -0.2002
56071SOL    HW275075   8.433   8.610  11.320  0.8992 -1.3708  0.4919
56072SOL     OW75076   6.703   8.369   2.892  0.5375  0.1415 -0.3174
56072SOL    HW175077   6.788   8.326   2.884  0.5235 -0.0030  0.2679
56072SOL    HW275078   6.724   8.462   2.903  0.7122 -0.0754  1.5185
56073SOL     OW75079   2.994  10.912   4.607  0.3678 -0.0401  0.2277
56073SOL    HW175080   3.087  10.917   4.629  0.7416 -0.1341 -1.1974
56073SOL    HW275081   2.974  10.997   4.567  0.1630 -0.4603 -0.5887
56074SOL     OW75082  10.877  12.206   5.669  0.0662 -0.8503 -0.8256
56074SOL    HW175083  10.808  12.266   5.698  1.5574  0.9177 -0.6996
56074SOL    HW275084  10.896  12.153   5.746 -0.1230 -0.3070 -0.3967
56075SOL     OW75085   6.428   9.571   8.561  0.4376 -0.0106  0.1763
56075SOL    HW175086   6.473   9.498   8.605 -0.1261 -0.2698  0.3354
56075SOL    HW275087   6.416   9.636   8.630  1.7596  0.6318 -0.1745
56076SOL     OW75088   9.889   9.432   5.877 -0.1622  0.1147  0.4228
56076SOL    HW175089   9.888   9.518   5.918 -0.2977 -0.2135  1.1327
56076SOL    HW275090   9.802   9.396   5.894  0.4579 -0.8629  1.6829
56077SOL     OW75091  10.476   3.183   1.010  0.0810  0.1997  0.7152
56077SOL    HW175092  10.563   3.221   1.024  0.4424 -1.0729  2.3271
56077SOL    HW275093  10.425   3.211   1.087 -0.8767  0.7274 -0.0884
56078SOL     OW75094   0.751   9.524   6.354 -0.3597 -0.3695 -0.1428
56078SOL    HW175095   0.838   9.499   6.385 -0.4076  0.4977  0.7354
56078SOL    HW275096   0.727   9.455   6.292  0.9116 -0.6672 -0.3315
56079SOL     OW75097   7.302  11.258  12.303 -0.5889 -0.1634  0.4622
56079SOL    HW175098   7.292  11.187  12.367 -0.6840 -0.9720 -0.4375
56079SOL    HW275099   7.236  11.240  12.236  0.8718 -0.5211 -0.9538
56080SOL     OW75100   1.404  10.097   9.309  0.1224  0.1187  0.0431
56080SOL    HW175101   1.426  10.006   9.287 -0.9675 -0.2361  0.3729
56080SOL    HW275102   1.396  10.141   9.224  2.3422  0.3540 -0.0995
56081SOL     OW75103   4.293   3.903   4.033 -0.1564  0.0504  0.4009
56081SOL    HW175104   4.218   3.960   4.049 -0.4272 -0.4947  1.1368
56081SOL    HW275105   4.338   3.942   3.958 -1.5927 -0.0222 -0.5474
56082SOL     OW75106   6.465  10.539   9.757  0.0340 -0.0821 -0.6688
56082SOL    HW175107   6.392  10.589   9.794  0.6293  1.0470 -0.9897
56082SOL    HW275108   6.458  10.453   9.799 -0.4605  0.5486  0.6098
56083SOL     OW75109   1.737   9.309  11.507 -0.0498 -0.1913 -0.5775
56083SOL    HW175110   1.780   9.355  11.579 -1.8668  0.8140 -0.0639
56083SOL    HW275111   1.790   9.330  11.430  1.3342 -0.4330  0.2794
56084SOL     OW75112   0.445   7.145   9.578 -0.7402 -0.6086  0.3512
56084SOL    HW175113   0.354   7.147   9.606 -0.7787 -0.8540  0.2462
56084SOL    HW275114   0.492   7.195   9.645 -1.0516  0.1635  0.0102
56085SOL     OW75115  10.572   2.008   5.327  0.3130  0.2452  0.0856
56085SOL    HW175116  10.551   2.091   5.368  1.2986 -0.1191  1.3730
56085SOL    HW275117  10.547   1.942   5.391 -1.1998 -0.5414 -1.2222
56086SOL     OW75118  10.294  10.172   1.639 -0.2031 -0.3178  0.5013
56086SOL    HW175119  10.349  10.165   1.562 -0.4262 -0.4912  0.3563
56086SOL    HW275120  10.233  10.243   1.619 -0.7048 -0.8137  0.2364
56087SOL     OW75121   8.280   4.273   1.615  0.0184  0.0330  0.2768
56087SOL    HW175122   8.264   4.233   1.530 -0.0399  1.4207 -0.3997
56087SOL    HW275123   8.375   4.270   1.626  0.0032 -0.3898  0.2847
56088SOL     OW75124   2.743  10.487   2.898 -0.0518 -0.1120  0.1781
56088SOL    HW175125   2.765  10.395   2.889  0.5302  0.0418 -0.0305
56088SOL    HW275126   2.726  10.499   2.991 -0.1302 -0.4295  0.2048
56089SOL     OW75127   5.887  11.336   8.793 -0.8842  0.5610  0.2596
56089SOL    HW175128   5.811  11.283   8.818 -1.2014 -0.2534 -2.1446
56089SOL    HW275129   5.851  11.416   8.757 -0.5406  0.7047  0.2268
56090SOL     OW75130   9.570   1.669   0.294 -0.1790  0.8180 -0.5538
56090SOL    HW175131   9.542   1.595   0.347  0.5521  1.3687  0.6407
56090SOL    HW275132   9.527   1.656   0.210 -2.9156  0.9119  0.7348
56091SOL     OW75133  11.653   4.390   0.351  0.2761 -0.3530  0.0914
56091SOL    HW175134  11.727   4.360   0.298  0.8131  1.0417  0.0198
56091SOL    HW275135  11.629   4.313   0.403  1.4834 -0.9632 -0.2081
56092SOL     OW75136   8.137   0.862   2.640  0.0976  0.2515  0.0800
56092SOL    HW175137   8.068   0.899   2.694 -1.9562 -1.2518 -1.3498
56092SOL    HW275138   8.126   0.904   2.555 -0.7769 -1.7988 -0.8873
56093SOL     OW75139   5.091  10.624   1.583 -0.1166 -0.4113 -0.4647
56093SOL    HW175140   5.147  10.592   1.654 -2.1537 -0.1670  1.3345
56093SOL    HW275141   5.150  10.633   1.509  2.3490  0.4051  1.4717
56094SOL     OW75142   6.386   6.184   0.537  0.5477  0.0435  0.3368
56094SOL    HW175143   6.395   6.186   0.632 -0.2009 -1.1556  0.4672
56094SOL    HW275144   6.295   6.207   0.521  0.6826  0.2908 -0.0946
56095SOL     OW75145   0.848  11.081   1.737 -0.1645  0.2480  0.2390
56095SOL    HW175146   0.783  11.148   1.718  0.9481  2.2725  2.8853
56095SOL    HW275147   0.932  11.127   1.735  0.7550 -1.2868  1.0867
56096SOL     OW75148   4.770   2.212   7.288 -0.0225  0.0751  0.3250
56096SOL    HW175149   4.843   2.172   7.334  1.2557 -0.4579 -2.0329
56096SOL    HW275150   4.692   2.170   7.325  0.7072  1.1563  3.3694
56097SOL     OW75151   7.324   8.031   6.576  0.1555 -0.4688  0.1778
56097SOL    HW175152   7.309   7.984   6.659  0.1539  1.2552  1.2141
56097SOL    HW275153   7.358   7.965   6.517 -0.5122 -1.9265  1.3386
56098SOL     OW75154  10.464   7.751  11.898  0.2692  0.0102 -0.4236
56098SOL    HW175155  10.480   7.747  11.804  1.9213  0.6675 -0.2015
56098SOL    HW275156  10.425   7.666  11.919  4.4904 -2.3654 -0.9642
56099SOL     OW75157   0.513  10.388   0.146 -0.2571  0.0824 -0.0509
56099SOL    HW175158   0.581  10.386   0.079 -0.8079 -1.7877 -0.6067
56099SOL    HW275159   0.561  10.381   0.229  0.3404  0.9717 -0.3161
56100SOL     OW75160  10.529   0.966   2.186  0.2145 -0.0247  0.5726
56100SOL    HW175161  10.470   0.908   2.233  0.3203  0.1275  0.8990
56100SOL    HW275162  10.477   1.045   2.170  0.3229  0.1051  0.8504
56101SOL     OW75163   2.133  11.748  11.805  0.1401 -0.2090 -0.0053
56101SOL    HW175164   2.046  11.725  11.774 -0.5691  0.9895  0.9904
56101SOL    HW275165   2.158  11.825  11.753  1.2960 -1.4303 -1.3559
56102SOL     OW75166   7.122   9.976   8.308 -0.0444  0.2623  0.3373
56102SOL    HW175167   7.046   9.923   8.284  0.3699 -0.3191  0.3102
56102SOL    HW275168   7.139  10.030   8.230 -0.1029  0.0135  0.1502
56103SOL     OW75169   6.220   7.946   9.600  0.1105 -0.2510 -0.3241
56103SOL    HW175170   6.166   7.940   9.679 -0.6132 -0.2245 -0.8010
56103SOL    HW275171   6.195   7.869   9.549 -1.6434  1.2190 -1.8555
56104SOL     OW75172  11.856   1.926  10.811 -0.4827  0.5146  0.3874
56104SOL    HW175173  11.937   1.876  10.805 -1.5800 -1.2427 -0.9784
56104SOL    HW275174  11.858   1.966  10.898  0.6967 -1.5587  1.3920
56105SOL     OW75175   7.171   4.833   1.757 -0.3882 -0.0482 -0.3255
56105SOL    HW175176   7.092   4.798   1.798 -1.4476 -0.0757 -2.2431
56105SOL    HW275177   7.222   4.870   1.829 -2.6656  0.9752  0.8678
56106SOL     OW75178   6.006   5.996   2.896  0.1586 -0.0436 -0.4494
56106SOL    HW175179   5.932   5.943   2.925 -0.8807  0.5146 -1.9359
56106SOL    HW275180   6.072   5.985   2.964 -1.1472 -0.8550  0.7373
56107SOL     OW75181   6.475   1.231  10.402  0.5584  0.0703  0.3443
56107SOL    HW175182   6.422   1.152  10.398 -0.1571  0.5554  0.0856
56107SOL    HW275183   6.471   1.267  10.313 -3.3960  3.1381  1.4607
56108SOL     OW75184   6.224  11.687  10.443 -0.0742 -0.1055 -0.2374
56108SOL    HW175185   6.275  11.629  10.387 -0.1406  0.2269 -0.6499
56108SOL    HW275186   6.290  11.742  10.487 -0.0976  0.8650 -1.3732
56109SOL     OW75187   0.300   6.875   3.401  0.5418 -0.1772 -0.3854
56109SOL    HW175188   0.257   6.939   3.345 -0.6204  0.9331  1.6579
56109SOL    HW275189   0.247   6.796   3.392 -0.3704  0.3668  0.0490
56110SOL     OW75190   2.552   1.656  10.698 -0.8762 -0.3426  0.0257
56110SOL    HW175191   2.647   1.647  10.701 -0.5826  1.9791 -0.5233
56110SOL    HW275192   2.537   1.749  10.687 -3.2371 -0.6718 -0.0546
56111SOL     OW75193   6.995  10.306   1.707  0.0775 -0.1303 -0.4101
56111SOL    HW175194   6.908  10.316   1.669 -0.6933  1.2331  1.5381
56111SOL    HW275195   7.001  10.212   1.728 -1.5709 -0.0294  0.7656
56112SOL     OW75196   8.769   3.831   1.829 -0.1594  0.5968  0.2079
56112SOL    HW175197   8.730   3.786   1.904  0.6688 -0.3352  0.0943
56112SOL    HW275198   8.805   3.761   1.775  2.1540  1.3948  0.5868
56113SOL     OW75199   2.226   6.138   0.728 -0.1700  0.0583 -0.0826
56113SOL    HW175200   2.215   6.087   0.809 -0.2392  0.4005  0.1239
56113SOL    HW275201   2.307   6.104   0.690  1.1970  1.5298  1.3537
56114SOL     OW75202   8.793   3.238   8.713  0.3961  0.2098  0.3238
56114SOL    HW175203   8.817   3.330   8.705 -0.6309  0.4493 -0.1756
56114SOL    HW275204   8.740   3.234   8.792  0.2262  0.0960  0.2052
56115SOL     OW75205   8.919   5.275   7.967  0.1929  0.2369 -0.3475
56115SOL    HW175206   8.884   5.194   7.930  0.0934  0.1833 -0.1412
56115SOL    HW275207   8.961   5.319   7.894 -0.5710  0.4452 -0.6744
56116SOL     OW75208   6.659   2.968   5.229  0.1935  0.0600 -0.6309
56116SOL    HW175209   6.717   3.004   5.296 -0.1421 -1.9413  0.8249
56116SOL    HW275210   6.710   2.970   5.149  0.9680  1.6172 -0.1248
56117SOL     OW75211   8.881  11.529   3.852 -1.0156 -0.0886 -0.1655
56117SOL    HW175212   8.914  11.599   3.908 -1.0339 -0.0766 -0.1702
56117SOL    HW275213   8.840  11.574   3.778 -1.6321 -0.0893  0.1661
56118SOL     OW75214   4.051   1.674   9.025  0.0006  0.1540  0.1522
56118SOL    HW175215   3.957   1.680   9.039  0.1760  0.1874  1.3711
56118SOL    HW275216   4.085   1.761   9.047  0.2587  0.3584 -0.9463
56119SOL     OW75217  11.408   5.201   0.919  0.3250 -0.7094  0.3442
56119SOL    HW175218  11.381   5.130   0.978 -1.6016 -0.6592 -0.3966
56119SOL    HW275219  11.344   5.270   0.935  2.1997  0.9560  1.0849
56120SOL     OW75220   9.582   8.375   8.890 -0.0097 -0.1298  0.6715
56120SOL    HW175221   9.520   8.445   8.907 -0.0297 -0.0381  0.2331
56120SOL    HW275222   9.647   8.382   8.960  0.8210  1.2772 -0.1976
56121SOL     OW75223   7.250   9.729   6.020 -0.1095 -0.4203  0.6385
56121SOL    HW175224   7.177   9.667   6.011 -0.6318  0.1513  0.8369
56121SOL    HW275225   7.317   9.695   5.961 -1.4199  0.3079 -1.3908
56122SOL     OW75226  12.318   3.938   4.929  0.5482 -0.0745 -0.1647
56122SOL    HW175227  12.277   3.856   4.957 -0.5968  1.0166  1.4297
56122SOL    HW275228  12.367   3.913   4.850 -0.3722 -2.1296 -0.1543
56123SOL     OW75229  11.144   8.547   9.132 -0.4114 -0.1743 -0.3568
56123SOL    HW175230  11.126   8.616   9.068  0.9010  1.5479  1.0369
56123SOL    HW275231  11.075   8.556   9.197 -0.1505 -0.0781 -0.0938
56124SOL     OW75232  10.052   4.743   2.867  0.3559 -0.0436  0.0736
56124SOL    HW175233  10.139   4.721   2.899 -0.7093 -1.8886  1.9737
56124SOL    HW275234  10.032   4.828   2.907  0.6207 -0.4324  1.0530
56125SOL     OW75235   8.715   7.434   8.248  0.3035  0.0228 -0.4166
56125SOL    HW175236   8.685   7.358   8.198 -0.4411 -1.0229  1.4867
56125SOL    HW275237   8.638   7.488   8.260 -0.0319 -0.7246  1.1798
56126SOL     OW75238   2.109   9.578  10.983 -0.0361 -0.5861 -0.2942
56126SOL    HW175239   2.105   9.596  10.889 -1.0661  0.2987 -0.0961
56126SOL    HW275240   2.199   9.549  10.997  0.2522 -0.3540 -1.4901
56127SOL     OW75241  11.382   4.893   8.911  0.0016 -0.4553 -0.0876
56127SOL    HW175242  11.420   4.820   8.862  1.8564  0.2978  0.1674
56127SOL    HW275243  11.310   4.853   8.961 -0.4651 -1.6591 -1.6523
56128SOL     OW75244   3.676   5.959   3.751  0.7303 -0.4178  0.1118
56128SOL    HW175245   3.602   5.972   3.811  1.1534 -1.7790  0.9784
56128SOL    HW275246   3.635   5.950   3.665  0.1249  1.7418  0.1138
56129SOL     OW75247   9.675   7.357  11.441  0.1155  0.1118  0.0734
56129SOL    HW175248   9.748   7.347  11.502  0.2789 -0.7427 -0.2476
56129SOL    HW275249   9.623   7.277  11.453  0.9495 -0.7839 -1.9454
56130SOL     OW75250   1.801   1.468   3.306  0.2687  0.2363 -0.2254
56130SOL    HW175251   1.800   1.466   3.402 -0.5933  0.5461 -0.2186
56130SOL    HW275252   1.721   1.421   3.281  0.3655  0.3713 -0.7922
56131SOL     OW75253   5.568   0.574  10.946  0.1742  0.4276 -0.2883
56131SOL    HW175254   5.661   0.597  10.947  0.1654  0.4452  0.0791
56131SOL    HW275255   5.565   0.490  10.901  0.3498  0.5050 -0.4481
56132SOL     OW75256   2.592   2.616   9.218 -0.4203  0.0311 -0.2686
56132SOL    HW175257   2.595   2.551   9.148 -0.4411 -0.2463 -0.0118
56132SOL    HW275258   2.676   2.662   9.210 -1.0515  1.0481 -1.4584
56133SOL     OW75259   9.294   7.207   3.719 -0.2152  0.0705 -0.1186
56133SOL    HW175260   9.340   7.208   3.803  0.3734 -3.5433 -0.2180
56133SOL    HW275261   9.202   7.197   3.742  0.0612 -2.3961  0.2653
56134SOL     OW75262   0.324  12.138   4.018 -0.3375 -0.0673  0.6451
56134SOL    HW175263   0.400  12.108   4.068  0.0833  2.9546  2.0396
56134SOL    HW275264   0.354  12.136   3.927  1.2945  0.6287  1.1260
56135SOL     OW75265   1.673   7.831   4.182 -0.6669 -0.1782 -0.3301
56135SOL    HW175266   1.713   7.803   4.100 -0.5273  0.1792 -0.3871
56135SOL    HW275267   1.598   7.772   4.193 -0.2232 -0.7466 -0.2999
56136SOL     OW75268   8.097   7.307   1.100 -0.6332 -0.1671 -0.1276
56136SOL    HW175269   8.132   7.396   1.100 -0.2067 -0.3204 -0.7962
56136SOL    HW275270   8.072   7.292   1.008 -2.6321 -0.0099  0.3361
56137SOL     OW75271   8.052  12.375   3.831  0.0792 -0.0387  0.2955
56137SOL    HW175272   8.066  12.284   3.801 -1.1428  0.2908 -1.4470
56137SOL    HW275273   7.981  12.407   3.776  0.9638  2.2194  0.3825
56138SOL     OW75274   3.261  11.255  12.054 -0.2092  0.0728 -0.3604
56138SOL    HW175275   3.299  11.176  12.093 -0.1475 -0.0648 -0.6930
56138SOL    HW275276   3.269  11.241  11.959 -0.6910  0.2346 -0.4298
56139SOL     OW75277   4.212   0.095  11.205  0.3159  0.0823 -0.6415
56139SOL    HW175278   4.165   0.178  11.203 -0.2284 -0.2243 -0.6462
56139SOL    HW275279   4.189   0.056  11.289 -1.2992 -1.1264 -1.5903
56140SOL     OW75280  11.078   1.350   7.706 -0.0423 -0.0402 -0.3237
56140SOL    HW175281  11.044   1.356   7.795  4.0065 -0.4749  1.4476
56140SOL    HW275282  11.097   1.441   7.682  1.0217 -0.1101  0.2246
56141SOL     OW75283   3.354   2.902   8.238 -0.1699 -0.5208 -0.1048
56141SOL    HW175284   3.435   2.936   8.200 -0.0973  0.4630  0.8721
56141SOL    HW275285   3.285   2.954   8.196 -0.2878 -1.2137 -0.7815
56142SOL     OW75286   7.336   4.566  10.959 -0.3069  0.4785  0.0211
56142SOL    HW175287   7.349   4.627  11.032 -0.3313  1.4092 -0.7418
56142SOL    HW275288   7.269   4.505  10.991  0.3270  0.3258  1.1050
56143SOL     OW75289   2.848   5.279   8.679  0.1195  0.6774 -0.1298
56143SOL    HW175290   2.822   5.246   8.593  2.1611  0.3612 -0.6611
56143SOL    HW275291   2.933   5.320   8.665  1.9399 -1.9073  2.1706
56144SOL     OW75292   3.613  11.570   6.097  0.5019  0.8030 -0.1958
56144SOL    HW175293   3.532  11.522   6.080 -0.0296  1.4730  0.3505
56144SOL    HW275294   3.679  11.526   6.043  0.2075 -0.9777  0.8192
56145SOL     OW75295   2.321   5.142   5.540 -0.5322  0.0949 -0.2613
56145SOL    HW175296   2.310   5.053   5.507 -2.2205 -0.1274  0.7622
56145SOL    HW275297   2.416   5.158   5.537 -0.2191 -1.6685 -0.6176
56146SOL     OW75298   8.600   5.111   2.110 -0.2672 -0.6493 -0.2188
56146SOL    HW175299   8.631   5.035   2.159  0.2501  0.7286  1.7089
56146SOL    HW275300   8.517   5.135   2.153 -0.8112 -0.5505 -1.2928
56147SOL     OW75301  10.685  10.872   9.007 -0.2708 -0.3850  0.0813
56147SOL    HW175302  10.675  10.777   9.015 -0.9940 -0.3058  0.2690
56147SOL    HW275303  10.611  10.899   8.952 -1.1060  0.2640  1.4657
56148SOL     OW75304   3.486  10.061   6.905 -0.2317 -0.5201 -0.0206
56148SOL    HW175305   3.398  10.095   6.892  0.8309  2.5222 -0.1297
56148SOL    HW275306   3.502  10.070   6.999  0.2219 -0.2306 -0.1171
56149SOL     OW75307   6.694   4.900   1.254 -0.1942 -0.4148  0.2415
56149SOL    HW175308   6.651   4.814   1.260  1.8161 -1.6511 -1.3938
56149SOL    HW275309   6.727   4.903   1.164  2.9376  0.4393  1.3019
56150SOL     OW75310   3.714   2.249  10.031 -0.3890  0.1140  0.1532
56150SOL    HW175311   3.809   2.240  10.035 -0.3115  0.6149 -0.5112
56150SOL    HW275312   3.691   2.223   9.942 -0.7930  0.7192  0.0780
56151SOL     OW75313  11.002   7.738   4.889  0.0296 -0.0392 -0.1502
56151SOL    HW175314  11.045   7.652   4.889 -0.5792 -0.3560 -1.4902
56151SOL    HW275315  11.074   7.801   4.886  0.4696 -0.5694 -2.9117
56152SOL     OW75316   4.046  11.757   8.636  0.7578  0.1836 -0.8133
56152SOL    HW175317   4.079  11.774   8.724 -0.4642  2.4555 -0.7444
56152SOL    HW275318   3.984  11.827   8.618 -0.9053 -1.5784 -2.5587
56153SOL     OW75319   0.966  10.192  12.141  0.2752  0.4015 -0.6722
56153SOL    HW175320   1.000  10.103  12.143  1.3028  0.7666 -0.7608
56153SOL    HW275321   1.025  10.238  12.080  1.8124  1.9084  1.7584
56154SOL     OW75322   3.344   9.784   8.604  0.5448 -0.0177 -0.3751
56154SOL    HW175323   3.286   9.850   8.564 -1.3104 -0.9037  0.7132
56154SOL    HW275324   3.335   9.798   8.698  2.7010  0.2439 -0.1492
56155SOL     OW75325   7.863   8.068   9.815  0.1260  0.6186 -0.1953
56155SOL    HW175326   7.905   8.148   9.784 -0.3511  1.5133  1.3349
56155SOL    HW275327   7.840   8.087   9.906  0.2055 -1.3533  0.2827
56156SOL     OW75328   2.563   6.960   4.468 -0.1841  0.3241 -0.0425
56156SOL    HW175329   2.639   6.904   4.449 -1.2327 -1.5448  0.9699
56156SOL    HW275330   2.543   6.943   4.560 -1.9326  0.6273 -0.3319
56157SOL     OW75331   7.287   3.329   6.217  0.3493  0.8088  0.0991
56157SOL    HW175332   7.355   3.395   6.229  0.2558  0.6841  1.3758
56157SOL    HW275333   7.260   3.339   6.125  0.9549  1.9394  0.0297
56158SOL     OW75334  10.727   1.765  12.150 -0.0584  0.6155  0.0943
56158SOL    HW175335  10.716   1.839  12.210 -1.3016 -0.0481  0.7172
56158SOL    HW275336  10.699   1.688  12.201  0.3152 -0.1666 -0.8438
56159SOL     OW75337   4.210   5.721   9.615  0.2231 -0.1639 -0.1846
56159SOL    HW175338   4.197   5.636   9.575  0.7087 -0.4681  0.2912
56159SOL    HW275339   4.179   5.784   9.549 -1.3636 -0.7478 -0.0233
56160SOL     OW75340   3.082  12.306   2.108  0.0117 -0.1555  0.7876
56160SOL    HW175341   3.073  12.308   2.012 -1.8360 -0.3075  0.9258
56160SOL    HW275342   3.173  12.280   2.122  1.5761  3.6071 -0.9024
56161SOL     OW75343   4.205   4.429   6.310 -0.6219 -0.8846 -0.1651
56161SOL    HW175344   4.142   4.438   6.238 -1.8608  1.8721  1.1212
56161SOL    HW275345   4.285   4.471   6.277 -0.2674 -2.0453 -0.8496
56162SOL     OW75346   7.379   3.418   2.184 -0.8824 -0.7056  0.0486
56162SOL    HW175347   7.312   3.351   2.202 -0.5342 -1.2665 -0.6686
56162SOL    HW275348   7.378   3.427   2.089 -1.9060  1.3518  0.2119
56163SOL     OW75349   5.524   7.120   4.366  0.0658 -0.3890 -0.5012
56163SOL    HW175350   5.505   7.035   4.405 -2.1835  0.3315  0.1241
56163SOL    HW275351   5.487   7.184   4.427 -0.1498  0.9500 -1.9610
56164SOL     OW75352   5.258   6.873   4.357  0.0726  0.2727  0.5075
56164SOL    HW175353   5.286   6.869   4.266 -0.8857 -1.0833  0.2448
56164SOL    HW275354   5.174   6.919   4.354 -0.3653 -0.4989  0.5781
56165SOL     OW75355   9.882   0.738   3.265 -0.4910  0.1624  0.0893
56165SOL    HW175356   9.913   0.780   3.345  0.2773  0.4035 -0.3259
56165SOL    HW275357   9.914   0.795   3.195 -0.0850 -0.7135 -0.4475
56166SOL     OW75358   9.499   2.695   9.470  0.2557  0.0832 -0.1567
56166SOL    HW175359   9.410   2.686   9.504 -0.5809 -0.6008 -2.3446
56166SOL    HW275360   9.520   2.607   9.438  1.5321  0.3671 -0.1262
56167SOL     OW75361   5.927  12.350  10.240 -0.0161 -0.3821 -0.2075
56167SOL    HW175362   5.976  12.274  10.272  1.8316  0.6503 -0.4436
56167SOL    HW275363   5.942  12.350  10.145  1.1102  0.9712 -0.0608
56168SOL     OW75364   5.928   1.791  12.017 -0.6209  0.1307 -0.1747
56168SOL    HW175365   5.971   1.876  12.003  0.6593 -0.4515  0.1262
56168SOL    HW275366   5.850   1.795  11.961 -0.9028  1.7159  0.2514
56169SOL     OW75367   4.896   9.964   7.901  0.3700  0.3809  0.6043
56169SOL    HW175368   4.877   9.878   7.864 -0.6214  0.1649  1.5640
56169SOL    HW275369   4.815  10.014   7.888  0.8853  1.1335  0.1913
56170SOL     OW75370   7.584  12.348   3.828 -0.7076 -0.1720  0.6391
56170SOL    HW175371   7.529  12.276   3.858  0.1367 -1.3448 -0.4864
56170SOL    HW275372   7.621  12.317   3.745  0.2784  1.2591  0.4957
56171SOL     OW75373   6.890   2.293   5.902 -0.1539  0.4937 -0.3832
56171SOL    HW175374   6.869   2.305   5.810  0.2452 -0.9816 -0.7013
56171SOL    HW275375   6.806   2.290   5.946 -0.3244  3.6363 -0.2940
56172SOL     OW75376   7.683   0.300   1.392 -0.6704 -0.0286 -0.0453
56172SOL    HW175377   7.603   0.322   1.439 -0.6774  0.1134 -0.1203
56172SOL    HW275378   7.729   0.238   1.448 -1.1447 -0.6128 -0.3033
56173SOL     OW75379   0.255   2.497   3.114 -0.2776 -0.5010  0.0489
56173SOL    HW175380   0.313   2.564   3.150  0.0857 -1.5398  1.4679
56173SOL    HW275381   0.191   2.546   3.062 -0.5536  1.0404  1.7386
56174SOL     OW75382   8.318   3.448   5.439  0.1714  0.3206 -0.0876
56174SOL    HW175383   8.358   3.362   5.430 -2.0865 -0.6462 -1.8473
56174SOL    HW275384   8.312   3.462   5.533  3.0751 -0.1291  0.2591
56175SOL     OW75385  11.077   9.233  10.725 -0.3946 -0.4035  0.1382
56175SOL    HW175386  11.015   9.244  10.797  1.3668 -1.7073  1.9962
56175SOL    HW275387  11.126   9.315  10.723 -1.7675  0.4314 -0.9990
56176SOL     OW75388   3.496   4.791   2.750  0.5188  0.1459  0.3985
56176SOL    HW175389   3.470   4.732   2.678  1.0299  0.9356 -0.4556
56176SOL    HW275390   3.418   4.797   2.805 -0.4204  0.7429 -0.9369
56177SOL     OW75391   1.395   4.306   4.798  0.0038  0.5478  0.1827
56177SOL    HW175392   1.458   4.291   4.728  0.4830 -0.3728  0.7840
56177SOL    HW275393   1.385   4.220   4.840 -1.5446  0.7094  0.1910
56178SOL     OW75394   6.621  10.433  11.499  0.4871 -0.1583 -0.0069
56178SOL    HW175395   6.678  10.360  11.474 -0.4993 -1.1806  0.6407
56178SOL    HW275396   6.662  10.470  11.576 -0.3651 -1.7593  1.2988
56179SOL     OW75397   1.374   2.861   9.421  0.1078  0.1164 -0.1204
56179SOL    HW175398   1.453   2.815   9.393  0.6975  0.7261  0.4978
56179SOL    HW275399   1.360   2.928   9.354  0.1000  0.0008 -0.2357
56180SOL     OW75400  11.818   5.398   8.807 -0.0142  0.3647 -0.0224
56180SOL    HW175401  11.815   5.311   8.845  1.0272  0.3610  0.0877
56180SOL    HW275402  11.806   5.457   8.881  2.9518  0.3838  0.5631
56181SOL     OW75403   2.484   2.761   8.313  0.1255 -0.6672  0.2069
56181SOL    HW175404   2.534   2.840   8.336  1.1983 -1.2594 -0.0259
56181SOL    HW275405   2.442   2.734   8.395 -1.1587  0.7422  0.0673
56182SOL     OW75406   5.367   1.199   8.486  0.0240  0.4792  0.1809
56182SOL    HW175407   5.377   1.241   8.572  0.5959 -0.1301  0.4203
56182SOL    HW275408   5.439   1.235   8.434 -0.0872  0.5500  0.0758
56183SOL     OW75409   3.760   9.560  11.326  0.3384  0.1296  0.7031
56183SOL    HW175410   3.689   9.498  11.310 -1.2722  1.6929  1.5363
56183SOL    HW275411   3.806   9.566  11.242 -1.2588 -0.0040 -0.2158
56184SOL     OW75412   3.259   3.279   6.661 -0.5769 -0.3395 -0.3918
56184SOL    HW175413   3.303   3.312   6.583 -0.0765  0.1987  0.1082
56184SOL    HW275414   3.194   3.217   6.627 -0.1205 -0.3918 -1.2056
56185SOL     OW75415   5.660   2.371  12.293 -0.5920 -0.1419  0.7699
56185SOL    HW175416   5.730   2.405  12.349  0.2477 -0.0148 -0.3220
56185SOL    HW275417   5.654   2.278  12.316 -0.5292 -0.0179  1.3228
56186SOL     OW75418   8.199   1.577   1.997 -1.0049 -0.5258 -0.0022
56186SOL    HW175419   8.110   1.567   1.964 -0.7418 -0.9329 -0.6073
56186SOL    HW275420   8.196   1.656   2.050 -1.4341  0.1818 -1.0392
56187SOL     OW75421   2.909   2.107   5.554  0.4005 -0.1411  0.1207
56187SOL    HW175422   2.990   2.099   5.605 -0.0099  1.5161  1.1148
56187SOL    HW275423   2.905   2.200   5.530 -1.2268 -0.1857  0.1304
56188SOL     OW75424   1.716   4.041   4.421 -0.2091  0.3283  0.1002
56188SOL    HW175425   1.733   4.128   4.386 -0.7987  0.6007  0.4760
56188SOL    HW275426   1.707   3.985   4.344  0.8265  0.4622 -0.1371
56189SOL     OW75427  10.949   1.957   7.668  0.2843 -0.3931 -0.0197
56189SOL    HW175428  10.949   2.006   7.751 -3.1980 -0.1903  0.0094
56189SOL    HW275429  10.916   1.870   7.692 -1.2510 -0.1723 -1.2185
56190SOL     OW75430   1.793   8.276  10.183 -0.0078 -0.5591  0.0434
56190SOL    HW175431   1.837   8.191  10.178 -1.6339 -1.3910 -0.9622
56190SOL    HW275432   1.780   8.302  10.092 -0.8623  0.0343  0.3233
56191SOL     OW75433  11.924   8.656   6.546  0.5305  0.0952 -0.1169
56191SOL    HW175434  12.007   8.679   6.588  1.4282  0.1335 -1.8120
56191SOL    HW275435  11.859   8.711   6.589  0.9212 -1.5787  2.8557
56192SOL     OW75436   5.207   9.764   7.741  0.2334 -0.3028 -0.8948
56192SOL    HW175437   5.120   9.725   7.739 -0.4381  1.0106  0.5187
56192SOL    HW275438   5.211   9.821   7.664 -0.5001  0.2874 -0.5073
56193SOL     OW75439   1.853   4.956   1.751  0.5526 -0.2839  0.4683
56193SOL    HW175440   1.939   4.942   1.713  0.7506  1.0981  0.3448
56193SOL    HW275441   1.857   5.044   1.788 -0.8845 -0.0797  0.2088
56194SOL     OW75442   5.101   4.637   9.855  0.0704  0.8205  0.2896
56194SOL    HW175443   5.059   4.597   9.931  0.6529  0.3153  0.3481
56194SOL    HW275444   5.140   4.564   9.808  0.1364  1.1887 -0.2361
56195SOL     OW75445   4.143   9.721   2.230 -0.1883  0.5537 -0.2899
56195SOL    HW175446   4.104   9.656   2.288 -1.3030  0.1495 -1.4549
56195SOL    HW275447   4.202   9.771   2.287  0.2007 -1.0324  0.7626
56196SOL     OW75448   2.783   9.676   3.080  0.1964 -0.2083  0.3718
56196SOL    HW175449   2.825   9.612   3.138  1.7207 -0.3637 -0.8675
56196SOL    HW275450   2.827   9.758   3.099 -0.7376  0.1893  0.8896
56197SOL     OW75451   6.765   2.581   2.973  0.2635 -0.1469  0.0757
56197SOL    HW175452   6.820   2.659   2.981 -1.4478  1.0697  0.8156
56197SOL    HW275453   6.783   2.531   3.053 -0.8519  1.0667  1.1273
56198SOL     OW75454   3.241   9.332   3.307  0.1027 -0.0705  0.9926
56198SOL    HW175455   3.191   9.250   3.314  0.7775 -0.6386 -0.4587
56198SOL    HW275456   3.227   9.376   3.391 -2.9409 -0.1141  0.5985
56199SOL     OW75457   5.260   7.884   9.065 -0.1108 -0.1449 -0.0676
56199SOL    HW175458   5.338   7.932   9.093  0.6117 -1.7904  0.8951
56199SOL    HW275459   5.189   7.948   9.071  0.9155  0.9922  0.4484
56200SOL     OW75460   0.364   3.165  11.530 -0.2562 -0.1407 -0.0892
56200SOL    HW175461   0.330   3.077  11.513  2.0872 -1.1651  0.1537
56200SOL    HW275462   0.394   3.163  11.621  1.8901  0.1352 -0.7347
56201SOL     OW75463   8.887   3.434   4.597 -0.3007  0.0780 -0.0304
56201SOL    HW175464   8.878   3.492   4.673 -0.3523 -0.3440  0.2865
56201SOL    HW275465   8.804   3.442   4.551  0.2820  1.5482 -0.9177
56202SOL     OW75466   5.290   4.441   4.294  0.3971  0.0798 -0.0852
56202SOL    HW175467   5.319   4.407   4.209  1.4872 -0.1523  0.3679
56202SOL    HW275468   5.343   4.394   4.358 -0.3630  0.3078  0.7307
56203SOL     OW75469   4.857   9.069   7.650 -0.2498  0.2919  0.8164
56203SOL    HW175470   4.796   8.995   7.655  0.6793 -0.5137  0.5301
56203SOL    HW275471   4.927   9.046   7.711  0.2875  0.7068  0.3667
56204SOL     OW75472   4.180   7.808  12.252  0.2447 -0.0859 -0.6358
56204SOL    HW175473   4.137   7.849  12.177  0.4395  0.7495 -0.3042
56204SOL    HW275474   4.119   7.819  12.325 -0.2618 -1.5300 -0.8049
56205SOL     OW75475  11.239   1.326   2.268 -0.0839  0.1020 -0.2262
56205SOL    HW175476  11.226   1.402   2.323  0.4450 -1.1338  1.7062
56205SOL    HW275477  11.186   1.257   2.309  0.0268 -0.7805 -1.4876
56206SOL     OW75478   1.377   9.995  12.144 -0.3644 -0.3815  0.0438
56206SOL    HW175479   1.431  10.038  12.210 -0.2175  0.7928 -0.8094
56206SOL    HW275480   1.288  10.003  12.176 -0.3216  0.4418 -0.0263
56207SOL     OW75481   4.506  12.192   3.251 -0.5423  0.4171 -0.0319
56207SOL    HW175482   4.455  12.136   3.192 -1.1475  0.3327  0.5678
56207SOL    HW275483   4.449  12.207   3.326 -0.6373  2.3822 -0.4459
56208SOL     OW75484   0.774   6.942  10.845  0.1213 -0.4230 -0.5469
56208SOL    HW175485   0.826   6.919  10.922  0.1507  1.2999 -0.0292
56208SOL    HW275486   0.797   6.875  10.781  1.1942 -1.0536  0.4472
56209SOL     OW75487   5.226   9.923   0.738 -0.2356 -0.4570 -0.5265
56209SOL    HW175488   5.162   9.903   0.806  1.3936  1.5479  1.7920
56209SOL    HW275489   5.284   9.847   0.735  0.4261 -0.0733  1.3520
56210SOL     OW75490   4.304   9.572  11.339 -0.1302  0.0110  0.0337
56210SOL    HW175491   4.291   9.486  11.378 -2.9305  0.9901  1.5435
56210SOL    HW275492   4.339   9.626  11.410  0.3307  0.4456 -0.5124
56211SOL     OW75493  10.157   4.272   7.092  0.4130  0.1874 -0.2334
56211SOL    HW175494  10.100   4.348   7.103  1.8138  1.2550 -0.0789
56211SOL    HW275495  10.167   4.237   7.181 -1.7212 -1.3564 -0.5328
56212SOL     OW75496   1.342   0.978   1.130 -0.1311  0.5714 -0.0793
56212SOL    HW175497   1.320   1.067   1.102 -1.8134  0.8826  2.0228
56212SOL    HW275498   1.260   0.930   1.124 -0.0432  0.0805  2.0569
56213SOL     OW75499  11.899   1.634   3.791 -0.6962  0.5273  0.0894
56213SOL    HW175500  11.868   1.664   3.705 -1.3159 -0.3585 -0.0123
56213SOL    HW275501  11.923   1.543   3.777 -0.2236  0.5529  0.7237
56214SOL     OW75502  11.692   9.796  11.411  0.6671 -0.3821 -0.0894
56214SOL    HW175503  11.665   9.880  11.446  2.3809  0.6190 -1.0294
56214SOL    HW275504  11.611   9.756  11.379 -0.1684  0.9062  0.3506
56215SOL     OW75505  11.373   2.459   2.350 -0.3533 -0.0563  0.4690
56215SOL    HW175506  11.441   2.449   2.283 -0.6149  1.4893 -0.0672
56215SOL    HW275507  11.369   2.553   2.366 -2.6451 -0.0564  0.1800
56216SOL     OW75508   1.389   4.167   7.367  0.2952 -0.3056 -0.2579
56216SOL    HW175509   1.457   4.234   7.364  0.6670 -0.6175  0.9424
56216SOL    HW275510   1.437   4.084   7.372 -0.0688 -0.9285 -3.9299
56217SOL     OW75511   1.704   3.184   3.533 -0.2054 -0.8003 -0.5236
56217SOL    HW175512   1.790   3.185   3.575 -0.0882  0.5230 -0.7621
56217SOL    HW275513   1.711   3.248   3.462 -0.5663 -2.5677 -2.2658
56218SOL     OW75514   5.839   3.431   5.373 -0.3375 -0.4186 -1.1153
56218SOL    HW175515   5.862   3.512   5.327  1.0081 -1.2841 -2.0573
56218SOL    HW275516   5.774   3.389   5.316 -1.6960  0.3639 -0.1996
56219SOL     OW75517   7.774   1.835   5.677  0.1602 -0.4987 -0.4061
56219SOL    HW175518   7.822   1.902   5.725 -0.2934 -0.6228  0.2305
56219SOL    HW275519   7.806   1.752   5.712  2.1167 -0.7369 -2.4954
56220SOL     OW75520  11.285   5.537   3.156  0.1295  0.0943 -0.0515
56220SOL    HW175521  11.304   5.444   3.149 -0.3952 -0.1668  1.5349
56220SOL    HW275522  11.249   5.548   3.244 -2.7931  1.2810 -1.2691
56221SOL     OW75523   5.011  10.342   8.970  0.0060 -0.2206 -0.4486
56221SOL    HW175524   4.998  10.344   8.875 -0.0394 -0.3735 -0.4459
56221SOL    HW275525   5.103  10.321   8.981  0.6239  2.1513 -0.4867
56222SOL     OW75526  10.581  10.353   4.658  0.3179 -0.5356  0.3459
56222SOL    HW175527  10.589  10.263   4.691  2.2728 -0.5504 -0.0165
56222SOL    HW275528  10.624  10.351   4.572 -0.2267  0.6040  0.0266
56223SOL     OW75529  11.681   7.258   9.309  0.5231  0.0180  0.4058
56223SOL    HW175530  11.587   7.271   9.292  0.2989  0.1987  1.7211
56223SOL    HW275531  11.687   7.168   9.343  0.7872  0.1232  0.6374
56224SOL     OW75532   0.442   6.952   6.571 -0.8695 -0.1688 -0.1243
56224SOL    HW175533   0.530   6.944   6.535 -0.8902 -1.6034  0.0954
56224SOL    HW275534   0.385   6.912   6.506 -1.0857 -1.2909  0.7232
56225SOL     OW75535   0.103   9.507   2.518 -0.5404  0.1392  0.4966
56225SOL    HW175536   0.081   9.589   2.474 -0.6827  1.1901  2.3935
56225SOL    HW275537   0.068   9.438   2.461  1.0466  1.2691 -1.9867
56226SOL     OW75538   0.440   9.601   8.644  0.1000  0.6800 -0.1045
56226SOL    HW175539   0.523   9.555   8.656 -0.0909  0.5411  0.7121
56226SOL    HW275540   0.406   9.568   8.561 -0.2609 -1.0192  0.6728
56227SOL     OW75541   7.979  11.058  11.936 -0.1320 -0.2167 -0.0481
56227SOL    HW175542   7.969  11.046  12.031 -0.1320 -0.6279 -0.0978
56227SOL    HW275543   8.069  11.030  11.918 -0.0284  0.1584 -0.1248
56228SOL     OW75544   3.290   9.349  12.411  0.1099 -0.0108  0.2046
56228SOL    HW175545   3.252   9.360  12.498 -2.3250 -1.5759 -0.5543
56228SOL    HW275546   3.352   9.277  12.421  0.9355  0.7787  0.9123
56229SOL     OW75547   8.264   9.310   4.148 -1.0865  0.1499 -0.0220
56229SOL    HW175548   8.212   9.295   4.227 -2.7309  0.1303 -1.0667
56229SOL    HW275549   8.209   9.278   4.076  1.0256 -1.3746 -1.0720
56230SOL     OW75550   5.229   6.475   6.346  0.1649 -0.5823  0.4722
56230SOL    HW175551   5.207   6.384   6.363 -0.7538 -0.7591 -1.3212
56230SOL    HW275552   5.144   6.516   6.325  0.6222  0.5691  0.8026
56231SOL     OW75553   7.284  12.428   4.032 -0.3338  0.3600 -0.7758
56231SOL    HW175554   7.275  12.386   3.947  0.5319 -0.2755 -0.5627
56231SOL    HW275555   7.242  12.513   4.021 -0.5915  0.1245 -1.7142
56232SOL     OW75556   9.776   0.882   7.429  0.0851 -0.0538 -0.6404
56232SOL    HW175557   9.816   0.964   7.458  0.5907 -0.3386 -0.5210
56232SOL    HW275558   9.788   0.822   7.503 -0.3952 -0.2024 -0.6776
56233SOL     OW75559   7.147  10.173   8.112  0.1294 -0.3292  0.5244
56233SOL    HW175560   7.092  10.250   8.109  0.1203 -0.3375  0.4653
56233SOL    HW275561   7.196  10.176   8.029 -0.1546 -0.5938  0.3448
56234SOL     OW75562   8.201  10.755   3.884  0.4093  0.7369  0.3940
56234SOL    HW175563   8.190  10.828   3.945  1.2958  1.4637 -0.2848
56234SOL    HW275564   8.290  10.724   3.901 -0.0170 -0.3058  0.7921
56235SOL     OW75565  10.897  11.296   9.499 -0.5916  0.0440 -0.1937
56235SOL    HW175566  10.992  11.291   9.494 -0.7067 -1.0430 -2.4241
56235SOL    HW275567  10.872  11.351   9.424 -1.7579 -0.7387 -0.4073
56236SOL     OW75568   2.882   4.779   4.948 -0.3477  0.1724 -0.0820
56236SOL    HW175569   2.893   4.741   5.035 -3.2187  1.8546  1.1572
56236SOL    HW275570   2.806   4.734   4.911  0.0342  0.3964 -1.1862
56237SOL     OW75571   9.050   0.893   9.379  0.4980 -0.0032 -0.6993
56237SOL    HW175572   8.969   0.869   9.336 -0.3571  1.8369 -0.2412
56237SOL    HW275573   9.119   0.854   9.326 -0.6346 -0.2260 -2.0438
56238SOL     OW75574   4.827   6.494   6.475 -0.1252  0.0167 -0.3153
56238SOL    HW175575   4.914   6.529   6.457  0.2074 -1.1079 -0.9689
56238SOL    HW275576   4.842   6.405   6.505 -1.0888 -0.5240 -1.3683
56239SOL     OW75577   0.606   1.177   2.167 -0.7533  0.0973  0.5360
56239SOL    HW175578   0.631   1.125   2.244  0.2425 -0.3700 -0.0928
56239SOL    HW275579   0.545   1.242   2.202 -0.2102 -0.0188  1.7488
56240SOL     OW75580   4.161   7.452   6.062  0.2206 -0.2214 -0.1845
56240SOL    HW175581   4.067   7.470   6.072  0.3110  0.2320 -0.1395
56240SOL    HW275582   4.175   7.372   6.112  0.4505  1.3846  2.4883
56241SOL     OW75583   1.625   2.682   3.110  0.0302  0.3658  0.2914
56241SOL    HW175584   1.626   2.774   3.135 -1.1820  0.3412  0.4958
56241SOL    HW275585   1.617   2.682   3.015  0.8729  0.4620  0.2145
56242SOL     OW75586  10.188   8.972  12.334 -0.4994  0.4352 -0.5554
56242SOL    HW175587  10.166   8.952  12.242 -0.3561 -0.6875 -0.3669
56242SOL    HW275588  10.110   8.946  12.383 -0.5642  1.0086 -0.3599
56243SOL     OW75589   1.291   3.284   3.892  0.0176  0.4212  0.3526
56243SOL    HW175590   1.380   3.273   3.859 -0.7362  0.4543 -1.8333
56243SOL    HW275591   1.259   3.194   3.903 -0.1546  0.3947 -0.3028
56244SOL     OW75592   0.890   6.116   4.109 -0.2362  0.9482 -0.4448
56244SOL    HW175593   0.909   6.023   4.094 -0.9919  0.3345  1.8976
56244SOL    HW275594   0.975   6.155   4.126 -0.0624  0.1998  0.5903
56245SOL     OW75595  10.672   9.907   2.864 -0.1148 -1.0056 -0.0300
56245SOL    HW175596  10.602   9.913   2.929  0.2087 -1.0439  0.3247
56245SOL    HW275597  10.697   9.815   2.864  2.6119 -0.4264  2.7281
56246SOL     OW75598   2.861   9.606  10.729  0.4474  0.2891  0.1037
56246SOL    HW175599   2.917   9.577  10.658  1.2097  1.7012  0.0791
56246SOL    HW275600   2.844   9.698  10.709 -0.3197  0.3816  1.1131
56247SOL     OW75601   4.344   1.402   4.916  0.2955 -0.1670  0.2190
56247SOL    HW175602   4.378   1.391   4.828 -0.2861  1.5106 -0.2440
56247SOL    HW275603   4.403   1.466   4.957 -1.7168  2.2530 -0.3675
56248SOL     OW75604   3.810   2.930  10.924 -0.3050 -0.0695  0.0493
56248SOL    HW175605   3.772   2.897  11.005 -0.9345 -2.3755 -1.1128
56248SOL    HW275606   3.745   2.911  10.857  0.5423  1.0512 -1.1400
56249SOL     OW75607   5.206   0.513   7.238  0.0349  0.2750 -0.5908
56249SOL    HW175608   5.219   0.606   7.219  1.3206  0.2804  0.2186
56249SOL    HW275609   5.290   0.483   7.272 -1.2151 -0.4424  2.1298
56250SOL     OW75610   6.309   2.320   5.497  0.4070 -0.6743 -0.3287
56250SOL    HW175611   6.399   2.346   5.515  0.3834 -1.0823  0.4165
56250SOL    HW275612   6.317   2.244   5.440  0.7083 -3.1623  2.7608
56251SOL     OW75613   2.527  11.012   6.714  0.3592 -0.5941 -0.1131
56251SOL    HW175614   2.450  11.052   6.754  1.3162  1.0308  0.2263
56251SOL    HW275615   2.580  11.087   6.686  1.6120 -1.6700 -0.7112
56252SOL     OW75616   5.042   7.830  11.741 -0.3560  0.5269  0.2911
56252SOL    HW175617   4.997   7.765  11.794 -0.7643 -1.2891 -2.1218
56252SOL    HW275618   5.001   7.824  11.655  1.8952  1.5647 -0.9528
56253SOL     OW75619   1.389   5.870   9.945 -0.0994  0.3374  0.0408
56253SOL    HW175620   1.320   5.933   9.922 -1.1378 -0.4747  0.8334
56253SOL    HW275621   1.347   5.785   9.938  0.5554 -0.1333  1.4062
56254SOL     OW75622   8.638   9.391   5.348  0.0891  0.0551  0.0169
56254SOL    HW175623   8.624   9.435   5.264 -0.2479 -1.0204 -0.5105
56254SOL    HW275624   8.579   9.316   5.345  1.3433 -0.9748  0.4741
56255SOL     OW75625   0.724   4.063  12.222  0.4217  0.3639  0.1768
56255SOL    HW175626   0.657   4.109  12.171  0.0597  0.2372  0.5327
56255SOL    HW275627   0.700   4.080  12.313 -0.6641 -1.8507  0.3641
56256SOL     OW75628   4.998   8.367  11.298  0.5856  0.6320 -0.1987
56256SOL    HW175629   5.040   8.306  11.237 -0.2243  0.4410 -0.5929
56256SOL    HW275630   4.974   8.442  11.244 -1.6849 -0.2582 -0.5425
56257SOL     OW75631  11.473   5.527   7.157  0.0685 -0.3425 -0.3773
56257SOL    HW175632  11.485   5.620   7.177 -1.7023 -0.6387  2.7476
56257SOL    HW275633  11.401   5.525   7.095 -0.6545  0.3641  0.4113
56258SOL     OW75634   0.828   9.565  12.165 -0.1987  0.4886  0.1872
56258SOL    HW175635   0.776   9.614  12.229  1.2755 -0.3207  2.1072
56258SOL    HW275636   0.829   9.621  12.087 -1.5243  1.8249  1.0671
56259SOL     OW75637   6.315   7.229   6.626 -0.6664  0.3160  0.3276
56259SOL    HW175638   6.259   7.255   6.700 -2.2375  0.7664 -0.9740
56259SOL    HW275639   6.255   7.187   6.564  0.6547 -0.2147 -0.6241
56260SOL     OW75640   6.443   0.433   5.986  0.1874  0.0232  0.3944
56260SOL    HW175641   6.503   0.508   5.988  0.1685  0.0728 -0.3755
56260SOL    HW275642   6.405   0.436   5.898  1.5890 -1.9739 -0.3691
56261SOL     OW75643   7.323   2.626   5.261  0.0577 -0.6853  0.2378
56261SOL    HW175644   7.260   2.648   5.193  2.1682 -0.8604 -1.9073
56261SOL    HW275645   7.369   2.708   5.279  0.5300 -0.9668  0.3318
56262SOL     OW75646   9.369  11.534  10.382 -0.1320  0.0253 -0.3630
56262SOL    HW175647   9.381  11.538  10.477 -2.8637  0.6571  0.0589
56262SOL    HW275648   9.305  11.463  10.369  0.5485 -0.3625 -1.7891
56263SOL     OW75649  12.368   7.168   9.470  0.1430 -0.0468  0.7546
56263SOL    HW175650  12.431   7.212   9.412  0.9499 -0.1046  1.5613
56263SOL    HW275651  12.360   7.080   9.434 -0.4031  0.3174 -0.0515
56264SOL     OW75652  12.129   3.245   4.180  0.4274 -0.0654 -0.2061
56264SOL    HW175653  12.223   3.233   4.173  0.4818  0.5953 -0.6690
56264SOL    HW275654  12.103   3.188   4.252  1.0259 -1.0399 -0.7420
56265SOL     OW75655   5.622  12.396   0.732  0.0347  0.0993 -0.3902
56265SOL    HW175656   5.717  12.405   0.726 -0.0783  0.7613 -1.5062
56265SOL    HW275657   5.600  12.336   0.660 -0.3678 -0.2350  0.0124
56266SOL     OW75658   3.133   6.743   1.897 -0.3930 -0.1677  0.3850
56266SOL    HW175659   3.138   6.838   1.896  1.5407 -0.2278  0.4680
56266SOL    HW275660   3.144   6.718   1.805  0.0793 -0.3298  0.4827
56267SOL     OW75661   7.685  11.290   4.931  0.3399  0.4033 -0.1494
56267SOL    HW175662   7.650  11.327   4.850  1.3750  0.0601 -0.7711
56267SOL    HW275663   7.737  11.361   4.969  0.3602  0.3584 -0.0936
56268SOL     OW75664   7.188  12.182   7.678  0.3395 -0.1547 -0.1733
56268SOL    HW175665   7.125  12.136   7.622  0.4030 -0.5108  0.0444
56268SOL    HW275666   7.165  12.275   7.669  0.9974 -0.1049 -1.5850
56269SOL     OW75667   9.101   6.368   1.500  0.3662 -0.1305  0.1210
56269SOL    HW175668   9.187   6.398   1.528  0.6686  0.0210 -0.9313
56269SOL    HW275669   9.041   6.437   1.529  0.3500 -1.0246  2.3462
56270SOL     OW75670   4.008   9.691   7.717 -0.1258 -0.2728  0.1615
56270SOL    HW175671   4.025   9.780   7.747 -1.2011 -0.8180  2.7232
56270SOL    HW275672   4.095   9.653   7.703  0.4098  0.5326  1.1971
56271SOL     OW75673   0.833   8.676   6.168 -0.3677 -0.4233 -0.4087
56271SOL    HW175674   0.820   8.600   6.225  1.4327 -0.8876 -0.5795
56271SOL    HW275675   0.750   8.683   6.119 -0.7292 -2.0087 -0.0754
56272SOL     OW75676   1.462   2.034   9.721  0.1165  0.1631 -0.2383
56272SOL    HW175677   1.393   2.030   9.656  0.9586  0.4847 -1.1771
56272SOL    HW275678   1.420   2.068   9.800 -0.7728  0.3815 -0.8020
56273SOL     OW75679   6.189   1.979   2.737  0.6050 -0.5226  0.2677
56273SOL    HW175680   6.208   2.037   2.663  0.7638 -2.3484 -1.2058
56273SOL    HW275681   6.132   2.030   2.794  1.1975  1.2603 -0.6717
56274SOL     OW75682   5.716   2.084  10.979 -0.6680  0.2322 -0.2277
56274SOL    HW175683   5.676   1.997  10.969 -0.9458  0.5193 -1.9262
56274SOL    HW275684   5.654   2.144  10.938  0.2960  1.0294 -0.5652
56275SOL     OW75685   2.400   2.641   8.548  0.0486  0.0234 -0.2162
56275SOL    HW175686   2.487   2.632   8.587 -0.0326 -0.5486 -0.1522
56275SOL    HW275687   2.340   2.629   8.621 -0.1201 -1.7623 -0.6005
56276SOL     OW75688   9.787   4.331  10.249 -0.9463 -0.0061  0.5976
56276SOL    HW175689   9.749   4.340  10.337 -3.0626 -1.3719 -0.1192
56276SOL    HW275690   9.716   4.299  10.195 -0.0630  2.0200 -1.9746
56277SOL     OW75691  11.040   2.473  11.475  0.2695  0.1008  0.1699
56277SOL    HW175692  10.966   2.413  11.482  0.8160 -0.6524 -0.3490
56277SOL    HW275693  11.046   2.492  11.381  1.1126 -0.3307  0.1352
56278SOL     OW75694  11.774   3.757   1.459 -0.2292 -0.1611  0.2470
56278SOL    HW175695  11.860   3.741   1.420 -0.2380 -0.0803  0.1937
56278SOL    HW275696  11.740   3.670   1.478  0.9009 -0.1804  2.5578
56279SOL     OW75697   3.347   2.837   9.790 -0.5634  0.3480  0.3595
56279SOL    HW175698   3.420   2.879   9.835  0.1219 -0.1568 -0.2672
56279SOL    HW275699   3.373   2.745   9.782 -0.5327  0.4724 -1.3141
56280SOL     OW75700   3.999   2.743  12.311  0.3543 -0.2280  0.2910
56280SOL    HW175701   3.984   2.749  12.217 -0.0435 -1.3024  0.2747
56280SOL    HW275702   3.999   2.834  12.341  0.3514  0.1222 -0.7148
56281SOL     OW75703   6.657   6.771   1.054 -0.2994  0.4308  0.2259
56281SOL    HW175704   6.686   6.862   1.052  0.4729  0.1900  0.0144
56281SOL    HW275705   6.689   6.736   1.137 -1.4562  0.6132  0.7678
56282SOL     OW75706   6.904   8.080   1.035  0.4163 -0.3915 -0.5362
56282SOL    HW175707   6.960   8.120   1.102  0.6137 -2.5634  0.6805
56282SOL    HW275708   6.961   8.071   0.959  0.9302 -0.1098 -0.1971
56283SOL     OW75709   6.510   5.140   8.807  0.3414 -0.0154  0.6866
56283SOL    HW175710   6.429   5.092   8.794  0.7085 -0.6474  0.7021
56283SOL    HW275711   6.579   5.074   8.803  0.8206  0.4406  1.1440
56284SOL     OW75712  11.738   4.999   0.661  0.5315  0.3819 -0.5121
56284SOL    HW175713  11.820   5.034   0.627 -0.2371  1.2637 -1.5363
56284SOL    HW275714  11.695   5.075   0.701  0.1397 -0.0411 -0.1142
56285SOL     OW75715   1.612  12.138   2.594 -0.1473  0.0653 -0.2527
56285SOL    HW175716   1.645  12.212   2.645  0.6824  0.2388 -1.0115
56285SOL    HW275717   1.518  12.150   2.591 -0.1566  0.3270  0.8098
56286SOL     OW75718   8.011   3.003  12.459  0.0757 -0.5357 -0.3624
56286SOL    HW175719   8.097   3.015  12.500 -0.3573 -0.5810  0.5911
56286SOL    HW275720   8.003   2.908  12.447 -0.4118 -0.6669  0.8592
56287SOL     OW75721   5.016   7.511   2.104 -0.3589 -0.0823 -0.0554
56287SOL    HW175722   5.046   7.422   2.089 -0.7626 -0.0513 -1.1286
56287SOL    HW275723   5.090   7.555   2.147  0.7007 -0.3358 -1.5276
56288SOL     OW75724   8.261   6.260   2.282 -0.0424  0.1964  0.2202
56288SOL    HW175725   8.182   6.310   2.261  0.3532  0.9441  0.5087
56288SOL    HW275726   8.252   6.180   2.230 -1.5687 -0.2782  1.1543
56289SOL     OW75727   9.476   5.128   7.774  0.0670 -0.2133 -0.5341
56289SOL    HW175728   9.420   5.104   7.848 -0.8796 -0.5538 -1.3480
56289SOL    HW275729   9.489   5.047   7.726  1.3634 -0.1633 -0.3065
56290SOL     OW75730   5.571   3.325   0.650 -0.1366  0.3585  0.4315
56290SOL    HW175731   5.510   3.323   0.724  0.2263 -0.8123  0.7258
56290SOL    HW275732   5.547   3.403   0.601 -2.3703 -0.4559  0.1049
56291SOL     OW75733   8.133  10.809   1.242  0.5378  0.4157 -0.1773
56291SOL    HW175734   8.218  10.770   1.222  1.0250  1.9206 -1.2992
56291SOL    HW275735   8.130  10.888   1.187 -1.7137  0.2444 -0.4057
56292SOL     OW75736   8.164   4.111   8.206 -0.4012 -0.0019  0.2148
56292SOL    HW175737   8.158   4.195   8.252 -1.6829  0.5534 -0.8996
56292SOL    HW275738   8.173   4.046   8.276  0.8212  1.0559  1.0896
56293SOL     OW75739   9.258   4.939   6.031 -0.4740 -0.3176  0.1760
56293SOL    HW175740   9.228   4.950   6.122 -0.1289  0.1934  0.2351
56293SOL    HW275741   9.194   4.986   5.979 -0.3395 -0.0930  0.2115
56294SOL     OW75742   4.240   6.554   4.212  0.1553 -0.4945 -0.5315
56294SOL    HW175743   4.255   6.511   4.128 -1.8836  0.2386 -1.3450
56294SOL    HW275744   4.156   6.519   4.243 -0.1194  0.7290  0.2018
56295SOL     OW75745  10.792  10.565  11.629  0.0604  0.0831  0.4463
56295SOL    HW175746  10.876  10.540  11.590 -0.3943  0.9315 -1.1361
56295SOL    HW275747  10.815  10.595  11.717  1.1562 -1.5406  0.7470
56296SOL     OW75748   9.129   1.885   7.827  0.5287  0.2889  0.3713
56296SOL    HW175749   9.207   1.939   7.843  0.1759  0.8741  0.1324
56296SOL    HW275750   9.119   1.884   7.732  1.2413 -1.2299  0.2796
56297SOL     OW75751   2.688  10.803   0.058  0.5980 -0.7219  0.1376
56297SOL    HW175752   2.747  10.747   0.006  0.6588 -1.1780  0.6818
56297SOL    HW275753   2.655  10.745   0.127  0.4793 -0.1432  0.5769
56298SOL     OW75754   3.453   1.951   2.894 -0.2482 -0.8452  0.0291
56298SOL    HW175755   3.430   1.890   2.964 -0.1726 -1.9409 -0.8693
56298SOL    HW275756   3.524   1.908   2.847 -0.3126 -0.1376 -0.7458
56299SOL     OW75757  11.892  11.444  10.735  0.2717 -0.1994 -0.2446
56299SOL    HW175758  11.863  11.380  10.669  0.7069 -1.8493  1.0832
56299SOL    HW275759  11.834  11.519  10.723  0.3106 -0.4557 -2.4613
56300SOL     OW75760   0.858  11.523   2.641  0.6846 -0.0488 -0.3525
56300SOL    HW175761   0.788  11.512   2.575  1.8629 -1.8189 -1.3970
56300SOL    HW275762   0.833  11.464   2.712  0.1103  0.8403  0.1993
56301SOL     OW75763   5.792   9.610   9.991  0.0669  0.0900 -0.5784
56301SOL    HW175764   5.841   9.630  10.071 -0.3114  0.6311 -0.4731
56301SOL    HW275765   5.859   9.603   9.923  0.3110  0.6745 -0.4066
56302SOL     OW75766   9.890  10.305  11.580 -0.2065 -0.0488  0.3138
56302SOL    HW175767   9.968  10.311  11.636 -0.9839 -0.3702  1.4490
56302SOL    HW275768   9.877  10.394  11.548  1.0649 -0.1243 -0.5315
56303SOL     OW75769  11.983   7.937   8.861 -0.3668  0.3705  0.1261
56303SOL    HW175770  11.957   7.875   8.792 -2.3036 -0.2552  1.3297
56303SOL    HW275771  11.977   7.886   8.942  0.1441  1.5588  0.9316
56304SOL     OW75772   6.194   5.196   2.412  0.0936 -0.2820  0.4125
56304SOL    HW175773   6.113   5.238   2.440 -0.0209 -0.7283  0.7659
56304SOL    HW275774   6.242   5.264   2.366 -0.6595 -0.1191 -0.1457
56305SOL     OW75775   6.034  10.409   1.396 -0.4172  0.6156 -0.1176
56305SOL    HW175776   6.039  10.436   1.304  0.2450 -0.4924 -0.4186
56305SOL    HW275777   6.121  10.425   1.430  0.4526 -2.4089 -0.6940
56306SOL     OW75778   9.634   3.327   5.319 -0.0875  0.5620 -0.3445
56306SOL    HW175779   9.642   3.264   5.247  0.9338  0.8083 -0.4650
56306SOL    HW275780   9.663   3.278   5.396  1.8655  1.1672 -0.6186
56307SOL     OW75781   7.016  11.456   7.735 -0.2751 -0.1983  0.0587
56307SOL    HW175782   6.979  11.472   7.649 -0.8180  0.3501  0.3903
56307SOL    HW275783   7.094  11.403   7.718 -0.0308  0.4262 -0.8203
56308SOL     OW75784   2.457   9.677   0.910  0.0591 -0.1419 -0.0670
56308SOL    HW175785   2.521   9.617   0.871 -1.7715 -0.4807 -2.8469
56308SOL    HW275786   2.393   9.620   0.952  1.4815  0.2006  2.8477
56309SOL     OW75787  12.463   6.340   9.144  0.1769  0.4402  0.5852
56309SOL    HW175788  12.511   6.326   9.062  1.4976 -0.6614  1.5068
56309SOL    HW275789  12.372   6.317   9.123  0.3802  0.7022 -0.6907
56310SOL     OW75790   6.675   0.783   6.463  0.0927 -0.3304  0.0870
56310SOL    HW175791   6.720   0.712   6.509  0.4758 -0.7027 -0.8313
56310SOL    HW275792   6.709   0.778   6.373 -0.7519  0.2749 -0.2750
56311SOL     OW75793   0.045   4.624   4.223  0.1332  0.0948  0.4498
56311SOL    HW175794   0.070   4.564   4.153  0.8863  0.1961  0.6170
56311SOL    HW275795   0.064   4.711   4.188 -2.6049  0.4024 -0.4605
56312SOL     OW75796   5.529   5.701  11.433  0.3107 -0.2659  0.2669
56312SOL    HW175797   5.529   5.748  11.516  2.6615 -0.4267  0.4195
56312SOL    HW275798   5.461   5.743  11.381  0.6290  1.6209  1.3087
56313SOL     OW75799  10.138   8.506   8.289 -0.0630 -0.4151  0.2844
56313SOL    HW175800  10.101   8.587   8.254 -0.9346 -1.0555 -0.3246
56313SOL    HW275801  10.138   8.446   8.215 -0.3703 -1.2804  0.9657
56314SOL     OW75802   1.319  11.407   7.524 -0.0199 -0.2812 -0.0615
56314SOL    HW175803   1.365  11.324   7.514 -2.1370 -1.3753 -1.6635
56314SOL    HW275804   1.318  11.423   7.618 -0.8453 -2.9106  0.4582
56315SOL     OW75805   5.184   6.592  11.461  0.4610  0.3524  0.2505
56315SOL    HW175806   5.270   6.549  11.473  0.8829  1.2401  0.4501
56315SOL    HW275807   5.121   6.526  11.490  1.1085 -0.0888  0.6976
56316SOL     OW75808   7.520   8.212   8.165 -0.7178  0.1638 -0.6265
56316SOL    HW175809   7.589   8.278   8.164 -0.7463  0.1932 -0.6830
56316SOL    HW275810   7.449   8.252   8.215 -0.9042  0.3518 -1.0354
56317SOL     OW75811   8.704   9.390   9.083  0.4604 -0.6478 -0.0483
56317SOL    HW175812   8.616   9.363   9.058  0.4002 -0.1645 -0.3841
56317SOL    HW275813   8.761   9.318   9.054  0.3592 -0.2268 -1.3514
56318SOL     OW75814   5.654   2.236   9.798 -0.1374  0.2062  0.1797
56318SOL    HW175815   5.592   2.246   9.726 -0.4841 -1.0767  0.2799
56318SOL    HW275816   5.725   2.183   9.761  0.6021  1.1113  0.2570
56319SOL     OW75817   1.815   5.900   5.924 -0.0882  0.3661 -0.0106
56319SOL    HW175818   1.722   5.878   5.936 -0.1899  0.9229  0.2741
56319SOL    HW275819   1.815   5.992   5.900  0.4892  0.9646  2.0655
56320SOL     OW75820   3.666   2.402   2.445  0.2747  0.4777 -0.0568
56320SOL    HW175821   3.655   2.348   2.523  2.0298 -1.1971 -0.9070
56320SOL    HW275822   3.602   2.367   2.382  0.3873  0.3576 -0.1056
56321SOL     OW75823   2.039  12.163  11.757  0.4166 -0.5010 -0.0322
56321SOL    HW175824   2.070  12.213  11.681  0.3433  0.5583  0.6116
56321SOL    HW275825   2.117  12.117  11.789  0.2316 -1.8051 -1.3493
56322SOL     OW75826   7.375   9.636   0.843  0.2050  0.5256 -0.1716
56322SOL    HW175827   7.346   9.609   0.756  2.8344 -0.0170 -0.9600
56322SOL    HW275828   7.319   9.710   0.865  0.0575  1.2722 -2.7478
56323SOL     OW75829   9.414  11.652  11.791  0.6645 -0.4234  0.2445
56323SOL    HW175830   9.404  11.698  11.874  1.2314 -1.3372  0.8337
56323SOL    HW275831   9.331  11.666  11.746 -0.7577 -2.1868  2.1234
56324SOL     OW75832   9.621  10.460  11.694  0.4020 -0.0817 -0.1289
56324SOL    HW175833   9.667  10.378  11.714  0.1808  0.0180  0.8533
56324SOL    HW275834   9.566  10.475  11.771 -0.3168  0.4667 -0.7381
56325SOL     OW75835   2.983   6.714   3.681 -0.0397  0.8193 -0.1065
56325SOL    HW175836   3.064   6.764   3.672 -0.5077  1.4299 -1.1007
56325SOL    HW275837   2.957   6.693   3.591  0.7683 -2.3257  0.2815
56326SOL     OW75838   2.187   9.357   8.594  0.2462  0.2659 -0.1554
56326SOL    HW175839   2.169   9.438   8.546  1.2001 -0.2251 -1.3768
56326SOL    HW275840   2.281   9.344   8.584  0.7435  0.7380  2.8131
56327SOL     OW75841   6.321   5.759   4.300 -0.2671  0.5242 -0.1031
56327SOL    HW175842   6.230   5.730   4.296 -0.4494  1.1472 -0.6182
56327SOL    HW275843   6.356   5.739   4.213  0.5719 -1.2121  0.5813
56328SOL     OW75844   4.296   9.682   3.476  0.3253  0.5664 -0.1855
56328SOL    HW175845   4.264   9.728   3.399 -1.2478 -0.5597 -0.2449
56328SOL    HW275846   4.305   9.750   3.542 -1.7096  1.0574 -0.3429
56329SOL     OW75847  11.592   3.282   7.587  0.4915  0.5085  0.0988
56329SOL    HW175848  11.627   3.336   7.658 -0.2424  1.4328 -0.2105
56329SOL    HW275849  11.590   3.193   7.622  0.7805  0.8444  0.9876
56330SOL     OW75850   6.551   6.329  11.853 -0.6937 -0.2201 -0.4426
56330SOL    HW175851   6.502   6.312  11.773 -2.2495  1.4852  0.0738
56330SOL    HW275852   6.509   6.406  11.891  1.9834  0.9125  0.4338
56331SOL     OW75853   6.632   4.218   9.890  0.7007 -0.5400  0.0953
56331SOL    HW175854   6.604   4.129   9.911  1.9969 -0.7635  1.0435
56331SOL    HW275855   6.708   4.233   9.947 -0.1863  1.5981  0.8302
56332SOL     OW75856   2.505  12.362   9.692 -0.3906 -0.0716  0.3479
56332SOL    HW175857   2.567  12.320   9.752 -0.2756 -0.9526 -0.3687
56332SOL    HW275858   2.419  12.347   9.731 -0.6795 -3.5202 -1.2326
56333SOL     OW75859   0.883  11.185   8.993  0.3801 -0.0528 -0.2247
56333SOL    HW175860   0.978  11.177   9.001  0.3400 -0.6798 -0.3237
56333SOL    HW275861   0.849  11.106   9.035 -0.1840  1.0782  1.5432
56334SOL     OW75862   2.708   8.454   5.099 -0.5206  0.9296  0.5374
56334SOL    HW175863   2.677   8.370   5.131 -2.6833  1.6866  0.5820
56334SOL    HW275864   2.726   8.440   5.006  2.7975 -0.4743  1.2367
56335SOL     OW75865  10.899  11.217   4.963 -0.0481  0.3183  0.2789
56335SOL    HW175866  10.987  11.179   4.959 -0.5430 -0.8186 -0.3300
56335SOL    HW275867  10.851  11.173   4.893 -1.7345 -0.7293  1.9944
56336SOL     OW75868   8.638   6.139   8.717 -0.3512 -0.6132 -0.0822
56336SOL    HW175869   8.598   6.206   8.773  1.0263 -1.4136  1.9929
56336SOL    HW275870   8.596   6.151   8.632  0.8839  3.8737 -0.3206
56337SOL     OW75871   8.996   4.714   6.888  0.0173 -0.4352 -0.2176
56337SOL    HW175872   9.066   4.749   6.943 -0.6280  1.2837 -0.4419
56337SOL    HW275873   8.982   4.625   6.921  0.5749  0.0695  1.4781
56338SOL     OW75874   3.801   8.941   5.665 -0.3583 -0.1812 -0.4330
56338SOL    HW175875   3.760   8.989   5.737  0.9112 -0.5744  0.5958
56338SOL    HW275876   3.792   8.849   5.689  2.4103 -0.2676  0.6570
56339SOL     OW75877   6.728   9.676   1.206  0.4493 -0.0718  0.1652
56339SOL    HW175878   6.764   9.743   1.264  1.7000 -0.9099  0.3816
56339SOL    HW275879   6.705   9.603   1.264  0.9789 -0.6086 -0.2915
56340SOL     OW75880   3.334  11.199  10.771  0.4816  0.6195  0.1688
56340SOL    HW175881   3.382  11.179  10.691 -0.1121  1.3488 -0.3866
56340SOL    HW275882   3.269  11.264  10.744  1.8921  2.8169  1.7509
56341SOL     OW75883   5.371   6.247   7.127 -0.0923 -0.0032  0.1910
56341SOL    HW175884   5.287   6.224   7.088 -0.0443 -1.7236  1.0153
56341SOL    HW275885   5.405   6.317   7.072 -1.3312 -0.3854 -1.1010
56342SOL     OW75886   7.747   0.328   7.636 -0.3147 -0.3830 -0.1237
56342SOL    HW175887   7.776   0.317   7.545  0.4674 -0.8415  0.1658
56342SOL    HW275888   7.809   0.276   7.687 -1.5510 -1.2370  0.5636
56343SOL     OW75889   7.981   1.771   1.194  0.2647  0.1283  0.2200
56343SOL    HW175890   7.894   1.777   1.154 -0.6891 -0.3842  2.1215
56343SOL    HW275891   7.989   1.852   1.245  0.8222  0.0766  0.2174
56344SOL     OW75892   9.161   8.026   0.073  0.6909  0.0875 -0.2751
56344SOL    HW175893   9.089   7.971   0.043  0.9800 -0.0583 -0.7286
56344SOL    HW275894   9.212   7.970   0.131  0.5636  0.1186 -0.1339
56345SOL     OW75895  10.128  12.145   9.211  0.2942  0.3616 -0.0544
56345SOL    HW175896  10.190  12.182   9.147  0.8004  0.6867  0.6138
56345SOL    HW275897  10.183  12.095   9.271 -0.3509 -1.2626 -0.7554
56346SOL     OW75898   6.489   4.506   7.508 -0.0657 -0.4899 -0.0628
56346SOL    HW175899   6.449   4.422   7.481  1.2541 -1.3898  0.6982
56346SOL    HW275900   6.517   4.491   7.598 -0.8871  1.2020  0.5112
56347SOL     OW75901   2.389   1.124   0.629 -0.3327  0.0877 -0.5425
56347SOL    HW175902   2.459   1.178   0.668  0.1619 -0.7813 -0.2107
56347SOL    HW275903   2.423   1.035   0.632 -0.4826 -0.0764 -2.5559
56348SOL     OW75904   5.604   3.247   7.446 -0.4182  0.0721 -0.1280
56348SOL    HW175905   5.651   3.282   7.370  0.6018  0.6446  0.7460
56348SOL    HW275906   5.666   3.254   7.518 -1.8253  0.8065  1.0634
56349SOL     OW75907  12.074   5.469   0.654 -0.2607  0.6851  0.5433
56349SOL    HW175908  12.089   5.429   0.740  1.3225  3.3064  1.6235
56349SOL    HW275909  12.128   5.416   0.594 -1.1597 -1.0065  1.1556
56350SOL     OW75910   8.309   7.068   9.744 -0.0997 -0.3053  0.0145
56350SOL    HW175911   8.320   7.085   9.838 -3.5759  0.2755  0.4677
56350SOL    HW275912   8.335   7.150   9.702 -0.8906  0.3331  0.7291
56351SOL     OW75913   6.607   9.897   5.461 -0.4703 -0.1741  0.3156
56351SOL    HW175914   6.584   9.986   5.437 -1.4668 -0.2538  0.8973
56351SOL    HW275915   6.523   9.853   5.473  0.0043 -1.0776  0.4583
56352SOL     OW75916  10.166   1.031   4.701 -0.0753 -0.3555  0.0602
56352SOL    HW175917  10.110   1.038   4.624  0.8817  1.7298 -0.5228
56352SOL    HW275918  10.191   0.938   4.705 -1.1158 -0.7221 -1.4016
56353SOL     OW75919   1.540   0.919   2.210 -0.3420 -0.1924  0.4725
56353SOL    HW175920   1.485   0.870   2.271 -2.5266  1.0889 -0.3223
56353SOL    HW275921   1.479   0.947   2.141  1.5093  0.6164 -0.9191
56354SOL     OW75922  10.119   9.229  10.601  0.8574 -0.1140 -0.2406
56354SOL    HW175923  10.073   9.157  10.643  2.2161 -1.1251 -0.4246
56354SOL    HW275924  10.137   9.291  10.672  0.1220 -0.1777  0.0097
56355SOL     OW75925   2.256  11.300   7.498 -0.0345  0.1323 -0.3566
56355SOL    HW175926   2.185  11.311   7.434 -0.5758  0.1089  0.2262
56355SOL    HW275927   2.221  11.236   7.561  1.2672 -1.4471 -1.1530
56356SOL     OW75928   7.686   3.137   9.338 -0.2381 -0.5519 -0.3805
56356SOL    HW175929   7.684   3.186   9.420 -0.0417  0.1797 -0.8085
56356SOL    HW275930   7.620   3.069   9.350 -0.6305 -0.0887  0.1559
56357SOL     OW75931   6.598   7.880   7.783  0.2045 -0.2763  0.5266
56357SOL    HW175932   6.660   7.951   7.763  0.6050 -0.6260  0.5049
56357SOL    HW275933   6.512   7.917   7.764  0.3679  0.3817  1.0261
56358SOL     OW75934   0.882   3.251   9.204  0.5883 -0.2498  0.5676
56358SOL    HW175935   0.946   3.285   9.267 -1.1343  1.4386  1.4899
56358SOL    HW275936   0.838   3.180   9.252  1.0643 -0.7346  0.2952
56359SOL     OW75937   6.353   9.770   4.137 -0.4972  0.4505  0.0747
56359SOL    HW175938   6.428   9.711   4.137 -0.4647  0.3001  3.3061
56359SOL    HW275939   6.384   9.849   4.094  0.1880 -0.9620 -2.2099
56360SOL     OW75940  11.439   1.085   2.415  0.0577 -0.2422  0.3893
56360SOL    HW175941  11.509   1.142   2.447 -0.4744 -0.4421  1.9980
56360SOL    HW275942  11.451   1.084   2.320  2.9473 -1.2147  0.6718
56361SOL     OW75943  11.760   6.931   2.311  0.1646 -0.2397  0.8397
56361SOL    HW175944  11.842   6.917   2.264  0.2844  0.0380  0.9659
56361SOL    HW275945  11.737   6.844   2.344  0.0597 -0.4410  0.2407
56362SOL     OW75946   8.821   3.138  10.931  0.2402 -0.4309 -0.0141
56362SOL    HW175947   8.848   3.050  10.957 -0.0281 -0.7874 -0.8976
56362SOL    HW275948   8.822   3.188  11.012 -1.7634 -1.8008  0.9616
56363SOL     OW75949  10.315   7.433   3.356  0.0465  0.1695  0.1738
56363SOL    HW175950  10.297   7.481   3.275  0.2225  1.5213  0.9055
56363SOL    HW275951  10.287   7.343   3.338 -1.3030  0.7680 -0.8934
56364SOL     OW75952  11.355   7.900   7.261  0.3723  0.1324 -0.3135
56364SOL    HW175953  11.421   7.856   7.208  0.0817 -0.4478 -0.2056
56364SOL    HW275954  11.285   7.921   7.200 -0.3951 -1.4102 -0.0117
56365SOL     OW75955   2.066   3.165   3.158  0.0996 -0.2459 -0.2618
56365SOL    HW175956   2.132   3.136   3.095 -0.3522  0.6880 -1.1979
56365SOL    HW275957   1.987   3.117   3.134  0.5750 -1.9572  1.3447
56366SOL     OW75958   6.313   0.782   8.193  0.1424 -0.2351 -0.0610
56366SOL    HW175959   6.376   0.849   8.220 -0.3735 -0.0846  0.8041
56366SOL    HW275960   6.292   0.734   8.273 -1.1893  0.0205 -0.2295
56367SOL     OW75961   4.603   4.208   7.157  0.4906 -0.4832 -0.2684
56367SOL    HW175962   4.639   4.136   7.104  0.5476 -0.3813 -0.3683
56367SOL    HW275963   4.509   4.189   7.162  0.3738 -0.1331 -0.9774
56368SOL     OW75964   6.508  10.136   5.336  0.6315  0.1730  0.1038
56368SOL    HW175965   6.454  10.088   5.274 -0.6795 -1.0456  2.0791
56368SOL    HW275966   6.448  10.200   5.376  1.1110  0.1195  0.9419
56369SOL     OW75967   2.155  10.834   2.909 -0.7249  0.2009 -0.4207
56369SOL    HW175968   2.210  10.759   2.887  0.5756  1.5202 -1.9126
56369SOL    HW275969   2.065  10.803   2.892 -0.1764 -0.8020 -1.7528
56370SOL     OW75970   9.068   7.856   1.511 -0.0882  0.0949 -0.3130
56370SOL    HW175971   9.029   7.940   1.536 -1.0850 -0.5987  0.5438
56370SOL    HW275972   9.024   7.832   1.430 -0.3604  0.0267 -0.1448
56371SOL     OW75973   2.322   6.859   8.611  0.5767 -0.0656  0.0378
56371SOL    HW175974   2.316   6.924   8.681  1.9329  1.1102 -0.8831
56371SOL    HW275975   2.257   6.793   8.634 -0.3856  1.2756  1.3588
56372SOL     OW75976   5.387   2.072  11.676 -0.3035 -0.9533  0.7168
56372SOL    HW175977   5.366   2.070  11.582 -0.1860 -0.3518  0.6736
56372SOL    HW275978   5.303   2.089  11.718 -0.6655 -2.8508  0.8486
56373SOL     OW75979   0.220  10.777   7.775  0.0282  0.1131 -0.1927
56373SOL    HW175980   0.238  10.738   7.690  0.4272 -1.2799  0.4894
56373SOL    HW275981   0.306  10.787   7.816 -0.2161 -0.0598  0.3833
56374SOL     OW75982   7.946   0.850   9.382 -0.1568  0.2923 -0.1410
56374SOL    HW175983   7.884   0.787   9.345 -1.6964  1.5162  0.2115
56374SOL    HW275984   7.893   0.929   9.396  0.8116  0.5187  2.7804
56375SOL     OW75985   9.275   6.316   3.297  0.3440  0.0209  0.0529
56375SOL    HW175986   9.217   6.304   3.371  0.5861 -0.1265  0.2216
56375SOL    HW275987   9.307   6.228   3.276 -0.9386 -0.1785 -1.2411
56376SOL     OW75988   0.114  11.987   4.422  0.0768 -0.2218  0.0441
56376SOL    HW175989   0.117  11.954   4.332  2.9541 -0.0452  0.0102
56376SOL    HW275990   0.118  12.082   4.413 -1.3909 -0.1048  0.3599
56377SOL     OW75991   2.893   3.609   3.672 -0.1523  0.2281  0.1545
56377SOL    HW175992   2.925   3.525   3.640 -0.9954 -0.3934  0.9123
56377SOL    HW275993   2.934   3.674   3.614  0.9876 -0.6528 -0.0626
56378SOL     OW75994   7.695  10.466   3.902 -0.3155 -0.2735 -0.2462
56378SOL    HW175995   7.640  10.388   3.902  0.0662 -0.5529  0.6017
56378SOL    HW275996   7.670  10.513   3.822 -1.5709 -0.5364 -0.0335
56379SOL     OW75997   0.270   6.899   7.053 -0.2243 -0.4339  0.2645
56379SOL    HW175998   0.201   6.948   7.098 -0.0921 -0.5133  0.5532
56379SOL    HW275999   0.263   6.927   6.962 -2.5552 -2.5413 -0.3272
56380SOL     OW76000  12.285   0.604  11.776 -0.2452 -0.5930 -0.4077
56380SOL    HW176001  12.198   0.622  11.812 -0.3802  0.8828 -1.4146
56380SOL    HW276002  12.303   0.677  11.717  0.7689 -1.9494 -1.8771
56381SOL     OW76003  10.990   8.697   3.661  0.5819  0.1995 -0.3589
56381SOL    HW176004  11.018   8.742   3.741 -0.8400 -1.6101  1.2663
56381SOL    HW276005  11.022   8.607   3.672  1.3262  0.1823 -2.3864
56382SOL     OW76006   7.088  12.457  10.071 -0.1853 -0.0121 -0.0918
56382SOL    HW176007   7.119  12.501  10.150 -1.5980  0.1288  0.4097
56382SOL    HW276008   6.993  12.449  10.083 -0.4035 -0.1888 -1.6772
56383SOL     OW76009   9.407  10.557   9.249 -0.2394  0.1275 -0.4397
56383SOL    HW176010   9.350  10.489   9.213  0.8389 -0.4153 -1.1818
56383SOL    HW276011   9.482  10.559   9.190  0.5622  0.7569  0.5612
56384SOL     OW76012   8.228   0.863   8.588  0.6541 -0.3844 -0.5586
56384SOL    HW176013   8.236   0.921   8.663 -0.7307 -1.6318  0.6267
56384SOL    HW276014   8.243   0.919   8.512  0.8070  1.1898  0.5899
56385SOL     OW76015   3.145   5.311   6.974 -0.7751  0.2307  0.0206
56385SOL    HW176016   3.075   5.374   6.953 -0.9590  0.2253  0.6096
56385SOL    HW276017   3.124   5.234   6.921 -0.0658  0.9580 -1.3845
56386SOL     OW76018   8.949   6.674   0.314  0.0458  0.0149 -0.3485
56386SOL    HW176019   8.870   6.695   0.363 -1.2896 -2.0454 -1.4502
56386SOL    HW276020   8.927   6.695   0.223  0.2347 -1.8063 -0.8548
56387SOL     OW76021   1.778   3.303   0.804  0.4619  0.1670  0.0737
56387SOL    HW176022   1.769   3.352   0.885  0.2694 -0.5700  0.5066
56387SOL    HW276023   1.853   3.342   0.760  1.5713 -0.4562  1.3496
56388SOL     OW76024   4.457   7.835   7.235 -0.3301 -0.0067  0.5629
56388SOL    HW176025   4.439   7.761   7.176  0.2203  0.5804 -0.3685
56388SOL    HW276026   4.526   7.884   7.191  2.6516 -1.3504  3.2774
56389SOL     OW76027   3.939   2.731   2.642  0.0272 -0.1743 -0.1479
56389SOL    HW176028   3.889   2.677   2.580 -1.4738 -0.2769  1.0904
56389SOL    HW276029   3.907   2.820   2.628 -0.2933 -0.1926  0.4427
56390SOL     OW76030   8.068  10.962   6.410 -0.1668 -0.3670 -0.0210
56390SOL    HW176031   8.000  11.001   6.465  0.8719  1.9083 -0.2234
56390SOL    HW276032   8.023  10.941   6.328 -0.8829 -0.0392  0.2742
56391SOL     OW76033   7.456   7.031   7.878 -0.6825  0.1892  0.0931
56391SOL    HW176034   7.513   7.046   7.954  0.5757 -1.2988 -0.5130
56391SOL    HW276035   7.510   6.983   7.816 -2.1610  0.0332 -1.1435
56392SOL     OW76036   5.883   7.971  11.524 -0.6739  0.3869 -0.7008
56392SOL    HW176037   5.824   8.027  11.475  1.1300  1.0130 -2.2736
56392SOL    HW276038   5.914   7.906  11.460  0.2001 -0.0339  0.1132
56393SOL     OW76039  11.961   0.450   3.699  0.5904  0.5710 -0.4604
56393SOL    HW176040  12.024   0.380   3.717 -0.7141 -0.3382  0.7842
56393SOL    HW276041  11.881   0.423   3.745 -0.1758  2.5457 -0.5381
56394SOL     OW76042   0.973   6.125   1.898 -0.8204  0.2250 -0.1970
56394SOL    HW176043   0.930   6.046   1.866 -0.0389 -0.4064  0.2524
56394SOL    HW276044   1.059   6.094   1.928  0.3602  1.5814 -1.9622
56395SOL     OW76045   5.123   2.123   1.127  0.3365  0.2735 -0.1872
56395SOL    HW176046   5.037   2.097   1.160  1.0569 -0.4979  1.1670
56395SOL    HW276047   5.174   2.141   1.206  2.2611 -2.0474 -0.7943
56396SOL     OW76048   9.301   1.697  12.215  0.2292 -0.1316 -0.2232
56396SOL    HW176049   9.282   1.631  12.148  2.6768 -0.5789 -0.5470
56396SOL    HW276050   9.393   1.683  12.238  0.3418  2.0805  0.9432
56397SOL     OW76051   3.068   3.166   5.115 -0.1334  0.2388 -0.3213
56397SOL    HW176052   2.982   3.185   5.078  0.6739  1.0407 -1.9128
56397SOL    HW276053   3.050   3.138   5.204 -2.1154 -0.5306 -0.8950
56398SOL     OW76054   3.255   6.279   5.025  0.1820  0.2584  0.4662
56398SOL    HW176055   3.340   6.235   5.029 -1.1313 -2.5155 -0.0376
56398SOL    HW276056   3.248   6.310   4.935  0.5178  0.2445  0.4338
56399SOL     OW76057   5.937   0.947   1.072  0.1897  0.1055  0.8412
56399SOL    HW176058   5.845   0.928   1.050 -0.1378  0.5853  1.7354
56399SOL    HW276059   5.981   0.863   1.068 -0.3028 -0.1381  0.4605
56400SOL     OW76060  11.746   5.625   4.645 -0.1592 -0.2436 -0.1844
56400SOL    HW176061  11.765   5.702   4.591 -0.6432  0.1257  0.1633
56400SOL    HW276062  11.744   5.659   4.735 -2.8365 -0.1443 -0.1999
56401SOL     OW76063   7.800   3.889   0.586 -0.4220 -0.2445 -0.2644
56401SOL    HW176064   7.815   3.802   0.622  0.0269 -0.5939 -1.2702
56401SOL    HW276065   7.840   3.948   0.650 -1.8122 -0.6648  1.0540
56402SOL     OW76066   0.013   2.155   4.764 -0.2762 -0.2259  0.7283
56402SOL    HW176067  -0.021   2.140   4.676 -1.9620 -2.3156  1.6364
56402SOL    HW276068  -0.038   2.230   4.796  0.3753  0.5690 -0.0628
56403SOL     OW76069   0.795   3.615   1.442  0.3238  0.3984  0.1704
56403SOL    HW176070   0.849   3.676   1.492 -0.3276  0.1771  1.1663
56403SOL    HW276071   0.828   3.528   1.467 -0.4511  0.2631  0.7662
56404SOL     OW76072   3.958   4.967   9.035 -0.2013  0.2472 -0.7522
56404SOL    HW176073   3.952   4.963   8.940 -1.9074 -0.8440 -0.6455
56404SOL    HW276074   4.048   4.994   9.052  0.6392 -1.0659 -2.6552
56405SOL     OW76075   6.084   9.809  11.725  0.0141 -0.0893  0.1778
56405SOL    HW176076   6.155   9.868  11.749  1.3000 -2.1479  1.6284
56405SOL    HW276077   6.065   9.759  11.804 -2.9748  0.2283 -0.1874
56406SOL     OW76078   5.894   3.719   3.228  0.0580 -0.5459  0.2566
56406SOL    HW176079   5.878   3.810   3.201  0.4222 -0.8917 -1.2315
56406SOL    HW276080   5.982   3.700   3.196  0.4262 -1.0858  1.5373
56407SOL     OW76081   4.125   5.393   0.445  0.1013 -0.1568  0.2062
56407SOL    HW176082   4.067   5.469   0.440  2.0633  1.4143  0.0604
56407SOL    HW276083   4.209   5.424   0.411  0.6233 -2.8068 -1.2556
56408SOL     OW76084   6.268   2.440  11.457 -0.3582  0.2410 -0.2025
56408SOL    HW176085   6.228   2.356  11.479 -3.2970  1.2162 -1.3305
56408SOL    HW276086   6.354   2.417  11.421 -1.3185 -2.3311 -1.0721
56409SOL     OW76087   5.544   5.972   0.858  0.6190  0.4451  0.2858
56409SOL    HW176088   5.620   5.932   0.899  0.9256 -0.0192 -0.6862
56409SOL    HW276089   5.480   5.981   0.928  0.9860 -0.6575  0.7806
56410SOL     OW76090   7.009   0.998   4.570 -0.1885  0.1773  0.5216
56410SOL    HW176091   6.972   0.953   4.494  2.9003 -0.8267 -0.5359
56410SOL    HW276092   6.989   0.940   4.643  1.2519 -1.5743 -0.3845
56411SOL     OW76093   9.492   5.250   8.468 -0.1479  0.4339 -0.0040
56411SOL    HW176094   9.459   5.335   8.497 -0.5482  0.6416 -1.0211
56411SOL    HW276095   9.419   5.212   8.419  1.1105  0.9877 -2.4996
56412SOL     OW76096   9.479   4.686   2.212 -0.5061 -0.1348  0.3078
56412SOL    HW176097   9.564   4.666   2.251 -0.5502 -0.5692  0.1904
56412SOL    HW276098   9.419   4.624   2.252 -0.6534 -0.2302 -0.0527
56413SOL     OW76099   7.440   3.276   7.062 -0.4307  0.0876 -0.1279
56413SOL    HW176100   7.511   3.252   7.002  0.3267  0.9285  0.3986
56413SOL    HW276101   7.417   3.366   7.038 -0.3332  0.3210  0.6197
56414SOL     OW76102  12.096   9.885   5.124  0.5177 -0.1113  0.5874
56414SOL    HW176103  12.117   9.970   5.162 -0.3940  1.6217 -2.4294
56414SOL    HW276104  12.000   9.882   5.124  0.5258 -0.6510 -0.2402
56415SOL     OW76105  10.923  11.801   8.574  0.2983  0.4273 -0.1335
56415SOL    HW176106  10.847  11.826   8.626 -0.3216 -1.1141 -0.2648
56415SOL    HW276107  10.919  11.858   8.497 -0.1760  1.0072  0.3104
56416SOL     OW76108   6.006   0.500   8.384  0.4416  0.2589 -0.1196
56416SOL    HW176109   6.020   0.445   8.461 -0.8306 -0.3507 -0.2982
56416SOL    HW276110   6.005   0.439   8.311  0.9758  0.7595 -0.5536
56417SOL     OW76111   5.512   1.204   3.769 -0.2903  0.0389  0.0830
56417SOL    HW176112   5.500   1.151   3.691  0.9545 -1.7845  1.0355
56417SOL    HW276113   5.597   1.246   3.757 -0.5586  0.5720  0.0190
56418SOL     OW76114   5.468   0.807   5.378 -0.0439  0.2138 -0.2193
56418SOL    HW176115   5.536   0.837   5.319  0.0188  0.5771  0.0281
56418SOL    HW276116   5.453   0.882   5.436 -0.5504  0.0886 -0.1842
56419SOL     OW76117   4.377   1.316   6.299 -0.2321  0.1006 -0.4295
56419SOL    HW176118   4.372   1.239   6.243  2.0408  0.0617 -0.6528
56419SOL    HW276119   4.285   1.340   6.315 -0.9734 -2.2266 -0.8958
56420SOL     OW76120   3.561   1.813   1.326  0.4562  0.0149  0.2893
56420SOL    HW176121   3.598   1.811   1.414 -0.6850 -1.1192  0.7657
56420SOL    HW276122   3.626   1.861   1.274  0.8534  1.2672  1.8598
56421SOL     OW76123   2.378  11.029   6.364 -0.3845  0.5711 -0.3324
56421SOL    HW176124   2.372  11.112   6.413 -0.4051 -0.1052  0.8552
56421SOL    HW276125   2.290  11.017   6.327 -0.1481  1.4916 -1.2408
56422SOL     OW76126   1.412  10.979   9.521 -0.7486  0.5529 -0.5428
56422SOL    HW176127   1.340  10.965   9.583  0.3353 -0.0231  0.6241
56422SOL    HW276128   1.424  10.894   9.479 -0.2165  0.4312 -0.1465
56423SOL     OW76129   2.441   0.149  12.310 -0.2239 -0.1865  0.0374
56423SOL    HW176130   2.389   0.071  12.325 -0.5948  0.1192  0.3589
56423SOL    HW276131   2.529   0.126  12.340 -1.0417  0.6248  3.6109
56424SOL     OW76132   9.337   8.836   7.472 -0.2880 -0.3240  0.5155
56424SOL    HW176133   9.270   8.767   7.480 -0.6965  0.1920  1.7938
56424SOL    HW276134   9.408   8.795   7.423 -1.3706 -1.0159 -0.5302
56425SOL     OW76135   2.366  12.350  10.187 -0.1838 -0.2919  0.2758
56425SOL    HW176136   2.453  12.352  10.227 -0.6481 -0.3307  1.3213
56425SOL    HW276137   2.321  12.427  10.222 -1.1313 -1.1845  1.0934
56426SOL     OW76138   9.006   8.788  11.786  0.3504  0.8473 -0.1562
56426SOL    HW176139   8.926   8.748  11.821  0.9225 -0.6381 -0.4629
56426SOL    HW276140   8.976   8.870  11.746 -0.8166  0.9269  0.8161
56427SOL     OW76141   4.257   9.421  12.187 -0.2211  0.1108 -0.6831
56427SOL    HW176142   4.217   9.375  12.113 -0.1031 -0.4480 -0.4010
56427SOL    HW276143   4.226   9.374  12.265  0.5437  0.0042 -0.4321
56428SOL     OW76144   8.388  11.569  10.186  0.6858  0.4251  0.1870
56428SOL    HW176145   8.317  11.633  10.193  1.6249  1.5248  0.0735
56428SOL    HW276146   8.379  11.513  10.263 -1.6947 -0.9770 -1.0069
56429SOL     OW76147   3.410  10.493   3.899  0.3176 -0.0564  0.5432
56429SOL    HW176148   3.480  10.453   3.846  0.5212 -2.0137  2.1602
56429SOL    HW276149   3.331  10.478   3.848  0.9491  1.7998 -1.1095
56430SOL     OW76150  12.257  12.131   0.435 -0.2093 -0.0371  0.0727
56430SOL    HW176151  12.299  12.134   0.349  0.1148  0.7747  0.2465
56430SOL    HW276152  12.165  12.115   0.416 -0.0701 -0.3025 -0.4004
56431SOL     OW76153   0.279   9.230   2.588  0.3151  0.2566  0.0690
56431SOL    HW176154   0.206   9.175   2.618  0.6734 -0.6827 -0.7163
56431SOL    HW276155   0.276   9.307   2.645 -0.9374 -0.0246  0.4188
56432SOL     OW76156   8.438   6.822  10.264  0.2895 -0.3382  0.3849
56432SOL    HW176157   8.496   6.815  10.340  0.7363  1.2138  0.2224
56432SOL    HW276158   8.352   6.837  10.302  0.3767 -0.3846  0.6051
56433SOL     OW76159   9.535   3.135   8.262  0.3638 -0.4113 -0.2103
56433SOL    HW176160   9.510   3.154   8.352  0.5805  1.2324 -0.4581
56433SOL    HW276161   9.619   3.088   8.269  0.2717 -0.4775  0.4442
56434SOL     OW76162   9.096  11.936   7.484  0.3705  0.2482 -0.4718
56434SOL    HW176163   9.077  12.029   7.474  0.7919  0.3903  0.0472
56434SOL    HW276164   9.074  11.898   7.399 -0.6851  0.6660 -0.4008
56435SOL     OW76165   5.965   4.079   5.724 -0.0045  0.2837 -0.1918
56435SOL    HW176166   6.020   4.061   5.648 -0.3755 -0.7034 -0.2415
56435SOL    HW276167   5.902   4.007   5.726 -0.2600  0.5162  0.8114
56436SOL     OW76168   2.652   5.719   7.309  0.5032  0.0063  0.1553
56436SOL    HW176169   2.712   5.740   7.237  0.9764 -1.3221  0.1363
56436SOL    HW276170   2.632   5.804   7.349 -1.3529  1.0830 -2.7299
56437SOL     OW76171   7.318   7.369   0.044 -0.0022  0.0778  0.1369
56437SOL    HW176172   7.314   7.454   0.001  0.3820  0.5554  1.0134
56437SOL    HW276173   7.360   7.311  -0.020  0.4656  0.7385 -0.1684
56438SOL     OW76174   0.689  11.312   2.047 -0.2441 -0.0009  0.2687
56438SOL    HW176175   0.665  11.313   1.955 -0.3579 -1.6657  0.2559
56438SOL    HW276176   0.684  11.404   2.074 -0.2169  0.5080 -1.3639
56439SOL     OW76177   6.192   7.593   8.539  0.4638 -0.2253  0.1704
56439SOL    HW176178   6.182   7.504   8.505  1.7851 -0.4216  0.2322
56439SOL    HW276179   6.105   7.618   8.568  0.2734 -1.8957  1.1319
56440SOL     OW76180  10.561   8.503   1.335  0.1485  0.0055 -0.3547
56440SOL    HW176181  10.608   8.585   1.322  0.7672 -0.1811  0.6242
56440SOL    HW276182  10.513   8.490   1.253  1.1172  0.6460 -1.0467
56441SOL     OW76183   0.108   5.467   2.309  0.4309  0.2903  0.1268
56441SOL    HW176184   0.186   5.421   2.341 -0.7002 -1.9891 -0.1679
56441SOL    HW276185   0.046   5.461   2.381 -0.0989  0.3903 -0.3152
56442SOL     OW76186   7.803   5.743   4.728 -0.1827  0.0244  0.0900
56442SOL    HW176187   7.815   5.672   4.791  2.2993 -0.1076 -0.4436
56442SOL    HW276188   7.752   5.808   4.776 -1.2324 -1.4563  1.0821
56443SOL     OW76189   4.688   2.571   4.520  0.4093 -0.6152  0.4143
56443SOL    HW176190   4.752   2.585   4.450 -1.1700 -1.5322 -1.3102
56443SOL    HW276191   4.613   2.624   4.494 -0.6540 -1.9047  0.7452
56444SOL     OW76192   0.546   4.204   1.140  0.1413 -0.3384  0.2394
56444SOL    HW176193   0.495   4.255   1.202 -0.2722 -0.6509  0.1588
56444SOL    HW276194   0.522   4.113   1.157  1.2414 -0.5513  0.7114
56445SOL     OW76195  12.262   1.438   4.463  0.1715  0.4235 -0.1581
56445SOL    HW176196  12.331   1.395   4.513 -0.7376  0.0229  0.8010
56445SOL    HW276197  12.230   1.371   4.403  3.4328  1.7770 -3.7564
56446SOL     OW76198  10.702  11.894  12.011  0.9079 -0.0050  0.6407
56446SOL    HW176199  10.758  11.915  11.936  1.1949  0.1925  0.9119
56446SOL    HW276200  10.762  11.875  12.083  0.6602  1.6094  1.3255
56447SOL     OW76201   8.103   6.688   1.597  0.1441 -0.0576 -0.0797
56447SOL    HW176202   8.181   6.650   1.636  0.3951  0.2580 -0.2631
56447SOL    HW276203   8.031   6.636   1.631  0.4907 -0.8027 -0.4561
56448SOL     OW76204   0.979  10.078   3.163 -0.1142  0.2829 -0.0776
56448SOL    HW176205   0.904  10.110   3.113  0.3222 -0.1337 -1.0068
56448SOL    HW276206   1.055  10.106   3.112  0.3106 -1.0065 -0.1735
56449SOL     OW76207   8.498   0.962  11.756  0.3645 -0.9594 -0.4734
56449SOL    HW176208   8.531   0.986  11.843 -0.7794 -0.0686 -0.2642
56449SOL    HW276209   8.533   0.874  11.741  2.5407 -0.2130 -0.1488
56450SOL     OW76210   9.036   8.392   3.876 -0.0554  0.8907 -0.1831
56450SOL    HW176211   8.954   8.427   3.841 -1.7612 -1.0613  1.6338
56450SOL    HW276212   9.014   8.360   3.963  2.8938  1.1146  0.7548
56451SOL     OW76213  11.118  11.150   5.808 -0.2131  0.4236 -0.6084
56451SOL    HW176214  11.060  11.125   5.736  2.6901 -0.2335 -2.9255
56451SOL    HW276215  11.167  11.070   5.828  0.4519  1.1269  0.7231
56452SOL     OW76216  11.602   5.955  11.097  1.0492 -0.6107  0.4448
56452SOL    HW176217  11.638   5.967  11.185 -1.0555  0.5320  1.2263
56452SOL    HW276218  11.554   6.036  11.080  1.7881 -0.6313 -1.9643
56453SOL     OW76219   4.758   3.439   8.964  0.2177 -0.3533  0.8377
56453SOL    HW176220   4.704   3.512   8.932  1.3904  0.0943 -0.2306
56453SOL    HW276221   4.826   3.480   9.017  1.0850 -0.6045 -0.0424
56454SOL     OW76222   2.429   3.468   9.141  0.0238 -0.1055 -0.0138
56454SOL    HW176223   2.412   3.381   9.106  0.1167  0.0930 -0.5559
56454SOL    HW276224   2.473   3.515   9.070  1.0943  0.0001  0.6826
56455SOL     OW76225   5.566   6.073   9.898  0.1240 -0.3386 -0.5943
56455SOL    HW176226   5.571   6.168   9.914 -0.7124 -0.5007  0.8207
56455SOL    HW276227   5.571   6.065   9.803 -1.2054  1.2309 -0.8497
56456SOL     OW76228   5.761   3.145   1.113  0.1177  0.0537  0.1928
56456SOL    HW176229   5.735   3.054   1.098  2.3391 -0.5387 -0.4727
56456SOL    HW276230   5.716   3.195   1.045  0.0257 -0.7678 -0.3619
56457SOL     OW76231   1.199   7.240   1.525  0.0783  0.2297 -0.0743
56457SOL    HW176232   1.192   7.330   1.557  0.5906  0.0365  0.5956
56457SOL    HW276233   1.157   7.187   1.593  3.3684 -0.4568  1.6347
56458SOL     OW76234  10.117   7.606   1.723 -0.1063 -1.3346  0.2652
56458SOL    HW176235  10.208   7.613   1.693 -0.5045 -1.5759 -1.0571
56458SOL    HW276236  10.065   7.610   1.643 -1.3320 -0.2099  1.0682
56459SOL     OW76237   3.882   8.938   7.123 -0.0302  0.2819  0.1554
56459SOL    HW176238   3.787   8.935   7.118 -0.0146 -0.4780  0.1275
56459SOL    HW276239   3.908   9.005   7.059 -0.5330  0.3318  0.0020
56460SOL     OW76240   2.588   2.781  10.616  0.4143  0.3258  0.0309
56460SOL    HW176241   2.524   2.804  10.548 -0.4532  0.8216  1.0016
56460SOL    HW276242   2.536   2.761  10.693  1.2118 -2.7593 -0.0753
56461SOL     OW76243   8.395   3.809   1.778 -0.2481 -0.0859  0.0917
56461SOL    HW176244   8.364   3.830   1.866 -1.2526 -2.9852  0.5320
56461SOL    HW276245   8.334   3.853   1.719  1.1942  2.9932  0.6895
56462SOL     OW76246   9.772   4.155   7.533 -0.0250  0.1546 -0.3346
56462SOL    HW176247   9.733   4.067   7.523 -1.2929  0.6582 -0.0747
56462SOL    HW276248   9.816   4.152   7.618  0.8018 -0.5261 -0.7676
56463SOL     OW76249   4.078   1.616  11.293 -0.2376  0.4651  0.6142
56463SOL    HW176250   4.001   1.629  11.238  0.7683  1.0267 -0.7373
56463SOL    HW276251   4.128   1.697  11.283  2.3533 -1.2556 -1.5996
56464SOL     OW76252   8.615   7.445   5.667  0.3741  0.1503 -0.1069
56464SOL    HW176253   8.566   7.441   5.585 -0.2579  2.6223  0.0546
56464SOL    HW276254   8.549   7.427   5.735  0.6627 -0.8417 -0.0869
56465SOL     OW76255   6.518   0.813   3.754 -0.2027  0.3958  0.5676
56465SOL    HW176256   6.425   0.819   3.734 -0.4058  1.4704  1.7415
56465SOL    HW276257   6.525   0.837   3.846  1.2738  0.6297  0.4206
56466SOL     OW76258   5.364   6.768   3.091 -0.2420  0.4360  0.5507
56466SOL    HW176259   5.401   6.758   3.179 -0.2983  2.9836  0.9310
56466SOL    HW276260   5.278   6.726   3.096 -1.0506  2.1403  2.3329
56467SOL     OW76261   0.539   2.643  10.385 -0.5184 -0.2985 -0.4656
56467SOL    HW176262   0.594   2.569  10.410 -1.7059 -0.6998  1.1445
56467SOL    HW276263   0.460   2.603  10.348 -0.3026  0.2332 -1.5424
56468SOL     OW76264   7.177   0.512  11.705 -0.1738  0.2672  0.0446
56468SOL    HW176265   7.211   0.498  11.794  2.2971 -0.1883 -0.8915
56468SOL    HW276266   7.151   0.604  11.704  0.5936  0.5182  0.9911
56469SOL     OW76267  11.254   2.834   6.283 -0.0561  0.6934 -0.1868
56469SOL    HW176268  11.171   2.789   6.266 -0.1992  0.5833  0.7770
56469SOL    HW276269  11.266   2.828   6.377  0.5360  1.6095 -0.1897
56470SOL     OW76270  12.253   0.722  10.349  0.0217  0.4907 -0.5818
56470SOL    HW176271  12.254   0.797  10.289 -0.0714  1.7436  0.9277
56470SOL    HW276272  12.316   0.744  10.417 -1.8298  0.3996  1.2648
56471SOL     OW76273  11.078   5.404   1.829  0.1095 -0.0301 -0.2804
56471SOL    HW176274  11.173   5.406   1.824  0.4605  1.9063  3.6250
56471SOL    HW276275  11.052   5.496   1.829 -1.6693 -0.4986 -0.0900
56472SOL     OW76276  10.015   2.054   5.568  0.2478 -0.1386  0.0145
56472SOL    HW176277   9.973   1.969   5.582  0.0933 -0.2481 -1.0280
56472SOL    HW276278   9.964   2.095   5.498  1.2049  0.1878 -0.5185
56473SOL     OW76279   8.272   1.969   5.328  0.0407  0.4331 -0.2543
56473SOL    HW176280   8.339   1.993   5.265 -1.2702  1.7797 -1.2101
56473SOL    HW276281   8.223   1.898   5.285 -0.6864  1.1698 -0.6746
56474SOL     OW76282   2.083   2.183  10.798  0.3519  0.6849  0.7421
56474SOL    HW176283   2.157   2.244  10.791  0.1873  0.7440 -0.7475
56474SOL    HW276284   2.009   2.229  10.759  0.2940 -0.5546 -0.7153
56475SOL     OW76285  11.925   3.322   0.736 -0.6433  0.1411  0.1296
56475SOL    HW176286  11.856   3.377   0.700 -0.5377  0.7428  0.8182
56475SOL    HW276287  12.002   3.378   0.737 -0.3566 -0.2520  0.1646
56476SOL     OW76288   9.398   1.469   9.122 -0.2353  0.7154 -0.7785
56476SOL    HW176289   9.311   1.431   9.136  0.1628 -0.1838 -0.7415
56476SOL    HW276290   9.439   1.414   9.056 -0.5741  2.5655 -2.6363
56477SOL     OW76291   7.439   6.205   7.620 -0.3723  0.2097  0.3106
56477SOL    HW176292   7.385   6.163   7.554  0.8467 -1.2147  0.1590
56477SOL    HW276293   7.490   6.270   7.571  2.0538 -2.2404 -0.6692
56478SOL     OW76294   2.216   9.860  10.066  0.3389 -0.6112 -0.2800
56478SOL    HW176295   2.209   9.789  10.131 -0.6731 -1.1840 -0.9940
56478SOL    HW276296   2.167   9.828   9.991 -1.7224  1.6169  0.0273
56479SOL     OW76297   1.207   4.516   3.180 -0.1558 -0.2595  0.6154
56479SOL    HW176298   1.158   4.435   3.195 -0.6849 -0.1208 -0.3047
56479SOL    HW276299   1.299   4.492   3.194 -0.3070 -1.0241  0.2990
56480SOL     OW76300  12.030   7.494   7.458  0.0004 -0.0590  0.3636
56480SOL    HW176301  12.083   7.428   7.503  1.0461  0.8912  0.5679
56480SOL    HW276302  11.978   7.535   7.527 -0.5395 -0.5586  0.2588
56481SOL     OW76303   1.849  11.667  10.231 -0.7234  0.5093 -0.0799
56481SOL    HW176304   1.884  11.657  10.320 -0.9245 -0.9116 -0.1453
56481SOL    HW276305   1.782  11.599  10.223  0.2836 -0.3660 -1.7936
56482SOL     OW76306   5.316   7.762   2.000 -0.2669 -0.5098  1.1513
56482SOL    HW176307   5.247   7.710   1.959 -0.1323  0.2428 -0.0759
56482SOL    HW276308   5.329   7.722   2.086 -2.0740 -0.8044  1.3168
56483SOL     OW76309   5.602   2.319   8.474 -0.2536 -0.3897 -0.2666
56483SOL    HW176310   5.670   2.380   8.445  0.1941 -0.1985  1.0893
56483SOL    HW276311   5.520   2.365   8.458  0.0910  0.7255  1.0240
56484SOL     OW76312   3.956   9.372   7.899 -0.1118  0.1750 -0.1075
56484SOL    HW176313   4.018   9.389   7.829 -0.0984 -0.0803 -0.1576
56484SOL    HW276314   3.969   9.445   7.961 -0.4779  0.6727 -0.6110
56485SOL     OW76315   5.486   8.017  10.487  0.1997  0.1454 -0.2369
56485SOL    HW176316   5.393   7.999  10.500  0.4118  0.3854  1.8847
56485SOL    HW276317   5.487   8.085  10.420 -0.9901 -1.6202 -2.1825
56486SOL     OW76318   8.564   2.573   2.506  0.7824 -0.1909  0.6969
56486SOL    HW176319   8.572   2.549   2.598  0.6716 -0.5486  0.6128
56486SOL    HW276320   8.480   2.536   2.479  1.0112 -0.4504  0.3396
56487SOL     OW76321   0.967   6.063   0.175  0.1779  0.2592  0.2696
56487SOL    HW176322   1.023   6.031   0.105 -1.7966  0.2791 -1.4335
56487SOL    HW276323   1.009   6.034   0.256  2.4386  0.0555 -0.9119
56488SOL     OW76324   7.904   0.723   6.383  0.0720 -0.1429  0.7030
56488SOL    HW176325   7.867   0.808   6.362  1.9455  0.5197 -0.1532
56488SOL    HW276326   7.875   0.666   6.312  0.3752  0.2730  0.2409
56489SOL     OW76327   0.897   1.870  12.313 -0.6465  0.5441 -0.0423
56489SOL    HW176328   0.807   1.904  12.316 -1.5777 -1.7486  0.1973
56489SOL    HW276329   0.916   1.845  12.403 -0.1052  0.2457 -0.2340
56490SOL     OW76330   2.886   6.880   4.802  0.2515 -0.1397  0.0810
56490SOL    HW176331   2.904   6.953   4.742 -0.4097  0.1063  0.1671
56490SOL    HW276332   2.863   6.807   4.745  0.0389 -0.0250  0.0181
56491SOL     OW76333   4.904   0.294   0.639  0.2319  0.4615 -0.2248
56491SOL    HW176334   4.871   0.249   0.561  0.3501  1.0803 -0.6389
56491SOL    HW276335   4.886   0.233   0.710  0.5624 -0.3279 -0.7914
56492SOL     OW76336  11.153   6.962   7.324  0.1472 -0.2551 -0.3950
56492SOL    HW176337  11.068   6.998   7.347  0.6938 -0.2076  1.7657
56492SOL    HW276338  11.207   7.039   7.304 -0.1375 -0.2529 -1.2037
56493SOL     OW76339   3.742  10.089   0.825  0.0157  0.2617 -0.1655
56493SOL    HW176340   3.752  10.103   0.919 -2.5311  0.9927  0.0609
56493SOL    HW276341   3.739   9.994   0.815 -0.3547  0.1888  0.5700
56494SOL     OW76342   7.402   7.672   0.647 -0.1156  0.0335  0.5752
56494SOL    HW176343   7.333   7.670   0.581  2.2750 -0.5289 -2.0909
56494SOL    HW276344   7.434   7.582   0.652  0.0042  0.1314  2.2945
56495SOL     OW76345  11.159   2.567   7.601  0.4157  0.3609  0.2212
56495SOL    HW176346  11.215   2.625   7.652  0.0173 -0.4909  1.6752
56495SOL    HW276347  11.148   2.612   7.517  0.9340  1.8851  0.9373
56496SOL     OW76348   4.558   3.316   2.817 -0.3138  0.2596  0.4663
56496SOL    HW176349   4.492   3.358   2.763 -1.0399 -1.6290 -0.2025
56496SOL    HW276350   4.510   3.280   2.891 -0.1193 -1.3288 -0.1385
56497SOL     OW76351   7.376   0.472   9.483 -0.1007  0.2509  0.4503
56497SOL    HW176352   7.402   0.483   9.392  1.5593  0.6878  0.9404
56497SOL    HW276353   7.280   0.472   9.481 -0.0919 -0.6845 -1.3756
56498SOL     OW76354   5.093   3.488  11.731 -0.1190  0.4309 -0.3041
56498SOL    HW176355   5.014   3.520  11.775  0.9415  1.2262  1.1182
56498SOL    HW276356   5.116   3.407  11.777  1.7497  1.9575  1.6381
56499SOL     OW76357   7.904   2.568   0.435  0.1954 -0.4176 -0.3289
56499SOL    HW176358   7.965   2.590   0.505  1.4491 -0.3186 -1.4075
56499SOL    HW276359   7.839   2.638   0.437  2.0985  1.5175 -1.3906
56500SOL     OW76360   5.750   4.887   4.698 -0.2070  0.0305 -0.0139
56500SOL    HW176361   5.683   4.889   4.766 -1.1926 -0.2614 -0.9254
56500SOL    HW276362   5.710   4.935   4.625  0.5936 -0.1333 -0.5686
56501SOL     OW76363   2.226  11.637   0.770  0.2393 -1.2025  0.6267
56501SOL    HW176364   2.297  11.574   0.758 -0.8192 -2.4147  0.5396
56501SOL    HW276365   2.244  11.706   0.706  2.2819 -0.5810  1.7884
56502SOL     OW76366   7.406   9.952   9.236  0.1339 -0.1017  0.0887
56502SOL    HW176367   7.316   9.975   9.259  0.3356  0.1435  0.6380
56502SOL    HW276368   7.400   9.863   9.200 -0.5505  0.5194 -1.4240
56503SOL     OW76369   8.355   0.012   3.144  0.4359  0.5341 -0.0515
56503SOL    HW176370   8.376   0.104   3.130 -0.0937  0.2984 -3.0932
56503SOL    HW276371   8.259   0.008   3.137  0.4554 -0.2291  0.0505
56504SOL     OW76372   2.046   9.958   3.297  0.4301  0.0869  0.3222
56504SOL    HW176373   2.132   9.958   3.255  1.4695 -0.2381  2.3433
56504SOL    HW276374   2.022  10.051   3.304 -0.1136  0.1371 -1.5432
56505SOL     OW76375  11.046   6.914   7.068 -0.3325 -0.2097  0.2287
56505SOL    HW176376  10.959   6.874   7.068 -0.2580 -0.3851 -0.8053
56505SOL    HW276377  11.077   6.904   7.158  0.2592 -3.7592 -0.2559
56506SOL     OW76378  10.678   0.969   3.030 -0.1270 -0.2630 -0.0694
56506SOL    HW176379  10.627   0.905   3.078 -1.2927 -0.6813 -1.7706
56506SOL    HW276380  10.731   0.917   2.970  0.4600  0.2911 -0.0463
56507SOL     OW76381   8.685   9.193   9.522 -0.1613  0.0183 -0.1705
56507SOL    HW176382   8.702   9.281   9.489  2.1060 -0.1780  0.3383
56507SOL    HW276383   8.750   9.138   9.479  0.6201 -0.8167  1.9559
56508SOL     OW76384   2.280   7.398   7.883 -0.2899  0.2842 -0.0592
56508SOL    HW176385   2.369   7.368   7.862  1.8758  3.8045  2.8024
56508SOL    HW276386   2.265   7.472   7.824 -1.1324 -0.0099 -0.2191
56509SOL     OW76387   0.538  10.852   3.646  0.2219  0.0246  0.6808
56509SOL    HW176388   0.630  10.839   3.620  0.1878  0.4601  0.3355
56509SOL    HW276389   0.538  10.937   3.690 -0.3410  0.8807 -0.9204
56510SOL     OW76390   1.416   0.284   9.853 -0.0186  0.2338  0.6984
56510SOL    HW176391   1.421   0.328   9.938  0.0125  3.3330 -0.7503
56510SOL    HW276392   1.504   0.252   9.838 -0.0075 -0.2962  1.7727
56511SOL     OW76393   4.133   6.516  11.933 -0.3330  0.4590 -0.0421
56511SOL    HW176394   4.122   6.515  11.838  1.5631 -0.4103 -0.3060
56511SOL    HW276395   4.084   6.440  11.964  1.0122 -0.7015 -0.6411
56512SOL     OW76396   5.322   9.624   8.631 -0.6375  0.9276  0.1932
56512SOL    HW176397   5.322   9.664   8.718  0.0788  0.5334  0.3784
56512SOL    HW276398   5.362   9.538   8.644 -1.7760  0.2946 -0.2772
56513SOL     OW76399  10.091  10.431   6.636 -0.4685  0.6188  0.1509
56513SOL    HW176400  10.043  10.505   6.672  1.0872  2.6456 -1.6651
56513SOL    HW276401  10.026  10.385   6.581 -1.3015  0.9815  0.8156
56514SOL     OW76402   0.884   4.160   5.409 -0.0372 -0.1035  0.2504
56514SOL    HW176403   0.823   4.087   5.420 -0.5467  0.3766  0.7079
56514SOL    HW276404   0.967   4.127   5.444 -0.7672  0.1877  2.4703
56515SOL     OW76405  11.973  12.155   6.295  0.2526 -0.1682  0.5481
56515SOL    HW176406  12.066  12.177   6.308 -0.1575  0.4728  2.8979
56515SOL    HW276407  11.927  12.234   6.323 -1.0282 -0.3255 -1.0087
56516SOL     OW76408   8.125   0.753   8.122 -0.2963  0.3577  0.0266
56516SOL    HW176409   8.065   0.683   8.096  0.5502 -0.5312  0.4226
56516SOL    HW276410   8.075   0.804   8.187 -1.3115  0.8000 -1.0537
56517SOL     OW76411   6.272   1.244   0.472 -0.5201  0.1849 -0.1956
56517SOL    HW176412   6.225   1.246   0.388  0.6766 -0.3601 -0.8920
56517SOL    HW276413   6.346   1.303   0.460 -0.4285  0.2277  0.5371
56518SOL     OW76414   7.066   5.549  10.588 -0.4861 -0.2061 -0.4207
56518SOL    HW176415   7.065   5.639  10.622 -0.2388 -0.0061 -0.9240
56518SOL    HW276416   7.157   5.535  10.561  0.2213 -1.6948  2.4207
56519SOL     OW76417  11.444   7.351   8.288  0.3666  0.3761 -0.0455
56519SOL    HW176418  11.534   7.378   8.301  1.2460 -2.2955  0.0361
56519SOL    HW276419  11.442   7.311   8.201 -0.4523 -0.5918  0.3930
56520SOL     OW76420  10.472   8.015   0.825  0.2738  0.2239 -0.4403
56520SOL    HW176421  10.486   8.079   0.756  0.4000  0.6339 -0.0430
56520SOL    HW276422  10.480   8.065   0.906  0.0374 -0.2304 -0.1299
56521SOL     OW76423   3.959   0.339   0.093  0.2668  0.0617 -0.0091
56521SOL    HW176424   3.902   0.416   0.098  1.0099  0.5977  0.3463
56521SOL    HW276425   4.046   0.375   0.077  0.8268 -0.6307  1.3487
56522SOL     OW76426   1.651   3.096   6.182 -0.0837  0.2344 -0.1402
56522SOL    HW176427   1.658   3.138   6.097 -1.2679  0.1164 -0.3099
56522SOL    HW276428   1.736   3.113   6.224 -0.2971  2.2617 -0.4314
56523SOL     OW76429   0.073   0.236  12.397 -0.3528  0.2508  0.2698
56523SOL    HW176430   0.153   0.228  12.449  0.0212  1.6375 -0.0433
56523SOL    HW276431   0.073   0.157  12.342  1.6068  0.8892 -0.7744
56524SOL     OW76432   2.691  11.450   0.344  0.6331  0.3609 -0.2032
56524SOL    HW176433   2.683  11.498   0.261  1.3136 -1.2780 -1.2659
56524SOL    HW276434   2.696  11.358   0.318 -1.1050 -0.3821  1.7783
56525SOL     OW76435  10.296  12.402   2.464  0.7408  0.0188 -0.3656
56525SOL    HW176436  10.232  12.344   2.505  1.6881 -1.1406 -0.4992
56525SOL    HW276437  10.302  12.372   2.374  1.9380 -0.2830 -0.1899
56526SOL     OW76438   0.884   4.013   6.332  0.2117 -0.2111  0.3205
56526SOL    HW176439   0.839   3.948   6.387  0.7916  1.7778  3.4028
56526SOL    HW276440   0.974   3.980   6.326  0.2933 -0.1774  1.1377
56527SOL     OW76441   4.681   2.399   3.348 -0.3538 -0.2159  0.2043
56527SOL    HW176442   4.769   2.436   3.355 -0.4489 -0.1779  1.4402
56527SOL    HW276443   4.690   2.309   3.379 -0.6224 -0.4427 -0.3539
56528SOL     OW76444   3.586   0.404  11.853 -0.2377  0.1170 -0.2668
56528SOL    HW176445   3.542   0.339  11.798  0.3473 -0.7968  0.2969
56528SOL    HW276446   3.676   0.406  11.820  0.2876 -0.9071  1.0028
56529SOL     OW76447   1.734   9.245  11.877 -0.1010  0.1181  0.4713
56529SOL    HW176448   1.688   9.170  11.839 -0.7817  0.7844 -0.0783
56529SOL    HW276449   1.802   9.207  11.932 -0.1341 -0.8907 -0.1642
56530SOL     OW76450   3.781   6.655   8.093 -0.2095  0.3693  0.2306
56530SOL    HW176451   3.737   6.599   8.029 -1.1722 -1.9867  2.7615
56530SOL    HW276452   3.865   6.612   8.109 -0.8194 -0.2544  1.9651
56531SOL     OW76453  11.208   3.274   4.260 -0.0871 -0.2219 -0.0055
56531SOL    HW176454  11.197   3.367   4.240 -1.5171 -0.4988 -0.6634
56531SOL    HW276455  11.194   3.230   4.176  0.5972 -1.0402  0.2936
56532SOL     OW76456   2.041  10.217   9.349  0.0348 -0.1135 -0.6811
56532SOL    HW176457   2.020  10.149   9.412 -0.6928 -0.1237 -0.9350
56532SOL    HW276458   2.025  10.177   9.263 -0.4680  0.3934 -0.8292
56533SOL     OW76459   7.502   3.493   9.888 -0.2078 -0.4593 -0.0054
56533SOL    HW176460   7.559   3.500   9.964  0.2033 -1.0979 -0.2433
56533SOL    HW276461   7.556   3.449   9.821 -0.5849  0.0152 -0.6348
56534SOL     OW76462   1.024   5.980   5.317 -0.4793 -0.0556  0.2782
56534SOL    HW176463   1.032   6.074   5.297  0.0896 -0.0436  0.5443
56534SOL    HW276464   1.109   5.956   5.353 -0.7273 -0.6085  0.5037
56535SOL     OW76465  11.011   4.781   6.813  0.5344 -0.7143 -0.4041
56535SOL    HW176466  11.101   4.805   6.791  0.7142 -1.1019 -0.1141
56535SOL    HW276467  10.961   4.799   6.733  1.0676 -1.5341 -0.9436
56536SOL     OW76468   7.320  11.325   5.138  0.0609 -0.4363 -0.5828
56536SOL    HW176469   7.248  11.263   5.153  0.9417 -1.3238  0.0615
56536SOL    HW276470   7.308  11.392   5.204 -0.8398  0.0648 -1.2183
56537SOL     OW76471   3.164   4.976   1.883 -0.6290 -0.3695 -0.5032
56537SOL    HW176472   3.088   5.015   1.926 -0.0673  0.3134 -0.0984
56537SOL    HW276473   3.180   4.894   1.931 -0.0134  0.3769  0.6185
56538SOL     OW76474   8.551  10.399   2.765 -0.2413  0.3989  0.7002
56538SOL    HW176475   8.544  10.305   2.781  0.3091 -0.0093 -1.1319
56538SOL    HW276476   8.612  10.430   2.832 -1.6063 -0.2287  2.2997
56539SOL     OW76477  11.222   5.100   9.373  0.1010 -0.2529 -0.3630
56539SOL    HW176478  11.282   5.034   9.408 -0.8317  0.0168  1.9432
56539SOL    HW276479  11.250   5.182   9.413 -1.0488  0.0836 -0.2127
56540SOL     OW76480   2.223   6.134   0.286  0.5872  0.3557 -0.3264
56540SOL    HW176481   2.188   6.180   0.363  2.9662  0.3239  0.8609
56540SOL    HW276482   2.296   6.082   0.320  0.3074 -1.4482 -2.2646
56541SOL     OW76483   2.628  10.843  11.886 -0.4537  0.0734 -0.4209
56541SOL    HW176484   2.567  10.789  11.837 -0.2783 -1.3233  0.8365
56541SOL    HW276485   2.691  10.874  11.820 -2.7002  1.9568 -1.8308
56542SOL     OW76486   9.315   4.730   3.538 -0.0119  0.2431 -0.3267
56542SOL    HW176487   9.404   4.724   3.571 -0.6542  0.2539  1.4902
56542SOL    HW276488   9.300   4.824   3.526 -0.0666  0.2927  0.1502
56543SOL     OW76489  10.486   1.460   2.127 -0.1400  0.0575 -0.1060
56543SOL    HW176490  10.554   1.505   2.077  0.0792  1.0679  1.0474
56543SOL    HW276491  10.532   1.423   2.203 -0.5482 -0.9929 -0.3547
56544SOL     OW76492   3.430   3.078  10.177 -0.1839 -0.1331 -0.6756
56544SOL    HW176493   3.411   3.118  10.092 -3.7562 -0.4248 -0.1355
56544SOL    HW276494   3.446   3.153  10.235  0.4454  0.1355 -1.1784
56545SOL     OW76495  11.589   7.049   1.900  0.5675  0.1311 -0.2178
56545SOL    HW176496  11.680   7.057   1.872  0.4396  0.1065 -0.6406
56545SOL    HW276497  11.539   7.051   1.819  0.0639  1.9777  0.0843
56546SOL     OW76498   6.413   4.869   7.231 -0.1182  0.7175 -0.6963
56546SOL    HW176499   6.395   4.827   7.314 -0.3305  0.7071 -0.7473
56546SOL    HW276500   6.503   4.844   7.210  0.3470  1.6382  0.0822
56547SOL     OW76501   1.767   3.671   3.660  0.7705 -0.2547  0.8274
56547SOL    HW176502   1.743   3.758   3.689 -0.4988 -0.1372 -0.4659
56547SOL    HW276503   1.854   3.682   3.620  0.3639  0.5575  0.1389
56548SOL     OW76504   0.294   7.773   4.390 -0.8194 -0.1194 -0.9765
56548SOL    HW176505   0.272   7.785   4.298 -1.9051 -0.2364 -0.7462
56548SOL    HW276506   0.389   7.773   4.392 -0.7624 -1.0855 -2.2259
56549SOL     OW76507   2.397   6.596   6.566  0.2868 -0.1824 -0.0722
56549SOL    HW176508   2.362   6.554   6.487 -0.5398  0.3318  0.0084
56549SOL    HW276509   2.470   6.649   6.534  0.9277 -1.1489 -0.2651
56550SOL     OW76510   6.090   9.221   4.135  0.2474  0.2446  0.0542
56550SOL    HW176511   6.131   9.307   4.126 -0.0256  0.4202  0.4724
56550SOL    HW276512   6.161   9.159   4.118  0.4222  0.5516 -0.3418
56551SOL     OW76513   9.503   2.826  11.480  0.4712 -0.0432 -0.4761
56551SOL    HW176514   9.491   2.920  11.462  0.7052 -0.0842 -0.8570
56551SOL    HW276515   9.429   2.803  11.536  0.5692  0.4341 -0.1422
56552SOL     OW76516  10.396   3.929  10.775 -0.4274 -0.2895 -1.0888
56552SOL    HW176517  10.420   4.021  10.773  0.4835 -0.4144  1.1170
56552SOL    HW276518  10.351   3.917  10.858  0.5059 -2.0270 -0.7768
56553SOL     OW76519   6.945  11.487   5.782  0.8331  0.2714  0.1536
56553SOL    HW176520   6.912  11.541   5.853 -0.2181 -0.0679 -0.0482
56553SOL    HW276521   6.974  11.406   5.825 -1.4371 -0.6679  0.0839
56554SOL     OW76522   8.044   1.633   6.313 -0.0272 -0.3041  0.0872
56554SOL    HW176523   8.054   1.591   6.227  5.2055  0.5282 -0.0417
56554SOL    HW276524   8.066   1.564   6.376 -0.0536  0.0442  0.4802
56555SOL     OW76525   6.774   7.893   3.803 -0.7056  0.0301  0.3541
56555SOL    HW176526   6.690   7.860   3.834 -0.5834 -1.3893 -0.7358
56555SOL    HW276527   6.790   7.847   3.721  1.2841  0.0293  0.6782
56556SOL     OW76528   4.072   5.087   3.455  0.1332 -0.5256 -0.6573
56556SOL    HW176529   4.131   5.162   3.462  0.2403 -0.7116  0.7179
56556SOL    HW276530   4.009   5.113   3.388 -0.8125  1.5237  0.9013
56557SOL     OW76531   4.776   0.223   5.788 -0.6750  0.1478  0.2821
56557SOL    HW176532   4.698   0.167   5.795 -0.3977 -0.3204 -0.2734
56557SOL    HW276533   4.754   0.301   5.838 -0.7638 -0.7926  1.7541
56558SOL     OW76534   2.505  11.231   0.521  1.1290 -0.3089 -0.2393
56558SOL    HW176535   2.569  11.224   0.451  0.9108 -1.6497 -0.3269
56558SOL    HW276536   2.427  11.187   0.487  0.1887  1.1470 -0.0718
56559SOL     OW76537   7.264   0.048   5.582 -0.5565  0.0274 -0.4089
56559SOL    HW176538   7.357   0.065   5.594 -0.4213 -0.2699 -0.9529
56559SOL    HW276539   7.244  -0.022   5.644 -0.3808 -0.0090 -0.3936
56560SOL     OW76540  10.778   0.822   2.750  0.4325  0.4963 -0.0910
56560SOL    HW176541  10.698   0.809   2.699  1.5190 -0.5887 -1.5986
56560SOL    HW276542  10.810   0.734   2.768  1.9020  0.9253 -0.5285
56561SOL     OW76543   3.183   5.266   2.961 -0.9954 -0.0570 -0.1701
56561SOL    HW176544   3.263   5.231   2.922  0.5284  1.1334  1.7572
56561SOL    HW276545   3.152   5.196   3.019  0.3972  0.5717  1.4050
56562SOL     OW76546   6.829   5.704   7.562 -0.5208  0.1028  0.0702
56562SOL    HW176547   6.887   5.746   7.499  0.2925  0.2126  0.8674
56562SOL    HW276548   6.850   5.745   7.646 -2.8728  1.2942  0.1617
56563SOL     OW76549   7.276   8.715   7.477  0.3743 -0.3711  0.2672
56563SOL    HW176550   7.363   8.751   7.461 -0.9978  2.5988 -1.4556
56563SOL    HW276551   7.243   8.693   7.390 -1.2530  0.3837  0.6432
56564SOL     OW76552   5.629   9.478   4.166 -0.2457  0.1296 -0.5681
56564SOL    HW176553   5.567   9.512   4.102 -1.0933 -0.9213 -0.3334
56564SOL    HW276554   5.705   9.451   4.114  0.5978  2.5969 -0.7313
56565SOL     OW76555   2.932   6.227   2.022  0.5338 -0.0515 -0.0895
56565SOL    HW176556   3.026   6.232   2.001  0.7114  1.4646  0.8655
56565SOL    HW276557   2.909   6.136   2.007  2.0740 -0.3703 -0.7457
56566SOL     OW76558  10.150   2.562   8.317 -0.0561 -0.3694 -0.0681
56566SOL    HW176559  10.210   2.617   8.367 -0.6841  0.4747 -0.2283
56566SOL    HW276560  10.064   2.601   8.330 -0.5223 -1.3158 -0.1912
56567SOL     OW76561  12.314   8.348   7.033  0.4224  0.2809 -0.0052
56567SOL    HW176562  12.334   8.276   6.972 -1.0501 -0.4554  0.3500
56567SOL    HW276563  12.243   8.315   7.087  0.2351  1.7413  0.6852
56568SOL     OW76564   1.415   3.304   8.781 -0.4828 -0.7215  0.2887
56568SOL    HW176565   1.325   3.336   8.784 -0.0928  0.4615  0.2059
56568SOL    HW276566   1.437   3.302   8.687 -0.3669 -0.8396  0.3169
56569SOL     OW76567   7.267   6.677  11.009 -0.2165  0.0782 -0.2530
56569SOL    HW176568   7.329   6.744  11.039  0.5444 -0.9092  0.4266
56569SOL    HW276569   7.183   6.722  11.009  0.5061  1.5512 -1.5116
56570SOL     OW76570   4.721   7.946   5.209  0.2103  0.2371  0.1381
56570SOL    HW176571   4.680   7.907   5.286 -2.4751  0.0083 -1.2883
56570SOL    HW276572   4.769   7.873   5.167  0.4083 -0.0003  0.7728
56571SOL     OW76573  10.547  10.572   8.060 -0.0398 -0.3707 -0.0740
56571SOL    HW176574  10.560  10.499   8.121 -0.9591  0.4437  1.1235
56571SOL    HW276575  10.548  10.650   8.114 -2.1880  0.2934 -0.8835
56572SOL     OW76576   6.730   9.305   9.549  0.4001 -0.1925 -0.5205
56572SOL    HW176577   6.758   9.247   9.620 -0.6587 -1.2423 -0.9364
56572SOL    HW276578   6.733   9.250   9.471  1.4967  0.9343 -1.3177
56573SOL     OW76579   7.437   5.408   6.583 -0.1960  0.1842 -0.0031
56573SOL    HW176580   7.475   5.487   6.622 -1.0249  0.2571  0.6869
56573SOL    HW276581   7.491   5.337   6.617  2.5310  0.5929 -3.0273
56574SOL     OW76582   4.055   7.286   9.060 -0.3580  0.4939 -0.8268
56574SOL    HW176583   4.039   7.306   8.968 -3.0667  0.2437 -0.4693
56574SOL    HW276584   4.024   7.196   9.071  0.9299  0.1300  0.1413
56575SOL     OW76585   5.429  11.627   3.676 -0.0405 -0.0633 -0.1193
56575SOL    HW176586   5.447  11.709   3.722 -0.1626  1.1943 -2.1948
56575SOL    HW276587   5.469  11.559   3.731  0.3769  1.4102  1.4681
56576SOL     OW76588   4.159   5.335   1.201  0.1203  0.0311 -0.2295
56576SOL    HW176589   4.116   5.414   1.232 -0.1425 -0.5821  1.0384
56576SOL    HW276590   4.111   5.311   1.122 -2.0357 -0.7032  1.2053
56577SOL     OW76591  11.093  12.308   3.357 -0.0612  0.2423  0.0750
56577SOL    HW176592  11.014  12.306   3.412  0.3540  0.1702  0.6855
56577SOL    HW276593  11.130  12.395   3.370  0.0784  0.1997 -0.0308
56578SOL     OW76594   7.604   4.679   9.950 -0.2507 -0.5982  0.1738
56578SOL    HW176595   7.665   4.609   9.974 -0.3810 -0.6473  0.3602
56578SOL    HW276596   7.652   4.731   9.886 -0.4703 -1.3722 -0.6444
56579SOL     OW76597   0.073   1.859   1.617 -0.1115  0.3338  0.5115
56579SOL    HW176598   0.068   1.792   1.548  1.1448  1.5518 -0.8353
56579SOL    HW276599   0.143   1.829   1.674  0.7843  0.7006 -0.3641
56580SOL     OW76600   8.046   0.572   4.668 -0.2331  0.1317  0.1840
56580SOL    HW176601   8.124   0.626   4.655 -0.5030  0.4950  0.0305
56580SOL    HW276602   7.973   0.633   4.656 -0.5355 -0.1247  0.6870
56581SOL     OW76603   0.366   9.134  12.325 -0.4009 -0.4301  0.3646
56581SOL    HW176604   0.331   9.202  12.268  0.7185  0.6087  0.8686
56581SOL    HW276605   0.302   9.128  12.397 -0.6981 -0.1749  0.1237
56582SOL     OW76606   8.390   4.132   6.523  0.0738 -0.0831  0.1606
56582SOL    HW176607   8.391   4.209   6.466 -0.3879 -1.0274 -1.1601
56582SOL    HW276608   8.478   4.096   6.516  0.4283  0.5446  1.1326
56583SOL     OW76609   0.841   9.838  10.073  0.2178  0.1972 -0.3780
56583SOL    HW176610   0.790   9.834   9.993 -0.4685 -1.1013  0.1024
56583SOL    HW276611   0.785   9.800  10.140  0.7768  1.2521  0.7381
56584SOL     OW76612   7.939   4.564   8.501  0.5147  0.2136 -0.1348
56584SOL    HW176613   8.018   4.510   8.498 -0.0138 -0.5406 -1.8992
56584SOL    HW276614   7.875   4.511   8.548 -0.0121 -0.7892 -1.8867
56585SOL     OW76615   1.259  12.364  12.467  0.5099  0.2838 -0.5631
56585SOL    HW176616   1.226  12.319  12.389 -0.6888  0.0941  0.0298
56585SOL    HW276617   1.265  12.295  12.533  2.5450  0.2296 -0.7535
56586SOL     OW76618   8.989   5.683   8.557 -0.6538  0.2629  0.1067
56586SOL    HW176619   8.979   5.665   8.651 -2.3229  1.0555  0.1202
56586SOL    HW276620   8.924   5.751   8.539  0.2474  0.7500 -1.4603
56587SOL     OW76621   9.455  11.117  10.946  0.0357 -0.4361  0.3865
56587SOL    HW176622   9.494  11.043  10.898 -1.6748 -0.2830 -1.4242
56587SOL    HW276623   9.436  11.082  11.033  1.2321 -1.4468  0.2676
56588SOL     OW76624   4.261   3.118   6.301 -0.8928 -0.2160 -0.0404
56588SOL    HW176625   4.182   3.104   6.248 -1.0683 -0.2537  0.2329
56588SOL    HW276626   4.229   3.128   6.390 -0.6304  0.2325  0.0106
56589SOL     OW76627   4.519   0.037   6.914  0.2984 -0.2791  0.1774
56589SOL    HW176628   4.540   0.119   6.870  0.7561  0.2586  1.3490
56589SOL    HW276629   4.423   0.036   6.918  0.2557 -0.2541 -0.6455
56590SOL     OW76630  10.204   7.577   8.569 -0.4489 -0.5864 -0.2022
56590SOL    HW176631  10.275   7.621   8.522  0.5998 -0.4549  1.4598
56590SOL    HW276632  10.126   7.597   8.516 -0.2060  3.9291  0.7132
56591SOL     OW76633   9.409   0.809   8.246 -0.3870  0.0135 -0.1773
56591SOL    HW176634   9.357   0.825   8.324  0.8266 -0.6961  0.8141
56591SOL    HW276635   9.496   0.788   8.279  0.3509  0.4280 -1.7525
56592SOL     OW76636   3.698  12.238   3.065  0.1766 -0.2183  0.0991
56592SOL    HW176637   3.693  12.321   3.113  0.2433 -0.2472  0.1585
56592SOL    HW276638   3.632  12.245   2.996 -0.2501 -0.3593  0.4859
56593SOL     OW76639   6.796   2.593   6.417 -0.1844 -0.1059 -0.5095
56593SOL    HW176640   6.879   2.624   6.380  0.5413  0.0020  1.1339
56593SOL    HW276641   6.821   2.547   6.497 -1.6424 -0.9395 -0.4940
56594SOL     OW76642   3.949   0.143   1.061 -0.6866  0.4883  0.2600
56594SOL    HW176643   3.869   0.179   1.025 -1.0019  0.5766  1.0285
56594SOL    HW276644   4.008   0.135   0.986 -1.0382  1.4354 -0.1323
56595SOL     OW76645   1.148   4.198   0.267  0.2643 -0.6697  0.4782
56595SOL    HW176646   1.203   4.234   0.197 -0.1260 -0.2542  0.3811
56595SOL    HW276647   1.172   4.250   0.344  1.1052 -1.4991  0.8010
56596SOL     OW76648   1.465   3.021   0.841  0.0532  0.3231 -0.2747
56596SOL    HW176649   1.539   2.961   0.852 -1.7437 -1.6579  1.7733
56596SOL    HW276650   1.439   3.011   0.750  0.8101 -0.7586 -0.3860
56597SOL     OW76651  11.202  12.244   0.969 -0.1238 -0.1922  0.2785
56597SOL    HW176652  11.258  12.221   1.043  0.3890  1.1994  0.3521
56597SOL    HW276653  11.234  12.330   0.941 -2.3946  0.7855  0.4830
56598SOL     OW76654   5.798  12.333   8.803 -0.1999  0.2488 -0.0279
56598SOL    HW176655   5.745  12.317   8.725 -1.2460 -0.5115  0.8059
56598SOL    HW276656   5.743  12.391   8.857  0.6575  1.0515  0.0123
56599SOL     OW76657  11.625   4.326   3.386 -0.0780 -0.2012 -0.3079
56599SOL    HW176658  11.529   4.323   3.391 -0.0893  1.0905  1.0119
56599SOL    HW276659  11.653   4.240   3.415 -0.8351 -0.4094 -0.1624
56600SOL     OW76660   2.923   3.531  10.118 -0.1749  0.2161  0.1220
56600SOL    HW176661   2.847   3.577  10.080 -0.1250 -1.2220 -1.8794
56600SOL    HW276662   2.982   3.602  10.145 -1.0894  1.3536 -0.7320
56601SOL     OW76663   6.196   1.639   1.704  0.4236  0.5349 -0.1055
56601SOL    HW176664   6.146   1.616   1.782  0.1546  0.3213 -0.3352
56601SOL    HW276665   6.260   1.703   1.734  0.2231  0.5685  0.2589
56602SOL     OW76666  10.405   9.592  10.680  0.5952 -0.3192 -0.0832
56602SOL    HW176667  10.377   9.506  10.712  0.4009 -0.3466 -0.3263
56602SOL    HW276668  10.354   9.654  10.731  0.6075 -0.3506 -0.0314
56603SOL     OW76669   3.386   5.226   3.187 -0.2287 -0.7551 -0.0483
56603SOL    HW176670   3.330   5.299   3.160  0.2703 -0.0787  0.6938
56603SOL    HW276671   3.349   5.197   3.270  1.0998  0.3817  0.9819
56604SOL     OW76672   5.290   0.965   6.558  0.1332 -0.3752  0.0821
56604SOL    HW176673   5.370   0.928   6.596 -0.0291 -1.0823 -0.2503
56604SOL    HW276674   5.249   1.013   6.630  2.4273  2.7184 -0.5044
56605SOL     OW76675  10.964   9.347   5.730  0.0893  0.5568  0.3389
56605SOL    HW176676  10.909   9.426   5.728 -0.5781  0.1592  2.0674
56605SOL    HW276677  10.925   9.290   5.664 -0.8074  0.7965  0.6368
56606SOL     OW76678   7.015   9.127   9.410  0.0592 -0.0211 -0.4480
56606SOL    HW176679   7.026   9.193   9.478 -1.5701 -1.6157  1.4753
56606SOL    HW276680   7.085   9.064   9.426  1.6303  1.1487 -2.2974
56607SOL     OW76681   7.565   1.771   3.262 -0.0651 -1.0370  0.3130
56607SOL    HW176682   7.632   1.810   3.318  0.5687 -0.3805 -0.8384
56607SOL    HW276683   7.483   1.781   3.310  0.1871  1.1466  0.3804
56608SOL     OW76684   5.385  12.176  11.319 -0.2049 -0.2208 -0.1638
56608SOL    HW176685   5.433  12.150  11.240 -0.0305 -1.8648  0.4344
56608SOL    HW276686   5.342  12.095  11.349 -0.6286  0.4640  1.1740
56609SOL     OW76687   1.756   7.533   8.659  0.5621  0.0292  0.3430
56609SOL    HW176688   1.829   7.566   8.711  0.3965 -1.2308  1.4210
56609SOL    HW276689   1.712   7.611   8.626  1.5672  0.8253  0.8498
56610SOL     OW76690   6.378   6.418   5.081  0.6360 -0.7501 -0.5033
56610SOL    HW176691   6.413   6.346   5.134  0.4295 -0.4272  0.0877
56610SOL    HW276692   6.324   6.375   5.015 -0.5515 -1.0999  0.6499
56611SOL     OW76693   4.619   1.570  12.215 -0.5175  0.3843  0.4196
56611SOL    HW176694   4.587   1.615  12.137 -2.8354  0.0512  1.1143
56611SOL    HW276695   4.631   1.479  12.187  2.3064  0.9225 -0.4654
56612SOL     OW76696  12.194   0.283   2.053  1.1004 -0.4021  0.0398
56612SOL    HW176697  12.231   0.207   2.009 -1.0942 -1.5916  0.0748
56612SOL    HW276698  12.143   0.245   2.125 -0.6467  1.0137 -0.3877
56613SOL     OW76699   5.374   8.265   5.401  0.0937  0.4941 -0.3962
56613SOL    HW176700   5.460   8.306   5.395  1.0723 -1.4372 -0.2795
56613SOL    HW276701   5.332   8.284   5.316  0.0089  2.6478  0.0691
56614SOL     OW76702   1.740   3.032   4.812  0.1636  0.3149 -0.3798
56614SOL    HW176703   1.697   3.046   4.728  0.9856  2.1085 -0.5413
56614SOL    HW276704   1.821   2.985   4.789 -0.2466 -0.3970 -0.4116
56615SOL     OW76705   4.095   0.106   0.833 -0.3222  0.2153 -0.6245
56615SOL    HW176706   4.119   0.018   0.803 -0.9744 -0.4826  0.7661
56615SOL    HW276707   4.162   0.163   0.796 -0.8626 -0.5905 -3.0238
56616SOL     OW76708  10.054   7.390   3.923 -0.0114  0.5493 -0.4575
56616SOL    HW176709  10.040   7.454   3.854 -0.1394 -0.4555 -1.4024
56616SOL    HW276710   9.967   7.375   3.961 -0.0388  0.6717 -0.4720
56617SOL     OW76711   2.607   8.082   5.382 -0.0311  0.0552  0.0367
56617SOL    HW176712   2.655   8.113   5.458 -0.2424 -0.0366  0.2091
56617SOL    HW276713   2.552   8.011   5.415  0.4099 -0.4666 -0.3435
56618SOL     OW76714   3.420   9.819  12.430 -0.0683  0.1225 -0.3554
56618SOL    HW176715   3.352   9.803  12.496  0.1904  0.9468  0.1280
56618SOL    HW276716   3.501   9.794  12.474 -0.0365 -0.6990 -0.8732
56619SOL     OW76717   2.345   5.647   5.278 -0.7933 -0.9915 -0.0908
56619SOL    HW176718   2.272   5.687   5.231 -0.7007 -0.5394  0.1383
56619SOL    HW276719   2.314   5.559   5.301 -1.3452 -0.7315  0.1833
56620SOL     OW76720   5.786   6.701   7.844 -0.3663  0.1822 -0.0744
56620SOL    HW176721   5.694   6.684   7.862 -0.4272  0.3979 -0.1769
56620SOL    HW276722   5.827   6.705   7.930 -0.7620  1.7811  0.0791
56621SOL     OW76723  10.884   5.295   8.189 -0.2448  0.0298 -0.1841
56621SOL    HW176724  10.921   5.373   8.148 -1.3840 -0.6734 -2.8094
56621SOL    HW276725  10.802   5.325   8.228  0.8611  0.7134  1.7605
56622SOL     OW76726   8.491  11.248   9.268  0.6257  0.1202  0.0518
56622SOL    HW176727   8.461  11.200   9.191  0.6357  0.1728  0.0152
56622SOL    HW276728   8.415  11.249   9.327  0.4071  0.6433 -0.2301
56623SOL     OW76729   8.204   8.024   2.779 -0.4537 -0.4218 -0.0994
56623SOL    HW176730   8.141   8.092   2.757 -0.0930  0.1870  0.7001
56623SOL    HW276731   8.162   7.942   2.751 -0.3439  0.1975 -2.3135
56624SOL     OW76732   8.695   8.993   3.208  0.0542  0.5868 -0.0873
56624SOL    HW176733   8.762   8.925   3.200  0.2194  0.4970  1.6671
56624SOL    HW276734   8.682   9.025   3.119  2.8977  1.0584 -0.4145
56625SOL     OW76735   7.200   1.607   1.646  0.0701 -0.2285 -0.1735
56625SOL    HW176736   7.204   1.702   1.657  2.2421 -0.4104  1.3175
56625SOL    HW276737   7.272   1.574   1.699  0.3120 -2.6382 -1.8489
56626SOL     OW76738   3.677  10.458   5.614  0.4135  1.0256  0.1307
56626SOL    HW176739   3.586  10.454   5.586  0.4396  0.8651  0.0714
56626SOL    HW276740   3.695  10.372   5.652 -0.0153  1.6345  1.8468
56627SOL     OW76741   9.123   9.602   7.284  0.4412 -0.7265  0.3909
56627SOL    HW176742   9.061   9.654   7.233  0.7290 -0.9226 -0.1770
56627SOL    HW276743   9.069   9.553   7.345  0.0320 -0.8737 -0.0767
56628SOL     OW76744   5.074   4.100  12.190  0.1572  0.5298  0.5712
56628SOL    HW176745   5.102   4.191  12.175 -0.3348  0.4340 -1.0862
56628SOL    HW276746   5.138   4.047  12.144  0.3685  0.0226  1.4291
56629SOL     OW76747   2.573   2.420   2.210 -0.1566 -0.1902  1.0597
56629SOL    HW176748   2.479   2.413   2.228 -0.3917 -0.9709 -0.2941
56629SOL    HW276749   2.588   2.514   2.199 -0.8106 -0.0705  1.1632
56630SOL     OW76750  11.028   3.641   8.834  0.0147 -0.4443 -0.2536
56630SOL    HW176751  11.017   3.732   8.863 -0.3496 -1.0088  1.4477
56630SOL    HW276752  11.121   3.634   8.811  0.4255 -0.0769  1.2197
56631SOL     OW76753   9.886   0.006   0.029  0.0834  0.0951  0.2154
56631SOL    HW176754   9.814   0.051   0.073  0.1919  1.0343 -0.5357
56631SOL    HW276755   9.941  -0.026   0.100 -1.3697 -1.1726  0.8133
56632SOL     OW76756   8.219   0.178  11.083  0.2076 -0.1286  0.0555
56632SOL    HW176757   8.225   0.083  11.074 -0.1455 -0.1406 -0.0727
56632SOL    HW276758   8.125   0.195  11.088  0.1435  0.4053 -2.0390
56633SOL     OW76759   5.927   9.362  12.047 -0.4152  0.0888  0.2870
56633SOL    HW176760   5.877   9.417  12.108  0.7205  2.3000 -0.6706
56633SOL    HW276761   5.986   9.312  12.104 -0.0294  1.4200  1.1275
56634SOL     OW76762   4.893   1.601   8.675 -0.2861 -0.2156 -0.6848
56634SOL    HW176763   4.811   1.574   8.633  0.7572 -1.0301 -2.3157
56634SOL    HW276764   4.913   1.531   8.737 -1.3837  0.5570  0.5926
56635SOL     OW76765   3.470   1.044   1.007  0.4823 -0.6547 -0.6227
56635SOL    HW176766   3.412   1.093   0.948 -0.8733 -2.5894 -1.0137
56635SOL    HW276767   3.544   1.019   0.952 -0.5274 -2.0032 -1.4503
56636SOL     OW76768   7.452   5.138   1.928 -0.4713  0.1666 -0.0166
56636SOL    HW176769   7.405   5.221   1.923  1.4042  1.2807 -0.0940
56636SOL    HW276770   7.515   5.141   1.856 -0.7701 -1.6271 -0.4114
56637SOL     OW76771   6.488  10.121   6.257  0.3466  0.0112 -0.0050
56637SOL    HW176772   6.399  10.088   6.243  0.4689 -0.0508 -0.6855
56637SOL    HW276773   6.496  10.195   6.197  0.9467 -0.3504 -0.3799
56638SOL     OW76774   7.388   6.459   0.972  0.0031 -0.6538  0.5599
56638SOL    HW176775   7.369   6.460   0.878 -0.6917 -2.9522  0.5983
56638SOL    HW276776   7.480   6.432   0.977 -0.2416 -1.5472  0.5142
56639SOL     OW76777   1.079   8.582  11.389 -0.0493 -0.5027  0.1491
56639SOL    HW176778   1.170   8.610  11.398 -0.5884  2.0235 -1.3553
56639SOL    HW276779   1.084   8.494  11.353  1.8369  0.3844 -1.9604
56640SOL     OW76780   8.699  11.632   2.292 -0.4554  0.5218 -0.4306
56640SOL    HW176781   8.770  11.645   2.228 -1.5494 -0.1134 -1.8279
56640SOL    HW276782   8.712  11.543   2.325 -0.4999  0.4709 -0.5522
56641SOL     OW76783   3.475   8.085   0.539  0.3477  0.2602 -0.0064
56641SOL    HW176784   3.529   8.092   0.461 -1.8445 -0.1199 -1.6560
56641SOL    HW276785   3.519   8.140   0.604  1.9673  1.0044 -1.6441
56642SOL     OW76786   4.102   6.160  11.524 -0.3196 -0.2593 -0.3736
56642SOL    HW176787   4.159   6.146  11.600 -0.8361  0.7305  0.2174
56642SOL    HW276788   4.148   6.118  11.452  1.2265  0.6001  0.0638
56643SOL     OW76789   0.758  11.307   5.232  0.8591 -0.5393  0.5404
56643SOL    HW176790   0.668  11.280   5.250  0.7952  1.0639  2.9088
56643SOL    HW276791   0.812  11.236   5.268  0.6358 -1.8014 -1.4147
56644SOL     OW76792   6.616   6.387   3.077 -0.4156 -0.0339 -0.1427
56644SOL    HW176793   6.545   6.326   3.098  0.3058 -0.3815  1.4947
56644SOL    HW276794   6.696   6.335   3.086  0.1349  0.7932 -0.1309
56645SOL     OW76795   4.356   0.382   8.893 -0.5008 -0.7600 -0.4110
56645SOL    HW176796   4.296   0.452   8.866 -1.4353 -1.6809 -0.7656
56645SOL    HW276797   4.391   0.412   8.977 -0.7522  0.2063 -0.6320
56646SOL     OW76798   7.914   8.756   8.697  0.4520  0.1851 -0.0813
56646SOL    HW176799   7.907   8.848   8.724  0.1169  0.5551 -1.3362
56646SOL    HW276800   7.997   8.752   8.649  0.3620 -0.1158 -0.2116
56647SOL     OW76801   8.427   9.822   7.319  0.6312 -0.3195 -0.2305
56647SOL    HW176802   8.453   9.730   7.325  0.9295 -0.1453  2.3888
56647SOL    HW276803   8.339   9.819   7.282 -0.0102 -1.8558  1.2390
56648SOL     OW76804   7.291   8.063   3.021 -0.6641  0.0522 -0.1241
56648SOL    HW176805   7.266   8.019   2.939  0.9185 -1.3940  0.1040
56648SOL    HW276806   7.212   8.058   3.076 -1.0347 -1.0844 -0.7157
56649SOL     OW76807  12.076   7.656   4.462  0.1914  0.5390  0.1650
56649SOL    HW176808  12.007   7.591   4.449  1.1323 -0.2569 -1.1258
56649SOL    HW276809  12.103   7.679   4.373  1.4661  0.9716  0.6499
56650SOL     OW76810   2.381   1.050   0.006 -0.1539 -0.5972  0.1864
56650SOL    HW176811   2.304   1.013   0.048 -0.0728  1.2258  2.0630
56650SOL    HW276812   2.358   1.140  -0.015  1.2541 -0.1868  0.2495
56651SOL     OW76813   5.565   9.944  11.965  0.5129 -0.4846  0.1268
56651SOL    HW176814   5.604  10.031  11.972 -0.3067 -0.0452 -0.5740
56651SOL    HW276815   5.475   9.960  11.935  0.7223 -1.6462 -1.2279
56652SOL     OW76816   9.185   2.933   8.037  0.0346  0.1782  0.5686
56652SOL    HW176817   9.204   2.960   7.947  1.0549 -0.6885  0.5072
56652SOL    HW276818   9.111   2.873   8.028 -0.2252  0.5281  0.3665
56653SOL     OW76819   7.770   3.418   7.982  0.7951 -0.4969 -0.6279
56653SOL    HW176820   7.831   3.469   7.930 -1.1576 -0.0312 -2.6446
56653SOL    HW276821   7.686   3.462   7.970 -0.4702 -2.6597 -0.3143
56654SOL     OW76822   2.329   8.244   3.511 -0.1919  0.1264 -0.2865
56654SOL    HW176823   2.240   8.243   3.547  0.0758 -0.1295  0.3796
56654SOL    HW276824   2.355   8.336   3.517 -0.1728  0.0963  0.1202
56655SOL     OW76825   9.620   9.304   7.822 -0.4788 -0.2152 -0.0201
56655SOL    HW176826   9.604   9.293   7.728 -0.4354 -0.2539 -0.0224
56655SOL    HW276827   9.715   9.317   7.828 -0.5867  0.6727 -0.0734
56656SOL     OW76828  10.280   8.697   7.344  0.6419 -0.2770 -0.6333
56656SOL    HW176829  10.347   8.685   7.276 -0.6373 -1.3284 -1.7465
56656SOL    HW276830  10.207   8.642   7.316 -0.1305 -0.3141  1.3340
56657SOL     OW76831   6.741   5.178   3.005 -0.0819  0.3402  0.0921
56657SOL    HW176832   6.770   5.110   2.944 -1.2744  0.2948 -0.4686
56657SOL    HW276833   6.701   5.130   3.078  1.5674  0.3886  1.0630
56658SOL     OW76834   4.840   8.371   1.872 -0.0886 -0.5025  0.4002
56658SOL    HW176835   4.924   8.416   1.871 -0.1149 -0.4591 -0.3330
56658SOL    HW276836   4.800   8.394   1.789 -0.4223 -1.2812  0.3430
56659SOL     OW76837   0.763   4.308   7.414  0.1747 -0.0524 -0.3399
56659SOL    HW176838   0.792   4.310   7.505  1.4947 -2.5606 -0.6079
56659SOL    HW276839   0.681   4.257   7.416 -0.3489  0.7642 -0.4600
56660SOL     OW76840   6.849  12.018   7.385  0.2902 -0.1853 -0.1503
56660SOL    HW176841   6.765  11.973   7.396  0.5955 -0.5255  0.8895
56660SOL    HW276842   6.902  11.958   7.333 -0.6860  0.8091 -2.4261
56661SOL     OW76843   6.227   4.653   9.509 -0.1681 -0.0762 -0.3354
56661SOL    HW176844   6.145   4.645   9.461 -0.2303  1.0785 -0.4542
56661SOL    HW276845   6.291   4.607   9.455 -0.3548  0.6870 -1.2368
56662SOL     OW76846   8.762   9.080   5.182 -0.2804  0.2661  0.5843
56662SOL    HW176847   8.701   9.104   5.112  0.1158 -0.9359 -0.1969
56662SOL    HW276848   8.712   9.020   5.237  0.3822 -1.2922 -0.4575
56663SOL     OW76849   3.356   4.588   3.308  0.2617  0.5360  0.4623
56663SOL    HW176850   3.273   4.603   3.353  0.0726  2.4026 -0.4297
56663SOL    HW276851   3.376   4.496   3.325 -1.1366  0.4904  2.0842
56664SOL     OW76852   3.871  10.240   4.376  0.0458 -0.3876 -0.3333
56664SOL    HW176853   3.840  10.230   4.466 -0.3072  1.2420 -0.2492
56664SOL    HW276854   3.964  10.259   4.385 -0.4959  2.7382 -0.0449
56665SOL     OW76855   5.005   6.144  10.248 -0.3545 -0.3058 -0.6001
56665SOL    HW176856   5.036   6.113  10.333  0.6175  2.0261 -0.0144
56665SOL    HW276857   5.048   6.087  10.184  0.0131 -1.1967  0.4205
56666SOL     OW76858   5.559   6.949  11.060  0.2186 -0.0537 -0.0193
56666SOL    HW176859   5.528   7.038  11.077 -0.1742 -0.3897  1.0961
56666SOL    HW276860   5.605   6.956  10.976 -0.3638  1.0597 -0.2737
56667SOL     OW76861   6.320   6.112   9.227  0.3802  0.2946 -0.1277
56667SOL    HW176862   6.318   6.070   9.313  1.5447  0.9751  0.2424
56667SOL    HW276863   6.387   6.064   9.178 -0.7022 -0.4933 -0.8948
56668SOL     OW76864   9.808  11.055   8.969 -0.0856 -0.4172  0.3688
56668SOL    HW176865   9.892  11.031   8.929 -0.2319  0.2840 -0.3878
56668SOL    HW276866   9.758  11.095   8.898 -1.3442 -1.4408  0.6337
56669SOL     OW76867   0.743   4.934   9.137  0.3063 -0.0160  0.1237
56669SOL    HW176868   0.811   4.998   9.156 -0.8533  1.2995 -0.0259
56669SOL    HW276869   0.668   4.986   9.109 -0.7039 -1.4422  0.0802
56670SOL     OW76870   2.102   3.975   0.699 -0.0397  0.2785 -0.7520
56670SOL    HW176871   2.159   3.933   0.635 -2.2294 -0.8785 -2.0452
56670SOL    HW276872   2.042   3.906   0.727 -0.1232  1.1529  1.4594
56671SOL     OW76873   4.560   5.788   7.870 -0.4115  0.3889  0.1141
56671SOL    HW176874   4.513   5.796   7.787  0.9016  0.8994 -0.6091
56671SOL    HW276875   4.513   5.847   7.930 -0.4073  1.2508 -0.7155
56672SOL     OW76876  10.850   0.556   2.778 -0.2590 -0.5643  0.4555
56672SOL    HW176877  10.775   0.497   2.791 -0.4530 -0.3683  0.2170
56672SOL    HW276878  10.893   0.524   2.699 -1.9881  1.3016 -1.3486
56673SOL     OW76879   9.771   1.406  10.617 -0.4462 -0.1104 -0.3669
56673SOL    HW176880   9.737   1.491  10.590  0.8387 -0.7036 -4.4650
56673SOL    HW276881   9.716   1.343  10.571  0.3882 -1.4162  0.3743
56674SOL     OW76882   7.250  11.633   8.894  0.1353  0.3911 -0.3483
56674SOL    HW176883   7.287  11.554   8.856 -0.9747  0.2498 -1.1744
56674SOL    HW276884   7.253  11.698   8.824  0.4144  0.8896  0.1128
56675SOL     OW76885  10.138  11.836   4.634 -0.1752 -0.5255  1.0087
56675SOL    HW176886  10.207  11.773   4.656 -1.7784 -3.2132 -1.0436
56675SOL    HW276887  10.079  11.834   4.709  0.3552 -0.5938  1.4350
56676SOL     OW76888   8.884   3.200   2.587  0.1208  0.1113 -0.0315
56676SOL    HW176889   8.925   3.115   2.575 -1.1006 -0.6184  0.7044
56676SOL    HW276890   8.872   3.234   2.498  1.8882  0.1659 -0.2721
56677SOL     OW76891   5.189  10.027   8.226 -0.0276 -0.1553  0.0923
56677SOL    HW176892   5.217  10.113   8.194  2.5964 -0.4128  1.3840
56677SOL    HW276893   5.199   9.969   8.150  0.5337  0.2661 -0.1650
56678SOL     OW76894   8.444   5.565   9.714 -0.2500  0.1040  0.2312
56678SOL    HW176895   8.494   5.504   9.769  1.2182  0.6430 -0.4546
56678SOL    HW276896   8.362   5.519   9.696 -0.7648 -0.1223  2.7805
56679SOL     OW76897   5.421   8.471   6.053 -0.4156 -0.2764 -0.0217
56679SOL    HW176898   5.478   8.520   6.113 -1.4747  0.9781  0.0074
56679SOL    HW276899   5.396   8.535   5.987 -1.4604 -0.9148 -0.2580
56680SOL     OW76900  10.337   8.189  11.449 -0.3794  1.0382  0.2720
56680SOL    HW176901  10.249   8.159  11.475 -0.1037 -0.7504 -0.6836
56680SOL    HW276902  10.324   8.233  11.366 -0.4271  1.1730  0.3503
56681SOL     OW76903   0.351   2.726   1.331  0.3219  0.1767  0.5289
56681SOL    HW176904   0.315   2.791   1.391 -0.2293 -1.2075  1.7429
56681SOL    HW276905   0.445   2.728   1.348  0.5029  1.5748 -0.4189
56682SOL     OW76906   3.054   8.144   2.524 -0.6145 -0.8428 -0.4809
56682SOL    HW176907   2.972   8.153   2.572 -0.9529 -0.1363 -1.1784
56682SOL    HW276908   3.117   8.115   2.591 -0.6673  1.7518  0.8206
56683SOL     OW76909   7.071   8.569  12.012 -0.1665 -0.5554  0.4259
56683SOL    HW176910   7.022   8.640  11.971 -1.1309 -0.2831  1.9521
56683SOL    HW276911   7.044   8.490  11.964 -0.2426 -0.0891 -0.3079
56684SOL     OW76912  11.935   9.305   8.951  0.1424 -0.4657  0.4946
56684SOL    HW176913  12.018   9.318   8.996  1.2784 -0.4071 -1.4912
56684SOL    HW276914  11.944   9.221   8.906 -0.1010  0.3751 -1.2229
56685SOL     OW76915   1.881   6.197   6.964  0.6919  0.3664  0.2386
56685SOL    HW176916   1.866   6.107   6.937  0.0799 -0.4290  2.9411
56685SOL    HW276917   1.821   6.249   6.910  0.3062 -0.9545 -0.6323
56686SOL     OW76918   2.909  11.529  10.911  0.1715 -0.1320  0.1243
56686SOL    HW176919   2.984  11.551  10.967 -0.9423 -0.3583  1.7737
56686SOL    HW276920   2.910  11.597  10.844  0.8980  0.8584  1.0792
56687SOL     OW76921   1.781   9.215   0.360  0.0902 -0.1589  0.0700
56687SOL    HW176922   1.806   9.164   0.283 -0.7254 -0.4842  0.0078
56687SOL    HW276923   1.806   9.305   0.338  1.2534 -0.4763  0.0551
56688SOL     OW76924  10.610   6.241  10.556 -0.4200 -0.3737 -0.3240
56688SOL    HW176925  10.610   6.299  10.480 -1.0927  0.7616  0.4988
56688SOL    HW276926  10.702   6.225  10.576 -0.1493  1.9458  0.5265
56689SOL     OW76927   0.013   6.282   8.852  0.1569  0.1390 -0.2842
56689SOL    HW176928  -0.070   6.329   8.850 -0.2684 -0.3844  2.0870
56689SOL    HW276929  -0.006   6.196   8.815 -0.3670  0.0394  0.2019
56690SOL     OW76930   3.665   8.012  10.537 -0.1228  0.2233  0.2430
56690SOL    HW176931   3.619   8.045  10.460  2.0930  1.9754 -0.4344
56690SOL    HW276932   3.757   8.033  10.521  0.7767 -1.8302  2.1581
56691SOL     OW76933   1.126   0.154   9.419 -0.4574  0.8952  0.3599
56691SOL    HW176934   1.036   0.133   9.442 -0.3111  0.2643  0.3859
56691SOL    HW276935   1.171   0.162   9.504 -0.0322 -0.9142  0.3419
56692SOL     OW76936  11.230   7.226   7.308 -0.5839 -0.8193  0.3636
56692SOL    HW176937  11.157   7.288   7.308  1.5340  1.9597 -1.2317
56692SOL    HW276938  11.290   7.261   7.375  0.0256 -2.0531  0.4815
56693SOL     OW76939  10.098   8.914   1.792  0.1453 -0.0176 -0.4830
56693SOL    HW176940  10.016   8.872   1.768  0.9540 -0.9886 -1.6798
56693SOL    HW276941  10.124   8.965   1.715  0.4019  0.7159  0.0735
56694SOL     OW76942   9.905   6.813   6.423 -0.0285  0.8192  0.4227
56694SOL    HW176943   9.884   6.873   6.351 -0.0306  0.3829  0.0561
56694SOL    HW276944   9.966   6.862   6.478  0.0289  1.1292  0.0846
56695SOL     OW76945   6.353  11.451   1.209 -0.4917  0.1185  0.0936
56695SOL    HW176946   6.395  11.446   1.295 -0.7248  3.4073  0.5465
56695SOL    HW276947   6.264  11.479   1.229 -0.1788  2.2291 -1.2051
56696SOL     OW76948  11.442  12.355   6.958  0.3817  0.2609 -0.0820
56696SOL    HW176949  11.348  12.362   6.975 -0.5898  2.9417 -4.8337
56696SOL    HW276950  11.481  12.428   7.005 -0.6179  1.5892 -1.2462
56697SOL     OW76951   4.974  11.097   1.524 -0.1956  0.1294  0.0956
56697SOL    HW176952   4.902  11.061   1.576 -1.1742 -1.0036 -1.8933
56697SOL    HW276953   4.950  11.076   1.433  2.9567 -0.8355 -0.6270
56698SOL     OW76954   8.832   4.709   7.821  0.8562 -1.0047  0.3573
56698SOL    HW176955   8.742   4.685   7.839  0.2997 -0.6110 -1.5891
56698SOL    HW276956   8.885   4.641   7.863 -0.3012 -1.0412  1.8278
56699SOL     OW76957   9.798   5.038  10.310 -0.2334 -0.3000 -0.1151
56699SOL    HW176958   9.705   5.046  10.288 -0.2589 -0.7697 -0.1726
56699SOL    HW276959   9.841   5.105  10.255 -0.5281 -0.1207 -0.1268
56700SOL     OW76960   4.281  12.189   0.512 -0.7919 -0.1971  0.7634
56700SOL    HW176961   4.306  12.281   0.519  0.0603 -0.2033 -1.3039
56700SOL    HW276962   4.329  12.145   0.582 -0.8096  0.8449  1.4533
56701SOL     OW76963   2.544   6.223   7.682  0.0983  0.0893  0.3977
56701SOL    HW176964   2.562   6.290   7.748 -0.5398  1.6933 -0.9895
56701SOL    HW276965   2.468   6.176   7.716  0.7132 -0.1344  1.5131
56702SOL     OW76966   7.284   6.854   2.386 -0.3271 -0.0716 -0.2695
56702SOL    HW176967   7.263   6.802   2.308  3.6228 -1.5999 -0.5401
56702SOL    HW276968   7.269   6.794   2.459 -2.0628  0.7013  0.0645
56703SOL     OW76969  10.265  12.477   9.338  0.4367  0.3101  0.1813
56703SOL    HW176970  10.285  12.559   9.382  0.6807  1.1172 -1.3523
56703SOL    HW276971  10.344  12.424   9.347  0.0816 -0.0208  1.6651
56704SOL     OW76972   5.356  11.864   8.860 -0.0578  0.3544  0.1023
56704SOL    HW176973   5.408  11.785   8.846  0.3049  0.4038  1.0917
56704SOL    HW276974   5.291  11.862   8.790  0.4835 -0.3685 -0.3983
56705SOL     OW76975   6.734   5.971   5.513  0.3402 -0.1205 -0.1330
56705SOL    HW176976   6.702   5.912   5.445 -1.0821 -0.4342  0.7551
56705SOL    HW276977   6.746   5.914   5.590 -0.4757  0.6230  0.5662
56706SOL     OW76978   9.978   8.735   9.760 -0.3354  0.5517  0.2808
56706SOL    HW176979   9.958   8.646   9.729 -1.0871  1.0174 -0.6256
56706SOL    HW276980  10.058   8.725   9.811  0.2108 -0.4776 -0.7340
56707SOL     OW76981  10.058  11.279   9.672 -0.4442 -0.2747 -0.0026
56707SOL    HW176982   9.967  11.304   9.659 -0.2973 -0.0406 -0.6261
56707SOL    HW276983  10.085  11.242   9.588 -0.1956 -1.0955  0.4264
56708SOL     OW76984   1.626   5.481   4.813  0.0410  0.6067 -0.2702
56708SOL    HW176985   1.623   5.392   4.848 -2.6660  1.3427  1.7849
56708SOL    HW276986   1.684   5.529   4.873 -0.0335  0.6352 -0.2208
56709SOL     OW76987   5.562   9.235   6.632 -0.7287  0.1470 -0.3703
56709SOL    HW176988   5.653   9.247   6.605 -0.9646  1.8919 -0.5206
56709SOL    HW276989   5.567   9.176   6.708  0.5611  0.4787 -0.1794
56710SOL     OW76990   0.575   4.840  10.529  0.2569 -0.7811  0.1499
56710SOL    HW176991   0.562   4.839  10.624 -0.0721 -1.9101  0.1055
56710SOL    HW276992   0.595   4.749  10.507  0.6860 -0.4552 -0.8199
56711SOL     OW76993   2.407   5.924   0.356  0.3223 -0.4614  0.5102
56711SOL    HW176994   2.335   5.861   0.365  0.5352 -0.7398  0.2844
56711SOL    HW276995   2.484   5.870   0.339  0.9128 -0.2785  2.4371
56712SOL     OW76996   1.844   1.322   9.507  0.2902 -0.0110 -0.2350
56712SOL    HW176997   1.812   1.237   9.536  0.7524 -0.4908 -1.0860
56712SOL    HW276998   1.806   1.384   9.568 -1.5514 -0.6306 -0.6996
56713SOL     OW76999   6.087   4.528   4.089  0.2273  0.0645  0.1770
56713SOL    HW177000   6.066   4.437   4.109  1.3226 -0.0731  0.7774
56713SOL    HW277001   6.008   4.562   4.045 -0.4105 -0.9921  0.4701
56714SOL     OW77002   1.782   4.298   0.966  0.1078  0.3424 -0.0752
56714SOL    HW177003   1.839   4.245   0.911 -0.5509  0.4739 -0.8912
56714SOL    HW277004   1.810   4.278   1.056  2.6222  1.7040 -0.4594
56715SOL     OW77005  11.700   9.369   6.246 -0.3508  0.5195  0.3593
56715SOL    HW177006  11.725   9.441   6.303 -0.1388  0.8272 -0.1228
56715SOL    HW277007  11.774   9.308   6.250 -1.0231 -0.2674  1.7133
56716SOL     OW77008   8.519   4.083   8.957 -0.0922  0.5108  0.1586
56716SOL    HW177009   8.516   4.119   9.046  0.1526  1.1661 -0.0911
56716SOL    HW277010   8.427   4.072   8.933 -0.1566  0.1138  0.5757
56717SOL     OW77011   8.316   8.302  11.565  0.3229  0.3563  0.0584
56717SOL    HW177012   8.410   8.313  11.580  0.3706  0.9998 -0.6751
56717SOL    HW277013   8.277   8.382  11.598 -0.1117 -0.4208  1.4928
56718SOL     OW77014   6.621   6.130  12.019 -0.1537 -0.8261  0.5711
56718SOL    HW177015   6.714   6.114  12.039  0.0075  1.1862  1.6960
56718SOL    HW277016   6.622   6.190  11.945 -0.6814 -3.2805 -1.5463
56719SOL     OW77017   6.004   3.187   1.508 -0.0929  0.7477 -0.5282
56719SOL    HW177018   5.953   3.127   1.454 -2.2707  2.3949 -0.4210
56719SOL    HW277019   5.989   3.158   1.598  2.3864 -1.1110 -0.5946
56720SOL     OW77020   2.005  10.749   3.438  0.1294  0.1474 -0.2399
56720SOL    HW177021   2.004  10.827   3.381  1.0294  0.2425 -0.1317
56720SOL    HW277022   1.999  10.675   3.377 -1.4440  0.2975 -0.3091
56721SOL     OW77023   7.970  10.341   4.755  0.1186 -0.3007  0.4355
56721SOL    HW177024   7.998  10.325   4.845 -0.3543  0.5976  0.7645
56721SOL    HW277025   7.899  10.405   4.764 -1.2096 -1.5753 -0.4424
56722SOL     OW77026   3.615   5.199  10.834  0.0979  0.5579 -0.0375
56722SOL    HW177027   3.621   5.115  10.881  1.8035  1.3656  1.2779
56722SOL    HW277028   3.553   5.251  10.887  1.4829  1.2180  0.9950
56723SOL     OW77029   2.106   8.688   0.211  0.2715  0.7373 -0.4003
56723SOL    HW177030   2.063   8.760   0.167 -0.3619 -0.5495 -1.9742
56723SOL    HW277031   2.170   8.656   0.148 -0.6823 -1.1846 -0.4472
56724SOL     OW77032  10.651   7.077   6.739 -0.1489 -0.0795  0.0132
56724SOL    HW177033  10.715   7.121   6.683  0.3391 -0.6193  0.1334
56724SOL    HW277034  10.628   6.997   6.692  0.3395 -0.5850  0.6165
56725SOL     OW77035   5.506  12.178   6.970  0.0926 -0.0389  0.0787
56725SOL    HW177036   5.525  12.209   6.882 -0.4015  2.2657  0.7303
56725SOL    HW277037   5.410  12.170   6.973  0.1399 -0.6303  0.2685
56726SOL     OW77038   7.725   4.936  11.119 -0.1986  0.1421 -0.0340
56726SOL    HW177039   7.771   4.874  11.062  0.0099  0.2422  0.0239
56726SOL    HW277040   7.766   4.924  11.205 -2.0386 -1.6667  0.6860
56727SOL     OW77041  12.107  10.512  11.223  0.4344  0.0916  0.9436
56727SOL    HW177042  12.070  10.585  11.273 -0.5783 -0.9484  1.7690
56727SOL    HW277043  12.032  10.455  11.204  0.1762  1.5890 -4.0413
56728SOL     OW77044  12.114   9.389   0.582 -0.5022 -0.6091 -0.1888
56728SOL    HW177045  12.088   9.461   0.524  2.2110  0.4423 -0.2485
56728SOL    HW277046  12.038   9.375   0.638 -1.2810  2.0931 -0.4193
56729SOL     OW77047   3.086   7.665   9.874 -0.0339  0.5374  0.2182
56729SOL    HW177048   3.074   7.574   9.903 -0.2621  1.2357  2.5337
56729SOL    HW277049   3.177   7.684   9.895  0.0881  0.7826 -0.5122
56730SOL     OW77050   1.154   9.140   5.998  0.3465 -0.5864 -0.2432
56730SOL    HW177051   1.233   9.100   6.035 -0.0450 -0.5297  0.6857
56730SOL    HW277052   1.174   9.151   5.905  1.3623 -0.7380 -0.0556
56731SOL     OW77053   3.108   8.277  12.185 -0.0713 -0.1357  0.2677
56731SOL    HW177054   3.072   8.334  12.253 -2.4921 -0.6349 -0.4931
56731SOL    HW277055   3.133   8.336  12.114  1.7175  0.3113  1.2104
56732SOL     OW77056   9.610  11.676   0.753  0.2473 -0.1511 -0.2568
56732SOL    HW177057   9.690  11.674   0.700 -0.7162 -1.5093 -1.8005
56732SOL    HW277058   9.561  11.751   0.720  0.9593  0.8010  0.8292
56733SOL     OW77059   8.618   3.526   0.356 -0.3473  0.5489 -0.1384
56733SOL    HW177060   8.699   3.505   0.403  0.1708 -0.3066 -1.3530
56733SOL    HW277061   8.561   3.450   0.370  0.5678 -0.6590 -2.4462
56734SOL     OW77062   0.920   6.950   0.375  0.1737 -0.1804 -0.4878
56734SOL    HW177063   0.989   6.993   0.425  2.3063 -2.0938 -1.6158
56734SOL    HW277064   0.953   6.947   0.286 -0.9166 -2.0347 -0.8775
56735SOL     OW77065   9.480  12.384  12.339  0.1002 -0.0636  0.6803
56735SOL    HW177066   9.406  12.440  12.317 -2.7471 -3.6608  0.0769
56735SOL    HW277067   9.538  12.389  12.263 -1.2446  0.3352 -0.3601
56736SOL     OW77068   4.192  10.074   8.217 -0.2044  0.0908 -0.4022
56736SOL    HW177069   4.163  10.165   8.220 -1.7498 -0.3180 -1.7350
56736SOL    HW277070   4.138  10.029   8.283  1.0220  0.2217  0.7344
56737SOL     OW77071   3.021   5.119   4.880 -0.2849  0.0132 -0.4829
56737SOL    HW177072   2.959   5.112   4.953  0.9666 -0.7315  0.5640
56737SOL    HW277073   3.058   5.207   4.888  2.4895 -1.2091  2.1242
56738SOL     OW77074   3.346   8.618   5.977  0.4884 -0.3897  0.7388
56738SOL    HW177075   3.397   8.605   6.057  1.2414 -2.2589  0.0193
56738SOL    HW277076   3.411   8.634   5.909  0.2633 -3.0596 -0.2412
56739SOL     OW77077  10.045   7.106   1.008  0.0921 -0.0931 -0.0261
56739SOL    HW177078  10.082   7.030   0.963  0.0432 -0.3343  0.3320
56739SOL    HW277079  10.120   7.165   1.021  1.2862 -2.0738  3.8806
56740SOL     OW77080  12.413   9.683   4.308  0.2546 -0.4025  0.0926
56740SOL    HW177081  12.324   9.681   4.274  0.7709 -0.8688 -1.3005
56740SOL    HW277082  12.465   9.723   4.239  1.6694 -3.0924 -0.5546
56741SOL     OW77083   5.129   7.433  12.294  0.1779  0.4144  0.1296
56741SOL    HW177084   5.154   7.516  12.333  1.0687  1.0227 -1.6501
56741SOL    HW277085   5.188   7.422  12.219 -1.5659 -0.5775 -1.1826
56742SOL     OW77086   2.741   5.519  11.716 -0.3346  0.0796  0.0929
56742SOL    HW177087   2.646   5.527  11.707 -0.4651  0.2015  1.4168
56742SOL    HW277088   2.775   5.599  11.678 -0.9149  1.1320  1.7062
56743SOL     OW77089   5.695   3.829   0.774 -0.1169  0.1211  0.8342
56743SOL    HW177090   5.661   3.891   0.839 -1.7786  0.5725 -0.3992
56743SOL    HW277091   5.681   3.873   0.690 -0.2108 -1.4244  0.0131
56744SOL     OW77092   8.080   9.125   4.283  0.1018 -0.1659 -0.0794
56744SOL    HW177093   8.026   9.056   4.245  0.3831  0.3863 -1.5413
56744SOL    HW277094   8.017   9.191   4.313 -0.0905 -0.1356 -0.5403
56745SOL     OW77095   6.576  10.523   8.824  0.2550 -0.4010 -0.4792
56745SOL    HW177096   6.507  10.545   8.887 -0.0187 -0.4468 -0.7635
56745SOL    HW277097   6.586  10.603   8.772  2.1508  0.5135  1.1364
56746SOL     OW77098   6.169   3.806   6.500 -0.5792  0.8244  0.6145
56746SOL    HW177099   6.248   3.816   6.553 -0.0872  0.5256 -0.0581
56746SOL    HW277100   6.181   3.865   6.426 -0.9299  0.6858  0.4419
56747SOL     OW77101   3.137   4.917   1.558  0.4695 -0.2379 -0.0507
56747SOL    HW177102   3.229   4.946   1.555  0.7453 -1.1792 -1.2022
56747SOL    HW277103   3.125   4.888   1.649  1.3293 -0.1620  0.0984
56748SOL     OW77104   3.709   6.163   1.657  0.2016  0.8541 -0.3614
56748SOL    HW177105   3.782   6.114   1.620 -1.1444 -2.0041  0.4774
56748SOL    HW277106   3.694   6.124   1.743 -1.6418  2.0692 -0.0562
56749SOL     OW77107   0.653   3.339   8.850  0.5460  0.5393 -0.6180
56749SOL    HW177108   0.565   3.318   8.883 -0.7124  1.0433 -3.3243
56749SOL    HW277109   0.673   3.424   8.887  0.0369  0.2746  0.2906
56750SOL     OW77110   7.459   1.808  12.129 -0.3289 -0.1002  0.3271
56750SOL    HW177111   7.378   1.845  12.094  0.1979  0.3817 -0.4284
56750SOL    HW277112   7.525   1.876  12.114  0.5528 -1.0938 -0.5745
56751SOL     OW77113   2.191   2.269  11.667 -0.1696  0.1020 -0.2764
56751SOL    HW177114   2.103   2.253  11.702 -0.1501 -1.2791 -0.8053
56751SOL    HW277115   2.238   2.310  11.740 -1.0447  0.2287  0.2337
56752SOL     OW77116   9.661  10.491   0.141 -0.4932  0.6720  0.0722
56752SOL    HW177117   9.701  10.467   0.057 -0.9939  0.9771 -0.2638
56752SOL    HW277118   9.569  10.467   0.131  0.1095 -3.2443  2.0369
56753SOL     OW77119   1.777   9.285   3.541 -0.3452 -0.1117  0.2632
56753SOL    HW177120   1.816   9.307   3.456  1.1804 -2.8761  0.1262
56753SOL    HW277121   1.729   9.204   3.524 -1.4001  0.1856  1.7205
56754SOL     OW77122  11.569  12.253   9.794 -0.4516  0.2724 -0.3001
56754SOL    HW177123  11.644  12.216   9.747  0.3411  1.3350  0.0813
56754SOL    HW277124  11.504  12.268   9.725 -0.3566 -0.7160 -0.6284
56755SOL     OW77125   8.834   6.980   2.867 -1.0214 -0.2637  0.0121
56755SOL    HW177126   8.742   6.994   2.890 -0.7140  2.7737 -0.1586
56755SOL    HW277127   8.848   7.035   2.790  0.7121 -1.4301 -0.5647
56756SOL     OW77128   8.864  11.248   7.161  0.5799  0.2467 -0.1602
56756SOL    HW177129   8.820  11.282   7.240  0.7972  0.4816 -0.1396
56756SOL    HW277130   8.810  11.173   7.135  1.6546 -1.1451  1.4183
56757SOL     OW77131   9.346   6.560  11.825  0.2112 -0.1173  0.4805
56757SOL    HW177132   9.264   6.579  11.870  1.3831  0.6657  2.4397
56757SOL    HW277133   9.394   6.504  11.887  1.1801 -0.5118 -0.5894
56758SOL     OW77134   0.757   0.755   9.693  0.0750  0.3679 -0.1516
56758SOL    HW177135   0.790   0.832   9.647  0.7255 -0.0496 -0.3905
56758SOL    HW277136   0.723   0.790   9.776  1.6966  0.7458  0.3967
56759SOL     OW77137   6.053   6.443   5.337  0.2907  0.1218  0.3716
56759SOL    HW177138   5.986   6.503   5.303 -0.6380 -1.8414 -1.4918
56759SOL    HW277139   6.039   6.444   5.432 -1.6336  0.6628  0.1373
56760SOL     OW77140   6.276   0.253   2.313 -0.5022  0.0141 -0.5318
56760SOL    HW177141   6.189   0.215   2.323 -0.3697 -0.6226 -1.6171
56760SOL    HW277142   6.265   0.322   2.247  0.4970 -2.7853 -3.9231
56761SOL     OW77143   9.689   7.786   8.505  0.2548  0.1000 -0.1372
56761SOL    HW177144   9.613   7.808   8.560  0.7661 -2.3297  1.6947
56761SOL    HW277145   9.764   7.793   8.563  1.1551 -0.0802 -1.2386
56762SOL     OW77146  11.409   4.042   4.749 -0.0373 -0.4160 -0.3381
56762SOL    HW177147  11.429   3.999   4.666  0.1151 -1.4484  0.2243
56762SOL    HW277148  11.457   3.992   4.815  0.3109  0.7343  0.3180
56763SOL     OW77149  10.481   0.394   9.732  0.1367 -0.1340  0.3582
56763SOL    HW177150  10.467   0.367   9.641  1.9415 -0.1005  0.0331
56763SOL    HW277151  10.394   0.390   9.772 -0.4692 -1.5093 -0.9946
56764SOL     OW77152   2.113   5.785   2.158  0.1393  0.3178 -0.1264
56764SOL    HW177153   2.049   5.722   2.126 -1.5068  1.2438  1.1793
56764SOL    HW277154   2.188   5.776   2.098 -0.7221 -1.6125 -0.9966
56765SOL     OW77155   7.979   4.373   1.470 -0.5023  0.0574  0.2997
56765SOL    HW177156   7.995   4.334   1.556  1.4415 -3.4746 -1.4652
56765SOL    HW277157   8.053   4.431   1.455 -0.3406 -0.0718  0.6029
56766SOL     OW77158   1.517   3.181   0.354 -0.0679  0.0035  0.9820
56766SOL    HW177159   1.442   3.138   0.311 -0.9255  2.6524 -0.3834
56766SOL    HW277160   1.478   3.232   0.425  0.5245  0.8722  0.6930
56767SOL     OW77161  10.409   5.316  11.585  0.0710  0.2091 -0.4433
56767SOL    HW177162  10.489   5.297  11.634  0.2039 -1.1228 -1.1343
56767SOL    HW277163  10.361   5.378  11.640  0.1247 -1.3774  1.4982
56768SOL     OW77164   4.327  10.819   8.207  0.0716 -0.2496 -0.1407
56768SOL    HW177165   4.362  10.764   8.137  0.7618  0.8010 -0.6531
56768SOL    HW277166   4.257  10.868   8.166  1.4261  1.4465 -0.5374
56769SOL     OW77167   4.895   3.253   6.445  0.2748 -0.5025 -0.5773
56769SOL    HW177168   4.885   3.203   6.364 -0.0520  0.7928 -1.3588
56769SOL    HW277169   4.981   3.294   6.437 -0.4862  1.0446 -1.0955
56770SOL     OW77170   5.749   1.359  11.124  0.0590 -0.3709 -0.0894
56770SOL    HW177171   5.698   1.435  11.096  0.8974 -0.0804 -0.8950
56770SOL    HW277172   5.685   1.289  11.135 -0.9245  0.7783  2.0410
56771SOL     OW77173   5.952   7.318  10.164 -0.4516  0.5314 -0.3702
56771SOL    HW177174   6.003   7.335  10.243 -1.5924  0.6800  0.3668
56771SOL    HW277175   6.017   7.312  10.094  0.7127 -0.8549  0.7544
56772SOL     OW77176  12.087   8.560   4.671 -0.3714  0.5893  0.1320
56772SOL    HW177177  12.088   8.467   4.649 -2.7423  0.6687 -0.5821
56772SOL    HW277178  12.005   8.593   4.634 -0.7728  2.4441  2.3988
56773SOL     OW77179   8.247  11.297   6.474  0.5769  0.2655  0.2531
56773SOL    HW177180   8.270  11.217   6.522 -0.7274  0.0905  0.6061
56773SOL    HW277181   8.204  11.352   6.539 -1.5556 -0.1122 -0.7516
56774SOL     OW77182   0.401   9.944   6.694  0.2657 -0.9951  0.2508
56774SOL    HW177183   0.372   9.887   6.765 -0.7938 -1.4214 -0.5030
56774SOL    HW277184   0.386   9.893   6.614  1.3203 -0.4778 -0.2957
56775SOL     OW77185   8.386   9.158   7.613  0.2041 -0.2804 -0.3927
56775SOL    HW177186   8.394   9.189   7.704 -0.4541  0.6071 -0.6292
56775SOL    HW277187   8.402   9.064   7.619  0.5364 -0.1780  0.5924
56776SOL     OW77188   5.619   3.222   9.682 -0.3909  0.2859  0.1348
56776SOL    HW177189   5.715   3.226   9.679 -0.2794 -1.3884 -3.2525
56776SOL    HW277190   5.600   3.158   9.751  0.9191  0.5049  0.7275
56777SOL     OW77191   3.808  11.447   9.963 -0.2598 -0.3325 -0.5323
56777SOL    HW177192   3.858  11.527   9.976 -1.1011  0.1618 -0.2515
56777SOL    HW277193   3.849  11.383  10.022 -1.4458  0.7363  1.5581
56778SOL     OW77194   7.037  10.052   1.744  0.3087 -0.2014  0.0769
56778SOL    HW177195   7.110  10.021   1.690 -0.7322  0.2627 -1.6855
56778SOL    HW277196   6.971   9.984   1.736  0.7841 -0.9922  2.3079
56779SOL     OW77197   2.471  10.208  10.467  0.3791  0.1913 -0.0027
56779SOL    HW177198   2.384  10.244  10.449  0.3253 -0.5752 -1.4134
56779SOL    HW277199   2.518  10.213  10.384  0.9509 -1.3355  0.1856
56780SOL     OW77200   0.104   3.511   4.887 -0.0074 -0.2710 -0.1479
56780SOL    HW177201   0.077   3.541   4.974  0.2091  2.3016 -0.9099
56780SOL    HW277202   0.162   3.579   4.854  2.8220 -2.8340 -0.9526
56781SOL     OW77203   1.267   8.446   8.014 -0.0494  0.1838 -0.0203
56781SOL    HW177204   1.234   8.362   7.982  0.2611 -0.6669  1.7773
56781SOL    HW277205   1.202   8.510   7.984  0.0591 -0.5463 -2.0116
56782SOL     OW77206  11.144   6.335   7.604  0.1173  0.1463  0.1586
56782SOL    HW177207  11.051   6.313   7.611 -0.0153  0.9856  1.2962
56782SOL    HW277208  11.185   6.255   7.570 -0.5761 -1.3515  2.6239
56783SOL     OW77209   7.718  10.084   9.051  0.6680 -0.2526 -0.2619
56783SOL    HW177210   7.745  10.010   8.997 -2.0729 -0.8957 -0.9059
56783SOL    HW277211   7.631  10.107   9.019  0.4385  1.7267  1.5229
56784SOL     OW77212   2.441   1.836   0.202 -0.2262  0.1106  0.4960
56784SOL    HW177213   2.466   1.922   0.237 -1.3114  0.8904 -0.5288
56784SOL    HW277214   2.482   1.832   0.116  1.7694 -1.4490  1.4478
56785SOL     OW77215   1.387   4.535   7.395 -0.1339 -0.7280 -0.2973
56785SOL    HW177216   1.306   4.532   7.344 -1.1300 -1.8132  1.2325
56785SOL    HW277217   1.431   4.453   7.373  0.0316 -0.6289 -0.3331
56786SOL     OW77218  12.475   5.902   5.985  0.1760  0.0228 -0.5252
56786SOL    HW177219  12.562   5.870   6.010  0.0575 -0.1641 -0.3487
56786SOL    HW277220  12.452   5.853   5.907 -1.3325 -2.6587  1.4341
56787SOL     OW77221   7.339  11.870   2.401  0.4370 -0.3041 -0.5768
56787SOL    HW177222   7.357  11.854   2.494  0.9171 -1.4175 -0.8404
56787SOL    HW277223   7.410  11.926   2.371 -1.8339  3.5718  0.6210
56788SOL     OW77224   1.222   0.642   7.142 -0.3875  0.1869  0.0505
56788SOL    HW177225   1.287   0.700   7.103 -0.9001  0.9458  0.3039
56788SOL    HW277226   1.252   0.630   7.232 -0.2585  0.0222 -0.0143
56789SOL     OW77227   1.296   8.919   1.967  0.0010  0.0753  0.2306
56789SOL    HW177228   1.202   8.927   1.948 -0.0087 -2.7605 -1.3935
56789SOL    HW277229   1.338   8.973   1.900 -0.4281 -0.3263 -0.3751
56790SOL     OW77230  11.980  12.302   8.527 -0.1930 -0.4101  0.4750
56790SOL    HW177231  12.074  12.293   8.537 -0.1754 -0.3625  0.3506
56790SOL    HW277232  11.944  12.253   8.601 -0.1067 -1.7607 -0.3459
56791SOL     OW77233   2.625  11.095   1.236  0.3657 -0.8937 -0.0424
56791SOL    HW177234   2.677  11.151   1.294  0.6690  0.1690 -1.3050
56791SOL    HW277235   2.649  11.123   1.148 -1.4255 -1.2429 -0.6775
56792SOL     OW77236  11.516   1.531  11.551  0.3203  0.1292  0.1149
56792SOL    HW177237  11.464   1.610  11.569  1.5838  0.7842  1.0294
56792SOL    HW277238  11.453   1.459  11.560 -0.8004  0.9952 -0.4807
56793SOL     OW77239   4.788   8.384  12.289  0.0433  0.1381 -0.8219
56793SOL    HW177240   4.866   8.433  12.261  0.4025  0.0735  0.0261
56793SOL    HW277241   4.810   8.293  12.272  0.9221 -0.0661  1.0643
56794SOL     OW77242   8.509   6.921   1.643  0.0169 -0.0803  0.6133
56794SOL    HW177243   8.485   6.869   1.720 -1.5033 -0.4232 -0.0714
56794SOL    HW277244   8.426   6.956   1.610  0.5443 -0.5357 -1.3063
56795SOL     OW77245   3.825   8.599   4.510  0.2253 -0.0545  0.3356
56795SOL    HW177246   3.919   8.616   4.510  0.1922  0.8103  3.6804
56795SOL    HW277247   3.786   8.679   4.475  0.6754  0.8421  1.7989
56796SOL     OW77248  10.925   0.610  10.305  0.2901  0.4847  0.0945
56796SOL    HW177249  10.937   0.664  10.227  0.5013  1.2811  0.6775
56796SOL    HW277250  10.830   0.594  10.308  0.3032  0.2509 -0.4431
56797SOL     OW77251   9.321   4.365   1.221  0.4064  0.2661  0.5705
56797SOL    HW177252   9.336   4.400   1.309  0.1760 -0.4468  0.8939
56797SOL    HW277253   9.400   4.390   1.173  1.5148 -1.1764  1.5543
56798SOL     OW77254   7.136   3.486   6.434 -1.0480 -0.3716 -0.2740
56798SOL    HW177255   7.187   3.562   6.407 -1.1509 -0.3270 -0.3397
56798SOL    HW277256   7.135   3.429   6.357 -3.6806  0.9543 -1.3518
56799SOL     OW77257   0.399   2.672  10.660 -0.2944  0.0914 -0.5182
56799SOL    HW177258   0.434   2.718  10.584  1.4118 -0.0564  0.1279
56799SOL    HW277259   0.330   2.616  10.625 -0.0058  0.5227 -1.8354
56800SOL     OW77260  10.406   7.921   5.107 -0.3396  0.2959 -0.3994
56800SOL    HW177261  10.346   7.969   5.049 -0.1396  0.7194 -0.2624
56800SOL    HW277262  10.386   7.829   5.091 -2.1780  0.4358  0.8596
56801SOL     OW77263   0.367   3.810  10.564  0.5620  0.1697 -0.6449
56801SOL    HW177264   0.341   3.720  10.546 -4.0235  1.4457 -1.6406
56801SOL    HW277265   0.374   3.815  10.659  1.7500 -1.3784 -0.6184
56802SOL     OW77266   8.984  12.279   9.066 -0.3590  0.1497 -0.5205
56802SOL    HW177267   8.919  12.323   9.121  0.0437  0.8232 -0.5734
56802SOL    HW277268   9.003  12.197   9.112 -1.3962 -0.1634 -0.6164
56803SOL     OW77269   4.511   2.359  10.204  0.3594 -0.4769  0.0997
56803SOL    HW177270   4.597   2.384  10.169  0.9173  1.5671  2.6355
56803SOL    HW277271   4.450   2.381  10.134  1.6614  0.6492 -0.7382
56804SOL     OW77272  12.139   8.481   4.075  0.3066 -0.4557  0.1918
56804SOL    HW177273  12.120   8.389   4.093  1.6424 -0.8443 -0.2599
56804SOL    HW277274  12.087   8.529   4.140 -2.6026 -1.3553 -1.2901
56805SOL     OW77275   6.750   3.060  10.671 -0.5879 -0.3478 -0.4758
56805SOL    HW177276   6.734   2.999  10.599  0.5481  0.6462 -1.6196
56805SOL    HW277277   6.841   3.088  10.660 -1.1175  1.7306 -0.1637
56806SOL     OW77278   6.774   9.165   7.334  0.3758 -0.1699 -0.0198
56806SOL    HW177279   6.823   9.102   7.282  2.3425  0.8301  0.5059
56806SOL    HW277280   6.798   9.146   7.425 -1.6460 -0.7723  0.4419
56807SOL     OW77281   6.454   5.442   4.163 -0.7309 -0.4479  0.2359
56807SOL    HW177282   6.365   5.464   4.134  0.1365 -0.0147 -2.4152
56807SOL    HW277283   6.455   5.347   4.170 -1.4162 -0.4487  0.3544
56808SOL     OW77284   7.831  10.002   7.426  0.3514  0.4407  0.3725
56808SOL    HW177285   7.862  10.022   7.514 -2.0703  1.6644  1.0529
56808SOL    HW277286   7.806   9.909   7.429  2.7241 -0.2672  0.1099
56809SOL     OW77287   3.464  11.159   7.950  0.2970 -0.1537  0.1759
56809SOL    HW177288   3.487  11.141   8.042 -1.7544 -2.9723  0.2697
56809SOL    HW277289   3.544  11.141   7.902  1.0409  0.0138  1.3054
56810SOL     OW77290   5.339   8.353  10.150  0.4377  0.0684  0.7379
56810SOL    HW177291   5.272   8.290  10.126  0.1477  0.4345  0.5764
56810SOL    HW277292   5.300   8.439  10.131  0.7936  0.3012  1.0263
56811SOL     OW77293   2.480   1.660  10.993  0.5931 -0.0613  0.3950
56811SOL    HW177294   2.464   1.737  11.047 -0.9981  0.4636 -0.7450
56811SOL    HW277295   2.465   1.691  10.903 -0.1244 -1.7000 -0.0814
56812SOL     OW77296   2.398   7.145  10.638 -0.1551  0.4381  0.2674
56812SOL    HW177297   2.467   7.187  10.587 -0.6738  1.2084  0.1868
56812SOL    HW277298   2.324   7.137  10.577  0.7461 -3.1589 -0.6369
56813SOL     OW77299  12.243   3.008   6.528 -0.0656  0.6102 -1.1041
56813SOL    HW177300  12.207   2.928   6.566  1.3265  0.3929 -0.1820
56813SOL    HW277301  12.243   3.070   6.601 -0.4897  1.2518 -1.6403
56814SOL     OW77302   8.292   4.816   9.897  0.0217 -0.4621  0.2623
56814SOL    HW177303   8.379   4.819   9.936  1.0183 -0.5113 -1.8258
56814SOL    HW277304   8.307   4.821   9.803 -2.2891  0.1810 -0.1457
56815SOL     OW77305   4.902   4.756   5.673 -0.0006 -0.2862 -0.0918
56815SOL    HW177306   4.829   4.815   5.657 -0.3785 -0.6612  0.2456
56815SOL    HW277307   4.976   4.796   5.626 -0.2832  0.3796  0.0243
56816SOL     OW77308  10.526   5.838   8.995  0.0379 -0.5805 -0.3871
56816SOL    HW177309  10.590   5.897   9.036 -2.0173  1.5769 -0.0209
56816SOL    HW277310  10.525   5.864   8.903  0.1380 -1.0462 -0.5214
56817SOL     OW77311   7.656  10.860   7.507  0.9121 -0.7810 -0.0793
56817SOL    HW177312   7.608  10.805   7.569 -0.5395  2.5035  1.9904
56817SOL    HW277313   7.748  10.848   7.531  0.4553 -0.3702  2.1688
56818SOL     OW77314   2.977   5.863   8.185  0.3660  0.4732 -0.7339
56818SOL    HW177315   2.967   5.950   8.224 -2.2783  1.2108 -2.7258
56818SOL    HW277316   2.961   5.877   8.092 -0.7041 -2.2117 -1.0452
56819SOL     OW77317  12.279   4.023   3.376  0.3676  0.3792  0.0204
56819SOL    HW177318  12.343   3.969   3.422 -0.8090  0.8443  2.3701
56819SOL    HW277319  12.300   4.113   3.402 -1.0311  0.5627  0.6320
56820SOL     OW77320   7.642   9.721   0.167 -0.0518  0.0420 -0.2413
56820SOL    HW177321   7.662   9.747   0.257  1.2739 -1.1409 -0.1593
56820SOL    HW277322   7.635   9.626   0.170 -0.8107  0.0415 -1.2551
56821SOL     OW77323   0.866   5.430   1.026  0.0267  0.1924 -0.2425
56821SOL    HW177324   0.889   5.435   1.118 -0.7732  1.2200 -0.0739
56821SOL    HW277325   0.827   5.343   1.015  0.5279 -0.1002  0.2821
56822SOL     OW77326   8.251   2.852   8.350 -0.0205 -0.7646  0.1067
56822SOL    HW177327   8.221   2.933   8.393 -0.1114 -0.6572 -0.1610
56822SOL    HW277328   8.302   2.807   8.418  1.4638  0.3172 -0.2546
56823SOL     OW77329   7.879   8.614   3.959 -0.8563  0.0822 -0.9584
56823SOL    HW177330   7.905   8.541   3.903 -1.6479  0.9857 -2.5864
56823SOL    HW277331   7.921   8.596   4.043 -1.5699 -2.5669 -1.0971
56824SOL     OW77332   7.246  10.051  11.764  0.2363  0.1101 -0.2485
56824SOL    HW177333   7.247   9.982  11.829  0.1560  0.4004  0.0642
56824SOL    HW277334   7.154  10.061  11.740 -0.0533  1.5232  1.2456
56825SOL     OW77335  10.936   3.454   1.048 -0.0443  0.5362 -0.1080
56825SOL    HW177336  10.908   3.496   0.966 -1.8829 -0.2941  0.0270
56825SOL    HW277337  11.029   3.437   1.035 -0.4448 -0.3812 -2.4417
56826SOL     OW77338  10.886   8.447   6.110  0.4729 -0.1312 -0.5444
56826SOL    HW177339  10.889   8.357   6.141 -0.6206  0.1760  0.5590
56826SOL    HW277340  10.977   8.475   6.107  0.7598 -0.9753  0.0402
56827SOL     OW77341   6.486   0.100   5.662  0.4061  0.2020 -0.2214
56827SOL    HW177342   6.549   0.150   5.714  0.6681  0.7348 -1.0322
56827SOL    HW277343   6.446   0.164   5.603  0.5217 -0.4744 -1.0700
56828SOL     OW77344   0.208   0.494   3.480  0.0142 -0.5429  0.2708
56828SOL    HW177345   0.238   0.424   3.422 -3.1920 -1.0910 -0.8882
56828SOL    HW277346   0.229   0.574   3.433 -0.6261 -0.9190 -0.6862
56829SOL     OW77347   9.373   9.935   0.267 -0.2710 -0.1534  0.1559
56829SOL    HW177348   9.360   9.949   0.361 -1.7875  0.5248 -0.1300
56829SOL    HW277349   9.369  10.022   0.229 -0.1143 -0.4693 -0.5983
56830SOL     OW77350   8.310   1.282  10.738  0.5245 -0.1959 -0.2334
56830SOL    HW177351   8.392   1.320  10.768  0.4234  0.0981 -0.3285
56830SOL    HW277352   8.242   1.344  10.764  0.3974 -0.1213 -0.7229
56831SOL     OW77353   4.586   5.826   1.207 -0.1675  0.4962 -0.3234
56831SOL    HW177354   4.672   5.788   1.185 -0.2301  0.2602 -0.1639
56831SOL    HW277355   4.523   5.763   1.173 -0.2651  0.0389  0.6858
56832SOL     OW77356   1.356   1.749  12.454 -0.0972 -0.1568 -0.3982
56832SOL    HW177357   1.437   1.707  12.485 -0.1254 -0.3132 -0.5359
56832SOL    HW277358   1.339   1.817  12.519  1.0824  1.0237 -1.2775
56833SOL     OW77359  10.780   3.035   2.803  0.1538  0.1812 -0.2876
56833SOL    HW177360  10.829   3.113   2.777  1.1370 -0.1788  0.4328
56833SOL    HW277361  10.826   2.962   2.761  2.2460 -0.5031  2.8501
56834SOL     OW77362   1.643   1.709   2.913  0.1643  0.3445  0.0354
56834SOL    HW177363   1.572   1.762   2.951 -1.7601  0.5081 -3.3581
56834SOL    HW277364   1.602   1.625   2.894  1.0372  0.2140 -1.3896
56835SOL     OW77365   1.025   3.298   4.361 -0.6355 -0.3200  0.0911
56835SOL    HW177366   0.974   3.240   4.304  1.4171 -2.0071 -0.1365
56835SOL    HW277367   1.028   3.382   4.314 -1.3856 -0.8206 -0.8779
56836SOL     OW77368   5.724   2.372  10.477  0.2885  0.1236  0.4562
56836SOL    HW177369   5.668   2.445  10.452 -1.1676 -1.0454  0.1525
56836SOL    HW277370   5.785   2.361  10.404 -2.0013 -1.3814 -1.3725
56837SOL     OW77371   7.327   3.975   0.288 -0.0837 -0.0435 -0.8421
56837SOL    HW177372   7.354   4.020   0.368 -0.1347 -1.6558  0.1483
56837SOL    HW277373   7.254   3.920   0.316 -0.2105 -0.5101 -2.0438
56838SOL     OW77374  12.152   3.640   6.202 -0.4559  0.1429 -0.1086
56838SOL    HW177375  12.078   3.591   6.166 -1.9232 -0.0058  2.8009
56838SOL    HW277376  12.141   3.729   6.170  0.1824 -0.5495 -2.5052
56839SOL     OW77377   2.031   0.630   9.541  0.3279 -0.6446 -0.2350
56839SOL    HW177378   1.964   0.563   9.526 -0.3177  0.0903 -0.6938
56839SOL    HW277379   2.113   0.581   9.547  0.1762 -1.3278 -2.7272
56840SOL     OW77380   5.912   1.658   3.176 -0.0167  0.8212 -0.0039
56840SOL    HW177381   5.845   1.628   3.114  0.4574  0.6525 -0.4478
56840SOL    HW277382   5.947   1.738   3.135  0.0174  0.9352  0.2494
56841SOL     OW77383   1.962   8.037   5.924  0.0734 -0.2302 -0.0875
56841SOL    HW177384   1.882   8.049   5.974 -0.4185 -0.7398 -0.7375
56841SOL    HW277385   1.962   8.107   5.859  0.0171 -0.3917 -0.2627
56842SOL     OW77386   5.090  11.973   5.956 -0.0677  0.4726 -0.3365
56842SOL    HW177387   5.155  11.908   5.982 -1.7178 -1.6914 -1.2726
56842SOL    HW277388   5.141  12.045   5.919  1.8195 -0.6609 -0.0748
56843SOL     OW77389   1.418   1.474   4.169  0.1516 -0.0363 -0.1242
56843SOL    HW177390   1.380   1.422   4.098  0.3675 -1.3465  0.6880
56843SOL    HW277391   1.508   1.490   4.142  0.6228 -1.6238  0.3744
56844SOL     OW77392   9.998   1.413   9.173 -0.1836 -0.5246  0.2308
56844SOL    HW177393   9.911   1.383   9.146  0.2524 -1.0533 -0.6032
56844SOL    HW277394   9.980   1.488   9.230 -1.1779 -0.4675 -0.1331
56845SOL     OW77395   7.690   0.400   6.768  0.0057 -0.4289 -0.4143
56845SOL    HW177396   7.701   0.315   6.812 -1.1629  0.1161  1.0313
56845SOL    HW277397   7.707   0.464   6.837 -0.8580  0.4789 -1.0281
56846SOL     OW77398   4.258   1.149   8.520 -0.2206 -0.0776 -0.2407
56846SOL    HW177399   4.167   1.173   8.502  0.0437 -0.2570 -2.0118
56846SOL    HW277400   4.252   1.083   8.590 -1.6570 -1.7250 -1.8026
56847SOL     OW77401   6.828   6.784  10.284  0.2502 -0.3089  0.0887
56847SOL    HW177402   6.825   6.688  10.280 -0.7587 -0.2768 -0.4298
56847SOL    HW277403   6.884   6.809  10.211  0.5189 -0.5032  0.2270
56848SOL     OW77404  11.952   4.857  10.091  0.4197 -0.1029 -0.2401
56848SOL    HW177405  11.949   4.878   9.997 -1.0538  1.1758  0.0439
56848SOL    HW277406  12.005   4.927  10.129  0.9583 -0.5836 -0.0867
56849SOL     OW77407   7.683   8.446   8.203  0.2596 -0.0998  0.2162
56849SOL    HW177408   7.740   8.381   8.244  1.7763 -0.0887 -1.7309
56849SOL    HW277409   7.697   8.526   8.254  0.9917 -0.4310  0.5439
56850SOL     OW77410   5.318   3.783   5.652  0.1703  0.1686 -0.4923
56850SOL    HW177411   5.405   3.815   5.676  0.1526 -0.1597  0.0487
56850SOL    HW277412   5.261   3.859   5.663  0.6127  0.8220 -2.3950
56851SOL     OW77413   4.542   6.615   1.117  0.3508 -0.3261  0.4733
56851SOL    HW177414   4.476   6.674   1.080  0.7253 -0.6994 -0.8404
56851SOL    HW277415   4.497   6.531   1.124 -0.6655  0.3363  3.7512
56852SOL     OW77416   7.151   2.073   6.633 -0.3611 -0.2374  0.0269
56852SOL    HW177417   7.132   2.000   6.573 -1.7070 -0.1848  0.3433
56852SOL    HW277418   7.107   2.048   6.714  0.6347  0.1410  0.6881
56853SOL     OW77419   4.644  10.586   9.849 -0.0280 -0.3322 -0.3979
56853SOL    HW177420   4.679  10.498   9.834 -0.5753 -0.8979  1.3770
56853SOL    HW277421   4.670  10.607   9.939 -2.1432  0.2084  0.1407
56854SOL     OW77422   1.985  10.557   4.587 -0.9238 -0.1103  0.1868
56854SOL    HW177423   1.951  10.646   4.585  0.8384  0.6632  1.4815
56854SOL    HW277424   1.928  10.512   4.649 -1.5142  0.2604 -0.0788
56855SOL     OW77425  12.178   9.935   7.011 -0.1162 -0.1387  0.2135
56855SOL    HW177426  12.199   9.920   6.918 -0.8544  1.2864 -0.2068
56855SOL    HW277427  12.190  10.029   7.023 -0.6482 -0.2134  1.4198
56856SOL     OW77428  11.901   2.901  10.702 -0.8351 -0.6822  0.2653
56856SOL    HW177429  11.807   2.899  10.685 -0.7898  0.6931 -0.3102
56856SOL    HW277430  11.929   2.987  10.671  0.7493 -1.3505 -0.2607
56857SOL     OW77431  10.027   9.771   9.436  0.2568  0.0090 -0.4478
56857SOL    HW177432  10.043   9.698   9.496 -0.9205  1.4386  1.7644
56857SOL    HW277433   9.944   9.809   9.467 -0.2987  0.9880 -2.8875
56858SOL     OW77434   7.296  10.586   9.808 -0.1654 -0.2328 -0.1798
56858SOL    HW177435   7.366  10.522   9.820 -0.1280  0.0160  1.0929
56858SOL    HW277436   7.225  10.536   9.768  1.0026 -0.2872 -2.3804
56859SOL     OW77437   7.950   7.847   7.885 -0.0187  0.3199 -0.0056
56859SOL    HW177438   7.966   7.828   7.792 -0.0104 -2.0496  0.4136
56859SOL    HW277439   7.901   7.771   7.916 -0.4919  1.3335  1.8204
56860SOL     OW77440  10.894   0.941   4.464 -0.2564  0.4822 -0.4601
56860SOL    HW177441  10.876   0.885   4.539  3.1345 -0.6988 -0.3643
56860SOL    HW277442  10.871   0.888   4.388 -0.2888  0.2933 -0.3179
56861SOL     OW77443   7.185   1.070   7.195 -0.0702 -0.0997 -0.6754
56861SOL    HW177444   7.174   0.976   7.183  1.9611 -0.3560 -0.9600
56861SOL    HW277445   7.210   1.103   7.109 -0.5430  0.6794 -0.5302
56862SOL     OW77446   4.815  10.745   1.813  0.1769 -0.3709 -0.3673
56862SOL    HW177447   4.750  10.690   1.769  0.0363 -0.8037  0.3674
56862SOL    HW277448   4.890  10.687   1.828 -0.6261 -0.9311  2.0050
56863SOL     OW77449   0.294   4.943   9.542 -0.5203 -0.5754  0.0996
56863SOL    HW177450   0.273   4.869   9.598 -0.4066 -0.4793  0.2712
56863SOL    HW277451   0.344   5.002   9.598 -1.6844  0.2102  0.3371
56864SOL     OW77452  10.246  11.445  11.795 -0.1364 -0.5550  0.8795
56864SOL    HW177453  10.202  11.530  11.803 -1.2707 -0.9890 -0.4384
56864SOL    HW277454  10.234  11.404  11.881  0.7402  0.7354  1.6578
56865SOL     OW77455   4.111   7.178   1.003  0.1871 -0.1290 -0.0068
56865SOL    HW177456   4.049   7.142   1.066  0.1489  0.2387  0.1750
56865SOL    HW277457   4.161   7.242   1.054  0.3624 -0.0479 -0.2785
56866SOL     OW77458  10.362   1.973  10.981 -0.0961 -0.6847  0.0608
56866SOL    HW177459  10.280   2.008  10.946 -0.4267 -1.9276 -0.4657
56866SOL    HW277460  10.415   1.954  10.903  0.4807 -0.3854  0.3782
56867SOL     OW77461   8.032   3.791   7.879  0.1390  0.0246  0.6973
56867SOL    HW177462   7.952   3.844   7.878 -0.9371 -1.5287  1.4745
56867SOL    HW277463   8.086   3.829   7.810 -1.5977  0.6209 -0.4051
56868SOL     OW77464  11.167   4.672   9.098  0.7289 -0.1983  0.2604
56868SOL    HW177465  11.118   4.754   9.091 -0.6569 -0.9405  0.9119
56868SOL    HW277466  11.128   4.614   9.033  0.4331 -0.9433  1.0789
56869SOL     OW77467   4.314   5.404   9.845  0.6618  0.3899  0.5176
56869SOL    HW177468   4.221   5.415   9.863  1.2989  0.4898  4.7272
56869SOL    HW277469   4.321   5.316   9.809 -1.0480  0.3164  0.2754
56870SOL     OW77470   5.447   5.118  10.007  0.2091 -0.0311 -0.1851
56870SOL    HW177471   5.433   5.161   9.923 -1.0172  0.2638  0.1504
56870SOL    HW277472   5.378   5.153  10.064  1.8618  0.8625  1.3791
56871SOL     OW77473   0.881   6.003   2.171 -0.2850 -0.0856 -0.0043
56871SOL    HW177474   0.945   5.948   2.126  0.4336  0.6342  0.1062
56871SOL    HW277475   0.801   5.994   2.119 -0.2582 -1.4032  0.1454
56872SOL     OW77476  11.944   0.155   5.898 -0.0172  0.1580  0.2204
56872SOL    HW177477  11.933   0.112   5.813 -1.0167  2.2299 -0.7570
56872SOL    HW277478  11.868   0.128   5.949  0.3134 -0.6668  0.2917
56873SOL     OW77479   9.781  12.048  10.613 -0.3009 -0.3535  0.3597
56873SOL    HW177480   9.718  12.095  10.667 -0.8769  1.0472 -1.4335
56873SOL    HW277481   9.858  12.106  10.609 -0.0577 -0.6877  0.1209
56874SOL     OW77482   5.845  10.558   7.193 -0.1546  0.4518  0.2849
56874SOL    HW177483   5.919  10.500   7.212  0.8277  2.2231  2.4693
56874SOL    HW277484   5.780  10.537   7.260 -0.2415  1.0851  0.4087
56875SOL     OW77485   3.324   1.100   4.178 -0.0272  0.2106 -0.2708
56875SOL    HW177486   3.302   1.067   4.091 -0.3995  1.4310 -0.6728
56875SOL    HW277487   3.279   1.185   4.183  0.5784  0.4907  0.8339
56876SOL     OW77488   1.285   7.772   9.790 -0.2692 -0.6486  0.3519
56876SOL    HW177489   1.237   7.728   9.860  0.3454 -1.6413  0.1609
56876SOL    HW277490   1.222   7.780   9.719 -1.3614  1.6583  1.4457
56877SOL     OW77491  10.527   5.452   3.510  0.4310 -0.5702 -0.0766
56877SOL    HW177492  10.528   5.539   3.470 -2.0914 -0.1002  0.6509
56877SOL    HW277493  10.606   5.410   3.478  1.1327  1.5713 -1.4103
56878SOL     OW77494   8.737   9.392   0.665  1.0605  0.1828 -0.2238
56878SOL    HW177495   8.762   9.306   0.699  1.1835  0.3301  0.0565
56878SOL    HW277496   8.788   9.402   0.585 -0.9022 -1.1679 -1.7534
56879SOL     OW77497   7.850   3.032   7.499  0.0136 -0.2325 -0.5270
56879SOL    HW177498   7.776   3.067   7.549  1.8578  1.8331  0.9415
56879SOL    HW277499   7.900   2.980   7.563  1.3938  0.8810 -0.6570
56880SOL     OW77500   0.140   4.866   4.672  0.1307 -0.5827  0.2337
56880SOL    HW177501   0.080   4.792   4.678  0.8583 -1.1526  0.4819
56880SOL    HW277502   0.168   4.882   4.762  0.4043 -0.3555  0.1093
56881SOL     OW77503   5.908   5.665   9.829  0.4647 -0.0019  0.1556
56881SOL    HW177504   5.847   5.604   9.871 -0.8352  0.5969 -0.7834
56881SOL    HW277505   5.882   5.752   9.861  0.8448  0.2657 -0.2344
56882SOL     OW77506   3.039   8.766   7.092  0.3857  0.3693 -0.1609
56882SOL    HW177507   3.016   8.827   7.162  0.8893  0.0034  0.3281
56882SOL    HW277508   2.979   8.788   7.021 -1.9049 -0.9058  1.2484
56883SOL     OW77509   5.059   4.395   1.855 -0.4420 -0.2611  0.3722
56883SOL    HW177510   5.010   4.357   1.782  0.5954  0.3703 -0.6844
56883SOL    HW277511   5.028   4.348   1.932 -2.8938  0.2956 -0.1959
56884SOL     OW77512  12.403   7.487   5.118  0.1972  0.3874 -0.0841
56884SOL    HW177513  12.389   7.478   5.023  0.1567  1.5227 -0.2108
56884SOL    HW277514  12.367   7.407   5.156  0.7359 -0.3478 -1.0737
56885SOL     OW77515   7.124  10.384  10.688 -0.1004  0.3753  0.3346
56885SOL    HW177516   7.038  10.417  10.663 -1.1319 -0.3947  2.6594
56885SOL    HW277517   7.140  10.420  10.776  1.6578 -0.0542  0.2437
56886SOL     OW77518   6.391   7.420   4.304  0.2614 -0.2579 -0.3490
56886SOL    HW177519   6.304   7.388   4.325 -0.2800  1.3550 -0.0106
56886SOL    HW277520   6.427   7.451   4.387  1.8264 -2.3052 -0.1663
56887SOL     OW77521  10.473   4.534   4.938 -0.0815  0.2926 -0.1975
56887SOL    HW177522  10.477   4.441   4.915 -2.5713 -0.6780  2.6275
56887SOL    HW277523  10.379   4.555   4.936  0.3792  2.6062 -0.1875
56888SOL     OW77524   1.500   0.731   1.702  0.3494 -0.5886 -0.1899
56888SOL    HW177525   1.451   0.654   1.674  0.3676 -0.4246 -0.6914
56888SOL    HW277526   1.501   0.788   1.625 -1.2803  0.7594  0.7360
56889SOL     OW77527  11.422   4.008  10.869  0.4353 -0.0516  0.6379
56889SOL    HW177528  11.478   3.989  10.794  0.9804  0.1886  0.9803
56889SOL    HW277529  11.453   3.950  10.938  1.0563  0.9113  1.1967
56890SOL     OW77530   6.470  11.056   2.913  0.4360  0.7364 -0.2333
56890SOL    HW177531   6.422  11.014   2.984  2.1112 -0.2846  0.3379
56890SOL    HW277532   6.460  10.996   2.838  2.1151 -0.3055  0.3416
56891SOL     OW77533   2.729   4.604   4.717 -0.4548 -0.5294  0.3190
56891SOL    HW177534   2.644   4.576   4.685 -0.9935  1.5937 -0.2831
56891SOL    HW277535   2.723   4.699   4.721  1.7524 -0.3466  0.6847
56892SOL     OW77536  11.229  11.067   5.200 -0.0431 -0.4412 -0.2304
56892SOL    HW177537  11.221  10.987   5.252  0.0073  0.3058  0.9694
56892SOL    HW277538  11.320  11.095   5.213 -0.0210 -0.2626 -0.7502
56893SOL     OW77539  11.729   7.117  10.049  0.3532  0.3647  0.1455
56893SOL    HW177540  11.719   7.023  10.063  2.7164 -0.1810 -1.2768
56893SOL    HW277541  11.642   7.153  10.068 -0.2594 -1.8786  2.1585
56894SOL     OW77542   9.765   4.731   5.056 -0.0229  0.0004  0.4526
56894SOL    HW177543   9.689   4.677   5.078  0.7624 -1.2418  0.2746
56894SOL    HW277544   9.792   4.698   4.970 -1.0840  2.5128 -0.9696
56895SOL     OW77545   5.262   4.921  10.221  0.0562 -0.4850 -0.3356
56895SOL    HW177546   5.230   5.010  10.204  1.8057  0.2651  0.0672
56895SOL    HW277547   5.284   4.887  10.134 -1.3760 -0.8624 -0.5763
56896SOL     OW77548  11.868   0.087   9.781  0.3103 -0.1112  0.3508
56896SOL    HW177549  11.947   0.106   9.832  0.7964 -1.3337  0.0872
56896SOL    HW277550  11.872   0.148   9.707 -0.7146  2.1074  2.0316
56897SOL     OW77551   5.980   8.054  10.070 -0.2549 -0.0082 -0.0297
56897SOL    HW177552   5.936   8.112  10.132  0.6877  0.8855 -0.1676
56897SOL    HW277553   6.071   8.053  10.099 -0.1538 -1.0384 -0.3371
56898SOL     OW77554   5.337   0.963   9.835  0.3646 -0.4802  0.4229
56898SOL    HW177555   5.418   0.915   9.819 -1.1336 -3.7593  1.5948
56898SOL    HW277556   5.327   0.961   9.931 -2.0796 -2.1857  0.2235
56899SOL     OW77557  11.107  11.606   5.141 -0.0118 -0.0408  0.1107
56899SOL    HW177558  11.026  11.656   5.140  0.1719  0.3040  1.1841
56899SOL    HW277559  11.081  11.517   5.164 -0.2782 -0.3538 -1.3053
56900SOL     OW77560   3.641  10.531  10.512  0.2264 -0.0133 -0.5740
56900SOL    HW177561   3.587  10.453  10.505  0.5299 -0.2972  0.2315
56900SOL    HW277562   3.664  10.537  10.604  0.5951  0.7655 -0.7067
56901SOL     OW77563  10.097   1.760   3.498  0.0084 -0.3434 -0.0989
56901SOL    HW177564  10.125   1.774   3.407 -0.1574 -0.7192 -0.2102
56901SOL    HW277565  10.095   1.847   3.536  0.4771 -0.2203 -0.3420
56902SOL     OW77566  12.390   6.993   8.156 -0.0544  0.5954 -0.6616
56902SOL    HW177567  12.396   7.057   8.085  0.9415 -0.0179 -1.1493
56902SOL    HW277568  12.477   6.992   8.195 -0.4412  0.5272  0.2303
56903SOL     OW77569   8.806   5.983  11.362  0.1084 -0.0688 -0.3376
56903SOL    HW177570   8.719   5.944  11.365  0.0065  0.1930  0.1776
56903SOL    HW277571   8.792   6.070  11.323  0.0345  0.2382  0.3609
56904SOL     OW77572   9.392  12.131   0.277 -0.0466  0.2582  0.2118
56904SOL    HW177573   9.379  12.036   0.273 -0.0482  0.1978  1.2989
56904SOL    HW277574   9.362  12.163   0.192 -1.6548 -0.5228  0.4504
56905SOL     OW77575   8.338   2.099  10.890 -0.4869  0.1680 -0.0135
56905SOL    HW177576   8.328   2.009  10.921 -0.5710  0.1128 -0.2026
56905SOL    HW277577   8.426   2.124  10.919  0.8125 -1.0379 -2.6239
56906SOL     OW77578   5.712   8.002   4.730 -0.5401 -0.0507  0.1806
56906SOL    HW177579   5.796   8.026   4.691  0.3272 -0.8245  1.5225
56906SOL    HW277580   5.649   8.062   4.688  0.6713  0.6211 -0.7569
56907SOL     OW77581   8.871   8.567   5.307 -0.4219 -0.2239  0.2410
56907SOL    HW177582   8.894   8.624   5.381  1.0246 -1.0930  0.4969
56907SOL    HW277583   8.918   8.485   5.323 -2.8042 -1.7149  0.1168
56908SOL     OW77584   7.060   2.806   8.636 -0.0400  1.0612  0.1492
56908SOL    HW177585   7.093   2.798   8.546 -0.7667 -0.9189 -0.0123
56908SOL    HW277586   6.980   2.858   8.627 -0.5751  0.1617 -0.5233
56909SOL     OW77587   1.781   6.030   8.212  0.2134  0.5224 -0.3939
56909SOL    HW177588   1.763   5.937   8.199 -1.4636  0.8870 -0.8405
56909SOL    HW277589   1.820   6.059   8.129 -1.4896  0.7174 -1.1613
56910SOL     OW77590   8.659   3.928  12.321  0.3085  0.5700 -0.1311
56910SOL    HW177591   8.617   3.855  12.276 -1.0109  1.5794 -0.6217
56910SOL    HW277592   8.657   3.905  12.414  0.6587 -0.3613 -0.3480
56911SOL     OW77593   8.141  12.266   5.415 -0.4537 -0.0339 -0.7478
56911SOL    HW177594   8.212  12.328   5.398 -0.7008  0.2257 -0.8450
56911SOL    HW277595   8.139  12.210   5.337 -1.0193  0.6093 -1.2177
56912SOL     OW77596   7.341  10.511   6.288 -0.5945  0.2556 -0.0471
56912SOL    HW177597   7.273  10.454   6.251  0.3010 -0.7669 -0.1564
56912SOL    HW277598   7.411  10.510   6.222  0.3186 -0.2465  0.8928
56913SOL     OW77599   8.958  10.069   2.095 -0.0318  0.4622  0.1924
56913SOL    HW177600   8.985  10.157   2.069 -3.8992  1.2651 -1.9326
56913SOL    HW277601   8.914  10.033   2.018 -2.2769 -1.6283  2.2533
56914SOL     OW77602   4.297   9.827   9.940 -0.0351  0.1264 -0.0255
56914SOL    HW177603   4.281   9.905   9.886  0.8132  0.2591 -0.0994
56914SOL    HW277604   4.369   9.852   9.997 -1.0229  0.0375  1.3098
56915SOL     OW77605  11.688   3.052  11.381 -0.0825  0.0926  0.2366
56915SOL    HW177606  11.653   2.970  11.346 -1.6961  0.1397  1.5822
56915SOL    HW277607  11.761   3.025  11.437  0.3539 -0.2667 -0.4910
56916SOL     OW77608  10.833   2.518   5.072 -0.1891  0.0697  0.6543
56916SOL    HW177609  10.921   2.554   5.080  0.7135 -1.7893 -0.3808
56916SOL    HW277610  10.794   2.564   4.997 -0.3612  1.3137  1.4723
56917SOL     OW77611   3.389   6.480   8.736 -0.2835  0.1169 -0.3060
56917SOL    HW177612   3.357   6.465   8.825  1.7734  0.7282  0.5987
56917SOL    HW277613   3.426   6.395   8.710 -2.0632 -0.4544 -1.1696
56918SOL     OW77614   0.012   5.564   5.977  0.6560  0.4626 -0.6064
56918SOL    HW177615  -0.066   5.519   5.944  0.5551 -0.0208  0.2689
56918SOL    HW277616   0.026   5.635   5.914 -0.8886  0.9692 -0.4272
56919SOL     OW77617   0.318   6.607   8.336 -0.4722  0.4882  0.0187
56919SOL    HW177618   0.272   6.666   8.395 -1.5358  0.5722 -0.8733
56919SOL    HW277619   0.306   6.520   8.374  2.5720  0.8988  2.3157
56920SOL     OW77620   7.769   5.258   9.640 -0.0900  0.4443  0.5853
56920SOL    HW177621   7.791   5.167   9.661 -1.1854  0.3849  1.5335
56920SOL    HW277622   7.675   5.258   9.626  0.0571  1.2257 -0.6327
56921SOL     OW77623   0.339   5.214   0.215 -0.1100  0.6844 -0.0999
56921SOL    HW177624   0.406   5.253   0.271 -0.4368  1.2824 -0.1204
56921SOL    HW277625   0.370   5.232   0.126  0.7862 -0.9018 -0.1445
56922SOL     OW77626   2.576   5.095   4.849  0.1422  0.5244 -0.5934
56922SOL    HW177627   2.526   5.067   4.926  1.4119  1.1174  0.4841
56922SOL    HW277628   2.627   5.170   4.880 -0.1879  1.5151 -2.3378
56923SOL     OW77629   6.697   1.184  11.860  0.1382 -0.0519 -0.2915
56923SOL    HW177630   6.790   1.198  11.871  0.0283  0.3840  0.1032
56923SOL    HW277631   6.684   1.091  11.879  0.0769  0.4790  2.5856
56924SOL     OW77632   0.961   7.126  11.181  0.1982  0.3003 -0.9657
56924SOL    HW177633   1.048   7.160  11.204 -0.2596  1.0956 -0.3662
56924SOL    HW277634   0.900   7.195  11.206 -0.6919 -0.6114 -0.5193
56925SOL     OW77635   7.761   6.035   1.194  0.4123 -0.6441 -0.2559
56925SOL    HW177636   7.680   6.084   1.180  0.3778 -0.1260  1.6094
56925SOL    HW277637   7.738   5.945   1.168 -1.1906 -0.7887  1.4277
56926SOL     OW77638  10.151   0.679   8.402  0.3206  0.1182 -0.0684
56926SOL    HW177639  10.232   0.628   8.392  0.8584  1.0986 -0.9421
56926SOL    HW277640  10.091   0.621   8.448  1.4535 -0.7123  0.4019
56927SOL     OW77641   9.286  10.733   2.393  0.5418 -0.5055 -0.0095
56927SOL    HW177642   9.325  10.791   2.458 -0.2322  0.8603 -0.7317
56927SOL    HW277643   9.300  10.645   2.428 -0.7143  0.2183  2.5021
56928SOL     OW77644  12.046   4.427   8.579 -0.5223 -0.6052 -0.0181
56928SOL    HW177645  12.085   4.471   8.504  0.0686  0.7844  1.0536
56928SOL    HW277646  12.054   4.490   8.651 -2.4763 -1.2702  0.8610
56929SOL     OW77647   3.581  12.017   0.952  0.0851  0.2546  0.0561
56929SOL    HW177648   3.506  11.967   0.985 -0.9308  0.9030 -1.1716
56929SOL    HW277649   3.566  12.106   0.985  0.1856  0.4353 -0.3802
56930SOL     OW77650  10.470   9.132   4.370  0.2837  0.3021  0.0335
56930SOL    HW177651  10.483   9.130   4.275  2.6118  1.1724  0.2720
56930SOL    HW277652  10.518   9.056   4.403 -1.9472 -1.0159  0.4550
56931SOL     OW77653   0.257   4.732   5.599  0.3051 -0.3064  0.1679
56931SOL    HW177654   0.322   4.748   5.668 -0.7410 -1.0249  1.3745
56931SOL    HW277655   0.307   4.735   5.517  1.7950 -0.5313  1.0326
56932SOL     OW77656   4.147   4.497  10.134 -0.3253  0.3228  0.1178
56932SOL    HW177657   4.121   4.498  10.042 -0.6247 -2.5120  0.0941
56932SOL    HW277658   4.191   4.581  10.147  0.6176  0.4024 -2.8536
56933SOL     OW77659   5.823   6.746   6.939 -0.0271 -0.3186 -0.3093
56933SOL    HW177660   5.787   6.820   6.890  0.9463  0.0850 -0.4345
56933SOL    HW277661   5.785   6.754   7.026  1.4707  1.4401  0.2569
56934SOL     OW77662   1.274   9.528   0.722 -0.0816 -0.0973 -0.3521
56934SOL    HW177663   1.243   9.451   0.674  1.7432 -1.0604 -0.0582
56934SOL    HW277664   1.242   9.515   0.812 -1.0404  0.2697 -0.6235
56935SOL     OW77665   7.776   6.302   2.256 -0.1692 -0.4524  0.0491
56935SOL    HW177666   7.742   6.368   2.316  1.2987 -0.0367  0.4634
56935SOL    HW277667   7.778   6.221   2.307 -0.8551 -0.5745 -0.0989
56936SOL     OW77668   0.406   6.979   4.602  0.5621  0.6789 -0.0887
56936SOL    HW177669   0.462   6.913   4.643  1.0586  0.6984 -0.7166
56936SOL    HW277670   0.382   6.942   4.517 -1.1547  0.2771  0.5430
56937SOL     OW77671   8.746  10.346  10.911 -0.0715 -0.6196 -0.4377
56937SOL    HW177672   8.789  10.306  10.836  1.2357 -0.8712  0.4185
56937SOL    HW277673   8.798  10.424  10.930 -0.0854 -0.8237  0.5042
56938SOL     OW77674   9.838   2.278   2.574 -0.2395 -0.5331  0.4762
56938SOL    HW177675   9.759   2.311   2.618 -0.2274  1.6878 -1.0241
56938SOL    HW277676   9.890   2.357   2.557  0.8757 -1.6036 -1.2980
56939SOL     OW77677   6.210   5.511   4.046 -0.9510  0.3437 -0.3569
56939SOL    HW177678   6.137   5.483   4.102  0.4448  0.0900  1.4142
56939SOL    HW277679   6.196   5.465   3.964 -1.8483 -1.0495  0.5405
56940SOL     OW77680  11.774   5.438   9.432  0.2819 -0.2750  0.3026
56940SOL    HW177681  11.809   5.385   9.360  0.7141  0.1800  0.1678
56940SOL    HW277682  11.846   5.498   9.454 -0.3364  0.5350  0.1701
56941SOL     OW77683   5.544   4.833   3.964 -0.1385  0.0222  0.3926
56941SOL    HW177684   5.490   4.759   3.935  0.8653 -0.6872  0.2803
56941SOL    HW277685   5.537   4.896   3.893 -0.8952 -0.0161  0.4229
56942SOL     OW77686   8.206   7.248   1.348 -0.1102 -0.4308  0.1861
56942SOL    HW177687   8.156   7.259   1.267  1.6692  1.8974 -0.7177
56942SOL    HW277688   8.162   7.305   1.411  0.6072  0.6552 -0.2588
56943SOL     OW77689   3.758   0.112   9.500 -0.1451  0.0373  0.1921
56943SOL    HW177690   3.756   0.075   9.588  0.6373 -0.4325  0.0270
56943SOL    HW277691   3.811   0.050   9.449 -1.1231 -0.0334 -0.7686
56944SOL     OW77692   5.391   7.504   6.869 -0.6386  0.0494  0.4784
56944SOL    HW177693   5.358   7.418   6.841  1.6075 -0.4593 -0.9189
56944SOL    HW277694   5.338   7.567   6.820  0.2874 -0.7196 -1.6419
56945SOL     OW77695   9.961   2.577   2.296  0.2400  0.4367 -0.6622
56945SOL    HW177696   9.882   2.527   2.273  0.1724  0.7781 -1.1947
56945SOL    HW277697  10.026   2.510   2.317 -0.0833  0.1437 -0.5893
56946SOL     OW77698   8.480   3.016  10.509  0.2416 -0.3475  0.1124
56946SOL    HW177699   8.448   2.927  10.498  0.9368 -0.5135 -0.7293
56946SOL    HW277700   8.516   3.018  10.597  0.8287 -1.1125 -0.0995
56947SOL     OW77701   8.844   5.239   3.268  0.0450  0.1951  0.0262
56947SOL    HW177702   8.918   5.180   3.260  0.6555  0.8980  0.3627
56947SOL    HW277703   8.787   5.216   3.194  1.2837  0.5911 -1.1064
56948SOL     OW77704  12.391   8.245   5.778  0.0940 -0.4731  0.2560
56948SOL    HW177705  12.430   8.319   5.731 -0.3865  0.1630  0.8251
56948SOL    HW277706  12.419   8.257   5.869 -0.9534 -0.2972  0.5771
56949SOL     OW77707   4.257   8.776   4.343  0.2606  0.5193 -0.9600
56949SOL    HW177708   4.189   8.732   4.393  0.1419  0.6636 -0.9937
56949SOL    HW277709   4.322   8.708   4.325 -0.8414 -0.1317 -2.7111
56950SOL     OW77710   6.422   0.228   2.999  0.1691 -0.9606  0.1994
56950SOL    HW177711   6.478   0.180   2.937 -1.7649 -0.7118 -1.8434
56950SOL    HW277712   6.357   0.164   3.027 -0.0541 -0.5697  0.5825
56951SOL     OW77713  10.590   7.999   3.732  0.3566 -0.4437 -0.3126
56951SOL    HW177714  10.532   8.076   3.730 -0.3255 -0.9507 -0.4602
56951SOL    HW277715  10.533   7.926   3.706  1.6832 -0.5646 -3.2577
56952SOL     OW77716   9.021   9.196   7.585 -0.5388  0.0096  0.2551
56952SOL    HW177717   9.099   9.154   7.548 -1.2461  0.0721 -1.3913
56952SOL    HW277718   9.023   9.172   7.678  0.6292 -1.2439 -0.0580
56953SOL     OW77719  11.113  10.619   9.660  0.1936  0.0611  0.1070
56953SOL    HW177720  11.108  10.680   9.734  0.1695  0.1880  0.0007
56953SOL    HW277721  11.178  10.659   9.601  0.5432 -0.2653  0.2674
56954SOL     OW77722   7.738   7.247  10.364  0.1729 -0.0563  0.2629
56954SOL    HW177723   7.718   7.298  10.443 -0.1793  0.9431 -0.4633
56954SOL    HW277724   7.810   7.190  10.391  0.7190  0.9604  1.0442
56955SOL     OW77725   9.579   6.055   7.938  0.2379 -0.3217 -0.4161
56955SOL    HW177726   9.527   5.990   7.891 -0.8962  0.2328  0.0487
56955SOL    HW277727   9.544   6.055   8.027  0.9022  0.2021 -0.1484
56956SOL     OW77728   9.571  11.403   6.854 -0.6358 -0.3604 -0.3433
56956SOL    HW177729   9.519  11.461   6.909  0.5207  1.1548 -0.7439
56956SOL    HW277730   9.509  11.365   6.793 -1.4805  0.2872  0.0942
56957SOL     OW77731   7.941  11.130   3.719  0.2496  0.2474 -0.5364
56957SOL    HW177732   7.982  11.044   3.710 -0.0053 -0.1377  1.5743
56957SOL    HW277733   7.857  11.113   3.762 -0.1428  1.4747 -0.7666
56958SOL     OW77734   8.384  10.960  12.438  0.2664 -0.6652  0.3786
56958SOL    HW177735   8.467  10.963  12.486 -0.1165 -1.2907  1.0862
56958SOL    HW277736   8.317  10.953  12.506 -0.3225 -0.8830 -0.2195
56959SOL     OW77737   3.565   8.590   1.711 -0.1095 -0.1625  0.0021
56959SOL    HW177738   3.653   8.554   1.703 -0.1858 -0.3716  0.0906
56959SOL    HW277739   3.511   8.536   1.653 -0.6663 -1.7027  1.8411
56960SOL     OW77740  10.439   4.244   2.484 -0.5865  0.5129 -0.3177
56960SOL    HW177741  10.428   4.194   2.404 -0.3765 -0.5550  0.3108
56960SOL    HW277742  10.352   4.244   2.525 -0.6135  0.7701 -0.3703
56961SOL     OW77743  11.403   9.766  10.919 -0.5976 -0.2268 -0.0663
56961SOL    HW177744  11.321   9.727  10.891 -1.5184  0.4493  1.5314
56961SOL    HW277745  11.427   9.827  10.849 -0.9577 -1.1112 -0.9674
56962SOL     OW77746   9.960   9.225  11.742  0.3325 -0.9403 -0.0638
56962SOL    HW177747  10.035   9.202  11.797  0.8840 -0.6184 -0.6691
56962SOL    HW277748   9.930   9.142  11.705  1.5489 -0.8799 -1.2682
56963SOL     OW77749   4.315   0.764  11.879 -1.0979 -0.0291 -0.0984
56963SOL    HW177750   4.363   0.696  11.926 -1.1041  0.4055  0.5535
56963SOL    HW277751   4.356   0.767  11.792  0.1383  0.4018  0.4756
56964SOL     OW77752   3.190   0.174   1.147  0.8029 -0.3975 -0.1013
56964SOL    HW177753   3.142   0.231   1.208  1.0864  0.3820 -0.5947
56964SOL    HW277754   3.157   0.086   1.166 -1.7769  0.2393 -1.2733
56965SOL     OW77755   1.210  10.184  11.974  0.2023  0.7748  0.1600
56965SOL    HW177756   1.229  10.277  11.988  2.0798  0.6128 -0.9718
56965SOL    HW277757   1.246  10.141  12.051 -0.4556  0.9551  0.5733
56966SOL     OW77758   4.301  11.626   4.435 -0.1297  0.4115  0.2734
56966SOL    HW177759   4.214  11.585   4.436  0.9119 -2.1558 -1.5032
56966SOL    HW277760   4.356  11.566   4.486  1.2422  0.1373 -1.4303
56967SOL     OW77761   8.126   6.386   7.504 -0.4631 -0.5217 -0.0209
56967SOL    HW177762   8.168   6.368   7.588  0.2611 -0.1626 -0.2942
56967SOL    HW277763   8.154   6.475   7.482 -0.5797 -0.6453 -0.6808
56968SOL     OW77764   4.092   5.585   9.303  0.2453  0.2573 -0.2476
56968SOL    HW177765   4.071   5.606   9.212 -0.0303  0.0874 -0.2221
56968SOL    HW277766   4.060   5.496   9.315  0.1058  0.3522  0.0738
56969SOL     OW77767   1.119   0.497   3.316 -0.4395  0.0083 -0.7800
56969SOL    HW177768   1.055   0.558   3.351  1.8803  3.0460 -1.4366
56969SOL    HW277769   1.194   0.504   3.374  0.2472 -1.5843 -1.4066
56970SOL     OW77770  10.167   7.501   5.698  0.0078 -0.0597  0.2176
56970SOL    HW177771  10.159   7.521   5.605 -0.4449 -0.0089  0.2654
56970SOL    HW277772  10.179   7.406   5.701  0.7492  0.0205  0.0710
56971SOL     OW77773  12.130   3.273   2.471  0.4435 -0.3884 -0.3613
56971SOL    HW177774  12.081   3.251   2.550  1.0000 -1.0750 -0.1992
56971SOL    HW277775  12.147   3.367   2.479 -1.9003  0.1661 -1.0255
56972SOL     OW77776   3.593   6.759   3.030  0.3759  0.6893 -0.2790
56972SOL    HW177777   3.665   6.800   2.983  1.7180 -0.5842  0.5564
56972SOL    HW277778   3.611   6.778   3.122 -0.5317  0.6116 -0.0793
56973SOL     OW77779  10.169   7.900   5.857 -0.4336  0.2183 -0.4032
56973SOL    HW177780  10.199   7.981   5.817  0.3434 -0.6832 -1.7431
56973SOL    HW277781  10.073   7.906   5.855 -0.3887  0.8108 -1.1130
56974SOL     OW77782  10.285   3.296   9.809  0.7074 -0.6295 -0.4802
56974SOL    HW177783  10.190   3.292   9.797  0.9014  0.0148 -2.7353
56974SOL    HW277784  10.298   3.363   9.876 -0.4320 -1.2591  0.4113
56975SOL     OW77785   5.809   6.141   9.123  0.2379  0.3438 -0.6023
56975SOL    HW177786   5.735   6.125   9.182  0.2449 -0.0089 -0.6861
56975SOL    HW277787   5.804   6.069   9.059 -0.7164  1.5921 -1.9881
56976SOL     OW77788   0.783   5.145   6.756 -0.0940 -0.2106 -0.3825
56976SOL    HW177789   0.825   5.102   6.682  1.0437  2.2346 -1.2528
56976SOL    HW277790   0.843   5.130   6.829  0.2382 -0.1887 -0.6484
56977SOL     OW77791   3.753   7.642  10.971 -0.0289 -0.1986  0.9105
56977SOL    HW177792   3.756   7.738  10.973 -0.6673 -0.1798  1.1551
56977SOL    HW277793   3.844   7.615  10.989  0.1142  0.3563  1.0475
56978SOL     OW77794   6.014   4.039   0.258 -0.3683  0.1237 -0.0331
56978SOL    HW177795   5.927   4.034   0.219  0.5724 -0.9987 -2.1931
56978SOL    HW277796   6.031   3.951   0.291 -0.4397  0.6142  1.3778
56979SOL     OW77797   6.191   4.803   0.912 -0.1224  0.4008 -0.8370
56979SOL    HW177798   6.249   4.874   0.941  1.1792 -0.6123 -0.8835
56979SOL    HW277799   6.148   4.838   0.834 -0.9910  1.8443  0.2325
56980SOL     OW77800  11.223   8.625   8.311 -0.5281  0.0620 -1.1199
56980SOL    HW177801  11.167   8.625   8.233 -0.8607  0.0028 -0.8828
56980SOL    HW277802  11.280   8.701   8.300 -2.6564  1.9204  0.0455
56981SOL     OW77803   9.146   2.084   4.183  0.5787  0.2965  0.5302
56981SOL    HW177804   9.064   2.044   4.154 -1.0280  2.8196  1.1783
56981SOL    HW277805   9.194   2.014   4.225 -2.1340 -0.9351  1.8303
56982SOL     OW77806   5.343  10.998   7.322 -0.2477 -0.1974  0.2084
56982SOL    HW177807   5.411  11.059   7.349  1.7088 -2.2540  0.2115
56982SOL    HW277808   5.316  10.955   7.403 -1.2212  0.2318  0.1298
56983SOL     OW77809  11.726   2.474   4.455  0.3637  0.6143  0.1499
56983SOL    HW177810  11.668   2.417   4.404  1.3329 -0.0722 -0.2187
56983SOL    HW277811  11.690   2.472   4.543  1.0462 -1.5742  0.4351
56984SOL     OW77812   2.583   7.940   4.936 -0.0717  0.5451  0.8911
56984SOL    HW177813   2.593   7.948   4.841  1.7115  1.0473  1.0783
56984SOL    HW277814   2.578   7.846   4.951  1.2596  0.3606  0.3883
56985SOL     OW77815  10.131  10.948   5.251 -0.4826  0.4776 -0.1830
56985SOL    HW177816  10.108  11.029   5.205 -1.8165  0.1372 -0.1714
56985SOL    HW277817  10.178  10.895   5.187 -1.8343  0.2369 -1.0018
56986SOL     OW77818   6.909   8.887   6.875 -0.0876 -0.2786  0.1925
56986SOL    HW177819   6.874   8.931   6.798  1.9371 -1.5030 -1.5470
56986SOL    HW277820   6.957   8.956   6.922  0.0103  0.1466 -0.5250
56987SOL     OW77821   3.874   5.264   6.684 -0.3172 -0.1175 -0.2779
56987SOL    HW177822   3.869   5.172   6.711 -0.5053 -0.1986 -0.5933
56987SOL    HW277823   3.930   5.264   6.607 -0.7203 -0.0313 -0.5740
56988SOL     OW77824   0.768   6.836   3.267  0.2907  0.2335 -0.2899
56988SOL    HW177825   0.771   6.912   3.324 -0.3932  0.5697 -0.6952
56988SOL    HW277826   0.855   6.795   3.276  0.1708  0.2402  1.0317
56989SOL     OW77827  11.804   8.595   6.857  0.7172 -0.3730 -0.3344
56989SOL    HW177828  11.796   8.688   6.876  0.4398 -0.6362  0.9380
56989SOL    HW277829  11.879   8.589   6.797  0.2516  0.7308 -1.0505
56990SOL     OW77830   8.385   5.590   5.710  0.1298 -0.2160  0.4594
56990SOL    HW177831   8.459   5.632   5.755 -1.0301  0.5899  1.6708
56990SOL    HW277832   8.417   5.576   5.621  0.9612  2.2880  0.2785
56991SOL     OW77833   9.579   0.806   0.398 -0.4014  0.3854 -0.0465
56991SOL    HW177834   9.559   0.822   0.305  0.6249 -0.0978 -0.3644
56991SOL    HW277835   9.533   0.725   0.418 -1.9181  1.2927  0.3260
56992SOL     OW77836   4.969   9.910  10.838 -0.2788 -0.4228 -0.3674
56992SOL    HW177837   4.958  10.005  10.835 -0.7815 -0.4427  0.6831
56992SOL    HW277838   4.984   9.890  10.930 -1.4478 -1.4924 -0.3875
56993SOL     OW77839   2.826   9.615  11.133  0.6636  0.4518 -0.1140
56993SOL    HW177840   2.780   9.631  11.215  0.0163  0.3674 -0.4538
56993SOL    HW277841   2.827   9.519  11.125  0.1441  0.4733 -0.5184
56994SOL     OW77842   9.038   2.244   6.220  0.1271 -0.4097  0.2312
56994SOL    HW177843   8.953   2.202   6.237  0.1449 -1.5781 -2.1788
56994SOL    HW277844   9.093   2.174   6.185  1.5201  0.7448  0.0255
56995SOL     OW77845   2.321   3.919   6.445  0.6152 -0.0670  0.3831
56995SOL    HW177846   2.226   3.923   6.433  0.3048 -2.1795  1.5980
56995SOL    HW277847   2.357   3.918   6.357 -0.3997  1.6582 -0.0893
56996SOL     OW77848   1.216   5.660   3.867 -0.3126  0.2617 -0.7610
56996SOL    HW177849   1.269   5.667   3.787  0.8338  1.0901  0.0408
56996SOL    HW277850   1.279   5.670   3.938 -1.3421 -0.3131  0.2498
56997SOL     OW77851   4.767   7.527   2.273 -0.0255 -0.1319 -0.6853
56997SOL    HW177852   4.764   7.617   2.304  1.9145 -0.4552  0.6144
56997SOL    HW277853   4.847   7.522   2.220  0.6554 -1.3725  0.3915
56998SOL     OW77854  10.266   8.799   4.930 -0.2124  0.7405  0.2001
56998SOL    HW177855  10.175   8.787   4.904  0.3436 -0.8948 -1.2230
56998SOL    HW277856  10.278   8.740   5.004  0.1425 -0.6533 -0.9026
56999SOL     OW77857   6.931   4.445   0.936 -0.1027 -0.0054 -0.3580
56999SOL    HW177858   6.902   4.493   0.858  0.2380  1.9653  0.6633
56999SOL    HW277859   7.021   4.475   0.950 -0.5541  0.6256  1.4608
57000SOL     OW77860   2.331   2.792   9.207 -0.2874  0.0125 -0.2989
57000SOL    HW177861   2.319   2.825   9.118 -0.5805  1.0351  0.1055
57000SOL    HW277862   2.422   2.763   9.210 -0.3804 -0.3663 -1.0401
57001SOL     OW77863   7.395  11.086   9.862 -0.2260 -0.0462 -0.3334
57001SOL    HW177864   7.300  11.092   9.874 -0.5171 -1.4899 -1.6715
57001SOL    HW277865   7.411  11.122   9.775  0.4271 -0.0826 -0.2332
57002SOL     OW77866  10.185   6.845  11.182  0.7020  0.7707 -0.3178
57002SOL    HW177867  10.279   6.862  11.191  1.3766 -0.6969 -3.3305
57002SOL    HW277868  10.178   6.782  11.109 -2.5917  0.4022  0.1389
57003SOL     OW77869   2.652   4.268   9.144 -0.0616  0.0568 -0.2425
57003SOL    HW177870   2.603   4.192   9.114  0.7297 -0.9992  1.0444
57003SOL    HW277871   2.685   4.244   9.231  0.9451  1.5283 -0.1642
57004SOL     OW77872  10.196   6.140  11.864 -0.3531 -0.2194  0.0734
57004SOL    HW177873  10.122   6.129  11.804 -0.7605 -0.0848  0.5430
57004SOL    HW277874  10.252   6.063  11.847 -1.6123 -1.4273  1.1247
57005SOL     OW77875  10.536   0.567   8.345  0.3554 -0.7134  0.1294
57005SOL    HW177876  10.568   0.480   8.322 -0.0842 -1.0123  0.6076
57005SOL    HW277877  10.448   0.551   8.380 -0.1928  0.0394 -0.8324
57006SOL     OW77878   1.273  11.226   1.269 -0.6112  0.6336  0.0975
57006SOL    HW177879   1.329  11.303   1.276  1.3749 -0.6581 -0.6722
57006SOL    HW277880   1.244  11.226   1.178  1.7380 -0.9753 -0.7392
57007SOL     OW77881   6.086   3.513   5.781 -0.2534  0.4363 -0.0562
57007SOL    HW177882   6.104   3.587   5.838 -1.4398 -0.3161  1.3621
57007SOL    HW277883   6.020   3.462   5.827  0.6344 -1.6097 -0.9071
57008SOL     OW77884  12.415   6.133   9.697  0.2130 -0.1365  0.4657
57008SOL    HW177885  12.402   6.082   9.777 -2.4066 -2.5822 -1.2948
57008SOL    HW277886  12.342   6.195   9.696  0.5716  0.2890  0.2367
57009SOL     OW77887  10.539   1.767   0.033  0.1767 -0.2610  0.1857
57009SOL    HW177888  10.617   1.743  -0.017 -0.2372  1.2741 -1.2566
57009SOL    HW277889  10.572   1.786   0.121  1.4364  0.3163 -0.3920
57010SOL     OW77890  11.177  10.159   6.660  0.4540 -0.7193 -0.0901
57010SOL    HW177891  11.187  10.154   6.565  0.2859  0.9740 -0.2176
57010SOL    HW277892  11.261  10.192   6.691 -0.0338  0.2893  0.1830
57011SOL     OW77893   7.619   8.881  12.318  0.1071 -0.0390 -0.3736
57011SOL    HW177894   7.532   8.873  12.357 -0.3460  1.9640 -0.8196
57011SOL    HW277895   7.619   8.819  12.246 -1.3385  0.5893 -0.9609
57012SOL     OW77896   7.404  12.364  11.009 -0.3578 -0.3356 -0.1006
57012SOL    HW177897   7.309  12.373  11.015 -0.3271  1.0308 -1.1383
57012SOL    HW277898   7.438  12.436  11.062 -0.0011  1.7861 -2.9737
57013SOL     OW77899   6.038   9.073   5.848 -0.0861 -1.0201 -0.2394
57013SOL    HW177900   5.946   9.084   5.822  0.4233 -2.1272 -2.7889
57013SOL    HW277901   6.035   9.073   5.944 -2.5324  0.4523 -0.2043
57014SOL     OW77902   6.836   4.536  11.495  0.5205  0.2289 -0.1401
57014SOL    HW177903   6.774   4.477  11.452 -0.1038  1.6429 -1.2453
57014SOL    HW277904   6.899   4.477  11.538 -0.0634 -1.2372 -1.2130
57015SOL     OW77905  10.338   7.546  12.030  0.1753  0.1467 -0.0485
57015SOL    HW177906  10.363   7.530  12.120 -1.0988 -0.6716  0.1897
57015SOL    HW277907  10.335   7.459  11.989  1.8164  0.5811 -1.2126
57016SOL     OW77908   9.993  10.294   5.795 -0.1656 -0.5133  0.1242
57016SOL    HW177909  10.037  10.362   5.846 -3.5097  1.6066  0.4628
57016SOL    HW277910   9.975  10.336   5.711 -3.5095 -0.3310  0.8092
57017SOL     OW77911  11.485   3.726   6.797 -0.2546  0.0310 -0.1352
57017SOL    HW177912  11.517   3.669   6.867 -1.1868 -1.0209 -0.5264
57017SOL    HW277913  11.528   3.810   6.813 -1.5279  0.2726  2.5593
57018SOL     OW77914   1.069  10.140  10.695  0.2214 -0.3502  0.1058
57018SOL    HW177915   1.098  10.057  10.734  0.3463  0.1167  1.0362
57018SOL    HW277916   1.110  10.141  10.609  0.7825 -0.9419  0.3494
57019SOL     OW77917   9.752   3.283   9.424 -0.3737 -0.2431 -0.1449
57019SOL    HW177918   9.785   3.346   9.488 -1.2131  1.4747 -1.2895
57019SOL    HW277919   9.824   3.222   9.410  0.4475  0.4035  1.1128
57020SOL     OW77920   3.833   2.761   8.142  0.4733 -0.0033  0.0990
57020SOL    HW177921   3.771   2.703   8.187 -0.4949  1.0613  0.1916
57020SOL    HW277922   3.919   2.722   8.158  0.4566  1.1696  4.3620
57021SOL     OW77923   8.289   6.933   2.360 -0.2586 -0.5044 -0.2869
57021SOL    HW177924   8.284   6.958   2.268 -1.1957  1.7757  0.3074
57021SOL    HW277925   8.327   6.845   2.359 -0.7872 -0.7887 -2.8547
57022SOL     OW77926   0.312   8.766   2.064 -0.0677 -0.0911 -0.0631
57022SOL    HW177927   0.285   8.696   2.124 -1.8767 -0.8482 -1.6153
57022SOL    HW277928   0.339   8.720   1.985  0.6428  0.9307 -0.4365
57023SOL     OW77929   2.936   1.802  11.649 -0.3445  0.1058  0.1719
57023SOL    HW177930   2.841   1.808  11.647 -0.3243  0.3598 -0.1476
57023SOL    HW277931   2.966   1.893  11.648 -0.0910  0.0235 -0.5204
57024SOL     OW77932  10.295   0.804  11.429  0.4709 -0.3754  0.2082
57024SOL    HW177933  10.247   0.819  11.348  0.8125  2.8130  0.4732
57024SOL    HW277934  10.383   0.778  11.401  0.7548  1.2604 -0.5225
57025SOL     OW77935  10.426   6.753   3.650 -0.0712 -0.5951 -0.4235
57025SOL    HW177936  10.459   6.834   3.612 -0.3840 -0.8037 -1.1739
57025SOL    HW277937  10.346   6.735   3.600 -1.4710  0.0169  1.4598
57026SOL     OW77938   2.376   5.465   8.394  0.5387 -0.0210 -0.1771
57026SOL    HW177939   2.440   5.476   8.324 -0.4287  1.6175 -0.8492
57026SOL    HW277940   2.384   5.544   8.447 -0.1777 -0.2980  0.3669
57027SOL     OW77941   3.740   8.327   6.814 -0.3615 -0.0307  0.2595
57027SOL    HW177942   3.827   8.290   6.799 -1.5310 -2.2549 -1.8660
57027SOL    HW277943   3.699   8.266   6.876 -0.8635  0.1496  0.1104
57028SOL     OW77944   0.864   5.483  12.082  0.0822 -0.0785 -0.3288
57028SOL    HW177945   0.814   5.422  12.028 -0.3700  0.4995 -0.5728
57028SOL    HW277946   0.955   5.453  12.073  0.3945  1.3636 -3.3689
57029SOL     OW77947   0.945   4.207   3.716 -0.1727  0.3650 -0.4694
57029SOL    HW177948   1.026   4.157   3.723  1.7335  2.9987 -1.8170
57029SOL    HW277949   0.899   4.169   3.641  1.1538  0.4824 -1.3680
57030SOL     OW77950   6.025   2.274   9.831 -0.0785  0.0962  0.0390
57030SOL    HW177951   5.973   2.208   9.877  0.3789 -0.0927  0.2850
57030SOL    HW277952   6.005   2.258   9.738 -1.0676  0.5394  0.1655
57031SOL     OW77953  10.836   8.601   9.197  0.4129  0.2308  0.4122
57031SOL    HW177954  10.779   8.662   9.149 -1.0073 -0.1784  1.5135
57031SOL    HW277955  10.865   8.651   9.274  0.0300 -0.1668  0.8161
57032SOL     OW77956   9.724   9.950   6.846  0.7327  0.0454  0.0945
57032SOL    HW177957   9.699   9.858   6.855  1.4845 -0.2532 -0.7586
57032SOL    HW277958   9.643   9.998   6.864  0.2900 -0.7802  0.3943
57033SOL     OW77959   8.806  11.205   5.085 -0.4053  0.0789  0.4630
57033SOL    HW177960   8.728  11.241   5.044 -0.2817  0.8874  0.9230
57033SOL    HW277961   8.794  11.110   5.080 -1.2039  0.1899  0.1414
57034SOL     OW77962  11.638   2.306   6.074 -0.0970  0.1326  0.0406
57034SOL    HW177963  11.617   2.259   5.993 -0.7840  0.2299  0.1562
57034SOL    HW277964  11.617   2.397   6.056 -0.0783  0.1840  0.2676
57035SOL     OW77965   4.156   0.842   1.663  0.2474 -0.3852  0.2709
57035SOL    HW177966   4.238   0.891   1.668  1.2052 -1.7870 -0.8397
57035SOL    HW277967   4.090   0.902   1.699  1.3684  1.6280 -0.8336
57036SOL     OW77968   0.808   5.272  10.452 -0.1204 -0.3812  0.4270
57036SOL    HW177969   0.824   5.361  10.483  3.0021 -0.9996  0.9339
57036SOL    HW277970   0.765   5.228  10.526 -0.3699  0.3239  0.7085
57037SOL     OW77971   0.801   5.094   6.211 -0.3500 -0.5400  0.2014
57037SOL    HW177972   0.795   5.189   6.197  0.1214 -0.8497 -2.7478
57037SOL    HW277973   0.710   5.064   6.211 -0.4500 -0.2559 -0.5160
57038SOL     OW77974   8.377   1.254   4.449 -0.0882  0.6172 -0.5203
57038SOL    HW177975   8.456   1.238   4.397 -1.0137  0.7026 -2.0194
57038SOL    HW277976   8.409   1.296   4.529  1.6741 -2.0583  0.3112
57039SOL     OW77977   3.110   6.089   0.466  0.4759  0.0550 -0.6455
57039SOL    HW177978   3.110   6.044   0.382  0.9023  0.9337 -1.1181
57039SOL    HW277979   3.198   6.073   0.502  0.3217 -0.2512 -0.3965
57040SOL     OW77980   9.232   0.455   4.057 -0.4066  0.1384 -0.2888
57040SOL    HW177981   9.300   0.390   4.072 -1.4964 -0.7328  1.0976
57040SOL    HW277982   9.280   0.537   4.041  0.9649 -0.8308 -1.4317
57041SOL     OW77983   3.050  11.264   1.191 -0.6167 -0.3436 -0.1927
57041SOL    HW177984   3.113  11.193   1.203  1.1334  0.9746 -1.2038
57041SOL    HW277985   3.007  11.245   1.108  0.8815  0.4719 -1.1982
57042SOL     OW77986   4.789   6.166   3.515 -0.1805  0.2693  0.0443
57042SOL    HW177987   4.706   6.126   3.487 -0.0760 -0.4450  0.7301
57042SOL    HW277988   4.842   6.168   3.435 -0.4273 -0.3605 -0.1414
57043SOL     OW77989   9.670   8.383  11.473 -0.6714  0.3754  0.7375
57043SOL    HW177990   9.581   8.384  11.440  0.1122 -0.2582 -1.5891
57043SOL    HW277991   9.701   8.473  11.461 -0.3206  0.0985 -0.5297
57044SOL     OW77992   2.664   6.378  10.447  0.6684  0.3517 -0.1578
57044SOL    HW177993   2.645   6.472  10.458  2.0903  0.6443  0.0224
57044SOL    HW277994   2.759   6.373  10.451  0.5700 -1.2768  1.0722
57045SOL     OW77995   7.423   7.038   7.583 -0.4667 -0.1010  0.6458
57045SOL    HW177996   7.502   6.986   7.586 -0.3591 -0.2582 -2.1992
57045SOL    HW277997   7.353   6.978   7.612 -0.0698 -1.2060 -0.6128
57046SOL     OW77998   4.875   2.141   1.251 -0.1748 -0.1903 -0.3645
57046SOL    HW177999   4.810   2.156   1.183  0.4723 -1.1946 -1.2467
57046SOL    HW278000   4.888   2.226   1.291 -1.2890  0.2238 -0.8394
57047SOL     OW78001   2.264   5.191   6.458 -0.4544  0.0040  0.0166
57047SOL    HW178002   2.206   5.115   6.466 -0.5442  0.1082  0.3870
57047SOL    HW278003   2.262   5.232   6.545 -1.1865  0.9923 -0.4360
57048SOL     OW78004  11.511   2.666   5.172 -0.0622  0.1008  0.1694
57048SOL    HW178005  11.528   2.574   5.192  1.1272  0.4506  0.9188
57048SOL    HW278006  11.482   2.704   5.255 -0.7999  0.3586 -0.1946
57049SOL     OW78007   6.921   4.466   5.501 -0.2700 -0.1453 -0.1208
57049SOL    HW178008   6.932   4.503   5.413  1.4499  0.8076  0.4370
57049SOL    HW278009   6.862   4.527   5.545  0.9886  0.9215  0.1739
57050SOL     OW78010   7.317   7.742   7.273 -0.1433 -0.3041 -0.0994
57050SOL    HW178011   7.340   7.649   7.265  0.9900 -0.0100 -0.4399
57050SOL    HW278012   7.271   7.763   7.192 -1.9957 -0.9790  0.7230
57051SOL     OW78013   1.229   6.135   2.788 -0.1363  0.6167 -0.0014
57051SOL    HW178014   1.315   6.158   2.752 -0.2044  0.1619 -0.4712
57051SOL    HW278015   1.219   6.192   2.864  0.5528  0.7274  0.0168
57052SOL     OW78016   7.269   5.176   5.141  0.2766  0.0526  0.1177
57052SOL    HW178017   7.338   5.129   5.095  1.0093 -0.6163  1.8084
57052SOL    HW278018   7.192   5.119   5.133 -0.1076  0.7496 -1.6760
57053SOL     OW78019   6.039   0.148   2.386 -0.3376  0.3928 -0.6784
57053SOL    HW178020   6.009   0.124   2.299  1.6706  1.7534 -1.8222
57053SOL    HW278021   6.079   0.068   2.420 -2.6940 -0.6745 -0.1793
57054SOL     OW78022   8.195   7.040   4.470 -0.4009  0.2248 -0.6576
57054SOL    HW178023   8.253   6.974   4.509  1.7664  0.8407 -2.6833
57054SOL    HW278024   8.191   7.110   4.535 -0.9516 -0.8858  0.5593
57055SOL     OW78025   9.606  10.923   3.524 -0.0886 -0.5006  0.1170
57055SOL    HW178026   9.575  10.993   3.581 -1.8319 -0.8006 -0.4092
57055SOL    HW278027   9.662  10.967   3.460 -0.2024  0.2239  0.5056
57056SOL     OW78028   8.177  11.006   0.717 -0.4789 -0.3750  0.0356
57056SOL    HW178029   8.149  10.915   0.707  1.0609 -1.0016  1.0206
57056SOL    HW278030   8.110  11.045   0.774  0.0240 -1.5476  1.5009
57057SOL     OW78031   2.322   8.547   9.201 -0.1556  0.0268  0.3121
57057SOL    HW178032   2.258   8.479   9.221 -0.8034  0.2969 -0.7368
57057SOL    HW278033   2.303   8.572   9.111  0.4861  1.1465  0.4652
57058SOL     OW78034  10.569   6.555   5.145  0.3169  0.0546  0.2389
57058SOL    HW178035  10.627   6.631   5.145 -0.3835  0.6240 -1.1856
57058SOL    HW278036  10.628   6.479   5.138  0.9768  0.4953  0.8930
57059SOL     OW78037  11.572   8.034   6.862  0.4683  0.0820 -0.1266
57059SOL    HW178038  11.533   8.103   6.808  0.6074  0.6797  0.5251
57059SOL    HW278039  11.550   8.058   6.951  0.7069 -0.6110  0.1270
57060SOL     OW78040  11.801   5.912   5.992 -0.4313 -0.1849 -0.0547
57060SOL    HW178041  11.768   5.991   6.034  1.0670 -0.6527  2.2043
57060SOL    HW278042  11.722   5.865   5.963 -1.3535  1.8660 -1.0746
57061SOL     OW78043   0.368  10.694   5.555  0.0248 -0.2885 -0.7058
57061SOL    HW178044   0.415  10.707   5.473 -1.3616  3.6592 -1.0660
57061SOL    HW278045   0.285  10.740   5.543 -1.3128 -1.7194  2.0676
57062SOL     OW78046   7.051   4.712  10.785  0.0355 -0.2102 -0.1334
57062SOL    HW178047   6.962   4.677  10.781  0.5024 -1.3605 -1.3433
57062SOL    HW278048   7.104   4.640  10.820  0.5529  0.3394  0.2454
57063SOL     OW78049   8.052   5.415   8.606  0.4837  0.3110  0.0547
57063SOL    HW178050   7.974   5.384   8.560 -0.6268  0.7931  1.5482
57063SOL    HW278051   8.112   5.443   8.536 -1.1303  1.0023 -1.0992
57064SOL     OW78052   9.426   3.117   2.125 -0.3053  0.1243 -0.6550
57064SOL    HW178053   9.470   3.164   2.197  0.9432 -0.0063 -1.2941
57064SOL    HW278054   9.393   3.037   2.165 -0.8138  0.6805  0.0545
57065SOL     OW78055   0.593   3.989   3.446  0.5812 -0.1929 -0.1709
57065SOL    HW178056   0.679   4.012   3.411  0.4763 -0.6228 -0.7217
57065SOL    HW278057   0.587   4.039   3.528  0.9584  0.5848 -0.6014
57066SOL     OW78058   2.189   3.313   0.865  0.8864  0.5580 -0.2904
57066SOL    HW178059   2.130   3.331   0.792 -0.6558 -0.2291  0.7015
57066SOL    HW278060   2.131   3.299   0.939  2.2843 -1.0708  0.5563
57067SOL     OW78061   5.699  10.348  11.061 -0.7538  0.0166 -0.1146
57067SOL    HW178062   5.717  10.265  11.016  2.4528  1.0517 -1.0101
57067SOL    HW278063   5.653  10.401  10.996 -2.2737 -0.8124  0.2548
57068SOL     OW78064   1.257   7.764   0.741 -0.4160  0.2823  0.1293
57068SOL    HW178065   1.334   7.802   0.700  2.5790 -1.6526  3.3979
57068SOL    HW278066   1.242   7.817   0.820 -1.5373 -0.2409  0.2997
57069SOL     OW78067  12.142   6.589   2.979  0.8085 -0.4825  0.0913
57069SOL    HW178068  12.066   6.646   2.964  0.8092 -0.5701 -0.2556
57069SOL    HW278069  12.215   6.635   2.937  0.9741 -0.3419  0.5231
57070SOL     OW78070  11.022   5.738   0.639  0.3452  0.6433 -0.3687
57070SOL    HW178071  11.016   5.646   0.615  0.9039  0.8061 -1.1574
57070SOL    HW278072  10.934   5.772   0.621  0.2339  0.3437 -0.4036
57071SOL     OW78073   1.210   1.199   1.081  0.0368 -0.7373  0.1497
57071SOL    HW178074   1.246   1.234   1.000 -1.3574 -0.1424 -0.2433
57071SOL    HW278075   1.191   1.276   1.135 -1.0047 -0.9910  0.1704
57072SOL     OW78076   1.200  11.406   4.297 -0.3638  0.4614 -0.6788
57072SOL    HW178077   1.253  11.328   4.314 -1.0738 -0.2825 -1.7748
57072SOL    HW278078   1.212  11.460   4.376  0.3292 -0.6291 -0.0012
57073SOL     OW78079   8.009   1.247   7.472  0.4489  0.2120  0.0906
57073SOL    HW178080   7.952   1.320   7.447 -0.9548 -0.7764  0.3232
57073SOL    HW278081   7.963   1.204   7.544  1.9030 -0.1199  0.8666
57074SOL     OW78082   0.303   6.695   3.669  0.2635  0.6020 -0.0293
57074SOL    HW178083   0.365   6.626   3.644 -0.5611 -0.2730  0.2921
57074SOL    HW278084   0.324   6.767   3.610 -1.3871 -1.2599 -3.1650
57075SOL     OW78085   1.286   5.859   2.871  0.3718  0.0473 -0.4120
57075SOL    HW178086   1.272   5.942   2.825 -0.2294  1.1586  1.6811
57075SOL    HW278087   1.205   5.844   2.920  1.1380 -0.8480  0.6353
57076SOL     OW78088  12.263   1.954   4.489 -0.6073  0.9549  0.4170
57076SOL    HW178089  12.223   1.869   4.508  0.5046  0.7012  1.7283
57076SOL    HW278090  12.192   2.017   4.503 -0.9301  0.4011  1.3450
57077SOL     OW78091   5.264   1.712   2.021 -0.2767  0.8251 -0.2624
57077SOL    HW178092   5.187   1.731   1.967  0.0470  1.2511 -0.5813
57077SOL    HW278093   5.336   1.708   1.959 -0.0207  0.5382  0.0495
57078SOL     OW78094   5.583   9.810   4.615 -0.4069  0.3995  0.0729
57078SOL    HW178095   5.641   9.881   4.587  1.2157 -1.8595 -2.9306
57078SOL    HW278096   5.637   9.756   4.673  0.2551 -1.0874 -1.8135
57079SOL     OW78097   9.185  10.444   6.107  0.4118 -0.4331 -0.5502
57079SOL    HW178098   9.226  10.361   6.080 -0.9494 -0.8998 -1.2892
57079SOL    HW278099   9.203  10.451   6.200  0.4592 -1.6332 -0.4565
57080SOL     OW78100   4.141   0.237   2.502  0.0398  0.1598 -0.9141
57080SOL    HW178101   4.060   0.251   2.453 -1.8078  1.6366  2.1749
57080SOL    HW278102   4.183   0.323   2.504 -1.1470  0.7786  1.8433
57081SOL     OW78103   0.817  10.338   3.796 -0.1115  0.2476 -0.1300
57081SOL    HW178104   0.749  10.299   3.851  0.2443 -1.2902 -0.7254
57081SOL    HW278105   0.782  10.332   3.708 -0.1248  1.4884 -0.2155
57082SOL     OW78106   3.077   0.562   8.799  0.1794 -0.0712 -0.0138
57082SOL    HW178107   3.131   0.531   8.873 -0.8812 -1.2685  0.2988
57082SOL    HW278108   2.989   0.567   8.835  0.2280  3.5832 -0.0154
57083SOL     OW78109   1.866   8.161   0.727  0.4168  0.2999 -0.1672
57083SOL    HW178110   1.928   8.106   0.681 -0.5452 -0.8902 -0.0793
57083SOL    HW278111   1.843   8.112   0.806  0.4671  1.3811  0.5542
57084SOL     OW78112   3.787   5.768   4.558  0.2656 -0.1992 -0.1439
57084SOL    HW178113   3.852   5.725   4.614 -0.6250 -2.2684 -0.6110
57084SOL    HW278114   3.812   5.743   4.469  0.2393  1.0395 -0.5163
57085SOL     OW78115  11.360   6.440   3.272 -0.4922  0.3971  0.3184
57085SOL    HW178116  11.395   6.512   3.218 -0.8912  1.1005  0.9691
57085SOL    HW278117  11.363   6.364   3.215 -1.1919  1.1861 -0.8230
57086SOL     OW78118   5.760   6.467   0.708  0.1071  0.7856  0.1453
57086SOL    HW178119   5.694   6.520   0.662  0.3116  0.2486 -0.7769
57086SOL    HW278120   5.808   6.422   0.639 -0.2095 -0.8046  0.9162
57087SOL     OW78121   7.812  10.960  11.296  0.0216  0.5630 -0.0646
57087SOL    HW178122   7.838  11.002  11.214  0.4544  0.6491  0.1114
57087SOL    HW278123   7.725  10.995  11.315  0.0968  0.8642 -0.2692
57088SOL     OW78124   6.678   7.195   8.733 -0.2755 -0.3323  0.1812
57088SOL    HW178125   6.617   7.122   8.734 -0.2954 -0.3425 -1.0627
57088SOL    HW278126   6.752   7.166   8.787 -0.1372 -1.3893 -0.5643
57089SOL     OW78127  10.957   2.752   1.218 -0.4693  0.3891  0.1747
57089SOL    HW178128  10.922   2.785   1.136  0.2669 -1.4264 -0.9416
57089SOL    HW278129  10.884   2.758   1.280 -2.3014 -1.7099 -1.6238
57090SOL     OW78130   1.471  10.931   0.435  0.2478  0.0966 -0.2704
57090SOL    HW178131   1.538  10.903   0.497  0.0950  2.8198  1.2708
57090SOL    HW278132   1.403  10.864   0.441  0.8324 -0.3949  1.5237
57091SOL     OW78133  11.524   9.644   4.926  0.1193  0.8514 -0.2436
57091SOL    HW178134  11.610   9.603   4.913 -0.9369 -1.5772 -0.0970
57091SOL    HW278135  11.497   9.615   5.014 -0.2211  2.8902  0.3873
57092SOL     OW78136  10.109   3.829   2.800 -0.0601  0.8514 -0.1325
57092SOL    HW178137  10.062   3.747   2.789 -1.2623  1.6399 -1.1495
57092SOL    HW278138  10.043   3.889   2.836  0.7456  1.4393  0.3928
57093SOL     OW78139   9.672  10.201   5.350 -0.3580  0.2138 -0.4370
57093SOL    HW178140   9.742  10.163   5.297 -1.0459  0.3927 -1.5128
57093SOL    HW278141   9.648  10.132   5.412  1.5606  0.5592  0.7662
57094SOL     OW78142  10.845   0.361   3.962 -0.6633  0.6631  0.6316
57094SOL    HW178143  10.906   0.296   3.928 -1.4427  0.8890 -1.3592
57094SOL    HW278144  10.779   0.310   4.009 -0.4433  0.1533  0.3949
57095SOL     OW78145   6.945  12.226   1.991  0.3160  0.3023 -0.0903
57095SOL    HW178146   7.030  12.191   2.019 -0.8160 -1.5747  1.2140
57095SOL    HW278147   6.937  12.199   1.900  1.3788  1.0931 -0.4414
57096SOL     OW78148   1.675   3.804   8.503  0.2949 -0.1616  0.7537
57096SOL    HW178149   1.751   3.823   8.447  2.0539 -1.3628  2.5729
57096SOL    HW278150   1.668   3.708   8.501 -1.3732 -0.0515  0.4186
57097SOL     OW78151   7.053  11.693   6.929  0.5291 -0.0307  0.0893
57097SOL    HW178152   7.093  11.624   6.981 -0.2910 -0.1357  0.5997
57097SOL    HW278153   7.014  11.648   6.854 -0.8704 -0.2719  0.9323
57098SOL     OW78154   8.113   2.538   9.106 -0.1015  0.1079  0.6303
57098SOL    HW178155   8.114   2.558   9.200 -1.1731 -0.7418  0.8392
57098SOL    HW278156   8.041   2.476   9.095 -0.8043  1.1547 -0.9621
57099SOL     OW78157  12.085   1.729   4.103  0.0042 -0.4464 -0.3396
57099SOL    HW178158  12.062   1.733   4.195  0.0621  2.8869 -0.3550
57099SOL    HW278159  12.179   1.749   4.100  0.1188 -1.0405 -1.0849
57100SOL     OW78160   3.475   0.901   7.865  0.0893 -0.7038 -0.4437
57100SOL    HW178161   3.569   0.915   7.852 -0.2577  0.8387 -1.6121
57100SOL    HW278162   3.433   0.956   7.798 -1.7368  2.0284  2.6630
57101SOL     OW78163   7.061   9.986   4.171 -0.2421 -0.5002 -0.3926
57101SOL    HW178164   7.070  10.001   4.265  0.7136  2.0746 -0.7930
57101SOL    HW278165   7.128   9.922   4.150  0.0782 -0.4918  0.5599
57102SOL     OW78166   7.331   5.030   4.491 -0.2437  0.0648 -0.6410
57102SOL    HW178167   7.269   5.089   4.534 -0.2490 -0.0985 -0.4280
57102SOL    HW278168   7.403   5.088   4.464 -1.8906  0.8728 -3.7612
57103SOL     OW78169   0.075  10.199   9.155 -0.9222  0.6198 -0.2364
57103SOL    HW178170   0.067  10.141   9.080  2.2576  2.0800 -1.9058
57103SOL    HW278171   0.073  10.141   9.231 -1.6661 -1.2049 -1.5879
57104SOL     OW78172   7.256   8.820   2.321  0.4435 -0.0044  0.1485
57104SOL    HW178173   7.295   8.907   2.313  0.6958  0.0508  1.6838
57104SOL    HW278174   7.330   8.763   2.342  0.1042 -0.3882  0.3067
57105SOL     OW78175   2.348   5.482  10.503  0.0430 -0.1134 -0.2098
57105SOL    HW178176   2.263   5.441  10.490 -0.4414  0.6845  0.3688
57105SOL    HW278177   2.366   5.527  10.420 -0.6885  0.7535  0.0862
57106SOL     OW78178   1.954   1.537   2.514 -0.5595  0.1451  0.2869
57106SOL    HW178179   1.982   1.616   2.469 -0.7003  0.8094  1.3416
57106SOL    HW278180   2.006   1.467   2.474  0.0695  0.8638 -0.1809
57107SOL     OW78181   4.021  10.881   4.543  0.3635  0.0956  0.1834
57107SOL    HW178182   4.104  10.912   4.505  0.1636  3.1235  1.9141
57107SOL    HW278183   4.019  10.918   4.631 -2.6530 -0.2333  0.3646
57108SOL     OW78184   2.812   0.882   8.887  0.2105  0.2418  0.2842
57108SOL    HW178185   2.868   0.897   8.811  1.2750  1.0196  1.1826
57108SOL    HW278186   2.861   0.820   8.941  0.3250  1.1018  1.1881
57109SOL     OW78187   0.900   6.565  10.163  0.1002  0.9685 -0.4220
57109SOL    HW178188   0.849   6.577  10.083 -0.3802 -0.1422 -0.2968
57109SOL    HW278189   0.978   6.619  10.150  0.2436  0.4572 -1.8339
57110SOL     OW78190   1.029   0.395   2.207  0.1805 -0.8715  0.6207
57110SOL    HW178191   1.023   0.480   2.165  3.5619 -0.1710  1.2384
57110SOL    HW278192   0.946   0.386   2.254 -0.2136  2.2239  0.7633
57111SOL     OW78193  10.947   4.305   6.779 -0.1096  0.6096 -0.4710
57111SOL    HW178194  10.899   4.382   6.748 -0.9079  0.1886 -0.3098
57111SOL    HW278195  11.027   4.341   6.817  0.3717  1.2064 -2.0033
57112SOL     OW78196   4.016  12.073   0.231  0.3875 -0.1573 -0.2701
57112SOL    HW178197   3.933  12.087   0.277 -0.2654 -0.3377 -1.3465
57112SOL    HW278198   4.065  12.154   0.245 -0.0865  0.0605  0.1480
57113SOL     OW78199   1.688   6.973   1.321  0.8278  0.1524 -0.2864
57113SOL    HW178200   1.653   6.884   1.324  1.6737 -0.3272 -2.3519
57113SOL    HW278201   1.740   6.975   1.240  3.3537  1.5979  1.2444
57114SOL     OW78202   6.431   4.342   7.138  0.7915 -0.4988 -0.0217
57114SOL    HW178203   6.404   4.321   7.048  2.3338 -1.2620 -0.3304
57114SOL    HW278204   6.351   4.374   7.180 -0.4832 -2.2397 -1.0111
57115SOL     OW78205   4.576   9.264   3.282 -0.1436  0.5600  0.4110
57115SOL    HW178206   4.504   9.201   3.270  0.4049 -0.3589  1.7243
57115SOL    HW278207   4.548   9.318   3.355 -0.5112  1.7562 -0.5730
57116SOL     OW78208  12.294   8.142   7.354 -0.1450 -0.1063  0.2654
57116SOL    HW178209  12.235   8.207   7.392  1.1336  0.3553  1.5326
57116SOL    HW278210  12.361   8.193   7.309 -0.3913 -0.6198 -0.7298
57117SOL     OW78211   6.021   7.643  10.278  0.4713  0.3361  0.2056
57117SOL    HW178212   5.987   7.664  10.191  1.4560 -0.3585 -0.3713
57117SOL    HW278213   5.945   7.644  10.335 -0.5127 -1.0474 -1.0109
57118SOL     OW78214   5.619   6.471   4.310  0.0827  0.0977  0.3590
57118SOL    HW178215   5.712   6.465   4.330  0.1871 -2.4199 -0.4707
57118SOL    HW278216   5.604   6.563   4.289  2.6476  0.3535 -0.6693
57119SOL     OW78217   9.044   5.080  10.052  0.1401 -0.0226  0.0755
57119SOL    HW178218   9.089   4.996  10.047  0.4058  0.0656  0.8125
57119SOL    HW278219   8.964   5.062  10.101  0.9547  0.4352  1.6429
57120SOL     OW78220  12.028  11.701   8.449  0.4320  0.1998 -0.0874
57120SOL    HW178221  12.065  11.638   8.386 -0.8808  0.3093 -1.0073
57120SOL    HW278222  12.017  11.650   8.530 -1.7998 -1.2182 -1.1630
57121SOL     OW78223  12.038   4.145   2.709 -0.0291  0.4553  0.2314
57121SOL    HW178224  12.041   4.171   2.617  1.9179  1.9559  0.6547
57121SOL    HW278225  12.117   4.092   2.722 -0.3780  0.1044  1.0158
57122SOL     OW78226  11.555   5.262   9.409 -0.6099 -0.4858 -0.0474
57122SOL    HW178227  11.623   5.326   9.430 -0.6334 -0.2183 -0.7674
57122SOL    HW278228  11.582   5.182   9.455 -0.1268 -0.2072  0.1579
57123SOL     OW78229   9.992   6.194   1.005  0.2990 -0.2946  0.3706
57123SOL    HW178230  10.031   6.224   1.088 -0.5946  1.0476  0.3381
57123SOL    HW278231   9.899   6.185   1.025  0.3670 -2.0278  0.0489
57124SOL     OW78232   1.605  10.629   6.775 -0.3148 -0.6215 -0.2785
57124SOL    HW178233   1.610  10.622   6.680 -0.0905 -0.0184 -0.3129
57124SOL    HW278234   1.692  10.606   6.806 -0.7461 -2.1734 -0.1207
57125SOL     OW78235   6.911   9.305   3.276  0.3443  0.1945  0.7873
57125SOL    HW178236   6.869   9.285   3.192 -0.4343  1.5354  0.8262
57125SOL    HW278237   6.935   9.220   3.312  0.0083 -0.4429 -0.4483
57126SOL     OW78238  10.305   5.197   3.398  0.4591  0.0363 -0.2332
57126SOL    HW178239  10.289   5.118   3.346  0.6345 -1.3753  1.7609
57126SOL    HW278240  10.325   5.265   3.333  0.7360 -1.6435 -1.9891
57127SOL     OW78241   4.451  10.774   5.694 -0.9854  0.2308 -0.2644
57127SOL    HW178242   4.400  10.837   5.643  0.3222  1.2978 -0.3069
57127SOL    HW278243   4.536  10.770   5.650  0.1430  1.0910  1.7101
57128SOL     OW78244   7.057   4.296   6.468  0.2476  0.0814 -0.0479
57128SOL    HW178245   7.098   4.215   6.498  0.3902  0.1056 -0.1732
57128SOL    HW278246   7.119   4.332   6.405  0.3503  0.4639  0.2615
57129SOL     OW78247   7.551   1.702  12.364 -0.1576 -0.6015  0.4292
57129SOL    HW178248   7.515   1.731  12.280 -1.3457 -0.4140  0.9835
57129SOL    HW278249   7.616   1.769  12.387 -1.5581  0.6838  0.8071
57130SOL     OW78250   9.802   1.775   9.217 -0.0121  0.4508 -0.7182
57130SOL    HW178251   9.870   1.773   9.151 -1.3582 -1.0549 -2.1604
57130SOL    HW278252   9.753   1.694   9.203 -1.4881  0.9966  0.9074
57131SOL     OW78253  11.496   4.662  11.184  0.2220 -0.2859 -0.0434
57131SOL    HW178254  11.441   4.740  11.178  2.1806  1.1028 -1.9205
57131SOL    HW278255  11.442   4.596  11.227 -3.8224  0.1413 -3.7574
57132SOL     OW78256   0.685   4.851   5.913  0.4884 -0.3463  0.7254
57132SOL    HW178257   0.741   4.785   5.872 -0.7105 -0.4183 -0.8887
57132SOL    HW278258   0.643   4.806   5.986  0.2141 -1.1811  0.0599
57133SOL     OW78259  10.230  11.964   5.746  0.3331  0.0826 -0.0940
57133SOL    HW178260  10.181  12.018   5.685  1.2312  1.2627  0.1930
57133SOL    HW278261  10.318  11.960   5.710  0.3879 -0.8827  0.1026
57134SOL     OW78262   6.388  11.513  11.740 -0.0252 -0.7826  0.4800
57134SOL    HW178263   6.483  11.504  11.735  0.1789  0.6113  1.1459
57134SOL    HW278264   6.374  11.577  11.811 -1.3818  0.0952 -0.5251
57135SOL     OW78265   8.991   1.462   5.291  0.0123  0.3653  0.5647
57135SOL    HW178266   9.076   1.506   5.281 -0.8843  2.0924  0.0906
57135SOL    HW278267   8.927   1.533   5.289 -1.5517 -0.9996 -0.4378
57136SOL     OW78268   5.047  11.476   3.111 -0.3167 -0.2340  0.0251
57136SOL    HW178269   4.990  11.526   3.169  1.1087 -0.3137  1.5682
57136SOL    HW278270   5.107  11.430   3.170  2.0325  0.6620 -1.5140
57137SOL     OW78271   6.186   5.523   9.748 -0.0324 -0.0385  0.0612
57137SOL    HW178272   6.105   5.574   9.756 -1.2189 -1.9232  0.8958
57137SOL    HW278273   6.208   5.500   9.838  1.1167 -0.0288 -0.2137
57138SOL     OW78274   3.146   2.513   2.115  0.2243  0.3298 -0.4339
57138SOL    HW178275   3.095   2.572   2.171  0.7064  0.0294  0.3238
57138SOL    HW278276   3.145   2.429   2.160  2.2982  0.5739  0.1714
57139SOL     OW78277   6.460   0.445  12.099  0.6061  0.5010  0.3908
57139SOL    HW178278   6.380   0.471  12.054  0.6603  0.0906  0.0516
57139SOL    HW278279   6.530   0.473  12.041  0.7597  1.7468  1.1358
57140SOL     OW78280   0.124   7.086  11.418  0.3249 -0.1129  0.0296
57140SOL    HW178281   0.139   7.162  11.363  0.0959  0.4701  0.7524
57140SOL    HW278282   0.148   7.011  11.364 -1.0631  0.3497 -1.3092
57141SOL     OW78283   4.459  10.746   1.423 -0.6618  0.1173 -0.5605
57141SOL    HW178284   4.406  10.678   1.382 -1.0384  0.6149 -0.9212
57141SOL    HW278285   4.399  10.820   1.434 -0.4035  0.2154  0.3166
57142SOL     OW78286   9.066   3.899   8.744  0.0767  0.0095  0.0025
57142SOL    HW178287   9.115   3.957   8.802 -1.2370  1.4592 -0.2588
57142SOL    HW278288   9.022   3.837   8.802  0.2625  0.2657  0.4176
57143SOL     OW78289   4.495   6.627   6.956 -0.6833  0.0185  0.8336
57143SOL    HW178290   4.459   6.698   6.904 -0.6540 -0.2940  0.3837
57143SOL    HW278291   4.555   6.581   6.897 -0.1542  0.0474  1.3282
57144SOL     OW78292   1.328   3.120   2.807 -0.3573 -0.0614 -0.0013
57144SOL    HW178293   1.384   3.190   2.840 -0.1401 -0.0824 -0.3163
57144SOL    HW278294   1.387   3.066   2.754 -0.1683 -1.3286  1.4122
57145SOL     OW78295   8.053  10.338  12.139  0.4476 -0.0131  0.0346
57145SOL    HW178296   8.041  10.431  12.117 -1.8745 -0.0356  0.9455
57145SOL    HW278297   8.063  10.338  12.234 -1.4035 -0.8098  0.2574
57146SOL     OW78298   3.638   3.344   2.129  0.1020  0.0342 -0.0471
57146SOL    HW178299   3.594   3.261   2.147  0.0112 -0.3163 -1.7012
57146SOL    HW278300   3.700   3.323   2.059 -1.3885  1.7351 -1.9921
57147SOL     OW78301  11.809  11.671   6.570 -0.7292 -1.0851 -0.4196
57147SOL    HW178302  11.826  11.687   6.663 -1.6759 -2.4506  0.0281
57147SOL    HW278303  11.862  11.736   6.524 -0.2143 -0.4063  1.0710
57148SOL     OW78304   0.776  12.397   3.391 -0.4330  0.5246 -0.5305
57148SOL    HW178305   0.807  12.306   3.390  0.5929  0.8053  1.5459
57148SOL    HW278306   0.708  12.398   3.458  1.9603  1.9554  2.0370
57149SOL     OW78307   7.958   1.862   8.671  0.0441  0.1335 -0.2186
57149SOL    HW178308   7.877   1.907   8.648  0.4635  1.1506  0.2619
57149SOL    HW278309   7.941   1.823   8.757 -0.0058  0.1525 -0.2202
57150SOL     OW78310   7.821   9.857   4.379  0.1422 -0.1722 -0.2825
57150SOL    HW178311   7.763   9.926   4.410  0.8166 -0.1257  0.9361
57150SOL    HW278312   7.872   9.899   4.309 -1.0480 -0.1310 -1.1612
57151SOL     OW78313   5.368   3.896  12.297 -0.3950  0.4350  0.3115
57151SOL    HW178314   5.346   3.979  12.340  2.0296  0.7768  1.0654
57151SOL    HW278315   5.402   3.841  12.368 -1.4033 -1.0012 -0.2919
57152SOL     OW78316   2.344   6.411   9.976 -0.1753 -0.1300  0.1946
57152SOL    HW178317   2.260   6.457   9.986 -0.8601 -1.3890  0.4025
57152SOL    HW278318   2.380   6.409  10.065 -0.2773 -0.2444  0.2337
57153SOL     OW78319  12.345  12.139   8.616  0.0403 -0.4503 -0.5292
57153SOL    HW178320  12.412  12.071   8.606 -0.2635 -0.9394  0.5478
57153SOL    HW278321  12.318  12.159   8.527  0.3366 -1.5620 -0.8943
57154SOL     OW78322  11.106   2.696   3.900 -0.0612 -0.2778  0.0532
57154SOL    HW178323  11.103   2.739   3.815 -0.9876  0.1994  0.3171
57154SOL    HW278324  11.157   2.754   3.955  2.6618 -1.7282 -0.7680
57155SOL     OW78325   0.778   9.193  11.697  0.1591 -0.1735 -0.3329
57155SOL    HW178326   0.810   9.105  11.718 -2.3699 -1.8219 -2.6508
57155SOL    HW278327   0.693   9.198  11.741  0.9526  1.8460  1.1044
57156SOL     OW78328  10.370   8.265   0.658  0.2794 -0.0056  0.3901
57156SOL    HW178329  10.378   8.355   0.690 -0.0221 -0.5507  2.0619
57156SOL    HW278330  10.277   8.254   0.641  0.3188 -0.0153  0.1693
57157SOL     OW78331   4.468   0.585   1.993  0.1775  0.1960 -0.2608
57157SOL    HW178332   4.489   0.678   1.983 -0.4700  0.2883 -0.9090
57157SOL    HW278333   4.552   0.541   1.993  0.4630  0.7229 -0.6771
57158SOL     OW78334   0.135   3.228  10.935  0.0966 -0.0103 -0.2260
57158SOL    HW178335   0.128   3.321  10.914 -0.5027 -0.0921 -0.3852
57158SOL    HW278336   0.222   3.219  10.974  0.3587  0.5230 -0.6804
57159SOL     OW78337   3.820   7.297   9.281  0.0487  0.0104 -0.0124
57159SOL    HW178338   3.761   7.244   9.227 -0.1014 -1.1661  1.2338
57159SOL    HW278339   3.878   7.233   9.323 -0.9511  0.6529  2.5323
57160SOL     OW78340  11.101   5.102  10.438  0.0090  0.1590  0.2259
57160SOL    HW178341  11.168   5.043  10.402 -0.9285 -2.0393  1.8305
57160SOL    HW278342  11.064   5.146  10.361  1.0790 -1.0131 -1.0166
57161SOL     OW78343  11.453   8.137   8.588  0.4055  0.1026  0.2385
57161SOL    HW178344  11.372   8.187   8.600  0.4043  0.8545 -2.1941
57161SOL    HW278345  11.522   8.202   8.598  0.6130 -0.1904  0.6990
57162SOL     OW78346  12.345   5.126   9.110  0.7464 -0.6534 -0.0910
57162SOL    HW178347  12.379   5.075   9.184  0.4601  1.0319  1.2539
57162SOL    HW278348  12.270   5.074   9.078  1.3805 -1.8079  0.2378
57163SOL     OW78349   8.631   6.479   6.781 -0.2150  0.2704  0.3944
57163SOL    HW178350   8.707   6.438   6.740 -0.4784  1.3558 -1.3025
57163SOL    HW278351   8.663   6.564   6.811 -0.9939  1.3129 -1.5413
57164SOL     OW78352   5.044   1.432   5.933 -0.4067 -0.4673  0.0354
57164SOL    HW178353   5.108   1.495   5.900 -0.8994  0.4752  0.8601
57164SOL    HW278354   5.097   1.355   5.956  0.2739 -0.1459 -0.4001
57165SOL     OW78355  10.657   3.085   9.778 -0.1122 -0.1550  0.1416
57165SOL    HW178356  10.572   3.045   9.799 -0.6186  1.3889  1.1705
57165SOL    HW278357  10.693   3.109   9.863 -0.4733  2.8200 -0.4617
57166SOL     OW78358   5.081   9.527   2.763 -0.1595  0.7198 -0.1672
57166SOL    HW178359   5.013   9.540   2.830 -0.6003 -0.1357 -0.4398
57166SOL    HW278360   5.049   9.576   2.687 -0.3104  0.5916 -0.1862
57167SOL     OW78361   7.592   3.125   2.006 -0.2495  0.4385  0.3605
57167SOL    HW178362   7.527   3.070   1.962  1.3247 -0.7570 -0.5788
57167SOL    HW278363   7.591   3.207   1.957 -1.6130  0.7615  0.8841
57168SOL     OW78364   2.762   8.741   0.888  0.2094  0.6027 -0.3652
57168SOL    HW178365   2.841   8.784   0.856  0.1559  0.9604 -0.0330
57168SOL    HW278366   2.783   8.716   0.978  0.4426 -0.6018 -0.7386
57169SOL     OW78367   4.457   2.201   1.293  0.2906 -0.2119  0.2181
57169SOL    HW178368   4.392   2.268   1.313  0.3249  0.4560 -1.7214
57169SOL    HW278369   4.479   2.164   1.378 -1.9506  0.1470  1.0306
57170SOL     OW78370   4.521   5.027   4.310  0.1601  0.3509  0.4754
57170SOL    HW178371   4.448   4.971   4.284  0.2385 -0.6843  2.3159
57170SOL    HW278372   4.597   4.988   4.268 -0.1573  0.7667 -0.5262
57171SOL     OW78373   6.592   3.993   4.275 -0.4555  0.2213 -0.2722
57171SOL    HW178374   6.624   4.050   4.206  1.3280  0.5121  0.7168
57171SOL    HW278375   6.647   4.014   4.351 -1.3022 -1.1685  0.7822
57172SOL     OW78376   4.407   4.642   6.538  0.2690 -0.1384  0.9129
57172SOL    HW178377   4.330   4.637   6.595  0.8159 -0.1244  1.6741
57172SOL    HW278378   4.438   4.551   6.533 -1.4399 -0.6874 -1.7693
57173SOL     OW78379  10.780   3.154   9.490  0.0285 -0.0381 -0.3960
57173SOL    HW178380  10.704   3.127   9.542  1.3915  0.7381  2.2231
57173SOL    HW278381  10.849   3.091   9.514  1.3724  1.7488  0.6684
57174SOL     OW78382   6.109  10.191   1.116  0.0978 -0.5827  0.2795
57174SOL    HW178383   6.178  10.180   1.051  0.8112  0.7220  0.7743
57174SOL    HW278384   6.153  10.177   1.200 -0.3247 -0.1628  0.5776
57175SOL     OW78385   2.742   9.758   2.266 -0.1442  0.0012 -0.6586
57175SOL    HW178386   2.828   9.756   2.309 -0.5196  0.3759  0.1289
57175SOL    HW278387   2.728   9.850   2.243 -1.2525  0.3379  1.1595
57176SOL     OW78388   8.631  12.454  10.498  0.1705  0.2276  0.1710
57176SOL    HW178389   8.586  12.530  10.535 -0.2723  0.7241 -1.3160
57176SOL    HW278390   8.722  12.465  10.525  0.2654  1.7333 -0.6507
57177SOL     OW78391   4.878   0.347  10.686 -0.0676 -0.4277  0.1892
57177SOL    HW178392   4.800   0.292  10.695 -1.2599  1.1900  0.0836
57177SOL    HW278393   4.909   0.359  10.776 -2.2670  2.0984  0.7205
57178SOL     OW78394   8.417   2.412   1.570  0.0967 -0.2575  0.5848
57178SOL    HW178395   8.379   2.417   1.658 -0.7875 -1.2602  0.2822
57178SOL    HW278396   8.413   2.319   1.548  1.7888 -0.2587  0.1100
57179SOL     OW78397   9.708   8.122   2.101 -0.1462 -0.0171 -0.1210
57179SOL    HW178398   9.728   8.189   2.167  0.6613  0.8072 -1.1632
57179SOL    HW278399   9.793   8.098   2.064 -0.7298  1.9156 -3.0907
57180SOL     OW78400   0.319   1.082   9.342 -0.2605  0.2383 -0.4178
57180SOL    HW178401   0.225   1.062   9.333 -0.4940  0.4150  1.2659
57180SOL    HW278402   0.323   1.178   9.342  0.0606  0.2418 -1.4679
57181SOL     OW78403   9.034   8.856   7.618 -0.5110 -0.7150  0.9590
57181SOL    HW178404   8.957   8.879   7.565 -0.5087  0.4593  1.4257
57181SOL    HW278405   9.023   8.763   7.637 -0.0995 -1.4164 -1.7534
57182SOL     OW78406   7.926   0.407   4.895  0.4190 -0.1125  0.4461
57182SOL    HW178407   8.010   0.404   4.942  0.0996  0.6856  1.1179
57182SOL    HW278408   7.931   0.488   4.844 -0.4951  0.7050  1.6148
57183SOL     OW78409   5.675   6.489   0.982 -0.1218  0.0490  0.3643
57183SOL    HW178410   5.664   6.580   1.008  1.0270  0.1734  0.4459
57183SOL    HW278411   5.724   6.492   0.900  0.5802 -0.5227  0.7542
57184SOL     OW78412   4.025   3.950   3.357 -0.1958 -0.1873  0.2509
57184SOL    HW178413   3.937   3.983   3.337 -0.5219  0.3709  2.3092
57184SOL    HW278414   4.009   3.872   3.410  0.5840 -0.9081 -0.5509
57185SOL     OW78415   8.060   4.849   8.688  0.0568 -0.0223  0.8398
57185SOL    HW178416   8.072   4.836   8.594  1.0644 -0.4833  1.0246
57185SOL    HW278417   8.094   4.937   8.705 -2.0781  0.9386  0.4427
57186SOL     OW78418   7.955   0.709  11.896 -0.3264 -0.4878  0.5149
57186SOL    HW178419   8.023   0.649  11.866 -0.4729 -1.0793  1.3450
57186SOL    HW278420   7.928   0.755  11.817  0.0079 -1.2932 -0.0866
57187SOL     OW78421  11.157   0.834  10.557 -0.1775  0.9684 -0.0564
57187SOL    HW178422  11.070   0.863  10.586 -0.0476  0.9363  0.3704
57187SOL    HW278423  11.153   0.739  10.559  0.2052  0.9698  0.9936
57188SOL     OW78424   3.536   0.967   3.435  0.0407  0.1282 -0.5918
57188SOL    HW178425   3.461   0.909   3.423  0.4781 -0.4427 -0.6301
57188SOL    HW278426   3.579   0.969   3.349 -0.1542  0.7780 -0.6808
57189SOL     OW78427   6.827   3.132   6.942  0.1735 -0.5878 -0.0345
57189SOL    HW178428   6.786   3.060   6.991 -0.3450  0.4267  1.0630
57189SOL    HW278429   6.755   3.189   6.917  0.5985 -0.3453 -0.7449
57190SOL     OW78430   1.112   7.080   7.977 -0.8870 -0.4169  0.3722
57190SOL    HW178431   1.169   7.077   8.054 -0.1714 -1.2124 -0.1755
57190SOL    HW278432   1.146   7.154   7.926 -1.0014 -0.2439  0.5463
57191SOL     OW78433  10.730   8.579   2.710 -0.5937  0.0178  0.1827
57191SOL    HW178434  10.637   8.588   2.731 -1.3134 -2.1825 -1.6687
57191SOL    HW278435  10.734   8.589   2.615  1.0612 -0.1869  0.1966
57192SOL     OW78436   4.395   3.805  10.493  0.0093 -0.1751 -0.3927
57192SOL    HW178437   4.485   3.799  10.460  0.7147  0.2443  1.3058
57192SOL    HW278438   4.362   3.888  10.460  0.8457  0.4362  0.2405
57193SOL     OW78439   6.819   0.857   3.854  0.3647 -0.5256  0.2845
57193SOL    HW178440   6.874   0.925   3.814 -0.1126  0.4977  1.3147
57193SOL    HW278441   6.732   0.873   3.818  0.4242 -1.1810 -0.1657
57194SOL     OW78442   6.190   9.421   9.462 -0.0005 -0.0353  0.7937
57194SOL    HW178443   6.285   9.419   9.455 -0.0002 -1.7495  0.8623
57194SOL    HW278444   6.163   9.330   9.451 -1.6396  0.4192  0.7706
57195SOL     OW78445   9.520   3.876   4.293 -0.1107  0.0646 -0.0649
57195SOL    HW178446   9.454   3.815   4.326  0.0250 -0.4640 -0.7554
57195SOL    HW278447   9.599   3.823   4.281  0.4656  0.7021  0.8049
57196SOL     OW78448   8.214  10.925  10.804 -0.3460  0.3854  0.0633
57196SOL    HW178449   8.255  10.863  10.865 -0.8359 -1.4793 -1.4033
57196SOL    HW278450   8.148  10.873  10.759  0.7010  1.3518 -2.8182
57197SOL     OW78451   0.317   9.042   9.837  0.1921 -0.2696 -0.6935
57197SOL    HW178452   0.230   9.075   9.814  0.0545  0.0715  0.2807
57197SOL    HW278453   0.369   9.121   9.854 -0.0616 -0.4979  1.3664
57198SOL     OW78454  10.071   9.991  11.707 -0.4438  0.1251  0.0212
57198SOL    HW178455  10.005  10.060  11.694 -0.3473 -0.0096 -1.2655
57198SOL    HW278456  10.026   9.910  11.683 -0.4791 -0.2540  1.2906
57199SOL     OW78457  12.230   8.070  11.679  0.2258 -0.1050 -0.2756
57199SOL    HW178458  12.265   8.151  11.716 -2.7107  0.7372  0.9566
57199SOL    HW278459  12.248   8.076  11.585  2.1936  0.7898  0.1225
57200SOL     OW78460  10.281   4.846   0.389  0.2213  0.2464 -0.1238
57200SOL    HW178461  10.256   4.759   0.355 -0.3913 -0.1951  1.3673
57200SOL    HW278462  10.375   4.851   0.374  0.1273 -0.2983 -1.0299
57201SOL     OW78463  11.142  11.842  11.931  0.6599  0.1357  0.0181
57201SOL    HW178464  11.207  11.856  11.863  0.0318  1.5200 -0.3349
57201SOL    HW278465  11.116  11.930  11.958 -1.7788 -0.3302 -0.5739
57202SOL     OW78466   5.967   7.465   8.756 -0.1314 -0.0136 -0.0402
57202SOL    HW178467   5.916   7.546   8.749  0.1673  0.3631  1.6318
57202SOL    HW278468   5.902   7.395   8.755 -0.6830  0.4420  1.6214
57203SOL     OW78469   8.492   1.040  10.663  0.7606 -0.8324  0.0060
57203SOL    HW178470   8.402   1.008  10.654  1.2816 -2.5139  0.2759
57203SOL    HW278471   8.485   1.135  10.655 -1.3064 -0.7245  2.0300
57204SOL     OW78472   1.135   2.578   2.335  0.3649  0.4627  0.6049
57204SOL    HW178473   1.228   2.581   2.358  1.4094  0.5882 -3.0485
57204SOL    HW278474   1.123   2.651   2.275 -1.6940 -0.5874 -0.3522
57205SOL     OW78475   8.996   1.036   2.654  0.9106 -0.0185  0.2905
57205SOL    HW178476   8.971   1.124   2.683  1.5653 -0.5288  2.5928
57205SOL    HW278477   8.922   1.006   2.602 -1.2114  0.3736  2.8763
57206SOL     OW78478   6.825  10.433  11.231  0.6706  0.1593 -0.5747
57206SOL    HW178479   6.831  10.353  11.283  1.4786  0.3246 -0.4074
57206SOL    HW278480   6.852  10.503  11.291 -1.2714  0.7473 -0.3152
57207SOL     OW78481   8.780   7.480   7.557  0.2448 -0.5043 -0.1868
57207SOL    HW178482   8.785   7.576   7.561 -0.6964 -0.4723  1.1639
57207SOL    HW278483   8.774   7.460   7.464 -0.9378  0.8623 -0.4533
57208SOL     OW78484  12.059   6.213   4.237  0.3050 -0.0193 -0.2590
57208SOL    HW178485  12.148   6.187   4.213 -0.0542  0.3917 -2.1980
57208SOL    HW278486  12.052   6.304   4.210 -0.1758  0.4951  1.4975
57209SOL     OW78487   2.597   9.175   8.273 -0.3732  0.2047  0.1587
57209SOL    HW178488   2.598   9.264   8.308  0.4333  0.5573 -0.6989
57209SOL    HW278489   2.519   9.135   8.311  1.0746  0.1181  3.3883
57210SOL     OW78490   1.030  11.000   0.046 -0.5868 -0.4566 -0.1532
57210SOL    HW178491   1.056  10.978   0.135 -1.4520 -0.9405 -0.0121
57210SOL    HW278492   1.056  11.092   0.036  0.3519 -0.6645  0.2734
57211SOL     OW78493   7.800  11.099   1.278 -0.9722  0.5687 -0.1264
57211SOL    HW178494   7.838  11.144   1.353 -1.0663 -1.4925  1.2233
57211SOL    HW278495   7.706  11.107   1.290 -0.9904 -0.2385  0.2861
57212SOL     OW78496   3.930  10.777  11.735 -0.3004  0.0627 -0.1787
57212SOL    HW178497   3.906  10.860  11.776 -1.2545  0.3309 -1.2019
57212SOL    HW278498   4.018  10.791  11.701 -1.1109  1.3461 -1.9359
57213SOL     OW78499   2.657   3.304   7.322  0.6298  0.5018 -0.1590
57213SOL    HW178500   2.605   3.352   7.257 -0.4463  1.3507  1.2916
57213SOL    HW278501   2.711   3.245   7.269 -3.0973 -1.8964 -1.7429
57214SOL     OW78502   4.285  12.211   6.489 -0.3056  0.3308  0.0763
57214SOL    HW178503   4.253  12.163   6.565 -1.2200  0.8673  0.0428
57214SOL    HW278504   4.220  12.280   6.474  1.1351  1.8147  0.3302
57215SOL     OW78505   3.067   6.925   2.449  0.1876  0.0084 -0.1036
57215SOL    HW178506   2.972   6.913   2.441  0.2364 -0.6236  0.1796
57215SOL    HW278507   3.090   6.879   2.530  0.9765 -1.3482 -1.0376
57216SOL     OW78508   8.777  11.726   5.823  0.2848 -0.1550  0.2096
57216SOL    HW178509   8.782  11.632   5.843 -0.5254  0.0370  1.4516
57216SOL    HW278510   8.687  11.738   5.793  0.7025  0.0568 -1.0040
57217SOL     OW78511   3.428   6.862   0.037 -0.2243 -0.7464 -0.0421
57217SOL    HW178512   3.384   6.817  -0.036  0.0047  0.8354 -1.2189
57217SOL    HW278513   3.506   6.900  -0.003  0.1508 -0.2407  1.1553
57218SOL     OW78514   8.972   9.191   2.829  0.2809 -0.1633  0.3588
57218SOL    HW178515   9.064   9.212   2.845  0.1172  0.1129  0.9795
57218SOL    HW278516   8.946   9.138   2.904 -0.1880  0.1364  0.4157
57219SOL     OW78517   5.263  12.260   6.150 -0.0975 -0.3124 -0.2730
57219SOL    HW178518   5.173  12.228   6.162  0.4710 -1.5866  0.6807
57219SOL    HW278519   5.316  12.181   6.142  1.1133  0.4193  0.3663
57220SOL     OW78520   7.661  11.477   8.947  0.0596  0.3164  0.1404
57220SOL    HW178521   7.740  11.530   8.952 -0.5606  1.1763  2.2650
57220SOL    HW278522   7.599  11.531   8.897 -0.1776  1.1295  1.2589
57221SOL     OW78523   0.187  10.227   9.869 -0.5299 -0.0523  0.4646
57221SOL    HW178524   0.147  10.191   9.948 -1.8657 -2.7463 -1.2932
57221SOL    HW278525   0.113  10.264   9.820  0.3325  1.9444  0.5864
57222SOL     OW78526   2.804   5.384   4.743  0.2129 -0.1039 -0.5600
57222SOL    HW178527   2.725   5.413   4.697  0.0966  1.3494  0.4911
57222SOL    HW278528   2.775   5.370   4.834  1.0498 -0.1061 -0.2862
57223SOL     OW78529   2.611   9.817   1.250 -0.1946 -0.0609  0.4888
57223SOL    HW178530   2.679   9.790   1.311 -0.5740 -1.3563  0.3757
57223SOL    HW278531   2.530   9.816   1.302 -0.4940 -1.0135  0.0307
57224SOL     OW78532   6.833   0.958   1.246  0.5830 -0.0429 -0.4946
57224SOL    HW178533   6.790   1.009   1.177  0.6742 -0.1900 -0.6616
57224SOL    HW278534   6.833   0.868   1.213 -1.6569 -0.5863  0.8130
57225SOL     OW78535   3.884  10.803   2.020 -0.4064  0.4028 -0.0906
57225SOL    HW178536   3.809  10.862   2.021 -0.4195  0.3876 -0.2223
57225SOL    HW278537   3.957  10.856   1.989 -0.9481 -0.2814 -2.8038
57226SOL     OW78538   2.259   4.364   0.744  0.1827 -0.1871 -0.3690
57226SOL    HW178539   2.224   4.441   0.788  0.2272 -0.4072  0.0600
57226SOL    HW278540   2.354   4.375   0.746  0.1938 -0.2986 -0.2160
57227SOL     OW78541  12.094   3.526  10.909  0.2272 -0.5480 -0.4758
57227SOL    HW178542  12.029   3.575  10.959  2.0513  1.5563 -0.0467
57227SOL    HW278543  12.050   3.444  10.887 -2.2644  0.4448  0.4836
57228SOL     OW78544   6.046   3.001   4.046 -0.9464 -0.4936  0.4025
57228SOL    HW178545   6.095   2.920   4.050 -2.5049 -1.4280  1.8366
57228SOL    HW278546   5.990   2.992   3.969 -1.4730 -1.0257  0.8376
57229SOL     OW78547   6.284   5.756   7.045 -0.0303 -0.1266  0.3788
57229SOL    HW178548   6.324   5.672   7.021 -0.4977 -0.2203 -0.0897
57229SOL    HW278549   6.337   5.787   7.119 -0.6300 -1.4449  1.4081
57230SOL     OW78550   9.189   7.507   7.228  0.4587 -0.0428  0.0400
57230SOL    HW178551   9.246   7.466   7.293  1.0352 -1.0152 -1.0428
57230SOL    HW278552   9.111   7.453   7.225  0.3659  0.0904  0.0282
57231SOL     OW78553   4.163   4.238   3.742  0.3244  0.5251  0.0098
57231SOL    HW178554   4.114   4.179   3.685  0.4911  0.6770 -0.2887
57231SOL    HW278555   4.104   4.312   3.755  0.1694  0.3588  0.2747
57232SOL     OW78556   9.527   8.037  11.287 -0.1701 -0.2043 -0.2329
57232SOL    HW178557   9.434   8.041  11.263 -0.4824 -0.4935  0.8257
57232SOL    HW278558   9.539   8.110  11.348  0.7916  1.0253 -1.8209
57233SOL     OW78559   5.909   5.843  12.346  0.1036 -0.2207  0.0814
57233SOL    HW178560   5.860   5.828  12.427 -0.4576 -2.1429 -0.5559
57233SOL    HW278561   5.926   5.755  12.312 -1.0812  0.5274 -2.7091
57234SOL     OW78562   8.295   3.220   4.887  0.2907 -0.1284 -0.0820
57234SOL    HW178563   8.281   3.129   4.861  0.6350 -0.1835 -0.0794
57234SOL    HW278564   8.369   3.217   4.949  1.3696  0.3269 -1.2917
57235SOL     OW78565   5.428   6.914   3.849 -0.0777 -0.2109 -0.6279
57235SOL    HW178566   5.370   6.989   3.834  1.5080  1.1855 -0.1161
57235SOL    HW278567   5.489   6.916   3.776 -1.0478 -2.1087 -1.5623
57236SOL     OW78568   6.143   0.842   1.630 -0.2041 -0.4832 -0.8168
57236SOL    HW178569   6.165   0.890   1.550  1.0753 -0.7676 -0.6478
57236SOL    HW278570   6.223   0.796   1.653 -1.0442 -1.7167 -0.2718
57237SOL     OW78571   9.671   2.793   4.075  0.1155 -0.3244  0.3339
57237SOL    HW178572   9.682   2.858   4.143 -1.7106  0.0680  0.3084
57237SOL    HW278573   9.687   2.709   4.118  1.1244  0.0377  0.6897
57238SOL     OW78574   7.052   9.105   5.251 -0.5108  0.3168 -0.1391
57238SOL    HW178575   7.142   9.085   5.276 -0.1154 -2.2236 -2.9726
57238SOL    HW278576   7.000   9.034   5.290 -0.1892 -2.2915 -3.8848
57239SOL     OW78577  10.949  12.289  10.483  0.0380  0.6199 -0.4310
57239SOL    HW178578  10.963  12.258  10.394 -0.2921 -0.3093 -0.1641
57239SOL    HW278579  11.038  12.299  10.519  0.1510 -0.1792 -0.4678
57240SOL     OW78580   6.149   3.787   9.022  0.4801 -0.0386  0.2277
57240SOL    HW178581   6.133   3.871   8.979  1.1522 -0.2472 -0.4790
57240SOL    HW278582   6.241   3.791   9.047  0.8960 -1.0674 -1.0312
57241SOL     OW78583   9.645   7.355   8.015 -0.0704 -0.2291  0.3934
57241SOL    HW178584   9.689   7.275   8.043  0.1645 -0.9954 -1.9552
57241SOL    HW278585   9.716   7.415   7.992 -0.2258 -0.2307 -0.1165
57242SOL     OW78586   2.443  10.355   1.894 -0.6337  0.2179  0.5729
57242SOL    HW178587   2.432  10.368   1.988  2.8500  4.1146  0.7644
57242SOL    HW278588   2.537  10.340   1.883 -0.9639 -0.2742 -2.2791
57243SOL     OW78589   0.118   8.227   4.922  0.4274 -0.0094 -0.3696
57243SOL    HW178590   0.131   8.304   4.978 -1.4046 -0.9520  1.4796
57243SOL    HW278591   0.023   8.220   4.913  0.5600 -2.1038 -0.4390
57244SOL     OW78592   6.420   4.353   4.321 -0.2144 -0.3301 -0.1789
57244SOL    HW178593   6.380   4.434   4.350 -0.3125 -0.8157  1.0950
57244SOL    HW278594   6.514   4.368   4.327 -0.2176 -0.8560  1.7430
57245SOL     OW78595   3.769   5.589   2.722  0.0067  0.7982  0.1662
57245SOL    HW178596   3.826   5.523   2.761  1.8905  2.2046 -0.0196
57245SOL    HW278597   3.686   5.544   2.707 -0.3429 -0.2937  4.2020
57246SOL     OW78598  11.879   4.160  11.118  0.5050  0.4914 -0.0681
57246SOL    HW178599  11.934   4.229  11.080 -0.4267  1.2047 -0.1557
57246SOL    HW278600  11.939   4.109  11.173  1.0715  1.7761  0.5374
57247SOL     OW78601   5.459   9.087   7.066 -0.2501 -0.4903 -0.1363
57247SOL    HW178602   5.407   9.037   7.129 -2.3320 -0.1784 -1.4907
57247SOL    HW278603   5.407   9.166   7.050  1.1314  0.3039 -0.8735
57248SOL     OW78604   3.642   9.315   9.480  0.3209 -0.3594 -0.3136
57248SOL    HW178605   3.563   9.364   9.458  2.1279  1.8139 -2.5515
57248SOL    HW278606   3.674   9.357   9.560  0.0793 -0.1319 -0.3356
57249SOL     OW78607  10.232  10.406   5.169  0.3459  0.2389  0.1851
57249SOL    HW178608  10.269  10.360   5.244  0.1170 -1.5828 -0.7520
57249SOL    HW278609  10.164  10.347   5.136  0.6958  0.7969 -1.6701
57250SOL     OW78610   5.482   5.291   8.495 -0.0607  0.3218  0.1585
57250SOL    HW178611   5.420   5.315   8.425  0.0896  0.0532 -0.0707
57250SOL    HW278612   5.562   5.339   8.473  0.2294 -0.3463 -0.2831
57251SOL     OW78613   8.814   0.507   4.548 -0.0023 -0.2606  0.2168
57251SOL    HW178614   8.863   0.578   4.589  0.3313 -0.6391  0.4848
57251SOL    HW278615   8.726   0.543   4.536  0.4444  0.5744 -0.6781
57252SOL     OW78616   7.344   8.142  11.651 -0.2125 -0.0566  0.2701
57252SOL    HW178617   7.288   8.086  11.596 -0.3778  0.2811  0.0894
57252SOL    HW278618   7.324   8.231  11.621  0.5059  0.0591  0.1300
57253SOL     OW78619   8.439   6.576   5.146  0.3796  0.5123  0.0309
57253SOL    HW178620   8.468   6.562   5.236  1.2827 -0.4279 -0.3849
57253SOL    HW278621   8.459   6.667   5.127  2.2557  0.1422  0.0651
57254SOL     OW78622  11.002   0.603   5.442 -0.2134  0.4012  0.6756
57254SOL    HW178623  10.993   0.634   5.532  0.1545  1.3316  0.4016
57254SOL    HW278624  11.095   0.583   5.433 -0.5802 -1.7522  1.1381
57255SOL     OW78625   8.819   5.882   4.487  0.8875  0.1864  0.0832
57255SOL    HW178626   8.753   5.821   4.521  1.8044  0.1402  1.9435
57255SOL    HW278627   8.828   5.859   4.395  1.7948 -3.1552  0.8407
57256SOL     OW78628   2.179   6.892   9.234  0.3111 -0.1401  0.2980
57256SOL    HW178629   2.116   6.846   9.178 -0.2078  0.9680 -0.0719
57256SOL    HW278630   2.125   6.951   9.287  0.9015 -0.3671  1.1767
57257SOL     OW78631   4.099   3.259   7.990  0.0675  0.4581 -0.1312
57257SOL    HW178632   4.065   3.347   8.002  0.5895  0.4843  1.4699
57257SOL    HW278633   4.181   3.258   8.039  2.3308  0.2911 -3.5670
57258SOL     OW78634   1.230  11.041   3.064 -0.0561  0.0993  0.5401
57258SOL    HW178635   1.175  11.116   3.041 -0.3910 -0.1141  0.6303
57258SOL    HW278636   1.274  11.017   2.983  1.0472  1.1891  0.7828
57259SOL     OW78637   3.910   7.286   8.802 -0.2944  0.4569  0.0985
57259SOL    HW178638   3.856   7.352   8.846 -1.1052 -0.4586  0.5108
57259SOL    HW278639   3.882   7.288   8.710 -2.1076 -0.9905  0.5614
57260SOL     OW78640   4.451  10.424   8.495  0.1654  0.3957  0.5242
57260SOL    HW178641   4.417  10.430   8.585 -1.5421 -0.6953  0.0017
57260SOL    HW278642   4.491  10.338   8.490 -0.8936 -0.0833 -0.0968
57261SOL     OW78643   9.573   0.712   4.513 -0.7594 -0.1729  0.0443
57261SOL    HW178644   9.645   0.760   4.471  0.7968 -0.9338  1.7084
57261SOL    HW278645   9.503   0.777   4.521 -0.4625  0.4750 -2.0007
57262SOL     OW78646   3.661   4.027   4.126  0.4986  0.1858  0.0789
57262SOL    HW178647   3.594   3.973   4.169  0.9226  0.3897  1.0296
57262SOL    HW278648   3.736   3.968   4.115  0.4387  0.1724 -0.2759
57263SOL     OW78649   3.295   2.149  10.299  0.6776 -0.0669  0.6607
57263SOL    HW178650   3.340   2.233  10.288  1.2493 -0.3269  0.9831
57263SOL    HW278651   3.230   2.165  10.367 -1.4152  0.9741 -1.4388
57264SOL     OW78652   4.438   7.431   2.792 -0.2296  0.2714  0.3779
57264SOL    HW178653   4.432   7.453   2.884  0.2771  1.1925  0.1982
57264SOL    HW278654   4.349   7.445   2.758 -0.2866  0.4621  0.6070
57265SOL     OW78655   1.356   5.657   6.281 -0.1631  0.5181  0.0170
57265SOL    HW178656   1.420   5.595   6.317  0.6669  1.9741  1.1751
57265SOL    HW278657   1.331   5.620   6.196  2.3621 -0.0290 -0.5618
57266SOL     OW78658   8.157   6.382   8.710 -0.2176  0.4122 -0.4922
57266SOL    HW178659   8.095   6.448   8.743 -1.0443  0.2765 -1.6968
57266SOL    HW278660   8.110   6.299   8.718  0.4044  0.1036  0.0095
57267SOL     OW78661   5.205  10.106   6.480 -0.1928 -0.3036  0.0274
57267SOL    HW178662   5.300  10.110   6.492 -0.1488 -0.1336 -0.3621
57267SOL    HW278663   5.182  10.192   6.445 -0.7492  0.3480  1.8454
57268SOL     OW78664   2.827   5.150  11.786  0.0767  0.2381 -0.1849
57268SOL    HW178665   2.866   5.197  11.860 -1.1846  0.7955  0.1454
57268SOL    HW278666   2.831   5.058  11.812  1.6172  0.2279 -0.3861
57269SOL     OW78667   0.908   8.185  10.012 -0.5417  0.6712 -1.1221
57269SOL    HW178668   0.841   8.245  10.045 -0.9963  0.6768 -2.0376
57269SOL    HW278669   0.937   8.224   9.929 -0.4556 -0.0905 -1.4606
57270SOL     OW78670   6.270   7.620   6.215 -0.0396 -0.3928 -0.8898
57270SOL    HW178671   6.279   7.696   6.156  0.2782 -0.2370 -0.6418
57270SOL    HW278672   6.360   7.592   6.231 -0.0875 -0.0108  0.0757
57271SOL     OW78673   1.814   9.098  12.229 -0.2442  0.6015 -0.2355
57271SOL    HW178674   1.851   9.069  12.146  1.7711  1.4273  0.3126
57271SOL    HW278675   1.773   9.020  12.266 -0.1852 -0.0391 -1.4826
57272SOL     OW78676   2.846  12.106   8.960  0.3072 -0.4970 -0.0703
57272SOL    HW178677   2.919  12.075   9.014 -1.2444  0.5415  2.8285
57272SOL    HW278678   2.858  12.200   8.955 -0.4573 -0.4034 -0.2082
57273SOL     OW78679   4.079   9.665  11.212  0.0551  0.2219 -0.9146
57273SOL    HW178680   4.165   9.630  11.235 -0.1082  0.0414 -0.5692
57273SOL    HW278681   4.023   9.589  11.203 -0.3118  0.3906 -0.1129
57274SOL     OW78682   6.641  12.179   0.472  0.1414  0.1367  0.0094
57274SOL    HW178683   6.724  12.136   0.494 -0.1891 -1.5805 -1.8224
57274SOL    HW278684   6.574  12.118   0.503 -0.3811  0.2577 -0.8631
57275SOL     OW78685   8.807  12.014   5.782  0.2785  0.2454  0.2053
57275SOL    HW178686   8.877  11.952   5.762 -0.4765 -0.5418 -0.0574
57275SOL    HW278687   8.736  11.960   5.817 -0.4389  0.9450 -0.1368
57276SOL     OW78688   7.520   3.185   1.111  0.0084 -0.1135  0.5305
57276SOL    HW178689   7.498   3.201   1.203 -1.4277 -0.2624  0.2428
57276SOL    HW278690   7.435   3.176   1.068  0.6714 -0.5339 -0.7295
57277SOL     OW78691  10.889   9.338   8.763 -0.0712 -0.5178  0.4418
57277SOL    HW178692  10.950   9.286   8.710 -0.9434 -1.1886  0.0548
57277SOL    HW278693  10.936   9.418   8.783  1.0147 -1.1125  0.3447
57278SOL     OW78694   4.885  10.351  10.291  0.2020  0.1072 -0.2663
57278SOL    HW178695   4.824  10.371  10.361 -0.4220  1.0296 -1.0441
57278SOL    HW278696   4.951  10.421  10.296  1.1520 -0.8175  0.4979
57279SOL     OW78697   4.583  10.497   2.063  0.0809 -0.6315 -0.1841
57279SOL    HW178698   4.657  10.454   2.106 -0.0148 -0.5431  0.0721
57279SOL    HW278699   4.547  10.555   2.130  1.4750  1.4390 -1.1006
57280SOL     OW78700   1.887   1.886  10.479 -0.6410  0.1875  0.3014
57280SOL    HW178701   1.943   1.855  10.409 -0.3203 -0.5011  0.8494
57280SOL    HW278702   1.905   1.979  10.485 -2.5257  0.8193 -2.2147
57281SOL     OW78703   4.265   7.369   7.562  0.9899  0.1752  0.3981
57281SOL    HW178704   4.202   7.385   7.491 -0.4556 -1.1199  1.3140
57281SOL    HW278705   4.290   7.456   7.592  0.1117  0.7293 -0.4046
57282SOL     OW78706   9.211   3.340  12.269  0.0283  0.1616  0.2761
57282SOL    HW178707   9.234   3.345  12.176  1.9355 -1.9959  0.5608
57282SOL    HW278708   9.294   3.343  12.315 -0.7591 -0.5769  1.8328
57283SOL     OW78709   6.099   7.060   3.449 -0.3722  0.2548  0.3762
57283SOL    HW178710   6.149   7.141   3.457 -0.8179  0.3902  2.3954
57283SOL    HW278711   6.010   7.083   3.478 -0.2710 -1.1407  1.9683
57284SOL     OW78712   0.854   8.569   8.779 -0.0095 -0.5668  0.6330
57284SOL    HW178713   0.889   8.524   8.856 -1.6589 -0.3514  1.5436
57284SOL    HW278714   0.894   8.524   8.705  1.3589 -1.0023  1.5813
57285SOL     OW78715   4.520   8.352   5.724 -0.5516  0.2234 -0.3152
57285SOL    HW178716   4.466   8.301   5.785  0.6137  0.1711  0.7217
57285SOL    HW278717   4.566   8.415   5.780  1.5267 -0.6755 -0.9414
57286SOL     OW78718   1.639  11.236   6.706  0.4259  0.4457 -0.6287
57286SOL    HW178719   1.567  11.174   6.716  1.6946 -0.8512  1.1475
57286SOL    HW278720   1.625  11.276   6.620 -2.1915  0.0115 -0.4787
57287SOL     OW78721   8.235   2.071   2.971  0.4703 -0.1450  0.0887
57287SOL    HW178722   8.244   1.976   2.982  0.2622  0.0227  1.9097
57287SOL    HW278723   8.211   2.104   3.057  0.8500  1.6183 -0.4280
57288SOL     OW78724   8.400   9.650   8.418  0.3712 -0.0347  0.4126
57288SOL    HW178725   8.375   9.559   8.436  1.4875 -0.5715 -0.5726
57288SOL    HW278726   8.398   9.693   8.503 -1.1987 -0.7110  0.7510
57289SOL     OW78727   3.679   9.636   3.395  0.4646 -0.5630  0.9626
57289SOL    HW178728   3.718   9.710   3.347 -1.1419 -1.2636 -1.6732
57289SOL    HW278729   3.623   9.677   3.461  3.3524  0.4457  2.9591
57290SOL     OW78730   0.612  11.443   4.200 -0.0955  0.1575 -0.4394
57290SOL    HW178731   0.545  11.496   4.156  0.6184  0.7762 -0.8151
57290SOL    HW278732   0.692  11.497   4.194  0.6299 -0.9268 -0.7508
57291SOL     OW78733   4.029   8.242   8.203 -0.8445  0.0070  0.1716
57291SOL    HW178734   4.035   8.231   8.298 -1.6881  0.7163  0.3206
57291SOL    HW278735   4.105   8.295   8.180  0.1245 -1.3101  0.2408
57292SOL     OW78736   5.262  11.161   9.604 -0.2609 -0.5597  0.2347
57292SOL    HW178737   5.227  11.223   9.668 -1.8900 -0.0550 -1.0902
57292SOL    HW278738   5.229  11.192   9.520  3.2318 -0.1680 -1.1685
57293SOL     OW78739   9.039  12.287   5.716  0.3246 -0.4635 -0.2438
57293SOL    HW178740   9.014  12.379   5.714 -1.5830 -0.8779  1.1434
57293SOL    HW278741   8.961  12.240   5.685  0.4854 -1.6800  1.0755
57294SOL     OW78742  12.360   5.522   0.667 -0.5699  0.6281 -0.1773
57294SOL    HW178743  12.349   5.499   0.759  0.5913  0.5930 -0.0294
57294SOL    HW278744  12.413   5.451   0.631 -0.7193  0.8210 -0.7948
57295SOL     OW78745   8.599   3.264   4.359 -0.6288  0.8600  0.3275
57295SOL    HW178746   8.654   3.225   4.291  0.4744  1.3042  0.9582
57295SOL    HW278747   8.532   3.197   4.377  1.6484 -1.1357  1.9232
57296SOL     OW78748   1.575   7.903   6.539 -0.0610 -0.3752  0.1026
57296SOL    HW178749   1.534   7.860   6.614  0.0583 -0.1343  0.3097
57296SOL    HW278750   1.541   7.856   6.463  0.7772 -1.4262  0.3617
57297SOL     OW78751  12.060  11.740   7.674  0.3561 -0.5057 -0.6562
57297SOL    HW178752  12.142  11.787   7.668 -0.3696  0.8298 -0.5491
57297SOL    HW278753  12.054  11.690   7.593 -0.0741  1.6763 -2.0261
57298SOL     OW78754   0.100   3.448   9.060 -0.5898 -0.3702 -0.2357
57298SOL    HW178755   0.193   3.437   9.079 -0.4390 -0.5926 -1.0581
57298SOL    HW278756   0.069   3.509   9.127  0.6168  1.4167 -1.2138
57299SOL     OW78757   1.281   9.959  10.696  0.0006  0.3194  0.4022
57299SOL    HW178758   1.298   9.905  10.773  1.1408 -0.6368 -0.4757
57299SOL    HW278759   1.355  10.020  10.693 -1.0033  1.6175  1.0858
57300SOL     OW78760   1.781   7.712   7.801 -0.1356 -0.1387 -0.3461
57300SOL    HW178761   1.718   7.646   7.831 -0.2979  0.8188  1.5308
57300SOL    HW278762   1.866   7.671   7.812 -0.2609 -0.2136  0.4012
57301SOL     OW78763   1.758   5.218   7.602 -0.2698  0.2554 -0.2456
57301SOL    HW178764   1.693   5.197   7.670  0.6080 -1.3954  0.1338
57301SOL    HW278765   1.705   5.244   7.527 -1.4847 -1.8359 -0.2187
57302SOL     OW78766   5.232   2.112   3.766 -0.3382  0.3452  0.3790
57302SOL    HW178767   5.297   2.101   3.836  2.5210  0.9701 -1.9908
57302SOL    HW278768   5.257   2.048   3.700 -1.7308  1.0784 -0.9111
57303SOL     OW78769  11.875  12.229   8.287  0.3897  0.0203 -0.2060
57303SOL    HW178770  11.890  12.301   8.226 -0.3515  0.5727  0.2309
57303SOL    HW278771  11.921  12.255   8.367 -1.0005  0.7132  0.4241
57304SOL     OW78772   0.712  11.264   0.790 -0.3023 -0.4377 -0.3705
57304SOL    HW178773   0.764  11.328   0.839  1.2424  0.1603 -2.6007
57304SOL    HW278774   0.658  11.221   0.856  2.0205 -0.1105  1.9046
57305SOL     OW78775   4.048   2.689   2.342  0.2809  0.4330  0.4699
57305SOL    HW178776   4.029   2.711   2.251 -1.6729 -0.8710  0.4936
57305SOL    HW278777   3.965   2.657   2.376  1.4166 -0.8135  2.2024
57306SOL     OW78778   0.632   4.486   5.513  0.2430 -0.6308 -0.4186
57306SOL    HW178779   0.661   4.447   5.596  0.5144  0.8166  0.2058
57306SOL    HW278780   0.537   4.473   5.513  0.3789 -1.6823 -0.4565
57307SOL     OW78781   1.441   8.929   4.250 -0.0916  0.0094  0.1843
57307SOL    HW178782   1.494   8.850   4.243 -1.0432 -0.5925 -0.4774
57307SOL    HW278783   1.362   8.901   4.297 -1.4060  0.0045 -1.8878
57308SOL     OW78784   8.094   8.443   0.736 -0.3499  0.2271 -0.2461
57308SOL    HW178785   8.097   8.538   0.723 -1.1349  0.2278 -0.5008
57308SOL    HW278786   8.066   8.432   0.827 -0.9420  0.2468 -0.4226
57309SOL     OW78787   3.806   8.714  11.571 -0.1774  0.3832  0.0882
57309SOL    HW178788   3.762   8.706  11.656 -0.8750  1.7481 -0.1225
57309SOL    HW278789   3.823   8.807  11.560 -0.2363  0.2558 -1.3473
57310SOL     OW78790   2.176   5.908   9.980 -0.0152 -0.3932  0.7906
57310SOL    HW178791   2.125   5.933  10.057  0.0937  0.0198  0.7335
57310SOL    HW278792   2.176   5.987   9.925 -0.8871 -0.9545 -0.0729
57311SOL     OW78793   6.202   3.706   4.175  0.3306  0.6367  0.3170
57311SOL    HW178794   6.157   3.668   4.099 -0.3209 -0.0879  1.0409
57311SOL    HW278795   6.262   3.770   4.138 -1.2887  1.6371 -0.7019
57312SOL     OW78796   2.717   6.651   4.684 -0.0409  0.5941  0.2379
57312SOL    HW178797   2.655   6.630   4.614 -0.3605  0.3244  0.5999
57312SOL    HW278798   2.775   6.576   4.689 -0.0478  0.5929  0.2989
57313SOL     OW78799   1.892  10.178   4.053 -0.2179 -0.3748  0.0669
57313SOL    HW178800   1.987  10.185   4.045 -0.4079  0.1047 -2.7690
57313SOL    HW278801   1.873  10.087   4.031 -0.5110 -0.0490 -1.0761
57314SOL     OW78802   4.632   3.364   6.917 -0.1666 -0.2994  0.6021
57314SOL    HW178803   4.587   3.286   6.884 -0.9648 -0.0091  0.9808
57314SOL    HW278804   4.722   3.355   6.885 -0.3448 -1.1813  0.3218
57315SOL     OW78805  10.575   4.702   2.512 -0.1728 -0.0941  0.0364
57315SOL    HW178806  10.572   4.610   2.486 -4.1419  0.1194 -0.8544
57315SOL    HW278807  10.600   4.748   2.432  3.1964 -0.2912  0.7974
57316SOL     OW78808   1.459  11.758   3.290 -0.3044 -0.3654  0.0342
57316SOL    HW178809   1.542  11.806   3.287  0.4949 -1.7519 -0.8098
57316SOL    HW278810   1.407  11.805   3.355  1.3125  0.2493  0.9448
57317SOL     OW78811   9.682   2.101   7.975  0.0717  0.0100  0.0052
57317SOL    HW178812   9.643   2.118   8.061  1.6534 -0.9289  0.9573
57317SOL    HW278813   9.771   2.136   7.982  0.5854 -1.0703 -0.8669
57318SOL     OW78814   5.776   7.415   7.836  0.3234 -0.1183  0.3150
57318SOL    HW178815   5.723   7.405   7.915  0.6607 -1.7359  0.3814
57318SOL    HW278816   5.775   7.328   7.796  0.2939  0.6371 -1.3844
57319SOL     OW78817   1.979   4.280   1.968  0.1470 -0.5147 -0.0782
57319SOL    HW178818   1.962   4.185   1.966 -0.2928 -0.5246  1.9427
57319SOL    HW278819   2.034   4.293   2.046 -0.0142  0.9211 -0.1789
57320SOL     OW78820   2.307   7.077   4.589  0.9307 -0.3448 -0.1882
57320SOL    HW178821   2.233   7.081   4.650  1.2000 -0.7576  0.1767
57320SOL    HW278822   2.283   7.137   4.519  0.3850 -0.2421  0.0739
57321SOL     OW78823  11.004  11.220   2.531  0.3122  0.3619 -0.4696
57321SOL    HW178824  10.977  11.174   2.610  0.4939  1.5749  0.3269
57321SOL    HW278825  10.967  11.308   2.540  1.4591  0.9351 -1.0908
57322SOL     OW78826   1.904   8.475   6.957  0.2102 -0.0344  0.3535
57322SOL    HW178827   1.874   8.556   6.998 -0.8921  0.9429 -2.2010
57322SOL    HW278828   1.832   8.414   6.969 -0.3614  0.4372 -0.5913
57323SOL     OW78829  12.417   3.327   6.463 -0.0884 -0.3129  0.0572
57323SOL    HW178830  12.452   3.238   6.453 -3.6878 -2.0035  0.9228
57323SOL    HW278831  12.440   3.352   6.552  0.1316 -0.7311  0.1205
57324SOL     OW78832   1.016   6.425   3.167  0.2250 -0.3670  0.1987
57324SOL    HW178833   0.955   6.496   3.187 -1.0826 -1.0646 -1.1893
57324SOL    HW278834   0.986   6.352   3.221  0.9350 -0.2219  0.8250
57325SOL     OW78835   6.381  12.076   5.071  0.6428  0.2064 -0.1416
57325SOL    HW178836   6.473  12.100   5.066  0.0648  3.0143  1.0629
57325SOL    HW278837   6.335  12.144   5.022 -0.8935 -0.5238  0.1890
57326SOL     OW78838   7.274   7.429   3.311  0.0732  0.3004 -0.5440
57326SOL    HW178839   7.367   7.430   3.336 -0.1688  3.1321  0.5845
57326SOL    HW278840   7.270   7.484   3.232 -0.6447  0.1451 -0.6200
57327SOL     OW78841   8.394   7.008  11.234 -0.1284  0.5438 -0.0175
57327SOL    HW178842   8.308   6.994  11.272  0.5269  1.4287  1.9241
57327SOL    HW278843   8.446   7.047  11.305  2.2417 -1.1329 -0.7166
57328SOL     OW78844   8.121  11.232   8.041  1.0062 -0.1420 -0.1745
57328SOL    HW178845   8.138  11.231   8.135  0.6825  1.3515 -0.0770
57328SOL    HW278846   8.025  11.236   8.034  0.9718 -1.3380 -0.6004
57329SOL     OW78847   3.849   7.815   8.222  0.0473 -1.1158 -0.0542
57329SOL    HW178848   3.786   7.855   8.281 -0.0700 -0.9809 -0.2661
57329SOL    HW278849   3.862   7.880   8.153 -1.3900 -2.0517 -1.2962
57330SOL     OW78850   7.629  12.019   1.163  0.1910  0.2118 -0.3793
57330SOL    HW178851   7.572  11.942   1.155  1.7569 -1.1141  0.5776
57330SOL    HW278852   7.592  12.083   1.102 -1.0276 -1.3974 -1.4121
57331SOL     OW78853   4.629   8.322  10.618  0.0588 -0.5552 -0.9448
57331SOL    HW178854   4.673   8.404  10.643 -1.2822 -0.4997  1.5044
57331SOL    HW278855   4.701   8.262  10.598  1.1215  0.6455 -0.8651
57332SOL     OW78856   9.128   3.269   3.275  0.5159  0.2606  0.6028
57332SOL    HW178857   9.061   3.304   3.333 -1.1310  1.1597 -1.6813
57332SOL    HW278858   9.151   3.342   3.218  1.6006 -0.7305 -0.2967
57333SOL     OW78859   4.937  11.468   1.508 -0.2466  0.0344  0.4421
57333SOL    HW178860   4.862  11.422   1.471  0.0129  0.7270 -1.0393
57333SOL    HW278861   4.986  11.498   1.431  1.2349  0.0874  1.3812
57334SOL     OW78862   9.500   4.019  10.240  0.5228 -0.4164  0.2366
57334SOL    HW178863   9.579   3.971  10.217  0.6165 -0.5331  0.7904
57334SOL    HW278864   9.505   4.100  10.189  1.0081 -0.4156  0.2820
57335SOL     OW78865   3.663   7.424  10.337 -0.0470  0.0990  0.2449
57335SOL    HW178866   3.734   7.466  10.385 -0.9874 -0.8787  2.6018
57335SOL    HW278867   3.649   7.481  10.261  2.0304  1.2632  0.6493
57336SOL     OW78868   6.767  12.134   2.149  0.5349 -0.4100  0.1157
57336SOL    HW178869   6.711  12.211   2.146  2.1494  0.8909  1.4134
57336SOL    HW278870   6.829  12.146   2.076 -0.6466 -1.7208 -1.1665
57337SOL     OW78871   2.955   8.307   5.595 -0.0665  0.3808  0.3959
57337SOL    HW178872   2.913   8.384   5.556 -0.3207 -1.0264 -2.3884
57337SOL    HW278873   3.044   8.335   5.613 -0.7646  1.9627  1.6492
57338SOL     OW78874   3.183  11.383  10.643 -0.6923  0.2460  0.5194
57338SOL    HW178875   3.212  11.460  10.595  1.7000 -0.7517  0.2302
57338SOL    HW278876   3.089  11.397  10.656 -0.9708  1.7131 -2.2631
57339SOL     OW78877   0.638   5.736   4.775 -0.4414 -0.2947 -0.2476
57339SOL    HW178878   0.601   5.678   4.840  0.5364 -1.3576 -0.6062
57339SOL    HW278879   0.700   5.791   4.824 -0.6247 -0.2380 -0.0798
57340SOL     OW78880   5.545  11.583   0.587  0.0551 -0.2617 -0.0145
57340SOL    HW178881   5.473  11.529   0.620  1.3148 -1.5865  0.6953
57340SOL    HW278882   5.572  11.636   0.662  1.8691 -2.1203  0.7686
57341SOL     OW78883   7.483  11.171  10.105  0.2250 -0.0166  0.1326
57341SOL    HW178884   7.456  11.147  10.017  1.4378  0.2752 -0.3456
57341SOL    HW278885   7.566  11.217  10.093  1.0704 -1.0824  1.5130
57342SOL     OW78886   4.066   5.415   9.971  0.1909  0.4975  0.1052
57342SOL    HW178887   4.026   5.488  10.019  0.3107 -0.1442  1.2154
57342SOL    HW278888   4.018   5.338  10.001  0.7525 -0.0073 -0.2837
57343SOL     OW78889   3.397   8.686   2.407 -0.3066  0.0020  0.2301
57343SOL    HW178890   3.351   8.609   2.376  1.5644 -0.9567 -0.3121
57343SOL    HW278891   3.381   8.688   2.501 -0.6955 -0.8291  0.1812
57344SOL     OW78892   2.394   0.147  11.709 -0.0519 -0.1459  0.1966
57344SOL    HW178893   2.409   0.168  11.801 -1.4012  0.3446  0.3262
57344SOL    HW278894   2.344   0.220  11.675  0.1916 -0.4516 -0.8739
57345SOL     OW78895   3.660  12.070   5.972  0.2329 -0.3599  0.0396
57345SOL    HW178896   3.632  12.161   5.984 -1.0140 -0.8112  0.6923
57345SOL    HW278897   3.647  12.054   5.879 -0.3161 -0.1112  0.0671
57346SOL     OW78898  10.444   2.462  10.224  0.8477  0.9761  0.1976
57346SOL    HW178899  10.511   2.400  10.194 -0.4671  0.5069 -2.0743
57346SOL    HW278900  10.429   2.439  10.315  0.8690 -1.7006 -0.3770
57347SOL     OW78901   1.228   6.608   9.457  0.3471 -0.3986 -0.3604
57347SOL    HW178902   1.265   6.640   9.375  0.1692  0.1071 -0.2447
57347SOL    HW278903   1.222   6.513   9.445 -0.0324 -0.2921 -1.0811
57348SOL     OW78904   0.256   4.303   2.726 -0.0183 -0.2494 -0.2592
57348SOL    HW178905   0.194   4.317   2.798  1.1505 -0.1513  0.7698
57348SOL    HW278906   0.340   4.332   2.761  1.0134 -2.2749 -0.8543
57349SOL     OW78907   4.764   6.684   1.251  0.1023 -0.4830  0.0722
57349SOL    HW178908   4.756   6.620   1.321  0.5314 -0.9325 -0.2879
57349SOL    HW278909   4.687   6.670   1.196  1.2905 -2.2145 -1.2473
57350SOL     OW78910   1.315   8.821   8.478  0.1018  0.4092 -0.7489
57350SOL    HW178911   1.328   8.821   8.573 -0.4578  1.4303 -0.6628
57350SOL    HW278912   1.221   8.813   8.467  0.0241  1.6527 -1.1725
57351SOL     OW78913  11.948   7.221   9.329  0.3903 -0.3976  0.3001
57351SOL    HW178914  11.855   7.228   9.350  0.5648  1.5709  0.6209
57351SOL    HW278915  11.991   7.219   9.415  0.7149  0.4688  0.1672
57352SOL     OW78916   4.225   9.996  12.101 -0.5503 -0.1600  0.1208
57352SOL    HW178917   4.274  10.014  12.021 -0.3638  0.8187  0.4436
57352SOL    HW278918   4.280  10.030  12.171 -0.9809 -0.4701  0.6182
57353SOL     OW78919  10.576   1.941   5.754  0.0141  0.3966  0.2867
57353SOL    HW178920  10.595   1.953   5.846 -1.1814  0.2152  0.5795
57353SOL    HW278921  10.647   1.985   5.708 -0.5037  2.3995  1.3010
57354SOL     OW78922  10.332   0.511   5.440 -0.1621  0.1318  0.8960
57354SOL    HW178923  10.342   0.500   5.345  1.4564 -0.8139  1.1473
57354SOL    HW278924  10.346   0.605   5.454 -0.5909  0.3090  0.1864
57355SOL     OW78925  10.303   6.249   5.796 -0.0893 -0.1481 -0.4596
57355SOL    HW178926  10.283   6.308   5.724  0.5393  1.4185  0.6018
57355SOL    HW278927  10.353   6.302   5.858  1.0833 -1.9723  0.2449
57356SOL     OW78928   8.823   0.849   3.933 -0.0887 -0.7953 -0.1026
57356SOL    HW178929   8.769   0.910   3.882 -1.3800 -0.4444  1.5696
57356SOL    HW278930   8.898   0.901   3.960 -0.0141 -0.6280 -0.6137
57357SOL     OW78931   8.801   2.414   6.828  0.0194 -0.4626  0.6444
57357SOL    HW178932   8.845   2.339   6.788 -2.2243 -1.9066  0.6909
57357SOL    HW278933   8.794   2.392   6.920  2.2417  1.3704  1.3438
57358SOL     OW78934   3.281   3.120   4.859 -0.6501  0.2942 -1.0166
57358SOL    HW178935   3.251   3.135   4.949 -0.0044  1.6421 -0.9995
57358SOL    HW278936   3.319   3.033   4.860 -0.6281  0.3103  0.0302
57359SOL     OW78937   9.798   9.550   6.598  0.6334  0.2418  0.2340
57359SOL    HW178938   9.868   9.571   6.659  1.1757  2.0613 -0.9394
57359SOL    HW278939   9.751   9.478   6.640  2.3076 -0.0643  1.7272
57360SOL     OW78940   2.108   8.337   5.626 -0.2790  0.3350  0.5864
57360SOL    HW178941   2.126   8.342   5.720  0.6742 -1.7855  0.5786
57360SOL    HW278942   2.186   8.374   5.585  0.2728 -0.7156  0.6449
57361SOL     OW78943   0.537  11.330  11.898  0.6192 -0.0678 -1.0161
57361SOL    HW178944   0.495  11.402  11.851 -2.4046 -0.3586  0.9858
57361SOL    HW278945   0.466  11.283  11.941  2.7153 -2.7875 -0.1705
57362SOL     OW78946   5.213   9.601   2.152 -0.3594  0.7225  0.1477
57362SOL    HW178947   5.244   9.511   2.147 -1.5782  0.0987  2.2417
57362SOL    HW278948   5.136   9.603   2.095 -2.0183 -0.4523  2.1737
57363SOL     OW78949   0.347   1.188   0.280  0.5292 -0.2546  0.1133
57363SOL    HW178950   0.343   1.100   0.317  0.8541 -0.7830 -1.0577
57363SOL    HW278951   0.312   1.245   0.349  0.9570 -1.2070  1.1443
57364SOL     OW78952  10.753  10.730   4.979 -0.2246  0.3088  0.1038
57364SOL    HW178953  10.756  10.639   5.007 -1.5985  0.2042 -0.0160
57364SOL    HW278954  10.770  10.727   4.885 -0.6853  0.1187  0.0225
57365SOL     OW78955   4.074   0.091   7.953 -0.1642 -0.1578 -0.1660
57365SOL    HW178956   4.074   0.071   7.859 -1.4299 -0.6170 -0.0917
57365SOL    HW278957   4.106   0.011   7.995 -1.6730 -0.7738 -0.1021
57366SOL     OW78958   3.480   4.701  10.335  0.6944  0.2441  0.1608
57366SOL    HW178959   3.459   4.686  10.243 -0.2468 -0.6733  0.5062
57366SOL    HW278960   3.399   4.682  10.382  0.7893  1.8974  1.0970
57367SOL     OW78961  11.845  10.858   4.874  0.2775  0.2835  0.3346
57367SOL    HW178962  11.821  10.798   4.803  1.9654 -0.0837  0.0253
57367SOL    HW278963  11.915  10.813   4.921 -1.1433  0.2917  2.6106
57368SOL     OW78964   6.712   9.404  10.952  0.8375 -0.1554 -0.0923
57368SOL    HW178965   6.744   9.487  10.915 -0.4148  0.5274  0.2912
57368SOL    HW278966   6.741   9.405  11.043  1.5147 -0.5359 -0.2926
57369SOL     OW78967   4.552   3.362   0.617  0.2147  0.0167  0.8213
57369SOL    HW178968   4.597   3.444   0.598 -1.6607  1.0448  0.6102
57369SOL    HW278969   4.610   3.294   0.581  1.2311  1.3120 -0.0827
57370SOL     OW78970   4.564   9.677   1.767 -0.2101 -0.0756 -0.2847
57370SOL    HW178971   4.585   9.765   1.737 -0.6844 -0.3679 -1.4893
57370SOL    HW278972   4.470   9.669   1.757 -0.4958 -0.0125  1.8031
57371SOL     OW78973   4.806   3.919   6.789 -0.0066  0.1552  0.2200
57371SOL    HW178974   4.878   3.980   6.775 -0.5290  0.7374  0.0139
57371SOL    HW278975   4.825   3.846   6.731  0.5133  0.2186  0.3045
57372SOL     OW78976   7.819   2.553   5.375  0.1137 -0.0461 -0.2499
57372SOL    HW178977   7.731   2.570   5.409 -0.6132 -1.2605 -1.4352
57372SOL    HW278978   7.835   2.461   5.392  1.9730  0.5480  1.6397
57373SOL     OW78979   4.523   1.911  12.303 -0.1485 -0.0789  0.2960
57373SOL    HW178980   4.451   1.970  12.280 -0.7945 -0.7532  0.5143
57373SOL    HW278981   4.489   1.859  12.376  1.0582  0.5021  1.2995
57374SOL     OW78982   1.228   0.419   1.301  0.0052  0.8154 -0.3002
57374SOL    HW178983   1.253   0.494   1.356  1.5583 -0.9405  1.5830
57374SOL    HW278984   1.173   0.457   1.232 -1.6193  3.2940  2.1098
57375SOL     OW78985   9.510   7.681   2.772 -0.0886 -0.4573  0.1260
57375SOL    HW178986   9.483   7.718   2.856 -1.7981 -2.2965  0.4611
57375SOL    HW278987   9.576   7.615   2.795  1.4512  0.8547 -0.2871
57376SOL     OW78988   2.086   7.629  12.435 -0.1009  0.0715 -0.3327
57376SOL    HW178989   2.075   7.547  12.483 -3.2343 -0.0913 -1.1130
57376SOL    HW278990   2.031   7.692  12.483  1.3546  1.4620 -0.4035
57377SOL     OW78991  12.478   5.219   7.059  0.2450 -0.2663 -0.9014
57377SOL    HW178992  12.485   5.126   7.079  0.8007 -0.3141 -1.2995
57377SOL    HW278993  12.567   5.252   7.066 -0.3616  1.1156  3.2815
57378SOL     OW78994   8.238   5.542  11.967  0.1487 -0.5556 -0.2120
57378SOL    HW178995   8.287   5.573  11.890  0.7726 -0.4610  0.2120
57378SOL    HW278996   8.217   5.451  11.946  1.3416 -0.8997 -0.0214
57379SOL     OW78997   0.967   6.892   2.668  0.0246  0.3626 -0.4752
57379SOL    HW178998   0.910   6.891   2.591 -2.3597  2.3686  1.1152
57379SOL    HW278999   0.910   6.868   2.741  1.5507  1.0408  1.0212
57380SOL     OW79000   3.447   7.020   0.691 -0.2471  0.2685  0.3258
57380SOL    HW179001   3.432   6.975   0.608  1.3545 -0.5233  0.4400
57380SOL    HW279002   3.368   7.000   0.743  0.4058 -2.5609  0.4143
57381SOL     OW79003   1.275   1.202  12.155 -0.0873 -0.5416  0.4315
57381SOL    HW179004   1.298   1.205  12.062 -1.2169  2.1492  0.1375
57381SOL    HW279005   1.355   1.230  12.200 -0.2925  0.7097  0.0449
57382SOL     OW79006   7.946   9.233   2.755  0.0205  0.2232 -0.2673
57382SOL    HW179007   8.034   9.199   2.745 -0.4833 -0.8197 -1.3748
57382SOL    HW279008   7.928   9.228   2.849  1.3574  1.0712  0.0553
57383SOL     OW79009   3.022  11.221   1.902  0.4450  0.3509  0.6356
57383SOL    HW179010   3.056  11.204   1.814 -1.8740  3.7656 -1.1131
57383SOL    HW279011   3.049  11.311   1.921 -0.7978  0.3608  2.5734
57384SOL     OW79012   5.352   9.657   0.196  0.1015 -0.5778  0.0390
57384SOL    HW179013   5.293   9.627   0.126  0.4535 -0.7142 -0.1977
57384SOL    HW279014   5.438   9.623   0.172  0.6512  1.1310 -0.5832
57385SOL     OW79015  12.280   4.044   8.377 -0.4931 -0.0468  0.4489
57385SOL    HW179016  12.244   4.129   8.351 -1.1974 -0.3919  0.2551
57385SOL    HW279017  12.203   3.993   8.405 -0.2836 -1.1086 -0.8169
57386SOL     OW79018   4.934   0.561   2.127 -0.3603  0.3632 -0.0827
57386SOL    HW179019   4.916   0.652   2.147 -1.4961  0.6613 -2.1562
57386SOL    HW279020   4.850   0.516   2.142  0.2511 -0.4180  1.1740
57387SOL     OW79021   8.164   3.308  10.174 -0.1255  0.2872 -0.3044
57387SOL    HW179022   8.103   3.235  10.162 -0.5282  0.6078 -0.2500
57387SOL    HW279023   8.243   3.268  10.209 -0.7147  0.0028  0.7648
57388SOL     OW79024   6.029   0.615   4.022 -0.4578  0.2716  0.7819
57388SOL    HW179025   5.974   0.638   4.098  1.1900  2.2641  1.4619
57388SOL    HW279026   5.987   0.660   3.948 -1.5663 -0.9446  0.6373
57389SOL     OW79027   8.373   4.562   8.220  0.3358  0.0477  0.2124
57389SOL    HW179028   8.291   4.515   8.206  0.1747  0.5257 -0.4856
57389SOL    HW279029   8.439   4.493   8.227 -0.2255 -0.3880  1.6595
57390SOL     OW79030   4.389   2.892   7.615 -0.0866 -0.3685  0.0866
57390SOL    HW179031   4.343   2.960   7.566  1.9145  0.3441 -0.9337
57390SOL    HW279032   4.459   2.938   7.660  0.2297 -1.5200  0.8146
57391SOL     OW79033   0.178   3.858   9.432  0.5913 -0.1393  0.8816
57391SOL    HW179034   0.260   3.810   9.448  0.6796  0.5599  2.7600
57391SOL    HW279035   0.112   3.810   9.482  0.3404  0.6567  1.3310
57392SOL     OW79036   4.911   9.783   5.944 -0.4676 -0.0456  0.0122
57392SOL    HW179037   4.883   9.871   5.920 -0.1820  0.1501  0.3989
57392SOL    HW279038   4.855   9.759   6.018 -0.1781  0.0253  0.2564
57393SOL     OW79039   2.718   4.651   7.269 -0.0118  0.5236  0.1574
57393SOL    HW179040   2.633   4.688   7.245 -0.0648  0.6710  0.5782
57393SOL    HW279041   2.750   4.707   7.339 -0.0123 -0.1194  0.6798
57394SOL     OW79042   1.410  11.319   7.127  0.2114 -0.3122  0.0424
57394SOL    HW179043   1.490  11.368   7.111 -0.1981  0.4640  0.3250
57394SOL    HW279044   1.436  11.249   7.186  0.5428  0.3574  0.6972
57395SOL     OW79045   7.896   0.139   1.984  0.8665  0.2008 -0.4617
57395SOL    HW179046   7.978   0.091   1.995  1.1879  0.5818 -1.1230
57395SOL    HW279047   7.855   0.100   1.908 -0.0811 -0.6800  0.4702
57396SOL     OW79048   6.738   5.769   4.747  0.1341 -0.0633  0.6909
57396SOL    HW179049   6.676   5.828   4.704  0.7463  0.1116  0.0475
57396SOL    HW279050   6.722   5.684   4.707 -0.1878 -0.1744  1.0456
57397SOL     OW79051   3.730   3.582   0.901 -0.3101 -0.0366 -0.2942
57397SOL    HW179052   3.815   3.592   0.943 -0.0648  0.0656 -0.8186
57397SOL    HW279053   3.679   3.531   0.965  0.2702 -0.4575 -0.1548
57398SOL     OW79054  10.901   2.500   4.672  0.0210  0.2477 -0.4109
57398SOL    HW179055  10.878   2.415   4.633 -0.3549  0.7826 -1.3753
57398SOL    HW279056  10.874   2.565   4.607 -0.1451  1.1437  0.5250
57399SOL     OW79057  12.215   2.417  12.112 -0.6016 -0.2473  0.2968
57399SOL    HW179058  12.184   2.400  12.201  1.1210  0.7587  1.1520
57399SOL    HW279059  12.136   2.425  12.060 -1.6537 -1.1391  1.6881
57400SOL     OW79060   8.304   8.894   4.391 -0.5266  0.4666  0.6523
57400SOL    HW179061   8.253   8.974   4.378  0.4734  0.9212 -0.7690
57400SOL    HW279062   8.264   8.830   4.331  0.1444  0.6162  0.0448
57401SOL     OW79063   3.423   5.600  10.058  0.2361  0.8203 -0.5320
57401SOL    HW179064   3.392   5.627   9.972 -1.2632  0.6249 -0.0967
57401SOL    HW279065   3.359   5.638  10.119  0.9985  0.5672  0.4549
57402SOL     OW79066   7.477   6.296  12.341 -0.2620 -0.4629 -0.5513
57402SOL    HW179067   7.400   6.319  12.392 -0.7472  0.3133 -1.5880
57402SOL    HW279068   7.545   6.277  12.406 -0.9551  0.1256  0.3660
57403SOL     OW79069   8.133   4.849   0.102  0.7205  0.0730  0.3625
57403SOL    HW179070   8.054   4.884   0.144  0.1881  0.0489 -0.5829
57403SOL    HW279071   8.139   4.759   0.134 -0.8691 -0.6356 -1.1571
57404SOL     OW79072   3.082   4.992   8.922 -0.5099  0.3578  0.5807
57404SOL    HW179073   3.066   4.991   8.827 -3.6473 -0.0291  0.9848
57404SOL    HW279074   3.070   4.901   8.948 -2.4286  0.8599  1.6361
57405SOL     OW79075   4.239   7.560   9.773  0.5298  0.3485 -0.3565
57405SOL    HW179076   4.230   7.656   9.774  1.6838  0.4863 -1.3843
57405SOL    HW279077   4.257   7.539   9.682  1.0547 -0.7850 -0.0039
57406SOL     OW79078   9.241  11.994  10.625 -0.2295  0.2117 -0.2457
57406SOL    HW179079   9.217  11.949  10.544 -0.4189 -0.3019  0.0908
57406SOL    HW279080   9.285  11.927  10.677 -0.5963  0.3912  0.3037
57407SOL     OW79081   8.634   4.507   1.133  0.0972 -0.0991  0.2908
57407SOL    HW179082   8.591   4.422   1.139  0.7650 -0.3859  1.3359
57407SOL    HW279083   8.665   4.512   1.042  0.0229 -0.9536  0.2085
57408SOL     OW79084   2.895  10.087   0.595 -0.0443 -0.3285  0.0615
57408SOL    HW179085   2.956  10.059   0.662 -1.1788 -0.2699  1.1532
57408SOL    HW279086   2.945  10.147   0.540  0.4155  1.1737  2.0201
57409SOL     OW79087   8.681   7.902   8.429  0.0439 -0.1503 -0.1669
57409SOL    HW179088   8.723   7.954   8.497  1.2431  0.4648 -1.3261
57409SOL    HW279089   8.751   7.884   8.365 -0.7294 -1.8022 -0.6102
57410SOL     OW79090  12.129   5.480   7.381  0.1820  0.0029  0.3945
57410SOL    HW179091  12.218   5.458   7.355 -0.6526 -0.1500 -2.6489
57410SOL    HW279092  12.120   5.573   7.359 -0.1261  0.3115  1.7137
57411SOL     OW79093   6.878   0.105   6.297  0.0586 -0.2001  0.3320
57411SOL    HW179094   6.850   0.056   6.375 -0.4310  1.1284  1.0302
57411SOL    HW279095   6.857   0.048   6.224  0.9282 -1.6633  1.1908
57412SOL     OW79096   6.189   0.404   4.017 -0.1183  0.3983 -0.3992
57412SOL    HW179097   6.133   0.481   4.004  0.1125  0.5343 -0.6090
57412SOL    HW279098   6.278   0.440   4.019 -0.0733  0.2607  0.5467
57413SOL     OW79099  10.197   8.958   1.554  0.9475 -0.5071  0.9703
57413SOL    HW179100  10.117   8.954   1.502  0.9917 -0.9100  0.9339
57413SOL    HW279101  10.246   9.031   1.516  0.7219 -0.4354  0.8130
57414SOL     OW79102   2.977   0.290   1.307  0.0113 -0.1219  0.3871
57414SOL    HW179103   2.915   0.288   1.234  1.4686  0.1138 -0.8982
57414SOL    HW279104   2.992   0.383   1.324 -0.1601 -0.1763  0.8619
57415SOL     OW79105   0.696   2.792   4.788 -0.0809 -0.4300  0.4772
57415SOL    HW179106   0.654   2.876   4.771 -0.2751 -0.1681  2.0470
57415SOL    HW279107   0.624   2.732   4.806  0.1210 -0.4901  1.1125
57416SOL     OW79108   3.747   3.910  12.009  0.3181  0.1344  0.2096
57416SOL    HW179109   3.810   3.913  11.937 -1.1968  0.7239 -1.1532
57416SOL    HW279110   3.753   3.996  12.050  0.0051  0.3897 -0.2756
57417SOL     OW79111   4.196  11.853   3.670  0.0827 -0.2800  0.4216
57417SOL    HW179112   4.104  11.828   3.683 -0.3173  1.2720  0.8416
57417SOL    HW279113   4.215  11.911   3.743  0.6361  1.3621 -0.9686
57418SOL     OW79114   9.001  10.298   8.582  0.1401 -0.4274 -0.4604
57418SOL    HW179115   8.951  10.217   8.574 -0.5875  0.0587 -1.0474
57418SOL    HW279116   8.945  10.364   8.541  0.1053  0.6239  1.1976
57419SOL     OW79117   2.781   9.952   0.163  0.2471  0.0057 -0.4105
57419SOL    HW179118   2.818  10.039   0.150  1.5228 -0.4799 -0.1986
57419SOL    HW279119   2.695   9.968   0.204  0.3589  1.1562 -0.5910
57420SOL     OW79120   3.482   9.172  10.691 -0.1762 -0.4490  0.3368
57420SOL    HW179121   3.523   9.101  10.641  0.7635  0.6792 -0.5395
57420SOL    HW279122   3.462   9.132  10.776 -1.5825 -2.3461 -0.7943
57421SOL     OW79123  12.174  10.260   9.462  0.4452 -0.5652 -0.3852
57421SOL    HW179124  12.179  10.171   9.498  0.6256  0.1663  1.5469
57421SOL    HW279125  12.175  10.316   9.539  0.3347  1.1270 -1.5715
57422SOL     OW79126  12.214   4.737   5.063 -0.5390  0.6867  0.0677
57422SOL    HW179127  12.119   4.742   5.056 -0.5542  0.1156 -0.2364
57422SOL    HW279128  12.230   4.664   5.122 -0.2850 -1.4773 -2.4738
57423SOL     OW79129   7.388  10.255   7.172 -0.7572 -0.0796 -0.2126
57423SOL    HW179130   7.463  10.209   7.209  0.3288  1.5797 -0.2363
57423SOL    HW279131   7.347  10.299   7.246 -1.8355 -1.0954 -0.1766
57424SOL     OW79132   8.786   3.452   6.273 -0.5266  0.0526 -0.6070
57424SOL    HW179133   8.812   3.446   6.181  1.9443 -0.6535  0.0647
57424SOL    HW279134   8.860   3.495   6.316 -1.7634  0.6227  1.0134
57425SOL     OW79135   8.413   0.778   4.574 -0.3476 -0.2670 -0.6468
57425SOL    HW179136   8.431   0.746   4.485 -0.1994 -0.7438 -0.4472
57425SOL    HW279137   8.458   0.716   4.631  2.0311  1.6404 -0.2926
57426SOL     OW79138   5.615   3.982   7.630  0.3134  0.4691  0.0740
57426SOL    HW179139   5.564   3.972   7.550 -2.2752 -0.5668  1.7007
57426SOL    HW279140   5.633   4.076   7.636 -1.6322  0.9314 -0.5329
57427SOL     OW79141   2.229   2.748   1.609 -0.0962 -0.5015 -0.0055
57427SOL    HW179142   2.314   2.753   1.566  1.7010 -0.3746  3.2729
57427SOL    HW279143   2.198   2.659   1.590  2.1608 -1.5870  1.0615
57428SOL     OW79144  11.908   5.708   5.307 -0.4946 -0.3203 -0.2003
57428SOL    HW179145  11.938   5.703   5.217  0.1163 -1.7633  0.0605
57428SOL    HW279146  11.947   5.789   5.341  3.1289 -1.9745  0.0812
57429SOL     OW79147   0.365   2.335   4.001  0.0300 -0.3282  0.3692
57429SOL    HW179148   0.449   2.292   3.986 -0.1513  0.0783 -2.2039
57429SOL    HW279149   0.301   2.282   3.953 -0.7961  0.6753  0.3145
57430SOL     OW79150  11.314   2.862   6.848  0.1710  0.5285  0.2102
57430SOL    HW179151  11.401   2.828   6.826 -0.1950  0.9658 -2.1840
57430SOL    HW279152  11.318   2.955   6.825 -1.6778  0.0179 -2.5923
57431SOL     OW79153   4.115  11.804   1.824 -0.1416  0.0533 -0.2600
57431SOL    HW179154   4.094  11.864   1.753  0.5988 -0.4547 -0.9332
57431SOL    HW279155   4.139  11.860   1.898 -0.0999  0.5764 -0.6694
57432SOL     OW79156   2.042   9.504   3.955  0.0467 -0.1144  0.0081
57432SOL    HW179157   2.083   9.573   3.904 -0.6446  0.4109  0.1605
57432SOL    HW279158   1.948   9.517   3.944 -0.0944 -1.0931 -0.0496
57433SOL     OW79159   9.864   6.503   0.026  0.2668 -0.0170  0.0309
57433SOL    HW179160   9.825   6.591   0.029 -2.3941 -1.1024 -0.2404
57433SOL    HW279161   9.793   6.445   0.055  1.0352 -2.3649 -2.4747
57434SOL     OW79162   1.370  10.182   6.483  0.3625 -0.2545  0.0551
57434SOL    HW179163   1.278  10.155   6.493  0.6013 -0.2863  3.8272
57434SOL    HW279164   1.366  10.260   6.428 -1.5342 -1.8236 -2.2237
57435SOL     OW79165   0.776   9.886   8.267  0.0239 -0.1625  0.6501
57435SOL    HW179166   0.766   9.972   8.308  0.1120 -0.9705  2.4938
57435SOL    HW279167   0.869   9.866   8.276  0.5141  0.5710 -2.0514
57436SOL     OW79168  12.314   8.826   0.750  0.2559  1.0934 -0.5791
57436SOL    HW179169  12.405   8.802   0.768  0.5342  2.8819  0.6870
57436SOL    HW279170  12.320   8.912   0.707 -0.8629  2.2735  1.4868
57437SOL     OW79171   8.140   0.391  12.054  0.2059  0.0328 -0.2494
57437SOL    HW179172   8.172   0.312  12.097 -1.0968  0.1763  1.0637
57437SOL    HW279173   8.206   0.457  12.074  0.5541 -0.3654 -0.0729
57438SOL     OW79174   4.455   6.153   9.634 -0.0426 -0.1059 -0.1414
57438SOL    HW179175   4.440   6.160   9.540  0.6197  0.9774 -0.1859
57438SOL    HW279176   4.368   6.162   9.673 -0.0870  1.8218 -0.5691
57439SOL     OW79177  10.314   2.503   0.659 -0.7392 -0.3785  0.3156
57439SOL    HW179178  10.274   2.588   0.640  1.3951  0.1126 -2.6552
57439SOL    HW279179  10.303   2.452   0.578  0.3655 -1.9453  1.0940
57440SOL     OW79180   6.537   0.530   0.893  0.0365  0.0453  0.2248
57440SOL    HW179181   6.570   0.441   0.907  1.0722  0.6124  1.6333
57440SOL    HW279182   6.459   0.518   0.839  1.3493 -1.5378 -1.4597
57441SOL     OW79183   4.296   9.835   3.248 -0.4104 -0.3734  0.2210
57441SOL    HW179184   4.360   9.854   3.179  0.1945 -2.3131  0.1748
57441SOL    HW279185   4.276   9.920   3.287  1.0652  0.4651 -0.7496
57442SOL     OW79186  10.945   1.761   4.420  0.3738  0.1006 -0.4777
57442SOL    HW179187  10.937   1.672   4.387 -0.3572  0.0035 -0.0449
57442SOL    HW279188  10.912   1.816   4.348  2.6091  0.1946 -1.5385
57443SOL     OW79189  11.507   9.138   4.536  0.0308 -0.4101  0.4096
57443SOL    HW179190  11.417   9.106   4.531 -0.3286  0.7378 -1.2444
57443SOL    HW279191  11.499   9.230   4.562  0.5774  0.2085 -1.4995
57444SOL     OW79192  11.773   2.890   0.872 -0.0074 -0.3215 -0.2053
57444SOL    HW179193  11.813   2.970   0.906 -0.2395 -0.0894 -0.4728
57444SOL    HW279194  11.846   2.828   0.864  0.0155 -0.4695  0.9390
57445SOL     OW79195   3.760   4.212  11.869 -0.2534 -0.8635  0.7790
57445SOL    HW179196   3.665   4.205  11.856 -0.1888 -0.4691  0.0672
57445SOL    HW279197   3.797   4.215  11.781  0.3379 -0.0137  1.0423
57446SOL     OW79198   1.400  10.726   2.111  0.3367  0.0811 -0.3972
57446SOL    HW179199   1.494  10.719   2.124 -0.0604 -0.2371  4.2879
57446SOL    HW279200   1.378  10.814   2.141 -0.8523  0.2141 -1.5807
57447SOL     OW79201   6.385   9.309   8.926  0.3298 -0.2740 -0.6476
57447SOL    HW179202   6.321   9.366   8.968  0.4808 -0.1267 -0.6202
57447SOL    HW279203   6.459   9.366   8.907  0.2480 -0.3278 -1.1455
57448SOL     OW79204   3.365   6.639   2.137 -0.4050 -0.5722  0.3670
57448SOL    HW179205   3.456   6.658   2.112 -0.4916 -1.6690 -0.8461
57448SOL    HW279206   3.370   6.618   2.230  0.4165  0.4367  0.5737
57449SOL     OW79207   0.307   4.178   8.519  0.2569  0.4876 -0.2463
57449SOL    HW179208   0.221   4.167   8.560 -1.3892  1.7004 -3.0738
57449SOL    HW279209   0.369   4.145   8.584 -2.3017 -0.2504  2.0055
57450SOL     OW79210   4.259   1.102   6.877 -0.6800  0.5175  0.1917
57450SOL    HW179211   4.315   1.156   6.933 -0.4673  0.1433  0.3521
57450SOL    HW279212   4.307   1.019   6.869 -2.3192 -0.7642  2.4143
57451SOL     OW79213  10.950   9.433   3.242  0.0180  0.2290  0.1752
57451SOL    HW179214  11.022   9.435   3.178  3.2075 -2.5238  3.2073
57451SOL    HW279215  10.918   9.343   3.239  0.1103  0.0797  2.1513
57452SOL     OW79216   5.986   1.928   9.476  0.1665 -0.0272  0.1691
57452SOL    HW179217   5.946   1.855   9.524 -0.0297  0.3738  0.6294
57452SOL    HW279218   6.027   1.888   9.400  0.4681 -0.6769  0.6722
57453SOL     OW79219   6.229   7.772   1.838  0.5302  0.7110  0.7539
57453SOL    HW179220   6.220   7.700   1.901  0.6219  0.4387  0.4567
57453SOL    HW279221   6.166   7.750   1.769  2.3955 -0.4908 -0.6765
57454SOL     OW79222   0.887   7.207  12.003 -0.6058  0.1828 -0.1509
57454SOL    HW179223   0.946   7.172  12.069 -1.9214  0.8717  1.4680
57454SOL    HW279224   0.803   7.166  12.022 -1.3596  1.5369 -0.4225
57455SOL     OW79225  11.555   6.950   2.784  0.2001  0.4211  0.5839
57455SOL    HW179226  11.521   7.026   2.831 -1.2986  0.0435  0.1776
57455SOL    HW279227  11.570   6.982   2.695  1.3983  0.7010  0.8694
57456SOL     OW79228   2.635   1.178   0.789  0.2445 -0.3898 -0.1281
57456SOL    HW179229   2.685   1.213   0.714  1.6440  0.1058  0.9787
57456SOL    HW279230   2.583   1.253   0.819  1.6976  0.2320  0.9824
57457SOL     OW79231   8.979   6.180   2.798 -0.0458  0.4147  0.2339
57457SOL    HW179232   9.020   6.127   2.730 -1.8298  0.4623 -0.9311
57457SOL    HW279233   8.934   6.117   2.854 -1.0333  0.5895 -0.3568
57458SOL     OW79234   8.894  10.474   6.065 -0.4437  0.3247 -0.2955
57458SOL    HW179235   8.897  10.444   6.155  0.6984  1.4051  0.0519
57458SOL    HW279236   8.984  10.501   6.045 -0.9234  1.2278 -1.3486
57459SOL     OW79237   7.794   6.238  11.636 -0.3796  0.1604 -0.6314
57459SOL    HW179238   7.705   6.273  11.635 -0.7470 -0.6017  1.2102
57459SOL    HW279239   7.796   6.181  11.713  1.9934  0.9170 -0.0781
57460SOL     OW79240   7.920  11.813   8.081  0.2797  0.3575 -0.4989
57460SOL    HW179241   7.839  11.819   8.030 -1.0176 -1.0654  1.2513
57460SOL    HW279242   7.983  11.865   8.032 -0.8089 -1.0212 -3.5704
57461SOL     OW79243  11.977   1.083  11.455  0.0942  0.1859  0.5563
57461SOL    HW179244  12.029   1.097  11.376 -1.8237  1.2473 -0.5933
57461SOL    HW279245  12.020   1.136  11.522 -0.1198  2.0001 -0.6718
57462SOL     OW79246   2.243   0.216   1.956 -0.5971  0.3090  0.2335
57462SOL    HW179247   2.327   0.172   1.969  0.3307  1.7553 -0.5244
57462SOL    HW279248   2.233   0.271   2.034  1.2214  3.1792 -1.3468
57463SOL     OW79249   0.103   8.179   6.720 -0.0514  0.2399  0.0248
57463SOL    HW179250   0.147   8.150   6.639 -1.1394 -0.7699 -0.2262
57463SOL    HW279251   0.172   8.176   6.786  0.5586 -0.1472 -0.6014
57464SOL     OW79252  12.275  11.484   4.500 -0.1870 -0.4789  0.1932
57464SOL    HW179253  12.262  11.537   4.421 -1.4215 -0.5950  0.2898
57464SOL    HW279254  12.370  11.482   4.512  0.0275 -0.4480 -1.2722
57465SOL     OW79255   3.013   3.036   4.786 -0.3082 -0.0413 -0.8163
57465SOL    HW179256   3.028   2.941   4.788  0.5257  0.0809 -1.0523
57465SOL    HW279257   3.097   3.075   4.810 -0.9354  0.6326  0.3352
57466SOL     OW79258   0.617   0.200   4.011  0.1055 -0.4469  0.2166
57466SOL    HW179259   0.545   0.263   4.015  0.1803 -0.0823 -2.3901
57466SOL    HW279260   0.584   0.122   4.054 -2.0450 -0.4243 -1.2529
57467SOL     OW79261   9.758   2.843   5.337  0.3526  0.0808 -0.2012
57467SOL    HW179262   9.671   2.880   5.350 -0.1814  0.6373 -4.0295
57467SOL    HW279263   9.745   2.771   5.275  2.4116 -1.2659  0.7897
57468SOL     OW79264   8.531   6.015  10.221 -0.4380 -0.0749  0.9080
57468SOL    HW179265   8.581   6.026  10.303  1.4704  0.9727 -0.3220
57468SOL    HW279266   8.587   5.958  10.168 -1.6579 -0.7389  0.3090
57469SOL     OW79267   9.997   0.695   6.299  0.2017  0.6374  0.4065
57469SOL    HW179268  10.010   0.761   6.232 -0.9527  0.1158 -0.3609
57469SOL    HW279269  10.013   0.742   6.382  1.9865  1.1941 -0.1947
57470SOL     OW79270   5.965   9.032   6.800 -0.0006  0.1360 -0.1557
57470SOL    HW179271   5.870   9.044   6.810 -0.0709 -0.5917  0.1210
57470SOL    HW279272   5.988   8.968   6.867  0.5873 -0.1579 -0.6262
57471SOL     OW79273  10.700   3.035   9.195 -0.3141  0.1314  0.3660
57471SOL    HW179274  10.728   3.108   9.250  1.5399 -0.5640  0.4194
57471SOL    HW279275  10.760   3.036   9.121 -0.3352 -1.2564  0.2965
57472SOL     OW79276   9.847   6.027  10.430  0.1427 -0.2471 -0.1119
57472SOL    HW179277   9.936   6.003  10.403  0.8608  0.5637  1.3970
57472SOL    HW279278   9.798   6.035  10.348  2.1957  2.1062 -1.2212
57473SOL     OW79279   9.515  10.691   7.741 -0.4420 -0.1580  0.2322
57473SOL    HW179280   9.440  10.676   7.684  1.1292 -0.9909 -1.7155
57473SOL    HW279281   9.527  10.786   7.741 -0.7298 -0.1152 -0.5015
57474SOL     OW79282   0.538   1.430  10.765 -0.7092 -0.0377 -0.0346
57474SOL    HW179283   0.481   1.372  10.815  0.1485 -0.5025  0.4120
57474SOL    HW279284   0.612   1.376  10.739 -0.4016  0.5909 -0.5105
57475SOL     OW79285   6.837   1.916   7.317  0.4525 -0.3511  0.5880
57475SOL    HW179286   6.742   1.904   7.321  0.4614 -0.3933  0.6787
57475SOL    HW279287   6.854   1.946   7.228  0.1371  1.5401  1.1225
57476SOL     OW79288   5.555   1.849  10.954 -0.1634 -0.1608 -0.0314
57476SOL    HW179289   5.507   1.896  10.886 -0.2642  1.7567  1.2785
57476SOL    HW279290   5.510   1.874  11.035  2.2048  0.6297  1.1091
57477SOL     OW79291  11.996   5.683  11.598  0.2712 -0.7065 -0.2930
57477SOL    HW179292  11.970   5.644  11.681 -0.5232  0.1238 -0.1333
57477SOL    HW279293  12.053   5.617  11.557  0.1413 -1.3957  0.6054
57478SOL     OW79294  11.813  10.769   3.055  0.2459 -0.0183 -0.0354
57478SOL    HW179295  11.811  10.681   3.017 -0.6459 -0.2581  0.5404
57478SOL    HW279296  11.802  10.755   3.149  2.0876  0.5859  0.3173
57479SOL     OW79297   0.036   4.848   7.988  0.1196  0.0272  1.1958
57479SOL    HW179298   0.031   4.812   7.900 -0.0678 -0.3672  1.3644
57479SOL    HW279299   0.128   4.872   7.999  0.2771 -0.5477  1.1376
57480SOL     OW79300   6.171   6.856   4.206 -0.5107  0.1069 -0.5997
57480SOL    HW179301   6.117   6.807   4.145 -1.7492 -0.5600  0.9802
57480SOL    HW279302   6.257   6.814   4.201 -0.5712  0.1122 -1.9116
57481SOL     OW79303   1.201   5.622  11.266  0.1712  0.1159  0.5635
57481SOL    HW179304   1.263   5.688  11.299 -0.9098  2.7817 -2.2140
57481SOL    HW279305   1.222   5.615  11.173 -1.6286 -1.3534  0.2134
57482SOL     OW79306  12.423  11.503  12.049 -0.1264  0.0474  0.1755
57482SOL    HW179307  12.365  11.487  12.124 -1.5123  2.9900 -0.1224
57482SOL    HW279308  12.490  11.562  12.084 -0.0056  0.3409 -0.5472
57483SOL     OW79309   9.209   6.227   5.464 -0.1846 -0.0214  0.4898
57483SOL    HW179310   9.157   6.161   5.510 -0.9071  2.0386  2.8854
57483SOL    HW279311   9.144   6.280   5.417  0.1634  0.2865  0.3525
57484SOL     OW79312   3.054   8.341   0.339  0.3131 -0.2722  0.0501
57484SOL    HW179313   3.106   8.326   0.418  0.4768 -0.5005 -0.0979
57484SOL    HW279314   3.086   8.425   0.305  1.0438 -0.7185 -0.3914
57485SOL     OW79315   8.057   2.078   6.970 -0.1026 -0.0199 -0.0911
57485SOL    HW179316   8.118   2.092   7.042  2.0664  0.2203 -1.8637
57485SOL    HW279317   8.033   1.985   6.976  1.0115 -0.3009  0.2457
57486SOL     OW79318   1.320  11.430  12.331  0.1266 -0.2162  0.2415
57486SOL    HW179319   1.359  11.455  12.247 -0.3874 -0.7609 -0.1761
57486SOL    HW279320   1.339  11.336  12.338  0.0551 -0.1973  0.6743
57487SOL     OW79321   7.666   7.491  12.211  0.0684  0.0592  0.1257
57487SOL    HW179322   7.670   7.406  12.255 -3.3812  0.6774  1.9820
57487SOL    HW279323   7.587   7.486  12.157  0.3401  1.7921 -0.5075
57488SOL     OW79324   5.505   4.269   3.392  0.6045  0.0367 -0.0194
57488SOL    HW179325   5.599   4.252   3.395  0.9063  1.6241  0.8247
57488SOL    HW279326   5.478   4.269   3.484 -0.2464 -0.4419 -0.2514
57489SOL     OW79327   8.146   1.207   7.211  0.6304  0.1861 -0.2268
57489SOL    HW179328   8.167   1.294   7.177  0.5057  0.1493 -0.4007
57489SOL    HW279329   8.093   1.223   7.289  1.3408  0.2809  0.2409
57490SOL     OW79330  11.985   0.823   2.770  0.3138 -0.6165  0.8272
57490SOL    HW179331  12.054   0.874   2.813  1.0527 -1.3349  0.5119
57490SOL    HW279332  11.954   0.880   2.699 -0.0421  0.0631  1.5049
57491SOL     OW79333   8.437   7.506   5.445 -0.3620  0.3685 -0.1524
57491SOL    HW179334   8.478   7.524   5.360  0.1261  1.2284  0.2572
57491SOL    HW279335   8.382   7.582   5.461  0.4923  0.7985  0.8555
57492SOL     OW79336   3.520   4.084   4.878  0.6585 -0.1824  0.2486
57492SOL    HW179337   3.460   4.009   4.882  0.6327 -0.1334  0.9342
57492SOL    HW279338   3.541   4.093   4.785 -0.5743 -0.0571 -0.0417
57493SOL     OW79339   4.629   0.814   7.493 -0.1741 -0.0114  0.7678
57493SOL    HW179340   4.640   0.792   7.586  0.3118 -1.9178  0.2840
57493SOL    HW279341   4.624   0.730   7.448 -1.9953  0.8558 -0.7879
57494SOL     OW79342   3.703   4.777   5.762 -0.0801  0.3027  0.1119
57494SOL    HW179343   3.677   4.797   5.852  1.0545  1.7708  0.1656
57494SOL    HW279344   3.651   4.837   5.708  0.2692  0.4277 -0.0893
57495SOL     OW79345   8.165   4.737  10.446 -0.1160  0.3618  0.3477
57495SOL    HW179346   8.104   4.785  10.389 -1.0546 -2.1820 -0.9419
57495SOL    HW279347   8.248   4.740  10.399 -0.2952  0.3046  0.0241
57496SOL     OW79348   0.489  10.236   1.020  0.1432 -0.1313 -0.2074
57496SOL    HW179349   0.460  10.317   1.062  0.0830 -1.0804  1.6749
57496SOL    HW279350   0.477  10.169   1.086  1.1617 -1.5291 -1.3746
57497SOL     OW79351   4.515   4.962   7.211  0.2264 -0.0222  0.1273
57497SOL    HW179352   4.477   4.875   7.217  1.5848 -0.5933  1.2021
57497SOL    HW279353   4.606   4.951   7.241  0.9338  1.4501 -1.3072
57498SOL     OW79354   4.683   1.060   4.554 -0.1793 -0.4447  0.1187
57498SOL    HW179355   4.597   1.098   4.543  0.2729  0.9654  1.1407
57498SOL    HW279356   4.709   1.032   4.466 -1.8451 -1.3541 -0.1267
57499SOL     OW79357   1.006   4.375   8.842 -0.8014 -0.2159 -0.1233
57499SOL    HW179358   0.960   4.456   8.865 -0.7799 -0.5194  1.0507
57499SOL    HW279359   1.023   4.333   8.926 -1.8416 -2.0316 -0.7712
57500SOL     OW79360  10.725   1.746   3.802  0.0848 -0.2192  0.1234
57500SOL    HW179361  10.733   1.832   3.760  2.3141 -0.4426 -0.0717
57500SOL    HW279362  10.729   1.684   3.730  1.7767 -0.5421  0.4549
57501SOL     OW79363   0.357  10.137   5.148  0.0444 -0.3753 -0.5518
57501SOL    HW179364   0.265  10.124   5.123 -0.7449  2.1600  0.6867
57501SOL    HW279365   0.398  10.174   5.070 -0.5037  0.4126 -0.4693
57502SOL     OW79366   9.589   6.770   7.071  0.1980  0.0870  0.2282
57502SOL    HW179367   9.631   6.730   6.995  0.9667  2.4066 -0.6636
57502SOL    HW279368   9.496   6.772   7.048  0.3370  0.1511 -0.3601
57503SOL     OW79369   1.787   0.044  10.712  0.2059  0.0135  0.0663
57503SOL    HW179370   1.797   0.005  10.799 -1.7492  3.0362  1.8264
57503SOL    HW279371   1.864   0.100  10.702  0.4344 -0.3399 -0.1685
57504SOL     OW79372   9.317   4.035   9.831 -0.0881 -0.3131  0.4212
57504SOL    HW179373   9.305   4.083   9.913 -1.0842 -0.6128  0.4521
57504SOL    HW279374   9.251   3.966   9.833 -0.0865 -0.3548 -0.6115
57505SOL     OW79375  11.391   7.461   2.762  0.6210 -0.1399 -0.2140
57505SOL    HW179376  11.424   7.550   2.774 -1.7692  0.7485  0.1833
57505SOL    HW279377  11.315   7.471   2.706  0.8836 -2.0885 -0.9858
57506SOL     OW79378   5.017  11.603   9.136  0.6249 -0.2365  0.1555
57506SOL    HW179379   4.947  11.537   9.132  0.5881 -0.1631 -2.0706
57506SOL    HW279380   5.075  11.572   9.205 -0.6518 -1.2969  0.8114
57507SOL     OW79381   3.723  11.075  10.400 -0.5546  0.2867 -0.0617
57507SOL    HW179382   3.780  11.004  10.430 -0.2523  0.3878 -0.3837
57507SOL    HW279383   3.746  11.086  10.308 -0.5432  0.8573  0.0055
57508SOL     OW79384   8.486  11.489   0.988  0.1656  0.0180 -0.3445
57508SOL    HW179385   8.550  11.441   0.934 -0.5756 -0.3108 -0.9527
57508SOL    HW279386   8.401  11.463   0.952 -0.2801  1.2928 -0.2576
57509SOL     OW79387   5.960   2.151   4.001 -0.3012 -0.5946  0.3076
57509SOL    HW179388   5.887   2.146   3.940  0.5048  0.9493 -0.8462
57509SOL    HW279389   6.010   2.227   3.972  2.3178 -2.1543  0.4443
57510SOL     OW79390   0.881  11.679   8.513  0.5594  0.1266  0.4464
57510SOL    HW179391   0.804  11.623   8.520  1.0652 -0.7022 -0.4391
57510SOL    HW279392   0.856  11.760   8.558 -0.2441 -0.7315  1.5981
57511SOL     OW79393   3.614  11.852  11.434  0.0887 -0.0247 -0.4373
57511SOL    HW179394   3.591  11.933  11.480  0.6367 -1.1315  1.9578
57511SOL    HW279395   3.542  11.837  11.373 -1.4773  0.7612  1.1551
57512SOL     OW79396   8.729   0.025   8.619  0.1604  0.0083  0.1593
57512SOL    HW179397   8.817  -0.007   8.596  0.8375  2.5278 -1.0312
57512SOL    HW279398   8.681   0.024   8.537 -0.9719 -1.2522  0.7876
57513SOL     OW79399   4.168  11.740  12.294  0.4062  0.1191  0.8841
57513SOL    HW179400   4.113  11.675  12.250  1.7633 -1.3068  1.1966
57513SOL    HW279401   4.107  11.801  12.335 -0.8989 -0.6061  0.0631
57514SOL     OW79402   8.793   4.079   6.711  0.0617 -0.3794  0.4527
57514SOL    HW179403   8.881   4.104   6.682 -0.0557  0.5213  0.8389
57514SOL    HW279404   8.745   4.061   6.630 -0.7278  3.5803 -0.1765
57515SOL     OW79405   6.621   5.024  11.361  0.1196  0.5684  0.0607
57515SOL    HW179406   6.694   4.982  11.408  0.1018  0.2414 -0.2023
57515SOL    HW279407   6.658   5.048  11.276 -0.5080 -1.0477 -0.6954
57516SOL     OW79408   4.144   0.704   7.909  0.1532  0.2954  0.2357
57516SOL    HW179409   4.107   0.697   7.997 -0.2810  0.7853  0.0932
57516SOL    HW279410   4.081   0.756   7.860 -0.7871 -1.9094 -1.0325
57517SOL     OW79411   4.728   7.316  11.846  0.1119 -0.1117  0.4391
57517SOL    HW179412   4.783   7.241  11.826 -0.3894 -0.0590 -1.3366
57517SOL    HW279413   4.786   7.379  11.888  1.2612 -0.3144 -0.7946
57518SOL     OW79414   5.819   0.174   3.602  0.1151  0.1903 -0.0620
57518SOL    HW179415   5.732   0.194   3.634  0.9593  2.2400  1.1127
57518SOL    HW279416   5.845   0.095   3.649 -0.1405  1.0136  1.4936
57519SOL     OW79417   6.083   7.490   0.059  0.0335  0.4715  0.0076
57519SOL    HW179418   6.012   7.485   0.123 -0.6845 -0.1138 -0.8196
57519SOL    HW279419   6.060   7.565   0.004  0.1883  0.4364 -0.1057
57520SOL     OW79420   1.914  11.686  12.141 -0.2378  0.3188 -0.1921
57520SOL    HW179421   1.893  11.603  12.098 -0.2398 -0.5654  1.4205
57520SOL    HW279422   1.863  11.684  12.222  1.3141  0.9546  0.8493
57521SOL     OW79423   9.399   9.672   7.980 -0.3190  0.6967 -0.5802
57521SOL    HW179424   9.492   9.680   7.960  0.3139  0.2115  1.8653
57521SOL    HW279425   9.365   9.613   7.912  1.7705 -1.3356  0.0196
57522SOL     OW79426   6.240   7.452   1.409 -0.2330  0.0972 -0.0697
57522SOL    HW179427   6.254   7.411   1.323  0.3726  1.5099 -0.6877
57522SOL    HW279428   6.328   7.479   1.437 -0.6007  0.8977  0.3337
57523SOL     OW79429   1.226   9.777   3.945 -0.3777  0.2348  0.5375
57523SOL    HW179430   1.180   9.789   3.862  0.7968  0.1461 -0.1534
57523SOL    HW279431   1.252   9.685   3.945  0.1593  0.3823  0.7148
57524SOL     OW79432   0.878   4.959   7.292 -0.2723  0.0312  0.1040
57524SOL    HW179433   0.902   4.970   7.384 -0.5187 -0.9052  0.2870
57524SOL    HW279434   0.786   4.986   7.287 -0.4543 -0.5422  0.2703
57525SOL     OW79435   2.300   7.276  10.205 -0.2015  0.2123 -0.3138
57525SOL    HW179436   2.230   7.339  10.221  0.2341  0.4593  0.7483
57525SOL    HW279437   2.359   7.320  10.144 -0.4676  0.3975 -0.4349
57526SOL     OW79438   5.533   7.717   9.395 -0.2187  0.0664  0.5131
57526SOL    HW179439   5.562   7.747   9.481 -0.3696  2.0619 -0.0741
57526SOL    HW279440   5.583   7.771   9.333  0.8784 -2.2307 -0.7204
57527SOL     OW79441   7.007   5.025   8.002  0.1760  0.2508  0.0243
57527SOL    HW179442   6.948   5.033   7.928 -1.3229  0.2081  1.1752
57527SOL    HW279443   7.017   5.114   8.035  0.3976  0.1944  0.1091
57528SOL     OW79444   9.368   5.914   9.086 -0.8733  0.1520 -0.4456
57528SOL    HW179445   9.387   5.887   9.176  1.7539 -0.0759 -1.0013
57528SOL    HW279446   9.349   5.831   9.041  0.0583 -0.0031 -0.5726
57529SOL     OW79447   9.759   2.525   7.790  0.2631  0.4325 -0.0307
57529SOL    HW179448   9.783   2.612   7.821 -0.5801  0.5524  0.3209
57529SOL    HW279449   9.668   2.513   7.819 -0.1528  0.0530 -1.3998
57530SOL     OW79450   5.322   5.397   4.713 -0.4990 -0.1742 -0.2100
57530SOL    HW179451   5.263   5.382   4.639  0.1397 -0.8990 -0.5837
57530SOL    HW279452   5.404   5.425   4.673  0.0273 -1.1218  0.1778
57531SOL     OW79453  11.602  11.601   4.073 -0.2837  0.0374  0.1819
57531SOL    HW179454  11.611  11.508   4.096  0.6798 -0.4016 -1.7709
57531SOL    HW279455  11.661  11.614   3.999 -0.7126  2.1301  0.1321
57532SOL     OW79456  10.441   8.585  10.096 -0.2599  1.0955 -0.2964
57532SOL    HW179457  10.525   8.556  10.060 -0.1841  0.1485  0.5975
57532SOL    HW279458  10.376   8.556  10.032 -0.1133 -0.4560  0.2197
57533SOL     OW79459  10.473   0.934   1.186 -0.1614 -0.1162 -0.0150
57533SOL    HW179460  10.554   0.943   1.236  0.7770 -0.2648 -1.4396
57533SOL    HW279461  10.425   0.865   1.231  1.2851 -1.2465 -0.1013
57534SOL     OW79462   5.588   9.497   0.181  0.0629 -0.1817  0.2201
57534SOL    HW179463   5.637   9.577   0.159 -0.7220 -0.0079 -0.9903
57534SOL    HW279464   5.595   9.443   0.102 -0.3164 -0.8507  0.6393
57535SOL     OW79465  10.910  11.485   7.483  0.0859 -0.0664 -0.4048
57535SOL    HW179466  10.863  11.557   7.525  2.0196  1.7548 -1.2114
57535SOL    HW279467  10.907  11.505   7.390  0.3976 -1.2256 -0.6806
57536SOL     OW79468   6.440   8.053   9.216  0.1271  0.4544 -0.5493
57536SOL    HW179469   6.446   8.073   9.123  2.7921  0.6827 -0.3930
57536SOL    HW279470   6.452   7.958   9.221 -0.1127  0.4293 -0.4485
57537SOL     OW79471   5.525   1.460   9.726  0.5119  0.0095 -0.3194
57537SOL    HW179472   5.539   1.545   9.766  1.9356 -0.6924  0.7685
57537SOL    HW279473   5.473   1.411   9.790  0.2512 -0.1612 -0.6537
57538SOL     OW79474  10.569   2.837  10.352 -0.4383 -0.4126  0.4491
57538SOL    HW179475  10.511   2.905  10.319 -3.1331 -1.7437  2.0794
57538SOL    HW279476  10.650   2.849  10.303 -1.1698  3.1387 -0.2178
57539SOL     OW79477   1.080   4.037   2.512 -0.0025 -0.4310 -0.4057
57539SOL    HW179478   1.097   4.104   2.445  4.0159 -4.1680 -3.7182
57539SOL    HW279479   1.160   4.036   2.565 -1.3613 -0.5286  1.7445
57540SOL     OW79480   0.124   7.025   6.571  0.3142 -0.7534 -0.2432
57540SOL    HW179481   0.165   7.053   6.489 -0.5324 -1.0865 -0.8001
57540SOL    HW279482   0.192   6.977   6.617  1.1046  0.2877 -0.2896
57541SOL     OW79483  10.769   8.776  10.654 -0.7070  0.7272  0.3728
57541SOL    HW179484  10.840   8.795  10.592 -0.9114 -0.1164 -0.1283
57541SOL    HW279485  10.690   8.782  10.601 -0.8005 -1.2829  0.2290
57542SOL     OW79486   5.815  10.445  10.758  0.0837  0.2218  1.1131
57542SOL    HW179487   5.794  10.356  10.787 -1.6267 -0.1382 -0.9692
57542SOL    HW279488   5.900  10.464  10.798 -0.4606 -1.5206  3.3098
57543SOL     OW79489   1.667   7.109   8.744  0.4461  0.1370  0.0386
57543SOL    HW179490   1.587   7.058   8.735  1.4617 -1.4020 -0.7452
57543SOL    HW279491   1.656   7.157   8.827 -1.3280  0.1101 -0.1516
57544SOL     OW79492   8.029   3.325   4.030  0.6081  0.1555  0.2772
57544SOL    HW179493   7.982   3.265   3.972 -0.3805  0.2895  0.9212
57544SOL    HW279494   8.121   3.314   4.006  0.2761 -0.2447 -0.8873
57545SOL     OW79495  11.193   4.697   4.770 -0.3678  0.2615  0.2519
57545SOL    HW179496  11.117   4.688   4.828  0.5472  0.9447  1.6287
57545SOL    HW279497  11.187   4.623   4.710 -1.0923 -0.7709  1.5488
57546SOL     OW79498   5.832   3.936   4.751  0.4966  0.7146 -0.3052
57546SOL    HW179499   5.879   3.906   4.828  3.7503  1.2240 -1.9224
57546SOL    HW279500   5.739   3.923   4.772  1.3598 -1.8091  2.5041
57547SOL     OW79501   7.798   6.558   2.686 -0.0497  0.1693  0.4335
57547SOL    HW179502   7.855   6.500   2.636 -1.4480 -0.0653 -0.9636
57547SOL    HW279503   7.833   6.646   2.672 -0.7478  0.1786 -1.4926
57548SOL     OW79504   4.845  12.122   1.180 -0.6810  0.3410 -0.1785
57548SOL    HW179505   4.804  12.080   1.105 -2.2961  2.7929 -0.7785
57548SOL    HW279506   4.934  12.142   1.150 -0.2641 -1.5004 -0.2681
57549SOL     OW79507   1.737   6.983   3.674  0.2535  0.5700  0.7463
57549SOL    HW179508   1.734   7.066   3.628 -2.0116 -1.0618 -2.4216
57549SOL    HW279509   1.666   6.988   3.739 -0.4884  0.8186 -0.0690
57550SOL     OW79510   6.202   3.207   5.086 -0.3379 -0.1441 -0.3764
57550SOL    HW179511   6.285   3.162   5.103  0.4686  1.0875 -0.9007
57550SOL    HW279512   6.137   3.137   5.084  0.7334 -1.1785 -0.2542
57551SOL     OW79513   0.719   8.849  11.043 -0.1184 -0.0476 -0.0588
57551SOL    HW179514   0.710   8.758  11.074 -0.8247 -0.5174 -1.5496
57551SOL    HW279515   0.652   8.897  11.091  1.3907  0.0863  2.0390
57552SOL     OW79516   6.441   4.876  11.551 -0.4111 -0.0516  0.1607
57552SOL    HW179517   6.449   4.906  11.460 -1.2422 -0.6034 -0.1037
57552SOL    HW279518   6.515   4.816  11.563  0.3007  0.7966  0.1842
57553SOL     OW79519   2.133   1.337   2.470 -0.7287  0.6287 -0.4803
57553SOL    HW179520   2.158   1.268   2.532 -1.6578  0.9201  0.2523
57553SOL    HW279521   2.083   1.291   2.402 -0.2933  0.4056 -0.6506
57554SOL     OW79522  10.093  12.217   2.636 -0.3990  0.0892 -0.5053
57554SOL    HW179523  10.131  12.135   2.670  1.2681  1.1269  0.2689
57554SOL    HW279524   9.999  12.200   2.633 -0.0787 -1.9409 -0.6002
57555SOL     OW79525  11.504  11.656   8.988 -0.0051 -0.0200 -0.1436
57555SOL    HW179526  11.459  11.660   9.072 -1.6931  0.2321 -1.0095
57555SOL    HW279527  11.541  11.743   8.976  0.4627 -0.1336  0.4456
57556SOL     OW79528   3.588  11.585  10.474  0.2682 -0.2671 -0.2088
57556SOL    HW179529   3.624  11.499  10.455 -1.1436 -0.6183 -1.4606
57556SOL    HW279530   3.570  11.623  10.388 -0.2050  0.8123  0.3435
57557SOL     OW79531   0.791   0.935  10.377  0.1338 -0.0594  0.1034
57557SOL    HW179532   0.793   0.856  10.431 -0.3182 -0.3282 -0.2634
57557SOL    HW279533   0.726   0.991  10.419 -0.4720 -0.4124 -0.3493
57558SOL     OW79534   2.373   6.477  11.941  0.1526 -1.1660  0.2952
57558SOL    HW179535   2.298   6.424  11.967 -1.3713  0.0929 -1.2826
57558SOL    HW279536   2.384   6.458  11.848 -0.6140  1.3664 -0.3870
57559SOL     OW79537   8.291   1.792   1.623  0.1042  0.0643  0.6018
57559SOL    HW179538   8.356   1.808   1.690  1.4320 -0.6053 -0.4723
57559SOL    HW279539   8.243   1.715   1.655 -2.4424  2.4223  2.9633
57560SOL     OW79540   9.392   7.647   1.705 -0.0296 -0.1470 -0.0468
57560SOL    HW179541   9.316   7.697   1.733 -0.7025 -0.2646 -1.5745
57560SOL    HW279542   9.404   7.671   1.613  0.1778 -2.0858 -0.5659
57561SOL     OW79543   4.507   2.408   8.140  0.6902  0.4596 -0.4844
57561SOL    HW179544   4.598   2.432   8.159  0.4100  1.1804 -0.0029
57561SOL    HW279545   4.477   2.476   8.080 -0.2060  1.5439  1.1199
57562SOL     OW79546  11.468   6.315   6.592  0.3188 -0.2473 -0.0881
57562SOL    HW179547  11.377   6.333   6.570 -0.3113 -0.1552  2.3257
57562SOL    HW279548  11.508   6.401   6.602  0.0855 -0.2455  0.9454
57563SOL     OW79549   5.632   4.436   0.145 -0.6933  0.0454 -0.2944
57563SOL    HW179550   5.586   4.520   0.140 -0.2765  0.3452  0.7006
57563SOL    HW279551   5.591   4.390   0.218  0.5887  0.3518  0.6750
57564SOL     OW79552   9.776   4.724   6.863  0.3539  0.0855 -0.0045
57564SOL    HW179553   9.844   4.723   6.930  0.4382  1.4430 -0.0519
57564SOL    HW279554   9.721   4.648   6.885  1.3994 -0.5532  0.5132
57565SOL     OW79555   7.835   3.937   0.118  0.2420 -0.3145  0.1089
57565SOL    HW179556   7.894   3.872   0.079  1.5314  1.5134 -1.1278
57565SOL    HW279557   7.785   3.888   0.183 -0.0113 -2.9139 -1.8938
57566SOL     OW79558   3.595   2.937   8.129  0.2273  0.6201 -0.1693
57566SOL    HW179559   3.673   2.893   8.094 -0.0063 -0.3376  0.4893
57566SOL    HW279560   3.629   3.016   8.170  0.7116  0.8019 -0.8887
57567SOL     OW79561   7.436   1.210   2.084  0.1289 -0.7410 -0.1808
57567SOL    HW179562   7.481   1.161   2.153 -0.8707 -0.5002  0.6707
57567SOL    HW279563   7.346   1.220   2.116  0.0088  0.6308 -0.8591
57568SOL     OW79564   0.679   6.655   4.888 -0.2326  0.1200 -0.1657
57568SOL    HW179565   0.622   6.663   4.963 -0.2532 -1.7428  0.0486
57568SOL    HW279566   0.760   6.701   4.914 -0.2155 -0.5589  1.0078
57569SOL     OW79567   8.656   1.347   0.451 -0.5965 -0.4803  0.6470
57569SOL    HW179568   8.581   1.388   0.493 -0.1294  1.2551 -0.1070
57569SOL    HW279569   8.704   1.420   0.411  0.7718 -1.6843 -0.0129
57570SOL     OW79570   8.463  11.916   0.949  0.1358  0.8391 -0.1373
57570SOL    HW179571   8.543  11.867   0.930 -0.1508 -0.1000  0.9492
57570SOL    HW279572   8.437  11.953   0.864  0.7670 -0.2975 -0.8610
57571SOL     OW79573   5.516   6.860   2.865  0.1704  0.7424  0.4185
57571SOL    HW179574   5.483   6.856   2.955 -0.4054  0.4916  0.1972
57571SOL    HW279575   5.560   6.775   2.852  1.0541  1.1313  0.7611
57572SOL     OW79576  11.914   6.646   6.335 -0.1601 -0.6205 -0.4283
57572SOL    HW179577  11.829   6.610   6.308 -0.3429  0.6722 -1.7339
57572SOL    HW279578  11.894   6.699   6.412 -0.6279 -0.0324 -0.9388
57573SOL     OW79579   3.801   4.368   9.508  0.5363 -0.6020 -0.0804
57573SOL    HW179580   3.778   4.300   9.571 -0.7966 -1.1447 -1.0957
57573SOL    HW279581   3.888   4.398   9.535  0.6901 -1.9492  1.0312
57574SOL     OW79582  10.277  12.217   6.034 -0.4113 -0.0812  0.2510
57574SOL    HW179583  10.203  12.219   5.972 -0.2793 -0.9580  0.0541
57574SOL    HW279584  10.243  12.169   6.110 -0.1406 -0.2251  0.2818
57575SOL     OW79585   0.553  12.252   0.577 -0.1460  0.1325  0.2576
57575SOL    HW179586   0.518  12.336   0.546 -1.0493  0.2025  1.4164
57575SOL    HW279587   0.629  12.236   0.521 -0.9271  0.9035 -1.0838
57576SOL     OW79588  11.587  11.179   1.748 -0.2326  0.3532 -0.8519
57576SOL    HW179589  11.555  11.102   1.701 -0.4094  0.4676 -0.9215
57576SOL    HW279590  11.682  11.170   1.749 -0.3216 -0.8494  0.7931
57577SOL     OW79591  10.007   5.291   9.565 -0.3746  0.6271 -0.2075
57577SOL    HW179592   9.955   5.211   9.560 -0.0722  0.3440  0.9332
57577SOL    HW279593  10.097   5.261   9.579 -0.3031  1.1541  0.5329
57578SOL     OW79594   7.514   2.699  10.705 -0.5574 -0.5474 -0.0014
57578SOL    HW179595   7.495   2.753  10.628 -3.7759 -1.9476 -0.3260
57578SOL    HW279596   7.591   2.648  10.680  0.1542  0.9887 -1.1623
57579SOL     OW79597  10.054   0.050   7.234 -0.2035 -0.3432 -0.1662
57579SOL    HW179598  10.032   0.059   7.327  2.4028 -2.3934  0.8192
57579SOL    HW279599  10.128   0.109   7.221 -0.0571 -0.6356 -0.7103
57580SOL     OW79600  12.189   3.336   6.090 -0.2772  0.1739  0.0222
57580SOL    HW179601  12.124   3.304   6.153 -0.2624 -0.3957 -0.2466
57580SOL    HW279602  12.136   3.372   6.018 -0.2963  1.0983  0.4838
57581SOL     OW79603   3.801   2.638   0.212 -0.4487 -0.0679  0.2659
57581SOL    HW179604   3.872   2.700   0.227  0.6388 -1.2959  0.4038
57581SOL    HW279605   3.791   2.592   0.296  0.4910 -1.7536 -0.4814
57582SOL     OW79606  11.307   4.543   8.580 -0.3961  0.8182 -0.1074
57582SOL    HW179607  11.286   4.475   8.515 -1.1909  0.2024  0.7552
57582SOL    HW279608  11.225   4.557   8.626  0.1940  1.1227  0.8714
57583SOL     OW79609   3.496  11.226   6.484 -0.4303 -0.2878 -0.0728
57583SOL    HW179610   3.473  11.143   6.525  1.5050 -1.1257 -0.5948
57583SOL    HW279611   3.499  11.206   6.390  0.8154  0.1627 -0.1438
57584SOL     OW79612   5.492   4.035  11.058 -0.3727 -0.4454  0.1435
57584SOL    HW179613   5.565   4.048  10.998  0.2608 -0.9132  0.7939
57584SOL    HW279614   5.425   4.097  11.029 -0.1655 -0.8120 -1.1727
57585SOL     OW79615  12.098   6.980   6.981  0.4684 -0.0518 -0.1124
57585SOL    HW179616  12.164   7.032   6.936  1.4793 -1.0489  0.1830
57585SOL    HW279617  12.106   6.893   6.944  0.5250 -0.6105  1.1635
57586SOL     OW79618   6.960   5.238   4.259  0.2651 -0.0342  0.0266
57586SOL    HW179619   6.968   5.224   4.165 -0.4541  2.2093 -0.4156
57586SOL    HW279620   6.887   5.181   4.285  0.8770 -1.1567 -0.6067
57587SOL     OW79621   6.608   7.960   2.821  0.3267 -0.2737  0.3139
57587SOL    HW179622   6.551   7.887   2.795 -1.0514  1.1210 -0.7611
57587SOL    HW279623   6.615   8.013   2.742  1.0978  0.8842  1.1434
57588SOL     OW79624  11.770  11.342   4.229 -0.3634 -0.2850  0.0965
57588SOL    HW179625  11.801  11.426   4.263  0.6081  0.3891 -2.2660
57588SOL    HW279626  11.838  11.279   4.253  0.6782  0.3239 -1.1378
57589SOL     OW79627   3.241   0.254   2.090  0.0600 -0.4685  0.6268
57589SOL    HW179628   3.146   0.251   2.080  0.1415  0.7317 -0.8139
57589SOL    HW279629   3.256   0.295   2.175 -0.7298  0.7991  0.1777
57590SOL     OW79630   0.254   2.284  10.125 -1.0992  0.2891 -0.3062
57590SOL    HW179631   0.215   2.239  10.050 -1.5838  1.1695 -0.6033
57590SOL    HW279632   0.190   2.274  10.195 -0.8046 -0.2332 -0.1059
57591SOL     OW79633   5.225   3.909  11.780  0.2349 -0.1157 -0.3634
57591SOL    HW179634   5.204   3.985  11.725  1.3154  0.2971 -0.2371
57591SOL    HW279635   5.268   3.848  11.720 -0.7118 -0.6898 -0.4842
57592SOL     OW79636  10.205  11.670  11.170 -0.4468  0.0271 -0.2331
57592SOL    HW179637  10.243  11.744  11.124 -2.4902 -0.3425 -2.7069
57592SOL    HW279638  10.113  11.669  11.143 -1.7842 -0.4879  3.6102
57593SOL     OW79639   5.598   5.761   6.881  0.2612 -0.8157 -0.3132
57593SOL    HW179640   5.513   5.759   6.837 -0.6785 -0.8474  1.4306
57593SOL    HW279641   5.578   5.772   6.974  2.0896 -2.3987  0.3593
57594SOL     OW79642   1.451   3.601   0.589  0.4350 -0.2303 -0.5181
57594SOL    HW179643   1.447   3.678   0.532 -1.9875 -1.0808 -1.6079
57594SOL    HW279644   1.393   3.537   0.548  1.5165 -2.2779  0.9469
57595SOL     OW79645  11.387   4.616   2.847 -0.2452  0.4604  0.6561
57595SOL    HW179646  11.458   4.557   2.822  0.8168  1.7212  0.5741
57595SOL    HW279647  11.344   4.572   2.920 -0.3543 -1.0305 -0.2583
57596SOL     OW79648   6.253   2.441   4.174 -0.4165 -0.2155  0.7436
57596SOL    HW179649   6.206   2.361   4.194  0.8932 -1.1414  0.2512
57596SOL    HW279650   6.284   2.431   4.084  0.7760  0.2929  1.0619
57597SOL     OW79651   7.374  11.886   2.118  0.1095 -0.6280  0.1305
57597SOL    HW179652   7.297  11.929   2.155 -0.1955 -0.7390 -0.3669
57597SOL    HW279653   7.379  11.802   2.164 -0.4393 -0.8920 -0.2835
57598SOL     OW79654   2.030  12.239  10.184  0.0477  0.5722  0.4689
57598SOL    HW179655   2.120  12.271  10.188  0.0782  0.9722 -1.9826
57598SOL    HW279656   1.995  12.257  10.271  2.3092  0.3808  1.5177
57599SOL     OW79657   5.458   4.273   0.323 -0.6942 -0.2215 -0.4177
57599SOL    HW179658   5.368   4.260   0.354 -0.1552  0.4161  1.5895
57599SOL    HW279659   5.479   4.193   0.275 -1.6081 -1.3266  0.9479
57600SOL     OW79660  10.554   3.243   6.463  0.6211 -0.5049  0.0445
57600SOL    HW179661  10.526   3.281   6.380  1.4411  0.0100 -0.0139
57600SOL    HW279662  10.645   3.272   6.473  1.1564 -2.1237  0.2098
57601SOL     OW79663   0.548  11.148   0.968  0.0479 -0.1842  0.0274
57601SOL    HW179664   0.552  11.109   1.055  2.5842 -2.1641 -0.8624
57601SOL    HW279665   0.515  11.079   0.911 -2.1624  1.2689 -0.5663
57602SOL     OW79666   0.466   8.850   2.368  0.0544 -0.2315  0.3080
57602SOL    HW179667   0.385   8.822   2.325  0.6653 -0.2793 -0.8433
57602SOL    HW279668   0.459   8.945   2.373 -0.8907 -0.3504  1.9237
57603SOL     OW79669   5.937   2.589   2.737  0.0570  0.5982 -0.3405
57603SOL    HW179670   6.005   2.656   2.734  1.5623 -0.8398 -0.1825
57603SOL    HW279671   5.907   2.580   2.647 -0.9622  2.2183 -0.1935
57604SOL     OW79672  11.119   7.035   2.410 -0.3909 -0.4623  0.2665
57604SOL    HW179673  11.120   7.032   2.506  0.3331  0.9054  0.3404
57604SOL    HW279674  11.027   7.023   2.386 -0.1783 -4.5062  0.8942
57605SOL     OW79675   2.652   4.616   7.772 -0.6294 -0.0982 -0.1527
57605SOL    HW179676   2.698   4.695   7.801  0.5004 -1.4073  1.8374
57605SOL    HW279677   2.716   4.569   7.719 -1.2458  0.1912 -1.1898
57606SOL     OW79678   6.936   8.426   5.901  0.2131  0.3658 -0.4915
57606SOL    HW179679   6.886   8.484   5.844 -1.6550 -0.1332  0.5397
57606SOL    HW279680   6.869   8.380   5.952  1.7081 -1.1819  0.1743
57607SOL     OW79681  12.136   6.977   8.712  0.0788  0.1029 -0.1988
57607SOL    HW179682  12.205   7.020   8.762 -1.4216  1.3535  0.8846
57607SOL    HW279683  12.055   6.997   8.759 -0.9621 -2.0628 -0.9215
57608SOL     OW79684  10.901   5.230   2.917  1.1938 -0.1139  0.1141
57608SOL    HW179685  10.849   5.302   2.882 -1.0358 -2.0027 -0.6705
57608SOL    HW279686  10.982   5.272   2.947  0.4946  2.5128 -1.3622
57609SOL     OW79687   0.503   8.873   6.620 -0.2910 -0.1853  0.0240
57609SOL    HW179688   0.558   8.827   6.558 -0.7423 -0.7183  0.0127
57609SOL    HW279689   0.453   8.935   6.567 -0.2629 -0.2394 -0.0651
57610SOL     OW79690   0.689   3.123  10.654 -0.3303  0.1931 -0.1465
57610SOL    HW179691   0.699   3.146  10.746  0.2340  0.1365 -0.1918
57610SOL    HW279692   0.683   3.028  10.652  1.0392  0.0808 -0.2725
57611SOL     OW79693   1.845  12.248   7.571 -0.5089 -0.3039 -0.2741
57611SOL    HW179694   1.877  12.329   7.530  0.4007  0.0987  1.1846
57611SOL    HW279695   1.877  12.252   7.661 -1.0224 -1.9876  0.0127
57612SOL     OW79696   6.718   1.531   7.660 -0.1999 -0.4574 -0.0080
57612SOL    HW179697   6.738   1.440   7.636 -0.1932 -0.6856  0.8162
57612SOL    HW279698   6.781   1.552   7.729 -0.4538  0.0428  0.0756
57613SOL     OW79699   9.327   1.396   1.073 -0.0913  0.0635 -1.1315
57613SOL    HW179700   9.415   1.430   1.057  0.5234  0.0633  1.6563
57613SOL    HW279701   9.286   1.461   1.130 -1.0578 -1.0120 -0.5421
57614SOL     OW79702   6.918   3.614   4.907  0.3842 -0.2033  0.6226
57614SOL    HW179703   6.940   3.569   4.988  0.6310 -2.0195 -0.3889
57614SOL    HW279704   6.994   3.670   4.889  0.7187 -0.4697  1.1901
57615SOL     OW79705   1.261   6.455   8.761 -0.0753 -0.0181  0.0301
57615SOL    HW179706   1.282   6.547   8.776  0.2667 -0.0211 -0.4222
57615SOL    HW279707   1.344   6.409   8.772 -0.4191 -0.4077  1.2526
57616SOL     OW79708  11.764   5.560  11.329 -0.5344 -0.3802 -0.3324
57616SOL    HW179709  11.708   5.526  11.259 -0.5969 -0.4510 -0.2470
57616SOL    HW279710  11.850   5.522  11.311 -0.3916  0.1319 -0.7560
57617SOL     OW79711   8.617   3.639   2.967 -0.2575 -0.1788  0.1180
57617SOL    HW179712   8.583   3.669   3.052 -0.2627  0.9731 -0.2724
57617SOL    HW279713   8.712   3.636   2.980 -0.1674  1.0763 -0.1478
57618SOL     OW79714   2.653   8.105   0.567 -0.5879  0.5694 -0.0153
57618SOL    HW179715   2.738   8.079   0.532 -0.9132 -0.3603 -0.1461
57618SOL    HW279716   2.648   8.063   0.652 -1.9466 -1.5699 -1.0551
57619SOL     OW79717   7.984   1.860  11.840  0.1127 -0.5026 -0.3112
57619SOL    HW179718   8.074   1.838  11.815  0.0605  0.4388 -1.4347
57619SOL    HW279719   7.934   1.781  11.820  0.5281 -0.6917 -0.6258
57620SOL     OW79720  10.085  12.205   1.184  0.0638  0.7960  0.5679
57620SOL    HW179721  10.040  12.286   1.210 -1.1907  0.4917 -0.5424
57620SOL    HW279722  10.024  12.135   1.206 -0.0130  0.3621 -0.9450
57621SOL     OW79723   5.668   6.303   8.189 -0.3695 -0.4468 -0.4765
57621SOL    HW179724   5.694   6.392   8.215 -1.6536 -0.2190  0.0537
57621SOL    HW279725   5.601   6.278   8.251  0.1468 -1.9047 -0.4794
57622SOL     OW79726   6.668   7.503   3.003 -0.7022 -1.3940 -0.7334
57622SOL    HW179727   6.714   7.433   2.957  1.1269 -0.6621 -0.1136
57622SOL    HW279728   6.714   7.583   2.978  0.8955 -1.0191  2.7717
57623SOL     OW79729  10.693   7.091   1.529 -0.1781 -0.6061 -0.7002
57623SOL    HW179730  10.784   7.116   1.514 -0.5341  1.6463  0.4936
57623SOL    HW279731  10.646   7.123   1.453 -0.3033  0.4465 -0.1956
57624SOL     OW79732   5.786   6.068   4.172  0.6667  0.9504 -0.2635
57624SOL    HW179733   5.726   6.000   4.142 -0.5911  1.9113  0.0045
57624SOL    HW279734   5.871   6.042   4.136  0.0190 -0.1968 -1.0345
57625SOL     OW79735   6.168   6.597   4.596 -0.1718  0.0702  0.0660
57625SOL    HW179736   6.095   6.544   4.631 -0.7989  1.3336  0.7384
57625SOL    HW279737   6.125   6.663   4.542  0.5966  0.0027 -0.6393
57626SOL     OW79738  12.043   2.665   5.279  0.2502  0.4261  0.2739
57626SOL    HW179739  12.104   2.732   5.310  0.6083 -0.1570  0.8631
57626SOL    HW279740  12.070   2.647   5.190  0.7370  0.4097  0.4229
57627SOL     OW79741   3.795   9.227   8.210  0.7234 -0.0808  0.0668
57627SOL    HW179742   3.884   9.262   8.216  1.1712 -1.2304  0.4270
57627SOL    HW279743   3.742   9.301   8.182  1.6150  0.9113  0.9096
57628SOL     OW79744   2.282   3.695  10.913  0.4952  0.1754 -0.5106
57628SOL    HW179745   2.375   3.685  10.891  0.2804 -0.3142 -1.2331
57628SOL    HW279746   2.238   3.700  10.829  0.0231  2.1549 -0.1791
57629SOL     OW79747   7.199   8.014   6.304 -0.0334 -0.1690 -0.8093
57629SOL    HW179748   7.114   8.045   6.334 -0.4554 -2.9071  1.2289
57629SOL    HW279749   7.259   8.085   6.326 -1.2858  0.3782  1.1639
57630SOL     OW79750   0.228   4.089  10.989 -0.2534  0.3327 -0.5885
57630SOL    HW179751   0.172   4.160  11.019  0.6769  1.6554 -1.8481
57630SOL    HW279752   0.238   4.104  10.896 -1.0283 -2.2128 -1.1674
57631SOL     OW79753   3.010   0.808  10.610 -0.1853 -0.0369 -0.2141
57631SOL    HW179754   3.078   0.841  10.551 -1.5547 -0.1846 -1.9916
57631SOL    HW279755   3.052   0.737  10.658  0.5322 -1.2412 -2.4514
57632SOL     OW79756   6.656   0.815   1.910 -0.5664  0.0070 -0.6753
57632SOL    HW179757   6.691   0.876   1.845  0.4371 -1.4925 -1.5703
57632SOL    HW279758   6.729   0.797   1.969 -0.3652 -1.5565 -1.3614
57633SOL     OW79759   7.724   9.213   8.374  0.9351  0.5921  0.1747
57633SOL    HW179760   7.728   9.134   8.320 -1.2207 -0.1322  1.0094
57633SOL    HW279761   7.815   9.243   8.377  1.3772 -0.1318 -2.6320
57634SOL     OW79762   6.421   5.715   6.516  0.6300 -0.0548  0.0969
57634SOL    HW179763   6.367   5.758   6.582  0.7596 -0.3797  0.4130
57634SOL    HW279764   6.448   5.633   6.556  1.5374  0.2031  0.0232
57635SOL     OW79765   6.323   4.536   6.034 -0.4103 -0.3864  0.6089
57635SOL    HW179766   6.238   4.571   6.010 -0.5632 -1.2798 -0.2105
57635SOL    HW279767   6.384   4.608   6.021 -0.8651 -0.1112 -0.0208
57636SOL     OW79768  10.935   3.102   2.078  0.1135 -0.4482 -0.7194
57636SOL    HW179769  10.878   3.164   2.125  2.0662  0.4081  0.6879
57636SOL    HW279770  10.876   3.057   2.018 -2.1796 -0.1487  1.1192
57637SOL     OW79771  10.070  11.397   7.850  0.1631  0.2656 -0.1885
57637SOL    HW179772  10.013  11.334   7.806 -0.6323  1.6648 -1.2579
57637SOL    HW279773  10.116  11.442   7.779  2.3220 -0.5021  0.6371
57638SOL     OW79774   7.663   6.165   7.780  0.2580  0.4483  0.1747
57638SOL    HW179775   7.575   6.177   7.744  0.0627  1.2145  0.8845
57638SOL    HW279776   7.721   6.167   7.704 -0.2594  0.7812 -0.2189
57639SOL     OW79777   7.944   9.036  11.903  0.7450 -0.0436 -0.1456
57639SOL    HW179778   8.015   9.079  11.857  2.7205 -3.0844 -0.2277
57639SOL    HW279779   7.976   9.024  11.993 -0.9224  1.1527  0.6643
57640SOL     OW79780   9.653   1.413   6.074 -0.0176 -0.0394 -0.2843
57640SOL    HW179781   9.654   1.490   6.017 -0.2884  0.3336  0.2018
57640SOL    HW279782   9.661   1.449   6.163  1.5317 -0.6630 -0.1308
57641SOL     OW79783   3.259   2.478   2.641 -0.1614  0.1352 -0.3095
57641SOL    HW179784   3.203   2.409   2.677  0.3732  0.6974  1.7242
57641SOL    HW279785   3.210   2.512   2.566 -0.0762 -2.9625 -1.9090
57642SOL     OW79786  10.594  11.220   6.882 -0.0372 -0.5054 -0.4041
57642SOL    HW179787  10.621  11.142   6.930 -2.5732 -0.6983  0.8610
57642SOL    HW279788  10.636  11.293   6.928 -2.2900 -0.6944  2.2098
57643SOL     OW79789   6.408   2.626   7.863 -0.3523  0.3786  0.3060
57643SOL    HW179790   6.425   2.589   7.950 -1.4962  0.5991  0.6390
57643SOL    HW279791   6.400   2.721   7.879  0.0891  0.4943 -0.1486
57644SOL     OW79792   0.500   4.851  10.821  0.3082  0.5102 -0.3420
57644SOL    HW179793   0.509   4.825  10.913 -1.3853 -0.7849 -0.4813
57644SOL    HW279794   0.406   4.847  10.804  0.3261  3.2177 -1.4867
57645SOL     OW79795   1.988  10.164   1.090  0.4754 -0.1231 -0.7061
57645SOL    HW179796   1.906  10.194   1.051 -0.3847 -2.5244 -0.9157
57645SOL    HW279797   2.025  10.104   1.025  0.2738 -2.2813  1.0618
57646SOL     OW79798   1.249  10.103  11.699  0.4857  0.3989  0.0901
57646SOL    HW179799   1.160  10.078  11.671  0.6105 -0.2685  0.2655
57646SOL    HW279800   1.240  10.121  11.792  0.8464 -1.2908  0.4757
57647SOL     OW79801   1.232   6.552  11.163 -0.2058  0.2128 -0.0150
57647SOL    HW179802   1.222   6.647  11.175 -1.6208  0.0637  0.2342
57647SOL    HW279803   1.181   6.514  11.235  0.9488 -0.7544  0.3237
57648SOL     OW79804   3.923  11.731   6.712 -0.1502  0.2492  0.5186
57648SOL    HW179805   3.887  11.729   6.800  1.0471  0.4059  1.0225
57648SOL    HW279806   4.016  11.751   6.724 -0.1870  1.4403 -0.8278
57649SOL     OW79807   0.436  10.844  11.712  0.8641  0.5949  0.7043
57649SOL    HW179808   0.525  10.875  11.728  1.3781 -0.1264 -0.5791
57649SOL    HW279809   0.382  10.893  11.773  2.1304  1.1150  1.4416
57650SOL     OW79810   5.165  11.414   3.965  0.3136 -0.4116  0.3198
57650SOL    HW179811   5.070  11.408   3.978  0.1482  1.0301 -0.0789
57650SOL    HW279812   5.181  11.506   3.946  1.5903 -0.9033 -1.2786
57651SOL     OW79813   4.186   1.753   3.948  0.2879  0.2549 -0.3661
57651SOL    HW179814   4.227   1.667   3.958 -1.4010 -0.6973 -1.3112
57651SOL    HW279815   4.180   1.787   4.037 -1.2342 -1.6850  0.3419
57652SOL     OW79816   0.164   3.234   4.949 -0.2615  0.0268 -0.0692
57652SOL    HW179817   0.187   3.264   5.037  0.0233  1.7266 -0.6886
57652SOL    HW279818   0.115   3.307   4.910  0.8521 -0.0937 -1.8058
57653SOL     OW79819   9.096   0.042   7.535 -0.4112  0.2941  0.1356
57653SOL    HW179820   9.143   0.091   7.467  1.1023 -1.4159 -0.1263
57653SOL    HW279821   9.005   0.068   7.524 -0.0013  1.1806 -1.5984
57654SOL     OW79822  11.126  11.623   6.717 -0.1972  0.4887  0.4337
57654SOL    HW179823  11.205  11.576   6.688 -0.2273  0.5490  0.2503
57654SOL    HW279824  11.054  11.573   6.678 -0.1609  1.9996 -1.7550
57655SOL     OW79825   3.862  10.558  11.939 -0.4279 -0.6052 -0.6700
57655SOL    HW179826   3.890  10.636  11.891 -0.6666  0.0272  0.1961
57655SOL    HW279827   3.875  10.486  11.877  0.5582  0.0108 -1.2023
57656SOL     OW79828   7.444  12.177   9.503 -0.3236 -0.0887 -0.5741
57656SOL    HW179829   7.435  12.265   9.469  0.7011  1.4968  2.7647
57656SOL    HW279830   7.357  12.154   9.536 -0.6407 -0.4617 -1.6331
57657SOL     OW79831   5.290   5.188   6.071  0.3286 -0.7511 -0.2269
57657SOL    HW179832   5.304   5.208   5.979  0.6212 -0.3588 -0.0943
57657SOL    HW279833   5.195   5.182   6.080  0.3073 -0.9942 -0.5951
57658SOL     OW79834   7.828  11.068   4.022  0.3162  0.4107 -0.1420
57658SOL    HW179835   7.842  11.001   3.955 -4.0165 -1.4699  0.5270
57658SOL    HW279836   7.846  11.023   4.104  3.2580  2.0223  0.2349
57659SOL     OW79837   5.824   1.048   9.092  0.2346  0.4404 -0.1982
57659SOL    HW179838   5.793   0.957   9.086  1.7788 -0.1020 -0.4485
57659SOL    HW279839   5.829   1.066   9.185 -1.0817  0.6443 -0.1546
57660SOL     OW79840   4.715  11.157   9.242  0.8462 -0.0998  0.4120
57660SOL    HW179841   4.766  11.080   9.266  1.7689  0.7351  1.2192
57660SOL    HW279842   4.674  11.134   9.158  1.4111 -1.3122  0.4527
57661SOL     OW79843  10.870   6.239   0.443  0.2033 -0.0760 -0.2431
57661SOL    HW179844  10.919   6.266   0.365  1.4634  1.5841  1.0483
57661SOL    HW279845  10.903   6.151   0.461  0.4563 -0.1815 -1.1445
57662SOL     OW79846   0.842  10.311   5.901  0.1503  0.0968  0.1384
57662SOL    HW179847   0.880  10.397   5.886  0.4012 -0.3119 -1.8471
57662SOL    HW279848   0.748  10.324   5.890  0.2476  0.0055 -0.9365
57663SOL     OW79849   0.591   4.749   4.743 -0.1528  0.2022 -0.0910
57663SOL    HW179850   0.546   4.733   4.826  0.1814  1.8641  0.4618
57663SOL    HW279851   0.521   4.749   4.678 -0.5086 -0.4728  0.2849
57664SOL     OW79852   5.023   9.777   0.092  0.1444 -0.3243  0.1464
57664SOL    HW179853   5.026   9.817   0.179 -0.4974  0.8268 -0.3450
57664SOL    HW279854   4.948   9.717   0.096 -0.4783  0.4322  0.1107
57665SOL     OW79855   6.984   7.434   6.689  0.1877 -0.2856 -0.7240
57665SOL    HW179856   6.915   7.440   6.623  0.2860  1.0344 -0.7311
57665SOL    HW279857   7.058   7.480   6.650 -0.1641  1.6790  0.7950
57666SOL     OW79858   8.779  11.978   2.089  0.1808 -0.3511  0.0892
57666SOL    HW179859   8.817  12.019   2.167  2.0710  1.6169 -1.7134
57666SOL    HW279860   8.698  12.026   2.074  1.7534  2.1181 -1.2790
57667SOL     OW79861   8.569   8.544   0.406 -0.2093  0.3345 -0.2827
57667SOL    HW179862   8.515   8.473   0.370 -1.5637  1.8289 -1.3540
57667SOL    HW279863   8.582   8.604   0.333 -0.4119  1.9542  0.9369
57668SOL     OW79864   7.289   4.434   5.298 -0.5894  0.2738  0.3993
57668SOL    HW179865   7.383   4.423   5.288 -0.8657 -0.1100 -2.8703
57668SOL    HW279866   7.261   4.357   5.348  0.6052 -0.7722 -0.4646
57669SOL     OW79867   2.301   2.107   0.611  0.4984 -0.1402  0.1376
57669SOL    HW179868   2.280   2.067   0.696  3.0305 -0.5696  0.6234
57669SOL    HW279869   2.393   2.087   0.597  0.5061  1.1515 -2.0812
57670SOL     OW79870  12.124   2.549   9.742  0.5600 -0.2593  0.2488
57670SOL    HW179871  12.149   2.557   9.834  1.5879  0.0147 -0.0401
57670SOL    HW279872  12.204   2.519   9.698 -0.4805 -2.5010 -0.2555
57671SOL     OW79873   9.934   2.023   2.636  1.0020 -0.0928  0.3439
57671SOL    HW179874   9.876   2.096   2.614  0.8261 -0.9282 -2.3656
57671SOL    HW279875   9.942   2.026   2.731 -2.0108  1.1639  0.6595
57672SOL     OW79876  10.069  12.312   5.854  0.1080 -0.1397  0.1957
57672SOL    HW179877  10.025  12.287   5.772 -1.0655  0.1421  0.7207
57672SOL    HW279878  10.060  12.407   5.858 -1.0179 -0.2715  1.2905
57673SOL     OW79879   5.293   9.082   0.597 -0.3544 -0.0094  0.3526
57673SOL    HW179880   5.222   9.139   0.628  0.0891  0.6217  0.2290
57673SOL    HW279881   5.359   9.086   0.666 -0.5807 -0.8808  0.6303
57674SOL     OW79882   3.788   9.613   7.160  0.3782  0.0908 -0.3422
57674SOL    HW179883   3.758   9.639   7.073  0.5790 -1.3003 -0.8600
57674SOL    HW279884   3.726   9.545   7.186  0.7958 -0.0637  0.2539
57675SOL     OW79885   4.085  10.871   0.435  0.3510  0.6054  0.1895
57675SOL    HW179886   4.093  10.790   0.485  0.4367  0.3822 -0.1812
57675SOL    HW279887   4.174  10.907   0.434  0.4797  0.2832 -0.3404
57676SOL     OW79888   9.686   9.537   2.708  0.0523  0.5391  0.2200
57676SOL    HW179889   9.606   9.506   2.750  0.8035  1.1945  2.2773
57676SOL    HW279890   9.656   9.607   2.649 -1.1964 -1.3975 -1.5699
57677SOL     OW79891  10.602   0.900   5.918  0.4795 -0.3264  0.0882
57677SOL    HW179892  10.663   0.843   5.965 -1.0532 -1.4956  0.7398
57677SOL    HW279893  10.524   0.903   5.974 -0.2670  0.7058 -0.9649
57678SOL     OW79894   5.559   2.983  12.406 -0.3166 -0.0950 -0.0892
57678SOL    HW179895   5.565   2.992  12.502 -1.8161 -1.5650  0.1846
57678SOL    HW279896   5.465   2.994  12.388  0.0217  0.6791 -1.4731
57679SOL     OW79897   8.777   3.039   8.513  0.6567  0.1818  0.6101
57679SOL    HW179898   8.774   3.080   8.599  0.9037  1.5634 -0.0060
57679SOL    HW279899   8.685   3.039   8.484  0.7723  1.2800  0.1934
57680SOL     OW79900   4.141   1.132  12.179  0.2999 -0.2330  0.0553
57680SOL    HW179901   4.079   1.067  12.212 -0.2414  0.0281 -0.4399
57680SOL    HW279902   4.225   1.085  12.178  0.1628 -0.5214  0.9275
57681SOL     OW79903   7.268   2.338   6.107  0.3569  0.0759  0.2609
57681SOL    HW179904   7.206   2.267   6.120  0.3290  0.0421 -0.0439
57681SOL    HW279905   7.219   2.403   6.056  1.1166 -0.7460 -1.6406
57682SOL     OW79906   6.819   5.420   1.246 -0.6989  0.7971  0.3676
57682SOL    HW179907   6.745   5.390   1.299 -0.1200 -0.8256  0.3188
57682SOL    HW279908   6.801   5.387   1.158  0.5561 -0.5806  0.5767
57683SOL     OW79909  10.745   2.612   7.608  0.6227 -0.3007  0.0348
57683SOL    HW179910  10.832   2.573   7.604  1.3551  1.2462  0.1864
57683SOL    HW279911  10.713   2.608   7.518  0.9260 -0.6954 -0.0580
57684SOL     OW79912   2.929  11.532   9.323  0.4938  0.8462 -0.0533
57684SOL    HW179913   3.020  11.502   9.331 -0.4116 -2.3584 -0.6159
57684SOL    HW279914   2.891  11.520   9.410 -0.1552 -0.7308 -0.5321
57685SOL     OW79915  10.526   7.236   7.268 -0.2335  0.5607 -0.3452
57685SOL    HW179916  10.512   7.183   7.189 -0.1484 -1.6443  1.0473
57685SOL    HW279917  10.619   7.259   7.265 -0.3080  0.7951 -1.0541
57686SOL     OW79918   9.110   3.532   5.734 -0.1777  0.5475  0.2055
57686SOL    HW179919   9.091   3.601   5.670 -0.2504 -0.1117 -0.4946
57686SOL    HW279920   9.027   3.516   5.778  0.0700  1.6419  1.1297
57687SOL     OW79921   1.402   7.990   1.494  0.6569  0.0424 -0.3994
57687SOL    HW179922   1.493   8.017   1.490  1.1888 -1.5987 -0.0900
57687SOL    HW279923   1.365   8.037   1.569  1.3249  0.4567 -0.3288
57688SOL     OW79924  11.163   1.909   2.655  0.4018 -0.0250 -0.0883
57688SOL    HW179925  11.158   1.985   2.712 -1.0098 -1.0738  1.2492
57688SOL    HW279926  11.248   1.869   2.675 -0.6640 -1.2077  2.4736
57689SOL     OW79927   6.075   1.894  11.612  0.1305 -0.0926 -0.0946
57689SOL    HW179928   6.164   1.863  11.630 -0.6360 -1.7091  1.2680
57689SOL    HW279929   6.048   1.845  11.535  1.3492  2.5021 -2.3092
57690SOL     OW79930   0.399   8.351  10.184  0.0921  0.4181  0.6281
57690SOL    HW179931   0.382   8.417  10.117  2.0524 -0.2317 -0.5903
57690SOL    HW279932   0.312   8.324  10.213 -0.7865  1.7883 -0.5618
57691SOL     OW79933   4.102   4.282  11.359 -0.0701 -0.3613  0.2197
57691SOL    HW179934   4.165   4.331  11.307  1.1234 -1.2126  0.8351
57691SOL    HW279935   4.127   4.190  11.348  0.2913 -0.5538  2.3709
57692SOL     OW79936  11.824  12.027   7.157 -0.1029  1.0986  0.1987
57692SOL    HW179937  11.897  11.974   7.124 -0.0738  2.4717 -2.1487
57692SOL    HW279938  11.745  11.984   7.122 -0.1568  1.7417 -0.5090
57693SOL     OW79939   9.455   2.004   7.175 -0.2463 -0.2409  0.3709
57693SOL    HW179940   9.395   2.065   7.133 -1.0066 -1.0858  0.2086
57693SOL    HW279941   9.529   1.997   7.115  0.1539  1.0016  0.6946
57694SOL     OW79942   4.848  10.727  10.544  0.2267 -0.1327  0.5468
57694SOL    HW179943   4.884  10.815  10.535  0.5990 -0.3144  0.1914
57694SOL    HW279944   4.835  10.716  10.638 -2.8118  1.4595  0.4245
57695SOL     OW79945   5.465   7.197  12.414  0.0343 -0.6261 -0.4084
57695SOL    HW179946   5.520   7.119  12.421  0.0328 -0.7272 -1.4596
57695SOL    HW279947   5.519   7.268  12.449  0.4451 -0.9014 -0.4850
57696SOL     OW79948   9.975   4.777   3.437  0.1178  0.6049  0.2909
57696SOL    HW179949  10.033   4.792   3.511 -0.1710  0.5365  0.5366
57696SOL    HW279950   9.950   4.865   3.408  0.3689  0.6347  0.1615
57697SOL     OW79951   4.890   3.616   8.270  0.4255  0.1398 -0.0661
57697SOL    HW179952   4.824   3.549   8.290  0.7502 -0.6423 -1.4666
57697SOL    HW279953   4.938   3.627   8.352  1.0604 -2.1622 -0.0702
57698SOL     OW79954  10.790   9.130   9.065 -0.4925  0.0328  0.4149
57698SOL    HW179955  10.858   9.128   9.132  0.6955  0.7608 -0.7290
57698SOL    HW279956  10.737   9.206   9.086  0.0263  0.4014  0.3963
57699SOL     OW79957   3.387   9.973  11.087 -0.0419 -0.1094  0.5993
57699SOL    HW179958   3.346   9.901  11.039 -1.7984  1.5122 -0.4595
57699SOL    HW279959   3.318  10.007  11.143  0.6148  1.0575  0.7301
57700SOL     OW79960   7.926   6.366   1.889 -0.2124  0.4760  0.3987
57700SOL    HW179961   8.003   6.344   1.942  0.0178 -0.3861 -0.2754
57700SOL    HW279962   7.864   6.294   1.905  0.0129 -0.0079 -0.7746
57701SOL     OW79963   3.131   3.965   6.837 -0.1823 -0.3621 -0.0124
57701SOL    HW179964   3.177   3.907   6.777  0.3514 -0.1749  0.2048
57701SOL    HW279965   3.038   3.953   6.817  0.0122  0.6253 -1.7372
57702SOL     OW79966   4.817   4.014   7.092 -0.2316 -0.1625  0.7056
57702SOL    HW179967   4.857   4.020   7.005  0.8842 -1.6633  1.0803
57702SOL    HW279968   4.880   4.053   7.151  0.5883 -2.1848  1.2478
57703SOL     OW79969   8.134   5.428   3.721  0.1257 -0.1911  0.0929
57703SOL    HW179970   8.190   5.473   3.784 -2.7160  1.1579  1.8655
57703SOL    HW279971   8.129   5.488   3.647  0.0412  0.2911  0.4765
57704SOL     OW79972  10.054   9.329   7.184 -0.5985 -0.2351  0.7550
57704SOL    HW179973   9.965   9.343   7.215 -0.7209 -1.4221  0.9732
57704SOL    HW279974  10.102   9.300   7.261 -0.2166 -0.3901  0.4603
57705SOL     OW79975   6.471   7.770   9.935  0.1998  0.0663 -0.2141
57705SOL    HW179976   6.480   7.815  10.019  1.3977 -1.0718  0.3006
57705SOL    HW279977   6.528   7.817   9.876  1.0941 -0.4643  0.2051
57706SOL     OW79978  11.059   5.271  11.894 -0.4604 -0.0452 -0.1059
57706SOL    HW179979  11.119   5.254  11.967 -2.3635 -0.6026  1.4129
57706SOL    HW279980  11.009   5.190  11.885 -0.2254 -0.0194 -2.1234
57707SOL     OW79981   1.711   2.934   0.360 -0.2598  0.2654 -0.5900
57707SOL    HW179982   1.685   3.009   0.306  0.3137 -0.1584 -1.4765
57707SOL    HW279983   1.745   2.974   0.440  0.5898  0.9927 -1.2852
57708SOL     OW79984  12.436  10.915   7.200 -0.7501  0.1186  0.1645
57708SOL    HW179985  12.362  10.896   7.257 -1.0499 -0.9875 -0.5704
57708SOL    HW279986  12.480  10.831   7.187 -0.9581  0.2400 -1.5707
57709SOL     OW79987   7.872   1.514   2.458  0.0982  0.0545 -0.2532
57709SOL    HW179988   7.826   1.546   2.535  0.1685  0.3956 -0.3534
57709SOL    HW279989   7.963   1.541   2.472  0.3679 -1.0252  0.1710
57710SOL     OW79990   5.843  11.764  10.089  0.1040 -0.2595 -0.0466
57710SOL    HW179991   5.779  11.760  10.160 -0.7516 -0.9112 -0.8294
57710SOL    HW279992   5.924  11.731  10.128 -0.5575 -1.3823  0.4236
57711SOL     OW79993  10.106   8.028   0.716 -0.2049  0.2092 -0.1181
57711SOL    HW179994  10.161   7.951   0.700 -1.9187 -1.0506 -0.2794
57711SOL    HW279995  10.137   8.093   0.654  1.5378 -0.2028  0.2733
57712SOL     OW79996   2.753   7.663   4.627 -0.0994 -0.2864 -0.0380
57712SOL    HW179997   2.845   7.657   4.600 -0.5333 -1.2549 -1.4382
57712SOL    HW279998   2.735   7.579   4.668 -0.2373  0.1066  0.7270
57713SOL     OW79999  11.120   3.381   6.796  0.1957 -0.2935  0.4814
57713SOL    HW180000  11.155   3.429   6.870  0.1970 -0.9855  0.9350
57713SOL    HW280001  11.026   3.398   6.799  0.1981 -0.3019  0.6262
57714SOL     OW80002   6.449  10.052   5.727 -0.5930  0.2152 -0.1548
57714SOL    HW180003   6.379  10.116   5.738 -0.6672  0.2503 -0.7733
57714SOL    HW280004   6.515  10.097   5.674 -1.1992 -0.5986 -1.6905
57715SOL     OW80005   7.894   5.103   2.913 -0.2461 -0.1446  0.2565
57715SOL    HW180006   7.919   5.160   2.840  1.1099 -1.9851 -0.7957
57715SOL    HW280007   7.803   5.080   2.896  0.5956 -2.2455 -2.1767
57716SOL     OW80008   7.295   5.166   0.932  0.1588  0.0864  0.1389
57716SOL    HW180009   7.365   5.123   0.982 -1.0381 -2.6791 -0.4016
57716SOL    HW280010   7.341   5.212   0.862  1.6666  1.8269  2.1214
57717SOL     OW80011   8.108   3.147   1.074  0.0208  0.0911 -0.0480
57717SOL    HW180012   8.029   3.096   1.090  1.0041 -1.1864  1.0235
57717SOL    HW280013   8.165   3.088   1.025  0.8773  0.4406  0.5068
57718SOL     OW80014   8.256   3.056   2.733  0.4279  0.0970  0.0700
57718SOL    HW180015   8.292   3.058   2.644  0.1503  1.1404 -0.0348
57718SOL    HW280016   8.307   3.121   2.781  1.0944 -0.9922  0.9038
57719SOL     OW80017   9.146   1.639   6.492  0.2613 -0.3949 -0.3092
57719SOL    HW180018   9.139   1.613   6.584  1.9455 -0.2330 -0.1064
57719SOL    HW280019   9.096   1.720   6.485  0.9504  0.1284  0.7032
57720SOL     OW80020   3.771  10.620   2.196 -0.1251 -0.1336 -0.8051
57720SOL    HW180021   3.804  10.531   2.209 -0.2040  0.0465  0.9055
57720SOL    HW280022   3.824  10.655   2.124  0.6304 -1.1989 -0.7965
57721SOL     OW80023   3.932   4.553   8.874  0.5074 -0.3398 -0.2377
57721SOL    HW180024   3.925   4.571   8.968  0.2187 -0.4108 -0.2460
57721SOL    HW280025   3.891   4.628   8.832 -0.9681 -1.1256 -0.2644
57722SOL     OW80026  11.409   8.138   4.261 -0.1908  0.3084  0.4001
57722SOL    HW180027  11.347   8.065   4.259  1.3111 -1.0769  1.8609
57722SOL    HW280028  11.354   8.216   4.261 -1.9100 -0.8576  1.0786
57723SOL     OW80029   8.867  12.454   9.237 -0.6641 -0.2501 -0.3272
57723SOL    HW180030   8.789  12.450   9.182 -2.6787  1.8773  2.1542
57723SOL    HW280031   8.842  12.409   9.318  0.2926  1.3451  0.9115
57724SOL     OW80032   0.634   7.134  12.067 -0.3764 -0.4296  0.8918
57724SOL    HW180033   0.581   7.182  12.130 -0.5053 -0.6264  0.9357
57724SOL    HW280034   0.592   7.150  11.983  0.8637  1.3706  0.5557
57725SOL     OW80035   3.419   5.700  11.498 -0.0413  0.2600 -0.2166
57725SOL    HW180036   3.345   5.660  11.545 -1.4633  1.2121 -1.5145
57725SOL    HW280037   3.382   5.723  11.413  1.5436  1.5555 -0.5892
57726SOL     OW80038   9.910   3.302   8.222 -0.0656 -0.0614 -0.5217
57726SOL    HW180039   9.994   3.277   8.183 -0.0094 -0.0532 -0.4072
57726SOL    HW280040   9.934   3.357   8.297 -0.2002  0.7814 -1.0768
57727SOL     OW80041   2.040   2.294  10.236 -0.3424 -0.5568 -0.3173
57727SOL    HW180042   2.122   2.267  10.195 -0.3536 -1.7729  0.4147
57727SOL    HW280043   2.037   2.245  10.318 -1.1896  0.4498  0.2759
57728SOL     OW80044   4.057   4.691   0.366 -0.5257  0.5710  0.0991
57728SOL    HW180045   4.097   4.672   0.451  1.3467  1.8488 -0.4398
57728SOL    HW280046   4.130   4.693   0.305 -1.8434 -0.3309 -1.5708
57729SOL     OW80047  11.953   3.286   7.945 -0.2805 -0.1956 -0.4964
57729SOL    HW180048  11.969   3.323   7.858  0.2655  0.0263 -0.3098
57729SOL    HW280049  12.029   3.313   7.996 -1.8357  2.0166  0.8281
57730SOL     OW80050   0.178   4.837   4.087  0.1787 -0.2436  0.1269
57730SOL    HW180051   0.260   4.795   4.059  1.8357  3.1421 -0.6487
57730SOL    HW280052   0.200   4.879   4.170 -0.3428  1.7336 -0.6840
57731SOL     OW80053   1.803   9.416   8.774 -1.0258 -0.7469  0.1881
57731SOL    HW180054   1.772   9.437   8.862 -0.9578  1.3034 -0.2085
57731SOL    HW280055   1.893   9.387   8.788 -0.8068  0.1410  0.7812
57732SOL     OW80056   2.980  11.287   9.803  0.8032  0.1896 -0.3795
57732SOL    HW180057   3.036  11.364   9.811 -0.7497  1.5661 -2.0118
57732SOL    HW280058   2.971  11.272   9.709 -3.1960  1.4170 -0.3983
57733SOL     OW80059   8.042   4.882   9.956 -0.0238  0.2591  0.5062
57733SOL    HW180060   8.035   4.849  10.046  0.5725  0.0884  0.4919
57733SOL    HW280061   8.132   4.863   9.930  0.1498  1.3509  0.2701
57734SOL     OW80062   8.327   4.931   3.452 -0.4571 -0.0292  0.2663
57734SOL    HW180063   8.277   5.012   3.459  0.5345  0.6838 -0.6580
57734SOL    HW280064   8.311   4.900   3.363 -1.9948 -1.6645  1.0490
57735SOL     OW80065   4.227   0.264  10.404 -0.1460  0.2724 -0.2804
57735SOL    HW180066   4.202   0.329  10.338 -1.1067 -0.6191 -0.8184
57735SOL    HW280067   4.270   0.194  10.354 -0.0756 -0.0056  0.1613
57736SOL     OW80068   0.839   2.150   3.299 -0.2278 -0.6122 -0.5982
57736SOL    HW180069   0.910   2.205   3.334 -1.5924  0.0129  1.2985
57736SOL    HW280070   0.780   2.212   3.257 -0.2162 -1.0189 -1.2321
57737SOL     OW80071   2.968   0.183  11.117  0.1911  0.1016  0.1082
57737SOL    HW180072   2.886   0.134  11.115 -0.0352  0.4855 -1.3622
57737SOL    HW280073   2.982   0.203  11.209 -0.5556 -1.3008  0.5570
57738SOL     OW80074   8.024   2.854   4.544  0.3169 -0.1213 -0.4741
57738SOL    HW180075   8.097   2.810   4.587  1.5897  2.1727 -0.1364
57738SOL    HW280076   8.049   2.856   4.451  0.6723  0.6019 -0.3686
57739SOL     OW80077  10.058   5.964   1.860 -0.0218 -0.1319 -0.5704
57739SOL    HW180078  10.139   5.913   1.865  1.2092  1.6970 -0.8029
57739SOL    HW280079  10.014   5.931   1.781  1.9143  0.7256 -2.1118
57740SOL     OW80080  10.468   4.913  10.625 -0.3989  0.2874  0.3969
57740SOL    HW180081  10.383   4.945  10.655 -0.8711  0.1241 -0.7024
57740SOL    HW280082  10.450   4.823  10.597  0.1088  0.2906  0.0519
57741SOL     OW80083  11.516  11.863   9.999 -0.2002  0.2969  0.3719
57741SOL    HW180084  11.459  11.791  10.025 -0.7908  1.2880  2.0091
57741SOL    HW280085  11.457  11.929   9.961  0.0470  0.7273  0.7209
57742SOL     OW80086   8.346  11.802   2.197 -0.0252 -0.7649 -0.5515
57742SOL    HW180087   8.401  11.878   2.176  0.8279 -1.5014 -1.0812
57742SOL    HW280088   8.317  11.769   2.113 -2.1376  0.1803 -0.2477
57743SOL     OW80089   4.473  11.279   6.560  0.6298  0.2178 -0.1727
57743SOL    HW180090   4.462  11.242   6.648  0.6731  0.4826 -0.0542
57743SOL    HW280091   4.393  11.329   6.545 -0.9316 -2.5284 -1.6443
57744SOL     OW80092   2.399   6.925   0.424 -0.9075 -0.1450 -0.0264
57744SOL    HW180093   2.369   6.981   0.354 -1.5044 -0.3840  0.0353
57744SOL    HW280094   2.361   6.839   0.405  0.4814 -0.6918 -0.4505
57745SOL     OW80095  10.012   8.547  11.743 -0.1496 -0.3732  0.0226
57745SOL    HW180096   9.925   8.507  11.740  0.0591 -0.8175 -0.1908
57745SOL    HW280097  10.038   8.555  11.651 -0.3648  0.6586  0.0352
57746SOL     OW80098   5.023  12.079  10.182  0.3153 -0.0447  0.0028
57746SOL    HW180099   4.995  11.987  10.183  1.0353 -0.2588  0.8801
57746SOL    HW280100   5.104  12.080  10.131  0.6206  0.0116  0.4878
57747SOL     OW80101   1.255   1.737  11.177 -0.2555  0.0902  0.0918
57747SOL    HW180102   1.161   1.722  11.186 -0.3072  0.0316 -0.4814
57747SOL    HW280103   1.292   1.709  11.260 -0.8418  0.9806  0.6671
57748SOL     OW80104   5.313   4.598   7.026 -0.3882 -0.3106 -0.2356
57748SOL    HW180105   5.306   4.562   6.938  0.0856 -4.0229  1.0475
57748SOL    HW280106   5.406   4.620   7.035 -0.0766 -1.5911 -0.1465
57749SOL     OW80107   2.749   0.980   1.144 -0.1438 -0.2045  0.3114
57749SOL    HW180108   2.797   0.904   1.175 -0.1161 -0.5482 -0.5314
57749SOL    HW280109   2.764   1.047   1.210  0.8908 -0.5344  0.4274
57750SOL     OW80110   0.617  10.902   0.227 -0.0453  0.5395 -0.1948
57750SOL    HW180111   0.647  10.974   0.171  2.5291 -0.8612 -0.7475
57750SOL    HW280112   0.621  10.825   0.171  2.8894 -0.9761  1.8405
57751SOL     OW80113   6.696   4.750   9.067 -0.8478  0.3295  0.0814
57751SOL    HW180114   6.716   4.826   9.122 -1.9842  0.3437  0.4888
57751SOL    HW280115   6.780   4.704   9.059 -0.5784  0.5200  1.5395
57752SOL     OW80116   2.876  12.082  10.351  0.7422 -0.0743  0.6196
57752SOL    HW180117   2.793  12.056  10.312  0.8338  0.0055  0.3681
57752SOL    HW280118   2.895  12.168  10.312  1.4447 -0.5484 -0.1063
57753SOL     OW80119  11.629   5.472   5.891 -0.1851  0.3518 -0.0077
57753SOL    HW180120  11.661   5.559   5.869 -0.8866  1.3573  2.6212
57753SOL    HW280121  11.550   5.487   5.943  0.7729 -1.6940  2.2841
57754SOL     OW80122   9.694   1.635  11.529  0.0796 -0.1703 -0.1556
57754SOL    HW180123   9.720   1.560  11.476  0.3244 -1.7073  2.0358
57754SOL    HW280124   9.641   1.689  11.469  1.2252 -1.2330 -2.2435
57755SOL     OW80125   4.242   5.878   2.860 -0.0282 -0.0696 -0.2061
57755SOL    HW180126   4.316   5.920   2.906 -0.0575 -0.8836  0.5981
57755SOL    HW280127   4.283   5.817   2.799 -0.0290 -0.2345 -0.0413
57756SOL     OW80128   5.102  11.077   6.691 -0.6249 -0.8595 -0.3942
57756SOL    HW180129   5.085  10.984   6.673  1.0651 -1.0926 -0.9248
57756SOL    HW280130   5.018  11.120   6.672 -0.5359 -1.8323 -3.5577
57757SOL     OW80131  12.334  12.416   3.331  0.1583  0.1765 -0.4025
57757SOL    HW180132  12.329  12.493   3.275  0.6417 -0.2490 -1.0480
57757SOL    HW280133  12.345  12.343   3.271 -0.0138 -0.3716  0.2134
57758SOL     OW80134  11.423   2.086   9.475 -0.1337 -0.1160 -0.0728
57758SOL    HW180135  11.393   2.051   9.559  1.2635  0.0349  0.5088
57758SOL    HW280136  11.476   2.162   9.498  1.8607 -1.1658 -0.9384
57759SOL     OW80137   1.992   9.863   1.070 -0.0693 -0.3866 -0.0390
57759SOL    HW180138   1.917   9.825   1.115 -0.1320  0.0054  0.1886
57759SOL    HW280139   1.968   9.861   0.977  0.2059 -1.5199 -0.1017
57760SOL     OW80140   2.931   5.751   1.443 -0.2834 -0.5203 -0.1625
57760SOL    HW180141   2.982   5.802   1.505  0.8550 -1.5173 -0.2474
57760SOL    HW280142   2.899   5.815   1.380  0.6486  0.1576  0.0316
57761SOL     OW80143  11.192   2.686  10.623 -0.0945  0.1219 -0.3674
57761SOL    HW180144  11.224   2.765  10.580 -0.4142  0.6255  0.2986
57761SOL    HW280145  11.125   2.718  10.684 -1.3190 -0.8101 -1.1705
57762SOL     OW80146   6.044   2.255   4.448  0.0902 -0.4833  0.6519
57762SOL    HW180147   6.066   2.209   4.367  2.0414 -0.7587  1.2796
57762SOL    HW280148   5.996   2.333   4.419  0.1817 -0.9147 -0.7228
57763SOL     OW80149   4.407   2.995   1.759 -0.2504 -0.4870  0.3711
57763SOL    HW180150   4.446   3.052   1.692  1.4874 -2.0748 -0.0476
57763SOL    HW280151   4.429   3.037   1.842  0.3307 -0.1477  0.0489
57764SOL     OW80152   7.201   2.262   9.277 -0.4877  0.2125  0.3128
57764SOL    HW180153   7.285   2.252   9.321  1.0166  3.1795 -1.5880
57764SOL    HW280154   7.143   2.299   9.344  0.3917  0.3921  0.9915
57765SOL     OW80155   4.821   2.327   9.170  0.1825 -0.1894  0.2701
57765SOL    HW180156   4.787   2.360   9.086  0.5574  0.3538  0.3248
57765SOL    HW280157   4.785   2.239   9.177 -0.8486  0.2037  0.1147
57766SOL     OW80158  10.491   8.625   2.816 -0.1946 -0.0112 -0.0516
57766SOL    HW180159  10.451   8.691   2.758 -1.8208 -2.0235 -1.3532
57766SOL    HW280160  10.419   8.594   2.870 -0.0396 -2.3892 -1.1189
57767SOL     OW80161   5.326   8.049   1.899  0.1420 -0.2290  0.4700
57767SOL    HW180162   5.380   8.079   1.972 -1.0804 -1.0898  1.7733
57767SOL    HW280163   5.307   7.957   1.919 -2.1770  0.1642  0.3164
57768SOL     OW80164  12.001   2.477   1.441  0.1170 -0.1268  0.0612
57768SOL    HW180165  11.971   2.563   1.470 -0.2568 -0.1534 -0.2355
57768SOL    HW280166  12.065   2.496   1.373  2.6024 -0.0016  2.2787
57769SOL     OW80167   4.607   6.996   6.592  0.2814  0.2786  0.5712
57769SOL    HW180168   4.538   6.933   6.615 -0.0487  0.0728 -0.8930
57769SOL    HW280169   4.689   6.951   6.613  0.0478 -0.6465 -0.4211
57770SOL     OW80170   8.578   4.418  11.377 -0.1565 -0.1060 -0.1898
57770SOL    HW180171   8.634   4.452  11.307 -1.1810  1.8074 -0.1562
57770SOL    HW280172   8.537   4.340  11.339 -0.3370  0.6288 -1.5776
57771SOL     OW80173   0.169  10.390   2.365  0.2741 -0.7575 -0.6525
57771SOL    HW180174   0.252  10.409   2.408 -0.2492 -0.1575  0.1245
57771SOL    HW280175   0.103  10.432   2.420 -0.5181 -0.9199 -1.4482
57772SOL     OW80176   0.509   3.799   9.902 -0.2630 -0.1193  0.5061
57772SOL    HW180177   0.511   3.883   9.948  2.6009  0.9402 -1.3028
57772SOL    HW280178   0.519   3.734   9.972 -0.4149  1.1571  1.7554
57773SOL     OW80179   4.558   9.151  10.108 -0.7048 -0.0166 -0.7077
57773SOL    HW180180   4.484   9.091  10.123  1.1239 -2.5016 -0.9712
57773SOL    HW280181   4.609   9.146  10.189  1.5756 -2.0722 -2.1430
57774SOL     OW80182   0.419   0.063   9.797  0.1224 -0.6606 -0.2795
57774SOL    HW180183   0.484  -0.001   9.826  1.5123 -0.4288 -2.6471
57774SOL    HW280184   0.407   0.044   9.704 -1.0988  1.1313 -0.5232
57775SOL     OW80185   0.554   2.572   9.982 -0.3415  0.5121 -0.8578
57775SOL    HW180186   0.574   2.618  10.063 -0.5136 -1.2085  0.2234
57775SOL    HW280187   0.521   2.640   9.923  0.5733  1.9452  0.2098
57776SOL     OW80188  12.478   0.088  11.991  0.6784  0.0766 -0.1505
57776SOL    HW180189  12.521   0.056  12.069  0.1095 -0.3237  0.0031
57776SOL    HW280190  12.432   0.012  11.955 -1.0107  0.7582  0.4393
57777SOL     OW80191   6.888   7.266  10.329 -0.0792 -0.0059 -0.0256
57777SOL    HW180192   6.941   7.189  10.307 -2.1768 -1.3398 -0.6488
57777SOL    HW280193   6.890   7.270  10.424  2.3395  0.9262 -0.0242
57778SOL     OW80194  12.012   5.541   0.982  0.0883 -0.2455 -0.1497
57778SOL    HW180195  12.047   5.452   0.980 -0.1030 -0.3076 -1.6777
57778SOL    HW280196  12.090   5.596   0.986  0.2228 -0.4648  0.3238
57779SOL     OW80197   5.588   9.238   1.801 -0.0747 -0.1162  0.4746
57779SOL    HW180198   5.547   9.172   1.857 -0.4830  0.9792  1.5023
57779SOL    HW280199   5.529   9.247   1.727 -0.4433 -0.3050  0.7438
57780SOL     OW80200   4.657   7.494   7.325 -0.1973 -0.1349 -0.2471
57780SOL    HW180201   4.686   7.583   7.308  0.1045 -0.3510 -0.8977
57780SOL    HW280202   4.736   7.440   7.313 -0.8156 -0.7319 -2.0794
57781SOL     OW80203   7.539   6.246   4.416 -0.5454 -0.3131  0.7531
57781SOL    HW180204   7.459   6.220   4.462 -0.7392 -0.0406  0.5740
57781SOL    HW280205   7.599   6.172   4.428 -0.9565 -0.6811  0.5608
57782SOL     OW80206   3.007   7.327   1.511 -0.4344  0.0480 -0.0407
57782SOL    HW180207   3.085   7.289   1.469  0.7222  2.1711  0.0654
57782SOL    HW280208   3.020   7.311   1.604 -0.9655 -1.0152 -0.1280
57783SOL     OW80209  10.284   6.775   8.641  0.5686  0.6099 -0.4060
57783SOL    HW180210  10.203   6.799   8.596  0.5568 -0.0183 -0.7323
57783SOL    HW280211  10.255   6.743   8.727  0.4363  0.0751 -0.6449
57784SOL     OW80212   3.968   4.764  11.282  0.1121 -0.0096 -0.8836
57784SOL    HW180213   3.877   4.792  11.272  0.0602  0.1582 -0.0816
57784SOL    HW280214   3.964   4.693  11.347  0.6726  0.8839  0.1746
57785SOL     OW80215   7.790  11.593  10.714 -0.2107 -0.1204  0.0764
57785SOL    HW180216   7.703  11.577  10.751  0.4013 -1.6533  0.9082
57785SOL    HW280217   7.772  11.638  10.631 -1.7837 -0.1470  0.3701
57786SOL     OW80218  10.838   1.938   6.841 -0.1419  0.1749 -1.0955
57786SOL    HW180219  10.824   1.908   6.931 -1.9697  0.9699 -1.0792
57786SOL    HW280220  10.819   1.861   6.787 -0.2821  0.0441 -0.8579
57787SOL     OW80221  12.078   1.317   0.545 -0.0849 -0.4390  0.4302
57787SOL    HW180222  12.089   1.237   0.596  1.0192  0.5577  1.8071
57787SOL    HW280223  11.985   1.318   0.522 -0.1800 -1.9423  0.6533
57788SOL     OW80224   4.841   9.056   4.102  0.3996  0.5611  0.1394
57788SOL    HW180225   4.759   9.090   4.139 -0.1066  0.4820 -0.8790
57788SOL    HW280226   4.840   8.963   4.122  0.2693  0.5704  0.1773
57789SOL     OW80227   9.273   4.226   3.763  0.2233 -0.4461  0.0011
57789SOL    HW180228   9.204   4.273   3.809  0.8640  0.1473  0.3771
57789SOL    HW280229   9.260   4.134   3.787 -0.7009 -0.4009 -0.2973
57790SOL     OW80230   8.382   3.121   5.255  0.0835 -0.2826 -0.1077
57790SOL    HW180231   8.425   3.102   5.338 -1.0450  1.2529  0.8843
57790SOL    HW280232   8.453   3.119   5.190  0.8484 -2.2714  0.7316
57791SOL     OW80233   1.811   7.125   2.749  0.2348 -0.3450 -0.1079
57791SOL    HW180234   1.778   7.077   2.825 -1.3780  1.7775  0.5988
57791SOL    HW280235   1.862   7.197   2.786  3.5886 -1.9241 -1.1615
57792SOL     OW80236   8.792   5.983   9.076 -0.3394  0.2873 -0.4274
57792SOL    HW180237   8.784   5.906   9.019  0.4670  0.5004 -0.8474
57792SOL    HW280238   8.768   5.950   9.163 -2.0704  0.0750 -0.9471
57793SOL     OW80239   5.939   1.713  11.460  0.1697  0.3382  0.0346
57793SOL    HW180240   5.967   1.655  11.390 -0.6324 -0.0351  0.0054
57793SOL    HW280241   5.865   1.761  11.423  0.0989  0.5430  0.4348
57794SOL     OW80242   8.658   0.749   9.476 -0.3487 -0.0425 -0.5540
57794SOL    HW180243   8.612   0.748   9.392  0.7860 -1.3908 -1.2066
57794SOL    HW280244   8.608   0.689   9.531  1.0199 -2.2310 -1.5512
57795SOL     OW80245   4.551  10.836   5.944 -0.1119  0.0248 -0.3920
57795SOL    HW180246   4.500  10.810   5.868 -1.6067  0.9714  0.2395
57795SOL    HW280247   4.500  10.907   5.984  0.9376 -0.0331  1.1314
57796SOL     OW80248   9.041  10.719   2.969 -0.2521 -0.1290 -0.2335
57796SOL    HW180249   8.976  10.767   3.020  0.1299 -0.0955  0.2270
57796SOL    HW280250   9.125  10.743   3.008  0.1467  0.8063 -1.6230
57797SOL     OW80251   4.426   3.349   7.229  0.2225  0.1140 -0.2376
57797SOL    HW180252   4.453   3.350   7.321  0.6867  0.1926 -0.3730
57797SOL    HW280253   4.358   3.282   7.224 -0.2550  0.5462  0.2884
57798SOL     OW80254   2.212  11.696   3.303 -0.3093 -0.6913 -0.4939
57798SOL    HW180255   2.224  11.621   3.361 -2.7697  0.9269  2.4366
57798SOL    HW280256   2.287  11.752   3.321 -1.5189  0.2628  2.1832
57799SOL     OW80257   0.989  10.978   3.485 -0.4051  0.2356  0.1033
57799SOL    HW180258   1.027  11.064   3.467 -0.5870  0.2418 -0.2559
57799SOL    HW280259   0.952  10.987   3.573  0.7483  0.1129  0.6199
57800SOL     OW80260  10.537   0.791   5.416 -0.4851  0.1720 -0.0578
57800SOL    HW180261  10.535   0.833   5.501 -0.7063  0.0591 -0.0068
57800SOL    HW280262  10.445   0.776   5.394 -0.4135 -0.2937 -0.0689
57801SOL     OW80263   4.469  10.413   5.020 -0.6917  0.1697  0.2437
57801SOL    HW180264   4.451  10.368   4.938 -2.8295 -1.7414  1.6643
57801SOL    HW280265   4.392  10.468   5.035  0.8405  2.6232 -0.2666
57802SOL     OW80266   0.980   5.736   6.742 -0.2222 -0.2235 -0.1916
57802SOL    HW180267   1.016   5.671   6.802 -0.9933 -1.1049 -0.6624
57802SOL    HW280268   1.024   5.719   6.658 -0.7282 -0.4164 -0.4213
57803SOL     OW80269   5.065   5.877   9.365 -0.3817 -0.0170  0.4281
57803SOL    HW180270   5.061   5.782   9.376 -0.5369  0.0942  1.4081
57803SOL    HW280271   4.974   5.905   9.361 -0.3381  0.1120  0.3138
57804SOL     OW80272   4.411  11.826  11.625  0.1944 -0.4594  0.2093
57804SOL    HW180273   4.345  11.882  11.667 -0.0706 -0.1433 -0.5982
57804SOL    HW280274   4.469  11.800  11.696  0.1584  0.6244  0.6575
57805SOL     OW80275  11.424   6.482   2.326  0.2799 -0.3216  0.4955
57805SOL    HW180276  11.455   6.408   2.274 -1.6449 -1.2505  0.5594
57805SOL    HW280277  11.410   6.552   2.263 -2.0562 -1.4462 -0.3341
57806SOL     OW80278  10.075   5.399  10.597  0.1361 -0.1656 -0.5064
57806SOL    HW180279  10.008   5.396  10.666 -0.1456 -1.4550 -0.8063
57806SOL    HW280280  10.063   5.317  10.549  0.3177  0.7270 -2.1219
57807SOL     OW80281   4.336   1.791   8.961 -0.5731 -0.2753  0.6778
57807SOL    HW180282   4.341   1.842   8.879 -2.2283  0.6329  1.0987
57807SOL    HW280283   4.253   1.744   8.954 -1.0916  0.3852  2.1424
57808SOL     OW80284   8.383   0.500  11.644 -0.4591 -0.2467 -0.2532
57808SOL    HW180285   8.367   0.548  11.563  0.7428 -0.2771 -0.5269
57808SOL    HW280286   8.319   0.429  11.642 -0.0199 -0.6385 -1.5158
57809SOL     OW80287   9.120   7.118   1.746 -0.4634  0.2739  0.2816
57809SOL    HW180288   9.204   7.073   1.757 -0.6541 -0.4571 -1.0290
57809SOL    HW280289   9.142   7.211   1.748  0.7891  0.1429 -2.4794
57810SOL     OW80290  10.405  11.916  11.445 -0.2877  0.1810  0.4663
57810SOL    HW180291  10.409  11.981  11.374 -0.9568  0.5020  0.7063
57810SOL    HW280292  10.495  11.905  11.473  0.1817 -0.9793 -1.3439
57811SOL     OW80293   8.438   6.934  12.270 -0.0565  0.6385 -0.0309
57811SOL    HW180294   8.481   6.859  12.311 -3.2582 -1.5719 -0.3370
57811SOL    HW280295   8.488   6.950  12.190  1.9403  0.2468  1.0916
57812SOL     OW80296  11.657   9.035   5.343 -0.1967  0.0887 -0.2143
57812SOL    HW180297  11.660   9.035   5.439  0.2108 -0.4402 -0.2238
57812SOL    HW280298  11.746   9.010   5.317 -0.1176  0.8770 -0.7409
57813SOL     OW80299   7.381  11.334  11.001 -0.0720  0.2902  0.4136
57813SOL    HW180300   7.448  11.304  11.062  0.3763  0.6405  0.1000
57813SOL    HW280301   7.430  11.365  10.925 -0.5527  1.1579  0.4456
57814SOL     OW80302   8.602   8.780  10.554  0.3272  0.0714 -0.1460
57814SOL    HW180303   8.521   8.738  10.582  0.7222 -2.0061 -1.8802
57814SOL    HW280304   8.577   8.832  10.477  0.4935  0.1236 -0.1655
57815SOL     OW80305   7.876   3.572   8.695  0.1807  0.7431  0.3663
57815SOL    HW180306   7.906   3.482   8.713  0.3449  0.9035  0.8935
57815SOL    HW280307   7.788   3.576   8.732 -0.3786  0.3936 -0.8414
57816SOL     OW80308  11.480   8.596   7.004  0.1742  0.5949  0.7221
57816SOL    HW180309  11.456   8.644   6.926 -1.1113 -0.3503  0.5012
57816SOL    HW280310  11.503   8.508   6.972 -1.1785 -0.0561  1.4557
57817SOL     OW80311  10.345   3.598   9.903 -0.4014  0.2044 -0.1201
57817SOL    HW180312  10.317   3.620   9.992  1.1554  0.4070  0.3373
57817SOL    HW280313  10.438   3.580   9.911 -0.6516 -2.0373 -1.3106
57818SOL     OW80314   9.851   4.495   8.057  0.6162  0.6341  0.3354
57818SOL    HW180315   9.919   4.435   8.087  0.7160  1.2164  1.3162
57818SOL    HW280316   9.795   4.442   8.000  1.2893 -0.1130  0.3499
57819SOL     OW80317   7.628   3.262   0.365 -0.5857 -0.1440  0.4687
57819SOL    HW180318   7.584   3.178   0.378 -0.0712 -0.1861  2.1680
57819SOL    HW280319   7.708   3.256   0.417 -0.5916  1.4338  0.7296
57820SOL     OW80320   3.412   5.675   3.708  0.2785  0.6195 -0.3291
57820SOL    HW180321   3.366   5.594   3.684  1.5556 -0.1404 -0.2644
57820SOL    HW280322   3.386   5.692   3.798  0.6105 -0.1371 -0.0946
57821SOL     OW80323   6.421   9.429   4.802 -0.7128  0.3929 -0.5034
57821SOL    HW180324   6.371   9.351   4.824 -0.6116  0.4316 -0.1249
57821SOL    HW280325   6.501   9.422   4.855  0.4440 -0.4735 -2.2529
57822SOL     OW80326   7.260   6.587   1.866 -0.0637 -0.1922  0.3766
57822SOL    HW180327   7.250   6.492   1.863 -0.1792 -0.2602  2.0711
57822SOL    HW280328   7.349   6.603   1.834 -0.9478 -0.5985 -2.5568
57823SOL     OW80329   2.607   6.621  10.252  0.1462  0.3335  0.0483
57823SOL    HW180330   2.566   6.544  10.213  0.5305 -0.0775  0.4555
57823SOL    HW280331   2.701   6.604  10.247  0.2630  1.0738 -0.4657
57824SOL     OW80332   0.497   4.777   6.655 -0.4136  0.0336 -0.0193
57824SOL    HW180333   0.490   4.847   6.590 -0.8636  1.2682  1.3044
57824SOL    HW280334   0.491   4.696   6.604  1.2373  0.9045 -1.7324
57825SOL     OW80335   8.535   2.249  10.703 -0.5602  0.0531  0.3041
57825SOL    HW180336   8.463   2.272  10.644 -0.8986  1.4641  1.2192
57825SOL    HW280337   8.546   2.326  10.758  2.6651  0.5004 -0.7641
57826SOL     OW80338   7.765   1.632   2.025  0.1473  0.0866 -0.3079
57826SOL    HW180339   7.717   1.589   2.096 -3.2938  1.6093 -1.4697
57826SOL    HW280340   7.837   1.677   2.068 -0.9275 -0.2753  2.0124
57827SOL     OW80341   2.017   3.036   4.449  0.3114  0.0769 -0.1954
57827SOL    HW180342   2.031   2.953   4.404 -2.6852 -0.4563 -0.3062
57827SOL    HW280343   1.964   3.088   4.389  0.1107  1.1546  0.8671
57828SOL     OW80344   1.421   4.412   4.459 -0.1969  0.2637  0.0713
57828SOL    HW180345   1.415   4.442   4.369 -0.4456 -1.5359 -0.5623
57828SOL    HW280346   1.334   4.428   4.495 -0.9968 -1.5412 -0.9133
57829SOL     OW80347   6.430   8.549   8.006 -0.2607 -0.0669  0.0780
57829SOL    HW180348   6.392   8.570   8.091 -1.1223 -1.1534 -0.0026
57829SOL    HW280349   6.362   8.573   7.943 -0.2705 -0.7437 -0.1764
57830SOL     OW80350  10.534   6.138   6.176  0.0353  0.0887  0.0532
57830SOL    HW180351  10.550   6.054   6.218  0.2111 -0.4383 -1.0341
57830SOL    HW280352  10.477   6.185   6.237 -0.5207 -1.0363  0.4211
57831SOL     OW80353   3.559   9.675   3.978 -0.1644 -0.0533  0.1941
57831SOL    HW180354   3.515   9.620   4.043 -0.2351 -0.0774  0.1248
57831SOL    HW280355   3.644   9.694   4.018 -0.0881 -0.3233  0.1600
57832SOL     OW80356   6.553   7.863  11.822  0.3420 -0.1334  0.0030
57832SOL    HW180357   6.598   7.779  11.832  0.2413 -0.2162 -0.2331
57832SOL    HW280358   6.466   7.841  11.788  1.0112  0.1769 -2.0763
57833SOL     OW80359   5.067   0.417   4.681  0.3215 -0.0253  0.1307
57833SOL    HW180360   5.161   0.432   4.690  0.5754 -0.9661 -0.7471
57833SOL    HW280361   5.031   0.436   4.768  1.6018 -1.6234  1.0619
57834SOL     OW80362   6.825  10.305   2.073  0.2326 -0.2698 -0.4048
57834SOL    HW180363   6.740  10.264   2.088  0.7613 -0.9783  0.7585
57834SOL    HW280364   6.809  10.368   2.002 -1.5264  0.4518  0.5691
57835SOL     OW80365   5.514   3.117  11.311  0.3642 -0.4611 -0.2730
57835SOL    HW180366   5.443   3.112  11.374  1.6763 -0.2352  1.2994
57835SOL    HW280367   5.516   3.209  11.284 -0.5765 -0.6756 -1.1500
57836SOL     OW80368   4.781   2.164   5.111  0.0295  0.1172  0.2428
57836SOL    HW180369   4.770   2.211   5.029 -0.2939  0.1520  0.3048
57836SOL    HW280370   4.775   2.231   5.179  0.0269  0.0521  0.3079
57837SOL     OW80371   8.033   2.765   9.540 -0.2753 -0.0616  0.1642
57837SOL    HW180372   8.050   2.842   9.486 -0.8706 -0.7149 -1.0062
57837SOL    HW280373   7.942   2.776   9.569  0.2544  0.6444  1.7000
57838SOL     OW80374  10.833  10.784   8.574 -0.2842  0.2562  0.5353
57838SOL    HW180375  10.844  10.872   8.609  1.6714  0.3802 -0.2554
57838SOL    HW280376  10.760  10.747   8.623 -1.2969  2.3826  0.7222
57839SOL     OW80377  10.223   1.348   7.483 -0.2034  0.3378  0.7874
57839SOL    HW180378  10.281   1.295   7.429 -2.9792 -3.0362  0.7381
57839SOL    HW280379  10.248   1.328   7.573 -1.4157 -1.4401  0.7742
57840SOL     OW80380   7.286   9.540  11.224 -0.0736  0.0974 -0.8345
57840SOL    HW180381   7.240   9.603  11.169  0.6002 -0.1631 -1.7226
57840SOL    HW280382   7.364   9.515  11.173 -1.4681 -3.2498 -1.6201
57841SOL     OW80383   5.292   6.887   8.085 -0.3975 -0.2994  0.1957
57841SOL    HW180384   5.204   6.925   8.087 -0.3803 -0.2376 -0.0893
57841SOL    HW280385   5.278   6.793   8.078 -0.4517 -0.2015 -1.2909
57842SOL     OW80386  12.271   2.339   5.405 -0.0982 -0.6136  0.3672
57842SOL    HW180387  12.348   2.393   5.423 -0.5477 -0.4587  2.0161
57842SOL    HW280388  12.270   2.329   5.310  1.8077 -0.4156  0.2880
57843SOL     OW80389   3.909  11.770   0.208 -0.0248 -0.1143  0.4070
57843SOL    HW180390   3.829  11.817   0.232  0.6710  0.9935  0.6298
57843SOL    HW280391   3.906  11.689   0.259 -0.7183  0.1932  0.8574
57844SOL     OW80392   6.693   3.159  11.874 -0.0678  0.9696  0.0510
57844SOL    HW180393   6.776   3.120  11.847 -0.2018 -0.5397  1.6464
57844SOL    HW280394   6.645   3.172  11.792  0.5532 -0.9958 -0.6968
57845SOL     OW80395   3.678   5.642   5.750 -0.2339  0.0722  0.0339
57845SOL    HW180396   3.628   5.560   5.754  1.3905 -0.9286  1.2677
57845SOL    HW280397   3.650   5.691   5.827 -0.2452  0.0942  0.0159
57846SOL     OW80398   5.627  12.241   0.464 -0.1619 -0.0470  0.3568
57846SOL    HW180399   5.716  12.211   0.446  0.0391  0.2448  0.8357
57846SOL    HW280400   5.571  12.183   0.412  0.4143  1.4057 -2.0377
57847SOL     OW80401   6.066   6.269  12.307  0.0860 -0.1274 -0.4031
57847SOL    HW180402   6.025   6.259  12.393 -1.1051 -0.1712 -0.9566
57847SOL    HW280403   6.156   6.238  12.319 -0.0044  0.0448  0.8639
57848SOL     OW80404   6.009   2.767   1.715  0.4058  0.3429 -0.4382
57848SOL    HW180405   6.058   2.743   1.636  0.5599  1.6343 -0.7568
57848SOL    HW280406   5.963   2.848   1.691 -1.2719 -0.3948  0.1112
57849SOL     OW80407   3.477   8.347  11.982  0.7974  0.6221 -0.3473
57849SOL    HW180408   3.523   8.432  11.982 -0.8309  1.5577  0.6505
57849SOL    HW280409   3.479   8.320  12.074 -2.8347  2.0140  0.3015
57850SOL     OW80410  10.163  10.438   3.683 -0.5524 -0.3549 -0.0807
57850SOL    HW180411  10.158  10.533   3.694 -1.7373 -0.3217 -0.8154
57850SOL    HW280412  10.100  10.402   3.746 -1.0689 -0.5804 -0.7177
57851SOL     OW80413   2.390   2.810   1.379  0.2319  0.0142 -0.3256
57851SOL    HW180414   2.441   2.807   1.298  0.8496 -0.3713  0.0712
57851SOL    HW280415   2.320   2.872   1.361 -0.3726 -0.9873 -1.5902
57852SOL     OW80416  10.122   9.708   5.559 -0.1319 -0.4345  0.4185
57852SOL    HW180417  10.035   9.743   5.540 -0.3240  0.1407  2.1933
57852SOL    HW280418  10.177   9.785   5.575  1.0584 -0.7267 -1.8712
57853SOL     OW80419   8.197   5.777   2.636  0.5183  0.0751  0.1284
57853SOL    HW180420   8.136   5.816   2.699  1.1784  0.0821  0.7631
57853SOL    HW280421   8.191   5.683   2.651 -1.0094 -0.1275 -1.3455
57854SOL     OW80422   5.657   1.477   7.951  0.7094  0.6508  0.0503
57854SOL    HW180423   5.622   1.448   8.036  0.5411 -0.8200 -0.4871
57854SOL    HW280424   5.741   1.431   7.943 -1.0765 -2.6924 -2.3354
57855SOL     OW80425   2.067   8.749   7.478 -0.2028  0.1028 -0.2698
57855SOL    HW180426   2.133   8.760   7.547 -0.8502  1.4040  0.1897
57855SOL    HW280427   1.983   8.766   7.523 -0.7584 -0.4261 -1.0823
57856SOL     OW80428   0.640   6.236   1.762 -0.2022 -0.0984 -0.2819
57856SOL    HW180429   0.726   6.257   1.797  1.0906  0.7130 -3.5272
57856SOL    HW280430   0.612   6.317   1.719 -1.6931 -0.9185 -0.9308
57857SOL     OW80431   6.399   2.412   8.038 -0.5299 -0.0761  0.0892
57857SOL    HW180432   6.354   2.404   8.122 -0.4807  1.0202  0.2340
57857SOL    HW280433   6.492   2.397   8.059 -0.6819 -1.4020 -0.0576
57858SOL     OW80434   2.680   8.875   9.117  0.5648  0.8836 -0.0448
57858SOL    HW180435   2.603   8.843   9.164  1.1408 -1.5225 -0.6098
57858SOL    HW280436   2.738   8.800   9.111  1.6537  1.7933 -2.2891
57859SOL     OW80437   6.309  10.919   5.869  0.3934  0.6820 -0.2760
57859SOL    HW180438   6.393  10.874   5.856  0.2863  0.1660  0.7074
57859SOL    HW280439   6.309  10.943   5.962 -0.9404 -0.1370 -0.0447
57860SOL     OW80440   1.265  10.761   2.943  0.7584 -0.2155  0.5941
57860SOL    HW180441   1.282  10.822   2.871  0.5757 -0.8120  0.0461
57860SOL    HW280442   1.190  10.709   2.914  1.2444 -1.0592  0.8438
57861SOL     OW80443  10.740  11.737   5.569 -0.4044 -0.3489  0.1603
57861SOL    HW180444  10.754  11.682   5.492 -0.1793 -1.6758  1.1306
57861SOL    HW280445  10.660  11.786   5.549  0.5249  0.5670 -1.5983
57862SOL     OW80446   1.087   0.427   3.638 -0.2196  0.2435 -0.5838
57862SOL    HW180447   1.052   0.508   3.601 -0.1649  0.3725 -0.3535
57862SOL    HW280448   1.145   0.455   3.709 -0.7004 -0.0174 -0.0810
57863SOL     OW80449   0.751   5.900   0.277 -0.0924  0.0041  0.3443
57863SOL    HW180450   0.806   5.970   0.243 -1.6788  0.8805 -0.5282
57863SOL    HW280451   0.745   5.837   0.206  0.0152 -0.2383  0.5471
57864SOL     OW80452   3.958  11.542   8.244 -0.1177 -0.5370 -0.1027
57864SOL    HW180453   4.024  11.473   8.250 -1.4328 -1.7614  0.6619
57864SOL    HW280454   4.009  11.623   8.244  1.5258 -1.4892 -2.1226
57865SOL     OW80455   5.866  11.669   8.453  0.6435 -0.2247 -0.6220
57865SOL    HW180456   5.794  11.693   8.396  1.1641 -0.8812 -1.5845
57865SOL    HW280457   5.914  11.750   8.467  0.8964 -0.1786 -1.6807
57866SOL     OW80458   5.147   0.741  11.466 -0.3370  0.1548 -0.2015
57866SOL    HW180459   5.113   0.654  11.487  0.9096 -0.3240 -0.0595
57866SOL    HW280460   5.223   0.751  11.524 -0.9386  1.6771  0.3578
57867SOL     OW80461   4.722   7.704  11.810  0.0473 -0.3109  0.4631
57867SOL    HW180462   4.666   7.676  11.738  2.0719 -0.3252 -1.2058
57867SOL    HW280463   4.665   7.757  11.866 -0.8819  2.9693 -3.1444
57868SOL     OW80464   1.929  12.011   2.361 -0.4282 -0.5274 -0.3654
57868SOL    HW180465   2.002  11.960   2.327 -0.8846 -1.7521  0.4378
57868SOL    HW280466   1.945  12.017   2.455  0.8352  2.8388 -0.6646
57869SOL     OW80467  10.252   8.327   3.179  0.7188  0.3738  0.0983
57869SOL    HW180468  10.300   8.378   3.244  0.8113 -1.5823  1.6813
57869SOL    HW280469  10.160   8.337   3.203  0.6470  0.6836 -0.2893
57870SOL     OW80470   8.171   7.647   3.284 -0.4394 -1.0022  0.3433
57870SOL    HW180471   8.257   7.633   3.324 -0.5928 -0.5629  0.8314
57870SOL    HW280472   8.190   7.691   3.201 -0.2094 -0.6191  0.5952
57871SOL     OW80473   0.075   8.540   0.302  0.9510  0.1613  0.1138
57871SOL    HW180474   0.055   8.607   0.367  0.3310  0.8231 -0.7403
57871SOL    HW280475   0.169   8.524   0.312  0.9389  0.5460  0.8904
57872SOL     OW80476   4.057   9.770   3.122 -0.1258 -0.0814  0.3186
57872SOL    HW180477   4.144   9.761   3.162 -0.7673 -1.1267  1.5744
57872SOL    HW280478   4.047   9.864   3.109  1.5411 -0.0020 -0.6868
57873SOL     OW80479   8.384   3.328   6.621  0.0663  0.2268 -0.2035
57873SOL    HW180480   8.449   3.291   6.561 -1.3503 -0.1366 -1.6136
57873SOL    HW280481   8.340   3.251   6.658  1.3421  0.4330  1.8574
57874SOL     OW80482  10.489   7.953  11.207  0.0600  0.2138  0.0002
57874SOL    HW180483  10.449   7.894  11.270 -0.0887 -0.4306 -0.6803
57874SOL    HW280484  10.484   7.906  11.124  0.0761  1.1252 -0.5296
57875SOL     OW80485   7.009   4.660   2.415 -0.5105 -0.4019  0.2188
57875SOL    HW180486   6.937   4.618   2.462 -1.4489 -0.5278 -1.2516
57875SOL    HW280487   6.971   4.741   2.381  0.8026  0.8562  1.5942
57876SOL     OW80488   3.656  11.105   7.752  0.0568 -0.1432 -0.3863
57876SOL    HW180489   3.693  11.026   7.790  0.1363 -0.2546 -0.6927
57876SOL    HW280490   3.607  11.074   7.675 -2.6258 -0.3148  1.2522
57877SOL     OW80491   2.766   9.783   4.768  0.2874  0.2904 -0.0194
57877SOL    HW180492   2.745   9.843   4.841  1.8124 -0.7765  1.3502
57877SOL    HW280493   2.680   9.758   4.734 -0.5252  0.2956  1.8586
57878SOL     OW80494  10.846   3.562   2.050  0.3754 -0.3968  0.2789
57878SOL    HW180495  10.869   3.581   1.959  0.9110  0.4787  0.5828
57878SOL    HW280496  10.927   3.574   2.098  0.2429 -1.4888  0.7946
57879SOL     OW80497   5.849   0.053   5.752 -0.5136  0.1727 -0.3747
57879SOL    HW180498   5.872   0.145   5.742  1.0321  0.1340  2.0394
57879SOL    HW280499   5.931   0.006   5.740 -0.9822 -0.7497 -0.0519
57880SOL     OW80500   5.794   3.468   7.889 -0.0358 -0.1072  0.1903
57880SOL    HW180501   5.779   3.563   7.894  0.2329  0.0025 -0.8237
57880SOL    HW280502   5.711   3.429   7.914 -0.0140  0.3839  1.0717
57881SOL     OW80503   4.302   0.428   4.435  0.1808  0.1073  0.1384
57881SOL    HW180504   4.261   0.468   4.358  0.4675 -1.4642 -0.8817
57881SOL    HW280505   4.383   0.389   4.402  0.9159  0.4306  1.4914
57882SOL     OW80506  11.396   4.200   8.985 -0.0398  0.1431 -0.0904
57882SOL    HW180507  11.416   4.287   9.020  0.2808  0.7924 -1.8130
57882SOL    HW280508  11.449   4.193   8.905 -0.3154 -1.5109 -0.1633
57883SOL     OW80509   8.618   3.759   7.119 -0.1695  0.1584 -0.5149
57883SOL    HW180510   8.565   3.680   7.105  0.9689 -0.6365 -0.4531
57883SOL    HW280511   8.614   3.806   7.036  0.3651 -0.7237 -1.0543
57884SOL     OW80512   8.367   2.806   3.398  0.6652 -0.3701  0.2239
57884SOL    HW180513   8.452   2.764   3.414  0.6971 -0.2629  0.3441
57884SOL    HW280514   8.334   2.826   3.486  0.7531  0.0582  0.1609
57885SOL     OW80515  11.217   9.267   2.154 -0.3651 -0.0527  0.2932
57885SOL    HW180516  11.153   9.299   2.218 -0.5483  0.4932 -0.1512
57885SOL    HW280517  11.241   9.345   2.104 -1.1646 -0.6861 -1.1297
57886SOL     OW80518   2.456  10.461   2.427  0.6427 -0.4860 -0.7725
57886SOL    HW180519   2.488  10.427   2.510 -0.4668 -1.4817 -0.7307
57886SOL    HW280520   2.380  10.515   2.451 -0.2616 -1.5318 -1.1837
57887SOL     OW80521   9.652   8.396   9.777  0.1411 -0.0617  0.4972
57887SOL    HW180522   9.628   8.311   9.738 -1.7363 -0.0726  1.5503
57887SOL    HW280523   9.671   8.452   9.701  1.3674 -1.3847 -0.2197
57888SOL     OW80524   2.337   9.467  12.030 -0.0154 -0.2897 -0.4312
57888SOL    HW180525   2.367   9.522  11.958  0.5192 -1.5370 -1.1938
57888SOL    HW280526   2.269   9.412  11.991 -0.9648  0.2188  0.4624
57889SOL     OW80527  11.496   4.330   4.591 -0.0974  0.3111  0.3149
57889SOL    HW180528  11.554   4.257   4.615 -1.7813 -0.8990  0.8866
57889SOL    HW280529  11.555   4.398   4.558  1.7356 -0.4617  1.8263
57890SOL     OW80530   0.957   0.651   7.093  0.1685 -0.1077 -0.3600
57890SOL    HW180531   1.044   0.648   7.133  0.1816  2.3199 -0.0737
57890SOL    HW280532   0.965   0.601   7.012  1.8309  0.0684 -0.3207
57891SOL     OW80533   2.447   1.660   3.364 -0.1502 -0.4330  0.1944
57891SOL    HW180534   2.392   1.584   3.379  1.1432 -1.1634  1.4456
57891SOL    HW280535   2.401   1.732   3.406 -1.5398 -0.4031 -1.2674
57892SOL     OW80536   7.402   2.579   8.039 -0.3942 -0.3594 -0.4192
57892SOL    HW180537   7.374   2.604   8.126  2.2972  0.3117  0.3419
57892SOL    HW280538   7.377   2.487   8.031  0.6220 -0.8778  1.6849
57893SOL     OW80539   4.468  11.263   7.164  0.2710  0.1022 -0.1626
57893SOL    HW180540   4.554  11.304   7.150 -1.1394  4.1788  1.5083
57893SOL    HW280541   4.480  11.208   7.242  1.4241  0.4355 -0.0889
57894SOL     OW80542  11.736  10.337  10.369  0.1494  0.3281 -0.0300
57894SOL    HW180543  11.744  10.414  10.313  0.7324 -0.3215 -0.8658
57894SOL    HW280544  11.652  10.297  10.343  0.7679 -0.3837 -0.9995
57895SOL     OW80545  10.979   7.033   3.907 -0.2045  0.3085  0.3687
57895SOL    HW180546  10.893   7.071   3.924 -0.3632  0.1965 -0.1561
57895SOL    HW280547  11.009   7.078   3.828 -0.3978 -0.6558 -0.2719
57896SOL     OW80548   4.153   2.098   8.228  0.2612 -0.0083  0.4160
57896SOL    HW180549   4.181   2.156   8.158 -0.3159 -0.5574 -0.2920
57896SOL    HW280550   4.078   2.142   8.267  1.1524  0.7492  1.3333
57897SOL     OW80551   9.662   7.647  11.525 -0.7903 -0.2982  0.4115
57897SOL    HW180552   9.751   7.652  11.488 -1.8190 -0.5791 -2.3367
57897SOL    HW280553   9.662   7.568  11.578  0.1503 -1.2373 -0.9451
57898SOL     OW80554  11.959  12.349   4.496 -0.1780 -0.5281 -0.2192
57898SOL    HW180555  11.872  12.388   4.506 -0.1987 -0.5674 -0.2452
57898SOL    HW280556  11.958  12.311   4.408  0.2480  0.4254 -0.6451
57899SOL     OW80557   2.782   5.538   6.251  0.3105 -0.7435 -0.2365
57899SOL    HW180558   2.819   5.495   6.327 -0.5708 -1.1402 -0.0277
57899SOL    HW280559   2.844   5.608   6.230  1.1840 -1.4172  0.0838
57900SOL     OW80560   5.354   4.440   6.720 -0.1672  0.8659 -0.0120
57900SOL    HW180561   5.361   4.527   6.680  0.1861  0.7393 -0.2277
57900SOL    HW280562   5.332   4.382   6.648 -1.9680  1.0046  0.3829
57901SOL     OW80563   7.606   6.758   4.338 -0.5606  0.3607 -0.3407
57901SOL    HW180564   7.632   6.849   4.323  1.0132 -0.3376 -2.3147
57901SOL    HW280565   7.682   6.718   4.381 -1.0693 -0.1411  0.1097
57902SOL     OW80566  10.440   8.309   8.090 -0.0138 -0.2986 -0.4221
57902SOL    HW180567  10.422   8.356   8.172 -1.2428 -1.0105 -0.2510
57902SOL    HW280568  10.439   8.377   8.023  0.3499  0.2024  0.0636
57903SOL     OW80569   6.090   1.382   3.700  0.2099 -0.2011  0.4468
57903SOL    HW180570   6.112   1.319   3.631 -1.5089  0.6962 -1.0251
57903SOL    HW280571   6.016   1.343   3.746 -0.3953  0.3867 -0.0055
57904SOL     OW80572   3.100   3.686  10.236  0.3466  0.0438  0.0938
57904SOL    HW180573   3.190   3.718  10.240  0.3828 -0.0531  0.0714
57904SOL    HW280574   3.080   3.660  10.326  0.6762 -0.8330 -0.0692
57905SOL     OW80575   9.795   8.094   3.952  0.1789 -0.1227  0.0669
57905SOL    HW180576   9.714   8.058   3.918  1.2427 -2.2237 -0.4077
57905SOL    HW280577   9.772   8.127   4.039 -1.6210  1.4079 -0.8966
57906SOL     OW80578   1.685   5.352   8.783  0.6093 -0.1072 -0.4805
57906SOL    HW180579   1.770   5.387   8.810  0.0394  0.8404  0.1261
57906SOL    HW280580   1.698   5.257   8.785  2.4382 -0.0131 -2.9995
57907SOL     OW80581   9.249  11.696   0.081  0.1708 -0.4646  0.7381
57907SOL    HW180582   9.302  11.626   0.119 -0.8569 -0.8266  1.5589
57907SOL    HW280583   9.237  11.759   0.152 -0.0044 -0.1045  0.3929
57908SOL     OW80584   6.450   7.450   6.009  0.5527  0.2270 -0.1736
57908SOL    HW180585   6.378   7.512   6.018  1.5623  1.3394  0.5890
57908SOL    HW280586   6.431   7.401   5.929 -2.6590 -1.7074  1.5888
57909SOL     OW80587   0.303   7.682   3.388  0.2699 -0.3044  0.0855
57909SOL    HW180588   0.287   7.599   3.433  1.3365 -0.0924  0.9283
57909SOL    HW280589   0.220   7.729   3.393 -0.5487 -1.5841 -1.0256
57910SOL     OW80590  11.654  11.291   0.314 -0.1585  0.5716  0.0524
57910SOL    HW180591  11.667  11.199   0.294 -1.0974 -0.4350  3.4537
57910SOL    HW280592  11.743  11.326   0.324  0.2693  0.5648 -2.8050
57911SOL     OW80593   8.548   3.494   7.269 -0.6953 -0.4638 -0.1251
57911SOL    HW180594   8.533   3.533   7.355  0.0226 -1.1680  0.3285
57911SOL    HW280595   8.483   3.536   7.212  0.1856  1.5785  0.2838
57912SOL     OW80596   0.181   7.785   5.475 -0.0990  0.2790  0.6482
57912SOL    HW180597   0.147   7.731   5.404  1.6082  0.6060 -0.4559
57912SOL    HW280598   0.228   7.724   5.531  0.1046  0.3094  0.5094
57913SOL     OW80599  11.024   0.222   4.199 -0.2801  0.0258 -0.4202
57913SOL    HW180600  11.031   0.218   4.104 -0.7101  0.8969 -0.4958
57913SOL    HW280601  11.043   0.133   4.228 -2.1196 -0.7723 -1.4554
57914SOL     OW80602   8.431   2.320   0.107 -0.1403  0.0082  0.0092
57914SOL    HW180603   8.480   2.277   0.037  0.1741 -0.1095  0.2940
57914SOL    HW280604   8.487   2.393   0.133  0.0100 -0.2735  0.5064
57915SOL     OW80605   7.467   9.135   7.555 -0.5154 -0.4799  0.0757
57915SOL    HW180606   7.384   9.094   7.580 -0.0883 -1.8899 -0.7045
57915SOL    HW280607   7.521   9.063   7.523 -0.2378  0.8423 -2.8123
57916SOL     OW80608   2.594   5.911   1.199  0.0873 -0.3917  0.0954
57916SOL    HW180609   2.617   5.999   1.228  1.9993 -0.8731  0.1941
57916SOL    HW280610   2.534   5.878   1.265  0.5952  0.2732  0.9008
57917SOL     OW80611  10.140   6.033   3.209 -0.5199 -0.0229  0.3064
57917SOL    HW180612  10.068   5.986   3.251 -0.4098  0.5661  1.1769
57917SOL    HW280613  10.148   6.114   3.259  1.0839 -0.3032  0.5649
57918SOL     OW80614   2.424   5.002   6.772 -0.5205  0.1245  0.2497
57918SOL    HW180615   2.484   4.949   6.720  1.2973  0.4120  1.9446
57918SOL    HW280616   2.455   5.092   6.761 -0.7970  0.3156  0.9651
57919SOL     OW80617   3.885  11.485   9.111 -0.1637 -0.1318 -0.0887
57919SOL    HW180618   3.978  11.470   9.095 -0.4141  0.0873 -1.9770
57919SOL    HW280619   3.869  11.575   9.082 -1.1523 -0.5400 -0.9139
57920SOL     OW80620  10.444   1.854   7.037  0.3500 -0.2045  1.0767
57920SOL    HW180621  10.516   1.800   7.068  0.9620  0.8963  1.6349
57920SOL    HW280622  10.471   1.882   6.949  1.2617  1.2961  1.7954
57921SOL     OW80623   5.584   9.421   9.834 -0.3556  0.1779  0.0873
57921SOL    HW180624   5.589   9.485   9.904 -0.6934  2.2363 -1.6655
57921SOL    HW280625   5.652   9.357   9.854 -1.9312 -0.6536  3.4531
57922SOL     OW80626   9.664   0.332   7.541  0.2986  0.0996 -0.5077
57922SOL    HW180627   9.680   0.241   7.515  0.0251 -0.4267  1.1069
57922SOL    HW280628   9.570   0.336   7.561  0.0055  1.1134 -1.9202
57923SOL     OW80629   1.870   5.646   7.339  0.4469 -0.0222  0.2867
57923SOL    HW180630   1.895   5.590   7.412 -0.5496  0.2095  0.8192
57923SOL    HW280631   1.901   5.599   7.261 -1.4931 -2.0169  0.6218
57924SOL     OW80632   6.474   5.847   4.000  0.1759  0.1796  0.4026
57924SOL    HW180633   6.382   5.832   3.979  0.2521  1.7073 -1.2231
57924SOL    HW280634   6.520   5.841   3.916  0.9714  3.2326  0.4913
57925SOL     OW80635   9.174   7.260   7.003  0.2827 -0.8175  0.4909
57925SOL    HW180636   9.176   7.332   6.941 -0.5376 -0.6482  0.6467
57925SOL    HW280637   9.248   7.276   7.062 -0.7828  0.7745  1.4768
57926SOL     OW80638   0.022   4.107   7.824  0.0617 -0.2772 -0.1091
57926SOL    HW180639   0.035   4.198   7.799  0.2740 -0.4787 -0.7537
57926SOL    HW280640   0.108   4.077   7.853 -0.3128  0.1317  1.4973
57927SOL     OW80641   9.658   5.461   2.624  0.2160 -0.2145 -0.5289
57927SOL    HW180642   9.695   5.536   2.577  0.4628  0.7454  1.1278
57927SOL    HW280643   9.703   5.385   2.587  0.0403  0.4375 -2.1732
57928SOL     OW80644   0.870   9.561   1.143 -0.2784 -0.0327 -0.3769
57928SOL    HW180645   0.864   9.656   1.141  0.3931  0.0190 -0.2504
57928SOL    HW280646   0.900   9.540   1.232 -0.0109 -0.3258 -0.5312
57929SOL     OW80647  11.529   5.492   1.992  0.2285  0.1673 -0.0730
57929SOL    HW180648  11.523   5.588   1.991 -0.1906  0.1572  0.7402
57929SOL    HW280649  11.605   5.474   2.047 -0.4164  0.0214  0.7984
57930SOL     OW80650  11.597   1.079   1.367 -0.0409 -0.0064  0.0523
57930SOL    HW180651  11.551   1.008   1.412 -1.1883  0.5920 -0.1473
57930SOL    HW280652  11.537   1.153   1.370 -0.4318 -0.0843 -2.9278
57931SOL     OW80653   3.236   8.414   5.582  0.1264 -0.3399  0.0420
57931SOL    HW180654   3.254   8.393   5.674  0.2637  1.3027  0.4218
57931SOL    HW280655   3.223   8.509   5.582 -1.5656 -0.5381 -1.3700
57932SOL     OW80656   6.333   3.468  11.049  0.0025 -0.4406 -0.0641
57932SOL    HW180657   6.349   3.534  11.116 -2.3887  0.1145  0.0554
57932SOL    HW280658   6.280   3.513  10.983 -0.3723 -1.8167 -0.7340
57933SOL     OW80659   4.575  11.189   5.242 -0.3323  0.7125  0.7629
57933SOL    HW180660   4.507  11.180   5.175  1.4396 -0.5120 -0.9909
57933SOL    HW280661   4.567  11.111   5.296  0.1803  0.1482  0.0398
57934SOL     OW80662   9.279   7.939   6.936  0.2776 -0.1016 -0.1926
57934SOL    HW180663   9.256   7.932   7.028 -1.3833 -0.9171 -0.6307
57934SOL    HW280664   9.374   7.924   6.934  0.4693  0.6468  1.4254
57935SOL     OW80665  11.592  10.717   4.675  0.0246 -0.1364 -0.1868
57935SOL    HW180666  11.598  10.700   4.769  0.2675  0.6598 -0.0514
57935SOL    HW280667  11.511  10.674   4.647 -0.0205 -0.4187  0.3744
57936SOL     OW80668   8.223   3.929  10.199 -0.2333 -0.1139  0.6539
57936SOL    HW180669   8.275   4.006  10.221 -0.3822  0.1572  0.0626
57936SOL    HW280670   8.133   3.955  10.220 -0.3309  0.0129  0.0766
57937SOL     OW80671   9.737   5.230   3.836 -0.1801 -0.1100 -0.5887
57937SOL    HW180672   9.788   5.221   3.916 -0.4384 -3.0927 -0.6352
57937SOL    HW280673   9.788   5.289   3.781  0.5665  1.0897  1.2941
57938SOL     OW80674   3.042   8.204   0.114 -0.5285  0.3064 -0.1570
57938SOL    HW180675   2.961   8.156   0.099 -2.0349  2.9619 -1.1903
57938SOL    HW280676   3.046   8.216   0.209 -0.2853 -1.4845  0.0853
57939SOL     OW80677   7.853   6.349   4.243  0.5330  0.7633 -0.2697
57939SOL    HW180678   7.779   6.396   4.205  0.9782  0.6668 -1.3130
57939SOL    HW280679   7.834   6.345   4.336 -0.9096  0.4873 -0.5458
57940SOL     OW80680  10.839  12.288   6.388 -1.3539 -0.1182  0.7823
57940SOL    HW180681  10.872  12.372   6.354  1.0860 -0.6399  1.6598
57940SOL    HW280682  10.800  12.310   6.473 -1.4139  0.2202  0.6699
57941SOL     OW80683  11.454   4.076   6.970 -0.2008 -0.3870 -0.2414
57941SOL    HW180684  11.386   4.009   6.972  0.7122 -1.3379  0.2906
57941SOL    HW280685  11.514   4.048   6.901 -0.7260  0.8626 -1.2506
57942SOL     OW80686   4.981   8.420   5.670  0.7171  0.2794 -0.4027
57942SOL    HW180687   4.940   8.416   5.756 -0.9047 -1.3122 -1.1731
57942SOL    HW280688   4.909   8.408   5.608  2.0172 -0.1206 -1.9252
57943SOL     OW80689  10.232  11.413   4.713 -0.3601 -0.1609  0.3931
57943SOL    HW180690  10.235  11.354   4.788  1.1319 -0.5806  0.0286
57943SOL    HW280691  10.183  11.364   4.646  0.7868 -0.9671  0.1275
57944SOL     OW80692   0.176   9.225  10.951 -0.0137  0.1300  0.1380
57944SOL    HW180693   0.191   9.286  11.024  0.3933 -0.3799  0.4874
57944SOL    HW280694   0.216   9.267  10.875 -0.4553  0.6747  0.1973
57945SOL     OW80695  10.932   0.050   0.865  0.1014 -0.4258  0.2165
57945SOL    HW180696  10.987   0.091   0.931  2.7678  0.1054 -2.1297
57945SOL    HW280697  10.946  -0.044   0.876  0.1832 -0.3631  0.6520
57946SOL     OW80698   5.748   5.867  12.119 -0.1454 -0.5732  0.3752
57946SOL    HW180699   5.804   5.871  12.197 -0.9014 -0.0722  0.8944
57946SOL    HW280700   5.744   5.957  12.087  1.4144 -1.0003 -1.1613
57947SOL     OW80701   3.117  11.480   0.845  0.6801  0.1370  0.6485
57947SOL    HW180702   3.040  11.486   0.789  2.0450  0.7478 -1.2575
57947SOL    HW280703   3.176  11.420   0.799  2.4209  1.7335  0.6539
57948SOL     OW80704   5.974   0.639   3.754 -0.2179 -0.0415 -0.4809
57948SOL    HW180705   5.968   0.548   3.724  3.3820 -0.1336 -1.3312
57948SOL    HW280706   5.910   0.686   3.701 -0.0568 -1.6072 -2.1464
57949SOL     OW80707   3.442   7.180   8.905 -0.7188  0.0040  0.1170
57949SOL    HW180708   3.451   7.099   8.855  0.2689 -0.6097  1.2438
57949SOL    HW280709   3.349   7.182   8.930 -0.7128 -0.8871  0.2443
57950SOL     OW80710   6.494   1.121   0.766 -0.3714  0.3557  0.0111
57950SOL    HW180711   6.509   1.122   0.671  1.0417  0.6513  0.2031
57950SOL    HW280712   6.510   1.211   0.793 -0.3324  0.1762  0.5895
57951SOL     OW80713   9.680   6.159   8.615 -0.2273  0.7149  0.1568
57951SOL    HW180714   9.599   6.120   8.584 -0.1379  0.5815  0.0890
57951SOL    HW280715   9.749   6.116   8.565 -0.0262 -0.0415  1.0491
57952SOL     OW80716  10.336   8.614   2.295  0.1471  0.0644  0.4721
57952SOL    HW180717  10.372   8.535   2.334 -1.5845 -0.7043  0.5898
57952SOL    HW280718  10.254   8.586   2.253  0.9764  1.2167 -2.1361
57953SOL     OW80719   6.754   4.046   8.295 -0.2588 -0.0362  0.0623
57953SOL    HW180720   6.821   3.977   8.301 -1.3599 -1.1531  0.0705
57953SOL    HW280721   6.799   4.126   8.320  1.0200 -0.7931  0.2709
57954SOL     OW80722   2.509   2.045   1.467 -0.3324  0.0288  0.0028
57954SOL    HW180723   2.440   2.111   1.457  1.5251  1.9145 -1.2145
57954SOL    HW280724   2.509   2.026   1.561 -0.2163  2.6699  0.6358
57955SOL     OW80725   0.845   3.184   3.069  0.0797  0.2032 -0.2669
57955SOL    HW180726   0.931   3.196   3.109 -1.0508  0.9096  2.1294
57955SOL    HW280727   0.823   3.092   3.087 -0.2710  0.4231  0.4889
57956SOL     OW80728   7.017   8.533   0.859  0.6901 -0.0496  0.6238
57956SOL    HW180729   7.004   8.459   0.800  1.0133 -0.1796  0.7122
57956SOL    HW280730   6.980   8.608   0.811 -2.9138 -0.7650  1.9531
57957SOL     OW80731   8.855   7.395   0.982  0.0315 -0.2650  0.5024
57957SOL    HW180732   8.822   7.339   1.052 -1.5714  1.4703  1.2625
57957SOL    HW280733   8.807   7.367   0.904  1.0825 -1.5376  0.2772
57958SOL     OW80734   2.771  10.114   1.292 -0.4048  0.1305 -0.2808
57958SOL    HW180735   2.799  10.036   1.340 -0.6551  0.3003  0.1410
57958SOL    HW280736   2.704  10.081   1.232 -0.4068 -0.0031 -0.2064
57959SOL     OW80737   7.242   3.578   9.937  0.0674 -0.5714  0.5390
57959SOL    HW180738   7.238   3.571  10.032  1.6343 -0.9323  0.6046
57959SOL    HW280739   7.326   3.541   9.913 -0.4638 -0.8642 -1.0423
57960SOL     OW80740  11.133  10.628   7.387 -0.4861 -0.2266 -0.2912
57960SOL    HW180741  11.216  10.673   7.374 -1.0345  0.5632 -1.3310
57960SOL    HW280742  11.079  10.691   7.434 -0.4353 -0.8186  0.5737
57961SOL     OW80743  10.562   6.031   0.063 -1.2988  0.3927 -0.4627
57961SOL    HW180744  10.613   6.012  -0.015 -1.7060  0.8417 -0.8397
57961SOL    HW280745  10.552   5.946   0.106  0.2454  0.3751 -0.0765
57962SOL     OW80746   2.455   6.261  11.776  0.0298 -0.0602  0.1638
57962SOL    HW180747   2.512   6.219  11.840 -1.8778  0.1781  2.1062
57962SOL    HW280748   2.390   6.194  11.755  0.5401 -0.0886 -1.5031
57963SOL     OW80749   0.810   8.614   9.131 -0.2160 -0.1193  0.4151
57963SOL    HW180750   0.762   8.637   9.210 -0.7082 -0.6592  0.2848
57963SOL    HW280751   0.743   8.610   9.063 -0.1127 -1.5565  0.3676
57964SOL     OW80752   1.126  10.423   4.904 -1.0977 -0.1054  0.2339
57964SOL    HW180753   1.169  10.476   4.971  0.2633 -0.7214 -0.1367
57964SOL    HW280754   1.094  10.346   4.951 -0.3039 -0.4483  0.2312
57965SOL     OW80755   0.320   8.233   5.761  0.2371  0.0743 -0.5594
57965SOL    HW180756   0.289   8.324   5.757  0.2100  0.2650  2.0841
57965SOL    HW280757   0.309   8.200   5.672  1.1708  2.9410 -1.8773
57966SOL     OW80758   8.827   7.594   6.181 -0.0686 -0.0763 -0.2089
57966SOL    HW180759   8.853   7.650   6.254 -0.0660  0.8043 -0.8624
57966SOL    HW280760   8.889   7.615   6.111 -0.0227 -0.9579 -0.4504
57967SOL     OW80761   7.458   0.653   4.849 -0.4342 -0.3940  0.4180
57967SOL    HW180762   7.443   0.559   4.860  2.8516 -1.1361 -0.3081
57967SOL    HW280763   7.548   0.666   4.878 -0.7206  2.5084  0.2353
57968SOL     OW80764   2.198   6.364   5.924  0.0791  0.2067  0.3179
57968SOL    HW180765   2.215   6.277   5.889  0.3289  0.4733 -0.2390
57968SOL    HW280766   2.118   6.393   5.880 -0.2097  0.1142  0.7760
57969SOL     OW80767   4.932  10.568  12.149  0.3222 -0.5070  0.6868
57969SOL    HW180768   4.948  10.568  12.244  1.2609  0.0492  0.5453
57969SOL    HW280769   5.008  10.523  12.112  0.9136  0.9034  0.0841
57970SOL     OW80770   1.062   5.469   5.397  0.4144  0.4232 -0.1103
57970SOL    HW180771   0.973   5.492   5.424  0.6428  0.1439  0.9325
57970SOL    HW280772   1.052   5.392   5.341 -0.0256  0.5901 -0.2613
57971SOL     OW80773   9.813   8.578   2.691 -0.2580 -0.5386 -0.1403
57971SOL    HW180774   9.822   8.486   2.667 -0.0477 -0.4728 -0.3203
57971SOL    HW280775   9.806   8.578   2.786  2.0604 -0.5994  0.0910
57972SOL     OW80776   9.785   8.215  11.824 -0.2015 -0.4740  0.2524
57972SOL    HW180777   9.707   8.164  11.803 -0.7979  0.7231 -0.5898
57972SOL    HW280778   9.775   8.295  11.773  0.0924  1.0557  2.4648
57973SOL     OW80779   3.842   5.084   7.324  0.2921 -0.8119 -0.6432
57973SOL    HW180780   3.794   5.107   7.244  0.8997  1.1137 -0.4862
57973SOL    HW280781   3.879   5.166   7.355  1.8364 -1.8786  0.4807
57974SOL     OW80782   2.886  10.418   7.700 -0.3663  0.9607 -0.1385
57974SOL    HW180783   2.817  10.392   7.639  0.7479 -0.2690 -0.9094
57974SOL    HW280784   2.847  10.489   7.751 -2.2722  0.1428 -0.3941
57975SOL     OW80785   5.018   2.248   9.558  0.4754  0.2207 -0.0659
57975SOL    HW180786   5.107   2.212   9.553  0.4629  0.0157  1.0458
57975SOL    HW280787   4.969   2.184   9.609 -0.4901  0.0174 -1.2087
57976SOL     OW80788   4.248   9.255  10.599 -0.6647  0.5028  0.2890
57976SOL    HW180789   4.273   9.266  10.691  0.8673  2.4370 -0.2681
57976SOL    HW280790   4.179   9.320  10.585 -0.5657  0.5420 -0.0255
57977SOL     OW80791   9.684  11.830  10.865 -0.3388  0.1926  0.2639
57977SOL    HW180792   9.657  11.813  10.956  1.5816  0.3923  0.9120
57977SOL    HW280793   9.720  11.919  10.867 -1.7848  0.8595 -1.0868
57978SOL     OW80794   7.093   7.204   2.783  0.4112 -0.1284 -0.0942
57978SOL    HW180795   7.006   7.203   2.743  0.8900 -1.1817 -1.1847
57978SOL    HW280796   7.106   7.114   2.815  0.9895  0.0877  0.2913
57979SOL     OW80797  10.871   5.013   1.641 -0.0549 -0.5697 -0.3538
57979SOL    HW180798  10.958   5.019   1.680  0.1135 -0.6984 -0.7008
57979SOL    HW280799  10.849   5.102   1.616 -0.0866 -0.5145 -0.1324
57980SOL     OW80800  10.093   6.284   2.636  0.7953  0.3500  0.3034
57980SOL    HW180801  10.156   6.214   2.622  0.0043 -0.4971  0.8516
57980SOL    HW280802  10.009   6.246   2.611  0.3700  1.1426  0.5018
57981SOL     OW80803   2.466   5.493  11.723  0.2423  0.0392 -0.2376
57981SOL    HW180804   2.403   5.438  11.675  0.4295  0.2218 -0.6993
57981SOL    HW280805   2.441   5.482  11.815 -0.2209 -0.1967 -0.3833
57982SOL     OW80806  10.587  12.105   1.287 -0.6243 -0.5317 -0.3386
57982SOL    HW180807  10.542  12.025   1.260 -2.4553  0.3093  0.0410
57982SOL    HW280808  10.516  12.168   1.303  0.7793  1.4117 -1.3749
57983SOL     OW80809   4.141   6.861  12.285 -0.0031  0.1800 -0.1448
57983SOL    HW180810   4.074   6.928  12.276  0.6897  0.9789  0.5107
57983SOL    HW280811   4.107   6.786  12.237 -0.7879  1.0002 -0.8919
57984SOL     OW80812   1.108   7.037   7.544 -0.1650  0.2902  0.0172
57984SOL    HW180813   1.033   6.990   7.508 -0.2875  1.6024 -1.5523
57984SOL    HW280814   1.164   7.054   7.468  1.3561  0.0393  1.0300
57985SOL     OW80815   3.940   2.644   4.645 -0.2132 -0.5048  0.0559
57985SOL    HW180816   3.896   2.725   4.671 -1.0516 -0.5442 -1.1342
57985SOL    HW280817   3.993   2.619   4.721 -0.6342  0.6790  0.7574
57986SOL     OW80818   7.996   9.196   0.378 -0.2532  0.0768  0.2800
57986SOL    HW180819   7.994   9.164   0.469  0.4761  1.2272  0.7209
57986SOL    HW280820   7.906   9.188   0.348 -0.5530 -0.0971  1.1894
57987SOL     OW80821   8.600  11.293  10.844 -0.2541  0.0495  0.0266
57987SOL    HW180822   8.642  11.271  10.927 -2.9597  0.7433  1.6920
57987SOL    HW280823   8.669  11.336  10.794  1.8715 -1.6612  1.2810
57988SOL     OW80824   6.304   1.258   1.897  0.0383  0.3025  0.2612
57988SOL    HW180825   6.365   1.198   1.939  0.1039  0.1086 -0.1137
57988SOL    HW280826   6.326   1.255   1.804 -0.1301  0.7058  0.2063
57989SOL     OW80827  11.188   0.852   1.428  1.2175  0.2488  0.1940
57989SOL    HW180828  11.167   0.849   1.522  0.4121  0.2963  0.0247
57989SOL    HW280829  11.141   0.777   1.392  2.4053 -0.4153 -0.0145
57990SOL     OW80830  11.026   2.388   1.502  0.3511  0.1763 -0.0641
57990SOL    HW180831  11.054   2.312   1.553 -0.3448  0.6437  1.0593
57990SOL    HW280832  11.001   2.453   1.568  0.0670  1.0496 -1.0089
57991SOL     OW80833   9.169   9.060  11.964 -0.4992  0.2275 -0.1816
57991SOL    HW180834   9.075   9.046  11.978 -0.5263  1.2807  0.8926
57991SOL    HW280835   9.210   9.028  12.044  0.4759 -3.4887 -1.9615
57992SOL     OW80836   2.293   4.415   9.354  0.0360 -0.0328 -0.4240
57992SOL    HW180837   2.206   4.374   9.355 -0.4905  1.0520  1.4579
57992SOL    HW280838   2.350   4.351   9.398 -0.6935  0.9739  2.1031
57993SOL     OW80839   5.630   2.875   2.232 -0.0667  0.3406  0.3449
57993SOL    HW180840   5.722   2.851   2.229 -0.3877 -0.9900  0.4723
57993SOL    HW280841   5.600   2.865   2.141  0.0046  1.1652  0.2276
57994SOL     OW80842   0.660   8.908   1.701 -0.3542  0.3375 -0.3690
57994SOL    HW180843   0.648   8.897   1.796  0.7004  0.3812 -0.2270
57994SOL    HW280844   0.575   8.885   1.664 -0.1940 -1.6705  0.4180
57995SOL     OW80845   5.592   1.864   8.493  0.5236 -0.0438 -0.2763
57995SOL    HW180846   5.527   1.797   8.470  0.9944 -1.0814  1.3023
57995SOL    HW280847   5.666   1.816   8.528  1.0832  1.2847  0.4567
57996SOL     OW80848   4.131   7.877   1.510  0.4277  0.2996  0.6353
57996SOL    HW180849   4.166   7.859   1.423 -0.6053  1.7885 -0.1449
57996SOL    HW280850   4.049   7.925   1.493  0.1686  0.5652  2.4264
57997SOL     OW80851   2.595   9.802   5.441  0.5156 -0.0496  0.1798
57997SOL    HW180852   2.549   9.756   5.511  0.8542  0.1967  0.5675
57997SOL    HW280853   2.652   9.864   5.486 -0.0206  0.8449 -0.3290
57998SOL     OW80854  11.205   5.538   1.050  0.0186  0.3092  0.2125
57998SOL    HW180855  11.292   5.527   1.088  0.4675 -0.7110 -1.0330
57998SOL    HW280856  11.162   5.454   1.064  0.3443 -0.2370 -1.8199
57999SOL     OW80857   4.346   4.974  10.768 -0.1576  0.3816 -0.4900
57999SOL    HW180858   4.284   5.044  10.747 -0.0760  0.3515 -0.8253
57999SOL    HW280859   4.295   4.893  10.760  0.1321  0.2940 -1.5887
58000SOL     OW80860   9.695  12.389   9.646 -0.1607  0.5866  0.7289
58000SOL    HW180861   9.766  12.450   9.663  1.3946 -0.9348 -0.0029
58000SOL    HW280862   9.671  12.404   9.555  0.6003 -0.2274  0.3805
58001SOL     OW80863   0.387  10.691   3.816  0.0556 -0.2222  0.3737
58001SOL    HW180864   0.303  10.737   3.817 -0.0659 -0.4477  0.4421
58001SOL    HW280865   0.440  10.740   3.753 -0.1240 -0.0764  0.3346
58002SOL     OW80866   5.338  11.420  10.200  0.3245  0.0051  0.6423
58002SOL    HW180867   5.416  11.470  10.225 -0.2687  0.2072  2.1237
58002SOL    HW280868   5.266  11.481  10.209 -0.0747 -0.3068 -0.3222
58003SOL     OW80869   7.247   2.420  11.503 -0.1761  0.0511 -0.1534
58003SOL    HW180870   7.181   2.368  11.456  0.4368 -0.6883 -0.2004
58003SOL    HW280871   7.248   2.385  11.592 -0.8788  1.0333  0.2665
58004SOL     OW80872   8.005   3.241   6.313  0.0091 -0.0070  0.5197
58004SOL    HW180873   7.989   3.335   6.303 -1.6153 -0.4218 -1.5005
58004SOL    HW280874   8.087   3.225   6.267 -0.5514  0.2139 -0.5964
58005SOL     OW80875   7.340   6.968   6.621 -0.4974 -0.4860 -0.5169
58005SOL    HW180876   7.385   6.911   6.684 -0.4689  1.6621  1.5669
58005SOL    HW280877   7.352   7.056   6.656  1.2969  1.1823 -4.6445
58006SOL     OW80878   0.823   1.128   3.834  0.7976  0.7900 -0.6806
58006SOL    HW180879   0.857   1.048   3.795  1.6472  1.1792 -0.7583
58006SOL    HW280880   0.735   1.104   3.865  1.0044 -0.1375 -0.7829
58007SOL     OW80881   8.720  11.593   2.887 -0.1337 -0.5126  0.5823
58007SOL    HW180882   8.688  11.547   2.809 -0.0730  0.1247  0.1737
58007SOL    HW280883   8.809  11.559   2.900 -0.4060 -1.1523  0.8072
58008SOL     OW80884   9.672   8.748   3.250 -0.1864 -0.1581  0.3697
58008SOL    HW180885   9.659   8.743   3.345 -0.3296  1.3095  0.4540
58008SOL    HW280886   9.657   8.840   3.229  0.6405 -0.3081 -0.9683
58009SOL     OW80887   6.890   5.521   0.206  0.5032  0.6158 -0.0309
58009SOL    HW180888   6.962   5.542   0.147  0.6977 -1.9103 -0.8031
58009SOL    HW280889   6.813   5.560   0.165  0.9138  0.3723 -1.0619
58010SOL     OW80890  11.914   7.053  11.489  0.2337  0.1260  0.0618
58010SOL    HW180891  11.848   7.059  11.419  0.4626  0.0572 -0.1608
58010SOL    HW280892  11.995   7.079  11.447  0.6983 -1.5158 -0.1443
58011SOL     OW80893  11.495   9.446  11.483  0.2065  0.4924 -0.3469
58011SOL    HW180894  11.435   9.506  11.528  0.9186  2.3092 -1.6848
58011SOL    HW280895  11.552   9.413  11.553  0.5603  2.3683  0.3201
58012SOL     OW80896   8.819  12.455   3.249  0.3079 -0.3739 -0.0876
58012SOL    HW180897   8.881  12.512   3.296 -1.1039  1.0327  0.1487
58012SOL    HW280898   8.739  12.459   3.301 -0.5762 -0.6225 -1.3926
58013SOL     OW80899   1.053   9.369   8.662 -0.0576  0.2320 -0.0503
58013SOL    HW180900   1.053   9.457   8.698 -1.1123  0.3439 -0.2852
58013SOL    HW280901   0.985   9.370   8.594 -0.2291 -0.8026  0.0769
58014SOL     OW80902   2.011   2.685   9.611  0.2588  0.0824  0.3186
58014SOL    HW180903   1.973   2.636   9.684 -0.6401  0.2894 -0.0075
58014SOL    HW280904   1.993   2.776   9.631 -2.1767  0.0468 -1.3314
58015SOL     OW80905  11.401   9.196   7.973  0.7222 -0.3237 -0.3886
58015SOL    HW180906  11.351   9.231   8.047 -0.7426  0.8455 -1.8669
58015SOL    HW280907  11.363   9.109   7.957 -0.1358  0.1248 -0.8298
58016SOL     OW80908   0.686  11.755  10.543 -0.6388 -0.1806 -0.4604
58016SOL    HW180909   0.772  11.761  10.500  0.4858 -3.1931  1.0598
58016SOL    HW280910   0.633  11.702  10.483 -2.1806  2.9575 -2.1746
58017SOL     OW80911   7.131  12.237   3.508 -0.2132  0.1067  0.5768
58017SOL    HW180912   7.081  12.223   3.427  0.2322  1.1465  0.0963
58017SOL    HW280913   7.211  12.186   3.495  0.0277  0.5774  0.1880
58018SOL     OW80914   0.603   7.122   8.586  0.2084 -0.0927  0.1649
58018SOL    HW180915   0.643   7.189   8.530 -1.1622  0.4533 -0.2082
58018SOL    HW280916   0.659   7.117   8.663  0.6649  1.0526 -0.0856
58019SOL     OW80917   3.052   6.518   2.818  0.7713 -0.0643 -0.5528
58019SOL    HW180918   3.004   6.516   2.735  0.1349  1.6169 -0.2660
58019SOL    HW280919   3.143   6.531   2.793  0.7955 -1.0806 -1.0303
58020SOL     OW80920   1.207  12.044   9.479 -0.1442  0.6386 -0.0597
58020SOL    HW180921   1.184  12.132   9.511  0.5512  0.9138 -0.2993
58020SOL    HW280922   1.269  12.011   9.544  0.2736  0.6801 -0.4330
58021SOL     OW80923  10.054  12.478   7.566  0.1781 -0.4763 -0.0839
58021SOL    HW180924  10.146  12.492   7.545  0.1163  1.0302  0.5807
58021SOL    HW280925  10.055  12.436   7.652  0.2452 -0.4825 -0.0877
58022SOL     OW80926  11.783   2.344   7.792  0.1941 -0.1866 -0.2529
58022SOL    HW180927  11.726   2.344   7.869 -2.7599  0.7047 -2.2626
58022SOL    HW280928  11.821   2.432   7.789 -0.7171  0.2048 -0.4915
58023SOL     OW80929   5.492  12.214   4.107  0.0699 -0.0644 -0.2691
58023SOL    HW180930   5.584  12.240   4.115  0.0619 -0.1873  0.2185
58023SOL    HW280931   5.466  12.187   4.195 -0.7241  0.9096 -0.1851
58024SOL     OW80932   3.885   7.148  11.243  0.2445  0.1484 -0.0582
58024SOL    HW180933   3.888   7.072  11.186 -0.9615  0.4079 -0.4972
58024SOL    HW280934   3.970   7.190  11.233  0.3614 -0.3000 -0.9770
58025SOL     OW80935  10.260   6.563   6.560 -0.3972 -0.3456 -0.5694
58025SOL    HW180936  10.245   6.634   6.622  1.0492  0.3238 -0.9387
58025SOL    HW280937  10.232   6.599   6.476 -1.6267 -0.9798 -0.4594
58026SOL     OW80938  11.847   4.711   9.848 -0.4690  0.2744 -0.0206
58026SOL    HW180939  11.818   4.694   9.938  2.1678 -1.3612  0.6421
58026SOL    HW280940  11.805   4.642   9.797 -0.5969  0.1395  0.2594
58027SOL     OW80941   1.721   6.211   8.866  0.1794  0.6456 -0.0277
58027SOL    HW180942   1.718   6.115   8.866 -0.0662  0.6020 -2.4699
58027SOL    HW280943   1.762   6.233   8.950  0.6754 -1.6052  0.3903
58028SOL     OW80944  10.275  10.553   0.495  0.3080  0.2236  0.3274
58028SOL    HW180945  10.223  10.611   0.551  0.2045  0.3082  0.1453
58028SOL    HW280946  10.310  10.486   0.554  1.4409  1.1668  0.7557
58029SOL     OW80947  10.872   6.713   1.369 -0.2518  0.0912  0.3540
58029SOL    HW180948  10.938   6.725   1.300 -2.8302  0.3347 -2.2762
58029SOL    HW280949  10.922   6.713   1.450  2.8846  0.9698 -1.4028
58030SOL     OW80950   0.859  11.326   2.372 -0.0745 -0.5044  0.2553
58030SOL    HW180951   0.930  11.295   2.316 -0.0126 -0.1913  0.1584
58030SOL    HW280952   0.796  11.254   2.374 -1.8563  0.7599 -3.1854
58031SOL     OW80953  12.024   0.813   5.087  0.0486  0.0148 -0.2099
58031SOL    HW180954  11.990   0.893   5.046 -1.4428  1.1290  2.9361
58031SOL    HW280955  11.968   0.743   5.052  0.2171  0.5360 -1.6178
58032SOL     OW80956   1.050   8.785   1.679  0.3318 -0.5458  0.3978
58032SOL    HW180957   1.084   8.703   1.644  2.3564 -0.6922  2.4172
58032SOL    HW280958   1.106   8.853   1.641  0.0369 -0.3215  0.3588
58033SOL     OW80959   0.153   2.931   4.586 -0.1521 -0.3159 -0.1269
58033SOL    HW180960   0.248   2.924   4.581 -0.0169  0.2438  1.1129
58033SOL    HW280961   0.134   2.937   4.680 -1.3626  0.1173 -0.3713
58034SOL     OW80962   2.575   8.025   7.560 -0.2484  0.1168 -0.3130
58034SOL    HW180963   2.606   7.992   7.476  0.0851 -0.9558  0.2093
58034SOL    HW280964   2.624   7.975   7.625  0.2046  1.5935  0.5358
58035SOL     OW80965   8.092  12.215   2.437  0.4624 -0.1295  0.4598
58035SOL    HW180966   8.099  12.120   2.435 -1.0728 -0.3416  2.3141
58035SOL    HW280967   8.030  12.236   2.367  0.6217 -0.5046  0.2059
58036SOL     OW80968   4.713   2.867  10.548  0.3328  0.1833  0.0840
58036SOL    HW180969   4.672   2.799  10.494 -1.0688  1.5241 -0.6016
58036SOL    HW280970   4.804   2.838  10.556 -0.3113 -2.0163  0.2313
58037SOL     OW80971   2.799   9.852  10.623 -0.3238 -0.2249 -0.3998
58037SOL    HW180972   2.817   9.938  10.661 -0.6740 -0.0201 -0.6971
58037SOL    HW280973   2.708   9.856  10.595 -0.2910 -0.6341 -0.5729
58038SOL     OW80974   4.369  12.060   4.330  0.0455  0.0925  0.0903
58038SOL    HW180975   4.457  12.048   4.364 -0.7418 -0.5995  1.9949
58038SOL    HW280976   4.313  12.061   4.407 -1.6173  0.6080 -1.0695
58039SOL     OW80977   1.800  10.848   6.721 -0.1585  0.7147  0.0400
58039SOL    HW180978   1.712  10.884   6.704 -0.3113  0.6310  0.6200
58039SOL    HW280979   1.846  10.919   6.767  1.1259  1.9434 -2.8769
58040SOL     OW80980   1.665  12.394   0.019  0.3902  0.6113 -0.1108
58040SOL    HW180981   1.627  12.306   0.024 -0.9978  1.2444  1.2144
58040SOL    HW280982   1.614  12.438  -0.048  1.0367  0.4478 -0.7206
58041SOL     OW80983  10.738   1.556   7.535 -0.0831  0.7114 -0.7766
58041SOL    HW180984  10.651   1.595   7.526 -0.3940 -0.0301 -1.0593
58041SOL    HW280985  10.722   1.471   7.576  0.6933  1.3224  0.9064
58042SOL     OW80986   0.134   2.334  12.383  0.0237  0.4630  0.1426
58042SOL    HW180987   0.163   2.246  12.363 -0.8077  0.4472 -1.1113
58042SOL    HW280988   0.191   2.391  12.331 -0.1817  0.6000  0.0662
58043SOL     OW80989   2.516  11.885   3.536  0.0140  0.0224  0.5145
58043SOL    HW180990   2.540  11.792   3.539 -1.3494 -0.3871 -0.1446
58043SOL    HW280991   2.528  11.916   3.626  1.7045 -0.4484  0.4779
58044SOL     OW80992  11.888   4.523  11.124 -0.5134 -0.0182 -0.7969
58044SOL    HW180993  11.935   4.486  11.050 -0.2627 -0.3834 -0.4623
58044SOL    HW280994  11.850   4.605  11.091  1.5506  1.0439 -0.6960
58045SOL     OW80995   4.771   4.555   0.192 -0.2030 -0.0884  0.0347
58045SOL    HW180996   4.785   4.568   0.098  0.9620  1.6344  0.4087
58045SOL    HW280997   4.854   4.521   0.223 -0.1549  0.5775  0.6484
58046SOL     OW80998   7.665   3.394   2.599  0.3264  0.2305 -0.1615
58046SOL    HW180999   7.637   3.484   2.613 -2.3231 -0.2973 -1.6062
58046SOL    HW281000   7.668   3.384   2.504 -0.2266 -1.4193 -0.0331
58047SOL     OW81001   5.554   0.096   9.909 -0.3335  0.4737  0.1059
58047SOL    HW181002   5.592   0.015   9.876  0.6718  0.5642  0.9893
58047SOL    HW281003   5.521   0.073   9.996 -1.2170  0.7013 -0.1598
58048SOL     OW81004   8.849   7.953  11.989 -0.0695  0.7346  0.0161
58048SOL    HW181005   8.901   7.971  11.910  1.0082  0.2707  0.5904
58048SOL    HW281006   8.873   7.863  12.012  1.3724  1.5819  2.1146
58049SOL     OW81007   1.969  10.936   3.264  0.1170  0.2498  0.4374
58049SOL    HW181008   1.995  10.976   3.181 -0.0007  0.4077  0.4757
58049SOL    HW281009   1.915  11.003   3.306  2.1656  1.1947  1.7386
58050SOL     OW81010   1.844   3.916   2.529  0.3160 -0.2800  0.2206
58050SOL    HW181011   1.918   3.952   2.579  0.2731  2.0104 -1.2133
58050SOL    HW281012   1.799   3.858   2.591  2.8228 -1.1376  1.3704
58051SOL     OW81013   9.050   2.016   3.782  0.4731  0.2358 -0.7370
58051SOL    HW181014   9.082   1.968   3.858  0.3556 -1.3919 -1.6816
58051SOL    HW281015   8.954   2.013   3.790  0.4583 -0.0539 -1.0204
58052SOL     OW81016   5.675   5.497   4.895 -0.0100 -0.2550 -0.7549
58052SOL    HW181017   5.686   5.476   4.988  0.7868 -1.0925 -1.0252
58052SOL    HW281018   5.689   5.592   4.889  2.4029 -0.5268 -0.3547
58053SOL     OW81019  11.949   1.431   4.665  0.2492  0.4625 -0.1025
58053SOL    HW181020  11.876   1.414   4.724  0.7288 -0.5891  0.2118
58053SOL    HW281021  12.015   1.472   4.721  0.1575  0.7981 -0.2381
58054SOL     OW81022   9.453  10.982   9.588 -0.0405  0.8792 -0.5182
58054SOL    HW181023   9.467  11.016   9.500 -0.9028 -1.3977 -1.5933
58054SOL    HW281024   9.358  10.973   9.596  0.0038  1.2525  0.7533
58055SOL     OW81025   6.382   3.859   5.999 -0.2110 -0.3343  0.2803
58055SOL    HW181026   6.380   3.878   5.905 -0.1837  1.1776  0.5635
58055SOL    HW281027   6.338   3.933   6.040  1.6821  0.1312  1.6152
58056SOL     OW81028   5.948  10.477   6.418  0.1837 -0.6156  0.7095
58056SOL    HW181029   5.979  10.450   6.504  1.0494  1.7795  1.2492
58056SOL    HW281030   5.893  10.553   6.435 -0.8291 -0.9830 -0.7604
58057SOL     OW81031   7.505   5.524   1.511 -0.2402  0.5315  0.3576
58057SOL    HW181032   7.464   5.512   1.596  0.8078  0.6253  0.8892
58057SOL    HW281033   7.437   5.501   1.448 -1.7815  2.6157  1.1461
58058SOL     OW81034  11.782  10.510   0.849  0.4234 -0.1903  0.3591
58058SOL    HW181035  11.687  10.520   0.855  0.6817  2.4735  2.0465
58058SOL    HW281036  11.798  10.419   0.874 -1.6763 -0.7279 -0.0628
58059SOL     OW81037   3.975   9.851   0.948  0.1892 -0.0489  0.8341
58059SOL    HW181038   4.014   9.878   0.864  0.5016 -2.0115  0.2909
58059SOL    HW281039   4.043   9.869   1.013  0.8702 -0.6706  0.3134
58060SOL     OW81040   0.802  10.517   7.662  0.0299 -0.5696  0.3137
58060SOL    HW181041   0.800  10.513   7.758 -1.2123 -2.2351  0.2681
58060SOL    HW281042   0.896  10.515   7.641  0.3614  0.8392  1.4821
58061SOL     OW81043   9.246   7.193  10.393 -0.1700  0.1068 -0.3822
58061SOL    HW181044   9.194   7.273  10.383  0.4110  0.4341 -0.9032
58061SOL    HW281045   9.185   7.129  10.429 -0.3736  1.0685  1.0565
58062SOL     OW81046  10.653   2.298   7.656  0.7393  0.4285 -0.0807
58062SOL    HW181047  10.690   2.353   7.725 -0.9116 -1.3130  2.3563
58062SOL    HW281048  10.727   2.246   7.625  1.5651  1.4026  0.1958
58063SOL     OW81049   8.587  12.408   4.926 -0.4979 -0.1736 -0.1654
58063SOL    HW181050   8.569  12.332   4.870 -1.2194 -1.4141  1.6495
58063SOL    HW281051   8.635  12.469   4.869 -2.1170 -0.8638 -2.4322
58064SOL     OW81052   9.469   2.670   1.728  0.0057  0.3720 -0.1959
58064SOL    HW181053   9.465   2.718   1.811 -0.5828  2.7722 -1.5368
58064SOL    HW281054   9.504   2.733   1.665 -0.3126 -1.1360 -1.9739
58065SOL     OW81055   2.353   9.013   7.375  0.0020  0.1498  0.0273
58065SOL    HW181056   2.380   8.921   7.372 -0.3526  0.0600 -0.5776
58065SOL    HW281057   2.349   9.034   7.469  0.2821 -0.3884  0.1634
58066SOL     OW81058   8.287   8.294   8.141 -0.1346  0.5828  0.1171
58066SOL    HW181059   8.263   8.202   8.144  0.0504  0.4488 -1.5951
58066SOL    HW281060   8.212   8.338   8.102  0.0245  1.0585  0.3333
58067SOL     OW81061  11.917   4.352   4.266 -0.4824  0.6760  0.2775
58067SOL    HW181062  11.927   4.259   4.247 -1.1802  0.4836  0.7772
58067SOL    HW281063  11.834   4.376   4.224  1.4904  2.0482 -3.2153
58068SOL     OW81064   1.269   9.601   9.457 -0.2590 -0.0153 -0.2346
58068SOL    HW181065   1.213   9.544   9.510  0.6412 -0.3345  0.3992
58068SOL    HW281066   1.295   9.671   9.516 -0.7928  0.6877 -0.8183
58069SOL     OW81067   4.007  12.427  12.165 -0.3317  0.4169 -0.0694
58069SOL    HW181068   3.947  12.447  12.093 -1.7411 -2.2760  0.2313
58069SOL    HW281069   3.957  12.370  12.223  1.6446  0.3278  1.6792
58070SOL     OW81070   7.760   4.066   5.213 -0.0192 -0.4738 -0.2571
58070SOL    HW181071   7.782   4.138   5.155 -1.8907 -0.2282 -0.7133
58070SOL    HW281072   7.772   4.101   5.301 -1.3317  0.5428 -0.4692
58071SOL     OW81073  11.470   4.985   4.066 -0.1589  0.4590 -0.2876
58071SOL    HW181074  11.493   4.893   4.050 -0.9289  0.1676  0.2399
58071SOL    HW281075  11.531   5.034   4.011  1.1743 -0.3043  0.4492
58072SOL     OW81076   3.658   2.458   1.055 -0.0547 -0.3148  0.1454
58072SOL    HW181077   3.664   2.552   1.037  0.6387 -0.3362  0.2162
58072SOL    HW281078   3.669   2.451   1.150 -0.7780 -0.4173  0.2204
58073SOL     OW81079   1.623   3.920  11.517 -0.5261 -0.4311  0.3568
58073SOL    HW181080   1.684   3.993  11.507 -1.4570  0.2567 -0.4506
58073SOL    HW281081   1.679   3.844  11.535  0.5895  0.1432 -0.5515
58074SOL     OW81082   7.327   9.067   3.191  0.1027  0.2882  0.0054
58074SOL    HW181083   7.348   9.149   3.147  0.8096  1.0082  1.6171
58074SOL    HW281084   7.412   9.026   3.208 -0.1913 -0.2436  0.2331
58075SOL     OW81085   8.200   6.407  11.817 -0.3514  0.0723  0.0428
58075SOL    HW181086   8.173   6.362  11.897  1.0280  1.2789  1.2188
58075SOL    HW281087   8.295   6.401  11.816 -0.2945  0.7929 -1.1000
58076SOL     OW81088   9.609  12.217   0.767 -0.2129  0.5143  0.0961
58076SOL    HW181089   9.576  12.293   0.816 -1.0027 -0.1179  0.5693
58076SOL    HW281090   9.537  12.193   0.709 -1.1315 -1.6048  1.9758
58077SOL     OW81091   3.370   7.048   5.945 -0.3122  0.1164 -0.1367
58077SOL    HW181092   3.456   7.007   5.932  0.1088 -0.3717  3.1796
58077SOL    HW281093   3.307   6.977   5.935  0.0016 -0.3054  0.7748
58078SOL     OW81094   8.431   3.928   9.428  0.1310  0.2816 -0.1141
58078SOL    HW181095   8.487   3.851   9.416 -2.3110 -1.8274  0.7935
58078SOL    HW281096   8.459   3.966   9.511  1.0514  0.0692 -0.3203
58079SOL     OW81097   9.007  11.763  12.074  0.3250  0.0031 -0.0183
58079SOL    HW181098   8.938  11.745  12.137  0.2421  1.7181  0.4227
58079SOL    HW281099   9.008  11.859  12.066  0.4071 -0.1574 -2.5400
58080SOL     OW81100  11.591   6.955   8.270  0.9829 -0.0774  0.1478
58080SOL    HW181101  11.579   6.862   8.253  0.4667 -0.1914  1.0745
58080SOL    HW281102  11.523   6.998   8.218  0.9781 -0.2477  0.0133
58081SOL     OW81103   3.692   2.920   2.303 -0.1275 -0.1347  0.2572
58081SOL    HW181104   3.635   2.931   2.227 -1.0987  0.1788  1.0112
58081SOL    HW281105   3.780   2.943   2.271 -0.7316  1.3411 -0.4306
58082SOL     OW81106   0.420   5.666   8.261  0.3893 -0.0126  0.0857
58082SOL    HW181107   0.339   5.705   8.228  1.1890  2.4199  0.7293
58082SOL    HW281108   0.485   5.684   8.193  0.5824 -1.2426 -0.0750
58083SOL     OW81109   3.568   7.987   2.685  0.0229 -0.5142 -0.1410
58083SOL    HW181110   3.664   7.987   2.686  0.0273 -0.6555  0.5786
58083SOL    HW281111   3.544   7.982   2.778 -0.6795 -0.9193 -0.3368
58084SOL     OW81112   9.486   2.308   1.837  0.1514 -0.2527 -0.2935
58084SOL    HW181113   9.559   2.366   1.858  0.3471 -0.5944 -0.0243
58084SOL    HW281114   9.526   2.236   1.788 -0.1743  0.1241 -1.1499
58085SOL     OW81115   8.789   1.946   9.496  0.0876 -0.2227  0.7942
58085SOL    HW181116   8.841   1.924   9.418 -1.0406  0.0856 -0.0631
58085SOL    HW281117   8.774   1.862   9.539 -1.6182 -0.8315 -0.8382
58086SOL     OW81118   9.738   9.843   7.323 -0.0331 -0.2661 -0.5457
58086SOL    HW181119   9.645   9.862   7.307  0.1849  0.0636 -1.4907
58086SOL    HW281120   9.776   9.836   7.236  0.3067 -3.1612 -0.2745
58087SOL     OW81121  10.679   4.098   9.612 -0.1919 -0.4646  0.1244
58087SOL    HW181122  10.738   4.154   9.663 -0.8047 -0.0190  0.3684
58087SOL    HW281123  10.634   4.045   9.678  1.4113 -2.3256 -0.1913
58088SOL     OW81124   2.399   3.151  10.352  0.5476  0.8406 -0.2067
58088SOL    HW181125   2.478   3.100  10.371  0.8000  1.9162  1.9058
58088SOL    HW281126   2.376   3.127  10.262  1.5683 -1.7478  0.1261
58089SOL     OW81127   9.920   6.947   7.252 -0.0496  0.0188 -0.1966
58089SOL    HW181128  10.001   6.977   7.210 -0.4731 -0.0415 -1.0754
58089SOL    HW281129   9.947   6.874   7.308  0.2878 -1.0463 -1.6988
58090SOL     OW81130   2.351   1.736   9.912 -0.0721 -0.4099 -0.1891
58090SOL    HW181131   2.261   1.761   9.935  0.2637  2.3723 -1.4873
58090SOL    HW281132   2.378   1.803   9.848  3.4176 -0.2976  1.2340
58091SOL     OW81133   5.668   3.217  10.169 -0.1683 -0.4137 -0.2231
58091SOL    HW181134   5.587   3.253  10.131 -0.4363 -1.3098 -0.5240
58091SOL    HW281135   5.638   3.153  10.234  0.3030 -0.3340  0.0797
58092SOL     OW81136  11.534   3.317  11.879 -1.0841 -0.0708  0.2176
58092SOL    HW181137  11.577   3.387  11.829 -0.7074 -1.2518 -1.1667
58092SOL    HW281138  11.604   3.257  11.902 -1.8632 -1.9484 -1.9512
58093SOL     OW81139   5.718   6.623  11.615 -0.3673 -0.1310 -0.0881
58093SOL    HW181140   5.802   6.586  11.588  0.6073 -0.3758  2.9348
58093SOL    HW281141   5.675   6.648  11.533  2.3244 -0.6629 -1.7688
58094SOL     OW81142  12.219  11.714  11.807 -0.1638  0.0665  0.0515
58094SOL    HW181143  12.228  11.775  11.881  0.7271  1.7443 -1.3665
58094SOL    HW281144  12.149  11.655  11.834 -0.4052  1.1020  1.9138
58095SOL     OW81145   2.639   1.035   3.270  0.2644 -0.5321 -0.5242
58095SOL    HW181146   2.663   1.086   3.347 -0.3279 -0.0387 -0.6617
58095SOL    HW281147   2.593   1.097   3.213  0.1772 -1.0381 -1.0112
58096SOL     OW81148   8.422   0.723   6.575 -0.0681  0.2129 -0.1411
58096SOL    HW181149   8.507   0.755   6.543  0.1915  0.5738  0.8613
58096SOL    HW281150   8.420   0.631   6.549  1.2073 -0.1561  0.8921
58097SOL     OW81151  10.710   8.874   0.386 -0.2940  0.1334  0.3598
58097SOL    HW181152  10.637   8.817   0.364 -0.5550  0.5097  0.2405
58097SOL    HW281153  10.718   8.869   0.481  1.1277 -1.8684  0.2281
58098SOL     OW81154   9.733  11.507   7.522  0.0644 -0.5714 -0.5269
58098SOL    HW181155   9.777  11.558   7.454 -0.5961 -0.2237 -0.6940
58098SOL    HW281156   9.670  11.567   7.561  1.6330 -0.2153  1.5961
58099SOL     OW81157   6.972   7.974  10.627 -0.8103 -0.4582  1.1752
58099SOL    HW181158   6.929   8.008  10.706 -2.3500  0.5072 -0.0214
58099SOL    HW281159   6.948   7.882  10.624 -1.4364 -0.3070  1.3997
58100SOL     OW81160  11.425   3.838   1.290 -0.3662 -0.1583 -0.1920
58100SOL    HW181161  11.348   3.850   1.346 -1.2158  0.1044 -1.3734
58100SOL    HW281162  11.497   3.880   1.338 -0.8299 -0.8474  1.1710
58101SOL     OW81163   1.037   4.306   1.605  0.6075 -0.0446  0.3557
58101SOL    HW181164   0.948   4.342   1.597  0.9580  0.8109  0.1979
58101SOL    HW281165   1.024   4.220   1.646 -0.3524 -0.2625 -0.3595
58102SOL     OW81166  10.528  11.808   9.042  0.1340  0.3237 -0.1934
58102SOL    HW181167  10.434  11.826   9.038  0.3897  1.5944 -1.4347
58102SOL    HW281168  10.559  11.827   8.953  1.4549 -0.7804 -0.0025
58103SOL     OW81169   1.984  11.880   0.480  0.2654  0.6952 -0.1214
58103SOL    HW181170   1.957  11.961   0.438 -0.1065  0.0028 -1.2502
58103SOL    HW281171   1.928  11.812   0.443  2.9510 -0.6890 -2.0258
58104SOL     OW81172   1.264  10.907   4.007 -0.2904 -0.1231 -0.6399
58104SOL    HW181173   1.175  10.879   4.028 -0.6912  1.9487  0.6942
58104SOL    HW281174   1.255  10.957   3.925 -0.2729 -0.2930 -0.7459
58105SOL     OW81175  12.453   8.409  10.014  0.5449  0.5050 -0.1966
58105SOL    HW181176  12.461   8.473  10.085  0.4066  0.7389 -0.3918
58105SOL    HW281177  12.459   8.460   9.934 -0.5679  0.4079 -0.3575
58106SOL     OW81178   3.684  12.160  10.962 -0.4863  0.2852  0.1296
58106SOL    HW181179   3.754  12.095  10.955  1.1831  1.9518  0.3990
58106SOL    HW281180   3.660  12.180  10.871  0.5023  0.8051 -0.0300
58107SOL     OW81181   1.057   3.876  10.971  0.0112  0.5346  0.0419
58107SOL    HW181182   1.072   3.860  10.878 -2.4988 -0.6966 -0.2262
58107SOL    HW281183   0.973   3.834  10.990 -0.3088  2.0628  2.5259
58108SOL     OW81184   9.915   4.075   7.102  0.4846  0.3907  0.0346
58108SOL    HW181185   9.861   4.153   7.092  0.7559  0.4810 -0.8515
58108SOL    HW281186   9.943   4.076   7.193 -1.5149  0.0043  0.6957
58109SOL     OW81187  12.293   4.024   3.680  0.1391  0.6498  0.4088
58109SOL    HW181188  12.372   4.044   3.730  2.0409 -1.0543 -1.6819
58109SOL    HW281189  12.275   4.105   3.631  0.5179  1.1038  1.0047
58110SOL     OW81190  12.374   3.168   4.174 -0.4696  0.3685  0.2258
58110SOL    HW181191  12.406   3.160   4.084 -0.9258  0.7762  0.0207
58110SOL    HW281192  12.428   3.108   4.225 -1.1867 -0.9877 -0.5733
58111SOL     OW81193   4.027   6.709  12.079  0.3280 -0.3922 -0.5221
58111SOL    HW181194   3.981   6.660  12.147  2.0072 -0.8228  0.3651
58111SOL    HW281195   4.070   6.641  12.026  0.3693  0.0206 -1.0286
58112SOL     OW81196   5.256   0.955   5.892  0.2714 -0.0429 -0.6719
58112SOL    HW181197   5.341   0.938   5.852 -0.5143 -1.1369 -1.9555
58112SOL    HW281198   5.192   0.922   5.829 -1.1156  0.5760  0.3411
58113SOL     OW81199   8.562   0.430   2.388  0.9131 -0.0006  0.1988
58113SOL    HW181200   8.620   0.384   2.328  0.9026 -0.5631  0.6112
58113SOL    HW281201   8.477   0.432   2.344  0.8877 -0.4741  0.2269
58114SOL     OW81202  10.328   3.547   4.521  0.0794  0.2435  0.6379
58114SOL    HW181203  10.351   3.630   4.478  4.6465 -1.3110 -0.5101
58114SOL    HW281204  10.298   3.491   4.449  2.2356 -0.6207  0.3359
58115SOL     OW81205   1.223   2.044   0.550 -0.2387 -0.0274  0.1902
58115SOL    HW181206   1.156   2.080   0.608 -1.6157 -2.5780  0.3499
58115SOL    HW281207   1.240   1.956   0.586  0.6804 -0.7388 -1.8587
58116SOL     OW81208  10.723  10.588  12.395 -0.4520 -0.2781  0.1586
58116SOL    HW181209  10.681  10.663  12.351  0.0170  0.0063  0.1914
58116SOL    HW281210  10.816  10.608  12.392 -0.4834  0.6062  2.8217
58117SOL     OW81211   1.975  11.747   5.989  0.1106 -0.0439 -0.0218
58117SOL    HW181212   2.026  11.824   5.961 -0.9714  0.6073 -0.2486
58117SOL    HW281213   1.983  11.685   5.916 -1.7234  1.1800 -1.3474
58118SOL     OW81214   4.536   4.836   1.377 -0.3259  0.3603 -0.0958
58118SOL    HW181215   4.552   4.927   1.400  1.1412  0.6106 -1.8698
58118SOL    HW281216   4.622   4.795   1.382 -1.0991 -1.1906  1.5705
58119SOL     OW81217  10.739   2.608   8.985  0.4604  0.2146  0.1248
58119SOL    HW181218  10.829   2.635   9.004  1.3686 -0.3255 -2.8586
58119SOL    HW281219  10.709   2.669   8.918 -0.0995 -1.6168 -1.3935
58120SOL     OW81220   3.669   2.910   9.587  0.0217 -0.0862  0.0924
58120SOL    HW181221   3.746   2.959   9.561 -0.5407  0.2658 -0.9334
58120SOL    HW281222   3.674   2.828   9.538  0.1197 -0.3843  0.5859
58121SOL     OW81223  10.292   0.757   5.299 -0.1573  0.1029 -0.5490
58121SOL    HW181224  10.244   0.699   5.240  2.4234 -1.2654 -1.4653
58121SOL    HW281225  10.334   0.821   5.242  2.2214 -1.1255 -0.2992
58122SOL     OW81226  10.593   6.430   4.434  0.3800 -0.1085  0.4871
58122SOL    HW181227  10.651   6.491   4.389 -0.4894  1.2706  1.1605
58122SOL    HW281228  10.599   6.454   4.526  0.3427 -1.3458  0.8343
58123SOL     OW81229   9.571   7.085   7.040 -0.4268  0.5114  0.3560
58123SOL    HW181230   9.571   7.167   6.990  0.1569 -0.3746 -1.1646
58123SOL    HW281231   9.596   7.018   6.976  3.1512 -0.3292  2.3587
58124SOL     OW81232   8.308   1.373   9.356 -0.0551  0.6460 -0.3291
58124SOL    HW181233   8.323   1.291   9.309 -2.0573 -0.0737  0.1774
58124SOL    HW281234   8.307   1.440   9.288  1.4505  0.2437 -0.7715
58125SOL     OW81235   8.046   3.368   7.052  0.1678  0.3630 -0.1160
58125SOL    HW181236   8.075   3.438   7.110 -0.7892 -0.0911  0.9684
58125SOL    HW281237   8.042   3.408   6.965 -0.6453  1.7505  0.5224
58126SOL     OW81238   5.154   6.789  10.646 -0.2135 -0.0506 -0.0655
58126SOL    HW181239   5.072   6.821  10.685 -0.3566 -0.4353 -0.0497
58126SOL    HW281240   5.221   6.809  10.710 -0.3662 -0.1662  0.1311
58127SOL     OW81241   8.849   9.849   9.718 -0.1698  0.1953 -0.1477
58127SOL    HW181242   8.941   9.866   9.736 -0.1567  0.1446 -0.1677
58127SOL    HW281243   8.813   9.819   9.802  0.2133 -1.4609 -0.5425
58128SOL     OW81244  11.389   9.274   5.572 -0.1451  0.8935 -0.2017
58128SOL    HW181245  11.354   9.199   5.621 -1.6640  2.2191  0.8484
58128SOL    HW281246  11.433   9.234   5.497 -1.0431 -1.0552  0.2217
58129SOL     OW81247  10.892   5.959  10.649  0.0582  0.7379  0.1756
58129SOL    HW181248  10.980   5.930  10.625  0.0531  1.1401 -0.3558
58129SOL    HW281249  10.900   6.054  10.660 -0.0742  0.6342  1.1924
58130SOL     OW81250  11.241   8.609   6.832  0.2777 -0.2210  0.4038
58130SOL    HW181251  11.248   8.698   6.866  0.7062  0.3802 -1.1778
58130SOL    HW281252  11.152   8.605   6.796  0.9379  0.2874 -1.3716
58131SOL     OW81253   9.236  11.459   6.308 -0.4632 -0.4921  0.4205
58131SOL    HW181254   9.265  11.541   6.348 -2.9657 -0.4001  2.2665
58131SOL    HW281255   9.185  11.487   6.232  2.8254 -0.6233 -2.0641
58132SOL     OW81256   3.163   6.838   9.671  0.1224  0.0075 -0.3477
58132SOL    HW181257   3.208   6.754   9.667  0.8786  0.4257 -0.9243
58132SOL    HW281258   3.183   6.880   9.587 -0.4330  0.6696 -0.1602
58133SOL     OW81259   5.936   3.936  10.964 -0.3854 -0.8511  0.1902
58133SOL    HW181260   5.940   3.868  10.897  1.0438 -1.0153  0.3996
58133SOL    HW281261   5.925   4.018  10.915 -0.3699 -1.0709 -0.1818
58134SOL     OW81262   4.998   7.812   6.851 -0.1811  0.0964  0.7257
58134SOL    HW181263   4.938   7.873   6.808 -0.9903 -0.7402  0.6542
58134SOL    HW281264   4.960   7.795   6.937  1.0532  1.1838  1.5327
58135SOL     OW81265   3.996   1.270   2.783  0.0883  0.0945 -0.4825
58135SOL    HW181266   3.910   1.237   2.753  0.2049 -0.9203  0.2412
58135SOL    HW281267   4.051   1.267   2.704 -0.3790  0.1873 -0.8202
58136SOL     OW81268   0.582   0.669  11.701  0.1341 -0.1899  0.6247
58136SOL    HW181269   0.506   0.645  11.754 -0.1471  0.3464  0.4730
58136SOL    HW281270   0.562   0.757  11.670  0.8942  0.0210  0.7183
58137SOL     OW81271   7.963   5.081  10.604 -0.5395 -0.0058 -0.5377
58137SOL    HW181272   7.881   5.054  10.561 -1.5508 -0.9840  1.8522
58137SOL    HW281273   8.000   5.000  10.639 -0.2196  0.8325  1.1516
58138SOL     OW81274   5.699   4.439   1.027  0.7139 -0.1720 -0.0287
58138SOL    HW181275   5.630   4.418   0.965 -0.4994  4.1045 -0.4731
58138SOL    HW281276   5.739   4.355   1.048 -1.5920 -2.3308 -3.2731
58139SOL     OW81277   7.894   3.416   3.658  0.3626  0.1037  0.0402
58139SOL    HW181278   7.921   3.499   3.618 -0.5788 -0.0998 -1.1058
58139SOL    HW281279   7.813   3.438   3.705 -1.0971 -0.4934 -2.0127
58140SOL     OW81280  10.254   2.832   6.472 -0.5672  0.2124 -0.3333
58140SOL    HW181281  10.339   2.794   6.492 -0.1407  0.9579 -0.6871
58140SOL    HW281282  10.201   2.758   6.442  1.0512  0.1818 -3.6635
58141SOL     OW81283   8.000   2.218   8.934 -0.5119  0.1323  0.1626
58141SOL    HW181284   8.020   2.238   8.843 -2.4160  1.2294 -0.0509
58141SOL    HW281285   8.063   2.150   8.958  0.0620 -0.1266 -1.9390
58142SOL     OW81286   6.148   7.838   2.423 -0.0600  0.3111 -0.0553
58142SOL    HW181287   6.111   7.921   2.453 -1.2031  0.7585 -2.4958
58142SOL    HW281288   6.113   7.826   2.335  0.8140 -2.3321 -0.1292
58143SOL     OW81289   5.979  10.696   6.972  0.0588  0.4267  0.1779
58143SOL    HW181290   5.937  10.667   7.053  0.5687  0.8042  0.5840
58143SOL    HW281291   6.011  10.783   6.992 -2.7877  2.0203 -1.4756
58144SOL     OW81292   2.006   7.147   2.504  0.0961  0.5980 -0.2058
58144SOL    HW181293   1.977   7.065   2.466 -1.0385 -0.0567  1.9316
58144SOL    HW281294   1.926   7.188   2.539  0.9690  1.4048  0.9418
58145SOL     OW81295   8.155   8.085   6.298 -0.3506  0.8158  0.8756
58145SOL    HW181296   8.133   8.046   6.382 -0.2101  1.0380  1.0162
58145SOL    HW281297   8.221   8.027   6.261  0.2042  1.1759  1.2948
58146SOL     OW81298   5.456   5.607   8.140  0.2205 -0.1342  0.3632
58146SOL    HW181299   5.409   5.528   8.113 -0.3564 -0.2525  1.6834
58146SOL    HW281300   5.541   5.576   8.169  1.3793  0.1146 -2.3828
58147SOL     OW81301   6.864   0.196   5.564 -0.2920 -0.1215  0.2145
58147SOL    HW181302   6.809   0.272   5.545 -0.6957 -0.6034 -0.6143
58147SOL    HW281303   6.876   0.154   5.480  0.6890 -0.4812  0.5213
58148SOL     OW81304   0.879   4.482  10.990  0.2502 -0.3484  0.0151
58148SOL    HW181305   0.861   4.534  11.068  1.1956  1.2477 -0.7872
58148SOL    HW281306   0.793   4.474  10.947  0.0964  0.6164  0.1239
58149SOL     OW81307   7.878   5.302   8.414 -0.4615  0.3026  0.0058
58149SOL    HW181308   7.885   5.218   8.368  0.5971  0.7424 -0.6792
58149SOL    HW281309   7.784   5.313   8.430 -0.5355 -1.7385  1.5193
58150SOL     OW81310   1.830   3.282  12.273 -0.0350  0.2636 -0.4245
58150SOL    HW181311   1.874   3.254  12.193 -0.4698  0.2249 -0.6546
58150SOL    HW281312   1.817   3.201  12.322  0.3414  0.3034 -0.2586
58151SOL     OW81313  12.101   0.705   1.970  0.7878  0.8460  0.1757
58151SOL    HW181314  12.044   0.723   1.895 -0.1866 -0.0636  0.6702
58151SOL    HW281315  12.143   0.622   1.947 -0.1381  0.1387  0.9744
58152SOL     OW81316  12.450   1.112   1.893 -0.2427  0.0833 -0.0268
58152SOL    HW181317  12.375   1.071   1.850 -0.0162  0.1601 -0.5098
58152SOL    HW281318  12.435   1.099   1.986  0.5783 -2.4617 -0.1866
58153SOL     OW81319   0.672   8.100   9.331  0.2673  0.0713  0.5035
58153SOL    HW181320   0.745   8.110   9.269  0.5389  0.7216  0.9183
58153SOL    HW281321   0.645   8.008   9.321  1.0865 -0.1556  0.2846
58154SOL     OW81322  11.147   5.380  10.573 -0.0782 -0.3426  0.1574
58154SOL    HW181323  11.203   5.414  10.643  0.6885 -1.4860  0.1197
58154SOL    HW281324  11.075   5.338  10.620 -0.7488  0.8106  0.2091
58155SOL     OW81325   2.548  11.393   3.808  0.7777  0.0409 -0.1560
58155SOL    HW181326   2.637  11.409   3.838  0.0095 -0.5051  2.6862
58155SOL    HW281327   2.494  11.457   3.855 -0.3688  0.4338 -1.8846
58156SOL     OW81328   7.496  11.516   6.271  0.2336 -0.2443  0.1914
58156SOL    HW181329   7.533  11.456   6.207  2.3592  0.8832  0.2910
58156SOL    HW281330   7.482  11.598   6.223 -0.1841 -0.0230  0.6714
58157SOL     OW81331   0.165  11.539  10.961 -0.5539  0.2713 -0.2823
58157SOL    HW181332   0.237  11.522  11.022 -1.0524 -2.6570 -0.3500
58157SOL    HW281333   0.086  11.520  11.011 -1.0972  0.1880 -1.1417
58158SOL     OW81334   2.665  10.382   6.033  0.0885  0.3429 -0.4764
58158SOL    HW181335   2.592  10.410   6.088 -0.6636  1.6136 -2.0426
58158SOL    HW281336   2.660  10.286   6.034 -1.7436  0.3959 -0.7005
58159SOL     OW81337  10.845   6.294   7.665 -0.3437  0.1098 -0.1019
58159SOL    HW181338  10.751   6.307   7.677 -0.5184 -2.4802  2.3920
58159SOL    HW281339  10.851   6.240   7.586 -1.1026 -0.7131  0.3722
58160SOL     OW81340   8.861   9.990   4.854 -0.2902  0.7574  0.4341
58160SOL    HW181341   8.947  10.009   4.818  0.5299 -0.4834  1.5894
58160SOL    HW281342   8.875   9.988   4.949 -1.2447 -0.8744  0.5879
58161SOL     OW81343   6.436   4.956  11.837  0.2225 -0.2326 -0.0655
58161SOL    HW181344   6.453   4.946  11.744 -0.2194  1.3037 -0.3278
58161SOL    HW281345   6.450   4.868  11.873  0.2041 -0.8898 -1.5910
58162SOL     OW81346   3.088  12.202   8.989  0.3551 -0.5475 -0.5597
58162SOL    HW181347   3.047  12.252   9.059 -1.1253  0.8702 -2.3448
58162SOL    HW281348   3.166  12.164   9.029  0.3245  1.3606  1.4812
58163SOL     OW81349   1.622   2.060   2.926 -0.4594 -0.1197  0.0650
58163SOL    HW181350   1.568   1.982   2.935 -0.7539  0.0365 -0.3310
58163SOL    HW281351   1.623   2.078   2.832 -1.1862  0.9081  0.2447
58164SOL     OW81352  10.241   4.913   4.851  0.2771  0.0030  0.1247
58164SOL    HW181353  10.239   4.818   4.848  0.4455 -0.0255  0.6883
58164SOL    HW281354  10.168   4.936   4.909  2.6803 -0.0159  3.5027
58165SOL     OW81355   9.862   4.899   4.629 -0.6396  0.3445 -0.2442
58165SOL    HW181356   9.863   4.992   4.604  1.5785  0.5644  0.4713
58165SOL    HW281357   9.809   4.897   4.709 -1.2168  0.8819 -0.6023
58166SOL     OW81358  10.457   6.543   4.883  0.6940 -0.2893 -0.4641
58166SOL    HW181359  10.438   6.618   4.939  0.5657  0.2662 -1.2443
58166SOL    HW281360  10.450   6.467   4.942  0.0396  0.2362  0.1554
58167SOL     OW81361   7.299  12.190   2.503 -0.0022  0.1873 -0.2471
58167SOL    HW181362   7.376  12.137   2.480 -0.2751  0.5936 -2.1710
58167SOL    HW281363   7.326  12.280   2.486 -0.4499  0.4552  0.4365
58168SOL     OW81364  10.425   5.319  11.984 -0.2833 -0.1332  0.4162
58168SOL    HW181365  10.465   5.401  12.014 -0.6920  0.3185 -0.2387
58168SOL    HW281366  10.499   5.262  11.963  0.0045 -0.1447  1.4357
58169SOL     OW81367   6.967  10.672   9.113 -0.4004 -0.1834 -0.3273
58169SOL    HW181368   6.927  10.697   9.196 -0.4383  0.2896 -0.4881
58169SOL    HW281369   6.909  10.604   9.078 -0.6910  0.0189 -0.2360
58170SOL     OW81370  11.748   1.189   7.969 -0.1007  0.2945 -0.0520
58170SOL    HW181371  11.795   1.182   8.052  1.4227  0.3197 -0.8888
58170SOL    HW281372  11.816   1.197   7.903 -1.2560 -0.7303 -1.4304
58171SOL     OW81373   2.213  10.362   4.719  0.1757 -0.0306  0.7569
58171SOL    HW181374   2.282  10.420   4.687 -1.1665  1.7753  0.9555
58171SOL    HW281375   2.175  10.324   4.640 -0.0053  0.6802  0.4940
58172SOL     OW81376   8.312   5.460   0.960 -0.2505 -0.2053 -0.3408
58172SOL    HW181377   8.336   5.539   0.910  1.0790  0.7515  1.6882
58172SOL    HW281378   8.218   5.452   0.946 -0.5229  2.0433 -0.2506
58173SOL     OW81379   9.947   2.467   5.306 -0.1283  0.0302  0.5036
58173SOL    HW181380   9.975   2.523   5.378 -0.8885 -0.0073  0.8271
58173SOL    HW281381  10.002   2.495   5.232  0.7916 -0.0687  1.1316
58174SOL     OW81382  12.410   1.396   0.828  0.3919 -0.4240 -0.3691
58174SOL    HW181383  12.368   1.310   0.829  0.3130 -0.4236 -1.9871
58174SOL    HW281384  12.346   1.453   0.784  0.1240  0.6602  1.3143
58175SOL     OW81385   8.592   5.916   8.164 -0.6645  0.1315  0.5741
58175SOL    HW181386   8.645   5.954   8.234 -1.0172  0.9322  0.4220
58175SOL    HW281387   8.608   5.822   8.170 -1.6204  0.0396  2.5438
58176SOL     OW81388   1.837  11.079   6.516  0.0499  0.0562 -0.2253
58176SOL    HW181389   1.919  11.038   6.544 -0.3922 -0.1085  0.9134
58176SOL    HW281390   1.813  11.136   6.590  0.3089  1.8916 -1.4736
58177SOL     OW81391   8.080  11.531   9.990 -0.2503  0.1712  0.0819
58177SOL    HW181392   8.110  11.481   9.914  1.0223 -0.4872  0.9947
58177SOL    HW281393   8.133  11.500  10.063 -0.2244  2.0122  0.9212
58178SOL     OW81394   1.593   9.697  10.804 -0.9736  0.0896 -0.0020
58178SOL    HW181395   1.665   9.657  10.853 -0.5342  0.2738 -0.4831
58178SOL    HW281396   1.630   9.780  10.771 -1.5981  0.4784  0.2650
58179SOL     OW81397  10.153  10.325  10.551  0.0390 -0.5149 -0.1786
58179SOL    HW181398  10.180  10.241  10.513 -1.0010 -0.4223 -1.1899
58179SOL    HW281399  10.196  10.327  10.636 -0.5305 -2.4194  0.2102
58180SOL     OW81400   6.837   6.374   8.585  0.3771  0.2564 -0.2241
58180SOL    HW181401   6.857   6.466   8.565  0.0710  0.0737 -1.4697
58180SOL    HW281402   6.760   6.378   8.642 -1.9220  0.7629 -3.0792
58181SOL     OW81403   3.540   4.338   0.877  0.3431  0.3210  0.1551
58181SOL    HW181404   3.525   4.433   0.877 -0.3238  0.2257 -1.0078
58181SOL    HW281405   3.453   4.300   0.864  0.6236 -0.4553  0.5088
58182SOL     OW81406   4.777   3.074   7.442  0.1546  0.3013  0.2182
58182SOL    HW181407   4.788   2.979   7.444  0.0357  0.2740 -0.2501
58182SOL    HW281408   4.684   3.088   7.425  0.6379  0.4474 -2.8964
58183SOL     OW81409   8.050   4.054   3.902  0.4220 -0.4300 -0.4416
58183SOL    HW181410   8.000   3.977   3.875 -2.0301  1.1599 -0.7945
58183SOL    HW281411   8.052   4.048   3.997 -0.7564 -0.3957 -0.3957
58184SOL     OW81412   3.535   8.652   9.682  0.0134 -0.4100  0.0701
58184SOL    HW181413   3.591   8.727   9.662 -0.9760  0.0447 -1.1802
58184SOL    HW281414   3.487   8.677   9.761 -1.2338  0.8617 -1.0330
58185SOL     OW81415   1.521   9.173   0.363 -0.3311 -0.0347 -0.3065
58185SOL    HW181416   1.503   9.266   0.370  0.3720  0.2106 -1.4987
58185SOL    HW281417   1.616   9.168   0.353 -0.5231 -0.7279 -2.1780
58186SOL     OW81418  11.712  10.825  10.651 -0.3177  0.1208  0.2660
58186SOL    HW181419  11.785  10.887  10.652 -0.3997  0.2162  1.0783
58186SOL    HW281420  11.725  10.774  10.571  0.2239  0.6256  0.0252
58187SOL     OW81421  12.205  11.318   2.783 -0.0758 -0.3606 -0.7700
58187SOL    HW181422  12.172  11.357   2.864  0.5182  0.0667 -0.7227
58187SOL    HW281423  12.163  11.232   2.778 -2.6185  0.8160 -1.6316
58188SOL     OW81424   5.732  11.132   6.372 -0.2219  0.4051 -0.4591
58188SOL    HW181425   5.731  11.224   6.346  1.0514 -0.1191 -2.5892
58188SOL    HW281426   5.652  11.095   6.334 -0.0675  0.3445 -0.7215
58189SOL     OW81427   7.909   5.154   6.971 -0.8795 -0.0811 -0.3478
58189SOL    HW181428   7.961   5.148   6.891  2.6543 -0.6341  1.7574
58189SOL    HW281429   7.943   5.232   7.016 -0.8582 -1.2091  1.7378
58190SOL     OW81430  10.920   0.011   8.946  0.1564 -0.4969  0.4430
58190SOL    HW181431  10.870   0.072   9.001 -0.0312 -1.7823  1.7384
58190SOL    HW281432  10.968   0.068   8.885 -1.0911  0.8750  0.6771
58191SOL     OW81433   1.975   7.029  10.871 -0.3305 -0.0959 -0.3083
58191SOL    HW181434   1.972   7.016  10.776  0.7700  0.9814 -0.5114
58191SOL    HW281435   1.900   7.086  10.890 -0.3970 -0.0965 -0.5631
58192SOL     OW81436   0.738   1.680   0.826 -0.0400 -0.0230  0.4324
58192SOL    HW181437   0.683   1.638   0.892 -1.1931 -0.4267 -0.7506
58192SOL    HW281438   0.736   1.773   0.850  0.6407 -0.3159  1.7160
58193SOL     OW81439  12.071   9.103   4.425  0.2201  0.1110 -0.0137
58193SOL    HW181440  12.035   9.035   4.482  0.3145  0.6497  0.7028
58193SOL    HW281441  12.004   9.116   4.357  0.1123 -0.5391 -0.0359
58194SOL     OW81442   9.317   0.711   4.780  0.0561 -0.5647 -0.0833
58194SOL    HW181443   9.342   0.752   4.862  0.3729 -1.3344  0.2120
58194SOL    HW281444   9.311   0.784   4.718  3.3028 -0.2936 -0.2680
58195SOL     OW81445   5.663  10.445   9.770 -0.3061 -0.6485 -0.7683
58195SOL    HW181446   5.616  10.438   9.853 -1.2985  0.0580 -1.2421
58195SOL    HW281447   5.653  10.359   9.730  1.7827 -1.6153  0.6218
58196SOL     OW81448   1.167   6.802   1.783  0.2095  0.0491  0.5681
58196SOL    HW181449   1.191   6.886   1.744  1.9064 -0.8415 -0.4190
58196SOL    HW281450   1.219   6.797   1.863  0.3457 -0.1749  0.4682
58197SOL     OW81451   8.652  11.807  10.710  0.9484 -0.2025  0.7947
58197SOL    HW181452   8.725  11.817  10.772  1.5127 -0.7104  0.2260
58197SOL    HW281453   8.656  11.716  10.683 -0.4980 -0.4899  1.4678
58198SOL     OW81454   1.708   8.053   1.444  0.0981  0.0444 -0.2177
58198SOL    HW181455   1.727   7.995   1.371  0.2343 -0.6206  0.3383
58198SOL    HW281456   1.733   8.003   1.522 -0.6285  0.4985  0.3243
58199SOL     OW81457   2.730   7.532   8.788 -0.0915  0.0310  0.2825
58199SOL    HW181458   2.767   7.602   8.734 -0.5376 -2.2367 -3.2340
58199SOL    HW281459   2.638   7.556   8.798 -0.3710 -0.2447 -1.3718
58200SOL     OW81460   1.140  10.276   3.504  0.2304  0.4387 -0.2205
58200SOL    HW181461   1.116  10.311   3.418  0.2469  0.6178 -0.1532
58200SOL    HW281462   1.080  10.202   3.517 -1.2496  1.6869  0.5245
58201SOL     OW81463   8.743   8.615   1.446 -0.3544 -0.2174  0.2792
58201SOL    HW181464   8.780   8.703   1.441  1.0110 -0.8227 -0.9842
58201SOL    HW281465   8.691   8.607   1.366  0.9094 -1.1223 -0.4846
58202SOL     OW81466   5.735   5.124   2.762  0.2256  0.5754  0.0834
58202SOL    HW181467   5.646   5.157   2.772 -0.7245 -1.4215 -1.0907
58202SOL    HW281468   5.731   5.067   2.685  2.1174 -0.8580  0.9511
58203SOL     OW81469   4.055   7.160   0.748 -0.4461  0.2577 -0.0776
58203SOL    HW181470   4.095   7.169   0.835 -0.0511 -0.0977 -0.2137
58203SOL    HW281471   4.067   7.246   0.708 -0.0744  0.2438 -0.0058
58204SOL     OW81472  12.125   4.867  10.741 -0.0899 -0.2691 -0.0679
58204SOL    HW181473  12.052   4.883  10.802 -0.1017  1.1440 -0.4188
58204SOL    HW281474  12.201   4.855  10.798 -0.3186 -0.1962  0.2595
58205SOL     OW81475   6.336   5.507   6.963 -1.0928  0.0899 -0.1398
58205SOL    HW181476   6.304   5.499   7.052 -1.0191 -3.0511 -0.2939
58205SOL    HW281477   6.258   5.503   6.909 -0.9739 -0.3494 -0.2826
58206SOL     OW81478  12.481  11.770   7.624  0.3811 -0.2312 -0.9354
58206SOL    HW181479  12.446  11.834   7.562  1.9693  0.2349 -1.3898
58206SOL    HW281480  12.576  11.777   7.615  0.7951  0.9405  2.5928
58207SOL     OW81481   8.657   0.240   6.519  0.4712  0.3483 -0.2612
58207SOL    HW181482   8.716   0.284   6.580 -0.9629  1.3661  0.4617
58207SOL    HW281483   8.587   0.205   6.574  0.1450 -0.4257 -1.1323
58208SOL     OW81484   2.358   4.254   8.751 -0.3107  0.2376 -0.4868
58208SOL    HW181485   2.449   4.285   8.755 -0.3934  0.3679  1.0064
58208SOL    HW281486   2.331   4.270   8.660 -0.2031  4.1737 -0.0153
58209SOL     OW81487  11.452  12.276   1.160 -0.3250 -0.1372  0.5233
58209SOL    HW181488  11.489  12.283   1.249 -3.6526  0.6414  1.9864
58209SOL    HW281489  11.403  12.357   1.148 -1.0586 -0.8277 -1.5050
58210SOL     OW81490   5.322   3.081   6.275  0.2676 -0.3523  0.9193
58210SOL    HW181491   5.389   3.146   6.300 -0.7727  0.7473  0.9354
58210SOL    HW281492   5.241   3.131   6.270 -0.4262 -1.5132  0.1026
58211SOL     OW81493  12.277   7.968   0.851  0.4459  0.2202 -0.1646
58211SOL    HW181494  12.208   8.027   0.881 -0.4603 -0.5785 -0.5995
58211SOL    HW281495  12.357   7.999   0.893 -0.2253  1.0370  0.5211
58212SOL     OW81496   0.789   1.256  12.090  0.2015 -0.5089 -0.5739
58212SOL    HW181497   0.774   1.350  12.094  1.0398 -0.3819 -0.2791
58212SOL    HW281498   0.701   1.218  12.087 -0.3069  0.1381  2.5221
58213SOL     OW81499   1.008  11.456   0.835 -0.1153  0.0626 -0.1523
58213SOL    HW181500   1.065  11.457   0.912 -2.0096 -0.1955  1.3682
58213SOL    HW281501   1.034  11.532   0.784  1.7482 -0.2205  0.3222
58214SOL     OW81502   0.300   4.184   6.664 -0.1552  0.0862 -0.6673
58214SOL    HW181503   0.280   4.274   6.692 -0.2940 -0.8578  2.6527
58214SOL    HW281504   0.378   4.160   6.715 -0.2125 -1.7370 -1.3716
58215SOL     OW81505   9.108   6.069   8.520  0.2936  0.6641 -0.1615
58215SOL    HW181506   9.181   6.079   8.581  1.3796 -3.0175 -0.6188
58215SOL    HW281507   9.031   6.061   8.576  0.8142  0.5554  0.5483
58216SOL     OW81508  12.016   0.173   3.361  0.3262  0.1812  0.0019
58216SOL    HW181509  12.110   0.163   3.374  0.6205  0.8330 -1.3879
58216SOL    HW281510  11.976   0.110   3.421  1.6420 -0.1431  0.5680
58217SOL     OW81511  11.965  10.216  10.457 -0.1660 -0.0205  0.7986
58217SOL    HW181512  11.997  10.246  10.542  0.2889  0.7893  0.3511
58217SOL    HW281513  11.880  10.259  10.447  0.0123  0.3006  0.6251
58218SOL     OW81514   2.439  12.080  10.751 -0.2518 -0.0132  0.0899
58218SOL    HW181515   2.349  12.062  10.725 -0.1904 -2.0354  1.0514
58218SOL    HW281516   2.458  12.014  10.818  1.5045  1.2293  0.8916
58219SOL     OW81517   3.545  10.983   7.526 -0.3651 -0.4225 -0.4448
58219SOL    HW181518   3.594  10.939   7.457 -0.9465  0.4741 -1.4443
58219SOL    HW281519   3.456  10.948   7.518 -0.3053 -0.7468  0.2344
58220SOL     OW81520  12.418   9.558   4.580 -0.7336  0.2645 -0.2448
58220SOL    HW181521  12.487   9.495   4.561 -0.7429  0.2364 -0.1840
58220SOL    HW281522  12.415   9.615   4.503 -1.0664 -0.1114 -0.5084
58221SOL     OW81523   8.914   6.167   8.666 -0.5922  0.5912  0.0596
58221SOL    HW181524   8.827   6.127   8.668 -0.6826  0.6664 -1.1786
58221SOL    HW281525   8.939   6.175   8.758 -0.1607 -3.1871  0.4416
58222SOL     OW81526  10.808   9.613  11.667  0.3879 -0.2773  0.6682
58222SOL    HW181527  10.876   9.617  11.733  0.9343 -1.1816  0.1862
58222SOL    HW281528  10.753   9.539  11.694  1.8869 -2.1381 -1.0020
58223SOL     OW81529   5.961   1.216   6.637  0.1012  0.7259 -0.2392
58223SOL    HW181530   5.868   1.195   6.651 -0.3706  2.6236 -0.2794
58223SOL    HW281531   5.979   1.288   6.697  0.9765  1.7688 -1.6864
58224SOL     OW81532   0.950   5.684   1.766 -0.0037  0.5030 -0.4184
58224SOL    HW181533   0.954   5.735   1.685  0.2273  2.1672  0.5923
58224SOL    HW281534   0.859   5.692   1.795  0.4110  1.8984  0.6463
58225SOL     OW81535   1.292   7.288   3.126 -0.7382  0.5937 -0.3052
58225SOL    HW181536   1.259   7.378   3.124 -3.0559 -0.1645  1.0320
58225SOL    HW281537   1.257   7.251   3.207 -0.0394 -1.6185 -0.9469
58226SOL     OW81538   9.597   1.370   7.122  0.0802 -0.3992 -0.2641
58226SOL    HW181539   9.531   1.402   7.183  0.4253 -0.9376  0.4043
58226SOL    HW281540   9.657   1.444   7.110  0.3299 -0.4659  0.5093
58227SOL     OW81541   5.425   8.370  11.104 -0.3627  0.0523 -0.0310
58227SOL    HW181542   5.506   8.370  11.155 -0.8230 -1.6140  0.7865
58227SOL    HW281543   5.376   8.446  11.136  0.0448 -0.0592  0.8778
58228SOL     OW81544   3.782   0.953   8.287  0.0081  0.4129 -0.0516
58228SOL    HW181545   3.725   0.878   8.306  1.2140 -0.4319  0.3275
58228SOL    HW281546   3.833   0.966   8.367  3.2920 -1.5271 -1.6171
58229SOL     OW81547   0.076   9.386   5.081 -0.5425  0.2505  1.0587
58229SOL    HW181548  -0.011   9.423   5.067 -2.2830 -1.8286  4.8716
58229SOL    HW281549   0.114   9.442   5.148  0.6836  0.4724  0.2116
58230SOL     OW81550   7.537   8.922   5.236 -0.1444  0.4152 -0.0842
58230SOL    HW181551   7.609   8.887   5.289 -0.3616 -0.2695 -0.2363
58230SOL    HW281552   7.508   8.848   5.183 -0.3705  0.9216 -0.6779
58231SOL     OW81553  10.958   2.635   7.137  0.3591  0.0113 -0.0415
58231SOL    HW181554  10.980   2.624   7.230  0.7366 -0.3025 -0.1640
58231SOL    HW281555  10.862   2.624   7.134  0.4517 -1.0412  0.1744
58232SOL     OW81556   3.673   8.696   8.368  0.0699  0.2153 -0.5027
58232SOL    HW181557   3.732   8.666   8.299  0.2018 -0.3518 -0.1482
58232SOL    HW281558   3.679   8.791   8.365  0.7149  0.1728 -0.7190
58233SOL     OW81559   4.514  12.250  10.519 -0.0226  0.0783  0.4039
58233SOL    HW181560   4.562  12.329  10.498  1.2473 -0.3967  1.4094
58233SOL    HW281561   4.434  12.255  10.466  0.6720  1.3539 -0.5568
58234SOL     OW81562   5.890  12.130   6.588 -0.0019  0.3129 -0.4386
58234SOL    HW181563   5.931  12.170   6.512  0.3039 -2.1892 -1.6935
58234SOL    HW281564   5.797  12.148   6.578 -0.0243 -0.4097 -1.7148
58235SOL     OW81565   8.793   9.847   9.200 -0.1229  0.0861 -0.5209
58235SOL    HW181566   8.874   9.898   9.201  0.0042 -0.1203  0.3067
58235SOL    HW281567   8.760   9.851   9.290 -0.5826 -0.5399 -0.6499
58236SOL     OW81568   1.472   4.750   1.481 -0.0745  0.1791  0.5348
58236SOL    HW181569   1.538   4.758   1.549  0.1296  2.3443  0.1497
58236SOL    HW281570   1.521   4.727   1.402 -0.0126 -0.0168  0.6303
58237SOL     OW81571   2.544  11.701   0.681 -0.2509 -0.6320 -0.0861
58237SOL    HW181572   2.566  11.710   0.773 -0.0165 -1.3878 -0.0645
58237SOL    HW281573   2.579  11.781   0.640 -1.1333  0.1316  0.6003
58238SOL     OW81574   8.024   1.913  10.024 -0.5592  0.1142 -0.0609
58238SOL    HW181575   8.025   1.819  10.043  1.1840  0.3775  1.4402
58238SOL    HW281576   8.112   1.943  10.048 -1.4864  2.3695  0.7766
58239SOL     OW81577   7.438  11.389   7.443 -0.0245 -0.3670 -0.2623
58239SOL    HW181578   7.443  11.389   7.347 -0.8568  1.7691 -0.3662
58239SOL    HW281579   7.522  11.425   7.471 -0.8170  1.6701 -0.3621
58240SOL     OW81580   7.091   9.705   1.412  0.4476 -0.0845 -0.2808
58240SOL    HW181581   7.135   9.657   1.343 -0.4544 -1.6368  0.1909
58240SOL    HW281582   7.150   9.700   1.487  0.8710  0.5628 -0.5577
58241SOL     OW81583   9.433  12.305   3.126 -0.2752  0.0001 -0.7202
58241SOL    HW181584   9.491  12.330   3.198  1.4003  0.9176 -2.3062
58241SOL    HW281585   9.345  12.317   3.161  0.4372 -0.8404  1.5692
58242SOL     OW81586   4.058   4.087   6.997  0.7435  0.1250  0.0091
58242SOL    HW181587   3.994   4.097   7.068  1.3850 -2.0283  0.9619
58242SOL    HW281588   4.020   4.021   6.939  1.6793 -0.4812  0.0715
58243SOL     OW81589   0.366   4.386   1.258 -0.2382  0.1587 -0.2792
58243SOL    HW181590   0.422   4.463   1.259 -0.0034  0.0006 -1.0745
58243SOL    HW281591   0.307   4.400   1.184 -1.0074  0.1475  0.3160
58244SOL     OW81592   0.641   0.179  10.584 -0.2012  0.3003 -0.2950
58244SOL    HW181593   0.637   0.119  10.510 -1.5100 -0.0582  0.0335
58244SOL    HW281594   0.554   0.220  10.586  0.0465  0.8103  0.6249
58245SOL     OW81595   2.991   9.752   2.408 -0.8661  0.1918  0.6838
58245SOL    HW181596   3.034   9.700   2.475  0.4302 -0.8407 -0.8498
58245SOL    HW281597   3.027   9.840   2.419  2.4286 -0.7737 -0.9937
58246SOL     OW81598  10.448   9.833   0.298 -0.4524  0.0822  0.1692
58246SOL    HW181599  10.390   9.865   0.367  1.8468  3.0454  0.9327
58246SOL    HW281600  10.457   9.907   0.238  2.6664 -0.1080  0.2514
58247SOL     OW81601   9.788   2.385   0.972  0.4776  0.1050  0.4362
58247SOL    HW181602   9.696   2.361   0.987  0.4842 -0.2733 -0.0827
58247SOL    HW281603   9.826   2.388   1.059  0.2367 -0.8803  0.5939
58248SOL     OW81604   3.298   2.139   1.380 -0.4112  0.1781  0.5210
58248SOL    HW181605   3.386   2.134   1.343 -0.2349  1.0717  0.8069
58248SOL    HW281606   3.240   2.122   1.306 -0.0472  1.2926 -0.0389
58249SOL     OW81607  12.356  10.250   4.107  0.0112 -0.0729 -0.2004
58249SOL    HW181608  12.351  10.247   4.011 -0.8836 -0.8187 -0.1423
58249SOL    HW281609  12.276  10.206   4.137 -0.3003  1.1674  0.8964
58250SOL     OW81610   7.812   4.166   2.071  0.3515 -0.3188 -0.0933
58250SOL    HW181611   7.824   4.072   2.086  2.6719  0.0275  0.6782
58250SOL    HW281612   7.884   4.191   2.013 -0.2925  0.9774 -0.3807
58251SOL     OW81613   9.198   1.729   9.016 -0.1377  0.6873  0.1597
58251SOL    HW181614   9.122   1.750   8.963  0.2211  0.6412 -0.3782
58251SOL    HW281615   9.167   1.737   9.106 -1.3964 -1.5205 -0.0076
58252SOL     OW81616   4.330   8.713   3.229  0.2622  0.0333  0.4895
58252SOL    HW181617   4.256   8.743   3.282 -1.0766  1.5718 -2.0700
58252SOL    HW281618   4.407   8.756   3.268 -0.6438  1.0400  1.2189
58253SOL     OW81619   4.879   9.612  11.557  0.6908  0.2746  0.4591
58253SOL    HW181620   4.834   9.659  11.487  0.9586 -1.0801 -0.6756
58253SOL    HW281621   4.808   9.579  11.613  0.2404 -1.2052 -0.9011
58254SOL     OW81622   7.916   0.298   3.162 -0.3594  0.6176  0.5467
58254SOL    HW181623   7.901   0.287   3.255 -0.5603  2.9809  0.8602
58254SOL    HW281624   7.973   0.226   3.138  0.0832  0.2311  2.5972
58255SOL     OW81625  11.041  11.986   7.401  0.0571 -0.1298 -0.1291
58255SOL    HW181626  10.984  11.952   7.332  0.5452 -0.4341 -0.3842
58255SOL    HW281627  11.003  12.071   7.423 -0.5315 -0.3561 -0.2547
58256SOL     OW81628  10.372   5.027   7.030  0.8689 -0.1266  0.1452
58256SOL    HW181629  10.404   5.114   7.053  1.7596 -0.3746 -0.1211
58256SOL    HW281630  10.278   5.039   7.014  0.7165  0.5260  1.4000
58257SOL     OW81631   3.206   3.637   7.276 -0.0305 -0.0891 -0.0761
58257SOL    HW181632   3.253   3.655   7.357 -0.5404 -0.1732  0.2410
58257SOL    HW281633   3.157   3.718   7.259 -0.7125 -0.4362  0.2421
58258SOL     OW81634  12.462   3.749   6.154 -0.0672  0.8261  0.3940
58258SOL    HW181635  12.460   3.659   6.188  0.4907  0.4194 -0.6321
58258SOL    HW281636  12.370   3.777   6.157 -0.1579  0.4675  1.3334
58259SOL     OW81637   4.205   0.277   1.113 -0.0262  0.1171  0.1062
58259SOL    HW181638   4.246   0.255   1.196  1.1062  0.1199 -0.4283
58259SOL    HW281639   4.111   0.264   1.128 -0.0598  1.9941  1.9554
58260SOL     OW81640   4.224   9.415   3.243 -0.5763  0.2475  0.3240
58260SOL    HW181641   4.289   9.415   3.314  0.0287  0.4153 -0.2257
58260SOL    HW281642   4.144   9.449   3.284 -0.8227 -1.5773  1.4578
58261SOL     OW81643  10.245  10.822   6.247  0.0528 -0.6160 -0.1575
58261SOL    HW181644  10.189  10.777   6.310  0.7573 -1.2477  0.0347
58261SOL    HW281645  10.333  10.814   6.283  0.3040  0.1716 -0.5652
58262SOL     OW81646   5.138   5.826   0.210 -0.1215  0.3939  0.1768
58262SOL    HW181647   5.134   5.776   0.292 -2.0381 -1.5818 -0.9992
58262SOL    HW281648   5.047   5.828   0.179  0.3765  2.0990 -1.3502
58263SOL     OW81649   9.360   2.822   2.472 -0.1742  0.5777  0.3253
58263SOL    HW181650   9.450   2.788   2.473 -1.2432 -2.5088  0.1813
58263SOL    HW281651   9.326   2.804   2.559 -0.4850  2.4330  0.6331
58264SOL     OW81652  10.842  11.958  11.764  0.3047 -0.1580 -0.1200
58264SOL    HW181653  10.795  11.876  11.748  1.2888 -0.4858 -1.5209
58264SOL    HW281654  10.811  12.017  11.695  0.2616  0.3630  0.3406
58265SOL     OW81655   9.443  11.141   6.871  0.4020  0.1804 -0.5430
58265SOL    HW181656   9.352  11.118   6.889  1.0526 -2.6664 -0.2849
58265SOL    HW281657   9.459  11.220   6.922 -1.9692  0.9437 -0.8642
58266SOL     OW81658  12.000   7.730   6.674  0.2715  0.2576  0.1213
58266SOL    HW181659  11.924   7.704   6.727  0.4847  0.7632  0.6907
58266SOL    HW281660  12.008   7.661   6.609 -0.1402 -0.2670  0.6092
58267SOL     OW81661  11.814  10.273   5.490  0.2761 -0.0704  0.3944
58267SOL    HW181662  11.904  10.274   5.521  0.5732 -1.4112 -0.3689
58267SOL    HW281663  11.820  10.247   5.399 -0.8342  0.6765  0.0860
58268SOL     OW81664   0.802   9.610   2.331  0.4184 -1.0632 -0.5075
58268SOL    HW181665   0.853   9.567   2.400  0.4493  1.7535  1.4202
58268SOL    HW281666   0.868   9.640   2.268  0.5427 -2.3130 -0.9962
58269SOL     OW81667  11.316   3.835   8.025 -0.1697  0.5597 -0.7752
58269SOL    HW181668  11.274   3.832   8.111 -0.1044 -1.8776 -0.7350
58269SOL    HW281669  11.259   3.890   7.972 -0.5048  1.6580  0.6561
58270SOL     OW81670   5.023   2.907  11.890 -0.0812 -0.4559 -0.1945
58270SOL    HW181671   5.117   2.918  11.882 -0.2191  0.0589 -1.3988
58270SOL    HW281672   5.007   2.815  11.868  0.1429 -0.5335 -0.0227
58271SOL     OW81673   3.646   7.069   8.366 -0.4420  0.1388 -0.5725
58271SOL    HW181674   3.603   7.094   8.284 -2.5299 -0.7233  0.1761
58271SOL    HW281675   3.576   7.073   8.431  1.4328  2.2462  1.5284
58272SOL     OW81676   7.242   1.119   2.592 -0.3978 -0.1094  0.0070
58272SOL    HW181677   7.265   1.094   2.681 -0.8550 -1.1590 -0.1609
58272SOL    HW281678   7.167   1.178   2.602  0.7777  1.4032  0.4071
58273SOL     OW81679   3.083   5.179  11.640  0.5014  0.2974  0.5570
58273SOL    HW181680   3.145   5.186  11.568 -0.4556 -2.2203 -0.6184
58273SOL    HW281681   3.027   5.257  11.631  0.6077  0.2018 -1.2343
58274SOL     OW81682  11.363   0.293   5.613 -0.4017  0.3702  0.0190
58274SOL    HW181683  11.421   0.259   5.545 -0.7576  1.5128 -0.8837
58274SOL    HW281684  11.283   0.242   5.604 -0.5304  0.6761 -0.5803
58275SOL     OW81685   4.630   9.062   2.589 -0.1476  0.1941  0.2699
58275SOL    HW181686   4.655   9.069   2.681 -2.7249 -0.3388  1.1026
58275SOL    HW281687   4.536   9.080   2.588 -0.1545  0.4668 -2.3213
58276SOL     OW81688   6.967   3.773   7.725 -0.2548  0.3962 -0.1973
58276SOL    HW181689   6.954   3.765   7.631  0.1994  0.7735 -0.2984
58276SOL    HW281690   6.918   3.852   7.749 -1.3043 -0.3296  0.0804
58277SOL     OW81691  12.259   2.374   2.970 -0.5192  0.0819 -0.2466
58277SOL    HW181692  12.174   2.336   2.993 -0.2532 -1.5843 -1.8074
58277SOL    HW281693  12.298   2.311   2.910  1.7855  0.8784  0.3158
58278SOL     OW81694   4.181   4.827   3.445  0.1831 -0.3038 -0.3297
58278SOL    HW181695   4.135   4.904   3.478  2.2194  0.4116  0.9658
58278SOL    HW281696   4.166   4.829   3.350 -1.0671  0.8015 -0.1316
58279SOL     OW81697   9.735   8.582   3.711 -0.1534 -0.2155  0.2474
58279SOL    HW181698   9.765   8.654   3.768  1.6067 -0.8238  0.1592
58279SOL    HW281699   9.742   8.504   3.766 -1.1090 -0.4625  0.0334
58280SOL     OW81700   2.229  11.900   1.723 -0.0208  0.6433 -0.6501
58280SOL    HW181701   2.272  11.967   1.671  0.3338  2.1775  1.4721
58280SOL    HW281702   2.155  11.944   1.763 -0.5182 -0.5739 -0.1640
58281SOL     OW81703   8.886   7.555   4.535  0.1573 -0.2493  0.3629
58281SOL    HW181704   8.797   7.591   4.543  0.7433  1.0110  2.1248
58281SOL    HW281705   8.906   7.560   4.442 -1.2655  0.3462  0.0572
58282SOL     OW81706  10.873  11.157  10.837 -0.0815 -0.1688  0.1451
58282SOL    HW181707  10.939  11.222  10.813  0.9174 -1.1312  0.2090
58282SOL    HW281708  10.792  11.207  10.844  0.6502  1.0633  0.1718
58283SOL     OW81709   9.653  12.296   1.572  0.1689  0.2023  0.4942
58283SOL    HW181710   9.591  12.350   1.521 -0.9719 -0.3304  1.2764
58283SOL    HW281711   9.662  12.342   1.655  0.6138  0.1302  0.4861
58284SOL     OW81712   5.498   7.205   9.575 -0.7478  0.3438  0.5807
58284SOL    HW181713   5.484   7.293   9.539 -0.9971  0.4011  0.8153
58284SOL    HW281714   5.515   7.219   9.668 -0.4281  0.1694  0.5484
58285SOL     OW81715   8.927   6.670   8.953 -1.0010  0.0316 -0.4745
58285SOL    HW181716   8.867   6.596   8.955 -2.0457  0.8196 -1.5422
58285SOL    HW281717   8.898   6.726   9.026 -0.7037 -0.2155 -0.1601
58286SOL     OW81718   8.815   0.108   1.177  0.1093 -0.2134  0.9375
58286SOL    HW181719   8.790   0.151   1.094 -2.7210 -0.4628  1.5736
58286SOL    HW281720   8.908   0.129   1.187  0.3010  0.6661 -1.7955
58287SOL     OW81721   5.505   4.283  12.308  0.1859  0.1106  0.4546
58287SOL    HW181722   5.487   4.269  12.215 -1.4870  1.8254  0.4612
58287SOL    HW281723   5.549   4.368  12.311  0.9244 -0.2905  1.1708
58288SOL     OW81724   2.442  11.192   6.031  0.1953 -0.6653  0.0355
58288SOL    HW181725   2.384  11.116   6.040 -0.3512 -0.4273 -1.3071
58288SOL    HW281726   2.441  11.213   5.937  0.6119  0.7919  0.3267
58289SOL     OW81727   2.063   4.958   3.190  0.0742 -0.2295 -0.3351
58289SOL    HW181728   1.979   4.931   3.227 -0.9803  0.5013 -2.0954
58289SOL    HW281729   2.126   4.940   3.260 -1.8005  1.1047  1.8715
58290SOL     OW81730   5.511  10.962   3.169  0.0328 -0.0148 -0.1084
58290SOL    HW181731   5.606  10.960   3.174  0.2478 -3.9183 -1.8610
58290SOL    HW281732   5.482  10.886   3.218 -1.9776 -0.3101 -1.5930
58291SOL     OW81733  12.153   3.002   6.283 -0.1577 -0.3331 -0.3206
58291SOL    HW181734  12.148   2.909   6.262  2.5568 -0.4012 -1.0259
58291SOL    HW281735  12.192   3.004   6.371  1.9382  0.1039 -1.2120
58292SOL     OW81736   5.106   2.284   8.319 -0.0952 -0.2664 -0.1620
58292SOL    HW181737   5.048   2.322   8.385 -0.3267  1.8959 -1.5098
58292SOL    HW281738   5.064   2.201   8.295 -0.1072 -1.0175  2.1842
58293SOL     OW81739   2.668   9.366   5.959  0.0292  0.3373  0.0691
58293SOL    HW181740   2.678   9.421   5.882 -2.0427  1.1466  0.3128
58293SOL    HW281741   2.579   9.331   5.953 -0.0513  0.1178  1.8799
58294SOL     OW81742  10.761   3.344   9.149 -0.0656  0.3297 -0.2771
58294SOL    HW181743  10.781   3.374   9.060 -1.4629 -0.3047 -0.8289
58294SOL    HW281744  10.828   3.279   9.168 -0.7945 -0.8862 -1.6203
58295SOL     OW81745  10.050  12.115   7.448  0.6423  0.1535  0.3078
58295SOL    HW181746  10.088  12.133   7.362  1.7854  0.0689  0.7706
58295SOL    HW281747  10.125  12.091   7.503  0.0493  0.9465  1.5265
58296SOL     OW81748   1.828   7.330   8.486 -0.1229 -0.6654 -0.0471
58296SOL    HW181749   1.815   7.403   8.547  1.5507 -0.4486  0.1125
58296SOL    HW281750   1.859   7.258   8.541 -1.1642 -1.3237 -0.2921
58297SOL     OW81751  11.260   6.744   7.433 -0.0147 -0.4846 -0.0264
58297SOL    HW181752  11.209   6.814   7.394  0.1468 -1.4920 -2.1873
58297SOL    HW281753  11.276   6.773   7.523 -0.8945  1.6942 -0.5134
58298SOL     OW81754   9.169   9.561   6.649 -0.1674  0.4027 -0.1457
58298SOL    HW181755   9.249   9.511   6.666 -0.4629 -0.6401 -1.5804
58298SOL    HW281756   9.129   9.572   6.735  1.0058  0.0646  0.4738
58299SOL     OW81757   9.187   5.695   2.451 -0.2559  0.4497 -0.3729
58299SOL    HW181758   9.200   5.754   2.377  0.6831  1.7415  0.7637
58299SOL    HW281759   9.098   5.663   2.441 -0.6110  1.6620 -1.3326
58300SOL     OW81760   2.999   5.289  10.512  0.1559 -0.5996 -0.2773
58300SOL    HW181761   3.048   5.311  10.432  1.8632  0.8441  1.0977
58300SOL    HW281762   3.053   5.223  10.555 -0.0852 -0.3953  0.3364
58301SOL     OW81763   5.031   5.271   2.365 -0.0600  0.2022  0.3290
58301SOL    HW181764   4.947   5.301   2.400  0.5228  0.2065  1.7948
58301SOL    HW281765   5.038   5.180   2.394  0.1393 -0.0211 -0.3891
58302SOL     OW81766   6.475  10.099   0.727  0.0552  0.2979 -0.3648
58302SOL    HW181767   6.416  10.095   0.652  0.7606 -1.4501 -0.8805
58302SOL    HW281768   6.518  10.013   0.729  0.1661  0.3301  1.9635
58303SOL     OW81769   7.986   6.683   2.196  0.3620  0.0473 -0.1006
58303SOL    HW181770   7.906   6.735   2.204  0.1435 -0.0723 -1.3671
58303SOL    HW281771   8.015   6.670   2.287 -0.5624  0.8398  0.3256
58304SOL     OW81772   8.393   1.221   5.343  0.3989 -0.1550 -0.2055
58304SOL    HW181773   8.466   1.244   5.286  1.1920 -2.0953 -0.0645
58304SOL    HW281774   8.332   1.175   5.286 -0.1487  0.3826 -0.0625
58305SOL     OW81775   3.858  12.074   3.273  0.2844 -0.7297  0.0309
58305SOL    HW181776   3.869  12.068   3.368 -0.7159  1.8075  0.3977
58305SOL    HW281777   3.781  12.022   3.253 -0.2613 -0.2400  0.8298
58306SOL     OW81778   0.291   4.541   7.854 -0.0974  0.0633  0.0966
58306SOL    HW181779   0.371   4.562   7.807  0.1862  1.6269  1.1870
58306SOL    HW281780   0.312   4.558   7.946 -1.7630  0.7991  0.3752
58307SOL     OW81781   5.625   8.763   9.572  0.0902 -0.0070  0.3282
58307SOL    HW181782   5.538   8.770   9.533 -0.8823 -0.8344  2.2098
58307SOL    HW281783   5.683   8.745   9.498 -1.1241  1.6494 -1.1358
58308SOL     OW81784  11.589   7.093  11.058 -0.1995 -0.0908  0.2293
58308SOL    HW181785  11.572   7.003  11.084  1.5627 -0.9253 -1.2566
58308SOL    HW281786  11.518   7.115  10.997  0.1910 -1.0426 -0.5869
58309SOL     OW81787   2.442   8.810   6.221  0.1195 -0.0945  0.7298
58309SOL    HW181788   2.430   8.832   6.313  1.9353  1.1531  0.7214
58309SOL    HW281789   2.389   8.875   6.174  1.0882  0.7922  0.8474
58310SOL     OW81790   9.302  12.268   6.754  0.0379  0.1102 -0.1919
58310SOL    HW181791   9.379  12.215   6.772 -1.4469 -2.2053 -0.2344
58310SOL    HW281792   9.319  12.351   6.799  2.1241 -0.6555  0.5525
58311SOL     OW81793   4.660   8.432   0.685  0.0286  0.2967 -0.1429
58311SOL    HW181794   4.685   8.523   0.706  0.5490  0.1620 -0.1687
58311SOL    HW281795   4.565   8.431   0.697 -0.2081  1.2389 -1.6192
58312SOL     OW81796   1.720  10.309   3.853 -0.0153  0.1557 -0.0192
58312SOL    HW181797   1.654  10.241   3.848  0.5352 -0.5921  1.7903
58312SOL    HW281798   1.784  10.276   3.917  0.5665  2.0983  0.4971
58313SOL     OW81799   0.672  10.229   5.540  0.7655 -0.4355  0.0394
58313SOL    HW181800   0.642  10.218   5.450  0.8739 -0.2581 -0.0187
58313SOL    HW281801   0.714  10.315   5.541  1.3986 -0.7428  0.0888
58314SOL     OW81802  12.109   1.166  10.595 -0.1626  0.3548  0.2491
58314SOL    HW181803  12.188   1.164  10.649  1.0552 -0.9635 -1.4644
58314SOL    HW281804  12.074   1.077  10.600 -0.2638  0.3253 -0.7473
58315SOL     OW81805  10.851   7.952  11.819  0.2229 -0.1586 -0.1602
58315SOL    HW181806  10.906   8.010  11.872  3.5264 -1.1941 -2.1138
58315SOL    HW281807  10.780   8.008  11.789  0.5592  1.5250  1.9277
58316SOL     OW81808   8.845   0.809   0.070 -0.0497 -0.2323  0.1509
58316SOL    HW181809   8.934   0.842   0.066  0.9771 -2.8850 -1.2227
58316SOL    HW281810   8.801   0.849  -0.005  0.1559  0.5707  0.4520
58317SOL     OW81811   9.242  12.035   6.266  0.5104 -0.3373  0.8781
58317SOL    HW181812   9.184  12.003   6.197  0.3834 -0.2344  0.9362
58317SOL    HW281813   9.328  11.997   6.245  0.3006 -0.9618  1.1153
58318SOL     OW81814  11.886  12.439  11.819  0.1498 -0.5282  0.4734
58318SOL    HW181815  11.949  12.487  11.873 -0.1722  1.7402 -1.0716
58318SOL    HW281816  11.902  12.470  11.730 -1.7092 -1.5275 -0.2582
58319SOL     OW81817   0.504   1.094  12.466  0.1254 -0.4123  0.1206
58319SOL    HW181818   0.422   1.115  12.421  0.9065 -0.2127 -1.2698
58319SOL    HW281819   0.545   1.178  12.482  0.0958 -0.5154  0.7680
58320SOL     OW81820   7.910   6.824   5.868  0.1438  0.0775 -0.0172
58320SOL    HW181821   7.859   6.851   5.944  0.2088  1.7039 -0.5121
58320SOL    HW281822   7.861   6.857   5.793  1.3892  0.7952 -0.5475
58321SOL     OW81823  11.453   8.838   3.704 -0.3847  0.2034  0.8465
58321SOL    HW181824  11.382   8.861   3.764 -1.7867 -0.0143 -0.6516
58321SOL    HW281825  11.409   8.793   3.631  1.4897 -1.4576  0.6485
58322SOL     OW81826   4.000   4.807   7.927 -0.4243  0.7642 -0.2371
58322SOL    HW181827   4.038   4.732   7.972 -1.6062  1.0785  1.3862
58322SOL    HW281828   3.972   4.773   7.842  1.6844  0.0967 -0.7060
58323SOL     OW81829   5.775   4.283  11.690 -0.4326  0.0042  0.2055
58323SOL    HW181830   5.839   4.338  11.735  1.7986 -1.9083 -0.3800
58323SOL    HW281831   5.715   4.254  11.759 -0.1329  1.1110  0.9630
58324SOL     OW81832   2.879   4.066   6.605  0.2895 -0.0772  0.4095
58324SOL    HW181833   2.963   4.102   6.633  0.8234 -0.9890  0.0378
58324SOL    HW281834   2.902   4.003   6.536 -0.6975 -0.3347  0.3053
58325SOL     OW81835   3.341   8.862  10.558  0.1592 -0.1091  0.2448
58325SOL    HW181836   3.293   8.932  10.514  0.2355 -0.8962 -1.1471
58325SOL    HW281837   3.350   8.793  10.491  2.8453 -0.1799  0.5580
58326SOL     OW81838   0.535   7.277  12.287 -0.3378 -0.4626  0.3890
58326SOL    HW181839   0.449   7.311  12.312 -0.9386 -2.6386  1.5727
58326SOL    HW281840   0.539   7.190  12.327  2.8461 -0.0555  1.2918
58327SOL     OW81841   1.706   9.674  11.672  0.1903  0.2509  0.5484
58327SOL    HW181842   1.673   9.680  11.583 -0.9128 -2.4747  0.6772
58327SOL    HW281843   1.653   9.737  11.722 -0.4781  0.4374 -0.3785
58328SOL     OW81844   2.210   1.646   2.360  0.5359 -0.1542 -0.0363
58328SOL    HW181845   2.131   1.688   2.326  1.1509  0.2913 -0.9495
58328SOL    HW281846   2.282   1.701   2.328  1.2013 -0.2573  1.2054
58329SOL     OW81847  11.358  11.326   7.359 -0.1465  0.4142 -0.5583
58329SOL    HW181848  11.283  11.357   7.409 -0.0518 -0.5567  0.2058
58329SOL    HW281849  11.434  11.345   7.414  0.0676  0.3738 -0.8323
58330SOL     OW81850  12.311   9.334   6.521  0.0201 -0.6057 -0.0394
58330SOL    HW181851  12.275   9.337   6.610 -0.1361  1.1383 -0.1237
58330SOL    HW281852  12.374   9.262   6.523  0.8421  0.1107  1.8123
58331SOL     OW81853   0.627   9.749   1.329  0.1113  0.4195 -0.6171
58331SOL    HW181854   0.640   9.831   1.378 -0.8088  1.5169 -2.1061
58331SOL    HW281855   0.684   9.757   1.253  0.2796 -0.4966 -0.5971
58332SOL     OW81856   1.511   1.009   0.462  0.2462  0.8641  0.6155
58332SOL    HW181857   1.544   1.099   0.462  0.0163  0.9489  0.8826
58332SOL    HW281858   1.506   0.986   0.369 -0.7011  1.5072  0.4882
58333SOL     OW81859   9.755   9.655   6.921 -0.1903 -0.5167  0.3472
58333SOL    HW181860   9.834   9.603   6.904  0.1263  0.0411  0.0845
58333SOL    HW281861   9.784   9.726   6.977  0.1043  1.2583 -1.8971
58334SOL     OW81862   0.632   9.063   5.946 -0.3583  0.2926 -0.3567
58334SOL    HW181863   0.714   9.107   5.966 -0.1950  0.9071 -2.2056
58334SOL    HW281864   0.578   9.077   6.024  1.2327 -0.0585  0.8651
58335SOL     OW81865  10.333  12.018   4.435 -0.2907 -0.3625  0.2456
58335SOL    HW181866  10.270  11.947   4.446 -2.9613  2.0141  1.7107
58335SOL    HW281867  10.290  12.078   4.375  1.8913  0.0765 -0.9591
58336SOL     OW81868  11.575   3.636   3.939  0.1055  0.5827  0.5223
58336SOL    HW181869  11.494   3.594   3.969  0.3953  0.1150  0.6567
58336SOL    HW281870  11.573   3.723   3.979 -1.5251  1.5369 -1.4029
58337SOL     OW81871  11.189   9.353  11.607 -0.2983 -0.3826  0.0496
58337SOL    HW181872  11.141   9.435  11.613  1.3915  0.6482  0.0685
58337SOL    HW281873  11.238   9.360  11.525 -1.3002 -2.0700 -0.7631
58338SOL     OW81874   9.574   7.060   2.281  0.0804 -0.1630  0.1890
58338SOL    HW181875   9.666   7.061   2.252 -0.6033  0.2698 -2.2104
58338SOL    HW281876   9.526   7.101   2.208 -1.9598  0.1844  1.6509
58339SOL     OW81877  11.920   6.667  10.226  0.6311 -0.1715 -0.4282
58339SOL    HW181878  11.984   6.691  10.159  4.1706 -0.8659  2.3576
58339SOL    HW281879  11.918   6.571  10.223  1.3693 -0.2483  0.8152
58340SOL     OW81880  11.738  11.738   1.549 -0.7983  0.3895  0.3494
58340SOL    HW181881  11.742  11.781   1.634 -1.3471  1.6798 -0.2597
58340SOL    HW281882  11.705  11.650   1.568  0.3569  0.2018  1.6162
58341SOL     OW81883   3.576   5.509  11.396  0.4043 -0.2244 -0.0639
58341SOL    HW181884   3.525   5.585  11.425 -0.1582 -0.1742 -1.1322
58341SOL    HW281885   3.547   5.438  11.453  0.0799  0.0960  0.1765
58342SOL     OW81886  10.240  10.356  12.306  0.1553 -0.4293  0.0844
58342SOL    HW181887  10.270  10.377  12.395  0.4286 -0.8912  0.1057
58342SOL    HW281888  10.280  10.272  12.287 -1.6443 -1.3857  0.3435
58343SOL     OW81889   6.528   7.427   7.831 -0.6167  0.3895 -0.0989
58343SOL    HW181890   6.444   7.465   7.856 -1.2323 -0.6137 -0.5475
58343SOL    HW281891   6.511   7.387   7.745  0.5273  0.8379 -0.5480
58344SOL     OW81892   3.227  10.381  11.971 -0.1110 -0.0187 -0.7454
58344SOL    HW181893   3.317  10.404  11.992 -0.0122 -0.0560 -1.1224
58344SOL    HW281894   3.181  10.385  12.055 -0.3405  2.5407 -0.9050
58345SOL     OW81895   9.507   1.251   2.282  0.8307 -0.6975  0.2093
58345SOL    HW181896   9.575   1.318   2.273  0.4904 -0.5668 -1.8138
58345SOL    HW281897   9.505   1.231   2.376  2.5039  0.4791  0.5322
58346SOL     OW81898   5.771   9.891   4.294 -0.3119 -0.7659  0.1281
58346SOL    HW181899   5.707   9.834   4.251 -1.9739 -0.7731  2.4438
58346SOL    HW281900   5.812   9.836   4.360  1.3273 -0.4377 -0.5825
58347SOL     OW81901   8.821   1.692   1.278 -0.1553  0.6737  0.0765
58347SOL    HW181902   8.860   1.779   1.285 -2.0502  1.5894 -0.2653
58347SOL    HW281903   8.727   1.706   1.289 -0.4888 -1.3702  0.2869
58348SOL     OW81904   2.657   2.531   8.239  0.0401 -0.1664 -0.3991
58348SOL    HW181905   2.611   2.614   8.239 -0.2198 -0.2966 -1.3102
58348SOL    HW281906   2.749   2.554   8.226  0.1373  0.0378  0.5464
58349SOL     OW81907   3.131  11.728   3.022 -0.4172 -0.3357 -0.0223
58349SOL    HW181908   3.165  11.639   3.027 -0.1327 -0.4442 -2.4289
58349SOL    HW281909   3.071  11.727   2.948 -0.3733  1.4728 -0.1391
58350SOL     OW81910   5.376   3.289   4.387  0.2604 -0.2264 -0.5250
58350SOL    HW181911   5.392   3.293   4.292  1.2822 -0.5292 -0.3844
58350SOL    HW281912   5.365   3.381   4.413 -0.4505 -0.1707 -0.9952
58351SOL     OW81913   3.587   4.905   3.146  0.3380  0.1637 -0.4933
58351SOL    HW181914   3.629   4.939   3.225  0.8825 -0.1333 -0.6564
58351SOL    HW281915   3.493   4.907   3.167  0.3929  1.1395 -0.2484
58352SOL     OW81916   7.623   9.446   6.042  0.4745 -0.4017 -0.0479
58352SOL    HW181917   7.666   9.361   6.035  1.8309  0.3414 -1.0947
58352SOL    HW281918   7.694   9.509   6.049 -0.4997  0.5703  2.5948
58353SOL     OW81919  11.231   1.699   2.147  0.4629 -0.1225  0.0657
58353SOL    HW181920  11.289   1.759   2.100  1.2525  0.7322  2.0327
58353SOL    HW281921  11.217   1.626   2.086  2.9122  0.0583 -0.7992
58354SOL     OW81922   6.622   2.345   6.425 -0.3255  0.4794 -0.6066
58354SOL    HW181923   6.705   2.389   6.441 -0.8680  0.8800  1.4731
58354SOL    HW281924   6.603   2.299   6.507 -2.5166  1.0595 -0.7100
58355SOL     OW81925   7.346  10.824   9.330  0.4108 -0.3405 -0.5130
58355SOL    HW181926   7.338  10.831   9.425 -1.4155 -0.5278 -0.6273
58355SOL    HW281927   7.440  10.834   9.314  0.6203  0.9009  1.1936
58356SOL     OW81928   6.237   5.501   2.543 -0.8084 -0.3497  0.3540
58356SOL    HW181929   6.159   5.447   2.559 -1.6721  1.0586  1.1089
58356SOL    HW281930   6.218   5.547   2.462  0.0020 -1.2782 -0.3824
58357SOL     OW81931   2.752  11.096   6.023  0.2836  0.2095  0.1297
58357SOL    HW181932   2.785  11.180   6.056  0.6753 -0.3359  1.2029
58357SOL    HW281933   2.665  11.089   6.062  0.3871 -0.0307  0.3182
58358SOL     OW81934   3.188   2.851  11.775  0.2083  0.0321  0.0969
58358SOL    HW181935   3.198   2.936  11.818  0.0028  1.0303 -1.7438
58358SOL    HW281936   3.093   2.836  11.773  0.1912  0.2333 -0.4840
58359SOL     OW81937  10.417   6.870   5.412 -1.1886  0.1001 -0.5907
58359SOL    HW181938  10.492   6.860   5.353 -1.6585  2.0569 -1.6324
58359SOL    HW281939  10.404   6.784   5.450 -0.0062 -0.9142 -2.3354
58360SOL     OW81940   8.565   6.497   4.263 -0.0123 -0.2921 -0.1591
58360SOL    HW181941   8.639   6.490   4.324  0.2583  1.3170 -0.2617
58360SOL    HW281942   8.552   6.407   4.231  0.5046 -0.9828  1.4676
58361SOL     OW81943  10.444   4.353  11.281 -0.1562  0.0619 -0.0959
58361SOL    HW181944  10.444   4.333  11.375  2.8781  0.7720  0.1711
58361SOL    HW281945  10.465   4.447  11.277 -1.2344  0.2719 -1.4902
58362SOL     OW81946  10.347   7.165   1.570  0.5047  0.3520 -0.4362
58362SOL    HW181947  10.306   7.198   1.490 -1.0524 -2.3711 -0.8857
58362SOL    HW281948  10.395   7.087   1.543  0.3661 -0.3461  1.1833
58363SOL     OW81949   8.286   0.732   7.716 -0.1075 -0.0117 -0.1899
58363SOL    HW181950   8.302   0.779   7.634 -0.1882  0.2780 -0.0393
58363SOL    HW281951   8.255   0.799   7.777  0.4682 -0.1291  0.2390
58364SOL     OW81952   8.838   5.011  11.729 -0.0869 -0.2095  0.1382
58364SOL    HW181953   8.767   4.947  11.720  0.0734 -0.4717  0.6590
58364SOL    HW281954   8.918   4.959  11.717  0.0252  0.0276 -0.1451
58365SOL     OW81955   5.951   3.819   4.984 -0.2755 -0.0322 -0.3366
58365SOL    HW181956   5.929   3.731   5.015  1.8695 -0.6433 -0.4258
58365SOL    HW281957   5.962   3.870   5.064  0.0157 -0.2544 -0.2320
58366SOL     OW81958   9.519   4.293   2.613  0.5373  0.2698  0.0947
58366SOL    HW181959   9.561   4.358   2.669  0.1048  0.2768  0.4193
58366SOL    HW281960   9.499   4.220   2.672  0.5050  0.0808 -0.1474
58367SOL     OW81961   7.041   0.494   1.986  0.2287 -0.6981  0.2672
58367SOL    HW181962   7.025   0.486   2.080  1.4800 -0.7944  0.4793
58367SOL    HW281963   7.105   0.425   1.967  2.3203  1.2428 -0.0771
58368SOL     OW81964   3.840   6.005   2.517  0.4602  0.3410  0.2969
58368SOL    HW181965   3.864   5.928   2.570  0.2995  1.3063  1.8306
58368SOL    HW281966   3.846   6.079   2.577  0.4843  1.5391 -1.1175
58369SOL     OW81967   8.168   4.331   5.164 -0.3080  0.2319 -0.2055
58369SOL    HW181968   8.124   4.308   5.247  0.4206  0.0177  0.1266
58369SOL    HW281969   8.165   4.250   5.113  3.7348 -1.3616  1.6018
58370SOL     OW81970   4.478   7.588   8.911 -0.3581  0.0297 -0.2239
58370SOL    HW181971   4.418   7.597   8.984  0.6804  0.7009  0.5802
58370SOL    HW281972   4.564   7.574   8.952 -0.0343 -1.5017 -1.3332
58371SOL     OW81973   3.063   7.353  12.332  1.1056 -0.6564 -0.0421
58371SOL    HW181974   3.104   7.436  12.307  0.1963 -0.3354 -0.5084
58371SOL    HW281975   2.973   7.360  12.301  1.0077 -1.8145 -0.0643
58372SOL     OW81976   6.603   0.715   9.434  0.1684 -0.2646  0.5009
58372SOL    HW181977   6.663   0.771   9.483  0.8850 -0.7102  0.1538
58372SOL    HW281978   6.537   0.689   9.498 -0.4491  1.3493  0.5462
58373SOL     OW81979   9.784   1.589   8.923 -0.1598  0.4333 -0.5607
58373SOL    HW181980   9.710   1.645   8.900 -0.3374  0.2166 -0.5112
58373SOL    HW281981   9.764   1.555   9.010 -0.6369 -0.6948 -1.0958
58374SOL     OW81982  10.774   2.331   6.467  0.3464 -0.4083  0.1541
58374SOL    HW181983  10.860   2.343   6.425  0.0915  0.6047 -0.0934
58374SOL    HW281984  10.768   2.404   6.529 -0.5248 -0.2212 -0.1480
58375SOL     OW81985   3.505   3.035   0.078 -0.3359 -0.3533 -0.1657
58375SOL    HW181986   3.558   3.100   0.033  1.7306 -1.5330  0.4375
58375SOL    HW281987   3.431   3.020   0.019 -0.1985  1.5633 -0.9004
58376SOL     OW81988   4.259   8.596   2.494  0.1300 -0.1521 -0.0413
58376SOL    HW181989   4.249   8.513   2.540  0.2101  0.5827  1.3544
58376SOL    HW281990   4.220   8.580   2.408 -2.7471 -0.7307  1.2483
58377SOL     OW81991  11.428   8.722  12.066  0.3474 -0.2794 -0.0408
58377SOL    HW181992  11.353   8.778  12.087  0.3450 -0.8965  1.7686
58377SOL    HW281993  11.504   8.779  12.075  0.2301 -0.1563  0.2004
58378SOL     OW81994   2.496  10.424   5.781  0.1601  0.2800  0.3163
58378SOL    HW181995   2.589  10.414   5.759  0.4910  0.3169  1.6659
58378SOL    HW281996   2.493  10.499   5.839 -1.1448  2.3640 -2.2237
58379SOL     OW81997   1.059   1.068   3.506  0.1847 -0.1485 -0.3266
58379SOL    HW181998   1.050   1.129   3.433 -1.3297 -0.2360 -0.2285
58379SOL    HW281999   1.074   1.123   3.582  0.4218  0.0099 -0.4859
58380SOL     OW82000   2.158   5.907   7.088  0.1975  0.7164 -0.1968
58380SOL    HW182001   2.184   5.955   7.009 -1.4811 -0.7401 -1.7082
58380SOL    HW282002   2.198   5.821   7.078 -0.8309  0.2012  0.0433
58381SOL     OW82003   2.343   7.401   3.375  0.1945 -0.1388  0.7066
58381SOL    HW182004   2.329   7.479   3.323 -0.1917 -0.0062  1.0038
58381SOL    HW282005   2.341   7.329   3.312  0.4444  0.0812  0.4479
58382SOL     OW82006   2.875   2.246  11.485 -0.0065  0.5429  0.3188
58382SOL    HW182007   2.798   2.293  11.519  0.4035  0.3820  1.5331
58382SOL    HW282008   2.872   2.260  11.391 -1.3121  0.8627  0.3873
58383SOL     OW82009   9.384   4.087   3.044 -0.8194  0.5564  0.1976
58383SOL    HW182010   9.442   4.053   3.113  0.4636  1.0765 -0.5920
58383SOL    HW282011   9.386   4.182   3.056 -1.2048  0.6014 -0.0847
58384SOL     OW82012   4.091  11.216   2.746  0.1372 -0.1744 -0.8801
58384SOL    HW182013   4.037  11.287   2.711  0.5887  0.0471 -1.1343
58384SOL    HW282014   4.030  11.143   2.756 -0.3210  0.2303 -0.6639
58385SOL     OW82015  12.137   6.649   2.165  0.3975  0.4910 -0.0285
58385SOL    HW182016  12.084   6.617   2.239  1.8474 -0.4908  0.6380
58385SOL    HW282017  12.085   6.720   2.127 -2.0040 -1.2888 -0.2658
58386SOL     OW82018   4.566   9.103   4.700  0.0160 -0.2628 -0.3983
58386SOL    HW182019   4.645   9.051   4.683 -0.1145 -0.4438 -0.4510
58386SOL    HW282020   4.555   9.098   4.795 -0.9595 -1.7491 -0.5650
58387SOL     OW82021   7.497   2.499   0.488 -0.2019 -0.5503 -0.5212
58387SOL    HW182022   7.488   2.405   0.503 -0.1495 -0.5451 -0.4536
58387SOL    HW282023   7.407   2.532   0.485 -0.2874 -0.8940 -2.5289
58388SOL     OW82024   1.467  10.658   7.170  0.2687  0.5224 -0.1648
58388SOL    HW182025   1.426  10.684   7.088  1.2472  2.6521 -0.0451
58388SOL    HW282026   1.561  10.667   7.154  0.5617 -0.9570  0.5974
58389SOL     OW82027  11.020  11.904  11.246 -0.0592 -0.4583  0.0833
58389SOL    HW182028  10.931  11.931  11.222  0.3738 -1.5574 -3.4261
58389SOL    HW282029  11.074  11.936  11.174  2.3381 -0.4091  1.7890
58390SOL     OW82030   6.910   7.113   4.805 -0.8961  0.4839 -0.6309
58390SOL    HW182031   6.823   7.153   4.800 -0.1194  2.8373  2.0277
58390SOL    HW282032   6.903   7.048   4.875 -0.6489  0.2736 -0.7981
58391SOL     OW82033   2.112  10.775  10.006  0.5306  0.2243 -0.7327
58391SOL    HW182034   2.100  10.836  10.079  0.4316  0.0185 -0.5770
58391SOL    HW282035   2.063  10.697  10.031  1.6283 -0.3826 -0.3754
58392SOL     OW82036   2.007   5.504   8.177  0.3911 -0.1921 -0.2185
58392SOL    HW182037   2.061   5.442   8.226 -0.0257 -0.9668 -0.7223
58392SOL    HW282038   1.917   5.480   8.200  0.2288  0.9403  0.4398
58393SOL     OW82039   0.409   6.237  11.997  0.2302 -0.3212 -0.5661
58393SOL    HW182040   0.490   6.208  12.038  0.4286  1.2459  0.1841
58393SOL    HW282041   0.436   6.300  11.930 -0.3835  0.4013 -0.1398
58394SOL     OW82042   3.382   2.241   3.379  0.5190 -0.4900 -0.0488
58394SOL    HW182043   3.333   2.231   3.297  1.7536 -0.8107 -0.7751
58394SOL    HW282044   3.352   2.167   3.433 -2.0524  1.0244  0.7803
58395SOL     OW82045   1.535   8.039  10.189 -0.0118  0.1369 -0.0386
58395SOL    HW182046   1.539   7.969  10.124 -0.4824  0.2843 -0.2290
58395SOL    HW282047   1.551   8.119  10.139  0.4495  0.1794  0.1660
58396SOL     OW82048   3.473   4.586   0.835  0.3983 -0.3450  0.1317
58396SOL    HW182049   3.461   4.681   0.837  0.0581 -0.3308 -1.2939
58396SOL    HW282050   3.421   4.557   0.759  1.2234 -1.5496  0.0025
58397SOL     OW82051  11.578   4.113   1.208  0.6260 -0.0134  0.9317
58397SOL    HW182052  11.608   4.184   1.152 -1.9286 -0.7493 -1.6002
58397SOL    HW282053  11.639   4.041   1.190 -0.2989 -0.3233 -1.2246
58398SOL     OW82054   9.300   8.464  11.572  0.0840 -0.4244  0.3809
58398SOL    HW182055   9.266   8.461  11.483  2.6187 -0.7654 -0.6571
58398SOL    HW282056   9.259   8.542  11.610 -0.5389  0.1177 -1.2928
58399SOL     OW82057   5.484   4.596   5.385  0.0301 -0.5341 -0.2933
58399SOL    HW182058   5.419   4.527   5.396 -0.7188  0.2128  0.0405
58399SOL    HW282059   5.554   4.573   5.446  0.0566 -1.3034 -0.6047
58400SOL     OW82060   5.051  12.124   8.085  0.5387 -0.3154 -0.0271
58400SOL    HW182061   5.038  12.105   8.178  2.4681  0.7596  0.5187
58400SOL    HW282062   5.108  12.054   8.054 -0.4348 -0.9057 -0.5396
58401SOL     OW82063  10.323  12.201  12.120  0.2276 -0.3347  0.0680
58401SOL    HW182064  10.400  12.144  12.113 -0.3642 -1.2537  0.7852
58401SOL    HW282065  10.357  12.281  12.160  0.7803 -0.8236  0.6079
58402SOL     OW82066   3.463   7.995  10.352 -0.2823 -0.1065  0.1685
58402SOL    HW182067   3.426   7.920  10.305 -0.1077  0.8710 -1.6362
58402SOL    HW282068   3.388   8.054  10.365 -0.0610  0.2779 -0.2538
58403SOL     OW82069   5.663   9.779   9.113 -0.0434  0.0372  0.1906
58403SOL    HW182070   5.680   9.687   9.134  0.4565  0.0206 -0.2716
58403SOL    HW282071   5.570   9.783   9.094  0.0581 -0.4955 -0.4229
58404SOL     OW82072   0.240  12.347  11.150 -0.0654  0.1200  0.0891
58404SOL    HW182073   0.267  12.266  11.194  0.2705  1.1156  1.8024
58404SOL    HW282074   0.236  12.323  11.057 -1.3292 -2.2080  0.6630
58405SOL     OW82075  10.200   2.369   8.979  0.0913  0.4705  0.2741
58405SOL    HW182076  10.190   2.458   8.947 -0.8488 -0.2767 -1.6306
58405SOL    HW282077  10.151   2.368   9.061  1.1569  1.9922  0.9833
58406SOL     OW82078   5.757   4.316  10.066 -0.7462 -0.0967 -0.0612
58406SOL    HW182079   5.847   4.329  10.035  0.0488 -0.6097  1.9005
58406SOL    HW282080   5.725   4.241  10.016 -0.5860  0.8361 -1.6708
58407SOL     OW82081   4.814   4.875   6.555  0.0801 -0.2208 -0.4299
58407SOL    HW182082   4.829   4.786   6.524  1.2435  0.0503 -0.7163
58407SOL    HW282083   4.809   4.868   6.650  3.4456 -0.2474 -0.1413
58408SOL     OW82084  12.081   5.584   4.808  0.0504  0.0407 -0.6326
58408SOL    HW182085  12.037   5.531   4.741  1.7220  0.1599 -1.8895
58408SOL    HW282086  12.163   5.537   4.825  0.2830  0.7657  0.3112
58409SOL     OW82087   3.498   9.223   7.965  0.4928  0.5986  0.3552
58409SOL    HW182088   3.571   9.221   7.904  1.0297 -0.7882  1.0074
58409SOL    HW282089   3.520   9.294   8.026  2.7489 -1.5645  2.2198
58410SOL     OW82090  10.415  11.840  11.706 -0.3414 -0.5889 -0.5282
58410SOL    HW182091  10.345  11.779  11.732 -1.7132  0.5490 -1.3938
58410SOL    HW282092  10.399  11.857  11.613  2.0269 -1.4431 -1.1554
58411SOL     OW82093   5.812   5.111   0.561  0.0667 -0.5447  0.8091
58411SOL    HW182094   5.784   5.082   0.648 -1.2703  0.2533  0.6800
58411SOL    HW282095   5.730   5.121   0.512  0.7485 -0.2137 -0.3006
58412SOL     OW82096   2.830   8.470  12.185  0.1297 -0.5155 -0.4147
58412SOL    HW182097   2.754   8.491  12.239 -0.2467 -1.7404 -0.4375
58412SOL    HW282098   2.905   8.506  12.232 -0.3516 -0.2839  0.1748
58413SOL     OW82099   1.321   6.688   8.037 -0.0285 -0.3947  0.1757
58413SOL    HW182100   1.400   6.704   7.985  0.3455  0.1842  0.9101
58413SOL    HW282101   1.250   6.693   7.973  0.1968  2.5664  0.0380
58414SOL     OW82102   0.715  10.330   9.767  0.4181  0.4044 -0.7202
58414SOL    HW182103   0.699  10.251   9.715  0.9645  0.4615 -0.9909
58414SOL    HW282104   0.629  10.356   9.798  0.0722  0.3500 -1.5894
58415SOL     OW82105   2.139   7.055   5.892  0.2788 -0.4528 -0.1674
58415SOL    HW182106   2.079   7.125   5.867 -0.5922 -1.2675 -0.4273
58415SOL    HW282107   2.225   7.085   5.863  0.1067  0.9855  0.7052
58416SOL     OW82108   0.321   1.445   1.045 -0.0376  0.3571  0.1648
58416SOL    HW182109   0.278   1.369   1.084  0.3216 -0.7041 -1.4013
58416SOL    HW282110   0.251   1.492   1.000  0.0463 -0.1895 -0.5664
58417SOL     OW82111   3.606   9.844   8.438  0.0460  0.0458  0.4562
58417SOL    HW182112   3.642   9.761   8.408 -1.6009 -1.2494  1.8407
58417SOL    HW282113   3.524   9.820   8.481 -0.3233  2.3713  1.1836
58418SOL     OW82114   0.470   0.957   2.561 -0.1336  0.0478  0.6292
58418SOL    HW182115   0.420   0.966   2.479  0.4661 -0.9476  0.1289
58418SOL    HW282116   0.534   1.029   2.558  1.3136 -1.2112 -0.8634
58419SOL     OW82117  12.284  11.012   2.074 -0.0212 -1.0514  0.5099
58419SOL    HW182118  12.219  11.075   2.105  1.6648  1.0119  0.0849
58419SOL    HW282119  12.232  10.938   2.044 -2.2532  0.8386 -0.6596
58420SOL     OW82120   3.849   2.272   4.072 -0.2390  0.2322 -0.2880
58420SOL    HW182121   3.758   2.258   4.048 -0.7379  1.0430  1.0198
58420SOL    HW282122   3.845   2.313   4.159  1.3593  0.4591 -0.2887
58421SOL     OW82123   9.064   7.500   8.994 -0.3357  0.4320  0.0003
58421SOL    HW182124   9.037   7.570   9.053 -0.9161 -0.9290  1.4081
58421SOL    HW282125   8.993   7.436   8.997 -0.0586 -0.0035 -1.6597
58422SOL     OW82126   7.935   0.683   0.772  0.4456  0.8073 -0.6204
58422SOL    HW182127   7.858   0.725   0.733 -0.6932 -1.4940 -0.9872
58422SOL    HW282128   7.900   0.618   0.832  2.1462  0.4183  0.0096
58423SOL     OW82129   9.734  10.326   9.339  0.2204  0.1825 -0.3063
58423SOL    HW182130   9.780  10.332   9.422  1.5171 -0.9201 -0.9007
58423SOL    HW282131   9.661  10.267   9.355 -0.9614  1.8205  0.6101
58424SOL     OW82132   1.663   3.238  11.805  0.6699 -0.6393 -0.4641
58424SOL    HW182133   1.636   3.155  11.764 -1.8521  1.2176 -2.9298
58424SOL    HW282134   1.608   3.244  11.883  1.2857 -1.5027  0.0605
58425SOL     OW82135  11.008  12.190  10.181 -1.0930  0.3965  0.3230
58425SOL    HW182136  11.098  12.175  10.152 -1.7333 -2.1457 -0.5898
58425SOL    HW282137  10.983  12.109  10.225 -2.7051  1.3397  1.2254
58426SOL     OW82138   6.001  10.268  12.212  0.1749 -0.1836 -0.4988
58426SOL    HW182139   6.091  10.273  12.245 -0.2885  2.1408  0.5643
58426SOL    HW282140   5.946  10.280  12.289 -1.0305 -0.2380 -1.3238
58427SOL     OW82141   3.732   0.595   1.349 -0.3105 -0.1655  0.0593
58427SOL    HW182142   3.759   0.636   1.432  0.1779 -1.7090  0.7098
58427SOL    HW282143   3.653   0.546   1.372 -1.4969  1.2060 -0.9496
58428SOL     OW82144   3.737  12.073  12.271  0.6277  0.3298  0.0758
58428SOL    HW182145   3.740  12.163  12.302  1.8309 -0.2838  1.9221
58428SOL    HW282146   3.661  12.035  12.315  1.8741 -0.3260  1.7715
58429SOL     OW82147  10.465   1.252   8.700 -0.1444  0.1002  0.1884
58429SOL    HW182148  10.404   1.239   8.773  0.0992  0.4990  0.4737
58429SOL    HW282149  10.501   1.340   8.715 -0.1502  0.2181 -0.4594
58430SOL     OW82150  11.364   4.056   1.024  0.2170 -0.2027 -0.3211
58430SOL    HW182151  11.434   4.084   1.082 -0.4575 -0.1918  0.5057
58430SOL    HW282152  11.380   3.963   1.009  0.1811 -0.2927  0.1936
58431SOL     OW82153   7.438  10.680   5.972 -0.7129 -0.0666  0.2948
58431SOL    HW182154   7.402  10.591   5.968  0.0850 -0.4518  1.2163
58431SOL    HW282155   7.403  10.724   5.895 -2.1650 -0.7862  0.5177
58432SOL     OW82156   8.927  10.193   7.888 -0.0152 -0.1503  0.3049
58432SOL    HW182157   8.849  10.152   7.851 -0.5822  0.4945  0.7702
58432SOL    HW282158   9.000  10.143   7.851 -0.5854  0.0836 -1.1963
58433SOL     OW82159   1.505  10.914   6.603  0.3428  0.1497 -0.2263
58433SOL    HW182160   1.444  10.841   6.596 -0.8877  1.1096  0.2329
58433SOL    HW282161   1.549  10.915   6.518 -1.4581  0.4392 -1.2025
58434SOL     OW82162   2.526  11.986   0.979  0.2536  0.2434 -0.0854
58434SOL    HW182163   2.586  11.996   1.053  0.3075  0.5596 -0.1711
58434SOL    HW282164   2.534  11.894   0.954  0.3803  0.1830  0.1787
58435SOL     OW82165   5.786  10.022   1.841  0.1492  0.1626  0.2704
58435SOL    HW182166   5.827  10.053   1.760 -0.2400  0.6827  0.2647
58435SOL    HW282167   5.856  10.021   1.906  0.9935 -2.2998 -0.5536
58436SOL     OW82168   1.656   9.639   6.545  0.7345 -0.5447 -0.2297
58436SOL    HW182169   1.569   9.640   6.584  0.0635 -0.0113 -1.6562
58436SOL    HW282170   1.715   9.621   6.618 -0.4303  0.5909  1.0572
58437SOL     OW82171   5.064   6.010   9.033 -0.4342 -0.5291  0.3501
58437SOL    HW182172   5.135   6.002   8.970  0.4582 -0.5648  1.3239
58437SOL    HW282173   4.994   5.957   8.997  0.2900 -1.0875 -0.2778
58438SOL     OW82174   8.421   1.690   6.474  0.1969 -0.5078  0.1560
58438SOL    HW182175   8.396   1.776   6.441  3.1322  0.5145  0.2804
58438SOL    HW282176   8.407   1.695   6.568 -1.5396 -0.9291 -0.0540
58439SOL     OW82177   3.308   6.571   8.352  0.1727 -0.2556  0.1461
58439SOL    HW182178   3.214   6.587   8.361 -0.0505 -1.7727  0.9345
58439SOL    HW282179   3.350   6.646   8.394 -0.6452  0.7735 -0.7989
58440SOL     OW82180  11.430   2.167   8.469  0.5542  0.1956  0.4517
58440SOL    HW182181  11.507   2.203   8.425  0.6353  0.9705  1.2131
58440SOL    HW282182  11.399   2.097   8.410  1.3873  0.3813 -0.2187
58441SOL     OW82183  10.048   3.072   4.248  0.0853 -0.0098 -0.5729
58441SOL    HW182184  10.118   3.058   4.184  1.1864  2.2198  0.0493
58441SOL    HW282185   9.974   3.102   4.196  0.4785  0.2989 -0.9567
58442SOL     OW82186   0.175  11.778   9.687 -0.4939 -0.7857  0.6634
58442SOL    HW182187   0.154  11.749   9.598 -2.5824  0.3461  0.7344
58442SOL    HW282188   0.209  11.867   9.676 -0.8186 -0.6190  1.0124
58443SOL     OW82189   4.885   9.022   3.829 -0.0725 -0.1029  0.1256
58443SOL    HW182190   4.821   8.950   3.828  1.0482 -1.1544  0.7448
58443SOL    HW282191   4.899   9.040   3.922 -0.3022  0.9101 -0.0238
58444SOL     OW82192   6.126  10.412   1.865 -0.1274 -0.2411  0.1612
58444SOL    HW182193   6.158  10.438   1.951  0.5807 -1.1746  0.2047
58444SOL    HW282194   6.052  10.354   1.883 -0.4831  0.2025  0.1206
58445SOL     OW82195   5.723   8.259  11.496 -0.0344  0.4572  0.1309
58445SOL    HW182196   5.631   8.253  11.521 -0.0253 -0.1595  0.0217
58445SOL    HW282197   5.722   8.255  11.401  0.0775  0.8673  0.1107
58446SOL     OW82198   9.963   9.466   9.839  0.0524 -0.3894  0.0531
58446SOL    HW182199   9.888   9.407   9.848 -0.4198  0.3161  0.8656
58446SOL    HW282200   9.965   9.488   9.745 -1.2340  0.1883  0.1349
58447SOL     OW82201   0.328   3.828   4.373 -0.3485 -0.4840 -0.3853
58447SOL    HW182202   0.356   3.806   4.461 -1.5964 -0.4092  0.0454
58447SOL    HW282203   0.345   3.749   4.322 -1.0782 -1.0803  0.2746
58448SOL     OW82204   6.221   6.138   1.085 -0.4142 -0.4886 -0.3362
58448SOL    HW182205   6.306   6.175   1.059 -0.5486 -0.7320 -1.1494
58448SOL    HW282206   6.240   6.049   1.113 -0.4332 -0.6391 -0.7910
58449SOL     OW82207  11.683   5.677   1.397  0.3665  0.2685  0.2351
58449SOL    HW182208  11.666   5.767   1.423  0.0290  0.5488 -0.8994
58449SOL    HW282209  11.597   5.641   1.376  0.6728  0.3458 -1.3186
58450SOL     OW82210   2.947   9.555  10.323 -0.1339 -0.0327 -0.1403
58450SOL    HW182211   2.989   9.526  10.242  1.6023  0.4609  0.5488
58450SOL    HW282212   2.875   9.611  10.293  1.0914  0.9636 -1.3535
58451SOL     OW82213   8.189   7.176   3.882 -0.5713  0.0105  0.0513
58451SOL    HW182214   8.272   7.129   3.892 -0.0887  0.6758 -0.6817
58451SOL    HW282215   8.192   7.242   3.952 -0.0926  0.5728 -0.4895
58452SOL     OW82216   9.591   1.447  10.880  0.0896 -0.3931 -0.5302
58452SOL    HW182217   9.644   1.527  10.878  0.0089 -0.3087  0.3404
58452SOL    HW282218   9.650   1.378  10.849  0.0790  0.0313 -1.5464
58453SOL     OW82219   9.378   8.680   5.669 -0.1486  0.0973  0.1088
58453SOL    HW182220   9.440   8.675   5.596 -2.9414 -0.3874 -2.4329
58453SOL    HW282221   9.367   8.774   5.684  0.7852  0.1960  0.2417
58454SOL     OW82222   4.509   2.051  10.295  0.0814 -0.0582  0.2630
58454SOL    HW182223   4.440   2.008  10.345 -1.9890  2.8170  0.0956
58454SOL    HW282224   4.468   2.130  10.260  2.4585 -0.0681 -2.9689
58455SOL     OW82225   0.686   9.116  11.440 -0.6105 -0.6654 -0.1842
58455SOL    HW182226   0.726   9.167  11.510 -1.4342  0.2648 -0.3745
58455SOL    HW282227   0.760   9.077  11.393  0.0173  0.0625  0.1807
58456SOL     OW82228   8.473   6.997   6.164  0.1939 -0.1730 -0.1861
58456SOL    HW182229   8.392   6.965   6.124  0.4802 -1.8584  0.4871
58456SOL    HW282230   8.543   6.951   6.118  0.6036 -0.8882  1.1084
58457SOL     OW82231   6.460   4.628   0.725  0.3063  0.3146 -0.1970
58457SOL    HW182232   6.509   4.546   0.715 -0.7624 -0.0734 -3.1638
58457SOL    HW282233   6.391   4.607   0.787  1.5484 -0.2299  1.0623
58458SOL     OW82234   0.266   3.861   7.291 -0.7675 -0.2965 -0.3337
58458SOL    HW182235   0.221   3.799   7.234  1.1045 -1.9073 -0.1500
58458SOL    HW282236   0.338   3.895   7.237  1.7197 -2.6596  1.1967
58459SOL     OW82237   2.572   1.716  11.893 -0.2021  0.0083 -0.1728
58459SOL    HW182238   2.484   1.748  11.877 -0.3712 -0.2121  0.2826
58459SOL    HW282239   2.570   1.625  11.864  0.3406  0.4594 -1.6785
58460SOL     OW82240   6.916   6.444   2.626  0.7288  0.2392  0.3267
58460SOL    HW182241   6.860   6.366   2.620 -0.9192  1.3158  0.9206
58460SOL    HW282242   6.989   6.425   2.568 -0.4394 -1.1013 -0.8037
58461SOL     OW82243   6.330   0.004   8.271 -0.3359  0.0760  0.3972
58461SOL    HW182244   6.369  -0.043   8.196 -1.2346 -0.4190  0.2324
58461SOL    HW282245   6.401   0.008   8.335 -0.4106 -2.1196  0.6809
58462SOL     OW82246   9.086  10.592  11.740  0.3261  0.2820  0.1407
58462SOL    HW182247   9.009  10.593  11.797  0.0824 -0.3563 -0.1645
58462SOL    HW282248   9.057  10.543  11.662  1.0270  0.0691  0.0106
58463SOL     OW82249   1.109   4.634   0.191  0.0412  0.3791 -0.5137
58463SOL    HW182250   1.127   4.709   0.247  0.5396 -1.4502  1.9632
58463SOL    HW282251   1.195   4.598   0.170 -0.2194 -0.2684 -0.5078
58464SOL     OW82252   9.901  10.765   9.584  0.3216 -0.2009 -0.2451
58464SOL    HW182253   9.888  10.753   9.678 -1.1329 -0.2781 -0.4328
58464SOL    HW282254   9.816  10.743   9.545  0.3135  1.6895 -1.4108
58465SOL     OW82255   8.321  10.608   8.388 -0.5391  0.0373 -0.0262
58465SOL    HW182256   8.231  10.606   8.419 -0.5074 -2.5881  0.0753
58465SOL    HW282257   8.323  10.549   8.313  1.6549 -2.4501  1.8303
58466SOL     OW82258   4.354   8.307   4.207 -0.3563  0.2372 -0.1255
58466SOL    HW182259   4.368   8.362   4.131 -2.6253  0.7371 -0.2555
58466SOL    HW282260   4.421   8.239   4.201  0.0484  0.7701 -2.0668
58467SOL     OW82261  12.143   5.940   4.946  0.2201 -1.2453  0.3194
58467SOL    HW182262  12.135   5.887   4.867  1.1109 -1.1772  0.1813
58467SOL    HW282263  12.229   5.982   4.939  1.1198 -2.6253  2.1753
58468SOL     OW82264   0.992   7.449   2.035 -0.5391 -0.0562  0.2218
58468SOL    HW182265   0.940   7.370   2.022  2.3729 -2.1347  0.2673
58468SOL    HW282266   1.018   7.447   2.127  0.0859  0.6202  0.0752
58469SOL     OW82267   3.459  10.433   4.617  0.2092 -0.1264  0.5746
58469SOL    HW182268   3.490  10.349   4.650  1.3089 -0.0922 -0.2862
58469SOL    HW282269   3.427  10.479   4.694  2.7073 -0.0341  1.6432
58470SOL     OW82270   5.992  11.047   5.562 -0.7288  0.1233 -0.1949
58470SOL    HW182271   5.987  11.063   5.656 -0.7785  0.2602 -0.2213
58470SOL    HW282272   6.079  11.010   5.549  1.4210  4.6996 -0.7542
58471SOL     OW82273   1.603   2.093  11.743  0.3225 -0.6302  0.4050
58471SOL    HW182274   1.508   2.100  11.755  0.6305  0.9738  2.4619
58471SOL    HW282275   1.621   2.151  11.668 -0.3440 -1.3833 -0.3642
58472SOL     OW82276   4.642   0.836   2.890  0.3973  0.2110  0.2805
58472SOL    HW182277   4.736   0.851   2.883  0.1281  1.4264 -1.5810
58472SOL    HW282278   4.634   0.748   2.926  2.2864 -0.8620 -1.7083
58473SOL     OW82279  11.433   3.259   2.645 -0.1523 -0.1416  0.0405
58473SOL    HW182280  11.401   3.342   2.611 -0.2354  0.1644  0.8427
58473SOL    HW282281  11.520   3.279   2.679  0.7194 -0.8587 -1.6707
58474SOL     OW82282   9.564   7.574   6.680 -0.3044  0.1710 -0.0566
58474SOL    HW182283   9.640   7.566   6.737  0.8900  0.4568 -1.5422
58474SOL    HW282284   9.531   7.663   6.696  0.4571  0.5047 -0.3195
58475SOL     OW82285   7.347   5.316   3.678 -0.0098  0.1323 -0.0391
58475SOL    HW182286   7.418   5.267   3.637 -0.4377 -0.7866  0.2881
58475SOL    HW282287   7.268   5.287   3.633 -0.3195  0.1729  0.4704
58476SOL     OW82288   3.958   9.370   0.788 -0.7262 -0.2842  0.1204
58476SOL    HW182289   3.935   9.277   0.797  0.3887 -0.4986  1.1365
58476SOL    HW282290   3.920   9.412   0.866 -0.4478 -0.0660  0.1399
58477SOL     OW82291   4.089   3.501   1.641  0.2344  0.4022  0.6809
58477SOL    HW182292   4.179   3.507   1.672  0.3358  1.1109  0.2797
58477SOL    HW282293   4.071   3.407   1.638  1.5688  0.1434 -0.9077
58478SOL     OW82294   8.019   5.545   9.030 -0.2686  0.9272  0.0998
58478SOL    HW182295   7.972   5.627   9.045 -0.1453  0.6197  2.6442
58478SOL    HW282296   8.106   5.561   9.066 -0.4642 -0.5208  1.3044
58479SOL     OW82297   0.521   8.416   9.597  0.6302 -0.4195 -0.2326
58479SOL    HW182298   0.496   8.410   9.689 -0.4020 -0.5948 -0.5137
58479SOL    HW282299   0.524   8.510   9.579 -0.3202 -0.3936 -0.3098
58480SOL     OW82300   1.746  10.893  11.793  0.1322 -0.7252 -0.4008
58480SOL    HW182301   1.772  10.954  11.724  0.1133  0.4991  0.6305
58480SOL    HW282302   1.656  10.869  11.771 -2.0282  3.9365  1.9173
58481SOL     OW82303   4.309   3.295  12.075  0.3941  0.6330 -0.4526
58481SOL    HW182304   4.309   3.379  12.121 -0.2036  1.2531 -1.5429
58481SOL    HW282305   4.380   3.302  12.012  0.5717  0.1746 -0.3058
58482SOL     OW82306  11.215  12.362  10.503  0.3112 -0.5601  0.2696
58482SOL    HW182307  11.232  12.407  10.586 -1.6205  0.7244  0.0260
58482SOL    HW282308  11.289  12.302  10.493  1.8998  1.0315  1.6936
58483SOL     OW82309  12.108   2.081   6.601 -0.6783 -0.1453 -0.4550
58483SOL    HW182310  12.013   2.073   6.596 -0.8159  1.2115 -0.1857
58483SOL    HW282311  12.129   2.074   6.694 -0.5270 -0.1936 -0.4912
58484SOL     OW82312  10.536   1.541   3.059  0.2037 -0.2089  0.0856
58484SOL    HW182313  10.595   1.616   3.060  1.2120 -0.9911  0.9001
58484SOL    HW282314  10.503   1.537   2.969 -2.3596  3.0895  0.6733
58485SOL     OW82315   4.303   7.844   8.959 -0.7229  1.0630 -0.2014
58485SOL    HW182316   4.359   7.835   8.882 -0.1426  1.5051  0.1582
58485SOL    HW282317   4.215   7.857   8.924 -0.3547  2.0217 -0.7995
58486SOL     OW82318   9.514   1.094   4.653 -0.1321  0.2290 -0.5334
58486SOL    HW182319   9.576   1.159   4.685  0.7139  0.0100 -1.6394
58486SOL    HW282320   9.480   1.132   4.572 -0.1545 -0.3885 -0.8209
58487SOL     OW82321   0.513   3.427  11.862  0.3671  0.2247  0.2114
58487SOL    HW182322   0.492   3.465  11.947 -0.2092  0.0693  0.1394
58487SOL    HW282323   0.564   3.495  11.817 -0.0653  0.6415  0.3488
58488SOL     OW82324   3.590   7.260   4.572 -0.3851 -0.3142  0.0436
58488SOL    HW182325   3.557   7.282   4.485 -2.3959 -0.1822  0.7967
58488SOL    HW282326   3.526   7.296   4.633  0.5124 -1.1626  1.5747
58489SOL     OW82327   3.733   8.177   8.528 -0.3056  1.0068  0.0055
58489SOL    HW182328   3.813   8.229   8.542  0.9217 -0.7984  0.0503
58489SOL    HW282329   3.725   8.125   8.608 -1.1684  0.6752 -0.2916
58490SOL     OW82330  10.268   2.580  12.478  0.0706  0.8408 -0.1354
58490SOL    HW182331  10.316   2.584  12.396  1.2192  1.5419  0.5532
58490SOL    HW282332  10.335   2.587  12.546 -0.5239 -2.2303  0.9591
58491SOL     OW82333   2.877   8.568   1.969 -0.7408  0.0504 -0.1953
58491SOL    HW182334   2.903   8.652   1.931 -1.3676  0.2614 -0.1698
58491SOL    HW282335   2.903   8.503   1.904  2.5877 -0.0808  1.0823
58492SOL     OW82336   1.508   8.826   0.063 -0.3826 -0.0577 -0.5305
58492SOL    HW182337   1.432   8.774   0.036  0.8255 -2.3612  0.1488
58492SOL    HW282338   1.547   8.774   0.134  0.8194  1.9555  0.3497
58493SOL     OW82339  11.048   4.958   8.486 -0.6173 -1.2765  0.0188
58493SOL    HW182340  11.140   4.965   8.511 -0.3241 -2.9165 -0.4593
58493SOL    HW282341  11.047   4.983   8.393 -1.2459  1.9972  0.7826
58494SOL     OW82342   3.415   8.691   9.339  0.6484 -0.2342 -0.1761
58494SOL    HW182343   3.372   8.698   9.254 -2.0931 -0.0249  1.1476
58494SOL    HW282344   3.418   8.781   9.372  1.5162 -0.3418  0.0862
58495SOL     OW82345   2.170   4.883  12.289 -0.2156 -0.2369 -0.3645
58495SOL    HW182346   2.147   4.867  12.381 -1.5636  1.2765 -0.3908
58495SOL    HW282347   2.256   4.844  12.279 -1.2298 -2.9929  0.7651
58496SOL     OW82348   7.319   0.229  10.081 -0.3132 -0.5284  0.4636
58496SOL    HW182349   7.300   0.163  10.147  1.2200 -1.0920  0.3806
58496SOL    HW282350   7.277   0.309  10.114 -2.1283 -1.4886  0.5939
58497SOL     OW82351   8.313   6.061   7.549 -0.0450  0.4348  0.1049
58497SOL    HW182352   8.394   6.109   7.561  0.5558 -0.4146 -0.3857
58497SOL    HW282353   8.310   5.999   7.622  1.1411 -1.3644 -1.2606
58498SOL     OW82354   0.412   7.265   6.051 -0.1495  0.1324  0.3705
58498SOL    HW182355   0.398   7.347   6.098 -1.1219 -0.6451  1.4826
58498SOL    HW282356   0.336   7.258   5.993  0.7840  0.8292 -0.9977
58499SOL     OW82357   5.799  11.140   4.376 -0.5193  0.1986 -0.4520
58499SOL    HW182358   5.880  11.106   4.338  0.5813  0.3456  1.6145
58499SOL    HW282359   5.738  11.145   4.302  1.1917 -0.3582 -1.9778
58500SOL     OW82360   1.209   0.479   3.069  0.5719 -0.2644  0.1509
58500SOL    HW182361   1.203   0.383   3.064 -0.7407 -0.2645  1.2238
58500SOL    HW282362   1.197   0.499   3.162  0.2720  0.9843 -0.1454
58501SOL     OW82363   4.222   1.526   0.340  0.5895 -0.3833  0.5516
58501SOL    HW182364   4.173   1.603   0.311 -0.5344 -1.1686  0.3043
58501SOL    HW282365   4.192   1.510   0.429 -0.1760 -1.2986  0.1490
58502SOL     OW82366   7.551  11.303   0.489 -0.3946 -0.1202  0.8070
58502SOL    HW182367   7.563  11.223   0.438 -0.1642  0.1667  0.4053
58502SOL    HW282368   7.466  11.291   0.531 -0.3878 -0.5528  0.7078
58503SOL     OW82369   1.194   4.120   4.556  0.1297  0.2125 -0.1603
58503SOL    HW182370   1.260   4.080   4.612 -0.4772  0.8482  1.0515
58503SOL    HW282371   1.230   4.115   4.468  0.9450 -1.1539  0.2295
58504SOL     OW82372  10.795   0.850  10.479 -0.1868  0.3238  0.3455
58504SOL    HW182373  10.734   0.830  10.550 -0.3840  0.0975  0.1106
58504SOL    HW282374  10.856   0.777  10.479  0.8626  1.1437  1.4084
58505SOL     OW82375   7.148  10.791   1.178 -0.0435  0.3941 -0.4594
58505SOL    HW182376   7.238  10.789   1.145  1.4265 -2.6196  3.0508
58505SOL    HW282377   7.101  10.730   1.122  1.5115 -1.9802  0.6397
58506SOL     OW82378  12.170   6.466   9.615  0.2432 -0.5096 -0.3058
58506SOL    HW182379  12.211   6.417   9.687  3.0725 -0.8574 -2.0208
58506SOL    HW282380  12.204   6.426   9.536 -1.8454  0.6457 -1.8906
58507SOL     OW82381   0.930   7.933   1.341 -0.1446 -0.6190  0.3877
58507SOL    HW182382   0.996   7.913   1.275 -0.7094  0.3657 -0.5054
58507SOL    HW282383   0.964   8.010   1.387 -0.7525  0.0186 -0.2138
58508SOL     OW82384   8.286   3.854   8.290 -0.0758 -0.6840 -0.4292
58508SOL    HW182385   8.228   3.833   8.216 -0.8302 -1.2825  0.3069
58508SOL    HW282386   8.345   3.779   8.296 -0.3634 -0.8875 -0.0997
58509SOL     OW82387   9.862   5.656   5.953  0.0877  0.1567 -0.5188
58509SOL    HW182388   9.877   5.636   5.860  0.1938  0.9430 -0.6781
58509SOL    HW282389   9.935   5.712   5.977  0.4648 -0.6369  0.2533
58510SOL     OW82390   4.183   6.452  10.857 -0.2342 -0.6025  0.6344
58510SOL    HW182391   4.190   6.430  10.950  1.6493  0.9925  0.9517
58510SOL    HW282392   4.270   6.486  10.835 -1.0259  0.2187 -1.3932
58511SOL     OW82393   7.284   1.505   9.436  0.4374 -0.2215 -0.0607
58511SOL    HW182394   7.357   1.453   9.402 -0.0117  0.8456 -2.9719
58511SOL    HW282395   7.215   1.442   9.454  1.4594 -1.0638  1.0819
58512SOL     OW82396   5.660   5.673   3.926 -0.1047 -0.1077 -0.3475
58512SOL    HW182397   5.735   5.716   3.885  0.3260 -1.8376 -1.4961
58512SOL    HW282398   5.679   5.580   3.919 -2.1303 -0.5885 -0.1955
58513SOL     OW82399   9.651  10.483   5.355 -0.6399 -0.2185  0.1832
58513SOL    HW182400   9.637  10.389   5.350  0.7296 -0.5689  1.9215
58513SOL    HW282401   9.644  10.503   5.448  0.3428  1.1851 -0.0162
58514SOL     OW82402   6.776   2.894   8.311  0.1627  0.0288  0.2359
58514SOL    HW182403   6.821   2.820   8.350  3.1110  1.4591 -0.1569
58514SOL    HW282404   6.803   2.894   8.220 -0.4125  1.1151  0.0436
58515SOL     OW82405   3.650  11.574   9.582  0.1313 -0.2922  0.7240
58515SOL    HW182406   3.581  11.615   9.634 -0.9185  2.3968 -2.4075
58515SOL    HW282407   3.726  11.631   9.595 -0.1116  0.3472 -0.4379
58516SOL     OW82408   5.393  11.106   3.781  0.4043  0.1216 -0.2041
58516SOL    HW182409   5.351  11.020   3.789 -0.3401  0.6074  1.4876
58516SOL    HW282410   5.485  11.089   3.804  0.4943 -0.3879 -0.8974
58517SOL     OW82411   5.727   0.784  12.211  0.1633 -0.1003 -0.1342
58517SOL    HW182412   5.740   0.877  12.194 -0.8790  0.1221  0.1772
58517SOL    HW282413   5.736   0.776  12.306  0.4993 -0.3608 -0.1894
58518SOL     OW82414  11.343  11.969   2.145 -0.4700  0.7440 -0.1083
58518SOL    HW182415  11.289  11.956   2.067  0.3634  1.8268 -0.8967
58518SOL    HW282416  11.317  11.898   2.204 -0.0716 -1.0473 -1.9544
58519SOL     OW82417   5.438   2.841   9.348  0.3360 -0.4577 -0.3775
58519SOL    HW182418   5.437   2.904   9.420  1.4220 -0.6872 -0.1412
58519SOL    HW282419   5.358   2.859   9.299 -0.3871 -0.2487  0.8367
58520SOL     OW82420   8.702   4.608   2.314  0.1799 -0.3048 -0.0891
58520SOL    HW182421   8.714   4.580   2.405 -0.4785 -1.9358 -0.4840
58520SOL    HW282422   8.789   4.600   2.275  0.4713  0.4224  0.3677
58521SOL     OW82423   2.082   3.450   6.192  0.3039  0.1805 -0.3138
58521SOL    HW182424   2.036   3.492   6.119 -1.8426 -1.0769  0.2324
58521SOL    HW282425   2.143   3.389   6.149 -0.5187 -0.1298 -1.0735
58522SOL     OW82426   6.262  10.999   6.141 -0.0110 -0.1201 -0.3755
58522SOL    HW182427   6.239  10.931   6.204  0.7694  0.2318  0.3070
58522SOL    HW282428   6.308  11.065   6.192 -0.2544  0.6612 -1.1337
58523SOL     OW82429   3.993   8.408   7.045  0.3011 -0.7240 -0.3744
58523SOL    HW182430   3.917   8.416   7.104 -0.9133  0.8100 -2.0329
58523SOL    HW282431   3.976   8.472   6.976  2.4057 -1.4199 -1.6132
58524SOL     OW82432   6.461  10.916   4.610  0.5497  0.4255  0.2625
58524SOL    HW182433   6.402  10.958   4.547 -0.8134  0.1854  1.3265
58524SOL    HW282434   6.405  10.856   4.659  1.4750  0.9202  2.0090
58525SOL     OW82435   6.990   8.967   7.396 -0.8160  0.3008 -0.3110
58525SOL    HW182436   6.930   9.029   7.438  1.2173  0.9247  1.9107
58525SOL    HW282437   6.977   8.885   7.444 -0.0174  0.4099  0.1102
58526SOL     OW82438   4.703   1.373   1.081  0.0326  0.9398 -0.0783
58526SOL    HW182439   4.672   1.398   0.994 -0.2417 -0.6536 -0.4634
58526SOL    HW282440   4.623   1.355   1.131  0.2312  0.4602  0.0697
58527SOL     OW82441   8.481   4.128   9.239 -0.2035 -0.4988 -0.8578
58527SOL    HW182442   8.468   4.066   9.310  1.2060  0.4356  0.2836
58527SOL    HW282443   8.560   4.177   9.264 -0.7402  1.1271 -2.1459
58528SOL     OW82444   2.440   9.833   3.877  0.0743  0.3690  0.3868
58528SOL    HW182445   2.360   9.869   3.916  0.4178  0.4744  0.9917
58528SOL    HW282446   2.502   9.906   3.877  0.6979 -0.1508  1.4054
58529SOL     OW82447   6.161   7.866   2.133  0.3974  0.4885  0.3014
58529SOL    HW182448   6.117   7.819   2.062  0.0567  0.7700  0.3260
58529SOL    HW282449   6.160   7.958   2.105  0.0160  0.6419  0.7954
58530SOL     OW82450   7.838   3.406   1.709 -0.8232  0.6213  0.1669
58530SOL    HW182451   7.792   3.354   1.775  1.5818 -1.2508  0.5164
58530SOL    HW282452   7.889   3.342   1.659  2.0967  2.5489  0.4034
58531SOL     OW82453  12.193   2.412   0.619  0.3409  0.6850  0.1701
58531SOL    HW182454  12.115   2.366   0.648  1.6397 -1.1087  0.9718
58531SOL    HW282455  12.205   2.385   0.528 -0.4184  1.6565 -0.2419
58532SOL     OW82456   7.852   0.074  12.227 -0.1895 -0.0905  0.6357
58532SOL    HW182457   7.856   0.044  12.318 -2.5103 -2.0989  0.1755
58532SOL    HW282458   7.815   0.000  12.178 -1.2971  1.7448 -1.5377
58533SOL     OW82459   6.118   6.460   2.966  0.0784  0.1091 -0.2221
58533SOL    HW182460   6.182   6.424   2.905  0.0739 -1.1600  0.5112
58533SOL    HW282461   6.138   6.554   2.968  2.4605 -0.3506  0.6172
58534SOL     OW82462   7.328   3.103   7.277  0.4004  0.5898  0.8198
58534SOL    HW182463   7.233   3.105   7.263  0.5910 -0.7231 -0.9787
58534SOL    HW282464   7.362   3.167   7.214  0.7087  1.0836  1.4854
58535SOL     OW82465   1.841   2.371   9.402 -0.1694  0.3353 -0.7699
58535SOL    HW182466   1.807   2.339   9.318 -2.3047 -1.9791  0.8268
58535SOL    HW282467   1.770   2.424   9.438 -0.3957 -0.8477  0.6495
58536SOL     OW82468   6.041  10.865   2.059  0.0876  0.2937 -0.0274
58536SOL    HW182469   6.049  10.944   2.112  1.5063  1.7447 -2.2387
58536SOL    HW282470   5.960  10.876   2.010  0.6797  0.8197 -0.9256
58537SOL     OW82471   5.344   0.715   3.161  0.3839  0.4488 -0.2406
58537SOL    HW182472   5.339   0.811   3.161  0.9141  0.4916 -1.2778
58537SOL    HW282473   5.365   0.692   3.252 -1.5578  1.1901  0.4475
58538SOL     OW82474   6.853   0.002   8.860  0.4887  0.3649 -0.3723
58538SOL    HW182475   6.916  -0.038   8.920 -1.0581  1.2489  1.9544
58538SOL    HW282476   6.774  -0.051   8.868 -0.2070  1.3441 -0.5180
58539SOL     OW82477   6.726  10.496   7.913  0.3639 -0.1762 -0.0630
58539SOL    HW182478   6.763  10.481   7.826 -1.0475 -1.1880 -0.5270
58539SOL    HW282479   6.672  10.418   7.930  1.0328 -0.2592  1.9533
58540SOL     OW82480   3.401   6.964   0.417  0.1210  0.3767  0.8040
58540SOL    HW182481   3.345   7.041   0.407 -0.7179 -0.3645 -0.4843
58540SOL    HW282482   3.350   6.892   0.380  2.3053 -0.1526 -1.4445
58541SOL     OW82483   8.690   4.426   4.049  0.3516 -0.6477 -0.3799
58541SOL    HW182484   8.604   4.460   4.074  1.4005  1.6796  0.3435
58541SOL    HW282485   8.679   4.331   4.047 -1.8485 -0.4894  1.1974
58542SOL     OW82486  11.363  11.697   9.209 -0.4177 -0.2063 -0.0718
58542SOL    HW182487  11.308  11.632   9.252  0.7828 -0.8268  0.5797
58542SOL    HW282488  11.311  11.777   9.210 -0.3851 -0.1007  2.8281
58543SOL     OW82489   3.262   4.704   1.072 -0.7149 -0.4174  0.0494
58543SOL    HW182490   3.282   4.644   1.000 -0.5528 -0.3565  0.0436
58543SOL    HW282491   3.175   4.676   1.103 -0.2648 -1.2392  0.6277
58544SOL     OW82492   7.661   2.210   9.402  0.0936  1.1937 -0.0684
58544SOL    HW182493   7.681   2.281   9.340 -0.1321 -0.9491 -2.8171
58544SOL    HW282494   7.570   2.226   9.428 -0.0117  1.8348 -0.7835
58545SOL     OW82495   9.905  10.011   3.106 -0.3677 -0.3638 -0.2419
58545SOL    HW182496   9.909   9.932   3.052  0.0985 -0.4585 -0.0738
58545SOL    HW282497   9.880  10.081   3.046 -0.4789 -0.5857 -0.4531
58546SOL     OW82498   0.987   5.348   3.925  0.4400 -0.3053  0.3076
58546SOL    HW182499   0.982   5.410   3.853  0.8817 -0.7534 -0.1244
58546SOL    HW282500   0.897   5.338   3.955  0.4852  1.3784  1.1283
58547SOL     OW82501   9.134   7.659  11.096 -0.0868 -0.1947 -0.4264
58547SOL    HW182502   9.133   7.576  11.049  0.2704 -0.1871 -0.4497
58547SOL    HW282503   9.227   7.679  11.108 -0.1338 -0.7292  1.2241
58548SOL     OW82504   7.287  11.563  10.289 -0.6199  0.8386 -0.0070
58548SOL    HW182505   7.295  11.546  10.195 -0.6184 -0.2647  0.1868
58548SOL    HW282506   7.247  11.484  10.324  0.4488  0.7722  1.1048
58549SOL     OW82507   1.044   4.441   3.401  0.3560 -0.3550  0.0228
58549SOL    HW182508   1.102   4.414   3.473  0.6933  0.4831  0.0801
58549SOL    HW282509   1.045   4.367   3.341  1.2323 -0.4882  0.1824
58550SOL     OW82510   1.132  11.868  11.910  0.4335 -0.5299 -0.4695
58550SOL    HW182511   1.099  11.862  12.000 -0.4078 -0.6095 -0.7787
58550SOL    HW282512   1.185  11.948  11.909  1.9256 -1.4434  0.5573
58551SOL     OW82513   1.096   3.554   5.196  0.1717  0.0835 -0.2667
58551SOL    HW182514   1.093   3.510   5.112 -2.5157  0.8883 -0.6975
58551SOL    HW282515   1.034   3.506   5.251  0.8982  0.3635  0.8447
58552SOL     OW82516   9.206  10.364   4.820  0.5803  0.2335  0.2328
58552SOL    HW182517   9.196  10.275   4.854  0.0339  0.4749  0.7344
58552SOL    HW282518   9.301  10.377   4.814  0.7584  0.4795  2.5543
58553SOL     OW82519   4.356   5.461  10.089 -0.3263  0.0956 -0.2836
58553SOL    HW182520   4.337   5.452   9.996 -0.8890  0.8808 -0.2576
58553SOL    HW282521   4.283   5.512  10.124 -0.1777 -0.2754  0.6101
58554SOL     OW82522   3.849   2.145  11.438  0.3468  0.6426  0.4020
58554SOL    HW182523   3.914   2.198  11.392 -0.2883  0.6076 -0.5651
58554SOL    HW282524   3.869   2.157  11.531 -0.5860  3.6782  0.3010
58555SOL     OW82525   9.865   2.487   8.121  0.4596  0.3949 -0.3499
58555SOL    HW182526   9.836   2.504   8.211 -1.0374  0.5514 -0.8420
58555SOL    HW282527   9.791   2.512   8.067  1.3495  0.3112 -1.6485
58556SOL     OW82528  11.911   1.130   0.251 -0.4545 -0.4538  0.0262
58556SOL    HW182529  11.843   1.178   0.204  0.5588 -0.2937 -1.3457
58556SOL    HW282530  11.863   1.073   0.311 -1.7593  0.2865 -0.2770
58557SOL     OW82531   5.851  12.102  12.034 -0.1821  0.9858  0.2878
58557SOL    HW182532   5.816  12.044  11.967  1.9463 -0.2390  0.1326
58557SOL    HW282533   5.929  12.141  11.994  0.4084  1.2168  1.5839
58558SOL     OW82534   1.918   0.114  11.163  0.0881 -0.3468 -0.3465
58558SOL    HW182535   1.945   0.043  11.222 -0.5458  1.0175  1.6804
58558SOL    HW282536   1.834   0.143  11.197  0.0089  0.9274 -1.5545
58559SOL     OW82537  12.106   4.584   1.472 -0.0911 -0.6557 -0.3981
58559SOL    HW182538  12.128   4.677   1.472  0.8832 -0.8363  1.5531
58559SOL    HW282539  12.190   4.539   1.481 -0.7592 -1.5676  1.8954
58560SOL     OW82540   7.098   3.745  12.001  0.4468  0.4411 -0.0900
58560SOL    HW182541   7.187   3.730  12.034 -0.4465 -4.0876  1.0065
58560SOL    HW282542   7.104   3.728  11.907  0.7435  0.0108  0.0039
58561SOL     OW82543   1.143  10.546   9.693 -0.1296 -0.3264 -0.4130
58561SOL    HW182544   1.070  10.484   9.686  1.2847 -2.0395 -0.6247
58561SOL    HW282545   1.119  10.603   9.767 -1.5770 -0.9549 -0.3657
58562SOL     OW82546  11.706   7.733   9.220 -0.3805  0.4327  0.5306
58562SOL    HW182547  11.645   7.781   9.276 -0.8829  0.9794 -0.4440
58562SOL    HW282548  11.695   7.773   9.133 -0.4408 -1.0955 -0.2106
58563SOL     OW82549   6.872   1.430   4.895 -0.3098  0.0319  0.2836
58563SOL    HW182550   6.878   1.366   4.825  0.1840  0.9008 -0.4885
58563SOL    HW282551   6.961   1.439   4.928  0.0346  1.7940 -0.9967
58564SOL     OW82552  10.930   8.250   0.043 -0.1924  0.0489  0.1822
58564SOL    HW182553  10.964   8.220   0.127  1.0061 -0.0769 -0.3355
58564SOL    HW282554  10.868   8.182   0.016 -1.3834  0.5905  1.4287
58565SOL     OW82555  12.089  11.598   6.781 -0.1138  0.2876 -0.0642
58565SOL    HW182556  12.165  11.621   6.834  0.2868 -0.3143 -0.3716
58565SOL    HW282557  12.080  11.671   6.719  1.8196 -0.8269 -1.7606
58566SOL     OW82558   5.425   8.974   2.326  0.7810 -0.3161 -0.1440
58566SOL    HW182559   5.349   8.965   2.268 -2.5800  0.4692  3.6483
58566SOL    HW282560   5.450   9.066   2.318  1.5703 -0.6293 -1.5838
58567SOL     OW82561  10.385   1.557   1.111  0.8076 -0.8224  1.2912
58567SOL    HW182562  10.402   1.605   1.030  1.0232 -1.3341  1.0293
58567SOL    HW282563  10.467   1.565   1.160  1.3021 -2.0113  0.6839
58568SOL     OW82564  11.204   6.545   6.393  0.7855 -0.0644  0.1116
58568SOL    HW182565  11.109   6.556   6.389  0.6917 -0.2626  1.2585
58568SOL    HW282566  11.239   6.617   6.340  0.0284  1.2028  1.2567
58569SOL     OW82567   5.988   1.011   7.630  0.4516  0.0900  0.2954
58569SOL    HW182568   5.967   1.102   7.613  0.5771  0.4270  1.8065
58569SOL    HW282569   5.960   0.964   7.551 -1.6938  1.1152  0.3935
58570SOL     OW82570   7.815   0.520  10.188  0.0568  0.0342 -0.3956
58570SOL    HW182571   7.863   0.567  10.120  0.4570 -1.7303 -1.3934
58570SOL    HW282572   7.733   0.568  10.197  0.5062  1.0049 -1.2356
58571SOL     OW82573   9.147   7.753   2.521 -0.1764 -0.6115  0.1736
58571SOL    HW182574   9.121   7.680   2.578 -0.0041  0.4847  1.6858
58571SOL    HW282575   9.065   7.780   2.479 -0.6341 -0.3380  1.2064
58572SOL     OW82576   1.983   0.454  12.050  0.3143 -0.1092  0.4730
58572SOL    HW182577   1.962   0.495  11.966  0.1453 -0.2736  0.4331
58572SOL    HW282578   2.061   0.402  12.033  0.6026  0.2919  0.5557
58573SOL     OW82579   8.177   1.054   5.597  0.2528 -0.2515  0.4302
58573SOL    HW182580   8.222   0.973   5.618  1.2426  0.1521 -0.0814
58573SOL    HW282581   8.121   1.032   5.522  2.5830  0.1317 -1.5614
58574SOL     OW82582   2.552   2.971  11.082 -0.1309  0.1937 -0.0456
58574SOL    HW182583   2.520   3.053  11.118  0.6073 -0.3040  1.8576
58574SOL    HW282584   2.614   2.938  11.148 -0.4820 -1.9302 -0.7032
58575SOL     OW82585   9.267   1.990   8.442 -0.7425 -0.7633 -0.0159
58575SOL    HW182586   9.180   1.963   8.413 -1.2164  0.3844  0.2667
58575SOL    HW282587   9.327   1.924   8.406 -1.7000 -1.4109 -0.4410
58576SOL     OW82588   1.232   5.675   9.800 -0.1480  0.1963  0.0047
58576SOL    HW182589   1.292   5.649   9.730 -0.0997  0.5439 -0.0827
58576SOL    HW282590   1.165   5.606   9.801  0.3354 -0.2788  0.2074
58577SOL     OW82591   1.036   9.580   0.870 -0.4801 -0.5821  0.0265
58577SOL    HW182592   0.960   9.526   0.893 -0.3430 -0.9766 -0.4357
58577SOL    HW282593   1.016   9.613   0.783 -0.9632  0.8482  0.6590
58578SOL     OW82594   6.112  12.334  10.686 -0.0975  0.2683  0.1523
58578SOL    HW182595   6.194  12.285  10.677  0.6119  1.7154 -1.9821
58578SOL    HW282596   6.114  12.367  10.776  1.3428 -0.2733  0.3464
58579SOL     OW82597   4.308  10.234  11.849 -0.5978 -0.0788 -0.1737
58579SOL    HW182598   4.361  10.253  11.927 -0.5825 -0.3456 -0.1178
58579SOL    HW282599   4.303  10.318  11.802 -0.8098  0.1415  0.2379
58580SOL     OW82600   0.512   2.175   1.952 -0.7575 -0.0549 -0.5294
58580SOL    HW182601   0.587   2.134   1.908 -0.8885 -1.0609  0.1666
58580SOL    HW282602   0.535   2.175   2.044 -0.9719  1.0348 -0.4577
58581SOL     OW82603   1.218  11.054  11.904  0.0031 -0.5914  0.1124
58581SOL    HW182604   1.183  11.123  11.848 -0.6848 -1.0922 -0.0838
58581SOL    HW282605   1.295  11.093  11.945 -0.7460  0.5143  0.5106
58582SOL     OW82606  10.856   9.367   8.449  0.4047 -0.4093 -0.0715
58582SOL    HW182607  10.911   9.315   8.507 -0.8688 -0.8895  0.7425
58582SOL    HW282608  10.775   9.316   8.439 -0.4007  0.8407 -0.2098
58583SOL     OW82609   2.981  10.510   3.360 -0.3360 -0.6548  0.1284
58583SOL    HW182610   2.988  10.419   3.333  0.7519 -1.1296  1.8952
58583SOL    HW282611   2.892  10.518   3.395 -0.3961 -1.0556  0.0667
58584SOL     OW82612   9.219   0.804   6.627 -0.2454  0.1453 -0.5728
58584SOL    HW182613   9.208   0.747   6.703 -1.8982 -0.5305 -1.2783
58584SOL    HW282614   9.244   0.889   6.664 -2.6468  0.3003  0.9020
58585SOL     OW82615   0.465   6.766   4.107 -0.1979  0.1621 -0.3523
58585SOL    HW182616   0.490   6.858   4.094  0.0462  0.2789  0.8441
58585SOL    HW282617   0.536   6.716   4.067  0.0028  0.4964 -0.4166
58586SOL     OW82618  10.434   1.596   2.815 -0.4401  0.0981 -0.2127
58586SOL    HW182619  10.393   1.676   2.850 -2.1842  0.2723 -2.4181
58586SOL    HW282620  10.404   1.592   2.724  2.5653 -1.1544 -1.2608
58587SOL     OW82621   9.770   2.942  10.781  0.2053  0.2970  0.4764
58587SOL    HW182622   9.692   2.949  10.727  2.0052  1.7371 -2.1645
58587SOL    HW282623   9.830   2.887  10.731  1.5485  0.6917  1.5731
58588SOL     OW82624  12.451   9.734   0.280 -0.1931  0.1728  0.3701
58588SOL    HW182625  12.452   9.827   0.300 -0.2551 -0.2497  2.6969
58588SOL    HW282626  12.541   9.714   0.255 -0.3260  0.9474 -0.7966
58589SOL     OW82627   5.291   2.590  11.838  0.1626  1.0442 -0.5735
58589SOL    HW182628   5.293   2.686  11.840  0.0675  1.0662 -1.2233
58589SOL    HW282629   5.383   2.564  11.833  0.1551  1.1274 -1.1692
58590SOL     OW82630   8.637   3.480   7.763  0.0221  0.0779  0.0643
58590SOL    HW182631   8.653   3.416   7.695 -0.2302  1.4001 -1.2873
58590SOL    HW282632   8.725   3.507   7.792  0.1334 -1.0421  0.8614
58591SOL     OW82633   5.808   0.975   8.415  0.5636  0.2187 -0.3513
58591SOL    HW182634   5.818   0.959   8.321 -1.5235 -0.4104 -0.5166
58591SOL    HW282635   5.756   0.901   8.447  1.3199  0.3639  1.3412
58592SOL     OW82636  10.306   5.319  12.244 -0.1557  0.0314 -0.4350
58592SOL    HW182637  10.327   5.327  12.151  1.0081 -1.0035 -0.2906
58592SOL    HW282638  10.332   5.403  12.281  2.3061 -0.5725 -0.5697
58593SOL     OW82639   1.023   3.328   3.282 -0.0285  0.2647 -0.3733
58593SOL    HW182640   1.067   3.381   3.349  0.4284 -0.6194  0.0391
58593SOL    HW282641   1.038   3.237   3.309  1.3024 -0.1747 -2.3760
58594SOL     OW82642   6.404   7.390   3.837 -0.0381 -0.8215 -0.1626
58594SOL    HW182643   6.342   7.457   3.866  0.2411 -0.6269 -0.0033
58594SOL    HW282644   6.449   7.362   3.917  0.5695 -0.4503 -0.3595
58595SOL     OW82645   9.153   7.370   0.221  0.0444 -0.4654  0.3676
58595SOL    HW182646   9.178   7.452   0.265 -1.2515  1.2796 -1.9316
58595SOL    HW282647   9.059   7.363   0.235  0.3038 -2.2910  1.5521
58596SOL     OW82648   8.123   7.729   1.656  0.3104  0.7024  0.4853
58596SOL    HW182649   8.155   7.657   1.601  1.0468  1.0406  0.4641
58596SOL    HW282650   8.108   7.801   1.596  0.5328  0.8817  0.6448
58597SOL     OW82651  11.648   0.805   3.965 -0.0143  0.3777 -0.1559
58597SOL    HW182652  11.626   0.839   4.052  0.7651  0.9642 -0.1812
58597SOL    HW282653  11.659   0.883   3.911 -1.1942  0.0038 -0.9752
58598SOL     OW82654   1.643   2.458   0.689 -0.1507 -0.2924  0.5064
58598SOL    HW182655   1.581   2.388   0.669  0.2183 -0.4477 -0.1280
58598SOL    HW282656   1.694   2.424   0.763  0.0908 -0.7362  0.1401
58599SOL     OW82657   1.857  11.699   6.445  0.2721  0.0355  0.3553
58599SOL    HW182658   1.883  11.741   6.527 -0.4777  1.2275  0.0099
58599SOL    HW282659   1.762  11.690   6.452  0.4289 -2.0254  0.5768
58600SOL     OW82660  10.545   7.894   8.542 -0.8211 -0.0341 -0.3420
58600SOL    HW182661  10.467   7.867   8.493 -0.1234 -0.4405 -1.2760
58600SOL    HW282662  10.618   7.860   8.490 -0.0546 -1.1234  1.3602
58601SOL     OW82663   5.605   8.216   0.096 -0.3594 -0.4888 -0.4577
58601SOL    HW182664   5.649   8.296   0.067 -0.2103 -0.5036 -0.2692
58601SOL    HW282665   5.517   8.246   0.122 -0.0768 -0.2787  0.2588
58602SOL     OW82666   7.294   2.432   2.914  0.2273  0.4073 -0.2357
58602SOL    HW182667   7.329   2.497   2.975  1.3246  0.7205 -1.1596
58602SOL    HW282668   7.265   2.359   2.970  0.2705  1.1023  0.7129
58603SOL     OW82669   4.742  11.907   1.773 -0.4759  0.4732 -0.3480
58603SOL    HW182670   4.662  11.859   1.795  0.3709 -0.4692  0.8231
58603SOL    HW282671   4.778  11.860   1.698 -1.9978  2.1082 -2.2321
58604SOL     OW82672   4.901  12.222   0.872  0.2840 -0.2116  0.5342
58604SOL    HW182673   4.982  12.172   0.863 -0.3166 -1.0753 -0.1843
58604SOL    HW282674   4.832  12.164   0.840 -0.5818  0.6424  0.7807
58605SOL     OW82675  11.953   6.976   3.898  0.0499  0.4325  0.5111
58605SOL    HW182676  11.996   6.956   3.815 -2.1751 -0.3824 -0.5203
58605SOL    HW282677  12.021   6.962   3.964  1.0418 -2.1084 -0.9047
58606SOL     OW82678   8.470   2.161   8.118  0.3258 -0.2487  0.3109
58606SOL    HW182679   8.438   2.248   8.093  1.1476 -0.1546 -0.4309
58606SOL    HW282680   8.423   2.101   8.061  0.4708 -0.2188  0.1608
58607SOL     OW82681   7.864   3.508  12.283 -0.5823  0.5781  0.6180
58607SOL    HW182682   7.867   3.476  12.193 -2.1976  0.8553  0.4414
58607SOL    HW282683   7.869   3.429  12.337 -1.9749  0.1980  0.2245
58608SOL     OW82684   7.909  10.863   3.858  0.3741 -0.0356  0.1677
58608SOL    HW182685   7.875  10.811   3.785  1.0097  1.0090 -0.8886
58608SOL    HW282686   7.994  10.824   3.877  1.7110  1.6690 -1.8569
58609SOL     OW82687   7.996   7.207   9.338  0.4654  0.1889  0.0091
58609SOL    HW182688   7.905   7.222   9.364  0.3965  1.6025 -0.9448
58609SOL    HW282689   7.991   7.178   9.247  0.9754  0.5740 -0.1503
58610SOL     OW82690   5.907   3.002   1.702 -0.3587  0.2854 -0.0694
58610SOL    HW182691   5.876   3.061   1.771  0.9176  0.3510  0.4898
58610SOL    HW282692   5.834   2.996   1.641 -1.6033  0.0894  1.3759
58611SOL     OW82693   6.253   8.193   1.440  0.4773 -0.2541 -0.3548
58611SOL    HW182694   6.256   8.221   1.531 -0.4229  1.4607 -0.8076
58611SOL    HW282695   6.333   8.141   1.428  0.1861 -1.2338  1.6011
58612SOL     OW82696   1.366   3.371   4.666 -0.2313  0.1037  1.1696
58612SOL    HW182697   1.270   3.363   4.665 -0.2859  0.7532  0.7894
58612SOL    HW282698   1.393   3.322   4.744 -0.9413  0.6595  1.7806
58613SOL     OW82699   7.875   0.182   6.243 -0.4457  0.3410 -0.2356
58613SOL    HW182700   7.891   0.262   6.194 -1.0314  0.9638  0.5588
58613SOL    HW282701   7.898   0.205   6.334 -1.3198 -0.1575  0.1269
58614SOL     OW82702   0.237   6.054   5.432  0.0704 -0.0390  0.2237
58614SOL    HW182703   0.262   6.136   5.475  1.5134 -0.7430  0.7949
58614SOL    HW282704   0.299   6.044   5.360  2.5671 -2.4849  2.4690
58615SOL     OW82705   4.496   7.254  12.353 -0.1876  0.4386 -0.3826
58615SOL    HW182706   4.527   7.234  12.265  0.2863  2.3520 -0.6905
58615SOL    HW282707   4.574   7.281  12.401 -0.7503  1.4247  0.0066
58616SOL     OW82708   3.265   4.320   7.874 -0.1445  0.1854 -0.6178
58616SOL    HW182709   3.181   4.361   7.854 -0.6377 -0.5589 -0.1439
58616SOL    HW282710   3.327   4.358   7.811 -0.7020  1.1853 -0.5784
58617SOL     OW82711   8.225   1.442   4.314  0.2298 -0.1510 -0.1678
58617SOL    HW182712   8.269   1.358   4.318  3.0764  1.2540  0.5770
58617SOL    HW282713   8.252   1.487   4.394 -1.3840  1.4171 -0.4275
58618SOL     OW82714   2.058   6.204   9.472  0.1605  0.4800  0.3287
58618SOL    HW182715   2.016   6.238   9.393  1.5529  2.2087  0.2652
58618SOL    HW282716   2.009   6.124   9.493 -1.7498  1.2681 -0.8970
58619SOL     OW82717   9.827   4.454   6.403  0.6573  0.2615  0.4689
58619SOL    HW182718   9.850   4.461   6.495 -0.1744 -2.5007  0.9817
58619SOL    HW282719   9.894   4.397   6.365  0.4199  0.5471 -0.4053
58620SOL     OW82720   6.365   7.476   2.612 -0.2522  0.7336 -0.0782
58620SOL    HW182721   6.289   7.485   2.555 -0.1509 -2.8550 -1.0487
58620SOL    HW282722   6.338   7.413   2.679  1.6860 -0.4835 -0.3435
58621SOL     OW82723   9.057   0.449  12.370  0.2654  0.0465 -0.0223
58621SOL    HW182724   9.091   0.528  12.411  0.3723 -0.3845  0.7425
58621SOL    HW282725   9.013   0.480  12.290 -0.1805  0.9263  0.5516
58622SOL     OW82726   8.648  10.402   8.241 -0.4750  0.1881 -1.1406
58622SOL    HW182727   8.573  10.343   8.228 -0.9926  0.8986 -1.3945
58622SOL    HW282728   8.691  10.368   8.320 -0.7642 -0.5302 -1.2807
58623SOL     OW82729   8.090   5.458   5.643  0.3035  0.3622 -0.2444
58623SOL    HW182730   8.047   5.538   5.674 -1.1707 -0.3813 -0.2545
58623SOL    HW282731   8.044   5.436   5.562 -1.0382 -1.7694  0.9699
58624SOL     OW82732   7.924   2.741   9.944 -0.5890  0.0313 -0.0539
58624SOL    HW182733   8.000   2.799   9.947  0.3115 -1.1401  1.2318
58624SOL    HW282734   7.865   2.776  10.011  0.3713 -1.0062  1.4058
58625SOL     OW82735   4.590   3.565   0.422 -0.3237 -0.4752 -0.0522
58625SOL    HW182736   4.617   3.649   0.386 -1.3267 -0.3242 -0.4857
58625SOL    HW282737   4.503   3.549   0.384 -0.6701 -1.1289  0.9631
58626SOL     OW82738   1.744   7.272   2.474  0.3096 -0.0523 -0.3045
58626SOL    HW182739   1.745   7.245   2.382  1.8805  1.2120 -0.7059
58626SOL    HW282740   1.685   7.347   2.476  1.7463  1.1444 -0.7184
58627SOL     OW82741   8.570   2.551   6.683 -0.0694 -0.2719  0.0038
58627SOL    HW182742   8.569   2.641   6.716  0.7791 -0.4292  0.4885
58627SOL    HW282743   8.662   2.526   6.686  0.0512 -0.3711 -2.3033
58628SOL     OW82744   6.136   0.009   4.806  0.0968  0.0735 -0.2107
58628SOL    HW182745   6.179   0.087   4.770  0.5090  0.9043  1.9354
58628SOL    HW282746   6.061   0.044   4.855 -1.0960 -1.1011 -1.1057
58629SOL     OW82747   3.873  10.283   5.091 -0.5551 -0.6638  0.1808
58629SOL    HW182748   3.895  10.190   5.082 -1.0549 -0.7502 -0.2051
58629SOL    HW282749   3.787  10.291   5.050 -0.1225  0.1386 -0.6004
58630SOL     OW82750   1.160  12.370   2.180  0.5685 -0.6122 -0.0321
58630SOL    HW182751   1.178  12.282   2.213  0.5761 -0.6795 -0.2130
58630SOL    HW282752   1.177  12.363   2.086  0.6817 -0.3869 -0.0272
58631SOL     OW82753  10.395   2.433   1.032 -0.8271  0.6418  0.0198
58631SOL    HW182754  10.385   2.525   1.008  0.0049  0.8372  0.3702
58631SOL    HW282755  10.405   2.435   1.127 -2.1079  0.0615  0.1859
58632SOL     OW82756   0.164  10.210  10.735  0.0682 -0.1171 -0.1186
58632SOL    HW182757   0.182  10.291  10.782  1.5344  0.5322 -1.7085
58632SOL    HW282758   0.196  10.141  10.792  0.8682  0.5800  0.2850
58633SOL     OW82759  10.419   3.662   8.322 -0.0650 -0.2286 -0.0203
58633SOL    HW182760  10.395   3.735   8.379  1.7526  1.8643 -1.7419
58633SOL    HW282761  10.378   3.682   8.238  1.3081 -0.6109 -0.8173
58634SOL     OW82762   1.694   0.635   9.392  0.2719 -0.0395  0.2323
58634SOL    HW182763   1.761   0.576   9.426 -1.4686 -1.1069  1.9863
58634SOL    HW282764   1.627   0.577   9.356  0.4688  1.0209 -2.0178
58635SOL     OW82765   7.790   8.998   9.657 -0.0156  0.5151 -0.1646
58635SOL    HW182766   7.721   8.941   9.690 -1.6520  1.8790 -1.1085
58635SOL    HW282767   7.787   8.987   9.562 -2.4497  4.2491 -0.7273
58636SOL     OW82768   3.087   1.961   9.290  0.1794 -0.3900  0.1455
58636SOL    HW182769   3.164   1.905   9.283  0.1623 -0.2137 -2.2464
58636SOL    HW282770   3.013   1.901   9.281 -0.0381 -0.5583  2.4231
58637SOL     OW82771   3.723   5.033   9.139  0.1694 -0.1189 -0.0088
58637SOL    HW182772   3.812   5.006   9.116  0.0253 -0.0407 -0.6830
58637SOL    HW282773   3.681   5.051   9.055 -0.8445 -1.2697  0.2235
58638SOL     OW82774  10.214   4.625   0.277  0.6400 -0.4300 -0.5263
58638SOL    HW182775  10.122   4.601   0.261  0.2827  0.0484  0.6292
58638SOL    HW282776  10.260   4.542   0.283  0.1012 -0.7144 -0.2151
58639SOL     OW82777   4.146   6.190  10.749 -0.1030 -0.0955 -0.0366
58639SOL    HW182778   4.183   6.276  10.732  1.0607 -0.5996 -0.1433
58639SOL    HW282779   4.093   6.202  10.828  1.8979  0.2430  1.3414
58640SOL     OW82780  11.361   7.327  10.863 -0.8464  0.1486  0.0540
58640SOL    HW182781  11.408   7.372  10.792  0.4267 -0.8539  0.2347
58640SOL    HW282782  11.337   7.396  10.924 -1.0958  0.8977 -0.8714
58641SOL     OW82783  10.559   1.530  10.775 -0.3032 -0.0138  0.1895
58641SOL    HW182784  10.602   1.544  10.691  0.3753  0.5220  0.6151
58641SOL    HW282785  10.489   1.596  10.778  0.5813  0.9230  0.6435
58642SOL     OW82786   4.709   1.205   5.728  0.0785 -1.1459  0.2144
58642SOL    HW182787   4.708   1.216   5.633  1.6397 -2.0492  0.0663
58642SOL    HW282788   4.670   1.119   5.742  1.9837 -2.0682  0.1721
58643SOL     OW82789   1.546   7.635  11.588 -0.1864 -0.4191 -0.2566
58643SOL    HW182790   1.541   7.651  11.493  1.2834 -1.6678 -0.5938
58643SOL    HW282791   1.572   7.543  11.594 -0.0982 -0.3030  1.3718
58644SOL     OW82792   5.704  12.292   8.553 -0.7128 -0.3497 -0.3024
58644SOL    HW182793   5.624  12.310   8.504 -0.0954  3.2136 -0.2406
58644SOL    HW282794   5.773  12.339   8.507  0.4236  0.7183  2.2580
58645SOL     OW82795   4.514   0.745   4.685 -0.4882 -0.1631  0.5600
58645SOL    HW182796   4.443   0.682   4.695  0.7028 -2.0454 -1.7783
58645SOL    HW282797   4.473   0.821   4.644 -1.4923 -0.3824  1.1205
58646SOL     OW82798   4.924   8.078   5.757  0.2158  0.1297  0.1629
58646SOL    HW182799   4.938   8.106   5.666  0.4189 -0.4262  0.0191
58646SOL    HW282800   4.830   8.089   5.771  0.0847 -0.3448 -0.3122
58647SOL     OW82801   8.841   2.768   3.357  0.1444  0.2901  0.5618
58647SOL    HW182802   8.888   2.813   3.427 -0.5635 -1.1225  1.9848
58647SOL    HW282803   8.909   2.715   3.314  0.2618 -0.1305  1.2580
58648SOL     OW82804   8.821   6.496   3.666  0.0089  0.0053 -0.0398
58648SOL    HW182805   8.835   6.529   3.755 -1.0175  3.1439 -0.9186
58648SOL    HW282806   8.899   6.524   3.618 -0.7001  0.8766 -0.7177
58649SOL     OW82807   2.893   3.376   5.912  0.0160 -0.8568 -0.2892
58649SOL    HW182808   2.837   3.428   5.971 -0.6865 -2.2703  0.3436
58649SOL    HW282809   2.831   3.331   5.855  0.6606 -0.2088 -1.5399
58650SOL     OW82810   7.606   0.327   7.997 -0.0061 -0.3359  0.2455
58650SOL    HW182811   7.644   0.415   8.007 -0.9518  0.0644  0.3927
58650SOL    HW282812   7.667   0.270   8.044  0.2689  0.3358  0.7288
58651SOL     OW82813   6.504   1.851   6.330  0.3326 -1.1056  0.4599
58651SOL    HW182814   6.486   1.944   6.342  0.0108 -1.2797  1.3825
58651SOL    HW282815   6.420   1.813   6.307  0.2853 -1.3122  0.9764
58652SOL     OW82816  11.039  11.967   3.829 -0.1611 -0.0288 -0.0987
58652SOL    HW182817  10.977  11.949   3.899  0.1897 -0.5858  0.0700
58652SOL    HW282818  10.985  11.998   3.757 -0.6049 -0.2193  0.1484
58653SOL     OW82819   6.302   3.228   3.324 -0.1785  0.5408  0.1517
58653SOL    HW182820   6.377   3.256   3.376 -0.1961  2.0072 -0.5426
58653SOL    HW282821   6.238   3.299   3.335  0.2341  1.4959 -2.6768
58654SOL     OW82822   9.569   2.798   2.970  0.4701 -0.2765 -0.5607
58654SOL    HW182823   9.603   2.711   2.993 -0.1584 -0.6769 -1.1196
58654SOL    HW282824   9.593   2.853   3.045 -1.6369 -1.5675  1.1793
58655SOL     OW82825   9.790   1.670   8.108 -0.2915 -0.0469 -0.6732
58655SOL    HW182826   9.792   1.753   8.155 -0.9021 -0.1604 -0.4274
58655SOL    HW282827   9.731   1.686   8.034  0.9950  0.2561 -1.6596
58656SOL     OW82828   9.699   7.482   9.026  0.4909  0.0123  0.4851
58656SOL    HW182829   9.773   7.510   8.972  0.0974  0.7083  0.2951
58656SOL    HW282830   9.739   7.454   9.108  1.0606 -0.6877 -0.0151
58657SOL     OW82831   1.443   5.645   5.119 -0.2889 -0.1690 -0.8677
58657SOL    HW182832   1.352   5.644   5.150 -0.7032 -0.7644 -2.0721
58657SOL    HW282833   1.440   5.692   5.036  0.9431  2.1566  0.2812
58658SOL     OW82834  11.231   6.176   7.107 -0.2478  0.1820 -0.9866
58658SOL    HW182835  11.251   6.220   7.024  1.1029 -1.1633 -1.4183
58658SOL    HW282836  11.183   6.097   7.082  0.7899 -0.6011 -0.5761
58659SOL     OW82837   8.021  11.658   1.034 -0.7177 -0.1134  0.2577
58659SOL    HW182838   7.957  11.589   1.017  0.2364 -1.2477  1.1304
58659SOL    HW282839   7.984  11.708   1.106 -1.9552  1.0503 -1.1144
58660SOL     OW82840   1.498   8.679   2.469 -0.5711  0.2824 -0.5300
58660SOL    HW182841   1.556   8.635   2.531 -1.1298  1.9033  1.2526
58660SOL    HW282842   1.528   8.650   2.383  1.4299 -0.6359  0.4115
58661SOL     OW82843   1.163   2.817   0.864  0.3552  0.4665  0.1959
58661SOL    HW182844   1.209   2.762   0.801 -1.4981  1.1356 -1.8829
58661SOL    HW282845   1.092   2.762   0.897 -0.3542  0.9791 -0.4450
58662SOL     OW82846   0.858  11.937   0.764 -0.7236 -0.4887  0.5383
58662SOL    HW182847   0.906  11.916   0.844  0.5182  0.8916  0.1927
58662SOL    HW282848   0.921  11.983   0.709 -1.6735 -1.0414 -1.0842
58663SOL     OW82849   2.852   7.008   7.455 -0.2885 -0.0315 -0.0896
58663SOL    HW182850   2.877   7.096   7.426  1.2799 -0.7863 -1.1967
58663SOL    HW282851   2.781   6.983   7.397 -0.9863  0.6118  0.4605
58664SOL     OW82852   5.236   7.692   6.740 -0.0203  0.6015  0.0910
58664SOL    HW182853   5.207   7.756   6.804 -1.1846  0.0864  0.1060
58664SOL    HW282854   5.215   7.731   6.655  1.7413  1.3900 -0.0266
58665SOL     OW82855  12.478   6.878   6.938 -0.5921 -0.1880  0.2738
58665SOL    HW182856  12.527   6.828   6.873 -3.5189 -0.0187 -2.2787
58665SOL    HW282857  12.520   6.964   6.938  0.7215 -0.8017  0.1969
58666SOL     OW82858   8.308   4.463  10.721 -0.0336 -0.2179  0.8448
58666SOL    HW182859   8.304   4.488  10.813  0.2287  0.1915  0.7459
58666SOL    HW282860   8.361   4.531  10.680 -2.0038  0.8969 -0.0309
58667SOL     OW82861  11.774   1.334  10.323 -0.1978  0.2186  0.0073
58667SOL    HW182862  11.788   1.270  10.392  2.9876 -0.8184 -1.4064
58667SOL    HW282863  11.838   1.402  10.340 -0.4883  0.7680 -1.0145
58668SOL     OW82864   3.487   2.825  11.994  0.2561 -0.2804 -0.2232
58668SOL    HW182865   3.498   2.753  11.932  2.0832  0.1587 -0.4602
58668SOL    HW282866   3.405   2.805  12.039 -0.4529 -1.2954 -1.8569
58669SOL     OW82867   9.038   7.305  12.415  0.2544 -0.4830 -0.3819
58669SOL    HW182868   9.027   7.296  12.320  1.2069 -2.0029 -0.3788
58669SOL    HW282869   8.952   7.285  12.451 -0.0389 -0.1880 -0.9026
58670SOL     OW82870  12.089   9.450   4.964  0.2638  0.1586  0.1778
58670SOL    HW182871  12.074   9.446   4.869  1.6131  0.6094 -0.0826
58670SOL    HW282872  12.091   9.359   4.992  0.9510 -0.0286 -0.4316
58671SOL     OW82873  10.470  12.101   2.435  0.0019  0.9919  0.8263
58671SOL    HW182874  10.494  12.094   2.527 -1.1238 -0.5256  1.0499
58671SOL    HW282875  10.398  12.164   2.434  0.8873  2.0373  0.7691
58672SOL     OW82876   4.794   1.117  10.920  0.5224 -0.0164  0.3623
58672SOL    HW182877   4.788   1.054  10.849 -1.6686 -0.4196  0.8283
58672SOL    HW282878   4.888   1.138  10.926  0.8337 -0.2864 -2.3081
58673SOL     OW82879   6.232   0.026   3.014  0.8038 -0.2220  0.6959
58673SOL    HW182880   6.182  -0.033   2.958  0.4238  1.0404 -0.3442
58673SOL    HW282881   6.287  -0.031   3.067  0.2883 -1.5001 -0.1218
58674SOL     OW82882   9.014   8.878   7.328 -0.1392  0.3039 -0.0316
58674SOL    HW182883   9.041   8.852   7.240  1.6217  1.5040  0.1042
58674SOL    HW282884   9.040   8.806   7.384 -1.8227 -0.7416 -0.5262
58675SOL     OW82885   7.058   9.730  12.105  0.3787  0.1559  0.6427
58675SOL    HW182886   7.079   9.639  12.086  1.5446  0.7882 -1.4346
58675SOL    HW282887   6.964   9.738  12.086  0.0644 -0.7558  1.6780
58676SOL     OW82888   1.270  11.959  10.814  0.3070 -0.7676 -0.3229
58676SOL    HW182889   1.199  11.993  10.760  1.5055  1.8101 -0.4684
58676SOL    HW282890   1.228  11.929  10.894 -1.2656 -2.6302 -1.7522
58677SOL     OW82891   5.411   4.290   9.970  0.0924 -0.1955  0.1280
58677SOL    HW182892   5.323   4.283   9.935  0.0479  0.9753 -0.0191
58677SOL    HW282893   5.403   4.262  10.062  0.0224 -2.2748 -0.4517
58678SOL     OW82894   0.726   9.767   6.227  0.2687 -0.1364  0.2155
58678SOL    HW182895   0.745   9.697   6.290  0.4485 -1.1187 -0.8831
58678SOL    HW282896   0.699   9.720   6.148 -1.2670  1.0910 -0.0287
58679SOL     OW82897   4.824   7.141   7.888 -0.1004 -0.0992  0.1819
58679SOL    HW182898   4.853   7.052   7.868 -0.9943 -0.7048  1.4612
58679SOL    HW282899   4.903   7.194   7.879  0.8171 -1.2842  0.9965
58680SOL     OW82900   0.098   9.780   2.309  0.2739 -0.5375 -0.2601
58680SOL    HW182901   0.098   9.693   2.269 -1.0436 -1.2160  1.1227
58680SOL    HW282902   0.067   9.838   2.240 -1.2569 -1.5668 -0.4890
58681SOL     OW82903   9.950   9.757  11.605  0.1775 -0.4193  0.0168
58681SOL    HW182904   9.873   9.770  11.549  0.2632 -0.6526 -0.1636
58681SOL    HW282905   9.931   9.676  11.653  0.0804 -0.1873  0.3657
58682SOL     OW82906  11.306  11.927   2.656 -0.7266  0.2626  0.1455
58682SOL    HW182907  11.368  11.970   2.715 -0.1915 -1.2553  0.7404
58682SOL    HW282908  11.361  11.887   2.589 -1.0580 -1.0107  0.6164
58683SOL     OW82909   5.788   4.561  11.404 -0.4494 -0.1736  0.2781
58683SOL    HW182910   5.785   4.654  11.425 -1.8598 -0.5072  1.7365
58683SOL    HW282911   5.854   4.525  11.463 -0.7889 -0.2925  0.5874
58684SOL     OW82912   5.184   4.583   1.998 -0.0583  0.4000  0.0978
58684SOL    HW182913   5.232   4.518   2.051  0.7402  1.0655  0.2025
58684SOL    HW282914   5.145   4.532   1.928  0.4555 -0.2213  0.2530
58685SOL     OW82915   7.381   6.128   2.596  0.1851 -0.1746  0.0061
58685SOL    HW182916   7.312   6.063   2.584 -0.3780  0.4732 -0.2839
58685SOL    HW282917   7.360   6.171   2.679  0.6056 -0.4159  0.2416
58686SOL     OW82918   9.554   9.126   3.456 -0.4355  0.2834 -0.5245
58686SOL    HW182919   9.590   9.121   3.367 -0.8303  1.9412 -0.8195
58686SOL    HW282920   9.507   9.044   3.468  0.9977 -0.6767 -1.2168
58687SOL     OW82921   5.731  10.819   1.487  0.2996 -0.5340  0.0961
58687SOL    HW182922   5.641  10.844   1.508  0.9363  3.3671 -0.9087
58687SOL    HW282923   5.726  10.727   1.464 -3.1572 -0.8250  1.4225
58688SOL     OW82924  10.716   0.300   8.752  0.3525 -0.1653  0.3211
58688SOL    HW182925  10.682   0.389   8.759 -0.8554 -0.4964 -0.9661
58688SOL    HW282926  10.738   0.276   8.842 -1.9656  0.4285  1.1168
58689SOL     OW82927   3.508   4.957   1.938 -0.2030  0.3652 -0.1859
58689SOL    HW182928   3.436   4.994   1.990 -0.7010  1.4475 -1.5768
58689SOL    HW282929   3.467   4.885   1.890  0.6535 -1.8540  2.1427
58690SOL     OW82930  12.303  12.332   3.590 -0.2309 -0.1081  0.2643
58690SOL    HW182931  12.328  12.392   3.520 -1.7143 -0.4814 -0.6310
58690SOL    HW282932  12.352  12.252   3.571 -0.8003 -0.2842 -0.4974
58691SOL     OW82933   7.337   3.510   2.897  0.2526  0.2500  0.2124
58691SOL    HW182934   7.291   3.465   2.968  0.5437 -1.1083 -0.4305
58691SOL    HW282935   7.394   3.444   2.859  1.3954  1.4233 -0.1867
58692SOL     OW82936   9.465  12.465   1.424 -0.2883 -0.2419 -0.2595
58692SOL    HW182937   9.465  12.535   1.489 -3.2222  0.6295 -1.0360
58692SOL    HW282938   9.372  12.443   1.412  0.1421 -0.7783 -3.6558
58693SOL     OW82939   5.146   8.990  11.327 -0.1444  0.1287 -0.0606
58693SOL    HW182940   5.197   9.064  11.296  0.0607  0.1224  0.2691
58693SOL    HW282941   5.122   9.012  11.417 -1.9201  0.7755 -0.6461
58694SOL     OW82942  12.128  11.268   9.539 -0.6640 -0.6817 -0.3861
58694SOL    HW182943  12.175  11.351   9.527 -2.6888  0.5296 -0.5359
58694SOL    HW282944  12.094  11.248   9.452  0.4242 -2.1164 -0.5113
58695SOL     OW82945   9.706  11.336   3.701 -0.4429 -0.5632 -0.0997
58695SOL    HW182946   9.640  11.383   3.752  1.6663 -0.7534  3.1152
58695SOL    HW282947   9.761  11.405   3.663  0.0233 -0.3440  0.9134
58696SOL     OW82948   7.654   9.525   2.917  0.2047  0.1079 -0.1168
58696SOL    HW182949   7.568   9.552   2.950 -0.4942 -1.6879 -0.3791
58696SOL    HW282950   7.660   9.432   2.936  1.5753 -0.0782 -1.2421
58697SOL     OW82951  10.050  10.002   1.224 -0.1751  0.1533 -0.0973
58697SOL    HW182952   9.971   9.973   1.178  0.4104 -1.0335 -0.3888
58697SOL    HW282953  10.030   9.986   1.316 -0.2316 -0.2654 -0.1793
58698SOL     OW82954   5.722   8.683   6.432  0.5671 -0.1846  0.3242
58698SOL    HW182955   5.780   8.731   6.373  0.1686  0.2586  0.2846
58698SOL    HW282956   5.669   8.751   6.473  1.6282 -0.3542  2.0862
58699SOL     OW82957   3.000   5.701   1.997  0.4508 -0.2356  0.5162
58699SOL    HW182958   2.960   5.646   2.065  0.3883  0.4956  1.0913
58699SOL    HW282959   2.926   5.745   1.955  0.5167 -0.4071  0.2153
58700SOL     OW82960   2.397   3.414   0.495 -0.6047 -0.0547  0.1962
58700SOL    HW182961   2.480   3.435   0.454 -0.7845 -1.2499 -0.8302
58700SOL    HW282962   2.420   3.380   0.581  0.2092 -2.9388 -1.0636
58701SOL     OW82963   7.711   8.417  11.069  0.3739 -0.4462  0.2045
58701SOL    HW182964   7.767   8.467  11.009  1.7996 -1.7550  0.3687
58701SOL    HW282965   7.729   8.454  11.155 -1.4184  1.2074 -0.0636
58702SOL     OW82966   1.123  10.202   6.747 -0.0096 -0.3334 -0.0073
58702SOL    HW182967   1.037  10.172   6.775  0.0987 -0.8352 -0.2000
58702SOL    HW282968   1.155  10.255   6.820  0.0590 -1.2058  0.6192
58703SOL     OW82969   1.960   6.604   1.072 -0.5074  0.0850 -0.9312
58703SOL    HW182970   1.895   6.552   1.120  1.4732 -1.1083  0.6841
58703SOL    HW282971   1.914   6.635   0.994 -2.9228 -0.8036  0.0352
58704SOL     OW82972   6.971   3.200   3.287 -0.1736  0.0580 -0.0694
58704SOL    HW182973   6.984   3.113   3.326  1.2320  0.3850  0.2436
58704SOL    HW282974   7.043   3.253   3.322 -0.0337  0.8981 -1.5612
58705SOL     OW82975   5.584   5.171   7.850  0.1359 -0.4169  0.7382
58705SOL    HW182976   5.677   5.179   7.829  0.0615 -0.5407  0.3718
58705SOL    HW282977   5.539   5.179   7.767 -0.0902 -1.9911  0.6901
58706SOL     OW82978   9.786  11.471   1.267  0.0576 -0.3104  0.6603
58706SOL    HW182979   9.783  11.482   1.172  2.5647  0.3276  0.5800
58706SOL    HW282980   9.807  11.378   1.279 -2.9467 -1.0913  0.7686
58707SOL     OW82981   7.654   3.106  10.213  0.3678 -0.3151  0.4295
58707SOL    HW182982   7.726   3.149  10.259 -0.6020 -0.0670  1.7695
58707SOL    HW282983   7.659   3.139  10.123  1.1427  0.6864  0.8274
58708SOL     OW82984   2.957   4.229   3.724 -0.0160  0.2430 -0.3097
58708SOL    HW182985   2.944   4.134   3.734  1.2065  0.0680 -0.2645
58708SOL    HW282986   2.888   4.256   3.664  1.0881 -1.1012 -2.2925
58709SOL     OW82987   3.398   9.395   5.129 -0.9016  0.6222 -0.2701
58709SOL    HW182988   3.344   9.355   5.197  1.5396  0.3194  1.5957
58709SOL    HW282989   3.437   9.321   5.083 -0.7546  0.8486 -0.5128
58710SOL     OW82990   7.615   2.652  11.334 -0.0063  0.3277 -1.0256
58710SOL    HW182991   7.588   2.560  11.339 -0.6598  0.5744  0.9512
58710SOL    HW282992   7.631   2.667  11.241  1.9454 -2.2798 -1.2257
58711SOL     OW82993   5.094   8.801   9.925  0.6165  0.2291  0.1221
58711SOL    HW182994   5.064   8.779  10.013 -0.8721  0.7384 -0.2256
58711SOL    HW282995   5.128   8.890   9.932 -0.2845  0.5902  0.0301
58712SOL     OW82996  10.467  11.947   7.854 -0.3073 -0.2526 -0.3272
58712SOL    HW182997  10.512  11.938   7.770 -0.3852 -1.5587 -0.2569
58712SOL    HW282998  10.504  12.026   7.893  0.6435 -0.3243 -1.0500
58713SOL     OW82999   0.159  11.342   9.866  0.2134  0.4289 -0.5151
58713SOL    HW183000   0.227  11.387   9.916  0.7574  0.1971 -1.0432
58713SOL    HW283001   0.105  11.412   9.830  1.5525  0.7304 -2.0411
58714SOL     OW83002   1.703   3.331   8.496 -0.0927 -0.6791 -0.2227
58714SOL    HW183003   1.795   3.332   8.469  0.1449 -0.7663  0.5578
58714SOL    HW283004   1.704   3.290   8.583 -0.5030  1.9964  1.1445
58715SOL     OW83005   7.491  11.303   0.164 -0.1464  0.6946  0.0270
58715SOL    HW183006   7.508  11.243   0.237 -2.9679  1.0755  1.1313
58715SOL    HW283007   7.560  11.284   0.100  2.0451 -0.1279  2.4641
58716SOL     OW83008   2.897   6.408   2.410 -0.3242  0.3443 -0.2679
58716SOL    HW183009   2.967   6.354   2.448 -0.0404 -0.9001 -2.4095
58716SOL    HW283010   2.823   6.397   2.470  0.5378 -0.3151  0.7147
58717SOL     OW83011   9.790  11.237  12.133  0.1923  0.0771  0.4276
58717SOL    HW183012   9.780  11.157  12.184 -1.6915  0.1381  0.2306
58717SOL    HW283013   9.710  11.286  12.150  1.7042  2.4118  1.3279
58718SOL     OW83014   6.900   0.723   7.406  0.4662 -0.0152 -0.3699
58718SOL    HW183015   6.993   0.700   7.403  0.0975 -1.4570 -1.8574
58718SOL    HW283016   6.859   0.664   7.344 -1.0690  2.5052 -1.8914
58719SOL     OW83017   9.327   6.493   0.957 -0.5184 -0.3719 -0.2307
58719SOL    HW183018   9.300   6.455   1.041  0.8872 -1.0056 -0.0294
58719SOL    HW283019   9.274   6.571   0.948 -0.6538 -0.2512  1.3022
58720SOL     OW83020   8.928   1.519   9.082  0.1146  0.3508 -0.1012
58720SOL    HW183021   8.849   1.478   9.047  0.6819  0.4855 -1.6184
58720SOL    HW283022   8.896   1.587   9.142 -0.9048  0.0416 -0.2870
58721SOL     OW83023   6.806   2.610  11.922 -0.7013 -0.2050 -0.2943
58721SOL    HW183024   6.856   2.561  11.987 -0.9168 -0.6136 -0.4298
58721SOL    HW283025   6.718   2.614  11.959 -0.6463  0.2169 -0.2113
58722SOL     OW83026   6.584   7.942   8.573  0.1236  0.0442 -0.3919
58722SOL    HW183027   6.515   7.893   8.527 -1.3561  1.9875 -0.3820
58722SOL    HW283028   6.664   7.921   8.526 -0.6675 -1.3075 -1.2005
58723SOL     OW83029   5.195   1.918   5.518 -0.0596  0.8828 -0.3358
58723SOL    HW183030   5.271   1.947   5.468  0.0611  0.9377 -0.1251
58723SOL    HW283031   5.188   1.824   5.499  0.9514  0.5561  0.7767
58724SOL     OW83032   0.596   2.906   9.498 -0.0517 -0.3114 -0.8401
58724SOL    HW183033   0.633   2.845   9.562  0.1021  0.3542 -0.2771
58724SOL    HW283034   0.537   2.852   9.445  1.5602 -1.3536 -1.6389
58725SOL     OW83035   7.799   3.663  12.012  0.5374 -0.2540  0.0305
58725SOL    HW183036   7.717   3.699  12.044  0.6112 -0.3386  0.3157
58725SOL    HW283037   7.866   3.722  12.047  0.8132 -1.6568  2.0182
58726SOL     OW83038  11.307   2.918  10.512  0.1225 -0.2651  0.1040
58726SOL    HW183039  11.351   3.003  10.520  1.5919 -0.9705 -0.0848
58726SOL    HW283040  11.296   2.906  10.417 -0.9616  0.1222  0.1676
58727SOL     OW83041   8.345  10.353  10.198 -0.3521  0.5740  0.0391
58727SOL    HW183042   8.356  10.433  10.147  0.5392  1.3266  1.3355
58727SOL    HW283043   8.295  10.380  10.275  1.2855  0.2927  1.2762
58728SOL     OW83044   9.165   6.381   5.842  0.4860  0.4038 -0.0416
58728SOL    HW183045   9.116   6.320   5.787  1.0209  0.7679 -0.9480
58728SOL    HW283046   9.135   6.363   5.931  0.0132 -0.5873 -0.3893
58729SOL     OW83047   3.454   7.413  12.468  0.4317  0.1536 -0.0970
58729SOL    HW183048   3.540   7.448  12.489  0.8430 -0.5905 -0.4930
58729SOL    HW283049   3.402   7.489  12.442  1.1659  0.5141 -0.5250
58730SOL     OW83050  11.220   9.734   1.147  0.3378 -0.0079  0.6872
58730SOL    HW183051  11.192   9.769   1.062  1.0618 -1.1067 -0.0310
58730SOL    HW283052  11.265   9.808   1.189  1.2133  0.1541 -0.4899
58731SOL     OW83053   1.959   4.415   9.951 -0.3014  0.2712  0.4090
58731SOL    HW183054   1.989   4.483  10.011  0.5867 -0.2135  0.5472
58731SOL    HW283055   1.881   4.451   9.910  0.9933  2.0239 -0.6524
58732SOL     OW83056   5.781   4.226   3.418 -0.0378 -0.1784 -0.0276
58732SOL    HW183057   5.842   4.259   3.484 -0.5692 -1.0477  0.9036
58732SOL    HW283058   5.766   4.135   3.442 -1.8579  0.0633 -0.1338
58733SOL     OW83059   8.752   5.334   0.819 -0.2363 -0.2196 -0.2569
58733SOL    HW183060   8.731   5.375   0.734  0.4945  0.4108 -0.1463
58733SOL    HW283061   8.666   5.317   0.859 -0.6499 -1.6348 -1.6168
58734SOL     OW83062   4.787   7.278   9.079 -0.1847  0.4368 -0.1524
58734SOL    HW183063   4.765   7.185   9.078 -0.8900  0.5417  1.5422
58734SOL    HW283064   4.877   7.281   9.046 -0.0785 -0.8813 -0.0550
58735SOL     OW83065   7.720   0.324   1.694 -0.3523 -0.2317  0.0184
58735SOL    HW183066   7.715   0.229   1.684  0.0637 -0.1961 -0.5881
58735SOL    HW283067   7.797   0.350   1.643  0.6279  0.2369  1.6842
58736SOL     OW83068   1.005   6.715   2.239 -0.3880  0.3291  0.5432
58736SOL    HW183069   0.931   6.740   2.184  0.0444  0.3211 -0.0564
58736SOL    HW283070   0.973   6.726   2.328 -1.2234 -0.0037  0.3023
58737SOL     OW83071  12.357   5.782   9.543  0.3025 -0.6135 -0.3195
58737SOL    HW183072  12.326   5.799   9.454  0.3025 -1.7006 -0.5482
58737SOL    HW283073  12.371   5.687   9.545  2.0525 -0.3837  0.2752
58738SOL     OW83074  11.638   7.528   0.514 -0.1421  0.7858  0.3907
58738SOL    HW183075  11.616   7.437   0.534  1.7057  0.1281 -0.3599
58738SOL    HW283076  11.655   7.568   0.599  1.6144 -0.3254  0.6206
58739SOL     OW83077   3.324   9.651  11.733  0.1056  0.5748  0.2354
58739SOL    HW183078   3.355   9.563  11.714  1.3649  0.9603  0.3875
58739SOL    HW283079   3.342   9.701  11.653 -2.8344  0.2001 -0.7961
58740SOL     OW83080  12.044   8.557   5.908 -0.4207  0.2506 -0.2951
58740SOL    HW183081  11.996   8.540   5.827 -0.3941 -0.6502 -0.1332
58740SOL    HW283082  12.116   8.494   5.907  2.0412  2.8644 -1.5230
58741SOL     OW83083   4.784   2.199  10.038 -0.4277  0.2934  0.6266
58741SOL    HW183084   4.768   2.293  10.031 -1.5490  0.4325  3.5856
58741SOL    HW283085   4.847   2.190  10.110  0.5871 -1.1800 -0.3948
58742SOL     OW83086   6.009  10.759   9.921 -0.2597 -0.0033  0.1272
58742SOL    HW183087   5.996  10.685   9.861  0.9186  0.8657 -1.2772
58742SOL    HW283088   5.926  10.766   9.969 -0.4466 -2.1112  0.1885
58743SOL     OW83089   5.987  10.669  10.317 -0.8025  0.2771 -0.6021
58743SOL    HW183090   5.907  10.722  10.327 -0.2920  0.9965 -0.2872
58743SOL    HW283091   6.003  10.633  10.405 -0.0034  1.2681 -0.3305
58744SOL     OW83092   0.810   6.496   6.536  0.2061  0.6498 -0.0795
58744SOL    HW183093   0.788   6.539   6.454 -0.1955  1.9231  0.6749
58744SOL    HW283094   0.793   6.403   6.520  2.3043  0.5428 -2.1373
58745SOL     OW83095   9.873  10.027   9.312 -0.5320  0.7400  0.4672
58745SOL    HW183096   9.863  10.068   9.226 -0.8992 -1.5040 -0.6217
58745SOL    HW283097   9.964  10.042   9.335 -0.2627  0.8355 -0.6032
58746SOL     OW83098   7.944   4.170  12.432  0.1039 -0.0029 -0.3851
58746SOL    HW183099   7.897   4.172  12.349  1.2267  2.2297 -1.0276
58746SOL    HW283100   8.033   4.144  12.408 -0.1326 -1.8260  0.5072
58747SOL     OW83101   3.424   2.740   5.971 -0.1053 -0.2839 -0.3569
58747SOL    HW183102   3.454   2.831   5.979  0.3344 -0.2733 -1.8318
58747SOL    HW283103   3.336   2.747   5.933 -0.2121 -0.4771 -0.1520
58748SOL     OW83104   7.862   8.224   2.240 -0.1532 -0.0511 -0.0172
58748SOL    HW183105   7.863   8.273   2.322 -0.6038 -1.0973  0.6356
58748SOL    HW283106   7.791   8.264   2.189  0.5546  1.0284 -0.1799
58749SOL     OW83107   7.289  11.442   3.467  0.1007  0.5721 -0.0629
58749SOL    HW183108   7.312  11.363   3.515  0.9939  1.2985  0.7494
58749SOL    HW283109   7.310  11.422   3.375  0.1741 -0.1746  0.1119
58750SOL     OW83110   1.752   6.166   5.717 -0.3110 -0.7145 -0.4049
58750SOL    HW183111   1.686   6.234   5.708  0.4797  0.3951  1.6024
58750SOL    HW283112   1.731   6.103   5.648  0.0576  2.4143 -3.6480
58751SOL     OW83113   8.100   1.480   3.665 -0.2003 -0.2689  0.1034
58751SOL    HW183114   8.175   1.539   3.654 -0.9743  0.5267 -1.2937
58751SOL    HW283115   8.097   1.430   3.583 -0.8391 -0.7152  0.3908
58752SOL     OW83116  12.358   8.486   8.559 -0.0272  0.4811 -0.0928
58752SOL    HW183117  12.354   8.394   8.586  0.2845  0.1687 -1.0724
58752SOL    HW283118  12.278   8.498   8.507 -0.1688  0.8243  0.2019
58753SOL     OW83119   9.203  12.432  10.229 -0.0806 -0.1886 -0.0046
58753SOL    HW183120   9.217  12.519  10.266 -1.6317 -0.0944  0.4519
58753SOL    HW283121   9.123  12.401  10.271 -1.2474 -0.5901 -2.3327
58754SOL     OW83122   1.631   7.648   2.192 -0.3248  0.4065  0.0810
58754SOL    HW183123   1.680   7.618   2.116  1.0245  2.0587  0.2339
58754SOL    HW283124   1.554   7.691   2.154 -0.3576  0.0371 -0.2831
58755SOL     OW83125  10.046   9.502   5.378  0.2798  0.2501  0.1222
58755SOL    HW183126   9.984   9.529   5.310  0.8937  1.1197 -0.1080
58755SOL    HW283127  10.055   9.579   5.434  0.9988  0.0692  0.2613
58756SOL     OW83128   5.426   7.460   9.468  0.5170 -0.3156 -0.1728
58756SOL    HW183129   5.339   7.465   9.508  1.1772  0.9736  1.2059
58756SOL    HW283130   5.456   7.550   9.465  2.7679 -0.9050  1.6354
58757SOL     OW83131  11.050  12.391   1.174 -0.2909 -0.1654  0.5009
58757SOL    HW183132  11.044  12.333   1.098  1.4352 -1.2039  1.0866
58757SOL    HW283133  11.005  12.344   1.244  0.5647 -0.5498  0.8137
58758SOL     OW83134   4.693   3.180  11.118  0.0006 -0.2666 -0.0075
58758SOL    HW183135   4.715   3.090  11.095  1.4643  0.1174 -0.2170
58758SOL    HW283136   4.775   3.229  11.107 -0.1270  0.6522  2.4055
58759SOL     OW83137   3.731  11.346  12.399 -0.8030 -0.1708  0.0793
58759SOL    HW183138   3.673  11.313  12.331 -0.9081 -0.2352  0.2002
58759SOL    HW283139   3.819  11.332  12.364 -0.8222 -1.3215  0.4664
58760SOL     OW83140   3.371   1.564   1.546 -0.0494  0.3098  0.0536
58760SOL    HW183141   3.355   1.552   1.452  1.1485  0.4849 -0.1905
58760SOL    HW283142   3.288   1.597   1.580 -1.0095 -1.2498 -0.6497
58761SOL     OW83143   9.800   0.416   0.085  0.8244  0.0312 -0.1810
58761SOL    HW183144   9.836   0.472   0.016 -1.2633  0.1589 -1.2603
58761SOL    HW283145   9.723   0.376   0.045 -0.1200 -0.3718  1.9041
58762SOL     OW83146   6.213   3.712   4.890 -0.4705  0.1294 -0.0945
58762SOL    HW183147   6.121   3.737   4.891 -0.5963 -0.2881 -0.7124
58762SOL    HW283148   6.241   3.725   4.799 -0.1668 -0.6225 -0.1138
58763SOL     OW83149  12.380   5.578   2.871 -0.2939  0.5466 -0.1763
58763SOL    HW183150  12.424   5.651   2.914 -0.1665  1.8218 -2.3512
58763SOL    HW283151  12.331   5.617   2.800  0.0146 -1.5053 -1.6156
58764SOL     OW83152   8.324  10.688   5.702  0.2433 -0.9443  0.1388
58764SOL    HW183153   8.397  10.647   5.656  0.1129 -0.9156 -0.0995
58764SOL    HW283154   8.268  10.722   5.631  0.1663 -0.6804  0.3252
58765SOL     OW83155   4.822   2.297   2.615 -0.3878  0.9294 -0.3638
58765SOL    HW183156   4.752   2.361   2.631  0.2062  1.7007 -0.7304
58765SOL    HW283157   4.807   2.228   2.679  0.2583  2.5333  1.6435
58766SOL     OW83158   1.022   1.658   0.692 -0.1034  0.1313 -0.8936
58766SOL    HW183159   0.955   1.679   0.757  1.3428  2.9464 -0.1334
58766SOL    HW283160   0.981   1.594   0.634 -1.8721 -1.6502  2.0555
58767SOL     OW83161   9.824   0.124  10.198  0.5466  0.1059 -0.1213
58767SOL    HW183162   9.732   0.146  10.187  0.5218  0.3853  0.6162
58767SOL    HW283163   9.825   0.029  10.206  0.2556  0.1506  0.4740
58768SOL     OW83164  11.124   4.707  10.449  0.0258  0.5994  0.2796
58768SOL    HW183165  11.131   4.689  10.355 -1.2331  1.7397 -0.0582
58768SOL    HW283166  11.118   4.620  10.489 -1.8964  0.1096 -0.9285
58769SOL     OW83167  10.706   6.554   0.990  0.1132  0.2179  0.9977
58769SOL    HW183168  10.790   6.578   0.951 -1.0508  1.6689 -0.7656
58769SOL    HW283169  10.670   6.487   0.932 -0.4018  0.3378  1.1750
58770SOL     OW83170   9.535   4.804   3.718  0.5780  0.2432 -0.1667
58770SOL    HW183171   9.488   4.863   3.777  1.6175 -0.0787  1.0120
58770SOL    HW283172   9.610   4.856   3.687  1.2080 -0.2773  0.4694
58771SOL     OW83173   6.907   7.126   7.997  0.0252 -0.0557  0.1983
58771SOL    HW183174   6.828   7.178   7.981 -1.2182 -1.7587  0.5037
58771SOL    HW283175   6.978   7.190   7.997 -0.6737  1.1566 -4.5816
58772SOL     OW83176  11.764  11.202   7.029  0.2297  0.4483 -0.2914
58772SOL    HW183177  11.728  11.187   7.116  1.1986  0.9043  0.2109
58772SOL    HW283178  11.859  11.211   7.044  0.4465  0.2285 -1.4270
58773SOL     OW83179   7.772   9.262  11.999 -0.3356  0.3965 -0.5119
58773SOL    HW183180   7.828   9.186  11.984  1.0559  1.3957 -0.6423
58773SOL    HW283181   7.792   9.321  11.926 -1.3458  0.9137 -0.3901
58774SOL     OW83182   3.856   2.687   5.312 -0.2818 -0.3923 -0.2026
58774SOL    HW183183   3.870   2.634   5.234  0.0073 -0.7675  0.1009
58774SOL    HW283184   3.921   2.656   5.375  0.8499  1.2619 -0.4861
58775SOL     OW83185   7.625   3.212   3.753 -0.3191 -0.5057  1.4256
58775SOL    HW183186   7.603   3.278   3.688 -0.2371  0.6414  2.5289
58775SOL    HW283187   7.542   3.167   3.771 -0.5471 -0.1580  1.2503
58776SOL     OW83188   7.192   5.491   9.069 -0.1379  0.2520 -0.2199
58776SOL    HW183189   7.109   5.479   9.022  1.0190 -0.8350 -2.1014
58776SOL    HW283190   7.173   5.460   9.158 -1.7020 -0.1370 -0.6577
58777SOL     OW83191   8.488   5.326  12.183 -0.3278  0.2657 -0.1096
58777SOL    HW183192   8.520   5.310  12.094 -1.6713  0.9613 -0.7456
58777SOL    HW283193   8.397   5.297  12.181 -0.9313  1.9849  0.5098
58778SOL     OW83194   0.139   7.573  10.786 -0.6766  0.4966 -0.3677
58778SOL    HW183195   0.166   7.593  10.697  0.1427  0.0846 -0.2244
58778SOL    HW283196   0.134   7.478  10.789 -0.0786  0.4727  0.1875
58779SOL     OW83197   0.119   1.762   3.701 -0.4795 -0.2634 -0.0794
58779SOL    HW183198   0.147   1.700   3.634 -0.9400  0.2799 -0.7871
58779SOL    HW283199   0.025   1.770   3.690 -0.1909  2.2408 -1.5273
58780SOL     OW83200   1.350   8.354  12.259  0.3001  0.2222  0.2931
58780SOL    HW183201   1.406   8.291  12.215 -0.1948  0.3763 -0.5735
58780SOL    HW283202   1.410   8.422  12.290  0.4544  1.3653 -2.2903
58781SOL     OW83203   0.760   2.922  12.149  0.0875 -0.0187 -0.4993
58781SOL    HW183204   0.780   2.852  12.210  0.5598  0.6844  0.1614
58781SOL    HW283205   0.843   2.967  12.135 -0.9352  3.6286  3.1386
58782SOL     OW83206  10.632  10.205   0.113 -0.5960 -0.0810 -0.1674
58782SOL    HW183207  10.689  10.193   0.188 -1.4137  0.5766  0.5890
58782SOL    HW283208  10.561  10.141   0.125 -2.0759  1.6700  1.0120
58783SOL     OW83209   5.871   2.689  10.474 -0.0275 -0.0281  0.1055
58783SOL    HW183210   5.950   2.661  10.427  0.8304  0.8844  0.9543
58783SOL    HW283211   5.855   2.619  10.537  1.6177  0.9098  1.6494
58784SOL     OW83212   6.114  10.132   7.723 -0.3917 -0.1087 -0.3862
58784SOL    HW183213   6.181  10.199   7.735 -2.1032  2.0428 -1.8566
58784SOL    HW283214   6.155  10.066   7.667  1.6008 -0.7819  1.7509
58785SOL     OW83215   4.217  12.314  10.755  0.3521  0.3985  0.3629
58785SOL    HW183216   4.204  12.321  10.849  2.3448 -0.3835  0.7442
58785SOL    HW283217   4.269  12.391  10.732  1.5978 -0.4403  0.2913
58786SOL     OW83218   5.109   7.222   8.143 -0.0717 -0.0169  0.1141
58786SOL    HW183219   5.171   7.295   8.135  0.0610 -0.0724  0.5873
58786SOL    HW283220   5.023   7.262   8.127  0.1539 -0.1111 -1.4211
58787SOL     OW83221  10.669   3.203   2.105  0.1862  0.1825  0.5809
58787SOL    HW183222  10.619   3.122   2.097 -0.6473  0.7831 -0.5306
58787SOL    HW283223  10.613   3.261   2.157  0.6182  0.1789  1.0590
58788SOL     OW83224   0.770   0.685   1.609 -0.0387  0.0532 -0.1040
58788SOL    HW183225   0.683   0.658   1.577 -0.0183 -0.5091  0.3016
58788SOL    HW283226   0.829   0.662   1.538  0.1595 -2.2296  0.7226
58789SOL     OW83227   9.816   5.873   2.380 -0.1912 -0.0425 -0.1544
58789SOL    HW183228   9.888   5.853   2.321 -1.3306 -1.4925 -1.1353
58789SOL    HW283229   9.812   5.969   2.381  2.2589  0.1198  0.6548
58790SOL     OW83230  10.686   4.958   1.913  0.2717  0.0376  0.6278
58790SOL    HW183231  10.609   5.015   1.918  1.4361  1.5494  2.6014
58790SOL    HW283232  10.735   4.991   1.838 -0.2098  0.0609  0.3134
58791SOL     OW83233   2.465   8.900   4.719 -0.4173 -0.0705  0.4074
58791SOL    HW183234   2.523   8.824   4.726 -1.3117 -0.7517  0.5816
58791SOL    HW283235   2.381   8.870   4.754 -1.8302 -0.1080 -2.6712
58792SOL     OW83236   7.707   1.132   3.381  0.0426  0.0355  0.0034
58792SOL    HW183237   7.690   1.045   3.419 -0.9925  0.4721  0.5956
58792SOL    HW283238   7.742   1.183   3.454 -1.9532  0.8828  0.4411
58793SOL     OW83239   9.133   6.131   1.234 -0.0555 -0.2872  0.0338
58793SOL    HW183240   9.116   6.096   1.321  0.7207 -0.0285  0.2964
58793SOL    HW283241   9.225   6.113   1.218  0.1435  0.8536 -0.1827
58794SOL     OW83242   5.939   5.586   5.938  0.3747 -0.1374 -0.1540
58794SOL    HW183243   6.017   5.640   5.925 -0.2614  1.0100  0.5468
58794SOL    HW283244   5.953   5.544   6.023  0.0489  0.4283  0.1882
58795SOL     OW83245   3.887  11.142   6.623 -0.0779 -0.7338  0.3397
58795SOL    HW183246   3.904  11.235   6.608  2.2066 -0.6367  2.7524
58795SOL    HW283247   3.903  11.101   6.538  1.5204  0.8211 -0.1792
58796SOL     OW83248   9.563   1.288   5.773  0.1922 -0.1004 -0.1106
58796SOL    HW183249   9.584   1.381   5.779 -1.2559  0.1918  1.2749
58796SOL    HW283250   9.477   1.285   5.730 -0.0283 -0.7286  0.3464
58797SOL     OW83251   7.018   0.716   8.789 -0.1540 -0.0364 -0.0870
58797SOL    HW183252   7.089   0.654   8.807 -1.5498 -1.6610  0.0490
58797SOL    HW283253   6.980   0.734   8.875 -0.4761  0.1415 -0.2660
58798SOL     OW83254  11.129   1.087  10.418  0.0223 -0.3048 -0.3707
58798SOL    HW183255  11.142   1.017  10.482 -1.7772 -0.8383 -0.5219
58798SOL    HW283256  11.107   1.164  10.471  1.0692 -0.0777 -0.2490
58799SOL     OW83257   2.755   8.285   1.651 -0.1717  0.5182 -0.1147
58799SOL    HW183258   2.697   8.355   1.680 -0.6758 -0.4230  1.2692
58799SOL    HW283259   2.841   8.309   1.686 -0.6670 -0.3303  1.8325
58800SOL     OW83260   6.843   8.979   8.594  0.7127  0.1032  1.0388
58800SOL    HW183261   6.789   8.921   8.540 -1.6987  2.4135  0.7503
58800SOL    HW283262   6.908   9.015   8.533  0.9457 -0.7329  0.7756
58801SOL     OW83263   0.084  10.178   1.575 -0.2041  0.6001  0.1076
58801SOL    HW183264   0.107  10.161   1.484 -0.8307 -0.2076  0.0874
58801SOL    HW283265   0.168  10.175   1.622  0.1075  0.9099 -0.4150
58802SOL     OW83266  10.117   5.572   2.194  0.3571  0.2234  0.5506
58802SOL    HW183267  10.176   5.529   2.132  0.7882 -0.1402  1.1869
58802SOL    HW283268  10.072   5.499   2.238  1.6812  0.3276  2.2108
58803SOL     OW83269  11.474   9.949  11.151  0.1477 -0.2634 -0.3330
58803SOL    HW183270  11.463   9.861  11.115  1.4536  0.3258 -2.3448
58803SOL    HW283271  11.569   9.958  11.162  0.0195  0.8711 -0.0857
58804SOL     OW83272   0.545  10.446   8.856  0.7777 -0.5408 -0.2715
58804SOL    HW183273   0.541  10.532   8.814  3.1654  0.5924  1.5498
58804SOL    HW283274   0.460  10.406   8.837 -0.5744  2.3624 -0.9123
58805SOL     OW83275   7.672   5.931   7.930 -0.3868 -1.3253 -0.0183
58805SOL    HW183276   7.655   6.010   7.878  0.8210  0.7502  2.5222
58805SOL    HW283277   7.597   5.925   7.989  0.4020 -1.0053  1.0262
58806SOL     OW83278   8.569   6.083  11.105  0.3061  0.4590 -0.2374
58806SOL    HW183279   8.530   6.020  11.166 -0.0137 -1.1159 -1.9431
58806SOL    HW283280   8.509   6.082  11.030  0.9452  1.9228 -0.7918
58807SOL     OW83281   0.869   5.398   6.962 -0.0457 -0.2306  0.0770
58807SOL    HW183282   0.925   5.321   6.957 -0.7066 -0.7060 -0.1530
58807SOL    HW283283   0.924   5.466   7.000  0.9881 -0.4050 -1.0687
58808SOL     OW83284   6.560   6.130   4.541 -0.7348 -0.2989 -0.1177
58808SOL    HW183285   6.621   6.057   4.537 -0.9538 -0.4761 -0.2396
58808SOL    HW283286   6.475   6.092   4.516 -0.5936  0.2774 -1.5510
58809SOL     OW83287  12.243  10.419   2.713  0.1215  0.0112  0.0564
58809SOL    HW183288  12.331  10.383   2.705 -0.6782 -1.5991 -2.5891
58809SOL    HW283289  12.254  10.513   2.697  1.3183 -0.2460 -0.7563
58810SOL     OW83290   2.666   3.112   8.740  0.3334  0.0128  0.1942
58810SOL    HW183291   2.760   3.129   8.727  0.9656 -1.6344  2.0284
58810SOL    HW283292   2.640   3.061   8.664  1.1289 -0.1501  0.0155
58811SOL     OW83293  10.349   3.445   0.623 -0.0176 -0.2365 -0.4174
58811SOL    HW183294  10.427   3.422   0.675 -0.8070 -2.1714  0.0202
58811SOL    HW283295  10.336   3.370   0.566 -3.1526 -1.3640  1.5137
58812SOL     OW83296   6.098   6.767   5.363  0.2376  0.2413 -0.2938
58812SOL    HW183297   6.008   6.734   5.363  0.2835 -0.1496  2.6117
58812SOL    HW283298   6.148   6.703   5.314 -0.7932 -0.4125 -0.5176
58813SOL     OW83299   3.853  12.225   9.719 -0.0596  0.5171 -0.4821
58813SOL    HW183300   3.897  12.189   9.643  2.1541 -0.3190  1.0968
58813SOL    HW283301   3.813  12.149   9.761  0.6191  0.5994  0.3402
58814SOL     OW83302   0.644   9.361  12.251 -0.3104  0.5934  0.4119
58814SOL    HW183303   0.634   9.443  12.299  1.1046  1.4714 -0.7128
58814SOL    HW283304   0.738   9.356  12.231 -0.7343 -0.0661 -1.6276
58815SOL     OW83305   1.619   4.561  10.377  0.7210 -0.1580 -0.6998
58815SOL    HW183306   1.599   4.570  10.283  2.0535  0.4619 -0.9504
58815SOL    HW283307   1.559   4.493  10.408 -0.4886  0.3928 -1.7633
58816SOL     OW83308   4.457   7.145  11.011  0.2022  0.3902 -0.0206
58816SOL    HW183309   4.552   7.138  11.023  0.1679  0.7437  0.4823
58816SOL    HW283310   4.426   7.187  11.091 -0.2898  0.9824 -0.5205
58817SOL     OW83311   0.738   8.692   3.940 -0.1144 -0.0656 -0.2923
58817SOL    HW183312   0.777   8.645   3.866 -1.6955 -0.8826 -0.6665
58817SOL    HW283313   0.725   8.625   4.007 -1.0895  0.1010 -0.2925
58818SOL     OW83314   1.375   3.851   1.660  0.0791  0.5389 -0.3400
58818SOL    HW183315   1.374   3.857   1.755  0.1382 -0.0944 -0.2936
58818SOL    HW283316   1.295   3.805   1.637  0.1124  0.5997 -0.5900
58819SOL     OW83317   3.180   0.977   1.021 -0.0076 -0.0114  0.3233
58819SOL    HW183318   3.270   0.946   1.028 -0.2952 -1.3800 -1.4218
58819SOL    HW283319   3.169   1.034   1.097  1.9355 -0.7533  1.2368
58820SOL     OW83320  11.666   0.300   5.584  0.2021 -0.3934 -0.2065
58820SOL    HW183321  11.616   0.298   5.665 -0.2172  0.1541 -0.4515
58820SOL    HW283322  11.670   0.208   5.556  0.0998 -0.5440  0.2778
58821SOL     OW83323   3.933   6.665   4.052 -0.3342 -0.1556  0.0278
58821SOL    HW183324   3.999   6.714   4.003  1.1719 -0.0488  2.0553
58821SOL    HW283325   3.931   6.579   4.009 -0.8214  0.6531 -1.6727
58822SOL     OW83326   2.159   7.940   3.379 -0.7697  0.0730 -0.1204
58822SOL    HW183327   2.228   7.904   3.323 -1.8543 -2.5516  0.1077
58822SOL    HW283328   2.087   7.957   3.319 -0.6107  0.9866 -0.0670
58823SOL     OW83329   6.130   0.055   9.796  0.1236 -0.3390  0.0542
58823SOL    HW183330   6.173  -0.026   9.767 -0.6854 -0.6698 -0.2734
58823SOL    HW283331   6.189   0.125   9.769  0.2595 -0.7543 -0.7571
58824SOL     OW83332   6.628   7.427   2.656 -0.6163  0.4713  0.5978
58824SOL    HW183333   6.677   7.485   2.598  1.6361  0.0236  1.9386
58824SOL    HW283334   6.537   7.456   2.647 -0.2297  1.1626 -2.2145
58825SOL     OW83335   9.072   8.729   4.460  0.6995  0.3267 -0.3549
58825SOL    HW183336   9.133   8.779   4.405  2.6856 -0.8275  0.7164
58825SOL    HW283337   8.996   8.787   4.469  1.4483  1.6586 -2.0569
58826SOL     OW83338   9.535  12.457  12.060  0.2992  0.1604 -0.1615
58826SOL    HW183339   9.553  12.549  12.079 -3.0592  1.2958 -1.7537
58826SOL    HW283340   9.557  12.448  11.968 -0.9610 -0.1245 -0.4490
58827SOL     OW83341   0.774   3.317   8.581  0.1002  0.6977  0.1616
58827SOL    HW183342   0.796   3.225   8.565 -1.6221  0.2579  0.1041
58827SOL    HW283343   0.756   3.321   8.675  0.1913  0.9671  0.1671
58828SOL     OW83344   5.920   8.273   1.639 -0.4511 -0.2628  0.5919
58828SOL    HW183345   5.883   8.189   1.612 -2.1897  0.3157  1.0378
58828SOL    HW283346   5.869   8.298   1.716 -1.5284  2.2176 -0.8019
58829SOL     OW83347   4.577   9.415  10.754  0.3546  0.5284  0.3152
58829SOL    HW183348   4.585   9.505  10.787 -3.1998  0.9198  0.4933
58829SOL    HW283349   4.546   9.426  10.664  0.5568 -0.5668  0.1047
58830SOL     OW83350   6.905   3.122   2.413  0.2365  0.0276 -0.8018
58830SOL    HW183351   6.830   3.125   2.471  0.6484  0.1059 -0.2674
58830SOL    HW283352   6.874   3.159   2.330 -0.3477 -0.0814 -0.6316
58831SOL     OW83353   0.491   7.953   7.934  0.1962 -0.3160  0.5735
58831SOL    HW183354   0.397   7.941   7.921  0.5584 -1.1975 -1.6615
58831SOL    HW283355   0.531   7.906   7.861  2.3421  0.7878  0.9779
58832SOL     OW83356   6.263   8.266   3.041 -0.8346 -0.9477  0.1313
58832SOL    HW183357   6.298   8.181   3.013 -0.9385 -0.3718 -1.8167
58832SOL    HW283358   6.340   8.316   3.068 -0.5672 -1.0186 -0.4916
58833SOL     OW83359  11.300   1.060  12.333 -0.2911 -0.4341  1.0550
58833SOL    HW183360  11.291   0.965  12.326  1.3945 -0.8579  3.3542
58833SOL    HW283361  11.282   1.079  12.425  0.6202  1.3056  0.9214
58834SOL     OW83362   8.791   6.715   4.487 -0.2779  0.0997 -0.2426
58834SOL    HW183363   8.841   6.753   4.415 -1.6381  0.5169 -1.0177
58834SOL    HW283364   8.782   6.623   4.464  0.1344  0.0233 -0.0988
58835SOL     OW83365  10.588   7.620   4.822  0.3320 -0.0362 -0.7248
58835SOL    HW183366  10.542   7.634   4.739  3.5435 -3.2781 -3.3747
58835SOL    HW283367  10.655   7.688   4.824  0.4788 -0.1738 -0.9728
58836SOL     OW83368  11.368   6.967  10.100  0.2311  0.0487 -0.0137
58836SOL    HW183369  11.381   6.926  10.014 -0.6231  0.3839 -0.3053
58836SOL    HW283370  11.408   6.905  10.162 -1.1387 -1.3223 -0.4337
58837SOL     OW83371  12.070   8.794   7.892  0.2606  0.1700 -0.4864
58837SOL    HW183372  12.147   8.795   7.950 -0.5179  0.4800  0.5743
58837SOL    HW283373  12.001   8.756   7.945 -0.5954  0.8778 -1.0709
58838SOL     OW83374  10.991   2.331   3.491  0.0019 -0.2607 -0.1316
58838SOL    HW183375  11.043   2.250   3.492  1.6641  0.7567 -0.9495
58838SOL    HW283376  10.994   2.362   3.581 -0.1651 -0.8050  0.0689
58839SOL     OW83377   7.453  10.821   3.332  0.1249  0.3987 -0.5260
58839SOL    HW183378   7.517  10.892   3.338  0.6105 -0.0715 -0.0080
58839SOL    HW283379   7.376  10.854   3.378  0.9654 -0.0627  1.2845
58840SOL     OW83380  10.977   8.125   2.262 -0.2822  0.0329  0.5707
58840SOL    HW183381  10.908   8.064   2.287 -1.0244 -0.2710 -1.9703
58840SOL    HW283382  10.930   8.202   2.230  0.5570  0.2720 -0.1299
58841SOL     OW83383  11.699   4.547   9.722  0.4092  0.1379  0.9850
58841SOL    HW183384  11.634   4.532   9.654  0.4453 -0.2438  1.0354
58841SOL    HW283385  11.664   4.503   9.799  0.6659  0.0395  1.0454
58842SOL     OW83386   7.919   8.431   5.739  0.5121 -0.1620  0.3110
58842SOL    HW183387   7.970   8.503   5.775  0.4408 -0.5320  1.1886
58842SOL    HW283388   7.958   8.353   5.778 -1.2606 -0.3987  1.7254
58843SOL     OW83389   8.005   2.211   5.215  0.3038  0.2293  0.1691
58843SOL    HW183390   8.009   2.150   5.289  1.8473  0.5525  0.3714
58843SOL    HW283391   7.914   2.241   5.214  0.0077 -0.5635  1.2890
58844SOL     OW83392  11.374   4.288  10.619 -0.4469 -0.0459  0.0840
58844SOL    HW183393  11.459   4.261  10.654  0.3425 -0.4451 -2.0045
58844SOL    HW283394  11.310   4.248  10.679  0.8014  0.4685  1.8319
58845SOL     OW83395   6.836   2.838   1.974 -0.3774 -0.5810  0.0052
58845SOL    HW183396   6.777   2.805   1.906 -0.9565  2.7926 -1.3521
58845SOL    HW283397   6.862   2.925   1.943  0.3966  0.6144  3.5196
58846SOL     OW83398   0.194   3.590   8.263  0.3917 -0.0577 -0.2247
58846SOL    HW183399   0.169   3.575   8.354  1.8115 -0.3484  0.1343
58846SOL    HW283400   0.153   3.518   8.215  1.1015 -0.9461  0.4572
58847SOL     OW83401   8.818   7.069   7.473 -0.0298 -0.1119 -0.2612
58847SOL    HW183402   8.903   7.101   7.443  1.0291 -2.4001  0.0436
58847SOL    HW283403   8.834   6.977   7.496 -2.6115 -0.6411 -0.2569
58848SOL     OW83404   2.317   0.912  12.246  0.6516  0.0515 -0.5425
58848SOL    HW183405   2.230   0.952  12.235  0.7389  0.1564 -0.8632
58848SOL    HW283406   2.363   0.970  12.306  0.3553 -0.2286 -0.0425
58849SOL     OW83407   0.832   9.445  11.000  0.1817  0.0467 -0.5261
58849SOL    HW183408   0.847   9.398  11.082 -1.9826 -0.0145 -0.0963
58849SOL    HW283409   0.912   9.432  10.950  0.4340 -2.4727  0.3657
58850SOL     OW83410   8.683   9.330  10.058 -0.4165  0.5010 -0.1525
58850SOL    HW183411   8.754   9.343  10.121 -1.2210 -1.4259  1.2748
58850SOL    HW283412   8.726   9.322   9.973  0.8533  1.5381  0.3666
58851SOL     OW83413   1.139  11.362   1.046  0.2967 -0.4283  0.7491
58851SOL    HW183414   1.101  11.392   1.128  0.5857 -0.4444  0.8887
58851SOL    HW283415   1.092  11.281   1.025 -1.9190  1.0803 -0.6456
58852SOL     OW83416   2.115   4.801  11.650 -0.4306  0.0941  0.4901
58852SOL    HW183417   2.058   4.867  11.688 -1.2726  1.3204 -2.6106
58852SOL    HW283418   2.202   4.841  11.648 -0.7042  0.6836 -0.2559
58853SOL     OW83419   3.432   3.543  11.337  0.6095 -0.1093 -0.2959
58853SOL    HW183420   3.472   3.466  11.298  0.0159  0.2266 -1.6248
58853SOL    HW283421   3.339   3.536  11.314  0.3214  0.3498  0.6725
58854SOL     OW83422  10.549  10.468   5.371  0.0239 -0.7696 -0.0080
58854SOL    HW183423  10.624  10.523   5.347  0.1401 -0.8311  0.2180
58854SOL    HW283424  10.480  10.531   5.393  0.3901 -0.7075  0.9867
58855SOL     OW83425   4.644   4.534   3.354 -0.4153 -0.1062 -0.4949
58855SOL    HW183426   4.630   4.619   3.396 -0.8051 -1.4570  2.3452
58855SOL    HW283427   4.558   4.494   3.351 -0.1435 -0.6471 -1.2522
58856SOL     OW83428   1.180   4.082   2.174  0.9249  0.0655 -0.1279
58856SOL    HW183429   1.263   4.075   2.221  1.0477 -0.6020 -0.4314
58856SOL    HW283430   1.119   4.029   2.225  0.7163  0.4411  0.0171
58857SOL     OW83431   0.557   5.457   3.860 -0.2491 -0.2655  0.0222
58857SOL    HW183432   0.624   5.444   3.927 -1.2608 -0.1700  1.1009
58857SOL    HW283433   0.562   5.550   3.839 -0.6559 -0.0527  0.8101
58858SOL     OW83434   9.744   5.723  10.344  0.0450  0.2839  0.2529
58858SOL    HW183435   9.782   5.766  10.421  1.4524  1.0733 -0.8292
58858SOL    HW283436   9.783   5.636  10.343 -2.3244 -0.9309  2.0889
58859SOL     OW83437   6.845   8.040   4.665 -0.0951 -0.3798  0.1624
58859SOL    HW183438   6.793   8.049   4.585  0.1010  1.0338  0.1772
58859SOL    HW283439   6.880   7.951   4.660 -1.4235 -0.9023 -0.4970
58860SOL     OW83440   5.610   7.941  11.426 -0.3680 -0.1282  0.5212
58860SOL    HW183441   5.547   8.009  11.451 -0.1639  0.2883 -0.0757
58860SOL    HW283442   5.600   7.873  11.493 -1.0336  0.1986  0.7606
58861SOL     OW83443   2.567   0.639   0.280  0.5807  0.4846 -0.2882
58861SOL    HW183444   2.647   0.589   0.294  0.1353  0.4220  2.7107
58861SOL    HW283445   2.504   0.575   0.247  0.6828 -0.4476  1.2366
58862SOL     OW83446   3.450   6.989   8.683  0.1483 -0.1258  0.5087
58862SOL    HW183447   3.385   7.032   8.627 -1.9571 -1.0561  2.1028
58862SOL    HW283448   3.439   6.896   8.666  1.4498 -0.2805  0.4375
58863SOL     OW83449   4.921   6.704   4.121 -0.4946  0.1036 -0.3927
58863SOL    HW183450   4.999   6.651   4.107 -1.4949 -1.8062  0.8647
58863SOL    HW283451   4.945   6.791   4.089  2.0811 -0.4606 -0.1836
58864SOL     OW83452   5.998  10.076   7.072 -0.5082  0.4583  0.3985
58864SOL    HW183453   5.915  10.048   7.112 -0.4558  0.3529  0.4352
58864SOL    HW283454   6.062  10.012   7.103 -0.5927 -0.0153 -0.3801
58865SOL     OW83455   1.239   3.608   9.104  0.0534 -0.1065  0.5823
58865SOL    HW183456   1.317   3.599   9.050 -0.3792 -0.0588 -0.0674
58865SOL    HW283457   1.188   3.678   9.061 -0.5662 -0.4627  0.7212
58866SOL     OW83458  12.086   2.386  12.371  0.1654 -0.4746 -0.1106
58866SOL    HW183459  12.170   2.387  12.417  0.4984 -0.9389 -0.7007
58866SOL    HW283460  12.046   2.469  12.393  1.2304  0.2010 -0.6379
58867SOL     OW83461  10.286   9.676   7.396  0.2518 -0.1090 -0.0894
58867SOL    HW183462  10.311   9.768   7.393  2.3954 -0.6665 -2.2885
58867SOL    HW283463  10.331   9.642   7.474  0.3044  0.4684  0.1409
58868SOL     OW83464   5.512   8.560  11.788  0.1925 -0.1274  0.3169
58868SOL    HW183465   5.431   8.518  11.816  0.3212 -0.4472  0.2178
58868SOL    HW283466   5.558   8.581  11.869 -0.2135  0.5190  0.3955
58869SOL     OW83467   1.767   5.447   4.058  0.1145  0.1168  0.0117
58869SOL    HW183468   1.770   5.418   3.967  0.0967 -0.7681  0.2844
58869SOL    HW283469   1.773   5.366   4.109  2.5775  0.7336  0.8345
58870SOL     OW83470   6.608   3.841  11.625  0.5345 -0.1371  0.1929
58870SOL    HW183471   6.614   3.768  11.563  0.5548 -0.6306  0.7692
58870SOL    HW283472   6.551   3.808  11.694 -0.1499  0.7035  0.0367
58871SOL     OW83473   3.153   0.715   3.480 -0.5087  0.3498  0.2824
58871SOL    HW183474   3.180   0.783   3.419 -0.3353  1.3578  1.4521
58871SOL    HW283475   3.209   0.640   3.460  0.8573  1.3062  0.4621
58872SOL     OW83476   7.488  11.775   9.217 -0.1422 -0.5058 -0.3391
58872SOL    HW183477   7.462  11.790   9.308  1.6252  1.0846 -0.0555
58872SOL    HW283478   7.429  11.705   9.187 -2.3074  0.4860  1.3008
58873SOL     OW83479   9.822  11.411   7.982  0.6691 -0.0629  0.4627
58873SOL    HW183480   9.917  11.417   7.967  0.6067 -0.9826 -0.4430
58873SOL    HW283481   9.786  11.387   7.896 -0.3813  0.2141  0.8170
58874SOL     OW83482   5.936   5.738   8.971  0.0598  0.0690  0.3108
58874SOL    HW183483   5.855   5.691   8.991  0.4978 -0.6566  0.4533
58874SOL    HW283484   5.972   5.761   9.057 -0.2723  0.8857  0.2341
58875SOL     OW83485   8.471   7.651   1.866 -0.0303  0.3968 -0.5542
58875SOL    HW183486   8.482   7.666   1.772 -1.1240  1.6710 -0.5125
58875SOL    HW283487   8.513   7.726   1.907 -1.2361  0.8700 -0.1232
58876SOL     OW83488  11.100   3.350   8.477 -0.4255 -0.1486 -0.4963
58876SOL    HW183489  11.076   3.332   8.386 -1.9759 -0.4587 -0.0577
58876SOL    HW283490  11.032   3.306   8.529 -0.2596  1.0359  0.7831
58877SOL     OW83491   1.911   8.240   8.197 -0.0335  0.1713  0.5137
58877SOL    HW183492   1.988   8.256   8.141 -0.7234  1.8452 -0.0333
58877SOL    HW283493   1.893   8.325   8.237 -1.3956 -0.2849  0.9106
58878SOL     OW83494   8.825   3.448   5.283  0.3036  0.1724  0.0894
58878SOL    HW183495   8.913   3.471   5.253  1.0871 -0.5560  1.6868
58878SOL    HW283496   8.784   3.531   5.306  0.8403  0.4618  0.0031
58879SOL     OW83497   6.894   5.287   8.583  0.2164 -0.2676 -0.0313
58879SOL    HW183498   6.805   5.319   8.592  0.5399  0.3530  1.0969
58879SOL    HW283499   6.916   5.252   8.669  1.4406  0.5995  0.0336
58880SOL     OW83500   0.711   6.584   2.436 -0.2380  0.5583 -0.1440
58880SOL    HW183501   0.712   6.508   2.378 -0.1435  1.2397 -1.0603
58880SOL    HW283502   0.625   6.624   2.422  0.0345  1.0996 -0.3269
58881SOL     OW83503   3.355  10.104   5.527 -0.4361 -0.0498  0.5303
58881SOL    HW183504   3.306  10.129   5.605  1.1369 -0.4627  1.6831
58881SOL    HW283505   3.433  10.060   5.560  0.8770  0.8390 -1.2217
58882SOL     OW83506  12.450  10.618  12.301  0.1366  0.3064 -0.2913
58882SOL    HW183507  12.431  10.594  12.392  2.3064 -1.1745 -0.1453
58882SOL    HW283508  12.451  10.714  12.301 -1.4204  0.3654  0.8647
58883SOL     OW83509   6.478   0.123   1.011  0.2543 -0.4391  0.0478
58883SOL    HW183510   6.455   0.150   0.922 -2.6132 -0.9501  0.5468
58883SOL    HW283511   6.528   0.042   0.999 -1.4465 -1.3833 -1.1205
58884SOL     OW83512   9.162   4.284   2.763  0.2894  0.2863  0.0952
58884SOL    HW183513   9.084   4.338   2.749 -0.2151 -0.4882 -0.1376
58884SOL    HW283514   9.216   4.336   2.823 -1.4450 -0.1253  2.1416
58885SOL     OW83515  11.463  11.492   2.415 -0.0370  0.2718 -0.6945
58885SOL    HW183516  11.558  11.482   2.407 -0.0680  0.5363 -1.4329
58885SOL    HW283517  11.442  11.568   2.361 -0.6195  0.4648 -0.2079
58886SOL     OW83518   0.154   9.496   4.275  0.0332  0.2628 -0.1477
58886SOL    HW183519   0.081   9.557   4.261 -0.9735 -0.9074 -0.2422
58886SOL    HW283520   0.112   9.410   4.280  1.3936 -0.4128  0.1201
58887SOL     OW83521   1.751   6.974   4.879 -0.2842 -0.2983  0.4055
58887SOL    HW183522   1.808   7.006   4.949  0.3218 -1.6059  0.5384
58887SOL    HW283523   1.732   6.884   4.903 -0.8538 -0.4712 -0.6308
58888SOL     OW83524   6.591   5.058   1.451 -0.4516 -0.1053  0.1379
58888SOL    HW183525   6.646   5.012   1.514  0.4438 -0.5423 -0.9179
58888SOL    HW283526   6.591   5.001   1.374 -1.5587  0.3848 -0.2434
58889SOL     OW83527   6.867  11.505   9.785 -0.4202 -0.7285 -0.2508
58889SOL    HW183528   6.955  11.468   9.782 -0.5126 -1.1987  1.5740
58889SOL    HW283529   6.829  11.470   9.866 -1.8805  0.3477 -0.4298
58890SOL     OW83530   8.625  10.018   7.360  0.1078 -0.4398 -0.4372
58890SOL    HW183531   8.700   9.990   7.307  0.2639  0.7519 -0.8887
58890SOL    HW283532   8.561   9.947   7.352  1.9727 -2.5337  1.7090
58891SOL     OW83533  12.271  11.198  11.198  0.6544 -0.1882 -0.0220
58891SOL    HW183534  12.232  11.236  11.277 -1.6446  3.0435 -2.4034
58891SOL    HW283535  12.226  11.115  11.186 -0.6364  0.3497  0.9171
58892SOL     OW83536   0.132   8.484  10.463  1.0826 -0.3887 -0.0583
58892SOL    HW183537   0.215   8.449  10.495  0.3987 -1.3755  0.7068
58892SOL    HW283538   0.107   8.425  10.392 -0.6112 -2.2309  1.9390
58893SOL     OW83539  11.296   9.569   7.975  0.1691 -0.2124 -0.2809
58893SOL    HW183540  11.352   9.612   8.040 -0.2873  0.9731 -0.6501
58893SOL    HW283541  11.237   9.514   8.027  1.8434 -1.7491  0.0998
58894SOL     OW83542   5.639   3.118   2.337 -0.2982 -0.3166 -0.4413
58894SOL    HW183543   5.618   3.034   2.295 -0.6977 -0.3459 -0.1840
58894SOL    HW283544   5.591   3.117   2.419 -0.3721  0.2009 -0.4714
58895SOL     OW83545   0.279  10.192   6.193  0.2317  0.1978  0.6351
58895SOL    HW183546   0.312  10.106   6.166 -1.7800 -0.8432  1.3024
58895SOL    HW283547   0.328  10.212   6.273  0.0776 -0.7715  0.9918
58896SOL     OW83548   9.259   8.353  11.125 -0.3144 -0.1901  0.5685
58896SOL    HW183549   9.278   8.277  11.071 -1.1621  0.4670 -0.6999
58896SOL    HW283550   9.187   8.397  11.081  0.5088  1.6629  0.9514
58897SOL     OW83551  11.664   8.878   0.107  0.4171 -0.0725  0.3947
58897SOL    HW183552  11.730   8.931   0.062  0.2719 -1.3199 -1.4044
58897SOL    HW283553  11.714   8.807   0.148  0.3492 -0.1484  0.3475
58898SOL     OW83554  11.680   7.839   4.961 -1.0433 -0.8116 -0.1190
58898SOL    HW183555  11.697   7.830   4.867  0.9147 -2.7307  0.3491
58898SOL    HW283556  11.700   7.753   4.998  2.0120  0.8281  2.5418
58899SOL     OW83557  11.729  11.876  10.497 -0.4166  0.3717 -0.4400
58899SOL    HW183558  11.720  11.927  10.416 -1.7987  3.0220  1.2403
58899SOL    HW283559  11.642  11.842  10.514 -0.7375  1.7884  1.0473
58900SOL     OW83560  12.198   1.641  11.179  0.1736 -0.3846 -0.2219
58900SOL    HW183561  12.181   1.734  11.185  0.2735 -0.2975 -1.1379
58900SOL    HW283562  12.291   1.635  11.158  0.1378 -0.6829 -0.3044
58901SOL     OW83563   9.053   5.419  11.737  0.0064  0.5810 -0.5900
58901SOL    HW183564   8.964   5.388  11.752  0.6244 -2.1067 -1.8279
58901SOL    HW283565   9.063   5.494  11.796 -2.2246 -0.6114  1.4867
58902SOL     OW83566   4.558   5.993   9.304 -0.1585 -0.2401 -0.5073
58902SOL    HW183567   4.504   6.047   9.362 -1.7970 -1.8452 -0.4227
58902SOL    HW283568   4.594   6.055   9.240  1.6020  1.5532  2.0555
58903SOL     OW83569   3.862   9.811   3.814 -0.0373 -0.4707  0.3492
58903SOL    HW183570   3.854   9.804   3.719 -1.4090 -0.8553  0.4675
58903SOL    HW283571   3.879   9.722   3.844 -0.0961 -0.4286  0.5071
58904SOL     OW83572   3.267   5.554   3.926 -0.3257 -0.2140  0.1862
58904SOL    HW183573   3.205   5.523   3.992  0.0546 -1.7365 -0.1316
58904SOL    HW283574   3.234   5.519   3.843  0.9526 -1.0775  0.0177
58905SOL     OW83575   0.639   0.919   1.139  0.3238  0.3206 -0.1080
58905SOL    HW183576   0.564   0.977   1.134 -0.9233 -1.2243 -0.2682
58905SOL    HW283577   0.601   0.831   1.133  1.8265 -0.6602  2.7669
58906SOL     OW83578   5.420   2.738   7.473 -0.2830  0.3007 -0.8898
58906SOL    HW183579   5.417   2.833   7.462 -1.2907  0.1032 -2.6469
58906SOL    HW283580   5.421   2.725   7.568 -1.5297  2.0338 -0.6017
58907SOL     OW83581  10.646   5.564   9.720  0.1445  0.3353 -0.1772
58907SOL    HW183582  10.604   5.575   9.805  0.9207  2.1133  0.0096
58907SOL    HW283583  10.618   5.640   9.669 -1.5708 -1.4443 -2.1285
58908SOL     OW83584   7.163   2.140   1.443 -0.1670  0.4378 -0.3389
58908SOL    HW183585   7.138   2.049   1.429 -0.0156  0.4950 -1.0233
58908SOL    HW283586   7.174   2.148   1.538 -0.6230 -0.1363 -0.2331
58909SOL     OW83587  12.221   9.459   4.046 -0.1230  0.2898 -0.4895
58909SOL    HW183588  12.212   9.364   4.034 -0.5964  0.4623 -1.6897
58909SOL    HW283589  12.316   9.473   4.049 -0.0569 -0.3888  1.4306
58910SOL     OW83590   1.058   6.351   3.783 -0.4385  0.2429  0.5346
58910SOL    HW183591   1.067   6.259   3.808  2.4783  0.3128  0.0987
58910SOL    HW283592   1.066   6.351   3.688 -2.0259  0.8483  0.3768
58911SOL     OW83593   5.919   0.665   2.574 -0.0316  0.2761 -0.2064
58911SOL    HW183594   5.897   0.719   2.499  0.3947  3.9170  2.0444
58911SOL    HW283595   6.007   0.692   2.599  1.5402 -3.7449 -0.5979
58912SOL     OW83596   2.260   3.929   9.004  0.6581 -0.3089  0.5453
58912SOL    HW183597   2.198   3.998   8.982  1.9558  0.3701 -1.2663
58912SOL    HW283598   2.206   3.857   9.035 -0.8294  1.0425  1.2789
58913SOL     OW83599  12.168   7.663   7.803  0.1920  0.0109  0.1993
58913SOL    HW183600  12.117   7.707   7.735  2.6291  1.5333 -0.7706
58913SOL    HW283601  12.165   7.571   7.779  0.2607  0.4174 -1.4830
58914SOL     OW83602   4.387   4.442   6.944 -0.0463  0.4845 -0.0603
58914SOL    HW183603   4.343   4.434   7.029 -0.8735  1.0334 -0.4270
58914SOL    HW283604   4.361   4.528   6.912  0.4048  0.3500 -0.7960
58915SOL     OW83605   5.920   9.300   7.692  0.4899 -0.2992  0.3409
58915SOL    HW183606   6.003   9.255   7.708  0.8415  0.0221 -0.5452
58915SOL    HW283607   5.904   9.349   7.773  0.0235 -2.0994  1.3857
58916SOL     OW83608   1.672   4.701   4.934  0.1907 -0.0056 -0.0409
58916SOL    HW183609   1.674   4.627   4.874 -0.9945 -0.5324  0.5364
58916SOL    HW283610   1.750   4.692   4.988  0.5094 -0.3274 -0.5531
58917SOL     OW83611   3.376   8.203   9.211 -0.0122  0.1590 -0.2727
58917SOL    HW183612   3.330   8.159   9.283  0.2358 -0.2824 -0.3763
58917SOL    HW283613   3.451   8.146   9.193 -1.2577 -0.9254 -2.3510
58918SOL     OW83614  10.990   1.464   3.692 -0.2105 -0.6483 -0.2333
58918SOL    HW183615  10.962   1.376   3.717 -0.2268 -0.5328  0.1775
58918SOL    HW283616  11.075   1.452   3.649  1.5487 -0.6082  2.9085
58919SOL     OW83617  11.251  10.093   6.173 -0.5470 -0.7256  0.6982
58919SOL    HW183618  11.221  10.061   6.088  1.1539 -0.5187 -0.0221
58919SOL    HW283619  11.341  10.059   6.181 -1.0008 -1.5764  2.8720
58920SOL     OW83620  10.180  10.877   8.225 -0.2275 -0.1806  0.3160
58920SOL    HW183621  10.132  10.912   8.300  1.5728 -2.3033  2.6715
58920SOL    HW283622  10.169  10.782   8.233  2.6987 -0.6434 -0.1166
58921SOL     OW83623   3.128   7.906   1.741 -0.3275 -0.6504 -0.1684
58921SOL    HW183624   3.149   7.973   1.805 -2.9900  1.1493 -1.0217
58921SOL    HW283625   3.189   7.835   1.760  2.5630  1.9119  0.8360
58922SOL     OW83626  11.037  11.840   3.489  0.7005 -0.2561 -0.3124
58922SOL    HW183627  11.110  11.901   3.482  0.0556  0.7243  1.0862
58922SOL    HW283628  10.969  11.889   3.533  0.3884 -2.1886  1.5011
58923SOL     OW83629   4.334   5.140  10.403  0.4741  0.6521 -0.3294
58923SOL    HW183630   4.353   5.145  10.309 -0.4730  2.1878 -0.4687
58923SOL    HW283631   4.266   5.206  10.417 -1.1455 -1.1997  1.0125
58924SOL     OW83632   7.463   8.195   7.301 -0.1428  0.8691 -0.0575
58924SOL    HW183633   7.536   8.217   7.359 -0.5161 -0.2333  0.8842
58924SOL    HW283634   7.430   8.112   7.336 -0.5567  0.3041 -1.7083
58925SOL     OW83635   7.967   6.889   4.414 -0.4817  0.1790 -1.0998
58925SOL    HW183636   8.037   6.951   4.436 -0.5083  0.5540 -2.0063
58925SOL    HW283637   7.886   6.934   4.437 -0.4499 -0.1254 -0.3591
58926SOL     OW83638   5.155   2.589   5.536  0.0850 -0.5084  0.1145
58926SOL    HW183639   5.151   2.684   5.531 -0.2771 -0.4933  0.6084
58926SOL    HW283640   5.181   2.561   5.448 -1.5134 -0.0418 -0.5306
58927SOL     OW83641   2.914   1.075  10.540 -0.5005 -0.4710  0.5480
58927SOL    HW183642   2.952   0.992  10.569 -0.3038 -0.4803  0.2761
58927SOL    HW283643   2.990   1.131  10.522 -0.5988 -0.5717 -0.2514
58928SOL     OW83644  12.399   7.350   3.406  0.3252 -0.7419  0.2259
58928SOL    HW183645  12.350   7.409   3.463  0.3224  0.6649 -1.1622
58928SOL    HW283646  12.389   7.264   3.446  1.9262  0.3990  3.3824
58929SOL     OW83647   8.055   8.299  10.252  0.7824  0.3428  0.1881
58929SOL    HW183648   8.086   8.383  10.286  0.6368  1.2908 -1.8981
58929SOL    HW283649   7.975   8.281  10.301  0.9521  1.2659  0.8355
58930SOL     OW83650   2.646   2.667   3.047 -0.0645  0.0069  0.3454
58930SOL    HW183651   2.666   2.752   3.007  0.6218 -0.6362 -0.7324
58930SOL    HW283652   2.674   2.676   3.138 -1.1837  1.3382  0.5861
58931SOL     OW83653   5.838   6.164   7.664  0.2775  0.5776  0.0121
58931SOL    HW183654   5.872   6.080   7.635 -0.3608 -0.0909  1.1216
58931SOL    HW283655   5.757   6.142   7.711 -0.3612  1.8883 -0.4213
58932SOL     OW83656   9.087   4.969   3.658  0.4177  0.3244 -0.2057
58932SOL    HW183657   9.020   4.924   3.607  0.2917 -1.7117  1.6129
58932SOL    HW283658   9.043   4.994   3.739  1.1991  1.3546 -0.0780
58933SOL     OW83659   0.797   1.869   4.683 -0.1365 -0.0895  0.4694
58933SOL    HW183660   0.748   1.903   4.757 -0.4680  1.9625 -0.6408
58933SOL    HW283661   0.742   1.887   4.607  1.0204 -0.4542 -0.4840
58934SOL     OW83662   5.248   3.906   0.805  0.1023  0.4097  0.2063
58934SOL    HW183663   5.317   3.971   0.810 -1.7932  2.6554 -0.6455
58934SOL    HW283664   5.213   3.900   0.894  2.5210 -2.2288  1.1117
58935SOL     OW83665   4.394   4.751   6.910  0.0017  0.1595  0.3288
58935SOL    HW183666   4.402   4.845   6.929  0.6302  0.0966  0.3884
58935SOL    HW283667   4.478   4.714   6.935  0.5291 -0.0874 -1.6233
58936SOL     OW83668   0.133  10.572   5.873 -0.2694 -0.6873 -0.3363
58936SOL    HW183669   0.229  10.573   5.874 -0.2478 -0.2779 -1.4306
58936SOL    HW283670   0.111  10.479   5.862  0.0516 -0.6121 -1.7856
58937SOL     OW83671   9.263   8.419   6.624 -0.1025 -0.0627 -0.1026
58937SOL    HW183672   9.219   8.476   6.560 -2.8204 -1.8005  0.0701
58937SOL    HW283673   9.260   8.332   6.585  0.8591 -0.6911  1.1455
58938SOL     OW83674  11.392  10.809   5.749 -0.6241 -0.4328  0.3184
58938SOL    HW183675  11.395  10.714   5.761 -2.0743 -0.4852  0.4668
58938SOL    HW283676  11.395  10.821   5.655 -0.2259 -0.6192  0.3068
58939SOL     OW83677   1.304   4.259  10.269  0.0167  0.3323 -0.6505
58939SOL    HW183678   1.331   4.249  10.177 -0.3009 -1.1915 -0.6084
58939SOL    HW283679   1.369   4.317  10.307  0.1375  1.0130 -1.8462
58940SOL     OW83680   3.180   1.209   1.761 -0.3129  0.3722 -0.3077
58940SOL    HW183681   3.116   1.280   1.760 -1.0821 -0.2004  2.2218
58940SOL    HW283682   3.257   1.247   1.804  0.3492  0.4763 -1.5494
58941SOL     OW83683   7.849   1.134   1.353  0.1584 -0.7627  0.1385
58941SOL    HW183684   7.775   1.173   1.307  2.6987  0.5272 -3.3129
58941SOL    HW283685   7.872   1.196   1.421 -0.5509 -0.0798 -0.2353
58942SOL     OW83686   3.484   9.488  10.091  0.3853 -0.5630 -0.5479
58942SOL    HW183687   3.462   9.481  10.184  0.4111 -2.0798 -0.6270
58942SOL    HW283688   3.407   9.529  10.051 -0.3409 -1.4610 -0.1076
58943SOL     OW83689   6.896   6.601   9.518  0.3170  0.2826  0.3952
58943SOL    HW183690   6.864   6.541   9.585  1.8192 -2.1087 -0.8751
58943SOL    HW283691   6.855   6.571   9.437  1.2356  0.8391 -0.3022
58944SOL     OW83692   1.634   3.209   2.227 -0.5465 -0.1570  0.2670
58944SOL    HW183693   1.552   3.178   2.190 -0.4610 -0.3014  0.1964
58944SOL    HW283694   1.699   3.143   2.200 -0.4955 -0.2985  0.7249
58945SOL     OW83695   7.263   3.247   6.576  0.0453  0.2470 -0.6948
58945SOL    HW183696   7.212   3.267   6.498 -0.7927 -0.6334 -0.3930
58945SOL    HW283697   7.267   3.330   6.624  0.0156  0.6356 -1.3495
58946SOL     OW83698   1.159   8.072  11.202  0.2269  0.2747 -0.4296
58946SOL    HW183699   1.166   7.981  11.231  0.2568  0.4259  0.0488
58946SOL    HW283700   1.211   8.122  11.265  2.1523  0.3773 -2.0080
58947SOL     OW83701   4.015  11.929   6.149 -0.1772 -0.2397 -0.1530
58947SOL    HW183702   3.965  11.980   6.212  1.7271  1.7522 -0.1128
58947SOL    HW283703   4.102  11.921   6.188  0.1163 -1.9394 -1.0333
58948SOL     OW83704  11.461   3.723   6.028  0.6892  0.3292 -0.1310
58948SOL    HW183705  11.433   3.751   5.941 -0.0062 -0.9863 -0.3591
58948SOL    HW283706  11.542   3.770   6.044  0.0126  1.7831 -0.8246
58949SOL     OW83707   5.965  11.232   4.965 -0.5943  0.1292 -0.3763
58949SOL    HW183708   5.986  11.139   4.976  1.6333  0.5424 -0.6347
58949SOL    HW283709   6.018  11.276   5.031 -1.5751  1.2406 -0.3064
58950SOL     OW83710   6.017   1.040   7.907  0.2070  0.4967 -0.0528
58950SOL    HW183711   6.007   1.016   7.815  0.9847 -3.0030  0.6617
58950SOL    HW283712   6.110   1.061   7.916  0.0526  1.2364 -0.1189
58951SOL     OW83713   9.797   0.946   8.503  0.0887 -0.0211  0.2009
58951SOL    HW183714   9.747   1.026   8.483  0.5210  0.3640  0.6279
58951SOL    HW283715   9.888   0.976   8.507  0.1309 -0.2791  1.6382
58952SOL     OW83716  12.062   4.848   6.269 -0.2191 -0.0135  0.0831
58952SOL    HW183717  12.083   4.766   6.312  1.9437  0.0830 -0.6582
58952SOL    HW283718  12.124   4.911   6.306  1.4736  0.1601 -2.7591
58953SOL     OW83719  11.584   1.787   5.185 -0.4124  0.3452  0.0565
58953SOL    HW183720  11.538   1.859   5.228 -0.3436  0.8808 -0.7293
58953SOL    HW283721  11.523   1.758   5.116 -0.0212  0.3399 -0.2901
58954SOL     OW83722   0.550   9.244  10.574  0.2147 -0.2868 -0.3135
58954SOL    HW183723   0.576   9.171  10.630 -0.2004 -0.0193  0.2328
58954SOL    HW283724   0.558   9.321  10.629 -1.0884 -0.1234 -0.3125
58955SOL     OW83725   3.136   4.094   2.954 -0.0259 -0.2267 -0.3323
58955SOL    HW183726   3.134   4.130   3.043 -0.2937  0.0449 -0.4432
58955SOL    HW283727   3.061   4.035   2.951 -0.0570 -0.1848 -0.3950
58956SOL     OW83728   5.805   9.769  11.504 -0.3048  0.3980  0.2385
58956SOL    HW183729   5.752   9.701  11.461  1.7287 -1.3718  0.3196
58956SOL    HW283730   5.749   9.803  11.574 -1.1699 -1.7779  0.6968
58957SOL     OW83731   7.143   1.658   2.942 -0.0573  0.0055 -0.0775
58957SOL    HW183732   7.071   1.602   2.970  0.3322  0.5767  2.2808
58957SOL    HW283733   7.175   1.617   2.861 -3.1692 -0.0797 -1.4430
58958SOL     OW83734   9.444   1.768   5.453 -0.3246 -0.1677  0.2617
58958SOL    HW183735   9.496   1.801   5.526  0.1160 -1.7326  0.6904
58958SOL    HW283736   9.501   1.778   5.377 -0.1138 -0.1621  0.4188
58959SOL     OW83737   6.741   5.697   9.190  0.0315  0.3983  0.5598
58959SOL    HW183738   6.772   5.759   9.124 -1.1760  1.9304  1.3852
58959SOL    HW283739   6.816   5.685   9.249  0.7109 -0.0254 -0.3666
58960SOL     OW83740  11.079   0.237  10.831  0.1089  0.5166 -0.3490
58960SOL    HW183741  11.050   0.240  10.922 -0.2381 -0.1658 -0.4357
58960SOL    HW283742  11.004   0.267  10.780 -0.0905 -0.1974 -0.4892
58961SOL     OW83743   3.915   3.154   4.256  0.1114 -0.5775 -0.5229
58961SOL    HW183744   3.954   3.081   4.304  1.8981  1.3555  1.2046
58961SOL    HW283745   3.844   3.184   4.313  0.0134 -0.3784 -0.7483
58962SOL     OW83746  11.919   8.641   2.179 -0.0506  0.1887  0.1828
58962SOL    HW183747  11.826   8.664   2.184 -0.1922 -0.4728  0.8556
58962SOL    HW283748  11.960   8.691   2.250 -0.0792 -0.3212  0.5669
58963SOL     OW83749   4.428  11.177   0.973 -0.2373 -0.1543 -0.7331
58963SOL    HW183750   4.368  11.131   1.031  1.1837 -2.0748 -0.7314
58963SOL    HW283751   4.483  11.230   1.030 -1.2353  0.8571 -0.6660
58964SOL     OW83752  12.193   1.510   9.525 -0.0408  0.3302 -1.1165
58964SOL    HW183753  12.262   1.465   9.574 -1.0511 -0.2600 -0.2108
58964SOL    HW283754  12.185   1.595   9.568 -0.4700  0.0654 -0.6656
58965SOL     OW83755   5.798   3.603   5.963  0.1273  0.5528 -0.2498
58965SOL    HW183756   5.827   3.584   6.053 -1.1344  1.0571  0.2800
58965SOL    HW283757   5.737   3.532   5.942  1.2723 -0.2048 -1.1617
58966SOL     OW83758  10.606  11.058   6.127  0.1908  0.6173  1.0307
58966SOL    HW183759  10.701  11.066   6.127  0.1384  1.8832  2.7584
58966SOL    HW283760  10.585  11.021   6.213 -0.8200 -1.1356  0.0811
58967SOL     OW83761   6.548   6.458   8.214 -0.4530 -0.2985  0.5482
58967SOL    HW183762   6.563   6.545   8.250 -0.6897 -0.0254  0.0047
58967SOL    HW283763   6.628   6.436   8.167 -0.7102  0.0047 -0.0516
58968SOL     OW83764   6.954  10.005   9.544 -0.0860 -0.4825 -0.1454
58968SOL    HW183765   7.017   9.992   9.473 -1.0135 -1.2581 -0.8466
58968SOL    HW283766   6.932  10.098   9.540  0.0865 -0.4638 -0.6856
58969SOL     OW83767  10.147   3.990   7.677 -0.1993 -0.4977 -0.0543
58969SOL    HW183768  10.195   4.069   7.701 -1.0274  0.0466 -0.1780
58969SOL    HW283769  10.214   3.931   7.642  0.8750 -0.8862  2.4579
58970SOL     OW83770   0.192  11.408   6.546 -0.1899  0.1329  0.2240
58970SOL    HW183771   0.283  11.384   6.563 -0.1427  0.1986  0.0636
58970SOL    HW283772   0.195  11.500   6.522 -0.5350  0.7623  2.3460
58971SOL     OW83773   3.937   3.874   6.424 -0.2126  0.0919  0.0151
58971SOL    HW183774   3.928   3.852   6.517  0.8252 -0.9378 -0.0980
58971SOL    HW283775   3.998   3.948   6.423 -0.2835  0.1529  0.1548
58972SOL     OW83776   2.979  12.408  11.321  0.2681  0.1803  0.2568
58972SOL    HW183777   2.917  12.391  11.392  0.1245 -0.1127  0.0671
58972SOL    HW283778   2.977  12.328  11.268  1.1888 -0.0423  0.5295
58973SOL     OW83779   5.140   5.374   3.483  0.1121  0.5635  0.1110
58973SOL    HW183780   5.177   5.351   3.568  1.1264  0.3056 -0.3793
58973SOL    HW283781   5.129   5.470   3.486 -1.1873  0.4165  1.0204
58974SOL     OW83782   7.182   1.526   6.138  0.0867 -0.1242  0.6993
58974SOL    HW183783   7.218   1.537   6.225 -0.2275 -1.5394  1.0322
58974SOL    HW283784   7.242   1.466   6.094  0.8336  1.4108 -0.4482
58975SOL     OW83785  11.117   7.652  10.229 -0.2829  0.3199 -0.3162
58975SOL    HW183786  11.051   7.593  10.266  1.7147 -1.5317  0.5189
58975SOL    HW283787  11.128   7.720  10.295 -1.1800  0.5403 -0.3767
58976SOL     OW83788   0.581  10.102  12.438  0.8561  0.1973 -0.4875
58976SOL    HW183789   0.621  10.085  12.353  1.1429 -1.1759 -0.1093
58976SOL    HW283790   0.646  10.154  12.485  2.3172 -2.0461  0.1392
58977SOL     OW83791   6.185   1.222   8.792  0.7698 -0.0157 -0.3850
58977SOL    HW183792   6.186   1.270   8.710 -0.1556  0.1874 -0.2912
58977SOL    HW283793   6.153   1.134   8.769 -0.5381  0.3557 -0.1119
58978SOL     OW83794   4.151   0.961   2.709  0.3752  0.5444  0.0377
58978SOL    HW183795   4.174   0.984   2.619  0.6198 -0.6011 -0.2011
58978SOL    HW283796   4.060   0.992   2.718  0.0792 -0.0132 -0.8496
58979SOL     OW83797   4.699   8.823   3.910  0.4234  1.0623  0.6614
58979SOL    HW183798   4.630   8.757   3.907 -1.6072  3.1015  0.5577
58979SOL    HW283799   4.760   8.789   3.976  0.9298 -2.1818 -1.2416
58980SOL     OW83800   7.405   6.886   0.911 -0.2004 -0.0365  0.9675
58980SOL    HW183801   7.487   6.875   0.958  0.2043 -0.0812  0.2706
58980SOL    HW283802   7.402   6.980   0.889 -0.5418  0.0472  1.3511
58981SOL     OW83803   3.671   9.288   2.275  0.7202  0.3773  0.1534
58981SOL    HW183804   3.726   9.348   2.326  0.3062 -0.7613  2.0595
58981SOL    HW283805   3.734   9.226   2.237  1.0313  1.1874 -0.6796
58982SOL     OW83806   8.949   3.372   2.786  0.4113 -0.1618  0.5695
58982SOL    HW183807   8.921   3.310   2.719 -0.1796  0.8170 -0.1168
58982SOL    HW283808   8.996   3.440   2.738 -1.9503  1.7344  0.7842
58983SOL     OW83809   8.814   6.036  10.992  0.0919 -0.2400  0.3812
58983SOL    HW183810   8.728   6.048  11.034  0.4253 -0.0869  1.0385
58983SOL    HW283811   8.834   6.122  10.955  0.8858  0.3261  2.0348
58984SOL     OW83812   8.533   4.490   7.586  0.2767  0.0258  0.6191
58984SOL    HW183813   8.612   4.493   7.641  2.6370  0.8285 -2.5369
58984SOL    HW283814   8.551   4.420   7.523 -0.8601  1.2329 -1.1118
58985SOL     OW83815   0.801   8.621   6.897  0.0652  0.2486  0.2499
58985SOL    HW183816   0.862   8.550   6.915  1.7563  1.7924  0.8383
58985SOL    HW283817   0.837   8.697   6.942 -1.8656  1.4307 -0.0653
58986SOL     OW83818  12.018  10.509   4.219  0.1574 -0.7882  0.0892
58986SOL    HW183819  11.965  10.589   4.227  0.0059 -0.8040 -0.6740
58986SOL    HW283820  12.010  10.485   4.126  0.6509 -1.3795  0.2001
58987SOL     OW83821   1.668   4.518  11.403  0.5043 -0.1885  0.1000
58987SOL    HW183822   1.595   4.517  11.465  0.1441  0.7003 -0.2871
58987SOL    HW283823   1.627   4.541  11.319  1.4313  2.2571  0.2245
58988SOL     OW83824   3.932   1.976   0.186  0.1160  0.8186  0.5877
58988SOL    HW183825   3.942   2.071   0.193  0.0929  0.7646  1.6035
58988SOL    HW283826   3.850   1.964   0.138  0.5565  1.3048 -0.3003
58989SOL     OW83827   8.352  10.324   3.472 -0.7041  0.5421  0.0958
58989SOL    HW183828   8.258  10.343   3.472 -0.7230  0.4593  0.4509
58989SOL    HW283829   8.389  10.390   3.531 -0.3350  1.5490 -1.2238
58990SOL     OW83830   5.077   8.559  10.670 -0.2225  0.0854  0.2466
58990SOL    HW183831   5.022   8.563  10.748  1.6838 -0.9731  1.7705
58990SOL    HW283832   5.103   8.467  10.665  1.0187  0.4564 -0.6353
58991SOL     OW83833  11.793   1.213   1.691  0.1362 -0.2366 -0.6056
58991SOL    HW183834  11.819   1.268   1.765  0.8320  1.3451 -1.9507
58991SOL    HW283835  11.845   1.246   1.617  0.2345 -2.4157 -1.6024
58992SOL     OW83836   4.970  12.399   6.099 -0.4578 -0.3944  0.0811
58992SOL    HW183837   5.000  12.428   6.186 -0.1404 -1.5049  0.3600
58992SOL    HW283838   4.966  12.303   6.106  1.0100 -0.6358 -1.5705
58993SOL     OW83839   6.102   4.594  12.057 -0.1629  0.2130 -0.3772
58993SOL    HW183840   6.145   4.509  12.064 -1.1568 -0.1656  2.4828
58993SOL    HW283841   6.162   4.655  12.098 -0.5202  0.4261 -0.1623
58994SOL     OW83842   4.574  11.716   3.495  0.5574  0.2546 -0.4679
58994SOL    HW183843   4.613  11.790   3.449  1.6117 -0.2715 -0.4382
58994SOL    HW283844   4.615  11.715   3.581 -1.4984  1.3074  0.6083
58995SOL     OW83845   2.411   3.658  12.415  0.6684  0.2906 -0.8932
58995SOL    HW183846   2.393   3.709  12.336  1.5948  1.0726 -0.6107
58995SOL    HW283847   2.442   3.723  12.479 -0.5291 -0.2406  0.2787
58996SOL     OW83848   8.375   1.938   0.804  0.0689 -0.0085 -0.0860
58996SOL    HW183849   8.459   1.980   0.785  0.6879 -0.7866  0.8530
58996SOL    HW283850   8.382   1.908   0.894  0.0687 -3.0274 -0.9695
58997SOL     OW83851   9.059   4.417   0.255  0.2788  0.3237 -0.1712
58997SOL    HW183852   9.058   4.328   0.221  0.5120  0.3213 -0.1735
58997SOL    HW283853   8.975   4.454   0.229  1.4067  1.1649 -2.9687
58998SOL     OW83854   7.740   2.851   5.686 -0.0645  0.1318 -0.3675
58998SOL    HW183855   7.763   2.941   5.708  0.2446  0.3138 -1.3967
58998SOL    HW283856   7.792   2.798   5.746  1.6638  0.5811 -1.4033
58999SOL     OW83857   8.785  11.773  12.242 -0.5235  0.6110 -0.1607
58999SOL    HW183858   8.778  11.709  12.313  0.1860  0.8326  0.1260
58999SOL    HW283859   8.695  11.789  12.215 -0.8717  1.0244  1.1587
59000SOL     OW83860   4.145   3.071   9.849  0.2160  0.3332 -0.1912
59000SOL    HW183861   4.229   3.091   9.808 -0.9069  1.1277 -2.2699
59000SOL    HW283862   4.097   3.023   9.782 -0.7987 -0.6167  1.1711
59001SOL     OW83863   9.297   6.135   6.556 -0.1329  0.5044 -0.2117
59001SOL    HW183864   9.359   6.182   6.612  0.5987 -1.6539  0.9112
59001SOL    HW283865   9.224   6.196   6.545  0.5400  1.7159  1.5335
59002SOL     OW83866  11.346   0.596  12.333 -0.2417  0.5118 -1.0110
59002SOL    HW183867  11.391   0.659  12.388 -1.1098  0.6470 -0.4433
59002SOL    HW283868  11.415   0.557  12.279  0.5739  0.5850 -0.0333
59003SOL     OW83869   6.621  10.198   4.379 -0.2909  0.5524  0.3387
59003SOL    HW183870   6.599  10.169   4.291  0.0928 -0.6876  0.6371
59003SOL    HW283871   6.536  10.220   4.419 -0.6676 -0.6655  0.2628
59004SOL     OW83872   6.315   7.333   5.774  0.3363 -0.0117  0.1352
59004SOL    HW183873   6.233   7.293   5.745 -0.0319  0.4441  0.5300
59004SOL    HW283874   6.363   7.351   5.693  0.1726 -0.5427 -0.0825
59005SOL     OW83875   9.639   2.124   1.713  0.3323 -0.0508  0.1917
59005SOL    HW183876   9.725   2.092   1.685  0.5915  1.4268 -0.8156
59005SOL    HW283877   9.580   2.099   1.642  0.5255  1.5327 -0.5767
59006SOL     OW83878   0.491   3.597   9.295  0.0292  0.0133 -0.0294
59006SOL    HW183879   0.490   3.680   9.342  1.3061  0.0921 -0.1113
59006SOL    HW283880   0.577   3.559   9.314 -0.1607 -0.8384 -0.7725
59007SOL     OW83881   3.312   0.702   9.875 -0.3532  0.1347  0.3225
59007SOL    HW183882   3.294   0.762   9.803  0.0332 -0.4757 -0.2944
59007SOL    HW283883   3.282   0.617   9.845  0.9472 -0.3728  0.3639
59008SOL     OW83884   4.461  10.453   9.008  0.0952  0.0794  0.2395
59008SOL    HW183885   4.436  10.361   8.995 -0.3801  0.1279  0.7167
59008SOL    HW283886   4.549  10.449   9.046  0.6442 -0.1204 -1.0143
59009SOL     OW83887   1.048   7.617   6.537 -0.1732 -0.0238 -0.1605
59009SOL    HW183888   1.122   7.595   6.594 -0.9092  1.1987  1.3491
59009SOL    HW283889   1.069   7.703   6.503 -1.8789  1.4416  2.1855
59010SOL     OW83890  12.193   5.501   3.797 -0.5530  0.4379 -0.4880
59010SOL    HW183891  12.100   5.511   3.818 -0.3756  0.4311  0.3439
59010SOL    HW283892  12.237   5.497   3.882  0.5694  3.4748 -0.8062
59011SOL     OW83893   5.198   5.255  11.582 -0.0362 -0.3774  0.4440
59011SOL    HW183894   5.164   5.170  11.554 -0.4759 -0.7360  1.9726
59011SOL    HW283895   5.130   5.291  11.638  0.1747  0.9849 -0.1172
59012SOL     OW83896   7.832  11.438   3.854 -0.0465  0.6253  0.8007
59012SOL    HW183897   7.828  11.397   3.941 -0.4693 -0.4625  0.2934
59012SOL    HW283898   7.868  11.369   3.798 -2.0724  0.4493 -0.3611
59013SOL     OW83899   4.011   2.965   3.326 -0.9215  0.0618  0.1085
59013SOL    HW183900   4.097   3.008   3.325 -0.5855 -0.5806  0.0345
59013SOL    HW283901   3.955   3.022   3.378 -0.1483 -0.0613  1.1049
59014SOL     OW83902   9.951   1.867   7.815  0.6069 -0.2019 -0.4424
59014SOL    HW183903  10.012   1.795   7.799 -0.4981 -0.7803 -2.3949
59014SOL    HW283904   9.959   1.923   7.737  2.4884  2.6937  1.6166
59015SOL     OW83905   6.587  10.928  12.437  0.6353  0.6004 -0.2957
59015SOL    HW183906   6.581  10.977  12.355 -3.1658  2.0801  0.6504
59015SOL    HW283907   6.500  10.889  12.448  1.6828 -1.3628  2.0281
59016SOL     OW83908  10.167  10.508   9.674 -0.1471  0.3132 -0.4017
59016SOL    HW183909  10.149  10.421   9.640 -0.1915  0.3524 -0.4817
59016SOL    HW283910  10.159  10.565   9.597  0.1945  0.3462 -0.4151
59017SOL     OW83911   8.520  12.227   7.872 -0.2060 -0.0050 -0.0024
59017SOL    HW183912   8.542  12.205   7.963 -3.2370  0.6717  0.9912
59017SOL    HW283913   8.550  12.318   7.862 -1.0547  0.3737  0.7832
59018SOL     OW83914   7.662   1.228   8.675  0.3303  0.0262  0.0054
59018SOL    HW183915   7.705   1.201   8.594  0.7903 -0.3887  0.3742
59018SOL    HW283916   7.716   1.300   8.707 -1.9302  2.7553 -1.9183
59019SOL     OW83917   9.620   7.311  11.996 -0.2218  0.1344 -0.2165
59019SOL    HW183918   9.536   7.298  12.039  0.0401  0.1544  0.3121
59019SOL    HW283919   9.663   7.379  12.047  0.2703 -0.1426 -0.2524
59020SOL     OW83920   4.811   1.698   6.399 -0.5650  0.3597  0.9050
59020SOL    HW183921   4.830   1.692   6.305  1.1134 -2.0055  1.3216
59020SOL    HW283922   4.715   1.706   6.403 -0.7298 -0.1805 -0.9858
59021SOL     OW83923  10.545   1.256   2.675  0.4776  0.0624  0.4937
59021SOL    HW183924  10.536   1.248   2.580  1.1787  1.1313  0.3254
59021SOL    HW283925  10.469   1.308   2.702  0.3134 -0.1864  0.5172
59022SOL     OW83926   5.984  11.442   8.150 -0.1483  0.5761 -0.1633
59022SOL    HW183927   5.901  11.473   8.114  0.4691 -0.7539 -2.9984
59022SOL    HW283928   6.032  11.521   8.174 -1.4881  1.4285 -0.2020
59023SOL     OW83929   1.472   6.134   4.248 -0.0261 -0.0140 -0.2156
59023SOL    HW183930   1.566   6.142   4.232  0.3045 -2.7605 -0.0866
59023SOL    HW283931   1.431   6.189   4.181  1.6465  0.1444 -1.1513
59024SOL     OW83932   0.554  11.664   2.850  0.0014  0.1642  0.4485
59024SOL    HW183933   0.638  11.621   2.869  0.3383  0.4332 -0.3625
59024SOL    HW283934   0.488  11.598   2.872  0.3772  0.2080  1.8081
59025SOL     OW83935   8.433   3.817   5.014 -0.0036  0.5275 -0.2260
59025SOL    HW183936   8.433   3.816   5.109  0.0343 -0.8525 -0.2220
59025SOL    HW283937   8.433   3.724   4.989  0.5202  0.8673 -1.5636
59026SOL     OW83938   5.922   0.562   3.037  0.0684 -0.6148  0.2089
59026SOL    HW183939   5.976   0.635   3.067  1.8761 -1.4527 -0.8585
59026SOL    HW283940   5.962   0.484   3.076  3.3151 -1.9345 -4.8826
59027SOL     OW83941   0.456   8.208  11.263  0.1470 -0.2708 -0.1599
59027SOL    HW183942   0.511   8.285  11.247  0.5013 -0.6079 -0.5768
59027SOL    HW283943   0.391   8.210  11.193 -0.1570 -0.0686  0.1282
59028SOL     OW83944   6.236  11.231  12.188  0.3664  0.3161  0.6627
59028SOL    HW183945   6.223  11.136  12.186 -0.5110  0.4402 -1.4262
59028SOL    HW283946   6.276  11.253  12.104  3.1081  1.5330  2.1332
59029SOL     OW83947   1.270   3.664   5.466 -0.3629 -0.3723 -0.1893
59029SOL    HW183948   1.269   3.758   5.481 -0.7397 -0.0445 -2.0240
59029SOL    HW283949   1.179   3.636   5.478 -0.1310 -0.6663  1.0751
59030SOL     OW83950   3.976   2.305   7.164  0.0549 -0.5379  0.7556
59030SOL    HW183951   3.921   2.377   7.194 -0.5180 -0.7595  0.2478
59030SOL    HW283952   3.946   2.286   7.076  0.3354 -1.2637  0.8048
59031SOL     OW83953   0.187   9.945   0.921  0.3442 -0.4479  0.2521
59031SOL    HW183954   0.225   9.864   0.954  1.0350 -0.1979  0.0828
59031SOL    HW283955   0.161   9.994   0.999  0.8068 -0.4102  0.3818
59032SOL     OW83956  10.265   5.484  10.373 -0.2011  0.3837 -0.6458
59032SOL    HW183957  10.291   5.398  10.343  2.1082  0.3416  1.1697
59032SOL    HW283958  10.211   5.467  10.451 -0.5982  0.5816 -0.8719
59033SOL     OW83959  10.347   6.251   6.339  0.6807 -0.1349  0.6552
59033SOL    HW183960  10.410   6.304   6.387  2.2754 -2.2596  1.0733
59033SOL    HW283961  10.326   6.179   6.399 -1.7099  0.1660  0.2752
59034SOL     OW83962   1.544   6.462   4.156  0.6249 -0.0307  0.6494
59034SOL    HW183963   1.458   6.434   4.124  0.0719  0.5987  1.5203
59034SOL    HW283964   1.594   6.482   4.077 -0.2584  0.2326  0.1407
59035SOL     OW83965   8.818  10.200   4.280  0.1584  0.1329  0.0726
59035SOL    HW183966   8.813  10.180   4.373  1.1646 -0.3760  0.0273
59035SOL    HW283967   8.819  10.295   4.275  0.4538  0.1550  0.6001
59036SOL     OW83968   6.443   5.373   1.187  0.4106  0.3912  0.1236
59036SOL    HW183969   6.494   5.385   1.267  0.1202  0.3864  0.3106
59036SOL    HW283970   6.480   5.295   1.146 -0.1147 -0.2242  0.7876
59037SOL     OW83971  11.738   4.424   6.577  0.2693 -0.6738  0.0737
59037SOL    HW183972  11.749   4.507   6.531  1.5456 -0.8669 -0.0013
59037SOL    HW283973  11.765   4.357   6.515  2.1456 -0.9294  1.0908
59038SOL     OW83974   3.416   1.668   3.327  0.2590  0.2482 -0.2408
59038SOL    HW183975   3.378   1.738   3.274 -1.8912  0.1553  1.0935
59038SOL    HW283976   3.446   1.711   3.407 -0.4043 -0.2036  0.2665
59039SOL     OW83977  11.804   6.297   5.875  0.2170  0.1712  0.3185
59039SOL    HW183978  11.810   6.236   5.801 -0.5442 -0.1617  0.5234
59039SOL    HW283979  11.773   6.379   5.836 -0.5684 -0.1181  0.3204
59040SOL     OW83980   6.458   9.894   6.606 -0.4802 -0.2159  0.1660
59040SOL    HW183981   6.501   9.916   6.523 -1.1001  0.4333  0.0061
59040SOL    HW283982   6.426   9.977   6.639  2.4451  0.1316  2.6582
59041SOL     OW83983   3.826   8.848   8.941 -0.2880  0.4212  0.2005
59041SOL    HW183984   3.797   8.938   8.957  0.1210  0.3174  1.6620
59041SOL    HW283985   3.913   8.858   8.904  0.4756  0.6340  1.9550
59042SOL     OW83986   0.453   0.211  10.864 -0.2621  0.0191 -0.0735
59042SOL    HW183987   0.417   0.280  10.808 -0.0795  0.7190  0.6590
59042SOL    HW283988   0.387   0.142  10.863  0.3520 -0.6283 -2.3199
59043SOL     OW83989   9.092   3.081   1.382  0.0010 -0.2801  0.2460
59043SOL    HW183990   9.102   3.151   1.446  1.7818  0.3647 -0.7037
59043SOL    HW283991   9.070   3.125   1.301 -2.0243 -1.0832  0.2953
59044SOL     OW83992   4.942   0.582   6.762 -0.1106 -0.0621  0.2831
59044SOL    HW183993   5.020   0.626   6.793 -0.3208  0.9572 -0.5754
59044SOL    HW283994   4.888   0.569   6.840 -0.5793  2.3069  0.4280
59045SOL     OW83995   5.056   7.509   3.942 -0.6775 -0.0068 -0.0229
59045SOL    HW183996   5.036   7.429   3.990  0.3441 -0.5628 -0.4962
59045SOL    HW283997   5.022   7.493   3.854  1.9388 -1.0839 -0.9248
59046SOL     OW83998   0.492   1.380   9.499 -0.4227  0.5843  0.2590
59046SOL    HW183999   0.573   1.423   9.475  0.3821 -1.2382 -0.4882
59046SOL    HW284000   0.519   1.299   9.542 -1.7908 -0.6403 -1.0508
59047SOL     OW84001   9.584  11.116   3.713  0.0559  0.2186  0.0261
59047SOL    HW184002   9.619  11.189   3.662  0.2215 -1.6857 -2.7926
59047SOL    HW284003   9.640  11.112   3.791  1.4674  1.7112 -0.8600
59048SOL     OW84004   3.725  11.340   5.106 -0.0038  0.0698 -1.4532
59048SOL    HW184005   3.694  11.418   5.153  0.6293 -0.1890 -0.5916
59048SOL    HW284006   3.645  11.297   5.077 -0.5869 -0.9973  1.4103
59049SOL     OW84007   8.793   8.360   9.899 -0.1991 -0.7107 -0.0407
59049SOL    HW184008   8.701   8.357   9.873 -0.3241 -0.2943  0.3358
59049SOL    HW284009   8.839   8.388   9.819 -0.3553 -1.2344 -0.3181
59050SOL     OW84010   6.745  11.489   6.309 -0.2987  0.7636 -0.2955
59050SOL    HW184011   6.775  11.459   6.395 -1.2797  0.3829 -0.0664
59050SOL    HW284012   6.825  11.510   6.261  0.2420  1.5407  0.9060
59051SOL     OW84013   8.780   7.815   4.200  0.3608  0.2640 -0.5206
59051SOL    HW184014   8.871   7.824   4.230  0.1363  0.3056  0.1595
59051SOL    HW284015   8.730   7.870   4.259 -0.2896 -0.8462 -0.0058
59052SOL     OW84016   3.031   7.106   9.048 -0.1805  0.2574 -0.2124
59052SOL    HW184017   3.084   7.154   8.985 -0.2199 -0.4510 -0.7965
59052SOL    HW284018   3.001   7.173   9.110 -0.2146  0.9777 -0.9873
59053SOL     OW84019   9.744   1.043   2.467 -0.1173  0.7030 -0.2815
59053SOL    HW184020   9.775   1.073   2.552 -0.4248 -0.2374  0.1863
59053SOL    HW284021   9.664   1.094   2.451 -0.1319  0.7921  0.0620
59054SOL     OW84022  12.348   4.275   5.788  0.2365  0.0068 -0.4381
59054SOL    HW184023  12.338   4.190   5.831  0.4269 -0.3085 -1.0107
59054SOL    HW284024  12.373   4.335   5.859  0.4861 -0.4928 -0.0996
59055SOL     OW84025   1.094  10.226   8.395 -0.1736 -0.0520  0.1933
59055SOL    HW184026   1.046  10.221   8.313  0.2125  0.2652 -0.0574
59055SOL    HW284027   1.032  10.263   8.457 -0.5159 -0.4382  0.0856
59056SOL     OW84028   6.514   8.980   8.787  0.2141  0.1946 -0.3474
59056SOL    HW184029   6.473   8.973   8.872  0.4022  0.7674 -0.2020
59056SOL    HW284030   6.604   9.009   8.806 -0.5850  3.3535 -0.8535
59057SOL     OW84031   4.870   2.679   8.992  0.4421 -0.1249 -0.4525
59057SOL    HW184032   4.871   2.685   8.896 -2.4080 -1.5529 -0.6498
59057SOL    HW284033   4.799   2.619   9.012  2.1704 -1.3963  2.5514
59058SOL     OW84034  10.539  11.005   7.789  0.2609 -0.0802  0.7259
59058SOL    HW184035  10.580  10.985   7.874 -0.7430 -1.3200  0.9368
59058SOL    HW284036  10.461  11.056   7.812 -1.4700 -2.6061  0.8139
59059SOL     OW84037   9.535  12.148  10.743 -0.5148 -0.2862 -0.0000
59059SOL    HW184038   9.532  12.126  10.836 -1.0406  2.4072  0.7076
59059SOL    HW284039   9.457  12.108  10.706 -3.7158  3.3631  2.0399
59060SOL     OW84040  11.946   5.802   3.683  0.2015 -0.2325 -0.3957
59060SOL    HW184041  12.032   5.768   3.706  0.4267  0.1392 -0.6726
59060SOL    HW284042  11.885   5.732   3.707  0.5668 -0.4402 -0.0678
59061SOL     OW84043  12.126   4.864  11.879 -0.7273 -0.4639 -0.3291
59061SOL    HW184044  12.068   4.842  11.951 -0.5616 -1.1641 -0.4018
59061SOL    HW284045  12.189   4.792  11.875  0.7355  0.7224  0.3417
59062SOL     OW84046   0.672   2.996  11.621 -0.1278 -0.7645  0.0001
59062SOL    HW184047   0.648   2.924  11.563  1.1342 -0.3018 -1.1633
59062SOL    HW284048   0.589   3.023  11.661 -1.6305  0.5895 -3.5576
59063SOL     OW84049   1.050   7.519   5.808  0.2949  0.2243 -0.1440
59063SOL    HW184050   1.015   7.450   5.752  0.3350 -0.3843  0.5685
59063SOL    HW284051   1.119   7.477   5.858 -1.4434  0.0187  2.2779
59064SOL     OW84052   9.455   2.178   0.342 -0.3581 -0.3485 -0.3403
59064SOL    HW184053   9.547   2.175   0.317 -0.0022  1.0801  0.6766
59064SOL    HW284054   9.413   2.113   0.286  1.2185 -0.8508 -0.9961
59065SOL     OW84055   8.966   9.744   1.024  0.3852 -0.3496  0.5076
59065SOL    HW184056   9.037   9.740   1.088 -0.6048 -0.7170  1.6108
59065SOL    HW284057   8.964   9.835   0.995  1.1865 -0.2985  0.5870
59066SOL     OW84058   6.142   9.336   8.578 -0.1920  0.4459 -0.1034
59066SOL    HW184059   6.068   9.284   8.545  0.0002  0.4478 -0.5402
59066SOL    HW284060   6.203   9.272   8.614 -0.7752  0.4953  1.0345
59067SOL     OW84061   3.764   7.687   6.112 -0.5481  0.1587  0.4400
59067SOL    HW184062   3.793   7.764   6.161  0.9676  0.3856 -0.7416
59067SOL    HW284063   3.797   7.701   6.023 -1.9817 -0.9175 -0.2953
59068SOL     OW84064   3.043   2.567   9.979  0.0908 -0.1252  0.1251
59068SOL    HW184065   3.058   2.537   9.889 -0.0962 -0.3132  0.1537
59068SOL    HW284066   2.998   2.651   9.970  0.3557  0.0089  0.0430
59069SOL     OW84067   8.085  11.557   6.848 -0.1901 -0.0357 -0.1310
59069SOL    HW184068   8.093  11.467   6.819  1.3207  0.1288 -0.3108
59069SOL    HW284069   8.104  11.610   6.770  4.6420  0.4140  1.0467
59070SOL     OW84070   7.164   6.339  10.384  0.1589  0.1890 -0.4298
59070SOL    HW184071   7.223   6.350  10.459 -1.1549  0.8828  0.5485
59070SOL    HW284072   7.161   6.425  10.343 -1.0495  0.4881  0.2328
59071SOL     OW84073  12.041   5.280  11.017  0.6067  0.1880  0.2995
59071SOL    HW184074  11.992   5.333  11.080 -0.1898  0.3336 -0.4214
59071SOL    HW284075  12.039   5.331  10.936  0.5613 -0.5423 -0.1678
59072SOL     OW84076   3.727  11.388   6.350 -0.2085  0.1118  0.7404
59072SOL    HW184077   3.795  11.405   6.415  0.5566  0.2548 -0.0822
59072SOL    HW284078   3.646  11.416   6.393  0.3795  0.9607  1.3352
59073SOL     OW84079   7.469   7.382   9.832 -0.1533  0.6718  1.1512
59073SOL    HW184080   7.470   7.335   9.916  0.7096  2.5841  2.2859
59073SOL    HW284081   7.558   7.373   9.798 -0.8672 -1.3263 -0.3550
59074SOL     OW84082   5.906  12.471  10.602  0.1801 -0.0617 -0.2362
59074SOL    HW184083   5.924  12.516  10.520 -0.5576  1.5427  0.4474
59074SOL    HW284084   5.990  12.430  10.626  0.4679 -0.3321 -1.6332
59075SOL     OW84085   5.115   3.621   4.422  0.0578 -0.1508  0.6932
59075SOL    HW184086   5.209   3.626   4.440  0.0475  1.3260  0.4940
59075SOL    HW284087   5.108   3.571   4.341  0.6821 -0.1998  0.6699
59076SOL     OW84088   6.258   3.001  10.909 -0.1582 -0.4480  0.3817
59076SOL    HW184089   6.303   3.008  10.825  0.3368 -0.4906  0.6370
59076SOL    HW284090   6.237   3.092  10.933 -2.3754 -0.5657 -0.8661
59077SOL     OW84091   8.860  10.076   0.108  0.7985 -0.0152 -0.0619
59077SOL    HW184092   8.943  10.063   0.153  1.8044  4.3617 -0.2093
59077SOL    HW284093   8.884  10.125   0.029 -1.5651 -2.2496 -2.3240
59078SOL     OW84094   8.154   4.722   0.489 -0.2273 -0.0435 -0.7840
59078SOL    HW184095   8.175   4.814   0.481  2.3260 -0.5781 -0.9432
59078SOL    HW284096   8.070   4.712   0.443 -1.0348  2.2945  0.0247
59079SOL     OW84097   6.446   0.855   2.938  0.2196 -0.2737  0.0022
59079SOL    HW184098   6.396   0.779   2.907 -0.3505 -0.6120  1.6283
59079SOL    HW284099   6.446   0.916   2.864 -0.1301 -1.4638 -1.0069
59080SOL     OW84100   9.903   1.160   0.296  0.1777 -0.4882  0.2598
59080SOL    HW184101   9.972   1.096   0.309 -1.4179 -2.5227 -0.6806
59080SOL    HW284102   9.851   1.157   0.377  0.1460 -0.3061  0.2481
59081SOL     OW84103   6.532   2.127   9.575 -0.3351  0.2621  0.0073
59081SOL    HW184104   6.533   2.040   9.614 -0.2779  0.5678  0.6982
59081SOL    HW284105   6.622   2.142   9.546 -0.0708  0.5464  0.9339
59082SOL     OW84106   7.926   9.734   2.626 -0.4603 -0.0892 -0.5856
59082SOL    HW184107   8.019   9.723   2.646 -0.6931  0.0292  0.6555
59082SOL    HW284108   7.923   9.809   2.566  0.2732 -0.4445 -1.0869
59083SOL     OW84109   7.612   3.207   6.150 -0.3130 -0.1970  0.1728
59083SOL    HW184110   7.541   3.164   6.102 -0.4864 -0.2089  0.4360
59083SOL    HW284111   7.677   3.138   6.163  0.9134  0.4034 -2.2746
59084SOL     OW84112  12.151   0.883   7.373  0.1655  0.7644 -0.4119
59084SOL    HW184113  12.174   0.928   7.454 -0.7334 -0.2381  0.4348
59084SOL    HW284114  12.168   0.790   7.392  0.9146  0.6081 -1.7279
59085SOL     OW84115  11.579   6.564   8.832 -0.2648  0.5012 -0.1039
59085SOL    HW184116  11.635   6.490   8.808  1.2973  0.7502  2.4026
59085SOL    HW284117  11.600   6.631   8.766 -0.1505 -0.5496 -1.1790
59086SOL     OW84118   6.088   7.563   2.460 -0.1872  0.1794  0.0904
59086SOL    HW184119   6.120   7.652   2.444  0.0483 -0.0121 -0.5362
59086SOL    HW284120   6.117   7.513   2.384 -1.3045 -0.1793 -0.1185
59087SOL     OW84121   4.830   9.654   2.623  0.3994  0.4542  0.2689
59087SOL    HW184122   4.770   9.624   2.556 -0.2962 -1.0520  1.5068
59087SOL    HW284123   4.828   9.750   2.616  0.7838  0.3498 -2.1641
59088SOL     OW84124  10.847   2.088   8.740  0.1750  0.1758  0.3386
59088SOL    HW184125  10.799   2.171   8.734  1.5266  0.9349 -0.6668
59088SOL    HW284126  10.813   2.035   8.668  0.5262  0.5523 -0.1128
59089SOL     OW84127   5.903  11.644   0.493 -0.2868  0.2353 -0.3614
59089SOL    HW184128   5.983  11.592   0.486 -1.2628 -1.4235  0.0670
59089SOL    HW284129   5.858  11.609   0.570 -1.3788  1.1812 -0.5414
59090SOL     OW84130   4.705   4.606   7.253  0.0060  0.3240  0.0596
59090SOL    HW184131   4.749   4.633   7.333  1.1173  0.3325 -0.5334
59090SOL    HW284132   4.753   4.528   7.224 -0.4510  0.2507 -0.5364
59091SOL     OW84133   4.694   6.982   9.106  0.3849 -0.0296  0.6584
59091SOL    HW184134   4.778   7.000   9.149  0.4174 -0.9173  0.9933
59091SOL    HW284135   4.702   6.891   9.077 -0.7577 -0.3699  1.3643
59092SOL     OW84136  12.437   3.548   4.641 -0.2629  0.2135  0.8923
59092SOL    HW184137  12.495   3.538   4.717 -1.3610  0.7370  1.8236
59092SOL    HW284138  12.360   3.496   4.662 -0.1441 -0.5137 -0.3586
59093SOL     OW84139  11.292   5.723   7.405 -0.3423 -0.3407  0.6861
59093SOL    HW184140  11.367   5.671   7.433  0.4373  0.9801  1.1398
59093SOL    HW284141  11.218   5.688   7.455  0.5993  0.4736  2.7839
59094SOL     OW84142   7.834  11.040  10.398 -0.1812  0.5789  0.3101
59094SOL    HW184143   7.836  11.116  10.340  0.2438  0.2533 -0.1088
59094SOL    HW284144   7.860  10.966  10.342 -0.6113  0.1196  0.7024
59095SOL     OW84145   6.554   4.511   8.938 -0.0163  0.5653  0.2097
59095SOL    HW184146   6.638   4.507   8.891 -0.6918 -0.7538 -0.9478
59095SOL    HW284147   6.544   4.604   8.960  0.7804  1.0944 -1.4486
59096SOL     OW84148  11.034   8.982   6.691  0.4884 -0.3842  0.3533
59096SOL    HW184149  10.960   8.924   6.709  0.4314  0.5040  3.6705
59096SOL    HW284150  10.998   9.051   6.636 -0.9479 -0.4374  1.1729
59097SOL     OW84151   0.377   3.755   2.044 -0.4807 -0.3726 -0.5165
59097SOL    HW184152   0.470   3.772   2.034 -1.0242  2.2238 -1.9327
59097SOL    HW284153   0.359   3.773   2.136  0.6361 -2.5746  0.2112
59098SOL     OW84154   5.578   3.601  10.319  0.2444  0.1301 -0.5089
59098SOL    HW184155   5.614   3.631  10.236 -0.2963 -1.9877 -1.5653
59098SOL    HW284156   5.494   3.647  10.328  1.1880  1.8926 -0.0732
59099SOL     OW84157   4.140   8.133   0.511 -0.3638  0.5479  1.0462
59099SOL    HW184158   4.222   8.131   0.560 -0.3006  0.5027  0.9386
59099SOL    HW284159   4.103   8.220   0.529 -0.7390  0.2323  1.8270
59100SOL     OW84160   2.000   8.672   7.926  0.0327 -0.0832  0.0922
59100SOL    HW184161   2.027   8.760   7.900 -0.7121 -0.4399 -2.1216
59100SOL    HW284162   2.043   8.614   7.862 -0.5395 -1.2125  0.6981
59101SOL     OW84163   6.212   1.711   3.303  0.2435  0.7196 -0.2676
59101SOL    HW184164   6.194   1.656   3.227  2.9564  1.0376 -1.2305
59101SOL    HW284165   6.130   1.759   3.316 -0.7229 -0.2573 -2.1904
59102SOL     OW84166  12.015   3.733  11.660 -0.4528  0.2882 -0.3400
59102SOL    HW184167  11.975   3.677  11.727 -1.3176  1.1137 -0.1614
59102SOL    HW284168  12.046   3.809  11.709  0.4022  0.1486 -0.6426
59103SOL     OW84169   3.290   3.102   6.164 -0.0565  0.1898 -0.2548
59103SOL    HW184170   3.233   3.160   6.114 -0.5379 -0.6756 -0.7499
59103SOL    HW284171   3.347   3.062   6.098  2.4382  2.3975  0.4300
59104SOL     OW84172  11.510  10.266  11.380  0.5653  0.6342  0.1574
59104SOL    HW184173  11.530  10.330  11.448  0.7012  0.5954  0.1535
59104SOL    HW284174  11.533  10.182  11.419  1.1164  0.6540 -0.1161
59105SOL     OW84175   1.787  12.256   9.573 -0.0878 -0.1928 -0.6966
59105SOL    HW184176   1.832  12.341   9.576  1.2631 -0.8303 -1.8113
59105SOL    HW284177   1.726  12.264   9.500 -2.0030  0.7205  0.9015
59106SOL     OW84178   2.096   5.716   2.422 -0.4012  0.2850  0.0895
59106SOL    HW184179   2.108   5.764   2.341 -0.6021 -0.2027 -0.2338
59106SOL    HW284180   2.180   5.672   2.437 -0.8244 -0.8210 -0.6527
59107SOL     OW84181   3.810   3.787  11.582  0.2284 -0.0095 -0.0347
59107SOL    HW184182   3.893   3.800  11.538  1.4342 -0.0590  2.0701
59107SOL    HW284183   3.821   3.830  11.667 -2.5844  1.6227 -0.3607
59108SOL     OW84184   8.229   9.634   6.109  0.2452 -0.3750 -0.3231
59108SOL    HW184185   8.199   9.722   6.132 -0.6778 -0.2398 -1.9129
59108SOL    HW284186   8.293   9.648   6.040  3.2712 -0.7497  2.2040
59109SOL     OW84187   1.178   6.202  11.658  0.6746 -0.4132 -0.2268
59109SOL    HW184188   1.217   6.137  11.599  0.3242 -1.4005  0.5950
59109SOL    HW284189   1.244   6.271  11.664  2.0479 -1.7301  0.6257
59110SOL     OW84190   9.401   0.435   7.579  0.0427  0.0948 -0.1931
59110SOL    HW184191   9.349   0.396   7.650 -0.6158  0.8678 -0.2275
59110SOL    HW284192   9.419   0.524   7.609  1.8353 -0.3256  0.0475
59111SOL     OW84193   3.767   0.634   3.755  0.3375 -0.1801  0.1822
59111SOL    HW184194   3.803   0.684   3.828  0.5272  0.5875 -0.4154
59111SOL    HW284195   3.748   0.700   3.688  0.2495 -0.8683 -0.4920
59112SOL     OW84196   8.000  10.072   6.047  0.4300  0.0772 -0.1418
59112SOL    HW184197   8.003  10.164   6.021  0.3181  0.0723 -0.1724
59112SOL    HW284198   7.907  10.052   6.056  0.4497 -0.0684 -0.2614
59113SOL     OW84199   5.989   7.454   2.752  0.1287 -0.1465  0.0540
59113SOL    HW184200   5.989   7.436   2.658 -1.1003  1.5531 -0.3145
59113SOL    HW284201   6.018   7.544   2.760  1.5786 -0.6838  1.4569
59114SOL     OW84202  12.116   8.535  10.046 -0.2601 -0.1131  0.3946
59114SOL    HW184203  12.192   8.487  10.080 -0.6914 -0.2900  1.1371
59114SOL    HW284204  12.045   8.471  10.049 -0.6887  0.3779  0.7656
59115SOL     OW84205   8.203   3.312   7.412 -0.1199  0.2272  0.1910
59115SOL    HW184206   8.206   3.264   7.495  0.2431  0.8011  0.5099
59115SOL    HW284207   8.207   3.243   7.345 -0.1263 -0.2212  0.6441
59116SOL     OW84208   9.073   0.447   0.953  0.1223  0.0305  0.0328
59116SOL    HW184209   9.069   0.458   1.048  2.8208  0.8995  0.1462
59116SOL    HW284210   9.132   0.516   0.924  0.5582 -1.1563 -2.0886
59117SOL     OW84211   6.091  12.259   3.518  0.2305  0.0884  0.2903
59117SOL    HW184212   6.020  12.273   3.581 -0.3001  0.1897 -0.3225
59117SOL    HW284213   6.083  12.330   3.456 -1.5539 -1.9292 -1.9862
59118SOL     OW84214  12.384   5.158   7.327 -0.4990  0.0077  0.5000
59118SOL    HW184215  12.395   5.109   7.246 -1.0696  1.2163 -0.3218
59118SOL    HW284216  12.329   5.102   7.382  1.4584 -1.6990  0.8625
59119SOL     OW84217   4.893   8.323   1.201 -0.4345 -0.1907 -0.2324
59119SOL    HW184218   4.838   8.309   1.124 -0.0870 -2.1740 -0.1851
59119SOL    HW284219   4.983   8.324   1.167 -0.2287 -1.7901  0.1661
59120SOL     OW84220   9.880   0.084  11.584  0.2163 -0.0319 -0.1299
59120SOL    HW184221   9.874   0.160  11.642 -1.3501 -0.2490  0.0508
59120SOL    HW284222   9.942   0.026  11.627  0.1252  0.4094  0.6217
59121SOL     OW84223   3.049   6.400   5.886  0.3391 -0.0206 -0.4530
59121SOL    HW184224   3.127   6.364   5.844  0.2974 -0.2043 -0.3716
59121SOL    HW284225   3.083   6.471   5.941  0.3103  0.7315 -1.3785
59122SOL     OW84226   2.641  11.276   9.790  0.2522 -0.1967  0.4991
59122SOL    HW184227   2.645  11.198   9.845  0.7946 -0.2853  0.3377
59122SOL    HW284228   2.712  11.265   9.727  0.7846  0.7548  0.9091
59123SOL     OW84229  10.412  10.405   6.778  0.3646 -0.1160 -0.0318
59123SOL    HW184230  10.500  10.376   6.802  1.6260  1.9973 -1.7476
59123SOL    HW284231  10.387  10.467   6.847  0.2345 -0.6510  0.4089
59124SOL     OW84232   2.405   1.916   9.720 -0.3548 -0.7268  0.3132
59124SOL    HW184233   2.447   2.001   9.734 -1.1640 -0.5873  2.1707
59124SOL    HW284234   2.342   1.932   9.650  0.1300 -0.0321  0.0237
59125SOL     OW84235   1.052   4.250   3.251 -0.0813  0.2682 -0.0357
59125SOL    HW184236   1.036   4.236   3.158 -1.1391  1.1153  0.0061
59125SOL    HW284237   1.104   4.174   3.277 -1.0604 -0.7782 -0.9870
59126SOL     OW84238   1.051   8.581   1.942  0.4076 -0.4232  0.3368
59126SOL    HW184239   1.092   8.592   1.856  3.3801  1.1851  1.7971
59126SOL    HW284240   1.039   8.670   1.974 -2.0208 -0.9557  1.0789
59127SOL     OW84241   6.273   3.277   0.808  0.1249 -0.0894 -0.0542
59127SOL    HW184242   6.343   3.329   0.849 -1.0294 -0.0496  1.9552
59127SOL    HW284243   6.193   3.326   0.827 -0.7334 -1.4484 -0.0882
59128SOL     OW84244   6.160   0.758   6.940 -0.2802 -1.2365 -0.0515
59128SOL    HW184245   6.138   0.849   6.956 -0.7480 -0.7522 -2.9025
59128SOL    HW284246   6.251   0.761   6.908  0.3115 -2.0150  1.4361
59129SOL     OW84247   0.260   4.870   4.913  0.4852  0.1952 -0.0764
59129SOL    HW184248   0.327   4.807   4.939 -0.0781 -0.5675 -0.3956
59129SOL    HW284249   0.211   4.888   4.994  1.1802  0.8982  0.1946
59130SOL     OW84250  10.600   6.594   7.387  0.3150  0.0433 -0.0729
59130SOL    HW184251  10.668   6.609   7.322 -0.5492 -0.9488 -1.2648
59130SOL    HW284252  10.567   6.681   7.408  1.3946  0.4672 -0.0750
59131SOL     OW84253  10.338   3.091  11.695  0.1920 -0.3360 -0.1727
59131SOL    HW184254  10.333   3.049  11.781  0.1369 -1.8865 -0.9040
59131SOL    HW284255  10.277   3.165  11.701 -1.3015 -1.5525  0.5354
59132SOL     OW84256   2.695   3.019  11.665  0.2561  0.2790  0.7050
59132SOL    HW184257   2.720   3.079  11.735  0.7609  1.3545 -0.3686
59132SOL    HW284258   2.726   3.061  11.585  1.5131 -1.9000 -0.0160
59133SOL     OW84259   8.289   7.445   3.720  0.2243  0.2833 -0.4448
59133SOL    HW184260   8.217   7.386   3.746 -0.2095  0.9165 -0.1773
59133SOL    HW284261   8.368   7.400   3.750 -0.0703 -0.3367 -0.5714
59134SOL     OW84262   7.973   6.008  11.863 -0.2106 -0.3976  0.3146
59134SOL    HW184263   8.008   5.919  11.869 -1.1142 -0.9755 -1.9869
59134SOL    HW284264   7.991   6.035  11.773  0.1220  1.8193  0.9849
59135SOL     OW84265   0.032   8.531   4.645 -0.5441 -0.0491  0.0092
59135SOL    HW184266   0.097   8.460   4.642  0.7467  1.1232 -1.3317
59135SOL    HW284267  -0.019   8.520   4.564 -0.2145  0.6462 -0.2990
59136SOL     OW84268  10.907   9.102   9.882  0.9697 -0.4690  0.1520
59136SOL    HW184269  10.983   9.119   9.826  1.3056 -0.4920  0.6049
59136SOL    HW284270  10.849   9.177   9.866  1.3879 -0.1052  0.3268
59137SOL     OW84271  10.930   2.832   8.163  0.8416  0.3051 -0.2910
59137SOL    HW184272  10.906   2.886   8.088  1.0431 -0.4291 -0.8872
59137SOL    HW284273  10.865   2.762   8.164 -0.0984  1.1171  1.1362
59138SOL     OW84274   5.282   9.350   1.316  0.1033  0.1402  1.0231
59138SOL    HW184275   5.359   9.388   1.273 -1.8289  4.4864  0.8700
59138SOL    HW284276   5.231   9.312   1.244  0.5193  0.3610  0.6008
59139SOL     OW84277  11.082   0.136   2.169 -0.4416 -0.3434  0.4125
59139SOL    HW184278  11.159   0.086   2.195 -0.6047 -1.2265 -0.7277
59139SOL    HW284279  11.022   0.071   2.134 -0.7194  0.6185 -1.0064
59140SOL     OW84280   3.826  12.280   0.789 -0.2188 -0.1519  0.1835
59140SOL    HW184281   3.876  12.234   0.856  0.0161 -2.9776 -1.7763
59140SOL    HW284282   3.890  12.303   0.722 -0.6934  1.3224  0.1886
59141SOL     OW84283  11.647   7.515   9.460 -0.1461 -0.2417  0.5018
59141SOL    HW184284  11.625   7.424   9.484  0.1856 -0.5571 -0.3496
59141SOL    HW284285  11.726   7.534   9.509  0.6600 -0.9604 -0.4843
59142SOL     OW84286   7.878   5.278   1.033 -0.0679 -0.1252 -0.0931
59142SOL    HW184287   7.888   5.191   0.997  0.6094 -0.3798  0.6818
59142SOL    HW284288   7.797   5.274   1.084 -0.2271 -0.1913 -0.3495
59143SOL     OW84289   5.929   2.783   5.944 -0.0472 -0.3381  0.2761
59143SOL    HW184290   6.013   2.739   5.955  0.0230 -0.0672  0.8128
59143SOL    HW284291   5.928   2.851   6.011 -0.6594 -0.2838  0.2140
59144SOL     OW84292  11.009   9.868  11.036 -0.0694 -0.5989 -0.5194
59144SOL    HW184293  11.064   9.946  11.032  0.1656 -0.7234  0.0941
59144SOL    HW284294  10.932   9.890  10.984  0.3685 -0.2642 -1.0293
59145SOL     OW84295   9.758   5.832   7.464  0.6946  0.4296 -0.1231
59145SOL    HW184296   9.727   5.907   7.515 -0.6308 -0.3253  0.2339
59145SOL    HW284297   9.713   5.839   7.380 -0.9287 -0.9342  0.5652
59146SOL     OW84298  11.818   4.718   1.253 -0.1365  0.1214  0.3436
59146SOL    HW184299  11.837   4.632   1.289  2.3837  0.7201  0.6693
59146SOL    HW284300  11.886   4.732   1.187 -1.7337  1.0470 -1.1783
59147SOL     OW84301   9.945   2.133   6.394 -0.0473 -0.1393  0.1223
59147SOL    HW184302  10.005   2.072   6.436 -0.6479 -0.2039  0.8961
59147SOL    HW284303   9.860   2.115   6.434 -0.1486  1.5207  0.6970
59148SOL     OW84304   9.090  10.046   3.978 -0.2169  0.0533  0.7979
59148SOL    HW184305   9.082  10.104   4.054 -0.4654 -1.9453  2.3545
59148SOL    HW284306   9.012  10.064   3.926  1.6431  4.1544 -1.1262
59149SOL     OW84307   9.516  10.976  12.232  0.2428  0.2917 -0.0787
59149SOL    HW184308   9.439  11.032  12.238 -1.5956 -2.0526 -0.2199
59149SOL    HW284309   9.535  10.973  12.138  0.4576  0.7823 -0.0550
59150SOL     OW84310   3.518  12.276   1.950  0.7741 -0.0698  0.3084
59150SOL    HW184311   3.537  12.340   2.018  3.0138 -0.2532 -0.0547
59150SOL    HW284312   3.497  12.329   1.873  0.3521  0.1738  0.5890
59151SOL     OW84313   0.597   7.899   1.072 -0.6054 -0.5614  0.6111
59151SOL    HW184314   0.652   7.822   1.062 -0.1267 -0.2352  0.6977
59151SOL    HW284315   0.603   7.921   1.165  0.2088  0.2710  0.3716
59152SOL     OW84316   4.376   5.066   2.815 -0.2600 -0.0127  0.2313
59152SOL    HW184317   4.321   4.988   2.824 -0.5563 -0.3324 -3.1089
59152SOL    HW284318   4.314   5.137   2.798  0.1825 -0.0812 -1.9378
59153SOL     OW84319   4.866   9.521   1.278  0.1392 -0.5826  0.0946
59153SOL    HW184320   4.779   9.536   1.241  0.8276  0.7099 -1.0718
59153SOL    HW284321   4.880   9.596   1.336  0.7073 -0.4750 -0.1782
59154SOL     OW84322   9.486   6.507   6.637 -0.4676 -0.0369 -0.1470
59154SOL    HW184323   9.508   6.423   6.677  2.1567  2.0995  3.4492
59154SOL    HW284324   9.410   6.539   6.686 -0.8086  0.1710 -0.7930
59155SOL     OW84325  11.306  11.589   9.816  0.3010  0.3563  0.3055
59155SOL    HW184326  11.361  11.575   9.893  0.5048 -1.4783 -0.1331
59155SOL    HW284327  11.218  11.599   9.851  0.5478  0.6841  0.8463
59156SOL     OW84328   9.798   7.233   7.720 -0.6169  0.2221  0.7432
59156SOL    HW184329   9.875   7.190   7.684 -0.1804 -0.4680  2.4028
59156SOL    HW284330   9.833   7.311   7.765 -0.8721 -0.0562  1.4432
59157SOL     OW84331   1.403  10.563  11.543 -0.2152 -0.0617 -0.6488
59157SOL    HW184332   1.442  10.646  11.515 -0.1833  0.3990  0.7218
59157SOL    HW284333   1.431  10.553  11.634  0.0387 -1.7370 -0.8797
59158SOL     OW84334  12.460  10.210  12.258 -0.1910 -0.2064  0.0239
59158SOL    HW184335  12.478  10.216  12.352 -0.7755 -1.7672  0.2490
59158SOL    HW284336  12.532  10.259  12.218  1.1132 -1.0755  1.1928
59159SOL     OW84337  10.023   5.161   4.299  0.1007  0.2083 -0.9752
59159SOL    HW184338  10.104   5.208   4.319  0.4541 -0.1102 -1.6263
59159SOL    HW284339  10.051   5.070   4.287 -0.3697  0.0773 -1.0693
59160SOL     OW84340   3.802   6.244   5.804 -0.1215  0.0641  0.2646
59160SOL    HW184341   3.771   6.328   5.770 -0.8605 -0.1877  0.3099
59160SOL    HW284342   3.790   6.183   5.731  0.3976 -0.0109  0.2369
59161SOL     OW84343   9.624   7.804   2.546  0.3590  0.4884 -0.1541
59161SOL    HW184344   9.613   7.776   2.637  3.1110  1.0983  0.4716
59161SOL    HW284345   9.539   7.787   2.505 -1.1413  0.6082  2.6202
59162SOL     OW84346  10.984   0.443   7.253  0.2275 -0.5347 -0.0234
59162SOL    HW184347  11.048   0.372   7.261 -0.5395 -1.1612  0.7907
59162SOL    HW284348  11.035   0.523   7.264  1.0609 -0.9700 -0.6566
59163SOL     OW84349   5.590   0.356   3.160  0.1707 -0.2959  0.8049
59163SOL    HW184350   5.546   0.330   3.241 -0.6293 -1.7366 -0.0458
59163SOL    HW284351   5.675   0.313   3.164  0.6150  0.5823  1.3716
59164SOL     OW84352   5.063   3.934   6.128  0.2326 -0.1548  0.3362
59164SOL    HW184353   5.065   3.952   6.222  0.6291 -0.6168  0.4214
59164SOL    HW284354   4.994   3.869   6.118 -0.0882  0.1958  0.2494
59165SOL     OW84355   1.065   8.748   0.227 -0.4223  0.8717 -0.1677
59165SOL    HW184356   1.013   8.747   0.307 -0.3054 -0.7815 -0.0786
59165SOL    HW284357   1.000   8.737   0.157 -0.4836  1.9281 -0.2955
59166SOL     OW84358   9.129   8.249   9.857 -0.2651  0.0909  0.5209
59166SOL    HW184359   9.087   8.301   9.925  0.4218  1.8573 -0.3506
59166SOL    HW284360   9.198   8.201   9.903 -0.9034 -0.0620  1.3378
59167SOL     OW84361   9.667   4.612   5.318  0.2663 -0.2964 -0.6812
59167SOL    HW184362   9.602   4.643   5.255  1.1300 -0.8379 -1.8607
59167SOL    HW284363   9.731   4.683   5.323  0.7053 -0.6519 -1.1590
59168SOL     OW84364  10.814   1.567   9.340  0.3028 -0.5957  0.3155
59168SOL    HW184365  10.878   1.550   9.271  1.2825 -0.7477  1.2387
59168SOL    HW284366  10.795   1.481   9.377 -0.3323 -0.5318  0.1373
59169SOL     OW84367   4.102   5.986   8.638  0.1205 -0.3566 -0.3716
59169SOL    HW184368   4.056   5.911   8.676 -0.4578  0.1791  0.0024
59169SOL    HW284369   4.037   6.030   8.584  0.5537 -0.3155 -0.8641
59170SOL     OW84370   8.854  11.092   8.466 -0.0818  0.1569  0.0145
59170SOL    HW184371   8.801  11.036   8.524  2.3377 -0.4399  1.8225
59170SOL    HW284372   8.842  11.180   8.502 -1.1395  0.2980 -0.6494
59171SOL     OW84373   9.663   6.550   3.084 -0.0309  0.2170  0.0051
59171SOL    HW184374   9.731   6.618   3.089  0.8622 -0.4309 -2.0197
59171SOL    HW284375   9.628   6.559   2.995 -2.0200 -0.0312  0.7337
59172SOL     OW84376   0.244  11.314   2.159 -0.5199  0.0136 -0.1846
59172SOL    HW184377   0.197  11.314   2.243 -2.0802  0.4126 -1.0137
59172SOL    HW284378   0.251  11.406   2.135  1.6718  0.0460  0.3987
59173SOL     OW84379  12.324   9.623   9.476  0.1214  0.3186 -0.3099
59173SOL    HW184380  12.246   9.678   9.468 -0.5472 -0.4892  0.3675
59173SOL    HW284381  12.310   9.575   9.558  0.8675 -0.5503 -0.6770
59174SOL     OW84382   5.583   7.258   6.970 -0.0596 -0.5111 -0.0498
59174SOL    HW184383   5.512   7.251   7.034 -0.0087 -2.7512 -0.1510
59174SOL    HW284384   5.542   7.295   6.892 -0.6981 -0.1289  0.4593
59175SOL     OW84385   6.752  10.050   0.919 -0.6193 -0.2485  0.2487
59175SOL    HW184386   6.824  10.090   0.970 -0.1741 -1.9063  0.9833
59175SOL    HW284387   6.795  10.015   0.841 -0.6331 -1.1846  0.6565
59176SOL     OW84388   4.030   7.030  10.282 -0.1486  0.5519  0.3419
59176SOL    HW184389   3.951   7.006  10.330 -0.0148  1.4493  1.0375
59176SOL    HW284390   4.028   7.125  10.277 -1.1697  0.5121 -3.1648
59177SOL     OW84391   1.182  10.028   0.299 -0.1401 -0.1192 -0.7505
59177SOL    HW184392   1.167  10.122   0.302  0.3215 -0.0558 -0.2959
59177SOL    HW284393   1.256  10.013   0.358 -1.4568 -0.9995  0.7743
59178SOL     OW84394   6.843   6.129   8.739 -0.5111  0.3690  0.7349
59178SOL    HW184395   6.823   6.208   8.689 -0.7347 -1.6664 -2.7355
59178SOL    HW284396   6.939   6.130   8.748 -0.4196  0.5407 -0.1907
59179SOL     OW84397   7.124   9.046   2.584  0.7456  0.0473 -0.2994
59179SOL    HW184398   7.134   8.951   2.583  0.0435 -0.0569  0.9087
59179SOL    HW284399   7.032   9.061   2.564  1.4174  0.6529 -3.5203
59180SOL     OW84400   1.285   4.501  10.030  0.7229  0.0691 -0.2011
59180SOL    HW184401   1.248   4.480   9.944 -0.9270  1.5095  0.1080
59180SOL    HW284402   1.260   4.592  10.045  1.8552  0.1522  1.3893
59181SOL     OW84403  11.357   8.647   1.690  0.0444  0.3315  0.0291
59181SOL    HW184404  11.333   8.671   1.600  0.3491 -0.3944 -0.2508
59181SOL    HW284405  11.305   8.569   1.708 -0.4189  0.7824  0.6863
59182SOL     OW84406   0.065   4.463   2.937  0.6092  0.4159  0.3849
59182SOL    HW184407   0.013   4.409   2.997 -0.5860  0.1377 -0.8556
59182SOL    HW284408   0.098   4.534   2.991 -1.3224  0.7680  1.1713
59183SOL     OW84409   8.303   7.714   3.045 -0.8036 -0.0337  0.9020
59183SOL    HW184410   8.279   7.635   2.997  0.6059 -1.2086  2.0279
59183SOL    HW284411   8.369   7.757   2.991  0.3048 -1.0131  1.4294
59184SOL     OW84412  10.773   3.840   3.851 -1.1337 -0.4618  0.1735
59184SOL    HW184413  10.795   3.927   3.885  0.6593 -0.6075 -0.4920
59184SOL    HW284414  10.848   3.785   3.876 -0.3811 -0.9002 -2.6908
59185SOL     OW84415   7.645  11.629  11.636  0.2138 -0.2409  0.1051
59185SOL    HW184416   7.658  11.721  11.611  0.1429 -0.4045 -0.5551
59185SOL    HW284417   7.729  11.588  11.616 -0.1018 -0.5379 -0.6224
59186SOL     OW84418   5.408   0.429   5.778 -0.3148  0.0747 -0.5869
59186SOL    HW184419   5.324   0.383   5.775 -0.4100  0.2587 -0.7986
59186SOL    HW284420   5.409   0.473   5.863  0.3607 -1.4047  0.2115
59187SOL     OW84421  11.490   6.732   4.425  0.1269 -0.1408 -0.1892
59187SOL    HW184422  11.462   6.823   4.428  1.4523  0.4592 -2.6691
59187SOL    HW284423  11.568   6.729   4.480  1.0717  0.6979 -1.4164
59188SOL     OW84424  11.529   8.998   4.080 -0.0675 -0.4854 -0.1375
59188SOL    HW184425  11.530   9.073   4.139 -0.0278 -0.8872  0.3801
59188SOL    HW284426  11.611   9.005   4.030  0.1346 -0.4117  0.2024
59189SOL     OW84427   7.748   1.830   3.486 -0.0534 -0.4367  0.0928
59189SOL    HW184428   7.812   1.761   3.505 -0.9894 -1.3433  0.0372
59189SOL    HW284429   7.691   1.832   3.563 -0.2404  0.0543 -0.0516
59190SOL     OW84430   8.438   7.588   3.317 -0.0619  0.0273 -0.2397
59190SOL    HW184431   8.526   7.625   3.312 -0.0771  0.0646 -0.2369
59190SOL    HW284432   8.438   7.518   3.252  0.1948 -0.4536  0.2736
59191SOL     OW84433   9.266   4.362  11.004  0.1009  0.2715  0.2732
59191SOL    HW184434   9.307   4.292  10.953 -0.6032  0.1611 -0.1467
59191SOL    HW284435   9.287   4.442  10.955  1.5772  0.4808  1.1644
59192SOL     OW84436  10.109   2.401   6.486 -0.1291 -0.5820  0.1573
59192SOL    HW184437  10.159   2.424   6.565  1.1387 -0.0901 -0.7518
59192SOL    HW284438  10.134   2.310   6.468 -0.9778 -0.9391  0.7057
59193SOL     OW84439  10.638   2.969   3.429 -0.4493 -0.2012  0.4813
59193SOL    HW184440  10.570   3.002   3.488  0.9658  0.2886  1.9424
59193SOL    HW284441  10.645   2.876   3.451 -0.1807 -0.0983  0.8573
59194SOL     OW84442  12.224  10.669   5.426 -0.2055  0.5452  0.0900
59194SOL    HW184443  12.139  10.644   5.463 -0.6930  2.6649  0.5263
59194SOL    HW284444  12.211  10.757   5.392  1.4944  0.4250 -1.0029
59195SOL     OW84445  11.926  12.466   3.520 -0.4953  0.3164 -0.5068
59195SOL    HW184446  11.861  12.479   3.589 -0.9143 -0.1037 -0.8174
59195SOL    HW284447  11.949  12.374   3.526  0.0630  0.4614 -0.4095
59196SOL     OW84448   0.428   9.272  11.413 -0.1751 -0.0417 -0.1456
59196SOL    HW184449   0.509   9.221  11.406 -1.0336 -1.5442  0.3073
59196SOL    HW284450   0.376   9.226  11.479 -0.6178  2.0243  1.0231
59197SOL     OW84451   1.368   9.104  10.557  0.1940  0.4361  0.0114
59197SOL    HW184452   1.336   9.177  10.609 -0.5858  0.1062  0.0074
59197SOL    HW284453   1.291   9.050  10.540  0.4158  0.5575 -1.5341
59198SOL     OW84454   9.610   4.005   0.787 -0.1318  0.2041 -0.3518
59198SOL    HW184455   9.627   4.072   0.721 -2.3096 -1.3023 -2.6827
59198SOL    HW284456   9.556   4.048   0.853  1.3328  1.5314  0.0221
59199SOL     OW84457  11.910   0.661   3.970 -0.0019  0.8218  0.1552
59199SOL    HW184458  11.983   0.702   3.924 -0.3127  0.1849 -0.9628
59199SOL    HW284459  11.832   0.707   3.936 -0.3591 -0.6782 -1.1814
59200SOL     OW84460  10.551   3.272  10.208  0.3608 -0.0874  0.0211
59200SOL    HW184461  10.618   3.228  10.156  0.0233  1.4971 -1.8776
59200SOL    HW284462  10.583   3.361  10.218 -0.7670  0.2923  0.3915
59201SOL     OW84463  10.757   6.157   8.246 -0.4370 -0.1252  0.3003
59201SOL    HW184464  10.762   6.215   8.170  0.9615  0.5667  0.8863
59201SOL    HW284465  10.666   6.126   8.247 -1.0090  1.4360 -0.4819
59202SOL     OW84466  11.310   3.626   8.415 -0.0889 -0.6037  0.3294
59202SOL    HW184467  11.379   3.652   8.476 -1.2073  1.4923  0.8269
59202SOL    HW284468  11.345   3.551   8.368  1.5508 -1.1135  2.2481
59203SOL     OW84469   7.341   4.853   0.676  0.3822 -0.1328  0.4933
59203SOL    HW184470   7.260   4.806   0.656 -0.3463  0.5539  1.6936
59203SOL    HW284471   7.332   4.937   0.631  0.4053 -0.0437  0.6537
59204SOL     OW84472   9.205   5.654   9.491 -0.4328 -0.2155  0.2655
59204SOL    HW184473   9.205   5.696   9.577 -1.2250 -0.1970  0.2576
59204SOL    HW284474   9.200   5.727   9.429  3.1174  0.0359  0.0335
59205SOL     OW84475   3.583   3.013   6.583  0.1525 -0.4550  0.0434
59205SOL    HW184476   3.504   3.034   6.534  0.2051  0.8264  0.4597
59205SOL    HW284477   3.551   2.979   6.667  0.0617 -1.4227 -0.3729
59206SOL     OW84478   3.292   7.162   3.968 -0.1858  0.4454 -0.0181
59206SOL    HW184479   3.219   7.153   4.029 -1.5210 -2.0114 -1.7941
59206SOL    HW284480   3.370   7.161   4.024 -1.3478 -1.0145  1.7034
59207SOL     OW84481   6.383   4.428   0.414  0.5040 -0.0688 -0.8860
59207SOL    HW184482   6.341   4.344   0.392  2.1709 -0.9337 -0.9444
59207SOL    HW284483   6.324   4.469   0.477  0.4832 -2.1262  0.5340
59208SOL     OW84484   8.765   2.154   9.834  0.4420 -0.5500 -0.4623
59208SOL    HW184485   8.834   2.119   9.778  0.8417 -0.7609  0.1498
59208SOL    HW284486   8.686   2.107   9.806  1.0496 -2.3854  0.6742
59209SOL     OW84487   1.427  12.050  10.286 -0.1670  0.2905  0.2086
59209SOL    HW184488   1.391  12.015  10.204 -0.1473  0.1272  0.2696
59209SOL    HW284489   1.405  11.984  10.352  2.4677 -1.1075 -0.1729
59210SOL     OW84490   8.437   2.740   8.819 -0.0455  0.1571  0.2361
59210SOL    HW184491   8.384   2.670   8.855 -0.5368  0.9272  1.0586
59210SOL    HW284492   8.432   2.729   8.724  0.6632 -1.4709  0.3636
59211SOL     OW84493   4.808   0.499   6.976  0.1222 -0.2871 -0.2621
59211SOL    HW184494   4.857   0.474   7.054  1.0791  0.1885 -0.6959
59211SOL    HW284495   4.757   0.575   7.003 -1.9390 -1.9188  0.7443
59212SOL     OW84496   9.586  12.003   9.957  0.4984 -0.1379 -0.3120
59212SOL    HW184497   9.658  11.965   9.907 -1.7434 -1.8089 -2.5439
59212SOL    HW284498   9.574  11.944  10.031  1.6207  0.3882  0.3178
59213SOL     OW84499   8.709  11.690   6.535  0.6313  0.1645 -0.6384
59213SOL    HW184500   8.794  11.668   6.575  1.6773  1.8282 -1.8331
59213SOL    HW284501   8.676  11.762   6.589 -0.8213 -1.4788  0.7718
59214SOL     OW84502   4.301   6.768   0.094  0.2027  0.2324 -0.1682
59214SOL    HW184503   4.236   6.828   0.129  0.7400  0.8627 -0.2341
59214SOL    HW284504   4.312   6.701   0.161 -1.4412 -0.5934 -0.6901
59215SOL     OW84505   1.753   6.887   4.036 -0.7779  0.6936  0.0492
59215SOL    HW184506   1.822   6.943   4.072 -0.3200 -0.1003  0.4186
59215SOL    HW284507   1.794   6.802   4.025 -1.4198  0.4669 -0.6931
59216SOL     OW84508   7.675  10.035   2.106  0.5883 -0.0673  0.1352
59216SOL    HW184509   7.593   9.995   2.076  0.2982  0.8738 -0.3685
59216SOL    HW284510   7.651  10.083   2.185  0.5648  0.4774 -0.1925
59217SOL     OW84511   9.607   5.567   1.735  0.6866 -0.1452 -0.1688
59217SOL    HW184512   9.515   5.561   1.760 -0.0504  1.4546 -2.2284
59217SOL    HW284513   9.624   5.485   1.688 -0.5866  0.7576 -2.3189
59218SOL     OW84514   8.204   9.005   9.664 -0.3276  0.2915 -0.2499
59218SOL    HW184515   8.172   8.961   9.586  1.3182 -0.4930 -0.5267
59218SOL    HW284516   8.257   9.077   9.630 -2.0563  1.8689  0.1965
59219SOL     OW84517   9.905   1.180   3.136  0.2296 -0.0364 -0.3188
59219SOL    HW184518   9.904   1.087   3.112 -0.6021  0.3967 -2.0616
59219SOL    HW284519   9.974   1.186   3.202 -0.3304 -2.0499  0.5333
59220SOL     OW84520   2.997   9.428   6.041  0.0030 -0.0393  0.1937
59220SOL    HW184521   2.997   9.345   5.992 -0.2573  1.2732 -2.1828
59220SOL    HW284522   2.912   9.431   6.083  0.7223 -1.8071  1.9250
59221SOL     OW84523   6.324   8.179   2.423  0.0555  0.2701  0.1381
59221SOL    HW184524   6.300   8.270   2.441  0.6633  0.4354  0.1608
59221SOL    HW284525   6.414   8.171   2.455  0.0482 -0.3094  0.0352
59222SOL     OW84526   7.169   4.494   0.239  0.3581 -0.1996 -0.1887
59222SOL    HW184527   7.153   4.570   0.183  1.2657 -0.6161 -1.0503
59222SOL    HW284528   7.230   4.526   0.306 -2.8905  1.0946  2.4511
59223SOL     OW84529   1.648   5.187   0.836  0.0409  0.6097  0.1201
59223SOL    HW184530   1.600   5.261   0.873  1.7253  2.0486 -0.4917
59223SOL    HW284531   1.580   5.121   0.819 -1.0087  0.0181  5.0488
59224SOL     OW84532   8.693   7.436  11.558  0.0526 -0.4860 -0.4492
59224SOL    HW184533   8.731   7.468  11.639  2.8249 -0.7521 -1.5529
59224SOL    HW284534   8.613   7.488  11.548  0.6464  0.9179  1.4594
59225SOL     OW84535   9.959   0.094   9.577 -0.3752 -0.4551  0.4978
59225SOL    HW184536   9.911   0.159   9.628  0.1338 -0.3718  0.8808
59225SOL    HW284537  10.039   0.138   9.550 -0.2160 -0.7906  0.4072
59226SOL     OW84538   5.221   7.167   2.273  0.6443 -0.1166 -0.1518
59226SOL    HW184539   5.152   7.120   2.318 -1.0300  1.8983 -0.4663
59226SOL    HW284540   5.180   7.199   2.192  1.8677  1.2888 -0.2586
59227SOL     OW84541   9.316  10.132   2.627  0.2696  0.7060  0.3356
59227SOL    HW184542   9.337  10.056   2.681 -0.5641  0.0307 -0.2557
59227SOL    HW284543   9.295  10.201   2.690 -0.0847  0.1072  0.8860
59228SOL     OW84544   6.957  12.119   9.149  0.2317  0.1527  0.2611
59228SOL    HW184545   6.920  12.045   9.102 -1.2940  0.0210  1.5815
59228SOL    HW284546   7.013  12.080   9.216  0.6755  0.2705 -0.0312
59229SOL     OW84547   6.270   4.637   5.702  0.2426 -0.0998 -0.4532
59229SOL    HW184548   6.199   4.699   5.687  0.1395  0.1234  0.8822
59229SOL    HW284549   6.340   4.689   5.742  0.3250 -0.7309  0.2532
59230SOL     OW84550   1.681   6.488   5.710 -0.5012  0.1989 -0.1177
59230SOL    HW184551   1.690   6.513   5.802  2.2574 -0.5935 -0.0940
59230SOL    HW284552   1.601   6.532   5.681 -0.3898  2.0504  2.1307
59231SOL     OW84553   6.039   7.352   4.305 -0.5949 -0.0039 -0.0176
59231SOL    HW184554   5.954   7.339   4.263 -0.6495  0.2286  0.0210
59231SOL    HW284555   6.078   7.265   4.306 -1.4458 -0.4082  1.3015
59232SOL     OW84556   8.145   5.118   7.651 -0.0314 -0.2324  0.7202
59232SOL    HW184557   8.064   5.083   7.689  0.7644 -0.8796  1.8689
59232SOL    HW284558   8.157   5.067   7.571 -1.2881  0.5805 -0.0345
59233SOL     OW84559   4.562   8.233  12.202  0.0212 -0.1126 -0.1572
59233SOL    HW184560   4.621   8.188  12.141 -0.5464  0.4441 -1.1402
59233SOL    HW284561   4.619   8.297  12.246  0.5754 -0.9705  0.4001
59234SOL     OW84562   2.574   3.837   0.087  0.5452  0.4400  0.5881
59234SOL    HW184563   2.570   3.884   0.171 -1.7867  1.2529  0.0948
59234SOL    HW284564   2.667   3.819   0.075  0.9452  0.0168  3.4843
59235SOL     OW84565  12.309   3.047   6.842  0.2359 -0.3082 -0.1785
59235SOL    HW184566  12.358   2.975   6.883 -1.5693 -1.5245 -0.0599
59235SOL    HW284567  12.247   3.074   6.910  0.2799  0.7592 -0.5541
59236SOL     OW84568   8.978   0.988   7.702 -0.3702  0.1362  0.0795
59236SOL    HW184569   9.034   0.925   7.656 -0.6783 -0.0765 -0.0050
59236SOL    HW284570   9.029   1.012   7.780 -0.7561 -1.1518  0.7612
59237SOL     OW84571   1.038   7.670   7.214  0.2834 -0.3957  0.5031
59237SOL    HW184572   1.065   7.627   7.133 -1.5765 -0.0465 -0.3544
59237SOL    HW284573   1.120   7.698   7.255  1.2553 -0.3688 -1.3592
59238SOL     OW84574  12.239   6.830   2.790  0.2042  0.0470 -0.5198
59238SOL    HW184575  12.313   6.775   2.761  1.8770  2.0773 -0.3668
59238SOL    HW284576  12.180   6.831   2.715  1.4753  0.2142 -1.5679
59239SOL     OW84577  12.334   8.317  11.796  0.2917  0.2110 -0.0877
59239SOL    HW184578  12.343   8.411  11.814 -0.3837  0.5284 -1.3109
59239SOL    HW284579  12.422   8.290  11.768  0.5829  0.3800  0.6360
59240SOL     OW84580  10.973   3.544   9.656  0.5311 -0.4041 -0.4324
59240SOL    HW184581  10.958   3.616   9.595 -1.5557 -0.9668 -0.6596
59240SOL    HW284582  10.906   3.554   9.723 -1.4091 -3.3379 -1.6966
59241SOL     OW84583  11.720  10.495   7.059 -0.9282 -0.2533 -0.2398
59241SOL    HW184584  11.682  10.529   7.140  0.4092  1.0527 -0.1132
59241SOL    HW284585  11.806  10.462   7.084 -0.5424  0.0564 -1.0931
59242SOL     OW84586   7.005  12.465   6.863  0.0019 -0.9665 -0.6182
59242SOL    HW184587   7.084  12.500   6.905 -1.0128 -0.8564  1.3338
59242SOL    HW284588   6.956  12.543   6.835 -1.0549 -0.8267  1.4294
59243SOL     OW84589   5.329   2.948   6.554 -0.1322  0.0972 -0.1932
59243SOL    HW184590   5.335   3.040   6.582  0.8054  0.5878 -1.8516
59243SOL    HW284591   5.309   2.953   6.460 -1.0888 -1.4314 -0.1022
59244SOL     OW84592   6.822   4.743   9.670 -0.0412  0.1400  0.0410
59244SOL    HW184593   6.805   4.664   9.721 -1.0667  0.2448 -0.1323
59244SOL    HW284594   6.823   4.713   9.579  1.1693  0.0613  0.0590
59245SOL     OW84595   9.201   6.384   9.678  0.9954 -0.2668 -0.1746
59245SOL    HW184596   9.295   6.401   9.688  1.3709 -0.7159 -2.4044
59245SOL    HW284597   9.164   6.468   9.650  0.4559  0.2422  1.8715
59246SOL     OW84598   6.247  11.713   9.254  0.0426  0.1114 -0.1957
59246SOL    HW184599   6.164  11.709   9.302 -0.0468 -0.0742 -0.3614
59246SOL    HW284600   6.261  11.623   9.224  0.3133  0.1389 -0.1516
59247SOL     OW84601  12.352   3.804   0.904 -0.5366 -0.1632 -0.1141
59247SOL    HW184602  12.408   3.787   0.828  0.3174 -0.0286  0.4754
59247SOL    HW284603  12.263   3.791   0.871 -0.1926  0.1202 -1.1974
59248SOL     OW84604   3.922   5.804   2.660 -0.1618 -0.7695  0.8229
59248SOL    HW184605   3.998   5.756   2.627  0.0170  0.2834 -0.3660
59248SOL    HW284606   3.871   5.738   2.707  0.7317 -1.8268  0.3636
59249SOL     OW84607   7.420  10.299   2.771  0.4324  0.4306  0.3206
59249SOL    HW184608   7.327  10.310   2.787  0.2948  2.7490 -1.4517
59249SOL    HW284609   7.426  10.225   2.711 -0.3418  0.6066  0.0155
59250SOL     OW84610   5.972  11.255  12.206 -0.3165  0.1281 -0.3366
59250SOL    HW184611   5.953  11.343  12.238 -1.3651 -0.7133  1.4789
59250SOL    HW284612   6.065  11.242  12.226 -0.5562  0.2352  0.9057
59251SOL     OW84613   0.248   1.098  12.378  0.0368 -0.0453 -0.0463
59251SOL    HW184614   0.244   1.164  12.448  0.5747  1.1042 -1.0732
59251SOL    HW284615   0.156   1.078  12.360 -0.1297  0.2485  0.4401
59252SOL     OW84616   0.000   6.514   6.559  0.1462 -0.0127  0.5382
59252SOL    HW184617  -0.023   6.607   6.551  0.5216 -0.0257 -0.9688
59252SOL    HW284618  -0.032   6.475   6.478 -0.9706 -1.4351  1.6213
59253SOL     OW84619  11.848   6.549   9.894 -0.2594 -0.1407 -0.1608
59253SOL    HW184620  11.925   6.506   9.932 -1.6559 -1.8232  0.8942
59253SOL    HW284621  11.809   6.598   9.966 -0.1304  0.8346 -0.7293
59254SOL     OW84622   4.521   4.504   8.595  0.1964  0.5067  0.5802
59254SOL    HW184623   4.605   4.546   8.612  0.3315  1.7008 -2.4410
59254SOL    HW284624   4.542   4.418   8.561  0.1640  0.4624  0.6719
59255SOL     OW84625   2.599   8.793   0.687 -0.2451 -0.0459 -0.2127
59255SOL    HW184626   2.661   8.771   0.618 -0.3428  0.5608 -0.5071
59255SOL    HW284627   2.642   8.767   0.768  0.5822  0.7539 -0.3766
59256SOL     OW84628   2.490  10.183   6.415  0.7035 -0.1825 -0.4264
59256SOL    HW184629   2.419  10.190   6.351  0.3914  1.2994  0.0528
59256SOL    HW284630   2.460  10.234   6.490  0.6008 -2.7493  1.3939
59257SOL     OW84631   0.126   7.305  11.595 -0.0582  0.4105  0.0088
59257SOL    HW184632   0.128   7.270  11.684 -0.7909  1.4689  0.4587
59257SOL    HW284633   0.109   7.228  11.540  0.4911 -0.2673  0.7656
59258SOL     OW84634   1.095   6.419   1.115  0.4097  0.4405  0.4642
59258SOL    HW184635   1.085   6.484   1.184  1.3762  0.8263  0.2504
59258SOL    HW284636   1.006   6.400   1.087  0.1315  2.1373  0.0956
59259SOL     OW84637   5.702   1.178   6.661  0.0861 -0.4838 -0.8706
59259SOL    HW184638   5.657   1.262   6.672 -0.8271 -1.2268  1.8982
59259SOL    HW284639   5.682   1.152   6.571 -4.2329 -0.2147 -0.1914
59260SOL     OW84640   1.039   5.541  12.416 -0.3797  0.6395 -0.0601
59260SOL    HW184641   0.947   5.555  12.394 -0.4744 -1.5654 -1.3324
59260SOL    HW284642   1.087   5.589  12.349 -0.6021  0.8486 -0.0718
59261SOL     OW84643   4.326   8.788   7.787 -0.1287 -0.0100  0.0041
59261SOL    HW184644   4.317   8.769   7.880 -2.3724 -0.2517 -0.2109
59261SOL    HW284645   4.335   8.702   7.745 -3.7419 -0.3774 -0.3480
59262SOL     OW84646   9.073  11.337   5.645 -0.6459  0.1102  0.1122
59262SOL    HW184647   9.147  11.358   5.588  0.2228 -0.9831  0.7840
59262SOL    HW284648   9.054  11.418   5.691  0.6120  0.2430  0.4351
59263SOL     OW84649   2.525   6.855   7.983  0.2303 -0.1821  0.3060
59263SOL    HW184650   2.464   6.923   8.012 -2.0206 -1.5982 -0.8350
59263SOL    HW284651   2.577   6.897   7.915 -1.2725  0.4030 -0.5395
59264SOL     OW84652   7.122   6.535   7.181 -0.6427  0.1386  0.0717
59264SOL    HW184653   7.081   6.524   7.095 -1.0128  1.7106  0.0159
59264SOL    HW284654   7.075   6.609   7.220  1.0494  0.9362  0.6840
59265SOL     OW84655  11.279  12.273  12.396  0.0471 -0.2377  0.3025
59265SOL    HW184656  11.206  12.260  12.456 -0.8927  1.6420 -0.3795
59265SOL    HW284657  11.269  12.362  12.364  0.4600 -1.1602 -2.7149
59266SOL     OW84658   0.813   0.011   0.373 -0.1365 -0.2410 -0.3426
59266SOL    HW184659   0.814   0.063   0.293  0.2278 -0.7894 -0.7030
59266SOL    HW284660   0.785  -0.076   0.345 -1.6030 -0.0282  0.3987
59267SOL     OW84661   9.524   5.061  10.229  0.2297 -0.3031 -0.4527
59267SOL    HW184662   9.459   5.027  10.290 -1.1344  1.1322 -1.0323
59267SOL    HW284663   9.476   5.073  10.147  0.8704  1.9553 -0.5687
59268SOL     OW84664   8.010   2.422   8.165 -0.6101  0.2964 -0.3447
59268SOL    HW184665   8.019   2.368   8.244  2.1572  0.7035 -0.2779
59268SOL    HW284666   8.036   2.510   8.192 -1.2717  0.8138 -1.3294
59269SOL     OW84667   0.570   8.385   7.003  0.4192  0.0106  0.0487
59269SOL    HW184668   0.521   8.308   7.028 -2.1456  1.6313  0.3651
59269SOL    HW284669   0.577   8.437   7.084  1.4297  0.4632 -0.3104
59270SOL     OW84670  12.315   3.887   3.076  0.4388  0.1003  0.2102
59270SOL    HW184671  12.289   3.956   3.016  0.4633 -1.4095 -1.6223
59270SOL    HW284672  12.295   3.922   3.163 -1.8900  1.4225 -0.7652
59271SOL     OW84673   3.032   4.100   1.454 -0.9514  0.4223  0.7646
59271SOL    HW184674   3.058   4.066   1.368 -1.6323  0.3391  0.5821
59271SOL    HW284675   3.015   4.022   1.506 -1.1093  0.4746  0.7923
59272SOL     OW84676   9.546   0.471   0.248  0.1572  0.1260 -0.1282
59272SOL    HW184677   9.640   0.454   0.236  0.2751 -1.0165  1.8941
59272SOL    HW284678   9.516   0.501   0.163  2.8355  2.8885 -0.2667
59273SOL     OW84679  11.583  12.170   9.005 -0.8335  0.0569  0.1946
59273SOL    HW184680  11.495  12.205   8.989 -1.5485 -1.8831 -0.3566
59273SOL    HW284681  11.603  12.195   9.095 -2.0720  0.2872  0.4200
59274SOL     OW84682   5.964   7.253   7.364 -0.7942 -0.0219 -0.2273
59274SOL    HW184683   5.891   7.207   7.322 -0.3642 -0.2446 -0.7513
59274SOL    HW284684   6.000   7.308   7.295  0.9586 -1.6156 -0.6694
59275SOL     OW84685  10.196   4.938  10.884  0.3232  0.1511  0.5803
59275SOL    HW184686  10.105   4.959  10.902  0.2826  0.8662 -0.3626
59275SOL    HW284687  10.215   4.981  10.801  1.4208 -0.2798  0.5800
59276SOL     OW84688   6.580   6.058   8.103 -0.0603  0.7002 -0.0285
59276SOL    HW184689   6.503   6.068   8.047 -1.2544 -1.7941  1.0163
59276SOL    HW284690   6.637   6.130   8.077 -0.5626 -0.1647 -4.3667
59277SOL     OW84691   5.893   7.743   8.851 -0.1426  0.6333  0.4029
59277SOL    HW184692   5.832   7.817   8.857  0.9160  1.5127  0.7808
59277SOL    HW284693   5.870   7.687   8.925 -1.8636 -0.1720 -0.6835
59278SOL     OW84694  11.055  11.776  10.496 -0.0765 -0.4250 -0.3899
59278SOL    HW184695  11.145  11.746  10.484  0.5801  0.7637  1.1683
59278SOL    HW284696  11.057  11.827  10.577 -2.3302 -1.0006  0.1044
59279SOL     OW84697   9.758   8.978   2.320  0.9170 -0.4177  0.5152
59279SOL    HW184698   9.723   8.928   2.246  0.7048 -0.0364  0.3536
59279SOL    HW284699   9.837   9.020   2.285  0.1988  0.6821  0.1564
59280SOL     OW84700   3.201  10.638   0.779  0.3178  1.0321  0.4629
59280SOL    HW184701   3.181  10.557   0.732  0.2653  0.5008  1.3799
59280SOL    HW284702   3.295  10.650   0.767  0.4644  0.4175  0.9700
59281SOL     OW84703  11.471   9.060   1.428  0.5968  0.2564 -0.0508
59281SOL    HW184704  11.387   9.096   1.399  0.2758 -0.3775  0.0578
59281SOL    HW284705  11.489   8.989   1.366 -0.3949 -1.5179  1.5560
59282SOL     OW84706   4.432   4.114   9.869  0.2022  0.2370  0.3561
59282SOL    HW184707   4.497   4.130   9.800  1.9477 -1.5916  1.4767
59282SOL    HW284708   4.473   4.148   9.949 -1.0755  0.8039  0.7935
59283SOL     OW84709   9.791   8.374  12.040  0.3904 -0.5252  0.0239
59283SOL    HW184710   9.787   8.443  11.974 -2.3740 -0.4159  0.1772
59283SOL    HW284711   9.794   8.292  11.990  2.2390 -0.3643 -0.1664
59284SOL     OW84712   2.592   3.082   5.762  0.4992  0.1120 -0.0994
59284SOL    HW184713   2.595   3.154   5.825  0.6854  0.7205 -0.7841
59284SOL    HW284714   2.642   3.114   5.687  0.4619 -0.6803 -0.4723
59285SOL     OW84715   5.307   1.353   2.962  0.1389  0.5763 -0.2893
59285SOL    HW184716   5.316   1.281   2.899 -0.2503  0.7449 -0.5433
59285SOL    HW284717   5.364   1.328   3.035  0.7803  0.4984 -0.8126
59286SOL     OW84718  11.866   9.369   0.313 -0.0355  0.1018 -0.0989
59286SOL    HW184719  11.860   9.307   0.386 -1.3511  0.2416 -0.0552
59286SOL    HW284720  11.897   9.450   0.352  0.6840 -0.2350  0.0341
59287SOL     OW84721   9.672  11.897   5.698 -0.1650  0.2572  0.4362
59287SOL    HW184722   9.705  11.966   5.756  0.7884  0.2436 -0.0545
59287SOL    HW284723   9.750  11.868   5.650 -0.7059 -0.5927  0.0481
59288SOL     OW84724   8.194   7.598   8.577 -0.1283  0.5367 -0.0588
59288SOL    HW184725   8.147   7.587   8.494  0.7495  1.2730 -0.6726
59288SOL    HW284726   8.274   7.548   8.566 -0.5463 -0.3560  0.8192
59289SOL     OW84727   0.051   4.117   1.555  0.1215 -0.1593  0.1215
59289SOL    HW184728   0.141   4.146   1.537 -0.1101 -0.1827 -1.1463
59289SOL    HW284729   0.005   4.127   1.472 -0.4576 -2.3435  0.1146
59290SOL     OW84730  11.513  12.474  10.356  0.4147 -0.5354 -0.1804
59290SOL    HW184731  11.467  12.556  10.378 -1.3475 -1.5119  0.0102
59290SOL    HW284732  11.471  12.445  10.275  1.5305 -0.8956 -0.6348
59291SOL     OW84733  10.166   2.447   1.704  0.2536 -0.9520  0.6119
59291SOL    HW184734  10.227   2.374   1.696  0.5521 -0.6266 -0.2220
59291SOL    HW284735  10.163   2.485   1.616  0.1232  0.0543  1.0344
59292SOL     OW84736   4.213   9.272   4.100  0.0616  0.0631  0.1319
59292SOL    HW184737   4.215   9.191   4.151  0.5701 -0.5170 -0.7784
59292SOL    HW284738   4.135   9.318   4.130  0.0205 -0.5439  0.9908
59293SOL     OW84739   4.230   7.266   1.442 -0.0810 -0.1219 -0.1774
59293SOL    HW184740   4.219   7.282   1.349 -0.0710 -1.2980 -0.3941
59293SOL    HW284741   4.291   7.192   1.447 -0.1924 -0.1692  0.7539
59294SOL     OW84742   9.854  11.805   0.686 -0.4194  0.0084 -0.0606
59294SOL    HW184743   9.848  11.846   0.773 -0.4003  2.3169 -1.0723
59294SOL    HW284744   9.884  11.716   0.704 -1.0597  0.1898  2.3413
59295SOL     OW84745   9.130   6.506  10.972  0.6885 -0.5585  0.1858
59295SOL    HW184746   9.081   6.470  11.046  0.8959 -3.5872 -1.0028
59295SOL    HW284747   9.085   6.472  10.895  2.0484  0.3031 -1.0429
59296SOL     OW84748  11.361   5.053   3.500  0.2893 -0.3400 -0.1668
59296SOL    HW184749  11.421   5.106   3.447  0.2528 -0.6097 -0.4760
59296SOL    HW284750  11.416   5.020   3.571  0.0823  0.9842  0.6463
59297SOL     OW84751   3.939   9.470   9.360  0.3085 -0.1641 -0.6127
59297SOL    HW184752   3.912   9.480   9.452  0.8320 -1.6683 -0.2682
59297SOL    HW284753   3.858   9.481   9.310  0.1580  1.5299 -0.0579
59298SOL     OW84754  12.215   3.745   0.318 -0.1857 -0.3102  0.0524
59298SOL    HW184755  12.279   3.701   0.263 -1.0588  0.2527 -1.4819
59298SOL    HW284756  12.252   3.832   0.334  1.0902 -1.1701  2.2826
59299SOL     OW84757   5.748   2.608   8.434 -0.4044 -0.1590  0.3096
59299SOL    HW184758   5.765   2.578   8.345 -1.0997 -0.1736  0.1711
59299SOL    HW284759   5.719   2.699   8.424  1.7061  0.6064  0.7284
59300SOL     OW84760   9.462   5.750   2.617  0.5724 -0.0520  0.4705
59300SOL    HW184761   9.444   5.782   2.706  0.1577 -0.1781  0.4350
59300SOL    HW284762   9.375   5.741   2.577  0.7618  0.0999  0.0167
59301SOL     OW84763   5.274  10.166   0.211  0.0776 -0.4942 -0.2415
59301SOL    HW184764   5.247  10.159   0.303 -2.4450 -2.9860 -1.0180
59301SOL    HW284765   5.209  10.225   0.172  2.2988  2.1933 -0.1673
59302SOL     OW84766   7.892   4.700  11.198 -0.3240  0.2140 -0.4101
59302SOL    HW184767   7.937   4.695  11.283 -1.8754 -0.3952  0.4200
59302SOL    HW284768   7.809   4.653  11.212 -0.4199 -0.2974 -2.4038
59303SOL     OW84769   8.134   8.608   0.983 -0.4489 -0.0267  0.3082
59303SOL    HW184770   8.200   8.634   0.919  0.5849  0.3532  1.4681
59303SOL    HW284771   8.184   8.596   1.064 -1.5964 -1.2058  0.8724
59304SOL     OW84772   7.668   6.108   0.286 -0.4460  0.9557  0.6256
59304SOL    HW184773   7.627   6.032   0.246  0.6454 -0.0361  1.3406
59304SOL    HW284774   7.683   6.168   0.213  1.2457 -0.6883 -0.4676
59305SOL     OW84775  11.145   6.293   6.617 -0.4740 -0.0767 -0.2722
59305SOL    HW184776  11.054   6.283   6.589 -0.5590  0.3676 -0.1590
59305SOL    HW284777  11.151   6.383   6.651  0.3633  0.4295 -1.6520
59306SOL     OW84778   8.483   1.189   7.533  0.1680  0.1601 -0.0391
59306SOL    HW184779   8.544   1.257   7.560 -1.1592  1.6225 -0.6120
59306SOL    HW284780   8.399   1.233   7.524 -0.2134 -0.9520 -3.0513
59307SOL     OW84781   6.473   5.675   5.428 -0.1735 -0.1416  0.1136
59307SOL    HW184782   6.520   5.727   5.361 -2.0476 -0.0864 -1.2380
59307SOL    HW284783   6.500   5.585   5.410 -1.7573 -0.3105 -1.7598
59308SOL     OW84784   6.952  10.739   9.727 -0.3939  0.2032  0.3256
59308SOL    HW184785   6.857  10.744   9.737 -0.3897 -1.7244  1.7194
59308SOL    HW284786   6.987  10.739   9.816  0.8619 -0.0775 -0.1345
59309SOL     OW84787   5.960   5.064   6.348 -0.8419  0.4174 -0.1087
59309SOL    HW184788   6.026   5.024   6.291  0.4009 -1.1352  2.2798
59309SOL    HW284789   5.896   5.102   6.287  0.1021 -1.6009 -2.5420
59310SOL     OW84790   5.134   5.414  11.129 -0.3317 -0.4558  0.4661
59310SOL    HW184791   5.061   5.465  11.164  1.4096  0.5342  2.9267
59310SOL    HW284792   5.205   5.477  11.121  1.1766 -1.9905  1.2239
59311SOL     OW84793   6.595  11.864   7.521  0.2458 -0.5998 -0.6197
59311SOL    HW184794   6.593  11.816   7.438  0.7780  1.1717 -1.6977
59311SOL    HW284795   6.516  11.918   7.520 -0.4171 -1.4660  0.6433
59312SOL     OW84796   9.855   7.546  10.451 -0.1086 -0.3259 -0.0509
59312SOL    HW184797   9.895   7.462  10.475  1.5736  0.2225 -0.7906
59312SOL    HW284798   9.884   7.607  10.518  0.1580  0.0434 -0.4947
59313SOL     OW84799   7.765  12.225   6.253  0.4905 -0.5310 -0.0650
59313SOL    HW184800   7.785  12.202   6.163  1.1614  2.9676 -0.9912
59313SOL    HW284801   7.670  12.218   6.260  0.3195  0.1223 -1.4183
59314SOL     OW84802   7.771  11.212   4.377 -0.0810  0.0555  0.3769
59314SOL    HW184803   7.730  11.155   4.442 -2.5914  0.5941 -0.6392
59314SOL    HW284804   7.857  11.172   4.361 -1.1930 -2.6772  0.6902
59315SOL     OW84805   6.961   9.905  10.747  0.6460 -0.8147  0.3708
59315SOL    HW184806   6.910   9.986  10.741 -1.0072 -1.7742  0.8797
59315SOL    HW284807   6.950   9.864  10.662  0.5552 -1.0310  0.4871
59316SOL     OW84808   2.707   5.498   2.862  0.2347 -0.3100  0.0564
59316SOL    HW184809   2.794   5.486   2.898  0.2914 -2.0247 -0.5597
59316SOL    HW284810   2.720   5.550   2.782  1.2042 -3.2507 -1.8492
59317SOL     OW84811   2.594   6.206   3.130 -0.0330 -0.7667 -0.2092
59317SOL    HW184812   2.603   6.186   3.223  0.2151 -1.2810 -0.3364
59317SOL    HW284813   2.556   6.293   3.127 -0.4316 -0.9152  0.3769
59318SOL     OW84814   0.547   7.866   2.919  0.2971  0.4293  0.3406
59318SOL    HW184815   0.528   7.803   2.850 -1.6700  0.9305  0.3598
59318SOL    HW284816   0.597   7.935   2.876  2.3107 -0.9907  0.2813
59319SOL     OW84817   4.697  10.902  12.172 -0.1767  0.1686 -0.6533
59319SOL    HW184818   4.664  10.815  12.193  0.8782 -0.4510 -1.4798
59319SOL    HW284819   4.667  10.957  12.244  0.9506 -1.2948  1.0013
59320SOL     OW84820   5.304   8.131   0.146 -0.0246 -0.5482  0.2065
59320SOL    HW184821   5.360   8.162   0.217 -1.4008  0.9654  0.6998
59320SOL    HW284822   5.215   8.153   0.175 -0.6340 -0.0440 -1.9004
59321SOL     OW84823   2.370   0.456  10.341 -0.5571  0.5551  0.3364
59321SOL    HW184824   2.353   0.481  10.432 -0.6737 -1.5109  0.9325
59321SOL    HW284825   2.321   0.374  10.329  1.8761 -0.8660 -0.6105
59322SOL     OW84826   9.452  10.730   1.143  0.4016  0.1989 -0.0819
59322SOL    HW184827   9.505  10.714   1.064 -0.9851  1.7793 -1.4067
59322SOL    HW284828   9.483  10.814   1.176 -0.5582  0.6484 -0.2895
59323SOL     OW84829   2.945   2.832   1.376 -0.0944  0.4639 -0.0245
59323SOL    HW184830   2.923   2.740   1.390  2.2706 -0.3864 -1.1323
59323SOL    HW284831   3.031   2.843   1.418  0.2830  1.7743 -1.0464
59324SOL     OW84832   8.111   2.043   8.520 -0.1004  0.1720 -0.8971
59324SOL    HW184833   8.185   2.007   8.470  0.6179  0.7727 -0.2926
59324SOL    HW284834   8.098   1.980   8.591  0.3161  0.4312 -0.5841
59325SOL     OW84835   7.665   4.149   6.519 -0.1381 -0.3469 -0.1814
59325SOL    HW184836   7.696   4.156   6.429 -2.6040  0.8410 -1.0233
59325SOL    HW284837   7.745   4.137   6.571  1.5989  1.2270 -2.2889
59326SOL     OW84838   7.768   4.959   4.485 -0.1257 -0.0186 -0.5155
59326SOL    HW184839   7.741   5.049   4.503 -0.4712  0.0394 -1.2843
59326SOL    HW284840   7.687   4.913   4.464  0.2650  0.0177 -2.2560
59327SOL     OW84841   2.507   5.005   8.302 -0.4541  0.5723  0.4277
59327SOL    HW184842   2.531   4.997   8.394  1.3696  1.3323  0.0667
59327SOL    HW284843   2.591   5.007   8.255 -1.1665 -4.3127 -1.7639
59328SOL     OW84844   4.957   5.162  10.379  0.0987  0.2903  0.4258
59328SOL    HW184845   5.039   5.165  10.428 -0.3483  0.1872  1.1970
59328SOL    HW284846   4.898   5.219  10.428 -0.5404 -0.2892  0.3426
59329SOL     OW84847   0.010   9.403   8.364 -0.1141  0.0917  0.1882
59329SOL    HW184848  -0.033   9.346   8.300 -0.1187 -0.0909  0.3529
59329SOL    HW284849   0.003   9.356   8.447 -1.7263  1.1296  0.6925
59330SOL     OW84850   9.159   2.213   4.476 -0.5615 -0.5416 -0.2735
59330SOL    HW184851   9.074   2.203   4.519 -1.4488 -0.8850 -2.0227
59330SOL    HW284852   9.182   2.125   4.448  0.1713 -0.3744 -0.2041
59331SOL     OW84853   2.753   9.003   0.114 -0.3287  0.2659  0.2660
59331SOL    HW184854   2.701   9.016   0.193 -0.1759 -1.1805  0.6373
59331SOL    HW284855   2.818   9.073   0.117 -1.2361  1.1121  0.6426
59332SOL     OW84856  10.149   6.653   3.837 -0.2136  0.1279 -0.3231
59332SOL    HW184857  10.181   6.720   3.898  1.3467  0.3112 -1.2979
59332SOL    HW284858  10.164   6.690   3.750 -2.5116 -0.0791 -0.8804
59333SOL     OW84859   8.870   8.832   1.722 -0.0593 -0.3404  0.1632
59333SOL    HW184860   8.837   8.897   1.659  0.3770 -0.1701  0.1090
59333SOL    HW284861   8.853   8.872   1.807 -0.5494 -0.5216  0.1544
59334SOL     OW84862   9.999  11.468   6.607  0.2164 -0.7133  0.1120
59334SOL    HW184863   9.982  11.516   6.526  1.9448 -0.0622  0.0950
59334SOL    HW284864  10.057  11.525   6.656 -3.1854  0.4092  3.3179
59335SOL     OW84865   5.548   6.592  11.825 -0.0660 -0.2628  0.1286
59335SOL    HW184866   5.529   6.498  11.820  2.2302 -0.8235  0.8361
59335SOL    HW284867   5.599   6.610  11.746  0.5390  0.1095  0.6016
59336SOL     OW84868   5.503   6.920   6.815 -0.1617 -0.1468  0.7782
59336SOL    HW184869   5.586   6.941   6.859 -1.6374  1.3745  3.0695
59336SOL    HW284870   5.439   6.916   6.886 -2.5040  1.1646 -1.1291
59337SOL     OW84871  10.687   5.038  10.794 -0.0203  0.2355 -0.0487
59337SOL    HW184872  10.660   5.127  10.773 -1.7903 -0.1876  0.2096
59337SOL    HW284873  10.751   5.048  10.865  0.8901  1.3368 -0.9921
59338SOL     OW84874  10.351  10.307   3.245 -0.2949  0.5228  0.2404
59338SOL    HW184875  10.355  10.357   3.326 -1.0889  0.9860 -0.0018
59338SOL    HW284876  10.258  10.292   3.229 -0.0733 -1.8742  0.8062
59339SOL     OW84877  12.305   5.036   1.006 -0.3573 -0.4543  0.0951
59339SOL    HW184878  12.347   4.958   0.971  2.7569  0.7670  0.7614
59339SOL    HW284879  12.271   5.009   1.091 -0.7527 -1.4728 -0.3810
59340SOL     OW84880   2.088   5.725   3.280  0.1525  0.1062 -0.0410
59340SOL    HW184881   2.045   5.776   3.349  2.2271  2.5747 -0.4008
59340SOL    HW284882   2.133   5.655   3.326 -0.4769  0.2656  0.8401
59341SOL     OW84883   2.967   7.775   5.921  0.3328 -0.2525 -0.0849
59341SOL    HW184884   2.949   7.823   5.840 -0.1818 -0.0820  0.1270
59341SOL    HW284885   2.884   7.731   5.941 -0.2945  1.5777  1.6217
59342SOL     OW84886   5.261  11.695   5.354 -0.5918 -0.1162  0.1688
59342SOL    HW184887   5.340  11.658   5.394  1.4836  0.0224 -3.4359
59342SOL    HW284888   5.273  11.790   5.359 -0.3634 -0.0991 -0.7106
59343SOL     OW84889  11.716   7.075  11.304 -0.8912  0.3677 -0.4424
59343SOL    HW184890  11.757   7.156  11.334  2.2525 -0.6670 -1.5534
59343SOL    HW284891  11.701   7.088  11.210 -1.4001  0.0377 -0.4134
59344SOL     OW84892   7.908   0.906  11.613  0.6409  0.2554  0.0491
59344SOL    HW184893   7.900   0.816  11.583  0.1453 -0.5156  2.3524
59344SOL    HW284894   7.989   0.937  11.574  0.8287 -1.1759 -0.7614
59345SOL     OW84895   9.040   5.725  11.566 -0.9786 -0.5412  0.1552
59345SOL    HW184896   9.117   5.669  11.571  0.1341  0.9843  0.9931
59345SOL    HW284897   8.995   5.712  11.649  0.2703  1.0785  1.1545
59346SOL     OW84898   8.379  10.444   4.855 -0.0981  0.0357  0.4511
59346SOL    HW184899   8.429  10.412   4.780  0.3837 -0.6127  1.0412
59346SOL    HW284900   8.412  10.533   4.869 -0.4620  0.3047 -0.3333
59347SOL     OW84901   3.007   8.590   3.347  0.1434 -0.3027  0.2733
59347SOL    HW184902   3.020   8.509   3.397 -2.3400 -1.2277 -0.4644
59347SOL    HW284903   3.020   8.659   3.412 -3.0836 -1.4548  2.3787
59348SOL     OW84904   5.468   4.777   9.983 -0.1366  0.9063 -0.1994
59348SOL    HW184905   5.499   4.692  10.016  0.0975  1.6698  1.6166
59348SOL    HW284906   5.542   4.811   9.932 -0.2246  0.0591 -0.9324
59349SOL     OW84907  11.768   7.235   8.050 -0.5480 -0.4964  0.3859
59349SOL    HW184908  11.860   7.207   8.059 -0.3158  0.5370  1.5443
59349SOL    HW284909  11.772   7.314   7.996 -0.5302  0.4923  1.7641
59350SOL     OW84910   0.245   7.970   2.892  0.3782  0.3764  0.1708
59350SOL    HW184911   0.179   7.985   2.824 -0.3494 -0.9138  0.5641
59350SOL    HW284912   0.252   7.875   2.898  0.3210  0.4537  2.0077
59351SOL     OW84913   9.035  10.400   8.973  0.1860 -0.2725  0.0798
59351SOL    HW184914   8.998  10.468   8.917 -3.0575 -0.7415  1.4245
59351SOL    HW284915   9.003  10.318   8.936 -0.3819 -0.7025  1.4427
59352SOL     OW84916   1.272   3.313   9.156 -0.1184 -0.3362  0.0642
59352SOL    HW184917   1.280   3.401   9.120  0.3599 -0.2802  0.2990
59352SOL    HW284918   1.224   3.264   9.090  0.9172 -0.2853 -0.7403
59353SOL     OW84919   8.059   5.160   6.755 -0.0647 -0.8653  0.3083
59353SOL    HW184920   8.109   5.090   6.714 -1.1925 -1.4894 -0.0488
59353SOL    HW284921   8.113   5.238   6.744  0.9104 -1.5502  0.1231
59354SOL     OW84922  10.520   1.650   6.750 -0.2988  0.4058 -0.1930
59354SOL    HW184923  10.498   1.560   6.728 -0.7507  1.0511 -2.7540
59354SOL    HW284924  10.435   1.694   6.759 -0.0879  0.8573 -0.3591
59355SOL     OW84925   3.908   3.259  10.281  0.2108  0.1787  0.5979
59355SOL    HW184926   3.933   3.188  10.222 -1.8200 -1.0252  1.0857
59355SOL    HW284927   3.971   3.329  10.263  2.7553 -1.9746  0.6166
59356SOL     OW84928   3.617   6.907   3.965 -0.3497  0.1496 -0.4843
59356SOL    HW184929   3.592   6.972   3.900  1.4620 -1.3178 -2.8288
59356SOL    HW284930   3.577   6.826   3.934 -0.1085 -0.4578  0.7095
59357SOL     OW84931   9.520   4.173   5.028 -0.4165  0.6277 -0.7703
59357SOL    HW184932   9.476   4.156   4.944 -2.0555 -0.9710  0.3582
59357SOL    HW284933   9.462   4.234   5.074 -0.4366  0.0903 -0.0763
59358SOL     OW84934   4.653   0.231  10.040  0.0475  0.3663  0.1486
59358SOL    HW184935   4.622   0.152   9.997 -1.3725  0.0726  1.5901
59358SOL    HW284936   4.717   0.200  10.104 -0.3340  0.4026  0.5503
59359SOL     OW84937   6.936   5.994  12.257 -0.4891  0.2443 -0.2218
59359SOL    HW184938   6.889   5.962  12.180 -0.0691 -0.0795 -0.3467
59359SOL    HW284939   6.963   6.083  12.234 -1.4279  0.6038  0.0237
59360SOL     OW84940   2.805   3.881   2.452  0.2762  0.5032  0.3324
59360SOL    HW184941   2.865   3.920   2.389  1.5505 -0.2342  1.0434
59360SOL    HW284942   2.789   3.793   2.418  0.4084  0.3485  0.6707
59361SOL     OW84943  10.628   3.768   5.203 -0.5888 -0.5894 -0.2688
59361SOL    HW184944  10.668   3.721   5.130 -1.0221 -1.0011 -0.2447
59361SOL    HW284945  10.684   3.750   5.278  0.3023  0.4663 -0.6523
59362SOL     OW84946   2.797   7.569   7.331  0.4709  0.2552  0.2377
59362SOL    HW184947   2.854   7.615   7.270  1.1552 -1.0227 -0.1056
59362SOL    HW284948   2.770   7.490   7.285 -0.9199  0.4197  0.7122
59363SOL     OW84949   7.089   3.332   1.019  0.0259  0.0299 -0.7168
59363SOL    HW184950   7.022   3.345   0.952 -1.9996  1.2735  1.3802
59363SOL    HW284951   7.093   3.416   1.065  1.3767 -0.7430  0.6854
59364SOL     OW84952  10.580   2.943   6.163  0.4801 -0.4655 -0.6363
59364SOL    HW184953  10.609   2.863   6.207 -0.3496 -1.1054 -1.2328
59364SOL    HW284954  10.656   3.001   6.166  0.1652 -0.0329  2.6438
59365SOL     OW84955   0.802   3.262  11.628  0.2530  0.0810 -0.2687
59365SOL    HW184956   0.767   3.189  11.578 -0.4253  0.7822 -0.8486
59365SOL    HW284957   0.743   3.272  11.703  0.2517  0.1331 -0.2766
59366SOL     OW84958   6.840  12.078   0.989 -1.1961  0.1820 -0.7371
59366SOL    HW184959   6.905  12.092   1.058 -0.1683  1.0427 -1.8143
59366SOL    HW284960   6.852  11.986   0.963 -0.3589  0.3302 -0.9292
59367SOL     OW84961   9.583   9.490   2.097 -0.5777  0.2072  0.2001
59367SOL    HW184962   9.528   9.428   2.048  0.2169  0.0423 -0.5046
59367SOL    HW284963   9.589   9.567   2.041 -2.6891  1.5361  1.6637
59368SOL     OW84964  11.217   3.687   3.860  0.1653  0.5451 -0.1930
59368SOL    HW184965  11.264   3.641   3.929  0.7994  0.6245 -0.5708
59368SOL    HW284966  11.125   3.683   3.887  0.5846  2.4733  1.8198
59369SOL     OW84967   3.091   9.405   0.758 -0.4721  0.4808  0.7223
59369SOL    HW184968   3.183   9.426   0.777 -0.9301  0.5954  3.1029
59369SOL    HW284969   3.092   9.313   0.732  0.6910  1.3553 -2.9248
59370SOL     OW84970   4.658   3.933   1.128  0.2605 -0.0729 -0.4616
59370SOL    HW184971   4.736   3.918   1.075 -0.3753 -1.6983 -1.0142
59370SOL    HW284972   4.613   4.007   1.087  1.2091  0.5119 -0.4617
59371SOL     OW84973   5.355  11.777   6.000  0.6419  0.3431  0.3084
59371SOL    HW184974   5.356  11.685   6.027 -0.3351  0.9197  2.4976
59371SOL    HW284975   5.430  11.784   5.941  0.2154 -2.0418 -0.6431
59372SOL     OW84976   1.005  10.113   4.156 -0.4169 -0.3455  0.0931
59372SOL    HW184977   0.948  10.104   4.080  0.2815 -0.8589 -0.3897
59372SOL    HW284978   1.026  10.023   4.181 -0.7768 -0.1839  1.0095
59373SOL     OW84979   8.108  12.021   4.232 -0.2582  0.4690  0.0348
59373SOL    HW184980   8.095  11.937   4.275  0.7134  0.4272  0.2678
59373SOL    HW284981   8.177  12.064   4.283 -0.4616  1.2381 -0.3227
59374SOL     OW84982   5.672   1.680   6.524  0.0765 -0.6163  0.4497
59374SOL    HW184983   5.610   1.627   6.474  0.1157 -0.8293  0.6296
59374SOL    HW284984   5.709   1.740   6.459 -0.0832 -0.7011  0.2784
59375SOL     OW84985   0.843   2.570   3.138 -0.2256 -0.5770 -0.3874
59375SOL    HW184986   0.883   2.583   3.052  2.2979 -2.2879  0.3957
59375SOL    HW284987   0.911   2.599   3.200 -0.7993 -2.0976  1.0219
59376SOL     OW84988  10.673   2.709   3.510  0.4567 -0.6320 -0.2560
59376SOL    HW184989  10.714   2.726   3.595  0.3104  0.2099 -0.3394
59376SOL    HW284990  10.596   2.657   3.531 -1.5500  2.3844  0.6098
59377SOL     OW84991   2.178   6.645   8.676 -0.2942  0.8634  0.8187
59377SOL    HW184992   2.158   6.582   8.607  2.3517  1.1426 -0.3484
59377SOL    HW284993   2.142   6.606   8.756  1.2811 -2.2330  0.1795
59378SOL     OW84994  11.910  11.166   6.243 -0.2266  0.3192  0.1541
59378SOL    HW184995  11.820  11.171   6.211 -0.1446  0.7572 -0.0187
59378SOL    HW284996  11.906  11.102   6.314 -0.2523 -1.2832 -1.2251
59379SOL     OW84997   4.524   8.159   2.007  0.0227  0.0222  0.3665
59379SOL    HW184998   4.511   8.254   2.003 -0.5534 -0.0174  1.1200
59379SOL    HW284999   4.503   8.128   1.919  0.3201  0.6016  0.0826
59380SOL     OW85000   9.371   5.415   4.350 -0.0525  0.1805 -0.5964
59380SOL    HW185001   9.350   5.363   4.272  2.7002 -0.0845 -1.2580
59380SOL    HW285002   9.426   5.486   4.317  0.1103  0.8183  0.9676
59381SOL     OW85003   3.414   0.916   2.592 -0.0538 -0.5011 -0.2999
59381SOL    HW185004   3.386   0.826   2.611  0.3906 -0.6611 -0.3790
59381SOL    HW285005   3.384   0.967   2.667 -0.4889 -0.6800 -0.3499
59382SOL     OW85006   4.940   9.628   8.701 -0.3298 -0.3746  0.9435
59382SOL    HW185007   4.971   9.718   8.710  0.3401 -0.5329  0.3166
59382SOL    HW285008   4.940   9.593   8.790  1.7306 -0.4967  0.9402
59383SOL     OW85009   9.442   8.743   8.048 -0.2277 -0.3489  0.0703
59383SOL    HW185010   9.441   8.830   8.088 -2.9152 -0.4107  0.3263
59383SOL    HW285011   9.379   8.749   7.976 -0.0536 -1.9416 -0.2576
59384SOL     OW85012   0.254   1.138   1.808  0.5353  0.2997 -0.0392
59384SOL    HW185013   0.291   1.211   1.759 -0.0183  0.5367 -0.1087
59384SOL    HW285014   0.160   1.141   1.788  0.7003 -1.3307 -1.2328
59385SOL     OW85015   4.935  11.794  10.136  0.3055 -0.3382  0.1772
59385SOL    HW185016   4.851  11.796  10.183  0.5014 -2.1213  0.7137
59385SOL    HW285017   4.912  11.812  10.045 -0.4971  0.2978  0.4882
59386SOL     OW85018   3.845  11.723   1.842  0.3545 -0.1639 -0.3864
59386SOL    HW185019   3.851  11.757   1.753 -1.1590  0.5586 -0.2254
59386SOL    HW285020   3.909  11.773   1.892  1.0679 -0.4378 -1.0076
59387SOL     OW85021  11.293   9.663   2.953 -0.0469  0.0788 -0.4900
59387SOL    HW185022  11.257   9.649   3.041 -0.0843  0.9647 -0.3582
59387SOL    HW285023  11.301   9.575   2.917  2.0792 -0.5589  1.2464
59388SOL     OW85024  12.221  10.260   8.981 -0.3333 -0.2637 -0.3436
59388SOL    HW185025  12.264  10.177   8.959  1.2806  0.2055  0.8639
59388SOL    HW285026  12.255  10.282   9.068 -0.7861  1.6162 -0.6155
59389SOL     OW85027  10.421   5.293  10.263 -0.0312  0.2400  0.1907
59389SOL    HW185028  10.492   5.332  10.211  0.4453 -2.3143 -1.2275
59389SOL    HW285029  10.399   5.213  10.217 -3.5263  0.6346  0.9052
59390SOL     OW85030   1.161   3.305   8.849  0.0146  0.1932 -0.1626
59390SOL    HW185031   1.098   3.236   8.866 -0.4667  0.6717  0.0471
59390SOL    HW285032   1.107   3.383   8.835  0.5724  0.7475  0.6653
59391SOL     OW85033  10.731   9.003   6.612  0.7563 -0.1338 -0.0648
59391SOL    HW185034  10.695   9.091   6.627  0.6086 -0.2705  0.3901
59391SOL    HW285035  10.670   8.945   6.657  1.0082 -0.4484 -0.1317
59392SOL     OW85036  10.264   9.390   8.778  0.0439  0.1891 -0.2370
59392SOL    HW185037  10.290   9.482   8.776 -0.1714  0.2460 -0.4387
59392SOL    HW285038  10.169   9.392   8.771  0.1156 -0.0944 -1.4572
59393SOL     OW85039   6.634  10.263   7.682 -0.5529  0.3785 -0.1945
59393SOL    HW185040   6.616  10.195   7.746  0.6522 -0.1113 -0.3402
59393SOL    HW285041   6.588  10.234   7.603  1.2003 -1.1449 -0.7397
59394SOL     OW85042   4.557  10.763   6.289 -0.2376  0.0872  0.0924
59394SOL    HW185043   4.469  10.746   6.321 -0.6849 -0.1541 -1.2090
59394SOL    HW285044   4.554  10.741   6.196  0.8746  1.1844 -0.2412
59395SOL     OW85045   9.808   0.987   7.947  0.1491  0.1654  0.3857
59395SOL    HW185046   9.764   1.048   7.887 -0.1043 -0.8059 -0.4414
59395SOL    HW285047   9.846   1.043   8.014 -0.5438  1.1968 -0.0552
59396SOL     OW85048  10.957   9.118   3.819  0.7608 -0.5053  0.2473
59396SOL    HW185049  11.009   9.038   3.822  1.5920  0.0456  1.9076
59396SOL    HW285050  10.965   9.155   3.907 -0.9560  0.5573  0.0039
59397SOL     OW85051  11.675  10.771   8.642 -0.2123 -0.3919 -0.0940
59397SOL    HW185052  11.620  10.761   8.720 -0.8787  0.9960 -0.3395
59397SOL    HW285053  11.614  10.796   8.573  0.5369 -0.3365 -0.7520
59398SOL     OW85054   6.686   2.849   3.270  0.4858  0.1394 -0.4171
59398SOL    HW185055   6.678   2.887   3.183 -0.5532  0.0011 -0.3891
59398SOL    HW285056   6.620   2.780   3.273  0.5522  0.0967  0.4585
59399SOL     OW85057   2.015   3.752   1.761  0.8005 -0.4316 -0.4291
59399SOL    HW185058   1.971   3.762   1.676 -1.2709  4.1895  0.8635
59399SOL    HW285059   1.946   3.721   1.820  0.3517  2.2983  0.6450
59400SOL     OW85060   3.925   2.450   1.349 -0.0941 -0.6788 -0.1895
59400SOL    HW185061   3.951   2.502   1.273 -0.2948 -1.9050 -1.1171
59400SOL    HW285062   3.911   2.515   1.418 -1.8505  0.7048 -1.7135
59401SOL     OW85063   4.755  10.840   0.390 -0.2093 -0.0390 -0.2007
59401SOL    HW185064   4.796  10.815   0.473  1.6366  1.0358 -0.7318
59401SOL    HW285065   4.713  10.924   0.408 -1.1118 -0.5131 -0.0042
59402SOL     OW85066  12.254   6.912   7.369  0.2488 -0.2708 -0.3843
59402SOL    HW185067  12.295   6.842   7.319 -0.4794  0.4090 -2.0042
59402SOL    HW285068  12.197   6.867   7.432 -0.3151 -1.1568 -1.4959
59403SOL     OW85069   9.733   9.519   8.072  0.0700  0.0322 -0.3360
59403SOL    HW185070   9.815   9.471   8.058  0.0189  0.0168 -0.5771
59403SOL    HW285071   9.712   9.557   7.987 -0.1626  0.0561 -0.2678
59404SOL     OW85072   8.916   7.515   4.808  0.3877 -0.4026  0.0861
59404SOL    HW185073   8.908   7.524   4.713 -2.2775 -0.0607  0.2467
59404SOL    HW285074   8.977   7.584   4.834 -0.3395  0.7692 -1.2107
59405SOL     OW85075   5.214  10.479   5.752  0.2080  0.0045  0.2824
59405SOL    HW185076   5.180  10.445   5.669  1.3659 -0.6677  0.0642
59405SOL    HW285077   5.296  10.522   5.729 -0.4259  1.6098  0.8008
59406SOL     OW85078   8.610   5.700   3.913  0.0267 -0.5492 -0.0599
59406SOL    HW185079   8.550   5.720   3.841 -0.6651 -1.8275  0.1316
59406SOL    HW285080   8.665   5.630   3.879  0.4389 -0.3892  0.2757
59407SOL     OW85081   1.784   4.512   0.061 -0.2620  0.0898  1.1028
59407SOL    HW185082   1.746   4.519   0.149 -0.8245 -1.2763  0.9901
59407SOL    HW285083   1.818   4.423   0.057  0.8838  0.5439  0.3602
59408SOL     OW85084  11.822   0.442   9.378  0.1105  0.5151 -0.2407
59408SOL    HW185085  11.794   0.460   9.289 -1.2801 -3.0017 -0.6886
59408SOL    HW285086  11.743   0.450   9.431  0.3393  0.0503  0.1869
59409SOL     OW85087   6.416   4.576  12.260 -0.1852  0.8971  0.2247
59409SOL    HW185088   6.469   4.655  12.247 -0.8156  1.1315 -1.0864
59409SOL    HW285089   6.436   4.521  12.184 -0.0963 -0.0197  0.9000
59410SOL     OW85090   4.945   2.886   4.952  0.0513  0.2084  0.1854
59410SOL    HW185091   4.855   2.871   4.924  0.2088  0.6312 -0.5674
59410SOL    HW285092   4.991   2.805   4.928  0.6308  1.2835 -2.7286
59411SOL     OW85093  10.373   8.373   5.673  0.3250  0.0001 -0.3365
59411SOL    HW185094  10.381   8.347   5.581  2.0861 -1.0598  0.0667
59411SOL    HW285095  10.463   8.372   5.706 -0.2167  0.8855  1.2660
59412SOL     OW85096   6.475   0.871   7.526  0.6668  0.2074 -0.5477
59412SOL    HW185097   6.470   0.948   7.470  0.5987  1.1788  0.7660
59412SOL    HW285098   6.415   0.808   7.485 -0.1673  1.2650 -0.9949
59413SOL     OW85099   1.425  10.386   7.233  0.5105 -0.3873  0.2219
59413SOL    HW185100   1.473  10.467   7.217  0.5207  0.1367  2.5162
59413SOL    HW285101   1.335  10.413   7.246 -0.5318 -1.3405 -3.7624
59414SOL     OW85102   0.630   4.097   7.227  0.2636 -0.0349  0.1535
59414SOL    HW185103   0.571   4.154   7.276 -1.1923  1.0271 -2.6028
59414SOL    HW285104   0.572   4.037   7.180  1.5807 -1.2437 -0.0114
59415SOL     OW85105   0.579  10.132   2.633 -0.0790  0.3235  0.3576
59415SOL    HW185106   0.564  10.045   2.594 -0.8410 -0.2089  1.7724
59415SOL    HW285107   0.533  10.192   2.574 -0.5815 -0.3793  0.0075
59416SOL     OW85108  10.893   9.747   6.325  0.0317 -0.2247 -0.4325
59416SOL    HW185109  10.919   9.820   6.381 -0.6358 -0.8416  0.7181
59416SOL    HW285110  10.942   9.672   6.358 -1.3557 -0.8760  0.2188
59417SOL     OW85111   2.707   4.996   4.618 -0.7206  0.2385  0.1517
59417SOL    HW185112   2.684   5.065   4.680 -0.7921  0.2843  0.0744
59417SOL    HW285113   2.802   5.003   4.608 -0.4867 -0.7332  1.4012
59418SOL     OW85114   7.701   8.768   0.979 -0.3094 -0.0878  0.6090
59418SOL    HW185115   7.671   8.694   1.033  1.4903 -0.0565  1.7529
59418SOL    HW285116   7.672   8.846   1.026  1.2581 -0.0609  1.6251
59419SOL     OW85117   3.087   5.288   8.067  0.4443  0.1472 -0.3800
59419SOL    HW185118   3.068   5.356   8.003 -0.0731 -1.1849 -1.7098
59419SOL    HW285119   3.036   5.313   8.144 -2.0297 -0.1265 -1.7949
59420SOL     OW85120   3.757  10.305   1.276  0.4475  0.3514 -0.2150
59420SOL    HW185121   3.728  10.244   1.344  0.2351  2.3068  1.5690
59420SOL    HW285122   3.845  10.276   1.253 -0.4212 -1.8575 -1.0351
59421SOL     OW85123  10.948   6.031  12.473  0.4819 -0.1897  0.0966
59421SOL    HW185124  10.953   6.091  12.547  0.1105  0.4432 -0.3847
59421SOL    HW285125  10.875   6.063  12.421 -1.3886 -2.4803  1.0793
59422SOL     OW85126   6.291   4.527   4.893 -0.0943 -0.0577  0.2790
59422SOL    HW185127   6.195   4.535   4.885 -0.7809 -1.5227  4.5509
59422SOL    HW285128   6.317   4.479   4.815 -2.6919  0.9956 -1.3954
59423SOL     OW85129   9.384   2.620   6.851 -0.1942  0.5293  0.1921
59423SOL    HW185130   9.376   2.548   6.787 -0.0415  0.0589  0.6945
59423SOL    HW285131   9.373   2.699   6.799  1.0516  0.1981 -0.6218
59424SOL     OW85132   1.251   4.208   8.234  0.4065 -0.0602 -0.3012
59424SOL    HW185133   1.180   4.188   8.295  1.5731 -0.8004  0.8768
59424SOL    HW285134   1.221   4.175   8.150 -0.8527  0.1127  0.0649
59425SOL     OW85135   0.674   1.581   7.467 -0.0824 -0.8551  0.2557
59425SOL    HW185136   0.609   1.528   7.420  0.2567  0.3383 -1.6634
59425SOL    HW285137   0.739   1.604   7.400  0.1198  1.4423  1.1585
59426SOL     OW85138   4.169   6.430  11.415 -0.3398  0.4025  0.4374
59426SOL    HW185139   4.098   6.441  11.351  2.0495  0.3791 -2.4122
59426SOL    HW285140   4.167   6.337  11.437 -0.2251  0.0863 -0.8444
59427SOL     OW85141   9.641   5.561  11.084  0.4640 -0.5075  0.6502
59427SOL    HW185142   9.701   5.492  11.111  1.1803 -0.4269 -0.6658
59427SOL    HW285143   9.582   5.573  11.159  1.8201 -0.8749  1.8118
59428SOL     OW85144   8.846   3.547   6.975  0.0841 -0.8914  0.0462
59428SOL    HW185145   8.809   3.634   6.963  0.0940 -0.7158  1.2423
59428SOL    HW285146   8.940   3.558   6.964  0.1674 -0.5917  1.0524
59429SOL     OW85147   7.019   0.195   6.663 -0.2304 -0.4875  0.2790
59429SOL    HW185148   7.025   0.291   6.667 -0.0560 -0.5176  3.9033
59429SOL    HW285149   7.103   0.168   6.625 -0.8212  0.7438 -2.1219
59430SOL     OW85150   0.163   6.968  10.760  0.0358  0.0948 -0.4098
59430SOL    HW185151   0.165   6.954  10.854 -1.1986  0.8782 -0.2542
59430SOL    HW285152   0.109   6.898  10.725  1.2877 -0.7743 -0.6714
59431SOL     OW85153   3.087   5.549   1.236  0.1404 -0.2853 -0.7430
59431SOL    HW185154   3.114   5.625   1.184 -2.8423  0.8853 -0.7724
59431SOL    HW285155   3.009   5.579   1.282 -0.0842 -2.8283  0.6527
59432SOL     OW85156   4.548  10.586   6.078 -0.1841 -1.0508 -0.0531
59432SOL    HW185157   4.558  10.664   6.023  1.7282 -0.7172  0.6959
59432SOL    HW285158   4.519  10.517   6.018 -0.3246 -0.1511 -1.0296
59433SOL     OW85159  10.790  12.009   2.481  0.5828 -0.7141  0.4853
59433SOL    HW185160  10.871  11.968   2.512  1.9526  1.2921 -0.2734
59433SOL    HW285161  10.740  12.025   2.561  1.9472  0.0478  1.2292
59434SOL     OW85162  12.455  11.813  12.154 -0.1028  0.2671 -0.3041
59434SOL    HW185163  12.364  11.800  12.128 -0.4386 -2.5620  1.7366
59434SOL    HW285164  12.503  11.821  12.072 -1.8359 -1.4360 -1.5874
59435SOL     OW85165  10.609  11.948   6.374  0.3895 -0.3545  0.4162
59435SOL    HW185166  10.534  11.890   6.364  0.1894  0.1609 -1.6185
59435SOL    HW285167  10.592  11.997   6.455 -2.0740  0.5321 -0.5474
59436SOL     OW85168   1.938   5.480   0.279 -0.0228  0.4483  0.1365
59436SOL    HW185169   1.978   5.409   0.329  0.5800  2.1165  2.1700
59436SOL    HW285170   2.005   5.505   0.216  0.1574 -0.1281  0.0970
59437SOL     OW85171   5.268   4.777   0.864  0.0302 -0.3516 -0.3798
59437SOL    HW185172   5.355   4.800   0.832  0.7811  0.5735  2.0628
59437SOL    HW285173   5.253   4.688   0.833  1.3540 -0.1368 -1.7584
59438SOL     OW85174   1.849   5.144   8.377 -0.5026  0.1392  0.1033
59438SOL    HW185175   1.797   5.224   8.376 -1.3898 -0.4289 -0.4554
59438SOL    HW285176   1.869   5.127   8.285 -1.2552 -0.8576  0.1042
59439SOL     OW85177   3.976   9.875   8.187  0.0799  0.1358  0.2011
59439SOL    HW185178   3.935   9.881   8.273  1.3264 -0.5206  0.8819
59439SOL    HW285179   3.941   9.949   8.138 -0.6151  0.5559  1.2941
59440SOL     OW85180   8.272   1.080   5.141 -0.2488 -0.2842 -0.0462
59440SOL    HW185181   8.186   1.065   5.181 -0.6041  2.6285  0.5328
59440SOL    HW285182   8.255   1.075   5.047 -1.4793  1.7294  0.0017
59441SOL     OW85183   5.740   0.582   3.463  0.2593 -0.0041 -0.1543
59441SOL    HW185184   5.818   0.562   3.410 -0.1177 -1.6622 -0.1446
59441SOL    HW285185   5.723   0.674   3.446  1.4694  0.0682 -1.1702
59442SOL     OW85186  11.691   0.192   8.953  0.0561  0.0091 -0.0738
59442SOL    HW185187  11.737   0.127   9.007  1.1080 -0.4240 -1.4334
59442SOL    HW285188  11.736   0.275   8.972  0.5060 -0.1641 -0.3823
59443SOL     OW85189  10.408  11.498   6.548 -0.1821  0.4074  0.0108
59443SOL    HW185190  10.460  11.568   6.587  1.6881 -1.0838  0.3366
59443SOL    HW285191  10.386  11.440   6.621 -1.6556  0.5941 -0.2566
59444SOL     OW85192   2.702   6.781  10.684 -0.7491  0.5002  0.5568
59444SOL    HW185193   2.637   6.728  10.636 -0.6060 -1.2658  2.1896
59444SOL    HW285194   2.735   6.842  10.619 -1.7374 -0.7016 -1.1710
59445SOL     OW85195   4.684   7.579   6.048  0.2999  0.3794 -0.4118
59445SOL    HW185196   4.678   7.603   5.956  0.6231  3.2682  0.1978
59445SOL    HW285197   4.694   7.663   6.093  1.7637 -1.0376  2.1278
59446SOL     OW85198   4.479   9.880   2.459 -0.5157  0.1756 -0.1846
59446SOL    HW185199   4.544   9.913   2.398  0.2272 -0.3267  0.3146
59446SOL    HW285200   4.528   9.824   2.519 -1.2329  0.5986  0.8323
59447SOL     OW85201  11.486   7.311   3.249  0.3852  0.4177 -0.1264
59447SOL    HW185202  11.408   7.286   3.298  1.3725 -0.6710  0.9363
59447SOL    HW285203  11.523   7.385   3.297 -0.0665  1.0385 -0.7207
59448SOL     OW85204   1.977   5.981   6.337  0.0680  0.4000  0.3789
59448SOL    HW185205   2.034   6.028   6.399  1.2725 -1.2414  0.5945
59448SOL    HW285206   2.033   5.966   6.260 -0.7784  0.6385 -0.3015
59449SOL     OW85207   8.333   1.986  11.578  0.0120  0.1303  0.5206
59449SOL    HW185208   8.408   1.976  11.637  0.5603 -1.5812 -0.4118
59449SOL    HW285209   8.270   1.922  11.610 -0.4431  0.4790  0.3339
59450SOL     OW85210   7.738   6.378   3.552 -0.0399 -0.0695 -0.3237
59450SOL    HW185211   7.813   6.319   3.553 -0.3583 -0.4908  1.2088
59450SOL    HW285212   7.691   6.356   3.472 -0.6573 -2.6062  0.6334
59451SOL     OW85213   4.294   4.657   8.560  0.2375 -0.0571  0.1964
59451SOL    HW185214   4.327   4.706   8.485 -1.9870 -0.5605 -1.2090
59451SOL    HW285215   4.370   4.610   8.594  1.4811  0.8718 -1.1939
59452SOL     OW85216   5.747   0.473   1.531 -0.5286  0.2475  0.3092
59452SOL    HW185217   5.748   0.506   1.441  1.6492 -0.0374  0.1619
59452SOL    HW285218   5.812   0.527   1.576 -0.9500 -0.2064  1.4839
59453SOL     OW85219   3.223   1.776  11.579  0.5146  0.4098 -0.1588
59453SOL    HW185220   3.130   1.798  11.575  0.3353 -0.3523 -0.2170
59453SOL    HW285221   3.234   1.734  11.664  0.1907 -2.2192 -1.3393
59454SOL     OW85222   7.906   4.573  10.883  0.1107 -0.1864  0.4240
59454SOL    HW185223   7.992   4.532  10.898 -0.2775 -0.6242  1.5294
59454SOL    HW285224   7.849   4.535  10.950 -0.4376  1.6406  1.0434
59455SOL     OW85225   2.327   3.432   1.540  0.3335 -0.8892 -0.3806
59455SOL    HW185226   2.388   3.360   1.525  0.1512 -1.5832  1.8704
59455SOL    HW285227   2.370   3.488   1.604 -1.4129 -1.5366  1.4719
59456SOL     OW85228   8.590   7.943   4.373 -0.0165 -0.1556 -0.4253
59456SOL    HW185229   8.627   8.013   4.426  0.9005 -1.5850  0.9088
59456SOL    HW285230   8.510   7.918   4.420 -0.3252 -0.0191 -0.8784
59457SOL     OW85231  11.190   2.754   4.417 -0.0851  0.4835 -0.0554
59457SOL    HW185232  11.108   2.705   4.421 -0.7000  1.5535  2.1474
59457SOL    HW285233  11.164   2.843   4.392  0.5819  0.5420 -0.5788
59458SOL     OW85234   5.942   6.369   9.224  0.3987  0.2456 -0.4592
59458SOL    HW185235   5.905   6.311   9.157 -1.4876 -3.0634  3.0429
59458SOL    HW285236   5.874   6.434   9.240  0.3572  0.3079 -0.8696
59459SOL     OW85237  11.077   7.590   6.172 -0.0386 -0.0668 -0.1727
59459SOL    HW185238  11.077   7.610   6.265 -0.0820  1.5499 -0.4985
59459SOL    HW285239  11.041   7.501   6.167  0.1319 -0.2495  1.3473
59460SOL     OW85240  11.100   1.777   1.141  0.5673 -0.2460  0.8208
59460SOL    HW185241  11.019   1.736   1.174  0.3804  0.1314  0.8361
59460SOL    HW285242  11.069   1.845   1.081  0.8975 -0.8856 -0.1102
59461SOL     OW85243  11.121   5.800  11.676  0.0757 -0.1041  0.2287
59461SOL    HW185244  11.129   5.737  11.604 -0.6663  0.5103 -0.4079
59461SOL    HW285245  11.211   5.811  11.708  0.2935 -1.0547 -0.0146
59462SOL     OW85246   7.098   3.475  11.146 -0.2659 -0.2496 -0.0979
59462SOL    HW185247   7.182   3.453  11.186 -1.2048  1.4991  3.2299
59462SOL    HW285248   7.114   3.558  11.101 -0.0761 -0.2288  0.0057
59463SOL     OW85249  10.210   5.764   5.733 -0.0659  0.0048  0.0770
59463SOL    HW185250  10.196   5.843   5.785 -0.1678  0.8048 -1.1281
59463SOL    HW285251  10.130   5.713   5.746  0.1474 -0.0692  1.1363
59464SOL     OW85252   1.097   5.707  11.738 -0.3048 -0.3029 -0.1317
59464SOL    HW185253   1.115   5.618  11.766  0.5934 -0.0956 -0.0083
59464SOL    HW285254   1.003   5.709  11.723 -0.0393 -2.0023 -2.6296
59465SOL     OW85255   8.055   9.427   8.085  0.4263  0.3412  0.3083
59465SOL    HW185256   8.043   9.451   7.993  2.2462  0.2968  0.0196
59465SOL    HW285257   7.967   9.431   8.122 -0.9542 -2.7047 -2.1566
59466SOL     OW85258   0.807   7.403   6.918  0.1589  0.0567  0.2599
59466SOL    HW185259   0.755   7.393   6.838  1.3338 -0.3611 -0.4795
59466SOL    HW285260   0.813   7.498   6.930  0.1740  0.1342 -0.2957
59467SOL     OW85261   3.744   6.343   2.951  0.1806 -0.7993  0.6293
59467SOL    HW185262   3.720   6.311   3.038 -1.9301  0.2510  0.4919
59467SOL    HW285263   3.819   6.401   2.966 -0.3217 -0.4349  1.7962
59468SOL     OW85264   8.300   5.982   1.042  0.0672  0.2236  0.2731
59468SOL    HW185265   8.352   5.923   1.096 -0.0463  1.4343  1.7760
59468SOL    HW285266   8.318   6.069   1.079 -1.9192  0.8201 -0.0825
59469SOL     OW85267   8.325  10.405   8.133  1.0804  0.1942 -0.2992
59469SOL    HW185268   8.360  10.482   8.087 -0.9630 -0.1886 -2.7395
59469SOL    HW285269   8.230  10.418   8.132  0.6906 -2.2101 -0.5388
59470SOL     OW85270   5.294   8.791  11.706  0.1952 -0.7002  0.0404
59470SOL    HW185271   5.375   8.834  11.677 -0.3835 -0.4960 -1.3231
59470SOL    HW285272   5.235   8.863  11.727 -0.4671 -0.8218 -1.3664
59471SOL     OW85273   9.236   9.777   2.770 -0.1401  0.2196  0.6503
59471SOL    HW185274   9.160   9.763   2.826 -0.9553 -1.3249 -0.7489
59471SOL    HW285275   9.266   9.865   2.791 -1.3906  0.2940  2.3149
59472SOL     OW85276  12.177   1.060   2.332 -0.2604 -0.0206 -0.0521
59472SOL    HW185277  12.205   1.082   2.243 -1.4262 -0.1714 -0.4708
59472SOL    HW285278  12.120   0.984   2.321 -0.2415 -0.1842  0.8594
59473SOL     OW85279   3.668   3.629   6.003  0.3920  0.0508 -0.3390
59473SOL    HW185280   3.693   3.570   6.075  0.4108  0.3776 -0.0747
59473SOL    HW285281   3.594   3.679   6.037  0.1883 -0.0238 -0.6694
59474SOL     OW85282   9.613   0.714   3.227 -0.5050  0.1657 -0.6956
59474SOL    HW185283   9.573   0.649   3.285  1.3565 -1.7938 -1.4466
59474SOL    HW285284   9.706   0.710   3.247 -0.2021  1.7968 -1.5931
59475SOL     OW85285   5.713   5.608   2.546 -0.1429  0.8606 -0.0349
59475SOL    HW185286   5.707   5.699   2.516  1.0061  0.7506 -0.6461
59475SOL    HW285287   5.772   5.612   2.622 -0.8925  0.7494  0.5729
59476SOL     OW85288   4.868  10.184   9.375  0.2203 -0.1622 -0.1914
59476SOL    HW185289   4.956  10.187   9.410 -0.0306  0.8731  0.4052
59476SOL    HW285290   4.814  10.149   9.446  0.3898 -2.6675 -1.1864
59477SOL     OW85291   7.625   7.840   0.654  0.4538  0.2471  0.1174
59477SOL    HW185292   7.639   7.879   0.568 -2.0547  1.7909  0.3019
59477SOL    HW285293   7.577   7.759   0.636 -1.2239  1.1973  0.0187
59478SOL     OW85294   8.565  11.804   2.002 -0.3172  0.0872 -0.0703
59478SOL    HW185295   8.527  11.892   2.006 -0.6336 -0.0117 -0.7284
59478SOL    HW285296   8.633  11.804   2.070 -2.2651 -0.1218  2.0097
59479SOL     OW85297   0.138   9.640   1.956 -0.1689  0.0768 -0.1722
59479SOL    HW185298   0.217   9.619   1.906 -0.3847  0.1364 -0.5372
59479SOL    HW285299   0.070   9.654   1.890 -0.7073 -0.8541  0.1646
59480SOL     OW85300   0.996   3.034   2.153 -0.5335 -0.1252 -0.3907
59480SOL    HW185301   0.932   3.058   2.220 -0.5720 -0.5087 -0.2890
59480SOL    HW285302   1.007   3.114   2.101  0.3845  0.5416  0.7761
59481SOL     OW85303   2.146   0.764   9.050  0.1050  0.3827 -0.1648
59481SOL    HW185304   2.225   0.714   9.031  0.4473  0.3539  1.2809
59481SOL    HW285305   2.140   0.826   8.977  0.2434 -1.0239 -1.4400
59482SOL     OW85306   1.205  10.037   5.538  0.1748  0.2820 -0.2717
59482SOL    HW185307   1.163   9.969   5.591  0.9894  0.4235  0.5875
59482SOL    HW285308   1.196  10.007   5.448 -1.0792 -0.0582 -0.0492
59483SOL     OW85309   3.900   4.727   6.003  0.8684 -0.4707  0.4731
59483SOL    HW185310   3.903   4.750   5.910 -0.8606 -3.4601 -0.4517
59483SOL    HW285311   3.935   4.804   6.048  2.5472  0.7730 -2.6646
59484SOL     OW85312   6.366  10.730   7.632  0.4620  0.9955  0.0027
59484SOL    HW185313   6.340  10.714   7.723  1.9937  1.0951  0.4812
59484SOL    HW285314   6.435  10.666   7.615 -0.6059  0.1869 -1.4966
59485SOL     OW85315   6.145   1.007   0.591  0.1418  0.0236  0.1553
59485SOL    HW185316   6.115   0.972   0.507 -2.4357  0.0226  0.9923
59485SOL    HW285317   6.124   1.101   0.586  1.2141  0.2833  0.3087
59486SOL     OW85318  12.379   7.601   4.638  0.3113 -0.1320 -0.0243
59486SOL    HW185319  12.413   7.552   4.713 -0.3457 -0.0725  0.3210
59486SOL    HW285320  12.284   7.595   4.647  0.2044 -1.1592 -1.5354
59487SOL     OW85321  11.314   9.549   0.359 -0.4691 -0.2654 -0.3549
59487SOL    HW185322  11.404   9.536   0.389 -0.0936 -0.6942 -1.6105
59487SOL    HW285323  11.264   9.561   0.440  0.9319  1.5779  0.3356
59488SOL     OW85324  11.081   0.258   2.774  0.0483 -0.1970  0.2318
59488SOL    HW185325  11.042   0.277   2.860 -1.6152  0.6847 -0.6668
59488SOL    HW285326  11.059   0.166   2.758 -1.3662  0.1536 -0.0479
59489SOL     OW85327   3.783   4.099   4.697 -0.3446 -0.1372  1.3170
59489SOL    HW185328   3.702   4.135   4.661  0.1706 -0.5455 -0.3811
59489SOL    HW285329   3.816   4.041   4.628  1.9485  0.8648  1.4431
59490SOL     OW85330   0.425   3.610  12.075 -0.2764 -0.6511 -0.4584
59490SOL    HW185331   0.516   3.608  12.104 -0.7442 -1.2567  1.1036
59490SOL    HW285332   0.411   3.699  12.045  0.9604 -0.6900 -1.1749
59491SOL     OW85333  10.221   3.576   9.413 -0.1325  0.1006  0.3620
59491SOL    HW185334  10.149   3.601   9.472  0.1803 -0.8655  1.1901
59491SOL    HW285335  10.289   3.543   9.472  1.0624  1.1430 -0.4000
59492SOL     OW85336   0.561   5.583  11.897  0.4578 -0.0810  0.2450
59492SOL    HW185337   0.500   5.521  11.937  1.8297 -1.2329  0.6260
59492SOL    HW285338   0.557   5.563  11.803  2.3156 -2.1846  0.5210
59493SOL     OW85339   9.193   0.989   9.728 -0.4166 -0.3577 -0.2814
59493SOL    HW185340   9.162   1.032   9.648  1.4174  1.2243 -0.2173
59493SOL    HW285341   9.275   0.947   9.702 -1.3349 -2.4676  0.0798
59494SOL     OW85342   2.659  10.918   1.950 -0.6559  0.1926  0.0125
59494SOL    HW185343   2.657  10.906   1.855 -0.2551  0.9431 -0.1003
59494SOL    HW285344   2.732  10.863   1.979 -0.7329  0.0168 -0.1238
59495SOL     OW85345  10.515  10.415   5.864 -0.0898 -0.1591 -0.3094
59495SOL    HW185346  10.567  10.426   5.944 -0.5517  0.9169 -0.1384
59495SOL    HW285347  10.522  10.500   5.820 -0.6924 -0.4105 -0.8916
59496SOL     OW85348   8.114   5.785   1.380 -0.1728 -0.1521 -0.2919
59496SOL    HW185349   8.078   5.696   1.370  2.1411 -1.8078  3.5999
59496SOL    HW285350   8.192   5.785   1.325 -1.4764  0.4055 -2.1912
59497SOL     OW85351   9.285  10.166   5.969 -0.5462  0.0195 -0.0352
59497SOL    HW185352   9.225  10.100   6.003 -0.0942 -0.2316  0.2881
59497SOL    HW285353   9.371  10.137   5.997 -0.4566  1.4990  1.3820
59498SOL     OW85354   6.073   4.724   7.362 -0.4705  0.3422 -0.1767
59498SOL    HW185355   6.162   4.740   7.333 -1.1584 -0.6946 -3.1506
59498SOL    HW285356   6.061   4.630   7.354 -1.0219  0.0299  2.9702
59499SOL     OW85357   5.648   9.722   0.012  0.2401  0.2364  0.0813
59499SOL    HW185358   5.652   9.705  -0.082 -2.1530  0.5618 -0.1523
59499SOL    HW285359   5.669   9.815   0.021 -0.1643  0.3576 -0.2167
59500SOL     OW85360  10.638   7.499  12.422 -0.0763  0.4027 -0.0096
59500SOL    HW185361  10.630   7.466  12.511 -0.9456 -1.3914 -0.7150
59500SOL    HW285362  10.729   7.480  12.397  0.0918  0.6735  0.3881
59501SOL     OW85363  11.903   2.172   6.017 -0.0413 -0.0895  0.0616
59501SOL    HW185364  11.978   2.192   6.073 -0.7711 -0.5715  1.2319
59501SOL    HW285365  11.874   2.258   5.985  1.7081  0.0391 -1.4014
59502SOL     OW85366  11.973   3.312  10.025  0.0892 -0.0510 -0.1605
59502SOL    HW185367  11.920   3.237  10.052  1.3525 -1.2413 -0.8911
59502SOL    HW285368  11.931   3.387  10.067  0.2104 -1.4299  2.7076
59503SOL     OW85369   8.378   9.748   1.665 -0.5108 -0.5768 -0.3575
59503SOL    HW185370   8.355   9.835   1.699  0.8705 -0.7147  1.0480
59503SOL    HW285371   8.442   9.765   1.595  1.0415 -0.4728  1.0286
59504SOL     OW85372  10.722   3.106  10.079 -0.3220 -0.3866  0.5514
59504SOL    HW185373  10.808   3.144  10.061  0.0289 -0.9002  1.1247
59504SOL    HW285374  10.741   3.027  10.131 -1.0979 -0.8418  0.1491
59505SOL     OW85375   7.459  12.152   5.504  0.0548 -0.1574 -0.0923
59505SOL    HW185376   7.384  12.200   5.468  0.3574 -1.0531 -2.1175
59505SOL    HW285377   7.435  12.134   5.595 -0.2342  3.3506  0.6514
59506SOL     OW85378   9.221   8.583   1.620 -0.4740 -0.4451 -0.2656
59506SOL    HW185379   9.289   8.517   1.634 -0.5046 -0.6173 -0.8854
59506SOL    HW285380   9.165   8.546   1.552 -1.1667 -0.2809  0.2068
59507SOL     OW85381   3.928   8.446   6.328 -0.4574 -0.1599 -0.0657
59507SOL    HW185382   4.012   8.439   6.374 -1.2963 -0.4260  1.5008
59507SOL    HW285383   3.887   8.523   6.367 -1.5993 -0.9610  0.3577
59508SOL     OW85384   5.951   8.740  11.767  0.6088  0.2482  0.0350
59508SOL    HW185385   5.929   8.777  11.681 -0.7841  0.1149  0.3171
59508SOL    HW285386   5.889   8.668  11.779  0.9423  0.1174  1.0637
59509SOL     OW85387   1.592   1.161   1.553  0.1623  0.0636 -0.1014
59509SOL    HW185388   1.551   1.211   1.483 -1.2771  2.0733  2.0184
59509SOL    HW285389   1.618   1.227   1.618  2.2925 -1.5988  0.8760
59510SOL     OW85390   4.629   9.265   7.917 -0.0217  0.0879  0.0046
59510SOL    HW185391   4.599   9.205   7.986  1.3978  0.0833  0.6487
59510SOL    HW285392   4.600   9.351   7.946 -1.6689 -0.1900 -0.6949
59511SOL     OW85393  11.567   4.570  12.467 -0.0455 -0.0482  0.0484
59511SOL    HW185394  11.606   4.525  12.542  1.0333 -0.5706 -0.7965
59511SOL    HW285395  11.509   4.635  12.506 -0.3072 -1.0049  1.3161
59512SOL     OW85396  12.136   9.188   1.522 -0.0270 -0.5344  0.2285
59512SOL    HW185397  12.126   9.280   1.498  2.6147 -0.6285 -1.6963
59512SOL    HW285398  12.074   9.141   1.465  1.0910 -0.1529 -1.3781
59513SOL     OW85399   5.627   5.135   8.145  0.0846  0.3166  0.8580
59513SOL    HW185400   5.581   5.206   8.190  0.8979  1.6159 -0.2923
59513SOL    HW285401   5.625   5.160   8.053  1.7016 -0.3787  0.6047
59514SOL     OW85402   0.137   6.830   5.772  0.0271  0.0223 -0.3474
59514SOL    HW185403   0.104   6.769   5.837  1.9555 -0.7749 -0.0346
59514SOL    HW285404   0.060   6.878   5.742 -1.2079 -1.0363  0.9969
59515SOL     OW85405   0.530  11.729  12.383 -0.1568 -0.3639  0.3243
59515SOL    HW185406   0.519  11.636  12.363  1.2997 -0.9098  1.8287
59515SOL    HW285407   0.485  11.740  12.467 -2.8252  0.9926 -1.1616
59516SOL     OW85408   6.583   6.528   7.245  0.2131 -0.0975 -0.2039
59516SOL    HW185409   6.589   6.435   7.222  1.0655 -0.6542  1.9950
59516SOL    HW285410   6.555   6.528   7.337  0.2816  1.8340 -0.1441
59517SOL     OW85411   1.186   8.355   5.993 -0.5050 -0.3452  0.0186
59517SOL    HW185412   1.127   8.427   5.976 -0.9046 -0.4933  0.7264
59517SOL    HW285413   1.129   8.279   6.005 -0.2326 -0.3695  1.3231
59518SOL     OW85414   1.112   7.655   3.713 -0.4355  0.0786 -0.3660
59518SOL    HW185415   1.057   7.634   3.789  0.8460 -0.4794  0.4244
59518SOL    HW285416   1.193   7.690   3.751 -0.2526  0.9585 -1.5175
59519SOL     OW85417  12.341   7.164   7.958 -0.1778  0.2759  0.0240
59519SOL    HW185418  12.357   7.112   7.879  0.1262 -0.1835  0.3869
59519SOL    HW285419  12.408   7.232   7.955  0.1408 -0.0308  0.1365
59520SOL     OW85420   7.143  10.986   1.683 -0.5968  0.3660 -0.1982
59520SOL    HW185421   7.174  10.958   1.597  1.3713 -3.5336  1.4984
59520SOL    HW285422   7.050  10.961   1.685 -0.5649  0.1654 -1.0460
59521SOL     OW85423  10.137   2.717   2.767  0.4760 -0.2153 -0.6739
59521SOL    HW185424  10.060   2.720   2.824 -1.1585 -0.5767 -2.7186
59521SOL    HW285425  10.118   2.781   2.698  2.9516  1.1303 -0.1824
59522SOL     OW85426   5.218   3.686  12.454  0.0123 -0.1177 -0.3326
59522SOL    HW185427   5.211   3.754  12.521  1.0814 -0.3754  0.0690
59522SOL    HW285428   5.298   3.639  12.477  0.1094 -0.5430 -1.5008
59523SOL     OW85429   6.879   1.713   7.010 -0.1931 -0.3118 -0.2349
59523SOL    HW185430   6.787   1.692   7.025 -0.4388 -0.4462 -1.8176
59523SOL    HW285431   6.927   1.649   7.063 -0.9940 -0.2289  0.6128
59524SOL     OW85432   5.243  10.191   7.972  0.4349 -0.0762 -0.4568
59524SOL    HW185433   5.167  10.207   7.915  1.2158  1.0791 -1.2183
59524SOL    HW285434   5.283  10.112   7.936  0.9092  0.6342 -1.5446
59525SOL     OW85435   3.142  11.837   1.964  0.9477 -0.3223  0.4327
59525SOL    HW185436   3.064  11.883   1.932  1.3807  0.4311  0.4473
59525SOL    HW285437   3.122  11.818   2.055  1.0110  0.3992  0.6051
59526SOL     OW85438   5.661  12.387   3.468  0.5232 -0.2496  0.1013
59526SOL    HW185439   5.683  12.294   3.480 -1.5504 -0.8944 -0.6707
59526SOL    HW285440   5.645  12.419   3.556  0.5916 -0.8131  0.3248
59527SOL     OW85441   5.112   5.162   6.764  0.0426 -0.3929  0.0177
59527SOL    HW185442   5.127   5.072   6.791 -0.7725 -0.5080  0.1139
59527SOL    HW285443   5.164   5.173   6.685 -0.3895 -1.1586 -0.3767
59528SOL     OW85444  10.852   5.660   4.636  0.7160 -0.1873 -0.0013
59528SOL    HW185445  10.877   5.663   4.728  0.7530  1.3935 -0.0346
59528SOL    HW285446  10.781   5.723   4.628 -0.3662 -1.4384 -0.7754
59529SOL     OW85447   1.928   9.453   3.682 -0.0077 -0.1694  0.6255
59529SOL    HW185448   1.861   9.506   3.724  1.0733  0.9852  0.9618
59529SOL    HW285449   1.880   9.393   3.626 -1.3539 -0.0163  1.5837
59530SOL     OW85450   4.716  10.504   6.310  0.1565 -0.1382  0.1779
59530SOL    HW185451   4.640  10.505   6.368 -0.1081 -0.0367 -0.1643
59530SOL    HW285452   4.683  10.541   6.228  0.3994 -0.7204 -0.1915
59531SOL     OW85453  11.864   3.907   9.402  0.1025 -0.4413 -0.7747
59531SOL    HW185454  11.772   3.882   9.389  0.2957 -0.9380 -1.2190
59531SOL    HW285455  11.910   3.824   9.413  0.1019 -0.1296  2.3629
59532SOL     OW85456  12.352   8.168   3.871  0.3630 -0.4704 -0.2073
59532SOL    HW185457  12.366   8.090   3.817  0.1068 -1.0534  0.5448
59532SOL    HW285458  12.264   8.155   3.908  0.0498  0.4946 -0.5827
59533SOL     OW85459  11.957  12.243   7.593  0.4842 -0.3013 -0.6355
59533SOL    HW185460  11.910  12.226   7.511  0.7630  0.6272 -1.0076
59533SOL    HW285461  12.045  12.208   7.578  0.3470 -0.7072 -0.4942
59534SOL     OW85462  12.122   5.338   2.736  0.1258 -0.3238  0.1683
59534SOL    HW185463  12.071   5.399   2.789  1.8907  0.5711  0.9561
59534SOL    HW285464  12.083   5.253   2.752 -0.6512  0.2221  1.3191
59535SOL     OW85465  12.351   9.286   0.464 -0.0333  0.1314  0.6107
59535SOL    HW185466  12.289   9.334   0.519 -2.3063 -0.7055 -1.0772
59535SOL    HW285467  12.366   9.342   0.388 -0.5912 -0.6343 -0.0866
59536SOL     OW85468  12.183  11.729  12.110 -0.5653 -0.1034 -0.3481
59536SOL    HW185469  12.208  11.637  12.116  0.0916  0.1271  0.6588
59536SOL    HW285470  12.102  11.728  12.059 -1.1030 -1.3294  0.4769
59537SOL     OW85471   4.833   1.652  12.384 -0.2656 -0.0495  0.1712
59537SOL    HW185472   4.759   1.627  12.328 -0.0264 -1.2486  0.3514
59537SOL    HW285473   4.816   1.743  12.407 -0.2251  0.5729 -2.0456
59538SOL     OW85474   9.704   6.405   4.690  0.1080  0.4244 -0.4424
59538SOL    HW185475   9.742   6.491   4.709  2.0476 -0.5835  0.5752
59538SOL    HW285476   9.748   6.346   4.751 -2.3050 -1.0773 -0.0402
59539SOL     OW85477   7.961   7.649  11.264 -0.2664 -0.3753  0.5185
59539SOL    HW185478   8.007   7.623  11.184  0.9544 -0.2731  1.1624
59539SOL    HW285479   7.903   7.720  11.236  1.7687  1.2282  0.0838
59540SOL     OW85480   4.352   6.021   4.890 -1.0544  0.6144  0.0304
59540SOL    HW185481   4.348   6.082   4.964  0.8940 -0.2031  0.8612
59540SOL    HW285482   4.439   5.983   4.895 -1.2837 -0.2865 -2.0629
59541SOL     OW85483   0.328   4.460   4.769 -0.0072 -0.2142 -0.6067
59541SOL    HW185484   0.372   4.505   4.841  0.2857 -0.4120 -0.6611
59541SOL    HW285485   0.238   4.449   4.800  0.4908 -1.7547  0.4144
59542SOL     OW85486   0.723   2.652   2.386  0.1913 -0.1757  0.9214
59542SOL    HW185487   0.705   2.738   2.347  0.8884 -0.2939  0.3154
59542SOL    HW285488   0.666   2.592   2.337 -1.1947  0.0724  2.1376
59543SOL     OW85489   8.600   0.261   3.068  0.1302  0.7341 -0.1463
59543SOL    HW185490   8.545   0.340   3.066 -0.6525  0.1880 -0.5157
59543SOL    HW285491   8.580   0.216   2.986 -1.3237 -1.0983  1.1124
59544SOL     OW85492  11.690  11.689   2.600 -0.2668  0.0010  0.1931
59544SOL    HW185493  11.768  11.706   2.653  0.9467 -2.7670 -0.5440
59544SOL    HW285494  11.633  11.637   2.657 -0.1629 -0.6658 -0.3046
59545SOL     OW85495  11.561   8.690   8.471 -0.6116  0.3745  0.3113
59545SOL    HW185496  11.521   8.774   8.445  1.2321  0.8720 -1.1013
59545SOL    HW285497  11.640   8.716   8.518  0.6622 -0.5342 -1.2557
59546SOL     OW85498   1.303   2.590   1.300  0.4907  0.0447  0.2357
59546SOL    HW185499   1.341   2.644   1.230  0.8130  0.0974  0.4518
59546SOL    HW285500   1.374   2.533   1.328 -0.4114 -2.0923 -1.5156
59547SOL     OW85501   2.905   3.127   8.016  0.0687 -0.0885  0.3271
59547SOL    HW185502   2.900   3.184   7.939  0.1440  1.3365  1.3519
59547SOL    HW285503   2.819   3.085   8.020 -0.0584  0.1027 -0.3182
59548SOL     OW85504   2.145  10.810  10.701 -0.1036 -0.2768  0.3623
59548SOL    HW185505   2.062  10.812  10.653  0.4620 -0.1122 -0.6568
59548SOL    HW285506   2.124  10.767  10.783 -1.1873 -0.2916  0.0999
59549SOL     OW85507   8.657   4.447  10.663 -0.3222 -0.3605  0.3529
59549SOL    HW185508   8.713   4.409  10.730  0.6518  0.0943 -0.1951
59549SOL    HW285509   8.676   4.540  10.664 -1.0007 -0.2108  0.0908
59550SOL     OW85510   3.864   6.854   2.260  0.2829 -0.2329 -0.4535
59550SOL    HW185511   3.790   6.821   2.312 -0.3210 -0.1612 -1.2416
59550SOL    HW285512   3.876   6.944   2.290  1.7233 -1.0109  1.4735
59551SOL     OW85513  11.836   0.766  10.789  0.0185 -0.2040  0.4510
59551SOL    HW185514  11.899   0.835  10.810  0.3597 -0.2689 -0.3574
59551SOL    HW285515  11.756   0.793  10.834  0.7498 -0.3981  1.9557
59552SOL     OW85516   9.930   5.242   8.455 -0.0328  0.3004 -0.0951
59552SOL    HW185517   9.918   5.222   8.362 -0.0704  2.0012 -0.4953
59552SOL    HW285518   9.957   5.159   8.495 -0.4694 -0.5586 -1.5355
59553SOL     OW85519  12.175   3.502   4.382  0.5658 -0.5664  0.2175
59553SOL    HW185520  12.118   3.450   4.326  2.2800 -1.0392 -1.1848
59553SOL    HW285521  12.173   3.458   4.467 -1.2975 -0.4194  0.2778
59554SOL     OW85522   8.080   5.016   5.169 -0.2788 -0.1632 -0.0910
59554SOL    HW185523   8.050   5.103   5.144 -0.1636 -0.1114 -0.0504
59554SOL    HW285524   8.153   5.032   5.229  0.2729 -0.2848 -0.7207
59555SOL     OW85525   2.163   4.014   7.744  0.1032  0.1583 -0.2249
59555SOL    HW185526   2.239   3.968   7.709 -0.3327 -0.5594 -0.2642
59555SOL    HW285527   2.199   4.084   7.799  0.7919  0.9454 -1.6470
59556SOL     OW85528   5.227   4.861   9.935 -0.3772  0.0958 -0.0115
59556SOL    HW185529   5.184   4.780   9.908 -0.5863  0.0474  0.4384
59556SOL    HW285530   5.319   4.838   9.947 -0.4504 -0.0932  0.1867
59557SOL     OW85531   7.314   9.772   7.450 -0.0555  0.1825  0.2933
59557SOL    HW185532   7.389   9.763   7.392 -1.8047 -1.0654 -1.9476
59557SOL    HW285533   7.340   9.838   7.514  2.4310  0.7258 -1.1786
59558SOL     OW85534   6.510   0.450   1.358 -0.0078  0.5821 -0.0321
59558SOL    HW185535   6.559   0.382   1.311 -1.0986 -0.2705  0.0294
59558SOL    HW285536   6.441   0.402   1.404 -0.9906  1.7799 -0.2304
59559SOL     OW85537   9.455   5.340   6.092 -0.0441 -0.1532  0.1102
59559SOL    HW185538   9.426   5.351   6.182 -1.4066  1.4056 -0.4515
59559SOL    HW285539   9.378   5.309   6.045  0.5671 -0.6750 -0.5815
59560SOL     OW85540   9.915   5.139  11.008 -0.3040 -0.0420 -0.2831
59560SOL    HW185541   9.930   5.102  11.095 -0.6491 -1.2598 -0.7184
59560SOL    HW285542   9.832   5.186  11.016 -0.1356  0.1848  0.1454
59561SOL     OW85543  11.940   9.745   1.412 -0.7024  0.4100 -0.8555
59561SOL    HW185544  11.892   9.808   1.466 -0.8262 -0.2226 -0.2107
59561SOL    HW285545  11.992   9.799   1.353 -2.0372  1.1257 -1.4369
59562SOL     OW85546   8.620   3.087  11.622  0.4724 -0.2571  0.0841
59562SOL    HW185547   8.530   3.081  11.590  1.3307 -0.7340 -2.4885
59562SOL    HW285548   8.654   3.169  11.586  1.6474 -1.0640 -0.7475
59563SOL     OW85549  11.768   5.371   3.465  0.0365  0.7058  0.2420
59563SOL    HW185550  11.744   5.344   3.553 -0.3809  1.2267  0.2934
59563SOL    HW285551  11.862   5.386   3.469  0.3794 -1.2288  0.0727
59564SOL     OW85552   2.922   9.117   8.575  0.2027  0.3448  0.5157
59564SOL    HW185553   2.921   9.201   8.530 -1.2819  0.5578  0.9163
59564SOL    HW285554   2.965   9.057   8.513  2.0939  1.5521  0.5824
59565SOL     OW85555  11.454   3.652   6.374 -0.3897  0.0551  0.2536
59565SOL    HW185556  11.509   3.604   6.312 -0.1831 -2.0786  1.9954
59565SOL    HW285557  11.371   3.664   6.328 -0.2551 -1.4993 -0.4529
59566SOL     OW85558   4.939   0.490   2.430 -0.3241 -0.0607  0.2513
59566SOL    HW185559   4.953   0.399   2.456 -1.4117 -0.1312  0.6392
59566SOL    HW285560   4.844   0.502   2.434 -0.3445  0.6253 -1.3929
59567SOL     OW85561   0.484   6.158   6.836  0.2282  0.5277 -0.3779
59567SOL    HW185562   0.503   6.178   6.928  0.8063 -0.8207 -0.1686
59567SOL    HW285563   0.422   6.225   6.809 -2.6330 -0.9131  1.9845
59568SOL     OW85564   1.847   4.551  11.786 -0.6422  0.1394 -0.2253
59568SOL    HW185565   1.771   4.495  11.773 -0.8554 -0.3224  2.5295
59568SOL    HW285566   1.815   4.639  11.769 -1.4944 -0.1556 -0.1965
59569SOL     OW85567   1.516  11.737   8.970  0.0310 -0.1701  0.3219
59569SOL    HW185568   1.553  11.675   8.907  0.5696  0.4874 -0.0153
59569SOL    HW285569   1.577  11.735   9.043  1.8354  2.2723 -0.9809
59570SOL     OW85570   5.646   8.159  10.770 -0.9780  0.6213 -0.0615
59570SOL    HW185571   5.571   8.175  10.827 -0.6213 -1.5538  1.1135
59570SOL    HW285572   5.611   8.109  10.697 -0.7757  0.0607  0.2207
59571SOL     OW85573   9.252   3.290   6.590  0.0640  0.2931  0.1161
59571SOL    HW185574   9.224   3.231   6.660 -0.5217  0.5789  0.1279
59571SOL    HW285575   9.326   3.244   6.548 -0.0664 -0.2178  0.4380
59572SOL     OW85576  11.771  10.304   2.444  0.1145  0.0862  0.3889
59572SOL    HW185577  11.764  10.371   2.377 -0.4300  1.9570  2.1983
59572SOL    HW285578  11.864  10.301   2.466  0.0500  0.7847  0.7843
59573SOL     OW85579   5.152   6.589   4.126  0.4115 -0.2187 -0.0419
59573SOL    HW185580   5.208   6.653   4.083 -0.7985  1.4989  0.8291
59573SOL    HW285581   5.205   6.553   4.197  0.5011  1.2056  0.6283
59574SOL     OW85582   4.165   4.212   2.720  0.1498 -0.0322 -0.2898
59574SOL    HW185583   4.211   4.211   2.635  0.0452  1.3201 -0.3788
59574SOL    HW285584   4.212   4.147   2.773 -0.4892 -1.7507 -1.7231
59575SOL     OW85585  11.348   8.301   0.671  0.1642  0.0631  0.1407
59575SOL    HW185586  11.366   8.388   0.635 -0.2743  0.0092 -0.2239
59575SOL    HW285587  11.337   8.316   0.765  0.9260  0.2659  0.2047
59576SOL     OW85588   9.167   0.133   8.446  0.7139  0.3492  0.3526
59576SOL    HW185589   9.185   0.114   8.354 -2.0363 -0.7801 -0.0418
59576SOL    HW285590   9.243   0.099   8.493  1.4465 -0.5255 -1.3743
59577SOL     OW85591   5.828   4.289   8.123 -0.1608 -0.0955 -0.2673
59577SOL    HW185592   5.858   4.359   8.180 -0.2119 -0.8776  0.7530
59577SOL    HW285593   5.835   4.210   8.177 -2.6818 -0.5197 -0.4219
59578SOL     OW85594   5.787   0.373  11.054  0.1483 -0.0006 -0.0111
59578SOL    HW185595   5.744   0.442  11.104 -1.6291 -1.2351  0.2333
59578SOL    HW285596   5.757   0.291  11.095 -0.4716 -1.0154 -2.3485
59579SOL     OW85597  12.057   6.743   5.053  0.0027 -0.2602  0.3049
59579SOL    HW185598  12.010   6.696   5.123  0.4683 -1.3568 -0.0890
59579SOL    HW285599  12.075   6.675   4.988  0.5456  0.5262 -0.3734
59580SOL     OW85600  11.865  10.949   9.893  0.1411  0.2034  0.0068
59580SOL    HW185601  11.861  10.963   9.798  1.9367  0.0838 -0.1209
59580SOL    HW285602  11.899  10.860   9.903  0.3673  0.3687  0.7621
59581SOL     OW85603   4.010  11.505  11.096  0.0707  0.4892 -0.2859
59581SOL    HW185604   4.098  11.543  11.098 -0.3035  1.4256 -1.1164
59581SOL    HW285605   3.958  11.566  11.044 -1.0425 -0.1328  0.0651
59582SOL     OW85606   5.560   3.271   1.946  0.3703 -0.0144  0.2374
59582SOL    HW185607   5.581   3.288   2.038  0.2642 -1.0560  0.4664
59582SOL    HW285608   5.641   3.291   1.899  1.5285 -2.5974  0.9462
59583SOL     OW85609   6.861   6.808   5.739 -0.5942 -0.1639 -0.4380
59583SOL    HW185610   6.837   6.825   5.830  1.6376  0.2747  0.1334
59583SOL    HW285611   6.872   6.713   5.734 -1.4887 -0.2788 -0.4970
59584SOL     OW85612   2.515   3.140   4.045  0.1310  0.1634 -0.2184
59584SOL    HW185613   2.587   3.105   4.097 -0.2854  0.8127  0.8187
59584SOL    HW285614   2.436   3.115   4.092 -0.2066  1.7025  0.0727
59585SOL     OW85615   5.255   4.538   0.039  0.7785 -0.1750 -0.4006
59585SOL    HW185616   5.274   4.563  -0.051  0.2772  0.0122 -0.4568
59585SOL    HW285617   5.180   4.478   0.032  0.1233  0.5930 -0.0394
59586SOL     OW85618   9.661  10.693   8.706  0.2161  0.5471  0.0086
59586SOL    HW185619   9.750  10.713   8.676 -0.0581  1.5278 -0.1902
59586SOL    HW285620   9.628  10.629   8.643  0.4173  0.9654 -0.5286
59587SOL     OW85621   6.280   0.512   8.780  0.0292  0.3882  0.0447
59587SOL    HW185622   6.354   0.571   8.767 -1.2226  2.5163  1.9275
59587SOL    HW285623   6.271   0.506   8.875 -0.4131 -2.2764 -0.0887
59588SOL     OW85624  10.518   1.037   7.735 -0.0395 -0.6460 -0.4762
59588SOL    HW185625  10.490   0.947   7.748 -2.6739  0.4492  3.8134
59588SOL    HW285626  10.443   1.079   7.693 -0.4612  0.1742  1.0082
59589SOL     OW85627  12.041  10.733   6.449  0.2192 -0.4255  0.1015
59589SOL    HW185628  11.970  10.680   6.484 -0.1730  1.0621  1.7574
59589SOL    HW285629  12.049  10.806   6.511  1.9752  0.4310 -1.0294
59590SOL     OW85630   4.566  11.949   2.573 -0.4418  0.4813  0.2427
59590SOL    HW185631   4.651  11.953   2.617 -0.7622  0.8691  0.8195
59590SOL    HW285632   4.502  11.974   2.639 -1.0418 -0.0608 -0.1153
59591SOL     OW85633   9.734   1.866  10.113  0.4614 -0.2206 -0.4127
59591SOL    HW185634   9.711   1.773  10.123 -1.0676  0.2506  0.8315
59591SOL    HW285635   9.830   1.866  10.109  0.4879 -1.8526 -0.4940
59592SOL     OW85636   2.436  11.347  12.259  0.1464 -0.1237  1.0654
59592SOL    HW185637   2.512  11.298  12.226 -0.1767  0.0634 -0.0171
59592SOL    HW285638   2.413  11.406  12.187 -0.3417  0.6100  1.8157
59593SOL     OW85639   7.063   7.601  11.149  0.1912 -0.0974  0.1145
59593SOL    HW185640   6.997   7.536  11.123 -0.3430  0.7073 -0.6042
59593SOL    HW285641   7.143   7.550  11.161 -0.5335 -1.0826  0.9128
59594SOL     OW85642   5.497   4.082   3.667 -0.3572 -0.1592 -0.0176
59594SOL    HW185643   5.527   4.033   3.743  0.9445  1.2392  0.4184
59594SOL    HW285644   5.496   4.173   3.696  0.2311  0.4204 -1.6811
59595SOL     OW85645   8.236   6.043   4.636  0.2803 -0.3299  0.5595
59595SOL    HW185646   8.301   5.980   4.605  2.3123  2.1888 -0.7029
59595SOL    HW285647   8.284   6.125   4.643 -2.5677  1.4531  0.6143
59596SOL     OW85648   5.185  12.467   3.817  0.3702  0.2312 -0.1551
59596SOL    HW185649   5.102  12.456   3.862 -0.1855  0.8029 -1.0118
59596SOL    HW285650   5.161  12.490   3.727  1.4485  1.0469 -0.2549
59597SOL     OW85651   3.665   7.562  10.013  0.3669 -0.5494 -0.1394
59597SOL    HW185652   3.608   7.529   9.943 -3.2084  2.6392  0.8575
59597SOL    HW285653   3.733   7.612   9.968 -0.8923  0.0609 -1.4437
59598SOL     OW85654   1.734   5.531   1.341  0.2635 -0.5695  0.2302
59598SOL    HW185655   1.746   5.623   1.365 -1.8359 -0.1784 -0.0148
59598SOL    HW285656   1.647   5.510   1.374  1.1528 -2.8345  1.2877
59599SOL     OW85657   9.512  11.673   5.771  0.3327  0.0253 -0.2905
59599SOL    HW185658   9.558  11.754   5.749 -0.5097  0.4861 -0.3771
59599SOL    HW285659   9.530  11.615   5.697  0.4827  0.3248 -0.4925
59600SOL     OW85660   1.055   4.038   1.288 -0.4737 -0.2489  0.7616
59600SOL    HW185661   1.024   4.011   1.202  0.2711 -0.4277  0.5399
59600SOL    HW285662   0.982   4.086   1.326  0.4623  3.4593 -1.5808
59601SOL     OW85663   4.242  12.479  11.482  0.4387 -0.4315 -0.4155
59601SOL    HW185664   4.280  12.537  11.548 -3.2737 -0.6692  2.2531
59601SOL    HW285665   4.302  12.405  11.477  2.0267  0.6872  0.9059
59602SOL     OW85666   2.943   9.210   6.309  0.0221 -0.6157  0.4081
59602SOL    HW185667   2.987   9.153   6.246  0.0399  1.2145 -1.3638
59602SOL    HW285668   2.880   9.260   6.256  1.0732  2.0695  1.5136
59603SOL     OW85669   4.375   7.487  11.686 -0.8375  0.5375  0.7473
59603SOL    HW185670   4.449   7.511  11.742 -0.8098 -1.3755  1.6082
59603SOL    HW285671   4.406   7.413  11.635 -2.2597 -0.5825  1.4270
59604SOL     OW85672   9.450   9.431   2.833 -0.5207  0.1254  0.0783
59604SOL    HW185673   9.360   9.444   2.802 -0.5342 -0.0702  0.0373
59604SOL    HW285674   9.448   9.460   2.925 -0.4896  0.6606 -0.0856
59605SOL     OW85675   1.339  11.071  12.173  0.1732 -0.2417  0.5275
59605SOL    HW185676   1.278  11.127  12.124 -0.7864 -1.8755 -0.2178
59605SOL    HW285677   1.323  11.094  12.265 -1.8102 -0.8205  0.3744
59606SOL     OW85678   1.317   2.796   0.273 -0.4286 -0.0041 -0.3345
59606SOL    HW185679   1.382   2.764   0.210 -1.2324 -1.1635 -0.5906
59606SOL    HW285680   1.247   2.832   0.218 -0.2395  0.8123 -0.0610
59607SOL     OW85681   0.472   3.406   1.321  0.9944 -0.3253 -0.3970
59607SOL    HW185682   0.399   3.448   1.276  0.3235 -1.8208 -0.7355
59607SOL    HW285683   0.498   3.470   1.388 -1.3539 -0.2004  0.4933
59608SOL     OW85684  11.799   3.735   5.285  0.5078  0.5841  0.0650
59608SOL    HW185685  11.821   3.824   5.256 -0.1725  0.6802 -0.1575
59608SOL    HW285686  11.706   3.726   5.267  0.5041 -0.0622  0.3959
59609SOL     OW85687   9.167   0.124   7.818  0.1799 -0.3113  0.3433
59609SOL    HW185688   9.096   0.123   7.753  0.9153 -1.0614 -0.4843
59609SOL    HW285689   9.214   0.205   7.799 -1.1657  0.8566  1.7378
59610SOL     OW85690   0.252   4.904   9.088 -0.3272  0.1120  0.2542
59610SOL    HW185691   0.326   4.925   9.146 -0.0483 -0.6940  0.2041
59610SOL    HW285692   0.217   4.822   9.123 -1.7504  0.9164  0.8031
59611SOL     OW85693   4.773   3.441   2.911 -0.2001 -0.2569 -0.0014
59611SOL    HW185694   4.690   3.403   2.880  0.3539 -0.9952 -0.6110
59611SOL    HW285695   4.817   3.369   2.955  0.1046  0.1492  0.3647
59612SOL     OW85696   9.490   0.565  12.294 -0.2199  0.4351  0.1916
59612SOL    HW185697   9.536   0.487  12.328 -2.3092 -1.3583 -0.8690
59612SOL    HW285698   9.457   0.538  12.209 -0.9737  2.5605 -0.2415
59613SOL     OW85699   8.013   3.496   7.423 -0.1174  0.1882 -0.4850
59613SOL    HW185700   7.933   3.445   7.439 -0.6491  1.7088  2.3301
59613SOL    HW285701   8.083   3.431   7.423 -1.0143 -0.8396  0.7177
59614SOL     OW85702   2.382   5.267   0.054  0.2250 -0.2212  0.3794
59614SOL    HW185703   2.366   5.326  -0.020  1.9826  0.1272  0.2094
59614SOL    HW285704   2.410   5.325   0.125  2.2368 -0.8094  0.1315
59615SOL     OW85705   7.965   8.010   4.608 -0.2637  0.7392 -0.5004
59615SOL    HW185706   7.961   8.101   4.581 -1.2446  0.7908 -0.2221
59615SOL    HW285707   7.873   7.983   4.614 -0.0610  0.3537  1.4752
59616SOL     OW85708   3.251   9.437   4.084 -0.6155  0.2927 -0.3176
59616SOL    HW185709   3.221   9.481   4.005 -3.4225 -0.0363  0.4718
59616SOL    HW285710   3.251   9.344   4.061  1.7181  0.3677 -0.8498
59617SOL     OW85711   3.957   8.574   3.266 -0.0316 -0.4929  0.0013
59617SOL    HW185712   3.949   8.533   3.180 -1.0554 -1.7914  0.6959
59617SOL    HW285713   3.899   8.524   3.323 -1.0773  1.6859  0.9919
59618SOL     OW85714  11.944   9.429  10.556 -0.2234  0.0981 -0.8804
59618SOL    HW185715  12.028   9.385  10.565 -0.9531 -0.9009  2.2889
59618SOL    HW285716  11.881   9.370  10.598 -1.4351  3.4490  2.6291
59619SOL     OW85717   6.481  10.875  10.972 -0.1953  0.0183  0.5756
59619SOL    HW185718   6.539  10.875  10.895 -0.4421  2.0463  0.3337
59619SOL    HW285719   6.539  10.893  11.046 -0.4897  2.6648  0.2623
59620SOL     OW85720  10.565   5.713   4.383 -0.1209  0.4207 -0.6966
59620SOL    HW185721  10.488   5.656   4.372 -0.0558  0.1696  0.0899
59620SOL    HW285722  10.566   5.734   4.476  0.1578  1.2991 -0.8936
59621SOL     OW85723  10.227   2.335   0.416  0.2942 -0.5380 -0.2019
59621SOL    HW185724  10.144   2.308   0.376 -0.9379  1.5756  0.7302
59621SOL    HW285725  10.237   2.426   0.390  1.5967 -0.3496  0.8824
59622SOL     OW85726   3.885   3.094   3.521  0.2877  0.4215 -0.2552
59622SOL    HW185727   3.828   3.171   3.523  1.1213  1.0505 -0.2211
59622SOL    HW285728   3.947   3.108   3.593  0.9389  0.1072 -0.7478
59623SOL     OW85729   7.612   0.959  10.465  0.3125 -0.1298 -0.3687
59623SOL    HW185730   7.591   0.902  10.539 -1.2208 -2.4758 -2.4090
59623SOL    HW285731   7.708   0.954  10.457  0.3219 -1.4280  0.3107
59624SOL     OW85732   1.556   9.693   2.819  0.0316 -0.0085 -0.0571
59624SOL    HW185733   1.644   9.730   2.828 -0.1637  0.0775  2.0924
59624SOL    HW285734   1.520   9.697   2.908 -1.9525 -0.5301 -0.8001
59625SOL     OW85735   0.006   8.592   8.155  0.0665  0.7152 -0.0230
59625SOL    HW185736   0.079   8.654   8.148 -0.1156  0.8498 -0.8518
59625SOL    HW285737  -0.003   8.577   8.249  1.6263  0.1394  0.0735
59626SOL     OW85738   9.943   7.598   6.591  0.0230  0.6804 -0.3560
59626SOL    HW185739  10.036   7.613   6.604 -0.0625  0.3950  0.7657
59626SOL    HW285740   9.924   7.634   6.505  1.1047  1.0162 -0.4692
59627SOL     OW85741  11.242   3.673   6.167  0.3595 -0.3705 -0.2076
59627SOL    HW185742  11.242   3.578   6.158  1.1145 -0.2433 -1.8783
59627SOL    HW285743  11.317   3.702   6.115 -1.1988  1.2755 -1.6565
59628SOL     OW85744   2.417   3.804   8.767  0.4757 -0.8938  0.0564
59628SOL    HW185745   2.385   3.841   8.685 -0.0026 -1.5610 -0.0584
59628SOL    HW285746   2.342   3.806   8.826  1.0456  0.4418  0.7986
59629SOL     OW85747   8.782  10.581   2.268 -0.0059 -0.4148 -0.4274
59629SOL    HW185748   8.722  10.510   2.288 -1.8025  1.0514 -0.3666
59629SOL    HW285749   8.762  10.649   2.332  2.0674 -0.0265 -0.0973
59630SOL     OW85750   9.549   9.299   1.399  0.4851  0.4359  0.4604
59630SOL    HW185751   9.561   9.264   1.487  1.3685  0.7447  0.4767
59630SOL    HW285752   9.460   9.334   1.398  0.7384  1.1322  1.4860
59631SOL     OW85753  11.959  11.954  11.571 -0.3256 -0.1375  0.1738
59631SOL    HW185754  12.044  11.915  11.588  0.0679  0.3358 -0.6784
59631SOL    HW285755  11.976  12.048  11.568 -0.8443 -0.0491 -0.1820
59632SOL     OW85756   4.693  11.646   9.309 -0.7461 -0.3206  0.2519
59632SOL    HW185757   4.644  11.688   9.380 -0.4869 -3.2373  2.3845
59632SOL    HW285758   4.672  11.697   9.231 -5.5770 -0.1102  1.3597
59633SOL     OW85759   9.888  12.226   4.914 -0.6200 -0.2367 -0.2119
59633SOL    HW185760   9.829  12.153   4.897 -0.6868 -0.0701 -0.7211
59633SOL    HW285761   9.975  12.186   4.923 -0.7289 -0.4250  0.0097
59634SOL     OW85762   3.177   7.586  12.267 -0.8217 -0.4993 -0.3228
59634SOL    HW185763   3.162   7.629  12.183  0.1267 -1.4291 -0.9925
59634SOL    HW285764   3.214   7.655  12.323 -1.5955  0.1646 -0.6036
59635SOL     OW85765   0.607   1.588   0.538  0.0832 -0.5516 -0.3552
59635SOL    HW185766   0.515   1.609   0.555  0.5553  0.1135  1.5573
59635SOL    HW285767   0.654   1.670   0.552  0.9217 -0.7204 -1.9649
59636SOL     OW85768   5.712   2.715  12.228  0.0419  0.6282  0.2526
59636SOL    HW185769   5.619   2.695  12.220 -0.1153  1.5478 -0.3254
59636SOL    HW285770   5.756   2.645  12.180 -0.4717  1.3923 -1.3850
59637SOL     OW85771   2.113   4.111   1.743  0.1976  0.7336 -0.6294
59637SOL    HW185772   2.153   4.185   1.789  0.3119 -0.0575  0.5763
59637SOL    HW285773   2.131   4.128   1.651  2.8867  0.6646 -0.1802
59638SOL     OW85774   9.590   5.487   8.136  0.1889 -0.3516  0.4964
59638SOL    HW185775   9.582   5.516   8.227 -1.1267  0.9801 -0.0110
59638SOL    HW285776   9.588   5.391   8.142  1.8950 -0.3602  1.9899
59639SOL     OW85777   2.257   2.929  11.524  0.3206 -0.6051  0.1080
59639SOL    HW185778   2.231   2.856  11.468 -1.5027 -0.1254  0.2428
59639SOL    HW285779   2.307   2.889  11.595 -1.2444 -1.8394  0.5679
59640SOL     OW85780   7.230   2.030   8.599  0.0148  0.2528  0.0669
59640SOL    HW185781   7.228   1.958   8.535  1.5009 -0.6821  1.0115
59640SOL    HW285782   7.199   1.990   8.681 -0.5524  1.0854  0.2777
59641SOL     OW85783   6.606   6.754   7.561 -0.3309  0.1261 -0.6011
59641SOL    HW185784   6.534   6.789   7.615  1.6576  1.3940  1.3964
59641SOL    HW285785   6.672   6.727   7.624  1.5096  0.2638 -2.3800
59642SOL     OW85786   6.210  11.015   7.583  0.7897 -0.2784 -0.1851
59642SOL    HW185787   6.169  10.971   7.508 -1.5241  0.0876  0.7994
59642SOL    HW285788   6.256  10.945   7.630 -0.0441 -1.0255 -0.4591
59643SOL     OW85789   7.345  11.972   1.309 -0.5179 -0.0460 -0.6855
59643SOL    HW185790   7.312  11.908   1.372  1.8075 -0.8579 -0.1907
59643SOL    HW285791   7.391  11.920   1.244  0.5540  1.0343 -0.8311
59644SOL     OW85792   6.512   3.419   1.480  0.6402 -0.2593 -0.0681
59644SOL    HW185793   6.566   3.404   1.402  0.7873  0.8682 -0.2046
59644SOL    HW285794   6.569   3.392   1.553  1.1012  0.1542 -0.2631
59645SOL     OW85795   2.534   3.627   8.933  0.6202  0.2304 -0.0858
59645SOL    HW185796   2.578   3.577   8.865  1.7329 -0.6183  1.2310
59645SOL    HW285797   2.495   3.701   8.886  0.2046 -1.0394 -1.8367
59646SOL     OW85798   4.276   0.137   0.077  0.0467  0.5339 -0.1017
59646SOL    HW185799   4.259   0.094  -0.007  0.5345  0.9767 -0.4312
59646SOL    HW285800   4.370   0.156   0.075  0.0482  0.5977  0.5225
59647SOL     OW85801  10.329  10.697   9.815  0.1298 -0.2822 -0.0509
59647SOL    HW185802  10.413  10.728   9.780 -0.0942  1.5056  0.8679
59647SOL    HW285803  10.303  10.626   9.757  1.9931 -0.4823 -0.7018
59648SOL     OW85804   7.025   1.066   3.816  0.0774 -0.1151  0.3008
59648SOL    HW185805   6.968   1.112   3.878  0.0547 -0.4233  0.5106
59648SOL    HW285806   7.089   1.021   3.871  0.1190 -0.3072  0.0968
59649SOL     OW85807   9.167  12.323  10.864  0.3551 -0.6259 -0.0294
59649SOL    HW185808   9.129  12.238  10.840 -0.6420  0.0515 -0.9629
59649SOL    HW285809   9.166  12.373  10.782 -1.8739  1.3211  1.0759
59650SOL     OW85810   6.253   7.005   6.859 -0.2004  0.3548 -0.0759
59650SOL    HW185811   6.271   7.096   6.835 -0.2392 -0.1453 -2.2752
59650SOL    HW285812   6.196   6.973   6.789 -2.4082 -0.6412  2.0541
59651SOL     OW85813   8.275   9.344   5.182  0.0677 -0.4822 -0.3400
59651SOL    HW185814   8.208   9.334   5.249  0.2031 -0.7405 -0.2415
59651SOL    HW285815   8.254   9.276   5.117 -0.6816  0.4387 -1.0815
59652SOL     OW85816   7.992   7.364   7.883  0.5988 -0.2691 -0.0495
59652SOL    HW185817   8.045   7.428   7.930  0.3191 -0.3841  0.4295
59652SOL    HW285818   7.937   7.324   7.951 -1.3191  1.0252 -0.7624
59653SOL     OW85819   8.407   4.332  11.638  0.0313  0.5202  0.2252
59653SOL    HW185820   8.476   4.368  11.582  0.0979  0.1090  0.0433
59653SOL    HW285821   8.328   4.380  11.613 -0.0896 -0.1598 -0.7285
59654SOL     OW85822   0.033   8.612   1.700 -0.2130 -0.6279  0.1498
59654SOL    HW185823  -0.047   8.563   1.678  0.0573 -1.2800  0.5900
59654SOL    HW285824   0.093   8.545   1.733  0.6480 -0.1956 -0.5246
59655SOL     OW85825   9.531   6.235   6.749 -0.4964 -0.5741 -0.3288
59655SOL    HW185826   9.567   6.154   6.786  0.3709 -0.6472 -1.3148
59655SOL    HW285827   9.583   6.251   6.671 -1.1189  0.5731 -0.5203
59656SOL     OW85828  12.304   1.659   3.146 -0.6789 -0.1210 -0.9942
59656SOL    HW185829  12.361   1.723   3.104 -1.5383  0.4117 -1.3884
59656SOL    HW285830  12.360   1.613   3.208  0.7203 -1.1676 -2.9339
59657SOL     OW85831   0.094   6.108   1.463 -0.1459  0.1540 -0.5232
59657SOL    HW185832   0.015   6.116   1.410 -0.3589  1.1081 -0.1052
59657SOL    HW285833   0.078   6.168   1.537  0.7330 -0.0682 -0.1427
59658SOL     OW85834  11.457   3.411   7.148  0.1943  0.1710  0.1989
59658SOL    HW185835  11.451   3.322   7.113  1.1214  0.3631 -0.4792
59658SOL    HW285836  11.406   3.408   7.229 -0.7757 -0.6627 -0.4094
59659SOL     OW85837   5.877   7.017   4.459 -0.1339 -0.0462  0.0239
59659SOL    HW185838   5.931   7.067   4.521  0.1655  0.6734 -0.7937
59659SOL    HW285839   5.859   7.079   4.388  1.5353 -1.5480 -1.7887
59660SOL     OW85840   5.249   5.909   5.759  0.7108  0.0468  0.1014
59660SOL    HW185841   5.185   5.916   5.689  0.6275  1.2816  0.2721
59660SOL    HW285842   5.323   5.963   5.730  0.7821  0.3573  0.8403
59661SOL     OW85843   5.430   8.855   8.358 -0.0161 -0.1935 -0.3530
59661SOL    HW185844   5.337   8.855   8.379 -0.6410 -1.6597 -2.6911
59661SOL    HW285845   5.436   8.901   8.274  1.7308  1.8000  0.7573
59662SOL     OW85846   4.179   3.092  11.137 -0.2964 -0.5222  0.1040
59662SOL    HW185847   4.166   3.031  11.064  1.4738 -2.2458  1.1463
59662SOL    HW285848   4.153   3.043  11.214 -0.4850  0.6828  0.8342
59663SOL     OW85849   2.276   1.270  11.572 -0.0423 -0.1974  0.1065
59663SOL    HW185850   2.329   1.197  11.540  0.6787 -1.0550  3.0318
59663SOL    HW285851   2.340   1.338  11.596 -0.3526 -0.4668  1.7932
59664SOL     OW85852   6.300  10.873   0.593 -0.3446  0.8030 -0.2146
59664SOL    HW185853   6.210  10.855   0.565 -0.1605 -1.2666  0.3387
59664SOL    HW285854   6.294  10.886   0.688 -0.0736  0.8422 -0.2015
59665SOL     OW85855   4.391   4.580   8.245  0.8201  0.2513 -0.4973
59665SOL    HW185856   4.412   4.656   8.299 -0.0438  1.4293 -1.7519
59665SOL    HW285857   4.476   4.548   8.213  1.2598  0.1035  0.7682
59666SOL     OW85858   3.785   3.759   2.915  0.7330  0.0706 -0.4722
59666SOL    HW185859   3.870   3.772   2.958  0.0979  2.5007  0.2206
59666SOL    HW285860   3.776   3.834   2.856 -0.8644 -0.2029 -0.6299
59667SOL     OW85861   7.236   3.082   6.341  0.0455  0.0392 -0.1864
59667SOL    HW185862   7.241   3.034   6.258 -2.1339  0.9664 -0.9307
59667SOL    HW285863   7.293   3.158   6.328  1.5237 -0.9772  0.0732
59668SOL     OW85864   8.486   3.213   7.454 -0.2313 -0.2803 -0.3883
59668SOL    HW185865   8.520   3.183   7.369  2.8101  0.5076  0.4445
59668SOL    HW285866   8.463   3.305   7.440 -0.7377 -0.4283 -0.5802
59669SOL     OW85867   6.142  10.074   9.627 -0.1441 -0.1488  0.2572
59669SOL    HW185868   6.073  10.132   9.595 -0.9712 -0.4321  1.4442
59669SOL    HW285869   6.124  10.065   9.721  1.1349 -0.7451  0.4661
59670SOL     OW85870   7.995   3.648   5.890  0.0849 -0.0790 -0.0708
59670SOL    HW185871   7.914   3.682   5.928 -0.1862  1.9279 -2.1910
59670SOL    HW285872   8.048   3.726   5.874  1.1149 -1.0325 -1.5841
59671SOL     OW85873   6.278  10.382   0.288 -0.6509 -0.2594  0.3515
59671SOL    HW185874   6.225  10.459   0.267  0.4636  0.6464  0.7880
59671SOL    HW285875   6.368  10.408   0.270 -0.2962 -1.6425  0.0065
59672SOL     OW85876   5.234  10.244  10.534  0.5183 -0.5116  0.4841
59672SOL    HW185877   5.323  10.215  10.550  0.8286  0.7745  1.2259
59672SOL    HW285878   5.214  10.303  10.607 -1.4382 -1.8104  1.0739
59673SOL     OW85879   6.621   3.803   0.296  0.4235 -0.7138 -0.5396
59673SOL    HW185880   6.535   3.764   0.311  1.1477 -1.8939  0.8393
59673SOL    HW285881   6.680   3.728   0.284  1.3480  0.0492 -0.9362
59674SOL     OW85882   6.934   4.126   2.885 -0.3869  0.4321 -0.2753
59674SOL    HW185883   6.890   4.110   2.801 -0.1772  2.6327 -0.8786
59674SOL    HW285884   6.864   4.145   2.946 -0.5874 -1.8480  0.2695
59675SOL     OW85885   9.412   8.675   5.050  0.3471 -0.7842  0.0239
59675SOL    HW185886   9.347   8.685   4.980  0.6396 -1.3845 -0.3453
59675SOL    HW285887   9.457   8.594   5.028  1.6212 -0.0735 -0.0440
59676SOL     OW85888   8.724  10.937  11.659 -0.2519 -0.4856  0.6204
59676SOL    HW185889   8.777  10.968  11.732  1.5957 -0.7254 -0.5706
59676SOL    HW285890   8.653  11.001  11.652  0.0574  0.0466  2.0023
59677SOL     OW85891  10.501  12.243   0.844 -0.1298 -0.5140  0.5641
59677SOL    HW185892  10.428  12.230   0.905 -0.5516 -0.0824  0.1582
59677SOL    HW285893  10.484  12.329   0.805  0.6665 -0.3512  0.5607
59678SOL     OW85894   5.016   9.565   7.438 -0.6312  0.2550 -0.2174
59678SOL    HW185895   4.949   9.604   7.382 -0.9050  0.9757  0.5780
59678SOL    HW285896   4.983   9.478   7.458  0.4910 -0.8754 -2.8863
59679SOL     OW85897   1.076   8.834   7.336 -0.6916 -0.1640 -0.4443
59679SOL    HW185898   1.124   8.820   7.254  2.3383 -0.8828  1.3182
59679SOL    HW285899   1.009   8.766   7.336  0.0556 -0.9485 -1.7626
59680SOL     OW85900   9.010   5.864   6.692 -0.4566  0.1357  0.0266
59680SOL    HW185901   9.085   5.851   6.634 -0.2280 -0.0186  0.3560
59680SOL    HW285902   8.954   5.925   6.645  0.3849  1.1083  0.2454
59681SOL     OW85903   2.879   7.363   6.663 -0.2396  0.1498 -0.8180
59681SOL    HW185904   2.800   7.395   6.706 -0.5972  0.9647 -2.0493
59681SOL    HW285905   2.948   7.375   6.728 -0.8635  0.8418 -0.2744
59682SOL     OW85906   8.145  10.554  11.566 -0.6282  0.2224  0.1676
59682SOL    HW185907   8.236  10.529  11.551  0.0678  1.8521  1.3502
59682SOL    HW285908   8.095  10.503  11.502  1.0886 -0.7870 -0.4357
59683SOL     OW85909   2.619   2.783   2.737  0.5025 -0.2432  0.5499
59683SOL    HW185910   2.708   2.797   2.769  0.6560 -2.1324  1.0865
59683SOL    HW285911   2.576   2.868   2.747  2.2235  0.7119  0.2681
59684SOL     OW85912   4.913   4.629   4.595  0.4936  0.1480  0.4010
59684SOL    HW185913   4.931   4.691   4.665  1.4358  0.5346 -0.1728
59684SOL    HW285914   4.998   4.612   4.555 -0.3927  2.6870 -2.9645
59685SOL     OW85915   0.257   1.737  10.669  0.4420  0.3197 -0.4355
59685SOL    HW185916   0.341   1.705  10.635 -0.3725 -1.1489 -1.1555
59685SOL    HW285917   0.260   1.716  10.762  1.3564  1.4005 -0.1985
59686SOL     OW85918  12.326   0.068   3.811  0.4868 -0.0634  0.1283
59686SOL    HW185919  12.368  -0.007   3.769  2.2477  0.4500  0.8706
59686SOL    HW285920  12.397   0.129   3.827 -0.8051  1.4996  0.1561
59687SOL     OW85921   7.630  10.025   4.531  0.5839 -0.3891  0.2233
59687SOL    HW185922   7.666  10.113   4.542 -0.7093  0.3197 -0.8514
59687SOL    HW285923   7.574  10.013   4.608 -1.7896  1.1122 -1.1222
59688SOL     OW85924   8.925   3.401  10.048  0.1186 -0.1739 -0.2970
59688SOL    HW185925   8.833   3.423  10.034  0.8812  2.2482 -2.1010
59688SOL    HW285926   8.938   3.412  10.142 -1.5824 -1.3453  0.1191
59689SOL     OW85927  12.063   1.658   2.111  0.3785  0.3818  0.0847
59689SOL    HW185928  12.032   1.700   2.031  0.6887  0.3865 -0.0326
59689SOL    HW285929  11.985   1.615   2.146  0.0033  1.2313  0.3248
59690SOL     OW85930   7.657   3.619   3.445  0.6588  1.0553 -0.1365
59690SOL    HW185931   7.563   3.635   3.452  0.5802  0.2592  0.7725
59690SOL    HW285932   7.671   3.605   3.351  0.1761  2.8493 -0.5257
59691SOL     OW85933   7.157   3.569  10.183 -0.0199  0.4933  0.3216
59691SOL    HW185934   7.078   3.623  10.194 -0.8564 -0.4770 -0.6266
59691SOL    HW285935   7.126   3.479  10.193  1.0531  0.1135  0.3528
59692SOL     OW85936  12.395   0.726   3.063  0.0361  0.1145  0.0715
59692SOL    HW185937  12.313   0.722   3.112  0.7056 -0.4414  1.1979
59692SOL    HW285938  12.383   0.798   3.001 -1.0503  0.4725  0.6773
59693SOL     OW85939  10.235   9.044   8.943 -0.5841  0.5874 -0.2348
59693SOL    HW185940  10.194   9.017   9.025  0.0595  0.7220  0.1443
59693SOL    HW285941  10.219   8.971   8.883 -1.9387  0.9324 -0.3024
59694SOL     OW85942  11.119   5.678   4.564  0.1397 -0.3368 -0.4349
59694SOL    HW185943  11.024   5.668   4.560  0.0088  0.2432  0.7021
59694SOL    HW285944  11.152   5.590   4.582 -0.2425 -0.4247 -0.1588
59695SOL     OW85945   0.999  12.055   9.100  0.8296  0.1392  0.2904
59695SOL    HW185946   1.004  12.037   9.007  0.5715  2.1939 -0.1700
59695SOL    HW285947   1.083  12.024   9.135  0.9444 -0.6100 -0.6142
59696SOL     OW85948   3.117   0.942  11.821 -0.7048 -0.1399  0.1308
59696SOL    HW185949   3.137   0.903  11.906  0.7193 -1.5714 -0.8125
59696SOL    HW285950   3.069   0.874  11.774  0.7278 -0.3451 -1.1050
59697SOL     OW85951   1.498   7.557   7.738  0.0148  0.1762  0.0286
59697SOL    HW185952   1.450   7.495   7.683  0.3157 -2.0110  2.1031
59697SOL    HW285953   1.590   7.541   7.717  0.0580  0.8094 -0.2953
59698SOL     OW85954   8.751   1.965   1.055  0.8569  0.0098 -0.3244
59698SOL    HW185955   8.836   1.964   1.010  0.6876  1.2116 -0.7035
59698SOL    HW285956   8.761   2.032   1.123  0.8142 -1.1699  0.8724
59699SOL     OW85957   5.075   5.726   2.037  0.0206 -0.2075  0.2833
59699SOL    HW185958   5.138   5.748   1.969  0.3873 -2.3895 -0.1552
59699SOL    HW285959   5.102   5.639   2.068  0.1771  0.8659  3.6099
59700SOL     OW85960   6.143  10.187  12.446 -0.2142  0.0781 -0.3732
59700SOL    HW185961   6.218  10.182  12.505 -2.6391 -0.8556  2.9068
59700SOL    HW285962   6.150  10.109  12.392  0.8722 -0.2733  0.2489
59701SOL     OW85963   9.192   8.806   5.925  0.2240 -0.2458  0.6823
59701SOL    HW185964   9.227   8.854   5.850 -0.3157 -0.5449  0.2231
59701SOL    HW285965   9.216   8.859   6.001 -2.4082  2.1340  0.0730
59702SOL     OW85966  11.551   6.181   5.655 -0.1388 -0.5542 -0.2799
59702SOL    HW185967  11.487   6.219   5.595  0.9193  0.3734 -0.8475
59702SOL    HW285968  11.629   6.236   5.646 -0.5336  0.9598  3.4463
59703SOL     OW85969   4.091   0.897   3.397 -0.3347  0.5736 -0.1862
59703SOL    HW185970   4.131   0.966   3.449 -0.1365  0.7198 -0.5314
59703SOL    HW285971   4.119   0.816   3.439  0.9680  0.6473 -0.8748
59704SOL     OW85972  11.557   2.197   0.280 -0.0857  0.6297  0.2278
59704SOL    HW185973  11.528   2.282   0.245  0.5592  0.9328  0.4246
59704SOL    HW285974  11.502   2.133   0.234 -0.5330  1.1469  0.0275
59705SOL     OW85975   5.044   4.560   6.259 -0.1591  0.3903  0.2236
59705SOL    HW185976   4.973   4.623   6.244 -1.2650 -0.8402  0.1730
59705SOL    HW285977   5.003   4.475   6.249  1.8539 -0.4051 -2.4518
59706SOL     OW85978   8.368  10.119   2.344  0.0359  0.0477 -0.0529
59706SOL    HW185979   8.374  10.180   2.417  1.3324 -1.0518  0.8204
59706SOL    HW285980   8.275  10.114   2.324 -0.2367  1.1432  0.8483
59707SOL     OW85981  10.695   7.922   3.404 -0.5593 -0.2071  0.0477
59707SOL    HW185982  10.685   7.838   3.359 -1.4175 -1.2039  1.9908
59707SOL    HW285983  10.731   7.900   3.489  1.9819  1.7348 -0.3963
59708SOL     OW85984   4.772   4.279   3.807  0.4231  0.0458 -0.2927
59708SOL    HW185985   4.762   4.185   3.823  1.3630  0.1598  1.1610
59708SOL    HW285986   4.727   4.294   3.724  0.8220 -1.8093 -0.9063
59709SOL     OW85987   2.662   9.490   5.118  0.2211 -0.3437 -1.0111
59709SOL    HW185988   2.600   9.486   5.191  1.5881  0.7638  0.2663
59709SOL    HW285989   2.737   9.437   5.146  0.5065 -0.4171 -1.8797
59710SOL     OW85990  11.847   4.886   3.997 -0.4224  0.0783 -0.0577
59710SOL    HW185991  11.795   4.935   3.933  0.2881 -1.4959 -1.9499
59710SOL    HW285992  11.938   4.909   3.977 -0.1467 -1.0777 -0.2314
59711SOL     OW85993   0.021   4.089   8.518  0.1958  0.2471 -0.0028
59711SOL    HW185994  -0.051   4.108   8.457  0.7298  2.3774 -0.0443
59711SOL    HW285995  -0.022   4.062   8.599 -0.8271  3.1013  0.5278
59712SOL     OW85996   8.921   0.271   0.489 -0.0407 -0.4108 -0.0376
59712SOL    HW185997   8.849   0.270   0.552  0.1102 -1.2367  0.1332
59712SOL    HW285998   8.984   0.207   0.524  0.4397 -0.2331 -0.5685
59713SOL     OW85999  11.830  10.801   6.101  0.1563  0.1192 -0.1156
59713SOL    HW186000  11.923  10.822   6.105 -0.2381  1.7447  2.1300
59713SOL    HW286001  11.805  10.784   6.191 -2.1678  1.7802 -0.3641
59714SOL     OW86002  12.157  11.929   0.196 -0.1776  0.5679 -0.4328
59714SOL    HW186003  12.092  11.899   0.259  0.4032  0.3944  0.0943
59714SOL    HW286004  12.164  11.858   0.133  0.2180  0.1596  0.0633
59715SOL     OW86005   1.863   9.619   4.216  0.2553 -0.0880  0.5895
59715SOL    HW186006   1.851   9.604   4.122 -0.1034 -1.6338  0.8513
59715SOL    HW286007   1.809   9.696   4.235 -0.5390 -0.4051 -0.2783
59716SOL     OW86008  11.338  10.450   1.259 -0.4263 -0.1249  0.2905
59716SOL    HW186009  11.346  10.460   1.164 -0.1239  1.6140  0.4786
59716SOL    HW286010  11.403  10.383   1.282  1.6335  1.5271 -0.3937
59717SOL     OW86011   8.375   5.474   5.210 -0.7417 -0.3219 -0.5253
59717SOL    HW186012   8.353   5.527   5.133 -0.1081 -1.8230 -1.7973
59717SOL    HW286013   8.390   5.387   5.175 -0.0231 -0.9620  1.2745
59718SOL     OW86014   5.062   0.762   0.698  0.4815  0.3374 -0.3377
59718SOL    HW186015   5.096   0.675   0.720  0.6651  0.6673  0.7277
59718SOL    HW286016   5.057   0.762   0.602  1.5048 -0.4656 -0.4086
59719SOL     OW86017   6.442   1.985   8.194  0.7631 -0.4593  0.0743
59719SOL    HW186018   6.352   1.972   8.224  0.5357  1.0920  0.1475
59719SOL    HW286019   6.454   2.080   8.195  1.6625 -0.4892 -2.1003
59720SOL     OW86020   3.942   5.556   5.510  0.2514 -0.2133  0.2938
59720SOL    HW186021   3.986   5.524   5.589  0.5067 -1.0871 -0.1920
59720SOL    HW286022   4.003   5.535   5.439 -0.6662 -0.8756 -0.3146
59721SOL     OW86023   9.129   5.149   7.683 -0.3414 -0.5451 -0.4038
59721SOL    HW186024   9.173   5.163   7.766  0.1966 -2.6712 -0.2767
59721SOL    HW286025   9.036   5.147   7.704 -0.2175 -0.8637  0.1019
59722SOL     OW86026   9.808   8.901   7.007  0.3651  0.4848  0.0751
59722SOL    HW186027   9.828   8.808   6.998  2.8981  0.9803 -0.1410
59722SOL    HW286028   9.810   8.917   7.101  0.5714  0.4386  0.0788
59723SOL     OW86029   4.942   7.394   0.119  0.0892 -0.4837  0.3348
59723SOL    HW186030   5.021   7.341   0.133  0.0971 -0.5651  0.0037
59723SOL    HW286031   4.873   7.348   0.167  0.0731 -0.8556 -0.0341
59724SOL     OW86032   7.683   1.058  11.631  0.0721  0.3026 -0.1948
59724SOL    HW186033   7.635   1.028  11.708 -1.3981 -0.3095 -1.3015
59724SOL    HW286034   7.764   1.007  11.632  0.7271  1.2961  1.6619
59725SOL     OW86035   4.547  10.313   4.205 -0.8416 -0.1713 -0.2382
59725SOL    HW186036   4.604  10.385   4.231  0.4428 -0.6323 -1.6190
59725SOL    HW286037   4.538  10.323   4.110 -3.0651 -0.1388 -0.0742
59726SOL     OW86038   1.002   7.264   3.913 -0.1846 -0.4949 -0.3970
59726SOL    HW186039   0.967   7.285   3.826  0.8919 -0.1207 -0.7641
59726SOL    HW286040   1.006   7.169   3.915 -0.1874 -0.5050 -0.7746
59727SOL     OW86041   9.967   0.461   6.451 -0.2728  0.1130 -0.1570
59727SOL    HW186042  10.059   0.436   6.457 -0.0301  0.4939 -1.9518
59727SOL    HW286043   9.965   0.536   6.392 -1.3760  2.3716  2.4924
59728SOL     OW86044   7.186   3.872   4.783 -0.4223  0.1762 -0.4372
59728SOL    HW186045   7.185   3.966   4.798 -3.2736  0.1524  0.1485
59728SOL    HW286046   7.107   3.856   4.730 -1.7235 -2.1821  1.9850
59729SOL     OW86047  12.389   4.714   6.850 -0.2535  0.0903  0.0482
59729SOL    HW186048  12.475   4.672   6.855 -1.0482 -2.0142 -1.9848
59729SOL    HW286049  12.407   4.805   6.827  1.4408 -0.3307 -0.3950
59730SOL     OW86050   0.075   8.044  11.997 -0.7124  0.1946 -0.2838
59730SOL    HW186051   0.096   8.114  12.059 -0.2700 -0.1677 -0.0148
59730SOL    HW286052   0.145   7.980  12.010 -1.5954 -0.7191  0.1191
59731SOL     OW86053   8.563  11.004  10.799 -0.3136 -0.5733  0.0597
59731SOL    HW186054   8.507  11.080  10.816  0.9472  0.3877  0.1154
59731SOL    HW286055   8.551  10.947  10.875 -1.6374 -0.6849 -0.2020
59732SOL     OW86056   5.678   6.923   1.551 -0.2979 -0.2817 -0.2086
59732SOL    HW186057   5.697   6.872   1.629  0.0676  0.5698  0.2696
59732SOL    HW286058   5.764   6.944   1.514 -0.2874  2.0206  0.9465
59733SOL     OW86059   0.399   4.755   8.863 -0.2101  0.2070 -0.6008
59733SOL    HW186060   0.356   4.698   8.927  1.0834  2.1583  2.2464
59733SOL    HW286061   0.489   4.763   8.894  0.4754  1.3565 -2.6555
59734SOL     OW86062  10.779   3.489   8.885  0.5493 -0.1649 -0.3219
59734SOL    HW186063  10.853   3.544   8.860 -0.0316 -0.0393 -1.9273
59734SOL    HW286064  10.702   3.545   8.871  0.0676 -0.7296  0.0023
59735SOL     OW86065  11.140   1.372  11.307 -0.4725 -0.4253 -0.2151
59735SOL    HW186066  11.142   1.405  11.217 -2.0375 -0.1364 -0.1731
59735SOL    HW286067  11.100   1.285  11.300 -3.3689  0.7683  0.4777
59736SOL     OW86068   0.315   0.634   0.014 -0.3897  0.0360  0.0568
59736SOL    HW186069   0.328   0.715   0.063 -1.5393 -0.2461  0.8797
59736SOL    HW286070   0.243   0.653  -0.045 -0.4925 -0.3072  0.0682
59737SOL     OW86071   2.418  12.378   0.364  0.3319 -0.1479  0.5738
59737SOL    HW186072   2.444  12.299   0.318 -3.4850 -1.3249  0.0765
59737SOL    HW286073   2.369  12.429   0.299  1.6172  2.0836  1.2341
59738SOL     OW86074   2.504   2.676   3.980 -0.9733  0.5239 -0.2851
59738SOL    HW186075   2.575   2.615   3.962 -0.4405  1.2010 -0.4883
59738SOL    HW286076   2.428   2.619   3.998 -0.6714 -0.1891 -1.1887
59739SOL     OW86077   5.141   2.934   4.660  0.3244  0.2795  0.3032
59739SOL    HW186078   5.050   2.918   4.685  0.4226 -0.3860  0.2480
59739SOL    HW286079   5.175   2.848   4.634  0.8323  0.5991 -0.1271
59740SOL     OW86080   5.535   3.951   4.307  0.5304 -0.0912 -0.6331
59740SOL    HW186081   5.548   3.867   4.264 -2.4489 -1.3464  0.6210
59740SOL    HW286082   5.592   3.948   4.383  0.8739 -0.7221 -0.9054
59741SOL     OW86083   9.265   4.017   3.398 -0.6080 -0.4255  0.0967
59741SOL    HW186084   9.338   3.975   3.353 -0.4733  0.1471 -0.2390
59741SOL    HW286085   9.200   4.031   3.329 -0.6904 -0.1791  0.2208
59742SOL     OW86086  11.415   3.054   7.967  0.9005  0.4250  0.1178
59742SOL    HW186087  11.491   3.106   7.993  1.5850 -0.8967  0.8411
59742SOL    HW286088  11.345   3.085   8.024  0.0259  3.6676 -2.4275
59743SOL     OW86089   0.741  12.399   8.858 -0.2348  0.1647 -0.0493
59743SOL    HW186090   0.701  12.348   8.788  0.4624  0.6895 -0.8383
59743SOL    HW286091   0.721  12.490   8.837  0.4864  0.3626  0.1008
59744SOL     OW86092   7.030   0.645   5.843  0.0640  0.3233  0.2826
59744SOL    HW186093   6.996   0.605   5.763  2.2135  0.1638 -0.6262
59744SOL    HW286094   7.078   0.722   5.813 -1.1048  1.6811  1.6954
59745SOL     OW86095   4.628   2.056   1.456  0.2140  0.8045  0.1809
59745SOL    HW186096   4.572   2.011   1.520 -0.1237 -0.8474 -1.1917
59745SOL    HW286097   4.703   1.998   1.445  0.3396  1.1312 -0.7886
59746SOL     OW86098   8.025   7.464   1.431  0.5653 -0.3442 -0.4173
59746SOL    HW186099   8.080   7.541   1.414  0.3515 -0.0247  0.2700
59746SOL    HW286100   7.978   7.449   1.349 -1.5965  2.0693  0.2287
59747SOL     OW86101   2.026   2.838   1.772  0.7259 -0.1509  0.0022
59747SOL    HW186102   2.104   2.832   1.717 -0.1884 -3.2747 -1.1329
59747SOL    HW286103   1.954   2.812   1.714 -1.0649  1.5485  1.3269
59748SOL     OW86104   5.408  11.320   1.685 -0.0154 -0.4538 -0.3822
59748SOL    HW186105   5.382  11.362   1.767 -0.3278  1.0908 -1.2404
59748SOL    HW286106   5.330  11.325   1.631  0.8757  0.7014 -1.6118
59749SOL     OW86107  10.500   9.216  12.264  0.5294  0.0351 -0.5195
59749SOL    HW186108  10.595   9.216  12.272  0.4349 -1.5831  1.1511
59749SOL    HW286109  10.469   9.153  12.329 -1.5557 -1.4270 -2.7112
59750SOL     OW86110   7.156   4.427   5.680 -0.5090 -0.6861 -0.0006
59750SOL    HW186111   7.088   4.436   5.612  0.8260  1.1838 -1.1882
59750SOL    HW286112   7.121   4.474   5.755 -0.3892  0.6671 -0.7580
59751SOL     OW86113   9.215   5.273   1.081  0.0537 -0.6454 -0.1353
59751SOL    HW186114   9.132   5.268   1.034  0.1747 -0.0437 -0.4242
59751SOL    HW286115   9.239   5.181   1.098 -0.8147 -0.8102  0.2211
59752SOL     OW86116   6.360  12.191   3.511  0.0910 -0.5714  0.0714
59752SOL    HW186117   6.365  12.133   3.435  1.7215  0.1056 -0.3814
59752SOL    HW286118   6.269  12.220   3.513 -0.1091 -1.0238 -1.3128
59753SOL     OW86119   3.952   6.740   3.351 -0.0930  0.3917 -0.1582
59753SOL    HW186120   4.047   6.743   3.346 -0.0870  0.6197  0.0677
59753SOL    HW286121   3.925   6.832   3.345 -0.1713  0.5965  2.2769
59754SOL     OW86122   6.520   7.592   1.227  0.3110  0.3895 -0.3486
59754SOL    HW186123   6.547   7.569   1.316 -0.3476 -0.5925 -0.3765
59754SOL    HW286124   6.475   7.676   1.236 -0.3923 -0.0435  0.3772
59755SOL     OW86125   9.184  10.089   7.184 -0.7381  0.2633  0.1333
59755SOL    HW186126   9.221  10.170   7.149 -1.9483  1.1063  0.7154
59755SOL    HW286127   9.089  10.100   7.173 -0.9075 -2.6411 -3.1437
59756SOL     OW86128   3.851   1.019   7.529  0.2333 -0.5197  0.0808
59756SOL    HW186129   3.794   1.095   7.510 -0.2524 -0.5424  1.3334
59756SOL    HW286130   3.802   0.969   7.594  1.2869 -1.0371  0.4945
59757SOL     OW86131   1.222  12.268   8.887 -0.1899 -0.1590 -0.4946
59757SOL    HW186132   1.230  12.174   8.869 -0.9335 -0.1496 -0.9443
59757SOL    HW286133   1.154  12.273   8.955  1.8811 -0.1259  1.7346
59758SOL     OW86134   9.625   2.525   3.708 -0.1821 -0.4385  0.0774
59758SOL    HW186135   9.668   2.610   3.717 -0.7132 -0.1672  0.0495
59758SOL    HW286136   9.686   2.473   3.656 -0.8292  0.6117 -1.8290
59759SOL     OW86137   9.157   3.156   9.475 -0.3334 -0.0400  0.9098
59759SOL    HW186138   9.087   3.201   9.427 -0.8081 -1.4542  0.2363
59759SOL    HW286139   9.206   3.109   9.407 -0.9708 -2.0286  1.7619
59760SOL     OW86140   2.913   5.158   1.801  0.2204  0.1378  0.2952
59760SOL    HW186141   2.894   5.222   1.732 -2.9006  0.3399  1.1791
59760SOL    HW286142   2.879   5.075   1.767 -0.6821  0.0917  1.2627
59761SOL     OW86143  11.155   5.615   2.942 -0.7324 -1.1084 -0.2739
59761SOL    HW186144  11.220   5.594   2.875  1.1289  0.9614  0.7517
59761SOL    HW286145  11.187   5.571   3.021 -0.7768 -0.3929  0.1484
59762SOL     OW86146   7.436   2.561   9.956 -0.4776  0.0753  0.1396
59762SOL    HW186147   7.527   2.546   9.983 -0.7517 -2.4528 -0.0653
59762SOL    HW286148   7.444   2.594   9.866  0.2416 -0.1057  0.1265
59763SOL     OW86149   0.819  11.118   1.218 -0.0166  0.2567  0.2306
59763SOL    HW186150   0.878  11.122   1.293  0.7625  0.9159 -0.4026
59763SOL    HW286151   0.817  11.207   1.184 -1.9532  0.4299  0.6511
59764SOL     OW86152   4.034  11.064   5.211  0.3423  0.1033  0.0733
59764SOL    HW186153   3.973  11.044   5.141  1.6324  0.8580 -1.3162
59764SOL    HW286154   4.036  11.159   5.216  2.1816  0.1497 -0.6717
59765SOL     OW86155   6.468   5.541   0.426  0.6838 -0.6083  0.1905
59765SOL    HW186156   6.519   5.466   0.456  2.7516  1.0658  1.1732
59765SOL    HW286157   6.530   5.614   0.429 -1.1838  1.1128 -0.8870
59766SOL     OW86158   1.558   9.383   7.377 -0.0414  0.2401  0.1569
59766SOL    HW186159   1.633   9.440   7.360  1.1520 -1.2418  0.2571
59766SOL    HW286160   1.509   9.428   7.446  2.8190 -0.4853  2.8958
59767SOL     OW86161   6.027  11.185   3.442 -0.2745 -0.2526  1.0269
59767SOL    HW186162   6.115  11.191   3.406 -0.6254 -0.4400  0.0979
59767SOL    HW286163   6.011  11.091   3.452 -0.5415 -0.2468  0.7067
59768SOL     OW86164   3.277   8.842  11.877 -0.1458  0.0524  0.0999
59768SOL    HW186165   3.243   8.926  11.847 -1.6233 -0.3021  0.7202
59768SOL    HW286166   3.336   8.865  11.949 -1.9014  0.4969  1.4671
59769SOL     OW86167   5.710   9.668   5.148  0.1404  0.4582 -0.0150
59769SOL    HW186168   5.644   9.736   5.131 -0.6168 -0.0506  0.8392
59769SOL    HW286169   5.784   9.716   5.187  0.3934  1.0599 -1.1598
59770SOL     OW86170   4.738   6.928   1.454 -0.2295 -0.5704 -0.0705
59770SOL    HW186171   4.769   6.839   1.436 -1.3628 -0.8584 -0.7036
59770SOL    HW286172   4.648   6.917   1.485 -1.0562  0.4257 -1.8989
59771SOL     OW86173   7.967   6.957   1.365 -0.1568  0.0134  0.0063
59771SOL    HW186174   7.928   7.044   1.373 -0.3883  0.0776 -1.5277
59771SOL    HW286175   8.059   6.969   1.387 -0.0938  0.7445 -0.6497
59772SOL     OW86176  10.663   5.736   2.962 -0.4179  0.0600 -0.5623
59772SOL    HW186177  10.622   5.743   2.877 -0.9377 -0.0535 -0.3224
59772SOL    HW286178  10.591   5.742   3.025 -0.0483  0.1001 -0.1324
59773SOL     OW86179   0.259  11.678   7.634  0.4390  0.3661 -0.0851
59773SOL    HW186180   0.340  11.645   7.595  0.8295 -1.3222  1.9599
59773SOL    HW286181   0.199  11.603   7.631 -1.2392  1.6719 -1.8597
59774SOL     OW86182  11.250   3.414   9.564 -0.4243 -0.2196  0.6654
59774SOL    HW186183  11.169   3.364   9.549 -0.1695 -0.5324  0.3295
59774SOL    HW286184  11.265   3.460   9.481 -0.1502 -0.3118  0.6648
59775SOL     OW86185   1.885   2.027  10.144  0.4037  0.2926  0.6415
59775SOL    HW186186   1.904   2.096  10.207  2.3624 -0.9030  1.4478
59775SOL    HW286187   1.967   2.015  10.096 -0.0410 -1.1262  0.1813
59776SOL     OW86188   6.921   1.954   3.489 -0.5269  0.3996  0.4285
59776SOL    HW186189   6.867   2.027   3.520 -1.5686 -0.0355 -0.2967
59776SOL    HW286190   6.938   1.975   3.397 -1.1276 -0.4469  0.1235
59777SOL     OW86191   8.751   6.396   4.447 -0.2682  0.1021 -0.2448
59777SOL    HW186192   8.805   6.324   4.414  0.4282  0.4817  0.0491
59777SOL    HW286193   8.777   6.406   4.538 -1.2586 -0.0841  0.0801
59778SOL     OW86194  10.870   5.575   2.048  0.0523  0.2773  0.2172
59778SOL    HW186195  10.891   5.622   1.967  1.2795  0.4489  0.6105
59778SOL    HW286196  10.834   5.642   2.106  1.2075  0.6235  0.5558
59779SOL     OW86197   8.451   2.148  11.361 -0.5572  0.2357 -0.5791
59779SOL    HW186198   8.422   2.073  11.309 -0.1659 -0.1862 -0.2018
59779SOL    HW286199   8.398   2.142  11.441 -0.5562  0.3911 -0.5666
59780SOL     OW86200   7.329   9.377   7.470 -0.5237 -0.3572  0.4499
59780SOL    HW186201   7.368   9.360   7.385  1.4889 -1.7507  1.5888
59780SOL    HW286202   7.336   9.294   7.517 -1.5470  0.3910  1.9983
59781SOL     OW86203   1.095   7.066   0.737  0.8033  0.2024 -0.5325
59781SOL    HW186204   1.065   7.104   0.654  1.2149  0.4126 -0.5893
59781SOL    HW286205   1.190   7.079   0.736  0.9116 -0.5404 -0.4044
59782SOL     OW86206  10.919   7.690   4.328  0.1483 -0.3585  0.7354
59782SOL    HW186207  10.960   7.765   4.371  0.3571 -0.3379  0.5051
59782SOL    HW286208  10.841   7.671   4.380  0.1550 -0.0505  0.8587
59783SOL     OW86209   3.038   8.181   7.803 -0.5653  0.2877  0.0997
59783SOL    HW186210   3.012   8.115   7.867 -0.5827  0.2398  0.0439
59783SOL    HW286211   2.980   8.165   7.728  0.4456 -0.6306 -0.5221
59784SOL     OW86212  11.861   2.560   7.308  0.2173 -0.0239  0.6967
59784SOL    HW186213  11.883   2.606   7.227 -2.1798 -0.1110 -0.0846
59784SOL    HW286214  11.918   2.482   7.307  1.6885  1.0137  0.1834
59785SOL     OW86215   7.530   9.288   2.423  0.0544 -0.1910 -0.2763
59785SOL    HW186216   7.483   9.299   2.505 -0.5891 -1.1698 -0.4911
59785SOL    HW286217   7.619   9.318   2.442 -0.2273  0.0946  0.6227
59786SOL     OW86218   8.565   6.233   4.177 -0.2342 -0.4579 -0.0683
59786SOL    HW186219   8.542   6.166   4.241  1.4114 -3.2884 -2.2459
59786SOL    HW286220   8.652   6.210   4.147  1.0320  3.4890 -0.0555
59787SOL     OW86221   6.424   6.272   6.609  0.5509  0.4104 -0.3396
59787SOL    HW186222   6.377   6.261   6.526 -2.7143  4.0056  0.7581
59787SOL    HW286223   6.359   6.257   6.677  2.2218  0.9802  1.5114
59788SOL     OW86224   5.382  10.164   1.913 -0.6365 -0.4330  0.3753
59788SOL    HW186225   5.435  10.085   1.923  1.2759  0.6881 -0.2206
59788SOL    HW286226   5.439  10.235   1.945 -1.3463  0.9670 -1.2922
59789SOL     OW86227   8.723   4.693  10.941 -0.0839 -0.2979 -0.2303
59789SOL    HW186228   8.710   4.672  10.849  1.0896 -0.3834 -0.3953
59789SOL    HW286229   8.643   4.739  10.967 -0.0181  0.6440 -1.5736
59790SOL     OW86230   4.402   9.562  10.061 -0.2438  0.0862 -0.2437
59790SOL    HW186231   4.366   9.639  10.017  3.0432  0.5266 -2.4743
59790SOL    HW286232   4.455   9.597  10.132  0.7224 -0.1476 -0.8444
59791SOL     OW86233   1.683   0.114  10.275  0.2713  0.0945  0.0811
59791SOL    HW186234   1.644   0.038  10.233  1.8118  0.3962 -2.0669
59791SOL    HW286235   1.640   0.189  10.235 -0.0939  0.4113  1.0196
59792SOL     OW86236   8.660   9.928   6.946 -0.0520 -0.4101  0.1650
59792SOL    HW186237   8.642   9.860   7.011 -0.6513  0.0724  0.5098
59792SOL    HW286238   8.647  10.010   6.992  2.5166  0.0085  0.2835
59793SOL     OW86239   5.181   6.579   8.514 -0.0214 -0.1794 -0.4898
59793SOL    HW186240   5.146   6.524   8.585 -0.3055 -0.7255 -1.0462
59793SOL    HW286241   5.116   6.649   8.505  0.7290  0.7294  0.7528
59794SOL     OW86242   4.063   2.103   3.351  0.2585 -0.4073  0.1993
59794SOL    HW186243   3.990   2.165   3.354  2.9067  3.0266 -0.2421
59794SOL    HW286244   4.093   2.098   3.442  1.0758  0.3459 -0.0186
59795SOL     OW86245   7.555   6.304   6.132 -0.8162 -0.4123 -0.0020
59795SOL    HW186246   7.510   6.257   6.062  1.6652  0.5277 -2.4163
59795SOL    HW286247   7.514   6.391   6.133 -1.3837 -0.6756  0.3064
59796SOL     OW86248   2.470   8.394   5.336 -0.2306  0.6658  0.6503
59796SOL    HW186249   2.454   8.311   5.380 -3.5980  1.3751  1.0149
59796SOL    HW286250   2.500   8.370   5.249  0.5788 -0.8513  1.3087
59797SOL     OW86251   5.657  11.099  11.465 -0.2479  0.2014 -0.1191
59797SOL    HW186252   5.568  11.086  11.497 -0.5312 -0.7775 -1.2524
59797SOL    HW286253   5.660  11.191  11.439 -0.8829  0.2748  0.0475
59798SOL     OW86254  11.867   1.495   8.123  0.4294 -0.3915  0.2398
59798SOL    HW186255  11.899   1.487   8.033 -1.8192  1.0711 -0.8113
59798SOL    HW286256  11.859   1.405   8.154  1.4454 -0.9202 -0.9412
59799SOL     OW86257   7.722   6.781   6.590 -0.4444 -0.5115  0.7788
59799SOL    HW186258   7.731   6.844   6.519 -1.4797 -1.7267 -0.4665
59799SOL    HW286259   7.808   6.780   6.631  0.8134 -1.1996 -1.6867
59800SOL     OW86260   2.432   6.040   0.595 -0.1736 -0.1430 -0.7124
59800SOL    HW186261   2.508   6.002   0.639 -1.2097 -0.6003  0.7670
59800SOL    HW286262   2.429   5.997   0.510  2.0308  0.9433 -1.4125
59801SOL     OW86263   6.711   9.021   8.178  0.3839 -0.7441  0.0760
59801SOL    HW186264   6.702   9.073   8.259  0.7065  0.3606 -0.5764
59801SOL    HW286265   6.644   8.952   8.186 -1.7757  1.2076 -0.1127
59802SOL     OW86266  10.742  11.443   6.054  0.3558 -0.2937 -0.1469
59802SOL    HW186267  10.768  11.374   5.993 -0.9690  0.3760 -1.5551
59802SOL    HW286268  10.649  11.458   6.035  0.2707  0.9195  1.0689
59803SOL     OW86269  10.147   6.662   3.321  0.0672 -0.3745  0.6409
59803SOL    HW186270  10.092   6.651   3.243 -0.6963  0.2770  1.0651
59803SOL    HW286271  10.232   6.625   3.296 -0.2398 -0.4126 -0.4073
59804SOL     OW86272   7.765   3.238   8.175 -0.4730  0.0100  0.2197
59804SOL    HW186273   7.755   3.287   8.257  1.8092  0.1246  0.4931
59804SOL    HW286274   7.766   3.305   8.107 -0.4009  0.0799  0.2893
59805SOL     OW86275  10.167  10.527   4.451  0.2095  0.5363 -0.6836
59805SOL    HW186276  10.217  10.457   4.409  0.1185  0.8719 -1.3637
59805SOL    HW286277  10.150  10.494   4.540  0.1329 -0.3118 -1.0047
59806SOL     OW86278  10.783  11.301   9.191  0.4609 -0.3269 -0.1530
59806SOL    HW186279  10.793  11.207   9.205  0.4232 -0.0669  2.1266
59806SOL    HW286280  10.728  11.330   9.264 -0.4717  1.3144 -1.4285
59807SOL     OW86281   4.907   0.565   8.173  0.0805  0.4130  0.7221
59807SOL    HW186282   4.965   0.640   8.161  0.0915  0.0733 -2.0599
59807SOL    HW286283   4.819   0.602   8.171 -0.1733  0.3041 -4.4060
59808SOL     OW86284   5.322   4.140  11.575 -0.5194  0.1462  0.2020
59808SOL    HW186285   5.363   4.181  11.499  1.4390 -0.3510  0.9087
59808SOL    HW286286   5.281   4.060  11.540  0.3686 -0.0842 -0.3442
59809SOL     OW86287   6.054   4.456   7.458 -0.5264  0.1767  0.1928
59809SOL    HW186288   6.125   4.394   7.441  1.0866  1.4580  1.9431
59809SOL    HW286289   6.035   4.445   7.551 -0.4959  1.9798  0.4455
59810SOL     OW86290   3.236   6.398   7.697 -0.4990  0.1211  0.0689
59810SOL    HW186291   3.141   6.400   7.708 -0.3355 -1.0493  2.1925
59810SOL    HW286292   3.268   6.472   7.748 -0.2371  0.4458 -0.5490
59811SOL     OW86293   4.542  10.974   8.280  0.3641  0.1996  0.3072
59811SOL    HW186294   4.611  10.983   8.213  0.4122  0.6979  0.4229
59811SOL    HW286295   4.476  10.918   8.239  1.3957 -1.3193  0.6362
59812SOL     OW86296   6.055   5.284  10.608 -0.4024 -0.1823  0.0804
59812SOL    HW186297   6.008   5.360  10.575 -0.2341 -0.5640 -1.1191
59812SOL    HW286298   6.008   5.209  10.570  1.7144 -0.5628 -2.0905
59813SOL     OW86299   1.033  10.522   7.477  0.2096 -0.0035  0.1349
59813SOL    HW186300   1.097  10.490   7.413  0.0178 -1.5494  0.6568
59813SOL    HW286301   0.956  10.544   7.426  0.8274  0.9763 -0.3981
59814SOL     OW86302   8.737  10.705  11.505 -0.4610  0.0297 -0.2680
59814SOL    HW186303   8.722  10.770  11.436 -1.3635 -0.1571 -0.2585
59814SOL    HW286304   8.777  10.754  11.576  1.5784  0.0098 -1.3456
59815SOL     OW86305  10.540   8.223  11.075 -0.0315 -0.1131  0.1557
59815SOL    HW186306  10.540   8.145  11.131 -1.7966 -0.3662 -0.1382
59815SOL    HW286307  10.497   8.195  10.995 -0.9569  1.2353  0.1543
59816SOL     OW86308   2.496   8.736   8.446  0.1053  0.4849  0.2585
59816SOL    HW186309   2.467   8.791   8.373 -0.3017 -0.2677 -0.1579
59816SOL    HW286310   2.586   8.713   8.425 -0.0667  0.1290 -0.0962
59817SOL     OW86311   9.040   8.624   5.793 -0.6938  0.0357  0.3487
59817SOL    HW186312   9.089   8.695   5.834 -1.5328  0.6791  0.2534
59817SOL    HW286313   8.981   8.593   5.862 -1.0150  0.0809  0.0956
59818SOL     OW86314   3.064   1.186   9.968 -0.1301 -0.2651 -0.0913
59818SOL    HW186315   3.055   1.224   9.881 -0.4359 -0.3826 -0.1137
59818SOL    HW286316   3.007   1.109   9.966 -0.3832 -0.0889  0.3156
59819SOL     OW86317   3.571  11.427   0.565 -0.6189  0.6493 -0.0890
59819SOL    HW186318   3.543  11.338   0.542 -0.7393  0.8216 -0.6027
59819SOL    HW286319   3.608  11.418   0.653  0.1654 -0.0756 -0.4751
59820SOL     OW86320   8.259   2.514   0.332  0.1136 -0.3002  0.2357
59820SOL    HW186321   8.274   2.573   0.407 -0.8345 -1.6747  1.5455
59820SOL    HW286322   8.331   2.451   0.337 -0.1265 -0.5784  0.1656
59821SOL     OW86323  11.428   3.741  11.007 -0.4711  0.3243 -0.2123
59821SOL    HW186324  11.472   3.657  11.003 -0.3707  0.3421  0.3922
59821SOL    HW286325  11.336   3.721  10.992 -0.4214  0.1328 -0.2586
59822SOL     OW86326   4.573   9.595   1.215  0.1717  0.0529 -0.7908
59822SOL    HW186327   4.613   9.589   1.128 -1.2614  2.3915 -1.7048
59822SOL    HW286328   4.485   9.629   1.198 -0.5722 -0.5506  1.5139
59823SOL     OW86329   1.665   0.314   1.822 -0.3529  0.1699  0.0508
59823SOL    HW186330   1.643   0.354   1.738 -2.0500  0.3484  0.5472
59823SOL    HW286331   1.588   0.329   1.877  0.3021 -0.8640  1.3055
59824SOL     OW86332  11.841   8.323   7.221  0.0663 -0.0865  0.3261
59824SOL    HW186333  11.919   8.378   7.221  0.3846 -0.5262  0.1154
59824SOL    HW286334  11.801   8.339   7.135  0.3696 -0.4637  0.1073
59825SOL     OW86335   9.938  11.308   4.875 -0.1490  0.3285  0.7297
59825SOL    HW186336   9.889  11.228   4.856  0.8808  0.2849 -2.0994
59825SOL    HW286337   9.998  11.283   4.946 -1.7650 -0.5532  1.8544
59826SOL     OW86338   3.834   1.009   0.051  0.1680  0.1951 -0.1221
59826SOL    HW186339   3.832   0.944   0.121  0.8110 -1.3204 -1.4577
59826SOL    HW286340   3.910   0.986  -0.001 -1.2228  0.2153 -2.2886
59827SOL     OW86341   7.600   8.734   7.818 -0.5903 -0.2418  0.5589
59827SOL    HW186342   7.589   8.815   7.867  0.5717  0.4200 -0.2003
59827SOL    HW286343   7.516   8.719   7.775 -0.8034  0.6018  0.6765
59828SOL     OW86344   9.749   8.334   3.548 -0.2325 -0.0042  0.1834
59828SOL    HW186345   9.806   8.397   3.593  0.2759 -1.1105  1.1635
59828SOL    HW286346   9.803   8.300   3.477 -0.2088  0.0684  0.1665
59829SOL     OW86347   5.561  10.654   1.002 -0.1242  0.1466 -0.2075
59829SOL    HW186348   5.609  10.573   1.014 -0.7630 -0.1216  0.6674
59829SOL    HW286349   5.534  10.680   1.091 -0.3266  1.0654 -0.5196
59830SOL     OW86350   0.810   2.675   5.097 -0.1567 -0.3669  0.3465
59830SOL    HW186351   0.804   2.639   5.009 -0.4170  0.6945 -0.0863
59830SOL    HW286352   0.814   2.770   5.084 -0.3654 -0.1851  1.4838
59831SOL     OW86353   2.804   6.586   0.690  0.3165 -0.4818 -0.5932
59831SOL    HW186354   2.721   6.631   0.674  1.3710  1.9452  0.3360
59831SOL    HW286355   2.780   6.494   0.698 -2.9682  0.4129  3.5926
59832SOL     OW86356  11.345   0.088   7.825 -0.4910 -0.2407  0.5158
59832SOL    HW186357  11.423   0.035   7.837 -0.7416 -0.7087  0.0970
59832SOL    HW286358  11.272   0.030   7.845 -0.7676 -0.0758  0.0085
59833SOL     OW86359   6.908  12.256   4.632 -0.1146  0.1287 -1.0645
59833SOL    HW186360   6.992  12.302   4.632 -0.0982  0.3496  1.9977
59833SOL    HW286361   6.886  12.244   4.540  2.7333  1.0343 -1.9503
59834SOL     OW86362   9.706   8.034   2.865  0.1649 -0.3259 -0.0285
59834SOL    HW186363   9.705   7.940   2.845 -2.2694 -0.4308  0.2168
59834SOL    HW286364   9.626   8.048   2.916  0.0084  2.0282 -0.8160
59835SOL     OW86365   9.003   2.660   5.418  0.1873 -0.2129 -0.1304
59835SOL    HW186366   8.943   2.658   5.344  0.5339 -0.7620 -0.4016
59835SOL    HW286367   9.035   2.751   5.421 -0.4594  0.0183 -0.1292
59836SOL     OW86368  11.207   0.757   6.759  0.4420 -0.7935  0.1461
59836SOL    HW186369  11.265   0.822   6.798 -0.1371  0.8716 -1.5979
59836SOL    HW286370  11.265   0.686   6.731  1.3065 -0.3001  0.6559
59837SOL     OW86371   4.747   1.148   1.622  0.0244  0.0998 -0.1225
59837SOL    HW186372   4.808   1.149   1.696  0.6167 -0.3954 -0.6005
59837SOL    HW286373   4.775   1.074   1.568 -1.2563 -0.4004 -0.1390
59838SOL     OW86374   2.219   1.880   0.384  0.2989  0.0121 -0.7441
59838SOL    HW186375   2.246   1.905   0.473  1.0403  2.0220 -1.4856
59838SOL    HW286376   2.300   1.878   0.334 -0.0315 -1.7195 -1.2846
59839SOL     OW86377   0.752   6.183   9.344 -0.1870 -0.1173 -0.2448
59839SOL    HW186378   0.812   6.153   9.276  2.3458  2.1082  0.8645
59839SOL    HW286379   0.772   6.128   9.420 -2.0051 -1.6177 -0.7624
59840SOL     OW86380   4.032   0.257  10.039  0.1398 -0.4189  0.6762
59840SOL    HW186381   3.998   0.315   9.970  1.0090 -1.4103 -0.6317
59840SOL    HW286382   4.001   0.170  10.015 -0.5850 -0.6306  2.2572
59841SOL     OW86383   9.833   1.150   1.261 -0.0467 -0.1701  0.1039
59841SOL    HW186384   9.806   1.153   1.169  1.5997  1.1399 -0.3774
59841SOL    HW286385   9.871   1.063   1.272 -1.4306 -0.8352 -0.0556
59842SOL     OW86386   0.818  10.603   5.410  0.3631 -0.3756  0.2702
59842SOL    HW186387   0.889  10.649   5.454 -0.7443  2.9005 -1.0991
59842SOL    HW286388   0.861  10.536   5.357  2.1673 -0.1266  1.3607
59843SOL     OW86389   1.536   0.881   9.285  0.1113 -0.6580 -0.3051
59843SOL    HW186390   1.459   0.937   9.278 -1.4020 -2.7431 -1.4726
59843SOL    HW286391   1.565   0.868   9.195  1.0745 -0.9471  0.0294
59844SOL     OW86392  12.407  11.299   5.414 -0.4668 -0.0440  0.5175
59844SOL    HW186393  12.323  11.314   5.370 -0.6174 -0.2565  0.7287
59844SOL    HW286394  12.473  11.315   5.346 -0.6777  0.1290  0.3521
59845SOL     OW86395   9.942  12.115   9.437  0.6360 -0.3256 -0.0019
59845SOL    HW186396   9.973  12.175   9.504  1.8803 -0.7289 -0.1841
59845SOL    HW286397  10.007  12.121   9.367  0.7797 -1.8334 -0.0403
59846SOL     OW86398   1.981   9.978  12.331  0.4334 -0.0553 -0.6807
59846SOL    HW186399   2.050  10.004  12.270  2.3432  1.0378  1.7579
59846SOL    HW286400   2.011  10.010  12.416 -2.2464 -1.1753  0.8165
59847SOL     OW86401   6.628   6.299   0.859  0.1035 -0.1839  0.1008
59847SOL    HW186402   6.552   6.354   0.875 -0.4651 -0.7741 -0.4911
59847SOL    HW286403   6.688   6.354   0.809  0.4144  0.5377  1.2380
59848SOL     OW86404   3.813   3.410  10.918 -0.2529  0.4387  0.7332
59848SOL    HW186405   3.725   3.440  10.940 -1.8987 -2.6317 -0.9624
59848SOL    HW286406   3.824   3.328  10.967  0.9417 -0.1145 -0.3923
59849SOL     OW86407   0.248   9.467   4.835  0.0708  0.3404 -0.1679
59849SOL    HW186408   0.218   9.554   4.859 -0.1095  0.1618  0.2576
59849SOL    HW286409   0.343   9.470   4.846 -0.0958 -0.0862  1.7481
59850SOL     OW86410   2.358   5.324   0.546  0.1858  0.3953 -0.6459
59850SOL    HW186411   2.444   5.366   0.543  1.0198 -0.6840  2.9604
59850SOL    HW286412   2.374   5.234   0.517  0.3700  0.1135  0.3027
59851SOL     OW86413   1.323   5.150   2.676  0.5808 -0.0340 -0.1712
59851SOL    HW186414   1.265   5.172   2.604  0.8536 -0.6243 -0.5779
59851SOL    HW286415   1.273   5.089   2.730  1.0226 -0.9912 -0.8307
59852SOL     OW86416   2.533   9.749   8.169 -0.4879 -0.2842  0.2561
59852SOL    HW186417   2.618   9.705   8.182 -0.6792 -1.1342 -1.1581
59852SOL    HW286418   2.555   9.831   8.125 -0.3930 -0.5775 -0.2558
59853SOL     OW86419  10.937   0.760  12.105 -0.2031  0.2196  0.2875
59853SOL    HW186420  10.993   0.737  12.031  1.1294  0.6946  1.1130
59853SOL    HW286421  10.853   0.784  12.065  0.4211  0.2767 -1.0468
59854SOL     OW86422  10.978   5.468   0.452 -0.3199  0.3934 -0.0497
59854SOL    HW186423  11.065   5.445   0.484 -0.1812  0.2896 -0.4915
59854SOL    HW286424  10.919   5.451   0.526  0.1027  0.9880  0.4328
59855SOL     OW86425   6.793   7.320   2.842  0.4217 -0.0303 -0.1582
59855SOL    HW186426   6.782   7.229   2.816 -3.1294 -0.4658  2.1719
59855SOL    HW286427   6.748   7.370   2.773 -2.4807 -0.6061  1.1586
59856SOL     OW86428   3.708   7.442   4.773 -0.0395  0.2424 -0.1554
59856SOL    HW186429   3.680   7.416   4.685  0.8856  1.3342 -0.8021
59856SOL    HW286430   3.690   7.366   4.827 -1.1179 -0.2724 -1.1839
59857SOL     OW86431   1.732   9.741   0.251 -0.4000  0.0608  0.0538
59857SOL    HW186432   1.688   9.760   0.334  0.0683  0.9198  0.1098
59857SOL    HW286433   1.691   9.799   0.188  0.9202  1.2085  0.1938
59858SOL     OW86434   1.885   9.467   4.434 -0.2264 -0.4113 -0.4443
59858SOL    HW186435   1.891   9.523   4.356 -1.3220 -0.8456 -0.8608
59858SOL    HW286436   1.794   9.476   4.463  0.5532  1.0506  1.8143
59859SOL     OW86437   7.821   6.337   9.223  0.1502  0.3076  0.2225
59859SOL    HW186438   7.797   6.274   9.155 -0.5382  0.7108  0.0715
59859SOL    HW286439   7.739   6.382   9.243  0.4120  0.4291  1.0845
59860SOL     OW86440   4.051  12.202  11.376  0.0736 -0.1504 -0.2468
59860SOL    HW186441   4.086  12.210  11.465 -0.0529 -0.5124 -0.1650
59860SOL    HW286442   4.108  12.139  11.333 -1.6684 -2.4034  0.5152
59861SOL     OW86443   7.904   0.787   7.502 -0.1797 -0.1489 -0.0653
59861SOL    HW186444   7.841   0.847   7.542 -0.3917 -0.7130  0.4656
59861SOL    HW286445   7.940   0.738   7.576 -0.3225 -0.9643 -0.5340
59862SOL     OW86446   4.642   9.792  12.449  0.1655 -0.3915 -0.5872
59862SOL    HW186447   4.700   9.768  12.376  2.4412  1.4694  0.4795
59862SOL    HW286448   4.655   9.886  12.461 -1.6016 -0.2896  1.0312
59863SOL     OW86449   3.725   4.539   4.489  0.0427  0.0688 -0.2270
59863SOL    HW186450   3.742   4.633   4.498  2.9851 -0.2618 -1.4545
59863SOL    HW286451   3.777   4.498   4.558  2.0103 -0.8217 -2.1117
59864SOL     OW86452  11.060   1.258   5.711  0.0737  0.1714  0.1426
59864SOL    HW186453  11.024   1.266   5.622  1.5647  0.2845 -0.4717
59864SOL    HW286454  11.070   1.164   5.724  0.4508  0.1785 -0.0695
59865SOL     OW86455   3.398   2.173   8.149 -0.4016  0.1485 -0.1242
59865SOL    HW186456   3.310   2.171   8.110 -0.8282  0.9266  0.7731
59865SOL    HW286457   3.403   2.093   8.201 -0.4257 -0.0823 -0.4673
59866SOL     OW86458   6.924  10.882   0.983 -0.2680  0.0380  0.5368
59866SOL    HW186459   6.967  10.948   0.928 -0.4684  0.5022  0.9264
59866SOL    HW286460   6.914  10.806   0.926 -1.9126  1.0358 -0.5814
59867SOL     OW86461   2.737   2.920   8.516 -0.5864 -0.1878  0.0575
59867SOL    HW186462   2.722   2.937   8.423 -1.0700 -0.0057  0.1650
59867SOL    HW286463   2.817   2.969   8.536 -1.3964  1.1515  0.1182
59868SOL     OW86464   3.895   0.613  10.579  0.3336  0.5185 -0.7264
59868SOL    HW186465   3.960   0.619  10.650 -1.1469  0.0044  0.7304
59868SOL    HW286466   3.825   0.673  10.606 -0.8399 -0.6548 -1.0813
59869SOL     OW86467   4.225   0.850   9.319 -0.0025  0.2261  0.4123
59869SOL    HW186468   4.137   0.879   9.298 -0.4784 -0.8064  0.9428
59869SOL    HW286469   4.259   0.813   9.237  0.0790  0.9455  0.1151
59870SOL     OW86470   8.363   4.324   7.374 -0.8492 -0.1752 -0.2947
59870SOL    HW186471   8.318   4.355   7.295 -3.2399 -1.3939  0.4711
59870SOL    HW286472   8.449   4.296   7.343 -1.4345  0.0697 -2.3370
59871SOL     OW86473   0.459   6.148   7.390 -0.0652  0.1664 -0.5111
59871SOL    HW186474   0.487   6.067   7.348  0.4424 -0.1798  0.4576
59871SOL    HW286475   0.540   6.198   7.404 -0.4887  1.4158 -2.1916
59872SOL     OW86476   2.291   7.022   2.955  0.0876  0.1438  0.4073
59872SOL    HW186477   2.280   7.078   2.878 -1.5841 -2.2452 -1.2053
59872SOL    HW286478   2.208   6.976   2.964  0.4584 -0.1472  3.3048
59873SOL     OW86479   1.352  12.327   1.128 -0.0283 -0.4753  0.2078
59873SOL    HW186480   1.284  12.261   1.142 -1.5500  0.8249 -0.7773
59873SOL    HW286481   1.389  12.341   1.216 -0.8710 -1.3423  0.7302
59874SOL     OW86482   9.902   4.098   6.786  0.6055 -0.1024 -0.3358
59874SOL    HW186483   9.991   4.129   6.770  0.2834  0.4688 -1.0809
59874SOL    HW286484   9.913   4.009   6.820  1.5508  0.9410  2.2996
59875SOL     OW86485  11.689   8.297   1.166 -0.0541  0.4231  0.5881
59875SOL    HW186486  11.747   8.355   1.117  0.9297  0.8397  2.1751
59875SOL    HW286487  11.634   8.356   1.218 -2.9351  0.1277 -1.8026
59876SOL     OW86488   1.176   4.864   3.095 -0.5268 -0.8135  0.1723
59876SOL    HW186489   1.264   4.891   3.120 -0.7797  1.7274 -1.3110
59876SOL    HW286490   1.139   4.825   3.174  0.9401  0.6974  1.6881
59877SOL     OW86491   7.693  10.297   4.568  0.0928 -0.2169 -0.2469
59877SOL    HW186492   7.708  10.363   4.636 -2.0290 -0.9070  0.9795
59877SOL    HW286493   7.723  10.339   4.488  0.6706  1.4627  0.7819
59878SOL     OW86494  12.142   8.284   4.675 -0.0241  0.3297 -0.6668
59878SOL    HW186495  12.065   8.228   4.686 -0.2638  1.2057  3.5238
59878SOL    HW286496  12.217   8.224   4.685 -0.2825  0.3560  2.1762
59879SOL     OW86497   8.198  10.745   3.099 -0.2591  0.0084 -0.0521
59879SOL    HW186498   8.205  10.757   3.194 -0.2205  0.6837 -0.1321
59879SOL    HW286499   8.198  10.834   3.064 -0.3763 -0.2338 -0.6807
59880SOL     OW86500   8.546   3.910   0.937  0.4310  0.4073 -0.1930
59880SOL    HW186501   8.522   3.822   0.965  1.1602  0.1675 -0.3130
59880SOL    HW286502   8.465   3.946   0.900 -0.1030  0.1191  0.6734
59881SOL     OW86503   8.764   4.912  11.284  0.1881  0.0281 -0.1839
59881SOL    HW186504   8.856   4.903  11.308  0.2683  2.9706  1.0690
59881SOL    HW286505   8.718   4.926  11.367 -1.1096  0.4263 -0.9294
59882SOL     OW86506   4.112   5.730   0.183 -0.8916  0.0655  0.0953
59882SOL    HW186507   4.073   5.656   0.230 -1.5001 -0.0228 -0.5361
59882SOL    HW286508   4.073   5.807   0.225 -0.4492  0.0313  0.5852
59883SOL     OW86509   3.844   9.236   9.164 -0.4909 -0.7975 -0.1992
59883SOL    HW186510   3.857   9.185   9.244 -0.1937 -1.6182 -0.7623
59883SOL    HW286511   3.822   9.171   9.098 -0.7487 -0.1198 -0.7853
59884SOL     OW86512   9.277   9.989  10.446 -0.3602  0.0526 -0.6678
59884SOL    HW186513   9.195   9.948  10.419  0.2750 -2.2447  0.6545
59884SOL    HW286514   9.280   9.977  10.541  0.2915  2.5217 -0.2936
59885SOL     OW86515   6.055   6.798   4.911  0.0480 -0.0039  0.5342
59885SOL    HW186516   5.983   6.769   4.855 -0.0931  0.0780  0.6720
59885SOL    HW286517   6.089   6.877   4.868  0.2306 -0.1948  0.3255
59886SOL     OW86518   4.114   7.511  11.817 -0.5653  0.2863 -0.6193
59886SOL    HW186519   4.112   7.604  11.836 -0.3009  0.0434  0.6877
59886SOL    HW286520   4.199   7.497  11.774 -0.2177  0.5085 -0.0184
59887SOL     OW86521   8.640  10.908   4.760 -0.3863  0.7290  0.2057
59887SOL    HW186522   8.571  10.958   4.718  0.4823  0.2212 -1.9697
59887SOL    HW286523   8.712  10.908   4.696  1.2790  0.4663  1.9961
59888SOL     OW86524   6.398   2.885   7.484  0.6041 -0.2002  0.1625
59888SOL    HW186525   6.344   2.808   7.467 -1.5038  0.8730  1.6440
59888SOL    HW286526   6.474   2.851   7.531  1.0845 -1.6878 -1.5792
59889SOL     OW86527   5.716   6.969   9.167  0.3615 -0.5574 -0.4863
59889SOL    HW186528   5.789   6.911   9.190 -0.5488 -1.8332 -0.7337
59889SOL    HW286529   5.735   7.050   9.215  0.5063 -1.8236  1.7578
59890SOL     OW86530   2.315  10.070   4.834  0.5885 -0.3078 -0.5885
59890SOL    HW186531   2.307  10.028   4.749  0.0112 -0.2645 -0.5594
59890SOL    HW286532   2.230  10.113   4.848  1.3258  1.3387 -0.8717
59891SOL     OW86533   4.966   1.020   4.573  0.4431  0.1673 -0.0486
59891SOL    HW186534   4.966   0.990   4.664 -0.4581 -0.8691 -0.3671
59891SOL    HW286535   4.876   1.008   4.544  0.2633  2.2566 -0.5408
59892SOL     OW86536   7.366   0.740  11.040 -0.1830  0.6770  0.0254
59892SOL    HW186537   7.297   0.801  11.014 -0.8941  0.5998  1.6780
59892SOL    HW286538   7.343   0.712  11.128  1.0399 -0.6986 -0.0495
59893SOL     OW86539   6.816   3.926  12.003 -1.0668  1.0635 -0.1576
59893SOL    HW186540   6.890   3.974  11.967  0.1922 -0.3484  0.4087
59893SOL    HW286541   6.823   3.839  11.964 -2.6184  0.9826 -0.3110
59894SOL     OW86542   6.428   4.621  11.009  0.4397 -0.2760 -0.5497
59894SOL    HW186543   6.334   4.619  10.990 -0.5941  0.4763  3.5200
59894SOL    HW286544   6.456   4.709  10.982 -0.5039  0.2075  0.0118
59895SOL     OW86545  11.704   9.726   1.150  0.1400 -0.0740 -0.5108
59895SOL    HW186546  11.647   9.778   1.207  0.3641  0.6735 -0.9580
59895SOL    HW286547  11.791   9.764   1.163  0.3491 -0.4905 -0.6749
59896SOL     OW86548   6.903   8.036   6.314  0.2057  0.0675  0.0527
59896SOL    HW186549   6.881   7.989   6.234 -1.9448  0.2041  0.5078
59896SOL    HW286550   6.882   8.128   6.294 -1.4771 -0.0501  1.0907
59897SOL     OW86551  12.104   1.861  10.910 -0.2871 -0.1836 -0.0279
59897SOL    HW186552  12.081   1.857  11.003  1.7938  0.3219  0.5492
59897SOL    HW286553  12.128   1.952  10.895  0.2025 -0.4407 -0.8630
59898SOL     OW86554  11.398  10.734  10.534  0.2200  0.0447  0.0889
59898SOL    HW186555  11.330  10.741  10.467  1.5607  0.3478 -1.2831
59898SOL    HW286556  11.380  10.651  10.578 -0.6107 -0.2238 -0.7272
59899SOL     OW86557  11.947   7.890   4.676  0.6938  0.4605 -0.6396
59899SOL    HW186558  11.950   7.973   4.724  2.3340  0.0914 -0.0338
59899SOL    HW286559  11.962   7.915   4.585  0.3529  0.8969 -0.5804
59900SOL     OW86560  11.472   1.347   9.966 -0.2897  0.5311 -0.5353
59900SOL    HW186561  11.512   1.324   9.882 -0.1449  1.2732 -0.6715
59900SOL    HW286562  11.419   1.270   9.988 -0.5682  0.4421 -1.4522
59901SOL     OW86563   6.509   9.339   6.323 -0.3047 -0.2576 -0.1964
59901SOL    HW186564   6.492   9.344   6.417  0.5538  0.0186 -0.0456
59901SOL    HW286565   6.576   9.271   6.314  0.3453  0.4002 -0.4857
59902SOL     OW86566   8.465   9.038   8.420 -0.1602 -0.2570 -1.2130
59902SOL    HW186567   8.410   9.054   8.343  0.5048 -0.0256 -1.6480
59902SOL    HW286568   8.547   9.003   8.385  0.2004 -0.0252 -0.6218
59903SOL     OW86569  12.426   6.320   2.238 -0.1054  0.0916  0.0875
59903SOL    HW186570  12.400   6.368   2.159  0.1432 -0.0844 -0.1033
59903SOL    HW286571  12.515   6.289   2.219 -0.9141 -2.0077 -0.5273
59904SOL     OW86572   8.000  12.114   9.714  0.0810 -0.0291 -0.4583
59904SOL    HW186573   8.088  12.149   9.727 -0.7095  1.8667  0.2170
59904SOL    HW286574   7.942  12.188   9.731 -1.7357 -1.6507  0.8379
59905SOL     OW86575   0.661  10.451  11.813 -0.4289 -0.5500  0.5168
59905SOL    HW186576   0.748  10.415  11.798 -0.6827 -0.0832 -2.6488
59905SOL    HW286577   0.614  10.380  11.858  0.9149 -1.6667  0.2438
59906SOL     OW86578   4.106   1.389  11.070 -0.0024 -0.2042  0.0599
59906SOL    HW186579   4.161   1.362  10.996  0.3963 -0.1439  0.3332
59906SOL    HW286580   4.166   1.394  11.144 -0.9926 -4.5938  1.4836
59907SOL     OW86581   1.490   9.286   0.850 -0.9258  0.4725 -0.2892
59907SOL    HW186582   1.518   9.376   0.834 -0.7569  0.3239 -0.8453
59907SOL    HW286583   1.485   9.279   0.945 -2.0394  1.4163 -0.2556
59908SOL     OW86584   3.848   4.157   4.327  0.4036  0.0398 -0.0594
59908SOL    HW186585   3.782   4.226   4.332 -0.7991 -1.1108  0.9244
59908SOL    HW286586   3.832   4.113   4.244  0.1227 -0.0474  0.0408
59909SOL     OW86587  10.445   4.271   4.899  0.1383  0.0117  0.1794
59909SOL    HW186588  10.485   4.200   4.950 -1.0777  0.1683  1.4324
59909SOL    HW286589  10.389   4.227   4.836  0.9644 -0.1701 -0.4375
59910SOL     OW86590  10.256   1.350   1.520 -0.1466 -0.0668 -0.0447
59910SOL    HW186591  10.177   1.386   1.481 -1.1486  0.0720  1.9924
59910SOL    HW286592  10.230   1.325   1.609  2.3737  1.1379  1.1408
59911SOL     OW86593   9.470   3.856   1.330 -0.1218 -0.0908 -0.0305
59911SOL    HW186594   9.478   3.949   1.312  1.9866 -0.3893 -0.8598
59911SOL    HW286595   9.377   3.837   1.317 -0.5328  1.8123 -0.1465
59912SOL     OW86596   4.058   3.442   1.168 -0.4312 -0.1397  0.3521
59912SOL    HW186597   4.077   3.484   1.085 -2.0470  0.1352  0.1030
59912SOL    HW286598   4.031   3.513   1.226 -0.0570 -0.4311  0.9018
59913SOL     OW86599   0.849  10.962   5.596 -0.1049 -0.0315  0.1127
59913SOL    HW186600   0.761  10.986   5.566 -0.2587  0.2649  0.7962
59913SOL    HW286601   0.899  10.951   5.515 -0.4153  1.1236 -0.2590
59914SOL     OW86602   2.825   3.814   0.794 -0.2756  0.0126  0.6052
59914SOL    HW186603   2.744   3.801   0.843 -0.2456  0.3720  0.7608
59914SOL    HW286604   2.810   3.894   0.744 -1.2169 -1.6240 -1.8982
59915SOL     OW86605   9.326   1.343   2.081  0.3129 -0.2664  0.1010
59915SOL    HW186606   9.390   1.302   2.139 -1.2752 -2.9157  0.1553
59915SOL    HW286607   9.278   1.403   2.138 -0.2656 -1.7589  1.2744
59916SOL     OW86608   0.566   1.977  11.692 -0.2385 -0.0325 -0.8281
59916SOL    HW186609   0.571   1.888  11.727 -0.2462  0.6985  1.2063
59916SOL    HW286610   0.657   2.000  11.674 -0.0612  0.0419  0.0824
59917SOL     OW86611   4.724  10.472   2.304  0.0862  0.3564 -0.2228
59917SOL    HW186612   4.778  10.479   2.382  0.1062  1.7296 -0.3321
59917SOL    HW286613   4.640  10.510   2.329  0.0002  0.5363 -0.7704
59918SOL     OW86614  11.671  11.140   9.975 -0.0069  0.1415 -0.7049
59918SOL    HW186615  11.725  11.193   9.917  4.6565 -1.5133  1.5929
59918SOL    HW286616  11.712  11.053   9.974 -1.5673 -0.8148  2.5865
59919SOL     OW86617  10.138  11.520   9.324  0.2510 -0.1247 -0.4813
59919SOL    HW186618  10.087  11.560   9.394 -0.4815 -1.0864 -0.4472
59919SOL    HW286619  10.073  11.485   9.264  0.8687 -0.7507 -0.7989
59920SOL     OW86620   7.440   8.067  10.418  0.8342 -0.3626  0.2568
59920SOL    HW186621   7.376   8.008  10.377  0.5526  1.4852 -2.2294
59920SOL    HW286622   7.389   8.142  10.447  1.5846  0.1618  0.2642
59921SOL     OW86623   7.649   3.607   2.051  0.4133  0.6090  0.1615
59921SOL    HW186624   7.691   3.678   2.003 -0.5634  0.0675 -1.5804
59921SOL    HW286625   7.580   3.649   2.101  0.6203  1.0227  0.1067
59922SOL     OW86626   6.228   0.756  10.251  0.2714  0.0127  0.0339
59922SOL    HW186627   6.149   0.705  10.268 -0.1428  0.8867  0.8596
59922SOL    HW286628   6.201   0.822  10.188  0.6390 -0.3711 -0.5346
59923SOL     OW86629   7.516   1.562   5.799 -0.6845 -0.4906  0.2207
59923SOL    HW186630   7.478   1.492   5.852 -2.0304 -0.3977 -0.5887
59923SOL    HW286631   7.483   1.643   5.839 -1.5092 -0.4153 -0.5896
59924SOL     OW86632   4.240   8.352   6.691  0.2627  0.3172 -0.2189
59924SOL    HW186633   4.204   8.325   6.606 -2.2655  1.0800  0.5560
59924SOL    HW286634   4.296   8.426   6.670  1.8678 -1.1491 -1.5056
59925SOL     OW86635   9.031  10.953   4.994 -0.7876  0.2371  0.2142
59925SOL    HW186636   9.031  11.031   4.938 -2.8240 -0.9764 -1.6237
59925SOL    HW286637   8.940  10.943   5.021 -0.4751 -1.2283  0.8224
59926SOL     OW86638   2.346   4.305   8.399 -0.2271  0.5426  0.2604
59926SOL    HW186639   2.341   4.280   8.307 -1.3812  1.9121 -0.1016
59926SOL    HW286640   2.351   4.401   8.397  1.1109  0.5312  1.6054
59927SOL     OW86641   0.502   8.953  10.463  0.0612 -0.1344 -0.3800
59927SOL    HW186642   0.493   8.951  10.558  0.9497  0.9272 -0.2560
59927SOL    HW286643   0.427   8.903  10.431 -0.6094  0.0376  0.8570
59928SOL     OW86644   2.216   0.599   0.795  0.1206  0.2341 -0.3076
59928SOL    HW186645   2.305   0.568   0.806 -0.6386 -1.4911  1.5710
59928SOL    HW286646   2.163   0.520   0.784 -1.4504  1.0146  1.0488
59929SOL     OW86647   4.887   3.154   4.737 -0.3066  0.7828 -0.0698
59929SOL    HW186648   4.850   3.134   4.823 -2.0517  2.7255 -0.2877
59929SOL    HW286649   4.819   3.129   4.675  0.9495 -0.6308 -0.9337
59930SOL     OW86650   0.924   0.052  12.432  0.2303  0.2017 -0.1071
59930SOL    HW186651   0.913  -0.031  12.478  1.9616  0.5911  1.0904
59930SOL    HW286652   0.841   0.097  12.444 -1.0155 -1.6028 -1.3955
59931SOL     OW86653   6.882   9.531   9.212 -0.0679 -0.5655 -0.1126
59931SOL    HW186654   6.947   9.461   9.208 -0.6762 -1.1782  0.4180
59931SOL    HW286655   6.800   9.489   9.184 -0.4456 -0.0795  0.2499
59932SOL     OW86656   2.771   2.257   3.140 -0.9116  0.2195 -0.1039
59932SOL    HW186657   2.730   2.321   3.082 -0.0166  1.8695  1.0021
59932SOL    HW286658   2.859   2.245   3.103 -1.4627 -1.3707 -1.0089
59933SOL     OW86659  10.733   4.350   9.247  0.1583  0.2236  0.2100
59933SOL    HW186660  10.757   4.442   9.254  0.5994  0.0910  0.4889
59933SOL    HW286661  10.642   4.346   9.276  0.3534  0.4686  0.8805
59934SOL     OW86662   3.851   1.213   8.233 -0.2095  0.1605 -0.0563
59934SOL    HW186663   3.934   1.181   8.198  0.1843  0.6899  0.3791
59934SOL    HW286664   3.797   1.134   8.241  1.1425 -0.6479  2.0676
59935SOL     OW86665   6.169   5.418   4.386 -0.0474 -0.0983  0.1039
59935SOL    HW186666   6.220   5.376   4.317  0.8507 -1.5773  1.5838
59935SOL    HW286667   6.094   5.359   4.399 -0.5111  0.4685  0.0079
59936SOL     OW86668  10.504   8.921   8.843  0.3934  0.2077  0.0825
59936SOL    HW186669  10.573   8.984   8.822 -0.2564  2.0092  2.8562
59936SOL    HW286670  10.440   8.971   8.894 -0.4288 -2.5793  2.0294
59937SOL     OW86671   4.583  11.181   9.455  0.5146  0.3598  0.5200
59937SOL    HW186672   4.621  11.181   9.367  2.3311  2.2575  1.2070
59937SOL    HW286673   4.581  11.274   9.480  0.1377 -0.1399  2.4943
59938SOL     OW86674   0.637  10.116   1.805  0.5366 -0.7265  0.2874
59938SOL    HW186675   0.672  10.197   1.770  2.1956 -1.8941 -0.8604
59938SOL    HW286676   0.626  10.133   1.899  1.1421  0.7025  0.1110
59939SOL     OW86677  10.289   2.428   5.413  0.2936 -0.0280 -0.2982
59939SOL    HW186678  10.203   2.461   5.437 -0.9833 -2.7605 -0.7117
59939SOL    HW286679  10.278   2.397   5.323  2.0706  0.5946 -0.7816
59940SOL     OW86680   4.739   1.463   5.893  0.4233 -0.0114 -0.4605
59940SOL    HW186681   4.738   1.553   5.859  1.6041 -0.3092 -1.3470
59940SOL    HW286682   4.648   1.434   5.886 -0.0002  1.1416 -0.0575
59941SOL     OW86683  10.203   1.398   1.216  0.6573 -0.0154  0.2988
59941SOL    HW186684  10.270   1.459   1.186  2.3541 -2.2084 -0.6815
59941SOL    HW286685  10.179   1.349   1.137  0.2898 -1.4260  1.2573
59942SOL     OW86686   3.538   4.908   4.894  0.2539 -0.3568 -0.4824
59942SOL    HW186687   3.448   4.935   4.878  0.4226  0.5265  0.0098
59942SOL    HW286688   3.536   4.861   4.978  0.1061 -1.1770 -0.9287
59943SOL     OW86689   8.131   7.154   8.196  0.0947  0.4894 -0.2744
59943SOL    HW186690   8.089   7.240   8.203  0.5832  0.9030 -2.1041
59943SOL    HW286691   8.220   7.169   8.228 -0.5836 -0.0353  2.0988
59944SOL     OW86692  10.610  10.882   0.008  0.2168 -0.0554  1.0903
59944SOL    HW186693  10.534  10.825  -0.002  0.8493 -0.7009 -0.4779
59944SOL    HW286694  10.586  10.944   0.076 -2.5800  1.1208 -0.7966
59945SOL     OW86695   7.256   6.090   7.804 -0.7861  0.2378 -0.2105
59945SOL    HW186696   7.289   6.111   7.891 -2.0007 -1.2623  0.6562
59945SOL    HW286697   7.316   6.135   7.744  0.1598  1.1836  1.3712
59946SOL     OW86698   8.051   5.726   9.684 -0.5176  0.0977 -0.1456
59946SOL    HW186699   7.999   5.648   9.663 -0.5344 -0.1126  0.6184
59946SOL    HW286700   7.998   5.774   9.748  0.1002  0.0131  0.4430
59947SOL     OW86701   5.631   9.437   7.757 -0.5669 -0.0613  0.5318
59947SOL    HW186702   5.595   9.422   7.670  1.1210 -0.9941 -0.0408
59947SOL    HW286703   5.592   9.520   7.785 -1.0237  0.3356 -1.1648
59948SOL     OW86704   7.543  10.641  10.527  0.0236 -0.4257 -0.4801
59948SOL    HW186705   7.558  10.734  10.542 -0.3728 -0.6509  1.6026
59948SOL    HW286706   7.447  10.631  10.528  0.0730 -1.0942  1.3136
59949SOL     OW86707   1.290   6.309   4.136  0.0657 -0.0215  0.3522
59949SOL    HW186708   1.299   6.254   4.058 -1.6996 -1.3788  1.0530
59949SOL    HW286709   1.249   6.389   4.103 -1.1738 -0.7995 -0.0893
59950SOL     OW86710  12.334   9.259   8.196  0.4103 -0.1939  0.4456
59950SOL    HW186711  12.269   9.321   8.229  1.1504 -0.0603  1.7029
59950SOL    HW286712  12.291   9.217   8.122 -0.6809  0.7042  0.5409
59951SOL     OW86713   8.339   5.410  11.686 -0.1236 -0.2562 -0.4446
59951SOL    HW186714   8.380   5.375  11.606  0.7752 -0.0464 -0.0825
59951SOL    HW286715   8.299   5.492  11.658  2.6425  1.3156 -0.1325
59952SOL     OW86716   7.728   9.541  10.119  0.0631 -0.2955  0.4031
59952SOL    HW186717   7.777   9.587  10.052  0.4329  0.2889  1.0597
59952SOL    HW286718   7.716   9.605  10.189 -4.6223  0.7454 -1.0463
59953SOL     OW86719   7.243  11.217  12.034 -0.0531  0.3058 -0.3358
59953SOL    HW186720   7.313  11.258  11.985 -0.6862  1.2760 -0.4490
59953SOL    HW286721   7.208  11.150  11.975  1.0740 -0.5472 -0.0927
59954SOL     OW86722  10.430  11.405   7.752 -0.1925  0.6955 -0.5117
59954SOL    HW186723  10.402  11.493   7.779 -1.0819 -0.1332  1.4390
59954SOL    HW286724  10.353  11.366   7.711 -0.4375  0.1555  0.4241
59955SOL     OW86725  12.372  10.522   4.901  0.0247 -0.2456  0.5274
59955SOL    HW186726  12.402  10.433   4.920 -1.0714 -1.0906 -1.4045
59955SOL    HW286727  12.349  10.521   4.808  0.2316  2.1530  0.3690
59956SOL     OW86728   9.182   1.808   9.280  0.5827  0.3590  0.0739
59956SOL    HW186729   9.270   1.782   9.308  0.1423 -1.4881 -0.1368
59956SOL    HW286730   9.136   1.827   9.361  1.2630  1.7600  0.1673
59957SOL     OW86731   6.406   2.915   4.345  0.1446  0.2280  0.1307
59957SOL    HW186732   6.380   2.958   4.263  0.3149 -0.1609 -0.1310
59957SOL    HW286733   6.350   2.838   4.351 -1.8886  1.7307  1.8336
59958SOL     OW86734  10.470   8.435  11.791  0.1271 -0.4047 -0.2521
59958SOL    HW186735  10.548   8.416  11.738 -0.4838  1.3756 -1.8780
59958SOL    HW286736  10.416   8.356  11.783 -0.2527  0.0498 -2.9196
59959SOL     OW86737   1.566   2.626   2.130 -0.5427  0.2818 -0.3172
59959SOL    HW186738   1.479   2.630   2.170 -0.7349 -0.3012 -0.6717
59959SOL    HW286739   1.567   2.544   2.081  0.1612  0.3470 -0.4291
59960SOL     OW86740   6.831   3.991   3.617 -0.0976 -0.1684 -0.1111
59960SOL    HW186741   6.807   4.021   3.530 -1.1227  1.3934  0.6552
59960SOL    HW286742   6.817   3.897   3.615 -0.1514 -0.1528 -1.6032
59961SOL     OW86743   8.334  12.090   5.114 -0.1064 -0.1613  0.1427
59961SOL    HW186744   8.330  12.175   5.070 -0.0446 -0.7555 -1.0402
59961SOL    HW286745   8.420  12.055   5.091  0.4210  0.0161  1.7235
59962SOL     OW86746   1.705   4.091   1.264  0.6330  0.2326 -0.1581
59962SOL    HW186747   1.764   4.100   1.339 -1.8085 -0.5338  1.9797
59962SOL    HW286748   1.620   4.120   1.296 -0.6972 -0.9600 -2.3780
59963SOL     OW86749  11.841   5.813   1.732 -0.2007 -0.6555 -0.6366
59963SOL    HW186750  11.933   5.829   1.708  0.2458 -0.8863  0.7886
59963SOL    HW286751  11.838   5.719   1.752 -0.5188 -0.4872  0.1542
59964SOL     OW86752  10.236   6.291   6.657  0.4975 -0.4122 -0.2740
59964SOL    HW186753  10.162   6.306   6.717  0.9801 -0.5886  0.3674
59964SOL    HW286754  10.243   6.373   6.609  0.7997  0.1448  0.6812
59965SOL     OW86755  12.171  10.746  11.602 -0.3639  0.0706  0.7858
59965SOL    HW186756  12.224  10.783  11.531  0.3925 -0.7853  0.8760
59965SOL    HW286757  12.217  10.772  11.682 -0.1386 -0.5578  0.8707
59966SOL     OW86758   7.529   5.655   6.939  0.1903  0.6329 -0.2147
59966SOL    HW186759   7.440   5.688   6.951 -0.5002 -0.8034 -1.1053
59966SOL    HW286760   7.550   5.675   6.848  0.1807 -0.3543 -0.4502
59967SOL     OW86761   9.092   0.913  10.374 -0.1941 -0.2316  0.1226
59967SOL    HW186762   9.107   0.826  10.409  2.3290  0.6767  1.5023
59967SOL    HW286763   9.036   0.956  10.439 -0.1350 -0.3087  0.2234
59968SOL     OW86764   8.995  10.634   8.536 -0.0061 -0.5435 -0.4757
59968SOL    HW186765   8.999  10.718   8.582  0.1504 -1.1980  0.7450
59968SOL    HW286766   9.025  10.654   8.447 -0.4186  0.7758 -0.3520
59969SOL     OW86767   6.588   9.072   1.333  0.1619  0.1581  0.0439
59969SOL    HW186768   6.521   9.130   1.298 -0.5162 -0.7936 -0.2651
59969SOL    HW286769   6.540   9.007   1.384  0.8371 -0.5589 -0.2083
59970SOL     OW86770   8.156   8.026   1.064 -0.2731  0.1869 -0.0968
59970SOL    HW186771   8.212   8.023   0.987  0.0082  0.8125  0.0696
59970SOL    HW286772   8.067   8.033   1.029 -0.1086  1.0165 -0.3740
59971SOL     OW86773   6.951   3.987   1.322  0.4799 -0.2739  0.3757
59971SOL    HW186774   7.029   3.948   1.285  1.4011  0.4169  1.5114
59971SOL    HW286775   6.974   4.006   1.413 -1.3722 -1.0566  1.0763
59972SOL     OW86776   7.751   2.526   9.345  0.6136 -0.0397 -0.5399
59972SOL    HW186777   7.777   2.477   9.267 -0.8040 -3.6335  1.0174
59972SOL    HW286778   7.817   2.502   9.411  2.0701  3.2960 -0.5590
59973SOL     OW86779   1.668   5.949   6.642 -0.1815  0.3324  0.1439
59973SOL    HW186780   1.711   5.867   6.619 -2.0593 -0.6156 -0.1788
59973SOL    HW286781   1.657   5.995   6.559 -1.2101 -0.1659 -0.0059
59974SOL     OW86782   4.665   5.192   9.382  0.0972  0.4506 -0.0391
59974SOL    HW186783   4.696   5.112   9.425 -0.2924  1.1067  1.5062
59974SOL    HW286784   4.716   5.197   9.301  1.3693 -0.4282  0.6834
59975SOL     OW86785   3.102  12.392   1.170 -0.4370 -0.2290 -0.1404
59975SOL    HW186786   3.013  12.400   1.134 -0.3632 -0.4155 -0.3720
59975SOL    HW286787   3.141  12.319   1.120 -0.3537 -0.5348  0.3674
59976SOL     OW86788   1.056  12.318   9.130 -0.1175 -0.5042  0.0073
59976SOL    HW186789   1.017  12.230   9.131  1.0555 -1.0341  0.2260
59976SOL    HW286790   0.981  12.377   9.142 -1.1368 -1.3668 -1.7316
59977SOL     OW86791   0.496  10.250   4.935  0.3231 -0.0632 -0.5154
59977SOL    HW186792   0.580  10.251   4.890  0.3893  0.5933 -0.3848
59977SOL    HW286793   0.431  10.260   4.865  0.4645  1.9065 -0.4088
59978SOL     OW86794  12.480   7.010   0.031  0.1533 -0.0494  0.0388
59978SOL    HW186795  12.452   7.067  -0.041  0.3769 -0.5109 -0.4187
59978SOL    HW286796  12.420   6.935   0.027 -0.9439  0.6988  1.4040
59979SOL     OW86797   2.291   2.618   9.706 -0.4607 -0.1390 -0.1705
59979SOL    HW186798   2.203   2.635   9.673 -0.2874  0.6892 -0.2243
59979SOL    HW286799   2.290   2.525   9.732 -0.2233 -1.2763 -3.7279
59980SOL     OW86800   6.158   5.328   8.252  0.1313 -0.5047  0.1723
59980SOL    HW186801   6.170   5.323   8.158  1.3857  1.3855  0.1725
59980SOL    HW286802   6.096   5.400   8.265 -0.3732 -1.0339  0.7898
59981SOL     OW86803   6.989   6.026   0.205  0.3718  0.0523 -0.0987
59981SOL    HW186804   6.952   6.109   0.175 -0.6292 -0.2520  0.2676
59981SOL    HW286805   7.034   6.047   0.287  2.4783  0.7435 -1.3530
59982SOL     OW86806   9.700   5.946   5.461 -0.0061 -0.2519  0.0099
59982SOL    HW186807   9.786   5.944   5.502  0.3431  0.6135 -0.6463
59982SOL    HW286808   9.686   6.038   5.438 -1.3261 -0.2977  0.5521
59983SOL     OW86809   3.755   6.141  10.330  0.5960 -0.7169  0.0537
59983SOL    HW186810   3.699   6.147  10.407  3.1202 -0.0445  1.9716
59983SOL    HW286811   3.837   6.103  10.363  1.1083 -2.3281 -2.7340
59984SOL     OW86812   3.191  10.679   8.669  0.6219  0.0717  0.0524
59984SOL    HW186813   3.141  10.638   8.598 -1.8664 -1.6495  2.5921
59984SOL    HW286814   3.282  10.677   8.638 -0.4187  0.5354 -3.5253
59985SOL     OW86815   5.445   3.899   2.458  0.0354 -0.7904 -0.1424
59985SOL    HW186816   5.488   3.982   2.439 -1.5410  0.4444  1.3531
59985SOL    HW286817   5.516   3.843   2.489  1.2269 -0.2321 -1.7223
59986SOL     OW86818  11.888   7.531   0.302 -0.2988 -0.8678  0.3793
59986SOL    HW186819  11.836   7.505   0.225  0.5976 -0.9070 -0.2240
59986SOL    HW286820  11.848   7.613   0.331  1.2596  0.8952 -2.0660
59987SOL     OW86821   2.823   0.136   8.432 -0.3220  0.4224  0.0810
59987SOL    HW186822   2.775   0.154   8.351 -1.0139 -0.8332  0.1775
59987SOL    HW286823   2.764   0.079   8.482  0.2509  0.8810  1.3141
59988SOL     OW86824   0.143   3.335   4.162  0.1403  0.2431 -0.5747
59988SOL    HW186825   0.118   3.280   4.087 -0.5835 -0.4030  0.1207
59988SOL    HW286826   0.066   3.389   4.177  1.2477  2.3540 -1.9908
59989SOL     OW86827   4.611   3.803   5.574  0.0357 -0.4990 -0.0990
59989SOL    HW186828   4.560   3.794   5.655 -1.1152  0.5409 -0.6720
59989SOL    HW286829   4.559   3.759   5.507 -0.9126  1.8004 -0.9884
59990SOL     OW86830   7.260   4.166   9.745  0.1780  0.3239 -0.1894
59990SOL    HW186831   7.236   4.241   9.800  0.4719  1.1510 -1.1476
59990SOL    HW286832   7.354   4.178   9.727  0.9169 -1.7577  1.8394
59991SOL     OW86833   7.216   7.435   5.783 -0.3252 -0.2383  0.2605
59991SOL    HW186834   7.288   7.498   5.793  1.4612 -1.8301 -1.5854
59991SOL    HW286835   7.200   7.403   5.872  1.3286  0.1277  0.7246
59992SOL     OW86836   9.201   3.615  12.272  0.2758  1.0473 -0.5380
59992SOL    HW186837   9.197   3.519  12.269  0.8996  1.0228 -0.6031
59992SOL    HW286838   9.227   3.635  12.362  0.2920  1.1532 -0.5659
59993SOL     OW86839   8.049   6.815   4.170 -0.7725 -0.3339 -0.0315
59993SOL    HW186840   7.976   6.789   4.115  0.3766  0.0833 -1.8252
59993SOL    HW286841   8.010   6.833   4.256 -2.5759 -1.1649 -0.6479
59994SOL     OW86842   2.557  10.204  11.104 -0.1408  0.1782  0.4381
59994SOL    HW186843   2.624  10.212  11.172  0.9105 -0.3031 -0.5209
59994SOL    HW286844   2.477  10.237  11.146 -0.0252 -1.9935  2.6118
59995SOL     OW86845   9.921   5.893   7.094 -0.2078 -0.5604  0.3654
59995SOL    HW186846   9.972   5.829   7.144  0.6979 -0.4642 -0.4107
59995SOL    HW286847   9.949   5.880   7.004 -1.7493 -0.6691 -0.1204
59996SOL     OW86848   0.459   3.269  12.363 -0.2863 -0.0576 -0.7651
59996SOL    HW186849   0.513   3.307  12.433  0.3352 -0.2984 -1.1031
59996SOL    HW286850   0.369   3.283  12.392 -0.1260  2.2247 -1.1463
59997SOL     OW86851   1.480   9.105   0.098  0.4124  0.1585 -0.0397
59997SOL    HW186852   1.473   9.125   0.191  0.7042 -2.1783  0.5625
59997SOL    HW286853   1.479   9.009   0.094  0.1474  0.1944 -2.4712
59998SOL     OW86854  11.213   1.762  11.038 -0.0526 -0.0945  0.1189
59998SOL    HW186855  11.273   1.769  11.112  1.3986 -0.9476 -0.9034
59998SOL    HW286856  11.139   1.711  11.071  0.4532 -0.2454  1.0484
59999SOL     OW86857   9.257   9.976  10.731 -0.1761 -0.4211  0.2324
59999SOL    HW186858   9.338   9.950  10.777 -0.3619 -0.1871  0.7001
59999SOL    HW286859   9.256  10.071  10.736  0.9884 -0.2008 -2.3173
60000SOL     OW86860   8.048  10.779   2.624  0.0826 -0.1280  0.0482
60000SOL    HW186861   8.131  10.798   2.580  0.6534  0.5715  1.3604
60000SOL    HW286862   7.990  10.850   2.597  0.3804  0.2076  0.2623
60001SOL     OW86863   0.335  11.489  12.295 -0.4768 -0.2373 -0.6036
60001SOL    HW186864   0.343  11.491  12.391 -0.3802 -0.6390 -0.5980
60001SOL    HW286865   0.279  11.413  12.278  0.7904 -1.1294 -0.9303
60002SOL     OW86866   3.173   3.768   5.738 -0.1620  0.2626 -0.1598
60002SOL    HW186867   3.119   3.754   5.660 -0.8118 -1.2537  0.5403
60002SOL    HW286868   3.113   3.757   5.811  0.5946  0.9844  0.5882
60003SOL     OW86869  10.565   8.749   4.617 -0.3863  0.1886 -0.3414
60003SOL    HW186870  10.477   8.786   4.617 -0.3900  0.1852 -0.0772
60003SOL    HW286871  10.563   8.684   4.687 -0.9122 -1.5835 -1.9283
60004SOL     OW86872  10.700   6.658   8.928  0.1969  0.5881  0.0753
60004SOL    HW186873  10.680   6.689   9.016  0.3761  0.0768  0.3024
60004SOL    HW286874  10.788   6.622   8.934  0.2669  0.6822 -0.3482
60005SOL     OW86875   6.725   1.962   5.923  0.5962 -0.1542 -0.0072
60005SOL    HW186876   6.742   1.887   5.981  0.5987  0.0800  0.2942
60005SOL    HW286877   6.702   2.033   5.982  0.2479 -0.0091 -0.3169
60006SOL     OW86878  11.785   7.088   3.556 -0.0310  0.3461  0.4205
60006SOL    HW186879  11.754   7.144   3.627 -2.3286 -0.3292  0.0248
60006SOL    HW286880  11.766   7.137   3.476  0.3756  0.1127  0.1748
60007SOL     OW86881  10.978   0.156   0.430  0.2324  0.0690  0.3013
60007SOL    HW186882  10.953   0.076   0.384  1.0488  0.8476 -1.5800
60007SOL    HW286883  10.982   0.223   0.362  1.4268  1.3012  1.5174
60008SOL     OW86884   2.763  12.297   0.649 -0.0430  0.3273  0.4255
60008SOL    HW186885   2.706  12.352   0.596  1.6600  0.7504 -1.0539
60008SOL    HW286886   2.706  12.228   0.682 -1.3122  0.4684 -1.3549
60009SOL     OW86887   8.619   5.676  11.650 -0.2955  0.1179  0.2690
60009SOL    HW186888   8.692   5.658  11.710  0.2248  0.8836 -0.1183
60009SOL    HW286889   8.605   5.594  11.604  0.0237 -0.1658  0.6682
60010SOL     OW86890   4.621   2.786   0.423 -0.7873 -0.3379  0.0988
60010SOL    HW186891   4.542   2.825   0.462 -0.3284  0.1526  0.5415
60010SOL    HW286892   4.587   2.732   0.351 -1.3693  1.5744 -1.1275
60011SOL     OW86893   0.015   6.503   0.660  0.0585 -0.0457  0.0185
60011SOL    HW186894   0.048   6.546   0.581 -0.2422  0.9938  0.4416
60011SOL    HW286895  -0.073   6.540   0.672  0.3004  0.2086  1.1290
60012SOL     OW86896   2.899  11.286   0.911 -0.2135 -0.7777  0.7264
60012SOL    HW186897   2.955  11.364   0.902 -1.5997  0.3724  1.6000
60012SOL    HW286898   2.893  11.251   0.822  0.2262  0.2840  0.2559
60013SOL     OW86899   1.304   4.913   5.875  0.0118 -0.5320 -0.6444
60013SOL    HW186900   1.222   4.957   5.899 -0.3033 -0.8443 -1.1291
60013SOL    HW286901   1.279   4.851   5.806  0.5248 -1.1476 -0.2925
60014SOL     OW86902   6.470   3.587   5.584 -0.1250  0.0143 -0.2145
60014SOL    HW186903   6.421   3.666   5.606 -0.5016  0.4392 -2.4299
60014SOL    HW286904   6.560   3.617   5.572 -0.1109 -0.0381 -0.2417
60015SOL     OW86905   9.704  10.408  12.374 -0.2711  0.4247 -0.3714
60015SOL    HW186906   9.772  10.377  12.314  1.1730  1.8396  0.4693
60015SOL    HW286907   9.623  10.403  12.323  0.2998 -1.9586 -1.1766
60016SOL     OW86908  10.730   9.315  11.203  0.0786 -0.3795  0.5314
60016SOL    HW186909  10.710   9.324  11.297  0.4814 -0.7514  0.6562
60016SOL    HW286910  10.775   9.397  11.181  1.2814 -0.8694  1.0173
60017SOL     OW86911  10.102   6.433   2.854  0.6333 -0.1853  0.2148
60017SOL    HW186912  10.057   6.516   2.838  0.2947 -0.3896  0.1022
60017SOL    HW286913  10.089   6.382   2.774  1.4005 -0.1021  0.0265
60018SOL     OW86914   3.403   7.180   1.727 -0.3764  0.5338 -0.5431
60018SOL    HW186915   3.455   7.103   1.752 -1.1750  0.5034  1.1493
60018SOL    HW286916   3.407   7.181   1.632  3.2023  0.8732 -0.5196
60019SOL     OW86917   1.705   5.664   9.572  0.6446  0.4736  0.3456
60019SOL    HW186918   1.753   5.705   9.500 -0.3270 -0.8690 -1.1254
60019SOL    HW286919   1.641   5.731   9.599 -0.5045  0.2428 -1.6058
60020SOL     OW86920   2.170   7.425   2.219  0.1347  0.1094 -0.2535
60020SOL    HW186921   2.264   7.442   2.222  0.6484 -2.3253  1.6223
60020SOL    HW286922   2.163   7.341   2.172 -1.1657  0.5392 -0.8583
60021SOL     OW86923   1.853   3.967   0.403 -0.2446 -0.7693  0.0005
60021SOL    HW186924   1.856   4.050   0.356 -0.8836 -0.6986  0.0765
60021SOL    HW286925   1.865   3.901   0.335  1.7632 -0.5797  0.1355
60022SOL     OW86926   4.900   4.489  12.035  0.3198 -0.7442 -0.4247
60022SOL    HW186927   4.868   4.575  12.010 -1.3944 -0.4638  2.3699
60022SOL    HW286928   4.822   4.434  12.040  1.1364 -1.9415 -0.1911
60023SOL     OW86929  10.289   5.026   0.169  0.8488 -0.1242  0.3008
60023SOL    HW186930  10.280   4.964   0.242 -0.5953  0.1164  0.3658
60023SOL    HW286931  10.344   5.096   0.204 -0.3372  0.3024  1.4042
60024SOL     OW86932   4.589   0.943   6.034  0.1196  0.1341  0.5195
60024SOL    HW186933   4.506   0.902   6.060 -0.6304  0.8868 -0.6313
60024SOL    HW286934   4.619   0.893   5.959  0.3462  0.3182  0.4844
60025SOL     OW86935   5.265   9.181   5.812 -0.1147  0.0787 -0.3514
60025SOL    HW186936   5.248   9.270   5.844  0.6824 -0.2448  1.0219
60025SOL    HW286937   5.360   9.178   5.801 -0.1188 -0.6947 -0.1603
60026SOL     OW86938   6.869   5.655   3.094  0.3889 -0.1623 -0.2693
60026SOL    HW186939   6.813   5.715   3.142 -0.1840 -0.1360 -0.9447
60026SOL    HW286940   6.813   5.580   3.075  1.3891 -1.4370  1.4974
60027SOL     OW86941   7.697   6.873  11.900  0.3980 -0.3889  0.6644
60027SOL    HW186942   7.692   6.958  11.857  0.3249  0.7443  2.7737
60027SOL    HW286943   7.768   6.827  11.855  0.4474  0.7785 -0.4928
60028SOL     OW86944  11.244   8.974   8.016  0.3713  0.3631 -0.3464
60028SOL    HW186945  11.297   8.898   8.041 -1.3017 -1.1345 -1.1039
60028SOL    HW286946  11.193   8.994   8.094 -0.9292 -0.8803 -0.8287
60029SOL     OW86947  11.144   9.846   5.421 -0.2455 -0.2640 -0.1364
60029SOL    HW186948  11.136   9.772   5.361  1.7914  1.6092 -2.9844
60029SOL    HW286949  11.228   9.833   5.465 -0.3400 -0.1461  0.0816
60030SOL     OW86950   6.397   3.621   6.882 -0.2337  0.3996  0.5298
60030SOL    HW186951   6.327   3.686   6.887 -1.0803 -0.5531  2.9802
60030SOL    HW286952   6.474   3.666   6.916 -0.3220  0.6923  0.3437
60031SOL     OW86953   9.963  11.641   9.534  0.0331  0.3231  0.3595
60031SOL    HW186954  10.014  11.683   9.603  0.5553  1.5997 -0.7605
60031SOL    HW286955   9.925  11.564   9.576  1.0395  0.5847  1.8273
60032SOL     OW86956  10.666   0.693   5.196  0.3815 -0.1849 -0.1562
60032SOL    HW186957  10.602   0.631   5.162  1.0241 -1.1321  0.3096
60032SOL    HW286958  10.627   0.725   5.278 -0.1180  0.3253 -0.5875
60033SOL     OW86959   8.903   6.844  11.804 -0.3014  0.3931  0.4042
60033SOL    HW186960   8.886   6.926  11.757  1.3224  0.5532  0.0326
60033SOL    HW286961   8.844   6.780  11.764  0.7330  0.6199 -1.6089
60034SOL     OW86962   7.152   9.656  10.682 -0.0193 -0.3726  0.4311
60034SOL    HW186963   7.203   9.615  10.752  0.9124  1.2765  0.7651
60034SOL    HW286964   7.125   9.741  10.717  1.3326  0.9565 -1.5016
60035SOL     OW86965   6.022   5.373   2.596  0.6630  0.0655  0.2213
60035SOL    HW186966   6.024   5.329   2.681  0.7873  0.0761  0.2245
60035SOL    HW286967   5.970   5.451   2.611  0.8754  0.1847  0.3454
60036SOL     OW86968   4.872   1.540   6.121  0.4401  0.0980 -0.3810
60036SOL    HW186969   4.936   1.509   6.057 -0.0258 -0.5066 -0.5532
60036SOL    HW286970   4.792   1.493   6.101  0.3864 -0.4001  0.8995
60037SOL     OW86971   3.282   9.381   4.566 -0.5156 -0.1493  0.0292
60037SOL    HW186972   3.350   9.313   4.573 -0.8701 -0.6618 -1.2389
60037SOL    HW286973   3.331   9.462   4.552 -0.1322 -0.4734 -0.5953
60038SOL     OW86974  10.515   0.905   3.573  0.8434 -0.7449  0.0499
60038SOL    HW186975  10.538   0.815   3.551 -0.8781 -1.0479 -0.6526
60038SOL    HW286976  10.464   0.898   3.654  1.5445 -0.2835  0.5427
60039SOL     OW86977   0.141   6.107  12.029  0.0094 -0.5990  0.2188
60039SOL    HW186978   0.153   6.073  12.118  0.8607  1.5472  0.9832
60039SOL    HW286979   0.228   6.133  12.001 -0.1795 -1.6352 -1.4607
60040SOL     OW86980   0.941   4.278   4.450  0.4157 -0.4618 -0.3866
60040SOL    HW186981   0.965   4.329   4.373 -0.9681  0.4536 -0.2473
60040SOL    HW286982   0.881   4.211   4.416 -1.0742  0.6215  0.0043
60041SOL     OW86983   8.742   4.323  11.753  0.9663  0.3466 -0.0106
60041SOL    HW186984   8.680   4.253  11.774 -0.8295  2.0854  0.8367
60041SOL    HW286985   8.795   4.333  11.832 -0.0842  1.1831  0.6217
60042SOL     OW86986   1.851   9.133   1.744 -0.9135 -0.0169  0.0926
60042SOL    HW186987   1.874   9.223   1.719 -0.3428 -0.2198 -0.1267
60042SOL    HW286988   1.930   9.100   1.788 -0.8158 -0.6947 -0.5853
60043SOL     OW86989  10.221   1.309  10.229  0.4726 -0.1486 -0.0888
60043SOL    HW186990  10.234   1.403  10.243  1.0095 -0.3394  0.7704
60043SOL    HW286991  10.309   1.273  10.220  0.2977 -0.6631  0.2222
60044SOL     OW86992   5.862   5.211   7.840  0.1083 -0.0368 -0.1669
60044SOL    HW186993   5.938   5.170   7.882  0.4120  1.4683  0.8318
60044SOL    HW286994   5.897   5.252   7.761  0.1777 -0.0608 -0.1481
60045SOL     OW86995   7.032   7.963  11.685  0.1647 -0.0778  0.4987
60045SOL    HW186996   7.089   7.909  11.630 -0.3428 -0.7532  0.6187
60045SOL    HW286997   6.944   7.930  11.668 -0.3425  1.6627 -0.5028
60046SOL     OW86998   2.455  10.027   5.073 -0.1851 -0.3941 -0.1834
60046SOL    HW186999   2.408  10.036   4.991 -1.5691 -0.8942  0.5144
60046SOL    HW287000   2.444  10.112   5.116  1.2055  0.1342 -0.8234
60047SOL     OW87001  11.219  11.826   7.516 -0.1815  0.5189  0.1048
60047SOL    HW187002  11.147  11.883   7.489 -0.9852  0.0798  1.2307
60047SOL    HW287003  11.252  11.866   7.596  1.4562  1.2189 -0.8750
60048SOL     OW87004   7.627   3.155   9.903  0.8624  0.1222 -0.2504
60048SOL    HW187005   7.612   3.233   9.849  0.7055 -0.1292 -0.5738
60048SOL    HW287006   7.560   3.093   9.875  0.1046  0.3639  0.9776
60049SOL     OW87007  10.532   4.457   8.132 -0.1026 -0.0970  0.2901
60049SOL    HW187008  10.581   4.439   8.213 -1.3876  1.5199  1.5011
60049SOL    HW287009  10.448   4.412   8.145 -0.0254 -0.4957 -0.5236
60050SOL     OW87010   4.900   2.742   0.410  0.1678 -0.2830  0.4452
60050SOL    HW187011   4.809   2.758   0.435  0.0599 -0.8847  0.4519
60050SOL    HW287012   4.947   2.820   0.440  0.0915 -1.0669  2.7490
60051SOL     OW87013  10.988   0.188   1.715  0.3455  0.1757  0.1227
60051SOL    HW187014  10.924   0.181   1.645 -0.5290 -1.4717  1.0202
60051SOL    HW287015  10.940   0.232   1.786 -0.1685 -1.8819  1.1270
60052SOL     OW87016   3.047   2.963   3.110  0.1439  0.0038 -0.0503
60052SOL    HW187017   3.121   2.942   3.053 -0.5676  0.7586 -1.3025
60052SOL    HW287018   3.045   3.059   3.112 -2.1673  0.0812 -1.9828
60053SOL     OW87019   4.348   5.569   3.651 -0.7191 -0.1305  0.3544
60053SOL    HW187020   4.379   5.581   3.561 -2.1128 -1.1760 -0.2949
60053SOL    HW287021   4.402   5.629   3.703 -0.3070  0.9448 -1.2536
60054SOL     OW87022   9.912   2.137  10.175 -0.3187 -0.5715 -0.2077
60054SOL    HW187023   9.901   2.222  10.132 -0.2561  0.0027  0.8784
60054SOL    HW287024   9.869   2.075  10.116 -0.9596  0.3041 -0.6951
60055SOL     OW87025   7.231   6.094  10.218  0.4178 -0.0209  0.1881
60055SOL    HW187026   7.204   6.161  10.282 -1.4768  0.0922 -0.6573
60055SOL    HW287027   7.283   6.143  10.154 -0.0211  0.4339  0.1679
60056SOL     OW87028  11.636   6.190   4.240 -0.3852  0.2368 -0.1712
60056SOL    HW187029  11.652   6.187   4.146  0.8974 -0.8164  0.0525
60056SOL    HW287030  11.541   6.202   4.248 -0.7491 -1.2648 -1.6090
60057SOL     OW87031   4.432   0.632   3.369 -0.2697 -0.2432 -0.0963
60057SOL    HW187032   4.527   0.629   3.380 -0.3288 -2.5584  0.1460
60057SOL    HW287033   4.402   0.690   3.440  0.7957 -1.3702  1.3368
60058SOL     OW87034   0.268   3.003   1.757  0.1699 -0.9317 -0.1745
60058SOL    HW187035   0.220   2.989   1.839  1.2810 -1.2949  0.4319
60058SOL    HW287036   0.261   3.097   1.741 -0.0213 -0.8514  0.3563
60059SOL     OW87037  11.078   5.948   7.506 -0.2749 -0.1963  0.1616
60059SOL    HW187038  11.132   5.869   7.512 -1.5154 -1.0483  0.5118
60059SOL    HW287039  11.138   6.015   7.474  0.3267 -1.7844 -2.2990
60060SOL     OW87040  10.317   0.029  10.270 -0.1145  0.1458 -0.1938
60060SOL    HW187041  10.319  -0.030  10.345 -0.1082 -0.0446 -0.3427
60060SOL    HW287042  10.330   0.116  10.307  1.7838 -0.1144 -0.1715
60061SOL     OW87043   4.421   2.567   7.393 -0.1266 -0.2621 -0.2449
60061SOL    HW187044   4.443   2.590   7.302  0.2940 -0.1922 -0.1278
60061SOL    HW287045   4.348   2.625   7.415 -1.5503 -1.5950 -1.1680
60062SOL     OW87046   7.081   2.251   8.600  0.1433 -0.3838 -0.1654
60062SOL    HW187047   6.995   2.218   8.573 -0.5449  0.1625  1.2318
60062SOL    HW287048   7.137   2.174   8.600 -0.0162 -0.5427 -2.2518
60063SOL     OW87049  11.678   7.175   0.361 -0.3697 -0.6410  0.1495
60063SOL    HW187050  11.751   7.210   0.412 -0.2447  0.7443 -0.9220
60063SOL    HW287051  11.715   7.105   0.308  0.4765  0.8112 -1.2444
60064SOL     OW87052  10.508   9.286   8.702  0.2579 -0.5042  0.6867
60064SOL    HW187053  10.538   9.216   8.760 -0.8916 -0.6464  1.1265
60064SOL    HW287054  10.435   9.326   8.748  0.1009  0.1771 -0.1258
60065SOL     OW87055   4.710   0.627   3.435  0.3815  0.0440  0.3649
60065SOL    HW187056   4.774   0.682   3.481  0.2901 -0.5198  1.1893
60065SOL    HW287057   4.756   0.544   3.420 -0.1215 -0.3434  0.9049
60066SOL     OW87058   1.334   8.636   4.041  0.2736  0.1748  0.6619
60066SOL    HW187059   1.322   8.598   4.128 -3.1977 -1.0748 -0.2176
60066SOL    HW287060   1.283   8.717   4.043 -0.2092 -0.0856 -0.2887
60067SOL     OW87061   1.580   6.087   9.813  0.1212  0.0149  0.3555
60067SOL    HW187062   1.675   6.099   9.806  0.1268  1.5936  2.1730
60067SOL    HW287063   1.547   6.175   9.830 -1.8455 -0.3084 -1.4518
60068SOL     OW87064  11.877   1.256   9.553 -0.2673  0.2890  0.4449
60068SOL    HW187065  11.824   1.311   9.496 -0.0801  1.1121  1.0390
60068SOL    HW287066  11.821   1.182   9.575 -0.4638  0.1416 -0.5116
60069SOL     OW87067   1.694   5.206   9.832 -0.6687 -0.8188  0.0669
60069SOL    HW187068   1.789   5.218   9.829 -0.2839 -2.8510 -4.2340
60069SOL    HW287069   1.674   5.191   9.924  3.4455 -1.8506  0.9749
60070SOL     OW87070  10.485   3.178   4.129 -0.6589 -0.3598 -0.3249
60070SOL    HW187071  10.535   3.237   4.185  1.2876 -1.8157 -0.4237
60070SOL    HW287072  10.537   3.174   4.048 -1.1895 -1.5479 -0.6159
60071SOL     OW87073   6.133  10.444   5.645 -0.1588  0.7484  0.3041
60071SOL    HW187074   6.102  10.484   5.564  0.5347 -0.2400 -0.4716
60071SOL    HW287075   6.121  10.512   5.711 -0.6698  1.5990 -0.6304
60072SOL     OW87076   4.013   8.208  10.260  0.3159  0.3087  0.0375
60072SOL    HW187077   4.096   8.164  10.281  0.7631  0.6944 -0.8443
60072SOL    HW287078   4.036   8.301  10.257 -0.3225  0.4827  0.5513
60073SOL     OW87079   5.127   3.485  12.245  0.4807  0.2760  0.0418
60073SOL    HW187080   5.033   3.475  12.238  0.5182 -0.2987  0.3042
60073SOL    HW287081   5.139   3.568  12.292  0.1053  0.1497  0.3613
60074SOL     OW87082   2.921   2.189   1.130  0.3925 -0.1331  0.1051
60074SOL    HW187083   3.016   2.189   1.124  0.2920 -0.1661 -1.8503
60074SOL    HW287084   2.896   2.098   1.112 -0.0274 -0.0512  0.2654
60075SOL     OW87085   6.389   9.332   5.436 -0.1441  0.0805 -0.3293
60075SOL    HW187086   6.357   9.391   5.503 -0.4671 -0.6738  0.1852
60075SOL    HW287087   6.312   9.282   5.408  0.0577  0.1307 -0.9992
60076SOL     OW87088  10.268   9.034   5.329 -0.5555 -0.1146  0.0614
60076SOL    HW187089  10.183   9.077   5.341 -0.6314 -0.5436  1.2553
60076SOL    HW287090  10.290   9.049   5.238 -0.5318  2.5202  0.4155
60077SOL     OW87091   9.704  10.776   5.591  0.0632 -0.4144 -0.2118
60077SOL    HW187092   9.717  10.683   5.609 -0.1493 -0.6243 -1.0964
60077SOL    HW287093   9.609  10.786   5.584  0.0900 -0.1450 -0.1767
60078SOL     OW87094   6.501  10.686   5.954 -0.3383  0.4381  0.0680
60078SOL    HW187095   6.406  10.678   5.956 -0.2892 -4.4476 -2.4143
60078SOL    HW287096   6.532  10.607   5.998  2.3742 -0.0763 -2.4456
60079SOL     OW87097   6.367   9.349   3.424  0.5625 -0.8909  0.5988
60079SOL    HW187098   6.377   9.295   3.502 -1.2193  0.0136  1.5282
60079SOL    HW287099   6.419   9.305   3.357  0.0510 -3.1467  1.5870
60080SOL     OW87100   3.140   4.338   8.760  0.1557  0.0017 -0.4414
60080SOL    HW187101   3.095   4.260   8.793 -0.9925 -0.3642 -2.6440
60080SOL    HW287102   3.188   4.372   8.835 -3.5597  0.2562  2.0656
60081SOL     OW87103   4.266   7.882   9.217  0.3016  0.3280 -0.4047
60081SOL    HW187104   4.196   7.817   9.226  1.2093 -0.3646  2.9844
60081SOL    HW287105   4.301   7.866   9.129 -1.8651 -1.2384 -1.0993
60082SOL     OW87106   1.213   7.544   3.158 -0.5263  0.1138 -0.0022
60082SOL    HW187107   1.189   7.626   3.113 -1.2702  0.3182  0.7516
60082SOL    HW287108   1.166   7.547   3.241 -0.0316 -0.7788  0.3263
60083SOL     OW87109  11.629   0.280   0.831 -0.6777  0.0789 -0.6306
60083SOL    HW187110  11.708   0.312   0.875  0.2740 -0.2386 -2.0490
60083SOL    HW287111  11.597   0.356   0.782 -1.2440  0.1904 -0.1034
60084SOL     OW87112   4.174   1.181   0.556  0.4101 -0.1218 -0.2016
60084SOL    HW187113   4.132   1.207   0.475 -0.2889 -0.7765 -0.0582
60084SOL    HW287114   4.126   1.227   0.624 -1.6371 -2.5586  0.1695
60085SOL     OW87115   2.403   6.949  12.270 -0.0890 -0.1288  0.5188
60085SOL    HW187116   2.313   6.916  12.279 -0.1564 -0.0139  0.2939
60085SOL    HW287117   2.399   7.038  12.305  0.5695 -1.0335  3.1137
60086SOL     OW87118   5.348   9.913   1.050  0.7473 -0.0095 -0.1220
60086SOL    HW187119   5.414   9.913   0.982  0.9739  0.8037  0.0841
60086SOL    HW287120   5.396   9.928   1.131  0.2551  1.4171 -0.0603
60087SOL     OW87121   8.579  12.157   8.127  0.0570 -0.5880 -0.0162
60087SOL    HW187122   8.661  12.148   8.175  0.6255  1.3793 -0.5286
60087SOL    HW287123   8.518  12.193   8.191  0.5690  1.1660 -0.4389
60088SOL     OW87124  10.900   8.506   8.301  0.5284 -0.1484 -0.0491
60088SOL    HW187125  10.952   8.514   8.220  1.3896  2.8902  0.6638
60088SOL    HW287126  10.866   8.595   8.315  0.2546 -0.6418  2.8334
60089SOL     OW87127   1.557   6.921   9.474 -0.4144 -0.1736  0.4027
60089SOL    HW187128   1.548   6.981   9.400 -0.1853 -0.3783  0.2038
60089SOL    HW287129   1.469   6.915   9.511 -0.5680 -0.1979  0.0413
60090SOL     OW87130   3.362   4.276   5.083 -0.5776  0.1968  0.2532
60090SOL    HW187131   3.411   4.232   5.015  2.6175  0.1781  2.3753
60090SOL    HW287132   3.312   4.206   5.126 -0.0916 -0.3290 -0.0275
60091SOL     OW87133   3.748   4.242   5.007 -0.4258  0.5703  0.2780
60091SOL    HW187134   3.820   4.179   5.008 -1.4941 -0.7092  1.2460
60091SOL    HW287135   3.687   4.208   4.941 -0.4682  1.2610 -0.0465
60092SOL     OW87136   7.155  10.538   4.209 -0.5947 -0.0157  0.3603
60092SOL    HW187137   7.085  10.473   4.208  0.5717 -1.4221 -3.0135
60092SOL    HW287138   7.124  10.608   4.152 -0.5238  0.9045  1.4224
60093SOL     OW87139  11.730   9.154   1.508  0.2354  0.0141 -0.2566
60093SOL    HW187140  11.649   9.116   1.476 -0.2862  1.1579 -0.3645
60093SOL    HW287141  11.763   9.206   1.435  1.1722 -0.5779 -0.2749
60094SOL     OW87142   0.709  11.651  12.011  0.6558 -0.0881 -0.8374
60094SOL    HW187143   0.696  11.711  12.085  2.6459 -0.3421 -0.2344
60094SOL    HW287144   0.734  11.708  11.939 -0.5520  0.0817 -1.1532
60095SOL     OW87145  10.132  11.122   9.450 -0.2986 -0.7756 -0.4196
60095SOL    HW187146  10.176  11.157   9.373 -0.2856 -0.9838 -0.5081
60095SOL    HW287147  10.087  11.044   9.418 -0.6135 -0.6426 -0.2973
60096SOL     OW87148   8.503  11.619   9.939  0.0501  0.4564  0.3586
60096SOL    HW187149   8.459  11.629  10.024  0.5522 -0.7207  0.7819
60096SOL    HW287150   8.556  11.540   9.949 -0.2767  0.0153 -1.2391
60097SOL     OW87151   1.947   9.903   5.299  0.5691  0.6680  0.4033
60097SOL    HW187152   2.028   9.863   5.330  0.5701  1.2686  1.2002
60097SOL    HW287153   1.960   9.914   5.205  0.9158 -0.3688  0.3189
60098SOL     OW87154   0.707   4.024   6.841 -0.2548 -0.3737 -0.1243
60098SOL    HW187155   0.790   4.001   6.798  0.6819  0.2979  1.2306
60098SOL    HW287156   0.710   3.977   6.924 -0.6933  0.5642  0.4407
60099SOL     OW87157   4.876  11.500   9.545  0.1834  1.1946 -0.6221
60099SOL    HW187158   4.916  11.419   9.514  0.1444  0.9627 -0.0586
60099SOL    HW287159   4.782  11.489   9.528  0.2316  1.3347 -1.0140
60100SOL     OW87160  10.929   6.643   7.990 -0.3065  0.4691 -0.1913
60100SOL    HW187161  10.965   6.728   8.013  0.3091  0.2709 -0.3933
60100SOL    HW287162  11.006   6.586   7.982 -0.7867 -0.4328  1.2842
60101SOL     OW87163  10.482   0.132  11.994  0.3312  0.4892 -0.1354
60101SOL    HW187164  10.417   0.085  12.047  0.8889  0.2750  0.3666
60101SOL    HW287165  10.517   0.199  12.053  0.7982  0.3922 -0.3013
60102SOL     OW87166  11.472   9.967   2.943 -0.4197 -0.6523 -0.1850
60102SOL    HW187167  11.428   9.901   2.890  1.0719  0.0572 -2.4667
60102SOL    HW287168  11.563   9.963   2.916  0.2765  0.3236  1.8096
60103SOL     OW87169   2.413   7.630   0.924  0.3393 -0.1505 -0.3326
60103SOL    HW187170   2.390   7.715   0.886 -1.0471 -0.9960 -1.4638
60103SOL    HW287171   2.497   7.608   0.884 -0.2377 -0.1945 -1.5743
60104SOL     OW87172  12.013   9.358   2.789 -0.0781  0.1790 -0.0130
60104SOL    HW187173  12.043   9.438   2.832 -0.0968  0.5440 -0.6638
60104SOL    HW287174  11.928   9.340   2.828 -1.7738  2.4881 -2.3202
60105SOL     OW87175   5.088   5.816   3.864 -0.2403 -0.1351 -0.4585
60105SOL    HW187176   5.042   5.898   3.849 -0.4304 -0.2731 -0.6429
60105SOL    HW287177   5.019   5.749   3.862 -0.0731 -0.3106 -0.4271
60106SOL     OW87178   2.925   4.561   9.457 -0.1032  0.7154 -0.1782
60106SOL    HW187179   2.894   4.552   9.367  0.1307  0.3407 -0.2196
60106SOL    HW287180   2.848   4.594   9.505 -0.0145  1.6515 -0.6556
60107SOL     OW87181  11.363   4.961   0.325 -0.4088  0.3226  0.2255
60107SOL    HW187182  11.271   4.986   0.323 -0.4290  0.6281  2.4256
60107SOL    HW287183  11.408   5.041   0.353  0.3381 -0.2321  0.6250
60108SOL     OW87184   4.555   3.319   0.080 -0.3411  0.2384 -0.2009
60108SOL    HW187185   4.582   3.245   0.134  0.3018  0.5070 -0.1516
60108SOL    HW287186   4.466   3.297   0.053 -0.7152  0.1350  1.0306
60109SOL     OW87187  11.794  10.721   9.627  0.5359  0.3777  0.0753
60109SOL    HW187188  11.746  10.678   9.698 -0.0235  1.3038  0.2878
60109SOL    HW287189  11.882  10.685   9.631  0.4285  0.1940  1.0601
60110SOL     OW87190   8.501   6.613   6.219  0.3007 -0.5734 -0.7899
60110SOL    HW187191   8.431   6.646   6.162 -0.0378  1.8347  0.8562
60110SOL    HW287192   8.581   6.626   6.169 -0.0925  0.3181 -1.2103
60111SOL     OW87193   1.862   9.995   6.333  0.7594 -0.0743  0.0468
60111SOL    HW187194   1.803  10.067   6.353 -0.9048 -1.1147 -0.8878
60111SOL    HW287195   1.804   9.922   6.311  2.3959 -0.9213 -1.7133
60112SOL     OW87196   2.879   7.026   0.071  0.1248  0.0209 -0.1197
60112SOL    HW187197   2.876   6.950   0.013 -0.5305 -0.4041  0.4553
60112SOL    HW287198   2.788   7.054   0.080  0.0670 -0.5387  1.4591
60113SOL     OW87199  12.001  10.175   1.233  0.1323 -0.4375 -0.2295
60113SOL    HW187200  12.052  10.167   1.153 -0.3050  2.9226 -1.0011
60113SOL    HW287201  12.066  10.201   1.299  0.0331 -0.1057 -0.2608
60114SOL     OW87202   3.489   1.999   0.484  0.2093 -0.1713  0.0088
60114SOL    HW187203   3.537   1.966   0.409  0.6662 -1.3314  0.7744
60114SOL    HW287204   3.553   2.052   0.532  0.2648 -0.3848  0.1753
60115SOL     OW87205   7.487   1.807   8.214 -0.4650  0.0901  0.6969
60115SOL    HW187206   7.488   1.868   8.140 -0.0162 -0.0588  0.5796
60115SOL    HW287207   7.396   1.810   8.246 -0.4362  0.8348  0.7112
60116SOL     OW87208   5.630   4.863   1.738 -0.3411  0.0796  0.0617
60116SOL    HW187209   5.666   4.804   1.672  2.2860 -0.7749  2.0727
60116SOL    HW287210   5.690   4.855   1.812 -1.3189  3.3889  1.3932
60117SOL     OW87211  10.517   5.995   8.198 -0.3621  0.1889 -0.2914
60117SOL    HW187212  10.566   5.952   8.128 -1.3300 -0.2324 -0.7277
60117SOL    HW287213  10.503   5.926   8.263  1.7494  0.9035  1.0359
60118SOL     OW87214   7.126  11.831   3.292  0.3928  0.0537  0.2315
60118SOL    HW187215   7.153  11.794   3.376 -1.0752  1.2308  1.3034
60118SOL    HW287216   7.071  11.906   3.316 -1.4066 -0.5148 -1.7459
60119SOL     OW87217   4.269   2.763  11.542 -0.3333  0.8026 -0.1579
60119SOL    HW187218   4.240   2.818  11.615 -1.1932  1.1210 -0.7265
60119SOL    HW287219   4.219   2.682  11.551 -0.2349  0.7317 -0.2373
60120SOL     OW87220   5.628   8.068   7.831  0.4669  0.3054  0.1391
60120SOL    HW187221   5.605   8.151   7.874  1.5856  1.0705 -0.6956
60120SOL    HW287222   5.709   8.087   7.783  0.6895 -1.2486 -0.1565
60121SOL     OW87223   9.364   5.843   1.763  0.0282  0.2674 -0.6342
60121SOL    HW187224   9.342   5.752   1.784 -1.1467  0.5278 -0.6718
60121SOL    HW287225   9.410   5.838   1.680  0.7553 -0.3722 -0.2040
60122SOL     OW87226  10.673   7.846   8.082  0.3240 -0.2784 -1.1962
60122SOL    HW187227  10.647   7.812   8.168 -0.3885 -0.6655 -1.5517
60122SOL    HW287228  10.601   7.820   8.023  0.3869  0.7294 -1.7416
60123SOL     OW87229  10.224   9.457   9.127  0.3051  0.1221  0.0107
60123SOL    HW187230  10.150   9.398   9.142  0.3599  0.2070  0.6259
60123SOL    HW287231  10.295   9.400   9.098  0.2252 -0.0598  0.1702
60124SOL     OW87232  10.679   3.297   5.272  0.0598  0.4944  0.3771
60124SOL    HW187233  10.683   3.202   5.259  2.4844  0.3175  1.7099
60124SOL    HW287234  10.665   3.333   5.185 -1.5982 -1.0747 -0.0618
60125SOL     OW87235   5.892   2.207   8.030  0.2413  0.1458 -0.4565
60125SOL    HW187236   5.823   2.243   7.974  0.5604 -1.3681 -1.9257
60125SOL    HW287237   5.969   2.261   8.011 -0.0167  0.5570 -0.3526
60126SOL     OW87238   5.850   1.827   9.851 -0.9394 -0.1587  0.0866
60126SOL    HW187239   5.763   1.818   9.888 -1.1343 -0.9083 -0.5218
60126SOL    HW287240   5.887   1.738   9.856 -0.4274  0.0367 -0.1656
60127SOL     OW87241   1.489   9.379  11.941 -0.4123 -0.0681  0.1306
60127SOL    HW187242   1.560   9.318  11.922 -0.1662  0.4730 -0.7137
60127SOL    HW287243   1.502   9.451  11.879 -0.8240  0.7415  0.9756
60128SOL     OW87244   2.922   1.428  11.850  0.1137 -0.1203 -0.0055
60128SOL    HW187245   2.894   1.413  11.760 -0.7831 -0.4658  0.3215
60128SOL    HW287246   2.964   1.347  11.876  0.3981 -0.0103 -0.1215
60129SOL     OW87247  11.219  11.494   4.369  0.0642 -0.4988  0.0308
60129SOL    HW187248  11.299  11.543   4.351  0.8670 -1.4799  0.7827
60129SOL    HW287249  11.149  11.558   4.358  0.8993  0.2524 -1.1741
60130SOL     OW87250  12.075  10.420   3.949 -0.5195  0.6542 -0.4849
60130SOL    HW187251  12.165  10.400   3.921 -0.9686 -2.2972 -0.1888
60130SOL    HW287252  12.023  10.349   3.912 -2.7040  2.0811 -0.3085
60131SOL     OW87253   3.048  10.628   4.829 -0.2471 -0.3654 -0.5306
60131SOL    HW187254   3.096  10.555   4.791  2.0049 -0.6018  2.3677
60131SOL    HW287255   3.102  10.705   4.811  0.1694 -0.2892  0.8674
60132SOL     OW87256   0.419  11.169   3.543 -0.1059  0.5501 -0.1216
60132SOL    HW187257   0.361  11.130   3.608  0.4823 -2.0668 -1.0610
60132SOL    HW287258   0.501  11.183   3.589  0.9227 -3.0319 -0.5741
60133SOL     OW87259   9.987   0.683   1.769 -0.3330 -0.3749 -0.1640
60133SOL    HW187260  10.023   0.661   1.855 -0.1031  2.6619  0.6162
60133SOL    HW287261   9.959   0.774   1.777  1.5489  0.7386 -3.8675
60134SOL     OW87262  11.311  10.004   1.160  0.0577 -0.0580 -0.0485
60134SOL    HW187263  11.261  10.078   1.124 -0.5309 -0.1577  0.5505
60134SOL    HW287264  11.338  10.034   1.247  0.0680 -0.4436  0.0811
60135SOL     OW87265   2.400   7.525   9.054 -0.1447  0.2143 -0.0909
60135SOL    HW187266   2.447   7.582   9.115 -1.3007  1.0696  0.0508
60135SOL    HW287267   2.425   7.437   9.079 -0.0838  0.5774  1.2070
60136SOL     OW87268   3.870   9.916   9.816 -0.3816  0.4117 -0.2375
60136SOL    HW187269   3.853   9.966   9.736 -0.2466  2.0177  0.6968
60136SOL    HW287270   3.856   9.825   9.790 -1.3706  0.9637 -1.8188
60137SOL     OW87271   0.412  10.085   3.125 -0.1943  0.0147 -0.8143
60137SOL    HW187272   0.417   9.996   3.160  1.0425  0.3260 -0.1373
60137SOL    HW287273   0.340  10.082   3.063 -1.3532 -1.0007  0.5153
60138SOL     OW87274  10.135  10.118   9.268 -0.1846 -0.3818  0.3648
60138SOL    HW187275  10.142  10.209   9.296 -0.0564 -0.9758  2.4899
60138SOL    HW287276  10.215  10.102   9.217  0.3253  0.4103  0.8951
60139SOL     OW87277   1.585   6.373   2.588 -0.4365  0.1419  0.0636
60139SOL    HW187278   1.649   6.429   2.544 -0.3736  0.9259  1.1102
60139SOL    HW287279   1.564   6.419   2.669 -1.3244 -0.7589  0.3740
60140SOL     OW87280   3.157   4.739  11.000 -0.1984 -0.2229 -0.3910
60140SOL    HW187281   3.189   4.744  10.910  0.3346  0.0875 -0.1936
60140SOL    HW287282   3.184   4.653  11.031  0.6291  0.0983 -0.1720
60141SOL     OW87283   8.235   7.046   6.683  0.7623 -0.0210 -0.0457
60141SOL    HW187284   8.240   7.072   6.591 -1.6756 -0.3868 -0.3605
60141SOL    HW287285   8.220   7.127   6.730 -0.8398 -0.1143 -0.3395
60142SOL     OW87286  11.561   0.951   1.930 -0.2581 -0.2042 -0.2202
60142SOL    HW187287  11.570   0.857   1.915 -0.1740 -0.1055 -0.8393
60142SOL    HW287288  11.537   0.986   1.844  1.9370  0.6159 -0.5594
60143SOL     OW87289   8.556   7.277   6.951 -0.1077 -0.4037  0.2863
60143SOL    HW187290   8.493   7.299   7.020 -0.9763 -1.0427 -0.2936
60143SOL    HW287291   8.620   7.221   6.994 -0.1227 -0.0423  0.7927
60144SOL     OW87292  11.953   2.751   2.035 -0.0471  0.5383  0.3021
60144SOL    HW187293  11.923   2.762   1.945 -1.5610 -2.5196  0.2947
60144SOL    HW287294  11.912   2.823   2.083 -1.2070  0.8266 -1.0685
60145SOL     OW87295   3.701   9.323   7.812 -0.7120 -0.0295 -0.3938
60145SOL    HW187296   3.734   9.367   7.734  0.5959 -1.0489 -0.4705
60145SOL    HW287297   3.780   9.301   7.861 -1.4527 -0.4513  0.6297
60146SOL     OW87298   4.114   4.818   3.187 -0.4792  0.3290  0.7864
60146SOL    HW187299   4.191   4.787   3.141  0.6252  2.2441  1.2162
60146SOL    HW287300   4.043   4.763   3.156  0.6721 -0.0887 -1.2585
60147SOL     OW87301   4.397   5.302   1.550 -0.0928  0.1249  0.1610
60147SOL    HW187302   4.478   5.269   1.511  0.1326  2.1197 -1.2032
60147SOL    HW287303   4.402   5.397   1.540 -2.1746  0.3740  0.9094
60148SOL     OW87304  10.838  10.247  10.903 -0.6902  0.1742 -0.0496
60148SOL    HW187305  10.825  10.213  10.815 -1.5503 -0.3939  0.2781
60148SOL    HW287306  10.919  10.297  10.898  0.3729 -1.5276 -0.6859
60149SOL     OW87307   6.882   0.931   0.604  0.3000 -0.2426  0.0534
60149SOL    HW187308   6.804   0.879   0.584  0.1862 -0.6207  1.3422
60149SOL    HW287309   6.886   0.932   0.700  2.4941 -1.1833  0.0456
60150SOL     OW87310   9.111  12.082   7.842  0.3906 -0.1886  0.2469
60150SOL    HW187311   9.026  12.093   7.799 -0.0172 -2.0329  0.4885
60150SOL    HW287312   9.099  12.122   7.928  0.0968  0.4357 -0.0766
60151SOL     OW87313   7.039   1.427   0.749 -0.4885  0.4333 -0.2690
60151SOL    HW187314   6.988   1.484   0.807 -0.5256 -0.6946  0.8312
60151SOL    HW287315   7.034   1.470   0.664  0.3998  2.6869  0.7279
60152SOL     OW87316   4.452   5.335   6.833  0.2977  0.4628 -0.1241
60152SOL    HW187317   4.510   5.258   6.831 -0.9518 -0.5145  0.1131
60152SOL    HW287318   4.512   5.409   6.839  1.5230 -0.5188  0.3016
60153SOL     OW87319   4.240   5.415  10.978 -0.0666  0.0063  0.0429
60153SOL    HW187320   4.216   5.454  11.062  0.9682 -1.1687  0.9259
60153SOL    HW287321   4.234   5.487  10.915 -0.0643  1.1120  1.2690
60154SOL     OW87322   6.563  11.282   6.663 -0.4070  0.2131 -0.1146
60154SOL    HW187323   6.493  11.316   6.719  2.1392  0.7912  2.9960
60154SOL    HW287324   6.552  11.187   6.665 -1.7042  0.3291 -0.6211
60155SOL     OW87325   2.994   4.088   5.661 -0.1426  0.4651  0.1817
60155SOL    HW187326   2.958   4.111   5.747  0.9091  1.8309  0.2961
60155SOL    HW287327   3.084   4.062   5.679 -0.0060  0.4631 -0.4846
60156SOL     OW87328   7.090   3.564   5.136  0.1492 -0.2722  0.1525
60156SOL    HW187329   7.180   3.593   5.121  0.1460 -0.3037  0.0662
60156SOL    HW287330   7.077   3.573   5.230 -0.3697  1.5167 -0.0429
60157SOL     OW87331  11.628   6.836  11.782 -0.0811  0.0809  0.0930
60157SOL    HW187332  11.584   6.883  11.711  1.7363  0.3627 -0.9297
60157SOL    HW287333  11.607   6.887  11.861 -1.7604  0.0262 -0.2826
60158SOL     OW87334  11.032   3.947  11.246 -0.4329  0.4388 -0.1690
60158SOL    HW187335  11.071   3.967  11.161 -0.2796  0.9347  0.0164
60158SOL    HW287336  11.066   4.014  11.305  1.7933 -1.5888  0.9765
60159SOL     OW87337   2.212   5.176   9.458  0.0930 -0.3198  0.2654
60159SOL    HW187338   2.238   5.104   9.401 -1.4462 -0.4365 -0.3450
60159SOL    HW287339   2.220   5.141   9.547  1.7825 -0.3810  0.1263
60160SOL     OW87340   3.808   1.231  12.335 -0.3237  0.2453  0.1745
60160SOL    HW187341   3.805   1.152  12.388 -0.8843 -1.2999 -2.0021
60160SOL    HW287342   3.867   1.290  12.382 -0.3000 -1.2420  2.1288
60161SOL     OW87343   2.057   3.033  11.685  0.1573 -0.2183 -0.0146
60161SOL    HW187344   2.045   3.127  11.673  1.6870  0.0811  0.6631
60161SOL    HW287345   2.126   3.009  11.624 -0.7283 -1.0603 -0.7091
60162SOL     OW87346   0.378   5.809   4.572 -0.1976 -0.3152  0.1545
60162SOL    HW187347   0.388   5.818   4.667 -0.3711 -4.2969  0.7061
60162SOL    HW287348   0.466   5.825   4.538  0.0004  0.5709  1.0250
60163SOL     OW87349   6.832  10.975  11.692  0.0775 -0.1521  0.6015
60163SOL    HW187350   6.847  10.929  11.610 -0.1956 -0.7475  0.8825
60163SOL    HW287351   6.919  10.985  11.731  0.2199  0.2188  0.2027
60164SOL     OW87352   5.875   9.474   9.517  0.0005 -0.1147 -0.2903
60164SOL    HW187353   5.885   9.493   9.424  1.5502 -0.8650 -0.3112
60164SOL    HW287354   5.958   9.500   9.556 -0.6672  0.2794  0.9087
60165SOL     OW87355   0.319  11.426  10.668 -0.9937  0.2128  0.4743
60165SOL    HW187356   0.350  11.337  10.652  0.1716  0.8721 -1.2171
60165SOL    HW287357   0.395  11.472  10.703 -1.0600  0.9453 -0.2925
60166SOL     OW87358   0.116   3.398   1.479  0.0518 -0.6247 -0.4753
60166SOL    HW187359   0.026   3.430   1.475  0.2165 -0.2281 -1.1395
60166SOL    HW287360   0.166   3.459   1.425  0.7199 -0.8466 -0.1181
60167SOL     OW87361   7.390   9.780   8.787  0.2729 -0.2951 -0.2687
60167SOL    HW187362   7.373   9.790   8.693  0.1438 -0.6251 -0.2808
60167SOL    HW287363   7.484   9.767   8.793  0.5063  1.1946 -0.2302
60168SOL     OW87364   5.040   9.625   8.004  1.0435 -0.5265 -0.0124
60168SOL    HW187365   5.001   9.668   7.927 -1.7906 -0.5332  1.2971
60168SOL    HW287366   5.135   9.634   7.991  0.6457  0.6356 -2.8235
60169SOL     OW87367  11.935   7.900   7.691  0.0346 -0.2241  0.1596
60169SOL    HW187368  12.006   7.941   7.740 -0.4166 -1.4467  1.9516
60169SOL    HW287369  11.858   7.953   7.712 -0.0565 -0.4346  0.3677
60170SOL     OW87370  10.135   5.893   9.835  0.3555 -0.1529 -0.4068
60170SOL    HW187371  10.168   5.823   9.779 -1.1122 -0.8313 -0.4780
60170SOL    HW287372  10.163   5.974   9.792 -0.1030 -0.6690 -1.7286
60171SOL     OW87373  12.325   7.864   2.540 -0.1441 -0.6110 -0.4953
60171SOL    HW187374  12.289   7.899   2.458  1.5744  0.3630 -0.8872
60171SOL    HW287375  12.270   7.789   2.560 -2.3424  0.7765 -1.0462
60172SOL     OW87376   6.342   8.506   0.876  0.0769 -0.2754  0.5093
60172SOL    HW187377   6.334   8.588   0.827  1.2710 -0.5774 -0.2448
60172SOL    HW287378   6.399   8.528   0.950  0.1047 -0.3492  0.5099
60173SOL     OW87379   2.904   5.353   1.610  0.1027  0.1336  0.0141
60173SOL    HW187380   2.910   5.351   1.514  1.5353 -0.1238  0.0866
60173SOL    HW287381   2.984   5.398   1.638 -0.7483  1.0427  1.0702
60174SOL     OW87382  11.008   6.254   3.723 -0.3153  0.4971 -0.1783
60174SOL    HW187383  10.933   6.250   3.783 -0.1948  1.2823  0.0311
60174SOL    HW287384  11.060   6.177   3.745 -0.3925  0.6505  0.5768
60175SOL     OW87385   1.249  11.386   1.956 -0.0609  0.2685 -0.4777
60175SOL    HW187386   1.254  11.290   1.951  0.7091  0.3619 -2.0667
60175SOL    HW287387   1.328  11.411   2.005  1.4707  0.2200 -2.7684
60176SOL     OW87388   6.674   4.696   1.730  0.3260 -0.1350 -0.3729
60176SOL    HW187389   6.719   4.755   1.669  0.7806  0.8101  0.8404
60176SOL    HW287390   6.609   4.651   1.676  0.6392  0.7526 -1.5339
60177SOL     OW87391   6.277   4.070  12.111 -0.2693 -0.4261 -0.9135
60177SOL    HW187392   6.316   4.013  12.177  0.1167  0.3855 -0.4259
60177SOL    HW287393   6.183   4.071  12.132  0.1989  2.3544  1.6947
60178SOL     OW87394   5.040   3.822   7.227  0.3376  1.0529 -0.2479
60178SOL    HW187395   5.073   3.732   7.230 -0.7424  0.6350 -0.1987
60178SOL    HW287396   5.059   3.857   7.314 -0.3783  0.4260  0.1817
60179SOL     OW87397  11.161  10.361   0.589  0.1942 -0.1244  0.6679
60179SOL    HW187398  11.118  10.275   0.591 -2.0164  0.8900  0.0029
60179SOL    HW287399  11.249  10.343   0.555 -0.2007 -2.1099  0.5548
60180SOL     OW87400   5.270   7.473   8.957 -0.1714  0.2579 -0.9795
60180SOL    HW187401   5.277   7.520   9.040 -3.0565 -1.4018  0.3921
60180SOL    HW287402   5.283   7.539   8.890 -0.1956  2.1905  0.8245
60181SOL     OW87403   5.744   5.154   1.886 -0.3255 -0.0111  0.2698
60181SOL    HW187404   5.725   5.064   1.861  0.5973 -0.0546 -0.3341
60181SOL    HW287405   5.678   5.175   1.952 -0.7196 -1.0329  0.2231
60182SOL     OW87406   1.899   0.672   8.877 -0.0835  0.0765 -0.4404
60182SOL    HW187407   1.886   0.746   8.818  2.0449 -0.6870 -2.0030
60182SOL    HW287408   1.835   0.607   8.850 -2.1368  1.3277  1.1028
60183SOL     OW87409   6.366   0.573  10.447 -0.1565  0.2628 -1.0310
60183SOL    HW187410   6.364   0.602  10.538 -0.0830  0.7205 -1.1718
60183SOL    HW287411   6.353   0.653  10.396 -1.0714 -0.1066 -1.4018
60184SOL     OW87412   4.659   5.218   8.413  0.0770 -0.0893  0.2549
60184SOL    HW187413   4.585   5.218   8.352  0.5175 -1.2033 -0.3133
60184SOL    HW287414   4.712   5.293   8.386 -1.4985  1.5760  1.5431
60185SOL     OW87415   5.905   5.013   1.499  0.2618  0.0183 -0.7235
60185SOL    HW187416   5.974   5.077   1.487 -1.1086  1.6477 -0.2719
60185SOL    HW287417   5.854   5.017   1.419 -0.5577  0.4130 -0.1903
60186SOL     OW87418   5.152   1.726  12.441 -0.1024 -0.3255 -0.4979
60186SOL    HW187419   5.190   1.795  12.385 -0.5292  1.4340  1.2554
60186SOL    HW287420   5.162   1.760  12.530 -5.2488  0.1527  0.2121
60187SOL     OW87421  10.257   2.055   3.918 -0.1583  0.2074 -0.0621
60187SOL    HW187422  10.210   2.027   3.840 -1.3509  1.7823  0.0562
60187SOL    HW287423  10.261   1.976   3.973 -1.3200 -0.3490 -0.7425
60188SOL     OW87424   0.190   5.251   3.886 -0.0620 -0.2930  0.2142
60188SOL    HW187425   0.239   5.288   3.813 -1.1592  0.2110 -0.3017
60188SOL    HW287426   0.252   5.248   3.958  0.7961  0.0429 -0.4955
60189SOL     OW87427   7.206   7.978   7.010 -0.2739 -0.3703 -0.0246
60189SOL    HW187428   7.291   7.985   7.054  0.1024 -0.5469 -0.7167
60189SOL    HW287429   7.181   8.068   6.990 -1.4436 -0.0635  2.3699
60190SOL     OW87430  12.171   8.815   5.164  0.0729 -0.8624 -0.1701
60190SOL    HW187431  12.218   8.868   5.100 -1.8468 -0.7266 -1.5490
60190SOL    HW287432  12.151   8.733   5.118  1.3399 -2.0723  1.3070
60191SOL     OW87433   4.512   0.992   3.321 -0.5026  0.2100  0.2390
60191SOL    HW187434   4.439   1.025   3.270  0.8960 -0.3823 -2.2989
60191SOL    HW287435   4.471   0.938   3.389 -2.4384 -0.0483 -1.0607
60192SOL     OW87436  10.614   0.658   3.506  0.9520 -0.2715 -0.4509
60192SOL    HW187437  10.574   0.608   3.435  2.0550 -0.9362 -0.6219
60192SOL    HW287438  10.705   0.668   3.479  1.0696  0.6198  0.2555
60193SOL     OW87439   7.972   5.619   4.410 -0.1557 -0.0866 -0.1407
60193SOL    HW187440   7.903   5.679   4.436  1.4083  2.1678 -0.9086
60193SOL    HW287441   7.978   5.557   4.483 -1.0247  1.4096  1.2737
60194SOL     OW87442   8.622   6.468   0.101  0.0452 -0.2961 -0.0561
60194SOL    HW187443   8.700   6.417   0.079  0.7100  0.8923 -0.5529
60194SOL    HW287444   8.652   6.559   0.099 -1.0011  0.0953  1.2473
60195SOL     OW87445  10.817   4.577   1.633  0.1198  0.4880 -0.5449
60195SOL    HW187446  10.806   4.569   1.728 -0.6359 -1.4082 -0.7599
60195SOL    HW287447  10.910   4.599   1.622  0.2670  0.5261  0.6202
60196SOL     OW87448  10.610   3.464   3.922  0.7071 -0.0488  0.0329
60196SOL    HW187449  10.635   3.489   3.833 -1.5461  0.3848 -0.5566
60196SOL    HW287450  10.620   3.544   3.973 -0.6487  0.5012 -0.4995
60197SOL     OW87451  11.937   5.663   5.813 -0.1082  0.3791  0.4389
60197SOL    HW187452  11.956   5.735   5.874  0.6980  0.7498 -0.2292
60197SOL    HW287453  11.922   5.707   5.729 -0.5212 -0.1750  0.2203
60198SOL     OW87454   9.510  11.511  10.782  0.2877  0.4729  0.2058
60198SOL    HW187455   9.595  11.536  10.747  0.8257 -1.2712  0.1649
60198SOL    HW287456   9.502  11.417  10.763 -1.1677  0.3581  1.1674
60199SOL     OW87457   1.025   7.195   9.612  0.0497 -0.2372 -0.1571
60199SOL    HW187458   0.953   7.255   9.590  0.1642 -0.0032  0.0925
60199SOL    HW287459   1.009   7.172   9.704  0.8083  0.5624  0.1929
60200SOL     OW87460   1.420   4.007   3.893 -0.2091 -0.4081  0.1007
60200SOL    HW187461   1.450   4.095   3.915 -1.2733  0.7152 -2.5097
60200SOL    HW287462   1.492   3.950   3.920  1.4861  1.4981 -0.1493
60201SOL     OW87463   9.107   4.770   5.581  0.4441  0.4128  0.3522
60201SOL    HW187464   9.138   4.717   5.508  0.1966  0.6983  0.0337
60201SOL    HW287465   9.134   4.722   5.660 -0.6163 -0.6975  0.0747
60202SOL     OW87466   5.545   4.491   8.679  0.0431 -0.2997 -0.4476
60202SOL    HW187467   5.625   4.486   8.731  0.6322  1.0326 -1.1677
60202SOL    HW287468   5.544   4.581   8.646 -2.0172 -0.1346 -0.0599
60203SOL     OW87469   2.381   9.203   2.382 -0.0544 -0.1668  0.1486
60203SOL    HW187470   2.420   9.119   2.408  0.9000  0.1554 -0.1811
60203SOL    HW287471   2.300   9.208   2.432 -0.2348 -1.3759  0.0281
60204SOL     OW87472  10.149   5.777   3.004 -0.1129 -0.2255 -0.1763
60204SOL    HW187473  10.089   5.851   3.011  0.9343  0.5248  1.9617
60204SOL    HW287474  10.133   5.726   3.083  2.4841  0.4184  0.8804
60205SOL     OW87475   3.953   6.052   6.941  0.1075 -0.0362  0.9711
60205SOL    HW187476   3.948   6.093   7.027 -0.4229  1.2065  0.3872
60205SOL    HW287477   4.009   6.111   6.890 -0.0895 -0.4249  0.2944
60206SOL     OW87478   3.012   8.917   7.710  0.1126 -0.0518  0.2319
60206SOL    HW187479   3.046   8.999   7.674  0.5467  0.6234  2.0661
60206SOL    HW287480   3.086   8.857   7.707  0.6050  0.4640  1.3182
60207SOL     OW87481   3.253   0.333   8.433  0.1672  0.1027  0.3939
60207SOL    HW187482   3.213   0.399   8.376  1.9465  0.6792 -0.2460
60207SOL    HW287483   3.289   0.383   8.506  0.0486 -0.3695  0.7823
60208SOL     OW87484   4.284   6.734  11.058 -0.1700 -0.2096  0.0882
60208SOL    HW187485   4.196   6.723  11.023 -0.3585 -1.0420  0.7713
60208SOL    HW287486   4.327   6.650  11.040  0.1807 -0.1289  0.5402
60209SOL     OW87487   9.866  10.823   6.339 -0.3675 -0.0306  0.1805
60209SOL    HW187488   9.887  10.906   6.295  2.7876 -0.8780 -0.1696
60209SOL    HW287489   9.780  10.838   6.378 -1.0013  2.5596 -1.8729
60210SOL     OW87490   2.137   0.530   1.262 -0.1777  0.4953 -0.7275
60210SOL    HW187491   2.177   0.611   1.294 -3.0700  2.2671 -1.2335
60210SOL    HW287492   2.176   0.518   1.175 -0.9420  2.4144 -1.4065
60211SOL     OW87493   3.531   3.545   2.632  0.6645 -0.4024 -0.1723
60211SOL    HW187494   3.447   3.546   2.678 -0.0100 -1.1026 -1.3572
60211SOL    HW287495   3.547   3.637   2.610  0.4403 -0.2095  0.4437
60212SOL     OW87496   2.554   3.349   2.143  0.8996  0.1767  0.8953
60212SOL    HW187497   2.536   3.431   2.097 -2.9824 -1.3811 -0.8838
60212SOL    HW287498   2.540   3.370   2.235 -0.9631  1.4361  0.4009
60213SOL     OW87499   3.974   3.863   0.623 -0.2696  0.4910 -0.2177
60213SOL    HW187500   4.064   3.847   0.593 -0.1930 -0.9982  0.6588
60213SOL    HW287501   3.982   3.936   0.684  0.1735  1.0787 -0.9707
60214SOL     OW87502   8.665  12.280   6.300 -0.3785  0.1956 -0.5937
60214SOL    HW187503   8.636  12.368   6.276 -0.4269  0.0243 -1.1667
60214SOL    HW287504   8.719  12.294   6.378 -1.1661  0.6194 -0.1091
60215SOL     OW87505  10.617   4.414   9.527  0.1268 -0.0845 -0.2358
60215SOL    HW187506  10.564   4.383   9.454 -0.8801 -0.5638  0.6779
60215SOL    HW287507  10.664   4.337   9.557 -0.9193 -0.3430  0.8163
60216SOL     OW87508  11.493   0.011   6.706  0.0724 -0.1664  0.3488
60216SOL    HW187509  11.448  -0.044   6.770  0.4039 -0.0682  0.6730
60216SOL    HW287510  11.554  -0.048   6.662  0.5596 -0.0333  0.8234
60217SOL     OW87511   7.506   5.765   4.345 -0.3701 -0.4507 -0.1173
60217SOL    HW187512   7.419   5.788   4.379 -0.1991 -0.4834  0.3494
60217SOL    HW287513   7.490   5.739   4.255 -0.6848  0.6736 -0.3987
60218SOL     OW87514  11.869   4.092  10.719 -0.5240  0.3405 -0.1402
60218SOL    HW187515  11.816   4.020  10.754 -0.0291 -0.2969 -0.6613
60218SOL    HW287516  11.921   4.051  10.650  1.1496  0.8023  0.8183
60219SOL     OW87517   2.634   8.389   4.472  0.0295  0.2785 -0.1799
60219SOL    HW187518   2.718   8.370   4.514 -1.1019 -2.4142  1.0711
60219SOL    HW287519   2.631   8.332   4.396  0.0017  1.6057 -1.2019
60220SOL     OW87520   8.055   7.238   8.646 -0.2426  0.0019 -0.5839
60220SOL    HW187521   7.971   7.221   8.604 -0.0283 -0.8755 -0.6922
60220SOL    HW287522   8.111   7.166   8.616  0.2815  0.0692  0.2020
60221SOL     OW87523   8.300  11.388   2.978  0.0947 -0.0989 -0.9471
60221SOL    HW187524   8.369  11.327   3.004 -0.5072 -0.9579 -1.3283
60221SOL    HW287525   8.311  11.463   3.037 -1.0242 -1.8405  1.6578
60222SOL     OW87526   5.172   9.625   0.413  0.5528  0.3217 -0.3754
60222SOL    HW187527   5.205   9.630   0.323  1.3833 -1.5291 -0.2213
60222SOL    HW287528   5.250   9.632   0.468  0.4693 -1.6331  0.0700
60223SOL     OW87529   2.347   6.732  10.109 -0.8074 -0.5638 -0.2733
60223SOL    HW187530   2.419   6.705  10.052  0.2617 -0.4030  0.9554
60223SOL    HW287531   2.322   6.818  10.077  1.2705  0.5209  0.7878
60224SOL     OW87532   3.750   1.770   0.752 -0.1619  0.2761  0.7351
60224SOL    HW187533   3.801   1.852   0.753 -2.7303  1.9810  0.3328
60224SOL    HW287534   3.759   1.736   0.842  0.4556  1.3316  1.0918
60225SOL     OW87535   3.583  11.388   8.196  0.0333  0.0024  0.3765
60225SOL    HW187536   3.596  11.446   8.271 -0.1889 -0.6981  0.9633
60225SOL    HW287537   3.556  11.304   8.234 -0.3713 -0.2785 -0.4935
60226SOL     OW87538   9.179   3.114   8.551 -0.6092  0.2163  0.2825
60226SOL    HW187539   9.265   3.155   8.564  0.6518 -2.2103  0.2295
60226SOL    HW287540   9.168   3.111   8.456 -0.0375 -0.7240  0.2254
60227SOL     OW87541   9.618   1.133   3.241  0.2747 -0.1091  0.2088
60227SOL    HW187542   9.710   1.158   3.240  0.4007 -0.5488  0.4726
60227SOL    HW287543   9.570   1.215   3.247  0.6439  0.1354 -0.1552
60228SOL     OW87544   7.651   8.271  12.466 -0.2305 -0.1268 -0.3558
60228SOL    HW187545   7.611   8.248  12.550  0.2857 -1.5755 -0.4782
60228SOL    HW287546   7.583   8.255  12.402 -0.3148  0.0341 -0.3067
60229SOL     OW87547   4.714   8.528   8.373  0.0380  0.3467 -0.6245
60229SOL    HW187548   4.770   8.451   8.360  2.5394  2.0091 -0.3845
60229SOL    HW287549   4.685   8.521   8.464  0.0182 -0.4463 -0.6837
60230SOL     OW87550   4.256   7.561   2.382 -1.1434  0.0167 -0.1273
60230SOL    HW187551   4.319   7.619   2.339  0.3427 -1.5852 -0.2145
60230SOL    HW287552   4.309   7.489   2.416 -2.9706 -1.5993 -0.5161
60231SOL     OW87553   2.836  10.655  12.347  0.1978  0.3156 -0.1259
60231SOL    HW187554   2.781  10.591  12.302 -1.8551  0.9929  1.2602
60231SOL    HW287555   2.838  10.730  12.287  0.4874 -0.0933 -0.6376
60232SOL     OW87556   2.538   6.819   4.045 -0.3315  0.3377  0.7682
60232SOL    HW187557   2.547   6.891   4.107 -1.3690  0.5633  0.6831
60232SOL    HW287558   2.609   6.833   3.981 -0.1508  0.9284  1.0950
60233SOL     OW87559   6.633  11.112   9.989  0.4994 -0.3294 -0.4124
60233SOL    HW187560   6.701  11.066   9.940  0.2573 -0.2668 -0.8099
60233SOL    HW287561   6.575  11.146   9.922  0.1805 -0.2188 -0.0783
60234SOL     OW87562   1.904   4.361   9.233 -0.8425 -0.2081  0.3871
60234SOL    HW187563   1.965   4.427   9.200 -0.5916 -1.7771 -2.6888
60234SOL    HW287564   1.956   4.309   9.294  0.0627  0.2277  0.0084
60235SOL     OW87565   2.119   0.604   6.176  0.7419 -0.1535  0.1342
60235SOL    HW187566   2.204   0.579   6.137 -0.0313 -0.9759 -1.1040
60235SOL    HW287567   2.054   0.569   6.115 -0.4923  1.1016  0.6852
60236SOL     OW87568   1.895   8.300   4.158  0.1311  0.0171  0.3428
60236SOL    HW187569   1.893   8.379   4.105  0.4821 -0.5999 -0.6126
60236SOL    HW287570   1.903   8.228   4.095 -2.5103 -0.9696  0.9949
60237SOL     OW87571   8.266   6.277   7.294  0.5087 -0.5682 -0.2816
60237SOL    HW187572   8.306   6.341   7.236  1.2025 -0.5404  0.2157
60237SOL    HW287573   8.217   6.329   7.357  1.5027 -0.4776  0.4447
60238SOL     OW87574  11.969   8.943   4.638 -0.1529 -0.2341  0.2388
60238SOL    HW187575  12.016   8.992   4.705  1.7450  1.4270 -2.1180
60238SOL    HW287576  11.890   8.994   4.621 -0.3797 -0.3887  0.8067
60239SOL     OW87577   9.159   5.132   4.775  0.1478 -0.4867 -0.1884
60239SOL    HW187578   9.142   5.091   4.691  2.1924 -1.9621  0.0358
60239SOL    HW287579   9.238   5.088   4.808 -0.2332  0.4519  2.2228
60240SOL     OW87580  10.985  10.807  10.470 -0.4597 -0.7468  0.0418
60240SOL    HW187581  10.950  10.859  10.542  0.4585 -1.2056  0.8335
60240SOL    HW287582  11.044  10.744  10.511 -0.3035 -1.3595 -1.0597
60241SOL     OW87583   3.062   3.867   3.946 -0.0895  0.0703  0.2101
60241SOL    HW187584   3.100   3.859   3.859 -2.6892  0.0932 -0.9981
60241SOL    HW287585   3.067   3.961   3.966  1.4657 -0.0610  0.6156
60242SOL     OW87586   1.245  10.755  11.816 -0.4850  0.0492 -0.3464
60242SOL    HW187587   1.164  10.794  11.783 -1.2579 -1.0309  0.2429
60242SOL    HW287588   1.222  10.720  11.902  1.0240  1.1617  0.5741
60243SOL     OW87589   0.793   6.185  10.925 -0.1580 -0.1341 -0.4125
60243SOL    HW187590   0.880   6.225  10.921 -0.7855  1.2453 -0.6121
60243SOL    HW287591   0.735   6.256  10.951 -0.9089 -1.5621  2.1624
60244SOL     OW87592   3.724  10.527  11.396  0.2454  0.6882 -0.3201
60244SOL    HW187593   3.648  10.546  11.341 -0.3610 -0.7093 -0.0097
60244SOL    HW287594   3.731  10.432  11.395  1.1823  0.7263  0.7522
60245SOL     OW87595   9.198  11.201   7.735  0.1548  0.4386 -0.1151
60245SOL    HW187596   9.140  11.194   7.659 -0.2900  3.0871 -0.1283
60245SOL    HW287597   9.144  11.172   7.809 -0.4935  0.8727 -0.4079
60246SOL     OW87598  10.310   5.925  10.856  0.4147  0.4117  0.4671
60246SOL    HW187599  10.355   5.982  10.794  0.3851  0.2739  0.3172
60246SOL    HW287600  10.368   5.850  10.866  0.1348  0.1459  0.1290
60247SOL     OW87601   8.394  11.372   1.734 -0.3858 -0.3811 -0.1204
60247SOL    HW187602   8.426  11.447   1.785  1.3202 -0.8720 -0.4237
60247SOL    HW287603   8.419  11.393   1.644 -0.4443 -1.0355 -0.2899
60248SOL     OW87604   2.419  11.204   8.492 -0.2729 -0.5779 -0.7250
60248SOL    HW187605   2.474  11.242   8.424 -1.0613 -0.2082 -1.1731
60248SOL    HW287606   2.473  11.205   8.571  0.9409 -1.7149 -1.5010
60249SOL     OW87607   5.683   1.139  10.239 -0.2054 -0.7124  0.6497
60249SOL    HW187608   5.762   1.149  10.185 -1.8957 -0.9907 -2.0373
60249SOL    HW287609   5.674   1.223  10.284 -0.3279  0.7292 -1.8835
60250SOL     OW87610   0.731   8.397   8.139 -0.5039 -0.5720 -0.1069
60250SOL    HW187611   0.783   8.394   8.059 -0.4842 -2.8561 -0.0882
60250SOL    HW287612   0.661   8.333   8.124 -0.9313 -0.4917  1.4161
60251SOL     OW87613   1.414   0.380  10.445 -0.4747  0.9014 -0.0025
60251SOL    HW187614   1.421   0.311  10.379 -0.5403  0.7181  0.1819
60251SOL    HW287615   1.391   0.458  10.395  0.2757  0.9430 -0.2954
60252SOL     OW87616   9.766  11.017  12.323  0.3592 -0.0705  0.1785
60252SOL    HW187617   9.672  11.027  12.312  0.1601 -1.3039  0.5512
60252SOL    HW287618   9.786  10.932  12.285  1.4711  0.5253 -0.6259
60253SOL     OW87619  11.444   8.743   7.986  0.0200  0.4509  0.4024
60253SOL    HW187620  11.419   8.682   7.917  1.5405  0.3984 -0.1432
60253SOL    HW287621  11.459   8.687   8.063  0.5211  0.2342  0.1517
60254SOL     OW87622   6.595   0.454   0.468 -0.1611 -0.0368  0.6957
60254SOL    HW187623   6.517   0.508   0.456  0.1522  0.1926 -0.4721
60254SOL    HW287624   6.635   0.451   0.381  0.7231 -0.7778  1.1138
60255SOL     OW87625  11.663   8.984   6.975 -0.2798 -0.4248  0.2653
60255SOL    HW187626  11.642   8.975   7.068  1.1003 -4.5966  0.3418
60255SOL    HW287627  11.756   9.003   6.973 -0.5851  1.2461 -0.3600
60256SOL     OW87628  10.284   8.661  11.791  0.2245  0.4794  0.2051
60256SOL    HW187629  10.350   8.595  11.812 -0.5549  0.5444  3.3853
60256SOL    HW287630  10.202   8.612  11.786  0.1228  0.7455 -1.2183
60257SOL     OW87631   3.992   1.790   3.207  0.6261  0.1646 -0.0618
60257SOL    HW187632   3.993   1.833   3.121 -0.0302 -1.9751 -1.2174
60257SOL    HW287633   4.077   1.812   3.245  0.7305  1.5933 -1.0091
60258SOL     OW87634  10.104   6.690   3.045  0.0108  0.0768  0.5579
60258SOL    HW187635  10.009   6.700   3.054  0.1774  2.7076  0.3118
60258SOL    HW287636  10.116   6.659   2.955 -0.6182 -0.3358  0.6111
60259SOL     OW87637   3.203  10.412   4.400 -0.4353 -0.6405  0.3805
60259SOL    HW187638   3.166  10.449   4.320  0.4762 -0.2720  0.1184
60259SOL    HW287639   3.289  10.454   4.409 -0.5447 -0.6293  1.5855
60260SOL     OW87640   8.413  10.201  10.976 -0.3548 -0.1185 -0.0781
60260SOL    HW187641   8.478  10.202  10.905 -1.3627  0.4238 -1.0152
60260SOL    HW287642   8.455  10.151  11.045  1.7249  1.5377 -0.0339
60261SOL     OW87643   5.533   9.696   6.262  0.0809 -0.6912  0.7073
60261SOL    HW187644   5.452   9.695   6.211 -0.1126  0.5047  0.9583
60261SOL    HW287645   5.592   9.750   6.210  0.8401 -1.8199  0.3691
60262SOL     OW87646   1.647   2.562   2.514 -0.0014 -0.5227 -0.0876
60262SOL    HW187647   1.585   2.555   2.586  0.0429  0.8030  0.1103
60262SOL    HW287648   1.717   2.617   2.548 -1.0658  2.1371 -1.7803
60263SOL     OW87649   5.523   5.849   4.397 -0.2870  0.2150 -0.7697
60263SOL    HW187650   5.474   5.778   4.438 -0.9869  0.4820 -1.1197
60263SOL    HW287651   5.457   5.917   4.381  0.5046  1.2435  0.2161
60264SOL     OW87652   1.589   9.270   2.815 -0.0818  0.0336  0.3168
60264SOL    HW187653   1.604   9.197   2.876  0.7854  0.5859  0.7879
60264SOL    HW287654   1.650   9.337   2.844 -0.3341  0.6637 -0.5958
60265SOL     OW87655  11.269   7.918  12.479  0.0052  0.3924 -0.4865
60265SOL    HW187656  11.195   7.965  12.441  0.1387  3.0241  2.2103
60265SOL    HW287657  11.239   7.827  12.486 -2.6884  1.2506 -0.1341
60266SOL     OW87658   2.270  11.316   8.777  0.1033 -0.1002 -0.5526
60266SOL    HW187659   2.251  11.386   8.714  0.8586 -0.5355 -1.2844
60266SOL    HW287660   2.336  11.262   8.733 -0.9933 -1.6921 -0.3047
60267SOL     OW87661   2.008   5.058   2.474  0.0171  0.2349  0.0602
60267SOL    HW187662   2.012   5.076   2.568 -2.4098  1.4328  0.0354
60267SOL    HW287663   1.975   4.969   2.468 -0.1376  0.2712  0.3524
60268SOL     OW87664   0.328   3.783   2.775  0.4252  0.3020  0.5274
60268SOL    HW187665   0.399   3.836   2.811  0.5695  0.1292  0.4974
60268SOL    HW287666   0.371   3.722   2.715  0.2988 -0.0579  0.7961
60269SOL     OW87667   2.603   6.474   3.534  0.4668 -0.0330  0.5809
60269SOL    HW187668   2.679   6.450   3.481 -0.3466 -1.8097  0.1333
60269SOL    HW287669   2.527   6.451   3.480 -0.4408  2.2880  0.7553
60270SOL     OW87670   5.383  11.530   9.503  0.4347  0.3887 -0.1131
60270SOL    HW187671   5.312  11.567   9.556  0.7752  0.0880  0.5641
60270SOL    HW287672   5.455  11.592   9.513  0.4162  0.4629 -0.4369
60271SOL     OW87673  11.541   8.838  11.637  0.6462  0.7210  1.0706
60271SOL    HW187674  11.469   8.896  11.661  0.0769  0.1280  0.8132
60271SOL    HW287675  11.570   8.870  11.551 -1.1483 -0.7303 -0.1360
60272SOL     OW87676   9.359   8.315  11.786 -0.1556 -0.5164 -0.7589
60272SOL    HW187677   9.395   8.398  11.816 -2.4078 -0.2559  1.5974
60272SOL    HW287678   9.333   8.332  11.695  1.5694  0.5727 -1.0835
60273SOL     OW87679   6.373   2.750   2.148 -0.3846 -0.4654  0.5440
60273SOL    HW187680   6.326   2.829   2.173 -0.2090  0.3718 -1.5736
60273SOL    HW287681   6.464   2.778   2.138 -0.4916 -0.6524 -1.2288
60274SOL     OW87682   8.962   7.991   8.533  0.3063  0.1994  0.1746
60274SOL    HW187683   9.033   7.928   8.544  0.5996  0.7200  1.4976
60274SOL    HW287684   8.978   8.057   8.602 -0.9159  0.8265 -0.1179
60275SOL     OW87685   9.313  10.794  10.584 -0.7904  0.4023  0.1432
60275SOL    HW187686   9.358  10.821  10.665  0.3013 -1.2347  0.1220
60275SOL    HW287687   9.376  10.814  10.515 -0.5841 -0.7157 -0.0129
60276SOL     OW87688   1.303   8.394  11.958  0.0793 -0.9297 -0.2897
60276SOL    HW187689   1.392   8.427  11.975  0.3713 -1.8509  0.0363
60276SOL    HW287690   1.284   8.422  11.868  0.2402  0.2674  0.0399
60277SOL     OW87691   1.197   8.635   9.520  0.3484 -0.1977 -0.2065
60277SOL    HW187692   1.227   8.566   9.579  0.6200 -1.6477 -1.9514
60277SOL    HW287693   1.152   8.588   9.450  1.0423  1.3436 -1.7502
60278SOL     OW87694   6.465   3.537   6.619  0.2439  0.0447 -0.0095
60278SOL    HW187695   6.389   3.480   6.604 -0.9438  1.7147 -0.6217
60278SOL    HW287696   6.450   3.572   6.707 -0.9038  2.0374 -0.9297
60279SOL     OW87697   3.555   3.527   5.748 -0.4320  0.2853  0.1346
60279SOL    HW187698   3.617   3.558   5.814  0.9990 -0.2336 -0.9011
60279SOL    HW287699   3.510   3.605   5.718 -0.8831  0.5682  1.4866
60280SOL     OW87700  10.162   6.065   3.855  0.1033 -0.0906  0.6898
60280SOL    HW187701  10.191   6.101   3.939  0.8391  3.0993 -0.7956
60280SOL    HW287702  10.179   6.134   3.792  0.7255 -2.7977 -2.3721
60281SOL     OW87703   7.702   1.944   8.629  0.5732 -0.1993 -0.2725
60281SOL    HW187704   7.628   1.936   8.690  0.2691 -0.7109 -0.6954
60281SOL    HW287705   7.672   1.898   8.550  1.1882 -0.0538 -0.5928
60282SOL     OW87706   9.906   3.375  11.067 -0.6097  0.0926 -0.3061
60282SOL    HW187707   9.924   3.341  11.154 -0.8139  1.0973  0.1385
60282SOL    HW287708   9.990   3.370  11.021 -0.5200 -0.4984 -0.0779
60283SOL     OW87709   6.156   6.123   6.502  0.0837  0.3359 -0.2332
60283SOL    HW187710   6.116   6.037   6.510  0.6697  0.0955  0.1965
60283SOL    HW287711   6.212   6.117   6.425  0.2845  0.2655 -0.0825
60284SOL     OW87712   5.624   4.462   2.626  0.5725  0.0746 -0.4780
60284SOL    HW187713   5.585   4.412   2.698  0.6959 -1.5467 -1.4816
60284SOL    HW287714   5.688   4.402   2.587  0.6240  0.9702 -1.8336
60285SOL     OW87715  12.281   7.283   9.179  0.0543 -0.0409  0.3061
60285SOL    HW187716  12.300   7.300   9.087  0.9618  0.8742  0.6522
60285SOL    HW287717  12.203   7.227   9.177  1.0932 -1.5079 -1.0597
60286SOL     OW87718  11.184  11.174   8.145 -0.1250  0.5424  0.1083
60286SOL    HW187719  11.198  11.239   8.076 -0.0459 -0.6354 -1.0282
60286SOL    HW287720  11.097  11.192   8.179 -0.7381  0.2979 -1.2735
60287SOL     OW87721   9.825   3.327   9.096  0.0063 -0.2603  0.0565
60287SOL    HW187722   9.886   3.373   9.154 -0.4876 -0.4455  0.7393
60287SOL    HW287723   9.740   3.365   9.116 -0.1436 -0.1801 -0.7094
60288SOL     OW87724   7.785   3.482   6.946 -0.0912  0.3421  0.1887
60288SOL    HW187725   7.743   3.417   6.889 -1.7225  1.7456 -0.3039
60288SOL    HW287726   7.863   3.509   6.898 -0.9719  0.8574 -0.9912
60289SOL     OW87727   3.693  10.738   2.874 -0.2122 -0.0770 -0.3477
60289SOL    HW187728   3.696  10.642   2.868 -0.4797 -0.0574 -0.8361
60289SOL    HW287729   3.770  10.761   2.927 -0.7748 -0.6298  0.7391
60290SOL     OW87730   8.154   0.915   7.867  0.0257  0.6254  0.0014
60290SOL    HW187731   8.220   0.968   7.912  0.9348  0.4748 -1.1104
60290SOL    HW287732   8.102   0.877   7.938  0.4344  1.6238  0.8685
60291SOL     OW87733   8.633   9.733   3.173 -0.1214 -0.4728  0.0782
60291SOL    HW187734   8.677   9.699   3.095  0.0480 -0.4022  0.1423
60291SOL    HW287735   8.696   9.720   3.244 -0.7737 -1.7259  0.4522
60292SOL     OW87736   1.706   6.759   7.100  0.1644  0.8820 -0.1153
60292SOL    HW187737   1.715   6.695   7.030 -1.3992 -0.5132  0.8775
60292SOL    HW287738   1.788   6.808   7.099  0.8116 -0.1586 -1.8496
60293SOL     OW87739   2.057   6.797   4.982 -0.7042  0.0860  0.7443
60293SOL    HW187740   2.063   6.834   4.894 -1.8765 -0.9657  0.1972
60293SOL    HW287741   1.965   6.776   4.994 -0.7583  1.1837  2.6596
60294SOL     OW87742   0.065  11.537   7.399  0.2103  0.1309  0.4928
60294SOL    HW187743   0.093  11.518   7.489  2.7212  2.3008  0.2833
60294SOL    HW287744   0.131  11.495   7.344 -0.8849 -0.5275 -0.3609
60295SOL     OW87745   3.312  11.158   9.747  0.0642  0.2427 -0.1846
60295SOL    HW187746   3.246  11.164   9.678 -0.2837 -1.2129 -0.0136
60295SOL    HW287747   3.357  11.242   9.745 -2.1815  1.5356  0.1110
60296SOL     OW87748   8.094   7.520  10.188  0.3540 -0.1803 -0.1651
60296SOL    HW187749   8.128   7.603  10.154  1.6189 -0.5090  0.2408
60296SOL    HW287750   8.146   7.453  10.144 -0.1774 -0.7379  0.0394
60297SOL     OW87751   4.258   1.887   0.164 -0.0787 -0.1235 -0.3850
60297SOL    HW187752   4.246   1.845   0.079  0.3582 -2.1282  0.4978
60297SOL    HW287753   4.180   1.862   0.214 -0.3397  1.0472 -0.1695
60298SOL     OW87754   3.306   5.589  10.924 -0.0138 -0.2859  0.6300
60298SOL    HW187755   3.324   5.642  10.847  1.7773 -2.3785 -0.4895
60298SOL    HW287756   3.225   5.627  10.960  0.2125  2.0299 -1.0578
60299SOL     OW87757  11.684   3.335  10.645  0.1224 -0.1406  0.4660
60299SOL    HW187758  11.674   3.424  10.680  0.8858  0.0179  0.3076
60299SOL    HW287759  11.758   3.342  10.585 -0.4028 -0.6787 -0.2620
60300SOL     OW87760  12.313   8.638   4.789 -0.3475 -0.5556  0.5460
60300SOL    HW187761  12.227   8.603   4.764 -0.2966  0.4025 -1.0745
60300SOL    HW287762  12.375   8.596   4.729  0.1931 -0.4999  1.0587
60301SOL     OW87763   4.430   1.061   1.393 -0.2113 -0.2010 -0.1313
60301SOL    HW187764   4.342   1.065   1.354 -1.5532  0.2551  2.7007
60301SOL    HW287765   4.478   1.131   1.350 -2.1339  1.4142  0.1758
60302SOL     OW87766   3.272   0.068   0.895 -0.1303 -0.0308 -0.7247
60302SOL    HW187767   3.327   0.141   0.866 -0.4828  0.8692  0.7364
60302SOL    HW287768   3.266   0.079   0.990 -0.7316 -1.6000 -0.5496
60303SOL     OW87769   6.663   9.751   0.262 -0.1015  0.2496  0.3896
60303SOL    HW187770   6.713   9.697   0.200 -0.4981  1.2562 -0.8480
60303SOL    HW287771   6.608   9.688   0.309 -0.5070 -0.4524 -0.9652
60304SOL     OW87772   6.531   6.398   4.510  0.4759  0.4412  0.2751
60304SOL    HW187773   6.519   6.312   4.550  0.4790  0.2294 -0.1641
60304SOL    HW287774   6.612   6.431   4.548  0.5822  0.1583  0.2976
60305SOL     OW87775   3.929   6.342   4.814 -0.0823 -0.0282  0.1208
60305SOL    HW187776   3.995   6.365   4.880 -0.4153  1.2878  0.0092
60305SOL    HW287777   3.848   6.381   4.847 -0.5304 -0.5114 -0.4048
60306SOL     OW87778   1.346   0.700  10.904 -0.0655  0.7099  0.1434
60306SOL    HW187779   1.408   0.647  10.955  0.5107  0.4495 -0.8088
60306SOL    HW287780   1.374   0.690  10.813 -2.0839 -0.1731 -0.4308
60307SOL     OW87781  11.118   7.240   5.261  0.8032 -0.2400 -0.2201
60307SOL    HW187782  11.185   7.293   5.219 -0.1101  0.7484 -0.4703
60307SOL    HW287783  11.086   7.293   5.334 -1.1086  0.2132 -1.3174
60308SOL     OW87784   4.851   8.278   6.626 -0.6200  0.1240 -0.0406
60308SOL    HW187785   4.889   8.327   6.698 -0.0501  0.0827 -0.3064
60308SOL    HW287786   4.830   8.344   6.560 -2.5322  0.3541  0.7321
60309SOL     OW87787  10.138   5.784  11.315  0.2866 -0.2927  0.2213
60309SOL    HW187788  10.077   5.784  11.388 -0.0236  1.0047 -0.0156
60309SOL    HW287789  10.195   5.859  11.332 -0.1597  0.3891 -1.1559
60310SOL     OW87790  12.429   6.520   4.199  0.4574 -0.1963 -0.3682
60310SOL    HW187791  12.500   6.575   4.164  0.8960  1.3757  2.6976
60310SOL    HW287792  12.474   6.452   4.249 -0.1139  0.8072  1.5970
60311SOL     OW87793  11.531   8.965   2.015 -0.1890 -0.1357  0.2570
60311SOL    HW187794  11.562   8.974   1.925  0.3102 -1.4193  0.2836
60311SOL    HW287795  11.499   9.052   2.038  1.8472  0.8104 -0.3373
60312SOL     OW87796   2.947   1.176   0.808  0.3615  0.1378  0.5082
60312SOL    HW187797   2.882   1.113   0.838 -0.1058 -0.6576 -1.9744
60312SOL    HW287798   2.898   1.257   0.794  0.1213 -0.1281 -0.2249
60313SOL     OW87799   9.351   8.245   3.840 -0.8840  0.2017 -0.1937
60313SOL    HW187800   9.340   8.267   3.932 -1.1383 -0.5090 -0.0513
60313SOL    HW287801   9.353   8.330   3.795 -2.2897  0.5202  0.2893
60314SOL     OW87802  10.403   4.856   9.704  0.1275 -0.0936  0.3388
60314SOL    HW187803  10.399   4.900   9.619 -2.6236 -0.3175  0.2680
60314SOL    HW287804  10.426   4.765   9.684 -1.9382 -0.5139 -0.4147
60315SOL     OW87805   0.356   7.992  12.323 -0.3090 -0.2291  0.2122
60315SOL    HW187806   0.325   8.061  12.383 -1.0044 -1.0256  0.7924
60315SOL    HW287807   0.415   7.939  12.377  0.7628  0.2925 -0.4222
60316SOL     OW87808   1.141   1.023   0.334 -0.0629  0.7313  0.2118
60316SOL    HW187809   1.132   0.932   0.305 -0.5684  0.3497  1.4874
60316SOL    HW287810   1.088   1.073   0.273  0.6297  0.2575 -0.8223
60317SOL     OW87811   3.200   1.775   8.292  0.1395  0.5037 -0.2924
60317SOL    HW187812   3.196   1.696   8.347 -0.3644 -1.2721 -2.6809
60317SOL    HW287813   3.109   1.792   8.268  0.1812  2.2341  0.6722
60318SOL     OW87814   1.267   3.923   8.742  0.2295 -0.2875  0.4849
60318SOL    HW187815   1.210   3.993   8.710  1.0326  0.1983  0.0852
60318SOL    HW287816   1.342   3.969   8.781  1.7598 -0.8947 -1.5795
60319SOL     OW87817  12.448   4.282   0.347 -0.0309 -0.1134  0.0104
60319SOL    HW187818  12.464   4.376   0.333 -0.9481 -0.2512 -2.4521
60319SOL    HW287819  12.533   4.247   0.373  0.3990  1.3339  0.6819
60320SOL     OW87820   2.256  11.552  10.599  0.3042 -0.4265 -0.4149
60320SOL    HW187821   2.329  11.613  10.593  0.8798 -1.2143 -2.4499
60320SOL    HW287822   2.192  11.595  10.656  3.0875 -0.5486  3.1279
60321SOL     OW87823   4.653   0.280  11.106  0.5429 -0.0246 -0.4368
60321SOL    HW187824   4.709   0.305  11.033  1.8301  1.0368  0.8559
60321SOL    HW287825   4.686   0.330  11.180 -3.0108  1.8003  0.1403
60322SOL     OW87826   4.874   7.751  11.539  0.1308  0.2958  0.2835
60322SOL    HW187827   4.893   7.787  11.452 -0.3488 -1.1349 -0.4533
60322SOL    HW287828   4.799   7.801  11.571 -0.9736 -0.4608 -1.0158
60323SOL     OW87829   5.582   2.935   0.858  0.5041  0.5304 -0.7973
60323SOL    HW187830   5.645   2.978   0.801 -0.6918  0.3325 -2.3240
60323SOL    HW287831   5.595   2.842   0.843  0.6461  0.4525 -0.2194
60324SOL     OW87832   6.600   0.724   7.175 -0.3088 -0.0267 -0.1571
60324SOL    HW187833   6.545   0.671   7.232 -0.0706 -0.0961  0.0122
60324SOL    HW287834   6.554   0.807   7.167 -1.2402 -0.6224 -1.3074
60325SOL     OW87835   4.190   8.464   9.715  0.1979  0.4978  0.4015
60325SOL    HW187836   4.219   8.372   9.720  0.7856  0.6849  0.4849
60325SOL    HW287837   4.145   8.479   9.799  0.5628  0.4382  0.6104
60326SOL     OW87838   3.716   2.000   8.459 -0.0866  0.7687  0.0912
60326SOL    HW187839   3.646   1.976   8.398 -0.5941  2.6547 -0.1213
60326SOL    HW287840   3.746   1.916   8.495 -2.4373 -0.1145  0.1738
60327SOL     OW87841   5.064   7.721   2.703  0.1137 -0.9510 -0.0716
60327SOL    HW187842   4.998   7.787   2.726 -0.5680 -1.1779 -1.3095
60327SOL    HW287843   5.052   7.707   2.609  1.8353 -1.1099 -0.2934
60328SOL     OW87844   1.148   8.168   0.142 -0.3457 -0.0662 -0.2003
60328SOL    HW187845   1.224   8.211   0.180  1.8564 -2.6138 -1.4107
60328SOL    HW287846   1.142   8.204   0.053 -1.2141  0.8276  0.1972
60329SOL     OW87847   9.495   9.687   0.396 -0.3338 -0.3860 -0.0717
60329SOL    HW187848   9.531   9.627   0.462  0.7294 -0.6835 -0.8876
60329SOL    HW287849   9.555   9.761   0.395 -0.8962  0.0765 -0.0187
60330SOL     OW87850  12.290  10.954  10.644  0.8969  0.4405  0.3123
60330SOL    HW187851  12.236  10.909  10.579 -0.6304  1.0663  1.0943
60330SOL    HW287852  12.272  11.047  10.628  0.6603  0.6053  1.4688
60331SOL     OW87853   6.632   2.682   1.560  0.2268  0.0891 -0.0030
60331SOL    HW187854   6.615   2.592   1.530 -0.1765 -0.0779  0.6970
60331SOL    HW287855   6.589   2.737   1.494  0.0790 -0.2410 -0.1910
60332SOL     OW87856  10.815  11.662   9.777  0.0846 -0.3964 -0.3366
60332SOL    HW187857  10.768  11.743   9.796 -2.2850 -1.6563 -0.4346
60332SOL    HW287858  10.890  11.663   9.837 -0.8950  1.0361  0.9457
60333SOL     OW87859   0.889   7.628   4.545 -0.1993  0.0094 -0.0896
60333SOL    HW187860   0.823   7.576   4.498 -1.4814 -0.0688  1.7107
60333SOL    HW287861   0.838   7.692   4.594  1.0714 -0.0976  1.4271
60334SOL     OW87862   8.022   8.482   6.949 -0.1318  0.2046  0.1120
60334SOL    HW187863   8.009   8.390   6.975  0.7701  0.0583  0.0626
60334SOL    HW287864   8.084   8.478   6.877 -1.3741  0.7410 -1.0209
60335SOL     OW87865   3.381   7.333   7.917 -0.1979  0.1611  0.3441
60335SOL    HW187866   3.319   7.284   7.864  0.5270  0.0870 -0.4505
60335SOL    HW287867   3.337   7.416   7.936 -1.0339 -0.3833  0.8596
60336SOL     OW87868   8.885   3.533   5.901 -0.4782 -0.2767 -0.6042
60336SOL    HW187869   8.837   3.456   5.933 -1.3753  0.4947 -0.0534
60336SOL    HW287870   8.819   3.601   5.893 -0.2547 -0.2967 -3.8759
60337SOL     OW87871   2.682   5.389  11.156 -0.4941  0.2004 -0.1185
60337SOL    HW187872   2.758   5.339  11.185 -0.2879  1.3419  1.4454
60337SOL    HW287873   2.699   5.478  11.186 -2.4049  0.5063  0.1863
60338SOL     OW87874   3.994   8.980   5.151 -0.1513  0.3170 -0.4476
60338SOL    HW187875   3.956   8.997   5.238  1.1583  0.7579  0.0664
60338SOL    HW287876   3.981   8.887   5.137  1.1821 -0.1512  1.0577
60339SOL     OW87877  11.290  12.447   5.824 -0.0897 -0.0475  0.3356
60339SOL    HW187878  11.305  12.394   5.746 -0.1004  1.1788 -0.5248
60339SOL    HW287879  11.202  12.483   5.813  0.0188  0.3701  0.7627
60340SOL     OW87880  10.678   4.710   4.936  0.2165 -0.4757  0.1572
60340SOL    HW187881  10.617   4.773   4.898 -0.7172 -1.5268 -0.1643
60340SOL    HW287882  10.625   4.630   4.948  0.9224 -0.7254  2.0134
60341SOL     OW87883   8.394   2.763  10.430 -0.1550 -0.1623 -0.0589
60341SOL    HW187884   8.474   2.716  10.407  0.5543  0.0558  1.8601
60341SOL    HW287885   8.327   2.695  10.438 -0.3845 -0.2894 -2.2927
60342SOL     OW87886   2.169   6.810  12.283  0.8374 -0.5289  0.0796
60342SOL    HW187887   2.077   6.832  12.271  1.4121  1.9078 -0.4675
60342SOL    HW287888   2.182   6.731  12.231 -0.8581 -0.6941 -0.1325
60343SOL     OW87889   2.548   8.784   5.502 -0.4742 -0.3366 -0.1791
60343SOL    HW187890   2.544   8.801   5.596  0.4756 -2.6295  0.3500
60343SOL    HW287891   2.457   8.770   5.476 -0.9317  1.8702 -0.0060
60344SOL     OW87892   0.988   5.725   0.747 -0.2504 -0.2085 -0.2571
60344SOL    HW187893   0.912   5.708   0.802 -0.7261  1.6888 -0.2613
60344SOL    HW287894   0.951   5.739   0.660 -0.0178  1.5405 -0.1035
60345SOL     OW87895   2.735   4.126   2.549  0.3129 -0.4558  0.8666
60345SOL    HW187896   2.757   4.033   2.561  1.7104 -0.1694  0.6886
60345SOL    HW287897   2.700   4.130   2.460  1.9771 -0.5631  0.1524
60346SOL     OW87898   9.312  10.676   7.572 -0.3813  0.2235  0.0642
60346SOL    HW187899   9.369  10.695   7.498 -1.5665 -0.4697 -1.0493
60346SOL    HW287900   9.239  10.738   7.563  0.0101  0.9274  1.3301
60347SOL     OW87901  11.705   6.809   6.604  0.3699  0.5109  0.5550
60347SOL    HW187902  11.614   6.830   6.582  0.4543  0.3702  0.0547
60347SOL    HW287903  11.753   6.890   6.583  0.2172  0.9568  1.8311
60348SOL     OW87904   6.303   9.712   8.777 -0.0294  0.1767  0.4628
60348SOL    HW187905   6.221   9.664   8.790  0.5310 -0.7836  0.6078
60348SOL    HW287906   6.324   9.747   8.864 -0.0429  0.0185  0.5299
60349SOL     OW87907   1.729   8.947   7.139 -0.1839 -0.3281  0.9511
60349SOL    HW187908   1.766   8.860   7.155  0.6851  0.1418  1.5613
60349SOL    HW287909   1.638   8.940   7.167  0.3872 -0.5056  2.9365
60350SOL     OW87910   8.659   0.076   7.826 -0.1930  0.6308 -0.0225
60350SOL    HW187911   8.647   0.062   7.920 -0.2334 -0.7734 -0.2294
60350SOL    HW287912   8.604   0.152   7.806 -1.1233  0.2086  0.8621
60351SOL     OW87913   4.262   6.989   5.444  0.2138 -0.1893 -0.2236
60351SOL    HW187914   4.270   7.042   5.364  0.8471 -0.3885 -0.3010
60351SOL    HW287915   4.264   7.054   5.515 -0.1802 -0.0250 -0.3593
60352SOL     OW87916   9.298   3.096   5.371 -0.3842  0.2566 -0.1955
60352SOL    HW187917   9.372   3.054   5.329  0.7494 -0.4254  2.3059
60352SOL    HW287918   9.222   3.043   5.347  0.5501 -1.3764  0.3596
60353SOL     OW87919   4.662   6.248   9.173 -0.2662 -0.2828 -0.3711
60353SOL    HW187920   4.570   6.273   9.170 -0.6083 -1.5995 -1.4729
60353SOL    HW287921   4.700   6.304   9.241 -2.0710 -0.3773  0.7642
60354SOL     OW87922   6.315   2.495  11.144 -0.3093 -0.0472 -0.1175
60354SOL    HW187923   6.220   2.500  11.141 -0.4564  0.0109  2.5853
60354SOL    HW287924   6.344   2.582  11.116 -1.1933  0.8398  1.5946
60355SOL     OW87925   8.398  11.139  12.261 -0.4107  0.0799  0.5199
60355SOL    HW187926   8.386  11.065  12.320 -2.1752  1.4817  2.0678
60355SOL    HW287927   8.323  11.197  12.280  1.0393  2.3875 -0.3703
60356SOL     OW87928  11.548   1.251   1.021  0.1497  0.1631  0.1022
60356SOL    HW187929  11.534   1.157   1.033  0.6819 -0.0230 -0.6307
60356SOL    HW287930  11.530   1.266   0.928 -1.6168  1.1163  0.5583
60357SOL     OW87931  11.550   8.723   5.044  0.2157 -0.1447  0.5579
60357SOL    HW187932  11.553   8.713   5.139  3.6537  0.0568  0.6034
60357SOL    HW287933  11.599   8.803   5.026  0.7985 -0.8653 -1.4265
60358SOL     OW87934   3.346   3.038   6.424 -0.0315 -0.1713 -0.1684
60358SOL    HW187935   3.254   3.023   6.445  0.2433  1.3799  2.5832
60358SOL    HW287936   3.345   3.070   6.333 -2.4479  1.6743  0.4024
60359SOL     OW87937   4.202   6.390   8.410 -0.5074 -0.1338 -0.0261
60359SOL    HW187938   4.111   6.415   8.390 -0.3695  1.2100  0.8743
60359SOL    HW287939   4.254   6.438   8.346 -0.2305  2.1724  1.7948
60360SOL     OW87940  11.079   7.173  11.668 -0.0445  0.3290 -0.6076
60360SOL    HW187941  11.093   7.080  11.689 -0.3973  0.5841  0.8488
60360SOL    HW287942  11.105   7.220  11.747 -1.7126  1.3392 -0.6244
60361SOL     OW87943   1.864   5.806   2.571  0.1521 -0.0890  0.1364
60361SOL    HW187944   1.794   5.784   2.509  0.9191  1.1113 -1.2043
60361SOL    HW287945   1.941   5.760   2.537 -0.1783 -2.5995  2.3893
60362SOL     OW87946   3.408   4.776   6.381  0.1065  0.1020 -0.0711
60362SOL    HW187947   3.328   4.727   6.364  0.7800 -0.1361 -3.1717
60362SOL    HW287948   3.425   4.762   6.474 -2.8530 -0.6738  0.4718
60363SOL     OW87949   2.538  10.434  10.679  0.3191 -0.9383  0.5057
60363SOL    HW187950   2.525  10.361  10.619  2.1678 -0.0171 -1.1325
60363SOL    HW287951   2.481  10.504  10.645 -1.9500 -1.6863  2.4407
60364SOL     OW87952   1.917   6.182  11.305  0.2646 -0.3027 -0.9566
60364SOL    HW187953   1.848   6.142  11.357  0.4449 -0.0618 -0.5287
60364SOL    HW287954   1.982   6.113  11.292  1.4601  0.2762  1.3142
60365SOL     OW87955   4.273  12.072  11.253  0.1766 -0.6111  0.0143
60365SOL    HW187956   4.357  12.030  11.237  0.1295 -0.4808 -0.6137
60365SOL    HW287957   4.266  12.139  11.185 -0.0327 -0.0101  0.6112
60366SOL     OW87958   7.642   1.796   9.019 -0.0907  0.1274  0.4204
60366SOL    HW187959   7.666   1.884   9.047  0.4029 -0.2595  1.2467
60366SOL    HW287960   7.603   1.756   9.097 -0.0132 -0.4949  0.1440
60367SOL     OW87961   1.918  12.423  11.877 -0.1049  0.3977  0.1827
60367SOL    HW187962   1.876  12.509  11.882 -1.0410  0.0746 -1.4643
60367SOL    HW287963   1.997  12.439  11.824 -0.1545  0.2904  0.0770
60368SOL     OW87964   1.145   5.319   1.145  0.7984 -0.3072  0.0029
60368SOL    HW187965   1.178   5.402   1.111  2.5400 -1.3498 -0.9856
60368SOL    HW287966   1.218   5.282   1.194  0.4979 -1.8326 -0.6573
60369SOL     OW87967  10.755  11.275  10.038 -0.0187  0.7935 -0.4145
60369SOL    HW187968  10.729  11.187  10.011 -1.3421  0.7934  0.7671
60369SOL    HW287969  10.779  11.318   9.956  0.1945 -0.5021 -1.0684
60370SOL     OW87970  10.262   4.444   9.741 -0.7740  0.6343 -0.4296
60370SOL    HW187971  10.299   4.357   9.731 -1.8470  0.1735 -0.4906
60370SOL    HW287972  10.233   4.469   9.653 -3.4383 -0.3323  0.0954
60371SOL     OW87973   4.145   6.300  11.094  0.6139 -0.2242 -0.6902
60371SOL    HW187974   4.097   6.353  11.157  1.7682  1.3902 -1.1228
60371SOL    HW287975   4.077   6.253  11.045 -0.3489 -0.3297  0.7147
60372SOL     OW87976  11.755   4.629  11.855 -0.1827  0.0656 -0.7583
60372SOL    HW187977  11.811   4.700  11.887 -0.3607  0.5536 -1.5108
60372SOL    HW287978  11.810   4.583  11.791 -0.0459 -0.5246 -0.2287
60373SOL     OW87979  11.732   2.256   4.707 -0.3525 -0.7308  0.5388
60373SOL    HW187980  11.817   2.263   4.751 -1.3357  0.3718  2.3882
60373SOL    HW287981  11.693   2.343   4.716 -2.2383 -1.5698  0.9561
60374SOL     OW87982   8.701   5.052   9.801 -0.0028  0.3856 -0.2234
60374SOL    HW187983   8.619   5.091   9.773 -1.0944  0.0722  2.2754
60374SOL    HW287984   8.755   5.127   9.830  0.6610  0.5931 -1.8904
60375SOL     OW87985   0.951   6.311   9.761 -0.4332 -0.5622 -0.2111
60375SOL    HW187986   0.881   6.318   9.696 -0.8760 -1.7457  0.1173
60375SOL    HW287987   0.906   6.308   9.845  0.0333 -0.8199  0.0386
60376SOL     OW87988   7.460   5.750  11.499  0.3400  0.3769 -0.1107
60376SOL    HW187989   7.471   5.806  11.575  1.2626  0.6905 -0.4666
60376SOL    HW287990   7.542   5.758  11.450 -0.1760  0.0681 -1.0605
60377SOL     OW87991   8.416   7.978   7.614  0.2587 -0.9160 -0.1136
60377SOL    HW187992   8.392   8.066   7.644 -1.1650 -0.5958 -2.0148
60377SOL    HW287993   8.335   7.928   7.618  0.9835 -2.0627  0.6004
60378SOL     OW87994   0.661   9.355   8.686 -0.1542 -0.7497 -0.0616
60378SOL    HW187995   0.718   9.381   8.613  1.2345 -2.1130  0.5015
60378SOL    HW287996   0.691   9.268   8.710 -0.1167 -0.0630  2.6214
60379SOL     OW87997  10.444   2.926   3.183 -0.0611 -0.6793 -0.0441
60379SOL    HW187998  10.409   2.846   3.144 -1.5386 -0.0988  0.0161
60379SOL    HW287999  10.527   2.941   3.138 -1.2280 -0.5821 -2.2774
60380SOL     OW88000   9.247   8.067   4.982 -0.3748 -0.4711 -0.0040
60380SOL    HW188001   9.272   7.991   5.035  0.8759  0.4548  0.7948
60380SOL    HW288002   9.328   8.119   4.975 -0.7318 -0.1389 -2.1266
60381SOL     OW88003   7.277   1.622   6.395 -0.2589 -0.2716 -0.4723
60381SOL    HW188004   7.280   1.716   6.375  0.1433 -0.1865 -0.0315
60381SOL    HW288005   7.369   1.596   6.402 -0.3734 -0.5889 -0.0981
60382SOL     OW88006  11.256   8.647  10.480  0.0515  0.1397 -0.2263
60382SOL    HW188007  11.183   8.685  10.432 -0.4078  1.0456  1.1050
60382SOL    HW288008  11.266   8.704  10.556  1.7550 -0.3300 -0.0656
60383SOL     OW88009   8.796   6.974   5.170 -0.5332 -0.1407  0.7152
60383SOL    HW188010   8.765   6.931   5.091 -0.0766  0.8454 -0.0142
60383SOL    HW288011   8.869   6.920   5.200 -0.7232 -0.5280  0.4804
60384SOL     OW88012  11.943   9.957   5.462 -0.1197 -0.1285  0.7467
60384SOL    HW188013  11.935  10.004   5.379  1.8492 -0.6087  0.2210
60384SOL    HW288014  11.906   9.871   5.445 -1.0239  0.2405  0.8126
60385SOL     OW88015   2.734   8.136  12.379 -0.3651 -0.1618 -0.4910
60385SOL    HW188016   2.643   8.107  12.374  0.0354 -1.9263  1.4041
60385SOL    HW288017   2.732   8.211  12.439 -0.7241  0.7338 -1.5815
60386SOL     OW88018   9.400  11.400   7.400 -0.3258  0.4331 -0.1334
60386SOL    HW188019   9.318  11.444   7.423 -1.3443 -0.9178 -1.0034
60386SOL    HW288020   9.443  11.460   7.340  0.2937  2.0320  1.7872
60387SOL     OW88021   6.544   3.856   3.840  0.4057 -0.3672 -0.1226
60387SOL    HW188022   6.556   3.870   3.746 -1.8267  1.8340 -0.1906
60387SOL    HW288023   6.465   3.802   3.846  0.4707 -0.4018  0.4856
60388SOL     OW88024  11.785  10.749   5.580  0.0664 -0.1393  0.4963
60388SOL    HW188025  11.826  10.691   5.644 -1.2263 -1.6209  0.0411
60388SOL    HW288026  11.769  10.830   5.627  0.3952 -0.7223  1.6411
60389SOL     OW88027   4.954   3.424   4.541  0.1164  0.2461 -0.1511
60389SOL    HW188028   4.924   3.352   4.485 -0.5713  1.5988 -1.5836
60389SOL    HW288029   5.020   3.384   4.597 -2.1186 -2.1503  1.0116
60390SOL     OW88030   3.402   5.162   5.140  0.3534 -0.1698  0.1007
60390SOL    HW188031   3.425   5.235   5.084  1.1812 -0.8036 -0.3986
60390SOL    HW288032   3.357   5.100   5.083 -2.0020  0.6950  0.8879
60391SOL     OW88033   7.164   1.544   3.733 -0.1700 -0.1413 -0.0766
60391SOL    HW188034   7.214   1.479   3.783 -2.4155 -2.3200 -0.4497
60391SOL    HW288035   7.085   1.559   3.785 -0.9915  0.1268 -1.3403
60392SOL     OW88036   2.542   6.957   3.580 -0.5037  0.4858 -0.1958
60392SOL    HW188037   2.522   7.004   3.660 -1.5802  0.3019 -0.3434
60392SOL    HW288038   2.583   7.022   3.523 -0.0243  0.6928  0.3713
60393SOL     OW88039   3.513  12.116   5.241 -0.4744 -0.2992  0.2005
60393SOL    HW188040   3.437  12.174   5.246 -0.7285 -0.6394  0.4198
60393SOL    HW288041   3.571  12.146   5.311 -0.4575 -0.1072  0.1044
60394SOL     OW88042   0.894  11.658   0.671 -0.0331 -0.3386  0.3561
60394SOL    HW188043   0.817  11.605   0.650  0.2530 -0.9775  0.8729
60394SOL    HW288044   0.859  11.736   0.715 -0.5019  0.1984 -0.9339
60395SOL     OW88045   2.407   3.621   9.852 -0.1425 -0.3854  0.2287
60395SOL    HW188046   2.340   3.690   9.847 -0.6413 -0.8486  0.4342
60395SOL    HW288047   2.410   3.584   9.764  0.2142 -0.0197  0.0868
60396SOL     OW88048   4.720   5.303   9.832 -0.2021 -0.6954  0.3725
60396SOL    HW188049   4.713   5.377   9.892  3.0712 -0.7945  1.0658
60396SOL    HW288050   4.742   5.229   9.889  1.2287 -1.1591 -0.7076
60397SOL     OW88051  12.044  10.192   3.109  0.1729 -0.0742  0.3980
60397SOL    HW188052  12.021  10.184   3.016  0.1031  1.1891  0.3010
60397SOL    HW288053  12.063  10.102   3.136  2.8532 -0.1834 -1.5103
60398SOL     OW88054   0.677   9.195   8.049 -0.1436  0.1030 -0.2464
60398SOL    HW188055   0.726   9.189   7.967  1.4524  0.4283  0.6468
60398SOL    HW288056   0.652   9.287   8.056 -1.1367 -0.1008 -0.8063
60399SOL     OW88057   5.206   0.674   7.786  0.1422 -0.0306  0.3609
60399SOL    HW188058   5.123   0.627   7.788  0.9956 -1.7531  4.0969
60399SOL    HW288059   5.256   0.632   7.717 -1.1433 -0.7103 -0.1920
60400SOL     OW88060  12.109   2.352   8.926  0.4165 -0.0389 -0.2571
60400SOL    HW188061  12.020   2.321   8.910 -0.4508  1.9361  0.3186
60400SOL    HW288062  12.150   2.282   8.978 -0.5848 -1.2379 -1.0262
60401SOL     OW88063   8.911   7.685   0.802  0.1377 -0.2785 -0.1583
60401SOL    HW188064   8.826   7.659   0.840  0.6935  0.8741  2.0125
60401SOL    HW288065   8.953   7.602   0.780 -0.6460 -0.9717  0.8477
60402SOL     OW88066   3.544   1.882   2.098 -0.0625  0.0218  0.0566
60402SOL    HW188067   3.483   1.889   2.025 -0.9044 -0.6283  0.6804
60402SOL    HW288068   3.613   1.824   2.065 -0.2416  0.0259 -0.3357
60403SOL     OW88069   4.446   6.103   0.313  0.1739 -0.0088 -0.1466
60403SOL    HW188070   4.367   6.058   0.282 -0.1496  0.9451 -0.7906
60403SOL    HW288071   4.514   6.079   0.250  0.4488 -0.9662  0.5058
60404SOL     OW88072   8.625  10.872   9.123 -0.3950 -0.1631 -0.3286
60404SOL    HW188073   8.635  10.817   9.200 -0.0511 -3.2160 -2.3850
60404SOL    HW288074   8.533  10.863   9.098  0.0278 -1.2877 -1.6297
60405SOL     OW88075   6.538   3.545   7.475 -0.0821  0.2963  0.3866
60405SOL    HW188076   6.564   3.492   7.400 -0.9524  1.6364 -0.9033
60405SOL    HW288077   6.467   3.495   7.515  0.5460 -0.5419  0.4737
60406SOL     OW88078  10.027   9.263   7.938 -0.8025  0.1028  0.1257
60406SOL    HW188079  10.010   9.357   7.941  0.6200  0.3585  0.5719
60406SOL    HW288080   9.958   9.225   7.993 -0.0126  1.1024  1.8726
60407SOL     OW88081   4.829  11.812   2.212 -0.8210 -0.1610 -0.2739
60407SOL    HW188082   4.837  11.875   2.140  0.6572 -0.7270 -0.6330
60407SOL    HW288083   4.739  11.823   2.243 -1.2418  0.6624 -1.6849
60408SOL     OW88084   9.078   8.864  11.292 -0.3973 -0.6475  0.1797
60408SOL    HW188085   9.162   8.827  11.318  0.5742  0.7192 -0.8973
60408SOL    HW288086   9.096   8.957  11.277 -2.1228 -0.3063  0.0016
60409SOL     OW88087   9.679   2.017   5.164 -0.1562  0.0994  1.0123
60409SOL    HW188088   9.642   2.030   5.077  0.0878  0.0370  0.9008
60409SOL    HW288089   9.627   1.945   5.202  0.6126 -0.8018  0.4082
60410SOL     OW88090   8.515   1.162   9.578  0.8553  0.2012 -0.4715
60410SOL    HW188091   8.454   1.130   9.512  0.5731  0.6937 -0.4597
60410SOL    HW288092   8.601   1.136   9.546  0.6073 -0.9916 -0.2078
60411SOL     OW88093   8.817   5.560   2.103  0.6917  0.4578  0.2252
60411SOL    HW188094   8.796   5.528   2.015 -0.3229 -1.2046  1.0216
60411SOL    HW288095   8.764   5.506   2.161  2.9272  0.0580  2.0109
60412SOL     OW88096   5.111   2.388  10.192 -0.0443  0.2221  0.3546
60412SOL    HW188097   5.158   2.468  10.218  2.2582 -0.8720 -0.1802
60412SOL    HW288098   5.142   2.369  10.104 -0.1198 -1.5507  0.6730
60413SOL     OW88099  10.173   7.781  11.554  0.6335  0.5024 -0.2239
60413SOL    HW188100  10.220   7.755  11.633  2.1309  0.2029 -1.1593
60413SOL    HW288101  10.167   7.876  11.560  3.1692  0.7959 -0.9451
60414SOL     OW88102   5.630   8.489  12.479 -0.2932  0.1821 -0.2333
60414SOL    HW188103   5.648   8.496  12.386 -0.4746  0.8481 -0.2228
60414SOL    HW288104   5.575   8.564  12.499 -0.3328 -0.0036  0.3938
60415SOL     OW88105   8.530   2.509   8.630  0.0341  0.1655 -0.1678
60415SOL    HW188106   8.467   2.440   8.649 -0.1729  0.0401 -1.2443
60415SOL    HW288107   8.595   2.502   8.700  0.1044 -1.2258 -0.3382
60416SOL     OW88108   7.294  11.093   1.107  0.0156  0.1360  0.0362
60416SOL    HW188109   7.273  11.053   1.192 -1.1237  0.5270 -0.0489
60416SOL    HW288110   7.323  11.019   1.053  0.6944 -0.1288  0.7444
60417SOL     OW88111   5.062   7.283   9.046  0.0802 -0.4519 -0.5648
60417SOL    HW188112   5.139   7.315   8.999  1.2015  0.2079  1.6025
60417SOL    HW288113   5.070   7.320   9.134 -2.3266 -1.0054 -0.0363
60418SOL     OW88114   3.240   3.347   1.770  0.3737 -0.2832 -0.1109
60418SOL    HW188115   3.171   3.368   1.834 -0.4458 -0.0000 -1.0619
60418SOL    HW288116   3.192   3.314   1.694  1.2015  1.1156 -1.2675
60419SOL     OW88117  11.974   4.932   7.911 -0.0331  0.4151 -0.3170
60419SOL    HW188118  11.936   4.947   7.825  0.0674  0.9302 -0.2781
60419SOL    HW288119  12.046   4.995   7.917  0.6774 -0.3714 -0.2917
60420SOL     OW88120   9.215   6.461  10.468 -0.2288 -0.2127 -0.0588
60420SOL    HW188121   9.294   6.514  10.479 -0.4301 -0.1542  1.2378
60420SOL    HW288122   9.246   6.371  10.474 -0.5846 -0.2251  3.6585
60421SOL     OW88123   0.059   4.464   6.327  0.3238  0.3581  0.8465
60421SOL    HW188124   0.030   4.464   6.419 -1.7321 -1.3010  0.2717
60421SOL    HW288125   0.019   4.542   6.289 -1.1569 -0.4246  0.7375
60422SOL     OW88126  11.308   2.533  10.991 -0.3906 -0.4068 -0.5237
60422SOL    HW188127  11.285   2.593  10.920  0.7450  0.8078  0.0713
60422SOL    HW288128  11.375   2.581  11.041 -0.3947 -1.6624  0.7385
60423SOL     OW88129   4.031   0.954   7.335  1.0663 -0.2614 -0.1789
60423SOL    HW188130   3.966   0.982   7.399  0.5126 -2.0768  0.0978
60423SOL    HW288131   4.093   0.900   7.384  0.1067 -2.4874 -1.2575
60424SOL     OW88132   1.794   3.454   2.139 -0.5061  0.2675 -0.1312
60424SOL    HW188133   1.884   3.436   2.112 -0.8817  0.8205 -1.8851
60424SOL    HW288134   1.759   3.368   2.163  1.1210  0.3027  2.9184
60425SOL     OW88135   9.414   8.486   6.845  0.7245 -0.4096 -0.4058
60425SOL    HW188136   9.368   8.449   6.770 -0.9262  0.3699  0.1891
60425SOL    HW288137   9.394   8.427   6.917  1.0434 -0.3065 -0.2311
60426SOL     OW88138  10.743   1.992   0.422  0.0421  0.1112 -0.2252
60426SOL    HW188139  10.685   1.928   0.382 -0.0401  0.4579 -0.6712
60426SOL    HW288140  10.686   2.065   0.446  0.4240  0.9003 -1.6126
60427SOL     OW88141  10.563   1.965  10.438  0.3026 -0.4864 -1.0404
60427SOL    HW188142  10.486   2.016  10.415  0.2957 -0.0346 -0.0499
60427SOL    HW288143  10.626   2.030  10.470 -0.2051 -1.1779  1.6267
60428SOL     OW88144   6.545   2.642  12.024  0.1342  0.1418 -0.3007
60428SOL    HW188145   6.552   2.728  11.983  0.7210  0.3087  0.1342
60428SOL    HW288146   6.573   2.657  12.115  0.1915 -0.5020 -0.2097
60429SOL     OW88147  10.171   8.630   4.601  0.3726  0.0846  0.3532
60429SOL    HW188148  10.177   8.684   4.680  1.4071  1.6205 -0.7283
60429SOL    HW288149  10.234   8.560   4.615  0.1581  0.0279  1.1008
60430SOL     OW88150   7.276   1.149   4.862 -0.5721  0.5676  0.1440
60430SOL    HW188151   7.189   1.111   4.877  0.0478 -0.3770  1.5995
60430SOL    HW288152   7.313   1.095   4.792 -0.8260  0.3783  0.1511
60431SOL     OW88153   3.264  10.145   5.766 -0.0407  0.2748  0.0221
60431SOL    HW188154   3.331  10.159   5.833 -2.3002  2.3868  2.0445
60431SOL    HW288155   3.185  10.185   5.803 -2.1339 -1.0171 -2.7442
60432SOL     OW88156   8.384  10.653  12.127  0.6707 -0.5977 -0.3936
60432SOL    HW188157   8.289  10.652  12.124  0.6616  0.2814 -0.6895
60432SOL    HW288158   8.406  10.646  12.220  0.2984 -0.0212 -0.2605
60433SOL     OW88159  11.762  10.847   7.628 -0.5307 -0.3102 -0.4652
60433SOL    HW188160  11.850  10.828   7.660  0.5449  0.4626 -2.8338
60433SOL    HW288161  11.728  10.912   7.690  0.7047 -0.3152  0.2541
60434SOL     OW88162   6.220   0.540  11.998  0.6403 -0.3719 -0.3322
60434SOL    HW188163   6.198   0.584  11.917  2.3473 -0.1302 -0.7079
60434SOL    HW288164   6.231   0.610  12.062  1.9112 -0.3211 -0.5726
60435SOL     OW88165   3.771  10.428   8.519 -0.1092  0.2672 -0.5361
60435SOL    HW188166   3.801  10.355   8.465  0.2531  0.0542 -0.0581
60435SOL    HW288167   3.783  10.505   8.463  0.3301  0.0605 -0.7357
60436SOL     OW88168   2.757  10.920   3.263 -0.1911  0.5121  0.0007
60436SOL    HW188169   2.836  10.967   3.235  0.1294  0.9053  1.4776
60436SOL    HW288170   2.744  10.853   3.196  2.4909 -0.7877  0.6149
60437SOL     OW88171   6.915   7.965   1.536  0.3665 -0.4584 -0.5958
60437SOL    HW188172   6.845   7.949   1.599  0.6844 -2.6737 -0.7299
60437SOL    HW288173   6.994   7.933   1.580  1.0908  0.7286 -0.9900
60438SOL     OW88174   6.836   2.015   5.549  0.1042 -0.3525 -0.0479
60438SOL    HW188175   6.883   2.047   5.472  1.7766 -0.5631  0.8281
60438SOL    HW288176   6.756   2.067   5.552  0.1955 -0.0567 -1.6807
60439SOL     OW88177   3.735   4.023   7.051 -0.7322  0.4526 -0.0173
60439SOL    HW188178   3.675   4.061   7.115  0.7040  2.0014  0.4674
60439SOL    HW288179   3.722   4.074   6.971  0.5862  1.4578  0.3788
60440SOL     OW88180   2.958  12.120   1.402 -0.4114  0.0300  0.1198
60440SOL    HW188181   2.997  12.074   1.328  0.3153  0.3931  0.2760
60440SOL    HW288182   2.865  12.126   1.379 -0.0415  0.9954 -1.2187
60441SOL     OW88183   9.784   8.413   5.654  0.1507  0.2293  0.5964
60441SOL    HW188184   9.713   8.477   5.660 -0.6179 -0.6092  0.6885
60441SOL    HW288185   9.854   8.458   5.606 -0.4597  1.0477  0.4607
60442SOL     OW88186   9.566   8.596   4.747 -0.5920 -0.0867 -0.0801
60442SOL    HW188187   9.484   8.631   4.713 -1.0049 -2.2123 -1.4771
60442SOL    HW288188   9.612   8.562   4.670  1.6943  1.1302  0.6424
60443SOL     OW88189   7.822   0.222  11.856  0.1987  0.3459  0.3017
60443SOL    HW188190   7.775   0.146  11.889  1.8680 -1.4598 -1.2594
60443SOL    HW288191   7.758   0.268  11.801 -0.2894 -1.0542 -0.3314
60444SOL     OW88192   2.108   5.986  11.220  0.4143 -0.3462  0.3266
60444SOL    HW188193   2.164   5.957  11.148  0.8141 -0.1945  0.5723
60444SOL    HW288194   2.138   5.936  11.295 -1.2610 -1.9436  0.0247
60445SOL     OW88195  10.751   9.321   9.820 -0.5534 -0.4168 -0.0440
60445SOL    HW188196  10.814   9.355   9.757 -0.6987  0.8949  0.5028
60445SOL    HW288197  10.670   9.310   9.769  0.0142 -1.8977 -0.6930
60446SOL     OW88198   2.909   5.198   9.023 -0.0204  0.2016 -0.2509
60446SOL    HW188199   2.834   5.155   8.983 -0.2307  1.0236 -0.7617
60446SOL    HW288200   2.982   5.139   9.005 -0.7997 -1.5006  1.7938
60447SOL     OW88201   3.054   5.147   7.276 -0.3772 -0.1348 -0.3060
60447SOL    HW188202   3.148   5.143   7.257 -0.0786  2.3177  0.3246
60447SOL    HW288203   3.022   5.219   7.222 -1.6679 -0.2190  0.3183
60448SOL     OW88204   8.497   2.762   8.513 -0.4568 -0.5641  0.0910
60448SOL    HW188205   8.511   2.679   8.468  0.5114 -0.4158  0.0997
60448SOL    HW288206   8.562   2.762   8.584 -0.1292  0.3943 -0.1932
60449SOL     OW88207   4.017  10.782   3.333  0.5841  0.0316  0.0805
60449SOL    HW188208   4.062  10.866   3.345 -0.4055  0.6684 -0.5344
60449SOL    HW288209   3.930  10.806   3.302  0.1925 -1.2241  0.1622
60450SOL     OW88210  11.113   7.602   0.573 -0.5348 -0.2125  0.5435
60450SOL    HW188211  11.151   7.527   0.528 -1.0263 -1.0365  1.4608
60450SOL    HW288212  11.147   7.679   0.526  0.9551 -0.9581  0.3643
60451SOL     OW88213   8.220  10.747   6.394  0.3485  0.2658  0.1421
60451SOL    HW188214   8.162  10.823   6.385  2.0443  1.3656 -2.4288
60451SOL    HW288215   8.198  10.691   6.320  0.9780 -0.4288  0.4687
60452SOL     OW88216   4.638   8.223   1.120 -0.1917  0.1134 -0.4197
60452SOL    HW188217   4.636   8.136   1.080  0.6657  0.7946 -2.0281
60452SOL    HW288218   4.580   8.276   1.066 -0.5942  0.5861  0.4670
60453SOL     OW88219  10.814   5.888   5.988 -0.0833 -0.5289 -0.3350
60453SOL    HW188220  10.857   5.969   6.013  0.1264 -1.3118  2.1129
60453SOL    HW288221  10.863   5.857   5.912  1.1493  0.5859 -0.0201
60454SOL     OW88222   7.169   9.942   7.733  0.0777 -0.0517  0.4858
60454SOL    HW188223   7.222   9.864   7.747 -0.5695 -0.3353  1.4574
60454SOL    HW288224   7.089   9.909   7.691 -0.1936  0.0867  0.8880
60455SOL     OW88225  11.567   2.280   4.167 -0.3155  0.2182  0.2043
60455SOL    HW188226  11.570   2.207   4.105  0.6362 -1.2776  1.9131
60455SOL    HW288227  11.642   2.334   4.145 -1.0605  0.7572 -1.1149
60456SOL     OW88228   5.418  10.568  11.042  0.0691  0.3019 -0.7420
60456SOL    HW188229   5.429  10.592  11.134  2.6994 -0.6366 -0.7274
60456SOL    HW288230   5.403  10.651  10.997 -0.1703  0.8866  0.3790
60457SOL     OW88231   4.950   3.730   1.889  0.3088 -0.3237 -0.2103
60457SOL    HW188232   4.977   3.648   1.846 -1.0716 -1.5434  1.1571
60457SOL    HW288233   4.932   3.790   1.816 -1.1629 -2.0573 -1.3781
60458SOL     OW88234   6.981   5.825   1.540 -0.0118  0.8678  0.2732
60458SOL    HW188235   6.947   5.840   1.629 -0.3366  1.3826  0.0682
60458SOL    HW288236   7.076   5.835   1.549 -0.0460  0.9712  0.5509
60459SOL     OW88237   3.990   7.428   4.177  0.3774  0.6829  0.2808
60459SOL    HW188238   4.082   7.409   4.159  0.5224  1.2764  0.3738
60459SOL    HW288239   3.963   7.359   4.237  0.6796  0.3337  0.0226
60460SOL     OW88240   1.513   1.869   3.305 -0.0451 -0.0734 -0.4807
60460SOL    HW188241   1.583   1.904   3.360  0.5153  1.5862 -2.1256
60460SOL    HW288242   1.476   1.796   3.355  0.4500  1.3002  2.0240
60461SOL     OW88243   6.786   2.602  11.349 -0.3018  0.7944 -0.6619
60461SOL    HW188244   6.798   2.684  11.302  0.9693  0.8200 -0.3443
60461SOL    HW288245   6.875   2.569  11.363 -0.7343 -0.0999  0.1454
60462SOL     OW88246   7.955   5.909   1.024 -0.2851  0.7716 -0.2325
60462SOL    HW188247   8.014   5.835   1.006  0.3760  1.5165 -1.2552
60462SOL    HW288248   7.872   5.868   1.047  0.5997 -0.3156  1.2307
60463SOL     OW88249  11.628  11.529   2.983  0.0416 -0.3207 -0.2311
60463SOL    HW188250  11.668  11.607   2.945  0.0903 -0.2519 -0.0355
60463SOL    HW288251  11.599  11.478   2.907 -1.1980  0.5167 -0.3491
60464SOL     OW88252   2.228   7.689   7.785  0.5907 -0.7477 -0.5682
60464SOL    HW188253   2.244   7.757   7.851 -0.8541 -1.2849  0.4002
60464SOL    HW288254   2.226   7.736   7.702  0.4087  0.2721 -0.0036
60465SOL     OW88255   7.234   9.305   7.950 -0.3270  0.0361 -0.3334
60465SOL    HW188256   7.141   9.317   7.966 -0.0260  0.0368  1.6324
60465SOL    HW288257   7.238   9.231   7.889 -1.6485  1.0961 -1.7748
60466SOL     OW88258   9.940   4.536   7.672 -0.2398  0.1429  0.0666
60466SOL    HW188259   9.973   4.449   7.694  0.8800  0.6608  0.4922
60466SOL    HW288260  10.015   4.581   7.634 -0.0267  1.8192  2.3375
60467SOL     OW88261   4.174  11.453   2.096 -0.1286 -0.4049 -0.0541
60467SOL    HW188262   4.205  11.422   2.181 -1.8146 -0.5667  0.5391
60467SOL    HW288263   4.143  11.542   2.113  1.0824  0.1950 -0.8924
60468SOL     OW88264   4.536  11.809  10.562 -0.5788  0.2843  0.4297
60468SOL    HW188265   4.500  11.780  10.646 -0.4599  1.2123  0.8133
60468SOL    HW288266   4.587  11.887  10.584  0.1539  0.0464 -0.3839
60469SOL     OW88267   4.282   0.278   0.477 -0.0555 -0.1806 -0.0819
60469SOL    HW188268   4.239   0.248   0.397  1.7206 -0.7929 -0.8417
60469SOL    HW288269   4.344   0.345   0.448 -0.7234  0.9878  1.0497
60470SOL     OW88270   4.725   2.751   8.462  0.4148 -0.0117  0.0570
60470SOL    HW188271   4.677   2.670   8.450 -0.6979  0.3291  1.8330
60470SOL    HW288272   4.807   2.738   8.415  0.1265 -2.0272  0.0481
60471SOL     OW88273   5.596  12.207   2.566  0.2569  0.2574  0.0447
60471SOL    HW188274   5.598  12.181   2.658 -1.1858  1.2912  0.4086
60471SOL    HW288275   5.503  12.223   2.547  0.6732  1.4763 -1.1764
60472SOL     OW88276   4.047  11.001   4.803  0.0603  0.4571 -0.2387
60472SOL    HW188277   4.037  11.037   4.890  1.1676  0.7408 -0.2163
60472SOL    HW288278   4.050  11.077   4.745 -0.5329  0.2768 -0.5122
60473SOL     OW88279  11.414   2.604   3.814  0.3227  0.1629  0.5120
60473SOL    HW188280  11.415   2.599   3.910 -2.1972 -0.4843  0.5882
60473SOL    HW288281  11.481   2.542   3.785  0.8798  0.1129  1.8435
60474SOL     OW88282   2.846   5.243   5.855  0.0626 -0.3929 -0.4894
60474SOL    HW188283   2.856   5.149   5.872  0.5464 -0.3052 -0.2805
60474SOL    HW288284   2.755   5.262   5.880  0.2375 -0.6202  0.3553
60475SOL     OW88285  11.682   1.401  10.962  0.3293  0.1483  0.4324
60475SOL    HW188286  11.760   1.395  11.017  0.1553  1.9308  0.9201
60475SOL    HW288287  11.618   1.448  11.016 -0.3908  0.4997 -0.6945
60476SOL     OW88288  10.076  11.653   4.919  0.1932 -0.4886  0.6193
60476SOL    HW188289  10.001  11.695   4.876  0.8641 -0.0838 -0.1821
60476SOL    HW288290  10.079  11.565   4.881 -1.4143 -1.4580  2.5391
60477SOL     OW88291   4.711  12.079  12.101  0.8619  0.0547 -0.1756
60477SOL    HW188292   4.636  12.108  12.049  2.4655  2.6024 -1.2447
60477SOL    HW288293   4.742  12.000  12.056 -0.7788 -0.7206 -0.0323
60478SOL     OW88294   4.996   3.112   7.599 -0.4861  0.3962  0.0289
60478SOL    HW188295   4.904   3.106   7.575 -0.1545 -1.9884 -0.9188
60478SOL    HW288296   5.002   3.072   7.686 -0.1258 -1.1443 -0.6758
60479SOL     OW88297   9.870   8.615   3.484 -0.4718 -0.3571  0.0032
60479SOL    HW188298   9.836   8.612   3.574  0.8799  1.9246  0.6728
60479SOL    HW288299   9.821   8.687   3.443 -0.8917 -1.2093 -1.0603
60480SOL     OW88300   1.181  10.174  10.440 -0.7323  0.1260 -0.6647
60480SOL    HW188301   1.183  10.083  10.412 -3.2572  0.0972 -0.9429
60480SOL    HW288302   1.135  10.220  10.371 -1.0726  1.3016  0.2976
60481SOL     OW88303   5.304   4.094   3.007 -0.0236 -0.2071  0.1092
60481SOL    HW188304   5.352   4.146   3.072  1.7458 -0.9047 -0.5698
60481SOL    HW288305   5.213   4.121   3.017  0.5279  1.3567  1.3171
60482SOL     OW88306   2.036  12.469   1.269 -0.1731 -0.4145 -0.0982
60482SOL    HW188307   1.985  12.390   1.250  1.9675 -1.7350 -0.7485
60482SOL    HW288308   2.008  12.495   1.357  0.3609 -3.0407  0.9448
60483SOL     OW88309   2.947   5.817   4.645 -0.0546  0.0968 -0.1963
60483SOL    HW188310   2.933   5.813   4.550 -0.8728 -0.8769 -0.0555
60483SOL    HW288311   2.867   5.855   4.680 -0.0586 -0.2310  0.1626
60484SOL     OW88312  10.066  10.163  11.275  0.0637 -0.0951 -0.3539
60484SOL    HW188313  10.130  10.133  11.211  0.3664 -0.1930 -0.0081
60484SOL    HW288314  10.109  10.237  11.319  0.0325 -0.3006  0.0311
60485SOL     OW88315   9.692   1.807   9.810 -0.2068  0.5876 -0.1662
60485SOL    HW188316   9.709   1.899   9.829  1.8706  0.4716 -1.1573
60485SOL    HW288317   9.758   1.784   9.744 -0.8996 -1.5254 -0.1932
60486SOL     OW88318   7.265   9.636   1.633  0.5205 -0.0317  0.4900
60486SOL    HW188319   7.238   9.545   1.645  1.0628 -0.1183  1.1099
60486SOL    HW288320   7.360   9.631   1.622  0.6756  0.5376  1.4627
60487SOL     OW88321   1.286   7.332  11.946 -0.0625  0.1284  0.8481
60487SOL    HW188322   1.217   7.399  11.948  0.7654  1.0128  0.3308
60487SOL    HW288323   1.315   7.324  12.037  1.5597  2.3207  0.5901
60488SOL     OW88324   1.688   1.432  11.777 -0.0954  0.3249  0.1277
60488SOL    HW188325   1.765   1.474  11.739 -0.4120  1.8369  1.0990
60488SOL    HW288326   1.638   1.503  11.816 -0.3892 -1.0046  2.3115
60489SOL     OW88327   4.172   7.032   4.839  0.8075  0.3085  0.2065
60489SOL    HW188328   4.093   7.065   4.881 -0.3146 -1.0824 -0.7206
60489SOL    HW288329   4.229   7.007   4.912 -0.2910 -0.2363  0.9015
60490SOL     OW88330  10.243  11.949   7.271 -0.2139  0.2078  0.6197
60490SOL    HW188331  10.182  11.945   7.198 -1.7466 -0.7648  1.8845
60490SOL    HW288332  10.298  11.872   7.261  1.6829  1.6837 -1.1698
60491SOL     OW88333   3.342   5.636   7.018  0.1406 -0.1051 -0.0531
60491SOL    HW188334   3.257   5.609   7.052  0.6652 -1.8556 -0.0729
60491SOL    HW288335   3.366   5.713   7.071 -1.4041  0.3834 -0.0224
60492SOL     OW88336  11.633   1.238   2.551  0.0353 -0.3706  0.0347
60492SOL    HW188337  11.668   1.216   2.637 -0.9007  0.6862  0.7285
60492SOL    HW288338  11.566   1.305   2.569 -1.4927 -1.4524 -1.3155
60493SOL     OW88339  12.275   6.350  11.676 -0.7088  0.0495  0.4053
60493SOL    HW188340  12.267   6.356  11.580 -0.7730  0.7036  0.4505
60493SOL    HW288341  12.281   6.256  11.693 -0.5604 -0.0686 -0.2551
60494SOL     OW88342   8.403   3.795   7.331 -0.0373 -0.2050  0.6367
60494SOL    HW188343   8.350   3.717   7.316  0.1972 -0.4027  0.8294
60494SOL    HW288344   8.463   3.798   7.256  0.1117 -0.3424  0.7498
60495SOL     OW88345   8.219   7.039   9.406  0.0846  0.6008 -0.2396
60495SOL    HW188346   8.129   7.070   9.398  0.3379  1.4898  0.2078
60495SOL    HW288347   8.215   6.968   9.469 -0.1783  1.2305  0.4664
60496SOL     OW88348   9.795   7.830   4.892 -0.4940 -0.0396 -0.4279
60496SOL    HW188349   9.852   7.835   4.816  1.0230  0.7154  0.7079
60496SOL    HW288350   9.854   7.831   4.967 -1.9030 -1.4669  0.7771
60497SOL     OW88351   8.064  11.082   9.992 -0.3608  0.5027  0.0023
60497SOL    HW188352   8.039  11.005  10.042 -0.4877  0.6976  0.2367
60497SOL    HW288353   8.148  11.108  10.028 -0.8279  1.1244  0.6645
60498SOL     OW88354   4.830   4.819   5.939 -0.5995  0.3618  0.1659
60498SOL    HW188355   4.884   4.895   5.919  0.7912 -0.2001  1.5432
60498SOL    HW288356   4.836   4.763   5.862  0.3151  0.5888  0.0700
60499SOL     OW88357   4.765   0.239   4.745  0.2627  0.4954  0.2287
60499SOL    HW188358   4.781   0.149   4.716  1.2427 -0.3216  2.9541
60499SOL    HW288359   4.741   0.286   4.665  0.9306 -1.8894 -1.5048
60500SOL     OW88360   3.277   6.053   2.441 -0.3862  0.4755  0.5702
60500SOL    HW188361   3.197   6.003   2.456  0.2451 -0.8554 -0.3195
60500SOL    HW288362   3.312   6.069   2.528  0.2063 -2.0463  0.8760
60501SOL     OW88363   4.682   5.607   9.593  0.1494  0.0756  0.1261
60501SOL    HW188364   4.644   5.519   9.601  0.3526  0.0021  0.2865
60501SOL    HW288365   4.614   5.665   9.628  0.6214 -0.1549  1.4671
60502SOL     OW88366   5.884   6.772   4.709 -0.2875 -1.0333  0.4347
60502SOL    HW188367   5.816   6.705   4.711  0.0009 -1.3166  1.0307
60502SOL    HW288368   5.925   6.764   4.623 -1.8249 -0.0256 -0.4531
60503SOL     OW88369   7.459   6.883   2.634 -0.1563 -0.2258  0.2683
60503SOL    HW188370   7.453   6.898   2.539 -1.5103 -1.2898  0.1621
60503SOL    HW288371   7.553   6.873   2.650  0.0471 -0.7694 -1.0797
60504SOL     OW88372   1.622  10.810   5.799 -0.2368  0.0824  0.4124
60504SOL    HW188373   1.582  10.892   5.827  1.1057  0.8829  0.0525
60504SOL    HW288374   1.647  10.766   5.880 -0.6553  0.1860  0.5960
60505SOL     OW88375   8.492  12.026   9.976 -0.8085  0.0682 -0.1606
60505SOL    HW188376   8.447  12.111   9.973 -1.8806 -0.1212  4.2252
60505SOL    HW288377   8.423  11.963   9.997  0.5537 -1.2340  0.6230
60506SOL     OW88378   6.041  11.186   6.134  0.8845  0.2090  0.2614
60506SOL    HW188379   6.111  11.132   6.097 -0.3964 -1.2224 -0.1955
60506SOL    HW288380   6.068  11.276   6.117  2.5559 -0.3051  0.0316
60507SOL     OW88381   4.947   5.900   3.484 -0.0531  0.9657  0.3571
60507SOL    HW188382   4.880   5.928   3.422 -0.8484  0.1431  0.8205
60507SOL    HW288383   5.029   5.905   3.435 -0.2682  3.1467  0.1426
60508SOL     OW88384   6.576  12.192   9.946  0.3799 -0.0659  1.0632
60508SOL    HW188385   6.667  12.198   9.974  0.9630 -1.5275 -0.4239
60508SOL    HW288386   6.580  12.179   9.852 -1.4560  1.7149  0.6702
60509SOL     OW88387   5.053   9.852   3.810  0.2359 -0.6951  0.7575
60509SOL    HW188388   4.978   9.802   3.778  0.2602 -0.1387 -0.2272
60509SOL    HW288389   5.021   9.942   3.819  0.1263 -0.8877  2.7452
60510SOL     OW88390   8.005   4.089   7.843 -0.8143  0.5645  0.0425
60510SOL    HW188391   7.924   4.040   7.858 -0.0225 -1.4597 -1.7867
60510SOL    HW288392   8.031   4.065   7.754  1.9647  0.8567  0.6898
60511SOL     OW88393   1.779   7.140   4.665 -0.4674 -0.2211 -0.7948
60511SOL    HW188394   1.783   7.076   4.736  1.9392 -2.7389 -2.9843
60511SOL    HW288395   1.686   7.144   4.642 -1.0590 -0.6592  1.2851
60512SOL     OW88396  11.932   4.370   4.735 -0.5911  0.5329 -0.2004
60512SOL    HW188397  11.943   4.463   4.716 -0.9645  0.4074 -1.0683
60512SOL    HW288398  11.953   4.326   4.652 -2.6178 -0.0214 -0.4716
60513SOL     OW88399  11.695   9.892   0.488  0.0472  0.4051 -0.8615
60513SOL    HW188400  11.640   9.967   0.465 -1.7797 -0.1944  1.2417
60513SOL    HW288401  11.784   9.928   0.493 -0.9480  2.8825  1.6720
60514SOL     OW88402   5.354   3.025   0.985 -0.4041 -0.2298 -0.1361
60514SOL    HW188403   5.430   3.006   0.929  0.6924  0.3523  1.0907
60514SOL    HW288404   5.281   2.980   0.942  0.2905  0.5228 -2.2385
60515SOL     OW88405   2.092   1.018   9.608  0.6714  0.7167 -0.1366
60515SOL    HW188406   2.063   1.086   9.669  0.9432  1.6996 -1.0713
60515SOL    HW288407   2.187   1.012   9.622  0.2223 -2.6571  3.0824
60516SOL     OW88408   3.303   2.096  10.864 -0.1917  0.1612 -0.1741
60516SOL    HW188409   3.314   2.017  10.811 -2.3052  0.4916 -1.2038
60516SOL    HW288410   3.392   2.118  10.892  0.8657 -0.7731 -2.5107
60517SOL     OW88411   2.449  11.332  11.556 -0.1771 -0.5578 -0.2060
60517SOL    HW188412   2.458  11.270  11.628 -3.0092  0.3640  1.0995
60517SOL    HW288413   2.456  11.418  11.598 -0.6822  0.0005 -1.2278
60518SOL     OW88414   9.475   8.555  11.907 -0.3969  0.3342  0.7610
60518SOL    HW188415   9.447   8.639  11.871  1.1370  0.5525  0.0119
60518SOL    HW288416   9.520   8.578  11.989  0.4780  0.2962  0.2944
60519SOL     OW88417   0.466   0.713  12.180 -0.3354  0.7457 -0.4387
60519SOL    HW188418   0.427   0.708  12.268 -1.2190  1.2214 -0.7871
60519SOL    HW288419   0.449   0.802  12.152  0.3995  0.7470 -0.9003
60520SOL     OW88420   0.070   6.537   7.495 -0.1060 -0.0430 -0.1437
60520SOL    HW188421   0.040   6.515   7.583 -0.6412 -1.1334 -0.5752
60520SOL    HW288422   0.130   6.465   7.472  1.6120  1.2542  0.0753
60521SOL     OW88423   1.981   7.653  10.476 -0.0832 -0.1301 -0.8416
60521SOL    HW188424   1.887   7.651  10.464  0.0452 -1.8154 -1.7618
60521SOL    HW288425   1.995   7.615  10.563 -0.1930 -0.5865 -1.0268
60522SOL     OW88426  11.796  11.284   7.570  0.7796 -0.2087 -0.6299
60522SOL    HW188427  11.854  11.284   7.646 -1.6564 -1.1927  1.3975
60522SOL    HW288428  11.806  11.196   7.532 -0.2096 -0.8566  0.5050
60523SOL     OW88429  10.902  10.645   0.497  0.1021  0.3109  0.3756
60523SOL    HW188430  10.879  10.601   0.579  1.6795 -2.0035 -0.3245
60523SOL    HW288431  10.943  10.728   0.525 -1.2988  0.5610  1.8085
60524SOL     OW88432   0.109   2.311   5.675 -0.4767  0.2171  0.4901
60524SOL    HW188433   0.055   2.356   5.740 -1.5944 -0.5579  0.1229
60524SOL    HW288434   0.047   2.261   5.622  0.2241  1.7934 -2.0166
60525SOL     OW88435   4.604   5.696  10.626 -0.0702  0.5254  0.0836
60525SOL    HW188436   4.689   5.669  10.661 -0.3173 -1.4443 -0.6971
60525SOL    HW288437   4.617   5.787  10.600  1.3420  0.7365  1.3544
60526SOL     OW88438   0.510  10.189  11.319 -0.1689  0.1234 -0.0416
60526SOL    HW188439   0.470  10.251  11.381 -1.1571  0.9397 -1.4320
60526SOL    HW288440   0.442  10.123  11.304  0.0280 -0.0205 -0.3158
60527SOL     OW88441   2.438   5.177  11.828  0.5587  0.1913  0.1537
60527SOL    HW188442   2.514   5.230  11.803  0.4366  0.1417 -0.3286
60527SOL    HW288443   2.469   5.126  11.902  0.6886  0.9213  0.6164
60528SOL     OW88444  12.255   2.945   8.725  0.0182 -0.9890 -0.1063
60528SOL    HW188445  12.256   2.907   8.637  0.1891 -2.6824  0.5859
60528SOL    HW288446  12.339   2.991   8.732  0.1023 -1.0405 -0.7460
60529SOL     OW88447   3.667   6.981   6.656 -0.1957 -0.5137 -0.2208
60529SOL    HW188448   3.703   7.011   6.739 -0.1847 -2.6133  0.6075
60529SOL    HW288449   3.678   7.055   6.596  4.3923 -0.4631  0.2938
60530SOL     OW88450   7.088   2.893   8.340  0.8563  0.1264  0.5007
60530SOL    HW188451   7.062   2.876   8.249  0.2595 -1.4628  0.9441
60530SOL    HW288452   7.061   2.983   8.356  0.8717  0.3912 -0.8636
60531SOL     OW88453  11.451   7.247   4.518  0.4894  0.1268  0.5040
60531SOL    HW188454  11.369   7.284   4.487 -0.3016 -1.1413  1.0062
60531SOL    HW288455  11.513   7.262   4.447 -0.0760  1.3725  0.2437
60532SOL     OW88456   1.920   1.005   0.192  0.7264  0.0746 -0.3973
60532SOL    HW188457   1.862   1.002   0.116 -0.5088 -0.9255  0.5195
60532SOL    HW288458   1.869   0.962   0.262  0.9157  2.8394  1.5989
60533SOL     OW88459   4.415   5.032   6.966  0.5094  0.3332  0.7067
60533SOL    HW188460   4.444   5.019   7.057  0.4822 -0.3784  0.6180
60533SOL    HW288461   4.496   5.049   6.917  0.4364  1.6429  1.0103
60534SOL     OW88462   2.198  11.121  12.169  0.2321  0.0084  0.2494
60534SOL    HW188463   2.276  11.163  12.133  0.7335 -0.5533  0.6474
60534SOL    HW288464   2.222  11.100  12.259 -0.7871  0.8603  0.7353
60535SOL     OW88465   7.464   1.164   9.009  0.1719  0.4402  0.6620
60535SOL    HW188466   7.513   1.176   9.090 -0.5024  0.4410  1.0757
60535SOL    HW288467   7.429   1.251   8.989  0.7199  0.5415  0.1125
60536SOL     OW88468   5.991   7.910   7.544 -0.1716  0.2819 -0.0562
60536SOL    HW188469   5.999   7.818   7.521  0.9312  0.6626 -1.3531
60536SOL    HW288470   6.062   7.953   7.497 -0.4745  1.7642  0.7542
60537SOL     OW88471   6.941  12.375   7.818  0.3740 -0.0144 -0.0353
60537SOL    HW188472   6.962  12.290   7.856 -1.1587 -0.2816  0.3160
60537SOL    HW288473   6.859  12.360   7.770  0.8657  0.9314 -1.2157
60538SOL     OW88474   2.868   7.294  10.016 -0.0737  0.4054 -0.1479
60538SOL    HW188475   2.879   7.199  10.026 -1.2034  0.2016 -0.8012
60538SOL    HW288476   2.956   7.329  10.033 -0.0032 -0.5853  1.9589
60539SOL     OW88477   1.470   4.981   3.997 -0.1162  0.3747 -0.1839
60539SOL    HW188478   1.519   5.056   4.032 -0.2389  0.2602  0.2390
60539SOL    HW288479   1.398   4.969   4.058 -1.1713  1.0590 -1.2395
60540SOL     OW88480   2.356  10.860   8.607 -0.1299 -0.6837 -0.0362
60540SOL    HW188481   2.398  10.896   8.685 -0.2623 -0.9218  0.1468
60540SOL    HW288482   2.287  10.803   8.641 -1.9332  1.2049 -0.3258
60541SOL     OW88483  10.780  11.531   1.512  0.2824  0.2072  0.4213
60541SOL    HW188484  10.788  11.600   1.446 -1.1515 -0.8446 -0.9343
60541SOL    HW288485  10.832  11.458   1.477  0.3988  0.0149  0.9921
60542SOL     OW88486   5.196   1.095   6.808  0.0777 -0.0368  0.1624
60542SOL    HW188487   5.120   1.092   6.865 -0.7401  0.1161 -0.8795
60542SOL    HW288488   5.247   1.018   6.832 -1.7343 -1.6529 -0.8727
60543SOL     OW88489  10.009   4.182   9.117  0.1487 -0.3967  0.1743
60543SOL    HW188490  10.020   4.230   9.199  1.6000 -0.4997  0.0764
60543SOL    HW288491  10.043   4.241   9.050  2.6383 -1.7362  0.1308
60544SOL     OW88492   1.106  10.501   1.054 -0.3093 -0.4209  0.4444
60544SOL    HW188493   1.180  10.555   1.080  0.3955 -0.6892 -0.8899
60544SOL    HW288494   1.082  10.533   0.967 -2.2727  0.1588  1.1611
60545SOL     OW88495   9.995   9.399   5.106 -0.3215 -0.1361 -0.6550
60545SOL    HW188496   9.983   9.359   5.192  0.7070  1.2029  0.1645
60545SOL    HW288497   9.931   9.470   5.103 -0.1118  0.0492 -0.8361
60546SOL     OW88498   6.538   1.658   3.405 -0.0033  0.4569  0.3289
60546SOL    HW188499   6.463   1.656   3.465 -1.3991  0.9455 -1.3481
60546SOL    HW288500   6.523   1.585   3.344  0.9097  0.5479 -0.0251
60547SOL     OW88501  10.931   4.717   0.925  0.4875  0.0243 -0.1023
60547SOL    HW188502  10.970   4.788   0.977 -1.9663  0.3412  1.4652
60547SOL    HW288503  11.004   4.684   0.872  1.8558  3.3852 -0.5942
60548SOL     OW88504  11.290  10.076   8.658 -1.1398  0.7775 -0.2551
60548SOL    HW188505  11.322  10.076   8.568 -1.8862  2.6487 -0.5713
60548SOL    HW288506  11.209  10.026   8.655 -0.7110  0.0905 -0.4396
60549SOL     OW88507  11.302   4.556   2.480  0.0456 -0.3509 -0.1706
60549SOL    HW188508  11.373   4.613   2.513 -0.8961  1.6579 -1.4171
60549SOL    HW288509  11.347   4.479   2.446  1.1875 -2.2298  4.7443
60550SOL     OW88510   2.108   2.776  12.361 -0.2398 -0.2511  0.1774
60550SOL    HW188511   2.084   2.686  12.382 -0.9603 -0.4111 -1.2017
60550SOL    HW288512   2.147   2.770  12.274 -1.6862  0.9336 -0.6018
60551SOL     OW88513   2.655   8.899   4.018 -0.3967 -0.4158 -0.3048
60551SOL    HW188514   2.576   8.891   3.964  0.4719  0.4233 -1.7932
60551SOL    HW288515   2.726   8.868   3.961  0.5403  0.2678  0.4492
60552SOL     OW88516   9.730   6.501  11.121  0.2060  0.4989 -0.7165
60552SOL    HW188517   9.806   6.485  11.065 -0.1618  0.4220 -1.2022
60552SOL    HW288518   9.657   6.462  11.073 -0.0834  0.2537 -0.0879
60553SOL     OW88519  10.800  11.658  10.121 -0.3066  0.1431 -0.4172
60553SOL    HW188520  10.887  11.645  10.159 -1.1858  1.1546  2.1527
60553SOL    HW288521  10.748  11.586  10.155 -1.1191  1.0534  0.3192
60554SOL     OW88522  11.436   9.665   7.072 -0.2048 -0.1134 -0.0774
60554SOL    HW188523  11.428   9.647   6.978 -0.1069  0.0824 -0.1241
60554SOL    HW288524  11.524   9.634   7.095 -0.2985 -0.3318 -0.0103
60555SOL     OW88525  12.197   1.250   2.810 -0.1319  0.4009 -0.2150
60555SOL    HW188526  12.217   1.270   2.718  0.0784  1.6289  0.0712
60555SOL    HW288527  12.115   1.297   2.827  0.7214  1.6296  0.6796
60556SOL     OW88528  10.595   3.646  10.618 -0.3586  0.4618 -0.1229
60556SOL    HW188529  10.685   3.617  10.634 -0.1862  0.8932 -0.2628
60556SOL    HW288530  10.605   3.735  10.584 -0.8018  0.2524 -0.8310
60557SOL     OW88531   6.152   1.086   9.901  0.3687 -0.4650 -0.0302
60557SOL    HW188532   6.118   1.154   9.843  0.8459 -0.3576 -0.1863
60557SOL    HW288533   6.235   1.060   9.861 -1.2655 -3.4623 -1.8203
60558SOL     OW88534  10.861   5.714   7.324  0.3758 -0.2077 -0.0747
60558SOL    HW188535  10.855   5.620   7.343 -2.6409 -0.4088 -1.3972
60558SOL    HW288536  10.831   5.757   7.405  2.8738 -0.2309  0.9519
60559SOL     OW88537  10.034   4.508   7.132  0.1842 -0.1935 -0.9483
60559SOL    HW188538  10.092   4.539   7.063 -0.8639  1.1931 -1.2629
60559SOL    HW288539   9.979   4.584   7.152  0.5322 -0.5062  1.4943
60560SOL     OW88540   3.365   3.327   8.106 -0.4299  0.5276  0.2019
60560SOL    HW188541   3.365   3.252   8.047 -0.3445  0.9091 -0.2927
60560SOL    HW288542   3.445   3.376   8.083  0.0769  0.2212  1.2361
60561SOL     OW88543   8.062   5.680   9.372  0.1187  0.4915 -0.0479
60561SOL    HW188544   8.144   5.631   9.370  0.0670  0.3327  1.0537
60561SOL    HW288545   8.030   5.669   9.461 -1.6823 -0.4035 -0.7512
60562SOL     OW88546  10.520  11.771   0.372 -0.8849 -0.5494 -0.3112
60562SOL    HW188547  10.563  11.844   0.328 -0.2349 -1.5484 -1.4176
60562SOL    HW288548  10.475  11.810   0.447 -0.4871  0.9509 -0.8253
60563SOL     OW88549   3.268  10.570  12.242  0.0959 -0.5402  0.2718
60563SOL    HW188550   3.346  10.540  12.195  1.0412 -0.6801  1.8496
60563SOL    HW288551   3.210  10.493  12.243 -0.6673 -0.0457 -2.0410
60564SOL     OW88552  10.834   6.425   1.809 -0.1333  0.5615 -0.1400
60564SOL    HW188553  10.896   6.420   1.882 -2.3956 -1.1323  1.8457
60564SOL    HW288554  10.780   6.501   1.828  0.0250  0.8308 -0.7427
60565SOL     OW88555  10.844   8.834   9.926  0.3748  0.6809 -0.4584
60565SOL    HW188556  10.853   8.929   9.926  0.6189  0.6717  0.3757
60565SOL    HW288557  10.906   8.804   9.992 -0.5197  0.0305  0.1220
60566SOL     OW88558   1.437   3.102  10.179 -0.3963 -0.5037  0.1688
60566SOL    HW188559   1.518   3.111  10.230  0.6481 -0.4763 -1.4181
60566SOL    HW288560   1.466   3.069  10.093 -1.7642  1.7599 -1.2583
60567SOL     OW88561  10.270   9.434  10.462 -0.5028 -0.1484  0.4231
60567SOL    HW188562  10.270   9.355  10.516 -0.3677 -0.7386 -0.4112
60567SOL    HW288563  10.328   9.412  10.389 -1.7480  0.1019 -0.6897
60568SOL     OW88564   9.053  10.843  12.200 -0.1908 -0.0644 -0.0058
60568SOL    HW188565   9.109  10.887  12.136  0.0413  0.2723  0.4200
60568SOL    HW288566   9.053  10.751  12.172 -0.3123  0.1218 -0.6361
60569SOL     OW88567   1.977   1.243   9.790 -0.0207  0.2189  0.3687
60569SOL    HW188568   2.009   1.279   9.873 -0.9210 -0.0375  0.8311
60569SOL    HW288569   1.900   1.192   9.814  1.0558 -1.8310 -0.3110
60570SOL     OW88570  11.225  10.232  11.932 -0.4730  0.4048 -0.0109
60570SOL    HW188571  11.162  10.224  12.004  1.4988 -0.3203  1.7424
60570SOL    HW288572  11.266  10.318  11.945 -0.7341  0.6673 -0.8420
60571SOL     OW88573  11.526   7.602   0.286  0.1067  0.4255 -0.7347
60571SOL    HW188574  11.552   7.588   0.377  0.3421 -1.5047 -1.0525
60571SOL    HW288575  11.585   7.671   0.255  2.1946 -1.0700 -0.2924
60572SOL     OW88576   4.318  11.128   4.700 -0.2898  0.2570 -0.2377
60572SOL    HW188577   4.305  11.036   4.725  1.3529  0.0853  0.1318
60572SOL    HW288578   4.402  11.152   4.741 -0.5830  1.8626 -0.5126
60573SOL     OW88579   4.731   0.757   8.933  0.0157  0.0580 -0.4999
60573SOL    HW188580   4.694   0.702   8.864  0.8632  1.0541 -1.7851
60573SOL    HW288581   4.682   0.839   8.928  0.5153  0.3735 -0.3749
60574SOL     OW88582   7.215   5.241   2.528  0.8235  0.2689  0.1049
60574SOL    HW188583   7.138   5.221   2.582  1.2537  0.3506  0.7537
60574SOL    HW288584   7.262   5.308   2.578  0.0244  2.0872 -1.4628
60575SOL     OW88585  10.603   1.581   1.279 -0.2918 -0.5809 -0.2451
60575SOL    HW188586  10.628   1.603   1.368 -2.0039 -0.2499  0.1916
60575SOL    HW288587  10.622   1.660   1.228 -0.8234 -0.1874  0.1552
60576SOL     OW88588   7.036   8.640   3.817 -0.2308 -0.1871  0.5412
60576SOL    HW188589   6.963   8.695   3.788 -0.2383 -0.5189 -0.0753
60576SOL    HW288590   7.105   8.703   3.839 -0.2680  0.0829 -0.0720
60577SOL     OW88591   6.396   7.442   0.967  0.5510  0.4943  0.0788
60577SOL    HW188592   6.344   7.425   0.888  0.6448 -1.2277  0.3340
60577SOL    HW288593   6.477   7.482   0.934  1.5954 -2.2416 -1.0751
60578SOL     OW88594   1.824   4.152   3.929 -0.1541 -0.2675  0.0582
60578SOL    HW188595   1.761   4.209   3.885 -0.7093 -1.6202 -1.0011
60578SOL    HW288596   1.903   4.205   3.937 -0.7471  0.7516 -0.6006
60579SOL     OW88597   9.441   6.457   0.437  0.4419 -0.3548 -0.3847
60579SOL    HW188598   9.462   6.531   0.381 -0.1218 -0.5192 -0.8297
60579SOL    HW288599   9.469   6.484   0.525  1.1808 -0.0285 -0.7126
60580SOL     OW88600   5.940   2.116  11.154 -0.1389  0.2203 -0.4114
60580SOL    HW188601   5.902   2.144  11.237 -0.6992 -1.5961 -0.0038
60580SOL    HW288602   5.870   2.127  11.090 -0.1143  0.4246 -0.4049
60581SOL     OW88603   3.581   1.562   3.142 -0.0800  0.1969  0.7069
60581SOL    HW188604   3.509   1.570   3.204 -1.2944 -0.5371 -0.5386
60581SOL    HW288605   3.540   1.573   3.056  0.7486 -2.8060 -0.2229
60582SOL     OW88606   0.382   6.733   2.062 -0.0270 -0.0277  0.4290
60582SOL    HW188607   0.465   6.687   2.053  0.4217  0.6683  0.8950
60582SOL    HW288608   0.317   6.674   2.022  0.9004  0.1078 -1.4024
60583SOL     OW88609   8.589  10.550   6.397  0.4832 -0.1641  0.4018
60583SOL    HW188610   8.624  10.468   6.361 -1.1804 -1.2213  1.0874
60583SOL    HW288611   8.569  10.603   6.320  1.3870 -0.4726 -0.0625
60584SOL     OW88612   3.266  11.689   9.141  0.6532 -0.0059 -0.4065
60584SOL    HW188613   3.295  11.666   9.053  0.4077  0.6674 -0.6683
60584SOL    HW288614   3.190  11.746   9.127 -1.2979 -2.2821  0.2511
60585SOL     OW88615   3.887   6.386   6.142 -0.4084 -0.0740 -0.0086
60585SOL    HW188616   3.847   6.465   6.106 -0.5203  1.1132  2.5086
60585SOL    HW288617   3.969   6.377   6.094 -2.2688 -1.0184 -3.3775
60586SOL     OW88618   0.399  10.425   6.775 -0.1679 -0.6422 -0.6615
60586SOL    HW188619   0.354  10.351   6.733  0.0863  0.1077 -2.3209
60586SOL    HW288620   0.454  10.462   6.706  4.7115 -2.6785  1.5958
60587SOL     OW88621   3.873   8.414   2.116  0.3711 -0.0064 -0.2401
60587SOL    HW188622   3.797   8.427   2.060  1.1773  0.6758 -1.2271
60587SOL    HW288623   3.869   8.484   2.180 -1.1778 -1.4569  1.3351
60588SOL     OW88624   8.671   4.283   9.366 -0.5840 -0.2397 -0.6788
60588SOL    HW188625   8.720   4.219   9.417 -0.0862 -0.2798 -1.2064
60588SOL    HW288626   8.636   4.343   9.432  0.1557 -0.2217 -0.2923
60589SOL     OW88627   9.355   0.026  10.701  0.3071 -0.0445  0.0113
60589SOL    HW188628   9.328  -0.047  10.645 -0.9914 -0.4901  1.1589
60589SOL    HW288629   9.445   0.044  10.675  0.1547 -1.0558 -1.3411
60590SOL     OW88630   2.897   4.453  11.008 -0.2881 -0.1441  0.0619
60590SOL    HW188631   2.922   4.366  10.976  1.1183  0.7844 -1.5619
60590SOL    HW288632   2.903   4.509  10.931 -1.3912  1.3713  1.0226
60591SOL     OW88633   3.850   2.415   8.528  0.0925 -0.1446 -0.1046
60591SOL    HW188634   3.885   2.485   8.474 -1.7616  1.6279  0.8792
60591SOL    HW288635   3.784   2.373   8.473  0.0289 -0.0320 -0.1146
60592SOL     OW88636   5.506  11.624   1.342 -0.1548 -0.3407  0.3725
60592SOL    HW188637   5.559  11.606   1.419  1.0375  0.0297 -0.3355
60592SOL    HW288638   5.498  11.719   1.339  1.2602 -0.2267 -0.8734
60593SOL     OW88639   1.235   6.338   7.801  0.0254  0.6900 -0.0334
60593SOL    HW188640   1.165   6.403   7.803  0.2130  1.0780 -2.3342
60593SOL    HW288641   1.301   6.370   7.863  0.2345  2.9013 -1.2943
60594SOL     OW88642   1.844   6.723   5.902 -0.0364 -0.3810  0.3441
60594SOL    HW188643   1.923   6.753   5.858 -0.1144 -0.3518  0.2255
60594SOL    HW288644   1.842   6.772   5.984  0.2557 -0.6383  0.5070
60595SOL     OW88645   1.916  12.073   0.307 -0.5587 -0.1932  0.0298
60595SOL    HW188646   1.876  12.160   0.307 -2.3812 -0.9978 -0.6285
60595SOL    HW288647   1.994  12.083   0.252  0.2061  1.3828  1.3004
60596SOL     OW88648   3.666   6.521   6.293  0.0025 -0.2144  0.2583
60596SOL    HW188649   3.657   6.508   6.388 -0.2836  1.3542  0.4711
60596SOL    HW288650   3.760   6.510   6.277 -0.3143 -4.0850  0.0743
60597SOL     OW88651   5.122   4.766   3.077 -0.3200 -0.3021 -0.3962
60597SOL    HW188652   5.136   4.692   3.137  0.3386 -0.8874 -1.2376
60597SOL    HW288653   5.108   4.841   3.134  0.7983 -0.7444  0.4917
60598SOL     OW88654   8.204   1.824   3.080 -0.1366  0.3406 -0.0220
60598SOL    HW188655   8.159   1.826   3.165  0.3239  2.5348  0.2449
60598SOL    HW288656   8.294   1.801   3.102 -0.4786 -1.2922 -0.2208
60599SOL     OW88657   6.563   5.645   3.531  0.0517  0.8143 -0.3929
60599SOL    HW188658   6.606   5.587   3.468 -2.0920 -0.7973 -0.5001
60599SOL    HW288659   6.501   5.696   3.478 -1.5087 -0.2915  0.2881
60600SOL     OW88660  10.581   6.591   4.656  0.5323  0.4162  0.7546
60600SOL    HW188661  10.521   6.566   4.726 -1.5332  0.3437 -0.9548
60600SOL    HW288662  10.610   6.679   4.679 -1.3762  1.0438  0.9314
60601SOL     OW88663   0.477   6.175   9.208 -0.2752  0.0047 -0.6419
60601SOL    HW188664   0.555   6.153   9.260 -0.3265 -1.9368 -1.3056
60601SOL    HW288665   0.465   6.100   9.150 -0.2367  2.0342 -3.4743
60602SOL     OW88666   5.138  10.730   7.088 -0.2368 -0.5457  1.1119
60602SOL    HW188667   5.095  10.771   7.012  1.2639 -1.1512 -0.1250
60602SOL    HW288668   5.122  10.791   7.160  0.2844  1.2993 -0.2304
60603SOL     OW88669   1.889   4.336  10.574 -0.6331 -0.0952  0.0728
60603SOL    HW188670   1.817   4.304  10.627 -0.6418  2.2890  1.6483
60603SOL    HW288671   1.965   4.287  10.606 -0.8849  0.2704  1.2914
60604SOL     OW88672   5.509   0.541   3.626  0.4524 -0.1888 -0.6714
60604SOL    HW188673   5.595   0.555   3.586  0.8861  1.2562  0.6436
60604SOL    HW288674   5.491   0.448   3.613  2.8453 -0.8503  0.2052
60605SOL     OW88675  11.743   0.360  12.355 -0.2181  0.3816  0.1843
60605SOL    HW188676  11.741   0.325  12.266 -0.7379 -2.0313  1.0747
60605SOL    HW288677  11.829   0.333  12.389 -0.1182  1.0783  0.4936
60606SOL     OW88678   9.357   7.296  12.104  0.3295 -0.1599 -0.1747
60606SOL    HW188679   9.306   7.360  12.154 -0.4693 -0.7625 -0.2026
60606SOL    HW288680   9.336   7.316  12.012  0.5584 -0.0756 -0.2107
60607SOL     OW88681   0.116   2.315   3.259 -0.2790  0.3434 -0.3649
60607SOL    HW188682   0.178   2.342   3.191  0.8436 -1.6702 -0.2087
60607SOL    HW288683   0.112   2.391   3.319  0.1290  1.4343 -1.6652
60608SOL     OW88684   7.324  11.578   9.142 -0.1588 -0.2389  0.0691
60608SOL    HW188685   7.365  11.492   9.132 -1.5165 -1.3191  2.8119
60608SOL    HW288686   7.286  11.597   9.056  1.9112 -1.3621 -1.1786
60609SOL     OW88687   0.957   9.066  11.365  0.0072  1.0243 -0.0033
60609SOL    HW188688   1.008   9.043  11.442 -1.7334 -0.3745  0.8100
60609SOL    HW288689   0.964   8.990  11.307 -0.7576  0.9879 -0.0660
60610SOL     OW88690   8.251   0.737   6.164  0.5922 -0.2734  0.4586
60610SOL    HW188691   8.245   0.748   6.069  2.2432 -1.7628  0.1300
60610SOL    HW288692   8.306   0.660   6.176  0.8791  0.2001  2.6460
60611SOL     OW88693   7.134   3.735   8.600  0.5313 -0.4385 -0.2834
60611SOL    HW188694   7.130   3.640   8.590 -0.2364 -0.3988 -0.4052
60611SOL    HW288695   7.054   3.758   8.648  1.7284 -0.0683  1.6482
60612SOL     OW88696   8.959   7.762   5.485 -0.1506  0.0875  0.1704
60612SOL    HW188697   8.925   7.798   5.404  0.8245  2.5844  0.7939
60612SOL    HW288698   9.026   7.699   5.457  0.1368  0.8768 -0.9708
60613SOL     OW88699   5.046   9.884   8.438 -0.1818  0.3157 -0.1403
60613SOL    HW188700   5.007   9.802   8.409 -2.0705  1.1758 -0.1940
60613SOL    HW288701   5.082   9.923   8.357 -1.2164  0.5138 -0.5251
60614SOL     OW88702   1.320   9.587   2.988  0.2837  0.3061  0.4636
60614SOL    HW188703   1.352   9.639   3.062  0.5214  0.5651  0.1819
60614SOL    HW288704   1.264   9.647   2.939  0.4003  0.2355  0.2442
60615SOL     OW88705   0.459   1.126   1.090  0.4969  0.1422  0.1457
60615SOL    HW188706   0.450   1.185   1.165  0.2152 -1.9213  1.8521
60615SOL    HW288707   0.384   1.146   1.034  0.2300  1.1603  0.8363
60616SOL     OW88708   1.642   2.892   3.999 -0.6387 -0.1278  0.1560
60616SOL    HW188709   1.636   2.987   3.996 -0.7310  0.0731  3.3974
60616SOL    HW288710   1.716   2.874   4.056 -0.5463 -2.0436 -0.4901
60617SOL     OW88711  10.132   1.365   0.210  0.1997  0.2872 -0.1698
60617SOL    HW188712  10.048   1.393   0.244 -0.2254  0.9269 -1.6429
60617SOL    HW288713  10.196   1.425   0.249 -0.2284  0.8066 -0.2608
60618SOL     OW88714   7.242  10.574   9.174 -0.1146  0.0395 -0.5845
60618SOL    HW188715   7.150  10.600   9.174 -0.4449 -0.4096  3.7723
60618SOL    HW288716   7.285  10.641   9.227  1.4143 -1.4694  0.1653
60619SOL     OW88717   5.247   2.928   8.709  0.0260 -0.0654  0.1144
60619SOL    HW188718   5.275   3.001   8.764  0.9294 -0.0505 -0.3469
60619SOL    HW288719   5.306   2.931   8.634 -1.0783 -0.1837 -0.7881
60620SOL     OW88720   6.806   2.596   6.896 -0.0657 -0.3165 -0.7904
60620SOL    HW188721   6.855   2.679   6.891  0.5348 -0.4518  1.7004
60620SOL    HW288722   6.717   2.623   6.917  0.2529 -0.2934  0.6009
60621SOL     OW88723   9.524  10.916   9.289  0.8972 -0.3241 -0.0953
60621SOL    HW188724   9.554  10.842   9.342  1.9511  0.0002 -0.2093
60621SOL    HW288725   9.597  10.933   9.228  0.4678  0.4887 -0.3979
60622SOL     OW88726   4.045  11.357   7.747 -0.0043  0.3025 -0.0643
60622SOL    HW188727   4.086  11.375   7.832 -0.9586  0.2160  0.4326
60622SOL    HW288728   4.010  11.269   7.756  2.7254 -1.1000 -1.7126
60623SOL     OW88729   3.481   5.154   1.208  0.1483  0.6277 -0.1230
60623SOL    HW188730   3.446   5.066   1.222 -0.1758  0.6020 -1.0164
60623SOL    HW288731   3.405   5.206   1.180 -0.0220  1.6285  2.0099
60624SOL     OW88732   6.703   9.688   4.533  0.5850  0.0450  0.2742
60624SOL    HW188733   6.656   9.755   4.483  1.0345  0.5345  0.4914
60624SOL    HW288734   6.639   9.619   4.548 -0.9601  1.8867  2.9492
60625SOL     OW88735  10.826   1.030   8.407  0.4070 -0.0859  0.5072
60625SOL    HW188736  10.828   1.020   8.502 -2.2329 -0.0431  0.6418
60625SOL    HW288737  10.758   0.969   8.378  0.7863  0.2949 -1.3028
60626SOL     OW88738  11.129  10.862   9.821  0.1945 -0.3450 -0.3588
60626SOL    HW188739  11.129  10.891   9.912  1.9112  0.4042 -0.5611
60626SOL    HW288740  11.104  10.939   9.770 -2.0283 -1.0755 -0.5063
60627SOL     OW88741   1.409   8.674   2.047 -0.5644  0.6307 -0.2777
60627SOL    HW188742   1.420   8.620   1.969  0.7000  0.4466  0.0017
60627SOL    HW288743   1.345   8.741   2.022 -0.6674  0.1791 -1.2511
60628SOL     OW88744   9.729   0.143   7.999 -0.4575 -0.8213  0.0088
60628SOL    HW188745   9.797   0.141   7.932 -0.0955  1.0013  0.2755
60628SOL    HW288746   9.648   0.125   7.951 -0.4072  1.8507 -1.2728
60629SOL     OW88747   1.228   4.743  12.050  0.0356  0.0563  0.2225
60629SOL    HW188748   1.176   4.774  12.124 -0.9403  0.3086 -0.5514
60629SOL    HW288749   1.216   4.648  12.051  2.1327 -0.2833  1.9217
60630SOL     OW88750   9.761  11.985   4.935  0.2937  0.0518 -0.7482
60630SOL    HW188751   9.727  11.946   5.016  0.8976  0.8024 -0.1256
60630SOL    HW288752   9.748  11.916   4.869 -0.0946 -0.6161  0.0014
60631SOL     OW88753   9.413   1.937   1.466  0.3060  0.1872 -0.6475
60631SOL    HW188754   9.395   1.845   1.485  1.3124  0.1428  0.1780
60631SOL    HW288755   9.494   1.936   1.415 -0.0175  0.5876 -1.1807
60632SOL     OW88756  11.592   5.476   0.386 -0.1345 -0.2030 -0.0973
60632SOL    HW188757  11.686   5.489   0.401  0.4460  1.1945 -3.8842
60632SOL    HW288758  11.557   5.565   0.377 -1.8970 -0.7084  1.3351
60633SOL     OW88759  10.945   0.471   9.167  0.3933  0.4828  0.4409
60633SOL    HW188760  10.902   0.448   9.249  0.6122  1.7777  0.9463
60633SOL    HW288761  10.952   0.566   9.169  0.3052  0.5571 -1.1412
60634SOL     OW88762   4.141   8.983   5.614  0.2036 -0.4864 -0.7555
60634SOL    HW188763   4.187   8.903   5.590 -2.1426 -1.9840 -0.6273
60634SOL    HW288764   4.152   8.991   5.709  2.0714  0.4975 -1.0122
60635SOL     OW88765   5.636   0.530   5.455  0.1488  0.5626 -0.0361
60635SOL    HW188766   5.713   0.562   5.407  0.7063  1.1862  1.2173
60635SOL    HW288767   5.671   0.504   5.540 -0.9865  0.4869  0.4161
60636SOL     OW88768   4.821  12.137   0.256 -0.1639 -0.3587  0.0826
60636SOL    HW188769   4.862  12.140   0.342 -0.3935 -1.8630  0.2571
60636SOL    HW288770   4.731  12.166   0.271  0.1451  0.6584  0.0953
60637SOL     OW88771   2.088   9.126  11.764 -1.0454  0.1610 -0.2521
60637SOL    HW188772   2.066   9.154  11.675 -1.8014 -0.7288 -0.3650
60637SOL    HW288773   2.097   9.208  11.814  0.7054  0.7160 -1.4226
60638SOL     OW88774   2.176   2.072   1.786 -0.3033 -0.2655 -0.7137
60638SOL    HW188775   2.143   2.162   1.786 -1.4065 -0.6576 -0.3041
60638SOL    HW288776   2.257   2.077   1.735 -0.6640  0.8398 -1.2222
60639SOL     OW88777  10.234   0.906   8.531 -0.2593  0.0801  0.3149
60639SOL    HW188778  10.234   0.812   8.515 -0.0558 -0.6462  3.7686
60639SOL    HW288779  10.324   0.934   8.515 -0.3902 -0.1879 -1.0190
60640SOL     OW88780   4.878  10.571   5.583 -0.6475  0.1455 -0.0460
60640SOL    HW188781   4.863  10.485   5.621 -0.7923  0.1195 -0.1654
60640SOL    HW288782   4.864  10.560   5.489  0.7975 -0.0525 -0.2608
60641SOL     OW88783   1.480   0.385  11.411  0.2661  0.6508 -0.0642
60641SOL    HW188784   1.447   0.445  11.344  0.0140  1.0266  0.3832
60641SOL    HW288785   1.425   0.402  11.487 -1.1262 -1.5664 -0.4936
60642SOL     OW88786   6.689   1.424   7.963  0.1707  0.3753 -0.4764
60642SOL    HW188787   6.707   1.467   7.880  1.0449 -1.2366 -1.1561
60642SOL    HW288788   6.769   1.374   7.982  0.2448  1.2107  1.6664
60643SOL     OW88789   9.948   5.527   1.416 -0.0380 -0.7139  0.1190
60643SOL    HW188790   9.978   5.465   1.482  0.1412 -0.3201  0.4132
60643SOL    HW288791   9.858   5.501   1.398  0.1072 -1.1982  0.0694
60644SOL     OW88792   1.669   6.217   4.788 -0.2141  0.6753 -0.4729
60644SOL    HW188793   1.634   6.135   4.752  0.6699  0.2740 -0.4401
60644SOL    HW288794   1.670   6.203   4.882 -1.0974  1.1523 -0.3819
60645SOL     OW88795   7.168   1.015   9.746  0.3563 -0.7194 -0.2517
60645SOL    HW188796   7.180   0.959   9.823 -1.4766  0.2292  0.7797
60645SOL    HW288797   7.256   1.026   9.711  1.5029  0.1032  2.6183
60646SOL     OW88798   3.277   2.841  10.544  0.3037  0.0900 -0.3930
60646SOL    HW188799   3.372   2.840  10.532  0.1521 -0.2573 -1.7573
60646SOL    HW288800   3.262   2.788  10.622  1.1396 -0.9979 -0.9406
60647SOL     OW88801   7.165  11.909   6.809 -0.5045  0.4003  0.0324
60647SOL    HW188802   7.117  11.836   6.847 -0.4275 -0.8702 -2.1442
60647SOL    HW288803   7.117  11.987   6.838 -0.8424 -0.5045  2.0469
60648SOL     OW88804   3.642   0.815  12.286  0.2742 -0.4141  0.6085
60648SOL    HW188805   3.688   0.864  12.218 -2.2956 -2.5100 -2.9925
60648SOL    HW288806   3.697   0.739  12.304  0.4024 -0.4947 -0.1082
60649SOL     OW88807   5.042   0.262   7.580 -0.0551  0.1772 -0.6297
60649SOL    HW188808   4.990   0.329   7.535  0.4189  1.1097  0.1882
60649SOL    HW288809   5.025   0.181   7.530  0.7283  1.2345 -2.7162
60650SOL     OW88810  12.445   1.000   1.228  0.1588  0.6272  0.2982
60650SOL    HW188811  12.520   0.957   1.270 -0.3888 -1.7423 -0.9231
60650SOL    HW288812  12.467   0.998   1.135 -0.8663  1.0313  0.0380
60651SOL     OW88813  11.979   4.068   4.340 -0.2759  0.0526 -0.4049
60651SOL    HW188814  11.970   3.975   4.364  2.5307  0.0795  1.1440
60651SOL    HW288815  12.018   4.067   4.253  1.3332 -0.3223  0.2808
60652SOL     OW88816   5.056   3.086   6.785 -0.6325  0.1120 -0.0594
60652SOL    HW188817   5.054   3.170   6.739  2.2066 -1.1350 -2.8665
60652SOL    HW288818   4.979   3.039   6.752 -0.2958  0.3824 -1.2998
60653SOL     OW88819   3.007   7.158   9.508 -0.2394  0.5973  0.0915
60653SOL    HW188820   2.996   7.144   9.414 -0.4129  1.9384 -0.0987
60653SOL    HW288821   2.938   7.104   9.548 -1.0419  1.0716 -0.6189
60654SOL     OW88822   8.742   8.051   9.016 -1.2561  0.1988 -0.5085
60654SOL    HW188823   8.819   8.107   9.020  0.6758 -2.3127  1.6041
60654SOL    HW288824   8.709   8.062   8.927  0.4761  2.6953 -0.9494
60655SOL     OW88825   2.193   9.473   0.305  0.0157  0.4147  0.3547
60655SOL    HW188826   2.276   9.427   0.304  0.6787  1.5504 -1.5108
60655SOL    HW288827   2.138   9.427   0.242 -1.2787 -1.0740  2.4347
60656SOL     OW88828   6.641   0.322   3.117 -0.2377  0.0129 -0.2142
60656SOL    HW188829   6.557   0.331   3.071 -0.3050  0.3994 -0.0209
60656SOL    HW288830   6.617   0.303   3.208 -0.1044 -2.1408 -0.5701
60657SOL     OW88831   4.477   6.055   3.236 -0.1004  0.2855 -0.2012
60657SOL    HW188832   4.548   5.991   3.247 -0.1697  0.0483 -1.0294
60657SOL    HW288833   4.449   6.076   3.325 -0.1340 -0.9148  0.0935
60658SOL     OW88834   2.153   5.577   1.534  0.2829 -0.1391 -0.1702
60658SOL    HW188835   2.162   5.630   1.613 -2.2250 -0.4500  0.4005
60658SOL    HW288836   2.113   5.636   1.470 -0.7206 -0.7461 -0.1342
60659SOL     OW88837  10.916   3.438   4.353 -0.4492 -0.3427  0.3728
60659SOL    HW188838  11.003   3.426   4.314 -0.3417  0.5812  0.3069
60659SOL    HW288839  10.858   3.450   4.278 -0.6368 -0.9174  0.4187
60660SOL     OW88840   9.597   3.013   6.661 -0.7692 -0.1314 -0.0889
60660SOL    HW188841   9.509   2.974   6.665 -0.4969 -0.9467 -1.6103
60660SOL    HW288842   9.656   2.943   6.688 -0.4805  0.0085 -0.3484
60661SOL     OW88843   0.643   8.775   8.705  0.0149 -0.2216  0.4888
60661SOL    HW188844   0.693   8.713   8.758  0.6787 -0.9386 -0.9165
60661SOL    HW288845   0.708   8.841   8.679  0.7563 -1.9946 -2.6658
60662SOL     OW88846   5.231  10.921   0.174 -0.0687  0.3197 -0.3591
60662SOL    HW188847   5.168  10.948   0.107 -0.0198 -2.0272 -1.4687
60662SOL    HW288848   5.177  10.888   0.245 -0.2130 -1.9525 -1.4234
60663SOL     OW88849   3.098   5.771   7.747  0.2996 -0.8311 -0.2687
60663SOL    HW188850   3.055   5.797   7.665  1.2523 -0.8519 -0.7821
60663SOL    HW288851   3.061   5.684   7.766 -0.3681 -0.5705 -0.3508
60664SOL     OW88852   9.210   0.242   3.015 -0.0320 -0.0678  0.3520
60664SOL    HW188853   9.237   0.236   3.107  0.3033 -0.0495  0.2548
60664SOL    HW288854   9.173   0.155   2.996 -1.5340  0.4121  0.9448
60665SOL     OW88855  12.401   9.255  12.389 -0.6152 -0.5357  0.1765
60665SOL    HW188856  12.372   9.213  12.470 -1.5648  1.1043  0.7404
60665SOL    HW288857  12.449   9.333  12.419  0.8670 -1.0316 -0.8234
60666SOL     OW88858   9.226  11.750  11.094  0.0399 -0.0297 -0.5789
60666SOL    HW188859   9.172  11.701  11.156  1.0001 -2.7700 -1.7268
60666SOL    HW288860   9.280  11.807  11.148 -0.4289 -1.0149  0.9755
60667SOL     OW88861  10.994   5.425   7.802 -0.0741 -0.3734 -0.1035
60667SOL    HW188862  11.041   5.348   7.770 -0.3229 -0.2447 -0.7845
60667SOL    HW288863  10.971   5.475   7.724  2.1508  1.6411  0.4057
60668SOL     OW88864  11.306  12.471   2.238 -0.3784 -0.2909  0.1082
60668SOL    HW188865  11.365  12.407   2.199 -0.4996  0.5915 -1.6381
60668SOL    HW288866  11.347  12.556   2.220 -1.6884  0.2794 -0.3333
60669SOL     OW88867  12.143   8.456   7.982 -0.4889 -0.2690 -0.3293
60669SOL    HW188868  12.123   8.549   7.970  0.9949 -0.1711 -2.4746
60669SOL    HW288869  12.178   8.450   8.071 -2.0540  0.9111  0.4211
60670SOL     OW88870   6.360   8.388  10.131 -0.2122  0.5153 -0.1963
60670SOL    HW188871   6.389   8.317  10.074  1.5897  1.8026 -0.9913
60670SOL    HW288872   6.269   8.403  10.107 -0.0139 -0.1632 -1.4831
60671SOL     OW88873  12.180   5.162   4.540 -0.7637  0.0116 -0.4509
60671SOL    HW188874  12.147   5.088   4.592 -0.9754 -0.0037 -0.6047
60671SOL    HW288875  12.171   5.133   4.450  2.2249 -1.1309 -0.5196
60672SOL     OW88876  12.177   4.962   1.244  0.2095 -0.1153 -0.7504
60672SOL    HW188877  12.085   4.980   1.227  0.4220  2.2113  0.2455
60672SOL    HW288878  12.202   5.024   1.313  1.7863 -2.6262  1.1253
60673SOL     OW88879   1.288   6.035  12.221  0.4976  0.7190  0.7700
60673SOL    HW188880   1.309   5.975  12.150 -1.5760 -1.1051  1.5883
60673SOL    HW288881   1.279   6.121  12.179  1.4295  0.0884 -0.7795
60674SOL     OW88882  10.656  12.153   7.911 -0.0232  0.2509  0.3206
60674SOL    HW188883  10.659  12.175   8.004  0.7444 -1.1145  0.6394
60674SOL    HW288884  10.704  12.071   7.904 -1.8497 -0.7764 -0.9727
60675SOL     OW88885   9.659   7.326   7.486  0.4880  0.1172  0.7436
60675SOL    HW188886   9.714   7.298   7.559  0.3824 -1.1820  0.3380
60675SOL    HW288887   9.685   7.271   7.413  0.9281  1.7252 -0.3633
60676SOL     OW88888   1.435   5.340  11.458 -0.4144  0.3594  0.4550
60676SOL    HW188889   1.346   5.332  11.423 -0.9392  1.4115  1.4790
60676SOL    HW288890   1.469   5.421  11.420  0.0290  0.0735  0.2384
60677SOL     OW88891   2.612   8.478   1.794  0.5023  0.3015  0.0987
60677SOL    HW188892   2.546   8.480   1.725  0.7652  0.0664 -0.1613
60677SOL    HW288893   2.663   8.558   1.781  2.7948 -1.3702 -2.2056
60678SOL     OW88894  10.335   1.156   2.151 -0.4998  0.1220 -0.2620
60678SOL    HW188895  10.374   1.192   2.071 -0.9637  0.0163 -0.5340
60678SOL    HW288896  10.277   1.087   2.121 -0.3087 -0.2470  0.2011
60679SOL     OW88897   0.070   8.968   8.435 -0.6493  0.3072 -0.9700
60679SOL    HW188898   0.154   8.925   8.423  0.0575  1.1903  0.6450
60679SOL    HW288899   0.058   9.019   8.354  0.0585 -0.2866 -1.4672
60680SOL     OW88900   5.030   2.318  11.405  0.1335  0.5309  0.3520
60680SOL    HW188901   5.078   2.333  11.486  0.4291  0.9570  0.1029
60680SOL    HW288902   5.021   2.223  11.400  1.5877  0.3851  0.0512
60681SOL     OW88903   5.650   3.591   5.007 -0.3853 -0.0401 -0.2554
60681SOL    HW188904   5.598   3.512   4.993  1.0606 -1.3186  1.3185
60681SOL    HW288905   5.713   3.592   4.935  0.7620 -1.3438  0.6867
60682SOL     OW88906   1.301   2.661   2.022  0.0237  0.3737 -0.7365
60682SOL    HW188907   1.232   2.597   2.008  0.9596 -1.1472  1.1713
60682SOL    HW288908   1.257   2.737   2.061 -0.8880  0.4285 -1.8122
60683SOL     OW88909   4.861   3.558   9.686  0.1564 -0.2973 -0.3219
60683SOL    HW188910   4.904   3.482   9.726  5.0004  1.8608 -0.7737
60683SOL    HW288911   4.826   3.524   9.603  1.8608 -2.1530 -0.3601
60684SOL     OW88912   0.688   9.755   3.344  0.0281  0.2178  0.9431
60684SOL    HW188913   0.734   9.678   3.378  0.8525 -0.2428 -1.0585
60684SOL    HW288914   0.735   9.829   3.381 -1.7319 -0.1003  4.1785
60685SOL     OW88915   2.576   5.631   3.049  0.1821  0.1481  0.5776
60685SOL    HW188916   2.625   5.583   2.982 -1.2893 -0.3022 -0.2265
60685SOL    HW288917   2.579   5.722   3.019 -2.1955 -0.2994 -1.3209
60686SOL     OW88918   9.529   8.228  10.924  0.0968 -0.1510  0.8427
60686SOL    HW188919   9.442   8.188  10.931 -0.1644  0.2267 -0.1272
60686SOL    HW288920   9.581   8.165  10.875  0.0591  0.0840  0.4897
60687SOL     OW88921  10.432  10.030   8.718 -0.4766  0.5526 -0.1968
60687SOL    HW188922  10.488   9.983   8.780 -0.4636  0.1539 -0.5066
60687SOL    HW288923  10.362   9.968   8.696  0.1649  0.2449 -1.4785
60688SOL     OW88924   9.586  10.124   2.587  0.0105 -0.0222  0.2669
60688SOL    HW188925   9.494  10.145   2.606  0.6476  1.9739  1.5327
60688SOL    HW288926   9.583  10.079   2.503 -2.0855  0.5148 -0.0176
60689SOL     OW88927   2.890   4.909   9.862 -0.2316 -0.8433  0.0558
60689SOL    HW188928   2.950   4.905   9.787  1.5793  4.3497  0.7905
60689SOL    HW288929   2.806   4.935   9.825  0.5866  1.4180 -0.3570
60690SOL     OW88930   6.893   4.330  11.182 -0.0465 -0.0108  0.5964
60690SOL    HW188931   6.819   4.384  11.209  1.6047  3.0672 -0.5102
60690SOL    HW288932   6.877   4.312  11.089  1.4891  2.5679 -0.2692
60691SOL     OW88933   2.041  10.861   8.192 -0.0479  1.0042 -0.1441
60691SOL    HW188934   2.005  10.781   8.153 -0.9169  0.7698  1.0541
60691SOL    HW288935   2.134  10.860   8.169  0.3127 -1.1812  1.1477
60692SOL     OW88936   9.944   3.888  10.958  0.1410  0.1398 -0.0715
60692SOL    HW188937   9.922   3.867  11.048 -0.8089  0.7078 -0.1642
60692SOL    HW288938   9.979   3.977  10.962 -0.7650  0.5212 -0.3732
60693SOL     OW88939   2.426   3.191  10.744 -0.3756  0.0320  0.3071
60693SOL    HW188940   2.495   3.157  10.687  1.1819  0.6048  1.7761
60693SOL    HW288941   2.443   3.284  10.750 -1.2613  0.1789  0.7419
60694SOL     OW88942   5.079   9.952   2.669 -1.0577 -0.1094 -0.0852
60694SOL    HW188943   5.116   9.954   2.581 -0.9880 -2.4374 -0.1673
60694SOL    HW288944   5.140   9.899   2.720  0.4704  3.4473  2.2270
60695SOL     OW88945   8.140   2.507  10.641 -0.3702  0.4928  0.4405
60695SOL    HW188946   8.230   2.474  10.643 -0.7744 -0.6262  1.7550
60695SOL    HW288947   8.130   2.556  10.723 -1.0866  0.2353  0.5185
60696SOL     OW88948   1.595   1.645   0.083 -0.1100 -0.2854  0.2603
60696SOL    HW188949   1.644   1.583   0.137 -0.9750 -0.1901  1.1900
60696SOL    HW288950   1.662   1.701   0.044  0.5737 -0.7627  0.7272
60697SOL     OW88951   0.501   5.995  11.080  0.7299  0.2383  0.6068
60697SOL    HW188952   0.592   6.016  11.102  1.7446  1.0393 -3.5052
60697SOL    HW288953   0.507   5.915  11.027 -0.9582  0.4197  0.0781
60698SOL     OW88954   0.318  11.618  12.042  0.3377 -0.0709 -1.0303
60698SOL    HW188955   0.323  11.574  12.127  3.2891  0.6840 -0.6987
60698SOL    HW288956   0.401  11.598  12.000  0.9191  3.3007 -1.7562
60699SOL     OW88957  10.759   7.843   4.773  0.2806 -0.1665 -0.4153
60699SOL    HW188958  10.745   7.917   4.832 -0.6838 -1.2934  0.8376
60699SOL    HW288959  10.843   7.806   4.802  1.0016  0.7001 -1.3579
60700SOL     OW88960   1.720   9.212   5.744 -0.1220  0.0633 -0.3688
60700SOL    HW188961   1.810   9.189   5.722 -0.6659 -0.5900 -2.1023
60700SOL    HW288962   1.692   9.145   5.806  0.6240  0.3888  0.3438
60701SOL     OW88963   3.942  11.191   1.927 -0.1397  0.0004 -0.7449
60701SOL    HW188964   3.896  11.269   1.959 -1.6717 -1.1903  0.0767
60701SOL    HW288965   4.019  11.183   1.984 -1.1279 -0.2758  0.6101
60702SOL     OW88966   3.188   6.218   5.730 -0.8886 -0.2063  0.7737
60702SOL    HW188967   3.119   6.152   5.737 -1.4716  0.3860  0.7490
60702SOL    HW288968   3.192   6.239   5.637  0.0842 -1.0187  0.6196
60703SOL     OW88969   1.554  10.841   7.996 -0.2661 -0.0515  0.0008
60703SOL    HW188970   1.463  10.817   8.009 -0.4226 -0.0822 -1.1166
60703SOL    HW288971   1.581  10.879   8.080 -0.5499 -2.3442  1.1955
60704SOL     OW88972   2.132  10.467  10.709  0.5783 -0.4510  0.0824
60704SOL    HW188973   2.092  10.454  10.795  0.0880 -0.5690 -0.1575
60704SOL    HW288974   2.217  10.424  10.715 -0.2171 -2.1272 -0.0771
60705SOL     OW88975   0.665   4.614   7.252 -0.4791  0.0603  0.1334
60705SOL    HW188976   0.682   4.526   7.219  0.4829  0.5574 -0.7686
60705SOL    HW288977   0.738   4.632   7.311 -1.2595 -0.1475  1.1989
60706SOL     OW88978   0.344   8.195   8.267  0.2453  0.5061 -0.0655
60706SOL    HW188979   0.339   8.107   8.230 -1.3295  0.5230  0.0479
60706SOL    HW288980   0.367   8.251   8.194  0.4448  0.1018 -0.3136
60707SOL     OW88981   6.576   1.505   5.881  0.3926  0.0007 -1.1033
60707SOL    HW188982   6.536   1.504   5.969  1.0781  0.5237 -0.7758
60707SOL    HW288983   6.589   1.597   5.862  0.3123 -0.1134 -1.7409
60708SOL     OW88984   0.054  11.025   2.682  0.6625  0.3652  0.5575
60708SOL    HW188985   0.040  11.113   2.715  0.6257  0.0226  1.5010
60708SOL    HW288986   0.056  10.970   2.761 -0.5983 -0.6529 -0.0754
60709SOL     OW88987   8.198   5.816  10.659 -0.0059 -0.1252 -0.6285
60709SOL    HW188988   8.137   5.772  10.599  0.3918 -0.2885 -0.9146
60709SOL    HW288989   8.160   5.903  10.671 -1.8931 -1.1559  1.5157
60710SOL     OW88990   3.294   4.941   0.302  0.1432 -0.0559  0.5830
60710SOL    HW188991   3.299   4.847   0.288  0.0590  0.3186 -2.8682
60710SOL    HW288992   3.256   4.976   0.221  1.4202  3.0583  1.1575
60711SOL     OW88993   2.105   8.111   3.618 -0.1601  0.4944  0.0764
60711SOL    HW188994   2.146   8.067   3.692 -0.2609 -0.2225 -0.2831
60711SOL    HW288995   2.138   8.065   3.541 -0.6129  0.7682 -0.2883
60712SOL     OW88996   6.770   0.784   5.100 -0.4209  0.6179 -0.8932
60712SOL    HW188997   6.784   0.794   5.006 -1.2762  0.1779 -1.0806
60712SOL    HW288998   6.846   0.735   5.131 -0.2233  0.6074 -1.3869
60713SOL     OW88999   6.785   0.380   0.270  0.4178  0.0634 -0.1041
60713SOL    HW189000   6.759   0.289   0.257  1.6499 -0.3186  0.0448
60713SOL    HW289001   6.880   0.378   0.277  0.5275  1.4630 -0.8388
60714SOL     OW89002  11.595   2.881   6.695 -0.8144  0.1671 -0.2483
60714SOL    HW189003  11.581   2.936   6.617 -1.0038  0.6182  0.0974
60714SOL    HW289004  11.679   2.910   6.730 -1.3827  0.9676  0.5117
60715SOL     OW89005   9.586   9.988   0.724 -0.0564  0.4736 -0.9525
60715SOL    HW189006   9.596   9.914   0.784 -0.5728 -0.8421 -2.4232
60715SOL    HW289007   9.574  10.064   0.782 -0.4840 -0.7185  0.6066
60716SOL     OW89008   9.278  12.213   1.824  0.3468  0.0506  0.4982
60716SOL    HW189009   9.296  12.124   1.853 -0.7891 -0.1352  0.6667
60716SOL    HW289010   9.314  12.268   1.894 -0.2689 -0.3249  1.1230
60717SOL     OW89011  10.890   2.599   4.040 -0.6090  0.2504  0.4424
60717SOL    HW189012  10.854   2.686   4.056  0.0220  0.4330  0.8957
60717SOL    HW289013  10.975   2.615   3.999 -0.4191 -0.1461  0.6734
60718SOL     OW89014   6.356   2.968   9.920 -0.7398 -0.0503  0.0816
60718SOL    HW189015   6.291   2.899   9.937 -1.3973  0.4054 -0.5290
60718SOL    HW289016   6.425   2.924   9.870 -0.3704 -0.6275  1.0577
60719SOL     OW89017   8.264   5.513   8.483  0.3149 -0.2336 -0.3190
60719SOL    HW189018   8.289   5.473   8.400  0.2283 -1.4218  0.2106
60719SOL    HW289019   8.339   5.501   8.541  0.1407  0.0175 -0.0306
60720SOL     OW89020   1.639   4.578   6.325 -0.7162 -0.0503 -0.1117
60720SOL    HW189021   1.650   4.635   6.249 -1.8707 -0.6295 -0.7253
60720SOL    HW289022   1.606   4.496   6.289  3.0716 -2.0536  0.4149
60721SOL     OW89023   5.006   5.030   0.474 -0.3763  0.2545  0.2806
60721SOL    HW189024   4.932   5.053   0.530 -0.2772  0.8458  0.1790
60721SOL    HW289025   5.080   5.021   0.533 -0.7904 -1.7425  0.5686
60722SOL     OW89026   5.241   5.177   7.229 -0.9759  0.2565  0.0442
60722SOL    HW189027   5.322   5.204   7.273 -0.8083 -0.0529 -0.0763
60722SOL    HW289028   5.178   5.167   7.300 -0.7944  0.0838  0.1808
60723SOL     OW89029  11.347   3.907   5.626 -0.1339 -0.0217  0.5469
60723SOL    HW189030  11.415   3.850   5.662 -0.4193 -1.0348 -0.4365
60723SOL    HW289031  11.306   3.947   5.702  1.7067  0.8210  1.1472
60724SOL     OW89032  10.957  11.065   2.732 -0.5964  0.5541  0.6961
60724SOL    HW189033  10.952  11.048   2.826  1.0438  0.4263  0.7839
60724SOL    HW289034  10.943  10.980   2.691 -0.8095  0.5212  0.8350
60725SOL     OW89035   9.791  11.290   2.952  0.3728  0.1158  0.6400
60725SOL    HW189036   9.822  11.208   2.989  2.7111  1.5768  2.1824
60725SOL    HW289037   9.712  11.311   3.003  0.3009 -0.7106  0.8737
60726SOL     OW89038   0.811   5.086   4.607  0.3583 -0.1218 -0.3911
60726SOL    HW189039   0.792   5.108   4.698  0.7544  0.0801 -0.3569
60726SOL    HW289040   0.724   5.074   4.567  0.0652  2.1792 -0.5894
60727SOL     OW89041   3.167   9.831   1.998 -0.1921  0.0062  0.3649
60727SOL    HW189042   3.114   9.753   2.014  0.9420 -0.7302  0.6426
60727SOL    HW289043   3.172   9.875   2.083  0.7727 -0.6602  0.6623
60728SOL     OW89044   9.273  10.530   1.068 -0.2097 -0.1071 -0.5002
60728SOL    HW189045   9.332  10.605   1.057  0.8972 -1.0478 -1.2644
60728SOL    HW289046   9.188  10.562   1.037  0.2990  0.7656 -1.0542
60729SOL     OW89047   4.212   7.770  10.053  0.2961  0.1496 -0.0361
60729SOL    HW189048   4.136   7.812  10.093  1.6213  3.0799 -0.3040
60729SOL    HW289049   4.207   7.795   9.960  1.5621  0.3980 -0.0580
60730SOL     OW89050   5.345   9.902   0.331 -0.2155 -0.1889 -0.2323
60730SOL    HW189051   5.275   9.887   0.395  0.2642 -0.7363  0.1822
60730SOL    HW289052   5.353   9.818   0.285  0.9425 -0.5233  0.5220
60731SOL     OW89053   8.126   1.688   0.123 -0.3788  0.5282 -0.2419
60731SOL    HW189054   8.092   1.633   0.194 -2.0406 -0.9320 -2.0732
60731SOL    HW289055   8.092   1.775   0.143 -2.2133 -0.1831 -0.0614
60732SOL     OW89056   1.148   6.757   4.813 -0.3248 -0.2128  0.3245
60732SOL    HW189057   1.066   6.725   4.851 -1.4937  2.8200  0.6737
60732SOL    HW289058   1.121   6.801   4.732  0.8526  1.2786  0.6936
60733SOL     OW89059   8.334   5.276   6.693  0.3136 -0.6219  0.3888
60733SOL    HW189060   8.318   5.182   6.683  0.3541 -0.4107 -2.3394
60733SOL    HW289061   8.422   5.289   6.658  0.2312  0.4643  0.5606
60734SOL     OW89062   7.181   7.385  10.625 -0.5446 -0.3237  0.3437
60734SOL    HW189063   7.107   7.328  10.606 -0.5456 -0.6661  1.3212
60734SOL    HW289064   7.251   7.354  10.567 -0.4839 -1.4587  1.0049
60735SOL     OW89065   7.449   4.240   4.605 -0.5340  0.4960 -0.0451
60735SOL    HW189066   7.520   4.304   4.609  0.1305 -0.2807  1.0500
60735SOL    HW289067   7.464   4.193   4.523  2.0069 -1.5996  1.4613
60736SOL     OW89068   9.527   8.613   9.022 -0.5348  0.7046 -0.1810
60736SOL    HW189069   9.553   8.663   8.944  0.3760  0.3852 -0.1014
60736SOL    HW289070   9.501   8.680   9.086  0.0245  1.0474 -0.3026
60737SOL     OW89071  11.754   8.730  11.756  0.2496 -0.2698 -0.0044
60737SOL    HW189072  11.704   8.796  11.709  2.4437  1.0098 -0.7262
60737SOL    HW289073  11.692   8.691  11.817 -1.5807  1.1786 -0.8558
60738SOL     OW89074   8.900  12.023   3.523  0.2909 -0.3381  0.5198
60738SOL    HW189075   8.946  11.963   3.582 -1.4397 -2.8984 -0.5630
60738SOL    HW289076   8.920  11.990   3.435 -0.2950  1.0281 -0.1587
60739SOL     OW89077  12.472   5.749   6.772 -0.0462 -0.7218 -0.1537
60739SOL    HW189078  12.559   5.730   6.809 -0.6937 -0.4709  1.5961
60739SOL    HW289079  12.489   5.769   6.680  1.4758 -2.9014 -0.4201
60740SOL     OW89080   9.323  12.465   5.219  0.0792  0.3696 -0.2147
60740SOL    HW189081   9.407  12.500   5.188  0.4517  0.1540  0.5092
60740SOL    HW289082   9.317  12.496   5.310 -1.0752  1.1674 -0.5346
60741SOL     OW89083  10.055  10.392  10.965  0.3687  0.2906 -0.8045
60741SOL    HW189084  10.028  10.455  10.898  0.3834  0.5585 -0.5590
60741SOL    HW289085  10.054  10.441  11.046 -0.8542 -0.3464 -0.4083
60742SOL     OW89086   6.167  11.929  12.168 -0.0359 -0.0744 -0.4343
60742SOL    HW189087   6.180  12.018  12.134  0.4048  0.4072  0.9501
60742SOL    HW289088   6.255  11.898  12.187 -0.3163  0.7944  2.9697
60743SOL     OW89089   2.912   0.123  10.130 -0.4455 -0.5556  0.6520
60743SOL    HW189090   2.885   0.209  10.164 -0.7296 -0.9395  1.4122
60743SOL    HW289091   2.840   0.064  10.155  0.3941 -1.2939  1.3873
60744SOL     OW89092   0.396   7.795   1.403  0.2944  0.0102 -0.0626
60744SOL    HW189093   0.432   7.777   1.316 -0.6989  0.2457 -0.5292
60744SOL    HW289094   0.450   7.742   1.462  0.8775 -0.2782 -0.8322
60745SOL     OW89095   4.861   0.162  10.213  0.1752  0.2292 -0.3864
60745SOL    HW189096   4.901   0.079  10.240 -1.5918 -0.6490 -0.2461
60745SOL    HW289097   4.925   0.229  10.236  0.9872 -0.9571  1.0246
60746SOL     OW89098  11.848   0.622   5.018 -0.0498  0.4519 -0.3249
60746SOL    HW189099  11.771   0.652   5.067 -0.2719 -0.2572 -0.2292
60746SOL    HW289100  11.843   0.527   5.022  1.5179  0.3799  0.7591
60747SOL     OW89101   8.128   5.552   4.188  0.1467 -0.4919  0.7782
60747SOL    HW189102   8.069   5.568   4.261  1.4537 -0.7242  1.9203
60747SOL    HW289103   8.072   5.560   4.110 -1.7031 -2.0428  1.8375
60748SOL     OW89104   7.127   3.312   4.199 -0.6328  0.3072 -0.2983
60748SOL    HW189105   7.074   3.391   4.185 -1.7316 -0.5282 -1.0229
60748SOL    HW289106   7.063   3.245   4.223  0.1874 -0.5619 -0.5154
60749SOL     OW89107   1.026   0.232  10.833  0.1527  0.5408  0.3063
60749SOL    HW189108   0.943   0.277  10.850 -0.4917 -0.6270  0.4143
60749SOL    HW289109   1.077   0.242  10.913 -0.5946 -0.1809  0.8894
60750SOL     OW89110  10.559   0.741   2.030 -0.4955 -0.4818  0.3283
60750SOL    HW189111  10.549   0.825   2.076  1.4956  0.2775 -0.4908
60750SOL    HW289112  10.474   0.725   1.990 -1.5023  0.1300  2.0911
60751SOL     OW89113   1.202   9.445   5.625  0.2387 -0.3662 -0.0147
60751SOL    HW189114   1.158   9.484   5.701 -0.0018 -0.0239 -0.3276
60751SOL    HW289115   1.283   9.408   5.661 -0.3514 -1.1040  0.5872
60752SOL     OW89116   8.551  11.818   7.232  0.2176 -0.6606  0.2903
60752SOL    HW189117   8.475  11.795   7.284  0.4957 -2.2210  0.0329
60752SOL    HW289118   8.563  11.745   7.171 -1.1886  1.8014 -3.3214
60753SOL     OW89119   2.115   9.367   5.043 -0.1130  0.4992  0.5172
60753SOL    HW189120   2.115   9.384   4.949  0.6555 -1.2529  0.1620
60753SOL    HW289121   2.168   9.437   5.080  3.4685 -1.2028 -0.9299
60754SOL     OW89122   1.485  11.414   7.833 -0.6060  1.0849  0.1345
60754SOL    HW189123   1.443  11.478   7.891  0.0151  1.4361  0.2053
60754SOL    HW289124   1.576  11.444   7.826 -0.2464  0.0838  0.3447
60755SOL     OW89125   6.012  11.115   0.672  0.0350 -0.5033  0.1405
60755SOL    HW189126   6.038  11.039   0.620 -0.9922 -1.0910  0.4418
60755SOL    HW289127   5.921  11.130   0.648  0.0876  0.3467  0.4362
60756SOL     OW89128   6.315   2.454  10.414 -0.2910 -0.4115  0.2671
60756SOL    HW189129   6.333   2.360  10.423  1.1069 -0.1002  0.9384
60756SOL    HW289130   6.331   2.490  10.501  0.3091  0.6177 -0.2516
60757SOL     OW89131   5.101   9.662  10.368  0.0896  0.1446 -0.4313
60757SOL    HW189132   5.062   9.726  10.308  0.6017  0.6537 -0.2202
60757SOL    HW289133   5.160   9.713  10.423  1.8248 -0.7675 -1.3918
60758SOL     OW89134   8.656   2.305  11.432  0.0471  0.4499  0.0161
60758SOL    HW189135   8.623   2.348  11.511  1.4257  0.1909  0.7741
60758SOL    HW289136   8.581   2.255  11.399 -0.7355  1.0795  0.7826
60759SOL     OW89137   2.902   9.662   7.427  0.2911  0.1688  0.0135
60759SOL    HW189138   2.945   9.576   7.421  1.0510  0.6180 -1.5663
60759SOL    HW289139   2.938   9.701   7.507  2.4790  0.2957 -0.9559
60760SOL     OW89140   6.536   0.409   7.503 -0.2504  0.3288 -0.1469
60760SOL    HW189141   6.486   0.462   7.441 -0.3509 -0.1882 -0.5187
60760SOL    HW289142   6.603   0.468   7.536 -0.5361  0.7683 -0.3412
60761SOL     OW89143   0.287   0.090  10.367  0.3766  0.7856 -0.0783
60761SOL    HW189144   0.319   0.151  10.300 -0.7874  1.8961  0.3457
60761SOL    HW289145   0.206   0.130  10.399 -0.8571 -1.3438 -0.3146
60762SOL     OW89146   5.045   4.682   8.604 -0.4241  0.4268 -0.2436
60762SOL    HW189147   5.086   4.680   8.517  0.7082 -1.0711  0.2804
60762SOL    HW289148   5.108   4.729   8.659 -0.9408  0.9904 -0.1184
60763SOL     OW89149  10.369   5.162   4.714 -0.7192 -0.1421  0.0024
60763SOL    HW189150  10.310   5.086   4.717 -2.0424  0.8607  1.4629
60763SOL    HW289151  10.397   5.174   4.805  0.3869  0.4471 -0.3943
60764SOL     OW89152   5.196   0.629  12.279 -0.1350  0.4954 -0.3020
60764SOL    HW189153   5.285   0.601  12.301  0.5293  1.1554 -2.0170
60764SOL    HW289154   5.162   0.665  12.361  1.9670  2.2297 -0.0934
60765SOL     OW89155   4.210   8.057   2.484  1.1245 -0.1661  0.3918
60765SOL    HW189156   4.234   7.979   2.533 -0.4237 -1.0305 -0.1572
60765SOL    HW289157   4.274   8.062   2.412  1.8037 -0.3673  0.9734
60766SOL     OW89158   2.693  10.510  11.184  0.6710 -0.0051 -0.9823
60766SOL    HW189159   2.724  10.479  11.099  1.1853 -0.0700 -0.7787
60766SOL    HW289160   2.724  10.444  11.246 -0.7596 -0.6002 -0.8805
60767SOL     OW89161   6.676   2.729   5.028  0.2995 -0.0296  0.2174
60767SOL    HW189162   6.602   2.764   5.077 -0.0674  0.0303 -0.3734
60767SOL    HW289163   6.702   2.800   4.969  0.6571 -0.1446  0.2313
60768SOL     OW89164   8.593   9.262  12.303  0.3404  0.0127  0.4438
60768SOL    HW189165   8.662   9.305  12.354  0.1810 -0.7063  1.2798
60768SOL    HW289166   8.529   9.234  12.368 -1.0793  1.2399 -0.3672
60769SOL     OW89167   1.299   6.251   1.034 -0.8505 -0.4043 -0.3909
60769SOL    HW189168   1.324   6.226   1.123 -1.5698 -0.5871 -0.2356
60769SOL    HW289169   1.227   6.312   1.046  0.2447  1.0266 -0.7970
60770SOL     OW89170   9.142   6.854   9.809  0.0188 -0.0021 -0.2280
60770SOL    HW189171   9.199   6.851   9.886  0.6094  1.3875 -0.5841
60770SOL    HW289172   9.126   6.947   9.794 -1.1862 -0.3111 -1.0029
60771SOL     OW89173   6.293   4.423  10.783 -0.0567  0.5982 -0.0672
60771SOL    HW189174   6.292   4.408  10.877 -0.1287 -0.1870 -0.1894
60771SOL    HW289175   6.361   4.490  10.770  0.5523  0.0913  0.4567
60772SOL     OW89176   2.906   8.688  10.846  0.4847  0.2480  0.7701
60772SOL    HW189177   2.870   8.686  10.757  1.4053  2.0404  0.3080
60772SOL    HW289178   2.927   8.597  10.865 -1.1483 -0.3959 -0.2278
60773SOL     OW89179   7.512  10.355   6.783  0.5205 -0.6333  0.6059
60773SOL    HW189180   7.439  10.410   6.813 -0.0842 -0.6195 -0.7832
60773SOL    HW289181   7.518  10.286   6.849 -1.2514 -1.0406  0.4062
60774SOL     OW89182   2.598   6.434   7.839  0.2637  0.0029 -0.1698
60774SOL    HW189183   2.682   6.403   7.873  0.8214  1.2796 -0.3064
60774SOL    HW289184   2.621   6.486   7.762 -0.5591  0.9942  0.2135
60775SOL     OW89185   3.176  10.122   8.996  0.1470  0.0704 -0.0644
60775SOL    HW189186   3.099  10.068   9.016 -0.6522  0.5934 -1.5477
60775SOL    HW289187   3.141  10.195   8.945  1.7302 -0.0876 -1.4621
60776SOL     OW89188   7.693  10.614   2.518  0.2943 -0.3280 -0.1362
60776SOL    HW189189   7.605  10.637   2.548  0.0104 -0.6263 -0.7285
60776SOL    HW289190   7.751  10.665   2.575 -0.2183 -0.9744  1.0021
60777SOL     OW89191   4.494  10.480  11.182  0.2612  0.5528 -0.5560
60777SOL    HW189192   4.487  10.415  11.112 -1.0523  0.0510 -0.0055
60777SOL    HW289193   4.471  10.563  11.141 -1.1010  0.1703 -0.6337
60778SOL     OW89194   2.997  10.199   4.283 -0.1103  0.7501 -0.0859
60778SOL    HW189195   2.903  10.218   4.282 -0.8561 -2.4110 -1.5932
60778SOL    HW289196   3.014  10.157   4.199  2.2896 -0.4462  0.9067
60779SOL     OW89197   6.508  11.290  11.019 -0.4296 -0.0333 -0.5018
60779SOL    HW189198   6.496  11.260  11.109  0.8871 -1.3028 -0.7023
60779SOL    HW289199   6.441  11.244  10.969 -0.7974  0.2296 -0.2469
60780SOL     OW89200   7.101   6.141   0.461 -0.2558  0.0332  0.8034
60780SOL    HW189201   7.190   6.142   0.497  0.5463 -1.9742 -0.9170
60780SOL    HW289202   7.050   6.095   0.527 -0.1461  1.5242  1.9784
60781SOL     OW89203   9.842   1.908  10.652  0.0862  0.1978 -0.2498
60781SOL    HW189204   9.863   1.879  10.563 -0.5364 -0.9347 -0.0444
60781SOL    HW289205   9.778   1.978  10.640  0.9429  0.9105 -0.7296
60782SOL     OW89206  11.117   2.916  11.499  0.0058 -0.0307  0.3741
60782SOL    HW189207  11.155   2.915  11.411 -0.8520 -1.6557 -0.0226
60782SOL    HW289208  11.192   2.908  11.558  0.4762 -0.6945 -0.2893
60783SOL     OW89209   5.714  10.135  11.642  0.0723  1.2932  0.0282
60783SOL    HW189210   5.728  10.134  11.736  2.0107  2.7598 -0.1714
60783SOL    HW289211   5.790  10.090  11.605  0.6291  2.8612 -0.8791
60784SOL     OW89212   5.434  12.161   1.291  0.1801  0.0501 -0.3916
60784SOL    HW189213   5.516  12.179   1.245  0.0268 -0.4998 -0.9013
60784SOL    HW289214   5.443  12.205   1.375  0.9627  0.0719 -0.4789
60785SOL     OW89215   4.570   8.462   4.070  0.2732  0.2847 -0.3236
60785SOL    HW189216   4.492   8.491   4.024  0.6248  0.6920 -0.6689
60785SOL    HW289217   4.641   8.475   4.008  0.7857  1.0254  0.3909
60786SOL     OW89218   5.468   3.084   9.509 -0.0226 -0.7449  0.1166
60786SOL    HW189219   5.476   3.135   9.428  0.4684 -0.2027  0.4982
60786SOL    HW289220   5.533   3.123   9.568  0.0108 -1.4918  0.5846
60787SOL     OW89221   6.418   9.945  10.488  0.4951 -0.2836 -0.1441
60787SOL    HW189222   6.469  10.001  10.547 -0.2041  0.7053 -0.4615
60787SOL    HW289223   6.483   9.906  10.429  1.4504 -2.5963  2.2358
60788SOL     OW89224   4.884   7.016   1.696 -0.5721  0.2190 -0.4391
60788SOL    HW189225   4.902   7.003   1.602  1.9070  2.0436 -0.3288
60788SOL    HW289226   4.798   6.977   1.710 -0.7631 -0.6305 -3.3466
60789SOL     OW89227   5.556   0.916  11.315 -0.2653  0.0383  0.0706
60789SOL    HW189228   5.533   0.825  11.298 -2.3035  0.5245 -0.0561
60789SOL    HW289229   5.511   0.937  11.397  4.2000 -0.4254  2.9840
60790SOL     OW89230   4.135  12.165   8.695 -0.2854  0.6291  0.4016
60790SOL    HW189231   4.211  12.129   8.740  0.9366  1.5218 -0.8773
60790SOL    HW289232   4.127  12.254   8.729 -0.1211  0.8879 -0.2253
60791SOL     OW89233   4.054  12.476   9.114  0.1243 -0.2706 -0.3639
60791SOL    HW189234   4.053  12.397   9.061 -1.0061  0.3432 -1.3146
60791SOL    HW289235   4.010  12.542   9.060  2.0572  1.3451 -0.1064
60792SOL     OW89236  10.397   9.472   9.964 -0.3522 -0.2091 -0.1184
60792SOL    HW189237  10.321   9.444  10.015 -1.0674  0.0469 -1.0192
60792SOL    HW289238  10.378   9.564   9.942  1.5287  0.7772  2.0262
60793SOL     OW89239   5.636   7.951  11.879  0.1516  0.1646  0.4668
60793SOL    HW189240   5.662   7.921  11.967  0.3875  0.3580  0.4630
60793SOL    HW289241   5.713   7.935  11.825 -0.4390 -1.2279 -0.0132
60794SOL     OW89242   9.095   2.522   7.999  0.0726  0.4333  0.6039
60794SOL    HW189243   9.139   2.580   8.061  1.1410  0.3804 -0.0699
60794SOL    HW289244   9.092   2.571   7.917  0.4290 -0.2113  0.1890
60795SOL     OW89245   8.309   6.984   2.084  0.3197 -1.1849 -0.7373
60795SOL    HW189246   8.380   6.937   2.041  1.3676 -0.6729  0.3847
60795SOL    HW289247   8.268   7.035   2.015  0.9702 -1.5782 -1.4253
60796SOL     OW89248   7.037   2.957   9.320  0.1151  0.4371 -0.8728
60796SOL    HW189249   6.989   3.037   9.297 -0.0319  0.3676 -0.8094
60796SOL    HW289250   7.113   2.958   9.262  1.5309  1.9753  0.8766
60797SOL     OW89251  11.321  10.464  12.094 -0.5166  0.5299  0.3782
60797SOL    HW189252  11.285  10.546  12.061 -0.1744  0.3088 -0.5821
60797SOL    HW289253  11.415  10.477  12.097 -0.0390 -0.9457 -3.2778
60798SOL     OW89254   7.404   9.230   5.495 -0.0286  0.1451 -0.7143
60798SOL    HW189255   7.422   9.146   5.537 -0.7707 -0.0345 -0.7304
60798SOL    HW289256   7.439   9.296   5.555  0.2495 -0.1651 -0.5383
60799SOL     OW89257   8.616  12.198  10.396  0.7154 -0.2839  0.4353
60799SOL    HW189258   8.622  12.293  10.411  1.9937 -0.3662  0.5133
60799SOL    HW289259   8.643  12.186  10.305  2.9079 -0.7824  1.1015
60800SOL     OW89260   3.066   6.095   1.117  0.0707 -0.0384 -0.6044
60800SOL    HW189261   3.086   6.109   1.209  2.2054  1.0206 -1.1615
60800SOL    HW289262   2.998   6.159   1.097  0.0206  0.1304  0.0915
60801SOL     OW89263   7.004   5.388  11.066  0.0386 -0.1859 -0.0532
60801SOL    HW189264   6.980   5.295  11.060 -0.7798  0.1009 -1.8371
60801SOL    HW289265   7.099   5.387  11.075  0.1011 -1.2082 -0.6499
60802SOL     OW89266   8.125   7.827   7.112  0.7278  0.2382  0.3079
60802SOL    HW189267   8.047   7.851   7.162  0.8969 -0.3410  0.8646
60802SOL    HW289268   8.116   7.873   7.029 -0.6589 -0.5297  0.0050
60803SOL     OW89269   7.148   7.158   4.675 -0.0919 -0.2019 -0.0184
60803SOL    HW189270   7.095   7.095   4.626 -0.0498 -1.2975  1.2843
60803SOL    HW289271   7.091   7.186   4.747  0.7715 -0.7227  0.8878
60804SOL     OW89272   6.145   8.151   2.064 -0.4317 -0.0666  0.1023
60804SOL    HW189273   6.063   8.167   2.111 -0.5933 -0.3853 -0.0674
60804SOL    HW289274   6.200   8.226   2.087 -0.7154  0.0770  0.3350
60805SOL     OW89275   5.846   2.218   2.680 -0.0828 -0.0801  0.1501
60805SOL    HW189276   5.764   2.266   2.669 -0.2430 -0.2934  0.3876
60805SOL    HW289277   5.909   2.283   2.711 -0.4580 -0.1441  1.0805
60806SOL     OW89278  12.149   5.712   3.222 -0.1184 -0.5817  0.0574
60806SOL    HW189279  12.080   5.679   3.164 -1.0433 -1.1552  1.4367
60806SOL    HW289280  12.103   5.758   3.292  1.0663  1.9620 -0.7102
60807SOL     OW89281   8.475   0.285   7.815 -0.2037  0.2191  0.4316
60807SOL    HW189282   8.461   0.314   7.725  0.9497 -1.4687 -0.3376
60807SOL    HW289283   8.417   0.341   7.867 -0.5728  1.5357 -1.2859
60808SOL     OW89284   3.512   3.213   5.768  0.3491  0.2648 -0.2796
60808SOL    HW189285   3.545   3.300   5.746 -0.0805  0.1137 -1.6650
60808SOL    HW289286   3.450   3.193   5.697  0.6971 -1.3047 -0.1756
60809SOL     OW89287   3.600   1.602  10.489  0.4794 -0.2661  0.0654
60809SOL    HW189288   3.513   1.564  10.483  0.0331  0.6493  0.5077
60809SOL    HW289289   3.647   1.545  10.550  0.4610 -1.2228 -0.7871
60810SOL     OW89290  12.339   0.797   5.362  0.0283 -0.4919 -0.1076
60810SOL    HW189291  12.249   0.775   5.337 -0.8355  0.5389  1.8804
60810SOL    HW289292  12.363   0.868   5.303  0.2423 -1.9299 -1.8309
60811SOL     OW89293   0.533   8.270   2.166  0.1451 -0.0151 -0.1267
60811SOL    HW189294   0.574   8.230   2.243 -1.0496  0.2186  0.6608
60811SOL    HW289295   0.451   8.222   2.156 -0.2047  0.6760 -0.6093
60812SOL     OW89296   5.079   5.880  10.069 -0.7039  0.0060 -0.3903
60812SOL    HW189297   5.146   5.828  10.113 -1.0850 -0.1506  0.0091
60812SOL    HW289298   5.125   5.921   9.996 -0.0237  0.4111  0.2478
60813SOL     OW89299  11.095   9.534   9.196 -0.2961 -0.4308  0.3594
60813SOL    HW189300  11.117   9.612   9.246 -0.4907 -0.3194  0.2693
60813SOL    HW289301  11.009   9.553   9.158 -0.1083 -0.4802 -0.0885
60814SOL     OW89302   5.697   5.225   5.625 -0.3693  0.2593  0.5733
60814SOL    HW189303   5.710   5.268   5.709 -1.2893 -0.8623  1.3361
60814SOL    HW289304   5.618   5.266   5.590 -0.8397 -0.2750  0.9728
60815SOL     OW89305   6.528   0.883   0.189 -0.0722 -0.4106 -1.0124
60815SOL    HW189306   6.478   0.840   0.120 -1.9019 -0.5509  0.3246
60815SOL    HW289307   6.464   0.936   0.235  0.9038 -0.9213  1.0449
60816SOL     OW89308   8.647   2.985   0.618  0.9384  0.1205 -0.0005
60816SOL    HW189309   8.694   3.035   0.552  1.6821 -1.1750 -0.4711
60816SOL    HW289310   8.560   3.026   0.622  1.5629  1.5276 -0.2514
60817SOL     OW89311  10.932   5.886  11.376  0.4860  0.1707 -0.1501
60817SOL    HW189312  10.935   5.913  11.284 -0.0878  0.6124 -0.0445
60817SOL    HW289313  11.010   5.925  11.415  1.3512 -0.9515 -0.6818
60818SOL     OW89314   7.470   3.383  10.921  0.3268  0.2693  0.1978
60818SOL    HW189315   7.435   3.460  10.966  0.4251 -0.4841  1.6195
60818SOL    HW289316   7.446   3.396  10.829  0.0992  1.8519  0.4526
60819SOL     OW89317   0.937  11.811  10.415  0.3344 -0.5688  0.6347
60819SOL    HW189318   1.032  11.817  10.406  0.3571  1.2197  1.4638
60819SOL    HW289319   0.907  11.764  10.338  1.6101  1.7812 -1.4187
60820SOL     OW89320   0.568   6.119   2.857 -0.2497  0.5742 -0.1632
60820SOL    HW189321   0.633   6.122   2.787  1.4096  0.3954  1.2980
60820SOL    HW289322   0.536   6.209   2.864 -0.5886  0.5506 -1.2655
60821SOL     OW89323  12.302   4.784   3.772  0.3042  0.4083 -0.0198
60821SOL    HW189324  12.270   4.703   3.811 -0.1851  0.0836 -1.0772
60821SOL    HW289325  12.372   4.812   3.830  1.1204 -1.2696 -0.1492
60822SOL     OW89326   1.964   6.594   9.319  0.2488  0.0923 -0.1968
60822SOL    HW189327   2.042   6.541   9.337  0.0750  0.2244  1.0624
60822SOL    HW289328   1.890   6.535   9.334  0.0866  0.3422  0.0080
60823SOL     OW89329  10.638  10.500   8.329 -0.1408  0.3503 -0.7092
60823SOL    HW189330  10.684  10.423   8.364 -0.3020  1.2816  1.7716
60823SOL    HW289331  10.705  10.567   8.323 -0.0819  0.1700 -2.5105
60824SOL     OW89332   5.885  11.943   1.953 -0.2584  0.0185  0.0404
60824SOL    HW189333   5.973  11.909   1.940 -0.1454  0.5826 -0.7263
60824SOL    HW289334   5.892  12.037   1.936 -1.1129 -0.0089 -0.5396
60825SOL     OW89335   1.503   1.309  11.373  0.7065  0.3187  0.5664
60825SOL    HW189336   1.591   1.274  11.389  0.5940 -0.4124 -0.3316
60825SOL    HW289337   1.488   1.296  11.280  0.3564  2.1487  0.3315
60826SOL     OW89338   8.457   5.303  10.450 -0.2361  0.3123 -0.1426
60826SOL    HW189339   8.513   5.352  10.510  1.6239 -2.0065  0.1809
60826SOL    HW289340   8.372   5.301  10.492  0.3089  1.1226  1.0361
60827SOL     OW89341   6.126   3.558  11.365 -0.0919 -0.4994  0.1804
60827SOL    HW189342   6.047   3.591  11.408 -1.8554 -2.2923 -1.4643
60827SOL    HW289343   6.143   3.620  11.294 -0.0005 -0.1031  0.5458
60828SOL     OW89344   4.125  10.550   2.865  0.0995  0.1216  0.5163
60828SOL    HW189345   4.087  10.565   2.952  0.2963  1.9342  0.3335
60828SOL    HW289346   4.199  10.610   2.861 -0.9591  1.4271 -1.5391
60829SOL     OW89347  12.388   9.716   0.889  0.2418 -0.8430  0.4392
60829SOL    HW189348  12.447   9.655   0.846 -1.2512 -2.0731  0.0363
60829SOL    HW289349  12.375   9.680   0.976 -1.0846 -1.4786  0.0161
60830SOL     OW89350  10.143   2.132   4.798  0.3396 -0.3964  0.0688
60830SOL    HW189351  10.186   2.187   4.733  0.0770 -0.4275 -0.1339
60830SOL    HW289352  10.214   2.102   4.856  0.6546 -0.8005 -0.5196
60831SOL     OW89353  10.875  10.559   3.311 -0.4002  0.0193 -0.6056
60831SOL    HW189354  10.962  10.520   3.316  0.1887  1.3661  3.2196
60831SOL    HW289355  10.888  10.638   3.259  0.4749 -0.2070 -0.7589
60832SOL     OW89356  10.609   4.602   5.523 -0.7329  0.2325  0.1573
60832SOL    HW189357  10.535   4.605   5.462 -0.6570  0.8285  0.0810
60832SOL    HW289358  10.652   4.687   5.512  0.4544 -0.4114 -0.4051
60833SOL     OW89359   4.461   8.713  10.370 -1.1574 -0.3583 -0.4103
60833SOL    HW189360   4.450   8.673  10.456 -1.2434 -0.5370 -0.5052
60833SOL    HW289361   4.555   8.735  10.366 -0.9756 -1.1459 -0.6191
60834SOL     OW89362  10.804   7.214   5.808 -0.7718  0.1871 -0.1599
60834SOL    HW189363  10.741   7.159   5.760  0.3623  1.1610 -2.9911
60834SOL    HW289364  10.888   7.168   5.798  0.2257  2.2819 -2.6936
60835SOL     OW89365   1.177   5.184   1.666 -0.5626 -0.1756 -0.5108
60835SOL    HW189366   1.230   5.125   1.719 -0.9120 -1.2210 -1.3007
60835SOL    HW289367   1.096   5.195   1.716  0.2060  1.1326  0.5216
60836SOL     OW89368  10.176   3.294  11.000  0.4142  0.2907 -0.1615
60836SOL    HW189369  10.246   3.356  10.978 -0.1829  0.5087 -1.5623
60836SOL    HW289370  10.208   3.249  11.078  1.3779  1.5376  0.2061
60837SOL     OW89371  10.471   3.070   9.495 -0.2358  0.3968  0.5168
60837SOL    HW189372  10.388   3.045   9.456  0.4973 -1.3415 -0.0392
60837SOL    HW289373  10.456   3.065   9.589 -0.1899 -2.1428  0.4406
60838SOL     OW89374   9.013   2.469   8.691 -0.0616 -0.2672  0.7165
60838SOL    HW189375   8.933   2.521   8.694 -0.8253 -1.3976  0.6321
60838SOL    HW289376   8.983   2.380   8.673  1.2546 -0.6337  0.2072
60839SOL     OW89377  12.420   8.577   5.344  0.0868  0.0299  0.0499
60839SOL    HW189378  12.415   8.669   5.369 -1.9144 -0.4111  1.5075
60839SOL    HW289379  12.387   8.575   5.255  2.0123  0.9276 -0.7410
60840SOL     OW89380   4.732   7.971   8.098 -0.0065 -0.3397  0.1611
60840SOL    HW189381   4.656   8.029   8.096  0.1200  0.0079  2.7513
60840SOL    HW289382   4.714   7.910   8.169  2.1391 -0.2114  0.8877
60841SOL     OW89383   6.773   2.572   4.352 -0.5598 -0.6560 -0.0904
60841SOL    HW189384   6.844   2.521   4.313 -0.7241 -1.1636  0.2636
60841SOL    HW289385   6.757   2.531   4.437 -0.4328  0.2356  0.3765
60842SOL     OW89386   6.746   8.940   9.650 -0.2756  0.1171  0.0474
60842SOL    HW189387   6.669   8.884   9.661  0.5916 -0.7370  2.4302
60842SOL    HW289388   6.819   8.879   9.639  0.4169  0.8171  0.6197
60843SOL     OW89389   7.158   8.956  10.662  0.0305  0.2203  1.1680
60843SOL    HW189390   7.145   9.047  10.688 -1.2694  0.3120  0.3094
60843SOL    HW289391   7.085   8.909  10.703 -0.7578  0.0070 -0.3739
60844SOL     OW89392   2.530  10.596  10.322  0.0226 -0.3715 -0.7098
60844SOL    HW189393   2.594  10.544  10.370 -1.1603  1.1885  2.9071
60844SOL    HW289394   2.448  10.547  10.330 -0.1436 -0.2432 -1.5001
60845SOL     OW89395   0.786   1.694  11.664  0.0069  0.4985  0.5099
60845SOL    HW189396   0.871   1.700  11.708  0.4881 -2.2412  0.1245
60845SOL    HW289397   0.724   1.673  11.733  0.2159 -0.6220  0.3754
60846SOL     OW89398   6.471  10.916   3.606  0.4872 -0.1626  0.4413
60846SOL    HW189399   6.406  10.937   3.674  1.8431 -1.4843  2.2353
60846SOL    HW289400   6.528  10.993   3.604 -1.5370  1.4180 -1.8072
60847SOL     OW89401   7.619   9.175   6.115  0.3876  0.4656 -0.0309
60847SOL    HW189402   7.667   9.206   6.192  1.9935  1.7368 -1.4516
60847SOL    HW289403   7.528   9.168   6.145  0.8809  1.3151  1.8518
60848SOL     OW89404   4.766  12.250  10.175 -0.1563 -0.3937 -0.0646
60848SOL    HW189405   4.715  12.169  10.175 -1.9343  0.6963  0.1769
60848SOL    HW289406   4.729  12.302  10.104  0.3043  0.6139  0.4141
60849SOL     OW89407   5.781   3.327   9.404  0.1882  0.1441  0.4969
60849SOL    HW189408   5.810   3.301   9.492  0.2351 -0.7313  0.2345
60849SOL    HW289409   5.858   3.315   9.349 -0.1048 -0.2428  0.1649
60850SOL     OW89410   3.838   9.133   9.710  0.1540  0.4806  0.0600
60850SOL    HW189411   3.860   9.045   9.681 -0.4733  0.0055  0.9608
60850SOL    HW289412   3.916   9.185   9.693  0.3214 -0.1015 -1.0440
60851SOL     OW89413   3.585   4.291   9.370  0.0846  0.2519 -0.1854
60851SOL    HW189414   3.663   4.322   9.416  2.2257 -0.3984 -3.1366
60851SOL    HW289415   3.558   4.366   9.316 -0.5256  0.0238 -0.2056
60852SOL     OW89416   9.013   6.836   5.209  0.2377  0.3803  0.8188
60852SOL    HW189417   9.062   6.816   5.129  0.3094 -0.2199  1.0070
60852SOL    HW289418   9.066   6.901   5.255  0.6992 -0.0234  0.8643
60853SOL     OW89419   1.268  11.671  11.761  0.0248  0.2144 -0.0800
60853SOL    HW189420   1.235  11.608  11.826 -0.2733  0.6407  0.1836
60853SOL    HW289421   1.224  11.753  11.783 -1.5270 -0.0530 -1.9552
60854SOL     OW89422   4.062  10.314   6.018  0.4230  0.2808  0.3899
60854SOL    HW189423   4.003  10.380   5.984  0.6011  0.4597  0.4285
60854SOL    HW289424   4.024  10.287   6.101 -0.7227 -1.0869 -0.5140
60855SOL     OW89425   8.417   5.434   6.072  0.2311  1.1865  0.0791
60855SOL    HW189426   8.415   5.395   6.159 -2.0560 -0.5491 -0.6371
60855SOL    HW289427   8.498   5.401   6.033 -0.1713 -0.4823  0.5571
60856SOL     OW89428   3.064   4.055   9.561 -0.2441  0.2889 -0.3092
60856SOL    HW189429   3.151   4.014   9.562 -1.3406 -2.2791 -1.1973
60856SOL    HW289430   3.082   4.149   9.559  2.5130 -0.1555 -0.6509
60857SOL     OW89431   2.044   6.340   5.186  0.4152  0.4378 -0.3684
60857SOL    HW189432   2.070   6.270   5.127  1.5704  0.5053  0.0393
60857SOL    HW289433   2.102   6.331   5.262 -0.4736  0.8733  0.3828
60858SOL     OW89434  12.236   5.042   2.079 -0.4723 -0.4398 -0.5530
60858SOL    HW189435  12.287   5.012   2.154 -1.5031 -0.2971  0.2248
60858SOL    HW289436  12.249   4.975   2.012  1.1278 -0.1598 -0.5761
60859SOL     OW89437   4.433   3.157   1.974  0.3078 -0.5038 -0.4580
60859SOL    HW189438   4.523   3.187   1.968 -0.2875  2.4898  2.5404
60859SOL    HW289439   4.433   3.092   2.043  0.2421 -0.8689 -0.7998
60860SOL     OW89440   5.979   1.630   5.538 -0.7983  0.6333  0.7003
60860SOL    HW189441   5.989   1.722   5.513  0.9928  0.4638  0.6850
60860SOL    HW289442   5.972   1.632   5.634  1.9943  0.6524  0.9752
60861SOL     OW89443  12.324   8.921   6.206 -0.1612  0.7386  0.2329
60861SOL    HW189444  12.244   8.876   6.177  0.3013  0.2309 -0.2722
60861SOL    HW289445  12.306   8.945   6.297 -0.2917 -0.7973  0.6353
60862SOL     OW89446  11.841  11.666   0.880 -0.1682  0.0746  0.2664
60862SOL    HW189447  11.868  11.594   0.823 -0.6737 -0.5429  0.7892
60862SOL    HW289448  11.845  11.630   0.968 -0.2000  0.7619  0.5583
60863SOL     OW89449  12.043   5.009   0.753  0.2850 -0.1183 -0.4594
60863SOL    HW189450  12.034   4.970   0.666  0.3595  1.8696 -1.4268
60863SOL    HW289451  12.136   5.026   0.762  0.5469 -1.9014  0.8116
60864SOL     OW89452   4.367   2.762  10.562  0.2873  0.1288 -0.6586
60864SOL    HW189453   4.420   2.841  10.553  0.1453  0.1584 -1.2830
60864SOL    HW289454   4.378   2.716  10.479 -1.7358  0.8232 -1.3756
60865SOL     OW89455   5.280   9.144   1.531  0.3281 -0.8213 -0.2526
60865SOL    HW189456   5.209   9.169   1.472 -0.1089 -0.9081  0.2297
60865SOL    HW289457   5.322   9.070   1.488 -0.5160 -1.4258 -0.0646
60866SOL     OW89458  12.262   9.900   4.138  0.4295 -0.1390  0.0040
60866SOL    HW189459  12.187   9.841   4.124 -0.2226  0.5388  0.5339
60866SOL    HW289460  12.253   9.967   4.070  0.5968 -0.0906  0.0295
60867SOL     OW89461   5.096   8.566   7.370 -0.2947  0.0328 -0.0125
60867SOL    HW189462   5.046   8.647   7.384 -1.9949 -1.1857  1.3483
60867SOL    HW289463   5.188   8.595   7.369 -0.8517  1.9949  0.2120
60868SOL     OW89464  12.350   7.331   2.408  0.4752  0.0011 -0.5780
60868SOL    HW189465  12.314   7.318   2.320 -1.4998  2.3100 -0.2277
60868SOL    HW289466  12.328   7.422   2.429  2.0501 -0.0941  1.8113
60869SOL     OW89467  10.418   5.136   4.439 -0.5168  0.6506  1.0422
60869SOL    HW189468  10.407   5.185   4.520  1.1576  0.1904  1.5917
60869SOL    HW289469  10.430   5.203   4.372 -2.6717  1.0586  1.0020
60870SOL     OW89470   3.764   6.913   8.628 -0.0460  0.5527  0.1450
60870SOL    HW189471   3.722   6.984   8.677 -1.9402 -1.0911  1.0571
60870SOL    HW289472   3.701   6.890   8.560  0.2839 -0.6010  0.2065
60871SOL     OW89473   7.652   1.405   2.846  0.3969  0.4533 -0.4035
60871SOL    HW189474   7.734   1.357   2.833  1.0831  1.9176 -1.6971
60871SOL    HW289475   7.584   1.340   2.831  1.3056 -0.6437  0.0837
60872SOL     OW89476   4.323   4.943  11.276  0.2404  0.0870 -0.3416
60872SOL    HW189477   4.392   4.995  11.234 -0.3602  0.0211 -1.4457
60872SOL    HW289478   4.255   5.007  11.297  0.3883  0.0627  0.2262
60873SOL     OW89479   3.720  11.857   0.767 -0.4017 -0.2517 -0.1395
60873SOL    HW189480   3.720  11.935   0.711  1.8671  0.6799  1.0367
60873SOL    HW289481   3.671  11.884   0.845  0.1785 -0.0689  0.1654
60874SOL     OW89482   1.553   5.848   0.675 -1.0171  0.3566 -0.9718
60874SOL    HW189483   1.615   5.854   0.602 -1.1391 -0.8847 -1.2023
60874SOL    HW289484   1.598   5.889   0.748 -0.6834  1.1574 -1.6120
60875SOL     OW89485   4.355   3.395   6.940 -0.7526  0.0506  0.0747
60875SOL    HW189486   4.298   3.472   6.938  0.2188  0.7757 -1.0483
60875SOL    HW289487   4.296   3.321   6.927 -1.5142  0.7292 -0.4373
60876SOL     OW89488   3.508   5.261   0.199  0.5386  0.0952 -0.2636
60876SOL    HW189489   3.465   5.181   0.169  1.5585 -1.3346  1.8241
60876SOL    HW289490   3.567   5.285   0.128  0.7974 -1.4919 -0.6208
60877SOL     OW89491   5.643   8.580   0.887 -0.6734 -0.0341 -0.0984
60877SOL    HW189492   5.585   8.504   0.885  1.9877 -2.1744 -0.9842
60877SOL    HW289493   5.725   8.549   0.850  1.0429  2.8998  0.9335
60878SOL     OW89494   5.978  12.317  11.056 -0.1806 -0.7551  0.5380
60878SOL    HW189495   5.941  12.240  11.012 -2.3784  0.7907 -0.4980
60878SOL    HW289496   6.044  12.351  10.995  0.7594 -1.7454  0.9756
60879SOL     OW89497   2.911  12.326  10.250  0.2923 -0.1614 -0.0209
60879SOL    HW189498   2.999  12.343  10.217  0.3815 -0.6119 -0.0102
60879SOL    HW289499   2.911  12.364  10.338  0.2411  0.5025 -0.2977
60880SOL     OW89500  11.272   5.476   5.780  0.0391 -0.3284  0.0053
60880SOL    HW189501  11.302   5.526   5.704 -1.0559 -1.6889 -1.3899
60880SOL    HW289502  11.255   5.542   5.847 -1.0649  1.1426 -1.6453
60881SOL     OW89503   2.567   2.053   9.937  0.3628  0.5527  0.1746
60881SOL    HW189504   2.620   2.010   9.869 -0.9742 -0.3107 -0.3589
60881SOL    HW289505   2.602   2.018  10.019 -1.6794 -2.9564 -0.2509
60882SOL     OW89506   0.499   4.748   9.849  0.6056  0.4947 -0.2679
60882SOL    HW189507   0.586   4.754   9.888  0.3786  1.3909  0.1383
60882SOL    HW289508   0.446   4.703   9.914  1.2603 -2.1871 -1.4527
60883SOL     OW89509   8.492   9.498   3.354 -0.0824  0.0746  0.2076
60883SOL    HW189510   8.419   9.541   3.311 -0.3774 -0.1578  0.4716
60883SOL    HW289511   8.480   9.405   3.336 -0.5758 -0.0950  1.3214
60884SOL     OW89512   1.499   3.784   9.311 -0.3173  0.9655 -0.3210
60884SOL    HW189513   1.404   3.775   9.303 -0.0469 -1.8968 -1.5495
60884SOL    HW289514   1.521   3.735   9.390  0.3729 -1.6635 -2.0026
60885SOL     OW89515   1.560   3.298   2.483 -0.1844 -0.0057 -0.0429
60885SOL    HW189516   1.529   3.388   2.488  2.2109  0.8985 -0.0986
60885SOL    HW289517   1.620   3.297   2.408 -0.2034 -1.6881 -0.0922
60886SOL     OW89518   6.053   0.288   4.260 -0.5428 -0.0821 -0.3914
60886SOL    HW189519   6.081   0.331   4.179 -0.0340  0.0327 -0.1613
60886SOL    HW289520   5.965   0.257   4.242  0.0895 -1.3285 -1.4853
60887SOL     OW89521   3.181   4.227   0.166 -0.4315  0.8817 -0.2312
60887SOL    HW189522   3.254   4.212   0.106  0.2472  2.3018  0.1872
60887SOL    HW289523   3.119   4.157   0.146  1.6888 -1.3460  0.4402
60888SOL     OW89524   2.732   5.058   2.978  0.1195  0.2952  0.3255
60888SOL    HW189525   2.712   5.151   2.985 -0.3301  0.4189 -1.9953
60888SOL    HW289526   2.650   5.017   2.952  0.8459 -0.3844 -1.0110
60889SOL     OW89527   0.182   5.428   3.121  0.7061  0.5311  0.7592
60889SOL    HW189528   0.192   5.462   3.032 -1.5087  3.1311  1.3437
60889SOL    HW289529   0.264   5.383   3.139  1.1744 -0.2175 -2.6111
60890SOL     OW89530   7.560  11.238   8.675 -0.6411 -0.4975  0.4892
60890SOL    HW189531   7.618  11.253   8.749 -0.8535  0.4198  0.4846
60890SOL    HW289532   7.480  11.286   8.697 -0.4378  0.4095 -0.6534
60891SOL     OW89533   4.157  10.175   5.012  0.3891  0.7029 -0.0099
60891SOL    HW189534   4.062  10.185   5.014  0.1150 -1.2839 -0.9005
60891SOL    HW289535   4.177  10.151   4.921  1.5263 -0.6507  0.5591
60892SOL     OW89536   3.904   4.714   3.040  0.1442 -0.6081 -0.2618
60892SOL    HW189537   3.898   4.810   3.040 -0.0588 -0.5979  0.9859
60892SOL    HW289538   3.817   4.684   3.015  0.2260 -0.4697 -0.7170
60893SOL     OW89539   5.373   1.221   1.787 -0.1263 -0.0000  0.1085
60893SOL    HW189540   5.310   1.277   1.833  1.6548  1.4441  0.9331
60893SOL    HW289541   5.459   1.249   1.821  0.9040 -3.0306  0.3377
60894SOL     OW89542   5.377   3.013   1.845  0.1134  0.0969 -0.9045
60894SOL    HW189543   5.428   3.093   1.854 -0.1004  0.1919 -0.5327
60894SOL    HW289544   5.421   2.949   1.901 -0.1855  0.1871 -0.5594
60895SOL     OW89545   9.819  12.262   7.738  0.3029 -0.4513  0.1563
60895SOL    HW189546   9.815  12.234   7.647  0.1675 -1.3350  0.4257
60895SOL    HW289547   9.790  12.186   7.788  3.5901 -1.2074  1.1721
60896SOL     OW89548   3.841   7.575   1.164 -0.5558 -0.1253  0.4495
60896SOL    HW189549   3.897   7.531   1.100  0.5003  0.0591  1.2004
60896SOL    HW289550   3.827   7.663   1.128 -0.0601 -0.0598  0.4082
60897SOL     OW89551   4.483   4.874  11.007 -0.7584  0.7469 -0.6002
60897SOL    HW189552   4.464   4.782  11.026 -0.8265  0.9868  0.5617
60897SOL    HW289553   4.452   4.887  10.917  0.2168 -0.6365 -1.1790
60898SOL     OW89554   5.311  10.091   8.505 -0.1980 -0.0085  0.5429
60898SOL    HW189555   5.295  10.119   8.414 -0.8728  0.5639  0.8301
60898SOL    HW289556   5.275  10.003   8.510  1.6101 -0.8442 -0.2705
60899SOL     OW89557   2.485   0.084   1.997 -0.2283 -0.1266 -0.1640
60899SOL    HW189558   2.551   0.109   2.062 -1.6998  0.1067  1.2941
60899SOL    HW289559   2.519   0.003   1.959 -0.1963 -1.3492  2.2780
60900SOL     OW89560   1.067   8.031   4.997  0.1834 -0.2303  0.0307
60900SOL    HW189561   1.087   7.970   4.925 -0.5689  0.7476 -1.0282
60900SOL    HW289562   1.036   8.110   4.954  0.3277  0.6160  1.4262
60901SOL     OW89563   8.351  12.348   7.242  0.4488  0.1220  0.2128
60901SOL    HW189564   8.380  12.304   7.321 -0.1619 -1.0529 -0.1910
60901SOL    HW289565   8.255  12.344   7.247  0.4068  0.0996 -0.5543
60902SOL     OW89566   1.762   8.051  11.433 -0.6114 -0.2467  0.1653
60902SOL    HW189567   1.807   7.973  11.400  1.3333  1.0623 -0.4906
60902SOL    HW289568   1.675   8.021  11.457 -0.1420 -2.4675 -0.7043
60903SOL     OW89569  11.534   7.778   3.461 -0.0303 -0.2539  0.2806
60903SOL    HW189570  11.448   7.814   3.483  0.4275  1.2141 -0.1723
60903SOL    HW289571  11.571   7.841   3.399  0.9939 -1.3542 -0.2767
60904SOL     OW89572  10.989   1.259  10.585  0.0900 -0.5796 -0.0299
60904SOL    HW189573  11.037   1.296  10.659 -0.2271 -1.1558  0.4814
60904SOL    HW289574  10.926   1.327  10.561  0.8430 -0.0098 -0.4012
60905SOL     OW89575   9.601  11.026   7.564  0.2791 -0.2778  0.1165
60905SOL    HW189576   9.686  10.983   7.574  0.6886  0.8402  2.3075
60905SOL    HW289577   9.621  11.111   7.525 -0.1566 -0.9068 -1.5251
60906SOL     OW89578   3.112  10.464   1.277 -0.5618 -0.4149  0.1011
60906SOL    HW189579   3.081  10.551   1.252  1.6913  0.3359 -0.3831
60906SOL    HW289580   3.048  10.404   1.240 -1.4236  0.9931 -0.7996
60907SOL     OW89581   9.344   9.568   3.524  0.1693  0.2148 -0.1384
60907SOL    HW189582   9.286   9.554   3.599  0.6605  0.9246  0.3933
60907SOL    HW289583   9.357   9.481   3.487  1.3808 -0.4574  1.7007
60908SOL     OW89584   4.095   2.074   0.817  0.0888  0.5005  0.6755
60908SOL    HW189585   4.051   2.115   0.742 -0.0856  0.2379  0.6335
60908SOL    HW289586   4.188   2.073   0.793 -0.1148 -0.8691 -0.1609
60909SOL     OW89587   9.347  10.738   6.263  0.3365  0.0329  0.3355
60909SOL    HW189588   9.313  10.664   6.313  0.7920 -0.4124  0.0045
60909SOL    HW289589   9.283  10.752   6.193  0.4612 -0.3330  0.1441
60910SOL     OW89590  11.636   3.897   5.459 -0.0895  0.1324 -0.7717
60910SOL    HW189591  11.611   3.848   5.380  0.6211 -2.7103  0.6000
60910SOL    HW289592  11.624   3.834   5.530  1.9809  1.6320  1.0443
60911SOL     OW89593   5.019  11.579   6.509  0.3852 -0.2232  0.5984
60911SOL    HW189594   5.015  11.664   6.552 -0.3089  1.1765 -2.0188
60911SOL    HW289595   4.941  11.533   6.540 -0.0048  0.6553  0.9543
60912SOL     OW89596   5.649   0.939   5.157  0.2778  0.0881 -0.2355
60912SOL    HW189597   5.587   0.985   5.100  0.9190  1.3038  0.0152
60912SOL    HW289598   5.669   1.002   5.226  0.3974 -0.9485  0.7149
60913SOL     OW89599   7.094   3.463   8.603 -0.1378  0.2421 -0.5645
60913SOL    HW189600   7.027   3.422   8.548 -0.7265  0.2008  0.1646
60913SOL    HW289601   7.163   3.397   8.610 -0.2548  0.0811 -0.8922
60914SOL     OW89602   3.755   3.491   0.161 -0.0382  0.0601 -0.0436
60914SOL    HW189603   3.739   3.407   0.117  0.7280  0.7258 -1.6780
60914SOL    HW289604   3.671   3.536   0.156  0.2180  0.4169 -1.5347
60915SOL     OW89605   9.985   6.400   3.122 -0.1521  0.6038 -0.3071
60915SOL    HW189606   9.955   6.321   3.077 -0.4664 -0.1361  1.1422
60915SOL    HW289607  10.021   6.455   3.052 -2.1342  0.2517 -1.6971
60916SOL     OW89608   5.207   4.782   4.913 -0.3975 -0.0288 -0.2078
60916SOL    HW189609   5.262   4.814   4.842 -0.3871  2.7363  0.9256
60916SOL    HW289610   5.256   4.707   4.949  1.4170  0.8383 -0.7703
60917SOL     OW89611   2.785  11.060  10.636  0.5013  0.2914 -0.3080
60917SOL    HW189612   2.773  11.131  10.573 -1.0107 -0.2619 -0.6889
60917SOL    HW289613   2.704  11.009  10.630  0.9647 -0.6447  0.9932
60918SOL     OW89614   1.632  11.988   8.973  0.2022  0.0835 -0.4283
60918SOL    HW189615   1.568  11.920   8.951  1.9917 -1.2384 -1.9173
60918SOL    HW289616   1.717  11.947   8.956  1.4067  2.3634 -0.3217
60919SOL     OW89617   8.108   0.053   0.911 -0.3189 -0.5003 -0.1893
60919SOL    HW189618   8.182   0.114   0.910 -0.8021  0.1416  1.0239
60919SOL    HW289619   8.141  -0.025   0.867  0.6275  0.2790 -0.9174
60920SOL     OW89620   5.908   2.031   2.144 -0.2050  0.0454 -0.0838
60920SOL    HW189621   5.893   2.126   2.145 -2.3729 -0.2510  0.2651
60920SOL    HW289622   5.928   2.010   2.235  0.5609  0.1841 -0.2114
60921SOL     OW89623   4.022   2.233   3.864 -0.3477  0.1204  0.0379
60921SOL    HW189624   4.072   2.311   3.890 -2.0579  1.7567 -1.3296
60921SOL    HW289625   3.949   2.230   3.927 -0.4357 -0.2301 -0.0788
60922SOL     OW89626   7.907   8.627   0.456  0.7328 -0.0262 -0.0767
60922SOL    HW189627   7.981   8.640   0.514  0.3018  0.3242  0.4006
60922SOL    HW289628   7.941   8.572   0.386  1.6395  0.7090 -0.2402
60923SOL     OW89629   8.454   6.058  10.841 -0.2758  0.5586  0.0840
60923SOL    HW189630   8.419   5.970  10.846  0.1889  0.4167  1.0218
60923SOL    HW289631   8.531   6.050  10.784 -0.5036  0.4524 -0.2093
60924SOL     OW89632   2.006  10.187   9.023  0.3134 -0.3723  0.5074
60924SOL    HW189633   2.077  10.251   9.025 -0.0867  0.1349 -0.4383
60924SOL    HW289634   2.050  10.103   9.010  0.7157  0.2967 -4.3461
60925SOL     OW89635   9.304   6.163  10.511 -0.0719 -0.3836  0.0931
60925SOL    HW189636   9.269   6.152  10.422  0.3538  0.4225 -0.1831
60925SOL    HW289637   9.391   6.124  10.507  0.5383  0.9697 -0.2653
60926SOL     OW89638   5.991   1.082   3.219 -0.1119 -0.1662 -0.6185
60926SOL    HW189639   5.929   1.080   3.292  0.1869 -1.6380 -0.3719
60926SOL    HW289640   5.995   1.175   3.193 -1.3457  0.1547  0.2551
60927SOL     OW89641  10.714   1.772   2.164 -0.3970 -0.5738  0.2471
60927SOL    HW189642  10.691   1.852   2.212 -0.3388 -0.2448 -0.2636
60927SOL    HW289643  10.732   1.707   2.232  1.8904  0.4866  0.7567
60928SOL     OW89644  12.150   5.024   8.412 -0.0396  0.9378  0.4045
60928SOL    HW189645  12.230   4.980   8.443  0.1770 -0.8222 -2.3671
60928SOL    HW289646  12.180   5.113   8.390  1.0244  0.5079  0.0205
60929SOL     OW89647   5.519   1.062   3.522 -0.2192 -0.0948 -0.2022
60929SOL    HW189648   5.489   0.972   3.509 -0.0837 -0.1238 -0.3112
60929SOL    HW289649   5.608   1.063   3.487 -0.9063  0.5648 -2.0970
60930SOL     OW89650   9.543   3.267   8.022  0.4242  0.0199 -0.0193
60930SOL    HW189651   9.547   3.241   8.114  0.5659 -0.4495 -0.1566
60930SOL    HW289652   9.632   3.255   7.989  0.0517 -1.3228 -0.6195
60931SOL     OW89653   5.005   6.867   2.302  0.1475  0.1893 -0.3894
60931SOL    HW189654   4.949   6.932   2.343  1.0746  1.9424 -1.7492
60931SOL    HW289655   5.046   6.820   2.375 -0.1098  1.5183  0.6396
60932SOL     OW89656   2.842   9.172   1.001 -0.8097 -0.1419  0.1199
60932SOL    HW189657   2.773   9.183   0.936 -0.0429  0.5365 -0.6065
60932SOL    HW289658   2.816   9.229   1.073 -0.6729  0.6628 -0.4515
60933SOL     OW89659   7.573   3.081   7.445  0.3854  0.5061  0.2235
60933SOL    HW189660   7.514   3.027   7.392  0.1710 -0.5056  1.4383
60933SOL    HW289661   7.541   3.170   7.434  0.0643  0.2610 -0.9619
60934SOL     OW89662  10.790  11.183   8.644 -0.1141  0.8510  0.4898
60934SOL    HW189663  10.755  11.243   8.710 -0.9748  0.8624  0.0429
60934SOL    HW289664  10.863  11.140   8.687  1.0041  2.7360  0.5989
60935SOL     OW89665   3.691   0.876   3.231  0.1136 -0.2563 -0.4510
60935SOL    HW189666   3.759   0.811   3.213  0.4293 -0.1159  0.2197
60935SOL    HW289667   3.634   0.873   3.154  0.9384 -0.3002 -1.0775
60936SOL     OW89668   0.444   9.739   6.937 -0.3180 -0.6820  0.0029
60936SOL    HW189669   0.412   9.817   6.984  0.4354  1.4944 -2.8145
60936SOL    HW289670   0.527   9.767   6.899  0.2158 -3.0794 -0.7285
60937SOL     OW89671   4.221   8.355   3.005  0.1317 -0.1562 -0.1647
60937SOL    HW189672   4.159   8.291   3.038  0.9795 -1.7585 -1.5442
60937SOL    HW289673   4.167   8.416   2.954 -0.4253 -1.1298 -0.7744
60938SOL     OW89674  10.062   4.018   7.930 -0.2087 -0.0515 -0.6019
60938SOL    HW189675  10.039   3.932   7.966 -0.8332  0.2212 -0.3323
60938SOL    HW289676  10.080   4.001   7.837  0.3094 -0.5756 -0.4123
60939SOL     OW89677   7.638   8.724   4.044  0.0794 -0.6096 -0.3358
60939SOL    HW189678   7.710   8.678   4.001 -1.1729 -0.6184 -2.5746
60939SOL    HW289679   7.565   8.663   4.040 -0.6010  0.1617  0.0823
60940SOL     OW89680   5.064   9.909   4.208 -0.0754 -0.5093  0.1164
60940SOL    HW189681   5.007   9.838   4.237  0.3338 -0.6685  0.5237
60940SOL    HW289682   5.014   9.951   4.137 -0.5701 -0.8336  0.2645
60941SOL     OW89683   3.895  11.498   0.570  0.3254  0.3284 -0.1562
60941SOL    HW189684   3.840  11.474   0.496  1.0318 -0.7845 -0.3334
60941SOL    HW289685   3.919  11.589   0.554  0.5729  0.0581 -1.3576
60942SOL     OW89686   4.020   3.616   0.973  0.0259 -0.2499 -0.2215
60942SOL    HW189687   4.062   3.702   0.984  1.3117 -0.8261 -0.3951
60942SOL    HW289688   4.073   3.573   0.906 -0.5603 -1.2106 -0.0734
60943SOL     OW89689   0.728   6.394   2.752  0.0690 -0.4913  0.7794
60943SOL    HW189690   0.804   6.414   2.699 -0.7874  0.4322 -0.1484
60943SOL    HW289691   0.689   6.317   2.709 -0.0770 -0.3465  0.6520
60944SOL     OW89692   8.393   6.062  12.411  0.1109  0.3529  0.4375
60944SOL    HW189693   8.480   6.024  12.422  0.5911  0.0626 -3.0264
60944SOL    HW289694   8.402   6.152  12.442  1.0338 -0.2464  1.9925
60945SOL     OW89695   0.532   3.442   6.357 -0.2838 -0.1878 -0.2334
60945SOL    HW189696   0.607   3.397   6.319  0.3180  1.4760 -1.1532
60945SOL    HW289697   0.461   3.379   6.353  0.5415 -1.0890 -1.3552
60946SOL     OW89698   2.381   4.067   2.803 -0.0723  1.0255  0.0865
60946SOL    HW189699   2.426   4.143   2.841  1.5874 -0.3809  1.0730
60946SOL    HW289700   2.312   4.046   2.865  1.2942  0.0205  1.3194
60947SOL     OW89701   3.184   4.105   5.201  0.1400 -0.5751 -0.4073
60947SOL    HW189702   3.113   4.133   5.142 -0.0085 -0.0170  0.0322
60947SOL    HW289703   3.153   4.128   5.288  0.5791 -0.9468 -0.1505
60948SOL     OW89704   4.852  10.414   5.924  0.2056 -0.1846  0.0173
60948SOL    HW189705   4.848  10.509   5.928  2.7510  0.0424 -1.0082
60948SOL    HW289706   4.811  10.391   5.841 -2.0959 -0.2061  1.0899
60949SOL     OW89707  11.008   9.930   1.411  0.1814  0.5675  0.4578
60949SOL    HW189708  10.971   9.900   1.328  0.3025  2.3727 -0.2897
60949SOL    HW289709  10.996  10.025   1.410  2.8393  0.9911  1.1575
60950SOL     OW89710  11.048   7.896   5.458 -0.0470 -0.0176 -0.2644
60950SOL    HW189711  11.020   7.953   5.529  1.2790  1.6599 -1.0272
60950SOL    HW289712  11.054   7.953   5.381 -0.1898 -1.5040 -1.4498
60951SOL     OW89713   7.642   8.390   1.477 -0.3001  0.5026 -0.1029
60951SOL    HW189714   7.688   8.308   1.458  1.0360  1.2967 -0.4184
60951SOL    HW289715   7.667   8.411   1.567 -2.8296 -0.8097  0.9793
60952SOL     OW89716   6.266   9.039   3.868  0.0693  0.4842 -0.1253
60952SOL    HW189717   6.271   8.992   3.951  1.6723  1.7886  0.5554
60952SOL    HW289718   6.241   8.971   3.804  2.8854 -1.5107  0.6991
60953SOL     OW89719   9.628  11.327   2.060  0.9787 -0.3217 -0.0800
60953SOL    HW189720   9.543  11.313   2.020  0.8280 -0.7386  0.3729
60953SOL    HW289721   9.690  11.289   1.997  0.8488  0.1124 -0.4766
60954SOL     OW89722   8.504   8.514  10.390 -0.0611  0.2773 -0.3356
60954SOL    HW189723   8.581   8.491  10.443  0.1186 -0.2466 -0.8051
60954SOL    HW289724   8.430   8.474  10.436  0.0534  0.1001 -0.3034
60955SOL     OW89725   1.112  12.133   0.134 -0.2263  0.1750  0.2924
60955SOL    HW189726   1.197  12.090   0.130 -0.5130 -0.3599 -0.3260
60955SOL    HW289727   1.049  12.061   0.139 -0.6121  0.5832  1.5752
60956SOL     OW89728  12.095   8.054   6.314 -0.3662 -0.2973  0.1271
60956SOL    HW189729  12.143   7.986   6.360 -0.3724 -0.1568  0.3439
60956SOL    HW289730  12.122   8.047   6.223  1.5990  1.0762  0.5471
60957SOL     OW89731   7.015   8.174   0.774 -0.7564 -0.2503 -0.1662
60957SOL    HW189732   6.934   8.223   0.787 -0.9713 -0.5815 -0.2429
60957SOL    HW289733   7.033   8.182   0.680 -0.9371 -0.5446 -0.2256
60958SOL     OW89734  10.255  11.936   2.108  0.0271 -0.4768  0.5669
60958SOL    HW189735  10.264  11.877   2.182  1.0823 -1.4868 -0.3389
60958SOL    HW289736  10.322  11.909   2.046  0.3934  1.5287  0.0008
60959SOL     OW89737   0.582   2.913   4.144 -0.5720  0.0512  0.0211
60959SOL    HW189738   0.515   2.926   4.076  0.1995  0.3551 -0.7013
60959SOL    HW289739   0.553   2.967   4.217 -2.7655 -2.1934  0.9726
60960SOL     OW89740   5.198   9.091   1.008 -0.0366 -0.1509  0.0857
60960SOL    HW189741   5.119   9.038   1.016 -0.1789 -0.4878 -2.6848
60960SOL    HW289742   5.267   9.029   0.984  0.5273  0.4668  0.0578
60961SOL     OW89743   8.285   0.809   5.571 -0.0128 -0.0911  0.2166
60961SOL    HW189744   8.315   0.860   5.496  2.6939  2.0140  2.5017
60961SOL    HW289745   8.335   0.727   5.566  2.7796  1.3973  1.3242
60962SOL     OW89746   8.181  10.711   4.331 -0.0160 -0.2710  0.1021
60962SOL    HW189747   8.254  10.760   4.369 -0.3007 -0.6191  1.1230
60962SOL    HW289748   8.205  10.700   4.239 -0.1995  2.3106 -0.3449
60963SOL     OW89749   3.380   4.543   1.338  0.1850 -0.4135 -0.5487
60963SOL    HW189750   3.315   4.589   1.284  1.7996  1.6212 -0.9056
60963SOL    HW289751   3.454   4.529   1.279  0.8358 -0.8933  0.3567
60964SOL     OW89752   8.742  12.052   8.646  0.1328  0.0673  1.2199
60964SOL    HW189753   8.752  12.120   8.712  0.0077 -0.3783  1.7008
60964SOL    HW289754   8.778  11.973   8.687  1.0341  0.0116  0.3707
60965SOL     OW89755   0.237  10.562  12.245  0.2228 -0.7662  0.1521
60965SOL    HW189756   0.148  10.574  12.278  0.7761  0.0840  1.4011
60965SOL    HW289757   0.238  10.609  12.162 -0.1908  0.1791  0.6696
60966SOL     OW89758   8.640   7.952   1.587  0.2773  0.1970 -0.0809
60966SOL    HW189759   8.643   7.890   1.515 -0.5009 -0.1259  0.1617
60966SOL    HW289760   8.723   8.000   1.580 -0.4409  1.2577 -2.1417
60967SOL     OW89761   3.361   6.468   6.814  0.1189  0.1999 -0.3264
60967SOL    HW189762   3.446   6.509   6.798  0.2184  0.2538  0.2960
60967SOL    HW289763   3.300   6.518   6.760  0.8286 -1.4029 -2.7262
60968SOL     OW89764   1.328   6.785  12.474 -0.0164  0.3304  0.0599
60968SOL    HW189765   1.309   6.829  12.557 -0.5994  1.6650 -0.7569
60968SOL    HW289766   1.264   6.714  12.470  1.5428 -1.3013  1.8307
60969SOL     OW89767  10.102   8.031   6.717 -0.2350 -0.8074  0.1602
60969SOL    HW189768  10.120   8.118   6.683 -1.4108 -0.3351  0.6827
60969SOL    HW289769  10.171   8.017   6.783  0.3200 -0.5390 -0.3485
60970SOL     OW89770   4.730   2.041   4.843 -0.4398 -0.2104 -0.5926
60970SOL    HW189771   4.664   1.999   4.897  0.6503 -1.7097 -0.3636
60970SOL    HW289772   4.789   1.970   4.817 -0.4755  0.5718 -3.1145
60971SOL     OW89773   2.890   7.958   2.313 -0.3892 -0.0497  0.8203
60971SOL    HW189774   2.956   7.905   2.359 -1.1708 -1.2116  0.6564
60971SOL    HW289775   2.884   7.919   2.226 -0.6307  0.6357  0.5214
60972SOL     OW89776  11.902   4.982   6.920  0.2328  0.0198  0.0671
60972SOL    HW189777  11.871   4.980   7.010  1.8096  0.1157  0.6453
60972SOL    HW289778  11.943   4.897   6.906 -0.5291 -0.2327 -0.7855
60973SOL     OW89779   5.962   2.396  10.655  0.2057 -0.1850 -0.2130
60973SOL    HW189780   5.969   2.327  10.722 -0.9908 -1.0844 -0.9783
60973SOL    HW289781   5.881   2.377  10.609  0.2026  1.3558 -0.9103
60974SOL     OW89782  11.935   4.588  10.298  0.1895  0.3328  0.2041
60974SOL    HW189783  11.964   4.678  10.305 -0.1567  0.6937 -2.1581
60974SOL    HW289784  11.845   4.589  10.331  0.6045  0.5358  1.3967
60975SOL     OW89785   1.906   7.608   4.219 -0.2981 -0.2064  0.6126
60975SOL    HW189786   1.999   7.619   4.197  0.1397 -0.3917  2.2373
60975SOL    HW289787   1.878   7.693   4.252 -0.7489 -0.1186  0.0222
60976SOL     OW89788   1.646   3.383   1.045 -0.6793  0.3324 -0.3147
60976SOL    HW189789   1.673   3.299   1.082 -0.1831  0.2510 -0.8525
60976SOL    HW289790   1.657   3.445   1.117 -2.2366 -0.2599  0.4628
60977SOL     OW89791   8.310   8.670  11.106  0.1511  0.5816  0.3381
60977SOL    HW189792   8.387   8.614  11.109 -0.3739 -0.1267  1.6278
60977SOL    HW289793   8.338   8.752  11.146  0.0973  0.1119  1.3718
60978SOL     OW89794  12.250   7.973   1.563 -0.2106  0.2373  0.2611
60978SOL    HW189795  12.158   7.993   1.543 -0.1161  2.0147  1.4056
60978SOL    HW289796  12.276   7.911   1.495 -2.1754 -0.1151 -0.2480
60979SOL     OW89797   4.021   4.054   0.855 -0.2757 -0.2178 -0.5325
60979SOL    HW189798   4.090   4.119   0.872 -1.1207  0.3549  0.9585
60979SOL    HW289799   3.942   4.107   0.843 -0.8462 -0.9478 -0.0408
60980SOL     OW89800   3.524   8.525  10.697 -0.0871 -0.0567  0.2967
60980SOL    HW189801   3.568   8.486  10.773 -0.9411  0.1135  0.8991
60980SOL    HW289802   3.593   8.573  10.651  0.5422 -0.5606  0.6988
60981SOL     OW89803   7.033   6.610   2.251 -0.0847  0.2158  0.4735
60981SOL    HW189804   6.974   6.574   2.184  0.6502 -0.1583  0.0114
60981SOL    HW289805   7.114   6.628   2.204  0.3221  0.2994  1.1956
60982SOL     OW89806   0.351   1.647   8.623  0.3725 -0.5291 -0.2118
60982SOL    HW189807   0.311   1.727   8.658  0.8886 -0.4761  0.2598
60982SOL    HW289808   0.383   1.601   8.700 -0.1693 -1.3333 -0.4552
60983SOL     OW89809   2.309  10.118   2.328  0.0693  0.2467 -0.4079
60983SOL    HW189810   2.393  10.096   2.368 -0.0979  1.3519  0.6052
60983SOL    HW289811   2.327  10.194   2.274 -0.2018  0.2305 -0.5250
60984SOL     OW89812   3.263  10.487   1.755 -0.1386 -0.0897 -0.6069
60984SOL    HW189813   3.180  10.466   1.712 -0.3104 -0.6870  0.0052
60984SOL    HW289814   3.302  10.401   1.775 -0.8420  0.1182  1.9340
60985SOL     OW89815  11.931   4.751   3.685 -0.7940 -1.2508 -0.2141
60985SOL    HW189816  11.839   4.730   3.703 -1.0392  0.4876  0.7721
60985SOL    HW289817  11.979   4.672   3.710 -1.8270 -1.4785  1.1563
60986SOL     OW89818   4.196   9.053   4.583 -0.0638  0.2812  0.0833
60986SOL    HW189819   4.159   8.968   4.563  0.7409  0.4551 -2.4438
60986SOL    HW289820   4.125   9.100   4.628 -1.7772 -0.5084 -1.6515
60987SOL     OW89821   8.949  11.161   7.595  0.3357 -0.6181  0.1099
60987SOL    HW189822   8.894  11.225   7.552 -0.2635 -0.0001  1.7174
60987SOL    HW289823   8.911  11.076   7.571  1.9206 -0.5413 -3.1055
60988SOL     OW89824   0.706   6.831  11.281 -0.0348 -0.2200 -0.1379
60988SOL    HW189825   0.635   6.770  11.262  1.0087 -1.1665 -1.1574
60988SOL    HW289826   0.738   6.804  11.367 -0.4849 -0.1923  0.0430
60989SOL     OW89827   8.550   8.690   9.573 -0.0656  0.3889 -0.3285
60989SOL    HW189828   8.643   8.712   9.567  0.7301 -2.0596  1.4051
60989SOL    HW289829   8.511   8.763   9.622  1.3298  0.6276  0.4786
60990SOL     OW89830   3.097   1.326   8.052  0.7609  0.1463  0.9196
60990SOL    HW189831   3.158   1.271   8.101  0.5410 -1.1292 -0.1444
60990SOL    HW289832   3.132   1.327   7.963  0.9738  2.1158  1.0005
60991SOL     OW89833   7.721  11.643   4.363  0.1059 -0.8500  0.3805
60991SOL    HW189834   7.677  11.572   4.315  0.4189 -1.9395  1.6405
60991SOL    HW289835   7.793  11.599   4.408 -0.6815 -0.0659  2.5272
60992SOL     OW89836   8.223   2.541  10.383  0.0571 -0.1062  0.0582
60992SOL    HW189837   8.171   2.520  10.460  0.5466 -0.3151  0.3385
60992SOL    HW289838   8.159   2.562  10.315 -0.4334 -1.3993  0.0930
60993SOL     OW89839   1.358  12.003  12.445  0.3439 -0.0880  0.4849
60993SOL    HW189840   1.338  11.911  12.427  0.5962 -0.2107  0.8293
60993SOL    HW289841   1.288  12.051  12.400 -0.8354 -0.5141  1.7662
60994SOL     OW89842  11.108   3.983   3.502 -0.1480 -0.1140  0.0602
60994SOL    HW189843  11.195   3.943   3.500 -0.2033 -0.2847  0.7018
60994SOL    HW289844  11.085   3.984   3.595 -0.7475  0.1131 -0.0884
60995SOL     OW89845   5.103   7.370   9.292 -0.1669 -0.1236 -0.1432
60995SOL    HW189846   5.168   7.434   9.320  0.5918 -1.2988  0.8786
60995SOL    HW289847   5.019   7.410   9.316  0.1801  1.1644 -0.9700
60996SOL     OW89848   9.490  11.027   0.566  0.6713 -0.0499 -0.1070
60996SOL    HW189849   9.417  11.022   0.505 -0.4579  0.7650  1.1236
60996SOL    HW289850   9.476  10.953   0.626  1.6748 -0.7413 -0.6838
60997SOL     OW89851   0.345   5.456   7.256 -0.8566  0.8806 -0.0863
60997SOL    HW189852   0.351   5.364   7.281 -1.3923  0.9939  0.4939
60997SOL    HW289853   0.257   5.464   7.218 -0.7259  1.1075 -0.3468
60998SOL     OW89854  10.876  12.286   9.818 -0.2377  0.5669 -0.3043
60998SOL    HW189855  10.850  12.259   9.906  0.4948 -1.4685 -0.6559
60998SOL    HW289856  10.952  12.343   9.832 -0.0385  0.1448  0.3918
60999SOL     OW89857   2.815  10.172   2.837  0.3208  0.2786 -0.0180
60999SOL    HW189858   2.803  10.078   2.848  0.3993  0.1053 -1.3308
60999SOL    HW289859   2.834  10.204   2.926  0.7537 -0.9968  0.3694
61000SOL     OW89860   2.237   9.101   1.530 -0.3614 -0.1753 -0.6698
61000SOL    HW189861   2.266   9.069   1.445 -1.4436  0.1341 -1.1748
61000SOL    HW289862   2.142   9.108   1.522 -0.3064  1.7395 -0.0934
61001SOL     OW89863   7.457   1.010   8.283 -0.1037 -0.4817 -0.2032
61001SOL    HW189864   7.419   0.922   8.280 -0.5073 -0.4140  1.8182
61001SOL    HW289865   7.399   1.059   8.340  0.4874  0.9349 -0.7802
61002SOL     OW89866   8.196   0.132   4.876  0.0801  0.0466  0.9109
61002SOL    HW189867   8.256   0.097   4.942 -1.7467  0.7760  3.0659
61002SOL    HW289868   8.147   0.201   4.921 -1.3743  0.4691 -1.1579
61003SOL     OW89869   6.067   4.369   9.155 -0.1460  0.0377  0.1244
61003SOL    HW189870   6.147   4.418   9.168  1.0677 -2.0486  0.9950
61003SOL    HW289871   6.048   4.379   9.061  1.3366  0.2773 -0.1762
61004SOL     OW89872   7.109   0.900  11.423 -0.4334 -0.5447 -0.0120
61004SOL    HW189873   7.183   0.948  11.387 -1.4461 -0.6038 -2.3488
61004SOL    HW289874   7.032   0.950  11.397 -1.2774 -0.8585  1.7492
61005SOL     OW89875   0.805   6.883   9.225  0.1476 -0.0873  0.8285
61005SOL    HW189876   0.844   6.800   9.252  0.8336 -0.1431 -0.2890
61005SOL    HW289877   0.711   6.868   9.233  0.2834 -0.6819  1.4584
61006SOL     OW89878   9.691   5.095   0.495  0.6053 -0.0340  0.0563
61006SOL    HW189879   9.742   5.058   0.567  1.2684 -1.3751 -1.0646
61006SOL    HW289880   9.680   5.023   0.433 -2.1144  0.3796 -0.0727
61007SOL     OW89881   9.422   0.845  10.624 -0.0722  0.1753 -0.3925
61007SOL    HW189882   9.476   0.832  10.702  0.0552 -0.8468 -0.6380
61007SOL    HW289883   9.467   0.915  10.575  0.6333 -0.1651 -0.2435
61008SOL     OW89884   5.642   1.760   0.530 -0.6051  0.3171 -0.0466
61008SOL    HW189885   5.557   1.732   0.497 -1.2945  1.5777  0.5584
61008SOL    HW289886   5.703   1.741   0.458 -1.1767 -1.5978 -0.0783
61009SOL     OW89887   6.672   3.291   5.527  0.0638  0.3694  0.0117
61009SOL    HW189888   6.595   3.270   5.474 -1.1711 -0.9484  2.1573
61009SOL    HW289889   6.732   3.218   5.513  0.0770  0.4152 -0.1700
61010SOL     OW89890   7.334   2.994  12.306 -0.2183  0.0753  0.1643
61010SOL    HW189891   7.251   3.032  12.276 -0.4377  0.1198  0.8084
61010SOL    HW289892   7.396   3.014  12.237 -1.4392 -2.8213 -2.0022
61011SOL     OW89893   9.039   3.747   0.237 -0.2485 -0.1419  0.5687
61011SOL    HW189894   9.115   3.755   0.179  0.0838 -0.5862  0.9352
61011SOL    HW289895   9.042   3.657   0.268 -0.9909 -0.1964  0.5063
61012SOL     OW89896   2.135   6.627   1.471 -0.6382  0.0675  0.0743
61012SOL    HW189897   2.065   6.643   1.534 -2.1106 -1.8539 -1.0046
61012SOL    HW289898   2.144   6.532   1.467  2.7571  0.2156  0.8831
61013SOL     OW89899   5.162   3.697   0.428 -0.4850  0.4577  0.0422
61013SOL    HW189900   5.226   3.751   0.475 -0.5834  1.7579 -1.2466
61013SOL    HW289901   5.080   3.708   0.477 -0.2531  0.6016  0.3996
61014SOL     OW89902   9.732   4.955   8.787  0.2652  0.2016 -0.0985
61014SOL    HW189903   9.674   5.027   8.810  0.8220  0.7617 -0.4041
61014SOL    HW289904   9.703   4.929   8.699  1.3653  1.4473 -0.8776
61015SOL     OW89905   2.726   7.081   5.860 -0.3692 -0.4927 -0.2680
61015SOL    HW189906   2.785   7.110   5.930 -1.0417 -1.6201  0.8175
61015SOL    HW289907   2.772   7.007   5.819 -1.6840 -2.6130  1.7927
61016SOL     OW89908   6.095  11.995   9.998 -0.0973  0.0562 -0.3909
61016SOL    HW189909   6.190  12.001  10.002 -0.1171  0.2751 -0.1940
61016SOL    HW289910   6.066  12.016  10.087 -0.3234 -0.1106 -0.4249
61017SOL     OW89911   5.342   7.339  11.236  0.3879 -0.3286 -0.3269
61017SOL    HW189912   5.314   7.384  11.156  0.8230 -0.9760 -0.8511
61017SOL    HW289913   5.268   7.283  11.259  1.8826 -3.8111 -3.0080
61018SOL     OW89914   4.705   5.936  10.543  0.4493 -0.4857  0.4635
61018SOL    HW189915   4.692   6.030  10.528 -0.0772 -0.3012  1.9264
61018SOL    HW289916   4.772   5.932  10.612  1.0752 -1.2151 -0.1726
61019SOL     OW89917   4.348   6.568   8.552  0.4123 -0.0021 -0.0307
61019SOL    HW189918   4.405   6.579   8.628 -0.9917 -0.6289  1.1622
61019SOL    HW289919   4.285   6.502   8.579 -1.9228  1.8489 -0.6493
61020SOL     OW89920   0.060   4.611   1.161 -0.2312 -0.0010 -0.2721
61020SOL    HW189921  -0.035   4.617   1.162 -0.1768  2.2329  2.0474
61020SOL    HW289922   0.090   4.700   1.143  1.3994 -0.3829  0.3150
61021SOL     OW89923   0.667   7.313   8.391 -0.8804  0.0642  0.2137
61021SOL    HW189924   0.683   7.407   8.387 -2.3498  0.3460  0.0735
61021SOL    HW289925   0.582   7.301   8.347 -0.6024 -1.3571 -0.0035
61022SOL     OW89926   9.692  12.040   0.105  0.1526  0.4612 -0.2546
61022SOL    HW189927   9.744  11.984   0.046  2.5925  0.4515  1.7209
61022SOL    HW289928   9.686  12.123   0.059  0.8500  0.0725 -1.0886
61023SOL     OW89929   4.224   3.020   4.254  0.7575  0.3567 -0.8005
61023SOL    HW189930   4.291   2.955   4.275  0.1496  0.2320  0.8421
61023SOL    HW289931   4.273   3.101   4.238  1.3046  0.3428  0.6896
61024SOL     OW89932   8.739   5.511   5.372  0.2169  0.2494 -0.4308
61024SOL    HW189933   8.732   5.439   5.309  0.0553 -0.0210 -0.1069
61024SOL    HW289934   8.828   5.505   5.406  0.2267  0.2491 -0.4574
61025SOL     OW89935   4.286   5.859   3.274 -0.3456 -0.0293  0.0132
61025SOL    HW189936   4.287   5.885   3.366 -0.5399  0.7319 -0.1987
61025SOL    HW289937   4.347   5.919   3.231  2.4776 -2.5494  0.1940
61026SOL     OW89938   9.185   2.953   1.575  0.6429 -0.3804  0.2688
61026SOL    HW189939   9.103   2.927   1.617  0.4707  2.2062  1.7841
61026SOL    HW289940   9.159   2.986   1.489 -0.5507  3.3409  1.8449
61027SOL     OW89941   7.668   5.619   9.093 -0.0972  0.2548 -0.1093
61027SOL    HW189942   7.747   5.673   9.098  0.1736 -0.2175  0.7126
61027SOL    HW289943   7.604   5.663   9.149  0.6400 -1.1181  1.9115
61028SOL     OW89944  11.978   6.835  12.259 -0.0141 -0.1846  0.0686
61028SOL    HW189945  11.919   6.790  12.320 -0.2979 -0.7979 -0.6365
61028SOL    HW289946  11.999   6.768  12.193  1.0321  0.1939  0.0082
61029SOL     OW89947  11.345   0.011   4.852  0.9716 -0.0493 -0.7882
61029SOL    HW189948  11.389  -0.050   4.911  0.9040  1.2526  0.6772
61029SOL    HW289949  11.268  -0.037   4.821  0.0118 -0.1814  1.6319
61030SOL     OW89950  10.325  12.121   6.496 -0.3606  0.4202  0.2590
61030SOL    HW189951  10.411  12.119   6.538 -0.0051  0.0602 -0.4737
61030SOL    HW289952  10.265  12.143   6.567  0.3042  0.4628  0.8252
61031SOL     OW89953   5.336   5.061   2.188 -0.3873  0.1115 -0.3513
61031SOL    HW189954   5.367   5.122   2.255  2.6069  0.7448 -2.1315
61031SOL    HW289955   5.315   4.981   2.237 -1.7290  1.6075  1.6934
61032SOL     OW89956  11.653   4.928   5.800 -0.0503 -0.0759 -0.8394
61032SOL    HW189957  11.604   4.980   5.737  0.8080  1.3614 -0.3703
61032SOL    HW289958  11.730   4.981   5.820  0.0641 -0.8225  0.8754
61033SOL     OW89959   8.016   3.959   5.120  0.2316  0.2749 -0.4119
61033SOL    HW189960   7.948   4.012   5.162  1.4542  1.4512  0.1754
61033SOL    HW289961   7.968   3.895   5.067 -1.3098  1.1971 -0.1866
61034SOL     OW89962   5.476   2.701   8.954 -0.1146 -0.1012 -0.1172
61034SOL    HW189963   5.467   2.794   8.974 -0.5328 -0.5395  1.9905
61034SOL    HW289964   5.518   2.698   8.868 -0.4164  2.0175 -0.3728
61035SOL     OW89965   3.623   6.203   3.171 -0.3134  0.2112 -0.2259
61035SOL    HW189966   3.591   6.269   3.233 -0.6678 -0.2680  0.1069
61035SOL    HW289967   3.546   6.181   3.118  0.1480  1.1277 -1.3084
61036SOL     OW89968  10.094   0.383   1.770 -0.1328 -0.8212  0.2030
61036SOL    HW189969  10.058   0.471   1.766  0.9399 -0.3116  1.1489
61036SOL    HW289970  10.155   0.385   1.844 -0.2938 -2.4329  0.4209
61037SOL     OW89971  10.106   8.330   5.311  0.7121 -0.3176 -0.1670
61037SOL    HW189972  10.198   8.313   5.332  0.4844 -0.4015  0.8104
61037SOL    HW289973  10.107   8.365   5.222  1.7372  0.2215  0.0502
61038SOL     OW89974   7.901   9.893  11.248  0.6558 -0.4451 -0.1932
61038SOL    HW189975   7.920   9.855  11.334  3.8851 -1.2221 -1.1204
61038SOL    HW289976   7.984   9.890  11.201  0.1826  4.1514 -1.8447
61039SOL     OW89977   2.966   8.466   1.693  0.1637  0.0926 -0.5232
61039SOL    HW189978   2.980   8.520   1.615 -1.6907 -1.8432 -2.3150
61039SOL    HW289979   3.025   8.392   1.681 -0.7900 -0.6728 -0.5857
61040SOL     OW89980   7.750   7.756   1.621  0.1360  0.0483  0.2189
61040SOL    HW189981   7.683   7.703   1.578  0.3583 -1.2926  1.4390
61040SOL    HW289982   7.808   7.783   1.550  0.9396 -2.7540 -0.3490
61041SOL     OW89983   9.737   3.033   4.922 -0.6223  0.1666 -0.2120
61041SOL    HW189984   9.817   2.990   4.891  0.7495  1.4008  1.4276
61041SOL    HW289985   9.666   2.984   4.880  0.9648 -1.0390 -1.6535
61042SOL     OW89986   8.674   8.055  11.579 -0.3487 -0.1644  0.0489
61042SOL    HW189987   8.694   8.116  11.649  0.9528  0.2025 -0.6171
61042SOL    HW289988   8.633   7.981  11.623 -0.8997  0.6722  1.0058
61043SOL     OW89989  11.568   4.519   6.058 -0.2229 -0.0117 -0.7810
61043SOL    HW189990  11.576   4.584   6.128 -1.8869 -1.9694  1.3958
61043SOL    HW289991  11.499   4.554   6.001 -1.3242  0.0668  0.5371
61044SOL     OW89992   8.660   3.166   2.753  0.4427 -0.3071 -0.0865
61044SOL    HW189993   8.704   3.104   2.811 -0.1982  0.3409  1.1397
61044SOL    HW289994   8.718   3.173   2.677  1.6247 -0.7069  0.7457
61045SOL     OW89995   9.076   3.009   3.306 -0.0108 -0.9790 -0.1816
61045SOL    HW189996   9.092   3.101   3.287 -2.0012 -0.8286 -1.4954
61045SOL    HW289997   9.162   2.967   3.301  0.8854  0.7451  0.2101
61046SOL     OW89998   5.203   1.118   5.539 -0.5755 -0.1708  0.1411
61046SOL    HW189999   5.289   1.077   5.553 -0.9174 -1.2392 -0.7327
61046SOL    HW290000   5.208   1.153   5.450 -0.4699  1.3142  0.6908
61047SOL     OW90001   1.784   9.748   2.522 -0.5454  0.3174 -0.8419
61047SOL    HW190002   1.802   9.795   2.604  2.5610 -2.0616  0.0404
61047SOL    HW290003   1.868   9.748   2.476 -1.4861 -0.8916 -2.6782
61048SOL     OW90004  11.033   5.374   4.858 -0.0646  0.1887  0.0440
61048SOL    HW190005  11.085   5.424   4.795  1.2769 -0.7770  0.3639
61048SOL    HW290006  10.990   5.307   4.805 -0.0449  0.2445 -0.0432
61049SOL     OW90007  12.478   0.515   4.946  0.4093 -0.5439 -0.1963
61049SOL    HW190008  12.391   0.504   4.984  0.4094  0.0986  0.0127
61049SOL    HW290009  12.530   0.557   5.016  0.7468 -0.4728 -0.4845
61050SOL     OW90010   5.948   8.757   0.817  0.0442  0.4648 -0.3533
61050SOL    HW190011   5.943   8.704   0.897  0.3992  1.8055  0.5895
61050SOL    HW290012   5.969   8.694   0.748 -1.4016 -0.9040  0.3845
61051SOL     OW90013   5.231   6.467   2.372  0.0682  0.3263  0.4809
61051SOL    HW190014   5.308   6.460   2.315 -0.4754  0.8489 -0.3475
61051SOL    HW290015   5.255   6.419   2.451  0.6338 -0.9422 -0.4223
61052SOL     OW90016   3.475   7.588   9.530 -0.1656 -0.4296  0.5260
61052SOL    HW190017   3.563   7.568   9.500 -0.6094  0.5217 -1.5828
61052SOL    HW290018   3.476   7.682   9.548 -1.6454  0.5482 -3.4320
61053SOL     OW90019   0.496  11.632   3.224  0.2630 -0.5377 -0.0495
61053SOL    HW190020   0.445  11.652   3.303  0.5691  2.4693 -0.4816
61053SOL    HW290021   0.433  11.641   3.152  0.6511 -0.1474 -0.3460
61054SOL     OW90022   0.726   6.409  11.621  0.0249 -0.5962 -0.0086
61054SOL    HW190023   0.809   6.397  11.667  1.4708 -0.0871 -2.3521
61054SOL    HW290024   0.722   6.337  11.558 -1.1124 -0.3479 -0.2463
61055SOL     OW90025  11.105   9.351   3.546  0.1993  0.1286  0.0337
61055SOL    HW190026  11.112   9.278   3.484 -0.7230  0.6202 -0.6684
61055SOL    HW290027  11.013   9.378   3.541  0.9230  2.6333 -1.1894
61056SOL     OW90028   5.528   0.931   4.890  0.3329 -0.4830  0.4996
61056SOL    HW190029   5.566   0.947   4.803  1.4803 -0.8490  0.9215
61056SOL    HW290030   5.503   1.018   4.921 -2.1825 -0.5277 -1.0869
61057SOL     OW90031   8.457   1.807   3.150 -0.5635 -0.0179 -0.5679
61057SOL    HW190032   8.499   1.872   3.094  0.5484 -0.1784  0.0456
61057SOL    HW290033   8.494   1.724   3.123 -0.4248 -0.1571  0.0387
61058SOL     OW90034   5.979   4.551   4.533  0.3410  0.2402 -0.0190
61058SOL    HW190035   5.988   4.642   4.504  0.4611 -0.1303 -1.1933
61058SOL    HW290036   6.006   4.552   4.625 -0.6531  1.5741  0.2845
61059SOL     OW90037   3.518   6.199   8.728 -0.1089 -0.5588 -0.0145
61059SOL    HW190038   3.491   6.131   8.790  0.6176 -1.4209 -0.6064
61059SOL    HW290039   3.614   6.191   8.726 -0.1206 -0.4813 -1.1642
61060SOL     OW90040  11.927   2.213   1.449 -0.4382 -0.2640 -0.5692
61060SOL    HW190041  12.004   2.194   1.503 -0.5312  0.6193 -0.1158
61060SOL    HW290042  11.945   2.298   1.410 -1.2684  0.0486 -0.2965
61061SOL     OW90043   5.045   9.150   1.368 -0.2489  0.5584 -0.2251
61061SOL    HW190044   4.956   9.119   1.385 -0.0913  0.6534  0.8468
61061SOL    HW290045   5.033   9.226   1.311 -0.8149  0.1893 -0.6032
61062SOL     OW90046  12.127   0.426   2.302 -0.3176 -0.2093  0.0921
61062SOL    HW190047  12.055   0.462   2.353  0.3329  1.2530  0.0236
61062SOL    HW290048  12.203   0.480   2.325  0.5070 -0.9791 -0.7024
61063SOL     OW90049   8.281  11.437  10.488 -0.1152 -0.0974 -0.5869
61063SOL    HW190050   8.298  11.402  10.575 -1.6505  1.6786  0.5043
61063SOL    HW290051   8.291  11.532  10.498  0.5274  0.0895 -2.5781
61064SOL     OW90052  10.672   7.753   5.353  0.2033 -0.2491 -0.3740
61064SOL    HW190053  10.695   7.785   5.266 -0.7561  0.4532 -0.3809
61064SOL    HW290054  10.756   7.725   5.391  0.8812  0.9894 -0.8997
61065SOL     OW90055   5.423  10.289   5.079  0.2852  0.1565 -0.2971
61065SOL    HW190056   5.378  10.296   4.995  1.9158 -0.1401 -1.2325
61065SOL    HW290057   5.403  10.371   5.125 -1.9340 -0.3557 -0.2666
61066SOL     OW90058  11.816   7.651   3.880  0.0619 -1.0927 -0.2890
61066SOL    HW190059  11.805   7.722   3.816 -0.8985 -0.4760  0.5370
61066SOL    HW290060  11.775   7.575   3.839  1.5775 -1.3490 -1.4152
61067SOL     OW90061   3.283   7.783   9.259 -0.0954  0.0579 -0.7800
61067SOL    HW190062   3.375   7.758   9.254 -0.0210  0.0952  0.1474
61067SOL    HW290063   3.281   7.853   9.325 -1.0931 -1.6161  1.0813
61068SOL     OW90064   8.575   5.179   7.799 -0.1989  0.1971 -0.4393
61068SOL    HW190065   8.588   5.091   7.765 -0.1232 -0.2418  0.6727
61068SOL    HW290066   8.480   5.185   7.814 -0.0717 -0.1429  0.5960
61069SOL     OW90067   8.617  11.767   7.803  0.2382 -0.3731 -0.5165
61069SOL    HW190068   8.637  11.702   7.735 -0.4139 -2.0096  0.7889
61069SOL    HW290069   8.669  11.844   7.778 -1.6014 -0.0621 -4.0506
61070SOL     OW90070   4.242   7.253   6.297 -0.7325  0.9079 -0.0269
61070SOL    HW190071   4.330   7.215   6.298 -1.2075 -0.3911  2.8333
61070SOL    HW290072   4.251   7.334   6.347 -0.9416  1.4844 -0.9000
61071SOL     OW90073   0.196  12.380   4.016 -0.7072  0.3255 -0.0049
61071SOL    HW190074   0.182  12.286   4.021  0.5708  0.0904 -0.5705
61071SOL    HW290075   0.260  12.391   3.945 -4.3553  1.9768 -3.4684
61072SOL     OW90076   9.160   3.875   9.244  0.2133  0.2022  0.4013
61072SOL    HW190077   9.115   3.950   9.284 -1.8927 -0.7394 -0.0720
61072SOL    HW290078   9.099   3.843   9.177  0.8899 -2.1183  0.7989
61073SOL     OW90079   1.636   5.748  10.385 -0.1418 -0.0493 -1.1080
61073SOL    HW190080   1.711   5.753  10.326  0.3872  0.5198 -0.4005
61073SOL    HW290081   1.576   5.687  10.342  1.5617 -2.1052 -0.7613
61074SOL     OW90082   6.338   5.131   9.756 -0.1866 -0.2495 -0.4109
61074SOL    HW190083   6.389   5.183   9.818  1.5066  0.5852 -2.3942
61074SOL    HW290084   6.368   5.041   9.769 -1.5018 -0.4756  1.4811
61075SOL     OW90085  11.325   1.817   6.077 -0.3307  0.3280  0.7539
61075SOL    HW190086  11.319   1.737   6.129 -1.6849  0.6848  1.1980
61075SOL    HW290087  11.353   1.788   5.990  1.6483 -0.3112  1.5624
61076SOL     OW90088  11.518   9.866   1.963  0.0747 -0.0177  0.1893
61076SOL    HW190089  11.453   9.933   1.984  0.6384  0.3669  0.7312
61076SOL    HW290090  11.579   9.868   2.036  0.2004 -1.0056  0.1192
61077SOL     OW90091   3.345   1.906   1.552  0.1359  0.2918  0.2569
61077SOL    HW190092   3.365   1.999   1.562  2.2050 -0.1199  0.3734
61077SOL    HW290093   3.430   1.863   1.545 -0.7257 -1.2389 -3.2718
61078SOL     OW90094   9.381   7.252   7.185  0.1208 -0.2378  0.2775
61078SOL    HW190095   9.449   7.207   7.135 -0.1418 -0.5795  0.2205
61078SOL    HW290096   9.379   7.205   7.269  0.3259  0.1153  0.4825
61079SOL     OW90097   5.594   5.502   1.649 -0.8377 -0.2424  0.3317
61079SOL    HW190098   5.550   5.510   1.734 -2.1796 -0.5584 -0.2947
61079SOL    HW290099   5.544   5.558   1.590 -0.2157 -0.3864 -0.3565
61080SOL     OW90100  11.502   3.829   2.355  0.3167  1.1906  0.3652
61080SOL    HW190101  11.562   3.878   2.299  0.2346 -0.0622 -0.8832
61080SOL    HW290102  11.557   3.766   2.401  0.2810  1.7310  1.1718
61081SOL     OW90103   4.511  11.967  12.429  0.1508  0.2047  0.5493
61081SOL    HW190104   4.488  11.901  12.364  1.6724  0.0448  0.1451
61081SOL    HW290105   4.461  12.045  12.404  1.6138  0.5332 -1.5594
61082SOL     OW90106   2.404   8.748   5.088 -0.0760  0.1719 -0.0227
61082SOL    HW190107   2.310   8.740   5.070 -0.2076  2.7321 -0.8805
61082SOL    HW290108   2.446   8.694   5.021 -0.8995  0.8988 -1.1608
61083SOL     OW90109   6.668   4.322   6.134 -0.5143 -0.0870 -0.3307
61083SOL    HW190110   6.713   4.306   6.217 -0.3834 -0.9760 -0.5688
61083SOL    HW290111   6.640   4.235   6.104 -1.1072  0.2929 -0.9087
61084SOL     OW90112  11.315   9.442   4.333  0.2524 -0.2066 -0.0548
61084SOL    HW190113  11.236   9.401   4.297  0.6335 -0.5495 -0.5197
61084SOL    HW290114  11.284   9.524   4.372 -0.0347  0.7767 -2.2000
61085SOL     OW90115   9.888   6.331  10.677 -0.2450 -0.5546  0.7291
61085SOL    HW190116   9.940   6.307  10.600  0.4477 -0.9180  1.2997
61085SOL    HW290117   9.832   6.256  10.694 -0.3230 -0.5162  0.6424
61086SOL     OW90118   0.774   7.201   4.929  0.2068  0.1983 -0.0592
61086SOL    HW190119   0.692   7.172   4.969 -2.2713  3.8899 -1.9037
61086SOL    HW290120   0.781   7.150   4.849  0.4295 -0.9872  0.6921
61087SOL     OW90121   2.690   6.062  10.489 -0.6726 -0.4791  0.7907
61087SOL    HW190122   2.777   6.072  10.453  0.2166 -2.5399  2.1801
61087SOL    HW290123   2.632   6.099  10.423  1.2044  0.6433 -0.3126
61088SOL     OW90124   2.712   6.831   6.902 -0.7068 -0.3061 -0.7371
61088SOL    HW190125   2.625   6.800   6.878 -0.6130 -1.1528 -0.0325
61088SOL    HW290126   2.699   6.879   6.983 -0.4198 -1.0829 -0.2195
61089SOL     OW90127  11.128  11.359   3.542 -0.6976  0.5587 -0.0206
61089SOL    HW190128  11.107  11.408   3.622 -1.3049  0.8127 -0.3282
61089SOL    HW290129  11.169  11.279   3.573 -2.5135 -0.1632  0.6489
61090SOL     OW90130   4.433  11.259  11.551  0.3234 -0.1045  0.0140
61090SOL    HW190131   4.513  11.306  11.576  1.4296 -1.3588 -1.0262
61090SOL    HW290132   4.464  11.182  11.505 -1.5074 -0.8136 -0.1058
61091SOL     OW90133   2.051   7.686   4.710 -0.2568 -0.4127 -0.3358
61091SOL    HW190134   1.960   7.662   4.696 -1.2481  1.7417  1.8030
61091SOL    HW290135   2.087   7.697   4.622 -1.8621 -1.8872 -1.2170
61092SOL     OW90136   9.851   0.469  10.242 -0.1739 -0.1435 -0.1572
61092SOL    HW190137   9.780   0.519  10.282  1.0799  1.2108  0.4824
61092SOL    HW290138   9.814   0.381  10.228 -1.8794  0.4515  0.3380
61093SOL     OW90139   4.016   2.935   4.387 -0.5246  0.2776 -0.3813
61093SOL    HW190140   3.998   2.844   4.363 -0.3350  0.3662 -0.8651
61093SOL    HW290141   4.087   2.962   4.329 -0.0622  0.4990  0.2786
61094SOL     OW90142   3.715   3.958   5.351  0.2459  0.4191 -0.0087
61094SOL    HW190143   3.677   3.886   5.299  0.6838  0.9709 -1.1345
61094SOL    HW290144   3.809   3.943   5.348  0.3511  1.1097 -0.3701
61095SOL     OW90145   3.242   3.051   1.470 -0.0097  0.3163  0.7403
61095SOL    HW190146   3.221   2.981   1.531 -0.2343  1.1943  1.7020
61095SOL    HW290147   3.186   3.124   1.497 -0.9337  0.3993 -1.2145
61096SOL     OW90148  12.205   4.087   5.133  0.1384 -0.2293  0.0241
61096SOL    HW190149  12.268   4.050   5.071  0.0972 -0.1569 -0.0604
61096SOL    HW290150  12.228   4.047   5.217 -0.9144 -1.6974 -0.3548
61097SOL     OW90151   4.999   0.142   5.942 -0.3855  0.3802 -0.1792
61097SOL    HW190152   5.009   0.054   5.977 -0.9408  0.9247  1.4160
61097SOL    HW290153   4.929   0.134   5.877 -1.4236 -0.1181  0.9493
61098SOL     OW90154   1.428   9.899   3.291 -0.1636 -0.5366 -0.2764
61098SOL    HW190155   1.517   9.925   3.315 -0.5368  0.7816 -0.2022
61098SOL    HW290156   1.380   9.899   3.374  0.0949 -2.8470 -0.0591
61099SOL     OW90157   8.067   3.285   0.597 -0.3383 -0.3775  0.2058
61099SOL    HW190158   8.045   3.368   0.639  0.9877 -0.7486  1.6991
61099SOL    HW290159   7.983   3.239   0.591 -0.8916  0.5713  0.4446
61100SOL     OW90160   4.609   9.795   6.073  0.0206  0.0506  0.1648
61100SOL    HW190161   4.594   9.785   6.167 -0.4719 -1.1555 -0.0149
61100SOL    HW290162   4.591   9.887   6.055 -2.3331 -0.2149  0.8540
61101SOL     OW90163   9.028   2.267   5.551 -0.1554  0.3127 -0.3087
61101SOL    HW190164   8.993   2.320   5.478 -1.8762  0.9256  0.8945
61101SOL    HW290165   9.113   2.305   5.570  0.8533 -0.5547 -2.6765
61102SOL     OW90166   9.708   2.612   6.416  0.8996 -0.4585 -0.3162
61102SOL    HW190167   9.731   2.704   6.406 -0.3497 -0.3293 -2.6522
61102SOL    HW290168   9.614   2.611   6.428  0.8357 -1.4291 -0.7209
61103SOL     OW90169   0.385   5.034   6.564 -0.2275  0.1469 -0.0319
61103SOL    HW190170   0.317   4.966   6.562 -0.1430  0.0697 -1.5705
61103SOL    HW290171   0.390   5.060   6.656 -1.1476 -1.0381  0.3849
61104SOL     OW90172  12.050   9.580   8.231  0.2366 -0.4609 -0.7631
61104SOL    HW190173  12.005   9.506   8.271  1.4710 -1.1904 -0.6773
61104SOL    HW290174  12.072   9.551   8.143  1.2991 -0.4497 -0.5078
61105SOL     OW90175   9.849   1.916   1.718  0.7344  0.3505 -0.7211
61105SOL    HW190176   9.805   1.854   1.660  0.0280 -0.2949  0.4697
61105SOL    HW290177   9.828   1.886   1.806 -1.0414  3.1842 -0.0183
61106SOL     OW90178   6.620   9.843   2.734  0.0084  0.0081 -0.4568
61106SOL    HW190179   6.528   9.862   2.719  0.0269  0.8850  0.4246
61106SOL    HW290180   6.657   9.832   2.647 -0.8808 -0.1467 -0.8272
61107SOL     OW90181   4.463  11.548   2.122  0.0490  0.1511  0.7723
61107SOL    HW190182   4.427  11.598   2.195 -1.1665 -0.3679  0.5582
61107SOL    HW290183   4.459  11.457   2.151  0.6166  0.0288  0.4866
61108SOL     OW90184   4.653   7.252   9.641 -0.1510 -0.2277 -0.0913
61108SOL    HW190185   4.631   7.253   9.735 -0.4236 -0.1982 -0.1543
61108SOL    HW290186   4.745   7.226   9.639  0.7492  2.6145  0.3423
61109SOL     OW90187   8.310  11.722   0.627  0.1124 -0.5948  0.0079
61109SOL    HW190188   8.395  11.750   0.591  0.6813 -1.4529  0.6554
61109SOL    HW290189   8.272  11.803   0.662  1.2341 -0.4046  0.8463
61110SOL     OW90190   4.278   7.445  10.959  0.3513  0.1559 -0.1983
61110SOL    HW190191   4.342   7.506  10.996  0.0452 -0.1373  0.8608
61110SOL    HW290192   4.303   7.437  10.867  0.9939  1.1082 -0.1268
61111SOL     OW90193  12.435  11.703   7.879  0.0375  0.1726  0.6305
61111SOL    HW190194  12.512  11.653   7.905 -0.4468 -0.3090  1.1519
61111SOL    HW290195  12.445  11.715   7.785  0.6883  0.0153  0.6737
61112SOL     OW90196  11.911   6.001   7.959 -0.0878 -0.7578 -0.3387
61112SOL    HW190197  11.999   5.969   7.940 -0.8261 -4.0282  1.1933
61112SOL    HW290198  11.925   6.089   7.995  2.4019 -0.7115 -1.2072
61113SOL     OW90199   7.556   3.879   4.939 -0.5192 -1.0057 -0.1697
61113SOL    HW190200   7.488   3.946   4.950  0.8552  0.3539  0.4414
61113SOL    HW290201   7.571   3.845   5.027  0.3735 -0.4603 -0.0968
61114SOL     OW90202  10.004   0.808   5.297 -0.0323  0.3349 -0.4041
61114SOL    HW190203  10.095   0.833   5.316 -0.4263 -0.1460  2.6697
61114SOL    HW290204   9.959   0.891   5.283  0.3850  0.8036  0.8412
61115SOL     OW90205  11.867   0.449   2.083  0.1350  1.0645  0.0783
61115SOL    HW190206  11.954   0.486   2.070  0.5319  0.0057 -0.4154
61115SOL    HW290207  11.823   0.510   2.143  1.1034  1.7650  0.0943
61116SOL     OW90208   0.333   2.753  10.114  0.4300 -0.2786 -0.2542
61116SOL    HW190209   0.352   2.669  10.157 -0.5539 -0.1995  0.3693
61116SOL    HW290210   0.248   2.740  10.073 -1.3554  1.3836  2.6224
61117SOL     OW90211   0.416   7.783   0.428 -0.2645  0.1663  1.0037
61117SOL    HW190212   0.401   7.718   0.360 -0.9970  0.5422  0.7934
61117SOL    HW290213   0.456   7.857   0.382  0.4753 -0.0797  1.2254
61118SOL     OW90214   2.548   3.464   3.901 -0.6506  0.3837 -0.3777
61118SOL    HW190215   2.490   3.534   3.931 -0.1829  1.3695 -1.6545
61118SOL    HW290216   2.590   3.431   3.980  0.5121  2.8189  0.1102
61119SOL     OW90217   2.085   9.137   2.445 -0.2012  0.7107  0.2721
61119SOL    HW190218   2.014   9.176   2.394 -0.3619  0.8084  0.5688
61119SOL    HW290219   2.128   9.211   2.486 -1.0542  0.5220  1.5469
61120SOL     OW90220   6.718   8.228   5.693 -0.2824 -0.7879  0.2543
61120SOL    HW190221   6.718   8.133   5.699 -3.0694 -0.8795  0.3806
61120SOL    HW290222   6.754   8.247   5.606 -2.0196 -2.1437 -0.8241
61121SOL     OW90223   3.543   6.326   1.331  0.0226  0.8826 -0.1574
61121SOL    HW190224   3.555   6.395   1.266 -0.0976 -0.4848 -1.6999
61121SOL    HW290225   3.448   6.309   1.329  0.1211  0.3171 -0.2019
61122SOL     OW90226   8.020  12.417   8.472  0.3397  0.6624 -0.1866
61122SOL    HW190227   8.108  12.379   8.466 -0.0883 -0.1889 -1.8152
61122SOL    HW290228   8.023  12.492   8.412 -0.4060 -0.1749 -1.3038
61123SOL     OW90229   5.716   7.465   6.101  0.5583  0.2289  0.0356
61123SOL    HW190230   5.757   7.477   6.015  1.0153  0.1834  0.2415
61123SOL    HW290231   5.753   7.382   6.134  1.6923  1.0631  0.9812
61124SOL     OW90232  10.295   9.018   0.630  0.0773 -0.4728  0.5313
61124SOL    HW190233  10.255   8.935   0.658  2.0551 -1.7582 -0.2059
61124SOL    HW290234  10.374   9.025   0.683  0.1497  0.7359  0.2804
61125SOL     OW90235   4.349   1.309   3.272 -0.5865 -0.6437 -0.5037
61125SOL    HW190236   4.326   1.224   3.234 -1.1843 -0.7088 -0.0049
61125SOL    HW290237   4.444   1.316   3.257 -0.5032 -1.4606 -0.4352
61126SOL     OW90238   7.479   9.844   5.478 -0.3962  0.0898 -0.6750
61126SOL    HW190239   7.408   9.871   5.536 -2.1084 -2.8671 -1.1969
61126SOL    HW290240   7.504   9.924   5.431 -0.4955  2.0873  2.3743
61127SOL     OW90241   7.501   1.422   4.561  0.2547 -0.4200  0.1229
61127SOL    HW190242   7.535   1.355   4.620  0.3479 -0.7114 -0.2590
61127SOL    HW290243   7.439   1.375   4.505  0.5685 -0.2583 -0.3647
61128SOL     OW90244   0.070   6.759   2.996 -0.3422  0.5226 -0.1124
61128SOL    HW190245   0.166   6.759   2.995 -0.2850 -1.8061 -0.1862
61128SOL    HW290246   0.047   6.686   3.054 -2.1054  1.7542  0.8371
61129SOL     OW90247   4.513  10.914   9.849  0.3134 -0.1309  0.5735
61129SOL    HW190248   4.573  10.853   9.806 -0.6906 -0.9273  0.2462
61129SOL    HW290249   4.427  10.874   9.836 -0.2961  1.0534  0.9093
61130SOL     OW90250   3.263   2.993   0.277 -0.1377 -0.6377  0.0205
61130SOL    HW190251   3.327   2.996   0.206 -0.0070  0.5632  0.1721
61130SOL    HW290252   3.278   3.073   0.327 -1.1634 -0.7756  0.5852
61131SOL     OW90253   6.935   5.436   8.981  0.8722 -0.5741  0.0318
61131SOL    HW190254   6.911   5.374   8.912 -0.7117  0.0977 -0.0630
61131SOL    HW290255   6.902   5.396   9.062 -1.8944  0.9290 -0.2449
61132SOL     OW90256   2.767   6.774   1.288 -0.3774 -0.5294 -0.4287
61132SOL    HW190257   2.680   6.733   1.280  0.0147 -1.1157 -2.2077
61132SOL    HW290258   2.772   6.802   1.379 -1.5567 -2.4503  0.2829
61133SOL     OW90259   2.230  10.199   9.596 -0.6497 -0.0714  0.0269
61133SOL    HW190260   2.187  10.156   9.522  1.2657 -0.6425 -0.8162
61133SOL    HW290261   2.160  10.245   9.641 -2.0221 -0.4007 -1.6638
61134SOL     OW90262  11.545   1.020  10.411  0.3316 -0.0848 -0.1652
61134SOL    HW190263  11.632   1.040  10.445  0.0599  1.5814 -0.3688
61134SOL    HW290264  11.494   1.100  10.427 -1.7170 -1.6006  1.6580
61135SOL     OW90265   0.431  10.069   0.814  0.0597  0.2216  0.0402
61135SOL    HW190266   0.336  10.059   0.821 -0.3851  1.2272 -3.0140
61135SOL    HW290267   0.450  10.149   0.863 -0.6546 -0.0219  0.7334
61136SOL     OW90268   1.327   4.967   5.030  0.0298  0.6920 -0.2909
61136SOL    HW190269   1.296   4.877   5.021 -0.0837  0.5705  1.1931
61136SOL    HW290270   1.347   4.977   5.123 -1.1438  2.5780 -0.1749
61137SOL     OW90271   4.783   0.242   8.804 -0.2665  0.1152 -0.7440
61137SOL    HW190272   4.734   0.176   8.755 -0.6375 -0.3053  0.1659
61137SOL    HW290273   4.802   0.311   8.741 -0.8280 -0.3670 -1.4406
61138SOL     OW90274   8.509   3.592   7.528  0.1195  0.3854 -0.8082
61138SOL    HW190275   8.523   3.547   7.611 -1.8559 -1.2541 -1.2844
61138SOL    HW290276   8.414   3.604   7.523  0.1943  0.4264 -2.8278
61139SOL     OW90277  10.660   9.910  11.387  0.1056 -0.2953 -0.2858
61139SOL    HW190278  10.569   9.936  11.397  0.0198 -0.5648 -0.3474
61139SOL    HW290279  10.661   9.854  11.310  0.2646 -0.5542 -0.1002
61140SOL     OW90280   9.744   0.547   6.770  0.1110  0.6060  0.2366
61140SOL    HW190281   9.833   0.512   6.761  0.4349  1.3680  0.3916
61140SOL    HW290282   9.726   0.587   6.685  0.1926  1.0654  0.4326
61141SOL     OW90283   7.433   9.889   2.515 -0.2636  0.2469  0.4509
61141SOL    HW190284   7.354   9.836   2.521  0.4975 -0.8348  1.3499
61141SOL    HW290285   7.484   9.850   2.444  0.4048 -0.4363  1.2685
61142SOL     OW90286   9.089  10.888   7.271 -0.1872 -0.2219 -0.0318
61142SOL    HW190287   9.005  10.869   7.312 -1.3321  0.7131 -1.8214
61142SOL    HW290288   9.088  10.983   7.257  0.5148 -0.3892 -1.4123
61143SOL     OW90289  10.767   5.309   2.577  0.1932  0.2634  0.0551
61143SOL    HW190290  10.810   5.227   2.599  0.3647  0.4540  0.4462
61143SOL    HW290291  10.831   5.376   2.603  0.3135  0.5003 -0.8224
61144SOL     OW90292   4.035   0.400   1.721  0.5099  0.0008  0.2764
61144SOL    HW190293   4.071   0.316   1.751  0.9805 -0.1938 -0.7923
61144SOL    HW290294   4.009   0.384   1.631  2.9076  1.6283 -0.7986
61145SOL     OW90295   9.424   2.862   5.519  0.0810  0.1998  0.0965
61145SOL    HW190296   9.496   2.880   5.580  0.5432  0.2119 -0.4421
61145SOL    HW290297   9.345   2.870   5.572  0.4672  0.3646  0.6595
61146SOL     OW90298   8.970   1.232   7.289  0.3248 -0.4816 -0.0599
61146SOL    HW190299   9.015   1.295   7.346 -0.4716 -0.8994  1.0605
61146SOL    HW290300   8.937   1.285   7.216 -2.6241  0.9766  2.1379
61147SOL     OW90301   9.698   1.461   3.309  0.0065 -0.2665  0.3759
61147SOL    HW190302   9.738   1.538   3.271 -0.8311 -0.0470 -0.0804
61147SOL    HW290303   9.770   1.415   3.353  1.0901 -0.7297 -1.7511
61148SOL     OW90304   0.688   0.484   0.829  0.4602  0.2839  0.0266
61148SOL    HW190305   0.704   0.511   0.739 -0.0615 -0.8611 -0.4324
61148SOL    HW290306   0.770   0.441   0.856  0.0334 -0.9202 -0.5201
61149SOL     OW90307   2.060   7.457   8.400 -0.0430 -0.8897 -0.0222
61149SOL    HW190308   1.991   7.394   8.420  0.3228 -1.5631 -0.8436
61149SOL    HW290309   2.056   7.520   8.472 -1.9508 -0.5377 -0.3997
61150SOL     OW90310   9.947   4.986   0.945  0.0990  0.2326  0.6178
61150SOL    HW190311   9.876   4.974   1.008  0.0603 -0.6520  0.4114
61150SOL    HW290312  10.003   4.909   0.956 -0.1506 -0.1625 -0.7435
61151SOL     OW90313   2.465  11.333   6.711 -0.5046 -0.1389 -0.2009
61151SOL    HW190314   2.550  11.290   6.696 -0.0259  0.6057  0.2968
61151SOL    HW290315   2.433  11.354   6.624  0.1394  0.1548 -0.3749
61152SOL     OW90316   8.139   8.433  11.963  0.5565 -0.1929 -0.0251
61152SOL    HW190317   8.181   8.387  11.891  0.6419 -0.1545  0.0008
61152SOL    HW290318   8.046   8.411  11.955  0.5495 -0.0889 -0.2186
61153SOL     OW90319   6.710   2.333   1.116 -0.0024  0.0414  0.1489
61153SOL    HW190320   6.785   2.280   1.088  0.0741 -0.2865  0.9480
61153SOL    HW290321   6.734   2.365   1.203  0.5496  2.5650 -0.8502
61154SOL     OW90322  10.575   3.239   8.783  0.1460 -0.2622  0.3055
61154SOL    HW190323  10.636   3.285   8.840 -0.0416 -0.6163  0.8035
61154SOL    HW290324  10.488   3.265   8.815  0.0359 -0.3562  0.0898
61155SOL     OW90325  11.092   1.440   3.130  0.3705 -0.3029 -0.1734
61155SOL    HW190326  11.053   1.456   3.044  0.3342 -1.6128 -0.4285
61155SOL    HW290327  11.018   1.447   3.190  0.3963  0.6230 -0.2344
61156SOL     OW90328   4.059   8.502   8.764 -0.1385 -0.1983  0.7009
61156SOL    HW190329   4.154   8.489   8.770 -0.0120  1.2768  2.7684
61156SOL    HW290330   4.030   8.433   8.704  2.4173  0.3235 -1.3326
61157SOL     OW90331   1.628  11.280   8.455 -0.0297 -0.2839  0.5324
61157SOL    HW190332   1.686  11.351   8.425 -1.1340  0.2597 -0.3829
61157SOL    HW290333   1.634  11.285   8.551 -2.0409  2.8222  0.6419
61158SOL     OW90334   6.763   7.350   6.842 -0.1705 -0.3000  0.4326
61158SOL    HW190335   6.844   7.364   6.794  0.2528  2.3890  1.7264
61158SOL    HW290336   6.699   7.326   6.776  1.0742  0.2053 -0.9971
61159SOL     OW90337   4.239  11.095   9.515  0.1348  0.3874  0.0230
61159SOL    HW190338   4.214  11.037   9.443  0.4703  0.2263  0.0341
61159SOL    HW290339   4.333  11.110   9.501  0.3577 -0.2129  0.8243
61160SOL     OW90340   3.105   0.774  12.043  0.1340 -0.3411  0.2933
61160SOL    HW190341   3.189   0.766  12.087  0.3978  0.1670 -0.1084
61160SOL    HW290342   3.102   0.699  11.983  0.6466  0.0632 -0.2523
61161SOL     OW90343   2.753   1.194   9.532 -0.1473  0.5474  0.3129
61161SOL    HW190344   2.801   1.136   9.591 -0.6522 -1.0190 -0.7653
61161SOL    HW290345   2.793   1.280   9.546  0.9043 -0.1139  1.6473
61162SOL     OW90346  11.572   1.661   7.999 -0.4947  0.1095  0.1623
61162SOL    HW190347  11.487   1.644   7.957 -0.6742 -0.5417  0.7833
61162SOL    HW290348  11.594   1.579   8.043 -0.9362  1.1523  2.4454
61163SOL     OW90349   9.053   1.027   1.179 -0.2311 -0.0819 -0.0038
61163SOL    HW190350   9.129   1.062   1.133 -0.7595 -0.2709 -1.0527
61163SOL    HW290351   9.077   0.936   1.199  0.0533  0.0403  0.2132
61164SOL     OW90352   7.677   9.047  11.779 -0.3345 -0.3320 -0.2235
61164SOL    HW190353   7.770   9.040  11.802 -0.1753  0.3352 -0.6350
61164SOL    HW290354   7.631   9.035  11.862  0.1747  0.7705  0.2385
61165SOL     OW90355   7.119  12.353   6.382 -0.4200  0.1261  0.6786
61165SOL    HW190356   7.152  12.400   6.305 -1.8054  0.3623  0.2057
61165SOL    HW290357   7.166  12.392   6.456  0.5068  0.2957  0.0181
61166SOL     OW90358  12.474   6.808   7.202  0.1406 -0.7485  0.0945
61166SOL    HW190359  12.423   6.727   7.198 -0.3246 -0.4392 -0.2548
61166SOL    HW290360  12.477   6.840   7.112  0.9128 -0.7368  0.1201
61167SOL     OW90361   0.645   9.130   6.438  0.0730 -0.0878  0.1342
61167SOL    HW190362   0.707   9.107   6.507 -0.1298  1.4260  0.8430
61167SOL    HW290363   0.677   9.082   6.361  0.0176 -2.2130  1.3540
61168SOL     OW90364   5.117   0.049  11.881  0.3394 -0.3722  0.4973
61168SOL    HW190365   5.083   0.071  11.969 -1.0632 -1.9473  0.4038
61168SOL    HW290366   5.172  -0.027  11.895  0.2642 -0.5120  0.0381
61169SOL     OW90367   5.309   8.804   9.504  0.2426 -0.4650 -0.3573
61169SOL    HW190368   5.297   8.777   9.595  1.3646 -0.0145 -0.0545
61169SOL    HW290369   5.227   8.847   9.480 -0.1366 -0.7613  0.3737
61170SOL     OW90370   1.379   7.863   9.015 -0.6835 -0.5148 -0.5512
61170SOL    HW190371   1.452   7.871   9.076  0.9076  0.2816 -2.4401
61170SOL    HW290372   1.388   7.775   8.979 -0.9962 -0.6199 -0.3674
61171SOL     OW90373   6.605   5.352   1.431 -0.0733  0.1507  0.2131
61171SOL    HW190374   6.607   5.260   1.459  0.8296 -0.4376 -1.6095
61171SOL    HW290375   6.533   5.391   1.481 -0.1303 -1.4021  1.4248
61172SOL     OW90376  10.078  11.672   4.024  0.3302 -0.1055  0.6391
61172SOL    HW190377   9.990  11.649   4.056  0.0592 -0.8467 -0.5508
61172SOL    HW290378  10.125  11.588   4.023 -0.0966 -0.4115 -2.0689
61173SOL     OW90379   3.302   6.252  10.276 -0.8018  0.1319 -0.3052
61173SOL    HW190380   3.220   6.215  10.244 -1.0120  0.8943 -0.6931
61173SOL    HW290381   3.353   6.269  10.196  0.2316 -1.4110 -0.0179
61174SOL     OW90382   6.704   7.363   5.579 -0.1207 -0.1616  0.1627
61174SOL    HW190383   6.733   7.328   5.663 -0.9556 -2.2242 -0.3272
61174SOL    HW290384   6.759   7.318   5.514 -1.2762 -0.6786 -0.5034
61175SOL     OW90385  12.149   2.632   8.450  0.1788 -0.2313  0.3303
61175SOL    HW190386  12.164   2.600   8.539 -0.8269  1.6042  1.2088
61175SOL    HW290387  12.219   2.695   8.435 -0.2708  0.2587  0.2506
61176SOL     OW90388   1.449   2.601  10.256  0.1342 -0.1557 -0.1154
61176SOL    HW190389   1.377   2.562  10.206  0.3025 -0.8995  0.2052
61176SOL    HW290390   1.527   2.584  10.203  0.3015 -0.8709  0.3491
61177SOL     OW90391  10.501  11.523   8.112  0.0431 -0.0401  0.8138
61177SOL    HW190392  10.555  11.601   8.108  1.2116 -0.8800 -0.6343
61177SOL    HW290393  10.439  11.532   8.039  0.4184 -0.6170  0.4133
61178SOL     OW90394  12.024  10.802  12.247 -0.1000 -0.0235 -0.3629
61178SOL    HW190395  12.071  10.807  12.164 -1.0018  1.3635 -0.8233
61178SOL    HW290396  12.039  10.887  12.289  1.8576 -1.3033  1.8091
61179SOL     OW90397   9.743   8.856   2.817 -0.9881 -0.0550 -0.0730
61179SOL    HW190398   9.716   8.808   2.896 -1.8817 -1.4642 -1.1795
61179SOL    HW290399   9.797   8.793   2.769  1.7676  1.6627  0.5907
61180SOL     OW90400   8.011   7.439   8.168  0.4755 -0.1916 -0.8317
61180SOL    HW190401   7.943   7.464   8.105 -0.9503 -1.2633  0.2206
61180SOL    HW290402   8.057   7.521   8.189 -1.2953  0.7910 -0.6449
61181SOL     OW90403   6.620   4.827   4.653 -0.4441 -0.9413  0.3681
61181SOL    HW190404   6.599   4.737   4.628 -0.8767 -0.4100 -1.3221
61181SOL    HW290405   6.577   4.881   4.586  1.0859  0.4494  0.4381
61182SOL     OW90406   0.514   5.515  11.620  0.3571  0.1710  0.0499
61182SOL    HW190407   0.521   5.593  11.565 -0.5973  1.1536  1.2416
61182SOL    HW290408   0.420   5.497  11.624  0.5234 -0.6742  0.2837
61183SOL     OW90409   6.049   9.352   6.931  0.4523  0.1537 -0.1950
61183SOL    HW190410   6.052   9.447   6.920  0.6783 -0.0434 -2.2359
61183SOL    HW290411   6.140   9.323   6.919 -0.0741 -0.5785 -3.1873
61184SOL     OW90412   8.332   1.568   4.530 -0.6345 -0.4653  0.5523
61184SOL    HW190413   8.373   1.512   4.595  1.3081  0.7324  0.4548
61184SOL    HW290414   8.362   1.657   4.552 -0.5258  0.0715 -1.4813
61185SOL     OW90415   7.984   6.871   5.262  0.4968 -0.3242 -0.1974
61185SOL    HW190416   7.972   6.868   5.167 -0.2343 -3.1698 -0.1201
61185SOL    HW290417   8.037   6.794   5.281  0.7314  0.2632  1.7059
61186SOL     OW90418   9.285   3.416   7.238 -0.0017  0.2893  0.4846
61186SOL    HW190419   9.344   3.345   7.264  0.8827  0.8100 -0.0531
61186SOL    HW290420   9.258   3.455   7.322  0.8036  0.3439  0.7316
61187SOL     OW90421   7.367   6.883   5.153  0.3947 -0.2368 -0.0764
61187SOL    HW190422   7.434   6.902   5.087  1.9239 -0.5303  1.3532
61187SOL    HW290423   7.380   6.949   5.221  0.9306 -1.8246  1.4228
61188SOL     OW90424   2.937  10.421   2.296 -0.2095 -0.0752  0.2902
61188SOL    HW190425   3.011  10.482   2.287 -1.2118  1.1232 -0.0247
61188SOL    HW290426   2.869  10.472   2.339 -1.3625 -0.7331 -0.6982
61189SOL     OW90427  10.646   7.024  10.536 -0.3121  0.4732 -0.1777
61189SOL    HW190428  10.585   7.027  10.610  1.7099  0.5104  1.6014
61189SOL    HW290429  10.602   6.972  10.470 -2.3208  0.6479  0.9592
61190SOL     OW90430  10.805   2.980  11.640  0.3797  0.2644  0.2172
61190SOL    HW190431  10.750   3.058  11.644  0.3633  0.2741 -0.2139
61190SOL    HW290432  10.791   2.944  11.553  1.4072  0.5226 -0.0745
61191SOL     OW90433   0.877   5.428   3.230 -0.2819  0.5666  0.3446
61191SOL    HW190434   0.946   5.483   3.266  0.0685 -0.4870  1.3390
61191SOL    HW290435   0.814   5.419   3.302  0.3093 -1.3703  0.6806
61192SOL     OW90436   7.238   1.686   8.585 -0.3050 -0.5377  0.0262
61192SOL    HW190437   7.328   1.663   8.607 -1.0859 -1.5264  2.5473
61192SOL    HW290438   7.185   1.643   8.652 -2.8380 -1.4346 -2.3757
61193SOL     OW90439  11.902  11.098   0.092  0.1561 -0.1319  0.1003
61193SOL    HW190440  11.925  11.069   0.180  0.7123 -0.1033 -0.0317
61193SOL    HW290441  11.806  11.100   0.091  0.1532  0.5389  0.9264
61194SOL     OW90442   7.517   3.547   7.887  0.9096  0.2368  0.5073
61194SOL    HW190443   7.505   3.453   7.902 -0.8965  0.0818 -1.5180
61194SOL    HW290444   7.566   3.553   7.805 -1.7742  0.9654 -1.1849
61195SOL     OW90445   0.149   5.135   8.964  0.4020  0.3648 -0.4352
61195SOL    HW190446   0.191   5.054   8.994 -1.8271 -0.1939  1.5264
61195SOL    HW290447   0.055   5.119   8.977 -0.3461  2.1827 -2.8629
61196SOL     OW90448   4.704  12.195   4.016  0.3139 -0.0471 -0.4796
61196SOL    HW190449   4.674  12.122   4.069  1.7068  0.0067  0.4490
61196SOL    HW290450   4.742  12.257   4.079 -0.5702  1.3641 -1.2651
61197SOL     OW90451   4.900   3.657   6.088 -0.3009 -0.0815  0.0883
61197SOL    HW190452   4.819   3.608   6.074 -0.4478  0.8017 -2.9170
61197SOL    HW290453   4.966   3.611   6.036  0.3846  0.9081  0.0416
61198SOL     OW90454   8.487   7.804   1.108  0.0133  0.3785  0.4986
61198SOL    HW190455   8.403   7.821   1.150 -0.0617  2.1842 -0.2840
61198SOL    HW290456   8.551   7.852   1.160  0.4556 -0.2873  0.5906
61199SOL     OW90457  11.096   2.353  10.802  0.2158 -0.4727 -0.3739
61199SOL    HW190458  11.075   2.446  10.803 -1.2377 -0.7522 -1.1833
61199SOL    HW290459  11.172   2.346  10.745  1.5107  0.3930  1.1604
61200SOL     OW90460  12.203   8.775  10.782 -0.1069  0.0933 -0.4505
61200SOL    HW190461  12.238   8.721  10.853  1.6939  2.0208  0.2493
61200SOL    HW290462  12.179   8.857  10.824 -1.6580  0.3075 -1.6658
61201SOL     OW90463  11.765   8.032   9.597  0.7101 -0.0384  0.1769
61201SOL    HW190464  11.734   8.121   9.580  2.0680  0.6099  0.9375
61201SOL    HW290465  11.814   8.008   9.518  0.4512 -0.0719  0.0241
61202SOL     OW90466   5.285  12.065  10.099 -0.1261  0.4095  0.4741
61202SOL    HW190467   5.349  12.136  10.095  1.6431 -1.0468  1.1149
61202SOL    HW290468   5.326  11.994  10.049 -1.6578 -0.3017  0.1833
61203SOL     OW90469   4.693  11.959   0.996  0.2381  0.2058  0.1130
61203SOL    HW190470   4.602  11.977   1.022  0.4339  0.9844  0.3003
61203SOL    HW290471   4.699  11.864   0.992 -0.6370  0.1483 -0.0748
61204SOL     OW90472   0.671   7.236   1.419  0.1749 -0.3390 -0.1398
61204SOL    HW190473   0.694   7.254   1.510  1.0889 -2.5421  0.1259
61204SOL    HW290474   0.730   7.292   1.368  1.1769 -0.6545  0.6276
61205SOL     OW90475   0.023   3.091   8.785  0.4129 -0.2017  0.1968
61205SOL    HW190476   0.014   3.050   8.870 -0.0693  0.3111  0.3991
61205SOL    HW290477   0.019   3.185   8.803  2.1483 -0.0100 -0.1631
61206SOL     OW90478   4.652   3.692   1.347  0.0974 -0.2995  0.6545
61206SOL    HW190479   4.729   3.647   1.312 -0.4158  0.1566 -1.1512
61206SOL    HW290480   4.656   3.780   1.308 -0.1121  0.5086  2.3683
61207SOL     OW90481   0.797   5.940   5.191 -0.2503  0.1437  0.2798
61207SOL    HW190482   0.740   5.883   5.242  1.7256 -2.0331  0.1750
61207SOL    HW290483   0.876   5.950   5.243  0.3403  0.9461 -0.7219
61208SOL     OW90484   6.545  10.410   0.250  0.4137 -0.3113 -0.0788
61208SOL    HW190485   6.556  10.352   0.174  1.1943 -0.0874 -0.1409
61208SOL    HW290486   6.598  10.487   0.230  0.6964 -0.2823  0.7300
61209SOL     OW90487   2.885  10.023  11.348 -0.0416 -0.2742  0.7398
61209SOL    HW190488   2.937   9.956  11.393  0.6239 -0.4126 -0.2038
61209SOL    HW290489   2.884   9.995  11.257  0.4117  1.0871  0.2799
61210SOL     OW90490   3.834   7.797   7.225  0.4888  0.1306  0.0584
61210SOL    HW190491   3.892   7.852   7.277 -1.2910  0.4228  1.8710
61210SOL    HW290492   3.847   7.708   7.259 -0.1394  0.2127  0.5505
61211SOL     OW90493  12.240   2.361   4.739 -0.2466  0.3622  0.0729
61211SOL    HW190494  12.263   2.453   4.751 -0.2137  0.2074  1.3860
61211SOL    HW290495  12.260   2.320   4.824 -1.0531 -0.6842 -0.2154
61212SOL     OW90496   5.737   5.773   3.234  0.2010  0.4328 -0.6859
61212SOL    HW190497   5.663   5.832   3.253  0.2010  0.2664 -0.1676
61212SOL    HW290498   5.814   5.823   3.261  0.2163  0.2700 -0.4330
61213SOL     OW90499  10.811  11.034   4.777 -0.2603  0.1068  0.2896
61213SOL    HW190500  10.753  10.972   4.734  1.3250 -0.3829 -1.2799
61213SOL    HW290501  10.877  10.979   4.820  0.5386  0.6657 -0.1914
61214SOL     OW90502   2.983   9.919   4.454 -0.4366 -0.1782 -0.4555
61214SOL    HW190503   2.930   9.846   4.424 -0.7189 -0.1870  0.0548
61214SOL    HW290504   2.920   9.989   4.472 -0.3022 -0.2508  0.3440
61215SOL     OW90505  12.276   8.959   3.569  0.0923  0.1477  0.4097
61215SOL    HW190506  12.362   8.972   3.609 -0.0417  0.6643  0.5307
61215SOL    HW290507  12.216   9.013   3.621  0.1880  2.2760 -1.5287
61216SOL     OW90508   1.758   1.273   0.960  0.5034 -0.1902  0.4048
61216SOL    HW190509   1.721   1.187   0.976 -0.8969  0.7368  2.6836
61216SOL    HW290510   1.716   1.303   0.879 -1.0521 -0.6236  1.0198
61217SOL     OW90511   0.011   7.310   2.882 -0.4767 -0.1096  0.5034
61217SOL    HW190512  -0.007   7.219   2.861  0.5031 -0.2375  0.1956
61217SOL    HW290513   0.105   7.320   2.869 -0.9416  1.6662 -2.2994
61218SOL     OW90514   8.753   2.256   7.054 -0.1457 -0.0690 -0.1362
61218SOL    HW190515   8.769   2.162   7.060  0.3095 -0.0110 -0.4003
61218SOL    HW290516   8.800   2.293   7.129 -0.2410 -0.0394 -0.0897
61219SOL     OW90517   4.921  12.212   3.655  0.9765  0.0446 -0.5845
61219SOL    HW190518   4.896  12.301   3.679 -3.2003 -0.8801 -0.7561
61219SOL    HW290519   4.915  12.163   3.737  1.7745 -0.3729 -0.7674
61220SOL     OW90520   5.535   3.374   4.930  0.5419  0.2274 -0.6350
61220SOL    HW190521   5.475   3.346   4.861  2.1049 -0.1469 -1.8864
61220SOL    HW290522   5.536   3.301   4.992 -1.0923  0.6858  0.0052
61221SOL     OW90523  11.276   4.073   3.088  0.1316  0.9863  0.2224
61221SOL    HW190524  11.314   4.160   3.080  0.9284  0.5172 -1.6709
61221SOL    HW290525  11.338   4.025   3.143  0.3591  1.2743  0.2196
61222SOL     OW90526  10.402   0.878   6.143 -0.2528  0.0401 -0.1135
61222SOL    HW190527  10.387   0.784   6.138  1.5070 -0.2284 -0.9907
61222SOL    HW290528  10.484   0.887   6.192 -0.0286  1.0797 -0.6479
61223SOL     OW90529  11.245   3.503  10.217 -0.1717 -0.1532  0.2616
61223SOL    HW190530  11.227   3.550  10.136  0.9643 -1.0830 -0.5569
61223SOL    HW290531  11.224   3.412  10.197 -1.6872 -0.1467  1.6143
61224SOL     OW90532   8.139   5.582   6.758 -0.4880  0.2913 -0.3750
61224SOL    HW190533   8.201   5.509   6.767  0.0020  0.5920 -1.2643
61224SOL    HW290534   8.169   5.630   6.682 -0.2689  1.9594  0.7120
61225SOL     OW90535   9.036   8.755   2.072 -0.3268  0.5361 -0.2492
61225SOL    HW190536   9.073   8.714   1.994 -1.6310 -0.1897 -0.4987
61225SOL    HW290537   8.978   8.823   2.039 -2.3677 -1.0001 -0.0411
61226SOL     OW90538   8.248  12.107   7.958 -0.7228  0.4197  0.2060
61226SOL    HW190539   8.215  12.190   7.992 -0.5258  0.9004 -0.7373
61226SOL    HW290540   8.307  12.132   7.888 -0.3078 -0.5134  0.2109
61227SOL     OW90541   8.680   1.616   4.883 -0.0423 -0.5152  0.2372
61227SOL    HW190542   8.676   1.696   4.935 -0.3023  0.3445 -1.0777
61227SOL    HW290543   8.602   1.619   4.828  1.1106 -0.5328 -1.4495
61228SOL     OW90544   5.866   6.055   7.069 -0.0492  0.6262  0.1986
61228SOL    HW190545   5.802   6.120   7.097 -0.0862  0.1886  1.1742
61228SOL    HW290546   5.857   5.984   7.132  1.5991  0.6875  0.5542
61229SOL     OW90547  10.480  12.306   9.302 -0.1922  0.2790  0.4374
61229SOL    HW190548  10.502  12.298   9.395  1.6175 -0.3270  0.0016
61229SOL    HW290549  10.565  12.307   9.258 -1.0021  1.0666 -1.1837
61230SOL     OW90550   7.396   7.386   6.182  0.2234 -0.5508 -0.2033
61230SOL    HW190551   7.433   7.300   6.165  1.4047 -0.3305  1.0288
61230SOL    HW290552   7.397   7.394   6.278  0.3942  0.9293 -0.3013
61231SOL     OW90553   9.469  10.680   4.597  0.0591  0.3487 -0.1817
61231SOL    HW190554   9.539  10.642   4.650  0.2095 -0.2910 -0.8348
61231SOL    HW290555   9.511  10.753   4.550  0.2483  0.0673 -0.4500
61232SOL     OW90556   8.816   2.716   8.186 -0.1065 -0.6335 -0.2677
61232SOL    HW190557   8.768   2.671   8.256 -2.1201  2.1945  0.3253
61232SOL    HW290558   8.868   2.783   8.232 -0.3664  0.3434 -1.3684
61233SOL     OW90559   0.267   2.848   4.285 -0.2267  0.5786  0.4011
61233SOL    HW190560   0.301   2.935   4.306  0.5646  0.5228 -0.5914
61233SOL    HW290561   0.342   2.790   4.293 -0.0542  0.4339 -1.7289
61234SOL     OW90562   1.121   2.430   0.338  0.1924 -0.2919  0.2529
61234SOL    HW190563   1.080   2.344   0.329  0.8726 -0.9498  2.8258
61234SOL    HW290564   1.052   2.492   0.315 -0.4764 -1.4860 -1.0784
61235SOL     OW90565   4.144   3.847   7.531 -0.4311 -0.2480  0.0172
61235SOL    HW190566   4.055   3.814   7.515 -0.0003 -1.4214 -0.0527
61235SOL    HW290567   4.197   3.805   7.463  0.3578 -0.4201  0.7196
61236SOL     OW90568   3.705   4.525  11.866 -0.3387 -0.5925  0.2346
61236SOL    HW190569   3.671   4.484  11.946  0.0316 -0.2459  0.5749
61236SOL    HW290570   3.628   4.542  11.813 -0.6546 -0.2195  0.8072
61237SOL     OW90571   6.564   1.769   8.109  0.2144  0.5379  0.0731
61237SOL    HW190572   6.513   1.839   8.149 -0.8290 -0.1415 -0.0246
61237SOL    HW290573   6.566   1.792   8.016 -2.7846 -1.0562 -0.5155
61238SOL     OW90574  11.662  11.732  12.317  0.4687 -0.0293  0.7167
61238SOL    HW190575  11.640  11.824  12.305  1.9451  0.0719 -2.0579
61238SOL    HW290576  11.578  11.690  12.335 -0.3726  1.7101  1.0873
61239SOL     OW90577   4.348   3.379   6.300  0.5010  0.0293 -0.1280
61239SOL    HW190578   4.330   3.288   6.279 -0.9971  0.6865 -1.9376
61239SOL    HW290579   4.351   3.382   6.396 -0.7199 -1.6686 -0.0001
61240SOL     OW90580  10.729   9.728  10.158  0.3796  0.2313 -0.3119
61240SOL    HW190581  10.822   9.736  10.133  0.4405  0.8749  0.0884
61240SOL    HW290582  10.703   9.641  10.127  1.4390 -0.4440  0.6012
61241SOL     OW90583   6.780   2.036   9.153 -0.2838 -0.2875 -0.9339
61241SOL    HW190584   6.795   1.950   9.115 -1.0528 -0.4654 -0.8592
61241SOL    HW290585   6.685   2.046   9.154 -0.4009 -0.6834  1.7486
61242SOL     OW90586   7.838   1.129   8.430 -0.2747 -0.4643 -0.1897
61242SOL    HW190587   7.911   1.103   8.374 -0.8689 -2.5086 -0.0885
61242SOL    HW290588   7.848   1.077   8.509 -1.6474 -0.5624 -0.0485
61243SOL     OW90589   1.243   8.483   5.154  0.5550 -0.1167 -0.4527
61243SOL    HW190590   1.206   8.445   5.075  0.4736 -2.7226  0.7311
61243SOL    HW290591   1.332   8.447   5.160  1.2816  1.5822 -0.3247
61244SOL     OW90592   9.505   2.616   7.097 -0.4019 -0.5393 -0.1569
61244SOL    HW190593   9.445   2.608   7.023 -1.5948  0.9684  0.5938
61244SOL    HW290594   9.592   2.614   7.058 -0.9601 -1.4886 -1.4066
61245SOL     OW90595  10.743   8.253   3.982  0.4478  0.3397  0.2871
61245SOL    HW190596  10.829   8.275   3.946 -0.0832 -1.3918 -2.3705
61245SOL    HW290597  10.681   8.279   3.914 -0.7545 -1.9657  0.3966
61246SOL     OW90598   3.843   4.869   4.889  0.2123  0.4441  0.0825
61246SOL    HW190599   3.857   4.957   4.855 -0.9567  0.2915 -0.8555
61246SOL    HW290600   3.757   4.872   4.931 -0.2133 -0.4415 -0.6824
61247SOL     OW90601   4.794   3.424  11.273  0.4809  0.7043  0.1049
61247SOL    HW190602   4.816   3.333  11.292 -0.9593  0.2521 -0.2754
61247SOL    HW290603   4.877   3.464  11.246  0.7377 -1.0570 -1.8979
61248SOL     OW90604   2.434   3.200  11.186 -1.1170 -0.0276  0.4310
61248SOL    HW190605   2.463   3.217  11.275  0.8483 -0.1098 -0.1424
61248SOL    HW290606   2.463   3.277  11.136  0.6856 -1.3363 -0.6808
61249SOL     OW90607   4.460   1.650   8.584 -0.2931  0.3051  0.4420
61249SOL    HW190608   4.383   1.696   8.550 -0.5429  1.2399  2.1520
61249SOL    HW290609   4.501   1.713   8.643  0.9565 -0.7155  0.7094
61250SOL     OW90610   1.485   4.621   3.099 -0.0408 -0.5879 -0.2647
61250SOL    HW190611   1.484   4.526   3.114 -0.1487 -0.3777  1.2647
61250SOL    HW290612   1.431   4.657   3.169  1.4247  0.7332  0.2552
61251SOL     OW90613  11.625   8.911  11.396  0.5125 -0.2888  0.3712
61251SOL    HW190614  11.721   8.922  11.395  0.5889 -0.9254 -0.0355
61251SOL    HW290615  11.597   8.939  11.309  0.3917 -0.5750  0.3163
61252SOL     OW90616   0.053   8.824   1.526 -0.4822 -0.1239  0.5809
61252SOL    HW190617  -0.027   8.849   1.572 -0.8585 -0.9494  0.3824
61252SOL    HW290618   0.064   8.731   1.545 -0.3540 -0.3533 -0.5520
61253SOL     OW90619   6.658  11.473   7.026  0.7730  0.5373  0.0971
61253SOL    HW190620   6.686  11.466   7.117  2.8333 -1.6433 -0.6130
61253SOL    HW290621   6.632  11.384   7.002 -1.4919  1.4048 -0.9957
61254SOL     OW90622   0.837   8.983  10.413  0.5348  0.1826 -0.0147
61254SOL    HW190623   0.775   9.026  10.472  0.8921  0.2435  0.3243
61254SOL    HW290624   0.852   8.897  10.452 -2.1533 -1.3406 -2.0374
61255SOL     OW90625  10.907   2.422   0.043  0.5163  0.0220  0.0346
61255SOL    HW190626  10.859   2.473  -0.022  0.7786 -1.2874 -1.2496
61255SOL    HW290627  10.841   2.366   0.083  0.7578 -1.1403 -1.1034
61256SOL     OW90628   2.661  10.281   9.680 -0.4067  0.2829  0.1348
61256SOL    HW190629   2.657  10.194   9.720  0.6440  0.1937  0.0785
61256SOL    HW290630   2.587  10.283   9.619 -0.2224 -0.7166 -0.1400
61257SOL     OW90631   8.243   5.780   8.197  0.0579  0.4779  0.5207
61257SOL    HW190632   8.200   5.784   8.282 -1.2994 -1.8409  0.0553
61257SOL    HW290633   8.325   5.732   8.213 -0.4769 -0.4824  0.4681
61258SOL     OW90634   8.296  11.339   0.237  0.3320  0.2195  0.0206
61258SOL    HW190635   8.226  11.276   0.256 -0.0003  0.8085  0.8083
61258SOL    HW290636   8.366  11.286   0.199 -0.1246 -0.5517  0.2275
61259SOL     OW90637   9.199   4.633   5.793  0.1543 -0.4070 -0.2380
61259SOL    HW190638   9.194   4.538   5.801 -0.9197 -0.2574  1.5564
61259SOL    HW290639   9.203   4.664   5.884 -1.2142  1.3138 -0.7139
61260SOL     OW90640   8.378   2.556   6.150  0.5510  0.4045  0.0736
61260SOL    HW190641   8.369   2.461   6.144 -0.4578  0.5142 -0.2156
61260SOL    HW290642   8.419   2.570   6.236  0.9040 -0.2917  0.0318
61261SOL     OW90643   7.494   0.463   2.746  0.5927  0.6099 -0.3581
61261SOL    HW190644   7.438   0.410   2.802 -0.7535  1.3504 -0.9794
61261SOL    HW290645   7.495   0.417   2.662  1.5403  0.2103 -0.1490
61262SOL     OW90646   9.196  10.039   6.483  0.0429  0.6099  0.4736
61262SOL    HW190647   9.124   9.980   6.507  1.0857 -0.5686  0.8172
61262SOL    HW290648   9.154  10.124   6.468 -1.3482  0.0712  1.1724
61263SOL     OW90649  10.413   7.740   6.925 -0.0378 -0.3441 -0.0293
61263SOL    HW190650  10.321   7.721   6.909  0.1049 -0.3184 -0.9874
61263SOL    HW290651  10.457   7.708   6.846  0.6038  0.8773 -0.1916
61264SOL     OW90652   9.273   7.654   6.159  0.1142 -0.0117 -0.2037
61264SOL    HW190653   9.318   7.630   6.239 -0.8775  0.1152  0.4099
61264SOL    HW290654   9.301   7.744   6.141  0.9893 -0.3306 -0.4783
61265SOL     OW90655   7.082   5.861   6.115  0.0606  0.1916  0.5691
61265SOL    HW190656   7.144   5.788   6.119  1.0370  1.0171  0.8823
61265SOL    HW290657   7.109   5.911   6.039  0.6446  1.2880  1.4588
61266SOL     OW90658   7.583   6.960   2.386  0.1295 -0.2919 -0.3253
61266SOL    HW190659   7.598   6.884   2.330  1.9787  0.4149 -0.8738
61266SOL    HW290660   7.518   7.012   2.339 -1.5248 -1.7097  0.2885
61267SOL     OW90661   9.275  10.248   5.546  0.2399 -0.1024  0.3264
61267SOL    HW190662   9.236  10.277   5.628 -0.8426 -2.7777  0.8675
61267SOL    HW290663   9.338  10.181   5.572  1.3849  0.4430 -0.9174
61268SOL     OW90664   1.207   6.849   8.412 -0.1313  0.4140  0.9939
61268SOL    HW190665   1.183   6.942   8.420  0.8233  0.6041  1.8002
61268SOL    HW290666   1.223   6.821   8.502 -0.5142 -0.5787  0.7680
61269SOL     OW90667   6.821   7.842   8.444 -0.1631 -0.0756  0.7569
61269SOL    HW190668   6.820   7.765   8.388 -1.6918 -0.8578  1.8133
61269SOL    HW290669   6.900   7.890   8.416 -0.1879 -1.0421 -1.1740
61270SOL     OW90670  11.599   5.469  10.403  0.3212 -0.4652  0.3407
61270SOL    HW190671  11.551   5.394  10.369 -0.0443  0.0074 -0.2143
61270SOL    HW290672  11.658   5.432  10.468 -0.1163 -1.1829  0.3467
61271SOL     OW90673   5.863   9.194   3.725  0.2180 -0.3881  0.9065
61271SOL    HW190674   5.875   9.220   3.634  0.2038 -0.0917  0.9892
61271SOL    HW290675   5.866   9.098   3.723  1.4856 -0.3646  0.7569
61272SOL     OW90676  12.222   7.200   1.082  0.3824 -0.0704  0.1300
61272SOL    HW190677  12.295   7.144   1.108  0.6956  0.4058  0.2773
61272SOL    HW290678  12.146   7.163   1.127  0.8020  0.3668  1.2390
61273SOL     OW90679   3.108   3.306   8.753  0.0491  0.3050  0.7297
61273SOL    HW190680   3.177   3.273   8.695 -0.8467  0.1764 -0.2879
61273SOL    HW290681   3.147   3.302   8.841  1.5040  0.6986  0.1366
61274SOL     OW90682  11.131   2.395   1.230 -0.0136 -0.0370  0.2834
61274SOL    HW190683  11.088   2.412   1.313  0.1065  0.0451  0.3295
61274SOL    HW290684  11.062   2.405   1.164  0.0687  0.7310  0.3003
61275SOL     OW90685   2.964   7.726  11.166 -0.7799  0.1033 -0.1260
61275SOL    HW190686   2.876   7.754  11.189 -0.9565  1.7807 -2.5766
61275SOL    HW290687   3.015   7.806  11.163  0.4799 -0.6748 -0.2885
61276SOL     OW90688   8.676   3.126   6.777  0.3598 -0.5558 -0.2489
61276SOL    HW190689   8.670   3.186   6.851  1.1315 -0.1460 -0.5173
61276SOL    HW290690   8.687   3.182   6.700 -0.2707 -0.9843 -0.6665
61277SOL     OW90691   7.069   3.070   4.703  0.8692  0.0307 -0.0018
61277SOL    HW190692   7.093   2.988   4.660  0.2730  0.1291 -0.5295
61277SOL    HW290693   7.059   3.046   4.795  3.8062  0.1466  0.4398
61278SOL     OW90694   2.452   4.617   6.739  0.1156 -0.3947  0.5782
61278SOL    HW190695   2.455   4.594   6.831  0.8893  0.9062  0.8998
61278SOL    HW290696   2.542   4.639   6.716 -0.4354  1.6687  0.1640
61279SOL     OW90697  10.106   4.592   1.294  0.5757 -0.1895 -0.0437
61279SOL    HW190698  10.059   4.537   1.356  1.4097 -2.2916 -1.1693
61279SOL    HW290699  10.195   4.598   1.329  0.9096 -0.9462 -0.7222
61280SOL     OW90700   3.669   4.318   2.817  0.1897 -1.0367  0.2867
61280SOL    HW190701   3.637   4.336   2.905  0.7957 -1.3753  0.5801
61280SOL    HW290702   3.747   4.264   2.830 -0.1062 -1.6701 -0.4850
61281SOL     OW90703  11.230   9.758  12.055  0.0479 -0.2065 -0.4856
61281SOL    HW190704  11.215   9.663  12.060  1.8590 -0.4704  0.9082
61281SOL    HW290705  11.188   9.784  11.973 -1.3819 -2.0221 -0.4034
61282SOL     OW90706  10.897   1.119   5.332 -0.3907  0.5232 -0.2941
61282SOL    HW190707  10.863   1.029   5.325  0.5640  0.2319 -1.6947
61282SOL    HW290708  10.890   1.153   5.243 -1.9607  2.3356  0.4566
61283SOL     OW90709   6.089   3.222   0.022 -0.3071  0.2692  0.2424
61283SOL    HW190710   6.089   3.134   0.059  0.1998  0.5268  0.8846
61283SOL    HW290711   6.181   3.248   0.024 -0.5350  1.0784  0.7165
61284SOL     OW90712   4.640   5.032  10.037 -0.4532  0.4304 -0.1525
61284SOL    HW190713   4.548   5.010  10.021 -0.6889  0.5131  0.9872
61284SOL    HW290714   4.639   5.078  10.121  1.0225 -2.7374  1.7640
61285SOL     OW90715  10.709   7.480   9.360  0.1318  0.4456 -0.4356
61285SOL    HW190716  10.729   7.509   9.272  2.1594  0.0986 -0.1315
61285SOL    HW290717  10.685   7.560   9.407  0.5076  0.8414 -0.9138
61286SOL     OW90718  10.257   7.149   3.299  0.0401 -0.2163 -0.4518
61286SOL    HW190719  10.186   7.100   3.258  0.1694 -1.2965  0.5605
61286SOL    HW290720  10.287   7.093   3.371 -0.1240  1.5430  1.0638
61287SOL     OW90721   0.474   5.458   6.522 -0.4107  0.0889 -0.0149
61287SOL    HW190722   0.474   5.386   6.585  0.8880  0.4294  0.4146
61287SOL    HW290723   0.537   5.521   6.558 -0.9091  1.0611 -0.7986
61288SOL     OW90724   0.959   1.699  11.289  0.8291 -0.4002 -0.3382
61288SOL    HW190725   0.878   1.730  11.331  0.6541  1.4713 -1.9001
61288SOL    HW290726   0.929   1.634  11.226  0.3200  1.0661 -1.6950
61289SOL     OW90727  12.216   0.318   0.247  0.1919 -0.3848  0.0787
61289SOL    HW190728  12.171   0.392   0.288  1.0012  0.3702 -0.3741
61289SOL    HW290729  12.263   0.356   0.174  2.5493 -0.9485  1.2202
61290SOL     OW90730   9.390   6.670   1.809 -0.3326 -0.0297 -0.7990
61290SOL    HW190731   9.484   6.655   1.799 -0.3223  0.2390 -1.1499
61290SOL    HW290732   9.369   6.640   1.897 -0.1355 -1.1954 -1.1346
61291SOL     OW90733   3.783   5.413  11.868  0.0841 -0.3175 -0.4807
61291SOL    HW190734   3.813   5.445  11.783  2.3861 -0.9727  0.0004
61291SOL    HW290735   3.696   5.451  11.880 -0.8456 -1.1702 -3.6322
61292SOL     OW90736  10.048   8.321   5.929 -0.4241 -0.8576 -0.1447
61292SOL    HW190737   9.965   8.303   5.885  0.3764  0.5539 -2.3922
61292SOL    HW290738  10.055   8.417   5.929  0.0100 -0.8163  2.4371
61293SOL     OW90739   0.804   2.723   0.181 -0.2034 -0.4984  0.1695
61293SOL    HW190740   0.753   2.804   0.185  0.1654 -0.1570 -1.3172
61293SOL    HW290741   0.740   2.655   0.164 -0.3761 -0.3394  0.1843
61294SOL     OW90742   2.339  11.905  10.009 -0.1234 -0.4750  0.1574
61294SOL    HW190743   2.287  11.826  10.017  1.1303 -1.5478 -1.5993
61294SOL    HW290744   2.430  11.875  10.017  0.3899  0.7011 -0.9136
61295SOL     OW90745  11.202   6.443   4.905 -0.7780  0.2032 -0.4256
61295SOL    HW190746  11.169   6.426   4.993 -0.5064 -1.3613 -0.5869
61295SOL    HW290747  11.245   6.361   4.880 -2.6260 -0.1431 -2.8083
61296SOL     OW90748   6.067   4.354   3.861  0.6974  0.9118  0.3510
61296SOL    HW190749   6.152   4.343   3.905 -0.4453  2.6865  3.3223
61296SOL    HW290750   6.071   4.441   3.821  0.3921  0.8845  0.2575
61297SOL     OW90751   2.115   5.921   9.316 -0.4591  0.2443 -0.5831
61297SOL    HW190752   2.035   5.932   9.264 -0.5631 -0.3911 -0.5656
61297SOL    HW290753   2.111   5.831   9.346  0.3414  0.1688 -0.6927
61298SOL     OW90754  10.142   8.184   1.522  0.0691  0.0158 -0.0204
61298SOL    HW190755  10.236   8.195   1.509  0.4460  0.5357  2.5250
61298SOL    HW290756  10.132   8.093   1.550 -0.2883 -0.2150 -0.8678
61299SOL     OW90757   6.011   5.338   7.650  0.0120 -0.4483  0.6506
61299SOL    HW190758   6.089   5.283   7.648  0.0778 -0.3930 -1.8437
61299SOL    HW290759   6.045   5.428   7.644 -0.1950 -0.3590  0.8242
61300SOL     OW90760   8.956  10.016   1.339  0.3102  0.1974  0.2484
61300SOL    HW190761   8.889   9.963   1.382 -1.9181  2.4649 -0.1787
61300SOL    HW290762   9.005  10.056   1.411  1.2340 -1.4233  0.5672
61301SOL     OW90763  10.129   6.904   1.537  0.1251  0.0181 -0.1299
61301SOL    HW190764  10.218   6.924   1.508  0.6279  0.0797  1.3571
61301SOL    HW290765  10.120   6.948   1.622 -0.8228 -1.1311  0.4120
61302SOL     OW90766   4.748   3.099   2.816  0.3548 -0.6695  0.6079
61302SOL    HW190767   4.813   3.133   2.877 -0.7105  2.1643  0.3314
61302SOL    HW290768   4.674   3.159   2.825 -1.3733 -2.4862 -0.6666
61303SOL     OW90769   7.196   6.065  12.073 -0.2405 -0.0258  0.0436
61303SOL    HW190770   7.237   5.990  12.117 -0.5002 -0.8882 -1.1562
61303SOL    HW290771   7.163   6.119  12.145  1.3981 -0.2027  0.9869
61304SOL     OW90772   9.678  12.038   7.221  0.2415  0.0640  0.3142
61304SOL    HW190773   9.724  12.112   7.261 -1.6512  0.8674  1.0896
61304SOL    HW290774   9.663  11.977   7.292 -0.0513 -0.1157  0.0996
61305SOL     OW90775   7.748   8.174   9.007  0.2108  0.7290 -0.1923
61305SOL    HW190776   7.687   8.123   8.953 -0.9051  1.4416  0.3347
61305SOL    HW290777   7.698   8.192   9.087  1.7555 -0.1547  1.0171
61306SOL     OW90778  10.672   8.339   1.824 -0.3536  0.3773 -0.0118
61306SOL    HW190779  10.690   8.309   1.734 -1.8225  2.6524 -1.1419
61306SOL    HW290780  10.578   8.355   1.825 -0.2010  1.3120  1.6528
61307SOL     OW90781   3.953  11.087  11.056  0.1257 -0.0085 -0.3414
61307SOL    HW190782   3.912  11.115  10.974  2.0269 -0.1342 -1.4031
61307SOL    HW290783   3.886  11.102  11.123 -0.9427  1.5910 -1.6830
61308SOL     OW90784   7.482  11.169   6.383  0.0518 -0.0232 -0.1991
61308SOL    HW190785   7.424  11.167   6.306 -0.8974  0.0906  0.4932
61308SOL    HW290786   7.568  11.189   6.347 -0.2168 -0.7804 -1.3219
61309SOL     OW90787   1.511  10.819  11.704 -0.6540  0.5055 -1.0583
61309SOL    HW190788   1.428  10.802  11.749 -0.2671  2.4923  0.4995
61309SOL    HW290789   1.501  10.906  11.666  1.1265  1.3513  0.2508
61310SOL     OW90790   4.679   0.497   0.672  0.2622  0.4647 -0.0292
61310SOL    HW190791   4.617   0.479   0.601 -0.3839 -0.4114  0.7259
61310SOL    HW290792   4.758   0.449   0.649 -1.2277 -3.2131  1.6630
61311SOL     OW90793   2.007   3.201   2.717  0.0792  0.3267 -0.3197
61311SOL    HW190794   1.962   3.278   2.683  0.7262  0.3712 -1.1085
61311SOL    HW290795   2.028   3.224   2.808  0.3911  1.1448 -0.5889
61312SOL     OW90796  10.759   2.725   3.773 -0.1375 -0.2549 -0.2795
61312SOL    HW190797  10.815   2.801   3.786 -0.4926  0.1849 -1.2957
61312SOL    HW290798  10.704   2.723   3.851  2.3811 -1.7012  1.6288
61313SOL     OW90799   2.462   5.496   1.088  0.6751 -0.3234 -0.3100
61313SOL    HW190800   2.449   5.586   1.057 -1.1532  0.1629  1.6064
61313SOL    HW290801   2.407   5.443   1.031 -0.9672  0.2713  0.6484
61314SOL     OW90802   8.213  10.909  11.940  0.5083 -0.0725 -0.7928
61314SOL    HW190803   8.308  10.920  11.943  0.9150 -3.0866  1.5371
61314SOL    HW290804   8.197  10.858  11.861  0.9480 -0.5003 -0.6056
61315SOL     OW90805   6.656   3.892  10.543  0.3545 -0.4514 -0.2336
61315SOL    HW190806   6.665   3.884  10.448  1.1112  0.5979 -0.2733
61315SOL    HW290807   6.575   3.942  10.555  0.6477  0.0668 -0.3704
61316SOL     OW90808   9.530   8.563   7.525  0.0448  0.4755 -0.1349
61316SOL    HW190809   9.573   8.633   7.575  2.8828  0.0588 -1.8013
61316SOL    HW290810   9.543   8.587   7.434  0.3172 -1.7658 -0.7467
61317SOL     OW90811   5.310  10.367   6.302  0.0738 -0.0386 -0.0659
61317SOL    HW190812   5.380  10.428   6.283  0.5485 -1.0696 -1.8362
61317SOL    HW290813   5.299  10.316   6.222 -2.3310 -0.2871  0.3289
61318SOL     OW90814  10.391   8.743   8.317  0.0850  0.2690  0.3860
61318SOL    HW190815  10.479   8.735   8.279  0.7519 -0.0218  1.9462
61318SOL    HW290816  10.351   8.657   8.303 -0.3247  0.6640 -1.1251
61319SOL     OW90817   7.858   1.300   5.088  0.4729 -0.0021 -0.1525
61319SOL    HW190818   7.852   1.378   5.033  0.4037 -0.2930 -0.5638
61319SOL    HW290819   7.913   1.239   5.039  0.9664 -0.0159  0.4090
61320SOL     OW90820  10.198   8.745   6.960 -0.0248 -0.6618  0.5626
61320SOL    HW190821  10.148   8.805   6.905 -0.1927 -1.9383 -0.7264
61320SOL    HW290822  10.218   8.796   7.038 -0.4328  0.9654 -0.3440
61321SOL     OW90823  11.562   8.019   6.109 -0.0946  0.9799 -0.1556
61321SOL    HW190824  11.645   8.047   6.148  0.6697 -0.3714 -0.7390
61321SOL    HW290825  11.580   7.931   6.076 -1.6399  0.8464 -0.7004
61322SOL     OW90826   8.667   1.838   8.138 -0.9928  0.1220  0.5435
61322SOL    HW190827   8.603   1.796   8.196  0.0966 -0.8322  1.1100
61322SOL    HW290828   8.690   1.919   8.184  0.1403 -0.8034  1.6940
61323SOL     OW90829  10.881   0.987   7.986  0.4075  0.5447  0.1716
61323SOL    HW190830  10.933   0.910   8.007 -0.3756  0.1119  0.6091
61323SOL    HW290831  10.841   1.012   8.070  0.0917  0.9889 -0.1085
61324SOL     OW90832  12.036   9.731   4.193 -0.0252  0.2466 -0.7410
61324SOL    HW190833  12.029   9.662   4.127 -0.1190  0.1537 -0.6368
61324SOL    HW290834  12.056   9.683   4.274 -1.9686  0.1423 -0.2831
61325SOL     OW90835   1.315   5.837   0.123  0.5743  0.4432 -0.2082
61325SOL    HW190836   1.372   5.778   0.173  0.5077  1.2672  0.8679
61325SOL    HW290837   1.347   5.925   0.143  2.2167  0.8226 -3.6347
61326SOL     OW90838   8.244   0.162   7.336  0.1140  0.1859  0.4000
61326SOL    HW190839   8.152   0.149   7.359 -0.3233  1.2662 -0.6105
61326SOL    HW290840   8.285   0.194   7.417 -0.6268  0.6706  0.5920
61327SOL     OW90841   8.841   1.973  11.306  0.2965  0.3126 -0.7157
61327SOL    HW190842   8.858   1.897  11.251  1.1922  0.7003 -0.9866
61327SOL    HW290843   8.790   2.032  11.250 -0.0577  0.0840 -0.6375
61328SOL     OW90844   8.355   3.348   8.181  0.3861  0.4548 -0.4245
61328SOL    HW190845   8.406   3.311   8.109 -0.4412 -0.6466 -0.4658
61328SOL    HW290846   8.418   3.359   8.252  0.9839  0.5321 -0.9569
61329SOL     OW90847   2.826   8.931   9.376 -0.2596  0.4480 -0.8480
61329SOL    HW190848   2.793   8.844   9.398 -0.1727  0.4771 -0.6084
61329SOL    HW290849   2.747   8.982   9.353 -0.5593  0.9538  1.1607
61330SOL     OW90850   9.531   0.578  10.595  0.4379  0.2466 -0.2293
61330SOL    HW190851   9.567   0.578  10.684  0.3008  2.8577 -0.0800
61330SOL    HW290852   9.487   0.663  10.588  1.0459  0.4115 -3.0299
61331SOL     OW90853   2.874  10.430   9.818 -0.0453  0.6507 -0.2744
61331SOL    HW190854   2.924  10.360   9.859 -0.7151  1.4251  2.0126
61331SOL    HW290855   2.788  10.391   9.801 -0.0061  0.5494 -0.2423
61332SOL     OW90856   7.087  10.373   5.366  0.4358 -0.1861 -0.0184
61332SOL    HW190857   7.133  10.356   5.283  0.1234 -0.9329 -0.0439
61332SOL    HW290858   7.051  10.288   5.391 -1.0718  0.4119 -0.0760
61333SOL     OW90859   5.484   8.298   3.822 -0.1518 -0.1502 -0.2951
61333SOL    HW190860   5.392   8.272   3.825  0.5190 -2.8340  0.0367
61333SOL    HW290861   5.495   8.341   3.737 -1.2740 -1.8072 -1.3188
61334SOL     OW90862   6.020   6.557   1.487  0.1086 -0.4349  0.2411
61334SOL    HW190863   5.993   6.624   1.551 -2.0745 -0.7475 -0.2769
61334SOL    HW290864   6.062   6.489   1.540  2.3820  1.2660  0.7804
61335SOL     OW90865  12.057   0.027   4.079 -0.0546 -0.0509  0.0904
61335SOL    HW190866  12.066  -0.038   4.150  0.1586  0.2412  0.3330
61335SOL    HW290867  11.965   0.054   4.084  0.2167  0.7900  0.9919
61336SOL     OW90868   4.536  10.710  10.753  0.6650 -0.0268 -0.0065
61336SOL    HW190869   4.495  10.680  10.834  0.5432  0.0282 -0.0477
61336SOL    HW290870   4.478  10.779  10.721  1.7089  1.3148  0.8649
61337SOL     OW90871  11.706  11.176   9.392 -0.4692 -0.7502 -0.4528
61337SOL    HW190872  11.665  11.262   9.379 -0.1526 -0.5251 -0.0021
61337SOL    HW290873  11.798  11.196   9.409 -0.8034 -1.0043  1.9797
61338SOL     OW90874   0.864  12.303   0.115  0.0010  0.1512  0.0571
61338SOL    HW190875   0.821  12.254   0.185 -1.3153 -0.1276 -0.9019
61338SOL    HW290876   0.951  12.262   0.107 -1.1509 -2.2966 -0.9066
61339SOL     OW90877   7.346   8.714   8.447  0.3422 -0.9455  0.4681
61339SOL    HW190878   7.384   8.726   8.360  0.8967 -3.1053  0.3739
61339SOL    HW290879   7.252   8.706   8.431 -0.0898  2.5519  0.5275
61340SOL     OW90880   5.619   0.533  10.354 -0.4654  0.2482  0.2062
61340SOL    HW190881   5.647   0.615  10.312 -1.3554 -0.3643 -1.6972
61340SOL    HW290882   5.647   0.542  10.445  0.0600  2.3775 -0.1116
61341SOL     OW90883   6.977  10.159   4.842 -0.2349 -0.2492  0.4917
61341SOL    HW190884   6.989  10.199   4.928  1.8797  0.5216 -0.1004
61341SOL    HW290885   7.035  10.083   4.842  0.1704  0.0374 -0.4005
61342SOL     OW90886   8.470  10.565  10.057 -0.0990  0.5009 -0.1462
61342SOL    HW190887   8.443  10.588   9.968  0.0599  0.2361 -0.2641
61342SOL    HW290888   8.423  10.626  10.113  0.1531  0.9680 -0.4426
61343SOL     OW90889  10.028  10.684   6.718  0.1565  0.2654  0.3602
61343SOL    HW190890   9.934  10.695   6.702 -0.1908 -2.0397  0.5712
61343SOL    HW290891  10.040  10.712   6.809 -1.0101 -2.4778  1.4758
61344SOL     OW90892   9.605   7.048   0.683 -0.2073 -0.2365 -0.5024
61344SOL    HW190893   9.630   7.005   0.765  0.1145  0.9469  0.0444
61344SOL    HW290894   9.684   7.044   0.629  0.2343  0.7931  0.0475
61345SOL     OW90895   1.942   6.997   4.505 -0.0243  0.3408  0.7799
61345SOL    HW190896   1.964   7.077   4.457 -0.0127  0.6632  1.3130
61345SOL    HW290897   1.854   7.012   4.540 -0.7589 -0.5849 -0.5796
61346SOL     OW90898   4.049   0.874   8.125  0.1178 -0.1400 -0.3040
61346SOL    HW190899   4.062   0.969   8.128  0.7222 -0.2466  0.5273
61346SOL    HW290900   3.962   0.860   8.163  0.6080 -0.0345  0.8650
61347SOL     OW90901   4.494   8.697  12.315 -0.7582  0.5453 -0.1571
61347SOL    HW190902   4.576   8.746  12.302 -0.8129  0.5943 -0.3289
61347SOL    HW290903   4.515   8.632  12.381  0.6215 -2.1684 -3.0006
61348SOL     OW90904   5.256   6.974  11.179  0.0302 -0.1888  0.1571
61348SOL    HW190905   5.325   6.965  11.245  0.4423 -1.4581 -0.4223
61348SOL    HW290906   5.216   6.887  11.174 -0.6251  0.1468 -0.5916
61349SOL     OW90907   9.424   0.656   8.597  0.0291  0.1541  0.6609
61349SOL    HW190908   9.375   0.599   8.656 -0.3658  0.4678  0.6418
61349SOL    HW290909   9.361   0.724   8.572  0.4630  0.5426  0.6093
61350SOL     OW90910   8.738   7.386   1.525 -0.1298 -0.1209 -0.6392
61350SOL    HW190911   8.671   7.387   1.593  0.2555  1.7985 -0.2283
61350SOL    HW290912   8.777   7.299   1.530  0.1777  0.0953  1.8952
61351SOL     OW90913   8.824   5.014   1.083 -0.3402 -0.3677  0.2260
61351SOL    HW190914   8.887   5.054   1.023  0.9649  0.6510  2.2031
61351SOL    HW290915   8.746   4.998   1.029  1.6735 -2.0827 -2.4342
61352SOL     OW90916  10.356   2.712   0.899  0.4264 -0.2637  0.6488
61352SOL    HW190917  10.260   2.714   0.901  0.3377 -1.3337 -1.0200
61352SOL    HW290918  10.378   2.710   0.806  2.1208  0.8965  0.9819
61353SOL     OW90919  10.786   2.897   5.033 -0.7317  0.5049 -0.1220
61353SOL    HW190920  10.844   2.929   4.965 -1.2522  0.6934 -0.4818
61353SOL    HW290921  10.722   2.843   4.986 -0.2024 -0.6144  0.3998
61354SOL     OW90922  10.717   9.975   6.822  0.4626  0.2396  0.3242
61354SOL    HW190923  10.758   9.890   6.813  1.7314  0.7413  1.0505
61354SOL    HW290924  10.624   9.959   6.808  0.3969 -1.6292  2.4385
61355SOL     OW90925   0.603  11.458   3.557  0.2589 -0.7696  0.0446
61355SOL    HW190926   0.508  11.456   3.546  0.1340  0.5983  0.6507
61355SOL    HW290927   0.638  11.452   3.468 -0.3771 -1.4054 -0.1725
61356SOL     OW90928   7.746   1.051   9.724 -0.0274  0.1519  0.3206
61356SOL    HW190929   7.724   0.960   9.706 -1.3774  0.1957  1.6139
61356SOL    HW290930   7.772   1.052   9.816  0.9173  0.9360  0.0754
61357SOL     OW90931   3.960   3.543   3.148 -0.6362  0.0043  0.0174
61357SOL    HW190932   3.969   3.622   3.095  1.2829 -0.5082 -0.4765
61357SOL    HW290933   3.942   3.576   3.236 -1.7463  0.9163 -0.5131
61358SOL     OW90934   3.698  12.083   2.568  0.1361  0.3686 -0.1315
61358SOL    HW190935   3.669  12.040   2.648  1.0994 -3.0619 -1.4168
61358SOL    HW290936   3.628  12.067   2.505 -0.3407  2.4979 -0.2108
61359SOL     OW90937   4.867  11.366   6.132  0.4209 -0.4503 -0.6561
61359SOL    HW190938   4.884  11.290   6.187 -3.1967 -1.7249 -1.0673
61359SOL    HW290939   4.827  11.331   6.053 -1.3323  1.8096 -0.8896
61360SOL     OW90940  11.858   5.108   0.940 -0.2402  0.3091  0.3619
61360SOL    HW190941  11.907   5.061   0.873 -0.5836 -1.8549  1.5512
61360SOL    HW290942  11.785   5.147   0.893 -0.1195 -0.6266 -0.6282
61361SOL     OW90943   4.337   2.483   8.373 -0.3764 -0.3634 -0.6344
61361SOL    HW190944   4.406   2.432   8.332 -0.1842 -1.1306  0.6064
61361SOL    HW290945   4.327   2.445   8.460 -0.4439  1.5252  0.2282
61362SOL     OW90946   5.124   7.859   0.343  0.1214  0.3706 -0.3063
61362SOL    HW190947   5.074   7.905   0.276  0.7933  2.4537  0.5314
61362SOL    HW290948   5.189   7.808   0.295 -0.5982  0.3570 -1.2807
61363SOL     OW90949   6.512   2.871   3.777  0.4052  0.8277  0.3000
61363SOL    HW190950   6.477   2.792   3.736 -0.3090  2.4394 -2.5482
61363SOL    HW290951   6.506   2.938   3.708  1.6715  3.1894  2.3037
61364SOL     OW90952   0.536   6.640   7.969 -0.5339 -0.3429  0.1371
61364SOL    HW190953   0.557   6.571   8.032 -1.5503 -0.7847  0.0167
61364SOL    HW290954   0.449   6.616   7.936  0.8416 -1.2995 -3.0610
61365SOL     OW90955   3.306  10.503   2.253  0.0827 -0.1471  0.4724
61365SOL    HW190956   3.393  10.525   2.285  0.7890 -1.1495 -0.6907
61365SOL    HW290957   3.253  10.581   2.272  0.9680  0.1180  2.0607
61366SOL     OW90958   8.003   5.826   7.674  0.3754 -0.2009 -0.3635
61366SOL    HW190959   8.047   5.742   7.665 -0.0606 -0.3831 -0.8890
61366SOL    HW290960   7.974   5.828   7.765  1.2273 -0.1896 -0.0873
61367SOL     OW90961   6.413   8.714   7.526 -0.1481  0.0070  0.0557
61367SOL    HW190962   6.505   8.694   7.544 -0.4904 -1.5884  0.1613
61367SOL    HW290963   6.405   8.708   7.430 -0.0355  0.6721  0.0011
61368SOL     OW90964   0.293   6.361   6.804 -0.1279  0.4871  0.2651
61368SOL    HW190965   0.241   6.340   6.881 -1.1216  0.9809 -0.2564
61368SOL    HW290966   0.247   6.433   6.762 -1.2803 -1.5926 -2.3769
61369SOL     OW90967   6.449   3.020   6.252 -0.1786 -0.1313  0.2617
61369SOL    HW190968   6.542   3.025   6.276  0.4613 -1.1200 -1.7792
61369SOL    HW290969   6.410   2.964   6.320  0.5714  0.6949  1.4222
61370SOL     OW90970   6.731   9.945   5.929 -0.3393 -0.1649 -0.1151
61370SOL    HW190971   6.813   9.897   5.926  0.2928  0.6175  2.1404
61370SOL    HW290972   6.676   9.904   5.862  2.1480 -0.1163 -2.3048
61371SOL     OW90973   7.755   5.765   4.455 -0.5937 -0.1215  0.0019
61371SOL    HW190974   7.665   5.749   4.429 -0.7849 -0.2273  0.7099
61371SOL    HW290975   7.756   5.751   4.550 -0.1425  1.2348  0.2262
61372SOL     OW90976   0.656   9.568  11.210  0.1252 -0.5682  0.3584
61372SOL    HW190977   0.699   9.486  11.184  0.3881 -0.4951  0.5648
61372SOL    HW290978   0.722   9.615  11.260 -0.3044 -0.5999  0.9636
61373SOL     OW90979   5.423   1.549  10.463 -0.3710 -0.6135  0.8602
61373SOL    HW190980   5.432   1.545  10.368  1.5786  1.1402  0.8871
61373SOL    HW290981   5.336   1.515  10.481 -0.5852 -1.4894 -1.4926
61374SOL     OW90982   5.768   2.306   1.929 -0.3683 -0.2691  0.1926
61374SOL    HW190983   5.834   2.370   1.952  0.1759 -0.4353 -0.8594
61374SOL    HW290984   5.705   2.309   2.001  0.4145  0.3864  0.8594
61375SOL     OW90985   8.504   2.236   5.239  0.3919  0.2995  0.5310
61375SOL    HW190986   8.420   2.279   5.256 -0.7400 -0.6999 -1.9398
61375SOL    HW290987   8.540   2.284   5.163  1.5080 -0.0335  0.8231
61376SOL     OW90988   0.571   9.045   5.213 -0.4184  0.0304 -0.1704
61376SOL    HW190989   0.635   9.048   5.285 -2.0867 -1.7960  1.5245
61376SOL    HW290990   0.604   9.107   5.149  1.2555  1.6756  2.1127
61377SOL     OW90991   1.671   9.092   7.878 -0.0461  0.9662 -0.0712
61377SOL    HW190992   1.698   9.103   7.970  1.2662 -0.1281 -0.2886
61377SOL    HW290993   1.587   9.046   7.884 -0.4113  1.6874  0.5870
61378SOL     OW90994   1.199   7.172   2.911  0.2876  0.1771 -0.4863
61378SOL    HW190995   1.235   7.181   2.999 -0.1917  0.6361 -0.3322
61378SOL    HW290996   1.159   7.257   2.892 -0.2593 -0.1484 -0.8499
61379SOL     OW90997   5.210  10.147   1.000 -0.5425  0.0005 -0.3658
61379SOL    HW190998   5.295  10.189   1.012 -1.4020  1.4709  1.0874
61379SOL    HW290999   5.228  10.054   1.004  1.0700  0.2641 -0.6915
61380SOL     OW91000   3.427   5.016   8.750  0.3675 -0.3512  0.3331
61380SOL    HW191001   3.485   5.079   8.706 -0.4695  0.1487 -0.0867
61380SOL    HW291002   3.409   5.055   8.835 -2.2810  1.4088 -0.8688
61381SOL     OW91003   0.945   5.556   3.770  0.1265  0.0638 -0.1822
61381SOL    HW191004   1.010   5.601   3.824 -0.5062  0.5262  0.2072
61381SOL    HW291005   0.864   5.605   3.784 -0.2410 -0.3133 -0.9037
61382SOL     OW91006   7.223  11.866   8.158 -0.1279  0.6752 -0.1558
61382SOL    HW191007   7.299  11.826   8.116 -1.6571 -1.8661 -0.7338
61382SOL    HW291008   7.166  11.891   8.085 -0.9112  0.2465  0.2977
61383SOL     OW91009   0.664   4.926   3.267 -0.2059  0.1040 -0.0061
61383SOL    HW191010   0.759   4.921   3.280 -0.4124  0.8124  2.0984
61383SOL    HW291011   0.643   5.019   3.271 -0.9951 -0.0331 -0.5865
61384SOL     OW91012   6.176   0.792   4.161 -0.6849  0.0676  0.2757
61384SOL    HW191013   6.147   0.720   4.105 -0.0296 -0.0756  0.1169
61384SOL    HW291014   6.133   0.775   4.245 -0.3061 -0.6741  0.3269
61385SOL     OW91015   3.913   1.265   7.285 -0.5136  0.0603 -0.4467
61385SOL    HW191016   3.827   1.262   7.327 -0.8407 -0.1497 -1.1140
61385SOL    HW291017   3.910   1.194   7.220  0.5330 -0.6073  0.2191
61386SOL     OW91018   6.815   6.879   4.626  0.6367  0.1445 -0.0636
61386SOL    HW191019   6.882   6.823   4.664  0.3442 -0.4156 -0.3690
61386SOL    HW291020   6.771   6.919   4.701  0.4232 -0.5259  0.1706
61387SOL     OW91021   7.055   0.536   3.240 -0.4266  0.2896  0.3654
61387SOL    HW191022   6.992   0.600   3.272 -0.3134  0.5749  0.0228
61387SOL    HW291023   7.045   0.461   3.298  1.6094  1.7121  2.7625
61388SOL     OW91024   3.777   3.732   0.361  0.1840  0.9687 -0.5697
61388SOL    HW191025   3.823   3.650   0.343  0.4298  0.8142  0.6659
61388SOL    HW291026   3.694   3.724   0.316  0.5360  0.3813 -1.1256
61389SOL     OW91027   7.452   3.764   7.619  0.0806 -0.6782  0.2252
61389SOL    HW191028   7.460   3.820   7.541  1.0749 -1.0553  0.0347
61389SOL    HW291029   7.438   3.826   7.691  3.9579  0.1951  0.4771
61390SOL     OW91030   5.630   0.366   9.976  0.5809  0.3374  0.1221
61390SOL    HW191031   5.601   0.281   9.941  1.8253 -0.1082  0.1156
61390SOL    HW291032   5.647   0.350  10.068 -1.4820  1.2065  0.7035
61391SOL     OW91033   1.904   6.459  12.199 -0.4405  0.6574  0.1298
61391SOL    HW191034   1.865   6.423  12.119 -0.3709  0.2203  0.2909
61391SOL    HW291035   1.831   6.495  12.248 -0.3766  1.7577 -0.5521
61392SOL     OW91036   2.436  10.748   3.140  0.5137 -0.0414 -0.3378
61392SOL    HW191037   2.399  10.836   3.135  1.1049  0.5682  3.1495
61392SOL    HW291038   2.531  10.763   3.141  0.6521 -0.8471 -1.1335
61393SOL     OW91039   1.843  11.844   3.221 -0.1695 -0.4010 -0.4672
61393SOL    HW191040   1.788  11.895   3.161  2.0341  2.8102 -0.0004
61393SOL    HW291041   1.924  11.827   3.173  0.3103 -0.8244  0.4468
61394SOL     OW91042   5.059   6.443   2.766 -0.2576 -0.1835  0.0602
61394SOL    HW191043   5.149   6.476   2.766  0.1095 -1.1366 -0.0995
61394SOL    HW291044   5.010   6.506   2.713  0.6714 -0.5179 -1.2404
61395SOL     OW91045   0.040   3.682   1.105  0.6545  0.0550  0.0607
61395SOL    HW191046   0.101   3.697   1.033  0.5583  1.6844  0.2838
61395SOL    HW291047  -0.032   3.743   1.088 -0.4807 -1.1757  0.3053
61396SOL     OW91048   6.796   9.818  12.106 -0.0282  0.1613  0.1256
61396SOL    HW191049   6.774   9.803  12.014  0.6303  0.7146 -0.1322
61396SOL    HW291050   6.761   9.905  12.125 -1.4281 -0.5263  0.8212
61397SOL     OW91051  10.215   9.972   4.345  0.7897 -0.0982  0.0956
61397SOL    HW191052  10.247   9.980   4.255 -1.5192 -0.6337 -0.8628
61397SOL    HW291053  10.286  10.005   4.399  2.2570  0.2573 -1.9257
61398SOL     OW91054  10.617   8.634   5.798  0.0833  0.0790 -0.2655
61398SOL    HW191055  10.681   8.642   5.868 -0.8773 -0.6084  0.7165
61398SOL    HW291056  10.563   8.559   5.823 -0.5698  0.1145 -1.5026
61399SOL     OW91057  12.119   2.764   1.572  0.8251  0.1173 -0.3523
61399SOL    HW191058  12.059   2.772   1.646  1.4477  0.6122  0.0998
61399SOL    HW291059  12.061   2.763   1.495  0.1584 -0.7254  0.1421
61400SOL     OW91060  11.148  10.706   2.623 -0.2483 -0.1387  0.0162
61400SOL    HW191061  11.157  10.765   2.698 -1.3385 -0.4177  0.3914
61400SOL    HW291062  11.060  10.724   2.589 -0.6961 -1.7059  0.2805
61401SOL     OW91063   5.522   5.997   2.967  0.1992  0.3337 -0.4768
61401SOL    HW191064   5.519   6.060   2.895 -1.8381  1.1043  0.2123
61401SOL    HW291065   5.434   6.001   3.006  0.8909 -0.9051  1.3261
61402SOL     OW91066   6.572   2.760   1.822 -0.4083  0.3786  0.6511
61402SOL    HW191067   6.585   2.706   1.744  0.8617 -1.6630  2.1825
61402SOL    HW291068   6.478   2.782   1.820 -0.4719  0.1129 -1.2313
61403SOL     OW91069   6.906   9.601   5.089 -0.5309 -0.1337  0.1077
61403SOL    HW191070   6.820   9.597   5.130 -0.4035 -0.8028  0.3230
61403SOL    HW291071   6.958   9.536   5.137 -0.4327 -1.0886 -1.2461
61404SOL     OW91072  11.825   8.656   5.757  0.1709  0.4061 -0.0213
61404SOL    HW191073  11.880   8.734   5.747 -0.6624  1.3014  1.9333
61404SOL    HW291074  11.801   8.633   5.667  1.9210  1.2767 -0.7805
61405SOL     OW91075   5.202   0.902   7.921 -0.4893  0.2863 -0.1232
61405SOL    HW191076   5.291   0.936   7.927 -0.6403  0.9253 -1.2531
61405SOL    HW291077   5.209   0.826   7.864 -0.6559  0.2670 -0.1184
61406SOL     OW91078   4.268  12.095   4.588  0.4744 -0.0731  0.6478
61406SOL    HW191079   4.341  12.127   4.642  0.2002  0.8874  0.4626
61406SOL    HW291080   4.205  12.166   4.589 -0.2081 -0.6658  0.3100
61407SOL     OW91081  12.000   6.319   8.914 -0.0331 -0.1245  0.3148
61407SOL    HW191082  11.983   6.257   8.844  0.7298 -0.7420  0.6667
61407SOL    HW291083  11.913   6.350   8.940 -0.4313 -1.1622  0.2459
61408SOL     OW91084   8.830   5.059   3.847  0.0409  0.1667  0.0296
61408SOL    HW191085   8.791   5.102   3.770  0.0296 -0.0808 -0.1044
61408SOL    HW291086   8.785   4.975   3.853  1.1074 -0.4665 -0.6042
61409SOL     OW91087   1.024   5.103   8.193 -0.1023  0.1862  0.0431
61409SOL    HW191088   0.950   5.081   8.136  0.8743  0.2344 -1.2730
61409SOL    HW291089   0.983   5.127   8.276 -1.4874 -1.2591 -0.1724
61410SOL     OW91090  11.841   5.107   4.428 -0.2940 -0.6725 -0.1452
61410SOL    HW191091  11.840   5.200   4.403 -1.6057 -0.8213 -0.7412
61410SOL    HW291092  11.934   5.083   4.426 -0.1041  0.0263 -2.3115
61411SOL     OW91093  10.407   8.195   4.070 -0.3971  0.5699 -0.1595
61411SOL    HW191094  10.473   8.128   4.084 -0.0310  0.8454 -0.5472
61411SOL    HW291095  10.386   8.188   3.976 -0.9008  0.5035 -0.0493
61412SOL     OW91096   4.237   2.661   0.265  0.6789 -0.4914 -0.3645
61412SOL    HW191097   4.225   2.607   0.343  0.8681 -0.8438 -0.5773
61412SOL    HW291098   4.200   2.609   0.194  1.1232 -0.4608 -0.6165
61413SOL     OW91099  11.495   1.516   7.188  0.1644 -1.1945  0.1374
61413SOL    HW191100  11.429   1.453   7.159  0.8975 -2.6453  1.4565
61413SOL    HW291101  11.578   1.471   7.179  0.6500 -0.7259  1.8400
61414SOL     OW91102   7.754   4.370   0.047 -0.0748 -0.2140 -0.0695
61414SOL    HW191103   7.707   4.391  -0.034 -2.2240 -0.3422  1.0668
61414SOL    HW291104   7.758   4.453   0.094 -3.3011 -0.9543  1.8069
61415SOL     OW91105   9.739  11.199   8.121 -0.2717  0.0433  0.3256
61415SOL    HW191106   9.765  11.288   8.099 -0.6993 -0.2839 -1.6669
61415SOL    HW291107   9.817  11.147   8.106 -0.8638 -0.3430 -1.6192
61416SOL     OW91108   8.384   9.667   1.181  0.3206  0.2829 -0.3963
61416SOL    HW191109   8.323   9.737   1.159  0.7959  0.5916 -0.7362
61416SOL    HW291110   8.332   9.606   1.233 -0.8487 -0.4591 -2.3211
61417SOL     OW91111  10.981   9.612   8.835  0.3091  0.0458  0.6175
61417SOL    HW191112  11.075   9.629   8.845 -0.0308  0.9991  2.9046
61417SOL    HW291113  10.953   9.582   8.922 -1.6215  0.5232  0.2008
61418SOL     OW91114   4.574   4.880   2.181  0.0404 -0.1154  0.3228
61418SOL    HW191115   4.494   4.932   2.173  1.0338  1.3140 -0.8015
61418SOL    HW291116   4.545   4.798   2.222 -1.7604  0.8592  1.1225
61419SOL     OW91117   0.232   3.430   5.713  0.3926 -0.6918  0.2253
61419SOL    HW191118   0.280   3.450   5.794  0.9271  2.5190 -0.7435
61419SOL    HW291119   0.149   3.392   5.743  0.3749  0.8306  2.3254
61420SOL     OW91120  11.845   6.277   6.672 -0.0296  0.4431  0.3413
61420SOL    HW191121  11.824   6.299   6.581  2.7865 -1.5581 -0.9452
61420SOL    HW291122  11.892   6.354   6.704 -0.8932  1.0954  0.0858
61421SOL     OW91123   7.585  11.485   2.868 -0.3465  0.1120  0.1390
61421SOL    HW191124   7.491  11.499   2.860 -0.4069 -0.3035  0.0845
61421SOL    HW291125   7.593  11.401   2.913 -0.0064 -0.1094 -0.3245
61422SOL     OW91126   1.936   1.705  10.252  0.3804  0.0769  0.5876
61422SOL    HW191127   1.843   1.703  10.230  0.5544 -1.6856 -0.1168
61422SOL    HW291128   1.952   1.625  10.301  1.8097 -0.4116 -0.5840
61423SOL     OW91129  11.606   3.660   4.597  1.0113  0.0577 -0.5648
61423SOL    HW191130  11.687   3.625   4.635  0.9853 -0.5319 -1.0418
61423SOL    HW291131  11.568   3.586   4.549 -0.7443 -0.2402  1.1181
61424SOL     OW91132   8.805   0.734   8.476  0.5710 -0.7581 -0.1652
61424SOL    HW191133   8.879   0.781   8.515  1.5810 -0.4396 -2.2979
61424SOL    HW291134   8.846   0.664   8.424 -0.6067 -0.6681 -1.2816
61425SOL     OW91135   0.963  12.231   1.233 -0.5691 -0.6345  1.0210
61425SOL    HW191136   0.889  12.170   1.225 -0.8673 -0.2167  0.4567
61425SOL    HW291137   0.922  12.318   1.228  0.0085 -0.3975  0.1007
61426SOL     OW91138   0.315   7.879   9.306  0.1345  0.4053  0.1986
61426SOL    HW191139   0.410   7.872   9.293  0.0344 -1.0380  0.0895
61426SOL    HW291140   0.304   7.961   9.353  1.3628  1.0149 -0.5063
61427SOL     OW91141   7.595   8.973   2.276 -0.0159 -0.1181 -0.1517
61427SOL    HW191142   7.661   9.033   2.241  0.5034 -1.1293 -0.9562
61427SOL    HW291143   7.564   9.016   2.355  1.3801  0.5545  0.0738
61428SOL     OW91144  10.540   1.406   0.830 -0.1449  0.0840 -0.2877
61428SOL    HW191145  10.496   1.491   0.835  0.3613  0.4393 -1.4940
61428SOL    HW291146  10.470   1.342   0.842 -0.6989  0.6606 -0.3659
61429SOL     OW91147   5.336   0.182   6.943  0.1359  0.1877 -0.1762
61429SOL    HW191148   5.261   0.240   6.957  0.4976  0.7832 -0.6549
61429SOL    HW291149   5.362   0.198   6.853  0.0932 -0.9096 -0.3981
61430SOL     OW91150   0.698   9.898   8.845  0.3194  0.4636  0.2962
61430SOL    HW191151   0.613   9.921   8.807  1.6512  1.6135 -2.2831
61430SOL    HW291152   0.746   9.981   8.849  1.7174 -0.3153  0.5431
61431SOL     OW91153   8.416   8.938  11.511  0.3447 -0.1899 -0.3354
61431SOL    HW191154   8.460   8.923  11.595  1.7118 -1.2670 -1.2264
61431SOL    HW291155   8.373   9.023  11.523  1.3487  0.1596  1.1020
61432SOL     OW91156   9.460   6.915  10.957 -0.0498 -0.1576 -0.0876
61432SOL    HW191157   9.368   6.887  10.960  0.4381 -1.9680 -0.8705
61432SOL    HW291158   9.494   6.893  11.043 -0.4705  1.0716  0.4160
61433SOL     OW91159  11.621   9.024   1.752 -0.2254 -0.7005 -0.7009
61433SOL    HW191160  11.621   9.067   1.667  0.1014  0.7252 -0.0133
61433SOL    HW291161  11.667   8.942   1.737  0.0654 -0.3516 -1.8375
61434SOL     OW91162   3.895   0.619   2.300 -0.3455 -0.1923  0.2420
61434SOL    HW191163   3.864   0.693   2.249  1.3064  0.1224 -0.3632
61434SOL    HW291164   3.922   0.657   2.384 -0.6575 -0.2998  0.3900
61435SOL     OW91165   9.022   5.592   6.735  0.3056 -0.1558  0.5163
61435SOL    HW191166   9.078   5.554   6.668 -1.4013 -1.0987 -0.4477
61435SOL    HW291167   9.010   5.683   6.707  1.7293  0.2146  1.0270
61436SOL     OW91168   8.041   5.401   4.590 -0.1932  0.2631  0.0832
61436SOL    HW191169   7.995   5.321   4.615  0.4219 -0.6025 -1.4593
61436SOL    HW291170   8.073   5.437   4.673  0.1849 -1.4963  0.7433
61437SOL     OW91171   6.776   6.192   7.930  0.0259 -0.2656  0.1879
61437SOL    HW191172   6.785   6.113   7.877  0.1394 -0.6559  0.7757
61437SOL    HW291173   6.858   6.240   7.916  0.1882 -0.5210  0.2562
61438SOL     OW91174  11.053   3.492   5.010 -0.1677  0.1784 -0.5412
61438SOL    HW191175  11.069   3.564   4.949  0.5998  1.1279  0.7227
61438SOL    HW291176  10.973   3.516   5.057  0.7964  0.9285  0.8105
61439SOL     OW91177   0.422  12.232   4.522 -0.1649  0.4916  0.5269
61439SOL    HW191178   0.399  12.159   4.579  0.4452 -0.9454 -0.9812
61439SOL    HW291179   0.338  12.271   4.498 -0.8247 -1.7637 -1.1802
61440SOL     OW91180   5.006  10.410   8.700  0.0363 -0.8823 -0.4290
61440SOL    HW191181   5.066  10.485   8.708 -0.8572 -0.1776 -0.2181
61440SOL    HW291182   4.946  10.435   8.630  0.5603 -2.0070 -1.3287
61441SOL     OW91183   8.054   1.191   9.422  0.0337  0.0135  0.0934
61441SOL    HW191184   8.107   1.269   9.435 -1.9050  1.2839  0.5635
61441SOL    HW291185   8.066   1.170   9.329  1.7815 -0.0920  0.3060
61442SOL     OW91186   1.020  10.688   9.891 -0.0277  0.9064 -0.8737
61442SOL    HW191187   0.929  10.660   9.897  0.3604 -0.0075  1.7267
61442SOL    HW291188   1.017  10.782   9.911 -0.2507  0.4734  1.4044
61443SOL     OW91189   2.737   7.732   1.755  0.5368  0.1804 -0.1879
61443SOL    HW191190   2.811   7.681   1.787  0.6720  0.1396 -0.5615
61443SOL    HW291191   2.773   7.784   1.682 -0.1285 -0.9507 -1.3612
61444SOL     OW91192   5.674   2.883  10.433 -0.0333  0.1787  0.2235
61444SOL    HW191193   5.682   2.904  10.340  2.7162  0.7805  0.5006
61444SOL    HW291194   5.719   2.800  10.443 -1.0727 -0.3176  0.9136
61445SOL     OW91195   4.590  10.464   4.543  0.2407  0.3692 -0.1434
61445SOL    HW191196   4.664  10.499   4.493 -0.1033  1.3600  0.0256
61445SOL    HW291197   4.616  10.474   4.634  0.7282 -1.1370 -0.0931
61446SOL     OW91198   0.004  12.455  11.063 -0.1852 -0.8078 -0.1560
61446SOL    HW191199   0.095  12.457  11.093 -0.0658 -3.6641 -0.0206
61446SOL    HW291200  -0.038  12.528  11.109  1.6310 -0.5663  1.2410
61447SOL     OW91201   9.136   2.026   1.414  0.3478  1.0798  0.2969
61447SOL    HW191202   9.221   1.981   1.409  0.2266  0.7240  1.2649
61447SOL    HW291203   9.152   2.110   1.373  0.5513  0.1383 -1.6563
61448SOL     OW91204  10.161   7.786   9.609  0.2367 -0.3185 -0.0433
61448SOL    HW191205  10.118   7.807   9.692  0.0234  0.4533 -0.3401
61448SOL    HW291206  10.141   7.861   9.552  0.4567 -0.7947 -0.7614
61449SOL     OW91207   1.300   9.019  11.799  0.0416 -0.1216  0.1084
61449SOL    HW191208   1.311   9.064  11.883  1.7691  0.0808 -0.1845
61449SOL    HW291209   1.257   8.936  11.821  1.7175 -0.7011  1.4283
61450SOL     OW91210   7.040   5.104   1.965 -0.0069 -0.2475 -0.2702
61450SOL    HW191211   6.980   5.038   1.999  0.7777 -0.7575  0.1650
61450SOL    HW291212   7.127   5.064   1.973  0.3184  0.0606 -1.8319
61451SOL     OW91213   9.315   6.750   9.583  0.2086  0.8793 -0.1148
61451SOL    HW191214   9.246   6.783   9.641 -0.4373 -0.0457 -0.3384
61451SOL    HW291215   9.329   6.821   9.520 -0.7937  0.9485 -0.2769
61452SOL     OW91216  10.749   9.197   1.411  0.4459  0.0186 -0.1462
61452SOL    HW191217  10.715   9.124   1.463 -0.7254 -0.2958 -1.3098
61452SOL    HW291218  10.813   9.157   1.353  2.0696  0.4358  1.2668
61453SOL     OW91219   3.234   9.945   6.817 -0.1798  0.0620  0.0491
61453SOL    HW191220   3.224   9.854   6.789  0.9664 -0.4941  1.3527
61453SOL    HW291221   3.258   9.992   6.736  1.6066 -1.2383 -0.2332
61454SOL     OW91222   0.631   2.007  12.311  0.3324 -0.3720 -0.0245
61454SOL    HW191223   0.609   1.954  12.234  0.7432  0.3786 -0.6669
61454SOL    HW291224   0.554   1.999  12.368  0.7499 -2.4368  0.3421
61455SOL     OW91225   4.236   9.885   6.030  0.0507 -0.2350 -0.0728
61455SOL    HW191226   4.167   9.825   5.999  0.9500 -0.1348 -2.4626
61455SOL    HW291227   4.252   9.943   5.956  2.6917 -0.2372  0.4056
61456SOL     OW91228   0.892   8.989   1.558 -0.0960 -0.8484 -0.1672
61456SOL    HW191229   0.808   9.021   1.593 -0.0544 -1.0576  0.1255
61456SOL    HW291230   0.908   8.908   1.606  0.0951 -0.9975 -0.4840
61457SOL     OW91231   3.861  10.203   0.001 -0.2980  0.4695  0.3958
61457SOL    HW191232   3.928  10.150  -0.043  0.2244  1.8554 -0.5251
61457SOL    HW291233   3.861  10.169   0.091  1.9193  0.6354  0.5279
61458SOL     OW91234   5.235   2.350  10.919 -0.3663 -0.6487 -0.1097
61458SOL    HW191235   5.158   2.316  10.873 -1.2125  2.1919 -0.9752
61458SOL    HW291236   5.254   2.433  10.876  1.8694 -0.2404  1.5261
61459SOL     OW91237  10.427   0.492   7.074 -0.4452  0.0679  0.1531
61459SOL    HW191238  10.361   0.466   7.009 -1.6088 -0.7086  1.5624
61459SOL    HW291239  10.375   0.521   7.149  0.8599  1.2158  0.6394
61460SOL     OW91240   7.421   4.900   1.234  0.2203 -0.2480  0.4031
61460SOL    HW191241   7.446   4.904   1.142 -0.8849  1.7263  0.1234
61460SOL    HW291242   7.330   4.868   1.233 -0.0020  0.3512  0.7342
61461SOL     OW91243   1.242   0.488   9.587  0.5200  0.2373 -0.9929
61461SOL    HW191244   1.232   0.530   9.501 -0.4083  1.9304 -0.1138
61461SOL    HW291245   1.335   0.499   9.608  0.9620 -1.0095 -2.1432
61462SOL     OW91246   0.375  12.218   9.936 -0.0102  0.1105 -0.3232
61462SOL    HW191247   0.317  12.277   9.888 -1.5887  1.7495  3.2369
61462SOL    HW291248   0.450  12.272   9.960  0.4348 -0.4850 -0.3443
61463SOL     OW91249   4.623   1.925   5.908 -0.0836 -0.3408 -0.2366
61463SOL    HW191250   4.618   1.967   5.993 -0.6661  0.4618 -0.6485
61463SOL    HW291251   4.659   1.992   5.850  0.8476 -1.0630 -0.5106
61464SOL     OW91252   7.603   0.941   7.981 -0.7759  0.1921 -0.5579
61464SOL    HW191253   7.576   0.996   7.908  0.2153  1.4328 -0.0247
61464SOL    HW291254   7.545   0.966   8.053 -1.7447 -1.0205 -0.8831
61465SOL     OW91255   1.639   6.879  11.897  0.1350  0.3387  0.0730
61465SOL    HW191256   1.657   6.835  11.814  0.1830  0.9710 -0.2569
61465SOL    HW291257   1.666   6.969  11.883 -0.2976  0.5604  0.6214
61466SOL     OW91258  10.430   4.563   1.094  0.0125 -0.0819 -0.0275
61466SOL    HW191259  10.474   4.606   1.021 -0.2471  0.0515 -0.1105
61466SOL    HW291260  10.491   4.496   1.124  0.5416  0.5354  0.2847
61467SOL     OW91261   4.895   7.385   4.495  0.0934  0.3229  0.2248
61467SOL    HW191262   4.907   7.326   4.569 -0.9479  0.5846  0.6203
61467SOL    HW291263   4.983   7.414   4.473  0.7556 -2.0035 -0.5246
61468SOL     OW91264   8.204   4.245  11.091  0.0244  0.0701  0.0325
61468SOL    HW191265   8.245   4.227  11.007 -0.6575  2.4626 -0.8946
61468SOL    HW291266   8.114   4.212  11.082  0.2138 -0.4976  0.1778
61469SOL     OW91267  12.072  11.659   5.168  0.2403  0.0683  0.1808
61469SOL    HW191268  12.011  11.614   5.227 -0.1858  1.4231  0.8010
61469SOL    HW291269  12.096  11.592   5.104 -2.0392 -0.4587 -0.2081
61470SOL     OW91270  10.675   4.910   1.232 -0.1888 -0.5576  0.6967
61470SOL    HW191271  10.704   4.838   1.176 -0.5585 -1.6014  1.8005
61470SOL    HW291272  10.587   4.930   1.200 -1.0099 -2.1681  1.7860
61471SOL     OW91273   8.194   9.420   7.195 -0.1758  0.1175 -0.1975
61471SOL    HW191274   8.199   9.433   7.290  2.8767 -1.4167 -0.0199
61471SOL    HW291275   8.110   9.458   7.170 -1.5706 -0.3441  3.2467
61472SOL     OW91276   5.769   9.548   3.027  0.2000  0.3766  0.2229
61472SOL    HW191277   5.801   9.507   2.947 -1.1938  0.4615 -0.4076
61472SOL    HW291278   5.814   9.501   3.098 -1.2019 -2.2012 -0.4632
61473SOL     OW91279  10.573   5.880   6.235  0.0849  0.4398  0.0748
61473SOL    HW191280  10.648   5.859   6.291  2.0915  1.6688 -1.9757
61473SOL    HW291281  10.506   5.817   6.261  1.4667 -0.1214  2.6618
61474SOL     OW91282   4.888   8.427   6.836  0.1143 -0.1368  0.3163
61474SOL    HW191283   4.916   8.511   6.797  0.2840  0.1077  0.9517
61474SOL    HW291284   4.959   8.404   6.896 -0.7420  0.1597  1.4646
61475SOL     OW91285   5.290  10.083  11.077  0.6931  0.3504  0.9763
61475SOL    HW191286   5.222  10.021  11.102  2.2991 -1.3128  1.4393
61475SOL    HW291287   5.326  10.115  11.160  2.2370 -0.8523  0.8157
61476SOL     OW91288   5.551  10.939  10.841 -0.3945 -0.0172 -0.1603
61476SOL    HW191289   5.592  10.854  10.859 -1.2909 -0.5616 -0.6013
61476SOL    HW291290   5.509  10.964  10.923 -1.2534 -0.6581 -0.3850
61477SOL     OW91291   3.969   0.909   9.261 -0.0301 -0.3065 -0.1500
61477SOL    HW191292   3.905   0.838   9.256 -0.4462  0.0495  0.1779
61477SOL    HW291293   3.920   0.985   9.290  0.3295  0.2413 -0.9281
61478SOL     OW91294   9.952   2.595   3.682  0.4030  0.5662 -0.5265
61478SOL    HW191295   9.952   2.506   3.646 -1.1815  0.7274 -0.9797
61478SOL    HW291296  10.045   2.616   3.691  0.8405 -0.4617 -2.0984
61479SOL     OW91297   3.274   8.043   8.533  0.0619 -0.0677 -0.0591
61479SOL    HW191298   3.337   8.018   8.601  0.6382 -0.2014 -0.6308
61479SOL    HW291299   3.321   8.030   8.451 -0.5784  0.2306 -0.4822
61480SOL     OW91300   4.513   8.833   3.373 -0.5305 -0.8857 -0.1043
61480SOL    HW191301   4.596   8.823   3.326 -0.6581 -2.9741  0.0218
61480SOL    HW291302   4.539   8.861   3.461 -0.2666  2.6418 -1.1437
61481SOL     OW91303   9.149   8.376   2.300 -0.4402 -0.3408  0.5534
61481SOL    HW191304   9.104   8.292   2.289  1.8670 -1.7167  0.9680
61481SOL    HW291305   9.189   8.394   2.215 -1.3351  0.6410  0.3167
61482SOL     OW91306   1.311  10.703   0.416 -0.2388  0.3133  0.0225
61482SOL    HW191307   1.297  10.708   0.322 -2.0659  0.1911  0.2518
61482SOL    HW291308   1.267  10.623   0.443  0.9839 -0.0999  0.8819
61483SOL     OW91309  10.506   7.478   7.426 -0.4309 -0.3150  0.2022
61483SOL    HW191310  10.558   7.452   7.502 -0.7559 -0.9588  0.2097
61483SOL    HW291311  10.497   7.397   7.375  0.7074  0.3242 -1.0896
61484SOL     OW91312  11.768   1.315   0.739  0.0686  0.1468  0.5003
61484SOL    HW191313  11.767   1.310   0.644 -0.3925  1.2087  0.4287
61484SOL    HW291314  11.820   1.393   0.758 -0.7818  0.5961  1.0691
61485SOL     OW91315   5.163   8.611   8.468 -0.2380  0.0836 -0.6529
61485SOL    HW191316   5.197   8.619   8.379  0.1566 -3.1905 -0.9153
61485SOL    HW291317   5.083   8.662   8.468 -0.1580  0.3097 -2.8497
61486SOL     OW91318  12.429   2.375  10.034 -0.5504  0.0855 -0.2358
61486SOL    HW191319  12.450   2.328  10.115 -2.9070  0.9774  0.9878
61486SOL    HW291320  12.428   2.307   9.967  1.0722 -0.7447  0.5395
61487SOL     OW91321   3.050   3.243   2.239 -0.7304 -0.2296 -0.2250
61487SOL    HW191322   3.046   3.297   2.318 -1.1586  0.7014 -0.8648
61487SOL    HW291323   2.959   3.223   2.219 -0.9499  2.3870 -2.3521
61488SOL     OW91324   9.871  12.176   1.425 -0.1402  0.0406  0.7557
61488SOL    HW191325   9.937  12.236   1.460  0.5619 -0.2525 -0.0275
61488SOL    HW291326   9.788  12.212   1.455  0.3448  0.6655  1.3926
61489SOL     OW91327   4.777   6.770   2.993 -0.1550  0.3081  0.5444
61489SOL    HW191328   4.736   6.714   2.927  0.6058  0.8611 -0.4235
61489SOL    HW291329   4.703   6.807   3.042 -0.7346 -0.0856 -0.0213
61490SOL     OW91330   1.783   6.035   3.952 -0.1618 -0.0537  0.1574
61490SOL    HW191331   1.832   6.015   3.872  0.5949 -0.3385  0.6784
61490SOL    HW291332   1.733   6.114   3.930 -1.4984 -1.2271 -1.2223
61491SOL     OW91333   6.304   4.267   2.713 -0.0962  0.1515  0.0265
61491SOL    HW191334   6.235   4.258   2.648  0.3622  1.2187 -0.6414
61491SOL    HW291335   6.286   4.200   2.778 -0.4657 -1.0593 -1.2927
61492SOL     OW91336   2.148   7.524   6.729  0.1557  0.3251 -0.4843
61492SOL    HW191337   2.088   7.479   6.669  0.7519  0.6339 -1.3351
61492SOL    HW291338   2.188   7.593   6.675  1.5756 -0.1363 -0.0493
61493SOL     OW91339  11.085   6.595  11.485 -0.0629 -0.0973 -0.1271
61493SOL    HW191340  10.997   6.573  11.517  0.0959 -0.3943  0.1072
61493SOL    HW291341  11.070   6.659  11.415 -0.5086 -0.6597 -0.5549
61494SOL     OW91342   8.757   5.280   2.598 -0.5098  0.0084 -0.4085
61494SOL    HW191343   8.841   5.324   2.587 -0.6362  0.5136  0.5460
61494SOL    HW291344   8.717   5.284   2.511  0.2177  0.2418 -0.7412
61495SOL     OW91345   5.593  11.365  10.950 -0.4732 -0.2162 -0.1625
61495SOL    HW191346   5.546  11.437  10.909  0.5389  0.2635 -0.5151
61495SOL    HW291347   5.566  11.367  11.042 -1.4110 -0.1900 -0.4334
61496SOL     OW91348   4.996   1.392   2.767  0.0229 -0.6104  0.2237
61496SOL    HW191349   5.059   1.385   2.696  0.1675  0.4166  0.2383
61496SOL    HW291350   4.981   1.486   2.777 -1.6607 -0.8310  0.0839
61497SOL     OW91351   3.555   6.163   0.437  0.3535 -0.1980  0.2750
61497SOL    HW191352   3.645   6.174   0.405 -1.0625  0.4699 -4.1321
61497SOL    HW291353   3.529   6.252   0.462 -0.2311  0.4444 -2.3320
61498SOL     OW91354   7.842  10.639  10.871 -0.3213  0.1458 -0.2151
61498SOL    HW191355   7.895  10.640  10.952  0.0221 -0.9433 -0.4077
61498SOL    HW291356   7.880  10.568  10.819 -0.8699  0.5064 -1.1180
61499SOL     OW91357  12.425   6.610   0.372  0.4110 -0.0914  0.0973
61499SOL    HW191358  12.510   6.629   0.412  1.0318  1.9883 -1.9897
61499SOL    HW291359  12.402   6.691   0.326 -0.7172 -1.9112 -2.8060
61500SOL     OW91360   5.308   5.594   0.193  0.1311 -0.9825 -0.2701
61500SOL    HW191361   5.345   5.572   0.108 -1.1259 -0.7665 -0.9020
61500SOL    HW291362   5.246   5.665   0.174 -0.3038 -1.0603  0.8019
61501SOL     OW91363   0.335   0.367   3.749  0.1359  0.3701 -0.0257
61501SOL    HW191364   0.299   0.451   3.720  0.5858  0.4060 -0.4905
61501SOL    HW291365   0.285   0.301   3.702  1.1161  0.4365 -1.2152
61502SOL     OW91366   7.441   3.743   3.841  0.6171  0.2957  0.3161
61502SOL    HW191367   7.386   3.808   3.799 -1.8010 -1.9754 -0.2941
61502SOL    HW291368   7.428   3.758   3.935 -0.3341  0.4208  0.1784
61503SOL     OW91369   3.252  10.740   1.529  0.5195  0.4385 -0.5971
61503SOL    HW191370   3.196  10.698   1.594 -0.8581  0.5939 -1.6490
61503SOL    HW291371   3.330  10.684   1.525  0.7414  0.5426  1.3021
61504SOL     OW91372   7.320   8.370   1.025 -0.4959 -0.1235  1.0710
61504SOL    HW191373   7.245   8.412   0.982 -0.1765 -0.7936 -0.1919
61504SOL    HW291374   7.384   8.440   1.036 -0.9769  0.2763  1.4027
61505SOL     OW91375   1.906  10.243   0.291 -0.2462  0.2535  0.3623
61505SOL    HW191376   1.916  10.338   0.301 -0.2139  0.2498  0.3632
61505SOL    HW291377   1.842  10.218   0.358 -1.1992  0.4573 -0.4385
61506SOL     OW91378  12.047   9.301  10.976  0.6258  0.1348  0.1115
61506SOL    HW191379  11.973   9.292  11.037 -0.9757  0.1986 -1.7180
61506SOL    HW291380  12.010   9.278  10.891  2.4779  1.1762 -1.0287
61507SOL     OW91381   9.511   5.203   5.529  0.5020  0.2489 -0.4645
61507SOL    HW191382   9.486   5.117   5.495  1.3849 -0.1341 -0.1907
61507SOL    HW291383   9.590   5.226   5.479  1.7787 -0.2802  1.2369
61508SOL     OW91384   8.500   9.311  10.383  0.2888 -0.1944  0.1048
61508SOL    HW191385   8.466   9.359  10.307 -0.6180  0.5243  0.9377
61508SOL    HW291386   8.586   9.348  10.398  0.7916 -0.8524 -1.0033
61509SOL     OW91387   8.358  11.944   2.964 -0.2058 -0.3799  0.3936
61509SOL    HW191388   8.363  11.925   3.058  0.2762  1.1178  0.7064
61509SOL    HW291389   8.336  11.861   2.924 -0.3753 -1.0687  1.8359
61510SOL     OW91390  10.336   3.159  12.339  0.0226  0.2028  0.5445
61510SOL    HW191391  10.305   3.194  12.423 -0.6150  0.3980  0.2374
61510SOL    HW291392  10.421   3.121  12.359 -0.8501 -1.2771  1.6585
61511SOL     OW91393   1.536   4.727   5.747  0.0454  0.3626  0.2135
61511SOL    HW191394   1.442   4.737   5.732 -0.0132  0.2444  0.5129
61511SOL    HW291395   1.575   4.795   5.691 -0.1039 -0.7884 -1.3599
61512SOL     OW91396   4.905   5.261   3.344 -0.4330 -0.1407 -0.7071
61512SOL    HW191397   4.961   5.292   3.415  2.4771 -1.3319 -2.2826
61512SOL    HW291398   4.840   5.205   3.386 -0.2686  1.0391  1.2025
61513SOL     OW91399   2.207   9.316   1.928  0.6130 -0.3095 -0.4754
61513SOL    HW191400   2.273   9.340   1.993  0.1833  0.0168 -0.1454
61513SOL    HW291401   2.240   9.349   1.845  0.3510  0.8304 -0.1341
61514SOL     OW91402   7.897   1.594   4.977 -0.9038 -0.5689 -0.9087
61514SOL    HW191403   7.847   1.552   4.907 -0.9375  0.4890 -1.5451
61514SOL    HW291404   7.849   1.674   4.995 -1.0370 -0.9545  0.5285
61515SOL     OW91405   0.669   9.969   3.527  0.6131  0.5971  0.0166
61515SOL    HW191406   0.628  10.009   3.603  0.8309  1.2114 -0.1830
61515SOL    HW291407   0.597   9.924   3.482  0.7578 -1.2077  1.4438
61516SOL     OW91408   2.761   7.076   7.872 -0.0639 -0.0082 -0.4860
61516SOL    HW191409   2.779   7.170   7.863 -0.5261  0.0762 -0.5439
61516SOL    HW291410   2.820   7.047   7.942 -1.0459  0.6551  0.6594
61517SOL     OW91411   6.034   8.589   3.502 -0.5845 -0.0485 -0.4930
61517SOL    HW191412   6.111   8.558   3.550 -1.5162 -0.6560  0.6626
61517SOL    HW291413   5.962   8.578   3.564 -1.5619  0.7636 -1.4600
61518SOL     OW91414   5.484   7.550   1.582  0.0780  0.2655  0.1446
61518SOL    HW191415   5.441   7.606   1.647 -2.0189  0.1746 -1.0638
61518SOL    HW291416   5.425   7.474   1.574  1.8375 -1.1907  0.3057
61519SOL     OW91417   4.099  12.281   1.783  0.0346  0.0719 -0.0088
61519SOL    HW191418   4.146  12.351   1.828 -0.6507  0.1311  0.6299
61519SOL    HW291419   4.010  12.286   1.817 -0.3534 -0.2646 -0.9457
61520SOL     OW91420  11.138   4.158   0.601  0.3221 -0.1624 -0.0054
61520SOL    HW191421  11.112   4.200   0.519 -2.7273 -0.6567  0.5924
61520SOL    HW291422  11.101   4.070   0.596  2.4207 -1.1791  0.8397
61521SOL     OW91423   3.034  10.026   2.452  0.1008 -0.0730 -0.7493
61521SOL    HW191424   2.960  10.059   2.504  0.5736  0.4208 -0.3653
61521SOL    HW291425   3.062  10.101   2.400  2.1944  0.7021  1.2878
61522SOL     OW91426   9.041   0.991  12.424 -0.7302  0.5591 -0.3045
61522SOL    HW191427   9.137   0.986  12.419 -0.7324 -0.3503  0.3222
61522SOL    HW291428   9.024   1.074  12.468 -0.1531 -0.0440  1.1188
61523SOL     OW91429   9.992   2.922  10.307  0.0073 -0.4556  0.0370
61523SOL    HW191430   9.939   2.853  10.349 -0.3581  0.1730  0.6321
61523SOL    HW291431  10.004   2.891  10.217  1.9081 -2.4724  0.8778
61524SOL     OW91432   6.673  11.666   1.129 -0.6222 -0.3934 -0.0308
61524SOL    HW191433   6.753  11.712   1.155 -0.5760 -0.9793  0.9157
61524SOL    HW291434   6.689  11.574   1.153 -1.1735 -0.6980 -0.7921
61525SOL     OW91435   2.902   8.072   0.892  0.3452 -0.2347  0.3636
61525SOL    HW191436   2.916   8.018   0.815 -1.0177 -2.0869  1.3515
61525SOL    HW291437   2.960   8.035   0.958 -1.2509 -1.1187  1.3169
61526SOL     OW91438   1.362   9.062   6.901 -0.6646  0.6517  0.5282
61526SOL    HW191439   1.447   9.105   6.915 -0.5092  1.0554 -1.3987
61526SOL    HW291440   1.298   9.133   6.908 -0.5691  0.8946 -0.8172
61527SOL     OW91441  11.060  11.381   8.943  0.2559 -0.0284 -0.6901
61527SOL    HW191442  11.120  11.453   8.957  1.4415 -1.0331 -0.4279
61527SOL    HW291443  11.047  11.378   8.848  3.1572 -1.6984 -1.1501
61528SOL     OW91444  10.770   7.144   5.259 -0.1948  0.3032 -0.5433
61528SOL    HW191445  10.845   7.200   5.238 -0.2635  0.1430 -1.2554
61528SOL    HW291446  10.716   7.148   5.180 -2.2336  2.4449  0.8390
61529SOL     OW91447   4.145   9.697   9.245  0.2006 -0.6928 -0.7544
61529SOL    HW191448   4.175   9.671   9.158  0.6545  2.0164 -1.5013
61529SOL    HW291449   4.059   9.734   9.231  0.9251  1.2316 -0.3640
61530SOL     OW91450   4.034   5.959  10.187  0.2170 -0.5427  0.4222
61530SOL    HW191451   3.944   5.958  10.155  0.1226  0.2147  0.6256
61530SOL    HW291452   4.027   5.989  10.277  0.7109  0.1261  0.2532
61531SOL     OW91453   8.771   2.881   4.380  0.2466  0.0296  0.3483
61531SOL    HW191454   8.833   2.859   4.449  0.9375 -2.6071 -0.9783
61531SOL    HW291455   8.690   2.836   4.406 -0.2948  1.1331  0.6533
61532SOL     OW91456   5.762   3.103   6.360  0.4102 -0.0907  0.1562
61532SOL    HW191457   5.718   3.022   6.385  0.5292  0.2175  1.4829
61532SOL    HW291458   5.696   3.172   6.373  0.5952  0.1272 -0.0398
61533SOL     OW91459   0.130  10.465   8.154 -0.0099 -0.1612 -0.1711
61533SOL    HW191460   0.050  10.429   8.192 -0.5764  0.6799 -0.5442
61533SOL    HW291461   0.099  10.517   8.080  0.8535  0.5052 -0.0669
61534SOL     OW91462   2.301   5.117  12.176 -0.0113 -0.7996 -0.1513
61534SOL    HW191463   2.262   5.045  12.225  1.0997 -1.0430  0.3859
61534SOL    HW291464   2.229   5.149  12.121 -1.3178 -0.4675  1.6505
61535SOL     OW91465   7.693   5.850   6.287  0.2305 -0.0685  0.1297
61535SOL    HW191466   7.651   5.834   6.372  0.7391 -2.6755 -0.0136
61535SOL    HW291467   7.644   5.923   6.249 -1.2479 -0.0975  1.8443
61536SOL     OW91468   5.346   9.811   2.596 -0.6916  0.4470  0.2520
61536SOL    HW191469   5.264   9.781   2.557 -1.0606  2.2621 -0.4888
61536SOL    HW291470   5.375   9.882   2.538  1.1711  0.1367  0.7577
61537SOL     OW91471   8.402   7.859   7.145 -0.5942 -0.2123 -0.1053
61537SOL    HW191472   8.439   7.855   7.057  0.9216 -0.3051  0.5101
61537SOL    HW291473   8.308   7.849   7.131 -0.2760 -1.7128 -1.6056
61538SOL     OW91474   5.656  11.479  12.217  0.7806  0.4049  0.5568
61538SOL    HW191475   5.666  11.421  12.142 -0.1507  1.1483 -0.1701
61538SOL    HW291476   5.743  11.483  12.256  1.5611  0.8922 -1.1530
61539SOL     OW91477   8.496   5.702   0.656  0.1909  0.3363 -0.3963
61539SOL    HW191478   8.451   5.782   0.684 -0.1596  0.1682 -0.4748
61539SOL    HW291479   8.437   5.631   0.681  0.9467  0.0337  0.5640
61540SOL     OW91480   2.821   5.940   0.161 -0.2177 -0.1680 -0.6042
61540SOL    HW191481   2.761   6.011   0.186 -0.5560 -0.7625  0.3064
61540SOL    HW291482   2.901   5.959   0.209 -1.0548 -1.6246  1.4772
61541SOL     OW91483   9.653   9.178   4.675 -0.1507 -0.1968  0.0733
61541SOL    HW191484   9.572   9.227   4.690  0.5250  1.1272 -0.4733
61541SOL    HW291485   9.647   9.149   4.583  0.7266  1.3791 -0.5172
61542SOL     OW91486   6.416   6.887   9.903 -0.5971  0.1919  0.5984
61542SOL    HW191487   6.364   6.959   9.939  0.2814  0.4234  1.4581
61542SOL    HW291488   6.355   6.814   9.899 -1.4291  0.8963 -0.0072
61543SOL     OW91489   4.321   7.811   1.321  0.2079  0.4094  0.2470
61543SOL    HW191490   4.349   7.767   1.401 -2.1468 -0.2874  0.7644
61543SOL    HW291491   4.332   7.745   1.252  1.2269  0.6666  0.1345
61544SOL     OW91492   0.660   4.570   2.605 -0.0242 -0.3773  0.1014
61544SOL    HW191493   0.610   4.576   2.524 -0.2763 -1.6669  0.1426
61544SOL    HW291494   0.726   4.639   2.597  0.6722 -1.1820 -1.7039
61545SOL     OW91495  10.146   6.825   4.797 -0.9418 -0.2530 -0.4916
61545SOL    HW191496  10.091   6.875   4.857  1.2991  0.5177  1.0114
61545SOL    HW291497  10.206   6.776   4.853  1.9169  1.2443 -2.0106
61546SOL     OW91498  11.829   4.909  10.417 -0.0902 -0.2580 -0.0849
61546SOL    HW191499  11.787   4.929  10.501 -1.5713  0.7465 -1.0148
61546SOL    HW291500  11.775   4.955  10.352  0.4823 -1.7503 -1.6796
61547SOL     OW91501   6.763   4.378   8.005  0.4579 -0.6852 -0.3091
61547SOL    HW191502   6.799   4.432   7.934 -0.5922 -0.4810 -0.7063
61547SOL    HW291503   6.783   4.288   7.978 -2.3695 -0.8505 -2.3982
61548SOL     OW91504   2.426   9.481   1.420 -0.2695 -0.8843 -0.2437
61548SOL    HW191505   2.487   9.412   1.393  0.7648  0.5740 -1.9101
61548SOL    HW291506   2.483   9.548   1.458 -0.9846 -0.0530 -0.6221
61549SOL     OW91507  11.554   4.108   0.206 -0.4365  0.1369 -0.3794
61549SOL    HW191508  11.543   4.142   0.295  0.2997  1.3730 -0.7448
61549SOL    HW291509  11.620   4.039   0.215  0.7131  1.2336 -0.1725
61550SOL     OW91510   1.888   8.536   1.634 -0.1091  0.1257  0.4514
61550SOL    HW191511   1.798   8.568   1.642 -0.6218 -1.1649  0.1639
61550SOL    HW291512   1.878   8.442   1.615  1.2981 -0.0007  0.2528
61551SOL     OW91513   1.158   4.537   7.227  0.0170 -0.1844  0.1380
61551SOL    HW191514   1.100   4.464   7.248 -0.4002  0.8801  3.1928
61551SOL    HW291515   1.107   4.593   7.170 -1.2015 -0.2961  1.0892
61552SOL     OW91516   4.258   8.882   9.790  0.3211 -0.0335 -0.2397
61552SOL    HW191517   4.294   8.967   9.813 -2.9645  1.5871 -0.5164
61552SOL    HW291518   4.263   8.877   9.695 -2.5847  1.5451 -0.5861
61553SOL     OW91519   8.024  11.842  11.837 -0.2199  0.3014  0.2963
61553SOL    HW191520   8.010  11.851  11.743 -1.0426 -0.9942  0.2644
61553SOL    HW291521   8.100  11.896  11.856  1.5281 -1.3378 -1.5412
61554SOL     OW91522  10.399   4.270   4.346 -0.0714 -0.4298 -0.6901
61554SOL    HW191523  10.346   4.348   4.331  0.7693  0.0819 -1.0641
61554SOL    HW291524  10.490   4.301   4.345  0.2170 -1.0920  1.1312
61555SOL     OW91525   3.358   8.703   9.068  0.2467 -0.2693 -0.2627
61555SOL    HW191526   3.445   8.672   9.040  0.2489 -1.6428  1.1240
61555SOL    HW291527   3.305   8.700   8.989  1.1062 -0.7697 -0.8369
61556SOL     OW91528   3.556   0.646   9.916  0.5015 -0.2657  0.6882
61556SOL    HW191529   3.463   0.657   9.897  0.5470  0.0255  0.6284
61556SOL    HW291530   3.600   0.706   9.855  0.7485 -0.6740  0.4600
61557SOL     OW91531  10.732   3.719   6.297 -0.6901 -0.0435 -0.5015
61557SOL    HW191532  10.752   3.709   6.204 -1.5371 -0.6666 -0.6269
61557SOL    HW291533  10.792   3.787   6.328  0.5495 -0.7834 -1.1955
61558SOL     OW91534   8.807  11.931   3.065  0.0254  0.7142  0.4824
61558SOL    HW191535   8.808  12.007   3.123  0.3308  1.0961 -0.0223
61558SOL    HW291536   8.728  11.883   3.090 -0.2943  1.3180  0.6465
61559SOL     OW91537   0.961   4.974  10.353  0.1874 -0.1549  0.3800
61559SOL    HW191538   0.929   4.884  10.365  1.5152 -0.6984  0.0502
61559SOL    HW291539   0.963   5.010  10.441  1.4990 -1.1300  0.7787
61560SOL     OW91540   4.237  12.064  12.480 -0.3180  0.0235 -0.2807
61560SOL    HW191541   4.310  12.014  12.517 -0.0398  0.9630  0.4613
61560SOL    HW291542   4.168  12.056  12.546  0.1253  1.5702  0.4144
61561SOL     OW91543   1.440  10.901   4.238  0.1578  0.0660 -0.3513
61561SOL    HW191544   1.388  10.858   4.307  0.7387  0.7705  0.5434
61561SOL    HW291545   1.399  10.872   4.156 -0.7271 -0.5587  0.2890
61562SOL     OW91546   2.544  10.960   0.620 -0.8554  0.4112  0.6545
61562SOL    HW191547   2.453  10.974   0.595 -0.6951  2.2432  0.9507
61562SOL    HW291548   2.589  11.039   0.593  0.6936 -0.5146  0.4041
61563SOL     OW91549   9.830   1.650   3.166  0.0900 -0.4562 -0.5781
61563SOL    HW191550   9.924   1.637   3.154  0.4213  1.6173 -0.5155
61563SOL    HW291551   9.809   1.727   3.114 -1.2852 -0.0133  0.5701
61564SOL     OW91552   8.865  10.994   9.347  0.2541  0.0638  0.0589
61564SOL    HW191553   8.858  10.978   9.253  0.9280 -2.7449  0.4048
61564SOL    HW291554   8.959  10.986   9.365 -0.0231 -0.8751  1.1743
61565SOL     OW91555   9.378  11.996  11.786  0.3188  0.1024 -0.5870
61565SOL    HW191556   9.362  11.938  11.860  0.5856 -1.1120 -1.4381
61565SOL    HW291557   9.460  12.040  11.807  0.0166  0.3233  0.1589
61566SOL     OW91558  11.531   8.656   9.722 -0.2285 -0.5453  0.3534
61566SOL    HW191559  11.570   8.593   9.661 -0.8209 -0.0800 -0.5243
61566SOL    HW291560  11.597   8.725   9.731 -1.4792  1.2201 -2.6375
61567SOL     OW91561  11.113  11.899   9.981  0.0812  0.4178  0.0949
61567SOL    HW191562  11.201  11.908   9.944 -0.0159  1.1896  0.0272
61567SOL    HW291563  11.058  11.953   9.924 -0.6203 -0.8562 -0.4649
61568SOL     OW91564   1.891   3.792  12.014 -0.1306 -0.1013  0.2819
61568SOL    HW191565   1.832   3.731  11.970  0.4775 -0.0759 -0.5937
61568SOL    HW291566   1.835   3.840  12.074 -0.9565 -0.2630 -0.3390
61569SOL     OW91567   6.123   0.249   5.354 -0.5749 -0.3983 -0.1323
61569SOL    HW191568   6.197   0.234   5.295 -0.2154  0.3018  0.1247
61569SOL    HW291569   6.046   0.247   5.297 -0.2282  0.3421 -0.6440
61570SOL     OW91570   6.864   9.637  10.832  0.6248 -0.2301  0.4273
61570SOL    HW191571   6.866   9.600  10.743  2.4444 -0.0912  0.3815
61570SOL    HW291572   6.946   9.609  10.872 -0.1867 -0.3329  2.1097
61571SOL     OW91573   1.383  10.878   3.649 -0.4251  0.0405  0.4993
61571SOL    HW191574   1.353  10.794   3.683 -1.3199  0.4207  0.7029
61571SOL    HW291575   1.401  10.862   3.556 -1.8301 -0.1047  0.2249
61572SOL     OW91576   1.354   5.419   1.730 -0.3427 -0.2181 -0.0728
61572SOL    HW191577   1.424   5.397   1.669 -0.0923  1.3980 -0.4199
61572SOL    HW291578   1.301   5.340   1.736  0.3462 -0.8059 -1.4205
61573SOL     OW91579  10.839   0.032   2.515  0.2623 -0.2773  0.1825
61573SOL    HW191580  10.813  -0.021   2.590 -1.0197 -0.4365 -0.3457
61573SOL    HW291581  10.902   0.095   2.551  1.5440 -1.8915  0.8831
61574SOL     OW91582   2.385   4.857   2.870  0.5104  0.7007  0.1962
61574SOL    HW191583   2.299   4.884   2.904 -0.2302 -0.0592 -0.9852
61574SOL    HW291584   2.387   4.891   2.781  0.9428 -0.2637 -0.1724
61575SOL     OW91585   0.176   6.512   0.158  0.2649  0.5205  0.6091
61575SOL    HW191586   0.204   6.456   0.085 -1.1482 -0.6827  0.9551
61575SOL    HW291587   0.248   6.575   0.168  3.3428 -2.8343  1.9678
61576SOL     OW91588   3.749   2.957   2.571 -0.4944  0.8700  0.1383
61576SOL    HW191589   3.724   2.969   2.480  0.9664  0.4538 -0.3546
61576SOL    HW291590   3.679   2.905   2.609 -0.3410 -0.3828 -1.1909
61577SOL     OW91591   0.231   9.862  10.550 -0.5739  0.2449 -0.0792
61577SOL    HW191592   0.289   9.794  10.516 -0.1090  0.8235 -0.4582
61577SOL    HW291593   0.290   9.928  10.587 -0.9672  0.9480 -0.6704
61578SOL     OW91594   6.947   4.296   1.307  0.6746  0.0195 -0.1537
61578SOL    HW191595   6.927   4.318   1.398 -0.8620  0.4456 -0.5559
61578SOL    HW291596   7.009   4.363   1.279  1.6349 -0.4763  0.7447
61579SOL     OW91597  11.865   7.052   1.782  0.2224 -0.9094  0.1926
61579SOL    HW191598  11.868   7.096   1.697 -0.8646 -1.3480 -0.0863
61579SOL    HW291599  11.949   7.074   1.823  0.0326  0.8042 -0.2338
61580SOL     OW91600   4.835   9.590   9.663  0.2002 -0.4640 -0.0448
61580SOL    HW191601   4.761   9.531   9.681 -1.3042  0.4043 -2.8349
61580SOL    HW291602   4.905   9.532   9.631  0.4219 -1.1820  1.6478
61581SOL     OW91603   5.597  10.263   5.654  0.9983 -0.0912 -0.4520
61581SOL    HW191604   5.576  10.245   5.746  0.2045 -1.3014 -0.8359
61581SOL    HW291605   5.616  10.357   5.652  0.5785  0.0569  0.8670
61582SOL     OW91606  11.645   5.438  11.094  0.5513 -0.5018  0.7131
61582SOL    HW191607  11.730   5.454  11.051 -0.5225  0.5327 -1.1585
61582SOL    HW291608  11.612   5.359  11.050  0.5795 -0.9751  1.5311
61583SOL     OW91609  12.144   5.955   0.001 -0.3144  0.0809 -0.2775
61583SOL    HW191610  12.119   5.863  -0.002  2.4214 -0.8023  0.6471
61583SOL    HW291611  12.148   5.976   0.095  1.9759  0.1874 -0.3463
61584SOL     OW91612  11.198   6.464   7.367  0.6709 -0.5856  0.0930
61584SOL    HW191613  11.224   6.539   7.420  0.0322  0.5289 -1.1082
61584SOL    HW291614  11.202   6.390   7.427  3.0655  0.0799  0.8913
61585SOL     OW91615   7.541   8.524   2.651 -0.1132 -0.2300 -0.2370
61585SOL    HW191616   7.630   8.559   2.660  0.0653 -0.9323  0.8639
61585SOL    HW291617   7.486   8.586   2.699 -0.6034  1.4984 -2.8273
61586SOL     OW91618   6.819  12.462  10.144 -0.2270 -0.0909 -0.3059
61586SOL    HW191619   6.749  12.486  10.082 -0.4916 -1.2980 -0.5057
61586SOL    HW291620   6.798  12.372  10.169  0.6268 -0.0658  0.5292
61587SOL     OW91621   5.188   9.111   1.795 -0.4976 -0.1834 -0.3239
61587SOL    HW191622   5.200   9.147   1.707 -0.3874  0.0090 -0.2321
61587SOL    HW291623   5.133   9.034   1.782 -0.7637  0.0330 -0.5227
61588SOL     OW91624  10.023   4.769   8.882  0.2426  1.0864  0.2506
61588SOL    HW191625   9.959   4.702   8.907  0.4328  0.9458  0.3649
61588SOL    HW291626   9.998   4.794   8.793  3.3524 -3.0822 -2.1641
61589SOL     OW91627   0.359   3.833   2.299  0.7730  0.1452 -0.6419
61589SOL    HW191628   0.315   3.808   2.380  0.9462  1.7846  0.0012
61589SOL    HW291629   0.452   3.830   2.320  0.9236 -1.3744 -1.4059
61590SOL     OW91630   4.434   5.751   7.631  0.1380  0.1113  0.1327
61590SOL    HW191631   4.372   5.749   7.558 -0.7735 -0.5536  0.8964
61590SOL    HW291632   4.509   5.699   7.600 -0.8369 -1.3946  0.1600
61591SOL     OW91633   3.401   8.739   8.338  0.2937  0.4069  0.4339
61591SOL    HW191634   3.374   8.701   8.255 -1.2604  0.0043  1.0819
61591SOL    HW291635   3.494   8.718   8.346  0.6068  0.9453 -1.4333
61592SOL     OW91636   9.098   4.201  12.323  0.2464  0.0826  0.5817
61592SOL    HW191637   9.155   4.276  12.305  0.7524 -0.5470 -0.5622
61592SOL    HW291638   9.106   4.186  12.417  1.6443  0.2778  0.5166
61593SOL     OW91639  12.041   4.546   3.201 -0.3901  0.5515  0.5487
61593SOL    HW191640  12.092   4.618   3.237  1.7001 -0.2735 -0.6260
61593SOL    HW291641  11.993   4.510   3.277 -0.1448  2.0636  1.4543
61594SOL     OW91642   7.262   0.079   6.581 -0.2190 -0.0483  0.5251
61594SOL    HW191643   7.295   0.132   6.509  1.4187 -2.2534 -0.4624
61594SOL    HW291644   7.324   0.094   6.652  0.4805 -0.9130  0.1091
61595SOL     OW91645   7.326   1.115   8.545  0.1916  0.3590 -0.7821
61595SOL    HW191646   7.344   1.181   8.611  0.6668 -1.0302  0.5270
61595SOL    HW291647   7.284   1.044   8.592 -0.2582 -0.3191 -2.1414
61596SOL     OW91648   9.894   6.603  10.661  0.0527  0.1261  0.4628
61596SOL    HW191649   9.821   6.634  10.714  1.4306  1.1504  1.8355
61596SOL    HW291650   9.889   6.507  10.665 -2.1353  0.1347 -0.8303
61597SOL     OW91651   5.075  10.513   8.016 -0.0930 -0.0918  1.1053
61597SOL    HW191652   5.068  10.419   8.028 -1.6537  0.1878  2.8314
61597SOL    HW291653   4.987  10.546   8.032  0.1137  1.5758 -0.7526
61598SOL     OW91654  12.242   5.426   0.060 -0.5584 -0.4312  0.4358
61598SOL    HW191655  12.221   5.487   0.131 -3.3002 -0.1358 -0.4832
61598SOL    HW291656  12.334   5.443   0.040 -0.2716  0.9037  2.5213
61599SOL     OW91657  10.959  10.651   3.689 -0.4004  0.2128  0.5489
61599SOL    HW191658  10.979  10.669   3.781 -0.2461  0.7006  0.4196
61599SOL    HW291659  10.868  10.680   3.678 -1.1819 -1.8349  1.0893
61600SOL     OW91660   4.423   0.595  11.239  0.4064 -0.2239 -0.1712
61600SOL    HW191661   4.436   0.678  11.193  1.6620 -1.0681 -1.4399
61600SOL    HW291662   4.365   0.544  11.182 -2.9472  0.8028  2.0311
61601SOL     OW91663   3.834   7.272   8.491  0.0618  0.3587 -0.3870
61601SOL    HW191664   3.919   7.280   8.448  0.3489 -0.8336 -0.0965
61601SOL    HW291665   3.785   7.210   8.437 -0.3477  0.4691 -0.1496
61602SOL     OW91666   0.670   8.332   2.899 -0.8225  0.1319 -0.5133
61602SOL    HW191667   0.699   8.422   2.885  0.8613 -0.2350  0.3825
61602SOL    HW291668   0.608   8.338   2.972 -1.5452  0.6734 -1.1497
61603SOL     OW91669   9.151   0.803   7.478  0.3548  0.3270 -0.4751
61603SOL    HW191670   9.176   0.756   7.398 -0.7392  0.6816 -1.0341
61603SOL    HW291671   9.093   0.742   7.524 -0.4717  0.8238 -0.8423
61604SOL     OW91672   0.624   4.098   8.103  0.3203  0.0427 -0.0296
61604SOL    HW191673   0.576   4.101   8.186  0.9120  2.4825  0.2754
61604SOL    HW291674   0.711   4.067   8.126 -0.1162 -1.3112 -0.1039
61605SOL     OW91675  10.297   6.820   7.896  0.5156 -0.1633 -0.0202
61605SOL    HW191676  10.256   6.795   7.813 -2.4062 -0.9850  1.5397
61605SOL    HW291677  10.251   6.900   7.923 -1.1874 -1.8105  2.4045
61606SOL     OW91678   4.180  11.858   0.184  0.7479  0.1248 -0.1455
61606SOL    HW191679   4.161  11.935   0.239 -1.8916 -0.2137 -0.4373
61606SOL    HW291680   4.095  11.814   0.175  1.9554 -2.1773 -0.9981
61607SOL     OW91681  11.240   1.353   4.214  0.0662  0.6081  0.1967
61607SOL    HW191682  11.248   1.405   4.134  1.6083  1.4352  0.8567
61607SOL    HW291683  11.324   1.363   4.258 -0.2426 -0.9928  1.2409
61608SOL     OW91684   4.758   6.405  11.760  0.0085 -0.1756  0.4786
61608SOL    HW191685   4.768   6.313  11.737 -2.1740  0.0840 -1.8869
61608SOL    HW291686   4.843   6.444  11.741  0.3995 -1.3563 -0.3090
61609SOL     OW91687   7.149  11.136   8.097 -0.0374 -0.6995 -0.2507
61609SOL    HW191688   7.192  11.220   8.116  0.0935 -1.0588  1.1761
61609SOL    HW291689   7.058  11.150   8.122 -0.2310 -0.6857 -0.9546
61610SOL     OW91690  11.933   5.215   9.813 -0.5364  0.5028  0.2927
61610SOL    HW191691  12.023   5.183   9.810 -0.9842 -0.8181  0.2694
61610SOL    HW291692  11.892   5.181   9.734 -1.5273 -0.4431  1.1772
61611SOL     OW91693   4.083  12.042   0.616  0.2609  0.3568  0.2494
61611SOL    HW191694   4.088  12.078   0.704 -0.6284  1.1869 -0.0164
61611SOL    HW291695   4.123  12.110   0.561 -0.0541  0.2680 -0.0907
61612SOL     OW91696   2.201   5.592   4.377  0.3736 -0.0694 -0.6153
61612SOL    HW191697   2.128   5.633   4.331 -0.0174  0.0934  0.1373
61612SOL    HW291698   2.243   5.664   4.425  1.8336  0.0932 -2.0553
61613SOL     OW91699   3.375   4.921  11.131 -0.3717  0.1751  0.2821
61613SOL    HW191700   3.302   4.873  11.094 -1.7713  1.0350  1.8029
61613SOL    HW291701   3.355   4.929  11.225  0.3273  2.6644  0.3139
61614SOL     OW91702   4.477   1.548   0.162  0.2429 -0.3853 -0.1829
61614SOL    HW191703   4.391   1.531   0.199  0.4727 -0.2905  0.4042
61614SOL    HW291704   4.462   1.614   0.094 -0.2652 -0.9812 -0.6634
61615SOL     OW91705   6.330   5.616   1.072  0.5478 -0.2353 -0.4034
61615SOL    HW191706   6.350   5.536   1.121  0.8579  0.1125  0.0393
61615SOL    HW291707   6.404   5.627   1.012  0.3967 -0.3973 -0.6249
61616SOL     OW91708   4.050   9.099  11.658 -0.3423  0.0768  0.2986
61616SOL    HW191709   4.037   9.191  11.679  0.7274  0.3859 -0.3298
61616SOL    HW291710   4.137   9.078  11.693 -0.2482 -0.4833 -0.2442
61617SOL     OW91711   2.165  11.566   7.659  0.7124  0.0715  0.5691
61617SOL    HW191712   2.148  11.506   7.732  2.6017 -1.1508  0.0721
61617SOL    HW291713   2.243  11.531   7.617  0.5228  1.5977 -1.1703
61618SOL     OW91714   9.459   8.827  12.361  0.7010 -0.3031  0.0464
61618SOL    HW191715   9.527   8.886  12.395  0.1626  0.0352  0.5544
61618SOL    HW291716   9.406   8.806  12.437  0.9984 -1.6202 -0.0923
61619SOL     OW91717   7.231   5.783   7.848  0.5848  0.2761  0.0054
61619SOL    HW191718   7.263   5.702   7.887 -0.8358 -0.8744 -1.0812
61619SOL    HW291719   7.280   5.852   7.892  2.2187 -1.1831  0.6079
61620SOL     OW91720   5.749   0.399   4.942  0.3165  0.7143  0.0705
61620SOL    HW191721   5.706   0.343   4.877  2.4671 -1.5194  0.4371
61620SOL    HW291722   5.718   0.366   5.026 -1.1870  2.5424  0.3135
61621SOL     OW91723   7.426   9.557   5.888  0.1753 -0.1515  0.4742
61621SOL    HW191724   7.490   9.539   5.957  0.7727  1.0156  0.2569
61621SOL    HW291725   7.470   9.622   5.832 -1.1346  0.5314  0.2121
61622SOL     OW91726   3.468   5.507   0.821  0.2693  0.5275  0.1925
61622SOL    HW191727   3.438   5.417   0.806  1.6938 -0.0044  0.3515
61622SOL    HW291728   3.397   5.548   0.869  0.3198 -1.0780  1.7717
61623SOL     OW91729   0.032  11.465  10.674  0.0114 -0.4282 -0.9348
61623SOL    HW191730  -0.017  11.545  10.690 -0.6915 -1.0208 -0.0062
61623SOL    HW291731   0.119  11.482  10.711 -0.2250 -0.1943 -0.4823
61624SOL     OW91732   2.599   5.357   5.990  0.3124  0.0814 -0.2111
61624SOL    HW191733   2.534   5.424   5.966 -0.2245  0.0800  1.1693
61624SOL    HW291734   2.662   5.404   6.045  2.5047  0.5056 -2.8337
61625SOL     OW91735   9.223   4.932   7.562 -0.0803  0.6915  0.1113
61625SOL    HW191736   9.180   5.009   7.600  1.9539  2.0882 -0.1777
61625SOL    HW291737   9.191   4.928   7.472 -0.4608  1.0264  0.2301
61626SOL     OW91738  11.023   8.777   5.447 -0.2132  0.0244  0.2016
61626SOL    HW191739  10.945   8.771   5.504 -1.2799  1.0402 -1.0753
61626SOL    HW291740  11.091   8.729   5.495 -1.5637 -0.7539  1.4536
61627SOL     OW91741   9.358   4.980  11.327 -0.1304 -0.6856  0.1604
61627SOL    HW191742   9.299   5.008  11.397  0.1097 -0.5234  0.3033
61627SOL    HW291743   9.340   4.887  11.314  0.2297 -0.8613  0.8477
61628SOL     OW91744   8.154  12.380   0.698 -0.2735 -0.1409  0.1717
61628SOL    HW191745   8.081  12.408   0.643  0.0376 -1.1993 -0.8123
61628SOL    HW291746   8.231  12.390   0.642  0.1423 -0.4897  0.6754
61629SOL     OW91747   1.132   6.357   7.511  0.2524 -0.0720  0.2424
61629SOL    HW191748   1.207   6.417   7.510  1.2723 -1.2935 -0.4166
61629SOL    HW291749   1.142   6.307   7.591  0.3952 -0.5262 -0.0533
61630SOL     OW91750  12.351   4.299   4.226 -0.3004  0.2347  0.4328
61630SOL    HW191751  12.390   4.214   4.206  0.6013  0.8323 -0.4492
61630SOL    HW291752  12.334   4.296   4.320  0.0581 -0.7833  0.4774
61631SOL     OW91753   4.042   0.044   8.520  0.0295  0.2529 -0.0241
61631SOL    HW191754   4.016   0.032   8.611  0.1457 -0.7264 -0.1167
61631SOL    HW291755   4.017   0.134   8.500  1.2806  0.9710  1.3968
61632SOL     OW91756   9.661   7.047   5.595  0.4410 -0.4651 -0.5041
61632SOL    HW191757   9.741   7.100   5.586 -0.1815  0.9357  1.5892
61632SOL    HW291758   9.651   7.035   5.689 -1.9820 -0.3545 -0.6970
61633SOL     OW91759   1.450   1.895   1.534 -0.7424  0.3841  0.1558
61633SOL    HW191760   1.426   1.980   1.496 -0.7741  0.5588  0.5681
61633SOL    HW291761   1.439   1.906   1.628 -0.3859  0.0357  0.2415
61634SOL     OW91762   5.695   1.854   6.942 -0.3367 -0.1034 -0.1273
61634SOL    HW191763   5.716   1.811   7.025 -0.0572 -2.1120 -1.1577
61634SOL    HW291764   5.607   1.889   6.955 -0.7480 -1.3513  0.6927
61635SOL     OW91765   4.892   0.354   6.557 -0.0427 -0.0466 -0.1484
61635SOL    HW191766   4.976   0.308   6.551 -0.2750 -0.3683 -1.0330
61635SOL    HW291767   4.908   0.423   6.621  0.7840 -0.3449 -0.0156
61636SOL     OW91768   6.604  11.813   8.049  0.5332  0.0372  0.3570
61636SOL    HW191769   6.598  11.855   7.963  1.2071  0.3614  0.4648
61636SOL    HW291770   6.581  11.721   8.032  2.8580 -0.4360 -0.6230
61637SOL     OW91771   3.116   3.555   6.119  0.3519  0.1138  0.0314
61637SOL    HW191772   3.043   3.535   6.178  1.3311  0.0153  1.2429
61637SOL    HW291773   3.162   3.628   6.160  1.3227 -0.2474 -0.3790
61638SOL     OW91774   2.072  12.112   1.799 -0.1254  0.2975 -0.2897
61638SOL    HW191775   2.039  12.181   1.742  0.9900 -0.0680 -1.4196
61638SOL    HW291776   2.001  12.096   1.861 -0.6948  1.9143 -0.4853
61639SOL     OW91777  11.162   3.132  10.314  0.3642 -0.5197  0.1732
61639SOL    HW191778  11.126   3.175  10.236  1.3053 -0.1966 -0.0973
61639SOL    HW291779  11.212   3.201  10.358  1.4239 -1.1851  0.0408
61640SOL     OW91780  11.725   4.200   4.831  0.1265  0.2070 -0.3834
61640SOL    HW191781  11.748   4.168   4.919 -1.1325 -2.6576 -1.0088
61640SOL    HW291782  11.793   4.264   4.811  2.5766 -1.7064  1.2393
61641SOL     OW91783   6.543   6.704   6.059 -0.2096 -0.6356 -0.4013
61641SOL    HW191784   6.627   6.748   6.046 -0.2732 -0.0008  1.1094
61641SOL    HW291785   6.555   6.616   6.023  1.3507 -0.7957  0.4698
61642SOL     OW91786   5.265  12.002   0.195  0.3289 -0.3263  0.2635
61642SOL    HW191787   5.205  12.059   0.147 -2.0358 -1.4803  1.6639
61642SOL    HW291788   5.280  11.928   0.136  0.9044  0.2788 -0.3526
61643SOL     OW91789   9.461  11.392   2.855  0.5436 -0.0836 -0.1553
61643SOL    HW191790   9.382  11.341   2.841  1.4420 -2.0396  1.3258
61643SOL    HW291791   9.511  11.342   2.920  2.8577  1.2121 -0.7962
61644SOL     OW91792  11.931   7.257   6.319  0.0741 -0.3587 -0.9384
61644SOL    HW191793  11.902   7.334   6.368 -0.7029 -1.7875  0.9789
61644SOL    HW291794  11.853   7.227   6.273  0.8892  1.2169 -3.5770
61645SOL     OW91795   5.673  10.129   0.981  0.1228  0.1385 -0.0548
61645SOL    HW191796   5.727  10.100   1.055 -0.4500  0.5589  0.5392
61645SOL    HW291797   5.668  10.053   0.923  1.1595  0.0211 -0.0058
61646SOL     OW91798   5.726   3.859   1.193  0.0113 -0.2318  0.0943
61646SOL    HW191799   5.817   3.835   1.175  0.2145  0.3223  0.3563
61646SOL    HW291800   5.680   3.775   1.199  1.0438 -0.7387  2.7336
61647SOL     OW91801   9.181   1.485   2.266  0.5313 -0.3386 -0.2340
61647SOL    HW191802   9.119   1.549   2.230 -0.3941 -1.0484  0.0902
61647SOL    HW291803   9.219   1.529   2.342 -0.7090 -0.4833  0.4772
61648SOL     OW91804   6.353   5.900   5.885  0.4252  0.7928  0.0831
61648SOL    HW191805   6.403   5.875   5.807 -1.0681 -0.1235 -0.6333
61648SOL    HW291806   6.413   5.886   5.958  0.4226 -2.9730 -0.4507
61649SOL     OW91807   2.450   7.737  11.128 -0.0740 -0.1981  0.3341
61649SOL    HW191808   2.392   7.811  11.145  1.5654  0.7291  2.3410
61649SOL    HW291809   2.446   7.684  11.208  1.9909  0.0350  0.6325
61650SOL     OW91810   4.975   1.538   9.893  0.4279  0.7141 -0.0199
61650SOL    HW191811   4.951   1.463   9.947 -1.0279  2.1643  1.4397
61650SOL    HW291812   5.034   1.589   9.948  1.1548  0.8414 -0.8824
61651SOL     OW91813  10.205   4.168   8.457  0.0480 -0.0496  0.0447
61651SOL    HW191814  10.115   4.192   8.477  0.8648  1.1301  2.7620
61651SOL    HW291815  10.231   4.109   8.528  1.7460  0.5736 -0.0011
61652SOL     OW91816   4.085   5.940  10.662  0.0291  0.5978  0.3745
61652SOL    HW191817   4.151   5.894  10.715  0.2571  0.9595  0.4111
61652SOL    HW291818   4.087   6.030  10.696  0.0140  0.7759 -0.1014
61653SOL     OW91819   3.306   0.042   8.926  0.1350  0.0357 -0.4939
61653SOL    HW191820   3.246   0.063   8.854 -2.1753  0.5468  1.4392
61653SOL    HW291821   3.377   0.105   8.917  0.1915 -0.2606 -2.5906
61654SOL     OW91822   2.295   2.641   3.096  0.3218  0.3804 -0.1093
61654SOL    HW191823   2.205   2.633   3.064  0.8656  0.8724 -1.8287
61654SOL    HW291824   2.333   2.711   3.044  1.0883  1.7051  2.0778
61655SOL     OW91825   1.091   3.297   4.663  0.3656  0.0648 -0.1174
61655SOL    HW191826   1.045   3.283   4.579 -1.4045 -1.5798  1.0366
61655SOL    HW291827   1.114   3.209   4.692 -0.0184  0.5181  1.6269
61656SOL     OW91828  12.319   5.745   3.948  0.0887  0.0172 -0.0545
61656SOL    HW191829  12.342   5.753   4.040  1.4585  2.0956 -0.5090
61656SOL    HW291830  12.383   5.685   3.911 -1.3892 -2.0501  0.5814
61657SOL     OW91831   7.415   7.207   2.945 -0.7108  0.4212 -0.1403
61657SOL    HW191832   7.498   7.196   2.897 -0.4036  0.4936  0.3717
61657SOL    HW291833   7.352   7.156   2.893 -0.5450  1.0831 -1.0184
61658SOL     OW91834   8.513   5.088  10.157  0.4958  0.4401 -0.4330
61658SOL    HW191835   8.510   5.083  10.252 -2.5249 -1.9644 -0.5190
61658SOL    HW291836   8.464   5.167  10.135  0.4275  0.5115 -0.0276
61659SOL     OW91837   5.232   0.162  10.146  0.0754  0.2510 -0.1927
61659SOL    HW191838   5.236   0.202  10.233 -0.9652 -1.5818  0.7526
61659SOL    HW291839   5.222   0.236  10.086  1.5344  1.6179  1.1417
61660SOL     OW91840  12.066  12.206   1.182  0.3811  0.9164 -0.0497
61660SOL    HW191841  12.015  12.172   1.255  1.7499  2.4114  1.6658
61660SOL    HW291842  12.004  12.206   1.108 -1.1334 -0.3014  1.1435
61661SOL     OW91843   9.998   0.443   3.510  0.6225  0.5289 -0.8447
61661SOL    HW191844   9.912   0.408   3.487  0.1043 -0.0171  1.6250
61661SOL    HW291845   9.991   0.537   3.492 -0.9541  0.7026  0.4461
61662SOL     OW91846  10.243   9.949   5.601 -0.0751  0.1972  0.1958
61662SOL    HW191847  10.290  10.007   5.541 -1.2917 -0.0036 -1.0122
61662SOL    HW291848  10.221  10.004   5.676  0.8382  0.6519  0.1466
61663SOL     OW91849   0.216   2.479  11.428 -0.4998  0.2814  0.0168
61663SOL    HW191850   0.249   2.424  11.499 -0.4086  0.6783  0.2882
61663SOL    HW291851   0.164   2.420  11.373  1.8255 -0.7111 -1.2464
61664SOL     OW91852  12.066  10.325   2.529  0.5998  0.0510 -0.4495
61664SOL    HW191853  12.133  10.345   2.594  2.5878  0.7575 -2.5441
61664SOL    HW291854  12.017  10.407   2.520  1.4366  0.5112 -1.0123
61665SOL     OW91855   2.344   9.525   3.349  0.6001  0.0145 -0.2001
61665SOL    HW191856   2.290   9.455   3.385  0.5910  0.3441  0.4440
61665SOL    HW291857   2.396   9.556   3.423 -0.0502  1.3030 -0.2451
61666SOL     OW91858   7.253  10.951   3.474 -0.6602 -0.3323  0.8865
61666SOL    HW191859   7.231  10.963   3.566 -0.4694 -0.6439  0.9757
61666SOL    HW291860   7.173  10.916   3.435 -1.2311  1.2115  0.6127
61667SOL     OW91861  11.224   1.823   4.440  0.7653  0.0691 -0.5756
61667SOL    HW191862  11.129   1.826   4.443  0.7727  0.8304  2.4813
61667SOL    HW291863  11.245   1.729   4.443  0.1947 -0.1750 -2.5857
61668SOL     OW91864   1.106  11.518   2.895  0.2410  0.7217  0.4445
61668SOL    HW191865   1.150  11.514   2.811  0.6036  1.8555  0.5702
61668SOL    HW291866   1.110  11.610   2.921 -0.6428  0.5447  1.2884
61669SOL     OW91867   6.586   4.604   8.167  0.1441  0.0949  0.5936
61669SOL    HW191868   6.515   4.655   8.208  2.4539  1.0995  3.7333
61669SOL    HW291869   6.613   4.656   8.092 -1.1824  0.5908  0.4234
61670SOL     OW91870   1.890  10.651   7.838  0.4734 -0.1973 -0.3114
61670SOL    HW191871   1.946  10.577   7.816  2.3509  1.3066 -0.9080
61670SOL    HW291872   1.915  10.719   7.775 -1.2126  0.9344  0.1777
61671SOL     OW91873   0.732   6.991   9.903  0.0013 -0.4561 -0.7944
61671SOL    HW191874   0.741   6.992   9.998 -0.3185 -0.0189 -0.7675
61671SOL    HW291875   0.729   7.083   9.877 -0.7914 -0.5668 -1.1332
61672SOL     OW91876   8.061   6.122   2.937  0.8331 -0.4430  0.2224
61672SOL    HW191877   7.975   6.139   2.900  0.7632 -0.0088  0.5767
61672SOL    HW291878   8.120   6.178   2.887  0.8533 -0.4300  0.2607
61673SOL     OW91879  10.390   8.359   3.440 -0.0701 -0.7417  0.0113
61673SOL    HW191880  10.368   8.270   3.411  0.5914 -1.1321  0.6749
61673SOL    HW291881  10.468   8.348   3.494 -0.8240  0.0635  1.3062
61674SOL     OW91882   0.764   7.918   5.362  0.2088  0.1772 -1.0008
61674SOL    HW191883   0.723   7.835   5.339  0.3462 -0.3935  0.6353
61674SOL    HW291884   0.858   7.902   5.350  0.1912  0.3006 -1.2963
61675SOL     OW91885   0.742   7.095   6.707  0.2947 -0.1224  0.2779
61675SOL    HW191886   0.704   7.180   6.689  1.0987 -0.3026 -3.0449
61675SOL    HW291887   0.710   7.039   6.636 -0.7059 -2.8241  2.6794
61676SOL     OW91888   6.761  12.195   0.199  0.0820  0.5121 -0.2501
61676SOL    HW191889   6.714  12.148   0.131 -0.2352  1.2687 -0.5645
61676SOL    HW291890   6.710  12.181   0.278 -1.1284  1.9381 -0.7326
61677SOL     OW91891   0.518   7.947  11.384  0.0379  0.0545  0.3531
61677SOL    HW191892   0.547   8.001  11.457 -1.6658  0.8150  0.5215
61677SOL    HW291893   0.504   8.009  11.312 -2.5901  0.0252  0.7436
61678SOL     OW91894  10.170   9.511   7.016  0.0016  0.3934 -0.1790
61678SOL    HW191895  10.238   9.563   7.060  0.6975  0.2246 -1.0341
61678SOL    HW291896  10.133   9.457   7.086  1.9528 -0.7920  0.0274
61679SOL     OW91897   6.161   2.985  11.360  0.5235 -0.4285  0.4093
61679SOL    HW191898   6.203   2.985  11.445  0.1296  1.3649  0.6471
61679SOL    HW291899   6.215   3.043  11.306 -0.4240  0.2048  0.1033
61680SOL     OW91900  10.926  10.325   2.595  0.3149 -0.4697  0.2233
61680SOL    HW191901  10.907  10.388   2.664 -0.6023 -1.8895  1.3398
61680SOL    HW291902  11.017  10.342   2.571  0.4111  0.5629  1.2444
61681SOL     OW91903  10.734   3.591   9.817 -0.3513 -0.2200  0.4775
61681SOL    HW191904  10.747   3.573   9.910  1.4605 -3.2186 -0.2141
61681SOL    HW291905  10.700   3.509   9.781 -0.2083  0.5787 -1.6408
61682SOL     OW91906  10.093   6.944   8.505  0.4328 -0.1177  0.2298
61682SOL    HW191907  10.066   7.008   8.572  0.3925  0.5657 -0.4228
61682SOL    HW291908  10.159   6.990   8.453  2.2966 -1.4805  1.2731
61683SOL     OW91909   9.118   0.597   7.026  0.3687  0.5118 -0.5656
61683SOL    HW191910   9.053   0.627   6.963  0.3475 -0.2742 -0.9304
61683SOL    HW291911   9.182   0.668   7.030  1.3046 -0.0991 -2.8141
61684SOL     OW91912   8.228   1.660  11.987 -0.6654  0.2573 -0.4589
61684SOL    HW191913   8.224   1.732  12.049 -1.3747  0.1732 -0.3988
61684SOL    HW291914   8.321   1.643  11.975 -0.5184  0.3543  0.4872
61685SOL     OW91915   1.403   4.211   5.311 -0.0747 -0.3054  0.1239
61685SOL    HW191916   1.385   4.117   5.319 -0.3978 -0.2080  0.6238
61685SOL    HW291917   1.326   4.247   5.266  0.7967 -0.5232 -1.6259
61686SOL     OW91918   5.204   4.534   0.311  0.3693 -0.2731  0.2761
61686SOL    HW191919   5.143   4.608   0.314 -1.2077 -1.5433  1.2835
61686SOL    HW291920   5.247   4.543   0.226 -0.6508  1.1288 -0.1442
61687SOL     OW91921   4.768   0.007   3.651 -0.6387 -0.2328  0.7529
61687SOL    HW191922   4.714  -0.034   3.584 -1.7234 -1.6388  2.4253
61687SOL    HW291923   4.715   0.080   3.684 -0.2258  0.2807  0.2977
61688SOL     OW91924  10.793   7.199  10.791 -0.2311  0.5842 -0.3723
61688SOL    HW191925  10.713   7.164  10.752  0.1671 -0.7437 -0.0763
61688SOL    HW291926  10.788   7.173  10.883  0.8484 -0.1538 -0.4925
61689SOL     OW91927  11.434  11.471   3.729 -0.5621 -0.2046  0.3927
61689SOL    HW191928  11.391  11.556   3.726 -0.3973 -0.0936  0.9647
61689SOL    HW291929  11.447  11.447   3.637 -1.3104  0.0241  0.2197
61690SOL     OW91930  12.097  10.653   4.776 -0.2074  0.5584  0.4692
61690SOL    HW191931  12.170  10.647   4.714 -1.4772  0.9647 -1.0977
61690SOL    HW291932  12.140  10.668   4.861  1.5545  0.1623 -0.3037
61691SOL     OW91933   7.626   1.585   1.410  0.6262 -0.3541 -0.2607
61691SOL    HW191934   7.595   1.497   1.428 -0.0619 -0.0250  0.2151
61691SOL    HW291935   7.552   1.628   1.367  1.0877 -0.1207 -0.8327
61692SOL     OW91936   5.351  10.831   8.165 -0.0590  0.1653  0.1617
61692SOL    HW191937   5.342  10.808   8.073 -2.3022  0.3525  0.2752
61692SOL    HW291938   5.411  10.766   8.201  1.5906  0.6366 -1.5865
61693SOL     OW91939   1.427  11.109   8.379 -0.0985 -0.2619  0.0310
61693SOL    HW191940   1.480  11.186   8.403  2.2702 -1.8325  0.1818
61693SOL    HW291941   1.416  11.117   8.284  0.4831  0.0630 -0.0180
61694SOL     OW91942   7.656   0.886   5.767 -0.3303 -0.1791 -0.1864
61694SOL    HW191943   7.572   0.926   5.790  0.2062  1.6102 -1.2102
61694SOL    HW291944   7.704   0.954   5.720  2.2033 -0.7087  1.4209
61695SOL     OW91945   6.675  11.323  11.312 -0.1303  0.6388  0.3520
61695SOL    HW191946   6.613  11.318  11.385  0.8369  0.3380  1.1745
61695SOL    HW291947   6.713  11.410  11.318 -0.9977  1.1047 -0.6144
61696SOL     OW91948   0.899   2.256  10.481  0.0654  0.2388  0.4179
61696SOL    HW191949   0.984   2.226  10.449 -0.2872 -1.6936  1.1783
61696SOL    HW291950   0.861   2.180  10.525 -2.6711  0.6135 -1.0756
61697SOL     OW91951   9.255  11.139   4.704  0.3257 -0.0835  0.3091
61697SOL    HW191952   9.267  11.232   4.682 -0.6832  0.7765  2.9912
61697SOL    HW291953   9.160  11.129   4.715  0.3974 -1.5372 -0.1612
61698SOL     OW91954  10.858   6.258   4.300 -0.6959 -0.1884 -0.2074
61698SOL    HW191955  10.843   6.351   4.317  0.9749  0.7426 -3.1484
61698SOL    HW291956  10.771   6.223   4.282 -1.5321  0.4094  2.3050
61699SOL     OW91957   2.516   0.743   2.868  0.3194 -0.0558  0.4521
61699SOL    HW191958   2.548   0.806   2.932  1.1685 -0.2427  0.2144
61699SOL    HW291959   2.452   0.690   2.916  0.7343 -0.0083  1.0670
61700SOL     OW91960   1.212   5.190   0.404  0.3319  0.0011 -0.2055
61700SOL    HW191961   1.142   5.227   0.350 -1.3401 -0.5334  1.4962
61700SOL    HW291962   1.236   5.262   0.463  0.5191 -0.1351 -0.1162
61701SOL     OW91963   3.767   8.454   7.210 -0.3855  0.7241 -0.0354
61701SOL    HW191964   3.697   8.394   7.238  0.1838  0.5470  1.0716
61701SOL    HW291965   3.723   8.538   7.200 -1.1321  0.2083 -1.3040
61702SOL     OW91966  11.190   3.590   4.778  0.5565  0.2356  0.3732
61702SOL    HW191967  11.278   3.620   4.801  0.5169  0.4681  0.2239
61702SOL    HW291968  11.183   3.608   4.684 -0.1147  1.3875  0.6354
61703SOL     OW91969   0.164  11.627   5.403 -0.4538  0.3736 -0.1356
61703SOL    HW191970   0.079  11.621   5.360  0.2458  1.2181 -1.7503
61703SOL    HW291971   0.175  11.720   5.422 -0.6625  0.0361  1.7835
61704SOL     OW91972   7.039   4.861   9.759  0.9571 -0.2059 -0.0885
61704SOL    HW191973   7.056   4.791   9.821 -0.0463 -0.1628  0.2534
61704SOL    HW291974   6.951   4.843   9.726  0.0037  1.7521  1.2143
61705SOL     OW91975  11.695  12.460   4.326  0.5551 -0.3450 -0.6151
61705SOL    HW191976  11.700  12.543   4.279 -0.2434  0.0301 -0.0603
61705SOL    HW291977  11.661  12.483   4.413  0.0965 -1.2706 -0.5313
61706SOL     OW91978   7.008   2.151  10.857  0.2551  0.0656  0.7861
61706SOL    HW191979   7.009   2.217  10.925 -1.4617  0.4044  0.5266
61706SOL    HW291980   6.921   2.157  10.818  0.9892 -0.4773 -1.0895
61707SOL     OW91981   3.025   7.130   6.828  0.2990  0.0938  0.0967
61707SOL    HW191982   3.008   7.039   6.853  1.1864 -0.1875 -0.2623
61707SOL    HW291983   3.060   7.170   6.907 -0.1635  0.1454  0.2776
61708SOL     OW91984   0.180   4.854   1.115  0.6140  0.0031  0.3534
61708SOL    HW191985   0.147   4.935   1.155 -0.0287  0.0828 -0.3254
61708SOL    HW291986   0.271   4.849   1.143  1.0356  1.6282 -0.5868
61709SOL     OW91987  11.349   1.264  11.070 -0.1883  0.1182 -0.0021
61709SOL    HW191988  11.375   1.353  11.091 -0.2492 -0.2476  1.8005
61709SOL    HW291989  11.383   1.211  11.142 -0.0265 -1.3437 -1.1022
61710SOL     OW91990  10.630  10.087   1.199  0.1700 -0.0794  0.1771
61710SOL    HW191991  10.554  10.126   1.154  0.9304 -0.1386 -1.2352
61710SOL    HW291992  10.705  10.136   1.166  0.7583  0.0351  1.6223
61711SOL     OW91993   9.933   9.789   2.961  0.2651 -0.2096  0.1356
61711SOL    HW191994   9.966   9.782   2.871  0.2378 -3.3142  0.2784
61711SOL    HW291995   9.882   9.709   2.974  1.1882 -0.4041  3.2685
61712SOL     OW91996   0.724   6.144   0.919  0.0967 -0.2269 -0.0507
61712SOL    HW191997   0.672   6.192   0.853  1.4645  0.4648 -0.6684
61712SOL    HW291998   0.666   6.073   0.948 -0.8236 -0.0858 -1.4383
61713SOL     OW91999   8.317   7.455   2.417 -1.1431  0.1740 -0.9490
61713SOL    HW192000   8.354   7.371   2.391  0.5558  0.6922 -0.3921
61713SOL    HW292001   8.279   7.440   2.503 -1.9848 -0.3003 -1.3943
61714SOL     OW92002   5.036   6.266   9.758 -0.3094  0.8454  0.2758
61714SOL    HW192003   5.098   6.237   9.825  0.3930  0.7010 -0.4279
61714SOL    HW292004   5.048   6.361   9.754 -1.4329  1.0695  1.4062
61715SOL     OW92005   1.842   3.911  12.404 -0.6995 -1.0580 -0.2186
61715SOL    HW192006   1.828   3.946  12.316 -0.2536 -0.3104 -0.0009
61715SOL    HW292007   1.760   3.928  12.451 -0.8530 -1.2471 -0.4160
61716SOL     OW92008   9.725   9.681   4.880 -0.0002  0.1206 -0.6830
61716SOL    HW192009   9.738   9.595   4.839 -0.0371  0.3792 -1.2474
61716SOL    HW292010   9.741   9.666   4.973 -1.0270 -0.7377 -0.6170
61717SOL     OW92011   8.378   7.598  10.403  0.0658  0.2195  0.4688
61717SOL    HW192012   8.324   7.677  10.402  0.6988  0.6512 -0.8777
61717SOL    HW292013   8.351   7.551  10.483 -3.1414 -0.1917 -0.7479
61718SOL     OW92014   7.165   9.869   1.150 -0.6248  0.4033  0.7967
61718SOL    HW192015   7.186   9.899   1.062  1.2646  0.9487  1.3923
61718SOL    HW292016   7.083   9.821   1.140 -1.6662  2.3851 -0.8575
61719SOL     OW92017   4.437   9.224   1.664  0.3585  0.2029  0.3018
61719SOL    HW192018   4.455   9.313   1.636  1.0940  0.0380  0.2326
61719SOL    HW292019   4.509   9.172   1.628  0.3275 -0.3025  0.9509
61720SOL     OW92020   5.441   3.684  11.215 -0.3478 -0.1060 -0.1688
61720SOL    HW192021   5.480   3.674  11.128 -1.3563 -0.9905 -0.5386
61720SOL    HW292022   5.452   3.777  11.236  0.1252  0.0651 -1.1221
61721SOL     OW92023   1.690  11.669   9.422  0.2611 -0.0405  0.0189
61721SOL    HW192024   1.677  11.717   9.504  1.9412 -0.9101  0.8372
61721SOL    HW292025   1.758  11.605   9.442 -0.4262 -1.3595 -1.6265
61722SOL     OW92026   6.261   8.416   7.046 -0.5154  0.1258  0.6126
61722SOL    HW192027   6.221   8.501   7.028  0.2278  0.3789  0.1106
61722SOL    HW292028   6.254   8.407   7.141 -0.2610  0.9312  0.7183
61723SOL     OW92029   9.029  10.896   5.484  0.0917  0.0089 -0.3230
61723SOL    HW192030   8.939  10.902   5.452  0.3097  1.5935 -0.6826
61723SOL    HW292031   9.070  10.832   5.426 -0.3649  0.4937 -1.1973
61724SOL     OW92032   3.313   3.601   6.817 -0.4362  0.5390 -0.6094
61724SOL    HW192033   3.234   3.588   6.764 -0.1105  1.2098 -1.2801
61724SOL    HW292034   3.319   3.522   6.870 -1.1813  0.1744 -1.0440
61725SOL     OW92035   8.892   0.667   7.985 -0.2078  0.5109  0.3940
61725SOL    HW192036   8.828   0.711   7.930  1.0138  1.6878 -0.1314
61725SOL    HW292037   8.930   0.736   8.039  0.7112 -0.1300  0.6014
61726SOL     OW92038   7.401   0.083   8.220  0.2125 -0.6051 -0.5773
61726SOL    HW192039   7.408   0.029   8.141  2.0546  0.2397 -1.0718
61726SOL    HW292040   7.324   0.138   8.205  0.7020 -0.2561 -1.9473
61727SOL     OW92041   1.916   7.672   3.308  0.0378  0.0146 -0.7649
61727SOL    HW192042   1.979   7.710   3.247 -0.7472  2.9632  0.1297
61727SOL    HW292043   1.868   7.747   3.344 -1.6145 -1.8439  1.1923
61728SOL     OW92044   5.774   6.402   7.764  0.0496  0.2294 -0.3522
61728SOL    HW192045   5.803   6.322   7.719  0.0286  0.7816 -1.3786
61728SOL    HW292046   5.819   6.399   7.849 -0.0899 -0.9581 -0.2948
61729SOL     OW92047   6.165  11.352   2.233 -0.3927 -0.8389 -0.3490
61729SOL    HW192048   6.243  11.311   2.195  0.3365 -0.3313  0.5659
61729SOL    HW292049   6.154  11.433   2.184  1.3032  0.4574  1.2595
61730SOL     OW92050  11.933   9.033   8.823 -0.4523  0.1922  0.0857
61730SOL    HW192051  11.958   8.986   8.744  2.8960 -0.2764  1.2733
61730SOL    HW292052  11.901   8.964   8.883 -0.0307  0.0931  0.1997
61731SOL     OW92053  11.726   9.936   2.844 -0.6268  0.0422 -0.4247
61731SOL    HW192054  11.763   9.849   2.861 -1.8371 -0.5352 -0.6560
61731SOL    HW292055  11.763   9.962   2.759 -0.4732 -0.3582 -0.4810
61732SOL     OW92056   3.156   9.821   3.893  0.3473  0.2582  0.2020
61732SOL    HW192057   3.160   9.906   3.936  0.3406  0.0145  0.6959
61732SOL    HW292058   3.192   9.760   3.958 -0.2885 -0.2133  0.1270
61733SOL     OW92059   9.710   4.477  11.724 -0.0071  0.4369  0.1924
61733SOL    HW192060   9.689   4.390  11.758  3.1945 -0.2690  0.7282
61733SOL    HW292061   9.709   4.467  11.629 -0.7246  0.1335  0.2259
61734SOL     OW92062  11.337   8.225   0.271 -0.2630  0.1765  0.1364
61734SOL    HW192063  11.267   8.289   0.264 -1.3748 -1.1792 -2.3320
61734SOL    HW292064  11.409   8.273   0.312 -1.5325  2.5456 -0.2319
61735SOL     OW92065  11.353   0.302   9.658  0.4158  0.0733 -0.1663
61735SOL    HW192066  11.445   0.316   9.634  0.4158  1.1299  0.3922
61735SOL    HW292067  11.353   0.300   9.753 -0.2628  1.0791 -0.1341
61736SOL     OW92068   5.348   8.719   6.291  0.3535 -0.2627  0.2365
61736SOL    HW192069   5.440   8.717   6.263 -0.0356  0.0603 -1.1621
61736SOL    HW292070   5.304   8.769   6.223 -1.0862 -1.5076  0.1928
61737SOL     OW92071   2.689   6.692  11.865 -0.1392 -0.2243  0.3379
61737SOL    HW192072   2.637   6.740  11.930  0.9508 -0.5874  1.5342
61737SOL    HW292073   2.625   6.641  11.816 -0.9547 -0.4498  1.5732
61738SOL     OW92074   6.547  10.288   9.126 -0.1598 -0.3623 -0.2987
61738SOL    HW192075   6.568  10.307   9.218  0.7685 -1.3117 -0.2965
61738SOL    HW292076   6.480  10.353   9.103 -0.9048 -0.5403  1.2455
61739SOL     OW92077   0.667   6.975   1.320  0.5521  0.0584  0.8326
61739SOL    HW192078   0.761   6.959   1.334  0.8240  1.5845  0.8671
61739SOL    HW292079   0.651   7.060   1.359 -0.2483  1.0891 -1.5645
61740SOL     OW92080   4.676   2.291   0.439  0.2524  0.4455 -0.0819
61740SOL    HW192081   4.718   2.349   0.502  1.4183 -0.0754 -0.3395
61740SOL    HW292082   4.605   2.343   0.402  0.4276  1.2334  0.6559
61741SOL     OW92083   7.034   0.264   8.322  0.2295  0.1742  0.1907
61741SOL    HW192084   6.942   0.237   8.321 -0.7506  3.1506 -1.2122
61741SOL    HW292085   7.033   0.350   8.363  2.5381  0.0162  0.7144
61742SOL     OW92086   0.707   3.685   4.795  0.7186 -0.8437  0.2153
61742SOL    HW192087   0.758   3.688   4.714  3.3899 -1.9092  1.7040
61742SOL    HW292088   0.691   3.777   4.817  2.5732 -0.3918 -0.0816
61743SOL     OW92089   1.216   6.535   2.325  0.9210  0.9915  0.1704
61743SOL    HW192090   1.148   6.581   2.276  1.0591  1.0659  0.0507
61743SOL    HW292091   1.298   6.572   2.294  1.0648  0.2785 -0.3428
61744SOL     OW92092   5.049   5.168   0.045 -0.4043  0.4537  0.1796
61744SOL    HW192093   4.973   5.177   0.103 -0.6052 -2.6820  0.5763
61744SOL    HW292094   5.011   5.174  -0.043 -1.7107 -3.3946  0.2931
61745SOL     OW92095   1.636   5.060   2.025  0.0627  0.0320  0.6485
61745SOL    HW192096   1.553   5.105   2.044  0.7071  1.4004  0.3970
61745SOL    HW292097   1.691   5.078   2.101 -0.1523 -1.6661  1.2449
61746SOL     OW92098   8.820  10.294   2.478 -0.0459 -0.5538  0.2659
61746SOL    HW192099   8.729  10.322   2.468 -0.2716 -0.9504  1.1371
61746SOL    HW292100   8.831  10.227   2.410 -0.2702 -0.2131 -0.1147
61747SOL     OW92101   4.260   4.719  10.449  0.1013 -0.0796 -0.6551
61747SOL    HW192102   4.221   4.792  10.497 -0.2176  0.1979 -1.3233
61747SOL    HW292103   4.199   4.647  10.460 -0.1301  0.0772 -0.9080
61748SOL     OW92104   8.225   7.934   6.720 -0.0485 -0.2452  0.1966
61748SOL    HW192105   8.287   7.879   6.674  1.7201  0.6018  1.4620
61748SOL    HW292106   8.163   7.961   6.653 -0.1880 -2.6120 -0.7228
61749SOL     OW92107   4.320   5.549   8.487 -0.8179  0.1281  0.2780
61749SOL    HW192108   4.298   5.642   8.485 -1.3568 -0.0045 -0.4501
61749SOL    HW292109   4.245   5.507   8.528 -0.5249  0.0179  0.7151
61750SOL     OW92110   6.702   7.075   6.343 -0.3351 -0.1021 -0.3921
61750SOL    HW192111   6.797   7.074   6.333 -0.3305 -0.2212 -0.3444
61750SOL    HW292112   6.672   7.147   6.288 -0.1312  0.5480  0.3297
61751SOL     OW92113   0.104   8.593   8.471 -0.4136  0.1631 -0.2188
61751SOL    HW192114   0.167   8.591   8.543  0.7084 -1.6741 -1.1770
61751SOL    HW292115   0.035   8.531   8.497 -0.7813  0.6304 -0.0721
61752SOL     OW92116   1.452   5.719   0.347  0.0926 -0.1372 -0.0999
61752SOL    HW192117   1.391   5.754   0.411  0.5827 -0.3384  0.4931
61752SOL    HW292118   1.534   5.707   0.396  0.2868 -0.9259 -0.5984
61753SOL     OW92119  10.420   9.935   0.875  0.0813 -0.3079 -0.1416
61753SOL    HW192120  10.376   9.927   0.959 -1.5257  1.4696 -0.7329
61753SOL    HW292121  10.401  10.025   0.846  0.2454 -0.9720 -2.5618
61754SOL     OW92122  10.711   2.583   9.604  0.0420  0.4431  0.0354
61754SOL    HW192123  10.735   2.636   9.528  1.0642 -0.9724 -0.6566
61754SOL    HW292124  10.768   2.615   9.674  0.3691  0.5286 -0.2666
61755SOL     OW92125   9.182   7.421   8.435 -0.0752  0.1994 -0.2157
61755SOL    HW192126   9.145   7.360   8.500 -0.8035 -0.3893 -1.1561
61755SOL    HW292127   9.124   7.414   8.360  1.5293 -0.1864 -1.4699
61756SOL     OW92128   8.716   2.116   8.724  0.3879  0.1452 -0.7613
61756SOL    HW192129   8.730   2.152   8.811  0.3927  0.3272 -0.8386
61756SOL    HW292130   8.621   2.121   8.711  0.0196 -2.4445  0.3597
61757SOL     OW92131   2.886   3.462   2.655  0.7155 -0.2835  0.7185
61757SOL    HW192132   2.939   3.434   2.730  0.3582 -2.6597  0.1475
61757SOL    HW292133   2.829   3.530   2.691  3.8260  2.2247  1.4345
61758SOL     OW92134   3.416   9.120  10.943  0.3505  0.3529  0.0018
61758SOL    HW192135   3.443   9.060  11.013  0.4450  0.4910  0.0847
61758SOL    HW292136   3.322   9.133  10.956  0.1884 -0.3340 -0.4419
61759SOL     OW92137  11.625   8.139   5.720  0.5530 -0.3905  0.0622
61759SOL    HW192138  11.578   8.087   5.655  1.2480  0.5364 -1.2352
61759SOL    HW292139  11.698   8.083   5.748 -0.2476 -1.1288  0.7322
61760SOL     OW92140   7.341   5.384   0.256 -0.2875 -0.8815  0.0182
61760SOL    HW192141   7.260   5.429   0.279 -0.7770  0.1985 -3.2494
61760SOL    HW292142   7.333   5.297   0.295 -2.5125 -0.4186  0.7019
61761SOL     OW92143   3.087   7.669   9.101  0.1925 -0.1885  0.2870
61761SOL    HW192144   3.158   7.689   9.163  0.2997  0.9573 -0.1681
61761SOL    HW292145   3.008   7.701   9.145  0.0147 -1.0360  0.5930
61762SOL     OW92146   3.297   6.292   4.091  0.1607 -0.1910 -0.4251
61762SOL    HW192147   3.261   6.373   4.056  2.2071  0.8889 -0.2118
61762SOL    HW292148   3.333   6.247   4.015  1.5684  0.5141 -0.2050
61763SOL     OW92149   9.620   6.293   7.375 -0.8437 -0.1427 -0.6698
61763SOL    HW192150   9.588   6.318   7.462  1.1497 -0.0731  0.0807
61763SOL    HW292151   9.656   6.374   7.339 -0.3952 -0.4835 -0.9913
61764SOL     OW92152   9.101   3.571   4.046  0.1453  0.3009 -0.5805
61764SOL    HW192153   9.081   3.592   3.955  0.2913 -2.0813 -1.2232
61764SOL    HW292154   9.043   3.497   4.067  0.6883  0.2841  1.0046
61765SOL     OW92155   4.090  10.709  10.699 -0.8286 -0.2101  0.1838
61765SOL    HW192156   4.106  10.756  10.781 -0.2089 -0.6448  0.3141
61765SOL    HW292157   4.023  10.644  10.722  0.3679 -1.2940  0.7158
61766SOL     OW92158   3.988   7.604   1.962 -0.2092 -0.2696 -0.4047
61766SOL    HW192159   3.970   7.576   1.872  1.1289  0.3386 -0.8853
61766SOL    HW292160   4.053   7.673   1.953 -2.0142  1.7349  0.8550
61767SOL     OW92161  12.285  11.473   6.434  0.2324  0.4720  0.6704
61767SOL    HW192162  12.353  11.498   6.372  1.0864 -1.1929  0.8781
61767SOL    HW292163  12.211  11.447   6.379  0.9629 -0.9304  0.2986
61768SOL     OW92164  10.468   1.883   0.675 -0.0627 -0.1444 -0.3230
61768SOL    HW192165  10.378   1.911   0.688 -0.0375 -0.1894 -0.0402
61768SOL    HW292166  10.478   1.806   0.731  0.4022  0.3745  0.3313
61769SOL     OW92167   1.586  10.968   7.102  0.7585  0.0951 -0.1750
61769SOL    HW192168   1.494  10.971   7.127  0.9272 -0.3786  0.5516
61769SOL    HW292169   1.603  10.875   7.088  1.0083  0.2309 -0.7702
61770SOL     OW92170   8.564   9.821   8.325 -0.0558 -0.1156 -0.7744
61770SOL    HW192171   8.563   9.879   8.401  0.6332  0.0975 -0.9196
61770SOL    HW292172   8.498   9.754   8.345  0.6682 -0.5102  0.3716
61771SOL     OW92173  11.296   4.911   8.036 -0.8109  0.0852 -0.0529
61771SOL    HW192174  11.233   4.842   8.056 -2.1874  1.2342 -0.2664
61771SOL    HW292175  11.246   4.976   7.987  1.0422  0.0979 -2.0773
61772SOL     OW92176  11.077  12.033  10.994  0.1950  0.1642  0.6164
61772SOL    HW192177  11.156  12.046  11.046 -0.3484  2.0577  1.0560
61772SOL    HW292178  11.040  12.121  10.984 -2.3140 -0.7195  1.1721
61773SOL     OW92179   3.813   3.556   1.789  0.4521  0.0699  0.5223
61773SOL    HW192180   3.735   3.604   1.760  1.2680  1.9695  1.2676
61773SOL    HW292181   3.873   3.562   1.715  0.6633  0.4722  0.7239
61774SOL     OW92182   5.543   5.757   9.734 -0.3243  0.5746  0.1122
61774SOL    HW192183   5.540   5.698   9.658  0.8012 -2.0686  1.9588
61774SOL    HW292184   5.636   5.763   9.756 -0.4965  2.5237  0.4268
61775SOL     OW92185   1.848   7.101   5.598  0.0338 -0.6475 -0.0634
61775SOL    HW192186   1.909   7.123   5.668  0.1316 -0.3437 -0.2403
61775SOL    HW292187   1.808   7.019   5.626 -1.6927  0.6505  1.5360
61776SOL     OW92188   1.491   5.675   2.679  0.3192  0.1882  0.5615
61776SOL    HW192189   1.553   5.703   2.747  0.3138 -1.1843  1.1651
61776SOL    HW292190   1.450   5.596   2.715  0.6153 -0.8299 -1.2132
61777SOL     OW92191   0.191  11.187   3.748  0.6540  0.0823  0.9193
61777SOL    HW192192   0.178  11.282   3.741 -0.9718 -0.2423 -1.5032
61777SOL    HW292193   0.109  11.154   3.783  0.5686 -0.5707  0.1244
61778SOL     OW92194  12.050  12.291   4.234  0.1833  0.3831 -0.0530
61778SOL    HW192195  12.036  12.197   4.220  0.5581  0.6373 -2.4281
61778SOL    HW292196  12.145  12.299   4.249  0.0897  0.3644  0.6076
61779SOL     OW92197   5.649   4.217   6.511  0.0924 -0.4872 -0.3191
61779SOL    HW192198   5.640   4.244   6.603  2.9781 -0.8772  0.1893
61779SOL    HW292199   5.664   4.123   6.515 -3.1374 -1.1653 -1.5524
61780SOL     OW92200   5.488   4.727   4.480  0.1723  0.1193  0.4579
61780SOL    HW192201   5.569   4.682   4.502 -0.6854 -1.5824  0.3022
61780SOL    HW292202   5.496   4.747   4.386 -0.5478 -2.3064 -0.1980
61781SOL     OW92203   7.706   0.438   4.347  0.1049  0.3268 -0.3526
61781SOL    HW192204   7.660   0.520   4.330  1.8781  1.5302  0.2803
61781SOL    HW292205   7.690   0.384   4.270 -1.6068  1.0191 -0.5106
61782SOL     OW92206   4.214  11.124   6.539 -0.2678 -0.1774  0.1646
61782SOL    HW192207   4.143  11.124   6.604  0.5855  0.0336  1.1098
61782SOL    HW292208   4.245  11.215   6.537  0.0662 -0.2948 -0.1548
61783SOL     OW92209   8.539   0.342   5.703  0.0245  0.3480  0.0704
61783SOL    HW192210   8.574   0.302   5.783 -1.3479  1.0132  1.0417
61783SOL    HW292211   8.492   0.419   5.733 -0.9955  0.3116 -1.3206
61784SOL     OW92212   4.859  10.869   2.435  0.3478  0.0093  0.8207
61784SOL    HW192213   4.934  10.827   2.476 -0.3756 -0.2141  1.9528
61784SOL    HW292214   4.870  10.853   2.341  0.4565 -2.1026  1.1627
61785SOL     OW92215   0.882   9.917  10.777 -0.3178  0.0482 -0.0907
61785SOL    HW192216   0.915   9.893  10.690 -0.1622 -1.7785  0.4298
61785SOL    HW292217   0.960   9.920  10.832 -0.7272 -2.5618  0.7636
61786SOL     OW92218   0.473   2.303   9.867 -0.9835  0.4476 -0.2058
61786SOL    HW192219   0.413   2.244   9.913 -1.0496 -1.1960 -2.2717
61786SOL    HW292220   0.459   2.388   9.909 -3.0870 -0.3534  0.8875
61787SOL     OW92221   5.295  10.704  11.554  0.3066 -0.0547 -0.4321
61787SOL    HW192222   5.269  10.614  11.534 -0.5817  0.0014  0.4008
61787SOL    HW292223   5.218  10.757  11.530  1.2808  0.6540 -2.1482
61788SOL     OW92224   9.555   7.317   8.842  0.4404 -0.1846  0.0010
61788SOL    HW192225   9.617   7.299   8.772  0.2009  2.9908 -1.1749
61788SOL    HW292226   9.603   7.372   8.903  0.2106 -1.7839  1.7352
61789SOL     OW92227   0.842   2.788   1.213  0.0189  0.0189  0.0595
61789SOL    HW192228   0.886   2.712   1.174  2.1309  1.2503 -0.1159
61789SOL    HW292229   0.845   2.855   1.145  1.9119  1.5343  1.5194
61790SOL     OW92230   2.218  10.214  12.203  0.6981 -0.4792 -0.1213
61790SOL    HW192231   2.222  10.120  12.185  0.5568 -0.0327 -3.0460
61790SOL    HW292232   2.302  10.234  12.245  1.5132 -1.6517 -1.1181
61791SOL     OW92233   7.759   7.450   3.642 -0.6379  0.2188 -0.3839
61791SOL    HW192234   7.778   7.533   3.685  2.3339 -0.3573 -0.4135
61791SOL    HW292235   7.761   7.470   3.548  0.5315  0.0570 -0.4028
61792SOL     OW92236   0.468   5.697   8.673  0.0634 -0.3749  0.3998
61792SOL    HW192237   0.539   5.656   8.623 -0.5473  0.0719 -0.8944
61792SOL    HW292238   0.403   5.628   8.684 -0.7152  0.0227 -1.2895
61793SOL     OW92239   3.803   6.940  11.089 -0.3229  0.3534 -0.2676
61793SOL    HW192240   3.743   6.964  11.018 -1.2515 -0.4171  0.2441
61793SOL    HW292241   3.765   6.861  11.127  1.5785 -0.7775 -0.6084
61794SOL     OW92242   0.126   1.382  11.305 -0.4236 -0.1804  0.0868
61794SOL    HW192243   0.098   1.473  11.315 -0.6873 -0.2965  0.4020
61794SOL    HW292244   0.065   1.331  11.359  0.3631 -0.4354  0.7616
61795SOL     OW92245  12.277  10.267   0.646 -0.4527  0.0625 -0.1110
61795SOL    HW192246  12.346  10.204   0.622 -0.5024 -0.4710  1.0974
61795SOL    HW292247  12.252  10.306   0.562  0.7139 -0.3529 -0.6939
61796SOL     OW92248   8.469   5.078   8.101  0.0566 -0.0105 -0.0186
61796SOL    HW192249   8.478   4.992   8.060  0.4137  0.0202 -0.0118
61796SOL    HW292250   8.498   5.139   8.033  0.0455  0.0841  0.0620
61797SOL     OW92251   2.917  10.131   1.894  0.1011  0.0125 -0.4323
61797SOL    HW192252   2.948  10.149   1.805  0.7220 -0.4789 -0.3186
61797SOL    HW292253   2.974  10.183   1.951  0.2225 -0.2970 -0.2707
61798SOL     OW92254  11.302   1.234   4.537 -0.2367 -0.8769  0.2468
61798SOL    HW192255  11.370   1.167   4.535 -0.3383 -0.9761 -0.1064
61798SOL    HW292256  11.322   1.291   4.463  0.1916 -0.1684  0.9109
61799SOL     OW92257  12.346   2.552   1.909  0.1290  1.1187 -0.1185
61799SOL    HW192258  12.376   2.464   1.929 -0.1228  1.0729  0.0684
61799SOL    HW292259  12.320   2.549   1.816  0.5534  1.1208 -0.2375
61800SOL     OW92260   9.130   0.151   4.324 -0.6163  1.1310  0.1379
61800SOL    HW192261   9.165   0.231   4.363 -0.2428  0.0251  2.2404
61800SOL    HW292262   9.042   0.143   4.360  0.1314 -0.4864  1.7574
61801SOL     OW92263   5.047   8.899  11.647 -0.1875 -0.3591 -0.1235
61801SOL    HW192264   5.002   8.965  11.595 -0.4312 -0.2036  0.2855
61801SOL    HW292265   5.028   8.816  11.603  0.2004 -0.1492 -0.6927
61802SOL     OW92266  12.191   6.214   0.593  0.2132  0.2035 -0.0093
61802SOL    HW192267  12.238   6.151   0.647  2.1940  1.7474  0.2050
61802SOL    HW292268  12.257   6.247   0.531 -1.1460  0.9379 -1.1376
61803SOL     OW92269   5.399   0.410   8.169 -0.0363 -0.3759  0.6000
61803SOL    HW192270   5.311   0.446   8.161 -0.0744 -0.5711  0.0911
61803SOL    HW292271   5.394   0.349   8.243 -0.2013 -0.0221  0.8812
61804SOL     OW92272   9.804   6.088   4.083  0.3807 -0.3482  0.9510
61804SOL    HW192273   9.807   6.105   4.177  2.2391  0.9172  0.7164
61804SOL    HW292274   9.879   6.032   4.066 -0.6787 -1.6296  0.3823
61805SOL     OW92275   0.704   0.992  12.329 -0.6945 -0.4413 -0.2587
61805SOL    HW192276   0.614   1.022  12.342 -0.7925 -1.0328  0.5787
61805SOL    HW292277   0.725   0.945  12.410  1.0683  1.3785  0.4589
61806SOL     OW92278   0.613   6.548   2.027  0.4524  0.2706  0.1368
61806SOL    HW192279   0.575   6.485   2.088  0.6214 -0.1797 -0.2121
61806SOL    HW292280   0.683   6.499   1.982  2.4877  1.4670  1.8022
61807SOL     OW92281   2.066   1.005  12.256 -0.2317  0.6317  0.1350
61807SOL    HW192282   1.999   0.983  12.191 -2.2839  2.4130  1.5044
61807SOL    HW292283   2.036   0.963  12.336  0.1817  1.6415  0.8286
61808SOL     OW92284  11.501   3.903   4.526 -0.4694 -0.7756 -0.2874
61808SOL    HW192285  11.513   3.810   4.546  0.8906 -0.5231  0.1615
61808SOL    HW292286  11.540   3.915   4.440  0.2145 -0.4520  0.0576
61809SOL     OW92287  12.353   3.013   3.014 -0.3506 -0.2008 -0.3894
61809SOL    HW192288  12.305   2.936   3.045 -0.6229 -0.6782 -1.8909
61809SOL    HW292289  12.396   3.047   3.092 -1.2888 -1.1007  0.5692
61810SOL     OW92290   6.921  11.641   1.215  0.0884  0.1468 -0.6139
61810SOL    HW192291   6.967  11.709   1.265 -1.8153  0.1823  1.2669
61810SOL    HW292292   6.980  11.566   1.217  0.3807  0.3706  1.1911
61811SOL     OW92293   3.575   6.502   5.847  0.4022  0.4044 -0.0865
61811SOL    HW192294   3.537   6.421   5.814 -2.0011  0.8870  1.2848
61811SOL    HW292295   3.533   6.571   5.797 -0.1534  0.9342  1.0745
61812SOL     OW92296  11.332   5.210   7.794 -0.1547 -0.2260 -0.0200
61812SOL    HW192297  11.403   5.147   7.782 -0.5017 -0.5553 -0.3832
61812SOL    HW292298  11.369   5.278   7.850  0.6807 -0.0006 -0.8211
61813SOL     OW92299   5.681   9.293   4.924  0.1617  0.2168 -0.4457
61813SOL    HW192300   5.611   9.322   4.865 -1.1829  2.5099  2.0587
61813SOL    HW292301   5.716   9.374   4.961  1.1870 -1.0819  1.6132
61814SOL     OW92302  10.941   0.301   4.710  0.3853  0.0804 -0.2786
61814SOL    HW192303  11.032   0.273   4.710  0.9502  1.7265 -1.6790
61814SOL    HW292304  10.897   0.239   4.652  1.0950  0.5708 -1.3660
61815SOL     OW92305  11.490  11.179   5.864  0.5726  0.1416  0.0516
61815SOL    HW192306  11.519  11.193   5.774  0.7812 -0.0117  0.0956
61815SOL    HW292307  11.544  11.239   5.916  1.2302 -0.5695  0.2022
61816SOL     OW92308   2.892   8.554   3.054  0.1141  0.1819 -0.2540
61816SOL    HW192309   2.907   8.579   3.145 -0.2131  1.4539 -0.5259
61816SOL    HW292310   2.802   8.583   3.036 -0.2236 -1.0683 -0.6633
61817SOL     OW92311   9.315  11.362   6.713 -0.6188  0.0834 -0.3463
61817SOL    HW192312   9.344  11.339   6.625  0.3671 -0.6499  0.1520
61817SOL    HW292313   9.279  11.280   6.749  1.1505 -0.2603  0.7561
61818SOL     OW92314   9.247  11.379  11.184 -0.1568  0.2924  0.1790
61818SOL    HW192315   9.293  11.453  11.146  0.1304 -0.2654 -0.5861
61818SOL    HW292316   9.169  11.417  11.224  0.8224  1.2151  1.2727
61819SOL     OW92317   0.957   9.130   9.461 -0.7268  0.3603 -0.6908
61819SOL    HW192318   1.000   9.177   9.532  0.9607 -0.1842 -1.3181
61819SOL    HW292319   1.013   9.145   9.385 -2.8524  1.5184 -2.1302
61820SOL     OW92320   9.612   3.747   0.864 -0.3742  0.0409  0.0388
61820SOL    HW192321   9.705   3.730   0.878 -0.2784 -1.2149 -1.7706
61820SOL    HW292322   9.605   3.842   0.857  0.6519  0.1901  0.8437
61821SOL     OW92323   4.125   2.292   7.406  0.6242  0.2799 -0.3634
61821SOL    HW192324   4.062   2.300   7.334 -0.1391  0.4044  0.2993
61821SOL    HW292325   4.208   2.323   7.369  0.2282  0.4077 -1.1663
61822SOL     OW92326   4.734   9.772   5.094  0.4455 -0.4400  0.7860
61822SOL    HW192327   4.667   9.713   5.060  3.3035 -5.8439  3.3235
61822SOL    HW292328   4.806   9.765   5.031 -0.1761  3.2753 -0.5798
61823SOL     OW92329   7.822   2.885   7.784 -0.1751  0.1920 -0.2571
61823SOL    HW192330   7.842   2.976   7.803  1.0510  0.9070 -4.0851
61823SOL    HW292331   7.744   2.889   7.728 -1.3357 -1.3554  1.1317
61824SOL     OW92332   0.181   9.291   6.500 -0.2152 -0.9351  0.0522
61824SOL    HW192333   0.130   9.302   6.420 -1.5557  0.3142  1.0308
61824SOL    HW292334   0.250   9.356   6.494 -0.9375 -0.1172  0.3490
61825SOL     OW92335   0.827  10.049   7.630  0.0087 -0.8106 -0.2136
61825SOL    HW192336   0.897  10.114   7.632 -1.4421  0.8360 -0.8056
61825SOL    HW292337   0.815  10.025   7.722  0.4872 -0.1601  0.0280
61826SOL     OW92338   7.697   6.500   9.892  0.3170 -0.1275  0.2016
61826SOL    HW192339   7.759   6.504   9.964  0.8162 -2.4674 -0.0241
61826SOL    HW292340   7.713   6.415   9.850 -0.3198  0.9091 -2.3555
61827SOL     OW92341  10.667   1.597   1.961  0.4004  0.1189  0.3319
61827SOL    HW192342  10.662   1.650   1.882 -1.5193  0.4780  0.6446
61827SOL    HW292343  10.698   1.657   2.028 -1.7210  0.9203  0.6753
61828SOL     OW92344   2.647   8.367  10.068  0.2727 -0.3471 -0.2508
61828SOL    HW192345   2.656   8.351   9.974 -1.1233  0.0254 -0.4751
61828SOL    HW292346   2.691   8.293  10.109  1.4644 -0.1857 -1.1811
61829SOL     OW92347  10.038  10.420   8.617  0.5963 -0.3754  0.2072
61829SOL    HW192348  10.042  10.420   8.712  4.0531 -0.7217  0.1825
61829SOL    HW292349   9.950  10.451   8.597  0.2356  1.1398  3.4724
61830SOL     OW92350   5.387   4.733   2.266 -0.3142 -0.0418 -0.2263
61830SOL    HW192351   5.415   4.719   2.357  0.0048  0.8123 -0.1824
61830SOL    HW292352   5.305   4.782   2.274 -0.8539 -0.8964 -0.3912
61831SOL     OW92353   3.613   0.631   1.767 -0.0498  0.6333  0.2145
61831SOL    HW192354   3.705   0.642   1.745  0.6308 -1.4643  1.7638
61831SOL    HW292355   3.593   0.704   1.826  1.1622  0.0881  1.3383
61832SOL     OW92356   1.228   9.435  11.758  0.0510  0.2011 -0.5653
61832SOL    HW192357   1.307   9.452  11.706  0.0346  0.7145 -0.4359
61832SOL    HW292358   1.259   9.389  11.836 -0.0532 -1.4546 -1.4816
61833SOL     OW92359   7.002   5.194   8.856 -0.3930 -0.4358  0.2620
61833SOL    HW192360   6.980   5.177   8.947 -1.2155  0.0417  0.1578
61833SOL    HW292361   7.097   5.186   8.852 -0.4850 -2.3356  0.7760
61834SOL     OW92362   8.308   3.724   5.856  0.0410  0.1614 -0.1456
61834SOL    HW192363   8.302   3.718   5.951  0.1409 -1.3681 -0.2143
61834SOL    HW292364   8.306   3.818   5.838 -1.6681  0.4604  1.2542
61835SOL     OW92365   4.663   4.880   5.366 -0.5105  0.1916 -0.2321
61835SOL    HW192366   4.698   4.925   5.290  0.8469  0.4668  0.5124
61835SOL    HW292367   4.569   4.876   5.351 -0.0612 -2.0484 -3.1180
61836SOL     OW92368  12.435   2.813   6.984 -0.2291  0.0550 -0.3995
61836SOL    HW192369  12.436   2.756   7.061 -0.7303 -1.2925 -1.3493
61836SOL    HW292370  12.463   2.756   6.913  3.9105  2.1534 -0.7072
61837SOL     OW92371   9.369   2.062   2.531 -0.1565 -0.7082 -0.2572
61837SOL    HW192372   9.434   1.992   2.530 -0.0166 -0.5982 -1.8586
61837SOL    HW292373   9.285   2.017   2.538  0.0302 -0.8784  1.2330
61838SOL     OW92374   9.415   1.109   1.675 -0.0285 -0.7817  0.1283
61838SOL    HW192375   9.479   1.165   1.632  0.1586  0.2237  1.6431
61838SOL    HW292376   9.362   1.170   1.727 -0.4288 -1.9170  1.0681
61839SOL     OW92377   1.700   7.345   9.397 -0.7351 -0.5145  0.1807
61839SOL    HW192378   1.792   7.326   9.383 -1.1010 -0.4332 -3.3420
61839SOL    HW292379   1.699   7.408   9.469  1.9912 -0.1904  0.0318
61840SOL     OW92380   0.658   8.255  10.097  0.5665  0.2110  0.3270
61840SOL    HW192381   0.575   8.288  10.133  1.2355  1.0373  1.1534
61840SOL    HW292382   0.725   8.306  10.141  1.5463 -0.7003 -0.0736
61841SOL     OW92383   1.386   5.421  10.542  0.1076 -0.3086 -0.3136
61841SOL    HW192384   1.411   5.496  10.488  0.4840 -0.7333 -0.7286
61841SOL    HW292385   1.292   5.434  10.558  0.2776  0.5367  0.0725
61842SOL     OW92386   3.353  10.511   0.050  0.1877  0.1750 -0.2503
61842SOL    HW192387   3.406  10.548  -0.020 -1.6369  1.8456 -0.8614
61842SOL    HW292388   3.355  10.416   0.035  1.4917  0.3439 -1.3010
61843SOL     OW92389   1.798   6.390  10.279  0.4826 -0.5140 -0.1028
61843SOL    HW192390   1.837   6.436  10.354 -0.5803  1.1708 -0.5398
61843SOL    HW292391   1.727   6.448  10.249 -1.1800 -2.6292 -0.4568
61844SOL     OW92392  10.597   8.114  11.879  0.2569  0.1845  0.2970
61844SOL    HW192393  10.509   8.135  11.847  1.1179 -0.1898 -2.5689
61844SOL    HW292394  10.638   8.198  11.896  0.3215  0.4931 -1.2942
61845SOL     OW92395   9.923   4.574  12.397 -0.7889  0.6581  0.0576
61845SOL    HW192396   9.875   4.546  12.319  0.3925  1.1624 -0.8873
61845SOL    HW292397   9.936   4.668  12.384 -1.8820  1.0580  1.6101
61846SOL     OW92398   1.935   5.679   0.806  0.3583  0.1223  0.0454
61846SOL    HW192399   2.026   5.708   0.796  0.5867 -0.3032  0.7975
61846SOL    HW292400   1.885   5.759   0.819  0.7279  0.3097  0.3202
61847SOL     OW92401  10.759   9.776   5.058 -0.1082  0.3127 -0.1828
61847SOL    HW192402  10.739   9.705   5.118 -0.1526  1.2568  0.9608
61847SOL    HW292403  10.838   9.748   5.012 -1.8941 -1.8907 -2.1588
61848SOL     OW92404   6.886  12.151   3.050  0.0080 -0.1219 -0.6883
61848SOL    HW192405   6.886  12.195   2.965  0.8891 -1.7922 -1.6184
61848SOL    HW292406   6.892  12.058   3.028 -0.8312 -0.6565  1.2003
61849SOL     OW92407   2.980   1.664  12.312 -0.3239 -0.0661 -0.0853
61849SOL    HW192408   3.070   1.633  12.304 -0.1307 -0.0926  1.8084
61849SOL    HW292409   2.986   1.759  12.311 -0.0264 -0.0326  1.9751
61850SOL     OW92410   2.522   8.963   2.417  0.1733  0.3323  0.2628
61850SOL    HW192411   2.528   8.969   2.322 -3.0460 -2.1714 -0.2838
61850SOL    HW292412   2.574   8.885   2.439 -0.5862 -0.1788  0.2772
61851SOL     OW92413   6.322   1.750  10.976  0.6110 -0.3446 -0.0608
61851SOL    HW192414   6.405   1.770  11.019  0.4496 -1.0038  0.5783
61851SOL    HW292415   6.266   1.824  10.997  1.1207  0.2678 -0.7713
61852SOL     OW92416   3.443   5.505   2.391 -0.3939 -0.1781  0.0461
61852SOL    HW192417   3.538   5.515   2.386 -0.4277  1.1986  1.4861
61852SOL    HW292418   3.408   5.594   2.389 -1.5778 -0.5934  0.6761
61853SOL     OW92419   9.150   1.631   8.160  0.2729 -0.3567  0.1356
61853SOL    HW192420   9.104   1.713   8.174 -1.8782 -1.3441 -0.6702
61853SOL    HW292421   9.200   1.645   8.080 -2.5420 -0.6887 -1.8366
61854SOL     OW92422   0.288   3.378   7.204 -0.1163  0.7350 -0.4341
61854SOL    HW192423   0.343   3.371   7.126 -1.2348 -0.2717 -1.1611
61854SOL    HW292424   0.211   3.324   7.185 -0.2283  0.1080  1.5411
61855SOL     OW92425   7.711   6.073   4.571 -0.3623 -0.4969 -0.1131
61855SOL    HW192426   7.647   6.002   4.571 -0.5855 -0.2976  0.4558
61855SOL    HW292427   7.792   6.032   4.541 -0.2712 -1.1925  1.0568
61856SOL     OW92428  10.910   1.172  12.127 -0.0969 -1.0340 -0.0373
61856SOL    HW192429  10.854   1.123  12.067  0.8872 -1.5341 -0.5757
61856SOL    HW292430  10.886   1.263  12.113  0.5029 -1.0945 -1.6113
61857SOL     OW92431   0.077   9.492   0.780  0.1817 -0.4917  0.2452
61857SOL    HW192432   0.003   9.432   0.785 -0.5286  0.0814 -1.9691
61857SOL    HW292433   0.152   9.436   0.761 -0.1263 -0.8739  0.1432
61858SOL     OW92434   0.552   7.038   6.941 -0.0787  0.0430  0.3227
61858SOL    HW192435   0.565   7.065   6.850  0.3632 -0.9839  0.0604
61858SOL    HW292436   0.574   6.945   6.941 -0.5597 -0.0818  1.3853
61859SOL     OW92437   2.609   9.509   9.194  0.3856  0.0561 -0.2241
61859SOL    HW192438   2.563   9.435   9.154  0.7348 -0.9977  1.2738
61859SOL    HW292439   2.683   9.525   9.136 -0.3281 -0.0001 -1.1855
61860SOL     OW92440   7.533   7.525   0.135 -0.0280  0.1435  0.0924
61860SOL    HW192441   7.621   7.486   0.140 -0.2110 -0.2196  4.1710
61860SOL    HW292442   7.477   7.453   0.107  0.6041 -0.5093  0.4544
61861SOL     OW92443   4.772   3.281   7.735  0.2411  0.2106  0.3666
61861SOL    HW192444   4.866   3.292   7.752  0.7416 -0.6787 -1.5409
61861SOL    HW292445   4.729   3.323   7.809  2.1041  3.8845 -0.3870
61862SOL     OW92446   9.806  11.720   4.086  0.0148 -1.1618 -0.3729
61862SOL    HW192447   9.725  11.730   4.137  0.1482  1.0306 -0.4996
61862SOL    HW292448   9.777  11.722   3.995  0.2152 -0.0362 -0.4242
61863SOL     OW92449  12.382   8.890   9.245 -0.1991 -0.6920  0.5915
61863SOL    HW192450  12.385   8.840   9.326 -0.5967 -1.8199 -0.0615
61863SOL    HW292451  12.322   8.840   9.189 -0.8042  0.6580  0.0006
61864SOL     OW92452  12.003  11.843   7.058 -0.0919  0.1323 -0.0805
61864SOL    HW192453  12.093  11.822   7.031 -0.0762 -0.9393  0.7364
61864SOL    HW292454  11.950  11.826   6.980  0.1994 -0.9514 -0.0590
61865SOL     OW92455   0.373   3.362   4.393 -0.0051 -0.2150  0.5503
61865SOL    HW192456   0.434   3.433   4.374  1.3852 -0.5372  3.2773
61865SOL    HW292457   0.286   3.401   4.381  0.7291  1.1914 -0.4278
61866SOL     OW92458   2.409   3.127   2.066 -0.9437 -0.6831 -0.5811
61866SOL    HW192459   2.361   3.157   1.989  0.5105 -0.5534 -1.4744
61866SOL    HW292460   2.473   3.196   2.083 -0.3059 -1.3741 -0.1225
61867SOL     OW92461   0.668   3.011   9.080  0.2596 -0.3473 -0.0807
61867SOL    HW192462   0.657   3.091   9.132 -1.2108 -0.5417 -0.0571
61867SOL    HW292463   0.714   2.951   9.139 -0.2284 -0.1239  0.5404
61868SOL     OW92464   5.564   1.900  11.339 -0.3662  0.0810  0.6612
61868SOL    HW192465   5.531   1.989  11.331  2.0296  0.9584 -0.4354
61868SOL    HW292466   5.486   1.846  11.354 -2.1364  2.0516 -0.9365
61869SOL     OW92467   0.921   8.639   3.437  0.1093  0.6136 -0.0564
61869SOL    HW192468   0.934   8.557   3.389 -0.6421  0.8819 -0.7455
61869SOL    HW292469   0.827   8.655   3.432 -0.0775  0.3978  1.9685
61870SOL     OW92470   6.575   4.769   6.934  0.0359 -0.3292  0.0364
61870SOL    HW192471   6.657   4.722   6.950 -0.5363 -1.7562 -0.9398
61870SOL    HW292472   6.543   4.791   7.021  1.1524 -0.2989  0.4531
61871SOL     OW92473  11.771   8.391   9.835 -0.3112  0.1901 -0.5553
61871SOL    HW192474  11.774   8.295   9.835 -1.8263  0.1141  0.0959
61871SOL    HW292475  11.705   8.413   9.769 -3.6451  0.5029  2.5074
61872SOL     OW92476   7.900  10.546   9.453  0.0587  0.5078  0.1176
61872SOL    HW192477   7.884  10.472   9.394  1.1803  0.6667 -0.3970
61872SOL    HW292478   7.969  10.515   9.511  1.9245  1.7668 -1.3096
61873SOL     OW92479   1.485   9.713  11.149 -0.2322  0.2712  0.0339
61873SOL    HW192480   1.412   9.762  11.187 -0.3520  0.9087 -0.9666
61873SOL    HW292481   1.478   9.626  11.187 -0.7463  0.6875  0.9263
61874SOL     OW92482   8.560   7.613  11.847 -0.6254 -0.1494  0.4039
61874SOL    HW192483   8.656   7.605  11.850 -0.6405 -0.6300 -0.1622
61874SOL    HW292484   8.544   7.695  11.801 -0.4719 -1.0576 -1.3786
61875SOL     OW92485  11.001   6.599   2.798 -1.0090  0.2681  0.3308
61875SOL    HW192486  10.961   6.610   2.884  0.9180  0.0360  1.3074
61875SOL    HW292487  11.027   6.506   2.795 -1.9723  0.0074 -0.9375
61876SOL     OW92488   7.436   6.025   2.954 -0.1439 -1.0384 -0.7380
61876SOL    HW192489   7.398   6.089   2.895 -3.0996 -0.8432  1.1757
61876SOL    HW292490   7.433   5.943   2.905  0.4998 -0.3460 -1.9821
61877SOL     OW92491   8.992   8.574   4.943 -0.2516  0.0973 -0.2569
61877SOL    HW192492   8.898   8.589   4.935 -0.5659 -1.1163  0.7694
61877SOL    HW292493   9.003   8.480   4.931  1.0376  0.3939 -1.8305
61878SOL     OW92494   1.733   9.585   8.531 -0.4366  0.3854  0.5592
61878SOL    HW192495   1.784   9.529   8.589  0.8222  2.1717  1.2841
61878SOL    HW292496   1.645   9.584   8.568 -0.6171 -1.5922  0.1532
61879SOL     OW92497  12.387   4.798   0.891 -0.2115  0.1024 -0.0215
61879SOL    HW192498  12.307   4.746   0.898  0.2302 -0.5404  0.2928
61879SOL    HW292499  12.411   4.793   0.799  0.6989 -1.6001  0.2574
61880SOL     OW92500   5.890   0.689   8.247  0.3552 -0.0627 -0.3143
61880SOL    HW192501   5.943   0.646   8.314  0.0502  0.2721  0.1531
61880SOL    HW292502   5.844   0.618   8.203  1.4557 -0.3813 -0.9614
61881SOL     OW92503   8.899   8.258   5.733 -0.0234 -0.5089  0.7882
61881SOL    HW192504   8.934   8.170   5.716  2.2777 -0.3674  3.9521
61881SOL    HW292505   8.845   8.248   5.811  1.8163  1.1300  2.3608
61882SOL     OW92506   1.207  10.616   6.215  0.5365  0.7245 -0.1892
61882SOL    HW192507   1.131  10.557   6.219  0.9966  0.1500  2.6159
61882SOL    HW292508   1.281  10.560   6.239  1.5813  1.6613 -1.1538
61883SOL     OW92509  10.791  11.677   5.858 -0.3471 -0.7130  0.1562
61883SOL    HW192510  10.774  11.701   5.768 -2.4568 -0.1705  0.6536
61883SOL    HW292511  10.830  11.590   5.853  1.0182 -0.0548 -1.3179
61884SOL     OW92512   3.592   1.884  12.254  0.0037 -0.3840 -0.4506
61884SOL    HW192513   3.581   1.827  12.178 -1.2695  1.1470 -1.5045
61884SOL    HW292514   3.592   1.973  12.217 -1.7846  0.4687  1.3944
61885SOL     OW92515   5.512   4.335   4.859 -0.4526  0.4592  0.2336
61885SOL    HW192516   5.476   4.411   4.814  0.2541  0.4868 -0.3055
61885SOL    HW292517   5.603   4.359   4.877 -0.5748  0.2335  1.1904
61886SOL     OW92518   7.498   5.187   9.624 -0.2159  0.2578  0.5887
61886SOL    HW192519   7.541   5.174   9.709 -0.7423 -0.4594  0.7561
61886SOL    HW292520   7.435   5.115   9.618 -0.7147  0.7396 -0.0776
61887SOL     OW92521   7.461   0.128   1.980 -0.2637 -0.1842  0.0551
61887SOL    HW192522   7.434   0.037   1.969  0.2057 -0.5904  1.8439
61887SOL    HW292523   7.455   0.166   1.893  1.0417 -2.3440 -1.0692
61888SOL     OW92524  11.464   8.617   6.281  0.3699  0.1712  0.1236
61888SOL    HW192525  11.426   8.623   6.193  0.7296 -0.4704 -0.0807
61888SOL    HW292526  11.469   8.708   6.311 -0.5702  0.3320 -0.1637
61889SOL     OW92527   9.959   4.691  11.115 -0.3810 -0.1402 -0.9218
61889SOL    HW192528   9.901   4.732  11.051 -0.7845 -0.4682 -0.7751
61889SOL    HW292529   9.999   4.618  11.068 -1.1903 -0.7953 -0.6207
61890SOL     OW92530  11.754   5.201   2.316  0.4312  0.3990  0.0553
61890SOL    HW192531  11.791   5.245   2.240  2.1830 -1.2542 -0.1270
61890SOL    HW292532  11.722   5.117   2.282  0.0782  0.1702  0.9101
61891SOL     OW92533   1.507   0.825  10.361 -0.0814  0.2929 -0.6455
61891SOL    HW192534   1.555   0.893  10.313 -0.3501  1.8441  1.1774
61891SOL    HW292535   1.575   0.769  10.398  0.1735  0.0685 -1.4321
61892SOL     OW92536   6.979   0.126   7.960 -0.1075  0.0811 -0.1623
61892SOL    HW192537   6.884   0.130   7.963 -0.0753  0.6270  0.7460
61892SOL    HW292538   6.999   0.046   7.913 -1.0258 -0.9223  1.0977
61893SOL     OW92539   8.790   9.573   6.378  0.5068 -0.3189 -0.2528
61893SOL    HW192540   8.785   9.599   6.286 -1.1366  0.1815 -0.0419
61893SOL    HW292541   8.728   9.501   6.387 -1.7263  1.6259  1.0690
61894SOL     OW92542   9.036  11.887   5.723  0.0944  0.2399  0.0290
61894SOL    HW192543   9.088  11.864   5.800  0.1640 -0.3036 -0.1782
61894SOL    HW292544   9.079  11.842   5.650  0.2309  1.0299 -0.3876
61895SOL     OW92545   9.493  11.197   9.102 -0.1514 -0.3190 -0.6746
61895SOL    HW192546   9.426  11.129   9.102 -2.3403  1.6989 -1.1749
61895SOL    HW292547   9.447  11.277   9.127  1.8892  1.3429 -1.7934
61896SOL     OW92548   5.908   8.815   6.193 -0.1682 -0.2573  0.3443
61896SOL    HW192549   5.952   8.766   6.123 -0.6258 -1.4693  0.8838
61896SOL    HW292550   5.875   8.894   6.150  0.8857 -0.2305 -0.4720
61897SOL     OW92551   9.597   9.141   1.023 -0.6761  0.2479  0.2569
61897SOL    HW192552   9.661   9.072   1.039 -1.9672 -1.0048  0.1738
61897SOL    HW292553   9.513   9.103   1.049 -1.7419  0.9897 -1.8327
61898SOL     OW92554   7.760   3.819   7.552  0.5846 -0.2593 -0.2105
61898SOL    HW192555   7.704   3.858   7.619  1.8097  1.8954 -0.3432
61898SOL    HW292556   7.835   3.879   7.545  1.7700 -1.7964 -1.6767
61899SOL     OW92557   5.642   3.313  10.471 -0.1706 -0.2118 -0.2659
61899SOL    HW192558   5.609   3.357  10.393 -0.7822  0.5191  0.3908
61899SOL    HW292559   5.733   3.290  10.449 -0.1463  0.5140 -0.9666
61900SOL     OW92560   6.869   0.090   5.295  0.0356  0.1959 -0.3800
61900SOL    HW192561   6.782   0.051   5.289 -0.4562  1.3394 -0.9397
61900SOL    HW292562   6.929   0.020   5.270 -0.6635 -0.8114  0.6933
61901SOL     OW92563   2.175   3.814   9.411  0.1274  0.1087 -0.2184
61901SOL    HW192564   2.086   3.779   9.415  0.0886  0.2120 -0.1565
61901SOL    HW292565   2.218   3.764   9.342 -0.2257  0.6150 -0.8201
61902SOL     OW92566   9.620  12.278   4.135  0.0481 -1.2544 -0.1595
61902SOL    HW192567   9.645  12.198   4.089  0.3171 -0.5867 -1.2176
61902SOL    HW292568   9.633  12.258   4.228  2.6125 -1.6069 -0.5227
61903SOL     OW92569   9.696   3.786  11.754 -0.4339 -0.0772  0.2951
61903SOL    HW192570   9.648   3.704  11.764 -1.1440  0.3598  0.5711
61903SOL    HW292571   9.661   3.843  11.822  1.2147 -0.0615  1.1893
61904SOL     OW92572   9.347   3.543   8.300 -0.5911  0.5832 -0.3500
61904SOL    HW192573   9.279   3.526   8.236 -0.4693 -0.6882 -0.1727
61904SOL    HW292574   9.306   3.522   8.384  0.1714 -0.8153 -0.2912
61905SOL     OW92575   1.735  12.473   2.386 -0.2590 -0.0079  0.1026
61905SOL    HW192576   1.733  12.395   2.441 -0.5873  0.4428  0.7321
61905SOL    HW292577   1.667  12.530   2.421 -1.2502 -0.1637 -1.4381
61906SOL     OW92578   2.179   6.016   8.652 -0.2623 -0.3697 -0.2063
61906SOL    HW192579   2.261   6.026   8.700  0.2017  0.6140 -1.1463
61906SOL    HW292580   2.112   6.047   8.713  0.1102 -0.8210  0.4358
61907SOL     OW92581  12.402   4.926   4.894 -0.3323  0.5233 -0.0697
61907SOL    HW192582  12.336   4.995   4.898  1.0451  2.0501 -1.9318
61907SOL    HW292583  12.479   4.963   4.936 -0.2452 -0.7623  0.9508
61908SOL     OW92584   6.934   3.458   2.308 -0.1427 -0.5403 -0.2163
61908SOL    HW192585   6.865   3.398   2.280 -2.7672  2.5936 -0.9821
61908SOL    HW292586   6.993   3.462   2.233  2.0373 -4.3871  0.9663
61909SOL     OW92587   7.224   7.769   6.409  0.2990 -0.2550  0.0803
61909SOL    HW192588   7.172   7.706   6.361  1.3461  0.0113 -1.4876
61909SOL    HW292589   7.215   7.850   6.360  0.8903  0.2085  0.7090
61910SOL     OW92590   4.829   9.190  11.796  0.8676 -0.2652  0.1741
61910SOL    HW192591   4.911   9.194  11.747  1.0108  0.0637  0.4398
61910SOL    HW292592   4.787   9.110  11.764 -0.1106  1.0723 -2.1664
61911SOL     OW92593   9.767   5.971   1.761  0.1808  0.4527  0.2787
61911SOL    HW192594   9.680   6.010   1.762 -1.6579 -3.1476 -1.0859
61911SOL    HW292595   9.790   5.964   1.854 -0.9518  1.4657  0.6709
61912SOL     OW92596   6.284  11.617   0.230 -0.4235 -0.1383 -0.2495
61912SOL    HW192597   6.352  11.665   0.278 -1.0516  0.3014  0.2241
61912SOL    HW292598   6.227  11.582   0.299 -1.0053 -0.0053 -0.6532
61913SOL     OW92599   7.465  11.500  12.301 -0.3243  0.3588 -0.0023
61913SOL    HW192600   7.420  11.415  12.300 -1.5972  0.8770 -3.5980
61913SOL    HW292601   7.427  11.546  12.376 -1.9896 -1.1306  0.1464
61914SOL     OW92602   8.683   1.850   6.239 -0.4920  0.1884  0.2416
61914SOL    HW192603   8.700   1.769   6.287  1.8196 -0.4646 -1.5177
61914SOL    HW292604   8.677   1.823   6.147  1.7655  2.1059 -0.5578
61915SOL     OW92605   8.236   1.748   9.800  0.2764  0.0700 -0.3683
61915SOL    HW192606   8.215   1.773   9.710  2.4936  2.5784 -0.3345
61915SOL    HW292607   8.200   1.820   9.853  0.0681 -0.7509  0.6298
61916SOL     OW92608   7.830   4.644   3.616 -0.0004  0.2261  0.2362
61916SOL    HW192609   7.738   4.638   3.640 -0.3643  2.3526 -0.4445
61916SOL    HW292610   7.874   4.584   3.677 -1.7919 -0.8501  0.5611
61917SOL     OW92611   8.264  11.581   5.563 -0.2989  0.1946  0.1495
61917SOL    HW192612   8.344  11.565   5.614  0.1686 -1.7027 -1.0400
61917SOL    HW292613   8.193  11.551   5.619 -0.0064  0.3129  0.5857
61918SOL     OW92614   4.459  12.290   5.950 -0.2555 -0.2084  0.1401
61918SOL    HW192615   4.518  12.348   5.998 -1.9302 -0.0483  2.1349
61918SOL    HW292616   4.506  12.207   5.943 -0.1609 -0.4534  2.7147
61919SOL     OW92617  11.936   5.345   8.209  0.3293  0.2984  0.5710
61919SOL    HW192618  11.947   5.329   8.115 -0.1035 -0.7041  0.6737
61919SOL    HW292619  11.842   5.363   8.219 -0.0322 -1.5642  1.0385
61920SOL     OW92620   5.032  10.710   0.688 -0.7499 -0.6790 -0.2788
61920SOL    HW192621   4.949  10.756   0.705 -0.3015 -0.5638  1.8044
61920SOL    HW292622   5.097  10.780   0.684 -0.6216 -0.8368 -1.1698
61921SOL     OW92623  10.424   7.702   1.989  0.5333  0.1008  0.2522
61921SOL    HW192624  10.500   7.759   2.004  0.8764 -0.6700  1.7254
61921SOL    HW292625  10.460   7.613   1.996 -0.2686 -0.2828 -0.4082
61922SOL     OW92626   4.916   3.203   3.777 -0.3513  0.1954 -0.1682
61922SOL    HW192627   4.947   3.114   3.764  0.3858  0.1323  1.7270
61922SOL    HW292628   4.927   3.245   3.691 -0.0506 -1.3201 -0.8958
61923SOL     OW92629   4.047   6.542  11.659 -0.8721 -0.3035  0.5731
61923SOL    HW192630   4.030   6.636  11.652  0.4398  0.0894  2.0465
61923SOL    HW292631   4.074   6.516  11.571  1.6571  1.3682  0.7470
61924SOL     OW92632   5.025   0.545   0.944 -0.1839  0.1846 -0.1388
61924SOL    HW192633   5.033   0.477   0.877 -0.6462 -0.2268  0.2170
61924SOL    HW292634   4.934   0.541   0.972  0.1391 -0.0673  0.9394
61925SOL     OW92635   4.507   5.365   1.166  0.3580 -0.4343  0.6718
61925SOL    HW192636   4.418   5.331   1.166  0.2527 -0.1586  1.1558
61925SOL    HW292637   4.562   5.288   1.157  0.0178 -0.4467 -2.5029
61926SOL     OW92638  10.485   2.033   0.995  0.0360 -0.3165  0.1640
61926SOL    HW192639  10.409   2.003   1.045 -1.5880  0.0044 -1.9568
61926SOL    HW292640  10.450   2.053   0.908  1.8894  3.1507  0.0358
61927SOL     OW92641  12.023   3.734   2.347 -0.2245  0.2383  0.3707
61927SOL    HW192642  12.048   3.813   2.394 -0.4601  1.0542 -0.8251
61927SOL    HW292643  11.942   3.705   2.389 -0.5814  1.1037  0.2828
61928SOL     OW92644   1.381   4.089  11.697  0.0999  0.2246  0.3956
61928SOL    HW192645   1.392   4.165  11.640  0.0508 -0.9355 -1.2383
61928SOL    HW292646   1.341   4.022  11.641  1.8924 -1.6544  1.1960
61929SOL     OW92647   6.273   7.578   3.284  0.0496 -0.6602  0.3928
61929SOL    HW192648   6.329   7.530   3.223  0.0730  1.0752 -1.0321
61929SOL    HW292649   6.263   7.665   3.245 -3.2285 -0.6981  0.8076
61930SOL     OW92650   8.872   5.683  12.436 -0.2272 -0.4850  0.0847
61930SOL    HW192651   8.881   5.588  12.432 -1.0493 -0.5394 -2.0118
61930SOL    HW292652   8.940   5.716  12.378 -1.0274  0.0892 -0.5560
61931SOL     OW92653  12.424   9.745  11.545 -0.0027  0.0826 -0.1005
61931SOL    HW192654  12.340   9.702  11.530 -0.7368  1.5082 -0.1475
61931SOL    HW292655  12.487   9.690  11.498 -0.4275 -2.5888  2.1923
61932SOL     OW92656  10.271   1.554   5.580  0.0029  0.1061 -0.4626
61932SOL    HW192657  10.199   1.614   5.598 -2.4184 -3.5514  4.1028
61932SOL    HW292658  10.340   1.581   5.641 -0.9404 -1.3220  1.3159
61933SOL     OW92659   0.007   9.031   4.630 -0.2525  0.4996 -0.1795
61933SOL    HW192660   0.077   8.967   4.632  0.8502  1.6839  1.0454
61933SOL    HW292661  -0.069   8.983   4.598  0.6222 -1.3008  0.3369
61934SOL     OW92662  11.738   5.846   3.475  0.3349 -0.3140  0.0365
61934SOL    HW192663  11.708   5.911   3.411  1.7919  0.3941  0.0430
61934SOL    HW292664  11.750   5.896   3.556 -4.3466 -1.6712  1.9064
61935SOL     OW92665   1.283   5.608  11.022 -0.0918 -0.1914  0.1711
61935SOL    HW192666   1.226   5.559  10.962  0.2675  0.6080 -0.8715
61935SOL    HW292667   1.343   5.656  10.964 -0.3458  1.3703  1.1223
61936SOL     OW92668  12.376   4.443   8.259 -0.3853  0.4633  0.4325
61936SOL    HW192669  12.334   4.386   8.195 -1.4679  0.0004  1.5264
61936SOL    HW292670  12.463   4.461   8.222 -0.9873  0.2083 -1.1404
61937SOL     OW92671  12.137   7.463   3.164 -0.0794  0.0542  0.0141
61937SOL    HW192672  12.142   7.372   3.194  0.9483  0.0638 -0.0927
61937SOL    HW292673  12.054   7.495   3.199 -0.5680 -0.9932 -0.1398
61938SOL     OW92674   2.223  10.545   2.074 -0.0977 -0.0287 -0.1059
61938SOL    HW192675   2.282  10.515   2.005 -0.5229 -0.0175 -0.4818
61938SOL    HW292676   2.175  10.467   2.100 -2.8138  0.5714 -2.6338
61939SOL     OW92677   5.941   6.660  11.956  0.3061  0.2380 -0.2030
61939SOL    HW192678   5.972   6.617  11.877  1.1512  1.3366 -0.4882
61939SOL    HW292679   5.972   6.604  12.028 -0.3851 -0.7101 -0.6250
61940SOL     OW92680   4.599   0.001   2.509  0.2726  0.2626  0.2747
61940SOL    HW192681   4.628   0.033   2.595 -1.3706  0.0092  0.9690
61940SOL    HW292682   4.602  -0.094   2.517 -1.1063  0.2249  0.5223
61941SOL     OW92683  10.351   1.657   3.484 -0.6380  0.0102  0.4064
61941SOL    HW192684  10.405   1.735   3.483 -1.7418  0.8429  1.4661
61941SOL    HW292685  10.261   1.690   3.495 -1.2623 -1.3493 -0.3268
61942SOL     OW92686   2.246   9.462   7.958 -0.0278 -0.3450 -0.0044
61942SOL    HW192687   2.321   9.521   7.955 -1.1110  1.0933  0.2917
61942SOL    HW292688   2.192   9.488   7.883 -1.7755  0.8193  1.5814
61943SOL     OW92689   0.870   5.382   9.936 -0.0540  0.1074 -0.3616
61943SOL    HW192690   0.805   5.330   9.888  0.0785  0.5476 -1.0314
61943SOL    HW292691   0.829   5.399  10.021 -0.1198 -1.0330 -0.1569
61944SOL     OW92692   7.005   3.464   3.849  0.3757 -0.0059  0.9734
61944SOL    HW192693   7.078   3.421   3.805  0.8306  0.3116  1.4091
61944SOL    HW292694   6.927   3.431   3.804  0.8533  0.6521 -0.3813
61945SOL     OW92695  11.703   4.513  12.119  0.0279  0.6736 -0.6739
61945SOL    HW192696  11.620   4.467  12.133  0.5750 -0.4465 -0.9827
61945SOL    HW292697  11.711   4.521  12.024  1.2800 -1.2069 -0.7812
61946SOL     OW92698  10.801   0.051   3.221 -0.4721 -0.3095  0.2056
61946SOL    HW192699  10.712   0.071   3.250 -0.8919 -0.6757 -0.7888
61946SOL    HW292700  10.850   0.034   3.302 -0.6792  2.2596  0.9731
61947SOL     OW92701   4.406   6.020   7.713  0.0009 -0.3161 -0.0992
61947SOL    HW192702   4.384   6.049   7.624 -0.0325 -1.3638 -0.4538
61947SOL    HW292703   4.501   6.012   7.713  0.0614  0.3893  0.1914
61948SOL     OW92704   0.292   7.537   7.903  0.2402 -0.3716  0.1285
61948SOL    HW192705   0.379   7.553   7.865  0.8454 -2.1898  0.6242
61948SOL    HW292706   0.253   7.624   7.911  2.1591  0.5456  0.2184
61949SOL     OW92707   3.289   5.496   6.754  0.3466  0.1332  0.7808
61949SOL    HW192708   3.303   5.563   6.822  0.2098 -1.0197  1.9766
61949SOL    HW292709   3.239   5.428   6.798  1.2354 -1.1616 -0.1655
61950SOL     OW92710   8.853   7.429   5.408  0.5234  0.5830  0.4925
61950SOL    HW192711   8.880   7.408   5.319 -1.7824 -1.1906  0.1302
61950SOL    HW292712   8.919   7.491   5.438  1.8148  0.6506 -2.1505
61951SOL     OW92713  11.723   3.822   6.072 -0.4065 -0.2654 -0.5254
61951SOL    HW192714  11.804   3.821   6.021  0.3764 -1.0025  0.6744
61951SOL    HW292715  11.738   3.889   6.138 -0.4474 -0.9263  0.1738
61952SOL     OW92716   0.096   9.922   8.237  0.5186  0.0958 -0.2869
61952SOL    HW192717   0.030   9.853   8.243  1.0391 -0.4346 -0.4823
61952SOL    HW292718   0.145   9.914   8.319  1.2928 -0.5263 -0.7913
61953SOL     OW92719   6.792   1.764   8.273  0.1807  0.2012  0.3972
61953SOL    HW192720   6.800   1.669   8.281 -0.1494  0.1204 -0.2397
61953SOL    HW292721   6.717   1.778   8.216 -0.3647  0.8662  1.2522
61954SOL     OW92722   4.091  11.046   9.917 -0.5837 -0.4306  0.3185
61954SOL    HW192723   4.037  10.973   9.887 -0.6154  0.0051 -0.7319
61954SOL    HW292724   4.177  11.008   9.932 -0.8205 -0.8551  0.6188
61955SOL     OW92725   1.109   2.798   2.167  0.1563  0.2847 -0.5449
61955SOL    HW192726   1.027   2.749   2.155  0.1015  0.3462 -0.4192
61955SOL    HW292727   1.082   2.890   2.170  0.3028  0.3608 -1.2321
61956SOL     OW92728   1.722   1.416   2.010 -0.1855  0.2177 -0.8803
61956SOL    HW192729   1.631   1.387   2.004 -0.2177  0.2228 -0.4572
61956SOL    HW292730   1.728   1.460   2.094  0.2191  0.1871 -0.8883
61957SOL     OW92731   1.088   6.758   4.509  0.2881 -0.8883  0.6451
61957SOL    HW192732   1.042   6.807   4.441 -1.8772 -1.2628  1.7100
61957SOL    HW292733   1.180   6.775   4.494 -0.2850  2.2831  0.0531
61958SOL     OW92734   4.365  12.070   3.044  0.0802  0.6429  0.8420
61958SOL    HW192735   4.451  12.029   3.031 -0.1766 -1.1326  3.9188
61958SOL    HW292736   4.302  12.004   3.014 -0.3044  1.7104 -0.8566
61959SOL     OW92737   9.997   2.777  10.051 -0.3383 -0.0348  0.7540
61959SOL    HW192738   9.994   2.688  10.088  1.7987 -0.0625  0.9774
61959SOL    HW292739  10.041   2.766   9.966 -2.2708  0.4987 -0.3746
61960SOL     OW92740   4.394   7.645   7.024 -0.2275  0.1730  0.2680
61960SOL    HW192741   4.313   7.655   6.974 -0.5217 -0.5357  0.6011
61960SOL    HW292742   4.433   7.565   6.990 -0.6284 -0.5429  1.4426
61961SOL     OW92743  11.990   3.804   4.251  0.2387 -0.4541 -0.0822
61961SOL    HW192744  11.998   3.757   4.334 -0.1000 -1.0974 -0.4086
61961SOL    HW292745  12.027   3.744   4.186 -0.2142 -0.2795 -0.5051
61962SOL     OW92746   1.692   6.881   3.396 -0.0972  0.6631 -0.3726
61962SOL    HW192747   1.721   6.877   3.487  0.4646  0.9543 -0.5354
61962SOL    HW292748   1.745   6.951   3.357 -0.7387  0.9297 -0.7774
61963SOL     OW92749  12.419   4.742   2.830 -0.2246 -0.2442  0.0408
61963SOL    HW192750  12.469   4.693   2.895 -0.3971  0.1549  0.4822
61963SOL    HW292751  12.483   4.802   2.791 -0.0239 -0.7893 -0.4726
61964SOL     OW92752  12.057   0.703   3.735 -0.2327  0.4147  0.9203
61964SOL    HW192753  12.034   0.765   3.666  2.8361  0.3037 -0.3913
61964SOL    HW292754  12.005   0.625   3.715  0.4659  0.4282 -1.3024
61965SOL     OW92755  10.810   8.752   8.323  0.4917  0.0065  0.0781
61965SOL    HW192756  10.890   8.788   8.284 -0.0447  0.7826 -0.3446
61965SOL    HW292757  10.739   8.801   8.281 -0.1186  0.9953  2.1417
61966SOL     OW92758   0.652   7.550  11.480 -0.1984 -0.3040 -0.2421
61966SOL    HW192759   0.558   7.542  11.497  0.0651 -0.5768  1.2260
61966SOL    HW292760   0.660   7.629  11.427 -1.1621  0.4415  0.6838
61967SOL     OW92761   6.483   7.875  10.215  0.5027  0.1623 -0.2011
61967SOL    HW192762   6.405   7.823  10.238  0.2435 -0.3762 -2.1002
61967SOL    HW292763   6.556   7.828  10.256 -0.0334 -0.0245  0.5661
61968SOL     OW92764  12.052   5.719   5.071  0.0541 -0.5865  0.1448
61968SOL    HW192765  12.096   5.800   5.044  0.0965 -0.3970  0.7489
61968SOL    HW292766  12.024   5.678   4.990  0.1479 -0.0241 -0.1762
61969SOL     OW92767   0.522  10.034   8.501  0.5527  0.0787 -0.0838
61969SOL    HW192768   0.527   9.943   8.473  0.7075  0.3962 -1.1379
61969SOL    HW292769   0.439  10.065   8.465  0.0360  0.1015  1.0828
61970SOL     OW92770   9.500  12.126   7.749  0.3522  0.1136  0.7708
61970SOL    HW192771   9.587  12.103   7.784  0.1351  0.8638  1.8412
61970SOL    HW292772   9.439  12.083   7.808 -0.0245  1.1168  1.1288
61971SOL     OW92773   2.248   8.105   5.936  0.0689  0.0816 -0.1159
61971SOL    HW192774   2.270   8.066   5.852  2.4515  0.6395  0.1623
61971SOL    HW292775   2.167   8.061   5.963 -0.5825 -0.3227 -2.5158
61972SOL     OW92776   2.310  11.497   3.461 -0.1730  0.2643 -0.3905
61972SOL    HW192777   2.369  11.427   3.489 -0.2376 -0.2378 -1.4519
61972SOL    HW292778   2.245  11.503   3.531  0.0085 -0.5343 -0.1469
61973SOL     OW92779  12.469  12.138   4.051  0.8000  0.4388 -0.5283
61973SOL    HW192780  12.500  12.186   3.974  0.3385  1.0370 -0.3439
61973SOL    HW292781  12.483  12.046   4.028 -0.1523  0.5554 -1.7035
61974SOL     OW92782   9.267   1.595   7.923 -0.1939 -0.6030  0.1590
61974SOL    HW192783   9.222   1.646   7.855  1.7653 -1.7807 -2.1913
61974SOL    HW292784   9.244   1.504   7.902 -0.0014 -0.9584  1.4504
61975SOL     OW92785   1.390   0.122  10.374  0.0134  0.0356  0.3421
61975SOL    HW192786   1.430   0.090  10.455  1.1526  0.3672 -0.0721
61975SOL    HW292787   1.422   0.062  10.307 -1.5045 -0.6714  0.2226
61976SOL     OW92788   5.444   7.435   3.936 -0.2381  0.1834 -0.4879
61976SOL    HW192789   5.376   7.368   3.935  1.2040 -1.4162  1.2189
61976SOL    HW292790   5.428   7.485   4.016  0.4108 -0.0441 -0.2063
61977SOL     OW92791  12.340   9.163   5.344 -0.0390 -0.0117 -0.6040
61977SOL    HW192792  12.367   9.251   5.373 -0.2477  0.0007 -0.4491
61977SOL    HW292793  12.257   9.147   5.388 -0.3329 -0.0194 -1.1474
61978SOL     OW92794   7.930   9.763  10.365  0.0518  0.0328 -0.1458
61978SOL    HW192795   7.923   9.772  10.460 -1.1843 -0.3931 -0.1741
61978SOL    HW292796   7.840   9.767  10.334  0.3848 -0.4750 -1.2362
61979SOL     OW92797   8.803   3.779   9.770 -0.3790  0.3997 -0.3325
61979SOL    HW192798   8.853   3.714   9.820  0.5453  0.4776 -1.1371
61979SOL    HW292799   8.713   3.747   9.774 -0.3684  0.4721  1.4850
61980SOL     OW92800   7.711   0.342   0.566  0.4029 -0.5553 -0.0711
61980SOL    HW192801   7.770   0.280   0.608  0.3959 -1.0019 -0.7157
61980SOL    HW292802   7.759   0.425   0.565  0.2517 -0.4372  1.1641
61981SOL     OW92803   3.512   2.894  11.571  0.1155 -0.3136  0.4421
61981SOL    HW192804   3.475   2.960  11.629  0.4485  0.4008 -0.1560
61981SOL    HW292805   3.440   2.832  11.557 -0.5348  0.4954  0.1403
61982SOL     OW92806   6.306  10.887   0.870  0.1740 -0.1400  0.0495
61982SOL    HW192807   6.288  10.875   0.963  2.7412 -1.1876  0.5140
61982SOL    HW292808   6.371  10.958   0.868  1.9970 -1.7492 -0.6463
61983SOL     OW92809   4.659   7.888   4.447 -0.2591 -0.5914 -0.2921
61983SOL    HW192810   4.726   7.839   4.400  0.1508 -0.1548 -0.1662
61983SOL    HW292811   4.691   7.978   4.449 -0.3360 -0.5709  0.6792
61984SOL     OW92812   4.786  10.005   5.857 -0.3673 -0.3471 -0.2600
61984SOL    HW192813   4.785   9.967   5.769  0.3018  0.4812 -0.6336
61984SOL    HW292814   4.800  10.098   5.842 -1.0981 -0.0795  0.6914
61985SOL     OW92815   2.942   9.821   6.713 -0.2819 -0.1454  0.7062
61985SOL    HW192816   2.925   9.744   6.768 -1.1332 -0.1027  0.5255
61985SOL    HW292817   2.940   9.895   6.774  1.8718 -0.3551  1.1012
61986SOL     OW92818   5.817   1.277  11.377  0.7333 -0.0999  0.2536
61986SOL    HW192819   5.802   1.281  11.283 -0.3558  1.9442  0.4629
61986SOL    HW292820   5.734   1.246  11.413  0.1901  1.7956  0.7115
61987SOL     OW92821  12.386   4.993   3.612 -0.3804  0.2598 -0.0093
61987SOL    HW192822  12.348   4.932   3.676 -0.0698 -1.3872 -1.3227
61987SOL    HW292823  12.480   4.985   3.624 -0.3365  0.5521 -0.1501
61988SOL     OW92824   5.357   8.883   7.951 -0.4708 -0.1456 -0.2084
61988SOL    HW192825   5.396   8.908   7.868  0.0888  1.1351  0.4190
61988SOL    HW292826   5.415   8.919   8.018  0.2521 -2.9005  0.8070
61989SOL     OW92827  10.545   1.511  12.101  0.0603 -0.7440 -0.3546
61989SOL    HW192828  10.455   1.479  12.095 -0.0253 -0.9939  1.5996
61989SOL    HW292829  10.539   1.605  12.081 -0.3279 -1.0853 -1.9805
61990SOL     OW92830   3.066   2.344   1.916 -0.0200  0.1183 -0.2673
61990SOL    HW192831   3.081   2.428   1.958 -0.4945  0.4337 -0.7081
61990SOL    HW292832   3.151   2.320   1.878  0.0455  0.5432 -0.3946
61991SOL     OW92833   8.259  11.274   7.481 -0.3197  0.3756  0.2615
61991SOL    HW192834   8.321  11.309   7.545 -0.6008  0.8828  0.2645
61991SOL    HW292835   8.245  11.184   7.508  2.1307 -0.4852 -1.0320
61992SOL     OW92836   6.738   4.567  10.191  0.1789  0.0031 -0.6629
61992SOL    HW192837   6.798   4.517  10.136  0.8480 -1.0133  0.9155
61992SOL    HW292838   6.765   4.658  10.178  0.6476 -0.2497 -1.5925
61993SOL     OW92839  11.350   7.139   4.248 -0.0955  0.0900  0.0266
61993SOL    HW192840  11.385   7.097   4.326 -1.3655  1.9196  1.6794
61993SOL    HW292841  11.281   7.079   4.218  0.0345 -0.3679  0.6272
61994SOL     OW92842   3.807   0.383   8.698 -0.4270  0.3032 -0.3491
61994SOL    HW192843   3.815   0.477   8.714 -0.8382  0.1185  1.1038
61994SOL    HW292844   3.862   0.342   8.766 -1.6270 -0.5353  0.1568
61995SOL     OW92845   5.178   7.867   5.281  0.1551 -0.0397 -0.4222
61995SOL    HW192846   5.162   7.780   5.243 -1.4819  0.2162 -0.4149
61995SOL    HW292847   5.151   7.927   5.212  0.5427  0.4648 -0.1351
61996SOL     OW92848   1.088   4.436   0.798 -0.9206 -0.0039  0.0804
61996SOL    HW192849   1.154   4.504   0.781 -2.3494  1.5576  0.5223
61996SOL    HW292850   1.135   4.371   0.851  1.5417 -1.3263 -3.3433
61997SOL     OW92851   6.687  10.856   7.427  0.5588  0.0358  0.5843
61997SOL    HW192852   6.598  10.822   7.415  0.8457 -0.5712  0.1258
61997SOL    HW292853   6.682  10.908   7.507 -0.4061  0.6892  0.1259
61998SOL     OW92854   4.519   4.472   4.360 -0.3090  0.3594  0.6561
61998SOL    HW192855   4.559   4.497   4.443 -0.1180 -0.9782  0.9763
61998SOL    HW292856   4.558   4.387   4.339  0.6777  1.2521 -1.4841
61999SOL     OW92857   8.000   0.775   2.389  0.1239  0.6782  0.0823
61999SOL    HW192858   7.937   0.718   2.433  1.3663  0.4136  1.6051
61999SOL    HW292859   8.004   0.742   2.300  0.0050 -0.9300  0.6485
62000SOL     OW92860   2.142   9.628   3.166 -0.3536 -0.5072 -0.5914
62000SOL    HW192861   2.129   9.541   3.128  1.1690 -0.8853 -0.2742
62000SOL    HW292862   2.141   9.614   3.261  1.5331 -0.4754 -0.5290
62001SOL     OW92863  10.604   9.772   0.739 -0.6001 -0.2829 -0.3765
62001SOL    HW192864  10.563   9.707   0.681 -1.1836 -0.8015  0.5970
62001SOL    HW292865  10.531   9.814   0.784 -0.2003  0.7875 -0.7034
62002SOL     OW92866   9.971   9.912  12.200 -0.0523 -0.1866  0.1306
62002SOL    HW192867  10.012   9.857  12.267 -1.3158 -1.2889  0.0394
62002SOL    HW292868  10.023   9.992  12.200  0.2725 -0.3455  2.1066
62003SOL     OW92869   4.292   3.164   8.978 -0.1152  0.1536 -0.2950
62003SOL    HW192870   4.252   3.131   9.058  0.9067  0.0071  0.1577
62003SOL    HW292871   4.304   3.258   8.993  0.4982  0.0453 -0.0936
62004SOL     OW92872   5.601   9.329  12.419  1.0251  0.6197 -0.1151
62004SOL    HW192873   5.543   9.341  12.343  0.7812 -0.6137 -0.1459
62004SOL    HW292874   5.648   9.247  12.401  1.2599  0.5207  0.8703
62005SOL     OW92875   2.336   3.939   8.482  0.3184  0.5929 -0.4166
62005SOL    HW192876   2.365   3.929   8.392 -1.4702 -2.2297 -0.8103
62005SOL    HW292877   2.278   4.015   8.481 -1.8938 -0.9676 -2.3847
62006SOL     OW92878   3.839   3.188  12.228  0.2371 -0.1839 -0.1074
62006SOL    HW192879   3.862   3.102  12.193 -1.0890 -1.3035  1.6198
62006SOL    HW292880   3.838   3.246  12.151 -0.9989 -2.1665 -1.6976
62007SOL     OW92881   3.757   3.267   5.119  0.5438  0.1042  0.7619
62007SOL    HW192882   3.685   3.270   5.056  0.1310 -0.2320  1.2070
62007SOL    HW292883   3.714   3.253   5.204  1.0470  1.0552  1.1906
62008SOL     OW92884   0.012  10.328  10.268  0.5647 -0.6463 -0.8124
62008SOL    HW192885   0.091  10.346  10.320  1.0236 -2.0775 -0.9628
62008SOL    HW292886  -0.012  10.413  10.230  1.4515  0.0052  0.0349
62009SOL     OW92887   6.413   7.242   7.136 -0.0817  0.2676  0.4264
62009SOL    HW192888   6.382   7.172   7.194 -2.0094  0.0021 -0.8187
62009SOL    HW292889   6.508   7.242   7.148 -0.1553 -1.6165  1.5224
62010SOL     OW92890   0.244   8.463   5.651 -0.1371 -0.0693  0.2503
62010SOL    HW192891   0.273   8.525   5.585  0.4582 -1.1597 -0.5472
62010SOL    HW292892   0.153   8.445   5.629  0.1651 -0.7060 -0.5107
62011SOL     OW92893   9.922   6.871   3.577 -0.0281  0.5154 -0.1361
62011SOL    HW192894   9.937   6.965   3.585  0.2351  0.4615  0.0109
62011SOL    HW292895   9.895   6.844   3.665 -0.3742  0.4997 -0.2443
62012SOL     OW92896   0.552  11.132   1.268 -0.0721  0.8705  0.2491
62012SOL    HW192897   0.641  11.167   1.260 -0.3928  1.7956  0.5549
62012SOL    HW292898   0.497  11.209   1.285 -0.6212  0.1074  2.3615
62013SOL     OW92899   4.415   9.480   0.376 -0.3429  0.2082  0.0556
62013SOL    HW192900   4.409   9.521   0.289  0.3570  0.4035  0.0966
62013SOL    HW292901   4.325   9.455   0.396 -0.6006  0.6692 -0.4846
62014SOL     OW92902   1.742   5.621   0.397 -0.0468  0.5118  0.4811
62014SOL    HW192903   1.735   5.573   0.479 -0.3641  0.3985  0.3853
62014SOL    HW292904   1.821   5.586   0.356 -0.1705  0.2112  0.4995
62015SOL     OW92905   8.930   2.658   6.024  0.0279 -0.0707 -0.3603
62015SOL    HW192906   8.889   2.574   6.005  1.6228 -1.4729  1.8531
62015SOL    HW292907   8.862   2.723   6.005 -0.3208 -1.4613 -5.0492
62016SOL     OW92908  10.270   0.682   7.270 -0.4016  0.4985  0.4795
62016SOL    HW192909  10.284   0.757   7.211  0.7781  0.5454  0.7966
62016SOL    HW292910  10.178   0.687   7.293 -0.6832  1.0033 -0.6608
62017SOL     OW92911   8.370  12.435   9.697  0.0744  0.0831  0.0598
62017SOL    HW192912   8.444  12.376   9.710 -1.7797 -2.1938  1.1449
62017SOL    HW292913   8.378  12.500   9.767  0.9338 -0.2396  0.2753
62018SOL     OW92914   5.386   2.910   3.156 -0.2249  0.0798 -0.3061
62018SOL    HW192915   5.461   2.855   3.134 -1.1804 -1.1052 -0.7102
62018SOL    HW292916   5.404   2.994   3.114  0.2297 -0.6412 -1.6004
62019SOL     OW92917   2.803  10.503   9.508 -0.0123 -0.4662 -0.1441
62019SOL    HW192918   2.857  10.532   9.581 -0.9720  1.8691 -0.2542
62019SOL    HW292919   2.713  10.517   9.539 -0.4748  2.8157 -2.4085
62020SOL     OW92920  10.102  11.342   9.050 -0.1383  0.5319  0.2975
62020SOL    HW192921  10.015  11.334   9.089  0.0245 -1.0958  0.3829
62020SOL    HW292922  10.153  11.271   9.089  0.2200 -0.7982 -2.3595
62021SOL     OW92923   9.970   8.917   8.295 -0.2308 -0.0885  0.0781
62021SOL    HW192924   9.958   8.857   8.369 -1.7911 -0.3754 -0.3713
62021SOL    HW292925   9.982   8.860   8.220  0.5400  0.2004 -0.0288
62022SOL     OW92926   9.842  10.009   0.595 -0.1600  0.1037  0.2791
62022SOL    HW192927   9.844  10.092   0.548 -1.1916 -0.3915 -0.6807
62022SOL    HW292928   9.777  10.022   0.665 -1.9969 -0.5419 -1.2217
62023SOL     OW92929   8.874   9.215   1.900  0.1263 -0.1924 -0.0298
62023SOL    HW192930   8.873   9.293   1.955  0.2279 -0.2690  0.0837
62023SOL    HW292931   8.839   9.244   1.816 -1.4182 -0.4121  0.5108
62024SOL     OW92932   8.374   8.150   0.023 -0.2342  0.0420  0.2112
62024SOL    HW192933   8.447   8.088   0.036 -1.0141 -0.5462  2.0706
62024SOL    HW292934   8.307   8.121   0.085 -1.2409  1.8411  0.0197
62025SOL     OW92935  11.529   7.535   7.971  0.0284 -0.2747 -0.2040
62025SOL    HW192936  11.450   7.581   7.999 -0.0227 -0.0088 -0.7881
62025SOL    HW292937  11.513   7.444   7.994 -0.9103 -0.4080 -1.3300
62026SOL     OW92938   4.660   4.754   2.485 -0.4928  0.1543 -0.1604
62026SOL    HW192939   4.679   4.727   2.575 -1.4812 -1.6363 -0.4386
62026SOL    HW292940   4.576   4.801   2.491 -0.6115 -0.0575 -0.1638
62027SOL     OW92941   5.525  12.362   7.413 -0.8970  0.7478 -0.0755
62027SOL    HW192942   5.570  12.424   7.471 -2.6884  1.7486  0.3203
62027SOL    HW292943   5.435  12.360   7.445 -1.7679  0.7338 -2.3424
62028SOL     OW92944   2.220   7.876   3.752 -0.1492  0.5914 -0.0892
62028SOL    HW192945   2.308   7.852   3.782  0.2048  0.0262 -1.5060
62028SOL    HW292946   2.208   7.828   3.670 -1.2669  1.6837 -0.6112
62029SOL     OW92947  12.396   4.053   8.799 -0.3741 -0.3662 -0.0098
62029SOL    HW192948  12.370   4.144   8.795  0.4605 -0.0655  1.0301
62029SOL    HW292949  12.380   4.026   8.889  1.2128 -0.6601  0.2227
62030SOL     OW92950   9.423   5.982   8.517  0.6712  0.5976 -0.1274
62030SOL    HW192951   9.363   6.042   8.561 -1.1967 -1.8625  0.8951
62030SOL    HW292952   9.404   5.993   8.424 -1.8928 -0.5682  0.2034
62031SOL     OW92953   8.856   2.427   3.068 -0.4930  0.3302 -0.7105
62031SOL    HW192954   8.884   2.433   2.977  1.4979  0.1862 -0.1682
62031SOL    HW292955   8.767   2.393   3.064 -0.6089  0.7486 -2.6068
62032SOL     OW92956   3.391  11.239   3.671  0.0406  0.5464 -0.0469
62032SOL    HW192957   3.445  11.225   3.749 -1.0732 -1.7935  0.3628
62032SOL    HW292958   3.452  11.229   3.598  0.4012 -1.0777  0.4346
62033SOL     OW92959  12.181   8.336   4.404  0.0870  0.0129 -0.2311
62033SOL    HW192960  12.172   8.306   4.495 -1.7497 -0.6727 -0.6118
62033SOL    HW292961  12.207   8.428   4.412  1.0604 -0.3383  0.9693
62034SOL     OW92962   2.615   6.851   0.737  0.1803  0.3342  0.1770
62034SOL    HW192963   2.669   6.912   0.787 -1.8776  1.5451  1.0605
62034SOL    HW292964   2.531   6.895   0.729 -1.2485 -2.1852  0.3776
62035SOL     OW92965   7.390   7.195  12.296  0.2297  0.4384 -1.2595
62035SOL    HW192966   7.389   7.104  12.266 -0.1177  0.2260 -0.6368
62035SOL    HW292967   7.439   7.243  12.230 -0.4896 -0.0195 -2.1464
62036SOL     OW92968  10.104   8.159   7.764  0.1016  0.2180  0.3776
62036SOL    HW192969  10.124   8.252   7.773  0.5285  0.5844 -3.0547
62036SOL    HW292970  10.030   8.156   7.704 -1.0145 -1.6644  1.7404
62037SOL     OW92971   4.205   8.010   7.057 -0.5411 -0.0021  0.1024
62037SOL    HW192972   4.292   7.996   7.019  0.4200  2.3148  1.2198
62037SOL    HW292973   4.163   8.073   6.999 -0.5989  0.5362  0.7108
62038SOL     OW92974   4.673   7.671   8.606 -0.0223 -0.0334  0.4360
62038SOL    HW192975   4.674   7.589   8.655 -1.3920  0.0838  0.6982
62038SOL    HW292976   4.750   7.666   8.550 -0.9929 -2.2957 -0.8255
62039SOL     OW92977   6.514   8.816   9.707  0.2725  0.2410  0.0387
62039SOL    HW192978   6.441   8.843   9.764 -0.1625  0.4108 -0.5812
62039SOL    HW292979   6.525   8.723   9.723  0.6796  0.4429  0.9789
62040SOL     OW92980   3.898   3.038  11.795  0.4687  0.2297 -0.9036
62040SOL    HW192981   3.863   3.006  11.712 -2.5197  0.0269  0.3302
62040SOL    HW292982   3.837   3.106  11.823  2.4371  1.6103  0.2747
62041SOL     OW92983   6.361   3.789   5.135 -0.6274  0.0726  0.0646
62041SOL    HW192984   6.432   3.726   5.124 -0.9861 -0.6367  1.5756
62041SOL    HW292985   6.302   3.771   5.062 -0.3232 -0.8005  0.0201
62042SOL     OW92986   1.724   4.472   6.574  0.0878  0.3018 -0.4173
62042SOL    HW192987   1.764   4.392   6.542 -1.3381 -0.3440 -0.6780
62042SOL    HW292988   1.705   4.523   6.495 -0.1560  0.3279 -0.3432
62043SOL     OW92989  12.249   1.128   2.094 -0.5172  0.3973  0.5256
62043SOL    HW192990  12.258   1.050   2.039  0.0761  0.3918  0.6205
62043SOL    HW292991  12.218   1.195   2.034  0.1391  0.3944  0.1698
62044NA      NA92992   4.334   6.834  12.384 -0.5542  0.2873 -0.3918
62045NA      NA92993   5.226   5.691   2.421  0.1552  0.4116  0.3141
62046NA      NA92994   5.917   7.932   9.883 -0.3081 -0.6066  0.5532
62047NA      NA92995   3.463   7.906   7.925 -0.5864  0.1935  0.0338
62048NA      NA92996   5.689  10.223  11.248  0.0472  0.4088  0.1196
62049NA      NA92997   1.316   7.232   1.359  0.2474 -0.2643  0.3583
62050NA      NA92998   6.480   0.945   0.883 -0.1396  0.6021 -0.2405
62051NA      NA92999   2.470   0.343   1.493  0.5234 -0.5353 -0.1722
62052NA      NA93000   1.323   1.179  11.773  0.5254 -0.1088  0.3542
62053NA      NA93001  11.698  11.120   6.801  0.2458  0.5073  0.0476
62054NA      NA93002   3.235   2.972   9.638 -0.3189 -0.0781 -0.0520
62055NA      NA93003   3.856   3.876  11.013 -0.3225 -0.7613 -0.2134
62056NA      NA93004   4.505   8.088   8.494  0.2733  0.7248  0.0782
62057NA      NA93005   8.624   4.204   4.853  0.2194 -0.0683  0.4115
62058NA      NA93006  11.678   1.716   9.687  0.2168 -0.3130 -0.0344
62059NA      NA93007   8.199   6.096   7.366 -0.1556 -0.2031 -0.5124
62060NA      NA93008   1.394   7.007   6.783  0.2464 -0.1703 -0.5400
62061NA      NA93009   9.000  11.346   9.224 -0.2221 -0.6713  0.3217
62062NA      NA93010  11.741   7.523   9.265 -0.4121  0.0937 -0.6347
62063NA      NA93011   5.797   5.446   1.585  0.8929  0.3925  0.1387
62064NA      NA93012   7.755   5.196  12.133  0.0255 -0.4464 -0.2947
62065NA      NA93013  10.738   3.722   3.051 -0.5754  0.3566 -0.2614
62066NA      NA93014   4.846  10.722   0.230  0.0614  0.3934 -0.1260
62067NA      NA93015   5.555   0.536   2.726  0.4939  0.0121  0.1642
62068NA      NA93016   1.853   5.845   4.599 -0.4254 -0.0416  0.2575
62069NA      NA93017  11.614   8.514   6.390 -0.1250  0.5792 -0.4856
62070NA      NA93018   5.754   2.889  12.329 -0.2167 -0.4381 -0.5460
62071NA      NA93019   2.312   3.457  12.402  0.0895 -0.4110  0.6359
62072NA      NA93020  10.925   1.749   9.401  0.0979 -0.3984  0.2055
62073NA      NA93021  11.295   5.120   6.288  0.1776 -0.2636 -0.0511
62074NA      NA93022  12.190   9.283   1.938  0.4516 -0.2938  0.0051
62075NA      NA93023  11.955   8.643   9.059  0.2218  0.0606  0.0777
62076NA      NA93024   9.191   8.431   2.503  0.0847  0.0061  0.1777
62077NA      NA93025   1.036   4.336   6.543  0.2516 -0.1772 -0.2929
62078NA      NA93026   7.096   2.363  10.590 -0.0072  0.6439  0.4842
62079NA      NA93027   2.146   1.308   1.105 -0.1328  0.5891 -0.0818
62080NA      NA93028   9.153   5.860  11.161  0.1207 -0.2604 -0.0010
62081NA      NA93029  10.120   7.677   7.591 -0.2515  0.1017 -0.0483
62082NA      NA93030   2.784   2.800  10.695  0.1428  0.0140 -0.2894
62083NA      NA93031   7.230   9.318  11.328 -0.5112 -0.5569 -0.0275
62084NA      NA93032   0.707   9.536   9.700 -0.9451 -0.2479  0.3946
62085NA      NA93033   8.801   8.444   1.577  0.1680  0.0261 -0.2626
62086NA      NA93034   4.816   8.281   2.601 -0.1300  0.0049  0.4161
62087NA      NA93035   1.586   5.858   9.852 -0.2823 -0.6018  0.8543
62088NA      NA93036   3.429   8.193  11.774  0.4647  0.3874  0.0616
62089NA      NA93037   0.341   2.209   2.324  0.1551  0.4772  0.1860
62090NA      NA93038   2.283   1.170   0.443 -0.0089  0.3054 -0.0373
62091NA      NA93039  12.291  10.736   3.002 -0.2176 -0.0063  0.0549
62092NA      NA93040   4.484   4.696  10.432 -0.3250 -0.0038  0.0981
62093NA      NA93041   0.956   9.088   5.071 -0.0033  0.5638  0.1654
62094NA      NA93042   0.624   8.267   9.483  0.4085 -0.0898 -0.0882
62095NA      NA93043   2.499   9.351   4.741  0.6353  0.2022 -0.1989
62096NA      NA93044   0.209   5.364   7.857 -0.2620 -0.0396 -0.1022
62097NA      NA93045   9.762   5.300   4.558  0.2958  0.2230 -0.0214
62098NA      NA93046   7.817   2.746   5.263  0.0723  0.0273 -0.1944
62099NA      NA93047   6.835   4.141   1.181  0.3627  0.4014  0.2979
62100NA      NA93048   5.958   6.410   3.086 -0.0548 -0.1108 -0.4037
62101NA      NA93049  10.062   4.693   6.200 -0.1562  0.3238  0.0485
62102NA      NA93050  11.942   8.653  11.703 -0.0597  0.1931 -0.2427
62103NA      NA93051   3.510   0.165   1.406 -0.0581 -0.0013  0.0443
62104NA      NA93052   2.662   8.410   6.123 -0.3188  0.4017 -0.1698
62105NA      NA93053   9.930   9.823  10.147  0.0494 -0.1226  0.0878
62106NA      NA93054   7.816   1.559   1.821  0.1605  0.0076  0.1384
62107NA      NA93055   1.990   0.837   9.569 -0.0055 -0.1235 -0.1387
62108NA      NA93056   7.089  10.276  10.230 -0.2682  0.1185  0.0419
62109NA      NA93057  10.705  10.819   4.158 -0.1811  0.4685  0.2030
62110NA      NA93058   7.243   4.496   2.162  0.2594  0.5161  0.3832
62111NA      NA93059   1.907   4.208  11.536  0.6064 -0.1740 -0.2703
62112NA      NA93060   6.182   1.528   1.521  0.2645 -0.1634  0.3075
62113NA      NA93061   6.564   6.947   6.437 -0.4009  0.0594 -0.4099
62114NA      NA93062   4.073   2.719   2.805  0.3701 -0.2479 -0.1865
62115NA      NA93063   7.349   7.286   3.132 -1.1169 -0.0248  0.0295
62116NA      NA93064   6.531   4.272   5.708 -0.2963  0.6722  0.3292
62117NA      NA93065   1.436   8.489   8.163 -0.0330 -0.0229 -0.4848
62118NA      NA93066   9.667   7.088  10.535  0.1041  0.1615  0.4104
62119NA      NA93067   6.948   9.415   4.081 -0.7475 -0.0209  0.1275
62120NA      NA93068   2.010   1.326   9.373 -0.0337  0.2813  0.7936
62121NA      NA93069  10.699   1.114   3.192  0.5790 -0.2874 -0.3142
62122NA      NA93070   3.928   1.433   2.892  0.3384 -0.4304 -0.1576
62123NA      NA93071   5.399   2.123   8.770 -0.2655 -0.6437  0.0262
62124NA      NA93072   8.940   8.287   2.952 -0.6723 -0.3086 -0.1826
62125NA      NA93073   4.538   3.452   7.082 -0.2399 -0.1876 -0.2400
62126NA      NA93074  11.814   9.938   7.543 -0.0972 -0.2307 -0.4374
62127NA      NA93075   3.982   7.996   5.091  0.5020  0.1781 -0.2743
62128NA      NA93076   3.398   9.368   8.781  0.0164 -0.0424  0.1427
62129NA      NA93077  11.188  10.942   9.098  0.2530 -0.1266 -0.0462
62130NA      NA93078   5.363  11.029   3.014  0.0130  0.1121  0.3047
62131NA      NA93079   1.631   9.103   9.111 -0.4171  0.4255  0.0794
62132NA      NA93080  12.356   4.705   4.901  0.0811  0.0250 -0.1397
62133NA      NA93081  10.637   4.977  10.511  0.2039  0.2708 -0.4251
62134NA      NA93082  10.013   9.953   4.253  0.1772  0.3858 -0.3673
62135NA      NA93083   2.266   6.072   8.444  0.2276 -0.0680 -0.4030
62136NA      NA93084   2.128   5.770  10.681  0.1094  0.2474 -0.4476
62137NA      NA93085   8.625   4.027   7.772  0.3624  0.5796 -0.5049
62138NA      NA93086   7.969   6.783   9.613  0.5322 -0.0709  0.1032
62139NA      NA93087   4.960  12.255  10.268 -0.1441 -0.2876  0.1125
62140NA      NA93088   8.027   6.854   3.384 -0.1188 -0.5566  0.4094
62141NA      NA93089   6.418   6.187   7.025 -0.7571 -0.6416 -0.0115
62142NA      NA93090   4.870   1.320   5.835 -0.0452  0.0005  0.0892
62143NA      NA93091   7.061   7.607   1.885 -0.4061  0.2318  1.3471
62144NA      NA93092   2.968  10.946  11.198 -0.5337  0.2097 -0.1122
62145NA      NA93093   5.897   8.508   8.974 -0.7976 -0.7158  0.0151
62146NA      NA93094   3.299   4.549   5.366  0.3320  0.3532 -0.0684
62147NA      NA93095   0.624   6.134   3.303  0.0108  0.4003  0.0201
62148NA      NA93096  10.091   0.957   0.069  0.3405 -0.0269  0.1711
62149NA      NA93097   7.710   2.160   9.850  0.1663  0.3960 -0.4916
62150NA      NA93098   7.660  11.091   5.008 -0.0265  0.2490 -0.3707
62151NA      NA93099   1.286   5.743   2.603  0.0787  0.0774 -0.5576
62152NA      NA93100  10.400   9.409   0.519  0.0811  0.2259  0.6118
62153NA      NA93101   7.485   2.274   8.406 -0.0880  0.4573 -0.0918
62154NA      NA93102   1.214  10.092   6.016 -0.2807 -0.3724 -0.7072
62155NA      NA93103  11.487   5.679  11.639  0.0141  0.3369  0.2136
62156NA      NA93104   2.376   7.944   8.673  0.3658  0.4365  0.2653
62157NA      NA93105   8.485   0.874   4.132 -0.1134  0.3019  0.2922
62158NA      NA93106  11.426   2.102   2.923  0.9351 -0.0375 -0.2247
62159NA      NA93107   3.159   2.716   0.987 -0.4515  0.3727 -0.1274
62160NA      NA93108   9.946   2.217  12.177 -0.0745  0.2492  0.0716
62161NA      NA93109   1.970   0.614   9.078  0.3945  0.2580 -0.3572
62162NA      NA93110   2.595  10.141  11.667 -0.3270  0.4872 -0.1200
62163NA      NA93111  11.771   2.189   7.640  0.1055  0.1101 -0.3965
62164NA      NA93112  11.280   7.334   2.916  0.6360  0.4246 -0.4762
62165NA      NA93113   6.411   5.866   1.922  0.0699  0.1650  0.0402
62166NA      NA93114   5.643  12.289   6.018 -0.3564 -0.4440  0.3848
62167NA      NA93115   5.854   3.727   5.792 -0.1138 -0.0334 -0.1855
62168NA      NA93116   3.633   5.317   1.630  0.3151 -0.6180 -0.3608
62169NA      NA93117   3.139   6.640   2.097  0.0359 -0.2771  0.0110
62170NA      NA93118   6.718   4.410   8.212 -0.0429 -0.0837  0.5431
62171NA      NA93119   9.278  12.052   8.793 -0.2821  0.1239  0.6472
62172NA      NA93120   8.032   6.213   5.333  0.1475  0.5072 -0.2122
62173NA      NA93121   4.917   3.769   5.054  0.2505  0.0887  0.1065
62174NA      NA93122   4.943   9.649   9.262 -0.4904  0.5166  0.3271
62175NA      NA93123  11.773   6.621   9.694 -0.1417  0.4117  0.2993
62176NA      NA93124   5.260   0.141   8.898  0.1119 -0.2341 -0.2578
62177NA      NA93125   9.587  12.211   5.865 -0.3606  0.1382 -0.0581
62178NA      NA93126   0.199   9.216   5.023  0.0977 -0.4450 -0.2320
62179NA      NA93127  10.703   3.469   9.296 -0.1290  0.1581 -0.4407
62180NA      NA93128   1.437   3.430   0.984  0.4505 -0.2197 -0.3737
62181NA      NA93129   2.412   5.168   4.416  0.2123 -0.3346 -0.0630
62182NA      NA93130   6.049   2.807  11.277 -0.0861  0.3534 -0.1165
62183NA      NA93131   4.011   8.035   1.860  0.0223 -0.1849  0.0882
62184NA      NA93132   7.317  12.471  12.447 -0.2416  0.1763  0.2673
62185NA      NA93133   9.967   5.744   1.472 -0.2704  0.0116 -0.1360
62186NA      NA93134   9.380  12.473   9.220  0.6844 -0.1189 -0.3341
62187NA      NA93135   8.012   2.737   7.225 -0.3130  0.2457  0.4680
62188NA      NA93136  10.280  10.345   6.629  0.4213 -0.3312  0.3959
62189NA      NA93137   4.649   6.862   3.547 -0.6152  0.2320  0.2151
62190NA      NA93138   3.916  12.201   3.079  0.0873  0.4797 -0.2815
62191NA      NA93139  11.513  10.881  10.642  0.0818  0.0439  0.2070
62192NA      NA93140  11.407   3.662   6.584  0.4102  0.0902  0.0508
62193NA      NA93141   8.796   2.882   6.469 -0.2239 -0.2718  0.2684
62194NA      NA93142   6.238   9.387   2.968  0.3113 -0.0649  0.9272
62195NA      NA93143   2.437  11.312  11.334  0.2167 -0.0694  0.1422
62196NA      NA93144  10.586   3.390   5.457  0.7943  1.0295  0.2786
62197NA      NA93145   5.262   0.644  10.527  0.0671 -0.2289  0.3161
62198NA      NA93146   0.738  10.675  11.393 -0.0681  0.2258 -0.6587
62199NA      NA93147  10.549   6.555   8.818  0.5332  0.3833  0.5473
62200NA      NA93148   4.459  11.108   4.136  0.1536  0.4154 -0.1974
62201NA      NA93149   5.874   6.796   7.469  0.2648  0.4908 -0.7670
62202NA      NA93150   7.373  12.364   4.885  0.3123 -0.2199 -0.1621
62203NA      NA93151   8.362   1.262   6.372  0.7200  0.2051 -0.1760
62204NA      NA93152   6.779   3.612  10.877 -0.4919 -0.6745 -0.0395
62205NA      NA93153   9.302   8.433  12.379  0.2776  0.0370 -0.0732
62206NA      NA93154   3.563  10.604  10.177  0.3490  0.1634  0.3214
62207NA      NA93155   7.560   6.630   4.142  0.0770 -0.2656 -0.6133
62208NA      NA93156   9.352   9.732   0.236 -0.3154  0.2387 -0.0934
62209NA      NA93157  11.214  10.414   7.377  0.6982  0.4663  0.6087
62210NA      NA93158   2.586  11.406   7.686  0.2390  0.3314 -0.2498
62211NA      NA93159   4.556  11.938   9.597  0.2749  0.0187  0.1931
62212NA      NA93160   4.710   3.277   8.829 -0.2233  0.1754  0.0518
62213NA      NA93161   7.315   3.034   6.542 -0.2562  0.3329  0.4484
62214NA      NA93162   5.806   0.609   4.909  0.0564 -0.0691 -0.1492
62215NA      NA93163   9.240   7.364   0.030  0.2442  0.1679 -0.0400
62216NA      NA93164   3.255  11.633   0.946  0.1102 -0.2017  0.2299
62217NA      NA93165  11.241   6.720   8.700 -0.3433 -0.4800  0.2750
62218NA      NA93166   7.788   4.152   0.112 -0.1478 -0.1362  0.2932
62219NA      NA93167   8.622   7.694   8.799 -0.1919  0.1081  0.1509
62220NA      NA93168  11.051  11.609  11.525  0.0008  0.5516  0.1359
62221NA      NA93169   7.167   2.410   2.753  0.1331 -0.0209 -0.0253
62222NA      NA93170   5.987   5.953  10.829 -0.2185 -0.1126 -0.0706
62223CL      CL93171   6.863   2.439  10.185 -0.2247 -0.1017 -0.2101
62224CL      CL93172   5.684   4.035   2.943  0.0880 -0.0316 -0.2504
62225CL      CL93173   8.317   4.981   6.653  0.2162  0.1402 -0.2783
62226CL      CL93174  11.793   0.444   9.073  0.1168  0.1760 -0.0615
62227CL      CL93175   0.306   2.110  10.932 -0.0901  0.0963  0.2862
62228CL      CL93176   3.064   2.277  11.959 -0.3647 -0.5316  0.3268
62229CL      CL93177   9.111   1.681   6.992 -0.6034 -0.4987 -0.2943
62230CL      CL93178   2.898   3.830   6.394  0.1583 -0.4103  0.0484
62231CL      CL93179   0.208   4.908   2.805  0.2701 -0.2101  0.2762
62232CL      CL93180   9.434   2.529  10.719 -0.4110 -0.5658  0.1103
62233CL      CL93181   5.591  12.173   6.526 -0.3570  0.1840  0.1868
62234CL      CL93182   5.431   1.509   4.061  0.4173 -0.2096  0.0269
62235CL      CL93183   1.400   7.388  11.158  0.1720 -0.3589 -0.1661
62236CL      CL93184  11.183   7.610   1.345 -0.1682 -0.1524  0.0064
62237CL      CL93185   0.096   9.009  11.510  0.2372 -0.0370 -0.3811
62238CL      CL93186   0.204   6.738   9.309 -0.1280 -0.2802  0.2893
62239CL      CL93187  11.821   0.993   3.791 -0.8502  0.2045  0.2628
62240CL      CL93188   8.820   5.584  10.656 -0.2745  0.0560 -0.0283
62241CL      CL93189   8.462   6.539   7.207 -0.1104 -0.3360 -0.4764
62242CL      CL93190   5.493   8.085   9.122 -0.1825 -0.0288 -0.1098
62243CL      CL93191   4.592   9.931   1.462  0.1735  0.2550 -0.1592
62244CL      CL93192  11.117   9.707  10.487 -0.1640  0.1826 -0.1346
62245CL      CL93193   6.976  12.156   3.947 -0.2944  0.0666 -0.0958
62246CL      CL93194   4.051  12.158   9.452  0.0111 -0.1071  0.0603
62247CL      CL93195   9.795   0.868   0.787  0.3878  0.0816 -0.1973
62248CL      CL93196   3.917   7.134   2.821  0.2699  0.1979  0.0841
62249CL      CL93197   7.312   4.111  10.720 -0.0151  0.0661  0.0604
62250CL      CL93198   4.938  10.098   3.958  0.0663  0.1696 -0.3662
62251CL      CL93199   4.125   8.476   0.583 -0.3734 -0.1717  0.2525
62252CL      CL93200   5.669   1.313   3.061  0.2184  0.3281 -0.0822
62253CL      CL93201  10.951   6.250  10.738 -0.1432 -0.0640 -0.1127
62254CL      CL93202   7.474   6.865   8.989  0.0446 -0.0092 -0.1825
62255CL      CL93203  10.355   1.590   0.305 -0.2445 -0.0159 -0.1690
62256CL      CL93204   1.774   8.792   8.355 -0.4161 -0.2962 -0.7219
62257CL      CL93205   3.452   3.800  10.758 -0.2191 -0.0609  0.3190
62258CL      CL93206   7.715  10.561   4.859 -0.2718 -0.0046  0.1968
62259CL      CL93207   6.144  10.706   5.368  0.0288  0.1395 -0.1525
62260CL      CL93208   6.236   8.926   7.857 -0.1490 -0.5460  0.1597
62261CL      CL93209   5.642   3.974   0.495  0.1074 -0.4207  0.3069
62262CL      CL93210   6.774  10.254   9.588 -0.0267  0.2450  0.0313
62263CL      CL93211  10.305   1.888   3.264 -0.0588 -0.0269  0.1434
62264CL      CL93212   7.343   6.118  11.642 -0.1883 -0.4018 -0.2318
62265CL      CL93213  12.190   4.984   7.492 -0.2173  0.3434 -0.2155
62266CL      CL93214   6.899   8.511   4.787 -0.2992  0.1916 -0.1712
62267CL      CL93215  11.558   3.728   5.699  0.3141  0.1008 -0.7975
62268CL      CL93216   8.605   1.324   4.153 -0.5429 -0.3523 -0.4092
62269CL      CL93217  11.137   9.130   4.101 -0.0758 -0.0305 -0.1095
62270CL      CL93218   1.537   2.403   1.386 -0.2127  0.0423  0.1166
62271CL      CL93219   3.269   5.385   3.624  0.4045 -0.3794 -0.1514
62272CL      CL93220   1.486   8.098   7.153 -0.3533 -0.4663  0.3596
62273CL      CL93221   9.178   3.136   6.866  0.1530  0.0748 -0.0396
62274CL      CL93222   9.018   4.501   2.249  0.2969  0.3897  0.0415
62275CL      CL93223   6.947   4.867   0.451 -0.0660 -0.5372  0.3085
62276CL      CL93224   5.117   0.819  10.532 -0.0572 -0.2121 -0.0343
62277CL      CL93225   5.414   4.372   3.785  0.2739 -0.0585  0.1797
62278CL      CL93226   0.680  10.365   0.443  0.2502  0.1061 -0.5922
62279CL      CL93227   5.349   7.620   2.256 -0.0700  0.2241 -0.0839
62280CL      CL93228   5.709   6.814   7.260  0.3789  0.1390  0.2230
62281CL      CL93229   2.533   7.537   6.413 -0.2621  0.1488  0.0139
62282CL      CL93230   7.618   3.256   6.779 -0.0140 -0.2275  0.1592
62283CL      CL93231   2.184   5.992   1.018 -0.1390  0.3490  0.1149
62284CL      CL93232   1.253   7.348   5.960 -0.0918  0.0456  0.3262
62285CL      CL93233  10.504  11.476   3.557 -0.3815 -0.3053 -0.1113
62286CL      CL93234   1.973   3.947   3.165  0.0489  0.0365  0.4264
62287CL      CL93235   7.320   4.066   2.526  0.1374 -0.2024  0.0875
62288CL      CL93236   4.563   5.832  12.426  0.3559 -0.0911  0.2339
62289CL      CL93237   8.718   8.429   2.556  0.0175  0.0588 -0.4889
62290CL      CL93238   5.925   0.112   1.056 -0.1733 -0.1564  0.1786
62291CL      CL93239   3.826   0.651   8.909  0.1693  0.2393  0.0907
62292CL      CL93240  11.453  12.274   5.099 -0.2772 -0.1355 -0.2115
62293CL      CL93241   6.862   7.246  10.891  0.4773  0.2549 -0.2994
62294CL      CL93242   5.118   5.911   3.214 -0.0751  0.3760  0.0560
62295CL      CL93243   8.547   8.996   0.512 -0.5338  0.4414  0.2336
62296CL      CL93244   8.112  10.933   0.138  0.2199 -0.1231  0.0125
62297CL      CL93245   7.009   2.276  11.333 -0.0762 -0.5974 -0.2011
62298CL      CL93246   8.730  10.706  12.429  0.4689  0.4372 -0.1256
62299CL      CL93247   5.826   6.055   2.365 -0.1934 -0.0221 -0.1065
62300CL      CL93248   4.344   6.105   3.522 -0.1217 -0.1782  0.4560
62301CL      CL93249   0.876   8.483   4.242 -0.3817  0.0512 -0.0437
62302CL      CL93250   3.856  11.174   3.452  0.0735  0.0472  0.0138
62303CL      CL93251   7.979   7.539   6.815 -0.0360 -0.0502  0.0042
62304CL      CL93252  10.616   8.864  11.778 -0.0501 -0.1661  0.3697
62305CL      CL93253  11.781   8.775   8.940  0.3704 -0.2614  0.4160
62306CL      CL93254   6.812   6.527   2.029 -0.3609 -0.2254  0.0227
62307CL      CL93255  10.400   0.729   1.421 -0.1494 -0.0732  0.1267
62308CL      CL93256   2.825  11.166  11.230 -0.2301  0.2585 -0.3534
62309CL      CL93257   2.361   0.299  11.254  0.3910 -0.2704  0.5149
62310CL      CL93258   0.442   4.660   5.006 -0.3000  0.2300  0.2098
62311CL      CL93259  12.254   8.902   5.756 -0.3709 -0.3525 -0.2055
62312CL      CL93260   4.388   8.468   8.751 -0.0188  0.2516 -0.4226
62313CL      CL93261   5.594   0.878   0.146 -0.1746  0.0657 -0.2854
62314CL      CL93262   4.427   1.881   1.633  0.0199 -0.6155  0.4054
62315CL      CL93263   3.798  10.529   7.416 -0.1128  0.1671 -0.1682
62316CL      CL93264   4.776   9.943  11.261 -0.0394  0.3123 -0.3030
62317CL      CL93265   2.932   5.535   6.914  0.1021  0.1416 -0.5350
62318CL      CL93266  11.018   1.184   9.910 -0.0596 -0.4136  0.1910
62319CL      CL93267   7.348   7.554   2.771 -0.1591  0.6310  0.0657
62320CL      CL93268   6.915   3.029   1.642 -0.1386  0.1383 -0.3865
62321CL      CL93269   1.104  10.974  11.098 -0.1085 -0.0384 -0.0042
62322CL      CL93270   3.946   5.026   2.887 -0.4332 -0.0826  0.1081
62323CL      CL93271  11.209  11.248   9.469  0.1591 -0.1125 -0.2397
62324CL      CL93272   1.398  10.420   6.317 -0.2171 -0.1061  0.5638
62325CL      CL93273   1.456   7.708  12.142  0.2107 -0.2725  0.2997
62326CL      CL93274   5.989   5.419   6.197  0.1531  0.1104  0.1317
62327CL      CL93275   4.821  10.096   7.355  0.1804 -0.0229  0.1962
62328CL      CL93276   5.476  12.122  10.788 -0.2135  0.5168  0.4390
62329CL      CL93277  12.140   7.073   1.935 -0.0807  0.0158 -0.3093
62330CL      CL93278   1.830   6.155   1.958  0.0046 -0.4909  0.7829
62331CL      CL93279  12.392   9.686   6.715 -0.5414  0.0765 -0.3129
62332CL      CL93280   0.208   6.829   2.504 -0.2591 -0.5439 -0.6793
62333CL      CL93281   9.777   9.628   5.187 -0.5214  0.1769  0.1659
62334CL      CL93282   6.640   8.723   2.319  0.5818 -0.2654 -0.1737
62335CL      CL93283   9.030   8.992   3.093  0.0467  0.3773  0.2354
62336CL      CL93284   6.898   4.325  10.053 -0.0069  0.0074 -0.1744
62337CL      CL93285   4.995   4.128   3.011 -0.5103 -0.0396 -0.1813
62338CL      CL93286   7.284   7.529   7.604 -0.2327 -0.4045 -0.0814
62339CL      CL93287   4.042   1.597   1.418 -0.0785 -0.1197 -0.3706
62340CL      CL93288   9.652   9.112   4.376  0.6046  0.4248 -0.0517
62341CL      CL93289  12.456  11.087  11.788 -0.2401  0.3289 -0.0348
62342CL      CL93290   8.256   1.145   8.738 -0.0474 -0.3902  0.2314
62343CL      CL93291   4.005   4.083  11.007 -0.2422 -0.5551 -0.2785
62344CL      CL93292   9.450   2.397   0.915  0.0293  0.1099 -0.0950
62345CL      CL93293  10.651   3.597   5.554 -0.2725 -0.1521 -0.0912
62346CL      CL93294   0.853   8.705  10.606  0.7593  0.5155  0.4311
62347CL      CL93295   2.106   3.553   5.863 -0.0583  0.2880 -0.1879
62348CL      CL93296  11.992   2.551   2.734 -0.4794 -0.0497 -0.2863
62349CL      CL93297   9.208   1.899   4.500  0.2183  0.0148  0.1750
62350CL      CL93298   0.009  10.799   2.880  0.7762 -0.2490 -0.2965
62351CL      CL93299   0.592   9.416   4.790 -0.1748  0.1523  0.1141
62352CL      CL93300   1.636   8.737   9.847  0.0227 -0.4851 -0.0724
62353CL      CL93301   9.856   1.155  11.999 -0.3396 -0.3148 -0.2762
62354CL      CL93302   4.005   0.396   3.360  0.1197 -0.1444 -0.5382
62355CL      CL93303  12.353   4.072   9.980 -0.4443 -0.0819 -0.0743
62356CL      CL93304  12.337   2.867   8.456  0.2142 -0.1949  0.3107
62357CL      CL93305  11.715   7.331   3.796  0.0964  0.1845  0.1698
62358CL      CL93306  11.183   7.290   7.653 -0.1316 -0.0355  0.0158
62359CL      CL93307  11.595   1.631   2.888 -0.0627  0.1635  0.2557
62360CL      CL93308   4.715   0.212   0.377 -0.2276  0.0172 -0.1130
62361CL      CL93309   6.627  11.736   1.850  0.3650  0.2435  0.6566
62362CL      CL93310   1.112   8.945   8.942 -0.0376  0.0418 -0.1340
62363CL      CL93311   3.552   1.310   9.344  0.3037  0.6125  0.2298
62364CL      CL93312  11.243   4.765  11.547 -0.1166 -0.3118 -0.0170
62365CL      CL93313   7.526   2.654   9.670  0.2164 -0.3276  0.1395
62366CL      CL93314  12.254   1.271  12.150  0.2323 -0.0612 -0.0290
62367CL      CL93315   6.209   9.421   2.729 -0.0946  0.3422 -0.0321
62368CL      CL93316   6.268   3.372   7.613  0.1087  0.5934  0.2365
62369CL      CL93317   6.457   4.005   8.969 -0.0226 -0.1675  0.0441
62370CL      CL93318   8.144   0.123   8.259  0.2335 -0.0466  0.0930
62371CL      CL93319   7.567   4.627  11.789 -0.2001 -0.0320 -0.0827
62372CL      CL93320   5.010   6.369  10.754 -0.4073  0.1007 -0.1223
62373CL      CL93321  11.090   7.077   8.309 -0.1896  0.5376 -0.0117
62374CL      CL93322   2.846   8.033   8.810  0.1283 -0.1075 -0.6360
62375CL      CL93323   0.461  10.276   6.437  0.3260 -0.1710  0.2371
62376CL      CL93324   2.930   5.800  11.578  0.7979 -0.4743  0.1211
62377CL      CL93325   6.708   4.198   3.081  0.1711 -0.0038 -0.1630
62378CL      CL93326  11.666   0.423   6.675 -0.3710 -0.1737  0.7034
62379CL      CL93327   7.920  10.842  10.183 -0.0425  0.0119 -0.1674
62380CL      CL93328   2.724   1.367   9.054 -0.3553 -0.4489  0.0620
62381CL      CL93329   6.307   7.140   8.494  0.1544 -0.4221 -0.0937
62382CL      CL93330   5.412   5.680   1.485 -0.2149  0.2433 -0.4032
62383CL      CL93331   2.962   2.842   2.610 -0.1618 -0.2266 -0.4201
62384CL      CL93332   4.955   9.605   9.026 -0.2909  0.2562  0.0322
62385CL      CL93333  10.978   3.420   3.805  0.0680  0.0316  0.2126
62386CL      CL93334   0.574   2.201   2.248  0.2971 -0.1214 -0.1147
62387CL      CL93335  11.203  10.405  10.307  0.0117  0.1162  0.0752
62388CL      CL93336  12.025  11.512  11.487 -0.0495 -0.1934 -0.1582
62389CL      CL93337   7.852   1.806   3.995  0.1383 -0.0017  0.0689
62390CL      CL93338   3.696   5.737   8.974  0.4562  0.0037  0.6811
62391CL      CL93339   6.936   3.838   7.084 -0.2039 -0.4486  0.2623
62392CL      CL93340   8.506  11.168   3.129 -0.1004  0.1515 -0.0394
62393CL      CL93341   6.316   3.845   5.699  0.1916 -0.4013 -0.3264
62394CL      CL93342  11.015   3.267  10.093 -0.7262 -0.1889 -0.7434
62395CL      CL93343   1.575   2.622   9.955 -0.1385  0.0989 -0.2847
62396CL      CL93344   3.121   6.097  11.241 -0.2073 -0.0747 -0.1974
62397CL      CL93345  11.993   4.941   0.446 -0.4169 -0.3910  0.2195
62398CL      CL93346   3.655   1.569   2.526  0.1105  0.2076  0.2961
62399CL      CL93347   8.978  11.492  11.280 -0.4091 -0.5025 -0.0069
62400CL      CL93348   1.634   7.238   4.274  0.1141 -0.1081  0.2494
62401CL      CL93349   8.880   1.050   4.619  0.1656  0.1546 -0.1390
  12.48162  12.48162  12.48162
